/*--------------------------------*- C++ -*----------------------------------*\
  =========                 |
  \\      /  F ield         | OpenFOAM: The Open Source CFD Toolbox
   \\    /   O peration     | Website:  https://openfoam.org
    \\  /    A nd           | Version:  8
     \\/     M anipulation  |
\*---------------------------------------------------------------------------*/
FoamFile
{
    version     2.0;
    format      ascii;
    class       volScalarField;
    location    "30";
    object      omega;
}
// * * * * * * * * * * * * * * * * * * * * * * * * * * * * * * * * * * * * * //

dimensions      [0 0 -1 0 0 0 0];

internalField   nonuniform List<scalar> 
127143
(
7.642e+05
1.437e+06
1.639e+06
6.988e+05
5.866e+04
7.075e+05
2.738e+04
4.049e+04
6.469e+04
9438
3.409e+04
5.324e+04
1.928e+06
5.916e+05
115.6
4369
1.979e+05
1.865
8.714
3939
44.85
1735
0.135
132.1
1692
510.9
1969
2118
715.9
0.9432
225.8
516.9
4495
546.5
0.06033
4481
94.15
5.647
89.78
656.6
8.699
2.471
1.532
2.745e+05
1.866
540
695.4
80.9
112.5
104.8
4166
0.02912
49.43
0.4346
0.02097
211.2
0.02096
0.4211
0.02305
0.43
0.9951
12.98
31.59
0.02211
608.2
1.057
0.07478
37.55
37.44
0.06773
160.5
1932
28.16
0.02304
0.0218
2089
0.0247
109.5
208.9
0.02222
608.3
3530
387.2
532.6
73.02
101.3
68.34
2631
0.873
403.9
0.02411
0.6347
234.2
44.92
138.3
0.7953
2.176
287.6
58.52
0.0734
0.02221
105.3
1729
2.222
98.79
61.66
36.3
0.06794
4.244
0.02133
113.7
2623
75.6
35.5
0.02184
1.389
0.02503
0.0218
0.02449
6025
0.02134
347.7
13.02
0.2315
611.9
594.6
19.99
0.02575
119.1
200.2
127
161.9
17.21
108.9
2.265e+04
126.4
0.06901
29.47
277
0.06179
0.2229
0.0237
29.65
16.76
47.82
65
4030
0.02213
162.8
2433
4.223
95.12
4.589
0.1199
44.83
73.17
0.4206
216.5
80.28
383.6
141.7
1868
0.02418
129.5
430.9
550.7
101.4
1.655
1152
0.03052
84.85
16.75
1.804
7.393
0.2014
43
58.15
118.8
111.5
0.03707
7.381
0.0391
40.18
42.97
200.8
12.48
0.1999
37.72
120.9
0.03679
73.81
144.3
0.06194
136.4
4.088e+04
18.97
0.01956
0.0195
1.156e+04
0.02209
0.02184
0.03055
0.2187
97.04
2.219e+05
53.42
0.06523
6.553
0.7849
0.02183
0.2487
68.69
0.02187
1161
174.4
7522
150.1
6.839
107.4
0.06558
47.33
0.02185
95.02
41.6
373.5
90.11
341.3
5.472
64.49
35.48
49.04
0.03876
22.34
4210
48.93
0.1174
129.7
8.964e+04
0.02184
56.41
137.5
488.4
65.74
214.5
14.26
4851
58.72
1919
3407
0.08132
12.52
508.4
8.239
30.23
148.5
4.319
0.02565
914.7
3.751
0.09492
18.58
0.03127
0.5968
0.02352
34.88
510
164.1
58.05
2.133
5.101
369.1
0.1997
65.05
56.82
19.61
69.43
75.3
82.58
0.3362
3.934
0.04657
2.323
2.187
0.02179
0.02181
3.857e+04
139.2
0.02186
92.7
0.03866
4.339
0.4265
0.1171
2.437
0.02227
7.418
196.4
50.79
66.07
4.441
287.3
0.8559
0.7414
1.279
446
27.42
6.522
0.0219
3.866
8.545
40.18
71.66
253.1
0.03774
0.02182
227.8
8.894
285.6
0.3334
0.668
0.1256
171.3
0.03372
8.259
236
14.54
0.03948
190.8
182.3
49.51
22.92
0.02181
0.05908
0.01957
0.01952
0.1166
4.11
1.802
22.88
154.7
0.0598
6.842
38.38
63.26
28.66
92.38
285
95.35
276
153.3
240.1
4.731
45.75
69.09
0.03419
256.3
30.19
49.65
0.0247
181.9
49.78
26.48
0.78
99.2
102.4
0.02193
0.02206
1.005
468
0.3741
4.852
0.03394
394.3
111.7
0.03479
0.1262
174
2667
53.34
0.313
1.216
582.5
208.7
0.8466
0.02488
1745
0.05119
627.2
19.75
3.298
0.02237
0.4543
70.41
138
120
212.9
0.4723
180.8
0.03386
0.03072
553.4
0.02185
40.41
40.58
0.05308
6.29
88.39
15.66
0.02222
96.06
12.22
259.1
0.2253
66.34
11.57
137.5
71.5
377.1
5.663
36.36
101.6
291.6
187.1
0.0627
35.69
0.1157
1.275
0.1376
441.5
0.08074
0.02116
182
45.35
0.3955
26.38
0.02192
7.515
288.7
0.02866
0.02224
0.02173
90.59
0.07008
4.919
0.02661
284.8
0.0219
47.26
1.023
68.56
49.09
181.5
5.36
504.1
0.05121
89.17
313.1
346.9
100.4
4
14.03
59.7
6.593
14.91
67.71
0.1573
0.02269
43.18
280.2
0.0208
40.29
0.6225
0.2313
8.472
0.05534
0.02029
47.43
0.5742
77.07
25.4
504
46.61
286.9
254.8
10.15
26.34
18.08
0.02172
309.2
0.02381
153
60.56
56.47
66.64
7.035e+04
145.5
12.13
0.1317
21.82
0.02177
490.8
0.02277
59.45
17.71
1.009e+05
5312
1.641e+04
0.02194
255
99.39
0.02182
30.16
15.85
130.7
2.523
49.74
183.1
40.34
857.8
0.1354
57.79
3678
47.55
283.2
78.3
0.02279
3.883
0.1846
5.659
0.02434
327.8
2663
71.6
0.01973
43.11
0.1347
106.3
11.96
1695
4.302
0.02404
77.23
7.873
0.02082
0.851
4.64
168.2
98.75
283.6
165.5
19.4
9.894
26.59
120.4
181.1
0.0225
541.1
118.9
275.9
19.72
79.47
0.02213
0.02207
0.08718
285.2
30.95
0.02185
0.02692
5.565
86.48
91.08
10.13
138.2
385.3
2.075
0.02388
0.02134
75.17
49.6
18.42
0.02987
1907
14.34
188.1
0.3103
393.8
0.02186
82.09
41.69
3.034
0.02366
132.7
18.6
945.5
0.02028
33.75
146.6
0.02172
6.279
0.02188
64.81
17.98
0.02179
331.5
155.2
65.15
116
23.92
241.3
209.5
39.73
81.87
196.9
95.21
47.66
47.79
365.3
0.02592
214.9
0.02179
24.7
0.0262
28.76
0.02117
0.02186
0.5132
36.17
65.64
0.02134
0.02117
62.16
2176
346.2
268.6
41.77
4.851
46.29
12.81
62.14
204.6
719.8
0.02136
263.1
57.48
0.7248
2.056
0.02456
0.02688
12.74
231.7
18.08
419.5
0.02609
0.03369
143.3
266.6
0.03011
580.5
0.1971
0.1558
219.6
3.524
53.19
0.183
1.731e+05
84.08
100.5
89.4
139
171.8
368.1
309.6
0.02769
103.3
45.73
40.29
0.02123
78.63
0.7311
0.6075
0.01971
0.0212
307.8
0.132
186.1
144.5
31.16
3.867
1.61
320
0.1682
130
0.0217
0.0209
16.6
0.1216
439.7
0.5124
293.6
31.46
66.26
0.2079
0.7296
0.03012
289.5
0.05562
157.7
2.469e+04
13.73
30.77
49.53
0.0246
26.71
101.2
277.8
3.343
11.15
62.06
2114
71.41
38.12
11.02
109.7
33.58
8.503
19.82
0.4692
3.736e+05
0.7179
0.03008
38.06
17.71
59.95
0.02156
39.9
4.482
90.42
0.03585
405.1
183
384.9
0.03621
319.5
53.03
283.8
164.7
0.03096
61.18
72.13
295.9
32.27
0.02218
38.4
79.96
0.02227
6.721
1.202
159.9
144.6
0.7276
13.78
455.6
159.6
0.01935
61.25
16.74
601.7
257.3
0.4791
29.54
164.6
0.01942
129.7
217.4
24.88
3006
24.4
69.81
63.15
64.47
2.377
0.02193
2.793e+05
131.1
109.1
99.12
100.5
91.5
142.9
125.5
0.02132
4.346
2.232
0.03153
162
152.8
37.03
12.77
0.02049
44.65
43.16
0.02171
0.02044
2.061
13.99
41.76
83.76
81.28
3366
3.248
0.3978
0.02124
94.21
97.66
194.6
367
1.325
0.04731
0.02261
3.174
2030
0.02126
0.1918
91.25
25.32
485
0.02299
53.55
27.78
0.02182
272.8
0.02121
25.2
927.2
236.8
16.82
874.8
0.02346
301.2
0.2054
327.9
53.11
367.9
2757
0.4733
0.8578
2.932
813.7
0.02181
2.78
166
553.4
46.34
643.3
0.04564
0.1778
75.75
469.2
1924
125.1
6949
342.1
3335
152.9
93.44
3.737
1495
0.02461
47.86
0.02526
0.02325
36.5
0.0293
113.9
13.2
33.28
0.8647
0.04555
302.9
39.92
0.02236
1.824
112.7
0.04343
365.5
756.9
42.54
5.549
116.8
10.49
85.6
0.02174
56.52
158.6
0.02443
302.7
113.1
11.13
0.0207
1.687
1.318
4670
4.908
765.3
36.74
14.15
30.87
174.1
324.7
0.02154
251.5
1.237
0.02302
5.26
2715
1.759
539.5
5.389
1.704
260.5
1626
129.3
0.02379
0.02184
5.92
9.484
123.1
341.8
73.13
421.8
192.2
0.1321
416.2
0.06598
1270
0.02162
79.67
77.57
27.02
192.7
51.8
0.02179
0.0224
89.98
0.307
65.02
116.5
78.88
65.04
13.95
149
223.3
667.5
43.21
254
245.1
5.74
42.59
139
96.93
96.06
1201
54.16
0.02156
0.02143
47.89
87.93
0.8549
0.02095
14.49
46.38
0.557
90.27
11.31
186.9
13.47
0.02223
0.4778
0.5849
797.4
434.5
49
0.6911
2.449
455.8
125.2
13.52
20.08
17.04
64.92
99.28
506.5
0.02447
472.7
187.2
16.15
107.1
124.5
0.02191
687.1
727.9
0.02093
0.02156
67.87
59.41
3350
46.56
46.19
96.91
144.7
0.5206
0.5455
0.02536
161.3
66.95
137.7
2.145
119
109.8
0.02387
596.6
54.09
0.02172
281
0.02262
0.0217
9.427
0.1475
1885
0.02158
269.4
0.02182
176.9
0.1197
1.81
3.191
208.8
160.6
214.8
17.95
0.05009
0.04217
26.03
86.6
87.67
159.7
960.6
165.3
593.3
123.3
132.2
509.8
162
507.6
0.3293
3.21
0.03149
331.6
43.51
343.3
0.05176
51.54
26.17
38.96
31.46
78.17
0.8247
458.8
10.79
39.04
52.44
232.4
53.64
0.02075
11.37
332
0.02294
227.4
499.9
0.02084
1.984
50.23
0.04073
0.358
8.397
144
0.2569
0.01992
218.2
193.9
0.0218
0.2282
0.0377
46.15
233.3
3.931
0.04112
79.02
827.2
212.6
121.2
28.62
1448
0.06089
70.26
0.02178
94.3
12.72
191.6
31.44
78.47
906.9
0.02197
3331
240.4
294.5
25.04
735.2
13.05
2.794
461
30.94
0.04188
6709
80.71
128.3
292.4
79.14
34.38
88.24
153.2
39.26
132.5
18.33
180.4
148.7
1.853
618.5
0.1346
46.96
0.1302
219.8
0.01986
0.02166
11.03
1582
79
0.1981
855.1
92.77
0.02181
2040
46.29
13.97
806.8
2.971
80.81
6.745e+04
1.822
252.7
27.04
34.53
1052
140.8
376.1
10.02
280.2
0.0904
0.6497
5.097
157.7
4.123
46.37
39.58
244.4
80.39
0.3875
75.86
2.237
1.302
4.963
588.8
0.05281
1816
352.1
90.78
123.8
0.02181
21.19
87.87
1.639
165.7
281.7
446.6
0.02136
164.1
82.35
68.88
577.7
56.66
4.377
82.46
0.02245
77.93
116.4
2574
176
0.1032
28.66
0.02273
2331
597.4
104.7
0.8509
4.005
0.0208
0.01984
57.21
55.67
10.45
0.1276
0.04123
0.04465
22.67
80.03
5.248
269.5
114.3
635
1.506
379.2
62.98
152.5
0.01988
225
25.57
21.63
707.1
4.634
9.995
139.6
26.31
53.75
1035
1.109
94.77
42.32
10.45
2.367
100.1
1131
0.2344
71.85
0.0212
130.2
624.3
0.02038
733.5
14.15
113.7
174.6
0.0214
1.741
6593
0.02193
99.34
206.3
40.11
625.6
0.9616
2.208
65.19
437.2
130.7
212.3
0.08463
30.98
172.8
3036
147.5
130
0.0217
140.1
4.377
321.4
168.8
16.77
131.7
0.02218
1.497
133.9
0.02444
31.41
0.02128
2007
39.67
1550
105.2
35.56
593.5
66.77
77.03
124.5
3885
136.5
161.7
25.92
47.97
63.17
0.02211
49.16
0.02306
24.95
0.02201
69.89
0.02148
210.1
75.23
0.02083
0.02173
49.62
0.2349
277.4
0.1433
0.02023
9.555
73.16
0.04058
1.837e+04
329.8
1975
77.31
16.95
137.1
78.26
40.56
0.3328
706.8
53.26
146.5
485.6
89.71
45.69
7.722
0.02156
3806
96.6
477.8
0.02181
666.5
34.48
138.5
56.91
0.01977
0.01975
0.3886
1.082
5.349
16.7
27.85
1.187
2.741
0.6061
1.955
380.1
26.79
3.054
57.13
2.432
590
291.3
31.37
149.5
47
0.02245
42.76
47.11
702.9
39.28
0.0409
22.75
1.042
65.87
45.47
712.3
0.7822
0.02174
92.12
10.69
840.7
305.5
0.8573
129.6
242.2
0.1747
0.01973
479
275.6
4277
0.09343
626
64.43
0.02155
211.7
107.2
15.33
0.2588
26.72
64.42
23.66
87.97
60.52
88.4
0.05251
39.33
338.4
269.9
0.04263
0.04255
173.6
19.43
8349
93.53
308.3
337.4
3773
0.7316
89.06
0.02803
0.02203
0.02152
76.34
0.02186
803.1
0.02174
2813
0.5437
17.32
49.58
238.5
0.07233
1035
0.337
180.2
43.76
846.7
0.02289
176.2
157.5
36.83
134.8
78.84
82.75
509.6
557.5
0.0566
0.02061
186.6
0.05983
0.02019
0.5245
161.3
0.02061
610.2
0.02185
50.69
25.02
24.98
136.4
0.02099
78.8
332.2
136.9
0.1138
5.247
0.3039
0.02179
0.02123
67.06
1.023e+04
8.367
38.93
0.02701
487.7
0.5222
0.1166
0.04773
2.738
151.4
222.9
0.02822
31.88
0.02368
74.2
0.02217
0.9701
24.79
40.57
25.15
278.6
200.3
0.02123
25.41
484.3
129.8
631.5
363.9
6.654
0.03959
5.095
6568
35.61
383.5
286.5
0.05617
0.275
0.02164
142
77.1
68.24
0.02181
119.3
0.02176
0.2655
143.1
0.02155
5.691
0.4669
14.2
27.55
0.3004
149.7
0.0219
130.9
281.9
2.158
8.963
73.63
0.04711
13.56
46.01
68.59
18.02
57.45
267.1
100.2
181.9
368.8
0.1002
0.3452
18.28
0.04188
102.9
54.81
0.172
34.53
0.02693
0.1364
110.5
1.319
12.94
113
656.6
103.9
671.5
0.8703
0.02066
706.9
55.29
0.1321
164.8
0.03213
23.52
0.02223
14.43
636.7
27.38
12.73
25.75
61.15
0.02187
26.96
0.7849
9.225
923
0.02842
42.02
444
0.02161
0.029
44.19
0.05685
46.42
2.576
2.063
16.05
0.7786
71.88
0.05969
0.9533
107.3
0.02076
0.3049
876.4
712.4
0.021
105.2
1031
4.386
403.8
20.52
72.12
710.1
0.049
0.08884
45.47
0.02852
579.7
14.24
81.28
693.2
222.9
0.02776
229.1
8518
2.361e+04
40.65
45.96
210.1
0.7199
76.63
5.351
64.74
336.1
54.86
49.97
27.02
475.5
62.42
1.159
0.02185
409.4
1.149
92.26
0.523
0.05915
56.61
40.31
4.138
0.02056
157.7
367.8
8.175
349.6
36.12
684.2
116.8
0.03136
248
231.4
48.04
45.35
892.2
0.0194
2012
113.9
71.44
0.02551
89.42
34.61
276.8
305.5
71.84
367.8
0.02566
7.901
84.48
0.06601
67.25
0.02194
187.4
2028
65.48
367.4
4737
91.91
744.9
0.0789
310.4
6.064
26.75
0.04897
6.241
14.19
86.49
50.77
0.04718
36.41
1645
4883
94.58
2.802
1.104
1.831
0.02243
0.02963
94.15
0.5328
0.02253
33.51
56.68
119.8
57.47
4.797
63.55
11.95
560.3
533
527.5
0.1224
39.19
1399
16.74
122.4
2.486
6.067
31.5
1.438e+04
8.406
6.327
0.0348
0.07099
760.5
83.34
0.02182
0.02196
26.64
327.9
76.35
43.99
1485
27.56
0.02753
335.6
30.77
65.83
524
0.5298
1.549
47.74
144.9
0.863
139.8
0.02189
97.82
14.64
345.5
0.7929
92.82
625.1
2.14
348.9
10.63
334.2
60.34
113.7
0.172
25.18
119.8
81.63
404.9
61.82
1048
143
0.02183
54
2.483
270.9
24.96
0.1809
10.21
0.1558
967.5
0.03768
75.1
45.54
58.42
52.4
26.06
0.2469
641.8
0.2955
0.02796
130.8
0.02092
86.31
0.03993
0.8947
18
0.02152
0.4056
95.92
99.89
0.02178
0.02528
44.83
8.554
244.7
0.2322
22.5
57.39
268.7
208.3
1.093
36.03
8.185
0.1036
47.23
2199
12.07
1642
177.1
14.18
645.1
0.02183
0.02062
2.535
2.237
3820
0.02181
9.826
154.7
1.025e+04
207
208.2
0.01958
0.01916
163.1
150.8
48.8
42.69
0.04231
2.239
1.163
0.02222
325.2
62.11
33.15
52.37
594.4
0.318
3.343
0.01994
4.987
57.49
281.3
133
134.9
170.3
66.2
84.95
50.96
332.2
152
0.0951
57.08
221.7
0.02578
0.02325
149.5
67.24
949.3
3.674
66.43
179.4
0.1154
0.02179
9.656
0.02211
61.79
1143
51.69
0.1975
21.61
0.05849
142.7
247.3
0.05484
6.047
4.765
38.75
74.19
16.49
167.7
102.1
67.93
112.4
7.557
24.67
311.7
44.99
112.6
47.42
3485
54.83
66.44
125.8
16.57
4.076
7.547
816.7
0.5385
207.4
0.02343
77.56
0.02214
60.43
11.81
744.2
193.9
0.1359
351.1
1074
398.6
61.53
26.64
288.7
1497
0.1977
72.39
15.36
1788
157.1
115.3
0.2716
0.477
0.02183
24.02
2192
2.541
80.68
56.81
0.1438
1138
0.01988
16.65
0.605
68.11
119.5
0.2481
2.373
14.26
0.05381
31.74
10.91
1005
95.83
104.4
0.02158
101.6
97.14
160.1
622.3
15.65
7.304
114.1
0.02188
108.4
64.53
8.47
16.21
33.75
931.5
281.3
72.99
68.22
0.7396
7.148
243.5
3.204
0.1167
461.9
0.05643
0.7306
0.02191
0.02199
65
0.02243
97.66
17.94
1.104
26.07
272.1
1035
146.9
69.43
150.6
76.82
2968
67.76
141.4
0.6635
1158
19.7
264.3
1163
0.03473
287.1
264.5
2.162
27.23
161.3
226.1
223.9
51.25
71.35
0.03085
5.826
0.02207
1.131
26.12
59.71
16.33
42.63
1434
29.82
0.02245
315.5
91.83
2.784
19.93
74.67
82.99
221.6
287.6
681.9
114.5
92.56
70.52
139.6
98.85
0.1145
1448
316.1
34.43
3.611
0.02272
116.5
350.1
76.87
2.108
666
465.1
115.7
2.589
85.49
1657
0.0227
146
13.11
0.04976
9.515
156
0.02185
248.8
27.31
5.752
3633
6.042
118.4
2830
98.43
90.81
0.01986
0.01981
85.58
12.28
3.613
509.5
49.35
0.02152
919.5
277.7
53.38
0.02266
0.02247
56.75
4
82.89
7147
180.1
0.02405
223.6
510.3
0.1264
209.7
126.4
0.06773
1.005
230
0.8906
60.58
0.01967
0.01944
0.01946
0.0196
0.08657
49.16
7.556
75.57
3.235
58.77
58.76
828.8
0.02037
141.3
98.77
112.9
647.6
130.3
44.37
26.48
123.7
45.29
59.94
0.1145
37.99
2200
63.44
585.7
0.8921
26.77
0.02179
1206
137.9
117.5
3.328
0.03791
1225
0.0218
89.52
602.9
0.0285
166
121.5
27.48
51.39
178.4
0.05835
196.1
0.02069
6.433
91.42
113.9
61
16.91
0.02167
0.02193
0.3495
61.62
284.9
0.4492
34.6
181.1
1.817
169
124.9
5.384
25.01
47.79
125.9
0.2215
1954
1.035
0.02179
757.7
0.0218
0.02289
0.3813
0.07868
199
36.92
366.1
91.43
116.8
0.02188
0.1037
56.7
73.88
63.89
0.03792
0.3926
7701
1096
0.02213
1706
1105
5248
0.05679
5.249
12.82
0.1113
0.02578
4.2
97.95
6019
0.1412
240.4
1.285e+04
0.0218
132.6
864.3
48.01
0.02179
285.7
7804
2511
732.5
0.5012
14.66
1899
0.05985
133.9
0.02155
33.15
795.4
5.894
296.6
718.3
0.2683
40.77
16.88
0.02225
0.03473
181
468.6
3.001
179.8
144.9
1.027
24.55
45.43
60.94
118.9
0.02181
47.07
61.63
74.85
161.2
24.92
173.4
81.64
501.5
1689
7132
197.5
0.05678
100.6
0.02787
300.3
196.5
0.02181
1.457e+04
0.02221
138.4
1144
498.5
133.2
132
85.05
38.9
0.01965
3274
33.87
0.04614
21.15
55.55
696.1
724
1148
18.07
147.9
842.2
28.02
0.1187
32.98
1716
0.02089
118.8
24.79
47.86
22.28
62.44
13.85
564
46.12
44.62
641
0.04266
509.4
0.1328
18.81
102.8
0.02694
0.1482
16.48
455.4
318.6
481.7
0.0448
0.02224
2.448
84.93
1443
98.36
7.316
0.01931
0.03468
335.8
0.01975
192
119.6
0.09192
184.4
58.24
2250
513.3
694.7
0.04205
207.1
98.95
200.5
3.651
9.983
946.8
49.83
248.9
92.13
166
76.6
2.069
1073
51.68
33.34
48.91
0.0404
20.92
0.1935
0.02228
9.755
156.3
126.4
72.01
18.03
940.4
1474
33.91
1.081e+04
0.1827
0.3915
0.03818
0.06846
9.543
0.02221
38.36
683.1
132.6
362.8
1.513
17.05
32.12
141.4
26
486.9
77.03
2274
211
0.02428
65.9
35.21
0.02204
0.04358
426.1
0.02186
228.3
218.8
89.25
3.471
516.2
0.07372
0.6999
0.05249
206.6
168.3
106.4
22.72
0.02144
74.17
0.02166
0.3464
164.3
2.886
653.6
200
237.8
6.342
1673
1.163
0.1586
50.92
159.6
0.02085
2.536
0.02185
299.4
403.8
115
117.3
0.02171
303.9
150
133.6
290.6
264.3
94.77
0.0248
1.107
1.975
2.235
318
13.85
0.1009
5.339
0.1743
24.31
111
0.02072
0.02046
0.02289
0.04322
0.317
100.1
242.4
0.02215
83.07
13.34
54.77
0.02194
116
0.1189
408.1
0.05736
2170
13.47
433.6
0.03448
0.1034
599.7
0.03213
53.53
56.48
67.32
177.7
138.1
0.02183
108.3
77.75
45.78
97.21
66.65
3.741
88.96
24.57
605.5
0.02155
33.24
16.75
1901
0.2126
0.02209
374.9
664
46.15
41.7
6.061
564.8
0.05479
13.94
58.53
41.13
47.63
5.074
0.02419
11.3
697.3
104.3
47.18
1247
3.341
3.701
0.02168
0.0314
0.1471
0.03574
6068
171.8
0.02195
0.02388
35.61
1981
0.02194
81.09
226.9
53.89
3.513
217.9
939.2
137.9
44.94
247.6
1074
642.6
0.02234
112.7
16.64
157.8
0.02139
0.3708
141.5
80.71
110.8
3827
487.2
1.379
276.9
1055
7.599
56.04
69.17
1.9
0.9813
343.8
1639
0.02158
296.1
44.77
0.02194
851.3
34.72
4.09
0.08246
33.07
211.2
173.7
12.14
0.02194
0.02205
1.803
47.38
0.02022
2.515
0.02813
198.2
27.03
33.77
164.2
389.9
1.852
46.5
0.02157
618.3
16
1081
183.3
0.1182
366.1
5.744
262.4
626.5
7.856
670.5
0.02082
0.02125
81.69
0.07891
0.0214
1066
75.23
78.7
186.1
12.57
77.97
0.02407
1013
0.04554
25.9
0.02045
0.2433
195.9
105.1
99.12
33.1
15.94
73.35
0.02048
93.65
125.5
288.8
1232
0.1512
50.2
6.828
0.02195
67.55
273.7
0.1883
0.0539
43.29
763.9
0.02127
0.02167
9.639
99.79
41.2
1177
0.02206
138
159.6
45.8
0.02208
0.0965
296.2
60.25
242.8
48.04
30.25
0.02055
150.6
0.02566
455.7
798.5
0.08021
53.28
18.89
144.7
286.8
72.36
0.07402
0.02049
88.06
0.2574
0.02168
372.7
85.87
8.472
0.02053
0.08959
0.1208
0.03103
37.74
128.5
0.02181
272.5
26.17
74.22
0.02998
0.02191
0.02169
0.05717
10.17
2.417
210.8
682.6
1405
24.65
940.4
500.9
0.02574
613.4
115.5
151
15.85
0.1988
2.13
162
573
384.3
132.4
0.06541
62.81
59.87
38.49
8.463
0.249
54.73
0.2704
83.64
0.02905
69.73
5.531
4.247
0.6281
598.2
1407
999.9
0.02062
3528
70.73
0.02017
106.9
0.02182
163.6
126.1
0.1024
388
29.17
0.0223
1.928
5.9
1065
0.02388
0.27
613.2
2.457
0.02159
541.1
99.46
0.03571
0.2557
3.121
65.56
1694
194.8
126.7
12.21
61.26
1.93
0.02174
0.05235
47.26
37.96
146.8
0.02207
812.6
85.09
15.28
46.49
91.98
128.7
0.0202
0.0665
171.3
192.1
0.0593
43.51
211.7
6.08
4.209
7.376
15.64
0.05016
12.47
13.94
9.874
5.911
0.02205
237.6
0.1294
101
3.165
2.045
126.8
126.1
2066
10.37
1.064
0.06903
0.02124
2.882
11.09
583.7
903.9
121.5
143.9
163.5
38.71
0.9362
116.1
185.5
592
63.15
0.05307
346.9
1.199
361.8
6.309
14.98
57.41
87.65
0.02179
52.05
0.2495
0.02165
0.2923
343.9
1.052
1.529e+04
197.4
68.31
0.02168
30.29
238.7
0.03779
48.76
67.96
98.09
84.3
163.6
0.02188
170.6
0.02075
2.04
295
58.54
3.038
193.8
1.05e+04
0.02196
0.02175
14.87
28.39
320.9
0.995
92.71
233.4
5.594
64.57
0.02225
165.4
462.1
0.1304
89.73
0.02157
22.2
0.07208
45.88
142.7
158
0.2832
83.2
15.02
0.02889
151.6
195.6
0.2487
0.02155
0.02394
144.7
943.2
9.297
5.529
130.3
7.808
64.71
7.855
0.01939
0.4341
1.286
948
1433
345.6
0.02135
199.2
50.8
90.78
91.85
746.4
3.355
42.42
37.76
25.22
241.8
640.2
0.9291
0.05458
6.677
0.03871
1622
0.02386
71.44
182.4
13.48
65.56
228.8
91.78
316.7
24.43
193.2
12.77
2.452
372.1
947.6
95.14
757.9
877.6
0.02181
786.7
126.1
318
661.7
40.41
1.514
65.53
32.09
5.604
0.05151
23.99
42.4
47.9
66.35
125.8
1.167
1.179
0.7563
640.3
84.13
1173
37.76
203.4
0.02028
418.8
130.4
581.3
21.52
757.2
322.7
112.6
0.1109
1035
0.09741
39.09
68.68
0.07571
0.7211
54.21
9.387
47.08
87.33
8.215
66.85
100.4
785.4
8.162
2377
0.04928
5.116
71.08
9.712
0.05948
233.5
0.02183
0.02266
0.02178
104.7
56.64
61
0.475
0.1684
86.47
0.05201
1883
412.1
625.4
88.4
0.09731
249.4
439.7
0.08473
163.9
0.02187
24.78
12.67
72.95
2.071
0.0213
0.02196
169.6
14.71
0.04702
746.7
59.45
0.02097
0.02182
24.61
0.0374
155.4
929
0.02465
3.4
85.81
221.3
371.6
744
10.26
0.1905
17.86
111.5
0.3321
314.1
8.727
2.589
212.1
132.4
1.103e+04
0.0323
22.73
117.2
922.9
0.02184
97.21
0.02181
11.72
2.774
10.68
40.15
108.1
53.31
0.2496
360
82.91
208.6
232.2
254.1
119.2
1.364
26.89
289.9
85.36
104.5
0.02121
673.4
774.5
379.7
17.27
3.883
340.3
200.8
0.4996
0.1482
5751
105.5
0.04301
0.02859
0.04494
136.7
265.3
2.92
890.4
5.671
0.03272
40.52
23.55
38.16
160.1
4338
651.7
67.12
212.7
101.4
142.6
83.44
106.5
17.1
12.74
392.9
97.83
0.4559
95.67
222.6
0.2067
19.42
1.167
4.296
629.8
76.26
0.02204
638.7
8.198
774.7
77.94
0.02157
0.1408
237
0.03472
98.93
260.1
600.8
11.88
0.02329
0.265
22.96
36.25
0.1005
134.6
0.02078
204.6
51.44
101.1
51.37
115.3
117.7
120.3
633.5
0.4436
34.77
0.02183
860.5
0.04864
0.02617
52.81
0.02218
33.93
26.67
6744
0.02196
65.47
45.95
167.7
132.4
0.2581
128.8
80.41
112
573.4
69.61
0.1257
0.02268
73.3
365.4
11.27
67.75
121.1
93.13
3.212
0.02116
55.81
63.43
780.6
17.27
133.5
4.01
75.15
0.02151
7.193
777.7
361.9
0.02198
0.295
77.49
0.01995
29.43
386.2
30.7
0.02195
0.02201
10.38
0.02498
0.02014
0.02174
11.79
235.9
353.4
0.3861
53.71
4.209
0.8296
0.02225
42.15
20.79
0.05106
1.037
347.3
2
0.02938
107.5
89.18
7.752
660.3
2267
0.02887
45.13
11.25
233.3
116.7
126
0.02194
21.48
556.7
2.48
45.08
0.501
462.7
118.3
66.69
5.163
816.1
0.08806
2984
73.39
0.02929
0.03578
0.02
69.58
65.37
789.9
313.6
903.3
0.136
0.01941
32.82
44.99
0.1624
0.02222
278.5
16.01
511.4
89.37
89.5
26.45
13.73
10.31
93.05
0.01988
324.6
198.3
118.1
4.99
0.1071
0.02253
91.75
27.36
118
1452
14.99
0.05068
24.69
0.7825
0.1016
0.02233
242.5
68.3
149.6
255.4
59.73
1.054
97.95
84.43
2.884
30.05
0.5237
0.2033
0.02192
41.14
2072
1.11
0.9754
2759
0.3319
0.02169
4.485
0.03389
0.02203
47.29
0.0195
0.01945
3.309
0.02012
105.8
568.5
169.4
4.381
0.2173
0.02113
0.02197
4.979
77.94
13.28
717
31.68
0.02893
33.79
11.42
556.7
0.276
0.02198
3.427
56.3
0.02203
0.02136
43.55
78.67
0.06819
0.03524
127.3
0.02132
0.3663
0.02191
1962
0.2305
106.4
19.74
0.03305
0.1895
8.581
78.9
203.3
66.4
30.26
22.99
0.02215
622.5
36.73
45.15
0.02191
56.38
67.45
167.6
65.26
0.3849
106.4
4.255
0.2262
99.97
0.02205
1.779e+04
5.092
853.9
0.02197
85.9
0.02187
0.1108
1.963
153.5
71.62
45.16
2.581
0.08319
978.8
0.09654
85.78
892.7
6.097
0.216
0.03782
221.1
0.02164
1.639
80.84
6.453
5.251
0.02227
858.8
0.03941
50.13
379.7
21.29
119.7
311.1
42.46
348.7
37.7
1.046
50.79
1.926
0.0218
0.02181
553.5
23.97
246.1
36.02
36.88
0.0218
24.91
0.02181
0.02204
0.0381
372.1
0.1726
4.304
0.02875
111.7
0.3513
118.2
95.68
1229
0.02846
283.1
29.03
33.17
0.2471
75.24
0.02187
35.4
0.2349
95.13
4.992
0.03629
89.74
2007
54.48
449.9
74.81
1103
354.2
2.533
14.62
1121
8.175
1014
208.1
81.56
117.1
113.2
83.82
69.55
189.4
0.03523
50.48
0.05714
128.9
825.9
29.19
69.37
268.9
33.75
56.91
0.0299
85.95
96.88
3495
22.14
0.02347
66.68
28.2
52.67
0.04929
23.04
57.83
84.42
0.7782
356.3
14.33
113.4
129.2
185.9
54.74
73.52
80.33
0.02794
551.2
7.657
0.02619
71.69
90.72
141.8
367.2
274
0.02202
53.6
47.79
0.1467
4.143
38.52
1253
239.1
0.02089
0.0222
2.038
89.39
22.5
0.02164
21.17
87.28
146.6
656.6
0.02104
94.49
768.9
104.1
2197
168.3
186.5
189.3
74.56
7.35
0.02562
138.2
168.2
52.68
112.2
0.9979
97.4
0.02211
0.0447
133.6
138.8
80.3
264.5
85.93
0.02224
134.8
145.3
0.3546
101
3249
276.8
0.033
0.2176
0.02793
29.89
123.1
354.6
348.7
42.6
122.7
0.02182
117.6
1.261
18.87
130.5
0.7746
632.4
20.25
641.8
0.0431
55.32
525.2
0.0218
55.81
62.02
96.13
37
0.0219
0.02205
0.03513
91.92
0.02225
20.86
208.1
0.2173
49.24
155
0.04896
24.63
41.39
0.1838
581.3
124.4
750.4
128.4
0.02213
335.5
635.3
0.02172
963.9
5.967
13.96
12.56
214.2
59.92
26.3
69.97
22.55
0.02194
25.06
0.02178
0.06944
402.1
50.4
17.56
14.97
1.527
203.2
0.02193
0.01977
0.09469
62.62
108.6
25.84
1105
1.613
0.1163
407.7
0.7468
39.59
0.02137
97
250.8
80.48
69.55
194.6
37.13
80.72
62.45
2.607
0.02518
76.57
84.97
48.65
126
680.4
203.5
0.0215
79.13
74.31
68.03
1623
0.02185
151.6
55.61
54.25
79.74
64.89
1279
130.7
66.07
266.2
2348
5.181
54.6
591.2
6.101
0.02169
128.1
60.88
75.42
90.04
77.95
12.16
0.03432
113.5
33.63
418.7
9.353
294.8
424.4
0.02176
281.2
50.88
137.5
2.246
0.01945
132.8
124.9
8.471
28.1
0.02136
55.84
25.64
2.603
43.29
38.21
194.9
112
180.3
145.5
0.01993
50.5
101.2
117.6
235.6
46.78
14.38
58.67
85.71
10.15
51.6
238.4
840.6
284.1
206.8
4801
10.51
0.119
4.528e+04
151.8
615.5
0.03153
542.8
1349
105.7
11.17
0.02349
10.47
0.02181
42.32
16.34
2.596
2.483
71.14
322.8
10.38
4363
32.52
114.5
101.3
2042
245.4
92.19
49.49
0.168
83.73
65.12
1051
48.08
0.7837
0.9656
160.4
0.886
0.022
0.02178
15.34
17.97
0.05096
0.02019
0.02241
72.58
424.1
276.4
0.02155
0.02539
24.58
0.01974
0.01985
342.5
0.04294
50.44
323.7
0.06072
141.3
3.912
116.2
7.546
72.45
0.08409
42.38
80.91
1.397e+04
113.6
66.62
129.7
516.2
1.808
0.02534
30.63
296.2
0.02179
2.995
188.8
277.4
605.6
45.16
100.3
339.9
0.02732
52.48
132.1
103.5
34.59
139.3
0.05821
12.96
26.75
125.1
54.84
77.89
0.03587
387.1
60.82
0.03183
75.58
0.05566
72.3
0.02997
2028
674.3
0.03411
76.32
51.72
0.1953
679.3
151.8
0.02355
229.1
51.93
85.56
625.3
0.04804
0.4358
3616
33.38
89.92
3.122
53.63
1.635
6.627
67.96
0.04919
1.34
133.8
58.67
103.4
47.91
109.8
2.76
59.29
229.1
139.9
2.816
16.2
0.0218
0.1714
176.3
90.15
0.01947
1.65
13.76
7.583
71.4
29.17
78.47
0.1889
97.48
36.26
0.08978
49.96
149.5
0.1738
319.3
0.05755
353.7
20.02
0.4248
0.09292
27.23
257.9
129
0.02108
169.9
68.13
94.28
0.06119
0.02246
20.78
118.6
516.9
7.664
27.2
46.29
96.68
1.821
1.843
802.2
6.344
1.317
2783
196.6
25.99
42.11
0.02204
1.738e+04
0.02281
94.51
44.05
48.74
75.89
48.94
552.4
12.97
5.412
0.5429
9131
255.3
33.78
6938
829
244.8
45.09
0.1444
0.6354
0.4323
29.71
0.02187
155.1
784.3
0.06243
20.48
2.834
42.83
51.16
229.6
1274
421.5
89.67
0.01942
0.01914
0.0218
127.9
2240
0.7267
0.0216
0.2588
602.2
3.998
1334
55.01
0.02285
4636
0.01949
1.178
22.49
0.05235
28.61
0.4976
1.042
0.09882
603.7
77.23
23.35
46.9
6643
28.41
348.7
86.21
39.41
0.02213
4438
201.6
392.7
53.66
95.71
29.99
216.3
0.1067
56.25
122.5
42.51
144.8
0.02712
592.5
109
386.6
7.602
0.1114
0.1883
0.02225
104.5
113.8
116.4
52.69
19.78
857.6
32.1
67.95
15.73
108.2
0.2285
162.5
50.31
38.22
2.173
0.07795
4.273
0.2144
25.24
1.849
218.5
8.443
208.7
21.73
6.253
124.7
0.4985
614.2
50.69
1.647
0.1317
713.6
80.82
73.29
57.17
1147
0.02204
490.8
265.5
28.21
76.52
43.7
25.84
202.9
44.66
161.1
53.92
34.35
2465
0.04474
0.02187
0.02217
46.41
275.3
1.998
494.6
347.4
1565
81.82
39.28
652.2
653.6
5.113
231.6
366.8
30.69
770.5
0.02177
143.5
233.8
219.2
0.02157
224.5
14.87
95.56
116.1
67.66
0.0221
0.3569
113.5
769.8
0.02094
183.8
2.879
0.5658
1.084e+04
0.02984
17.98
48.25
119
166.4
0.484
23.88
7.079
268.6
281.8
280.3
0.01951
78.81
1.369e+04
0.02932
0.02437
272.5
874
139
67.95
0.07695
26.11
142.1
15.98
16.31
78.18
0.02005
39.3
7.594
0.2943
0.02404
70.8
0.02137
8845
40.94
4.891
8.576
1983
0.02282
318.7
0.02
0.02216
179
0.5921
81.28
12.09
0.06452
113.7
73.59
84.25
7.442
110.8
202.5
329.2
159.7
260.1
605.7
668.7
86.58
24.05
189.9
144.9
78.17
0.5944
0.02122
0.0212
1295
29.44
80.71
1280
0.02235
507.4
0.5174
0.02039
86.41
6710
5.438
225.2
2661
0.02206
334.6
101.9
61.66
31.1
24.64
1688
291.4
0.02177
1348
486.6
0.08403
0.0257
99.97
372.7
122.6
239.8
54.35
38.5
0.0218
283.1
0.02125
231.1
245.8
1268
0.01944
0.01916
0.2508
33.81
0.03843
73.5
1.306
36.95
92.68
48.25
101.2
0.07967
0.03063
781.8
536.8
38.36
342.6
0.05208
64.42
0.02148
56.03
1694
67.85
221.4
623.9
246.5
174.7
1.274
29.87
79.31
0.02894
0.02222
0.02186
33.74
81.65
224.2
2797
147.1
0.02761
67.15
162.2
146.2
3023
17.22
71.45
521
20.24
0.07697
1.823
5.96
3.778
0.1036
375.9
90.64
17.34
38.78
234
0.2352
0.01976
539.2
28.22
51.1
122.8
1233
32.8
0.02086
83.12
72.68
83.02
3.475
43.89
63.54
4.903
116
1.805
0.05382
78.93
0.05814
0.1187
0.2513
608
10.05
478
58.2
22.1
98.07
0.03551
215.2
144
0.5785
78.98
15.94
1779
0.03919
0.02636
216.4
99.56
73.34
98.36
0.536
216.1
0.07273
0.02184
8.459
128.3
0.02806
2.229
11.68
0.02176
668.4
0.07054
42.45
34.28
16.91
0.7168
300
118.2
2.541
0.08583
0.02234
61.41
23.22
121.1
73.85
0.02157
0.0202
0.02179
43.44
86.41
70.02
0.04264
392.9
81.3
245.2
20.51
279
0.3959
0.03795
988.5
0.02247
107.6
75.1
0.03936
49.34
49.21
57.46
244.9
174.5
42.41
2.883
0.04924
2180
107.9
270.3
0.2571
1.446
0.02189
772.4
0.02176
51.58
652.3
0.02311
3.51
10.66
290.2
0.06694
76.18
5256
58.02
0.02169
43.13
149.8
75.12
61.11
64.6
91.51
503.7
10.84
0.02074
0.02531
5460
9.422
180.3
4.399
21.6
0.02122
0.02193
1.69
3276
571.6
270.6
147
0.8949
163.1
788.8
22.92
196.2
0.0219
274.6
5.396
211.6
59.43
56.66
0.02162
333.1
38.01
501.6
5641
13.65
6.491
1.075
92.85
0.02312
13.94
1499
105.4
222
123.1
1112
48.07
86.46
0.2226
350.8
462.9
1001
115.8
0.03128
882.5
588.3
0.02179
180.1
173.8
155.7
224.1
95.46
11.13
65.37
18.34
0.02749
82.41
0.02211
39.69
0.2298
1827
0.277
2852
18.25
320.1
32.17
35.43
196.8
8.176
121.5
1038
33.77
74.15
18.92
4.998
69.2
66.51
20.97
0.02782
11.82
8.134
54.4
105.1
157.5
565.5
116.5
0.02861
125.3
851.9
68.76
24.64
301.8
0.04656
99.83
0.02171
111.2
1.238e+04
1.454e+04
560.2
97.01
17.88
0.02113
0.04043
73.62
88.31
72.01
3.058
0.02229
49.68
174.9
6.385
79.27
0.02185
406.9
90.2
1240
4.621
12.58
47.93
204.2
0.03533
383.7
4412
1.014
8.004
0.4214
167.5
932.7
3.706
76.27
5.443
100.5
0.02786
111.7
0.01989
631.2
67.73
12.28
88.69
3.351
293.4
115.1
1.868
0.08401
0.02199
0.02173
18.7
87.87
41.59
14.21
53.66
56.12
2524
1.464
68
0.3605
0.02212
379.9
0.02238
33.84
325.8
3.52
103
59.18
1476
280
97.03
125.7
23.02
172.6
0.1847
780.9
0.02178
1818
658.6
31.8
50.56
0.02224
70.74
67.25
142.8
1.149
101.6
734.6
703.9
0.02176
71.49
0.02197
0.0218
450
0.0298
101.3
8.853
666.4
87.57
68.59
57.36
95.32
1.421
115.6
1.826
3.846
9.49
0.02551
53.02
0.07809
1171
94.2
18.75
0.4335
14.59
160.9
277
184.6
16.9
6.777
0.4445
106.7
66.49
279.2
87
0.6849
79.87
142.4
35.97
47.38
4.229
46.89
7.245
117.2
2346
29.59
0.2191
0.03998
458.3
26.23
0.02182
292.8
0.466
1199
253.5
0.01967
65.07
177.3
161.3
293.7
261.8
50.93
131.6
0.03979
210.6
247.1
48.55
131.9
53.5
146.5
0.02237
0.02435
0.02224
87.62
0.2887
0.02197
0.1202
7379
0.02194
138.4
381.8
1.198
201.3
173.2
78.6
503
21.35
76.41
78.22
8465
0.02174
202.6
7.817
72.13
1.967
4.752
3.517
1.516
537.6
0.04604
0.03019
1.132
639.4
929.5
216.2
422.9
0.05048
1805
0.02173
67.61
94.68
77.01
0.02182
0.7346
23.05
124.2
204.5
199
2.436
193.2
1706
10.95
17.19
0.02826
4.797
5.219
0.5488
1.322
10.68
168.6
21.41
0.3456
197.6
208.1