/*--------------------------------*- C++ -*----------------------------------*\
  =========                 |
  \\      /  F ield         | OpenFOAM: The Open Source CFD Toolbox
   \\    /   O peration     | Website:  https://openfoam.org
    \\  /    A nd           | Version:  8
     \\/     M anipulation  |
\*---------------------------------------------------------------------------*/
FoamFile
{
    version     2.0;
    format      ascii;
    class       volScalarField;
    location    "30";
    object      p;
}
// * * * * * * * * * * * * * * * * * * * * * * * * * * * * * * * * * * * * * //

dimensions      [0 2 -2 0 0 0 0];

internalField   nonuniform List<scalar> 
127143
(
0.02417
0.02371
0.02381
0.02382
-2.434
0.02382
-2.884
-2.621
-2.612
-1.376
-3.31
-2.956
0.02415
0.02382
0.1933
0.02698
0.02379
0.01587
0.006771
0.02433
-0.3639
0.02284
0.1396
0.04745
0.02283
0.09363
-1.207
-1.276
0.4131
0.006978
0.03252
0.09911
-2.163
-0.4259
0.1981
-2.118
-0.02457
-0.4898
0.04731
0.02681
0.007864
-1.091
-1.013
0.02414
0.0165
-0.4222
0.4115
-0.03548
0.114
0.04251
0.02572
0.08124
-0.7186
-0.5194
-0.002099
0.2009
-0.001969
0.05417
-0.01578
-0.5225
0.4027
-0.08349
0.04174
-0.007985
-0.8857
0.2667
-0.3223
0.04227
0.04223
-1.942e-05
0.04179
-1.226
0.04561
-0.01633
-0.01069
-1.265
-0.0512
-0.08367
0.2016
-0.003562
0.4044
0.02506
-0.4231
0.02918
0.02786
-0.0746
0.05099
-1.499
0.2669
-2.543
0.02767
-0.2634
-2.391
-0.3651
-0.5227
0.03413
-1.071
0.03944
-0.1473
-0.3242
-0.003742
0.1144
-3.044
0.06576
-0.07395
-0.1477
0.0976
1.325e-05
0.4046
0.005275
0.2051
-1.53
-0.4384
-0.5328
-0.0006808
0.1095
-0.02642
-0.01062
-0.04947
0.0238
0.005375
-0.3817
0.3267
0.06253
0.4033
0.07352
-0.1392
-0.05551
-0.8549
0.2426
-0.1799
-0.4322
0.04733
-0.08475
0.02378
-0.1837
-0.06292
-0.3782
0.4776
-0.1155
0.1741
-0.008258
-0.6161
-0.4423
-0.7171
-1.674
-0.9589
-0.007924
-0.4323
-3.17
0.05905
0.1367
-0.496
0.262
0.4626
0.02686
0.05387
0.3086
-0.03391
0.04152
0.03618
0.4267
0.02718
-0.1801
0.2121
-0.89
-0.03781
0.4072
-1.932
0.02133
0.02094
-0.4403
0.1189
0.24
0.0002638
0.02212
-1.748
-0.8528
0.0525
-0.01209
0.2408
0.03083
0.02411
0.02174
0.2427
-0.08305
-0.53
-0.5586
0.04699
-0.03043
-0.7002
-0.7413
-0.06303
-1.675
0.02379
-0.2199
0.0002059
-0.000196
0.02322
0.002425
-0.0243
0.07973
-0.003018
-0.02455
0.02385
0.03816
0.1009
0.1165
0.004487
-0.0003637
-0.1146
0.02325
0.02554
-1.942
-0.194
0.02289
0.0185
0.1347
-0.3594
0.09926
-1.698
-0.005707
0.1361
-0.7259
0.04018
0.01851
0.2104
-0.4901
0.01072
-0.1316
-0.378
0.03212
0.04361
0.02388
-0.3766
0.06602
-0.1801
0.02799
-0.02432
-0.6736
-0.7391
-0.96
0.01164
0.3089
-0.6664
0.02381
0.1396
-1.162
0.006553
7.823e-05
-1.273
0.05773
0.1765
-0.4296
0.1874
0.3936
-0.05376
-2.066
0.2025
-0.1417
-0.2609
0.04688
-0.2634
-0.006717
-0.7822
-0.9223
-0.1154
0.4527
0.4507
-0.6803
0.1311
0.0003646
-0.02217
-0.6728
0.04181
-0.6988
-0.4367
0.099
0.0001815
0.2537
-0.0003472
0.03332
0.06577
0.01073
-0.01276
0.02375
-0.2624
-0.001986
0.08209
-0.01112
-0.4921
0.158
0.0668
0.137
0.02716
0.4152
0.04323
0.02434
0.01187
-0.6771
0.06129
0.2196
0.3317
0.1098
0.04121
0.4917
0.1163
0.02616
-0.1681
0.05654
0.09417
0.02383
0.1864
-0.000412
0.01485
-2.075
-0.5185
0.05466
-0.2866
-0.0006032
0.1397
0.03877
-0.09356
0.1759
-2.081
-0.6036
0.1398
0.02922
0.02876
-1.791
-0.07995
-0.01321
0.1947
0.0001573
-0.0001498
0.26
0.3974
0.1195
-0.07896
-0.2857
-0.1121
0.1343
-0.699
-0.699
0.1796
0.08186
-0.4123
-0.5168
0.06454
-0.9246
0.06188
-0.03026
0.01915
-0.6996
0.04085
-0.3917
-0.4285
-1.579
-0.00553
0.02887
-0.01246
0.04186
-0.0277
0.03907
0.04337
-0.007494
0.002591
0.001072
-0.5831
8.737e-05
0.4021
-0.09236
0.05839
0.0406
-0.03113
-0.243
0.04855
0.02408
-0.12
-0.0004343
-0.1407
0.0748
0.07252
0.2211
-0.02588
0.02769
-0.1444
0.02776
-0.225
-0.322
-0.01807
0.3467
0.01636
0.1986
0.04675
0.03949
0.3439
0.03311
0.04551
0.04715
0.03698
-0.005767
-0.415
0.02434
-0.1552
0.06789
-0.07626
0.04966
0.0006718
0.05271
0.4077
0.09183
0.1729
-0.04126
0.3273
-0.5233
-0.2456
0.1328
-0.5884
0.3601
-0.03678
-0.03017
-0.2126
0.0001036
-0.132
-0.2888
-0.9682
0.1982
-0.9619
0.1232
0.002941
-0.2008
0.01838
-0.1011
-0.9205
-0.007676
0.09459
-0.4619
0.07949
0.02721
0.01199
0.04244
-0.05878
0.3985
0.01718
0.04035
0.01927
0.4968
0.0004904
0.02445
-0.2857
0.067
0.068
-0.614
0.06319
-0.0146
0.06502
-0.9858
-0.02506
-0.5631
0.04742
-0.8218
-0.3084
-0.4532
-0.8224
0.000438
-0.02914
-0.533
-0.3365
-0.001293
-0.1545
-0.3078
0.06226
-0.5151
0.09138
0.0005031
0.407
-0.306
-0.0009643
-0.6821
0.4678
0.4949
-0.7031
0.1864
0.4064
-0.9157
-0.6589
-0.01945
0.04191
0.03104
-1.998
0.05127
-0.7392
-1.652
0.02384
-0.1682
-0.07401
0.05502
-1.629
0.02151
0.4671
-0.03055
0.01204
-0.2202
0.02377
0.02367
0.02415
0.008719
-0.393
-1.18
0.01424
-0.02806
0.3273
-0.09931
0.08894
-0.287
0.06832
-0.1562
-0.5726
0.0005074
0.0254
0.02289
0.367
0.04917
0.02097
-0.01707
0.05908
-0.004337
-0.3075
0.00815
0.04482
-2.605
0.01261
-2.232e-05
-0.5312
0.07756
0.02305
0.4247
-2.111
-0.2381
0.04261
-0.01287
0.3464
-0.001434
0.2198
-0.569
0.04416
0.03899
-0.3369
-0.07404
-0.2238
-0.7808
0.3505
-0.06505
-0.2008
-0.02885
0.0256
-0.2419
0.08666
0.05731
0.006298
-0.0005189
0.0003138
-0.1358
-0.4142
-1.682
0.01538
4.92e-05
0.337
0.3947
-0.07174
0.4071
-0.03278
-0.1186
0.1695
-0.04405
-0.00433
0.00748
-0.1884
0.1748
0.001126
-1.173
0.0528
-0.306
-0.0005334
0.08015
0.01586
-0.07486
0.02568
-0.2779
-8.242e-06
-0.06633
-0.2621
0.4299
0.0004944
0.09782
0.01847
0.01199
0.0681
0.005101
0.04026
-0.6327
0.01088
-0.4017
0.078
0.02392
-0.6484
-0.6094
0.06188
0.07208
0.3162
0.04716
-2.357
0.03141
0.01685
-0.7786
0.04312
0.001198
0.1545
0.01254
0.172
-0.06982
-0.6134
0.003042
-0.001205
0.05316
0.361
-0.3804
0.0009765
-0.00403
0.01074
-1.663
-0.4226
0.04377
0.01114
0.3983
-0.2783
0.4077
-0.6974
-0.1972
-0.9435
0.0009628
-1.008
-0.6829
0.1105
-0.4965
0.02287
6.491e-05
-0.6022
0.478
-0.658
0.01809
-0.06962
-1.64e-05
-0.1327
-0.865
0.07632
-0.8084
0.1072
0.01737
-0.1688
0.1856
-0.6821
0.2745
0.02412
0.01862
-0.02551
-0.01444
-0.2612
-0.679
0.08427
-0.6727
0.07773
-0.817
0.02361
-0.4137
-0.004493
0.09909
0.2813
0.3273
-6.753e-05
-0.004422
0.02377
0.05478
0.1269
-0.7148
0.4798
-0.1703
-0.7132
0.03986
0.288
0.2123
-0.0185
0.002303
-1.358
-0.3012
-0.5822
0.335
0.3733
-0.002749
0.3713
-0.1137
-0.03035
1.377e-05
0.03449
0.08983
0.1751
0.02376
0.09689
-0.78
-0.1207
-2.958e-05
0.05728
0.04468
0.001053
0.00586
-0.3561
-0.6963
-3.143
-0.2433
0.4648
-0.01898
0.1877
0.05691
0.05676
-0.1389
0.1352
0.0262
0.2835
0.02537
0.168
0.3931
0.05408
-0.01121
0.02372
-0.0318
-0.06659
-1.294e-05
0.01808
-0.2154
0.07014
-1.556e-06
-0.6739
0.01158
-0.5668
-0.8074
-2.161e-05
-0.07869
0.02298
-0.3048
-0.4438
0.003058
-0.6994
0.04232
-0.03157
0.1255
0.1586
-0.6785
-0.1664
0.219
0.0969
0.07206
-0.1151
2.223e-05
-0.07641
-0.04432
0.03672
0.09338
-0.5083
-0.02769
-0.07417
4.987e-06
-0.0975
-0.1697
-0.6734
0.0239
-0.6733
0.01266
-0.5056
0.01447
0.177
0.008696
0.02353
-0.2215
-0.6466
0.004159
-0.03759
-0.029
-0.105
0.04209
-0.004217
-0.01439
0.07052
2.104e-05
-0.1315
-1.99
0.09426
0.3152
0.0007575
-0.2779
0.0217
-0.01904
0.0007435
-0.4921
-0.07649
0.009073
-0.0211
-0.0735
0.0225
0.07679
0.3746
-0.004753
-0.1319
-0.02944
0.0351
0.04159
0.4048
0.0003305
-0.01692
0.01208
-1.241
-0.004921
-0.09605
0.4921
0.07187
0.09481
-0.00128
0.02307
0.0667
-0.005727
0.06559
-0.002986
0.4516
0.07267
-0.7216
-0.7158
0.02416
0.02868
-0.324
0.2843
0.04397
0.0238
0.07301
-3.112
-0.5139
0.1344
0.3665
0.06401
-0.004369
-0.4037
0.2785
-1.774
0.02357
0.0899
0.0003559
-0.02998
0.007493
0.1789
-0.9785
-1.335
0.2835
-1.541
-1.639
-0.3903
0.002283
-0.0155
0.03679
-0.04185
0.08817
1.106e-05
-7.418e-06
-0.6028
-0.09631
-0.731
0.04675
-0.472
0.05766
-0.0441
-2.172
0.1721
-0.01741
-0.04939
-0.05247
-0.04403
-0.4328
-0.01729
0.02987
0.1473
0.2345
-0.4105
-0.01959
0.01729
-0.7389
0.1756
-0.00564
-0.3756
-0.2266
-0.09393
-0.001224
0.002562
-0.077
0.02271
0.3079
-0.01783
-0.1874
0.4028
0.1638
0.01984
-0.9371
-1.2e-05
0.4823
-0.9164
2.318e-05
0.3784
0.02395
-0.2213
-1.38
0.04391
0.1019
0.02145
0.04197
0.05314
-0.04232
0.005412
0.1359
0.4281
-0.06646
-0.4279
-1.045
0.3779
0.06061
-0.395
0.3779
-0.1231
-1.051
-0.01182
-0.04081
0.02382
-0.4948
-0.2612
-0.1836
0.01075
0.03304
0.0003144
0.1946
-0.002296
0.07653
-0.009209
-0.008308
-0.6496
-1.118
-0.8867
0.08073
-0.684
0.03832
-0.2041
0.07002
-0.02936
-1.658
-0.0339
0.02379
0.02314
-0.1799
-0.01108
-0.007955
-0.07974
-0.007583
0.1117
0.0006788
0.4274
-0.2792
0.05114
-0.02417
-0.6075
-0.1461
-1.456
0.0009303
0.1305
0.05119
0.3428
0.04001
0.01503
0.3763
-0.3722
-0.6015
0.04614
0.0444
-0.01246
0.4221
0.06239
-0.0337
0.3929
-0.009749
-0.1078
0.02169
-0.04409
-0.6588
0.1836
-0.01322
-0.3507
0.1395
-0.0003174
-0.004988
-0.7483
-0.3775
0.02357
0.02398
0.08803
0.3361
-0.07442
0.1231
0.08377
0.03077
-0.08567
0.03986
-0.07801
0.153
0.02249
-0.05615
-0.0008289
0.07203
0.009189
0.009074
-0.7047
-0.0002801
0.01776
0.0802
0.1331
-0.8565
0.009882
0.06488
-0.009697
-2.067
0.1209
-0.03035
0.06448
0.1341
0.08649
-0.1619
0.05944
0.001849
0.03521
-0.504
0.1277
-0.0248
-0.09783
0.03308
-0.09217
-0.1387
-0.649
0.2285
-1.247
0.05425
0.08072
-0.4192
-0.0265
-0.003703
-0.5392
0.0229
0.1108
-2.149e-06
0.4988
-0.238
0.04885
0.2263
-0.7099
0.07532
-0.4771
-0.2371
0.04893
0.01392
0.2209
0.02381
-0.0006914
0.04328
-0.571
0.02949
-0.4987
-0.844
-0.0004039
0.165
0.02155
0.05346
-0.4449
-0.422
0.0296
0.1068
-5.45e-05
-0.4113
-0.2121
-0.01861
-0.4401
-0.1554
-0.2681
-0.3221
0.1165
-0.04655
0.02239
0.0223
0.1531
0.0996
-0.1256
0.03655
-2.038e-06
0.05382
-0.01162
-0.1636
0.4564
-0.5906
0.2254
0.0237
-0.6535
0.001298
0.01913
-0.1392
-0.2214
0.04552
-2.056
-0.2067
0.0006621
0.03996
0.08198
0.1253
0.03265
-0.004677
0.03731
0.155
0.09317
0.4946
0.02945
-0.01391
0.1098
-0.08547
-0.7239
0.06916
0.05383
-0.2144
-0.0343
0.06017
0.1552
0.07726
0.1092
3.381e-05
-0.009481
-0.5603
0.03342
-0.05124
-0.003161
-0.4885
-0.01216
0.006452
-1.767
0.07868
-0.6647
0.0238
0.2405
-0.01484
0.02402
-0.05193
-0.03003
-0.1029
0.07075
-0.856
0.08668
0.04516
0.3957
-0.6536
0.05271
-0.01366
-0.6854
-0.1792
0.189
0.04097
-0.004584
0.02338
-0.01124
0.09769
0.009908
-1.104
-0.6763
0.103
-0.03501
-0.2179
-1.354
-0.2105
-0.02786
-0.08825
-0.009992
-0.08172
-0.72
-0.6589
-0.03236
0.175
0.04232
0.00561
0.127
0.02136
-0.4291
0.0897
-0.894
-0.07064
-0.009265
-0.03622
-0.0007822
-0.05404
-1.827
-0.5406
0.0183
-0.3192
0.02112
-1.261
0.1499
-0.03423
0.1338
0.2006
0.0004476
6.375e-05
0.01749
0.02989
-0.02144
-0.2372
-5.637e-06
-7.318e-05
-1.59
-0.2453
-0.196
-1.103
0.06899
0.05559
0.2169
0.0666
-0.0001083
-0.1068
0.0001293
0.03378
-0.1481
0.1983
0.08648
-0.5708
-0.1555
-0.1107
0.04229
-0.4943
0.4574
-0.1261
-0.3455
-0.00825
-0.1863
0.04927
0.1015
0.3824
-0.3346
0.02327
0.004609
0.04434
-2.708
0.0002963
-2.885
0.1143
-0.05304
0.104
-0.007267
0.2598
0.03326
-0.0131
0.03906
-0.1493
0.04855
0.424
0.139
0.06026
0.01869
0.2124
-0.103
-0.6418
0.02575
0.19
0.02379
-3.131
-1.334
-0.1627
-0.01119
-1.125
-0.06858
0.04096
-2.404
-0.04487
-0.1331
-0.006454
0.09038
-0.07578
0.006394
-0.004235
-0.0003811
-2.881
0.002634
0.02685
-0.0426
-0.7023
-1.646
-0.4231
0.0425
0.2668
-1.666
-0.2554
-0.1476
-0.6589
-0.4233
-0.02251
-0.006236
0.01522
-0.02844
-0.1469
0.007452
0.01911
-0.007975
-1.256
-0.01116
-0.0005969
0.0201
0.02399
-0.2291
-0.2071
0.1345
-8.855e-05
0.3959
-0.3104
-0.004676
0.02401
-0.1535
0.02381
0.0826
0.05737
0.06647
0.1169
0.02713
-0.1468
0.03218
0.02251
-0.04619
-0.8123
-0.6923
-0.7873
-0.02072
0.009006
-1.648
-0.3039
0.3501
0.0009073
0.08219
0.3413
0.07749
0.005505
0.0001273
0.0001315
-0.02389
-0.1454
0.01443
-0.09498
0.07106
0.1549
0.4527
-0.0006563
0.07988
0.2847
-1.137
0.03358
-0.2838
0.04826
-0.8356
-0.2723
0.1342
0.0739
-0.1098
-0.03682
0.02304
0.02023
0.08934
-0.692
0.05261
0.1919
0.002297
0.06408
0.0183
-0.8811
-0.001163
-0.008483
-0.008872
0.2971
0.04742
0.4842
0.1109
-0.2227
-0.1394
-0.1389
0.00012
-2.823
-0.3469
0.02423
-0.3623
-0.01307
-0.0009218
-0.01139
-0.9478
0.02391
-0.1856
-0.6152
-0.3767
0.01657
0.08742
-0.8992
0.06777
0.4833
0.1082
0.4911
-0.2739
0.04217
-2.901e-05
-3.162e-05
0.0538
-1.264
-2.484
-1.835
0.04852
0.03902
-1.637
9.637e-06
-0.02611
-0.08764
-0.02825
-0.009556
-0.01897
-0.001387
0.3038
-0.01193
-2.292
0.1951
0.4508
-1.192
0.04
-3.784e-05
0.2377
-0.2816
-1.505
-0.1989
-0.4101
0.01158
-0.5436
-0.07948
-0.1887
0.02386
0.02218
-0.1038
-2.896
-1.455
0.07321
-0.001105
-0.00253
-4.367e-05
8.912e-05
0.1629
0.02117
-0.001151
0.03371
-0.004988
-0.6342
-0.771
-0.2875
-1.575
0.002041
-0.05208
-0.3926
0.03203
-0.4268
0.07881
0.2119
-0.01369
-0.002982
-0.731
0.2373
0.2343
0.08386
-0.06837
-0.03669
0.1083
0.1837
-1.251e-05
0.2748
-0.1175
0.04202
-0.07114
0.3746
0.02915
-0.7087
0.001907
-0.8238
0.3345
0.02673
-0.6599
0.1782
-0.3081
-0.004368
-0.6836
0.0472
-0.06313
0.08308
0.07852
-0.1244
0.05963
0.3388
-2.686
-0.7041
-1.87
0.02382
-2.468e-05
-0.3744
-0.01579
-0.9681
0.1444
-0.8595
0.0101
0.02422
-0.009499
0.06512
-0.09769
-0.005162
-0.09328
0.05202
0.402
-0.3334
-0.001465
0.05177
-0.008283
0.2281
0.455
0.1197
9.64e-05
0.09579
-0.01672
-0.7163
0.01939
0.4988
0.403
0.009047
0.06389
-0.5817
-0.8525
0.4427
-0.05434
-0.4945
0.3764
0.09382
0.07828
-0.2568
0.2943
0.06299
0.01859
-0.0009199
0.0213
-0.07401
-0.767
-0.05093
0.1209
-0.03683
0.05581
0.08041
-0.001178
0.0585
0.1158
0.07213
0.06221
0.0713
-0.6364
-0.0004266
-0.222
0.09022
-0.2494
0.4488
0.1325
0.1117
0.009491
0.07396
0.4081
0.3952
-1.462
0.07834
0.04665
0.06993
-0.01263
-0.02775
0.02014
1.255e-05
-0.804
0.1942
0.1848
0.4538
0.09142
0.01627
0.0006068
-0.4555
-0.6795
-0.0007229
0.2596
-1.77
-0.2662
0.0002451
-0.04039
0.03916
-0.1789
-1.295
-0.05135
0.05185
-0.2681
3.253e-05
-2.838e-05
0.01942
-0.04923
-0.6975
0.4613
0.005898
0.03829
-0.5935
0.07718
-0.9313
0.02366
-3.92
0.02492
0.01917
-0.5006
0.05181
-0.0127
0.05467
0.01431
-0.2677
0.01668
0.02316
0.4136
-0.08076
-0.177
0.0702
0.02026
-2.858
0.05543
-0.1995
-0.7578
-0.2626
0.1398
0.02497
-0.05324
-0.0006486
0.2458
0.08457
-0.6041
-0.7869
-0.2018
0.1214
0.1561
-0.06538
-0.4329
0.02071
-0.4245
0.09272
0.02751
5.075e-06
-1.737
0.2442
0.06756
2.113e-05
-0.0346
-0.03159
0.0478
-0.6473
0.02735
0.04738
-0.0007492
0.4573
0.1039
0.09837
0.01259
-0.02309
0.05044
-2.526
0.04466
0.02843
-3.653
-0.01379
0.07364
-2.72e-05
-1.694
0.3129
-0.001304
-0.2063
0.02001
0.05281
0.0006074
0.04886
-7.325e-05
0.1489
0.04186
-2.343
-0.02589
-0.4812
0.203
0.3353
-0.00159
-0.0007821
-0.8761
0.1109
0.02085
0.062
0.04915
0.05985
0.006389
0.1422
0.2265
-0.528
-1.483
-0.1404
0.02153
0.07905
0.1096
0.03966
-0.09574
0.01762
-0.03449
0.07402
0.06771
0.0238
0.06332
0.05129
2.087e-06
-0.05444
0.02499
-0.01943
-0.01468
0.008166
-0.1627
0.09188
0.01923
0.113
0.03596
0.3609
0.03985
0.04593
-0.0002664
-0.003597
0.06096
-0.3319
0.003323
-0.7155
-0.3017
0.08721
-0.702
-0.0062
0.02395
0.005854
0.07637
-0.01099
0.08984
-0.4431
0.1538
0.04704
-0.539
-0.2703
0.04772
0.02168
-0.5136
-0.06707
-0.07903
-0.1185
-0.5471
0.0003594
-0.661
-0.06653
-0.02236
0.009678
-0.0326
0.08661
0.1189
6.419e-06
-0.3482
-0.3001
-0.7723
-1.431e-05
-0.01246
0.02621
0.007081
0.01075
-0.4857
-0.1222
-0.1949
0.07593
-0.05709
-0.03287
-0.001767
-0.006152
-0.01269
0.07987
-0.1739
0.005303
0.07996
0.03997
0.01939
-0.01176
-0.0603
0.01196
0.05407
-1.218
0.01138
-0.6643
0.009369
0.2011
0.0431
-0.1403
-1.145
-0.6074
0.05225
0.05502
0.03322
-0.09782
-2.572
0.04124
-0.1344
0.1219
0.01258
-0.001148
0.3289
0.05735
-1.441
0.008841
-0.2771
-0.05924
-2.813
-0.1474
0.1358
-1.001e-05
6.444e-06
0.05271
-0.5845
0.01639
0.4643
0.02295
-0.2609
0.06991
0.001329
0.04932
0.1714
0.08824
0.01633
0.04295
-0.01977
0.2439
-3.68e-05
0.07041
0.2504
0.131
0.2665
-0.3645
0.4984
0.01626
-0.7192
0.0421
-0.5686
-0.3906
0.09916
-1.402
-0.01813
2.876e-05
-2.894e-05
-0.08312
-0.00548
0.03891
0.3964
0.4209
-0.7158
0.0007088
-0.01432
0.4153
-0.008171
-0.3027
0.2112
-1.802
0.1065
0.1977
0.1083
0.4994
-2.019
4.212e-05
0.06914
0.09513
0.08293
0.00859
0.3447
-0.3357
-0.647
-0.5241
-0.06322
0.06226
-0.09191
0.3636
0.1506
-0.3544
0.01941
-3.491
0.008436
0.0123
-0.04636
-0.515
0.398
0.1366
0.09506
0.08186
-0.8183
-0.04939
-0.003326
-0.0005775
0.07294
-0.05117
0.0888
-0.19
0.1998
-0.2163
0.3901
0.04396
-0.5061
0.07564
0.0407
-1.338
0.0002071
0.009124
0.04083
-0.8889
-0.1814
-0.1004
0.05376
0.1316
-0.0003284
-0.5154
-2.161
0.08852
0.02372
0.01714
-0.2546
-1.058
1.266e-05
-0.5984
0.08692
0.03566
0.4502
0.05683
0.1779
-0.007657
-0.2165
0.3738
0.06193
-0.4851
-0.00513
0.04325
0.008376
-0.02857
0.0586
0.0008627
-1.989
0.04982
-0.05059
-0.7309
0.01954
0.1414
0.4397
0.4085
0.4525
-0.6677
-0.7796
0.04775
0.3437
-1.795
-0.4682
0.15
0.02168
-0.02497
-0.2255
-0.05441
2.112e-05
-0.2666
0.008573
-0.0005847
-1.664
-0.03705
-0.01235
0.225
-0.3335
-0.5057
0.06129
-0.8436
-0.1216
0.4837
-0.193
0.02011
0.01147
-0.3246
-0.1685
-0.0002315
0.004502
-0.2276
-0.0266
0.02451
1.505e-06
-0.196
0.04778
0.08483
-0.2529
0.0202
-2.475
-0.1036
-0.2077
-0.3308
-0.04159
-0.006968
0.006905
0.1677
-0.2369
0.02089
-0.929
-0.7535
0.03453
-0.1465
-0.02216
-0.6091
-0.2189
-0.2155
0.06061
-0.3721
-0.04592
0.08921
0.3724
0.0744
-0.0499
0.04376
0.01933
-0.1632
-0.03533
0.2729
0.008637
-0.7387
0.07065
0.3915
0.006563
-1.15
-0.5614
-0.01437
0.08918
0.07148
-0.4816
-1.718
-0.4217
-0.5862
-2.565
0.01216
0.02381
-0.1177
-0.2108
0.2353
0.2593
-0.02374
-0.4604
-0.209
0.2246
-2.34
0.2727
-0.6808
-1.38
-0.1118
0.05868
-7.189e-05
7.011e-05
0.04393
-0.6327
0.2535
-1.3
0.04423
0.007531
-0.7709
0.1475
-0.6398
0.02946
-0.02129
-0.7205
-0.5579
0.04351
-2.47
0.2055
-0.002076
0.04271
-0.007704
0.125
0.1272
0.03991
-0.0001956
0.0997
-0.1063
-0.1585
0.01163
-7.294e-05
-3.644e-05
-2.937e-05
-3.158e-05
0.04783
0.02358
0.1359
0.3945
0.07706
0.007395
-0.3913
-1.068
2.617e-05
-0.3953
-0.0239
0.02317
-0.8107
0.02168
0.02342
0.06499
0.07357
-0.6001
0.04316
-0.02477
0.06586
0.4997
0.1919
0.05459
0.3966
0.4525
-0.01428
0.003482
-0.2051
0.1556
0.05155
0.1305
0.3881
-0.0107
-0.0201
-0.7827
-0.00122
-0.7177
-0.06485
-0.332
0.01207
0.02379
-0.2585
-0.1173
0.0009685
0.4141
0.05973
-0.0495
-0.04093
0.3931
0.01354
-0.02807
-0.3974
0.02308
-0.1963
0.03477
-0.3106
-0.822
0.09545
0.4483
0.07364
-0.2403
-0.01187
0.02542
-0.1003
0.06762
0.03428
-0.8399
0.01294
0.3651
-0.01899
0.01094
-0.3143
7.799e-06
0.4807
-0.1218
0.03838
-0.06666
0.1292
0.006943
0.05902
0.01462
0.09652
-0.002204
-0.0002546
0.1585
-3.283
-0.885
0.006669
-1.142
-0.8245
0.03237
6.419e-05
-0.1978
-0.3828
0.1018
-0.07005
-0.1642
-1.774
-3.084
-0.1495
0.06204
0.02352
-0.01173
0.1168
-0.8275
0.04227
-0.01088
0.06557
-2.602
0.04094
0.1698
0.06276
-0.6844
0.03701
-0.03895
-0.09049
-0.009068
-0.2917
-1.266
-0.07457
-0.3541
0.1709
-0.2311
0.02383
0.3758
0.006771
0.01734
0.03916
-0.4471
-0.07678
0.0212
-0.7225
0.07496
-0.07457
-0.6036
0.006651
-0.06568
-0.008498
-0.7387
-0.7217
0.1047
-0.09267
0.4329
0.04257
0.1745
-0.04905
-0.9676
0.03248
0.0454
0.07241
0.4207
0.072
0.0715
0.4055
0.003023
-3.427
-0.001082
-0.08229
-0.5827
0.02563
0.02957
-2.212
-0.01491
0.4916
-6.323e-05
0.3987
-0.9318
1.268e-05
-0.08085
0.007555
0.4997
0.05129
-0.001554
-0.2168
0.1664
-2.256
-0.3768
0.2721
0.0708
-1.148
0.002256
-0.07569
0.06643
0.02023
0.0441
0.01014
0.03838
0.06548
0.08769
0.1772
0.1443
-0.00516
0.05786
0.2322
0.09982
-0.04039
0.02064
-0.207
0.09216
-0.6185
-0.7247
-0.04995
1.126e-05
0.03319
0.06319
0.1045
-1.366
-0.02438
-0.052
-2.57e-06
-0.1167
0.1131
2.087e-07
-0.1504
0.1946
0.1046
-0.3513
0.01004
0.02522
-0.07169
0.05221
0.1509
0.04627
-0.03459
-0.7355
-0.1517
-0.1542
-0.4223
-0.03462
0.2446
0.09717
-0.005354
0.03419
0.1706
0.3318
0.02382
0.04228
-0.5758
1.308e-06
0.08925
-0.09199
-0.01203
0.09242
-1.286
-0.2047
-1.438
0.04841
-0.007787
0.3817
0.01063
0.02421
-0.000137
-0.3088
0.1347
-0.1023
0.2692
0.001079
0.483
-0.192
-0.06365
-0.1183
-0.2534
-0.586
0.3017
-0.3024
-0.07555
-0.8017
0.01853
-1.66
-0.6063
4.707e-05
-0.003431
0.03627
-0.003017
-0.04197
0.04329
-0.005347
-0.9308
-0.3432
0.1052
0.1335
0.05418
-2.899e-05
-0.1777
-0.2029
0.1537
0.02382
0.386
0.08881
-0.007296
0.3341
-0.01433
0.05202
-0.1423
-0.321
0.0742
-0.3104
0.06113
-0.1507
-2.094
0.2572
0.0004433
-0.1635
-0.09875
0.001464
0.1084
0.00873
0.03191
-0.3025
-1.885
-0.05706
-0.002225
-0.3054
0.04809
-0.9226
0.02396
-0.8641
0.01207
-0.04523
-0.3296
0.09221
0.1639
-0.6901
0.04399
0.0734
-0.9741
0.09524
0.491
-0.9653
0.0009944
2.725e-05
-0.04372
-0.07109
0.2702
0.02303
-0.2048
0.003094
0.0675
0.4268
0.0636
-0.008609
0.04357
-0.3972
0.05207
-0.0003815
0.4865
-0.6826
0.05294
1.067e-05
0.0529
-0.1569
0.09
0.05201
0.1698
0.2442
-0.1383
-0.577
-0.005372
0.03383
-0.008379
-0.7885
-0.02948
-0.7158
0.05462
-0.07854
0.1583
-1.987
-0.01156
-0.2932
0.1052
-1.514
0.2978
0.004778
-1.128
-0.6815
-0.2018
-0.3623
0.07416
-1.678
-0.1028
0.04102
0.02119
0.005288
0.01923
-0.585
4.697e-05
0.4577
0.1048
0.0836
0.0191
-0.9714
0.3354
0.1614
-0.01343
0.09466
0.05601
-1.202e-05
-2.719
-0.2717
0.007849
-0.05363
0.0451
0.03958
0.002069
-0.04755
0.006749
0.06332
0.1852
-0.741
-2.754
-0.6842
-1.695
0.06396
0.01393
-0.5497
-0.01596
-0.2276
-0.596
-0.2643
-0.00552
0.05293
-0.09224
0.005323
-0.04483
-1.742
0.349
-0.03097
-0.249
0.01142
-0.1769
0.4265
-0.06382
0.1872
0.1069
0.1724
0.02866
-0.008903
-0.9347
0.03654
0.00823
-0.5789
-0.1517
0.3694
0.07047
-0.7094
0.09677
-0.1317
0.3117
-0.02298
0.001322
-0.0263
0.0193
-0.0002622
-0.5576
0.07254
0.4063
0.02465
-0.1961
0.04126
0.06608
-0.1332
-0.8066
0.00818
-0.1439
-1.153
-3.018
0.05683
-0.2199
-1.654
-0.7037
-0.5982
0.1569
-0.01895
-0.2571
-0.0008571
0.002846
-0.136
-0.3295
-0.006204
0.3285
0.04436
0.2771
-0.04552
-0.8098
-0.2911
-1.49e-05
0.3281
0.03443
0.1607
1.875e-05
-0.5783
0.03041
-0.03747
-0.2877
-0.7011
0.0003278
0.007926
0.0008627
-0.3574
0.004673
0.2193
-0.9634
0.05553
0.01742
0.05349
-0.007954
0.01536
-0.3464
-0.03309
-0.09094
0.02138
-0.3852
3.975e-05
0.01385
0.05191
0.01052
0.004269
-2.228
-0.008456
0.01525
-0.2114
0.0382
0.0003119
0.1449
0.05624
0.2361
-0.1219
-0.2393
0.483
0.0002556
0.2443
-1.455e-05
-0.4846
0.2242
0.01812
0.009833
-0.1564
0.02382
0.001816
0.01549
0.1443
0.0008897
-0.6707
0.1059
-0.01638
-0.7398
-1.566
-0.1986
0.0006143
0.07889
-0.1876
-0.01932
0.4368
-0.1036
-0.01416
-2.236
0.1749
0.01923
0.06878
-0.007919
-0.0181
0.03134
-0.6443
-0.1963
0.05971
0.1037
0.02466
0.1587
0.006507
0.174
0.03463
0.1436
-0.6981
-0.02422
0.002467
0.1308
-0.6532
0.02056
-0.7523
0.2877
-0.06371
-0.04376
-0.2349
0.3169
0.04149
-0.905
0.0563
0.01029
-0.4223
0.2415
-2.111e-05
-0.3594
0.1521
-0.6968
-0.7846
-0.7819
-0.7236
-0.7363
-0.001184
-1.527
-0.3711
0.000249
-1.864
-0.01019
-0.05417
-0.4962
0.001595
-0.8759
0.4429
-0.002393
0.2086
-0.07589
0.03161
0.04088
0.3285
0.0885
0.0544
-0.0105
0.03739
-0.02895
0.05503
0.3258
-0.1824
0.05437
0.03976
0.06849
-0.6615
-0.2527
0.02323
0.4469
0.01692
-0.09217
0.3666
0.05511
-0.3662
0.0009852
-0.004526
0.04798
0.0435
0.02064
-0.1641
-0.7655
0.0002799
0.05662
-0.1122
-0.2607
-0.2284
0.09702
0.1268
-0.1332
0.4063
0.4097
-0.07799
0.1754
-0.03769
0.05357
-0.7803
0.1354
-0.005349
-0.1295
0.0003185
-0.02942
0.1341
0.0463
0.003742
-0.263
0.04998
-0.3435
-0.6235
-0.002697
-0.004071
0.06983
0.05073
0.03753
-1.218
-0.06296
0.1119
0.4499
-0.7056
0.2523
-0.6712
0.03858
0.1146
-0.7037
-0.204
0.122
0.1595
0.04311
0.05091
-0.1844
0.01904
0.05101
0.008939
0.01341
0.05387
-0.009329
-0.1091
0.1169
0.002129
0.0236
0.1278
0.01084
-0.01543
-0.6769
-0.4615
4.614e-06
-0.5738
-0.7497
0.01936
-0.0195
-0.03257
-0.002103
-0.8357
0.0006991
0.04643
-0.5774
0.4758
0.1363
0.03222
0.02205
0.003065
-0.01059
0.1398
0.2129
0.1086
0.06316
-0.9843
0.07974
-0.3471
-0.007081
0.02124
-2.049
0.03909
-0.4629
-0.05818
0.00991
0.2266
0.1864
-0.7916
0.08734
-0.2631
0.002989
0.4664
-0.8169
-0.09391
-0.07935
-0.7469
-0.1177
-0.01015
-0.008066
0.1117
-2.913
0.07842
-0.02488
-0.1025
0.01537
0.06159
0.1222
-7.76e-06
0.3838
-0.6795
0.04766
-1.401
-0.2072
0.006148
0.05091
0.04214
0.01141
-0.003474
0.08183
0.2429
-0.6916
0.1136
0.09222
0.06229
0.03938
-0.07767
-3.875e-05
0.02355
0.1217
0.04077
-0.01366
0.01927
0.06032
0.07711
-0.003773
-2.02
-0.5177
0.4777
-0.1242
-1.368
-0.5734
0.05289
-0.8255
0.04594
-0.02955
-0.332
0.2825
0.008377
-0.3353
-2.147
0.1677
-0.5454
-0.7256
-0.2494
-0.002438
0.057
0.1234
-0.1708
-0.4019
-0.07543
0.01673
0.01317
-0.1007
0.3077
0.04952
-0.1356
-0.1744
-0.5536
-1.168
0.05072
0.04788
-0.0004963
-0.5361
-0.37
-0.4116
-0.2132
0.04996
-0.545
0.03995
0.1134
-0.8748
0.1423
-0.3706
-0.3258
0.04324
0.08051
-0.1817
0.08608
0.01722
-0.02457
0.0431
0.08147
-0.02858
0.04946
0.09372
0.02287
0.0561
-0.4172
-0.008925
-0.1482
-0.1731
-2.104
0.01231
-0.03175
-0.01352
-0.03538
0.05448
0.02162
-0.006858
0.06166
-0.006355
0.1855
-0.002702
0.1379
-0.1762
0.04268
-0.2222
0.05545
-0.3271
0.05313
-0.05406
-0.003288
-0.6376
0.001848
-0.001293
-0.2461
-0.005534
0.005048
-0.4749
-0.04779
0.1266
0.1607
0.06665
-0.001738
0.008435
0.05003
0.09728
0.2134
0.03954
-0.001386
0.203
-0.01474
-1.671
-0.902
0.1634
0.3969
0.06028
0.04534
0.05412
-0.576
-0.5984
0.2392
0.3138
0.09631
-0.08604
0.02195
0.01323
0.1926
0.02381
-2.082
-0.00901
-0.05863
-0.004485
-0.3347
-0.3732
0.2347
-0.7122
0.03687
0.2923
0.08173
0.04316
0.4741
-0.1322
0.2256
0.04668
-0.09452
-0.4593
0.07389
-0.6298
0.002057
0.1988
-0.0006407
-0.2354
0.05492
0.0501
0.04188
0.1518
0.244
0.02928
0.1369
-0.01872
-2.024
-0.04173
-8.788e-06
3.89e-06
0.000659
0.04963
-2.213
-0.2754
-2.613
-0.6621
-3.667e-05
0.1339
0.09202
0.0616
0.06934
-1.82
-0.8195
-0.003139
-2.094
-0.02992
-0.1941
0.4811
-0.0374
-0.4587
-0.1115
0.0515
-0.0239
0.1442
-0.02053
0.04362
-0.5613
-0.7406
-0.4785
-0.2391
-0.2025
-0.0009661
0.007272
-1.447
-0.3264
0.188
0.006319
-0.004848
0.08516
0.06526
-0.09429
-0.06959
0.3519
-0.9646
-0.1112
0.008454
0.07331
-0.2496
-0.2028
0.02815
0.07625
0.001696
0.04614
-0.3768
-0.03371
0.02062
-0.6982
-0.6777
0.1432
-1.442
0.3802
0.04071
-0.008335
0.1629
-0.1429
-3.685e-06
0.0179
0.00663
-1.564
-0.03147
0.02046
0.002999
-0.9241
0.01884
0.03944
0.08169
0.04999
-0.1487
0.001275
0.1239
0.0385
-0.412
-0.1854
-0.04102
-0.009386
-0.5226
0.02399
0.001759
-0.02968
0.02313
0.4588
-0.003939
0.01376
0.1927
-0.009737
0.1143
-0.1274
-1.195
0.07026
-0.007291
0.04384
-0.7986
0.0374
0.0001157
0.07683
0.005465
-7.19e-06
0.08226
0.06878
-0.6705
0.008491
0.005749
-0.006419
-0.01402
-0.0003442
-0.01081
-0.04166
-1.814
0.04857
-0.3086
0.05207
0.04521
-6.784e-05
-0.0002912
-0.1323
0.1468
0.07211
0.01038
0.04668
0.01628
0.07207
-0.01016
-0.4192
-0.02283
-0.2522
0.0283
0.03555
0.0195
-0.3701
-0.2313
-0.2988
0.004646
-0.007883
-0.7729
-0.1489
0.1639
0.4971
0.06307
0.04807
-0.1413
0.08122
0.07214
0.2387
-0.2562
-1.792
-0.6003
0.06554
0.05172
0.0001166
-0.007009
-0.1719
-0.6605
-1.172
0.01007
-0.2364
3.048e-05
0.2082
-1.02
-0.4843
-0.02951
0.05384
-0.123
-0.4868
-0.4215
0.4548
0.3501
0.314
0.4202
0.03679
-3.314e-06
0.01964
-0.3072
-0.07582
0.08108
-0.1247
-0.04013
-0.01456
-0.2096
0.1571
-1.088
0.06008
-0.06856
-1.123
0.00112
0.2388
-0.01506
0.2857
0.03989
0.0001878
-0.5902
-0.379
0.1063
-0.02603
-0.00366
0.04714
0.1021
0.07246
0.08541
-0.008327
0.02345
-1.236
-0.1227
0.2505
-2.118
0.0002795
-0.01112
-0.2791
0.02867
-0.002871
-1.705
4.547e-05
-4.12e-05
0.2417
-0.0003192
-0.1183
0.0238
0.03961
-0.1804
0.09661
0.003076
0.00867
-0.4352
0.05663
0.4155
0.05
-0.2736
0.001512
0.01057
-0.8815
0.03775
-0.1116
0.001821
0.009973
-1.634
-0.008457
0.004219
0.02121
0.09294
0.1019
-0.08136
-0.6628
-0.005615
-0.001185
0.01099
0.01014
-0.02427
-0.02345
-0.02176
0.1049
-0.05347
-0.1314
0.006694
0.1031
0.02321
0.05205
-0.3903
-0.006741
0.1169
-0.2566
-1.029
-0.004901
0.01741
-0.004285
-0.3373
0.0121
0.1099
-0.03892
0.07619
0.1029
0.02351
0.007098
-3.332
0.1619
0.2686
0.008549
-1.571
0.005531
-0.03881
0.1187
0.02289
0.02024
0.02369
-0.1489
-2.872e-05
-2.911
-2.021e-05
0.01885
-2.592
-0.06755
-0.3991
-0.0002588
-1.898
0.01238
0.05334
-0.07227
-0.7082
0.1851
0.03414
0.3829
0.03763
0.01702
-0.4459
-0.6782
-0.02887
0.4899
-0.4854
-2.519
0.04829
0.002
-0.09227
-0.05377
0.0143
0.007946
-0.8251
-0.06108
0.4973
-1.354
0.4835
0.01064
0.04274
0.006148
0.03035
0.01991
-1.122
0.1257
-0.2424
-2.722e-05
-0.1174
0.1481
-0.6797
0.03997
-2.027
-0.05046
-0.3716
0.468
0.08841
0.06788
0.01186
0.007726
0.04198
-6.709e-05
-0.02593
0.295
-0.007844
0.04839
-1.002
0.01474
0.05863
-0.1212
0.04823
0.1378
-0.7048
0.4114
-1.268
-0.7731
0.02249
-0.1538
-0.1038
-0.6755
-0.04877
-0.3041
0.02339
0.03567
0.0009368
-0.6296
-0.0003852
0.2119
0.2649
0.07817
0.02383
-2.613
-0.1098
0.01191
-3.895e-06
0.06634
-0.1685
-1.446
-0.08381
-0.008291
-0.09457
-0.5853
0.07398
1.083e-05
-0.6894
0.07087
-0.1482
-0.5167
-1.261
0.4241
0.4989
-0.06705
-0.5474
-0.4937
0.01653
0.0005639
0.07926
-0.9822
0.3817
-0.0295
-0.004829
-0.02313
-0.07421
-0.4283
-0.8895
0.007299
0.4078
-1.862
-0.2112
0.3679
0.4003
0.006169
-0.7875
-0.001764
-6.677e-05
-0.9892
-0.02438
0.06689
0.01364
-1.594
-0.02004
0.2363
0.1385
0.003224
0.04596
0.04376
-0.03368
-0.9679
-0.338
-0.3938
0.06033
0.006298
-0.7372
0.03882
-0.1344
0.4811
0.03619
0.04796
0.06269
-0.03185
-0.006487
-0.0004981
-0.06456
-0.08256
-0.1136
-0.1548
-0.02032
0.03242
0.01513
-0.7162
-0.3904
0.2038
-2.814
0.01777
-2.571e-05
0.09587
0.07633
0.108
0.01135
-0.3726
0.1445
-1.179
-1.181
0.01043
-0.6776
0.000768
-0.00977
0.0238
0.1487
-0.1582
-0.6582
-2.092
0.156
0.1161
0.04209
-0.02218
0.06
0.0009188
-1.846
0.01218
-0.008116
0.03022
0.0009814
-0.202
0.03212
-0.2801
0.02359
0.2581
-0.1516
-0.08943
0.1153
0.07319
-0.01662
0.0001868
-0.4315
0.0293
0.06808
-0.3909
0.02957
-0.711
0.03792
-0.01345
0.03552
-0.1888
0.3276
0.07599
-2.333
0.06643
0.4128
0.02763
-0.08792
-0.006384
-0.1235
-0.008336
0.06897
0.1449
0.03775
0.1003
0.07857
0.1895
-0.2351
-0.01193
-5.645e-05
-0.2954
8.472e-05
-0.04634
0.1329
-0.6708
-0.08862
-0.004416
-0.7591
0.0508
-1.557
0.006672
-0.0139
0.06113
0.01101
0.0117
-0.8308
0.1519
-0.6642
-0.2334
0.3122
0.02099
-0.9629
-0.02239
0.03896
-0.01036
0.08985
0.1245
0.005043
-0.01158
-0.1991
0.03726
0.425
0.02489
-0.7142
-0.3808
0.0281
-0.01406
-0.2217
0.3908
-0.08096
-1.979
0.04671
-2.303
0.07181
0.05647
0.2082
0.4143
0.01016
0.03944