/*--------------------------------*- C++ -*----------------------------------*\
| =========                 |                                                 |
| \\      /  F ield         | OpenFOAM: The Open Source CFD Toolbox           |
|  \\    /   O peration     | Version:  v2012                                 |
|   \\  /    A nd           | Website:  www.openfoam.com                      |
|    \\/     M anipulation  |                                                 |
\*---------------------------------------------------------------------------*/
FoamFile
{
    version     2.0;
    format      ascii;
    class       volScalarField;
    location    "5";
    object      epsilon;
}
// * * * * * * * * * * * * * * * * * * * * * * * * * * * * * * * * * * * * * //

dimensions      [0 2 -3 0 0 0 0];


internalField   nonuniform List<scalar> 
118995
(
94.52
2384
730.9
770.2
1229
388
753.9
285
730.6
1029
1567
294.5
1085
1035
672.2
638.8
102.4
715.3
328
193.3
948.9
42.91
41.72
236.2
190
27.19
109.6
2.239
3.696
42.63
0.9122
35.11
0.01546
2.459
37.68
6.463
5.465
0.5826
2.902
0.6323
3.204
1.059
0.01821
6.355
1.035
6.848
5.821
2.624
1.048
1.846
6.483
6.769
0.8062
2.131
0.3137
5.8
0.05931
1.923
2.517
86.2
6.909
0.3548
0.768
11.81
0.02146
7.325
72.38
0.525
5.098
2.58
6.592
1.18
0.1574
105
50.95
2.324
51.95
2.911
12.78
5.824
1.08
0.6196
0.155
13.58
0.05503
0.02709
4.049
0.2529
7.405
1.021
0.01826
2.862
0.02554
3.629
0.03618
6.181
13.54
0.02055
2.779
0.8692
0.01702
1.234
0.6448
7.638
25.19
0.1948
9.816
0.3679
0.2191
0.01798
0.05514
7.048
1.277
0.8562
1.423
10.75
4.304
3.24
0.2467
0.004495
0.03635
74.13
0.5167
1.061
0.04849
0.4505
0.01552
0.002233
0.002213
6.683
0.02543
0.002016
1.454
1.549
0.002077
0.002065
0.8109
2.094
0.199
0.005838
5.116
0.01509
1.053
5.615
0.1246
92.21
0.8247
1.824
0.9897
0.01437
0.5143
460.7
136.9
5.591
0.7499
3.424
0.7183
2.066
0.08606
7.542
1.22
723.6
1.065
1.755
0.07002
0.03046
1.807
7.202
10.76
1.435
2.664
3.676
8.388
0.3497
0.01737
0.07936
0.3161
0.3393
2.673
5.717
31
2.968
0.5747
20.55
4.415
0.7043
63.42
0.02431
0.7809
0.01813
1.229
0.02052
0.7858
5.253
1.25
44.74
1.603
0.01296
6.385
112.7
0.6912
4.228
0.2508
1.706
1.059
0.5707
2.748
0.03478
14.07
1.573
13.6
0.6853
0.01961
0.4009
2.867
372.4
0.01373
0.6366
0.3823
6.544
20.93
1.183
0.02518
2.608
1.017
5.639
4.466
2.811
0.02819
4.392
1.33
0.01535
0.6343
1.191
0.1796
12.08
0.4647
2.906
2.723
9.609
4.338
4.811
4.443
1.394
2.042
0.1262
0.02609
0.1222
1.201
0.1116
1.053
0.4742
0.3977
0.983
0.8678
14.37
0.02537
0.01621
10.42
0.013
2.215
0.005845
1.026
1.512
0.9411
15.84
2.288
2.77
1.202
4.229
7.328
12.35
0.1916
0.6535
6.202
3.813
3.901
2.408
2.61
14.3
1.14
145.5
8.071
1.365
0.7559
87.74
40.33
0.00822
0.6102
1.16
0.01707
0.01992
2.507
1.391
0.9512
1.044
0.8329
0.8848
3.811
3.055
1.276
1.875
38.53
4.337
1.377
172.8
0.01634
0.18
0.5353
148.5
3.062
1.106
0.01903
0.01876
1.909
5.011
0.7748
0.01937
0.01919
8.385
0.3263
0.01737
0.3393
0.002021
14.99
2.742
0.05234
3.364
1.078
1.017
0.006806
1.492
0.06733
1.083
0.02835
0.6184
96.65
1.17
0.439
0.6825
1.67
0.6853
2.846
63.13
3.543
3.883
0.2056
0.002373
0.006021
16.49
10.36
10.94
1.014
1.533
1.303
1.121
0.4013
0.8528
0.6978
0.03471
0.07078
0.01276
0.04916
5.573
5.477
1.476
0.7936
6.258
2.211
0.001788
0.5619
0.6645
0.5002
0.7224
0.81
0.01651
2.412
0.1221
0.6934
2.208
3.057
5.179
0.9459
3.656
3.93
4.065
2.411
1.261
0.3595
2.83
0.1195
6.187
0.8234
0.0319
12.63
0.6735
13.93
1.466
1.187
0.02188
12.98
0.03599
3.091
16.27
0.01053
9.207
3.058
2.901
10.16
2.293
0.03988
0.002272
0.07018
1.514
0.6165
1.104
1.375
3.556
2.316
0.0007954
1.966
0.02404
1.722
1.536
81.79
0.06542
12.91
0.6104
3.363
0.03538
1.817
0.03581
1.479
0.4309
0.8493
0.03408
1.974
1.04
0.01465
6.301
4.411
0.03408
0.727
77.35
0.011
1.626
2.748
2.254
7.062
6.373
5.127
2.753
0.001817
0.04674
0.01557
0.8446
0.4124
3.701
0.02086
2.877
6.232
498
0.4795
2.182
2.22
1.202
2.41
0.02052
0.01797
0.009357
12.77
1.16
0.5943
0.7909
0.03206
2.995
3.051
0.02884
27.38
1.163
2.668
6.853
3.267
1.82
2.754
0.0193
1.46
0.08094
11.74
1.742
7.758
0.0007594
1.361
0.3739
0.04373
1.037
0.0168
1.485
8.785
2.037
1.655
1.525
0.31
0.6706
4.577
3.873
0.01807
1.004
1.124
9.07
7.952
0.6169
6.262
4.273
20.34
0.02183
0.001478
0.0008946
0.9797
0.3473
29.03
0.0009032
0.08501
4.011
3.173
0.5906
1.92
1.724
0.03826
7.308
1.159
0.01872
12.33
0.9268
2.583
0.3061
1.468
0.3568
0.001544
0.4405
0.001508
0.7922
16.62
43.9
0.8484
32.57
0.4198
1.509
1.641
1.45
0.3224
0.009771
0.02432
1.117
0.008148
1.405
8.454
0.88
1.231
2.574
47.64
20.88
0.01369
0.01381
1.89
0.0016
5.025
0.7636
3.55
75.35
3.667
123.3
1.079
257.2
0.1044
2.334
0.02901
1.393
0.03446
0.8525
0.0182
0.06444
2.371
3.311
1
0.749
1.337
1.291
14.19
0.01468
0.4279
2.668
0.329
2.332
0.01966
83.78
4.348
5.508
1.445
0.5931
2.399
4.131
1.609
1.764
46.79
0.4912
2.879
6.797
24.62
0.001452
2.514
0.7865
9.117
0.1918
13.68
0.5211
1.025
0.9304
0.3828
0.2313
0.01361
0.4085
1.554
1.6
0.5364
3.645
0.002232
0.01342
0.002126
0.1377
0.5835
0.4722
11.48
12.6
8.604
7.283
4.186
1.075
0.05382
0.4242
1.622
3.315
0.06702
2.16
0.001478
0.6603
0.4206
9.146
8.677
0.4851
0.01764
1.098
107.6
3.479
4.491
0.0007298
1.651
0.008883
1.34
9.987
0.02662
5.604
1.279
28.47
0.6649
4.134
5.314
0.6096
0.01768
3.708
4.204
1.696
5.001
1.682
1.263
0.1361
21.38
0.2836
3.277
13.56
0.6736
5.088
0.8487
1.784
12.96
0.947
1.417
0.7876
0.3831
5.813
0.02945
0.9926
3.552
5.179
253.6
0.0007214
2.147
0.6517
0.01422
0.8121
1.444
0.5255
0.8569
2.412
13.69
11.44
2.056
4.823
1.282
2.413
0.4793
0.0008429
0.04378
3.967
0.9375
0.07903
0.1065
3.643
4.532
0.033
0.6758
1.552
1.768
0.0738
2.822
0.2824
2.975
0.0706
4.601
4.999
18.14
2.129
0.01424
0.6149
0.9808
10.58
0.001122
0.001039
0.001043
1.911
8.048
0.4537
2.33
6.196
0.02762
6.737
8.749
66.76
0.9864
0.0286
0.8913
6.549
0.02089
5.927
7.739
27.13
5.267
0.4001
5.112
1.727
0.5819
0.01742
1.978
0.0007175
0.02714
6.647
1.66
0.02285
0.07407
14.48
5.601
2.391
0.7749
9.561
0.4481
0.7844
9.913
0.01356
0.4422
0.9176
0.5362
3.274
1.258
6.331
3.203
0.3203
0.781
13.81
0.461
4.211
1.787
1.617
0.6957
0.02031
4.715
0.03701
0.2058
0.001118
108.9
4.702
1.88
9.26
65.74
0.03025
1.453
2.328
1.549
1.9
8.155
1.354
1.586
107.7
3.612
1.916
1.431
1.235
1.91
0.01016
2.209
2.17
10.8
0.3447
1.884
0.593
0.6768
78.03
0.0006312
32.66
5.722
0.01471
4.723
1.829
1.621
55.13
40.34
2.385
4.815
1.675
1.58
12.85
2.712
7.192
4.033
0.01808
3.217
1.359
2.562
0.7641
0.8383
0.7447
0.3357
0.02601
0.9804
4.874
0.0186
5.738
0.07325
1.79
12.76
0.01581
3.46
1.711
0.02224
0.03693
6.129
9.262
0.0166
0.01642
0.6501
5.429
15.41
13.96
43.18
0.2273
2.718
10.81
2.663
43.94
0.9657
9.944
5.017
0.3735
0.7366
0.4116
0.02018
0.001291
0.0009487
0.0009472
7.678
27
0.09073
1.522
7.697
1.418
1.37
0.06375
0.03287
4.289
3.454
48.22
3
10.3
0.1617
2.273
1.949
6.205
0.07964
5.193
2.259
1.393
0.8859
0.01509
9.131
3.579
3.856
0.01679
1.712
0.0007114
2.876
22.45
0.1928
3.191
1.153
46.51
0.4032
2.171
0.06847
0.0282
0.9187
0.9198
4.492
0.936
2.289
1.576
9.949
0.1846
4.452
0.9767
0.02397
0.01732
0.727
3.019
1.435
2.556
39.51
13.85
1.846
13.7
11.74
40.2
0.4259
0.8582
0.8537
111.1
0.01219
1.638
10.98
0.3412
1.958
0.8927
0.02847
0.3161
1.245
15.51
0.02743
0.01512
5.652
6.431
6.628
6.09
0.4319
0.1202
0.00369
6.534
1.122
3.442
0.3372
2.687
0.06869
0.965
0.07215
1.588
0.6726
1.249
3.996
0.2402
1.472
12.43
2.055
0.0291
4.735
0.774
3.864
0.7578
0.001862
0.3838
32.72
0.04956
2.871
1.311
24.41
1.126
3.4
0.02991
0.0184
0.6055
1.008
3.387
0.3435
1.475
3.938
0.01916
0.673
1.248
4.967
6.608
0.2527
6.163
2.862
0.005273
0.03534
6.329
1.317
1.776
7.108
39.78
9.505
1.316
0.03264
1.066
2.245
0.03873
5.146
0.6739
0.01555
4.82
0.02327
3.255
1.754
1.333
10.46
1.737
0.4394
0.6337
0.02115
38.82
3.202
0.01677
16.75
3.562
1.674
2.292
0.02053
0.03736
1.925
0.8928
13.93
0.5027
13.19
0.8766
2.213
20.46
3.824
1.226
2.032
4.064
1.843
0.7823
5.78
0.009489
2.358
0.801
1.918
30.09
0.2585
2.299
6.072
31.33
1.545
27.16
17.06
0.01171
3.409
3.222
3.419
2.121
1.246
26.59
5.237
0.0183
2.74
16.3
0.3823
2.769
0.0009008
0.01813
0.5146
10.23
40.15
3.242
4.493
0.6589
0.003482
0.5235
0.02048
2.031
0.07693
10.03
0.4037
0.6807
197.3
0.00534
3.874
0.001157
0.769
7.726
0.7346
8.304
51.53
7.427
1.707
1.041
0.8736
0.3209
0.1414
9.485
90.84
0.07133
0.003974
5.619
1.884
8.219
16.63
0.7942
63.64
1.527
1.237
0.6296
0.525
1.52
4.314
0.5143
8.403
13.13
2.443
95.71
5.483
1.651
8.247
2.643
13.65
7.03
12.38
0.8232
0.7782
0.6483
1.325
0.9358
0.9946
0.1891
55.82
0.0299
4.986
0.683
3.511
1.196
6.66
0.03196
0.0172
0.09211
5.362
0.03685
8.647
0.3052
0.4316
0.006813
26.83
1.036
3.844
0.002093
2.039
28.01
5.047
3.095
34.56
0.0006892
0.0006935
1.409
0.02019
3.301
0.6049
0.08492
12.58
0.3392
3.862
0.7446
2.739
27.77
0.0009029
1.653
0.1073
20.76
1.927
2.755
0.5747
22.6
1.5
1.673
0.1777
24.72
4.13
6.681
2.449
64.74
1.685
60.76
0.001591
0.7457
0.5218
4.303
2.846
0.03066
0.4596
5.451
1.655
1.061
6.784
11.79
0.5997
0.9758
10.03
0.3455
2.511
0.02231
2.564
2.641
0.5134
0.8534
4.889
1.592
21.11
0.8167
0.8389
5.481
0.01747
1.286
0.01973
4.582
0.6263
7.164
35.02
1.179
9.028
0.3342
8.695
0.02024
0.173
3.645
2.629
1.469
0.05374
0.05375
0.04644
12.77
0.9067
7.778
8.121
4.09
1.054
0.01283
0.01056
11.42
2.28
0.001537
9.013
0.5687
4.2
0.07044
4.479
0.07659
0.07219
1.366
0.02469
1.53
0.3747
255.2
0.5174
0.266
3.818
0.01776
2.969
1.448
2.873
98.05
0.7256
3.799
0.01686
3.256
0.00651
1.24
0.9293
1.846
0.08424
18.25
0.02096
2.121
63.55
0.6234
34.73
6.511
1.782
0.02142
0.8241
0.9705
0.1894
1.49
1.632
2.178
2.131
15.21
11.22
96.79
0.4143
0.2117
0.9971
7.031
0.04427
23.81
0.5539
3.079
3.542
15.93
0.4723
12.84
5.722
30.2
1.429
1.06
0.0724
2.983
0.002508
0.7857
2.144
4.006
10.36
0.2418
0.6408
0.1261
1.19
1.567
0.7067
2.216
0.2843
0.5716
0.02464
0.01697
0.6624
0.01379
0.03115
2.345
1.609
0.02189
0.341
0.1182
1.878
0.5658
1.136
18.19
2.082
0.003089
0.03644
0.05652
0.008194
1.133
0.5247
3.697
41.52
380.2
0.01557
2.054
0.03107
1.847
0.02522
1.987
0.3494
0.01893
1.241
0.3888
1.158
0.01585
0.008698
1.204
0.01662
0.3904
0.6657
5.791
2.459
3.609
3.512
5.388
0.3806
0.2798
0.1824
2.204
0.4136
0.1739
0.01797
0.4834
0.8163
2.221
0.008016
7.08
7.197
3.354
0.03604
0.04645
10.46
0.02231
14.84
1.463
0.5152
0.1731
13.54
0.7823
1.289
55.3
15.99
0.9304
1.218
0.02966
3.184
0.4155
0.6644
2.219
1.082
0.01647
1.777
2.588
3.97
9.297
1.878
3.704
35.97
3.496
0.351
0.2161
1.229
0.01067
18.08
99.57
0.397
4.763
1.35
0.5905
1.716
3.623
0.01195
0.103
1.731
3.347
1.352
2.473
0.01944
5.31
0.7475
3.576
29.96
6.358
1.857
0.0009056
4.566
2.243
10.76
1.726
119.4
3.52
0.4824
0.3145
3.588
9.899
0.8192
350.1
1.112
1.703
4.018
1.172
0.03142
0.9396
2.432
1.101
0.09586
17.01
5.082
3.602
5.963
0.9934
2.614
19.09
2.281
0.6933
1.136
13.41
4.581
0.4179
0.02992
1.054
1.32
1.273
0.004387
19.93
0.7178
0.001647
0.6361
3.933
5.739
8.812
0.3559
0.8523
2.317
3.989
0.01484
5.503
24.31
0.3538
68.68
0.02439
16.08
3.611
1.396
0.5398
2.825
0.03989
0.261
0.6136
0.6
2.234
0.9107
0.001652
5.891
1.994
2.39
1.404
0.4342
0.01958
0.4661
0.7325
3.166
4.771
6.335
5.095
2.051
0.0128
21.97
1.007
0.1664
2.175
3.928
2.254
1.472
5.374
0.509
0.6424
1.6
0.1003
2.459
0.2619
0.001787
3.889
1.364
0.3592
2.974
0.09919
0.0173
0.9542
2.68
1.01
4.082
0.7712
8.026
4.675
2.72
3.365
4.122
29.57
10.8
14.85
0.3659
4.681
0.04412
0.002981
2.881
5.037
2.038
2.285
2.956
0.8555
6.077
3.289
1.379
8.78
6.724
0.0188
0.0446
0.02775
12.17
7.523
1.999
26.98
0.01804
0.892
2.262
0.02162
3.06
0.5011
8.222
0.6821
0.6473
1.321
4.497
2.191
3.43
0.01633
3.956
0.5751
12.66
0.03311
0.01885
0.02025
10.73
1.143
12.77
10.67
7.813
0.5976
2.521
0.02132
0.02093
7.602
2.258
245
3.784
0.9037
0.3159
0.02676
0.02725
2.904
2.24
0.08355
0.2411
3.561
4.651
0.6862
0.7094
0.03762
1.119
0.8618
12.62
49.31
1.681
1.244
8.011
0.7511
3.134
1.079
7.308
27.44
0.8405
11.53
5.532
1.919
25.83
7.272
0.8089
0.9792
26.99
0.6265
0.9231
0.263
0.01824
0.2233
7.207
45.57
0.8107
4.887
6.634
2.435
11.41
0.04608
0.2334
6.336
1.269
1.209
0.001173
2.757
5.065
1.255
32.86
1.111
0.9751
6.328
0.001154
2.843
0.7136
0.8052
0.03223
8.641
15.01
17.83
3.874
2.705
2.518
4.521
0.04745
12.57
2.54
1.291
1.339
14.19
14.52
0.3011
0.08488
0.6995
0.0153
0.3558
6.011
2.888
16.86
1.677
1.866
0.007452
0.007428
144.6
1.663
5.132
4.52
1.513
0.04016
0.02032
0.04236
3.948
0.009105
0.0008492
53.81
0.04482
8.246
0.4946
0.469
0.4955
2.998
1.129
0.002809
27.8
1.301
0.8526
0.02593
0.8389
1.559
6.167
4.366
1.187
0.5754
0.2121
1.337
7.58
3.178
0.1376
0.6136
0.4258
2.053
1.611
4.499
4.39
31.62
37.65
0.9726
8.039
0.06135
0.04109
12.16
1.876
6.867
1.043
1.701
40.54
5.209
0.02132
1.927
0.4281
3.773
4.562
9.279
0.03176
0.02338
1.256
0.2371
1.451
0.5012
3.326
0.003078
0.04828
0.01477
1.515
0.0364
0.6027
355.4
1.759
13.07
5.832
89.27
3.331
53.09
4.988
38.72
0.5885
2.951
0.2349
0.2179
1.802
0.06067
0.1354
3.62
0.03913
1.58
0.01858
1.207
3.112
11.22
27.36
69.85
3.634
2.25
2.268
0.001507
276
1.815
7.961
0.02411
2.292
3.306
12.36
0.01858
9.062
23.78
0.03142
5.132
9.518
5.068
3.788
2.552
0.1465
3.382
0.003717
0.6561
2.382
3.65
3.882
0.8461
1.818
5.936
0.7494
673.5
0.3381
5.303
0.03151
0.0219
1.797
2.248
0.01855
1.459
1.37
3.587
9.396
1.521
0.4144
0.02934
1.616
1.365
39.76
0.006079
0.1283
1.778
0.5964
2.396
1.472
14.72
0.00444
0.957
0.5174
3.696
2.147
27.13
105.4
1.188
0.01522
2.149
0.2404
0.7178
0.2597
0.08536
2.212
0.646
19.45
29.77
12.56
0.08501
0.272
5.879
1.874
0.7831
0.02504
35.39
1.281
2.684
23.99
2.758
19.57
7.113
0.01137
106.4
1.37
2.909
0.5306
3.142
0.0008621
0.01711
5.473
0.6056
0.2868
0.003797
41.38
2.651
233.6
0.1877
1.68
0.3924
11.53
3.923
2.967
1.669
1.511
2.799
0.08754
10.52
4.172
39.62
2.585
4.898
6.561
0.1941
0.1941
1.444
16.08
0.4431
3.897
6.704
4.44
1.905
0.3322
164.1
0.018
0.9883
0.02477
1.446
1.985
0.06277
0.03996
0.5674
2.051
0.5562
4.206
9.823
7.036
0.8448
14.56
1.108
5.331
3.53
6.396
1.413
5.123
0.003546
17.33
2.32
0.5539
2.331
0.03183
1.403
0.02433
0.07093
1.774
71.86
6.233
8.219
0.5491
30.24
0.2709
2.546
0.03614
2.985
2.211
2.034
1.589
1.139
0.01821
0.4948
0.4372
1.559
1.198
0.01031
11.78
1.316
2.647
4.031
11.8
1.176
0.6862
1.63
0.001057
19.57
0.01427
0.5485
2.744
1.597
0.5682
1.011
0.03031
13.36
3.326
7.517
0.02098
18.23
3.957
2.006
12.32
12.37
6.479
10.26
0.1832
9.986
0.8892
0.03881
190.5
2.458
0.03701
2.52
2.858
31.15
0.4463
0.03741
1.93
8.644
0.7366
0.5743
2.075
13.77
0.3009
0.7414
0.005313
2.633
1.121
22.88
1.968
4.482
0.01827
7.955
0.1663
0.7106
2.349
5.493
2.357
3.991
0.828
4.553
0.6892
2.733
0.2233
8.825
0.03146
6.365
0.8218
8.355
52.96
14.84
3.809
2.632
14.64
5.215
40.12
0.3697
1.078
11.69
0.002496
2.787
32.73
5.86
3.196
13.94
2.755
10.35
0.005888
124.9
1.425
0.5847
6.525
7.368
0.02331
115.9
0.5087
5.493
11.51
1.528
11.28
4.491
0.03452
0.3671
0.8734
0.02237
0.0007201
1.82
0.3916
26.12
13.76
3.529
15.35
6.724
4.7
2.37
0.6115
2.38
0.6775
0.99
17.57
0.002864
0.01835
2.875
23.27
1.363
27.68
1.01
2.078
0.7391
0.01904
4.266
0.002971
14.37
4.723
0.4454
1.886
20.71
13.62
0.3979
7.06
0.5615
2.716
0.9003
0.006368
0.1245
6.29
0.01819
19.57
0.1349
4.2
0.1385
1.408
280.2
44.55
5.893
6.156
0.2103
10.2
0.9958
0.5904
1.604
24.11
0.03284
3.706
10.47
0.01785
29.66
0.8733
0.11
4.868
0.176
59.88
12.97
0.05098
1.56
1.276
0.9174
0.3803
0.1122
2.891
2.968
0.001343
0.5256
3.01
3.043
21.48
0.1938
47.24
1.525
0.02747
33.39
3.056
1.928
0.05122
0.05133
0.0006404
0.8256
1.45
11.81
2.082
0.03867
0.04071
17.66
7.479
0.6313
0.7515
0.02369
0.03352
1.011
14.5
0.6589
0.3885
0.8325
0.01516
0.5149
40.28
0.03944
57.61
0.0204
0.02982
0.01712
0.9407
0.01172
1.076
0.0195
86.94
5.31
2.198
7.376
0.5121
0.9791
61.76
1.083
5.68
1.563
0.3078
12.45
4.342
5.426
43.82
1.341
98.1
0.3557
1.395
2.417
0.3691
0.7686
5.683
0.4999
0.8153
13.44
16.87
0.007232
0.4257
0.1397
0.05878
1.41
3.329
0.1991
47.5
1.398
0.0891
1.944
0.9367
69.35
2.251
4.577
22.28
11.74
0.02233
0.9993
1.607
1.394
1.291
3.536
1.043
1.919
0.687
4.433
13.9
8.741
9.179
2.507
0.8813
25.82
2.519
1.615
5.274
5.536
2.471
6.907
0.3388
3.204
0.02535
1.668
0.05514
0.01436
2.081
4.349
2.7
0.02116
1.256
0.5425
15.99
0.07534
0.07534
4.12
3.42
72.83
4.092
3.918
3.647
4.6
11.24
0.08738
0.5136
1.845
0.02745
16.29
46.46
0.3723
0.3406
0.1316
2.251
4.356
0.0006759
0.002033
2.073
8.484
0.01507
0.01506
4.402
10.2
4.606
0.7157
0.4388
0.015
0.9357
36.93
1.778
3.323
12.28
36.4
3.023
27.85
2.849
1.437
29.92
1.413
1.259
0.017
7.518
42.76
5.988
2.439
0.7553
0.1038
40.91
12.28
0.6593
16.77
3.041
1.501
0.01097
4.996
40.69
10.88
0.6131
8.518
3.724
47.32
2.714
4.01
0.5891
0.03828
11.6
0.00369
1.111
3.26
10.79
0.1562
1.134
3.494
0.4212
0.2597
8.518
25.56
3.498
0.07114
2.323
0.01595
1.492
2.201
12.3
1.399
4.076
6.106
2.38
0.07396
0.03581
17.45
2.509
1.664
17.9
9.228
0.2631
1.612
1.19
0.8466
5.371
1.009
11.07
4.791
8.63
1.892
0.002387
88.93
0.002097
7.622
7.278
7.146
0.004672
0.3942
1.753
75.33
2.861
4.337
1.021
2.533
1.726
40.9
18.75
3.148
6.724
14.64
1.568
3.076
122
2.507
0.7051
1.13
0.01919
0.005376
1.084
2.501
0.02035
93.32
40.55
0.03159
3.143
1.049
19.78
0.9204
3.096
2.066
0.1171
2.225
6.264
1.146
0.01594
2.072
3.077
2.441
3.74
1.534
2.853
8.333
18.08
0.5612
2.093
17.05
0.002851
0.001037
1.319
1.872
0.02113
1.403
3.682
0.8605
5.278
3.869
1.564
0.002924
0.06087
0.01913
0.01399
2.835
0.01487
28.63
41.92
0.06518
0.6755
4.13
3.268
8.51
2.704
3.164
0.02332
24.66
0.03128
112.2
3.34
31.99
1.559
5.949
9.743
2.325
0.02059
0.7623
1.893
0.4691
66
0.8559
1.464
0.9125
5.192
1.356
6.658
2.636
2.929
0.001024
5.297
0.02216
0.001295
0.2621
0.01471
0.2146
0.6936
157.4
0.006714
1.416
3.992
0.01749
0.01939
0.8641
0.3257
1.282
2.691
5.175
0.494
1.019
0.006758
3.922
1.447
2.614
0.02271
1.64
114.2
6.253
0.7577
0.03974
0.03957
0.01724
154.7
3.087
1.549
0.03067
8.671
0.01534
1.083
0.07356
0.01874
0.9063
1.154
1.207
0.6201
5.888
8.463
1.68
12.87
0.01697
5.69
1.22
0.0009927
1.091
0.5829
0.937
8.234
6.684
10.29
7.188
3.819
6.875
2.47
2.437
0.3716
9.047
0.918
1.223
1.289
0.2901
4.353
3.35
0.02133
1.507
16.18
2.052
7.062
1.546
3.606
2.912
0.9013
2.418
0.01525
41.04
0.7868
39.12
1.574
6.906
1.644
0.3056
1.879
1.071
4.65
1.348
5.179
3.449
0.9888
0.03849
0.03839
0.1072
0.3746
0.2548
1.803
3.869
4.834
8.289
0.8297
1.042
35.61
0.7152
0.9837
0.04459
3.634
3.957
0.2377
12.09
1.027
45.51
36.84
0.6691
2.01
0.08732
5.166
1.158
0.8425
3.525
0.009192
11.16
56.33
0.001891
12.44
4.649
6.211
5.023
0.6992
0.09894
14.41
0.7592
4.396
1.826
1.719
1.877
47.67
4.295
3.104
0.01745
3.889
69.32
79.69
21.13
0.4285
1.111
0.02243
0.0776
0.03335
0.01755
0.05336
0.181
6.644
16.09
0.7896
0.7499
1.845
2.708
3.357
9.729
0.7199
0.6727
1.122
0.9045
10.91
0.07296
0.02099
0.06627
0.005
0.01935
1.982
26.35
0.05671
24.05
0.0684
3.433
0.07849
3.844
2.701
5.597
4.299
0.003912
0.4986
0.0328
1.517
3.501
1.056
0.03091
8.305
0.1594
0.01615
2.299
3.259
0.06423
0.1842
0.4324
3.004
0.2573
0.04085
0.01932
1.723
0.02319
4.397
2.845
1.563
1.788
0.3931
1.344
73.24
0.8339
0.928
0.8174
0.7674
2.9
0.008565
1.088
0.001694
2.636
2.024
0.4174
6.867
2.023
0.3443
22.22
3.363
0.01937
0.194
23.42
0.02584
4.979
0.08228
8.061
0.9733
2.962
4.786
2.564
3.396
4.957
40.58
1.42
3.807
0.03559
5.094
0.8819
0.05112
1.498
2.804
1.872
8.525
0.719
3.899
1.267
0.3638
0.02852
0.9072
8.098
6.09
0.01593
0.8074
99.03
2.184
0.005994
1.582
38.1
0.4377
2.246
1.931
0.02514
1.574
1.05
0.01855
17.43
2.03
0.6484
0.3565
0.02311
4.703
3.292
12.69
25.72
12.73
9.488
1.099
0.1576
5.495
25.37
3.358
0.9989
3.259
4.942
2.29
82.12
1.07
3.857
4.654
3.464
8.454
0.469
0.01788
0.03516
3.13
5.799
1.743
1.198
0.1888
8.378
1.009
2.188
0.1944
1.025
45.81
1.406
0.04777
16.54
0.08088
1.089
0.8499
5.928
6.271
0.02066
3.163
6.118
2.517
3.045
0.9402
1.543
2.93
3.286
1.824
0.03625
5.335
0.4205
0.1211
1.379
0.04857
17.31
0.7688
1.948
1.368
274.2
1.73
3.923
0.5139
1.544
2.753
2.795
0.02207
4.829
21.04
45.04
5.133
5.814
2.713
0.6571
2.843
5.797
10.36
0.1022
0.02639
6.316
1.258
11.45
0.09439
37.92
0.9723
0.3039
0.04726
0.2153
1.823
4.973
1.21
16.29
7.108
0.01461
0.318
4.969
1.782
17.35
0.7024
2.561
0.6772
11.6
0.3892
0.0187
9.24
2.828
0.8734
34.87
18.9
3.445
1.188
0.1871
1.218
0.6247
1.84
1.163
5.049
0.6008
0.296
2.468
3.811
0.901
3.271
0.001406
0.001402
1.112
3.215
4.96
2.043
12.16
10.23
2.544
5.052
1.994
1.221
3.994
7.56
0.09199
18.2
0.5844
5.867
1.077
0.01414
1.737
0.9453
51.44
0.02626
52.85
148.4
0.02112
1.227
10.72
0.9446
0.9182
0.3174
1.866
6.694
0.3393
1.558
3.451
27.84
20.49
0.7327
18.49
17.97
0.0645
2.651
3.313
0.02564
0.01605
0.1316
1.145
0.4913
1.414
1.589
63.45
1.398
2.363
0.3628
0.01493
2.822
0.008448
224
5.684
0.4056
1.318
2.218
11.22
82.77
0.7391
1.056
1.772
0.1569
1.38
4.881
0.1498
0.02415
0.7388
0.8545
0.6855
3.494
1.51
2.846
4.857
12.07
0.00163
2.428
6.991
1.793
0.01648
8.355
0.7253
0.6869
3.192
5.142
4.462
41.82
0.01975
3.644
5.157
1.588
0.8422
0.005484
1.135
43.75
0.6658
0.7602
3.178
5.25
1.943
0.7613
10.94
0.7137
111.6
0.05602
11.13
3.957
18.44
0.02968
0.5119
0.04518
0.3273
0.01861
0.0303
0.01169
4.404
2.258
0.8928
3.526
0.006145
0.01923
9.793
0.01916
0.8374
0.02221
53.76
34.42
79.62
4.111
0.0006276
6.05
0.1625
4.205
18.96
0.01596
0.3668
0.02364
0.001281
2.954
0.03352
8.313
4.697
0.005546
1.27
3.352
6.021
2.408
0.01688
0.8487
1.173
1.653
8.362
3.508
2.443
59.54
15.84
0.3588
0.7983
2.099
1.862
0.8081
0.6774
2.003
1.891
2.225
0.8253
12.88
1.529
0.471
4.564
4.908
0.001721
3.377
0.00954
0.009576
0.04058
134.8
1.08
0.7642
3.331
0.01268
0.02471
18.47
2.821
7.708
2.173
0.6501
0.06819
1.875
0.8314
2.314
2.243
1.905
4.501
0.01723
0.4137
0.5087
0.5403
1.2
0.1966
14.13
0.4136
1.626
31.75
2.732
3.954
1.574
192.8
1.43
0.3338
45.75
0.5426
0.4734
5.099
0.599
2.185
58.67
0.03837
0.01613
2.138
4.13
4.525
2.713
1.037
12.02
2.897
0.6162
15.11
3.607
1.746
10.05
0.08592
8.062
0.7329
1.216
4.279
654.1
0.876
0.003829
1.198
4.141
0.03213
0.6312
2.363
2.137
1.804
0.2629
1.036
0.329
45.36
3.699
49.11
1.233
217.8
0.03015
1.582
1.551
0.4613
0.2213
0.002001
120.6
0.6154
0.001533
3.249
1.492
18.66
149.9
10.29
0.0305
3.764
0.009218
0.3254
0.0356
0.7744
1.787
1.612
6.585
0.1146
10.91
0.02185
0.06295
0.01512
8.682
1.386
1.532
0.01941
1.912
1.897
18.77
0.6518
0.01209
6.263
1.066
7.303
42.74
8.671
0.02738
0.1764
1.113
5.223
0.03994
1.737
7.366
6.888
3.963
0.7343
13.67
0.8658
0.4297
0.6929
24.55
0.02711
7.607
6.14
8.309
0.4009
3.708
1.09
0.8729
8.647
0.01364
53.99
11.92
10.27
0.02274
4.286
2.945
6.308
12.61
5.478
0.1075
3.673
42.29
25.92
0.6214
4.537
0.9383
0.06028
1.325
0.09116
0.01958
6.135
0.3262
0.001461
2.455
4.834
0.0237
2.965
0.0154
0.3192
2.74
0.8065
20.87
0.001481
0.8547
0.8867
0.9629
10.29
0.04476
2.186
0.201
0.106
2.671
1.016
0.0212
0.004092
1.04
3.475
16.82
42.88
3.313
0.4542
0.01285
4.433
0.302
2.581
1.494
0.02049
0.3627
0.5874
0.0169
0.01795
23.4
0.1997
0.001798
54.93
1.772
1.138
3.267
0.005505
0.01633
5.178
0.3828
27.03
1.64
0.09025
3.735
2.728
1.83
1.266
1.089
1.596
14.21
12.43
3.282
7.678
5.439
2.993
4.366
6.101
0.8304
1.268
144.5
5.882
1.48
9.742
1.016
0.01298
1.808
10.51
0.08714
9.692
10.31
3.004
1.354
7.926
2.696
0.4274
0.03334
3.646
0.003415
4.817
1.604
0.007491
0.007539
2.166
0.6217
41.86
29.88
0.5197
2.995
1.989
6.512
1.102
5.472
0.0463
1.999
57.59
4.724
0.02575
3.369
0.4709
3.065
0.009613
6.448
1.496
4.493
1.882
40.98
41.34
0.09114
3.479
2.095
2.74
8.018
5.697
43.95
6.899
0.1021
0.01871
11.92
0.01898
0.8206
3.753
1.761
5.659
3.473
1.718
0.01967
2.502
1.313
1.192
9.459
0.5997
2.258
0.7515
0.00507
0.9815
0.5835
8.817
7.816
1.838
4.948
5.967
4.918
0.08641
3.992
7.48
0.1007
2.166
0.9008
2.713
0.769
1.526
0.08166
0.01034
1.961
9.048
0.01671
7.204
0.5714
3.384
1.778
0.468
28.53
6.972
6.428
0.5864
74.38
0.4413
0.03291
0.003731
2.687
3.846
0.7617
6.511
0.1237
2.436
9.599
15.8
4.903
0.0007084
1.613
2.028
0.6472
7.978
0.8175
0.9914
2.381
0.001054
2.802
0.01676
3.494
3.837
4.666
0.02219
2.417
0.6765
4.043
0.01636
0.02827
0.9135
0.01755
23.7
1.608
8.86
33.19
0.0005983
1.779
36.24
5.755
0.1468
1.517
3.046
0.01192
5.22
0.6318
5.72
3.11
267
1.124
0.3411
13.92
0.7951
6.31
0.6424
6.846
92.18
1.018
3.027
4.338
7.729
9.666
0.01628
0.8396
0.4788
15.56
1.638
16.12
41.7
3.503
0.1623
0.3924
0.8899
49.8
0.2771
3.383
21.33
1.496
0.04509
0.6156
0.01571
1.05
2.51
0.3639
2.229
7.828
6.219
2.016
2.011
1.444
0.2818
0.2937
1.661
0.03583
2.824
14.44
10.42
1.452
0.7591
0.01826
0.005947
30.07
0.7375
4.174
0.02199
0.9461
1.638
3.095
0.8112
6.003
0.01084
1.096
94.05
1.209
0.002957
0.4219
2.098
0.4928
10.28
0.02385
0.3916
0.3694
1.836
8.053
0.009118
0.01783
1.715
1.783
0.1081
0.01886
2.649
3.626
0.0179
6.007
0.02378
0.7732
0.004223
0.1492
3.454
12.1
0.006533
31.45
0.5085
1.335
10.83
0.2836
0.4856
0.7901
0.01608
2.894
0.01594
0.02617
0.1166
4.883
0.5568
6.483
6.015
0.9028
0.02685
0.1761
2.466
1.451
3.548
0.7608
2.224
0.6037
12.01
2.271
101.7
1.121
0.02789
0.3802
7.051
21.22
29.64
2.738
1.443
8.293
0.4175
1.359
0.01549
30.27
0.1815
61.13
4.739
0.8081
0.008892
1.107
0.2266
0.8526
0.7595
9.167
11.52
0.02527
0.5751
0.02525
0.2219
0.0009781
3.447
8.18
0.03881
1.531
27.35
7.504
1.472
0.06211
4.656
0.001067
0.7352
0.9692
1.871
19.29
1.41
19.16
14.62
0.4309
2.308
1.398
0.6999
0.02161
0.5914
4.275
1.721
1.328
0.5155
0.7394
0.5995
1.559
0.7109
3.867
33.14
4.581
2.57
1.834
4.306
0.2967
1.936
2.883
20.46
1.344
4.278
2.009
1.073
81.36
12.77
1.556
1.363
1.05
2.697
13.37
1.438
11.52
6.573
1.363
0.5876
0.08297
0.08288
0.3997
0.8928
6.483
5.492
18.38
3.445
0.7683
1.089
0.001187
5.32
3.305
0.1828
4.309
8.752
2.076
38.79
2.866
0.3922
0.009701
0.01565
65.31
0.02762
0.8735
20.89
4.587
10.74
37.88
0.4997
2.128
2.95
0.04709
3.575
0.9665
0.1032
0.8742
2.088
1.675
0.5642
0.01678
0.08176
3.987
0.01618
50.7
1.571
9.969
0.9972
1.685
0.05123
0.01855
6.153
2.026
0.6273
6.792
2.126
3.625
1.853
0.0476
1.989
25.99
3.2
0.7121
0.006099
0.04399
0.08058
1.764
5.638
0.7624
10.78
1.326
0.6602
1.884
0.01808
0.9094
0.04463
2.151
13.94
0.03754
0.02302
8.724
0.4797
0.288
6.024
5.116
3.869
1.349
3.384
50.88
0.01602
0.02102
2.514
8.409
0.0008853
6.092
1.013
3.136
13.73
1.903
2.62
11
0.4533
1.214
1.572
22.69
17.4
0.3378
13.59
0.03751
22.75
5.371
1.017
0.03617
0.8333
4.733
1.551
6.907
3.635
77.24
1.782
8.806
0.02886
3.117
5.947
0.05142
5.831
2.496
0.8103
3.02
12.79
3.039
0.03658
5.167
1.823
4.054
0.9744
22.29
0.9377
15.53
3.681
3.011
0.02236
0.0145
0.3182
62.35
0.05329
0.0346
2.922
0.6677
15.82
0.5595
2.955
6.998
0.4474
94.13
0.07763
1.33
8.067
0.002832
25.15
8.824
13.3
2.853
0.04528
0.5117
3.332
2.416
1.748
2.384
22.73
2.716
2.685
0.4855
1.327
3.279
2.598
47.31
25.23
0.001397
0.01955
4.262
0.3955
1.332
1.314
9.216
0.2117
0.4174
5.894
0.1104
0.008504
16.62
2.55
1.376
0.06384
12.19
16.88
0.003202
0.4136
4.83
0.4362
1.387
4.246
0.5992
6.465
1.472
8.832
0.4756
3.713
0.3396
1.542
5.421
5.211
2.656
7.024
79.78
0.05823
75.8
6.379
0.5364
1.528
8.925
0.7652
0.04865
1.641
1.534
5.58
0.01887
0.0008601
1.285
0.001003
3.39
3.788
3.945
0.009159
3.595
5.95
5.758
0.1876
0.1386
3.857
2.267
1.524
2.18
1.219
2.605
1.136
0.7864
0.9724
5.594
0.5693
2.669
50.16
0.5068
15.59
2.821
0.6485
0.1544
0.0189
0.4942
0.01767
19.91
2.896
2.328
0.05368
0.5028
1.111
0.1806
4.468
0.0127
6.649
287.9
1.61
0.7359
3.932
1.728
0.03715
0.006723
0.02348
0.05518
4.378
1.581
2.238
0.01863
0.02638
0.003496
5.759
3.369
2.152
0.07675
22.6
0.009926
0.05598
0.02913
3.616
0.4395
0.0006084
0.8461
0.9301
0.01452
0.0144
22.76
60.58
8.53
0.839
2.187
2.1
0.5019
4.268
3.63
0.03383
2.645
2.145
5.037
1.736
7.206
34.9
0.2791
6.049
2.664
5.426
2.808
0.9004
6.393
1.015
2.684
0.04318
0.1579
0.4235
59.14
6.192
1.311
8.163
42.49
2.786
0.9633
0.4124
26.67
1.462
0.4412
6.112
2.93
0.2927
1.624
0.0964
2.734
1.372
59.92
21.97
60.01
0.08907
8.094
3.182
0.7908
0.05246
0.01604
0.8425
0.679
1.91
2.253
0.01873
0.01684
0.001164
33.05
28.3
2.683
0.02598
2.456
0.6581
0.5231
2.627
1.107
14.12
0.01297
28.86
11.39
2.212
0.00149
0.06586
135.3
0.6459
0.1572
0.1317
1.629
2.828
0.8169
0.0169
0.003275
1.001
1.621
2.05
1.511
23.06
2.152
6.282
249.4
0.7183
3.624
5.176
0.003533
1.223
3.484
0.6621
2.678
0.4794
0.00107
0.001041
4.028
1.119
4.393
40.76
2.118
0.4525
1.5
0.03355
2.16
10.38
1.206
14
0.5986
98.7
9.489
0.02177
0.01482
0.06662
117.4
1.73
0.08387
3.265
13.89
0.2573
1.088
0.01084
0.3886
0.09085
0.0125
3.934
0.1098
3.208
0.01544
1.251
5.356
5.484
1.675
0.3084
5.002
0.1456
3.53
0.1131
0.9312
90.72
1.799
0.01879
2.945
3.118
0.03389
31.33
37.24
24.64
0.9287
1.54
5.419
2.043
0.02445
1.538
1.538
0.01994
1.9
0.9541
0.6429
0.1294
0.01133
0.6794
0.2817
1.455
0.004679
10.67
2.519
0.2012
1.075
1.214
48.67
2.145
14.29
0.4119
0.001546
0.01724
13.76
44.84
1.292
2.285
1.928
9.829
0.8568
2.201
0.07356
0.7619
2.549
0.7624
0.01372
8.42
0.01504
8.223
8.124
4.95
0.0192
1.989
1.075
0.001256
1.889
45.06
0.01228
1.89
27.7
36.52
0.6924
2.73
10.54
0.07843
7.506
0.01414
37.23
6.323
2.988
5.781
1.306
0.01855
0.02593
2.99
0.7001
3.647
0.2718
2.378
4.094
0.4975
269.4
0.001302
8.27
0.7899
2.401
1.633
2.398
8.423
0.1211
0.1622
1.273
1.43
2.549
9.098
0.9447
3.55
123.4
0.03125
3.317
4.662
1.378
12.75
1.78
0.5958
1.116
11.61
6.921
0.3657
7.985
0.6097
0.9374
19.64
4.394
16.37
3.331
5.482
1.363
1.25
0.02149
6.081
2.235
8.794
1.596
1.265
5.806
1.468
6.782
0.8081
18.48
0.003507
8.322
22.44
0.0181
0.9418
41.03
0.1783
14.95
0.6403
0.4185
0.9182
0.9333
1.415
4.123
3.315
0.2602
1.228
0.141
0.04285
1.974
0.007545
19.95
0.01908
0.01768
1.444
70.8
0.09486
9.394
8.118
0.04087
31.43
1.093
3.644
6.23
0.4627
6.843
0.2298
2.161
28.8
1.467
0.3436
2.232
2.166
0.001881
3.408
2.81
48.32
0.228
1.46
3.71
0.07924
121.2
35.92
2.363
43.4
1.41
0.034
1.492
0.02365
2.826
0.01111
2.208
39.02
168.9
0.02673
0.9603
0.8603
0.05737
0.6998
7.495
0.7331
0.7707
19.26
8.169
101.1
5.678
1.073
22.49
0.995
1.027
0.4109
52.34
6.54
2.786
2.611
2.283
2.114
1.866
2.413
0.1091
0.02387
0.6334
3.416
1.615
4.129
8.331
4.902
2.298
6.105
2.66
7.883
1.962
1.305
0.5127
0.06699
0.0255
1.39
1.159
1.484
2.182
0.01187
0.3435
1.217
0.3935
5.05
1.95
143.4
6.289
23.18
1.775
11.11
15.47
4.649
0.5436
0.04357
3.629
4.582
3.104
0.848
0.9539
2.597
0.8084
0.02148
1.573
3.977
1.133
0.02607
9.526
6.846
0.8754
1.745
1.963
2.277
0.9765
4.576
0.1898
0.8927
2.056
57.74
0.4004
2.227
0.2592
28.01
0.8415
0.06518
1.133
7.078
0.01818
0.9228
4.019
21.06
0.001051
0.0175
0.1646
0.01663
13.03
1.796
1.483