/*--------------------------------*- C++ -*----------------------------------*\
| =========                 |                                                 |
| \\      /  F ield         | OpenFOAM: The Open Source CFD Toolbox           |
|  \\    /   O peration     | Version:  v2012                                 |
|   \\  /    A nd           | Website:  www.openfoam.com                      |
|    \\/     M anipulation  |                                                 |
\*---------------------------------------------------------------------------*/
FoamFile
{
    version     2.0;
    format      ascii;
    class       volScalarField;
    location    "5";
    object      nut;
}
// * * * * * * * * * * * * * * * * * * * * * * * * * * * * * * * * * * * * * //

dimensions      [0 2 -1 0 0 0 0];


internalField   nonuniform List<scalar> 
118995
(
1.586e-07
1.382e-06
3.121e-06
4.108e-06
1.658e-06
4.495e-06
2.817e-06
6.805e-07
2.673e-06
2.164e-06
1.89e-06
6.703e-06
2.047e-06
2.551e-06
1.14e-06
1.12e-06
5.44e-07
2.333e-06
4.517e-07
3.908e-07
2.505e-06
5.907e-07
5.851e-07
2.001e-07
3.885e-07
0.0001887
5.781e-07
0.001855
0.0001142
6.193e-07
0.00412
0.0002077
0.5643
0.0004308
6.478e-07
0.0006727
0.0002614
0.03892
0.003329
0.01883
0.00105
0.02013
0.5852
9.424e-05
0.003362
8.69e-05
9.866e-05
0.003648
0.02051
0.007058
9.441e-05
8.906e-05
0.04029
0.005665
0.06476
9.734e-05
0.5079
0.01441
0.004367
8.507e-07
8.919e-05
0.02251
0.007734
0.0005758
0.574
0.0001075
7.351e-07
0.05586
0.002932
0.003771
8.682e-05
0.02868
0.1313
4.019e-05
3.435e-05
0.0004511
3.492e-05
0.001272
0.0002206
0.0009672
0.003801
0.01933
0.1321
5.914e-05
0.34
0.4667
0.005202
0.05681
0.0001019
0.005362
0.5845
0.005222
0.5796
0.002169
0.338
0.001011
6.255e-05
0.574
0.01187
0.02738
0.5859
0.001419
0.04743
0.0006604
0.0002282
0.1383
0.0002826
0.0215
0.08965
0.594
0.3399
0.0003963
0.01547
0.02797
0.0008114
0.0006956
0.0004355
0.002464
0.03148
0.3783
0.3185
1.251e-05
0.04562
0.02099
0.3718
0.03191
0.5362
0.2939
0.2948
0.0008645
0.5795
0.3146
0.001768
0.01025
0.2944
0.2953
0.02642
0.002115
0.1326
0.3667
0.001189
0.5639
0.02125
0.0004192
0.07177
5.064e-07
0.006115
0.01529
0.005702
0.4306
0.05719
3.979e-06
2.129e-05
0.001041
0.008083
0.009465
0.00334
0.006011
0.5387
5.311e-05
0.02212
4.263e-07
0.02058
0.009216
0.2867
0.4773
0.007018
0.0007616
0.0004317
0.001834
0.01251
0.0003661
0.001073
0.02315
0.578
0.6093
0.06278
0.02792
0.0005178
0.001084
0.0002776
0.0005664
0.04794
0.0003571
0.0008088
0.02839
2.435e-05
0.5767
0.003105
0.601
0.02186
0.574
0.009455
0.0004806
0.01605
4.918e-07
0.001327
0.5691
0.0009493
3.157e-05
0.02896
0.001601
0.05773
0.0006151
0.02101
0.04004
0.0002286
0.329
0.0001166
0.002344
0.0001051
0.04359
0.5534
0.07242
0.003397
6.032e-06
0.5526
0.04365
0.05865
0.006002
0.0003454
0.01448
0.5781
0.0005454
0.01016
0.002925
0.0008712
0.0004489
0.3488
0.004003
0.01562
0.5341
0.01032
0.01744
0.1424
0.0005268
0.06362
0.0005938
0.003338
0.0002391
0.003371
0.003255
0.002768
0.01332
0.005783
0.06839
0.4769
0.06669
0.01411
0.6243
0.005465
0.06379
0.07455
0.003717
0.003032
0.000227
0.5782
0.5648
6.861e-06
0.5705
0.005931
0.3966
0.004193
0.01071
0.02506
0.000246
0.004649
0.003645
0.01076
0.0004434
0.0004251
0.001637
0.1402
0.009758
0.0006596
0.00172
0.00258
0.004328
0.0005827
0.0002694
0.003775
1.027e-05
0.0002267
0.002005
0.04264
6.131e-05
2.494e-05
0.336
0.01721
0.01508
0.5846
0.5732
0.01207
0.01331
0.004298
0.02149
0.00506
0.004358
0.001966
0.003046
0.001064
0.00728
6e-07
0.004075
0.002752
5.228e-07
0.565
0.1425
0.01061
1.025e-05
0.002755
0.001871
0.3791
0.3787
0.004688
0.001488
0.009741
0.382
0.3816
0.003192
0.01945
0.5782
0.02802
0.3144
8.329e-05
0.003293
0.2845
0.0004138
0.03081
0.02251
0.3324
0.01274
0.2941
0.01446
0.4266
0.04524
3.297e-05
0.008885
0.01557
0.04386
0.00963
0.009189
0.0004846
1.612e-05
0.002278
0.005591
0.09421
0.3287
0.3944
6.584e-05
0.0003182
0.0001721
0.02465
0.01048
0.0149
0.0136
0.07379
0.01112
0.04125
0.349
0.1424
0.2656
0.3615
0.0009086
0.003091
0.01214
0.008361
0.0006485
0.004945
0.3942
0.0493
0.008066
0.04662
0.005914
0.005758
0.5856
0.005174
0.6287
0.01525
0.01007
0.0001476
0.001323
0.02042
0.006147
0.001618
0.0004795
0.00474
0.001717
0.04941
0.003539
0.07439
0.0005198
0.0275
0.4268
0.0004821
0.006215
0.0002404
0.02283
0.01689
0.5745
0.0001694
0.5829
0.002975
0.0001128
0.5519
0.0003313
0.0002495
0.00295
0.0002108
0.005898
0.2678
0.3299
0.6105
0.009429
0.02963
0.001871
0.0185
0.002027
0.005783
0.3752
0.007056
0.5766
0.007992
0.0007984
6.874e-07
0.6008
0.002419
0.01729
0.002319
0.5825
0.007724
0.4383
0.0121
0.02232
0.00317
0.5877
0.0009795
0.0214
0.5483
0.001313
0.0003312
0.5877
0.03732
1.022e-05
0.4672
0.009881
0.00563
0.01572
0.0004609
0.001279
0.003624
0.0004193
0.3956
0.3804
0.4345
0.02337
0.009993
0.002085
0.5744
0.002999
7.781e-05
6.068e-06
0.01201
0.0003327
0.006313
0.0201
0.004197
0.5541
0.5941
0.3671
0.0003436
0.01755
0.05055
0.01491
0.5857
0.003467
0.003095
0.581
3.733e-05
0.01814
0.001475
0.0006264
0.0001546
0.0006282
0.003732
0.5586
0.01324
0.2486
0.0002687
0.009292
0.0005106
0.3806
0.001207
0.07668
0.5946
0.00562
0.5785
0.01208
0.002258
0.006536
0.009744
0.001633
0.03107
0.01139
0.002857
0.001907
0.601
0.02298
0.003892
0.0002914
0.00055
0.009624
0.0007777
0.0003518
7.715e-05
0.574
0.3355
0.4062
0.01086
0.0165
9.219e-05
0.4038
0.6134
0.001404
0.002829
0.01245
0.006842
0.007634
0.2789
0.0005758
0.01146
0.5638
0.0002123
0.02103
0.0003844
0.07096
0.00196
0.02256
0.3746
0.06777
0.3743
0.008952
0.001685
3.483e-06
0.004873
0.0001627
0.071
0.002551
0.009924
0.02358
0.02006
0.3692
0.5234
0.0193
0.3188
0.01309
0.0003838
0.002224
0.01531
0.000542
4.476e-05
4.267e-05
0.4165
0.5613
0.01023
0.3287
0.006061
0.02817
0.002266
5.815e-05
0.001861
1.069e-05
0.02043
9.047e-06
0.1839
0.004755
0.5755
0.01336
0.5389
0.008884
0.5572
0.607
0.004328
0.0004558
0.009326
0.03528
0.01551
0.01513
0.0001023
0.5517
0.01518
0.0004519
0.02039
0.003471
0.5741
7.094e-05
0.001296
0.0008783
0.01017
0.006956
0.0004483
0.003687
0.01006
0.007311
0.0001331
0.06025
0.000284
0.0008962
0.0001328
0.4197
0.005349
0.003614
0.0005225
0.1367
0.0001471
0.05467
0.0185
0.02575
0.07739
0.03305
0.5504
0.07316
0.009223
0.003589
0.01301
0.003512
0.3959
0.5608
0.3962
0.1784
0.04859
0.01095
0.0002785
0.0001539
0.0002552
2.83e-05
0.0001897
0.02072
0.6001
0.07023
0.008908
0.002595
0.6013
0.0104
0.4202
0.04263
0.07081
0.003941
0.0003232
0.02726
0.5593
0.01833
2.781e-05
0.002808
0.002727
0.3979
0.009196
0.3247
0.0216
0.0002134
0.3444
0.0003205
0.01541
0.0001636
0.04192
0.0004762
0.0008713
0.01113
0.5568
0.0004846
0.003071
0.009809
0.001246
0.008347
0.01117
0.09333
7.447e-05
0.1029
0.00982
0.0001074
0.009507
0.001077
0.02342
0.007518
0.0001598
0.0181
0.01226
0.03318
0.07713
0.00157
0.4861
0.01144
0.003089
0.001001
9.258e-06
0.3974
0.005333
0.04261
0.5162
0.006839
0.001665
0.01092
0.02942
0.004253
0.001852
0.0005807
0.000711
0.001597
0.01447
0.004308
0.06448
0.4103
0.3505
0.001004
0.004161
0.1239
0.2031
0.00215
0.002917
0.5863
0.01126
0.01337
0.009035
0.6118
0.0005217
0.1032
0.003305
0.6055
0.002612
0.00763
2.314e-06
0.001586
0.4175
0.01115
0.02582
0.0002593
0.3924
0.3069
0.3069
0.00744
0.0003699
0.06529
0.005527
0.0007971
0.3317
0.0005888
0.00231
0.0001032
0.009619
0.4198
0.003133
0.0009253
0.5744
0.003386
0.001256
4.704e-05
0.001045
0.07327
0.0009769
0.008627
0.01282
0.5785
0.006138
0.396
0.3611
0.001912
0.001501
0.5726
0.2608
0.000298
0.002907
0.0003138
0.003714
0.0003739
0.05887
0.01648
0.0002758
0.5146
0.06336
0.004607
0.01299
0.002334
0.01585
1.94e-05
0.002552
0.08492
0.006175
0.0006114
0.06553
0.005288
0.01331
0.009337
0.006359
0.5548
0.001378
0.5432
0.05358
0.3943
3.77e-05
0.0018
0.002821
0.0002539
0.0001073
0.5838
0.01255
0.004583
0.005347
0.0004425
0.0005255
0.01401
0.01055
1.392e-05
0.006296
0.001142
0.02343
0.002254
0.007165
0.5566
0.0008014
0.0004384
2.386e-05
0.01424
0.0008061
0.04444
0.009625
1.71e-06
0.3854
0.0005551
0.002916
0.5657
0.001112
0.01422
0.008695
2.382e-05
1.883e-05
0.004909
0.0002003
0.0098
0.01061
0.0001202
0.003829
0.002227
7.221e-05
0.5858
0.003032
0.0117
0.0006973
0.04008
0.005972
0.03547
0.08331
0.4116
0.002159
0.0012
0.5585
0.0004554
0.6067
0.007413
0.0001223
0.5693
0.002349
0.01865
0.4156
0.59
2.128e-05
0.00101
0.3631
0.3626
0.006771
0.001088
7.831e-05
0.0001467
0.0001175
0.1172
0.004953
0.002044
0.0005243
1.683e-05
0.02149
0.0005797
0.000968
0.0237
0.007505
0.01206
0.5734
0.4203
0.3165
0.3169
0.001585
2.058e-05
0.07996
0.01121
0.000174
0.01293
0.00201
0.2741
0.5865
0.002363
0.001045
2.494e-05
0.002941
0.0002901
0.07013
0.004673
0.0008919
0.0002663
0.166
0.000427
0.005465
0.01172
0.02799
0.5684
0.0004089
0.002611
0.002404
0.3581
0.008525
0.3949
0.003202
3.315e-05
0.1228
0.003398
0.002523
1.339e-05
0.02087
0.007679
0.2195
0.5747
0.002868
0.02595
8.445e-05
0.01191
0.002375
0.0134
0.0002262
0.06742
0.003139
0.02674
0.5067
0.5988
0.006428
0.0005549
0.00205
0.005178
2.204e-05
0.0001449
0.001324
0.0001433
0.000415
2.11e-05
0.01639
0.005902
0.00231
1.765e-06
0.272
0.00591
5.286e-06
0.02369
0.006906
0.02762
0.4192
0.02565
0.003932
0.0002806
0.5092
0.3721
0.0007667
0.0005961
3.813e-05
0.0006515
0.03475
0.125
0.4507
0.001139
0.007334
0.0001679
0.02276
0.003655
0.6096
0.002235
0.5064
0.003284
0.004985
0.01611
7.47e-05
0.07884
0.006782
0.001221
0.009945
0.4706
0.0001309
0.02887
0.001957
0.008095
0.2942
0.07688
7.741e-05
0.2949
0.000528
0.0009668
0.0004045
0.02221
0.005571
0.3531
0.5944
0.01006
0.01724
0.00247
0.05187
0.01322
0.002077
0.5718
0.03682
0.01604
0.003781
0.005134
0.02508
9.663e-05
0.0004411
0.4897
0.1881
0.0008583
0.003008
0.001037
0.0002974
2.556e-05
6.825e-06
0.01649
0.5856
0.003629
0.0003113
0.4097
0.003656
0.04139
0.5733
0.002101
0.5561
0.003052
0.008801
0.007337
5.448e-06
0.007833
0.01957
0.02246
0.575
0.0001101
0.0002415
0.5881
2.36e-05
0.001955
0.001554
0.01273
0.5754
0.4351
0.001177
0.03066
0.001596
0.02879
0.0001448
0.007122
0.005199
1.205e-06
0.002024
0.004316
0.00606
0.000222
0.004985
0.01734
6.912e-05
0.2899
0.001039
0.006468
0.006325
3.71e-05
0.04409
0.001109
0.005618
0.0004793
0.01016
1.972e-05
6.223e-05
0.4701
0.002902
0.0001865
0.002295
0.006427
0.01338
1.946e-05
5.481e-05
0.5949
0.003326
0.0002471
0.07676
0.003335
0.382
0.5857
0.05817
0.000201
8.878e-06
0.002713
0.002737
0.02229
0.4206
0.01739
0.5733
0.002431
0.09465
0.0002291
0.0306
0.004013
3.281e-07
0.3659
0.001754
0.4176
0.004646
0.0003868
0.03623
0.0005951
0.0002233
0.00063
0.005357
0.002009
0.0284
0.01849
0.1141
0.00102
2.08e-05
0.1396
0.4632
0.0008136
0.002225
0.0003623
1.092e-05
0.003822
6.992e-06
0.008828
0.001185
0.009807
0.05489
0.009622
0.002228
0.05715
0.0011
0.0002188
0.004273
2.671e-05
0.001069
0.008974
0.0002799
0.004272
0.0001369
0.005382
7.49e-05
0.004956
0.0154
0.004001
0.001274
0.02155
0.005424
0.05625
2.335e-05
0.1889
0.0009621
0.004855
0.003633
0.01469
3.223e-05
0.584
0.5835
0.2411
0.0008543
0.2472
9.297e-06
0.09522
0.06923
0.5304
3.743e-05
0.01823
0.001931
0.3279
0.005727
2.518e-05
0.0009732
0.0003169
6.403e-05
0.3375
0.3365
0.01307
0.5881
0.002297
0.04652
0.2515
0.0001459
0.01786
0.0001318
0.00826
0.006662
2.761e-05
0.4107
0.008965
0.6162
5.77e-05
0.001735
0.00348
0.04947
1.499e-06
0.009021
0.001239
0.1456
3.811e-06
0.0001488
0.0002294
0.002702
2.494e-05
0.001014
2.575e-05
0.2998
0.03091
0.01693
0.0002613
0.004149
0.5771
0.06401
0.001048
0.01148
0.003669
0.0005185
0.0007596
0.01109
0.005649
1.154e-05
0.01741
0.004438
0.4831
0.004282
0.003882
0.04995
0.02924
0.001714
0.002232
4.824e-06
0.02779
0.007084
0.0008073
0.5787
0.01526
0.5762
0.00189
0.005402
0.0004628
1.49e-05
0.01504
0.0002749
0.08777
0.00113
0.4987
0.1519
0.002002
0.003611
0.01259
0.4743
0.4744
0.597
0.0001271
0.002694
0.0003953
0.0004948
0.001044
0.00702
0.5615
0.553
0.001423
0.000379
0.4187
0.0005694
0.009843
0.0008423
0.5017
0.0002128
0.2665
0.5096
0.0134
0.5784
0.01888
0.07925
1.039e-05
0.01592
0.1068
0.001714
0.5692
0.0001978
0.01237
0.003422
2.602e-05
0.007203
0.0016
0.5263
0.002376
0.3803
0.002021
0.004576
0.0006792
0.087
5.102e-05
0.5755
0.006494
2.88e-06
0.03747
6.634e-05
0.004981
0.004837
0.5756
0.02425
0.0337
0.6504
0.01276
0.001591
0.001914
0.00343
9.221e-05
3.337e-05
4.42e-07
0.01405
0.1287
0.02214
0.0005217
0.5946
3.778e-05
0.01725
0.003306
0.0008741
2.024e-05
0.008373
0.0001911
0.001407
2.4e-05
0.01367
0.02937
0.1972
0.003205
0.3276
0.0138
0.005233
0.002691
0.0001961
0.02675
0.03616
0.1901
0.004654
0.01218
0.04503
0.004903
0.03417
0.005949
0.4539
0.4898
0.03069
0.2495
0.5851
0.004475
0.01024
0.4854
0.02826
0.1276
0.01032
0.009822
0.01876
0.0002266
0.001267
0.3223
0.589
0.3351
0.5289
0.01564
0.05582
0.003784
0.000149
8.17e-06
0.5241
0.001207
0.4795
0.001327
0.5096
0.006813
0.01858
0.5779
0.002423
0.02343
0.002346
0.5662
0.299
0.02047
0.5886
0.03088
0.04224
0.001296
0.008975
0.002019
0.0005445
0.002469
0.02496
0.04247
0.09097
0.0008599
0.02638
0.1515
0.5784
0.06364
0.006028
0.01333
0.4687
1.461e-05
0.0008261
0.002518
0.5883
0.5973
0.0002018
0.5746
0.0001354
0.009896
0.05038
0.6473
0.0001134
0.03304
0.01422
3.926e-06
3.187e-06
0.02644
0.01669
0.5821
0.0001622
0.01388
0.04183
0.004888
0.008191
0.5845
0.01352
0.001843
0.004785
0.00139
0.002816
0.005212
0.0001914
0.002152
0.085
0.1268
0.002053
0.4477
0.0006424
1.886e-05
0.01256
5.563e-05
0.003174
0.05298
0.007696
0.003074
0.5581
0.115
0.001124
0.006739
0.01104
0.001009
0.5865
0.003136
0.03533
0.006138
0.0002692
0.003424
0.007451
0.3809
0.002628
0.001103
0.0002381
0.001109
1.246e-05
0.001966
0.06149
0.08778
0.001961
0.000429
0.004864
6.291e-06
0.01921
0.008855
0.004407
0.001211
0.4138
0.02829
0.006877
0.003426
0.1668
0.001754
0.00354
0.002198
0.002298
0.02426
0.00482
5.361e-05
0.001791
0.03292
0.01884
0.0001979
0.004485
0.03384
0.4285
0.003485
0.02197
0.01551
0.4545
0.001384
0.03774
0.4191
0.03604
0.002599
0.002492
0.001173
0.02672
0.01451
0.0008765
0.001829
0.5636
0.000437
0.0001934
0.02671
1.422e-05
0.5205
0.0004096
0.0005418
0.002183
0.007517
0.003531
0.5923
0.1091
0.005575
0.02549
0.002004
0.0298
0.4124
0.0007205
0.01077
0.01281
0.01123
0.0199
0.574
0.06308
0.03539
0.002462
0.001378
0.00121
0.001198
0.0007376
0.3593
2.323e-05
0.00384
0.1194
0.005851
0.001626
0.0008273
0.001979
0.001317
0.05639
0.04232
0.00206
0.1615
0.004782
0.06788
0.426
0.001896
0.01376
0.02646
0.002963
0.1249
0.5694
0.01023
0.006369
0.02288
0.001712
0.002822
1.866e-05
0.001297
0.003762
0.002187
0.001947
3.639e-05
9.635e-06
0.0004838
0.08075
0.001141
0.5956
0.453
0.004238
0.002021
0.006336
0.001954
0.002849
0.03691
0.003292
0.002911
0.01442
0.001405
0.0007595
0.5811
0.2855
0.582
0.0001363
0.0004337
0.001585
0.0005908
0.5884
0.02746
0.005059
0.5747
0.008048
0.06022
0.0003514
0.004397
0.004009
0.01956
0.001254
0.007235
0.002426
0.5664
0.001601
0.01131
0.0001168
0.5752
0.5886
0.573
0.0005809
0.009309
0.0003128
0.0005035
0.0003775
0.0475
0.004897
0.5756
0.5752
0.001729
0.004735
1.012e-05
0.002733
0.01536
0.06959
0.5795
0.466
0.003363
0.005545
0.5772
0.03946
0.0002693
0.001213
0.04589
0.04491
0.431
0.0193
0.003605
0.000146
4.986e-05
0.001558
0.01615
0.0005421
0.03765
0.000185
0.00362
1.806e-05
0.0001624
0.02738
0.0005684
2.835e-05
0.002831
3.616e-05
0.0005135
0.03187
0.02117
0.0001183
0.04464
0.02612
0.08125
0.5473
0.1252
0.005634
3.94e-05
0.03165
0.001708
2.173e-05
0.004209
0.0009891
0.3761
0.08126
0.0005981
0.01988
0.002547
0.4195
0.003257
0.001167
0.0159
0.0005532
0.002209
0.0195
0.0006845
0.4197
0.003067
0.02853
0.006964
0.4617
0.0001084
0.0001008
0.0002768
0.001868
0.008566
0.009368
0.001505
0.5976
0.00273
0.004362
0.0122
0.002262
0.0004342
3.08e-06
0.01942
0.251
0.006996
0.572
0.01811
0.0006848
0.0005709
6.535e-05
0.001058
0.007835
0.3068
0.3062
1.268e-05
0.001419
0.0002922
0.001399
0.01132
0.5926
0.5868
0.4022
0.001629
0.386
0.4107
0.0001066
0.5909
0.0003807
0.01317
0.06401
0.01404
0.0037
0.02813
0.4285
0.0001052
0.014
0.005965
0.5802
0.02751
0.01136
0.0006327
0.00129
0.001551
0.04613
0.03851
0.003717
0.0002257
0.002822
0.6235
0.03028
0.04524
0.002584
0.01173
0.00129
0.001292
3.725e-05
5.633e-05
0.02695
0.0003831
0.2299
0.2659
0.0001959
0.01341
0.000652
0.02156
0.009291
2.217e-05
0.0008975
0.575
0.007539
0.06151
0.009025
0.001179
0.001248
0.4758
0.5734
0.001191
0.662
0.01031
0.01122
0.003749
0.4587
0.5346
0.5643
0.009509
0.1688
0.004829
7.664e-06
0.001269
0.0004061
0.0008687
1.73e-05
0.007619
9.863e-07
0.0004008
0.0003389
0.02587
0.004657
0.658
0.1216
0.001183
0.133
0.634
0.001928
0.3654
0.01314
0.5405
0.01701
0.003156
0.001576
4.758e-05
6.104e-05
0.002129
0.007216
0.004697
0.4197
7.096e-06
0.007631
0.0003825
0.422
0.005287
0.002615
0.0003722
0.5647
0.0001977
2.879e-05
0.5837
9.32e-05
1.749e-05
0.001149
0.00191
0.003896
0.1493
0.0009883
0.4436
0.03735
0.0005407
0.002011
0.004478
0.03834
0.00864
0.0007327
0.02032
5.698e-06
0.02443
0.002399
0.3847
0.5761
0.01268
0.00549
0.5279
0.01089
0.01245
0.003881
0.0008559
0.006016
0.04609
0.3605
0.008741
0.01377
2.766e-05
0.3499
0.1884
0.008532
0.01329
0.003853
0.01471
0.0001065
0.4202
0.01941
0.04768
0.002119
0.00672
0.0002029
2.2e-06
0.004607
0.5687
0.006437
0.04397
0.03223
0.6668
0.2548
0.001318
0.008485
5.76e-06
1.703e-05
0.0001537
0.6163
0.106
0.002501
0.006629
0.005447
0.5788
0.0001612
0.002784
0.0005785
0.0004224
0.0005347
4.214e-05
0.0005387
0.3865
4.168e-05
0.0195
0.0004488
0.02351
0.0005746
0.3866
0.5908
0.0009327
0.005941
0.1002
0.3814
2.6e-05
0.00395
3.767e-07
0.1439
0.0006845
0.02126
0.001743
7.395e-05
0.002824
0.009605
0.001967
0.003207
0.6191
0.002194
0.004217
0.000171
0.004053
0.001449
0.0007588
0.6289
0.6289
0.00147
7.425e-05
0.06306
0.003608
0.0007803
0.0009783
0.007554
0.08384
1.376e-05
0.5864
0.02441
0.5789
0.01035
0.006948
0.6008
0.5832
0.05021
0.001388
0.012
0.003079
0.00031
0.000654
0.0302
1.072e-05
0.01975
0.0008899
0.006772
7.987e-05
0.01152
0.001121
0.4621
5.741e-05
0.005599
0.01716
0.0004457
0.456
0.01066
0.5449
0.131
0.002198
8.301e-06
0.001588
0.001785
0.02207
0.0006449
0.1053
0.004186
0.4396
0.002993
0.007136
0.001198
0.01055
0.002861
0.5967
0.007771
0.06693
0.009992
0.006559
0.4061
0.0001917
0.006329
0.001833
0.001694
0.000452
0.02038
0.009355
0.01076
0.351
5.751e-05
0.4664
0.01227
0.003483
0.01046
0.03308
0.0229
0.5839
2.957e-05
0.002635
0.0002227
0.5794
5.329e-05
0.0004178
0.008681
0.0004654
0.002896
0.0006044
6.971e-05
0.6468
0.0005345
0.02759
0.1591
1.583e-05
0.004545
0.5905
0.004265
0.002396
2.28e-05
0.04183
0.5808
0.001083
0.0003785
0.01369
0.02275
0.006327
0.0005162
0.02868
0.003276
0.4986
0.004472
0.0175
2.223e-05
0.0008036
0.001417
0.5971
0.0004338
0.07903
0.0385
0.0003792
0.0009461
0.00502
0.001815
0.03084
0.001191
0.007406
0.0002772
0.122
0.0006876
0.2817
0.0006098
0.01188
0.0003214
2.491e-05
9.172e-05
0.0002876
0.01066
0.0003498
0.0009217
1.032e-05
0.06098
0.01441
3.525e-05
0.2985
0.00191
2.103e-05
0.0007667
0.005347
0.0003861
0.003589
0.001882
0.318
1.825e-05
0.0025
0.008058
1.787e-05
0.0004637
0.5754
1.422e-05
0.05623
0.0008123
3.499e-05
0.002517
0.001585
0.001214
0.4473
0.0243
0.005837
0.5583
0.351
0.00817
0.06906
2.221e-05
0.0001367
0.002012
8.318e-05
0.0008697
0.001178
0.0003511
0.04686
0.005073
0.01591
0.02541
5.196e-06
0.4463
0.5873
0.0004985
2.168e-05
0.01388
2.123e-05
0.02507
0.005807
0.008318
0.5744
0.001509
0.4525
0.0001062
0.0007647
0.06805
0.001179
0.000427
2.976e-05
0.07511
0.002292
0.04685
0.004486
0.02132
0.4357
0.1921
0.000876
0.5904
2.117e-06
0.6347
0.001628
0.6204
0.002927
8.135e-06
4.218e-06
0.001652
0.0007466
0.1302
0.0002606
0.003804
0.01077
0.006588
4.436e-06
0.3838
9.835e-05
0.002826
0.586
7.645e-07
0.02695
0.2125
0.0001491
0.07118
5.881e-05
0.0007144
0.1727
0.009754
0.0155
0.00399
0.07713
0.2086
0.0002039
0.002803
0.4205
0.05494
0.003135
0.004148
5.357e-05
0.6525
2.258e-05
0.01386
0.4088
2.126e-05
0.008032
0.01907
0.4565
0.4569
0.3498
0.03057
0.01002
0.0002575
0.005667
0.3294
0.5931
0.001733
0.0003588
0.008774
0.03217
0.4573
0.5868
0.01891
2.802e-05
0.009587
0.02972
0.006063
0.5617
0.05061
2.493e-05
0.4067
6.008e-06
0.4933
0.581
0.461
0.02539
0.4442
0.003301
0.5638
1.76e-05
0.0008714
0.00105
0.001315
0.02438
0.01991
4.802e-06
0.01823
0.000808
0.01081
0.05118
0.0003276
0.001367
0.0003344
1.829e-05
0.002266
1.734e-05
0.04497
0.005458
0.006144
0.07685
0.03112
0.0008836
0.0416
0.02911
0.001963
6.601e-05
0.3193
0.04085
0.1423
0.1473
0.01677
0.002359
0.637
1.396e-05
0.01317
0.6205
0.008991
0.0132
3.947e-05
0.005499
0.001365
6.484e-05
0.0001704
0.4169
0.01195
0.009103
0.01332
0.002648
0.0003912
0.02449
0.008236
0.04592
0.008561
0.0001038
0.0001176
0.0005983
0.004541
0.00335
7.162e-07
0.008666
0.01024
0.0009036
0.001116
0.005426
0.001112
0.02629
0.002472
0.5797
0.009634
0.5744
0.5511
0.0003754
0.001299
0.003422
0.5608
0.01854
0.0134
1.672e-05
0.5054
0.5054
0.005199
0.002112
5.238e-06
0.001792
0.001633
0.002255
0.001468
0.002007
0.6112
0.01693
0.007534
0.5813
7.994e-05
0.0002561
0.0792
0.01458
0.09687
0.01296
0.003305
0.3591
0.4285
0.005827
0.002007
0.3708
0.3697
0.001268
0.0004164
0.001391
0.03502
0.0261
0.4916
0.02567
2.833e-05
0.001317
0.003913
0.0001393
4.388e-05
0.003163
0.0001853
0.003381
0.002
3.876e-05
0.00149
0.01331
0.5729
1.367e-05
1.949e-05
0.001731
0.00429
0.03665
0.1231
2.668e-05
0.0001364
0.04284
0.0001056
0.002704
0.001957
0.4077
0.001149
1.846e-05
0.0003383
0.04588
0.0003669
0.001782
2.843e-05
0.006855
0.001558
0.04804
0.5905
6.857e-05
0.4725
0.02441
0.0001538
0.0002941
0.1651
0.01732
0.002315
0.02321
0.04706
0.0007322
2.218e-05
0.000572
0.1896
0.004531
0.5863
0.01174
0.001038
0.0001615
0.002273
0.001569
0.001658
0.004936
0.1518
0.3883
2.521e-05
0.003936
0.0006996
5.344e-05
0.0007468
0.03951
0.01022
0.002141
0.03759
0.0009938
0.01783
0.0001662
0.0001345
0.0002982
0.007686
0.3777
5.611e-05
0.3867
0.001513
0.0004484
0.0005111
0.4211
0.07413
0.01084
2.051e-05
0.003079
0.001324
0.003698
0.004384
0.009065
2.205e-05
0.0001688
0.0002449
0.0005751
8.933e-05
0.007183
0.002805
1.882e-05
0.003903
0.003762
0.01581
0.392
0.3057
0.01817
0.006649
0.5285
2.122e-05
2.236e-05
0.5779
0.002875
0.02137
0.0009237
0.008703
0.002665
0.007292
0.1364
0.005209
0.0006154
0.0197
0.5671
0.001323
0.002643
0.0068
0.0003158
0.002242
0.003047
0.0002165
1.691e-05
0.006596
0.0008444
1.806e-05
0.3913
0.4179
0.01442
0.008076
0.5741
0.01426
0.003755
0.00468
5.517e-05
0.0003955
0.01439
0.4542
0.3187
0.3889
0.37
0.0002426
0.5812
2.09e-05
2.055e-05
0.609
0.03299
0.002852
0.002448
0.0006366
0.00343
0.001244
0.5775
0.0003603
0.4788
1.727e-05
0.006216
0.0001832
0.01226
5.081e-05
0.0002552
0.00619
0.5754
0.004513
0.007739
0.01256
3.278e-06
0.007925
0.01229
0.02651
0.0009157
0.001062
0.002442
0.001928
0.002907
0.4173
0.0009072
0.4955
0.4114
0.1098
0.5652
0.0344
0.03928
1.174e-06
0.3939
0.006062
0.0004855
0.5691
0.5729
0.0149
0.04998
0.01533
0.004699
0.0009202
0.007775
0.02208
0.5304
0.001873
0.01944
0.00372
0.5619
0.001573
1.681e-05
0.0003286
0.006819
0.4433
0.4445
0.5951
1.322e-05
0.0001746
0.007421
0.4823
0.0001098
0.3384
0.02049
0.09523
0.5992
0.027
0.003123
0.004811
0.01168
4.773e-05
0.0005441
0.009515
0.0003814
0.3979
0.0007637
0.01664
0.4165
0.01713
0.04862
0.003993
0.0003815
0.003811
0.0005407
0.0005407
0.00411
0.0007363
0.004605
0.004251
0.07242
0.0002917
0.003139
0.00238
0.004116
0.0999
0.0039
0.004167
0.5744
0.005615
6.892e-06
0.006466
0.0004776
0.01136
0.0005941
0.003273
0.004488
0.004495
0.5837
0.0003778
0.02387
2.371e-05
0.01066
0.0005093
0.009904
0.0388
0.007747
0.01914
0.004393
0.005947
0.001046
0.009504
0.02227
0.4298
0.4297
0.1358
0.02457
0.11
0.008317
0.001906
0.001299
0.0004054
0.02861
0.02158
1.116e-05
0.003952
0.02379
0.5955
0.001996
0.001819
0.6625
0.0001615
0.02215
2.177e-05
0.0002459
0.04711
0.000711
0.6144
0.003886
0.001254
0.03016
0.002119
0.5401
0.0001926
5.782e-06
0.3359
0.002882
0.002365
0.0006191
0.001376
0.03892
0.5958
0.001299
0.004746
0.001304
0.003269
0.001262
0.007781
1.579e-05
0.001414
0.0008566
0.231
0.004649
2.105e-05
4.723e-06
2.264e-05
0.07004
0.01997
0.3917
0.6114
0.4521
0.5752
0.6
0.1466
0.000181
1.272e-05
0.004376
0.00836
0.001016
0.0002579
0.005673
7.836e-06
0.02241
0.007468
0.02756
0.02703
0.0005684
0.5144
0.5721
0.2699
0.5019
0.5743
0.006654
2.129e-05
0.3357
0.000728
0.2941
0.000109
0.2683
7.872e-05
0.003857
0.0009186
0.001374
0.3142
0.05315
0.4666
0.007771
0.002145
0.02125
0.354
0.0003743
0.6009
0.5904
0.006619
0.007309
0.4895
0.1335
0.01317
0.0004477
0.09411
0.5932
0.5773
0.009098
0.5773
0.003181
0.0005107
0.01686
0.003229
0.07365
0.01417
1.629e-05
0.03042
0.02526
0.0352
0.008896
0.003353
0.3077
0.02012
0.4206
0.005752
0.001696
0.07203
3.404e-05
0.006772
0.06835
0.0001125
0.006671
0.5595
0.6299
0.0001819
0.5799
0.0004628
0.6113
2.648e-05
0.0119
0.005416
0.007263
0.004404
0.009587
0.0001396
1.217e-05
0.001885
0.0006777
0.4237
0.0009509
0.006445
0.3054
0.01287
0.0004953
0.001979
0.0003124
0.008745
0.003974
0.01334
0.07825
0.2401
0.007274
0.0005224
3.486e-05
0.5685
0.03553
1.465e-05
0.005799
0.3342
0.01026
3.319e-05
0.01498
0.001096
0.007291
0.5792
0.01089
0.0214
0.5787
0.0001032
0.001023
0.04224
0.03549
0.5773
0.001293
0.0004111
3.545e-05
2.178e-05
3.372e-05
0.0003059
0.02017
0.08345
0.0004125
0.0002636
0.001372
0.006232
0.006333
0.001009
0.005219
4.467e-06
0.003331
0.0004378
0.002244
0.002086
0.0002414
0.06392
0.5666
0.5884
0.002775
0.004322
0.002291
0.02031
0.08807
0.0003368
0.00405
0.005795
0.6312
0.02212
8.796e-06
0.01289
0.2437
0.001189
0.6156
0.005817
0.02941
0.0007305
0.0006279
0.5749
0.0004563
0.0007541
0.004234
0.0004429
0.02472
0.01433
0.00305
0.002026
0.0005903
0.3147
0.0006957
0.04348
0.166
0.01185
0.3401
0.001198
0.009017
0.005973
0.01465
9.418e-06
0.00874
0.002064
0.01077
0.003093
0.0003795
0.0002196
0.5395
0.001045
0.0007846
0.0001802
0.001171
0.001312
0.003843
0.04239
0.007614
0.002745
0.000203
0.1256
0.5073
0.0007987
0.01522
4.589e-06
0.1311
2.581e-05
0.02401
0.0319
0.348
0.6428
0.002106
0.001524
0.01254
0.0005603
1.527e-05
0.5643
0.02292
0.0003111
0.01288
0.0006174
0.04547
0.01148
0.04105
0.000911
0.07531
0.5745
0.0002671
0.0004953
0.02834
0.0001628
7.868e-05
0.002783
0.001235
0.1442
0.01312
0.008396
0.007128
0.01903
0.001026
0.008051
0.03424
0.004615
0.00199
0.003215
0.002664
0.2871
0.2878
0.01709
0.003274
0.001019
0.002382
0.0004241
0.0001742
0.000618
0.0004911
0.001945
0.002568
0.0001908
0.0004356
0.6205
3.193e-05
0.03132
0.0007449
0.02049
0.5249
0.0005398
0.02521
7.976e-06
0.5766
1.088e-05
1.45e-05
0.5741
0.01964
0.0004432
0.003327
0.006038
0.07386
0.0006994
0.0005369
0.02096
0.01326
0.01108
2.975e-05
0.0007769
0.007817
3.249e-05
0.0007976
0.488
0.001185
0.0003297
0.5798
0.5552
0.1842
0.01621
0.02145
0.01161
0.01049
5.27e-05
0.01207
0.004343
0.08135
0.4004
0.000716
0.347
1.044e-05
7.405e-05
0.01099
0.0009536
0.005659
3.251e-05
4.382e-06
0.02538
0.02329
0.01788
0.07295
0.002403
0.001219
0.1698
0.3982
0.003641
0.007904
0.007889
0.002332
0.002338
0.003268
0.001209
0.0001411
0.4237
0.00413
2.095e-05
0.001791
0.5734
0.002048
0.007435
0.009384
0.007599
0.001207
0.0001581
2.51e-05
0.5763
0.004473
0.006353
0.001429
0.003607
0.3423
0.02032
0.0002326
0.005043
0.03488
0.002588
0.0002507
0.0006279
0.0371
0.0007317
0.007479
8.075e-07
0.601
0.0001653
0.0002791
2.025e-05
0.3211
0.04786
0.5912
0.0568
0.5748
0.4865
0.5573
0.001282
0.005066
0.003997
0.002099
0.373
0.5882
0.0002957
0.5779
0.02817
0.575
1.121e-05
3.174e-05
1.219e-05
0.001719
0.3855
0.0008856
0.1551
0.002763
0.0002181
0.3976
0.01246
0.2083
0.4201
0.0004906
0.196
0.0008751
0.0003823
0.3411
0.002852
0.00226
0.0007117
0.004777
0.5419
0.02451
0.003039
0.009778
0.0004849
0.002324
0.001894
3.714e-06
0.0002444
0.0833
0.03245
0.003552
0.008896
0.02787
0.006277
0.001399
0.00648
0.00125
0.009415
0.0002196
0.001573
0.02736
0.0008019
0.001193
0.4194
0.002766
0.3216
0.3225
0.4079
1.505e-05
0.02729
0.03488
0.002538
0.445
0.5779
9.931e-05
0.003431
0.003119
0.005197
0.006665
0.6044
0.007879
0.006679
0.004663
0.005521
0.008027
0.001254
0.5593
0.04038
0.05687
0.01597
0.01598
0.03966
0.00111
0.06927
0.01255
0.0005138
0.0005846
0.002057
0.004382
9.091e-07
0.01555
0.02825
2.447e-05
0.04449
0.06177
0.0009496
0.01201
0.005024
9.519e-06
0.5912
0.3707
0.005619
0.001452
0.001227
0.003773
0.02186
0.0005031
0.000672
0.01022
8.235e-05
0.002182
0.01529
0.0006171
0.5294
0.0003655
0.03626
0.01045
0.001556
6.886e-07
0.02803
0.3972
0.001582
0.00737
0.5853
0.03656
0.01209
0.0003278
0.008342
0.02713
0.009765
0.02055
0.0001436
0.002086
8.681e-06
0.01646
4.605e-06
0.3902
0.009319
0.01004
0.0499
0.1259
0.3982
1.465e-05
0.01073
0.4054
0.00139
0.011
2.35e-06
1.662e-05
0.0002956
0.3287
0.001914
0.5481
0.01717
0.5877
0.009359
0.003244
0.01004
0.000589
0.1741
0.002621
0.4912
0.2783
0.5831
0.0005767
0.002615
0.01126
0.5768
0.006967
0.002889
0.0009446
0.01306
0.2892
0.001593
0.01637
0.0004734
2.547e-05
0.0022
0.2947
0.09218
0.02162
0.001031
0.3336
0.007958
0.0005682
0.0005948
0.0004814
0.008725
0.0001076
0.005269
0.07103
0.008727
9.438e-05
0.1759
0.0004032
0.000437
0.0001212
0.03133
0.000361
0.008126
0.02851
0.000207
0.558
0.0001126
0.0005096
0.0003376
0.3803
0.001558
0.006049
0.0005973
0.001028
0.0008781
0.07158
0.008069
2.554e-05
2.177e-05
0.009051
0.0014
0.02742
0.1718
0.002658
0.5288
0.5766
0.000661
0.02881
0.4186
0.004089
0.001057
0.5779
0.00324
0.5514
0.02296
0.002172
0.007115
0.0005584
0.4183
0.003652
0.002611
0.02438
0.0002063
0.5957
0.005787
0.06374
0.6262
0.006192
0.02216
0.5763
0.3333
0.02172
0.002357
9.594e-06
1.843e-05
0.007336
0.04458
0.5525
0.001504
0.0419
0.002021
0.01174
0.5811
0.07825
0.006417
0.5742
0.5756
3.098e-05
0.09803
0.4275
2.122e-05
0.002238
0.003292
0.002546
0.343
0.5694
0.0001054
0.02627
7.582e-05
0.01451
0.2446
0.001907
0.003344
0.006947
0.01414
0.02023
0.01141
0.0001492
0.0001906
0.003139
0.0003895
0.007571
0.003216
0.001307
0.002309
0.007272
0.01574
1.391e-05
3.257e-05
0.002564
0.0006311
0.005665
0.5617
0.00529
0.0001988
0.6085
0.0002433
1.522e-05
0.002746
0.01892
0.001141
0.0001996
0.06851
0.3847
0.0002836
0.4489
0.001628
0.01034
0.3094
0.3103
0.007048
0.03644
1.929e-05
0.0002181
0.007748
0.003804
0.006837
0.005088
0.0197
0.0005059
0.244
0.005897
1.752e-05
0.0007687
0.5793
0.002319
0.02343
0.002998
0.3588
0.002689
0.011
5.195e-05
0.006614
2.647e-05
2.406e-05
0.6207
0.003835
0.01688
0.003342
0.0004349
0.0009565