/*--------------------------------*- C++ -*----------------------------------*\
| =========                 |                                                 |
| \\      /  F ield         | OpenFOAM: The Open Source CFD Toolbox           |
|  \\    /   O peration     | Version:  v2012                                 |
|   \\  /    A nd           | Website:  www.openfoam.com                      |
|    \\/     M anipulation  |                                                 |
\*---------------------------------------------------------------------------*/
FoamFile
{
    version     2.0;
    format      ascii;
    class       volVectorField;
    location    "5";
    object      U;
}
// * * * * * * * * * * * * * * * * * * * * * * * * * * * * * * * * * * * * * //

dimensions      [0 1 -1 0 0 0 0];


internalField   nonuniform List<vector> 
118995
(
(-2.428e-05 -0.0002964 0)
(0.005812 0.02199 0)
(0.0339 0.0253 5.178e-22)
(0.04453 0.02359 0)
(0.02059 0.01191 -1.451e-23)
(0.04101 0.01297 -3.33e-23)
(0.02939 0.02226 5.042e-22)
(0.006206 0.0001126 -1.126e-23)
(0.005587 0.02153 3.006e-22)
(0.02035 0.02304 0)
(0.01459 0.02547 1.528e-22)
(0.05886 0.01755 1.429e-23)
(0.0121 0.02446 0)
(0.02274 0.02702 -5.541e-22)
(0.001762 -0.00566 -3.967e-22)
(0.001437 -0.004832 -1.985e-22)
(0.004524 -0.001073 -1.429e-23)
(0.00353 0.0213 0)
(0.005657 0.000103 0)
(0.005429 -0.001178 6.763e-24)
(0.02479 0.02519 -1.709e-23)
(0.0001779 0.0006228 1.567e-23)
(9.438e-05 0.000423 -5.026e-24)
(-0.0002405 -0.001705 0)
(0.005378 -0.001728 0)
(0.7198 0.3333 1.399e-22)
(0.01474 -0.002659 0)
(0.7074 -0.05391 -4.369e-22)
(0.2781 -0.09718 -3.747e-22)
(0.0004882 0.001329 -2.362e-23)
(0.4942 -0.09981 7.812e-22)
(0.6341 0.4866 1.553e-22)
(1.008 -0.01028 9.985e-21)
(0.2988 -0.1385 1.658e-22)
(0.0002513 0.000888 -4.475e-23)
(0.3926 -0.004172 -2.354e-22)
(0.1537 -0.07573 -5.593e-22)
(0.6705 0.0177 -2.475e-22)
(0.4842 -0.007853 2.518e-23)
(0.915 -0.03598 -2.07e-23)
(0.689 -0.03604 0)
(0.5953 -0.01079 -1.475e-22)
(0.9646 0.01005 -6.141e-22)
(0.2709 -0.0492 -1.662e-21)
(0.4858 -0.09743 4.78e-22)
(0.2789 -0.05327 1.624e-21)
(0.2638 -0.05254 -4.952e-21)
(0.4262 0.03967 1.881e-23)
(0.5973 -0.0111 6.227e-23)
(0.4804 0.004521 -9.823e-23)
(0.2779 -0.04908 -2.564e-21)
(0.2638 -0.05067 0)
(0.6872 -0.1643 -1.899e-21)
(0.4848 -0.001391 -1.59e-22)
(0.7585 0.01762 -2.026e-21)
(0.2637 -0.04832 1.57e-21)
(1.009 0.0002465 -1.543e-20)
(0.9212 0.3225 1.653e-22)
(0.4931 -0.007138 4.008e-23)
(0.01018 -0.002549 0)
(0.2706 -0.05063 8.94e-22)
(0.6576 -0.1133 0)
(0.6471 -0.1009 7.162e-22)
(0.8643 0.2385 0)
(1.009 0.01452 3.946e-21)
(0.3604 -0.04634 0)
(0.0006319 0.002988 -5.382e-24)
(0.8001 -0.06861 -1.974e-22)
(0.7694 -0.262 -3.185e-22)
(0.4289 0.03928 0)
(0.2805 -0.04844 -1.573e-21)
(0.598 0.08979 3.135e-21)
(0.8385 0.1009 -6.912e-22)
(0.00539 0.04403 -4.298e-21)
(0.3084 -0.1297 0)
(0.3058 -0.136 0)
(0.3121 -0.1245 9.234e-22)
(0.7081 -0.03755 0)
(0.3149 0.08507 0)
(0.3779 0.05113 8.072e-23)
(0.5678 -0.09788 3.662e-22)
(0.9158 -0.03609 -9.498e-22)
(0.8447 0.103 7.275e-22)
(0.3774 -0.01385 9.059e-22)
(0.8691 -0.05903 1.199e-22)
(0.9359 0.05617 -8.436e-22)
(0.9846 0.3398 2.873e-22)
(0.9679 -0.01627 2.471e-21)
(0.357 -0.04126 3.098e-21)
(0.6736 -0.09172 0)
(0.9654 0.01094 0)
(1.014 0.1819 0)
(1 0.01356 -1.713e-23)
(0.5504 -0.03081 0)
(0.9992 0.05066 0)
(0.6193 -0.08773 2.783e-22)
(0.3801 -0.01747 -8.748e-22)
(1.006 0.01913 4.533e-21)
(0.6157 -0.2895 -5.333e-22)
(0.6325 -0.01443 -3.101e-23)
(0.9773 -0.02058 0)
(0.3558 -0.1227 0)
(0.6539 -0.002166 2.929e-21)
(0.5814 -0.08298 -1.673e-22)
(0.7438 0.3475 0)
(0.8987 -0.148 0)
(0.6754 0.0544 0)
(0.6529 -0.1127 -1.07e-21)
(0.9462 0.1354 -2.291e-22)
(0.9549 0.01502 -3.652e-22)
(0.8697 -0.06053 -4.178e-22)
(0.6806 0.02494 6.562e-22)
(0.6976 -0.05569 -3.562e-23)
(0.6344 -0.01429 0)
(0.3458 -0.09492 -3.125e-22)
(0.8827 0.2425 0)
(0.546 -0.05319 0)
(0.4288 0.001605 0)
(0.616 -0.04219 0)
(1.011 0.0013 -1.279e-20)
(1.007 0.02679 1.165e-21)
(0.3139 0.1169 0)
(0.9245 0.1986 1.8e-22)
(0.6231 -0.02131 5.169e-23)
(0.8977 -0.07853 6.562e-22)
(0.6278 0.0112 -1.331e-21)
(1.002 -0.0209 -2.282e-21)
(1.001 -0.0004758 -1.057e-21)
(1.004 0.0007207 0)
(0.604 -0.08679 -9.729e-22)
(1.001 0.0136 0)
(1.001 -0.000686 2.683e-21)
(0.45 -0.09091 -3.509e-22)
(0.5252 -0.003236 -9.298e-23)
(1.001 -0.0004612 0)
(1.004 0.0007109 1.659e-22)
(1.009 0.168 0)
(0.7182 -0.0549 7.899e-22)
(0.9161 -0.06309 0)
(1.012 0.001188 0)
(0.5639 -0.04793 0)
(1.008 -0.01048 -1.051e-20)
(0.6244 -0.02156 0)
(0.6244 -0.01512 3.035e-21)
(0.7473 -0.009264 -1.443e-20)
(0.03531 -0.07406 -4.353e-23)
(0.5879 -0.1023 8.472e-22)
(0.9156 0.3189 0)
(0.6794 -0.09128 -3.074e-22)
(1.015 0.0006219 2.161e-20)
(0.8037 -0.07024 1.773e-22)
(0.04106 0.01319 5.039e-23)
(0.101 0.3111 -1.204e-21)
(0.38 0.05079 -1.8e-23)
(0.6492 -0.1008 2.874e-22)
(0.7809 0.4111 3.461e-22)
(0.412 -0.1147 2.014e-21)
(0.4882 -0.001862 1.445e-22)
(1.007 0.0001157 1.247e-20)
(0.1973 -0.04101 0)
(0.851 -0.1935 -7.769e-22)
(0.002086 0.009866 -3.884e-24)
(0.6131 -0.0176 -9.014e-23)
(0.702 -0.06843 7.945e-23)
(0.9509 -0.09642 -1.627e-21)
(0.8936 -0.005621 -1.036e-21)
(0.4763 0.0197 1.432e-22)
(0.8406 0.1129 3.072e-22)
(0.5874 -0.1215 -2.605e-23)
(0.4587 -0.09126 -8.488e-23)
(0.6132 -0.2822 0)
(0.4274 -0.06837 0)
(0.704 -0.2262 -3.625e-22)
(0.6622 -0.1129 0)
(0.9986 0.04319 -4.074e-22)
(1.003 0.002442 -1.498e-20)
(0.7525 0.0186 2.003e-21)
(0.7396 -0.1043 0)
(0.3797 -0.07594 -1.007e-23)
(0.6072 -0.07582 -3.854e-22)
(0.6577 0.5064 0)
(0.4654 -0.07488 1.104e-21)
(0.7238 -0.02355 0)
(0.5484 -0.3207 6.053e-22)
(0.7265 -0.001966 0)
(0.6199 0.02572 -2.481e-22)
(0.4593 0.1949 0)
(1.008 0.01096 0)
(0.4196 -0.09965 -3.651e-22)
(0.9473 -0.0129 -3.602e-21)
(0.8506 -0.1922 0)
(1.007 0.01887 -2.244e-21)
(0.7482 -0.08664 -1.011e-21)
(0.6416 -0.01539 -1.84e-21)
(0.6998 -0.05611 7.954e-23)
(9.625e-05 0.0001525 0)
(0.4192 -0.08597 0)
(1.009 -0.01716 1.152e-20)
(0.6156 -0.08634 -2.816e-22)
(0.06852 0.2532 0)
(0.6224 0.02557 4.165e-22)
(0.4626 -0.009421 2.167e-22)
(0.971 -0.01316 -6.291e-22)
(0.3221 -0.07795 0)
(0.7105 -0.05555 8.406e-23)
(0.6747 0.01665 2.628e-22)
(0.266 -0.06158 -1.311e-21)
(1.008 0.02652 -2.221e-21)
(0.2547 0.01124 -1.669e-22)
(0.6123 -0.08566 -3.3e-22)
(0.223 0.006605 2.566e-22)
(0.8681 -0.1839 1.052e-22)
(0.9856 -0.04316 0)
(0.721 -0.09057 0)
(0.483 -0.007592 5.383e-23)
(0.01407 0.04675 3.751e-22)
(1.022 0.007951 0)
(0.8177 -0.09593 0)
(0.7443 0.01748 -3.872e-22)
(0.4413 0.3678 1.916e-21)
(0.5455 -0.3198 -9.716e-23)
(0.5361 0.01369 1.535e-23)
(0.9966 -0.005577 -2.118e-21)
(0.384 -0.07709 1.059e-21)
(0.9077 -0.02079 -3.877e-23)
(0.7468 -0.3068 0)
(0.7527 0.00956 -4.109e-22)
(0.3615 -0.07224 -6.522e-22)
(1.001 -0.002935 -2.136e-22)
(0.7793 -0.2772 -2.113e-22)
(0.7713 -0.09779 0)
(1.002 -0.01994 1.815e-21)
(0.646 -0.1046 3.316e-22)
(0.6079 -0.0202 0)
(0.7947 -0.09164 3.585e-22)
(0.6385 -0.2112 2.575e-22)
(0.7951 -0.05069 -3.76e-23)
(0.4704 -0.07569 -2.181e-21)
(0.4302 0.006402 0)
(0.2739 0.007764 -1.492e-22)
(0.7799 -0.2247 -3.8e-22)
(0.774 -0.2638 5.746e-22)
(0.7564 -0.1783 -4.71e-22)
(0.6845 -0.05274 -5.383e-23)
(0.4633 0.006315 0)
(0.737 -0.01502 -7.821e-22)
(0.9396 0.05664 5.156e-22)
(0.7323 -0.01809 0)
(0.5337 0.01379 -1.084e-22)
(1.001 0.001832 2.751e-20)
(0.7 -0.08624 0)
(0.8732 -0.1802 9.466e-22)
(0.8242 -0.05541 1.399e-23)
(0.4923 -0.09834 -8.656e-23)
(0.4331 -0.09734 0)
(0.7091 0.1176 5.269e-22)
(0.9964 -0.005434 0)
(1.016 0.00607 0)
(0.09029 -0.02347 0)
(1.009 -0.01726 -8.066e-21)
(0.6638 -0.05814 0)
(1.009 -0.0009265 -1.19e-20)
(0.5742 -0.09916 0)
(0.5284 -0.00378 6.421e-24)
(0.6358 -0.02063 0)
(0.5552 -0.1559 2.24e-21)
(0.4464 0.01625 9.001e-23)
(0.4893 -0.008012 -6.987e-23)
(0.9778 0.03975 -1.015e-21)
(0.5443 -0.05183 0)
(0.3112 0.007138 -1.715e-22)
(0.7768 0.543 0)
(0.9005 -0.1468 -1.252e-21)
(0.6405 -0.1049 0)
(0.3537 0.001452 -4.377e-23)
(0.3858 0.01072 1.797e-22)
(0.704 -0.1113 0)
(0.448 0.02754 1.134e-22)
(0.4027 -0.07679 0)
(0.5461 -0.1282 -3.182e-22)
(0.601 -0.09485 -1.319e-21)
(0.2953 0.1631 0)
(0.5689 -0.002527 2.758e-22)
(0.4576 -0.09242 4.723e-22)
(0.6888 -0.1579 1.877e-21)
(0.06674 -0.1382 -2.266e-21)
(0.1153 -0.005009 0)
(1.009 0.0007648 -1.6e-20)
(0.8597 -0.06275 0)
(0.5401 0.01191 2.162e-22)
(0.9778 -0.02 -3.065e-21)
(1.008 0.01976 2.311e-21)
(0.7053 -0.3081 8.713e-22)
(0.657 -0.04139 1.402e-23)
(0.5296 -0.1009 8.946e-22)
(0.7126 -0.05651 -1.22e-22)
(0.5128 -0.1019 0)
(0.4971 -0.1005 -3.432e-22)
(0.4762 -0.01049 0)
(0.5114 -0.01503 -9.041e-23)
(0.354 -0.08705 -2.593e-22)
(0.5056 -0.003338 3.574e-23)
(0.0002938 0.0004565 -2.215e-23)
(0.7799 -0.2769 1.092e-22)
(0.5939 -0.09146 -5.323e-22)
(0.05228 0.003865 8.896e-25)
(1.016 0.00645 -2.589e-21)
(0.7958 -0.09362 0)
(0.5623 -0.1096 -5.712e-22)
(0.09147 0.01639 6.78e-22)
(0.4351 0.001058 0)
(0.4024 -0.09176 -3.076e-22)
(1.006 0.0002638 -1.845e-21)
(1.004 -0.0001695 2.139e-21)
(0.9174 0.02345 -1.66e-22)
(0.907 0.1149 4.059e-22)
(0.7523 -0.08629 1.163e-21)
(1.006 0.0002854 1.748e-21)
(1.004 -0.0001773 -2.268e-21)
(0.7628 0.5246 -2.985e-22)
(0.5947 -0.1183 -4.889e-22)
(0.9985 0.04242 0)
(0.7412 -0.1047 0)
(1.001 -0.0006181 -1.553e-21)
(0.2179 0.005712 7.009e-23)
(0.4295 0.006245 0)
(0.9693 -0.03348 0)
(0.4274 -0.07195 7.752e-22)
(0.6087 0.09333 -3.183e-21)
(0.7422 -0.06961 1.988e-24)
(1.009 0.0008212 1.495e-20)
(0.7507 -0.08911 0)
(0.9506 -0.09564 1.696e-21)
(0.5351 0.03042 -7.267e-23)
(0.9859 -0.03768 0)
(0.8214 -0.09697 2.593e-22)
(0.4508 0.4062 0)
(0.9217 -0.00517 -5.71e-22)
(0.6073 -0.1122 3.945e-22)
(0.8678 -0.1852 -9.459e-23)
(0.6557 -0.04633 -8.642e-23)
(0.6462 -0.1038 1.561e-22)
(0.389 -0.07357 -6.044e-22)
(0.3517 0.1347 0)
(0.5532 -0.03096 -3.191e-23)
(0.982 0.341 -1.099e-22)
(0.9474 0.1331 -4.385e-22)
(1.002 -0.0006781 -4.507e-21)
(1.009 -0.000878 1.191e-20)
(0.1943 0.00578 3.085e-22)
(0.5015 -0.06145 -5.255e-22)
(0.2552 0.005881 1.775e-22)
(0.8255 -0.1287 -4.048e-22)
(0.5283 -0.00394 -8.432e-23)
(0.6458 -0.03548 -2.024e-23)
(1.007 0.07281 0)
(0.8226 -0.05441 7.579e-23)
(0.8585 -0.05221 -4.766e-24)
(0.8658 -0.1613 6.354e-22)
(0.9991 0.05066 0)
(0.9079 -0.05622 1.067e-20)
(0.9231 -0.0008586 1.367e-21)
(0.8659 -0.03429 1.711e-21)
(0.4094 -0.0053 0)
(0.7481 -0.3081 6.961e-22)
(0.6931 -0.05818 0)
(0.7022 -0.09431 3.939e-22)
(0.3523 0.002264 4.33e-23)
(0.4506 0.01671 9.595e-23)
(0.9999 0.001599 1.766e-20)
(0.7289 -0.02469 0)
(0.5596 -0.1058 -4.065e-23)
(0.9296 0.1948 -4.339e-23)
(0.5094 -0.1043 0)
(0.5453 -0.1035 0)
(0.9836 -0.02421 -6.743e-21)
(0.6711 -0.06467 0)
(1.001 0.001606 -3.826e-20)
(0.8764 -0.05206 7.945e-22)
(0.8283 -0.2201 1.284e-22)
(0.2413 -0.06064 2.666e-22)
(0.622 -0.07892 0)
(0.5755 0.01496 0)
(0.7672 -0.3116 0)
(0.3829 0.01043 -2.477e-22)
(0.5533 -0.05326 1.312e-21)
(0.4979 -0.007276 4.234e-23)
(0.4155 -0.08983 1.171e-21)
(1.008 0.07461 -5.378e-22)
(0.5099 -0.01267 3.19e-23)
(0.7513 -0.008976 -4.869e-21)
(0.7129 0.02488 0)
(0.6164 0.0004815 2.014e-22)
(0.9158 0.0509 -7.627e-22)
(0.6311 -0.2092 3.625e-22)
(0.5052 -0.105 -8.43e-22)
(0.7191 0.1197 7.13e-25)
(0.6666 0.2422 0)
(0.5838 -0.01215 3.868e-23)
(1.009 0.0141 -4.342e-21)
(0.3685 -0.02723 0)
(1.007 0.004616 0)
(0.5106 -0.01454 8.121e-23)
(0.3447 -0.02804 2.1e-21)
(1.018 0.00105 1.158e-22)
(0.7047 0.06131 -8.989e-23)
(0.2917 -0.06405 -7.571e-22)
(0.4236 0.006035 -1.183e-22)
(0.2657 0.007719 0)
(0.6994 -0.07702 6.912e-23)
(0.9915 -0.009734 -4.115e-22)
(1.002 -0.0006873 4.455e-21)
(0.9989 0.0007191 -1.14e-19)
(0.4993 0.02118 -8.256e-23)
(1.017 0.09162 9.599e-22)
(0.4022 -0.09095 3.335e-24)
(0.9633 0.2653 0)
(0.3743 0.04027 6.606e-23)
(0.6978 -0.07655 1.208e-22)
(0.9949 0.0006903 -3.142e-21)
(0.5317 -0.01104 -1.02e-22)
(1.008 0.0108 -3.66e-21)
(0.488 0.005013 2.15e-24)
(0.3445 -0.1181 -8.284e-23)
(0.001436 0.005834 0)
(1.001 -0.001612 5.369e-20)
(0.1991 -0.1315 1.128e-21)
(0.8616 -0.06209 0)
(0.4282 0.001382 0)
(1.007 0.00451 -6.304e-21)
(0.5098 -0.003916 0)
(0.9427 -0.07554 1.305e-21)
(0.6925 -0.05801 0)
(0.7744 -0.09526 -1.076e-21)
(0.4358 -0.09786 1.82e-22)
(0.9961 0.00535 1.577e-20)
(0.4235 -0.08446 0)
(0.6172 -0.01782 0)
(1.023 0.01106 -1.187e-21)
(0.6934 -0.1456 1.491e-22)
(0.4838 -0.05626 0)
(0.9959 0.005174 1.657e-20)
(0.717 -0.04254 -1.045e-23)
(0.2689 0.06978 -2.069e-22)
(1.017 0.000342 2.574e-20)
(0.5453 -0.009983 5.605e-23)
(1.016 0.1845 3.461e-24)
(0.5707 -0.2168 1.712e-21)
(0.3146 0.006092 -1.685e-22)
(0.6913 -0.1461 -4.804e-22)
(0.9808 0.3456 0)
(0.3432 -0.07205 1.388e-21)
(1 0.001642 -7.083e-21)
(0.8976 -0.07572 1.193e-21)
(1.015 0.0006128 -2.005e-20)
(0.5935 0.02044 2.865e-22)
(0.4965 -0.1163 0)
(0.4781 -0.01125 4.879e-23)
(1.005 0.01918 -7.445e-22)
(0.4248 0.006284 0)
(0.2243 -0.0477 -4.035e-22)
(0.06537 0.05056 0)
(0.5655 -0.1117 -1.123e-21)
(0.2868 -0.06978 -3.51e-22)
(0.7068 -0.08027 -7.306e-23)
(0.9828 0.2363 3.839e-23)
(0.4408 0.007477 -8.192e-23)
(0.9783 -0.04766 8.487e-22)
(0.9547 0.01379 3.106e-21)
(1.008 -0.0005407 1.849e-20)
(0.5729 -0.1352 -5.849e-22)
(0.5871 -0.01224 0)
(0.6619 0.007477 -4.395e-21)
(0.9286 -0.01973 2.154e-22)
(1 0.009193 1.265e-20)
(0.9642 0.1063 6.776e-22)
(0.5881 -0.03873 5.288e-23)
(0.9975 -0.004118 1.816e-20)
(0.1802 -0.009198 -1.148e-22)
(0.611 -0.0201 3.374e-23)
(0.7156 -0.04122 -5.027e-22)
(0.4984 -0.0393 0)
(0.2892 -0.1023 6.39e-22)
(0.3332 -0.07754 0)
(0.5124 -0.01285 0)
(0.9852 -0.04273 0)
(0.7538 -0.09038 0)
(0.9635 -0.07111 0)
(0.7105 0.08998 1.446e-22)
(0.6978 -0.06559 6.502e-23)
(0.3495 0.0265 6.359e-23)
(0.9943 0.0007138 0)
(0.3753 -0.08581 -4.712e-22)
(0.7258 -0.0879 0)
(0.9973 0.0007111 3.659e-20)
(0.7013 -0.08569 5.281e-22)
(0.9924 -0.03534 -2.34e-21)
(0.7 -0.06173 -1.564e-22)
(0.8789 0.4747 -4.205e-22)
(0.5196 -0.008804 -1.579e-23)
(0.6301 -0.03602 -3.393e-23)
(0.4512 -0.08964 -1.869e-22)
(0.7426 -0.1054 1.467e-21)
(0.7309 -0.09425 -1.158e-24)
(0.7685 -0.2044 -2.976e-22)
(0.4726 -0.01106 -1.564e-22)
(0.9484 -0.0138 0)
(0.7444 -0.07061 7.887e-23)
(0.6032 -0.09543 1.511e-21)
(0.2935 0.01053 -1.089e-22)
(0.3551 0.06274 -7.078e-23)
(0.5911 -0.1071 -1.206e-21)
(0.3674 0.0276 0)
(0.4842 -0.06016 -1.006e-22)
(0.342 -0.04639 2.525e-21)
(1.01 0.0127 1.263e-20)
(1.001 0.0009354 2.698e-21)
(0.9916 0.0006186 -6.135e-22)
(0.9134 -0.0193 1.325e-21)
(0.5678 -0.1176 1.211e-21)
(0.4521 -0.1664 -2.077e-21)
(0.9921 0.0007344 2.11e-21)
(1.003 0.002251 0)
(0.8396 0.0419 4.738e-22)
(0.5314 -0.02124 7.698e-24)
(0.6887 -0.1024 -2.421e-22)
(0.492 -0.0004116 0)
(0.4808 0.01695 0)
(0.9945 -0.006613 -4.302e-22)
(0.7833 0.0739 0)
(0.9819 0.04186 0)
(1.013 0.003146 0)
(0.4648 -0.06009 -1.914e-23)
(0.5788 0.0156 0)
(0.3186 -0.07001 6.654e-22)
(0.9118 0.1645 0)
(0.5005 -0.09178 -3.221e-22)
(0.6593 -0.1127 0)
(0.9977 -0.000912 -6.988e-21)
(0.8327 -0.0791 8.913e-23)
(0.9974 -0.0008829 0)
(0.73 -0.09015 -4.176e-22)
(0.1397 -0.08631 1.702e-21)
(0.05839 0.07411 3.033e-25)
(0.5097 -0.1017 2.864e-22)
(0.7065 0.3817 0)
(0.8817 -0.1675 -7.691e-22)
(0.6192 -0.08565 4.107e-23)
(0.6527 -0.04459 0)
(0.6374 -0.2071 -2.042e-21)
(0.6 -0.1181 1.195e-21)
(1.008 -0.0005187 -1.748e-20)
(0.9172 0.02716 -2.728e-21)
(0.6925 -0.04935 2.48e-23)
(1.007 0.0005126 -3.057e-21)
(0.6158 -0.02717 0)
(0.7138 0.05283 0)
(0.3964 -0.09908 1.648e-24)
(0.5571 -0.004617 7.291e-23)
(0.3729 -0.07541 1.06e-21)
(0.5588 0.2223 1.253e-22)
(0.1749 0.003288 -9.28e-22)
(1.015 0.00068 9.367e-21)
(1.011 -0.008637 -3.393e-20)
(0.801 -0.1442 -1.572e-22)
(1.002 0.0009972 0)
(0.5431 -0.3286 -1.63e-22)
(1.005 0.1672 1.739e-22)
(0.4833 -0.01063 0)
(0.4839 0.4666 0)
(0.3988 0.005336 2.608e-22)
(0.3003 0.1726 -4.983e-22)
(0.7213 -0.06152 0)
(0.08678 0.01999 0)
(0.9397 -0.02925 -1.222e-21)
(0.4726 -0.0005014 9.416e-23)
(1.004 -0.004448 3.291e-20)
(0.6045 -0.02335 9.118e-24)
(1.009 -0.001399 -1.498e-20)
(0.772 -0.07898 4.201e-22)
(1.002 0.04889 0)
(0.9987 0.001158 4.469e-22)
(0.4424 0.007445 -2.149e-23)
(0.4488 -0.07263 0)
(0.8722 -0.03926 -6.867e-22)
(0.6869 -0.02907 0)
(0.7713 -0.09785 0)
(0.6475 -0.03575 2.483e-23)
(0.228 -0.0002739 -2.009e-22)
(1.023 0.01223 0)
(0.5948 -0.1129 1.902e-23)
(0.3476 -0.07329 -1.184e-21)
(0.609 -0.1172 0)
(0.903 0.03082 0)
(1.002 0.02451 1.99e-21)
(0.00787 0.05218 2.559e-21)
(0.3749 0.007513 -3.765e-23)
(0.3933 -0.00336 0)
(0.5055 0.02112 0)
(0.5005 -0.107 -6.425e-22)
(0.3292 -0.07213 -1.615e-21)
(0.7846 -0.2259 3.802e-22)
(0.5456 -0.01045 0)
(0.4792 0.02026 -1.167e-22)
(0.2551 -0.2907 6.774e-22)
(0.7915 -0.05482 0)
(0.3 -0.06535 -1.463e-23)
(0.8626 0.1253 0)
(0.4909 -0.1793 -9.068e-22)
(0.9835 -0.0004613 -1.379e-20)
(0.7224 -0.09605 -2.268e-22)
(0.4425 -0.09928 -7.633e-23)
(0.5847 -0.1001 -1.061e-21)
(0.92 -0.06516 1.448e-22)
(0.3336 -0.01601 1.435e-22)
(0.754 -0.03247 6.527e-23)
(0.563 0.01088 0)
(0.7188 -0.05464 1.957e-23)
(0.7614 -0.1443 1.898e-21)
(0.623 -0.04637 0)
(1.022 0.006888 5.107e-22)
(0.8466 -0.085 -2.455e-22)
(0.4941 0.01244 -9.027e-23)
(0.768 -0.05423 -2.624e-22)
(0.6398 -0.1081 2.246e-22)
(0.7558 -0.1516 -5.764e-22)
(1.001 -0.001129 -2.044e-20)
(1.011 -0.008761 3.848e-20)
(1 -0.001209 2.296e-20)
(0.945 -0.08868 4.057e-23)
(0.8059 -0.081 4.773e-22)
(0.5434 -0.1123 4.735e-22)
(0.7194 0.09241 -3.39e-22)
(0.2702 0.01225 -8.785e-25)
(0.6191 0.02459 -2.422e-21)
(0.1394 -0.03288 5.574e-22)
(0.2987 -0.06198 -1.147e-21)
(0.646 -0.02966 2.589e-24)
(1.002 0.004617 0)
(0.7381 -0.1288 0)
(0.4962 0.004568 0)
(0.5654 -0.03266 -2.162e-23)
(1.001 -0.001571 0)
(0.8291 -0.2198 0)
(0.984 -0.0005406 1.405e-21)
(0.8536 -0.1334 0)
(0.8821 -0.1664 0)
(0.249 -0.101 1.615e-22)
(0.2993 0.0106 1.44e-22)
(0.6041 0.006692 0)
(1.009 0.0438 -1.191e-22)
(0.5731 -0.004161 5.516e-23)
(0.1169 -0.1834 9.668e-22)
(0.6671 -0.0805 1.36e-22)
(0.7561 -0.1789 -7.114e-22)
(0.9924 0.000381 0)
(0.5205 -0.004111 -1.077e-22)
(1.007 0.0004686 7.485e-23)
(0.8349 -0.2413 -8.095e-22)
(0.2651 0.006995 1.492e-22)
(0.9927 -0.0119 0)
(0.5552 -0.03202 0)
(0.6908 -0.05268 1.168e-22)
(0.7048 0.3168 -2.25e-22)
(0.8449 -0.1232 -2.021e-22)
(0.5514 -0.05224 -5.959e-22)
(0.3493 0.009368 0)
(0.6546 -0.1056 -9.291e-22)
(1.01 0.04298 -1.444e-22)
(0.517 -0.06232 -2.453e-21)
(0.7632 -0.1802 3.996e-22)
(0.706 -0.0692 -6.54e-23)
(0.5666 -0.04848 0)
(0.4912 0.004755 8.924e-23)
(0.5075 0.03038 1.87e-22)
(0.9433 -0.04436 -2.645e-21)
(0.337 -0.04283 0)
(0.8941 -0.09892 1.285e-23)
(0.7908 0.4074 0)
(0.2285 0.006769 1.261e-22)
(0.6499 -0.1035 1.871e-23)
(0.3723 0.0182 -2.916e-23)
(0.5937 0.01862 -3.291e-22)
(0.4848 0.004364 0)
(0.3444 -0.01748 4.742e-22)
(0.5607 0.02918 0)
(0.5483 -0.007253 0)
(0.715 -0.04559 -2.056e-23)
(0.7581 -0.1406 -1.937e-21)
(0.7092 -0.1539 -3.553e-23)
(0.8958 -0.004545 -7.645e-22)
(0.9348 -0.0059 0)
(0.7144 -0.1128 -2.111e-22)
(0.4021 -0.003387 -9.632e-23)
(0.08716 0.03132 0)
(0.9924 0.0003559 0)
(0.4636 0.004373 1.472e-22)
(0.8326 -0.1089 -2.713e-24)
(1.013 -0.0003519 -1.859e-20)
(0.6293 -0.1006 1.149e-21)
(0.4345 -0.08992 2.229e-26)
(0.5639 -0.1095 1.03e-21)
(0.6935 -0.03959 6.525e-25)
(0.4475 0.00544 8.107e-23)
(0.2985 -0.2899 -9.913e-22)
(0.6476 -0.2121 -1.209e-21)
(0.3708 -0.07945 -4.115e-22)
(0.9124 0.1155 -3.145e-22)
(0.5578 -0.006964 1.721e-23)
(0.4555 0.002862 1.728e-23)
(0.7864 -0.1842 -1.756e-21)
(0.9904 0.0002777 -8.483e-21)
(0.9762 -0.05466 8.248e-22)
(0.7472 8.904e-05 -7.48e-22)
(0.505 -0.09961 3.169e-22)
(0.8841 -0.06267 -5.263e-21)
(0.9547 -0.06099 4.135e-23)
(0.4717 -0.008333 0)
(0.7694 -0.2049 5.475e-23)
(1 0.008856 0)
(0.7306 -0.09469 -1.036e-21)
(0.8034 -0.1323 0)
(0.6956 -0.06526 0)
(0.999 0.0008092 1.13e-19)
(0.4143 -0.07721 -5.71e-22)
(0.8947 -0.1 4.181e-23)
(0.6063 -0.04392 -1.986e-22)
(1.003 0.002629 -1.522e-20)
(0.7532 -0.179 2.229e-22)
(0.5496 0.3956 5.157e-22)
(0.05822 -0.0136 -9.383e-23)
(0.6349 -0.07064 1.058e-21)
(1.015 0.0006738 -9.55e-21)
(0.6621 -0.1039 -1.144e-21)
(0.8286 -0.13 2.148e-22)
(0.4057 -0.0255 0)
(0.9953 0.001139 1.554e-21)
(0.9978 -0.0004072 -1.934e-22)
(0.9998 0.000705 -1.27e-22)
(0.5341 -0.0113 1.228e-22)
(0.3102 0.003138 0)
(0.8 -0.05207 0)
(0.6752 -0.06595 -1.329e-23)
(0.3686 0.02812 0)
(0.9892 -0.01404 -8.587e-22)
(0.372 -0.00442 -1.379e-22)
(0.8752 0.4787 6.634e-22)
(0.2628 0.4616 5.703e-22)
(0.876 -0.03781 7.358e-22)
(0.9858 -0.03594 2.509e-22)
(0.4434 -0.09763 -3.747e-22)
(0.8621 0.1173 -4.746e-24)
(1.006 0.01882 7.696e-22)
(0.6861 -0.3543 4.084e-22)
(0.7151 -0.2298 3.415e-22)
(0.3029 -0.04263 2.04e-22)
(0.516 -0.03188 -1.66e-22)
(0.8802 -0.1281 -3.975e-24)
(0.8156 0.05422 -3.103e-22)
(0.5257 -0.006727 -5.18e-23)
(0.692 -0.1019 -1.169e-22)
(0.998 0.04131 0)
(0.467 0.006054 5.197e-23)
(0.9922 2.239e-05 -7.115e-23)
(1.003 -0.0007304 0)
(0.7412 -0.2685 -5.046e-22)
(0.4759 -0.09005 4.79e-22)
(1.011 0.007151 0)
(0.966 -0.06742 2.223e-22)
(0.577 -0.1592 -1.586e-21)
(0.7506 -0.3022 0)
(0.2831 -0.06609 7.653e-22)
(0.4443 -0.09967 -6.762e-22)
(0.3494 0.05363 -2.393e-23)
(0.7534 -0.006453 0)
(0.9581 0.0003456 6.505e-22)
(0.4045 -0.02224 9.376e-23)
(1.014 -0.0004248 6.016e-21)
(0.7753 -0.02412 -2.438e-22)
(0.5339 -0.1009 -1.382e-21)
(0.6384 -0.1077 8.166e-22)
(0.4115 0.005194 -1.445e-22)
(0.6935 -0.05384 -1.109e-22)
(0.1487 -0.03945 -2.8e-22)
(0.4336 0.001673 -1.328e-23)
(0.8324 -0.02439 0)
(0.5508 -0.1039 -2.523e-22)
(0.868 0.3274 0)
(0.8739 -0.1795 -2.377e-22)
(0.7379 -0.3306 0)
(0.9946 0.262 5.064e-23)
(0.5119 -0.0008235 -1.806e-22)
(0.5145 -0.1049 4.411e-22)
(0.9798 -0.04677 -3.373e-22)
(0.8753 0.0834 1.039e-22)
(1.009 -0.001337 0)
(0.8303 -0.09169 0)
(0.9948 0.00112 0)
(0.1097 0.3443 -5.569e-22)
(0.6778 -0.1072 -3.585e-22)
(0.7631 -0.04704 -1.46e-22)
(0.2784 0.00424 0)
(0.2625 0.4624 -1.891e-21)
(1.001 0.01019 -1.449e-20)
(0.7033 -0.06276 1.805e-22)
(0.451 0.02746 -1.104e-22)
(0.8818 -0.01109 0)
(0.3043 -0.07571 -2.792e-22)
(0.3527 0.06433 8.757e-23)
(0.6886 -0.05349 -9.514e-23)
(0.6576 -0.04547 0)
(0.353 0.1978 9.778e-22)
(0.7661 -0.3127 -3.622e-22)
(0.4589 -0.08662 -7.341e-23)
(0.6614 0.2332 0)
(0.4528 -0.09346 -8.167e-22)
(0.5153 -0.005895 0)
(1.014 -0.00696 1.071e-20)
(0.417 -0.08159 2.615e-21)
(0.312 -0.0715 0)
(0.1151 -0.02808 0)
(0.5174 -0.1107 0)
(0.3745 -0.08101 5.081e-23)
(0.7014 -0.01272 1.907e-22)
(0.6595 -0.102 0)
(0.07387 0.003527 3.567e-23)
(0.9934 0.0002531 -2.714e-21)
(0.04678 0.04647 0)
(0.7418 -0.3125 4.303e-24)
(1.02 0.01077 -1.117e-22)
(0.3617 0.009152 7.699e-23)
(0.8313 -0.2463 0)
(0.4903 0.008403 4.13e-23)
(0.1413 -0.02005 -3.209e-21)
(0.07915 0.000336 0)
(0.5834 -0.02923 1.93e-23)
(0.1888 -0.1336 -1.82e-22)
(0.689 -0.06066 9.541e-23)
(0.6184 -0.03109 6.268e-24)
(0.2316 0.006889 -2.614e-23)
(0.529 -0.01686 3.126e-23)
(0.6963 -0.3408 -1.173e-21)
(0.2027 -0.04836 9.206e-23)
(0.964 0.003485 5.172e-21)
(0.646 -0.06466 -1.04e-22)
(0.5146 0.01079 0)
(0.4537 -0.07742 -1.943e-21)
(0.8546 -0.2085 5.007e-22)
(0.5899 -0.1026 0)
(0.7805 -0.07804 0)
(0.8327 -0.03302 4.226e-22)
(1.01 0.0004303 -2.198e-20)
(0.4023 -0.09355 0)
(0.4408 -0.007772 0)
(0.9898 -0.03944 -2.128e-21)
(0.6541 -0.00566 -6.465e-22)
(1.003 0.002596 -2.295e-20)
(0.482 0.005272 -2.448e-22)
(0.2327 0.007163 2.643e-23)
(1.02 0.01829 -3.656e-23)
(0.4594 -0.005272 -1.608e-22)
(0.768 0.3183 0)
(0.9861 -0.01602 0)
(0.996 0.003011 -1.051e-22)
(0.1581 -0.0392 5.66e-22)
(0.6972 -0.2522 6.718e-24)
(1.006 0.0002898 0)
(1.004 -0.000193 6.58e-21)
(0.5129 -0.1056 -6.61e-22)
(0.8559 0.08686 -5.252e-22)
(0.2097 0.004985 2.699e-22)
(0.3811 -0.03066 4.26e-22)
(0.3335 -0.2967 -2.25e-21)
(0.896 -0.0487 2.419e-22)
(0.7386 -0.1122 6.246e-22)
(0.4619 -0.3694 -1.026e-21)
(0.3801 -0.07592 0)
(0.07414 0.001099 0)
(0.5833 0.002267 -7.345e-24)
(0.6285 -0.148 -1.859e-22)
(0.3574 0.007318 -3.32e-22)
(0.708 -0.1081 1.938e-21)
(0.6013 -0.1037 0)
(0.5341 -0.1141 -3.77e-22)
(1.007 0.01917 3.8e-21)
(0.9858 0.0007281 0)
(0.9973 -0.0003587 0)
(0.9991 0.0006697 3.203e-22)
(0.7232 -0.2838 6.082e-22)
(0.1373 0.005619 4.392e-22)
(0.7669 -0.04268 2.054e-20)
(0.5588 -0.01251 5.899e-23)
(0.4959 -0.02433 9.133e-24)
(0.5907 -0.01976 -1.819e-23)
(0.4631 -0.0925 0)
(0.8591 0.03792 -1.151e-21)
(0.9953 0.004684 -2.633e-20)
(0.7129 -0.1262 5.206e-22)
(0.7154 -0.02445 -1.006e-21)
(0.14 -0.01089 0)
(0.4509 -0.001591 0)
(0.4531 -0.04345 7.853e-22)
(0.8651 -0.08249 -8.916e-22)
(0.4453 0.009555 1.21e-22)
(0.3928 -0.08232 0)
(0.5368 -0.0339 -1.052e-21)
(0.9955 0.01051 -6.606e-24)
(0.6082 -0.02738 1.422e-21)
(0.5267 -0.01224 7.792e-23)
(0.5189 0.003607 1.328e-22)
(0.6866 -0.03816 -1.413e-24)
(1.022 0.01771 1.247e-21)
(0.3523 0.05232 6.045e-24)
(0.657 -0.0754 3.647e-22)
(0.6742 -0.08931 -2.84e-22)
(0.9715 -0.01662 0)
(0.5102 -0.00232 0)
(0.9923 1.268e-05 0)
(0.4578 -0.00133 6.993e-23)
(0.178 0.008156 -1.151e-22)
(0.8927 -0.0222 3.484e-23)
(0.6912 -0.08995 0)
(0.4579 -0.09469 0)
(0.06112 0.00249 6.987e-22)
(0.6895 -0.1084 -2.146e-21)
(0.7736 -0.1272 0)
(0.9679 0.08333 -2.933e-24)
(1.004 -0.004551 -6.35e-21)
(0.4348 -0.09707 -1.11e-21)
(0.6396 -0.02079 0)
(0.2076 -0.04758 -7.761e-25)
(0.925 -0.01489 1.046e-21)
(0.796 -0.02266 0)
(0.8105 -0.1413 0)
(0.2698 0.008869 -6.967e-23)
(0.9092 -0.06202 0)
(0.997 0.2381 -1.043e-22)
(0.843 -0.1475 2.254e-22)
(1.011 -0.0002527 0)
(0.9647 -0.0267 4.35e-21)
(0.5282 -0.1041 3.942e-22)
(0.4636 -0.07508 -1.181e-21)
(0.5025 -0.09178 -6.473e-22)
(0.72 -0.09536 2.06e-22)
(0.09266 0.000802 2.499e-23)
(0.3818 -0.02986 0)
(0.4964 -0.08723 0)
(0.3797 -0.0373 0)
(0.5996 -0.1429 0)
(0.09277 -0.001045 0)
(0.6129 -0.1127 0)
(0.6006 -0.1021 -5.412e-22)
(0.3978 -0.1032 0)
(0.02611 5.559e-05 -1.243e-22)
(0.926 -0.0002609 -1.036e-21)
(0.9262 0.01902 6.991e-22)
(0.1143 -0.03064 -9.777e-23)
(0.6622 -0.1137 -1.738e-21)
(0.5156 -0.006938 0)
(0.6891 -0.0399 0)
(1.009 0.0003728 1.425e-20)
(0.6665 -0.1149 -1.966e-21)
(0.6689 -0.08587 7.625e-22)
(0.5727 -0.1727 0)
(0.9411 -0.06113 -3.525e-21)
(1.005 -0.0002698 8.066e-22)
(0.3424 0.007063 0)
(0.3285 0.01027 2.842e-22)
(0.1604 -0.0376 1.048e-21)
(0.3319 0.008419 0)
(0.6412 0.0133 -3.36e-21)
(0.9991 0.03939 -4.972e-24)
(0.9926 0.002733 1.241e-21)
(0.6736 -0.1321 1.71e-22)
(0.8423 -0.04668 -1.223e-22)
(0.2545 -0.05826 1.14e-21)
(0.6466 -0.1146 0)
(0.4639 -0.001681 -1.31e-22)
(0.9988 0.001071 -1.461e-20)
(0.4044 -0.09405 0)
(1.003 -0.0001255 0)
(0.7353 -0.06335 1.072e-21)
(0.4664 -0.1029 0)
(0.706 -0.05872 -2.692e-23)
(0.2041 -0.04916 7.23e-22)
(0.9797 0.1173 -1.54e-22)
(0.9275 0.01261 4.757e-22)
(0.5498 -0.3787 -3.372e-22)
(0.8174 -0.175 3.836e-22)
(0.9049 0.02784 -4.065e-22)
(0.2595 -0.05626 0)
(0.6223 0.006012 -1.414e-22)
(0.5621 -0.03621 0)
(0.6575 -0.1006 1.434e-21)
(1.003 0.0007614 5.765e-22)
(0.8291 -0.05443 0)
(0.4357 -0.1659 -3.883e-21)
(0.9706 -0.03354 5.708e-22)
(0.4267 -0.07648 -1.144e-21)
(0.3543 -0.09937 -3.346e-22)
(0.7418 0.5027 1.748e-22)
(0.8362 -0.1491 1.569e-22)
(0.8026 -0.2528 6.495e-22)
(1.008 0.01182 1.957e-21)
(0.9476 0.02316 -1.346e-21)
(0.5996 -0.1072 -1.842e-21)
(1.021 0.1012 -5.148e-22)
(0.5307 -0.02219 -5.465e-24)
(1.008 0.07621 1.326e-22)
(0.7625 -0.09682 7.39e-23)
(0.6267 -0.06471 9.318e-23)
(1.012 0.01692 1.82e-21)
(0.6636 -0.004135 -6.899e-23)
(0.6572 -0.03848 8.412e-24)
(0.9828 0.3434 0)
(0.3954 -0.2559 9.693e-22)
(0.585 -0.09605 -2.154e-21)
(0.2832 -0.0501 1.809e-21)
(0.3575 -0.07181 -2.363e-21)
(1.002 -0.00405 1.564e-21)
(0.897 -0.03259 0)
(0.5814 -0.06989 -7.299e-22)
(0.6007 -0.09129 -1.989e-22)
(0.3998 -0.08485 -3.537e-24)
(0.6053 -0.001615 0)
(0.119 -0.002243 -1.025e-23)
(0.119 -0.03162 3.545e-22)
(0.7942 -0.1147 -1.089e-22)
(1.002 0.009017 0)
(0.5389 -0.09843 8.325e-22)
(0.2824 -0.06873 -7.374e-22)
(0.8783 -0.00244 9.543e-22)
(0.9786 0.3506 -5.04e-23)
(0.8471 -0.127 0)
(1 -0.01892 -3.706e-21)
(0.7235 -0.1465 0)
(0.9227 -0.0313 0)
(0.6587 -0.0727 0)
(0.5652 -0.01709 0)
(0.9158 -0.001849 2.239e-22)
(0.1102 -0.02742 -2.45e-22)
(0.4853 0.005416 1.71e-22)
(0.7147 -0.1041 0)
(0.9754 0.009078 1.9e-21)
(0.9868 -0.004276 2.496e-20)
(0.6416 0.3596 -1.246e-22)
(0.289 -0.06463 0)
(0.9783 -0.02357 3.277e-21)
(0.09538 -0.01897 -8.963e-21)
(0.3976 0.007329 8.876e-23)
(0.4972 -0.08879 9.584e-22)
(0.7488 -0.3029 -1.706e-21)
(0.9894 0.0209 -2.541e-21)
(1.006 0.0002364 8.118e-21)
(0.4776 -0.08583 4.416e-23)
(0.8544 -0.1595 3.97e-22)
(0.3567 -0.3376 0)
(0.973 0.0003316 0)
(0.3027 -0.008661 3.607e-22)
(0.6958 -0.09259 2.371e-22)
(0.4721 0.0006598 -9.285e-23)
(0.0007148 -0.01518 0)
(0.5776 -0.04222 1.532e-22)
(0.6991 -0.08141 -8.658e-22)
(0.4805 0.001016 0)
(0.3322 -0.06245 -3.626e-21)
(0.9209 0.02355 -1.919e-22)
(0.5484 0.01528 8.403e-22)
(0.2143 -0.04171 0)
(0.9312 -0.004958 -4.143e-22)
(0.5463 -0.07628 6.801e-22)
(0.5929 -0.1025 7.036e-22)
(0.4711 0.02504 1.565e-22)
(0.4149 0.04606 0)
(0.8421 -0.08542 1.817e-21)
(0.5541 -0.07933 1.351e-21)
(0.4159 -0.2609 -3.41e-21)
(0.4919 0.5875 -6.334e-22)
(0.519 -0.001458 0)
(0.09012 -0.02447 0)
(0.1977 0.005177 -3.203e-22)
(1.016 0.0002614 -1.899e-20)
(0.6669 -0.07845 -6.14e-25)
(0.2593 -0.06075 1.052e-21)
(0.9112 0.07276 -5.478e-22)
(0.6691 -0.05896 -1.457e-22)
(1.02 0.107 0)
(0.08766 -0.02429 1.401e-21)
(0.18 -0.04044 1.73e-21)
(0.9488 0.02235 2.803e-21)
(0.4344 0.004942 0)
(0.5526 -0.1568 0)
(0.8804 -0.1229 -4.674e-22)
(0.4445 0.001966 0)
(0.9936 -0.0004533 0)
(0.9639 0.006301 0)
(0.8765 -0.1718 1.165e-21)
(0.2663 0.005168 -3.001e-22)
(0.1774 0.01554 -1.047e-22)
(0.5635 -0.03088 -3.316e-23)
(0.7566 -0.1806 0)
(0.985 0.02044 9.409e-22)
(0.9818 0.002595 0)
(0.7722 -0.09297 -8.334e-23)
(1.009 0.01735 0)
(0.752 -0.04533 3.923e-23)
(0.7979 -0.04609 2.651e-20)
(0.2786 0.00872 9.092e-23)
(0.9017 -0.05495 0)
(0.4359 -0.1036 -6.085e-22)
(0.04839 -0.01681 1.634e-23)
(0.9614 0.001294 8.038e-23)
(0.4148 0.0004183 -2.861e-22)
(0.9889 0.0008407 1.11e-20)
(0.4805 -0.102 1.414e-22)
(0.3057 0.005614 1.99e-22)
(0.6899 -0.0293 -3.126e-23)
(0.5883 -0.09562 0)
(0.02211 0.0448 -1.309e-21)
(0.5601 -0.06969 -4.234e-23)
(0.9145 0.0142 0)
(0.4017 -0.09207 -5.398e-22)
(0.7733 -0.08129 -2.29e-23)
(0.5432 -0.08133 0)
(0.9964 0.06546 -6.368e-22)
(0.9224 0.2885 0)
(0.147 -0.04482 -6.849e-22)
(0.9047 -0.0573 -1.119e-20)
(1.007 -0.001881 2.178e-20)
(0.366 0.0005353 0)
(0.6905 -0.06621 3.746e-22)
(0.3199 0.0004922 7.031e-23)
(0.04433 -0.01075 6.365e-22)
(0.4528 -0.1002 -6.282e-22)
(0.03606 0.0006363 -2.442e-22)
(0.4913 0.03247 -2.385e-22)
(0.36 -0.08652 0)
(0.6142 -0.1069 -2.813e-22)