/*--------------------------------*- C++ -*----------------------------------*\
  =========                 |
  \\      /  F ield         | OpenFOAM: The Open Source CFD Toolbox
   \\    /   O peration     | Website:  https://openfoam.org
    \\  /    A nd           | Version:  8
     \\/     M anipulation  |
\*---------------------------------------------------------------------------*/
FoamFile
{
    version     2.0;
    format      ascii;
    class       volScalarField;
    location    "10";
    object      nut;
}
// * * * * * * * * * * * * * * * * * * * * * * * * * * * * * * * * * * * * * //

dimensions      [0 2 -1 0 0 0 0];

internalField   nonuniform List<scalar> 
127143
(
8.675e-16
7.066e-18
7.808e-18
8.084e-17
4.097e-12
8.234e-17
9.418e-10
2.65e-11
2.649e-12
4.996e-08
3.508e-10
7.553e-11
1.293e-16
1.599e-16
1.249e-06
6.804e-09
2.102e-15
9.224e-05
4.521e-05
1.532e-08
4.059e-05
5.52e-09
7.135e-05
7.504e-06
4.756e-09
7.793e-06
1.282e-05
1.087e-05
2.691e-08
0.0001892
3.441e-06
6.332e-06
4.175e-06
1.285e-05
3.75e-05
4.174e-06
0.0001871
3.39e-05
7.988e-06
1.268e-06
4.525e-05
2.024e-06
2.219e-06
6.689e-15
9.21e-05
1.32e-05
2.683e-08
0.0002267
6.794e-06
5.485e-06
9.313e-09
0.0003232
8.759e-06
1.819e-05
0.006684
2.678e-07
0.006684
0.0002754
0.004019
2.094e-05
2.911e-06
3.915e-05
7.866e-06
0.006702
3.371e-05
1.971e-05
3.036e-05
7.574e-06
7.574e-06
0.001397
4.189e-06
1.321e-05
0.0002939
0.003409
0.006696
1.142e-05
0.0004407
0.0001783
2.678e-07
0.006705
2.699e-08
2.247e-08
2.838e-05
1.655e-06
0.0003238
0.0001884
8.161e-06
1.426e-05
1.841e-05
1.406e-06
0.002153
5.086e-05
2.741e-06
4.05e-05
5.337e-05
0.0002571
2.234e-06
2.568e-06
0.0001179
3.376e-05
0.006705
6.642e-06
1.817e-07
7.793e-05
0.0001401
0.0001167
7.121e-06
0.001397
6.805e-06
0.006683
1.364e-06
1.427e-05
5.133e-05
6.395e-07
0.003236
9.342e-05
0.0003661
0.006696
0.0005524
2.513e-11
0.006684
2.287e-05
1.393e-05
0.0002283
2.711e-08
7.091e-06
5.537e-05
0.0006462
1.748e-05
2.458e-07
9.463e-05
5.365e-05
1.052e-05
0.0001793
5.768e-13
0.0001072
0.0002241
2.038e-05
2.211e-07
0.0001426
4.411e-05
0.000575
8.625e-06
1.258e-05
8.577e-06
5.892e-06
1.963e-08
0.006703
6.466e-05
8.904e-08
3.792e-05
4.051e-06
3.197e-05
2.113e-05
2.02e-06
0.0002471
0.0002222
2.743e-07
0.0002083
1.789e-06
4.366e-06
1.585e-09
0.001957
0.0001165
1.221e-07
2.553e-05
0.0001611
6.44e-06
5.361e-06
9.956e-05
2.253e-05
1.258e-05
8.116e-05
2.826e-05
0.0006595
0.0001979
5.895e-06
1.748e-05
8.086e-06
0.002109
2.448e-05
0.0008542
0.0002056
0.0002005
2.465e-07
3.726e-05
5.913e-06
7.776e-07
7.665e-06
0.0008654
1.574e-05
3.294e-05
0.0003199
1.12e-06
1.743e-13
2.864e-05
0.006726
0.006719
1.681e-10
0.00149
0.0045
0.0001286
0.0007952
0.0001784
1.927e-15
6.068e-06
0.0001382
2.759e-05
0.0002288
0.003575
8.771e-05
0.0003335
0.003511
5.277e-06
6.724e-05
6.091e-10
3.478e-06
2.73e-05
7.021e-05
0.0001455
5.67e-06
0.006697
4.06e-06
7.953e-06
1.998e-06
1.683e-05
1.45e-07
3.494e-05
4.737e-05
0.0001178
4.236e-05
0.0009121
0.0002489
3.753e-10
4.234e-05
0.0002398
0.0001162
3.888e-13
0.003966
1.153e-05
3.145e-05
3.422e-05
0.0002576
2.743e-07
1.528e-05
3.958e-11
3.052e-06
1.137e-05
3.285e-10
0.001358
3.887e-06
6.183e-06
2.388e-05
1.616e-05
4.438e-07
6.236e-06
0.0008088
3.886e-07
3.165e-05
8.544e-06
2.124e-05
0.0007351
4.756e-05
0.0005432
7.881e-06
3.106e-05
7.991e-05
1.982e-06
3.644e-06
1.831e-05
7.548e-06
0.000659
0.000234
1.173e-05
9.499e-06
1.442e-05
5.128e-05
7.224e-06
0.0004728
2.215e-05
0.002857
0.0001527
7.92e-05
0.006701
0.00471
1.841e-13
8.294e-05
0.003192
7.614e-06
0.002007
3.366e-05
4.267e-05
0.0002291
7.201e-05
0.002709
6.776e-06
3.802e-06
6.83e-05
0.0002573
1.803e-05
8.435e-06
2.944e-05
9.793e-06
0.0001064
1.631e-06
3.464e-06
2.773e-05
0.003196
4.381e-05
1.815e-05
7.165e-06
2.205e-05
2.902e-07
0.003576
0.003705
2.356e-06
2.228e-05
7.152e-06
3.64e-05
0.0003555
8.007e-05
3.877e-06
0.0002886
2.38e-05
2.236e-06
1.463e-05
7.524e-05
3.571e-05
4.102e-06
4.432e-06
0.0001061
0.003905
4.036e-05
0.006725
0.006719
2.12e-05
6.837e-06
7.908e-05
0.0001069
7.57e-05
0.000166
2.726e-05
7.959e-06
1.259e-05
1.111e-06
7.612e-06
4.739e-05
4.755e-05
7.778e-06
1.84e-05
8.258e-06
3.33e-05
0.0001871
1.425e-05
7.417e-05
5.193e-05
1.618e-05
6.681e-06
0.006163
4.118e-06
0.0001691
8.393e-06
8.88e-05
4.899e-06
5.973e-06
0.006698
0.001763
0.0002827
3.015e-05
0.0004343
1.728e-06
0.0003056
8.032e-06
4.713e-06
0.001104
4.821e-05
8.047e-06
2.776e-09
0.0001222
0.0005135
6.486e-05
7.372e-06
8.699e-06
2.23e-05
0.0003862
1.705e-07
2.347e-05
1.359e-06
3e-05
5.518e-05
0.004961
9.619e-06
3.115e-05
4.887e-07
7.33e-06
3.356e-06
9.855e-06
3.938e-06
7.205e-05
0.001015
1.22e-06
0.006698
2.693e-05
0.0002137
2.476e-05
2.565e-05
0.0001902
1.111e-05
0.006705
8.176e-06
8.561e-06
7.794e-06
4.245e-05
0.0001455
1.27e-05
4.921e-05
0.0001024
7.553e-06
2.646e-05
5.648e-06
0.0001663
2.467e-06
7.686e-05
0.001866
0.0001189
7.74e-06
2.088e-06
3.482e-05
2.414e-05
0.0001078
0.00668
7.478e-05
0.0001716
8.885e-05
9.935e-06
0.006698
2.254e-05
4.713e-05
0.0003542
0.002879
0.006695
5.899e-06
0.000183
6.834e-06
0.0002225
2.593e-06
0.002714
3.419e-06
0.0002805
0.0003345
6.704e-05
8.712e-06
3.036e-05
3.148e-05
2.234e-05
0.0002122
7.5e-06
2.54e-05
0.000219
2.089e-05
1.184e-05
8.141e-06
2.722e-05
5.204e-07
9.232e-06
0.0008342
0.0008651
1.542e-05
4.426e-05
0.006673
0.0001168
4.425e-05
0.0002043
2.327e-05
0.0001825
0.006651
1.706e-06
4.268e-05
4.24e-05
9.459e-06
7.032e-08
3.298e-06
3.692e-05
2.9e-07
7.096e-06
9.943e-06
1.237e-05
0.006541
2.321e-06
0.0005271
3.662e-06
8.179e-06
9.641e-06
5.876e-06
6e-14
0.0001191
8.982e-07
0.0005642
9.846e-07
0.004699
6.868e-08
0.0009003
0.0002215
2.539e-05
2.961e-15
1.661e-11
1.485e-11
0.006698
5.181e-05
4.083e-06
0.003607
0.0001971
1.541e-05
0.0001495
7.253e-05
6.773e-05
8.706e-06
0.0001162
1.102e-05
0.0009741
0.0003247
5.666e-10
3.92e-06
7.239e-06
2.766e-05
0.004081
4.149e-05
0.0009357
3.174e-05
0.006272
2.19e-06
7.055e-08
3.058e-05
0.006681
1.544e-05
0.0002021
1.411e-05
6.875e-06
2.209e-06
4.065e-05
0.000488
9.557e-05
1.334e-05
0.006674
2.945e-05
2.656e-05
4.361e-06
4.905e-06
4.332e-05
4.25e-05
2.936e-05
2.111e-05
8.481e-06
0.0001625
7.688e-05
0.002409
1.666e-06
7.299e-05
8.309e-06
9.897e-06
0.0001891
0.006703
0.006701
9.744e-06
4.743e-05
1.193e-06
0.00318
0.004598
9.872e-06
1.612e-06
0.0001863
8.525e-06
3.066e-05
5.357e-06
4.331e-05
0.0006782
0.006684
3.221e-05
9.201e-05
9.221e-06
0.004723
1.167e-05
1.183e-05
6.151e-05
0.0005132
8.372e-06
0.003091
0.0001294
0.0002492
5.925e-05
0.005117
8.068e-05
2.125e-05
5.511e-09
0.006651
7.194e-06
3.711e-06
0.006694
2.571e-05
0.002679
5.868e-06
1.229e-05
0.0067
3.716e-05
8.008e-06
2.796e-05
3.555e-05
9.637e-06
8.241e-06
8.685e-06
1.248e-06
8.01e-06
3.286e-06
5.05e-06
0.0001689
7.624e-06
2.55e-06
0.005434
2.607e-06
0.005636
8.915e-07
0.0005459
8.725e-06
0.00668
0.002747
0.0002397
5.699e-06
5.578e-05
0.006475
0.006684
5.418e-05
1.508e-05
3.229e-05
3.25e-06
0.0002852
7.355e-06
6.72e-05
8.268e-06
1.226e-05
5.489e-05
1.825e-05
0.006474
2.561e-05
1.151e-05
0.0001025
2.322e-05
0.002226
0.004601
1.649e-05
3.125e-07
1.236e-05
1.779e-07
0.0006075
0.003216
0.0001077
3.566e-05
0.000149
2.377e-05
9.537e-05
0.001066
5.468e-05
3.56e-05
1.035e-05
1.856e-05
1.881e-14
2e-05
0.0002179
0.0002117
6.841e-05
4.411e-05
8.444e-06
4.785e-05
0.0003001
1.657e-05
8.338e-05
2.685e-05
0.006682
7.185e-06
1.488e-05
2.799e-06
0.006681
0.006682
1.201e-07
0.0008049
7.028e-06
3.627e-05
5.1e-06
4.38e-05
1.172e-05
2.292e-06
6.473e-06
5.33e-07
0.006709
0.006674
4.068e-06
7.748e-06
3.258e-05
3.071e-06
1.686e-07
0.0002327
2.431e-06
9.851e-05
0.0001042
0.003709
2.783e-06
0.0001967
5.257e-07
6.259e-13
1.216e-05
8.422e-06
0.0001176
0.004883
8.84e-06
6.906e-06
4.45e-07
4.762e-05
1.687e-05
1.225e-05
1.187e-07
7.405e-05
6.833e-06
5.391e-05
6.723e-07
8.405e-06
1.827e-05
5.478e-05
5.842e-05
5.934e-15
1.77e-05
0.0001135
3.376e-06
1.01e-05
8.325e-06
0.006694
0.0001504
3.496e-05
0.0001988
0.002974
1.596e-07
8.016e-05
8.36e-06
0.003128
3.442e-05
0.0001749
4.006e-05
3.083e-05
0.003788
0.0001389
3.389e-05
4.849e-05
1.661e-05
0.001316
7.96e-06
1.038e-06
0.002322
2.736e-05
4.814e-05
4.25e-05
0.0001202
2.923e-05
1.213e-05
7.988e-06
9.008e-05
0.00664
0.0001599
8.993e-05
1.038e-06
7.785e-06
1.899e-05
0.0001943
4.586e-05
0.006658
0.0001302
5.563e-05
9.561e-06
1.06e-09
9.704e-06
3.327e-05
3.277e-05
0.0002742
4.705e-05
0.006697
7.023e-15
7.993e-05
3.364e-05
1.366e-05
0.0001862
0.0001061
0.0001228
5.012e-06
0.006683
3.601e-05
7.885e-05
0.00351
9.619e-05
3.666e-06
7.26e-06
1.843e-05
0.006667
6.527e-05
0.000186
0.006639
0.006662
2.354e-05
4.843e-05
0.0002666
0.0001079
0.0001983
2.042e-08
5.359e-05
6.145e-06
0.006683
0.0001259
0.0001745
3.684e-06
2.049e-06
5.579e-06
0.002765
0.004298
0.0002512
1.251e-05
0.006683
9.723e-05
2.055e-06
8.752e-06
8.173e-06
0.006187
0.0002866
8.589e-06
0.006698
7.795e-06
0.006683
6.398e-06
1.14e-07
4.606e-05
1.343e-05
7.917e-07
0.002084
1.758e-05
1.595e-05
2.184e-06
5.464e-05
8.213e-06
8.769e-08
1.962e-05
6.163e-05
9.901e-06
2.843e-06
0.0067
3.215e-05
4.126e-07
2.759e-06
8.1e-05
7.248e-06
0.002865
0.000214
3.097e-05
4.68e-07
5.398e-06
3.397e-06
7.153e-10
4.086e-06
6.051e-06
5.577e-05
1.871e-05
4.21e-05
1.993e-07
0.0004124
7.39e-06
0.004711
0.005191
9.045e-06
0.0003017
2.565e-05
0.0001671
5.96e-07
0.0001966
0.0004894
1.643e-06
3.171e-06
0.004138
9.56e-05
0.0001795
0.0005741
3.383e-05
2.594e-08
0.0002532
3.512e-05
1.281e-06
1.813e-05
8.443e-05
0.006702
9.619e-06
5.259e-07
0.006212
3.239e-05
0.0001046
2.918e-05
0.00667
0.000258
8.248e-05
3.662e-09
1.616e-05
2.348e-08
8.886e-05
9.366e-06
4.518e-06
2.401e-06
3.113e-05
0.005721
2.901e-07
3.993e-06
0.005303
7.971e-06
1.668e-09
5.568e-05
1.972e-05
2.738e-05
0.0001039
8.346e-07
2.912e-08
8.272e-06
0.0005469
0.006698
3.205e-05
6.517e-06
0.0001402
3.584e-05
8.893e-07
8.324e-08
3.044e-05
2.984e-05
8.309e-08
0.0001333
1.783e-05
0.006694
0.0002248
1.689e-05
1.123e-05
6.277e-05
0.0001112
0.006698
0.001245
2.379e-05
3.711e-05
0.0001065
8.032e-06
6.472e-05
0.0002823
1.549e-05
8.072e-06
3.11e-05
3.088e-06
8.38e-06
2.942e-06
3.449e-05
2.842e-05
0.0002101
1.269e-06
0.0001111
9.11e-06
1.599e-08
0.0001181
0.006693
0.006695
0.0001353
0.0002329
9.091e-05
0.006756
6.699e-06
6.678e-05
0.0002402
8.401e-05
1.843e-05
7.558e-05
1.247e-06
0.006705
7.242e-05
0.0002411
1.662e-08
1.713e-06
0.0001655
7.818e-06
3.68e-05
2.984e-05
7.3e-06
1.204e-05
0.0001571
6.768e-06
8.099e-06
0.0001629
5.947e-08
0.00623
2.499e-06
2.7e-06
8.563e-05
3.134e-05
1.538e-06
0.002351
5.989e-06
3.014e-06
0.006416
0.006694
1.199e-05
5.186e-05
7.919e-10
7.141e-05
7.406e-06
1.379e-06
6.649e-05
7.776e-05
0.0001371
0.00151
5.829e-05
0.0003551
9.031e-05
5.907e-05
1.06e-05
0.000193
0.005858
2.85e-06
0.0001387
0.006693
4.666e-05
0.005923
0.006702
1.754e-05
7.437e-05
4.227e-06
0.006691
7.787e-06
0.006697
3.273e-06
9.538e-05
9.632e-05
5.243e-05
6.212e-06
7.826e-06
5.532e-05
1.032e-05
0.002948
0.0009006
1.048e-05
5.367e-06
0.0001033
7.762e-05
5.446e-07
6.118e-05
6.596e-07
3.775e-05
5.105e-07
2.522e-05
8.104e-06
8.252e-06
3.119e-06
5.011e-05
0.004932
3.586e-05
0.0001236
8.516e-06
0.00191
4.245e-06
4.382e-05
8.275e-06
5.312e-06
1.668e-05
0.0001753
2.608e-05
1.764e-05
8.278e-06
9.246e-05
2.137e-07
5.27e-05
0.006602
1.359e-05
3.692e-05
0.002038
4.345e-05
3.124e-05
0.006748
4.605e-05
8.444e-05
0.0006275
2.8e-06
2.26e-05
5.367e-05
0.0001027
0.006737
4.941e-05
7.04e-05
0.005396
3.969e-06
9.372e-05
7.325e-05
4.013e-05
4.82e-05
0.0004543
2.825e-05
3.501e-08
2.606e-06
7.573e-06
0.0001013
2.006e-07
0.001617
8.331e-06
0.006698
0.0001232
5e-06
4.43e-05
5.303e-06
2.381e-05
1.266e-05
0.006699
3.74e-10
3.233e-05
3.512e-05
8.965e-06
3.695e-07
1.943e-05
5.859e-05
1.536e-06
7.98e-06
4.309e-05
1.695e-10
0.0002062
4.42e-06
3.991e-06
7.417e-06
4.254e-06
8.163e-05
8.85e-06
6.256e-06
0.0001436
1.251e-05
8.74e-06
7.921e-06
5.843e-05
4.687e-08
0.0003287
2.445e-06
0.0001789
8.194e-06
0.006724
0.006692
1.85e-05
2.244e-07
0.0002161
0.000852
4.275e-06
4.554e-05
0.006698
1.403e-05
7.602e-06
1.554e-05
5.79e-09
2.498e-05
0.0001738
1.727e-13
9.565e-05
5.404e-06
0.0001109
8.123e-06
1.773e-05
7.768e-06
2.062e-06
7.978e-06
3.699e-05
0.0007365
0.0001298
1.406e-05
9.203e-05
3.991e-05
6.795e-06
0.0001998
1.354e-06
0.000225
9.961e-05
0.0003172
1.915e-06
1.152e-05
3.624e-05
4.276e-08
3.123e-05
1.655e-05
1.414e-05
0.0001492
0.0001623
0.006697
9.457e-05
1.912e-05
1.312e-05
1.818e-05
5.383e-07
1.514e-06
0.006684
6.752e-06
2.471e-05
4.896e-05
2.868e-06
6.498e-06
3.602e-05
5.523e-05
0.001799
4.045e-05
0.0001575
1.792e-05
5.502e-05
0.001504
2.792e-05
0.003564
5.552e-06
3.279e-06
0.0001982
7.191e-05
3.598e-05
0.006491
0.00668
5.898e-05
0.0003269
4.689e-05
5.415e-05
0.002399
0.002139
1.11e-06
7.617e-05
3.2e-05
2.015e-05
8.431e-06
3.108e-06
2.822e-05
8.393e-06
0.0001362
9.675e-05
0.006683
3.421e-06
7.665e-05
8.015e-06
3.047e-06
2.515e-05
2.07e-05
0.0001331
8.464e-06
2.763e-05
5.651e-09
7.117e-05
5.544e-05
0.0002557
1.93e-05
6.807e-05
7.338e-06
3.997e-09
3.922e-05
3.29e-05
0.006684
6.128e-06
7.946e-07
0.006694
7.095e-07
1.16e-05
0.0001722
7.891e-06
0.006688
2.034e-05
1.506e-09
0.002289
4.894e-06
5.757e-05
8.25e-06
1.525e-07
5.246e-05
7.686e-05
4.166e-05
1.209e-07
0.0001491
3.803e-05
9.461e-06
4.842e-06
1.774e-06
7.506e-08
3.221e-06
0.0001035
0.006694
7.085e-06
3.599e-05
2.319e-06
3.53e-06
8.977e-05
0.000126
0.006659
0.000125
0.0001002
0.006246
0.0002307
0.006341
1.018e-07
0.0001739
2.423e-07
0.0001311
7.966e-06
8.23e-06
4.854e-05
6.443e-06
6.574e-07
2.326e-06
7.259e-05
0.0001054
9.226e-06
3.3e-05
0.0001724
0.006702
0.000167
0.0007438
7.426e-05
0.0067
0.0002748
0.006689
7.898e-06
0.0001418
0.006743
0.006226
5.882e-05
5.45e-05
2.533e-05
7.632e-05
0.006777
8.75e-06
6.966e-05
4.482e-05
9.761e-12
1.688e-05
6.467e-10
7.523e-06
1.074e-05
8.45e-06
5.97e-06
0.0002045
7.449e-05
9.287e-07
0.0002866
3.57e-05
3.511e-05
2.194e-05
7.407e-06
3.094e-05
0.00669
2.167e-06
5.616e-05
5.442e-08
0.0067
2.846e-06
6.047e-06
8.056e-06
0.0001317
0.006652
0.006651
0.0001398
6.619e-05
0.0002599
5.712e-05
8.463e-06
5.499e-05
3.17e-06
0.000371
9.309e-05
8.624e-08
1.011e-05
0.0001534
7.639e-05
6.572e-05
2.971e-05
1.998e-05
4.673e-06
8.345e-06
0.0001427
0.001756
0.0001279
0.0001093
6.815e-06
8.003e-06
0.0005582
7.392e-06
0.0002915
8.067e-06
0.0001788
2.257e-05
0.0001913
0.006693
0.000254
1.863e-05
3.746e-06
5.462e-07
9.619e-05
0.0001027
3.372e-05
8.669e-05
0.006626
1.274e-06
5.188e-05
6.989e-09
2.553e-05
4.092e-08
0.0001479
0.006695
2.459e-05
1.337e-05
2.524e-05
6.636e-06
1.796e-05
4.056e-05
8.584e-06
9.582e-06
0.000388
2.152e-06
0.0001596
5.317e-06
1.126e-05
3.247e-06
0.002742
0.00274
7.996e-06
8.276e-06
5.492e-08
4.95e-06
5.761e-06
2.28e-06
2.737e-06
0.0003268
9.701e-05
0.000247
0.002176
0.006692
0.0002612
0.006487
9.781e-09
0.006695
3.708e-07
3.641e-05
6.159e-06
6.726e-06
3.102e-06
0.001418
9.007e-08
3.969e-05
9.304e-07
8.947e-05
3.51e-06
0.005436
5.042e-05
5.299e-05
8.855e-05
5.679e-06
2.825e-05
0.0001526
1.189e-06
7.499e-07
0.0002746
0.006665
1.603e-06
0.00147
0.006764
5.005e-05
3.927e-06
0.006667
1.102e-06
0.006698
1.165e-05
9.818e-06
2.869e-05
1.037e-06
0.006677
0.0001952
3.763e-05
6.305e-05
1.696e-05
3.204e-05
2.954e-05
0.004746
0.006687
1.239e-05
1.505e-10
2.519e-05
7.575e-06
0.0005859
3.615e-07
8.538e-05
4.371e-05
0.002131
1.68e-05
0.0001112
3.165e-06
0.0004382
6.919e-06
0.000612
1.538e-05
0.006704
2.225e-06
9.119e-06
0.000239
4.87e-07
5.397e-07
4.343e-05
0.00669
9.458e-06
2.949e-06
7.564e-05
2.795e-06
7.524e-06
2.456e-05
0.0004902
1.179e-05
1.249e-08
7.967e-06
8.313e-07
2.822e-07
0.00196
3.024e-05
0.006703
1.402e-05
2.303e-06
8.027e-06
0.006696
2.114e-05
0.006694
0.0001889
0.0001173
0.006715
2.786e-05
0.0003224
8.141e-06
2.386e-05
0.0006032
7.907e-06
0.006697
5.114e-07
2.253e-07
8.137e-05
4.381e-05
7.24e-06
0.001142
1.615e-05
0.0001925
4.564e-06
9.103e-06
0.0001983
7.811e-06
3.935e-05
2.849e-05
4.346e-07
0.0002088
1.962e-05
1.201e-05
0.0002197
7.839e-06
8.916e-05
6.436e-06
8.273e-06
0.0001993
0.001119
1.158e-05
8.819e-05
1.697e-05
0.0001468
3.167e-06
0.0001642
7.273e-06
0.00013
0.006667
7.587e-06
5.673e-06
0.0001999
8.484e-06
0.0004266
9.823e-06
0.006705
1.995e-05
7.22e-06
4.328e-05
6.056e-06
5.75e-06
6.109e-06
0.006696
8.5e-06
5.133e-06
8.102e-06
2.038e-05
0.0003958
8.183e-06
8.092e-06
0.006695
0.0001446
0.0001676
0.001784
7.222e-06
3.339e-05
3.597e-05
4.928e-06
0.0001199
0.0003053
0.002264
2.856e-05
2.906e-05
0.006604
2.069e-05
9.246e-06
8.836e-07
0.006747
9.187e-05
3.681e-07
3.835e-05
1.869e-05
0.0001154
8.187e-06
9.347e-07
0.00207
0.001193
0.000139
0.0008688
3.217e-05
4.671e-06
0.0002127
8.443e-07
3.466e-05
0.0003754
2.798e-05
5.17e-10
1.015e-09
0.0001277
0.0001296
4.837e-05
0.000221
0.0002389
2.892e-05
0.0002737
7.771e-06
6.837e-05
7.626e-05
8.768e-06
1.842e-06
0.0001094
0.000157
0.003051
1.573e-06
0.0001529
9.672e-05
5.667e-06
4.564e-05
3.078e-06
0.0001272
3.807e-05
0.006756
3.84e-07
7.503e-06
2.473e-05
3.252e-05
7.859e-05
3.06e-06
1.146e-06
0.0001027
4.159e-05
1.179e-06
3.288e-05
7.209e-06
4.148e-06
0.006639
1.386e-05
1.455e-06
8.167e-06
0.004705
0.0002384
0.000183
4.67e-06
3.441e-05
0.0003589
6.862e-06
0.005432
4.432e-06
7.124e-06
0.0001681
0.0003047
0.003843
7.796e-06
9.838e-08
7.553e-06
2.475e-06
2.784e-08
0.0002546
6.936e-06
0.001418
1.378e-06
1.652e-05
0.0002155
7.467e-05
3.569e-05
1.19e-05
0.0002126
8.145e-06
0.00256
3.514e-06
2.747e-08
1.137e-06
0.0001802
2.572e-05
3.004e-05
1.033e-05
0.001062
0.0001114
1.156e-05
8.617e-05
0.003707
8.339e-06
8.145e-06
8.476e-06
0.0001043
4.071e-05
1.882e-06
1.691e-05
7.557e-07
6.009e-07
1.057e-07
0.0001648
6.254e-06
3.304e-08
5.731e-05
6.112e-06
6.76e-05
2.71e-05
1.308e-05
6.04e-11
1.881e-05
2.404e-05
0.003138
0.0002796
1.395e-06
0.0001663
0.003635
0.006698
7.363e-05
7.653e-06
0.0003301
5.906e-06
9.396e-08
1.286e-06
0.0009748
6.311e-06
0.0002342
0.0001331
7.829e-06
3.497e-05
0.0002248
8.57e-06
7.86e-05
0.0001204
3.664e-05
0.006698
1.54e-05
0.0001197
8.054e-06
0.000117
7.62e-06
1.344e-05
4.558e-05
6.415e-06
1.898e-05
7.75e-06
8.136e-06
1.121e-05
8.373e-06
0.0001309
0.0001468
0.0001254
2.912e-05
0.000126
2.049e-07
5.699e-05
0.004702
0.0001131
6.77e-05
8.298e-06
6.552e-06
0.0007269
1.813e-05
4.319e-05
2.069e-05
0.003018
0.000148
0.0002747
0.0001807
0.000215
1.121e-05
8.678e-05
7.627e-07
0.0001804
0.0001868
3.706e-05
0.006676
0.0002763
3.928e-05
0.0001479
3.561e-05
0.006689
0.0001435
5.017e-06
1.341e-05
0.006697
0.0007046
0.0002657
1.8e-05
1.227e-05
0.000774
1.03e-05
0.0002
2.248e-07
3.878e-06
6.491e-05
8.298e-06
2.47e-05
0.0008896
8.271e-06
8.102e-08
3.147e-05
1.112e-07
3.718e-06
3.137e-05
2.983e-06
0.00317
0.006666
1.076e-05
7.211e-05
3.235e-06
0.006698
1.819e-05
3.846e-05
1.304e-08
5.562e-05
6.389e-06
0.006297
0.006452
8.094e-06
4.944e-05
0.0001925
2.227e-06
3.786e-05
4.875e-05
0.0001565
0.006705
7.104e-06
1.683e-06
7.671e-06
0.0002161
1.17e-06
0.0001736
2.08e-05
0.006738
3.301e-05
2.377e-06
7.018e-06
5.741e-07
6.003e-05
1.295e-06
3.791e-05
1.808e-05
7.029e-06
4.355e-05
6.632e-05
0.0001286
6.376e-06
2.306e-06
0.004589
0.005183
7.339e-05
0.0001144
4.245e-07
8.141e-06
2.535e-06
4.237e-05
0.001204
0.005217
6.607e-06
0.006702
7.39e-05
3.772e-08
4.6e-06
0.0001104
8.01e-06
0.0001362
5.122e-07
1.972e-06
0.002048
2.681e-05
3.714e-05
7.623e-06
0.0002578
1.37e-05
6.702e-05
3.095e-05
3.304e-05
0.000184
2.091e-05
0.000107
1.571e-07
2.676e-06
7.236e-05
0.0001084
5.334e-08
0.0001377
4.025e-05
5.288e-05
6.219e-07
6.895e-06
2.454e-05
7.914e-06
0.000151
3.542e-05
0.001031
0.0002893
0.006703
7.726e-06
4.426e-05
6.368e-06
6.283e-05
4.307e-05
2.154e-05
3.05e-09
1.876e-06
3.138e-05
8.496e-06
2.515e-06
1.868e-05
0.0006587
0.0002291
1.086e-05
4.338e-06
9.564e-05
0.0001664
0.0005103
7.579e-05
0.003892
1.006e-05
1.024e-07
7.193e-05
2.274e-05
0.0002699
6.228e-05
2.18e-05
0.006725
1.293e-05
0.0001324
0.0003764
1.107e-06
0.0001876
3.695e-05
9.927e-05
2.969e-05
6.954e-06
1.487e-05
3.105e-06
2.446e-05
6.193e-06
0.006714
0.0002066
1.417e-05
3.354e-06
4.721e-07
1.113e-05
2.64e-05
2.551e-05
0.003109
3.442e-06
2.956e-06
7.018e-06
5.831e-06
8.1e-06
2.358e-05
7.261e-06
2.127e-06
5.558e-06
2.243e-05
1.011e-06
1.107e-06
5.019e-05
5.407e-05
1.286e-07
0.001694
4.711e-05
0.002448
0.006699
5.907e-06
0.001948
3.97e-05
1.078e-05
3.401e-05
1.048e-05
8.125e-06
1.809e-05
0.0001087
2.839e-06
7.791e-05
0.0002791
3.743e-10
6.987e-05
0.0001202
0.0003553
6.957e-09
2.955e-05
1.442e-06
4.202e-07
0.00314
1.682e-05
6.392e-06
8.474e-05
4.213e-05
3.342e-06
2.955e-06
2.668e-05
9.931e-05
6.421e-05
0.0001157
2.996e-05
0.006701
4.796e-05
4.372e-05
5.397e-05
1.428e-05
7.693e-06
1.733e-07
9.354e-05
0.00349
3.607e-05
9.295e-05
6.354e-05
9.734e-06
5.464e-05
9.686e-07
8.316e-06
1.701e-07
6.869e-06
9.236e-05
6.728e-06
3.43e-05
0.0001196
0.0001018
1.785e-05
3.557e-09
4.103e-05
8.122e-06
8.21e-06
0.006573
5.063e-06
4.074e-05
0.0002544
8.78e-05
7.784e-06
2.334e-05
4.263e-06
3.532e-05
3.286e-05
1.114e-07
0.006591
3.227e-06
3.097e-05
7.224e-05
2.265e-05
4.129e-07
0.004949
5.276e-05
5.378e-05
3.285e-05
6.738e-07
2.11e-05
3.27e-05
2.97e-06
0.0001563
8.425e-06
0.006757
0.006747
6.998e-06
1.725e-05
2.114e-05
2.292e-05
7.679e-06
0.006688
2.348e-05
4.903e-06
1.211e-05
0.002368
0.002943
1.023e-05
2.513e-05
6.608e-06
4.946e-07
2.939e-07
0.006114
3.804e-06
4.969e-08
9.07e-05
7.224e-06
4.416e-06
0.00188
0.0001115
2.375e-05
6.277e-05
0.0002324
0.006655
0.006616
0.006638
0.006372
0.0007345
0.0002755
2.449e-05
1.991e-06
5.386e-05
8.686e-05
4.762e-05
2.203e-05
0.006102
5.289e-05
0.0002073
1.219e-05
2.728e-05
7.645e-06
0.0001018
8.77e-06
8.226e-06
1.175e-05
7.029e-06
0.0003514
8.158e-06
4.477e-10
1.676e-06
5.532e-06
2.78e-06
6.939e-06
0.005444
5.212e-09
9.022e-05
1.093e-06
4.745e-05
0.0001107
3.68e-09
0.006696
0.0001892
3.65e-05
0.005058
4.012e-05
0.0001501
2.382e-05
0.0001384
1.435e-06
4.658e-05
4.438e-05
0.006633
5.852e-06
1.153e-05
9.537e-05
0.0001686
1.052e-05
0.006717
0.003067
2.374e-05
4.769e-05
1.676e-05
0.0004233
3.954e-05
3.129e-05
0.0001035
1.626e-06
8.236e-06
3.197e-05
0.000191
0.0002914
0.0001559
0.0001919
1.3e-08
1.916e-06
0.004787
1.725e-08
0.004503
0.006554
3.996e-05
0.001418
1.163e-06
0.0001281
1.955e-06
0.0001786
5.826e-06
0.006697
0.0003662
6.514e-05
7.242e-06
0.0002201
0.003476
5.701e-05
1.165e-08
1.712e-05
0.006702
1.399e-05
1.432e-05
5.958e-10
0.001954
3.2e-05
1.523e-05
0.0001029
0.0004262
3.99e-05
4.891e-06
3.036e-08
5.015e-06
8.16e-06
2.326e-11
0.00499
6.935e-06
2.327e-05
7.122e-06
0.006696
7.62e-06
3.737e-08
8.236e-09
3.749e-07
0.0002069
1.497e-05
7.415e-08
0.0004195
0.0001431
0.00669
4.261e-05
2.795e-05
2.715e-05
4.195e-05
4.447e-07
5.287e-05
0.0001295
1.105e-05
0.006706
0.001997
3.643e-06
2.825e-05
5.543e-05
2.983e-06
3.552e-05
0.0001783
0.0001194
1.175e-05
7.638e-05
0.0001461
0.005144
8.099e-06
1.122e-05
6.95e-06
6.933e-05
7.699e-06
4.011e-06
1.151e-06
1.187e-07
5.273e-06
7.407e-11
4.705e-06
0.000284
1.242e-06
0.0002808
8.044e-06
3.86e-07
0.00458
6.795e-09
0.006705
0.0001021
4.462e-06
1.807e-06
5.076e-05
4.129e-06
7.075e-05
5.145e-06
0.006649
1.767e-09
8.156e-06
0.00211
9.467e-05
0.0001421
1.47e-08
5.985e-06
5.25e-09
2.691e-05
7.667e-07
5.092e-07
1.926e-05
1.794e-05
8.177e-06
1.381e-05
0.006673
0.0001436
8.91e-06
0.000103
9.224e-06
0.0002362
0.0001447
7.969e-06
7.405e-06
2.721e-06
7.293e-06
0.003772
7.428e-06
2.748e-05
9.202e-06
0.0001049
0.002384
6.535e-05
1.06e-05
3.138e-05
3.626e-05
1.048e-07
0.00214
0.002069
6.958e-05
7.131e-06
2.138e-05
0.0002344
2.64e-05
0.006499
0.0002147
8.381e-06
0.00634
7.02e-05
6.026e-07
0.000118
6.21e-05
0.0002155
1.113e-07
1.151e-07
2.596e-06
6.075e-05
6.523e-06
0.0001645
4.296e-05
4.603e-05
2.07e-05
2.603e-06
0.0001837
1.623e-07
7.386e-06
2.351e-06
5.307e-06
4.473e-05
8.284e-09
0.0002911
7.89e-06
1.478e-05
0.002633
9.079e-06
0.0001081
0.001252
1.707e-05
8.532e-07
8.309e-05
5.562e-06
1.029e-05
9.657e-09
2.022e-09
0.0002528
4.785e-11
0.0007357
3.988e-05
9.04e-05
0.0001383
2.191e-05
0.006705
5.941e-06
2.658e-07
6.992e-05
7.167e-06
4.467e-05
1.26e-05
6.23e-06
6.713e-05
0.0001284
2.93e-05
0.0003174
1.974e-05
3.706e-05
0.005148
0.0001296
6.954e-06
0.006701
0.0004932
2.168e-06
0.006698
2.816e-05
5.648e-05
7.174e-06
5.644e-05
6.052e-06
0.00139
5.79e-05
2.935e-05
1.547e-06
2.131e-06
1.161e-06
8.72e-06
0.006687
2.087e-06
0.006716
0.0003288
9.329e-05
5.44e-05
2.859e-06
4.567e-05
8.188e-06
2.573e-05
2.219e-06
2.038e-05
0.0008346
0.0001088
7.543e-05
0.006675
7.526e-05
0.006697
2.747e-06
2.025e-05
4.483e-06
0.0001478
0.006654
3.931e-05
7.742e-06
1.555e-05
6.218e-07
3.556e-05
1.148e-05
0.0003745
3.98e-05
9.452e-05
4.957e-05
4.009e-05
1.16e-05
0.0002014
6.504e-06
0.0001287
3.626e-06
9.86e-06
0.006632
0.006754
0.001392
0.0003109
3.831e-06
1.632e-05
3.507e-05
0.001445
8.275e-06
6.619e-06
8.068e-06
0.006698
5.214e-06
2.523e-05
6.069e-06
0.002318
2.089e-09
1.611e-05
6.627e-06
0.003222
0.0008339
9.807e-07
0.0002474
8.224e-06
1.94e-06
1.81e-06
8.068e-05
4.86e-05
0.006698
4.958e-06
6.776e-05
7.406e-06
0.000174
1.274e-05
4.246e-05
0.0001778
6.076e-06
4.515e-07
0.0067
4.278e-05
9.938e-06
1.802e-05
4.667e-06
0.006702
2.561e-05
2.122e-05
9.306e-05
3.754e-05
2.715e-05
5.475e-06
0.0001611
1.162e-05
5.666e-05
0.0002713
0.0001068
2.451e-05
0.005174
4.519e-06
2.738e-06
0.0001757
0.0001126
1.475e-05
1.166e-05
5.457e-05
0.006696
0.0002224
0.0003551
0.003236
8.725e-08
6.477e-05
0.006698
0.0006894
8.263e-06
1.141e-08
0.006698
0.0002207
7.029e-07
8.061e-06
4.169e-05
3.743e-05
4.117e-07
3.765e-05
5.481e-06
8.362e-06
1.269e-08
1.583e-05
0.001218
8.983e-05
1.293e-05
7.209e-05
0.006685
0.0003801
0.000113
0.0002229
8.706e-05
8.264e-06
5.432e-08
0.0001113
4.933e-05
1.801e-08
2.233e-05
3.501e-06
0.0001804
3.736e-05
0.0001051
7.891e-07
2.011e-07
0.00669
3.237e-05
6.383e-06
0.006698
1.144e-05
0.0001065
8.244e-06
0.0002669
8.135e-06
8.298e-06
7.956e-05
1.756e-05
0.004668
0.001619
9.686e-05
0.000111
0.006777
2.059e-05
0.0002044
3.858e-07
0.0002514
7.66e-05
3.888e-06
8.402e-06
8.209e-05
7.223e-06
0.006714
5.248e-07
8.828e-06
3.992e-07
8.461e-06
6.153e-05
2.263e-06
1.89e-05
3.38e-05
1.405e-06
3.189e-05
8.162e-07
0.006702
0.006691
0.0001461
3.016e-05
0.006685
6.812e-09
7.319e-06
1.564e-06
1.746e-05
1.744e-05
5.7e-05
0.00507
7.471e-09
0.0007914
5.695e-06
0.006758
1.119e-05
4.256e-05
0.0002089
7.266e-05
8.141e-06
0.000131
3.426e-05
0.006662
5.666e-05
5.444e-06
9.06e-07
1.457e-05
0.0004202
0.0002315
2.236e-05
0.006699
3.634e-05
4.811e-05
0.0001684
0.0001918
0.0001592
2.003e-06
0.005927
0.006716
1.611e-05
9.389e-06
0.0002701
2.026e-07
0.006701
3.409e-06
9.212e-05
6.435e-06
0.006701
7.051e-05
8.561e-06
2.117e-06
2.371e-05
8.786e-05
2.305e-06
0.00672
4.225e-07
0.004786
2.661e-05
4.943e-08
0.001045
0.0001298
4.412e-05
6.274e-06
2.128e-07
2.921e-05
7.843e-05
0.006662
2.304e-05
9.977e-05
0.006702
4.115e-05
5.095e-06
2.051e-05
0.006775
0.0002001
6.85e-05
9.984e-05
6.61e-06
0.0001213
0.004035
2.041e-06
5.803e-06
2.98e-05
0.0004388
0.006698
0.006584
0.000767
2.047e-05
7.306e-05
8.325e-06
2.769e-06
3.104e-07
6.064e-06
2.272e-08
8.634e-07
0.00133
3.086e-06
2.985e-05
1.639e-05
0.0001323
7.005e-05
1.428e-05
3.637e-06
3.194e-05
8.614e-08
7.359e-05
0.0003402
8.255e-05
2.747e-06
7.331e-06
1.216e-05
0.0002455
0.0001002
2.947e-05
1.238e-06
0.004145
6.182e-05
3.55e-05
1.694e-05
4.869e-06
3.687e-05
2.497e-06
1.101e-05
0.006666
3.185e-08
6.149e-05
0.006764
4.665e-06
0.006696
2.808e-05
5.171e-05
0.001486
3.409e-05
7.268e-06
0.006707
2.985e-05
2.715e-05
3.868e-07
0.0006372
1.081e-05
7.191e-06
6.691e-05
0.006692
1.26e-06
0.0002309
0.0005482
1.271e-05
5.577e-05
8.363e-06
4.919e-08
8.734e-06
3.698e-05
1.665e-05
4.619e-05
3.479e-06
0.006702
0.0002666
3.947e-06
8.34e-06
5.589e-05
0.006701
1.154e-08
8.146e-06
1.106e-05
0.0001143
0.0001049
2.702e-05
0.00667
0.0004866
6.383e-05
6.552e-05
2.577e-05
7.001e-06
7.233e-06
2.658e-05
6.562e-06
6.634e-06
6.033e-05
4.454e-05
5.606e-05
1.209e-05
2.113e-05
3.209e-05
0.006701
3.123e-05
0.001004
0.0002228
6.216e-05
7.847e-05
4.748e-06
8.557e-05
1.405e-08
1.783e-05
1.348e-05
0.002269
0.006694
5.97e-05
1.426e-05
1.138e-06
2.075e-05
0.000124
7.417e-06
6.459e-07
7.947e-06
2.185e-05
3.288e-05
3.656e-06
7.885e-06
1.239e-05
7.697e-05
8.228e-06
5.243e-05
2.568e-06
2.405e-05
2.472e-05
0.0002845
8.147e-06
0.006694
0.000104
0.0006941
0.006692
7.977e-05
8.248e-06
0.0002918
1.254e-11
7.147e-06
3.886e-05
0.006699
8.435e-06
5.432e-05
0.003016
1.477e-05
1.199e-05
1.389e-05
9.112e-05
2.037e-05
0.006698
2.814e-05
0.00672
7.863e-05
3.842e-05
2.504e-06
6.182e-05
3.814e-06
2.109e-11
0.006603
0.006694
1.115e-05
5.848e-06
8.437e-06
0.0001809
7.324e-06
8.186e-06
3.292e-05
0.0002006
0.001279
3.448e-06
1.527e-06
1.431e-05
0.0001764
0.00669
8.352e-06
4.903e-05
7.408e-06
7.784e-06
6.451e-05
0.0006642
2.711e-06
1.515e-05
0.0002786
5.771e-05
4.075e-05
8.325e-05
0.006709
0.006334
7.418e-06
5.078e-07
1.775e-05
2.953e-05
0.0001492
0.0002685
8.096e-06
2.28e-05
0.006632
4.955e-06
1.299e-05
5.351e-07
1.776e-05
1.451e-05
0.006685
7.907e-06
7.028e-06
1.537e-05
2.644e-05
7.075e-06
2.308e-05
8.217e-06
5.945e-06
8.188e-06
8.146e-06
9.536e-07
7.193e-05
0.002037
3.98e-05
5.734e-05
4.27e-08
0.0004868
0.0002775
8.642e-06
1.27e-05
0.0002344
2.236e-06
4.608e-05
5.387e-07
8.414e-05
9.507e-07
1.624e-05
6.657e-05
2.931e-05
5.296e-07
0.0002191
1.81e-06
1.945e-08
0.004869
1.661e-06
4.227e-06
7.726e-07
1.472e-05
7.892e-06
5.785e-05
9.741e-05
8.473e-06
3.329e-05
2.928e-05
1.451e-05
0.000148
0.0001753
0.0002756
0.000154
1.258e-05
0.0001454
6.886e-05
5.69e-07
3.645e-05
2.267e-07
8.374e-06
7.798e-06
0.006657
3.456e-05
6.775e-05
1.21e-05
3.636e-05
6.844e-06
3.76e-05
4.655e-06
0.0001029
1.856e-05
7.483e-05
3.22e-05
6.594e-05
0.0005883
0.0001305
0.0001173
1.768e-05
0.0001378
0.0001032
1.799e-05
7.513e-06
0.0001976
5.546e-06
2.06e-05
2.218e-09
2.622e-05
3.692e-05
0.0001231
2.087e-05
9.366e-05
2.344e-06
0.003993
0.00217
0.005359
0.0001959
8.31e-06
5.112e-05
0.0002257
4.79e-06
0.0002309
4.765e-05
9.571e-10
7.453e-06
5.618e-07
6.308e-06
7.025e-05
7.42e-06
5.947e-07
0.0007182
2.861e-05
0.006698
9.455e-06
8.905e-05
5.382e-05
5.367e-05
0.006685
0.006678
4.562e-05
7.06e-05
0.0001089
9.722e-07
8.091e-06
0.006679
0.006698
9.092e-06
0.0002119
3.854e-07
4.767e-07
0.005824
4.178e-05
6.863e-05
1.837e-06
3.041e-05
1.073e-06
8.232e-06
0.0002255
1.029e-05