/*--------------------------------*- C++ -*----------------------------------*\
  =========                 |
  \\      /  F ield         | OpenFOAM: The Open Source CFD Toolbox
   \\    /   O peration     | Website:  https://openfoam.org
    \\  /    A nd           | Version:  8
     \\/     M anipulation  |
\*---------------------------------------------------------------------------*/
FoamFile
{
    version     2.0;
    format      ascii;
    class       volScalarField;
    location    "10";
    object      omega;
}
// * * * * * * * * * * * * * * * * * * * * * * * * * * * * * * * * * * * * * //

dimensions      [0 0 -1 0 0 0 0];

internalField   nonuniform List<scalar> 
127143
(
2.183e+06
4.105e+06
4.682e+06
1.997e+06
1.676e+05
2.021e+06
6.622e+04
1.157e+05
1.848e+05
2.697e+04
9.739e+04
1.521e+05
5.509e+06
1.69e+06
123.2
5915
5.655e+05
2.082
12.1
4155
61.1
4472
0.1325
150.9
4546
625.8
1742
1916
1244
0.9978
245.2
639.4
4181
472.1
0.05934
4049
58.48
6.117
104.3
713
12.07
2.381
1.473
7.844e+05
2.084
462.4
1184
71.51
129.5
118.8
5021
0.02888
58.44
0.4263
0.02097
245.9
0.02096
0.42
0.023
0.4218
0.9623
18.15
35.85
0.02211
627.2
1.036
0.0734
42.64
42.49
0.06842
178.5
1721
39.44
0.02299
0.0218
1846
0.0246
84.08
242.7
0.02222
1031
3685
331.6
583.7
50.94
82.87
77.25
2338
0.8536
441
0.02395
0.636
245.5
61.09
192.9
0.7296
2.102
316.8
87.91
0.07206
0.02221
121
1935
2.335
83.6
90.12
40.79
0.06864
4.248
0.02133
120.7
2365
103.7
34.37
0.02183
1.388
0.02493
0.0218
0.0244
1.645e+04
0.02134
262.4
13.42
0.2297
1051
759.3
30.52
0.02561
152.8
235.2
121.3
187.7
19.82
83.93
6.406e+04
121
0.06794
36.53
502.8
0.0608
0.2186
0.02362
33.88
19.31
56.35
68.6
5986
0.02213
188.4
2713
4.636
108
4.891
0.1175
42.62
51.72
0.4196
266
71.51
425.4
158.7
5338
0.02402
121
545.1
594.1
63.5
1.598
1832
0.03029
95.28
19.29
1.809
7.623
0.2052
32.15
59.82
152.3
125.7
0.03678
7.611
0.03821
29.56
32.05
236.7
17.3
0.1945
36.58
138.4
0.03649
92.21
195.2
0.06105
134.6
1.171e+05
25.56
0.01955
0.01949
1.659e+04
0.02207
0.02183
0.03031
0.218
58.95
6.339e+05
60.03
0.06432
6.754
0.8189
0.02183
0.2441
44.12
0.02185
1839
126.9
1.441e+04
277.1
7.017
138.8
0.06466
48.43
0.02185
107.9
48.4
412.8
120.1
420.1
5.91
80.65
59.17
66.43
0.0379
34.58
1.126e+04
66.28
0.1166
121.5
2.561e+05
0.02183
68.1
184.6
575.9
46.16
262.9
15.65
1.304e+04
64.03
1679
9734
0.0823
12.77
611.1
8.57
36.88
169.2
4.328
0.02552
1299
3.785
0.09275
23.79
0.03082
0.596
0.02345
39.57
608.1
106.2
55.59
2.031
5.279
453.3
0.2034
68.93
68.74
22.43
86.04
103.2
93.02
0.3452
3.936
0.04738
2.181
2.298
0.02179
0.02181
1.085e+05
155.9
0.02185
105
0.03835
4.62
0.4175
0.1163
2.45
0.02223
7.222
217
37.48
46.32
4.583
326.3
0.8407
0.7218
1.275
488.2
26.78
6.72
0.02188
4.492
9.658
45.24
71.66
305.9
0.0383
0.02182
258
9.82
319.3
0.3287
0.7184
0.1233
190.7
0.03343
8.59
269.4
16.17
0.03902
120.5
203.3
50.11
39.14
0.02181
0.05814
0.01956
0.01951
0.1143
4.108
1.806
39.19
137.8
0.05889
7.02
44.31
77.68
28.08
104.7
262.3
137.8
314.9
196.3
274.7
5.805
36.76
85.49
0.03386
219.6
36.84
52.52
0.02461
203.2
62.86
30.19
0.8024
112.4
116
0.02193
0.02205
1.037
409.4
0.3826
4.782
0.03365
448.1
126.3
0.03452
0.1236
199
8720
80.37
0.3231
1.286
731.2
238.2
0.8317
0.02478
1770
0.05042
682.6
26.91
3.602
0.02233
0.4423
87.8
155.2
136.9
235.5
0.4594
199
0.03355
0.0303
597.1
0.02185
51.77
29.86
0.05227
6.915
84.64
17.99
0.02222
108.7
12.08
304.3
0.221
73.64
11.73
191.4
109.5
466.3
6.009
43.58
63.29
398.8
134.4
0.06338
59.91
0.1128
1.23
0.1349
538
0.07951
0.02116
128.3
37.22
0.3908
28.48
0.02192
8.01
278.4
0.02843
0.0222
0.02173
102.8
0.06899
4.943
0.02646
313.8
0.02189
50.16
1.059
44.09
75.22
207.2
5.86
446.2
0.05043
53.78
360.7
461.9
62
4.171
16.17
70.85
7.516
14.09
81.68
0.1599
0.02265
53.15
184.2
0.02079
67.96
0.6215
0.2296
9.345
0.05464
0.02029
46.31
0.5723
81.67
28.6
885
48.31
362.7
308.4
9.944
28.43
20.09
0.02171
340.5
0.02373
164.7
68.48
68.08
70.58
1.977e+05
117.5
11.5
0.1312
21.18
0.02176
853.7
0.02272
45.63
23.33
2.882e+05
1.481e+04
4.684e+04
0.02194
218.2
114
0.02181
51.39
16.78
88.99
2.589
76.67
209.1
67.95
771.3
0.1375
38.53
9861
58.99
317.4
83.74
0.02275
4.25
0.1835
6.426
0.02416
361.9
3470
97.13
0.01972
53.09
0.1333
117.3
11.76
2755
4.913
0.02395
60.28
7.923
0.02082
0.836
4.878
186.9
111.8
188.5
117.9
26.3
10.44
30.49
74.77
128.1
0.02247
591.4
134.4
322.3
22.53
50.6
0.02213
0.02207
0.08529
261.9
30.31
0.02185
0.02703
5.593
120.6
82.03
9.922
117.8
388.1
2.071
0.0238
0.02134
100.4
79.41
19.33
0.02998
1687
16.4
169
0.3201
454
0.02185
84.6
30.28
3.335
0.02377
86.49
23.83
2125
0.02027
37.89
272.8
0.02172
6.901
0.02187
73.35
20.04
0.02179
265.5
179.3
58.62
158.3
27.04
275.6
238.7
39.79
94.55
202.4
107.7
41.18
55.73
405.7
0.02597
249.4
0.02179
23.89
0.02607
32.83
0.02117
0.02185
0.5145
43.37
92.3
0.02134
0.02117
75.65
2482
301.8
293.3
52.79
4.868
71.21
12.68
75.94
137.1
739
0.02137
348.6
69.54
0.7165
2.106
0.02437
0.02699
14.11
412.2
20.09
1052
0.02596
0.03388
102.3
357.1
0.02988
568.4
0.1941
0.1536
150.8
3.558
63.64
0.1782
4.946e+05
108.6
62.39
53.9
155.7
236.4
420.3
357.8
0.0275
132.2
34.78
51.51
0.02122
88.49
0.7137
0.5816
0.01971
0.0212
562.8
0.1314
218.9
204.4
30.4
4.495
1.604
352.6
0.1629
146.8
0.02169
0.0209
16.94
0.1186
390.7
0.4944
393.6
49.21
84.35
0.2037
0.7465
0.03032
311.3
0.05491
179.5
6.959e+04
14.98
34.5
76.45
0.02472
30.44
115.5
649.6
3.954
12.83
75.81
2356
109.4
40.21
16.14
121.3
38.18
9.603
30.18
0.4607
1.067e+06
0.7012
0.02986
40.47
18.02
67.93
0.02156
29.16
5.474
81.72
0.03607
1007
132.7
443.6
0.03655
365.5
46.9
303.8
229.5
0.03121
79.58
65.55
233.9
39.69
0.02216
44.34
79.79
0.02224
6.903
1.191
222.5
117
0.7143
15.04
538.3
102.4
0.01935
79.6
27.78
647.7
301.3
0.4706
50.42
114.4
0.01942
89.12
148.9
28
7820
27.44
93.27
86.5
44.26
2.377
0.02193
7.981e+05
127.2
147.9
149.5
68.69
66.83
93
141.3
0.02132
5.29
2.326
0.03176
105.2
164.5
41.66
13.25
0.02049
68.51
32.71
0.0217
0.02044
2.111
20.39
52.88
63.67
83.05
3719
3.418
0.3849
0.02124
99.69
60.98
214.7
403.6
1.287
0.04775
0.02257
3.211
1794
0.02126
0.1879
151.4
28.66
584.5
0.02305
37.08
31.52
0.02182
310.8
0.02121
25.95
1517
323.8
18.45
926.8
0.02334
209.5
0.1998
362.3
43.05
431.5
3171
0.4649
0.8472
2.858
1381
0.02181
2.942
196.1
780.3
35.35
924.6
0.04605
0.1748
102.5
605.5
1818
144.3
1.985e+04
454.4
3653
172.7
124.9
4.477
1594
0.02451
54
0.02535
0.02334
42.39
0.0291
148.4
20.88
32.15
0.8758
0.04507
350.8
42.42
0.02233
2.041
69.87
0.04299
305.9
2163
30.38
5.687
125.5
11.92
69.37
0.02173
68.09
180.8
0.02436
239.4
124.4
14.84
0.0207
1.754
1.419
7178
4.915
2186
59.02
14.06
32.59
328.5
431.1
0.02159
458.4
1.21
0.02307
5.303
7292
1.884
751.9
6.085
1.712
556.2
3333
147
0.02371
0.02184
6.065
9.25
74.14
298.1
71.77
603.7
189.3
0.1293
591.2
0.06489
1118
0.02161
73.88
76.92
31.87
172.1
83.31
0.02179
0.02236
109.8
0.2994
55.34
133.2
67.29
64.12
15.36
185.2
306
879.7
50.5
276.9
173.5
6.273
62.07
137
67.42
115.3
2979
86.57
0.02156
0.02143
71.75
52.57
0.8465
0.02094
14.31
71.22
0.5603
71.71
12.44
124
13.1
0.02223
0.4693
0.5907
1272
470.8
43.32
0.6672
2.587
416.8
142.8
15.59
36.58
17.12
73.42
62.38
772
0.02439
478.9
316
26.51
144.2
137.2
0.0219
771.9
1249
0.02095
0.02155
84.05
82.97
9373
36.65
52.09
114.8
96.51
0.5124
0.5406
0.02513
110.2
45.79
87.23
2.146
144.9
73.54
0.02398
855.3
51.71
0.02172
355.7
0.02269
0.02169
10.36
0.1448
2252
0.02158
305.8
0.02182
190.7
0.1176
2.027
3.426
247.9
184.6
148
20.48
0.05049
0.0412
30.42
99
66.07
104.7
1035
112
1005
170.2
149.9
690.6
182.8
602.5
0.3177
3.795
0.03146
329.7
32.29
397
0.05228
53.16
38.75
44.19
33.82
98.24
0.8244
361.9
13.11
44.27
54.8
278.3
43.81
0.02076
13.08
331.8
0.02286
254.6
550.4
0.02083
1.979
41.44
0.04005
0.3452
9.435
95.13
0.253
0.01992
219.9
138.7
0.02179
0.2213
0.0373
73.69
167.1
4.01
0.04072
77.29
2127
246.4
137
48.32
1558
0.06157
79.84
0.02178
110.2
12.45
252.4
33.76
73.17
799.8
0.02197
9517
174.6
222.1
28.75
1026
16.36
3.252
504.4
34.93
0.04138
1.917e+04
49.71
144.3
353.2
89.46
35.13
59.2
218
44.18
83.1
20.15
206.3
167.2
2
1767
0.1341
49.89
0.1288
252.7
0.01985
0.02166
12.21
1637
77.69
0.2091
750.9
85.37
0.02181
2597
52.23
15.33
2170
2.953
52.66
1.927e+05
2.04
285.1
46.73
39.1
878.8
161.1
417.5
9.838
335.9
0.08959
0.6592
5.275
123.6
4.188
52.36
54.93
449.3
64.8
0.3825
55.29
2.149
1.293
5.148
1682
0.052
1650
295.5
60.5
84.94
0.02181
35.72
112
1.637
152
338.6
497.8
0.02136
192.8
88.06
93.65
870.2
65.25
5.296
72.78
0.02242
84.13
70.27
2853
234.1
0.1001
37.37
0.02265
2356
998.6
65.16
0.8403
4.053
0.0208
0.01984
61.08
37.22
14.9
0.1249
0.04157
0.04496
22.01
116.5
6.158
352.6
130
938.2
1.488
434.5
52.72
98.32
0.01987
244.4
41.8
22.94
1136
4.87
12.55
94.07
30.03
71.48
2958
1.165
119.1
57.91
12.94
2.58
113.1
2454
0.23
64.61
0.0212
146.9
691
0.02037
795.5
15
69.55
200.1
0.02139
1.712
1.054e+04
0.02191
112.4
141.1
45.54
1026
0.9511
2.345
70.27
554.2
91.75
279.6
0.08285
33
164.5
3452
174
114.9
0.0217
172.5
5.294
353.8
169.1
27.83
103
0.02215
1.505
83.46
0.02425
49.1
0.02131
2261
53.68
1560
67.79
40.8
861.6
90.67
87.67
141.7
4866
150.7
111.3
29.28
63.19
68.98
0.02211
43.36
0.02301
40.44
0.02201
54.51
0.02148
268.9
50.76
0.02081
0.02173
40.36
0.2308
209.2
0.1406
0.02022
9.364
121.3
0.04009
5.063e+04
260.7
5153
87.35
19.36
157.2
89.42
29.24
0.328
764.3
36.92
114.9
531.4
116.4
52.9
10.13
0.02156
4827
137.3
659.3
0.02181
1027
39.68
158.8
54.15
0.01977
0.01975
0.3851
1.13
5.582
25.53
31.56
1.176
2.599
0.6568
2
502.3
28.26
2.901
85.85
2.661
583.7
182.4
33.33
170.7
73.27
0.02242
31.5
39.79
1011
45.42
0.0402
24.11
1.068
74.56
36.93
686.3
0.808
0.02174
57.64
11.05
1222
479.2
0.849
128.3
172.8
0.1711
0.01973
503.7
202.1
5471
0.09155
1789
51.52
0.02155
276.8
81.34
20.03
0.2517
32.54
75.91
26.54
107.1
45.69
136.8
0.05182
39.78
242.7
295
0.04314
0.04305
195.3
20.07
6224
98.61
339.9
364.8
4853
0.7673
67.88
0.02786
0.02201
0.02151
68.29
0.02188
1353
0.02174
4353
0.5321
17.64
53.68
262.8
0.07326
1719
0.3322
181.5
67.78
902.6
0.0228
234
109.5
58.97
183.8
78.38
92.52
539
644.1
0.05593
0.02061
394.5
0.06036
0.02017
0.5142
260.3
0.02061
650
0.02185
60.73
27.73
33.47
134.3
0.02098
78
267.1
95.23
0.1113
5.639
0.2961
0.02179
0.02123
82.69
2.082e+04
8.685
43.94
0.02686
813.8
0.5151
0.1142
0.04821
2.707
98.32
245.9
0.02805
38.27
0.0236
92.55
0.02217
0.9297
27.67
29.29
24.03
334.4
191.9
0.02123
28.61
547.2
86.85
957.3
436.9
8.131
0.03902
5.103
8525
40.87
498.3
562.7
0.0569
0.2695
0.02164
179.6
84.24
81.27
0.02181
76.74
0.02176
0.2631
91.92
0.02154
6.968
0.4674
14.11
34.99
0.3193
168.2
0.0219
148.4
467.7
2.169
12.45
82.91
0.04666
14.72
36.77
74.2
18.25
47.27
303.3
139.9
243.6
575
0.09843
0.3382
19.01
0.04136
117.2
94.8
0.1675
39.2
0.02678
0.1428
140.5
1.42
13.86
69.21
1076
63.48
916.3
0.8684
0.02066
905.9
62.86
0.1309
187
0.0318
26.49
0.02223
18.26
835.9
40.5
12.39
27.17
69.45
0.02187
30.48
0.7499
9.049
1264
0.0282
48.11
521.3
0.02161
0.0288
35.14
0.05749
53.56
2.574
2.056
16.26
0.7733
46.22
0.06034
0.9547
143
0.02077
0.2966
1350
845
0.02099
74.03
1121
5.129
555.4
35.65
81.58
822.4
0.0494
0.08996
38.4
0.02833
540.7
14.28
51.21
742.4
278.8
0.02757
308
1.442e+04
4.755e+04
29.63
39.31
246.6
0.7299
65.83
5.974
44.44
254.2
58.19
38.61
29.94
541.8
95.22
1.171
0.02184
426.7
1.183
111.7
0.5097
0.0582
61.64
29.51
4.992
0.02055
182.6
443.2
8.828
448.5
54.96
1108
128.5
0.03111
242.8
476.2
63.19
51.09
1469
0.0194
2595
122.8
80.97
0.0256
71.38
56.63
303.2
354.2
48.66
414
0.02583
7.594
95.11
0.06508
56.58
0.02193
210.9
2679
75.28
405.7
5551
57.43
1074
0.08011
335.5
6.109
44.04
0.0483
8.026
16.23
55.54
57.71
0.04783
38.32
3355
5356
59.24
2.919
1.091
1.784
0.0224
0.02942
116.5
0.5254
0.02246
38.04
64.45
136.2
58.68
4.899
69.68
13.36
645.8
955
1314
0.121
44.1
2619
25.65
212.3
2.865
6.606
32.34
3.387e+04
8.951
7.153
0.03509
0.06988
734.9
55.34
0.02181
0.02196
43.31
390.5
50.36
49.55
1950
27.62
0.02719
369.2
47.97
51.54
615.6
0.5266
1.756
56.22
154
0.8594
195.9
0.02189
75.64
25.37
395.6
0.8175
105.7
549.7
2.141
386.9
11.8
252.3
69.34
142.5
0.1675
44.35
80.79
95.29
365.4
54.24
1376
99.62
0.02182
55.12
2.86
314.9
27
0.1849
11.73
0.1526
827.2
0.03805
51.81
32.69
49.31
57.47
30.7
0.2423
918
0.2923
0.02779
107.3
0.02092
59.65
0.03947
0.8936
24.97
0.02152
0.4015
108.6
134.8
0.02178
0.02516
53.5
9.713
319.8
0.236
25.23
47.12
321.4
229
1.144
38.51
8.838
0.1029
53.58
2346
16.28
2001
196.9
19.28
1027
0.02183
0.02062
2.489
2.392
5279
0.02181
11.57
114.8
1.429e+04
140.4
248.8
0.01959
0.01917
183.9
206
40.43
40.54
0.04178
2.419
1.174
0.02222
365.9
67.25
37.36
40.28
680.6
0.3141
3.331
0.01993
5.414
63.31
339.1
152.1
172.8
235.5
79.14
107.4
57.9
331.8
172
0.09374
61.49
414.4
0.02587
0.02334
98.58
52.78
1064
3.649
93.78
255.7
0.117
0.02179
9.435
0.02211
101.1
1948
52.26
0.1945
22.92
0.05766
408.4
290
0.05537
6.629
4.984
43.8
49.03
17.29
150.5
136.6
93.61
75.92
8.437
42.49
415.3
47.68
138.7
41.06
3958
52.39
85.23
94.73
15.7
4.074
7.751
1117
0.5338
286.3
0.02336
61
0.02214
68.24
16.8
1057
133.6
0.1333
281.5
3069
432
83.63
30.14
315
1509
0.2014
48.66
17.55
1964
123.1
90.54
0.2689
0.4685
0.02182
27.72
2611
2.609
75.74
56.45
0.1408
1039
0.01986
18.59
0.5998
45.98
187.1
0.2466
2.373
23.86
0.05298
38.06
12.31
1015
104.5
111.8
0.02157
61.79
100.1
280.2
862.4
17.97
9.316
148.3
0.02187
122.6
90.38
8.239
16.4
38.62
805.1
315
86.2
70.79
0.7353
6.737
492.3
3.787
0.1144
1320
0.05692
0.7338
0.0219
0.02199
68.6
0.0224
92.7
19.05
1.125
30.47
309.8
858.9
100
73.22
123.9
50.88
8480
97.85
117.9
0.7133
3307
26.76
509.9
1187
0.03501
222.9
292.2
2.21
39.96
288.3
232.3
167.2
75.74
98.22
0.03061
7.316
0.02207
1.12
38.58
55.37
17.22
49.49
1678
50.3
0.02242
343.7
109.8
3.103
22.74
111.8
82.72
256
383.4
925.6
76.97
105.7
77.47
115.3
69.59
0.1119
4137
388.8
38.99
3.577
0.02264
138.3
332.9
65.56
2.146
963.8
378.9
127.5
2.717
116.5
2027
0.02262
232.2
17.71
0.04907
9.937
181.8
0.02184
256.3
40.17
5.892
4916
6.115
161.4
3322
96.14
103.3
0.01985
0.0198
97.76
13.49
3.606
707.2
56.54
0.02152
791.8
337.3
64.24
0.02259
0.02243
68.41
4.171
94.76
1.122e+04
205.1
0.02407
245.2
1751
0.1241
248.7
142.5
0.06904
0.9996
176.2
0.9146
45.71
0.01966
0.01944
0.01946
0.01962
0.08547
34.95
7.76
104.3
3.403
63.23
79.54
869.4
0.02039
164.2
59.83
127.6
594.3
179.3
32.97
30.04
141.3
54.11
68.38
0.1127
43.06
6286
68.71
698.7
0.8634
27.49
0.02178
3447
123.4
129.2
3.671
0.03749
2830
0.0218
55.9
597.7
0.02876
235.7
73.39
34.87
49.37
181.7
0.05742
135.1
0.02069
6.307
94.86
76.11
72.45
17.09
0.02166
0.02192
0.3441
52.16
220.3
0.4156
48.41
247.9
1.832
236.8
142.9
6.24
43.59
33.7
91.44
0.2195
3377
0.9917
0.02179
1168
0.02179
0.0228
0.3766
0.07988
288.9
61.41
402.7
80.55
135.3
0.02188
0.1032
63.5
83.23
61.67
0.03845
0.3842
1.006e+04
914.8
0.02213
1528
874.9
9197
0.05734
6.162
14.73
0.1096
0.02566
4.911
104.9
7418
0.1374
274.2
3.649e+04
0.02179
154.2
716.4
54.51
0.02179
328
8969
4803
1123
0.4994
16.08
2449
0.05908
84.6
0.02155
48.25
1007
7.27
247.8
1088
0.2643
29.88
17.32
0.02225
0.034
201.5
381.4
3.501
299.4
202.2
1.031
42.46
54.3
66.88
75.43
0.0218
55.27
75.05
84.32
106.5
25.98
191.9
81.68
1433
1644
2.038e+04
218.8
0.0561
152
0.02769
346.5
289
0.02181
2.223e+04
0.02221
86.04
1213
544.2
85.05
132.3
71.6
39.34
0.01965
9355
37.06
0.04656
35.66
52.27
1817
853.2
3279
24.02
166
944.7
34.48
0.1159
37.35
1523
0.02089
77.84
28.13
40.97
25.61
46.05
23.1
663.4
52.03
47.65
977.3
0.04246
622.5
0.1303
20.72
70.7
0.0266
0.145
18.25
419
395.6
1376
0.04518
0.02221
2.597
95.71
1582
63.04
9.337
0.01932
0.03437
391
0.01976
130.3
133.3
0.09058
167.1
46.11
2079
1467
862.6
0.04153
230.5
62.2
274.5
4.259
12.53
991.3
67.13
300.4
103.9
316.7
86.1
2.064
1878
36.1
37.96
59.81
0.04078
23.38
0.1895
0.02225
10.57
155.8
123.2
78.3
20.75
2687
4211
48.33
3.119e+04
0.1869
0.3865
0.03775
0.06733
9.888
0.02221
38.68
1231
89.86
330.8
1.588
19.06
35.41
159.2
45.83
535.4
51.42
2361
273.1
0.02435
51.76
39.19
0.02204
0.04314
479.9
0.02186
308.9
182.3
100.5
3.52
617.5
0.07468
0.707
0.05169
237.9
297.3
144
25.45
0.02144
86.67
0.02165
0.3443
109.5
3.121
978.2
190.7
270.9
7.652
2715
1.142
0.1612
82.92
105.3
0.02085
2.565
0.02185
323.3
350.5
122.1
71.56
0.0217
257.7
171.1
168.9
704.5
353.2
157.8
0.0247
1.127
2.001
2.236
376.9
15.64
0.09995
5.395
0.172
24.31
137.3
0.02072
0.02044
0.02285
0.04274
0.3059
106.9
170.4
0.02212
94.49
13.13
62.09
0.02194
127.1
0.1163
456.5
0.05851
6200
14.72
511.2
0.03477
0.1027
873.3
0.03183
60.65
60.93
74.45
116
190.1
0.02183
122.7
65.59
53
60.83
81.85
4.12
84.92
25.74
831.9
0.02154
48.55
18.2
1934
0.2065
0.02209
497.4
583.5
70.45
56.22
6.598
805
0.05401
15.92
52.91
54.3
41.45
5.347
0.02426
10.93
1075
104.8
41.31
1039
3.285
3.758
0.02168
0.03112
0.1465
0.03608
7058
142.5
0.02195
0.02379
40.83
4341
0.02194
76.47
573.8
60.98
3.546
293.7
1059
191.9
45.74
281.1
2808
518.8
0.02231
124.5
18.58
159.6
0.02139
0.3689
89.94
50.92
76.93
3215
676.5
1.5
214.5
2676
9.213
75.94
79.61
1.891
0.9744
419.4
1603
0.02158
399.8
49.96
0.02194
763.2
59.37
4.065
0.08168
37.76
242.8
112.3
12.58
0.02192
0.02203
2.017
41.72
0.02021
2.575
0.02794
292.8
40.29
51.96
182.8
447.8
2.044
53.66
0.02156
1046
16.55
1173
206.8
0.1158
485.4
5.965
309.3
820.9
10.36
766.9
0.02082
0.02125
98.5
0.07742
0.0214
2006
86.29
89.53
165.2
13.33
109.2
0.02418
1945
0.04439
27.17
0.02043
0.2374
129.7
67.93
121.7
37.82
28.28
97.04
0.02048
126
234.2
410.1
1022
0.1506
38.28
7.708
0.02195
82.78
197.6
0.185
0.05315
33.33
844.4
0.0213
0.02166
11
178.7
54.46
1621
0.02206
271.7
128
51.36
0.02208
0.09481
335.7
66.13
186.9
78.9
28.11
0.02054
173.5
0.0258
358.4
1369
0.07767
52.28
27.49
179
849.4
92.64
0.07284
0.02048
113.7
0.2535
0.02168
424.8
93.64
10.27
0.02052
0.0886
0.1184
0.03078
44.45
92.34
0.02181
304.8
27.64
84.52
0.02969
0.02191
0.02169
0.05562
11.04
2.68
239.9
1046
1409
25.82
2466
635.9
0.02548
963.7
156.2
165.4
28.25
0.1954
2.145
268.2
534
510.4
88.28
0.06452
93.96
68.14
43.52
8.707
0.2475
57.77
0.2647
93.39
0.02927
101.8
5.674
4.357
0.6118
590.6
1610
866.4
0.02062
4724
104.9
0.02015
113.2
0.02182
132.8
174.8
0.1037
480.5
30.88
0.0223
1.914
7.281
1134
0.0238
0.2623
858.7
2.654
0.02158
587
65.66
0.03519
0.2486
3.549
74.36
2699
222.2
173.1
14.84
51.41
1.839
0.02174
0.05162
58.53
43.13
180.1
0.02207
2322
98.23
17.61
38.7
109.6
175.5
0.0202
0.06575
113.9
171.3
0.05832
48.96
251.5
7.366
4.213
7.222
23.92
0.04942
18.61
15.94
10.42
6.055
0.02205
169.7
0.1313
65.13
3.202
2.225
248.2
150.6
5902
11.93
1.055
0.07119
0.02123
3.047
12.69
628.3
1067
74.38
164.9
268.5
44.72
0.9184
158.1
205.4
733.9
77.32
0.05229
414.4
1.188
401.1
7.132
19.52
39.46
99.21
0.02179
53.63
0.2469
0.02165
0.2875
410.3
1.078
4.138e+04
233.3
88.57
0.02168
34.44
252.3
0.03816
59.58
84.22
132.2
66.98
144.8
0.02188
228.9
0.02074
2.22
319.6
55.58
3.071
212.8
3e+04
0.02193
0.02175
15.36
30.36
364.5
1.006
111.3
267.1
6.26
64.11
0.02222
178.2
505.8
0.1275
78.44
0.02157
23.63
0.07081
53.14
163.6
159.5
0.2883
86.89
16.04
0.02871
101.9
260.8
0.244
0.02154
0.02387
165.9
1029
10.24
6.871
91.37
9.006
73.18
8.094
0.01939
0.4176
1.276
1639
1579
286.2
0.02135
226.2
57.68
138.1
101.3
1107
3.343
49.41
42.24
28.24
275.7
694.7
0.9672
0.05528
8.768
0.03825
3013
0.02379
54.64
207.2
15.04
63.66
264.4
132.5
492.8
40.09
198.7
14.2
2.657
459
1587
69.22
888.4
1547
0.0218
983.3
128.3
384.9
565
46.87
1.59
57.11
36.49
5.745
0.05074
28.6
66.31
40.95
45.19
91.09
1.135
1.231
0.7703
1016
115.5
1442
42.81
230.7
0.02028
373.4
170
508.1
29.98
970.7
324.2
127.3
0.1091
867.4
0.0957
51.2
98.33
0.07423
0.7175
86.39
10.24
42.44
66.03
9.4
75.49
64.52
1077
8.758
6027
0.04856
5.595
52.25
12.22
0.05852
262.5
0.02182
0.02262
0.02178
65.47
64.13
54.98
0.4756
0.1636
51.61
0.05123
5381
507
968.9
100.5
0.09537
277.8
627.3
0.08397
132
0.02187
27.98
20.53
73.2
2.235
0.0213
0.02192
221
23.19
0.04641
1039
67.23
0.02097
0.02182
28.16
0.03698
177.2
1049
0.02476
3.42
72.88
268.1
485.9
1087
10.09
0.1894
20.57
126.9
0.3246
342.5
9.074
2.544
244.1
82.86
3.152e+04
0.03167
24.11
156.1
1314
0.02184
78.37
0.02181
13.55
2.958
11.21
46.56
122.2
53.13
0.2467
397.8
88.74
143.5
279
280.5
89.5
1.381
30.41
337.7
53.05
116.1
0.02123
922.5
992.5
422.5
19.78
3.946
432.1
222.7
0.4906
0.1459
7872
66.44
0.04341
0.02872
0.04533
156.9
297
3.207
994.3
5.924
0.0329
43.75
26.34
40.1
182.5
5606
589.9
50.21
237.1
65.55
122.7
128
65.85
19.67
17.21
435.6
65.07
0.4469
57.57
243.9
0.2014
21.31
1.111
4.907
1073
79.2
0.02204
914.5
9.434
1173
101.4
0.02156
0.139
271.7
0.03441
80.56
330.6
664.8
15.85
0.02317
0.2622
31.75
55.26
0.09709
154.2
0.02078
227.5
70.81
75.38
44.66
156
160.5
136.8
902.7
0.426
39.24
0.02183
1449
0.04796
0.02631
52.23
0.02216
35.01
47.25
1.927e+04
0.02196
75.9
39.68
186.9
150.4
0.252
107.9
50.51
129.9
616.6
94.82
0.1232
0.02264
57.38
335.1
12.66
49.87
104.1
95.44
3.117
0.02116
43.02
68.88
2230
18.47
100.6
3.905
85.35
0.02151
8.225
984.3
391.6
0.02198
0.2917
97.69
0.01994
33.22
440.4
34.94
0.02195
0.02201
15.09
0.02488
0.02014
0.02174
17.09
245
391.9
0.3812
60.89
4.736
0.8606
0.02225
69.22
21.61
0.05043
1.049
385.6
2.245
0.02917
114.4
120.8
10.17
922.6
2498
0.02867
37.32
12.89
180.5
140.8
231.7
0.02194
23.58
1010
2.487
47.67
0.4992
533.3
104.9
75.3
5.598
1165
0.08636
2792
96.28
0.02902
0.03542
0.02
55.05
97.7
682
421
2663
0.1332
0.01941
35.15
49.45
0.1583
0.0222
308.9
22.93
412.1
120.7
95.71
30.28
14.37
10.1
105.3
0.01987
796.3
179.8
79.02
5.33
0.1049
0.0225
57.89
40.17
129.9
1308
17.04
0.05002
25.99
0.8083
0.09928
0.0223
299.2
77.38
269.3
297.9
83.38
1.048
59.65
59.86
3.19
33.68
0.5203
0.2009
0.02192
30.28
1816
1.165
0.9575
3856
0.3407
0.02169
5.053
0.03324
0.02203
48.38
0.0195
0.01944
3.297
0.02012
97.21
1365
188.5
5.127
0.2144
0.02113
0.02197
5.417
88.69
13.11
992.1
46.33
0.02902
48.06
11.91
602.6
0.2711
0.02198
3.493
59.47
0.02203
0.02136
33.26
88.82
0.06722
0.0349
174.5
0.02131
0.3933
0.02188
5604
0.2269
94.93
35.81
0.03274
0.1858
10.71
50.48
235
42.74
34.44
27.32
0.02215
954.1
59.62
49.64
0.02191
59.78
56.82
152.7
82.29
0.3792
75.62
4.546
0.2229
103.7
0.02205
2.786e+04
5.221
1365
0.02197
93.66
0.02186
0.109
1.972
214
54.3
33.97
2.921
0.08447
1080
0.09796
107
998.6
7.566
0.2095
0.03835
261.4
0.02164
1.731
82.85
6.726
5.387
0.02223
1449
0.03856
49.27
317.5
23.78
103
583.1
54.15
372.9
42.88
1.079
75.89
1.832
0.02179
0.02181
566.8
42.26
373.4
38.01
34.1
0.0218
28.54
0.02181
0.02201
0.0372
493.5
0.1696
4.917
0.02895
95.65
0.3442
161.9
108.4
1975
0.02827
259.2
29.38
37.38
0.2448
48.3
0.02187
40.16
0.2422
59.41
5.013
0.03603
103.7
2142
58.92
513.9
93.2
1843
433.4
2.555
14.49
1240
8.537
2630
142
92.6
159.9
69.35
125.9
61.59
208.7
0.03544
60.42
0.05828
145.5
1251
32.97
64.97
275.4
57.54
64.3
0.03005
97.89
112.6
3526
37.65
0.02341
85.41
32.27
59.39
0.04973
25.8
65.22
102.8
0.7735
484.3
14.15
250.8
82.39
241.9
73.4
47.28
91.34
0.02774
648.7
7.637
0.02606
49.07
57.3
93.04
306.7
371.2
0.02202
72.42
47.66
0.1435
4.115
48.33
3581
346.1
0.02089
0.02227
2.001
69.28
25.5
0.02163
20.53
70.49
169
951.8
0.02104
108.9
871.3
63.42
2753
153
192.1
186.4
49.18
7.667
0.0255
101.7
228.7
38.67
129.5
1.009
69.24
0.02208
0.04552
89.28
85.99
93.62
193.4
55.77
0.0222
255.7
206.1
0.349
111.7
4072
680.6
0.0333
0.2146
0.02773
33.36
220
302.5
434.4
45.82
145.3
0.02182
161.1
1.387
34.12
152.2
0.7633
993.5
22.6
715.1
0.04255
62.82
601.5
0.02179
62.98
53.13
101.4
49.69
0.0219
0.02203
0.03533
111.5
0.02222
26.87
341.8
0.2115
79.51
103.2
0.04834
27.87
58.53
0.1878
498.1
81.11
1031
155
0.0221
400.7
677.7
0.02172
1087
7.065
14.5
14
214.4
46.36
28.9
52.5
38.16
0.02194
41.78
0.02178
0.0687
505.4
55.99
19.26
16.73
1.515
161.7
0.02192
0.01976
0.09281
53.44
69.53
27.26
1178
1.771
0.1182
451.9
0.7248
41.32
0.02137
91.21
285.3
51.92
57.19
268.1
39.15
102.7
92.91
2.561
0.02495
89.75
67.8
53.98
151.7
1073
243.4
0.0215
50.74
100.2
47.8
4637
0.02183
215.1
76.57
36.45
51.78
91.34
2862
79.7
65.53
294.3
3786
5.619
57.59
791.4
5.987
0.02169
144.3
79.02
95.16
62.93
50.94
11.39
0.03467
106.2
40.4
465.6
9.666
358.5
541.3
0.02176
278
59.74
174.3
2.535
0.01945
149.5
99.27
8.833
28.37
0.02135
54.39
44.59
2.769
32.88
41.67
284.6
75.94
206.1
164.9
0.01993
49.43
61.38
115.9
270.5
47.63
16.25
87.63
51.18
14.82
58.2
167.2
942.4
344.5
248
5480
11.79
0.117
1.294e+05
177.5
655.3
0.0317
651.3
1388
119.1
12.19
0.02337
10.53
0.02181
65.54
17.41
2.618
2.404
51.93
370.4
11.96
1.22e+04
50.98
131.2
101.5
2223
273
104.8
84.76
0.164
83.76
51.72
1097
43.82
0.7702
0.9806
257.9
0.9088
0.022
0.02178
17.64
18.95
0.0503
0.02019
0.02238
95.54
528.3
519.5
0.02155
0.02555
27.78
0.01974
0.01985
292.1
0.04334
57.15
373.6
0.05971
177.2
3.977
154.7
9.654
103.4
0.08247
30.34
76.24
3.77e+04
98.16
86.21
137.9
560.9
2.018
0.0255
47.65
343.7
0.02179
3.493
129
323.7
938
34.04
128.1
389.8
0.02717
54.84
185.4
119.4
39.24
90.77
0.05874
14.43
33.19
236.4
62.15
88.1
0.03628
446.6
69.12
0.03201
91.85
0.05612
90.11
0.02976
3140
1124
0.03378
98.11
58.35
0.1944
990.7
207.6
0.02348
497.2
47.91
96.78
571.4
0.04737
0.4319
3904
38.01
80.2
3.548
82.39
1.727
7.511
78.54
0.04963
1.343
186
52.14
92.3
72.98
139
2.858
52.79
273.2
99.88
3.059
15.73
0.0218
0.1675
212.9
60.54
0.01946
1.725
15.02
7.554
81.58
32.97
78.2
0.1837
91.02
40.47
0.09095
40
185.9
0.1688
350.6
0.05665
279.3
36.34
0.4135
0.09161
47.04
307.1
176.2
0.02107
158.3
65.73
65.74
0.06323
0.02243
28.68
134.7
418.4
8.504
30.42
61.45
90.34
2.037
1.985
1280
7.659
1.391
3582
135
35.25
68.89
0.02204
2.478e+04
0.02277
111.6
49.6
45.67
57.63
42.38
1388
16.72
5.544
0.5428
1.129e+04
281.6
57.4
8190
1067
280.8
47.82
0.1467
0.6428
0.4281
30.28
0.02187
174.6
1175
0.06144
21.54
2.972
73.22
54.24
249.1
2313
553.6
101.7
0.01943
0.01914
0.0218
103.9
2320
0.7211
0.0216
0.2455
813.9
4.045
2557
53.3
0.0228
6922
0.01949
1.206
37.95
0.0516
37.33
0.4935
1.056
0.09682
621.2
79.66
26.18
53.87
8277
47.7
413.7
98.16
54.44
0.02213
5333
233
532.3
54.13
141.6
33.89
276.2
0.1045
39.82
139.1
50.28
163.7
0.02722
687.2
69.47
517.4
8.59
0.11
0.1847
0.02223
119.6
105.4
74.32
43.34
26.96
766.9
36.62
44.24
25.8
67.11
0.2272
134.2
55.58
41.93
2.338
0.07731
4.621
0.2074
28.21
2.04
181.1
8.215
241.9
25.98
6.894
141.4
0.4867
723.9
37.42
1.6
0.1299
2039
92.36
80.56
43.06
1182
0.02204
502.2
303.9
31.92
50.41
34.02
27.11
265.8
72.75
110.6
51.57
39.49
2783
0.04556
0.02187
0.02215
52.56
201
1.998
1413
459.3
1610
84.79
44.35
718.4
1049
5.783
262.5
425.2
34.92
1094
0.02176
142
275.8
260.6
0.02157
262.3
16.58
109.1
129
74.58
0.02207
0.3527
130.1
655
0.02094
120.4
3.357
0.5497
1.76e+04
0.02998
24.98
50.91
135.1
189.2
0.4786
26.98
6.889
191.5
338.3
277.5
0.0195
54.69
3.756e+04
0.02911
0.02428
461.7
728.9
149.5
77.89
0.07629
29.76
192.5
16.8
16.36
88.87
0.02005
45.45
9.203
0.2887
0.02387
88.54
0.02136
5934
47.54
4.92
11.17
2324
0.02274
394.6
0.02
0.02216
211.4
0.5838
123.8
16.32
0.06333
144.7
80.96
90.78
7.676
93.91
231.1
436
116
291.4
560.4
939.8
114.4
27.22
209.3
155.9
88.29
0.5781
0.02121
0.0212
1633
34.95
70.09
2442
0.02231
537.6
0.5189
0.02039
57.22
8330
6.682
248.1
3663
0.02206
228.4
136.3
81.51
47.62
28.17
2437
385.4
0.02177
2654
576.4
0.08307
0.02557
167.6
442.4
102.7
288
61.32
48.34
0.0218
233
0.02124
291.3
283.9
2354
0.01945
0.01916
0.247
37
0.03797
47.29
1.328
37
99.13
42.54
112
0.07808
0.03041
1019
1910
35.67
395.2
0.05082
80.14
0.02151
63.63
1841
64.31
210.1
852.6
274.3
200.3
1.214
34.37
107.5
0.02874
0.0222
0.02185
56.44
92.76
164.7
2907
167.7
0.02745
84.36
132.7
168
4177
19.13
78.6
538
21.03
0.0758
1.828
6.788
3.542
0.1031
441.3
54.48
19.59
44.82
277.2
0.2406
0.01976
993.9
39.76
57.15
89.34
1207
39.04
0.02086
61.96
119.7
94.02
3.525
47.59
67.37
4.933
121.6
2.016
0.05425
88.99
0.05732
0.1167
0.2467
822.9
11.56
514.2
100.1
25.25
135.3
0.03517
288.9
161.6
0.563
49.91
16.22
3443
0.03874
0.02621
282
64.27
83.19
62.63
0.5338
207.4
0.07088
0.02184
8.758
120.1
0.02789
2.101
12.29
0.02175
1058
0.06944
31.38
38.87
17.01
0.7138
306.4
134.6
2.574
0.08314
0.02229
89.76
26.68
74.28
70.7
0.02156
0.0202
0.02179
32.1
97.9
77.66
0.04302
420.8
49.95
279
22.89
343.8
0.3908
0.03752
1062
0.02243
164.4
97.52
0.03891
55.67
47.06
48.34
215
112.7
68.8
2.948
0.04997
2345
173.8
457.3
0.2542
1.418
0.02188
1314
0.02175
43.22
695
0.02305
4.04
11.48
181.9
0.06765
64.97
6444
38.32
0.02169
59.59
172.1
77.77
68.84
70.17
134
1306
12.85
0.02073
0.02508
6900
10.36
212.4
5.318
24.15
0.02122
0.02193
1.692
3895
668
308.1
165.7
0.8938
183.1
690.4
25.62
132.3
0.0219
331.1
6.642
144
92.33
81.7
0.02161
367
64.85
1605
7662
16.97
7.249
1.11
110.2
0.0232
20.28
2435
91.61
168.4
219.8
1153
37.22
99.86
0.2172
429.7
477.6
1252
72.03
0.03101
756.9
636.7
0.02179
204.2
338.2
108.2
279.5
122.9
11.58
70.13
20.7
0.02767
55.74
0.02211
41.95
0.2225
1799
0.2684
2806
20.16
276.4
39.52
59.6
138.5
9.702
128.3
1045
37.55
49.39
34.29
5.459
77.99
63.52
23.39
0.02765
11.89
8.727
51.98
69.94
103.6
650.1
155.1
0.0284
165.9
1265
78.57
42.69
418.7
0.04584
139.2
0.0217
68.14
3.244e+04
1.99e+04
509.5
92.61
20.27
0.02113
0.04086
92.97
53.11
75.67
3.093
0.02226
58.79
232.7
6.647
94.27
0.02184
443.8
89.55
3310
5.654
14.51
43.46
242
0.03514
417.5
5681
1.01
9.214
0.4173
185.8
2916
4.292
55.41
5.596
127.2
0.02769
74.76
0.01989
941.1
79.03
15.05
87.98
3.392
281.8
72.27
1.881
0.08237
0.02199
0.02172
19.62
70.2
48.99
23.71
35.43
50.9
2856
1.454
80.14
0.3565
0.0221
470.3
0.02235
57.58
372.8
3.554
81.09
40.57
2748
220.5
69.87
144.4
25.76
141
0.1836
989.1
0.02178
4616
875.6
33.76
54.78
0.02224
80.26
71.31
143.5
1.183
101.5
770
922.8
0.02176
52.41
0.02196
0.02179
628.2
0.02953
66.84
8.613
1407
98.95
73.99
57.91
110.8
1.551
75.86
1.811
3.96
9.601
0.02539
57.41
0.0766
1447
56.8
27.14
0.4218
14.47
179.3
615.2
138.9
27.87
7.377
0.437
139.2
55.38
312
98.76
0.6582
68.08
92.7
38.44
43.11
4.535
59.27
7.306
146
3217
32.18
0.2125
0.03952
591.9
29.89
0.02181
351.6
0.4611
1197
178.5
0.01967
85.25
203.8
219.3
389.3
329.6
42.24
148.1
0.03951
496.6
289.6
54.99
148.5
46.64
97.5
0.02234
0.02416
0.02224
115.1
0.2838
0.02197
0.1178
2.108e+04
0.02194
155.6
432.2
1.16
271.6
196.5
82.36
589.4
24.55
86.46
87.98
2.463e+04
0.02174
231.4
10.51
46.37
1.993
5.022
3.68
1.523
910.4
0.04548
0.02967
1.217
1128
1264
284
480.7
0.04975
4713
0.02173
59.55
95.48
61.12
0.02181
0.7637
33.9
149.3
209.8
262
2.584
294.3
1876
12.03
30.85
0.02807
5.081
5.91
0.5472
1.245
11.5
187.7
20.52
0.3437
135.2
285.6
0.6764
1.963
138
0.02251
0.05463
1113
0.02132
0.04422