/*--------------------------------*- C++ -*----------------------------------*\
  =========                 |
  \\      /  F ield         | OpenFOAM: The Open Source CFD Toolbox
   \\    /   O peration     | Website:  https://openfoam.org
    \\  /    A nd           | Version:  8
     \\/     M anipulation  |
\*---------------------------------------------------------------------------*/
FoamFile
{
    version     2.0;
    format      ascii;
    class       volScalarField;
    location    "10";
    object      p;
}
// * * * * * * * * * * * * * * * * * * * * * * * * * * * * * * * * * * * * * //

dimensions      [0 2 -2 0 0 0 0];

internalField   nonuniform List<scalar> 
127143
(
0.01286
0.01303
0.01327
0.01326
-2.359
0.01326
-2.749
-2.553
-2.56
-1.351
-3.147
-2.854
0.0129
0.01325
0.2176
0.01511
0.01328
0.01651
-0.00326
0.01312
-0.3561
0.01065
0.1349
0.03942
0.01064
0.08992
-1.185
-1.209
0.4086
0.007817
0.01948
0.09507
-2.167
-0.4059
0.1957
-2.171
-0.04142
-0.4796
0.03933
0.01491
-0.002068
-1.06
-0.9822
0.01287
0.01734
-0.4042
0.4067
-0.04975
0.1097
0.03135
0.01461
0.07916
-0.7047
-0.5079
-0.002044
0.195
-0.001917
0.04601
-0.01544
-0.5109
0.4054
-0.08965
0.02941
-0.007723
-0.8618
0.2612
-0.3141
0.03022
0.03027
-2.507e-05
0.03072
-1.192
0.03328
-0.01598
-0.01036
-1.203
-0.0495
-0.09085
0.1948
-0.003381
0.3988
0.01322
-0.4045
0.01674
0.01173
-0.08198
0.04453
-1.464
0.2615
-2.418
0.0267
-0.2586
-2.282
-0.3557
-0.5157
0.03397
-1.04
0.02643
-0.1538
-0.3159
-0.003557
0.11
-2.893
0.05979
-0.08142
-0.1549
0.09232
1.407e-05
0.4
0.005136
0.2286
-1.477
-0.4252
-0.4819
-0.0004016
0.1043
-0.02489
-0.01029
-0.04784
0.01327
0.005232
-0.3573
0.3208
0.0558
0.3979
0.07098
-0.1445
-0.05443
-0.8369
0.2369
-0.1773
-0.4123
0.03818
-0.09193
0.01327
-0.1795
-0.06282
-0.3635
0.4742
-0.1145
0.1691
-0.007321
-0.6016
-0.4338
-0.7031
-1.662
-0.8884
-0.007664
-0.4112
-2.97
0.05257
0.1319
-0.4853
0.2584
0.4681
0.01098
0.04563
0.3026
-0.04872
0.03
0.02287
0.4213
0.02622
-0.1786
0.2064
-0.8663
-0.05202
0.4033
-1.951
0.02289
0.006886
-0.4317
0.1138
0.234
0.0002605
0.007914
-1.72
-0.8344
0.04632
-0.01181
0.2348
0.02967
0.01226
0.007783
0.2371
-0.0893
-0.5128
-0.507
0.0381
-0.02996
-0.6861
-0.723
-0.06287
-1.575
0.01329
-0.2172
0.000203
-0.0001899
0.01234
0.00278
-0.02365
0.07952
-0.002639
-0.04136
0.01324
0.02418
0.09646
0.1115
0.005236
-9.797e-05
-0.1157
0.008376
0.02485
-1.982
-0.1802
0.01198
0.002567
0.1295
-0.3613
0.09479
-1.669
-0.005437
0.1314
-0.7128
0.02774
0.002591
0.2053
-0.4798
-0.007662
-0.1352
-0.3616
0.03087
0.03183
0.01324
-0.3602
0.05992
-0.1781
0.01526
-0.02367
-0.6599
-0.7247
-0.9294
-0.006929
0.3029
-0.6525
0.01327
0.1345
-1.141
-0.01191
6.839e-05
-1.252
0.05163
0.1705
-0.4185
0.1816
0.3888
-0.05272
-2.095
0.1966
-0.1308
-0.2565
0.04479
-0.2586
-0.005824
-0.7667
-0.8978
-0.1189
0.4592
0.4495
-0.666
0.1262
0.0004245
-0.03825
-0.6591
0.02948
-0.6846
-0.4253
0.0937
0.0001549
0.2478
-0.0003297
0.03333
0.05979
0.01061
-0.01226
0.01321
-0.2608
-0.001664
0.07751
-0.01086
-0.4815
0.1528
0.06075
0.1318
0.0263
0.4106
0.03311
0.01403
-0.006936
-0.6628
0.05637
0.214
0.3268
0.1046
0.0278
0.4905
0.1112
0.02545
-0.1689
0.04986
0.08901
0.01339
0.1808
-0.0003999
0.01468
-2.049
-0.5072
0.04812
-0.2811
-0.0006709
0.135
0.02467
-0.09198
0.1699
-2.057
-0.5898
0.1381
0.01679
0.01668
-1.743
-0.08596
-0.01271
0.1922
0.0001552
-0.0001452
0.2564
0.3927
0.1144
-0.08527
-0.272
-0.111
0.1291
-0.6848
-0.6848
0.2009
0.07738
-0.3984
-0.5097
0.05869
-0.9014
0.05634
-0.03937
0.002689
-0.6854
0.04249
-0.367
-0.417
-1.566
-0.005395
0.01673
-0.02671
0.02959
-0.03213
0.02559
0.03347
-0.007222
0.002932
0.001101
-0.5653
-0.0001066
0.4087
-0.09085
0.0517
0.02816
-0.03064
-0.2388
0.04201
0.01319
-0.1237
-0.0005519
-0.1426
0.07196
0.06723
0.2156
-0.02439
0.0157
-0.1375
0.01577
-0.2247
-0.3131
-0.01768
0.3426
-0.0008666
0.1923
0.03816
0.02657
0.3396
0.02014
0.04703
0.04508
0.0233
-0.005498
-0.4008
0.01231
-0.148
0.06203
-0.08331
0.04202
0.0007508
0.04646
0.4027
0.08623
0.168
-0.05426
0.3214
-0.5188
-0.266
0.1279
-0.5753
0.354
-0.05123
-0.04587
-0.1974
9.738e-05
-0.1367
-0.2751
-0.9387
0.1936
-0.9342
0.1187
0.002862
-0.1844
0.002093
-0.1033
-0.8988
-0.0074
0.08923
-0.4631
0.07744
0.02636
0.01171
0.03114
-0.05873
0.3937
0.01815
0.0275
0.01901
0.4982
0.0003819
0.009524
-0.2796
0.06043
0.06215
-0.5968
0.06649
-0.03128
0.05881
-0.9581
-0.04236
-0.5506
0.03827
-0.8044
-0.2991
-0.4075
-0.805
0.0004533
-0.02806
-0.5215
-0.3046
-0.001258
-0.1602
-0.3013
0.0555
-0.504
0.08708
0.0004887
0.4169
-0.2996
-0.01747
-0.6682
0.4641
0.497
-0.6961
0.181
0.4015
-0.8942
-0.645
-0.01897
0.03066
0.03099
-1.969
0.04465
-0.7273
-1.642
0.01324
-0.1756
-0.04378
0.04841
-1.556
0.02099
0.4632
-0.02944
-0.006784
-0.2178
0.01323
0.01292
0.01289
0.00852
-0.3679
-1.153
0.01408
-0.0442
0.3214
-0.1058
0.08352
-0.2827
0.06291
-0.166
-0.5643
0.0005255
0.01273
0.01072
0.3611
0.04267
0.006868
-0.0167
0.05259
-0.003973
-0.2984
0.00789
0.03381
-2.501
-0.005708
-2.18e-05
-0.5201
0.07199
0.01096
0.4201
-2.209
-0.2355
0.04221
-0.0289
0.3406
-0.001396
0.2142
-0.5563
0.03433
0.02538
-0.3056
-0.08147
-0.223
-0.7638
0.3445
-0.07376
-0.1847
-0.02825
0.01364
-0.2585
0.0808
0.05084
-0.01174
-0.0004064
0.0004085
-0.1255
-0.3993
-1.604
0.01523
4.833e-05
0.3314
0.3892
-0.07667
0.4021
-0.04826
-0.1218
0.1638
-0.04258
-0.004214
-0.01079
-0.1777
0.1688
0.001088
-1.147
0.04598
-0.3217
-0.0006174
0.07376
0.01569
-0.08167
0.014
-0.2717
-8.52e-06
-0.07412
-0.2574
0.4236
0.0004804
0.09256
0.002552
0.01172
0.06224
0.005276
0.02761
-0.6187
0.01075
-0.3785
0.07201
0.0136
-0.6286
-0.5952
0.05667
0.06697
0.3317
0.03872
-2.25
0.01851
-0.0007635
-0.7643
0.03361
0.001162
0.1478
0.01239
0.1931
-0.0683
-0.599
0.00296
-0.0009035
0.04477
0.355
-0.363
0.0009488
-0.003924
-0.007659
-1.657
-0.4045
0.03431
-0.004573
0.3935
-0.2653
0.4027
-0.6832
-0.1819
-0.9138
0.0009353
-0.9861
-0.6694
0.1053
-0.4856
0.0221
6.293e-05
-0.5885
0.4746
-0.6441
0.00184
-0.06808
-1.996e-05
-0.1358
-0.8528
0.07612
-0.7839
0.1022
0.01715
-0.1754
0.1797
-0.6685
0.2704
0.01285
0.002701
-0.04256
-0.03128
-0.2627
-0.6612
0.07715
-0.6536
0.07608
-0.7997
0.01245
-0.3997
-0.004374
0.09391
0.2761
0.3316
-6.585e-05
-0.004305
0.0132
0.04827
0.1221
-0.7024
0.4769
-0.1709
-0.6971
0.02735
0.2894
0.2059
-0.01803
0.00224
-1.338
-0.2874
-0.5637
0.3389
0.3669
-0.01365
0.3653
-0.1147
-0.03463
1.689e-05
0.02143
0.08549
0.1685
0.01323
0.09162
-0.7646
-0.1249
-3.005e-05
0.05086
0.03478
-0.01599
-0.0006796
-0.3447
-0.6822
-2.956
-0.2615
0.461
-0.03056
0.1817
0.0504
0.0501
-0.1442
0.1302
0.01443
0.2783
0.0268
0.162
0.3876
0.04769
-0.01092
0.01217
-0.04074
-0.07379
-1.277e-05
0.001906
-0.1981
0.06469
1.26e-06
-0.6543
-0.007043
-0.5472
-0.7856
-2.242e-05
-0.08553
0.0108
-0.319
-0.4361
0.003437
-0.6852
0.07359
-0.03087
0.1203
0.1533
-0.6577
-0.1746
0.2135
0.09163
0.06725
-0.1188
2.208e-05
-0.08317
-0.05495
0.02206
0.08831
-0.4971
-0.04355
-0.08167
5.238e-06
-0.1045
-0.1757
-0.6595
0.01323
-0.6594
-0.005664
-0.4994
-0.003825
0.1712
0.008495
0.01189
-0.2123
-0.6303
-0.0136
-0.05128
-0.04512
-0.1106
0.03115
-0.004104
-0.02323
0.06472
2.271e-05
-0.135
-1.962
0.08906
0.3092
0.0007363
-0.2653
0.006985
-0.01856
0.0007227
-0.4814
-0.08309
-0.006598
-0.03813
-0.07967
0.01203
0.07126
0.3719
-0.004627
-0.1354
-0.04567
0.02025
0.02833
0.4009
0.0003213
-0.01656
0.01223
-1.212
-0.004791
-0.09734
0.4901
0.06629
0.0876
-0.001249
0.008525
0.06082
-0.00544
0.05944
-0.002906
0.4475
0.1018
-0.7058
-0.7019
0.01254
0.02769
-0.2889
0.2801
0.0326
0.01277
0.06899
-2.966
-0.5026
0.1292
0.3613
0.06473
-0.004085
-0.3944
0.2722
-1.783
0.01236
0.08466
0.0003493
-0.03056
-0.01078
0.1748
-0.9274
-1.306
0.303
-1.506
-1.59
-0.3646
-0.01504
-0.02418
0.02228
-0.04022
0.08268
1.075e-05
-6.345e-06
-0.5886
-0.09401
-0.7136
0.04117
-0.4234
0.05068
-0.04365
-2.133
0.166
-0.01703
-0.05603
-0.06216
-0.04355
-0.4105
-0.03399
0.0171
0.142
0.2562
-0.3999
-0.03634
0.0169
-0.7269
0.1689
-0.005502
-0.3546
-0.2267
-0.09927
-0.001192
0.002881
-0.08208
0.01196
0.3022
-0.03462
-0.1777
0.3976
0.1578
0.004958
-0.906
-1.197e-05
0.4792
-0.8949
2.284e-05
0.3731
0.01257
-0.2189
-1.357
0.03155
0.09662
0.007975
0.03044
0.04479
-0.04089
0.005412
0.1307
0.4237
-0.07388
-0.4072
-0.9713
0.3717
0.04038
-0.386
0.3721
-0.122
-1.004
-0.0115
-0.05371
0.0135
-0.4866
-0.258
-0.1821
0.01059
0.03247
-0.01652
0.1895
-0.0184
0.07065
-0.02479
-0.02324
-0.6357
-1.092
-0.8684
0.07366
-0.6702
0.0244
-0.1882
0.06422
-0.04486
-1.559
-0.04914
0.01338
0.01121
-0.1765
-0.01079
-0.007752
-0.08488
-0.02294
0.1066
0.0006606
0.4227
-0.2628
0.04204
-0.04087
-0.5938
-0.1529
-1.405
0.001002
0.1254
0.04079
0.3371
0.02679
-0.00299
0.3724
-0.3629
-0.5863
0.03703
0.03366
-0.02551
0.4173
0.05598
-0.04896
0.3873
-0.009523
-0.1141
0.008443
-0.05477
-0.6452
0.2082
-0.01263
-0.3384
0.1336
-0.0003098
-0.004851
-0.7378
-0.3589
0.01195
0.01352
0.08251
0.3302
-0.08144
0.118
0.07828
0.02965
-0.0937
0.02388
-0.08529
0.1477
0.009938
-0.06561
-0.0008076
0.06617
-0.009316
0.008857
-0.6981
-0.0002733
0.01731
0.07472
0.1283
-0.8369
0.009629
0.05938
-0.009357
-2.027
0.1162
-0.03719
0.0585
0.1294
0.08041
-0.1696
0.05318
0.001799
0.03374
-0.4951
0.1222
-0.04158
-0.1051
0.02017
-0.09997
-0.1442
-0.6261
0.2224
-1.229
0.04712
0.07279
-0.3956
-0.03466
-0.003605
-0.5245
0.009891
0.1076
-4.167e-06
0.4991
-0.2456
0.04117
0.2202
-0.6948
0.06965
-0.4679
-0.2366
0.04125
-0.004206
0.2151
0.01287
-0.0006733
0.03148
-0.5552
0.0285
-0.4895
-0.8269
-0.0003936
0.1594
0.007506
0.05051
-0.4211
-0.4124
0.01675
0.1017
-5.428e-05
-0.3967
-0.1991
-0.01818
-0.4196
-0.1513
-0.2514
-0.2881
0.1114
-0.04602
0.009676
0.009654
0.1477
0.09423
-0.1287
0.02258
5.44e-06
0.0461
-0.01123
-0.1742
0.4528
-0.5752
0.2193
0.01258
-0.6331
0.001377
0.003787
-0.1449
-0.2141
0.03562
-2.088
-0.2026
-0.005894
0.02786
0.07645
0.1254
0.01945
-0.02084
0.02262
0.1503
0.08732
0.4934
0.01682
-0.02994
0.1049
-0.09492
-0.71
0.06485
0.0474
-0.2124
-0.04954
0.05344
0.1495
0.07169
0.1031
3.222e-05
-0.009216
-0.5476
0.01941
-0.06102
-0.003001
-0.4754
-0.02804
0.00644
-1.741
0.07319
-0.6508
0.01328
0.2347
-0.03146
0.01269
-0.05849
-0.04573
-0.1058
0.06521
-0.8304
0.08089
0.03486
0.3905
-0.6318
0.04798
-0.0162
-0.6709
-0.1803
0.1831
0.02805
-0.02078
0.01164
-0.02765
0.09242
-0.007643
-1.07
-0.6612
0.09779
-0.05013
-0.2106
-1.297
-0.1941
-0.04429
-0.09642
-0.009646
-0.0873
-0.7038
-0.6444
-0.0479
0.1684
0.0326
0.005462
0.123
0.007633
-0.4093
0.08414
-0.8733
-0.07724
-0.02482
-0.03539
-0.01734
-0.06359
-1.755
-0.5256
0.018
-0.3012
0.02043
-1.231
0.1451
-0.04942
0.1286
0.1946
0.0004348
6.113e-05
0.0005766
0.01646
-0.0328
-0.2331
-1.605e-05
-8.828e-05
-1.521
-0.2652
-0.1944
-1.082
0.06332
0.05032
0.2112
0.06142
-0.01665
-0.1119
0.0001255
0.02062
-0.1564
0.1922
0.0805
-0.5581
-0.1587
-0.1149
0.03031
-0.4872
0.4541
-0.1287
-0.3262
-0.0228
-0.1841
0.04021
0.09561
0.3785
-0.3277
0.01139
0.004483
0.03444
-2.57
0.0002877
-2.72
0.1093
-0.06236
0.0989
-0.007076
0.2541
0.01988
-0.0125
0.02553
-0.1561
0.04098
0.4329
0.1338
0.05382
0.002794
0.2075
-0.1088
-0.6226
0.03274
0.1839
0.01326
-2.984
-1.306
-0.1722
-0.01087
-1.098
-0.07532
0.02835
-2.282
-0.0549
-0.1383
-0.006297
0.08498
-0.0833
0.006188
-0.01743
-0.0003723
-2.751
-0.01226
0.01513
-0.05555
-0.6882
-1.646
-0.4045
0.03162
0.2611
-1.645
-0.274
-0.1547
-0.645
-0.4083
-0.03901
-0.005999
-0.002931
-0.02727
-0.1538
0.007335
0.003025
-0.007762
-1.227
-0.02704
-0.0005809
0.01955
0.01355
-0.2257
-0.1906
0.1297
-8.71e-05
0.3908
-0.3112
-0.001073
0.01268
-0.1627
0.01326
0.07706
0.0509
0.05972
0.112
0.0156
-0.1471
0.01889
0.008268
-0.05813
-0.7857
-0.6797
-0.7721
-0.03115
0.008777
-1.632
-0.3171
0.3454
0.001062
0.07508
0.3353
0.0723
-0.01253
0.0001236
0.0001279
-0.02587
-0.147
0.01634
-0.1011
0.06538
0.1496
0.4508
-0.0004828
0.07437
0.2775
-1.111
0.03385
-0.2682
0.03872
-0.8118
-0.2491
0.129
0.06904
-0.1142
-0.03597
0.01028
0.005054
0.08562
-0.6779
0.04967
0.1858
0.002523
0.05815
0.002087
-0.8532
-0.002195
-0.008242
-0.02548
0.2911
0.04799
0.4885
0.1057
-0.219
-0.1454
-0.139
0.0001166
-2.673
-0.3252
0.01287
-0.3535
-0.02917
-0.01727
-0.0111
-0.922
0.01354
-0.1824
-0.5974
-0.3626
-0.0005249
0.08201
-0.8786
0.04581
0.4805
0.1043
0.4891
-0.2504
0.0323
-2.678e-05
-3.001e-05
0.04744
-1.241
-2.324
-1.814
0.04079
0.02553
-1.612
-6.595e-05
-0.04262
-0.08525
-0.02742
-0.009306
-0.03647
-0.001352
0.3015
-0.01159
-2.262
0.1897
0.4468
-1.166
0.0272
-5.73e-05
0.2587
-0.2762
-1.407
-0.188
-0.4025
0.01121
-0.5285
-0.08653
-0.1821
0.01313
0.009183
-0.1088
-2.739
-1.35
0.06866
-0.001076
-0.01871
-5.096e-05
8.659e-05
0.1576
0.007427
-0.00112
0.01959
-0.004732
-0.6183
-0.7557
-0.2823
-1.478
0.001984
-0.06101
-0.3746
0.01823
-0.4158
0.07332
0.2067
-0.0132
-0.002902
-0.7168
0.259
0.2283
0.0785
-0.06699
-0.05132
0.1031
0.1792
-1.717e-05
0.2691
-0.1214
0.03114
-0.06976
0.3688
0.02913
-0.6936
0.001954
-0.7901
0.3285
0.01505
-0.6055
0.1718
-0.3051
-0.004254
-0.6696
0.03909
-0.07108
0.07574
0.07232
-0.1283
0.05642
0.3332
-2.6
-0.6901
-1.888
0.01326
-2.044e-05
-0.3664
-0.01539
-0.9451
0.1393
-0.8414
0.009928
0.01392
-0.009225
0.05871
-0.105
-0.005034
-0.0986
0.04208
0.3968
-0.3169
-0.001536
0.04467
-0.007998
0.222
0.4508
0.1146
-0.01084
0.09084
-0.01637
-0.7021
0.002815
0.4998
0.3977
-0.009555
0.05761
-0.5663
-0.838
0.4502
-0.05477
-0.4835
0.3707
0.09027
0.07254
-0.2657
0.2953
0.0572
0.01957
-0.0009313
0.007629
-0.07921
-0.7509
-0.0612
0.1148
-0.05139
0.05085
0.07488
-0.001147
0.05283
0.1107
0.0663
0.05535
0.06853
-0.6222
-0.0003196
-0.2206
0.08659
-0.2546
0.4448
0.1273
0.1067
0.009299
0.06845
0.4056
0.39
-1.437
0.07638
0.03753
0.06512
-0.0123
-0.02549
0.004699
2.663e-05
-0.7873
0.1883
0.179
0.4499
0.08603
-0.001345
0.0005951
-0.4456
-0.6655
-0.0007033
0.2546
-1.753
-0.2497
0.0002342
-0.05394
0.02356
-0.1786
-1.251
-0.06054
0.04508
-0.2489
3.901e-05
-4.061e-05
0.003399
-0.04842
-0.6839
0.4579
-0.01166
0.02364
-0.5787
0.07549
-0.9071
0.01262
-3.599
0.01432
0.003209
-0.4892
0.04316
-0.02895
0.04779
-0.004106
-0.248
-0.0005888
0.01098
0.4085
-0.08822
-0.177
0.06438
0.01992
-2.702
0.04821
-0.1836
-0.739
-0.2561
0.1347
0.01426
-0.06105
-0.0006297
0.2398
0.07787
-0.5907
-0.7918
-0.1895
0.1151
0.1507
-0.06225
-0.4109
0.006623
-0.4093
0.08735
0.02854
5.333e-06
-1.695
0.2653
0.06124
2.055e-05
-0.04906
-0.04652
0.04002
-0.6246
0.01358
0.04135
-0.0007326
0.4542
0.09853
0.09384
-0.004368
-0.02257
0.04369
-2.393
0.03464
0.01615
-3.402
-0.02855
0.06815
-2.536e-05
-1.588
0.3071
-0.01518
-0.2016
0.01275
0.04597
-0.01578
0.04084
-6.81e-05
0.1437
0.0305
-2.312
-0.04291
-0.4708
0.1973
0.33
-0.00103
0.001077
-0.8583
0.1058
0.02017
0.05617
0.04153
0.05314
-0.01178
0.137
0.2203
-0.5164
-1.377
-0.1459
0.008146
0.07358
0.1046
0.03011
-0.1015
0.001089
-0.04212
0.06843
0.05217
0.01271
0.05163
0.04377
4.107e-06
-0.05444
0.01375
-0.03634
-0.01413
0.008026
-0.1689
0.08559
0.002257
0.1081
0.02323
0.3731
0.03827
0.03896
-0.01357
-0.01938
0.05788
-0.3248
0.00372
-0.7013
-0.3169
0.08179
-0.6886
-0.005938
0.01358
-0.006615
0.07085
-0.01405
0.08364
-0.4251
0.1484
0.04109
-0.5271
-0.2494
0.03974
0.008387
-0.4969
-0.07112
-0.08737
-0.1213
-0.5342
-0.01636
-0.589
-0.07424
-0.02183
-0.008784
-0.04023
0.08108
0.1139
1.522e-05
-0.3371
-0.2941
-0.7573
-1.543e-05
-0.0285
0.01389
-0.01115
-0.005182
-0.4777
-0.1231
-0.1811
0.07019
-0.05466
-0.04834
-0.00172
-0.0209
-0.009017
0.07432
-0.1746
0.005164
0.07437
0.02696
0.004068
-0.01138
-0.059
-0.004104
0.04724
-1.191
0.01118
-0.6504
-0.009148
0.1951
0.03283
-0.1421
-1.119
-0.5939
0.04732
0.04806
0.01889
-0.1031
-2.5
0.02951
-0.1389
0.1151
0.0125
-0.001118
0.3234
0.04553
-1.447
0.008742
-0.2711
-0.06776
-2.506
-0.1558
0.13
-1.005e-05
6.245e-06
0.04614
-0.5687
-0.001316
0.4695
0.0262
-0.2561
0.06404
0.001391
0.0435
0.1653
0.08275
-0.001323
0.03282
-0.02076
0.2381
-3.668e-05
0.06462
0.2444
0.1258
0.261
-0.364
0.4998
-0.0009757
-0.7031
0.03027
-0.5532
-0.3656
0.09432
-1.378
-0.03479
2.885e-05
-2.733e-05
-0.09098
-0.02106
0.02726
0.3918
0.416
-0.7022
0.0007019
-0.01381
0.4106
-0.007908
-0.3114
0.206
-1.747
0.1014
0.1916
0.1041
0.499
-2.014
3.564e-05
0.0633
0.08977
0.07741
-0.009938
0.3387
-0.2991
-0.632
-0.5181
-0.0712
0.05624
-0.09708
0.3576
0.1453
-0.3513
0.00373
-3.271
-0.009986
-0.005994
-0.05821
-0.467
0.3934
0.1314
0.08943
0.07633
-0.7956
-0.04825
-0.01851
-0.0004641
0.06773
-0.0599
0.08403
-0.1788
0.1953
-0.2086
0.3867
0.03175
-0.4988
0.07015
0.0289
-1.3
0.0002046
-0.009591
0.02802
-0.8647
-0.1813
-0.1061
0.04548
0.1265
-7.279e-05
-0.5052
-2.027
0.08309
0.01255
-9.214e-05
-0.25
-1.021
1.208e-05
-0.5846
0.08148
0.02071
0.4458
0.0492
0.1721
-0.02026
-0.209
0.368
0.05595
-0.4716
-0.02094
0.02632
0.008128
-0.04503
0.04098
-0.01614
-2.023
0.04221
-0.05921
-0.7135
0.01927
0.1366
0.4352
0.4037
0.4486
-0.6538
-0.7723
0.04069
0.3377
-1.767
-0.4579
0.1698
0.008449
-0.03312
-0.2218
-0.06403
2.465e-05
-0.2616
0.008665
-0.0004603
-1.652
-0.0362
-0.02829
0.219
-0.3257
-0.4967
0.05578
-0.8254
-0.1264
0.488
-0.1795
0.002506
-0.007188
-0.2951
-0.1761
3.726e-05
-0.01334
-0.2285
-0.04298
0.013
3.882e-06
-0.1817
0.0396
0.07936
-0.2553
0.005579
-2.354
-0.1097
-0.1914
-0.3011
-0.03884
-0.01659
0.006803
0.1622
-0.2436
0.006642
-0.9072
-0.7411
0.0216
-0.1513
-0.02169
-0.5896
-0.2071
-0.2136
0.05466
-0.3601
-0.01069
0.08394
0.3659
0.06856
-0.06078
0.03404
0.003798
-0.1724
-0.05025
0.27
-0.009699
-0.7142
0.06512
0.3867
0.006356
-1.123
-0.5393
-0.03061
0.08375
0.06631
-0.4696
-1.718
-0.4124
-0.5757
-2.502
0.01178
0.01329
-0.1217
-0.206
0.2294
0.2531
-0.02318
-0.4609
-0.1996
0.2187
-2.348
0.2668
-0.6665
-1.36
-0.116
0.05202
-7.04e-05
6.816e-05
0.03376
-0.6188
0.2477
-1.26
0.03317
0.007337
-0.7655
0.1424
-0.6245
0.02849
-0.02084
-0.7061
-0.5455
0.03359
-2.236
0.1996
-0.002023
0.03279
-0.02327
0.1202
0.1201
0.02716
-0.0001803
0.09441
-0.1117
-0.1592
-0.007165
-7.108e-05
-3.566e-05
-2.871e-05
-3.129e-05
0.04446
0.01023
0.1307
0.3891
0.07153
-0.01088
-0.373
-1.033
2.562e-05
-0.3754
-0.04109
0.01123
-0.7898
0.008414
0.01138
0.05925
0.06813
-0.5857
0.03102
-0.0247
0.0599
0.5001
0.1858
0.04768
0.3991
0.4484
-0.01378
-0.01415
-0.1871
0.1506
0.04372
0.1282
0.3863
-0.01035
-0.0372
-0.7852
-0.001186
-0.7013
-0.07266
-0.3148
-0.006433
0.01325
-0.252
-0.1206
0.0009414
0.4096
0.04036
-0.0605
-0.054
0.3876
0.01314
-0.02738
-0.3889
0.01074
-0.1816
0.03422
-0.2987
-0.8078
0.09009
0.4555
0.06826
-0.2377
-0.02396
0.01341
-0.107
0.06139
0.02541
-0.8067
0.01278
0.3591
-0.0184
0.0106
-0.3079
2.8e-05
0.4855
-0.127
0.02634
-0.07339
0.1238
0.006871
0.05274
-0.003368
0.09113
-0.01809
-0.0002486
0.1533
-3.093
-0.848
0.006572
-1.109
-0.7939
0.01902
6.697e-05
-0.1961
-0.3705
0.09689
-0.06823
-0.1654
-1.768
-2.877
-0.1361
0.05658
0.01185
-0.01127
0.1117
-0.8021
0.03001
-0.01053
0.05956
-2.555
0.02628
0.166
0.05624
-0.6706
0.02233
-0.03869
-0.09858
-0.008824
-0.2887
-1.236
-0.08105
-0.3551
0.1667
-0.2277
0.0123
0.3701
0.006668
0.01681
0.02636
-0.4339
-0.08273
0.007499
-0.7053
0.06926
-0.08176
-0.589
-0.01153
-0.07439
-0.008091
-0.7265
-0.7071
0.09948
-0.1004
0.4283
0.03161
0.199
-0.06027
-0.9394
0.0191
0.03573
0.06785
0.4158
0.0713
0.06596
0.4003
0.003172
-3.233
-0.0009588
-0.08986
-0.5825
0.01342
0.01695
-2.112
-0.03117
0.4896
-6.16e-05
0.4109
-0.9098
2.228e-05
-0.08684
-0.01077
0.5001
0.04576
-0.018
-0.213
0.1606
-2.112
-0.3624
0.269
0.06514
-1.114
0.002194
-0.08154
0.06058
0.005002
0.03328
-0.008339
0.02984
0.05834
0.0821
0.1711
0.1407
-0.005024
0.05304
0.2279
0.09463
-0.05398
0.01995
-0.2042
0.0867
-0.5995
-0.704
-0.0609
6.086e-06
0.03227
0.05708
0.09847
-1.336
-0.04158
-0.06046
-2.561e-06
-0.1144
0.1081
3.158e-07
-0.158
0.1888
0.09983
-0.3305
-0.008513
0.01358
-0.07893
0.04625
0.1491
0.03761
-0.04944
-0.7128
-0.1538
-0.1576
-0.404
-0.04891
0.2379
0.09252
-0.02115
0.02171
0.165
0.3279
0.01058
0.03061
-0.5626
2.247e-06
0.08374
-0.09336
-0.01131
0.08697
-1.197
-0.1885
-1.415
0.03998
-0.02341
0.3819
-0.003121
0.01302
-0.0001563
-0.3024
0.133
-0.1018
0.2632
0.001148
0.4802
-0.1802
-0.07163
-0.1216
-0.2491
-0.5724
0.2957
-0.3203
-0.08161
-0.7788
0.001034
-1.614
-0.5927
4.588e-05
-0.0193
0.02298
-0.002841
-0.04151
0.03365
-0.005088
-0.9038
-0.3286
0.09964
0.1283
0.04831
-4.088e-05
-0.1772
-0.1957
0.1486
0.01328
0.3803
0.08334
-0.007101
0.3281
-0.01398
0.04285
-0.147
-0.3123
0.0669
-0.3093
0.05489
-0.1535
-2.174
0.2516
0.0004773
-0.1725
-0.1053
0.001423
0.1032
0.008595
0.01863
-0.314
-1.868
-0.06596
-0.002171
-0.3179
0.04022
-0.8996
0.01316
-0.8517
-0.006236
-0.04352
-0.3219
0.0868
0.1583
-0.6785
0.03013
0.06784
-0.9521
0.09005
0.4897
-0.9427
0.0009665
2.61e-05
-0.04272
-0.07036
0.2755
0.01093
-0.1883
0.003456
0.06133
0.4222
0.05793
-0.008354
0.0285
-0.3879
0.04505
-0.0003731
0.4909
-0.6688
0.04748
1.189e-05
0.04779
-0.1657
0.08754
0.04502
0.1637
0.2381
-0.1431
-0.5639
-0.005094
0.01898
-0.02412
-0.773
-0.04565
-0.7007
0.04767
-0.08471
0.1527
-2.019
-0.01127
-0.2926
0.09998
-1.466
0.3
0.004744
-1.107
-0.6536
-0.1849
-0.3545
0.06857
-1.67
-0.1019
0.02819
0.007175
-0.009784
0.003557
-0.572
4.552e-05
0.4542
0.09904
0.06267
0.003078
-0.9217
0.3299
0.1558
-0.01306
0.09244
0.04882
-1.083e-05
-2.516
-0.2453
0.007723
-0.05222
0.03494
0.02708
0.002131
-0.05815
-0.01138
0.05754
0.1793
-0.7202
-2.613
-0.6717
-1.661
0.0578
-0.003948
-0.5317
-0.01516
-0.2288
-0.5822
-0.2556
-0.005372
0.04366
-0.1001
-0.01268
-0.05719
-1.694
0.3428
-0.03693
-0.2663
-0.007055
-0.1767
0.4217
-0.07047
0.1815
0.1017
0.1672
0.01559
-0.00866
-0.904
0.02314
0.008089
-0.5677
-0.1586
0.3641
0.06503
-0.6956
0.09181
-0.1349
0.3057
-0.02246
0.001681
-0.03293
0.003192
-0.0002579
-0.5453
0.07176
0.4008
0.01179
-0.1841
0.02955
0.06099
-0.1359
-0.7899
0.007937
-0.1506
-1.129
-2.867
0.05013
-0.2164
-1.645
-0.6889
-0.5858
0.1527
-0.0295
-0.2598
-0.000835
0.002769
-0.1404
-0.3214
-0.006037
0.3247
0.03466
0.271
-0.05762
-0.7918
-0.2892
-1.451e-05
0.3237
0.03303
0.1549
1.73e-05
-0.5642
0.01716
-0.05207
-0.2769
-0.687
-0.01235
-0.01034
0.0008386
-0.3562
-0.01321
0.2424
-0.9188
0.04829
0.0005141
0.04657
-0.007728
-0.002242
-0.3227
-0.03397
-0.09026
0.006717
-0.3602
3.839e-05
0.01345
0.0448
-0.007854
-0.01046
-2.227
-0.008206
-0.002379
-0.1958
0.0244
0.0004057
0.1404
0.05006
0.2301
-0.1255
-0.2535
0.4857
0.0002471
0.238
-1.432e-05
-0.471
0.2216
0.01772
-0.008676
-0.162
0.01261
-0.01548
-0.002115
0.1401
0.0008648
-0.657
0.1007
-0.01595
-0.7154
-1.553
-0.1957
0.0006018
0.07363
-0.1852
-0.01681
0.4322
-0.1094
-0.01363
-2.166
0.1688
0.003664
0.06636
-0.007637
-0.01764
0.03024
-0.6305
-0.1951
0.05277
0.09815
0.01334
0.153
-0.01185
0.168
0.03333
0.1384
-0.6876
-0.04086
-0.01041
0.1259
-0.639
0.006295
-0.7249
0.2822
-0.07184
-0.04359
-0.2431
0.3109
0.02886
-0.884
0.04857
-0.00815
-0.4132
0.2355
-2.041e-05
-0.3589
0.1467
-0.6819
-0.7653
-0.7842
-0.7038
-0.7106
-0.001153
-1.414
-0.3569
0.0002417
-1.846
-0.009866
-0.06373
-0.4852
0.001528
-0.853
0.4385
-0.002239
0.2028
-0.08227
0.01936
0.04049
0.3247
0.08386
0.04727
-0.01022
0.02394
-0.04549
0.05225
0.3221
-0.182
0.04787
0.02939
0.06199
-0.6415
-0.2501
0.01129
0.4457
0.01655
-0.09139
0.3607
0.04836
-0.3675
0.001062
-0.02045
0.03965
0.03216
0.005489
-0.1746
-0.7636
0.0002716
0.0519
-0.1166
-0.259
-0.2204
0.09165
0.1204
-0.1368
0.4018
0.405
-0.08439
0.174
-0.04881
0.04677
-0.7633
0.1302
-0.005126
-0.1329
0.0002575
-0.04598
0.1289
0.03493
-0.01395
-0.2584
0.03334
-0.3324
-0.6097
-0.002605
-0.003967
0.06401
0.04332
0.0247
-1.185
-0.07087
0.1072
0.4453
-0.6915
0.2468
-0.6569
0.02494
0.1077
-0.6891
-0.1997
0.1165
0.1541
0.03357
0.04324
-0.1817
0.003018
0.044
0.008729
-0.004895
0.04625
-0.009069
-0.1107
0.1112
0.002131
0.012
0.1231
-0.00756
-0.01502
-0.663
-0.4646
9.179e-06
-0.5608
-0.7391
0.003995
-0.03625
-0.04805
-0.001923
-0.8177
0.0006803
0.03499
-0.5658
0.4805
0.1311
0.01976
0.009164
0.002974
-0.01028
0.1346
0.2069
0.1052
0.05687
-0.9605
0.07426
-0.3368
-0.02223
0.02111
-2.009
0.02709
-0.451
-0.06655
0.009654
0.2206
0.1827
-0.7758
0.08144
-0.2525
0.002899
0.4723
-0.7988
-0.09177
-0.08647
-0.7328
-0.1188
-0.009895
-0.007876
0.1067
-2.763
0.07297
-0.03446
-0.1088
0.01594
0.05629
0.1171
-7.429e-06
0.3824
-0.6642
0.04009
-1.37
-0.1919
0.005984
0.04484
0.03031
-0.006979
-0.01953
0.07712
0.237
-0.6774
0.1087
0.08679
0.05687
0.0262
-0.08225
-4.215e-05
0.01632
0.1212
0.03083
-0.01258
0.002097
0.05373
0.07165
-0.01977
-2.011
-0.5101
0.4828
-0.1267
-1.274
-0.5603
0.04528
-0.8009
0.03908
-0.04628
-0.2961
0.2822
0.00837
-0.2998
-2.061
0.1598
-0.5312
-0.7125
-0.2453
-0.01855
0.0505
0.1182
-0.1637
-0.3882
-0.08225
-0.0009263
-0.005192
-0.1074
0.3024
0.04018
-0.1374
-0.178
-0.5368
-1.083
0.04408
0.04112
-0.0004833
-0.5273
-0.3673
-0.3969
-0.2069
0.04385
-0.5296
0.02743
0.1087
-0.8411
0.1379
-0.3582
-0.2969
0.04085
0.07496
-0.1797
0.08064
-5.99e-05
-0.04128
0.03103
0.07557
-0.04483
0.04336
0.08833
0.01071
0.05943
-0.4076
-0.02454
-0.1519
-0.1703
-2.068
0.01223
-0.03109
-0.01304
-0.05019
0.04713
0.00809
-0.007157
0.07119
-0.02215
0.1833
-0.01909
0.1335
-0.1784
0.03175
-0.2185
0.04832
-0.2798
0.04844
-0.06378
-0.003077
-0.6234
-0.01026
-0.01772
-0.2423
-0.005388
0.004891
-0.4707
-0.05672
0.1231
0.1558
0.06059
-0.001692
0.008346
0.04291
0.09416
0.2076
0.02831
-0.00135
0.1971
-0.03111
-1.664
-0.8913
0.1576
0.3918
0.05328
0.03531
0.04736
-0.5626
-0.5837
0.2332
0.3083
0.09186
-0.09452
0.008973
0.01283
0.1865
0.01324
-2.114
-0.008745
-0.067
-0.004171
-0.3233
-0.3637
0.2288
-0.6983
0.023
0.3096
0.0762
0.0327
0.4794
-0.1358
0.219
0.03875
-0.1024
-0.4493
0.06843
-0.6082
-0.01518
0.1928
-0.0006235
-0.2433
0.04827
0.04241
0.02949
0.1464
0.2371
0.0172
0.1318
-0.01858
-1.918
-0.055
-8.468e-06
3.351e-06
0.0006402
0.0436
-2.147
-0.2695
-2.476
-0.6483
-3.461e-05
0.1287
0.08652
0.0442
0.0644
-1.816
-0.7941
-0.0189
-2.058
-0.04655
-0.1793
0.4781
-0.0518
-0.4504
-0.116
0.04397
-0.04155
0.1391
-0.03756
0.03368
-0.5465
-0.7261
-0.4449
-0.2363
-0.1864
-0.01749
0.007159
-1.421
-0.3157
0.1845
-0.01181
-0.004727
0.07981
0.0604
-0.09277
-0.07515
0.3453
-0.932
-0.1157
0.008186
0.06746
-0.2526
-0.1907
0.02748
0.06954
0.001649
0.03736
-0.361
-0.04892
0.006003
-0.6842
-0.6657
0.1383
-1.406
0.3803
0.02778
-0.008013
0.1537
-0.1364
-4.482e-06
0.001219
0.006911
-1.546
-0.04599
0.006151
0.003031
-0.9019
0.002331
0.02553
0.07672
0.04607
-0.157
-0.01563
0.118
0.02385
-0.3979
-0.1833
-0.03997
-0.0251
-0.5133
0.02712
-0.0152
-0.0455
0.01109
0.4585
-0.003835
-0.004571
0.1866
-0.02543
0.1092
-0.1306
-1.164
0.06504
-0.007093
0.03216
-0.7207
0.02266
0.0002246
0.07113
-0.01254
-7.715e-06
0.0766
0.06274
-0.6566
0.008336
0.005691
-0.01779
-0.01372
-0.0003353
-0.0105
-0.05199
-1.702
0.04139
-0.3023
0.04494
0.03402
-0.001273
-0.0001879
-0.1352
0.1416
0.06779
0.01024
0.03714
0.01574
0.07177
-0.02586
-0.4004
-0.0333
-0.2668
0.01735
0.03646
0.003077
-0.3582
-0.2437
-0.3131
-0.0132
-0.007657
-0.7571
-0.1565
0.1583
0.4984
0.05661
0.04179
-0.1454
0.07547
0.06644
0.2362
-0.2511
-1.75
-0.5862
0.06316
0.0534
0.0001134
-0.02249
-0.1788
-0.6349
-1.145
-0.008286
-0.2325
2.959e-05
0.202
-0.996
-0.4686
-0.02857
0.04727
-0.127
-0.4714
-0.4067
0.4615
0.3441
0.308
0.4156
0.02216
-3.499e-06
0.004499
-0.3223
-0.08342
0.0756
-0.1244
-0.03914
-0.02895
-0.2015
0.1518
-1.058
0.054
-0.06807
-1.098
0.0002324
0.2396
-0.01427
0.2792
0.02671
-0.01662
-0.5778
-0.3647
0.1011
-0.04258
-0.0195
0.03709
0.09682
0.06663
0.07999
-0.008046
0.01063
-1.209
-0.1254
0.2449
-2.168
0.0003529
-0.0108
-0.2728
0.02762
-0.002697
-1.675
4.45e-05
-4.037e-05
0.2358
-0.000311
-0.1212
0.01327
0.02665
-0.1801
0.0914
0.002993
0.008502
-0.4258
0.05026
0.4107
0.04342
-0.2602
0.001469
-0.005167
-0.8611
0.02484
-0.1131
0.001885
0.009491
-1.622
-0.008208
0.004107
0.006347
0.08746
0.0974
-0.07739
-0.6465
-0.005466
-0.001029
0.01065
-0.008197
-0.02501
-0.04027
-0.03441
0.1039
-0.05495
-0.1353
-0.01105
0.09813
0.009429
0.04534
-0.3764
-0.006497
0.1099
-0.2588
-1.005
-0.004668
0.0004594
-0.02005
-0.3072
-0.006277
0.1048
-0.05298
0.07065
0.09775
0.01197
0.00699
-3.202
0.1562
0.2659
0.008352
-1.559
0.005688
-0.03913
0.1136
0.01074
0.002869
0.01209
-0.1509
-2.749e-05
-2.748
-1.867e-05
0.003144
-2.457
-0.07456
-0.3796
-0.0002527
-1.91
0.01207
0.04576
-0.07924
-0.6933
0.1791
0.03339
0.396
0.03599
-0.0002215
-0.4332
-0.6642
-0.04503
0.4877
-0.4778
-2.395
0.04024
0.002276
-0.09973
-0.02945
0.01411
0.007751
-0.807
-0.06502
0.4992
-1.331
0.4866
0.01046
0.03106
0.006147
0.02959
0.0193
-1.096
0.1208
-0.2395
-2.83e-05
-0.1191
0.143
-0.6658
0.02652
-2.038
-0.04963
-0.3633
0.4644
0.08289
0.06168
-0.006007
0.007625
0.02984
-2.585e-05
-0.04295
0.2892
-0.007644
0.04176
-0.9794
-0.003155
0.05235
-0.125
0.03952
0.1314
-0.6892
0.4065
-1.232
-0.7561
0.01001
-0.1626
-0.1089
-0.6613
-0.06019
-0.3168
0.0115
0.02214
0.0009217
-0.6143
-0.0003832
0.2056
0.262
0.07272
0.01319
-2.478
-0.1146
-0.006504
-2.969e-06
0.06004
-0.1768
-1.451
-0.09128
-0.008096
-0.1016
-0.5716
0.06844
-6.707e-07
-0.6755
0.06528
-0.1565
-0.5053
-1.241
0.4194
0.4982
-0.0745
-0.5313
-0.4873
-0.0004031
-0.01633
0.07748
-0.9634
0.3763
-0.02773
-0.02049
-0.0401
-0.08123
-0.4086
-0.8699
0.007186
0.4026
-1.781
-0.2082
0.3627
0.3949
-0.01197
-0.7835
-0.001717
-6.55e-05
-0.967
-0.04121
0.06097
0.01324
-1.523
-0.0369
0.2302
0.1345
0.003136
0.03708
0.03226
-0.04911
-0.9229
-0.3075
-0.3723
0.04022
-0.01155
-0.7215
0.03894
-0.1364
0.4859
0.02099
0.0396
0.05638
-0.04801
-0.006328
-0.0004835
-0.07241
-0.09025
-0.1164
-0.1633
-0.03728
0.03152
-0.002439
-0.6995
-0.382
0.1971
-2.653
0.001279
-2.563e-05
0.09065
0.07439
0.1029
-0.007039
-0.3633
0.1406
-1.153
-1.153
0.01023
-0.6631
0.0007313
-0.02248
0.01258
0.1435
-0.1671
-0.6443
-1.961
0.1541
0.1111
0.03263
-0.02157
0.05385
-0.01592
-1.825
-0.002463
-0.007831
0.02945
0.0009457
-0.1873
0.0312
-0.2734
0.01205
0.2535
-0.1592
-0.09744
0.1116
0.06767
-0.03231
0.0002329
-0.4123
0.01672
0.06476
-0.3672
0.02902
-0.6996
0.0241
-0.01306
0.0251
-0.1874
0.3217
0.07052
-2.205
0.04645
0.4077
0.01232
-0.0945
-0.00613
-0.1275
-0.008099
0.06377
0.1398
0.02262
0.09508
0.07312
0.1837
-0.2469
-0.01135
-5.556e-05
-0.2891
-0.01655
-0.05827
0.1278
-0.6473
-0.09339
-0.004245
-0.7462
0.04752
-1.543
0.006493
-0.0301
0.05623
-0.007418
-0.005794
-0.8121
0.1465
-0.6492
-0.2413
0.3066
0.02029
-0.94
-0.03839
0.02478