/*--------------------------------*- C++ -*----------------------------------*\
  =========                 |
  \\      /  F ield         | OpenFOAM: The Open Source CFD Toolbox
   \\    /   O peration     | Website:  https://openfoam.org
    \\  /    A nd           | Version:  8
     \\/     M anipulation  |
\*---------------------------------------------------------------------------*/
FoamFile
{
    version     2.0;
    format      ascii;
    class       surfaceScalarField;
    location    "10";
    object      phi;
}
// * * * * * * * * * * * * * * * * * * * * * * * * * * * * * * * * * * * * * //

dimensions      [0 3 -1 0 0 0 0];

internalField   nonuniform List<scalar> 
189008
(
2.148e-07
-2.148e-07
2.959e-08
-2.959e-08
-7.082e-10
7.111e-10
-1.369e-09
1.376e-09
-5.258e-06
5.258e-06
-1.347e-09
1.355e-09
6.827e-05
-6.827e-05
-1.74e-05
1.739e-05
-8.914e-06
8.914e-06
-2.738e-05
2.738e-05
0.0001083
-0.0001083
-3.019e-05
3.019e-05
1.475e-08
-1.475e-08
1.402e-09
-1.393e-09
-0.0004942
0.0004464
4.781e-05
1.818e-05
-2.106e-05
2.872e-06
-4.467e-08
4.469e-08
0.03992
-0.01669
-0.02323
0.008098
-0.005011
-0.003087
-1.027e-05
1.319e-05
-2.918e-06
-0.00386
0.003362
0.0004979
2.755e-06
-1.398e-06
-1.357e-06
-0.003276
0.009086
-0.00581
2.459e-05
0.0007293
-0.0007539
1.588e-06
1.168e-06
-0.0007757
0.0003889
0.0003868
0.0003038
-0.0003415
3.768e-05
0.0003351
-3.133e-05
0.0002766
-0.0002005
-7.608e-05
0.0222
-0.03964
0.01745
-6.313e-05
-0.0003275
0.0003906
-0.0002551
-0.0005207
0.0001495
-0.0001163
-3.318e-05
0.000426
-0.0002403
-0.0001857
0.007553
0.01125
-0.01881
2.688e-05
0.0001226
-1.352e-05
-0.0001706
0.0001841
-0.0061
0.007308
-0.001208
-5.586e-05
0.000755
-0.0006992
-0.0001051
0.0001239
-1.879e-05
0.004863
0.003235
0.002848
-0.0056
0.002752
0.0008169
-0.0067
0.005883
-4.002e-08
4.003e-08
0.001362
0.03856
0.0002384
0.0001876
0.0001634
0.0001131
0.0008863
-0.0008575
-2.874e-05
-0.0009606
0.001171
-0.0002107
-3.394e-05
0.000625
-0.0005911
6.138e-06
1.205e-05
-0.01613
-0.02685
0.04298
0.001006
0.0004391
-0.001445
-0.01593
0.01255
0.003381
1.082
-0.1293
-0.9522
0.001278
-0.0009888
-0.0002892
-0.1448
1.226
0.01043
-0.006545
-0.00388
-0.3151
0.0206
0.2945
-0.008439
-0.007496
-0.002761
0.001749
0.001011
0.002994
-0.004852
0.001859
-0.0001833
0.001694
-0.001511
-0.8103
0.9555
-0.1452
0.0003939
-0.0009276
0.0005337
-0.0005392
-0.002255
0.002794
-0.03362
0.02546
0.008159
0.002136
-0.001757
-0.0003794
0.0005909
0.001545
-1.288
0.4836
0.8045
-9.575e-05
-0.0004819
0.0005776
-0.0001251
-0.0002164
0.0007586
0.003994
-0.004752
-0.118
-0.1971
-0.275
0.5179
-0.2429
0.0001342
0.000201
-0.05236
0.09476
-0.0424
0.000839
-0.0007764
-6.254e-05
0.0006182
0.0006598
0.1607
-0.6345
0.4739
-0.0002881
0.0002043
8.384e-05
-1.252e-06
-9.019e-06
-0.0003015
-0.0003963
0.0006978
2.079e-05
9.357e-05
-0.0001144
-0.0004402
0.0006597
-0.0002196
0.0005204
-0.0007689
0.0002486
-0.0007565
0.001474
-0.0007179
-0.0003662
0.000119
0.0002472
-0.002565
0.002026
-0.0007704
0.00131
-0.0005392
0.1788
-0.01805
-0.1608
-0.009215
-0.003293
0.01251
-0.0005537
0.001634
-0.00108
-0.002118
-0.001742
-0.001842
0.001901
-5.825e-05
0.02102
0.01764
-0.03866
0.004977
-0.002129
0.0004899
-0.0004946
4.665e-06
0.001253
0.0002862
-0.001539
-0.02294
-0.01068
0.6867
-0.5261
-2.022e-05
-0.0009403
-0.0001698
-0.0005518
0.0007216
0.003731
-0.004551
0.0008201
-0.000137
0.0006574
0.001667
-0.000414
-0.001021
0.001463
-0.0004423
-1.008
-0.2802
-0.000725
0.0004248
0.0003002
-1.154
0.8752
0.2786
-0.0003555
-0.0001387
-0.000265
-0.0001013
0.002956
-0.0004488
-0.002507
0.002214
-0.002652
0.0004381
-0.2142
0.09904
0.1151
0.0004605
0.002206
-0.002667
-0.1094
0.06176
0.04763
0.1658
-0.4408
0.02498
-0.07734
-4.898e-09
1.611e-09
3.33e-09
-1.251
0.09749
-0.0001365
-0.0003138
0.0004503
-0.0003217
-0.0004988
0.0008205
0.01219
-0.01039
-0.001798
-0.0001743
-0.0001138
0.0006784
-0.0006181
-6.029e-05
0.00275
0.001172
-0.003921
0.08776
-0.105
0.01729
0.002946
-0.001162
-0.001784
-0.0008095
0.0006392
0.0001703
-0.0008422
0.0002366
0.0006056
-0.001349
0.0005328
0.0008159
-0.0003218
-0.001191
0.001513
0.0003688
0.0004702
9.791e-08
-7.045e-08
-2.743e-08
-0.0009242
8.192e-05
-0.006723
0.03629
-0.02957
0.001642
-0.002935
0.001294
-0.0001234
0.0001441
-2.07e-05
0.03096
-0.05497
0.02402
0.007362
0.0005413
-0.007903
-0.05213
-0.03947
0.0916
0.002845
-0.00334
0.0004952
0.00623
-0.00339
-0.002839
0.001637
-0.0006303
0.002291
-0.000799
-0.001492
-0.0002261
-0.0001222
0.0003484
-0.02774
-0.7826
-0.001662
0.0003135
0.0005527
-0.0008662
0.0003135
0.002216
-0.00328
0.001064
0.001231
-0.0003306
-0.0009007
0.004686
-0.008314
0.003628
-0.008537
0.001588
0.00695
-0.0002689
0.0002726
-3.634e-06
-0.0005705
0.0001304
0.006836
0.003589
0.0007127
-0.0005679
-0.0001448
0.0002388
0.0006475
0.0002361
-0.0004662
0.0002301
-0.0003724
0.0007061
-0.0003337
-8.9e-05
8.9e-05
0.1874
-0.008545
-0.001075
0.0003019
0.0007734
0.0002385
-0.0005471
0.0003087
-0.000326
0.0007199
0.0002049
-3.165e-05
-0.0001732
-0.0003848
0.001232
-0.0008469
-0.001503
0.00115
0.000353
-0.04623
0.03413
0.0121
2.985e-07
5.272e-06
-5.57e-06
0.004035
0.002194
-0.003917
0.00169
0.002227
-0.002139
0.0007173
0.001422
1.039
-1.215
0.176
2.686e-05
-3.092e-05
4.065e-06
-0.001279
0.0006479
0.0006311
0.001643
0.001303
-0.000556
0.001116
-0.00056
0.1228
-0.1489
0.02605
-0.001426
-0.0007136
-0.1148
-0.006151
0.121
-1.664e-05
-1.286e-05
2.949e-05
4.137e-06
2.272e-05
-0.0003189
-0.0004907
-0.001379
0.004372
0.001206
-0.009694
0.008488
0.0002983
0.001916
0.0006988
-0.0006743
-0.006722
0.08725
-0.08053
0.0001341
-0.001142
0.001008
0.0009434
0.0001816
-0.001125
-0.044
0.03728
0.001761
-0.002015
0.0002539
5.325e-08
-0.0008369
-0.003362
0.004198
-1.475
1.203
0.2718
-1.457
1.188
0.2692
2.896e-06
-4.951e-07
-2.401e-06
-0.1675
0.1347
0.03278
0.2066
-0.03831
-0.1683
-0.06074
0.04694
0.0138
0.02646
-0.07074
0.04428
-0.000178
0.0001645
2.818e-09
-2.801e-09
0.0003585
-0.001178
0.0008192
0.02288
-0.006361
-0.01652
0.002368
-0.000528
-0.00184
0.05512
-0.03293
-0.2087
-0.0055
-0.0009535
-0.01891
0.01986
0.0003965
-0.0002026
-0.0001939
-0.05748
0.199
-0.1415
-0.0006661
-0.0008371
1.359e-05
0.0003628
-0.0003764
3.703e-06
-4.285e-06
5.816e-07
-1.721e-05
1.534e-05
1.875e-06
0.002989
-0.001813
-0.001176
0.0004295
-0.001445
0.001016
0.01976
0.003121
-0.001073
0.0003696
0.0007032
-0.4716
0.2206
0.2509
0.001076
0.0001554
-0.001203
0.001691
-0.0004881
0.0002238
0.000139
-0.0003628
-1.516e-05
1.188e-05
3.282e-06
-0.000363
0.0006015
-3.368e-06
-0.006097
1.223e-05
-1.155e-05
-6.82e-07
-0.002263
0.001949
0.0003138
0.003479
-0.001024
-0.002455
-0.04148
-0.07334
0.004916
-0.004158
-1.406e-08
1.888e-08
-4.781e-09
0.00204
0.001438
-0.02074
0.01647
0.004272
-0.0003609
-0.0007145
1.709e-06
-1.709e-06
0.2284
-0.02175
0.002016
-0.0003682
-0.001647
0.001649
-0.0007059
0.0006409
-0.00135
0.0007095
-0.00021
0.0001485
6.151e-05
0.0003849
0.0003279
0.0008236
0.0005669
-0.00139
-3.007e-09
-1.861e-09
0.0008837
0.0004331
-0.001317
-0.0003317
0.0002938
3.793e-05
7.697e-06
-7.697e-06
0.1973
-0.9686
0.7713
-0.001131
-0.002448
0.003579
-0.0001832
0.0004952
-0.0003121
0.001896
-0.000877
-0.001019
0.004602
-0.001438
-0.003164
-0.0001837
0.0008534
-0.0006698
0.0004345
-0.0002941
-0.0001404
0.1185
-0.03079
0.0002391
-0.0009924
0.0007533
-0.0002329
0.001189
-0.0009562
-0.009491
-0.003582
0.01307
-0.005583
0.00286
0.002723
-0.05958
0.09149
-0.03191
-0.01604
0.006821
-0.09096
0.03883
-0.001466
-0.001406
0.002872
0.0001194
0.0008067
-0.0009261
-0.0001229
0.0002524
-0.0001295
-0.0002049
0.0002619
-5.695e-05
-0.001392
0.0003328
0.001059
0.002136
-0.006478
0.004342
-0.000729
-8.74e-06
0.0007378
0.8729
0.1661
-0.0009371
0.001264
-0.0003272
0.002185
-0.0001691
0.001146
-0.001924
0.0007783
-0.001297
0.001431
0.001575
0.001381
0.001161
-0.001371
0.0002099
-0.3879
-0.4526
0.8405
0.000504
0.001026
-0.00153
-0.5416
-0.3488
0.8904
0.03981
-0.0188
0.003794
-6.341e-05
-0.0934
-0.1628
0.2562
0.04775
0.1203
-0.1681
1.5e-07
-4.469e-08
-1.053e-07
0.001097
-0.0008339
-0.0002637
-0.0785
-0.1009
0.1794
0.001584
-0.001174
-0.0004104
0.175
-0.05215
-0.001476
0.006162
-0.00227
0.004649
-0.002379
-0.009507
-0.01124
0.0007624
0.001201
-0.001963
-0.2013
0.2324
-0.03105
-0.0003954
0.0005292
-0.0001337
-0.0003132
-0.0002321
0.0005452
6.872e-06
1.269e-07
-6.999e-06
-7.7e-05
-0.000133
0.004702
-0.002566
-0.0002986
-0.0005334
0.000832
-0.003001
0.0006683
0.002332
-0.001271
-0.001001
0.002273
0.003104
-0.002644
-0.0001874
0.0003245
-0.000137
2.28e-05
0.000101
-0.0001238
0.002191
0.0001769
-0.1792
0.1217
-0.008895
0.004418
0.004477
-0.002931
0.002959
-2.851e-05
0.001166
0.0001219
-0.001288
6.919e-07
2.034e-06
-2.726e-06
-0.0009373
0.0006072
0.0003301
-0.854
0.3124
-0.2555
0.1304
0.1252
0.0005975
0.0001893
-0.0007868
0.004282
-0.005768
0.001486
-0.000253
-0.0004319
0.0006849
0.01892
-0.01136
-0.007559
0.212
-0.2023
-0.009678
0.007388
-0.01066
-0.0005137
-3.909e-05
0.0005528
0.09724
-0.05231
-0.04493
0.001304
0.0005918
0.0008911
-0.0002936
-0.001483
0.00376
-0.002277
-0.02
0.03137
-0.01136
-1.126e-05
-8.219e-06
1.948e-05
0.0008682
-0.0002838
-0.0005845
-0.002837
0.000906
0.001931
0.004838
-0.002568
-0.00227
0.1968
-0.149
-0.00791
0.01546
-0.5022
-0.9723
-0.4957
-0.961
-0.009001
0.0004639
-0.0006314
0.0004598
0.0001716
-0.003686
-0.0002312
0.001398
0.003441
4.729e-05
0.0007917
-0.0008389
-0.01605
0.04701
0.002008
0.0009813
-0.001885
0.0006801
0.001205
0.0001541
0.0007156
-0.0008697
0.0008003
-0.00173
0.0009299
0.0004613
0.001123
0.0007628
-0.0003037
-0.0004591
-0.001717
0.002188
-0.0004708
0.0009849
-0.0006795
-0.0003054
-0.0004514
0.002407
-0.001956
-0.001256
0.0009808
0.0002752
-0.00518
0.007516
-0.002337
7.411e-06
-2.942e-05
2.201e-05
-0.001143
-0.006302
-0.02574
0.03204
0.0009238
-0.0008242
-9.963e-05
0.003713
0.000889
-0.0006125
-0.00162
0.002232
0.2982
-0.4093
0.1111
0.0007925
7.567e-05
-0.000626
0.001332
-0.0007064
-0.001857
0.001673
-0.008001
-0.008246
0.01625
0.001125
-0.001172
4.714e-05
-0.000107
0.0008908
-0.0007839
0.3824
0.1358
-0.5182
-0.1166
-0.05084
-0.1933
0.2628
-0.06957
0.0005025
-0.0006071
0.0001046
0.4445
-0.8324
-0.001473
0.0001576
0.001316
0.06349
0.03375
0.0003863
-0.0005695
9.339e-05
-0.000724
0.0006307
0.1156
-0.1223
0.03103
-0.01126
-0.01977
-0.0002198
0.00107
-0.0008498
-5.467e-08
3.962e-08
1.507e-08
0.001227
-0.002041
0.0008139
0.9543
-0.7153
-0.239
0.0008346
0.009508
-0.01034
0.0001334
0.000545
-0.001258
0.0008917
0.000366
0.005003
-0.00395
-0.001053
-0.09017
-0.01922
3.362e-05
4.563e-06
-3.819e-05
0.02068
-0.02391
0.003229
9.536e-06
-0.0001146
0.003142
-0.004178
0.001037
-0.002139
-0.003895
0.006034
0.2455
-0.2574
0.01195
0.003965
-0.003948
-1.648e-05
3.319e-06
-1.649e-05
1.317e-05
0.0002186
0.0006191
-0.0008377
-0.000929
0.001032
-0.0001029
-0.0002037
0.000432
-0.0002283
0.002092
0.001873
-0.0004363
0.0003732
-0.02594
0.01964
0.01049
-0.07007
0.0001306
-0.000219
8.844e-05
-0.5101
0.03854
0.004088
8.173e-05
-0.00417
1.214e-05
-2.877e-05
0.001662
0.01902
-0.003968
0.003132
0.0008369
0.0003637
-0.001081
0.0007178
-0.002153
0.002136
1.731e-05
0.1101
0.4884
-0.5985
0.0005448
-0.001101
-0.0001184
-0.0001418
0.0002602
-0.001113
-2.465e-05
0.001138
0.0005995
0.006762
0.0002639
0.0006389
-0.0009028
-0.0007869
0.0004652
-0.0006027
-0.00124
0.002301
-0.001979
-0.0003227
-0.0009012
0.0001721
-0.001602
0.004606
-0.003004
-0.0005928
0.0001224
0.0004704
0.0002223
-1.741e-05
-2.868e-06
2.379e-06
4.84e-07
0.0005131
-0.0005584
4.524e-05
-0.674
0.8712
-0.002941
0.0006782
0.01235
-0.0145
0.002149
-0.005359
0.006175
-0.01064
0.001092
0.009553
0.0009296
-0.0002887
-0.01035
-0.005709
0.01606
-1.277
1.439
-0.1618
-0.0006659
0.0006736
-7.712e-06
1.122e-05
1.417e-05
-2.539e-05
0.003211
0.01213
-0.01534
0.00485
-0.005252
0.0004028
0.5739
-0.1915
0.0008915
-0.001834
0.0009423
0.0001607
-0.0007435
0.0005829
-0.05829
0.04215
-0.0242
-0.1771
0.6965
-0.6519
-0.04461
0.0008424
-0.0008763
0.06448
-0.02819
-0.0002802
-1.641e-05
0.0002966
0.05057
-0.05659
0.006012
6.583e-05
0.0004241
-0.0142
-0.1308
0.145
-3.463e-05
-5.594e-06
4.023e-05
0.05753
-0.2508
0.0001407
0.0002557
-0.002438
0.002564
-0.0001256
-0.001218
0.0006732
0.0005447
-0.001206
0.00267
-0.001464
0.0003099
-0.0006119
0.000302
-0.01865
0.004312
0.01434
-0.0002671
0.0001478
0.0001193
0.0006476
0.0002362
-0.0008838
-0.001323
0.0001374
0.001186
-0.000404
7.286e-05
0.0003312
0.001914
0.008723
-0.01064
-0.002419
0.002098
0.0008329
0.001358
-0.002191
0.001823
-0.005922
0.004099
0.004689
-0.003257
-0.001432
-0.00119
0.002023
0.3556
-0.9489
0.5933
0.123
-0.001869
-0.1211
0.004107
-0.0018
-0.002307
-0.0005364
0.0005994
-6.297e-05
-1.532
0.1224
1.409
-0.003043
0.001942
0.001101
-0.005756
0.01479
-0.009038
0.004496
0.00769
-0.00122
0.005502
0.02785
-0.01547
-0.01237
1.414
-0.2688
-1.145
-0.0003763
0.0005056
-0.0001293
-0.01235
0.006598
-3.544e-07
1.976e-06
-1.621e-06
-0.001918
0.0009339
0.0009836
0.0001634
-0.0001073
-5.611e-05
-0.0001052
6.318e-05
4.203e-05
0.001054
-0.0001625
-0.0008916
-0.0005103
-0.000427
-0.0003643
-6.16e-06
0.0003705
0.0009308
0.003919
0.00208
-0.0006642
-0.001416
-0.1271
0.2575
-0.1304
-0.0003528
0.0005889
-0.1
0.0851
0.0149
0.001178
-0.0009937
-0.0001839
0.0006907
-0.001447
-0.001807
0.001622
0.0001852
0.0002076
-0.002235
0.002027
8.837e-10
1.953e-09
0.0008267
-0.0004075
-0.0004193
0.001253
0.0008049
-0.002058
0.02639
-0.0152
-0.01118
0.003146
-0.003931
0.0007844
-0.2849
0.2279
0.05702
0.0001076
5.58e-05
0.119
0.003955
-7.755e-05
-1.061e-05
8.816e-05
-0.003717
0.00288
-9.315e-08
9.318e-08
7.103e-08
-3.333e-07
2.624e-07
-1.956e-07
1.747e-07
2.097e-08
1.195
-0.8174
-0.3773
0.0004527
0.0004712
-0.0003658
0.00184
-0.001474
-0.1461
-0.1094
0.002579
-0.0003196
-0.00226
-0.0002505
0.0006769
-0.0004264
0.0004193
-0.0004424
2.315e-05
0.002965
-0.0002935
-0.002671
-5.097e-05
-0.002387
-0.001027
-0.0001906
-0.001937
-0.001106
-0.0002882
0.0002622
2.603e-05
-0.4346
0.7902
0.0002184
-5.425e-05
-0.0001642
1.788e-06
-1.708e-06
-8.029e-08
0.0003801
-0.0004464
6.632e-05
0.0007233
-0.0001748
-0.0005485
6.066e-06
-5.768e-06
0.06121
-0.1792
0.002956
-0.0007403
-0.05198
0.07844
0.006021
-0.004198
0.04713
0.2422
-0.2893
-0.0005898
0.0001447
0.0004451
-0.0002744
-0.0004418
0.0007163
2.354e-05
-2.17e-05
-1.837e-06
1.517
-0.8966
-0.6202
0.003345
0.0007625
0.008211
0.003495
-0.01171
-3.636e-07
-7.063e-07
1.07e-06
-0.0003918
3.159e-05
0.0003602
0.0009649
-6.632e-05
-0.0008986
-0.008289
0.001672
0.006618
-0.1093
0.1009
0.008474
-7.804e-06
3.735e-05
-2.954e-05
0.0005287
0.0005424
-0.001071
-0.7994
-0.7324
0.002003
-0.007925
0.001236
0.006688
-0.0006278
0.0003146
0.0003813
0.0007435
1.349e-05
-0.0005499
-0.0001076
1.78e-05
8.982e-05
0.003675
-0.0005335
-0.005163
0.005154
9.126e-06
0.000568
1.884e-05
-0.0005868
-0.0001821
0.0004016
-0.0002194
-0.000172
-0.0004939
0.1119
0.05743
-0.1694
-0.000151
0.0001135
3.752e-05
-0.0001535
0.0008187
-0.0006652
0.0008816
-0.001002
0.0001199
0.0009814
-0.002126
0.001145
-0.0001008
0.0002013
-0.0001005
-0.7902
0.1129
0.6774
-0.7889
0.6291
0.1598
0.005136
-0.01463
0.0007185
4.434e-05
-0.0008147
-0.002204
0.003018
0.1343
-0.2066
0.07233
1.473
-0.6494
-0.824
-0.001075
0.00163
-0.000555
0.0001809
-0.0002811
0.0001002
0.001181
-0.0004954
-0.0006854
-0.0004046
4.035e-05
-2.393e-05
-2.768e-06
2.67e-05
6.107e-05
-5.496e-05
-6.095e-06
-0.002587
0.002401
0.0001865
-0.1464
0.103
0.04336
1.396
-1.274
-0.1218
-1.947e-05
9.231e-06
1.024e-05
0.0006926
0.001084
-0.001777
0.0004099
-0.001368
0.0009584
0.3153
0.5196
-0.8349
-9.951e-05
-0.0002322
0.002245
-0.002628
0.0003833
0.0006361
-0.0006298
-6.245e-06
0.5018
-0.00079
0.0009404
-0.0001504
-0.03088
0.1651
-0.0004558
0.0008195
3.867e-05
1.536e-05
-5.403e-05
0.006747
-0.00846
0.001714
0.9749
0.1612
-1.136
2.776e-05
9.571e-05
-0.0001235
-0.004114
-0.001469
-0.0001579
6.891e-05
0.3919
1.022
0.0003776
-0.001398
-1.184e-05
-5.37e-06
0.3915
0.3049
-0.001519
-0.002449
-0.1675
0.007844
0.1596
-0.0003955
-0.0005053
0.0009008
0.002846
-0.0008028
-0.002043
-0.2805
0.1871
-0.0006256
0.0005605
6.51e-05
0.0003638
0.0007425
-0.001106
7.832e-08
4.007e-06
-4.085e-06
0.0008715
0.0007035
-0.001575
0.004073
-0.002257
-0.001815
-0.0003274
-0.0009287
-0.0003819
-0.0008758
-0.001119
0.0002596
0.0008594
0.0008394
-0.0008953
0.001023
-0.001576
0.0007097
-0.001093
0.0003828
-2.426e-05
2.32e-05
1.058e-06
-0.003036
0.002293
0.0007427
0.0006647
-0.0004821
-0.0001826
-0.5981
0.9134
0.001106
-0.0007359
-0.0003703
0.1046
-0.1923
0.08766
-0.0006531
0.001453
-0.1283
0.037
0.09126
-0.00061
0.003455
-0.3432
-0.934
-0.1536
0.07514
-0.002088
-0.004418
0.006507
-0.0002948
-0.000298
0.001584
0.000996
-0.002581
-1.04
0.1288
0.9116
1.104
-0.8981
-0.206
1.584e-05
-3.614e-06
0.000313
0.000199
-0.000512
0.0003202
-0.0006218
-0.0009229
0.0003592
0.0005636
-0.002643
0.0009901
0.001652
0.0001284
-0.0004086
0.002094
-0.002952
0.0008581
-0.0003851
0.0002667
0.001463
-0.0007471
0.0001358
-0.0003478
0.000212
0.0004364
0.0001043
-0.0005407
-1.16
0.1191
-0.0003884
-0.001201
0.001589
-0.000137
0.001276
-0.001139
-0.0001364
-0.004187
0.004323
0.0111
-0.005193
-0.00591
0.1777
-0.2343
0.05659
1.03
0.4433
0.002384
-0.003867
-1.227e-05
-0.0001111
0.0008968
0.001183
2.384e-05
-1.428e-05
-9.558e-06
-0.07966
-0.0486
-0.9849
-0.4035
1.388
0.0002557
0.0001727
-0.0004283
0.001537
-2.95e-05
-0.001507
-0.04887
-0.01186
-0.0002311
-0.0002997
0.0005308
0.01233
-0.001705
-0.01063
-0.02818
0.0837
-0.05552
0.0003579
-0.0001374
-0.0002205
0.001819
-0.002292
0.0004723
0.001313
-0.00145
0.002324
-0.006716
0.004392
7.944e-08
-7.943e-08
-1.809e-05
2.932e-06
-3.709e-05
-0.0003669
-0.0001929
-7.42e-05
0.0006732
0.0004242
-0.001108
-0.0004737
0.001582
-0.0007494
-4.058e-05
0.0006288
-0.001149
0.0005202
0.05079
0.009663
-0.06045
-0.00231
0.0007819
0.001528
-3.993e-06
5.744e-06
-1.751e-06
0.001036
0.003053
0.7438
-1.067
0.3227
0.001391
-0.0002296
-0.003299
0.003159
0.0001408
-0.001974
-0.000608
0.002582
1.07
0.4471
-0.02389
0.7677
-7.698e-07
-2.983e-07
1.068e-06
0.0207
0.005688
0.0004782
-0.0008902
0.000412
-0.0009213
0.0009321
-1.079e-05
-0.0001632
0.0002172
-5.404e-05
-0.006705
-0.00219
0.003529
0.005199
-0.008728
0.0004771
-0.0002533
-6.757e-05
-0.004879
0.004947
0.0009977
-0.0008442
-0.0001534
-0.1497
-0.2015
0.3512
1.051
-0.0455
-1.006
-0.003643
-0.0004209
0.004064
0.0004931
0.01185
-0.000172
0.0006745
-0.003968
0.001995
0.0003652
-0.0004141
4.895e-05
-0.003309
0.001038
0.002271
0.0001976
0.0001405
-0.0003382
-0.02199
0.02104
0.006183
-0.01418
-1.12
-0.3845
1.505
-0.0001896
0.0003674
-0.0001778
0.02
0.007845
-0.00128
0.0009338
0.0003461
5.685e-08
-0.002102
0.0005878
0.001514
-0.00391
0.002444
-0.0006513
0.001878
1.253
-0.2777
-0.001669
0.001896
-0.0002279
-0.0004283
-0.0007226
0.001151
-1.839e-05
1.961e-05
-1.21e-06
0.001611
0.007253
-0.008863
-0.002864
-0.001543
0.004407
0.0009747
0.000488
-0.0002599
0.0008125
0.001056
0.001245
2.365e-05
-0.0001736
0.00015
-0.002667
-0.002149
0.004816
0.0005838
-0.0007674
0.001294
-0.002258
0.0009642
-0.003117
0.0001861
-5.716e-05
0.002807
0.002435
-0.004958
0.002524
-4.851e-07
4.851e-07
-0.000419
-0.00288
-0.06815
0.02192
0.0001238
-0.001177
0.001053
7.599e-05
0.0002124
-0.0002884
5.091e-07
0.00122
-0.00122
0.1003
0.3737
-0.474
5.904e-06
6.82e-06
-1.272e-05
0.001655
-0.006835
0.0009904
0.0001903
-1.51
0.5249
7.049e-06
1.679e-05
0.000641
-0.0001279
0.0007821
-0.0009268
0.0001447
-0.3865
-0.6349
1.021
-7.129e-05
0.0007001
-2.866e-05
3.571e-05
-7.049e-06
-0.0003225
0.001008
-0.0006858
-0.0003527
0.00153
-0.001177
-1.193
0.8069
0.001511
-0.0009375
-0.0005734
-1.686e-07
-2.265e-06
2.433e-06
-0.0002962
0.0004675
-0.0001713
0.003919
-0.003724
-0.0001952
-0.1592
0.06613
0.09311
-0.001522
-0.0003637
0.0008963
-0.0006836
-0.0002128
-0.1644
0.1697
-0.005303
0.002296
0.0004764
-0.002773
-0.00325
0.003101
0.0001487
-0.001351
0.0002421
0.0005355
0.0002912
-0.002331
0.002999
-0.002402
0.0003006
-4.095e-05
-0.0006389
0.0006798
0.0001004
-0.0002233
0.2803
0.5836
-0.8639
0.001166
0.0003444
0.002608
-0.00382
0.001213
0.0002264
-0.00023
3.634e-06
-0.0002111
-0.000902
-0.01672
0.0127
0.004015
0.002861
-0.0002816
-2.37e-05
-8.392e-05
1.022
-0.7417
-3.821e-05
0.0004575
0.0001432
0.0002147
-0.001002
-0.0004297
0.001431
1.849e-08
-3.253e-08
0.0005393
-0.001541
9.572e-06
1.397e-05
-0.002209
-0.0005077
0.002717
-0.0001888
0.000117
7.186e-05
-0.003707
0.001009
0.002698
0.1725
1.022
8.168e-08
-8.167e-08
-0.0003395
-0.0004303
0.0007698
-0.0007385
0.00161
2.079e-05
-1.797e-05
-2.822e-06
0.000202
-0.000401
0.000199
-6.198e-06
5.855e-05
-5.235e-05
0.0003544
-6.324e-05
-0.0002912
-0.0007123
0.0006165
0.5568
0.8389
-0.001434
-0.004684
0.006118
-0.003807
0.001092
0.002715
-1.498
0.3773
0.0002246
-0.0003815
0.0001569
0.0002204
0.0009572
0.001878
-0.0007123
0.0006598
0.000182
-0.0008418
0.1376
-1.02
0.8821
-0.0004129
0.002507
-3.375e-05
1.705e-05
1.67e-05
-0.2768
-0.7163
0.8539
0.006684
0.00442
0.00496
-0.005753
0.0007928
-0.001178
-0.001465
6.113e-05
2.727e-07
-6.14e-05
0.001215
-0.001014
-0.0002007
1.462e-05
-1.577e-06
-1.305e-05
-0.003522
0.0008925
0.00263
-0.003362
0.003405
-4.35e-05
-0.7989
-0.2676
0.001093
-0.0002991
-0.0007937
0.0002378
-0.0001113
-0.0001266
0.0005914
-0.000482
-0.0001094
0.00019
-0.0003774
0.0008551
-0.00124
1.084
0.08491
-1.169
0.275
-0.2138
0.07041
-0.1293
0.05892
0.0002833
-6.627e-05
-0.000217
0.04396
-0.8429
0.03104
-0.01958
-0.01146
-4.61e-05
8.885e-05
-4.275e-05
-0.0007932
-0.0009602
0.001753
0.0003638
0.000199
-0.0005628
-0.2175
0.8467
-0.6291
0.0001364
-5.894e-05
-7.744e-05
-0.0003639
0.002061
-0.001697
-0.2414
-0.01484
0.2562
0.0004714
0.0005135
0.6884
0.4719
-1.16
-0.000154
-0.0001487
0.0003027
0.0002391
0.0001019
-0.0003409
-0.001463
0.000699
0.0007635
-0.0007201
-0.002594
0.003314
5.008e-05
3.105e-05
-8.113e-05
0.1804
-0.04958
-0.1308
-0.0003468
-0.0003117
0.0006584
-0.007428
0.006508
0.0009197
-0.0004701
-0.0001196
7.603e-06
-3.997e-06
-3.606e-06
-0.0004655
-0.0005287
0.0009942
0.0007127
0.0002561
-0.0009689
-0.01049
-0.006225
0.004437
-0.005008
0.0005709
0.001317
-0.0004139
-0.0009029
0.0003841
-0.0003841
-0.3424
0.1965
0.1459
-0.006402
0.009462
-0.00306
0.0008259
-0.0005098
-0.0003161
-0.001003
0.001849
-0.0008459
-6.381e-06
2.388e-06
0.0005916
-0.0005305
-6.105e-05
-0.1169
1.201
0.04402
-0.02661
-0.01742
-1.176e-05
-7.717e-06
-0.0005056
2.561e-05
0.00048
0.0001651
-0.0002101
4.495e-05
-0.001436
0.003246
-0.001809
-8.41e-05
8.41e-05
-0.001635
0.001722
-8.695e-05
-0.0001118
0.0001118
0.00185
-0.0006317
-0.001218
8.986e-06
6.232e-06
-1.522e-05
-0.005591
0.004156
0.000117
-8.14e-05
-3.56e-05
0.1015
-0.07459
-0.02688
0.001752
-0.001323
-0.0004292
1.093
-1.517
0.4245
1.313
-1.734
0.4211
0.0005894
0.003101
-0.00369
-0.0469
0.09728
-0.05038
-0.001367
2.178e-05
0.001345
0.01462
-0.003174
-0.01145
-0.002315
-0.0003374
-0.006627
0.007462
-0.0008354
0.04436
-0.1004
0.05599
-0.001182
0.0001025
0.001079
0.000572
0.0008192
-0.001391
0.2537
-0.008173
-0.01208
0.01115
0.0009256
-0.0002375
0.0003906
-0.000153
0.09279
-0.04843
-0.0006624
0.0003375
0.0003249
2.018e-05
-2.019e-05
9.084e-05
-8.323e-05
-7.608e-06
0.0007773
-0.002397
0.00162
-0.0005134
1.111e-05
0.0005023
0.003876
-0.00484
0.0009639
4.811e-05
-4.472e-05
-3.396e-06
-0.3337
0.1199
0.2138
-0.002276
0.000469
-0.0005921
-0.0006878
-0.05263
0.3509
-0.0005775
0.0004409
-0.001226
0.0001206
0.001106
-0.002269
0.005163
-0.002894
-0.4748
-0.5469
1.022
0.246
-0.003087
-0.2429
0.01249
-0.007466
-0.005023
4.44e-06
1.351e-06
-5.79e-06
-2.646e-05
-0.00149
0.001517
-2.061e-05
2.062e-05
-0.003285
0.001564
0.00172
0.0004475
-0.0001514
-0.0002961
-0.001638
0.001519
0.000119
6.972e-06
5.757e-06
-1.273e-05
-0.00139
-0.000423
0.001813
-0.41
1.367
-0.9567
-9.088e-05
0.0001291
-3.824e-05
0.008219
-0.00136
-0.006859
-0.3006
1.334
-1.034
-0.0004849
-0.0004452
0.0009301
9.331e-07
-4.687e-07
-4.644e-07
0.001666
0.006889
-0.008554
-0.001739
0.0006745
0.001064
0.005577
-0.003272
-0.002305
0.001002
0.0027
-0.003701
-2.541e-06
-5.384e-06
7.925e-06
8.592e-05
-8.592e-05
0.0007872
0.0003785
-0.001166
-0.09012
-0.05628
-0.4594
0.221
0.2384
0.002397
-0.0008906
-0.001506
-0.0007838
0.000524
0.0002599
9.183e-05
0.0001326
-0.0002244
-0.0008687
0.0004909
0.0003778
-0.0009473
-0.0006614
0.001609
0.0003858
-0.0001653
-0.0002205
-0.002841
0.002583
0.0002583
-0.01396
0.02135
-0.007386
0.0001701
0.0002157
-0.03457
-0.01136
0.04594
-0.0004988
-3.714e-05
0.0005359
0.1359
-0.5768
0.4409
0.0005552
0.0005344
-0.00109
-1.117e-06
4.573e-06
-3.456e-06
-0.003476
0.004698
-0.001222
0.0007745
-0.000579
-0.0001956
-0.002281
0.0009971
0.001283
-0.3821
0.09964
0.2825
-0.185
0.05154
0.1334
6.276e-06
-1.101e-05
4.732e-06
0.006655
-0.007122
0.0004675
1.782e-05
-4.543e-05
2.761e-05
0.000592
-0.001041
0.000449
-1.428e-05
2.734e-05
-1.306e-05
0.001148
-0.001076
-7.209e-05
0.001806
-0.000292
-0.001514
-0.002766
0.002176
0.0005904
0.0002057
-0.001328
0.001122
0.000461
-0.000461
-9.172e-05
0.001469
-0.001377
-5.539e-05
0.000433
-0.0003776
0.0004735
-0.0003882
-8.537e-05
-0.002418
0.003618
-0.0012
0.001315
-0.00236
0.001044
0.0003651
0.001396
-9.673e-05
0.0001055
-8.736e-06
2.752e-07
-2.163e-06
1.887e-06
3.094e-06
-1.739e-06
-1.355e-06
-0.00266
0.001142
0.001518
-0.3215
0.4218
0.5925
0.2148
-0.8073
-0.001309
0.001893
-0.0005848
4.828e-05
0.000225
-0.0002732
0.004138
-0.0008325
-0.003306
-0.1892
1.183
-0.994
8.449e-05
0.0003648
-0.0004493
-0.002661
-0.000291
-0.002262
-0.004774
0.007036
2.305e-05
2.03e-05
-4.334e-05
0.004453
-0.003926
-0.0005272
-4.616e-05
0.0002037
-0.0001575
0.004384
-0.005188
0.000804
0.7865
-0.6764
-0.007068
0.002225
0.004843
0.01051
0.0001515
-0.01066
0.0002609
-2.921e-05
-0.0002317
9.712e-05
0.000164
-0.0002611
-3.054e-05
2.276e-05
7.785e-06
-0.003062
0.001702
0.00136
0.003665
-0.008927
0.005262
0.000314
-0.0007863
0.0004724
-0.0008564
0.001323
-0.0004662
-0.001905
-0.001331
0.003236
0.00483
-0.001999
-0.002831
-0.000396
-5.13e-05
0.0004473
0.001928
-0.001592
-0.0003368
0.0002319
-0.0001909
-4.101e-05
0.0003046
-0.0002278
-7.688e-05
0.2583
-0.3221
0.06383
-4.658e-05
2.391e-05
2.266e-05
1.85e-06
5.458e-06
-7.308e-06
0.003339
-0.0007309
-6.503e-05
0.002038
-0.001973
0.0004943
-4.787e-05
0.01996
-0.119
0.09899
-0.0001394
0.0001395
-0.000428
0.000428
-0.1656
-1.044
1.209
1.256
0.2303
-1.486
-0.002271
0.001246
0.001026
0.0007341
-0.003567
0.002832
9.379e-07
-1.16e-06
2.22e-07
-8.947e-06
7.9e-06
1.047e-06
-0.0001939
0.001946
-0.0003778
0.0004939
-0.000116
0.0001309
1.391e-05
-0.0001448
-0.001103
-0.003417
0.00452
0.003043
0.004511
-0.007554
-0.1834
0.05769
0.1258
0.000149
-9.795e-05
-5.108e-05
-0.0005367
-0.0004578
0.0009945
-0.0001025
0.0002127
-0.0001102
-0.003862
0.0009004
0.002962
7.829e-07
-2.425e-06
1.642e-06
0.0004189
-0.0005326
0.0001137
0.8153
-1.145
0.3294
-0.0005449
0.0005449
2.68e-05
-1.671e-05
-1.009e-05
0.1658
0.561
-0.7269
0.001145
-9.044e-05
-1.282
1.117
0.2402
-0.4217
0.1815
-0.002728
0.001878
0.0008497
-0.009911
-0.001466
0.01138
0.0002211
-0.0001175
-0.0001036
0.7765
-0.9417
0.1652
0.001069
-0.0005281
-0.000541
0.4787
-0.1377
-0.3411
0.000751
-0.001538
0.0007866
-0.01463
0.005133
0.009494
0.0132
-0.01188
-0.001311
0.00533
-0.002804
-0.002526
-0.0002162
-0.0008049
0.001021
-0.0008247
-0.0003754
0.0012
0.0001745
5.244e-05
-0.0002269
0.001625
0.0003348
-0.00196
0.153
0.6458
-0.7988
0.004643
0.06272
-0.06736
-0.005023
0.002491
0.002532
-0.0001648
-0.0008601
0.001025
1.726e-05
-7.037e-05
5.311e-05
0.0002006
-0.0001185
-8.211e-05
0.0001204
-7.056e-05
-4.985e-05
-0.0001023
-2.895e-05
0.0001313
-1.865e-05
1.868e-05
-0.0009668
0.00167
0.001149
-0.0008194
-0.0003291
-0.0006316
0.001676
-0.001044
-0.001144
0.0007141
0.0004298
0.0003321
0.000193
-0.0005251
0.009126
-0.008936
-0.00019
0.01296
-0.005582
-0.007383
0.4948
-0.3681
-0.1267
-0.0009968
0.001106
-0.0001089
-1.556e-05
1.226e-05
3.299e-06
-0.0007049
3.991e-07
0.0007045
0.4962
-1.096
0.5996
-1.286e-05
2.839e-05
-1.553e-05
0.004698
-0.002397
-0.002302
-0.002257
0.0005908
0.001667
0.001203
-0.0005541
-0.0006487
-0.0003294
0.001569
-0.00124
0.001269
0.005776
-0.007045
0.0005701
-0.0006617
9.142e-05
-0.001521
-0.002914
0.004435
-0.001105
-0.001152
1.196e-06
3.743e-06
-4.939e-06
-0.0006313
-0.0001032
0.0007345
3.158e-06
4.445e-06
-1.177
0.5406
0.6366
0.002025
-0.003918
0.001893
-0.0009588
0.0003609
0.0005979
0.1269
0.05428
-0.1812
-0.001054
0.0002914
0.0007625
0.0007082
0.000186
-0.0008942
-1.242
1.242
0.001323
0.001842
-0.003165
2.892e-06
1.93e-06
-4.822e-06
0.06191
-0.04871
-0.01319
0.009126
1.273e-07
-0.005565
0.005543
2.236e-05
5.073e-05
-3.169e-05
-1.903e-05
0.01049
-0.008239
-0.00225
-1.274
0.5255
0.7481
0.0007376
-0.001171
0.0004333
-0.0002057
0.0004814
-0.0002756
0.4051
-0.2585
-0.1466
-0.01152
0.009159
0.00236
2.838e-05
-0.03368
0.03365
-0.002005
-0.001011
0.003015
-0.0005289
-0.0002063
0.0007351
-0.001323
-0.0006144
0.001938
-0.05225
-0.05615
0.1084
-1.776e-06
2.627e-06
-8.511e-07
1.081e-07
4.784e-06
-4.891e-06
0.0002497
0.0008565
0.0004026
-0.001485
0.001082
-0.002328
0.003846
-0.001518
7.922e-05
3.778e-05
-0.394
1.247
-0.8534
0.0002877
-0.001333
0.001045
0.353
-0.008407
-0.3446
0.0007575
-0.001026
0.0002682
-0.0005166
0.000407
0.0001096
0.0007304
0.0009603
-0.001691
0.0003523
0.0008505
-2.519e-06
2.927e-06
-4.078e-07
0.0003004
-0.000333
3.261e-05
-0.5591
0.2205
0.3386
-9.064e-06
9.064e-06
-0.0001503
0.0001117
3.862e-05
6.383e-05
-0.0002905
0.0002267
-0.001609
-0.0002049
0.001814
-0.0006371
0.0008762
-0.002466
-0.00242
0.004886
0.01304
-0.01185
-0.001193
-0.0004426
0.0003626
8e-05
0.001871
-0.001297
-0.0005731
-0.004176
0.0231
-0.01892
1.714e-05
-1.714e-05
-0.0001321
0.0001723
-4.026e-05
-0.0009981
0.0004346
0.0005635
0.0005341
0.0002188
-0.000753
0.001521
-0.001258
-0.0002623
-3.325e-05
0.0001012
-6.799e-05
2.387e-05
-2.778e-05
3.911e-06
-2.172e-07
-3.211e-06
3.43e-06
0.001998
-0.001458
-0.0005399
0.0004268
-0.0001033
-0.0003235
0.001155
-0.003985
0.002831
-0.0004422
-0.000553
0.0009951
-0.001334
0.0007037
0.0006299
-0.008558
-0.0002129
0.00877
1e-05
-1.001e-05
-0.01927
0.005905
0.01337
0.0008352
0.0003408
-0.001176
-0.005563
0.01377
0.0008416
-0.001156
0.0003148
-1.264
0.5118
0.7522
0.55
-0.7849
0.2349
0.00381
-0.006228
0.002418
7.032e-05
-8.158e-05