/*--------------------------------*- C++ -*----------------------------------*\
  =========                 |
  \\      /  F ield         | OpenFOAM: The Open Source CFD Toolbox
   \\    /   O peration     | Website:  https://openfoam.org
    \\  /    A nd           | Version:  8
     \\/     M anipulation  |
\*---------------------------------------------------------------------------*/
FoamFile
{
    version     2.0;
    format      ascii;
    class       volVectorField;
    location    "10";
    object      U;
}
// * * * * * * * * * * * * * * * * * * * * * * * * * * * * * * * * * * * * * //

dimensions      [0 1 -1 0 0 0 0];

internalField   nonuniform List<vector> 
127143
(
(0.005859 -0.0002566 0)
(-0.0001771 -0.0008164 6.096e-24)
(4.434e-06 2.251e-05 -1.189e-23)
(7.144e-06 3.406e-05 9.477e-28)
(0.03951 0.004519 -1.22e-20)
(6.861e-06 3.414e-05 -2.117e-27)
(0.2985 0.1783 0)
(0.1161 0.05277 -1.069e-20)
(0.07668 0.03822 4.983e-20)
(0.07923 0.001181 0)
(0.4468 0.6329 1.416e-20)
(0.2072 0.1356 3.043e-20)
(-0.0004874 0.0001847 2.421e-24)
(1.02e-05 3.635e-05 0)
(-0.3746 0.6546 2.98e-21)
(0.1259 -0.009947 0)
(-0.0002036 -0.0008084 1.958e-23)
(0.9821 -0.109 -4.161e-21)
(0.9792 -0.2071 0)
(0.1248 -0.004286 0)
(1.259 -0.2784 1.272e-20)
(-0.01767 0.006241 0)
(0.8507 -0.09204 0)
(0.8861 -0.08509 0)
(-0.01758 0.006393 1.41e-22)
(0.6831 -0.1109 0)
(0.5111 -0.01258 2.653e-20)
(0.5025 0.006115 -4.222e-22)
(0.3412 -0.1525 0)
(0.9914 -0.08495 6.204e-21)
(0.7598 -0.05128 0)
(0.6608 -0.1061 2.255e-21)
(0.3595 0.09097 1.407e-20)
(0.3355 -0.07829 -1.118e-20)
(0.7789 0.04866 4.803e-20)
(0.2859 0.08327 -3.19e-23)
(0.1464 -0.04347 1.281e-21)
(1.389 -0.2047 -9.488e-21)
(0.9267 -0.08762 4.498e-22)
(0.463 -0.0275 1.167e-24)
(0.9781 -0.2064 0)
(1.634 0.6802 -2.806e-20)
(1.587 0.6729 2.247e-20)
(-0.0009943 0.0003098 0)
(0.9815 -0.1067 3.817e-21)
(0.3409 -0.07845 3.663e-21)
(0.352 -0.1601 0)
(0.4195 -0.1126 -4.214e-22)
(0.8775 -0.1498 -8.329e-22)
(0.9068 -0.07657 2.186e-22)
(0.1455 -0.01016 8.104e-23)
(0.9183 0.004834 1.334e-19)
(1.548 -0.1707 0)
(1.421 -0.03849 -1.898e-20)
(0.9988 -0.002461 5.932e-20)
(0.7645 -0.1925 1.412e-21)
(0.9988 -0.002449 -5.335e-20)
(0.9484 -0.07927 0)
(1.014 -0.01759 -2.729e-20)
(1.423 -0.03397 -3.756e-20)
(0.3053 0.3101 -7.494e-20)
(1.05 -0.2582 -1.31e-21)
(0.9733 -0.07635 -9.353e-22)
(1.001 0.000621 1.869e-19)
(0.9584 -0.09255 0)
(0.679 -0.1327 -2.665e-20)
(1.273 0.1042 8.73e-20)
(0.9716 -0.07849 0)
(0.972 -0.07839 -2.562e-22)
(0.9987 1.079e-06 0)
(0.8447 -0.06985 0)
(0.5387 0.001304 -1.252e-20)
(0.7301 -0.1604 2.965e-21)
(1.015 -0.01744 -1.481e-20)
(1.007 0.003792 -5.314e-23)
(0.5375 0.01072 1.324e-20)
(1.047 0.0491 -1.153e-19)
(0.3589 -0.1072 0)
(0.7726 -0.1952 -2.78e-21)
(1.001 0.001369 0)
(0.3685 -0.1615 -4.386e-24)
(0.1454 -0.008099 -2.262e-23)
(0.4818 -0.1059 4.343e-21)
(0.5379 -0.03762 0)
(0.2781 -0.07944 -3.188e-22)
(0.3909 -0.1134 0)
(0.9465 -0.09572 1.079e-21)
(0.57 0.03618 7.531e-21)
(0.6794 -0.1296 0)
(2.103 1.195 0)
(0.9742 -0.01986 0)
(1.217 -0.1952 0)
(2.051 1.166 0)
(1.262 -0.2774 -1.277e-20)
(1.147 -0.2205 0)
(0.9615 -0.06553 -1.612e-20)
(1.629 0.6638 6.091e-20)
(0.695 -0.05499 0)
(0.7861 -0.2189 2.698e-21)
(1.272 0.111 0)
(1.001 0.001323 0)
(0.8784 -0.15 0)
(1.938 1.771 -4.584e-21)
(0.9295 -0.1017 0)
(0.4105 -0.1195 -9.161e-22)
(0.7582 -0.2135 3.733e-21)
(0.8905 -0.1339 4.531e-21)
(0.9985 1.172e-05 0)
(0.441 -0.08552 0)
(1.001 -0.001826 8.44e-20)
(-0.3683 0.6393 -1.003e-21)
(0.5908 0.04072 1.497e-20)
(1.243 -0.2774 -9.655e-21)
(0.2826 1.376 0)
(1 0.02316 -6.629e-22)
(0.8787 -0.129 1.18e-21)
(1.022 0.07456 1.851e-20)
(1.007 0.004028 -1.062e-19)
(1.046 0.0476 9.207e-20)
(-2.932e-05 7.381e-05 0)
(1.001 -0.001943 -1.181e-19)
(0.4626 -0.1104 -1.407e-21)
(0.5689 -0.1815 0)
(0.9391 -0.08188 -9.795e-21)
(0.3687 -0.163 1.553e-21)
(0.5911 -0.08225 3.747e-21)
(1.08 -0.2783 0)
(1.053 -0.01116 1.684e-19)
(1.64 -0.1242 -2.527e-21)
(0.7097 -0.2007 -2.664e-21)
(0.4876 -0.1229 0)
(0.9497 -0.2167 -4.637e-21)
(0.9557 -0.08717 3.574e-21)
(0.3643 -0.1088 0)
(-0.0003046 -0.001329 1.044e-22)
(0.5046 -0.1259 -1.581e-21)
(1.057 -0.0814 0)
(1.279 -0.2743 4.418e-21)
(0.2 -0.1049 -2.137e-20)
(1.107 -0.0786 9.937e-21)
(0.8078 -0.1065 4.881e-20)
(1.006 0.06054 -2.309e-20)
(1.476 -0.1997 8.228e-22)
(1.348 -0.253 -1.023e-20)
(1.547 -0.1702 -3.843e-21)
(1.994 0.5967 1.484e-20)
(-0.3354 1.648 -2.859e-21)
(1.001 0.0005418 -1.696e-19)
(0.9298 -0.2109 3.717e-21)
(2.095 1.746 -1.992e-21)
(0.9375 -0.09729 2.211e-21)
(0.8532 -0.1622 0)
(1.394 -0.1927 3.147e-20)
(0.6976 -0.0008582 0)
(-0.09598 0.2421 0)
(0.2944 -0.08132 0)
(0.9487 -0.07887 2.305e-21)
(0.6038 -0.206 0)
(0.428 -0.116 -8.397e-22)
(0.6805 -0.05944 -2.953e-22)
(0.8336 -0.05944 0)
(0.1724 -0.08419 3.399e-20)
(0.9748 -0.02055 2.521e-21)
(0.4873 -0.1192 -3.701e-21)
(0.678 -0.1769 0)
(1.035 -0.1029 9.031e-21)
(0.1449 -0.04138 -7.764e-22)
(0.44 -0.02511 4.682e-20)
(2.085 0.4665 -5.863e-21)
(0.9675 0.1331 -2.641e-21)
(-0.02333 0.00459 0)
(1.346 -0.2538 5.03e-21)
(0.8667 -0.136 3.797e-21)
(0.7055 -0.1808 -1.121e-20)
(0.9953 -0.002861 1.192e-20)
(0.02862 -0.02447 -3.708e-24)
(1.972 0.7412 -3.025e-21)
(1.639 -0.125 -2.526e-21)
(0.9161 -0.09331 0)
(1.011 -0.0302 1.132e-20)
(0.7042 -0.1809 -3.779e-21)
(0.97 -0.04019 0)
(0.02471 -0.02258 -8.934e-23)
(0.02918 -0.02472 3.812e-24)
(0.7093 -0.2019 5.366e-21)
(1.051 -0.2574 2.851e-21)
(1.362 0.4255 -3.242e-20)
(0.3157 1.393 4.66e-21)
(0.8957 -0.08687 9.257e-22)
(1.029 -0.04119 5.039e-20)
(1.529 -0.1885 2.582e-21)
(1.494 -0.1901 -1.026e-20)
(1.058 -0.08073 5.332e-20)
(0.7057 1.92 7.146e-21)
(-0.0002329 -0.001466 -1.745e-22)
(1.159 -0.2915 0)
(1.006 -4.073e-06 0)
(0.9941 -2.669e-06 1.175e-21)
(0.03825 0.001232 0)
(0.9969 0.03526 1.227e-21)
(1.022 0.006741 7.814e-20)
(0.9136 0.08973 1.202e-19)
(1.003 -0.05167 -3.328e-21)
(0.159 -0.04694 -6.511e-22)
(1.307e-05 5.518e-05 -2.589e-24)
(0.9647 -0.0697 -7.439e-22)
(0.8966 -0.0641 1.95e-20)
(0.8667 -0.141 -1.222e-21)
(0.9937 -0.08504 -3.391e-21)
(1 0.02257 5.514e-22)
(1.099 -0.1569 1.302e-20)
(0.1615 -0.05524 -1.213e-22)
(0.9771 7.769e-05 3.432e-20)
(2.116 0.4782 -5.939e-21)
(0.4059 -0.1077 -1.926e-23)
(0.07723 -0.0039 0)
(-0.05185 0.01801 6.844e-23)
(0.8444 -0.1505 6.074e-21)
(1.006 -0.2539 -7.498e-21)
(0.8985 -0.06389 4.731e-21)
(1.95 0.7342 -6.936e-21)
(1.004 0.009442 6.468e-20)
(0.8543 -0.1625 -9.626e-22)
(1.555 -0.1614 3.794e-21)
(0.6423 -0.05553 0)
(-0.03935 0.01224 0)
(0.7175 -0.1868 -3.126e-21)
(1.389 -0.2024 1.131e-20)
(-0.02386 0.01008 1.237e-22)
(0.9481 -0.2564 5.071e-21)
(1.253 -0.2719 7.178e-21)
(0.9688 -0.03975 3.917e-20)
(0.7781 -0.1695 -5.93e-21)
(5.733e-05 -0.0003714 0)
(1.256 -0.2725 0)
(0.9355 -0.0733 -1.282e-20)
(0.4882 -0.1185 1.839e-21)
(0.01581 -0.002518 -1.124e-22)
(1.022 0.006406 -7.161e-20)
(1.51 -0.1953 1.164e-20)
(1.509 -0.1902 7.55e-21)
(1.289 -0.08258 -1.116e-20)
(0.1158 -0.03183 -3.953e-23)
(0.6073 -0.2062 -9.253e-24)
(1.514 -0.1508 0)
(-3.425e-05 5.944e-05 -4.733e-29)
(0.8382 -0.1607 5.566e-21)
(0.5 -0.001501 0)
(-0.01935 0.007236 1.386e-21)
(1.001 -0.0002353 -2.613e-21)
(1.822 0.4266 -5.104e-20)
(0.6515 -0.07206 -1.764e-21)
(0.7918 -0.1683 0)
(1.325 -0.2719 0)
(0.792 -0.1875 3.906e-21)
(0.4628 -0.1004 0)
(1.051 -0.01159 -1.324e-19)
(2.295 0.6802 0)
(0.7598 -0.1683 0)
(1.027 0.4542 -1.131e-20)
(1.199 -0.2767 -6.654e-21)
(0.9549 -0.03143 -3.579e-20)
(1.217 -0.192 7.13e-22)
(1.004 0.0599 1.427e-20)
(1.592 -0.119 0)
(1.178 -0.07002 -3.851e-21)
(0.1883 -0.05799 2.978e-21)
(-0.1401 0.2572 0)
(0.2986 0.1144 8.748e-20)
(1.527 -0.09069 -1.505e-20)
(0.7581 -0.1413 0)
(0.9948 -0.002922 -1.405e-20)
(0.5052 -0.1324 -6.036e-22)
(1.509 -0.1963 -1.077e-20)
(0.9697 -0.07309 -1.636e-21)
(1.528 -0.1877 -1.048e-20)
(1.25 -0.2782 0)
(0.8971 -0.1383 -4.939e-21)
(0.9935 -0.006466 -1.305e-21)
(0.6888 -0.1713 1.107e-20)
(0.9992 -0.001133 3.22e-21)
(0.9596 -0.06503 -2.229e-22)
(0.9297 -0.1013 7.938e-24)
(0.9909 0.01279 0)
(1.011 0.01753 3.868e-20)
(-0.0007992 -0.001723 2.503e-23)
(0.6122 -0.102 0)
(1.002 0.02455 -2.907e-21)
(0.9147 -0.1257 -2.628e-21)
(1.01 -0.03028 1.706e-20)
(1.391 -0.1925 -4.792e-20)
(0.8239 -0.1239 0)
(0.9346 -0.07343 1.304e-20)
(0.8441 -0.1455 0)
(0.9752 -0.009693 -3.169e-20)
(0.4124 -0.09573 -1.654e-21)
(0.7984 -0.06702 -6.095e-22)
(0.008849 -0.01963 8.594e-23)
(0.1155 -0.03207 1.423e-22)
(1.524 -0.08913 1.017e-20)
(0.7733 -0.08962 5.936e-22)
(0.7445 -0.1376 -4.912e-21)
(0.5833 -0.07914 -3.109e-20)
(0.8786 -0.1285 -1.157e-20)
(0.6093 -0.04509 0)
(0.1363 0.01477 -3.719e-25)
(0.8671 -0.1406 -4.049e-22)
(0.9763 0.000326 0)
(1.134 -0.253 2.991e-23)
(0.9407 -0.09709 2.405e-21)
(0.8961 -0.1321 4.913e-21)
(0.008689 -0.01649 2.295e-23)
(0.7853 -0.188 0)
(0.999 -0.001194 2.303e-21)
(0.9865 0.01751 -3.251e-20)
(2.117 0.7963 2.936e-21)
(1.409 -0.2058 4.784e-21)
(0.7563 -0.08357 -1.21e-21)
(1.242 -0.1557 3.518e-20)
(1.003 -0.02469 1.046e-21)
(0.8504 -0.09047 0)
(0.801 -0.05999 6.771e-22)
(1.088 -0.02369 3.49e-20)
(0.7926 -0.1682 3.082e-21)
(2.121 0.7952 0)
(1.469 -0.183 -1.129e-20)
(0.8501 0.05641 8.363e-20)
(0.01377 -0.013 -8.975e-24)
(0.7964 -0.04498 -1.733e-22)
(1.927 0.8735 2.248e-20)
(0.9729 -0.25 0)
(1.012 0.01718 -3.363e-20)
(0.7848 0.04287 -1.744e-19)
(1.006 5.886e-06 0)
(0.9939 5.841e-06 0)
(0.7004 0.003739 0)
(0.4557 -0.09392 -1.061e-20)
(0.866 -0.1359 3.851e-21)
(0.9699 -0.249 -1.143e-21)
(0.6208 -0.192 -1.568e-20)
(1.103 -0.077 -4.388e-20)
(0.845 -0.1504 0)
(1.535 -0.1705 3.266e-21)
(1.528 -0.1864 2.931e-21)
(-0.05043 0.7728 -7.213e-22)
(0.9142 -0.1249 1.75e-21)
(0.6234 -0.1427 -3.665e-21)
(1.307 -0.2461 3.852e-21)
(0.809 -0.09801 1.061e-21)
(1.682 -0.0918 0)
(0.818 -0.09417 -7.952e-22)
(1.02 -0.2177 3.076e-21)
(0.03166 -0.01841 2.406e-23)
(1.528 -0.1868 9.44e-21)
(0.9441 0.156 0)
(0.6322 -0.1604 -8.305e-21)
(1.323 -0.2726 -5.728e-21)
(1.965 0.5252 -1.27e-20)
(1.005 -0.01321 1.362e-20)
(0.7838 -0.04402 0)
(0.6102 -0.1566 -1.002e-21)
(0.9724 -0.07616 -2.862e-22)
(1.02 -0.1658 -9.334e-21)
(0.9023 -0.06949 0)
(0.9122 -0.08008 6.668e-22)
(1.004 0.003905 9.804e-22)
(0.9969 0.0344 -4.347e-21)
(0.9785 -0.01491 0)
(0.6198 -0.1223 3.289e-21)
(0.9904 -0.006215 0)
(0.1309 0.4079 7.567e-20)
(1.087 -0.02608 -7.047e-20)
(0.7064 -0.07989 1.536e-21)
(0.895 -0.07023 -6.668e-22)
(1.029 -0.04007 0)
(1.212 -0.1024 -7.073e-22)
(0.8454 -0.08413 -7.033e-22)
(-0.0009378 -0.0006651 2.006e-26)
(0.7732 -0.2113 -6.505e-21)
(0.9969 -0.00713 1.289e-21)
(1.115 -0.2216 -4.694e-20)
(0.6326 -0.08243 -3.629e-21)
(0.835 -0.1041 0)
(0.741 -0.139 -1.841e-20)
(1.022 0.07201 0)
(0.2544 -0.02022 0)
(1.098 0.2633 0)
(0.4818 -0.02996 0)
(1.165 -0.294 -1.927e-21)
(1.255 -0.2384 -4.191e-20)
(1.016 -0.0148 -7.909e-20)
(0.5599 -0.02631 0)
(-0.03607 0.01177 1.568e-23)
(0.7753 -0.1919 4.208e-21)
(0.8926 -0.08363 -1.326e-21)
(0.7743 -0.05717 -5.311e-22)
(0.5649 -0.03217 -2.508e-20)
(0.7847 -0.05253 0)
(0.9389 0.1546 0)
(0.9547 -0.03032 0)
(0.5413 -0.04307 2.128e-22)
(1.004 0.008993 -2.42e-20)
(1.303 -0.2781 0)
(0.02692 -0.02325 0)
(1.108 0.2615 0)
(0.9262 -0.107 -2.222e-21)
(0.4613 -0.1339 -4.46e-21)
(0.9511 -0.09107 -2.81e-21)
(1 0.001483 -2.488e-20)
(0.928 -0.09527 0)
(0.421 -0.1321 0)
(0.8099 -0.1147 2.702e-21)
(0.8099 -0.1058 -5.229e-20)
(0.5403 -0.1408 0)
(0.5686 -0.1787 0)
(1.173 -0.2237 -4.5e-21)
(0.9148 -0.2446 -6.908e-21)
(0.7314 -0.1394 0)
(1.461 -0.1581 8.963e-21)
(0.5057 -0.1854 -5.187e-21)
(0.1507 -0.04356 0)
(-0.006817 0.002185 -7.225e-21)
(0.4064 -0.1243 0)
(1.002 -0.0001536 9.184e-22)
(0.9322 -0.2511 -5.363e-21)
(1.154 0.4711 2.327e-20)
(1.565 0.6554 9.65e-22)
(0.7806 -0.07698 -3.185e-20)
(1.349 -0.1019 1.394e-20)
(0.8715 -0.07102 -1.665e-20)
(1.005 -0.000512 0)
(0.3924 -0.1142 0)
(0.02484 -0.01571 0)
(1.085 -0.1736 7.705e-20)
(1.677 -0.02011 1.574e-21)
(1.004 0.003765 -2.947e-20)
(0.8936 -0.1276 -5.019e-21)
(0.6987 -0.1725 -8.349e-21)
(0.9205 0.005148 -4.932e-20)
(0.9751 -0.008825 0)
(0.9924 0.001315 -9.817e-21)
(0.9182 -0.07817 -3.136e-22)
(1.054 -0.08446 -1.742e-20)
(0.4524 -0.1017 2.073e-20)
(0.9786 0.09459 0)
(0.7126 -0.05584 3.126e-23)
(0.9819 0.01966 7.974e-20)
(0.01384 0.05934 0)
(0.9815 -0.01488 1.035e-21)
(0.1617 -0.05467 -1.662e-22)
(1.124 -0.2897 0)
(0.8684 -0.1078 -1.019e-23)
(0.9262 -0.1063 6.429e-21)
(0.6343 -0.111 2.064e-20)
(0.8955 0.2608 -2.088e-21)
(0.1511 -0.0466 -1.96e-22)
(0.7738 -0.09279 5.757e-22)
(1.54 -0.08239 0)
(0.2147 -0.06053 0)
(1.445 -0.1521 7.625e-21)
(0.9549 -0.08689 -1.133e-21)
(1.616 -0.1219 6.644e-21)
(1.244 -0.2554 0)
(0.3591 1.28 1.237e-20)
(1.617 -0.1232 -9.584e-24)
(0.9978 -0.002492 0)
(1.027 0.03843 0)
(1.406 -0.2382 0)
(0.5271 -0.1605 3.394e-21)
(0.9945 -0.000341 0)
(0.9373 -0.2496 3.225e-21)
(1.254 -0.182 2.368e-20)
(0.9396 -0.08121 1.462e-20)
(1.406 -0.2049 -1.652e-21)
(0.9081 -0.05612 2.532e-20)
(1.005 -0.0002845 0)
(-0.162 0.3762 -2.204e-20)
(1.253 -0.1795 -2.778e-20)
(0.002223 0.002079 -2.071e-22)
(1.525 -0.1632 7.822e-22)
(0.2214 -0.1157 1.56e-21)
(-0.002774 0.08494 -1.68e-20)
(1.145 -0.1661 2.578e-21)
(0.783 -0.188 0)
(0.426 -0.1236 0)
(1.673 -0.02022 -1.684e-21)
(1.509 -0.1638 -6.866e-22)
(1.017 -0.001177 7.783e-20)
(0.7236 -0.06405 4.573e-22)
(0.9679 0.05116 4.443e-20)
(2.079 0.797 9.475e-22)
(0.9509 -0.0961 -9.629e-22)
(1.563 -0.1685 0)
(1.993 0.5634 6.695e-21)
(1.777e-05 7.871e-05 0)
(0.3965 -0.1098 4.287e-21)
(0.1856 1.028 -6.09e-22)
(0.9482 -0.06328 -5.018e-26)
(1.637 1.195 2.893e-20)
(0.9811 0.004355 -1.61e-19)
(0.2263 -0.1187 0)
(1.028 0.03798 1.379e-22)
(0.07971 -0.02247 0)
(1.161 -0.2893 -8.321e-21)
(-0.0002031 -0.001014 0)
(-0.002692 -0.008918 -1.333e-22)
(-0.003256 0.0009553 4.783e-23)
(0.999 -0.0001984 -6.732e-20)
(0.6403 -0.1628 0)
(1.823 0.0745 0)
(0.9872 0.01736 6.046e-20)
(0.8031 -0.2013 1.705e-21)
(0.567 -0.1834 1.911e-20)
(0.2977 -0.08603 2.803e-21)
(0.9018 -0.1199 0)
(1.112 -0.2875 0)
(0.8624 -0.1058 8.977e-22)
(0.9425 -0.2525 -3.233e-21)
(0.3022 -0.05658 1.831e-21)
(0.9991 -0.002276 0)
(0.1039 -0.04216 2.335e-22)
(-0.01345 0.004739 0)
(0.4916 -0.1853 3.523e-21)
(0.7658 -0.07577 -2.519e-22)
(-0.02149 0.003702 -4.687e-23)
(1.015 -0.01673 -2.436e-20)
(0.9375 -0.0971 2.409e-21)
(1.004 -0.05134 -1.61e-21)
(1.243 -0.2542 1.425e-20)
(0.9936 -0.01513 0)
(0.6781 -0.05405 0)
(2.113 0.9779 0)
(-0.03464 0.01289 -1.446e-22)
(0.9927 6.103e-05 0)
(1.405 -0.2387 -4.567e-21)
(0.9219 -0.08247 1.326e-20)
(-0.005666 -0.002761 -1.206e-25)
(0.384 -0.1119 8.898e-21)
(1.89 0.5509 1.919e-21)
(1.191 -0.2565 -4.067e-21)
(0.957 0.04436 3.519e-21)
(0.05011 -0.01679 -2.241e-22)
(0.5416 -0.1612 -1.101e-20)
(0.9944 -0.0003411 8.687e-21)
(0.7428 -0.1392 2.451e-20)
(1.447 -0.1608 -4.347e-20)
(0.8251 -0.07247 4.752e-22)
(0.9086 -0.06904 -3.146e-22)
(0.5069 -0.1546 -3.648e-21)
(0.0916 -0.0316 4.991e-22)
(1.164 -0.2925 4.295e-21)
(1.591 -0.06627 0)
(0.5239 -0.1863 4.946e-21)
(0.2511 -0.07479 0)
(0.4054 -0.1165 9.573e-23)
(1.027 -0.01172 -1.189e-20)
(0.515 -0.03113 -4.558e-23)
(0.6631 -0.1992 -3.725e-21)
(0.8047 -0.1204 -2.831e-21)
(0.9405 -0.09971 3.436e-21)
(0.1719 -0.04341 3.121e-22)
(1 0.002881 0)
(1 0.003831 2.387e-21)
(1.031 0.4347 1.88e-20)
(0.6072 -0.1411 -1.819e-21)
(1.62 1.266 0)
(0.9858 0.02044 -4.18e-20)
(1.004 5.983e-06 -7.976e-22)
(0.5599 -0.1548 0)
(0.4345 -0.1774 0)
(0.4288 -0.1216 1.265e-21)
(0.424 -0.1236 0)
(0.02929 -0.008491 1.728e-21)
(0.05795 -0.01754 0)
(0.8042 -0.1545 -4.239e-21)
(1.04 0.04425 0)
(0.9974 -0.0009628 1.467e-20)
(-0.02654 0.01103 2.35e-22)
(0.9279 -0.2293 -2.951e-21)
(0.793 -0.171 8.753e-21)
(1.001 -0.002612 2.61e-20)
(0.534 0.003834 6.396e-21)
(0.9456 -0.09404 0)
(0.5591 -0.1602 6.038e-21)
(0.9978 -0.006772 3.271e-21)
(0.7063 -0.08975 -1.682e-22)
(0.9852 0.02014 7.786e-20)
(0.4951 -0.1443 -9.035e-22)
(0.03614 -0.02436 0)
(1.222 -0.2441 5.72e-22)
(0.9966 2.052e-05 6.614e-22)
(0.1277 -0.04112 -2.057e-21)
(1.199 -0.2766 -1.684e-21)
(0.2254 -0.1191 -2.374e-20)
(1.005 -0.000257 -3.352e-21)
(0.8897 -0.1337 -4.732e-21)
(-0.05118 0.01779 -3.139e-23)
(0.9924 0.001058 0)
(0.9259 -0.1071 0)
(0.9949 0.02612 -5.142e-22)
(0.9495 -0.07237 -5.401e-22)
(1.49 -0.1768 0)
(0.9908 0.01231 4.05e-20)
(0.5194 -0.1395 9.559e-21)
(0.8835 -0.1183 -1.136e-21)
(0.00665 -0.01772 0)
(1.435 -0.2123 -1.121e-20)
(1.472 -0.1969 -1.332e-21)
(0.829 -0.09628 2.395e-21)
(0.841 -0.1051 9.387e-22)
(-0.1574 0.5523 -1.093e-20)
(0.9334 -0.08932 3.764e-22)
(2.037 1.16 3.211e-21)
(0.908 -0.05716 2.259e-22)
(0.02815 -0.01169 -7.449e-24)
(1.592 -0.1331 -2.28e-21)
(0.6968 -0.0654 -2.392e-22)
(1.001 -0.002543 0)
(0.8222 -0.1715 -2.425e-21)
(0.989 0.01503 -1.711e-20)
(-0.02696 0.7895 -5.656e-21)
(1.066 0.005897 7.749e-20)
(1.474 -0.1992 1.258e-20)
(1.005 -0.0006099 0)
(1.001 0.02443 -1.674e-21)
(0.9494 -0.07877 -1.004e-20)
(0.5043 -0.1846 2.596e-21)
(1.187 -0.2589 4.646e-21)
(1.003 -0.001309 2.15e-20)
(1 -0.003285 -3.295e-20)
(-0.02022 0.00912 -1.17e-22)
(0.8831 0.1081 0)
(0.5457 -0.1188 4.619e-21)
(0.7439 -0.06573 6.407e-22)
(0.6489 -0.1597 0)
(0.4526 -0.1004 -1.661e-20)
(1.102 -0.2764 -7.279e-22)
(0.4201 -0.1334 0)
(1.527 -0.1861 -2.574e-22)
(0.3376 -0.09435 -1.254e-20)
(0.9591 -0.05765 0)
(1.002 -0.001385 -3.749e-21)
(1.703 -0.06556 1.04e-20)
(1.518 -0.1905 1.151e-21)
(0.8791 -0.1225 3.216e-21)
(1.397 -0.1588 0)
(0.9788 -0.02136 -1.069e-19)
(1.004 8.529e-07 8.922e-23)
(1.468 -0.1818 -1.084e-20)
(0.2032 -0.1047 -5.263e-24)
(1.508 -0.1641 3.434e-21)
(-0.05257 0.01811 -6.406e-23)
(1.066 0.007624 0)
(1.003 3.039e-05 4.495e-22)
(0.3304 -0.1003 0)
(1.445 -0.1213 0)
(0.9177 0.08759 -9.597e-20)
(0.8303 -0.08906 -5.354e-21)
(0.8868 -0.1001 0)
(0.9818 -0.04432 -4.383e-20)
(0.2054 -0.05707 4.688e-21)
(0.7819 -0.1645 -2.657e-21)
(1.518 -0.1898 7.119e-21)
(0.676 -0.029 -9.386e-20)
(-0.001111 0.0003347 0)
(-0.03735 0.01133 0)
(0.2215 -0.06184 -2.281e-22)
(0.1493 -0.04764 3.425e-22)
(0.6178 -0.1032 0)
(1.363 -0.2054 6.587e-21)
(0.7429 -0.09614 3.849e-22)
(1.045 -0.1659 0)
(0.9215 0.01989 -2.296e-20)
(1.614 -0.139 1.229e-20)
(0.01284 -0.01758 0)
(1.303 -0.2777 -6.949e-21)
(0.9994 -0.002446 7.621e-20)
(0.8962 -0.1378 3.622e-21)
(0.6599 -0.1138 0)
(0.4179 0.3995 -3.556e-20)
(0.9926 2.949e-05 -4.692e-23)
(0.9995 -0.002518 -1.016e-19)
(-0.00641 -0.009685 0)
(0.9483 -0.06301 3.758e-21)
(0.8525 -0.1561 -3.612e-21)
(1.471 -0.1842 -7.075e-22)
(0.2058 -0.06028 0)
(1.136 -0.2534 1.672e-20)
(1.548 0.01438 0)
(0.6831 -0.05856 -2.583e-22)
(0.5868 0.2801 6.946e-20)
(0.7524 -0.1942 0)
(1.016 -0.001318 -2.792e-20)
(1.003 -0.00148 0)
(1.856 0.4791 0)
(1.168 0.4683 0)
(0.6691 -0.1325 7.453e-22)
(0.4201 0.3734 0)
(0.48 -0.1933 8.031e-21)
(0.7608 -0.1857 0)
(0.4826 -0.1851 -9.352e-21)
(1.099 -0.1539 8.47e-20)
(1.023 -0.1649 1.351e-20)
(0.9975 4.437e-05 -2.038e-23)
(0.7058 -0.05069 1.3e-22)
(0.9098 -0.05667 3.529e-21)
(0.8141 -0.1839 -2.408e-21)
(-0.0005274 -0.002 -2.425e-23)
(0.8907 -0.1307 -1.556e-21)
(1.591 -0.1174 -1.435e-20)
(0.8011 -0.2207 7.083e-21)
(0.9968 3.495e-05 -6.372e-22)
(0.9431 -0.1007 -6.025e-23)
(0.9091 -0.08267 8.189e-22)
(-0.03717 0.01299 0)
(0.9891 -0.1803 1.996e-22)
(1.278 -0.2613 1.131e-20)
(1.527 -0.1863 -3.862e-21)
(2.072 1.723 0)
(0.9028 -0.2441 6.914e-21)
(0.2578 -0.1068 1.952e-20)
(0.9968 -0.2277 -8.605e-22)
(0.7845 -0.1855 1.085e-21)
(0.9465 -0.1011 -1.614e-21)
(0.9404 -0.09709 -1.15e-21)
(1.084 -0.2782 6.78e-21)
(0.8506 -0.1239 1.442e-20)
(0.008374 -0.0004954 0)
(0.6561 -0.114 0)
(0.965 0.128 1.54e-20)
(0.7993 -0.1706 -2.477e-21)
(0.446 -0.1601 1.526e-20)
(0.9507 -0.09905 3.44e-22)
(1.008 -0.003138 0)
(0.01534 -0.01971 5.737e-23)
(1.022 -0.2176 -6.377e-21)
(0.4346 -0.1226 -1.186e-21)
(1.003 1.487e-05 -3.77e-22)
(-0.05265 0.01839 0)
(0.42 -0.1292 0)
(0.7128 -0.09072 -2.356e-21)
(0.9981 3.234e-05 1.826e-22)
(0.9985 -0.1623 6.64e-21)
(0.04091 -0.01098 0)
(0.905 -0.1727 8.124e-21)
(1.555 -0.144 -6.349e-21)
(0.9977 1.941e-05 -1.562e-22)
(0.6331 -0.1752 -2.756e-21)
(0.001717 -0.008512 0)
(0.348 -0.09283 7.777e-21)
(1.339 -0.2708 0)
(0.9962 0.03815 -9.581e-22)
(1.536 -0.17 3.269e-21)
(-0.2934 0.873 0)
(1.03 -0.004842 -2.566e-20)
(0.8558 -0.1462 4.551e-21)
(0.8197 -0.1444 0)
(1.388 -0.203 -7.595e-21)
(0.3978 -0.1097 0)
(0.7457 -0.136 -1.483e-20)
(0.8906 -0.131 0)
(0.6481 -0.08122 -4.278e-22)
(0.2036 -0.06101 0)
(0.9935 8.464e-06 -5.068e-22)
(0.6214 -0.1715 2.641e-21)
(0.9877 -0.2388 4.637e-22)
(0.5105 -0.04095 0)
(0.8308 -0.1197 -2.046e-21)
(1.413 -0.05589 0)
(0.8153 -0.2046 0)
(0.09648 -0.03239 1.191e-22)
(0.993 4.454e-05 -1.479e-22)
(0.3104 -0.09026 -2.924e-21)
(0.2057 -0.05484 0)
(1.518 -0.1678 0)
(9.898e-05 -0.0005815 2.796e-23)
(1.518 -0.167 -3.791e-21)
(-0.03392 0.01235 2.124e-22)
(1.378 -0.259 -1.575e-21)
(0.1179 -0.03493 0)
(0.7939 -0.1583 0)
(0.9991 -0.0002243 3.319e-20)
(-0.001319 0.000495 1.69e-23)
(0.59 -0.1799 6.357e-21)
(1.447 -0.2144 9.676e-21)
(-0.03103 0.01221 2.995e-22)
(0.2933 -0.07997 -2.349e-21)
(0.07493 -0.02174 1.214e-21)
(0.2436 -0.06995 -9.704e-22)
(0.8656 -0.07283 0)
(0.9972 -0.0008913 0)
(1.006 -0.2054 0)
(0.9237 -0.1062 -1.07e-23)
(0.9978 1.994e-05 0)
(0.2571 -0.07886 -4.031e-21)
(2.076 0.7933 0)
(0.8953 -0.1318 -3.413e-21)
(0.5882 -0.1828 -6.001e-21)
(1.006 -0.0001506 -1.391e-20)
(1.119 -0.2791 0)
(0.02531 -0.02224 0)
(1.017 -0.0009882 -9.07e-20)
(1.006 -0.0001676 0)
(1.394 -0.161 0)
(1.04 -0.2564 4.052e-21)
(0.6507 -0.1603 -2.752e-22)
(0.06418 -0.01987 4.908e-22)
(0.4877 -0.1387 1.951e-21)
(0.1511 -0.008345 -9.097e-24)
(0.9157 -0.1124 0)
(0.5017 0.06483 -6.354e-20)
(0.9997 -0.002568 0)
(0.5397 -0.1546 -2.708e-21)
(0.1463 -0.04227 0)
(0.7818 -0.05556 2.686e-22)
(0.6466 -0.05355 0)
(0.4457 -0.02271 -4.655e-20)
(1.002 -0.0008162 0)
(1.015 -0.01618 2.773e-21)
(0.9779 -0.04581 2.471e-20)
(0.5494 0.005594 7.498e-21)
(0.9997 -0.002431 1.336e-20)
(1.085 -0.1441 -2.986e-20)
(0.1278 -0.06123 5.248e-21)
(0.9223 -0.1135 -4.063e-21)
(0.6783 -0.09366 2.56e-21)
(0.9996 -0.003005 0)
(0.08214 -0.03788 1.64e-22)
(0.9294 -0.1095 2.127e-21)
(1.005 0.0116 0)
(0.8155 -0.09871 -1.043e-21)
(0.9953 -0.0004084 0)
(0.3063 -0.1126 2.421e-20)
(-0.473 0.7757 -7.181e-22)
(1.29 -0.1598 -1.575e-22)
(1.549 -0.1293 0)
(0.4083 -0.02529 -7.979e-23)
(0.9735 -0.01774 5.337e-21)
(0.4949 -0.1318 0)
(0.6615 -0.0366 -2.211e-20)
(0.6846 -0.05828 0)
(0.01213 -0.01674 8.585e-23)
(0.7546 -0.09924 -6.128e-22)
(1.575 2.183 -6.966e-21)
(1.417 -0.05092 -1.732e-20)
(0.8502 -0.1336 -7.176e-21)
(0.515 -0.1095 2.816e-23)
(0.3573 -0.0667 0)
(1.004 0.01495 0)
(1.322 -0.2148 2.439e-20)
(0.6516 -0.2041 0)
(2.158 0.4043 5.483e-22)
(0.01274 -0.0175 -2.82e-23)
(0.5701 -0.09338 0)
(1.002 -0.0007677 0)
(1.025 -0.1033 1.33e-20)
(-0.027 0.01164 -1.147e-22)
(0.5968 -0.1374 -7.845e-21)
(0.36 -0.02134 3.333e-20)
(1.9 0.1707 0)
(-0.1882 0.2185 -1.753e-21)
(2.014 0.2443 -2.001e-21)
(0.1702 0.02508 2.421e-20)
(0.8715 -0.2031 -3.067e-21)
(-0.02141 0.009542 5.683e-22)
(1.008 -0.2051 2.493e-21)
(0.2934 -0.02239 -4.209e-22)
(1.038 0.05871 -1.523e-20)
(0.9055 -0.1285 0)
(1.004 3.315e-05 0)
(0.9965 2.64e-05 0)
(1.464 -0.2102 5.833e-21)
(1.09 0.02584 3.943e-21)
(1.536 -0.1883 9.738e-21)
(0.8955 -0.1533 6.309e-21)
(0.2544 1.333 0)
(0.9411 -0.08937 8.451e-21)
(1.041 -0.05615 -2.308e-20)
(2.135 0.8483 8.217e-21)
(0.7932 -0.1728 4.34e-21)
(1.016 -0.01456 5.545e-20)
(1.039 -0.2063 -1.769e-22)
(0.2248 -0.06264 -4.159e-22)
(1.041 -0.05407 3.363e-20)
(0.5222 -0.1188 -1.118e-20)
(-0.02424 0.006654 -2.549e-21)
(0.03156 -0.02591 0)
(0.8289 -0.1559 0)
(-0.3628 0.6015 -3.448e-21)
(1.323 -0.2504 0)
(0.04744 -0.01511 0)
(0.9855 0.005361 5.423e-20)
(1.564 -0.1667 5.743e-21)
(0.8136 -0.1845 2.434e-21)
(1.005 -0.01289 0)
(0.4974 -0.1123 5.438e-21)
(0.6512 -0.1964 0)
(1.064 -0.2589 -2.777e-21)
(0.9946 -0.0003129 4.373e-21)
(0.9708 -0.02285 3.135e-21)
(1.062 -0.2086 0)
(0.1054 -0.007434 -2.942e-23)
(0.6071 -0.1627 -1.398e-20)
(-0.02488 0.007453 0)
(1.018 -0.2501 3.464e-21)
(0.4288 -0.1431 0)
(0.8054 -0.1688 -8.747e-22)
(-0.04602 0.01542 0)
(1.475 -0.09037 2.089e-21)
(0.9961 2.271e-05 6.929e-23)
(0.1796 -0.0964 0)
(1.631 0.3663 -3.238e-20)
(1.005 3.057e-05 0)
(0.4894 -0.1249 4.35e-22)
(-0.008767 0.002761 -1.92e-22)
(1.179 -0.2349 -7.393e-21)
(1.883 0.1231 -6.807e-21)
(0.9624 -0.06439 -1.645e-21)
(0.8873 -0.1264 -1.67e-21)
(-0.03687 0.01252 -2.135e-24)
(0.1219 -0.01751 1.759e-22)
(0.8942 -0.09408 0)
(1.039 0.04464 -3.961e-20)
(0.996 0.01016 6.476e-21)
(0.8433 -0.1505 0)
(0.3788 -0.09382 -4.71e-21)
(0.1975 -0.05936 -2.953e-21)
(0.5535 -0.1207 0)
(0.4407 1.666 1.698e-20)
(0.458 -0.1892 -4.385e-21)
(0.6498 -0.01214 -2.441e-22)
(1.331 0.013 -4.115e-20)
(0.463 -0.1895 -4.348e-21)
(1.112 -0.08605 4.971e-20)
(0.6412 -0.0418 0)
(1.008 -0.001798 0)
(0.444 -0.1176 2.05e-22)
(0.004377 -0.01625 8.401e-24)
(1.386 -0.2458 -1.417e-20)
(0.4372 -0.05642 0)
(0.912 -0.2234 0)
(0.9915 0.009105 -3.128e-20)
(0.9681 0.02283 2.505e-20)
(-0.01231 0.006479 0)
(0.7797 -0.1129 3.43e-20)
(0.04263 -0.008258 0)
(0.9085 -0.1174 0)
(0.03125 -0.01008 -5.271e-22)
(0.4642 -0.1208 -6.665e-22)
(1.502 -0.1589 -3.099e-21)
(1.791 0.01656 -1.796e-21)
(1.546 -0.1243 -1.078e-20)
(0.3365 -0.05081 1.397e-21)
(1.523 -0.1817 -8.149e-21)
(0.7414 -0.05553 -2.528e-22)
(0.2898 -0.08839 4.942e-21)
(0.9236 -0.1083 5.041e-21)
(0.6964 -0.1767 2.792e-21)
(0.7322 1.909 -8.173e-21)
(0.08977 -0.02675 -3.659e-23)
(0.00417 -0.0144 -6.137e-23)
(-0.01797 0.006034 0)
(0.885 -0.218 0)
(1.007 -0.003008 0)
(1.005 -0.005418 4.561e-20)
(0.7412 -0.2011 2.321e-21)
(0.177 -0.0489 0)
(0.8773 -0.1253 -2.07e-20)
(1.006 3.158e-05 0)
(0.3752 -0.1176 -1.591e-20)
(1.101 -0.2795 3.639e-21)
(0.9519 -0.07579 7.331e-21)
(0.05251 -0.01506 0)
(1.473 -0.1744 -1.925e-20)
(0.2114 -0.06511 -4.477e-21)
(1.724 0.9305 -4.008e-20)
(0.9999 0.001466 -2.265e-20)
(0.856 -0.1228 0)
(0.9538 -0.0628 3.98e-21)
(0.4475 -0.1744 0)
(0.6072 -0.04616 0)
(0.02939 -0.01036 1.431e-23)
(0.5054 -0.01441 3.561e-20)
(1.297 -0.2193 4.684e-20)
(0.6751 -0.12 0)
(0.8855 -0.08296 2.554e-22)
(0.9607 -0.07975 0)
(0.8916 -0.2135 0)
(0.3848 -0.1327 1.741e-20)
(0.9413 -0.1082 -1.568e-21)
(0.1399 -0.04073 0)
(0.4267 -0.1833 -5.741e-21)
(1.009 -0.01736 -2.065e-21)
(0.03558 -0.01465 0)
(-0.03165 0.01 0)
(0.993 -0.2399 0)
(1.467 -0.2128 1.331e-20)
(-0.3819 0.6638 -3.718e-21)
(1.012 0.02538 -5.812e-21)
(0.08111 -0.01676 8.091e-21)
(0.3292 -0.0646 0)
(0.9972 -0.0003655 0)
(0.9968 -0.0001012 -2.97e-20)
(1.57 -0.17 6.147e-25)
(1.219 -0.2642 1.369e-20)
(-0.01078 0.003885 1.793e-22)
(0.01243 -0.01783 -3.583e-23)
(0.9049 -0.1282 7.659e-22)
(0.5492 -0.1952 0)
(0.1204 -0.03935 -2.857e-21)
(0.8651 -0.122 0)
(0.9109 -0.1066 0)
(0.9709 -0.02292 -5.878e-20)
(0.1165 -0.03805 -5.126e-21)
(0.2073 -0.06568 0)
(0.1512 -0.04949 -2.565e-21)
(0.8242 -0.1507 0)
(-0.01495 0.001723 -8.463e-23)
(0.2865 -0.08107 -2.693e-21)
(0.999 -0.001893 -1.713e-21)
(0.3478 -0.04792 0)
(0.02414 -0.005078 -2.292e-22)
(0.9975 -0.0008268 -1.117e-19)
(1.174 -0.1728 -4.027e-21)
(0.9976 -0.0003953 -1.198e-20)
(0.9855 0.00107 5.049e-20)
(0.9111 -0.1179 -1.956e-21)
(0.8577 -0.09639 0)
(0.3019 -0.02823 -4.417e-20)
(0.9955 -0.002287 1.136e-20)
(0.815 -0.09741 1.211e-22)
(1.007 0.006971 0)
(2.088 0.8424 0)
(0.8723 -0.08859 -2.728e-20)
(1.023 -0.1951 1.57e-21)
(0.9306 -0.1018 3.059e-21)
(0.8348 -0.1614 5.671e-22)
(0.8834 -0.1274 0)
(0.1783 -0.05053 1.116e-20)
(0.937 -0.1017 -3.755e-21)
(1 -0.005875 1.15e-20)
(0.9656 -0.04344 -6.944e-20)
(1.394 -0.2414 7.167e-21)
(0.8607 -0.1567 -1.603e-21)
(0.06651 -0.01959 -1.375e-22)
(0.1549 -0.04687 0)
(0.38 -0.02762 -2.985e-24)
(0.1213 -0.03709 -1.903e-21)
(0.008207 0.000371 -7.425e-20)
(1.416 -0.2098 1.219e-20)
(0.7292 -0.1985 0)
(1.714 0.03486 -1.568e-20)
(0.8644 -0.09153 1.805e-22)
(0.6531 -0.07988 0)
(1.106 0.7528 -1.424e-20)
(1.018 -0.2072 0)
(1.003 -0.01346 9.977e-21)
(0.7324 -0.1291 1.482e-20)
(0.0111 -0.01896 -5.675e-23)
(0.7457 -0.1258 0)
(0.9989 2.797e-05 1.877e-22)
(0.03845 0.01914 7.453e-20)
(1.178 -0.2954 0)
(0.9602 -0.09302 -1.651e-22)
(0.7207 -0.1875 1.643e-21)
(1.534 -0.1855 -9.657e-22)
(0.9197 -0.1053 5.104e-21)
(0.4695 -0.1004 0)
(1.187 -0.2754 7.759e-21)
(0.9598 -0.09312 -4.992e-22)
(-0.005468 0.002312 -2.315e-24)
(0.7374 -0.1968 -6.043e-21)
(0.01213 -0.01673 -9.281e-23)
(0.9976 -0.0008846 0)
(0.9627 -0.0743 1.165e-21)
(0.7905 -0.1564 0)
(0.9726 -0.01461 0)
(0.8512 -0.1802 0)
(0.9845 -0.1053 1.754e-21)
(0.9964 -6.439e-06 4.819e-21)
(0.8099 -0.1531 1.028e-20)
(-0.0004642 -0.009824 0)
(0.9482 -0.04278 0)
(1.14 0.7412 5.289e-20)
(1.334 -0.2422 0)
(0.0182 -0.02052 0)
(0.8873 -0.1058 2.162e-20)
(1.007 4.83e-05 -3.052e-22)
(0.7609 -0.1811 -1.542e-22)
(0.4011 -0.123 -2.533e-22)
(1.016 -0.007817 4.954e-20)
(1.199 0.6282 -4.37e-20)
(1.14 0.07428 2.073e-20)
(1.082 -0.2515 5.364e-21)
(0.5576 -0.1426 -5.554e-21)
(0.8675 -0.1392 4.711e-21)
(1.044 -0.05208 0)
(-0.007501 -0.00358 3.052e-23)
(-0.02605 0.009246 -3.874e-22)
(0.8316 -0.1733 -2.811e-22)
(0.8946 -0.1392 2.264e-21)
(0.9819 -0.2606 -2.057e-21)
(0.287 -0.02528 0)
(0.9986 7.616e-06 -2.334e-22)
(0.9434 -0.09807 -1.225e-21)
(1.01 0.008818 1.079e-21)
(0.5897 -0.16 0)
(0.3021 -0.06343 -1.515e-20)
(1.148 -0.1957 0)
(0.7217 -0.1875 1.476e-20)
(0.00913 -0.01331 5.016e-23)
(0.3948 -0.06782 0)
(0.9994 0.006103 -5.871e-21)
(-0.02026 0.007531 0)
(0.1221 -0.0394 0)
(0.2336 -0.07176 3.981e-21)
(0.9637 -0.08595 -1.44e-21)
(2.249 0.671 0)
(1.152 -0.2788 -5.883e-21)
(0.9944 -0.1825 6.233e-22)
(0.5921 -0.04616 0)
(0.9102 -0.1222 0)
(0.855 0.1361 -9.951e-20)
(0.05234 -0.001415 -4.301e-22)
(0.1339 -0.03666 2.9e-22)
(0.8653 -0.06466 0)
(0.782 -0.1616 -3.431e-21)
(0.9041 -0.1336 0)
(0.1167 -0.004732 -6.875e-20)
(0.009991 -0.01866 -6.343e-22)
(-0.005162 0.001699 1.391e-22)
(0.8745 -0.1422 9.502e-22)
(0.2483 -0.07772 0)
(1.555 -0.1269 0)
(0.8625 -0.1047 -1.427e-21)
(0.8792 -0.08997 6.13e-22)
(1.173 -0.2375 0)
(-0.01361 0.00333 0)
(0.9425 -0.07081 -6.035e-21)
(0.8154 -0.1661 -4.91e-21)
(0.9224 -0.08172 0)
(0.8324 -0.1409 1.593e-21)
(0.9935 4.637e-05 0)
(1.004 -0.001244 1.624e-19)
(1.439 -0.1943 -1.606e-20)
(0.2679 -0.01765 -1.179e-22)
(0.4656 -0.1271 1.85e-21)
(1.003 -0.02938 7.178e-21)
(0.1642 -0.03606 -7.762e-21)
(0.02195 -0.007685 4.408e-22)
(0.9949 0.01203 -1.959e-20)
(1.081 0.1456 0)
(0.9179 -0.121 4.375e-22)
(1.513 -0.1501 0)
(-0.0009119 -0.001429 0)
(0.7093 -0.1649 -1.23e-20)
(0.105 -0.03388 1.899e-22)
(-0.002071 0.0006436 0)
(1.041 -0.2066 -1.396e-22)