/*--------------------------------*- C++ -*----------------------------------*\
  =========                 |
  \\      /  F ield         | OpenFOAM: The Open Source CFD Toolbox
   \\    /   O peration     | Website:  https://openfoam.org
    \\  /    A nd           | Version:  8
     \\/     M anipulation  |
\*---------------------------------------------------------------------------*/
FoamFile
{
    version     2.0;
    format      ascii;
    class       volScalarField;
    location    "20";
    object      epsilon;
}
// * * * * * * * * * * * * * * * * * * * * * * * * * * * * * * * * * * * * * //

dimensions      [0 2 -3 0 0 0 0];

internalField   nonuniform List<scalar> 
63579
(
312
209.7
318.4
346.9
318.6
399.2
13.72
0.1318
0.6746
3.334
12.73
0.06257
3.446
38.41
0.06443
36.65
0.565
1.162
0.9541
12.24
1.042
0.02159
0.005275
2.258
0.005088
0.1363
0.01309
0.9008
0.09658
0.4798
0.0008089
0.01311
0.02705
0.0172
2.214
0.1318
10.52
0.5112
0.4605
12.22
0.01589
9.722
0.08377
1.086
0.1332
0.9992
26.87
0.2354
0.583
0.0008157
1.148
0.01752
12.85
5.386
0.02068
0.3071
0.01767
0.02706
0.01713
0.0167
1.549
0.1191
10.07
3.938
0.01658
2.705
0.2889
11.28
0.1949
0.01736
3.836
55.8
0.1068
30.04
0.2459
1.102
0.1494
5.665
0.1358
3.53
43.31
0.01608
3.889
0.8298
9.978
0.02246
0.3518
0.927
0.003699
4.078
0.6357
0.01843
0.9286
0.02951
2.626
0.2143
5.181
0.6282
0.02097
11.52
0.112
0.112
0.0184
0.01692
0.023
0.03649
0.06536
0.4607
0.06012
0.02086
0.01554
9.921
0.5242
0.06452
3.743
0.02938
1.131
3.177
0.02894
0.08774
0.01683
3.451
0.9265
0.001442
2.107
0.7037
1.693
1.129
0.01646
10.37
0.6448
0.1108
0.02346
0.01737
6.953
1.131
2.487
0.003608
0.8152
0.006093
0.7793
0.002486
0.08762
0.2307
0.02255
0.02042
0.02031
0.7557
0.01875
0.2471
0.08731
0.4163
0.01441
1.422
1.299
0.3873
0.5048
0.2996
3.422
0.4533
0.01556
0.2836
0.6028
2.379
0.002565
0.01981
7.334
1.291
0.01976
0.1266
0.02191
0.705
7.457
0.03476
4.191
0.02042
0.06246
0.1016
0.1016
0.1419
1.12
0.3491
0.524
4.112
0.7702
1.309
1.185
0.02642
3.251
0.01074
0.04063
0.01851
0.013
0.006197
1.836
0.022
1.628
0.02028
0.8308
0.0065
3.59
1.139
0.4008
0.01758
0.04659
0.01287
0.4263
1.753
0.6356
0.4259
0.02637
0.02283
0.03012
0.04711
0.2987
0.3022
0.1375
0.5975
1.812
1.509
0.1903
1.487
2.711
2.642
0.001485
0.1384
0.858
0.1546
0.08363
0.05465
0.04023
0.3984
0.02115
0.01444
0.02275
1.196
0.01884
0.0185
5.873
0.01322
1.002
0.2856
0.0503
1.536
0.2792
3.762
0.003371
0.01719
0.03247
0.1176
0.0533
0.006091
6.057
13.18
5.799
2.358
1.613
0.01563
0.0173
6.349
0.4845
3.727
3.232
0.08236
3.699
0.01706
13.51
0.01714
0.07079
0.02002
1.682
0.3003
1.021
0.003357
2.962
1.143
0.01302
0.2405
0.03533
0.01234
22.65
0.04393
0.102
1.873
14.9
0.01732
1.283
0.03629
0.3979
2.334
0.01426
1.6
0.3442
0.08465
0.06712
0.1014
4.241
0.01928
0.001686
1.089
4.114
1.637
0.4662
0.017
0.03758
0.8214
0.003967
0.2989
0.006303
1.875
0.01917
0.001634
23.04
0.006371
0.5659
0.02218
0.2963
0.01967
0.02269
0.9845
1.145
1.11
5.305
0.5341
9.175
1.397
0.003993
1.925
0.02104
3.801
0.01723
0.04642
0.02037
0.1408
2.607
0.003494
0.007785
1.076
1.183
1.853
0.003492
0.2481
0.01599
0.001693
10.08
0.01716
0.001042
0.02235
0.1438
0.03957
0.5931
0.2042
1.68
0.02015
0.01072
0.7789
0.4338
0.5802
0.04474
0.01005
0.08244
1.402
3.752
0.2255
1.818
0.01567
0.007672
0.1367
0.5593
5.47
3.195
0.001032
0.05372
1.667
0.4512
0.001491
0.3742
0.5878
27.45
4.31
1.536
0.4049
0.2781
0.2383
0.4431
0.02211
0.9359
2.241
0.4921
0.01482
0.0009366
1.911
0.0009828
0.001079
0.01813
9.172
0.01483
0.496
0.3719
0.3741
0.4594
2.632
0.01875
1.427
0.02551
0.5066
0.07265
0.04009
0.2503
0.0009383
6.255
0.5803
1.471
0.02827
0.01577
0.02036
0.2882
0.4281
0.01081
0.7894
0.002226
0.01289
0.04142
0.01156
9.619
0.4299
2.839
0.004341
0.4161
0.02653
1.28
0.0685
3.141
25.33
0.01548
0.2374
1.909
35.48
0.2989
0.9056
7.361
0.02423
2.664
6.654
6.521
0.002217
4.293
73.86
0.01733
0.6009
0.001783
0.001738
0.01935
5.148
0.172
0.02595
8.684
1.005
0.01273
0.02501
0.5581
12.74
0.01894
1.644
0.01054
0.02612
0.01989
0.951
1.956
0.8652
0.002207
12.04
0.002207
1.173
0.3074
0.7313
0.01701
0.02864
0.513
1.667
7.762
6.903
6.884
0.01692
0.02428
0.01692
0.2379
0.8474
7.43
0.2949
11
0.01504
0.01056
0.2657
0.1799
2.069
0.1419
2.608
0.1382
0.2339
9.765
0.5546
0.6559
2.307
0.5513
8.07
0.01262
13.91
0.01905
9.85
0.002476
0.1533
0.5834
2.927
0.2342
0.1924
0.0173
0.4433
0.003406
5.811
0.02968
0.002217
0.01712
0.3657
0.1379
0.01724
1.265
0.02722
6.968
0.1146
0.248
1.66
1.054
0.3459
0.006187
0.03277
0.9523
2.01
0.8286
2.544
0.4171
0.01089
2.148
0.0007236
6.771
0.3974
1.236
0.2085
0.3946
2.579
0.003163
0.01501
0.2081
0.4517
0.03307
0.4153
0.1638
0.1056
0.01341
0.2879
0.02676
0.4191
0.02414
1.852
0.9549
0.0008085
0.5392
0.02349
2.116
1.243
0.04514
0.327
9.718
0.4966
0.03694
2.23
0.7822
4.473
0.6618
1.015
0.7561
0.09019
0.9514
0.09932
1.538
0.1056
0.02166
0.02175
0.02574
0.5509
0.654
0.4701
0.9496
1.57
0.06599
0.644
0.185
1.208
0.3956
0.04514
0.02682
2.467
0.01803
1.385
7.096
0.01536
0.03823
0.01397
9.825
0.2919
0.6618
0.002845
0.04596
0.0006758
0.0006794
3.518
0.7593
5.605
0.4849
1.767
0.05511
0.971
7.232
45.15
0.1922
0.9092
28.61
0.00819
0.6852
15.33
0.06451
27.03
0.5244
1.317
0.01158
0.563
0.01899
0.3972
20.2
0.316
0.2187
4.072
0.1011
1.038
44.24
0.02193
9.986
0.009825
0.2772
0.0117
0.002434
24.36
2.367
0.08411
0.01719
0.05474
0.01472
0.1778
0.01533
0.1333
0.1978
1.533
0.03417
0.6898
0.3328
0.8321
0.8639
0.01759
6.759
0.02491
6.878
2.345
0.9206
0.01958
0.01812
0.04653
0.4418
0.3625
1.196
0.02289
0.2622
4.632
0.08689
0.1906
0.741
0.9304
0.01545
5.368
0.03381
0.9542
0.01436
0.5571
0.03718
1.334
7.133
18.91
0.2676
0.01022
20.39
0.01395
0.2566
0.4895
7.873
0.0512
5.213
1.061
0.001158
0.001128
0.8585
55.81
4.882
1.238
0.01309
0.0188
0.01723
0.01391
0.004439
19.75
0.02292
20.59
0.3105
2.463
0.001034
29.71
14.71
0.01274
19.03
24.6
0.05181
0.01023
0.0006133
0.1978
0.2786
0.006607
0.02967
11.94
0.004942
0.3137
0.2567
0.02074
0.09323
79.61
0.9262
0.5406
0.01739
0.2203
0.1286
0.0007494
0.704
0.01799
2.674
0.01729
0.1056
0.8346
2.035
4.783
2.417
0.007646
1.708
6.82
1.941
0.03282
1.06
58.94
6.693
0.001065
0.01517
1.054
0.02736
0.02856
0.1295
0.008422
1.98
0.01457
0.7592
0.03857
1.938
10.03
0.3694
0.7563
0.02296
11
2.302
1.281
18.49
2.143
0.03753
0.7966
0.2223
0.4446
0.01903
0.00734
8.073
4.905
0.2194
0.01853
5.138
0.7925
0.09741
0.8773
0.02512
0.1442
4.24
2.038
0.6852
0.7791
0.03596
0.4562
0.621
1.502
0.02066
0.4005
2.207
0.01644
0.02051
0.0008343
0.5516
0.488
2.38
0.2301
0.003006
0.003274
0.2927
0.1727
0.5199
0.0007997
0.001333
0.01767
2.24
0.02008
231.7
0.1552
0.2435
3.066
0.2163
0.01847
18.03
0.1821
0.891
0.1661
2.309
1.959
8.249
1.325
0.02225
0.6159
6.205
0.0173
13.38
0.6043
0.001758
1.152
1.523
0.00329
1.62
0.8422
0.06613
0.01391
0.8924
19.13
0.4735
50.42
5.979
0.001426
19.91
1.089
0.2922
0.4401
0.001409
0.8377
31.72
0.4193
0.7136
0.01778
0.02119
0.2222
0.01378
0.4271
0.4662
0.7316
0.5197
1.522
24.41
0.0962
0.661
0.3097
0.2456
0.0008541
0.01996
0.04583
1.912
0.7059
4.061
0.01952
1.295
2.665
0.04119
0.2283
0.03504
1.628
0.823
0.4419
1.358
0.4786
0.1987
29.91
0.01458
1.479
0.6339
0.003547
0.001015
0.1478
0.01926
0.04251
0.03349
0.2218
0.08386
0.1693
0.02387
0.0166
0.2721
0.03178
2.687
0.0718
0.4497
18.27
8.334
0.01992
0.007711
0.7991
0.02609
86.42
1.736
0.007586
0.007571
0.8327
5.301
0.03661
0.2159
0.1344
1.344
1.131
0.5407
2.236
0.6959
0.116
0.2881
1.611
2.019
2.384
18.26
0.08891
0.001621
0.001606
1.063
4.448
0.003939
0.02052
1.615
0.0994
11.23
4.276
0.1415
0.9682
0.059
15.23
7.098
0.001192
0.2986
0.3582
0.5426
1.812
0.2877
4.917
0.9137
41.31
3.968
1.114
0.5366
5.72
0.1899
0.01601
0.09005
0.5965
6.589
0.151
31.9
0.4605
0.003492
0.236
0.02109
40.65
0.3041
0.1162
0.205
6.517
0.1167
0.5047
0.04661
2.635
0.3135
0.01008
8.755
0.2975
0.01851
1.226
4.894
1.458
2.353
1.131
2.831
4.397
2.469
0.0007496
0.01938
0.0495
3.76
0.01551
1.075
1.26
8.95
0.01912
0.0008716
1.069
0.2852
10.77
0.02201
0.06798
0.3728
0.01345
0.3677
8.753
1.335
5.106
5.186
0.5767
0.1433
0.4658
1.046
0.01048
0.2933
5.66
4.502
18.1
0.0127
0.9921
2.375
0.0148
0.8193
23.74
0.9705
0.6152
0.1914
0.1914
0.538
0.7544
0.01977
2.152
0.01476
0.0134
132.7
2.148
0.006359
0.9452
0.1202
1.564
0.002188
0.2584
0.02066
0.01007
0.01434
0.004297
0.06166
0.5405
3.862
0.2847
0.004307
0.401
0.8364
0.04196
0.467
76.37
1.306
2.662
0.8109
3.304
0.02058
1.364
0.2131
0.0332
24.71
0.02663
0.004796
0.003924
1.344
2.171
0.01204
0.01577
0.07792
0.3036
14.81
0.8769
0.1213
0.8114
0.02092
9.402
0.01889
0.01255
0.001401
17.04
1.155
0.03322
0.07749
0.7523
0.002092
0.2404
78.9
0.09195
0.001157
0.1013
0.01731
4.636
43.18
0.1811
1.161
0.02129
1.154
0.0263
1.371
52.01
12.34
0.1585
0.03169
0.01614
11.55
2.063
0.1686
0.02193
0.2162
0.02157
0.7991
3.071
9.678
0.867
0.05169
4.881
0.02007
1.498
5.468
0.02191
104
0.1308
7.615
5.099
0.01586
131.1
0.0006608
50.35
5.206
1.58
28.96
0.1445
0.4612
0.008263
0.4038
2.719
0.5945
1.056
8.337
0.01507
2.581
0.1568
0.5064
0.01767
0.4525
0.0006277
0.0156
0.2328
0.8574
0.005691
0.02316
1.934
0.005704
1.634
0.0881
5.991
0.03824
0.9298
3.021
0.8387
0.4615
18.82
0.0008209
0.4696
0.01788
0.4087
13.52
0.3033
36.61
0.003811
0.03318
1.146
0.127
4.816
1.881
0.001931
0.0596
0.0248
1.742
0.0307
0.8829
0.4496
2.187
0.00104
0.04511
1.903
3.787
0.4838
0.01419
2.711
0.01255
6.751
1.115
14.17
0.4932
0.003484
0.04475
0.3547
0.03167
5.321
0.006043
0.7174
0.0174
0.2997
0.4655
0.08251
0.1289
3.285
0.00388
0.1642
0.01572
0.02646
0.4166
0.01822
0.6534
1.984
0.5361
0.06912
1.785
0.002644
104.2
1.885
0.0009131
0.07164
0.02489
0.4657
1.077
1.677
0.02694
0.2288
0.7856
8.482
0.01272
0.5016
0.287
0.07641
0.3094
0.03487
0.002051
1.933
8.883
0.8807
0.5489
0.01923
0.02418
0.09
0.001066
37.96
0.04471
0.01655
0.3675
0.04135
0.5148
0.583
16.94
3.688
1.19
0.01775
0.02328
6.813
4.2
0.4728
0.2712
2.801
0.01853
0.0432
1.045
0.07222
1.327
1.442
0.01402
0.01861
0.1716
0.02006
5.578
1.845
0.00992
24.38
0.8917
9.579
0.1012
0.1028
0.01788
25.64
0.5052
1.977
0.001549
22.7
0.03435
0.8228
0.1632
0.008202
18.9
0.09102
0.2626
0.1648
0.03352
0.003077
0.01221
0.2665
12.25
0.1397
0.07035
0.1017
1.304
1.518
3.93
0.09957
2.239
0.001468
15.03
0.03491
0.08009
0.01034
0.1609
0.01681
0.1567
0.0785
0.02268
3.838
0.02021
8.917
0.8873
0.02217
0.03845
0.01585
0.04054
1.051
8.209
0.7994
3.947
0.01782
9.197
0.1591
4.658
0.03377
2.313
0.1178
1.73
0.001196
0.5775
0.01037
56.04
0.1716
5.169
0.0291
0.006671
3.599
0.2052
0.5166
0.01725
0.3081
6.154
0.2078
0.01656
0.02906
0.2886
0.524
1.054
1.051
0.01923
0.03256
2.864
0.4037
0.06825
0.5384
0.03423
0.05725
0.05185
0.6258
1.605
1.156
1.407
0.05007
0.2974
0.5081
0.06472
0.003101
0.4403
0.01234
0.007273
0.2603
0.2731
1.139
7.339
0.4464
4.173
2.24
0.3673
1.369
0.2434
0.5754
0.03873
0.1014
0.02206
2.237
0.01466
1.502
0.0178
0.001007
0.03388
0.1178
6.813
0.4449
0.00679
0.02525
0.6444
1.132
1.891
0.1932
1.309
0.01768
6.72
0.0165
1.169
0.08091
1.001
0.0124
10.61
0.01923
0.01101
0.01181
1.134
25.76
0.3551
0.07302
0.5579
0.4913
0.01343
0.4462
6.918
0.01214
0.913
6.423
0.7096
0.6643
0.5069
1.144
0.001092
0.03273
0.01736
0.9525
0.379
7.029
19.07
15.87
0.2
6.664
14.3
0.02175
6.94
2.64
0.3905
0.464
0.0452
0.5525
0.1664
31.61
0.3961
0.9155
0.006036
5.265
0.1041
0.1025
0.0547
0.2063
0.3866
0.6502
5.615
0.3968
0.04775
7.681
0.02008
0.01453
0.02115
0.4783
0.2193
0.05484
2.975
1.134
22.44
0.06382
0.03232
0.01096
0.008771
0.04626
9.555
0.5522
0.05485
0.02653
0.3364
0.03188
1.99
0.004825
0.6273
10.87
1.606
0.1066
0.662
0.9772
0.7632
1.341
0.01902
0.9461
10.81
0.04004
0.02235
1.031
6.295
0.1408
10.65
2.537
1.053
0.4505
1.591
0.002978
5.515
1.536
0.5144
3.678
0.2459
0.04433
56.97
0.0007697
0.00138
0.00304
0.7268
8.578
26.8
0.001084
0.7867
0.4937
0.9164
7.431
8.085
1.55
0.2446
0.9416
1.085
0.06156
10.54
0.008232
0.1094
1.196
0.02266
4.475
0.01206
0.1386
0.04997
0.9048
0.009854
0.8788
1.275
0.4874
0.02788
12.44
0.04198
0.001374
0.01815
3.059
0.04482
0.9049
0.09325
1.103
0.01617
0.08764
1.36
0.007695
1.268
0.5539
1.386
0.6562
0.01993
27.3
0.04671
0.1475
0.1026
0.4975
1.785
0.04695
0.05297
0.01387
0.01312
0.02445
18.14
1.486
0.4738
0.1591
0.7212
0.04674
0.03275
0.02141
0.02085
0.1633
0.4811
5.779
0.1591
1.996
0.6489
0.2938
12.25
0.02179
0.0287
0.004151
0.01053
1.154
0.1733
0.01723
1.244
11.06
2.258
1.519
1.692
0.1028
0.3265
0.016
1.346
0.3355
0.02987
0.1256
0.01777
3.419
0.2767
0.5772
0.1753
0.133
0.04201
0.4579
20.9
0.005873
0.02122
0.0244
0.05712
3.789
0.06529
0.06519
0.6948
0.01294
0.1448
0.03383
0.05188
0.5738
1.921
5.972
0.004783
0.04714
0.04139
3.563
0.12
0.07077
0.7569
0.0682
0.02629
0.01189
0.01859
0.01126
0.02578
1.454
0.3683
0.106
7.776
0.03743
0.1981
0.3001
0.1507
0.06592
134.8
0.5911
14.42
0.103
0.01979
0.3607
0.001439
20.33
0.001425
27.37
0.2675
0.002061
6.184
0.01776
0.1898
0.6567
0.01649
24.02
0.03003
14.41
11.72
0.3897
0.01425
1.551
0.02041
0.0835
19.03
4.56
0.02649
0.02555
0.01605
0.02514
0.1434
0.001144
0.2242
11.61
0.01767
3.566
0.5342
0.1273
0.03331
0.005848
0.9448
0.01621
0.5703
2.023
5.939
2.507
2.011
0.003764
0.002589
1.748
13.62
0.4751
12.59
0.001238
0.6773
0.01156
0.567
0.001196
0.5608
2.092
14.7
0.02039
1.363
0.01826
0.05825
3.839
4.802
1.031
3.294
0.004777
0.001878
0.3942
0.01225
3.595
2.075
7.851
0.00774
0.5689
0.01818
14.46
0.6352
0.1938
0.009639
0.002932
0.01552
1.61
30.13
0.001143
0.1431
0.02025
0.6124
2.755
0.02847
0.03095
0.3069
27.33
0.0406
0.7757
2.1
0.01755
0.4941
4.964
0.03783
0.01596
0.003865
0.01532
0.2313
0.04737
0.4459
0.003615
5.373
0.01707
0.02079
1.609
0.3715
14.72
2.967
0.04183
0.04363
0.06248
2.955
0.5017
0.3908
0.4443
0.01903
0.06054
0.6936
0.02259
3.093
0.01164
1.236
0.8532
0.756
0.01613
7.735
1.577
0.0742
44.64
0.01598
25.66
6.253
1.048
18.68
0.2978
5.547
1.306
0.02312
3.355
0.001286
3.227
1.634
2.257
0.02046
0.05041
0.7811
3.02
0.01015
0.2356
1.371
1.817
0.006694
10.94
1.22
5.661
0.3493
0.5776
2.008
4.947
29.19
0.1134
1.278
0.001165
3.099
1.185
0.4187
0.01548
1.745
0.02492
1.592
0.3991
0.9145
1.559
0.8407
1.019
0.8002
0.194
9.539
0.3659
0.02788
7.758
0.1596
0.05709
0.01872
0.5998
0.03005
0.006624
0.01777
25.12
0.08112
0.001947
0.4383
0.006334
0.004797
0.0007558
8.938
0.04992
0.5235
0.001949
1.763
0.0191
1.587
7.392
1.552
0.01533
0.6052
0.4385
0.0006106
0.382
0.532
0.6026
0.001487
1.877
0.00127
0.0005833
0.01825
14.54
10.13
0.02553
0.642
0.1044
0.01577
0.5653
0.0406
0.1893
0.2479
0.4936
0.001192
0.271
0.2918
1.581
0.213
2.922
0.03123
0.1962
3.219
0.04386
0.206
0.4531
1.339
0.4807
6.717
0.2293
0.003949
0.2034
1.261
0.3555
0.08649
2.437
0.231
8.123
0.008639
0.01417
1.893
16.06
0.06008
121.8
0.01529
0.6989
0.751
80.23
1.044
107.9
6.303
1.342
0.9079
0.003015
0.1461
3.789
0.04084
1.601
14.63
0.06839
0.8577
0.2712
6.663
4.357
0.007535
0.007601
0.02473
0.0161
0.07619
5.721
0.6581
0.0146
63.96
0.05107
0.1923
0.1763
0.1975
0.4811
0.4178
50.32
0.6673
0.09464
51.34
1.429
3.301
0.7556
1.837
0.002189
12.78
0.03398
0.01491
0.7537
0.1135
0.06325
0.2775
0.2881
0.518
1.477
6.26
0.2917
2.065
0.3837
2.685
0.7916
0.1071
2.177
1.427
0.06248
1.454
0.4526
0.8156
2.295
27.7
0.003001
0.03236
0.01247
0.4871
0.4223
0.5504
0.2221
1.087
1.746
6.184
0.01727
10.47
2.394
2.49
0.08593
2.258
0.621
1.417
0.01554
0.6128
0.005167
316.8
0.001281
0.716
0.9084
0.1941
1.389
2.458
0.04418
0.02128
0.01727
7.495
0.06524
0.847
2.135
0.5598
0.0366
0.01122
0.006334
62.42
1.182
0.01342
0.005135
0.1048
0.2397
8.473
0.0664
0.4753
1.074
1.165
6.656
0.4227
6.035
0.7441
0.4365
0.1713
0.008549
31.11
0.01701
0.1395
0.008261
118.3
17.68
0.06423
16.48
0.02229
23.82
0.07586
0.01634
1.733
0.5925
3.344
0.01739
0.1587
1.542
0.00829
0.008374
0.1618
0.0336
0.217
4.041
1.332
0.08355
0.01835
7.578
4.623
2.007
0.04126
0.002811
0.4877
1.011
1.118
1.177
0.02122
0.01717
0.02002
0.8732
0.731
0.01795
2.156
2.515
0.07986
0.3554
1.654
0.07761
2.142
0.3741
2.197
0.004535
0.01519
0.00491
0.5574
0.4493
1.141
5.686
0.0005934
0.05835
0.1126
8.871
0.3354
0.02506
1.497
0.4394
15.79
0.03261
0.01659
0.5518
0.04828
0.02924
0.6446
0.01984
1.275
1.004
0.01325
0.4463
2.217
0.2041
14.95
0.03642
0.01543
0.007328
0.007087
0.02053
1.726
0.0007055
1.135
0.48
2.951
0.03272
0.01771
5.367
0.03088
0.6069
0.3338
0.001574
8.001
0.1393
0.5363
0.01556
5.445
0.01431
0.01585
0.001092
35.24
0.01849
2.273
0.881
0.004901
0.01727
46.03
0.3652
1.374
0.4758
0.007326
0.04386
0.3479
2.407
1.278
1.535
0.2198
0.823
2.316
0.03525
2.126
0.01722
52.3
0.2703
0.171
0.003015
0.5583
0.2137
2.615
13.45
0.02367
0.02028
0.9029
4.452
1.064
0.3862
0.001247
0.0804
0.9038
0.3059
0.3175
0.4948
5.744
0.01984
1.561
0.3917
6.455
0.0212
0.04
0.01271
105
0.3584
0.1785
0.001026
4.23
0.4257
0.01767
0.01467
2.443
0.01415
0.2569
0.1702
0.01818
0.008318
0.4571
0.3129
0.04888
0.01021
0.6097
0.4219
0.165
0.0176
2.679
0.01572
1.631
0.594
0.8859
2.348
0.1051
0.02065
3.614
0.7309
0.862
0.1513
1.897
0.1825
6.616
0.02314
0.01877
0.01326
6.726
0.02217
1.532
2.734
0.5064
0.365
0.01775
0.09495
30.88
0.3533
2.04
0.3304
0.2278
1.21
0.5785
0.6171
0.2872
1.253
1.696
0.2632
0.03125
3.865
0.3681
0.01611
2.391
0.1858
0.01138
9.878
3.773
0.01649
7.109
0.5205
0.01785
0.01394
0.1568
0.1879
0.04488
0.04092
0.6863
0.9809
0.6302
0.7803
0.02918
1.073
0.299
0.335
0.2822
0.02891
0.01833
0.02242
2.122
0.05124
0.01512
0.01627
0.05802
10.06
15.79
0.2296
0.02013
0.9064
0.164
0.336
1.9
0.01516
0.031
0.06561
0.0007546
0.02504
0.1422
0.03175
0.3945
0.02494
11.05
0.01469
0.008455
6.674
1.823
0.01337
0.1691
0.06518
2.473
21.3
18.89
0.04681
1.325
21.36
6.718
0.4434
21.12
0.5126
1.471
1.312
0.3547
1.473
1.114
0.01717
0.1542
7.702
0.04444
2.037
0.003224
0.001336
0.3134
2.976
0.01413
4.925
5.137
0.01451
0.3988
0.06964
0.2319
0.02466
0.1919
0.8657
0.0142
0.366
0.01662
0.9775
0.09322
0.007665
0.4802
0.3624
2.311
1.335
0.1436
0.8068
45.17
0.01565
1.794
0.9405
0.01614
15.87
0.01859
0.1811
0.01327
0.007361
0.02805
0.02145
0.2456
2.696
0.01798
0.004727
2.675
3.131
1.879
0.02462
84.75
1.245
2.623
0.5225
0.02269
0.00115
5.121
0.0134
2.183
1.946
0.1842
0.07871
17.83
0.02856
4.63
0.02257
0.227
0.7581
0.8897
1.926
10.57
5.632
15.67
1.062
0.03223
0.01643
1.353
0.1738
0.09997
2.102
1.13
0.01978
0.02247
0.3209
0.122
68.97
5.428
0.9155
13.77
45.15
18.92
0.0163
2.997
0.6969
1.599
0.05741
6.57
0.3986
7.731
2.242
8.415
0.01541
0.02584
0.2416
1.66
0.1684
0.37
0.8234
1.327
0.006505
0.03167
0.02062
1.236
1.718
0.3813
1.553
0.0135
0.3295
21.85
0.008672
0.01292
0.01076
8.903
0.03039
0.0318
0.03374
0.04245
0.02193
0.4202
1.015
0.2777
0.3701
0.02563
0.165
19.02
1.294
0.3275
5.889
0.01246
0.4678
5.424
0.03261
0.05002
3.07
5.536
4.211
0.04633
0.1859
0.1061
0.3709
2.852
0.571
50.04
0.4616
4.748
0.001286
0.2055
1.351
1.285
1.654
0.01826
0.002053
0.002082
0.02029
28.08
0.001767
0.00169
0.001293
0.01531
0.5089
0.00144
4.251
0.8771
0.4968
1.339
0.4159
0.1158
0.0077
0.3347
0.5637
4.393
261.5
83
12.52
0.1352
0.1855
0.04224
0.02326
3.524
0.0005449
1.834
0.01716
1.729
0.6628
0.02839
1.126
0.9707
1.076
0.03894
42.96
24.82
7.152
0.0166
86.39
0.1164
1.888
0.5915
0.1756
0.01841
0.01565
2.734
11.1
107.5
36.67
0.2417
0.02865
0.02942
0.01245
0.006105
0.04343
0.4995
0.2809
11.25
1.378
0.08506
2.806
3.415
0.2414
1.245
0.5587
0.3002
0.2655
0.01469
0.6532
0.02524
0.037
0.8423
0.03087
1.252
19.31
0.905
0.05421
3.472
1.121
1.254
0.01846
0.1231
3.126
0.001218
0.01823
0.03668
14.09
1.052
0.01597
0.2915
0.006858
0.017
0.8713
0.01575
1.008
0.01833
0.2834
0.02143
3.634
0.02151
4.458
0.01121
0.008066
8.15
49.5
0.4836
0.3119
0.2043
2.802
0.5104
1.68
0.5618
0.5666
5.14
0.004016
1.12
3.061
0.02507
4.763
0.2175
1.636
1.799
0.0165
0.2168
3.087
36.21
0.01711
0.01722
0.3582
0.02179
1.893
0.05987
0.5542
0.273
0.3718
0.02172
0.02847
0.02816
0.2626
0.01523
0.06279
0.01287
1.789
0.01271
0.3387
0.1039
0.8623
0.4773
0.01823
0.02217
0.02576
0.2406
0.7014
1.493
0.02491
0.01891
0.2148
11.42
0.2181
5.127
0.6423
0.3865
1.749
0.1983
34.79
0.01959
0.4046
0.7855
0.00175
1.088
1.067
1.896
1.471
1.627
0.7851
0.2755
6.317
11.29
0.03888
0.02149
0.001222
9.873
4.793
0.07611
0.4383
1.305
0.2569
12.63
0.8616
0.8508
0.02543
0.05485
6.908
0.01815
0.6168
0.04329
7.959
1.139
0.262
0.6459
1.643
0.3956
1.009
0.188
0.3199
1.412
1.29
1.074
1.979
0.02387
2.148
0.05332
0.01707
0.3485
1.006
0.002169
0.1778
0.007531
22.09
4.161
6.554
366.8
0.03866
8.184
14.3
1.596
0.2479
0.01077
0.07825
0.01002
0.05425
0.4514
4.136
4.522
0.02245
27.02
0.0789
1.51
7.547
0.01831
4.465
0.01113
0.04594
0.3326
1.302
0.8404
0.6862
0.02287
0.08242
0.762
0.6716
0.3564
0.03139
0.01649
0.007959
0.2075
0.01749
1.184
0.9934
0.01391
0.03566
0.08898
0.004388
0.2943
0.2995
0.9496
1.552
0.01649
84.86
0.07717
4.049
0.0009317
0.02276
0.03251
0.01503
40.7
0.03038
0.4053
0.5473
0.9988
0.3554
38.18
1.695
1.224
0.4097
11.08
0.4089
0.00461
2.511
1.16
0.6913
0.4023
15.12
0.7057
0.0659
0.004198
2.927
0.9467
3.848
0.03746
0.0341
2.272
71.41
3.343
6.273
0.1372
0.005097
322.3
0.01703
7.112
1.066
17.96
0.02861
0.5424
0.03204
0.003627
2.394
0.01731
0.06616
18.58
5.023
0.01237
0.8363
0.03005
0.03866
0.5904
1.239
0.7453
0.3969
0.02519
0.01695
0.0425
0.01877
0.008095
0.09505
0.1091
0.3235
24.07
0.009493
0.0024
0.2291
0.02291
0.004993
0.004949
0.1865
0.5317
1.142
5.932
2.382
0.02146
0.4099
0.2606
7.21
0.03664
1.329
0.0281
0.2422
0.5243
0.004703
0.001971
0.01009
0.6765
1.449
4.536
0.008677
2.913
9.358
0.4185
24.99
0.01024
0.2976
1.493
0.08143
0.3295
0.8892
13
1.104
0.01396
0.0197
0.001369
1.515
0.005327
0.02534
0.02752
1.185
47.61
0.007628
1.631
0.01823
0.01708
2.083
14.59
2.406
2.177
0.5885
0.09266
4.365
4.098
0.006625
0.0219
0.01361
0.3218
6.79
0.01913
0.005499
0.873
0.9094
0.4152
0.4475
1.575
0.02129
0.02444
36.56
0.7922
7.223
4.761
47.61
0.07885
0.01702
14.29
0.07814
1.035
0.0009271
0.07106
0.01738
0.6289
0.3098
0.5382
0.01544
2.21
1.693
32.02
0.8014
0.5301
2.703
0.6565
0.2013
0.01689
0.01573
0.3428
0.2667
0.4158
0.02669
0.01316
0.6618
17.82
0.02203
26.89
1.134
0.9246
0.02337
225.4
1.084
0.0817
0.01618
0.02274
1.188
54.76
0.8831
0.01611
0.0191
0.02317
0.5584
0.1303
2.713
0.07644
3.089
1.617
3.828
0.01944
2.895
0.3384
0.1707
0.3413
0.09672
0.08634
0.8925
1.113
0.005801
0.007662
0.01946
10.74
1.937
91.78
0.01792
0.02538
0.09955
0.7214
1.849
0.03517
0.8268
0.03608
0.545
0.02569
0.3018
1.099
0.4048
0.02732
0.1743
0.01954
0.0163
0.8997
2.805
0.06124
2.457
0.3659
22.24
0.006781
0.01342
0.01785
0.02295
10
0.03947
1.033
0.001273
0.2713
0.01739
1.019
2.633
0.3416
0.2528
0.6762
0.633
1.757
0.007507
0.4084
1.219
0.1164
1.236
0.04525
0.1718
0.01801
0.6156
0.03823
0.002351
0.03638
9.38
0.1036
0.02376
0.5731
0.01354
0.1023
8.065
0.005525
0.006685
42.22
1.18
0.9765
153.1
4.886
1.922
0.009677
0.8222
0.08277
0.2942
4.302
0.2614
0.01863
0.02542
0.01382
22.65
0.02073
0.01354
6.534
1.741
2.753
0.1632
0.02177
0.07236
10.44
0.2316
0.0503
5.405
0.7369
0.01464
0.01718
0.01402
0.01359
0.03173
15
0.02346
1.44
0.02021
2.239
0.06947
0.5906
0.838
0.6445
0.09291
0.03411
0.01666
0.8137
0.00831
0.0231
1.152
14.86
0.3791
1.412
0.001286
0.01666
0.1827
0.7028
0.001763
0.001555
0.4917
0.007701
0.4917
0.7476
1.093
1.095
0.1253
0.1728
0.7776
0.03296
23.08
1.107
0.4764
0.2681
0.04962
4.14
1.321
21.64
0.0164
7.893
0.008457
0.04223
0.02231
0.1029
12.47
0.1355
0.03893
0.05255
0.01619
0.4857
0.4915
13.75
0.3609
0.03176
0.04845
137.6
1.11
0.009322
0.02439
0.03228
0.1634
2.551
0.2996
0.00535
0.06657
0.06645
1.385
0.2472
9.319
0.03262
0.03977
7.839
2.274
1.951
1.547
0.2068
0.02088
2.321
4.128
6.199
0.4886
1.275
5.918
0.02988
0.6255
0.09083
11.61
0.9028
0.0185
1.058
0.01901
0.9476
0.2359
1.268
2.057
0.6893
3.582
4.021
1.418
16.06
0.4059
7.575
0.1599
0.3638
0.006686
0.5944
0.4089
0.8429
0.02759
0.5348
0.3269
0.002878
0.9981
180.5
8.252
0.01704
0.01849
1.719
20.3
0.3143
0.01512
0.6837
0.07144
14.33
19.71
32.09
0.008714
8.585
0.6673
0.001402
0.001444
0.01333
17.77
0.2007
1.027
0.4163
0.6737
0.01165
0.003874
139.9
1.155
0.02838
0.01844
0.1054
0.6333
0.009274
0.2612
8.05
1.153
0.001323
4.484
0.5756
0.03461
0.03142
0.01592
1.515
0.006177
0.0194
0.8287
50.07
0.04174
2.303
4.239
0.7102
0.09985
0.3828
2.204
0.2501
0.01224
0.0817
2.342
0.01708
1.003
0.002369
0.003537
0.003538
0.6326
0.6114
0.01574
14.46
0.03943
0.01707
0.01612
0.5794
0.6427
0.8149
1.627
0.07873
0.4874
2.871
0.1261
0.0266
0.006268
0.0268
0.5604
0.001588
0.00161
0.04447
0.2813
0.008025
7.1
0.1936
6.457
0.5747
3.018
0.02177
7.318
0.3012
0.7793
0.2254
2.272
0.9623
0.2798
0.3698
0.02987
0.1981
0.05235
1.426
0.07077
0.09724
0.1236
0.09426
55.28
1.169
0.2718
0.4801
0.608
0.01985
0.04523
0.3127
1.782
1.44
0.5784
0.01577
0.01931
0.01728
1.279
0.03123
10.4
0.0192
2.706
0.01738
0.01591
0.3814
3.983
0.4077
0.02152
0.00613
11.92
0.02574
13.13
11.94
0.7233
0.1049
0.5326
0.02023
0.006231
0.6361
4.758
0.2876
2.185
0.1754
5.253
0.2018
0.01112
0.1261
1.023
0.3126
0.2232
0.5526
0.01516
0.06344
1.466
0.01107
0.009514
0.8841
0.3271
17.61
0.2968
0.915
0.4841
10.69
0.8571
0.0175
0.0118
10.01
1.505
0.7398
1.007
3.847
9.933
0.01958
162.6
0.3543
0.01226
0.08853
1.483
0.0174
44.6
0.02125
0.02465
0.6155
0.007332
13.49
5.925
0.03935
0.4199
11.02
7.813
11.05
2.123
0.01749
0.09454
2.558
7.239
0.07991
1.025
0.2791
0.08174
0.02324
0.02208
3.578
1.099
0.5279
0.01126
20.07
6.533
0.1047
0.4783
0.501
0.01862
21.68
0.2451
0.7307
7.326
4.481
0.00135
0.008548
0.01566
0.1263
0.01648
1.076
1.479
1.946
0.6914
0.1617
1.226
0.04814
0.00135
0.03822
0.01741
3.965
0.431
0.5656
0.01737
0.1034
0.255
0.2164
0.2941
5.012
0.007293
1.167
0.7394
0.6134
3.209
2.349
0.786
0.0006338
0.8381
3.774
0.2909
0.08999
8.373
9.073
0.02267
0.3568
0.01844
0.07366
10.97
0.01406
0.01232
1.029
0.7325
54.46
0.03221
2.275
0.02246
1.086
0.02077
0.9221
0.03797
0.5118
0.1757
1.091
0.05876
0.3094
0.9751
1.733
3.57
0.05234
0.01901
53.23
0.01956
0.07424
0.0007756
0.0007772
3.892
0.01524
16.35
0.04544
0.451
0.1543
0.1974
0.2035
0.3933
0.01718
0.01458
0.6427
0.123
1.16
1.216
0.02143
0.002521
0.2741
0.4643
0.01219
0.5024
0.2907
0.5065
1.017
0.04753
1.957
0.02713
7.22
0.0278
0.2794
0.071
3.292
7.252
0.1706
0.6215
41.23
0.002367
1.091
1.597
0.1748
0.007999
1.311
0.01772
0.7433
0.02675
1.201
0.0795
0.9275
0.01846
0.4149
0.02756
0.3605
0.01487
0.04681
10.1
4.114
1.442
0.0145
0.0265
1.377
0.2765
9.478
0.3257
0.01443
0.07841
0.4108
0.05526
0.3251
1.808
5.038
0.01259
0.01929
0.208
0.00282
3.933
4.864
0.8091
0.005604
0.1642
0.01884
0.4637
0.01725
0.008451
0.01815
15.53
0.01181
4.599
1.361
0.0114
8.322
2.223
0.684
0.07353
0.02494
4.904
1.923
0.5216
0.02953
1.513
0.0189
0.006133
0.05535
0.002976
0.01584
7.476
25.31
8.408
0.01284
0.01722
0.02351
6.512
0.1907
1.786
0.1952
0.2131
1.577
0.01426
18.12
0.01758
0.1335
0.8757
0.09
0.2166
0.06624
0.02257
1.259
28.94
1.775
14.82
4.566
0.1183
0.02231
0.1221
0.1803
2.022
0.2287
0.5057
0.006072
1.252
35.3
0.01837
1.722
0.01325
0.2783
0.4858
0.4072
0.8818
1.718
1.051
0.4044
0.4969
0.0372
0.004432
0.02254
0.01702
3.9
17.98
0.9027
0.4926
0.1943
0.3787
1.719
0.7614
0.03138
0.03473
0.01353
0.03819
2.14
36.06
0.7497
0.292
0.00435
0.1212
8.073
0.01871
0.01641
0.02728
0.569
43.1
0.1437
0.2756
0.03188
0.1846
3.487
38.54
0.7112
37.48
0.01787
0.1075
0.4314
1.758
0.8735
0.1944
0.06502
0.02372
0.05049
0.01026
0.005171
0.2686
0.0285
0.0163
0.2445
0.01363
0.02735
0.0285
0.01868
0.4751
0.4025
0.01065
0.2425
0.4373
0.03425
0.5652
0.4145
0.05665
10.91
1.196
0.131
0.01658
0.8447
0.01791
0.2078
3.035
0.5902
0.006068
0.2687
26.94
0.4187
4.125
1.462
8.444
3.792
0.1193
0.2349
2.041
0.002466
1.24
0.05341
0.1515
0.3979
8.672
0.005926
0.9449
62.48
0.001127
1.127
0.01626
0.005073
13.49
0.005941
0.01322
0.02013
0.6049
0.1503
5.747
0.101
1.048
5.965
4.982
0.02074
0.01759
0.002837
66.89
0.007949
0.4294
0.02131
13.95
0.1409
0.01468
3.622
1.6
0.02071
0.002129
0.8653
0.08756
7.248
3.602
0.04163
0.01842
0.7192
0.01699
0.1553
1.427
1.222
46.97
9.409
0.01831
0.197
0.6202
0.001929
0.1065
0.5153
0.4561
1.005
0.03468
0.01685
0.002636
1.76
0.02204
0.09178
0.09383
0.01647
0.04044
0.02696
0.007394
1.221
0.01597
0.02521
0.3776
0.1336
0.02939
0.01733
1.524
0.01236
1.508
2.499
0.03208
0.009336
0.01382
0.6578
3.02
0.9167
0.4563
0.2193
0.08043
0.1166
8.648
4.462
0.3094
7.171
0.3827
0.04831
0.9862
8.388
1.256
0.05417
0.1826
0.467
0.01711
0.5429
0.02888
0.7394
2.18
20.21
0.381
0.5013
0.4368
0.01809
0.5144
6.894
0.03965
0.06771
0.548
0.4046
0.001841
5.993
165
8.666
0.04126
1.787
21.41
0.1587
4.164
0.07914
0.01174
19.3
0.008892
1.502
4.442
1.094
0.5353
0.4578
2.552
0.36
0.4282
0.3104
1.106
1.872
0.00799
0.01904
0.3236
1.454
0.01722
0.006212
0.01908
3.243
0.01177
0.208
0.6302
0.5547
5.544
0.002358
4.695
0.1467
0.02137
0.01187
0.7514
24.48
0.05182
0.2823
0.002331
0.01757
0.001987
0.002149
0.01723
1.038
0.01691
21.75
0.6657
8.052
0.4255
0.01895
0.5903
0.01963
8.642
0.2001
0.08997
2.852
0.8457
0.06166
0.06047
1.034
0.02012
0.002652
0.5866
0.1176
0.03841
3.072
0.002195
0.00306
0.003056
0.4071
0.139
26.73
1.127
0.1602
0.0008883
0.0008823
0.01369
0.02611
0.02275
2.026
0.3231
1.874
0.1831
0.1796
0.01739
0.1951
1.836
2.294
1.123
0.9333
0.674
0.01649
1.29
0.01085
0.3113
1.179
0.1309
0.133
0.9245
0.6706
0.03743
69.61
1.903
0.003986
1.026
0.7458
6.946
0.01122
0.6619
0.6518
1.095
3.563
0.1934
6.943
6.851
0.01958
0.5369
0.01232
0.01076
29.81
10.82
0.2737
59.02
0.08355
0.05686
1.173
0.0146
1.029
0.1884
0.3669
24.66
0.6608
0.01308
15.95
0.579
0.615
0.3
0.6528
1.651
0.09273
1.626
27.31
0.04096
0.02332
1.421
0.00113
0.03311
0.438
0.8846
15.96
0.1441
1.028
0.25
0.002633
0.5988
44.58
0.07173
0.2787
0.005663
0.405
0.389
43.61
0.2644
0.2035
4.695
3.355
0.0255
0.2188
0.01685
6.942
18.79
0.02298
4.17
18.69
0.1747
2.019
3.994
0.7048
1.121
0.03623
0.00282
24.87
0.008864
0.8699
0.01658
11.83
0.01971
12.74
0.8621
3.077
0.05519
0.00146
0.03093
0.1496
0.4093
0.4623
0.0006967
47.49
3.981
0.008569
0.01763
0.3015
0.5944
0.5579
4.134
0.9496
0.01484
2.087
4.022
0.01731
36.42
0.01067
2.545
8.863
0.3059
0.01637
0.628
0.01726
2.073
5.028
0.1073
0.004627
0.01832
0.2364
2.78
0.5106
2.098
0.2179
0.4688
2.24
1.801
0.003118
0.01557
0.01797
15.98
5.819
0.05324
1.352
0.01238
0.02592
1.085
0.002661
0.6422
0.9136
0.0169
1.702
0.8949
0.4336
0.2043
3.091
2.421
0.0008965
0.0007429
91.21
0.7969
0.3714
0.01684
0.01686
0.3736
4.74
0.02184
0.01404
0.868
0.05104
0.01502
2.181
5.963
38.5
0.07159
1.069
0.5233
0.01795
1.93
3.15
0.02186
0.03576