/*--------------------------------*- C++ -*----------------------------------*\
  =========                 |
  \\      /  F ield         | OpenFOAM: The Open Source CFD Toolbox
   \\    /   O peration     | Website:  https://openfoam.org
    \\  /    A nd           | Version:  8
     \\/     M anipulation  |
\*---------------------------------------------------------------------------*/
FoamFile
{
    version     2.0;
    format      ascii;
    class       volScalarField;
    location    "20";
    object      p;
}
// * * * * * * * * * * * * * * * * * * * * * * * * * * * * * * * * * * * * * //

dimensions      [0 2 -2 0 0 0 0];

internalField   nonuniform List<scalar> 
63579
(
-0.4659
-0.1884
-0.2932
-0.328
0.7753
-0.1167
1.654
0.1951
0.03419
0.111
0.7184
-0.04212
0.119
-0.5708
0.2844
-0.5517
0.03423
-0.09998
-0.1115
0.7186
0.1527
0.1018
-0.0006492
0.302
-0.0007655
0.04722
-0.01553
1.027
-0.002031
0.4308
0.0001588
-0.01497
-0.0038
-0.02778
0.3021
0.00381
0.703
0.0424
0.4283
-0.2309
0.02371
-0.2017
0.01354
-0.1045
0.003609
0.1531
0.2008
0.07138
0.1237
0.0002466
0.7044
0.007308
1.65
1.351
0.009756
0.1426
0.01175
-0.003481
-0.01966
0.007405
0.5372
0.06819
0.7001
0.09091
-0.05012
0.3697
0.0334
0.9179
0.2645
0.01385
-0.4166
1.951
-0.00189
0.05355
0.05902
0.1891
0.436
1.313
0.04415
0.4971
0.7793
0.02335
0.3208
0.7427
-0.585
0.04653
0.1575
0.3731
0.001255
-0.3416
0.04416
-0.01347
0.3717
0.02434
0.3733
-0.06779
1.328
0.03298
-0.04595
1.214
0.0001864
1.74e-05
0.01757
-0.01404
0.1325
-0.0244
0.1281
0.1576
-0.04463
0.01067
0.02992
-0.5869
0.1861
0.121
-0.3087
0.003636
0.1891
0.3175
0.02455
0.06409
-0.01532
0.4977
0.195
0.0004928
0.05534
0.258
0.2785
0.6684
-0.04518
-0.5327
0.3021
0.1797
0.04225
0.0109
1.353
0.9601
0.183
0.001752
0.1255
0.001193
0.3998
0.000781
0.007696
0.07054
0.01889
-0.0004075
0.008779
0.1001
-0.01605
0.2217
0.06568
0.193
0.02797
0.7357
0.05944
0.3487
0.5609
0.1486
1.035
0.1567
0.02879
0.05267
0.1176
0.2764
0.0007668
0.02442
-0.4254
0.0501
-0.008353
0.2011
-0.0813
0.2579
-0.4338
0.2132
-0.2778
-0.002488
0.2988
0.0001677
2.391e-05
0.4161
0.6707
0.1613
0.1879
1.443
0.09953
0.0693
0.06311
0.08775
-0.4402
-0.008774
-0.0002305
0.02049
-0.002785
0.001204
1.218
-0.08276
0.0578
-0.04957
0.0383
0.0001028
0.09564
0.08307
0.3334
0.004406
-0.01086
-0.01891
0.5831
0.2964
0.03267
0.5852
0.07959
0.04573
0.002725
-0.004755
0.0734
0.03902
0.007967
0.04463
0.7197
0.1096
0.2657
0.5349
0.1866
0.6031
0.0006673
0.06503
-0.1144
0.2743
0.1684
0.004325
-0.000519
0.1193
0.0951
0.02923
0.01655
0.6956
0.06679
0.02703
1.149
-0.001973
0.07398
0.0726
0.2077
0.06966
0.03354
1.162
0.001414
-0.01421
-0.0003662
0.0653
0.1017
0.001108
1.426
0.8918
1.188
0.2774
0.7201
-0.01465
0.05069
-0.3761
0.0425
-0.4426
1.383
0.03898
0.1092
0.02764
0.8889
-0.01381
0.01297
0.02483
0.5354
0.1075
0.07415
0.00137
0.6169
0.03775
-0.02015
0.05808
-0.02916
0.00763
-0.3862
0.0002756
0.0957
0.7532
-0.5504
0.06673
0.5792
-0.0004167
0.3359
0.5841
-0.02705
0.1116
0.05437
0.007061
0.007924
0.1841
0.2333
0.02491
0.000257
0.5495
0.6787
0.7168
0.2476
-0.02911
-0.002759
0.2567
0.002345
0.0455
0.0001263
0.08635
0.02512
0.0001608
0.8159
0.001094
0.1244
0.0163
0.07363
0.01656
0.01889
0.09122
0.06363
0.08266
1.45
0.03342
-0.1935
0.02781
0.002111
0.2207
0.02065
1.429
-0.05454
0.00462
0.01098
0.04289
0.6036
0.001845
-0.002647
0.02477
0.6887
0.7187
0.001842
0.1496
0.02089
0.000361
0.921
-0.05403
-3.171e-05
0.1286
0.1433
0.008556
0.2773
0.4276
0.09057
0.08384
-0.002895
0.1256
0.4491
0.8442
0.0003024
-0.002996
0.0426
0.1738
0.9407
0.6459
0.319
-0.01335
0.003546
0.06693
0.85
0.6325
0.6289
7.101e-05
0.1021
0.2578
0.1236
0.0001812
0.05438
0.02833
0.05485
0.8828
0.2792
0.05365
0.05307
0.1893
0.4608
0.07479
0.2441
0.6766
0.04869
-0.007548
-3.59e-05
0.08081
0.0002193
0.0002184
0.01898
1.685
-0.02638
0.1724
0.2231
0.3336
0.1229
0.0729
0.0001931
0.1113
0.000181
0.2579
0.01291
-0.002639
0.07794
5.082e-05
-0.3807
0.1178
0.5121
0.001214
-0.01376
0.001222
0.08854
0.6662
-0.003185
0.7464
0.0009938
-0.02026
0.008234
-0.003399
1.01
0.08013
0.1267
-0.0001017
0.07148
0.003965
0.06965
-0.001803
0.8322
1.766
0.02877
0.4463
0.08463
0.6368
0.1874
0.6172
0.02967
0.005558
0.4409
-0.5821
0.09986
0.001038
0.2524
1.649
-0.01422
0.1076
9.773e-05
0.000141
-0.07075
1.392
0.05387
-0.06627
-0.4145
0.2511
-0.01704
-0.06702
0.2062
1.614
0.02255
0.2577
-0.01019
-0.0002692
-0.00576
0.4988
0.6991
0.237
0.0001766
0.9502
9.984e-05
0.6408
0.1323
0.04599
-0.02754
0.01415
0.19
0.7587
1.424
0.642
0.6446
-0.007672
0.01823
0.0444
0.2925
0.08719
0.08129
0.07743
1.224
-0.007808
-0.006288
0.1481
0.001214
0.763
0.03679
-0.03866
0.008332
0.1793
0.5701
0.6571
0.03252
0.7495
0.0634
0.6727
-0.01483
1.631
0.002127
0.1855
0.0004158
-0.003199
0.1076
0.5507
0.1674
0.1007
0.02942
0.2194
0.0003912
0.06415
0.0129
0.0003269
0.02227
0.09528
0.1795
0.01294
0.06918
-0.002043
-0.3707
0.1545
0.06794
0.1871
0.1065
0.05812
0.002891
0.03042
0.1738
0.3464
0.04828
0.1036
0.3087
-0.006502
0.1521
0.0001764
1.121
0.03748
0.3457
0.08552
0.0377
0.3374
0.0004826
0.02843
0.0002691
0.2371
0.04346
0.2691
0.147
-5.773e-05
-0.01567
0.1251
-0.09372
0.1571
-0.06078
0.2216
0.1262
0.0002224
0.04606
-0.002921
0.8485
0.3448
0.009061
0.02958
-0.5323
0.09759
0.2112
0.2196
0.1153
1.045
0.1449
0.07492
0.04555
0.06132
0.2217
0.09425
0.1455
0.0002716
-0.005445
-0.01312
0.01487
0.09212
0.3767
0.07834
0.1049
0.6838
0.04052
0.2791
0.1277
-0.1016
0.1324
-0.09395
-0.002301
0.2567
0.0078
0.1769
0.0869
-0.02949
0.007515
0.02128
0.1968
0.1898
0.2982
0.001114
0.0001341
6.466e-05
-8.053e-05
0.1345
0.07529
0.03516
0.3266
0.07523
7.844e-05
0.2972
0.0946
0.8438
0.03636
0.1283
0.6404
0.006257
0.02884
-0.1325
0.0008547
0.9036
0.1519
0.1353
-0.005297
0.4095
0.001028
0.03752
1.439
0.1918
0.0591
0.3217
0.3028
0.2814
0.7585
-0.006175
0.121
-0.007477
0.1101
0.005396
0.0005472
-0.1512
0.4177
0.0007268
-0.007318
0.01371
-0.005441
0.0002432
0.02242
0.1862
8.072e-05
0.69
0.1129
0.09836
0.05431
0.07136
0.1572
0.01184
0.5784
0.01074
0.08797
0.564
0.0912
0.0003444
0.0003721
-0.005432
0.07907
0.2269
0.9057
-0.009678
0.09487
0.4514
0.005985
0.0332
0.1863
0.08379
-0.02679
0.085
0.04531
0.2861
0.001903
0.06673
-0.004835
0.4763
-0.001273
1.282
0.1485
0.0003225
0.6106
-0.008136
-0.1857
0.1072
0.9593
0.1314
1.003
0.02451
0.0003716
0.0003621
0.04761
-0.6075
-0.3835
0.03615
-0.001609
-0.06059
-0.01539
-0.006732
-0.0002076
0.4706
-0.005795
-0.4745
0.2998
0.8356
0.000472
1.637
1.548
0.01029
0.3359
1.742
0.07455
-0.0001795
3.147e-05
0.0002016
0.2353
-0.0002137
0.003742
1.322
0.003251
0.09296
0.3118
-0.003441
-0.001725
1.634
0.3615
0.1008
-0.05449
0.1396
0.2665
0.0001535
0.4318
-0.06307
0.6347
0.04432
0.009158
0.1375
0.5502
1.303
0.2582
-0.003022
0.03208
0.08743
0.0945
0.05903
0.5579
1.265
-0.5397
0.0003606
-0.01141
0.2029
0.01645
-0.004913
0.06845
-0.003794
0.6935
-0.004441
0.04417
-0.001233
0.3464
0.8386
0.1626
0.1227
-0.03159
1.141
0.7008
0.06884
1.408
0.6429
0.1127
0.09158
0.6503
0.0653
0.05934
-0.0003867
0.1525
0.04003
0.09329
-0.0002339
0.0467
0.1547
0.08031
0.06476
0.07788
0.00697
0.1196
0.8342
0.1835
0.1486
0.0148
0.08394
0.7892
0.6836
0.0863
0.03297
0.08016
-0.008457
0.02005
0.0002353
0.2934
0.2714
0.8397
0.1106
0.001341
0.0001615
0.4122
0.001021
0.04372
0.0001718
0.0004821
-0.04648
0.8785
0.0766
0.9253
0.04202
0.04859
0.7305
0.0764
0.02887
0.3651
0.04996
0.1948
0.0002876
0.3791
0.09738
0.156
0.2223
-0.01164
0.1155
-0.03612
0.0001837
1.608
0.07229
0.0001303
0.03127
0.0394
0.0006905
0.8721
0.1343
0.1267
-0.02057
0.0422
-0.4659
0.028
0.3571
0.07727
0.0005622
1.587
0.5072
0.04548
0.03677
0.0004651
0.2107
-0.5195
0.3033
0.5426
0.01466
0.04381
0.1523
0.02098
0.06288
0.03828
0.05853
0.1993
0.345
1.745
0.08772
0.1449
0.08544
0.04256
0.0001042
-0.002897
0.01423
0.115
0.15
1.398
0.03848
0.03504
0.06462
-0.01691
0.1043
0.00192
0.09092
0.1097
0.2171
0.0368
0.03566
-0.07301
1.908
-0.01864
0.1114
0.1601
0.0009543
0.000222
0.09131
-0.0191
-0.0007409
0.08533
0.09454
0.007401
0.09281
-0.003534
-0.0446
0.04771
0.004017
0.3012
0.03797
0.05002
-0.3484
0.1523
0.0241
-0.0002679
0.5328
0.01663
-0.5744
0.1856
-4.504e-05
5.941e-05
0.0485
1.308
0.1476
0.07957
0.008664
0.03857
0.2497
0.1083
0.02704
0.3781
0.0001053
0.07802
0.3886
0.1831
0.4162
1.144
0.1353
9.6e-05
0.0001805
0.7086
0.7425
0.001955
-0.003458
0.7341
-0.002195
0.3156
-0.2129
0.1461
0.296
0.1271
1.101
-0.4684
0.000403
0.07552
0.1205
0.09894
0.5725
0.06397
0.6065
0.2145
0.3745
1.187
0.6705
0.1893
0.1159
0.1003
-0.0371
0.007011
0.08353
0.1005
0.2828
0.6425
0.08692
0.001105
0.1842
0.01226
1.618
0.1076
0.0002381
0.107
0.8253
0.04727
0.2568
-0.09307
0.6321
0.0627
0.008896
-0.5391
0.03922
0.02768
0.1978
0.7975
0.7261
0.8427
0.03723
0.568
-0.3497
1.29
0.0001657
0.01991
0.007345
-0.4286
-0.02858
0.3447
0.06318
1.263
-0.00629
8.484e-05
0.03606
0.1041
-0.07895
0.004361
0.01315
0.2412
-0.0224
0.06055
1.641
0.1134
0.6295
0.07696
0.02664
0.4143
0.0784
0.6879
0.006468
0.1109
0.07054
-0.4928
-0.3443
0.01103
0.3594
0.4055
-0.01869
0.3432
-0.5165
0.4317
0.05686
-1.929e-06
4.531e-05
0.02705
0.3959
0.01035
0.2073
0.0311
-0.02045
-0.7781
0.3098
-0.002003
0.02445
0.1755
0.1735
0.0006512
0.1299
0.0002736
0.0002678
0.0002614
0.0001867
0.04031
0.1887
0.6781
0.08938
4.494e-05
0.06842
0.08268
-0.07028
0.06989
1.144
0.2857
0.05051
0.9909
0.8341
-0.002817
0.2231
0.04172
0.168
0.6112
-0.00346
-0.0004838
0.001892
0.7376
0.6785
0.01398
-0.02037
0.01596
0.1207
1.395
0.08243
0.07297
0.08853
0.021
0.6081
-0.008175
0.01036
0.0005187
1.286
0.177
0.01416
0.0493
0.1218
0.0006246
0.2358
0.2461
0.01291
0.0004932
0.128
-0.054
-0.4371
-0.2393
0.315
0.06492
-0.001216
0.1558
-0.003881
0.07102
-0.342
0.2348
0.06464
-0.068
-0.005852
0.2361
0.6396
0.01297
0.01444
0.08657
0.003657
0.1352
0.7771
1.617
0.03025
0.0778
0.743
0.0813
0.07733
0.7092
0.01337
0.212
0.006344
-0.08798
1.009
0.0003
1.455
4.012e-05
1.115
0.02954
0.2401
1.483
0.421
0.07852
0.003447
0.07101
0.07054
0.1072
0.2604
0.1928
-0.01178
0.06007
0.3568
0.128
0.01876
0.1149
4.545e-05
0.03384
0.06435
0.1339
0.0001544
-0.09378
0.1539
0.000111
0.2902
0.1293
0.02905
0.2358
0.03235
0.3748
0.1254
0.2489
0.5296
0.0001291
0.1097
0.005829
0.1151
1.579
0.03599
0.5707
0.001075
0.1973
0.4267
0.008453
0.9585
0.4857
0.0002776
0.004667
-0.05571
0.02786
0.0029
0.1357
0.183
0.05254
0.000432
-0.07646
0.2198
0.6598
0.1093
-0.005081
0.5488
-0.01272
0.07622
0.06372
-0.5472
0.4001
0.001599
0.002375
0.1431
0.01524
-0.4214
-0.001384
0.03664
-0.01943
0.1171
0.235
0.0806
0.1196
1.035
0.001895
0.0003243
-0.03549
-0.09
0.792
0.01968
0.07229
0.7664
0.06647
-0.00386
0.04812
0.0006446
1.27
0.04822
0.000143
0.04095
0.1044
0.04353
0.2461
0.3755
0.003808
0.04914
0.2291
-0.5332
-0.009037
0.1372
0.7471
0.01163
0.08462
-0.1239
0.0002869
0.873
0.1244
0.557
0.2326
-0.008175
0.1129
0.04066
0.0002651
-0.4564
0.01412
-0.03775
0.02854
0.009982
0.06584
0.2792
-0.1683
-0.2916
0.06643
0.002582
-0.003754
0.5788
0.758
0.2819
0.1413
0.2509
-0.005788
0.01425
0.623
0.08243
0.122
0.5053
-0.01883
0.01544
-5.839e-05
0.07904
0.7085
0.07959
0.008981
0.1966
0.05351
0.2093
-1.847e-06
0.003908
-0.004168
0.5278
0.02785
0.4395
0.0002053
0.5292
0.02976
0.2318
0.0003462
0.001589
1.63
0.04416
0.04678
-0.004531
-0.109
0.0001672
0.01431
0.04343
-0.4966
-0.004059
0.007809
0.1989
0.05834
0.363
1.2
0.0005232
0.3749
0.0002182
0.3242
0.01255
0.1827
0.001482
0.1439
-0.01047
0.000511
0.09094
0.04616
0.7905
-0.004045
-0.3555
0.2561
0.07522
-0.0007268
-0.0135
0.02546
0.06154
0.1198
0.2283
0.2606
0.03218
0.1864
0.1755
0.4576
-0.0754
0.5133
0.04555
0.3721
0.0002755
0.2162
-0.0002407
1.9
0.000225
-0.3955
-0.003748
0.002143
0.8053
0.004975
0.308
0.05958
0.565
0.09325
0.0469
-0.006993
0.0487
0.5411
0.04931
0.07425
0.9291
0.02215
-0.1179
0.6167
0.04969
0.008558
0.03524
0.000781
0.04622
-0.07106
0.1227
0.1742
0.7129
0.7176
0.2627
0.04642
0.1871
0.002064
0.001256
0.1853
-0.005437
-0.002721
0.07733
0.0411
0.1487
0.8227
0.3939
0.1582
0.159
0.2268
0.02747
0.04119
0.04254
0.01288
0.034
-0.005421
0.1583
-0.0003205
0.1758
-0.009896
0.0002448
0.006422
0.001127
1.279
0.1916
0.003897
-0.005346
0.1952
0.3212
0.1448
0.06474
0.09572
0.03514
-0.3658
0.01301
0.3455
0.2559
0.105
0.0004672
1.329
-0.07572
-0.009137
-0.01044
0.1479
0.6676
0.09274
-0.02186
0.0636
0.167
0.0002207
0.7444
0.02193
0.008182
0.04135
0.08705
0.3764
0.1517
0.1149
0.06456
0.0003835
0.1808
0.01155
0.06126
0.08881
-0.4455
1.29
1.617
0.04697
0.02207
0.4162
0.01829
-0.1925
0.2475
0.05384
0.1705
-0.02398
0.4979
0.03504
1.887
0.04198
0.03806
0.0002502
0.02922
0.1435
0.1955
0.03169
0.09342
0.1044
0.09615
0.0312
0.1182
0.2259
-0.3928
0.02295
-0.03002
-0.003812
0.04884
0.5149
0.2826
0.1955
0.04949
1.875
0.04284
0.005483
-0.003789
0.005768
0.1769
0.2194
0.07147
-0.0007731
0.01629
0.03997
0.1188
0.322
-0.0006135
0.3094
0.2259
0.6851
0.05713
0.04843
0.3701
0.5009
0.1237
0.01017
0.2862
-0.534
-0.004343
0.006716
0.3583
1.51
0.09578
1.295
0.3424
0.03491
0.08397
0.297
0.0002904
0.04111
0.03899
0.2182
0.3745
0.1913
-0.06765
1.708
0.0001071
1.249e-05
0.001373
0.03917
-0.3567
1.142
-6.321e-05
0.1854
0.1144
0.07549
-0.3903
0.9448
0.03857
0.2067
0.02532
0.6114
0.01343
0.2664
-0.00413
0.1032
0.07232
-0.09494
0.587
0.007603
0.07726
0.01772
0.08759
0.002776
0.03186
0.1987
0.7728
2.405e-05
0.2504
-0.01278
5.608e-05
0.0185
-0.4004
0.01074
0.09864
0.02751
0.1681
-0.02518
-0.01611
0.9667
-0.002579
0.2865
0.1528
-0.1988
0.07772
-0.004809
1.894
0.008079
0.08744
0.0001508
0.09827
0.07606
0.01421
0.01266
-0.01981
0.0003262
-0.005836
1.458
0.03714
0.04355
0.007103
0.2079
0.07642
-0.0004116
0.0935
0.07191
-0.004276
0.2377
1.15
0.06278
0.04584
0.09577
0.08061
0.3523
0.06085
0.1401
0.0003606
0.0001293
0.3134
-0.1074
-0.01322
0.0486
1.373
0.5838
0.5083
0.7461
0.0002242
0.09693
-0.0291
0.2236
0.06011
-0.08187
0.4962
0.002405
0.4526
0.1366
0.1308
0.08358
0.09858
-0.001597
0.3839
-0.5471
0.0006625
-0.006102
0.02561
0.00488
-0.3108
-2.172e-05
0.0001335
0.3717
0.0003397
0.1239
0.004453
0.01422
0.05394
0.7363
0.02316
0.002468
0.009583
0.002233
-0.4366
-0.003991
0.005736
0.1154
0.1196
-0.006446
-0.003883
-0.0061
0.01125
0.1432
0.1323
0.04362
7.139e-05
0.1424
0.003297
0.1494
0.08853
0.1396
0.01333
0.1827
0.2336
0.4167
0.01283
0.01704
0.1577
0.0006314
-0.01885
0.000549
1.149
0.1385
0.0005342
-0.499
0.01586
0.04527
0.2747
0.04013
1.483
0.03825
0.9947
-0.2014
0.03632
-0.0004123
1.064
0.02268
0.01141
1.161
1.212
0.01697
0.0144
0.03302
0.0173
0.1803
0.000151
0.2103
-0.5527
-0.05009
0.8935
0.1084
0.07182
0.01472
0.0008351
0.4797
-0.01486
0.03665
0.06297
0.03449
0.1915
0.7235
0.002002
0.0005957
0.3189
0.4061
0.09116
0.03027
1.587e-05
0.07202
-0.0107
0.08357
0.0003027
0.07743
0.7461
1.094
0.09484
0.6477
0.004811
0.01361
0.7127
-0.003304
0.6274
0.6938
-0.0008616
0.0003627
0.07177
0.01462
0.1286
0.3633
0.1831
0.004719
0.03178
0.06372
1.282
0.03532
0.06307
-0.00705
0.0004214
0.03587
0.3062
-0.3272
0.0002825
0.1249
0.09351
0.1414
0.2071
0.01628
-0.01183
0.2149
1.529
0.2396
0.1553
0.02166
-0.01246
0.05896
-0.373
-0.0009618
0.03216
0.002422
0.03286
0.4237
0.1316
0.08243
0.001269
0.04666
0.03874
-0.007354
0.539
0.0879
0.9135
0.7271
0.001121
-0.00447
0.07052
0.2086
0.1285
0.09253
0.2846
0.003558
0.0002902
0.1843
-0.01594
-0.4449
0.008726
0.06486
0.2171
0.5055
0.01925
0.1044
0.1684
0.007303
0.7941
0.02814
0.6609
0.2351
0.03464
-0.4763
0.08018
0.3086
0.7245
0.0141
1.244
0.0003727
0.7232
0.03928
0.179
0.02251
0.0001363
0.2914
-0.3157
0.008563
0.06732
0.1374
0.2891
0.0005464
1.634
0.07169
1.124
0.07201
0.08983
0.1864
-0.5485
-0.5238
0.1515
0.1729
-2.955e-05
0.0951
0.1985
0.1141
0.02786
-0.3348
0.009086
0.5128
0.1679
0.679
0.07698
0.08329
0.03716
0.1094
0.4456
1.644
0.3144
0.002655
0.8495
0.03878
0.01388
-0.009667
0.1681
-0.07061
0.0008491
0.01117
1.137
-0.003655
0.0004528
0.08618
0.0002512
0.0003263
9.648e-05
-0.3849
0.04655
0.221
0.0004799
0.1242
-0.008094
0.1177
0.09778
0.05733
-0.02754
0.03359
0.06553
8.474e-05
0.0917
0.06654
0.06295
0.0005175
0.08198
0.0002056
1.116e-05
-0.05977
-0.5733
0.153
0.04052
0.1143
0.04812
-0.04349
0.04376
-0.0175
0.04565
0.04072
0.03269
0.0003429
0.1197
0.1015
0.18
0.04879
0.01648
-0.004381
0.4088
0.5024
0.0001516
0.05678
0.1234
0.6458
0.09123
0.1136
0.5292
0.001546
0.1447
0.02633
0.4587
0.1263
0.2985
0.0006682
1.383
-0.001181
-0.02645
0.3609
0.3993
0.003075
0.3155
-0.03047
0.1505
0.3141
0.1611
0.03298
-0.3606
0.1141
0.08655
0.215
0.001369
0.03833
1.09
0.01403
0.2389
0.3532
0.2395
0.2575
0.08697
1.169
0.3413
1.161e-05
0.0001573
0.01841
-0.008387
0.01708
0.313
0.2969
-0.02867
1.941
0.0001697
0.05876
0.08467
0.06527
0.1073
0.03069
-0.2084
0.07198
0.01302
0.2698
0.1312
0.7434
0.06125
0.2882
0.0008787
-0.3288
-0.03401
-0.02795
0.08037
0.05593
0.06285
0.0732
0.594
0.122
0.7199
-0.4803
0.07124
0.3696
0.4509
0.01618
0.6599
0.1089
0.4638
0.3163
0.001567
0.08879
0.08227
0.2312
0.5626
-0.1439
0.0006093
0.005231
-0.01655
0.06353
0.2144
0.1013
0.03294
0.05227
0.06614
0.0471
0.02714
0.5562
0.3184
0.3616
-0.003782
0.3074
0.05402
0.2491
0.03684
0.03316
0.00333
-0.346
-1.566e-05
0.0585
0.06464
0.1162
0.7448
0.257
0.0001225
0.07607
-0.008291
0.7774
0.07247
0.2702
0.6972
0.05438
0.0003326
0.0062
-0.002296
-0.6704
0.679
0.01225
0.0006089
0.003553
0.1601
0.9835
0.1695
0.1601
0.06499
0.04495
0.1315
0.07923
-0.4077
0.1117
0.5019
-0.0007151
0.00621
1.903
0.04107
0.03439
0.0001194
-0.5935
-0.5699
0.008451
-0.4651
-0.004078
1.829
0.09637
-0.04199
0.1686
0.09379
0.6958
-0.01426
-0.001098
0.1329
3.586e-05
0.0001316
0.1415
0.157
0.07393
-0.1538
0.2465
0.01229
-0.04109
0.1314
1.22
0.1555
0.03257
0.0001715
0.04438
0.03514
0.09949
0.5918
0.1127
0.03895
0.003494
0.1449
0.03421
-0.06648
0.3621
0.6992
0.158
0.164
1.12
0.05358
0.09774
0.07693
0.2591
0.001364
0.0003656
-0.000743
0.04372
0.1846
0.6524
-0.3639
-5.216e-05
0.1354
0.1606
-0.5189
0.04716
-0.1153
0.2414
0.5001
0.8186
0.1264
-0.05031
0.05523
0.02378
0.01395
0.2295
0.03995
1.041
0.3462
-0.01513
0.06678
0.6978
0.09098
0.305
0.01064
0.03826
-0.002457
0.0008864
0.02273
0.3895
7.93e-05
0.05903
0.1125
0.3417
0.1618
0.02274
0.7665
0.01882
0.1048
0.1245
0.0005005
0.7738
0.08945
0.4128
-0.01915
0.04476
0.02291
-0.03492
0.0003979
-0.2909
0.0196
0.375
0.1741
-0.0002709
0.02946
-0.3461
0.09504
0.1804
0.1105
-0.002861
-0.001471
0.1625
0.02052
0.06298
0.2509
0.09761
0.04366
0.6156
0.008016
0.2001
-0.00745
1.711
0.05695
0.04577
-1.266e-05
0.03606
0.3369
0.2185
-0.4389
0.1095
0.02244
0.06144
0.5941
0.2202
0.07984
0.0001829
0.01179
0.2218
0.5988
0.6549
0.122
-0.3921
0.06662
0.5711
0.1173
1.35
0.09746
0.05548
-0.0139
-0.015
0.06746
0.00147
0.0002847
-0.4001
0.1786
0.03514
-0.02025
0.3414
-0.009143
0.1261
0.09062
-0.06539
0.0005606
0.1929
0.1303
0.009468
-0.008411
0.1754
0.2562
0.09815
-0.01015
0.186
-0.02876
0.0816
0.2744
0.09146
0.6128
0.05848
0.02351
0.06819
0.1894
0.1912
0.008685
0.4429
0.05156
0.07636
0.01906
0.02155
-0.0151
0.6093
0.07786
0.7318
0.5298
0.323
0.131
-0.01197
0.349
1.893
0.4463
0.7285
0.0894
0.1659
0.04242
0.04681
0.7729
0.0851
0.593
0.4566
0.08162
-0.07629
0.2585
0.05459
-0.01652
0.2479
0.1013
0.000342
1.088
0.4617
-0.01278
-0.47
0.07169
0.01315
0.01069
0.01305
0.1743
0.007886
0.00163
0.6515
0.08044
0.07639
0.1261
-0.004754
0.07686
0.1149
0.1077
0.1202
-0.1053
0.009452
-0.0078
0.08078
0.2711
0.02272
-0.01678
-0.04806
-0.08159
1.63
0.06484
0.06271
0.8838
0.05035
0.1492
0.3479
-0.02771
-0.07989
0.005745
9.9e-05
0.002236
0.09346
0.1082
0.03256
0.1121
1.694
0.006988
-0.004995
1.058
0.1089
0.0139
0.3803
8.95e-05
0.4832
0.4919
0.5081
0.009383
0.4773
0.507
1.279
0.4578
-0.2799
0.04892
0.4987
0.1153
0.09197
0.7367
0.391
0.007251
0.1219
0.1324
0.04688
0.6275
0.0008694
0.0004358
0.09469
0.7218
-0.006422
-0.5478
0.602
0.02948
0.157
0.0002326
0.2309
0.03476
0.005211
0.09317
-0.005225
0.4201
-0.02027
0.3869
0.2909
7.149e-05
0.5376
0.1213
0.08158
0.2223
0.0888
0.1574
0.8306
0.02213
0.6509
0.2006
-0.02664
0.8733
0.0256
0.05452
-0.01375
0.004705
0.005207
0.01499
0.109
0.5032
0.03155
-0.0006371
0.5495
-0.008029
0.7383
0.005705
0.2394
0.03709
0.02284
0.02952
-0.08845
0.0003185
-0.5309
0.02001
0.2025
0.3551
0.09449
0.2373
-0.2674
-0.1031
1.521
0.002872
0.04106
0.05186
0.2377
0.6443
0.2085
0.071
-0.08069
0.08978
-0.05053
0.04019
0.05131
0.1548
0.1098
0.6235
0.2251
-0.001735
-0.004588
0.0689
0.3505
0.2563
0.3307
0.6086
1
0.272
1.15
-0.04281
0.2608
0.04185
-0.3492
0.2541
0.06051
0.06003
0.1174
0.09617
0.4333
0.03487
0.08751
0.1471
1.189
0.04246
0.1121
0.6598
0.3435
0.001283
-0.1303
0.1014
0.5793
0.5328
0.0581
0.8296
-0.01978
0.09024
1.154
-0.001215
0.0002813
0.0002593
0.02334
0.1472
0.06246
-0.1107
0.009646
-0.03739
0.04137
0.3723
-0.004022
0.1511
-0.00513
0.000379
-0.3277
0.2622
0.1303
-0.3633
-0.01588
0.0483
-0.5466
0.01295
0.0777
0.7768
0.3259
0.7409
0.0459
0.1098
0.1789
0.09147
1.32
0.05474
-0.07461
0.1083
0.01034
7.461e-05
0.0909
0.08582
0.1124
0.6709
0.01007
0.0003125
0.0002666
-0.05821
0.7216
0.0005484
0.0004728
-8.33e-06
-0.005206
0.1518
0.0004255
0.4513
0.09019
0.1282
0.1818
0.06856
0.1804
-0.003189
0.03232
0.08918
1.374
0.1636
1.266
1.31
0.0492
9.008e-05
0.01446
-0.0953
1.356
-1.405e-05
0.02703
-0.05765
0.1139
0.06165
-0.09569
0.6558
0.11
0.1259
0.08858
-0.3485
-0.6279
0.05978
-0.02727
1.143
-0.002247
0.2194
0.2534
0.05615
-0.006851
-0.0277
0.7546
0.918
1.294
1.6
0.1626
0.01193
0.01584
0.01475
-4.815e-05
0.00128
0.2626
0.3862
0.2998
0.6843
0.1474
0.2012
0.7852
0.2046
0.1687
0.05561
0.1794
0.1207
0.02985
0.02506
0.01289
0.1968
0.6549
0.01532
0.6402
1.291
0.3308
0.246
0.6619
0.05222
0.09114
0.008663
0.04204
0.5353
0.0001487
0.01764
0.01288
0.2674
0.05437
-0.03645
0.04373
0.0001673
0.001534
0.08837
-0.03431
0.4372
0.03095
0.03719
0.01647
1.37
0.01691
0.7489
0.008393
0.00309
0.2108
0.2036
0.11
0.04819
0.1066
0.3417
0.183
0.3671
0.1158
0.04598
0.9501
0.002613
0.596
0.1373
0.0003182
0.7996
0.3152
0.347
0.3066
-0.01978
0.2647
0.04504
-0.6243
-0.01226
0.06455
0.1441
0.003095
1.172
0.06512
0.08428
0.1123
0.4673
0.06766
0.05251
0.009936
0.1253
-0.01184
-0.002937
0.00217
0.1856
-0.01655
0.03248
-0.004258
0.284
0.02824
-0.04489
-0.004838
-0.1072
0.004848
0.07643
0.4106
-0.00536
-0.006579
0.03693
0.5714
0.08579
0.8026
0.8463
0.12
0.1747
0.0003507
1.579
-0.0004942
0.6123
0.08007
0.0001685
0.3781
0.2497
0.04895
0.1527
0.643
0.2555
0.1107
0.1024
0.9104
0.06842
-0.006162
0.0001613
1.209
0.5464
0.0001474
0.1757
0.2491
0.04672
-0.3254
0.03429
0.2104
0.05967
0.006396
0.04614
-0.009755
0.09674
-0.06542
0.1296
0.3137
0.05244
0.1893
0.7584
0.1248
0.2828
0.03275
0.2611
0.5153
0.2551
0.1766
0.5495
0.0003456
0.08469
0.01275
0.04036
0.1154
0.06201
0.0006193
0.03617
0.000196
-0.5753
1.462
0.04388
1.775
0.1746
0.09419
-0.524
0.7114
0.07929
0.01099
-0.0001765
7.151e-05
0.05116
0.03562
0.4121
0.9697
0.001471
1.602
0.08125
0.205
-0.5888
0.07638
0.6558
4.53e-05
0.01025
0.7274
0.177
0.4159
0.6269
0.08962
-0.003847
0.2019
0.1287
0.09485
0.003486
-0.03372
8.755e-06
0.001684
-0.01247
-0.09974
0.04387
-0.00696
0.005784
0.01373
0.002155
0.05994
0.04314
0.02982
0.02867
0.03697
-0.7136
0.0002209
0.1965
0.0002232
0.01942
-0.07109
-0.01249
-0.2485
0.004341
0.1941
0.1446
0.9434
0.09582
0.7996
0.0331
0.2223
0.1524
-0.5888
0.08002
0.001562
0.2094
0.8737
0.2352
0.4553
-0.5485
0.2113
0.000354
0.002006
0.07459
0.6939
0.6631
0.003864
-0.1274
0.7514
-0.1543
0.411
-0.5184
0.06973
0.000286
0.6853
-0.01562
-0.4008
0.4026
1.513
-0.001647
0.6667
0.1642
0.0004159
0.2368
-0.05054
0.00184
1.686
0.9949
-0.01462
0.1113
-0.003484
0.05227
0.04581
0.4607
0.1613
0.05065
0.02125
0.03971
0.01265
-0.06533
0.003923
0.1803
0.003376
0.1364
1.835
-0.002689
0.0005208
0.2322
0.002337
0.0001719
0.0001431
0.09973
0.06546
0.2897
0.08358
0.1786
-0.002802
0.1579
0.07603
0.1423
-0.001445
0.04253
-0.00496
0.04251
0.4905
-0.0005333
0.0002004
0.0002078
0.04517
0.07535
0.9664
-0.002661
0.2489
1.058
0.3819
-0.09162
0.008888
0.1336
0.7255
0.3899
0.05036
0.2436
0.2417
0.3905
-0.008072
0.08156
0.0007491
0.4151
-0.0006739
0.05867
-0.08989
0.1634
1.261
0.0001108
0.7585
0.002705
-0.01156
0.4666
0.01005
0.3391
0.2579
0.1341
-0.06913
0.7601
-0.3438
0.003992
0.0195
-0.01754
0.04728
0.05231
0.07967
-0.0007793
0.1341
0.1387
0.04133
0.0843
0.7533
0.0002137
0.01412
0.7982
0.08768
0.171
-0.2964
1.797
0.2553
0.05051
1.789
0.3261
0.4298
0.0001866
0.1813
0.01579
0.07574
0.08755
0.2916
-0.02372
0.4352
0.3423
0.6125
0.1101
0.06525
0.2085
0.04719
0.2779
-0.0302
-0.03878
0.04993
0.04529
0.04942
-0.0006934
0.007524
0.09083
0.1596
-0.00656
1.066
0.05265
0.6017
-0.000762
0.1619
0.1909
0.1451
0.02926
-0.09832
0.1979
1.933
0.1661
0.02105
0.002424
-0.003363
0.1913
0.06954
0.569
-0.003175
-0.04614
0.6754
0.7276
-0.04414
0.2475
0.04996
0.5392
0.1215
0.2145
0.03177
0.1287
0.5301
0.0002154
0.0002347
0.0202
-0.5354
0.3555
0.5987
-0.05882
0.05665
0.1067
0.07519
0.4876
-0.1256
0.1729
0.01255
0.1285
-0.08796
0.03688
0.4689
0.1608
-0.005111
0.006355
-0.006445
0.04903
0.1242
0.2079
0.06438
0.7699
0.1105
-0.2945
0.004709
-0.01505
0.01152
0.1031
-0.4401
-0.001021
0.2473
0.0005244
0.6757
-0.00321
0.08902
-0.3657
0.4235
-3.321e-05
0.2931
0.1956
0.3716
-0.000538
0.2245
0.4751
0.4257
0.3161
-0.007936
0.1935
-0.006081
0.03214
0.007972
0.00118
0.003404
0.122
0.009032
0.01104
0.03852
0.01456
0.09999
0.6729
-0.0009693
-0.0003057
0.3276
0.5265
0.1581
0.8932
0.6045
0.6438
0.001372
0.083
0.000348
0.0809
0.6292
0.1294
-0.007782
0.01738
0.01964
1.509
-0.004334
0.0103
1.096
0.744
0.7617
0.2443
0.08863
-0.0926
0.02745
0.1928
0.01422
-0.5467
0.1894
-0.02037
-0.05134
0.02558
-0.02318
0.03404
1.45
-0.0003564
0.6184
0.02888
0.6419
0.2505
0.1965
0.2563
0.2262
0.0007211
-0.03691
0.05043
0.045
0.002285
0.01892
0.6814
0.996
0.1604
0.07004
0.000353
-0.01711
0.1095
0.05562
0.000255
0.0001929
0.09735
0.0004224
0.03194
0.1494
0.3801
0.05368
0.1162
0.07726
0.658
-0.002003
0.2002
0.1859
0.1129
0.1194
-0.07859
-0.2398
0.07901
-0.4818
0.03679
0.03013
-0.001438
-0.0006037
0.01678
0.00708
-0.4946
0.09087
-0.0003916
0.03182
0.01012
0.2065
0.2142
0.9954
0.2453
0.06702
0.113
0.6815
0.03531
-0.00442
-0.003454
0.0151
0.01308
0.2991
0.2009
0.0008225
2.216e-05
0.0001223
0.1459
0.06789
0.1623
-0.04572
-0.02675
0.1478
0.279
0.2159
0.1411
0.08623
-0.006898
0.4939
0.5543
1.227
0.03036
0.1347
-0.4015
0.005468
0.0279
0.02278
0.04237
0.4923
-0.01034
0.05298
-0.005547
0.03123
0.155
0.05698
0.08132
0.3171
0.7269
1.466
0.4531
1.266
0.08002
0.1413
0.1787
0.04366
-0.00236
0.04448
0.0991
0.0518
0.03278
0.1498
0.05239
0.001614
0.2597
0.7423
0.7552
-0.01129
0.03054
0.531
-0.2729
0.04977
-0.03028
0.4227
0.0752
-0.132
1.334
0.1437
-0.004843
1.632
0.1186
0.0006589
0.0006088
-0.01811
-0.2953
0.1157
0.1788
0.03649
0.03911
0.0128
0.001315
1.575
0.3802
-0.04199
-0.06108
0.0586
0.2804
0.008015
0.2772
-0.4859
0.3472
0.0007574
0.7235
0.03215
0.006426
0.01407
0.03991
0.05833
0.0008304
-0.006758
0.3362
0.9775
0.002454
0.2207
0.6081
0.423
0.04849
0.1015
0.1395
0.161
0.01449
0.009812
0.6481
-0.00212
0.06866
0.001209
5.053e-05
0.0001644
0.02596
0.05362
0.01645
-0.3936
0.01439
0.06424
0.04303
0.1323
-0.2216
0.1349
0.7107
0.1989
0.4036
0.06891
0.07365
0.009692
0.00184
-0.03368
0.1195
0.000282
0.0002703
0.1477
0.05834
0.0001837
0.1003
0.4466
0.09423
0.06319
0.628
0.01512
1.06
0.04004
0.111
0.1053
0.4191
0.1069
0.1045
0.2974
-0.004685
0.03439
0.004181
0.1434
0.08176
0.02761
0.2758
0.3472
1.237
0.6808
0.07131
0.0452
0.2553
0.005654
0.1698
0.04148
0.7391
0.02935
0.06645
-0.0342
-0.07326
0.006593
0.5272
-0.00338
0.4512
0.02254
0.4402
0.0001049
0.04048
0.08923
0.6701
0.3924
0.01931
-0.001106
-0.5178
-0.1096
-0.5884
0.1378
0.2522
0.3967
0.1966
-0.08258
0.003825
0.1596
-0.4158
0.07071
0.1376
0.04275
-0.5366
-0.001563
0.01055
0.4119
0.3292
0.1279
0.1081
0.04075
-0.02959
0.001329
0.8239
-0.0005103
-0.0005023
0.1106
0.1343
-0.1744
0.1859
0.1389
0.1721
0.2315
0.1746
-0.01275
-0.008942
0.2554
0.389
0.1442
0.1246
0.1194
0.6144
0.0002702
0.8375
0.04643
0.00174
0.3011
0.2053
0.05501
-0.4787
0.1046
0.07436
0.05482
-0.001213
1.647
0.3603
0.003051
0.1461
0.155
0.1193
0.2537
0.1003
0.04868
0.02513
0.4126
0.1469
3.187e-05
0.2887
0.047
0.005078
-0.02531
-0.07865
0.9474
0.9661
0.1081
-0.007364
-0.379
0.07985
0.1784
0.06309
0.212
-0.01561
-0.6213
0.01084
0.06164
0.1395
-0.4304
7.471e-05
0.007158
-0.01766
0.3553
-0.0458
0.3293
0.9284
0.1611
0.2119
0.05317
0.5674
0.2395
3.955e-06
0.01447
0.0293
0.1369
0.07318
0.0898
0.03755
0.0009482
0.09491
0.1286
0.06009
-0.3408
-0.002313
0.06885
0.5013
0.1354
0.3706
0.8364
0.1493
-0.0001025
0.03643
1.172
0.03663
0.1505
1.504
-0.5154
0.08665
0.06052
-0.05824
0.2723
-0.5227
0.00776
-0.01035
0.0407
0.03311
1.908
-0.09172
0.3988
0.01169
0.6481
0.008381
0.5487
-0.003566
0.1394
0.08293
0.2627
0.03901
0.1912
0.3667
0.467
1.384
-9.615e-05
-0.02145
1.83
0.08219
-0.01108
3.19e-05
-1.364e-05
-0.3152
-0.03266
1.026
-0.002071
0.2845
0.0398
0.3253
0.04724
0.0628
-0.01402
-0.01271
0.08263
0.04241
0.3801
0.02554
-0.002966
0.001092
0.2366
0.1242
-0.005851
0.3365
0.03236
-0.06139
0.2309
0.01388
0.8316
0.0235
0.08215
0.1636
0.09699
-0.0001589
1.316
0.2775
0.07696
0.0358
1.458
0.0007076
0.07041
0.6906
0.1411
-0.00276
0.7361
0.04452
0.06173
0.04065
0.2504
0.03407
0.4776
0.02555
0.304
0.016
0.07699
0.0001037
-0.006618
0.09909
0.1548
0.3458
0.02898
0.0151
0.1447
0.08697
-0.5107
0.1042
-0.01771
0.1657
0.3713
8.243e-05
0.07113
0.4748
1.006
-0.01241
0.02396
0.0374
0.0001821
-0.1404
1.117
0.07657
0.0004723
-0.001688
0.02502
0.06171
0.04293
-0.002566
-0.0179
-0.2886
-0.01312
1.448
0.3063
-0.01069
0.6371
0.3637
0.3168
0.3789
0.0175
0.2545
0.3774
0.1585
-0.1088
0.5077
-0.07402
-0.0009106
0.1935
0.001435
-0.0163
-0.4227
0.6807
0.8918
0.001804
-0.01127
0.0004781
0.1051
0.01355
0.05107
0.09724
0.05935
0.7357
0.002685
-0.4627
-0.01237
0.1005
0.06105
0.005234
0.05345
-0.02094
-0.006187
0.06661
1.774
0.682
-0.3017
0.5436
0.486
0.06526
0.04147
0.1281
0.0273
0.1127
0.1994
0.0001706
0.06645
0.8349
-0.007271
0.03444
-0.01168
0.119
0.1226
0.05922
0.038
0.569
0.3181
0.03335
0.1422
0.1427
0.0008578
0.006778
0.04686
0.8177
1.629
0.9433
0.05886
0.1454
0.07488
0.6548
0.07574
0.04585
0.1525
0.00076
-0.07227
0.09646
1.244
0.1611
0.03399
0.001534
0.003381
0.9842
0.028
-0.03
0.002456
0.2133
-0.4343
0.1042
0.08283
0.01462
0.04866
0.659
0.8827
0.06632
1.773
0.004222
0.1026
0.07705
0.0794
0.09205
0.006856
-0.003106
0.1081
-0.007338