/*--------------------------------*- C++ -*----------------------------------*\
| =========                 |                                                 |
| \\      /  F ield         | OpenFOAM: The Open Source CFD Toolbox           |
|  \\    /   O peration     | Version:  v2012                                 |
|   \\  /    A nd           | Website:  www.openfoam.com                      |
|    \\/     M anipulation  |                                                 |
\*---------------------------------------------------------------------------*/
FoamFile
{
    version     2.0;
    format      ascii;
    class       volScalarField;
    location    "5";
    object      epsilon;
}
// * * * * * * * * * * * * * * * * * * * * * * * * * * * * * * * * * * * * * //

dimensions      [0 2 -3 0 0 0 0];


internalField   nonuniform List<scalar> 
100503
(
1.923
7.167
38.92
32.78
5.905
1.541
20.38
55.05
581.4
3.721
13.02
1089
329.5
379.7
132.6
260.8
222.3
17.98
25.01
301.8
13.05
13
1.413
9.419
34.49
9.81
9.953
1.087
0.1533
9.361
2.657
0.5908
0.561
0.6219
0.03575
0.03313
0.6253
0.007709
1.615e-06
0.1468
0.2206
1.743e-06
1.943
0.04116
1.308
0.01109
2.82e-05
1.271
0.1247
1.115
0.08729
0.2896
0.003371
0.2916
0.03994
2.474
0.07266
0.01148
0.1832
0.09954
1.782e-06
0.5184
0.2
0.9402
5.582
0.04344
1.654e-06
0.03908
320.3
0.3949
0.05438
0.1402
0.01015
1.075
0.01084
0.2096
0.0525
1.631e-06
1.613e-06
0.86
1.574
0.1488
0.007087
1.732e-06
0.01277
1.614e-06
0.013
0.04541
1.002
2.915
0.03243
0.006411
0.0258
1.744e-06
1.915e-06
0.2916
0.01388
0.07142
1.629e-06
1.611e-06
0.01066
9.862
0.12
0.1328
0.00313
1.93e-06
0.02773
3.263
0.001367
0.2114
1.001
0.03629
0.3926
0.06515
0.01149
0.2513
0.01087
0.09219
0.2487
4.985e-06
0.006362
0.09982
0.2125
0.3776
0.4048
0.7737
0.01075
0.005864
0.2054
0.6877
0.1203
0.06124
1.409e-06
2.178e-06
0.2601
0.03776
0.192
0.03101
0.03893
0.01922
1.896e-06
0.006173
0.127
0.003241
0.05983
0.3636
0.001307
0.1084
0.2858
1.901e-06
2.488
0.5088
1.723e-06
1.624e-06
0.2046
23.88
3.064e-06
0.009356
2.253e-05
0.3192
0.5383
0.8461
0.2555
0.02481
2.234e-05
0.1605
0.2878
1.715e-06
1.926e-06
0.008196
0.05155
0.0687
0.04105
0.6653
2.05e-06
8.915
0.1236
1.627e-06
0.007388
7.858e-05
0.1023
0.02411
0.04686
0.1424
0.007322
0.1082
1.432e-06
0.686
0.1974
3.087
0.001054
0.1395
0.08604
1.931e-06
0.04155
0.006804
2.176e-06
5.676
7.23e-06
1.15
0.06693
0.9225
0.8905
0.03152
1.131
0.05877
0.08901
0.2734
0.1189
0.2013
0.04515
0.3216
4.995
0.01089
0.02357
0.0143
0.05434
1.937e-06
0.1725
0.379
0.02031
0.01772
1.614e-06
0.1912
2.184
43.23
1.658
3.103
0.06524
3.463e-06
0.1241
0.2084
3.984
0.00599
0.007904
0.1173
0.06239
1.774e-06
7.096
0.03939
2.445
0.0759
0.4023
0.005131
0.0003031
1.627e-06
0.01528
1.826e-06
8.144
0.9146
1.951e-06
1.436
2.19e-06
0.002045
1.923e-06
0.008153
0.08045
2.424
0.01116
0.02849
2.576
0.2487
1.624e-06
0.08073
0.07088
0.07437
0.1709
0.0117
2.113e-05
0.0003333
0.6536
0.001941
0.1928
0.03793
0.3414
1.662
0.09991
2.06e-06
0.2099
2.526
0.1333
0.1612
1.315e-06
0.01759
0.2711
1.914e-06
0.3663
1.278e-06
1.41e-06
0.2839
0.01112
7.952e-06
1.922e-06
0.06157
0.1863
1.98
9.444e-05
3.275e-06
0.2749
0.01011
0.1397
0.04827
2.65e-06
0.003446
0.08652
0.2079
0.2761
0.1513
3.507e-06
1.74e-06
0.1031
0.1884
5.4
2.31
3.315e-05
0.1306
0.02449
2.853e-06
3.174e-06
0.006143
7.51e-05
0.04944
0.3589
0.01258
0.1703
1.955e-06
0.0368
0.2623
0.004187
0.3656
0.006463
0.3715
0.07208
1.628e-06
0.7562
0.0002121
0.007685
1.881e-06
3.347e-06
0.005506
1.629e-06
1.243e-06
0.638
0.03945
0.09782
1.616e-06
0.01478
0.02691
6.253
0.1989
0.1228
0.01777
0.1931
0.3634
0.1736
1.628e-06
1.622e-06
1.961e-06
0.303
0.1667
2.705e-06
0.3868
0.04438
0.3231
0.01786
7.239e-06
0.3986
0.1327
6.999e-06
2.675e-06
0.04707
0.03013
0.325
1.875e-06
0.07091
11.75
0.06181
2.035e-06
0.005269
0.07826
5.178e-06
0.01267
0.000294
0.005873
5.211
1.794e-06
0.0969
0.007924
0.09437
0.3404
2.2e-06
0.03467
0.3668
0.1732
0.0608
0.02439
0.254
1.923e-06
9.875
0.005456
0.02958
6.041
0.08456
0.01019
0.09691
0.4717
2.075e-06
0.003164
0.2259
7.506e-06
1.596
0.7926
0.000136
0.08434
1.388
1.277e-06
2.439
0.567
1.623e-06
0.008919
4.116e-06
0.9217
0.002083
0.02834
1.154
3.024e-05
0.01005
0.02937
0.1894
0.3018
2.424
0.1033
0.1984
1.907e-06
0.7211
4.213e-06
0.01891
0.009463
2.64e-06
20.23
0.0003284
0.009779
0.01384
6.889
0.02553
318.5
0.06147
0.1832
1.398e-06
0.0465
1.529
199.9
0.01203
2.7e-06
4.315
0.1155
1.256e-06
0.08042
0.03079
0.1577
0.1788
2.728e-06
11.59
0.7105
4.53e-06
0.6974
0.1437
0.01223
0.07176
0.02111
0.009207
0.07836
0.01864
0.0006401
4.524e-06
0.5488
0.1294
0.03942
0.1356
0.0962
0.000208
0.03049
0.06455
0.003342
1.58e-06
0.01661
4.008e-06
2.104e-06
1.959e-06
0.1072
0.1699
0.01236
2.063e-06
2.777e-06
0.01087
0.02474
0.0003081
0.1777
0.02631
1.873e-06
0.001788
1.786e-06
0.005403
0.08684
0.006277
3.08e-05
0.0003147
0.1987
2.67e-06
0.01408
1.629e-06
0.07568
4.034
0.5439
1.615e-06
1.922e-06
0.129
0.1021
0.1824
0.001165
0.0008462
0.2038
0.01492
0.02421
1.349e-06
0.00338
0.02318
1.856e-06
0.000368
0.02752
0.2967
0.1683
0.009429
9.115e-07
0.009392
0.02664
0.07985
2.563e-06
0.1764
0.0007882
1.531
0.1109
0.01128
0.01914
0.00997
0.01868
3.894e-06
0.1098
0.2652
1.347
0.9517
10.67
1.652e-06
0.08105
0.05004
0.1856
0.01218
0.1041
0.2434
0.002038
0.06721
0.2775
0.02425
0.04216
0.007996
0.0982
0.2041
0.1586
1.965e-06
1.551e-06
1.788e-06
0.01864
0.2414
1.689e-06
0.7596
0.01249
1.959e-06
0.1121
0.0348
1.404e-06
0.04044
1.634e-06
4.581e-06
0.2479
1.616e-06
0.02297
0.2197
0.02662
1.869e-06
0.1601
0.0346
0.4467
0.01354
2.195
3.713
0.07143
0.0319
0.01686
1.367e-06
0.04297
1.445e-06
0.07419
0.2285
0.006254
0.06995
0.1358
0.281
1.44e-06
1.764e-06
0.1336
0.01069
9.058e-07
0.5642
0.003592
0.0374
0.0001652
0.1658
0.189
0.4704
1.332e-06
0.2468
2.397
0.007346
0.00415
1.631e-06
0.02368
0.01708
0.009043
0.005842
0.186
2.323
1.6e-06
0.01398
0.01663
0.02664
1.821e-06
3.774
2.03e-06
0.1096
0.008939
1.771e-06
0.01572
0.05008
0.06631
1.46
0.2686
0.01425
0.1018
0.0002958
0.06928
0.336
0.02465
1.908e-06
0.0003271
0.0193
1.43e-06
0.01874
1.79e-06
6.795e-05
0.01151
1.78e-06
2.699e-05
0.0165
0.3413
1.67e-06
2.773e-06
0.03739
3.335e-05
0.0006115
0.4931
3.597
0.1671
0.0007785
0.08105
1.633e-06
0.1786
2.701
6.624e-05
1.101
2.522e-06
1.562e-06
0.009026
0.02527
0.1476
0.05413
0.03942
0.2477
0.08918
0.08592
0.01431
2.77e-06
0.05652
0.1205
0.9007
0.3078
0.1614
1.002
2.117e-06
1.836e-06
0.1031
0.08048
2.937
2.409e-06
0.1496
0.0568
2.794
7.006
1.893e-06
3.874
0.017
0.01212
0.04976
0.2124
1.622e-06
0.1962
0.02018
1.932
3.416e-06
0.09759
1.675e-06
1.024
0.05817
3.385e-06
7.918e-06
1.81e-06
0.4133
0.07015
0.1843
0.000177
0.04711
0.2696
0.1293
0.2642
0.2523
1.072e-06
1.377e-06
1.643e-06
29.92
1.585e-06
0.02996
0.0005166
0.01879
0.2382
0.09065
1.786
0.8846
0.04146
3.446
1.192
1.45e-06
0.06264
0.1827
1.175e-06
0.4555
0.05343
0.6428
0.01834
1.772e-06
0.208
0.02235
0.06141
0.0747
0.3621
3.644
0.8116
0.000313
0.6706
0.004504
0.3339
0.1522
0.03484
0.02576
0.05353
0.0007793
0.06186
1.652e-06
2.02e-06
1.547e-06
0.1317
1.797
0.07464
0.004493
0.004139
0.03013
0.03734
0.1534
0.1279
0.01348
1.567e-06
1.663e-06
0.1245
0.1286
1.543e-06
0.2272
0.1677
1.993e-06
0.1287
0.3345
0.4712
1.802e-06
0.142
7.851
0.0582
0.01109
29.47
0.279
0.119
1.087e-06
0.1296
0.01148
1.91e-06
2.914
2.089e-06
3.425e-06
0.06545
0.01457
0.00811
0.05694
1.058e-05
1.63e-06
0.009782
0.1391
2.357e-06
0.1204
0.00641
1.581e-06
0.1112
0.149
89.1
0.01233
3.274e-06
18.69
2.432e-06
0.7248
0.02476
0.0009411
0.01462
0.2484
0.529
0.01824
0.2143
3.365
0.06618
3.619
4.618
0.01584
0.816
2.33e-06
0.01283
0.1334
0.0982
0.004239
0.3716
1.679e-06
1.116
0.5458
0.02817
0.06898
1.608e-06
0.003508
0.2022
0.07601
3.087
0.008728
0.07808
0.2784
0.00555
2.018e-06
0.04148
0.1978
1.628e-06
1.631e-06
0.02347
0.06791
0.01696
0.08725
0.0161
0.01185
1.671e-06
1.915e-06
0.1569
0.1021
1.671
6.4e-06
0.003376
9.854e-07
1.631e-06
1.941e-06
0.1277
0.06556
0.01717
0.1576
0.006519
0.1795
2.193e-06
0.3194
0.02796
4.833e-05
1.661
1.751e-06
0.1938
2.123e-06
1.574
1.631e-06
2.493e-06
0.6447
0.2918
8.631
0.1086
0.237
0.1899
0.0728
0.006189
0.0332
1.461e-05
2.36e-06
0.2503
0.1874
0.03724
0.2006
0.01261
0.7245
7.268
1.631e-06
9.034e-05
0.3242
1.041e-06
0.1998
2.164
0.06495
0.1227
0.1498
1.128e-06
1.837
0.04788
0.01323
1.603e-06
0.03777
0.006261
0.1513
0.1365
0.05671
0.005866
0.9782
0.06275
0.6162
0.02691
9.031e-05
0.6518
1.908e-06
1.855e-06
1.034e-06
0.03964
0.06203
0.008653
0.01385
0.007369
0.08414
0.002615
0.06125
0.01963
2.583e-05
0.05533
0.03368
0.009131
0.318
3.649
2.028e-06
0.007848
1.934e-06
0.04327
0.4298
0.04235
0.05179
0.03392
0.02398
0.0003397
0.00638
0.01299
1.14
2.272e-06
0.08113
0.07871
0.07908
0.1112
1.254
0.006012
0.08887
0.01182
2.673e-06
3.007
0.01302
1.977e-06
0.01215
0.1003
0.01408
1.624e-06
1.629e-06
2.143e-06
0.1372
0.08505
0.02546
0.7902
0.0152
0.004625
0.006058
0.0002926
0.637
0.0525
0.3811
0.1589
1.81e-06
0.4475
0.01767
3.595
1.767e-06
0.195
0.09397
0.2418
0.1915
2.273e-06
1.958e-06
0.4367
7.221e-06
0.1049
0.2199
0.03665
0.002517
0.1926
0.276
2.638e-06
0.1176
0.08598
1.624e-06
1.806e-06
0.1542
0.00685
0.03655
0.05548
0.04756
7.899
0.107
0.007248
1.332e-05
0.02923
0.1964
0.03222
0.1962
0.3113
0.1617
0.01559
0.01857
3.376e-06
1.155e-06
1.004e-06
0.1353
2.135
5.047
0.01602
0.001704
2.536e-06
0.1434
0.002657
0.02993
0.126
0.1861
2.002e-06
0.0001266
6.794e-05
9.431e-06
0.1337
0.0002762
0.2047
0.08887
0.001284
0.02429
0.01128
0.01055
9.497
1.982e-06
0.06301
0.07775
5.66
0.1769
0.05336
0.03002
0.03216
0.02651
0.006186
0.01434
3.32e-06
0.002015
0.4627
0.1158
3.532e-06
0.002494
0.03931
0.02557
0.04838
0.01028
3.08e-05
0.1557
0.001243
0.006172
6.148
0.01745
17.71
0.0002258
1.632e-06
2.857
2.024e-06
1.878e-06
0.751
0.03481
6.36
2.749e-06
0.1423
0.003528
9.3e-07
0.008254
0.01834
1.383e-06
2.387e-06
0.1446
0.1473
0.09295
0.01538
0.2802
1.624e-06
3.623
0.01628
0.00646
0.01638
0.02387
2.421e-06
0.04055
4.834e-06
2.671
8.232e-06
0.2968
1.423
0.08913
1.773e-06
1.936e-06
0.2527
0.008806
0.8649
0.3438
2.832e-06
0.2844
1.54e-06
0.05142
2.055e-06
0.002747
0.4695
2.427
1.542e-06
0.03472
0.1537
0.003268
0.4181
1.69e-06
2.395e-06
1.633e-06
0.03206
0.01198
0.09915
0.09547
6.268e-06
0.7817
2.706e-06
0.3278
0.008159
0.03867
0.0112
0.1132
1.618e-06
4e-05
0.1715
0.176
0.0421
1.518
2.878e-06
2.194
0.09488
0.1294
0.03921
1.546e-06
0.3119
0.0004562
1.813e-06
0.07203
1.116e-05
1.711e-06
4.288
0.03157
4.993e-06
9.787e-07
0.004505
0.01787
0.02286
0.6053
1.629e-06
0.2915
0.5773
0.009438
0.00952
0.001784
0.558
0.08671
0.8491
6.488e-05
0.00634
0.01107
0.0388
0.1044
1.507e-06
0.6574
0.0202
0.1034
0.02433
0.00182
0.001273
0.2228
0.001032
0.007302
1.714
0.04553
1.618e-06
3.29e-06
0.1165
0.0154
2.118e-06
6.868
0.01017
6.879e-05
0.577
0.05134
0.02284
0.002735
5.553e-05
0.4181
6.667
2.274e-06
0.741
0.1972
0.5395
2.149e-06
0.04909
0.02186
1.747e-06
0.1015
1.876e-06
0.6292
0.09478
0.1383
1.62e-06
0.5524
0.3701
2.445e-06
1.518e-06
1.627e-06
1.724e-06
0.04295
0.2727
4.451
1.622
0.01682
0.9071
0.005796
0.06648
0.1366
0.2808
0.01268
0.6418
0.04005
0.01066
0.09104
0.1189
1.382e-06
1.664e-06
0.108
0.06435
0.07398
0.8841
0.07691
0.01622
1.692e-06
2.842e-05
0.1977
0.2691
0.06826
0.4114
0.009443
0.18
0.006003
1.504e-06
2.085
0.02433
0.1124
1.618e-06
0.6465
0.5467
2.626e-06
2.059
1.804
0.1008
0.8852
0.1905
1.916e-06
0.1916
0.03447
0.2554
0.1959
0.01229
0.3805
0.1453
1.668e-06
0.01847
0.08046
1.626e-06
0.03
0.01339
1.092e-06
0.1305
1.62e-06
0.003112
0.1432
8.307e-05
0.1125
2.454e-06
1.619e-06
1.581e-06
33.16
0.006416
0.08009
0.007649
0.1478
5.235
0.181
0.09479
0.0008921
0.03769
0.06293
0.06042
2.405e-06
0.01276
0.1431
0.00417
8.456
4.523e-06
1.252e-05
0.09438
0.1359
0.05305
0.2688
0.04204
1.382e-06
0.04907
1.708e-06
2.442
0.7726
1.963e-06
0.1046
0.155
0.007234
0.004347
0.1672
0.02977
0.4441
0.1034
0.02218
0.455
0.1505
0.2023
5.048
0.007547
0.06851
0.002117
0.1576
0.1037
0.01217
0.2888
0.1884
1.472e-06
0.8263
0.009483
0.09929
6.311e-05
0.05987
0.07127
56.96
2.653e-06
1.048e-06
0.03919
1.519
1.616e-06
0.1588
0.1096
2.26
0.05647
0.1804
0.1998
0.03728
0.1411
0.3263
0.8
0.09779
0.4843
12.7
0.1536
0.04793
17.84
0.1254
1.694
2.1e-06
0.7108
0.07479
0.2707
0.02217
2.002e-06
0.05569
0.1739
0.03831
0.0119
0.05193
0.0294
0.1123
0.2448
0.007081
1.802
0.2341
1.874e-06
0.006521
0.6718
0.1775
0.01832
1.105e-06
1.337e-06
0.002052
1.099
1.64e-06
0.8636
0.1425
0.03395
0.03623
0.117
0.6184
0.2518
0.05168
0.07329
2.296
0.01255
0.188
0.07193
1.744e-06
2.285e-06
0.08238
0.008847
0.1831
0.05334
0.2003
0.08981
0.1726
1.628e-06
0.1219
3.592e-06
0.4375
0.01102
0.1951
1.669e-06
0.07074
5.299e-05
0.1638
0.02639
2.898e-05
0.03571
0.01398
0.2174
0.6176
0.0001111
1.92e-06
0.03461
0.2655
0.1565
4.484e-06
0.0336
0.009566
1.667e-06
0.0358
0.01995
1.628e-06
0.09199
0.2073
0.05133
0.145
1.187e-06
0.01929
2.223e-06
0.01135
0.01327
0.0434
0.1537
0.08712
1.904e-06
0.6502
0.07818
0.0838
0.0941
0.3509
0.02942
5.092
0.5553
0.07835
1.578e-06
0.1598
0.004661
0.09616
1.66
0.0003518
6.744e-06
0.1347
7.043
1.255e-06
0.001312
0.1062
3.603e-06
0.006091
0.346
0.02449
0.1117
0.01647
0.1257
5.029
0.009861
0.1767
0.007194
0.01161
11.95
1.905e-06
3.482e-06
0.02637
0.07443
0.1112
2.2e-06
1.638e-06
0.001052
1.945e-06
0.07957
1.628e-06
0.01798
0.0184
0.1055
0.2718
2.042e-06
4.647e-06
0.003214
0.4712
2.786
0.2805
0.01976
0.01117
0.00133
0.01703
0.001021
0.1207
0.3551
0.01846
2.795
0.009549
0.1234
1.074
0.1796
0.02051
0.1411
0.00126
0.03449
0.0176
5.906
0.1286
0.0652
0.005678
11.5
0.06413
0.1545
0.1561
0.03694
0.1506
0.008278
0.03294
0.01423
0.01381
0.008666
0.02129
0.09138
3.288
0.09983
1.55
0.0004017
1.903e-06
0.179
1.24
0.4292
1.56e-06
0.1849
0.03381
2.533e-06
0.01158
0.06366
0.1337
0.08548
0.01364
0.181
0.2611
1.059e-06
3.621e-06
0.7144
0.008468
0.01692
2.722e-06
0.5993
0.0876
0.1831
1.731e-06
1.593e-06
2.535e-06
0.1102
0.06829
0.001134
0.1204
0.1212
1.687e-06
0.1179
0.004102
2.369e-06
2.179e-06
1.98e-06
1.923e-06
0.1415
0.06458
0.01769
0.0001883
0.01693
0.02494
0.0101
0.07879
102.8
0.02252
0.18
0.06724
1.052
0.0002656
0.08894
3.738e-06
0.0006479
0.5608
0.4543
0.01746
1.503
0.266
1.596e-06
0.01594
0.1006
0.04503
2.771
2.362e-06
0.009015
0.01012
0.01766
6.83
0.1385
0.6551
0.0001631
2.134e-06
0.01065
0.2669
0.07182
0.007207
0.1035
0.000546
5.318e-06
0.2472
0.1542
1.464
0.446
0.02442
0.003339
1.787e-06
4.673
0.04537
1.058
1.89e-06
0.05041
7.263e-06
2.012e-06
2.235e-06
0.04459
1.359e-06
0.2586
0.01596
0.08749
0.2367
0.03059
0.5253
0.1312
0.04664
0.2896
0.0824
0.005851
0.02058
0.4089
0.01086
3.582
1.753
0.0003042
2.051e-06
0.00468
0.7402
0.008908
0.0124
0.1579
0.02999
0.1904
0.05265
0.8722
2.547e-06
0.1604
1.141
0.3977
0.04936
0.09698
0.01506
0.001814
0.6987
0.0519
3.02
0.03929
0.03383
0.1896
0.06571
0.2077
0.07631
1.503e-06
0.535
0.1866
0.71
3.327
0.1166
0.8657
0.2687
0.03219
1.111
0.05229
1.629e-06
0.02427
3.295e-06
0.01206
0.4808
1.608e-06
0.01563
2.212e-06
0.09331
0.2009
5.489
0.005727
1.77e-06
0.4261
0.6206
0.2786
0.7182
0.01003
0.08059
2.221e-06
0.015
1.631e-06
0.006526
0.005126
0.1872
0.007331
1.675e-06
0.08156
0.07103
0.003392
0.1041
0.06621
0.004067
3.892
0.05436
0.006062
0.5308
0.09158
0.06614
0.1828
0.01207
5.197e-06
1.619e-06
5.471
1.367
1.915e-06
0.03149
0.1692
0.6632
0.0987
0.0008058
0.5546
2.618e-06
0.2577
0.01529
1.05
0.1662
1.625e-06
0.02865
0.01468
0.1465
2.503e-06
0.4181
1.052e-06
0.008751
0.02177
3.1e-06
0.46
0.3106
0.01547
1.377
1.598e-06
0.1259
0.1136
1.539
0.1262
1.625e-06
0.1128
1.628e-06
1.619e-06
0.7797
4.414e-06
2.167
0.8024
0.00599
0.1429
1.998e-06
2.012e-06
1.148
0.1197
0.9147
1.472
0.2663
1.936e-06
6.289
2.427e-06
0.03161
0.004335
0.959
2.488e-06
0.02595
0.02223
1.313e-06
1.941e-06
2.649e-06
1.319e-06
1.523e-06
0.09408
2.572e-06
0.0001366
0.005692
0.01351
0.02021
0.02169
0.5295
0.152
1.661
1.595e-06
0.08074
0.04319
2.59e-06
4.312
3.664e-06
0.1288
0.5541
0.4663
1.615e-06
1.616e-06
1.935e-06
1.421
0.07744
1.198e-06
0.02995
0.0552
0.02511
0.1023
0.03497
0.008691
1.624e-06
0.1223
0.1366
2.323
0.03732
1.657e-06
0.1766
0.002262
0.01606
1.56e-05
0.04631
0.1528
4.073e-06
0.000993
0.4968
0.1238
0.01423
0.5524
1.235e-06
0.0218
0.006082
0.1587
0.4344
2.204e-06
3.564
1.132
1.02e-06
1.001
0.0001257
0.3735
0.005783
0.01268
0.169
0.107
0.1928
4.662e-06
0.02215
0.01549
1.072e-06
0.0001267
11.68
0.007563
0.1419
0.009101
0.05812
0.4771
1.653e-06
0.6072
0.1535
1.016
1.749e-06
1.545e-06
0.03788
0.054
0.2173
6.188e-06
0.4761
0.02045
0.007962
0.05922
0.02273
1.723e-06
0.1795
3.808e-06
0.0867
3.597e-06
0.2004
0.001567
0.2942
1.934e-06
0.005253
4.847
8.789
0.01184
0.1179
0.2239
1.391
0.06777
2.245
1.986e-06
0.008822
1.627e-06
2.671e-06
0.3194
0.03519
0.01077
0.07815
1.627e-06
0.126
2.902
0.05493
0.1008
1.651e-06
0.04419
0.0009664
0.9242
0.01387
0.25
0.01946
0.6302
0.133
1.684
0.07543
0.2206
0.0448
0.01546
0.09289
0.3123
1.631e-06
4.755
0.0329
0.365
0.08228
0.005924
0.009281
0.01113
0.01049
1.729e-06
1.619e-06
0.006126
9.376e-06
1.65e-06
1.542e-06
0.07837
2.739
1.625e-06
1.763e-06
0.0004293
2.001e-06
0.05508
0.04609
1.649
3.822
3.805
0.1176
0.008737
0.07832
0.007445
0.16
2.426e-06
10.89
0.0001626
0.2692
0.02763
0.1445
2.339e-06
0.2622
0.02678
0.1004
0.001455
0.2373
0.1602
0.1618
0.2234
1.819e-06
0.6739
1.951e-06
0.127
0.04018
0.0002866
0.00165
0.0822
3.234e-06
0.0001311
0.003759
0.1798
0.00629
0.2565
0.4538
0.3238
1.43e-06
4.76e-06
6.94
1.627e-06
2.787e-06
0.001631
0.03209
0.01065
0.3769
2.186
2.351e-06
2.335e-06
0.07495
0.1297
1.352
2.116e-06
0.1569
1.592e-06
0.0002149
2.008
0.1421
3.136e-06
0.1005
0.1458
1.454e-06
3.393
1.3
1.951e-06
0.01879
0.2014
0.06369
0.03285
3.36
0.2238
0.7821
0.2426
2.398e-06
0.008543
0.05697
0.006248
0.03385
0.01369
3.39
0.005267
0.2225
1.876e-06
0.005056
0.001035
0.005983
0.05599
0.06622
0.2147
2.576e-05
0.1742
1.623e-06
1.869e-06
2.209e-06
0.3318
5.12
0.4274
0.04943
4.57e-06
0.1554
0.01998
0.006231
0.2288
0.09056
4.446
1.521e-06
0.04162
0.1051
0.02696
0.0111
0.009096
1.598e-06
0.3498
0.5411
0.6055
6.709
40.41
0.01694
0.006475
0.0941
1.26e-05
0.3227
1.73e-06
0.1418
0.008625
0.4951
1.602
0.5258
3.653
0.6774
0.152
0.2285
3.717
0.1825
0.1562
0.05137
0.04388
0.0008684
0.6309
0.02265
1.232e-05
0.05589
5.139e-06
0.1376
0.0001995
0.0001977
0.139
0.1227
0.06641
0.2303
0.1528
0.1293
1.884e-06
0.006696
1.863e-06
15.64
0.0098
0.233
0.1541
0.1754
0.05026
4.5
0.06617
0.05835
1.642e-06
0.6424
0.02592
0.06202
0.03048
0.01037
0.01032
0.3699
0.09814
0.01187
0.1042
1.781e-06
2.086e-06
0.0001087
0.2415
1.621e-06
1.369e-06
0.103
0.1482
3.034e-05
0.3546
6.573
0.08454
2.761e-06
0.04071
0.02969
0.2309
0.00592
0.205
0.1202
1.602e-06
0.2568
0.0129
2.852e-06
0.8483
1.605e-06
2.229e-06
0.3319
0.8445
0.1075
0.1775
1.082e-06
0.1115
0.02143
0.2198
1.654e-06
0.7206
0.1241
1.646e-06
0.1498
1.652e-06
1.615e-06
0.2017
0.132
1.604e-06
1.649e-06
1.627e-06
3.354e-06
0.003231
0.1848
0.2484
0.1269
0.006473
0.1697
0.1879
1.11e-06
0.0181
7.344
0.01986
1.821e-06
0.1977
0.5441
0.1355
1.841e-06
0.03125
0.8295
0.04198
0.03993
0.04791
0.03868
0.0184
0.0244
0.1146
1.551e-06
0.02851
1.961e-06
0.03999
0.122
0.01042
0.03605
10.72
3.187
1.623e-06
2.338e-06
0.1077
0.2801
1.214e-06
0.1485
2.098e-06
1.792e-06
6.247e-06
2.013
0.008208
4.708e-06
0.005681
0.0006007
5.066
3.367e-06
0.008494
2.5e-06
0.0006505
0.08354
1.62e-06
1.087
0.04846
0.01307
0.1446
0.1313
2.22
0.01877
1.956
0.01553
0.096
0.1272
4.072
0.2789
0.07321
1.9
0.0001405
1.843e-06
1.633e-06
4.211
1.336e-06
0.01172
0.3158
3.729
0.1103
0.02602
0.00723
0.002452
1.843e-06
0.3595
0.1491
0.1193
0.06829
1.402e-06
0.2228
0.117
0.0509
0.3376
0.1189
0.0364
5.028
0.1319
0.0005557
5.211
0.151
0.0531
0.2585
1.708
0.003993
0.3634
1.598e-06
0.3696
1.906e-06
1.621e-06
0.03792
0.01822
2.683
0.0003625
2.452
0.1325
0.009388
0.03622
0.03459
0.2405
0.03729
0.5846
0.02063
4.272e-05
0.01081
0.001244
0.0128
1.62e-06
0.2487
0.007154
9.787
0.1034
0.146
3.645e-06
2.425e-06
0.1993
1.153
0.1541
0.175
0.00946
1.673e-06
0.05155
0.1832
0.0002765
0.1234
0.0662
0.04938
0.3583
0.1881
0.07591
1.666e-06
0.2101
0.9202
0.001522
0.2568
0.2024
3.649e-06
0.04067
0.0009416
5.224
0.0353
4.404e-06
2.883e-06
2.101e-06
1.567
0.1415
0.004861
0.1899
0.009707
0.1175
2.113e-06
1.176e-05
2.053e-06
0.4747
5.124e-06
0.01105
3.711
0.4745
0.03104
3.145e-06
3.235e-06
0.2952
0.01942
1.735e-06
0.3032
0.08906
0.4157
0.05409
0.5395
0.2542
0.07277
0.09817
0.1241
1.898e-06
3.136e-05
0.03846
0.2375
1.524e-06
0.1033
0.07186
1.888
0.1163
0.2364
3.88e-06
3.908e-06
0.01687
0.224
0.2224
0.04127
0.1059
0.03561
0.2448
1.127e-06
0.1103
0.0961
1.284e-05
1.542e-06
0.08939
2.104e-06
1.67e-06
0.4453
0.0858
0.2132
0.12
0.2081
1.87
0.09705
2.343e-06
0.002613
1.621e-06
0.04209
0.1025
4.092
0.01261
1.696e-06
0.04891
0.2194
0.05979
0.1284
1.99
0.03295
0.6157
1.944e-05
1.861
1.637e-06
1.648e-06
1.381e-05
0.001154
0.2503
0.1284
372.5
0.2726
1.851
0.01634
11.78
0.1037
0.01382
0.2235
0.1415
0.108
0.006469
1.621e-06
2.46e-06
1.623e-06
0.8195
1.998e-06
0.07762
3.029
0.107
0.217
1.964
0.031
0.1917
0.3127
0.1647
2.017e-06
0.2237
0.02172
4.166e-06
1.331e-06
4.81e-05
5.521
0.03172
0.1115
0.02854
0.03766
0.02271
0.1151
0.07839
0.8776
2.182e-06
0.1541
1.631e-06
1.62e-06
0.00301
0.01088
0.00606
1.729e-06
0.02273
0.3249
0.03171
0.02706
2.262e-06
1.837e-06
0.07726
0.2195
0.1961
8.76e-06
0.2906
0.6941
86.04
0.1398
1.62e-06
0.2954
0.02403
0.1447
2.034e-06
0.1867
0.09737
0.927
0.06024
0.1765
0.02088
2.251e-06
0.07985
0.0873
0.009113
42.42
1.528e-06
0.09201
7.233e-05
1.967e-06
0.1177
0.1863
0.1266
0.1546
0.001846
0.1327
0.0004765
0.05204
103.6
0.008155
0.08213
0.058
3.475e-06
2.045e-06
0.07815
0.2786
1.548
0.1709
0.3264
0.01599
5.817
1.612e-06
2.88e-06
0.2914
0.01629
0.0119
2.155
0.02505
0.2023
0.0006794
0.007659
0.4093
0.007055
0.1852
2.921
0.01584
2.217
5.276e-06
1.79e-06
0.01587
0.0001119
0.04258
0.1057
1.094e-06
0.0002911
0.01036
3.707
0.4641
1.602e-06
2.216e-06
1.388e-06
0.2967
4.114e-06
3.652e-06
1.596e-06
0.2648
0.04685
0.1803
0.1541
0.08095
0.1186
0.1401
0.1701
0.1404
2.563
0.3612
0.007811
0.003216
0.01929
2.387e-06
0.1697
1.365
0.006698
12.81
0.1374
0.09435
0.03905
0.1128
0.03685
0.3072
0.03434
1.754e-06
2.773e-06
0.06189
0.118
0.5487
2.418
0.3508
0.04512
5.335e-05
0.2989
0.942
1.628e-06
0.09612
0.1295
0.06528
1.239e-06
2.856e-06
0.1842
0.7763
0.006878
1.897e-06
0.008911
3.319e-06
3.699e-05
4.026
0.08075
0.003872
0.009793
0.2416
2.233
0.3465
93.19
1.029
0.01289
2.406e-06
0.01841
1.916e-06
0.1506
1.596e-06
0.06712
0.9289
2.049e-05
2.052e-06
0.103
2.112
0.2637
0.0002938
1.479
1.078e-05
0.07353
1.062
0.009488
2.019e-06
0.1049
0.1156
0.01087
0.3633
1.522
6.327
2.119e-06
0.007636
4.527
0.0506
2.557e-06
0.001216
1.25e-06
2.587
0.008626
0.3306
0.06575
0.005649
0.0015
2.278e-06
2.454
0.2184
0.128
2.127e-06
1.606e-06
0.2764
0.3222
0.07273
2.835
0.5216
0.001702
1.663
1.713e-06
10.5
0.01429
5.533
0.1066
1.654e-06
0.1247
3.287e-06
1.01e-06
0.0652
0.008785
0.008887
0.01042
0.2897
0.2066
0.02901
1.804
0.008782
0.1305
1.299
0.006714
0.02768
0.1086
1.969
0.00287
0.038
2.683e-06
0.06752
1.736e-06
0.3283
0.1325
2.46e-06
1.186
0.01699
0.538
36.54
0.04217
0.009596
0.06879
0.1074
1.627e-06
0.02255
0.123
0.1866
0.1886
0.01116
0.04401
0.008489
0.05522
0.2097
1.907e-06
0.1208
0.1166
0.1714
0.154
0.6492
0.0006239
2.793
0.5809
0.08536
7.116
0.2116
0.1984
0.046
0.1837
0.08519
0.008926
0.2676
1.055e-06
0.08838
0.1239
0.04618
3.846e-05
0.124
0.5192
0.1363
0.2254
6.921
0.05455
0.08546
0.02867
0.01068
2.614
2.956e-05
0.03413
0.5104
1.942e-06
3.102
1.854e-06
0.1841
0.4249
0.9599
0.04378
2.304
0.1095
0.1433
0.251
0.01618
0.02978
0.1709
3.769
0.00607
1.047
0.4337
0.4084
0.01136
0.1283
1.054
0.008676
0.1248
6.9
2.31
1.626e-06
0.08115
7.199e-06
0.3158
0.02396
1.905e-06
0.2062
0.1266
2.25e-06
0.006214
1.886e-06
0.01258
2.201e-06
0.005845
0.05108
0.2098
0.06198
2.874
0.001147
0.001182
0.1993
0.1607
0.02267
0.3567
0.1819
0.01229
0.1701
1.887e-06
2.302e-06
4.152e-06
0.1263
1.629e-06
0.182
0.2541
0.005717
0.0005917
0.364
0.1247
0.2836
0.2718
3.347e-06
1.63e-06
0.4178
0.02399
0.01068
0.1293
1.664e-06
2.603e-06
1.661e-06
0.05048
0.4422
0.01492
0.1266
0.04637
0.1186
0.119
2.677e-06
0.01755
0.006826
0.369
0.6028
0.01437
0.2486
0.4115
0.02758
2.9e-06
1.566e-05
0.06235
0.008222
0.126
0.5836
0.001191
5.601
1.968
2.259e-06
0.3478
0.08365
0.06812
2.872e-06
2.456e-06
0.01816
0.001874
0.2147
0.6133
0.0509
0.007443
0.02951
0.1364
1.524e-06
0.2428
0.06689
0.1236
1.605e-06
0.009315
6.812e-05
0.1663
0.2925
0.0672
0.4975
0.107
0.2296
0.01235
0.05479
0.2586
0.006305
1.544e-06
0.08018
0.01362
0.05131
1.606e-06
2.71
1.629e-06
0.1327
0.9094
0.007787
0.001438
11.78
0.3919
1.912e-06
0.01284
0.7905
2.257e-06
1.551e-06
2.312e-06
0.4721
0.1432
3.931
0.07157
2.232e-06
2.656e-06
0.02414
0.16
0.1273
0.5212
0.173
0.08642
0.449
2.458
0.2178
1.6e-06
0.1606
0.02108
3.468e-06
0.07727
0.0295
0.1593
0.01391
0.4424
4.867e-06
0.2206
0.1991
2.943e-06
0.04339
0.1433
0.1616
1.666e-06
0.163
3.678
0.05169
1.392
2.875
1.98
0.06081
0.05532
0.09066
3.104
3.858e-06
2.268e-06
1.928e-06
0.002499
0.2159
0.04843
15.09
2.036e-06
0.0151
0.1323
1.614e-06
0.01914
0.02246
0.07207
2.411e-06
6.957e-06
2.372
0.006043
0.00467
9.212e-06
0.07251
0.5504
1.42
0.03757
0.0788
3.663e-06
1.692e-06
0.8217
0.009748
1.103e-06
0.1267
0.02493
2.644e-06
0.005678
0.01616
0.1096
0.1098
1.613
0.2821
0.0001863
2.29e-06
0.02952
0.07602
1.848e-06
1.975
0.7867
3.779e-05
0.6165
0.1054
0.01885
0.009318
1.624e-06
0.3901
0.04015
0.005704
1.091e-06
0.01218
1.361e-06
0.8814
1.658e-06
1.911e-06
0.03579
0.1114
3.847
4.608e-05
3.206e-06
0.01446
31.19
0.1098
0.08451
2.707e-06
0.01144
0.3663
0.127
0.1005
74.34
0.7808
1.221
2.893
0.1075
0.06182
0.5626
0.1339
0.03989
20.5
0.02472
0.03268
0.0001683
2.115e-06
0.03474
1.728e-06
0.05905
0.1113
0.1297
1.871e-06
1.954e-06
0.007793
2.234e-06
0.02848
0.3724
0.1846
0.1355
1.059e-06
2.227e-06
0.2728
0.1711
0.06809
0.2608
1.991e-06
1.671e-06
0.01147
3.308e-06
0.0225
2.142e-06
0.3668
1.608e-06
1.821
0.1207
1.986e-06
1.604e-06
0.2295
0.001254
0.1285
0.1209
1.578e-06
0.0715
0.005658
0.2135
0.07077
0.1212
76.33
0.01719
1.552e-06
1.8e-06
2.666
0.03991
0.06728
0.03358
1.25e-06
0.1673
0.1874
0.011
0.1111
0.02758
0.4849
0.1723
2.145
0.006095
0.02103
0.02463
0.04857
0.0004664
2.835
1.63e-06
0.1692
2.455e-06
0.7591
0.6704
2.337e-06
1.022e-06
1.584
1.184
1.911e-06
0.04059
6.61
0.09737
0.02618
9.474e-07
0.0002145
0.4407
0.4331
0.5629
0.007613
0.01062
0.05729
4.516
2.982e-06
0.1164
0.03509
0.1114
0.1048
2.448e-06
0.01015
1.502e-06
0.00225
1.41e-06
0.01186
0.02008
0.07291
0.01704
2.74e-06
1.541e-06
0.02629
2.137
2.851
0.008037
1.595e-06
1.592e-06
0.1478
0.03885
2.118e-06
0.4779
1.058
0.3091
4.887
0.4646
1.572e-06
0.1355
0.04954
0.1971
0.2469
0.1914
0.006327
0.1737
0.009183
0.008075
0.2013
2.57
0.1861
0.01178
0.1871
0.2869
0.02627
0.203
4.044e-06
3.702e-06
0.009077
1.887e-06
0.04717
0.03277
0.001781
0.04891
0.916
3.718e-06
0.0006274
0.02386
0.0107
0.1519
1.962e-06
0.02255
0.008817
0.01325
0.1958
2.023
0.006316
2.24
0.3902
0.01188
0.653
1.886e-06
0.01227
0.03466
0.03835
0.003891
0.002272
0.1618
1.833e-06
0.1518
0.01611
0.3269
0.02271
1.759e-05
0.04332
41.43
0.0255
3.392e-06
0.0003019
0.0692
2.276e-06
2.189
0.04804
0.109
0.128
1.553e-06
0.3529
0.2573
0.422
26.27
0.8709
0.1433
1.613e-06
0.1469
0.1968
0.02566
2.214e-06
0.1053
0.01901
0.6172
0.03041
1.548e-06
0.05476
0.05818
3.873e-06
0.6991
9.044
0.0325
5.017e-06
0.0001112
0.6542
0.1984
0.003525
0.3134
0.1647
0.3909
0.0007733
0.08915
0.02411
0.01585
2.79
0.4347
0.005649
2.286e-06
0.1181
0.06852
0.04277
0.7725
0.03583
4.142e-06
0.01245
0.0598
0.8501
0.1203
0.09293
0.08695
0.03208
0.01343
0.04072
0.03082
0.02141
0.1538
0.4484
1.702e-06
1.295
0.02721
0.3696
0.09185
0.2724
0.06958
0.1293
1.628e-06
2.73
0.1485
22.94
0.2001
4.162
0.05198
9.992e-05
2.787
0.006127
0.1775
0.1024
2.87e-06
0.08828
0.2045
2.617
0.0209
0.1316
0.07134
1.785e-06
0.2289
0.1053
5.751e-05
0.02953
2.748
0.08997
3.104
0.004381
2.822e-06
0.01606
0.006523
0.4564
0.1077
0.05474
0.1892
2.183
8.223
0.0008083
0.1128
1.629e-06
0.01503
0.05369
0.01759
1.225e-06
0.0004926
0.5483
2.586e-06
6.034e-06
2.071
2.111
0.09337
0.5498
0.001103
0.04382
1.347e-06
1.661e-06
1.991
0.7777
2.829
3.427
0.03395
4.693e-05
2.832e-06
0.01783
0.002085
1.446e-06
0.00762
0.198
1.867e-06
0.006892
1.636e-06
0.6171
0.9609
2.187e-06
1.667e-06
0.04005
0.06272
0.119
1.548e-06
2.56
0.219
2.756e-06
1.484e-06
0.01325
0.01471
0.6655
0.07752
0.2284
2.364
0.7787
0.02768
0.1131
2.429e-06
1.043
0.1331
1.804e-06
1.822e-06
1.632e-06
1.63e-06
0.1868
1.739e-06
1.629e-06
0.115
0.05949
0.049
0.09552
6.433e-05
0.03131
1.017e-05
0.001309
0.01133
0.00186
0.08865
0.151
3.159
0.07443
0.02771
1.631e-06
1.577e-06
0.0415
0.2327
0.2146
0.2583
0.3617
0.01151
0.003886
34.94
0.0001384
3.002e-06
0.0276
0.5189
8.886
2.158e-06
0.2296
0.1055
0.07195
0.1846
3.78
0.6969
1.626e-06
0.1123
0.1283
0.03269
0.7354
0.007393
0.07417
0.09107
0.004188
0.06384
0.4799
0.1201
3.265
0.1682
4.115e-05
0.0001063
0.03235
0.008836
0.1598
0.1128
0.03696
2.404
3.148e-06
0.2373
0.3348
1.542e-06
2.638e-06
0.07339
1.53e-06
3.783e-06
0.1625
0.8216
4.746
0.1978
0.1494
0.2437
0.0145
0.06075
0.1678
0.00942
1.631e-06
0.08389
0.01368
0.008645
0.0002917
0.04648
0.05197
1.635e-06
9.358e-07
0.01138
0.09539
0.0008298
2.571e-06
0.1682
0.1036
0.05293
0.1655
3.403
2.054e-06
0.1011
0.248
1.326e-06
0.01797
0.255
0.01966
1.557e-06
0.01283
6.425
0.6273
0.9457
4.886e-05
0.1758
2.483e-06
0.1516
0.01274
0.08776
0.01113
0.0459
0.1829
0.017
0.1193
0.08128
0.3147
0.0006731
0.05729
0.3661
0.2787
0.06446
0.00699
3.701
0.1321
0.0816
0.4139
4.63e-05
0.0366
0.145
0.01885
0.2606
0.01423
0.2374
3.771e-05
1.787e-06
0.01132
0.2771
0.4189
1.919e-06
0.1378
0.008075
0.1562
0.05089
0.1414
0.1608
0.001173
0.1857
0.07982
2.091e-06
0.00679
0.1363
4.038
0.1852
0.1602
0.1204
0.01556
0.01942
3.173
3.305
0.01344
0.04916
1.205e-05
3.912e-06
0.01842
2.169
0.02591
0.01028
0.02201
2.021e-06
0.0009205
0.07675
1.629e-06
2.225
1.17
0.2735
0.3555
0.02682
0.7182
3.447
0.5785
0.01737
1.078e-06
0.1472
0.05963
0.02151
0.13
2.291e-06
0.04635
0.1082
0.005884
2.778e-06
0.003807
9.647e-06
0.317
1.168
0.5966
3.008
0.4116
0.0561
1.02
0.5154
0.0437
0.4059
0.06821
0.0153
0.09744
5.075
0.07046
4.887
0.0237
0.1307
4.303
1.614e-06
13.49