/*--------------------------------*- C++ -*----------------------------------*\
| =========                 |                                                 |
| \\      /  F ield         | OpenFOAM: The Open Source CFD Toolbox           |
|  \\    /   O peration     | Version:  v2012                                 |
|   \\  /    A nd           | Website:  www.openfoam.com                      |
|    \\/     M anipulation  |                                                 |
\*---------------------------------------------------------------------------*/
FoamFile
{
    version     2.0;
    format      ascii;
    class       volScalarField;
    location    "5";
    object      nut;
}
// * * * * * * * * * * * * * * * * * * * * * * * * * * * * * * * * * * * * * //

dimensions      [0 2 -1 0 0 0 0];


internalField   nonuniform List<scalar> 
100503
(
5.511e-08
5.095e-08
7.074e-08
1.155e-07
5.103e-08
5.9e-08
1.409e-07
1.17e-06
1.635e-06
8.903e-08
1.817e-06
1.875e-06
7.58e-06
7.947e-06
1.741e-06
4.027e-06
6.863e-06
1.941e-06
3.332e-07
8.485e-06
6.114e-06
6.107e-06
6.327e-08
1.35e-06
7.33e-08
6.28e-06
6.232e-06
0.0006092
5.061e-05
7.975e-08
5.423e-08
8.686e-05
9.971e-05
4.271e-06
0.0005542
0.0008364
4.167e-06
0.001995
48.35
5.573e-05
9.398e-06
0.0004552
1.609e-07
0.0003394
0.0005045
0.00138
0.001213
0.0004913
4.46e-05
0.0006103
5.619e-05
1.045e-05
0.002325
0.0001811
0.0003498
0.0002448
0.0001264
0.001568
5.699e-05
1.854e-05
0.0004573
0.0009243
1.555e-06
6.099e-06
5.192e-06
0.0002757
0.0004503
0.001831
5.83e-06
4.786e-05
0.0001702
0.0002461
0.0002549
0.000626
0.0003421
8.096e-06
4.176e-05
78.08
80.02
5.886e-06
0.0006315
5.921e-06
0.0003869
0.0004542
0.0002162
48.78
0.0007293
1.707e-05
4.998e-06
1.625e-05
0.001291
0.001521
0.001124
0.0004556
0.000453
2.258e-06
0.0001016
0.0001277
78.37
80.34
0.00136
8.123e-08
5.914e-05
1.769e-05
0.002349
0.0004539
0.0002991
6.912e-08
0.001144
1e-05
4.91e-06
0.000583
0.0001881
0.0001316
0.0004625
1.734e-06
0.001489
0.0001119
0.0004735
0.0006713
0.001107
0.0002029
1.413e-06
0.0002094
0.0003353
2.607e-06
0.000345
0.001328
1.104e-05
8.102e-07
0.000206
0.001351
0.0004461
0.0004955
0.0005739
0.0001664
7.99e-06
0.000176
3.225e-05
0.0002251
0.0004638
0.003024
4.359e-05
0.0005901
5.794e-05
2.675e-06
0.0003245
7.773e-05
5.529e-06
0.0004527
9.903e-05
0.0008887
0.000452
77.7
1.697e-05
7.883e-08
0.0005606
0.00106
0.001122
2.744e-07
2.843e-06
3.245e-05
1.412e-07
0.0003758
0.0001999
0.001008
0.0002026
0.0004519
0.0004671
0.002069
0.0001784
0.0004133
0.0002913
3.362e-05
0.0004544
4.78e-07
4.639e-05
68.65
0.001249
0.0001198
0.0001652
5.644e-05
0.0002214
5.116e-05
0.001254
7.773e-05
0.0004462
2.974e-07
9.471e-06
6.747e-08
0.001914
6.167e-05
0.002145
0.0004531
1.581e-05
0.0003969
0.0004951
8.142e-05
0.0007401
0.0001054
7.812e-05
5.324e-06
5.22e-06
0.0008761
0.0006196
6.173e-05
0.0004721
5.89e-06
0.0001794
1.806e-05
0.0004077
3.057e-06
3.198e-06
0.001549
5.958e-05
0.0002911
0.0005638
0.0004538
1.562e-05
4.002e-06
2.598e-05
0.0002597
38.45
2.929e-06
7.101e-08
3.78e-06
8.353e-05
8.192e-08
0.0001304
0.000465
5.826e-05
1.031e-05
1.614e-05
0.001519
0.0003547
6.163e-05
0.001667
0.0004574
8.193e-06
1.583e-05
1.414e-06
4.264e-05
1.52e-05
0.0002844
0.0001672
68.89
0.0001059
0.0004521
2.319e-05
0.001334
0.0004539
1.66e-07
0.0004557
0.0007632
0.0004534
0.0004822
0.0001186
0.0007873
0.000494
0.0006785
1.528e-06
1.549e-07
77.42
0.0001114
2.412e-05
0.0001518
1.097e-05
0.003887
0.0001996
0.001324
3.673e-05
0.001236
1.69e-05
0.0001662
0.0001027
8.109e-05
8.411e-05
0.0004767
5.507e-05
0.0001125
1.923e-05
1.955e-05
0.0004274
0.0002612
0.000598
0.0004595
8.405e-05
0.0004419
0.0004467
5.685e-06
0.001425
0.0007933
0.0004664
0.000408
1.38e-06
7.167e-08
0.001197
0.0002384
5.924e-06
0.0004258
3.379e-05
5.284e-06
0.0004595
0.001226
0.0001216
0.0007654
0.0002198
2.207e-05
0.0004653
0.0004556
0.0001638
1.307e-05
4.81e-06
0.0004381
0.000624
6.416e-05
0.0003819
0.000546
0.000238
0.001412
0.0001195
0.000455
6.16e-05
0.0006306
2.26e-06
0.0004538
3.73e-05
0.0002261
0.001178
1.465e-07
0.001563
0.001039
0.0004984
70.63
1.634e-06
0.0009565
0.0005363
0.0004525
0.0004643
0.0004511
72.12
0.0004441
1.366e-05
0.001342
9.904e-05
69.95
0.001323
0.0002074
3.171e-06
8.279e-06
5.079e-05
0.0002333
0.0003452
5.142e-06
1.603e-05
70.5
78.89
0.0004539
1.113e-05
5.856e-05
0.0005322
1.578e-05
0.001885
1.761e-06
0.0004148
0.0007527
1.579e-06
8.739e-06
0.0007421
0.0004594
0.0003918
0.001328
0.0007721
0.0004526
0.0001286
5.838e-06
0.0001363
0.0004542
0.001333
0.0001221
0.0005035
0.0002251
0.0001675
0.0006104
9.616e-05
0.0004501
0.0005227
0.001405
0.0001031
0.0001054
0.0004558
0.0003042
3.918e-06
1.374e-05
0.0004126
0.0001791
0.0008468
0.0004505
6.658e-06
0.0003349
0.0001781
5.068e-06
2.104e-05
0.0006183
8.852e-05
4.528e-06
0.000476
0.0005992
1.917e-06
0.000763
7.782e-06
9.007e-08
0.001976
0.0009785
0.0009263
0.0004449
4.504e-06
1.368e-05
78.71
0.0002632
0.0004688
0.0001483
0.0004204
0.0006884
0.000133
0.001002
0.003666
0.00506
1.05e-05
0.002113
8.372e-05
0.002641
9.215e-06
0.0004545
8.883e-07
0.0004693
0.0002765
0.001066
0.000458
7.97e-08
0.001318
0.0005248
8.722e-05
4.792e-07
0.000299
3.376e-06
0.0004456
1.166e-05
0.0004465
5.405e-06
7.071e-06
3.993e-06
0.003954
0.0004585
6.853e-08
0.0001891
0.0004448
0.0001114
0.0005764
1.991e-05
1.251e-05
0.0004598
6.175e-06
1.702e-06
0.0001971
8.952e-07
2.723e-05
0.0002446
0.0001317
0.001266
0.0008886
0.0001153
0.0009358
0.0007713
0.07295
9.195e-07
0.001116
0.0002084
8.104e-06
8.947e-05
0.0009523
0.0005771
0.0001316
0.000763
0.0002891
0.0009616
0.00056
0.0004534
0.0004539
8.342e-05
1.739e-05
0.0006437
0.0004545
0.0005453
0.0002685
0.0001926
0.001106
1.11e-05
0.004224
0.0004616
0.0007785
0.0004578
0.0004556
6.625e-05
0.001167
0.001009
0.001105
2.606e-05
0.0004596
0.0004116
72.52
0.0001845
0.0001701
1.531e-05
37.54
0.0004534
5.403e-05
3.86e-05
2.013e-06
0.001159
0.001942
0.0003432
0.0001122
0.0002038
0.000443
0.00123
0.0002151
0.0004754
0.0006258
0.001176
7.657e-06
7.092e-05
0.000313
0.0004368
0.0008916
0.0009164
0.0001582
0.0004582
2.056e-05
0.0008095
1.456e-07
6.701e-05
0.001668
0.00151
0.0005188
0.0003726
0.5123
0.0001246
5.749e-06
0.0009312
4.008e-06
3.87e-05
0.0004503
3.335e-06
0.0004986
0.001011
0.0001435
6.168e-06
6.962e-06
0.0008446
0.0009416
1.006e-05
0.0001792
8.15e-05
0.0005049
8.687e-05
7.748e-06
1.846e-05
0.0004539
0.0002889
0.0004577
0.0002864
6.891e-06
0.0004499
5.189e-05
0.0008191
0.0004539
0.0002302
0.0003218
0.0004458
0.0002547
60.24
0.0006514
0.001011
70.44
0.0005934
2.432e-06
0.0008335
0.0004787
2.698e-05
0.0003021
0.0009362
9.221e-05
2.454e-06
8.761e-08
0.0001735
0.000172
0.0004363
0.0004446
0.0004784
0.000447
0.0001253
2.069e-06
0.0006644
0.0002032
4.125e-05
2.567e-05
0.0004461
0.0004498
4.45e-05
0.0002702
0.0004342
0.0004072
0.0003864
0.000254
0.0001417
1.723e-05
0.0003018
3.087e-06
0.0004427
1.471e-05
0.0008241
0.0005241
0.0009114
77.93
1.819e-05
5.356e-05
0.001572
0.0006144
0.0009986
3.026e-05
0.0004497
0.0004251
4.645e-05
0.00035
0.000452
0.0001692
0.0004527
8.917e-05
0.0005018
0.0004515
0.0004088
0.000152
0.000133
0.00168
1.017e-05
0.0002923
9.457e-05
0.0002492
0.0001303
0.0007339
0.0002195
0.0004587
0.0007975
0.0002597
0.0004468
3.251e-05
0.0004517
0.0007632
0.0001459
0.0004516
0.0005304
0.0009715
0.0007945
0.0004497
0.0004594
0.0001034
0.0006214
0.0004892
2.698e-06
0.000335
1.715e-05
0.001412
0.000111
59.64
2.893e-06
0.0003743
0.0008391
9.906e-05
0.0005248
0.0004524
0.0002635
0.0002137
2.706e-05
0.0003734
1.029e-05
4.807e-06
9.808e-05
1.507e-05
0.0006827
0.0004603
0.0004167
0.0001525
2.498e-06
0.0008553
5.252e-05
3.499e-06
0.0004899
0.000452
0.002047
0.0005883
4.772e-06
0.0004948
6.179e-05
0.00014
0.0008119
0.0001536
0.0004537
0.0004887
5.385e-05
0.0002978
0.001843
0.0001658
15.8
1.578e-05
9.333e-05
0.00069
0.0004647
9.938e-05
0.0004508
2.032e-05
0.001693
0.0004646
0.0002963
0.0004633
3.72e-06
1.908e-05
2.378e-05
0.002095
0.0001547
5.208e-06
5.691e-05
1.095e-06
3.505e-05
0.0004395
0.0004462
0.0004503
3.537e-06
18.01
0.0001832
0.002105
0.0003901
8.669e-06
9.652e-05
9.614e-08
7.028e-06
0.0003187
3.171e-06
2.75e-05
18.18
3.501e-06
1.842e-05
0.0003704
0.0001391
0.001839
5.326e-06
0.0006113
0.0004544
0.0001148
0.0004685
0.0001391
0.0001224
0.001468
8.02e-06
3.036e-05
0.001896
0.0009292
0.0004676
5.969e-06
3.173e-05
1.156e-05
0.001639
0.0002613
0.0007719
0.0001381
18.42
0.0004542
0.0004105
5.998e-05
5.847e-06
0.002926
0.003032
0.0009091
0.0001995
0.001376
3.267e-05
3.989e-06
0.0001893
0.0004524
20.07
6.692e-06
3.964e-06
41.95
0.0007235
1.455e-05
0.0004674
4.144e-05
1.791e-06
5.465e-06
0.0004598
2.231e-07
7.128e-06
0.0006528
0.0009437
4.487e-06
1.317e-05
3.339e-06
0.00044
6.161e-05
0.001557
0.0004543
1.122e-05
0.0004547
0.0004636
0.0001301
0.001027
0.001201
0.001312
0.0008829
72.55
0.0002949
4.168e-05
0.0005113
0.001423
0.0006461
0.0004548
3.476e-06
0.0001227
2.52e-06
0.004057
0.0004624
1.036e-07
0.0004577
0.0003742
1.437e-05
0.002713
0.004237
6.544e-06
0.00106
3.589e-05
3.785e-06
0.0001448
0.0001324
0.0002825
3.307e-06
0.002102
1.833e-05
0.0004569
0.004105
4.714e-05
9.332e-05
0.001483
0.001261
0.0004504
1.838e-06
7.864e-06
6.98e-05
0.0001305
44.62
0.0005551
3.448e-05
0.00205
6.713e-08
0.00299
7.255e-06
2.948e-05
0.0003361
0.0004698
0.0001748
8.868e-06
33.2
32.28
0.0002331
0.0001385
0.0002227
0.0008244
5.137e-05
0.001912
24.23
0.0004524
2.329e-05
9.477e-05
7.211e-06
0.0007382
0.0009501
0.4129
16.87
0.0004538
5.291e-06
1.928e-05
0.0003284
4.096e-06
0.0009642
1.087e-05
0.0004554
1.299e-05
0.0007656
0.001009
6.09e-06
0.0004508
1.307e-05
0.0004548
6.726e-06
76.59
0.0005163
4.075e-06
2.459e-06
7.459e-08
9.038e-05
4.073e-05
1.502e-05
2.858e-05
0.001842
0.001564
0.000957
0.0005118
1.216e-05
1.845e-05
0.000173
5.62e-06
0.0003023
2.468e-06
6.744e-06
77.83
0.001706
2.427e-05
0.4033
1.234e-05
8.087e-06
0.000133
9.26e-05
2.611e-05
0.0004419
2.006e-06
0.002023
7.938e-05
0.0004466
0.001471
0.0005168
8.405e-05
4.203e-06
0.0001488
0.0009077
4.209e-06
0.0001364
6.382e-06
0.0001879
0.001583
2.536e-07
0.0004536
0.0004524
0.000439
0.002092
2.866e-05
0.0009285
0.0002191
0.002531
0.0001543
0.000748
0.0004797
2.909e-05
0.0012
4.098e-06
1.315e-05
0.0002809
1.755e-06
9.999e-06
0.0004741
0.0009413
0.0004537
0.0001227
0.0007389
0.0001923
0.0001944
0.0001615
3.767e-05
0.002136
0.0006235
0.00352
1.033e-05
0.0004564
0.0001087
0.0001165
4.833e-05
7.172e-05
5.797e-06
0.0008436
0.0001078
0.004036
0.0004597
1.072e-05
0.0001362
0.0004732
0.0002543
0.000133
0.0004664
79.16
78.55
0.000453
1.737e-05
1.561e-05
0.001482
3.237e-05
0.0004458
0.00038
0.001584
0.0007889
5.908e-06
0.0001487
1.984e-06
7.963e-05
0.0004542
2.383e-05
0.0003089
9.345e-06
0.000452
0.001071
9.904e-05
0.000116
3.713e-06
0.0004553
0.0004534
0.0005574
0.0007671
8.039e-05
1.127e-05
0.0002577
0.0009636
0.001805
0.0001757
0.000459
5.427e-05
3.716e-06
77.32
0.0004571
2.191e-05
0.0005095
8.847e-05
1.106e-05
0.0001716
3.676e-07
0.0001038
0.0004193
0.0009284
9.336e-06
1.456e-05
0.0001723
6.156e-05
6.042e-05
0.001221
0.0002869
0.0005099
0.0004643
0.00037
0.000439
3.822e-05
7.914e-05
1.494e-05
0.0009359
0.001234
0.0004585
3.819e-05
0.0003703
0.0002386
4.897e-05
7.291e-05
0.0004711
0.0005397
0.0009618
0.0008418
6.716e-05
0.0008288
1.042e-05
0.0001055
0.0003879
5.325e-05
0.0002749
0.0001681
7.233e-05
0.0004534
0.0002759
0.00128
9.17e-06
1.575e-05
0.004165
0.000183
0.00111
1.227e-05
0.0009496
0.0007171
0.000464
0.0007353
2.248e-05
5.958e-05
0.0004651
0.0008108
9.33e-05
2.063e-05
0.0001598
0.0002376
0.001177
2.061e-05
0.0008324
0.0002898
9.72e-05
0.0004356
5.896e-06
0.001214
71.97
1.712e-05
0.0004541
0.0004617
8.678e-08
0.001426
7.696e-08
0.0005416
0.0004884
0.0005197
0.0004376
0.0003082
0.0003453
0.0004449
0.0005108
2.431e-07
4.185e-06
9.145e-06
0.0002188
4.991e-06
65.52
8.782e-06
0.0007671
0.0006255
0.0007453
0.0007486
0.0004568
8.002e-05
0.0006628
6.934e-08
0.0008002
7.764e-06
3.784e-05
0.002129
0.0004512
0.0004691
3.106e-06
0.001238
8.635e-07
4.329e-06
0.0005437
3.825e-06
28.28
0.0006132
0.0004545
0.002913
0.0003217
6.744e-06
0.0004484
0.0001747
1.877e-07
0.0004834
0.0009935
16.03
0.0004567
72.02
0.0004148
0.0003563
9.492e-05
9.23e-05
0.0006776
2.721e-05
0.0004599
3.704e-06
0.00026
9.294e-06
0.002238
6.897e-05
67.9
0.000104
1.516e-05
0.00119
2.38e-05
7.362e-07
0.000461
1.103e-06
9.02e-05
0.0001631
0.0002323
29.37
4.627e-06
0.0005457
0.0004519
5.147e-05
0.0008725
15.8
4.55e-05
3.899e-05
0.0006677
1.249
0.0008508
0.0002246
0.0003299
3.985e-05
0.0004588
9.15e-07
4.562e-05
0.0004697
0.000227
0.001982
0.0003713
0.0001087
5.657e-06
0.001195
0.002802
0.0004764
0.0003486
8.598e-05
0.0004478
0.001085
2.256e-05
7.856e-05
0.0003495
0.0003792
0.0003114
0.001837
0.0009078
0.0005243
8.14e-06
0.0001581
67.62
0.0004638
0.00215
0.0002291
0.0004548
2.34e-07
0.002527
0.0007634
7.108e-08
0.0007245
0.0002013
0.002606
0.0006449
0.0001325
6.597e-06
0.0004564
0.000119
6.499e-06
7.009e-06
0.000484
0.001989
0.000269
0.0004514
3.824e-05
0.0004559
2.749e-05
9.45e-05
0.0002513
50.39
4.479e-06
0.000412
0.0004578
14.99
57.28
0.0004525
0.0002012
7.91e-07
2.412e-06
6.744e-06
7.739e-05
6.636e-06
0.001548
0.0001329
3.857e-05
4.683e-06
9.457e-05
4.686e-06
8.989e-05
0.0008271
9.545e-05
0.0008992
0.0004464
45.09
8.636e-05
7.415e-05
1.306e-05
7.187e-06
0.0002723
0.0003985
0.0004511
0.0004395
9.936e-05
4.837e-07
0.001015
0.000753
0.0004669
2.348e-05
0.0008413
25.46
7.924e-06
0.0009538
8.273e-05
62.58
4.549e-06
8.094e-05
0.0004592
6.02e-06
6.222e-06
0.0001079
7.147e-06
1.308e-05
0.0004583
1.353e-05
0.0002516
2.064e-05
1.327e-05
9.515e-05
1.97e-06
0.0001143
17.07
0.0002477
4.963e-05
78.34
0.0001863
0.0005088
0.0004398
4.759e-05
63.56
0.0009301
3.36e-05
0.001073
6.187e-05
0.0004579
57.64
0.0004557
4.041e-06
0.001009
0.0001103
0.0009835
3.323e-05
7.972e-08
9.209e-06
1.57e-06
0.002708
6.139e-06
0.0006969
0.001102
0.0004574
0.0001038
2.832e-05
0.0009347
5.089e-06
0.0002313
0.0008261
0.0001311
4.238e-05
3.231e-05
3.151e-06
0.002875
0.0004461
0.0005778
16.87
7.333e-06
2.888e-05
0.0004858
8.484e-05
0.000348
0.0004716
0.0007329
6.298e-05
1.222e-05
0.000396
8.382e-05
0.0002931
1.877e-05
7.353e-05
1.787e-07
0.0002996
0.0003908
0.0009906
0.0008692
1.962e-05
0.000108
0.0001165
9.086e-06
6.514e-05
0.0004479
0.0004959
0.0004051
6.743e-06
0.001087
0.001755
0.0001283
4.204e-06
0.0004594
0.4647
2.378e-05
3.749e-06
36.51
0.001113
8.514e-05
1.207e-05
0.0007808
1.307e-05
3.571e-05
0.0001753
3.879e-05
0.001006
0.0004966
7.817e-06
0.0009025
4.491e-05
0.0003599
0.0001561
8.271e-06
4.531e-06
1.088e-06
0.0004549
0.0005094
0.0005515
0.0005798
0.0004837
0.0003536
0.0001481
1.907e-05
9.515e-05
0.0007518
0.0001533
0.0002642
3.527e-06
0.0002824
0.001603
0.0008194
8.829e-06
0.0004551
0.0009585
0.0008819
1.582e-05
0.004436
0.0004419
0.0004457
0.0009111
2.521e-06
62.31
0.0006239
0.001691
0.0001753
2.198e-05
5.671e-05
1.071e-07
2.746e-05
0.00015
0.0001201
1.293e-06
9.12e-05
0.0003142
2.262e-05
0.000454
0.0004565
0.0001165
0.0007429
1.439e-05
3.813e-06
1.458e-05
1.707e-06
1.457e-05
67.49
0.0006247
0.0005976
5.924e-08
0.0002734
9.645e-06
0.0004523
0.0002772
0.001316
3.604e-05
6.339e-05
0.001119
0.0001871
0.0003487
0.0001118
7.639e-08
0.0001122
0.000453
1.299e-05
0.000385
3.756e-06
0.0006469
7.646e-06
0.0004602
0.0004507
0.0001983
0.0002374
72.48
0.0001022
4.427e-06
0.00017
2.97e-05
0.0004425
0.0006792
0.000456
0.0009407
0.004187
0.001312
3.095e-05
3.023e-05
0.0004532
0.0004819
3.862e-05
3.039e-05
0.000101
1.529e-05
1.502e-05
6.183e-06
5.412e-08
4.754e-06
44.96
2.059e-05
0.001108
4.15e-06
0.001172
0.0005078
0.0007345
4.862e-05
6.855e-08
0.0004442
0.0011
7.25e-05
0.0004655
0.0008952
0.000266
2.717e-05
7.941e-05
0.0002248
6.063e-05
0.0001428
0.0005258
1.487e-05
0.0004338
0.0007786
6.897e-06
0.0004551
0.0004651
0.0002254
0.0004971
6.688e-05
0.0004558
75.64
0.001045
0.0004527
4.428e-06
72.6
0.0002145
0.002931
9.985e-05
1.937e-06
0.0004758
0.0002222
0.0009858
0.0003356
0.0003015
1.287e-06
0.0002205
0.0001238
0.001097
0.00264
0.001326
5.415e-05
0.0002195
0.000535
1.041e-05
0.0006087
7.531e-05
0.0001319
9.238e-06
0.001147
3.477e-05
0.0006593
0.0003368
0.001417
5.247e-06
4.727e-05
0.0001329
0.0006839
2.997e-05
5.666e-05
2.156e-05
0.00215
0.0001838
3.464e-06
0.000976
0.0004479
0.0005604
8.287e-05
0.0004513
0.001057
0.0001058
1.112e-05
0.002665
5.866e-05
0.0006252
0.000455
2.556e-05
4.83e-07
1.81e-05
0.0004524
1.101e-05
0.000477
0.0004585
0.000227
0.0001346
1.067e-05
0.0001583
0.0001441
0.0001825
0.0004039
0.1145
0.0006002
0.001468
0.0009139
0.0002232
0.0005352
1.375e-05
0.001062
1.438e-05
0.0004511
0.0004489
0.0004579
7.242e-05
4.699e-06
0.0003265
5.824e-05
9.856e-05
18.75
0.001342
0.002298
0.0005042
0.0004533
0.0004535
0.000454
0.001358
1.976e-05
6.706e-05
0.0009184
6.211e-05
0.001184
0.0007838
3.324e-06
3.688e-06
0.0002182
1.354e-05
0.0001307
7.282e-06
0.001515
5.905e-05
0.0005981
0.0004738
0.0004259
0.0001103
0.0009653
0.0004234
7.167e-06
0.0004494
0.0001662
9.479e-07
1.268e-05
0.0001814
0.0004569
0.000346
0.0006024
0.0002469
6.37e-05
4.166e-06
0.0002472
0.0001416
0.000455
0.0006818
0.0005834
0.0001323
0.001617
9.15e-05
0.0002231
0.0006853
1.557e-06
2.418e-05
0.0004115
1.353e-05
0.0002021
0.0006608
0.0004572
9.91e-06
5.378e-05
4.438e-06
0.0004533
0.002754
0.000771
0.000454
0.0004911
1.115e-05
13.73
0.0005049
8.547e-05
1.826e-06
1.319e-05
0.0001928
7.154e-05
4.74e-06
7.553e-06
7.695e-07
0.00261
0.0009132
0.00012
4.795e-06
0.0004377
1.06e-05
6.873e-06
0.001093
0.0004545
0.0008308
8.169e-06
0.0007922
0.001354
4.136e-05
0.0003442
1.647e-05
0.0001496
5.966e-06
0.0004585
9.557e-05
7.776e-06
0.0008731
0.0001536
0.0001126
0.00213
0.0003766
0.0003789
5.652e-06
8.411e-08
6.681e-06
0.0004183
3.37e-06
2.678e-05
4.273e-06
0.0001173
20.04
0.000122
1.404e-05
6.259e-08
0.0002848
6.391e-06
2.738e-05
0.0005338
0.005125
2.129e-07
0.0002179
68.31
0.0009483
0.0004637
0.004047
0.001447
0.0004498
0.001682
0.0004559
0.0005517
7.007e-06
7.91e-05
0.001285
0.0004515
0.0007292
0.001695
8.314e-07
0.0004781
0.0003219
5.453e-05
0.0004557
0.0005207
32.45
0.000472
0.001159
1.162e-05
0.0007044
24.02
0.0001092
0.0003568
0.0006589
8.474e-05
0.0001314
0.002003
8.048e-05
0.0001643
0.001006
0.0006437
0.0001759
0.0001332
3.857e-06
0.0002653
0.0006817
58.39
5.036e-06
0.0005029
0.0004541
6.046e-05
1.379e-05
0.000479
0.002174
0.0006882
3.35e-07
0.0004592
1.259e-06
0.0001678
4.521e-06
2.789e-05
77.88
0.0001945
0.001339
2.465e-05
0.0004576
1.455e-06
0.8974
0.0003436
0.00018
0.0004626
0.0006933
1.37e-06
0.0005672
6.302e-06
38.98
0.0001035
0.001499
6.474e-06
0.0009918
79.05
8.144e-05
73.43
62.87
5.119e-06
0.0002402
9.989e-06
1.885e-05
0.001813
2.996e-05
0.0004538
0.0004727
4.398e-06
3.576e-06
5.748e-06
6.203e-06
8.306e-07
0.0004536
5.549e-05
0.0004577
0.001556
0.0008644
1.182e-07
0.0004582
0.001837
1.878e-05
8.811
0.0004538
0.0004572
10.28
0.0004481
0.0001371
0.0004583
0.0005436
0.001297
0.0002975
0.0006712
0.0001902
2.331e-06
9.731e-05
7.176e-06
31.28
9.546e-05
0.0001627
0.0004587
3.094e-07
0.0004662
7.405e-06
5.904e-06
0.0008512
59.95
60.67
0.0004538
4.685e-06
1.152e-05
6.17
0.00121
0.000344
0.0001828
4.297e-06
8.498e-06
0.0006796
77.96
4.92e-05
4.085e-05
0.0007916
0.000175
59.53
9.513e-06
0.0005131
0.002331
0.0009175
3.875e-05
2.185e-05
0.0004686
0.001765
0.002228
0.0006203
0.0003109
5.968e-05
0.0003269
0.00206
0.001267
4.689e-06
0.0006579
0.0004547
0.0002397
0.000104
0.0004387
1.847e-06
0.001086
8.368e-06
0.001322
0.003559
0.0002996
9.084e-05
2.835e-05
0.0002303
3.438e-05
4.936e-05
0.002477
0.0008418
4.572e-07
0.000928
3.917e-05
0.001239
0.0001405
5.27e-06
0.0004503
0.0005773
0.0005407
1.353e-05
0.0004511
53.56
0.0002142
0.0001481
6.94e-06
0.0007077
0.0001087
0.000359
0.0004963
0.0001362
0.0009907
2.34
1.521e-07
0.0004671
0.0001012
0.0004658
6.198e-06
0.002048
1.091e-05
0.0004539
0.001942
5.44e-06
6.292e-05
0.0001061
7.388e-05
0.0002628
0.0001017
0.001026
0.0004418
0.0004539
0.0003408
68.28
0.0005265
9.374e-06
0.002663
0.0009571
0.0001165
65.33
6.659e-06
1.01e-05
0.0001391
9.625e-05
24.33
0.0001326
0.001167
0.00205
0.000124
8.38e-06
3.777e-05
9.8e-08
3.748e-06
7.975e-06
4.753e-05
8.023e-06
0.0002913
0.001635
9.491e-05
4.572e-06
76.81
5.435e-06
8.183e-06
1.004e-05
0.0001092
0.001198
0.001147
0.0005323
0.0002393
0.0004525
49.95
0.0005565
0.0008414
27.82
55.72
0.0001137
6.18e-05
65.84
0.0004531
0.0007264
0.0004537
0.0005205
0.001029
4.259e-05
0.0004966
1.281e-07
0.0001183
0.001329
1.093e-05
0.002524
0.001127
0.0004573
1.665e-05
0.0001833
9.669e-06
2.173e-05
2.694e-05
0.0004569
0.00114
2.29e-05
1.102e-05
0.0005111
0.0005164
1.999e-05
0.0008387
5.532e-05
0.0004532
1.745e-05
0.0004663
7.032e-05
0.0001756
0.001156
0.0009932
0.0001104
0.0004634
0.0009558
0.0007202
7.526e-05
0.002078
1.156e-05
1.148e-05
1.664e-06
0.0004476
0.0006574
5.006e-07
66.09
0.0004604
0.000799
0.0001671
0.0005243
5.676e-06
7.821e-06
0.0004567
0.000457
0.0001181
5.992e-05
2.422e-06
0.0004548
3.119e-06
32.19
0.001111
8.907e-06
2.907e-05
0.0005593
0.001954
2.762e-05
0.0004454
4.623e-06
1.011e-05
0.0004535
5.68e-05
0.0004036
0.0008414
0.001583
4.611e-06
9.806e-06
1.132e-07
5.616e-06
0.0004575
0.001306
0.0003269
0.001788
0.000216
0.001256
5.203e-06
0.002907
9.667e-06
0.0004574
0.0004954
0.0007861
0.001775
0.0001503
0.0003221
2.952e-06
0.0005293
6.061e-05
77.66
0.0004548
0.0004556
1.294e-05
9.146e-06
6.214e-08
0.0001606
0.0006481
2.25e-05
0.0004612
0.0009814
3.567e-06
4.058e-06
3.752e-06
27.25
0.001309
7.838e-05
1.329e-05
0.00155
0.001399
41.2
7.11e-06
1.847e-05
3.514e-07
7.177e-05
3.238e-06
0.002491
0.001526
9.325e-06
0.0008872
0.00137
0.0004506
0.001663
0.001288
0.0009159
8.164e-07
5.687e-06
5.747e-06
3.21e-05
2.224e-05
2.831e-06
0.0005192
1.985e-05
0.002234
0.0001599
0.0001626
0.0008768
1.997e-06
0.0002019
0.0004298
0.00078
0.0006762
3.201e-05
0.001917
0.0008855
5.56e-06
5.862e-05
0.000143
5.175e-05
2.218e-05
5.055e-05
0.0004525
0.0005445
0.0004532
7.185e-06
0.0001789
1.464e-06
3.402e-05
2.381e-06
5.826e-06
3.479e-06
0.0001304
0.001727
25.06
6.443e-06
0.0002417
0.0001993
0.001741
0.0006236
0.0003058
0.0007144
4.643e-06
0.0004161
9.707e-06
0.0004516
0.0004543
0.0001593
0.0004499
68.12
0.0004438
8.799e-05
0.0004903
0.001007
5.717e-06
1.959e-06
3.489e-06
0.0004599
0.000151
0.001706
0.0004564
0.001682
7.88e-06
3.127e-06
41.9
1.159e-06
0.001493
0.0005454
8.427e-05
45.95
0.0004559
1.741e-05
0.0003206
8.837e-05
1.361e-05
0.0004415
7.518e-05
0.001589
0.001029
33.16
2.625e-07
1.812e-05
34.42
0.001243
27.2
0.0004465
0.00172
5.666e-05
46.64
73.16
75.5
0.0004643
0.0005886
1.129e-05
1.656e-05
7.365e-05
0.00192
1.386e-05
2.475e-06
0.0004415
0.0002197
0.0001386
0.001183
0.000452
1.272e-05
6.964e-08
0.0004359
12.15
0.002338
1.83e-05
5.34e-06
0.0008449
0.0007934
0.0001902
0.0001838
0.0002569
7.192e-05
0.0004496
0.0002262
0.0004536
4.085e-05
5.953e-05
0.002206
0.0004819
1.14e-07
5.279e-06
68.31
0.0004565
0.0001921
1.232e-05
0.0004441
7.614e-05
0.0004912
13.92
0.000318
0.0003987
0.0003122
0.0006424
0.001128
0.0002018
9.132e-06
0.0004632
0.000266
0.0004575
0.001182
0.0001154
79.27
1.531e-05
8.085e-06
0.001695
3.466e-06
0.0004563
1.066e-05
0.0003488
7.66e-06
0.0006094
1.468e-05
5.536e-05
0.0003338
8.325e-06
0.0001259
7.479e-05
0.001977
0.0004522
72.88
1.451e-07
0.0004457
0.000591
7.95e-06
4.289e-06
6.592e-05
0.0005994
0.000691
0.00096
0.0004521
1.852e-05
2.953e-06
0.001992
0.0001274
8.891
0.0008199
5.869e-05
0.0001506
2.27e-06
7.503e-05
0.0003708
3.943e-06
4.036e-05
0.0008476
9.072e-06
2.737e-05
0.0003808
3.048e-06
6.768e-08
0.0006011
9.03e-07
34.31
0.0002959
0.0004653
36.73
2.703e-05
0.0005282
6.184e-06
0.0009018
3.023e-05
8.545e-05
0.001211
5.029e-05
0.001051
6.774e-06
0.0008107
9.661e-06
0.0004681
0.001382
0.0003895
0.001648
0.0004604
74.78
3.2e-06
0.0004687
7.123e-06
9.182e-05
2.519e-05
0.0006019
0.0004576
1.056e-05
0.0004338
1.106e-05
6.006e-05
0.0003227
22.46
0.001952
4.328e-06
0.0008285
5.48e-05
0.0001288
4.983e-06
1.817e-07
8.282e-05
0.000118
0.0004503
1.615e-05
1.254e-07
0.001469
0.0004281
1.805e-06
0.0004661
0.0001778
0.001117
2.124e-05
5.04e-05
0.0001969
0.0004609
0.0004545
4.924e-08
0.0005018
0.0004879
1.687e-05
0.0009682
6.88e-06
0.0004948
0.0009056
0.0004545
0.000487
0.0002345
0.002226
4.146e-06
2.62e-05
0.0001959
0.0005691
0.0004636
1.233e-06
0.0002298
18.24
0.001654
9.856e-05
1.362e-05
0.0001532
6.608e-05
0.0003421
0.0001263
6.114e-06
0.0005251
0.0002561
0.00119
0.0007336
1.255e-05
0.0004491
3.465e-06
0.0001747
4.48e-06
8.098e-05
0.001008
0.0006058
0.0004676
0.0003551
7.779e-06
5.52e-05
0.001901
6.08e-06
5.371e-05
7.889e-06
0.0004418
3.911e-06
4.02e-06
0.0009001
14.72
4.103e-06
0.0004548
0.0004487
0.0007782
5.118e-06
0.0001659
3.281e-06
0.0001167
1.06e-05
9.587e-06
0.000457
0.0006649
75.09
0.0001929
9.286e-05
7.787e-06
0.0001284
0.0004516
0.0001896
1.916e-07
3.581e-05
6.114e-05
9.289e-06
0.0001135
7.701e-06
0.0001339
1.6e-05
75.99
60.33
0.0009555
0.0007777
0.0003333
5.112e-05
5.485e-06
2.923e-06
5.146e-06
0.0005219
4.359e-05
8.861e-05
0.001974
5.252e-06
4.04e-05
8.332e-05
0.00157
78.87
0.0004579
35.33
5.216e-06
0.000454
0.0001934
5.051e-05
8.426e-05
1.248e-05
1.698e-05
0.0005602
1.01e-05
6.995e-06
1.391e-05
0.0004513
3.585e-06
0.001489
0.0006236
11.02
0.001009
1.21e-05
0.00127
0.0009052
1.324e-05
0.0002383
0.0002702
6.011e-05
4.569e-06
2.499e-05
0.0004868
4.355e-05
78.08
61.73
0.0009484
0.0001356
0.001198
0.0004512
0.0004474
0.0007213
1.818e-05
0.001259
0.0004558
0.0004523
0.001327
1.774e-05
7.56e-06
0.0008175
0.0003895
1.883e-06
3.629e-06
2.946e-05
61.45
7.476e-06
1.523e-05
3.662e-05
0.000472
0.0003399
8.774e-05
0.0001883
0.0001377
1.445e-05
0.0008419
0.000456
4.363e-06
0.0001132
0.0006232
3.261e-06
28.23
0.0008943
0.0004623
0.0004533
0.000111
1.709e-05
8.121e-05
2.265e-05
0.0008264
6.343e-06
0.001403
0.002028
4.872e-06
0.0003275
0.0005379
0.000141
0.000588
0.0004768
0.0001125
0.0009921
5.361e-06
0.0001815
0.0007566
0.0004086
1.372e-07
33.67
0.0004602
0.0002086
0.0003549
0.0001201
1.027e-05
0.0004419
0.001724
0.001208
0.001399
2.626e-05
0.002384
0.0003395
8.385e-06
0.0006363
7.777e-06
0.0006825
0.0004514
0.0002666
0.001191
0.0009104
8.033e-05
2.133
0.0006456
0.0002718
1.846e-05
0.0005858
42.08
0.0004559
0.0004467
0.0004992
0.0004688
0.0005965
40.02
1.669e-06
0.0001553
1.056e-05
2.483e-05
7.294e-05
5.531e-05
4.459e-05
0.0003508
3.546e-05
6.834e-06
0.001512
0.0004667
0.0004819
0.0007375
0.0004572
2.938e-05
4.852e-05
0.0005387
7.132e-06
6.258e-07
0.0003266
0.0003068
6.324e-05
9.608e-05
0.001351
0.000189
0.0004635
0.0004604
0.0004121
7.226e-05
6.68e-06
1.031e-05
9.028e-06
0.0001635
0.0006412
8.33e-05
7.082e-06
72.52
8.908e-05
4.243e-05
0.0001303
7.543
0.000461
1.875e-05
3.382e-06
0.0004881
0.0004537
0.001601
0.0004639
0.0008555
2.728e-06
9.436e-06
0.001189
0.0004853
0.001687
1.433e-05
0.0009645
3.066e-06
0.00049
0.0001755
0.0004574
0.0001586
0.0004639
7.46e-05
52.33
0.001185
4.782e-08
0.001097
0.0004541
0.0001069
8.592e-06
9.559e-06
0.001171
6.84e-08
0.000872
0.0004303
0.001943
0.0006152
0.000454
3.511e-06
0.0003726
0.0005573
5.327e-06
5.858e-06
5.715e-06
0.000455
0.001036
3.338e-06
0.001395
0.0004587
0.0006825
0.0004439
7.415e-05
0.0003148
4.649e-06
3.128e-05
0.001292
0.002013
0.0004563
1.023e-05
0.00101
5.947e-05
0.0004549
53.27
5.676e-06
0.000115
0.0001205
7.928e-06
0.0008903
0.00123
1.355e-05
54.1
6.173e-05
0.0003342
2.424e-06
1.129e-05
0.000448
0.0005122
0.0004627
0.00044
0.000539
0.0002859
0.0005611
0.0003394
9.816e-08
0.0001563
0.0003328
1.042e-05
0.001644
7.446e-05
3.19e-05
0.0005315
0.0002047
7.047e-05
0.000876
0.001423
7.028e-06
0.0004596
0.0001089
0.0004519
5.484e-06
7.224e-05
0.0004578
5.414e-06
0.0008778
0.0009877
5.29e-06
1.373e-05
0.003115
4.243e-06
7.71e-05
72.9
0.0001992
8.394e-05
5.918e-05
1.716e-05
0.0001577
0.0001613
0.0003623
1.697e-05
0.000429
0.0004529
4.221e-06
0.0001207
5.478e-05
2.23e-05
0.0001165
0.0007679
1.133e-05
0.00102
2.491e-05
3.554e-06
0.0009029
1.979e-05
4.533e-05
2.011e-05
4.861e-06
0.001229
4.571e-05
0.0003449
0.0001018
4.601e-05
0.0002798
0.001001
5.599e-05
4.765e-06
4.78e-05
6.81e-06
3.612e-05
0.0002946
0.0001082
0.0002289
0.0004416
9.015e-06
0.001169
0.0002545
1.738e-05
0.0004623
0.0004929
0.0004559
1.889e-06
3.304e-06
7.858e-08
0.0001814
8.341e-08
0.0006459
3.972e-05
5.448e-06
0.0002703
0.0003565
8.142e-06
4.755e-06
0.001687
3.087e-07
2.056e-06
0.0004789
0.001001
4.435e-05
0.0006879
0.0003117
6.595e-05
3.451e-06
7.081e-06
0.0004469
0.000727
0.0007645
2.852e-06
2.074e-05
0.0004546
8.96e-06
6.906e-05
0.0004912
0.0004935
0.0004527
0.0001917
0.0004554
0.0005079
0.0002825
1.479e-05
0.000141
0.0001255
0.001639
0.0008812
0.0009988
3.19e-06
2.062e-05
0.0003172
1.717e-05
0.0003131
0.0001159
0.0004556
0.0004566
0.000469
6.994e-05
62.31
3.63e-06
0.0001013
0.001382
0.001349
0.00111
6.605e-05
2.572e-05
1.323e-05
0.0004636
74.37
0.0002595
0.0003256
0.000735
7.313e-05
0.0004522
0.000524
23.44
5.296e-06
0.0003219
0.0004558
7.345e-05
0.000226
3.998e-05
0.0004515
0.0005319
0.0001905
0.0004769
9.707e-05
5.263e-06
0.0003644
1.278e-05
4.784e-06
0.001556
0.0004613
0.0009381
0.000137
0.0002913
6.381e-05
4.36e-05
0.0008835
2.406e-06
9.223e-06
0.0004562
1.431e-06
2.68e-05
0.0009792
0.0004607
0.0004571
0.004185
0.001054
0.0001017
5.63e-06
0.0001507
0.0004285
0.0002384
3.195e-05
0.0004461
3.019e-06
4.138e-06
6.238e-05
0.0004546
0.000533
0.001619
3.123e-05
2.983e-06
3.615e-06
0.0009543
0.0001979
9.187e-06
0.001795
0.0001521
9.56e-07
0.001096
57.32
0.0005675
0.001366
0.0001457
39.03
8.066e-06
78.31
3.749e-05
8.525e-07
0.002863
0.002669
4.592e-07
3.313e-05
0.0004532
0.0042
1.759e-07
0.0004996
55.14
0.0004563
0.0001109
3.151e-05
1.111e-06
0.000123
0.0004561
0.0004593
0.0001809
4.661e-05
4.136e-05
0.0009722
1.656e-05
0.0002302
4.984e-06
0.000194
5.473e-06
39.01
5.115e-05
0.0004158
0.0005898
0.0001144
7.555e-05
5.497e-06
0.001123
0.0005987
0.0006666
9.79e-06
1.166e-05
0.0005456
0.0001575
6.07e-05
1.748e-05
0.0004503
1.904e-05
2.88e-06
0.004098
4.944e-06
0.0002911
1.059e-05
3.882e-06
0.000439
4.228e-05
7.422e-06
0.0005797
0.0004563
0.0004533
0.001701
5.622e-06
2.56e-05
7.978e-06
0.0004758
0.0005032
3.693e-05
43.13
0.003334
0.0002109
0.0001232
0.000455
0.0007393
7.824e-07
0.0009589
0.0004418
0.0008381
0.0001211
0.0003767
6.438e-05
2.65e-05
0.0006007