/*--------------------------------*- C++ -*----------------------------------*\
| =========                 |                                                 |
| \\      /  F ield         | OpenFOAM: The Open Source CFD Toolbox           |
|  \\    /   O peration     | Version:  v2012                                 |
|   \\  /    A nd           | Website:  www.openfoam.com                      |
|    \\/     M anipulation  |                                                 |
\*---------------------------------------------------------------------------*/
FoamFile
{
    version     2.0;
    format      ascii;
    class       surfaceScalarField;
    location    "5";
    object      phi;
}
// * * * * * * * * * * * * * * * * * * * * * * * * * * * * * * * * * * * * * //

dimensions      [0 3 -1 0 0 0 0];
oriented        oriented;


internalField   nonuniform List<scalar> 
149048
(
-1.253e-08
1.253e-08
-1.02e-08
1.02e-08
-2.004e-08
2.004e-08
7.093e-08
-7.093e-08
1.074e-08
-1.074e-08
-1.551e-08
1.551e-08
-7.755e-08
7.755e-08
-1.665e-06
1.665e-06
-2.622e-06
2.622e-06
2.404e-08
-2.404e-08
1.815e-06
-1.815e-06
-3.553e-06
3.553e-06
3.45e-05
-3.45e-05
3.45e-05
3.248e-06
-3.248e-06
-9.189e-06
-2.531e-05
4.693e-05
-1.243e-05
-2.14e-06
2.14e-06
1.963e-07
-1.963e-07
4.693e-05
1.479e-05
-1.479e-05
1.479e-05
-1.655e-08
1.655e-08
7.919e-07
-7.919e-07
-5.161e-08
3.157e-08
3.491e-06
1.129e-05
-2.176e-06
-1.261e-05
-0.001248
0.001539
-0.0002916
0.0007775
-0.0007653
-1.22e-05
-1.709e-06
1.047e-06
6.628e-07
1.218e-08
-1.218e-08
-0.0002893
0.0002709
1.835e-05
-9.729e-05
-0.000192
0.0001299
-7.049e-05
-5.945e-05
0.0001816
-0.0001566
-2.507e-05
0.00115
0.0007015
-0.001852
8.021e-05
4.973e-05
0.0001498
0.0004227
-0.0005725
0.7885
-1.188
0.3999
-3.378e-05
0.0008112
-0.0002993
0.0002716
2.768e-05
0.01779
0.1118
-0.1296
6.249e-08
-6.249e-08
0.002209
-0.002237
2.823e-05
0.00106
-0.001036
-2.406e-05
-0.0001
-0.0002491
0.0003491
-0.03449
0.02166
0.01283
0.001141
-8.019e-05
-0.0006497
0.000521
0.0001287
-0.001197
-5.107e-05
9.781e-05
-3.645e-05
-6.135e-05
0.0001492
0.0001553
-0.0003045
-0.007514
0.00462
0.002894
0.0001018
0.0002751
-0.0003769
0.0005487
0.00166
0.0003568
0.0002317
-0.0005886
0.001326
-0.001055
-0.0002708
1.707e-05
0.0003018
-0.0003188
-0.0002687
0.0006445
-0.0003758
-2.034e-06
1.584e-05
-1.38e-05
0.2199
-0.2708
0.05088
0.001176
0.002993
-0.004169
-7.012e-08
1.957e-07
-1.256e-07
-0.0001901
4.221e-05
0.0001479
9.984e-06
-9.984e-06
0.001679
3.52e-05
-0.001715
0.2683
-0.03922
-0.2291
0.0001476
-0.0002106
6.301e-05
3.052e-05
1.641e-05
-0.00044
0.0005468
-0.0001068
-0.00155
-0.0003007
0.001851
-0.001402
0.003992
-0.00259
2.366e-06
-0.0001496
0.0001472
0.0004387
0.001101
-0.004162
0.003485
0.000677
-0.0002148
0.0002079
6.927e-06
-2.008e-07
-2.653e-05
2.673e-05
1.595
-0.6648
-0.9298
1.595
-0.6648
-0.9297
-0.0001161
-7.403e-05
0.0003836
0.001698
-0.002082
1.427e-06
-3.729e-06
2.302e-06
0.003795
-0.004517
0.0007225
-0.08331
0.1011
-0.0001942
0.0001791
1.507e-05
-0.1787
0.9672
-6.275e-05
0.0002791
-0.0002163
4.283e-05
-7.097e-05
2.814e-05
0.0001798
-0.0001182
-6.158e-05
-2.558e-06
-3.193e-06
5.75e-06
0.001205
-0.002141
0.0009363
-0.0005088
0.0005068
2.044e-06
0.0001483
-0.0002754
0.0001271
0.1552
-0.04339
-0.09795
-0.1726
0.2705
-1.841e-05
-5.668e-05
7.509e-05
-3.546e-05
-7.147e-05
0.0001069
0.001063
0.0002628
1.729
-0.1343
1.729
-0.1343
-0.0001629
0.0004457
-0.0002828
-1.419e-06
-2.902e-07
-0.0006933
0.0006153
7.803e-05
0.0002231
-0.0002129
-1.012e-05
-0.004129
-0.003385
-0.09143
-0.05809
0.1495
-0.0001422
0.0001553
-1.313e-05
5.923e-06
-4.728e-06
-1.194e-06
-0.004655
-0.003573
0.008228
0.0001123
0.0001556
-0.0002679
0.000122
5.778e-05
5.069e-05
0.000131
-0.0003735
0.000434
-6.052e-05
-0.001057
0.001543
-0.0004865
0.0003984
-0.0003674
-3.105e-05
4.596e-06
-4.09e-06
-5.068e-07
-0.0004855
0.0003855
-0.0007507
0.001204
-0.000453
0.0002819
-0.0004377
0.0001558
0.01601
-0.03147
0.01545
0.0005269
-0.0005555
2.86e-05
0.002104
-0.003507
-6.522e-08
1.598e-07
-9.455e-08
-0.0001768
-0.0001967
6.438e-06
0.0002714
-0.0002778
2.373e-05
-5.866e-05
3.493e-05
-0.002267
-0.001895
0.004148
-0.006559
0.002411
-0.0003611
0.0003208
4.03e-05
-8.536e-07
2.727e-05
-2.641e-05
0.0007268
0.0003319
-0.001059
-0.0003423
0.01172
-0.01138
0.08481
0.5853
-0.6701
-0.09447
0.08296
0.01151
-3.711e-05
6.977e-05
-3.266e-05
-0.001834
0.0009308
0.0009031
-2.803e-05
-9.227e-05
0.0001203
0.001857
-0.002222
0.000365
9.615e-05
-2.834e-05
-6.781e-05
0.002242
-0.003257
0.001015
0.05924
0.06178
-0.121
-0.007207
0.005074
0.002133
-0.0003553
0.0006298
-0.0002744
-0.006751
0.00752
-0.0007684
-1.328e-05
9.474e-06
3.804e-06
0.0001017
-9.423e-05
-7.425e-06
0.04511
-0.03114
-0.01397
0.0009063
-0.0006736
-0.0002326
-0.000242
0.0001821
5.995e-05
0.3801
-0.4873
0.1072
-0.0002147
0.0002418
-2.711e-05
0.0003754
-0.0002145
-0.0001609
0.4286
-0.1914
-0.2372
-1.652
0.3931
1.259
-0.0005298
0.0003794
0.0001504
2.645e-07
-3.019e-07
3.745e-08
0.002319
-0.03013
0.02781
0.0005529
-0.0003188
-0.0002341
-0.01498
-0.01951
-1.35e-05
2.668e-05
-1.317e-05
-5.654e-05
8.027e-05
-9.255e-06
1.573e-05
-6.472e-06
-1.869e-06
1.785e-06
8.425e-08
-0.00372
0.003111
0.0006086
0.7333
-0.6541
-0.07922
-0.0005142
0.001425
-0.0009107
0.0004871
-0.0005347
4.755e-05
0.3857
0.04288
-0.167
0.1715
-0.004536
0.0006934
-0.0005436
-0.0001467
-0.001404
0.0001096
-9.454e-05
-1.508e-05
0.002286
-0.0006068
-0.0002754
0.0002158
5.959e-05
-0.3117
0.2716
0.04016
3.714e-06
-3.875e-06
1.614e-07
-0.0002111
-0.0004386
0.6784
-1.154
0.4751
-0.007924
0.005731
0.002193
0.2836
-0.2536
-0.02995
-0.00119
0.0007302
0.0004601
0.0001313
-7.965e-05
-5.167e-05
0.0003639
-0.001675
0.001311
-3.555e-05
0.0006148
-0.0005793
-0.004391
-0.003533
0.0005767
0.0003296
0.6697
-0.5849
6.219e-07
7.372e-07
-1.359e-06
-3.853e-05
-0.0001763
3.154e-06
2.769e-06
-0.004754
-0.001849
0.006604
-0.0002357
0.0006812
-0.0004455
0.0002946
0.00067
-0.0009646
-0.2839
0.186
4.243e-05
-7.099e-05
2.857e-05
0.004553
-0.0007582
-0.04382
-0.05065
-0.0001082
2.59e-05
8.23e-05
0.01995
0.02217
-0.04211
-7.492e-05
0.0001177
-4.28e-05
-2.692e-06
2.418e-05
-2.149e-05
0.0001708
-0.0001047
-6.614e-05
0.0001066
6.423e-05
0.002516
-0.001366
0.0002086
-0.001405
-8.986e-06
-4.292e-06
-0.000154
0.0009289
-0.000775
-0.000114
-0.0001281
-0.001155
0.0002851
0.0008703
-0.0002172
-0.0003126
6.855e-05
-6.7e-05
-1.55e-06
-5.71e-07
0.0001022
3.266e-06
-3.266e-06
-3.571e-05
-0.0004498
4.834e-05
8.297e-05
-0.003726
0.001062
0.002664
-0.0009861
0.001788
-0.0008022
-0.1811
0.08966
0.0002586
5.628e-05
-0.0003149
0.0001488
-0.0001268
-2.203e-05
-9.697e-05
0.0001088
-1.18e-05
-0.004096
0.002997
0.001099
-1.325
0.9359
0.3891
-1.303e-06
-1.85e-06
3.153e-06
4.027e-07
-1.67e-07
-2.356e-07
-3.502e-05
-3.175e-06
3.819e-05
4.831e-06
-5.417e-06
5.858e-07
-1.576e-07
1.204e-07
3.724e-08
-0.001675
0.001495
0.0001798
-0.8704
0.6466
0.2238
-0.0005183
-0.000251
0.0007693
-0.00014
-0.0001593
-4.12e-05
-2.485e-06
4.368e-05
-0.0006533
0.0006845
-3.121e-05
-5.078e-05
0.003312
-0.003261
-0.0001067
-0.0005866
0.001322
-0.001902
0.0005793
-0.006646
0.2266
3.634e-05
1.115e-05
-4.748e-05
-4.13e-05
6.985e-05
-2.855e-05
-2.745e-05
1.753e-05
9.912e-06
2.83e-06
1.522e-06
-4.352e-06
0.000478
-0.0003721
-0.0001059
0.02068
-0.01142
-0.009262
0.1284
-0.05592
-0.07245
-0.4483
1.127
0.000193
-3.973e-05
-0.0001532
0.1738
-0.2709
0.09706
9.833e-05
-4.745e-05
-5.088e-05
-0.0004367
0.0005005
-6.384e-05
-0.1429
-0.005044
0.1479
-8.609e-08
6.855e-08
1.753e-08
-0.4468
0.164
0.2828
0.002318
-0.007146
0.004828
-0.0258
0.1229
-0.09708
0.0003692
-0.0003347
-3.451e-05
0.0003416
0.0006421
-0.0009837
-0.002794
0.002166
0.0006284
0.0001248
0.0002736
-0.003265
0.001078
0.002188
-5.93e-06
-2.152e-05
-4.027e-07
-1.466e-06
-1.753
0.1009
-0.001252
0.0006333
0.0006191
3.453e-05
-6.169e-05
2.716e-05
-0.0001008
0.0001081
-7.325e-06
9.411e-05
-0.0001607
6.662e-05
-0.001111
0.001043
6.802e-05
0.6953
0.03795
0.01618
-0.009652
-0.006532
-0.0001546
-0.0001208
0.006795
5.633e-05
-0.006851
0.0004446
-0.0005395
9.492e-05
-0.0003837
-0.00145
-0.0004683
0.0003246
0.0001437
5.56e-07
4.275e-06
-0.001033
0.001002
3.028e-05
0.009892
-0.04182
0.03193
-0.0002314
-0.0002672
0.0004986
-4.354e-05
-0.0001711
0.0001381
8.496e-05
6.239e-05
0.0002362
-0.0002986
-0.2432
0.6439
-0.4008
-0.002323
-0.001773
5.498e-05
-9.21e-05
-0.153
0.09923
0.05379
-7.418e-05
-0.0002291
0.0003032
0.3782
-0.6214
0.5182
0.2598
-0.7781
-0.0001714
0.0001847
-1.339e-05
-0.0004236
0.0002607
0.0036
-0.02359
0.01999
-0.1077
0.001648
-0.00151
-0.0001385
3.463e-05
-4.474e-05
1.011e-05
2.038e-07
1.989e-07
0.001229
0.01195
-0.01318
1.211
-0.8289
-0.3825
0.0002158
-0.0001948
-2.096e-05
0.0001386
-0.0002438
0.0001052
0.0004079
-0.0004082
3.047e-07
5.381e-05
-1.219e-05
-4.162e-05
-0.6168
0.3426
0.2742
-0.008651
0.002353
0.006298
0.0001803
-0.000931
0.0001404
-0.0001767
3.628e-05
0.0001287
0.0003585
0.0003343
-0.0001003
-0.000234
-0.3839
-0.4865
0.1273
0.02787
-0.001168
-2.221e-05
-2.825e-05
-0.0003328
6.873e-06
3.112e-06
-0.002414
0.001804
0.0006096
0.0691
-0.0439
-0.0252
0.0005622
-0.0005977
-0.001788
-0.001932
-0.03808
0.0404
1.114
0.09783
-0.0001635
-0.0002616
0.0004252
0.1112
0.1724
0.0001173
-0.000146
2.863e-05
-1.376e-05
-0.0004262
-0.004987
0.0001233
0.004864
-4.234e-07
3.533e-07
-0.1196
0.172
-0.05242
7.638e-05
1.976e-05
-0.000339
0.0004408
-0.004484
-0.00102
0.005505
2.408e-05
-2.182e-05
-2.258e-06
-0.0004433
-6.549e-05
-0.0003728
4.705e-05
0.0003257
6.709e-05
-7.466e-05
7.572e-06
-0.5787
1.124
-0.5454
-7.458e-05
5.802e-05
1.656e-05
0.01722
-0.003534
-0.01369
0.01605
-0.04082
0.02478
-0.07204
0.4522
-0.968
0.4371
0.5309
0.005743
-0.000548
-0.005195
1.645
-0.8923
-0.7529
0.07305
-0.6416
0.5686
-0.0002125
0.000253
-4.047e-05
-0.0111
0.01076
-0.0006579
0.001004
-0.0003456
1.311
-0.4558
-0.8553
0.0002706
3.307e-05
-0.0003036
0.002048
-0.002352
0.0003039
3.667e-06
-3.667e-06
-0.0001836
6.951e-05
0.0001141
-0.0004585
0.0001032
-0.000892
0.003134
0.001003
-0.0008723
-0.0001305
-0.0001564
9.936e-06
0.0001465
-0.0004758
0.0003384
0.0001373
0.6774
-1.256
-1.023
-0.5131
1.536
0.08729
-0.2069
0.0002296
0.0001119
-0.0003415
-0.0002688
-0.0004062
0.000675
-0.005746
-0.02753
0.03327
0.0002196
0.0002585
9.494e-05
5.261e-05
-2.596e-05
7.057e-05
-4.461e-05
0.001937
-0.002774
0.0008374
-0.05163
0.04275
0.008887
-4.686e-05
-1.23e-05
5.916e-05
5.834e-05
5.727e-05
-0.0001156
-0.02852
-0.02312
-0.4075
0.6297
-0.2222
2.408e-05
4.447e-05
0.002507
-0.001302
-3.061e-05
-0.0001589
0.0001895
-0.3038
0.3315
-0.02764
-0.001069
1.41e-05
-3.965e-05
-1.074e-05
5.039e-05
0.0003647
-0.001421
0.3069
-0.1092
-0.1977
-0.002013
0.006161
-6.849e-05
8.402e-05
-1.553e-05
-0.13
-0.0355
0.1655
0.0002297
-0.0001958
-3.389e-05
0.08228
0.04609
-0.006169
0.001398
0.004771
1.283e-05
-0.000121
1.124
-0.8706
-0.2534
0.001329
-0.001501
0.0001726
0.005249
-0.000759
-0.00449
-3.58e-05
-0.0006221
-0.0002684
-0.0002
-0.2901
-0.1567
3.528e-05
-7.254e-06
-2.802e-05
-0.00013
0.000138
-7.99e-06
0.0001646
3.969e-05
-0.0002043
0.000799
0.0008492
0.003163
-0.001628
-0.001535
-0.0002206
0.0003599
-0.0001393
-0.5434
0.9523
-0.4089
6.897e-05
-0.0001018
3.282e-05
0.000552
0.04121
-0.04177
-0.0003434
0.002201
-2.812e-05
1.66e-05
1.152e-05
-1.343e-06
1.206e-06
1.373e-07
0.0002306
-0.0003068
7.622e-05
-0.001255
0.0003141
0.0009411
-0.0001821
2.567e-05
-0.04402
-0.02336
0.06737
-9.704e-05
-0.006654
1.777e-06
2.82e-06
0.02626
0.01649
4.167e-05
-6.697e-05
2.53e-05
1.128e-07
-1.174e-07
4.578e-09
-0.01456
0.00776
0.006796
0.01822
-0.003906
-0.01432
0.004932
-0.002911
-0.00202
0.3686
-0.9895
0.6209
1.691e-05
-2.741e-05
1.05e-05
-0.0003855
0.0003267
5.881e-05
-1.429
0.4058
-0.0001267
-4.972e-05
0.0001764
-1.304
0.6879
0.6157
1.968e-05
-9.153e-05
7.185e-05
-0.003113
0.01729
-0.01418
-0.001224
-0.002041
2.721e-05
-0.0001021
-0.01831
0.004014
0.01429
-0.0005506
-0.0006367
0.001187
-0.008039
0.04278
-0.03474
0.0002837
-0.0001192
0.007442
-0.007051
-0.0003909
3.981e-05
-1.983e-05
-1.998e-05
0.0005728
0.001368
-0.001941
0.0001677
-0.0002371
6.938e-05
-0.1758
0.05688
0.1189
5.71e-05
-3.325e-05
-2.385e-05
-0.3372
-0.0002232
0.0001707
5.25e-05
0.000275
0.0002779
-0.9497
1.033
-0.08359
-6.024e-08
3.247e-07
0.01057
0.005618
-0.004181
0.001038
0.003144
0.0001834
-5.734e-05
-0.0001261
5.394e-07
3.174e-06
-0.0005556
-0.001692
0.002248
1.491e-05
-1.976e-05
4.845e-06
-9.975e-05
-2.606e-06
0.0001024
-3.705e-05
0.0002047
-0.2751
0.7933
3.355e-05
2.026e-05
-4.025e-05
6.544e-05
-2.518e-05
8.51e-05
-8.339e-05
-1.714e-06
-7.197e-05
-0.001039
-0.4019
-0.5478
3.685e-06
-4.212e-06
5.275e-07
-0.001072
-8.357e-05
0.8068
-0.4382
0.0007314
0.0003881
-0.00112
-0.0002362
0.000177
5.918e-05
0.0001647
-0.0002913
0.0001265
-0.0001452
0.0001608
-1.552e-05
-0.7918
0.3843
0.0001114
-0.0001576
4.623e-05
-3.418e-05
-4.041e-05
1.267
-0.6522
-0.6149
3.132e-05
2.579e-05
0.0002277
0.0002362
-0.000464
3.551e-05
0.0007535
0.000344
-0.001098
-0.0003623
2.67e-05
0.0003356
0.0002282
-0.0003423
0.0001141
0.0007695
-0.0001826
-0.0005869
0.0001082
-0.0001923
8.409e-05
0.01627
-0.002732
-0.01354
1.142
-1.224
0.08212
3.119e-05
-3.204e-05
0.0002061
-0.0007203
0.0021
0.0002899
-0.002389
4.4e-06
-2.974e-06
-0.000593
-0.0006622
0.003657
0.01357
-0.0001621
-7.406e-05
-0.0007685
-0.0009063
-0.001976
-0.003799
0.005775
1.543
-0.6399
-0.9026
-0.004748
0.001316
0.003432
-0.01439
-0.1157
0.7841
0.256
-1.04
-0.2176
0.07475
0.0005639
-0.0008949
0.000331
-0.0001681
-0.0003077
-0.00115
-0.003837
-0.3469
0.03516
0.08222
0.008451
-0.09067
0.004561
-0.004548
-1.328e-05
-0.001524
0.003181
-0.001657
0.01545
-0.00588
-0.009571
0.0001499
-0.0001779
0.004169
-0.002946
-0.001223
-0.09545
0.1572
-0.005888
0.008207
-0.1348
0.05267
0.08208
0.004961
0.0007814
0.000106
-8.162e-06
5.132e-05
0.0004756
-0.0259
0.007599
0.01084
0.00461
-2.253e-05
0.000463
-0.0004404
-0.5689
-0.04794
-0.0003276
0.0002554
7.216e-05
1.202
0.4428
-0.0008798
-0.0004094
0.001289
-0.001016
0.001035
-1.896e-05
-0.000182
-0.0002036
-1.249
-0.07562
0.1784
-0.2042
-0.0002955
-0.0002866
0.0005821
-6.967e-06
2.079e-05
-1.383e-05
1.55e-07
-2.202e-07
0.0037
-0.008355
0.003904
-0.008659
0.0006723
0.0003305
9.688e-05
9.609e-05
-0.002107
0.002993
-0.0008869
1.303
-0.475
-0.8284
-0.004064
-0.004587
-0.002416
0.002525
-0.000109
0.02433
0.1034
-0.1277
-0.01903
0.03287
-0.01384
-0.000101
0.0002493
2.446e-05
-2.844e-05
3.982e-06
0.0003741
-0.0006429
0.0001854
-0.000183
0.7556
0.1086
-0.8641
0.01125
0.07283
-0.08409
-7.196e-05
0.0002137
-0.0001418
0.0005178
-0.001117
0.0005995
0.543
0.07426
-0.6172
0.0004799
-3.535e-05
0.01332
-0.002388
-0.01093
1.013e-05
-6.395e-06
-3.732e-06
-0.0006923
0.0006907
1.545e-06
0.000405
-0.0003879
-0.001745
-0.001469
0.003214
-0.00472
0.0005388
0.0002109
-0.00016
-5.096e-05
0.9053
0.2367
-0.0007282
0.001045
-0.0003166
-0.0001873
0.0001963
-9.074e-06
0.002985
0.001947
-8.276e-05
2.741e-05
5.535e-05
0.0004006
6.018e-05
-0.0004608
0.438
-0.1697
2.473e-05
-2.226e-05
-2.47e-06
0.0001111
6.248e-06
-0.0003211
0.0001285
0.0001926
-0.0001994
0.000164
3.147e-05
-2.571e-05
-5.757e-06
8.358e-06
-0.0001797
-0.005641
0.008571
-0.002929
0.01823
0.0005713
-0.0188
0.0003757
-0.0002539
-0.0001218
0.001739
0.001424
-1.234e-06
4.271e-05
-4.148e-05
0.0001537
0.0002155
-0.0002012
-0.0008315
-0.0001343
-4.931e-05
-0.0002683
0.0002247
4.355e-05
0.04578
-0.1427
0.0969
0.6659
0.8767
-0.1144
-0.02034
-0.0001239
-9.929e-05
2.603e-05
0.0001898
0.8025
-0.2283
-0.5742
7.819e-06
-1.707e-05
-0.0003011
0.0002383
-0.1001
0.1459
-0.0002449
0.0009718
-3.41e-05
1.878e-05
1.532e-05
-0.03683
0.7065
-0.001419
0.001782
-1.357
0.1794
1.177
-0.0191
-0.01403
0.03313
0.00923
-0.009886
0.0006554
1.151
0.1605
-0.0002118
8.02e-05
0.0001316
-5.765e-06
5.07e-06
6.951e-07
0.03215
-0.03159
0.07855
0.06248
-0.141
0.0001174
-0.0004435
0.0003261
1.681e-05
1.847e-05
-0.003941
0.005117
8.475e-05
9.868e-05
-2.549e-05
-4.018e-07
2.589e-05
-4.579e-07
-2.804e-07
7.383e-07
-5.613e-05
-4.468e-05
0.0005541
0.001152
-0.001706
0.002799
-0.0008619
-1.221
0.3628
0.8577
-0.000117
9.438e-06
0.0001076
0.9615
-1.187
0.2255
-0.0007934
0.001135
9.939e-06
-8.892e-06
-1.047e-06
-0.001196
0.003836
-0.002639
0.0005568
-0.001437
-0.0005491
0.0007919
-0.0002428
-0.0006189
0.0003952
0.0002237
-0.7306
0.6938
0.7016
0.4224
0.0002743
-0.0003859
0.0001116
0.001211
0.00335
0.9823
-0.2267
-0.0002178
9.494e-05
0.0001228
0.06802
-0.04708
-0.02094
0.00269
-0.0021
-0.0005897
0.1352
-0.05691
-0.07832
-0.0001704
-0.0001839
0.0003544
-1.577e-06
1.38e-06
1.978e-07
-0.0001073
0.0001084
-1.035e-06
0.3133
0.9901
-0.0001267
0.0002759
-0.001476
-0.001318
0.006708
-0.003431
-0.003277
0.007903
-0.004077
-0.003826
-1.033
-0.2595
1.292
-2.91e-05
-3.39e-05
6.3e-05
0.000162
-9.968e-05
-6.232e-05
0.0006738
-0.0005499
-0.0001239
-0.003331
-0.002838
-0.0002107
-0.0001104
6.664e-06
-9.221e-06
-0.06195
-0.2029
0.2648
-0.0001762
-0.0001514
0.0001371
-0.0001074
-2.977e-05
-0.0002082
6.606e-05
0.3444
-0.1706
-0.0005761
8.989e-05
0.0004862
-0.2825
1.067
-0.001199
0.0004083
0.0007911
0.0002337
5.258e-05
-0.0002863
-0.2064
-0.1714
0.3778
-0.0002106
-2.582e-05
0.0002364
0.001313
-0.001611
0.0002988
-6.787e-05
0.0008841
-0.0008162
-6.548e-06
-0.001934
0.00194
0.0001529
0.0002228
-0.002426
-0.0013
0.0002831
0.000282
-0.0005651
0.05302
-0.07204
0.01902
-3.236e-05
-0.001037
0.0001219
-0.0001551
3.318e-05
-0.0007786
0.001757
-0.0009785
-0.0778
-0.07523
0.01227
-0.01322
0.0009531
-0.002757
0.003189
-0.0004322
0.6864
-3.989e-05
-5.708e-05
0.3831
-0.2537
-0.1294
0.04007
-0.01801
-0.02205
-0.0001897
0.0001533
3.636e-05
-0.2845
0.07809
1.06
-0.4252
-0.635
-0.002242
-0.002506
0.0001493
-0.0001799
0.7065
0.096
-0.4589
0.7905
-0.3316
-0.0001272
7.085e-05
5.631e-05
0.04056
0.02854
-0.01943
0.0305
-0.01106
9.784e-05
-9.687e-05
-9.729e-07
-0.000746
0.001439
-0.0006928
-0.0001134
0.0002648
-0.0001513
-0.0265
-0.1718
0.1983
-0.0004829
0.03312
-1.39
-1.529e-05
1.686e-05
-1.569e-06
0.0001345
2.298e-06
-0.0001368
8.847e-05
0.02619
-0.02628
-3.415e-05
-7.837e-05
0.0001125
0.02905
-0.07366
0.04461
-0.2833
-0.01893
0.3022
0.000248
-0.0002467
-1.342e-06
0.002662
-0.0006144
-0.0001509
-0.0001303
0.0002812
0.002118
-0.001327
-0.0007913
4.675e-05
-6.569e-05
1.893e-05
2.505e-05
-2.445e-05
-6.063e-07
0.00121
-0.001117
-9.231e-05
-1.356e-05
1.046e-05
3.097e-06
0.0003839
-0.0003762
-7.737e-06
0.1511
-0.6482
0.4971
0.001831
-0.001613
-0.0002178
-0.001014
0.001219
-0.0002052
-6.362e-05
4.961e-06
0.0003637
-0.0004856
0.0001219
0.0005718
9.704e-05
-0.0006688
-8.968e-05
-1.955e-06
9.163e-05
0.009954
-0.05377
0.09274
0.2244
-0.3171
-0.001276
5.753e-05
0.001218
0.001655
-0.001503
-0.0001519
-5.855e-05
9.891e-06
4.866e-05
0.1413
0.02049
-0.1617
-0.0008675
0.0005275
0.0003399
0.000163
0.001081
-0.001244
-0.0009193
0.0007907
0.0001286
-0.0004523
0.000251
0.0002013
-0.1846
0.2177
-0.03308
0.001345
-0.0008736
-0.0004718
9.618e-05
6.583e-05
-0.001403
0.003947
-0.002543
-0.001369
0.0005176
0.000851
-0.0009661
-4.784e-05
0.001014
1.435
-1.167
-0.2679
0.0004611
-0.000242
-0.0002191
5.036e-05
7.75e-05
-0.0001279
-0.0004363
0.0003417
9.458e-05
-0.6303
-0.1709
0.8012
0.0005073
0.0004962
0.2
-0.2812
0.08122
-0.0001453
0.000129
1.635e-05
-0.0003916
0.001714
-0.763
-0.205
0.02064
0.6705
-0.6911
-0.05349
0.1201
-0.06656
-1.159e-05
-0.0001066
0.0001182
-3.89e-05
3.556e-05
3.342e-06
-0.0001474
-0.0003696
0.000517
-0.01235
0.009526
0.002826
-0.001813
0.001756
5.667e-05
-9.476e-05
-4.458e-05
0.0001393
0.0005301
-0.0009493
0.0004191
-6.083e-07
-3.075e-07
9.158e-07
0.0006129
1.53e-05
-0.0006282
0.7902
-1.309
0.5192
0.1048
0.7455
-0.8502
-0.246
0.3268
-0.08081
-7.617e-06
7.617e-06
0.4568
0.8299
-1.287
0.003127
-0.002045
-0.001082
0.008386
-0.0111
0.002711
-0.000611
0.003519
-0.002908
0.0003072
-0.0003479
4.073e-05
0.001258
-0.000761
-0.0004973
-2.06e-07
7.474e-07
-5.414e-07
0.0002559
-0.0001116
-0.0001444
0.001441
0.0007982
-0.002239
1.177e-05
-2.908e-06
-8.86e-06
-1.954e-06
3.333e-05
-3.137e-05
-0.8957
1.071
-0.1753
7.113e-06
-2.305e-05
1.593e-05
0.0002461
-0.0004397
0.0001936
1.017
-0.9634
-0.05378
-2.855e-05
1.333e-06
2.722e-05
-0.001412
4.285e-05
9.224e-05
4.068e-05
-0.0001329
-0.000196
-9.926e-06
0.0002059
-0.03145
0.21
-0.1786
-0.0004932
-0.0001133
0.0006065
-0.001538
0.003316
-0.001778
0.001728
-0.0006933
-0.001035
0.0003918
0.0006998
-0.001092
-0.0003541
0.0001417
0.0002124
-5.082e-05
3.675e-06
4.714e-05
1.876e-05
-1.418e-05
-4.581e-06
-0.005205
0.00911
-0.003905
0.002613
-0.001306
-0.001307
-0.003066
0.005033
-0.001968
-0.0001541
-5.892e-05
0.000213
-0.0005121
-0.0001737
0.0006858
-2.376e-05
6.005e-05
-3.629e-05
-0.0002153
-0.000245
0.0004602
-8.037e-05
5.845e-05
2.193e-05
-0.003267
-0.006965
0.01023
0.0001806
0.0009677
-0.001148
0.7094
-1.254
0.545
-0.2987
0.06058
0.2381
0.633
-0.277
-0.356
0.0009633
-0.0009582
-5.041e-06
3.797e-05
7.361e-05
-0.0001116
0.005193
-0.002608
-0.002585
-0.003735
-0.003472
0.004123
0.00378
-0.002397
0.001206
0.001192
-0.0008213
-0.001114
0.001936
0.0004342
0.0001365
-0.0005707
-1.049e-05
1.049e-05
-6.373e-05
-0.0001228
0.0001866
-0.0305
-0.2528
-1.159
0.2288
0.93
-1.386e-05
8.497e-06
5.362e-06
1.034e-05
-1.034e-05
1.307
-0.5179
-0.7891
-0.002382
0.004927
-0.002545
0.000377
-0.0002104
-0.0001666
-0.0872
0.07629
0.01091
0.0005123
0.0001077
-0.0006199
2.076e-06
-2.076e-06
8.974e-06
-1.009e-05
1.119e-06
-0.07349
0.1262
-3.107e-06
2.923e-06
1.843e-07
-3.245e-05
3.245e-05
3.635e-05
8.311e-05
-0.0001195
-0.004601
0.00153
0.00307
-4.374e-05
8.726e-06
-0.0002557
0.000418
-0.0001623
2.206e-05
-1.34e-06
-2.072e-05
0.825
0.03255
-0.8576
-0.00021
-0.0005985
0.0008086
0.005466
-0.0004298
-0.005036
-0.1203
-0.05545
-3.474e-05
1.873e-05
1.601e-05
0.1932
-0.3867
0.1935
1.016
-0.3605
-0.6552
0.002029
-0.0005602
-0.001469
-0.0001133
-0.0001813
0.0002946
-0.02127
0.02004
0.001232
-0.000607
0.0002081
0.0003989
0.02095
-0.02945
0.008498
-1.181
-0.1825
1.363
-0.0002976
0.0002116
8.6e-05
0.0003294
-3.995e-05
-0.0002894
0.0834
-0.05435
-0.0006784
0.001269
-0.0005907
0.004704
-0.005759
0.001054
0.3319
0.03915
-0.3711
-8.353e-06
8.49e-06
-1.369e-07
0.000449
-0.0009208
0.0004717
3.109e-05
4.07e-05
-7.179e-05
0.08067
-0.1214
0.04076
-0.7617
0.9649
-0.2032
-1.306e-07
-1.454e-07
2.76e-07
0.5035
-0.556
0.05247
-7.44e-06
-8.368e-05
9.112e-05
-1.405e-05
-3.735e-05
5.141e-05
-0.0006424
-0.00616
0.006802
3.05e-05
0.0008607
-0.0008912
-1.174e-06
-0.0001735
0.0001747
0.001596
0.0004622
-0.002058
-9.528e-05
2.939e-05
6.589e-05
-9.529e-06
9.529e-06
0.0006184
-0.0001852
-0.0004332
0.0002386
-0.001644
0.001406
0.0017
-0.0004941
-0.001206
-3.268e-06
3.268e-06
0.002029
-0.003579
0.00155
5.126e-06
-5.091e-06
-3.487e-08
-0.4078
0.4669
-0.05908
-3.422e-05
-0.0009644
0.0009986
-0.0008243
-9.447e-06
0.0008338
0.0002642
-0.0009063
0.0006421
0.1198
-0.2039
0.08408
-0.003271
0.001976
0.001294
0.6761
-0.3658
-0.3103
6.131e-05
-4.465e-05
-1.666e-05
-0.0002582
0.0001389
0.0001193
-5.161e-06
9.791e-05
-9.275e-05
-0.001211
0.001392
1.366
-0.8552
-0.5109
0.005534
0.001518
-0.007051
-0.0005635
0.0001605
0.000403
0.01204
-0.01018
-0.001852
3.044e-07
-1.989e-07
-1.055e-07
0.001256
-0.0001902
-0.001066
1.7e-05
-2.797e-05
1.097e-05
1.601e-05
-3.011e-05
1.41e-05
0.00671
0.004066
-0.01078
-0.07421
0.02411
0.0501
0.002114
-0.000355
-0.001759
0.0002068
-0.0001349
-7.189e-05
-0.9635
1.508
-0.5448
0.03722
-1.001
-0.001296
0.002545
-0.00125
0.001217
-0.0004632
-0.003681
0.001254
0.002427
3.856e-05
2.351e-05
-6.207e-05
7.431e-05
2.323e-05
-9.754e-05
-0.005589
0.0018
0.003789
-0.08684
1.281
-1.194
-0.4888
0.7035
-0.2147
-0.0001881
-4.532e-05
0.0002334
-0.001015
0.0002912
0.0007236
-0.0001238
0.0001925
-6.868e-05
-0.02047
0.02407
0.00459
0.003061
-0.007651
1.601
-0.976
-0.6247
1.039
0.3967
-0.2191
0.2158
0.003338
3.204e-07
-1.35e-06
1.029e-06
4.804e-05
-3.774e-05
-1.031e-05
-7.592e-05
-0.0001193
0.0001952
1.144e-05
-1.144e-05
0.007426
-0.005891
-0.001535
7.842e-06
-0.0001577
0.0001499
0.2434
-0.4858
0.2424
2.635e-05
-9.732e-06
-1.662e-05
-0.0002249
0.0002259
-9.86e-07
0.02645
-0.01474
-0.01171
-0.0001143
-2.42e-07
0.0001145
1.002
-0.8662
-0.1361
-3.284e-05
-0.0001881
0.000221
-0.0419
-0.4559
0.4978
4.328e-05
-3.746e-05
-5.82e-06
1.733
-0.529
-1.204
0.03119
-0.03693
-6.091e-06
8.904e-07
5.201e-06
4.417e-06
-4.417e-06
1.511e-06
3.244e-09
-1.514e-06
-0.0008329
-0.0003665
0.0006424
-2.951e-05
-0.0003636
0.0002303
0.0001333
1.066e-06
7.497e-06
-8.564e-06
0.0004905
-0.0008614
0.0003709
-0.004238
0.002632
0.001606
-0.03838
0.0357
0.002678
0.03934
0.04405
-0.0003418
0.0004775
-0.0001357
-0.0004866
0.0003805
0.0001061
0.001806
-0.001837
3.104e-05
1.808e-05
-1.808e-05
-0.003694
0.003678
1.633e-05
-1.53e-06
-5.323e-05
5.476e-05
4.741e-06
-1.485e-05
1.011e-05
-1.493
0.4602
-0.0229
0.02207
0.0008289
-0.0004492
0.0004661
-1.697e-05
1.615
-0.9087
-0.7065
-0.0001999
0.0004191
-0.0002192
4.328e-05
0.001813
-0.001573
-0.0002401
0.0003705
-0.001076
0.0007055
0.0003925
-6.887e-06
-0.0003856
0.6324
-0.8923
0.2599
-2.079e-05
-1.147e-05
3.226e-05
-0.0005562
-0.0008554
0.0001434
-0.0001562
1.281e-05
-1.376
0.8446
0.5315
2.471e-05
-0.0002143
0.0001896
-0.004741
0.003667
0.001073
3.937e-05
-5.284e-05
1.347e-05
1.169e-06
-1.016e-06
-1.53e-07
-0.002257
0.001985
0.0002718
0.0005845
-0.0003447
-0.0002398
-2.826e-05
-5.45e-05
-0.0008467
-0.0004726
0.001319
-8.609e-06
8.237e-06
3.722e-07
0.001921
-0.003367
0.001447
-0.009821
-0.00615
0.01597
1.331e-06
2.161e-06
-3.492e-06
0.09331
-0.2079
0.1146
0.2844
0.05861
-0.343
1.423
-0.6324
0.0001106
3.144e-05
-0.000142
3.876e-05
-4.454e-05
5.781e-06
-0.0003661
-1.176e-05
0.0003779
-0.0002727
0.003922
-0.003649
0.00124
-0.0004412
-0.0007985
-0.0007788
0.001422
-0.0006432
-0.002083
-0.005193
0.007276
-0.000102
2.201e-06
-0.0001105
1.523e-05
-0.02001
0.01643
0.003576
-1.303e-05
-1.894e-05
3.196e-05
4.037e-05
3.451e-05
-7.488e-05
-0.0001798
0.0002856
-0.0001057
-1.972e-06
-1.346e-07
2.107e-06
6.065e-05
-6.065e-05
-0.04294
0.05283
-0.002355
0.005909
-0.003554
0.1713
-0.2706
0.09924
3.81e-05
-3.851e-05
4.078e-07
-0.0003061
0.000268
3.809e-05
0.002336
-0.0004171
-0.001918
-2.075e-05
2.496e-05
-4.217e-06
0.003941
-0.002154
-0.001786
0.0001242
-7.372e-05
-5.05e-05
0.0003864
0.01339
-0.01377
0.0001215
-0.0003028
0.0001812
0.001094
-0.001699
0.0006054
4.831e-05
-0.0001721
-0.1112
-0.2809
0.3921
0.0003597
0.001071
-0.001431
-3.349e-05
0.0009071
-0.0008736
-7.359e-06
-2.06e-05
2.796e-05
-0.0006526
-5.084e-05
0.0007034
-0.0001478
1.182e-05
0.000136
-0.0004521
-1.272e-05
0.0004648
-0.0006044
-0.000386
0.0009904
-0.001106
0.001072
-0.4081
-0.1383
0.5464
-2.405e-05
-1.069e-05
-4.903e-05
0.0001588
-0.0001098
-0.01667
0.07676
-0.06009
-1.504e-05
-0.0001807
-0.001428
0.0005796
0.0008487
0.0002366
-0.0002174
-1.921e-05
-1.076
-0.5903
-1.076
-0.5904
-1.154
0.9684
0.1858
4.021e-05
-5.741e-05
1.721e-05
-9.858e-06
-3.703e-06
-0.0008792
0.003656
-0.002776
1.184e-05
6.926e-06
-0.00352
0.003567
-4.729e-05
0.0138
-0.00709
-0.0006718
1.848e-05
-0.00281
0.01633
-0.01352
2.003e-05
-0.0001422
0.0001222
-0.001052
-0.0003207
0.001373
0.0001038
-6.02e-05
-4.364e-05
3.099e-05
-4.525e-05
1.426e-05
0.09227
-0.1553
0.06301
-0.0003259
0.0001639
0.000162
-0.001211
0.003819
-0.002609
-1.245e-05
2.946e-05
-1.701e-05
-0.1947
0.2367
-0.04209
-0.0001344
0.003164
-0.003029
0.0006605
-0.0009715
0.000311
-0.0003887
-0.0002836
0.0006724
9.355e-06
-9.355e-06
0.5815
0.1754
-0.7568
0.3772
-0.07112
-0.306
-6.367e-05
0.0001727
-0.000109
-0.009357
0.02669
-0.01733
-0.0005694
0.0009822
-0.0004128
0.0002393
6.577e-05
-0.000305
0.001874
0.000816
0.008438
-0.006451
-0.001986
-0.002163
0.003531
-0.001368
7.758e-06
-6.83e-06
-9.282e-07
0.648
-0.8861
0.2381
0.000536
0.0001661
-0.0007021
-2.876e-05
2.543e-05
3.325e-06
1.848
-0.2199
-1.628
0.1015
-0.118
0.01649
0.0004422
-7.69e-05
-0.0003653
0.04265
0.009718
-0.05237
-1.455e-05
-5.22e-05
6.674e-05
-4.606e-05
-1.213e-05
5.819e-05
0.001319
-0.001516
0.0001971
1.868e-06
1.024e-06
-2.893e-06
-0.000304
0.0009099
-0.0006059
0.0003462
-0.0001402
-0.000206
-0.009576
-0.0288
-3.618e-05
-2.313e-05
5.93e-05
0.0003384
0.0001087
-0.0004471
0.001525
-0.002253
0.0007274
-0.0003851
0.0006054
-0.0002203
-0.0004737
0.0002432
0.0002305
0.0001215
-0.0004041
0.0002826
-0.0001774
-5.101e-06
0.0001825
0.0002127
-0.0001746
-3.803e-05
0.8569
-0.8921
0.03522
0.04025
0.9769
-1.345
0.7658
0.5789
0.0005225
-0.0001145
-0.0002171
3.812e-05
0.000179
-2.772e-05
-5.334e-05
8.106e-05
0.08497
-0.02172
-0.06325
0.01245
-0.005651
-0.6778
0.4295
0.2483
0.0001103
-0.0006224
0.01662
0.03452
-0.05115
0.003135
-0.003103
-3.179e-05
0.0008959
-0.0005734
-0.0003225
0.0004791
-0.0007105
-0.0006007
-0.09728
0.09788
-0.06095
0.06746
-0.00651
-0.005233
0.01581
-0.01057
-0.02768
0.01386
0.01382
-0.001139
0.0007289
0.0004097
0.02135
-0.006653
-0.0147
-0.0002798
0.0002007
7.914e-05
-0.001113
0.000133
0.00098
-0.0558
0.01894
0.03686
0.000132
-0.0001333
1.309e-06
-0.00273
-0.0008584
0.003588
6.957e-05
-0.0001907
0.0001211
-0.0002377
-0.0001706
0.0004083
-0.4431
0.3618
0.08134
0.001013
0.0007272
-0.00174
0.0001364
-8.393e-05
-5.243e-05
-5.147e-05
5.147e-05
0.0003853
-0.0001485
-0.0002368
-0.009333
0.003921
0.005411
0.001316
0.001811
-0.0001076
-9.667e-05
0.0002042
-4.851e-05
6.249e-05
-1.399e-05
-0.005129
0.005466
-0.0003366
-0.00113
-0.00263
0.00376
-0.2096
-0.6547
0.8643
-0.01245
0.02665
-0.01419
-5.395e-05
-0.000272
-0.0006818
0.0006166
6.515e-05
-0.9561
0.2065
0.7496
-0.004339
0.008726
-0.004387
-8.907e-05
4.853e-05
4.054e-05
8.724e-05
-9.778e-05
1.054e-05
-0.004639
0.005618
-0.0009783
-0.0002144
6.322e-05
0.0001511
-0.02453
-0.0036
0.02813
0.0004715
-0.0002129
-0.001189
-0.01122
0.01241
-0.004103
0.01204
-0.007936
0.0002784
0.0004848
-0.0007632
0.0001963
-1.758e-05
-0.0001787
-5.394e-05
1.807e-06
5.214e-05
-0.006773
0.01307
-0.006299
0.4158
-1.101
0.6854
-1.361e-05
-3.118e-05
4.479e-05
0.308
-0.001042
0.09234
-0.02628
-0.06607
1.357e-07
-2.295e-08
0.001627
-0.002448
-1.444e-06
2.264e-06
-8.202e-07
0.07344
-0.05479
-0.01865
-0.001271
0.001025
0.0002457
-0.006371
0.009315
-0.002945
1.116
-1.117
0.001441
-0.0003144
8.121e-05
0.0002332
-0.001484
-0.001446
0.00293
-1.185
-0.03537
-0.0806
0.03664
0.04396
2.18e-06
-1.576e-06
-6.041e-07
1.164e-05
-1.164e-05
7.776e-05