/*--------------------------------*- C++ -*----------------------------------*\
| =========                 |                                                 |
| \\      /  F ield         | OpenFOAM: The Open Source CFD Toolbox           |
|  \\    /   O peration     | Version:  v2012                                 |
|   \\  /    A nd           | Website:  www.openfoam.com                      |
|    \\/     M anipulation  |                                                 |
\*---------------------------------------------------------------------------*/
FoamFile
{
    version     2.0;
    format      ascii;
    class       volVectorField;
    location    "5";
    object      U;
}
// * * * * * * * * * * * * * * * * * * * * * * * * * * * * * * * * * * * * * //

dimensions      [0 1 -1 0 0 0 0];


internalField   nonuniform List<vector> 
100503
(
(-8.211e-05 -0.0002951 3.816e-24)
(-0.0001008 -0.0003664 2.928e-24)
(0.0009192 -0.000136 1.674e-24)
(0.001559 -0.0002953 -7.716e-24)
(-0.0001188 -0.0003455 3.087e-24)
(-9.17e-05 -0.0003332 0)
(0.001597 -0.0002061 9.639e-24)
(0.007983 0.001514 0)
(0.01797 0.01133 5.557e-22)
(0.0004283 -0.0002048 -8.107e-25)
(0.005211 6.701e-05 2.436e-22)
(0.01126 0.02864 4.616e-23)
(0.05352 0.116 8.293e-22)
(0.06294 0.114 -6.956e-22)
(0.01591 0.006843 -8.081e-22)
(0.07385 0.1522 -1.128e-21)
(0.1086 0.187 2.84e-21)
(0.006881 0.0007157 -7.135e-22)
(0.002376 -0.0003744 -6.507e-24)
(0.06745 0.1189 -1.827e-21)
(0.02809 0.006052 5.218e-21)
(0.02781 0.002568 5.877e-21)
(-0.0001009 -0.000374 4.45e-24)
(0.002595 -0.0001288 -4.152e-23)
(0.002588 -0.0007931 5.489e-24)
(0.04205 0.001939 -6.016e-21)
(0.04393 0.01207 -3.025e-21)
(0.5262 0.03103 0)
(0.5118 -0.1557 0)
(0.02659 -0.004467 0)
(-0.0001131 -0.0003084 1.825e-24)
(0.2793 -0.1785 -2.907e-21)
(0.2854 -0.1814 1.436e-21)
(0.1222 -0.02503 3.567e-24)
(-0.07674 0.02576 5.786e-21)
(0.7616 -0.2689 -9.762e-23)
(0.1191 -0.02685 -3.581e-21)
(-0.103 0.0465 -9.958e-21)
(1 0.0001124 -2.805e-23)
(0.5376 -0.1618 -4.651e-23)
(0.2607 -0.05232 8.737e-22)
(1.004 -0.017 -1.25e-24)
(0.0009822 -0.0004484 -4.861e-24)
(0.8019 -0.2501 -2.517e-21)
(0.5177 0.04109 0)
(-0.1265 0.05149 1.855e-21)
(0.9111 0.2668 -1.318e-20)
(0.479 0.03042 5.304e-22)
(0.4566 -0.0986 0)
(0.5446 0.03442 0)
(0.11 -0.02452 0)
(0.2872 -0.09151 -1.325e-21)
(0.6382 -0.1418 -1.526e-20)
(0.4143 -0.2285 -3.215e-21)
(0.8053 -0.2506 2.866e-21)
(0.5785 0.09797 0)
(0.7668 -0.1435 0)
(-0.1244 0.04665 -3.321e-21)
(0.5065 -0.1849 0)
(0.0228 -0.04615 7.845e-22)
(1.042 -0.003097 1.259e-19)
(0.9632 0.1017 0)
(-0.000915 0.0002886 0)
(0.1543 -0.05291 2.343e-21)
(0.01505 0.0006444 -2.725e-21)
(0.8048 -0.24 -1.458e-21)
(0.9996 -0.006587 -4.705e-20)
(-0.01377 0.02505 -7.553e-21)
(0.07902 0.1685 3.503e-22)
(0.376 -0.1909 -3.778e-21)
(0.7859 -0.2067 2.195e-22)
(0.7829 -0.05791 9.648e-21)
(-0.1006 0.04001 7.296e-21)
(0.5354 0.03578 -3.184e-21)
(1.011 -0.2038 -8.601e-22)
(0.2903 -0.05085 0)
(-0.05109 0.02324 0)
(1 3.801e-06 -3.326e-24)
(1 3.915e-06 3.497e-24)
(0.1639 -0.05539 -7.468e-22)
(1.185 0.4107 8.744e-21)
(0.01168 -0.008084 6.686e-22)
(1.071 -0.1869 0)
(1.004 -0.01657 1.595e-24)
(-0.1072 0.04939 7.909e-21)
(1 0.0001118 2.885e-23)
(-0.1211 0.05371 6.15e-21)
(-0.0572 0.02095 3.381e-21)
(0.1593 -0.05594 -2.703e-21)
(0.01396 -0.01111 -9.839e-22)
(0.6878 -0.2556 3.7e-22)
(-0.1118 0.04788 0)
(-0.07797 0.03132 1.087e-20)
(1.005 -0.01653 -3.545e-21)
(0.993 -0.003396 -7.689e-22)
(0.225 -0.03821 0)
(-0.08559 0.03431 0)
(0.7749 -0.1428 0)
(1 3.452e-06 -2.588e-25)
(1 3.554e-06 -2.556e-25)
(-0.1029 0.04112 1.185e-20)
(0.0258 -0.004224 3.677e-24)
(0.5177 -0.1227 -1.011e-22)
(0.3612 -0.0292 -1.673e-23)
(0.6361 -0.1351 -2.393e-22)
(0.9949 0.02789 1.708e-20)
(-0.08971 0.03032 -7.1e-21)
(0.05872 -0.007657 5.734e-23)
(0.9363 -0.2136 -6.937e-21)
(0.2556 -0.05543 1.885e-21)
(0.1549 -0.05755 0)
(-0.07569 0.02567 -4.889e-21)
(0.3355 -0.2051 0)
(0.7679 -0.155 0)
(-0.122 0.05692 0)
(-0.007773 0.003687 0)
(-0.1272 0.05108 0)
(0.6734 -0.1904 8.505e-23)
(0.3846 -0.2198 -2.999e-21)
(1.053 -0.05499 0)
(-0.1257 0.05936 4.133e-21)
(0.8526 -0.07072 1.107e-20)
(0.0005338 -0.0004394 -3.928e-22)
(0.3397 -0.2066 0)
(0.2843 -0.181 2.95e-21)
(0.122 -0.02268 -9.47e-22)
(1.011 -0.2041 8.743e-22)
(0.8415 -0.2376 -1.273e-20)
(0.2619 -0.05598 -2.971e-22)
(0.1413 -0.02535 -9.41e-22)
(0.6182 -0.2528 -5.207e-21)
(1.265 0.291 -4.281e-20)
(1.004 -0.00137 1.472e-19)
(1.025 -0.03349 0)
(0.06792 0.000588 -1.953e-21)
(0.9384 -0.1595 1.884e-21)
(0.3209 -0.05413 -1.177e-21)
(0.9772 -0.1593 0)
(-0.06951 0.03178 -8.19e-21)
(0.986 -0.1895 -3.127e-21)
(1.056 0.02466 0)
(0.5317 0.2313 -7.524e-21)
(0.4613 -0.09185 -3.169e-21)
(1.119 -0.1526 7.379e-24)
(-0.01633 0.004923 -4.644e-22)
(0.2071 -0.03591 -1.157e-21)
(1.067 0.02822 -2.733e-20)
(0.5974 -0.1147 1.506e-21)
(0.2246 -0.04357 0)
(1.01 0.003635 -5.267e-20)
(0.3003 0.03895 -3.042e-22)
(0.3051 0.003175 5.648e-22)
(1.024 -0.001315 -1.196e-19)
(1 8.038e-06 1.132e-24)
(0.3282 -0.08959 5.103e-22)
(0.007402 -0.001737 0)
(0.9991 -0.08874 0)
(-0.1094 0.04273 0)
(0.907 0.2523 0)
(0.1647 -0.008107 0)
(0.1495 -0.0279 1.086e-23)
(0.02353 -0.002082 0)
(-0.003089 -0.01519 9.532e-23)
(0.8754 -0.2378 0)
(1.007 -0.004742 -9.731e-21)
(0.1462 -0.0119 0)
(0.4091 -0.2278 1.545e-21)
(1.024 -0.002405 1.041e-19)
(1.064 0.02437 2.17e-19)
(-0.09982 0.04593 -1.362e-20)
(0.7963 -0.2105 2.702e-22)
(-0.05344 0.01711 0)
(0.8123 -0.241 1.095e-21)
(0.2768 -0.1648 0)
(0.9904 0.004354 -2.716e-20)
(0.02258 -0.004478 -1.84e-22)
(0.4658 -0.09948 0)
(1 1.943e-05 -4.603e-25)
(0.8499 -0.242 -1.786e-21)
(1.005 -0.02438 -1.393e-20)
(0.6601 -0.2378 -3.066e-21)
(-0.08169 0.03751 -8.163e-21)
(0.8091 -0.2279 8.693e-22)
(0.5103 -0.1465 1.269e-21)
(0.8486 -0.2416 0)
(0.5997 -0.115 -2.36e-21)
(1.003 -0.001278 6.868e-20)
(0.01239 -0.007181 0)
(0.3071 -0.05407 -8.567e-22)
(0.05962 -0.008249 -3.771e-23)
(0.7589 -0.1872 -1.427e-21)
(0.5443 -0.1639 -1.305e-21)
(0.1317 0.01216 0)
(0.9934 -0.003179 9.45e-20)
(-0.05646 0.02113 1.351e-20)
(1.074 -0.1862 0)
(1.024 -0.03469 -1.538e-20)
(-0.1273 0.4224 6.781e-22)
(1.059 -0.02274 0)
(0.1284 0.001541 1.956e-21)
(0.04517 -0.04041 9.424e-22)
(0.1537 -0.04973 -2.124e-21)
(0.1503 -0.05156 1.417e-21)
(0.7635 -0.2685 8.646e-23)
(0.5773 0.04814 1.954e-21)
(-0.01628 0.004562 1.693e-21)
(0.6299 -0.2702 6.013e-21)
(0.2297 -0.04218 0)
(0.624 -0.2458 0)
(0.3378 -0.09038 4.967e-22)
(0.01416 -0.04366 3.426e-21)
(0.2209 -0.03957 1.179e-21)
(0.005874 -0.0005832 0)
(-0.127 0.05009 -5.963e-21)
(-0.0826 0.038 7.744e-21)
(0.9867 -0.2034 9.2e-22)
(0.7148 -0.2716 -4.749e-21)
(0.9959 0.02777 0)
(0.3019 -0.07072 0)
(0.1993 -0.03924 -3.508e-22)
(-0.06107 0.02535 0)
(0.9666 -0.2023 -1.544e-21)
(1 0.0001842 0)
(0.01195 -0.007671 2.04e-22)
(-0.001451 -0.00669 0)
(-0.05929 0.1266 -4.19e-22)
(0.01149 0.000939 -2.199e-21)
(0.002823 -0.001374 -2.888e-24)
(0.7501 -0.1622 3.749e-22)
(1.001 0.001273 5.592e-22)
(0.5248 -0.136 4.263e-22)
(0.2695 -0.05484 -1.557e-21)
(0.1316 0.01609 0)
(-0.114 0.04984 6.595e-21)
(1.07 -0.1858 5.775e-23)
(0.5274 -0.1261 1.52e-22)
(0.5102 -0.1929 -4.306e-21)
(1.04 -0.004493 -2.469e-19)
(0.1372 0.03253 -7.911e-22)
(-0.05537 0.02094 1.882e-21)
(0.06268 -0.01167 6.764e-22)
(0.006048 -0.007725 -5.495e-22)
(0.3236 -0.1296 -1.92e-22)
(1.12 -0.01824 7.482e-21)
(1.004 0.007276 1.483e-21)
(1 1.844e-05 4.647e-24)
(-0.09217 0.04182 -4.568e-21)
(0.9952 -0.005682 -3.105e-20)
(-0.1062 0.2462 -1.043e-21)
(0.01455 0.322 -1.88e-21)
(0.9845 0.0177 -1.899e-20)
(0.0009445 -0.0003844 4.043e-23)
(0.9962 0.008674 2.059e-20)
(1.083 -0.1737 1.047e-20)
(0.9817 0.001437 -2.846e-20)
(-0.1171 0.0539 2.264e-21)
(0.7708 -0.1329 1.385e-21)
(1.065 0.94 -4.288e-21)
(-0.1227 0.05725 9.458e-22)
(0.8071 -0.2635 0)
(0.06031 -0.009618 0)
(-0.003092 -0.01593 -1.018e-22)
(1 8.618e-06 0)
(0.7038 -0.1391 2.336e-21)
(-0.05665 0.01823 -8.987e-21)
(-0.06226 0.01775 -3.234e-21)
(0.3576 -0.05713 6.183e-22)
(-0.06772 0.04051 -2.326e-20)
(1.005 -0.005734 1.067e-20)
(0.9081 -0.2005 3.263e-21)
(0.2799 -0.1684 0)
(0.9021 -0.2216 -7.739e-21)
(0.3284 -0.08924 -1.894e-22)
(0.9346 -0.1596 -1.805e-21)
(0.3972 -0.2154 2.067e-21)
(0.01286 -0.0006728 2.112e-21)
(0.5977 -0.1406 8.882e-23)
(0.9321 -0.03446 -8.633e-20)
(0.4912 -0.1887 -4.649e-21)
(0.3297 0.04727 0)
(0.3693 -0.03118 0)
(0.3417 -0.07691 9.637e-22)
(1.004 -0.003235 -9.29e-21)
(0.9669 -0.2023 1.486e-21)
(0.0764 0.0007333 3.581e-21)
(1.001 0.06343 4.575e-22)
(0.3869 -0.2097 0)
(1.003 -0.003061 9.62e-21)
(1.006 -0.002685 -2.701e-20)
(0.2129 -0.04322 2.562e-21)
(-0.1006 0.04056 -5.786e-21)
(0.9934 -0.1304 -1.017e-21)
(1.061 0.02571 -1.68e-19)
(0.7152 -0.2666 3.339e-21)
(0.2236 -0.01413 -3.101e-22)
(-0.001431 -0.006621 0)
(0.9526 -0.1826 -7.494e-21)
(1.007 -0.0007749 1.53e-20)
(0.2162 -0.04438 -2.687e-22)
(-0.1073 0.04143 -5.153e-21)
(0.4331 -0.08365 -9.478e-22)
(-0.02927 0.01161 1.426e-21)
(0.9991 0.003783 0)
(0.8899 -0.2294 8.022e-21)
(0.6926 -0.1977 3.752e-22)
(0.06626 0.004456 -2.258e-21)
(0.4146 -0.2302 0)
(0.3728 -0.07073 -2.407e-21)
(1 0.001187 0)
(1.006 -0.01554 5.63e-21)
(0.6552 -0.2364 2.464e-21)
(0.2811 -0.06286 0)
(0.0203 0.002316 3.958e-21)
(1.142 0.4751 6.172e-23)
(1.157 0.05135 4.204e-20)
(0.547 -0.1574 1.618e-22)
(0.8765 -0.2384 -3.982e-22)
(0.9985 -0.08641 0)
(1.006 -0.000723 -2.667e-20)
(-0.1133 0.04844 1.784e-21)
(1.004 -0.02338 1.394e-20)
(-0.06794 0.02155 0)
(0.3993 -0.2035 2.004e-21)
(0.922 -0.2375 0)
(-0.001219 0.0003584 0)
(1.001 0.02393 1.774e-21)
(-0.0705 0.03302 7.105e-21)
(0.4245 -0.2325 5.763e-21)
(0.8969 -0.2315 -4.188e-22)
(0.1328 0.001611 1.825e-22)
(-0.1115 0.04793 1.939e-20)
(0.2067 -0.08245 2.826e-21)
(-0.04731 0.016 5.253e-21)
(1 1.926e-05 0)
(0.1382 -0.02508 -1.521e-22)
(1.028 -0.1737 8.702e-21)
(1.183 -0.01775 8.029e-20)
(1.01 0.003258 6.945e-20)
(0.9998 0.00133 -1.983e-20)
(1.088 -0.1806 0)
(1 2.022e-05 0)
(1.003 -0.001545 -2.666e-20)
(0.2753 -0.1326 1.375e-21)
(1.254 0.2893 1.616e-22)
(0.7218 -0.1136 0)
(1 9.514e-06 0)
(-0.1068 0.03405 6.549e-21)
(0.9222 -0.1953 0)
(0.007125 -0.0005492 3.752e-21)
(0.3113 -0.05543 5.186e-22)
(0.4907 -0.09815 2.14e-21)
(0.9963 -0.1909 3.659e-21)
(0.2244 -0.02513 1.743e-20)
(0.1838 -0.03542 0)
(0.3079 -0.06777 -7.405e-23)
(1 1.869e-05 0)
(1 6.389e-06 4.202e-24)
(0.9997 0.02347 -1.331e-20)
(0.2882 -0.09176 1.777e-21)
(0.5207 -0.1768 2.602e-21)
(0.9441 -0.08173 0)
(0.3318 -0.1368 0)
(0.002879 0.0226 0)
(0.2129 -0.03479 -3.562e-22)
(0.9156 -0.2324 1.52e-22)
(1.106 0.1523 0)
(0.1914 -0.03333 -9.12e-23)
(0.3085 -0.02119 0)
(1.1 0.154 0)
(1.003 0.002184 0)
(0.01729 -0.04267 -2.34e-21)
(0.69 -0.2543 2.794e-21)
(0.14 0.000549 6.384e-22)
(0.9946 -0.004286 9.398e-21)
(0.7704 -0.1432 1.485e-21)
(0.1677 0.05532 0)
(0.7854 -0.1589 -5.332e-22)
(0.9928 -0.0001165 4.555e-20)
(0.8427 -0.2361 4.53e-21)
(-0.06183 0.01743 0)
(1.089 -0.04113 3.871e-20)
(-0.1077 0.04947 0)
(1.002 0.007194 2.763e-21)
(1.017 -0.2101 0)
(-0.1279 0.4259 -1.077e-22)
(1.002 -0.0009247 0)
(0.6025 -0.2689 -5.612e-21)
(0.8044 -0.2406 3.968e-22)
(0.7362 -0.1156 -5.258e-22)
(0.3973 -0.2167 -2.085e-21)
(0.9964 0.008433 0)
(-0.02937 0.004018 0)
(0.1844 -0.03355 0)
(0.3239 -0.06325 -1.81e-22)
(0.7175 -0.2671 -3.292e-21)
(1.028 -0.1238 -3.022e-21)
(0.1091 -1.461e-05 0)
(1.002 -0.0005614 -8.535e-20)
(0.2207 0.08173 0)
(1.052 0.03787 4.968e-20)
(0.9875 -0.1606 3.285e-21)
(0.04474 -0.02881 1.42e-21)
(-0.002195 -0.001095 -1.212e-21)
(-0.1097 0.04198 4.245e-21)
(0.6225 -0.1245 -7.348e-22)
(0.1578 -0.03267 0)
(0.9955 0.09373 3.006e-22)
(1.118 -0.1526 1.953e-21)
(-0.008398 0.004081 -1.706e-22)
(1.109 0.1451 -3.111e-21)
(0.06112 -0.01669 -1.384e-23)
(-0.000684 -0.00216 0)
(0.6712 0.05224 -2.377e-20)
(1.217 0.1311 5.547e-20)
(1.247 0.5803 1.046e-20)
(1.005 -0.002969 0)
(0.04158 -0.009186 1.852e-21)
(0.293 -0.1309 0)
(1 6.713e-06 -3.984e-24)
(-0.1014 0.04453 7.236e-21)
(1 0.0001417 7.16e-20)
(0.1286 0.001063 3.32e-21)
(1.118 -0.01227 0)
(0.8067 -0.2635 2.204e-21)
(0.1537 0.00342 0)
(1.038 -0.1416 1.683e-20)
(-0.08505 0.04715 -2.316e-21)
(0.5719 -0.06369 -3.07e-21)
(0.2951 -0.05351 0)
(1.04 0.7446 0)
(-0.03741 0.07461 -1.868e-21)
(0.3604 0.3682 1.246e-20)
(0.2974 -0.05486 -1.689e-21)
(0.987 0.03602 5.359e-20)
(0.1362 -0.02197 9.895e-22)
(1 5.963e-05 3.438e-20)
(-0.09764 0.03473 0)
(-0.1092 0.04263 -4.997e-21)
(1.001 -0.0004181 5.262e-20)
(0.009953 -0.001494 0)
(0.9103 -0.2 6.058e-21)
(0.9721 -0.2223 0)
(-0.08439 0.03722 -1.363e-20)
(0.02808 -0.004914 1.615e-22)
(0.889 -0.2264 -3.305e-22)
(0.06319 0.09004 4.599e-22)
(-0.05809 0.01887 -3.475e-21)
(0.3239 -0.06027 1.818e-21)
(1.005 -0.002561 0)
(-0.02979 0.01291 -8.9e-21)
(0.0615 -0.01425 0)
(0.06337 0.3294 1.723e-22)
(-0.0662 0.03922 -2.113e-20)
(1.001 -0.0003432 5.802e-20)
(0.05057 -0.006523 1.565e-24)
(0.6286 -0.2481 2.286e-21)
(1.005 -0.003069 -3.408e-20)
(0.6929 -0.1648 -2.037e-22)
(-0.08177 0.02817 0)
(0.3683 -0.06941 0)
(0.35 -0.06155 -4.182e-22)
(1.003 0.002037 1.598e-20)
(0.3389 0.1785 -3.359e-21)
(0.1422 -0.02327 -1.06e-21)
(1.004 -0.002866 2.42e-21)
(0.1373 -0.0234 -7.296e-22)
(0.3811 -0.08482 0)
(-0.1094 0.0504 -7.489e-21)
(0.7264 -0.191 4.58e-22)
(-0.08119 0.03423 -1.204e-20)
(-0.1107 0.04283 5.753e-21)
(0.7177 -0.1431 -9.512e-22)
(-0.08679 0.0259 2.531e-21)
(1.111 -0.119 2.791e-20)
(0.9867 0.002089 8.005e-20)
(0.1573 -0.02784 3.441e-22)
(0.08088 -0.01325 0)
(0.8432 -0.2154 -2.297e-22)
(0.01253 -0.009035 -6.845e-22)
(0.6262 -0.1241 1.469e-21)
(1.03 -0.1721 -4.075e-21)
(-0.08204 0.0285 0)
(0.7543 -0.1635 0)
(1.037 -0.2 1.776e-21)
(1.005 0.000332 -5.125e-21)
(0.8384 -0.2565 0)
(1.089 -0.03642 -1.311e-20)
(1.003 -9.713e-05 -4.269e-20)
(0.9848 0.0165 1.244e-20)
(0.6326 -0.117 1.329e-21)
(0.3197 -0.06704 6.792e-22)
(0.9227 -0.2376 0)
(0.9907 0.00479 0)
(1.036 -0.01765 -6.512e-21)
(1.079 -0.169 -7.041e-21)
(0.9887 -0.1716 -1.396e-22)
(0.971 -0.1936 1.564e-23)
(0.3468 -0.05908 1.64e-21)
(-0.1607 -0.0292 -1.175e-19)
(1.054 0.02354 1.975e-19)
(1.083 -0.1722 0)
(1.005 -0.02446 4.496e-22)
(1.09 -0.1796 0)
(0.1081 -0.02658 -1.374e-21)
(-0.1257 0.05951 -2.037e-21)
(1.037 -0.1432 -9.344e-21)
(0.9728 -0.1937 -1.584e-23)
(0.4065 -0.1255 1.379e-21)
(0.9992 0.003635 0)
(-0.1175 0.05439 0)
(1 1.929e-05 6.684e-26)
(0.7177 -0.2319 -1.212e-21)
(0.8987 0.3531 3.36e-21)
(0.3042 -0.1369 -2.06e-21)
(1 0.0001934 3.903e-24)
(0.9824 0.001158 -1.451e-20)
(0.5152 -0.132 -3.845e-22)
(0.0304 -0.03429 -1.273e-22)
(0.0006122 -0.0005831 3.572e-22)
(0.9352 -0.2126 6.322e-21)
(0.7593 -0.1831 0)
(0.2448 -0.02616 -2.1e-20)
(-0.09318 0.04264 7.301e-21)
(0.9603 -0.1866 -1.608e-21)
(1.001 -0.0004174 4.371e-22)
(0.888 -0.2289 0)
(0.9485 -0.1927 3.627e-22)
(1.004 -0.003394 1.179e-21)
(1.101 -0.01316 0)
(-0.0737 0.03079 1.094e-20)
(-0.02681 0.00695 2.227e-21)
(0.5381 -0.1974 0)
(-0.103 0.04087 -6.713e-21)
(1.003 -0.00123 4.052e-21)
(0.9603 0.02374 1.909e-21)
(-0.08198 0.03121 4.93e-21)
(0.714 -0.2228 0)
(1.003 0.001211 -3.664e-21)
(0.3619 -0.09371 1.656e-22)
(1.089 -0.1531 0)
(0.08777 -0.01302 -1.071e-22)
(0.5429 -0.1085 -2.629e-22)
(-0.1252 0.04625 7.945e-22)
(0.7023 -0.241 0)
(0.9702 -0.2224 0)
(-0.09875 0.03509 0)
(0.9914 0.005024 0)
(0.6467 -0.2174 1.835e-21)
(0.2414 -0.04541 1.521e-21)
(1.25 0.5636 -1.062e-20)
(0.09262 -0.01857 0)
(0.7533 0.8175 -5.433e-21)
(0.9997 -0.006408 4.041e-20)
(-0.01931 0.007978 0)
(-0.06605 0.02148 2.048e-22)
(0.0858 0.005363 9.694e-22)
(-0.09109 0.03661 2.757e-21)
(-0.03069 0.01399 -6.099e-22)
(0.2325 -0.05016 -1.591e-21)
(1.039 -0.1936 -5.224e-21)
(1.209 0.1165 0)
(0.2433 -0.05991 0)
(1.029 -0.1235 0)
(-0.05845 0.02632 -8.996e-22)
(-0.1177 0.05422 0)
(0.6105 -0.1452 0)
(0.3054 -0.05409 0)
(0.4093 -0.06642 -4.62e-22)
(0.9866 0.01786 0)
(1.004 0.0005639 5.084e-21)
(1.004 -0.02479 -4.483e-22)
(-0.0978 0.03486 -7.442e-21)
(0.2331 -0.04648 0)
(1.001 -0.002031 2.868e-20)
(0.03438 -0.002247 1.445e-21)
(-0.1224 0.05406 -5.411e-21)
(0.9868 0.0184 -1.721e-20)
(0.6291 -0.2561 6.342e-22)
(-0.02541 0.0009398 1.535e-21)
(1.003 -0.00127 0)
(0.8219 -0.2306 -8.431e-22)
(1 4.081e-05 0)
(1.018 -0.1008 0)
(1.16 0.1446 0)
(1 8.475e-06 3.977e-24)
(-0.09311 0.03249 -3.989e-21)
(0.01687 -0.01079 3.479e-22)
(1.004 0.04657 -3.175e-20)
(1.002 -0.003955 -9.53e-22)
(0.3927 -0.09809 -4.604e-23)
(-0.02977 0.004576 -7.187e-22)
(1.018 0.111 1.027e-20)
(-0.08511 0.03799 1.072e-20)
(0.06305 -0.01122 3.541e-22)
(0.009657 -0.0116 0)
(-0.06297 0.01804 0)
(0.9841 -0.1504 -1.959e-21)
(0.9191 -0.2324 0)
(1.003 -0.0006421 2.32e-20)
(-0.07244 0.02316 3.111e-21)
(1.005 -0.002242 -7.53e-20)
(0.7917 -0.1347 0)
(-0.0137 0.006345 3.698e-21)
(0.9971 -0.2163 0)
(0.7315 -0.2367 2.948e-22)
(0.4484 -0.108 0)
(0.4012 -0.1564 0)
(1.003 -0.001115 9.67e-20)
(1.002 -0.0008831 0)
(0.5267 -0.05911 -2.077e-23)
(1.082 -0.1682 7.069e-21)
(1.003 -0.001233 -7.157e-21)
(0.1741 -0.1126 0)
(1.165 -0.03679 4.654e-20)
(0.8369 -0.2287 -1.043e-21)
(1.085 -0.07103 -9.378e-20)
(0.3337 -0.06549 -8.627e-22)
(-0.00168 0.003603 0)
(0.1655 -0.03143 2.142e-21)
(1.001 -0.0003862 6.18e-22)
(0.3301 -0.1037 -4.56e-22)
(1.044 0.9611 0)
(1.009 -0.2118 -1.53e-21)
(0.9734 -0.2195 2.218e-22)
(1 6.22e-06 6.755e-25)
(-0.05512 0.02397 1.212e-21)
(-0.07549 0.03274 0)
(-0.1327 0.0584 3.145e-21)
(1.017 -0.2102 -7.532e-22)
(0.08406 0.003622 6.194e-21)
(0.01676 -0.01199 9.679e-22)
(1.001 -0.005978 -1.777e-20)
(-0.1179 0.05429 -1.075e-21)
(-0.07143 0.03056 0)
(-0.0905 0.03091 6.187e-21)
(0.9956 -0.005552 1.639e-20)
(0.7966 0.2617 -3.352e-23)
(1.003 -0.0001298 -1.039e-20)
(0.6142 -0.1757 9.364e-22)
(-0.1206 0.05612 2.144e-21)
(0.997 -0.005689 0)
(-0.1018 0.03706 0)
(0.8395 -0.1661 -1.254e-21)
(0.7816 -0.1488 1.754e-21)
(0.4472 0.9748 -5.108e-22)
(0.2453 -0.06102 -4.886e-23)
(0.9868 -0.2034 9.155e-22)
(0.7114 -0.1117 0)
(1.016 0.02045 -6.839e-21)
(0.7771 -0.1454 -1.938e-21)
(0.1371 -3.242e-06 0)
(0.9309 -0.1973 1.858e-21)
(0.9993 0.06017 0)
(1.1 -0.1206 1.823e-21)
(0.9497 -0.206 -7.105e-22)
(1.005 -0.002329 0)
(-0.06414 0.02687 9.654e-21)
(0.9963 -0.005914 -1.348e-20)
(1.091 -0.02876 0)
(-0.09076 0.03671 5.461e-21)
(0.997 -0.005478 0)
(0.9444 -0.006417 3.474e-23)
(0.8374 -0.2564 1.446e-21)
(0.1546 0.0004571 1.983e-21)
(1.001 -0.002005 -7.09e-21)
(1.002 0.0004656 9.683e-20)
(-0.0798 0.02662 3.943e-21)
(1.156 0.04791 4.301e-20)
(1.088 0.008078 -1.261e-20)
(0.163 -0.03244 -2.506e-22)
(1.087 0.8416 2.169e-21)
(0.3654 -0.06418 -2.099e-22)
(0.8364 -0.0005291 -5.348e-21)
(0.7021 -0.1391 0)
(1 4.351e-05 -4.95e-25)
(-0.01883 0.008438 0)
(-0.1036 0.4911 -1.365e-25)
(1.098 -0.05752 -7.746e-21)
(0.1182 -0.09027 5.804e-21)
(1.033 -0.02781 -5.75e-20)
(1.001 -0.00537 1.068e-20)
(-0.09973 0.0409 1.697e-21)
(0.9313 -0.1965 0)
(0.413 -0.07534 -1.546e-21)
(0.7479 -0.2619 -3.905e-21)
(-0.04782 0.02195 -5.499e-21)
(-0.02472 0.007743 -3.972e-21)
(0.6556 -0.153 0)
(-0.0196 0.00862 0)
(-0.1037 0.03842 3.312e-21)
(0.9985 0.001116 -5.004e-20)
(0.7304 -0.2655 0)
(0.6236 -0.2379 2.245e-21)
(0.1092 -0.02085 1.158e-23)
(0.1488 0.001617 -4.226e-21)
(0.5137 -0.1644 -1.074e-21)
(0.1094 -0.02331 -3.068e-22)
(1.022 -0.03404 2.056e-20)
(0.998 -0.003394 -5.427e-20)
(0.3566 -0.04886 -4.827e-21)
(0.6325 -0.2717 0)
(0.109 -0.06403 0)
(1.001 -0.003378 5.027e-21)
(0.54 -0.1722 1.084e-21)
(0.892 -0.1232 -2.885e-21)
(0.2646 1.012 0)
(0.2413 1.051 -5.263e-22)
(1.011 0.03014 2.319e-20)
(0.6539 1.136 6.296e-22)
(-0.07474 0.03342 -1.801e-21)
(1.017 -0.1978 5.623e-22)
(-0.08114 -0.02561 8.356e-20)
(0.5077 -0.04463 3.085e-21)
(1 0.0008523 3.314e-22)
(0.313 -0.07505 0)
(-0.08638 0.0324 7.455e-21)
(-0.0713 0.5028 -1.723e-22)
(1.001 0.00117 -5.628e-22)
(0.7248 -0.1151 -3.249e-21)
(0.9999 -0.008326 2.223e-20)
(0.2078 -0.1293 -2.361e-21)
(0.5158 -0.1914 0)
(0.9998 0.001245 5.856e-22)
(1.009 -0.001263 -1.149e-21)
(1.012 -0.01647 3.881e-22)
(0.1695 -0.0346 -7.391e-22)
(-0.03914 0.01796 1.224e-21)
(0.3772 -0.1043 0)
(0.6799 -0.03548 7.569e-20)
(0.8962 -0.151 2.788e-21)
(0.2147 -0.04116 -2.614e-21)
(0.529 -0.1437 -6.632e-22)
(0.004017 -0.002316 -3.875e-22)
(0.4217 -0.1654 -4.804e-21)
(1.004 0.0003634 -7.959e-20)
(1.002 -0.002141 0)
(1 -0.006723 0)
(0.02115 0.007324 -2.71e-21)
(1 0.0006947 0)
(0.9456 -0.1749 -1.851e-21)
(0.7274 -0.1506 3.373e-20)
(0.9127 -0.2307 6.804e-22)
(0.2322 -0.05226 -2.841e-22)
(0.6431 -0.1316 -1.347e-21)
(0.009522 -0.005633 -1.237e-25)
(0.1986 -0.07817 0)
(0.8049 -0.2467 -1.313e-21)
(0.03336 -0.005844 9.851e-22)
(0.043 -0.0008718 7.975e-22)
(0.9997 -9.021e-06 3.125e-22)
(-0.02223 0.009576 -6.602e-21)
(0.3242 -0.08024 2.837e-22)
(1.004 -2.23e-05 9.092e-22)
(0.03716 -0.001847 5.995e-21)
(-0.07608 -0.02731 -9.593e-21)
(0.1519 -0.04421 3.184e-24)
(-0.09853 0.03537 -5.79e-21)
(1.035 0.004365 -1.914e-19)
(0.511 -0.2272 -1.244e-21)
(0.8735 -0.2447 0)
(0.8233 -0.1468 -4.252e-22)
(0.8181 -0.1194 -3.865e-21)
(0.1802 0.003845 -1.938e-21)
(0.07516 -0.03307 0)
(0.01811 -0.002309 0)
(0.7722 -0.1653 0)
(0.6501 0.03731 0)
(1.122 -0.1505 0)
(0.2007 -0.03877 0)
(0.4149 -0.1058 0)
(-0.05015 0.02232 1.14e-20)
(-0.09048 -0.03323 -3.319e-21)
(0.03326 -0.04235 -8.102e-22)
(1.108 -0.1297 -1e-20)
(0.8473 -0.1386 1.415e-21)
(1 0.0006653 -2.769e-22)
(0.9904 0.0131 -8.083e-20)
(1.002 -0.004575 1.45e-20)
(0.5406 -0.1522 0)
(0.1457 -0.07193 0)
(0.2241 0.00164 0)
(0.5474 0.2291 2.613e-22)
(0.9746 -0.2193 -2.193e-22)
(0.9045 -0.1956 1.05e-21)
(0.6504 -0.2478 0)
(0.4219 -0.1111 2.155e-22)
(-0.006664 0.002779 0)
(-0.0973 0.03736 -4.828e-21)
(1.001 -0.0054 -1.422e-20)
(1 4.643e-05 -3.186e-23)
(0.01521 -0.04317 1.768e-22)
(-0.006613 0.002771 -5.826e-21)
(1 4.12e-05 -9.865e-23)
(0.4847 -0.01158 7.142e-20)
(0.3278 -0.06067 -1.14e-21)
(0.941 0.05348 0)
(0.4498 -0.09155 -5.828e-22)
(-0.003013 0.001548 6.373e-22)
(-0.01494 0.003781 2.362e-21)
(1.006 -0.02491 0)
(0.02628 -0.003114 -2.644e-25)
(0.03536 -0.01993 -2.262e-21)
(-0.05291 0.01961 -2.478e-21)
(0.8855 -0.2461 8.986e-22)
(-0.07264 0.1561 4.019e-22)
(0.2982 -0.08745 0)
(-0.02128 0.009779 1.605e-21)
(1.004 0.0002479 3.573e-21)
(0.5451 -0.1508 8.894e-22)
(0.7389 -0.2376 3.868e-21)
(0.9868 0.03467 -2.69e-20)
(0.04209 -0.03839 -2.411e-22)
(1.006 0.01005 6.493e-22)
(1 -0.000136 5.758e-20)
(0.7494 -0.1687 -7.105e-22)
(-0.1106 0.0422 -3.494e-21)
(1.223 0.2527 -5.239e-20)
(-0.04846 -0.02918 2.026e-20)
(0.9669 -0.1478 0)
(1 1.963e-05 0)
(-0.1025 0.04082 -6.431e-21)
(0.4858 -0.08775 -2.399e-21)
(1.03 -0.0271 1.119e-21)
(0.4325 -0.1833 -5.757e-21)
(0.9984 -0.216 1.053e-21)
(1.011 -0.0123 -1.326e-20)
(-0.01097 0.005124 1.038e-22)
(0.5851 -0.2302 -2.771e-21)
(0.1807 0.4268 0)
(0.6423 -0.03932 0)
(1 -0.0001326 -1.034e-19)
(0.008392 -0.001501 3.398e-24)
(1.003 0.005158 0)
(0.1109 -0.06554 -2.609e-21)
(-0.05051 0.02156 -7.15e-22)
(0.6512 0.248 0)
(-0.04731 0.02749 -5.859e-20)
(0.234 -0.04531 5.936e-22)
(0.4954 0.01904 0)
(-0.06718 0.03006 4.955e-21)
(-0.006958 0.00262 2.985e-21)
(0.5787 0.1362 7.817e-21)
(0.7478 -0.1791 -1.147e-22)
(1.108 0.7381 0)
(0.005696 0.0005477 5.665e-23)
(0.5768 -0.1598 5.798e-21)
(0.006024 -0.0006503 7.091e-21)
(0.9965 0.004809 2.886e-20)
(-0.06288 0.03341 0)
(0.4698 -0.1194 0)
(0.6561 -0.1217 0)
(0.972 -0.03768 -3.8e-21)
(0.3919 0.009174 0)
(1.012 -0.001437 7.059e-20)
(0.1101 -0.01942 3.244e-22)
(0.1902 -0.05802 -3.915e-22)
(-0.08442 0.03931 3.507e-21)
(0.8242 -0.1358 -1.18e-21)
(1 0.0001326 -5.538e-24)
(1.123 -0.1477 0)
(0.4385 -0.1525 -2.041e-21)
(1.094 0.5965 -3.714e-21)
(-0.001186 -0.004676 -1.491e-23)
(-0.125 0.04971 0)
(0.07577 -0.01472 -1.753e-22)
(-0.0282 0.006207 3.863e-21)
(1.131 -0.08738 7.81e-21)
(0.956 0.07244 4.283e-20)
(0.8465 -0.1923 0)
(0.3068 -0.05438 -8.926e-22)
(1 0.0002273 7.595e-25)
(1 0.0002398 3.983e-23)
(0.9299 -0.2036 -8.099e-22)
(0.7402 -0.1929 1.906e-23)
(1.029 -0.177 -3.909e-21)
(-0.01636 0.01514 4.467e-21)
(-0.07342 0.03268 2.119e-21)
(0.6458 -0.1984 -4.5e-21)
(1 0.0003773 0)
(1 -0.0018 1.196e-19)
(0.4197 -0.07166 -6.003e-23)
(0.6949 -0.117 -2.996e-21)
(0.1679 -0.09061 -2.036e-21)
(0.9933 -0.1282 1.096e-22)
(0.975 -0.2168 0)
(1.002 0.001221 -1.692e-20)
(1 0.0007777 -3.402e-23)
(1.001 0.0256 0)
(-0.004864 0.001678 7.442e-22)
(-0.04491 0.02063 -1.782e-21)
(-0.09966 0.0361 2.684e-21)
(-0.007371 0.003318 0)
(0.9289 -0.2333 1.425e-21)
(0.3444 -0.05841 0)
(1.006 0.003235 0)
(-0.02706 0.006046 -7.091e-21)
(-0.08275 0.03071 -8.12e-21)
(1.039 -0.1505 0)
(0.1605 -0.08762 1.161e-21)
(1.007 -0.0003447 -6.047e-20)
(0.289 -0.06325 0)
(1.006 0.004443 -6.056e-20)
(0.06009 -0.01296 -7.436e-22)
(1 1.054e-05 1.247e-24)
(0.9453 -0.0798 0)
(-0.0115 0.002753 -5.687e-21)
(-0.00488 0.002246 4.117e-23)
(0.03651 -0.0006529 -8.351e-25)
(0.6218 -0.1785 -1.056e-22)
(0.4518 -0.1777 2.269e-21)
(0.2962 -0.06451 0)
(-0.01764 0.006934 -3.504e-21)
(-0.124 0.06099 0)
(0.6271 -0.2324 5.512e-21)
(1.047 0.2257 0)
(1.03 -0.02546 2.366e-20)
(0.2797 -0.07281 -5.88e-22)
(0.3356 -0.08682 0)
(0.8923 -0.1787 0)
(-0.009903 0.003534 -4.236e-22)
(1.005 -0.2011 0)
(0.1326 -0.02335 -1.085e-21)
(-0.02551 0.03832 -2.115e-21)
(1 6.557e-06 0)
(0.9228 0.3164 0)
(0.3766 -0.1549 1.52e-21)
(0.9994 0.0001736 1.892e-20)
(0.2768 -0.05738 -1.907e-21)
(0.03377 -0.00702 0)
(0.7491 -0.1743 0)
(0.6162 -0.1986 2.963e-21)
(0.41 -0.07494 1.899e-21)
(1.004 -0.000573 4.519e-20)
(0.07168 -0.01254 4.63e-22)
(-0.09581 -0.02676 0)
(-0.07898 0.03398 0)
(1.003 -0.0003737 2.318e-20)
(-0.04103 0.02731 0)
(1.035 -0.2037 1.455e-21)
(-0.04027 0.0105 -5.446e-21)
(-0.002503 0.0007059 1.668e-26)
(0.7808 -0.1878 6.757e-22)
(-0.1167 0.0517 -2.376e-25)
(0.09438 -0.01663 -6.593e-22)
(0.8545 -0.1354 0)
(-0.01288 0.002679 -5.456e-21)
(0.9757 -0.1718 -2.062e-21)
(0.8143 -0.1588 -3.03e-20)
(0.008186 -0.03362 -1.289e-22)
(0.9764 0.003414 0)
(1.012 0.004461 -1.89e-20)
(1.004 0.0004468 3.599e-20)
(0.008463 0.02019 -4.323e-20)
(-0.04241 0.01946 -2.834e-21)
(-0.1308 0.06114 8.937e-21)
(1.079 -0.1225 1.204e-21)
(-0.1033 0.05524 1.726e-20)
(0.7 -0.222 7.24e-23)
(1.067 -0.1852 -8.717e-21)
(-0.05706 0.01896 -3.635e-21)
(-0.06302 0.02829 -9.407e-21)
(0.8012 -0.1138 5.882e-22)
(-0.02503 0.01021 1.566e-21)
(-0.05153 0.02074 0)
(-0.1051 0.04695 -6.828e-21)
(-0.005595 0.002735 0)
(0.04528 -0.01613 0)
(0.9352 -0.03521 2.276e-20)
(0.9186 -0.2374 1.056e-21)
(1.006 0.02392 -1.125e-20)
(-0.03723 0.01447 0)
(0.1904 -0.0007037 8.903e-22)
(0.8301 -0.2075 -6.389e-23)
(0.01207 -0.02632 -8.339e-22)
(0.9841 -0.1144 0)
(-0.0727 0.03295 0)
(0.9286 0.3616 -4.039e-21)
(-0.112 0.04849 0)
(-0.1355 0.001931 -1.359e-20)
(0.2129 -0.12 2.057e-21)
(0.9967 0.006354 -2.107e-20)
(0.6867 -0.1571 -9.235e-22)
(0.7239 -0.1406 2.785e-21)
(0.0289 -0.04858 -2.753e-22)
(0.5721 -0.1098 3.265e-21)
(0.1749 -0.08533 1.757e-21)
(-0.1169 0.05233 0)
(0.7234 -0.1274 3.492e-22)
(-0.07458 0.03596 0)
(1 0.00407 -2.129e-20)
(0.04132 -0.03576 -5.663e-23)
(-0.09515 0.04293 1.083e-20)
(0.9891 -0.05089 -6.593e-21)
(-0.11 0.05068 -3.852e-21)
(0.6671 -0.2204 2.752e-21)
(-0.118 0.0541 -4.464e-21)
(1 5.591e-06 0)
(1 5.584e-06 0)
(1.002 -0.0001652 0)
(-0.04438 0.01279 -1.396e-20)
(-0.01966 0.008525 0)
(0.678 -0.2425 6.475e-22)
(0.01901 -0.00156 -6.025e-21)
(0.9294 -0.2298 -7.172e-23)
(1.135 -0.08692 -1.235e-20)
(-0.1137 0.05003 -1.256e-20)
(1.106 -0.1064 -1.31e-20)
(0.1488 -0.04002 -2.354e-22)
(0.8258 -0.1625 0)
(0.1949 -0.03267 -6.193e-22)
(-0.03926 0.00959 5.636e-21)
(0.9841 -0.02236 -9.75e-21)
(0.3373 -0.1627 6.197e-22)
(0.9413 -0.2156 -1.376e-21)
(0.05731 0.003965 -5.265e-21)
(0.9945 -0.01223 1.913e-20)
(0.2844 -0.0008674 5.122e-20)
(0.6821 -0.126 1.179e-21)
(0.4731 -0.2277 3.438e-22)
(-0.006775 0.003061 0)
(1.001 -0.0007566 0)
(1.01 0.00646 5.18e-20)
(0.1432 -0.001152 -1.85e-21)
(0.8872 -0.1199 0)
(0.6016 -0.1152 0)
(0.2565 -0.05483 -5.432e-22)
(0.8407 -0.2293 1.063e-21)
(0.9824 -0.2119 1.564e-22)
(0.3115 0.004307 0)
(0.008265 0.001947 -3.349e-21)
(0.9992 -0.0001892 -4.108e-20)
(0.4979 -0.1052 2.53e-23)
(-0.02165 0.008878 0)
(1 7.957e-06 -5.942e-25)
(0.995 -0.03018 -3.969e-21)
(0.3635 -0.07433 -2.231e-23)
(1.182 0.009743 0)
(-0.07077 0.03231 0)
(-0.05015 0.0228 0)
(0.8155 -0.2013 0)
(0.02337 -0.004206 -5.171e-23)
(0.646 -0.1976 0)
(-0.1058 0.04449 6.18e-22)
(1.037 0.2287 -5.699e-21)
(-0.04248 0.01786 -1.324e-20)
(0.3042 -0.07328 -4.174e-22)
(0.9809 -0.154 3.364e-21)
(0.5064 -0.1936 -1.17e-21)
(0.418 -0.2009 0)
(0.1016 0.006058 0)
(-0.1118 0.05196 -7.419e-21)
(-0.1002 0.04269 4.311e-21)
(1.001 0.0009802 0)
(1.004 -5.345e-05 5.496e-21)
(1.002 -0.0007321 0)
(0.4544 -0.08845 -8.965e-22)
(0.2234 0.02528 0)
(0.1889 0.04243 -7.95e-21)
(1.126 -0.04565 -1.524e-19)
(0.9039 -0.2197 1.088e-20)
(1.002 0.004486 -8.688e-22)
(0.4538 -0.1145 -9.112e-23)
(1.171 -0.01292 -1.606e-20)
(0.8795 -0.2158 6.348e-23)
(0.4873 -0.1142 4.863e-22)
(0.5229 -0.2038 3.874e-21)
(1.044 0.067 -1.612e-19)
(1.055 0.01614 -2.082e-20)
(1.053 -0.1448 -1.311e-20)
(0.7991 -0.04616 -5.086e-20)
(0.5531 -0.1644 0)
(1.079 -0.1437 1.708e-22)
(0.2662 -0.05462 2.651e-21)
(0.6904 -0.1299 0)
(1.177 0.0361 0)
(-0.08074 0.03683 -7.515e-21)
(1.058 -0.1814 0)
(-0.09403 0.04159 -2.233e-21)
(0.04113 0.8783 2.15e-22)
(0.998 -0.002162 2.041e-20)
(0.7381 -0.2535 0)
(0.01172 0.01766 -2.041e-20)
(0.04236 -0.02251 -2.035e-21)
(0.3092 -0.07136 0)
(0.2834 -0.02784 0)
(0.9473 -0.1751 1.924e-21)
(-0.05198 -0.03651 0)
(-0.04789 0.02014 0)
(0.9365 -0.2315 3.476e-22)
(0.894 -0.2458 -3.235e-21)
(0.9995 0.0005172 -1.36e-19)
(1.201 0.124 3.383e-20)
(0.3296 -0.157 -6.187e-22)
(0.5208 -0.1057 1.094e-21)
(1.001 0.0004538 -2.826e-20)
(1.042 -0.1951 5.469e-21)
(-0.06189 0.02792 -3.976e-22)
(-0.05937 0.0237 0)
(0.9567 -0.08251 8.123e-21)
(-0.09932 0.03945 -2.211e-21)
(1.106 0.2145 3.303e-20)
(0.3395 -0.07666 -5.905e-22)
(1.065 -0.1761 0)
(1.128 -0.06524 1.398e-20)
(0.9437 0.6971 5.038e-21)
(-0.1003 0.03582 0)
(-0.07425 0.1608 8.848e-22)
(0.935 -0.1948 -1.08e-20)
(1 1.777e-05 1.003e-24)
(0.08968 0.007643 -6.066e-22)
(0.9928 -0.0004113 4.717e-20)
(0.9754 -0.03841 -2.172e-20)
(-0.0008455 -0.002557 3.482e-24)
(0.6501 -0.2451 0)
(0.03683 -0.004972 -1.722e-24)
(1.036 -0.03828 -1.617e-20)
(0.5215 -0.2578 -1.17e-21)
(1.133 -0.1251 1.128e-20)
(1.003 0.001161 -4.223e-20)
(-0.1036 0.04541 6.051e-21)
(0.9267 -0.2235 2.081e-22)
(1.003 -0.0006551 0)
(1.014 -0.06108 -6.97e-21)
(0.007712 -0.0114 1.19e-22)
(-0.007264 0.003291 6.601e-21)
(0.1613 -0.01048 1.313e-21)
(1.067 -0.1503 -1.273e-21)
(0.2271 -0.04265 0)