/*--------------------------------*- C++ -*----------------------------------*\
  =========                 |
  \\      /  F ield         | OpenFOAM: The Open Source CFD Toolbox
   \\    /   O peration     | Website:  https://openfoam.org
    \\  /    A nd           | Version:  8
     \\/     M anipulation  |
\*---------------------------------------------------------------------------*/
FoamFile
{
    version     2.0;
    format      ascii;
    class       volScalarField;
    location    "60";
    object      k;
}
// * * * * * * * * * * * * * * * * * * * * * * * * * * * * * * * * * * * * * //

dimensions      [0 2 -2 0 0 0 0];

internalField   nonuniform List<scalar> 
127143
(
1.038e-14
1.322e-13
9.517e-13
4.854e-12
2.773e-12
5.122e-12
5.853e-11
1.441e-11
6.881e-12
5.257e-12
1.402e-10
1.777e-11
6.342e-12
8.361e-12
2.392e-05
1.558e-10
4.911e-12
0.06037
0.0278
2.022e-08
0.001107
1.259e-07
0.0001538
6.223e-06
1.136e-07
1.373e-07
3.177e-09
3.263e-09
1.133e-07
0.06597
2.065e-06
1.324e-07
3.688e-08
2.684e-07
0.0001507
3.614e-08
0.002808
0.01341
1.247e-05
7.427e-08
0.02792
0.0001529
0.0001524
4.76e-11
0.05903
3.284e-07
1.159e-07
0.01006
8.207e-06
9.872e-06
3.641e-10
0.0001493
0.0004394
0.0001539
0.0001395
2.921e-06
0.0001394
0.0001652
0.0001469
0.0001538
0.0001527
0.01429
4.964e-05
0.0001482
5.632e-07
0.0001585
0.0001509
4.341e-05
4.394e-05
0.0002408
4.421e-06
6.975e-09
0.02728
0.0001469
0.0001458
6.95e-09
0.0001473
0.002048
2.897e-06
0.000149
9.097e-08
1.92e-08
2.197e-06
1.641e-07
0.02478
0.003132
2.094e-05
1.733e-08
0.0001572
4.114e-05
0.0001468
0.0005039
7.938e-05
0.00113
7.958e-05
0.0001721
0.0001528
7.844e-07
0.002856
0.0001509
0.0001489
9.465e-06
7.949e-06
0.0001124
0.003458
0.00268
3.716e-05
0.0002417
0.0001672
0.0001424
3.135e-05
1.556e-08
0.0003708
0.000167
0.0001455
0.0001508
0.0001474
0.0001459
0.0001472
9.941e-09
0.0001425
2.847e-06
7.049e-05
0.0001623
1.068e-07
3.63e-08
0.007639
0.0001483
3.935e-05
2.394e-06
0.0004289
6.581e-05
6.463e-05
0.002173
1.578e-10
0.0004747
0.0001553
0.002246
3.068e-07
0.0001532
0.0001543
0.0001466
0.002483
0.005794
0.0004757
0.0001539
3.906e-07
0.0001483
5.648e-05
3.282e-06
8.796e-05
1.159e-05
0.007538
0.0001516
0.0001147
0.02491
0.0001653
1.942e-06
0.01036
5.87e-07
5.079e-06
4.826e-10
0.0001469
0.0004392
3.214e-07
9.173e-07
0.001312
0.0001555
2.026e-06
0.0001487
0.000131
0.005745
0.0001421
9.408e-05
0.0007129
0.01314
0.000177
4.073e-05
9.92e-06
0.0001558
9.487e-05
0.0001549
0.01443
0.01346
2.764e-06
0.01468
0.0001512
0.000166
8.256e-06
0.0001547
0.0002108
3.193e-05
0.0001549
0.0001905
8.424e-11
0.005503
0.0001288
0.0001281
1.959e-09
0.0001456
0.0001451
0.0001489
0.005204
0.003433
3.712e-11
3.071e-05
0.0001529
8.042e-05
0.05892
0.0001455
0.0001657
0.02323
0.0001447
2.263e-06
0.0001462
4.573e-10
1.48e-05
8.286e-05
0.000217
0.0001529
0.0001813
0.0001462
1.087e-05
0.0005631
3.813e-07
8.443e-05
7.42e-07
0.01308
0.0003315
0.005496
0.0009222
0.0001548
0.02759
1.088e-07
0.0009551
0.000157
0.0004357
2.148e-13
0.0001451
0.0005054
3.687e-05
9.692e-07
0.01477
2.09e-06
0.001581
1.181e-08
2.207e-05
2.832e-09
5.197e-09
0.0002917
0.0001655
1.783e-07
7.812e-05
0.002441
6.432e-06
0.0001691
0.0001483
5.276e-06
0.0001333
0.0001505
0.00503
0.0001515
0.0002351
0.0001465
0.0003966
8.168e-07
5.443e-05
6.863e-05
0.0001549
0.0001149
5.905e-07
0.0007043
0.01386
0.0004826
6.343e-05
0.0002383
0.0003938
1.432e-05
0.001353
0.0001531
0.0002434
0.0001858
0.0001131
0.0001455
0.0001454
7.768e-11
0.0002165
0.0001455
1.262e-05
0.0001563
0.007612
0.0001577
0.0001569
0.0001335
0.0001451
0.0001747
2.699e-06
0.002508
0.01468
0.0001196
9.812e-07
0.0001596
0.0001546
0.0001544
2.926e-07
0.000134
8.083e-05
0.0001448
0.01892
7.309e-05
3.353e-05
0.0003352
1.839e-06
0.0002106
0.0001453
5.545e-05
0.01024
8.551e-07
0.0001578
0.006817
0.0001536
3.236e-06
0.000151
7.746e-05
5.209e-05
0.005448
0.00015
0.004939
4.624e-06
0.0001834
0.01111
0.0001454
0.0001507
0.0001288
0.0001282
0.0001516
0.0001674
0.0001424
0.01115
0.0001318
0.0001532
8.243e-05
0.0007504
0.0002696
0.000174
1.195e-05
9.173e-06
0.0002078
1.337e-06
1.512e-05
1.719e-06
0.02624
0.0107
0.0002462
0.0001492
1.322e-05
0.002352
0.0001608
0.0001483
4.727e-06
0.01747
5.511e-05
0.05066
1.081e-05
1.098e-05
0.0001468
0.0001456
0.004101
2.135e-06
0.00135
0.0001551
0.0001511
3.766e-07
9.56e-06
0.000154
0.0001533
3.408e-06
4.049e-07
0.004179
0.001425
0.04556
8.348e-08
1.959e-06
0.0001594
0.0001473
3.472e-09
0.00015
9.642e-08
0.005077
0.02705
0.0001459
0.0001531
0.0002191
6.677e-06
8.074e-06
2.045e-06
0.0001532
2.88e-06
0.0001491
0.0001513
1.643e-07
0.0001462
0.001282
0.0151
0.0001501
7.804e-05
0.004086
6.501e-05
0.000149
1.236e-05
0.0001346
1.123e-06
0.0001544
0.01049
8.298e-05
8.928e-05
0.001001
3.552e-07
0.000863
1.78e-05
0.001492
4.522e-07
7.553e-05
0.0002414
0.005255
0.0001507
0.0001523
0.0001527
1.375e-06
0.0001529
0.0001412
8.127e-05
0.008978
0.002821
9.586e-05
0.0001468
7.522e-05
1.269e-05
0.0001492
0.000145
0.0001453
1.272e-05
0.0001555
0.0001713
0.0001479
9.747e-07
0.0001453
4.461e-05
0.004425
0.02326
0.00144
3.303e-06
8.273e-05
1.577e-06
0.0001499
0.00526
8.228e-07
1.883e-06
0.005235
0.0001672
6.756e-05
0.0001485
0.01357
0.0001561
0.0001329
0.0005441
0.0001461
0.001382
8.658e-06
0.0001386
0.003914
0.0001594
0.0001624
0.01081
0.0001527
0.0001347
0.0001428
0.0001565
0.0001264
0.00156
1.273e-07
5.278e-05
9.827e-06
2.001e-06
0.0001605
9.539e-05
0.00249
0.0001446
9.853e-07
0.0001466
8.873e-05
2.452e-05
0.0002829
0.0001476
3.57e-10
0.0003269
0.0001563
0.0001597
0.0001596
0.0001448
1.169e-07
0.0001462
0.01126
0.00586
2.955e-12
1.599e-09
6.353e-09
0.000147
1.49e-05
4.846e-05
0.0001453
0.01681
5.404e-05
0.0007498
0.0001128
0.00134
3.164e-06
0.003949
3.107e-08
0.0004693
0.02171
2.925e-08
1.194e-05
1.138e-06
0.0001801
0.0001466
9.096e-05
0.002994
0.01483
0.0001458
5.773e-07
9.908e-07
0.0001766
0.0001304
0.001351
0.0001566
7.22e-05
0.0001514
1.033e-06
0.01775
0.0001468
0.0003823
0.0001462
0.0001387
0.0001595
0.0004848
3.556e-06
1.156e-05
6.413e-06
1.277e-05
0.005331
0.0001015
2.48e-05
0.001228
9.752e-05
0.0001461
1.346e-07
0.0004047
8.313e-07
5.916e-05
0.01431
0.0001483
0.0001479
0.0001505
7.873e-06
0.0001652
0.0001453
0.0001451
0.0001659
5.058e-06
0.004322
0.0001597
1.287e-05
1.94e-07
0.0001572
0.0001468
0.0001426
0.0001421
0.002463
5.206e-05
0.0001597
6.308e-09
6.621e-05
6.532e-05
0.001401
2.879e-07
0.0001453
0.004541
0.01692
0.02654
0.0001386
8.932e-05
0.005051
7.38e-09
0.0001346
3.941e-05
1.628e-05
0.0001453
7.835e-05
0.0001455
2.281e-05
0.003516
0.0001455
3.45e-06
4.093e-06
0.0004828
0.000132
0.003365
2.088e-06
2.258e-06
0.0001991
1.55e-05
9.583e-05
1.205e-05
0.007736
0.0003073
5.219e-07
0.00015
2.339e-06
0.0001454
0.0001665
0.0001483
0.002727
0.0001413
0.0001455
0.0001629
1.891e-05
0.0005024
0.0001385
0.0001411
0.0004255
1.383e-07
4.383e-06
1.154e-06
0.02463
0.0001707
0.001528
0.000129
0.0002919
4.642e-05
2.789e-07
0.0001386
4.421e-06
0.0004404
0.0001648
0.0001383
0.0001471
0.0001449
0.005615
5.95e-07
0.002524
1.222e-06
0.0001483
0.0001528
0.0003598
5.831e-06
0.0001488
8.673e-07
0.0001564
0.0001637
1.826e-05
0.0001303
0.0004863
0.0001521
8.021e-11
0.0001108
0.005444
0.00515
0.0002313
4.116e-05
4.977e-07
1.085e-05
0.0001487
6.358e-05
0.002964
0.001389
0.0001416
1.607e-05
0.0001558
0.0001519
0.0001303
0.0001415
3.848e-07
0.0001598
4.225e-06
3.77e-05
6.157e-05
0.01874
0.000158
6.04e-07
0.0001511
6.943e-06
0.0001446
0.0001393
0.0001685
0.0001507
3.251e-06
0.0001519
8.232e-07
0.02203
8.99e-06
0.0001606
0.05074
0.0001514
1.169e-06
0.0001527
5.364e-06
1.691e-10
6.151e-05
0.0004145
0.004508
0.000141
5.154e-05
1.118e-05
5.819e-07
0.03599
0.00841
0.0002996
4.85e-06
0.0009718
1.916e-05
0.02351
9.575e-06
4.394e-05
7.334e-05
0.007898
0.0001602
1.59e-14
0.0001557
0.0001487
3.333e-05
6.029e-05
2.452e-05
0.000144
0.009113
0.02642
0.004458
0.0001575
1.024e-06
9.699e-05
2.745e-07
0.0001728
8.417e-06
0.006367
1.568e-05
2.334e-05
0.0001598
0.006064
0.0003179
5.723e-06
0.002216
0.0001457
0.0007652
0.0001576
0.0001458
8.042e-05
0.0001659
4.895e-05
0.0003419
0.0001585
6.111e-05
1.027e-07
8.216e-05
0.0001278
0.00602
0.01746
1.222e-07
1.501e-06
0.0001544
0.01714
1.717e-05
0.0001283
0.0008558
1.923e-05
0.001714
2.086e-07
0.001781
0.0002042
0.0005584
0.01724
0.0001532
0.0001469
3.3e-11
0.0003504
0.0001585
3.165e-05
0.0063
0.000329
0.000276
6.231e-06
0.0001424
0.0293
0.0001122
0.000155
0.0001374
8.99e-05
3.629e-05
7.019e-05
0.0001364
0.001681
0.0116
0.0001446
0.0001359
0.0001391
0.01449
0.02452
0.0004167
0.004843
1.528e-09
9.817e-05
0.0001523
0.0001418
0.001777
0.001968
2.558e-06
4.54e-07
0.000155
0.0002048
0.0001463
0.002328
6.397e-09
0.0001419
0.0001602
1.488e-06
5.039e-05
1.168e-07
0.0001504
0.02034
4.855e-05
0.0001459
1.414e-06
0.0001416
5.636e-05
1.22e-06
1.216e-05
0.0006105
3.773e-08
0.0001463
5.605e-06
0.0001523
6.825e-07
0.001308
5.794e-07
4.489e-06
0.0001543
0.0001652
0.0001635
8.596e-10
0.0001457
0.0209
3.953e-06
8.571e-06
0.002749
1.614e-08
0.0002
0.0002432
0.0001355
9.312e-08
8.077e-10
4.603e-05
4.264e-10
1.169e-05
1.615e-10
7.467e-05
4.144e-05
0.02962
5.628e-09
0.0001472
3.014e-05
0.0001374
0.0001369
0.001968
0.0001493
6.083e-05
0.0339
0.0001643
0.0001501
0.0001549
3.841e-05
3.048e-05
0.0001459
0.0334
0.001925
0.0001548
2.791e-06
1.592e-08
0.01601
9.022e-05
2.843e-05
0.00912
0.0002226
0.000145
0.0003043
5.796e-06
0.000148
5.116e-06
0.0004419
0.01437
0.0001379
0.007367
0.04145
7.309e-10
0.0001634
1.506e-08
0.003411
0.0001076
3.88e-05
9.878e-06
2.386e-06
0.0001329
4.723e-07
0.0001528
0.0001335
0.0001739
9.746e-08
0.03905
3.018e-06
8.383e-05
0.0001372
4.12e-06
9.224e-11
6.18e-06
0.0001468
0.0001461
8.828e-05
0.0001732
0.0005842
4.522e-06
0.0001936
5.225e-07
0.003767
0.0001519
4.555e-07
0.0001533
1.516e-08
0.0001444
0.008587
0.0002142
0.002995
6.223e-05
0.002516
0.0001457
0.0001457
4.923e-05
0.0001547
0.001108
7.54e-06
0.0001866
0.0179
0.002478
2.324e-05
6.764e-06
8.7e-10
0.0006871
1.491e-06
1.009e-05
8.066e-05
0.01505
0.0001927
0.0003318
0.0001013
3.101e-07
0.002385
0.000144
0.0001429
0.007109
0.009479
0.0001644
0.0001391
0.000128
0.001486
0.0001618
0.0001928
0.004847
4.272e-05
0.0001567
0.000149
0.0001607
0.0001627
8.303e-08
3.342e-07
0.006915
0.0001535
0.02533
2.567e-06
7.165e-06
6.919e-05
0.02165
9.077e-05
2.36e-05
0.001381
4.349e-07
0.0001484
1.138e-07
9.394e-06
0.01778
0.0001464
2.344e-05
0.0001455
2.223e-09
1.044e-09
0.0001372
0.0001441
0.0001967
0.0006418
4.81e-08
0.002464
3.165e-05
8.044e-06
4.392e-05
0.0001623
0.0001644
0.0001478
2.538e-05
0.02339
0.0001112
0.0001484
4.422e-05
0.002861
0.0001544
1.121e-09
0.003207
0.0001453
1.167e-05
0.0001442
0.0001447
7.042e-05
0.0001542
1.237e-09
0.0001442
1.507e-06
0.000146
7.934e-05
0.000154
0.0357
9.808e-05
2.378e-06
4.591e-06
1.522e-05
6.036e-05
0.0002064
0.0001553
0.003128
1.497e-05
0.0003421
5.09e-05
2.448e-08
2.371e-05
5.889e-09
0.0001072
6.287e-06
1.63e-06
4.096e-06
1.043e-07
0.0001512
0.02957
0.0001786
7.502e-06
0.00521
4.017e-07
0.0002051
1.845e-05
0.003804
3.959e-05
3.655e-05
0.0001636
0.0001569
1.175e-06
0.008624
3.998e-05
0.001642
1.953e-06
0.001241
0.0001374
7.136e-05
8.096e-06
0.0001458
2.324e-05
1.091e-06
0.0001378
0.0001573
0.001852
0.0001534
0.0001513
0.01153
0.006937
0.0001578
0.0001315
2.614e-05
6.453e-05
0.0001446
0.0001511
0.00015
0.001599
2.142e-05
9.952e-05
0.0001543
0.0001974
3.825e-07
2.484e-06
7.901e-06
0.006436
5.524e-09
0.0002316
1.868e-05
0.0001456
0.001204
0.0001699
4.342e-05
3.602e-05
0.0002666
5.212e-08
0.0001471
6.87e-09
4.081e-06
4.382e-06
5.561e-05
7.298e-06
0.007846
0.03623
2.193e-07
4.318e-05
0.0001498
7.236e-12
0.006827
6.647e-06
9.036e-07
1.448e-05
5.866e-05
0.008063
4.808e-06
3.435e-05
0.0005522
0.0005748
3.264e-06
5.261e-06
0.03693
1.163e-08
0.0001586
2.73e-05
0.0001564
1.578e-06
0.0001308
0.0001448
0.007587
3.772e-09
0.006799
0.003159
1.463e-09
6.375e-05
0.0001458
2.057e-07
3.221e-05
0.001512
1.816e-07
0.0001646
0.002422
2.57e-10
0.0336
1.125e-06
0.007946
4.177e-05
5.223e-08
6.308e-06
5.721e-07
0.0001556
1.573e-05
0.0001578
0.05046
0.0001155
0.0001802
0.0001184
3.516e-05
0.02153
6.717e-06
0.0143
0.000162
0.02234
0.0001527
0.0001573
8.821e-05
1.138e-08
0.0001502
2.357e-08
1.155e-06
0.001111
0.001056
0.0001459
0.01131
0.0001155
0.0001593
4.554e-06
1.307e-06
3.597e-07
0.0001427
4.128e-06
0.000147
0.0004157
1.392e-09
0.0001163
0.02261
0.0001298
0.000146
0.000119
0.0009619
7.658e-08
4.7e-05
0.0001614
0.002516
0.0001453
7.666e-11
1.426e-09
0.003721
0.0001653
0.0001269
0.0001355
0.0001314
0.0007363
0.02109
0.02344
0.0001533
0.0001731
0.0001736
0.0001599
0.0007981
0.01547
5.263e-06
8.784e-06
8.706e-10
0.0001663
4.672e-07
0.00241
0.0001042
0.0001316
2.274e-06
0.006151
4.746e-05
7.767e-10
0.0004343
0.01092
0.0004094
5.566e-05
0.0008502
1.049e-09
0.0472
0.000278
0.01959
0.009799
0.0001072
1.084e-05
7.485e-10
0.0001544
0.0003395
0.0001413
6.644e-06
2.681e-05
0.0001353
2.271e-05
6.024e-05
0.001551
3.543e-06
0.0001428
0.0001651
6.737e-11
0.0001455
1.144e-05
1.64e-05
3.911e-05
6.63e-07
0.0001654
0.0001124
0.0003619
2.22e-07
0.0007457
2.996e-05
0.0001504
3.683e-05
4.387e-06
2.691e-06
3.559e-05
0.0005092
0.0001451
2.739e-05
0.02254
6.121e-07
0.0001407
0.01728
0.0005679
0.0001448
0.0001388
0.0001644
0.0001457
0.02198
0.000139
3.525e-06
0.02311
5.765e-09
0.0004924
0.0008737
4.659e-06
0.0004612
1.716e-05
6.104e-06
1.416e-10
0.000266
0.0001436
0.001873
0.0009263
0.01401
0.0001482
0.007016
0.0001463
0.006394
0.0001474
0.02489
0.0001435
1.929e-05
0.001992
0.0001378
0.0001444
0.001729
0.000157
4.916e-06
0.0001541
0.0001335
0.0001613
0.0005431
0.0001496
3.981e-09
8.76e-07
9.386e-08
1.671e-05
6.217e-05
6.704e-06
1.692e-05
0.01345
0.0002045
5.997e-08
0.02035
1.243e-05
1.723e-06
0.0001436
0.0002939
0.02502
0.0001441
1.282e-10
0.0003097
2.414e-07
0.0001458
8.642e-10
2.102e-05
5.195e-06
0.002523
0.0001309
0.0001308
0.01762
0.0473
0.01385
0.01147
4.75e-05
0.0001658
0.0001558
0.00816
0.0001215
4.679e-07
0.000122
0.0001902
0.001059
0.0001063
6.182e-07
5.017e-06
3.797e-05
5.498e-06
0.005213
0.000146
0.005837
0.003215
1.429e-08
0.0007607
0.0001535
4.629e-05
0.003421
2.261e-05
0.009793
2.822e-07
0.05502
0.0001455
0.01084
7.95e-05
6.504e-10
4.587e-07
0.0001643
0.0003469
5.114e-06
0.0001576
0.0001305
4.27e-05
9.651e-06
4.293e-10
0.0001513
1.817e-08
0.003053
0.0001439
6.55e-06
0.000137
0.007321
0.0001514
0.00282
0.0003534
4.926e-05
5.199e-05
0.02713
2.731e-06
0.000152
2.636e-05
2.16e-06
1.28e-06
0.0001987
0.0001981
3.58e-06
0.0001718
1.167e-09
0.0001354
7.882e-07
6.69e-07
1.213e-10
0.004309
0.0002845
0.0001488
0.0001455
0.0001437
0.0128
0.0001439
1.557e-09
0.0001454
3.64e-07
0.0001574
0.0001189
8.087e-05
1.544e-06
0.0002716
4.202e-07
0.0001579
0.0001336
0.002683
2.268e-08
0.0001448
5.212e-05
2.73e-05
0.003421
5.128e-05
0.0001933
0.002838
4.21e-05
2.495e-05
0.0001535
0.0001372
2.758e-06
0.0002126
0.0001327
0.000159
1.504e-05
0.0001372
1.438e-07
0.0001462
0.0009286
0.0004277
0.003389
0.0001908
0.0001392
0.006862
3.695e-06
0.00819
0.0001512
8.343e-05
0.0001543
0.0001454
0.0001417
0.0002086
2.413e-09
8.481e-05
3.661e-05
0.0001488
1.045e-07
0.0001634
0.0001526
0.0001961
0.0001691
0.0001847
1.911e-06
0.0001495
2.093e-05
0.0001466
0.0001887
0.0001486
0.0001519
3.26e-05
0.01571
0.0001603
1.309e-06
4.333e-05
0.0001414
0.001534
2.081e-07
6.954e-05
9.027e-10
5.144e-07
0.01519
0.0001528
0.0001693
5.025e-07
0.0008313
1.996e-05
4.763e-06
0.000234
0.0001543
0.0001443
2.305e-05
1.525e-05
0.0001064
0.0001459
0.0004949
0.0001456
0.0001629
0.0002104
0.0001428
0.01867
0.0001663
0.0001051
0.002613
0.002814
5.319e-06
0.0001466
6.764e-06
5.15e-07
0.0001325
0.02678
1.684e-05
0.0001579
0.0003393
0.01126
2.781e-06
6.484e-05
0.008137
1.32e-06
0.0001978
1.563e-05
1.134e-06
0.0001572
0.0001534
5.131e-05
0.0001515
9.691e-06
0.001399
0.0001512
4.158e-05
0.000148
0.0009409
4.848e-05
0.04094
0.000141
0.0007594
1.027e-09
0.00211
1.049e-08
0.000157
0.0001376
1.084e-08
2.332e-05
0.000157
4.706e-06
0.0001508
0.002742
0.0001491
0.006899
2.228e-08
0.003568
0.0001649
4.368e-05
2.233e-05
0.0001464
4.813e-05
0.0001529
0.000164
7.349e-07
0.000149
3.772e-05
2.256e-07
0.0001444
0.0001485
0.008929
0.0002239
0.0002476
0.0001553
0.0001616
0.0001341
0.0001623
0.0206
0.0002402
0.0001548
0.0001128
0.0001375
0.0001536
3.245e-06
3.726e-09
0.0001395
0.0001701
1.734e-08
0.01711
3.636e-06
0.01523
1.995e-05
3.361e-09
0.0001904
0.0003133
0.005638
0.0001502
9.359e-07
0.0001624
0.01554
7.452e-08
3.114e-05
0.0001487
5.806e-06
5.597e-11
5.115e-10
0.007369
0.004736
2.694e-05
0.0001552
0.01427
8.23e-05
0.01713
2.492e-06
0.0009829
0.001884
2.648e-05
8.434e-08
0.002057
0.0001424
0.0001452
5.085e-05
0.0001382
0.0009145
0.0001521
0.0001508
2.387e-05
0.007281
0.02433
0.0001356
4.549e-06
5.277e-07
0.002159
3.926e-06
0.003395
9.953e-10
8.581e-06
0.0001489
1.814e-05
5.613e-06
0.0009647
3.045e-05
4.508e-10
0.0001282
1.501e-07
2.123e-05
1.929e-05
0.0001388
0.00864
0.01538
8.218e-07
1.221e-05
0.02425
4.109e-07
0.0001629
0.0001717
1.439e-05
0.000153
0.02398
0.0001451
2.727e-06
1.403e-06
2.258e-05
3.963e-07
8.158e-07
0.01106
8.272e-09
0.0003091
5.837e-05
0.0001494
0.0234
0.0001509
0.03225
6.662e-05
0.01593
3e-05
0.0002199
3.4e-05
9.958e-11
2.03e-08
0.002382
0.00146
0.0001639
0.0001597
0.0001459
0.0001486
5.02e-05
0.0001633
0.000145
4.35e-05
2.698e-05
8.24e-06
0.001405
9.64e-05
1.854e-05
0.008027
2.522e-05
5.986e-09
9.433e-07
0.000156
3.408e-05
1.204e-10
0.0112
2.76e-05
0.03079
7.939e-05
0.000268
1.455e-11
8.655e-05
7.925e-05
0.0001639
0.0001557
2.916e-05
0.001895
0.0001454
0.000147
0.00543
4.337e-07
0.02343
3.083e-05
4.285e-09
0.0001871
0.0001493
6.311e-07
0.02288
0.002036
1.058e-07
0.0001574
0.03076
0.0004872
0.0001379
0.0001594
4.798e-05
0.0001465
0.0001704
0.02593
6.968e-07
0.05239
1.131e-05
7.514e-08
0.0001488
5.815e-07
0.008812
2.591e-06
2.317e-05
4.556e-05
0.0001511
0.01173
0.001433
0.002482
3.158e-06
0.001989
4.306e-06
3.075e-05
0.0001449
0.002016
0.03129
1.221e-06
4.476e-05
0.0006976
0.009733
0.0001533
4.44e-08
0.0001783
0.001499
0.0188
0.006103
0.0237
0.003048
0.0001649
5.114e-09
0.0001621
0.0001484
1.985e-05
0.0001395
0.01513
0.0001495
0.000156
0.007015
0.0001439
0.0001638
1.224e-05
5.977e-05
0.0001456
0.0001479
0.02494
7.372e-05
1.117e-05
0.0001949
0.002088
0.008356
1.408e-06
2.397e-06
0.04703
9.695e-05
0.002112
0.0001587
3.329e-05
1.974e-09
0.01349
3.442e-06
3.572e-06
0.009969
1.045e-09
0.0001453
0.0001372
0.0001657
0.0001219
9.341e-11
0.0001458
0.00918
1.392e-05
2.268e-09
1.866e-05
2.048e-06
0.0001251
0.0001248
4.166e-06
7.806e-05
0.01005
0.000132
0.0001496
0.03379
0.0001421
0.000149
6.003e-07
2.106e-05
4.022e-05
0.01382
7.916e-08
0.006867
0.0001607
0.0001317
8.379e-05
2.034e-05
1.071e-06
5.608e-06
0.000113
3.358e-07
0.0003054
0.0001303
3.181e-05
8.63e-06
7.995e-05
0.000154
0.0001064
1.672e-06
0.0001384
0.0001367
5.243e-05
0.001136
2.068e-08
0.0001649
6.137e-06
2.289e-05
0.0004004
0.0001454
0.0001678
0.0001482
0.00084
6.057e-09
0.000184
0.0001564
4.723e-05
0.0001523
1.848e-07
4.317e-05
0.000215
7.89e-05
8.839e-05
3.631e-05
0.01453
5.302e-05
8.646e-05
0.0001976
0.0004723
0.002326
7.515e-05
0.009455
1.279e-06
2.855e-05
0.0002088
0.003127
1.968e-06
0.003057
0.0002844
2.807e-05
0.0001569
0.0001671
7.926e-05
8.592e-09
0.0001644
1.319e-05
0.0001468
0.01779
0.0001484
2.314e-05
0.0188
8.02e-09
5.639e-05
0.0001526
1.09e-06
7.4e-10
3.604e-07
0.000634
4.79e-05
6.965e-07
7.924e-08
0.0006941
0.01395
6.799e-05
1.083e-10
0.0002143
0.001487
0.0001678
0.0001606
0.0001455
0.003728
3.879e-06
0.0001118
0.0002404
0.02463
0.0001536
4.395e-08
0.0001309
0.005184
0.000164
0.02327
2.465e-06
0.0001641
0.0001536
0.02401
0.0001502
2.144e-05
6.892e-05
1.125e-09
3.47e-05
0.0002219
0.0001428
0.0041
0.0009483
4.327e-06
9.209e-06
6.522e-05
0.02137
6.686e-05
0.0001453
8.993e-06
6.593e-06
0.0001737
0.0001338
0.001228
5.719e-08
1.166e-06
9.603e-06
0.0001683
0.0001586
0.0001551
4.773e-06
0.03007
0.0001533
1.059e-08
0.0002074
0.0007272
0.0001455
0.0001473
0.0001538
0.000146
4.714e-05
5.143e-05
0.002117
0.003201
1.249e-06
6.507e-08
0.0002702
1.461e-05
0.0001942
0.02349
6.978e-09
0.0006436
0.0003236
0.006695
1.602e-08
0.00522
6.303e-07
1.78e-08
0.0001636
3.638e-06
1.31e-06
0.0001182
0.003501
1.417e-05
8.693e-05
2.918e-06
0.002065
0.0005258
0.0001488
0.02805
0.0001478
0.0001658
0.00385
0.0006468
0.0001069
0.0004521
4.605e-09
0.005424
0.0001461
1.039e-05
0.0007883
0.02569
5.703e-05
0.0003404
0.0001822
1.862e-06
1.147e-06
1.257e-08
0.0001442
1.214e-05
0.0002495
0.0003884
0.0002514
0.0001513
1.501e-08
4.945e-06
4.19e-05
0.0001654
0.000144
3.717e-05
7.932e-06
0.01434
0.0001207
1.201e-08
1.316e-06
8.212e-05
0.01109
0.0002986
3.911e-06
0.0001447
3.518e-05
0.01152
0.0001509
7.636e-05
4.98e-06
0.000145
1.931e-05
0.004162
0.0001068
1.239e-07
0.0001258
9.003e-05
9.808e-11
0.001879
1.343e-05
0.0001308
0.0001301
1.541e-05
0.003048
0.0001581
2.411e-06
3.216e-05
0.0001438
4.481e-08
1.182e-06
0.0008419
0.0001455
0.0001461
0.0003092
0.0001667
1.407e-05
1.649e-10
3.022e-06
0.0001552
1.967e-06
1.189e-07
0.000154
2.859e-06
7.323e-06
0.0003115
0.0001593
2.664e-06
0.04252
0.01192
0.0001302
0.0001284
0.0001287
0.0001272
0.0001583
0.01962
7.872e-05
6.645e-06
9.882e-05
0.0009314
0.0006516
1.445e-07
0.000128
0.0001002
0.004273
6.13e-05
4.555e-07
2.882e-05
0.003886
5.042e-05
7.471e-06
0.001347
2.499e-05
0.0001621
3.905e-05
8.389e-10
1.877e-05
5.088e-08
0.0001525
4.858e-05
0.0001453
1.461e-08
0.000329
8.062e-06
9.536e-05
0.0001501
6.824e-09
0.0001458
0.003038
7.386e-07
0.0001831
2.827e-05
0.0007743
0.002656
0.003734
3.453e-06
0.0001508
1.06e-05
0.0001369
0.0001731
0.0006529
0.0001611
0.01098
6.736e-05
0.0001436
0.0001453
0.0001555
0.0006392
3.634e-06
0.0001689
0.002056
1.768e-05
0.0001306
2.878e-06
6.721e-06
0.01504
0.02109
0.01951
0.0009688
0.000161
6.459e-10
0.0001519
0.0001454
8.009e-08
0.0001452
0.0001448
0.0001579
0.0003079
8.871e-07
0.005712
4.402e-07
0.004647
7.857e-06
0.0001464
0.0001573
0.0007871
1.711e-05
0.02055
0.0002057
0.0001571
2.678e-07
3.034e-08
0.0001483
6.852e-09
2.737e-08
9.282e-11
0.0002197
0.01536
0.007395
0.0001544
0.0001479
0.01768
0.0001125
1.312e-07
0.0001508
1.688e-06
5.15e-09
0.0001454
5.606e-06
1.39e-07
3.371e-05
0.0001458
1.283e-06
2.638e-08
4.018e-10
1.084e-09
0.0001636
0.0009802
1.408e-09
0.0001562
0.0005512
0.000144
0.002376
6.162e-07
0.02004
6.879e-06
1.141e-09
0.0001581
0.006978
5.913e-05
0.0001492
0.0001533
3.314e-06
1.094e-06
0.02491
1.078e-05
3.324e-05
0.0001493
0.01132
0.00132
0.0006712
0.001499
0.0001455
0.0004614
0.0002694
1.717e-05
3.706e-05
4.093e-05
3.383e-06
0.0001029
1.076e-08
7.901e-11
6.521e-12
2.648e-06
0.0001536
3.872e-06
0.0001484
7.303e-07
1.682e-06
0.0001455
2.547e-09
0.0001489
0.0001511
1.703e-08
1.865e-07
0.006026
0.0001574
0.000163
2.895e-05
0.0001301
1.063e-09
0.0001111
0.0001864
0.01149
0.003209
1.141e-08
9.475e-09
1.279e-08
0.005802
5.436e-06
1.747e-05
0.002484
0.0001513
4.331e-05
6.335e-09
0.0001392
0.001656
5.163e-05
0.002781
5.903e-05
0.01274
0.02891
6.317e-08
3.105e-05
2.813e-05
1.553e-08
0.0001959
1.573e-07
0.0001521
5.291e-05
0.0002559
0.0001488
0.0001544
5.817e-05
2.825e-06
5.119e-06
1.13e-08
0.0001809
0.0001454
0.000108
1.404e-05
1.135e-07
0.007176
0.02119
0.0001264
0.0001506
8.004e-07
0.0001269
2.976e-05
8.361e-06
0.0001538
4.99e-05
0.01018
1.558e-07
6.789e-09
7.299e-10
0.0001501
1.89e-06
0.001472
1.567e-05
0.01962
0.01107
1.106e-08
0.01303
1.547e-06
1.18e-05
2.673e-06
2.063e-05
0.0001577
9.148e-09
0.0205
4.762e-05
0.001184
0.0001787
5.292e-05
0.0001605
0.0001458
6.957e-05
0.0001548
0.0004078
9.132e-05
6.311e-05
1.423e-08
5.157e-10
0.02502
1.613e-08
0.0007248
0.000158
0.0001499
0.0001539
8.141e-05
0.0001489
2.372e-05
3.415e-09
5.493e-05
4.691e-07
0.03825
0.005252
2.674e-05
0.0001475
0.01055
1.333e-06
0.02327
9.932e-08
3.671e-05
0.0001387
0.001866
4.648e-05
0.0001477
0.0001549
2.814e-07
0.0001463
5.13e-06
2.864e-05
1.308e-05
0.0001111
1.162e-07
0.0002754
0.01757
0.0001501
2.388e-06
2.558e-05
5.288e-06
5.068e-05
0.0001432
1.056e-05
0.000144
0.0001672
0.0001315
0.02963
7.918e-10
4.217e-05
1.997e-06
0.01436
1.312e-06
0.0001599
0.00055
0.002942
4.493e-05
0.0001389
0.0001184
0.0001462
1.157e-06
9.429e-07
0.0001107
0.001342
0.0001425
4.149e-06
5.534e-06
2.032e-05
8.948e-06
7.017e-06
4.688e-05
0.0001473
0.002098
0.0001253
0.0001505
8.728e-06
6.985e-05
0.0001557
0.0001625
0.0001566
0.0001391
2.917e-05
0.000137
0.0001349
0.0001464
0.0001533
0.0001515
8.913e-05
1.255e-05
0.0001457
1.471e-05
0.0001386
2.724e-05
0.0001469
0.000163
0.0001516
2.727e-07
0.0002881
1.083e-09
0.0008094
2.153e-07
0.0001649
0.0001586
5.843e-09
0.00015
2.768e-05
2.362e-05
1.658e-05
5.935e-05
0.0001084
0.000146
2.698e-05
0.0002066
0.0002995
0.001971
0.0002289
9.217e-05
0.003908
4.447e-05
1.074e-05
0.0001437
0.002307
5.609e-05
9.662e-08
0.0001513
0.0001481
2.222e-06
6.136e-07
0.002429
0.001356
7.966e-05
5.695e-06
0.0001532
6.949e-05
0.0007264
0.02317
0.003006
0.0004195
0.0001386
0.0001774
1.051e-09
0.02245
0.003365
1.681e-08
0.0001691
0.0001153
0.0001449
0.0001497
0.0001601
0.000174
4.973e-08
8.955e-05
0.000147
0.0001469
4.466e-05
6.059e-11
0.0001469
0.007161
2.189e-06
2.898e-05
0.0001308
1.215e-05
1.588e-05
6.417e-05
0.0001817
1.625e-06
1.663e-07
3.932e-07
0.0001459
0.0004705
0.005053
0.0001402
0.0001429
0.0001681
0.000175
0.01478
0.0001146
4.052e-09
2.673e-07
0.04226
6.209e-06
1.227e-07
0.01197
8.902e-06
0.006446
0.0001646
0.0001616
5.632e-07
4.891e-09
0.0001443
3.089e-06
3.79e-05
0.0001469
7.817e-08
0.004561
0.0001707
0.0001551
0.0009006
1.874e-06
5.999e-05
7.379e-05
0.0001451
0.0001456
0.03753
0.003222
0.0001334
0.0001234
0.0001485
1.63e-06
0.02648
0.003691
3.955e-06
3.069e-07
0.0326
0.0002393
0.0001427
5.283e-09
0.000167
1.211e-05
3.353e-06
0.0001534
1.346e-05
0.0001119
2.28e-05
1.477e-09
0.02503
3.651e-09
0.0001384
0.0001419
0.002131
0.0001511
0.000143
1.164e-09
1.853e-05
1.32e-05
2.406e-06
9.862e-05
0.0005777
0.0001408
9.82e-10
0.0001559
4.276e-05
0.0001347
0.0001518
0.006161
0.004163
0.0003872
0.0009535
0.02483
0.000162
0.0001362
0.0002694
1.227e-05
5.011e-06
1.147e-08
0.0001605
0.01468
7.694e-05
0.0001471
0.0002708
1.266e-05
0.0002711
0.0001535
0.008441
1.419e-09
0.0001315
0.0001436
7.296e-05
3.559e-05
0.02305
4.271e-06
0.0001478
1.361e-05
0.0001605
3.606e-05
0.000148
0.0001528
1.031e-06
2.038e-05
2.099e-06
0.001735
0.0001764
0.0001363
5.114e-06
0.0001468
1.764e-06
1.064e-09
0.0001599
0.002866
0.007305
3.649e-05
5.042e-07
0.0001863
0.0001522
0.0001363
0.0001987
0.0001579
0.0001447
3.248e-06
9.289e-05
0.01075
0.0001357
0.0001549
0.0001541
0.0001488
1.739e-05
0.0008767
0.0001454
5.02e-05
4.298e-05
0.0001965
0.00015
0.0001467
0.0001446
0.0001578
0.001227
0.02908
2.367e-06
1.194e-09
7.689e-09
4.417e-05
9.829e-08
1.962e-07
0.0001481
1.491e-09
8.181e-05
6.223e-06
0.02518
0.0001553
0.0001595
1.419e-05
6.795e-07
5.374e-07
6.719e-05
0.0001563
0.001314
1.432e-05
4.233e-05
0.0001544
0.0001642
0.001517
0.0001536
1.363e-05
0.0001564
0.0004761
9.094e-05
0.000134
0.0001522
7.245e-07
2.044e-10
3.11e-08
0.0001373
6.488e-07
0.0004008
0.0001325
0.000119
0.000146
7.803e-06
0.0001114
0.0003395
2.405e-06
2.862e-05
0.0001495
0.0001664
0.0199
2.256e-08
0.0001467
0.0001523
1.495e-08
0.0001073
0.0001442
1.883e-07
0.006768
0.0001525
0.0001522
0.02216
2.17e-05
1.349e-09
2.559e-06
0.0001067
0.007819
0.0006779
0.0001544
0.000145
0.0001533
1.298e-05
4.12e-05
9.272e-05
0.0001479
1.828e-08
1.518e-05
6.732e-05
0.003615
0.00134
4.733e-05
0.0001342
0.0001555
2.517e-05
6.888e-05
0.0001503
3.087e-05
2.742e-06
0.01563
0.000167
0.0001746
0.01357
0.0001503
0.02
6.664e-05
0.0001
8.832e-05
0.0001477
4.387e-06
0.0004479
0.005583
0.0001158
0.0001165
1.101e-05
0.0002877
4.296e-11
0.009432
0.0001572
0.0005774
0.0001414
0.0001015
7.094e-05
1.348e-07
2.465e-07
0.0003595
5.519e-06
1.519e-06
0.0007581
0.0001584
0.0001063
2.931e-06
3.094e-08
0.000253
0.0001513
6.274e-07
0.0001658
5.525e-07
7.901e-05
0.007608
0.01957
1.413e-05
0.0001459
0.001995
0.0001671
0.0001447
0.000338
5.891e-07
0.003434
3.506e-09
3.453e-06
0.0002359
0.0001448
0.001277
2.59e-05
0.0001789
0.001178
0.0001983
6.356e-05
0.0002766
5.918e-06
0.0001465
2.154e-05
0.0001379
0.0001165
1.462e-05
5.332e-05
0.0001187
2.515e-06
2.029e-09
0.0001419
0.0001455
5.759e-05
3.897e-05
7.77e-07
0.0001462
4.357e-05
1.793e-06
0.01693
0.01823
0.0001457
8.539e-05
2.634e-07
0.0001513
0.005395
0.0001441
4.453e-05
0.0001514
0.0002805
5.412e-06
0.0001474
0.0006846
9.31e-06
0.0001036
0.0001494
4.304e-05
1.775e-05
0.0001655
0.0001434
0.0001477
5.8e-06
1.9e-05
7.063e-05
0.026
0.0007572
0.05631
2.313e-05
7.547e-05
0.0001281
0.0001521
0.0001571
2.928e-10
1.77e-07
1.796e-06
0.0001425
2.575e-06
3.203e-05
5.485e-05
5.127e-05
6.729e-09
0.0001598
0.0006626
3.56e-05
4.753e-05
1.917e-06
1.107e-07
0.04881
0.0002302
0.03191
0.0001497
1.349e-10
0.0001467
0.02455
3.514e-06
6.382e-05
0.01844
4.851e-05
0.0002359
5.701e-07
0.007415
0.0001092
0.006698
0.000107
3.161e-06
2.852e-10
0.007914
1.869e-09
1.322e-08
0.0001455
1.652e-09
0.0001485
9.863e-07
2.569e-07
0.000596
0.03884
0.0008735
4.622e-05
8.632e-05
0.0001501
0.00342
0.008245
0.00834
0.01716
0.000952
0.0001571
0.0001368
0.04028
4.648e-09
0.0003136
6.68e-06
4.138e-05
2.323e-06
0.0001347
2.716e-06
0.0001245
1.375e-07
0.005005
6.865e-09
1.122e-05
8.758e-06
0.000154
6.318e-08
0.0001529
0.001493
0.000592
0.0001579
0.0001614
0.002421
7.04e-05
0.005051
0.0003502
7.551e-05
2.089e-05
0.006175
7.326e-09
7.382e-05
7.764e-08
0.0001499
0.02017
0.001068
0.01152
0.0001521
5.521e-05
0.0001454
0.0001463
0.0001454
0.003874
2.736e-05
0.0006008
0.03275
0.0001509
0.008636
0.0001505
8.106e-09
3.243e-07
4.799e-09
1.392e-05
0.0001529
1.367e-06
9.116e-06
0.0001573
8.204e-06
0.0001464
0.002546
0.02587
0.0002076
0.03545
0.0001422
0.0001427
5.404e-05
0.01758
0.0001512
1.257e-09
2.561e-05
0.0001398
0.0001459
5.515e-05
0.0001509
5.047e-06
2.095e-08
0.0001602
0.0001411
0.0001445
3.649e-05
2.025e-06
1.236e-09
0.0001527
0.0001611
6.455e-05
9.023e-06
0.0001526
1.124e-05
8.317e-05
0.0001667
2.061e-06
0.0005137
2.019e-09
0.0001517
4.698e-05
7.185e-05
4.543e-06
0.0001462
0.004358
0.0001456
0.00793
0.02692
7.071e-05
0.0006592
9.651e-06
0.0001903
0.00016
4.211e-07
7.96e-06
1.061e-05
2.616e-06
1.278e-06
0.001264
0.0001371
4.838e-05
1.329e-05
0.01484
1.012e-05