/*--------------------------------*- C++ -*----------------------------------*\
  =========                 |
  \\      /  F ield         | OpenFOAM: The Open Source CFD Toolbox
   \\    /   O peration     | Website:  https://openfoam.org
    \\  /    A nd           | Version:  8
     \\/     M anipulation  |
\*---------------------------------------------------------------------------*/
FoamFile
{
    version     2.0;
    format      ascii;
    class       volScalarField;
    location    "60";
    object      nut;
}
// * * * * * * * * * * * * * * * * * * * * * * * * * * * * * * * * * * * * * //

dimensions      [0 2 -1 0 0 0 0];

internalField   nonuniform List<scalar> 
127143
(
6.795e-23
4.602e-22
2.903e-21
3.473e-20
2.363e-19
3.62e-20
1.263e-17
1.779e-18
5.319e-19
2.785e-18
2.057e-17
1.669e-18
1.644e-20
7.066e-20
9.984e-09
4.943e-16
1.241e-19
0.00469
0.003187
1.609e-13
4.576e-05
4.414e-13
6.546e-05
1.656e-08
3.697e-13
3.085e-11
1.376e-13
1.431e-13
7.292e-12
0.00503
2.281e-09
2.639e-11
1.453e-12
7.772e-11
5.082e-05
1.471e-12
2.725e-05
0.0001908
4.894e-08
9.273e-12
0.003182
4.186e-06
4.532e-06
8.669e-19
0.004701
1.261e-10
8.067e-12
0.0004175
2.135e-08
3.253e-08
1.836e-15
0.0004404
1.301e-05
5.115e-05
0.006667
2.594e-09
0.006666
9.05e-05
0.005924
4.995e-05
4.09e-06
0.001546
4.317e-07
0.006702
4.833e-10
2.192e-05
6.787e-05
3.644e-07
3.739e-07
0.002891
8.818e-09
4.49e-13
0.002065
0.005238
0.006693
4.405e-13
0.0008563
3.48e-05
2.71e-09
0.006705
5.796e-12
1.717e-13
2.268e-09
3.633e-11
0.001613
6.825e-05
1.099e-07
1.075e-12
2.251e-05
3.18e-08
0.005015
3.477e-05
1.111e-07
4.742e-05
7.106e-07
0.0001094
4.525e-06
5.37e-10
0.0001052
5.876e-05
0.006705
2.683e-08
1.335e-09
9.021e-06
8.168e-05
9.322e-05
2.618e-07
0.002891
8.929e-06
0.00668
1.607e-08
7.779e-13
8.216e-06
7.826e-07
0.006692
2.876e-05
0.0006017
0.006693
0.0008859
8.629e-15
0.006681
2.997e-09
5.216e-07
0.0001092
7.145e-12
3.994e-12
0.0006609
0.001051
4.805e-07
1.762e-09
4.609e-06
5.217e-07
7.493e-07
3.836e-05
3.527e-17
5.475e-06
0.0002043
0.0001385
2.355e-11
0.0001808
5.189e-05
0.001035
0.000106
0.0003923
1.409e-05
1.306e-06
5.83e-12
0.006702
4.091e-07
3.535e-10
3.889e-06
3.331e-08
7.833e-05
2.825e-05
3.946e-07
0.001659
7.238e-05
1.071e-09
0.0004446
3.373e-10
9.992e-09
1.292e-15
0.005523
4.771e-06
8.356e-11
1.049e-09
9.229e-06
8.431e-06
8.358e-10
0.0002018
3.993e-08
0.0003923
1.684e-05
1.504e-06
0.002627
0.0001479
2.409e-06
5.032e-07
3.359e-08
0.002083
1.526e-06
0.0006275
0.0001991
0.0001578
2.169e-09
0.001619
1.348e-05
8.201e-07
2.575e-08
0.0008373
4.975e-06
2.849e-07
0.0002045
6.105e-07
1.027e-17
0.0004936
0.006638
0.006625
2.218e-15
0.002962
0.006694
0.0002024
0.001379
3.904e-05
8.366e-19
1.733e-07
0.0001253
1.841e-06
0.004415
0.006692
0.000154
0.001173
0.006689
9.679e-10
8.422e-07
5.003e-16
1.434e-09
1.757e-06
3.205e-06
0.0001232
3.004e-06
0.006694
3.019e-08
1.129e-05
1.671e-10
2.338e-08
3.089e-10
0.0001682
3.106e-07
0.0003341
3.461e-05
0.0007833
0.002173
1.382e-13
3.652e-05
0.0001038
4.74e-06
1.198e-20
0.006568
1.577e-05
3.602e-07
1.549e-09
0.0003576
1.233e-09
1.394e-05
1.294e-14
9.591e-08
1.268e-13
7.627e-15
0.002899
6.348e-06
5.188e-11
1.219e-06
0.0001501
1.086e-08
7.695e-06
0.001229
2.841e-09
6.413e-06
1.565e-05
0.0004437
0.0008265
2.519e-05
0.0009977
3.339e-06
1.1e-09
1.204e-07
1.139e-07
5.119e-06
2.639e-06
2.84e-10
0.002625
0.0007983
1.467e-05
6.841e-07
5.98e-06
9.011e-06
5.514e-08
0.002641
1.068e-05
0.003389
0.0001513
9.31e-06
0.00669
0.006692
1.027e-17
2.094e-06
0.006693
4.722e-08
0.002148
7.885e-05
4.545e-05
0.0001043
1.025e-05
0.006697
7.254e-06
3.903e-09
5.408e-06
0.0003543
3.145e-06
8.357e-10
3.275e-05
1.415e-05
3.622e-05
1.069e-10
1.054e-06
1.882e-06
0.00669
0.001575
1.651e-06
2.025e-07
9.832e-08
1.464e-09
0.003732
0.00669
8.327e-08
0.0002128
6.754e-10
0.000139
0.002974
8.306e-05
5.091e-09
0.000427
1.199e-06
7.487e-08
9.805e-05
0.0001096
3.255e-05
7.988e-09
2.361e-06
0.0009194
0.006692
5.58e-05
0.006638
0.006625
3.137e-05
9.487e-06
1.698e-05
0.0009202
1.068e-06
0.0002044
1.746e-06
2.229e-05
7.234e-06
1.175e-06
4.383e-08
2.115e-08
3.269e-06
1.311e-09
1.26e-07
2.001e-09
0.003196
0.000103
6.328e-06
0.0001387
3.741e-08
0.0001425
1.939e-06
0.006309
8.104e-09
0.001311
5.005e-07
0.002714
3.602e-08
3.832e-08
0.006697
0.003352
0.002901
1.92e-09
0.002646
2.542e-06
0.0003937
1.748e-10
2.929e-08
0.0009778
0.0001242
6.26e-09
6.545e-13
0.0001793
0.002645
0.001424
1.485e-11
2.482e-09
2.818e-05
0.0006674
6.961e-14
4.456e-05
1.435e-11
0.000438
0.0006032
0.006692
1.353e-05
1.241e-07
1.064e-08
2.438e-08
2.383e-09
1.402e-05
3.953e-09
0.000136
0.0006198
3.893e-11
0.006694
5.852e-05
0.0002324
4.349e-05
2.282e-06
0.0001137
7.827e-07
0.006705
4.767e-08
2.258e-06
9.412e-10
4.665e-05
0.000524
7.706e-07
8.526e-07
2.573e-05
1.248e-10
7.578e-06
3.447e-08
1.142e-05
2.397e-11
3.131e-07
0.00317
0.0003073
1.289e-05
4.42e-06
3.881e-05
2.705e-09
9.454e-05
0.006677
3.404e-07
6.894e-05
0.0002242
5.774e-07
0.006697
1.649e-06
3.635e-08
0.0004728
0.006697
0.00669
4.897e-08
0.0001706
8.146e-06
0.0003362
7.624e-10
0.00619
6.557e-08
0.002937
0.001179
5.729e-05
5.669e-09
2.8e-06
1.143e-09
3.757e-05
7.1e-05
5.862e-10
4.752e-09
9.054e-05
2.54e-06
1.149e-06
2.15e-06
0.0007644
8.424e-07
2.324e-06
0.002687
0.001521
6.151e-05
1.575e-08
0.006667
0.0002009
2.914e-05
9.378e-05
0.0002073
0.000139
0.006644
6.316e-07
3.943e-05
9.528e-08
2.757e-05
6.868e-12
8.726e-08
3.209e-08
1.62e-09
5.501e-06
5.829e-07
3.595e-05
0.006689
7.722e-10
0.0009145
2.087e-07
1.415e-07
7.576e-06
1.164e-06
2.58e-17
2.839e-06
1.138e-06
0.0001003
1.365e-06
0.006687
6.057e-12
0.001536
0.0001734
0.0005437
1.465e-19
1.583e-15
1.939e-15
0.006697
4.5e-08
1.351e-07
0.00669
0.00145
2.928e-07
7.374e-06
7.307e-06
5.076e-05
5.232e-09
0.0002057
2.488e-12
0.002739
0.0009254
4.395e-14
1.773e-08
1.063e-09
6.738e-08
0.006325
4.38e-06
0.001171
0.0007795
0.006614
3.248e-10
1.023e-10
1.048e-07
0.006636
5.948e-05
0.0001135
1.137e-08
3.366e-06
2.319e-10
0.00121
0.000915
7.656e-07
4.589e-06
0.006668
3.518e-05
5.112e-06
6.214e-09
4.007e-08
9.592e-09
8.266e-09
0.0004721
1.114e-06
6.389e-08
1.258e-05
4.584e-07
0.003594
2.509e-11
5.456e-06
5.947e-10
6.267e-07
0.0004224
0.006702
0.006701
1.696e-05
1.652e-08
1.248e-06
0.006692
0.004959
1.183e-05
3.847e-09
0.0001161
5.287e-06
4.746e-09
1.604e-11
2.505e-05
0.001216
0.006682
8.756e-08
9.894e-05
4.463e-07
0.005046
4.262e-13
1.056e-06
3.626e-07
0.002642
1.111e-10
0.006692
0.0001391
0.0003963
0.0007999
0.005086
1.761e-07
0.0004467
9.112e-14
0.006644
2.832e-07
1.643e-09
0.00669
2.306e-06
0.005394
1.17e-07
6.736e-05
0.00669
4.356e-09
8.266e-09
2.62e-07
1.558e-06
0.0001168
2.688e-09
3.085e-09
1.473e-06
6.866e-08
1.673e-07
4.103e-08
5.754e-05
5.329e-06
2.949e-10
0.005614
2.428e-09
0.00669
1.222e-06
0.0008863
0.0001112
0.006677
0.005986
6.705e-05
3.784e-08
1.293e-05
0.006484
0.006675
4.7e-07
1.806e-11
6.574e-09
1.006e-09
0.002267
8.717e-06
6.167e-05
1.925e-06
8.092e-06
1.308e-07
1.941e-10
0.006484
1.819e-08
1.359e-05
8.03e-05
4.47e-06
0.006609
0.004961
8.686e-05
7.077e-11
3.663e-05
2.843e-11
0.0008128
0.003993
2.795e-06
2.107e-08
0.000195
7.939e-10
9.332e-05
0.0006608
2.669e-08
6.431e-06
1.558e-05
2.358e-05
2.316e-18
3.656e-08
9.842e-05
6.86e-05
2.316e-06
2.821e-07
2.767e-10
3.022e-08
0.0004135
9.25e-07
4.781e-06
6.611e-05
0.006677
6.609e-08
1.854e-05
4.605e-06
0.006636
0.006677
8.662e-12
0.0001008
6.933e-09
3.351e-07
1.806e-07
0.001557
3.197e-05
3.502e-10
1.016e-05
1.139e-08
0.006688
0.006667
5.72e-06
1.391e-05
3.837e-09
5.068e-06
2.223e-10
0.002129
1.089e-08
0.0001286
0.002366
0.004116
8.896e-10
0.0001517
8.654e-09
3.487e-17
8.667e-07
3.677e-06
0.0002075
0.004905
5.024e-07
3.967e-08
1.656e-11
0.003463
0.0006308
8.353e-06
6.57e-10
2.427e-05
2.448e-08
0.002913
2.059e-08
3.431e-07
1.755e-06
0.0006989
5.434e-05
2.128e-22
2.121e-05
0.000182
1.808e-07
2.907e-07
1.434e-07
0.006686
5.272e-05
0.003186
0.0001221
0.003834
2.227e-11
4.74e-07
1.029e-10
0.003733
1.974e-08
4.841e-05
4.873e-08
1.742e-07
0.004124
0.0002541
1.263e-07
7.094e-09
0.0001297
0.00263
2.077e-05
4.957e-07
0.003604
1.752e-06
4.858e-05
3.732e-07
3.031e-06
3.408e-05
8.488e-07
1.912e-11
2.31e-07
0.006608
0.0002487
0.001862
2.486e-11
1.508e-09
5.282e-05
0.001515
1.345e-08
0.00662
9.142e-06
2.864e-08
2.393e-05
3.816e-13
2.475e-05
1.331e-07
1.559e-05
0.0005006
1.815e-05
0.006697
5.907e-19
3.954e-06
2.085e-06
8.589e-09
0.0001531
8.398e-07
1.538e-06
1.546e-08
0.006681
0.003336
8.676e-06
0.003988
5.797e-07
2.163e-07
2.589e-07
5.347e-07
0.006659
7.282e-05
0.0001086
0.006688
0.006656
4.476e-06
0.001542
0.00226
1.068e-06
0.0001508
7.77e-15
4.954e-06
8.588e-06
0.006678
3.896e-05
1.647e-05
3.309e-09
2.198e-10
8.631e-06
0.003691
0.006548
0.001181
3.615e-13
0.006678
0.0001331
2.865e-10
4.262e-07
2.362e-11
0.005663
0.0006578
4.503e-07
0.006692
1.451e-09
0.006679
1.821e-07
6.574e-11
5.481e-08
4.39e-06
2.95e-12
0.005224
7.497e-09
2.029e-05
4.325e-10
1.042e-06
3.21e-10
4.006e-10
5.617e-05
5.8e-05
1.104e-05
1.074e-14
0.006692
0.0002856
3.777e-09
8.558e-09
4.165e-06
1.059e-12
0.003753
0.0002689
8.052e-08
1.128e-11
1.858e-14
1.159e-07
3.068e-16
1.891e-08
6.315e-16
6.104e-07
1.394e-08
0.00333
1.641e-13
0.0008664
1.844e-07
0.005045
0.005157
9.087e-05
0.0004784
7.939e-07
0.002291
7.634e-07
4.903e-05
0.0003963
4.218e-08
1.508e-07
0.006693
0.002738
2.166e-05
0.0004606
3.173e-09
1.052e-13
0.0003767
2.144e-06
1.427e-08
0.0005321
3.658e-07
0.006687
8.208e-06
9.579e-09
0.006349
7.77e-09
5.991e-06
0.001619
0.006664
0.003063
0.002094
1.618e-15
1.332e-05
9.838e-14
0.0001844
1.115e-06
2.442e-07
6.562e-10
6.609e-09
0.00562
4.692e-11
9.477e-06
0.005503
9.352e-06
2.009e-13
0.001125
4.203e-09
3.932e-06
1.606e-05
1.401e-10
3.954e-16
1.624e-08
0.0009389
0.006693
2.121e-06
7.672e-06
3.648e-06
6.759e-09
6.888e-07
9.696e-11
2.901e-05
6.033e-05
8.211e-11
0.000177
2.013e-12
0.006688
0.0003359
7.062e-08
0.0001861
2.783e-07
0.0001003
0.006691
0.002359
1.958e-08
4.091e-05
3.381e-06
2.066e-08
2.193e-07
0.001193
2.546e-05
1.083e-07
2.93e-08
1.413e-14
2.34e-05
1.431e-09
1.183e-08
2.549e-06
0.001103
5.678e-07
9.618e-07
1.664e-08
1.739e-12
8.938e-05
0.006686
0.006681
0.0003629
0.0002099
7.457e-05
0.006689
1.63e-06
5.918e-05
6.292e-05
3.128e-07
5.813e-05
9.541e-08
2.267e-06
0.006705
6.612e-05
5.479e-05
5.731e-12
1.231e-10
4.877e-05
1.137e-05
0.0003766
2.516e-09
2.021e-08
1.261e-06
0.002318
6.211e-07
1.274e-07
9.704e-06
7.011e-11
0.006458
6.552e-12
5.187e-10
0.001932
1.959e-06
9.639e-09
0.004799
4.841e-14
1.484e-14
0.006273
0.006689
4.714e-06
1.927e-05
7.403e-14
3.478e-06
2.015e-07
9.499e-09
5.999e-08
6.758e-05
9.477e-05
0.002982
2.794e-08
0.001183
2.837e-07
1.698e-05
5.664e-09
4.604e-05
0.005325
2.43e-14
1.462e-05
0.006691
4.22e-08
0.005667
0.006686
1.393e-06
7.561e-05
2.659e-14
0.006686
1.561e-09
0.006693
1.572e-07
8.935e-05
0.002997
5.496e-06
2.606e-09
9.125e-09
1.861e-08
7.492e-07
0.003762
0.0005403
0.0001926
5.312e-08
8.211e-07
9.668e-08
1.66e-12
2.727e-08
8.37e-14
1.118e-06
9.018e-09
2.391e-09
8.418e-09
2.02e-11
5.431e-06
0.003223
0.003652
1.543e-08
1.671e-05
1.642e-10
0.003112
1.45e-08
0.0002777
3.145e-07
1.738e-07
3.563e-06
6.605e-05
8.355e-10
0.000864
3.187e-07
3.825e-06
1.415e-09
9.393e-07
0.006521
1.564e-06
1.68e-08
0.005607
9.831e-08
1.259e-09
0.006672
2.645e-05
2.99e-06
0.0002981
5.437e-06
0.0004836
5.96e-05
0.0001
0.006656
1.159e-07
2.432e-07
0.006694
7.421e-06
0.0001655
6.435e-05
6.611e-08
3.678e-06
0.0004398
6.524e-08
2.745e-12
2.796e-09
2.173e-08
0.0004391
1.606e-13
0.002971
9.239e-08
0.006691
2.384e-05
5.434e-06
2.447e-07
1.702e-07
6.714e-08
5.308e-12
0.006698
1.031e-14
2.078e-09
3.217e-09
5.407e-07
4.594e-09
0.0008036
0.003427
6.984e-11
3.601e-07
6.65e-05
5.393e-18
9.79e-05
1.655e-08
5.43e-10
5.697e-08
1.368e-07
7.817e-05
6.449e-10
2.233e-07
4.15e-06
4.164e-06
5.42e-09
1.241e-08
0.001027
9.399e-14
9.666e-05
1.286e-07
0.0001177
1.592e-09
0.006641
0.006689
0.0001369
8.503e-14
0.0002405
0.00211
2.782e-14
4.202e-08
0.006692
3.085e-11
2.101e-07
1.3e-05
1.177e-12
2.481e-05
1.72e-05
1.905e-17
0.00241
9.899e-11
0.0005593
3.358e-07
1.025e-11
1.546e-08
3.428e-10
4.843e-06
4.967e-08
0.000114
0.002779
2.647e-06
1.107e-06
4.223e-06
2.489e-07
0.001961
2.218e-10
0.000708
7.625e-05
0.001479
3.903e-06
3.661e-05
2.692e-06
9.66e-14
6.112e-05
2.248e-12
3.762e-10
5.966e-06
1.216e-05
0.006693
0.0009668
2.147e-06
3.799e-05
9.023e-10
8.619e-10
1.438e-10
0.006681
6.732e-09
4.636e-08
1.001e-05
3.101e-14
6.902e-07
0.002612
1.202e-07
0.002675
8.375e-08
7.162e-06
5.492e-12
2.976e-07
0.0007608
0.0001607
0.006695
4.648e-16
2.734e-14
5.506e-05
6.388e-05
5.186e-06
0.006497
0.006645
8.58e-07
0.0008613
0.002936
0.000101
0.003373
0.003315
1.508e-06
1.742e-05
0.001363
1.992e-08
2.728e-08
1.626e-14
3.018e-05
2.409e-10
1.185e-05
3.213e-07
0.006647
2.683e-09
0.000465
3.294e-07
1.17e-14
4.648e-06
0.001197
3.006e-06
4.726e-07
3.012e-05
5.067e-15
0.001801
4.56e-06
0.001656
0.001046
9.371e-06
3.481e-08
4.357e-15
8.392e-05
1.299e-07
0.006674
1.721e-08
1.344e-08
0.006663
4.887e-09
7.477e-07
1.498e-05
5.651e-09
0.006682
2.261e-05
1.549e-16
0.004831
3.929e-08
2.04e-08
2.966e-07
3.719e-11
5.15e-05
9.546e-06
2.459e-07
4.872e-11
7.687e-06
1.393e-07
1.855e-05
2.046e-07
3.629e-10
1.534e-10
9.342e-08
5.692e-06
0.00669
9.882e-08
0.002635
3.61e-10
3.396e-07
0.00183
5.986e-06
0.006679
1.92e-05
5.199e-07
0.0066
0.002143
0.006151
5.3e-10
0.00217
1.568e-13
2.039e-06
1.888e-05
4.446e-09
1.18e-05
7.821e-08
7.947e-09
4.157e-16
2.86e-06
6.892e-07
3.479e-05
3.527e-05
0.0008293
0.006702
5.048e-05
0.001347
0.0004971
0.006699
0.001816
0.006684
6.007e-08
1.129e-05
0.006672
0.006684
1.825e-06
0.000116
3.677e-09
7.379e-05
0.00667
6.138e-06
1.201e-05
6.582e-05
1.145e-15
1.713e-10
2.601e-13
7.386e-08
6.729e-07
1.715e-08
6.78e-08
0.0002266
7.283e-05
7.157e-12
0.0006592
5.61e-09
2.495e-09
2.464e-06
3.621e-06
0.003158
0.006686
3.795e-16
4.677e-06
3.496e-11
0.006692
1.428e-14
4.827e-08
1.166e-08
1.054e-05
0.006635
0.006635
0.001148
0.0016
0.002327
0.001089
3.79e-07
5.064e-05
4.944e-06
0.002951
1.094e-05
1.305e-10
1.401e-06
0.0001607
3.329e-05
9.185e-06
4.811e-10
5.002e-09
2.377e-07
1.257e-08
0.0002541
0.002789
2.038e-05
8.684e-06
7.92e-13
2.394e-05
0.0003171
3.206e-07
0.002706
1.205e-07
8.343e-05
1.519e-10
0.003382
0.006692
0.000321
7.637e-07
7.606e-15
2.628e-11
7.353e-05
3.999e-06
3.005e-09
0.0001269
0.006617
1.765e-08
1.973e-08
1.372e-15
5.858e-05
1.451e-13
1.823e-05
0.006685
3.471e-08
6.787e-08
0.0007226
1.373e-05
0.000193
2.683e-07
4.789e-07
6.134e-07
0.0006488
8.261e-10
0.0001297
3.34e-08
1.293e-09
1.167e-09
0.003501
0.003499
6.643e-09
8.659e-06
3.863e-15
6.692e-07
5.667e-10
3.862e-10
3.572e-16
0.002915
6.149e-07
0.0004145
0.003965
0.006685
0.0006269
0.006216
1.645e-14
0.006691
3.077e-11
3.969e-05
1.087e-06
4.045e-07
1.511e-09
0.002881
1.299e-11
0.000102
1.783e-07
0.000123
1.481e-12
0.006685
3.509e-07
2.934e-08
0.0001866
3.254e-09
6.556e-08
7.551e-05
1.885e-08
5.033e-09
0.0001725
0.00666
1.907e-10
0.002909
0.00665
5.363e-05
1.177e-09
0.00666
3.016e-11
0.006694
3.304e-05
3.141e-06
0.0002487
5.629e-07
0.006657
0.0002471
4.826e-09
8.076e-05
3.49e-05
2.72e-06
3.646e-05
0.006691
0.00668
5.224e-06
3.922e-15
1.165e-06
2.267e-07
0.0008995
2.612e-12
7.105e-05
4.784e-05
0.00322
1.853e-05
8.758e-07
2.287e-09
0.0006827
4.4e-08
0.001103
4.432e-06
0.006703
4.046e-06
1.063e-07
0.0003385
7.754e-07
9.099e-10
2.013e-07
0.006675
2.263e-05
6.692e-11
1.138e-07
1.632e-14
2.867e-10
0.001701
0.0003103
1.249e-05
9.329e-12
1.864e-05
2.383e-08
1.253e-10
0.00312
6.598e-05
0.006687
1.973e-07
5.195e-08
1.362e-06
0.006693
5.844e-07
0.006692
9.526e-05
9.575e-07
0.006682
0.002171
5.75e-05
1.048e-06
0.0001726
0.002552
1.24e-08
0.006696
1.041e-08
6.502e-11
1.128e-05
0.003184
7.253e-08
0.0009428
2.352e-06
0.0001171
5.773e-10
3.245e-07
8.755e-05
1.299e-09
2.831e-06
1.068e-07
9.084e-11
0.0001667
4.669e-05
2.26e-07
0.0002068
3.135e-08
4.811e-05
1.039e-05
3.103e-07
0.0003355
0.002521
7.649e-09
0.002061
1.077e-06
4.55e-06
1.768e-14
2.034e-05
5.849e-13
6.305e-05
0.006663
6.02e-13
1.139e-07
9.694e-05
1.041e-08
0.0004125
5.331e-05
0.006705
0.0006831
2.017e-12
0.000255
4.642e-06
3.512e-07
1.064e-07
0.006695
4.265e-07
7.793e-06
7.012e-06
3.93e-10
0.0004443
2.626e-07
6.629e-11
0.006687
0.0002493
6.316e-05
0.003047
2.648e-06
1.814e-05
3.165e-05
1.584e-06
8.64e-05
0.00087
0.003386
4.383e-05
1.483e-06
0.006523
2.628e-05
2.115e-09
6.3e-14
0.006689
3.482e-07
1.026e-12
0.001489
6.676e-09
0.001447
1.011e-07
5.839e-14
0.003277
0.002811
2.601e-05
0.001007
7.441e-10
3.673e-06
0.0005292
1.115e-11
1.427e-07
0.0004549
2.808e-08
6.303e-17
1.537e-16
4.178e-05
1.871e-05
1.254e-07
7.16e-05
0.0007336
3.05e-06
0.0004955
1.543e-09
1.435e-06
2.391e-06
5.565e-08
3.029e-12
6.708e-05
2.831e-05
0.006691
2.676e-08
2.772e-05
1.779e-05
1.54e-05
8.234e-05
1.093e-07
3.874e-05
0.002888
0.006664
5.175e-09
2.957e-10
1.753e-05
9.338e-09
0.0001955
1.589e-14
1.946e-08
0.0001963
6.524e-08
2.427e-10
3.753e-05
1.889e-07
4.382e-15
0.006609
1.826e-11
8.687e-09
9.291e-08
0.005041
0.0003011
0.001204
6.143e-10
3.353e-08
0.001471
2.06e-10
0.004903
5.794e-06
5.497e-08
0.0001321
0.001806
0.006327
4.357e-09
2.1e-10
1.208e-07
1.537e-10
2.2e-11
0.0003342
3.84e-13
0.002877
2.625e-08
6.286e-06
0.002401
0.0001271
0.003271
1.097e-06
0.000683
1.901e-07
0.003387
2.009e-07
4.24e-16
3.233e-13
2.114e-05
2.061e-05
3.257e-05
1.266e-05
0.002041
0.0002151
6.682e-07
7.34e-05
0.006696
3.678e-07
1.623e-07
2.494e-08
3.838e-06
2.728e-06
5.304e-08
0.000178
5.223e-09
8.955e-14
1.3e-11
0.0001081
2.211e-07
6.57e-16
0.001048
3.979e-09
0.003091
2.344e-06
4.493e-06
6.256e-18
4.063e-06
2.551e-06
0.003764
0.0002044
2.479e-08
1.24e-05
0.006692
0.006697
0.000396
2.166e-10
0.00136
1.85e-07
1.112e-13
1.717e-06
0.0012
3.961e-10
0.002255
9.631e-06
2.12e-11
9.767e-05
0.004261
1.453e-05
1.235e-06
7.244e-05
4.326e-07
0.006695
8.934e-08
0.002905
4.796e-10
0.003055
3.841e-08
9.369e-12
1.727e-05
3.52e-10
0.0001834
1.622e-09
1.296e-07
6.66e-09
1.975e-05
0.0009271
1.854e-05
6.644e-05
3.927e-09
8.186e-06
3.236e-10
3.138e-08
0.006695
6.34e-06
0.003096
1.083e-09
3.725e-07
0.002628
0.000688
9.517e-05
6.68e-12
0.003664
7.215e-06
0.0005474
5.201e-05
0.001988
0.0001919
0.0001628
7.958e-14
0.0001053
0.000361
9.583e-09
0.006671
0.0006849
7.019e-05
5.797e-05
0.0006579
0.006687
8.84e-05
4.35e-08
1.27e-08
0.006692
0.001077
0.002245
1.682e-06
3.768e-08
0.001275
3.151e-05
9.189e-05
8.069e-10
3.331e-09
0.001691
6.89e-07
1.709e-05
0.0001024
2.218e-07
2.979e-14
0.00148
7.68e-10
6.194e-09
0.001024
1.834e-14
0.006691
0.00666
1.3e-05
1.678e-05
2.528e-16
0.006692
0.0008349
8.406e-09
6.754e-15
2.54e-08
2.045e-09
0.006317
0.006387
8.514e-09
6.331e-07
0.0001031
5.961e-07
5.629e-05
0.0008955
2.807e-05
0.006705
3.828e-10
7.849e-08
3.129e-07
0.0002312
1.339e-11
0.0007095
1.781e-05
0.006657
2.964e-06
5.915e-08
7.386e-10
7.055e-09
1.137e-06
1.948e-11
2.119e-07
2.584e-06
2.091e-07
1.87e-08
6.807e-07
0.0001093
6.523e-07
1.398e-10
0.004954
0.00515
8.712e-08
3.842e-06
1.497e-12
9.255e-06
4.546e-09
1.467e-07
0.002837
0.006691
7.146e-06
0.006702
2.403e-05
1.567e-13
2.267e-06
9.12e-05
3.283e-07
0.0001248
7.576e-12
5.996e-08
0.003274
2.371e-06
2.911e-06
2.58e-07
0.0003969
2.714e-07
6.527e-07
3.006e-06
1.184e-05
3.54e-05
1.943e-06
0.0007264
4.327e-10
1.439e-07
3.007e-06
8.586e-06
9.53e-11
1.384e-05
2.233e-07
2.08e-08
1.019e-06
8.142e-06
1.539e-06
4.09e-13
9.684e-05
6.98e-08
0.001627
0.001034
0.006703
1.243e-07
0.002242
3.751e-13
1.823e-07
4.095e-05
3.579e-10
3.444e-15
1.449e-10
1.897e-05
4.055e-07
4.456e-10
1.488e-11
0.002624
0.0003506
1.116e-06
7.876e-16
1.471e-06
2.296e-05
7.085e-05
7.191e-05
0.006692
0.0002235
2.28e-10
7.121e-06
5.732e-08
0.002007
0.0001069
1.066e-11
0.006642
0.0001083
9.078e-05
0.00123
8.923e-10
7.229e-05
1.845e-05
0.002821
5.729e-05
4.648e-08
1.313e-06
1.584e-14
1.332e-08
1.394e-06
0.006674
5.916e-05
7.846e-06
3.685e-10
7.132e-09
9.255e-07
0.002702
9.25e-07
0.006342
2.168e-08
4.663e-09
8.048e-06
1.59e-06
4.034e-05
1.089e-11
1.102e-09
1.322e-08
1.599e-06
6.622e-05
1.479e-06
1.738e-10
0.003228
0.0001247
1.146e-13
0.003058
3.911e-05
0.005293
0.006698
1.324e-06
0.003031
2.563e-08
3.551e-07
5.67e-05
0.0001971
1.218e-09
1.429e-11
1.688e-06
7.688e-09
1.332e-06
0.00139
1.176e-14
1.682e-05
2.818e-06
0.002982
6.918e-14
0.00046
3.367e-11
7.796e-13
0.003765
2.153e-09
1.29e-09
9.206e-06
0.0002484
1.155e-09
1.189e-07
1.002e-09
7.863e-05
1.229e-05
0.0002001
0.003321
0.0067
4.404e-05
0.0002822
5.441e-07
1.283e-06
6.315e-06
1.214e-13
0.0003617
0.005372
2.503e-08
1.495e-05
0.001192
5.232e-07
6.836e-06
8.454e-07
2.127e-09
3.786e-10
7.804e-13
3.052e-07
4.462e-08
1.298e-07
3.656e-06
6.234e-07
2.172e-05
5.182e-14
1.377e-08
3.385e-07
8.929e-06
0.006678
1.369e-07
1.66e-08
0.0007343
9.659e-06
6.902e-13
9.448e-10
2.528e-07
0.000135
5.513e-06
9.089e-10
0.00669
2.171e-09
0.00122
0.0001391
8.724e-07
5.798e-09
0.006696
7.167e-08
0.0002961
2.389e-06
5.452e-12
3.441e-06
1.034e-06
4.218e-16
3.881e-05
5.481e-08
0.006651
0.006633
6.497e-08
3.076e-05
1.417e-05
3.569e-09
2.146e-07
0.006685
7.493e-12
8.098e-10
2.889e-05
0.006592
0.004466
8.848e-06
2.56e-06
5.695e-08
2.1e-16
3.017e-09
0.005345
2.389e-09
1.659e-12
8.503e-05
3.77e-09
1.875e-08
0.003002
6.085e-05
8.526e-10
0.001187
0.000201
0.006631
0.006588
0.006612
0.006295
0.000129
0.000573
1.522e-06
5.967e-09
5.041e-06
1.887e-06
2.01e-05
7.282e-11
0.006157
9.857e-07
5.917e-05
8.407e-09
2.843e-10
3.182e-09
8.558e-06
4.558e-07
2.078e-08
5.561e-05
1.413e-07
0.0001818
2.491e-07
1.907e-15
6.105e-08
7.442e-12
4.101e-06
1.36e-07
0.006691
6.057e-14
3.27e-06
1.75e-08
5.692e-06
0.000131
1.034e-13
0.006693
2.893e-05
6.571e-10
0.00423
2.115e-07
5.736e-06
0.0001763
1.717e-05
2.409e-10
8.693e-05
8.616e-09
0.006625
8.211e-06
5.379e-06
3.653e-07
0.0005879
3.692e-07
0.006678
0.005565
7.119e-05
3.986e-07
2.153e-09
9.821e-05
0.0001139
1.154e-07
1.315e-05
4.262e-10
1.736e-08
0.001163
0.002142
0.0006397
1.16e-05
0.0001024
5.829e-15
3.686e-06
0.00669
5.206e-12
0.006692
0.006684
9.366e-05
0.002877
7.31e-11
0.000335
2.023e-10
0.0001275
1.884e-08
0.006695
9.739e-05
1.099e-06
7.338e-08
0.001504
0.003738
6.088e-05
5.171e-12
4.277e-12
0.006702
5.14e-13
3.108e-12
2.496e-16
0.00322
0.001349
0.0005448
9.161e-05
0.0006874
0.001583
4.611e-07
2.779e-12
9.894e-06
2.004e-09
2.021e-15
0.006691
1.193e-08
4.43e-11
2.314e-07
0.006693
1.201e-09
2.948e-13
2.734e-15
1.379e-14
9.765e-05
7.543e-06
1.77e-14
0.0002827
4.221e-06
0.006686
0.0001393
4.891e-10
0.002425
1.165e-08
1.498e-14
0.0001112
2.79e-05
3.007e-07
0.006706
0.004087
5.282e-09
6.763e-10
0.002521
6.796e-10
2.874e-07
3.859e-05
0.0009162
5.396e-05
1.108e-06
1.743e-05
0.006691
9.489e-06
7.431e-06
7.218e-08
5.693e-08
1.101e-07
5.746e-09
1.737e-07
1.073e-13
6.866e-16
4.572e-18
4.017e-09
0.0001527
2.16e-09
0.0003416
5.28e-10
6.372e-10
0.006691
3.437e-15
0.006705
4.88e-07
9.537e-13
4.45e-11
4.556e-05
6.311e-07
1.988e-07
3.889e-08
0.006628
1.624e-15
5.621e-07
0.003216
0.0009907
1.546e-05
9.981e-14
4.749e-13
5.572e-14
0.0005328
8.769e-09
2.74e-09
0.0001609
2.574e-05
3.193e-07
4.87e-13
0.006667
2.176e-05
4.683e-07
6.763e-06
6.744e-07
0.000243
0.002558
1.029e-11
1.954e-07
1.287e-07
8.515e-13
0.002633
3.976e-11
4.084e-05
5.737e-07
6.866e-07
0.006379
0.0001299
7.3e-07
2.941e-09
1.369e-08
1.173e-13
0.003235
0.004385
8.001e-06
5.224e-08
2.397e-11
0.0001683
0.002676
0.006442
0.0003126
5.239e-10
0.006361
5.315e-08
1.606e-08
8.834e-05
2.834e-07
0.0001385
5.7e-12
6.613e-14
1.209e-14
8.655e-05
2.417e-09
1.069e-05
8.866e-08
0.001645
0.001215
4.668e-13
0.0008348
8.72e-10
4.128e-08
2.181e-10
9.676e-08
2.575e-05
1.861e-13
0.0006911
4.337e-07
4.736e-05
0.003474
5.091e-07
0.0001225
0.002373
1.271e-06
2.854e-07
4.834e-06
4.248e-07
7.437e-07
7.564e-14
1.749e-15
0.002408
7.401e-15
0.002629
0.0001012
0.0001147
0.0001967
9.053e-07
0.006704
3.027e-08
3.962e-14
7.758e-08
6.287e-11
0.0008664
0.0001173
8.294e-08
1.404e-06
0.0007927
1.611e-09
0.001384
1.142e-11
1.855e-07
0.00538
8.356e-06
4.112e-07
0.0067
0.000451
1.072e-10
0.006694
2.277e-08
1.165e-07
4.654e-08
4.749e-06
2.809e-11
0.002868
0.0004808
5.486e-05
2.363e-09
1.222e-09
4.398e-09
5.039e-07
0.006683
1.534e-08
0.006686
7.435e-05
5.713e-07
0.0007532
1.383e-14
1.91e-07
2.59e-09
0.001532
3.461e-10
2.397e-05
0.002688
0.0001215
7.891e-08
0.006669
7.552e-06
0.006694
8.789e-10
3.642e-10
3.84e-07
1.289e-05
0.006601
4.313e-09
1.327e-08
1.921e-07
1.539e-10
2.858e-08
1.23e-08
0.0006577
5.661e-05
1.101e-05
1.746e-05
2.411e-08
1.444e-06
0.0001086
1.874e-05
9.783e-05
1.221e-06
2.558e-07
0.006623
0.00666
0.00218
0.0003305
5.459e-06
1.603e-08
1.673e-08
0.002639
6.121e-08
2.211e-06
1.611e-07
0.006697
8.93e-07
5.441e-05
1.041e-10
0.003131
2.495e-15
5.945e-06
7.016e-11
0.003802
0.0001131
9.558e-14
0.0003046
1.727e-07
9.604e-08
4.267e-08
1.597e-07
1.076e-06
0.006693
1.029e-07
2.609e-07
3.404e-06
1.637e-05
6e-06
4.763e-06
0.0001055
3.354e-07
8.842e-09
0.006684
0.0001331
6.658e-07
1.335e-11
7.176e-06
0.006701
5.234e-09
2.81e-10
0.0001032
6.299e-05
2.359e-06
5.623e-09
0.0002119
1.25e-06
6.391e-07
0.002127
8.05e-06
4.274e-06
0.005401
5.379e-06
1.661e-14
0.0003072
1.007e-05
2.311e-12
1.413e-05
4.54e-06
0.006689
0.0003002
8.59e-05
0.003784
8.484e-13
5.305e-07
0.006697
0.001163
3.803e-07
1.994e-16
0.006697
0.0002555
1.016e-10
1.682e-07
6.588e-06
5.933e-08
5.98e-09
6.078e-07
2.91e-06
1.885e-09
1.455e-12
1.242e-10
0.002267
6.656e-06
0.0001271
1.046e-06
0.006683
6.075e-05
6.89e-07
0.0004673
2.006e-07
5.407e-14
3.687e-11
0.002116
6.37e-09
1.025e-12
0.001272
8.244e-09
0.0002483
3.511e-05
7.328e-05
2.299e-10
1.175e-13
0.006687
1.005e-08
2.382e-07
0.006697
1.043e-11
0.0002656
1.125e-05
0.0001333
1.42e-05
2.256e-09
1.506e-07
5.992e-07
0.0067
0.003348
0.002375
9.372e-06
0.006669
4.581e-06
0.0003867
5.867e-10
0.002494
0.0002235
7.221e-09
1.302e-10
0.001744
3.107e-06
0.006673
7.213e-14
9.392e-06
2.698e-09
5.96e-09
0.000114
1.876e-08
2.263e-06
8.59e-08
2.57e-14
0.003154
6.801e-14
0.00667
0.006684
5.67e-05
6.082e-05
0.006683
8.286e-15
8.837e-08
2.755e-08
3.982e-10
9.462e-07
1.227e-05
0.005034
7.212e-15
0.0005014
3.027e-07
0.00666
2.673e-05
4.876e-05
7.28e-05
6.23e-06
1.511e-05
0.002793
1.104e-07
0.006655
4.554e-06
1.838e-09
7.341e-10
1.251e-12
9.121e-05
0.0002518
2.154e-06
0.006699
1.811e-07
2.996e-08
0.0002882
0.0002331
5.161e-05
2.4e-14
0.006012
0.006678
1.656e-06
8.493e-09
0.002118
1.681e-09
0.006701
1.504e-09
1.067e-06
2.287e-07
0.006701
6.967e-05
9.062e-10
6.062e-08
6.446e-10
6.634e-05
2.507e-06
0.006673
6.077e-09
0.004808
1.543e-09
1.11e-14
0.0009053
1.156e-05
0.0006635
2.574e-09
1.347e-11
9.95e-08
8.774e-05
0.006656
3.485e-06
8.349e-05
0.006688
6.971e-09
3.845e-07
0.00112
0.00668
0.0001128
0.0001167
0.0001883
2.354e-08
9.966e-06
0.006692
5.97e-08
2.925e-07
8.832e-08
0.0005252
0.006696
0.006688
0.0003497
9.388e-06
0.001231
3.339e-09
1.966e-14
2.137e-13
3.279e-07
8.391e-13
3.872e-11
0.00232
2.881e-14
1.029e-06
1.21e-09
0.002817
6.743e-05
4.199e-05
1.167e-09
5.684e-10
1.559e-10
1.095e-07
0.0002723
3.918e-05
2.763e-08
3.471e-07
7.922e-06
9.159e-05
3.86e-06
6.141e-05
3.067e-08
0.004346
1.158e-05
2.139e-06
5.178e-06
1.205e-05
6.283e-10
1.814e-15
3.834e-12
0.006661
1.103e-11
8.918e-06
0.006649
4.64e-07
0.006694
2.905e-09
1.222e-06
0.002883
5.038e-09
5.325e-08
0.006707
3.148e-05
0.0024
1.452e-12
0.0009405
1.637e-05
9.427e-13
8.524e-06
0.006687
4.964e-11
0.000162
0.0004039
1.714e-05
0.001516
1.17e-07
1.897e-14
3.801e-09
1.179e-06
0.000767
4.053e-07
5.127e-06
0.006688
0.0002065
2.039e-08
3.368e-07
8.272e-07
0.006701
1.125e-13
6.661e-08
9.396e-07
1.059e-05
2.865e-05
5.338e-07
0.006653
0.0001493
3.412e-08
3.263e-07
4.889e-05
1.961e-07
3.406e-09
0.001697
8.394e-06
8.462e-06
0.001366
5.346e-05
0.002381
9.599e-07
1.179e-06
2.135e-06
0.0067
2.204e-09
0.002747
0.0001129
5.584e-06
1.367e-05
1.593e-09
3.36e-06
1.04e-16
0.0006915
3.9e-05
0.002184
0.006674
5.998e-06
1.437e-06
2.869e-11
1.313e-10
1.603e-06
1.132e-08
3.962e-10
1.654e-05
2.323e-05
1.269e-06
4.267e-09
2.988e-12
6.748e-06
0.0001423
3.277e-10
4.745e-05
3.246e-10
2.56e-06
0.0007627
0.0006132
5.917e-08
0.006693
5.562e-06
6.796e-05
0.006689
0.0001092
3.087e-10
0.002698
1.246e-15
4.81e-09
1.769e-07
0.006688
2.312e-05
1.15e-07
0.003664
4.686e-05
4.757e-06
1.409e-08
5.21e-07
1.395e-09
0.006695
1.681e-07
0.006678
1.374e-05
4.288e-08
7.388e-08
6.063e-06
3.181e-09
9.664e-16
0.006611
0.006692
6.431e-07
2.087e-07
5.063e-10
3.724e-05
3.017e-07
2.041e-09
0.0005756
0.001247
0.002922
1.843e-07
9.12e-11
3.397e-05
0.000156
0.006686
2.585e-07
6.174e-05
3.937e-06
1.211e-08
1.148e-06
0.002188
3.206e-09
8.259e-07
0.0004345
6.031e-08
1.107e-07
0.0001767
0.006682
0.006518
1.189e-08
4.142e-09
1.435e-06
0.003223
7.812e-06
0.003283
1.241e-07
1.477e-06
0.006604
8.895e-06
3.544e-05
2.551e-15
4.801e-11
8.224e-10
0.00668
3.892e-09
2.133e-07
1.623e-08
2.328e-08
2.707e-13
1.694e-05
2.169e-05
2.397e-07
4.169e-07
2.395e-09
2.074e-11
0.002216
0.003156
0.003201
9.184e-05
6.393e-16
0.0008672
0.001758
6.149e-09
9.819e-07
0.001257
7.132e-08
3.981e-06
3.674e-11
0.0005703
1.025e-07
0.0001334
8.71e-06
6.741e-09
2.568e-15
0.0002367
3.005e-14
3.915e-13
0.00669
2.4e-14
5.838e-07
5.596e-10
7.518e-11
1.17e-05
0.0008972
2.265e-06
3.453e-07
2.234e-06
5.085e-05
0.0002455
0.0004695
6.774e-05
0.0005121
1.117e-05
1.625e-05
2.804e-05
0.001199
6.536e-14
6.027e-06
5.83e-10
3.386e-07
3.397e-09
0.006648
3.061e-09
1.338e-06
2.534e-11
0.0004167
2.969e-13
2.962e-08
2.574e-08
8.779e-05
1.419e-11
8.01e-05
7.438e-05
1.468e-05
0.0001646
8.615e-05
9.243e-05
1.355e-06
2.391e-05
8.401e-07
2.279e-06
1.037e-07
0.0001329
3.222e-13
1.55e-06
2.04e-13
4.043e-05
0.0004533
3.784e-06
0.001271
0.0001572
7.947e-08
0.006691
0.003342
0.006691
5.969e-05
1.694e-07
4.439e-07
0.002166
8.434e-06
0.0001682
5.658e-05
2.152e-14
1.01e-10
7.075e-14
5.539e-08
0.0001177
1.445e-09
1.324e-09
0.0001198
3.222e-09
0.006695
4.949e-05
0.003002
2.097e-07
0.0009995
0.006679
0.006675
3.822e-07
0.001937
0.0001468
1.729e-14
1.452e-07
0.006672
0.006692
5.292e-07
0.0002548
6.741e-09
1.658e-12
0.005099
8.522e-06
1.668e-07
6.592e-08
4.283e-09
1.625e-14
4.324e-06
9.107e-05
7.927e-07
2.962e-08
3.566e-05
2.84e-08
1.063e-06
1.444e-05
2.502e-09
3.653e-06
9.148e-16
0.005677
3.284e-07
6.164e-09
2.243e-09
0.006695
0.0001059
0.006691
0.0006491
0.0004546
7.117e-07
1.826e-05