/*--------------------------------*- C++ -*----------------------------------*\
  =========                 |
  \\      /  F ield         | OpenFOAM: The Open Source CFD Toolbox
   \\    /   O peration     | Website:  https://openfoam.org
    \\  /    A nd           | Version:  8
     \\/     M anipulation  |
\*---------------------------------------------------------------------------*/
FoamFile
{
    version     2.0;
    format      ascii;
    class       volScalarField;
    location    "60";
    object      omega;
}
// * * * * * * * * * * * * * * * * * * * * * * * * * * * * * * * * * * * * * //

dimensions      [0 0 -1 0 0 0 0];

internalField   nonuniform List<scalar> 
127143
(
1.528e+08
2.873e+08
3.278e+08
1.398e+08
1.173e+07
1.415e+08
4.635e+06
8.099e+06
1.294e+07
1.888e+06
6.817e+06
1.065e+07
3.857e+08
1.183e+08
2395
3.152e+05
3.958e+07
12.87
8.721
1.257e+05
24.2
2.853e+05
0.08496
375.8
3.073e+05
4450
2.308e+04
2.28e+04
1.553e+04
13.11
905.3
5018
2.539e+04
3453
0.04158
2.456e+04
103
70.3
254.8
8009
8.774
0.4163
0.2966
5.491e+07
12.55
2603
1.437e+04
24.11
384.4
303.4
1.983e+05
0.02523
33.77
0.1535
0.02092
1126
0.02091
0.6487
0.02212
0.1519
0.2917
9.243
105.2
0.02211
1165
0.4557
0.04316
119.1
117.5
0.08329
501.4
1.553e+04
13.21
0.02211
0.02179
1.578e+04
0.02261
58.85
1069
0.02222
1.569e+04
1.118e+05
968.7
4517
15.36
45.89
190.5
1.612e+04
0.3722
1294
0.02213
14.49
714.2
23.83
112
0.3752
0.3792
1461
27.14
0.04271
0.02221
352.8
5956
12.46
42.33
28.75
137.5
0.08361
2.31
0.02132
1951
2e+04
45.14
10.05
0.02174
5.243
0.02282
0.02179
0.02253
1.152e+06
0.02134
950
135.2
0.1727
1.494e+04
9088
11.56
0.02313
81.88
1359
93.06
126.1
67.99
56.64
4.474e+06
86.71
0.0511
16.22
1.303e+04
0.04283
0.122
0.02219
23.43
14.77
33.76
117.9
6.7e+04
0.02213
138
9286
22.62
347.9
96.24
0.06796
290.6
15.01
0.6477
1813
23.3
1740
508.3
3.737e+05
0.02215
92.06
3846
874.8
142.2
0.5251
2424
0.02564
3281
14.64
8.439
62.57
0.2713
88.85
73.47
80.96
295.3
0.03299
62.18
0.03416
72.46
85.34
1274
9.069
0.07806
9.418
320.6
0.03195
42.37
112.1
0.04685
254
8.206e+06
11.15
0.0194
0.01934
8.832e+05
0.02176
0.02168
0.02579
3.774
87.92
4.437e+07
159.3
0.04887
43.69
13.35
0.02174
0.7383
19.81
0.02163
2338
173.6
9.14e+05
1.032e+04
47.15
67.7
0.04913
45.14
0.02184
360.1
38.02
2282
3611
2402
77.78
1067
16.45
26.64
0.03393
12.69
7.872e+05
26.15
0.08693
91.91
1.793e+07
0.02168
32.05
102.4
625.7
41.3
1695
113.4
9.128e+05
230.1
2.234e+04
6.814e+05
0.1006
4.459
3437
64.07
16.27
592.3
2.589
0.0231
1857
20.78
0.05029
11.34
0.02698
9.334
0.02214
96.92
742.3
452.1
602.7
0.6121
43.55
2079
0.2683
17.36
32.89
72.43
39.85
43.71
259.8
0.5122
14.33
0.07184
0.7606
12.15
0.02175
0.02173
7.561e+06
103.4
0.02173
267.2
0.03457
96.54
0.2176
0.0865
13.03
0.02166
8.134
691.6
463.8
41.43
38.02
1174
0.413
0.289
4.264
2737
127.1
42.96
0.02164
12.02
42.55
149.8
3410
1256
0.05645
0.02172
665.9
48.13
1266
0.3222
2.292
0.07978
635.7
0.02785
64.59
695.8
55.56
0.0307
151.7
578.9
38.83
12.08
0.02173
0.04124
0.01941
0.01936
0.06646
2.246
8.388
12.12
123.4
0.04222
47.22
33.66
37.27
10.94
272.6
433.7
63.58
1020
120
858.8
8.211
103.9
38.91
0.0274
353.4
16.51
82.92
0.02351
583.3
13.33
92.94
18.67
300.2
286.4
0.02192
0.02176
1.413
1112
0.5101
1.001
0.02799
2155
326.4
0.03024
0.06505
544.4
6.186e+05
23.31
0.539
26.02
5620
789.6
0.4127
0.02274
4.988e+04
0.03467
6721
11.59
33.28
0.0218
0.1857
1765
627.5
331.1
858.1
0.1894
728.5
0.02734
0.0266
4221
0.02184
21.91
64.99
0.0355
34.21
35.95
66.87
0.02222
259.3
59.61
1193
0.1226
20.01
107.7
104.7
38.91
2846
113.9
516.2
130.7
1.886e+04
241.2
0.07615
17.1
0.05665
0.2575
0.08139
508.5
0.05701
0.02115
238.8
130.2
12.58
166
0.02192
45.62
349.2
0.0249
0.02166
0.02172
259.9
0.05193
3.496
0.02363
1279
0.02171
680.4
1.507
19.72
25.14
582.7
29.54
1380
0.03525
74.09
1404
396.3
57.82
65.83
58.79
58.86
15.59
2.438
57.16
0.2025
0.02191
22.47
549.7
0.02078
19.48
5.47
0.1732
52.13
0.04335
0.02028
226.2
3.969
1327
52.27
1.853e+04
604.9
306.2
1236
29.18
163.6
69.28
0.02162
1276
0.02222
425
173.3
37.35
126.8
1.384e+07
115.1
2.203
0.1077
4.257
0.02166
1.93e+04
0.02194
64.97
10.78
2.017e+07
1.01e+06
3.276e+06
0.02194
331.2
305.4
0.02172
11.59
184.6
101.7
15.44
26.4
604.8
19.19
1.249e+04
0.1713
23.46
6.654e+05
673.2
1071
2673
0.022
20.77
2.557
16.76
0.02204
1777
9690
1685
0.01964
22.72
0.09264
6350
44.98
4456
14.67
0.02232
499.4
31.86
0.02081
0.415
94.84
572.3
288.5
668.6
1544
11.29
91.15
388.2
97.67
212.8
0.02187
5365
74.17
1398
81.49
33.89
0.02212
0.02207
0.04824
476.6
8.358
0.02172
0.02926
13.07
1315
37.24
30.21
2712
1.209e+04
6.275
0.02227
0.02134
1623
24.89
116.6
0.03165
1.48e+04
61.96
180.2
0.5303
2591
0.02171
32.65
42.71
25.89
0.02725
507.2
11.31
8.1e+04
0.02026
130.7
9914
0.02171
33.98
0.02173
191.2
52.21
0.02175
792.1
495.1
1843
84.71
26.95
777
731.7
55.19
225.7
572.8
293.7
134.4
54.05
1770
0.02673
963.1
0.02173
6.982
0.02334
24.09
0.02116
0.02174
1.063
499.6
38.84
0.02136
0.02115
905.4
7655
666.7
1147
10.87
3.234
24.77
67
36.07
354.9
1437
0.02138
243.1
32.42
0.8756
30.94
0.02226
0.0292
64.65
8407
68.9
4.298e+04
0.02329
0.03826
128.7
276.7
0.02555
1092
0.1199
0.08041
684.3
20.25
31.22
0.09144
3.463e+07
3030
55.31
75.06
99.85
145.9
1799
359.1
0.0243
68.74
619.9
21.01
0.02121
243.2
0.3058
0.1716
0.01963
0.02119
4.442e+04
0.1083
609.3
112.5
340.9
12.04
0.7002
1725
0.07836
609.7
0.02162
0.02089
6.73
0.05833
847.4
0.1707
3703
10.34
825.6
0.3297
19.37
0.0368
1314
0.0436
619.8
4.85e+06
70.97
112.7
21.73
0.02874
98.83
281.8
3.515e+04
10.39
13.33
35.87
7382
40.05
782.8
8.07
465.1
115.8
41.79
11.3
0.2641
7.471e+07
0.3043
0.02544
184.4
207.4
171
0.02154
172.9
8.292
36.52
0.04107
4.6e+04
204.6
2667
0.0463
426.4
131.5
321.8
134
0.03874
23.86
2516
806.8
17.08
0.02178
34.21
317.9
0.02179
45.91
1.58
131.2
112.8
0.3508
72
5370
355.7
0.01934
24.2
9.38
4914
995.3
0.1748
11.31
1276
0.01938
93.61
671.6
47.73
5.467e+05
50.24
1534
35.82
34.43
8.438
0.02193
5.587e+07
88.62
76
3685
41.14
391.8
179.5
403
0.02132
8.782
12.94
0.03887
237
415.6
140.2
131.3
0.02048
23.09
106.8
0.02162
0.02042
31.07
9.397
10.85
390.3
32.11
1.967e+05
19.82
0.1555
0.02123
45.61
119.5
773.1
2065
0.4603
0.0555
0.02191
1.972
1.769e+04
0.02125
0.2267
5193
102
4947
0.02656
30.92
105.4
0.0218
974.8
0.0212
309.4
1.856e+04
221.8
139.1
1.279e+04
0.02193
747.7
0.1017
1578
1256
1805
1.121e+04
0.1727
0.9072
1.318
8e+04
0.02178
73.19
1047
1001
660.1
1.524e+04
0.0533
0.7404
1683
8257
4.346e+04
369.4
1.39e+06
618.3
2.557e+05
122.3
2973
8.897
3.429e+04
0.02257
163.4
0.02724
0.02654
21.66
0.02508
76.62
14.8
7.974
3.06
0.03755
910.7
202.2
0.0218
12.2
88.87
0.03618
879.7
1.514e+05
42.49
42.07
1992
17.14
608.5
0.02168
37.07
605.1
0.02331
658.3
73.77
8.88
0.02069
2.405
17.84
4.518e+05
12.27
1.531e+05
18.5
96.48
158.9
1.505e+04
361
0.02364
1.007e+04
0.2611
0.02426
5.362
4.851e+05
31.01
717.9
21.32
8.541
2.94e+04
2.333e+05
380.6
0.02225
0.02183
41.63
16.95
160.1
669
44.73
5389
129.9
0.06234
5547
0.04495
7532
0.0216
25.56
3033
16.1
223.6
25.09
0.02177
0.02179
2514
0.1529
327.6
365
850.8
15
97.31
214.4
230.9
6.158e+04
29.36
1041
853.6
31.64
13.64
234.5
344.9
6085
1.783e+05
26.69
0.02154
0.02139
19.59
45.17
1.348
0.02079
78.52
25.11
1.281
616.3
83.38
447.7
2.095
0.02223
0.2756
1.357
1.449e+04
2715
141.8
0.2481
67.26
1020
354.6
54.58
9.34
146.1
185.2
142.3
6203
0.02298
1.737e+04
1.811e+04
9.201
74.73
2432
0.02173
4.593e+04
7.034e+04
0.02187
0.02154
41.73
33.31
6.497e+05
708.3
157.1
846.8
732.1
0.3428
0.6817
0.02266
908.4
19.78
391.9
8.74
7806
62.14
0.02899
4.612e+04
219.3
0.02172
276.4
0.02545
0.02164
50.54
0.09178
4.651e+04
0.02157
965.7
0.02181
504.8
0.07811
11.91
17.84
912.4
503.1
817.6
78.21
0.05486
0.03756
16.24
281.9
416.6
526.4
1.474e+04
869.3
7.036e+04
95.87
697.2
681.7
486.6
5163
0.1114
9.174
0.0489
486.1
311.8
2446
0.0659
1272
13.7
125.9
210.3
45.92
2.375
1406
9.981
125.5
429.4
1381
1321
0.02107
45.63
481.9
0.0218
236.4
866.4
0.02066
5.948
619.4
0.03517
0.1158
22.64
116.4
0.1509
0.01976
225.5
265.4
0.02161
0.08745
0.02893
24.84
324
27.06
0.03424
3027
1.393e+05
888.4
363.5
14.66
3.439e+04
0.07795
202.2
0.02176
50.48
31.26
177.5
211.7
3971
9819
0.02196
6.662e+05
1964
1362
90.68
1588
9.764
10.57
3141
119.9
0.03179
1.342e+06
69.74
401.7
1664
254.2
429
103.1
7455
153.8
133.1
138
602.2
423.9
27.61
1.237e+05
0.102
207.6
0.09015
991.1
0.01969
0.02165
55.41
4.436e+04
28.27
1.497
5.257e+04
1517
0.02179
6668
153.3
116.3
1.543e+05
6.347
140.9
1.349e+07
12.47
1.136e+04
14.21
124.4
5097
408
1669
32.13
316.7
0.07861
18.16
43.63
162.8
28.05
141.3
10.98
3.028e+04
20.19
0.2614
15.1
0.3913
0.5324
32.76
1.178e+05
0.03504
1.049e+04
3069
186.2
86.87
0.0218
11.7
53.82
1.101
5046
1516
2501
0.02135
613.2
3172
41.52
4.489e+04
128.7
8.66
1079
0.02185
1420
134.3
1.394e+04
157.9
0.06814
15.66
0.0217
1.649e+05
5.217e+04
67.58
0.8877
24.46
0.02086
0.01977
858.1
24.49
7.983
0.06544
0.05133
0.05237
4.352
45.83
11.35
264.2
322
5.354e+04
1.211
1940
203.3
324.2
0.0198
847.5
13.23
144.1
6.637e+04
93.45
9.125
136.2
92.24
28.23
2.07e+05
25.75
60.96
11.83
9.364
11.44
311.4
1.718e+05
0.1109
2613
0.02118
386.1
1995
0.0203
4647
77.78
103.5
626.9
0.02138
1.1
4.349e+05
0.02174
291.3
803.9
128.1
1.783e+04
1.187
11.77
1472
4557
97
215.1
0.04836
180
1.209e+04
1.754e+04
380.9
89.46
0.02169
226.9
8.553
1696
414.5
9.441
94.88
0.02168
7.229
316.3
0.02207
10.26
0.0226
6651
10.65
3.676e+04
241.5
38.62
1048
39.08
219.3
768.1
3.406e+05
93
208.3
38.23
26.27
16.89
0.02211
139
0.02201
12.86
0.022
13.71
0.02147
321.1
176.4
0.02065
0.02161
947.6
0.1488
1337
0.08916
0.02002
26.28
45.22
0.03051
3.475e+06
5114
3.608e+05
226.3
73.46
390.9
249.5
59.34
2.808
8378
30.88
2216
690.6
58.28
61.39
7.924
0.02155
3.379e+05
66.22
6906
0.02178
6.054e+04
435.5
445.4
239.4
0.01973
0.01971
15.35
29.07
5.95
10.53
109.7
1.605
0.7602
2.765
11.1
3584
87.06
0.8088
31.8
11.57
1285
1003
145.6
437.3
20.51
0.02185
286.5
370.2
1.805e+04
31.77
0.0354
144.4
1.264
187.6
117.4
1857
16.27
0.02174
33.76
104.1
8.551e+04
1.746e+04
1.377
86.74
1702
0.1331
0.01972
2419
489
3.128e+05
0.0494
1.252e+05
167.4
0.02152
188.7
2019
10.13
0.09145
14.61
1317
102.9
84.76
36.7
3306
0.0404
789.3
1670
1097
0.05675
0.05662
538.9
15.73
3.021e+05
202.4
1391
1732
3.397e+05
1.478
462.6
0.02437
0.02174
0.0215
20.41
0.02315
9.468e+04
0.02172
1.183e+04
0.2636
109.4
199.9
1022
0.09426
3.235e+04
0.3256
749.3
21.82
1.532e+04
0.02167
148.5
930.4
18.33
1.576e+04
2948
37.59
2233
4958
0.04585
0.0206
1.446e+04
0.07307
0.01996
0.2731
1.278e+04
0.0206
4767
0.02184
28.11
136.2
13.63
262.8
0.02091
27.77
765.6
101.4
0.05523
30.67
0.1503
0.02173
0.02122
39.93
6.154e+05
72.8
140.2
0.02375
4.001e+04
0.4041
0.07219
0.06089
3.136
210.9
835.8
0.02456
475.6
0.02217
42.59
0.02217
0.2152
306.8
46.42
5.512
1439
215.3
0.02119
52.5
3109
611.3
5.53e+04
1794
8.93
0.0338
9.725
5.387e+04
38.14
837.2
3.801e+04
0.07499
0.1196
0.02159
116.9
293.5
76.99
0.0218
846.8
0.02175
0.202
219.8
0.02137
8.6
0.8579
100.3
15.14
1.103
428.8
0.0219
650
7920
11.75
8.412
232.2
0.04173
144.3
96.14
4816
199.9
92.94
1016
69.86
146.4
1.248e+04
0.07233
0.1252
227
0.03378
309.1
29.07
0.08068
122.7
0.02379
0.3732
6338
17.41
130.9
166.9
5.805e+04
103.7
1.793e+04
2.491
0.02066
1.8e+04
204.7
0.09313
452
0.02751
34.82
0.02223
10.1
1.104e+04
13.99
35.53
124.4
209.8
0.02187
107.8
0.2427
23.39
1870
0.02475
133.2
3403
0.02159
0.02482
141.4
0.07351
75.3
8.563
5.105
84.66
1.572
23.68
0.07095
3.532
76.08
0.02108
0.1499
1535
5.915e+04
0.02085
488.5
1.69e+04
11.49
544.7
10.52
197.4
5.757e+04
0.0581
0.1115
216.7
0.02487
1258
44.22
29.37
6685
218.3
0.02435
206.7
8.88e+05
3.328e+06
176.4
253.1
214.8
2.168
19.45
26.98
34.58
1615
684.8
788
475.9
2.785e+04
30.66
5.031
0.0217
1901
4.984
51.42
0.1435
0.03779
218.3
187.9
8.423
0.02035
879
1784
123.1
420.4
17.37
6.264e+04
441
0.02591
278
2.313e+04
25.7
161.2
1.029e+05
0.01939
8217
2444
207.6
0.02753
28.69
12.77
1338
364.1
16.48
1995
0.03324
4.726
261.8
0.0495
13.27
0.02166
625.9
6681
187
2578
3.708e+04
33.09
2.154e+04
0.1074
2224
23.77
9.746
0.03415
9.86
60.72
23.33
152.9
0.06494
169.2
2.349e+05
6.279e+04
112.7
70.84
0.7013
0.7459
0.02184
0.02515
75.12
0.411
0.02166
118.3
166.3
330.3
366
35.33
349.6
34.47
4828
6.685e+04
7.257e+04
0.08514
154.1
1.833e+05
10.69
6935
9.959
33.87
59.64
2.326e+06
21.3
31.07
0.04355
0.05296
1176
152.8
0.02172
0.02196
13.71
2003
17.22
166.6
3.852e+04
18.43
0.02391
1593
10.15
211.4
4990
1.422
7.218
33.53
111.7
2.2
110.9
0.02188
1907
8.925
1453
17.15
294.3
8020
8.619
1652
48.05
1597
178.9
6841
0.07119
12.65
77.28
37.36
804.2
243
1.331e+04
979.9
0.02164
318.1
10.11
1128
120.2
0.2655
14.15
0.07596
6646
0.04866
207.8
34.35
117.4
11.92
15.88
0.721
6.426e+04
0.2121
0.02427
2072
0.02091
22.09
0.03014
2.691
10.66
0.02151
0.3642
281.4
4707
0.02176
0.02287
11.11
41.93
296.5
0.1528
51.57
90.93
1745
719.8
27.8
140.7
123.6
0.0896
143.6
6.627e+04
9.115
4481
576.7
9.732
5.701e+04
0.02172
0.0206
1.508
7.262
3.695e+05
0.02179
10.99
1656
3.357e+05
734.6
1002
0.01981
0.01954
489.4
123.3
97.51
221.5
0.03119
31.2
5.063
0.02222
1568
268.3
128.5
59.75
5912
9.679
9.018
0.01978
28.27
343.9
1450
794.9
99.39
1.724e+04
1441
50.41
152.1
461.5
117.5
0.06699
163.1
1.197e+04
0.02793
0.02655
601.8
295.6
1.382e+04
1.763
1350
156
0.1411
0.02172
22.43
0.02211
34.96
3.867e+04
39
0.1201
143.9
0.04407
2.44e+04
720
0.06567
33.28
30.36
140.8
36.61
195.4
132.5
65.73
39.9
65.7
38.67
13.02
2956
198.5
69.45
364.2
2.065e+04
220.9
1273
1349
2.921
2.197
51.49
2.101e+04
0.6893
189
0.02218
17.21
0.02214
186.2
8.383
2.138e+04
309.3
0.08049
3044
2.149e+05
2487
33.42
108.4
1563
5326
0.2645
39.78
57.4
1.375e+05
145.7
64.76
0.278
0.2752
0.02174
16.68
1.701e+04
15.71
4193
12.27
0.07321
4122
0.01971
42.83
0.8753
18.92
2763
0.2077
8.324
8.512
0.03547
461.4
52.5
7.103e+04
2606
159.2
0.0214
69.31
120.9
1.174e+04
1291
65.93
7.908
72.28
0.02171
414.8
1414
12.66
84.14
30.43
5250
1058
726.6
105.2
0.7816
1.387
2.746e+04
9.315
0.06309
9.239e+04
0.0678
18.6
0.02173
0.02199
116.1
0.02185
1839
144.8
37.33
16.24
1025
4553
160.1
1900
145.8
16.9
5.936e+05
38.26
114.8
2.245
2.315e+05
11.35
1.872e+04
2.283e+04
0.04345
1690
1015
12.84
14.09
1.227e+04
730.8
2914
26.27
42.79
0.02572
8.445
0.02206
1.156
13.64
1189
83.3
49.69
3.793e+04
15
0.02184
415
52.74
18.93
86.28
49.8
215.5
875.3
3030
1.611e+04
472.4
272.1
1922
106.2
403.2
0.06426
2.896e+05
359
123.8
1.798
0.02156
267.5
477.7
19.53
12.5
1.74e+04
1392
324.8
82.16
54.17
4303
0.02163
1.621e+04
9.442
0.03447
87.53
858.8
0.02165
269.5
14.05
44.71
2.272e+04
36.55
87.06
2.325e+05
48.43
245.1
0.01967
0.01961
237.2
99.09
11.16
675.6
149.9
0.02151
5980
1460
29.14
0.02174
0.02185
34.94
65.14
247.1
7.852e+05
1002
0.02904
823.4
7.168e+04
0.08128
758.4
390.6
0.1038
2.618
3124
35.83
59.29
0.01964
0.01949
0.01946
0.02021
0.07788
34.23
51.72
1114
19.6
493.6
32.42
1984
0.02078
101.6
72.21
7292
1602
9056
454.1
100.9
359.6
24.21
176.8
0.1058
131.3
4.4e+05
307.4
6837
0.2617
357.2
0.02172
2.413e+05
100.6
460.7
16.75
0.03017
6.597e+04
0.02179
105
1124
0.04329
133.7
135
15.06
217.5
1.433e+04
0.03746
1230
0.02066
5.265
121.4
441.1
18.68
182.4
0.0215
0.02169
0.1764
1604
1688
0.2361
18.05
153.3
9.934
6752
387
12.93
9.847
30.5
83.51
0.1568
1.108e+05
0.2239
0.02173
1.538e+04
0.0217
0.02166
0.449
0.107
1.213e+04
17.05
2176
36.45
417.1
0.02187
0.08294
716.4
233.2
13.66
0.05504
0.2008
5.178e+04
7093
0.02213
1.333e+04
8806
3.719e+05
0.06824
11.39
13.57
0.07565
0.02312
11.17
243.9
4.721e+04
0.06574
842.3
2.548e+06
0.02174
470
3138
145.7
0.02178
1069
8.949e+04
1.47e+05
7.861e+04
0.8561
129.9
7.953e+04
0.04808
130.6
0.02153
17.06
1260
8.262
590.6
7.615e+04
0.2462
250.1
196.6
0.02225
0.02911
627.3
1618
9.88
1.587e+04
115.7
3.869
12.35
24.46
606
86
0.02174
39.57
36.25
237.8
651
371.9
588.8
592.5
1.003e+05
1.151e+05
1.426e+06
659.2
0.04609
1793
0.02429
1383
2640
0.02175
7.411e+05
0.02221
309.6
1.786e+04
4190
132.3
249.4
820.3
744.4
0.01963
6.548e+05
197.6
0.05798
11.59
207.6
1.143e+05
1.995e+04
2.295e+05
10.89
619.9
6375
15.43
0.06538
120.8
1.301e+04
0.02088
76.1
97.79
411.2
83.42
52.44
11.3
6140
158.9
218.5
1.824e+04
0.0744
3957
0.07594
91.71
372.7
0.02333
0.07827
79.69
960.5
374.1
9.635e+04
0.0559
0.02171
13.5
268.7
4735
42.65
7.919
0.01963
0.02807
1528
0.01995
560
520.5
0.06482
176.1
73.49
2.733e+04
1.027e+05
6.038e+04
0.03202
781.9
137.7
176.7
11.59
9.11
2.37e+04
15.61
1774
285.9
1.225e+04
213.3
6.123
4.916e+04
29.66
109.8
25
0.05143
94.09
0.2308
0.02181
54.75
542.4
84.37
214.9
72.79
1.881e+05
2.948e+05
10.39
2.179e+06
0.2757
0.6429
0.03008
0.04743
89.93
0.02221
783.8
8.62e+04
708
7461
44.15
37.13
322.4
105
13.3
827.5
16.81
8700
197.9
0.02579
223.3
113
0.02204
0.03636
2624
0.02185
225.2
245.8
281.1
23.39
4137
0.09601
36.54
0.03495
1011
2.093e+04
1202
99.72
0.02143
688.6
0.02154
0.4385
230.1
37.47
5.727e+04
220.8
771
9.373
3790
0.5242
0.2046
24.21
569.4
0.02083
15.68
0.02185
1317
2589
288.2
104.1
0.02159
961.9
417.1
105.8
5.813e+04
245.5
3811
0.02267
37.05
11.38
8.617
362
48.38
0.0746
2.683
0.1111
114
114.1
0.02069
0.02025
0.022
0.03438
0.122
5561
749.8
0.02177
240.4
62.68
169.1
0.02194
182.5
0.05747
2619
0.09201
4.34e+05
136.1
3068
0.04337
0.0888
6.113e+04
0.0271
160.2
245.9
388.6
371.7
100.7
0.02181
262.2
791.7
66.73
120.4
38.15
19.35
37.06
132.6
1214
0.0215
17.33
84.25
7239
0.09117
0.02209
424.6
2184
23.54
21.52
33.77
1013
0.03992
52.2
1137
10.89
373.5
98.14
0.02567
17.65
6.327e+04
73.09
334.1
7273
2.476
25.39
0.02166
0.02659
0.1165
0.04598
5.862e+04
168.8
0.02195
0.02229
117.5
3.039e+05
0.02194
28.03
2.156e+04
162.3
19.86
204.8
2655
105.6
36.63
861.6
1.143e+05
3165
0.02182
70.69
39.77
134
0.02139
0.5271
254.1
31.64
571.3
7.493e+04
7251
14.72
974.8
1.197e+05
9.404
1080
25.96
3.702
2.205
2450
4.161e+04
0.02157
307.3
136.9
0.02193
7499
17.17
2.96
0.06382
44.98
830.7
398.3
123.1
0.02166
0.02175
12.43
343.8
0.02
26.93
0.0244
2778
10.62
16.52
547.8
2357
17.28
77.02
0.02139
7.324e+04
17.78
4488
562.6
0.06357
717.5
49.45
265.4
5.746e+04
7.936
5.368e+04
0.02075
0.02123
37.57
0.04462
0.02139
1.404e+05
209.7
479
6044
104.2
47.06
0.02797
1.362e+05
0.04051
141.3
0.02023
0.08821
126.3
57.18
62.14
40.68
8.891
1468
0.02046
59.15
6676
6825
9173
0.1201
58.28
34.93
0.02195
1496
422.4
0.941
0.04008
163.5
5.911e+04
0.02187
0.0215
44.07
4191
10.88
2541
0.02206
9049
150.4
142.3
0.02208
0.06416
1137
336.2
3256
26.15
69.95
0.02043
841.5
0.03053
1143
9.584e+04
0.05766
247.8
11.01
1.418e+04
3.742e+04
1872
0.05151
0.02047
57.03
0.1512
0.02163
466
241.6
9.593
0.02032
0.06663
0.0678
0.02585
738.6
87.97
0.02173
840.8
146.9
2225
0.02575
0.02191
0.02162
0.05231
130.7
19.93
709
6.074e+04
3.597e+04
134.7
1.171e+05
5068
0.02285
5.176e+04
79.54
5144
8.938
0.1171
3.29
1.217e+04
1195
3448
613.8
0.05166
33.54
518.2
122
19.49
0.2098
393
0.1112
444.5
0.03599
41.11
42.52
25.88
0.1607
1153
1.127e+05
8111
0.02061
5.881e+04
44.94
0.01994
256.5
0.02181
2686
91.18
0.1177
477.4
537.5
0.0223
2.986
8.293
1.553e+04
0.02226
0.1232
1.586e+04
12.59
0.02157
3793
41.78
0.03075
0.1161
14.61
185.4
7.111e+04
673.4
90.46
10.19
1673
0.5228
0.02169
0.03897
636.3
122.3
112.1
0.02207
1.625e+05
227.9
61.02
341.3
46.78
88.68
0.02017
0.05713
737.7
211.1
0.03759
157.5
805
9.213
2.296
8.848
9.932
0.03606
8.401
60.46
84.86
41.37
0.02205
1990
0.163
49.44
20.73
8.523
6909
85.63
4.131e+05
13.64
0.4652
0.2644
0.02118
16.92
49.36
4699
1878
224.3
487.7
3834
36.36
0.4196
83.75
686.9
1.036e+04
37.5
0.03616
1914
1.546
1702
30.87
9.975
31.92
238.8
0.02179
358.7
0.2457
0.02164
3.095
1908
1.273
2.814e+06
717.9
1334
0.02165
36.43
225.2
0.04882
25.13
41.68
4511
531
4242
0.02188
128.2
0.02064
8.478
341
721.7
19.57
790.5
2.1e+06
0.02147
0.02174
89.55
186.8
1535
3.924
137.4
878.5
22.79
14.62
0.02177
463.2
2888
0.05997
34.59
0.02156
172.3
0.04845
65.69
446.9
128.4
0.3129
2904
125.4
0.02491
713.7
160.3
0.7355
0.02145
0.02266
487.9
4586
49.23
8.067
96.93
17.15
186.4
51.09
0.0194
0.1525
0.5144
1.148e+05
3686
2184
0.02134
661.4
150.2
3380
2202
2.486e+04
9.433
30.55
148.5
107.4
800.3
5336
22.02
0.07295
9.969
0.02982
2.109e+05
0.02226
13.97
571.4
65
14.67
680.2
59.25
1.552e+04
13
1065
50.2
12.29
468.9
1.111e+05
33.43
6.219e+04
3.376e+04
0.02174
6.883e+04
254.3
1763
3418
39.37
43.29
385.7
110.9
38.63
0.0347
13.93
17.56
123.1
33.5
85.19
0.4476
4.879
33.6
7.111e+04
52.03
1.146e+04
122.2
683.9
0.02027
887.3
93.02
5425
12.01
2.312e+04
378.8
340.2
0.07415
4454
0.06466
20.07
40.31
0.06848
1.565
26.19
51.94
211.3
416.9
33.13
201.4
46.48
2.273e+04
47.62
3.805e+05
0.03451
44.49
282.2
9.06
0.03977
694.7
0.02172
0.02193
0.02173
64.91
161.5
1354
15.12
0.07444
51.35
0.0373
3.767e+05
3209
6.782e+04
251.4
0.05565
946.2
6885
0.07383
2547
0.02186
32.3
8.617
989.7
31.09
0.02128
0.02138
141.4
9.076
0.03611
7.271e+04
176.4
0.02095
0.0218
91.06
0.03054
748.7
1.263e+04
0.03143
16.55
866.1
551
472.8
7.606e+04
35.33
0.1418
68.99
304.6
0.1125
395.9
78.26
1.677
823.8
140.6
2.207e+06
0.02672
143
1.166e+04
2025
0.02183
41.16
0.02176
12.22
59.22
99.36
36.09
334.5
111.9
0.1629
2109
3079
1175
1210
1014
73.23
15.77
107.4
358
27.56
487
0.02219
6.457e+04
2.051e+04
2326
64.94
27.18
2845
725.7
0.2849
0.3963
7.393e+04
187
0.05475
0.03166
0.05187
400
797.1
27.3
5184
71.28
0.037
171.6
101.5
78.36
481.3
3.924e+05
1346
146.1
635.4
48.19
114.8
3759
73.47
15.64
9.361
2313
38.18
0.2423
65.52
806.7
0.07895
144.7
0.2555
15.49
7.513e+04
1241
0.02204
1015
13.9
2.847e+04
1825
0.02137
0.09409
842.3
0.02849
44.26
2455
949.6
9.18
0.02174
0.1851
12.58
17.64
0.08141
422.8
0.02077
681.6
28.24
624.5
636.6
82.42
85.28
458.7
932.2
0.1574
114
0.02181
1.014e+05
0.0336
0.03103
610
0.02177
30.81
11.13
1.349e+06
0.02196
137.7
214.8
567.3
388.6
0.2523
86.77
38.39
365.5
3923
40.53
0.07037
0.02192
470.3
695.1
22.22
89.33
1977
4767
0.7751
0.02113
60.58
297.9
1.561e+05
90.15
99.67
0.6079
230.1
0.0215
30.15
8953
1961
0.02197
0.2107
1683
0.01979
117.2
2271
33.96
0.02195
0.022
8.229
0.02321
0.02013
0.02173
8.282
1431
2160
0.4525
162
18.16
16.09
0.02225
20.02
114.9
0.04211
0.6107
1850
12.87
0.0251
3099
57.55
7.887
6.458e+04
7.792e+04
0.02478
151.1
14.2
569.4
74.49
6719
0.02194
153.4
7.071e+04
11
664
0.8542
3303
73.53
201.3
29.08
2.85e+04
0.05005
2.215e+04
45.2
0.02543
0.02835
0.02006
388.4
31.89
4847
339.7
1.124e+05
0.07023
0.01942
205
223.9
0.06839
0.02179
1106
10.16
1852
55.82
2972
369.2
147.2
26.5
268.1
0.01972
3.59e+04
215.3
77.2
30.38
0.06642
0.02188
31.15
13.66
456
7347
68.39
0.03893
77.66
16.13
0.05627
0.02182
1791
203.7
9525
279
33.89
2.745
83
20.65
13.52
125.8
0.7748
0.1297
0.02192
87.47
2.852e+04
25.83
0.4427
8427
0.5017
0.02168
17.68
0.02915
0.02203
45.75
0.01937
0.01932
9.11
0.02011
55.9
9.702e+04
594.2
11.95
0.1336
0.02113
0.02197
51.94
217.5
68.58
6.945e+04
17.44
0.03011
10.32
58.4
4333
1.778
0.02198
2.629
96.6
0.02203
0.02136
104
244.6
0.0507
0.02777
95.08
0.0213
1.689
0.02148
3.923e+05
3.129
1556
9.566
0.02707
0.4767
8.899
26.45
800.1
20.39
105.1
13.38
0.02214
4.835e+04
18.61
224.6
0.02191
802.2
425
131.7
1174
0.236
549.7
25.46
0.136
6121
0.02205
8.498e+05
38.89
2.974e+04
0.02197
238.4
0.02173
0.08626
10.11
1.316e+04
14.13
552.6
14.98
0.1129
3440
0.1272
3230
5429
8.13
0.08402
0.05484
627.9
0.02162
7.936
31.32
56.14
40.31
0.02175
1.908e+04
0.03457
414.1
1072
65.2
2000
1.397e+04
22.13
1142
122.6
1.441
21.44
0.4433
0.02172
0.02181
984.5
12.03
2.225e+04
69.88
161.1
0.02179
89.91
0.02179
0.02168
0.03237
420.7
0.1051
15.2
0.03513
63.13
0.1845
90.97
291.3
2686
0.02482
461.2
383.4
127.3
0.1773
25.14
0.02187
114.3
0.4123
110.9
16.35
0.03386
249.5
1.499e+05
593.9
3118
33.05
3.967e+04
1914
4.222
95.04
2724
61.2
1.769e+05
735.4
35.83
85.39
172.2
51.38
2421
708.5
0.03892
27.32
0.09148
569.5
3.332e+04
113.6
3223
941.4
16.35
612.3
0.03331
251.7
54
8.153e+04
11.93
0.02239
27.52
21.29
169.1
0.05846
65.78
175.5
39.14
0.5639
459.8
83.28
1.467e+04
400.9
156.7
30.19
20.49
1677
0.02444
796.7
16.32
0.0234
114.4
116.6
588.9
932.6
281.4
0.02202
943.4
27.18
0.07758
2.977
671.6
2.507e+05
218.7
0.02084
0.02467
0.3782
523.2
91.76
0.0215
3.866
633.5
730.4
1.797e+04
0.02103
261.9
8568
83.73
1.927e+05
138.8
180.4
135.2
36.13
61.36
0.02313
110.3
7511
45.81
316.4
3.947
36.91
0.02164
0.07262
634.1
292
35.79
2447
137.2
0.0217
8630
119.1
0.1775
486.3
1.652e+04
2.661e+04
0.04212
0.1338
0.02442
130.9
7120
1027
2684
167.5
295.5
0.02181
89.98
4.93
9.157
1.167e+04
0.5744
6.954e+04
58.34
5312
0.03267
199.9
3516
0.02168
160.8
207
212.2
10.57
0.0219
0.02168
0.03848
49.76
0.0217
12.12
2.457e+04
0.1086
23.39
628.2
0.03785
103.3
11.97
0.2692
5011
121.1
2.088e+04
94.61
0.02173
400.1
6123
0.0217
1.387e+04
10.13
152.5
61.77
761.5
38.54
440.4
14.49
12.18
0.02194
13.4
0.02178
0.05552
3004
148.8
87.66
70.21
1.887
281.2
0.02174
0.01965
0.05115
225.5
67.1
126.2
6.964e+04
15.81
0.893
527
1.048
50.02
0.02135
1688
952.4
20.69
13.7
178.4
172.3
48.94
31.9
1.692
0.02247
145.8
23.48
143
4936
6.412e+04
754.7
0.02149
126.6
35.36
18.32
3.246e+05
0.02164
123.2
31.26
25.17
139.8
34.9
2.003e+05
136.1
48.47
931.7
8643
29.41
61.7
7225
4.237
0.02168
384.7
23.75
44.81
85.23
18.19
1.725
0.04475
1934
580.6
2478
28.87
1874
562.5
0.02171
350.8
55.21
101.6
13.6
0.01935
416.1
85.98
70.31
13.75
0.02133
847
13.3
14.4
104.6
204.4
171
63.58
739.3
650.8
0.01992
258
78.86
223.7
876.1
662.8
67.02
31.76
53.33
8.456
166.2
1405
6.597e+04
1369
547
3.764e+04
26.93
0.07768
9.055e+06
501.5
5162
0.03545
4852
4711
391
60.45
0.02194
2.514
0.02178
20.7
180.1
15.63
0.8846
14.94
1486
43.04
8.445e+05
15.98
358
2411
6.051e+04
879
283.8
24.65
0.08853
525.4
15.08
7.68e+04
188.8
0.3849
0.6964
4469
3.156
0.022
0.0217
59.74
96.07
0.03919
0.02017
0.02183
1846
494.6
3.608e+04
0.02155
0.03075
100.9
0.01976
0.0199
881
0.05464
154.1
927.5
0.05398
4906
27.63
77.15
7.97
43.75
0.04785
106.5
27.82
2.56e+06
62.33
1206
3265
4014
12.31
0.03068
10.04
1475
0.02171
10.06
356.4
1347
5.204e+04
561.8
61.43
1795
0.0247
391.7
9367
291
121.5
149.8
0.07171
63.54
15.03
6414
167.8
215.3
0.048
2302
1032
0.03574
32.64
0.06693
42.18
0.02596
6287
6.649e+04
0.0273
1680
177
0.1525
1240
116.1
0.02225
2.268e+04
168.6
229.6
1689
0.03327
19.29
2.027e+05
109.4
1280
14.56
29.06
7.906
32.35
194.2
0.05831
5.719
101.2
173.2
51.77
20.1
80.6
16.87
187.2
942.5
119.8
14.55
2.615
0.0218
0.09092
1340
26.68
0.01936
8.351
71.32
14.43
194.5
115.1
76.39
0.09383
1835
117
0.108
77.45
219.7
0.07139
1630
0.0391
2151
9.275
0.1846
0.06595
10.42
1363
88.31
0.02092
161.6
970.5
310
0.2009
0.02185
11.66
585.3
1861
34.28
90.84
12.86
1702
12.47
29.12
8.96e+04
9.452
4.579
1.813e+05
1232
14.25
19.55
0.02204
4.659e+05
0.02198
50.5
165.1
364.4
406.7
473.9
7.809e+04
9.509
41.74
27.73
1.098e+05
1004
16.32
1.68e+05
2.168e+04
932.1
197
0.1857
1.693
18.43
146.3
0.02187
658
8.228e+04
0.04354
127
17.2
21.98
1008
942.6
1.619e+05
4110
255.3
0.01954
0.01934
0.02178
1823
8038
0.483
0.02158
0.1798
7374
24.15
1.79e+05
239.3
0.022
1.55e+05
0.01938
5.233
11.97
0.03739
15.6
0.6278
4.272
0.05646
1066
27.86
100.8
145
9.504e+04
14.12
409.2
248.5
10.97
0.02213
2.533e+04
775.7
677.1
295.9
3293
555.2
366.6
0.05301
37.75
343.7
22.5
666
0.02913
1730
69.89
757.7
27.85
0.2736
0.4603
0.02178
308.5
70.72
310
808.8
11.67
2439
34.99
25.57
11.85
318
0.1829
3127
235.3
207.3
33.17
0.06489
24.33
0.08733
108.3
18.07
264.7
13.06
607
13.04
33.61
680.8
0.2257
6083
48.52
0.5872
0.08797
1.427e+05
527.8
355.2
54.42
2.169e+04
0.02204
2.352e+04
1118
111
150.2
194.4
140.1
192.8
22.35
181.5
217.7
421.5
9361
0.07276
0.02186
0.02172
147.1
511.3
7.82
9.893e+04
351.2
3.482e+04
3612
141.5
6268
7.345e+04
24.25
889.8
1880
33.48
7.657e+04
0.02166
245.8
1199
1169
0.02157
1105
42.68
261.8
450.3
266.8
0.02168
14.24
307.5
2850
0.02089
491.1
10.64
0.1505
1.232e+06
0.03323
10.84
12.37
318.7
484.7
0.4447
27.36
6.594
515.2
1631
324.3
0.0194
16.49
2.629e+06
0.02499
0.02248
5458
3149
97.81
1626
0.06198
22.63
102.3
109.6
152.3
212.4
0.01999
32.22
9.373
0.1251
0.02195
41.28
0.02121
3.277e+05
30.73
3.564
8.003
5.195e+04
0.02168
356.3
0.02
0.02216
498.1
0.4858
3800
9.136
0.04004
83.25
1180
37.66
48.61
59.88
694.3
361.5
1513
1158
1591
1.636e+04
3275
98.85
757.8
391.9
239.8
0.2431
0.02113
0.02118
1.211e+04
16.69
984.7
1.71e+05
0.02178
843.7
1.089
0.02038
22.7
1.823e+05
8.319
889.2
1.009e+04
0.02206
1682
67.38
24.44
10.11
18.85
4811
306
0.02174
1.858e+05
5003
0.06323
0.02321
4402
464.1
1958
922.2
171.4
684.6
0.02168
659.3
0.02118
448.8
939.6
1.648e+05
0.01955
0.01936
0.1471
195.4
0.03074
20.17
6.198
19.4
43.61
144.9
393.3
0.04524
0.02675
7.134e+04
8.261e+04
163.5
1761
0.0474
1067
0.02214
170.5
4816
1891
8477
840.7
853.8
598.1
0.2796
20.27
47.23
0.02486
0.02175
0.02173
14.35
273.6
2361
1.206e+05
434
0.02418
1396
2853
786.4
1.311e+05
62.99
2020
895.2
281.3
0.05455
8.618
15.4
1.074
0.08231
2513
41.79
77.38
36.02
1205
0.3427
0.01973
6.957e+04
14.76
11.65
81.47
8.446e+04
17.29
0.02082
339.7
42.57
225.9
23.47
192.6
1353
4.246
274.6
12.46
0.06444
231
0.0438
0.07782
2.689
1293
41.27
3118
31.98
84.93
67.68
0.02799
183.4
548.6
0.2394
103
5.671
6.934e+04
0.02978
0.02351
209.3
197.4
202.1
44.54
11.27
8585
0.06631
0.02183
62.55
7141
0.02434
0.5444
105.1
0.02159
7.408e+04
0.05234
75.18
121.6
169.9
1.611
1183
8483
8.566
0.06057
0.02172
28.2
86.69
230.9
20.92
0.02134
0.02019
0.02172
329.1
245.1
401.5
0.05377
2135
78.07
873.1
93.49
1797
0.6627
0.02996
1.509e+04
0.02184
2119
46.06
0.02968
166.3
247.6
1227
276.3
386.6
19.14
18.52
0.06945
8475
4462
6879
0.174
0.7193
0.02168
7.487e+04
0.02159
698.4
6358
0.02207
13.23
134.8
911.9
0.08173
18.52
5.017e+04
23.31
0.02166
23.24
867.5
73.08
229.1
18.4
58.78
5.843e+04
10.76
0.02071
0.02265
4.211e+04
50.35
624.2
8.627
95.7
0.02117
0.02193
7.219
2.727e+05
6441
1097
552.1
2.695
502.9
5837
330.2
582.7
0.02189
1540
8.199
802
28.85
24.12
0.0216
1589
17.9
5.905e+04
6.198e+04
10.09
33.29
4.4
4062
0.02698
9.236
6.199e+04
1379
438.2
7134
2.531e+04
562.3
239.4
0.1135
2525
696.3
2486
90.43
0.02612
4120
2.544e+04
0.02172
511.4
1.36e+04
1091
2379
59.62
25.09
267.4
80.65
0.03335
172.1
0.02211
186
0.09455
5.583e+04
0.1161
1.579e+04
89.69
685.9
16.58
16.08
1616
10.67
308.8
2916
107.3
68.65
9.182
49.09
201.9
2512
68.87
0.02426
101.7
47.04
451
327.1
196.4
955.9
78.95
0.02489
88.05
8.855e+04
24.38
12.56
334.3
0.03995
66.85
0.02156
106.7
2.271e+06
3.325e+05
1488
45.94
76.65
0.02099
0.05274
33.09
41.38
131.1
19.73
0.02179
29.35
131.4
52.27
112
0.02165
2617
5775
2.337e+05
8.849
51.43
184.3
1147