/*--------------------------------*- C++ -*----------------------------------*\
  =========                 |
  \\      /  F ield         | OpenFOAM: The Open Source CFD Toolbox
   \\    /   O peration     | Website:  https://openfoam.org
    \\  /    A nd           | Version:  8
     \\/     M anipulation  |
\*---------------------------------------------------------------------------*/
FoamFile
{
    version     2.0;
    format      ascii;
    class       volScalarField;
    location    "60";
    object      p;
}
// * * * * * * * * * * * * * * * * * * * * * * * * * * * * * * * * * * * * * //

dimensions      [0 2 -2 0 0 0 0];

internalField   nonuniform List<scalar> 
127143
(
-0.2007
-0.2148
-0.2028
-0.2025
-0.5069
-0.2024
-0.5448
-0.5337
-0.5313
-0.3015
-0.3479
-0.546
-0.1912
-0.2028
0.4974
-0.2
-0.2058
-0.1082
-0.2051
-0.2061
-0.2192
-0.1908
-0.004102
-0.1339
-0.1908
-0.06052
-0.2766
-0.275
0.2007
-0.03031
-0.1931
-0.05936
-0.4555
-0.2219
0.1097
-0.4557
-0.2046
-0.2212
-0.1341
-0.1996
-0.2055
-0.1717
-0.1465
-0.1901
-0.1039
-0.2221
0.1963
-0.2051
-0.04648
-0.155
-0.2005
0.02118
-0.2361
-0.1809
-0.0006613
0.01705
-0.000617
-0.1212
-0.00762
-0.1797
0.3632
-0.2043
-0.1667
-0.001431
-0.2427
0.08452
-0.08355
-0.1647
-0.1636
-0.0001628
-0.1547
-0.2765
-0.2002
-0.007947
-0.002185
-0.2752
-0.005151
-0.2051
0.01174
0.0008549
0.1857
-0.2054
-0.222
-0.1973
-0.2004
-0.2054
-0.1227
-0.3281
0.08574
-0.5123
-0.0001795
-0.1948
-0.4842
-0.2193
-0.2264
-0.05472
-0.1683
-0.1674
-0.2062
-0.08089
0.0007775
-0.04813
-0.4984
-0.09725
-0.2053
-0.2061
-0.06226
-4.617e-06
0.21
0.001653
0.4984
-0.3282
-0.2229
0.3491
0.006336
-0.05082
0.01463
-0.00209
-0.005108
-0.203
0.001678
-0.2197
0.1158
-0.09791
0.1892
-0.0795
-0.2053
-0.03002
-0.2422
0.04756
-0.208
-0.2224
-0.1379
-0.2049
-0.2062
-0.2078
-0.08408
-0.2201
0.284
-0.1017
0.02009
0.01632
-0.2314
-0.2235
-0.2361
-0.3702
0.3923
-0.0014
-0.2225
-0.5371
-0.1095
-0.03291
-0.2237
0.1314
0.4285
-0.1998
-0.1221
0.1002
-0.2051
-0.153
-0.1854
0.2169
-0.0002846
-0.2077
0.0231
-0.2425
-0.2049
0.2313
-0.4173
0.05767
-0.19
-0.2235
-0.04366
0.0461
0.0005148
-0.1921
-0.3705
-0.2423
-0.1201
-0.004588
0.04649
-0.01009
-0.1949
-0.1917
0.04889
-0.2039
-0.04895
0.3394
-0.1369
-0.02402
-0.2344
-0.236
-0.08158
0.06569
-0.2053
-0.2102
0.0001008
-2.361e-05
-0.2175
0.01136
-0.007807
0.06609
0.01282
-0.2046
-0.2017
-0.1847
-0.02389
-0.04837
-0.02675
0.006302
-0.1658
-0.1977
0.006108
-0.4202
-0.2083
-0.2056
-0.1901
-0.03279
-0.2187
-0.02536
-0.3553
0.001068
-0.03014
-0.236
-0.1614
-0.1897
0.02361
-0.2231
-0.1936
-0.2053
-0.2199
-0.01125
-0.1994
-0.2008
-0.2199
-0.08271
-0.2078
-0.1984
-0.007997
-0.2331
-0.2359
-0.2474
-0.1954
0.09757
-0.2335
-0.2028
-0.03371
-0.2704
-0.1971
-5.302e-05
-0.2742
-0.1081
-0.002833
-0.2227
0.005941
0.1962
-0.0294
-0.4605
0.01963
0.1091
-0.2131
-0.01458
-0.1941
0.01664
-0.2382
-0.2457
-0.2055
0.4369
0.3206
-0.2248
-0.03799
0.001773
-0.2047
-0.2331
-0.174
-0.2344
-0.2228
-0.06377
0.002628
0.06101
-0.0001072
-0.05347
-0.09725
0.007012
0.0001557
-0.2089
-0.2126
0.006207
-0.07372
-0.003713
-0.2333
-0.002169
-0.08124
-0.02986
0.003036
0.2157
-0.1518
-0.1971
-0.1953
-0.2241
-0.1034
0.04497
0.1536
-0.05013
-0.1661
0.333
-0.04725
0.006266
-0.2056
-0.1134
-0.07102
-0.1966
0.004378
-0.0001897
0.00952
-0.4601
-0.2274
-0.1135
-0.1806
0.001192
-0.002833
-0.179
-0.05661
-0.003557
-0.4575
-0.23
0.07975
-0.196
-0.1979
-0.3594
-0.2042
-0.0001655
0.1061
7.956e-05
-1.564e-05
0.1318
0.2013
-0.04299
-0.2045
-0.2145
-0.09897
-0.03486
-0.2348
-0.2345
0.4736
-0.07372
-0.2217
-0.2263
-0.09594
-0.2465
-0.1001
-0.2067
-0.1909
-0.2344
0.07589
-0.2204
-0.2227
-0.35
-0.001879
-0.1972
-0.204
-0.1652
-0.1975
-0.1765
-0.1493
-0.0006645
0.01111
-0.004315
-0.2283
-0.0001158
0.4199
-0.0577
-0.1084
-0.1694
-0.02404
-0.1465
-0.1271
-0.1948
-0.2052
-0.0008541
-0.2023
-0.07871
-0.08827
0.04546
0.01399
-0.1998
0.03825
-0.1985
-0.2106
-0.2154
-0.008778
0.1832
-0.1907
0.01061
-0.1371
-0.173
0.1794
-0.1909
0.07687
-0.01348
-0.1779
0.0009776
-0.222
-0.195
0.03343
-0.09412
-0.2051
-0.1311
0.002396
-0.1202
0.1993
-0.06963
0.0195
-0.2055
0.1185
-0.2265
-0.2119
-0.03701
-0.2269
0.1444
-0.2051
-0.2043
-0.2093
1.983e-05
-0.2053
0.05238
-0.1358
0.0515
-0.2473
-0.007644
0.0009263
-0.209
-0.1903
-0.1797
-0.2576
-0.0007713
-0.06766
-0.2235
0.02033
0.003301
0.004399
-0.1557
-0.08271
0.2002
0.04023
-0.1677
0.01147
0.3723
-0.003876
-0.1992
-0.2146
-0.09451
-0.09427
-0.2302
0.1281
-0.2032
-0.09624
-0.2506
-0.205
-0.225
-0.1373
-0.241
-0.2171
0.3403
-0.2412
0.0006467
-0.000125
-0.2271
-0.2174
-0.0003913
-0.2063
-0.1956
-0.09834
-0.2272
-0.02658
0.0001753
0.4605
-0.193
-0.1992
-0.2346
0.2674
0.3814
-0.2334
0.005874
0.2005
-0.2568
-0.2325
-0.007317
-0.1527
0.02752
-0.4431
-0.1243
-0.2366
-0.3669
-0.2022
-0.2068
0.422
-0.1038
-0.2192
0.006926
0.2637
-0.0009313
-0.1946
-0.2102
-0.2078
-0.2173
-0.1907
0.003266
-0.2203
-0.2788
0.009284
-0.2057
0.1182
-0.205
-0.07041
-0.2146
-0.09206
-0.2063
-0.2289
0.0004409
-0.1976
-0.1908
0.153
-0.1274
-0.1901
-0.008351
-0.1093
0.01046
-0.2156
0.002137
-0.1553
-0.5273
-0.1932
-5.488e-08
-0.2271
-0.06848
-0.1914
0.2197
-0.4616
-0.2104
0.02919
-0.2026
0.1396
-0.0004515
0.04456
-0.2244
-0.1488
-0.1777
-0.2174
-0.2057
-0.2104
-0.2406
0.1363
-0.2059
-0.209
-0.0147
-0.2018
-0.2114
-0.07328
-0.1145
-0.1981
0.002089
0.00245
0.1054
-0.2216
-0.2129
0.01049
3.252e-05
0.1335
0.1756
-0.2052
0.201
-0.2055
-0.2051
-0.00393
-0.004361
-0.001364
-0.1956
-0.2082
-0.005807
0.000331
-0.2705
-0.1248
-0.2153
-0.002843
-0.08598
0.01055
-0.2053
-0.1973
-0.2163
7.387e-07
-0.2057
-0.2132
0.2135
0.0001717
-0.06268
-0.1895
0.004345
-0.09399
0.009227
-0.1713
-0.2329
0.00694
-0.2205
-0.08321
-0.1976
-0.2317
-0.231
-0.09958
-0.08777
0.478
-0.1362
-0.473
-0.1974
-0.1914
-0.2388
-0.1417
0.0003725
-0.02231
0.008043
0.4692
-0.03114
-0.2311
0.0009655
0.006417
-0.1246
0.1487
-0.2199
0.0003105
-0.001324
-0.1938
-0.3608
-0.222
-0.1444
-0.2024
0.2003
-0.2141
0.1989
-0.2344
-0.2085
-0.2462
0.0003025
-0.2525
-0.2337
-0.04709
-0.2154
0.0007757
1.541e-05
-0.2309
0.2824
-0.2338
-0.1898
-0.0302
-1.335e-05
-0.2057
-0.2417
0.06338
-0.2386
-0.04006
0.006728
-0.2071
0.006333
-0.2337
0.1281
-0.1907
-0.19
-0.2049
-0.2033
-0.2126
-0.233
-0.08456
-0.2324
0.02904
-0.2401
-0.1933
-0.2219
-0.001454
-0.06418
0.1029
0.34
-9.743e-06
-0.001436
-0.2072
-0.1033
-0.04025
-0.2345
0.2929
-0.2047
-0.205
-0.1625
0.2625
0.02
-0.006895
0.0007291
-0.292
0.04505
-0.2282
0.3374
0.1565
-0.2042
0.153
-0.1634
-0.2036
1.484e-05
-0.1884
-0.02869
-0.00388
-0.2081
-0.06717
-0.2361
-0.2051
-8.855e-06
-0.1135
-0.1439
-0.1981
-0.2051
-0.2193
-0.2344
-0.5403
-0.2119
0.2616
-0.2069
0.004921
-0.114
-0.1121
-0.2052
-0.02268
-0.1994
0.1047
0.05817
-0.01369
0.1805
-0.1143
-0.003883
-0.1936
-0.2083
-0.2054
1.07e-05
-0.1899
-0.2091
-0.09115
-2.264e-05
-0.2324
-0.1938
-0.2281
-0.2392
-3.475e-05
-0.2051
-0.1913
-0.2154
-0.2235
0.01258
-0.235
0.4964
-0.01461
-0.04159
-0.009805
-0.2331
-0.207
0.04505
-0.06398
-0.08511
-0.2056
1.98e-05
-0.2052
-0.206
-0.1821
-0.06775
-0.1837
-0.2056
-0.2058
1.508e-05
-0.2052
-0.2069
-0.2336
-0.2001
-0.2333
-0.1935
-0.226
-0.1946
0.001253
0.003218
-0.1914
-0.21
-0.2316
-0.197
-0.2052
-0.2049
-0.2052
-0.1539
-0.001328
-0.2102
-0.09062
4.66e-05
-0.2056
-0.4404
-0.07001
0.108
0.000245
-0.214
-0.1917
-0.007072
0.0002409
-0.2147
-0.2041
-0.2025
-0.2041
-0.2051
-0.2047
-0.08315
0.2373
-0.001551
-0.2052
-0.2051
-0.1867
-0.1663
0.2307
0.0001912
-0.008207
0.0127
-0.2798
-0.001604
-0.1564
0.3146
-0.08931
-0.07472
-0.0003841
-0.1958
-0.09565
0.001513
-0.09629
-0.0009491
0.2467
0.5041
-0.2348
-0.2364
-0.2027
0.0002505
-0.2166
0.1325
-0.156
-0.1941
-0.08375
-0.373
-0.1829
-0.02758
0.1709
-0.06471
0.002808
-0.2163
0.07556
-0.3881
-0.1933
-0.06613
0.0002075
-0.09786
-0.1954
0.0004264
-0.2472
-0.3082
0.4901
-0.3527
-0.3494
-0.2201
-0.1979
-0.2061
-0.1815
0.002395
-0.07727
2.749e-06
3.39e-06
-0.2308
-0.0342
-0.2357
-0.1908
0.3644
-0.1116
-0.04511
-0.4803
-0.008173
-0.008328
-0.2079
-0.2055
-0.0434
-0.2223
-0.2036
-0.1996
-0.02414
0.4952
-0.2234
-0.2032
0.00642
-0.2368
-0.003767
-0.001948
-0.22
-0.2108
-0.2027
-0.0003798
1.974e-05
-0.2001
-0.2047
0.1076
-0.2038
-0.2081
0.1921
-0.01643
-0.1899
-0.2466
1.577e-06
0.2931
-0.1841
1.073e-05
0.1766
-0.1917
-0.208
-0.3049
-0.1746
-0.05798
-0.1901
-0.161
-0.1205
-0.003595
0.004975
-0.03317
0.2278
-0.2056
-0.222
0.2433
0.163
-0.1946
-0.1344
0.1618
-0.109
-0.2531
-0.0039
-0.2055
-0.1984
-0.2258
-0.2127
-0.2078
0.006101
0.0163
-0.1989
0.0338
-0.1999
-0.08686
-0.2012
-0.2031
-0.232
-0.2672
-0.2435
-0.07919
-0.2341
-0.179
-0.209
-0.09206
-0.2054
0.06516
-0.2057
-0.1984
-0.1911
-0.2077
-0.003802
-0.002853
-0.205
-0.2016
-0.04691
0.0002355
0.2208
-0.2143
-0.1327
-0.2042
-0.2312
-0.2058
-0.2331
0.002474
-0.02691
-0.1498
0.1303
-0.1726
-0.1919
0.2099
-0.2153
-0.23
-0.1373
-0.1553
-0.2051
0.2107
-0.1048
-0.2053
0.1765
-0.003939
-0.2053
-0.1902
-0.2057
-0.2321
0.4978
0.00223
-0.2181
-0.03245
-9.467e-05
-0.001502
-0.2369
-0.2199
-0.1915
-0.1953
-0.07445
0.1285
-0.2054
-0.03395
-0.07188
-0.00203
-0.2055
-0.2003
-0.2055
-0.01697
-0.1907
-0.2052
-0.0002243
-0.08588
-0.1945
0.003177
-0.2334
-9.006e-05
0.005319
-0.08027
-0.01221
-0.2419
0.003069
-0.09536
-0.001107
-0.456
-0.02019
-0.211
-0.09989
-0.03182
-0.07206
-0.2066
-0.1056
0.0006353
-0.01771
-0.226
-0.04377
-0.2047
-0.2055
-0.1882
-0.2054
-0.2059
-0.2318
0.03062
-0.2802
-0.1168
-0.08898
0.09668
-0.2121
-0.0008897
-0.2273
-0.1917
-0.05
-0.0001705
0.3557
-0.2114
-0.1316
0.03364
-0.2349
-0.08317
-0.2248
-0.2113
-0.131
-0.1919
0.02957
-0.1943
-0.0002023
-0.1648
-0.2283
0.001228
-0.2251
-0.2403
-0.000118
-0.007353
-0.1904
-0.03264
0.08287
-0.2231
-0.1986
-0.04344
-2.704e-05
-0.2212
-0.2098
-0.008163
0.04578
-0.03733
-0.2134
-0.2167
-0.04724
-0.04411
-0.1906
-0.1905
-0.0195
-0.06324
-0.2049
-0.1831
0.0002173
-0.1219
-0.001528
-0.2065
0.2636
-0.2293
0.03092
-0.1935
-0.2318
0.003017
-0.1898
-0.2059
-0.2103
-0.142
-0.4562
-0.2091
-0.2069
-0.164
-0.08182
0.1087
-0.1913
-0.2015
-0.1839
-0.02042
-0.07197
0.3322
-0.1974
-0.2028
-0.05393
-0.2054
-0.237
-0.09161
-0.1203
-0.2045
-0.2054
-0.09591
-0.0177
-0.06821
-0.05551
-9.616e-07
-0.002844
-0.2288
-0.1934
-0.2055
0.001137
-0.2249
-0.2025
0.005653
-0.3764
-0.08118
-0.2356
-0.2029
0.05263
-0.2033
-0.1916
-0.2051
-0.2046
-0.2045
-0.09188
-0.2405
-0.07465
-0.1464
0.1886
-0.2312
-0.08252
-0.1855
-0.2256
-0.2073
0.008307
-0.1713
-0.2033
-0.1914
-0.2034
-0.05548
-0.1991
-0.1593
-0.2027
-0.05867
-0.2055
-0.01256
-0.2913
-0.2091
-0.2046
-0.2054
-0.001249
-0.2044
-0.2353
-0.2067
-0.2054
-0.002833
-0.1496
0.001761
-0.03653
-0.1901
-0.2226
-0.06621
-0.2455
-0.2047
-0.2013
-0.0157
-0.1989
-0.2059
-0.3825
-0.2273
0.005307
-0.2166
0.001952
-0.2822
-0.02293
-0.2056
-0.02774
0.01772
0.0001514
2.192e-05
-0.1907
-0.2001
-0.2076
-0.1462
-0.0003174
-0.0003173
-0.2161
-0.2118
-0.2081
-0.2623
-0.09211
-0.1041
0.03691
-0.09275
-0.199
-0.2053
4.731e-05
-0.1895
-0.2059
0.01069
-0.07518
-0.2251
-0.2053
-0.2053
-0.1656
-0.2256
0.2521
-0.2014
-0.2179
-0.204
-0.2076
-0.1357
-0.06393
0.1682
-0.169
-0.1919
0.001395
-0.1424
-0.5207
0.0001071
-0.2458
-0.05014
-0.2056
-0.05715
-0.002459
0.07344
-0.1883
0.002496
-0.175
-0.2061
-0.1299
0.4541
-0.02447
-0.1066
-0.1897
0.02619
-0.2053
-0.2311
0.1674
0.007664
-0.204
-0.3398
-0.307
-0.2066
-0.003235
-0.2682
-0.2035
-0.1653
-0.4081
-0.2048
-0.2057
-0.002395
-0.06845
-0.2056
0.001863
-0.2045
-0.0001039
-0.5419
-0.2022
-0.197
-0.2059
-0.2356
-0.362
-0.2222
-0.1529
0.06856
-0.359
-0.2122
-0.206
-0.2329
-0.2223
-0.2048
-0.0003437
-0.192
0.002933
-0.2057
0.003994
-0.1992
-0.002609
-0.2896
-0.2024
-0.0001591
0.004867
-0.1956
-0.1713
-0.2092
-0.009798
-2.98e-05
0.1895
-0.2158
0.08079
-0.1916
-0.2066
-0.2025
-0.08064
-0.1138
-0.09614
-0.04602
-0.1982
-0.177
-0.1903
-0.1954
-0.2056
-0.2387
-0.2338
-0.2392
-0.2083
0.002843
-0.356
-0.2159
0.1386
0.004622
-0.0797
0.1253
-0.08202
-0.1957
5.153e-05
5.58e-05
-0.1555
-0.1988
0.01552
-0.2042
-0.08909
-0.01237
0.3065
0.001066
-0.07932
0.07745
-0.2709
-0.04507
-0.2145
-0.1408
-0.24
-0.2138
-0.03542
-0.0843
-0.2049
-0.01587
-0.192
-0.19
-0.06231
-0.2343
-0.03373
0.006293
0.004567
-0.09992
-0.19
-0.2424
-0.1539
-0.002448
-0.2028
0.09192
-0.08294
0.4044
-0.04773
-0.2105
-0.206
-0.1597
5.272e-05
-0.3557
-0.2179
-0.1985
-0.1022
-0.2027
-0.1992
-0.004065
-0.2477
-0.1991
-0.2079
-0.08942
-0.2201
-0.1903
-0.07604
-0.2452
-0.1994
0.291
-0.005344
0.317
-0.2137
-0.1447
-6.137e-05
6.534e-05
-0.1155
-0.2836
-0.4915
-0.4028
-0.1316
-0.1774
-0.3527
-0.001333
-0.2041
-0.02207
-0.006556
-0.00327
-0.2045
-0.0004104
0.0982
-0.003146
-0.4891
0.02753
0.2499
-0.2873
-0.1722
-0.0002425
0.4957
-0.1806
0.1772
-0.2086
-0.2223
0.002379
-0.2272
-0.205
-0.2081
-0.1955
-0.1905
-0.2052
-0.4351
0.2507
-0.04653
-0.0003356
-0.1991
-0.0002893
2.461e-05
-0.0001714
-0.19
-0.0003511
-0.189
0.001424
-0.2315
-0.2353
-0.2149
0.1181
0.0006441
-0.2055
-0.2209
-0.198
-0.09624
-0.08148
0.04866
-0.001047
-0.0009351
-0.2361
0.4953
0.04069
-0.07955
-0.03439
-0.2056
-0.04753
0.04294
-7.714e-05
0.08229
-0.2055
-0.1539
-0.0379
0.1571
0.02671
-0.235
0.002792
-0.03929
0.1185
-0.1979
0.2963
-0.005108
-0.2161
-0.001469
-0.2345
-0.1338
-0.2055
-0.0797
-0.08048
-0.204
-0.03038
0.1359
-0.146
-0.2357
-0.4211
-0.2012
0.0001615
-0.1715
-0.005864
-0.2507
-0.0285
-0.2437
0.005117
-0.1975
-0.002628
-0.09419
-0.2057
-0.001842
-0.2021
-0.1458
0.191
-0.2175
-0.002606
-0.1209
-0.001132
0.0333
0.2459
-0.04323
-0.2067
-0.05976
-0.009213
-0.2375
-0.1913
0.368
0.1897
-0.1948
-0.09701
-0.229
-0.2415
0.4472
-0.1008
-0.1722
0.161
-0.005729
-0.08234
-0.2125
0.2588
-0.09984
0.04172
-0.0007427
-0.19
-0.2039
-0.2301
-0.2056
-0.0458
-0.2051
-0.105
-0.07732
-0.0003607
-0.1034
-0.04872
-0.07563
-0.1012
-0.005923
-0.2326
0.002037
-0.21
-0.0681
-0.2123
0.2523
-0.03521
-0.04782
0.004088
-0.08559
0.2684
0.189
-0.3153
0.02141
-0.1366
-0.08841
-0.004275
0.03162
-0.1904
0.0001824
-0.2409
0.01482
0.008425
0.2554
-0.06551
-0.1961
0.0002665
-0.2023
-0.2331
-0.0002131
0.09363
-0.3861
-0.2131
3.148e-05
-0.2053
-0.1818
-0.2055
-0.2893
-0.2053
-0.1212
-0.2133
0.0001293
-0.0004703
-0.1902
-0.03336
-0.2337
0.2707
-0.198
-0.1812
-0.2292
0.02728
-0.2464
-0.2013
-0.2887
-0.1967
-0.19
-0.2255
-0.1287
-0.2037
-0.118
-0.1947
-0.2133
-0.1909
-0.1921
0.1932
-0.2053
-0.2076
-0.09036
0.0101
-0.412
-0.1169
-0.2087
-0.1526
-0.07599
-0.03578
-0.1968
-0.2064
-0.0001283
0.04648
-0.079
-0.2298
-0.2376
-0.2089
-0.047
-0.02061
0.0194
-0.2224
-0.1896
-0.2224
-0.06835
-0.11
1.409e-05
-0.3729
0.494
-0.09619
5.14e-06
-0.2052
-0.2054
-0.1342
-0.2316
-0.2
-0.1261
-0.000205
0.2802
-0.05861
-0.02761
-0.2001
-0.01063
-0.1215
-0.5161
-0.1453
-0.1984
-0.4755
-0.2025
-0.08608
0.000332
0.1502
0.1097
-0.204
-0.07498
-0.2024
-0.1242
-0.2002
-0.1348
-4.413e-05
-0.02264
-0.1609
-0.4869
-0.2048
-0.2309
0.02753
0.1436
0.01285
0.04571
-0.2441
-0.04487
0.002093
-0.1058
-0.1298
-0.1068
-0.1956
-0.02809
0.03527
-0.2279
0.2502
-0.2059
-0.1901
-0.06505
-0.0551
-0.1635
-0.204
-0.1902
-0.2096
-0.08806
-0.1792
-0.1997
-0.1727
-0.1287
-2.611e-05
-0.08074
-0.199
-0.2035
-0.0006257
0.004115
-0.2065
-0.07039
-0.1983
-0.05219
-0.1798
0.4654
-0.006654
-0.131
-0.2036
-0.1999
-0.09275
-0.1913
0.0206
-0.2355
-0.2154
-0.07003
-0.2339
0.0003318
-0.1987
-0.2046
-0.08154
-0.1916
-0.07232
-0.2228
-0.01648
-0.1279
-0.2274
-0.2131
-0.1329
-0.1902
-0.04693
-0.2045
-0.2054
-0.2055
-0.2267
-0.1983
0.439
-0.2056
-0.009472
-0.1938
-0.2073
-0.07279
-0.04686
0.0003916
-0.2188
-0.1548
-0.2364
1.57e-05
-0.2024
-0.198
-0.196
-0.201
-0.2254
-0.1678
-0.2084
-0.07854
0.009199
-0.2057
-0.0005558
-0.202
0.07576
-0.078
-0.2068
0.001678
-0.07507
-0.1704
-0.1899
-0.001919
-0.0279
-0.2009
-0.1201
-0.2802
0.009026
-0.2334
-0.1949
0.01418
-0.1476
-0.2043
-0.278
-0.2308
-0.09017
-0.1133
-0.1938
-0.2037
-0.5258
-0.1583
-0.2045
-0.04701
0.009717
-0.0003496
0.133
-0.1664
-0.3267
0.00572
-0.2148
-0.2056
-0.5223
-0.2063
-0.03541
-4.868e-06
-1.734e-06
-0.1152
-0.2291
-0.1915
0.4274
0.09562
-0.2131
-0.09066
0.002595
-0.1255
-0.007446
-0.07365
-0.192
-0.1439
-0.1223
0.05439
-1.183e-05
-0.09111
0.05393
-0.03406
0.06497
-0.2192
0.3712
-0.1905
-0.2353
-0.1584
-0.2283
-0.2199
-0.03658
-0.3179
-0.2042
1.43e-05
3.202e-06
-0.2055
-0.2003
-0.1742
0.2029
0.2069
-0.2346
0.0004123
-0.001369
0.2117
-0.001592
-0.2156
0.02476
-0.3522
-0.0405
0.01227
-0.01121
0.3479
-0.4506
4.58e-05
-0.09144
-0.06504
-0.08021
-0.1969
0.1313
-0.2172
-0.2317
-0.2267
-0.2054
-0.1037
-0.2044
0.1478
-0.02387
-0.2185
-0.1899
-0.472
-0.1949
-0.1927
-0.2055
0.3268
0.2021
-0.03351
-0.06653
-0.07405
-0.2396
-0.02046
-0.2017
0.002054
-0.08309
-0.2051
-0.06793
-0.2085
0.05408
-0.2102
0.1792
-0.1662
-0.226
-0.08291
-0.163
-0.2949
-0.0004084
-0.1966
-0.179
-0.2428
-0.2072
-0.2051
-0.1317
-0.02599
0.006059
-0.2266
0.07807
-0.07094
-0.1935
-0.2008
-0.1522
-0.2547
2.688e-06
-0.2302
-0.06906
-0.2
0.2396
-0.112
0.001945
-0.2058
-0.00786
0.1608
-0.1032
-0.2247
-0.2012
-0.1938
0.002086
-0.2048
-0.188
-0.1981
-0.4373
-0.1296
-0.2054
-0.2358
0.01127
-0.02714
0.2293
0.2062
0.2541
-0.2329
-0.2369
-0.1291
0.1322
-0.3832
-0.1968
0.44
-0.1901
-0.2106
-0.1438
-0.2057
8.749e-05
-0.1968
0.01037
0.002334
-0.3681
-0.01571
-0.2028
0.03188
-0.2106
-0.226
-0.1015
-0.2405
-0.206
0.4066
-0.2084
-0.198
-0.1943
-0.2168
-0.2071
-0.0002938
-0.1968
-0.2107
-0.2046
-0.2018
2.639e-05
-0.2086
-0.1334
-0.07447
-0.2125
-0.1899
-0.4761
-0.2054
-0.2093
-0.2172
0.03138
-0.2085
0.003856
-0.001831
-0.2114
-0.19
-0.2459
-0.2378
-0.1853
-0.2058
-0.01118
-0.2296
-0.2098
-0.2085
-0.1078
-0.2195
0.4867
-0.07015
0.155
-0.08509
-0.2057
-0.145
-0.19
-0.2067
-0.2055
0.158
-0.1946
-0.2355
-0.0932
0.1967
0.00176
-0.2712
-0.2278
-0.2037
-0.07004
-0.0857
-0.2246
-0.393
-0.215
-0.2291
-0.5302
0.00239
-0.1981
-0.2042
-0.0793
0.04519
0.05707
-0.01006
-0.2235
-0.2094
0.03509
-0.4914
0.0742
-0.2332
-0.3044
-0.2053
-0.1092
-2.587e-05
1.685e-05
-0.1449
-0.2331
0.06141
-0.2891
-0.1531
0.002407
-0.2371
-0.02689
-0.2319
0.002113
-0.01071
-0.2358
-0.225
-0.1502
-0.4788
0.02114
-0.0007834
-0.1462
-0.2011
-0.01678
-0.0452
-0.1716
-2.107e-06
-0.05827
-0.2054
-0.1986
-0.1948
-1.076e-05
-4.984e-06
-1.033e-06
-8.693e-06
-0.07033
-0.1959
-0.03397
0.1768
-0.08273
-0.1957
-0.2206
-0.2553
8.836e-06
-0.2205
-0.2048
-0.1914
-0.2382
-0.1901
-0.1927
-0.1014
-0.08694
-0.2302
-0.1587
-0.05309
-0.09717
0.3579
0.009527
-0.1152
0.3576
0.248
-0.001477
-0.1972
-0.2087
-0.0125
-0.1267
0.05797
0.1786
-0.00201
-0.204
-0.2372
-0.0003032
-0.2348
-0.2056
-0.2175
-0.1929
-0.2036
-0.07151
-0.2053
0.0003063
0.2164
-0.1939
-0.2057
-0.2054
0.1796
0.002816
-0.0108
-0.1801
-0.1918
-0.2086
-0.04924
-0.2162
-0.2399
-0.06417
0.4416
-0.0866
-0.2121
-0.2048
-0.197
-0.2053
-0.08852
-0.179
-0.05125
0.00811
0.1507
-0.003938
0.002349
-0.1841
0.0005626
0.4109
-0.205
-0.1588
-0.2053
-0.04212
0.004628
-0.0908
-0.192
-0.06464
-0.2014
-2.207e-05
-0.0009399
-0.4928
-0.2412
0.003755
-0.265
-0.2387
-0.1913
0.0001639
-0.2076
-0.2205
-0.03776
-0.02126
-0.2039
-0.3971
-0.5518
0.1429
-0.1002
-0.1912
5.823e-05
-0.05044
-0.2395
-0.1625
-0.002154
-0.09534
-0.5299
-0.1764
-0.007109
-0.1006
-0.2368
-0.1839
-0.05118
-0.2051
-0.002942
-0.2151
-0.283
-0.2041
-0.2185
-0.007419
-0.1741
-0.1939
0.1615
0.003702
0.002532
-0.1702
-0.2229
-0.2038
-0.19
-0.2351
-0.08391
-0.2047
-0.2304
-0.1958
-0.2058
0.00197
-0.2371
-0.2359
-0.06068
-0.2053
0.2214
-0.1535
0.4973
-0.2057
-0.2484
-0.1906
-0.1412
-0.04734
0.2102
0.04752
-0.09217
0.1886
0.006522
-0.519
0.001819
-0.2053
-0.2298
-0.2008
-0.1967
-0.4164
-0.2027
0.3174
-7.948e-06
0.4613
-0.2504
0.000214
-0.2044
-0.1952
0.3581
-0.1143
-0.1994
-0.2097
-0.009631
0.02416
-0.22
0.1548
-0.08733
-0.2645
0.0007126
-0.2053
-0.09709
-0.1901
-0.152
-0.1947
-0.2001
-0.1049
-0.07024
-0.004935
-0.02441
-0.00086
-0.1014
0.08966
-0.06387
-0.2051
0.00107
-0.1553
-0.06913
-0.23
-0.2349
-0.2057
-0.0002395
0.007295
-0.1012
-0.06287
-0.3044
-0.2047
-0.2054
5.08e-06
-0.05729
-0.05005
6.691e-06
-0.2061
0.009296
-0.03049
-0.2177
-0.1943
-0.2046
-0.2057
-0.114
0.08717
-0.1357
-0.205
-0.2355
-0.2029
-0.2056
-0.2218
-0.2054
0.04579
-0.06068
-0.2017
-0.1916
-0.002818
0.121
-0.1966
-0.1589
-0.2291
3.203e-05
-0.07195
-0.1558
0.007068
-0.06842
0.24
-0.2095
-0.3323
-0.1355
-0.2014
0.1751
-0.2025
-0.1905
0.0004069
-0.1865
0.07647
-0.1071
0.06809
0.002529
0.2946
-0.2083
-0.2056
-0.2052
-0.2056
-0.2307
0.09207
-0.2157
-0.2046
-0.239
-0.1992
-0.3512
-0.2297
3.287e-05
-0.2001
-0.1921
0.001284
-0.04134
-0.1416
0.001133
-0.2463
-0.2182
-0.05883
-0.03354
-0.1098
-0.0002434
-0.2026
-0.001486
-0.01537
-0.1979
0.1703
-0.07498
-0.002387
0.1211
-0.005908
-0.1333
-0.2058
-0.2141
-0.09116
-0.216
-0.1025
-0.2044
-0.4565
0.07441
0.0002768
-0.2068
-0.2053
0.0004617
-0.05305
0.004733
-0.1919
-0.2152
-0.4163
-0.2058
-0.0007656
-0.2157
-0.1316
-0.2466
-0.1956
-0.2417
-0.1931
0.00116
-0.204
-0.06717
-0.008674
-0.233
-0.188
-0.06814
-0.2342
-0.05148
0.3318
-0.2503
0.0003166
1.123e-05
-0.01858
-0.06489
0.3188
-0.1912
-0.209
0.01218
-0.09629
0.2209
-0.09829
-0.002199
-0.194
-0.1222
-0.1176
-0.0004253
0.4026
-0.2332
-0.1114
-1.362e-05
-0.09027
-0.2065
0.0189
-0.1249
-0.00933
0.05259
-0.2058
-0.2287
0.001628
-0.1987
-0.2023
-0.24
-0.2051
-0.2354
-0.1183
-0.2051
-0.01923
-0.4383
-0.004343
-0.2151
-0.05856
-0.326
0.2847
0.003532
-0.2645
-0.2319
-0.2089
-0.2191
-0.08616
-0.37
-0.0937
-0.1768
-0.1901
-0.2033
-0.1897
-0.2292
2.88e-05
0.2704
-0.05638
-0.1935
-0.1901
-0.2474
0.1375
-0.01286
-0.0041
0.02927
-0.1073
2.625e-05
-0.5252
-0.2134
0.004143
-0.01657
-0.1449
-0.178
0.003337
-0.2055
-0.1951
-0.0987
0.006316
-0.2357
-0.5289
-0.2332
-0.3494
-0.09819
-0.1917
-0.2271
0.005287
-0.2109
-0.23
-0.2129
-0.001762
-0.1394
-0.2054
-0.1981
-0.2059
-0.3682
0.1375
-0.2103
-0.2122
-0.1936
-0.2065
0.2136
-0.2053
0.01123
-0.05182
-0.006605
-0.1977
-0.002813
-0.2468
-0.188
0.004155
-0.2288
-0.2061
0.17
-0.06673
-0.2364
-0.06563
-0.2056
0.1035
-0.01044
0.01039
-0.2113
-0.1903
-0.0001077
-0.2167
0.0463
0.1902
-0.2017
-0.2086
-0.1586
-0.09026
-0.1976
-0.2401
0.002039
-0.2061
-0.2679
-0.4834
-0.1119
-0.1432
-0.3601
-0.2273
-0.2291
-0.01639
-0.2079
-0.2126
-0.0002681
0.0008884
-0.2057
-0.09035
-0.001984
0.1187
-0.1439
0.07175
-0.2054
-0.2417
-0.2148
2.717e-06
0.1162
-0.01767
-0.01961
-2.142e-06
-0.1381
-0.1984
-0.2056
-0.2146
-0.235
-0.2048
-0.1942
0.0002819
-0.2188
-0.1961
0.4951
-0.2473
-0.1089
-0.1917
-0.1202
-0.002278
-0.1911
-0.2177
-0.1129
-0.08911
-0.1908
-0.22
1.826e-05
0.002902
-0.1229
-0.1936
-0.2038
-0.4774
-0.002195
-0.1912
-0.2093
-0.1833
0.002428
0.00968
-0.1065
0.04106
-0.2056
-0.2114
0.3999
7.395e-05
0.04397
7.827e-06
-0.2246
0.0364
0.004522
-0.1937
-0.2058
-0.1928
-0.1988
-0.1913
0.01762
0.0002854
-0.2328
-0.04403
-0.005647
-0.2356
-0.3572
-0.2079
0.0002658
-0.05855
-0.1434
0.0449
0.2233
-0.2053
-0.0005312
-0.4962
-0.007322
-0.1901
0.0008336
-0.0008611
-0.006644
-0.01638
-0.2297
-0.2089
-0.1047
-0.05695
-0.2011
-0.0179
-0.1964
-0.004682
-0.003412
-0.02798
-0.2339
-0.204
-0.2045
-0.01821
-0.2102
-0.1899
-0.2357
0.08415
-0.2056
-0.06124
-0.2111
0.1086
-0.1691
-0.2358
-0.1137
-0.194
-0.1708
0.04883
-3.653e-06
-0.2189
-0.02055
-0.2225
-0.1582
-0.2372
-0.2348
-0.2352
-0.0003682
0.292
-0.2196
5.072e-05
-0.4119
-0.002125
-0.2055
-0.2254
0.0004512
-0.2423
0.2337
0.001305
0.02825
-0.2026
-0.1901
0.02816
0.1778
-0.06685
-0.1192
-0.00345
-0.1737
-0.205
-0.02477
0.1785
-0.2049
-0.1139
-0.1692
-0.09268
-0.2323
-0.2126
-0.1923
0.3182
0.006478
-0.08674
0.1536
-0.1189
-0.2191
0.002651
-0.2004
-0.1339
-0.1613
-0.1903
-0.2064
-0.2374
9.733e-05
-0.07004
-0.2055
-0.2128
-0.006612
-0.06271
-0.04286
-0.2039
0.2119
0.2087
-0.2039
0.1161
-0.2062
-0.1177
-0.2357
-0.03174
0.0001817
-0.2054
-0.0001891
-0.2054
-0.03268
-0.1611
-0.1971
-0.2129
-0.152
-0.2183
-0.1992
-0.000376
-0.001375
-0.09138
-0.1267
-0.1755
-0.2756
-0.2055
-0.05047
0.2405
-0.2357
0.07235
-0.2327
-0.177
-0.05706
-0.2347
-0.08813
-0.04569
-0.008889
-0.1426
-0.1277
-0.2078
-0.194
-0.1231
0.00321
-0.1929
-0.126
-0.002798
-0.1733
-0.04809
0.001793
-0.1915
-0.03758
-0.1933
-0.005015
-0.234
-0.2235
3.403e-05
-0.2291
-0.237
-0.19
-0.2032
-0.2055
0.002285
-0.2406
0.0002407
-0.1615
-0.2287
0.4157
-0.03125
-0.1925
-0.1903
0.000906
-0.002841
-0.02855
0.02542
-0.05297
-0.1009
-0.2519
-0.07858
-0.2185
-0.2029
0.01652
-0.4522
-0.1631
-0.1037
-0.2055
0.003037
0.03712
0.06746
-0.2404
-0.07429
-0.2129
0.001501
0.4265
-0.2408
-0.03687
-0.2051
-0.2361
-0.1679
-0.003918
-0.003063
-0.05125
-0.3561
-0.08374
-0.2081
-0.2052
0.01648
-0.09971
-0.04427
6.438e-06
0.2722
-0.2017
-0.1347
-0.3047
-0.2093
0.001868
-0.1239
-0.1585
-0.1936
-0.2001
-0.07601
0.05293
-0.2346
-0.05246
-0.07175
-0.1001
-0.1747
-0.2004
-6.276e-05
-0.2008
0.09503
-0.1603
0.01512
-0.2002
-0.1041
-0.0821
-0.2027
-0.456
-0.2263
0.4115
-0.2048
0.2341
-0.2292
-0.1236
-0.2394
-0.1341
-0.2052
-0.2171
0.08665
0.007649
-0.2172
-0.4276
-0.01104
-0.2269
-0.2363
-0.211
-0.1997
-0.113
-0.04328
0.01999
-0.2213
-0.2049
-0.1916
-0.1945
-0.2053
0.1227
-0.1371
-0.2007
-0.2073
-0.2279
0.3284
-0.1231
-0.1281
-0.0001399
-0.2266
-0.2192
-0.2213
-0.2097
-0.1221
-0.2273
-0.1719
-0.02537
-0.2413
0.006766
-0.2196
-0.2168
-0.0539
-0.07669
-0.2076
-0.07404
-0.1909
-0.2043
-0.1679
-0.07954
-0.205
-0.1211
-0.06865
-0.1908
0.1235
-0.221
-0.2018
-0.2044
-0.1048
-0.4709
0.009468
-0.01627
-0.001295
-0.2054
-0.1164
-0.1901
-0.1242
0.235
-0.2016
0.106
-0.2013
-0.03183
-0.2074
-0.1509
-0.1363
-0.1161
0.4767
-0.0798
-0.2058
0.00192
-0.2321
-0.2057
-0.199
-0.2109
-0.001815
0.00138
-0.2243
-0.2045
0.02331
-0.01388
-0.09497
-0.0005512
0.005616
-0.1303
0.008201
0.02116
-0.1656
-0.0004047
0.02033
-0.2032
-0.3884
-0.244
-0.01447
0.1894
-0.101
-0.1473
-0.116
-0.164
-0.2296
0.04416
0.1189
-0.06282
-0.2054
-0.1902
0.003248
0.009205
-0.1968
-0.4545
-0.002375
-0.2055
0.003505
-0.2183
-0.2174
0.04266
-0.2358
-0.1837
0.4855
-0.06989
-0.1543
0.4185
-0.2056
0.03004
-0.1331
-0.2056
-0.2085
-0.08941
-0.2309
-0.1999
0.01305
-0.0001876
-0.2111
-0.1134
-0.1299
-0.1714
-0.02003
0.04636
-0.1983
-0.02179
-0.04491
0.121
-0.2057
2.94e-05
-1.058e-05
0.0002329
-0.1259
-0.4853
-0.2165
-0.1654
-0.2278
3.412e-05
-0.03588
-0.06672
-0.1963
-0.09144
-0.3903
-0.2395
-0.1997
-0.4683
-0.2052
-0.2086
0.2885
-0.2056
-0.2246
-0.2044
-0.1285
-0.205
-0.01477
-0.2039
-0.1467
-0.1082
-0.2374
0.1729
-0.2113
-0.2089
-0.1996
0.00392
-0.3168
-0.2183
0.005897
-0.1959
-0.001722
-0.05997
-0.09368
-0.06002
-0.2053
0.1392
-0.2484
-0.204
0.002147
-0.08148
-0.2123
-0.2089
-0.0141
-0.08587
0.0005397
-0.1368
-0.2198
-0.2052
-0.1899
-0.2339
-0.233
-0.0328
-0.3168
0.3013
-0.1728
-0.0002174
-0.0242
0.03047
-1.503e-05
-0.1903
0.01343
-0.3384
-0.2056
-0.1897
0.003483
-0.2492
-0.1905
-0.1782
-0.07644
-0.1086
-0.206
-0.1987
-0.04289
-0.1799
-0.2216
-0.1467
-0.01397
-0.2019
-0.226
-0.0193
-0.1985
-0.2043
-0.1913
0.3439
-0.00129
-0.193
0.009086
-0.2019
-0.04896
-0.2057
-0.2081
-0.08857
-0.002307
-0.1616
0.4163
-0.1825
0.002624
-0.07733
-0.1966
-2.658e-06
-0.07544
-0.09325
-0.2331
0.004035
0.003861
-0.2069
-0.006559
-9.255e-05
-0.002954
-0.2057
0.09949
-0.1311
-0.1844
-0.1236
-0.1579
-0.1641
0.002074
-0.2055
-0.02898
-0.04227
0.01055
-0.1475
-0.1515
0.05754
-0.2024
-0.2221
-0.2076
-0.2121
-0.1956
0.05485
-0.1909
-0.2191
-0.2114
-0.2153
-0.1968
-0.002207
-0.2422
-0.2062
-0.009017
0.3703
-0.1002
-0.1185
-0.2058
-0.0803
-0.08859
0.0476
-0.1267
-0.3811
-0.2299
-0.001338
0.08561
5.368e-05
-0.2007
-0.2071
-0.2314
-0.2705
-0.1938
-0.1499
1.555e-05
0.01987
-0.2503
-0.04346
-0.004863
-0.115
-0.2045
-0.2245
-0.2219
0.4352
0.1333
0.106
0.2167
-0.1837
-5.046e-07
-0.1899
-0.2157
-0.2055
-0.07896
-0.1355
-0.01493
-0.2023
-0.2095
-0.01758
-0.2587
-0.1112
-0.07239
-0.2691
-0.1382
0.2136
0.005963
0.07701
-0.1752
-0.1983
-0.2288
-0.2198
-0.05268
-0.2047
-0.2018
-0.1457
-0.06021
-0.08554
-0.06405
-0.001285
-0.1935
-0.2794
-0.1974
0.0698
-0.457
0.001902
-0.003258
-0.2151
-0.005234
0.001359
-0.3567
1.63e-05
-1.053e-05
0.05225
-8.383e-05
-0.2055
-0.203
-0.1729
-0.206
-0.05234
0.0009696
0.003908
-0.2251
-0.111
0.2073
-0.1215
-0.2139
0.000529
-0.2021
-0.2404
-0.1731
-0.1711
0.003133
0.01171
-0.3617
-0.002211
0.001322
-0.1912
-0.07079
-0.02484
0.02561
-0.2322
-0.001835
-0.001281
0.002354
-0.1938
-0.1082
-0.2047
-0.2053
0.07012
-0.1405
-0.2038
-0.1966
-0.05781
-0.1975
-0.1257
-0.2209
-0.0006567
-0.05067
-0.2127
-0.2644
0.0008812
-0.1907
-0.2002
-0.2174
-0.1932
-0.04391
-0.2057
-0.08424
-0.04594
-0.1922
0.003876
-0.5155
-0.01349
0.07066
0.003167
-0.361
0.00916
-0.08588
-0.04404
-0.191
-0.2004
-0.1935
-0.2034
0.0002116
-0.5495
8.326e-05
-0.1897
-0.1523
-0.2042
0.05912
-7.538e-05
-0.4295
0.003839
-0.1222
-0.2052
-0.2286
0.004552
0.01262
0.467
-0.0176
-0.1908
-0.223
-0.234
-0.2059
0.3073
-0.2252
-0.5076
-0.1324
0.001321
-0.205
0.3608
0.008488
0.002716
-0.2402
-0.2044
0.375
-0.3075
0.4012
0.005232
-0.1612
0.005653
0.008565
0.001557
-0.2642
-0.02056
-0.2117
-7.958e-06
-0.2051
-0.009244
-0.2331
-0.1733
-0.44
-0.03365
-0.2193
0.2704
-0.07214
-0.0889
-0.1953
0.004655
-0.1642
0.001328
-0.2049
0.09562
-0.002112
-0.1302
-0.2513
-0.1914
-0.1081
-0.2052
-0.1347
-0.03607
-0.2156
0.2014
-0.2836
-0.2323
-0.1906
-0.2066
-0.2053
-0.2329
-0.206
-0.2157
-0.1921
-0.1865
0.0003996
-0.2315
-0.0001909
0.01934
0.06646
-0.08037
-0.1955
-0.4729
-0.2048
-0.1933
2.16e-05
-0.09456
-0.2069
-0.3275
-0.2046
-0.003211
-0.2051
-0.23
-0.08986
-0.00011
-0.2343
-0.09439
-0.2061
-0.1961
-0.2862
0.2162
0.3373
-0.2054
-0.2272
-0.2255
-0.1963
-0.1986
0.02709
-0.2501
0.176
0.01794
-0.2006
-0.2042
-0.2054
-0.2224
-0.2436
0.003957
0.192
-0.3061
-0.1539
0.169
0.1841
-0.1959
-0.2381
-0.0005468
-1.78e-05
-0.2009
-0.205
-0.09568
0.002941
-0.2026
-0.2038
0.04091
-0.02926
0.001008
-0.1381
-0.1575
-0.2054
-0.2477
-0.2174
-0.2206
-0.1928
-0.1967
-0.231
0.03874
-0.2055
0.411
-0.198
-0.1338
-0.1018
-0.2054
-0.002411
-7.838e-05
-0.2056
-0.2054
-0.2052
-0.2063
-0.2039
0.007081
-0.1909
-0.2347
-0.1794
0.01742
-0.5534
-0.1902
-1.916e-05
-0.05287
0.02038
-0.05561
-0.1928
-0.2192
-0.02476
-0.2829
-0.2801
0.004702
-0.233
0.01059
-0.2052
-0.193
-0.01501
-0.2066
-0.233
0.07202
0.08917
-0.04917
-0.1468
-0.006541
-0.1063
-0.1985
-0.4049
-0.2022
-0.0009813
0.008217
0.000269
-0.2086
0.006041
-0.2145
-0.1919
0.1016
-0.2063
-0.2055