/*--------------------------------*- C++ -*----------------------------------*\
  =========                 |
  \\      /  F ield         | OpenFOAM: The Open Source CFD Toolbox
   \\    /   O peration     | Website:  https://openfoam.org
    \\  /    A nd           | Version:  8
     \\/     M anipulation  |
\*---------------------------------------------------------------------------*/
FoamFile
{
    version     2.0;
    format      ascii;
    class       surfaceScalarField;
    location    "60";
    object      phi;
}
// * * * * * * * * * * * * * * * * * * * * * * * * * * * * * * * * * * * * * //

dimensions      [0 3 -1 0 0 0 0];

internalField   nonuniform List<scalar> 
189008
(
3.385e-08
-3.385e-08
4.429e-09
-4.429e-09
8.768e-09
-8.768e-09
1.271e-08
-1.271e-08
-1.218e-06
1.218e-06
1.3e-08
-1.3e-08
4.642e-06
-4.642e-06
-1.801e-06
1.801e-06
-1.09e-06
1.09e-06
4.125e-07
-4.125e-07
5.227e-06
-5.227e-06
-2.051e-06
2.051e-06
-4.765e-09
4.765e-09
-1.433e-08
1.433e-08
2.421e-05
-3.425e-05
1.005e-05
2.973e-06
-3.382e-06
4.091e-07
-2.846e-08
2.846e-08
0.0008209
-0.00272
0.001899
-0.001291
0.0006818
0.000609
-3.54e-06
3.804e-06
-2.639e-07
0.0003668
-0.0003118
-5.498e-05
-5.791e-08
2.672e-08
3.119e-08
-0.003237
0.01044
-0.007207
1.23e-05
0.0002823
-0.0002946
-3.939e-08
-1.852e-08
-0.0001319
7.486e-05
5.706e-05
-8.341e-06
9.176e-06
-8.355e-07
-9.183e-06
8.422e-07
0.0001041
-8.165e-05
-2.243e-05
0.004207
-0.01189
0.007682
-2.525e-05
-0.000116
0.0001412
-3.521e-05
-9.671e-05
2.714e-05
-1.873e-05
-8.407e-06
-1.728e-05
1.042e-05
6.858e-06
0.01176
0.01083
-0.02259
7.918e-06
1.922e-05
3.089e-05
0.0001773
-0.0002082
-0.0009629
0.001407
-0.0004442
-2.781e-05
0.0003512
-0.0003234
-2.667e-05
3.034e-05
-3.665e-06
-0.0009157
-0.000375
0.001852
-0.003655
0.001802
0.000467
-0.004369
0.003902
1.362e-08
-1.362e-08
0.001722
-0.0009014
-9.133e-06
-8.147e-06
6.921e-05
3.487e-05
-0.000389
0.0004062
-1.714e-05
-0.0004791
0.000575
-9.586e-05
-1.824e-05
0.000282
-0.0002638
1.033e-06
1.939e-06
-0.01387
-0.03076
0.04463
-2.667e-05
-1.672e-05
4.34e-05
-0.01252
0.01109
0.001437
1.083
-0.128
-0.9546
0.0005473
-0.0004429
-0.0001045
-0.1468
1.229
0.01227
-0.007618
-0.00465
-0.312
0.01836
0.2936
-0.005496
-0.007028
-0.002305
2.086e-05
0.002285
-0.0002739
0.0006342
-0.0003603
-0.000175
0.001373
-0.001198
-0.81
0.955
-0.145
-1.629e-05
3.709e-05
-2.08e-05
-0.0003017
-0.003269
0.003571
-0.02826
0.02241
0.005852
0.001624
-0.001351
-0.0002725
0.0004547
0.001169
-1.277
0.4802
0.7969
-4.013e-05
-0.000174
0.0002141
3.506e-06
5.671e-06
-0.0008608
-0.0004621
0.001323
-0.1153
-0.1967
-0.2733
0.5156
-0.2423
-3.689e-06
-5.494e-06
-0.0516
0.09145
-0.03985
-0.0003073
0.000292
1.536e-05
0.0002954
0.0002519
0.1598
-0.634
0.4742
-0.000101
7.859e-05
2.241e-05
-1.532e-06
-2.009e-06
1.683e-05
1.953e-05
-3.636e-05
5.32e-06
2.383e-05
-2.915e-05
9.418e-05
-0.000274
0.0001799
-0.0001794
0.0002931
-0.0001137
-0.0004273
0.0008027
-0.0003753
-2.447e-06
1.705e-07
2.277e-06
-0.003181
0.002879
-0.0003462
0.0006033
-0.0002571
0.1866
-0.02157
-0.165
-0.005094
-0.006254
0.01135
-0.0002706
0.0008749
-0.0006043
0.0002116
0.0001552
0.0001027
-0.0001046
1.872e-06
0.02915
0.01453
-0.04368
0.00328
-0.001427
0.0001392
-0.0001408
1.558e-06
-0.0002315
-3.765e-05
0.0002692
-0.01866
-0.0096
0.6861
-0.5263
-2.793e-06
-0.0004763
-5.059e-05
-0.0001592
0.0002098
0.004407
-0.00535
0.0009425
7.569e-05
-0.0002551
-0.0002967
6.514e-05
-0.0008536
0.001216
-0.000362
-0.9999
-0.2772
-0.001258
0.0006249
0.0006335
-1.154
0.8761
0.2777
4.762e-05
-2.341e-05
-2.012e-06
-4.358e-07
-0.0002205
3.093e-05
0.0001895
0.0006274
-0.0009791
0.0003517
-0.2117
0.09559
0.1161
0.0006397
0.002543
-0.003183
-0.1065
0.05798
0.04855
0.1657
-0.439
0.02285
-0.07444
2.917e-07
-2.326e-07
-5.904e-08
-1.253
0.099
9.519e-06
1.71e-05
-2.662e-05
-0.0003982
-0.000741
0.001139
0.01416
-0.01211
-0.002043
-6.746e-05
-3.354e-05
9.377e-05
-8.722e-05
-6.558e-06
-0.0003288
-0.0001907
0.0005195
0.08779
-0.1027
0.01486
-0.0001087
4.376e-05
6.497e-05
-0.0003759
0.0003054
7.06e-05
0.0001533
-4.774e-05
-0.0001055
8.87e-05
-3.472e-05
-5.398e-05
-0.0003423
-0.001156
0.001499
-0.0001257
-0.0001817
6.987e-08
-5.471e-08
-1.516e-08
0.0001609
-7.619e-06
-0.004377
0.03602
-0.03164
-0.0001321
0.0002639
-0.0001318
-0.0001019
0.0001169
-1.504e-05
0.03404
-0.05483
0.02079
0.009332
0.0002839
-0.009616
-0.04733
-0.04264
0.08997
-5.351e-05
9.018e-05
-3.667e-05
-0.00033
0.0002011
0.0001289
-4.649e-05
1.981e-05
0.001474
-0.0005799
-0.0008946
-2.308e-05
-8.375e-06
3.146e-05
-0.02784
-0.7822
0.0001094
-2.066e-05
0.0001407
-0.0002054
6.464e-05
0.002589
-0.00381
0.001221
0.000692
-0.0001937
-0.0004984
0.002946
-0.003623
0.0006773
-0.008996
0.0001821
0.008814
0.0001794
-0.0003667
0.0001873
0.0002636
-0.0001694
0.008117
0.00415
0.0003819
-0.0003137
-6.822e-05
-6.733e-05
-0.0003217
6.07e-05
-0.0001154
5.475e-05
-0.0001612
0.0002949
-0.0001337
-1.622e-05
1.622e-05
0.1925
-0.0059
0.0001943
-5.87e-05
-0.0001356
7.018e-05
-0.0001494
7.918e-05
1.3e-05
-2.929e-05
-0.0001704
1.569e-05
0.0001548
0.0001572
0.001661
-0.001818
-0.0001795
0.0001446
3.491e-05
-0.04144
0.03381
0.007628
5.136e-07
2.421e-06
-2.935e-06
-0.0001772
-0.0001528
-0.004637
0.001947
0.002689
-0.002758
0.0008728
0.001886
1.021
-1.194
0.1729
-6.292e-05
4.237e-05
2.055e-05
-0.0007957
0.0004206
0.0003751
-5.796e-05
-5.077e-05
-0.0002519
0.0004866
-0.0002346
0.1195
-0.1477
0.02825
-0.001801
-0.0009569
-0.1234
-0.002137
0.1255
-3.247e-05
3.919e-05
-6.719e-06
-4.258e-05
-2.034e-05
-0.0001604
-0.0002155
0.0003452
-0.0006191
0.0005231
-0.006896
0.006373
-0.0001777
0.0008051
0.0003009
-0.0002886
-0.004526
0.08572
-0.0812
-6.399e-06
5.341e-05
-4.701e-05
-4.19e-05
-6.818e-06
4.872e-05
-0.04354
0.03916
0.0007728
-0.0009084
0.0001355
4.141e-08
0.0001286
0.0003674
-0.000496
-1.47
1.198
0.2711
-1.464
1.194
0.2702
8.733e-07
1.524e-07
-1.026e-06
-0.1669
0.132
0.03496
0.2041
-0.03791
-0.1662
-0.05804
0.04905
0.00899
0.02703
-0.06962
0.04259
0.0001876
-0.0001567
-3.557e-08
3.557e-08
0.0002246
-0.000766
0.0005414
0.02638
-0.007761
-0.01862
0.002784
-0.0006494
-0.002134
0.02361
-0.0194
-0.2087
-0.002983
0.003035
-0.02161
0.01858
-0.0002803
0.0002099
7.047e-05
-0.06
0.2032
-0.1432
-8.148e-05
-9.805e-05
2.081e-06
-5.881e-05
5.673e-05
7.476e-07
-9.777e-07
2.301e-07
-4.342e-06
3.922e-06
4.203e-07
0.003515
-0.002115
-0.0014
-3.462e-05
0.0001206
-8.594e-05
0.02236
0.004024
-0.0006901
0.0002657
0.0004244
-0.4709
0.2222
0.2487
0.0006108
8.124e-05
2.265e-05
-2.422e-05
1.569e-06
5.631e-05
3.158e-05
-8.789e-05
-8.243e-06
6.749e-06
1.494e-06
-0.000127
0.0001971
0.0004268
-0.00139
2.957e-05
-3.048e-05
9.074e-07
0.0003381
-0.0003197
-1.838e-05
-0.0003157
8.225e-05
0.0002334
-0.0481
-0.07529
-0.001378
0.0005173
-3.356e-07
4.089e-07
-7.331e-08
-0.000191
-0.0001247
-0.02402
0.01895
0.005077
5.944e-05
0.0001349
2.387e-07
-2.387e-07
0.2255
-0.02138
-9.607e-05
2.045e-05
7.562e-05
-7.205e-05
3.015e-05
-2.515e-05
5.238e-05
-2.724e-05
0.0002753
-0.0001908
-8.45e-05
0.0001864
0.0001955
0.0003102
6.253e-05
-0.0003727
1.889e-07
1.028e-07
0.0006902
0.0003005
-0.0009907
9.705e-06
-8.778e-06
-9.266e-07
1.182e-06
-1.182e-06
0.197
-0.9677
0.7707
-0.000473
-0.001793
0.002266
-3.51e-05
8.606e-05
-5.096e-05
0.002267
-0.001074
-0.001194
-0.0003723
0.0001261
0.0002462
-0.0001009
0.00045
-0.0003491
0.000702
-0.0004096
-0.0002924
0.1163
-0.02853
5.446e-05
-0.0001877
0.0001332
-0.0001982
0.001453
-0.001254
-0.009172
-0.0006015
0.009774
0.0005972
-0.0003257
-0.0002715
-0.0655
0.09812
-0.03262
-0.0137
0.008611
-0.08776
0.04043
-4.648e-05
-0.0002053
0.0002518
-3.901e-06
-3.222e-05
3.612e-05
3.018e-05
-5.841e-05
2.823e-05
0.0001128
-0.000271
0.0001583
-0.0009977
-0.0008058
0.001803
0.002803
-0.005623
0.002819
-0.0001819
-5.466e-06
0.0001874
0.8563
0.1646
0.0004005
-0.0004983
9.777e-05
-0.0001011
4.984e-06
0.001086
-0.001846
0.0007599
6.007e-05
-6.647e-05
-0.0001191
-0.0001014
0.0006758
-0.0007824
0.0001066
-0.3776
-0.432
0.8096
0.0007889
0.00131
-0.002099
-0.5426
-0.3511
0.8938
0.04534
-0.01619
0.004454
-4.671e-05
-0.09028
-0.1662
0.2564
0.0449
0.1211
-0.166
9.066e-08
-2.846e-08
-6.22e-08
-0.0001376
0.0001127
2.488e-05
-0.07441
-0.1021
0.1765
0.0007874
-0.0005774
-0.00021
0.1731
-0.05364
-2.395e-05
0.00297
-0.002459
0.005497
-0.003038
-0.01112
-0.0129
0.001012
0.001388
-0.0024
-0.207
0.238
-0.03101
-0.0005247
0.0008945
-0.0003698
-0.0001083
-7.313e-05
0.0001814
1.114e-05
1.751e-06
-1.289e-05
0.0001071
0.0001682
0.003839
-0.001036
-7.675e-05
-0.0001253
0.000202
-0.004022
0.001181
0.002841
-0.001197
-0.001843
0.003041
0.003757
-0.003117
-4.681e-05
7.886e-05
-3.205e-05
0.0005647
0.0001139
-0.0006786
0.00254
0.0002438
-0.1836
0.1237
0.0003317
-6.418e-05
-0.0002675
-0.0032
0.003234
-3.406e-05
0.0009266
7.463e-05
-0.001001
-1.456e-07
4.969e-06
-4.824e-06
-0.000354
0.0002389
0.0001151
-0.8568
0.3141
-0.2577
0.1344
0.1233
0.0002842
0.0001221
-0.0004063
0.0005622
-0.0005457
-1.648e-05
-6.219e-05
-9.95e-05
0.0001617
0.01792
-0.009039
-0.008877
0.1922
-0.182
-0.01016
0.009209
-0.01245
-0.0001995
-1.234e-05
0.0002118
0.09504
-0.05313
-0.04191
0.001599
0.000668
0.0004432
-0.000159
7.999e-06
0.0002185
-0.0002265
-0.01636
0.03213
-0.01577
6.764e-06
-4.327e-05
3.65e-05
0.00036
-0.0001351
-0.0002249
-0.001729
0.0005236
0.001205
-0.0008404
0.0004959
0.0003445
0.1934
-0.1485
-0.005905
0.01766
-0.5004
-0.9691
-0.4983
-0.9655
-0.01099
0.001991
-0.001022
0.0008334
0.0001891
-0.004431
-0.0002057
-0.0003202
-0.0005202
-9.486e-06
-8.651e-05
9.599e-05
-0.01214
0.04617
0.002405
0.00111
3.661e-05
-1.836e-05
-1.825e-05
-7.019e-06
-3.263e-05
3.965e-05
-0.0005216
0.0001694
0.0003522
0.0002177
0.0005697
-4.6e-05
1.922e-05
2.677e-05
0.0001064
-0.0001317
2.524e-05
0.0002617
-0.0001868
-7.491e-05
1.825e-05
-7.721e-05
5.896e-05
-0.0003573
0.0002862
7.109e-05
0.0006108
-0.0006977
8.683e-05
-1.588e-06
5.59e-05
-5.431e-05
5.305e-05
-0.001308
-0.02751
0.02882
-6.111e-05
5.434e-05
6.771e-06
-0.0002879
-8.439e-05
-0.0002086
-0.001137
0.001346
0.301
-0.4091
0.1081
0.0003191
4.088e-05
0.0002431
-0.0004532
0.0002101
-0.001619
0.001444
-0.002933
-0.003472
0.006405
0.0005475
-0.0005709
2.335e-05
-5.178e-05
0.0004043
-0.0003526
0.3806
0.1363
-0.5169
-0.1189
-0.04805
-0.1713
0.2405
-0.06924
-2.066e-05
2.447e-05
-3.815e-06
0.4306
-0.8083
-0.001496
0.001594
-9.817e-05
0.05988
0.03516
8.311e-05
-0.0001182
3.936e-05
-0.0003254
0.0002861
0.1169
-0.1214
0.03051
-0.01363
-0.01689
-8.329e-05
0.0003552
-0.0002719
1.978e-07
1.618e-07
-3.596e-07
-0.0002066
0.0003887
-0.0001821
0.9199
-0.6892
-0.2307
0.001254
0.001982
-0.003235
2.176e-05
7.202e-05
-0.0003703
0.0002717
9.857e-05
0.006427
-0.004913
-0.001514
-0.08561
-0.02093
5.939e-06
8.127e-07
-6.752e-06
0.01592
-0.02031
0.00439
1.51e-06
-2.818e-05
-0.0003387
0.0004809
-0.0001422
9.096e-05
-0.0007206
0.0006297
0.2459
-0.2551
0.009165
0.005979
-0.005102
-0.0008771
3.777e-06
-1.587e-05
1.209e-05
0.000135
0.000328
-0.000463
-0.0003944
0.0004337
-3.937e-05
-7.204e-05
0.0001449
-7.288e-05
0.003974
0.002005
-0.0001701
0.0001449
-0.02272
0.02142
0.009338
-0.07484
3.095e-05
-5.05e-05
1.955e-05
-0.5076
0.03672
-0.0003451
-1.656e-05
0.0003617
-5.445e-05
2.199e-05
-0.0007449
0.01666
-0.004475
0.003553
0.0009215
-9.703e-05
0.0003629
-0.0002658
-0.002127
0.002102
2.462e-05
0.1112
0.4876
-0.5988
0.0002649
-0.0005168
-0.0002835
-0.0001968
0.0004803
-0.0003082
-3.338e-06
0.0003115
0.001253
0.008079
-2.455e-05
-0.0002774
0.000302
-0.001101
0.0007024
3.59e-05
6.68e-05
-0.0002938
0.0002484
4.539e-05
-0.0002162
3.429e-05
-0.0001444
0.002367
-0.002222
-0.0006553
0.0001137
0.0005417
-0.0001974
2.698e-05
-1.153e-05
1.071e-05
8.17e-07
-7.025e-05
7.514e-05
-4.895e-06
-0.6754
0.8724
0.00047
-0.000132
0.008021
-0.01075
0.002732
-0.003624
0.004091
-0.01231
0.0006793
0.01163
-3.595e-05
1.08e-05
-0.01102
-0.007346
0.01836
-1.274
1.436
-0.1617
9.458e-05
-9.558e-05
1.005e-06
-5.357e-05
-2.824e-05
8.181e-05
0.007174
0.01099
-0.01816
0.003154
-0.003045
-0.0001095
0.5725
-0.1919
0.001051
-0.002079
0.001029
-1.001e-05
4.309e-05
-3.308e-05
-0.06033
0.04647
-0.02552
-0.1814
0.7017
-0.6556
-0.04607
0.000412
-0.0004303
0.06626
-0.03025
-0.0003551
-0.0001195
0.0004745
0.05197
-0.05483
0.002857
1.859e-05
0.0001206
-0.009635
-0.1345
0.1441
0.000434
-0.0003177
-0.0001163
0.05467
-0.226
-0.0001456
-0.0001347
0.0002653
-0.0002912
2.585e-05
-0.0003948
0.0002316
0.0001632
-0.001362
0.003045
-0.001683
-1.194e-05
2.283e-05
-1.088e-05
-0.0196
0.008068
0.01153
0.0003128
-0.0001656
-0.0001472
0.0001611
5.104e-05
-0.0002121
4.719e-05
-5.34e-06
-4.185e-05
0.0003524
-8.601e-05
-0.0002663
0.0001429
0.007861
-0.008004
-0.002494
0.002151
-2.652e-05
1.101e-05
1.552e-05
0.0001002
0.0001032
-0.0002034
0.00183
-0.001621
-0.0002091
4.147e-06
-3.067e-05
0.3526
-0.9429
0.5903
0.1186
-0.0002555
-0.1184
-0.0002627
0.0001095
0.0001532
3.522e-05
-3.799e-05
2.771e-06
-1.54
0.1227
1.417
0.0004716
-0.0002844
-0.0001871
-0.002217
0.01151
-0.009294
0.005138
0.009019
4.915e-05
0.000513
0.03148
-0.01712
-0.01435
1.412
-0.2682
-1.143
4.885e-05
-0.0002511
0.0002023
-0.01155
0.009335
4.639e-05
-4.09e-05
-5.491e-06
-8.615e-05
5.853e-05
2.761e-05
9.093e-05
-6.498e-05
-2.594e-05
0.000363
-3.057e-05
-0.0003324
-4.004e-05
6.145e-06
3.389e-05
-0.0002057
-0.0001483
-0.0007279
7.727e-05
0.0006507
0.0009473
0.002207
0.0002225
-8.766e-05
-0.0001348
-0.1251
0.255
-0.1299
-9.957e-05
0.0001603
-0.1025
0.08375
0.0187
0.0007001
-0.0005744
-0.0001257
0.0004138
-0.0008412
6.496e-05
-5.643e-05
-8.527e-06
0.0002482
-0.001463
0.001215
-8.741e-09
-2.683e-08
-0.0001613
7.686e-05
8.447e-05
-0.0003844
0.0007579
-0.0003735
0.03091
-0.01855
-0.01237
0.001836
-0.002341
0.0005047
-0.2873
0.2318
0.0555
6.727e-05
2.366e-05
0.1163
0.002318
0.0001404
1.767e-05
-0.0001581
0.0004337
-0.0003051
-5.032e-08
5.032e-08
7.595e-08
-2.161e-08
-5.433e-08
7.994e-08
-7.393e-08
-6.012e-09
1.196
-0.8185
-0.3779
-3.063e-05
-3.048e-05
3.264e-05
0.0004535
-0.0004861
-0.1449
-0.1127
-0.0005481
-2.987e-06
0.0005511
-0.0002783
0.0008651
-0.0005868
-0.0001307
0.0001433
-1.263e-05
0.003454
-0.0003
-0.003154
-2.665e-06
0.000268
-0.0003384
-5.64e-05
0.0002859
0.0001856
8.29e-06
-7.686e-06
-6.035e-07
-0.4373
0.7899
-0.0002195
0.0001326
8.692e-05
-4.479e-08
4.194e-08
2.846e-09
0.0004051
-0.0004594
5.428e-05
0.000197
-4.426e-05
-0.0001527
4.33e-06
-3.816e-06
0.0637
-0.179
0.003444
-0.0008549
-0.05108
0.07811
-5.999e-05
0.0001602
0.04212
0.2468
-0.2889
-0.0001518
3.565e-05
0.0001162
-3.954e-05
-5.91e-05
9.865e-05
3.222e-05
-3.052e-05
-1.701e-06
1.526
-0.9023
-0.6241
-0.0002071
-5.564e-05
0.009569
0.003974
-0.01354
-9.224e-07
7.982e-07
1.242e-07
-0.000649
-2.729e-05
0.0006762
0.0001184
-8.202e-06
-0.0001102
0.0002654
-0.0001527
-0.0001127
-0.1071
0.1027
0.004431
1.537e-05
-6.742e-05
5.205e-05
0.0009297
0.0007147
-0.001644
-0.8036
-0.7361
0.002405
-0.004807
-5.03e-05
0.004857
-0.0002203
0.000112
0.0001874
0.0003601
2.691e-07
3.495e-05
3.482e-05
-5.48e-06
-2.934e-05
-0.0004352
9.655e-05
-0.003064
0.003674
-0.00061
0.0006954
1.635e-07
-0.0006956
9.973e-05
-0.0001975
9.781e-05
2.574e-05
6.884e-05
0.1127
0.05507
-0.1678
-3.931e-05
2.921e-05
1.009e-05
2.036e-05
-0.0001124
9.206e-05
0.0002339
-0.0002584
2.449e-05
0.0009346
-0.001982
0.001048
0.0001175
-0.0002138
9.633e-05
-0.791
0.1143
0.6767
-0.7882
0.6298
0.1585
0.002244
-0.01142
-4.311e-05
-2.886e-06
-0.000542
-0.001235
0.001777
0.1386
-0.2087
0.07008
1.472
-0.6489
-0.8235
-0.001478
0.002405
-0.0009269
0.0001766
-0.0002574
8.08e-05
-0.000448
0.0001742
0.0002739
-0.0007017
-2.625e-05
2.854e-05
2.389e-06
-3.093e-05
-8.914e-06
8.308e-06
6.06e-07
-0.003122
0.002984
0.0001384
-0.1409
0.1001
0.04084
1.401
-1.278
-0.1229
-3.684e-05
1.84e-05
1.844e-05
-8.127e-05
-0.0001729
0.0002542
0.0004942
-0.001514
0.00102
0.3135
0.5222
-0.8357
3.265e-06
6.44e-06
0.002297
-0.002678
0.000381
-6.701e-05
6.604e-05
9.668e-07
0.4879
-0.0001646
0.0001881
-2.349e-05
-0.0269
0.1655
0.0001772
-0.0002742
-9.966e-05
3.988e-05
5.979e-05
0.0008763
-0.0007553
-0.000121
0.9789
0.1618
-1.141
-1.027e-05
-3.991e-05
5.019e-05
0.0004174
0.0001798
-3.904e-05
2.283e-05
0.3909
1.021
0.0003499
-0.001204
-3.242e-06
-1.1e-06
0.3955
0.3062
-0.001713
-0.002761
-0.1643
0.00497
0.1594
-0.0002465
-0.0002842
0.0005307
0.0002323
-9.534e-05
-0.000137
-0.2801
0.1898
3.504e-05
-3.192e-05
-3.117e-06
0.0001406
0.0002546
-0.0003952
-6.813e-07
8.62e-06
-7.938e-06
-3.876e-05
-3.521e-05
7.397e-05
-4.41e-05
8.678e-06
3.542e-05
-0.0001042
-0.0002531
-0.0001226
-0.0002476
0.0001106
0.0001817
-0.0002922
0.0004211
-0.000449
0.0006065
-0.0008771
0.0003712
-0.0005728
0.0002016
6.827e-05
-7.714e-05
8.877e-06
-1.939e-05
3.241e-05
-1.302e-05
0.0001603
-0.0001194
-4.09e-05
-0.6001
0.9136
0.0004181
-0.0002907
-0.0001274
0.1084
-0.1943
0.08592
-0.0004928
-2.876e-05
-0.124
0.03468
0.08936
4.955e-05
-0.0001031
-0.3421
-0.9324
-0.1524
0.07797
-0.002578
-0.005126
0.007704
-0.0003232
-0.0003322
-0.0001286
-9.423e-05
0.0002228
-1.04
0.1279
0.9122
1.107
-0.899
-0.2081
4.678e-05
-1.721e-05
1.532e-05
7.222e-06
-2.254e-05
-1.752e-05
3.434e-05
-0.0002532
9.323e-05
0.00016
0.0006863
-0.0002241
-0.0004621
0.0002933
-0.0006483
-0.0002291
0.0003367
-0.0001076
-0.0007195
0.000436
-6.637e-05
3.374e-05
-1.739e-05
4.656e-05
-2.917e-05
-1.632e-05
-4.59e-06
2.091e-05
-1.16
0.1202
1.419e-05
3.31e-05
-4.729e-05
8.153e-06
-5.837e-05
5.022e-05
-3.054e-05
-0.005038
0.005068
0.009264
-0.005779
-0.003485
0.1783
-0.24
0.06166
1.03
0.4429
0.0003848
-0.0003768
-6.041e-06
-9.585e-05
6.59e-05
0.0001566
3.065e-06
-2.058e-06
-1.007e-06
-0.07613
-0.04791
-0.9853
-0.4034
1.389
-5.778e-05
-4.207e-05
9.985e-05
-6.33e-05
1.283e-06
6.202e-05
-0.0512
-0.006839
9.931e-06
1.199e-05
-2.192e-05
0.01456
-0.002206
-0.01235
-0.03564
0.08809
-0.05245
-5.971e-05
2.126e-05
3.845e-05
0.002319
-0.002858
0.0005386
-5.533e-05
6.349e-05
0.004566
-0.009265
0.004699
-2.417e-08
2.417e-08
-1.037e-05
2.13e-06
5.143e-05
0.0003009
0.0002299
8.287e-05
-7.269e-05
-6.492e-05
4.653e-05
1.889e-05
-6.542e-05
-0.0001584
-6.275e-06
-2.415e-05
4.448e-05
-2.032e-05
0.05631
0.006862
-0.06317
9.333e-05
-3.362e-05
-5.971e-05
2.151e-07
5.025e-06
-5.24e-06
-7.723e-05
-0.0002679
0.7436
-1.068
0.3247
0.0008199
-0.0001441
-0.004737
0.004155
0.0005818
0.001329
-0.003104
0.001775
1.077
0.4499
-0.02589
0.7695
4.62e-07
-4.667e-07
4.663e-09
0.0235
0.007407
0.0002125
-0.0003691
0.0001567
3.891e-05
-3.927e-05
3.597e-07
-0.0003112
0.0005492
-0.0002379
0.0003352
-3.542e-06
0.004022
0.002897
-0.006919
0.0001251
-6.881e-05
0.003506
-0.006609
0.003103
0.0006069
-0.0005182
-8.87e-05
-0.1494
-0.199
0.3484
1.05
-0.04437
-1.005
-0.002226
-0.0004531
0.002679
-0.001038
0.009059
7.009e-06
-2.767e-05
-0.001675
0.003004
0.0001953
-0.0002165
2.121e-05
0.0008012
-0.0002638
-0.0005374
0.0002096
0.0001209
-0.0003306
-0.02006
0.0231
0.00364
-0.006573
-1.125
-0.3861
1.511
-6.379e-05
0.0001195
-5.574e-05
0.02293
0.008549
-0.0006403
0.0004852
0.000155
4.035e-08
-0.002231
0.0006474
0.001584
-0.0004867
0.0004402
0.0001437
-0.0003503
1.258
-0.2788
-0.001439
0.001629
-0.0001903
-0.0002057
-0.0003137
0.0005194
-7.338e-06
7.582e-06
-2.444e-07
-0.0005297
-0.000353
0.0008827
0.0002202
1.992e-05
-0.0002402
-4.457e-05
-2.18e-05
-7.031e-05
0.0002111
-0.0001403
-0.0001535
0.0001034
-0.0003412
0.0002377
0.0004903
0.000272
-0.0007623
0.000378
-0.0004789
0.001031
-0.001753
0.0007224
-0.003411
0.0002112
7.342e-05
-0.0004022
0.003141
-0.006005
0.002863
-6.927e-08
6.927e-08
-0.001011
-0.003726
-0.06608
0.02464
0.0001419
-0.001101
0.0009589
0.0001691
0.0002992
-0.0004683
1.684e-06
0.0007091
-0.0007108
0.1017
0.372
-0.4737
-2.489e-05
1.842e-05
6.473e-06
8.207e-05
0.0005288
-0.000406
-4.203e-05
-1.511
0.5253
7.933e-07
2.272e-06
-8.798e-05
1.773e-05
0.0001633
-0.0001868
2.358e-05
-0.3881
-0.6377
1.026
2.724e-06
-2.688e-05
9.099e-05
-0.0001097
1.875e-05
1.5e-05
-4.649e-05
3.149e-05
1.589e-05
-6.627e-05
5.037e-05
-1.198
0.8101
-0.0004263
0.0002413
0.000185
-3.138e-07
-1.182e-06
1.496e-06
2.729e-05
-4.154e-05
1.425e-05
-0.0002913
0.0002927
-1.327e-06
-0.1578
0.06261
0.0952
2.519e-05
1.143e-05
8.031e-05
-0.0001346
5.429e-05
-0.1615
0.1677
-0.006222
0.002727
0.0005113
-0.003238
-0.003864
0.003782
8.203e-05
5.63e-05
-9.768e-06
-0.0001069
-5.446e-05
-0.002621
0.003802
-0.002523
0.0002914
-5.543e-06
-0.000108
0.0001135
-2.321e-05
5.339e-05
0.282
0.5871
-0.8691
-0.0002958
-0.0001305
-0.0003502
0.0006445
-0.0002943
5.305e-05
-5.381e-05
7.589e-07
-6.37e-05
-0.0002445
-0.01345
0.01173
0.001721
-0.0006782
0.0001301
8.086e-06
2.673e-05
1.028
-0.7464
2.177e-05
-0.0001525
-2.397e-05
-3.574e-05
-1.506e-05
-2.979e-05
4.485e-05
1.656e-07
-5.012e-07
4.46e-05
-5.965e-05
1.394e-05
1.828e-05
0.000156
2.657e-05
-0.0001826
0.0002231
-0.0001443
-7.881e-05
-0.004565
0.001182
0.003383
0.1728
1.024
-6.414e-09
6.414e-09
4.822e-05
6.271e-05
-0.0001109
3.789e-05
-7.665e-05
2.604e-05
-2.368e-05
-2.359e-06
-8.899e-05
0.0002474
-0.0001584
1.402e-05
-7.184e-05
5.782e-05
-0.0001024
1.567e-05
8.669e-05
-0.0002894
0.0002492
0.5594
0.8412
0.0001658
0.0003808
-0.0005466
-0.004454
0.001253
0.003201
-1.504
0.3789
-4.99e-05
8.478e-05
-3.488e-05
0.000153
0.0005471
0.001518
-0.0005917
0.0008427
0.0003233
-0.001166
0.1374
-1.017
0.8794
6.264e-05
-0.0002917
6.009e-05
-1.078e-05
-4.931e-05
-0.2745
-0.7143
0.8517
0.006761
0.002502
-0.0006198
0.0008647
-0.0002449
0.0003617
0.0003246
-8.324e-05
-4.445e-06
8.769e-05
-0.0004059
0.0003595
4.638e-05
2.871e-06
-1.808e-07
-2.69e-06
-0.004089
0.0009996
0.00309
-0.004019
0.00543
-0.001411
-0.7987
-0.2696
-0.0002426
6.065e-05
0.0001819
-0.0002359
0.0001162
0.0001198
0.0002161
-0.0001788
-3.723e-05
5.095e-05
-9.776e-05
0.001949
-0.001792
1.085
0.08586
-1.17
0.2752
-0.2115
0.07847
-0.1344
0.05597
-7.25e-06
1.852e-06
5.398e-06
0.04552
-0.8442
0.03294
-0.01816
-0.01478
-7.284e-05
0.0001493
-7.649e-05
-0.0007013
-0.0008313
0.001533
6.612e-05
2.723e-05
-9.335e-05
-0.2156
0.8472
-0.6316
-0.0001465
0.0001049
4.166e-05
-0.0003134
0.001741
-0.001427
-0.2385
-0.01764
0.2561
0.0001325
0.0001292
0.6918
0.4735
-1.165
-0.00037
-0.0002237
0.0005937
1.815e-06
-3.981e-06
2.166e-06
5.749e-05
-2.704e-05
-3.044e-05
-0.0003906
-0.0006783
0.001069
1.074e-05
7.488e-06
-1.823e-05
0.1858
-0.04875
-0.137
2.318e-05
1.816e-05
-4.134e-05
-0.009063
0.009184
-0.0001218
-0.0001179
-3.389e-05
9.838e-06
-3.986e-06
-5.852e-06
-0.0001127
-0.0001023
0.000215
0.000193
5.749e-05
-0.0002505
-0.007149
-0.0063
0.00538
-0.005944
0.0005645
0.001861
-0.0003559
-0.001505
3.23e-05
-3.23e-05
-0.3401
0.1971
0.1429
-0.001727
0.003318
-0.001591
0.0004856
-0.0003144
-0.0001712
-0.0001788
0.0003265
-0.0001476
-4.61e-06
4.825e-06
5.966e-05
-5.235e-05
-7.308e-06
-0.1177
1.202
0.0466
-0.0291
-0.0175
-2.613e-05
-1.071e-05
-0.0001081
4.262e-06
0.0001038
-2.987e-06
4.314e-06
-1.327e-06
-0.0004469
0.001161
-0.0007138
2.363e-06
-2.363e-06
-0.0002944
0.0003288
-3.437e-05
-1.685e-06
1.685e-06
-0.0001377
4.443e-05
9.328e-05
1.86e-05
1.105e-05
-2.965e-05
0.0004536
-0.0002878
2.072e-05
-1.464e-05
-6.081e-06
0.09792
-0.07383
-0.02409
0.001291
-0.0009844
-0.0003062
1.092
-1.516
0.424
1.318
-1.741
0.423
-4.701e-05
-0.0001141
0.0001611
-0.04317
0.09186
-0.04869
6.066e-05
8.306e-08
-6.075e-05
-0.003551
0.001563
0.001988
-0.001101
0.0001215
-0.007795
0.008792
-0.0009974
0.04636
-0.101
0.05459
-0.0005401
3.191e-05
0.0005082
0.000486
0.0007758
-0.001262
0.2518
-0.005864
-0.0006398
0.00096
-0.0003202
0.0001307
-0.0002409
0.0001103
0.09349
-0.04713
3.471e-05
-1.725e-05
-1.747e-05
5.568e-06
-5.568e-06
-7.939e-05
9.262e-06
7.013e-05
0.0008753
-0.002834
0.001958
8.622e-05
-3.917e-05
-4.706e-05
-3.805e-05
0.0001349
-9.682e-05
-7.538e-05
7.215e-05
3.232e-06
-0.3386
0.1236
0.215
7.635e-05
-1.139e-05
-0.0003152
-0.000325
-0.04958
0.3506
3.812e-05
-2.86e-05
0.0001718
-1.517e-05
-0.0001566
0.0004348
-0.0007244
0.0002896
-0.4775
-0.5495
1.027
0.218
0.001114
-0.2191
0.002149
-0.001645
-0.0005035
7.364e-07
4.368e-07
-1.173e-06
0.0001551
-0.002198
0.002043
-5.48e-06
5.48e-06
0.0004557
-0.0002374
-0.0002183
0.0007257
-0.0001881
-0.0005376
-0.001591
0.001452
0.0001391
1.36e-06
9.067e-07
-2.267e-06
5.327e-05
1.597e-05
-6.924e-05
-0.4118
1.373
-0.9611
-8.916e-05
0.0001224
-3.327e-05
0.005576
-0.0005641
-0.005011
-0.3003
1.332
-1.032
-0.000602
-0.0008321
0.001434
-2.112e-07
1.09e-07
1.021e-07
0.000974
0.001107
-0.002081
-6.569e-05
3.692e-05
2.877e-05
0.00662
-0.003744
-0.002876
0.001261
0.003152
-0.004414
-2.516e-07
-3.48e-07
5.996e-07
1.228e-05
-1.228e-05
0.0003124
0.0001353
-0.0004477
-0.08786
-0.05303
-0.4605
0.2237
0.2368
0.002854
-0.001088
-0.001766
-0.001389
0.001065
0.0003242
-3.785e-05
-6.909e-05
0.0001069
4.803e-05
-2.771e-05
-2.032e-05
-0.0005418
-0.0001707
0.0007125
0.0001737
-8.29e-05
-9.085e-05
-0.001517
0.001372
0.0001446
-0.009505
0.01718
-0.007675
6.735e-05
0.0001064
-0.03184
-0.01538
0.04722
1.759e-05
1.04e-06
-1.863e-05
0.1369
-0.5754
0.4386
-0.0001826
-0.0002827
0.0004653
-2.233e-06
9.74e-06
-7.507e-06
0.0002248
-0.0002745
4.971e-05
-9.798e-05
8.116e-05
1.681e-05
0.0003323
-0.0001636
-0.0001687
-0.3822
0.09697
0.2852
-0.1894
0.05604
0.1333
2.08e-05
-3.439e-05
1.359e-05
0.007828
-0.008897
0.001069
-6.416e-05
0.0001255
-6.133e-05
0.0002508
-0.0004274
0.0001766
3.094e-05
-6.103e-05
3.008e-05
-0.0004582
0.000453
5.211e-06
0.0003998
-0.0001166
-0.0002832
-0.0002353
0.0002242
1.113e-05
-8.627e-06
5.413e-05
-4.55e-05
4.268e-05
-4.268e-05
4.773e-07
-4.682e-05
4.634e-05
-2.009e-05
0.0001402
-0.0001201
-5.178e-05
4.291e-05
8.872e-06
-0.002755
0.004137
-0.001382
-0.0002848
0.0006358
-0.000351
0.0001213
0.0006516
9.829e-05
-0.0001016
3.267e-06
1.114e-07
-4.535e-06
4.424e-06
-1.646e-07
9.832e-08
6.624e-08
0.000403
-0.0001876
-0.0002154
-0.3193
0.421
0.5897
0.2176
-0.8073
0.0003531
-0.0004522
9.903e-05
-7.701e-05
-0.000213
0.00029
0.004865
-0.0008918
-0.003973
-0.1886
1.18
-0.9914
0.000277
0.0006118
-0.0008887
0.0003114
2.532e-05
-0.002547
-0.005795
0.008342
-3.7e-05
-2.326e-05
6.026e-05
0.0008904
-0.0006489
-0.0002415
9.786e-06
-3.968e-05
2.989e-05
0.002704
-0.003206
0.000502
0.7874
-0.6762
-0.008455
0.002835
0.00562
0.01237
0.000556
-0.01293
6.901e-05
-8.003e-06
-6.101e-05
2.405e-05
4.026e-05
-6.431e-05
0.0001059
-8.005e-05
-2.582e-05
-0.004425
0.001716
0.00271
0.0004766
-0.003557
0.003081
-1.234e-05
3.133e-05
-1.9e-05
-0.0003601
0.0005362
-0.0001761
-0.002042
-0.001345
0.003387
-0.0009516
0.0003664
0.0005852
-0.0006843
-0.0001502
0.0008346
0.001112
-0.0009036
-0.0002083
-0.0002151
0.0001851
2.995e-05
0.0001392
-9.949e-05
-3.968e-05
0.2601
-0.3211
0.06103
8.129e-06
-4.615e-06
-3.515e-06
1.936e-07
5.493e-07
-7.43e-07
-0.0005853
0.0002352
1.319e-06
-9.374e-05
9.243e-05
-4.979e-05
1.554e-05
0.0218
-0.1183
0.09655
7.381e-06
-7.381e-06
-4.68e-05
4.68e-05
-0.1667
-1.048
1.214
1.259
0.2309
-1.49
9.222e-05
-5.172e-05
-4.05e-05
-5.355e-05
0.0003124
-0.0002588
-1.056e-07
1.238e-07
-1.819e-08
-1.498e-05
9.277e-06
5.701e-06
-0.0001472
0.001438
-0.0003156
0.0004099
-9.429e-05
-4.623e-05
-4.801e-06
5.103e-05
-0.001101
-0.004223
0.005324
0.003649
0.005215
-0.008864
-0.1903
0.0631
0.1272
-4.533e-05
3.069e-05
1.464e-05
4.081e-05
0.0004096
-0.0004504
3.928e-05
-7.77e-05
3.842e-05
-0.004703
0.001036
0.003667
-1.197e-07
-8.607e-08
2.057e-07
-0.0002019
0.0002797
-7.783e-05
0.8159
-1.147
0.3315
-5.446e-05
5.446e-05
-0.0001297
8.444e-05
4.526e-05
0.1661
0.5629
-0.729
-4.35e-05
3.46e-06
-1.287
1.12
0.2422
-0.4268
0.1846
-0.002985
0.002086
0.0008984
-0.01127
-0.002169
0.01344
-5.032e-06
3.081e-06
1.951e-06
0.7811
-0.9464
0.1653
0.0002866
-0.0001521
-0.0001345
0.4756
-0.1358
-0.3398
0.0004602
-0.0008692
0.0004089
-0.01692
0.005586
0.01133
0.0009496
-0.0006517
-0.0002979
0.006231
-0.003263
-0.002968
-7.098e-05
-0.0002988
0.0003697
-0.0003182
-0.0001268
0.000445
-3.062e-05
-9.11e-06
3.973e-05
0.001532
0.0003365
-0.001868
0.1494
0.6508
-0.8002
0.01099
0.0611
-0.07209
0.0002902
-0.0001714
-0.0001188
-0.0001073
-0.0005407
0.000648
-2.792e-05
9.135e-05
-6.343e-05
-5.594e-05
3.129e-05
2.464e-05
2.42e-05
-1.45e-05
-9.695e-06
2.99e-05
7.54e-06
-3.744e-05
5.136e-06
-5.136e-06
4.297e-05
-7.819e-05
0.0007012
-0.0005142
-0.000187
4.344e-06
-4.959e-06
6.152e-07
-0.0003925
0.0002547
0.0001378
5.792e-05
2.618e-05
-8.41e-05
0.005395
-0.006343
0.0009479
-0.0004723
9.989e-05
0.0003724
0.4951
-0.3655
-0.1297
4.803e-05
-5.215e-05
4.125e-06
-1.796e-07
-1.001e-05
1.019e-05
-0.0001646
1.13e-06
0.0001635
0.496
-1.094
0.5978
-0.0003753
0.000127
0.0002482
-0.0005428
0.0002934
0.0002494
-0.001626
0.0004102
0.001216
0.001223
-0.0005583
-0.000665
1.477e-05
-7.286e-05
5.808e-05
0.001442
0.006801
-0.008243
-2.666e-05
3.047e-05
-3.807e-06
8.976e-05
0.000309
-0.0003988
-0.0008255
-0.0008008
2.042e-05
3.764e-05
-5.806e-05
-0.0002668
-4.007e-05
0.0003069
2.854e-06
6.984e-06
-1.181
0.5417
0.6393
0.002182
-0.004249
0.002068
4.245e-05
-1.528e-05
-2.717e-05
0.1291
0.05733
-0.1864
5.839e-05
-1.644e-05
-4.195e-05
-2.828e-05
-7.146e-06
3.543e-05
-1.247
1.247
0.001523
0.002376
-0.003899
9.426e-06
-1.242e-05
2.995e-06
0.06877
-0.05283
-0.01594
0.006565
-0.00117
1.852e-05
6.546e-05
-8.398e-05
7.639e-05
-1.812e-05
-5.827e-05
0.01242
-0.00958
-0.002842
-1.269
0.5234
0.7454
-4.799e-05
7.595e-05
-2.796e-05
2.613e-05
-6.242e-05
3.629e-05
0.4031
-0.2556
-0.1475
-0.008473
0.005829
0.002644
0.0007579
-0.03092
0.03016
0.000256
9.899e-05
-0.000355
4.449e-05
1.54e-05
-5.989e-05
-0.001536
-0.0007782
0.002314
-0.05393
-0.05419
0.1081
-6.134e-07
1.037e-06
-4.237e-07
9.771e-09
5.754e-08
-6.732e-08
0.0001078
0.0003103
0.0002042
-0.0006838
0.0004796
0.0004061
-0.0006214
0.0002153
1.412e-05
6.599e-06
-0.3925
1.239
-0.8469
0.0001407
-0.0007069
0.0005662
0.3496
-0.006774
-0.3428
-0.0001357
0.0001925
-5.677e-05
-0.0009669
0.0009552
1.179e-05
-3.465e-05
-4.497e-05
7.962e-05
0.0003234
0.0008999
-3.686e-06
3.842e-06
-1.561e-07
-8.044e-06
8.727e-06
-6.831e-07
-0.5585
0.2184
0.3401
-6.945e-07
6.945e-07
2.545e-05
-1.917e-05
-6.28e-06
-8.052e-06
3.071e-05
-2.266e-05
-0.001408
-0.0001586
0.001567
-0.0001423
0.0001967
0.0003191
0.0002164
-0.0005355
-0.0007759
0.0005109
0.0002651
-0.0001027
8.512e-05
1.759e-05
0.00159
-0.001111
-0.000479
-0.009932
0.02491
-0.01498
2.553e-06
-2.553e-06
0.0001893
-0.0002316
4.228e-05
-0.0004391
0.0001962
0.0002429
0.0001484
7.435e-05
-0.0002228
0.0008523