/*--------------------------------*- C++ -*----------------------------------*\
  =========                 |
  \\      /  F ield         | OpenFOAM: The Open Source CFD Toolbox
   \\    /   O peration     | Website:  https://openfoam.org
    \\  /    A nd           | Version:  8
     \\/     M anipulation  |
\*---------------------------------------------------------------------------*/
FoamFile
{
    version     2.0;
    format      ascii;
    class       volVectorField;
    location    "60";
    object      U;
}
// * * * * * * * * * * * * * * * * * * * * * * * * * * * * * * * * * * * * * //

dimensions      [0 1 -1 0 0 0 0];

internalField   nonuniform List<vector> 
127143
(
(0.0009149 -3.913e-05 0)
(-2.481e-05 -0.000123 -1.466e-24)
(-5.122e-05 -0.0002515 2.596e-24)
(-6.67e-05 -0.000305 -1.012e-27)
(0.006465 0.00202 -4.67e-23)
(-5.634e-05 -0.0003143 3.644e-27)
(0.01734 0.01106 0)
(0.009193 0.004224 -6.347e-23)
(0.007505 0.003624 2.095e-22)
(-0.001167 -4.102e-05 0)
(0.01791 0.02476 2.183e-22)
(0.01156 0.007695 2.273e-22)
(0.0001566 -5.923e-05 -5.138e-25)
(-8.683e-05 -0.0003437 0)
(0.06196 -0.03871 5.118e-21)
(0.02022 -0.001885 0)
(-0.0001144 -0.0005618 -4.202e-24)
(-0.01206 -0.07166 3.597e-20)
(-0.1615 0.006996 0)
(0.0316 0.009647 0)
(-0.1167 0.03109 2.415e-20)
(0.0003674 -0.0001703 0)
(0.9972 -0.1477 0)
(0.3504 -0.03406 0)
(0.0003365 -0.0001628 -4.856e-23)
(0.116 -0.01869 0)
(-0.01385 0.0001162 4.115e-21)
(-0.01388 -0.0002989 -6.171e-23)
(0.1278 -0.05544 0)
(0.3212 -0.08632 -1.539e-20)
(0.2768 -0.01728 0)
(0.1116 -0.01658 -1.694e-21)
(0.05992 0.01465 9.028e-22)
(-0.01353 0.003662 -5.293e-21)
(0.8824 -0.08315 2.116e-20)
(0.05836 0.01687 -2.454e-24)
(-0.1546 0.05644 8.301e-21)
(0.2849 0.0214 -1.009e-20)
(0.4358 -0.03938 -1.429e-21)
(0.1127 -0.003101 1.099e-25)
(-0.1624 0.00552 0)
(1.073 0.442 -5.952e-21)
(1.053 0.4308 4.537e-21)
(0.0003259 -0.0001112 0)
(-0.02634 -0.06708 -3.183e-20)
(-0.01408 0.003187 1.677e-21)
(0.1306 -0.05985 0)
(-0.1922 0.07271 -1.133e-21)
(0.4291 -0.07564 4.032e-22)
(0.4143 -0.03302 -8.749e-22)
(0.02408 -0.001705 -4.738e-23)
(0.981 -0.03579 3.266e-20)
(-0.04743 0.008037 0)
(1.157 0.1466 -8.098e-21)
(1.002 -0.000824 1.911e-20)
(0.3226 -0.08001 1.328e-22)
(1.002 -0.0008191 -1.718e-20)
(1.118 -0.08171 0)
(1.009 -0.007651 -1.307e-20)
(1.156 0.1478 -1.576e-20)
(0.5263 -0.07823 -6.411e-20)
(-0.1402 0.06487 -1.553e-21)
(0.7944 -0.05328 4.866e-21)
(1.001 0.0004549 3.458e-20)
(-0.03828 0.003261 0)
(0.8842 -0.2411 -5.855e-21)
(1.072 0.1391 2.715e-20)
(0.737 -0.05484 0)
(0.7481 -0.05429 1.337e-21)
(0.9906 -1.125e-05 0)
(0.3167 -0.02357 0)
(-0.01483 0.0001429 -1.936e-21)
(-0.1798 -0.03169 -8.206e-21)
(1.01 -0.007519 -7.25e-21)
(1.003 0.002644 -3.883e-22)
(-0.01495 -0.0002156 1.928e-21)
(1.006 0.03406 -1.254e-20)
(-0.1328 0.04696 0)
(0.3337 -0.08788 -2.158e-22)
(1 0.0005892 0)
(0.1242 -0.05736 7.354e-24)
(0.03477 0.008908 1.086e-23)
(-0.02504 0.005951 3.407e-21)
(0.1389 -0.009588 0)
(-0.1435 -0.007127 1.401e-21)
(-0.1499 0.05453 0)
(0.5175 -0.05065 -3.274e-21)
(0.003485 0.00101 1.281e-21)
(0.8833 -0.2386 0)
(0.9678 0.5857 0)
(1.003 -0.004734 0)
(1.176 0.04507 0)
(1.111 0.6755 0)
(-0.117 0.0312 -2.477e-20)
(-0.06277 0.01329 0)
(1.057 0.06197 2.195e-20)
(1.074 0.4342 1.243e-20)
(0.1947 -0.0139 0)
(-0.1362 0.04395 6.002e-21)
(1.069 0.1396 0)
(1 0.0005727 0)
(0.4536 -0.08221 0)
(0.5818 0.5388 -6.418e-22)
(1.091 -0.1249 0)
(-0.1535 0.05634 -2.729e-21)
(-0.1344 0.04334 8.543e-21)
(0.7416 -0.1158 -2.587e-21)
(0.9898 5.86e-05 0)
(0.7135 -0.279 0)
(1.002 -0.0006211 2.711e-20)
(0.07195 -0.04276 -1.642e-21)
(0.003582 0.0005984 2.454e-21)
(-0.09263 0.02211 -1.968e-20)
(0.253 0.49 0)
(0.9958 0.007982 1.515e-20)
(1.042 -0.1707 -4.657e-22)
(0.9871 0.03584 -9.206e-21)
(1.003 0.002753 -2.205e-20)
(1.007 0.03315 9.742e-21)
(-0.0007528 -0.003231 0)
(1.002 -0.0006616 -3.791e-20)
(-0.02707 0.00712 -8.393e-22)
(0.7791 -0.2874 0)
(1.095 -0.08962 1.512e-20)
(0.1304 -0.05778 3.086e-22)
(0.07922 -0.01018 -4.238e-21)
(-0.1436 0.05079 0)
(1.031 0.006501 9.327e-20)
(-0.06069 0.005449 -3.068e-21)
(0.3255 -0.09389 -4.513e-22)
(-0.08518 0.02574 0)
(-0.0631 0.01507 -6.679e-21)
(0.9499 -0.07989 -9.775e-21)
(-0.1347 0.04765 0)
(-0.0001708 -0.001018 -2.337e-23)
(-0.0878 0.02668 -3.621e-21)
(1.081 -0.03834 0)
(-0.1166 0.03162 5.68e-21)
(0.1601 -0.09063 -2.66e-21)
(1.099 0.003775 8.554e-21)
(0.9675 -0.1778 4.444e-21)
(0.9855 0.0242 5.075e-20)
(-0.04043 0.01545 8.645e-22)
(-0.06779 0.02458 -1.077e-20)
(-0.0445 0.007877 -3.075e-21)
(1.227 0.449 3.777e-21)
(-0.02507 0.1432 7.308e-22)
(1.001 0.0003949 -3.117e-20)
(-0.06074 0.01444 5.598e-21)
(0.4857 0.4222 -4.049e-22)
(1.088 -0.116 -3.617e-21)
(0.491 -0.09755 0)
(0.5989 0.05184 2.689e-20)
(0.8508 -0.1453 0)
(0.3082 -0.2139 0)
(-0.1457 -0.007014 0)
(1.118 -0.08076 -5.405e-21)
(0.3162 -0.111 0)
(-0.1925 0.07281 -2.109e-21)
(0.1695 -0.01521 9.663e-22)
(0.3487 -0.02151 0)
(0.0293 -0.01545 2.051e-21)
(1.003 -0.004391 -4.119e-23)
(-0.08616 0.02609 -9.039e-21)
(0.1891 -0.04871 0)
(-0.04215 0.003791 3.96e-21)
(-0.1264 0.04539 -4.404e-21)
(0.6974 -0.2396 1.419e-20)
(0.2446 0.0658 -2.39e-21)
(0.9418 0.04014 -6.579e-21)
(-0.01229 0.00313 0)
(-0.06884 0.02505 5.03e-21)
(1.033 -0.1812 -1.215e-21)
(0.9024 -0.2616 -1.485e-21)
(0.9784 -0.000504 3.704e-20)
(-0.06657 0.001937 7.153e-23)
(1.209 0.5127 -6.203e-22)
(-0.06095 0.005669 -3.031e-21)
(0.4024 -0.0406 0)
(1.006 -0.01714 4.613e-21)
(0.9014 -0.262 -5.128e-22)
(1.013 0.006546 0)
(-0.05002 -0.01451 9.697e-22)
(-0.06657 0.001095 -7.148e-23)
(0.3365 -0.09844 9.616e-22)
(-0.1379 0.0645 2.761e-21)
(1.013 0.2809 -4.358e-21)
(0.2711 0.5061 -4.324e-21)
(0.3778 -0.03704 -2.605e-21)
(1.025 -0.02541 4.173e-20)
(-0.07145 0.008604 1.826e-21)
(-0.06469 0.007076 -7.582e-21)
(1.079 -0.03752 6.837e-20)
(0.362 0.8591 -3.813e-22)
(-9.072e-05 -0.001052 3.897e-23)
(-0.1325 0.04104 0)
(1.003 1.03e-06 0)
(0.999 -1.333e-06 1.68e-22)
(0.01405 0.007639 0)
(0.9908 0.01125 4.628e-21)
(1.009 0.007112 2.46e-20)
(0.9346 -0.001335 1.033e-19)
(0.987 -0.04333 1.099e-20)
(-0.1611 0.05888 -4.133e-21)
(-0.0001185 -0.0006572 5.663e-25)
(0.6416 -0.0398 4.817e-21)
(1.022 -0.09696 -3.804e-21)
(1.004 -0.1785 3.866e-22)
(0.4377 -0.1101 1.157e-20)
(0.9959 0.007707 -7.826e-21)
(1.153 -0.01328 1.742e-20)
(-0.1252 -0.002131 8.995e-22)
(0.9967 -0.004832 7.425e-21)
(0.2564 0.06689 -2.555e-21)
(-0.06333 0.01923 3.281e-24)
(0.01883 0.001805 0)
(-0.01282 0.004284 -4.062e-22)
(0.9878 -0.1933 -1.193e-21)
(-0.08491 0.02229 -1.27e-20)
(1.024 -0.0957 -1.061e-21)
(1.201 0.5082 -1.228e-21)
(1.001 0.004211 -1.234e-20)
(0.4785 -0.094 2.468e-22)
(-0.01903 0.009054 3.416e-21)
(0.156 -0.01484 0)
(-0.02059 0.00683 0)
(0.2343 -0.05964 -2.627e-22)
(0.3422 0.03084 1.096e-20)
(-0.05895 0.0201 1.51e-21)
(-0.1493 0.05155 7.627e-21)
(-0.1129 0.02945 1.486e-20)
(1.014 0.005511 -1.314e-20)
(-0.1849 -0.03121 1.64e-20)
(-0.0001009 -0.007636 0)
(-0.1135 0.02954 0)
(1.081 -0.07544 1.553e-20)
(-0.08604 0.02629 4.334e-21)
(0.00229 -0.0003517 2.405e-23)
(1.01 0.006924 -2.284e-20)
(-0.06912 0.01141 1.001e-20)
(-0.06599 0.007203 7.18e-21)
(-0.0499 0.002868 -6.742e-21)
(-0.1517 0.04089 -5.852e-22)
(0.3278 -0.1163 4.705e-25)
(0.3893 0.04413 0)
(-0.0005999 -0.003333 1.815e-26)
(0.6276 -0.1277 -1.202e-21)
(-0.01425 0.0002798 0)
(-0.003182 0.0008777 5.358e-22)
(1.001 -3.477e-06 -8.614e-22)
(1.187 0.3656 -1.408e-20)
(0.1165 -0.013 2.924e-21)
(0.9452 -0.2231 0)
(-0.1047 0.02752 0)
(0.4335 -0.1047 9.736e-23)
(0.732 -0.2826 0)
(1.031 0.005976 -7.316e-20)
(0.4374 0.1407 0)
(0.9556 -0.2421 0)
(0.8625 0.2043 1.291e-20)
(-0.1265 0.03892 -8.071e-21)
(1.017 -0.01221 1.132e-20)
(1.172 0.04576 1.088e-22)
(0.985 0.02325 -4.086e-20)
(0.169 0.02071 0)
(-0.04605 0.003695 -2.109e-21)
(-0.04305 0.01416 5.744e-21)
(0.2681 -0.2022 0)
(0.5742 -0.1932 3.618e-20)
(1.184 0.1631 -5.286e-21)
(0.1985 -0.03519 0)
(0.9741 -0.001202 -4.468e-20)
(-0.1939 0.07116 -1.444e-21)
(-0.06991 0.01141 -1.041e-20)
(0.9412 -0.05995 7.783e-21)
(-0.07101 0.008635 -8.928e-21)
(-0.09383 0.02263 0)
(0.4992 -0.07911 3.391e-21)
(0.9542 -0.001628 -4.332e-22)
(0.9049 -0.2659 1.657e-21)
(1.003 -0.0002962 1.54e-22)
(1.055 0.06613 2.836e-21)
(1.092 -0.1245 -1.099e-23)
(0.9956 0.001759 0)
(1.002 0.009138 -5.483e-22)
(-0.0004138 -0.001057 -5.657e-24)
(-0.07835 0.02258 0)
(0.9959 0.008798 8.387e-21)
(0.4571 -0.06472 2.979e-21)
(1.005 -0.01716 5.752e-21)
(0.6543 0.04948 -3.674e-20)
(0.9894 -0.1854 0)
(1.08 -0.07637 -1.533e-20)
(1.017 -0.1967 0)
(0.9998 -0.00588 -3.228e-21)
(0.7014 -0.2931 -3.28e-22)
(0.2629 -0.02079 2.035e-21)
(0.01248 -0.03537 -7.943e-22)
(-0.1521 0.04137 2.256e-21)
(1.185 0.1629 3.757e-21)
(0.1909 -0.02094 -1.162e-21)
(0.9324 -0.2238 -6.356e-22)
(0.8035 -0.2339 -9.43e-21)
(1.041 -0.1702 4.496e-21)
(0.1484 -0.01079 0)
(0.499 -0.2897 3.609e-23)
(1.009 -0.1789 1.294e-22)
(0.9966 -0.005027 0)
(-0.03733 0.02807 -1.127e-23)
(1.021 -0.1066 -4.415e-21)
(0.6907 -0.109 -3.178e-21)
(0.01325 -0.03464 -7.967e-23)
(0.2961 -0.07224 0)
(1.002 -0.0004093 7.626e-22)
(0.993 0.001881 -1.932e-20)
(1.079 0.4551 5.287e-22)
(0.124 0.01874 5.403e-21)
(0.182 -0.01985 2.718e-21)
(1.164 0.06039 2.237e-20)
(0.8977 -0.01345 -1.812e-21)
(0.9958 -0.1465 0)
(0.3031 -0.02079 -3.374e-21)
(1.057 0.01621 2.126e-20)
(0.9441 -0.2222 -6.111e-23)
(1.06 0.4428 0)
(0.121 0.01834 -1.194e-20)
(0.9187 -0.04633 4.518e-20)
(0.05039 -0.01643 -5.981e-24)
(0.3285 -0.004446 1.947e-21)
(1.175 0.5708 5.72e-21)
(-0.1621 0.06718 0)
(1.002 0.00903 -2.129e-22)
(0.8876 -0.08404 -8.192e-20)
(1.003 7.616e-06 0)
(0.9989 -1.535e-06 0)
(0.8503 -0.1416 0)
(0.7253 -0.2802 -2.16e-21)
(1.033 -0.1814 -1.189e-21)
(-0.1625 0.06758 -2.074e-21)
(-0.07062 0.0198 -2.307e-20)
(1.096 0.001763 -3.873e-20)
(0.9879 -0.1935 0)
(-0.02747 0.008275 2.957e-21)
(-0.06995 0.008491 1.521e-21)
(0.2139 0.09286 -9.099e-23)
(0.448 -0.06235 -1.946e-21)
(-0.03742 0.009286 -3.577e-21)
(-0.07774 0.01689 6.139e-21)
(0.214 -0.02541 -2.271e-21)
(-0.05025 0.005896 0)
(0.227 -0.02478 1.872e-21)
(-0.08366 0.04193 6.445e-21)
(-0.08844 0.01817 -1.518e-21)
(-0.07067 0.008513 6.598e-21)
(0.9223 0.04049 0)
(-0.04151 0.01038 -9.251e-21)
(-0.1054 0.02763 -7.781e-21)
(1.225 0.417 -3.318e-21)
(1.003 -0.005186 4.51e-21)
(0.3144 -0.003753 0)
(-0.1906 0.06505 -2.133e-21)
(0.8326 -0.05587 1.423e-21)
(0.4272 -0.04551 -3.968e-20)
(0.4351 -0.03099 0)
(0.4198 -0.03526 -2.756e-21)
(1.002 0.002127 8.544e-23)
(0.9911 0.01102 -1.381e-20)
(0.894 -0.0003891 0)
(-0.02493 0.004555 1.777e-21)
(0.9601 -0.00117 0)
(0.4054 -0.06375 5.142e-20)
(1.057 0.01422 -4.571e-20)
(0.1432 -0.01566 -2.807e-21)
(0.4119 -0.02937 3.286e-21)
(1.025 -0.02402 0)
(1.136 0.05683 -5.139e-22)
(0.2861 -0.02485 2.366e-21)
(0.006208 -0.009501 2.2e-26)
(-0.1482 0.05124 -1.415e-20)
(0.9597 -0.004593 3.271e-21)
(0.3327 -0.004658 -5.564e-20)
(0.09205 -0.01187 4.268e-21)
(0.2427 -0.0308 0)
(0.9305 -0.2261 -2.708e-21)
(0.9876 0.03447 0)
(0.04539 -0.003285 0)
(0.9522 0.1417 0)
(0.1197 -0.003847 0)
(-0.1334 0.04099 -2.329e-21)
(0.1683 0.0139 -3.412e-20)
(1.01 -0.00572 -3.762e-20)
(0.7716 -0.2069 0)
(-0.03616 0.01184 1.056e-21)
(0.4361 -0.1119 1.872e-22)
(0.3749 -0.03375 5.25e-21)
(0.2611 -0.01665 2.169e-21)
(0.7761 -0.209 -7.921e-21)
(0.3006 -0.01847 0)
(0.9212 0.03877 0)
(1.016 -0.0126 0)
(0.1255 -0.01069 -6.532e-22)
(1.001 0.003998 4.544e-21)
(-0.1113 0.02801 0)
(-0.05337 -0.01393 0)
(0.9573 0.1437 0)
(1.044 -0.1261 2.732e-21)
(-0.1587 0.05855 -1.403e-20)
(0.9286 -0.08534 7.207e-21)
(1 0.0004688 -8.168e-20)
(0.434 -0.04487 0)
(0.713 -0.3123 0)
(0.2143 -0.02819 -2.644e-21)
(0.9688 -0.1765 -4.581e-21)
(-0.1894 0.07336 0)
(0.7939 -0.2918 0)
(-0.06441 0.01364 -6.172e-21)
(-0.1148 0.0334 -1.564e-20)
(0.1705 -0.03282 0)
(0.8941 0.09039 5.923e-21)
(0.5491 -0.2215 -1.078e-21)
(-0.1307 0.04751 0)
(-0.0138 0.004831 -1.523e-21)
(-0.05449 0.01599 0)
(1.003 0.0001931 -1.657e-22)
(-0.1489 0.05118 -9.433e-21)
(0.9138 0.2482 -5.582e-21)
(1.047 0.419 3.709e-22)
(0.9357 -0.1661 -7.193e-21)
(-0.05225 0.003483 6.837e-21)
(1.004 -0.1193 1.134e-21)
(1.003 -0.000158 0)
(-0.05498 0.01625 0)
(-0.08361 0.01788 0)
(1.168 -0.02144 1.063e-19)
(0.9551 0.1611 5.983e-22)
(1.002 0.002088 -3.133e-21)
(1.007 -0.1562 2.746e-21)
(-0.04042 0.009415 -6.674e-21)
(0.9817 -0.03461 -1.243e-20)
(0.9995 -0.005877 0)
(0.9989 -0.0009737 -3.66e-21)
(0.4432 -0.03544 1.416e-21)
(1.08 -0.04264 -2.387e-20)
(0.7261 -0.2862 3.12e-21)
(0.9614 0.02736 0)
(0.2072 -0.01502 -1.321e-22)
(0.991 0.0009128 4.365e-20)
(0.3682 -0.2512 0)
(0.8764 -0.004041 -1.897e-21)
(-0.125 -0.003593 8.812e-22)
(-0.1252 0.0363 0)
(0.2827 -0.0368 -8.733e-24)
(1.062 -0.1272 -7.585e-21)
(-0.02378 0.004154 1.008e-20)
(0.8618 0.07182 -1.038e-23)
(-0.1734 0.06162 -1.378e-21)
(0.1829 -0.02218 -1.195e-21)
(-0.05391 0.003727 0)
(-0.1777 0.06511 0)
(1.118 0.1212 3.857e-21)
(0.9747 -0.08353 3.277e-21)
(-0.007702 0.01112 7.668e-21)
(-0.03152 0.02735 0)
(0.3233 0.4539 -2.066e-20)
(-0.01961 0.01054 -5.571e-25)
(0.9935 -0.000683 0)
(1.002 0.02258 0)
(-0.08818 0.01941 0)
(-0.03501 0.009504 3.63e-21)
(0.9996 -0.0001145 0)
(-0.1423 0.04591 6.566e-21)
(1.174 0.06117 1.877e-20)
(1.096 -0.0881 -2.289e-20)
(0.1485 0.01859 -1.803e-21)
(1.026 -0.08081 -6.263e-21)
(1.003 -7.472e-05 0)
(0.2451 -0.1544 -1.452e-20)
(1.172 0.06129 -1.827e-20)
(-0.06045 0.02107 -9.464e-22)
(0.06939 0.01348 6.775e-22)
(0.124 -0.06544 2.288e-22)
(0.3638 -0.2516 -1.689e-21)
(-0.04349 0.006283 1.859e-21)
(0.2971 -0.07002 0)
(0.7171 -0.307 0)
(0.9796 0.1648 -5.941e-22)
(0.1598 0.01759 -4.703e-22)
(1.009 0.001985 2.991e-20)
(0.1964 -0.01681 -1.906e-21)
(0.9745 0.005986 3.817e-20)
(1.184 0.5118 1.887e-22)
(0.5547 -0.05491 2.881e-21)
(-0.05568 0.007626 0)
(1.229 0.4343 1.681e-21)
(-0.0002005 -0.001108 0)
(-0.07673 0.02377 9.974e-21)
(0.2779 0.2848 5.684e-21)
(1.103 -0.02957 -2.594e-22)
(0.9826 0.6819 5.486e-21)
(0.996 -0.003018 -5.088e-20)
(0.1212 -0.06811 0)
(1.003 0.02268 5.829e-24)
(-0.1436 0.04237 0)
(-0.1305 0.04066 -8.091e-21)
(-9.462e-05 -0.0005735 0)
(0.00111 0.0003253 3.312e-23)
(0.001252 -0.0004558 -1.032e-23)
(1 -0.0002733 -2.576e-20)
(-0.04269 0.01071 0)
(0.5357 0.1021 0)
(0.9933 0.002042 3.774e-20)
(-0.1845 0.06982 3.251e-21)
(0.7486 -0.2771 3.665e-21)
(-0.09637 0.03241 9.072e-21)
(1.062 -0.1538 0)
(-0.1236 0.03569 0)
(0.2771 -0.0341 -1.788e-21)
(-0.1423 0.04609 -6.687e-21)
(-0.008411 0.001589 4.269e-22)
(0.9986 -0.0004299 0)
(-0.1021 -0.01261 -1.217e-21)
(0.0003093 -0.000129 0)
(0.4948 -0.2024 6.851e-22)
(0.2081 -0.02028 8.301e-22)
(-0.01362 0.003292 3.779e-22)
(1.01 -0.007051 -1.129e-20)
(1.092 -0.1154 -3.92e-21)
(0.9926 -0.04359 -3.108e-21)
(-0.01898 0.02583 1.164e-20)
(1.001 -0.003529 0)
(0.1731 -0.01346 0)
(0.2966 0.1384 0)
(-0.04705 0.01583 -1.688e-21)
(0.9989 1.999e-05 0)
(-0.08836 0.01969 -6.668e-21)
(1.066 -0.1 -1.121e-20)
(0.002277 -0.002573 1.091e-25)
(0.6863 -0.3104 1.629e-21)
(0.229 0.0668 5.608e-22)
(-0.02195 0.02471 -3.971e-21)
(0.9731 -0.001159 2.485e-21)
(-0.08793 0.03112 -1.434e-21)
(0.8001 -0.3006 -2.319e-21)
(0.9995 -0.0001154 2.786e-21)
(0.9317 -0.2257 3.646e-21)
(0.9787 0.1004 -2.612e-20)
(0.2865 -0.02375 -1.85e-21)
(0.4482 -0.03052 2.135e-21)
(-0.03214 0.008739 -3.564e-21)
(-0.02939 0.01013 7.12e-22)
(-0.1325 0.04084 4.127e-21)
(1.125 0.1688 0)
(0.6022 -0.2399 9.409e-22)
(-0.1187 0.04235 0)
(-0.05766 0.01702 1.758e-22)
(1.016 -0.002034 -5.978e-21)
(0.1325 -0.004774 2.103e-22)
(-0.09098 0.02671 -5.65e-21)
(0.2061 -0.03288 3.163e-21)
(0.8809 -0.09457 -6.627e-21)
(-0.1725 0.05243 2.268e-21)
(1 0.001001 0)
(0.9998 0.001252 1.43e-20)
(0.8692 0.1959 -2.093e-20)
(-0.03622 0.008838 -1.709e-21)
(0.9601 0.7148 0)
(0.992 0.002486 -2.572e-20)
(1.003 1.574e-05 -4.268e-22)
(0.8116 -0.2922 0)
(0.3902 -0.1719 0)
(-0.1625 0.06029 4.409e-21)
(0.7157 -0.3076 0)
(-0.03384 0.01169 2.533e-21)
(-0.008719 0.002881 0)
(0.9863 -0.2177 8.172e-23)
(1.006 0.0294 0)
(1 -0.0003101 4.747e-21)
(-0.05227 0.01851 1.473e-21)
(-0.1329 0.04073 -6.017e-21)
(0.868 -0.2043 -1.994e-22)
(1.002 -0.0008169 7.86e-21)
(-0.0155 0.0003793 9.317e-22)
(0.9612 -0.09479 0)
(-0.05877 0.01654 6.44e-21)
(0.9596 -0.003361 8.906e-21)
(0.139 -0.01643 2.458e-22)
(0.9919 0.002241 4.727e-20)
(-0.1619 0.06014 -2.3e-21)
(-0.06072 -0.01697 0)
(0.1074 0.01912 6.693e-22)
(1.001 1.155e-05 1.431e-22)
(-0.05302 0.01799 -5.341e-21)
(-0.126 0.03859 -1.921e-21)
(0.05239 -0.03239 -2.893e-21)
(1.003 -6.89e-05 -1.169e-21)
(0.768 -0.1223 2.61e-21)
(-0.01299 0.004258 1.889e-22)
(0.9989 -0.001035 0)
(1.047 -0.1274 0)
(0.993 0.007253 -8.852e-22)
(0.5604 -0.03611 2.806e-21)
(0.09759 0.01593 0)
(0.9957 0.001608 2.617e-20)
(-0.02908 0.007383 8.072e-21)
(0.3209 -0.0442 1.513e-21)
(0.01159 -0.03694 0)
(-0.06732 0.01152 -1.006e-20)
(-0.01744 0.01507 -1.905e-21)
(0.2401 -0.02528 -5.605e-21)
(0.2509 -0.02932 -1.755e-21)
(0.2055 -0.05761 -1.926e-20)
(0.4625 -0.04314 -1.234e-21)
(1.13 0.6901 7.325e-22)
(0.477 -0.02127 -2.438e-21)
(-0.09945 0.02686 -1.724e-21)
(0.01379 0.0114 -3.652e-21)
(0.1677 -0.01504 9.303e-22)
(1.003 -0.000791 0)
(0.308 -0.06376 3.976e-22)
(0.9945 0.001838 -1.079e-20)
(0.2288 0.111 -1.545e-20)
(1.032 0.02084 3.601e-20)
(-0.03628 0.01539 1.234e-20)
(1.003 -0.0001855 0)
(0.9958 0.008628 2.123e-20)
(1.121 -0.08074 2.561e-20)
(0.5586 -0.226 5.594e-22)
(-0.1018 0.02631 9.752e-21)
(1.003 -0.0004015 6.994e-21)
(1.002 -0.001088 -1.107e-20)
(-0.06335 0.02128 -1.532e-21)
(0.03808 0.006634 0)
(-0.03005 0.007055 3.551e-21)
(0.2023 -0.01657 -3.177e-21)
(-0.1767 0.02339 0)
(0.7257 -0.2851 -2.862e-21)
(-0.1262 0.03665 -1.526e-21)
(0.7115 -0.3128 0)
(-0.06934 0.008505 -2.113e-22)
(-0.04618 0.01389 -1.567e-20)
(-0.03713 0.002885 0)
(1.003 -0.0004232 -1.245e-21)
(-0.04865 0.004092 6.949e-21)
(-0.06774 0.01001 7.888e-22)
(1.039 -0.1642 -1.141e-21)
(1.181 0.1146 0)
(1.002 -0.0034 -3.942e-21)
(1.003 1.807e-05 3.953e-23)
(0.1558 0.01899 -1.138e-20)
(0.186 -0.1053 2.669e-24)
(0.1592 0.01927 2.362e-21)
(-0.0068 0.002071 3.233e-22)
(1.031 0.02156 0)
(1.004 -1.783e-05 2.732e-23)
(-0.07706 0.02472 0)
(-0.05934 0.004822 0)
(0.9375 -0.001135 -8.208e-20)
(-0.03391 0.003915 -1.877e-21)
(1.034 -0.139 0)
(0.9972 0.01268 -1.512e-20)
(-0.03386 0.01029 5.899e-21)
(0.9711 -0.2323 -6.175e-23)
(-0.06609 0.00993 5.11e-21)
(0.8484 -0.1715 -3.066e-20)
(0.0003161 -9.958e-05 0)
(-0.02197 0.007102 0)
(-0.1787 0.06564 -1.219e-21)
(-0.1725 0.06202 2.583e-21)
(-0.07891 0.02241 0)
(-0.05617 0.008956 6.468e-21)
(0.1578 -0.02207 -5.475e-22)
(-0.0405 0.006396 0)
(0.9728 -0.02846 -8.458e-21)
(-0.06497 0.007223 1.349e-20)
(0.002928 -0.02326 0)
(-0.1119 0.02838 -1.23e-20)
(1.002 -0.0007855 2.533e-20)
(0.5323 -0.08262 -2.546e-21)
(0.8641 -0.2338 0)
(0.5656 -0.0005064 -2.634e-20)
(0.9989 6.278e-06 3.673e-23)
(1.002 -0.0008133 -3.375e-20)
(0.002868 -0.004894 0)
(1.103 -0.02732 -7.521e-21)
(0.3492 -0.06675 1.163e-21)
(-0.06198 0.007598 -4.429e-22)
(0.5207 -0.2932 0)
(-0.03859 0.0272 1.714e-20)
(1.17 0.1912 0)
(0.1768 -0.01454 9.239e-22)
(0.6926 -0.01877 4.293e-20)
(0.4435 -0.121 0)
(1.008 0.001766 -1.082e-20)
(1.003 -0.0004617 0)
(1.194 0.3901 0)
(0.9229 0.2498 0)
(-0.0276 0.005301 4.366e-22)
(0.5728 -0.01265 0)
(0.2447 -0.1005 1.909e-21)
(-0.1825 0.04808 0)
(0.4622 -0.1934 -1.516e-21)
(1.151 -0.01358 1.108e-19)
(0.48 -0.04753 5.616e-20)
(1.002 5.082e-05 -9.887e-23)
(0.23 -0.01478 -5.971e-22)
(1.028 -0.07994 -9.937e-22)
(0.402 -0.09395 7.739e-23)
(-0.0002235 -0.001163 5.541e-24)
(0.9437 -0.1486 8.823e-22)
(0.2155 0.03263 -1.516e-20)
(-0.1497 0.05206 1.418e-20)
(1.001 2.139e-05 -1.322e-22)
(0.8028 -0.08589 1.207e-22)
(0.4099 -0.03475 -3.628e-21)
(-0.01349 0.004621 0)
(-0.08745 -0.01066 1.011e-20)
(-0.06988 0.02832 6.974e-21)
(-0.06928 0.008627 -3.216e-21)
(0.5365 0.4587 0)
(-0.1141 0.03314 1.483e-20)
(0.4605 -0.2497 2.67e-21)
(-0.1531 0.04907 -1.784e-21)
(0.4787 -0.1176 1.408e-23)
(0.735 -0.07822 3.554e-21)
(1.033 -0.1081 2.096e-21)
(-0.1429 0.05078 5.595e-21)
(1.012 -0.1753 -2.049e-21)
(0.001181 -7.043e-05 0)
(0.8615 -0.2351 0)
(0.9422 0.03654 3.247e-20)
(0.7452 -0.171 1.456e-22)
(0.6813 -0.296 2.439e-21)
(0.561 -0.05833 -8.237e-22)
(1.005 -0.0003564 0)
(-0.02504 -0.01778 -8.916e-22)
(-0.07719 0.04233 -1.294e-20)
(-0.1638 0.0609 -4.116e-21)
(1.004 -2.86e-06 -9.028e-23)
(-0.006656 0.00248 0)
(-0.05764 0.01738 0)
(0.1395 -0.01828 4.148e-21)
(1.002 5.923e-05 5.245e-22)
(-0.03802 0.006158 3.854e-21)
(-0.1245 0.03901 0)
(-0.0419 0.007932 6.837e-21)
(-0.06697 0.006735 -5.053e-21)
(1.002 2.318e-06 -4.496e-22)
(-0.1677 0.0633 -6.802e-21)
(0.001631 -0.004736 0)
(-0.03079 0.008967 6.482e-21)
(-0.1035 0.02674 0)
(0.9896 0.01203 -5.481e-21)
(-0.02532 0.008378 2.694e-21)
(0.06066 0.08907 0)
(1.016 0.002647 -1.191e-20)
(0.9952 -0.1863 -1.209e-21)
(0.9945 -0.2044 0)
(-0.05768 0.008914 -6.65e-21)
(-0.07761 0.0237 0)
(0.9324 -0.2223 -2.127e-21)
(0.9321 -0.1471 0)
(0.1015 -0.0128 6.028e-22)
(-0.04796 0.01538 0)
(0.9994 -4.79e-06 -4.292e-22)
(-0.1679 0.06332 6.485e-21)
(-0.1639 0.07026 6.534e-22)
(0.1187 -0.009374 0)
(0.2345 -0.03269 2.003e-21)
(1.16 0.1407 0)
(-0.1838 0.06939 0)
(-0.03121 0.01078 1.841e-22)
(0.9992 1.399e-05 2.092e-22)
(-0.1005 0.03434 -9.132e-21)
(-0.03419 0.009913 0)
(0.05233 0.01085 0)
(0.0004235 -0.009048 -6.08e-24)
(0.06232 0.0124 -2.64e-21)
(-0.0478 0.01649 2.64e-21)
(-0.09185 0.02078 -2.372e-21)
(-0.1424 0.03189 0)
(0.9793 -0.2241 0)
(1 -0.0002628 1.26e-20)
(9.95e-05 -3.867e-05 -3.912e-24)
(-0.0851 0.02541 1.121e-20)
(-0.06928 0.01219 9.781e-21)
(-0.03825 0.01368 7.688e-22)
(-0.1833 0.06844 -8.52e-21)
(-0.0855 0.03037 5.714e-21)
(-0.07048 0.02326 -2.768e-21)
(0.3423 -0.02593 0)
(1 -0.0002898 0)
(-0.08576 0.02206 0)
(1.083 -0.1321 -1.935e-23)
(1.002 1.756e-05 0)
(-0.05737 0.01806 -8.821e-21)
(1.188 0.5115 0)
(0.7228 -0.1108 2.426e-21)
(0.793 -0.2843 -1.111e-21)
(1.003 -3.851e-05 -4.647e-21)
(-0.1279 0.03728 0)
(-0.06612 0.004819 0)
(1.008 0.002016 -3.486e-20)
(1.003 -4.321e-05 0)
(1.18 0.113 0)
(-0.1456 0.06688 5.681e-21)
(-0.1769 0.02452 -2.013e-21)
(-0.09097 0.03234 2.716e-21)
(-0.1651 0.06156 6.163e-21)
(0.03079 0.0006297 5.594e-24)
(1.068 -0.1402 0)
(0.7088 -0.1683 -2.328e-20)
(1.002 -0.0008237 0)
(-0.1223 0.04019 -6.92e-21)
(-0.1424 0.05159 0)
(0.2853 -0.01706 -1.807e-21)
(0.1668 -0.01345 0)
(0.6996 -0.237 -1.338e-20)
(1.004 -0.0002338 0)
(1.01 -0.0067 1.724e-21)
(0.9992 0.006998 2.578e-20)
(-0.01401 6.798e-05 1.006e-21)
(1.002 -0.0007732 4.452e-21)
(1.145 -0.02475 -4.314e-20)
(0.2166 -0.1305 5.257e-22)
(0.8117 -0.1041 4.688e-21)
(0.108 -0.01789 -2.069e-21)
(1.002 -0.00102 0)
(-0.1011 0.0001119 -1.563e-21)
(0.7964 -0.09644 -3.021e-21)
(1 0.005053 0)
(0.2186 -0.02576 2.098e-21)
(0.9997 -0.0001437 0)
(0.5793 -0.2965 4.203e-21)
(0.005958 0.002564 -1.768e-21)
(-0.05073 0.006058 -9.472e-23)
(0.4962 0.05953 0)
(0.09204 -0.002124 2.155e-22)
(1.003 -0.005536 6.307e-23)
(-0.03066 0.008246 0)
(0.8407 -0.1812 -8.071e-21)
(0.1787 -0.0129 0)
(0.01161 -0.02474 -7.238e-22)
(0.1658 -0.01975 9.442e-22)
(0.3926 0.5458 -1.017e-21)
(1.159 0.1424 -7.398e-21)
(1.016 -0.1846 1.179e-21)
(0.7686 -0.2733 5.416e-23)
(0.02983 -0.002096 0)
(0.9992 0.006001 0)
(0.5224 0.03095 2.36e-20)
(0.386 -0.1245 0)
(0.3834 0.0909 2.404e-22)
(0.00325 -0.02244 3.493e-22)
(0.06129 -0.01105 0)
(1.003 -0.0002185 0)
(1.089 -0.09442 3.797e-20)
(-0.05182 0.0177 -7.079e-22)
(0.1189 -0.02903 2.894e-24)
(-0.007865 0.0001507 3.645e-21)
(0.7056 0.1483 0)
(0.005231 -0.005309 -3.499e-22)
(0.3489 0.07216 -8.84e-22)
(0.002245 0.0002904 1.089e-21)
(-0.06462 0.01652 -5.276e-21)
(-0.04203 0.01471 1.637e-21)
(-0.07752 0.02269 6.124e-21)
(0.05086 -0.00378 7.464e-22)
(0.999 0.03488 6.531e-22)
(0.6582 -0.09571 0)
(1.003 2.754e-05 0)
(1.001 4.906e-06 0)
(-0.06304 0.01614 6.753e-21)
(1.035 0.0398 1.157e-21)
(-0.06929 0.007354 7.523e-21)
(-0.1974 -0.03861 -2.508e-20)
(0.2527 0.4591 0)
(1.108 -0.1035 -1.699e-20)
(1.045 -0.0329 -2.438e-20)
(0.963 0.4154 1.963e-21)
(0.7129 -0.1657 -1.798e-22)
(1.01 -0.005637 2.634e-20)
(0.07197 0.0261 1.948e-22)
(-0.1369 0.04965 -2.046e-21)
(1.043 -0.03123 3.324e-20)
(-0.02749 0.006398 -8.715e-21)
(-0.00564 0.002019 -6.448e-22)
(-0.04818 -0.01698 0)
(0.986 -0.2051 0)
(0.08137 -0.05608 -4.966e-21)
(-0.03702 0.02444 0)
(-0.07616 0.02692 0)
(0.9965 -0.001593 2.03e-20)
(-0.05202 0.007882 6.003e-21)
(0.4112 -0.09431 -6.97e-23)
(1.003 -0.005024 0)
(-0.03181 0.007959 4.038e-21)
(-0.09181 0.02684 0)
(-0.1281 0.0603 -2.928e-21)
(0.9997 -9.967e-05 1.285e-21)
(0.8646 -0.002192 4.38e-21)
(0.2052 0.006071 0)
(0.02297 0.0009793 1.104e-23)
(0.8459 -0.2839 -2.818e-21)
(-0.005572 0.00182 0)
(-0.1386 0.04276 7.415e-21)
(0.7116 -0.3124 0)
(0.7857 -0.1755 6.256e-23)
(-0.008283 0.002738 0)
(-0.05641 0.00395 1.718e-21)
(1.001 1.046e-05 -9.882e-23)
(0.1696 -0.0995 0)
(1.127 0.315 -9.012e-21)
(1.003 2.665e-05 0)
(0.7565 -0.2914 9.638e-23)
(0.001974 -0.0007614 4.64e-23)
(0.2823 0.001946 -7.27e-21)
(0.06993 0.01252 -4.848e-21)
(1.143 -0.05252 7.064e-21)
(1.05 -0.1653 8.43e-22)
(-0.002906 0.0008476 4.945e-26)
(0.01645 -0.001616 -1.431e-22)
(0.3434 -0.03759 0)
(1.005 0.02906 -3.124e-21)
(0.9976 0.002349 5.963e-21)
(0.9956 -0.1948 0)
(0.6796 -0.3008 -1.02e-21)
(-0.09473 0.03267 -1.189e-20)
(-0.03066 0.006959 0)
(0.2798 0.6709 -5.039e-21)
(0.2086 -0.08774 -1.048e-21)
(0.3376 -0.000205 -1.117e-22)
(1.12 0.1303 -1.704e-20)
(0.2041 -0.08526 -1.01e-21)
(1.104 0.004702 4.172e-20)
(-0.02187 0.001683 0)
(1.005 0.0003156 0)
(-0.1879 0.07192 5.943e-22)
(0.008886 -0.03467 -2.283e-23)
(-0.08179 0.02326 -1.599e-20)
(-0.05558 0.01646 0)
(-0.1331 0.04099 0)
(0.9967 0.000867 -1.758e-20)
(0.9862 -0.003378 1.202e-20)
(-0.04567 0.01611 0)
(0.9502 -0.1928 4.509e-21)
(-0.1089 0.0378 0)
(0.3768 -0.04775 0)
(-0.0704 0.02582 -2.719e-21)
(-0.1903 0.06022 -2.071e-21)
(0.3091 0.03272 -1.919e-21)
(0.1488 0.02845 -1.517e-21)
(-0.06279 0.005328 -8.052e-21)
(0.02889 -0.00432 -9.455e-22)
(-0.05119 0.008727 -6.067e-21)
(0.2433 -0.01676 1.224e-21)
(-0.03139 0.009415 5.37e-21)
(1.054 -0.1303 -5.745e-21)
(-0.1889 0.07184 5.704e-21)
(0.3806 0.8596 4.365e-22)
(-0.0861 0.03061 -1.668e-22)
(0.007099 -0.03225 9.893e-23)
(0.0009602 -0.0004125 0)
(-0.1317 0.04056 0)
(1.004 -0.0003365 0)
(1.004 -0.001681 1.684e-20)
(-0.1683 0.06443 4.692e-21)
(-0.1837 0.06394 0)
(1.038 -0.1676 7.294e-21)
(1.003 1.711e-05 0)
(0.6783 -0.3141 -2.86e-21)
(-0.1258 0.03657 7.884e-21)
(1.129 -0.07398 -2.093e-20)
(-0.07335 0.02526 0)
(0.2484 0.0268 -1.939e-20)
(-0.04093 0.01302 -6.348e-21)
(1.071 0.5702 -9.115e-21)
(0.9999 0.0004577 -5.147e-20)
(1.016 -0.1726 0)
(1.146 -0.03766 -1.279e-20)
(0.128 -0.05014 0)
(0.1525 -0.01117 0)
(-0.1063 0.03026 9.111e-22)
(0.7349 -0.2157 1.227e-20)
(0.5175 0.03199 4.116e-20)
(-0.02666 0.004814 0)
(0.3583 -0.03003 -1.133e-21)
(1.004 -0.07499 0)
(-0.1775 0.05399 0)
(0.6703 -0.3116 3.064e-21)
(0.5515 -0.06323 3.461e-21)
(-0.1288 0.04642 0)
(0.2015 -0.0875 -1.19e-21)
(1.005 -0.007601 -8.52e-22)
(-0.006552 0.002354 0)
(-0.00303 0.0007867 0)
(-0.1622 0.06979 0)
(-0.06848 0.01154 1.48e-20)
(0.05752 -0.03425 -6.923e-21)
(0.9998 0.01239 1.512e-21)
(-0.004195 0.001073 1.453e-21)
(0.03338 -0.006043 0)
(1.001 -0.000123 0)
(0.9998 -5.214e-05 -9.388e-21)
(-0.06389 0.007246 9.312e-25)
(-0.107 0.02763 3.177e-20)
(0.001073 -0.0004378 -4.675e-23)
(0.008516 -0.033 3.611e-22)
(0.6809 -0.09892 -6.725e-22)
(0.4524 -0.1685 0)
(-0.04218 0.01397 -5.873e-21)
(1.025 -0.1687 0)
(1.066 -0.1363 0)
(1.005 -0.004942 4.187e-21)
(-0.03512 0.01192 -8.73e-21)
(-0.1155 -0.02395 0)
(-0.05456 0.01884 -6.807e-21)
(1.002 -0.208 0)
(-0.001228 -0.0005707 2.042e-22)
(-0.1517 0.05587 -1.173e-20)
(1.001 -0.0006526 -4.962e-22)
(0.03146 -0.004243 0)
(-0.1131 0.03777 -4.875e-21)
(1 -0.0006535 -3.956e-20)
(-0.04467 0.006481 -3.016e-21)
(1.001 -0.0001275 -3.812e-21)
(0.9977 -0.002429 1.538e-20)
(0.9959 -0.1366 1.696e-21)
(1.005 -0.1486 0)
(-0.006588 0.000936 -5.245e-21)
(1 -0.00126 3.675e-21)
(0.2211 -0.02566 -2.695e-22)
(1.002 0.003898 0)
(1.162 0.5211 0)
(1.015 -0.1349 3.982e-21)
(0.06242 0.01397 7.142e-21)
(1.087 -0.1242 -4.232e-21)
(0.2973 -0.05911 -1.572e-22)
(0.3271 -0.04679 0)
(-0.03118 0.008993 1.193e-20)
(0.8952 -0.1 6.134e-21)
(1.002 -0.00179 3.955e-21)
(1.021 0.00781 3.329e-20)
(-0.0769 0.02234 7.955e-21)
(0.5522 -0.103 4.899e-22)
(-0.08572 0.03028 -6.829e-22)
(-0.04269 0.01411 0)
(0.07657 -0.004854 1.895e-25)
(-0.03404 0.01109 -3.122e-21)
(-0.003577 0.00116 -5.268e-21)
(-0.06509 0.01125 1.25e-20)
(0.4386 -0.1222 0)
(-0.001696 0.004559 -1.13e-20)
(0.2959 -0.03171 -5.643e-22)
(0.1008 -0.01446 0)
(0.8204 0.3637 3.368e-21)
(-0.04231 0.02838 0)
(1.002 -0.0052 2.872e-21)
(-0.03428 0.006854 1.384e-20)
(-0.02376 -0.006358 1.185e-21)
(0.1637 -0.02661 0)
(0.9974 3.355e-05 3.742e-21)
(0.3352 -0.2245 3.421e-21)
(-0.1355 0.04062 0)
(0.6877 -0.06465 5.557e-22)
(0.7385 -0.2056 1.734e-22)
(-0.0716 0.008001 -8.757e-22)
(1.078 -0.1321 -5.351e-21)
(-0.02126 0.004666 0)
(-0.1062 0.03548 5.318e-21)
(0.6955 -0.06561 1.666e-21)
(-0.07691 0.02455 -8.62e-23)
(0.2974 -0.08225 -7.286e-22)
(0.01217 -0.02563 7.562e-22)
(1.001 -0.0002844 0)
(1.052 -0.06934 -4.956e-21)
(-0.03515 0.006444 0)
(1.002 -0.006344 0)
(-0.04744 0.01045 0)
(-0.03905 0.004047 8.822e-22)
(0.9992 -9.414e-06 1.543e-21)
(0.9904 -0.2147 -4.156e-22)
(-0.02474 0.002485 0)
(1.035 -0.0175 0)
(0.8389 0.3659 -1.422e-20)
(0.001154 0.0209 0)
(0.04573 -0.01411 0)
(1.037 -0.1448 -7.646e-21)
(1.003 1.93e-05 -1.065e-22)
(-0.04968 0.0121 -1.833e-22)
(-0.05308 0.01547 -3.713e-22)
(1.01 -0.001583 2.199e-20)
(0.8948 0.3285 6.294e-21)
(1.036 0.07975 5.459e-21)
(-0.127 0.03696 1.172e-20)
(-0.04459 0.01206 -6.047e-21)
(1.026 -0.1813 -1.537e-21)
(1.045 -0.02732 0)
(-0.003546 -0.001066 -1.8e-22)
(-0.0003297 6.012e-05 1.699e-22)
(0.3199 -0.06825 1.541e-23)
(0.4174 -0.06688 -1.818e-21)
(-0.1508 0.05343 -3.601e-21)
(0.05095 -0.004268 0)
(0.9927 -3.34e-06 -3.708e-21)
(0.4988 -0.05346 3.413e-21)
(1.003 0.005117 1.418e-22)
(-0.1113 0.03431 0)
(0.6233 -0.3018 -3.11e-21)
(-0.05374 0.009707 0)
(0.7308 -0.2034 1.482e-21)
(0.01428 -0.01637 -1.947e-22)
(-0.009848 0.0015 0)
(0.9993 0.001859 -1.234e-20)
(-0.001446 0.0005299 0)
(-0.02058 0.006573 0)
(-0.02486 0.007135 3.099e-21)
(0.8309 -0.06908 5.112e-21)
(0.4872 0.154 0)
(-0.1208 0.03965 -4.907e-21)
(-0.05564 -0.007414 1.06e-20)
(0.1361 -0.009808 0)
(0.7689 -0.108 0)
(0.8868 -0.004243 -7.764e-20)
(0.007703 -0.0003864 1.75e-22)