/*--------------------------------*- C++ -*----------------------------------*\
  =========                 |
  \\      /  F ield         | OpenFOAM: The Open Source CFD Toolbox
   \\    /   O peration     | Website:  https://openfoam.org
    \\  /    A nd           | Version:  8
     \\/     M anipulation  |
\*---------------------------------------------------------------------------*/
FoamFile
{
    version     2.0;
    format      ascii;
    class       volScalarField;
    location    "15";
    object      epsilon;
}
// * * * * * * * * * * * * * * * * * * * * * * * * * * * * * * * * * * * * * //

dimensions      [0 2 -3 0 0 0 0];

internalField   nonuniform List<scalar> 
63564
(
38.15
7.649
12.42
8.229
8.198
40.74
31.16
7.341
10.54
10.01
0.07709
0.11
10.78
0.3769
3.03
3.087
10.39
10.35
0.8879
2.216
0.279
0.363
2.101
0.1097
15.42
0.07778
2.155
0.1919
0.5882
10.06
0.8269
0.2286
0.2269
0.1496
0.3358
2.629
0.06463
0.3601
0.3541
0.7404
10.33
0.1294
9.618
0.2677
9.599
1.331
1.708
0.1582
0.2457
17.18
0.1448
0.3758
0.7442
1.122
0.2482
0.06307
0.2399
0.2522
17.18
0.5107
1.489
1.127
0.1881
1.298
0.3672
0.6429
0.2641
3.249
0.3607
0.03616
0.3541
0.038
0.6056
0.37
0.8189
0.6572
0.3575
0.1564
0.1898
1.331
0.7195
0.3661
2.408
0.317
0.6738
0.3686
0.2695
1.29
0.2808
0.2679
0.1479
0.8623
1.128
0.03511
4.014
0.223
22.14
0.2679
5.072
0.4152
0.0762
0.1787
0.4557
17.08
1.032
0.4779
0.8168
1.435
0.7196
0.3597
0.5199
0.2082
0.3981
0.1256
3.968
0.3951
0.3659
35.71
0.7702
1.105
2.467
0.216
0.6143
1.476
10.95
5.796
1.73
0.398
0.2439
0.1421
0.8868
2.417
0.5245
0.5473
0.1719
0.7744
0.2826
0.8504
0.5053
3.528
0.4444
0.3492
0.8752
0.8128
0.216
0.5314
1.543
0.1552
0.9162
0.4121
0.1273
0.7995
0.532
1.636
0.7552
0.167
0.1669
0.4834
0.03677
0.7605
0.8388
0.9158
0.6444
1.564
0.1109
0.2717
0.8473
0.8116
0.3989
0.7795
0.1564
0.3198
0.08288
0.5745
0.5825
1.617
0.593
0.07599
3.939
0.2238
0.1227
5.089
1.971
0.2292
0.2227
0.5837
0.8974
0.8151
1.918
0.4143
0.2736
0.2302
0.1835
0.7322
0.3297
0.4582
0.308
2.067
0.5265
0.211
2.322
0.5099
0.2855
0.08544
1.142
0.9087
0.5518
0.03689
1.071
0.1786
0.3212
1.862
0.2529
2.265
0.2392
0.4104
1.063
0.234
1.08
0.538
0.8523
0.2308
0.1592
0.4043
0.1552
0.5883
0.6871
1.304
1.117
0.6254
1.151
0.8929
2.794
0.3888
0.2413
0.2198
7.31
1.359
6.385
0.7981
2.171
0.1513
0.3233
0.3264
0.2305
3.789
0.1978
3.788
0.6298
0.2304
1.234
0.5979
0.5382
0.8033
0.1876
0.4528
0.4264
0.8041
0.5592
0.8945
0.7559
0.2259
0.7576
0.2972
0.4943
1.768
0.3885
0.2037
0.938
0.2289
0.8542
2.115
0.6312
0.2635
10.74
0.5546
0.2239
0.2641
0.1988
0.5026
0.2443
1.024
0.4594
0.5871
1.094
1.222
0.8756
0.5765
0.5525
0.2869
0.9312
0.5955
0.436
0.4956
11.63
1.139
0.1376
0.3155
0.8308
0.5784
3.002
2.066
0.7874
0.3143
0.5244
0.6237
1.806
0.3687
1.704
2.26
0.7343
0.7785
20.34
0.6828
0.2361
0.2537
0.4396
1.047
1.27
1.17
0.4383
0.4082
1.796
1.066
0.1563
0.4676
1.264
2.046
1.488
0.1391
0.07394
0.08217
1.044
3.206
0.8711
0.2193
1.802
0.09505
0.2827
0.8278
0.3315
0.122
0.1859
43.32
0.334
0.1104
0.2262
1.853
0.5014
1.321
0.2863
1.065
1.314
0.2059
0.605
0.9165
0.4165
0.7601
1.022
0.3849
0.4824
0.2066
0.1418
2.028
0.2303
0.1497
0.7259
0.3141
0.7214
0.6725
5.275
0.6694
0.5826
0.5582
0.2072
16.33
0.3933
0.856
0.8055
0.2221
0.4232
0.3906
0.679
0.1043
0.4454
0.3092
0.278
0.312
0.1494
0.1377
0.4195
0.2211
9.493
0.2727
0.2952
0.8647
1.337
11.48
0.06749
0.2093
1.251
0.7011
2.661
0.9228
1.183
0.5236
0.2299
0.268
0.4417
0.05143
0.6384
14.11
2.864
4.722
51.8
0.5892
0.7487
0.1036
4.709
0.6068
1.024
0.1203
0.1031
0.2827
1.218
5.851
0.3082
0.3226
0.4948
0.8877
0.9594
0.3791
0.1486
0.105
13.17
7.215
0.2439
1.122
2.039
0.661
3.875
0.1589
4.335
0.1996
1.411
12.72
0.344
1.148
0.8452
0.1043
0.0412
5.874
0.1972
1.655
0.4525
0.5628
0.2612
0.7001
0.3775
0.5254
0.1616
0.5911
2.142
1.686
0.751
0.9959
0.815
0.1605
0.4133
1.731
2.757
0.2637
0.1955
0.2212
0.3172
0.489
0.5247
0.5659
0.1335
1.591
0.291
0.2428
1.665
0.2636
0.1344
0.3142
2.709
1.16
0.1404
0.8802
4.894
0.9397
0.4164
3.747
0.5231
0.5791
0.6622
0.1809
0.478
0.8672
0.2564
0.3297
1.27
11.81
0.09736
0.7404
0.459
0.4297
0.5545
2.912
0.6402
3.782
0.8969
3.671
0.1041
1.172
0.3536
0.2496
0.8933
1.688
0.2094
0.3902
0.534
0.245
1.205
0.8598
2.235
0.4141
0.323
1.267
0.7361
0.5426
0.3081
0.6957
0.6449
2.214
0.1978
4.489
0.3018
0.947
0.6874
3.94
3.261
0.9665
1.008
0.2005
0.09456
1.676
9.326
0.2464
0.6529
0.8424
1.264
0.3419
0.7189
0.1583
4.692
0.4667
4.602
0.2062
6.551
0.6792
12.31
0.6093
1.263
0.303
10.9
0.1034
1.832
0.1854
4.583
1.345
1.189
0.0739
0.5581
0.4318
0.3884
0.1429
1.383
0.1781
0.1593
0.4224
4.781
10.29
1.448
0.3342
0.3016
0.1655
0.939
0.4224
1.018
1.687
0.6619
0.4889
1.2
0.1217
0.5694
0.5894
0.319
16.34
0.8396
0.3069
24.97
0.2529
0.4629
0.2057
0.1215
0.07467
0.3435
0.1722
2.407
0.3249
0.4754
0.8744
0.2026
0.4253
0.1703
0.3558
0.3158
0.519
0.1165
0.4501
0.1487
0.1838
0.1228
0.609
0.2953
12.45
0.5635
0.6956
0.5381
0.3208
1.068
2.421
2.978
0.3549
2.121
0.1216
1.198
0.1425
0.338
0.4421
0.1387
0.1391
4.506
0.3699
0.7541
6.178
0.4769
0.5113
67.76
0.4246
0.4426
0.6546
0.4392
0.1705
0.2896
0.1999
0.1513
2.814
0.3218
0.5867
0.1003
0.9936
0.3895
7.513
1.512
1.319
0.3575
0.09156
2.243
0.2097
0.763
1.986
0.8982
0.9408
0.1154
58.05
0.4216
0.3376
0.06697
0.1211
0.1629
1.648
0.3382
2.529
0.9239
0.2103
0.3495
0.3637
0.7505
0.2792
3.015
0.07084
0.2057
0.3944
0.9503
0.07395
0.8414
11.64
0.0798
5.355
0.3086
1.799
3.059
0.1979
0.3427
0.533
1.322
0.3104
1.159
1.829
1.252
51.6
0.4456
0.1801
1.985
0.9638
0.1265
0.2616
4.549
0.8292
0.6733
0.244
1.111
0.6393
0.2458
1.553
1.071
1.943
0.692
0.8287
0.2759
0.2052
1.08
1.104
0.1059
0.9037
4.114
0.4113
0.9212
0.88
0.2939
0.5981
0.6895
0.5288
0.1485
0.7601
2.929
0.1413
1.618
1.159
2.837
0.4098
0.1338
0.1256
0.3145
0.1127
0.6797
0.2672
0.2635
0.7462
1.452
0.04467
0.1959
0.3131
0.8338
0.1046
0.7592
0.3406
0.2865
0.6124
0.2122
0.2568
5.928
0.292
0.9766
0.1867
0.2434
0.917
7.464
4.478
0.4793
3.378
0.162
3.626
0.1508
4.526
0.3199
2.089
0.1964
2.308
1
1.778
16
0.4559
0.3319
0.8447
0.1764
0.2074
1.226
0.4366
0.4421
3.256
0.2727
0.3248
0.4018
0.04731
0.4424
0.1162
0.4976
1.66
0.2473
0.8016
1.338
0.4371
12.35
0.2014
0.1574
1.24
0.1636
0.1505
1.318
0.2048
0.1337
0.03628
0.1012
0.184
13.69
0.2874
0.3227
1.285
0.3829
0.4365
3.335
1.936
8.649
0.1644
0.8998
0.1031
0.3086
19.96
0.2043
0.03702
2.528
0.3119
0.2116
0.1672
5.549
0.1369
0.3311
0.16
0.8141
0.4821
1.028
2.755
0.1207
0.07787
2.612
0.4405
1.229
0.839
0.1658
0.2862
0.2528
1.425
0.3403
0.6234
0.3658
0.1023
0.272
0.09607
4.177
0.3394
0.2358
0.2783
0.1446
0.4433
0.07869
4.172
0.801
0.182
0.1975
0.5564
0.7713
0.1382
2.788
0.6498
0.2619
0.8945
0.1206
1.763
0.5039
5.905
0.1525
0.7667
0.1716
0.1618
50.69
0.2285
0.7961
0.6826
0.8494
0.2668
0.182
0.2387
0.06034
0.537
0.5473
0.9266
0.417
1.194
0.5816
2.694
1.444
0.5603
0.3666
3.237
1.139
0.359
0.2085
0.5431
0.8352
0.5927
0.2645
0.1756
0.4782
0.363
0.3302
0.5496
0.6326
1.439
0.1685
0.1344
0.5509
1.463
1.422
0.5496
1.19
8.018
0.213
0.2609
16.01
0.4185
0.2828
0.1066
0.463
0.6957
0.1448
0.08367
5.153
0.5356
0.1758
0.1242
7.71
0.7259
0.6162
0.2534
0.5527
1.209
0.1246
1.014
0.6934
3.892
0.2376
1.352
0.1032
0.0712
3.783
0.1487
0.7332
0.1936
0.46
4.44
0.3838
0.4298
0.1659
4.192
0.3844
0.3869
2.163
0.2284
1.907
3.482
1.073
0.259
1.026
1.007
0.2784
0.401
0.1073
0.2484
0.4955
1.079
0.8657
4.645
0.21
1.239
0.3387
0.1679
0.4511
0.4808
0.579
0.3729
0.4389
2.419
1.446
2.157
1.191
0.1766
1.697
0.2749
0.7171
1.851
0.1621
0.03739
0.8352
0.2363
0.9432
40.18
0.2673
0.5609
3.882
0.4216
3.911
0.7059
0.8559
0.3993
0.5464
5.269
0.6447
1.054
0.1206
0.236
0.2203
0.4185
0.4287
3.843
0.5695
0.2539
0.8423
2.554
0.9269
0.3935
0.6256
0.4583
2.246
0.3955
0.2793
2.298
1.107
0.3261
0.3124
0.3256
2.133
0.04672
0.7423
0.5174
0.4701
0.1802
0.1674
0.5317
1.071
0.3133
1.391
0.1937
0.1379
0.2273
0.3051
14.37
0.1408
0.2053
1.392
0.2254
0.4507
0.155
5.129
9.015
4.918
9.211
0.1732
0.3081
0.1553
5.001
3.632
0.405
7.682
0.6396
6.065
0.3416
0.2964
4.482
0.1285
0.918
0.1043
0.3599
0.7893
1.567
0.1188
1.134
1.09
0.1666
0.6314
0.4475
0.2866
0.8507
0.8695
0.5885
0.81
4.341
15.4
10.53
0.4461
6.224
1.634
1.213
0.556
1.2
0.1645
0.3241
2.01
0.219
0.3481
9.215
0.2816
0.3732
0.3118
0.2295
0.1149
0.4373
0.07903
1.646
1.435
3.576
7.589
0.2203
0.1251
0.6133
0.6055
0.2491
6.175
3.583
0.3109
1.217
0.1477
0.1693
5.953
0.1691
1.333
0.484
0.2117
0.3466
0.6038
0.06694
0.3776
2.966
6.077
0.1339
6.076
0.1419
0.04096
4.073
0.5526
1.877
0.1684
0.522
0.4776
0.1711
2.049
0.1656
13.2
0.9941
0.3366
0.3474
1.801
0.6703
0.121
2.013
0.1207
0.451
0.2192
0.5988
0.1574
0.2496
0.5672
1.04
1.468
0.2975
0.9635
1.509
1.653
1.656
0.7998
0.1914
1.35
0.2463
0.9487
1.569
0.7713
0.784
0.6508
0.09923
0.6317
3.861
0.5296
0.7987
0.6453
0.513
0.9384
0.296
0.8712
0.2328
0.2992
11.18
2.785
2.367
0.2675
0.3646
6.263
0.2518
0.4877
0.1403
0.3653
0.4491
0.4507
0.3551
5.867
0.5186
17.21
0.2046
1.897
1.274
0.9875
2.946
2.463
0.3743
0.5353
0.4782
0.1166
0.4231
0.2002
0.4826
27.69
0.09246
0.8983
2.957
0.1728
0.2056
4.777
1.968
0.3824
3.684
0.2212
0.7573
0.5233
0.09515
0.3574
0.3737
0.1253
0.2409
0.7559
0.1295
0.9832
4.143
1.527
0.07066
5.358
0.5858
1.063
0.1156
4.306
0.2629
0.067
1.06
0.823
0.377
0.2055
1.541
0.2438
0.4024
0.7447
0.1248
0.6183
0.4601
1.012
5.848
0.2385
0.5632
0.8027
0.05392
0.3032
4.923
0.832
0.1404
1.017
0.4515
0.3946
1.056
0.2964
1.605
0.3406
0.1925
1.008
1.77
0.6074
0.8539
1.559
3.589
0.1847
0.06707
0.3104
0.6056
0.5634
0.1566
4.295
3.298
0.9617
1.043
0.124
0.4366
1.09
2.092
0.5324
0.312
0.3614
0.9152
0.3871
0.1567
0.4216
0.5439
0.4374
2.282
10.39
4.67
0.4398
0.9386
0.6724
1.982
0.129
3.224
1.859
0.2214
0.157
11.81
0.9129
0.2211
0.5383
0.5565
6.009
0.2728
0.3563
0.295
1.13
0.6196
0.5526
0.1494
0.1537
0.132
0.7499
0.9299
0.2316
0.1692
1.003
0.4194
4.43
0.2694
0.3597
2.019
4.691
0.3801
0.769
0.9208
0.8284
0.8474
0.03869
0.1954
0.2064
0.3724
0.08053
8.025
0.5627
0.6971
0.7996
0.6008
0.9417
0.7639
0.4729
1.002
1.372
0.168
1.098
0.8314
5.98
1.566
0.2533
0.1601
1.645
0.1241
0.2188
0.9506
0.473
0.849
0.6053
1.232
0.07826
0.1117
0.3208
0.4184
7.253
1.376
0.4124
0.7613
0.7668
0.7596
2.182
0.09992
0.1023
14.73
0.153
0.16
0.6341
0.1891
0.4894
1.829
0.2092
5.132
5.304
2.718
0.8117
0.1668
0.3977
0.3564
0.1876
0.2812
0.2054
0.3067
0.1104
4.064
0.6642
1.48
0.5294
2.388
0.2263
1.104
0.6073
4.568
0.3677
0.3913
0.263
0.3191
0.4309
0.2237
0.2273
3.428
0.2977
0.3671
0.1658
0.04131
0.2499
0.512
0.06238
0.2282
3.094
3.999
0.55
0.06463
0.938
0.6191
0.1186
0.539
0.1738
0.7231
0.1403
3.183
0.5651
4.757
2.059
0.2881
0.2305
1.224
0.3475
6.535
1.196
0.2305
0.27
0.2474
0.7883
0.6041
1.357
0.7553
0.2911
0.2654
1.203
0.1929
4.462
0.2737
0.7887
0.3429
0.1956
0.5409
0.3522
72.76
2.541
0.2977
0.2301
0.403
0.2613
0.3852
0.1592
0.2149
0.2457
0.1973
0.7507
0.1869
3.871
0.5814
5.133
0.2538
0.6366
0.2382
2.88
0.157
0.2482
0.2492
0.4023
0.5093
0.4176
0.9654
0.935
4.994
0.3518
0.419
0.1496
4.873
1.308
0.3191
0.7613
0.3403
0.2107
1.869
0.4707
0.06877
0.4322
1.239
0.2598
0.7863
0.7321
0.2384
5.693
0.3373
0.2222
1.318
0.6209
0.6891
0.1167
0.1314
0.1386
0.1965
0.07244
0.2207
1.329
0.08087
0.7914
0.5176
0.1164
3.966
6.172
0.295
0.2924
0.7164
0.431
1.008
0.818
3.436
0.3173
0.06313
18.85
0.7068
0.4057
0.2719
3.267
2.8
2.759
0.07816
1.466
0.171
1.955
0.5152
0.5423
1.545
0.5856
0.285
0.05633
0.2014
0.2346
6.659
1.581
0.07039
0.4745
1.108
1.042
0.4216
0.2635
0.1783
0.1928
0.2786
12.5
0.1149
0.2094
0.2815
1.266
0.7735
0.1617
0.3112
0.2864
0.1329
0.9315
1.977
0.07924
0.2756
0.9262
2.915
0.05578
0.6691
0.1383
0.05909
0.1557
0.1913
0.1821
0.3417
0.2816
1.484
0.455
0.4086
0.547
0.5358
0.4999
0.7907
3.593
0.04451
1.026
0.1537
0.4193
0.1399
0.689
0.1267
0.2189
0.6027
0.3787
1.257
0.666
0.7663
0.4845
0.2059
2.335
0.1614
2.336
0.3158
2.761
0.1894
0.2867
0.9501
0.5678
0.8762
0.1893
0.3507
0.2856
19.68
0.426
0.2463
0.5103
5.738
0.7146
2.596
0.6967
0.2421
0.9305
0.3438
0.3949
0.5957
0.8258
0.6828
0.7154
0.1971
0.4378
0.3106
30.06
0.1673
0.2217
0.5567
0.6901
0.2721
0.2669
3.395
0.463
0.8441
0.5265
0.1783
0.6135
2.804
0.279
0.2885
0.5445
1.22
1.771
0.07869
2.274
1.419
0.8266
0.462
0.506
2.904
0.2683
18.31
0.5563
0.6667
0.8348
0.2079
0.6538
0.3524
0.4055
0.2159
0.5371
0.4398
0.2468
1.088
0.3011
1.028
1.08
0.1632
1.459
1.001
1.2
1.892
2.25
0.9436
0.132
0.9457
3.992
0.6311
0.3252
0.1344
0.3214
0.261
1.272
0.2417
0.5747
0.1507
2.434
1.148
0.5541
1.416
2.081
3.188
0.1729
0.3147
0.1527
0.1704
0.191
0.4153
0.5765
0.07057
0.3345
0.2574
9.649
0.1122
1.696
0.1169
0.7163
0.1775
0.1533
1.457
0.8184
0.3071
1.444
0.1876
0.4131
0.9479
0.2917
0.2935
0.1713
1.08
0.4151
0.2102
0.3014
0.3075
0.3415
0.2591
0.64
0.2052
0.8225
0.7803
0.1706
0.6984
0.9428
2.233
0.9608
0.9595
0.6247
0.124
0.662
0.3203
0.4557
0.1762
0.2765
1.385
1.364
0.2613
0.34
0.262
0.3316
0.2308
0.1139
0.8843
5.719
0.3778
13.52
1.983
6.976
0.2571
0.1552
0.2437
4.162
0.2346
0.7431
5.853
0.2981
0.1518
7.71
0.3118
0.2669
0.6102
2.227
1.115
0.4156
0.9984
0.9978
0.1272
0.5505
0.0639
0.4665
0.204
6.016
0.2904
0.5438
0.9169
1.81
0.08992
0.136
0.1176
0.5468
0.423
0.4062
0.3816
0.9386
0.3661
0.331
0.9922
0.4975
0.2402
0.9169
0.6232
6.958
1.277
1.65
0.3046
2.36
0.08282
9.663
0.3441
0.6456
0.1559
0.3246
1.009
0.3074
0.2656
0.2017
1.325
0.3132
0.3553
0.1928
0.478
0.7444
0.3541
0.2532
2.152
0.03987
1.441
0.1337
0.1429
1.131
0.4975
0.3991
0.224
1.999
0.3538
0.3111
0.1546
0.7214
0.102
0.1576
0.1577
0.1481
7.068
0.7355
0.2818
0.2194
0.3037
0.3648
0.4228
0.3869
2.088
0.1801
0.09288
0.1973
0.08616
0.2898
0.9087
11.62
0.5329
0.7824
12.74
0.2554
8.921
0.3384
0.1689
0.03505
0.3059
0.06353
2.563
0.2084
0.1943
1.468
0.1423
5.003
0.358
0.7786
3.109
0.09833
0.2145
0.6119
0.2615
5.542
0.2132
0.05864
0.3157
0.4173
0.4431
0.2305
3.484
0.7025
0.1916
0.1176
1.725
0.9715
1.533
1.283
0.1832
0.1296
0.6833
0.3207
0.2295
6.594
0.2324
3.484
2.753
0.308
0.3142
1.012
0.2571
0.4251
0.3294
0.8498
4.811
2.209
4.511
1.724
2.293
4.131
0.6882
0.5025
2.193
0.07074
2.883
0.5779
0.09401
0.4812
0.1985
0.1367
0.5706
0.8037
0.9449
0.1647
3.239
3.749
0.5146
0.5614
0.5554
1.242
0.7499
0.1721
0.1644
0.8247
0.7535
0.1286
13.85
1.423
4.551
0.1532
0.5538
0.555
0.2429
0.2801
2.182
0.7531
2.264
0.7028
0.8485
0.4673
0.543
11.51
2.223
0.1829
0.1268
0.935
1.135
0.8363
0.2116
0.1349
0.5058
2.387
7.787
0.8328
1.688
0.7294
0.8405
3.658
12.3
1.179
0.1774
0.2683
0.293
2.449
0.5206
9.524
0.5642
1.311
4.089
0.5626
0.4872
0.1702
0.9849
8.005
0.5584
0.9646
8.719
0.5966
0.5869
2.064
0.2276
0.217
0.775
3.926
0.2728
0.1432
0.3003
9.975
0.4794
0.4011
0.382
1.72
0.5253
0.09009
0.4971
0.06679
0.2394
1.662
0.321
0.7701
1.621
0.2759
1.977
1.983
0.348
0.2232
0.1249
1.304
2.17
4.491
0.03641
0.2648
0.8861
0.4493
0.2502
0.3208
0.3831
0.1832
0.3599
0.5239
1.316
0.2552
0.1398
3.161
0.7277
0.3334
0.9712
0.7511
0.5225
0.2113
12.54
0.8769
0.4271
2.152
0.1562
0.6155
0.9018
0.1736
0.2
0.3487
0.3204
0.1758
0.4092
2.514
0.2308
0.1234
45.06
2.972
0.6285
0.125
0.708
0.2678
0.2205
1.309
0.2306
5.629
0.2158
0.7216
0.1478
8.458
0.6559
0.6689
0.9584
6.681
0.4039
1.745
0.2851
3.611
3.4
1.153
0.6756
0.963
0.2195
0.3235
5.463
16.92
1.016
0.4108
0.187
0.8331
0.2053
4.735
0.334
0.2439
0.1325
0.2958
0.4743
0.9732
0.6631
0.4068
0.4198
2.574
1.005
0.5226
4.993
0.2007
0.168
1.606
0.7368
0.2949
4.886
1.987
0.2577
0.2468
0.2161
0.7588
1.42
0.6105
1.392
1.353
0.7646
1.299
0.1036
0.2607
0.3101
1.469
55.77
0.25
0.7789
2.644
0.1555
0.1603
0.6526
0.3733
0.4576
4.146
1.329
0.215
0.7632
0.9598
0.2774
0.07119
0.1965
0.6206
0.1235
0.2338
0.3054
6.326
0.5354
0.2176
0.2448
0.2047
11.85
0.8381
0.2129
0.4836
5.142
2.946
0.5543
0.5948
0.2854
5.242
0.154
0.2288
4.606
0.2682
0.5662
0.376
0.09277
0.4519
1.622
0.4494
0.2558
0.1913
0.7241
2.925
0.5417
0.1428
1.021
0.1489
0.183
0.384
1.711
0.3414
0.5291
0.5418
6.794
3.448
1.031
0.6906
0.7988
2.312
0.2634
0.68
1.278
0.6506
0.2806
0.3827
0.7004
0.05272
5.032
0.6791
1.61
1.108
1.402
2.894
0.3089
5.9
0.1012
0.1869
0.3589
1.93
3.969
5.957
1.063
3.269
0.5749
0.761
0.1666
0.2171
0.8953
1.205
13.82
0.5147
0.1236
0.3938
0.2047
0.1151
0.6259
0.7675
0.2245
0.1188
0.6768
1.423
3.894
0.675
1.219
0.3154
13.21
2.068
1.185
0.06464
0.205
0.2796
0.6815
0.8734
0.3358
0.7695
1.164
0.3055
0.07532
0.1658
2.964
1.836
4.219
1.656
0.4732
1.241
0.1698
4.421
0.1234
0.2367
0.2715
0.3142
1.398
0.6186
0.337
0.2702
1.722
3.188
0.3256
0.5625
0.6562
0.3051
0.301
0.5574
1.351
2.245
0.6016
0.7186
1.246
0.182
0.203
1.033
0.3948
0.8759
0.5878
0.4552
0.7595
1.521
3.38
0.5953
2.752
1.593
1.248
0.7291
0.1493
0.5273
0.7091
0.4896
3.224
1.305
0.1948
0.231
4.423
0.3347
53.96
0.2165
0.7004
4.079
11.57
26.82
0.07324
0.2785
3.568
0.2766
8.027
1.334
0.07904
1.229
0.524
0.2517
0.1219
0.3836
1.301
0.1511
1.147
11.5
10.49
0.3748
2.807
1.969
0.8492
0.155
0.1828
0.4264
0.4016
0.3493
0.1779
2.617
0.2836
0.2592
0.2819
0.08483
0.285
0.8322
1.103
0.225
3.534
1.009
0.7585
0.3597
0.2859
9.863
2.188
0.8364
0.5626
0.7702
1.144
0.2951
0.8422
15.26
0.4524
0.8083
0.3753
1.316
1.075
0.5855
0.1772
0.5987
0.2875
0.1646
0.1846
0.5017
0.3666
0.5273
0.2395
0.6927
1.471
0.7596
0.2859
1.238
11.86
0.9328
6.402
0.2747
0.2649
0.5801
0.3969
0.4068
1.788
0.516
0.6918
0.2005
10.31
2.217
0.3648
0.7845
0.2728
0.7782
0.5401
0.5896
0.716
0.2547
1.322
0.2409
0.4239
1.563
2.019
1.393
1.373
0.09132
0.1129
0.08921
2.95
0.1578
0.335
0.218
0.2286
4.802
0.7918
0.8072
0.6408
0.8904
1.763
0.3399
0.2625
0.3084
0.3193
0.1465
1.263
0.4847
0.5042
0.2469
0.3287
0.3414
0.6243
4.837
0.06812
3.079
1.197
0.3393
0.9227
0.1246
0.4125
1.273
0.3491
0.5343
0.16
0.2052
0.5779
0.2677
1.768
2.122
1.26
0.4496
1.365
0.2761
4.989
0.1576
0.8685
2.063
0.3158
0.3479
0.7963
1.069
0.3408
0.4635
0.1072
0.4632
0.1408
0.9617
22.55
0.2026
2.616
1.319
0.5987
0.1989
1.29
0.6233
0.4523
0.179
0.6612
1.604
0.2745
0.3035
1.33
0.165
0.5704
0.576
0.2635
1.701
1.494
0.1836
1.273
48.79
0.8417
0.3716
4.371
2.272
1.084
1.455
0.4068
4.551
2.337
0.4491
3.119
0.4838
0.3126
2.159
3.947
4.728
0.7277
2.211
0.5075
2.37
2.946
0.2769
6.469
1.057
5.974
0.8206
0.4471
0.8319
0.1699
1.06
0.4413
0.3235
0.1724
0.7451
1.406
0.326
0.1636
0.1952
0.8089
3.901
6.351
0.5843
0.563
0.943
4.285
1.928
0.8335
0.5185
0.3333
3.809
1.193
0.1695
0.05523
0.1699
1.292
3.322
3.929
0.6859
1.055
0.8494
0.3072
1.505
0.8822
0.7653
0.8679
0.1743
0.04076
0.7154
1.476
0.1889
4.605
0.07008
1.34
0.3679
0.3774
0.1875
0.1321
0.4515
0.2772
0.3258
0.1074
3.723
3.392
0.9032
0.234
1.429
4.414
0.5721
0.09876
2.518
2.529
0.8173
0.03719
0.3423
0.8538
4.758
0.05684
26.97
0.747
2.926
0.8212
0.2197
18.37
2.248
0.2468
0.6418
0.2235
9.761
4.202
0.2304
0.1734
2.208
0.1909
7.734
0.44
0.8976
0.6381
0.316
0.2037
0.5946
0.2405
0.206
0.4119
2.089
0.5647
0.257
2.54
2.184
4.873
0.3781
0.973
0.797
0.673
0.1772
0.5035
0.2588
3.201
0.2078
0.3309
0.6006
0.2755
0.7684
0.4347
0.6541
0.217
0.5668
0.726
20.04
1.88
0.862
0.3271
3.179
11.32
1.177
0.4572
0.1929
0.04023
0.5807
54.47
0.3673
1.614
0.352
0.9878
1.476
0.1746
0.4042
0.1098
0.6632
0.2755
0.4082
2.268
0.5516
0.08707
4.805
0.1141
0.6653
0.2958
1.05
1.047
0.3891
0.2455
0.8235
0.8002
0.9789
1.411
0.1525
1.742
0.2737
0.7345
4.188
0.9208
1.503
1.127
1.852
0.5046
0.7222
0.324
0.3205
0.1214
0.2817
0.4136
0.1275
0.4543
0.7701
0.9977
0.1982
0.8978
0.3847
0.09521
5.57
0.287
0.5974
2.847
0.1253
1.039
0.5081
0.7318
0.2274
1.309
0.6395
0.2435
0.186
0.3178
0.3522
0.3706
0.2157
1.279
7.047
5.658
7.673
3.113
1.568
0.8422
0.146
0.2338
0.067
0.1174
0.04333
2.587
0.7856
12.34
1.197
0.9549
1.101
0.3083
3.129
0.4936
0.3843
0.2042
1.384
3.985
0.5341
0.1376
0.2167
0.351
0.6443
0.7144
0.1667
21.82
0.1332
3.95
0.4335
0.06098
0.7558
0.1865
2.879
1.629
0.3076
1.452
0.466
0.131
1.719
0.3609
0.5252
2.079
0.6671
1.4
0.7778
1.002
1.418
0.299
0.3032
1.499
1.401
0.5078
0.2492
0.8628
2.334
0.7167
2.216
0.3383
0.4168
2.692
1.127
0.1762
0.1834
0.3933
0.2657
0.7245
0.2962
0.1265
0.8443
12.22
0.07605
0.2557
0.2348
4.159
0.1165
0.7557
0.9118
0.4478
2.297
0.1502
0.1812
3.087
0.2489
0.1318
11.62
1.553
1.448
0.1827
0.7968
0.6976
1.622
0.1623
1.61
0.1944
1.117
0.3779
0.7483
0.6806
9.886
1.226
0.3238
13.34
0.1897
0.7435
0.7169
0.2084
0.2641
0.1145
2.172
0.1507
0.4376
0.6642
1.721
0.9726
0.7718
0.2293
0.42
0.2678
0.3844
0.1466
0.2868
0.7792
0.5732
0.7044
0.5112
2.202
0.2827
0.7826
0.7189
2.979
0.5795
0.5782
0.2748
3.512
0.3541
0.568
0.4829
0.1446
0.3121
1.238
2.072
0.3294
0.2774
0.3953
1.222
0.1084
0.6528
0.1336
0.4342
0.3675
0.766
0.7106
0.2597
1.219
0.1017
0.1817
6.515
0.156
0.2726
0.4072
5.745
1.673
0.1171
11.22
0.1512
0.6987
1.501
0.2002
12.51
1.543
0.3614
3.309
1.402
0.6925
0.267
0.1795
2.493
0.3394
0.2058
1.395
2.291
0.443
0.07288
0.3411
0.3709
0.4582
1.48
0.2759
1.34
0.9477
0.6022
0.3889
0.3115
0.191
0.9361
1.725
0.2186
0.3062
1.148
0.1812
0.1367
4.867
0.5133
0.656
1.871
1.32
21.78
0.1174
0.7459
0.5007
1.598
0.8847
0.4005
0.5874
0.2352
0.8744
0.6824
6.666
0.1472
0.6628
23.57
5.529
0.2333
4.183
0.2111
7.025
0.4229
0.5318
0.2825
0.2174
1.063
4.261
0.631
0.4187
0.2777
0.5141
0.2137
2.54
0.3635
4.065
0.06645
0.1815
0.8063
1.727
0.2153
0.2505
0.2573
1.818
1.161
3.846
0.2068
0.4026
0.09426
0.324
0.1528
2.447
2.285
0.2738
1.602
2.168
0.07484
1.775
0.2501
0.3651
0.1558
0.4435
0.2686
0.1487
0.3353
1.08
0.1465
0.909
0.2
0.5845
0.294
0.06477
0.2064
1.982
2.917
0.2814
0.9016
0.8133
0.6951
5.175
1.615
0.7512
0.3827
7.758
0.1364
0.8285
0.5308
0.3446
1.169
0.2156
1.568
2.078
3.528
1.15
0.4249
0.2035
1.608
2.305
0.3533
0.184
0.8795
0.5961
0.141
0.1334
0.8053
0.4503
0.6083
0.694
0.2746
0.846
1.615
0.2271
0.4476
7.128
0.6373
0.2324
0.7672
0.3479
5.093
0.1985
0.509
1.197
0.178
0.2373
0.801
3.71
0.2565
0.07451
0.2762
19.17
0.7417
0.2514
1.216
0.8518
0.1571
0.6676
2.24
2.022
2.079
0.07535
20.94
4.909
0.6846
0.2211
4.976
0.5027
0.1722
0.1378
0.2525
0.4976
0.6294
0.3826
0.4744
0.6826
0.7738
0.1647
0.5755
1.041
0.8455
2.643
4.483
4.7
0.2682
0.3468
0.8886
0.1838
0.1013
2.506
0.1155
1.019
3.787
1.206
0.6871
0.09379
0.3528
0.6268
0.1671
0.1048
1.3
1.863
0.8985
0.6878
4.496
3.354
3.138
0.7669
1.06
1.557
0.4672
4.811
0.3509
0.8714
5.728
0.2336
2.451
0.689
1.407
0.9512
0.187
0.7752
0.9226
0.3194
0.4902
1.183
0.3056
0.1862
2.848
6.743
1.759
2.016
0.5469
0.2606
0.661
0.8306
0.429
1.456
0.1756
2.065
10.47
0.5857
0.3583
3.067
0.9064
1.003
1.219
15.26
0.1638
0.2535
2.154
13.62
0.7756
0.1033
3.267
1.944
0.4541
0.6064
0.2407
0.295
4.66
0.3883
1.425
0.5258
1.162
2.272
0.2469
0.5825
0.1253
0.1547
1.01
0.3874
2.235
0.08362
2.796
0.3369
0.8661
0.8432
3.651
0.3231
0.05616
0.9204
0.4559
3.362
3.12
0.4906
0.1692
0.5053
11.85
0.1273
0.2103
0.3657
3.357
0.5231
0.6833
0.3509
0.3181
0.553
0.3365
9.55
0.3284
1.143
0.6338
0.2688
0.6887
0.4789
0.3247
0.9064
2.191
0.5761
0.2576
5.98
0.6354
1.426
0.1859
0.1718
1.863
3.434
0.4062
10.96
0.1196
0.9976
5.602
0.3392
0.2906
1.229
0.2105
0.863
0.2605
0.5957
0.6652
0.7647
0.2929
0.3058
0.7453
0.6279
1.526
0.5004
0.8545
0.7701
0.4638
1.319
0.1412
0.349
0.2063
0.1375
0.294
0.563
0.9714
0.1312
0.2139
0.09709
0.8709
1.503
0.5437
0.5026
3.571
0.1554
3.879
0.2342
0.207
0.4491
0.1938
4.356
0.102
0.5679
4.821
0.2444
0.1445
0.2435
0.2859
0.7531
0.7011
4.169
1.739
0.5832
0.2555
0.2663
3.833
0.05057
0.1264
0.6876
0.4397
3.358
0.6846
0.3455
1.065
0.2817
0.4362
0.3538
0.1708
0.6995
0.425
2.361
1.187
2.895
0.1316
5.234
1.518
2.634
1.113
0.2799
0.1255
0.9672
1.62
0.3019
0.4032
0.4923
0.1256
0.7784
0.3565
0.1073
0.1449
9.189
0.2636
9.121
4.743
0.751
0.4668
0.5351
0.3843
0.3579
0.716
0.3797
1.298
1.677
1.099
0.3696
0.3325
56.3
0.4202
0.3504
2.926
0.2906
0.3998
0.9219
0.2594
1.681
0.1025
0.03675
1.484
1.802
0.1507
2.983
4.299
4.571
0.8059
4.998
0.3724
0.6558
0.3298
0.3391
0.2639
50.44
0.4303
0.1167
0.3102
2.147
1.73
0.1336
5.657
9.55
2.907
4.601
0.1696
1.135
0.4162
0.5845
1.117
0.7267
0.2194
2.81
0.1394
0.3986
0.1516
0.2251
0.3494
0.2051
0.375
0.7157
0.4803
0.8344
1.372
0.3254
0.3197
0.4483
0.3714
0.3516
4.952
0.816
0.6484
0.2382
0.8666
0.3105
0.6677
9.731
3.481
0.1112
0.7616
0.7313
3.608
0.8227
0.3166
4.084
0.1323
1.977
0.5134
2.238
1.741
0.3355
0.8321
0.3657
0.6871
0.6447
5.11
1.172
0.527
0.2601
0.2962
1.466
1.15
0.08629
2.076
0.513
0.2317
2.115
1.965
0.223
5.545
0.4134
0.3586
0.161
0.7539
1.727
0.295
1.557
0.4907
0.6542
0.5197
3.21
4.409
0.2035
0.2912
0.8145
0.6557
1.204
0.3263
1.362
4.751
0.1211
0.8828
0.2582
16.08
1.124
0.1085
0.6296
1.703
0.2588
8.558
0.3945
0.4713
2.625
0.6937
0.9333
2.108
0.2522
1.249
3.23
1.189
0.6869
0.2999
1.678
0.7811
0.5092
0.153
0.7292
0.1671
0.5163
0.1097
0.3153
1.511
0.1127
1.548
0.1396
4.42
0.6929
0.6134
0.4171
2.998
0.09452
0.4114
4.301
1.089
0.5603
0.1217
1.105
0.1254
0.08862
8.569
1.077
0.5169
0.2647
0.484
0.553
11.44
0.2625
0.8926
0.1802
9.956
13.5
0.0758
0.1466
0.922
3.05
0.1128
0.1156
0.05768
6.267
0.3428
1.068
0.4318
1.755
1.781
0.3657
0.6166
1.248
0.7233
0.2117
0.09632
0.5569
0.3914
0.1957
0.1395
0.1459
1.168
1.347
7.018
0.4345
0.8025
0.1517
0.902
0.3454
1.19
0.1269
2.98
1.412
0.206
1.301
0.09722
1.068
0.9606
2.372
0.416
0.8393
1.416
0.1615
0.1888
0.4963
2.493
0.3088
1.362
1.692
0.2639
0.6925
1.179
0.5333
0.31
4.611
0.1109
0.2719
0.1642
0.793
0.6236
3.196
1.442
0.2382
1.353
0.1582
0.3041
2.15
0.1176
0.5573
17.36
3.833
0.2773
0.08109
0.6208
0.2125
0.7384
0.3651
0.2038
1.332
3.228
0.1374
4.565
0.2101
0.426
0.2981
0.5873
0.534
0.1372
0.1943
3.055
0.3649
0.2614
1.645
0.2225
0.1088
0.666
0.417
3.366
0.1794
0.6095
1.815
0.1376
1.828
0.2755
10.38
0.6511
1.019
0.1967
0.5912
1.087
0.1355
1.189
0.2163
5.232
0.1685
0.6729
0.4024
0.3834
0.3819
0.7714
0.1534
0.3687
0.657
0.2994
1.893
0.2286
0.0351
0.2465
5.412
0.6988
0.4675
0.3182
0.283
0.9507
5.173
7.246
0.834
0.5881
8.592
1.351
0.2562
12.77
0.1668
0.6645
0.6607
0.3342
0.1598
4.202
0.1701
0.3275
42.46
0.8488
1.421
0.1443
0.3426
1.304
0.32
0.144
0.808
0.0451
0.1683
0.4944
0.428
0.1412
0.2584
0.2238
0.1207
0.9452
3.456
1.652
1.208
0.3651
0.1852
0.6087
0.1871
0.2586
15.4
0.4369
3.997
0.1528
2.73
1.121
0.1859
1.69
0.2338
2.063
0.2566
0.3998
1.136
0.618
2.349
0.2653
0.2095
0.5356
0.8168
1.431
33.31
0.2555
1.031
0.04585
2.409
0.2721
1.099
0.8971
0.6607
1.032
0.5105
0.5374
0.3653
0.306
0.4205
1.078
1.663
0.4112
1.922
0.6514
0.8252
1.798
0.3621
0.1305
0.1125
0.1209
1.13
0.445
0.8454
1.189
0.4282
0.5801
0.1821
2.179
0.3822
1.045
0.787
0.5549
0.2532
3.317
0.8374
0.1375
1.507
0.1474
2.095
0.1729
2.249
0.4032
0.2165
0.121
0.482
1.952
10.17
0.4373
0.2712
0.5327
1.123
1.38
1.713
0.5241
1.054
0.5879
2.146
0.5836
0.6595
0.5357
0.1991
3.87
1.821
0.3938
0.1806
6.71
0.7988
3.585
0.1771
2.487
0.7748
1.044
0.5794
0.582
1.425
0.573
0.8758
0.637
2.868
0.1042
0.7337
4.682
0.2909
0.6921
0.4261
0.1541
0.2546
2.417
1.681
4.117
0.07244
1.837
0.1084
3.639
0.1933
1.141
0.123
0.6449
0.2943
15.04
0.2066
0.3907
5.971
2.956
1.662
0.6604
4.948
0.5775
0.7025
0.4112
1.329
2.469
3.38
0.1341
0.5355
0.2224
1.356
0.1838
0.2519
0.1352
0.8714
0.3955
12.06
1.677
0.4214
0.15
0.2985
0.9564
2.012
0.3562
1.437
0.1728
0.8432
0.351
1.034
0.1299
0.2473
1.106
0.276
0.3184
0.1335
3.377
0.2247
0.5914
0.1119
1.143
0.7618
0.03974
0.528
0.1719
2.719
0.5802
0.7619
0.6841
0.06748
0.8437
0.3964
2.672
0.7526
2.102
1.858
0.1738
0.7306
0.1256
0.5207
0.4363
1.193
0.8171
0.2165
0.735
0.19
1.398
0.2109
0.3148
0.0921
0.06521
16.49
0.2372
0.2841
0.07909
0.5687
0.4716
0.202
0.1329
0.9349
0.1525
1.621
0.3243
0.2504
0.4218
0.175
1.42
0.7902
0.5526
0.2534
1.337
3.048
1.135
0.5494
0.8227
1.276
0.6828
0.08823
0.1096
0.5334
0.4064
0.07504
0.5938
0.1896
1.28
3.82
1.33
0.7812
0.3041
1.3
0.4156
0.1932
0.2752
0.5477
0.2788
2.719
0.1558
1.077
3.54
0.2617
1.362
2.051
0.4281
5.133
0.8225
0.425
0.6323
0.3376
0.1355
0.8091
12.29
0.1881
2.524
0.07292
0.2595
1.03
0.5035
0.6481
0.8984
0.1236
0.8094
0.2312
1.284
2.256
0.1534
0.4329
1.072
0.217
2.885
0.3146
0.2908
0.1649
0.43
1.934
0.8488
1.197
17.44
0.2754
1.374
0.5408
0.2871
0.4863
0.2681
0.9557
0.1354
2.375
0.9351
0.2911
5.626
0.4715
0.2766
1.585
0.3511
0.4096
0.6271
4.675
0.3545
0.2122
0.8018
0.1098
0.3327
0.9827
1.551
7.572
0.4549
0.4492
0.1745
0.4403
0.976
1.225
2.336
0.2235
7.47
0.9292
0.606
0.1689
0.1368
1.633
1.887
0.4206
0.5852
1.672
0.3184
0.3165
0.6215
0.1787
1.1
0.1731
0.4255
0.9815
1.109
0.1922
0.7579
0.5989
0.106
6.681
1.128
0.6791
0.2015
0.2503
0.3241
0.4846
1.065
0.2193
1.587
27.31
0.1215
1.537
0.7891
3.223
0.2999
0.1707
0.3628
0.1273
2.209
0.3027
2.957
0.7196
2.847
0.2406
0.9574
0.1882
0.123
0.05513
0.03439
0.1647
0.6673
1.541
0.9572
0.2376
0.3252
3.826
1.374
1.272
1.783
0.6088
0.1789
0.7092
0.3758
1.209
0.09664
2.333
0.3448
1.726
0.08398
0.6193
0.758
1.331
0.2138
2.447
0.1153
0.5999
1.124
0.7167
1.315
5.018
0.1733
3.012
1.009
0.1327
0.2563
1.395
0.3563
1.441
0.1523
0.193
0.6216
1.742
0.03819
0.05223
0.2709
4.359
0.1946
3.821
0.2315
0.8568
0.5038
0.8785
0.2424
0.06117
0.1837
0.2252
6.154
0.8352
1.116
5.162
0.744
3.607
0.5415
0.8127
1.073
4.065
3.787
0.1087
1.557
0.3443
0.3925
0.2391
0.1747
0.1879
0.2517
0.85
4.257
0.7128
0.1462
0.1604
1.681
0.9451
4.31
0.5503
0.6351
0.6545
0.1462
0.1836
0.1034
12.86
1.217
0.4387
0.2861
2.787
0.7362
0.09285
1.285
0.3873
7.025
0.3583
2.603
0.266
0.4279
0.8441
0.2549
0.5208
0.5512
0.1048
0.1859
0.6382
2.708
0.1236
0.389
0.5219
0.3248
0.6048
0.3685
5.534
8.974
1.34
1.29
1.033
11.59
2.344
3.314
0.9891
2.207
8.644
0.2872
0.1971
1.503
1.85
1.514
0.6015
0.4975
0.3141
0.2565
0.205
0.4239
21.56
0.2504
0.326
0.231
0.7556
0.07938
0.6559
1.361
0.3306
0.2479
0.2175
0.3015
0.4171
0.2188
0.9543
0.341
4.465
0.2622
0.2531
0.4054
6.917
1.17
0.7511
1.694
2.023
2.057
0.2056
0.5899
1.178
0.1907
1.117
0.04295
0.4206
2.584
4.258
0.5878
0.2999
0.7596
0.7519
0.2558
1.691
1.939
0.2752
1.305
1.191
7.129
1.854
6.294
0.2812
0.2857
0.2238
0.7103
0.9077
1.543
0.1487
0.7999
0.2261
1.58
7.121
0.04536
0.2002
1.412
0.5815
8.926
1.273
0.2025
0.07405
0.1756
0.5528
1.125
0.2015
1.796
0.09592
0.8642
0.8271
11.8
5.512
0.149
2.608
1.001
0.2073
0.2159
0.7188
0.0888
0.142
0.1829
0.4173
0.9303
1.098
1.591
0.4682
0.4993
0.1954
0.3531
0.8648
0.4392
0.7352
1.43
0.5404
4.073
0.2727
0.4353
0.5952
0.1989
6.099
1.373
0.25
0.4426
7.725
0.8756
2.82
0.1275
0.2037
3.757
1.47
0.2575
0.2542
0.1041
1.566
0.5797
0.1268
3.368
0.2552
4.714
0.8127
0.2414
0.2131
1.404
0.3544
1.32
0.5964
0.03892
1.217
5.959
0.1303
0.2318
1.035
0.4057
0.7528
0.5752
0.3189
0.7404
1.218
32.05
0.6209
2.32
0.3714