/*--------------------------------*- C++ -*----------------------------------*\
  =========                 |
  \\      /  F ield         | OpenFOAM: The Open Source CFD Toolbox
   \\    /   O peration     | Website:  https://openfoam.org
    \\  /    A nd           | Version:  8
     \\/     M anipulation  |
\*---------------------------------------------------------------------------*/
FoamFile
{
    version     2.0;
    format      ascii;
    class       volScalarField;
    location    "15";
    object      k;
}
// * * * * * * * * * * * * * * * * * * * * * * * * * * * * * * * * * * * * * //

dimensions      [0 2 -2 0 0 0 0];

internalField   nonuniform List<scalar> 
63564
(
0.0006989
7.454e-05
0.0001061
0.0001649
0.0001622
0.06045
0.0002262
0.0001737
0.02658
0.0007081
0.1836
0.1536
0.02946
0.1438
0.01653
0.0163
0.08739
0.08488
0.06708
0.04991
0.07607
0.2432
0.04528
0.1535
0.0007861
0.1811
0.05034
0.1006
0.0849
0.02715
0.2108
0.3202
0.3214
0.1483
0.1128
0.1147
0.3269
0.1094
0.1105
0.07525
0.08787
0.1265
0.08651
0.08986
0.03013
0.06897
0.04946
0.102
0.09367
0.09935
0.2646
0.1446
0.1249
0.05959
0.1116
0.3272
0.09522
0.11
0.1002
0.1357
0.007307
0.06783
0.1398
0.1946
0.09039
0.1102
0.09063
0.003672
0.09163
0.2801
0.1614
0.295
0.2111
0.1978
0.2123
0.1085
0.2529
0.1031
0.1014
0.0552
0.07503
0.09025
0.1218
0.07244
0.03858
0.1971
0.06726
0.1946
0.0673
0.06757
0.15
0.1854
0.1589
0.2811
0.002782
0.1532
0.02022
0.07806
0.0003201
0.0991
0.2664
0.09185
0.08034
0.02505
0.03114
0.115
0.2201
0.05354
0.03789
0.2456
0.04833
0.1234
0.1425
0.1294
0.008182
0.1429
0.0904
0.005578
0.1927
0.1614
0.1405
0.08119
0.2535
0.007614
0.08092
0.02382
0.4081
0.1715
0.1604
0.2668
0.2433
0.1325
0.06274
0.2939
0.107
0.1909
0.1234
0.1878
0.1365
0.002839
0.09535
0.2549
0.07032
0.05177
0.08126
0.2959
0.05191
0.1957
0.03931
0.235
0.2859
0.07171
0.2376
0.0594
0.07229
0.1305
0.1301
0.09468
0.2948
0.2183
0.1911
0.08468
0.1389
0.1957
0.1731
0.06729
0.1891
0.08591
0.1703
0.07128
0.1134
0.1159
0.2181
0.08409
0.08671
0.08201
0.08284
0.3012
0.01665
0.1121
0.2251
0.03333
0.04647
0.1512
0.2273
0.04333
0.06737
0.0699
0.04901
0.1551
0.06847
0.09837
0.1066
0.1268
0.1145
0.265
0.07369
0.02744
0.07633
0.1221
0.147
0.076
0.06513
0.2519
0.2875
0.09157
0.08786
0.2786
0.06113
0.09195
0.1307
0.08293
0.07924
0.1617
0.08457
0.2733
0.2213
0.2048
0.2178
0.1765
0.07332
0.1205
0.2733
0.237
0.2755
0.04637
0.2345
0.1241
0.2891
0.2419
0.05999
0.2056
0.001049
0.0847
0.07545
0.1558
0.001015
0.004862
0.008558
0.08672
0.2747
0.1219
0.08196
0.1292
0.121
0.04932
0.08636
0.01461
0.04002
0.2075
0.05696
0.04445
0.1756
0.03507
0.2031
0.05631
0.2668
0.07331
0.08531
0.07109
0.0463
0.1528
0.29
0.08073
0.07775
0.04855
0.09999
0.08633
0.08315
0.09694
0.04061
0.02968
0.04532
0.118
0.08306
0.08939
0.1004
0.07284
0.2204
0.05811
0.1609
0.03125
0.09457
0.2363
0.07251
0.04393
0.1518
0.2188
0.08424
0.06578
0.2262
0.2131
0.1317
0.04963
0.1515
0.07617
0.1188
0.1299
0.1924
0.06953
0.1162
0.1825
0.1945
0.278
0.2404
0.2418
0.02347
0.08047
0.1518
0.1067
0.05835
0.1968
0.001645
0.03898
0.08541
0.07911
0.09597
0.1408
0.117
0.1931
0.05065
0.1567
0.01723
0.1543
0.1957
0.3319
0.057
0.4153
0.08654
0.1226
0.2683
0.2204
0.06227
0.003194
0.2471
0.114
0.02911
0.178
0.1959
0.1924
0.1137
0.1482
0.1411
0.001624
0.0599
0.1748
0.09761
0.02351
0.07871
0.1133
0.06766
0.1067
0.1653
0.1078
0.04079
0.06553
0.171
0.2191
0.1439
0.08512
0.06587
0.1073
0.1373
0.04745
0.3165
0.123
0.0477
0.08345
0.05856
0.2324
0.01029
0.2337
0.04512
0.1537
0.08277
0.0008185
0.09445
0.1546
0.04015
0.09102
0.05988
0.07407
0.07876
0.1746
0.07108
0.1319
0.06579
0.2768
0.1451
0.1188
0.05944
0.1003
0.02939
0.09845
0.07447
0.06913
0.05521
0.08395
0.2682
0.08101
0.1356
0.2587
0.04153
0.0676
0.05796
0.04584
0.3178
0.2468
0.05025
0.2506
0.04506
0.04735
0.2932
0.2606
0.0812
0.1055
0.04126
0.1765
0.03679
0.199
0.1696
0.1401
0.1997
0.08058
0.07318
0.02242
0.07303
0.2073
0.05445
0.2076
0.07459
0.09887
0.1554
0.2137
0.02773
0.02568
0.1259
0.02924
0.1566
0.3902
0.01549
0.2277
0.2064
0.1483
0.02553
0.03256
0.07318
0.07672
0.09234
0.3233
0.2944
0.08871
0.101
0.04117
0.1882
0.0819
0.1169
0.04188
0.05989
0.05045
0.1075
0.2499
0.2379
0.1624
0.2087
0.06496
0.05769
0.1158
0.0615
0.0355
0.01841
0.1152
0.1133
0.0847
0.1296
0.05464
0.2461
0.06311
0.1867
0.05243
0.06574
0.2454
0.08813
0.1329
0.1304
0.07237
0.02454
0.02827
0.1386
0.157
0.02962
0.1991
0.136
0.01522
0.04933
0.05433
0.05223
0.09905
0.06163
0.03363
0.08674
0.06286
0.1263
0.04718
0.1973
0.05592
0.1914
0.05887
0.05929
0.0391
0.05336
0.02164
0.1485
0.1844
0.1829
0.09536
0.05617
0.1442
0.1843
0.06818
0.1761
0.05553
0.04555
0.1353
0.09862
0.1042
0.1168
0.05085
0.2167
0.06162
0.09564
0.07559
0.1285
0.08119
0.03937
0.01987
0.1273
0.03654
0.09951
0.1236
0.03851
0.05576
0.01371
0.04445
0.05218
0.1652
0.1823
0.04919
0.01946
0.07853
0.07901
0.06066
0.03214
0.07734
0.2584
0.2236
0.0207
0.2372
0.0345
0.1009
0.03439
0.04497
0.164
0.2545
0.01435
0.07098
0.002262
0.2006
0.02846
0.1264
0.07459
0.05538
0.1166
0.2187
0.2938
0.08037
0.1037
0.1191
0.02686
0.101
0.103
0.3275
0.02131
0.1067
0.04223
0.06845
0.08402
0.1324
0.1801
0.3197
0.03617
0.0509
0.03887
0.1372
0.2448
0.1807
0.04824
0.04597
0.07508
0.1468
0.1195
0.1532
0.05732
0.08342
0.04892
0.08559
0.1506
0.3006
0.1106
0.1922
0.1997
0.06484
0.06626
0.06783
0.1333
0.2689
0.1665
0.0787
0.1173
0.1598
0.2254
0.1156
0.1168
0.17
0.3015
0.04069
0.07837
0.02411
0.08496
0.05571
0.04442
0.0833
0.1255
0.02625
0.279
0.08888
0.2437
0.1795
0.05754
0.137
0.08574
0.06427
0.1232
0.1201
0.03468
0.06653
0.2242
0.2394
0.1378
0.09202
0.08762
0.09694
0.07392
0.2273
0.1498
0.108
0.06599
0.1347
0.1064
0.2471
0.0678
0.04737
0.2841
0.05235
0.1183
0.00432
0.03691
0.009872
0.06725
0.264
0.04322
0.08092
0.04255
0.1174
0.1715
0.2295
0.1593
0.07827
0.1096
0.06249
0.2338
0.2296
0.1404
0.3373
0.1239
0.1064
0.06096
0.1148
0.05673
0.0554
0.2158
0.0661
0.1039
0.2099
0.0901
0.09541
0.04524
0.2759
0.07558
0.02759
0.3273
0.02191
0.06705
0.1809
0.04749
0.1552
0.1667
0.04541
0.22
0.1013
0.05351
0.3874
0.0586
0.07293
0.05766
0.1025
0.3189
0.06496
0.2849
0.1221
0.03641
0.1209
0.05049
0.1262
0.03149
0.0395
0.1001
0.02913
0.02998
0.04766
0.1892
0.2549
0.1535
0.1014
0.07335
0.06401
0.3369
0.1962
0.02192
0.07269
0.06673
0.1871
0.07109
0.08709
0.2345
0.05622
0.1748
0.2235
0.02141
0.3053
0.2139
0.2265
0.05203
0.07102
0.1758
0.1926
0.1569
0.1525
0.268
0.06807
0.07177
0.1462
0.1709
0.2705
0.3216
0.1226
0.03435
0.2127
0.2792
0.07163
0.07707
0.2262
0.1635
0.1453
0.1768
0.06382
0.2341
0.08914
0.2905
0.1605
0.2382
0.02566
0.05775
0.03914
0.1932
0.2055
0.1319
0.02607
0.06038
0.09046
0.0885
0.04543
0.1186
0.1741
0.02243
0.05786
0.05901
0.1071
0.1023
0.08278
0.05288
0.05095
0.049
0.02095
0.1114
0.1026
0.3735
0.3214
0.0576
0.1788
0.2575
0.1278
0.1297
0.09423
0.02664
0.1512
0.1609
0.09743
0.1187
0.114
0.09975
0.1078
0.05528
0.09029
0.1262
0.3156
0.1614
0.09456
0.03412
0.07497
0.2639
0.2111
0.05829
0.2275
0.02024
0.02065
0.02729
0.1395
0.0338
0.1896
0.1234
0.01989
0.1448
0.2763
0.0486
0.07025
0.1335
0.09727
0.03716
0.1233
0.06466
0.2824
0.2124
0.0982
0.1525
0.04779
0.1382
0.2128
0.04661
0.235
0.05241
0.03394
0.1263
0.08542
0.1018
0.08361
0.06283
0.0511
0.05903
0.1902
0.1994
0.3047
0.06534
0.06602
0.07703
0.06978
0.1133
0.1871
0.267
0.02381
0.04248
0.097
0.1491
0.08563
0.03615
0.1176
0.2278
0.2347
0.072
0.06912
0.2278
0.3252
0.2573
0.03147
0.153
0.07297
0.152
0.1618
0.07023
0.1859
0.04439
0.05664
0.1319
0.06901
0.2262
0.07439
0.2365
0.1078
0.04491
0.1823
0.1015
0.0994
0.1063
0.3545
0.03215
0.05692
0.06109
0.04188
0.1448
0.1244
0.08413
0.09781
0.1593
0.1534
0.08642
0.1287
0.1138
0.05566
0.06296
0.0466
0.04797
0.1562
0.1022
0.1495
0.07147
0.04322
0.05379
0.1564
0.05891
0.1329
0.08284
0.1276
0.04529
0.08198
0.08958
0.2064
0.1987
0.03817
0.1118
0.2999
0.1004
0.2314
0.09831
0.1398
0.03467
0.04133
0.09314
0.08184
0.1013
0.03352
0.1632
0.1717
0.2178
0.06973
0.2989
0.02588
0.1838
0.2999
0.01976
0.2632
0.04333
0.2616
0.1923
0.0748
0.07697
0.08328
0.09797
0.01977
0.1249
0.08522
0.02668
0.1533
0.02815
0.0381
0.04859
0.1454
0.03048
0.04139
0.1187
0.1226
0.165
0.1443
0.04583
0.3107
0.2267
0.0374
0.1282
0.1051
0.1041
0.2121
0.1242
0.05873
0.04242
0.08608
0.05968
0.0234
0.1256
0.2567
0.09727
0.102
0.06762
0.2541
0.1543
0.02949
0.1528
0.3152
0.09706
0.1385
0.1566
0.0704
0.09606
0.2499
0.1958
0.1034
0.06869
0.1887
0.2027
0.2743
0.08966
0.0214
0.07943
0.04059
0.2383
0.07657
0.07839
0.05552
0.1387
0.1221
0.1104
0.08092
0.03431
0.09671
0.03212
0.05304
0.188
0.09776
0.02606
0.08986
0.07519
0.1001
0.1496
0.07547
0.1572
0.06239
0.02479
0.3219
0.05111
0.1024
0.05943
0.1083
0.3026
0.04384
0.04836
0.1454
0.164
0.1977
0.1268
0.07943
0.08575
0.03484
0.287
0.1212
0.05501
0.09702
0.05103
0.1087
0.07352
0.08443
0.06573
0.02258
0.1923
0.1956
0.1923
0.01066
0.08178
0.103
0.04215
0.2575
0.03665
0.07775
0.1443
0.1645
0.1721
0.07361
0.2819
0.05714
0.07174
0.06362
0.1903
0.02904
0.1547
0.1286
0.1881
0.05374
0.08275
0.2194
0.2
0.05613
0.07218
0.02107
0.04683
0.02067
0.06498
0.03967
0.05037
0.05881
0.05103
0.2776
0.1328
0.06375
0.02405
0.1545
0.1636
0.08423
0.08488
0.05454
0.1213
0.07811
0.1398
0.06071
0.2915
0.08954
0.1227
0.01876
0.1393
0.08914
0.1633
0.06086
0.09368
0.07408
0.03308
0.0184
0.07279
0.1443
0.1943
0.1666
0.03125
0.1127
0.03198
0.09099
0.08093
0.112
0.18
0.2671
0.09416
0.3502
0.02048
0.1221
0.01202
0.2837
0.2899
0.02124
0.05469
0.03094
0.2381
0.2274
0.09968
0.1257
0.1141
0.09827
0.1422
0.1232
0.06403
0.1078
0.1711
0.08797
0.2471
0.02803
0.2046
0.07223
0.2302
0.08671
0.18
0.1153
0.05835
0.06221
0.04918
0.07898
0.06376
0.202
0.02558
0.1549
0.03854
0.2611
0.1178
0.1295
0.3597
0.2194
0.03583
0.05885
0.08978
0.3273
0.2595
0.02299
0.06491
0.1359
0.08301
0.05112
0.232
0.07428
0.1946
0.09768
0.1435
0.1308
0.183
0.07728
0.1208
0.1474
0.2491
0.1302
0.0462
0.1186
0.05547
0.268
0.1071
0.05656
0.0767
0.08758
0.03648
0.1005
0.02993
0.1408
0.1511
0.01913
0.0601
0.09991
0.2295
0.09101
0.1995
0.06851
0.08746
0.05671
0.09481
0.2059
0.05882
0.02182
0.1776
0.1041
0.0342
0.1619
0.103
0.05044
0.124
0.2289
0.06406
0.1982
0.05635
0.2848
0.1279
0.1306
0.07371
0.2103
0.2346
0.02268
0.3647
0.2991
0.2755
0.2939
0.1139
0.1581
0.02582
0.103
0.3259
0.03611
0.2906
0.1152
0.347
0.06353
0.08625
0.1083
0.2262
0.1354
0.04542
0.1181
0.03627
0.07567
0.07392
0.04469
0.07773
0.2517
0.06204
0.02733
0.03789
0.1187
0.03246
0.08396
0.1017
0.04171
0.1228
0.07024
0.06144
0.1444
0.0313
0.0288
0.04285
0.1682
0.1189
0.3627
0.1777
0.2939
0.0852
0.04141
0.2589
0.2139
0.03581
0.02687
0.1622
0.03638
0.1355
0.314
0.02988
0.09714
0.05587
0.116
0.1082
0.3299
0.05712
0.3128
0.1276
0.3023
0.3757
0.09991
0.03626
0.05902
0.127
0.04079
0.126
0.1378
0.1725
0.03826
0.04894
0.08986
0.2036
0.03445
0.1518
0.1753
0.04363
0.105
0.02228
0.1288
0.05606
0.1011
0.1711
0.05729
0.08279
0.1793
0.1412
0.1452
0.2926
0.04478
0.08756
0.1659
0.03613
0.09931
0.03002
0.1976
0.3213
0.04809
0.1439
0.06832
0.2212
0.1559
0.0706
0.192
0.3127
0.1567
0.08183
0.0574
0.2606
0.005483
0.04635
0.2244
0.1005
0.1796
0.1996
0.03637
0.05576
0.03669
0.1722
0.1661
0.107
0.06887
0.007974
0.2337
0.2164
0.1082
0.05001
0.3399
0.09737
0.231
0.09181
0.2872
0.05389
0.149
0.2659
0.1684
0.08322
0.3292
0.1432
0.04327
0.102
0.03961
0.04173
0.2118
0.04693
0.2221
0.1587
0.03713
0.1055
0.1079
0.1411
0.1322
0.2348
0.13
0.09413
0.02763
0.0273
0.05807
0.222
0.2375
0.05821
0.1756
0.1156
0.06667
0.08352
0.08535
0.2385
0.02262
0.1501
0.08135
0.1092
0.04386
0.147
0.09955
0.08176
0.07784
0.1509
0.1234
0.1157
0.06125
0.05875
0.1412
0.08817
0.01541
0.234
0.06201
0.1667
0.3048
0.08416
0.04484
0.2202
0.08292
0.02302
0.02273
0.08929
0.3023
0.04104
0.2238
0.1426
0.04889
0.2261
0.113
0.1407
0.03946
0.05062
0.3234
0.142
0.1285
0.337
0.1057
0.07647
0.008291
0.03246
0.09428
0.1907
0.2421
0.2197
0.08194
0.05393
0.05099
0.08755
0.2816
0.1125
0.09099
0.0249
0.1257
0.07031
0.06965
0.2221
0.2825
0.1166
0.08786
0.1019
0.06884
0.08808
0.08741
0.08218
0.2007
0.1526
0.09109
0.08163
0.3548
0.2602
0.205
0.0215
0.04691
0.2012
0.1993
0.04478
0.09384
0.1297
0.1548
0.1509
0.1291
0.1401
0.05454
0.05078
0.1611
0.1567
0.204
0.109
0.05164
0.1245
0.01012
0.2441
0.0607
0.07341
0.08824
0.08504
0.04919
0.1353
0.2924
0.05648
0.08554
0.07395
0.0436
0.03684
0.07523
0.02178
0.08448
0.1432
0.0571
0.04522
0.2225
0.1494
0.148
0.2859
0.1548
0.2075
0.1175
0.0555
0.1845
0.03942
0.1271
0.1591
0.02298
0.03135
0.06369
0.199
0.06635
0.1062
0.03644
0.262
0.02026
0.09053
0.3096
0.1267
0.1631
0.05808
0.1097
0.06336
0.2014
0.02209
0.2984
0.2829
0.1466
0.06293
0.1279
0.08656
0.02482
0.08685
0.08491
0.2854
0.09138
0.14
0.08823
0.3391
0.2086
0.09286
0.03378
0.1123
0.1352
0.07913
0.09826
0.1614
0.06637
0.08183
0.226
0.2093
0.09361
0.01525
0.07249
0.1949
0.238
0.1404
0.1228
0.3109
0.04815
0.2626
0.06621
0.1504
0.02081
0.2432
0.04568
0.1306
0.2587
0.1693
0.08935
0.09074
0.1766
0.1353
0.2864
0.04945
0.05728
0.09827
0.04733
0.0564
0.03545
0.3655
0.2624
0.03083
0.1049
0.05152
0.2049
0.03865
0.1703
0.1009
0.292
0.05525
0.07248
0.24
0.04402
0.1672
0.1116
0.1122
0.1273
0.3747
0.1182
0.1828
0.2043
0.09121
0.155
0.08471
0.07896
0.08898
0.1107
0.07531
0.05049
0.05248
0.1038
0.3164
0.1403
0.2989
0.01813
0.05712
0.1013
0.1561
0.07126
0.1152
0.0412
0.0703
0.1893
0.04001
0.1217
0.05282
0.0986
0.07707
0.1317
0.1058
0.2075
0.2397
0.1037
0.3067
0.2081
0.06102
0.12
0.1571
0.09222
0.04508
0.1385
0.07213
0.07412
0.05642
0.0728
0.1563
0.2928
0.0254
0.1465
0.3976
0.05647
0.05425
0.04117
0.08
0.04426
0.09732
0.09851
0.09183
0.08438
0.2933
0.08283
0.07504
0.09258
0.0556
0.06569
0.102
0.04338
0.07179
0.03247
0.1528
0.302
0.02623
0.03474
0.06577
0.3239
0.2652
0.1549
0.1318
0.03232
0.02251
0.2379
0.06452
0.1211
0.1032
0.1592
0.02788
0.115
0.05698
0.1178
0.0512
0.05967
0.1114
0.1185
0.04609
0.04239
0.1856
0.1028
0.1054
0.1312
0.1306
0.09913
0.07615
0.3148
0.06366
0.08463
0.04053
0.209
0.1187
0.1818
0.04449
0.09428
0.1068
0.1606
0.1726
0.1173
0.2428
0.09953
0.1002
0.03568
0.07211
0.1105
0.1016
0.1515
0.138
0.08489
0.07102
0.114
0.07641
0.1273
0.07989
0.1075
0.177
0.06379
0.09611
0.04349
0.3266
0.1405
0.09589
0.2251
0.1171
0.2026
0.07843
0.08681
0.04874
0.1276
0.06605
0.2883
0.1551
0.08707
0.06034
0.0801
0.1231
0.08218
0.15
0.04782
0.02912
0.2212
0.00418
0.04732
0.1276
0.1237
0.104
0.139
0.01239
0.1308
0.04092
0.03229
0.1262
0.1078
0.03378
0.06269
0.1286
0.04317
0.1466
0.07175
0.1005
0.03567
0.1667
0.1623
0.1434
0.3142
0.061
0.1006
0.004676
0.09211
0.04726
0.03762
0.04867
0.1928
0.124
0.1913
0.06708
0.0514
0.11
0.05656
0.03197
0.07627
0.162
0.03622
0.04769
0.1035
0.1934
0.04528
0.2496
0.1696
0.02985
0.06506
0.09146
0.2459
0.02852
0.1126
0.04619
0.2034
0.1246
0.1553
0.06596
0.09402
0.1134
0.2029
0.06534
0.08127
0.09444
0.09684
0.04281
0.1071
0.0714
0.2392
0.3045
0.04427
0.1309
0.1248
0.1716
0.08628
0.06252
0.149
0.06267
0.2274
0.1145
0.1148
0.0438
0.2005
0.2256
0.1809
0.1733
0.03008
0.05137
0.1514
0.1184
0.1001
0.05616
0.05848
0.05336
0.02039
0.1585
0.24
0.1219
0.2469
0.1292
0.06643
0.03405
0.08804
0.0442
0.1428
0.3071
0.02808
0.06212
0.132
0.3013
0.1529
0.3005
0.113
0.1019
0.1286
0.12
0.1188
0.2622
0.05973
0.04078
0.2523
0.336
0.07978
0.1918
0.08382
0.2742
0.1402
0.2607
0.09133
0.06388
0.04874
0.1511
0.09585
0.2229
0.08712
0.1371
0.05364
0.03878
0.2826
0.2781
0.2283
0.2118
0.08665
0.1731
0.0757
0.02458
0.07651
0.03771
0.02419
0.0696
0.06061
0.1259
0.1204
0.07585
0.06285
0.07489
0.02282
0.1654
0.03477
0.03985
0.0436
0.02262
0.222
0.2309
0.305
0.2413
0.07821
0.06124
0.1806
0.3887
0.1477
0.117
0.2192
0.07368
0.09684
0.1004
0.003978
0.08167
0.1057
0.04373
0.2114
0.1733
0.2167
0.1771
0.3109
0.182
0.2131
0.16
0.04866
0.1239
0.3301
0.1531
0.1164
0.04781
0.0996
0.09163
0.1636
0.04613
0.08792
0.03863
0.0693
0.1876
0.04928
0.0338
0.1151
0.0956
0.1744
0.06591
0.05401
0.1584
0.1078
0.1234
0.2046
0.1866
0.02533
0.03765
0.1226
0.04397
0.0692
0.2657
0.03576
0.2779
0.09256
0.09953
0.0652
0.02514
0.04825
0.1442
0.04238
0.03187
0.1832
0.2027
0.1313
0.1196
0.04233
0.03034
0.04556
0.0392
0.03589
0.2401
0.04209
0.1063
0.2045
0.08639
0.2205
0.02227
0.147
0.1145
0.0857
0.03886
0.1864
0.06094
0.12
0.3086
0.04501
0.194
0.08939
0.2559
0.1385
0.05193
0.1203
0.1516
0.1706
0.07408
0.4177
0.189
0.06843
0.08822
0.2628
0.0317
0.03218
0.02385
0.2779
0.06836
0.03347
0.3064
0.1104
0.1202
0.06797
0.1032
0.05565
0.08937
0.056
0.07735
0.2825
0.03952
0.165
0.06054
0.04604
0.09024
0.06431
0.1176
0.1481
0.0385
0.04993
0.04551
0.1997
0.2693
0.06194
0.1027
0.08705
0.1397
0.1223
0.1062
0.1122
0.0248
0.1831
0.18
0.07185
0.06546
0.05945
0.1729
0.05572
0.1133
0.1105
0.0573
0.1242
0.02396
0.1678
0.03716
0.1464
0.02855
0.04636
0.06906
0.03373
0.03646
0.05156
0.1078
0.08115
0.07159
0.02234
0.02985
0.04915
0.1767
0.1405
0.06876
0.03371
0.1346
0.07215
0.1725
0.1199
0.04685
0.1863
0.117
0.1101
0.07758
0.1316
0.2366
0.09256
0.04118
0.2413
0.06279
0.07378
0.1251
0.1662
0.1111
0.02411
0.1047
0.1279
0.1361
0.1471
0.07768
0.005098
0.0859
0.09607
0.1044
0.08602
0.2018
0.175
0.295
0.2317
0.05436
0.03648
0.0131
0.171
0.1344
0.06285
0.111
0.07302
0.2009
0.07462
0.01979
0.1978
0.1026
0.3093
0.1028
0.05972
0.02351
0.2392
0.1723
0.03665
0.09485
0.08256
0.3267
0.09807
0.194
0.1404
0.08514
0.06598
0.0309
0.04909
0.1256
0.09287
0.0825
0.03314
0.06924
0.09366
0.08327
0.02669
0.01518
0.04344
0.1021
0.09635
0.02939
0.1044
0.08877
0.02206
0.1006
0.04297
0.05889
0.204
0.06092
0.4086
0.1047
0.07951
0.146
0.07544
0.02695
0.08714
0.138
0.1765
0.108
0.1011
0.07478
0.3261
0.05846
0.1716
0.1138
0.03463
0.03794
0.0445
0.1085
0.1217
0.1799
0.07014
0.07715
0.02797
0.07935
0.06854
0.07607
0.03838
0.2738
0.009547
0.07759
0.1157
0.1365
0.03902
0.02058
0.1234
0.0126
0.1575
0.08914
0.2668
0.02265
0.0215
0.1781
0.1249
0.0149
0.04196
0.03617
0.1031
0.14
0.03319
0.02865
0.04169
0.2473
0.1343
0.2602
0.1493
0.2551
0.2685
0.07314
0.1391
0.2054
0.05657
0.1583
0.02053
0.04339
0.02772
0.07168
0.04496
0.1944
0.1479
0.2481
0.09923
0.1988
0.1926
0.04651
0.07468
0.07825
0.195
0.06619
0.2853
0.213
0.02342
0.04801
0.02319
0.02433
0.1536
0.1257
0.1368
0.02427
0.215
0.1087
0.06755
0.0667
0.09795
0.04026
0.05907
0.1714
0.1084
0.06446
0.09255
0.04716
0.04436
0.1234
0.07073
0.08553
0.05594
0.02584
0.04587
0.05624
0.2361
0.09687
0.1152
0.04267
0.07272
0.1931
0.1978
0.3041
0.03668
0.02527
0.03762
0.05612
0.1234
0.02366
0.05849
0.0431
0.1747
0.1106
0.1516
0.08275
0.03865
0.0101
0.08821
0.07526
0.2049
0.1088
0.08602
0.08644
0.2397
0.02334
0.03392
0.01482
0.3233
0.1291
0.02142
0.07877
0.006105
0.05581
0.3052
0.2893
0.08683
0.07149
0.162
0.05937
0.1208
0.1149
0.1048
0.04075
0.01947
0.06016
0.2283
0.04339
0.2048
0.1938
0.09716
0.1649
0.07772
0.1061
0.09859
0.07089
0.06878
0.08179
0.07603
0.3343
0.06601
0.1907
0.06173
0.1607
0.097
0.03183
0.03606
0.0557
0.07459
0.04071
0.02286
0.2521
0.04738
0.04832
0.09873
0.1462
0.05231
0.03629
0.05326
0.2621
0.06772
0.2386
0.1561
0.04165
0.1407
0.041
0.06714
0.1196
0.0993
0.2128
0.1089
0.04402
0.1008
0.2399
0.05375
0.2247
0.12
0.1446
0.003259
0.2272
0.0231
0.07812
0.1452
0.1879
0.1093
0.06789
0.1343
0.04613
0.05346
0.09079
0.04357
0.04424
0.2131
0.2198
0.07199
0.05533
0.04353
0.09671
0.09553
0.1087
0.359
0.07976
0.2789
0.05216
0.02874
0.05393
0.05467
0.2085
0.1805
0.2417
0.04045
0.3142
0.08476
0.2511
0.07891
0.05656
0.0842
0.267
0.08043
0.3702
0.1062
0.1149
0.0685
0.06147
0.07648
0.162
0.01525
0.04928
0.06077
0.2915
0.0971
0.07249
0.2455
0.02357
0.2915
0.02072
0.02794
0.1089
0.06719
0.2033
0.08164
0.2971
0.1146
0.07297
0.128
0.08498
0.04183
0.06756
0.02402
0.1945
0.02757
0.07309
0.03451
0.07361
0.06242
0.2872
0.189
0.07845
0.1449
0.08002
0.06767
0.1927
0.08088
0.05638
0.1663
0.04913
0.1476
0.1546
0.0008794
0.09116
0.05885
0.1204
0.04108
0.1301
0.05763
0.3539
0.09829
0.1423
0.3109
0.05498
0.1881
0.09926
0.05619
0.3143
0.1899
0.2472
0.07266
0.02249
0.02613
0.2296
0.02812
0.07934
0.06972
0.1171
0.05833
0.1643
0.06066
0.2391
0.06167
0.02092
0.08075
0.07083
0.01769
0.04647
0.06417
0.09048
0.03465
0.2626
0.07396
0.04416
0.04884
0.2331
0.04161
0.2518
0.04036
0.06056
0.03227
0.1503
0.07565
0.03528
0.2007
0.06471
0.08517
0.2183
0.1874
0.0877
0.05922
0.0801
0.2775
0.217
0.04211
0.2299
0.03453
0.04525
0.07651
0.1278
0.02504
0.1034
0.0392
0.04444
0.1042
0.0277
0.03204
0.2137
0.2851
0.1
0.06865
0.03922
0.02572
0.04343
0.04433
0.04408
0.134
0.05213
0.06698
0.05705
0.1179
0.13
0.3089
0.03731
0.08867
0.09587
0.02185
0.2407
0.3609
0.05643
0.2037
0.1601
0.1458
0.07968
0.1536
0.1215
0.2012
0.02991
0.02582
0.1621
0.1409
0.107
0.06703
0.08443
0.3235
0.0403
0.04678
0.03468
0.28
0.08172
0.1478
0.182
0.2909
0.06067
0.04204
0.2801
0.1091
0.08152
0.04671
0.02401
0.1283
0.04247
0.07947
0.03174
0.02127
0.07807
0.1449
0.1161
0.2334
0.03805
0.06052
0.04103
0.0927
0.2644
0.1472
0.09093
0.1065
0.1015
0.1514
0.1223
0.2036
0.127
0.02019
0.03158
0.03151
0.05695
0.1259
0.03528
0.04338
0.1674
0.3219
0.07262
0.02075
0.08583
0.3589
0.08612
0.2036
0.1525
0.06168
0.2507
0.2694
0.05266
0.1661
0.05047
0.02209
0.1596
0.3318
0.02095
0.02622
0.03161
0.05297
0.1147
0.2911
0.2375
0.07952
0.0948
0.1188
0.05645
0.03171
0.1543
0.09925
0.179
0.3126
0.0744
0.08469
0.213
0.03906
0.05067
0.323
0.06217
0.2042
0.05965
0.0636
0.06276
0.3122
0.05353
0.2377
0.3238
0.1048
0.2747
0.05931
0.132
0.04892
0.1206
0.07449
0.06103
0.1552
0.08274
0.02927
0.003051
0.04895
0.05262
0.06392
0.06846
0.3117
0.08993
0.1045
0.1681
0.06564
0.0724
0.2184
0.1056
0.2471
0.07491
0.1967
0.0368
0.07555
0.04105
0.01813
0.1919
0.1471
0.07872
0.03719
0.08904
0.05617
0.2638
0.09309
0.08915
0.2091
0.1137
0.2282
0.07906
0.276
0.02851
0.0331
0.03584
0.2499
0.08309
0.1333
0.1635
0.1004
0.3175
0.1579
0.3014
0.04175
0.03894
0.1502
0.02877
0.1075
0.1611
0.1073
0.0198
0.2495
0.1146
0.1131
0.1255
0.02265
0.04912
0.1215
0.07931
0.1092
0.07383
0.04636
0.1152
0.05407
0.1422
0.01524
0.06004
0.2213
0.04152
0.1151
0.1175
0.05051
0.07686
0.01239
0.06484
0.1385
0.204
0.05614
0.08824
0.04556
0.07873
0.2082
0.04053
0.2709
0.0312
0.07798
0.06836
0.368
0.05298
0.06799
0.07179
0.1485
0.04641
0.06996
0.02726
0.0596
0.05413
0.1117
0.0337
0.141
0.1013
0.1016
0.1315
0.2254
0.1479
0.1332
0.1551
0.03273
0.2394
0.1264
0.2291
0.03606
0.1795
0.09785
0.0389
0.3148
0.104
0.1068
0.104
0.1979
0.07984
0.2104
0.06408
0.2228
0.008942
0.09511
0.0497
0.109
0.02301
0.1012
0.125
0.1514
0.02947
0.129
0.04905
0.0799
0.02237
0.1745
0.123
0.04997
0.1585
0.2089
0.0426
0.0945
0.2498
0.1545
0.08176
0.1635
0.05067
0.04568
0.009955
0.1757
0.2375
0.1275
0.05055
0.06754
0.05471
0.1176
0.08393
0.2152
0.04382
0.03771
0.05733
0.04715
0.1302
0.0713
0.05563
0.01883
0.04359
0.1309
0.1183
0.05937
0.08159
0.04293
0.1392
0.1121
0.09893
0.1489
0.02929
0.0752
0.1299
0.06222
0.0715
0.1657
0.03919
0.1912
0.1376
0.1083
0.07304
0.03749
0.161
0.03281
0.2199
0.09951
0.03037
0.1036
0.1052
0.3033
0.02818
0.08794
0.1424
0.06636
0.1678
0.07633
0.03184
0.1313
0.03543
0.3299
0.06145
0.211
0.05585
0.2416
0.1556
0.2271
0.06226
0.08714
0.08559
0.1507
0.02729
0.0697
0.2787
0.05738
0.06258
0.09826
0.2398
0.07136
0.1569
0.193
0.05971
0.05394
0.06198
0.1575
0.03256
0.02302
0.09793
0.06165
0.03856
0.2919
0.1191
0.03727
0.06697
0.1511
0.04995
0.03743
0.04972
0.1546
0.07377
0.06171
0.3287
0.04024
0.285
0.0754
0.0764
0.2226
0.0437
0.03367
0.1797
0.1041
0.05313
0.0285
0.3103
0.06248
0.2003
0.04086
0.05941
0.09594
0.08551
0.07938
0.03524
0.1988
0.3101
0.1023
0.08011
0.04466
0.08739
0.02767
0.1452
0.07141
0.2703
0.1727
0.04952
0.1281
0.1064
0.1782
0.07028
0.03966
0.05445
0.05375
0.1198
0.05166
0.2002
0.1695
0.1322
0.08672
0.08567
0.07619
0.1239
0.04489
0.3053
0.0499
0.1315
0.1095
0.2304
0.06408
0.07231
0.1338
0.1069
0.1157
0.1943
0.1593
0.1169
0.04671
0.124
0.2632
0.08196
0.1091
0.2488
0.0782
0.03508
0.1782
0.1945
0.0389
0.08984
0.287
0.08591
0.02308
0.1285
0.04867
0.04384
0.1332
0.05447
0.1728
0.1433
0.01999
0.0221
0.06142
0.05002
0.09963
0.3315
0.04105
0.06246
0.1275
0.06867
0.05867
0.1206
0.1262
0.2847
0.2972
0.0877
0.05325
0.09034
0.3268
0.02976
0.3091
0.05007
0.1588
0.2466
0.1755
0.1445
0.2289
0.2949
0.1675
0.114
0.02918
0.1092
0.1326
0.3334
0.1362
0.06963
0.2158
0.09503
0.1281
0.07437
0.07806
0.1264
0.04781
0.1097
0.1882
0.1598
0.02141
0.2882
0.2995
0.0874
0.02589
0.1174
0.08124
0.02571
0.04995
0.1075
0.1162
0.09746
0.2065
0.07882
0.06253
0.05981
0.07755
0.248
0.343
0.2501
0.03224
0.0475
0.3589
0.03534
0.2039
0.1108
0.05773
0.03353
0.09708
0.2054
0.08555
0.3
0.06199
0.05779
0.03074
0.06812
0.183
0.05732
0.07929
0.0984
0.2094
0.3534
0.1545
0.117
0.2291
0.03743
0.08432
0.02332
0.2249
0.03496
0.3367
0.2547
0.02617
0.0874
0.05413
0.03091
0.1698
0.08768
0.09949
0.02937
0.03559
0.09371
0.2092
0.0655
0.1261
0.06523
0.02848
0.08273
0.1161
0.04085
0.2119
0.04238
0.01997
0.04316
0.1438
0.08414
0.06867
0.05345
0.2863
0.09987
0.02134
0.03083
0.04245
0.0774
0.01587
0.2131
0.3485
0.05721
0.1309
0.1406
0.07778
0.02119
0.09755
0.04802
0.274
0.0171
0.08707
0.05107
0.04478
0.09538
0.07127
0.07574
0.06636
0.03326
0.2812
0.1799
0.04534
0.3374
0.06118
0.1776
0.1162
0.03106
0.05742
0.2819
0.2537
0.07574
0.06119
0.3192
0.04249
0.01322
0.09596
0.2721
0.1739
0.04869
0.02459
0.01719
0.1336
0.1249
0.3235
0.06956
0.134
0.1159
0.1046
0.01428
0.2803
0.1479
0.06518
0.1209
0.07745
0.05789
0.02846
0.09956
0.06103
0.07594
0.1429
0.07551
0.04671
0.06386
0.03633
0.3082
0.06847
0.07927
0.03272
0.04407
0.08676
0.1584
0.1665
0.04926
0.02257
0.0941
0.03136
0.2321
0.04284
0.02724
0.06456
0.1415
0.06304
0.1062
0.1815
0.0703
0.0414
0.2705
0.2011
0.1645
0.1247
0.2825
0.05901
0.124
0.04943
0.2297
0.05081
0.06195
0.1026
0.1265
0.06255
0.3328
0.136
0.07288
0.2598
0.1928
0.1272
0.099
0.3034
0.2015
0.115
0.09024
0.3369
0.0251
0.12
0.0369
0.1042
0.1295
0.09391
0.1482
0.0275
0.1605
0.04254
0.06198
0.07949
0.3062
0.08901
0.1267
0.03637
0.04763
0.03765
0.2383
0.05946
0.1355
0.06893
0.02465
0.2824
0.1736
0.1705
0.1005
0.07096
0.04558
0.0598
0.2923
0.1027
0.04945
0.05647
0.09818
0.1225
0.05619
0.03375
0.115
0.04272
0.1493
0.009927
0.06621
0.01912
0.03462
0.07035
0.1694
0.06563
0.1126
0.1311
0.1979
0.09528
0.2611
0.07227
0.1507
0.3138
0.1136
0.02957
0.08703
0.02198
0.03716
0.2309
0.06065
0.09149
0.1781
0.06662
0.1054
0.08054
0.0817
0.05948
0.2338
0.1212
0.07405
0.08385
0.1773
0.08761
0.04085
0.08779
0.1151
0.15
0.07469
0.02561
0.3144
0.2849
0.181
0.1243
0.1477
0.02052
0.02987
0.02699
0.04859
0.03652
0.06786
0.04477
0.1434
0.06215
0.07892
0.08479
0.05238
0.1967
0.08882
0.0447
0.02593
0.1556
0.208
0.02106
0.1269
0.1857
0.1033
0.05097
0.08447
0.08342
0.03803
0.2259
0.1068
0.1313
0.1319
0.0636
0.1784
0.09601
0.08947
0.1022
0.0648
0.04089
0.1694
0.0342
0.04565
0.1004
0.07857
0.05937
0.07877
0.1511
0.03266
0.08456
0.106
0.08446
0.06736
0.07323
0.03853
0.1243
0.02332
0.2515
0.2498
0.1493
0.1711
0.07271
0.1223
0.03548
0.1473
0.09325
0.2617
0.1814
0.1659
0.1261
0.2637
0.1087
0.2285
0.04317
0.008829
0.1416
0.04407
0.08135
0.06872
0.08957
0.165
0.2123
0.1416
0.04486
0.08073
0.2802
0.03168
0.0804
0.09357
0.05401
0.1513
0.3542
0.2163
0.03008
0.1644
0.04408
0.2161
0.1001
0.08728
0.03986
0.02069
0.1052
0.07267
0.1839
0.2334
0.02886
0.1383
0.1218
0.01193
0.1501
0.1653
0.0805
0.1374
0.1345
0.241
0.03987
0.01667
0.07732
0.09992
0.0535
0.09311
0.2211
0.2169
0.04418
0.08931
0.07258
0.03352
0.02464
0.0877
0.2359
0.07189
0.0284
0.03557
0.181
0.1099
0.04545
0.1878
0.08849
0.1669
0.06043
0.00627
0.1534
0.08202
0.1842
0.07305
0.1148
0.04045
0.05981
0.1323
0.1723
0.1386
0.1254
0.04679
0.3465
0.2857
0.2347
0.1423
0.2657
0.1296
0.0352
0.04812
0.06822
0.1883
0.1458
0.01873
0.0975
0.06665
0.1027
0.1684
0.0442
0.2053
0.1124
0.03737
0.2348
0.1681
0.307
0.2703
0.02445
0.1908
0.06164
0.1147
0.1344
0.02835
0.06373
0.04549
0.05726
0.1576
0.1984
0.1984
0.04397
0.2593
0.2435
0.1501
0.1262
0.2496
0.2279
0.02964
0.06075
0.1756
0.1227
0.3615
0.09033
0.05001
0.1679
0.01898
0.1075
0.1027
0.2245
0.2236
0.03111
0.1986
0.05238
0.05752
0.2091
0.05466
0.1448
0.276
0.09033
0.04424
0.1847
0.05546
0.1593
0.0774
0.0996
0.03284
0.1713
0.06543
0.03218
0.22
0.1315
0.1276
0.1228
0.07915
0.02338
0.02495
0.1088
0.2896
0.1174
0.1247
0.1774
0.1592
0.08433
0.01688
0.02554
0.07109
0.2957
0.3191
0.1792
0.04654
0.1962
0.08263
0.05669
0.01542
0.1165
0.2652
0.1658
0.06281
0.1853
0.08267
0.08813
0.1304
0.09241
0.09089
0.06111
0.1033
0.02467
0.1094
0.1905
0.07881
0.05234
0.02138
0.09178
0.1691
0.02242
0.1319
0.02276
0.07042
0.0383
0.0478
0.1148
0.087
0.08297
0.04727
0.157
0.05994
0.1411
0.02317
0.1767
0.0776
0.08493
0.07694
0.08619
0.2247
0.1701
0.1063
0.07493
0.1246
0.1744
0.2945
0.302
0.1471
0.02967
0.04756
0.1076
0.06418
0.06504
0.1996
0.2577
0.03166
0.1975
0.08232
0.1287
0.1788
0.1277
0.02763
0.119
0.0783
0.05536
0.1256
0.1572
0.02887
0.09862
0.07664
0.07177
0.04
0.05482
0.1857
0.08123
0.2159
0.07487
0.1204
0.2086
0.306
0.09722
0.05189
0.05582
0.1287
0.1046
0.07707
0.1851
0.03551
0.2379
0.03196
0.03779
0.2014
0.09715
0.05015
0.1542
0.1495
0.1493
0.06504
0.03653
0.1051
0.05023
0.02939
0.09675
0.02427
0.07641
0.02898
0.09703
0.05605
0.06034
0.2164
0.02653
0.07276
0.1381
0.08885
0.07046
0.1865
0.06819
0.1422
0.06332
0.3158
0.08788
0.1185
0.1357
0.3639
0.04327
0.03095
0.06018
0.2593
0.09647
0.2388
0.05547
0.05233
0.2037
0.07211
0.09827
0.05303
0.1743
0.02485
0.07815
0.1405
0.2067
0.151
0.07239
0.07937
0.03419
0.02854
0.2302
0.05898
0.1162
0.07995
0.09188
0.03233
0.0352
0.05352
0.07255
0.02462
0.2221
0.1172
0.02554
0.1574
0.02378
0.1823
0.111
0.1003
0.1567
0.1328
0.04956
0.04669
0.02844
0.1207
0.08572
0.2827
0.1473
0.0379
0.1977
0.09672
0.1254
0.09424
0.02194
0.2102
0.07869
0.04774
0.09101
0.02207
0.02286
0.1127
0.09599
0.2114
0.03839
0.01037
0.09658
0.04309
0.07258
0.3436
0.08659
0.1037
0.05529
0.1439
0.1995
0.1492
0.3526
0.1873
0.08446
0.0315
0.06816
0.04777
0.302
0.1227
0.07692
0.07337
0.1968
0.02144
0.2778
0.1661
0.1555
0.03587
0.2874
0.0323
0.3188
0.07349
0.06329
0.04279
0.08568
0.164
0.1685
0.039
0.3781
0.1548
0.006758
0.08272
0.09667
0.06118
0.1509
0.04121
0.2233
0.1316
0.05238
0.07811
0.04451
0.2928
0.1739
0.1491
0.07007
0.09353
0.0409
0.09073
0.1336
0.1578
0.06288
0.04526
0.09539
0.05644
0.1191
0.1242
0.1696
0.07988
0.03612
0.125
0.08023
0.03066
0.08754
0.08985
0.188
0.06306
0.09781
0.1073
0.1741
0.05079
0.3402
0.3004
0.05227