/*--------------------------------*- C++ -*----------------------------------*\
  =========                 |
  \\      /  F ield         | OpenFOAM: The Open Source CFD Toolbox
   \\    /   O peration     | Website:  https://openfoam.org
    \\  /    A nd           | Version:  8
     \\/     M anipulation  |
\*---------------------------------------------------------------------------*/
FoamFile
{
    version     2.0;
    format      ascii;
    class       volScalarField;
    location    "15";
    object      nut;
}
// * * * * * * * * * * * * * * * * * * * * * * * * * * * * * * * * * * * * * //

dimensions      [0 2 -1 0 0 0 0];

internalField   nonuniform List<scalar> 
63564
(
1.152e-09
6.537e-11
8.157e-11
2.972e-10
2.889e-10
8.072e-06
1.478e-10
3.7e-10
6.032e-06
4.508e-09
0.03935
0.0193
7.243e-06
0.004934
8.115e-06
7.741e-06
6.614e-05
6.267e-05
0.0004561
0.0001012
0.001867
0.01466
8.781e-05
0.01934
3.608e-09
0.03795
0.0001058
0.004745
0.001103
6.595e-06
0.004835
0.04037
0.04096
0.01322
0.003413
0.0004507
0.1488
0.002994
0.003101
0.0006884
6.726e-05
0.01113
7.003e-05
0.002714
8.514e-06
0.0003217
0.0001289
0.005923
0.003214
5.17e-05
0.04352
0.00501
0.001886
0.0002848
0.004514
0.1528
0.003401
0.004316
5.258e-05
0.003246
3.227e-06
0.0003676
0.009349
0.002627
0.002002
0.001701
0.002798
3.734e-07
0.002095
0.1953
0.006619
0.2061
0.006621
0.009512
0.004953
0.001614
0.0161
0.006115
0.004872
0.000206
0.0007041
0.002003
0.0005548
0.00149
0.0001988
0.009488
0.001511
0.002641
0.001452
0.001534
0.01369
0.003587
0.002013
0.2026
1.735e-07
0.009466
1.661e-06
0.002047
1.818e-09
0.002129
0.08384
0.004249
0.001275
3.307e-06
8.456e-05
0.00249
0.00534
0.0001797
0.0001796
0.0151
0.0004044
0.006586
0.004589
0.012
1.518e-06
0.004654
0.00201
7.84e-08
0.004339
0.002122
0.0007201
0.002747
0.009418
3.536e-06
5.382e-05
8.808e-06
0.008666
0.006655
0.009493
0.04509
0.006007
0.0006541
0.0006754
0.0142
0.005996
0.004237
0.004851
0.003731
0.003317
2.057e-07
0.001841
0.01675
0.0005084
0.0002968
0.002752
0.01483
0.0001572
0.02221
0.0001518
0.01206
0.05778
0.0005789
0.009554
0.0001941
0.0006228
0.009177
0.009132
0.001669
0.2128
0.005639
0.003916
0.0007047
0.002693
0.002204
0.02433
0.0015
0.0038
0.0008185
0.006541
0.0005866
0.007407
0.003783
0.05166
0.001108
0.001162
0.0003744
0.001042
0.1074
6.332e-06
0.005053
0.03718
1.965e-05
9.864e-05
0.008975
0.02087
0.0002894
0.0004551
0.0005395
0.0001127
0.005225
0.001542
0.003784
0.005577
0.001976
0.003578
0.0138
0.001587
3.279e-05
0.000996
0.006356
0.0008372
0.001019
0.001337
0.06685
0.006515
0.0008306
0.001259
0.1893
0.0003141
0.004261
0.004785
0.0003325
0.002235
0.001039
0.002691
0.01638
0.004144
0.01614
0.003951
0.005209
0.0005677
0.005662
0.04224
0.0125
0.04402
0.0003289
0.007201
0.001063
0.006734
0.008419
0.0002813
0.004262
3.543e-08
0.00166
0.002123
0.009947
1.267e-08
1.566e-06
1.033e-06
0.0008481
0.003127
0.008843
0.00187
0.0046
0.005715
5.778e-05
0.003393
5.069e-06
0.0002289
0.01682
0.0002367
0.0002974
0.005154
0.0001378
0.01979
0.0006302
0.01502
0.0006015
0.001171
0.0005084
0.0002553
0.009306
0.009991
0.001973
0.001101
0.00012
0.002316
0.003293
0.0006635
0.003695
0.0001737
3.747e-05
0.0002929
0.004759
5.783e-05
0.001297
0.004051
0.001808
0.02198
0.0006046
0.009534
8.583e-05
0.001752
0.008561
0.0004327
0.0001421
0.00237
0.007473
0.001156
0.001357
0.004944
0.006861
0.003578
0.0004472
0.0001776
0.0004586
0.009223
0.004811
0.00401
0.0007523
0.0004048
0.001451
0.004325
0.02213
0.009922
0.008435
2.744e-05
0.001581
0.001218
0.0004536
0.0004173
0.004478
1.197e-08
0.0002002
0.002781
0.00222
0.001886
0.001704
0.0009703
0.002868
0.0005269
0.00541
1.488e-05
0.00201
0.02204
0.02121
0.0002314
0.007587
0.0004529
0.009723
0.0876
0.05321
0.0003341
2.864e-07
0.006307
0.005331
4.233e-05
0.03002
0.01222
0.004026
0.003509
0.01619
0.009643
5.476e-09
0.0009668
0.02492
0.00379
2.685e-05
0.001112
0.0008753
0.001439
0.0009632
0.001872
0.005076
0.0002475
0.0004217
0.006315
0.005684
0.001825
0.001694
0.0008095
0.005015
0.01195
9.991e-05
0.03914
0.009097
0.0002822
0.001996
0.0004278
0.007228
1.805e-06
0.007341
0.0003145
0.003811
0.002975
3.692e-09
0.002041
0.002514
0.0001801
0.003357
0.0007626
0.001264
0.0008223
0.0263
0.001021
0.005066
0.001401
0.0221
0.01268
0.009228
0.000758
0.004093
8.19e-06
0.003198
0.001691
0.0004974
0.0002053
5.525e-05
0.09592
0.002822
0.001323
0.008592
5.834e-05
0.0004457
0.0002556
0.0003613
0.03954
0.02045
0.0005146
0.1099
0.0002863
1.43e-05
0.002701
0.001294
1.146e-05
0.001701
0.0002046
0.02704
2.587e-05
0.005874
0.00253
0.01469
0.03484
0.002067
0.0003957
7.729e-06
0.001557
0.01199
0.0005394
0.004372
0.0005219
0.002321
0.01462
0.03911
5.256e-06
8.228e-06
0.005846
6.859e-05
0.001082
0.02073
5.571e-06
0.02935
0.0008848
0.009917
4.157e-05
7.504e-06
0.001401
0.0004613
0.000908
0.09019
0.1893
0.0001206
0.004657
9.217e-05
0.007044
0.001073
0.00471
0.0002255
0.0008551
0.000436
0.006436
0.009506
0.002378
0.001408
0.005219
0.0003813
0.0003675
0.007519
0.0008238
6.552e-05
1.107e-05
0.004527
0.005907
0.002919
0.004769
0.0005495
0.01038
0.0006334
0.0235
0.0001555
0.001337
0.02233
0.0004198
0.00603
0.01139
0.001501
2e-05
6.199e-05
0.01231
0.002521
1.613e-05
0.003798
0.003999
5.566e-06
0.0004187
0.0004588
0.0003708
0.00488
0.0007151
0.0001174
0.002641
0.001078
0.001131
1.696e-05
0.03598
0.0003801
0.007184
0.0007258
0.0005705
4.724e-05
0.0004002
1.114e-05
0.002212
0.0008334
0.02895
0.0006984
0.000803
0.007495
0.003421
0.0002479
0.01333
0.0007111
0.0003496
0.006724
0.0007265
0.001136
0.0005492
0.000562
0.01309
0.0002697
0.001118
0.0009477
0.00482
0.0008528
0.0002163
1.604e-05
0.007379
2.677e-05
0.002953
0.001451
0.0001942
7.102e-05
5.185e-06
0.000184
0.0002432
0.01226
0.03162
0.0001299
3.655e-06
0.002253
0.0008605
0.0003931
7.353e-05
0.001575
0.008356
0.02844
8.217e-06
0.01085
2.328e-05
0.004441
1.625e-05
0.0002679
0.0001967
0.009566
1.467e-05
0.001496
4.226e-08
0.035
3.981e-05
0.007752
0.0001093
0.0002052
0.001029
0.05823
0.01392
0.001346
0.002491
0.008932
4.695e-05
0.005155
0.005995
0.02285
8.546e-06
9.949e-05
0.0001109
0.001262
0.002107
0.009529
0.003108
0.02178
0.0001157
0.0001383
0.0002054
0.003467
0.004493
0.02415
0.0003679
0.0003227
0.00159
0.0001187
0.001531
0.006878
1.184e-05
0.002477
0.0004652
0.003205
0.0168
0.1089
0.003204
0.0193
0.001491
0.001165
0.0008311
0.0004736
0.007892
0.0153
0.01464
0.001567
0.003922
0.004429
0.03924
0.002673
0.008257
0.01415
0.06665
0.0002447
0.001872
4.204e-06
0.001153
0.0004015
0.0003301
0.001947
0.001328
2.561e-05
0.002352
0.002003
0.00252
0.02386
0.0002487
0.01186
0.001957
0.0008409
0.009847
0.009325
2.403e-05
0.001077
0.005999
0.0008346
0.003584
0.00149
1.02e-05
0.001992
0.001111
0.007106
0.0046
0.006157
0.001353
0.008175
0.006735
0.001954
0.001286
0.0003443
0.07242
0.0002482
0.003235
2.236e-07
8.109e-05
6.649e-06
0.001139
0.06849
7.494e-05
0.00281
0.0002135
0.0006245
0.002946
0.005039
0.01981
9.496e-06
0.002563
0.001041
0.07345
0.03917
0.01088
0.006213
0.004086
0.0004025
0.000362
0.005638
0.0008289
0.0007595
0.005586
0.001408
0.000322
0.056
0.003552
0.002077
0.0001938
0.09264
0.000611
5.886e-06
0.1208
8.067e-06
0.001311
0.001637
6.635e-05
0.01096
0.007297
0.0003482
0.003296
0.002975
0.0002224
0.007384
0.0002468
9.277e-06
0.0006715
0.005253
0.004613
0.000394
0.05773
0.005127
2.622e-05
0.001588
0.0003407
0.005872
8.035e-05
0.0002196
0.003668
4.917e-05
7.551e-05
0.0001052
0.004656
0.007057
0.007686
0.004512
0.0004485
0.000334
0.09642
0.003833
1.052e-05
0.001156
0.000435
0.003582
0.001548
0.001141
0.007179
0.000538
0.01851
0.005916
1.408e-05
0.05934
0.002545
0.003985
8.589e-05
0.001108
0.0208
0.02658
0.007044
0.01857
0.009509
0.001561
0.001759
0.002578
0.00181
0.1474
0.04752
0.004323
0.0001274
0.03892
0.009238
0.001356
0.001866
0.00752
0.01134
0.007401
0.0004745
0.001255
0.005051
0.003831
0.0312
0.002528
0.0006842
1.323e-05
0.0006264
4.082e-05
0.02074
0.001048
0.01038
1.352e-05
0.001026
0.0003525
0.00359
8.05e-05
0.001266
0.001535
2.831e-06
0.0006609
0.0009443
0.001222
0.005338
0.002973
0.0002052
0.0005351
0.0004888
1.214e-05
0.004097
0.002916
0.03125
0.1966
0.0006749
0.02477
0.01199
0.0008861
0.006121
0.000997
4.776e-05
0.004706
0.0001886
0.004242
0.008055
0.0009435
0.005472
0.006951
0.0002087
0.003582
0.01071
0.2472
0.02317
0.004373
7.656e-06
0.00176
0.01942
0.00312
0.0007985
0.01067
1.105e-05
1.982e-05
7.75e-06
0.01065
0.0001143
0.03138
0.004439
1.784e-06
0.009233
0.1856
8.406e-05
0.001424
0.007584
0.005094
2.239e-05
0.01
0.001136
0.04486
0.004989
0.0018
0.002037
7.46e-05
0.01424
0.05233
7.484e-05
0.01129
0.0002012
0.0001236
0.008655
0.002295
0.003687
0.0004417
0.001044
0.0003769
0.0008572
0.03182
0.01316
0.08699
9.199e-05
0.001156
0.002265
0.001575
0.007985
0.007104
0.08153
1.223e-05
0.0002027
0.004653
0.01013
0.001186
0.0001525
0.008998
0.001675
0.007629
0.001781
0.0004807
0.03873
0.0054
0.01183
1.509e-05
0.01382
0.0006249
0.01211
0.01456
8.756e-06
0.01362
0.0002228
0.0004229
0.001844
0.001606
0.02531
0.002087
0.0834
0.001946
0.0003317
0.003229
0.002223
0.0007447
0.001748
0.004198
6.442e-05
0.0005205
0.0009161
4.877e-05
0.001658
0.00388
0.003055
0.001585
0.002733
0.003572
0.002541
0.008492
0.002439
0.000768
0.00108
0.0003556
0.0003273
0.001526
0.005584
0.01497
0.0008345
0.0001149
0.0001831
0.004006
0.0002624
0.0001982
0.0029
0.005618
1.153e-05
0.001445
0.002554
0.03599
0.007672
0.0001884
0.007768
0.09672
0.0001759
0.008997
0.004947
0.01416
1.403e-05
0.0002118
0.001267
0.002379
0.001671
8.361e-05
0.01925
0.002617
0.006159
0.0001124
0.03384
4.457e-05
0.02945
0.1137
9.289e-06
0.0419
0.0002304
0.03181
0.007238
0.0001134
0.00139
0.001452
0.005209
8.395e-06
0.003654
0.00169
2.96e-05
0.00926
3.739e-05
3.752e-05
0.0001979
0.007349
8.147e-05
0.000153
0.004555
0.003374
0.02281
0.007545
0.0003815
0.008057
0.005341
2.711e-05
0.007037
0.0008029
0.002881
0.02413
0.003079
0.0006457
0.0002798
0.001789
0.0007302
2.036e-05
0.0009816
0.002749
0.0007152
0.005306
0.0002425
0.02115
0.00299
4.229e-05
0.01297
0.2391
0.001015
0.007304
0.002339
1.11e-05
0.003107
0.01002
0.0008885
0.002281
0.0001086
0.004541
0.00432
0.01696
0.001324
7.822e-06
0.0008806
0.0001407
0.04238
0.002235
0.002511
0.0006629
0.004037
0.0003492
0.001926
0.002321
0.0001258
0.0003297
0.0001002
0.0006435
0.005085
0.001877
2.722e-05
0.001838
0.001822
0.0003923
0.001819
0.001572
0.007119
0.001076
2.592e-05
0.1996
0.0003168
0.001825
0.0006761
0.005858
0.04923
0.0003254
0.0001965
0.006071
0.001739
0.01815
0.0105
0.002498
0.002169
7.604e-06
0.05264
0.006442
0.0001957
0.003759
0.0005201
0.006857
9.485e-05
7.118e-05
7.907e-05
4.983e-06
0.0192
0.01118
0.02143
2.044e-06
0.0001657
0.002356
2.082e-05
0.009333
1.993e-05
0.001592
0.006323
0.0005432
0.02074
0.0005312
0.06857
0.0008165
0.0005869
0.0002324
0.02742
6.691e-05
0.001978
0.008934
0.005046
0.0005807
0.00215
0.005091
0.00414
0.0004818
0.0005789
9.206e-06
1.281e-05
3.652e-06
0.0008517
2.276e-05
0.0001397
0.0002567
0.0004215
0.005777
0.009644
0.001128
2.59e-05
0.009813
0.006921
6.929e-05
0.002302
0.0007175
0.00425
0.002393
0.01532
0.0007586
0.09674
0.0004384
0.0009443
8.859e-06
0.00023
0.003247
0.01918
0.0005435
0.001305
0.001983
1.595e-05
8.5e-06
0.001534
0.001539
0.02301
0.01476
1.477e-05
0.006763
6.905e-05
0.001539
0.002784
0.003259
0.004829
0.09596
0.002113
0.003722
6.212e-06
0.01002
2.138e-06
0.05104
0.1847
9.971e-06
0.0004872
4.588e-05
0.0303
0.008918
0.001872
0.008304
0.000572
0.00525
0.000138
0.001373
0.001096
0.00301
0.001463
0.001039
0.04543
3.514e-05
0.03121
0.001041
0.02176
0.00113
0.01853
0.004797
0.0005402
0.0003349
0.0001483
0.001887
0.0003798
0.002435
3.564e-05
0.001305
0.0001672
0.03205
0.0009262
0.006125
0.01227
0.002761
0.0001498
0.0003975
0.001115
0.09715
0.009594
1.232e-05
0.0007159
0.002081
0.0009611
0.0004585
0.005162
0.001678
0.00391
0.003688
0.006199
0.0001376
0.001082
0.000227
0.004905
0.005366
0.0008916
0.006059
0.0003938
0.00902
0.0007579
0.01439
0.00229
0.0008107
9.026e-05
0.001331
6.96e-06
0.004445
4.249e-05
0.001401
0.002082
1.118e-05
0.000132
0.0024
0.008854
0.001559
0.0307
0.0009983
0.003438
0.0005998
2.921e-05
0.04126
0.0003466
1.449e-05
0.01643
0.004747
2.204e-05
0.001198
0.002495
6.217e-05
0.006257
0.006227
0.0007059
0.03716
0.0007996
0.01954
0.01175
0.006367
0.0006469
0.03074
0.005037
1.118e-05
0.007843
0.1139
0.001275
0.01327
0.001098
0.01947
1.393e-05
0.003634
0.1427
0.0001108
0.009234
0.00317
0.05273
0.0002357
0.002747
0.002626
0.006185
0.01322
0.0003003
0.00273
0.000117
8.812e-05
0.002062
0.0003191
0.0006774
0.1057
0.001142
1.365e-05
0.0001553
0.009026
9.324e-05
0.001405
0.00236
0.0001483
0.004581
0.0002766
0.0009975
0.009753
8.745e-05
4.217e-05
0.0002721
0.002981
0.0008159
0.003298
0.01538
0.1159
0.002105
0.0002548
0.01071
0.0263
2.687e-05
1.971e-05
0.002463
0.0001142
0.01332
0.02033
7.376e-05
0.0004058
0.0005277
0.003884
0.002914
0.0107
0.0007586
0.05618
0.003476
0.01512
0.02905
0.0003937
1.139e-05
6.713e-05
0.0033
0.0001595
0.002126
0.000862
0.02076
4.086e-05
0.000116
0.003283
0.02377
9.041e-06
0.002272
0.01252
0.0003183
0.001782
7.437e-06
0.005469
0.0007937
0.003116
0.002332
0.0004767
0.001116
0.01938
0.01167
0.01436
0.01027
0.0001941
0.00298
0.01464
0.0001171
0.002117
1.831e-05
0.01305
0.02583
0.0001031
0.0003974
0.001105
0.005727
0.002377
0.0005416
0.003915
0.2275
0.01132
0.00292
0.0007964
0.07589
3.372e-07
0.0003436
0.006503
0.001137
0.004833
0.003809
0.0001558
0.0005918
0.0001208
0.001945
0.01478
0.0009375
0.0005134
9.569e-07
0.003138
0.01664
0.006589
0.0001368
0.08375
0.0039
0.005053
0.001604
0.008746
0.0004317
0.001621
0.08129
0.02285
0.001943
0.0233
0.0002545
0.0001225
0.002272
0.0001855
0.0002043
0.005313
9.083e-05
0.04444
0.02216
8.427e-06
0.006544
0.006545
0.002825
0.008321
0.01014
0.0008313
0.003812
1.339e-05
1.265e-05
0.0001117
0.005465
0.03043
0.0007669
0.007788
0.006415
0.001423
0.003056
0.002137
0.04635
1.133e-05
0.003053
0.0004023
0.002027
7.249e-05
0.008595
0.0008077
0.0009905
0.0001194
0.005572
0.0035
0.004579
0.001058
0.000721
0.008018
0.003078
6.232e-06
0.01655
0.0009427
0.01508
0.2024
0.002551
0.0003535
0.06994
0.002712
1.542e-05
1.163e-05
0.001305
0.1273
0.0001616
0.007284
0.01544
0.0003991
0.02648
0.001591
0.01271
4.402e-05
0.0004081
0.001978
0.0008808
0.005155
0.04433
0.0008212
0.001515
9.468e-07
7.928e-05
0.00347
0.01212
0.02132
0.005513
0.001
0.0001929
0.0003098
0.00237
0.02688
0.0009469
0.003863
1.25e-05
0.005192
0.0005642
0.001273
0.02269
0.01328
0.003474
9.549e-06
0.0003681
0.001433
0.003035
0.001706
0.002326
0.009413
0.01316
0.003475
0.002441
0.05742
0.008119
0.02024
1.074e-05
0.0003407
0.00071
0.01409
0.0002835
0.003328
0.0005252
0.01373
0.00826
0.006019
0.004393
0.0005256
0.0005558
0.002418
0.002362
0.0007502
0.003038
0.0005728
0.009318
1.89e-06
0.004102
0.001039
0.000637
0.002059
0.003089
0.0001165
0.003498
0.1119
0.0006643
0.0005315
0.001895
0.0002176
0.0001668
0.002137
7.502e-06
0.001904
0.008305
0.0002227
0.0002965
0.006465
0.01721
0.01501
0.05308
0.01098
0.0535
0.005636
0.0002085
0.03787
0.0001767
0.00281
0.01957
1.198e-05
1.433e-05
0.001238
0.01218
0.000553
0.002356
0.0001185
0.007555
1.075e-05
0.002325
0.1367
7.659e-05
0.003387
0.0007482
0.003984
0.0001106
0.001304
1.592e-05
0.1025
0.004914
0.01131
0.0001823
0.002859
0.001244
3.588e-05
0.001159
0.002276
0.1301
0.003732
0.007515
0.0001052
0.006546
0.05562
0.001636
9.263e-05
0.001089
0.003902
0.002139
0.004874
0.01217
0.001423
4.821e-05
0.04002
0.01884
0.002802
1.653e-05
0.0006115
0.02114
0.01638
0.006191
0.01022
0.009339
0.0001056
0.07833
0.001432
0.002199
1.337e-05
0.09542
0.0002807
0.0111
0.1019
0.01657
0.003755
0.00407
0.008218
0.005853
0.004974
0.0004837
0.0007226
0.001589
0.0003763
0.0005728
0.0001431
0.003347
0.1393
8.338e-05
0.006449
0.0005697
0.02701
0.0001952
0.0206
0.004188
0.01273
0.0007255
0.0003761
0.007782
0.0002276
0.005195
0.005449
0.0004851
0.009044
0.00541
0.003981
0.001089
0.01983
0.002612
0.002276
0.001137
0.0006404
0.003764
0.003143
0.001787
1.166e-05
0.0005817
0.003938
0.01766
0.0003088
0.01125
1.139e-05
0.0004214
0.003817
0.002357
0.001329
0.003023
0.0002564
0.0005387
0.004725
0.0002014
0.006765
0.0005736
0.002817
1.778e-05
0.009327
0.004543
0.006962
0.007493
0.003555
0.03172
0.001149
0.0007239
0.001537
0.004219
0.004294
0.0002982
0.0006156
0.001678
0.001714
0.0005262
0.000391
0.001241
0.09803
2.553e-05
0.001361
0.01721
0.0006212
0.0005234
5.253e-05
0.002147
9.626e-06
0.001532
0.00131
0.0009091
0.003082
0.01184
0.001752
0.00125
0.003573
0.000518
0.0008831
0.003792
0.0001557
0.001541
9.233e-05
0.001947
0.05031
4.243e-05
0.0001086
0.0003244
0.004992
0.002813
0.002288
0.01184
9.941e-05
1.143e-05
0.00807
0.001152
0.009823
0.002984
0.008743
5.502e-05
0.004928
0.0005084
0.008294
9.693e-05
0.0002792
0.002015
0.0008919
9.186e-05
5.074e-05
0.01793
0.003021
0.006553
0.009092
0.00804
0.00213
0.0009053
0.1263
0.00109
0.002505
1.532e-05
0.03502
0.0007477
0.02543
0.0002487
0.004506
0.006697
0.001594
0.003276
0.004032
0.003673
0.004752
0.002186
0.0001209
0.001605
0.003744
0.005423
0.001912
0.004131
0.003085
0.001506
0.003803
0.001539
0.005625
0.0008975
0.005068
0.003427
0.0004693
0.004872
0.0002437
0.01018
0.0007959
0.0008613
0.004754
0.001976
0.02979
0.0008362
0.002118
0.0004691
0.008323
0.00142
0.005401
0.001588
0.002612
0.0009635
0.002203
0.00411
0.002634
0.01777
0.0002328
1.335e-05
0.01166
1.163e-07
0.0001016
0.0002101
0.005354
0.00627
0.007136
3.318e-06
0.006566
0.0002028
1.604e-05
0.004806
0.006896
1.332e-05
0.001134
0.005579
0.0002749
0.000869
0.0004155
0.002189
0.0001147
0.002506
0.01863
0.003361
0.139
0.000718
0.004467
3.271e-07
0.002629
0.0003696
0.000139
0.0001178
0.03721
0.01017
0.028
0.0007406
0.000562
0.002683
0.0007547
9.801e-05
0.00143
0.007131
0.000119
0.0004114
0.004012
0.003671
0.000296
0.0008058
0.002028
4.859e-05
0.001251
0.000319
0.06573
7.576e-06
0.003315
0.0002974
0.02388
0.004306
0.002151
0.001274
0.002995
0.005737
0.002797
0.001227
0.001673
0.004163
0.001766
0.0002216
0.002918
0.001812
0.002394
0.2094
0.0001224
0.01154
0.009814
0.002344
0.001347
0.0008816
0.008921
0.0001769
0.01316
0.003795
0.007672
0.0002394
0.03548
0.02907
0.01869
0.01826
1.152e-05
0.0003229
0.007323
0.005753
0.002968
0.000778
0.0007281
0.0006624
1.793e-05
0.01255
0.05582
0.006781
0.06367
0.00518
0.0004371
8.976e-06
0.001309
0.0002248
0.0001441
0.03323
7.955e-06
0.001027
0.009284
0.2331
0.00688
0.1279
0.0004483
0.004484
0.00766
0.0008831
0.008921
0.001237
0.0008969
0.0001922
0.001842
0.1033
0.002671
0.005409
0.002419
0.001221
0.008298
0.1043
0.002378
0.00088
0.0004826
0.008918
0.0002374
0.006364
0.003566
0.01437
0.0001502
0.0001393
0.00469
0.005428
0.02561
0.03117
0.000989
0.008403
0.002248
8.249e-06
0.002267
3.673e-05
1.913e-05
0.001415
0.001052
0.001409
0.005077
0.001218
0.001079
0.0005941
9.742e-06
0.001115
2.412e-05
8.289e-05
7.459e-05
1.115e-05
0.006445
0.009551
0.003817
0.07405
0.000191
0.0005841
0.03124
0.02825
0.009892
0.009021
0.007577
0.0006079
0.0008933
0.005507
4.397e-07
0.0001602
0.001955
0.0003065
0.007239
0.002178
0.005635
0.0164
0.05291
0.003615
0.005425
0.01793
1.539e-05
0.0009711
0.002155
0.01378
0.002203
0.0003708
0.003675
0.002698
0.001104
0.0002544
0.0003073
0.0001911
0.0005094
0.006781
0.0004025
8.932e-06
0.0005363
0.004496
0.02159
0.0004181
0.0002313
0.0027
0.004947
0.01016
0.007447
0.001312
7.417e-06
0.0001532
0.0008008
0.0002385
0.0005127
0.001737
9.356e-06
0.005895
0.004346
0.003322
0.001306
2.322e-05
0.0004025
0.0001966
0.0002865
6.971e-05
0.0007386
0.00657
0.003186
0.007567
0.0001637
1.035e-05
0.0003345
0.0001434
1.33e-05
0.008697
0.0002716
0.0004923
0.01654
0.003095
0.005644
1.136e-05
0.007127
0.008244
0.002201
1.362e-05
0.006521
0.0008333
0.003391
0.004984
0.0003472
0.03761
0.001447
0.08827
0.007206
0.0001461
0.004058
0.002686
0.001616
0.00179
0.00794
0.001621
0.001211
0.003138
0.04975
6.935e-05
4.296e-05
1.14e-05
0.191
0.001589
0.0001138
0.0188
0.004385
0.004051
0.001085
0.005228
0.0007746
0.001372
0.0002145
0.00211
0.05139
4.447e-05
0.003367
0.0009893
0.0001964
0.0009757
0.0007123
0.005894
0.0001574
0.0001521
0.0005252
8.663e-05
0.02297
0.01061
0.0003829
0.005471
0.003409
0.005037
0.004199
0.005776
0.002771
2.201e-05
0.01307
0.02363
1.031e-05
0.0001298
0.000506
0.02153
0.0003946
0.004314
0.004983
0.0002257
0.006024
9.181e-06
0.01174
0.0001722
0.01304
8.674e-06
0.0002949
0.0006417
0.0001068
1.791e-05
0.0005922
0.0005997
0.002079
0.0001278
1.321e-05
6.956e-05
0.0003218
0.002917
0.008096
0.001315
1.872e-05
9.641e-05
0.0004609
0.006515
0.006917
0.0002371
0.01522
0.0002602
0.003267
0.002221
0.01176
0.01703
0.001626
0.0001568
0.007899
0.0008721
0.001167
0.0005473
0.002476
0.002127
1.048e-05
0.004918
0.008764
0.001038
0.002642
0.001841
4.788e-07
0.0003343
0.003223
0.003979
0.003082
0.004833
0.001942
0.01283
0.003471
0.0001966
0.0001566
1.19e-05
0.02542
0.006233
0.001147
0.0007553
8.605e-06
0.01453
0.0006434
1.333e-05
0.02264
0.005913
0.01319
0.002549
0.0007015
1.2e-05
0.003876
0.01242
0.0001584
0.0008436
0.002211
0.1349
0.004405
0.005456
0.01436
0.002791
0.001283
1.358e-05
0.0004051
0.006521
0.003171
0.002992
8.337e-06
0.0005149
0.003708
0.001291
1.247e-05
7.039e-06
0.0003064
0.001577
0.002928
1.483e-05
0.006367
0.0031
9.506e-06
0.003397
0.0002935
0.0008299
0.04039
0.000739
0.009264
0.002197
0.002224
0.01003
0.0007073
2.236e-05
0.001262
0.01201
0.002744
0.007053
0.00503
0.001311
0.005593
0.000901
0.00501
0.002149
1.588e-05
3.758e-05
0.0001729
0.001533
0.001668
0.001259
0.001681
0.0007878
5.507e-05
0.0008711
0.001506
0.001361
0.0001892
0.1279
1.63e-06
0.0007978
0.0007477
0.001513
9.778e-05
1.317e-05
0.004435
2.422e-06
0.02208
0.003827
0.01785
2.392e-05
1.048e-05
0.0004793
0.001321
6.109e-06
0.0002757
0.0001547
0.005747
0.008129
0.0001108
6.129e-05
1.132e-05
0.0107
0.01313
0.01547
0.009797
0.05087
0.01036
0.0006273
0.007761
0.03197
0.0004255
0.001585
9.738e-06
0.000251
5.675e-05
0.001466
1.377e-05
0.001644
0.001662
0.08572
0.004324
0.01272
0.004898
0.0002229
0.001495
0.0007162
0.002941
0.00129
0.09726
0.02463
1.665e-05
0.000113
1.147e-05
3.218e-05
0.004484
0.001146
0.009929
1.199e-05
0.03374
0.004496
0.001513
0.001274
0.0006178
0.0002358
0.0009316
0.00978
0.0006146
0.0001173
0.002368
0.0003559
0.0002699
0.004494
0.001496
0.001181
0.0002085
2.678e-05
0.0003148
0.0003962
0.004028
0.00464
0.00589
0.0001586
0.001206
0.003829
0.005993
0.01829
0.0001594
3.779e-05
3.768e-05
0.0004762
0.0004978
3.163e-05
0.0002468
0.0002293
0.0184
0.002088
0.002919
0.001259
4.169e-05
7.036e-06
0.003595
0.002207
0.0008547
0.003182
1.234e-05
0.003105
0.007383
1.202e-05
8.955e-06
7.37e-07
0.1284
0.005386
1.158e-05
0.002019
4.179e-07
0.0002102
0.1061
0.006128
0.001295
0.001828
0.01936
0.0008269
0.001009
0.007865
0.000862
1.3e-05
3.253e-06
0.0008691
0.001671
8.606e-05
0.004445
0.02181
0.004646
0.005742
0.001354
0.002903
0.004919
0.0001728
0.001501
0.002323
0.001845
0.1186
0.001376
0.003935
0.000311
0.01033
0.0002396
9.032e-05
0.0001543
0.0007764
0.001751
1.512e-05
2.15e-05
0.006837
0.0003591
0.0002729
0.0007669
0.006516
0.0002924
7.763e-06
0.0005644
0.007651
0.0011
0.003895
0.002042
0.0002667
0.01006
0.0002526
0.001411
0.007825
0.004807
0.008121
0.00291
0.0003307
0.003817
0.007479
0.0001768
0.005981
0.004535
0.001521
8.059e-08
0.004982
7.504e-06
0.001999
0.007166
0.00548
0.00271
0.00102
0.0009081
0.0003712
0.0003717
0.0037
1.657e-05
7.945e-05
0.0112
0.005542
0.00171
0.000354
0.0003158
0.001428
0.001147
0.004178
0.008776
0.002377
0.01652
0.0001566
3.682e-05
0.0001879
0.000196
0.04286
0.02596
0.05896
4.994e-05
0.0563
0.00193
0.02603
0.002451
5.996e-05
0.0008058
0.007946
0.0009086
0.01385
0.0005758
0.003499
0.001609
0.001103
0.001649
0.01612
1.657e-05
0.0004509
0.0006593
0.03097
0.002582
0.001385
0.008692
1.034e-05
0.1122
1.255e-05
5.871e-05
0.003145
0.0004404
0.02985
0.001454
0.00624
0.003383
0.000897
0.009221
0.003167
0.0002725
0.001535
2.938e-05
0.001604
5.427e-05
0.001069
7.849e-05
0.001766
7.028e-05
0.04708
0.003701
0.0002685
0.005986
0.001657
0.0005175
0.003126
0.001728
0.0006172
0.02322
0.000469
0.01394
0.002235
3.086e-09
0.003691
0.0001192
0.0009888
0.0002537
0.007658
0.0002318
0.01809
0.001922
0.01018
0.01316
0.0001696
0.0116
0.002922
0.0002136
0.05389
0.005691
0.009547
0.001803
2.677e-05
4.113e-05
0.02586
5.59e-05
1.161e-05
0.0005198
0.003322
7.007e-05
0.00107
0.0003055
0.003537
0.0008415
8.658e-06
0.0002512
0.001005
9.029e-06
0.0004018
0.001186
0.0003413
2.738e-05
0.001313
0.0006765
7.939e-05
0.0004231
0.002063
5.289e-05
0.02061
2.267e-05
0.0003124
1.568e-05
0.002477
0.001152
0.0001347
0.02133
0.0003554
0.001479
0.01326
0.01833
0.000929
0.0002245
0.001771
0.04235
0.02171
0.0001973
0.001219
1.69e-05
0.0003154
0.0009357
0.001559
1.317e-05
0.0004988
0.0001659
0.0003428
0.002932
1.813e-05
7.745e-05
0.02423
0.1324
0.005297
0.0003282
4.168e-05
1.515e-05
0.0002475
0.0001677
0.0002059
0.005258
0.0001625
0.0004577
0.0003827
0.001443
0.008732
0.2107
0.0001751
0.0004793
0.004378
9.332e-06
0.07443
0.008748
0.0007789
0.009894
0.0123
0.01448
0.001266
0.007665
0.004077
0.03394
2.163e-05
1.769e-05
0.002618
0.007637
0.0007215
9.162e-05
0.001121
0.09535
5.803e-05
7.789e-05
0.0001324
0.1898
0.001756
0.002302
0.0006265
0.134
1.228e-05
0.000213
0.002413
0.001304
0.002722
1.069e-05
2.307e-05
0.006007
0.0002529
0.002543
9.292e-06
9.693e-06
0.002382
0.0109
0.0005493
0.02568
1.685e-05
0.0007491
0.0001688
0.001212
0.01991
0.009575
0.001251
0.004243
0.004503
0.005011
0.0006442
0.006604
0.005651
1.444e-05
4.109e-05
1.833e-05
0.0007722
0.001467
0.0001406
0.0002517
0.01422
0.01852
0.001834
1.21e-05
0.00319
0.03503
0.001111
0.01354
0.002723
0.0007876
0.008649
0.03011
0.0004403
0.003421
1.144e-05
2.337e-05
0.002661
0.03029
1.242e-05
5.464e-06
7.642e-05
0.0005523
0.006138
0.1895
0.008743
1.045e-05
0.002202
0.0007862
0.0008148
9.164e-05
0.001452
0.005078
0.007137
0.08011
0.0007512
0.002343
0.01
6.056e-05
0.0004189
0.1078
7.24e-05
0.03289
0.0004813
0.001231
0.0003375
0.008378
0.0006628
0.02071
0.01145
0.001236
0.006938
0.0002244
0.01029
0.0001237
0.004782
0.0006799
8.005e-05
0.002354
0.0004098
6.842e-05
4.524e-07
0.0004274
0.0003451
0.001135
0.001316
0.07201
0.002584
0.002378
0.01995
0.0008537
0.0006126
0.004302
0.005066
0.006122
0.001313
0.03657
2.188e-05
0.00179
0.0002538
1.039e-05
0.02646
0.001875
0.001098
0.0001701
0.003137
0.0002169
0.009795
0.003203
0.003846
0.01238
0.003304
0.01264
0.002609
0.005358
1.038e-05
1.742e-05
1.506e-05
0.001805
0.0003961
0.001899
0.01648
0.003881
0.1354
0.01912
0.1887
6.063e-05
0.0001737
0.0001644
6.225e-05
0.00109
0.002122
0.003363
1.128e-05
0.01135
0.003074
0.005642
0.001025
1.159e-05
0.0004065
0.009661
0.002612
0.00306
0.0007615
0.0002708
0.007162
1.206e-05
0.01366
5.294e-06
0.0007484
0.07227
0.0002053
0.006388
0.0004319
0.000141
0.001728
9.507e-06
0.000812
0.01317
0.00218
0.0007858
0.001334
8.986e-05
0.0008363
0.002788
0.0001901
0.006593
6.177e-05
0.00183
0.001387
0.008131
0.0001804
0.0008192
0.001862
0.002299
8.306e-05
0.0006146
3.02e-05
0.0009449
0.0006329
0.0004171
9.067e-05
0.01015
0.005037
0.002361
0.005861
0.006313
0.006642
0.01263
0.002565
7.889e-06
0.06783
0.005619
0.02011
2.815e-05
0.02489
0.00114
0.0001494
0.01991
0.0004242
0.00684
0.005374
0.001142
0.002304
0.03023
3.179e-05
0.002877
4.97e-06
0.004456
0.000279
0.001534
2.939e-05
0.005682
0.0008736
0.01061
6.994e-05
0.003965
0.0002893
0.000844
4.555e-06
0.002236
0.004205
1.684e-05
0.01192
0.005285
0.0002278
0.003856
0.02127
0.01878
0.0002769
0.01596
0.0005281
0.0002828
5.183e-06
0.002855
0.006578
0.006381
0.0005475
0.001533
0.0007009
0.008495
0.002211
0.00535
0.0003016
0.0001817
0.0005786
9.089e-05
0.005393
0.0005847
0.0003875
1.071e-05
0.0002951
0.002668
0.004581
9.034e-05
0.001692
0.000292
0.00361
0.007824
0.002822
0.001611
3.726e-05
0.001545
0.00548
0.0008814
0.0003765
0.02281
0.0002117
0.02464
0.003926
0.002871
0.0006269
0.0001781
0.008987
7.946e-05
0.04282
0.004905
1.274e-05
0.006191
0.003657
0.02033
1.244e-05
0.000416
0.0156
3.531e-05
0.01676
0.0007506
6.076e-05
0.00775
9.031e-06
0.006349
0.0009406
0.001211
0.0002003
0.007584
0.008158
0.02587
0.0001399
0.002014
0.003203
0.001465
2.926e-05
0.0009868
0.0959
0.0008689
0.0009505
0.001896
0.003495
0.001661
0.001653
0.003537
0.0005328
0.0006735
0.00111
0.01169
0.0001019
2.766e-05
0.003949
0.001117
0.0001166
0.04232
0.009337
2.569e-05
0.0007865
0.003132
0.00012
9.554e-05
1.021e-05
0.01834
0.0006567
0.0006845
0.006082
0.0001647
0.01825
0.0008711
0.002234
0.0051
0.0002519
1.531e-05
0.01975
0.001473
1.078e-05
1.322e-05
0.03715
8.398e-05
0.01711
2.139e-05
0.0007511
0.001558
0.002329
0.002608
0.0001051
0.0008347
0.01371
0.002249
0.00208
0.0003492
0.003217
2.713e-05
0.005222
0.0001129
0.09893
0.01479
0.0002737
0.0008545
0.004734
0.01141
0.001728
7.787e-05
0.0002298
6.76e-05
0.006243
0.0005965
0.03826
0.007983
0.01029
0.0002766
0.000289
0.001908
0.0008617
8.366e-05
0.1121
0.0001262
0.00622
0.002955
0.03066
0.0008335
0.001752
0.01084
0.003066
0.001116
0.02319
0.002513
0.00615
0.000336
0.004706
0.09627
0.002929
0.0005404
0.00191
0.001956
0.0001228
0.003514
0.0049
2.632e-05
0.0004498
0.00987
0.001736
6.181e-06
0.0109
0.0002573
0.0003259
0.004634
0.0002285
0.01247
0.001179
1.731e-05
1.246e-05
0.0002954
0.00053
0.004389
0.006151
6.579e-05
0.0009937
0.007953
0.0004826
0.0005197
0.009283
0.01074
0.009057
0.01765
0.001138
0.0003677
0.002674
0.01136
4.936e-05
0.03787
0.0005041
0.0003182
0.008589
0.01192
0.002449
0.01356
0.001537
0.01273
0.002299
6.401e-05
0.00603
0.006671
0.01249
0.00045
0.001701
0.05625
0.002943
7.702e-05
0.0006712
0.002181
0.001182
0.0002415
0.006894
0.004775
0.001026
2.041e-05
0.003597
0.1072
3.283e-05
1.229e-05
0.001812
0.002687
1.195e-05
0.0004468
0.00604
0.008815
0.003386
0.007711
0.0008884
0.0009198
0.0006786
0.000793
0.007156
0.06429
0.009782
8.988e-05
0.0002402
0.004387
2.507e-05
0.0007961
0.004118
0.0008649
0.0001139
0.004615
0.03747
0.0002629
0.07015
0.0003394
7.937e-05
7.054e-05
0.0006078
0.03214
0.0008383
0.0009028
0.005215
0.03768
0.008642
0.001154
0.001372
0.006866
2.805e-05
0.0001908
1.56e-05
0.005936
0.0001038
0.006551
0.01249
1.281e-05
0.001959
0.0003026
1.502e-05
0.01111
0.0002823
0.001293
5.519e-05
0.0001198
0.004227
0.005079
0.0004185
0.004481
0.0007813
6.171e-05
0.002015
0.006512
5.273e-05
0.000599
9.19e-05
1.78e-05