/*--------------------------------*- C++ -*----------------------------------*\
  =========                 |
  \\      /  F ield         | OpenFOAM: The Open Source CFD Toolbox
   \\    /   O peration     | Website:  https://openfoam.org
    \\  /    A nd           | Version:  8
     \\/     M anipulation  |
\*---------------------------------------------------------------------------*/
FoamFile
{
    version     2.0;
    format      ascii;
    class       volVectorField;
    location    "15";
    object      U;
}
// * * * * * * * * * * * * * * * * * * * * * * * * * * * * * * * * * * * * * //

dimensions      [0 1 -1 0 0 0 0];

internalField   nonuniform List<vector> 
63564
(
(0.07779 -0.002233 1.415e-22)
(-0.002293 -0.01081 -1.108e-22)
(0.001715 0.008481 1.078e-22)
(0.002314 0.01046 0)
(0.002083 0.01035 0)
(0.6655 0.02744 3.225e-21)
(0.0357 -0.01372 3.145e-23)
(0.003068 0.01124 0)
(0.7131 -0.05134 3.991e-23)
(-0.004587 -0.01801 1.459e-22)
(0.7574 -0.06923 0)
(0.6664 -0.1471 -7.412e-22)
(0.7904 -0.006019 1.001e-22)
(0.9373 -0.2242 0)
(0.2927 -0.106 1.197e-22)
(0.29 -0.1057 3.577e-22)
(1.167 -0.01164 8.005e-23)
(1.165 0.01487 -5.765e-21)
(1.1 -0.07636 8.368e-24)
(0.8881 -0.2183 -1.169e-21)
(0.6374 -0.2104 -8.858e-22)
(1.048 -0.1666 6.435e-22)
(1.064 -0.04996 6.731e-23)
(0.666 -0.1453 -2.503e-22)
(0.07235 -0.0239 -3.284e-22)
(0.7596 -0.06515 0)
(0.8953 -0.2185 1.134e-21)
(0.6658 -0.2101 -3.511e-22)
(1.117 -0.09288 -2.913e-23)
(0.766 -0.05579 4.929e-23)
(1.144 -0.1382 -3.3e-22)
(1.094 -0.06283 -7.444e-24)
(1.095 -0.05935 9.183e-22)
(0.7478 -0.2099 0)
(1.127 -0.08909 2.854e-23)
(1.177 -0.113 3.52e-21)
(1.062 0.02103 1.052e-21)
(1.126 -0.09099 0)
(1.126 -0.09095 0)
(1.111 -0.09282 3.639e-23)
(1.192 -0.001188 -2.306e-21)
(0.6167 -0.1039 2.63e-22)
(1.2 0.01308 4.931e-21)
(0.7103 -0.2237 4.193e-22)
(0.8332 -0.01209 -2.251e-22)
(0.9344 -0.2199 2.472e-21)
(1.064 -0.0708 -3.701e-23)
(0.5633 -0.1396 0)
(0.7058 -0.222 -7.873e-22)
(1.252 0.1017 7.039e-22)
(0.9565 -0.1615 -2.392e-21)
(0.9382 -0.2238 -4.22e-22)
(1.021 -0.2059 1.831e-21)
(1.086 -0.08501 6.604e-23)
(0.7759 -0.2296 6.397e-22)
(1.061 0.02542 0)
(0.7065 -0.2218 7.294e-22)
(0.7746 -0.2297 0)
(1.24 0.1095 6.407e-22)
(0.9784 -0.2175 7.706e-22)
(0.009954 0.05188 1.231e-22)
(0.9007 -0.2257 1.231e-21)
(0.7858 -0.2227 0)
(1.193 -0.107 -2.856e-22)
(0.7873 -0.2328 1.841e-21)
(0.9624 -0.2207 0)
(0.7105 -0.2234 -2.056e-22)
(-0.007335 -0.02552 -5.93e-22)
(0.7883 -0.2329 -1.935e-21)
(0.949 -0.0771 -1.655e-21)
(0.9539 -0.2183 -2.142e-21)
(0.9894 -0.07431 -3.899e-21)
(1.099 -0.1616 0)
(1.006 -0.1981 -1.089e-21)
(1.144 -0.1379 4.895e-22)
(0.9618 -0.2207 -8.531e-23)
(1.056 -0.1587 0)
(0.5657 -0.1399 0)
(0.6658 -0.2098 -4.867e-25)
(1.088 -0.09149 1.552e-22)
(1.107 -0.07984 2.783e-24)
(0.7863 -0.2327 0)
(1.18 -0.1133 -7.182e-22)
(0.6503 -0.214 -1.023e-21)
(0.4404 -0.154 1.61e-22)
(1.005 -0.1986 0)
(0.4919 -0.1514 4.631e-24)
(1.192 -0.1078 -2.773e-22)
(0.4708 -0.1348 3.049e-23)
(0.4917 -0.1506 -4.73e-24)
(0.7483 -0.2092 0)
(1.13 -0.1519 1.271e-22)
(1.14 -0.1487 -1.175e-22)
(0.953 -0.07561 0)
(-0.004791 -0.02934 5.361e-22)
(0.8495 -0.2251 -2.424e-21)
(0.4411 0.0136 2.313e-24)
(0.639 -0.2104 9.497e-26)
(0.003792 0.01867 5.651e-22)
(1.124 -0.08185 2.775e-24)
(0.902 -0.133 1.826e-21)
(0.5436 -0.1453 -1.056e-22)
(0.7884 -0.2334 0)
(0.653 -0.01983 3.313e-23)
(0.4413 -0.1556 -9.367e-23)
(0.9195 -0.2292 0)
(1.149 -0.1324 0)
(1.078 -0.08888 -4.94e-23)
(0.4601 -0.1617 -9.123e-23)
(1.049 -0.1649 0)
(0.5239 -0.182 -1.674e-22)
(0.7699 -0.2258 4.498e-22)
(0.9452 -0.2231 1.276e-21)
(0.6218 -0.1053 0)
(0.0392 -0.03045 -3.759e-22)
(0.9447 -0.2231 -2.904e-22)
(0.7866 -0.2327 -1.082e-21)
(0.1908 -0.01568 1.626e-22)
(1.12 -0.1561 -4.237e-23)
(1.141 -0.1484 0)
(1.214 -0.08644 9.437e-22)
(0.567 -0.1818 -1.771e-22)
(1.13 -0.1276 0)
(0.009864 0.0517 -2.399e-22)
(1.164 -0.02099 0)
(0.3352 -0.1019 -6.281e-22)
(1.244 0.2047 0)
(0.9889 -0.2096 0)
(0.8804 -0.2238 5.948e-24)
(0.959 -0.1594 6.433e-23)
(1.174 -0.1066 -1.494e-21)
(1.196 -0.09969 6.375e-22)
(0.7155 -0.2254 9.261e-22)
(1.142 -0.08985 -7.372e-22)
(0.6585 -0.2047 0)
(1.12 -0.1568 0)
(1.128 -0.08691 0)
(1.13 -0.1515 0)
(0.978 -0.2175 -7.647e-22)
(-0.01614 -0.03421 4.279e-22)
(0.8449 -0.2345 -5.408e-22)
(1.054 -0.1576 -1.649e-22)
(1.107 -0.09375 0)
(0.3354 -0.1244 -6.493e-23)
(0.5674 -0.1822 3.428e-22)
(1.14 -0.08877 0)
(1.068 -0.08356 -1.263e-22)
(0.8439 -0.204 4.27e-24)
(0.3349 -0.1675 -7.399e-23)
(1.06 -0.1676 3.373e-22)
(0.9914 -0.1349 -2.711e-22)
(1.099 -0.0827 -3.661e-24)
(1.1 -0.1506 0)
(0.4212 -0.0445 -8.376e-23)
(1.101 -0.03649 -2.15e-22)
(0.7333 -0.2159 5.317e-22)
(0.7323 -0.2157 -2.579e-22)
(0.8604 -0.234 2.142e-25)
(0.9897 -0.07246 5.206e-21)
(1.137 -0.1397 2.847e-22)
(1.131 -0.1505 0)
(0.9391 -0.2251 -1.638e-21)
(1.024 -0.2047 -6.886e-25)
(1.217 -0.08584 0)
(0.7209 -0.1717 5.885e-22)
(0.5124 -0.1651 9.886e-23)
(1.131 -0.1509 0)
(0.9242 -0.2257 -2.554e-21)
(0.9879 -0.2103 6.312e-22)
(1.096 -0.03445 1.329e-22)
(0.6519 -0.1977 1.866e-22)
(1.127 -0.08918 0)
(0.7833 -0.1306 7.654e-22)
(1.113 -0.08508 0)
(1.118 -0.09568 2.632e-23)
(1.023 -0.1956 3.684e-21)
(1.113 -0.08715 0)
(1.01 -0.09671 -1.373e-22)
(0.3085 -0.1967 -8.011e-23)
(0.7543 -0.2264 0)
(0.8532 -0.1809 -1.2e-21)
(0.9075 -0.0663 8.583e-24)
(1.069 -0.05082 -8.126e-23)
(0.8519 -0.2258 2.274e-22)
(0.9552 -0.1919 0)
(0.4873 -0.1699 2.448e-22)
(1.095 -0.0836 -3.144e-23)
(1.103 -0.07638 1.353e-23)
(1.048 -0.07984 3.845e-23)
(0.9738 -0.2162 0)
(0.4738 -0.1348 0)
(0.7095 -0.2217 0)
(0.6795 -0.2115 0)
(1.022 -0.2055 -1.363e-21)
(0.8452 -0.2334 6.909e-23)
(1.099 -0.1345 1.885e-21)
(0.6508 -0.214 6.821e-22)
(0.5475 -0.1891 4.068e-21)
(0.7995 -0.2337 0)
(0.7696 -0.2262 0)
(1.215 -0.08668 0)
(0.792 -0.2332 0)
(0.5095 -0.1654 0)
(0.8695 -0.1444 -3.149e-21)
(1.224 -0.04039 2.485e-23)
(0.967 -0.2182 -1.412e-21)
(1.118 -0.09312 0)
(0.9437 -0.07875 6.112e-22)
(1.089 -0.08542 -4.876e-23)
(0.5434 -0.1437 -9.933e-23)
(0.8806 -0.2307 0)
(1.047 -0.1887 3.107e-21)
(0.625 -0.2057 -4.077e-22)
(1.226 -0.07365 1.662e-21)
(0.6473 -0.2106 0)
(1.093 -0.1312 2.991e-21)
(1.186 -0.1072 8.52e-22)
(0.9348 -0.2048 0)
(1.186 -0.108 0)
(1.047 -0.192 9.862e-22)
(0.8779 -0.2299 1.818e-21)
(0.7858 -0.2288 0)
(0.9843 -0.1525 0)
(1.059 -0.1668 0)
(0.9862 -0.1502 0)
(0.5595 -0.1942 -6.001e-22)
(1.134 -0.1354 0)
(1.11 -0.1655 3.701e-22)
(1.222 -0.03997 -5.251e-22)
(1.125 -0.1365 -1.378e-22)
(1.095 -0.09229 -1.702e-22)
(1.151 -0.1355 5.712e-22)
(0.005386 0.02916 -5.136e-22)
(0.7726 -0.2322 4.612e-22)
(0.5607 -0.1837 -2.311e-22)
(0.8512 -0.2244 -8.228e-22)
(-0.004956 -0.02314 0)
(-0.01638 -0.07499 2.085e-22)
(0.2015 -0.06752 1.154e-22)
(0.9247 -0.226 8.063e-23)
(1.288 0.02713 0)
(0.6755 -0.2018 4.8e-22)
(0.7176 -0.2255 1.686e-22)
(0.8806 -0.2309 0)
(0.7866 -0.2288 0)
(0.9204 -0.178 -4.855e-22)
(0.5217 -0.1289 0)
(0.2525 -0.09068 -4.978e-22)
(0.4437 -0.1545 0)
(0.9353 -0.2039 0)
(1.084 -0.08851 0)
(0.5105 -0.178 1.225e-22)
(1.047 -0.1927 6.14e-22)
(0.4042 -0.1449 -4.725e-23)
(0.892 -0.2057 0)
(0.6006 -0.2037 0)
(1.092 -0.1365 3.155e-21)
(1.109 -0.09422 0)
(1.114 -0.08506 5.628e-24)
(0.8749 -0.2296 -2.003e-21)
(0.6642 -0.2171 1.116e-22)
(0.8519 -0.2253 0)
(1.177 -0.07322 -2.418e-21)
(0.6902 -0.2213 3.028e-22)
(0.7937 -0.2333 0)
(1.076 -0.05286 3.748e-23)
(0.8338 -0.2345 0)
(0.5915 -0.1901 0)
(0.9372 -0.2254 2.897e-21)
(0.7017 -0.2206 1.006e-21)
(0.6098 -0.2042 2.976e-22)
(0.6336 -0.2073 -2.928e-21)
(0.531 -0.1843 -1.448e-22)
(0.8083 -0.2313 4.216e-22)
(1.185 -0.0225 0)
(0.8671 -0.2336 0)
(0.7107 -0.2216 0)
(0.4786 -0.1221 4.47e-23)
(0.9271 -0.197 -2.616e-21)
(0.6707 -0.2187 1.281e-21)
(0.8813 -0.2236 -7.094e-24)
(0.4419 -0.1559 -1.87e-22)
(1.12 -0.08638 2.102e-23)
(1.112 -0.1456 0)
(0.9164 -0.225 2.028e-21)
(0.2802 -0.1535 2.534e-24)
(1.096 -0.1739 2.851e-22)
(1.097 -0.1599 -8.76e-22)
(1.124 -0.06152 0)
(0.5245 -0.1731 -1.653e-22)
(1.171 -0.1162 0)
(1.098 -0.1613 2.528e-23)
(0.9415 -0.225 0)
(0.5265 -0.1824 9.307e-25)
(1.315 0.1671 1.464e-21)
(0.94 -0.2211 2.234e-21)
(0.6164 -0.1677 0)
(0.8755 -0.2309 0)
(1.131 -0.1504 -2.169e-22)
(0.7837 -0.2326 5.517e-22)
(1.192 -0.09925 -1.948e-21)
(1.237 -0.06346 7.806e-25)
(1.125 -0.1532 0)
(1.065 -0.1359 -4.54e-22)
(1.099 -0.1497 0)
(1.125 -0.1367 5.902e-23)
(0.4067 -0.1436 -4.591e-22)
(0.7438 -0.2293 -1.024e-21)
(1.184 -0.1164 -1.492e-22)
(1.141 -0.138 0)
(0.7561 -0.2302 -1.312e-24)
(1.125 -0.1527 -3.535e-22)
(0.07397 -0.02495 0)
(0.4624 -0.1621 0)
(0.6482 -0.2106 -9.091e-23)
(0.625 -0.2061 3.745e-22)
(0.8448 -0.2343 0)
(1.106 -0.1682 4.249e-22)
(1.094 -0.1727 7.557e-22)
(1.179 -0.119 -5.829e-22)
(0.4207 -0.1464 0)
(0.9735 -0.2158 -1.892e-24)
(-0.04272 -0.0526 8.086e-23)
(1.128 -0.1561 5.099e-23)
(0.8451 -0.2045 -3.246e-21)
(1.152 -0.0289 -2.082e-21)
(1.085 -0.08895 6.694e-23)
(1.252 0.234 1.594e-22)
(1.027 -0.1965 -2.527e-21)
(0.6434 -0.1845 6.372e-22)
(0.9057 -0.1307 0)
(0.7881 -0.1303 0)
(1.088 -0.07764 1.768e-23)
(-0.01092 -0.03863 -1.295e-22)
(1.174 -0.1056 9.186e-22)
(0.7551 -0.2261 0)
(0.4886 -0.1698 -6.736e-22)
(0.7072 -0.1262 -4.808e-22)
(0.9573 -0.2073 1.435e-24)
(1.13 -0.1506 0)
(0.8443 -0.2336 -1.037e-21)
(0.6847 -0.1805 9.331e-22)
(0.786 -0.2223 6.095e-22)
(0.1038 -0.004161 -4.971e-23)
(0.4495 -0.1398 -4.52e-23)
(0.7239 -0.1714 6.387e-22)
(0.7016 -0.2203 3.077e-22)
(0.4039 -0.1445 6.351e-22)
(0.8004 -0.2338 7.216e-25)
(1.092 -0.1732 0)
(0.5498 -0.1837 -6.425e-23)
(1.036 -0.1978 2.714e-21)
(1.167 -0.13 2.138e-22)
(0.7174 -0.221 4.411e-22)
(0.4207 -0.1487 0)
(0.8494 -0.2319 0)
(0.9965 -0.2083 -7.775e-22)
(1.138 -0.1391 1.277e-22)
(1.107 -0.1677 -8.273e-22)
(0.7725 -0.232 4.181e-22)
(0.7184 -0.2258 8.569e-22)
(0.7165 -0.2209 -5.623e-22)
(0.7044 -0.2023 0)
(1.038 -0.07854 0)
(1.089 -0.07278 0)
(0.6757 -0.201 0)
(0.6667 -0.2176 2.592e-22)
(0.7182 -0.2255 0)
(0.7558 -0.2304 -1.262e-25)
(1.129 -0.1386 5.178e-23)
(0.072 -0.07407 3.716e-22)
(1.129 -0.1381 -1.029e-22)
(0.5113 -0.1783 -5.7e-23)
(1.024 -0.2037 -6.868e-22)
(0.5579 -0.175 0)
(0.04101 -0.01717 2.846e-22)
(0.8166 -0.2342 4.718e-22)
(1.096 -0.1737 0)
(0.5286 -0.185 0)
(0.6625 -0.2127 0)
(0.6287 -0.2101 3.37e-22)
(0.7179 -0.226 -1.366e-22)
(1.113 -0.09307 -3.297e-23)
(0.7099 -0.1553 0)
(0.7366 -0.2284 1.068e-21)
(0.8759 -0.2305 0)
(0.4926 -0.1542 7.89e-23)
(1.063 -0.1378 4.621e-22)
(0.7401 -0.2098 -8.659e-22)
(0.6171 -0.1685 -2.83e-22)
(0.6159 -0.2073 0)
(0.7069 -0.2208 0)
(0.8292 -0.03213 1.424e-23)
(0.7531 -0.2289 0)
(0.6438 -0.2119 0)
(1.097 -0.08087 -5.65e-25)
(1.076 -0.08476 8.389e-23)
(1.202 0.007376 -1.347e-21)
(0.9021 -0.1236 0)
(0.5204 -0.1477 8.182e-23)
(1.124 -0.1571 -5.144e-22)
(1.151 -0.1132 0)
(1.045 -0.04846 8.598e-23)
(0.8665 -0.2304 9.62e-22)
(1.086 -0.08866 0)
(0.4038 -0.1517 6.796e-23)
(1.09 -0.0693 0)
(1.008 -0.1734 3.714e-21)
(0.421 -0.1472 0)
(0.8667 -0.09119 0)
(0.5307 -0.1839 2.846e-22)
(1.009 -0.06153 -7.748e-21)
(1.315 0.08965 0)
(1.341 0.1453 -1.364e-21)
(0.8418 0.05839 -3.067e-21)
(0.9329 -0.227 1.817e-21)
(0.538 -0.1873 0)
(0.7134 -0.155 -4.316e-22)
(0.9379 -0.07513 -6.962e-24)
(1.09 -0.1697 4.974e-22)
(1.139 -0.1487 6.311e-22)
(0.664 -0.07985 1.441e-21)
(0.7673 -0.1647 0)
(0.6738 -0.2179 -1.469e-22)
(0.9393 -0.2168 -2.365e-21)
(0.3502 -0.135 4.102e-21)
(0.4736 -0.1015 -4.348e-22)
(0.9936 -0.1972 -1.613e-24)
(0.6079 -0.2052 0)
(1.152 -0.1345 -7.078e-22)
(0.9063 -0.2263 0)
(0.8252 -0.2344 0)
(0.7615 -0.2095 -7.493e-22)
(0.8017 -0.1694 0)
(0.7369 -0.03063 0)
(0.3522 -0.1331 0)
(0.812 -0.23 -6.041e-22)
(0.4214 -0.1503 0)
(1.211 -0.0924 0)
(1.159 0.1492 8.289e-22)
(0.2811 -0.1035 -8.281e-23)
(0.901 -0.19 1.093e-21)
(1.315 0.06714 -1.493e-21)
(1.126 -0.07889 0)
(0.3888 -0.1384 -3.053e-22)
(0.5795 -0.03463 0)
(0.6832 -0.2207 -8.379e-22)
(0.9418 -0.2205 2.283e-21)
(0.9474 -0.02673 0)
(1.071 -0.03082 0)
(0.9851 -0.0804 2.262e-21)
(1.187 -0.07222 -2.592e-21)
(0.6769 -0.2132 0)
(0.2306 -0.1594 -1.216e-22)
(1.031 -0.1947 0)
(0.8371 -0.234 9.648e-22)
(0.8037 -0.2311 -3.35e-22)
(0.5451 -0.1904 0)
(0.582 -0.1981 -2.29e-22)
(0.5856 -0.201 0)
(0.635 -0.1946 0)
(1.122 -0.1336 0)
(1.274 -0.008829 1.755e-22)
(1.195 -0.1054 6.627e-22)
(1.129 -0.1475 -3.272e-22)
(1.09 -0.08194 -5.893e-24)
(0.78 -0.2311 0)
(0.673 -0.2045 0)
(0.6379 -0.2128 -1.927e-23)
(0.2441 -0.1755 -5.556e-23)
(0.312 -0.1118 -1.787e-22)
(0.8008 -0.2312 0)
(0.7233 -0.2204 -4.378e-22)
(0.616 -0.201 0)
(0.876 -0.231 0)
(0.6148 -0.2076 -4.162e-22)
(1.104 -0.1447 6e-22)
(0.7404 -0.228 1.288e-24)
(1.11 -0.08089 -5.069e-23)
(1.068 -0.08249 2.103e-23)
(0.5318 -0.1767 0)
(0.9922 -0.1771 0)
(1.048 -0.1887 -1.358e-21)
(1.13 -0.095 -2.181e-23)
(0.6618 -0.1875 2.896e-22)
(0.6468 -0.2132 5.249e-22)
(0.576 -0.2155 3.81e-22)
(0.3961 -0.1422 -5.252e-23)
(0.7049 -0.2016 5.068e-23)
(1.104 -0.1699 -9.831e-22)
(0.5279 -0.1363 -4.051e-21)
(1.154 -0.1355 0)
(0.9417 -0.2244 -3.385e-21)
(0.2595 -0.09642 -1.707e-22)
(0.3912 -0.1442 -2.824e-23)
(0.6747 -0.219 -1.208e-21)
(0.6843 -0.2205 -2.079e-21)
(0.5559 -0.1008 0)
(0.685 -0.2211 -1.942e-22)
(0.406 -0.1442 0)
(0.6829 -0.2187 -7.78e-22)
(0.5513 -0.1869 -1.837e-22)
(1.11 -0.1656 6.475e-22)
(0.9372 -0.09997 6.382e-21)
(0.7513 -0.152 0)
(0.745 -0.2272 -5.028e-23)
(1.037 -0.1923 0)
(0.6214 -0.209 0)
(0.7015 -0.2233 0)
(0.9896 -0.07263 -1.278e-23)
(0.6879 -0.2211 1.445e-21)
(0.4227 -0.1348 -4.106e-21)
(1.095 -0.1744 -1.639e-21)
(1.288 0.01512 1.915e-21)
(0.7292 -0.1612 -4.128e-22)
(1.017 -0.2042 -3.353e-21)
(0.4584 -0.1493 -6.298e-23)
(0.8565 -0.2282 4.811e-22)
(1.134 -0.1499 6.396e-23)
(0.9673 -0.2092 -3.133e-21)
(0.8738 -0.218 0)
(0.5218 -0.1784 0)
(0.4008 -0.1524 -6.487e-23)
(1.129 -0.08948 0)
(1.032 -0.1973 0)
(0.9958 -0.2116 -2.402e-21)
(1.162 -0.1247 -2.171e-21)
(0.4618 -0.1554 -2.56e-23)
(1.004 -0.1911 1.307e-21)
(0.459 -0.04876 0)
(0.9406 -0.2257 4.695e-22)
(0.801 -0.2333 -8.819e-22)
(0.8675 -0.2314 2.007e-22)
(0.8783 -0.2317 0)
(0.4248 -0.1488 -3.205e-23)
(0.3337 -0.1207 4.319e-22)
(0.7678 -0.2243 7.072e-22)
(0.9428 -0.07395 8.37e-26)
(0.779 -0.2316 0)
(1.058 -0.1909 -9.544e-22)
(0.3942 -0.158 1.869e-23)
(1.011 -0.1678 0)
(0.2334 -0.08284 0)
(0.7164 -0.225 0)
(0.7862 -0.2298 0)
(0.848 -0.2205 -1.62e-21)
(0.7159 -0.1307 0)
(1.068 -0.08301 0)
(0.4469 -0.03194 -1.284e-22)
(0.6087 -0.201 -2.061e-22)
(1.109 -0.08285 9.548e-24)
(0.4264 -0.06455 8.149e-23)
(0.5605 -0.1913 -6.012e-23)
(0.7056 -0.2244 0)
(1.154 -0.1115 1.463e-21)
(0.8936 -0.1922 0)
(0.3637 -0.1403 0)
(1.08 -0.1591 1.111e-21)
(0.9124 -0.06341 0)
(0.6901 -0.2168 6.494e-23)
(0.5878 -0.127 0)
(0.5849 -0.2006 -3.554e-22)
(1.338 0.1893 3.543e-22)
(1.129 -0.1273 1.667e-22)
(-0.01075 0.026 9.264e-23)
(0.6182 -0.2059 -1.215e-22)
(0.09768 -0.03199 -1.508e-22)
(0.7696 -0.1656 9.027e-22)
(0.563 -0.1936 -2.437e-21)
(0.7497 -0.2213 -1.062e-21)
(1.122 -0.1146 -2.223e-21)
(1.087 -0.09337 0)
(1.08 -0.1789 2.508e-21)
(0.7869 -0.1098 0)
(1.144 -0.08932 0)
(0.7773 -0.2323 0)
(1.124 -0.08766 0)
(0.6394 -0.1856 0)
(0.3692 -0.1346 0)
(0.6395 -0.2011 1.944e-22)
(0.5943 -0.1744 0)
(1.141 -0.04066 9.25e-22)
(0.3672 -0.1391 3.908e-21)
(1.266 0.03982 0)
(0.7515 -0.2239 0)
(0.6351 -0.2109 -2.149e-22)
(0.7118 -0.2246 -2.839e-22)
(0.7359 -0.2156 0)
(1.137 -0.1486 1.648e-23)
(1.136 -0.05798 -4.34e-21)
(0.5959 -0.2001 -1.271e-21)
(1.084 -0.09152 0)
(0.4366 -0.1524 1.154e-22)
(0.9736 -0.2184 -2.589e-22)
(1.213 -0.07538 1.306e-21)
(0.7627 -0.1893 5.94e-24)
(0.5832 -0.2002 -3.689e-23)
(0.5574 -0.1936 0)
(0.6732 -0.2184 -3.76e-22)
(1.345 0.2033 1.363e-22)
(1.029 -0.2028 -1.752e-21)
(0.9139 -0.2248 -1.204e-21)
(0.7653 0.005354 -4.409e-21)
(0.6577 -0.2136 4.522e-22)
(0.4924 -0.1695 0)
(0.5169 -0.1206 4.912e-23)
(0.6898 -0.1813 0)
(1.008 -0.09687 -8.304e-22)
(0.8425 -0.2339 -1.669e-21)
(0.8593 -0.2084 0)
(1.265 -0.02728 1.101e-21)
(0.5815 -0.1968 0)
(0.7134 -0.2256 -9.571e-22)
(1.099 -0.07758 -3.054e-23)
(0.788 -0.2257 -3.833e-22)
(1.093 -0.1344 -2.323e-21)
(0.8147 -0.216 2.358e-21)
(0.7253 -0.2267 9.36e-22)
(1.127 -0.09017 -7.144e-24)
(1.02 -0.2041 -9.269e-22)
(0.8449 -0.1776 -3.375e-21)
(0.9103 -0.2304 0)
(0.6464 -0.1922 2.682e-24)
(0.8374 -0.2175 0)
(1.028 -0.1053 3.393e-21)
(0.4153 -0.1495 7.804e-24)
(0.6725 -0.218 0)
(0.6543 -0.05342 0)
(1.114 -0.08523 2.566e-23)
(0.7357 -0.2279 5.379e-21)
(0.473 -0.1642 5.022e-23)
(0.7229 -0.2263 -6.77e-22)
(1.083 -0.179 -1.885e-21)
(-0.07007 -0.03271 -1.201e-22)
(1.316 0.0813 7.348e-22)
(0.7721 -0.232 -2.128e-22)
(1.276 -0.005171 -6.96e-22)
(0.76 -0.1893 8.158e-22)
(1.082 -0.08505 4.832e-23)
(0.705 -0.2028 -1.951e-22)
(0.7489 -0.2298 -8.066e-22)
(0.6862 -0.2216 -3.398e-22)
(0.6446 -0.1845 -5.855e-22)
(0.6305 -0.178 0)
(0.9497 -0.06342 -1.163e-22)
(0.653 -0.215 -4.835e-22)
(1.14 -0.1359 0)
(1.344 0.1737 0)
(0.9703 -0.219 7.252e-22)
(1.121 -0.09414 0)
(0.8048 0.09904 -7.019e-22)
(0.8412 -0.2344 5.182e-22)
(0.7504 -0.2301 0)
(1.122 -0.1445 -5.379e-23)
(0.976 -0.2166 -1.318e-21)
(0.6599 -0.2046 -8.836e-23)
(0.5324 -0.1769 0)
(0.7881 -0.2251 0)
(0.5824 -0.1564 0)
(1.303 0.04023 8.723e-22)
(0.6085 -0.204 2.627e-22)
(0.3779 -0.1476 0)
(0.9709 -0.1327 0)
(0.7776 -0.2288 0)
(0.8897 -0.2319 3.284e-22)
(0.1727 -0.06049 -2.644e-22)
(0.7051 -0.2237 2.469e-23)
(0.011 0.04526 -1.628e-25)
(0.4482 -0.1057 1.143e-22)
(0.9084 -0.1466 -2.423e-21)
(1.021 -0.0741 2.971e-23)
(0.5195 -0.1465 -3.874e-23)
(0.6267 -0.2101 3.136e-24)
(1.148 -0.1375 0)
(1.123 -0.1582 5.104e-22)
(1.174 -0.1128 -1.578e-21)
(0.6975 -0.1737 3.594e-22)
(0.7868 0.09627 3.487e-21)
(0.8816 -0.2329 -4.084e-22)
(0.5606 -0.1904 3.578e-22)
(0.8187 -0.1074 0)
(0.8606 -0.1787 -2.459e-21)
(0.752 -0.2156 -5.317e-22)
(1.27 0.06205 6.588e-23)
(0.8757 -0.2318 -2.582e-22)
(1.156 -0.127 9.514e-23)
(0.8273 -0.23 0)
(0.7476 -0.2246 1.716e-21)
(0.4563 -0.1477 0)
(0.4828 -0.161 -4.427e-23)
(1.134 -0.1425 0)
(0.5105 -0.1652 0)
(1.166 -0.1175 -1.764e-21)
(0.7776 -0.0945 2.146e-21)
(0.6273 -0.2024 0)
(0.8205 -0.2345 0)
(0.7194 -0.2249 -1.571e-22)
(0.9286 -0.128 -4.197e-21)
(0.8887 -0.2307 0)
(0.7564 -0.03992 -7.936e-23)
(1.069 0.006401 1.841e-21)
(0.3459 -0.1334 2.753e-21)
(0.5856 -0.1975 1.67e-22)
(1.221 -0.08218 -1.252e-22)
(0.05471 -0.08568 -9.465e-23)
(0.8278 -0.2226 0)
(0.9555 -0.2169 6.252e-22)
(0.4896 -0.17 2.119e-22)
(1.212 -0.08489 9.845e-22)
(0.6427 -0.04887 8.993e-22)
(0.8172 -0.2276 -2.65e-21)
(1.267 0.1607 0)
(1.077 -0.08162 8.499e-24)
(0.7961 0.09593 3.616e-21)
(0.6214 -0.2088 0)
(0.653 -0.2053 2.08e-22)
(1.287 0.06221 -1.488e-21)
(1.091 -0.08371 -1.498e-23)
(0.9892 -0.136 -3.993e-21)
(0.8174 -0.2312 -7.726e-22)
(0.765 -0.2017 -4.966e-21)
(1.03 -0.2026 1.601e-21)
(0.6757 -0.2181 1.349e-21)
(0.8128 -0.23 0)
(0.3504 -0.1806 0)
(0.4286 -0.1501 0)
(0.7342 -0.2259 7.329e-22)
(0.5178 -0.1862 0)
(0.4109 -0.1456 0)
(1.042 -0.0763 5.369e-24)
(1.101 -0.1664 1.175e-21)
(1.171 -0.103 9.019e-22)
(0.8937 -0.2255 2.913e-22)
(0.6909 -0.2168 -2.401e-22)
(0.918 -0.2252 -2.112e-21)
(0.4822 -0.04818 -1.789e-22)
(1.076 0.04058 -5.083e-22)
(1.146 -0.1409 5.794e-22)
(0.5474 -0.1857 -3.968e-21)
(0.7266 -0.2273 0)
(1.103 -0.09152 0)
(1.135 -0.1491 -7.731e-28)
(0.4675 -0.1137 1.925e-22)
(0.873 -0.2331 -8.717e-22)
(1.134 -0.1351 1.126e-22)
(0.6645 -0.2179 0)
(0.7988 -0.2076 0)
(1.141 -0.1359 0)
(0.06062 -0.08237 -1.64e-22)
(1.043 -0.09795 0)
(1.233 -0.06566 0)
(1.2 -0.09375 0)
(0.1647 -0.0751 3.295e-22)
(0.7114 -0.2252 -1.737e-21)
(0.7762 -0.1997 -2.623e-21)
(1.107 -0.081 0)
(0.9243 -0.2231 0)
(0.6702 -0.1573 0)
(1.152 -0.1063 3.345e-22)
(0.514 -0.165 -4.32e-23)
(0.5619 -0.1868 -9.843e-23)
(1.061 -0.1905 -1.094e-21)
(1.186 -0.115 -9.831e-22)
(0.9156 -0.08962 -1.013e-21)
(1.088 -0.05726 3.2e-21)
(0.8566 -0.2324 -1.531e-23)
(0.4244 -0.1491 0)
(0.7989 -0.1687 2.363e-22)
(1.172 -0.08589 0)
(0.6659 -0.2175 2.025e-22)
(0.6534 -0.2138 5.724e-22)
(1.112 -0.1502 -3.873e-22)
(0.8571 -0.222 -6.554e-22)
(0.8647 -0.2279 5.346e-22)
(1.324 0.08703 0)
(0.4984 -0.1604 -2.54e-23)
(1.182 -0.1054 7.136e-24)
(0.5609 -0.1687 0)
(1.055 -0.1246 4.788e-21)
(1.114 -0.1642 -6.422e-22)
(1.354 0.214 8.2e-22)
(0.4777 -0.1378 4.412e-21)
(0.6417 -0.2128 -2.149e-22)
(0.982 -0.07622 1.816e-24)
(0.8486 -0.2063 1.965e-23)
(1.304 0.03688 -1.558e-21)
(0.7077 -0.2072 -2.371e-22)
(0.4815 -0.1348 -8.548e-21)
(0.4989 -0.1648 -1.654e-23)
(1.094 -0.1662 3.575e-22)
(0.5922 -0.1888 1.116e-22)
(1.026 -0.07944 2.363e-23)
(1.056 -0.1914 -2.098e-21)
(1.214 -0.09058 -2.083e-21)
(0.6034 -0.03514 0)
(0.4074 -0.1221 -6.926e-24)
(0.497 -0.1648 -3.638e-23)
(1 -0.2115 9.778e-22)
(0.6432 -0.2019 3.079e-24)
(0.5584 -0.1755 0)
(0.8163 -0.2297 1.391e-21)
(0.5003 -0.1718 -3.509e-23)
(0.435 -0.1496 5.018e-23)
(0.577 -0.1849 -7.291e-21)
(0.7971 -0.2317 0)
(0.8066 -0.2334 1.509e-25)
(1.13 0.1137 -4.345e-22)
(1.056 0.01094 -1.695e-21)
(0.4096 -0.1252 5.344e-23)
(0.7467 -0.1828 3.438e-22)
(1.105 -0.1375 1.028e-21)
(1.146 -0.1411 0)
(0.8239 -0.23 1.145e-21)
(0.9529 -0.2205 -2.219e-21)
(0.4024 -0.1422 0)
(0.9772 -0.2161 1.558e-21)
(1.336 0.1767 4.416e-22)
(0.6658 -0.2113 4.743e-22)
(0.6775 -0.2046 -1.223e-22)
(1.08 -0.1782 2.649e-21)
(0.555 -0.1309 2.959e-22)
(0.5947 -0.1676 -1.738e-22)
(1.088 -0.06608 -5.282e-23)
(0.6269 -0.202 2.278e-22)
(0.6415 -0.1781 1.568e-22)
(1.049 -0.006017 -1.104e-21)
(0.6773 -0.1202 7.408e-22)
(0.6105 -0.1928 -2.414e-22)
(0.5764 -0.03134 -1.259e-22)
(0.6392 -0.2108 -2.85e-22)
(1.053 -0.1516 5.028e-22)
(1.203 -0.09485 5.349e-22)
(0.5536 -0.1892 -2.243e-22)
(1.062 -0.1704 9.498e-22)
(0.4259 -0.1342 4.11e-21)
(0.3571 -0.1295 -2.77e-22)
(0.6021 -0.04315 3.326e-23)
(0.7522 -0.2163 1.022e-21)
(0.4567 -0.1612 -3.363e-23)
(0.7432 -0.1621 0)
(1.076 -0.05105 -2.974e-22)
(0.4865 -0.02776 5.049e-23)
(1.095 -0.06085 1.027e-21)
(0.9394 -0.0781 7.601e-22)
(1.004 0.0001293 0)
(0.6232 -0.2075 0)
(0.7987 -0.2268 8.895e-22)
(0.568 -0.1605 1.625e-22)
(0.9328 -0.06618 0)
(0.6394 -0.1804 0)
(0.5891 -0.1992 0)
(1.003 -0.1412 1.533e-21)
(1.143 -0.1383 -2.441e-22)
(0.872 -0.2335 -1.517e-21)
(1.121 -0.1606 -3.795e-22)
(0.08231 -0.1 -1.579e-22)
(0.6455 -0.1597 -8.325e-22)
(0.7742 -0.1141 0)
(0.8782 -0.2021 2.197e-21)
(1.07 -0.1639 0)
(0.8167 -0.2302 -4.227e-21)
(0.4179 -0.1479 1.124e-22)
(0.7191 -0.2141 -2.74e-22)
(0.705 -0.2233 0)
(0.7479 -0.2275 0)
(1.01 -0.2018 0)
(0.5768 -0.1959 1.731e-22)
(0.6622 -0.2167 1.386e-21)
(0.5434 -0.1853 1.087e-22)
(0.7431 -0.1604 4.218e-22)
(0.9546 -0.2061 0)
(1.027 -0.09376 0)
(1.084 -0.1468 -4.225e-21)
(0.6089 -0.2046 1.111e-22)
(0.4939 -0.1262 1.408e-22)
(0.5668 -0.1897 -2.465e-22)
(0.6109 -0.1726 -3.368e-22)
(1.026 -0.1967 6.782e-22)
(0.9054 -0.1354 3.487e-21)
(0.4429 -0.1361 0)
(0.6142 -0.2056 0)
(0.6228 -0.1968 9.079e-23)
(0.8159 -0.2236 0)
(1.114 -0.08662 6.223e-23)
(0.448 -0.1581 8.035e-23)
(0.6106 -0.1646 -3.387e-22)
(1.293 0.01959 0)
(1.126 -0.1394 0)
(0.5618 -0.1863 4.062e-22)
(1.105 -0.09566 5.848e-23)
(0.8558 -0.1793 -3.601e-21)
(1.276 0.05434 2.172e-21)
(1.106 -0.1371 -5.219e-22)
(0.8753 -0.06293 9.429e-23)
(0.7633 -0.2116 -3.918e-22)
(1.107 -0.09066 0)
(0.7897 -0.2183 2.38e-22)
(1.106 -0.07023 -1.406e-22)
(0.8157 0.1044 5.553e-21)
(0.9052 -0.2144 3.283e-22)
(0.6463 -0.2135 1.706e-21)
(0.7377 -0.2282 -1.545e-21)
(1.058 -0.1922 1.293e-21)
(0.5296 -0.1729 -1.824e-22)
(0.9209 -0.1932 2.266e-21)
(0.5378 -0.1719 -1.516e-22)
(0.8302 -0.09725 0)
(0.9216 -0.229 -1.197e-21)
(0.4906 -0.1707 3.188e-22)
(1.138 -0.1482 -3.029e-22)
(1.124 -0.09217 0)
(1.033 -0.1974 -8.724e-22)
(0.9326 -0.2269 -5.908e-22)
(1.309 0.1553 1.486e-21)
(0.5531 -0.1775 0)
(0.6861 -0.2213 1.682e-21)
(0.5897 -0.2001 -4.755e-22)
(0.9866 -0.07634 -2.934e-23)
(1.125 -0.1578 -3.765e-22)
(0.8884 -0.2313 -1.178e-21)
(0.5813 -0.1868 -1.204e-22)
(0.8934 -0.2318 -6.405e-22)
(1.099 -0.1722 8.542e-22)
(1.034 -0.2005 1.367e-21)
(0.6904 -0.2206 0)
(0.7422 -0.2187 3.496e-22)
(0.9166 -0.2294 1.987e-21)
(0.4877 -0.1633 -4.573e-23)
(0.5537 -0.1877 -2.67e-22)
(0.5146 -0.1787 5.509e-23)
(0.6347 -0.2121 7.732e-22)
(1.169 -0.1289 2.408e-22)
(0.622 -0.1925 3.011e-22)
(0.7202 -0.1991 -7.305e-23)
(0.7819 -0.2327 -1.775e-21)
(0.7614 -0.2222 0)
(1.07 -0.08358 1.582e-23)
(1.025 -0.203 0)
(1.088 -0.08716 3.051e-23)
(1.27 0.04931 -1.343e-21)
(0.5795 -0.187 2.879e-22)
(1.129 -0.0816 4.009e-23)
(0.6889 -0.06674 5.203e-21)
(0.7782 -0.2324 0)
(0.7228 -0.2256 -3.292e-22)
(1.096 -0.07974 3.425e-22)
(1.045 -0.1873 -2.251e-21)
(0.395 -0.1574 1.892e-23)
(0.5997 -0.1644 -3.201e-22)
(1.009 -0.1012 3.862e-21)
(1.213 -0.05804 -1.31e-21)
(1.096 -0.1552 0)
(0.5508 -0.109 -3.009e-22)
(0.6638 -0.1765 0)
(0.5591 -0.1165 0)
(0.5595 -0.1941 0)
(1.08 -0.05083 1.175e-22)
(0.648 -0.2115 -2.91e-22)
(1.04 -0.04048 -7.578e-23)
(0.5143 -0.1806 -1.758e-21)
(0.7308 -0.1914 0)
(1.14 -0.1481 -4.353e-22)
(1.124 -0.1472 -4.792e-22)
(1.088 -0.1441 -2.129e-23)
(1.065 -0.111 0)
(0.3851 -0.1382 -1.309e-22)
(0.7292 -0.1591 4.091e-22)
(1.005 -0.0969 1.768e-21)
(0.3936 -0.1357 0)
(0.9569 -0.1628 -1.448e-21)
(0.5827 -0.2002 -1.056e-22)
(0.9848 -0.1651 0)
(1.038 -0.1915 3.966e-22)
(1.13 -0.1199 -3.529e-21)
(0.7362 -0.229 5.116e-22)
(0.79 -0.2335 0)
(0.5695 -0.1608 -2.176e-22)
(0.3188 -0.09213 -1.622e-22)
(0.9026 -0.2303 5.806e-22)
(0.7745 -0.2323 0)
(0.3451 -0.1248 -8.563e-22)
(0.8548 -0.2254 0)
(0.5536 -0.1843 3.868e-21)
(1.014 -0.04393 1.166e-22)
(0.7606 -0.2273 0)
(0.8667 -0.2278 -1.064e-21)
(0.422 -0.1496 0)
(0.683 -0.2163 0)
(0.8217 -0.2321 -2.091e-21)
(0.9056 -0.2302 9.977e-22)
(0.6917 -0.1553 0)
(0.8558 -0.228 -1.011e-21)
(0.4571 -0.1569 4.006e-23)
(1.224 -0.01841 2.95e-21)
(1.161 -0.1224 8.915e-22)
(0.9214 -0.07142 0)
(0.7841 -0.2266 1.079e-22)
(1.054 -0.1908 0)
(0.8198 -0.2339 -1.618e-22)
(0.8852 -0.1995 3.447e-21)
(0.9319 -0.2271 -1.42e-21)
(0.6546 -0.216 1.059e-22)
(0.4648 -0.162 -1.471e-22)
(0.7709 -0.2318 8.603e-22)
(0.6379 -0.2128 1.064e-21)
(0.3202 -0.1047 -1.065e-21)
(1.126 -0.1544 1.921e-22)
(1.282 0.00926 1.177e-21)
(1.028 -0.1994 0)
(0.6423 -0.2015 3.504e-22)
(0.969 -0.2139 1.628e-21)
(1.02 -0.1662 8.752e-22)
(1.067 -0.1876 -8.429e-22)
(0.273 -0.1901 -8.336e-23)
(0.778 -0.2153 0)
(1.049 -0.01083 1.12e-21)
(0.9701 -0.2185 -1.244e-21)
(0.8336 -0.2285 -6.488e-22)
(1.113 -0.1648 1.101e-21)
(0.7897 0.03252 -5.08e-21)
(0.7395 -0.2273 4.658e-22)
(1.115 -0.1371 -1.527e-22)
(1.303 0.03631 -9.051e-22)
(1.126 -0.0972 0)
(1.086 -0.1468 -6.04e-21)
(1.104 -0.1652 -6.324e-22)
(1.143 -0.1409 3.868e-22)
(1.09 -0.1307 -1.169e-21)
(1.12 -0.09588 2.687e-23)
(0.4595 -0.17 1.302e-21)
(1.109 -0.0854 2.049e-23)
(0.6816 -0.2207 0)
(0.8778 -0.1746 -2.22e-21)
(0.5623 -0.1835 1.42e-22)
(0.5085 -0.141 0)
(0.5476 -0.1879 0)
(0.952 -0.2224 -5.858e-22)
(1.226 -0.0562 -3.798e-21)
(0.94 -0.2256 0)
(0.6419 -0.2103 2.523e-22)
(0.4002 -0.1442 -2.127e-25)
(1.133 -0.1376 -2.939e-21)
(0.412 -0.1463 2.472e-25)
(0.4389 -0.1469 -2.191e-23)
(1.084 -0.1748 1.345e-21)
(1.123 -0.09456 1.241e-22)
(0.3499 -0.1204 0)
(0.801 -0.2337 0)
(0.6296 -0.2084 7.659e-23)
(1.132 -0.1441 0)
(1.127 -0.1564 -1.074e-21)
(0.6841 -0.2207 0)
(0.9237 -0.2229 1.116e-21)
(0.5396 -0.1823 2.059e-23)
(-0.07079 -0.03199 0)
(1.056 0.015 0)
(0.7025 -0.221 -1.736e-21)
(1.064 -0.0465 0)
(0.655 -0.2161 7.408e-22)
(0.6805 -0.2113 0)
(1.046 -0.1053 0)
(0.4272 -0.1497 4.563e-23)
(0.7609 -0.2278 0)
(0.9045 -0.2271 -1.405e-21)
(1.173 -0.1251 0)
(0.8905 -0.2086 7.7e-22)
(0.6581 -0.1888 6.011e-22)
(0.5005 -0.1233 -7.147e-23)
(0.7229 -0.2261 -9.06e-25)
(0.8609 -0.07811 3.328e-23)
(1.002 -0.1342 0)
(0.7608 -0.225 1.226e-22)
(1.079 -0.08869 -9.693e-23)
(0.6983 -0.2198 -2.617e-22)
(0.5131 -0.1769 -8.398e-23)
(0.6215 -0.1858 4.659e-22)
(1.122 -0.1109 1.815e-21)
(1.189 -0.01525 0)
(1.086 -0.1394 3.772e-21)
(0.681 -0.04812 0)
(0.8604 -0.2087 1.345e-21)
(0.9723 -0.2053 0)
(0.8386 -0.2053 8.032e-23)
(0.1922 -0.07221 0)
(1.139 -0.133 2.481e-21)
(1.124 -0.09185 -4.063e-23)
(0.8157 -0.06519 3.023e-23)
(1.138 -0.1211 -3.508e-22)
(0.8663 -0.06622 -9.27e-24)
(0.7083 -0.2244 -4.215e-22)
(0.8916 -0.2276 0)
(1.287 0.01773 -1.489e-24)
(0.7585 -0.1961 1.216e-21)
(0.8929 -0.2282 -1.524e-21)
(0.9675 -0.1366 0)
(0.4407 -0.1414 -4.168e-24)
(1.102 -0.08534 1.221e-23)
(0.9341 -0.2185 1.874e-21)
(0.7768 -0.1861 6.213e-22)
(0.406 -0.1448 0)
(1.131 -0.1539 7.595e-22)
(0.7274 -0.2153 6.223e-22)
(1.086 -0.174 1.023e-21)
(0.5471 -0.188 1.649e-22)
(0.6917 -0.2212 -3.04e-22)
(1.154 -0.1295 -6.352e-22)
(1.143 -0.1415 -7.536e-22)
(0.6921 -0.2216 -1.135e-21)
(1.108 -0.094 -2.222e-23)
(0.371 -0.1342 0)
(0.7057 -0.04664 0)
(0.4428 -0.0287 1.499e-23)
(0.6918 -0.2225 1.476e-22)
(0.8621 -0.2032 3.676e-21)
(1.076 -0.06399 -5.215e-23)
(0.4143 -0.05253 3.094e-22)
(0.5984 -0.2025 6.589e-22)
(1.226 -0.04522 1.979e-21)
(0.7354 -0.2154 0)
(0.557 -0.1885 -1.517e-22)
(0.3488 -0.1221 -1.944e-21)
(0.8481 -0.2246 7.519e-22)
(0.954 -0.2178 6.931e-22)
(1.188 -0.02537 0)
(0.6984 -0.2221 5.373e-22)
(0.4819 -0.1614 8.952e-23)
(1.129 -0.0959 6.39e-23)
(0.5652 -0.1836 -1.63e-22)
(0.6404 -0.1083 0)
(0.6443 -0.2136 -2.07e-23)
(0.9804 -0.1154 0)
(1.052 -0.1888 -4.089e-21)
(1.12 -0.157 0)
(0.3871 -0.1333 3.051e-21)
(1.29 0.05757 -1.197e-21)
(0.6483 -0.2095 0)
(0.7317 -0.192 0)
(0.7422 -0.2289 2.45e-21)
(0.9004 -0.2314 0)
(0.5609 -0.1845 1.504e-22)
(0.9331 -0.007385 7.055e-23)
(0.3825 -0.1265 0)
(0.6468 -0.2129 8.41e-22)
(1.132 -0.153 4.828e-22)
(0.8319 -0.2025 0)
(0.814 -0.2156 0)
(0.7808 -0.1925 1.067e-20)
(0.6781 -0.2082 1.676e-22)
(0.5287 -0.1865 1.208e-22)
(1.107 -0.04983 0)
(0.5133 -0.1386 1.719e-24)
(1.127 -0.09153 3.662e-23)
(1.071 -0.1825 0)
(0.899 -0.1227 -1.273e-21)
(0.8079 -0.234 -1.717e-21)
(1.316 0.1642 0)
(0.3521 -0.116 4.852e-22)
(0.6203 -0.1654 0)
(0.2406 -0.09662 0)
(0.9956 -0.1391 5.422e-21)
(0.9709 -0.08371 4.948e-21)
(0.4212 -0.1266 7.71e-21)
(0.6632 -0.2181 1.199e-21)
(0.6545 -0.212 0)
(0.9275 -0.1845 0)
(1.089 -0.1601 0)
(0.8757 -0.2334 1.077e-21)
(0.7262 -0.2164 7.672e-22)
(1.146 -0.1377 6.4e-22)
(0.5728 -0.1638 0)
(1.319 0.1556 -1.222e-21)
(1.065 -0.1885 -5.005e-22)
(0.5889 -0.1993 0)
(1.128 -0.06834 0)
(1.212 -0.09196 2.067e-21)
(0.8979 -0.2308 1.138e-22)
(0.8978 -0.1701 2.189e-21)
(0.2693 -0.1933 0)
(1.106 -0.08886 -4.321e-22)
(0.7451 -0.2296 -3.64e-22)
(0.9565 -0.1904 -1.59e-21)
(0.8723 -0.233 0)
(0.8208 -0.2094 0)
(0.7888 -0.2302 2.304e-23)
(0.7004 -0.2231 0)
(1.09 -0.07674 -2.179e-23)
(0.8272 -0.2283 3.727e-21)
(0.6791 -0.2193 -4.06e-22)
(0.8482 -0.2304 0)
(1.217 -0.08484 0)