/*--------------------------------*- C++ -*----------------------------------*\
  =========                 |
  \\      /  F ield         | OpenFOAM: The Open Source CFD Toolbox
   \\    /   O peration     | Website:  https://openfoam.org
    \\  /    A nd           | Version:  8
     \\/     M anipulation  |
\*---------------------------------------------------------------------------*/
FoamFile
{
    version     2.0;
    format      ascii;
    class       volScalarField;
    location    "55";
    object      epsilon;
}
// * * * * * * * * * * * * * * * * * * * * * * * * * * * * * * * * * * * * * //

dimensions      [0 2 -3 0 0 0 0];

internalField   nonuniform List<scalar> 
127143
(
33.63
6.982
9.393
4.411
95.78
4.321
314.2
81.57
123.3
62.61
349.9
119.2
46.9
3.839
13.48
9.844
10.4
0.07697
0.1099
8.261
0.378
3.086
0.1319
0.6662
3.198
3.279
11.11
12.19
12.34
0.0625
0.7942
3.387
35.04
2.204
0.06437
34.8
0.2747
0.3649
0.5595
1.808
0.1096
1.16
0.9523
12.01
0.07764
2.139
11.87
0.1913
1.037
0.5689
9.304
0.02158
0.8317
0.229
0.005275
2.242
0.005088
0.1365
0.01309
0.2273
0.8992
0.1499
0.3294
0.09658
2.593
0.4803
0.06465
0.3535
0.3477
0.0008089
0.7098
10.55
0.1284
0.01311
0.02705
11.2
0.0172
0.2673
2.199
0.1318
10.4
7.177
1.326
1.475
0.1562
0.2455
0.5083
16.84
0.4609
12.2
0.01588
0.1451
9.727
0.3769
0.7461
0.08363
1.084
1.036
0.2484
0.06309
0.1332
0.9947
26.34
0.2356
0.2397
0.2524
0.5819
0.0008157
1.148
0.01752
12.64
16.91
0.512
5.364
0.02068
0.3075
0.01767
0.02706
0.01713
1.183
0.0167
1.116
1.55
0.1192
10.12
3.869
0.1885
0.01658
1.304
2.688
0.3668
0.6421
0.288
0.2637
3.052
0.3603
0.03619
0.3554
11.2
0.03803
0.1951
0.01736
0.6091
0.3719
0.8236
3.845
49.74
0.1068
0.6563
29.46
0.2459
1.098
0.3592
0.1493
5.631
0.1545
0.1359
3.511
0.1892
1.241
0.6545
42.73
0.01607
0.3656
3.852
2.383
0.3133
0.8295
9.763
0.02245
0.6541
0.3705
0.3522
0.9281
0.003699
0.2633
4.086
1.296
0.6304
0.01843
0.9297
0.02951
0.2743
0.2618
2.611
0.1482
0.2138
5.162
0.6211
0.02096
0.8665
1.131
0.03514
11.46
3.672
0.2237
0.112
0.112
23.29
0.0184
0.01692
0.02299
0.03648
0.2642
2.604
0.3969
0.06536
0.461
0.06006
0.02086
0.07629
0.1758
0.01554
9.713
0.4543
14.06
1.008
0.5246
0.4782
0.06452
3.75
0.02938
1.126
0.8217
1.307
0.6982
3.151
0.3615
0.487
0.2086
0.3992
0.02894
0.1247
3.094
0.3962
0.08781
0.3655
42.88
0.01683
0.7744
1.108
2.465
0.2109
3.433
0.6179
1.205
0.9245
10.41
6.576
0.001442
1.735
2.083
0.7043
0.3998
1.686
1.13
0.01646
10.18
0.6457
0.1106
0.2447
0.02345
0.1424
0.01737
0.8925
2.412
0.5192
6.901
1.129
0.5499
2.458
0.003609
0.1713
0.7786
0.2784
0.8546
0.5067
0.812
0.006093
0.7805
0.002486
0.08745
0.2309
0.02255
0.02042
3.32
0.4442
0.02031
0.7524
0.01875
0.3508
0.2474
0.08738
0.4168
0.01441
1.422
0.8344
0.7675
0.2109
0.5338
1.285
0.3878
0.5049
0.3
1.382
3.412
0.4536
0.01556
0.1557
0.2833
0.6015
0.845
2.362
0.002566
0.01981
7.332
0.4143
1.262
0.1275
0.01976
0.1267
0.7243
0.02191
0.7056
7.452
0.5351
0.03473
1.574
0.695
4.198
0.1672
0.02042
0.0624
0.1016
0.1016
0.1418
1.12
0.3495
0.1671
0.483
0.0368
0.5244
0.765
0.8431
4.094
0.7666
0.9086
0.6467
1.283
1.571
1.176
0.111
0.2641
0.8515
0.02641
0.8102
0.4007
3.258
0.01074
0.7164
0.1558
0.3144
0.08296
0.5426
0.5671
0.04063
0.01851
0.013
1.61
0.006198
1.832
0.022
1.607
0.5646
0.02028
0.07607
0.8214
3.745
0.2242
0.006501
0.1229
3.532
1.126
0.4013
0.01758
4.536
0.04654
1.704
0.2298
0.2236
0.01287
0.4261
0.5573
1.744
0.6257
0.8235
0.4258
0.7344
0.02635
0.02282
1.657
0.03012
0.4158
0.2673
0.04706
0.2987
0.2301
0.3015
0.1375
0.5927
1.812
1.497
0.1904
0.1833
1.488
0.7342
0.3301
2.676
0.4606
2.633
0.3046
1.903
0.5245
0.001485
0.2114
0.1382
0.8564
0.1546
2.322
0.08363
0.05465
0.5071
0.2773
0.08555
1.149
0.04023
0.3985
0.9058
0.02114
0.01444
0.02275
0.5352
0.03692
1.197
0.01884
0.9894
0.0185
5.828
0.01322
0.1757
0.3218
0.9936
0.2856
1.848
0.05024
0.2487
1.509
2.266
0.2369
0.4123
0.2784
1.07
0.2349
3.75
1.087
0.003371
0.01719
0.5407
0.8476
0.03247
0.2312
0.1596
0.1177
0.4064
0.05329
0.006091
6.022
0.1555
0.5708
0.6913
13.26
5.755
1.305
2.34
1.613
1.124
0.6292
0.01563
1.081
0.0173
6.357
0.4819
0.8978
3.735
1.481
0.3879
3.221
0.08241
3.7
0.01706
13.21
0.01714
0.2343
0.2204
7.04
1.174
7.011
0.07079
0.7969
2.182
0.02002
0.1511
1.683
0.3225
0.3006
0.3271
1.012
0.2308
3.751
0.003357
0.1943
3.672
2.951
1.124
0.611
0.01302
0.2405
0.03532
0.2313
0.01234
1.155
21.78
0.5645
0.04393
0.5409
0.102
0.7696
1.872
14.24
0.1883
0.01732
0.434
1.284
0.03629
0.3985
0.4285
0.771
0.529
0.8896
0.7556
0.2266
0.7619
2.329
0.2963
0.4917
0.01426
1.54
0.3885
1.584
0.3436
0.2005
0.08465
0.06712
0.1012
0.9294
4.243
0.01928
0.001686
1.09
4.074
0.2287
1.637
0.8425
2.037
0.4669
0.017
0.03758
0.5812
0.2638
0.8216
0.003967
10.22
0.2983
0.5533
0.006303
1.843
0.01917
0.2238
0.2575
0.1995
0.001634
0.4967
0.2451
22.86
0.00637
0.565
0.9967
0.02218
0.2963
0.01967
0.4417
0.5906
0.02269
1.09
0.9787
1.139
0.8784
0.5799
1.137
1.097
5.275
0.5293
9.184
0.515
0.2775
0.937
1.319
0.003993
1.911
0.02104
3.786
0.01723
0.599
0.04642
0.02037
0.141
2.599
0.4369
0.003494
0.007785
0.4655
12.14
1.134
1.024
0.1368
1.183
0.3161
1.853
0.8351
0.5749
2.983
0.003492
2.073
0.7917
0.2485
0.3155
0.01599
0.001693
0.5275
10.04
0.6275
1.682
0.01716
0.001042
0.3686
1.701
0.02234
2.244
0.1439
0.03956
0.731
0.5939
0.7828
0.2041
19.15
0.6623
0.234
0.2495
0.4395
1.049
1.653
1.268
0.02015
1.175
0.424
0.4098
0.01072
0.7761
0.4341
0.5791
0.04474
0.01005
1.846
0.08248
1.392
1.069
3.74
0.1568
0.4688
1.158
0.2252
1.81
0.01567
0.007672
2.053
0.1364
1.483
0.5582
5.445
0.1386
3.183
0.07402
0.08225
0.001032
0.9212
0.05371
1.66
3.008
0.451
0.8767
0.2196
0.001491
0.3733
0.5743
1.64
0.09503
0.2839
0.8321
27.08
0.3319
4.283
0.122
1.531
0.4037
0.2779
0.1863
0.2386
74.06
0.4434
0.0221
0.9353
2.239
0.4887
0.01482
0.3253
0.1105
0.2261
0.0009365
1.699
0.4999
1.879
0.0009827
1.318
0.2756
1.064
1.317
0.001079
0.206
0.5842
0.9114
0.4185
0.01813
0.7646
9.076
0.01483
0.4963
0.3725
1.024
0.384
0.3746
0.4592
2.591
0.4786
0.01875
0.2067
0.142
1.672
1.416
0.2307
0.1496
0.7269
0.02551
0.3134
0.7185
0.6766
5.457
0.6735
0.55
0.5606
0.2025
0.5074
0.07265
17.46
0.3928
0.8589
0.7804
0.2209
0.4115
0.3888
0.6536
0.04009
0.1043
0.2504
0.0009383
0.4447
6.264
0.5791
1.473
0.02827
0.3099
0.2714
0.01577
0.02036
0.3132
0.1497
0.1369
0.4054
0.2211
7.17
0.2884
0.4277
0.01081
0.273
0.2915
0.7712
1.212
0.789
0.002226
0.01289
0.04141
11.33
0.01156
0.06756
9.547
0.4292
2.792
0.004341
0.2052
0.4152
0.02653
1.256
0.0685
3.126
26.55
1.253
0.7054
2.236
0.01548
0.9175
0.2373
1.115
0.5032
1.885
35.42
0.2303
0.2994
0.9061
7.069
0.02423
0.2691
2.643
6.597
0.4274
6.439
0.002217
0.05147
0.5874
4.23
13.28
2.879
152.4
4.724
44.31
0.589
0.6992
0.1037
3.615
0.01733
0.5996
0.001783
0.001738
0.6102
0.01935
1.027
0.1195
5.127
0.1722
0.02595
8.66
1.004
0.01274
0.1032
0.2812
0.02501
1.203
3.846
0.2978
0.5586
12.53
0.3242
0.4752
0.01894
0.8927
1.636
0.01054
0.9521
0.3789
0.1489
0.02612
0.01989
0.1052
9.94
0.9523
4.275
0.2443
1.956
0.8649
1.079
2.042
0.002207
11.29
0.6614
0.002207
1.174
3.492
0.1594
4.328
0.198
0.3078
1.449
7.804
0.7211
0.01701
0.02864
0.5134
1.666
0.3421
1.141
7.727
6.839
0.8291
0.1044
6.821
0.04124
5.885
0.01692
0.1968
1.612
0.4549
0.5619
0.2615
0.02428
0.01692
0.6764
0.2381
0.3651
0.8421
0.5026
0.1606
0.5946
2.153
1.69
7.332
0.7553
0.8887
0.8061
0.2949
0.1603
10.95
0.4062
1.65
2.481
0.264
0.01504
0.01056
0.1957
0.2179
0.2661
0.1799
2.067
0.3178
0.142
0.4718
0.5277
0.5647
2.608
0.1382
0.2342
0.1334
9.654
1.346
0.2807
0.5543
0.2438
1.659
0.6456
0.2619
0.1342
2.304
0.5494
0.3103
7.743
0.01262
2.66
1.169
0.1406
0.8833
13.64
0.01905
4.843
9.658
0.002476
0.1533
0.9447
0.4174
3.676
0.499
0.5823
2.921
0.5793
0.2345
0.1927
0.0173
0.6561
0.1777
0.4754
0.444
0.8351
0.2555
0.003406
5.682
0.3153
0.02968
1.271
0.002217
0.01712
0.3656
0.138
11.71
0.01724
1.247
0.02722
6.975
0.1147
0.09746
0.2481
1.647
1.048
0.7285
0.3455
0.006187
0.03278
0.4615
0.9486
0.4158
0.5496
2.582
0.6319
3.726
0.8995
2.001
3.655
0.8161
2.496
0.4161
0.1042
0.01089
1.17
0.3452
2.117
0.0007236
6.706
0.2503
0.3956
1.236
0.8975
0.2087
1.673
0.2101
0.3929
0.3726
2.557
0.5124
0.003163
0.2429
1.203
0.01501
0.8581
2.225
0.2081
0.4524
0.4033
0.03307
0.4143
0.3246
1.214
0.164
0.1056
0.7337
0.539
0.01341
0.2873
0.02675
0.3087
0.6928
0.4194
0.02414
0.6259
2.178
1.839
0.9501
0.1982
3.556
0.0008085
0.5345
0.02349
0.3017
2.113
0.9483
1.242
0.6548
3.87
0.04514
6.254
0.9629
1.008
0.3246
9.578
0.2012
0.09458
1.486
0.4959
0.03691
18.04
0.2419
0.601
2.206
0.779
4.452
0.7981
1.158
0.6604
0.3404
0.7234
1.006
0.7488
0.1587
3.589
0.09027
0.9501
0.0994
1.521
0.1056
0.02166
0.4693
4.225
0.206
0.02175
6.486
0.6269
0.02574
12.21
0.5497
0.6129
1.189
0.6551
0.2961
9.593
0.1036
1.694
0.1857
0.469
4.48
0.9448
1.274
1.571
1.187
0.06601
0.07394
0.5608
0.4302
0.6448
0.378
0.1423
1.283
0.1769
0.1852
0.1576
1.206
0.4235
0.3958
3.599
0.0451
9.827
1.388
0.3281
0.3008
0.02682
0.1657
0.9431
0.4236
1.047
2.445
1.525
0.01803
1.374
0.6455
0.4901
6.969
1.208
0.1219
0.5432
0.01536
0.5761
0.317
15.79
0.841
0.03823
0.3079
0.01397
24.82
9.654
0.251
0.2923
0.6626
0.002845
0.04596
0.4438
0.2017
0.1215
0.07474
0.0006758
0.0006794
3.519
0.3439
0.1728
2.414
0.7545
5.494
0.4856
1.739
0.3163
0.4721
0.05511
0.7821
0.203
0.9709
7.061
0.4273
0.1708
0.3546
0.3109
0.5214
42.43
0.1167
0.4504
0.1481
0.1843
0.1921
0.9054
26.66
0.1229
0.5854
0.008189
0.6653
15.26
0.06451
26.89
0.5243
0.2935
1.307
0.01158
0.5638
8.908
0.01899
0.533
0.6937
0.3954
20.28
0.3164
0.2188
0.5211
4.034
0.3201
1.067
0.1009
1.037
2.507
44.09
2.993
0.3544
0.02193
2.131
0.1218
1.104
10
0.1426
0.3381
0.009826
0.2775
0.4421
0.0117
0.1382
0.002434
23.76
0.1385
3.89
0.3653
0.7587
6.162
0.478
0.4978
2.357
50.24
0.4245
0.4419
0.6586
0.4407
0.1699
0.08411
0.2793
0.01719
0.2003
0.05474
0.1496
0.01472
2.82
0.3129
0.1778
0.01533
0.5558
0.1005
0.9772
0.1334
0.1978
1.534
0.3899
0.03415
7.349
1.503
0.9035
0.6871
0.3323
0.823
0.8617
0.3442
0.09169
1.94
0.2056
0.7671
1.981
0.9021
0.9467
0.1154
0.01759
48.21
0.4216
6.645
0.02491
6.757
2.341
0.9143
0.3242
0.01958
0.01812
0.06702
0.1214
0.04652
0.1633
0.4409
0.3631
1.194
0.02289
0.2625
4.599
1.657
0.08672
0.3388
0.1904
2.512
0.9184
0.7402
0.9243
0.2106
0.01545
0.3411
0.3537
5.214
0.7549
0.0338
0.954
0.01436
0.5549
0.2713
2.954
0.07083
0.03718
0.2033
1.336
6.83
18.35
0.268
0.394
0.9476
0.07403
0.01022
20.38
0.8365
9.128
0.07982
3.545
0.3008
0.01395
1.806
3.5
0.1984
0.2561
0.3441
0.5096
0.489
1.33
0.3052
7.758
0.05118
5.167
1.15
1.01
0.001158
0.001128
0.8454
1.836
78.43
4.892
1.2
1.103
46.39
0.01309
0.4319
0.0188
0.01723
0.01391
0.1793
0.004439
19.48
0.02292
20.36
0.3109
2.458
1.997
0.8816
0.001034
29.32
0.1268
14.58
0.262
4.481
0.01274
0.8306
0.6655
0.2444
1.032
0.6237
0.2458
19.07
24.11
0.05181
0.01023
1.659
0.0006133
0.1978
0.279
1.053
0.006607
1.669
0.02967
0.6957
0.834
0.2768
11.87
0.004942
0.205
1.076
1.061
0.1059
0.3138
0.2569
0.02074
0.09323
0.9083
89.24
0.9272
0.5396
0.01739
3.045
0.2206
0.1286
0.0007493
0.7051
0.4102
0.8742
0.01799
2.667
0.01729
0.8842
0.1056
0.8328
2.034
0.285
4.768
2.396
0.596
0.007646
0.6937
1.722
0.5202
6.698
1.921
0.1489
0.03281
1.061
59.1
0.7647
6.66
2.648
0.001065
0.1415
0.01517
1.627
1.051
1.166
0.02736
2.968
0.02856
0.1297
0.408
0.008422
0.1341
0.1255
1.98
0.3156
0.01457
0.7517
0.03857
1.931
9.715
0.3698
0.1126
0.7533
0.02295
0.6838
0.2598
10.91
2.301
0.255
1.264
0.7485
1.455
17.93
0.04471
0.1961
2.141
0.03752
0.7931
0.3137
0.2219
0.4436
0.01903
0.007341
0.816
0.1048
0.7637
0.3371
7.898
0.2837
4.83
0.2196
0.01853
5.066
0.7907
0.09749
0.8719
0.02512
0.6161
0.1442
0.2129
4.167
0.2575
2.035
0.6847
0.7769
0.03596
0.4555
0.6203
1.503
5.939
0.02065
0.3977
2.142
0.01644
0.02051
0.2843
0.0008343
0.9829
0.5525
0.4888
2.375
0.2304
0.1832
0.003006
0.2441
0.9205
0.003274
0.2928
7.398
4.411
0.1727
0.4686
2.765
0.1625
3.606
0.1509
0.5165
4.458
0.0007997
0.001333
0.3105
0.01767
2.073
2.237
0.1934
1.941
1.001
0.02008
1.784
14.73
427.5
0.4359
0.322
0.844
0.1552
0.1753
0.2434
0.2026
1.219
0.419
0.4296
3.063
3.09
0.273
0.2166
0.01847
18.07
0.1822
0.3247
0.4019
0.04733
0.8894
0.4237
0.1163
0.1661
2.3
1.939
0.5004
1.651
0.2478
8.069
1.32
0.02225
0.7976
1.305
0.4386
0.6144
5.936
0.0173
12.35
13.17
0.6009
0.001758
0.2007
0.1573
1.124
1.238
0.1615
1.501
0.00329
1.619
0.839
0.06613
0.1491
0.01391
0.8834
18.54
0.4656
1.157
52.95
0.2025
5.88
0.001426
19.68
1.091
0.1333
0.03629
0.1011
0.2916
0.182
0.4378
0.001409
0.8368
7.891
30.24
0.283
0.3241
0.42
0.7141
0.01778
0.02118
1.293
0.2225
0.01378
0.4262
0.4636
0.727
0.3641
0.5202
1.519
0.4389
23.91
3.278
2.122
0.09627
0.6596
6.578
0.1647
0.8917
0.1032
0.3098
0.3031
18.95
0.2019
0.2454
0.0008541
0.03705
2.085
0.3051
0.01996
0.04583
0.212
1.893
0.1647
0.7046
4.832
4.043
0.01952
1.276
0.1364
0.3224
2.628
0.1604
0.04118
0.8189
0.4816
0.2286
1.031
0.03504
3.156
0.1205
1.611
0.07791
0.8196
2.53
0.4426
1.333
0.4429
1.222
0.4752
0.8312
0.1983
0.166
0.2856
0.253
1.421
0.3306
28.62
0.6129
0.01458
0.3484
0.1024
1.464
0.6335
0.003548
0.2732
0.09618
4.095
0.001015
0.3294
0.2307
0.2694
0.1436
0.4456
0.07879
4.133
0.148
0.01926
0.7772
0.04251
0.1803
0.03346
0.2221
0.198
0.08386
0.1695
0.5304
0.7641
0.02387
0.0166
0.1373
0.2717
2.79
0.03178
0.6538
0.2535
2.662
0.8595
0.1209
1.773
0.5066
0.07182
0.4474
5.153
0.1528
18.01
0.7328
0.172
8.17
0.01992
0.007711
0.7998
0.1607
47.29
0.02609
0.2294
0.7729
105.1
0.6808
1.722
0.007586
0.007571
0.8198
0.8513
0.2585
5.271
0.03658
0.1826
0.2161
0.1344
1.323
1.129
0.5399
0.232
2.083
0.06038
0.6971
0.116
0.2881
1.609
1.998
2.374
0.5367
18.88
0.5233
0.9308
0.4081
1.193
0.5814
0.08895
2.709
1.597
0.001621
0.001606
0.5561
0.3574
3.032
1.063
4.43
1.141
0.00394
0.02052
1.614
0.0994
0.3595
11.04
4.283
0.1416
0.968
0.05898
17.02
7.095
0.001192
0.2986
0.3584
0.5415
0.2045
1.811
0.5422
0.8384
0.5952
0.2639
0.2876
0.1759
4.839
0.9124
0.4786
0.3525
42.38
0.3158
0.5187
0.6254
3.956
1.114
0.5369
5.582
0.1902
1.441
0.01601
0.1671
0.09005
0.5944
0.1346
6.472
0.549
0.1509
1.446
30.65
1.273
0.552
0.4598
1.084
7.628
0.003492
0.2087
0.2567
15.17
0.4171
0.2824
0.1065
0.2363
0.02109
0.4656
39.58
0.3043
0.6625
0.1436
0.08376
5.067
0.1162
0.5388
0.2052
0.1729
6.421
0.1168
0.5055
0.1241
0.04657
2.628
0.3133
7.654
0.7039
0.5939
0.01008
0.251
0.5388
1.161
8.656
0.2968
0.1248
1.017
0.01851
1.221
4.853
1.458
2.348
0.6975
3.917
1.112
2.821
4.406
0.2382
2.461
1.372
0.1033
0.07127
3.301
0.0007496
0.1491
0.01938
0.0495
3.768
0.01551
0.6708
1.075
0.1942
0.4625
1.25
4.347
0.3831
8.847
0.4286
0.1635
6.55
0.385
0.3858
0.01912
3.763
0.229
1.681
2.812
0.0008716
1.067
1.046
0.2855
0.2597
0.9648
10.78
0.9942
0.2788
0.4016
0.022
0.1074
0.06798
0.3733
0.2491
0.481
1.085
0.8711
4.529
0.2104
0.01345
1.238
0.3388
0.1684
0.3672
0.4517
8.661
1.323
5.079
5.088
0.4692
0.5622
0.5628
0.3723
0.4302
0.1432
4.267
1.445
0.4647
1.046
0.01048
2.167
1.189
0.1755
0.2936
5.568
1.691
4.51
0.276
0.7195
17.87
0.0127
1.757
0.1625
0.03741
0.993
2.365
0.0148
0.8339
0.2369
0.8203
23.81
0.9719
0.9466
32.9
0.2674
0.6119
0.1914
0.1914
0.5265
0.5642
0.7556
3.85
0.4149
0.01977
3.916
2.131
0.7097
0.01476
0.0134
0.8605
0.4012
0.5331
88.41
2.135
0.006359
0.9037
3.371
0.1202
1.55
0.6052
0.002188
0.2587
1.062
0.1208
0.2295
0.02066
0.01007
0.01434
0.004297
0.06167
0.216
0.5408
3.829
0.2848
0.395
0.4297
3.806
0.004307
0.5694
0.2508
0.8009
2.519
0.9239
0.3828
0.4002
0.8316
0.629
0.4481
0.04194
0.4655
59.54
1.304
2.609
0.8094
3.286
0.02058
3.777
0.3945
1.359
0.213
0.03318
23.36
0.02663
0.2745
2.277
0.004797
1.11
0.3245
0.3135
0.3116
2.233
0.04674
0.7367
0.003924
1.344
0.5035
0.4592
0.18
2.169
0.01204
0.01577
0.1677
0.515
1.065
0.07781
0.3142
1.394
0.3039
14.46
0.8715
0.1944
0.1376
0.2225
0.3046
0.1214
7.611
0.8097
0.02092
9.175
0.01889
0.01255
0.1411
0.001401
16.67
0.2057
1.264
0.2252
1.148
0.03322
0.07754
0.4297
0.7493
0.1539
0.002092
0.2407
70.32
5.092
0.09195
9.119
4.793
13.82
0.001157
0.1738
0.3095
0.1014
0.01731
0.1558
4.646
42.24
0.1808
1.152
5.666
0.02129
1.148
3.63
0.3965
0.0263
1.347
48.57
8.652
12.14
0.1587
0.6434
6.204
0.03168
0.3403
0.01614
0.2972
4.439
0.1288
0.9125
11.34
0.1045
0.35
2.061
0.1686
0.02193
0.7346
1.561
0.119
1.113
1.092
0.2165
0.1669
0.6347
0.421
0.2859
0.02157
0.8558
0.8741
0.7963
0.5823
3.062
0.7716
9.561
3.613
15.04
15.31
0.8392
0.05169
4.863
0.02007
1.461
5.399
0.02191
185.5
0.1308
0.4428
6.181
1.424
1.153
7.63
0.529
5.055
0.01586
104.7
1.208
0.0006608
0.1648
0.3106
41.55
4.977
3.585
0.2196
1.573
28.82
0.3494
0.1444
0.4601
9.237
0.008263
0.2811
0.4029
0.3628
0.3087
0.2234
0.1143
2.672
0.5932
1.056
8.221
0.01507
2.549
0.1567
0.506
0.4287
0.01767
0.07912
0.4522
1.635
1.435
3.209
0.0006276
0.0156
0.2329
0.854
7.459
0.2185
0.1253
0.00569
0.02315
1.912
0.005703
0.6117
1.628
0.08812
0.6039
0.2415
4.569
3.393
5.683
0.03821
0.9109
0.3071
1.219
0.1481
0.1697
5.477
0.1689
3.001
0.8347
1.184
0.4583
0.4622
18.61
0.2077
0.3408
0.6068
0.0008209
0.4692
0.06701
0.01788
0.4087
13.38
0.3772
2.981
0.3024
3.965
34.39
0.1332
5.494
0.003812
0.1422
0.03316
0.04099
1.147
0.127
4.791
4.018
0.5433
1.82
0.1689
0.525
1.881
0.4771
0.1714
2.041
0.1633
12.84
0.9936
0.001931
0.3277
0.3345
0.0596
0.0248
1.584
0.0307
1.807
0.6677
0.879
0.45
2.143
0.00104
0.1212
0.04507
1.89
1.94
3.767
0.4833
0.01419
2.707
0.01255
0.1207
0.4507
0.22
6.614
0.5967
1.107
0.1578
13.52
0.4938
0.003484
0.2498
0.5618
0.04475
0.3551
0.03167
0.9185
1.454
5.331
0.296
0.006043
0.9574
0.7094
1.517
1.529
1.654
0.7594
0.0174
0.192
0.3
0.4662
1.347
0.2415
0.08257
0.9519
0.129
3.276
1.579
0.00388
0.1642
0.01572
0.02646
0.4158
0.7405
0.776
0.01822
0.6491
1.983
0.5342
0.06912
0.6235
0.09927
1.724
0.002644
79.42
0.6354
1.859
0.0009131
0.07166
3.831
0.02488
0.4631
1.076
1.674
0.5291
0.8009
0.02694
0.607
0.4911
0.9444
0.2922
0.8756
0.2288
0.2327
0.7855
8.398
0.01272
0.3
0.5013
10.79
0.2865
0.07641
2.788
2.345
0.2679
0.3658
0.3095
6.232
0.03487
0.248
0.4742
0.1396
0.3546
0.4513
0.002051
1.931
8.734
0.4442
0.3444
5.729
0.8815
0.5496
0.01923
0.02417
0.09006
0.001066
38
0.5178
0.04471
0.01655
0.3638
8.125
0.04135
0.2043
1.719
0.5131
0.5838
1.275
16.78
0.9907
3.694
1.179
2.24
2.445
0.01775
0.3742
0.5384
0.4779
0.02328
0.1166
0.4206
0.1972
0.4757
26.07
6.687
0.09256
0.893
3.426
0.1734
4.181
0.2056
0.4736
0.2715
2.771
3.956
0.01853
1.972
0.3663
0.0432
3.652
0.2215
1.046
0.07225
0.7619
1.314
0.5216
1.444
0.01402
0.01861
0.09524
0.3465
0.1716
0.3752
0.02005
5.505
0.1247
0.2414
0.7188
1.814
0.1297
0.9896
0.00992
4.107
1.534
24.01
0.8825
0.07073
5.351
0.5887
1.064
9.404
0.1156
4.202
0.1012
0.1028
0.2632
0.06702
0.01788
25.39
0.4955
1.972
1.04
0.8277
0.3773
0.001549
22.4
0.03435
0.8226
0.1632
0.2056
1.496
0.2423
0.4025
0.7492
0.1245
0.5726
0.008202
0.4606
0.9939
18.53
5.71
0.09108
0.2322
0.2623
0.1648
0.5408
0.7986
0.05396
0.03351
0.2957
4.831
0.003077
0.01221
0.2661
0.7657
0.1397
12.13
0.1397
1.004
0.4508
0.3786
0.07035
0.1017
1.29
1.516
1.051
0.2969
3.914
0.09957
2.23
0.001468
1.593
14.73
0.03491
0.3253
0.193
0.9389
1.66
0.5842
0.08007
0.01034
0.8576
0.1611
0.01681
1.555
3.605
0.1853
0.1567
0.07854
0.06713
0.02267
3.819
0.3097
0.02021
8.915
0.8872
0.5878
0.02216
0.03845
0.01585
0.04055
0.5666
0.157
1.043
8.053
3.386
0.7992
2.986
3.886
0.01782
9.035
0.9654
0.9893
0.1237
0.1592
0.4381
1.073
2.08
4.624
0.5242
0.03376
0.3124
2.311
0.3534
0.9194
0.1179
0.3678
0.1569
1.727
0.001196
0.4223
0.578
0.5463
0.4375
2.263
10.21
4.648
0.01037
53.93
0.4405
0.1716
5.179
0.0291
0.8971
0.6737
0.006672
1.972
3.581
0.2052
0.5175
0.1292
2.796
0.01724
0.3078
6.066
0.2078
0.01656
1.599
0.2199
0.02905
0.2884
0.1574
0.5199
6.975
1.044
0.9157
0.2219
0.5198
1.049
0.01923
0.03255
2.854
0.402
0.5562
0.06825
3.845
0.5339
0.2703
0.3466
0.295
1.134
0.03423
0.05727
0.6038
0.5518
0.0518
0.6243
1.591
0.1497
1.156
1.407
0.154
0.05002
0.1322
0.2968
0.7541
0.5085
0.06472
0.9182
0.003101
0.23
0.4409
0.1687
1.002
0.4194
10.59
0.2706
0.3606
0.01234
0.007273
0.2604
0.2727
1.769
4.708
0.3768
1.132
7.233
0.7736
0.4469
0.924
0.7548
4.113
0.8517
0.03871
2.215
0.3679
1.3
0.2432
0.1959
0.202
0.5716
0.03873
0.3551
0.1014
0.02206
0.08063
2.212
0.01466
6.883
1.489
0.525
0.0178
0.7013
0.7988
0.001007
0.6037
0.9466
0.755
0.4552
1.031
0.03388
1.375
0.1178
0.1675
1.098
6.76
0.4454
0.7486
3.882
0.00679
0.02525
0.6444
1.131
1.865
0.1934
1.576
1.297
0.2544
0.1591
0.01768
6.728
1.454
0.1241
0.2185
0.0165
1.169
0.08086
0.9566
0.9953
0.4726
0.0124
10.43
0.854
0.01923
0.599
1.233
0.07836
0.01101
0.01181
1.127
25.73
0.3551
0.1117
0.3201
0.07295
0.556
0.4916
0.01343
0.4455
0.4195
6.389
7.13
1.325
0.01214
0.9023
0.4038
0.7119
0.7072
6.299
0.7107
0.7641
0.6634
0.5063
1.136
1.906
0.1001
0.001092
0.1021
0.03271
7.985
0.01736
0.1513
0.9423
0.3789
0.159
7.027
0.6364
18.67
0.1895
15.66
0.4922
0.2001
1.827
5.721
0.2082
5.079
14.08
0.02175
5.239
6.954
2.616
2.702
0.8166
0.1673
0.3836
0.3894
0.4644
0.04516
0.358
0.1877
0.2721
0.2008
0.3062
0.5529
0.1664
0.1106
4.002
0.6668
30.48
0.3945
0.903
0.006036
1.478
0.5292
2.363
0.227
5.194
1.104
0.5715
0.1042
4.539
0.1025
0.3689
0.3918
0.0547
0.2066
0.2633
0.3866
0.3082
0.4167
0.2218
0.6479
0.2257
5.55
0.3968
3.411
0.0477
0.2991
0.3555
0.1663
0.04134
7.677
0.02008
0.01453
0.02115
0.2481
0.4752
0.4996
0.06238
0.2189
0.2246
0.05479
5.713
2.934
3.887
0.536
0.06469
1.109
22.17
0.06384
0.8922
0.03232
0.6228
0.1184
0.5222
0.1744
0.01096
0.008771
0.7229
0.1404
0.04624
9.317
0.5496
0.05484
0.02653
0.3354
0.03187
1.979
2.949
0.004826
0.6282
0.5373
4.764
2.06
10.62
1.606
0.1067
0.2864
0.6544
0.2307
1.223
0.9782
0.764
1.329
0.346
3.962
0.01902
0.946
1.099
10.58
0.04004
0.2302
0.02235
0.2711
0.2484
1.032
0.793
0.5583
6.252
0.1409
1.259
10.53
0.7485
2.521
1.043
0.2906
0.2663
0.4498
1.198
0.1905
1.586
0.002978
4.189
5.183
1.498
0.2699
0.515
3.646
0.7215
0.2462
0.0443
64.04
0.3391
0.0007697
0.00138
0.00304
0.7197
8.578
0.1963
26.67
0.5436
0.001084
0.7856
0.4932
0.3447
0.9095
59.08
2.544
0.2906
7.431
0.2286
0.4019
7.934
0.2594
0.3873
0.1596
1.519
0.2134
0.2449
0.2424
0.9001
0.1972
0.7554
1.083
0.1876
3.567
0.5623
0.06156
5.116
0.2549
10.4
0.5922
0.008232
0.1095
1.177
0.02266
0.2379
4.427
2.874
0.1574
0.01206
0.1387
0.249
0.2497
0.04996
0.8986
0.009854
0.8612
0.4034
0.4971
0.4057
0.9691
0.9384
1.27
4.982
0.4866
0.3431
0.02788
12.17
0.04194
0.001374
0.4035
0.01815
3.065
0.1496
2.958
0.04482
1.317
0.3092
0.6937
0.8991
0.09313
0.34
0.2075
1.098
1.548
0.4717
0.06884
0.01617
0.4158
1.238
0.08751
0.2543
0.7115
0.7018
1.358
0.007695
0.2315
1.266
3.75
0.5537
0.3373
1.385
0.6527
0.01993
0.2208
25.66
1.127
0.04671
0.1477
0.5984
0.1026
0.4968
1.749
0.6932
0.04695
0.05297
0.1166
0.01387
0.01312
0.02445
0.1315
17.98
1.446
0.1389
0.4711
0.1958
0.07243
0.1591
0.221
0.721
0.04674
0.03275
1.285
0.08076
0.0214
0.7657
0.5182
0.1164
3.894
5.346
0.02085
0.2864
0.2938
0.7109
0.4309
0.9923
0.1633
0.8232
3.377
0.4818
5.736
0.1593
1.961
0.3173
0.6466
0.2939
12.08
0.06318
18.62
0.7094
0.02179
0.02868
0.00415
0.3935
0.2721
3.174
2.804
3.071
0.07824
0.01053
1.153
1.475
0.173
0.01723
1.212
0.1714
1.943
0.5159
10.88
2.254
1.521
1.692
0.5074
0.1028
1.516
0.5838
0.2844
0.3267
0.05639
0.016
0.1991
0.2352
1.341
6.656
0.3352
0.02987
1.59
0.07037
0.1254
0.01777
3.404
0.4546
1.105
1.043
0.4226
0.2771
0.2601
0.1767
0.1925
0.5764
0.1755
0.1332
0.04201
0.2724
11.62
0.1151
0.4585
19.37
0.005874
0.02122
0.2102
0.0244
0.05712
3.795
0.06529
0.06519
0.6959
0.01294
0.2815
1.075
0.7148
0.1622
0.145
0.03383
0.05188
0.3127
0.5699
1.92
5.861
0.2871
0.004783
0.1322
0.9365
1.66
0.07934
0.04714
0.04139
3.571
0.12
0.07077
0.2689
0.754
0.0682
0.02628
0.9289
0.01189
0.01859
0.01126
3.977
0.05581
0.6428
0.1382
0.02576
0.05914
0.1561
0.1882
1.443
0.1791
0.367
0.3432
0.106
7.618
0.2823
1.493
0.03743
0.4363
0.3955
0.5463
0.5041
0.1984
0.4882
0.3002
0.1509
0.75
0.06592
140
0.5918
14.3
0.103
3.609
0.01979
0.04455
0.3612
0.9854
0.152
0.4067
0.1403
0.001439
20.18
0.001425
0.6666
27.23
0.127
0.2669
0.002061
6.18
0.01776
0.1899
0.2189
0.6058
0.6574
0.01649
24.1
0.03003
0.3644
1.25
0.67
0.7007
14.43
0.4868
11.7
0.3879
0.01425
0.2061
1.547
0.02041
0.0835
2.321
0.1616
18.46
2.347
4.538
0.02649
0.3115
0.02555
0.01605
0.02515
2.764
0.1435
0.19
0.001144
0.2866
0.2244
0.9534
0.5402
11.35
0.01767
0.8724
3.555
0.5334
0.1274
0.1858
0.03331
0.344
0.005849
0.2815
0.9462
0.01621
0.5654
19.35
0.4074
1.992
0.2466
5.186
2.476
0.5121
2.01
5.667
0.7183
2.435
0.6923
0.2422
0.9338
0.3402
0.3951
0.5728
0.7421
0.003764
0.6865
0.002589
1.741
13.48
0.4744
0.6751
12.59
0.1975
0.4136
0.001238
0.6722
0.3104
26.51
0.1676
0.01156
0.2218
0.5599
0.5654
0.001196
0.6943
0.5586
0.2721
0.2675
3.38
2.09
14.31
0.4582
0.8455
0.5288
0.1752
0.5878
0.02039
2.792
1.363
0.01826
0.2732
0.2834
0.5438
1.204
1.774
0.05825
3.827
4.809
0.07878
1.032
3.282
3.716
1.419
0.004777
0.001878
0.8273
0.4466
0.3934
0.01225
3.595
0.4825
2.066
7.741
0.00774
0.5604
2.517
0.2659
17.18
0.5555
0.666
0.8177
0.204
0.6572
0.01818
0.3525
14.18
0.3904
0.6293
0.194
0.2148
0.009639
0.002933
0.5289
0.4365
0.247
1.081
0.2952
0.01552
1.015
1.083
0.1635
1.604
29.78
1.657
0.001143
0.1433
0.02024
0.6114
0.9468
1.194
2.723
1.903
2.26
0.02847
0.9469
0.03095
0.1318
0.8849
0.3074
3.949
0.6349
27.1
0.04057
0.7741
1.917
0.01755
0.4924
0.3163
4.974
0.1337
0.03783
0.01596
0.003865
0.3213
0.01532
0.2619
1.19
0.2313
0.2419
0.5679
0.04735
0.4452
0.1503
0.003615
2.347
1.092
5.194
0.5542
0.01707
1.417
1.78
0.02079
3.08
0.1735
1.609
0.3714
14.7
0.3096
2.964
0.1509
0.1707
0.04183
0.1914
0.04363
0.0625
2.92
0.3975
0.5013
0.3906
0.445
0.5745
0.01903
0.06054
0.07062
0.3254
0.2559
0.6931
9.312
0.1124
0.02259
1.693
0.1165
3.1
0.01164
0.6718
1.225
0.175
0.1519
1.459
0.8524
0.8222
0.3075
0.7568
0.01613
1.453
0.1866
0.3963
0.9137
7.59
1.567
0.0742
0.2849
0.2936
0.1686
36.77
0.01598
1.083
0.4161
0.206
0.2942
0.3078
25.3
0.3401
6.262
1.029
18.41
0.2978
0.256
5.46
1.306
0.02312
0.5962
0.2053
0.8265
0.7426
0.1681
3.346
0.001286
0.7005
3.225
1.601
0.9474
2.232
2.231
0.02046
0.9567
0.9655
0.6252
0.1242
0.05041
0.6215
0.3202
0.7817
3.023
0.01015
0.4415
0.1765
0.2358
0.2699
1.393
1.366
0.2606
1.359
1.807
0.006694
0.3255
0.2594
10.84
1.2
5.622
0.3489
0.3322
0.2271
0.1138
0.576
0.8808
5.639
1.989
4.945
27.95
0.3798
0.1134
8.299
1.27
1.705
0.001165
3.049
6.821
1.18
0.4186
0.01548
1.745
0.02492
0.2575
1.594
0.3996
0.9146
0.1533
1.537
0.2424
4.472
0.2351
0.8357
0.7161
5.508
1
0.797
0.2987
0.1939
9.428
0.15
7.449
0.3007
0.3664
0.02788
7.56
0.1597
0.05709
0.01872
0.264
0.5996
0.03005
0.006623
0.01777
0.5824
2.228
25.3
0.08112
0.001947
0.4377
0.006334
0.004797
1.107
0.0007558
0.4045
8.923
0.04993
0.9902
0.5242
1.001
0.1274
0.5523
0.06394
0.4457
0.2037
8.128
0.2905
0.5094
0.9041
1.581
0.08996
0.001949
0.1355
1.744
0.0191
0.1178
0.5436
1.571
7.262
0.4101
0.4063
1.531
0.01533
0.3636
0.9367
0.598
0.4375
0.3649
0.0006106
0.3819
0.3323
0.9989
0.5302
0.6002
0.001487
1.847
0.4775
0.00127
0.2404
0.0005833
0.9214
0.01825
14.19
9.989
0.02552
0.5791
0.6403
0.1045
6.905
1.28
0.01577
1.509
0.2923
0.5612
2.348
0.04056
0.08292
7.627
0.3385
0.5988
0.1563
0.3251
0.1894
0.2477
0.4885
0.001192
0.2713
1.012
0.2976
0.2655
0.202
1.332
0.292
0.3033
1.565
0.355
0.213
2.922
0.03123
0.1961
3.207
0.191
0.04386
0.2061
0.453
1.34
0.4687
0.48
6.729
0.2291
0.6805
0.341
0.003949
0.2458
2.162
0.203
1.195
0.0399
1.426
0.1335
0.3555
0.08652
0.1427
2.416
1.135
0.231
0.4966
8.061
0.3917
0.00864
0.01417
0.2247
1.887
1.986
0.3556
0.3017
0.1541
0.6604
0.1021
0.1581
15.84
0.1581
0.1475
7.753
0.7317
0.2827
0.2197
0.06008
130
0.01529
0.3035
0.6976
0.3518
0.4066
0.3761
2.285
0.1806
0.7518
0.093
77.24
1.014
0.1977
84.28
6.165
1.329
0.9066
0.003015
0.1462
0.08627
3.777
0.04084
1.594
14.39
0.06834
0.8578
0.2714
0.2904
6.601
0.8109
7.221
4.302
0.512
0.007535
0.007601
0.02473
0.7306
12.45
0.256
0.0161
0.0761
5.625
0.659
7.131
0.3231
0.0146
64.25
0.05107
0.1925
0.1692
0.03507
0.3069
0.1765
0.1977
0.06359
2.535
0.2084
0.4807
0.4138
48.3
0.1947
1.468
0.6624
0.1417
0.09464
50.36
1.419
5.008
0.3413
0.7552
3.291
3.119
0.09834
0.2095
0.7499
0.6152
1.828
0.002189
12.73
0.2599
5.529
0.2103
0.03396
0.0587
0.01491
0.7485
0.3157
0.4133
0.4324
0.2312
3.387
0.7067
0.1878
0.117
1.676
0.1136
0.9248
1.542
1.291
0.1838
0.06328
0.2776
0.2875
0.5174
0.1299
0.6805
1.477
6.261
0.3221
0.2917
2.057
0.3839
2.403
0.2239
0.7916
0.1072
4.271
2.175
1.424
0.2259
2.959
0.06248
2.642
1.438
0.4518
0.3
0.3063
0.8154
1.011
0.2574
0.4245
0.315
2.292
26.79
0.003002
0.03236
0.01247
0.4857
0.8449
0.4229
3.899
2.212
4.127
1.687
0.5494
1.996
4.07
0.2218
1.075
1.727
0.6923
6.017
0.01727
10.48
2.378
2.474
0.08593
2.243
0.5054
0.6161
1.412
2.206
0.01554
0.0708
0.6046
2.859
0.005167
0.5771
0.09401
0.4811
237.6
0.001281
0.199
0.1356
0.7116
0.9026
0.1944
0.574
1.388
0.7992
2.436
0.9408
0.04418
0.1628
2.157
0.02127
0.01727
7.568
3.732
0.5144
0.5417
0.06527
0.5587
1.246
0.8473
2.134
0.5562
0.0366
0.7543
0.1727
0.1646
0.01122
0.8288
0.006334
68.44
0.7579
1.183
0.1288
12.64
0.01342
1.423
0.005135
0.1048
4.56
0.24
8.377
0.1535
0.06631
0.5538
0.5264
0.2429
0.4755
0.2798
1.066
2.184
0.7366
1.15
2.261
6.547
0.6916
0.422
0.7613
6.044
0.7413
0.4366
0.1713
0.008549
29.93
0.4698
0.5201
7.446
0.01701
2.213
0.1396
0.00826
0.1811
88.31
0.127
0.8673
17.17
0.06423
1.127
0.8393
0.2117
0.1344
0.5087
16.14
2.395
0.02229
6.358
23.47
0.07589
0.01634
0.7933
1.681
0.7157
1.721
0.5909
3.332
0.01739
0.8358
0.1587
3.67
1.529
7.81
0.00829
0.008373
0.162
1.187
0.03358
0.1744
0.2172
4.046
0.2686
0.2829
1.328
0.08342
0.01835
7.353
3.858
4.6
1.981
0.04126
0.4875
0.002811
0.4847
9.255
0.5515
1.42
4.046
0.9921
1.11
1.175
0.5658
0.488
0.02121
0.01717
0.02002
0.1704
0.8691
0.9726
6.069
0.7228
0.01795
0.5303
0.9154
2.146
8.188
0.6002
0.5727
2.051
2.513
0.07985
0.3558
0.2285
1.651
0.07766
2.112
0.214
0.3737
0.7797
2.181
0.004535
0.01519
3.583
0.2736
0.1422
0.2998
9.588
0.482
0.004909
0.3886
0.3824
0.5533
0.4498
1.73
0.5087
1.141
5.697
0.09014
0.0005934
0.4662
0.05834
0.1127
0.06685
8.785
0.2378
1.442
0.3215
0.3344
0.7722
0.02505
1.626
1.491
0.4395
0.2699
1.983
22.18
0.03258
0.01659
1.992
0.3433
0.5491
0.2213
0.1252
1.375
0.04827
0.02924
0.6451
2.284
0.01983
1.273
1.005
0.01325
3.878
0.03644
0.259
0.4452
2.216
0.2044
14.97
0.8366
0.451
0.03642
0.01543
0.2504
0.3179
0.3796
0.1826
0.007329
0.007087
0.02053
0.3512
0.5061
1.723
0.0007055
1.14
0.2503
1.124
0.4795
2.917
0.1401