/*--------------------------------*- C++ -*----------------------------------*\
  =========                 |
  \\      /  F ield         | OpenFOAM: The Open Source CFD Toolbox
   \\    /   O peration     | Website:  https://openfoam.org
    \\  /    A nd           | Version:  8
     \\/     M anipulation  |
\*---------------------------------------------------------------------------*/
FoamFile
{
    version     2.0;
    format      ascii;
    class       volScalarField;
    location    "55";
    object      nut;
}
// * * * * * * * * * * * * * * * * * * * * * * * * * * * * * * * * * * * * * //

dimensions      [0 2 -1 0 0 0 0];

internalField   nonuniform List<scalar> 
127143
(
8.292e-09
4.871e-10
5.036e-10
1.301e-09
4.008e-06
1.243e-09
2.979e-06
7.163e-06
4.245e-06
3.167e-06
2.388e-06
6.058e-06
1.816e-09
1.579e-09
0.0009183
6.863e-06
3.824e-08
0.0395
0.01945
5.699e-06
0.004954
8.443e-06
0.06143
0.0009132
8.144e-06
9.076e-05
6.155e-05
5.186e-05
8.542e-05
0.0543
0.0005082
8.802e-05
4.464e-05
0.0001013
0.1566
4.501e-05
0.001912
0.01467
0.001329
9.787e-05
0.01949
0.01482
0.0175
2.295e-08
0.0381
0.0001061
8.897e-05
0.004807
0.00111
0.001146
7.226e-06
0.4061
0.004848
0.04041
0.5091
0.0005482
0.5054
0.02796
0.4798
0.041
0.01804
0.01329
0.003491
0.6153
0.00046
0.01801
0.1489
0.003061
0.00317
0.4001
0.0007219
6.583e-05
0.01126
0.4857
0.5791
5.874e-05
0.539
0.002743
0.0005687
0.6344
9.791e-05
7.034e-06
0.0003253
0.0001444
0.006052
0.003245
0.001814
5.132e-05
0.01909
0.00129
0.4404
0.04357
0.001862
0.005029
0.001897
0.03947
0.01559
0.0003063
0.004542
0.1529
0.6353
0.001224
0.0005274
0.01227
0.003434
0.004344
0.003078
0.401
0.009078
0.5105
0.001014
5.177e-05
0.003261
0.005268
0.5746
0.01367
0.534
0.5792
0.5418
3.502e-06
0.5133
0.0003733
0.003294
0.04092
0.0001025
5.153e-05
0.00939
0.4942
0.002639
0.0005249
0.002019
0.001715
0.005414
0.002827
1.138e-06
0.002112
0.1956
0.006638
0.0001927
0.2063
0.04283
0.5562
0.006636
0.009526
0.004966
0.00402
0.0001772
0.6205
0.001627
0.000384
0.009842
0.001329
0.01611
0.07167
0.002219
0.006246
0.028
0.0004993
0.004934
0.0002224
0.0007721
8.21e-06
0.4296
0.00202
0.0001783
0.000565
0.001521
0.01459
0.0005291
0.4222
0.0002062
0.009502
0.01169
0.004951
0.3655
0.001565
0.004311
0.002653
0.00117
0.294
0.004972
0.2026
0.001495
0.001588
0.0005629
0.01375
0.05722
0.005492
0.001061
0.3204
0.003603
0.002027
0.2028
0.002543
7.009e-07
0.009495
0.5573
0.5572
1.132e-06
0.5712
0.5687
0.409
0.1104
0.002094
7.618e-09
0.002232
0.1226
0.006602
0.0595
0.5748
0.084
0.004362
0.5631
0.000546
0.001288
2.45e-06
8.297e-05
0.006228
0.002506
0.1238
0.004773
0.5835
0.001253
0.005352
0.0001966
0.0001825
0.0002824
0.01511
0.000423
0.006621
0.004607
0.211
0.01214
1.294e-06
0.004673
0.06783
0.002027
7.683e-07
0.5686
0.004355
0.002136
0.0007289
0.002842
0.0005237
0.009429
3.721e-06
0.001981
5.602e-05
2.948e-06
0.4154
0.008681
9.922e-05
0.005166
0.006671
0.0009128
0.008794
0.4961
0.0007233
0.007612
0.1045
0.009519
0.3132
0.04515
0.557
0.006016
0.0006626
0.0006869
0.001651
0.01283
0.01421
0.0002261
0.3663
0.006074
0.004253
0.00494
0.003747
0.003333
0.001539
0.3149
0.007598
0.4265
0.03539
0.01279
0.5761
0.5743
6.383e-07
0.001854
0.5742
0.001425
0.2822
0.01676
0.02892
0.06891
0.01015
0.5329
0.006833
0.0005335
0.0002988
0.002847
0.01483
0.0002985
0.02011
0.02116
0.01438
0.0001684
0.003019
0.00681
0.5627
0.02226
0.006943
0.002732
0.0001516
0.000439
0.4317
0.5729
0.001877
0.01207
0.0002855
0.05785
0.1604
0.06457
0.0006319
0.3773
0.005116
0.001814
0.009567
0.2744
0.0001842
0.0006787
0.004662
0.00923
0.5743
0.1605
0.5386
0.5385
0.07536
0.009089
0.01196
0.009185
0.001682
0.213
0.006198
0.005652
0.003932
0.005474
0.001363
0.0007152
0.002706
0.0003424
0.002216
0.0003929
0.02446
0.001563
0.003815
0.3636
0.000826
0.006557
0.004604
0.4027
0.0006391
0.007502
0.003861
0.05183
0.001175
0.001197
0.5907
0.5715
0.2087
0.0003791
0.3125
0.01003
0.374
0.0001726
0.001098
0.3349
0.1075
0.0006335
5.957e-06
0.005084
0.3108
0.03726
5.853e-05
0.0004801
0.01937
0.5378
1.982e-05
0.2158
0.0001103
0.009003
0.0209
0.5181
0.02735
0.000299
0.0009259
0.001032
0.000492
0.02714
0.0005976
0.3643
0.3241
0.0001138
0.5842
0.005242
0.001589
0.2133
0.007815
0.003818
0.005244
0.6365
0.001335
0.004263
0.000364
0.04392
0.005636
0.003588
0.001987
0.003597
0.0001874
0.01381
0.001403
0.00162
2.898e-05
0.001006
0.4155
0.006391
0.08565
0.01902
0.06062
0.0008466
0.09951
0.499
0.001032
0.001394
0.067
0.006524
0.5906
0.006587
0.0008391
0.4138
0.5376
0.5732
0.001304
0.1895
0.008213
0.5002
0.0003384
0.5712
0.001487
0.2063
0.004374
0.004806
0.0006243
0.008583
0.0003392
0.2059
0.002294
0.0002511
0.00105
0.002742
0.01639
0.005829
0.004155
0.01616
0.007186
0.003962
0.3782
0.5644
0.005224
0.0005747
0.4411
0.005694
0.04228
0.04156
0.01251
0.1495
0.3829
0.002428
0.04407
0.0003324
0.007214
0.0001165
0.001609
0.001072
0.0004512
0.005214
0.006743
0.008432
0.5661
0.0003012
0.5497
0.00241
0.002033
0.004275
0.004021
7.97e-08
0.001677
0.007709
0.06156
0.006498
0.5683
0.0001149
0.564
0.002207
0.009977
9.964e-08
2.293e-06
1.102e-06
0.5882
0.0008556
0.003144
0.5732
0.008927
0.002802
0.001891
0.01093
0.004621
0.0006007
0.005747
5.869e-05
0.3856
0.00348
5.694e-06
0.001163
0.0003228
0.0002376
0.4947
0.01031
0.1183
0.01684
0.3731
0.0002505
0.0002857
0.0003077
0.4457
0.005169
0.06126
0.0001421
0.004524
0.0003424
0.01982
0.5408
0.0006588
0.005382
0.4487
0.01943
0.01503
0.0006279
0.001241
0.0005147
0.0002548
0.009336
0.009997
0.001685
0.001998
0.001114
0.5375
0.0001344
0.002332
0.0003179
0.004686
0.003382
0.6171
0.6087
0.1125
0.0006742
0.005869
0.5724
0.3413
0.006873
0.0007468
0.00373
0.005107
0.0001727
3.816e-05
0.01093
0.5511
0.4921
0.0003036
0.004785
0.003684
0.4337
5.994e-05
0.005754
0.001309
0.3148
0.000168
0.5723
0.004087
0.001858
0.02201
0.3017
0.0006163
0.00956
1.991e-05
0.3825
0.003295
8.457e-05
0.5728
0.007987
0.5733
0.001829
0.008575
0.5761
0.0004373
0.000757
0.0001341
0.002385
0.007488
0.0004272
0.0005111
0.003485
0.001497
0.002038
0.001245
0.001419
0.004955
0.0002088
0.4445
0.0005002
0.5743
0.00599
0.4979
0.006875
0.4887
0.5742
0.02573
0.001452
0.003595
0.4645
0.5348
0.0004684
0.0001646
0.0004644
0.0003441
0.009364
0.008365
0.004832
0.004096
0.004025
0.0007625
0.0004115
0.4634
0.001462
0.004341
0.02047
0.02215
0.4091
0.3394
0.009934
0.0002485
0.008449
2.655e-05
0.5019
0.3015
0.001594
0.001231
0.42
0.0004604
0.04706
0.1013
0.000423
0.007862
0.004494
0.05269
9.201e-08
0.0002044
0.002833
0.002278
0.001899
0.001717
0.0002117
0.000981
0.4431
0.002881
0.0005426
0.005428
0.5248
0.001699
0.02187
0.02709
0.4513
0.5247
1.453e-05
0.06081
0.0007277
0.002023
0.002036
0.02209
0.02122
0.0002522
0.05728
0.0009549
0.5662
0.4791
0.007602
0.0863
0.0004583
0.02771
0.0003218
0.009844
0.001025
0.08776
0.05338
0.3033
0.0003743
0.1474
0.0008185
8.684e-07
0.00525
0.006315
0.005362
0.3044
0.003926
0.001205
2.944e-05
0.03018
0.01223
0.004041
0.0004542
0.003528
0.00127
0.01631
0.001123
0.003297
0.007274
0.009684
0.02669
7.642e-08
0.02145
0.4284
0.002603
0.002548
0.002092
0.5626
0.0009962
0.02504
0.003826
0.3116
2.639e-05
0.001122
0.0001622
0.3581
0.0008855
0.001505
0.0009719
0.001885
0.3485
0.005116
0.0002555
0.0004269
0.00633
0.5703
0.005697
0.002115
0.5535
0.006308
0.01512
0.001838
0.001711
0.0211
0.005058
9.196e-05
0.0008218
0.3798
0.005055
0.01203
0.0001056
0.0004137
0.03918
0.009182
0.0002812
0.4006
0.002017
0.0004335
0.007242
1.298e-06
0.007355
0.0003261
0.003825
0.003079
0.009957
0.5903
3.222e-08
0.002058
0.002529
0.000166
0.003407
0.0007856
0.001281
0.0008584
0.4972
0.02645
0.01181
0.3124
0.00103
0.002453
0.002962
0.003364
0.4263
0.005088
0.001453
0.5664
0.4102
0.02212
0.01274
0.009368
0.000787
0.00413
6.956e-06
0.009826
0.02998
0.5279
0.00322
0.001728
0.0005522
0.0002211
0.01544
0.4247
0.5023
0.07875
5.661e-05
0.5269
0.0961
0.0003648
0.00389
9.31e-05
0.4518
0.00291
0.003807
0.581
0.000357
0.5156
0.002125
0.0002903
0.001334
0.0086
6.448e-05
0.4629
0.0004508
0.04561
0.00027
0.0003717
0.0001931
0.0003863
0.03958
0.01833
0.01078
1.259e-05
0.5785
0.02046
0.0007116
0.001006
0.00053
2.253e-05
0.4276
0.1101
0.0002967
0.0001103
1.415e-05
0.002718
5.226e-06
0.001311
1.07e-05
0.001714
0.000203
0.02719
2.358e-05
0.5408
0.002518
0.2916
0.2936
0.00589
0.455
0.002544
0.01481
0.005439
0.01965
0.2706
0.001494
0.002344
0.5193
0.03497
0.002097
0.2818
0.0004033
6.72e-06
0.0016
0.006267
0.0009882
0.01201
0.0005612
0.571
0.004384
0.000851
0.4132
0.0005292
0.002337
0.01468
0.4259
0.1491
0.03923
4.143e-06
0.007381
6.911e-06
0.005875
0.003571
0.002943
6.864e-05
0.001092
0.2928
0.0002068
0.02076
0.2918
0.007619
5.852e-06
0.0294
0.0008966
0.01002
0.01244
4.297e-05
6.377e-06
0.0009039
0.5526
0.5823
0.006587
0.005688
0.001421
0.0004682
0.003851
0.0002122
0.0008882
0.09029
0.0002097
0.1895
0.0001213
0.5659
0.004711
7.689e-05
0.007058
0.001082
0.004737
0.5776
0.5635
0.000217
0.03569
0.0008911
0.001012
0.0004578
0.006538
0.009519
0.002393
0.001419
1.518e-05
0.005234
0.0004174
0.0003743
0.008332
0.007596
0.002686
0.0008439
5.225e-05
1.244e-05
0.004553
0.5625
0.5523
0.005949
0.002994
0.01836
0.6139
0.00385
0.004791
0.02408
0.0005704
0.0104
0.0006402
0.008032
0.6368
0.02668
0.02355
7.382e-05
0.0001768
0.001399
0.0218
0.02235
0.0004265
0.0009673
0.006089
0.0115
0.003018
0.001949
0.001533
0.0001892
0.4185
2.045e-05
6.234e-05
0.01239
0.002536
0.000912
0.5726
1.607e-05
1.523e-05
0.4233
0.6045
0.003811
0.004017
5.59e-06
0.0004302
0.002678
0.0009523
0.0004605
0.02516
0.02397
0.4056
0.0003775
0.004976
0.0007258
0.01049
0.0001211
0.002674
0.4508
1.691e-05
0.001131
0.5685
0.00114
0.4302
0.5679
0.006341
0.05669
1.714e-05
0.5623
0.0003632
0.5805
0.002193
0.06801
0.03613
0.01081
0.000556
0.000768
0.000388
0.004868
0.384
0.1849
0.007199
0.00163
0.0007518
0.0005803
4.551e-05
0.0004081
1.108e-05
0.002226
0.0008962
0.0008474
0.0007094
9.283e-05
0.0365
0.02908
0.3407
0.0007053
0.0008302
0.0002255
0.3795
0.001029
0.007521
0.002909
0.002455
0.003436
0.01839
0.0002522
0.01336
0.002959
0.0007475
0.00048
0.0003597
0.4577
0.006802
0.000734
0.4948
0.001146
0.0005573
0.6385
0.01118
0.0005837
0.2152
0.03646
0.0131
0.0002611
0.03884
0.5476
0.00113
0.0009604
0.5565
0.0477
0.3402
0.004842
0.0008624
0.008012
0.2977
0.000223
1.808e-05
0.0005388
0.001116
0.007416
2.368e-05
0.3977
0.001702
0.577
0.002975
0.004643
0.001464
0.002407
0.0002
7.22e-05
0.5959
2.943e-06
0.0001859
0.0002448
0.004036
0.0008229
0.01229
0.03178
0.0001449
0.003418
0.267
2.627e-06
0.00232
0.0009319
0.0003325
0.001543
0.001893
0.0003959
7.382e-05
0.002793
0.001595
0.008364
0.0006073
0.0008126
0.02848
7.514e-06
0.06029
0.002221
0.06342
0.000466
0.5488
0.567
0.01086
2.126e-05
0.004486
0.1731
1.619e-05
0.0002877
0.5796
0.0002014
0.002606
0.009578
1.354e-05
0.009621
0.001543
3.036e-07
0.03513
3.583e-05
0.007794
0.00315
0.000112
0.0009534
0.0002189
0.005107
0.00104
0.08275
0.05841
0.01393
0.001361
0.006885
0.00257
0.009051
4.895e-05
0.005241
0.0297
0.006122
0.01479
0.02287
0.007574
7.772e-06
0.2167
0.0001037
0.0001154
0.001294
0.002131
0.5802
0.009582
0.003123
0.0218
0.0001026
0.0003558
0.0001508
0.5165
0.0007406
0.0002129
0.003483
1.843e-05
0.004503
0.02424
0.0003865
0.5553
0.0003219
0.001615
0.0001243
0.001541
0.1098
0.0069
0.4821
1.182e-05
1.858e-05
0.00252
0.01897
0.007149
0.4247
0.4563
0.0004868
0.003286
0.01691
0.1091
0.3335
0.3317
0.006709
0.003222
0.01934
0.001504
0.001118
1.513e-05
0.01398
0.0001919
0.001207
0.0008441
0.4785
0.0005272
0.007929
0.003209
1.426e-05
0.01531
0.01469
0.001584
0.003996
0.004443
1.214e-05
0.03933
0.002689
0.008363
0.01419
0.01305
0.001289
1.178e-05
0.06672
0.000253
0.5366
0.0008816
0.001002
0.4915
0.0007504
0.004883
0.001901
0.0006352
0.5532
0.01373
6.916e-06
0.5725
0.001221
0.0004061
0.002894
0.0002235
0.01728
0.01286
0.0003417
0.0001623
0.001968
0.001341
0.1139
0.002605
2.289e-05
0.0002908
0.002369
0.002021
0.5714
0.002535
0.02395
0.0002673
0.002298
0.01194
0.001973
0.4752
0.01309
0.0008486
0.3566
0.009967
0.4338
0.0004211
0.009454
2.502e-05
0.0011
0.006012
0.0008498
0.003601
0.001537
0.0008764
9.217e-06
0.002006
0.001122
0.007121
0.004617
0.006235
0.6148
0.001417
0.5614
0.008213
0.5992
0.006875
0.5558
0.001971
0.001333
0.6118
0.5643
0.0003529
0.07251
0.0002538
0.05956
0.6317
0.005333
0.003253
0.2883
6.099e-07
8.226e-05
5.914e-06
0.00171
0.005041
0.000907
0.001753
0.00117
0.06861
7.852e-05
0.002898
0.0002126
0.000632
0.00296
0.005049
0.01993
0.56
9.141e-06
0.00258
0.000172
0.5793
1.494e-05
0.001569
0.000847
0.001085
0.3841
0.3787
0.07365
0.03925
0.06355
0.01093
0.003623
0.01538
0.01167
0.1442
0.01252
0.0002296
0.006226
0.03474
0.004106
0.0129
0.0004094
0.0003664
0.002986
0.0008212
0.005673
0.5553
0.0008564
0.0007906
2.774e-05
0.0056
0.2081
0.003158
0.1968
0.001975
0.001468
0.000331
0.05618
0.5658
0.00363
0.003612
1.191e-05
0.0001898
0.01796
0.002093
0.0001956
0.0928
0.3426
0.001042
0.0006189
4.722e-06
0.121
7.423e-06
0.001359
0.5616
0.001648
5.898e-05
0.01099
0.04816
0.007316
0.0003621
0.003853
0.003307
0.003002
0.000478
0.1652
0.001281
0.0002252
0.0003559
0.3986
0.3984
0.0006542
0.007399
1.079e-05
0.0033
0.0002688
0.0002678
8.992e-06
0.2105
0.0006934
0.4777
0.569
0.5596
0.005328
0.4636
1.578e-05
0.5742
0.0002073
0.02492
0.003354
0.004627
0.0004262
0.4121
0.0001912
0.0578
0.001816
0.005153
2.678e-05
0.4244
0.001599
0.0003477
0.005901
8.051e-05
0.000226
0.003697
0.001068
0.0008026
0.142
0.4126
3.518e-05
0.3809
0.6319
0.02489
7.851e-05
0.4341
0.00011
0.5838
0.004672
0.007065
0.00771
0.002429
0.4954
0.004557
0.0004533
0.0003258
0.09653
0.008531
0.03437
0.5745
0.542
0.003847
1.148e-05
0.004748
0.00295
0.4834
1.036e-05
0.02465
0.07199
0.3732
0.01034
0.001169
0.0004608
0.4631
0.001531
0.5518
0.003597
0.626
0.02085
0.002001
0.001591
0.005988
0.000368
0.001153
0.5366
0.007192
0.000122
0.0005507
1.582e-05
0.0001949
0.01857
0.226
0.007246
0.000161
0.005928
0.001374
7.839e-06
0.4074
0.05941
0.5648
0.002557
0.001584
0.003996
0.5806
8.078e-05
0.5731
0.03713
0.001123
0.5112
0.02087
0.02662
0.00347
0.007064
0.2135
0.000809
0.5892
0.0009658
0.0002205
0.01075
0.01872
0.001721
0.2514
0.009516
0.001626
0.0004287
0.002604
0.001832
0.0003488
0.002593
0.001823
0.000276
0.1476
0.04757
0.002445
0.2235
0.001193
0.004343
0.0577
0.003109
0.4949
0.3171
0.0001319
0.03904
0.009245
0.001382
1.618e-05
0.001903
1.773e-05
0.01798
0.4172
1.835e-05
0.002063
0.06218
0.0007464
0.3258
0.007534
0.6394
0.01137
5.044e-05
0.007427
0.004655
0.003455
0.002032
0.5855
0.00357
0.02179
0.005504
0.0004794
0.425
0.002706
0.0001253
0.5656
0.4581
0.001306
0.3947
0.005061
0.009626
0.01126
0.003685
0.01903
0.003947
0.4171
0.03122
0.002542
0.4605
0.03358
0.0007008
1.316e-05
0.6051
0.0006443
3.698e-05
0.02079
0.001064
0.01045
0.001776
1.345e-05
0.3661
0.4137
0.00107
0.4353
0.0003581
0.004362
0.003685
8.134e-05
0.001277
0.4431
0.001547
2.155e-06
4.117e-06
0.0006792
0.0009854
0.001233
0.02094
0.005422
0.009172
0.003076
0.0002075
0.0005595
0.0005046
0.001592
1.204e-05
0.004123
0.01577
0.571
0.001175
0.01682
0.002936
0.03129
0.1967
0.002154
0.0006939
0.02487
0.6088
0.0007617
0.0001948
0.012
0.000899
0.006148
1.549e-05
0.001116
0.4208
0.001009
5.053e-05
0.004722
0.002549
1.005e-05
0.3694
0.0001904
0.0008858
0.001757
0.3
0.004299
0.008132
0.0002971
0.0009542
0.00559
0.0001781
0.4439
0.007355
0.001575
0.1196
0.007088
0.555
0.0005659
0.0003617
0.001862
0.0002348
0.0001837
0.00366
1.655e-05
0.4161
0.001168
0.005943
0.01084
0.2474
0.02332
0.006037
0.00447
0.002338
0.4167
0.002726
6.372e-06
7.497e-05
0.001802
0.01943
0.01643
0.01342
0.5685
0.4456
0.003131
0.02479
0.4922
0.003299
0.002113
0.001018
0.0008352
0.00687
0.00159
0.01068
0.0008189
1.099e-05
2.021e-05
0.06736
0.002792
7.074e-06
0.0107
0.0001121
0.03151
0.008069
0.004468
1.364e-06
0.009289
0.00836
0.3333
0.1859
9.154e-05
0.001467
0.5736
0.5933
0.007619
0.0002206
0.005224
0.002542
1.404e-05
0.004618
0.375
0.0002346
0.01013
0.001179
7.876e-05
0.0449
0.0778
0.005003
0.001814
0.01831
0.00205
0.5882
6.51e-05
0.01439
0.000251
0.05251
0.001303
7.777e-05
0.01063
0.0002166
0.0113
0.0002034
0.001922
0.0001261
0.06084
0.008711
0.002321
0.003712
0.0004463
0.001082
0.0004477
0.0003854
0.5621
0.0009002
0.03195
0.0003793
0.003496
0.3685
0.01318
0.08709
9.43e-05
0.3665
0.001199
0.002327
0.001637
0.00812
0.007118
0.08168
1.219e-05
0.0342
0.4825
0.0002069
0.4629
0.004746
0.2934
0.01745
0.01017
0.5434
0.0286
0.001248
0.0001526
0.577
0.5124
0.009141
0.007191
0.001692
0.1201
0.007643
0.001854
0.0003754
0.0005027
0.03881
0.005414
0.01184
0.07143
0.002561
1.427e-05
0.01388
0.0004771
0.0006575
0.01216
1.657e-05
0.5732
0.4255
0.01094
0.01463
8.556e-06
0.5797
0.01364
0.0002313
9.845e-06
0.0004277
0.0005047
0.3058
0.3058
0.0007054
0.001857
0.001677
0.00245
0.2716
0.02534
0.01573
0.6351
0.0002312
0.001807
0.003152
0.002171
7.344e-05
0.0836
0.008801
0.561
0.008805
0.001716
0.0003645
0.0008557
0.00196
0.0001504
0.0003438
0.003244
0.00228
0.0007523
0.001761
0.08432
0.004216
4.269e-05
0.2921
0.2932
0.0005296
0.0009495
3.469e-05
0.009779
0.0007823
0.00167
0.3822
0.5742
0.005511
0.6143
0.0039
1.836e-05
0.004714
0.04785
0.003213
0.1412
0.0001307
0.001751
0.4015
0.007992
0.008309
0.002876
0.003147
0.002719
0.001599
0.002748
0.003586
0.00257
0.007598
0.00854
0.0003905
0.002313
0.002454
0.0008005
0.0002785
0.001132
0.0003705
0.0003338
0.006928
0.009193
0.006048
2.051e-05
0.02392
0.001538
0.5421
0.005687
0.6194
0.002007
0.01505
1.731e-05
0.0008439
0.06246
0.0001168
1.063e-05
0.0001963
0.00402
0.003611
0.0002855
0.0002032
0.3695
0.00299
0.005724
1.132e-05
0.001461
0.002579
0.03601
0.02655
0.5751
0.007686
0.0003696
0.01059
0.0001942
0.007909
0.09683
0.0001805
0.5626
0.00901
0.02222
0.005047
0.0004911
0.03844
0.0101
0.01429
0.2113
0.001569
0.006313
1.4e-05
0.0002094
0.001289
0.5266
0.002425
0.001672
6.513e-05
0.0009206
0.005439
0.01934
0.002631
0.5712
0.001119
0.000773
0.006298
0.003717
0.006174
0.0001123
0.000329
0.001074
0.003944
0.03387
0.009086
4.46e-05
0.02959
0.1138
8.876e-06
0.3758
0.04195
0.5728
0.5991
0.004084
0.5562
0.0002482
0.003247
0.03184
0.007252
0.0003314
0.0001162
0.001403
0.0008553
0.001467
0.005339
3.227e-06
0.003673
0.001707
0.1662
5.026e-06
0.009289
3.715e-05
4.071e-05
0.3301
0.000201
0.0003601
0.01142
0.007374
8.603e-05
0.001803
0.0001555
0.004579
0.003392
0.4278
0.02296
0.6067
0.0161
0.007572
0.0003967
0.008067
0.005352
1.768e-05
0.007073
0.5271
0.0008124
0.0029
0.02417
0.004392
0.003096
0.002419
0.0004751
0.0003747
2.12e-05
0.0006657
0.001233
0.0002886
0.001805
0.0007499
0.07735
4.515e-06
0.0009925
0.003207
0.009775
0.4144
0.002766
0.0007222
0.005391
0.0115
1.855e-05
0.0002455
0.00282
0.02116
0.003006
0.0004977
0.4354
3.426e-05
0.01302
0.2393
0.004161
0.0007972
0.5627
0.001024
0.007333
0.005629
0.0001358
0.005689
0.002352
1.032e-05
0.003131
0.001405
0.6276
0.6276
0.001426
0.01003
0.008059
0.000904
0.002325
0.549
0.0001089
0.000364
0.004557
0.5134
0.5232
0.004334
0.01697
0.001361
6.377e-06
0.0006247
0.4228
0.0004551
6.763e-06
0.06515
0.000581
0.0009393
0.4164
0.01694
0.0001409
0.04246
0.002321
0.3893
0.3364
0.3552
0.2942
0.08531
0.002587
0.005921
0.0008501
0.01015
0.0006954
0.004055
0.000356
0.2937
0.001941
0.002371
0.0001299
0.0003362
0.0001016
0.0006636
0.003994
0.00101
0.0051
0.001926
0.1377
0.002944
8.224e-06
0.001639
6.016e-05
0.01977
0.001942
0.5742
4.895e-06
0.001855
0.001055
0.01125
0.2802
1.687e-05
0.579
0.00187
0.0004004
0.4217
0.001832
0.001594
0.00714
0.00113
2.304e-05
0.1998
0.0003203
0.4579
0.007448
0.001835
0.0006967
0.005918
0.002711
0.5448
0.5651
0.04928
0.000336
0.0001995
0.04549
0.006093
0.001753
0.01169
0.0004147
0.0009133
0.01818
0.01061
0.002565
0.002191
0.04262
5.946e-06
0.02116
0.5742
8.855e-05
0.572
0.4222
0.05269
0.4157
0.0002532
0.006478
0.0002112
0.003795
0.001086
0.586
0.0735
0.0005454
0.001748
0.006973
0.4286
0.03022
8.844e-05
9.682e-05
0.6183
7.082e-05
7.953e-05
2.91e-06
0.4023
0.01924
0.01119
0.07279
0.5156
0.02148
0.003132
0.0001053
0.07044
0.0004
2.138e-06
0.5752
0.0009197
0.0001673
0.002416
0.5788
0.0003207
4.664e-05
4.894e-06
1.526e-05
0.02515
0.009342
1.087e-05
0.2104
0.001612
0.5611
0.006345
0.0005552
0.02083
0.0005376
1.524e-05
0.06866
0.0008412
0.002633
0.6424
0.2416
0.0006299
0.0002342
0.02751
7.014e-05
0.001992
0.01701
0.008988
0.005062
0.0006084
0.002175
0.5756
0.005103
0.004154
0.001769
0.0004905
0.001882
0.0006108
0.001709
8.66e-06
1.271e-05
2.387e-06
0.0005433
0.1416
0.000643
0.4608
0.0002664
0.0004367
0.5759
6.422e-06
0.6349
0.0008664
2.302e-05
0.000157
0.0002519
0.002816
0.0004395
0.001355
0.3711
7.616e-06
0.005787
0.355
0.009698
0.00118
1.63e-05
1.642e-05
4.974e-06
0.009843
0.0008249
0.0006754
0.00694
0.07642
0.003295
6.955e-05
0.4716
0.002328
0.004036
0.0007469
0.004304
0.002481
0.01547
6.47e-05
0.002563
0.002229
2.209e-05
0.2772
8.062e-05
0.06449
0.00431
0.000779
0.3439
0.09686
0.004863
0.0004466
0.0009538
8.551e-06
0.3453
0.555
0.01201
0.001521
0.0002312
0.003304
0.01928
0.3049
0.3693
0.0002878
0.3043
0.0005498
0.001054
0.08747
0.001317
0.002063
1.523e-05
8.35e-06
1.413e-05
0.2517
0.0004704
0.001567
0.001552
0.02307
0.01481
1.448e-05
0.006831
0.0004222
0.001403
6.403e-05
0.001626
0.01123
1.564e-05
0.002866
0.003326
0.004845
0.3525
0.00431
0.09614
0.5696
0.006051
0.001981
0.00213
0.003741
0.005025
5.874e-06
8.945e-06
0.01017
2.339e-06
0.3652
0.0511
0.2861
0.1849
0.004008
0.6338
0.001298
9.926e-06
0.0004988
4.648e-05
0.03034
0.008931
0.001849
0.001887
0.008356
0.0005794
0.00538
0.0001369
0.001387
0.3267
0.001137
0.003132
0.6046
0.2822
0.0001455
0.5848
0.001474
0.00105
0.001444
0.008411
8.928e-05
0.4125
0.04551
0.2182
0.0005181
2.759e-05
0.0007977
0.004025
0.5511
0.001098
0.556
0.03124
0.001051
0.02178
1.539e-05
0.001142
0.0004359
0.01858
0.0003805
0.01665
0.3753
0.004826
0.0005499
0.4735
0.01015
0.5845
0.0003758
0.0001504
0.002892
0.001914
0.4551
0.0003848
0.0008281
0.002447
3.47e-05
0.001318
0.0001661
0.537
0.03208
0.01148
0.01047
0.0009366
0.006243
0.07915
0.01229
0.05044
0.003198
0.002772
0.46
0.6026
0.5487
0.2881
0.03581
0.0001544
0.0004045
0.5707
0.001491
0.004136
0.002126
0.5928
0.001142
0.09726
0.0001421
0.4185
9.136e-06
0.009603
0.0001312
0.3388
0.07274
1.228e-05
0.3513
0.00223
0.00197
0.001488
0.0007227
0.002095
0.5813
0.001015
0.0004814
0.005172
0.001715
0.003925
0.01044
0.003722
0.003429
0.0009981
0.5592
0.006221
0.004746
0.0001419
0.04727
0.614
0.001094
0.0002307
0.00493
0.005385
0.008114
0.0009104
0.2234
0.006166
0.0004092
0.00915
0.0007901
0.0144
0.3262
0.005481
1.58e-05
0.00228
0.0008459
9.256e-05
0.009719
0.00742
0.5701
0.3686
0.05543
0.3659
7.616e-05
0.001342
0.5933
0.5439
0.003149
5.419e-06
0.5936
0.004492
3e-05
0.002305
0.008099
0.001414
0.0008206
0.002095
0.004967
0.0003988
1.301e-05
0.0001336
0.5691
0.002417
0.008867
0.001571
0.5095
0.03074
0.001013
0.003529
0.0006141
2.917e-05
0.0001711
0.04142
0.0003507
7.739e-06
0.01647
0.0009318
0.004788
0.01213
0.01677
0.0002465
2.248e-05
0.5612
0.001209
0.00261
0.5923
6.295e-05
0.00629
0.008773
0.09205
0.006239
0.0005104
0.0007135
0.00342
0.5565
0.5717
0.03731
0.0008345
0.608
0.01955
0.4602
0.0004225
0.0119
0.006396
0.0006829
0.0001709
0.03082
0.005046
0.5202
1.115e-05
0.007856
0.0006293
0.0006284
0.1141
0.001295
0.01328
0.001108
1.727e-05
0.0196
1.382e-05
0.5469
0.5513
0.003659
0.1428
0.5292
1.325e-05
0.001624
0.001351
0.0001086
0.00924
0.003188
0.3158
1.298e-05
0.1718
0.003178
0.6043
0.0528
0.0002226
0.002789
0.002642
0.006198
0.01336
0.0003127
0.4031
0.002746
9.714e-05
0.0004947
9.048e-05
0.05373
0.002144
0.007658
0.6201
0.000329
0.0006856
0.1059
0.2285
0.001186
1.357e-05
0.304
0.5474
0.007191
0.0001545
0.009155
0.0006233
0.619
8.608e-05
0.001417
0.002465
0.6107
0.08509
0.000297
0.001721
0.0001502
0.004602
0.003405
0.5403
0.000799
0.3378
0.0002811
1.426e-05
0.1269
0.001047
0.009792
9.042e-05
3.152e-05
0.0002784
0.1109
0.3973
0.002996
0.03964
0.5678
0.000826
0.003318
0.01541
0.5976
0.08784
0.1161
0.4173
0.001239
0.002127
0.574
0.001615
0.003137
0.0002627
0.3748
0.589
0.5664
0.1299
0.01072
0.02634
0.0004859
1.58e-05
2.838e-05
0.003315
8.483e-06
0.0001233
0.4045
1.827e-05
0.002477
0.0001149
0.01346
0.04666
0.02034
7.521e-05
0.0004128
0.0002345
0.0005397
0.1989
0.003905
0.001342
0.002992
0.01071
0.03745
0.0007967
0.05624
0.001363
0.3537
0.003494
0.006138
0.01512
0.02909
0.0004017
1.133e-05
6.801e-05
0.4129
0.0001879
0.003318
0.6082
0.003019
0.5803
0.0001641
0.002138
0.3484
0.000874
0.001502
0.6543
0.01191
0.02085
3.801e-05
0.5445
0.03771
2.124e-05
0.01264
0.5639
0.0001249
0.003337
0.2542
0.04032
0.02381
0.001845
8.071e-06
0.0005593
0.002286
0.01254
0.0003287
0.01385
0.5714
0.2369
0.001245
0.00321
0.001795
0.6098
6.409e-06
0.001508
0.005537
0.0008261
0.00314
0.002346
0.4374
0.1087
0.0004914
0.001125
0.1923
0.002615
0.0005511
0.01943
0.009045
0.006728
0.01173
0.2003
0.01446
0.005907
0.01028
0.00669
0.6069
0.000197
0.3905
0.003029
0.008824
0.01471
9.693e-05
0.002131
4.824e-06
0.01307
0.02585
0.2793
0.5307
0.01076
0.006644
0.0001022
0.0004015
0.001125
0.0008983
0.00038
0.00574
0.01889
0.002391
0.0005885
5.762e-05
0.00393
0.2276
0.0002286
0.01556
0.0002145
0.00845
0.01135
0.003019
0.001421
0.5728
0.0008377
0.03908
0.567
0.07604
0.0002261
0.1953
8.7e-07
0.0006347
0.0003584
0.5688
0.006518
0.001147
0.3694
0.004849
0.003822
0.0001566
0.0006152
0.0001094
0.5879
0.001959
0.5652
0.01486
0.0009462
0.001505
0.008827
0.0005697
5.07e-06
0.4473
0.5749
0.004288
0.002638
0.0003002
0.01741
0.00315
0.0004454
0.01666
0.006692
0.5686
0.002312
0.0001532
0.08385
0.00394
0.561
0.002767
0.1199
0.005063
0.0008523
0.001616
0.242
0.0007133
0.008753
0.4531
0.0004402
0.001635
0.08144
0.5505
0.4245
0.0009106
0.0007178
0.006544
0.02298
0.001964
0.03524
0.001891
0.006196
0.3516
0.03041
0.02332
9.573e-06
0.0002563
0.0001272
0.5412
0.0005292
0.00233
0.0001867
0.0002163
1.59e-05
0.008418
0.005327
0.002924
0.003823
0.0004185
8.783e-05
0.04457
0.4067
0.02231
0.2959
6.872e-06
0.5531
0.006683
0.0005995
0.005583
0.00665
0.001832
0.002838
0.0002086
0.008362
0.001588
0.01015
0.01317
0.0008411
9.43e-06
0.003867
1.334e-05
2.289e-05
0.5754
1.26e-05
0.002886
0.0002972
0.0001129
0.005476
0.03047
0.0008005
0.003566
0.007068
0.22
0.007805
0.006461
0.001487
0.00316
0.002159
0.01732
0.01736
0.04645
1.127e-05
0.003068
0.0004858
0.003075
0.0005093
0.3873
0.0004062
0.002042
7.389e-05
0.008625
1.49e-05
0.0008151
0.001054
0.07404
0.0001218
0.08372
0.005591
0.003518
0.09696
0.02025
0.004605
0.006199
0.001107
0.0007478
0.008106
0.001917
0.00313
1.531e-05
0.006565
6.62e-06
0.2154
0.01656
0.0009825
0.01513
0.2026
0.001823
0.5734
0.5372
0.5749
0.002594
0.002232
0.0003661
0.07013
0.06093
0.002785
0.1818
4.176e-06
0.0001645
1.152e-05
0.001343
0.1274
0.000376
0.0005963
0.08787
0.0001667
0.5864
0.007299
0.01558
0.0004082
0.02651
0.541
0.4526
0.001604
0.01278
0.1931
1.472e-05
0.002104
0.4889
0.58
0.004243
0.2701
0.0008033
3.603e-05
0.4371
0.008055
0.0004254
0.002001
0.0008895
1.492e-05
0.004939
0.04707
0.005202
0.001132
0.04438
0.0008306
0.004422
0.01106
0.000523
0.001535
4.687e-06
0.2602
0.003234
7.718e-05
0.0006708
0.5784
0.003507
0.5766
0.01214
0.02134
0.003822
0.005526
0.001081
0.002849
0.03965
0.0002085
0.0006701
0.0003144
0.0005463
0.0003591
0.002394
0.0269
0.003662
0.0009593
0.003955
0.001136
0.4562
1.22e-05
1.729e-05
0.0001721
0.005281
0.007744
0.0002737
0.0006196
0.02573
0.1224
0.0001366
0.001299
0.3588
0.2855
0.426
0.0008378
0.001709
0.02272
0.0007379
0.01328
0.3125
0.002624
0.004036
0.003505
0.0007522
8.853e-06
0.0003715
0.001483
0.001924
0.003085
0.001723
0.0004389
0.002366
0.009426
0.01322
0.0001624
0.003533
0.02724
0.002497
0.000459
0.0575
0.008127
0.01839
0.02028
1.045e-05
0.0003466
0.6032
0.0007212
0.01411
1.75e-05
0.0002891
0.5022
0.05906
0.0004264
0.362
0.003361
0.0004276
0.0005325
0.01378
0.3917
0.03699
0.008286
0.006046
0.08915
0.0008837
0.4388
0.0005321
0.004411
0.0005406
0.0005782
0.002432
0.002376
0.001036
0.0007614
0.02936
0.003125
0.5816
1.289e-05
0.236
0.2864
0.0005993
0.5704
0.005309
0.009401
9.366e-06
0.5956
0.004112
0.001086
0.0006933
0.0009633
0.04073
0.002077
0.003172
0.001175
0.0001255
0.003516
0.112
0.5584
0.0006957
0.000536
0.02727
0.001956
0.0002325
0.0001722
0.01114
0.5337
0.002223
0.001756
6.528e-06
0.004353
0.00192
0.01258
0.001548
0.5446
0.008381
0.0005762
0.0002473
0.5974
0.03472
0.0002901
0.539
0.003421
0.0001786
0.00648
0.5939
0.6003
0.01735
0.4261
0.3757
0.5736
0.0151
0.001377
0.0001811
0.05313
0.002152
0.01105
0.05367
0.6432
0.005668
0.003652
0.1593
0.1092
0.0002149
0.03803
0.4368
0.0001803
0.002826
0.01969
1.191e-05
1.386e-05
0.4523
0.001291
0.0122
0.0005607
0.002372
9.821e-05
0.6258
0.007563
1.069e-05
0.009841
0.001514
0.02514
0.0001092
0.002343
0.001921
0.008722
1.925e-05
0.1368
7.844e-05
0.003403
0.3781
0.3374
0.3306
0.0007794
0.00401
0.000114
0.001318
5.551e-06
0.1026
0.336
0.002422
0.004927
0.06802
0.5681
0.0003173
0.01136
0.0001849
0.002876
0.0007014
0.001798
0.003127
0.005257
0.001329
0.5413
3.36e-05
0.001171
0.002302
0.008157
0.1303
0.5585
0.003812
0.007543
0.001091
0.0001062
0.00526
0.2494
0.006558
0.05579
0.0931
0.5691
0.0004443
0.001713
7.098e-05
0.001098
0.00392
0.01604
0.002186
0.00497
0.01222
0.003394
0.02435
0.04477
0.5907
0.001469
5.258e-05
0.04011
0.01806
0.0001662
0.3192
0.5704
0.01886
0.2533
0.6039
0.004724
0.4881
0.4878
0.00868
0.3754
0.002824
1.427e-05
0.0006594
0.02119
0.04321
0.4743
0.5948
0.01639
0.001577
0.00405
1.3e-05
0.006214
0.4292
0.01037
0.009347
0.000115
0.07848
0.5969
0.076
0.004276
0.6069
0.5294
0.001486
0.001654
0.1171
0.3607
0.002214
0.5371
0.1798
0.5026
3.602e-06
0.09563
0.0002894
0.0112
0.365
0.1021
0.01662
0.003858
0.0005071
0.004177
0.003657
0.008235
0.6238
1.806e-05
0.005877
0.004987
0.5902
0.0005061
0.0007513
0.001602
0.0003932
0.02974
0.0005901
0.008946
0.04265
0.000148
0.6064
1.332e-05
0.006437
1.97e-05
0.6022
0.003367
0.5734
0.1395
0.01109
8.543e-05
0.006588
0.000587
0.02707
0.4152
0.0007363
0.4134
0.0002004
0.0007079
0.02068
0.05069
0.4302
0.001887
0.5664
0.01483
0.004225
0.01274
0.006406
0.5619
0.0002065
0.2121
0.0007599
0.0003804
0.007794
0.0002408
0.0001441
0.005209
0.001399
0.002982
0.1959
0.005488
0.01394
0.5736
0.5716
0.0004929
0.009103
0.000151
0.005427
0.002718
0.5793
0.004049
0.5795
0.5627
0.2113
0.001101
0.05212
0.01986
0.3184
0.002634
0.03172
0.002289
0.001199