/*--------------------------------*- C++ -*----------------------------------*\
  =========                 |
  \\      /  F ield         | OpenFOAM: The Open Source CFD Toolbox
   \\    /   O peration     | Website:  https://openfoam.org
    \\  /    A nd           | Version:  8
     \\/     M anipulation  |
\*---------------------------------------------------------------------------*/
FoamFile
{
    version     2.0;
    format      ascii;
    class       volScalarField;
    location    "25";
    object      epsilon;
}
// * * * * * * * * * * * * * * * * * * * * * * * * * * * * * * * * * * * * * //

dimensions      [0 2 -3 0 0 0 0];

internalField   nonuniform List<scalar> 
127143
(
38.09
7.684
12.36
8.125
311.9
8.084
209.7
318.4
346.9
40.76
318.6
399.2
31.46
7.227
13.72
10.52
10.1
0.07713
0.1103
10.75
0.3781
3.082
0.1318
0.6748
3.14
3.334
11.81
14.13
12.74
0.06257
0.8872
3.446
40.6
2.224
0.06443
38.61
0.281
0.3638
0.5651
2.098
0.11
1.162
0.9542
15.54
0.0778
2.163
12.25
0.193
1.042
0.5882
10.03
0.02159
0.8285
0.229
0.005275
2.258
0.005088
0.1364
0.01309
0.2273
0.9009
0.1501
0.3358
0.09658
2.634
0.4798
0.06472
0.3601
0.3541
0.0008089
0.7404
10.53
0.1298
0.01311
0.02705
12.92
0.0172
0.2692
2.214
0.1318
10.52
9.569
1.335
1.706
0.1592
0.247
0.5112
17.22
0.4605
12.22
0.01589
0.145
9.722
0.3769
0.7466
0.08377
1.086
1.122
0.2492
0.06316
0.1332
0.9992
26.88
0.2354
0.2412
0.2532
0.583
0.0008157
1.148
0.01752
12.86
17.22
0.5123
5.387
0.02068
0.3071
0.01767
0.02706
0.01713
1.487
0.0167
1.129
1.549
0.1191
10.07
3.938
0.1887
0.01658
1.3
2.705
0.3688
0.6449
0.2889
0.2656
3.277
0.3622
0.0362
0.355
11.29
0.03805
0.195
0.01736
0.6069
0.371
0.8205
3.837
48.85
0.1068
0.6593
29.88
0.2459
1.102
0.3582
0.1494
5.665
0.1573
0.1358
3.53
0.1909
1.334
0.7192
43.33
0.01608
0.3676
3.89
2.413
0.3195
0.8299
9.972
0.02246
0.6833
0.3695
0.3518
0.9271
0.003699
0.2723
4.078
1.292
0.6357
0.01843
0.9286
0.02951
0.2837
0.2707
2.626
0.1483
0.2143
5.182
0.6284
0.02097
0.864
1.131
0.03515
11.52
4.047
0.2237
0.112
0.112
22.07
0.0184
0.01692
0.023
0.03649
0.2699
4.981
0.4152
0.06536
0.4607
0.06013
0.02086
0.07631
0.18
0.01554
9.914
0.4577
17.03
1.048
0.5242
0.4794
0.06452
3.743
0.02938
1.131
0.8184
1.434
0.7299
3.177
0.3605
0.5261
0.209
0.3993
0.02894
0.126
3.93
0.3963
0.08775
0.3675
35.64
0.01683
0.7718
1.107
2.471
0.2178
3.451
0.6155
1.475
0.9265
10.94
5.843
0.001442
1.733
2.107
0.7037
0.3991
1.694
1.129
0.01646
10.36
0.6448
0.1108
0.2446
0.02346
0.1423
0.01737
0.8884
2.421
0.5258
6.954
1.131
0.5483
2.487
0.003608
0.1729
0.776
0.2826
0.8521
0.5069
0.8152
0.006093
0.7793
0.002486
0.08762
0.2307
0.02255
0.02042
3.556
0.446
0.02031
0.7558
0.01875
0.3499
0.2471
0.08731
0.4163
0.01441
1.422
0.876
0.8221
0.2178
0.5324
1.299
0.3873
0.5048
0.2996
1.542
3.422
0.4533
0.01556
0.1556
0.2836
0.6028
0.9264
2.379
0.002565
0.01981
7.335
0.413
1.291
0.1275
0.01976
0.1266
0.7996
0.02192
0.705
7.458
0.5331
0.03476
1.623
0.7549
4.192
0.1676
0.02042
0.06246
0.1016
0.1016
0.142
1.12
0.3491
0.1675
0.4851
0.03681
0.524
0.7619
0.8405
4.111
0.7702
0.9187
0.6464
1.296
1.567
1.185
0.1111
0.2745
0.849
0.02642
0.8144
0.4
3.251
0.01074
0.7792
0.1572
0.3199
0.08302
0.574
0.5826
0.04063
0.01851
0.013
1.623
0.006197
1.836
0.022
1.628
0.5932
0.02028
0.0761
0.8308
3.998
0.2247
0.0065
0.1229
3.59
1.139
0.4008
0.01758
5.079
0.04659
1.968
0.2298
0.2232
0.01287
0.4264
0.5915
1.753
0.6356
0.9045
0.426
0.8145
0.02637
0.02283
1.896
0.03012
0.4155
0.2763
0.04711
0.2987
0.2313
0.3022
0.1375
0.5975
1.812
1.509
0.1903
0.1845
1.487
0.7346
0.3308
2.711
0.4591
2.642
0.3104
2.102
0.5297
0.001485
0.2118
0.1384
0.8581
0.1546
2.326
0.08363
0.05465
0.5121
0.2886
0.08557
1.144
0.04023
0.3985
0.9102
0.02115
0.01444
0.02275
0.5518
0.03694
1.196
0.01884
1.07
0.0185
5.873
0.01322
0.1799
0.3222
1.002
0.2856
1.867
0.0503
0.2547
1.535
2.269
0.2408
0.4112
0.2792
1.065
0.2345
3.762
1.082
0.003371
0.01719
0.5394
0.8553
0.03247
0.2317
0.1595
0.1176
0.4052
0.0533
0.006091
6.058
0.1554
0.5936
0.6885
13.62
5.799
1.307
2.358
1.613
1.119
0.6267
0.01563
1.153
0.0173
6.349
0.4845
0.8946
3.727
2.744
0.3906
3.232
0.08237
3.699
0.01706
13.86
0.01714
0.2434
0.2204
7.369
1.365
6.471
0.07079
0.8009
2.175
0.02002
0.1519
1.682
0.3251
0.3003
0.3275
1.021
0.2313
3.802
0.003357
0.1994
3.85
2.962
1.143
0.6386
0.01302
0.2405
0.03533
0.2309
0.01234
1.233
22.65
0.6055
0.04393
0.5396
0.102
0.8151
1.873
15.15
0.1881
0.01732
0.4567
1.283
0.03629
0.398
0.4272
0.8049
0.5588
0.8977
0.7758
0.2266
0.7591
2.334
0.2991
0.4964
0.01426
1.766
0.3899
1.6
0.3443
0.2052
0.08465
0.06712
0.1014
0.9406
4.241
0.01928
0.001686
1.089
4.114
0.2301
1.637
0.8653
2.14
0.4662
0.017
0.03758
0.6373
0.2644
0.8215
0.003967
10.72
0.2989
0.5565
0.006303
1.877
0.01917
0.225
0.2664
0.1992
0.001634
0.5063
0.2449
23.06
0.006371
0.5659
1.04
0.02218
0.2963
0.01967
0.4592
0.5883
0.02269
1.097
0.9845
1.238
0.8778
0.5777
1.145
1.11
5.305
0.5341
9.175
0.5523
0.2899
0.933
1.393
0.003993
1.925
0.02104
3.801
0.01723
0.5968
0.04642
0.02037
0.1408
2.608
0.4374
0.003494
0.007785
0.5015
11.14
1.143
1.079
0.1383
1.183
0.3164
1.853
0.8324
0.581
3.007
0.003492
2.07
0.789
0.2481
0.3149
0.01599
0.001693
0.5255
10.09
0.625
1.836
0.01716
0.001042
0.3705
1.707
0.02235
2.256
0.1438
0.03957
0.738
0.5931
0.7801
0.2042
20.59
0.6925
0.2376
0.2555
0.4412
1.05
1.682
1.273
0.02015
1.172
0.4436
0.4094
0.01072
0.7789
0.4338
0.5802
0.04474
0.01005
1.811
0.08244
1.403
1.068
3.753
0.1567
0.4685
1.263
0.2256
1.816
0.01567
0.007672
2.05
0.1367
1.493
0.5593
5.499
0.1397
3.193
0.07405
0.08231
0.001032
1.044
0.05372
1.667
3.231
0.4512
0.8727
0.2202
0.001491
0.3742
0.5876
1.826
0.09526
0.2834
0.8295
27.35
0.3327
4.309
0.1224
1.536
0.4049
0.2781
0.1865
0.2383
43.24
0.4431
0.02211
0.936
2.241
0.4922
0.01482
0.3377
0.1107
0.2274
0.0009366
1.883
0.5043
1.913
0.0009828
1.324
0.2891
1.068
1.317
0.001079
0.2069
0.6134
0.9199
0.4177
0.01813
0.7616
9.171
0.01483
0.496
0.3719
1.024
0.3866
0.3741
0.4595
2.632
0.484
0.01875
0.2076
0.1424
2.027
1.427
0.2307
0.1503
0.7484
0.02551
0.3158
0.7251
0.6738
5.267
0.6707
0.59
0.5598
0.2089
0.5066
0.07265
16.51
0.3947
0.8581
0.8159
0.2234
0.4258
0.3927
0.6791
0.04009
0.1045
0.2503
0.0009383
0.4478
6.256
0.5803
1.471
0.02827
0.3102
0.2809
0.01577
0.02036
0.3126
0.1499
0.1384
0.4194
0.2223
9.467
0.2882
0.4282
0.01081
0.274
0.2973
0.864
1.336
0.7894
0.002226
0.01289
0.04142
11.51
0.01156
0.06758
9.847
0.4299
2.839
0.004341
0.2111
0.4161
0.02653
1.268
0.0685
3.141
26.01
1.254
0.7024
2.656
0.01548
0.9261
0.2374
1.183
0.5302
1.909
35.5
0.2303
0.2989
0.9056
7.361
0.02423
0.2686
2.664
6.649
0.4471
6.521
0.002217
0.0515
0.6447
4.293
14.14
2.869
73.87
4.723
51.68
0.591
0.7568
0.1039
4.701
0.01733
0.6009
0.001783
0.001738
0.6082
0.01935
1.026
0.1203
5.148
0.172
0.02595
8.685
1.005
0.01274
0.1033
0.2845
0.02501
1.222
5.848
0.3102
0.5581
12.75
0.3234
0.4979
0.01894
0.8894
1.644
0.01054
0.9619
0.3804
0.1491
0.02612
0.01989
0.1052
13.13
0.9511
7.157
0.2447
1.956
0.8653
1.14
2.043
0.002207
11.97
0.6624
0.002207
1.173
3.938
0.1593
4.339
0.1997
0.3074
1.434
12.71
0.7313
0.01701
0.02864
0.513
1.667
0.3462
1.152
7.763
6.901
0.84
0.1045
6.889
0.04125
5.884
0.01692
0.1983
1.681
0.4537
0.5649
0.2622
0.02428
0.01692
0.7181
0.2379
0.3812
0.8474
0.5284
0.1625
0.5922
2.146
1.689
7.43
0.7525
0.9956
0.8178
0.2949
0.1613
11
0.4179
1.754
2.803
0.2647
0.01504
0.01056
0.1964
0.2228
0.2657
0.1799
2.069
0.3182
0.1419
0.4934
0.5258
0.5689
2.609
0.1382
0.2339
0.1336
9.766
1.614
0.294
0.5546
0.2433
1.67
0.6557
0.2637
0.135
2.307
0.5512
0.3165
8.07
0.01262
2.727
1.179
0.1409
0.8822
13.9
0.01905
4.912
9.851
0.002476
0.1533
0.9415
0.4176
3.809
0.5292
0.5834
2.928
0.5856
0.2342
0.1924
0.0173
0.6722
0.1817
0.4817
0.4433
0.8802
0.2579
0.003406
5.811
0.3332
0.02968
1.273
0.002217
0.01712
0.3657
0.1379
11.83
0.01724
1.26
0.02722
6.969
0.1146
0.09755
0.248
1.66
1.054
0.7443
0.3459
0.006187
0.03277
0.4602
0.9523
0.4338
0.558
2.907
0.6445
3.804
0.8991
2.01
3.677
0.8284
2.544
0.4171
0.1043
0.01089
1.176
0.3578
2.148
0.0007236
6.755
0.2504
0.3974
1.236
0.8951
0.2085
1.693
0.2099
0.3946
0.3947
2.574
0.5408
0.003163
0.2451
1.209
0.01501
0.8627
2.239
0.2081
0.4517
0.4193
0.03307
0.4153
0.3237
1.255
0.1638
0.1056
0.7386
0.5437
0.01341
0.2879
0.02677
0.3091
0.6981
0.4191
0.02415
0.654
2.251
1.852
0.9549
0.1985
4.481
0.0008085
0.5392
0.02349
0.3031
2.116
0.95
1.243
0.697
3.952
0.04514
3.297
0.972
1.008
0.327
9.712
0.2011
0.09477
1.675
0.4966
0.03694
9.31
0.2482
0.6525
2.23
0.7823
4.475
0.8411
1.277
0.6618
0.3439
0.7203
1.015
0.7561
0.1586
4.739
0.09019
0.9514
0.09932
1.538
0.1056
0.02166
0.4677
4.593
0.2073
0.02175
6.574
0.6626
0.02574
12.31
0.5509
0.6105
1.27
0.654
0.3053
11.01
0.1036
1.845
0.1861
0.4702
4.591
0.9497
1.345
1.57
1.193
0.06599
0.07402
0.5592
0.4337
0.644
0.3884
0.1436
1.406
0.1792
0.185
0.1603
1.208
0.4232
0.3956
4.828
0.04514
10.3
1.457
0.3371
0.3032
0.02682
0.1661
0.9409
0.4232
1.03
2.467
1.697
0.01803
1.385
0.6713
0.4904
7.097
1.202
0.122
0.5717
0.01536
0.6009
0.321
16.71
0.8424
0.03823
0.3078
0.01397
25.02
9.825
0.2545
0.2919
0.6618
0.002845
0.04596
0.4687
0.2072
0.1219
0.07477
0.0006758
0.0006794
3.518
0.3447
0.1726
2.411
0.7593
5.605
0.4849
1.769
0.3278
0.478
0.05511
0.8737
0.2033
0.971
7.232
0.4261
0.1707
0.3578
0.3158
0.5205
45.15
0.1167
0.4516
0.1494
0.1843
0.1922
0.9092
28.47
0.123
0.6174
0.00819
0.6848
15.33
0.06451
27.03
0.5244
0.2972
1.317
0.01158
0.5631
12.42
0.01899
0.563
0.6994
0.3972
20.2
0.316
0.2187
0.5452
4.075
0.3225
1.071
0.1011
1.038
2.448
44.24
2.983
0.3565
0.02193
2.125
0.1219
1.198
9.987
0.143
0.3396
0.009825
0.2773
0.4466
0.0117
0.1393
0.002434
24.35
0.1398
4.497
0.3725
0.7556
6.2
0.4783
0.5113
2.367
68.14
0.4261
0.4448
0.656
0.4405
0.1714
0.08411
0.2925
0.01719
0.2006
0.05474
0.1522
0.01472
2.819
0.3244
0.1778
0.01533
0.5935
0.1005
0.9992
0.1333
0.1978
1.533
0.3908
0.03418
7.607
1.52
1.306
0.6899
0.3328
0.8319
0.8639
0.3604
0.0917
2.24
0.2115
0.7697
1.986
0.9
0.9425
0.1157
0.01759
58.6
0.423
6.76
0.02491
6.878
2.345
0.9206
0.3408
0.01958
0.01812
0.06707
0.1213
0.04653
0.1635
0.4418
0.3625
1.196
0.02289
0.2622
4.632
1.651
0.08689
0.3393
0.1906
2.534
0.9275
0.741
0.9304
0.2112
0.01545
0.3535
0.368
5.368
0.7519
0.03381
0.9542
0.01436
0.5571
0.2821
3.021
0.07093
0.03718
0.207
1.334
7.133
18.9
0.2676
0.3958
0.9558
0.07405
0.01022
20.38
0.8443
11.6
0.07992
5.082
0.3114
0.01395
1.802
3.111
0.1984
0.2567
0.3436
0.54
0.4895
1.324
0.3078
7.838
0.0512
5.207
1.163
1.064
0.001158
0.001128
0.8584
1.833
55.81
4.883
1.237
1.242
51.45
0.01309
0.4504
0.0188
0.01723
0.01391
0.1812
0.004439
19.75
0.02292
20.6
0.3105
2.464
1.988
0.972
0.001034
29.78
0.1268
14.72
0.2625
4.565
0.01274
0.8319
0.6762
0.2449
1.125
0.6483
0.2469
19.02
24.72
0.05181
0.01023
1.565
0.0006133
0.1978
0.2786
1.088
0.006607
1.94
0.02967
0.6935
0.8302
0.2767
11.94
0.004942
0.2063
1.083
1.093
0.1061
0.3137
0.2567
0.02074
0.09323
0.9055
79.62
0.9263
0.5406
0.01739
4.137
0.2203
0.1286
0.0007494
0.704
0.4135
0.9213
0.01799
2.672
0.01729
0.8817
0.1056
0.8347
2.035
0.2963
4.784
2.417
0.6002
0.007646
0.6908
1.727
0.5359
6.82
1.941
0.1489
0.03282
1.06
58.87
0.7616
6.692
2.945
0.001065
0.1416
0.01517
1.621
1.054
1.161
0.02736
2.87
0.02856
0.1295
0.4122
0.008422
0.1341
0.1257
1.98
0.3154
0.01457
0.7592
0.03857
1.938
10.02
0.3694
0.113
0.7563
0.02296
0.681
0.2699
11.2
2.302
0.2659
1.278
0.7483
1.455
18.49
0.04472
0.1962
2.143
0.03753
0.7966
0.3141
0.2223
0.4446
0.01903
0.00734
0.8462
0.1048
0.7606
0.3428
8.073
0.2885
4.905
0.2194
0.01853
5.138
0.7925
0.09741
0.8774
0.02512
0.6137
0.1442
0.2128
4.24
0.2576
2.038
0.6852
0.7791
0.03596
0.4563
0.621
1.502
6.009
0.02066
0.4005
2.204
0.01644
0.02051
0.2951
0.0008343
0.9784
0.5516
0.488
2.38
0.2301
0.1881
0.003006
0.2439
0.919
0.003274
0.2927
7.488
4.497
0.1727
0.4839
3.373
0.1624
3.637
0.1514
0.5199
4.545
0.0007997
0.001333
0.3234
0.01767
2.094
2.24
0.1978
2.306
1.003
0.02008
1.781
15.95
231.7
0.4605
0.3357
0.8475
0.1552
0.1774
0.2436
0.2091
1.231
0.442
0.4477
3.066
3.278
0.2738
0.2163
0.01847
18.02
0.1821
0.326
0.4026
0.04736
0.891
0.447
0.1164
0.1661
2.309
1.959
0.4986
1.664
0.2481
8.249
1.326
0.02226
0.8043
1.359
0.4383
0.6159
6.205
0.0173
12.35
13.4
0.6042
0.001758
0.2026
0.1582
1.152
1.244
0.1647
1.523
0.00329
1.62
0.8422
0.06613
0.1514
0.01391
0.8924
19.02
0.4736
1.316
50.38
0.2062
5.979
0.001426
19.92
1.089
0.1343
0.03631
0.1015
0.2922
0.1852
0.4401
0.001409
0.8377
13.67
31.72
0.2895
0.3234
0.4194
0.7136
0.01778
0.02119
1.287
0.2222
0.01378
0.4271
0.4662
0.7318
0.3866
0.5197
1.522
0.4375
24.51
3.354
1.969
0.0962
0.661
8.642
0.1649
0.9129
0.1033
0.3097
0.3082
19.91
0.2042
0.2456
0.0008541
0.03706
2.525
0.3143
0.01996
0.04583
0.2123
1.912
0.1683
0.706
5.54
4.061
0.01952
1.295
0.1375
0.3341
2.665
0.1603
0.04119
0.8157
0.4838
0.2283
1.03
0.03504
2.805
0.1212
1.628
0.07799
0.823
2.622
0.4419
1.358
0.4415
1.234
0.4785
0.8516
0.1987
0.1664
0.2878
0.2539
1.43
0.3432
30.05
0.6282
0.01458
0.3698
0.1025
1.479
0.6339
0.003547
0.2727
0.09622
4.191
0.001015
0.3422
0.2379
0.2809
0.1453
0.4444
0.07881
4.193
0.1479
0.01926
0.8118
0.04251
0.1831
0.03349
0.2219
0.1981
0.08386
0.1693
0.5565
0.7824
0.02387
0.0166
0.1389
0.2721
2.793
0.03178
0.6511
0.2643
2.687
0.8945
0.1208
1.766
0.5049
0.0718
0.4497
5.893
0.1529
18.28
0.7667
0.1721
8.334
0.01992
0.007711
0.7991
0.1618
50.8
0.02609
0.2291
0.7861
86.32
0.6862
1.736
0.007586
0.007571
0.8325
0.852
0.2695
5.301
0.03661
0.1823
0.2159
0.1344
1.344
1.131
0.5407
0.2409
2.242
0.06042
0.696
0.116
0.2881
1.611
2.019
2.384
0.5387
19.52
0.5545
0.9285
0.4171
1.198
0.5834
0.08892
2.7
1.445
0.001621
0.001606
0.564
0.3694
3.35
1.063
4.457
1.141
0.00394
0.02052
1.615
0.0994
0.3601
11.23
4.276
0.1415
0.9682
0.059
19.4
7.099
0.001192
0.2986
0.3583
0.5426
0.2101
1.812
0.5449
0.8372
0.5944
0.2661
0.2877
0.1763
4.916
0.9137
0.4798
0.3673
41.27
0.3337
0.5564
0.6381
3.969
1.114
0.5366
5.72
0.1899
1.441
0.01601
0.1695
0.09005
0.5965
0.1348
6.589
0.5534
0.151
1.466
31.9
1.412
0.5512
0.4605
1.19
7.93
0.003492
0.2147
0.261
16.04
0.4204
0.2842
0.1066
0.236
0.02109
0.4642
40.4
0.3041
0.7054
0.1456
0.08379
5.163
0.1162
0.5368
0.205
0.1767
6.513
0.1167
0.5047
0.1247
0.04662
2.633
0.3135
7.736
0.7453
0.6162
0.01008
0.2552
0.5513
1.229
8.757
0.2975
0.125
1.016
0.01851
1.226
4.882
1.458
2.353
0.6948
3.899
1.131
2.831
4.397
0.2381
2.469
1.374
0.1035
0.0713
3.816
0.0007496
0.149
0.01938
0.0495
3.76
0.01551
0.7127
1.075
0.194
0.4611
1.26
4.449
0.3858
8.949
0.4316
0.167
4.241
0.3856
0.3886
0.01912
9.278
0.229
1.933
3.475
0.0008716
1.079
1.068
0.2852
0.2597
1.042
10.77
1.014
0.2793
0.4023
0.02201
0.1076
0.06798
0.3728
0.2491
0.5021
1.081
0.8674
4.636
0.2108
0.01345
1.243
0.3399
0.1682
0.3677
0.4526
8.748
1.335
5.126
5.186
0.4836
0.5766
0.5869
0.3746
0.4435
0.1433
2.446
1.449
0.4658
1.046
0.01048
2.161
1.195
0.1776
0.2933
5.66
1.703
4.503
0.2754
0.719
18.1
0.0127
1.873
0.1626
0.03743
0.9922
2.375
0.0148
0.8373
0.2371
0.8193
23.75
0.9706
0.9453
40.37
0.2686
0.6152
0.1914
0.1914
0.5381
0.562
0.7544
3.895
0.4217
0.01977
3.92
2.152
0.7074
0.01476
0.0134
0.8575
0.4001
0.5465
132.7
2.148
0.006359
0.945
1.34
0.1202
1.564
0.644
0.002188
0.2584
1.061
0.1208
0.2381
0.02066
0.01007
0.01434
0.004297
0.06166
0.2222
0.5405
3.862
0.2847
0.4227
0.43
3.85
0.004307
0.5714
0.2556
0.8548
2.549
0.9412
0.3982
0.401
0.8364
0.6271
0.4584
0.04196
0.467
76.4
1.307
2.663
0.8109
3.303
0.02058
2.27
0.3971
1.364
0.2131
0.0332
24.71
0.02663
0.2813
2.302
0.004796
1.11
0.3282
0.3133
0.3291
2.158
0.04678
0.7501
0.003924
1.344
0.5165
0.4727
0.1811
2.171
0.01204
0.01577
0.1677
0.5388
1.076
0.07791
0.3143
1.394
0.3036
14.81
0.8769
0.1942
0.1385
0.2292
0.3067
0.1213
14.34
0.8115
0.02092
9.403
0.01889
0.01255
0.1411
0.001401
17.04
0.2061
1.391
0.2266
1.155
0.03322
0.07749
0.4561
0.7523
0.1559
0.002092
0.2404
78.88
5.138
0.09195
9.032
5.127
9.192
0.001157
0.1736
0.3089
0.1013
0.01731
0.1557
4.636
43.2
0.1812
1.161
5.078
0.02129
1.154
3.68
0.405
0.0263
1.37
52.02
7.669
12.34
0.1585
0.6408
6.053
0.03169
0.3436
0.01614
0.2973
4.489
0.1289
0.9212
11.55
0.1045
0.364
2.063
0.1686
0.02193
0.7929
1.577
0.1191
1.152
1.092
0.2162
0.1673
0.6328
0.4518
0.2883
0.02157
0.8523
0.8711
0.7991
0.5923
3.072
0.8104
9.675
4.379
15.43
10.51
0.8698
0.05169
4.898
0.02007
1.495
5.469
0.02191
104.1
0.1308
0.4488
6.246
1.632
1.207
7.615
0.5597
5.094
0.01586
131.1
1.202
0.0006608
0.1651
0.3274
50.41
5.206
1.958
0.2196
1.58
29.32
0.349
0.1446
0.4612
9.234
0.008263
0.2833
0.4038
0.3776
0.3118
0.2314
0.1152
2.719
0.5945
1.057
8.337
0.01507
2.581
0.1568
0.5064
0.4411
0.01767
0.07915
0.4525
1.651
1.438
3.607
0.0006277
0.0156
0.2328
0.8574
7.943
0.2217
0.1255
0.005691
0.02316
1.934
0.005704
0.6166
1.634
0.0881
0.6075
0.2513
6.157
3.609
5.992
0.03824
0.9331
0.3132
1.22
0.148
0.1697
5.984
0.1699
3.021
0.8388
1.38
0.4841
0.4615
18.82
0.2135
0.3466
0.6053
0.0008209
0.4696
0.06703
0.01788
0.4087
13.53
0.379
2.971
0.3033
1.394
36.61
0.1345
6.162
0.003811
0.1422
0.03318
0.041
1.146
0.127
4.814
4.093
0.5599
1.902
0.1687
0.5231
1.881
0.4793
0.1718
2.048
0.1667
13.94
0.997
0.001931
0.3397
0.3474
0.0596
0.0248
1.679
0.0307
1.805
0.6726
0.8829
0.4496
2.187
0.00104
0.1212
0.04512
1.903
2.038
3.783
0.4838
0.01419
2.711
0.01255
0.1207
0.4533
0.2196
6.751
0.6009
1.115
0.1577
14.33
0.4932
0.003484
0.2505
0.5708
0.04475
0.3547
0.03167
1.039
1.474
5.322
0.2993
0.006043
0.967
0.7174
1.511
1.675
1.659
0.8106
0.0174
0.1917
0.2997
0.4655
1.353
0.2463
0.08252
0.9506
0.1289
3.286
1.572
0.00388
0.1642
0.01572
0.02646
0.4167
0.7826
0.7867
0.01822
0.6534
1.984
0.5361
0.06912
0.6511
0.09939
1.785
0.002644
104.2
0.6329
1.885
0.0009131
0.07164
3.882
0.02489
0.4657
1.077
1.677
0.5325
0.8011
0.02694
0.6458
0.5164
0.9402
0.2981
0.8729
0.2288
0.234
0.7857
8.483
0.01272
0.3001
0.5016
11.2
0.2871
0.07641
2.79
2.374
0.2685
0.3657
0.3094
6.27
0.03488
0.2518
0.4941
0.141
0.3696
0.45
0.002051
1.933
8.883
0.4458
0.3593
5.877
0.8808
0.5489
0.01923
0.02418
0.09
0.001066
37.94
0.5205
0.04471
0.01655
0.3675
17.18
0.04135
0.2057
1.919
0.5148
0.583
1.276
16.94
0.9897
3.689
1.189
2.993
2.472
0.01775
0.3757
0.5364
0.48
0.02328
0.1167
0.4257
0.2017
0.4863
27.75
6.814
0.09263
0.902
3.001
0.1733
4.206
0.2067
0.4729
0.2712
2.801
4.767
0.01853
1.972
0.3824
0.0432
3.696
0.222
1.045
0.07222
0.7587
1.327
0.5261
1.442
0.01402
0.01861
0.09533
0.3616
0.1716
0.3744
0.02006
5.578
0.1259
0.2417
0.7558
1.847
0.1297
0.985
0.00992
4.167
1.53
24.39
0.8917
0.07076
5.368
0.5869
1.066
9.579
0.1159
4.318
0.1012
0.1028
0.2641
0.0671
0.01788
25.64
0.5052
1.977
1.068
0.8245
0.3782
0.001549
22.7
0.03435
0.8229
0.1632
0.2059
1.523
0.2453
0.4037
0.7462
0.1253
0.6254
0.008202
0.4616
1.329
18.95
5.859
0.09102
0.2407
0.2626
0.1648
0.5706
0.8055
0.05399
0.03352
0.3065
4.941
0.003077
0.01221
0.2665
0.843
0.1411
12.25
0.1397
1.032
0.4537
0.3945
0.07035
0.1017
1.304
1.518
1.063
0.2974
3.93
0.09957
2.239
0.001468
1.611
15.03
0.03491
0.3441
0.1931
1.023
1.791
0.6155
0.08009
0.01034
0.8558
0.1609
0.01681
1.561
3.596
0.1852
0.1567
0.0785
0.06716
0.02268
3.835
0.312
0.02021
8.918
0.8873
0.6139
0.02217
0.03845
0.01585
0.04054
0.5645
0.1569
1.051
8.209
4.286
0.7994
3.333
3.947
0.01782
9.197
0.9637
1.062
0.1245
0.1591
0.4374
1.106
2.099
4.658
0.5385
0.03377
0.313
2.313
0.3615
0.917
0.1178
0.3913
0.157
1.731
0.001196
0.4229
0.5775
0.5449
0.4383
2.286
10.41
4.68
0.01037
53.94
0.4412
0.1716
5.169
0.0291
0.9459
0.6745
0.006671
1.986
3.599
0.2052
0.5167
0.1293
3.218
0.01725
0.3081
6.154
0.2078
0.01656
1.805
0.2228
0.02906
0.2886
0.1573
0.524
11.79
1.054
0.915
0.2217
0.5455
1.051
0.01923
0.03256
2.864
0.4037
0.5584
0.06825
6.092
0.5385
0.2729
0.3605
0.2962
1.132
0.03423
0.05725
0.6167
0.5546
0.05185
0.6258
1.605
0.1497
1.156
1.407
0.1543
0.05007
0.1325
0.2974
0.7513
0.5081
0.06472
0.9355
0.003101
0.2331
0.4404
0.1692
1.015
0.4209
4.428
0.2701
0.3604
0.01234
0.007273
0.2603
0.2731
2.101
4.731
0.3828
1.139
7.335
0.7705
0.4464
0.9229
0.8276
4.173
0.849
0.03873
2.24
0.3673
1.371
0.2434
0.1959
0.2081
0.5754
0.03873
0.3765
0.1014
0.02206
0.08065
2.238
0.01466
8.138
1.502
0.5696
0.0178
0.6985
0.8017
0.001007
0.6023
0.9435
0.7749
0.4762
1.014
0.03388
1.375
0.1178
0.168
1.102
6.813
0.4449
0.8309
6.051
0.00679
0.02525
0.6444
1.132
1.891
0.1932
1.569
1.309
0.2539
0.1609
0.01768
6.721
1.644
0.1243
0.22
0.0165
1.169
0.08091
0.9523
1.001
0.4747
0.0124
10.61
0.8506
0.01923
0.6081
1.234
0.07838
0.01101
0.01181
1.135
25.76
0.3551
0.1119
0.3225
0.07301
0.5579
0.4914
0.01343
0.4462
0.4193
6.919
7.484
1.385
0.01214
0.913
0.4125
0.7713
0.7747
6.423
0.7096
0.7611
0.6643
0.5069
1.144
2.188
0.1001
0.001092
0.1025
0.03273
14.71
0.01736
0.1539
0.9506
0.379
0.1609
7.03
0.636
19.06
0.1898
15.87
0.4904
0.2
1.833
6.667
0.2105
5.151
14.3
0.02175
5.323
6.941
2.641
2.727
0.8132
0.1671
0.4015
0.3905
0.464
0.04521
0.3574
0.1884
0.2841
0.2071
0.3083
0.5526
0.1664
0.1106
4.086
0.6662
30.77
0.3961
0.9155
0.006036
1.485
0.5312
2.392
0.227
5.265
1.108
0.6068
0.1041
4.577
0.1025
0.3687
0.3925
0.0547
0.2063
0.264
0.3866
0.3226
0.4347
0.2237
0.6502
0.2288
5.615
0.3968
3.485
0.04775
0.2984
0.3702
0.1663
0.04136
7.682
0.02008
0.01453
0.02115
0.2515
0.4783
0.5188
0.06245
0.2194
0.2298
0.05484
3.072
2.975
4.02
0.55
0.06472
1.134
23.21
0.06382
0.9453
0.03232
0.6204
0.1191
0.5451
0.1742
0.01096
0.008771
0.7254
0.1408
0.04626
9.555
0.5522
0.05485
0.02653
0.3364
0.03188
1.989
3.18
0.004825
0.6273
0.5687
4.766
2.063
10.87
1.606
0.1066
0.2882
0.662
0.231
1.228
0.9772
0.7632
1.341
0.3496
6.612
0.01902
0.9461
1.21
10.8
0.04004
0.2318
0.02235
0.2707
0.2479
1.031
0.7898
0.604
6.295
0.1408
1.357
10.65
0.7597
2.537
1.043
0.2926
0.2659
0.4505
1.206
0.1942
1.592
0.002978
4.479
5.514
1.536
0.2737
0.5144
3.678
0.7882
0.2459
0.04433
57.22
0.3454
0.0007697
0.00138
0.00304
0.7268
8.578
0.196
26.83
0.5419
0.001084
0.7868
0.4937
0.3518
0.9165
73.09
2.565
0.3003
7.432
0.2315
0.4046
8.053
0.263
0.3862
0.1597
1.55
0.2162
0.2446
0.2474
0.9414
0.1976
0.7521
1.085
0.1873
3.89
0.5849
0.06156
5.156
0.2544
10.54
0.6498
0.008232
0.1094
1.196
0.02266
0.2395
4.475
2.886
0.1575
0.01206
0.1386
0.249
0.2501
0.04997
0.9048
0.009854
0.8804
0.4035
0.5157
0.4228
0.9674
0.9371
1.275
5.017
0.4875
0.3519
0.02788
12.44
0.04198
0.001374
0.4241
0.01815
3.059
0.1503
4.934
0.04482
1.31
0.3227
0.7614
0.9049
0.09325
0.3419
0.2123
1.103
1.868
0.4721
0.06886
0.01617
0.4347
1.243
0.08763
0.262
0.7317
0.7427
1.36
0.007695
0.2406
1.268
5.757
0.5539
0.339
1.386
0.6562
0.01993
0.2223
25.97
1.318
0.04671
0.1476
0.6382
0.1026
0.4976
1.785
0.6904
0.04695
0.05297
0.1171
0.01387
0.01312
0.02445
0.1318
18.15
1.486
0.1389
0.4738
0.1965
0.07254
0.1591
0.2215
0.7212
0.04674
0.03275
1.329
0.08095
0.02141
0.8231
0.5192
0.1167
3.984
6.159
0.02085
0.2981
0.2931
0.7178
0.4324
1.263
0.1633
0.8195
3.455
0.4811
5.779
0.1591
1.996
0.3187
0.6489
0.2938
12.25
0.06322
19.06
0.7086
0.02179
0.0287
0.004151
0.4105
0.273
3.277
2.803
2.796
0.07827
0.01053
1.154
1.468
0.1733
0.01723
1.246
0.1715
1.961
0.5169
11.07
2.258
1.519
1.692
0.542
0.1028
1.57
0.5877
0.2866
0.3265
0.05641
0.016
0.2027
0.2354
1.346
6.672
0.3355
0.02987
1.584
0.07047
0.1256
0.01777
3.419
0.4743
1.132
1.045
0.4229
0.2767
0.2653
0.1794
0.1928
0.5772
0.1753
0.133
0.04201
0.2815
12.5
0.1151
0.458
21.84
0.005873
0.02122
0.2099
0.0244
0.05712
3.789
0.06529
0.06519
0.6948
0.01294
0.2828
1.268
0.7743
0.1621
0.1448
0.03383
0.05188
0.3119
0.5738
1.921
5.972
0.2872
0.004783
0.1335
0.9333
1.871
0.07936
0.04714
0.04139
3.563
0.12
0.07077
0.2784
0.757
0.0682
0.02629
0.9283
0.01189
0.01859
0.01126
2.95
0.05585
0.6776
0.1389
0.02578
0.05917
0.1561
0.1927
1.454
0.1834
0.3683
0.3426
0.106
7.776
0.2825
1.487
0.03743
0.4607
0.4119
0.5489
0.5423
0.1981
0.5036
0.3001
0.1507
0.8023
0.06592
134.8
0.5911
14.42
0.103
3.6
0.01979
0.04457
0.3607
1.042
0.1546
0.4244
0.1402
0.001439
20.39
0.001425
0.6988
27.38
0.1271
0.2676
0.002061
6.184
0.01776
0.1898
0.22
0.6039
0.6567
0.01649
23.99
0.03003
0.3832
1.265
0.6673
0.7201
15.04
0.4858
11.72
0.3897
0.01425
0.2068
1.551
0.02041
0.0835
2.339
0.162
19.12
2.341
4.56
0.02649
0.3158
0.02555
0.01605
0.02514
2.765
0.1434
0.1898
0.001144
0.2881
0.2242
0.9522
0.5679
11.58
0.01767
0.8792
3.566
0.5342
0.1273
0.1907
0.03331
0.3507
0.005848
0.2877
0.9448
0.01621
0.5704
19.72
0.4312
2.023
0.2474
5.939
2.507
0.5113
2.011
5.748
0.716
2.638
0.7003
0.2433
0.9326
0.346
0.3962
0.6039
0.8253
0.003764
0.6843
0.002589
1.747
13.62
0.4751
0.7243
12.59
0.1979
0.4429
0.001238
0.6772
0.3119
30.12
0.1679
0.01156
0.2227
0.5579
0.5671
0.001196
0.6914
0.5608
0.2732
0.2674
3.4
2.092
15.37
0.4663
0.8469
0.528
0.1796
0.6237
0.02039
2.809
1.363
0.01826
0.2812
0.2906
0.5494
1.224
1.775
0.05825
3.84
4.802
0.07881
1.031
3.294
2.289
1.422
0.004777
0.001878
0.8283
0.4671
0.3942
0.01225
3.595
0.5046
2.075
7.851
0.00774
0.569
2.901
0.2701
18.35
0.5582
0.6689
0.8305
0.2095
0.655
0.01818
0.3541
14.46
0.405
0.636
0.1938
0.2172
0.009639
0.002932
0.5423
0.4424
0.2479
1.094
0.3033
0.01552
1.043
1.082
0.1635
1.61
29.89
1.481
0.001143
0.1431
0.02025
0.6124
1.014
1.205
2.755
1.896
2.254
0.02847
0.9457
0.03095
0.1325
0.9599
0.3069
4.013
0.6324
27.4
0.0406
0.7757
2.1
0.01755
0.4941
0.328
4.964
0.1351
0.03783
0.01596
0.003865
0.3226
0.01532
0.2617
1.293
0.2314
0.2426
0.5785
0.04737
0.4459
0.1514
0.003615
2.443
1.142
5.373
0.5559
0.01707
1.419
2.078
0.02079
3.292
0.1733
1.609
0.3715
14.72
0.312
2.967
0.1536
0.171
0.04183
0.1917
0.04363
0.06248
2.955
0.4154
0.5017
0.3908
0.4443
0.5782
0.01903
0.06054
0.07067
0.3375
0.259
0.6937
9.68
0.1124
0.02259
1.7
0.1168
3.094
0.01164
0.7219
1.236
0.1787
0.1542
1.46
0.8532
0.8202
0.3081
0.756
0.01613
1.446
0.1887
0.4133
1
7.735
1.577
0.0742
0.2939
0.2945
0.1721
44.65
0.01598
1.082
0.4163
0.2118
0.3037
0.3085
25.67
0.3435
6.253
1.048
18.69
0.2978
0.2571
5.554
1.306
0.02312
0.6399
0.2062
0.8242
0.7769
0.1718
3.355
0.001286
0.7473
3.228
1.634
0.9447
2.257
2.237
0.02046
0.9641
0.9613
0.6267
0.1242
0.05041
0.662
0.3219
0.7811
3.02
0.01015
0.4615
0.1768
0.2356
0.2794
1.387
1.366
0.2628
1.371
1.817
0.006694
0.3438
0.2639
10.94
1.22
5.656
0.3493
0.3327
0.2325
0.1143
0.5776
0.8893
5.74
2.009
4.948
29.19
0.3787
0.1134
13.69
1.278
1.981
0.001165
3.099
6.998
1.185
0.4187
0.01548
1.745
0.02492
0.258
1.592
0.3992
0.9146
0.1561
1.559
0.2438
4.23
0.2354
0.8407
0.755
5.841
1.019
0.8002
0.2991
0.194
9.537
0.1525
7.738
0.3152
0.366
0.02788
7.757
0.1596
0.05709
0.01872
0.267
0.5998
0.03006
0.006624
0.01777
0.6183
2.231
26.62
0.08112
0.001947
0.4383
0.006334
0.004797
1.118
0.0007558
0.4157
8.938
0.04993
1.006
0.5236
0.9998
0.1276
0.5522
0.06398
0.4706
0.2051
6.106
0.2918
0.5504
0.9238
1.941
0.0901
0.001949
0.1366
1.763
0.0191
0.1179
0.5495
1.587
7.392
0.4282
0.4076
1.55
0.01533
0.3859
0.9531
0.6053
0.4385
0.3681
0.0006106
0.382
0.332
1.005
0.5321
0.6026
0.001487
1.878
0.5038
0.00127
0.2413
0.0005833
0.9187
0.01825
14.54
10.13
0.02553
0.6342
0.6421
0.1044
6.972
1.279
0.01577
1.672
0.3077
0.5653
2.369
0.0406
0.08295
9.637
0.3442
0.6323
0.1562
0.3256
0.1893
0.2479
0.4936
0.001192
0.271
1.011
0.3103
0.267
0.2026
1.327
0.2918
0.3161
1.581
0.3571
0.213
2.923
0.03123
0.1962
3.219
0.1941
0.04386
0.206
0.4531
1.339
0.478
0.4807
6.717
0.2294
0.7189
0.3541
0.003949
0.2557
2.156
0.2034
1.263
0.03991
1.443
0.1343
0.3555
0.0865
0.1435
2.437
1.133
0.231
0.4993
8.125
0.4021
0.008639
0.01417
0.2247
1.893
2.005
0.3546
0.3111
0.1553
0.7019
0.1022
0.1579
16.06
0.1581
0.1481
7.054
0.74
0.2827
0.2202
0.06008
121.8
0.01529
0.3049
0.6989
0.3691
0.4265
0.3916
2.124
0.1806
0.751
0.09302
80.24
1.045
0.1981
107.7
6.303
1.342
0.9079
0.003015
0.1461
0.08629
3.789
0.04084
1.601
14.63
0.06839
0.8577
0.2712
0.2907
6.665
0.9079
11.43
4.358
0.5329
0.007535
0.007601
0.02473
0.7545
13.37
0.2558
0.0161
0.07619
5.724
0.6581
8.915
0.3419
0.0146
62.79
0.05107
0.1923
0.1695
0.03508
0.3067
0.1763
0.1975
0.06362
2.568
0.2095
0.4811
0.4178
50.32
0.1951
1.471
0.6672
0.143
0.09464
51.3
1.429
5.011
0.3618
0.7881
3.3
3.115
0.09849
0.2163
0.7548
0.6133
1.838
0.002189
12.78
0.2631
5.551
0.2133
0.03398
0.05872
0.01491
0.7536
0.3172
0.42
0.4488
0.2312
3.49
0.7038
0.1931
0.1179
1.733
0.1135
0.9794
1.535
1.285
0.1835
0.06326
0.2775
0.2881
0.518
0.1298
0.6856
1.477
6.261
0.3216
0.2918
2.065
0.3837
2.687
0.2316
0.7917
0.1072
6.874
2.177
1.427
0.2344
3.477
0.06248
2.77
1.454
0.4526
0.3104
0.3177
0.8156
1.015
0.258
0.4272
0.3328
2.295
27.69
0.003001
0.03236
0.01247
0.4871
0.8527
0.4223
4.909
2.213
4.502
1.75
0.5504
2.291
4.154
0.2221
1.087
1.747
0.6896
6.184
0.01727
10.47
2.393
2.49
0.08593
2.259
0.5036
0.621
1.417
2.197
0.01554
0.07084
0.6128
2.891
0.005167
0.581
0.09421
0.4821
317.1
0.001281
0.1991
0.1373
0.7162
0.9086
0.1942
0.5718
1.389
0.8065
2.458
0.948
0.04418
0.1657
3.192
0.02128
0.01727
7.462
3.771
0.5163
0.5689
0.06524
0.5567
1.244
0.8471
2.135
0.5598
0.0366
0.7513
0.1726
0.1647
0.01122
0.8264
0.006334
62.43
0.755
1.182
0.1289
13.87
0.01342
1.426
0.005135
0.1048
4.559
0.2397
8.482
0.1536
0.0664
0.5556
0.5594
0.2441
0.4753
0.2815
1.074
2.186
0.7592
1.165
2.269
6.656
0.7127
0.4227
0.848
6.036
0.7442
0.4365
0.1713
0.008549
30.54
0.4685
0.5448
11.51
0.01701
2.228
0.1395
0.008261
0.1841
118
0.1271
0.9347
17.59
0.06423
1.139
0.8383
0.2125
0.1356
0.507
16.49
2.391
0.02229
7.781
24.01
0.07586
0.01634
0.8441
1.691
0.7407
1.733
0.5925
3.344
0.01739
0.8436
0.1587
3.665
1.542
12.29
0.00829
0.008374
0.1618
1.181
0.0336
0.1787
0.217
4.041
0.2696
0.296
1.332
0.08356
0.01835
7.579
2.478
4.623
2.007
0.04126
0.5269
0.002811
0.4877
9.539
0.5719
1.313
4.097
1.011
1.118
1.178
0.5639
0.4887
0.02122
0.01717
0.02002
0.171
0.8732
0.9915
7.984
0.7334
0.01795
0.5655
0.9756
2.157
8.705
0.5978
0.595
2.068
2.515
0.07986
0.3554
0.2281
1.654
0.07761
2.142
0.2185
0.3741
0.7765
2.197
0.004535
0.01519
3.954
0.2736
0.1439
0.3019
10
0.4807
0.00491
0.4019
0.3832
0.5574
0.4493
1.723
0.5323
1.141
5.687
0.09027
0.0005934
0.4969
0.05835
0.1127
0.06688
8.868
0.2395
1.643
0.3221
0.3354
0.7721
0.02506
1.624
1.497
0.4395
0.2781
1.981
15.8
0.03261
0.01659
1.987
0.3509
0.5519
0.2246
0.1251
1.24
0.04828
0.02924
0.6446
2.2
0.01984
1.275
1.004
0.01325
4.514
0.03645
0.2674
0.4463
2.217
0.2041
14.95
0.8995
0.4502
0.03642
0.01543
0.2512
0.3209
0.3857
0.1843
0.007328
0.007087
0.02053
0.3641
0.5239
1.726
0.0007055
1.314
0.2572
1.136
0.48
2.931
0.1401
0.03272
3.155
0.01771
5.362