/*--------------------------------*- C++ -*----------------------------------*\
  =========                 |
  \\      /  F ield         | OpenFOAM: The Open Source CFD Toolbox
   \\    /   O peration     | Website:  https://openfoam.org
    \\  /    A nd           | Version:  8
     \\/     M anipulation  |
\*---------------------------------------------------------------------------*/
FoamFile
{
    version     2.0;
    format      ascii;
    class       volScalarField;
    location    "50";
    object      k;
}
// * * * * * * * * * * * * * * * * * * * * * * * * * * * * * * * * * * * * * //

dimensions      [0 2 -2 0 0 0 0];

internalField   nonuniform List<scalar> 
127143
(
1.048e-14
1.113e-13
7.848e-13
4.005e-12
2.82e-12
4.227e-12
5.923e-11
1.46e-11
6.973e-12
5.379e-12
1.431e-10
1.798e-11
5.585e-12
6.902e-12
2.432e-05
1.62e-10
4.087e-12
0.06208
0.0265
1.727e-08
0.002258
1.113e-07
0.0001539
6.375e-06
1.005e-07
1.34e-07
3.244e-09
3.34e-09
1.117e-07
0.06261
2.147e-06
1.293e-07
3.805e-08
6.672e-07
0.0001509
3.729e-08
0.002612
0.01443
1.276e-05
7.682e-08
0.02671
0.0001531
0.0001526
4.191e-11
0.06034
8.103e-07
1.144e-07
0.009397
7.939e-06
1.019e-05
3.785e-10
0.0001494
0.0006261
0.0001539
0.0001395
2.834e-06
0.0001394
0.0001657
0.0001471
0.0001539
0.0001528
0.01419
5.095e-05
0.0001482
6.045e-07
0.0001585
0.0001511
4.461e-05
4.516e-05
0.0002198
4.564e-06
7.115e-09
0.02642
0.0001471
0.0001458
7.103e-09
0.0001474
0.001872
2.81e-06
0.000149
8.958e-08
1.649e-08
5.418e-06
1.706e-07
0.02075
0.002872
2.122e-05
1.787e-08
0.0001573
4.166e-05
0.0001468
0.000464
8.005e-05
0.002311
0.0002018
0.0001721
0.000153
8.133e-07
0.002778
0.000151
0.0001489
9.15e-06
8.047e-06
0.0001124
0.003172
0.002599
3.581e-05
0.0002207
0.0001671
0.0001424
3.199e-05
1.602e-08
0.0008877
0.0001674
0.0001455
0.0001515
0.0001475
0.0001459
0.0001473
8.182e-09
0.0001425
6e-06
7.032e-05
0.0001624
1.051e-07
3.578e-08
0.00805
0.0001485
4.044e-05
2.332e-06
0.0004322
0.0001647
6.463e-05
0.001985
1.312e-10
0.0004776
0.0001553
0.004331
3.05e-07
0.0001533
0.0001544
0.0001467
0.003374
0.008191
0.0006683
0.0001552
4.055e-07
0.0001483
0.0001421
3.321e-06
8.687e-05
1.117e-05
0.008103
0.0001517
0.0001169
0.02088
0.0001658
1.907e-06
0.009672
6.061e-07
5.281e-06
4.763e-10
0.0001468
0.0004415
3.124e-07
9.84e-07
0.001222
0.0001556
2.109e-06
0.0001489
0.0001165
0.008163
0.0001428
9.378e-05
0.0006375
0.0111
0.0001784
4.195e-05
1.007e-05
0.000156
9.459e-05
0.0001549
0.01174
0.01136
2.693e-06
0.01464
0.0001513
0.0001666
8.454e-06
0.0001548
0.0004613
6.414e-05
0.0001549
0.0001918
7.011e-11
0.007593
0.0001289
0.0001282
1.67e-09
0.0001457
0.0001452
0.000149
0.00361
0.003195
3.07e-11
3.189e-05
0.000153
7.895e-05
0.05372
0.0001455
0.0001639
0.01949
0.0001448
2.358e-06
0.0001506
4.027e-10
1.355e-05
8.163e-05
0.0004297
0.000153
0.0001826
0.0001462
1.048e-05
0.0006749
3.95e-07
7.678e-05
7.214e-07
0.01404
0.0003074
0.005406
0.001953
0.0001547
0.02687
9.042e-08
0.002014
0.0001571
0.0004376
2.233e-13
0.0001452
0.001021
7.405e-05
9.769e-07
0.01339
2.052e-06
0.001578
9.723e-09
2.123e-05
2.893e-09
4.883e-09
0.0002677
0.0001658
1.8e-07
7.705e-05
0.004452
6.224e-06
0.000169
0.0001485
5.482e-06
0.0001338
0.0001506
0.007771
0.0001515
0.0002266
0.0001467
0.0004219
8.347e-07
5.185e-05
7.009e-05
0.000155
0.000122
5.716e-07
0.0006297
0.01285
0.0009812
6.451e-05
0.0005144
0.0009366
1.389e-05
0.001191
0.0001537
0.0002237
0.0001852
0.0001132
0.0001455
0.0001454
6.47e-11
0.0002801
0.0001455
1.236e-05
0.0001565
0.008163
0.0001578
0.000157
0.0001341
0.0001451
0.000175
2.784e-06
0.001931
0.01332
0.0001259
9.877e-07
0.0001596
0.0001547
0.0001552
3.036e-07
0.0001355
7.938e-05
0.0001448
0.02571
7.163e-05
3.238e-05
0.0002687
1.782e-06
0.0001967
0.0001453
5.665e-05
0.01104
8.673e-07
0.0001579
0.005795
0.0001537
3.363e-06
0.0001512
7.636e-05
5.328e-05
0.00627
0.0001501
0.003752
4.732e-06
0.0001847
0.01058
0.0001454
0.0001509
0.000129
0.0001283
0.0001517
0.0001673
0.0001431
0.01061
0.0001876
0.0001533
8.118e-05
0.001062
0.0005677
0.0001747
1.171e-05
2.224e-05
0.0004997
1.334e-06
1.5e-05
1.721e-06
0.02691
0.009365
0.000526
0.0001493
2.942e-05
0.004327
0.000162
0.0001485
4.725e-06
0.01599
5.637e-05
0.05531
1.123e-05
1.131e-05
0.0001468
0.0001457
0.003674
5.384e-06
0.001205
0.0001552
0.0001513
3.801e-07
9.915e-06
0.0001542
0.0001533
3.477e-06
3.425e-07
0.003958
0.00124
0.05372
8.222e-08
1.948e-06
0.0001595
0.0001474
3.608e-09
0.0001502
9.994e-08
0.007045
0.03271
0.0001461
0.0001532
0.0002003
6.468e-06
8.275e-06
2.122e-06
0.0001533
2.993e-06
0.0001493
0.0001513
1.707e-07
0.0001462
0.0027
0.01232
0.0001502
7.635e-05
0.003759
6.465e-05
0.000149
1.254e-05
0.0001354
1.1e-06
0.0001545
0.009789
8.296e-05
0.0002234
0.001246
3.444e-07
0.0009785
1.755e-05
0.001388
4.281e-07
8.357e-05
0.0002253
0.005154
0.0001508
0.0001524
0.0001528
1.385e-06
0.000153
0.0001412
8.689e-05
0.007849
0.002029
0.0001153
0.0001468
7.326e-05
3.356e-05
0.0001493
0.0001451
0.0001453
1.313e-05
0.0001554
0.0001713
0.0001481
1.011e-06
0.0001454
4.521e-05
0.003944
0.01949
0.002231
3.284e-06
8.123e-05
3.769e-06
0.0001501
0.004894
8.208e-07
1.896e-06
0.004873
0.0001994
6.729e-05
0.0001493
0.01864
0.0001565
0.000134
0.0004933
0.0001462
0.002421
1.542e-05
0.0001386
0.003941
0.0001615
0.0001626
0.01164
0.0001528
0.0001347
0.0001461
0.0001589
0.0001187
0.001764
1.264e-07
5.366e-05
2.554e-05
1.939e-06
0.0001613
0.0001147
0.002725
0.0001447
1.017e-06
0.0001468
8.977e-05
2.481e-05
0.0003823
0.0001488
2.952e-10
0.0003242
0.0001566
0.0001599
0.0001598
0.0001448
1.162e-07
0.0001463
0.01025
0.008174
2.464e-12
1.347e-09
5.589e-09
0.000147
3.301e-05
5.368e-05
0.0001453
0.01549
5.371e-05
0.0006939
0.0001128
0.002077
3.146e-06
0.003989
7.935e-08
0.0004288
0.01795
2.585e-08
1.176e-05
1.162e-06
0.0001598
0.0001468
9.002e-05
0.002078
0.02006
0.0001457
5.971e-07
1.006e-06
0.0001645
0.0001304
0.002383
0.0001567
6.267e-05
0.0001523
1.068e-06
0.02434
0.0001469
0.0003586
0.000147
0.0001387
0.0001596
0.0005637
3.667e-06
1.201e-05
1.155e-05
1.196e-05
0.007423
0.0001168
2.449e-05
0.001128
0.0001037
0.0001463
1.398e-07
0.0004856
8.14e-07
5.84e-05
0.0131
0.0001483
0.0001479
0.0001506
1.914e-05
0.0001656
0.0001454
0.0001424
0.0001665
4.988e-06
0.003983
0.0001605
1.217e-05
1.876e-07
0.0001578
0.000147
0.0001426
0.0001328
0.002632
5.057e-05
0.0001578
6.436e-09
6.542e-05
9.997e-05
0.001219
2.865e-07
0.0001454
0.004185
0.01373
0.03328
0.0001352
8.333e-05
0.00783
7.287e-09
0.0001346
3.796e-05
1.489e-05
0.0001453
7.666e-05
0.0001455
2.366e-05
0.004369
0.0001455
7.841e-06
4.033e-06
0.0003795
0.0002795
0.004277
2.09e-06
2.243e-06
0.0002006
1.584e-05
9.664e-05
1.255e-05
0.006881
0.0003173
5.368e-07
0.000149
2.264e-06
0.0001454
0.0001668
0.0001486
0.003618
0.0001413
0.0001455
0.0001635
1.866e-05
0.001085
0.0001384
0.0001412
0.000394
1.431e-07
1.085e-05
1.188e-06
0.02122
0.0001707
0.002294
0.0001297
0.00061
4.866e-05
2.839e-07
0.0001385
4.447e-06
0.0009015
0.0001651
0.0001501
0.000147
0.0001422
0.006359
5.927e-07
0.002777
1.123e-06
0.0001485
0.0001469
0.0003445
6.374e-06
0.0001489
1.197e-06
0.0001565
0.000164
1.843e-05
0.0001307
0.0009773
0.0001522
7.058e-11
0.0001006
0.005069
0.004791
0.0002979
9.935e-05
4.95e-07
2.676e-05
0.0001488
7.055e-05
0.002394
0.002897
0.0001416
1.557e-05
0.0001558
0.000152
0.0001303
0.0001415
3.177e-07
0.00016
4.084e-06
9.24e-05
6.208e-05
0.0255
0.0001581
6.255e-07
0.0001513
6.736e-06
0.0001446
0.0001393
0.000169
0.0001509
8.147e-06
0.000152
8.1e-07
0.01956
8.859e-06
0.0001602
0.05423
0.0001444
1.215e-06
0.0001528
5.19e-06
1.41e-10
5.935e-05
0.0004422
0.004281
0.000137
5.109e-05
1.148e-05
5.488e-07
0.03877
0.01216
0.0006266
4.902e-06
0.001209
1.917e-05
0.02161
9.262e-06
4.374e-05
7.187e-05
0.008359
0.0001603
1.653e-14
0.0001558
0.0001488
3.216e-05
6.012e-05
2.47e-05
0.000144
0.007326
0.0274
0.004109
0.0001507
9.408e-07
0.0001064
2.731e-07
0.0001624
2.084e-05
0.005793
3.839e-05
2.937e-05
0.0001521
0.00563
0.0002718
8.611e-06
0.004075
0.0001458
0.001062
0.0001608
0.0001459
7.902e-05
0.0001662
0.0001172
0.0003386
0.0001585
5.896e-05
1.019e-07
7.823e-05
0.0001278
0.005587
0.01633
1.27e-07
1.47e-06
0.0001544
0.01577
1.605e-05
0.0001283
0.0007887
1.949e-05
0.0021
1.735e-07
0.00213
0.00019
0.001238
0.01543
0.0001538
0.0001469
2.924e-11
0.0003934
0.000331
2.971e-05
0.005869
0.0003089
0.000259
6.428e-06
0.0001424
0.03023
0.0001122
0.0001472
0.0001331
9.094e-05
3.502e-05
6.995e-05
0.0001364
0.002535
0.009853
0.0001447
0.000136
0.000151
0.01415
0.02115
0.0003914
0.00447
1.41e-09
9.749e-05
0.0001525
0.0001418
0.001666
0.001831
2.66e-06
4.711e-07
0.0001551
0.0001962
0.0001465
0.002371
6.514e-09
0.0001419
0.0001599
1.486e-06
4.915e-05
1.149e-07
0.0001484
0.0172
4.761e-05
0.0001459
1.411e-06
0.0001416
5.654e-05
1.252e-06
3.049e-05
0.0006989
3.876e-08
0.0001463
9.331e-06
0.0001524
7.061e-07
0.001065
5.736e-07
4.552e-06
0.0001544
0.0001655
0.0001634
8.398e-10
0.0001457
0.02252
3.87e-06
9.01e-06
0.002226
1.579e-08
0.000192
0.0002039
0.0001266
9.044e-08
8.19e-10
4.994e-05
4.261e-10
1.232e-05
1.658e-10
0.0001639
3.898e-05
0.03086
5.843e-09
0.0001473
2.923e-05
0.0001351
0.0001337
0.002743
0.0001495
0.0001258
0.03425
0.0001648
0.0001509
0.0001549
3.931e-05
2.942e-05
0.000146
0.04037
0.001777
0.0001548
7.107e-06
1.508e-08
0.013
8.935e-05
2.893e-05
0.01206
0.0002095
0.000145
0.0004
5.607e-06
0.0001482
1.08e-05
0.0005117
0.01488
0.0001379
0.006648
0.05157
6.579e-10
0.0001641
1.426e-08
0.003758
0.0001081
3.747e-05
8.942e-06
2.408e-06
0.0001309
4.701e-07
0.000153
0.0001321
0.000174
8.621e-08
0.04673
3.109e-06
8.344e-05
0.0001378
3.69e-06
9.546e-11
6.26e-06
0.0001469
0.0001461
8.727e-05
0.0001738
0.0005401
1.141e-05
0.0001949
5.142e-07
0.002991
0.000152
4.483e-07
0.0001534
1.549e-08
0.0001444
0.008016
0.0001695
0.004638
7.927e-05
0.002636
0.0001457
0.0001458
4.628e-05
0.0001548
0.00103
7.437e-06
0.0001754
0.01628
0.002499
2.433e-05
7.062e-06
8.601e-10
0.001224
1.549e-06
1.096e-05
7.908e-05
0.01394
0.0001939
0.0003114
8.115e-05
2.736e-07
0.002467
0.000144
0.0001429
0.006642
0.008786
0.0001648
0.0001392
0.0001288
0.002237
0.0001625
0.0001815
0.00535
4.163e-05
0.0001569
0.000149
0.0001608
0.0001635
8.173e-08
3.471e-07
0.006213
0.0001536
0.02751
6.206e-06
7.342e-06
6.928e-05
0.01944
9.113e-05
2.348e-05
0.001286
4.284e-07
0.0001486
1.095e-07
8.37e-06
0.01664
0.0003192
2.363e-05
0.0001456
4.27e-09
1.014e-09
0.0001365
0.0001441
0.0002711
0.001368
4.257e-08
0.001947
3.068e-05
7.92e-06
4.115e-05
0.0001624
0.0001648
0.0001478
2.384e-05
0.02087
0.0001037
0.0001491
3.882e-05
0.002635
0.0001512
1.113e-09
0.002932
0.0001453
3.012e-05
0.000142
0.0001447
6.839e-05
0.0001544
1.401e-09
0.0001442
1.504e-06
0.000146
8.035e-05
0.0001541
0.04169
9.745e-05
2.3e-06
4.491e-06
1.528e-05
5.937e-05
0.0002011
0.0001554
0.004697
1.443e-05
0.0003214
4.782e-05
2.543e-08
2.222e-05
5.843e-09
0.0002294
6.111e-06
1.635e-06
4.149e-06
1.038e-07
0.0001514
0.03205
0.0001718
1.947e-05
0.004293
3.905e-07
0.000188
1.858e-05
0.005306
4.008e-05
3.561e-05
0.0003509
0.0001576
3.234e-06
0.01278
4.046e-05
0.001498
1.9e-06
0.001009
0.0001372
7.141e-05
2.01e-05
0.0001459
6.236e-05
1.302e-06
0.0001379
0.000158
0.001593
0.0001535
0.0001514
0.01428
0.005366
0.0001579
0.0001317
6.233e-05
7.11e-05
0.0001448
0.0001512
0.0001501
0.002288
3.578e-05
9.894e-05
0.0001544
0.0001716
3.397e-07
2.404e-06
7.677e-06
0.006348
5.737e-09
0.0002107
1.887e-05
0.0001456
0.001172
0.0001708
0.0001009
3.508e-05
0.0002239
1.29e-07
0.0001471
6.274e-09
4.012e-06
4.997e-06
5.626e-05
7.585e-06
0.01093
0.03935
2.274e-07
4.189e-05
0.0001499
7.511e-12
0.006324
6.911e-06
8.752e-07
1.408e-05
5.929e-05
0.006263
4.541e-06
3.306e-05
0.000508
0.0006551
3.246e-06
5.346e-06
0.04536
1.102e-08
0.0001587
2.629e-05
0.0001566
1.532e-06
0.0001308
0.0001448
0.008202
3.918e-09
0.006325
0.002511
4.144e-09
6.007e-05
0.0001458
2.134e-07
3.143e-05
0.001522
1.492e-07
0.0001651
0.002254
2.269e-10
0.04085
1.064e-06
0.007639
4.091e-05
6.169e-08
6.167e-06
5.904e-07
0.0001564
3.598e-05
0.0001579
0.0503
0.0001225
0.0001822
0.0001186
3.635e-05
0.01916
5.898e-06
0.01322
0.0001621
0.01958
0.0001529
0.0001573
8.699e-05
1.078e-08
0.0001503
2.407e-08
1.271e-06
0.001037
0.0009698
0.0001459
0.01081
0.0002413
0.0001597
4.311e-06
1.267e-06
3.708e-07
0.0001427
3.993e-06
0.00013
0.0009826
1.364e-09
0.0001289
0.02552
0.0001221
0.0001462
0.0001117
0.0008899
7.92e-08
0.0001167
0.0001612
0.004474
0.0001453
7.82e-11
1.386e-09
0.003455
0.0001655
0.0001272
0.0001354
0.0001314
0.0006648
0.01744
0.02173
0.0001534
0.0001609
0.0001629
0.0001601
0.0009838
0.02158
5.257e-06
8.714e-06
8.756e-10
0.0001664
4.646e-07
0.002231
9.866e-05
0.0001317
2.364e-06
0.006427
4.621e-05
7.646e-10
0.0005096
0.01366
0.0003843
5.685e-05
0.0018
1.039e-09
0.0548
0.0005215
0.01768
0.01329
0.0001072
1.052e-05
7.364e-10
0.0001544
0.0002891
0.0001413
6.825e-06
2.713e-05
0.0001353
2.302e-05
5.821e-05
0.001433
3.445e-06
0.0001428
0.0001651
6.997e-11
0.0001456
1.188e-05
1.625e-05
3.961e-05
6.679e-07
0.0001656
0.0001124
0.000326
2.16e-07
0.0006907
6.73e-05
0.0001506
3.569e-05
3.566e-06
2.736e-06
3.841e-05
0.0005011
0.0001451
2.908e-05
0.02515
6.348e-07
0.0001419
0.01617
0.0005392
0.000145
0.0001395
0.000153
0.0001456
0.01953
0.000138
3.567e-06
0.02026
5.994e-09
0.0004599
0.001087
4.864e-06
0.00108
1.769e-05
5.967e-06
1.454e-10
0.0003315
0.0001402
0.002655
0.002041
0.01299
0.0001482
0.006308
0.0001465
0.006703
0.0001474
0.02112
0.0001435
2.032e-05
0.001852
0.0001379
0.0001445
0.001366
0.0001568
5.321e-06
0.0001542
0.0001337
0.0001621
0.0008922
0.0001497
3.515e-09
8.751e-07
7.72e-08
1.635e-05
6.123e-05
6.671e-06
1.631e-05
0.01073
0.0001896
6.228e-08
0.01717
1.171e-05
2.352e-06
0.0003345
0.0003024
0.02386
0.0001441
1.317e-10
0.0004866
2.377e-07
0.0001458
8.545e-10
2.074e-05
5.119e-06
0.002321
0.0001309
0.0001308
0.01291
0.05334
0.01335
0.01129
4.642e-05
0.0001661
0.000156
0.006836
0.0001218
4.588e-07
0.0001241
0.0001897
0.001587
0.0001062
7.596e-07
6.72e-06
3.653e-05
5.436e-06
0.004925
0.0001461
0.004778
0.00278
1.396e-08
0.001176
0.0001536
4.501e-05
0.003135
2.246e-05
0.008561
3.068e-07
0.05471
0.0001455
0.01007
7.922e-05
6.423e-10
4.604e-07
0.0001647
0.0003962
5.007e-06
0.0001574
0.0001305
4.308e-05
1.785e-05
4.12e-10
0.0001514
1.718e-08
0.002822
0.0001439
6.532e-06
0.0001077
0.00932
0.0001515
0.005201
0.0003213
4.757e-05
5.206e-05
0.02627
2.727e-06
0.0001521
2.647e-05
2.896e-06
1.318e-06
0.0001844
0.0001839
3.627e-06
0.0001728
1.187e-09
0.0001366
8.063e-07
6.945e-07
1.248e-10
0.003752
0.0002674
0.0001489
0.0001456
0.0001437
0.0119
0.0001432
1.531e-09
0.0001454
3.715e-07
0.0001575
0.0001197
8.653e-05
1.603e-06
0.0002452
4.191e-07
0.000158
0.0001344
0.003003
5.878e-08
0.0001448
0.0001281
2.561e-05
0.003785
4.262e-05
0.0001688
0.00262
4.251e-05
2.548e-05
0.0001536
0.0001372
2.595e-06
0.0001942
0.0001328
0.0001591
1.346e-05
0.0001372
1.496e-07
0.0001462
0.001556
0.000479
0.005563
0.0001921
0.0001392
0.006382
8.36e-06
0.006435
0.0001513
8.195e-05
0.0001544
0.0001454
0.0001417
0.0003362
2.415e-09
8.427e-05
3.554e-05
0.0001491
9.897e-08
0.0001636
0.0001527
0.0001807
0.0001693
0.0001761
1.973e-06
0.0001498
2.067e-05
0.0001467
0.0003961
0.0001486
0.000152
3.223e-05
0.01268
0.0001608
1.269e-06
6.853e-05
0.0001415
0.001725
2.133e-07
6.514e-05
8.926e-10
5.078e-07
0.01853
0.0001529
0.0001698
5.115e-07
0.001038
2.097e-05
3.884e-06
0.0002135
0.0001543
0.0001444
2.282e-05
1.469e-05
0.0001092
0.0001459
0.0003825
0.0001456
0.0001631
0.0001967
0.0001429
0.02142
0.000167
0.0001055
0.004744
0.00235
5.404e-06
0.0001466
6.572e-06
5.12e-07
0.000133
0.02499
1.633e-05
0.0001579
0.0004298
0.009858
2.792e-06
6.477e-05
0.007427
1.318e-06
0.0004273
1.697e-05
1.143e-06
0.000157
0.0001535
5.104e-05
0.0001517
9.528e-06
0.001864
0.0001513
4.108e-05
0.0001482
0.0007978
4.316e-05
0.05101
0.000181
0.0007046
9.983e-10
0.00196
1.055e-08
0.0001578
0.0001376
1.09e-08
2.247e-05
0.0001571
4.705e-06
0.0001509
0.003803
0.0001491
0.009892
2.182e-08
0.005188
0.0001658
4.207e-05
2.152e-05
0.0001464
4.691e-05
0.0001531
0.0001647
7.524e-07
0.0001492
3.838e-05
2.241e-07
0.0001444
0.0001487
0.007686
0.0002043
0.0002566
0.000156
0.0001621
0.0001352
0.0001628
0.01811
0.0002285
0.0001568
0.0002623
0.0001373
0.0001537
3.396e-06
4.946e-09
0.0001396
0.00016
1.801e-08
0.02348
3.675e-06
0.01428
2.02e-05
4.525e-09
0.0001783
0.0002847
0.004913
0.0001505
2.489e-06
0.0001635
0.01418
7.743e-08
7.311e-05
0.0001488
5.825e-06
5.545e-11
5.246e-10
0.005733
0.004133
7.229e-05
0.0001561
0.0132
8.105e-05
0.01535
3.285e-06
0.0008875
0.001559
2.629e-05
7.967e-08
0.002102
0.0001432
0.0001452
5.13e-05
0.000139
0.0009688
0.0001522
0.000151
2.295e-05
0.005675
0.02637
0.0001357
4.431e-06
5.209e-07
0.002291
6.06e-06
0.003962
9.684e-10
8.283e-06
0.0001491
4.577e-05
5.058e-06
0.002118
2.945e-05
4.541e-10
0.0001282
1.552e-07
2.144e-05
1.91e-05
0.0001364
0.008065
0.01424
8.43e-07
2.828e-05
0.02034
4.193e-07
0.0001581
0.0001717
1.393e-05
0.0001531
0.02067
0.0001453
2.774e-06
1.427e-06
2.316e-05
4.122e-07
8.292e-07
0.01027
8.211e-09
0.0002779
5.889e-05
0.0001502
0.02056
0.000151
0.03357
6.58e-05
0.01455
3.048e-05
0.0002028
3.272e-05
1.03e-10
2.071e-08
0.002217
0.001586
0.000164
0.0001596
0.000146
0.0001488
5.043e-05
0.0001635
0.000145
4.301e-05
2.738e-05
8.264e-06
0.001296
9.575e-05
1.802e-05
0.00897
2.569e-05
5.97e-09
8.447e-07
0.0001561
3.281e-05
1.247e-10
0.01101
2.527e-05
0.03495
7.772e-05
0.0002262
1.41e-11
8.594e-05
7.811e-05
0.0001544
0.0001557
2.323e-05
0.001767
0.0001454
0.000147
0.005825
4.255e-07
0.02011
2.967e-05
4.45e-09
0.0001875
0.0001493
6.453e-07
0.02015
0.001887
1.055e-07
0.0001586
0.02756
0.000691
0.0002098
0.0001601
0.0001194
0.0001465
0.0001337
0.02297
6.88e-07
0.05591
1.102e-05
2.001e-07
0.0001496
5.94e-07
0.009484
3.422e-06
2.362e-05
4.04e-05
0.0001512
0.01105
0.00131
0.002313
8.342e-06
0.001844
4.459e-06
2.891e-05
0.000145
0.001849
0.03557
1.195e-06
4.306e-05
0.0006159
0.01376
0.0001534
8.448e-08
0.0001669
0.001396
0.01539
0.00559
0.02056
0.00478
0.0001634
5.443e-09
0.0001623
0.0001486
1.875e-05
0.0001395
0.01391
0.0001497
0.0001568
0.008389
0.0001439
0.000164
1.27e-05
5.405e-05
0.0001456
0.0001481
0.02139
7.241e-05
1.149e-05
0.0001953
0.002546
0.007624
1.367e-06
2.47e-06
0.05385
0.000101
0.002238
0.0001589
3.339e-05
2.051e-09
0.01393
3.497e-06
3.695e-06
0.011
1.017e-09
0.0001454
0.0001372
0.0001657
0.0001228
9.612e-11
0.0001459
0.01364
1.307e-05
2.3e-09
1.833e-05
1.982e-06
0.0001249
0.0001244
4.22e-06
0.0001781
0.008952
0.0001346
0.0001498
0.04099
0.0001429
0.000149
6.125e-07
2.032e-05
3.889e-05
0.01231
8.147e-08
0.004539
0.0001612
0.0001318
8.236e-05
1.983e-05
1.036e-06
5.481e-06
0.0002292
3.373e-07
0.0002787
0.0002685
3.277e-05
2.135e-05
0.0001742
0.0001542
0.0001081
1.582e-06
0.0001358
0.0001336
4.916e-05
0.001057
2.147e-08
0.0001648
6.073e-06
5.75e-05
0.0003718
0.0001454
0.0001685
0.0001482
0.00136
5.897e-09
0.0001852
0.0001565
4.598e-05
0.0001524
1.84e-07
4.454e-05
0.0002015
7.724e-05
8.717e-05
3.528e-05
0.01325
5.27e-05
0.0001527
0.0004062
0.001026
0.002136
7.347e-05
0.009055
1.26e-06
2.747e-05
0.0004075
0.00273
2e-06
0.002805
0.0002642
2.645e-05
0.0001572
0.000167
7.79e-05
8.422e-09
0.0001647
1.636e-05
0.000147
0.01616
0.0001484
2.277e-05
0.018
7.858e-09
5.819e-05
0.0001528
1.234e-06
7.28e-10
3.739e-07
0.001376
4.662e-05
7.212e-07
8.067e-08
0.0006207
0.01272
6.88e-05
1.166e-10
0.0002152
0.001368
0.000168
0.0001607
0.0001455
0.005182
3.953e-06
0.0001118
0.0002025
0.0211
0.0001537
4.522e-08
0.000131
0.006013
0.0001644
0.02028
2.453e-06
0.0001643
0.0001542
0.02149
0.0001503
2.119e-05
6.733e-05
3.148e-09
3.267e-05
0.0001737
0.0001429
0.003813
0.0007385
4.076e-06
9.61e-06
6.482e-05
0.02131
0.0001361
0.0001453
8.676e-06
6.551e-06
0.0001741
0.0001348
0.00198
1.018e-07
1.191e-06
9.46e-06
0.0001697
0.000159
0.0001554
4.257e-06
0.03274
0.0001534
1.002e-08
0.0001918
0.0006745
0.0001455
0.0001473
0.0001551
0.0001461
4.443e-05
5.032e-05
0.002069
0.004755
1.251e-06
7.735e-08
0.0002587
1.473e-05
0.0002013
0.02018
6.54e-09
0.001128
0.0003208
0.005695
1.507e-08
0.007365
5.97e-07
1.794e-08
0.0001541
3.825e-06
1.34e-06
0.0001184
0.005135
1.28e-05
8.769e-05
2.786e-06
0.002333
0.000944
0.000149
0.02763
0.0001478
0.000166
0.005351
0.0005675
0.0001122
0.0004761
4.789e-09
0.005544
0.0001462
2.483e-05
0.0008814
0.03383
5.611e-05
0.0007116
0.0001859
1.821e-06
1.129e-06
1.248e-08
0.0001353
1.248e-05
0.0002244
0.0003817
0.0002362
0.0001514
1.411e-08
1.137e-05
4.105e-05
0.0001653
0.000144
4.035e-05
1.99e-05
0.01326
0.000121
1.192e-08
3.626e-06
8.378e-05
0.01159
0.0006135
3.974e-06
0.0001447
2.865e-05
0.01234
0.0001511
7.56e-05
4.86e-06
0.0001451
5.095e-05
0.005177
0.0001068
1.264e-07
0.0001263
0.0002117
1.005e-10
0.001743
1.349e-05
0.000131
0.0001301
1.583e-05
0.003181
0.0001587
2.439e-06
3.297e-05
0.0001438
8.106e-08
1.142e-06
0.001453
0.0001456
0.0001462
0.0004934
0.0001988
1.449e-05
1.696e-10
2.933e-06
0.0001528
2.026e-06
1.123e-07
0.0001541
2.766e-06
7.598e-06
0.0002802
0.00016
2.546e-06
0.04366
0.01084
0.0001302
0.0001284
0.0001287
0.0001267
0.0001584
0.01637
7.734e-05
6.556e-06
9.818e-05
0.0008618
0.001439
1.489e-07
0.0001275
0.0002256
0.003978
5.326e-05
6.445e-07
2.559e-05
0.00316
4.95e-05
7.382e-06
0.002059
2.572e-05
0.0001613
3.849e-05
8.38e-10
1.815e-05
5.165e-08
0.0001527
4.867e-05
0.0001454
1.376e-08
0.0003519
7.787e-06
9.478e-05
0.0001502
6.719e-09
0.0001458
0.002827
1.24e-06
0.0001748
6.966e-05
0.0007153
0.004809
0.003402
2.812e-06
0.0001509
1.017e-05
0.0001369
0.0001732
0.0005068
0.000151
0.01025
6.727e-05
0.0001436
0.0001454
0.0001554
0.0005415
3.825e-06
0.0001691
0.00358
2.109e-05
0.0001312
2.905e-06
6.643e-06
0.02109
0.01895
0.016
0.0008933
0.0001612
6.705e-10
0.0001521
0.0001454
7.882e-08
0.0001453
0.0001448
0.0001581
0.0002768
8.927e-07
0.00552
4.549e-07
0.00429
7.587e-06
0.0001464
0.0001575
0.0007204
1.659e-05
0.01836
0.0001921
0.0001572
2.714e-07
3.444e-08
0.0001483
6.982e-09
3.682e-08
9.633e-11
0.0002054
0.02145
0.01064
0.0001546
0.0001481
0.024
0.0001136
1.328e-07
0.0001509
1.691e-06
4.557e-09
0.0001455
5.428e-06
1.787e-07
3.473e-05
0.0001458
1.28e-06
2.676e-08
4.173e-10
1.054e-09
0.0001641
0.001058
1.464e-09
0.0001562
0.0005082
0.000144
0.003914
6.205e-07
0.02168
1.338e-05
1.109e-09
0.0001581
0.005597
5.893e-05
0.0001492
0.000153
3.44e-06
2.913e-06
0.03007
9.654e-06
7.858e-05
0.0001501
0.01072
0.002017
0.0006222
0.001375
0.0001455
0.0005297
0.0004406
1.66e-05
3.47e-05
4.086e-05
3.491e-06
0.0001041
1.018e-08
8.011e-11
6.766e-12
2.723e-06
0.0001537
3.831e-06
0.0001486
7.28e-07
1.66e-06
0.0001455
2.586e-09
0.0001489
0.0001411
4.207e-08
1.94e-07
0.00461
0.0001588
0.0001533
2.912e-05
0.0001301
1.059e-09
0.0001365
0.000172
0.01098
0.002945
1.141e-08
9.604e-09
1.207e-08
0.007973
5.258e-06
1.77e-05
0.004704
0.0001515
4.24e-05
6.47e-09
0.0001392
0.001518
5.058e-05
0.002411
5.982e-05
0.0116
0.02881
6.365e-08
3.011e-05
2.716e-05
1.505e-08
0.000185
1.576e-07
0.0001522
5.09e-05
0.0002403
0.0001486
0.0001544
5.611e-05
6.718e-06
1.282e-05
1.07e-08
0.0001671
0.0001454
0.0001078
1.359e-05
1.156e-07
0.006694
0.02118
0.0001261
0.0001507
7.773e-07
0.0001266
2.932e-05
8.093e-06
0.0001539
9.35e-05
0.00927
1.318e-07
6.397e-09
7.394e-10
0.0001502
1.936e-06
0.00137
3.548e-05
0.02629
0.0138
2.701e-08
0.01213
1.507e-06
1.146e-05
2.522e-06
2.148e-05
0.0001583
9.005e-09
0.01706
4.882e-05
0.001972
0.0001664
5.106e-05
0.0001601
0.0001459
6.748e-05
0.0001558
0.0004426
9.355e-05
6.306e-05
1.344e-08
5.077e-10
0.02154
1.417e-08
0.0006384
0.0001585
0.00015
0.000154
8.098e-05
0.0001489
2.382e-05
3.589e-09
5.15e-05
4.518e-07
0.04264
0.005966
2.632e-05
0.0002296
0.009964
1.835e-06
0.02009
1.025e-07
8.429e-05
0.000137
0.00173
4.812e-05
0.0001477
0.000155
2.893e-07
0.0001463
5.172e-06
5.315e-05
1.267e-05
0.000111
1.173e-07
0.0002486
0.01565
0.0001503
2.313e-06
2.088e-05
5.213e-06
4.891e-05
0.0001432
1.04e-05
0.0001441
0.0001676
0.0001276
0.03527
7.893e-10
6.677e-05
2e-06
0.01882
1.358e-06
0.0001599
0.0004986
0.002953
4.24e-05
0.000139
0.0001186
0.0001462
1.203e-06
1.409e-06
0.0001118
0.001237
0.0001426
6.361e-06
5.658e-06
2.018e-05
7.526e-06
7.665e-06
4.376e-05
0.0001475
0.002051
0.0001256
0.0001512
2.227e-05
7.053e-05
0.0001558
0.0001629
0.0001567
0.0001408
2.91e-05
0.000137
0.0001349
0.0001466
0.0001534
0.0001516
7.724e-05
1.357e-05
0.0001458
1.459e-05
0.0001395
2.703e-05
0.0001469
0.0001277
0.0001517
2.768e-07
0.0002608
1.081e-09
0.0009145
2.179e-07
0.0001555
0.0001588
5.868e-09
0.0001501
2.796e-05
2.279e-05
1.614e-05
5.787e-05
0.0002437
0.000146
2.414e-05
0.0001942
0.0003098
0.001834
0.000425
9.136e-05
0.003594
4.296e-05
1.122e-05
0.0001437
0.003807
5.401e-05
9.978e-08
0.0001514
0.0001481
2.233e-06
1.543e-06
0.002723
0.002731
7.8e-05
5.965e-06
0.0001533
7.009e-05
0.0006347
0.02028
0.002628
0.0004983
0.0001369
0.000178
1.025e-09
0.02132
0.002948
1.702e-08
0.0001691
0.0001153
0.0001449
0.0001498
0.0001603
0.0001636
5.047e-08
0.0001208
0.000147
0.0001471
4.549e-05
6.287e-11
0.0001469
0.006667
2.054e-06
2.876e-05
0.0001313
2.663e-05
1.606e-05
0.0001542
0.000183
1.624e-06
1.553e-07
1.041e-06
0.0001459
0.0005433
0.005841
0.0001812
0.0001429
0.0001685
0.0001629
0.01352
0.0001076
4.19e-09
2.631e-07
0.05022
7.648e-06
1.15e-07
0.0163
8.825e-06
0.005988
0.0001651
0.0001622
5.463e-07
5.08e-09
0.0001443
3.106e-06
3.932e-05
0.0001469
1.987e-07
0.004626
0.0001707
0.0001552
0.001017
1.829e-06
5.89e-05
7.358e-05
0.0001452
0.0001457
0.04368
0.002827
0.0001336
0.0001306
0.0001486
1.608e-06
0.02356
0.004249
4.09e-06
3.053e-07
0.04229
0.0002478
0.0001428
5.247e-09
0.0001681
1.226e-05
3.39e-06
0.0001535
1.422e-05
0.0001198
5.396e-05
1.435e-09
0.02374
4.653e-09
0.0001384
0.0001419
0.002017
0.0001512
0.000143
1.145e-09
1.902e-05
1.292e-05
2.276e-06
0.0001148
0.0008683
0.0001372
9.664e-10
0.000156
4.131e-05
0.0001348
0.000152
0.004748
0.003864
0.000565
0.001158
0.02188
0.0001514
0.0001362
0.0005341
1.152e-05
5.048e-06
1.164e-08
0.0001606
0.01293
7.56e-05
0.0001471
0.0002484
2.323e-05
0.0002191
0.0001536
0.007168
3.119e-09
0.0001308
0.0001436
7.183e-05
3.322e-05
0.0202
4.395e-06
0.0001478
1.26e-05
0.0001766
3.739e-05
0.000148
0.0001529
1.037e-06
1.983e-05
2.047e-06
0.002186
0.0001784
0.0001364
4.98e-06
0.0001422
4.836e-06
1.038e-09
0.0001597
0.002621
0.008138
3.149e-05
4.756e-07
0.0001712
0.0001523
0.0001363
0.0004386
0.000158
0.0001447
7.436e-06
9.464e-05
0.01512
0.0001359
0.000155
0.0001541
0.000149
1.731e-05
0.0008081
0.0001454
5.102e-05
4.16e-05
0.0001772
0.0001501
0.0001467
0.0001446
0.0001579
0.001313
0.03782
2.371e-06
1.165e-09
7.805e-09
4.267e-05
9.232e-08
1.905e-07
0.0001481
1.449e-09
0.0001979
5.891e-06
0.02215
0.0001554
0.0001605
1.279e-05
1.499e-06
5.271e-07
6.28e-05
0.0001562
0.001591
1.409e-05
4.362e-05
0.000156
0.0001644
0.001394
0.0001536
1.327e-05
0.0001498
0.0009544
9.013e-05
0.000138
0.0001524
1.233e-06
5.31e-10
7.648e-08
0.0001373
6.756e-07
0.0008373
0.0001326
0.0001201
0.000146
7.355e-06
0.0002857
0.0003227
2.6e-06
2.855e-05
0.0001495
0.0001667
0.02164
2.346e-08
0.0001468
0.0001525
1.463e-08
0.0001072
0.0001442
1.955e-07
0.006311
0.0001526
0.0001523
0.02988
2.187e-05
1.399e-09
2.544e-06
0.0002361
0.01181
0.0005708
0.0001546
0.0001451
0.0001534
1.28e-05
4.119e-05
0.0001886
0.0001479
1.724e-08
1.55e-05
6.777e-05
0.003116
0.001303
7.2e-05
0.0001342
0.0001556
2.403e-05
8.719e-05
0.0001504
2.98e-05
2.654e-06
0.01982
0.0001669
0.0001749
0.01315
0.0001504
0.01872
6.574e-05
0.0001126
8.73e-05
0.0001477
4.295e-06
0.0004097
0.005199
0.0001158
0.000117
1.035e-05
0.0003745
4.441e-11
0.0135
0.0001572
0.0004875
0.0001414
0.000101
7.003e-05
1.4e-07
2.504e-07
0.0003339
5.345e-06
1.51e-06
0.0009778
0.0001585
0.0002429
3.044e-06
3.023e-08
0.0005219
0.0001514
6.088e-07
0.0001661
5.685e-07
7.787e-05
0.009724
0.01694
1.433e-05
0.0001459
0.001827
0.0001674
0.0001448
0.0002733
5.716e-07
0.003149
3.109e-09
3.339e-06
0.0002191
0.0001448
0.001806
6.804e-05
0.0001675
0.001971
0.0002696
5.751e-05
0.0002601
5.595e-06
0.0001465
2.432e-05
0.0001379
0.0001169
3.551e-05
5.423e-05
0.0001188
2.615e-06
1.811e-09
0.000142
0.0001455
5.581e-05
3.789e-05
7.541e-07
0.000147
4.595e-05
1.765e-06
0.02146
0.01655
0.0001457
8.634e-05
2.73e-07
0.0001514
0.004998
0.0001441
4.348e-05
0.0001516
0.000289
5.294e-06
0.0001905
0.0006499
9.411e-06
0.0001264
0.0001495
4.033e-05
3.518e-05
0.0001637
0.0001434
0.000148
5.616e-06
1.919e-05
6.861e-05
0.02593
0.0007019
0.05261
2.302e-05
7.382e-05
0.0001281
0.0001523
0.0001572
3.002e-10
1.796e-07
1.97e-06
0.0001426
2.623e-06
3.3e-05
5.114e-05
4.822e-05
6.622e-09
0.0001604
0.001104
3.424e-05
4.582e-05
1.92e-06
1.149e-07
0.05621
0.0002104
0.03308
0.0001498
1.396e-10
0.0001468
0.02095
3.524e-06
6.185e-05
0.01673
4.989e-05
0.0005589
5.743e-07
0.007407
0.00011
0.007333
0.0001069
4.014e-06
2.922e-10
0.007386
3.281e-09
1.297e-08
0.0001455
2.955e-09
0.0001495
9.562e-07
6.837e-07
0.0006973
0.04342
0.0008134
4.597e-05
8.518e-05
0.0001502
0.005878
0.007718
0.007423
0.01539
0.0008788
0.0001571
0.0001376
0.03954
4.8e-09
0.000673
6.871e-06
4.166e-05
2.371e-06
0.0001347
7.266e-06
0.0002555
3.344e-07
0.006572
6.991e-09
2.871e-05
9.094e-06
0.0001541
7.183e-08
0.000153
0.003028
0.001043
0.0001581
0.000162
0.002511
6.832e-05
0.004481
0.0003291
7.518e-05
2.042e-05
0.005754
7.461e-09
7.186e-05
6.861e-08
0.00015
0.02276
0.0009962
0.01415
0.0001522
5.628e-05
0.0001454
0.0001465
0.0001454
0.003597
2.753e-05
0.0005228
0.02698
0.000151
0.008002
0.0001506
7.639e-09
3.142e-07
4.987e-09
1.434e-05
0.000153
1.386e-06
9.479e-06
0.0001575
7.719e-06
0.0001464
0.003601
0.02321
0.0001946
0.04286
0.0001422
0.0001427
0.0001423
0.01655
0.0001513
1.221e-09
2.534e-05
0.0001398
0.0001459
5.523e-05
0.000151
4.899e-06
2.172e-08
0.0001565
0.0001416
0.0001359
3.852e-05
2.105e-06
1.201e-09
0.0001536
0.0001612
6.484e-05
9.127e-06
0.0001527
2.684e-05
8.26e-05
0.0001667
2.009e-06
0.0004739
1.804e-09
0.0001514
4.57e-05
5.883e-05
4.71e-06
0.0001462
0.004023
0.0001456
0.01185
0.02994
6.984e-05
0.0008416
1.004e-05
0.0001924
0.0001602
4.349e-07
8.036e-06
1.045e-05
2.543e-06
1.308e-06
0.001162
0.0001434
4.716e-05
3.037e-05
0.01359
9.802e-06
0.0001388
4.238e-09
8.655e-09
3.85e-07
6.674e-05
0.0001097
6.844e-07
3.176e-06
0.0001607