/*--------------------------------*- C++ -*----------------------------------*\
  =========                 |
  \\      /  F ield         | OpenFOAM: The Open Source CFD Toolbox
   \\    /   O peration     | Website:  https://openfoam.org
    \\  /    A nd           | Version:  8
     \\/     M anipulation  |
\*---------------------------------------------------------------------------*/
FoamFile
{
    version     2.0;
    format      ascii;
    class       volScalarField;
    location    "50";
    object      nut;
}
// * * * * * * * * * * * * * * * * * * * * * * * * * * * * * * * * * * * * * //

dimensions      [0 2 -1 0 0 0 0];

internalField   nonuniform List<scalar> 
127143
(
6.854e-23
3.875e-22
2.394e-21
2.866e-20
2.403e-19
2.988e-20
1.278e-17
1.803e-18
5.39e-19
2.85e-18
2.1e-17
1.689e-18
1.448e-20
5.833e-20
1.026e-08
5.14e-16
1.033e-19
0.004773
0.003046
1.375e-13
9.466e-05
3.902e-13
6.599e-05
1.699e-08
3.27e-13
3.01e-11
1.405e-13
1.465e-13
7.195e-12
0.004658
2.375e-09
2.575e-11
1.507e-12
1.929e-10
5.037e-05
1.523e-12
2.543e-05
0.0001855
5.013e-08
9.592e-12
0.003053
4.044e-06
4.383e-06
7.632e-19
0.00478
3.082e-10
7.96e-12
0.0003875
2.061e-08
3.366e-08
1.909e-15
0.0004481
1.828e-05
4.637e-05
0.00667
2.513e-09
0.006669
8.986e-05
0.005658
4.575e-05
3.994e-06
0.001535
4.39e-07
0.006702
5.181e-10
2.179e-05
6.392e-05
3.738e-07
3.835e-07
0.002643
9.12e-09
4.577e-13
0.002021
0.004997
0.006693
4.498e-13
0.0008097
3.213e-05
2.624e-09
0.006705
5.709e-12
1.475e-13
5.556e-09
3.78e-11
0.001351
6.278e-05
1.114e-07
1.106e-12
2.227e-05
3.209e-08
0.005969
3.904e-05
1.119e-07
9.836e-05
1.785e-06
0.0001177
4.382e-06
5.574e-10
0.0001035
5.592e-05
0.006705
2.588e-08
1.345e-09
9.001e-06
7.507e-05
9.159e-05
2.526e-07
0.002643
8.749e-06
0.00668
1.665e-08
8.006e-13
1.966e-05
7.639e-07
0.006693
2.882e-05
0.0005801
0.006693
0.0008608
7.102e-15
0.006681
6.262e-09
5.209e-07
0.0001105
7.037e-12
3.936e-12
0.0007018
0.0009966
4.863e-07
1.715e-09
4.693e-06
1.288e-06
7.443e-07
3.536e-05
2.932e-17
5.557e-06
0.0002075
0.0002681
2.341e-11
0.0001734
5.172e-05
0.0009957
0.000127
0.0005063
1.949e-05
1.325e-06
6.045e-12
0.006702
1.016e-06
3.569e-10
3.833e-06
3.202e-08
8.295e-05
2.809e-05
4.069e-07
0.001391
7.209e-05
1.051e-09
0.0004127
3.486e-10
1.04e-08
1.275e-15
0.006638
4.85e-06
8.118e-11
1.123e-09
8.648e-06
8.321e-06
8.704e-10
0.0001927
3.551e-08
0.0005098
1.688e-05
1.496e-06
0.002344
0.0001246
2.517e-06
5.103e-07
3.413e-08
0.002068
1.519e-06
0.0007178
0.0001611
0.0001327
2.111e-09
0.001615
1.287e-05
8e-07
2.641e-08
0.000835
1.086e-05
5.711e-07
0.0002134
5.999e-07
8.544e-18
0.0006893
0.006646
0.006628
1.891e-15
0.002831
0.006697
0.0001991
0.001038
3.641e-05
6.919e-19
1.793e-07
0.0001268
1.804e-06
0.003947
0.006693
0.0001267
0.0009825
0.006691
1.01e-09
8.649e-07
4.406e-16
1.312e-09
1.728e-06
6.318e-06
0.0001249
2.913e-06
0.006694
2.904e-08
1.419e-05
1.733e-10
2.127e-08
3.001e-10
0.0001657
2.884e-07
0.0003308
7.429e-05
0.0008937
0.002138
1.149e-13
7.805e-05
0.0001057
4.811e-06
1.246e-20
0.006262
3.157e-05
7.218e-07
1.56e-09
0.0003234
1.21e-09
1.285e-05
1.065e-14
9.195e-08
1.294e-13
7.166e-15
0.002658
6.142e-06
5.238e-11
1.201e-06
0.000271
1.048e-08
7.58e-06
0.001182
2.95e-09
6.43e-06
1.516e-05
0.0006924
0.0008966
2.961e-05
0.0009589
3.976e-06
1.122e-09
1.144e-07
1.174e-07
5.057e-06
3.116e-06
2.745e-10
0.002342
0.0007369
2.957e-05
6.875e-07
1.287e-05
2.14e-05
5.336e-08
0.002316
1.068e-05
0.003086
0.0001795
9.293e-06
0.006691
0.006693
8.557e-18
2.714e-06
0.006694
4.622e-08
0.002109
8.364e-05
4.523e-05
0.0001061
1.027e-05
0.0067
7.142e-06
4.032e-09
4.136e-06
0.0003206
3.69e-06
8.416e-10
3.259e-05
1.394e-05
3.628e-05
1.11e-10
1.068e-06
1.845e-06
0.006692
0.002025
1.641e-06
1.955e-07
7.867e-08
1.417e-09
0.003457
0.006692
8.588e-08
0.0002013
6.853e-10
0.0001209
0.002523
8.352e-05
5.297e-09
0.0004155
1.181e-06
7.726e-08
0.0001002
0.0001084
2.488e-05
8.218e-09
2.302e-06
0.0008749
0.006693
5.534e-05
0.006646
0.006628
3.107e-05
9.285e-06
1.702e-05
0.000875
1.508e-06
0.0001977
1.716e-06
3.086e-05
1.519e-05
1.16e-06
4.293e-08
5.079e-08
7.779e-06
1.308e-09
1.229e-07
2.005e-09
0.003296
9.01e-05
1.348e-05
0.0001346
8.247e-08
0.0002596
1.955e-06
0.006357
8.149e-09
0.001195
5.069e-07
0.002891
3.746e-08
3.955e-08
0.006697
0.003202
0.002576
4.823e-09
0.002357
2.479e-06
0.0003839
1.764e-10
3.043e-08
0.0009848
0.0001101
6.395e-09
5.536e-13
0.0001707
0.002289
0.001491
1.463e-11
2.467e-09
2.778e-05
0.0006438
7.235e-14
4.261e-05
1.487e-11
0.0006158
0.0006625
0.006703
1.335e-05
1.135e-07
1.028e-08
2.503e-08
2.477e-09
1.38e-05
4.112e-09
0.0001306
0.0006766
4.046e-11
0.006694
0.000124
0.0001885
4.183e-05
2.225e-06
0.0001046
7.737e-07
0.006705
4.84e-08
2.266e-06
9.223e-10
4.647e-05
0.0004864
7.714e-07
2.107e-06
3.252e-05
1.21e-10
9.02e-06
3.399e-08
1.069e-05
2.27e-11
3.466e-07
0.00296
0.0003034
1.254e-05
4.266e-06
3.864e-05
2.72e-09
9.56e-05
0.006677
3.628e-07
6.027e-05
0.000202
7.161e-07
0.006697
1.601e-06
9.518e-08
0.0004762
0.0067
0.006691
5.062e-08
0.0001654
7.999e-06
0.0003274
7.92e-10
0.005947
6.675e-08
0.00259
0.0009867
9.055e-05
5.637e-09
2.743e-06
2.721e-09
3.654e-05
6.604e-05
5.848e-10
4.765e-09
8.419e-05
3.36e-06
1.138e-06
2.316e-06
0.0009526
8.155e-07
2.196e-06
0.002436
0.001453
0.0001059
2.773e-08
0.006667
0.0002043
3.574e-05
9.498e-05
0.0001967
0.0001417
0.006645
6.633e-07
4.793e-05
8.952e-08
3.191e-05
6.826e-12
8.929e-08
8.299e-08
1.567e-09
5.507e-06
7.236e-07
3.778e-05
0.006691
7.979e-10
0.0008902
2.145e-07
1.432e-07
1.011e-05
1.177e-06
2.133e-17
2.848e-06
1.143e-06
0.0001031
1.326e-06
0.006688
6.021e-12
0.001465
0.0001576
0.0007666
1.221e-19
1.333e-15
1.706e-15
0.006697
9.839e-08
1.473e-07
0.006691
0.001331
2.912e-07
6.938e-06
7.289e-06
8.038e-05
5.203e-09
0.0002099
6.349e-12
0.002505
0.0007647
3.885e-14
1.746e-08
1.087e-09
5.981e-08
0.006027
4.326e-06
0.0008996
0.0009614
0.006602
3.362e-10
1.038e-10
9.767e-08
0.006638
0.0001031
0.0001156
9.868e-09
3.377e-06
2.4e-10
0.001525
0.0008873
7.199e-07
4.64e-06
0.006668
3.485e-05
6.449e-06
6.417e-09
4.169e-08
1.719e-08
7.739e-09
0.0006655
1.382e-06
6.309e-08
1.168e-05
4.842e-07
0.003443
2.607e-11
6.598e-06
5.821e-10
6.166e-07
0.0003853
0.006702
0.006701
1.651e-05
3.989e-08
1.214e-06
0.006693
0.004864
1.152e-05
3.793e-09
0.0001069
5.291e-06
4.487e-09
1.552e-11
2.51e-05
0.001167
0.006682
8.187e-08
0.0001075
4.327e-07
0.004997
4.344e-13
1.042e-06
5.519e-07
0.002287
1.106e-10
0.006694
0.0001281
0.0003208
0.0008918
0.004972
1.645e-07
0.0006991
8.996e-14
0.006644
2.736e-07
1.502e-09
0.00669
2.25e-06
0.005146
1.213e-07
7.599e-05
0.006691
9.841e-09
8.142e-09
2.054e-07
3.276e-06
0.0001357
2.691e-09
3.066e-09
1.438e-06
7.026e-08
1.689e-07
4.279e-08
5.123e-05
5.345e-06
3.036e-10
0.005584
2.347e-09
0.00669
1.183e-06
0.0008547
0.0001309
0.006677
0.005563
6.532e-05
3.733e-08
2.808e-05
0.006481
0.006676
4.359e-07
1.873e-11
1.613e-08
1.037e-09
0.001951
8.558e-06
9.453e-05
1.931e-06
1.686e-05
1.362e-07
1.973e-10
0.00648
1.813e-08
2.76e-05
7.963e-05
5.47e-06
0.006615
0.004865
8.855e-05
7.057e-11
3.87e-05
2.612e-11
0.0007931
0.003839
2.71e-06
2.3e-08
0.0001924
1.094e-09
9.357e-05
0.0007886
2.676e-08
6.444e-06
3.104e-05
2.336e-05
2.038e-18
3.321e-08
9.15e-05
6.382e-05
2.985e-06
6.754e-07
2.752e-10
7.404e-08
0.0004141
1.015e-06
3.855e-06
0.0001387
0.006678
6.39e-08
1.835e-05
4.518e-06
0.006638
0.006677
7.151e-12
0.0001031
6.689e-09
8.21e-07
1.825e-07
0.002003
2.943e-05
3.632e-10
9.96e-06
1.102e-08
0.00669
0.006668
5.544e-06
1.344e-05
9.562e-09
4.954e-06
2.187e-10
0.001887
1.073e-08
0.000124
0.002364
0.003928
9.251e-10
0.0001552
8.354e-09
2.907e-17
8.327e-07
3.633e-06
0.0001979
0.004777
4.954e-07
4.08e-08
1.562e-11
0.003777
0.0008399
1.74e-05
6.622e-10
3.067e-05
2.454e-08
0.002679
1.986e-08
3.397e-07
1.713e-06
0.0007453
5.429e-05
2.212e-22
2.105e-05
0.0001776
1.739e-07
2.897e-07
1.443e-07
0.006687
4.215e-05
0.003323
0.0001124
0.00367
2.045e-11
5.188e-07
1.024e-10
0.00352
4.862e-08
4.412e-05
1.182e-07
2.184e-07
0.003939
0.0002353
1.08e-07
1.057e-08
0.0002356
0.002511
2.931e-05
5.145e-07
0.003454
1.718e-06
4.709e-05
8.843e-07
3.032e-06
3.385e-05
8.155e-07
1.898e-11
2.197e-07
0.006608
0.0002303
0.001737
2.586e-11
1.476e-09
4.767e-05
0.001389
1.255e-08
0.006621
8.553e-06
2.883e-08
3.04e-05
3.173e-13
3.083e-05
1.24e-07
3.443e-05
0.0004466
1.82e-05
0.006697
5.233e-19
4.481e-06
4.328e-06
8.065e-09
0.0001421
7.909e-07
1.459e-06
1.598e-08
0.006681
0.003462
8.659e-06
0.003792
5.628e-07
2.223e-07
2.488e-07
5.33e-07
0.00666
0.0001121
9.208e-05
0.00669
0.006657
5.478e-06
0.001505
0.001948
1.007e-06
0.0001389
7.168e-15
4.912e-06
8.438e-06
0.006678
3.718e-05
1.539e-05
3.446e-09
2.283e-10
8.452e-06
0.003545
0.006229
0.001112
3.678e-13
0.006679
0.0001294
2.865e-10
4.154e-07
2.323e-11
0.00559
0.0005543
4.404e-07
0.006693
1.448e-09
0.006679
1.828e-07
6.733e-11
1.37e-07
4.817e-06
3.03e-12
0.006277
1.238e-08
2.004e-05
4.479e-10
8.469e-07
3.178e-10
4.051e-10
5.095e-05
5.71e-05
1.096e-05
1.05e-14
0.006692
0.0002978
3.693e-09
8.971e-09
3.367e-06
1.036e-12
0.00361
0.000205
7.528e-08
1.095e-11
1.884e-14
1.213e-07
3.066e-16
1.976e-08
6.482e-16
1.325e-06
1.311e-08
0.00349
1.704e-13
0.0008229
1.783e-07
0.004957
0.005048
0.0001164
0.0004623
1.639e-06
0.002455
7.419e-07
4.911e-05
0.0004026
4.328e-08
1.451e-07
0.006372
0.003238
2.013e-05
0.0004662
7.994e-09
9.964e-14
0.0003083
2.12e-06
1.472e-08
0.0006203
3.449e-07
0.006688
1.062e-05
9.243e-09
0.006395
1.623e-08
6.997e-06
0.001678
0.006665
0.002719
0.002213
1.456e-15
1.337e-05
9.317e-14
0.0002062
1.119e-06
2.35e-07
5.94e-10
6.656e-09
0.005546
4.674e-11
9.124e-06
0.00544
9.195e-06
1.777e-13
0.001188
4.323e-09
3.889e-06
1.61e-05
1.255e-10
4.092e-16
1.646e-08
0.0008907
0.006693
2.092e-06
7.484e-06
3.408e-06
1.694e-08
6.751e-07
9.545e-11
2.311e-05
5.608e-05
8.082e-11
0.0001665
2.057e-12
0.006688
0.0003118
5.58e-08
0.0002735
3.512e-07
0.0001067
0.006691
0.002287
1.842e-08
4.075e-05
3.155e-06
2.037e-08
2.066e-07
0.001082
2.46e-05
1.093e-07
3.047e-08
1.397e-14
4.121e-05
1.49e-09
1.28e-08
2.492e-06
0.001017
5.571e-07
9.069e-07
1.332e-08
1.535e-12
9.384e-05
0.006687
0.006682
0.0003384
0.0001939
7.297e-05
0.006694
1.637e-06
9.099e-05
6.119e-05
2.951e-07
5.923e-05
9.258e-08
2.187e-06
0.006705
6.616e-05
5.286e-05
5.641e-12
1.28e-10
4.387e-05
1.115e-05
0.000397
6.052e-09
2.074e-08
1.254e-06
0.002078
6.224e-07
1.266e-07
9.088e-06
6.91e-11
0.006501
6.29e-12
4.621e-10
0.001805
4.252e-06
9.786e-09
0.004532
9.298e-14
1.441e-14
0.006231
0.00669
6.446e-06
4.136e-05
6.551e-14
2.736e-06
1.947e-07
9.346e-09
5.627e-08
6.747e-05
9.365e-05
0.003605
2.621e-08
0.00107
2.654e-07
1.701e-05
4.973e-09
4.257e-05
0.005201
2.413e-14
1.34e-05
0.006691
1.083e-07
0.005566
0.006686
1.349e-06
7.577e-05
3.012e-14
0.006687
1.558e-09
0.006693
1.608e-07
8.999e-05
0.003462
5.45e-06
2.518e-09
8.92e-09
1.858e-08
7.352e-07
0.003678
0.0006096
0.0002725
5.101e-08
7.742e-07
9.072e-08
1.726e-12
2.553e-08
8.304e-14
2.372e-06
8.748e-09
2.386e-09
8.535e-09
2.011e-11
5.297e-06
0.003517
0.003694
3.99e-08
1.375e-05
1.596e-10
0.002861
1.467e-08
0.0003936
3.178e-07
1.69e-07
7.627e-06
6.612e-05
2.281e-09
0.001268
3.218e-07
3.496e-06
1.374e-09
7.625e-07
0.006506
1.555e-06
4.135e-08
0.006285
2.605e-07
1.5e-09
0.006675
2.65e-05
2.572e-06
0.0003181
5.27e-06
0.0005494
4.65e-05
9.984e-05
0.006664
2.738e-07
2.658e-07
0.006699
7.181e-06
0.0001578
9.392e-05
1.092e-07
3.651e-06
0.0004372
5.669e-08
2.438e-12
2.7e-09
2.108e-08
0.0004355
1.668e-13
0.002711
9.334e-08
0.006692
2.365e-05
5.46e-06
5.629e-07
1.654e-07
5.638e-08
1.314e-11
0.006698
9.418e-15
2.035e-09
3.643e-09
5.422e-07
4.769e-09
0.001127
0.003769
7.247e-11
3.479e-07
6.495e-05
5.598e-18
9.061e-05
1.723e-08
5.255e-10
5.529e-08
1.389e-07
6.107e-05
6.091e-10
2.142e-07
3.866e-06
4.531e-06
5.392e-09
1.263e-08
0.001093
8.912e-14
9.846e-05
1.245e-07
0.000119
1.544e-09
0.006645
0.00669
0.0001304
8.832e-14
0.0002226
0.001771
7.883e-14
3.963e-08
0.006692
3.208e-11
2.044e-07
1.215e-05
9.674e-13
2.411e-05
1.606e-05
1.682e-17
0.002628
9.36e-11
0.0005388
3.278e-07
1.21e-11
1.51e-08
3.541e-10
4.865e-06
1.127e-07
0.000119
0.002736
3.123e-06
1.127e-06
4.223e-06
2.571e-07
0.001742
1.948e-10
0.0006516
7.583e-05
0.001293
3.773e-06
3.351e-05
2.65e-06
9.158e-14
5.824e-05
2.295e-12
4.129e-10
5.597e-06
1.133e-05
0.006693
0.0009237
4.479e-06
3.435e-05
8.539e-10
8.345e-10
1.484e-10
0.006681
6.5e-09
4.102e-08
2.365e-05
3.038e-14
8.014e-07
0.002947
1.133e-07
0.002563
7.87e-08
6.688e-06
5.685e-12
7.311e-07
0.0008723
0.0002893
0.006697
4.741e-16
2.657e-14
5.117e-05
6.347e-05
5.194e-06
0.006492
0.006649
7.756e-07
0.0007128
0.002724
9.143e-05
0.003137
0.003111
1.459e-06
2.18e-05
0.0018
1.962e-08
2.706e-08
1.636e-14
2.965e-05
2.395e-10
1.101e-05
3.054e-07
0.006651
2.792e-09
0.0004902
3.2e-07
1.152e-14
5.916e-06
0.001505
2.861e-06
4.78e-07
6.349e-05
5.019e-15
0.001844
8.538e-06
0.00149
0.001421
9.343e-06
3.37e-08
4.286e-15
7.614e-05
1.106e-07
0.006674
1.77e-08
1.353e-08
0.006666
4.941e-09
7.453e-07
1.395e-05
5.488e-09
0.006682
2.229e-05
1.609e-16
0.004549
4.086e-08
2.013e-08
2.987e-07
3.755e-11
5.055e-05
9.527e-06
2.217e-07
4.74e-11
7.229e-06
3.109e-07
1.794e-05
1.977e-07
2.951e-10
1.555e-10
9.997e-08
5.688e-06
0.006691
1.071e-07
0.002946
3.747e-10
3.428e-07
0.001708
5.774e-06
0.006696
1.925e-05
4.862e-07
0.006584
0.001901
0.006096
5.355e-10
0.0019
1.631e-13
1.917e-06
2.383e-05
4.632e-09
2.765e-05
8.072e-08
7.755e-09
4.268e-16
3.562e-06
6.755e-07
5.008e-05
7.835e-05
0.0007652
0.006702
4.545e-05
0.001286
0.0005256
0.006699
0.00154
0.006685
6.203e-08
1.053e-05
0.006674
0.006685
1.436e-06
0.0001006
3.951e-09
7.422e-05
0.006679
6.155e-06
1.991e-05
6.429e-05
1.012e-15
1.706e-10
2.14e-13
7.217e-08
6.615e-07
1.707e-08
6.517e-08
0.0001809
8.751e-05
7.435e-12
0.0005544
5.28e-09
3.398e-09
5.714e-06
3.886e-06
0.003018
0.006686
3.898e-16
7.337e-06
3.441e-11
0.006692
1.412e-14
4.76e-08
1.149e-08
9.717e-06
0.006637
0.006636
0.0008937
0.001664
0.002153
0.001073
3.696e-07
4.969e-05
4.82e-06
0.002481
1.095e-05
1.279e-10
1.503e-06
0.000195
5.086e-05
9.154e-06
5.903e-10
6.624e-09
2.306e-07
1.243e-08
0.0002407
0.002671
1.665e-05
7.512e-06
7.733e-13
3.643e-05
0.000341
3.11e-07
0.002457
1.196e-07
7.292e-05
1.65e-10
0.003322
0.006692
0.000297
7.597e-07
7.51e-15
2.639e-11
7.119e-05
4.592e-06
2.925e-09
0.0001156
0.006617
1.768e-08
3.606e-08
1.317e-15
5.478e-05
1.372e-13
1.69e-05
0.006686
3.444e-08
5.334e-08
0.0009295
1.32e-05
0.000355
2.441e-07
4.605e-07
5.818e-07
0.0006342
8.264e-10
0.0001324
3.361e-08
1.721e-09
1.202e-09
0.003255
0.003253
6.737e-09
8.369e-06
3.932e-15
6.893e-07
5.802e-10
4.013e-10
3.673e-16
0.002513
5.801e-07
0.0003953
0.003771
0.006685
0.00058
0.006185
1.617e-14
0.006691
3.142e-11
3.958e-05
1.093e-06
4.476e-07
1.57e-09
0.002604
1.295e-11
8.837e-05
1.776e-07
0.0001403
3.826e-12
0.006685
8.519e-07
2.75e-08
0.0002096
2.703e-09
5.726e-08
7.026e-05
1.894e-08
5.113e-09
0.0001779
0.006661
1.795e-10
0.002662
0.006654
5.337e-05
1.053e-09
0.006661
3.14e-11
0.006694
5.413e-05
3.307e-06
0.0004135
5.556e-07
0.006658
0.0002286
1.083e-08
6.41e-05
3.297e-05
2.667e-06
3.612e-05
0.006692
0.00668
8.377e-06
3.925e-15
1.156e-06
2.198e-07
0.0008737
2.473e-12
7.087e-05
4.773e-05
0.002976
1.823e-05
8.398e-07
2.365e-09
0.0006509
4.343e-08
0.001078
9.28e-06
0.006703
3.945e-06
1.05e-07
0.0002732
7.521e-07
8.806e-10
3.142e-07
0.006677
2.678e-05
6.862e-11
1.068e-07
1.614e-14
2.829e-10
0.002081
0.0003286
1.209e-05
9.477e-12
2.394e-05
2.497e-08
1.022e-10
0.00285
5.916e-05
0.006688
1.87e-07
4.988e-08
1.317e-06
0.006693
4.516e-07
0.006692
9.574e-05
9.021e-07
0.006689
0.002492
5.643e-05
1.051e-06
0.0003164
0.002162
1.262e-08
0.006696
1.009e-08
6.47e-11
1.129e-05
0.002979
7.017e-08
0.0009512
3e-06
0.0001025
5.807e-10
3.237e-07
7.997e-05
1.297e-09
6.084e-06
1.156e-07
9.178e-11
0.0001728
4.266e-05
2.248e-07
0.0002119
3.08e-08
6.528e-05
1.015e-05
3.051e-07
0.000324
0.002143
6.81e-09
0.002185
1.446e-06
4.255e-06
1.72e-14
1.899e-05
5.885e-13
6.313e-05
0.006663
6.055e-13
1.094e-07
9.863e-05
1.041e-08
0.0004313
7.363e-05
0.006705
0.0009869
1.975e-12
0.0003765
4.661e-06
3.371e-07
1.023e-07
0.006695
4.148e-07
7.616e-06
7.029e-06
4.023e-10
0.0004524
2.66e-07
6.586e-11
0.006688
0.0002422
5.435e-05
0.002788
2.833e-06
1.819e-05
3.171e-05
1.597e-06
8.275e-05
0.0007626
0.003232
5.19e-05
3.421e-06
0.006509
2.603e-05
2.212e-09
8.363e-14
0.006693
3.284e-07
1.066e-12
0.001934
6.701e-09
0.001353
1.023e-07
7.86e-14
0.003071
0.002553
2.269e-05
0.0009928
1.969e-09
3.695e-06
0.0004812
1.158e-11
3.317e-07
0.0004661
2.803e-08
6.244e-17
1.576e-16
3.217e-05
1.634e-05
3.329e-07
6.862e-05
0.0006757
2.996e-06
0.0004424
2.021e-09
1.298e-06
1.977e-06
5.518e-08
2.858e-12
6.982e-05
2.839e-05
0.006692
2.685e-08
2.779e-05
1.922e-05
1.465e-05
7.766e-05
1.048e-07
2.988e-05
0.003146
0.006667
5.033e-09
2.918e-10
1.84e-05
1.436e-08
0.000232
1.546e-14
1.873e-08
0.000188
1.624e-07
2.187e-10
8.311e-05
1.821e-07
4.414e-15
0.006609
1.89e-11
8.831e-09
9.193e-08
0.004952
0.0002795
0.00111
6.307e-10
7.711e-08
0.001235
2.103e-10
0.00474
5.667e-06
5.308e-08
0.0001345
0.001555
0.005991
4.436e-09
2.137e-10
1.24e-07
1.6e-10
2.233e-11
0.0003092
3.812e-13
0.00258
2.626e-08
6.324e-06
0.002108
0.0001201
0.003434
1.078e-06
0.000621
1.925e-07
0.003116
1.927e-07
4.388e-16
3.299e-13
1.975e-05
2.446e-05
3.213e-05
1.245e-05
0.001945
0.0002046
6.421e-07
7.325e-05
0.006698
3.624e-07
1.646e-07
2.503e-08
3.547e-06
2.705e-06
5.141e-08
0.0002079
5.289e-09
8.93e-14
1.164e-11
0.0001093
2.121e-07
6.802e-16
0.001032
3.645e-09
0.003297
2.289e-06
3.761e-06
6.064e-18
3.98e-06
2.504e-06
0.003554
0.0002131
1.991e-08
1.161e-05
0.006693
0.006698
0.0004291
2.124e-10
0.001165
1.775e-07
1.155e-13
1.69e-06
0.00135
4.052e-10
0.001984
8.956e-06
2.114e-11
8.002e-05
0.003708
2.029e-05
1.863e-06
7.248e-05
1.073e-06
0.006696
7.009e-08
0.002579
4.734e-10
0.003165
3.741e-08
2.495e-11
1.731e-05
3.599e-10
0.0001717
2.128e-09
1.321e-07
5.906e-09
1.9e-05
0.000871
1.716e-05
6.261e-05
1.031e-08
7.611e-06
3.343e-10
2.952e-08
0.0067
5.827e-06
0.003505
1.059e-09
3.571e-07
0.002307
0.0008848
8.599e-05
1.27e-11
0.003444
6.743e-06
0.0004468
4.771e-05
0.001722
0.0002867
0.0001401
8.47e-14
0.0001053
0.0003466
9.044e-09
0.006671
0.0006267
6.769e-05
5.805e-05
0.0007956
0.006687
8.762e-05
4.519e-08
1.148e-08
0.006692
0.001037
0.001924
1.682e-06
3.793e-08
0.001212
4.063e-05
8.389e-05
7.829e-10
3.437e-09
0.001833
7.529e-07
1.792e-05
0.0001069
2.214e-07
3.095e-14
0.001532
7.797e-10
6.42e-09
0.001137
1.784e-14
0.006692
0.006661
1.281e-05
1.668e-05
2.601e-16
0.006692
0.00119
7.877e-09
6.854e-15
2.477e-08
1.976e-09
0.006304
0.006371
8.631e-09
1.431e-06
9.181e-05
6.182e-07
5.526e-05
0.0009639
2.816e-05
0.006705
3.908e-10
7.552e-08
3.014e-07
0.0002056
1.378e-11
0.0005161
1.776e-05
0.006665
2.907e-06
5.752e-08
7.139e-10
6.883e-09
2.272e-06
1.96e-11
1.935e-07
5.32e-06
2.153e-07
4.589e-08
1.463e-06
0.0001106
6.763e-07
1.322e-10
0.004861
0.005041
8.175e-08
3.589e-06
1.554e-12
9.149e-06
4.498e-09
3.679e-07
0.002643
0.006692
6.967e-06
0.006702
3.936e-05
1.525e-13
2.21e-06
9.206e-05
3.189e-07
0.0001265
7.546e-12
6.224e-08
0.003068
2.314e-06
2.864e-06
2.498e-07
0.0003605
2.7e-07
1.14e-06
6.132e-06
2.554e-05
3.27e-05
1.893e-06
0.0006962
4.261e-10
1.38e-07
5.822e-06
7.5e-06
9.669e-11
1.273e-05
2.077e-07
1.96e-08
9.902e-07
8.027e-06
1.51e-06
4.008e-13
9.521e-05
8.628e-08
0.001562
0.0009353
0.006703
1.221e-07
0.002144
3.675e-13
1.868e-07
4.121e-05
4.027e-10
3.388e-15
1.505e-10
4.097e-05
3.941e-07
4.617e-10
1.513e-11
0.00234
0.0003188
1.116e-06
8.478e-16
1.485e-06
2.145e-05
7.108e-05
7.19e-05
0.006693
0.0002845
2.316e-10
7.102e-06
4.829e-08
0.001719
9.812e-05
1.096e-11
0.006645
0.000123
8.866e-05
0.001082
8.889e-10
7.301e-05
1.851e-05
0.002526
5.474e-05
4.588e-08
1.277e-06
4.432e-14
1.254e-08
1.097e-06
0.006676
5.505e-05
6.135e-06
3.472e-10
7.425e-09
9.162e-07
0.002698
1.877e-06
0.006183
2.087e-08
4.635e-09
7.894e-06
1.602e-06
6.355e-05
1.938e-11
1.127e-09
1.301e-08
1.663e-06
5.841e-05
1.476e-06
1.55e-10
0.003534
0.0001115
1.084e-13
0.002832
4.366e-05
0.005014
0.006699
1.343e-06
0.002923
2.417e-08
3.471e-07
6.431e-05
0.0002749
1.221e-09
1.696e-11
1.632e-06
7.793e-09
1.385e-06
0.001191
1.102e-14
2.977e-05
2.817e-06
0.002529
6.508e-14
0.0006575
3.189e-11
7.859e-13
0.003554
2.249e-09
1.321e-09
9.2e-06
0.0003699
1.043e-09
1.199e-07
9.539e-10
9.062e-05
2.218e-05
0.0001933
0.003283
0.0067
4.348e-05
0.0003987
4.777e-07
1.45e-06
6.928e-06
1.263e-13
0.000373
0.005131
5.949e-08
1.703e-05
0.001368
5.131e-07
1.431e-05
8.563e-07
2.079e-09
3.727e-10
7.743e-13
2.873e-07
4.592e-08
1.168e-07
3.627e-06
5.878e-07
2.16e-05
4.872e-14
3.153e-08
3.304e-07
8.868e-06
0.006676
1.468e-07
4.133e-08
0.0006761
9.658e-06
6.85e-13
2.586e-09
2.581e-07
0.0001451
1.127e-05
9.225e-10
0.00669
1.766e-09
0.001313
0.0001305
8.628e-07
5.649e-09
0.0067
1.874e-07
0.000374
2.385e-06
5.563e-12
3.444e-06
2.41e-06
4.323e-16
3.658e-05
5.506e-08
0.00666
0.006637
6.682e-08
3.051e-05
1.414e-05
3.599e-09
2.198e-07
0.006685
1.354e-11
7.813e-10
4.895e-05
0.006699
0.004266
1.402e-05
3.383e-06
5.872e-08
2.16e-16
2.923e-09
0.005304
2.464e-09
1.567e-12
8.567e-05
3.64e-09
1.949e-08
0.002678
6.087e-05
8.141e-10
0.001212
0.0001826
0.006631
0.006586
0.006612
0.006271
0.0001371
0.0004766
1.492e-06
5.885e-09
5.001e-06
1.749e-06
4.476e-05
7.496e-11
0.006133
2.188e-06
5.509e-05
7.303e-09
4.017e-10
2.826e-09
6.948e-06
4.464e-07
2.052e-08
8.176e-05
1.454e-07
0.0001911
2.444e-07
1.905e-15
5.888e-08
7.556e-12
3.994e-06
1.363e-07
0.006692
5.704e-14
3.538e-06
1.686e-08
5.644e-06
0.0001313
1.019e-13
0.006693
2.7e-05
1.1e-09
0.004049
5.199e-07
5.359e-06
0.0003226
1.568e-05
1.962e-10
8.245e-05
8.258e-09
0.006625
8.034e-06
4.191e-06
3.433e-07
0.0005458
3.685e-07
0.00668
0.00525
6.256e-05
3.376e-07
2.248e-09
0.0001073
0.0002018
1.372e-07
1.318e-05
4.315e-10
1.716e-08
0.001511
0.001921
0.000524
1.086e-05
0.0001037
6.052e-15
3.57e-06
0.00669
5.124e-12
0.006693
0.006684
8.151e-05
0.00258
7.368e-11
0.0003251
2.092e-10
0.0001174
1.815e-08
0.006695
0.0001
1.007e-06
7.096e-08
0.00134
0.003467
6.083e-05
5.236e-12
4.856e-12
0.006702
5.235e-13
4.18e-12
2.59e-16
0.003009
0.001785
0.0007178
9.198e-05
0.0006565
0.002047
4.688e-07
2.813e-12
9.609e-06
2.008e-09
1.789e-15
0.006692
1.153e-08
5.689e-11
2.382e-07
0.006693
1.198e-09
2.991e-13
2.839e-15
1.341e-14
9.584e-05
7.687e-06
1.841e-14
0.0002936
3.943e-06
0.006687
0.0002337
4.91e-10
0.002631
2.243e-08
1.457e-14
9.668e-05
2.229e-05
2.997e-07
0.006706
0.005275
5.494e-09
1.793e-09
0.002961
6.084e-10
6.783e-07
3.869e-05
0.0008668
7.924e-05
1.028e-06
1.616e-05
0.006692
1.146e-05
1.208e-05
6.962e-08
5.321e-08
1.098e-07
5.938e-09
1.766e-07
1.014e-13
6.962e-16
4.744e-18
4.136e-09
0.0001577
2.138e-09
0.0003423
5.264e-10
6.288e-10
0.006692
3.489e-15
0.006705
4.583e-07
2.352e-12
4.631e-11
3.502e-05
6.403e-07
1.872e-07
3.925e-08
0.006629
1.618e-15
6.893e-07
0.002971
0.0009466
1.422e-05
9.99e-14
4.814e-13
5.258e-14
0.0007406
8.466e-09
2.767e-09
0.0003051
2.537e-05
3.115e-07
4.969e-13
0.006667
2.014e-05
4.578e-07
5.867e-06
6.765e-07
0.0002207
0.002569
1.037e-11
1.889e-07
1.24e-07
8.25e-13
0.002723
3.982e-11
4.02e-05
5.528e-07
6.472e-07
0.006387
0.0001169
7.011e-07
6.972e-09
3.411e-08
1.11e-13
0.002991
0.004374
7.972e-06
5.046e-08
2.438e-11
0.0001564
0.002679
0.00643
0.0003013
5.083e-10
0.006348
5.222e-08
1.551e-08
8.948e-05
5.254e-07
0.0001261
4.829e-12
6.231e-14
1.225e-14
8.553e-05
2.478e-09
1.001e-05
1.999e-07
0.001975
0.001523
1.137e-12
0.0007732
8.49e-10
4.001e-08
2.058e-10
1.009e-07
2.581e-05
1.832e-13
0.0005734
4.435e-07
7.743e-05
0.003244
4.956e-07
0.0001243
0.002265
1.228e-06
2.849e-07
5.307e-06
4.427e-07
7.379e-07
7.148e-14
1.722e-15
0.002073
6.502e-15
0.002303
8.743e-05
0.0001136
0.0001861
8.99e-07
0.006704
3.047e-08
4.164e-14
7.281e-08
6.045e-11
0.0009316
0.0001405
8.151e-08
2.171e-06
0.0007477
2.213e-09
0.001193
1.18e-11
4.233e-07
0.005309
7.773e-06
4.241e-07
0.0067
0.0004521
1.103e-10
0.006694
2.288e-08
2.128e-07
4.496e-08
4.734e-06
2.837e-11
0.00259
0.000477
5.246e-05
2.286e-09
9.974e-10
4.336e-09
4.885e-07
0.006684
1.509e-08
0.00669
7.384e-05
5.566e-07
0.0008198
1.378e-14
2.983e-07
2.595e-09
0.001985
3.591e-10
2.365e-05
0.002437
0.0001236
7.447e-08
0.00667
7.547e-06
0.006694
9.147e-10
5.412e-10
3.947e-07
1.198e-05
0.00661
6.554e-09
1.359e-08
1.862e-07
1.294e-10
3.116e-08
1.149e-08
0.0006279
6.42e-05
1.102e-05
1.751e-05
6.116e-08
1.444e-06
0.0001108
1.773e-05
9.913e-05
1.241e-06
2.427e-07
0.006623
0.006664
0.002097
0.0003262
5.372e-06
1.389e-08
1.798e-08
0.002537
6.068e-08
2.222e-06
1.596e-07
0.006698
7.045e-07
5.052e-05
1.057e-10
0.002808
2.49e-15
6.484e-06
7.102e-11
0.003595
0.0001174
9.599e-14
0.000309
1.744e-07
9.235e-08
4.145e-08
1.553e-07
2.395e-06
0.006693
9.266e-08
2.458e-07
3.638e-06
1.53e-05
1.11e-05
4.711e-06
9.709e-05
3.231e-07
9.217e-09
0.006685
0.0002237
6.39e-07
1.379e-11
7.019e-06
0.006701
5.234e-09
7.042e-10
0.0001178
0.0001288
2.304e-06
5.873e-09
0.0002036
1.248e-06
5.587e-07
0.001859
7.042e-06
5.491e-06
0.005331
5.289e-06
1.62e-14
0.0002917
8.832e-06
2.339e-12
1.389e-05
4.532e-06
0.00669
0.0003045
8.77e-05
0.003572
8.613e-13
7.1e-07
0.006697
0.001106
3.864e-07
2.069e-16
0.006697
0.0002364
9.529e-11
1.661e-07
6.602e-06
1.295e-07
6.019e-09
1.449e-06
2.83e-06
1.886e-09
1.359e-12
3.281e-10
0.002162
7.734e-06
0.0001286
1.339e-06
0.006683
6.033e-05
6.455e-07
0.0004259
1.888e-07
5.593e-14
3.629e-11
0.002178
7.748e-09
9.606e-13
0.001714
8.174e-09
0.0002298
3.426e-05
7.071e-05
2.229e-10
1.221e-13
0.006688
1.007e-08
2.458e-07
0.006697
2.644e-11
0.0002718
1.102e-05
0.0001369
1.653e-05
2.201e-09
1.482e-07
5.974e-07
0.006705
0.003155
0.002429
8.229e-06
0.006679
5.425e-06
0.0003784
5.788e-10
0.002223
0.0002614
7.478e-09
1.295e-10
0.001951
2.91e-06
0.006675
7.164e-14
9.956e-06
2.721e-09
6.031e-09
0.0001034
1.972e-08
2.682e-06
2.012e-07
2.498e-14
0.002997
8.668e-14
0.006671
0.006684
5.453e-05
5.713e-05
0.006683
8.154e-15
9.081e-08
2.692e-08
3.767e-10
1.178e-06
1.865e-05
0.004916
7.097e-15
0.000563
2.916e-07
0.006664
2.519e-05
3.795e-05
6.751e-05
9.176e-06
1.892e-05
0.002463
1.032e-07
0.006656
9.017e-06
1.727e-09
7.432e-10
1.268e-12
9.299e-05
0.0002213
2.156e-06
0.006699
1.662e-07
5.425e-08
0.0002703
0.0002283
4.38e-05
5.276e-14
0.005977
0.00668
1.622e-06
7.929e-09
0.001854
1.729e-09
0.006701
1.393e-09
1.179e-06
2.361e-07
0.006701
6.981e-05
9.119e-10
5.883e-08
6.276e-10
8.537e-05
2.462e-06
0.006677
5.908e-09
0.004671
4.185e-09
1.083e-14
0.001086
1.06e-05
0.0007457
2.221e-09
1.271e-11
9.147e-08
8.788e-05
0.006656
7.641e-06
8.389e-05
0.006689
1.586e-08
3.939e-07
0.001559
0.006688
0.0001152
0.0001072
0.000181
2.345e-08
9.311e-06
0.006693
6.068e-08
2.825e-07
7.968e-08
0.0005509
0.006696
0.00669
0.0003959
9.811e-06
0.001385
3.345e-09
1.917e-14
2.17e-13
3.16e-07
7.881e-13
3.755e-11
0.002713
2.799e-14
2.48e-06
1.145e-09
0.002481
6.764e-05
3.769e-05
1.052e-09
1.251e-09
1.528e-10
1.023e-07
0.0002826
4.84e-05
2.715e-08
3.569e-07
8.87e-06
9.21e-05
3.556e-06
5.583e-05
2.977e-08
0.004175
2.326e-05
2.117e-06
5.992e-06
1.149e-05
1.066e-09
4.712e-15
9.42e-12
0.006661
1.148e-11
1.866e-05
0.006653
4.77e-07
0.006694
2.736e-09
3.095e-06
0.00275
5.434e-09
5.316e-08
0.006707
3.045e-05
0.002618
1.511e-12
0.0009284
1.603e-05
9.224e-13
8.494e-06
0.006687
5.159e-11
0.0001504
0.0004309
1.696e-05
0.001908
1.179e-07
1.968e-14
3.778e-09
2.585e-06
0.001147
3.411e-07
5.025e-06
0.006688
0.0002073
2.01e-08
3.358e-07
1.664e-06
0.006701
1.061e-13
6.808e-08
9.365e-07
9.132e-06
2.834e-05
8.097e-07
0.006655
0.000156
3.253e-08
4.072e-07
4.688e-05
1.886e-07
3.291e-09
0.002135
8.239e-06
8.268e-06
0.001323
5.321e-05
0.002225
9.467e-07
1.438e-06
2.106e-06
0.0067
2.155e-09
0.002515
0.0001048
5.575e-06
1.363e-05
1.498e-09
4.372e-06
1.075e-16
0.0009058
3.552e-05
0.001937
0.006677
5.959e-06
1.412e-06
2.981e-11
1.332e-10
1.5e-06
1.094e-08
3.942e-10
2.189e-05
2.313e-05
2.874e-06
4.439e-09
2.919e-12
1.388e-05
0.0001328
3.177e-10
4.655e-05
3.343e-10
2.513e-06
0.0009845
0.0005289
6.008e-08
0.006693
5.103e-06
6.929e-05
0.006689
0.0001189
2.993e-10
0.002449
1.105e-15
4.643e-09
1.645e-07
0.006689
3.323e-05
2.985e-07
0.003443
7.702e-05
6.411e-06
1.275e-08
4.91e-07
1.319e-09
0.006695
1.892e-07
0.006681
1.371e-05
1.033e-07
7.578e-08
6.056e-06
3.311e-09
8.623e-16
0.006611
0.006692
6.215e-07
2.024e-07
4.909e-10
3.734e-05
3.185e-07
2.008e-09
0.0006714
0.001128
0.002771
1.884e-07
9.463e-11
3.203e-05
0.000144
0.006686
2.52e-07
6.133e-05
3.982e-06
1.184e-08
1.466e-06
0.002068
3.25e-09
1.065e-06
0.0004168
5.653e-08
2.187e-07
0.0001385
0.006685
0.006556
1.149e-08
4.156e-09
1.389e-06
0.003227
7.353e-06
0.003115
1.234e-07
1.442e-06
0.006603
8.664e-06
3.258e-05
2.616e-15
4.853e-11
8.9e-10
0.00668
3.971e-09
2.196e-07
1.513e-08
2.191e-08
2.664e-13
1.689e-05
3.574e-05
2.297e-07
4.039e-07
2.4e-09
2.154e-11
0.002402
0.002887
0.003349
8.981e-05
6.618e-16
0.0008335
0.001498
6.171e-09
9.478e-07
0.001136
7.395e-08
9.319e-06
3.709e-11
0.000573
1.026e-07
0.0001289
8.682e-06
8.539e-09
2.63e-15
0.0002197
5.277e-14
3.842e-13
0.006691
4.293e-14
5.9e-07
5.417e-10
1.996e-10
1.428e-05
0.0009645
2.115e-06
3.415e-07
2.202e-06
4.9e-05
0.0004128
0.0004385
6.033e-05
0.0004576
1.047e-05
1.602e-05
2.806e-05
0.001187
6.75e-14
1.287e-05
5.98e-10
3.401e-07
3.471e-09
0.006648
8.137e-09
2.709e-06
6.15e-11
0.0005546
3.024e-13
7.505e-08
2.678e-08
8.838e-05
1.611e-11
8.028e-05
0.0001527
2.616e-05
0.0001769
8.324e-05
9.725e-05
1.311e-06
2.124e-05
7.922e-07
2.255e-06
1.012e-07
0.0001234
3.283e-13
1.504e-06
1.803e-13
3.971e-05
0.0004552
3.543e-06
0.00157
0.000147
8.162e-08
0.006692
0.003201
0.006691
5.544e-05
1.703e-07
3.864e-07
0.001803
8.202e-06
0.0001555
5.646e-05
2.028e-14
9.789e-11
7.353e-14
5.714e-08
0.0001078
1.466e-09
1.373e-09
0.0001255
3.027e-09
0.006695
6.846e-05
0.002699
1.969e-07
0.00107
0.00668
0.006677
9.923e-07
0.00182
0.0001459
1.68e-14
1.434e-07
0.006673
0.006692
5.261e-07
0.0002578
6.53e-09
1.72e-12
0.00499
8.546e-06
1.572e-07
6.675e-08
4.438e-09
1.579e-14
4.341e-06
9.259e-05
7.892e-07
3e-08
3.308e-05
6.723e-08
1.054e-06
1.416e-05
2.437e-09
3.414e-06
8.177e-16
0.005654
3.187e-07
5.042e-09
2.324e-09
0.006695
9.764e-05
0.006692
0.0009103
0.0004761
7.023e-07