/*--------------------------------*- C++ -*----------------------------------*\
  =========                 |
  \\      /  F ield         | OpenFOAM: The Open Source CFD Toolbox
   \\    /   O peration     | Website:  https://openfoam.org
    \\  /    A nd           | Version:  8
     \\/     M anipulation  |
\*---------------------------------------------------------------------------*/
FoamFile
{
    version     2.0;
    format      ascii;
    class       volScalarField;
    location    "50";
    object      omega;
}
// * * * * * * * * * * * * * * * * * * * * * * * * * * * * * * * * * * * * * //

dimensions      [0 0 -1 0 0 0 0];

internalField   nonuniform List<scalar> 
127143
(
1.528e+08
2.873e+08
3.278e+08
1.398e+08
1.173e+07
1.415e+08
4.635e+06
8.099e+06
1.294e+07
1.888e+06
6.817e+06
1.065e+07
3.857e+08
1.183e+08
2370
3.152e+05
3.958e+07
13.01
8.698
1.256e+05
23.85
2.853e+05
0.08426
375.2
3.073e+05
4452
2.31e+04
2.281e+04
1.553e+04
13.44
904.1
5021
2.524e+04
3458
0.04146
2.448e+04
102.7
77.82
254.5
8008
8.751
0.419
0.3001
5.491e+07
12.62
2629
1.437e+04
24.25
385.2
302.9
1.982e+05
0.02518
34.25
0.1472
0.02092
1128
0.02091
0.6526
0.02209
0.146
0.2946
9.242
105.5
0.02211
1167
0.4533
0.04309
119.3
117.7
0.08316
500.5
1.555e+04
13.07
0.02208
0.02179
1.579e+04
0.02266
58.25
1071
0.02222
1.569e+04
1.118e+05
975.1
4514
15.36
45.75
190.5
1.616e+04
0.3674
1299
0.0221
11.89
715.1
23.49
113.1
0.3921
0.3828
1459
26.84
0.04267
0.02221
353.6
5981
12.48
42.26
28.38
138.1
0.08349
2.301
0.02132
1922
2.001e+04
45.15
10.09
0.02174
5.258
0.02287
0.02179
0.02258
1.152e+06
0.02134
958.2
135
0.1731
1.494e+04
9090
11.47
0.02315
83.16
1360
92.1
127.9
68.35
56.13
4.474e+06
85.94
0.04897
16.15
1.303e+04
0.04183
0.1209
0.02223
26.58
16.18
34.3
117.1
6.708e+04
0.02213
139.8
9304
22.66
348.8
97.68
0.06741
287.2
15.01
0.6516
1814
23.44
1739
507.7
3.737e+05
0.02212
91.02
3848
875.9
141.3
0.5092
2423
0.02569
3280
16.01
8.462
62.67
0.272
89.06
70.88
82.21
295
0.03232
62.27
0.03374
72.87
85.56
1276
9.067
0.0788
9.641
320.1
0.03132
42.49
112.3
0.04513
256.2
8.206e+06
11.02
0.01939
0.01934
8.832e+05
0.02177
0.02169
0.02582
3.479
87.75
4.437e+07
159.4
0.04838
43.77
13.61
0.02174
0.591
19.84
0.02164
2336
174.1
9.14e+05
1.032e+04
47.25
68.02
0.04863
43.48
0.02184
361
39.59
2280
3610
2404
84.72
1066
16.34
26.3
0.03351
12.57
7.872e+05
25.81
0.08768
90.95
1.793e+07
0.02168
32.34
102.6
626.4
41.41
1696
122.8
9.128e+05
230.9
2.235e+04
6.814e+05
0.1007
4.296
3437
64.14
16.43
593.8
2.628
0.02312
1858
20.81
0.05061
11.22
0.02672
7.65
0.02217
106.1
744.1
453.1
596.8
0.604
39.16
2082
0.2689
17.44
33.18
72.85
39.96
43.76
260.4
0.5144
14.4
0.07247
0.818
12.18
0.02175
0.02173
7.561e+06
103.2
0.02174
267.5
0.03382
97.6
0.2201
0.08724
13.06
0.02166
8.173
690.5
466.7
41.54
34.11
1174
0.4172
0.2805
4.277
2735
126.9
43.03
0.02164
12.7
42.73
150.4
3416
1258
0.05689
0.02172
659.7
54.86
1265
0.2819
2.297
0.07902
634.8
0.02773
64.66
689.6
62.56
0.03068
150.8
575.9
38.27
12.09
0.02173
0.04109
0.01941
0.01935
0.06597
2.259
8.41
12.13
124.4
0.04125
47.32
34.4
37.37
11.2
272.8
437.9
64.24
1020
122
858.6
8.166
103.9
39.02
0.02746
356.8
16.67
82.87
0.02336
579.8
13.38
93.32
19.04
299.7
286
0.02192
0.02176
1.427
1116
0.5115
0.982
0.02787
2154
325.8
0.02972
0.06352
543.7
6.186e+05
23.18
0.5417
27.79
5622
789.5
0.4162
0.02279
4.988e+04
0.03481
6719
11.44
37.1
0.02179
0.183
1764
628.9
330.6
856.8
0.1866
727.8
0.02739
0.02635
4218
0.02184
21.78
65.32
0.03567
34.31
35.94
67.23
0.02222
259
59.75
1193
0.1216
20.12
107.6
106
38.33
2847
108.5
516.5
129.9
1.886e+04
241.1
0.07614
16.99
0.05711
0.262
0.08031
509
0.05638
0.02115
239.5
130.2
10.04
161
0.02192
45.74
352.5
0.02487
0.02165
0.02172
259.5
0.04973
3.545
0.02368
1277
0.02171
677.3
1.523
19.75
24.63
582.6
29.62
1385
0.03532
74.11
1403
397.8
57.88
59.35
59.12
63.47
17.4
2.542
61.01
0.2025
0.02193
22.87
556.1
0.02078
19.29
4.519
0.1736
59.21
0.0429
0.02028
220.3
3.316
1325
55.28
1.852e+04
601
307.8
1237
29.3
158.5
72.12
0.02163
1275
0.02224
418.5
173.3
37.83
126.5
1.384e+07
113.9
2.275
0.108
4.194
0.02166
1.93e+04
0.02195
65.03
10.66
2.017e+07
1.01e+06
3.276e+06
0.02194
335.5
309.3
0.02172
11.64
184.5
100
15.48
25.84
604.7
19.01
1.25e+04
0.1712
23.48
6.654e+05
673.7
1070
2673
0.02197
20.81
2.31
18.78
0.02207
1776
9689
1684
0.01964
23.11
0.09354
6351
45.09
4448
15.96
0.02234
498.1
31.68
0.02081
0.4189
87.41
571.4
288
672
1546
11.15
84.49
388.2
96.61
214.2
0.02187
5364
73.59
1398
81.91
34
0.02212
0.02207
0.04849
479.9
8.259
0.02172
0.02928
12.98
1315
37.25
30.34
2712
1.209e+04
6.289
0.02231
0.02134
1622
24.49
116.9
0.03157
1.481e+04
62.28
181.2
0.5331
2591
0.02172
32.68
42.8
29.19
0.0272
506.6
11.2
8.1e+04
0.02026
131.2
9914
0.02171
34.07
0.02173
191.1
57.49
0.02175
796.7
495.3
1847
85.33
31.52
776.8
731.7
54.76
225.5
572.1
293.4
134.3
59.36
1768
0.02668
964.7
0.02173
7.015
0.02338
27.65
0.02116
0.02174
1.071
499.8
38.65
0.02135
0.02115
903.9
7641
672.2
1146
10.87
3.277
24.27
67.17
36.18
357.2
1439
0.02137
245.3
32.67
0.8768
27.44
0.02222
0.02923
71.82
8399
71.76
4.298e+04
0.02334
0.03826
127.1
277.1
0.02559
1094
0.1209
0.0823
688.7
20.28
31.48
0.09046
3.463e+07
3029
55.4
75.07
99.77
147.1
1799
361.4
0.02429
69.48
621
20.89
0.02121
243.8
0.2991
0.1742
0.01963
0.02119
4.442e+04
0.1087
610.6
112.6
340.3
12.73
0.6427
1722
0.07875
611.1
0.02162
0.02089
6.495
0.05887
852
0.1719
3703
10.36
826
0.269
19.76
0.03675
1313
0.04314
621.3
4.85e+06
71.28
121.7
21.64
0.02868
99.26
281.4
3.515e+04
10.26
14.48
36
7402
39.4
781.1
8.065
466.3
116.2
41.96
11.22
0.268
7.471e+07
0.2974
0.02549
185
207.6
171.1
0.02154
173.8
8.244
36.56
0.04106
4.6e+04
205.1
2667
0.04613
428.6
131.3
324.8
134.5
0.03861
23.93
2516
814.5
17.29
0.02179
35.03
312.5
0.02179
45.99
1.583
132.5
111.7
0.3526
72.3
5370
356.1
0.01934
24.26
9.402
4910
996
0.1658
11.35
1279
0.01937
92.22
676
49.69
5.467e+05
52.41
1533
35.95
34.55
8.451
0.02193
5.587e+07
87.79
76.47
3683
41.31
390.5
177.5
402.4
0.02132
8.733
12.96
0.03881
236.4
409.1
140.8
131.2
0.02048
22.62
107
0.02163
0.02042
27.56
9.402
10.86
388.9
32.17
1.967e+05
19.85
0.155
0.02123
44.8
119
771.9
2063
0.4464
0.05536
0.02189
2.132
1.771e+04
0.02125
0.193
5185
102.5
4948
0.02655
31.02
105.9
0.0218
974.7
0.0212
309.2
1.859e+04
222.6
145.1
1.279e+04
0.02191
753.6
0.1005
1576
1258
1805
1.124e+04
0.1641
0.91
1.31
8e+04
0.02178
75.63
1048
1004
661.1
1.525e+04
0.05317
0.5902
1682
8257
4.347e+04
369.8
1.39e+06
623.5
2.557e+05
123.7
2972
8.842
3.429e+04
0.02262
163.9
0.02725
0.02649
23.57
0.02511
76.77
13.95
8.089
3.073
0.03656
908.2
202.7
0.02179
12.47
88.27
0.03529
889.1
1.514e+05
42.17
42.14
1966
19.45
607.2
0.02168
37.67
606.6
0.02317
665.4
73.12
8.866
0.02069
2.445
18.79
4.518e+05
12.27
1.531e+05
18.23
96.62
159.4
1.505e+04
361.7
0.02361
1.006e+04
0.2614
0.02427
5.376
4.851e+05
33.61
719.1
21.45
8.561
2.94e+04
2.333e+05
380.2
0.02228
0.02183
41.71
17.01
158.5
673.6
45.76
5387
129.4
0.06197
5546
0.04385
7532
0.0216
25.71
3038
16.96
225.7
24.72
0.02177
0.0218
2513
0.1513
326.7
365.1
849.1
15.06
101.6
222.6
231.7
6.158e+04
29.7
1040
855.8
31.73
13.7
237.1
343.4
6091
1.783e+05
26.29
0.02154
0.02139
19.63
45.3
1.351
0.02079
78.64
24.59
1.291
614.9
90.32
449.6
2.073
0.02223
0.2794
1.375
1.449e+04
2712
141.6
0.2433
69.3
1025
354
54.89
9.353
146.4
185.4
141.5
6199
0.02287
1.74e+04
1.811e+04
9.221
75.06
2415
0.02174
4.593e+04
7.034e+04
0.0219
0.02154
42.06
33.08
6.497e+05
711.6
157.6
847.4
731.3
0.3459
0.6821
0.0226
909.3
19.5
390.8
8.764
7805
61.9
0.02907
4.612e+04
218.8
0.02172
278.2
0.02552
0.02164
50.71
0.09129
4.652e+04
0.02157
965.5
0.02181
499.7
0.07765
12.04
17.88
913.6
503.5
822.8
78.63
0.05467
0.03707
17.24
282.8
415.1
527.1
1.474e+04
870.4
7.036e+04
96.72
698.6
685.2
486.1
5163
0.1128
9.112
0.04649
487.9
312.2
2446
0.06572
1267
13.48
126.1
210.7
46.01
2.384
1418
10.08
125.7
428.6
1383
1323
0.02109
45.92
486
0.02179
239.4
867.8
0.02066
5.962
619.2
0.03482
0.1175
25.99
115.4
0.1529
0.01976
227.6
267.5
0.02161
0.08842
0.02898
24.37
327.8
27.1
0.03352
3026
1.393e+05
890.1
364.2
14.58
3.439e+04
0.07772
202.2
0.02176
49.55
31.28
179.3
212.1
3972
9823
0.02196
6.662e+05
1972
1371
91.03
1591
9.698
10.44
3138
120.4
0.0318
1.342e+06
69.79
401
1666
254.6
426.9
102.5
7456
154.4
131.4
144.6
602.1
423.3
30.18
1.237e+05
0.1027
208.2
0.09099
992
0.01969
0.02165
62.89
4.436e+04
28.42
1.418
5.257e+04
1516
0.02179
6654
153.8
125.2
1.543e+05
6.396
140.4
1.349e+07
12.8
1.136e+04
14.18
124.8
5101
408.5
1667
32.16
319.2
0.07881
18.38
39.23
161.7
28.09
141.4
11
3.028e+04
20.28
0.2629
15.14
0.3949
0.4889
32.83
1.178e+05
0.03512
1.049e+04
3078
185.2
85.58
0.0218
11.71
53.88
0.9737
5048
1518
2499
0.02135
614.3
3171
41.56
4.489e+04
137.2
8.658
1078
0.02186
1419
133.1
1.393e+04
159.7
0.068
15.46
0.02169
1.649e+05
5.217e+04
67.52
0.8902
24.49
0.02086
0.01977
857.2
24.47
7.977
0.0639
0.05131
0.05236
4.286
45.12
11.99
267.9
322
5.354e+04
1.227
1940
202.7
323.1
0.0198
846.5
13.11
144.4
6.637e+04
86.15
9.079
134.3
92.62
28.35
2.07e+05
27.33
61.08
11.87
9.349
11.48
312
1.718e+05
0.1058
2614
0.02118
385.5
2005
0.0203
4658
78.01
102.7
627.7
0.02138
1.113
4.349e+05
0.02174
290.8
807.2
128.3
1.779e+04
1.19
11.8
1471
4558
95.55
216.5
0.04854
180.5
1.209e+04
1.76e+04
384.2
88.09
0.02169
235.3
8.537
1694
413.8
9.464
93.39
0.02166
7.247
314.7
0.02212
10.28
0.02264
6661
10.66
3.675e+04
239.9
40.09
1050
39.05
219.1
769.4
3.406e+05
93.06
207.6
40.17
26.05
16.98
0.02211
138.8
0.02203
12.75
0.022
13.72
0.02147
327.6
175.9
0.02066
0.02161
951.5
0.1369
1347
0.08858
0.02002
26.34
44.82
0.03057
3.475e+06
5131
3.608e+05
226.6
73.85
390.8
250.3
59.31
2.167
8377
30.98
2218
692.3
58.54
67.52
7.906
0.02155
3.379e+05
66.31
6906
0.02178
6.054e+04
435.7
445.6
238.9
0.01973
0.01971
14.44
30.52
6.203
10.52
110.2
1.608
0.742
2.755
11.12
3586
82.57
0.8707
31.2
11.61
1287
1015
146.1
437.4
20.46
0.02186
287
370.1
1.805e+04
32.28
0.03504
144.7
1.276
187.8
117.4
1859
16.47
0.02174
33.91
104.3
8.551e+04
1.744e+04
1.38
86.29
1712
0.1198
0.01972
2436
495
3.128e+05
0.04938
1.252e+05
167
0.02152
189.7
2020
10.03
0.09207
14.65
1316
103.3
89.48
35.8
3300
0.04003
787.5
1683
1096
0.05666
0.05652
538.4
15.26
3.02e+05
198.1
1390
1731
3.397e+05
1.493
461.1
0.02441
0.02174
0.0215
20.52
0.02315
9.468e+04
0.02172
1.182e+04
0.2648
109.6
193.3
1021
0.09419
3.236e+04
0.285
756.6
21.4
1.536e+04
0.02167
150.4
931.3
18.06
1.576e+04
2948
37.29
2245
4983
0.04542
0.0206
1.446e+04
0.07297
0.01996
0.2773
1.278e+04
0.0206
4764
0.02184
28.74
144.9
13.45
264.5
0.02091
27.91
771.8
100.4
0.05536
30.73
0.1482
0.02173
0.02122
40.13
6.152e+05
72.89
140.7
0.02379
4.002e+04
0.4057
0.07127
0.06071
3.162
209.7
834.6
0.02458
476.1
0.02219
42.68
0.02217
0.2196
306.9
46.39
5.651
1440
218.1
0.02119
55.61
3108
610.2
5.53e+04
1795
8.907
0.03348
9.66
5.397e+04
39.57
839.7
3.801e+04
0.07489
0.1143
0.02159
122
294.4
82.91
0.0218
846.9
0.02175
0.2026
218.1
0.02136
8.595
0.8694
100.4
14.99
1.087
428.3
0.0219
651.3
7914
11.78
8.39
232.7
0.04049
143.3
96.2
4807
200.1
92.88
1016
70.24
146.9
1.246e+04
0.06811
0.1217
227.1
0.03352
309.3
28.56
0.08106
123.1
0.02384
0.3723
6337
18.32
125.2
165.6
5.805e+04
103.2
1.793e+04
2.5
0.02066
1.8e+04
205.4
0.09407
451.8
0.02736
38.75
0.02223
10.02
1.105e+04
13.78
35.57
124.8
210.5
0.02187
108.3
0.2396
23.43
1870
0.02473
133.4
3403
0.02159
0.02487
141.4
0.07327
83.39
8.576
5.113
84.67
1.576
23.75
0.07069
3.02
76.68
0.02109
0.147
1535
5.915e+04
0.02086
487.2
1.69e+04
12.14
548.5
10.55
197.3
5.757e+04
0.05807
0.1115
216.6
0.02478
1264
44.24
29.48
6684
220.4
0.02434
207.8
8.88e+05
3.328e+06
178.2
252.9
217.1
2.183
19.54
27.05
34.7
1625
684
788.5
476.5
2.788e+04
30.11
5.044
0.0217
1911
5
50.4
0.1447
0.03775
219
189.9
8.38
0.02035
880.4
1785
124.5
421.9
17.08
6.264e+04
442.2
0.02597
281.8
2.313e+04
25.48
161.8
1.029e+05
0.01939
8216
2428
207.8
0.02754
28.86
12.82
1337
366.8
16.47
1994
0.03335
4.615
262.4
0.049
13.29
0.02166
625.2
6678
186.9
2577
3.713e+04
33.23
2.154e+04
0.1077
2242
23.74
9.754
0.03409
9.777
61.03
23.43
153
0.06508
169.8
2.349e+05
6.279e+04
112.3
64.84
0.7127
0.7323
0.02185
0.02521
78.54
0.4129
0.02165
118.7
166.3
330.2
365.4
35.4
350.5
39.75
4856
6.685e+04
7.257e+04
0.08582
154.7
1.833e+05
10.67
6934
9.999
33.96
60.14
2.326e+06
21.59
31.19
0.04346
0.05066
1167
152.2
0.02173
0.02196
13.58
2003
17.26
167.2
3.851e+04
17.77
0.02377
1592
10.16
210.7
4991
1.2
7.432
34.05
112.7
2.208
111.2
0.02188
1908
8.908
1453
17.38
294.7
8022
8.64
1651
55.22
1608
178.8
6840
0.07196
12.68
76.37
36.94
809.2
242.3
1.334e+04
979.5
0.02164
317.4
10.15
1129
120.6
0.2669
15.55
0.0739
6649
0.04848
207.1
34.44
117.2
11.94
16.67
0.5738
6.426e+04
0.2129
0.02433
2073
0.0209
22.19
0.0302
2.701
10.54
0.02151
0.3648
281
4706
0.02176
0.02291
11.11
42.11
302.9
0.1612
53.86
90.88
1747
718.7
29.38
134.2
124.9
0.0899
143.8
6.626e+04
9.096
4486
575.5
9.673
5.701e+04
0.02172
0.0206
1.508
7.361
3.695e+05
0.02179
11.46
1659
3.356e+05
740
1003
0.01981
0.01953
488.9
124.5
97.51
217.8
0.03123
34.5
5.076
0.02222
1567
269.1
129
59.86
5911
8.795
9.077
0.01977
28.33
344.7
1451
796.3
100.9
1.721e+04
1440
50.47
152.2
465.2
119.1
0.06665
159.8
1.197e+04
0.02793
0.0265
601.4
294.6
1.381e+04
1.754
1350
156.3
0.1407
0.02173
22.52
0.02211
34.56
3.868e+04
38.64
0.1212
144.2
0.04362
2.438e+04
715.5
0.06569
33.37
30.44
141.2
36.74
195.2
134
66.25
40.18
65.31
38.8
13.01
2956
199.1
70
364
2.069e+04
220.3
1272
1349
3.018
2.202
51.59
2.101e+04
0.6899
189.6
0.0222
17.28
0.02214
186.5
8.392
2.138e+04
311.6
0.07943
3064
2.149e+05
2485
33.59
108.9
1562
5334
0.2652
39.9
57.82
1.375e+05
144.9
63.77
0.2797
0.2791
0.02174
18.22
1.707e+04
15.74
4194
12.28
0.07111
4127
0.01971
48.88
0.8764
18.75
2760
0.2082
8.334
8.507
0.03555
461.7
52.74
7.103e+04
2605
158.3
0.0214
69.26
120.4
1.174e+04
1294
66.29
7.897
72.47
0.02171
415.8
1413
12.76
84.17
31.16
5255
1057
727
102
0.6723
1.4
2.746e+04
9.264
0.06153
9.239e+04
0.06774
15.45
0.02173
0.02199
115.5
0.02185
1839
145
32.17
17.3
1025
4560
158.5
1891
145.3
16.94
5.936e+05
37.88
113.9
2.252
2.315e+05
11.2
1.872e+04
2.283e+04
0.04335
1700
1014
12.87
13.88
1.227e+04
731.1
2921
25.75
42.56
0.02578
8.417
0.02206
1.161
13.42
1188
77.34
54.6
3.793e+04
14.86
0.02184
417.4
51.77
20.75
86.72
49.71
210.3
875.9
3029
1.611e+04
471
271.7
1921
105.2
401.8
0.06391
2.896e+05
360.7
124.2
1.799
0.02157
274.8
481.4
19.61
12.53
1.74e+04
1402
324.6
79.85
54.45
4308
0.02163
1.622e+04
9.399
0.03441
87.62
860.4
0.02165
271.9
13.84
44.77
2.272e+04
36.66
87.83
2.325e+05
47.65
245
0.01967
0.01961
236.9
104.3
11.22
677.8
150
0.02151
5987
1462
29.68
0.02173
0.02184
35.2
58.75
246.8
7.852e+05
1003
0.02881
822.1
7.168e+04
0.08073
759.8
389.9
0.1046
2.628
3127
36.01
59.37
0.01963
0.01949
0.01946
0.0202
0.0779
34.34
51.82
1114
19.63
492.8
32.15
1986
0.02079
103.1
72.2
7292
1604
9055
454.8
101.4
359.7
25.18
176.8
0.09841
131.7
4.4e+05
308.3
6836
0.2646
357
0.02173
2.413e+05
99.46
461.8
16.79
0.03011
6.596e+04
0.02179
104.7
1127
0.04318
134
133.5
14.91
217
1.433e+04
0.03745
1231
0.02066
5.287
120.9
439.9
18.78
182.5
0.0215
0.0217
0.164
1604
1701
0.2424
17.74
153.7
9.956
6732
387.1
13.95
9.866
30.53
82.28
0.1575
1.108e+05
0.229
0.02173
1.538e+04
0.02171
0.02166
0.3879
0.1073
1.212e+04
16.98
2175
36.53
418.1
0.02187
0.08346
715.4
233.7
13.7
0.05541
0.2025
5.184e+04
7093
0.02213
1.334e+04
8809
3.719e+05
0.06826
12.02
14.82
0.07545
0.02318
11.72
242.4
4.721e+04
0.06626
842
2.548e+06
0.02174
470.8
3141
145.8
0.02178
1068
8.946e+04
1.47e+05
7.861e+04
0.8596
137.6
7.952e+04
0.04618
128.9
0.02153
16.75
1264
8.238
596.6
7.615e+04
0.2165
251.1
196.6
0.02225
0.029
626.1
1625
10.16
1.587e+04
115.8
3.879
12.37
25.45
605
85.12
0.02175
41.59
36.48
238.5
652.1
372
587.9
589.5
1.003e+05
1.151e+05
1.426e+06
658.3
0.04565
1792
0.02432
1383
2639
0.02175
7.412e+05
0.02221
307.8
1.789e+04
4189
131.6
247.9
818.8
741.9
0.01963
6.548e+05
198
0.0579
11.6
207
1.142e+05
1.995e+04
2.295e+05
10.77
621.1
6396
15.42
0.06504
121.2
1.302e+04
0.02088
75.36
98.23
411
83.79
52.54
11.21
6139
159.4
219.2
1.825e+04
0.06794
3957
0.07509
92.08
371.3
0.02327
0.07526
80.03
963.6
376
9.635e+04
0.05587
0.02171
13.53
269.3
4744
42.81
7.908
0.01962
0.02797
1529
0.01995
561.4
521.9
0.06436
178
73.52
2.731e+04
1.027e+05
6.038e+04
0.03199
781.1
136.9
177.5
12.13
9.064
2.374e+04
15.69
1776
286.4
1.225e+04
212.9
6.134
4.917e+04
29.75
110.1
25.47
0.05129
94.49
0.1964
0.02182
54.93
546.9
83.4
211.3
73.17
1.881e+05
2.948e+05
10.39
2.179e+06
0.2772
0.5441
0.03006
0.04596
90.08
0.02221
781.7
8.62e+04
707.2
7474
45.78
42.47
322.9
105.8
13.33
829
16.84
8682
199.1
0.02581
222.6
113.5
0.02204
0.03546
2622
0.02185
226
249.8
281.7
23.44
4136
0.09596
32.81
0.03503
1012
2.094e+04
1202
100.1
0.02143
689.2
0.02154
0.4424
229.2
41.36
5.727e+04
223.8
770.7
9.48
3782
0.5267
0.2046
23.9
569.4
0.02083
15.71
0.02185
1315
2603
283.3
103.2
0.02157
970.6
416.4
108.4
5.814e+04
246
3810
0.02272
31.94
11.4
8.632
364.1
48.86
0.07487
2.508
0.1122
113.4
119.9
0.02069
0.02025
0.02201
0.03381
0.1228
5562
754.6
0.02178
240.5
62.77
169.3
0.02194
181.2
0.05739
2618
0.09289
4.34e+05
141
3068
0.04324
0.08912
6.113e+04
0.02703
160.3
246.7
389.5
372.7
101.7
0.02181
260.5
789.9
73.91
119.9
38.27
19.39
37.02
133
1217
0.0215
17.02
84.53
7237
0.0918
0.02209
426.6
2190
23.11
21.2
33.85
1016
0.03905
52.59
1136
10.91
373.2
90.75
0.02569
17.55
6.327e+04
73.1
333.8
7278
2.477
25.45
0.02166
0.02654
0.1169
0.04582
5.86e+04
170.1
0.02195
0.02233
117.7
3.039e+05
0.02194
28.2
2.156e+04
162.6
19.88
205.6
2668
106.4
35.53
861.4
1.143e+05
3174
0.02183
70.24
45.43
135.3
0.02139
0.5335
252.4
31.75
570.1
7.491e+04
7251
15.08
987.1
1.197e+05
9.508
1080
26.06
3.711
2.213
2451
4.161e+04
0.02157
308.3
137.2
0.02193
7515
17.02
2.978
0.06374
47.85
831.4
397.4
123.2
0.02166
0.02176
12.53
343.5
0.02
24.07
0.02442
2777
10.6
16.25
546.9
2358
18.66
85.14
0.02139
7.324e+04
16.89
4507
562.1
0.062
720.8
44.65
268.2
5.746e+04
7.92
5.368e+04
0.02075
0.02124
36.99
0.04453
0.02139
1.404e+05
209.5
479.9
6043
97.48
46.56
0.0279
1.362e+05
0.04
141.7
0.02023
0.08835
125.1
57.23
61.57
42.43
8.884
1466
0.02046
59.23
6675
6791
9179
0.1205
58.42
35.06
0.02195
1495
428.2
0.7454
0.03913
163.7
5.911e+04
0.02188
0.0215
44.27
4189
10.9
2542
0.02206
9048
149.8
142.5
0.02208
0.06343
1137
337.1
3262
25.61
69.19
0.02043
842.9
0.03045
1156
9.584e+04
0.05746
247.3
10.91
1.418e+04
3.742e+04
1871
0.05096
0.02047
57.39
0.1532
0.02163
468.8
240.3
9.697
0.02032
0.06653
0.06565
0.0259
737.9
86.79
0.02173
840.8
147.2
2224
0.02566
0.02191
0.02162
0.05173
133.8
21.74
708.7
6.074e+04
3.597e+04
135
1.171e+05
5072
0.02278
5.176e+04
79.82
5143
8.929
0.1173
2.835
1.216e+04
1199
3450
613.6
0.04939
32.87
518.8
122.2
17.59
0.2103
392.1
0.1075
445.6
0.03587
41.04
42.58
23.03
0.1617
1156
1.127e+05
8119
0.02061
5.886e+04
44.88
0.01993
251.8
0.02181
2689
92.32
0.1173
478.5
537.2
0.0223
2.999
8.266
1.553e+04
0.02228
0.122
1.586e+04
12.62
0.02157
3790
41.95
0.03049
0.1152
15.66
185.5
7.109e+04
673.3
91.31
10.3
1673
0.5205
0.02169
0.03814
636.6
122.7
113.3
0.02207
1.625e+05
227.7
61.37
341.2
45.97
88.93
0.02017
0.05689
738.7
214.1
0.03773
158
806.4
9.284
2.282
8.909
9.94
0.03602
8.411
60.77
78.32
41.45
0.02205
1993
0.1629
49.59
20.78
8.578
6908
85.65
4.131e+05
14.9
0.4261
0.2517
0.02118
16.95
49.61
4696
1881
222.6
488.5
3831
37.51
0.4184
84.51
685.8
1.036e+04
37.6
0.03601
1916
1.549
1701
30.98
9.877
32.04
238.6
0.02179
358
0.2469
0.02164
2.299
1910
1.286
2.814e+06
719.2
1332
0.02165
37.47
227.9
0.04864
25.59
42.05
4510
529.8
4244
0.02188
128.5
0.02065
8.532
343.7
715.7
19.62
789.6
2.1e+06
0.02147
0.02174
89.8
187.2
1536
3.937
144.3
878.8
25.74
14.67
0.02178
458.2
2885
0.06015
34.7
0.02156
172.5
0.04809
72.56
447.3
129.9
0.3142
2896
118.7
0.02495
713.3
160.9
0.5852
0.02145
0.02257
488.8
4618
49.39
8.035
95.45
16.89
186.6
51.19
0.0194
0.1531
0.4744
1.148e+05
3700
2214
0.02134
660.6
150.2
3379
2201
2.486e+04
9.498
30.88
149.1
107.9
800
5334
23.02
0.07287
9.878
0.02984
2.109e+05
0.02229
13.98
571.1
65.26
14.73
674.6
59.97
1.549e+04
12.93
1072
56.89
12.32
470.1
1.111e+05
33.62
6.219e+04
3.377e+04
0.02174
6.883e+04
253.5
1765
3425
41.31
45.02
384.7
111.3
38.69
0.0348
14.24
17.6
123
33.63
83.93
0.4379
4.905
33.32
7.111e+04
52.27
1.149e+04
122.5
683.1
0.02027
893
94.29
5437
11.85
2.312e+04
382.5
339.6
0.07373
4459
0.06393
19.83
39.86
0.06831
1.57
25.82
52.11
211
415.4
33.34
201.8
46.63
2.273e+04
47.77
3.805e+05
0.03458
50
281.2
9.01
0.03935
689.5
0.02173
0.02193
0.02173
64.88
161.6
1353
14.96
0.07521
51.48
0.03721
3.767e+05
3210
6.782e+04
251
0.05454
945.6
6905
0.07394
2550
0.02186
35.77
8.6
988.3
34.08
0.02128
0.02138
143.4
9.094
0.0359
7.271e+04
176.7
0.02095
0.0218
91.45
0.03038
750.2
1.263e+04
0.03136
16.57
864.5
551.6
474.4
7.606e+04
35.38
0.1421
69.34
304.3
0.1114
399.2
78.37
1.681
824.6
138.8
2.207e+06
0.02677
143.4
1.167e+04
2027
0.02183
41.2
0.02176
13.02
62.88
99.45
37.21
334.1
109.4
0.1642
2108
3068
1179
1213
1013
72.12
13.82
107.8
360.7
27.67
488.2
0.02222
6.457e+04
2.051e+04
2326
65.35
27.23
2847
724.4
0.289
0.329
7.409e+04
185.7
0.05461
0.03166
0.05168
399.4
797.1
30.65
5216
64.41
0.037
172.2
101.9
78.83
481.3
3.924e+05
1348
145.7
630.1
48.35
113.9
3756
73.32
17.2
9.326
2312
38.34
0.2462
65.54
805.3
0.07944
150.3
0.262
16.92
7.513e+04
1240
0.02204
1015
15.24
2.848e+04
1824
0.02136
0.09497
842.2
0.02834
44.2
2456
951
9.146
0.02175
0.1859
12.4
17.34
0.08093
422.9
0.02077
680.7
27.87
623.2
636.2
82.72
86.07
459.7
932.2
0.1571
114.3
0.02181
1.014e+05
0.03371
0.03099
609.4
0.02178
30
11.17
1.349e+06
0.02196
146.4
214.6
566.4
388.8
0.2545
85.34
38.5
366.4
3920
40.46
0.06798
0.02193
468.8
697.3
22.34
89.29
1977
4768
0.7627
0.02113
60.67
298.8
1.561e+05
90.45
98.23
0.605
230.3
0.0215
30.31
8993
1959
0.02197
0.2115
1682
0.01979
117.7
2271
34.94
0.02195
0.022
8.213
0.02309
0.02013
0.02173
8.289
1436
2159
0.3913
162.1
18.24
16.29
0.02225
19.88
115.2
0.04169
0.6587
1849
12.92
0.02513
3098
58.03
7.871
6.458e+04
7.791e+04
0.02483
151.1
15.65
575.9
74.81
6718
0.02194
157.7
7.071e+04
11.02
660.8
0.8576
3303
72.12
201.7
29.15
2.851e+04
0.04939
2.214e+04
45.47
0.02533
0.0284
0.02006
387.3
31.31
4852
343.4
1.124e+05
0.06824
0.01942
205.5
223.3
0.06913
0.0218
1106
10.1
1864
56.31
2956
369.1
147.2
26.61
267.7
0.01972
3.59e+04
218
76.38
30.44
0.06368
0.02189
31.28
13.45
457.1
7356
68.75
0.03795
73.56
16.34
0.05642
0.02183
1792
203.6
9525
280.7
33.62
2.755
82.85
20.73
13.56
126.3
0.7765
0.1312
0.02192
87.85
2.853e+04
27.35
0.4427
8406
0.5039
0.02168
19.74
0.02884
0.02203
44.13
0.01937
0.01932
9.169
0.02011
54.86
9.702e+04
593.2
12.66
0.1352
0.02113
0.02197
58.34
217.5
68.8
6.945e+04
17.12
0.03005
10.31
53.62
4331
1.341
0.02198
2.786
96.22
0.02203
0.02136
104.2
245.1
0.05019
0.02783
95.76
0.0213
1.66
0.02148
3.923e+05
2.559
1555
9.586
0.0271
0.3782
8.863
26.55
800.9
20.41
105.5
13.68
0.02214
4.835e+04
18.28
223.3
0.02191
801.3
423.7
133.3
1173
0.2384
548.8
25.5
0.1377
6121
0.02205
8.498e+05
38.94
2.975e+04
0.02197
237.6
0.02173
0.08066
10.14
1.316e+04
14.14
553.5
15.97
0.1132
3455
0.1275
3229
5460
8.111
0.08499
0.05521
627.8
0.02162
7.96
31.39
50.88
40.33
0.02175
1.902e+04
0.03415
413.5
1074
69.87
2000
1.395e+04
22.3
1146
122.9
1.455
21.44
0.4592
0.02172
0.02181
987.2
12.06
2.222e+04
68.74
159.3
0.02179
90.28
0.02179
0.02169
0.03212
422.7
0.1051
16.59
0.03504
62
0.1863
91.71
290.9
2686
0.02474
465.6
382.7
127.8
0.1779
25.24
0.02187
114.5
0.414
110.5
16.4
0.03305
249.2
1.499e+05
593
3117
32.66
3.967e+04
1917
3.664
95.29
2729
55.73
1.769e+05
740.2
35.59
86.16
170.9
51.21
2421
707.5
0.03874
28.04
0.09236
570.8
3.333e+04
114
3227
942.9
16.3
611.3
0.03332
251.7
52.88
8.159e+04
11.93
0.02232
27.48
24.19
169.4
0.05847
72
175.8
38.55
0.498
463
83.51
1.466e+04
399.3
158.7
30.3
20.54
1676
0.02443
799.4
16.28
0.02346
114.1
116.2
589
941.2
282.6
0.02202
943.9
27.16
0.07468
2.994
672.4
2.507e+05
219.7
0.02084
0.02466
0.3745
521.7
92.19
0.0215
3.831
632.3
732
1.798e+04
0.02103
261.5
8564
83.49
1.927e+05
140
182.2
134.5
36.26
55.85
0.02317
108.6
7486
44.91
315.9
3.96
37.09
0.02162
0.0733
634
290.6
35.42
2453
136.7
0.0217
8629
119.2
0.165
487.5
1.653e+04
2.661e+04
0.04198
0.1354
0.02439
131.4
7119
1036
2685
160.9
301.5
0.02181
90.72
5.041
9.166
1.168e+04
0.5796
6.954e+04
61.19
5325
0.03262
200.6
3514
0.02169
161
206.5
207.7
10.56
0.0219
0.02169
0.03833
48.84
0.0217
12.02
2.457e+04
0.1071
23.13
629.4
0.03756
103.7
12.01
0.2706
5024
120.3
2.089e+04
95.66
0.02173
402.2
6121
0.0217
1.386e+04
10.54
152.3
62.01
765.6
37.6
440.9
14.48
12.17
0.02194
13.32
0.02178
0.05521
3006
149.1
88.01
70.51
1.894
284.1
0.02174
0.01965
0.05064
224.9
66.94
126.6
6.964e+04
16.65
0.8058
529.1
1.086
49.4
0.02135
1687
952.2
20.77
13.73
178.8
172.9
49.36
31.33
1.697
0.02244
154.5
23.6
143.3
4936
6.412e+04
755.9
0.02149
126.2
34.68
18.11
3.246e+05
0.02165
123.4
30.97
25.12
139.4
34.25
2.003e+05
134.4
48.37
930.5
8642
29.48
62.07
7228
4.247
0.02168
383.9
23.81
45.1
84.32
18.24
1.804
0.0447
1934
580.9
2477
26.23
1875
563.4
0.02171
353.9
60.09
103.5
14.32
0.01935
415.3
84.54
70.37
13.3
0.02133
846.4
13.3
14.44
104.8
201.6
171.5
63.25
740
652.3
0.01992
257.5
78.7
227.4
876
660.1
67.34
31.17
53.44
8.434
166.6
1412
6.597e+04
1370
548.1
3.76e+04
30.91
0.07717
9.055e+06
502.7
5160
0.03545
4853
4716
392
60.66
0.02192
2.409
0.02178
20.34
180.1
15.66
0.8541
14.93
1486
43.26
8.445e+05
15.75
358.1
2411
6.05e+04
878
284.2
24.2
0.08756
523.8
15.02
7.68e+04
188.6
0.3893
0.7341
4465
3.176
0.022
0.0217
60.1
96.35
0.03819
0.02017
0.02184
1844
495.7
3.606e+04
0.02155
0.03085
101.3
0.01976
0.0199
883.9
0.0545
154.2
927.7
0.05367
4906
27.68
77.22
7.962
44.01
0.04736
107.3
27.99
2.56e+06
61.23
1204
3265
4013
12.25
0.03078
10.05
1476
0.02171
10.39
359.2
1348
5.204e+04
562.7
61.39
1795
0.02446
391
9366
290.5
121.9
147.8
0.0716
63.79
14.97
6413
168.1
215.3
0.04809
2302
1031
0.03577
32.36
0.06689
42.34
0.0258
6278
6.649e+04
0.02735
1678
177.6
0.1527
1243
116.5
0.02226
2.268e+04
168.2
229.4
1692
0.03337
16.79
2.027e+05
109.7
1279
15.61
28.44
7.93
32.48
194.1
0.05833
5.734
101.6
172.8
51.18
20.11
83.06
16.9
186.7
944
118.4
14.58
2.584
0.0218
0.08981
1341
26.8
0.01936
8.372
71.62
14.4
194.3
115.6
76.25
0.09311
1833
117.3
0.1076
77.52
227.6
0.07213
1628
0.03867
2178
9.287
0.1807
0.06558
10.44
1365
88.59
0.02093
162.4
959.7
308.6
0.1952
0.02185
11.51
586.6
1872
39.48
91.34
12.91
1701
12.74
31.67
8.96e+04
9.596
4.633
1.813e+05
1234
14.06
19.42
0.02204
4.659e+05
0.02198
49.61
165.7
364
405.6
473.7
7.809e+04
9.437
41.8
26.26
1.099e+05
1002
16.26
1.68e+05
2.168e+04
932.3
197.7
0.1858
1.706
15.61
145.4
0.02187
659.2
8.228e+04
0.04328
127.3
17.22
21.57
1004
941.9
1.619e+05
4113
255
0.01954
0.01934
0.02178
1823
8024
0.4297
0.02158
0.181
7379
24.18
1.79e+05
238.7
0.022
1.549e+05
0.01938
5.249
11.96
0.03686
15.41
0.6286
4.286
0.05528
1068
27.97
101.2
145.1
9.504e+04
14.04
411.3
248.6
10.99
0.02213
2.538e+04
776.5
681.1
295.2
3292
555.7
372.8
0.05317
37.89
343.6
23.75
667.4
0.02911
1736
69.66
761.3
28.1
0.2368
0.3629
0.02179
308.6
69.37
308.4
808.5
11.51
2442
35.9
25.66
11.72
318.1
0.1832
3130
235.3
207.8
36.53
0.06485
24.38
0.08844
108.8
19.54
268.5
13.16
605.2
13.18
33.71
682.2
0.2202
6079
48.68
0.5658
0.08855
1.427e+05
528.8
356.2
54.52
2.168e+04
0.02204
2.355e+04
1119
111.5
149.8
194.5
140.5
194.1
21.98
180.9
217.3
421.7
9369
0.07342
0.02186
0.02171
147.4
517
7.84
9.893e+04
352.8
3.482e+04
3617
142
6266
7.345e+04
24.34
889.3
1880
34.43
7.657e+04
0.02166
246.8
1200
1171
0.02157
1107
48.53
261.6
451.5
262.4
0.02168
12.64
307
2856
0.02089
492.6
10.5
0.1518
1.232e+06
0.03324
10.72
12.35
318.5
484.5
0.4452
31.92
6.624
519.8
1632
328.2
0.0194
16.54
2.629e+06
0.02505
0.02253
5454
3152
99.11
1625
0.06189
26.13
102.6
109.8
152.4
212.4
0.01999
32.78
9.459
0.12
0.02198
41.56
0.0212
3.277e+05
31.12
3.622
7.999
5.196e+04
0.02167
358.3
0.02
0.02216
498.9
0.488
3796
9.115
0.04017
84
1178
37.4
48.7
58.89
694
363
1516
1157
1595
1.637e+04
3274
99.3
756.9
385.4
240.3
0.2368
0.02113
0.02118
1.217e+04
17.51
983.3
1.71e+05
0.02179
845.8
1.097
0.02038
22.8
1.822e+05
8.298
887.8
1.008e+04
0.02206
1689
67.87
24.45
10.12
20.9
4810
308
0.02174
1.858e+05
5024
0.06301
0.02321
4401
466.2
1958
923.6
171.9
685.5
0.02168
666.2
0.02118
453.6
940.5
1.648e+05
0.01955
0.01935
0.149
195.7
0.03061
20.23
6.213
19.29
42.95
144.8
394.4
0.04552
0.02645
7.134e+04
8.26e+04
161.4
1763
0.04694
1066
0.02215
170.6
4810
1891
8479
844
852.8
598.4
0.2865
22.5
47.33
0.0249
0.02176
0.02174
14.41
274.3
2368
1.206e+05
433.2
0.02424
1395
2856
787.9
1.31e+05
67.52
2019
898
281.7
0.05395
8.641
17.14
1.049
0.08282
2514
41.95
77.76
37.13
1207
0.3439
0.01973
6.957e+04
14.52
11.66
80.17
8.446e+04
18.09
0.02082
338.4
42.31
225.8
23.52
186.3
1352
4.274
269.3
12.41
0.06441
230.8
0.04336
0.0774
2.043
1295
41.51
3116
31.42
85.32
68.21
0.02802
184.4
549.9
0.2332
102.8
5.466
6.933e+04
0.02983
0.02351
211.7
196.2
202.2
44.7
9.052
8588
0.066
0.02183
62.62
7141
0.02439
0.5463
105.2
0.02159
7.408e+04
0.05012
75.45
122
170.1
1.617
1189
8484
7.45
0.06037
0.02172
27.84
87.04
229.2
21.04
0.02133
0.02019
0.02172
329.6
244.8
402.5
0.05368
2133
78.08
872.7
93.89
1798
0.5608
0.02993
1.509e+04
0.02185
2118
46.38
0.02975
166.8
247.1
1231
280.3
386.2
19.07
18.56
0.06974
8465
4461
6877
0.1749
0.7276
0.02168
7.487e+04
0.02159
698.1
6355
0.02208
14.09
130.4
922.7
0.08173
18.6
5.017e+04
23.28
0.02166
22.83
868.8
73.4
229.8
18.5
58.86
5.844e+04
11.09
0.02071
0.02259
4.211e+04
50.51
625.4
8.626
96.11
0.02117
0.02193
7.241
2.727e+05
6440
1097
553.4
2.704
502.4
5837
330.3
586.2
0.02189
1541
8.176
807.4
28.42
24.04
0.0216
1588
17.71
5.906e+04
6.213e+04
10.05
33.4
4.419
4061
0.02707
9.241
6.198e+04
1378
441.4
7133
2.535e+04
562.3
239.1
0.1117
2527
699.2
2488
89.72
0.02614
4123
2.55e+04
0.02172
511.1
1.36e+04
1093
2379
59.68
25.42
268.3
81.05
0.03325
171.4
0.02211
186.6
0.09568
5.582e+04
0.1162
1.576e+04
90.08
694
16.81
16.08
1617
11.18
302.9
2921
107.7
68.66
9.192
54.79
201.8
2517
74.28
0.02431
101.5
47.18
445.7
325.3
195.6
957.3
78.99
0.02487
89.29
8.855e+04
24.49
12.57
335.3
0.03956
67.28
0.02156
105.9
2.271e+06
3.325e+05
1492
45.47
77.02
0.02099
0.05257
32.74
41.52
129
19.77
0.0218
29.63
132.1
47.32
119.3
0.02165
2615
5776
2.337e+05