/*--------------------------------*- C++ -*----------------------------------*\
  =========                 |
  \\      /  F ield         | OpenFOAM: The Open Source CFD Toolbox
   \\    /   O peration     | Website:  https://openfoam.org
    \\  /    A nd           | Version:  8
     \\/     M anipulation  |
\*---------------------------------------------------------------------------*/
FoamFile
{
    version     2.0;
    format      ascii;
    class       volScalarField;
    location    "50";
    object      p;
}
// * * * * * * * * * * * * * * * * * * * * * * * * * * * * * * * * * * * * * //

dimensions      [0 2 -2 0 0 0 0];

internalField   nonuniform List<scalar> 
127143
(
-0.1921
-0.206
-0.1943
-0.194
-0.5525
-0.1939
-0.6014
-0.5845
-0.5819
-0.3304
-0.4172
-0.6035
-0.1833
-0.1942
0.5002
-0.1912
-0.1972
-0.092
-0.1974
-0.1974
-0.2433
-0.1837
0.004591
-0.1245
-0.1837
-0.05085
-0.3047
-0.3028
0.2151
-0.02293
-0.1841
-0.04968
-0.4949
-0.2469
0.1158
-0.495
-0.2039
-0.2464
-0.1247
-0.191
-0.1977
-0.1998
-0.1732
-0.1823
-0.08831
-0.2471
0.2108
-0.2052
-0.03659
-0.1456
-0.1917
0.0251
-0.263
-0.2024
-0.0007639
0.02841
-0.0007135
-0.1119
-0.008296
-0.2011
0.3711
-0.2099
-0.1573
-0.001844
-0.2697
0.09587
-0.09656
-0.1553
-0.1541
-0.0001612
-0.1452
-0.3045
-0.1902
-0.008641
-0.002727
-0.303
-0.007811
-0.2111
0.02306
0.0006224
0.2
-0.1968
-0.247
-0.1885
-0.1917
-0.2105
-0.1134
-0.3583
0.09704
-0.5653
0.00175
-0.2135
-0.536
-0.2433
-0.2522
-0.04485
-0.196
-0.158
-0.2188
-0.09389
0.0005371
-0.03826
-0.5628
-0.088
-0.2104
-0.2187
-0.05269
-4.079e-06
0.2231
0.001917
0.5012
-0.3584
-0.2481
0.3292
0.006064
-0.04127
0.0127
-0.002631
-0.00768
-0.1944
0.001946
-0.2439
0.1292
-0.08903
0.2035
-0.07012
-0.2173
-0.03213
-0.2693
0.05959
-0.2234
-0.2475
-0.1284
-0.2109
-0.1976
-0.2232
-0.08343
-0.2445
0.2987
-0.1057
0.02949
0.01528
-0.258
-0.2487
-0.263
-0.4066
0.3665
-0.00181
-0.2476
-0.6005
-0.1001
-0.02268
-0.2492
0.14
0.4396
-0.1913
-0.1129
0.1133
-0.2051
-0.1435
-0.1763
0.2313
0.001624
-0.223
0.03464
-0.2695
-0.2055
0.2435
-0.4535
0.05685
-0.1835
-0.2486
-0.03393
0.05805
0.0005142
-0.1851
-0.4093
-0.2693
-0.1108
-0.005269
0.05842
-0.006852
-0.1867
-0.1847
0.06094
-0.2094
-0.0659
0.3189
-0.1275
-0.02468
-0.2615
-0.263
-0.08112
0.02072
-0.1968
-0.2289
0.0001096
-3.341e-05
-0.2086
0.01108
-0.008927
0.06786
0.01064
-0.2039
-0.1932
-0.1756
-0.01642
-0.0385
-0.02055
0.006049
-0.1695
-0.1896
0.007474
-0.4564
-0.2244
-0.1969
-0.1843
-0.0228
-0.2426
-0.0179
-0.3934
0.0007013
-0.01989
-0.2629
-0.1519
-0.1838
0.03515
-0.2483
-0.189
-0.2164
-0.2443
-0.007867
-0.1896
-0.1923
-0.2442
-0.07427
-0.2232
-0.1896
-0.00911
-0.2602
-0.263
-0.2745
-0.1906
0.1107
-0.2608
-0.1942
-0.02344
-0.2983
-0.1929
-4.852e-05
-0.3044
-0.09885
0.007988
-0.2476
0.01706
0.2094
-0.03142
-0.5002
0.03073
0.1015
-0.2341
-0.01041
-0.2126
0.01567
-0.2653
-0.2729
-0.2148
0.4478
0.3319
-0.2511
-0.02783
0.001756
-0.2035
-0.2602
-0.1647
-0.2615
-0.248
-0.05418
0.002533
0.07291
-0.0001194
-0.04342
-0.08802
0.007393
-0.0005858
-0.2002
-0.2331
0.005865
-0.06432
-0.004387
-0.2594
0.007538
-0.07283
-0.01981
0.004696
0.2292
-0.1423
-0.1886
-0.1905
-0.2503
-0.09413
0.0557
0.1651
-0.04058
-0.1568
0.3468
-0.03747
0.007661
-0.2211
-0.1041
-0.06151
-0.1882
0.01548
-0.0002055
0.01004
-0.5034
-0.2533
-0.1042
-0.198
0.000568
0.005792
-0.1698
-0.0602
0.007298
-0.5005
-0.2565
0.08411
-0.1873
-0.1893
-0.4001
-0.2097
-0.0009212
0.1122
8.619e-05
-2.314e-05
0.1403
0.2144
-0.03324
-0.21
-0.2362
-0.1027
-0.02469
-0.2618
-0.2616
0.4734
-0.06432
-0.2466
-0.2521
-0.08669
-0.2736
-0.09083
-0.2024
-0.1849
-0.2615
0.07546
-0.2449
-0.2476
-0.3847
-0.00217
-0.1887
-0.2017
-0.1558
-0.1863
-0.1672
-0.1398
-0.001074
0.01085
-0.004322
-0.2544
-0.0002108
0.4271
-0.06118
-0.09911
-0.16
-0.02477
-0.1595
-0.1177
-0.1866
-0.2151
-0.0009158
-0.2142
-0.06934
-0.079
0.05625
0.01211
-0.1909
0.03126
-0.1899
-0.2297
-0.2385
-0.009528
0.1941
-0.1853
0.0219
-0.1277
-0.1637
0.1903
-0.182
0.07662
-0.009382
-0.1686
0.000611
-0.2469
-0.1869
0.02613
-0.08495
-0.2103
-0.1217
0.002359
-0.1109
0.2132
-0.06015
0.02887
-0.2064
0.1317
-0.2523
-0.2317
-0.02683
-0.2532
0.1584
-0.2057
-0.2041
-0.2267
2.43e-05
-0.2165
0.04105
-0.1616
0.06058
-0.2744
0.0002563
0.001072
-0.2258
-0.1844
-0.1821
-0.2856
-0.001188
-0.05809
-0.2488
0.0242
0.004948
0.004975
-0.1463
-0.08164
0.2135
0.03973
-0.1583
0.01217
0.3857
-0.004033
-0.1908
-0.2364
-0.08526
-0.08507
-0.2566
0.1273
-0.2014
-0.08699
-0.2779
-0.2045
-0.2508
-0.1279
-0.268
-0.2404
0.3227
-0.2682
0.0006578
-0.001765
-0.2529
-0.2408
-0.0004546
-0.2196
-0.2153
-0.08946
-0.253
-0.0195
0.0002001
0.4691
-0.2124
-0.1959
-0.2618
0.2821
0.3947
-0.2604
0.01699
0.2143
-0.2847
-0.2596
-0.008182
-0.1432
0.02821
-0.4861
-0.1149
-0.2634
-0.4027
-0.1937
-0.2209
0.4137
-0.09469
-0.2592
0.007987
0.2785
-0.002622
-0.1899
-0.2289
-0.1992
-0.2084
-0.1828
0.003684
-0.2448
-0.3071
0.009778
-0.2047
0.1315
-0.2126
-0.06108
-0.2365
-0.0828
-0.2196
-0.2552
0.0004645
-0.1888
-0.1836
0.1669
-0.118
-0.1836
-0.009068
-0.09995
0.008866
-0.2385
0.002539
-0.1459
-0.577
-0.1884
-1.065e-06
-0.2529
-0.06005
-0.1841
0.2336
-0.501
-0.2305
0.03046
-0.2004
0.153
-0.0005209
0.05533
-0.2505
-0.1394
-0.1684
-0.2408
-0.2107
-0.2294
-0.2679
0.1501
-0.2101
-0.2259
-0.01583
-0.1931
-0.2309
-0.06382
-0.1053
-0.1941
0.001992
0.002389
0.09801
-0.2465
-0.2543
0.011
3.496e-05
0.1465
0.1899
-0.2095
0.2148
-0.2057
-0.2145
0.006585
-0.00667
-0.001573
-0.1914
-0.2243
0.005066
0.0003835
-0.2984
-0.1155
-0.2375
-0.002804
-0.0767
0.01108
-0.2105
-0.1885
-0.2389
5.458e-07
-0.2098
-0.2343
0.2279
0.000196
-0.0531
-0.1837
0.004923
-0.08481
0.00918
-0.162
-0.2599
0.007333
-0.2451
-0.07388
-0.1891
-0.2584
-0.2575
-0.09033
-0.07849
0.4831
-0.1268
-0.5242
-0.1886
-0.186
-0.2658
-0.1322
0.0004303
-0.0118
0.008488
0.4685
-0.03408
-0.2576
0.001116
0.006112
-0.1153
0.1626
-0.2443
0.0003586
-0.001519
-0.1892
-0.3927
-0.247
-0.135
-0.1961
0.2136
-0.2357
0.2128
-0.2615
-0.2248
-0.2733
0.0003498
-0.2797
-0.2609
-0.03769
-0.2398
0.002326
1.832e-05
-0.2575
0.2971
-0.261
-0.1841
-0.03316
-1.224e-05
-0.2166
-0.2687
0.06508
-0.2655
-0.03131
0.007806
-0.2214
0.01723
-0.2609
0.1376
-0.1829
-0.1841
-0.2045
-0.2014
-0.233
-0.26
-0.07528
-0.2594
0.03234
-0.267
-0.1854
-0.2469
-0.001671
-0.05459
0.1141
0.345
-1.289e-05
-0.001649
-0.1985
-0.09413
-0.03018
-0.2616
0.3072
-0.2199
-0.2293
-0.153
0.2676
0.0315
-0.00772
0.0008432
-0.3235
0.03343
-0.2543
0.3428
0.1706
-0.1999
0.1671
-0.1669
-0.1932
1.568e-05
-0.1794
-0.02159
0.00703
-0.1995
-0.05759
-0.2633
-0.215
-9.584e-06
-0.1043
-0.1345
-0.1945
-0.1945
-0.2435
-0.2615
-0.6036
-0.2317
0.2763
-0.2032
0.01604
-0.1047
-0.1028
-0.217
-0.01317
-0.1907
0.1159
0.05752
-0.002917
0.1946
-0.105
-0.004404
-0.1856
-0.2043
-0.2097
1.037e-05
-0.1842
-0.2265
-0.08188
-2.125e-05
-0.2592
-0.1892
-0.2543
-0.2661
-3.466e-05
-0.2105
-0.184
-0.2377
-0.2488
0.01229
-0.2619
0.4936
-0.0159
-0.03156
0.000389
-0.2601
-0.221
0.05575
-0.05449
-0.07581
-0.2149
2.069e-05
-0.2105
-0.2067
-0.1728
-0.05826
-0.2053
-0.2046
-0.2108
1.517e-05
-0.2127
-0.2211
-0.2607
-0.1916
-0.2604
-0.1887
-0.2517
-0.1893
0.01193
0.003636
-0.1839
-0.2282
-0.2583
-0.1931
-0.2056
-0.2046
-0.2134
-0.1445
-0.001531
-0.2034
-0.08141
4.635e-05
-0.2164
-0.4832
-0.06051
0.1211
0.0002825
-0.2355
-0.1849
-0.007922
0.0002776
-0.2391
-0.209
-0.1962
-0.2029
-0.2098
-0.196
-0.07392
0.2475
-0.001779
-0.216
-0.205
-0.1775
-0.1569
0.2428
0.0002079
-0.008918
0.01242
-0.3079
-0.001841
-0.1572
0.3292
-0.08004
-0.06531
-0.0004479
-0.1881
-0.0864
0.001129
-0.08704
-0.001093
0.2611
0.5033
-0.2619
-0.2634
-0.194
0.002213
-0.2396
0.1424
-0.1465
-0.1861
-0.07444
-0.4399
-0.2045
-0.01783
0.1838
-0.05507
0.002456
-0.2402
0.08818
-0.4222
-0.1854
-0.05658
0.0002249
-0.09084
-0.1912
0.01144
-0.2744
-0.3376
0.4959
-0.3835
-0.3808
-0.2445
-0.1942
-0.1989
-0.1723
1.758e-05
-0.06785
3.082e-06
3.531e-06
-0.2573
-0.03853
-0.2628
-0.1782
0.3462
-0.1024
-0.04533
-0.5252
0.002673
-0.009059
-0.205
-0.2079
-0.04376
-0.2473
-0.202
-0.1903
-0.01387
0.499
-0.2487
-0.2018
0.007237
-0.2637
0.007142
-0.002243
-0.2444
-0.2296
-0.2096
-0.0004392
0.000208
-0.201
-0.196
0.1203
-0.2022
-0.2241
0.2061
-0.00573
-0.1837
-0.2737
9.909e-07
0.3077
-0.2088
1.173e-05
0.1899
-0.184
-0.227
-0.3339
-0.1652
-0.04848
-0.1834
-0.1515
-0.1112
-0.005834
0.005119
-0.023
0.2415
-0.2097
-0.247
0.2119
0.1771
-0.185
-0.151
0.1759
-0.1135
-0.2804
-0.004452
-0.2066
-0.19
-0.2515
-0.2332
-0.2234
0.006523
0.0176
-0.1954
0.04365
-0.1967
-0.07757
-0.1987
-0.1999
-0.2588
-0.2949
-0.2705
-0.06983
-0.2613
-0.1698
-0.226
-0.08282
-0.2048
0.02065
-0.2061
-0.1899
-0.1838
-0.223
-0.004317
-0.003227
-0.2107
-0.1989
-0.03744
0.0002687
0.2348
-0.2358
-0.1234
-0.2033
-0.258
-0.2179
-0.2685
0.002449
-0.01745
-0.14
0.1439
-0.1632
-0.1867
0.2213
-0.2388
-0.2564
-0.1279
-0.1458
-0.2017
0.2249
-0.09552
-0.2057
0.1908
-0.004422
-0.214
-0.1834
-0.2063
-0.2589
0.4997
0.00139
-0.2418
-0.02219
-0.0001102
-0.001744
-0.2638
-0.2443
-0.184
-0.187
-0.06503
0.142
-0.2103
-0.02453
-0.0628
0.0002602
-0.2118
-0.1907
-0.2108
-0.006698
-0.1836
-0.2082
-0.0002662
-0.07658
-0.1902
0.00362
-0.2604
-0.0001041
0.006221
-0.07093
-0.003445
-0.269
0.003567
-0.08611
-0.001628
-0.5004
-0.01172
-0.2047
-0.09061
-0.02157
-0.06261
-0.2201
-0.09633
0.0007226
-0.01354
-0.2517
-0.03374
-0.2039
-0.2131
-0.1793
-0.2124
-0.2174
-0.2586
0.04239
-0.3083
-0.1075
-0.07971
0.08152
-0.2072
-0.001116
-0.2532
-0.1845
-0.04014
-0.000167
0.3697
-0.2311
-0.1222
0.04534
-0.262
-0.07404
-0.2504
-0.2313
-0.1216
-0.1869
0.04123
-0.1863
-0.0002359
-0.1554
-0.2544
0.003166
-0.2508
-0.2672
-0.0001376
0.003072
-0.1838
-0.02692
0.06716
-0.2482
-0.1896
-0.03451
-2.917e-05
-0.2459
-0.2275
-0.008956
0.03058
-0.04434
-0.2345
-0.2397
-0.03743
-0.04466
-0.1836
-0.1835
-0.008957
-0.05364
-0.2155
-0.1739
0.0002123
-0.1126
-0.002145
-0.2203
0.2775
-0.2556
0.04268
-0.1855
-0.2586
0.002993
-0.1838
-0.2175
-0.2286
-0.1326
-0.4958
-0.2271
-0.1971
-0.1546
-0.07248
0.1112
-0.1824
-0.1986
-0.1747
-0.009902
-0.06249
0.3464
-0.1885
-0.2008
-0.04418
-0.2118
-0.264
-0.08235
-0.111
-0.2224
-0.2057
-0.08721
-0.007151
-0.05982
-0.04574
1.239e-06
-0.003299
-0.2549
-0.1846
-0.2081
0.0007872
-0.2505
-0.2003
0.005832
-0.4091
-0.07185
-0.2631
-0.1944
0.06422
-0.2015
-0.1838
-0.2018
-0.2044
-0.2126
-0.08262
-0.2675
-0.06522
-0.137
0.2024
-0.2579
-0.07385
-0.1711
-0.252
-0.2221
0.01926
-0.1619
-0.1993
-0.184
-0.2012
-0.04642
-0.1936
-0.1879
-0.2268
-0.04913
-0.2059
-0.02173
-0.3197
-0.2263
-0.2042
-0.212
-0.001782
-0.21
-0.2624
-0.2311
-0.2055
0.008099
-0.1402
0.002041
-0.02642
-0.1835
-0.2476
-0.05667
-0.2727
-0.2079
-0.1987
-0.01721
-0.1955
-0.2086
-0.4159
-0.2533
0.006577
-0.2395
0.003281
-0.3104
-0.01244
-0.2061
-0.01801
0.02884
0.0001733
2.542e-05
-0.1851
-0.1908
-0.2042
-0.1589
-0.0003118
-0.0003158
-0.2552
-0.2315
-0.2258
-0.2899
-0.08286
-0.09489
0.04794
-0.08349
-0.1956
-0.2137
5.381e-05
-0.1805
-0.2187
0.02197
-0.06577
-0.2512
-0.2192
-0.2141
-0.1562
-0.2512
0.2667
-0.2119
-0.2415
-0.2008
-0.2242
-0.1263
-0.05432
0.1824
-0.1867
-0.1844
0.001626
-0.133
-0.5772
0.0001216
-0.3104
-0.04034
-0.208
-0.04744
-0.002804
0.085
-0.1793
0.001654
-0.1657
-0.2185
-0.1205
0.4642
-0.01461
-0.09734
-0.1839
0.03775
-0.2134
-0.2578
0.1644
0.01875
-0.1954
-0.4077
-0.3362
-0.2203
-0.003772
-0.296
-0.2059
-0.156
-0.4626
-0.2056
-0.2168
-0.002713
-0.05913
-0.2107
0.002162
-0.2002
-0.000122
-0.5993
-0.1974
-0.1883
-0.2072
-0.2625
-0.394
-0.2472
-0.1434
0.08102
-0.3908
-0.2324
-0.2183
-0.2601
-0.2473
-0.2036
-0.0006914
-0.1869
0.001238
-0.2184
0.004305
-0.192
-0.002988
-0.3179
-0.2001
-0.0001884
0.005945
-0.1873
-0.1855
-0.2263
-0.001094
-3.379e-05
0.2032
-0.2384
0.0783
-0.1838
-0.2196
-0.194
-0.07129
-0.1045
-0.08689
-0.03611
-0.1893
-0.1855
-0.1813
-0.1877
-0.2074
-0.2656
-0.2609
-0.2662
-0.204
0.003295
-0.3877
-0.2383
0.1524
0.004511
-0.07034
0.139
-0.0727
-0.1916
5.788e-05
6.225e-05
-0.1429
-0.2102
0.0151
-0.2115
-0.07981
-0.002248
0.3184
0.001054
-0.07005
0.09023
-0.2993
-0.03566
-0.2362
-0.1313
-0.267
-0.235
-0.02524
-0.075
-0.2138
-0.01741
-0.1846
-0.1838
-0.05266
-0.2614
-0.02796
0.01748
0.004637
-0.09067
-0.1841
-0.2694
-0.1383
-0.002859
-0.2005
0.1048
-0.07359
0.4173
-0.03826
-0.229
-0.2176
-0.1662
5.86e-05
-0.4206
-0.2414
-0.1899
-0.1167
-0.2006
-0.1958
-0.004591
-0.2749
-0.1906
-0.2242
-0.1083
-0.2445
-0.1848
-0.06662
-0.2723
-0.1886
0.3058
0.001557
0.3313
-0.2348
-0.1353
-6.015e-05
6.228e-05
-0.1062
-0.3134
-0.5348
-0.4426
-0.1222
-0.1681
-0.3842
-0.001467
-0.2034
-0.02619
-0.007941
-0.003718
-0.2033
-0.0004801
0.1113
-0.003727
-0.5334
0.03777
0.2641
-0.3165
-0.1629
-0.00024
0.4999
-0.1979
0.1356
-0.2255
-0.2473
0.003007
-0.2532
-0.2104
-0.2242
-0.1872
-0.1836
-0.2135
-0.4992
0.2117
-0.03936
-0.0003896
-0.1959
-0.0002889
2.901e-05
0.009715
-0.1834
-0.0004072
-0.1798
0.001087
-0.2582
-0.2625
-0.2369
0.07511
0.0007445
-0.2082
-0.2456
-0.1889
-0.1119
-0.07215
0.05871
-0.001799
-0.00108
-0.263
0.5
0.05256
-0.07018
-0.03714
-0.2062
-0.03826
0.05163
-7.706e-05
0.09428
-0.2151
-0.1445
-0.04069
0.1712
0.02733
-0.2621
0.002814
-0.06299
0.1321
-0.189
0.2735
0.005811
-0.2388
-0.00168
-0.2616
-0.1243
-0.2093
-0.07035
-0.07113
-0.2151
-0.0246
0.1489
-0.209
-0.2626
-0.4578
-0.1927
0.0001564
-0.1902
-0.006574
-0.2779
-0.01813
-0.2707
0.005543
-0.189
-0.00309
-0.08529
-0.2134
-0.002093
-0.2086
-0.1359
0.205
-0.241
-0.002915
-0.1116
-0.001572
0.04509
0.2606
-0.03348
-0.2
-0.05015
-0.009926
-0.2646
-0.1853
0.3817
0.2039
-0.1904
-0.08776
-0.2552
-0.2685
0.4578
-0.09773
-0.1928
0.1751
0.0003776
-0.07301
-0.2329
0.2642
-0.09058
0.04125
-0.0007882
-0.1834
-0.2053
-0.2566
-0.2079
-0.03586
-0.2057
-0.09576
-0.06816
-0.0004182
-0.0942
-0.03885
-0.06718
-0.09193
-0.001044
-0.2597
0.001947
-0.2287
-0.05856
-0.2326
0.2662
-0.02511
-0.03798
0.004521
-0.07631
0.279
0.2027
-0.3447
0.02515
-0.1272
-0.07914
-0.004861
0.02921
-0.1842
0.0001807
-0.2678
0.02574
0.01915
0.2695
-0.05628
-0.1901
0.000298
-0.2252
-0.2602
-0.0002486
0.1041
-0.4196
-0.2339
4.53e-05
-0.2063
-0.1726
-0.2215
-0.3177
-0.2071
-0.1119
-0.2342
0.0001286
-0.0004641
-0.1842
-0.03487
-0.2607
0.2847
-0.1939
-0.172
-0.2555
0.03064
-0.2735
-0.1926
-0.3572
-0.1881
-0.184
-0.2513
-0.1194
-0.2017
-0.1086
-0.1893
-0.2342
-0.1855
-0.1846
0.2077
-0.211
-0.2227
-0.0812
0.01093
-0.4753
-0.1076
-0.2254
-0.1747
-0.08717
-0.02552
-0.1882
-0.2061
-0.0001607
0.05857
-0.06964
-0.2564
-0.2646
-0.2261
-0.03708
-0.01005
0.01557
-0.2474
-0.1832
-0.2473
-0.05885
-0.1008
1.415e-05
-0.4056
0.4981
-0.08695
6.007e-06
-0.2055
-0.205
-0.1248
-0.2583
-0.1909
-0.1167
-0.0002449
0.2934
-0.04892
-0.02009
-0.1937
-0.01158
-0.1122
-0.5635
-0.1358
-0.1896
-0.5443
-0.2001
-0.07679
0.0003218
0.1048
0.1225
-0.1992
-0.0842
-0.1922
-0.1149
-0.1965
-0.1254
-4.53e-05
-0.01224
-0.1515
-0.5297
-0.2043
-0.2562
0.03825
0.1559
0.01228
0.04418
-0.2712
-0.03558
0.003394
-0.09655
-0.1205
-0.09754
-0.1915
-0.01785
0.04701
-0.2538
0.2111
-0.2176
-0.1834
-0.0567
-0.04534
-0.154
-0.2114
-0.1845
-0.2048
-0.07871
-0.1686
-0.1911
-0.1615
-0.1193
-2.51e-05
-0.07926
-0.1905
-0.2021
-0.001448
0.004465
-0.2206
-0.06092
-0.1914
-0.04238
-0.1705
0.4716
-0.003457
-0.1216
-0.1989
-0.1968
-0.08349
-0.2111
0.01896
-0.2624
-0.2377
-0.06083
-0.261
-3.691e-05
-0.1902
-0.1981
-0.0722
-0.1779
-0.06287
-0.248
-0.006217
-0.1185
-0.2534
-0.2338
-0.1235
-0.1835
-0.06353
-0.2085
-0.2111
-0.2153
-0.2525
-0.1948
0.4202
-0.2097
-0.01043
-0.1893
-0.2016
-0.06332
-0.03697
0.0003801
-0.2429
-0.1704
-0.2634
1.433e-05
-0.2003
-0.1891
-0.1918
-0.1953
-0.2511
-0.1726
-0.2247
-0.06965
0.005928
-0.2059
-0.0006416
-0.1989
0.07305
-0.06883
-0.2219
0.001943
-0.06608
-0.1611
-0.1839
-0.002531
-0.03039
-0.1946
-0.1107
-0.3083
0.009245
-0.2606
-0.1905
0.02552
-0.1381
-0.2167
-0.307
-0.2575
-0.08106
-0.104
-0.1849
-0.2113
-0.5762
-0.1488
-0.2161
-0.0371
0.01009
-0.0004058
0.1455
-0.1558
-0.3571
0.006042
-0.237
-0.2088
-0.5705
-0.2188
-0.0252
-5.231e-06
-1.273e-06
-0.1059
-0.2554
-0.1861
0.4386
0.09393
-0.2347
-0.08146
0.00259
-0.1162
0.003384
-0.06422
-0.1866
-0.1344
-0.1115
0.06607
-1.331e-05
-0.08184
0.06606
-0.02383
0.07741
-0.2434
0.3851
-0.1852
-0.2624
-0.1489
-0.2545
-0.2443
-0.02853
-0.3485
-0.2027
1.536e-05
2.441e-06
-0.2115
-0.1974
-0.1648
0.2158
0.2213
-0.2617
0.000445
-0.002145
0.2254
-0.00201
-0.2381
0.0363
-0.3933
-0.03177
0.02352
-0.003998
0.362
-0.4917
4.915e-05
-0.08225
-0.05559
-0.07085
-0.1925
0.145
-0.2405
-0.2585
-0.2525
-0.2092
-0.09446
-0.2112
0.1618
-0.0134
-0.2424
-0.1838
-0.5404
-0.1906
-0.188
-0.2072
0.3076
0.2152
-0.02332
-0.05701
-0.06497
-0.2665
-0.02257
-0.1982
0.001954
-0.07378
-0.2062
-0.0584
-0.2247
0.06311
-0.2284
0.1935
-0.1568
-0.2517
-0.0736
-0.1535
-0.3236
-0.0003828
-0.1923
-0.1698
-0.2698
-0.222
-0.2127
-0.1216
-0.01651
0.005819
-0.2523
0.02623
-0.06162
-0.1856
-0.1942
-0.1661
-0.282
3.532e-06
-0.2566
-0.05992
-0.1906
0.2543
-0.1029
0.01262
-0.201
-0.01697
0.1748
-0.09395
-0.2503
-0.1983
-0.1847
0.002524
-0.2046
-0.1783
-0.1945
-0.4756
-0.1202
-0.2059
-0.2628
0.01199
-0.0168
0.2438
0.2198
0.2682
-0.2601
-0.264
-0.1197
0.1458
-0.4228
-0.2192
0.4385
-0.1833
-0.2051
-0.1558
-0.2084
8.737e-05
-0.2155
0.01048
0.002223
-0.4043
-0.01728
-0.2006
0.04361
-0.2321
-0.2517
-0.09224
-0.2675
-0.2163
0.4192
-0.2245
-0.1912
-0.1897
-0.2398
-0.2213
-0.000206
-0.1928
-0.2298
-0.2041
-0.1931
2.65e-05
-0.225
-0.124
-0.06512
-0.2328
-0.1837
-0.5304
-0.2136
-0.2267
-0.2404
0.02836
-0.2017
0.004139
0.008453
-0.2311
-0.1835
-0.2733
-0.2646
-0.1761
-0.2184
-0.01207
-0.2559
-0.2277
-0.2272
-0.09852
-0.2437
0.4812
-0.06067
0.1691
-0.07579
-0.2079
-0.1355
-0.184
-0.2204
-0.206
0.166
-0.1902
-0.2626
-0.08395
0.2097
0.002085
-0.2991
-0.2539
-0.2016
-0.06067
-0.07641
-0.2502
-0.4293
-0.2389
-0.2554
-0.5808
0.003059
-0.1897
-0.214
-0.08875
0.05683
0.06938
-0.01107
-0.2488
-0.2271
0.04666
-0.5348
0.08654
-0.2602
-0.3334
-0.2145
-0.09995
-2.92e-05
2.029e-05
-0.1354
-0.2599
0.07328
-0.3175
-0.1437
0.002783
-0.2641
-0.01647
-0.2587
0.003987
-0.01156
-0.2628
-0.2507
-0.1408
-0.5189
0.03258
-0.0008825
-0.1368
-0.1984
-0.00826
-0.03518
-0.1623
-1.012e-05
-0.04891
-0.2138
-0.2113
-0.1901
-1.424e-05
-6.572e-06
-2.323e-06
-9.864e-06
-0.06187
-0.1878
-0.02379
0.1911
-0.07351
-0.1915
-0.2452
-0.2826
1.003e-05
-0.2451
-0.2041
-0.1841
-0.2652
-0.1834
-0.1851
-0.09219
-0.07765
-0.2566
-0.1493
-0.04982
-0.08792
0.3721
0.02069
-0.1059
0.3652
0.2624
-0.002247
-0.1934
-0.2254
-0.001851
-0.1173
0.06284
0.193
-0.002557
-0.2028
-0.2642
-0.000365
-0.2619
-0.2096
-0.2408
-0.1882
-0.195
-0.08249
-0.2146
0.000354
0.2298
-0.1842
-0.2079
-0.2064
0.1937
0.003566
-0.01202
-0.2
-0.1845
-0.2249
-0.04029
-0.2389
-0.2668
-0.05472
0.4525
-0.07731
-0.2327
-0.2015
-0.1882
-0.2132
-0.07973
-0.1697
-0.07517
0.008577
0.1647
-0.004891
0.002936
-0.2027
0.0005509
0.4236
-0.2151
-0.1493
-0.2092
-0.03205
0.004881
-0.08223
-0.187
-0.05508
-0.1972
-3.582e-05
0.008726
-0.5596
-0.2681
0.004028
-0.2927
-0.2657
-0.1824
0.0001655
-0.2253
-0.245
-0.02948
-0.02449
-0.2186
-0.435
-0.6082
0.1347
-0.09093
-0.1838
-0.0006201
-0.04058
-0.2665
-0.153
-0.002707
-0.08609
-0.5805
-0.1671
0.003749
-0.09153
-0.2641
-0.1747
-0.05025
-0.2118
-0.003372
-0.2373
-0.3112
-0.208
-0.2424
0.003422
-0.1887
-0.186
0.1755
0.003984
0.003604
-0.1608
-0.2481
-0.2076
-0.1835
-0.2621
-0.07474
-0.2096
-0.2567
-0.1917
-0.21
0.001408
-0.264
-0.2629
-0.05102
-0.2123
0.2358
-0.144
0.4985
-0.2078
-0.2756
-0.1816
-0.1318
-0.04016
0.2245
0.04964
-0.08291
0.2029
0.00646
-0.586
0.001698
-0.2111
-0.2561
-0.192
-0.188
-0.4662
-0.2008
0.3318
-1.097e-05
0.4708
-0.2776
0.0002107
-0.2099
-0.191
0.3722
-0.1051
-0.1961
-0.2279
0.001138
-0.03037
-0.2443
0.1629
-0.07805
-0.2921
0.0008245
-0.2102
-0.08784
-0.1839
-0.1425
-0.1901
-0.19
-0.09562
-0.06079
0.005992
-0.01394
-0.001226
-0.0921
0.09868
-0.05426
-0.2061
0.002457
-0.167
-0.05965
-0.2564
-0.262
-0.2079
-0.000234
0.009081
-0.09197
-0.05323
-0.3335
-0.204
-0.2061
4.985e-06
-0.06229
-0.04019
6.576e-06
-0.2186
0.02054
-0.02244
-0.2413
-0.1898
-0.196
-0.2103
-0.1047
0.0918
-0.1262
-0.2054
-0.2626
-0.2163
-0.2196
-0.2467
-0.2056
0.05787
-0.05107
-0.1988
-0.1831
0.007698
0.1345
-0.1884
-0.1495
-0.2553
3.142e-05
-0.06252
-0.156
0.006128
-0.05894
0.2033
-0.2268
-0.3642
-0.1261
-0.1987
0.1895
-0.196
-0.1825
0.0003737
-0.2052
0.08071
-0.1096
0.08056
0.002511
0.3093
-0.2244
-0.2094
-0.2146
-0.226
-0.257
0.1051
-0.2381
-0.2096
-0.266
-0.1923
-0.3826
-0.2561
3.543e-05
-0.197
-0.1833
0.001068
-0.04165
-0.1322
0.0007848
-0.2734
-0.2419
-0.04915
-0.02353
-0.1006
-0.0002398
-0.2161
-0.01018
-0.004751
-0.1895
0.1844
-0.06555
-0.002735
0.1346
-0.006541
-0.1238
-0.2175
-0.237
-0.0819
-0.2386
-0.09327
-0.218
-0.4959
0.08576
0.0003045
-0.2208
-0.2129
0.0005343
-0.04344
0.005092
-0.1829
-0.2373
-0.4566
-0.2089
-0.0008766
-0.2382
-0.1222
-0.2737
-0.1873
-0.2686
-0.1884
-0.001355
-0.2265
-0.05774
0.001773
-0.2599
-0.1789
-0.05997
-0.2607
-0.04284
0.3456
-0.2776
0.0003656
1.269e-05
-0.02043
-0.06635
0.322
-0.1839
-0.2259
0.0119
-0.08704
0.2349
-0.08903
-0.002624
-0.185
-0.1383
-0.1083
-0.000431
0.4155
-0.2605
-0.1021
-1.257e-05
-0.08125
-0.2197
0.02346
-0.1156
0.001448
0.06458
-0.2172
-0.2549
0.001261
-0.1901
-0.1997
-0.267
-0.205
-0.2624
-0.109
-0.2104
-0.008616
-0.4768
-0.004871
-0.2374
-0.04889
-0.3559
0.2897
0.003698
-0.2921
-0.2587
-0.2259
-0.2431
-0.07695
-0.4025
-0.09673
-0.1676
-0.1835
-0.198
-0.1837
-0.2555
3.131e-05
0.2841
-0.04665
-0.1824
-0.1841
-0.2745
0.1502
-0.002323
-0.004734
0.03354
-0.09825
2.539e-05
-0.5741
-0.2344
0.004472
-0.01905
-0.1354
-0.1688
0.003346
-0.2077
-0.191
-0.08944
0.0172
-0.2628
-0.5852
-0.2602
-0.3876
-0.08895
-0.1867
-0.253
0.004191
-0.2297
-0.2564
-0.2335
-0.002027
-0.1295
-0.2125
-0.1941
-0.2076
-0.4006
0.1513
-0.2028
-0.2322
-0.189
-0.2225
0.228
-0.2093
0.02195
-0.04237
0.004267
-0.189
-0.003237
-0.2739
-0.179
0.004507
-0.255
-0.2191
0.1831
-0.05877
-0.2632
-0.05607
-0.2164
0.1166
-0.0114
0.01008
-0.204
-0.1843
-0.0001194
-0.2418
0.0485
0.2045
-0.1932
-0.2252
-0.1491
-0.08099
-0.2081
-0.2671
0.002466
-0.2182
-0.2963
-0.5471
-0.1026
-0.155
-0.3927
-0.2537
-0.2553
-0.005755
-0.2035
-0.233
-0.0003096
0.00103
-0.2171
-0.1037
-0.002281
0.1322
-0.1344
0.08439
-0.2071
-0.2691
-0.2367
2.101e-06
0.1297
-0.01349
-0.008946
-6.733e-07
-0.1575
-0.1894
-0.2066
-0.2363
-0.2619
-0.1992
-0.1899
0.0003245
-0.2427
-0.1922
0.4989
-0.2745
-0.09976
-0.1858
-0.1109
-0.002665
-0.1859
-0.2412
-0.1051
-0.09121
-0.1842
-0.2444
2.031e-05
0.003668
-0.1136
-0.189
-0.1984
-0.5202
-0.002612
-0.1861
-0.2268
-0.1741
0.002367
0.01791
-0.09721
0.05297
-0.2156
-0.2309
0.4119
8.713e-05
0.056
6.738e-06
-0.2501
0.04822
0.005705
-0.1893
-0.2193
-0.185
-0.1951
-0.1861
0.02538
0.0003294
-0.2598
-0.03512
-0.006396
-0.2627
-0.3907
-0.2252
0.000294
-0.05054
-0.1533
0.04256
0.2378
-0.2135
-0.001327
-0.5438
0.003577
-0.1841
0.005175
-0.001288
-0.007456
-0.01218
-0.2564
-0.227
-0.09542
-0.04723
-0.1924
-0.007314
-0.1923
0.006204
-0.0007753
-0.01762
-0.261
-0.2032
-0.1987
-0.00924
-0.2349
-0.1835
-0.2628
0.09694
-0.2094
-0.05999
-0.2302
0.1218
-0.1598
-0.2623
-0.1046
-0.1895
-0.1903
0.06081
-4.091e-06
-0.2428
-0.01015
-0.2485
-0.1807
-0.2642
-0.2619
-0.2623
-0.0004256
0.2556
-0.2438
6.32e-05
-0.452
-0.00264
-0.2082
-0.251
0.0005257
-0.2693
0.2482
0.001126
0.03927
-0.2065
-0.1811
0.02938
0.1879
-0.05732
-0.1099
-0.003943
-0.1643
-0.2048
-0.01952
0.1885
-0.221
-0.1046
-0.1598
-0.08342
-0.2591
-0.2334
-0.1847
0.3294
0.007268
-0.08906
0.1675
-0.1096
-0.2432
0.002623
-0.1974
-0.1244
-0.1518
-0.184
-0.2202
-0.2643
0.0001113
-0.06216
-0.2146
-0.2333
-0.01608
-0.05315
-0.03282
-0.2158
0.225
0.2222
-0.209
0.1208
-0.2057
-0.1084
-0.2626
-0.0217
-0.0001322
-0.2159
-0.0001771
-0.2054
-0.02267
-0.1515
-0.1933
-0.2335
-0.1426
-0.2422
-0.2228
-0.0004871
-0.001572
-0.0822
-0.1174
-0.1662
-0.3036
-0.2092
-0.04064
0.2551
-0.2626
0.08351
-0.2596
-0.1678
-0.04737
-0.2618
-0.09744
-0.03575
0.001303
-0.1332
-0.1183
-0.2241
-0.1874
-0.1137
0.003643
-0.1881
-0.1159
-0.003246
-0.1764
-0.03818
0.001771
-0.184
-0.02748
-0.1888
-0.005732
-0.2612
-0.2488
3.473e-05
-0.2552
-0.2639
-0.184
-0.2018
-0.2056
0.002086
-0.2676
0.0002749
-0.1519
-0.2549
0.4278
-0.02113
-0.1837
-0.1834
0.001057
-0.003357
-0.01837
0.03687
-0.04317
-0.09172
-0.2792
-0.06921
-0.2424
-0.1997
0.01711
-0.4965
-0.1536
-0.1202
-0.2086
0.003539
0.04878
0.075
-0.2673
-0.06486
-0.2335
0.001603
0.4383
-0.2681
-0.04101
-0.2104
-0.2631
-0.1721
-0.004384
-0.003474
-0.04142
-0.4225
-0.07438
-0.2038
-0.2132
0.01969
-0.09044
-0.03429
6.058e-06
0.2815
-0.2257
-0.1253
-0.3336
-0.2266
0.002178
-0.1146
-0.149
-0.1889
-0.197
-0.06661
0.06463
-0.2617
-0.04263
-0.06226
-0.09081
-0.1655
-0.2014
-6.365e-05
-0.1907
0.09784
-0.1508
0.01383
-0.193
-0.09487
-0.07283
-0.1994
-0.4979
-0.2521
0.4242
-0.2152
0.1959
-0.2554
-0.1142
-0.2664
-0.1246
-0.2052
-0.2403
0.09954
0.007859
-0.2405
-0.4753
-0.0002401
-0.2528
-0.2631
-0.2316
-0.1965
-0.1037
-0.03324
0.01225
-0.246
-0.21
-0.1862
-0.1894
-0.2132
0.1344
-0.1277
-0.2106
-0.222
-0.2539
0.2962
-0.1137
-0.1187
-0.0001644
-0.2525
-0.2433
-0.2461
-0.2278
-0.1128
-0.2532
-0.1626
-0.01707
-0.2683
0.01501
-0.2439
-0.2399
-0.0463
-0.06756
-0.223
-0.06469
-0.1854
-0.2035
-0.1586
-0.07018
-0.2048
-0.1118
-0.05913
-0.1836
0.1225
-0.2457
-0.1992
-0.2174
-0.1128
-0.5156
0.009837
-0.0175
-0.002028
-0.206
-0.1071
-0.1834
-0.109
0.2322
-0.1989
0.1116
-0.1981
-0.02155
-0.2222
-0.1415
-0.1478
-0.1068
0.4653
-0.0713
-0.2085
0.001664
-0.2591
-0.1993
-0.1957
-0.2318
-0.002081
0.00163
-0.2498
-0.2055
0.02973
-0.003178
-0.08572
-0.0006355
0.005918
-0.121
0.01375
0.0327
-0.1562
-0.0004775
0.03147
-0.2013
-0.4227
-0.271
-0.003787
0.2032
-0.09214
-0.1378
-0.1067
-0.1847
-0.2559
0.05609
0.1312
-0.05322
-0.2118
-0.1834
0.003941
0.02034
-0.1884
-0.4943
-0.002817
-0.2089
0.003119
-0.2422
-0.2411
0.05438
-0.2627
-0.1746
0.49
-0.06109
-0.1449
0.4306
-0.2164
0.04178
-0.1237
-0.213
-0.232
-0.08013
-0.2575
-0.1962
0.02435
-0.0002188
-0.2301
-0.1041
-0.1205
-0.1621
-0.009679
0.05845
-0.1897
-0.01223
-0.04153
0.07183
-0.207
2.823e-05
-1.045e-05
0.0002684
-0.1165
-0.5321
-0.2391
-0.228
-0.2545
3.261e-05
-0.02574
-0.05725
-0.1861
-0.08218
-0.4241
-0.2665
-0.1966
-0.5129
-0.2053
-0.225
0.3032
-0.2065
-0.25
-0.2136
-0.1191
-0.2044
-0.005171
-0.2027
-0.1372
-0.1264
-0.2644
0.1554
-0.2318
-0.2258
-0.1962
0.004223
-0.3463
-0.2422
0.01707
-0.1918
-0.00196
-0.05151
-0.08442
-0.06354
-0.2095
0.153
-0.2756
-0.2131
0.002571
-0.07263
-0.2327
-0.2261
-0.00973
-0.07657
0.0006236
-0.1274
-0.2441
-0.2054
-0.1835
-0.261
-0.26
-0.02249
-0.3462
0.3095
-0.1635
-0.0006906
-0.01382
0.02359
-1.479e-05
-0.1846
0.01331
-0.3732
-0.205
-0.1834
0.003543
-0.2763
-0.1846
-0.169
-0.06706
-0.09756
-0.2185
-0.1951
-0.03289
-0.1707
-0.2465
-0.1566
-0.01583
-0.1994
-0.2518
-0.009872
-0.1949
-0.204
-0.184
0.3551
-0.001481
-0.188
0.02026
-0.1994
-0.03917
-0.2162
-0.2379
-0.07929
-0.002656
-0.1521
0.3942
-0.1733
0.002544
-0.06845
-0.1926
-2.733e-06
-0.06606
-0.084
-0.2603
0.004408
0.004073
-0.2011
-0.007193
-0.0001094
-0.003479
-0.2054
0.05167
-0.1217
-0.2029
-0.1143
-0.1484
-0.1484
0.001991
-0.2166
-0.01856
-0.03536
0.01069
-0.1381
-0.1347
0.05924
-0.2
-0.247
-0.2037
-0.2322
-0.1867
0.05479
-0.1849
-0.2433
-0.2306
-0.2375
-0.1928
-0.002591
-0.2693
-0.2187
0.001462
0.3839
-0.09108
-0.1092
-0.2174
-0.07095
-0.07939
0.05971
-0.1392
-0.4142
-0.2562
0.002948
0.0854
5.944e-05
-0.198
-0.2217
-0.2581
-0.2984
-0.1893
-0.1628
1.704e-05
0.03127
-0.2776
-0.05943
-0.006373
-0.1057
-0.2149
-0.25
-0.2468
0.4466
0.1471
0.1191
0.2305
-0.1745
-3.975e-07
-0.1838
-0.2381
-0.2107
-0.06964
-0.1399
-0.0167
-0.2
-0.2273
-0.006975
-0.2862
-0.1019
-0.07314
-0.2975
-0.1215
0.2179
0.004894
0.08977
-0.1659
-0.1948
-0.255
-0.2442
-0.04322
-0.2041
-0.1986
-0.1362
-0.05057
-0.07649
-0.05534
-0.001722
-0.1859
-0.3076
-0.2063
0.081
-0.4962
0.001877
-0.003791
-0.2375
-0.002677
0.001149
-0.3949
1.843e-05
-1.221e-05
0.0639
-9.942e-05
-0.2151
-0.1944
-0.1636
-0.2223
-0.04356
0.001122
0.004297
-0.2505
-0.1017
0.2213
-0.1121
-0.2353
0.0006013
-0.1957
-0.2674
-0.1637
-0.1745
0.003136
0.011
-0.3974
-0.002628
0.001532
-0.1846
-0.0613
-0.01726
0.02102
-0.2591
-0.002104
-0.001509
0.002951
-0.1893
-0.09894
-0.2038
-0.2032
0.07304
-0.1347
-0.2154
-0.1921
-0.04811
-0.1891
-0.1164
-0.2455
-0.001023
-0.04082
-0.2333
-0.2922
0.0005688
-0.1851
-0.1972
-0.2408
-0.1885
-0.03475
-0.2066
-0.07495
-0.03712
-0.1845
0.00417
-0.5812
-0.002897
0.08321
0.003577
-0.3949
0.009141
-0.08162
-0.03428
-0.1838
-0.1931
-0.1856
-0.217
0.0002038
-0.611
7.969e-05
-0.1838
-0.2143
-0.2069
0.04485
-8.854e-05
-0.4681
0.004464
-0.1129
-0.2099
-0.2552
0.01551
0.01417
0.476
-0.01346
-0.1854
-0.2482
-0.2611
-0.2057
0.322
-0.2508
-0.5607
-0.1229
0.001472
-0.212
0.3533
0.009021
0.003106
-0.2672
-0.2077
0.3887
-0.3382
0.4134
0.005687
-0.1518
0.005814
0.0101
0.002954
-0.2918
-0.01177
-0.2324
-8.721e-06
-0.2143
0.0002687
-0.2601
-0.1639
-0.4784
-0.03524
-0.2434
0.2849
-0.0627
-0.08006
-0.1901
0.004955
-0.1548
0.001284
-0.2044
0.1082
-0.002608
-0.1208
-0.2785
-0.1863
-0.09888
-0.2151
-0.1253
-0.02587
-0.2409
0.2155
-0.3118
-0.259
-0.1836
-0.2196
-0.2135
-0.2599
-0.2083
-0.2381
-0.1846
-0.1775
0.0004462
-0.2582
-0.0002099
0.03084
0.07898
-0.07105
-0.1872
-0.5305
-0.2138
-0.1886
2.135e-05
-0.0853
-0.2211
-0.3577
-0.2106
-0.003624
-0.2122
-0.2563
-0.0806
-0.0001063
-0.2613
-0.08515
-0.2187
-0.219
-0.3144
0.2302
0.3518
-0.2095
-0.2532
-0.2511
-0.1898
-0.195
0.03059
-0.2773
0.1896
0.01578
-0.1976
-0.2033
-0.2103
-0.2475
-0.2706
0.004261
0.2063
-0.3499
-0.1657
0.182
0.1984
-0.1918
-0.2651
-0.0006336
-2.03e-05
-0.2268
-0.2042
-0.08642
0.003691
-0.2421
-0.2025
0.05282
-0.01892
0.001169
-0.1287
-0.1481
-0.2058
-0.2748
-0.2408
-0.2451
-0.1833
-0.1924
-0.2577
0.03941
-0.2164
0.4235
-0.1887
-0.1243
-0.09261
-0.2057
-0.002729
-0.0001051
-0.2095
-0.2112
-0.2144
-0.2192
-0.2026
0.008831
-0.1858
-0.2618
-0.1991
0.02879
-0.6071
-0.1846
-1.947e-05
-0.04411
0.02406
-0.04588
-0.1882
-0.2434
-0.01432
-0.3119
-0.3083
0.005167
-0.26
0.009107
-0.2014
-0.1851
-0.005113
-0.22
-0.2602
0.02074
0.09398
-0.03931
-0.1374
-0.007585
-0.09699
-0.195
-0.4449
-0.1956
-0.001416
0.009764
0.0003133
-0.2252
0.007834
-0.2363
-0.1843