/*--------------------------------*- C++ -*----------------------------------*\
  =========                 |
  \\      /  F ield         | OpenFOAM: The Open Source CFD Toolbox
   \\    /   O peration     | Website:  https://openfoam.org
    \\  /    A nd           | Version:  8
     \\/     M anipulation  |
\*---------------------------------------------------------------------------*/
FoamFile
{
    version     2.0;
    format      ascii;
    class       surfaceScalarField;
    location    "50";
    object      phi;
}
// * * * * * * * * * * * * * * * * * * * * * * * * * * * * * * * * * * * * * //

dimensions      [0 3 -1 0 0 0 0];

internalField   nonuniform List<scalar> 
189008
(
3.301e-08
-3.301e-08
4.238e-09
-4.238e-09
8.487e-09
-8.487e-09
1.23e-08
-1.23e-08
-1.163e-06
1.163e-06
1.258e-08
-1.258e-08
4.61e-06
-4.61e-06
-1.758e-06
1.758e-06
-1.063e-06
1.063e-06
5.304e-07
-5.304e-07
5.391e-06
-5.391e-06
-2.038e-06
2.038e-06
-4.656e-09
4.655e-09
-1.387e-08
1.387e-08
5.041e-06
-1.606e-05
1.102e-05
2.908e-06
-3.308e-06
4e-07
-2.753e-08
2.753e-08
0.002843
-0.003561
0.0007185
-0.001183
0.0006342
0.0005485
-3.465e-06
3.721e-06
-2.559e-07
0.0004444
-0.0003754
-6.894e-05
-4.452e-08
1.963e-08
2.489e-08
-0.003235
0.01036
-0.007129
1.233e-05
0.0002803
-0.0002926
-3.136e-08
-1.316e-08
-0.0001329
7.543e-05
5.749e-05
-9.6e-06
1.056e-05
-9.617e-07
-1.058e-05
9.763e-07
0.0001033
-8.1e-05
-2.226e-05
0.005935
-0.01447
0.008531
-2.482e-05
-0.0001143
0.0001391
-3.548e-05
-9.743e-05
2.538e-05
-1.756e-05
-7.824e-06
-2.415e-05
1.457e-05
9.583e-06
0.01152
0.01084
-0.02236
7.335e-06
1.804e-05
2.959e-05
0.0001758
-0.0002054
-0.00101
0.001468
-0.0004577
-2.753e-05
0.000349
-0.0003215
-2.615e-05
2.974e-05
-3.594e-06
-0.0008216
-0.000361
0.001925
-0.003747
0.001822
0.0005171
-0.004485
0.003968
1.331e-08
-1.331e-08
0.001728
0.001115
-1.278e-05
-1.137e-05
6.865e-05
3.461e-05
-0.0003791
0.0003935
-1.441e-05
-0.0004826
0.0005792
-9.659e-05
-1.798e-05
0.0002794
-0.0002614
1.011e-06
1.897e-06
-0.01399
-0.03053
0.04452
-2.914e-05
-2.325e-05
5.239e-05
-0.01273
0.01126
0.001471
1.083
-0.1281
-0.9545
0.0005509
-0.0004458
-0.0001052
-0.1467
1.229
0.01218
-0.007564
-0.004614
-0.3123
0.01853
0.2937
-0.005594
-0.007136
-0.002318
0.0001041
0.002214
-0.0002949
0.0006305
-0.0003355
-0.0001737
0.001366
-0.001193
-0.81
0.955
-0.145
-1.773e-05
4.037e-05
-2.264e-05
-0.0003123
-0.003214
0.003527
-0.02857
0.02269
0.005882
0.001616
-0.001345
-0.0002713
0.000453
0.001163
-1.277
0.4803
0.7971
-3.968e-05
-0.0001723
0.0002119
4.048e-06
6.514e-06
-0.0008166
-0.0004787
0.001295
-0.1155
-0.1968
-0.2734
0.5158
-0.2424
-4.303e-06
-6.274e-06
-0.05158
0.09163
-0.04005
-0.0003253
0.0003075
1.778e-05
0.0002972
0.0002537
0.1599
-0.6341
0.4742
-0.0001003
7.806e-05
2.227e-05
-1.503e-06
-1.963e-06
2.353e-05
2.725e-05
-5.078e-05
5.24e-06
2.338e-05
-2.862e-05
0.0001027
-0.0002748
0.0001722
-0.0001878
0.0003033
-0.0001155
-0.000426
0.0008002
-0.0003742
-4.405e-08
-5.187e-07
5.628e-07
-0.003145
0.002833
-0.0003507
0.0006135
-0.0002628
0.186
-0.02131
-0.1647
-0.005378
-0.006158
0.01154
-0.0002726
0.0008929
-0.0006203
0.0002562
0.0001882
0.000133
-0.0001351
2.09e-06
0.0286
0.01465
-0.04324
0.003347
-0.001422
0.0001374
-0.000139
1.529e-06
-0.0002582
-4.664e-05
0.0003049
-0.01883
-0.009738
0.6862
-0.5263
-2.794e-06
-0.0004798
-5.104e-05
-0.0001632
0.0002143
0.004387
-0.005325
0.0009381
7.403e-05
-0.0002619
-0.0003362
7.8e-05
-0.0008575
0.001221
-0.0003639
-1
-0.2773
-0.00123
0.0006137
0.000616
-1.154
0.8761
0.2778
3.207e-05
-2.703e-05
-2.681e-07
2.241e-07
-0.0002793
3.858e-05
0.0002407
0.0007032
-0.001053
0.0003501
-0.2118
0.09583
0.116
0.000632
0.002526
-0.003158
-0.1067
0.05822
0.04844
0.1657
-0.4392
0.02305
-0.07463
2.824e-07
-2.253e-07
-5.716e-08
-1.253
0.09889
1.365e-05
2.434e-05
-3.799e-05
-0.0003946
-0.0007318
0.001126
0.01405
-0.01202
-0.002028
-6.701e-05
-3.332e-05
9.422e-05
-8.763e-05
-6.589e-06
-0.000361
-0.0001906
0.0005515
0.08785
-0.1029
0.01501
-0.0001262
5.049e-05
7.57e-05
-0.0003778
0.0003068
7.098e-05
0.0001976
-6.158e-05
-0.000136
0.0001202
-4.666e-05
-7.355e-05
-0.0003409
-0.001157
0.001498
-0.0001341
-0.0001912
6.76e-08
-5.295e-08
-1.465e-08
0.0002081
-1.052e-05
-0.004638
0.03609
-0.03146
-0.0001412
0.0002924
-0.0001512
-9.991e-05
0.0001146
-1.473e-05
0.03388
-0.05499
0.02111
0.009222
0.0002962
-0.009518
-0.04765
-0.04239
0.09004
-7.415e-05
0.0001109
-3.671e-05
-0.0003512
0.0002182
0.0001329
-5.612e-05
2.698e-05
0.001509
-0.0005979
-0.0009112
-2.561e-05
-9.456e-06
3.506e-05
-0.02783
-0.7822
0.0001486
-2.84e-05
0.0001436
-0.0002091
6.555e-05
0.002585
-0.003803
0.001218
0.000697
-0.000195
-0.000502
0.003061
-0.00378
0.0007196
-0.00896
0.0002526
0.008707
0.0001592
-0.0003363
0.000177
0.0002606
-0.0001579
0.008056
0.004121
0.0003823
-0.000314
-6.83e-05
-6.835e-05
-0.0003107
6.005e-05
-0.0001142
5.414e-05
-0.000159
0.000291
-0.000132
-1.609e-05
1.609e-05
0.1921
-0.006097
0.0002504
-7.586e-05
-0.0001745
7.066e-05
-0.0001504
7.975e-05
1.418e-05
-3.191e-05
-0.0001729
1.664e-05
0.0001563
0.0001311
0.001636
-0.001767
-0.0001712
0.0001384
3.285e-05
-0.0417
0.03379
0.007903
5.633e-07
2.472e-06
-3.035e-06
-0.0001838
-0.0001673
-0.004602
0.001934
0.002668
-0.002734
0.0008666
0.001867
1.021
-1.194
0.173
-6.252e-05
4.259e-05
1.992e-05
-0.0008139
0.0004321
0.0003818
-6.804e-05
-5.814e-05
-0.000251
0.0004848
-0.0002338
0.1198
-0.1478
0.02808
-0.001786
-0.0009481
-0.1228
-0.002415
0.1252
-3.086e-05
3.944e-05
-8.582e-06
-4.166e-05
-2.085e-05
-0.0001612
-0.0002166
0.0003072
-0.0006021
0.0006216
-0.007056
0.006435
-0.0001492
0.0008524
0.0002991
-0.0002867
-0.004704
0.08586
-0.08116
-3.402e-06
6.29e-05
-5.95e-05
-4.689e-05
-9.379e-06
5.627e-05
-0.04364
0.03901
0.0008182
-0.0009561
0.0001379
4.007e-08
0.0001312
0.000407
-0.0005382
-1.47
1.199
0.2711
-1.463
1.193
0.2702
8.529e-07
1.501e-07
-1.003e-06
-0.1669
0.1321
0.0348
0.2043
-0.03798
-0.1664
-0.05815
0.04889
0.009263
0.027
-0.06989
0.04289
0.0001845
-0.0001549
-3.441e-08
3.441e-08
0.0002231
-0.0007597
0.0005367
0.02618
-0.007681
-0.0185
0.002776
-0.0006477
-0.002128
0.02743
-0.02149
-0.2087
-0.003164
0.002615
-0.02147
0.01885
-0.0002774
0.0002036
7.382e-05
-0.05985
0.2029
-0.143
-7.768e-05
-9.353e-05
2.557e-06
-7.977e-05
7.721e-05
7.295e-07
-9.544e-07
2.249e-07
-4.372e-06
3.95e-06
4.214e-07
0.003503
-0.002107
-0.001396
-4.664e-05
0.0001643
-0.0001176
0.02221
0.003972
-0.0007082
0.0002757
0.0004325
-0.4709
0.2221
0.2489
0.0006152
8.184e-05
3.435e-05
-3.762e-05
3.274e-06
5.563e-05
3.12e-05
-8.683e-05
-8.25e-06
6.762e-06
1.487e-06
-0.0001278
0.0001985
0.0004432
-0.001453
2.901e-05
-2.99e-05
8.878e-07
0.00037
-0.0003401
-2.996e-05
-0.0003859
0.0001
0.0002859
-0.04763
-0.07513
-0.001338
0.000521
-3.25e-07
3.963e-07
-7.128e-08
-0.0002362
-0.0001497
-0.02384
0.01881
0.005037
7.769e-05
0.0001727
2.335e-07
-2.335e-07
0.2257
-0.02138
-0.0001198
2.858e-05
9.126e-05
-8.315e-05
3.626e-05
-2.778e-05
5.764e-05
-2.986e-05
0.0002649
-0.0001835
-8.145e-05
0.0001867
0.0001956
0.000309
5.838e-05
-0.0003674
1.829e-07
9.956e-08
0.0006941
0.0003024
-0.0009965
1.105e-05
-9.999e-06
-1.054e-06
1.175e-06
-1.175e-06
0.197
-0.9679
0.7708
-0.0004627
-0.001841
0.002303
-3.501e-05
8.584e-05
-5.083e-05
0.002257
-0.001069
-0.001188
-0.0004082
0.0001412
0.000267
-0.0001016
0.0004529
-0.0003513
0.0006876
-0.000403
-0.0002845
0.1165
-0.02867
5.401e-05
-0.0001838
0.0001298
-0.0001992
0.00144
-0.001241
-0.009139
-0.0007843
0.009924
0.0006467
-0.0003541
-0.0002926
-0.06512
0.09768
-0.03256
-0.01398
0.008605
-0.08794
0.04029
-3.389e-05
-0.0001854
0.0002192
-4.29e-06
-3.523e-05
3.952e-05
3.748e-05
-7.353e-05
3.605e-05
9.924e-05
-0.000247
0.0001478
-0.001012
-0.0007497
0.001762
0.002854
-0.005728
0.002874
-0.0001835
-5.507e-06
0.000189
0.8565
0.1645
0.0003817
-0.0004785
9.677e-05
-0.0001223
2.44e-06
0.001084
-0.001842
0.0007573
7.443e-05
-7.784e-05
-0.0001531
-0.0001262
0.0006801
-0.0007873
0.0001072
-0.3775
-0.4328
0.8103
0.0007753
0.001296
-0.002071
-0.5426
-0.351
0.8936
0.04485
-0.01626
0.004433
-4.588e-05
-0.09048
-0.1659
0.2564
0.04513
0.121
-0.1662
8.767e-08
-2.753e-08
-6.014e-08
-0.0001906
0.0001558
3.477e-05
-0.0747
-0.102
0.1767
0.0007909
-0.0005801
-0.0002108
0.1733
-0.05352
-4.013e-05
0.003101
-0.002447
0.005449
-0.003003
-0.01104
-0.0128
0.001002
0.001379
-0.00238
-0.2066
0.2376
-0.03103
-0.0005171
0.000875
-0.0003579
-0.0001072
-7.242e-05
0.0001796
1.028e-05
2.115e-06
-1.24e-05
0.000103
0.000162
0.003912
-0.001058
-7.661e-05
-0.0001251
0.0002017
-0.003966
0.001154
0.002812
-0.001198
-0.001799
0.002997
0.003725
-0.003093
-4.62e-05
7.782e-05
-3.163e-05
0.0005385
0.0001124
-0.000651
0.002534
0.0002425
-0.1834
0.1235
0.0002555
-3.8e-05
-0.0002175
-0.003201
0.003236
-3.523e-05
0.0009314
7.492e-05
-0.001006
-2.16e-07
4.793e-06
-4.577e-06
-0.0003566
0.0002406
0.0001159
-0.8566
0.314
-0.2575
0.1341
0.1234
0.0002863
0.0001257
-0.000412
0.0005533
-0.0005307
-2.26e-05
-6.193e-05
-9.911e-05
0.000161
0.01814
-0.009235
-0.008909
0.194
-0.184
-0.01001
0.009108
-0.01234
-0.0001968
-1.222e-05
0.000209
0.09531
-0.05316
-0.04215
0.001591
0.000666
0.0004483
-0.000162
1.12e-05
0.0002047
-0.0002159
-0.01654
0.03206
-0.01551
6.561e-06
-4.178e-05
3.522e-05
0.0003553
-0.0001336
-0.0002217
-0.001766
0.0005301
0.001236
-0.0008313
0.0004805
0.0003508
0.1937
-0.1485
-0.006004
0.01753
-0.5005
-0.9694
-0.4982
-0.9653
-0.01087
0.001911
-0.001001
0.0008135
0.0001878
-0.004396
-0.0002061
-0.0003055
-0.0005258
-1.323e-05
-0.000122
0.0001352
-0.01247
0.04635
0.002396
0.001107
5.254e-05
-2.839e-05
-2.415e-05
-1.341e-05
-3.555e-05
4.896e-05
-0.0004534
7.679e-05
0.0003766
0.0002186
0.0005723
-6.429e-05
2.69e-05
3.74e-05
0.0001346
-0.0001659
3.132e-05
0.0002619
-0.0001869
-7.496e-05
2.073e-05
-9.131e-05
7.058e-05
-0.0003571
0.0002861
7.105e-05
0.0005056
-0.0005785
7.293e-05
-1.782e-06
5.495e-05
-5.317e-05
6.102e-05
-0.001608
-0.02737
0.02897
-8.617e-05
7.666e-05
9.507e-06
-0.0003109
-9.73e-05
-0.0002013
-0.001168
0.00137
0.3008
-0.4091
0.1083
0.0003147
4.06e-05
0.0002284
-0.0004309
0.0002025
-0.001612
0.001439
-0.00361
-0.003973
0.007583
0.0005416
-0.0005646
2.302e-05
-5.123e-05
0.0004008
-0.0003496
0.3808
0.1362
-0.517
-0.1187
-0.04824
-0.1712
0.2401
-0.06889
-2.686e-05
3.185e-05
-4.985e-06
0.4308
-0.8083
-0.00149
0.00152
-3.029e-05
0.06018
0.03513
8.292e-05
-0.0001179
3.904e-05
-0.0003219
0.0002829
0.1168
-0.1215
0.03076
-0.01362
-0.01714
-8.28e-05
0.0003532
-0.0002704
1.935e-07
1.567e-07
-3.502e-07
-0.0002288
0.000419
-0.0001902
0.9213
-0.6906
-0.2307
0.001307
0.002529
-0.003836
2.186e-05
7.236e-05
-0.000371
0.0002723
9.875e-05
0.006348
-0.004859
-0.001489
-0.08588
-0.02078
5.82e-06
7.951e-07
-6.615e-06
0.01621
-0.02048
0.004272
1.484e-06
-2.763e-05
-0.000377
0.0005288
-0.0001518
7.696e-05
-0.000814
0.000737
0.2459
-0.2553
0.009364
0.005869
-0.005035
-0.0008335
3.756e-06
-1.572e-05
1.197e-05
0.0001357
0.00033
-0.0004657
-0.0003916
0.0004308
-3.915e-05
-7.107e-05
0.000143
-7.193e-05
0.003874
0.001994
-0.0001676
0.0001428
-0.02289
0.02128
0.009408
-0.07453
3.05e-05
-4.977e-05
1.926e-05
-0.5078
0.03687
-0.0003947
-2.339e-05
0.0004181
-5.42e-05
2.334e-05
-0.0005402
0.01675
-0.004473
0.003552
0.0009209
-0.0001032
0.000374
-0.0002708
-0.002126
0.002102
2.392e-05
0.1111
0.4877
-0.5988
0.0002641
-0.0005151
-0.0002757
-0.0001937
0.0004694
-0.0003099
-3.366e-06
0.0003133
0.001219
0.008003
-2.956e-05
-0.0002664
0.000296
-0.001087
0.0006927
4.682e-05
8.62e-05
-0.0003778
0.0003208
5.703e-05
-0.0002181
3.46e-05
-0.0001578
0.00242
-0.002262
-0.0006507
0.0001132
0.0005375
-0.0001993
2.635e-05
-1.215e-05
1.129e-05
8.637e-07
-9.79e-05
0.0001046
-6.722e-06
-0.6755
0.8725
0.0005051
-0.0001351
0.008264
-0.01092
0.002659
-0.003674
0.004191
-0.01221
0.0006991
0.01151
-3.967e-05
1.188e-05
-0.01097
-0.007254
0.01823
-1.275
1.436
-0.1617
0.0001304
-0.0001318
1.459e-06
-5.224e-05
-2.789e-05
8.013e-05
0.006729
0.01125
-0.01798
0.00316
-0.003046
-0.0001136
0.5726
-0.1919
0.00105
-0.002078
0.001029
-1.353e-05
5.882e-05
-4.529e-05
-0.06019
0.0462
-0.02541
-0.1812
0.7013
-0.6554
-0.04599
0.0004086
-0.0004266
0.06615
-0.03005
-0.0003506
-0.0001143
0.0004649
0.05184
-0.0549
0.003061
1.837e-05
0.0001191
-0.009927
-0.1342
0.1441
0.0004126
-0.000303
-0.0001097
0.05438
-0.2256
-0.0001408
-0.0001366
0.000331
-0.0003625
3.152e-05
-0.0003955
0.0002321
0.0001634
-0.001359
0.003041
-0.001683
-1.56e-05
2.972e-05
-1.412e-05
-0.01951
0.007836
0.01167
0.0003045
-0.0001615
-0.0001431
0.0001612
5.106e-05
-0.0002123
5.297e-05
-5.84e-06
-4.713e-05
0.0003445
-8.312e-05
-0.0002613
0.0001643
0.007998
-0.008163
-0.002492
0.002151
-3.265e-05
-1.949e-06
3.46e-05
0.0001241
7.315e-05
-0.0001972
0.001958
-0.001688
-0.0002698
1.443e-05
-4.709e-05
0.3528
-0.943
0.5902
0.1189
-0.0004006
-0.1185
-0.0002953
0.000122
0.0001733
5.084e-05
-5.482e-05
3.982e-06
-1.539
0.1226
1.417
0.0005235
-0.0003197
-0.0002038
-0.002398
0.01179
-0.009392
0.005101
0.00895
5.168e-05
0.0005016
0.03127
-0.01703
-0.01424
1.412
-0.2682
-1.144
2.981e-05
-0.0002154
0.0001856
-0.01172
0.009322
4.575e-05
-4.034e-05
-5.409e-06
-7.081e-05
5.4e-05
1.681e-05
8.946e-05
-6.393e-05
-2.553e-05
0.000342
-2.713e-05
-0.0003149
-5.081e-05
7.227e-06
4.359e-05
-0.0002072
-0.0001494
-0.0007096
7.338e-05
0.0006363
0.0009549
0.002205
0.0002125
-8.714e-05
-0.0001254
-0.1252
0.2552
-0.1299
-9.85e-05
0.0001586
-0.1023
0.08381
0.01846
0.0007154
-0.0005856
-0.0001298
0.000413
-0.000839
7.916e-05
-6.629e-05
-1.286e-05
0.0002613
-0.001499
0.001237
-8.461e-09
-2.595e-08
-0.0002082
0.0001002
0.000108
-0.0002981
0.0007514
-0.0004533
0.03066
-0.01838
-0.01228
0.001896
-0.002399
0.0005031
-0.2871
0.2316
0.05558
6.617e-05
2.329e-05
0.1165
0.002469
0.0001354
1.7e-05
-0.0001524
0.0004648
-0.0003336
-4.865e-08
4.865e-08
7.38e-08
-1.997e-08
-5.383e-08
7.825e-08
-7.238e-08
-5.867e-09
1.196
-0.8185
-0.3779
-4.307e-05
-4.31e-05
3.653e-05
0.0004325
-0.000469
-0.145
-0.1125
-0.0005295
4.111e-06
0.0005254
-0.0002767
0.0008576
-0.0005809
-0.0001478
0.000161
-1.321e-05
0.003437
-0.000299
-0.003138
-3.205e-06
0.0003342
-0.000339
-5.65e-05
0.000324
0.0001995
1.078e-05
-9.999e-06
-7.842e-07
-0.4372
0.79
-0.0002185
0.0001285
9e-05
-3.646e-08
3.401e-08
2.449e-09
0.0004021
-0.0004562
5.412e-05
0.0001958
-4.4e-05
-0.0001518
4.463e-06
-3.9e-06
0.06353
-0.179
0.003436
-0.0008511
-0.05113
0.07813
-2.433e-05
0.0001484
0.04251
0.2465
-0.289
-0.00015
3.522e-05
0.0001148
-3.888e-05
-5.847e-05
9.735e-05
3.171e-05
-3.003e-05
-1.68e-06
1.526
-0.9019
-0.6239
-0.0002307
-6.463e-05
0.009492
0.003949
-0.01344
-8.41e-07
6.974e-07
1.436e-07
-0.0006353
-2.476e-05
0.0006601
0.0001141
-8.033e-06
-0.000106
0.0001999
-0.0001425
-5.74e-05
-0.1072
0.1026
0.004678
1.514e-05
-6.703e-05
5.189e-05
0.0009104
0.0007055
-0.001616
-0.8033
-0.7358
0.002382
-0.004918
-4.03e-05
0.004958
-0.0002181
0.0001109
0.0001855
0.0003561
3.981e-07
5.045e-05
4.056e-05
-6.377e-06
-3.418e-05
-0.0004735
9.654e-05
-0.003107
0.003726
-0.0006194
0.0006898
5.154e-07
-0.0006903
0.000103
-0.0002073
0.0001043
3.508e-05
9.531e-05
0.1127
0.05524
-0.1679
-3.856e-05
2.867e-05
9.893e-06
2.666e-05
-0.0001514
0.0001248
0.0002353
-0.0002599
2.463e-05
0.0009365
-0.001985
0.001049
0.0001124
-0.000205
9.267e-05
-0.7909
0.1142
0.6768
-0.7883
0.6297
0.1586
0.002417
-0.01156
-6.02e-05
-4.091e-06
-0.0005378
-0.001285
0.001823
0.1383
-0.2085
0.07022
1.473
-0.649
-0.8236
-0.001456
0.002364
-0.0009083
0.000175
-0.0002552
8.022e-05
-0.0004555
0.0001799
0.0002756
-0.0006863
-2.333e-05
2.993e-05
2.545e-06
-3.247e-05
-1.21e-05
1.127e-05
8.289e-07
-0.003094
0.002954
0.0001399
-0.1413
0.1002
0.04105
1.4
-1.278
-0.1228
-3.62e-05
1.807e-05
1.813e-05
-9.946e-05
-0.0002016
0.000301
0.0004932
-0.001513
0.00102
0.3136
0.5221
-0.8357
3.719e-06
7.333e-06
0.0023
-0.00268
0.0003806
-9.53e-05
9.392e-05
1.378e-06
0.4885
-0.0001649
0.0001885
-2.353e-05
-0.02715
0.1654
0.0001762
-0.0002794
-9.999e-05
3.834e-05
6.165e-05
0.001029
-0.0009163
-0.0001131
0.9787
0.1618
-1.14
-1.18e-05
-4.437e-05
5.617e-05
0.0004532
0.0001935
-3.872e-05
2.263e-05
0.391
1.021
0.0003516
-0.001209
-3.259e-06
-1.113e-06
0.3952
0.3061
-0.001711
-0.002761
-0.1645
0.005169
0.1594
-0.0002442
-0.0002817
0.0005259
0.0002204
-9.226e-05
-0.0001282
-0.2801
0.1896
4.96e-05
-4.514e-05
-4.462e-06
0.0001412
0.0002555
-0.0003967
-7.751e-07
8.338e-06
-7.563e-06
-5.002e-05
-4.406e-05
9.409e-05
-6.64e-05
2.385e-05
4.254e-05
-0.0001041
-0.000253
-0.0001229
-0.0002481
5.248e-05
0.0001828
-0.0002353
0.000419
-0.0004465
0.0006242
-0.0008968
0.0003671
-0.0005664
0.0001993
6.662e-05
-7.511e-05
8.494e-06
8.74e-06
1.015e-05
-1.889e-05
0.0001589
-0.0001184
-4.053e-05
-0.6
0.9136
0.0004215
-0.0002931
-0.0001284
0.1081
-0.1941
0.08602
-0.0004967
4.328e-05
-0.1244
0.03482
0.08956
4.844e-05
-0.0001226
-0.3422
-0.9326
-0.1524
0.07775
-0.002557
-0.005091
0.007648
-0.000321
-0.0003297
-0.0001635
-0.0001242
0.0002877
-1.04
0.128
0.9122
1.107
-0.899
-0.2079
4.587e-05
-1.686e-05
1.3e-05
5.592e-06
-1.859e-05
-2.431e-05
4.784e-05
-0.0002508
9.232e-05
0.0001585
0.0006647
-0.0002217
-0.000443
0.0002847
-0.0006353
-0.000283
0.0004172
-0.0001342
-0.0007031
0.0004275
-7.86e-05
4.305e-05
-2.436e-05
6.513e-05
-4.077e-05
-1.78e-05
-4.998e-06
2.28e-05
-1.16
0.1202
1.597e-05
3.971e-05
-5.569e-05
1.546e-05
-7.261e-05
5.715e-05
-3.481e-05
-0.004993
0.005028
0.009436
-0.005856
-0.003581
0.1783
-0.2396
0.0613
1.03
0.443
0.0003797
-0.0003685
-5.981e-06
-9.393e-05
5.867e-05
0.0001538
3.098e-06
-2.077e-06
-1.021e-06
-0.07636
-0.04801
-0.9854
-0.4035
1.389
-7.158e-05
-5.107e-05
0.0001226
-6.952e-05
1.333e-06
6.819e-05
-0.05103
-0.007127
1.093e-05
1.312e-05
-2.404e-05
0.01443
-0.002179
-0.01225
-0.03505
0.08776
-0.0527
-8.321e-05
2.99e-05
5.331e-05
0.002296
-0.002832
0.0005352
-6.311e-05
7.857e-05
0.004448
-0.009125
0.004677
-2.358e-08
2.358e-08
-1.04e-05
2.146e-06
4.905e-05
0.0002954
0.0002231
8.137e-05
-0.0001004
-9.014e-05
6.122e-05
2.402e-05
-8.524e-05
-0.0001587
-6.273e-06
-3.202e-05
5.881e-05
-2.678e-05
0.05597
0.007019
-0.06298
0.000107
-3.806e-05
-6.896e-05
8.035e-07
4.37e-06
-5.173e-06
-8.337e-05
-0.0003114
0.7437
-1.068
0.3245
0.000825
-0.0001449
-0.004658
0.004099
0.0005595
0.001162
-0.002969
0.001807
1.076
0.4497
-0.02574
0.7694
4.531e-07
-4.512e-07
-1.846e-09
0.02333
0.007335
0.0002141
-0.000372
0.0001579
4.565e-05
-4.759e-05
1.936e-06
-0.0003034
0.0005333
-0.0002299
0.0002567
-1.168e-06
0.004104
0.002941
-0.007045
0.0001236
-6.798e-05
0.003318
-0.006504
0.003186
0.00061
-0.0005208
-8.915e-05
-0.1494
-0.1992
0.3487
1.05
-0.04446
-1.006
-0.002259
-0.0004757
0.002734
-0.0009087
0.009172
9.155e-06
-3.602e-05
-0.001781
0.002943
0.0001944
-0.0002156
2.115e-05
0.0007644
-0.0002513
-0.0005131
0.000208
0.0001203
-0.0003283
-0.02041
0.02302
0.003981
-0.007591
-1.125
-0.386
1.511
-6.278e-05
0.0001177
-5.489e-05
0.02276
0.008509
-0.0006447
0.0004885
0.0001562
3.902e-08
-0.002235
0.0006484
0.001587
-0.0004418
0.0004079
0.0001464
-0.0003751
1.257
-0.2787
-0.00144
0.001631
-0.0001909
-0.0002041
-0.0003115
0.0005156
-7.302e-06
7.546e-06
-2.44e-07
-0.0004599
-0.0001653
0.0006252
0.0002383
4.755e-06
-0.000243
-5.637e-05
-2.223e-05
-7.128e-05
0.0002149
-0.0001807
-0.0001971
0.0001004
-0.0003334
0.000233
0.0004542
0.0002584
-0.0007126
0.0003801
-0.0004817
0.001032
-0.001754
0.0007224
-0.003413
0.0002123
5.392e-05
-0.0004149
0.003104
-0.005947
0.002843
-6.772e-08
6.772e-08
-0.0009804
-0.003678
-0.06614
0.02444
0.000142
-0.001104
0.0009621
0.0001654
0.0002951
-0.0004606
1.907e-06
0.0007078
-0.0007097
0.1016
0.3721
-0.4738
-2.541e-05
1.789e-05
7.52e-06
7.436e-05
0.0004312
-0.0004097
-4.582e-05
-1.511
0.5253
8.028e-07
2.296e-06
-0.0001221
2.419e-05
0.0001636
-0.0001872
2.362e-05
-0.388
-0.6375
1.026
3.525e-06
-3.555e-05
8.81e-05
-0.0001062
1.814e-05
1.957e-05
-6.027e-05
4.07e-05
1.779e-05
-7.351e-05
5.572e-05
-1.198
0.8099
-0.0004288
0.0002469
0.0001819
-1.292e-07
-1.225e-06
1.354e-06
3.975e-05
-6.058e-05
2.083e-05
-0.0003143
0.0003213
-6.953e-06
-0.1579
0.06284
0.09503
3.353e-05
1.901e-05
0.0001179
-0.0001586
4.075e-05
-0.1617
0.1679
-0.006177
0.002718
0.0005108
-0.003229
-0.00383
0.003745
8.464e-05
7.31e-05
-1.187e-05
-0.0001381
-7.017e-05
-0.002603
0.003757
-0.002527
0.000292
-5.56e-06
-0.0001083
0.0001139
-2.913e-05
6.661e-05
0.2819
0.5869
-0.8688
-0.0003013
-0.0001275
-0.000344
0.0006173
-0.0002734
5.226e-05
-5.3e-05
7.443e-07
-6.403e-05
-0.0002459
-0.01367
0.0119
0.001766
-0.0006478
0.0001183
9.271e-06
3.129e-05
1.028
-0.7461
2.219e-05
-0.00017
-3.368e-05
-4.953e-05
-2.99e-07
-3.338e-05
3.368e-05
1.612e-07
-4.862e-07
4.65e-05
-4.68e-05
1.372e-05
1.799e-05
0.000188
3.032e-05
-0.0002183
0.0002153
-0.0001389
-7.646e-05
-0.004521
0.001173
0.003349
0.1728
1.024
-6.02e-09
6.019e-09
6.368e-05
8.485e-05
-0.0001485
4.708e-05
-9.71e-05
2.571e-05
-2.338e-05
-2.329e-06
-8.999e-05
0.0002437
-0.0001537
1.394e-05
-7.299e-05
5.905e-05
-0.0001206
1.899e-05
0.0001017
-0.0002865
0.0002468
0.5592
0.8411
0.0001381
0.0002904
-0.0004285
-0.004433
0.001247
0.003186
-1.504
0.3788
-6.351e-05
0.0001076
-4.412e-05
0.0001582
0.0005572
0.001526
-0.0005943
0.0008352
0.0003182
-0.001153
0.1374
-1.017
0.8796
7.543e-05
-0.0003584
5.997e-05
-1.119e-05
-4.878e-05
-0.2747
-0.7145
0.8519
0.00686
0.002576
-0.0006218
0.00084
-0.0002183
0.0003449
0.0003198
-8.38e-05
-4.274e-06
8.808e-05
-0.0004126
0.0003623
5.035e-05
2.803e-06
-1.761e-07
-2.627e-06
-0.004075
0.0009962
0.003078
-0.003978
0.005319
-0.001341
-0.7988
-0.2695
-0.0002769
7.17e-05
0.0002052
-0.0002355
0.0001154
0.0001201
0.0002131
-0.0001764
-3.673e-05
5.029e-05
-9.649e-05
0.001893
-0.001762
1.085
0.08581
-1.17
0.2753
-0.2117
0.07797
-0.1343
0.05635
-8.444e-06
2.126e-06
6.318e-06
0.04541
-0.8442
0.03291
-0.01843
-0.01448
-7.101e-05
0.0001454
-7.443e-05
-0.000703
-0.0008341
0.001537
6.646e-05
2.737e-05
-9.383e-05
-0.2158
0.8472
-0.6314
-0.0001452
0.0001022
4.302e-05
-0.0003137
0.001745
-0.001431
-0.2387
-0.01742
0.2561
0.0001326
0.0001293
0.6916
0.4734
-1.165
-0.0003605
-0.0002195
0.00058
5.7e-06
-1.43e-06
-4.269e-06
6.958e-05
-3.362e-05
-3.596e-05
-0.0003833
-0.0006627
0.001046
1.052e-05
7.332e-06
-1.785e-05
0.1854
-0.04883
-0.1366
3.364e-05
2.637e-05
-6e-05
-0.008968
0.009038
-6.999e-05
-0.0001165
-3.349e-05
9.035e-06
-3.485e-06
-5.549e-06
-0.000113
-0.0001026
0.0002156
0.0001995
5.91e-05
-0.0002586
-0.007278
-0.006393
0.005329
-0.005892
0.0005636
0.001831
-0.0003578
-0.001473
3.255e-05
-3.255e-05
-0.3402
0.1971
0.1431
-0.001896
0.003599
-0.001703
0.0004869
-0.0003152
-0.0001717
-0.0001718
0.0003141
-0.0001423
-3.877e-06
4.68e-06
6.006e-05
-5.271e-05
-7.351e-06
-0.1177
1.202
0.0463
-0.02868
-0.01762
-2.566e-05
-1.054e-05
-0.000109
4.304e-06
0.0001047
-3.225e-06
4.657e-06
-1.432e-06
-0.0004351
0.001135
-0.0006997
1.813e-06
-1.813e-06
-0.00028
0.0003135
-3.355e-05
-7.135e-07
7.134e-07
-0.0001907
6.164e-05
0.000129
1.837e-05
1.094e-05
-2.931e-05
0.000342
-0.0002039
2.04e-05
-1.441e-05
-5.988e-06
0.09812
-0.0738
-0.02431
0.001297
-0.0009891
-0.0003078
1.092
-1.516
0.4241
1.318
-1.741
0.4229
-4.844e-05
-0.0001373
0.0001857
-0.04334
0.09223
-0.04889
7.312e-05
-2.283e-06
-7.084e-05
-0.003385
0.001498
0.001887
-0.001148
9.502e-05
-0.007744
0.008734
-0.0009894
0.04619
-0.1009
0.05474
-0.0005452
3.083e-05
0.0005144
0.000488
0.000778
-0.001266
0.252
-0.006027
-0.0009438
0.00116
-0.0002164
0.0001351
-0.0002464
0.0001113
0.09345
-0.04726
4.821e-05
-2.401e-05
-2.42e-05
5.728e-06
-5.728e-06
-8.478e-05
1.352e-05
7.126e-05
0.0008724
-0.002821
0.001949
6.307e-05
-3.614e-05
-2.693e-05
-2.802e-05
0.0001373
-0.0001093
-7.595e-05
7.262e-05
3.339e-06
-0.3383
0.1234
0.2149
9.121e-05
-1.205e-05
-0.0003174
-0.0003273
-0.04982
0.3506
5.429e-05
-4.064e-05
0.0002287
-1.994e-05
-0.0002087
0.0003933
-0.0006967
0.0003034
-0.4773
-0.5493
1.027
0.2174
0.0007285
-0.2181
0.002684
-0.001859
-0.0008245
7.183e-07
4.268e-07
-1.145e-06
0.000147
-0.002162
0.002015
-5.644e-06
5.644e-06
0.0005236
-0.0002692
-0.0002544
0.0007122
-0.0001859
-0.0005263
-0.001595
0.001456
0.0001391
1.39e-06
9.246e-07
-2.315e-06
5.903e-05
1.766e-05
-7.669e-05
-0.4117
1.373
-0.9609
-8.728e-05
0.0001198
-3.256e-05
0.00566
-0.0005326
-0.005127
-0.3003
1.333
-1.032
-0.000595
-0.000812
0.001407
-2.045e-07
1.057e-07
9.877e-08
0.001087
0.001377
-0.002464
-5.26e-05
3.145e-05
2.115e-05
0.006608
-0.003739
-0.002869
0.00125
0.003131
-0.004382
-2.667e-07
-3.797e-07
6.464e-07
1.213e-05
-1.213e-05
0.0003114
0.0001348
-0.0004462
-0.08798
-0.05328
-0.4604
0.2235
0.2369
0.002842
-0.001084
-0.001759
-0.001357
0.001037
0.00032
-4.13e-05
-7.354e-05
0.0001148
6.678e-05
-3.842e-05
-2.836e-05
-0.0005537
-0.0001964
0.0007501
0.000173
-8.252e-05
-9.046e-05
-0.001508
0.001363
0.0001449
-0.009646
0.01741
-0.007769
6.708e-05
0.0001059
-0.03214
-0.01511
0.04725
1.932e-05
1.143e-06
-2.046e-05
0.1368
-0.5756
0.4387
-0.0001825
-0.0002731
0.0004556
-2.118e-06
9.368e-06
-7.251e-06
0.0002475
-0.0002965
4.901e-05
-0.0001396
0.0001154
2.42e-05
0.0003917
-0.0001901
-0.0002017
-0.3822
0.09714
0.285
-0.189
0.05575
0.1333
2.054e-05
-3.4e-05
1.346e-05
0.00776
-0.008799
0.001038
-6.275e-05
0.0001228
-6.006e-05
0.0002517
-0.0004289
0.0001772
3.087e-05
-6.07e-05
2.983e-05
-0.0004388
0.0004319
6.944e-06
0.0003985
-0.0001187
-0.0002798
-0.0002044
0.0001984
6.076e-06
-9.416e-06
5.985e-05
-5.044e-05
4.286e-05
-4.286e-05
-5.497e-06
-5.298e-05
5.847e-05
-1.979e-05
0.0001383
-0.0001185
-7.407e-05
6.126e-05
1.281e-05
-0.002751
0.004133
-0.001381
-0.0002797
0.0006128
-0.000333
0.0001359
0.0006823
0.0001006
-0.0001043
3.706e-06
9.071e-08
-4.37e-06
4.28e-06
-1.468e-07
8.851e-08
5.832e-08
0.0004736
-0.0002189
-0.0002547
-0.3195
0.4211
0.5899
0.2174
-0.8073
0.0003471
-0.0004535
0.0001063
-7.319e-05
-0.0002062
0.0002794
0.004826
-0.0008876
-0.003938
-0.1886
1.18
-0.9916
0.000268
0.000599
-0.000867
0.0003848
3.235e-05
-0.002532
-0.005751
0.008283
-3.753e-05
-2.374e-05
6.127e-05
0.0008926
-0.0006503
-0.0002423
1.277e-05
-5.311e-05
4.034e-05
0.002788
-0.003286
0.0004977
0.7873
-0.6762
-0.008378
0.002802
0.005576
0.01228
0.0005516
-0.01283
6.903e-05
-8.015e-06
-6.102e-05
2.373e-05
3.971e-05
-6.343e-05
0.0001029
-7.769e-05
-2.517e-05
-0.00435
0.001711
0.002638
0.000558
-0.003873
0.003315
-1.6e-05
4.061e-05
-2.461e-05
-0.0003576
0.0005325
-0.0001749
-0.002039
-0.001345
0.003384
-0.0009068
0.0003522
0.0005545
-0.0006703
-0.000146
0.0008163
0.001113
-0.0009045
-0.0002083
-0.0002166
0.0001858
3.083e-05
0.0001383
-9.885e-05
-3.945e-05
0.26
-0.3212
0.06125
1.094e-05
-6.241e-06
-4.696e-06
2.038e-07
6.023e-07
-8.06e-07
-0.0005568
0.0002128
1.784e-06
-0.0001195
0.0001177
-2.891e-05
1.284e-05
0.02165
-0.1184
0.09672
1.071e-05
-1.071e-05
-4.722e-05
4.722e-05
-0.1666
-1.047
1.214
1.259
0.2309
-1.49
0.0001071
-6.132e-05
-4.58e-05
-6.444e-05
0.0003966
-0.0003321
-1.004e-07
1.175e-07
-1.706e-08
-1.4e-05
8.325e-06
5.675e-06
-0.0001477
0.001445
-0.0003148
0.0004087
-9.397e-05
-5.307e-05
-5.414e-06
5.849e-05
-0.0011
-0.00418
0.00528
0.003618
0.005177
-0.008795
-0.1898
0.06272
0.1271
-5.4e-05
3.624e-05
1.776e-05
5.398e-05
0.0004087
-0.0004627
4.406e-05
-8.833e-05
4.427e-05
-0.004661
0.001029
0.003632
-7.803e-08
-1.547e-07
2.327e-07
-0.0002067
0.0002847
-7.8e-05
0.8159
-1.147
0.3313
-5.46e-05
5.46e-05
-0.000126
8.198e-05
4.4e-05
0.1661
0.5628
-0.7289
-5.602e-05
5.207e-06
-1.287
1.12
0.242
-0.4264
0.1844
-0.002987
0.002088
0.0008991
-0.01119
-0.002131
0.01332
-5.454e-06
3.343e-06
2.111e-06
0.7808
-0.9461
0.1653
0.0002868
-0.0001522
-0.0001346
0.4758
-0.136
-0.3399
0.0004722
-0.000886
0.0004138
-0.01679
0.005559
0.01123
0.001261
-0.0009838
-0.0002775
0.00621
-0.00325
-0.00296
-7.157e-05
-0.0003012
0.0003728
-0.0003198
-0.0001275
0.0004473
-4.25e-05
-1.279e-05
5.529e-05
0.001534
0.0003377
-0.001871
0.1497
0.6506
-0.8003
0.01057
0.06118
-0.07174
0.0003177
-0.0001911
-0.0001265
-0.000108
-0.0005443
0.0006524
-2.815e-05
9.244e-05
-6.429e-05
-6.783e-05
3.843e-05
2.94e-05
2.378e-05
-1.425e-05
-9.531e-06
3.603e-05
9.249e-06
-4.528e-05
7.326e-06
-7.325e-06
5.538e-05
-9.945e-05
0.0007043
-0.0005164
-0.0001879
8.281e-06
-1.565e-05
7.369e-06
-0.0003912
0.0002539
0.0001373
5.803e-05
2.622e-05
-8.424e-05
0.005576
-0.00644
0.0008643
-0.0002358
2.355e-05
0.0002123
0.4951
-0.3657
-0.1294
6.297e-05
-6.832e-05
5.349e-06
7.157e-07
-1.096e-05
1.025e-05
-0.0001659
1.139e-06
0.0001648
0.4959
-1.094
0.5978
-0.0003596
0.0001224
0.0002371
-0.0006163
0.0003279
0.0002884
-0.001623
0.0004089
0.001214
0.001223
-0.0005582
-0.0006649
2.144e-05
-8.852e-05
6.708e-05
0.001433
0.006752
-0.008185
-3.615e-05
4.134e-05
-5.183e-06
9.424e-05
0.0003127
-0.000407
-0.0008236
-0.0007991
2.001e-05
3.681e-05
-5.682e-05
-0.0002685
-4.031e-05
0.0003088
2.442e-06
6.593e-06
-1.181
0.5417
0.6391
0.002182
-0.004246
0.002065
5.509e-05
-1.992e-05
-3.517e-05
0.129
0.05711
-0.1861
7.787e-05
-2.216e-05
-5.571e-05
-3.092e-05
-7.815e-06
3.874e-05
-1.247
1.247
0.001512
0.00235
-0.003861
9.561e-06
-1.28e-05
3.235e-06
0.06834
-0.05256
-0.01578
0.006653
-0.001077
1.805e-05
7.63e-05
-9.436e-05
7.357e-05
-1.754e-05
-5.603e-05
0.01231
-0.009503
-0.00281
-1.269
0.5236
0.7456
-6.638e-05
0.0001055
-3.911e-05
3.625e-05
-8.736e-05
5.111e-05
0.4033
-0.2559
-0.1474
-0.008586
0.005998
0.002588
0.0008443
-0.03117
0.03032
0.000314
0.0001248
-0.0004388
6.395e-05
2.211e-05
-8.606e-05
-0.001529
-0.0007739
0.002303
-0.0538
-0.05438
0.1082
-5.844e-07
1.137e-06
-5.529e-07
1.019e-08
8.348e-08
-9.368e-08
0.0001087
0.0003129
0.0002056
-0.0006884
0.0004828
0.0004127
-0.0006481
0.0002355
1.39e-05
6.496e-06
-0.3925
1.239
-0.847
0.0001402
-0.0007054
0.0005651
0.3499
-0.006923
-0.3429
-0.0001655
0.0002332
-6.777e-05
-0.0009427
0.000927
1.568e-05
-4.428e-05
-5.703e-05
0.0001013
0.0003239
0.0008992
-3.463e-06
3.652e-06
-1.889e-07
-1.071e-05
1.162e-05
-9.063e-07
-0.5585
0.2186
0.34
-7.14e-07
7.14e-07
3.51e-05
-2.64e-05
-8.693e-06
-1.17e-05
4.491e-05
-3.32e-05
-0.001405
-0.0001587
0.001564
-0.0001393
0.0001933
0.000318
0.0002366
-0.0005545
-0.0003883
0.0001691
0.0002192
-0.0001014
8.404e-05
1.736e-05
0.001597
-0.001116
-0.0004811
-0.009601
0.02478
-0.01518
2.509e-06
-2.509e-06
0.0001825
-0.0002239
4.14e-05
-0.0004337
0.0001939
0.0002398
0.0001498
7.498e-05
-0.0002247
0.0008573
-0.0007141
-0.0001431
0.0001909
0.0003181
-0.000509
1.445e-05