/*--------------------------------*- C++ -*----------------------------------*\
  =========                 |
  \\      /  F ield         | OpenFOAM: The Open Source CFD Toolbox
   \\    /   O peration     | Website:  https://openfoam.org
    \\  /    A nd           | Version:  8
     \\/     M anipulation  |
\*---------------------------------------------------------------------------*/
FoamFile
{
    version     2.0;
    format      ascii;
    class       volVectorField;
    location    "50";
    object      U;
}
// * * * * * * * * * * * * * * * * * * * * * * * * * * * * * * * * * * * * * //

dimensions      [0 1 -1 0 0 0 0];

internalField   nonuniform List<vector> 
127143
(
(0.0008921 -3.822e-05 0)
(-2.371e-05 -0.0001177 -1.406e-24)
(-4.958e-05 -0.0002435 2.487e-24)
(-6.456e-05 -0.0002951 -9.786e-28)
(0.006168 0.001927 -5.081e-23)
(-5.451e-05 -0.0003041 3.519e-27)
(0.01721 0.01098 0)
(0.00897 0.004125 -6.957e-23)
(0.007319 0.003535 2.296e-22)
(-0.001495 -5.355e-05 0)
(0.01846 0.02553 2.617e-22)
(0.01148 0.007649 2.515e-22)
(0.000153 -5.789e-05 -4.927e-25)
(-8.401e-05 -0.0003325 0)
(0.04448 -0.013 5.287e-21)
(0.01978 -0.001845 0)
(-0.0001106 -0.0005436 -4.025e-24)
(0.03981 -0.07482 3.001e-20)
(-0.1474 0.009191 0)
(0.03089 0.009476 0)
(-0.1411 0.03856 2.058e-20)
(0.0002817 -0.0001406 0)
(0.9888 -0.1447 0)
(0.348 -0.03389 0)
(0.000252 -0.0001317 -4.674e-23)
(0.1169 -0.01883 0)
(-0.01593 0.0001397 4.523e-21)
(-0.01596 -0.000387 -6.782e-23)
(0.1268 -0.055 0)
(0.3834 -0.08733 -1.017e-20)
(0.2727 -0.0171 0)
(0.1124 -0.01671 -1.413e-21)
(0.05602 0.01373 9.836e-22)
(-0.01891 0.005124 -5.82e-21)
(0.876 -0.07615 2.263e-20)
(0.05449 0.01588 -2.473e-24)
(-0.1529 0.05526 8.392e-21)
(0.2969 0.02186 -1.113e-20)
(0.4333 -0.03923 -1.333e-21)
(0.1105 -0.003046 1.104e-25)
(-0.1482 0.007881 0)
(1.092 0.4592 -6.791e-21)
(1.072 0.4481 5.243e-21)
(0.0003184 -0.0001088 0)
(0.02332 -0.07048 -2.592e-20)
(-0.01968 0.004471 1.845e-21)
(0.1296 -0.05938 0)
(-0.1868 0.06904 -1.198e-21)
(0.4322 -0.07621 3.212e-22)
(0.4105 -0.03279 -8.243e-22)
(0.02356 -0.00167 -4.53e-23)
(0.977 -0.03347 3.898e-20)
(-0.0572 0.0127 0)
(1.176 0.1476 -8.938e-21)
(1.001 -0.0009456 2.209e-20)
(0.3247 -0.08053 2.192e-22)
(1.001 -0.0009403 -1.986e-20)
(1.109 -0.08137 0)
(1.01 -0.008383 -1.428e-20)
(1.175 0.149 -1.74e-20)
(0.5135 -0.05927 -6.521e-20)
(-0.1386 0.05813 -1.608e-21)
(0.7908 -0.05326 4.61e-21)
(1.001 0.0004764 4.457e-20)
(-0.04165 0.003557 0)
(0.8727 -0.2355 -6.707e-21)
(1.084 0.1426 3.105e-20)
(0.7333 -0.0548 0)
(0.7443 -0.05426 1.263e-21)
(0.9908 -1.541e-05 0)
(0.3135 -0.02336 0)
(-0.01711 0.0001568 -2.128e-21)
(-0.1767 -0.02818 -7.966e-21)
(1.01 -0.008246 -7.9e-21)
(1.003 0.002777 -3.779e-22)
(-0.01719 -0.0002965 2.12e-21)
(1.009 0.03569 -1.876e-20)
(-0.1405 0.0484 0)
(0.3359 -0.08843 -3.916e-22)
(1 0.0006508 0)
(0.1234 -0.05698 7.318e-24)
(0.034 0.008754 1.04e-23)
(-0.03493 0.008339 3.701e-21)
(0.1364 -0.00945 0)
(-0.1412 -0.003288 1.574e-21)
(-0.1551 0.05481 0)
(0.5159 -0.0506 -3.032e-21)
(-0.0003264 0.0006579 1.403e-21)
(0.8718 -0.2329 0)
(0.9841 0.5992 0)
(1.001 -0.005861 0)
(1.191 0.03217 0)
(1.135 0.6952 0)
(-0.141 0.03852 -2.101e-20)
(-0.0812 0.01751 0)
(1.048 0.05493 1.812e-20)
(1.093 0.4512 1.427e-20)
(0.1922 -0.01373 0)
(-0.1544 0.04756 6.237e-21)
(1.081 0.1433 0)
(1 0.0006321 0)
(0.4568 -0.08281 0)
(0.5944 0.5522 -7.21e-22)
(1.086 -0.1244 0)
(-0.1583 0.05635 -2.867e-21)
(-0.1529 0.04718 8.868e-21)
(0.7452 -0.1165 -2.183e-21)
(0.99 5.429e-05 0)
(0.6987 -0.2691 0)
(1.002 -0.0007148 3.144e-20)
(0.05366 -0.01657 -1.689e-21)
(-0.0002084 0.0003345 2.689e-21)
(-0.1177 0.02883 -1.908e-20)
(0.2503 0.5298 0)
(0.996 0.009078 1.452e-20)
(1.034 -0.1688 -3.799e-22)
(0.9889 0.0388 -7.831e-21)
(1.003 0.002897 -2.763e-20)
(1.009 0.03473 1.471e-20)
(-0.0007292 -0.003128 0)
(1.002 -0.0007613 -4.397e-20)
(-0.03858 0.01021 -9.15e-22)
(0.7706 -0.2834 0)
(1.087 -0.08902 1.384e-20)
(0.1295 -0.05739 3.326e-22)
(0.0796 -0.01023 -3.733e-21)
(-0.1523 0.04889 0)
(1.033 0.005522 9.979e-20)
(-0.07041 0.006081 -3.33e-21)
(0.3271 -0.09434 -5.689e-22)
(-0.1103 0.03295 0)
(-0.08555 0.02071 -7.027e-21)
(0.9495 -0.08022 -9.111e-21)
(-0.1423 0.04897 0)
(-0.0001652 -0.0009851 -2.239e-23)
(-0.1133 0.03393 -3.669e-21)
(1.08 -0.0431 0)
(-0.1296 0.03716 4.311e-21)
(0.1569 -0.08881 -2.808e-21)
(1.102 -0.00266 8.886e-21)
(0.9584 -0.174 6.61e-21)
(0.9864 0.02682 4.76e-20)
(-0.04963 0.01527 8.644e-22)
(-0.07171 0.0278 -9.842e-21)
(-0.05432 0.01256 -3.24e-21)
(1.253 0.464 4.079e-21)
(-0.02847 0.1599 6.802e-22)
(1.001 0.0004138 -4.024e-20)
(-0.08249 0.01989 5.883e-21)
(0.4938 0.4302 -4.503e-22)
(1.086 -0.1159 -3.314e-21)
(0.4945 -0.09825 0)
(0.6256 0.05173 2.879e-20)
(0.8418 -0.1378 0)
(0.2877 -0.193 0)
(-0.1432 -0.003118 0)
(1.11 -0.08043 -5.028e-21)
(0.3166 -0.1111 0)
(-0.1869 0.06906 -2.231e-21)
(0.1677 -0.01505 9.076e-22)
(0.3441 -0.02128 0)
(0.02906 -0.01532 2.187e-21)
(1.001 -0.005597 1.197e-22)
(-0.1112 0.03328 -9.102e-21)
(0.1904 -0.04905 0)
(-0.04593 0.004146 4.38e-21)
(-0.128 0.04535 -4.424e-21)
(0.6835 -0.2288 1.526e-20)
(0.233 0.06346 -2.621e-21)
(0.9423 0.04598 -6.466e-21)
(-0.01263 0.003294 0)
(-0.07275 0.02836 4.576e-21)
(1.025 -0.1793 -9.524e-22)
(0.8946 -0.2586 -1.888e-21)
(0.9786 -0.0006714 3.687e-20)
(-0.06615 0.002908 7.575e-23)
(1.235 0.53 -6.759e-22)
(-0.07062 0.006297 -3.292e-21)
(0.401 -0.04052 0)
(1.007 -0.01819 5.246e-21)
(0.8935 -0.259 -6.478e-22)
(1.01 0.003303 0)
(-0.05084 -0.01281 1.06e-21)
(-0.06618 0.002134 -7.595e-23)
(0.3381 -0.0989 1.198e-21)
(-0.1361 0.05756 2.846e-21)
(1.026 0.2935 -5.605e-21)
(0.269 0.5462 -3.911e-21)
(0.3754 -0.03686 -2.43e-21)
(1.025 -0.02669 4.273e-20)
(-0.08518 0.01476 1.909e-21)
(-0.07458 0.009903 -8.319e-21)
(1.078 -0.04225 6.79e-20)
(0.3723 0.9059 -1.17e-22)
(-8.762e-05 -0.001018 3.734e-23)
(-0.1447 0.04281 0)
(1.003 1.135e-06 0)
(0.9987 -9.748e-07 2.269e-22)
(0.01374 0.007491 0)
(0.991 0.01293 4.532e-21)
(1.01 0.007251 2.817e-20)
(0.9327 0.003957 1.059e-19)
(0.9905 -0.04375 9.446e-21)
(-0.1589 0.05748 -4.195e-21)
(-0.0001146 -0.0006357 5.424e-25)
(0.6363 -0.03962 4.596e-21)
(1.015 -0.0951 -2.546e-21)
(1.002 -0.1779 3.074e-22)
(0.505 -0.111 6.985e-21)
(0.9961 0.00878 -7.483e-21)
(1.155 -0.02929 1.794e-20)
(-0.1231 0.0005653 1.009e-21)
(0.9954 -0.004582 9.154e-21)
(0.2448 0.06459 -2.804e-21)
(-0.08582 0.02589 3.476e-24)
(0.01838 0.001771 0)
(-0.0129 0.004327 -3.937e-22)
(0.9847 -0.1924 -8.347e-22)
(-0.1157 0.03061 -1.289e-20)
(1.016 -0.09389 -7.481e-22)
(1.226 0.5254 -1.342e-21)
(1.001 0.004626 -7.99e-21)
(0.4819 -0.09468 1.729e-22)
(-0.03071 0.01232 3.643e-21)
(0.1541 -0.01467 0)
(-0.02062 0.006876 0)
(0.2359 -0.06005 -3.917e-22)
(0.3582 0.03164 1.2e-20)
(-0.05784 0.01973 1.476e-21)
(-0.1602 0.05152 8.014e-21)
(-0.1382 0.03708 1.295e-20)
(1.011 0.002401 -9.163e-21)
(-0.1807 -0.02781 1.587e-20)
(-9.278e-05 -0.007402 0)
(-0.1385 0.03712 0)
(1.073 -0.07497 1.404e-20)
(-0.1111 0.03349 4.375e-21)
(0.002239 -0.000344 2.3e-23)
(1.01 0.007051 -2.618e-20)
(-0.08343 0.01652 9.718e-21)
(-0.07611 0.0102 7.839e-21)
(-0.05488 0.003078 -7.423e-21)
(-0.146 0.03947 -6.143e-22)
(0.3282 -0.1164 4.499e-25)
(0.3834 0.04649 0)
(-0.0005811 -0.003228 1.757e-26)
(0.6313 -0.1285 -8.363e-22)
(-0.01622 0.0003121 0)
(-0.003162 0.0008726 5.246e-22)
(1.001 -2.234e-05 -9.705e-22)
(1.21 0.3787 -1.544e-20)
(0.1162 -0.01297 2.674e-21)
(0.941 -0.2216 0)
(-0.1139 0.03198 0)
(0.4363 -0.1053 2.968e-22)
(0.7174 -0.2733 0)
(1.033 0.004992 -7.827e-20)
(0.4276 0.1387 0)
(0.9463 -0.2388 0)
(0.8679 0.2188 1.189e-20)
(-0.137 0.0422 -6.333e-21)
(1.013 -0.01339 8.186e-21)
(1.188 0.03313 1.606e-22)
(0.9858 0.02587 -3.848e-20)
(0.15 0.0206 0)
(-0.05039 0.004032 -2.327e-21)
(-0.05433 0.01762 5.871e-21)
(0.2485 -0.1821 0)
(0.5591 -0.1781 3.811e-20)
(1.206 0.1656 -5.805e-21)
(0.2002 -0.0355 0)
(0.9744 -0.001361 -4.445e-20)
(-0.1866 0.0669 -1.536e-21)
(-0.08458 0.01635 -1.02e-20)
(0.9389 -0.06013 7.375e-21)
(-0.08441 0.01495 -9.257e-21)
(-0.1189 0.02941 0)
(0.5023 -0.07965 2.873e-21)
(0.9551 -0.002058 -6.047e-22)
(0.8939 -0.2614 1.999e-21)
(1.003 -0.000355 3.091e-22)
(1.046 0.05873 2.582e-21)
(1.086 -0.124 -9.995e-24)
(0.9952 0.002492 0)
(1.002 0.009847 1.644e-21)
(-0.0004 -0.001022 -5.421e-24)
(-0.1085 0.0311 0)
(0.9962 0.009943 7.933e-21)
(0.4591 -0.06508 2.598e-21)
(1.006 -0.01822 6.823e-21)
(0.683 0.04896 -3.929e-20)
(0.9802 -0.1822 0)
(1.072 -0.07588 -1.384e-20)
(1.009 -0.1945 0)
(0.9982 -0.006226 -5.032e-21)
(0.6859 -0.2832 -3.532e-22)
(0.2603 -0.02061 1.911e-21)
(0.01099 -0.03392 -7.699e-22)
(-0.1463 0.03991 2.369e-21)
(1.208 0.1654 4.125e-21)
(0.1906 -0.02092 -1.062e-21)
(0.9219 -0.2194 -8.095e-22)
(0.7912 -0.226 -1.026e-20)
(1.033 -0.1684 3.665e-21)
(0.1465 -0.01065 0)
(0.4805 -0.2753 3.562e-23)
(1.006 -0.1782 1.029e-22)
(0.9952 -0.004749 0)
(-0.02845 0.02252 -1.028e-23)
(1.022 -0.107 -4.054e-21)
(0.6942 -0.1096 -2.742e-21)
(0.01246 -0.03318 -7.632e-23)
(0.2983 -0.07275 0)
(1.002 -0.0004705 8.651e-22)
(0.9925 0.002907 -2.042e-20)
(1.093 0.465 5.753e-22)
(0.1196 0.0197 6.114e-21)
(0.1813 -0.01979 2.5e-21)
(1.179 0.05125 2.436e-20)
(0.9067 -0.01452 -7.408e-22)
(0.9874 -0.1435 0)
(0.2991 -0.02057 -3.211e-21)
(1.06 0.01393 2.261e-20)
(0.94 -0.2208 8.037e-23)
(1.072 0.4519 0)
(0.1155 0.01848 -1.327e-20)
(0.9142 -0.04069 4.785e-20)
(0.04853 -0.01576 -6.228e-24)
(0.3241 -0.004062 1.873e-21)
(1.2 0.5904 6.266e-21)
(-0.1615 0.06247 0)
(1.003 0.009722 -2.115e-21)
(0.8812 -0.07729 -8.724e-20)
(1.003 8.172e-06 0)
(0.9986 -5.842e-07 0)
(0.8415 -0.1341 0)
(0.7106 -0.2707 -2.331e-21)
(1.025 -0.1794 -9.245e-22)
(-0.1618 0.06287 -2.218e-21)
(-0.09932 0.02789 -2.395e-20)
(1.099 -0.004474 -4.009e-20)
(0.9848 -0.1926 0)
(-0.03722 0.01463 3.027e-21)
(-0.08271 0.01495 1.564e-21)
(0.1991 0.1249 -1.442e-22)
(0.4501 -0.06269 -1.693e-21)
(-0.05226 0.01302 -3.855e-21)
(-0.0978 0.02181 6.299e-21)
(0.2142 -0.02544 -2.052e-21)
(-0.06045 0.006243 0)
(0.2269 -0.02479 1.699e-21)
(-0.06916 0.03501 6.18e-21)
(-0.08647 0.01817 -1.567e-21)
(-0.08376 0.01488 6.797e-21)
(0.9224 0.04744 0)
(-0.05856 0.01472 -9.903e-21)
(-0.115 0.0322 -6.151e-21)
(1.25 0.4313 -3.601e-21)
(1.004 -0.005805 5.254e-21)
(0.3101 -0.003352 0)
(-0.1824 0.06089 -2.292e-21)
(0.8293 -0.05591 1.346e-21)
(0.497 -0.06246 -3.465e-20)
(0.4302 -0.03072 0)
(0.4163 -0.03505 -2.591e-21)
(1.002 0.002285 1.413e-22)
(0.9913 0.01266 -1.357e-20)
(0.8917 -0.00109 0)
(-0.03245 0.005956 1.957e-21)
(0.9601 -0.001517 0)
(0.3908 -0.041 5.409e-20)
(1.061 0.01185 -4.833e-20)
(0.1429 -0.01562 -2.568e-21)
(0.4075 -0.02912 3.116e-21)
(1.026 -0.02531 0)
(1.148 0.04982 -5.712e-22)
(0.2845 -0.02473 2.196e-21)
(0.006059 -0.009235 2.135e-26)
(-0.1594 0.0521 -1.5e-20)
(0.9613 -0.004942 3.469e-21)
(0.3991 -0.01835 -5.358e-20)
(0.09249 -0.01192 3.76e-21)
(0.2432 -0.03087 0)
(0.9198 -0.2216 -3.403e-21)
(0.9893 0.03735 0)
(0.04447 -0.003225 0)
(0.9582 0.1506 0)
(0.1174 -0.003781 0)
(-0.1468 0.04335 -1.96e-21)
(0.1937 0.01274 -3.468e-20)
(1.011 -0.006362 -4.098e-20)
(0.7597 -0.1977 0)
(-0.03578 0.01175 1.027e-21)
(0.4387 -0.1126 3.853e-22)
(0.3724 -0.03359 4.905e-21)
(0.2576 -0.01645 2.057e-21)
(0.7642 -0.1999 -8.555e-21)
(0.2963 -0.01828 0)
(0.9211 0.04572 0)
(1.012 -0.0137 0)
(0.1237 -0.01054 -6.2e-22)
(1.001 0.004394 2.915e-21)
(-0.1285 0.0341 0)
(-0.0541 -0.01222 0)
(0.9636 0.1525 0)
(1.044 -0.1263 2.467e-21)
(-0.1628 0.05817 -1.478e-20)
(0.9286 -0.08568 6.688e-21)
(1 0.0005425 -8.038e-20)
(0.4325 -0.04479 0)
(0.6982 -0.3037 0)
(0.2156 -0.02836 -2.274e-21)
(0.9596 -0.1728 -6.824e-21)
(-0.1845 0.06944 0)
(0.7844 -0.2874 0)
(-0.08306 0.01796 -6.515e-21)
(-0.1479 0.04248 -1.523e-20)
(0.172 -0.03312 0)
(0.9123 0.08998 6.463e-21)
(0.5454 -0.2196 -1.186e-21)
(-0.132 0.04734 0)
(-0.01455 0.005087 -1.52e-21)
(-0.07601 0.02218 0)
(1.003 0.0001731 -1.17e-22)
(-0.1602 0.05145 -9.922e-21)
(0.9223 0.2624 -4.314e-21)
(1.066 0.436 3.87e-22)
(0.9267 -0.1614 -8.474e-21)
(-0.05762 0.003779 7.538e-21)
(0.9964 -0.1167 1.746e-22)
(1.003 -0.0001846 0)
(-0.076 0.02237 0)
(-0.08186 0.01786 0)
(1.167 -0.04051 1.093e-19)
(0.9544 0.1633 6.63e-22)
(1.002 0.00224 -4.79e-21)
(1.007 -0.156 2.354e-21)
(-0.05518 0.01295 -7.24e-21)
(0.9778 -0.03234 -1.478e-20)
(0.9979 -0.006164 0)
(0.9984 -0.0008475 -4.14e-21)
(0.4393 -0.03521 1.335e-21)
(1.079 -0.04748 -2.361e-20)
(0.7113 -0.2768 3.356e-21)
(0.9618 0.0317 0)
(0.2046 -0.01485 -1.25e-22)
(0.9903 0.002119 4.661e-20)
(0.3515 -0.2376 0)
(0.8751 -0.004729 -2.303e-21)
(-0.123 -0.0007937 9.876e-22)
(-0.1554 0.04495 0)
(0.2832 -0.03688 -8.765e-24)
(1.061 -0.1273 -6.851e-21)
(-0.03095 0.005363 1.112e-20)
(0.8618 0.08248 -9.124e-23)
(-0.169 0.05951 -1.405e-21)
(0.1831 -0.02221 -1.08e-21)
(-0.06076 0.003956 0)
(-0.1744 0.06304 0)
(1.139 0.12 4.221e-21)
(0.9745 -0.08389 3.053e-21)
(-0.02189 0.01158 8.41e-21)
(-0.02629 0.02865 0)
(0.3212 0.4916 -1.868e-20)
(-0.03305 0.0111 -9.179e-25)
(0.9935 -0.0008276 0)
(1.003 0.02401 0)
(-0.09864 0.02279 0)
(-0.05048 0.01369 3.901e-21)
(0.9993 -0.000131 0)
(-0.159 0.04859 6.781e-21)
(1.191 0.0512 2.014e-20)
(1.087 -0.08753 -2.096e-20)
(0.1464 0.0193 -2.066e-21)
(1.019 -0.07934 -4.509e-21)
(1.004 -8.96e-05 0)
(0.2244 -0.1297 -1.542e-20)
(1.189 0.05146 -1.975e-20)
(-0.05965 0.02076 -9.314e-22)
(0.05747 0.01959 7.477e-22)
(0.122 -0.06436 2.418e-22)
(0.3462 -0.2367 -1.785e-21)
(-0.05561 0.008855 2.035e-21)
(0.2993 -0.07053 0)
(0.702 -0.298 0)
(0.9807 0.1671 -6.587e-22)
(0.1523 0.02268 -5.236e-22)
(1.009 0.00185 3.345e-20)
(0.1942 -0.01664 -1.792e-21)
(0.9738 0.008833 3.92e-20)
(1.206 0.5262 2.047e-22)
(0.5532 -0.05488 2.667e-21)
(-0.06574 0.0109 0)
(1.254 0.4488 1.813e-21)
(-0.000194 -0.001072 0)
(-0.09921 0.03028 1.004e-20)
(0.2699 0.3186 5.591e-21)
(1.094 -0.03014 -2.618e-22)
(1.005 0.7084 6.373e-21)
(0.9949 -0.002587 -5.867e-20)
(0.1193 -0.067 0)
(1.004 0.02407 1.371e-23)
(-0.1384 0.04089 0)
(-0.1413 0.04204 -6.707e-21)
(-9.153e-05 -0.0005548 0)
(0.001091 0.0003478 3.176e-23)
(0.001225 -0.0004467 -9.896e-24)
(1 -0.000275 -2.905e-20)
(-0.06018 0.0152 0)
(0.5151 0.1011 0)
(0.9928 0.00305 3.973e-20)
(-0.1771 0.06484 3.496e-21)
(0.7415 -0.2738 4.101e-21)
(-0.1084 0.03546 9.243e-21)
(1.056 -0.1528 0)
(-0.1546 0.04458 0)
(0.2775 -0.03418 -1.61e-21)
(-0.1591 0.04868 -6.89e-21)
(-0.01094 0.002065 4.738e-22)
(0.9986 -0.0005592 0)
(-0.1018 -0.009968 -1.37e-21)
(0.0002481 -0.0001069 0)
(0.4915 -0.2008 7.502e-22)
(0.2068 -0.02017 7.706e-22)
(-0.01396 0.003467 3.65e-22)
(1.01 -0.007755 -1.238e-20)
(1.09 -0.1154 -3.594e-21)
(0.9936 -0.04424 -2.756e-21)
(-0.01243 0.02684 1.075e-20)
(1 -0.004413 0)
(0.1711 -0.01331 0)
(0.2929 0.1372 0)
(-0.0463 0.0156 -1.648e-21)
(0.9986 2.4e-05 0)
(-0.09892 0.02321 -5.977e-21)
(1.058 -0.09895 -9.913e-21)
(0.001868 -0.002418 9.352e-26)
(0.6707 -0.3008 1.755e-21)
(0.2199 0.06457 6.127e-22)
(-0.01254 0.023 -3.564e-21)
(0.9718 0.001629 2.588e-21)
(-0.08752 0.03085 -1.42e-21)
(0.7871 -0.294 -2.571e-21)
(0.9992 -0.0001319 3.218e-21)
(0.9211 -0.2212 4.569e-21)
(0.9997 0.0996 -2.858e-20)
(0.2837 -0.02355 -1.739e-21)
(0.4433 -0.03026 2.033e-21)
(-0.04644 0.01262 -3.84e-21)
(-0.03435 0.01175 7.23e-22)
(-0.1451 0.04285 3.437e-21)
(1.141 0.1719 0)
(0.5979 -0.2377 1.044e-21)
(-0.1251 0.04372 0)
(-0.07946 0.02332 1.806e-22)
(1.017 -0.002641 -6.462e-21)
(0.13 -0.0047 2.015e-22)
(-0.1226 0.03564 -5.79e-21)
(0.2073 -0.03307 2.749e-21)
(0.882 -0.09495 -6.08e-21)
(-0.1655 0.05012 2.385e-21)
(1 0.001141 0)
(0.9998 0.00144 1.394e-20)
(0.8745 0.2099 -1.932e-20)
(-0.05062 0.01241 -1.844e-21)
(0.9825 0.7428 0)
(0.9914 0.003664 -2.706e-20)
(1.003 1.676e-05 -4.684e-22)
(0.7983 -0.2855 0)
(0.387 -0.1703 0)
(-0.1654 0.05964 4.628e-21)
(0.7005 -0.2986 0)
(-0.03556 0.01224 2.529e-21)
(-0.01186 0.003908 0)
(0.977 -0.2148 -1.231e-22)
(1.008 0.03091 0)
(1 -0.0003571 5.473e-21)
(-0.05135 0.01818 1.443e-21)
(-0.1572 0.04647 -6.052e-21)
(0.8676 -0.204 1.898e-22)
(1.003 -0.0009552 9.105e-21)
(-0.01769 0.0004086 1.026e-21)
(0.9618 -0.09518 0)
(-0.08371 0.02354 6.785e-21)
(0.9613 -0.003723 9.021e-21)
(0.1393 -0.01647 2.193e-22)
(0.9913 0.003413 4.97e-20)
(-0.1655 0.05945 -2.445e-21)
(-0.06167 -0.01528 0)
(0.1303 0.01786 6.645e-22)
(1.001 1.622e-05 1.59e-22)
(-0.05908 0.01977 -5.404e-21)
(-0.1364 0.04172 -1.504e-21)
(0.05196 -0.03212 -3.088e-21)
(1.004 -8.226e-05 -1.339e-21)
(0.7716 -0.1229 2.203e-21)
(-0.01308 0.004303 1.831e-22)
(0.9985 -0.0009224 0)
(1.046 -0.1275 0)
(0.993 0.00856 -8.851e-22)
(0.5554 -0.03588 2.664e-21)
(0.0909 0.01705 0)
(0.9953 0.002317 2.764e-20)
(-0.04116 0.01052 8.747e-21)
(0.3221 -0.0444 1.341e-21)
(0.01083 -0.03552 0)
(-0.08563 0.01412 -1.077e-20)
(-0.02542 0.01467 -1.893e-21)
(0.24 -0.02529 -5.087e-21)
(0.2514 -0.02939 -1.57e-21)
(0.1862 -0.02899 -2.076e-20)
(0.4599 -0.04299 -1.152e-21)
(1.155 0.7109 8.013e-22)
(0.4716 -0.02102 -2.344e-21)
(-0.09678 0.02633 -1.743e-21)
(-0.001225 0.01189 -4.15e-21)
(0.1661 -0.01491 8.698e-22)
(1.003 -0.0009249 0)
(0.3106 -0.06429 1.984e-22)
(0.9941 0.002709 -1.138e-20)
(0.2148 0.1431 -1.582e-20)
(1.035 0.02038 3.933e-20)
(-0.04513 0.01517 1.242e-20)
(1.003 -0.0002174 0)
(0.996 0.009773 2.047e-20)
(1.113 -0.08045 2.388e-20)
(0.5546 -0.224 6.146e-22)
(-0.1313 0.03463 9.216e-21)
(1.003 -0.0004712 8.082e-21)
(1.002 -0.001249 -1.27e-20)
(-0.06211 0.02087 -1.499e-21)
(0.03114 0.005798 0)
(-0.04187 0.00989 3.86e-21)
(0.2004 -0.01643 -2.979e-21)
(-0.1703 0.02477 0)
(0.7109 -0.2757 -3.082e-21)
(-0.1563 0.0452 -1.385e-21)
(0.6968 -0.3043 0)
(-0.08195 0.01503 -2.159e-22)
(-0.06446 0.01929 -1.641e-20)
(-0.04048 0.003144 0)
(1.003 -0.0004969 -1.435e-21)
(-0.0579 0.004208 7.605e-21)
(-0.08107 0.01621 7.765e-22)
(1.03 -0.1622 -9.189e-22)
(1.203 0.1113 0)
(1.001 -0.00474 -1.053e-20)
(1.003 1.901e-05 4.383e-23)
(0.152 0.01919 -1.262e-20)
(0.1822 -0.1031 2.559e-24)
(0.1518 0.02428 2.626e-21)
(-0.006875 0.0021 3.135e-22)
(1.034 0.02118 0)
(1.004 -1.43e-05 1.713e-23)
(-0.09464 0.02973 0)
(-0.06521 0.00539 0)
(0.9357 0.004038 -8.414e-20)
(-0.03717 0.004327 -2.081e-21)
(1.026 -0.137 0)
(0.9961 0.008102 -1.79e-20)
(-0.04724 0.01431 6.087e-21)
(0.9623 -0.2295 -1.806e-22)
(-0.07895 0.0162 4.991e-21)
(0.8387 -0.1642 -3.338e-20)
(0.0003082 -9.722e-05 0)
(-0.02199 0.007151 0)
(-0.1754 0.06349 -1.257e-21)
(-0.1682 0.05988 2.634e-21)
(-0.1092 0.0309 0)
(-0.07294 0.01228 6.985e-21)
(0.1581 -0.02212 -4.896e-22)
(-0.05353 0.008552 0)
(0.9694 -0.02569 -9.411e-21)
(-0.0745 0.007959 1.469e-20)
(0.001184 -0.02158 0)
(-0.1283 0.03438 -1.005e-20)
(1.001 -0.0009053 2.91e-20)
(0.5356 -0.08318 -2.154e-21)
(0.8526 -0.2276 0)
(0.5561 0.01885 -2.77e-20)
(0.9985 8.955e-06 3.471e-23)
(1.002 -0.0009367 -3.877e-20)
(0.002821 -0.004693 0)
(1.094 -0.02794 -6.9e-21)
(0.352 -0.06728 8.67e-22)
(-0.07523 0.01149 -4.852e-22)
(0.5055 -0.283 0)
(-0.02984 0.02179 1.471e-20)
(1.191 0.1961 0)
(0.1746 -0.01437 8.715e-22)
(0.6854 -0.00378 4.446e-20)
(0.4458 -0.1216 0)
(1.009 0.001631 -1.21e-20)
(1.003 -0.0005391 0)
(1.216 0.4039 0)
(0.9317 0.2639 0)
(-0.03591 0.006935 4.799e-22)
(0.5632 0.006253 0)
(0.2437 -0.1 2.084e-21)
(-0.1743 0.04575 0)
(0.4592 -0.1919 -1.658e-21)
(1.153 -0.02912 1.138e-19)
(0.5521 -0.06487 5.018e-20)
(1.001 5.558e-05 -9.155e-23)
(0.2265 -0.0146 -5.701e-22)
(1.021 -0.07854 -7.428e-22)
(0.4048 -0.09458 -8.299e-23)
(-0.0002159 -0.001124 5.311e-24)
(0.9453 -0.1489 7.537e-22)
(0.1961 0.03235 -1.756e-20)
(-0.1603 0.05257 1.509e-20)
(1.001 2.62e-05 -1.477e-22)
(0.8035 -0.08619 1.105e-22)
(0.407 -0.03456 -3.399e-21)
(-0.01343 0.0046 0)
(-0.05881 -0.01428 8.939e-21)
(-0.07082 0.03189 6.076e-21)
(-0.08197 0.01517 -3.278e-21)
(0.5458 0.4678 0)
(-0.1472 0.04226 1.452e-20)
(0.4506 -0.2435 2.845e-21)
(-0.1433 0.04525 -1.897e-21)
(0.4815 -0.1182 6.413e-23)
(0.7354 -0.07844 3.262e-21)
(1.034 -0.1085 1.923e-21)
(-0.1511 0.04862 5.607e-21)
(1.003 -0.1727 -1.244e-21)
(0.001155 -6.888e-05 0)
(0.8499 -0.2288 0)
(0.9426 0.04225 3.213e-20)
(0.7475 -0.1714 2.925e-23)
(0.6708 -0.2905 2.651e-21)
(0.5601 -0.05836 -7.582e-22)
(1.005 -0.0005255 0)
(-0.02639 -0.01615 -9.168e-22)
(-0.06252 0.03508 -1.229e-20)
(-0.1665 0.06014 -4.328e-21)
(1.004 -5.666e-07 -7.837e-23)
(-0.006728 0.002508 0)
(-0.08004 0.02395 0)
(0.1398 -0.01833 3.728e-21)
(1.002 6.294e-05 5.107e-22)
(-0.05032 0.008232 4.233e-21)
(-0.1206 0.0378 0)
(-0.05419 0.01036 7.448e-21)
(-0.07418 0.007594 -5.56e-21)
(1.002 6.948e-06 -4.376e-22)
(-0.17 0.0617 -7.286e-21)
(0.0009084 -0.004425 0)
(-0.04491 0.01307 6.938e-21)
(-0.1132 0.03109 0)
(0.9898 0.01385 -5.338e-21)
(-0.03519 0.01458 2.769e-21)
(0.04281 0.1247 0)
(1.017 0.002262 -1.299e-20)
(0.9924 -0.1855 -9.213e-22)
(0.985 -0.2014 0)
(-0.07473 0.01228 -7.201e-21)
(-0.1002 0.03021 0)
(0.9219 -0.2178 -2.67e-21)
(0.934 -0.1474 0)
(0.1018 -0.01284 5.371e-22)
(-0.06 0.01898 0)
(0.999 -2.221e-06 -4.487e-22)
(-0.1701 0.06174 6.949e-21)
(-0.1572 0.06424 6.991e-22)
(0.1169 -0.009244 0)
(0.2358 -0.0329 1.724e-21)
(1.179 0.141 0)
(-0.1763 0.06439 0)
(-0.03642 0.01246 1.869e-22)
(0.9988 1.772e-05 1.986e-22)
(-0.1124 0.0373 -9.312e-21)
(-0.04766 0.01386 0)
(0.04174 0.01809 0)
(0.0004182 -0.008774 -5.823e-24)
(0.05155 0.01954 -2.86e-21)
(-0.04703 0.01624 2.577e-21)
(-0.1099 0.0258 -2.259e-21)
(-0.1374 0.03118 0)
(0.9699 -0.2211 0)
(1 -0.0002667 1.423e-20)
(9.321e-05 -3.631e-05 -3.759e-24)
(-0.1142 0.03366 1.151e-20)
(-0.08766 0.01479 1.038e-20)
(-0.03778 0.0135 7.541e-22)
(-0.1802 0.06601 -8.891e-21)
(-0.08706 0.03067 5.7e-21)
(-0.08316 0.02692 -2.807e-21)
(0.339 -0.02572 0)
(1 -0.0003332 0)
(-0.06632 0.01833 0)
(1.078 -0.1315 -1.844e-23)
(1.002 2.255e-05 0)
(-0.07277 0.02254 -8.97e-21)
(1.21 0.526 0)
(0.7263 -0.1114 2.092e-21)
(0.7848 -0.2806 -1.255e-21)
(1.004 -4.627e-05 -5.355e-21)
(-0.1569 0.04544 0)
(-0.06556 0.005553 0)
(1.009 0.001891 -3.9e-20)
(1.004 -5.187e-05 0)
(1.202 0.1096 0)
(-0.1433 0.06034 5.954e-21)
(-0.1704 0.02574 -2.238e-21)
(-0.09153 0.03233 2.701e-21)
(-0.1678 0.06061 6.523e-21)
(0.03007 0.0006231 5.356e-24)
(1.065 -0.1398 0)
(0.6971 -0.1566 -2.471e-20)
(1.002 -0.0009494 0)
(-0.1392 0.04406 -7.135e-21)
(-0.1423 0.05093 0)
(0.2814 -0.01685 -1.724e-21)
(0.1647 -0.01328 0)
(0.6859 -0.2263 -1.44e-20)
(1.004 -0.0002791 0)
(1.01 -0.007385 1.821e-21)
(1 0.002334 2.476e-20)
(-0.0164 2.914e-05 1.105e-21)
(1.002 -0.0008923 5.111e-21)
(1.145 -0.03906 -4.351e-20)
(0.211 -0.1268 5.533e-22)
(0.8141 -0.1046 4.195e-21)
(0.1086 -0.01798 -1.808e-21)
(1.001 -0.001169 0)
(-0.09964 0.001872 -1.731e-21)
(0.7984 -0.09686 -2.724e-21)
(1.001 0.005566 0)
(0.2187 -0.02579 1.896e-21)
(0.9994 -0.0001634 0)
(0.5663 -0.2885 4.504e-21)
(-0.003592 0.01704 -1.761e-21)
(-0.06145 0.00867 -1.035e-22)
(0.4853 0.05972 0)
(0.09015 -0.002087 2.064e-22)
(1.001 -0.006458 3.913e-22)
(-0.04448 0.012 0)
(0.8306 -0.1738 -8.786e-21)
(0.1767 -0.01276 0)
(0.01006 -0.02322 -6.961e-22)
(0.1663 -0.01982 8.39e-22)
(0.4045 0.5636 -1.188e-21)
(1.178 0.1429 -8.163e-21)
(1.007 -0.1821 7.602e-22)
(0.7548 -0.2649 5.262e-23)
(0.03007 -0.002113 0)
(0.9995 0.006679 0)
(0.5641 0.02923 2.463e-20)
(0.387 -0.1248 0)
(0.369 0.08861 2.649e-22)
(0.001514 -0.02081 3.376e-22)
(0.0617 -0.01113 0)
(1.003 -0.0002618 0)
(1.082 -0.09787 3.578e-20)
(-0.05091 0.0174 -6.934e-22)
(0.1199 -0.02926 -4.088e-22)
(-0.008495 0.0001628 4.043e-21)
(0.6912 0.1483 0)
(0.004058 -0.0041 -3.539e-22)
(0.3312 0.06996 -9.796e-22)
(0.0007923 0.0001582 1.188e-21)
(-0.08955 0.02302 -5.455e-21)
(-0.04155 0.01453 1.608e-21)
(-0.05763 0.01859 5.702e-21)
(0.05008 -0.003722 7.091e-22)
(1.001 0.03702 -2.433e-22)
(0.6614 -0.09627 0)
(1.003 3.099e-05 0)
(1 1.002e-05 0)
(-0.07303 0.01655 6.621e-21)
(1.039 0.03996 1.349e-21)
(-0.08053 0.01116 8.168e-21)
(-0.1887 -0.03666 -2.24e-20)
(0.2491 0.4985 0)
(1.1 -0.103 -1.568e-20)
(1.045 -0.03507 -2.442e-20)
(0.9714 0.4224 2.137e-21)
(0.7153 -0.1662 4.306e-23)
(1.01 -0.006269 2.871e-20)
(0.09348 0.01238 1.91e-22)
(-0.1401 0.04998 -2.078e-21)
(1.043 -0.03332 3.35e-20)
(-0.03819 0.008932 -9.479e-21)
(-0.005811 0.002078 -6.395e-22)
(-0.05015 -0.01578 0)
(0.9816 -0.2038 0)
(0.06328 -0.03128 -5.175e-21)
(-0.03767 0.02759 0)
(-0.07674 0.027 0)
(0.9957 -0.001173 2.29e-20)
(-0.06227 0.01104 6.426e-21)
(0.414 -0.09496 9.558e-23)
(1.004 -0.005629 0)
(-0.04526 0.0114 4.373e-21)
(-0.1226 0.03551 0)
(-0.1273 0.05312 -2.942e-21)
(0.9994 -0.000115 1.507e-21)
(0.8614 -0.003315 4.491e-21)
(0.2477 -0.01174 0)
(0.02242 0.000964 1.057e-23)
(0.8333 -0.2779 -3.179e-21)
(-0.005747 0.001878 0)
(-0.1599 0.04717 7.312e-21)
(0.6979 -0.3047 0)
(0.7876 -0.1759 1.657e-23)
(-0.008452 0.002804 0)
(-0.06245 0.004328 1.886e-21)
(1 1.516e-05 -9.381e-23)
(0.166 -0.09732 0)
(1.146 0.3267 -1.007e-20)
(1.003 2.966e-05 0)
(0.7422 -0.283 1.051e-22)
(0.001911 -0.0007402 4.453e-23)
(0.3355 -0.005109 -7.294e-21)
(0.0558 0.01136 -5.432e-21)
(1.141 -0.0526 6.692e-21)
(1.042 -0.1638 7.088e-22)
(-0.003128 0.000929 3.593e-26)
(0.01625 -0.001596 -1.352e-22)
(0.3423 -0.03751 0)
(1.007 0.0306 -5.338e-21)
(0.9975 0.002888 6.136e-21)
(0.9916 -0.1937 0)
(0.6636 -0.2905 -1.099e-21)
(-0.1016 0.03449 -1.203e-20)
(-0.04264 0.00976 0)
(0.2827 0.7152 -4.243e-21)
(0.2077 -0.08733 -1.14e-21)
(0.3354 0.0002092 -1.066e-22)
(1.134 0.1311 -1.894e-20)
(0.2032 -0.08486 -1.099e-21)
(1.108 -0.002459 4.35e-20)
(-0.02401 0.001836 0)
(1.005 0.000202 0)
(-0.1841 0.06866 6.296e-22)
(0.008431 -0.03345 -2.187e-23)
(-0.08842 0.02678 -1.396e-20)
(-0.07928 0.02334 0)
(-0.1567 0.04651 0)
(0.9963 0.001408 -1.885e-20)
(0.9849 -0.001761 1.3e-20)
(-0.04515 0.01591 0)
(0.9406 -0.1887 5.928e-21)
(-0.1066 0.03689 0)
(0.3781 -0.04795 0)
(-0.07003 0.02557 -2.687e-21)
(-0.182 0.05674 -2.224e-21)
(0.307 0.03557 -2.152e-21)
(0.1289 0.02715 -1.74e-21)
(-0.06941 0.005783 -8.856e-21)
(0.02901 -0.004339 -8.327e-22)
(-0.06146 0.016 -5.884e-21)
(0.2399 -0.01656 1.164e-21)
(-0.04498 0.01343 5.633e-21)
(1.053 -0.1303 -5.17e-21)
(-0.1818 0.06708 6.106e-21)
(0.3912 0.9061 1.336e-22)
(-0.08851 0.03116 -1.666e-22)
(0.006787 -0.03115 9.474e-23)
(0.0008572 -0.0003754 0)
(-0.1553 0.04618 0)
(1.005 -0.0004989 0)
(1.004 -0.001943 1.904e-20)
(-0.1701 0.06216 5.05e-21)
(-0.1773 0.06106 0)
(1.029 -0.1656 5.868e-21)
(1.003 1.854e-05 0)
(0.663 -0.3048 -3.089e-21)
(-0.1561 0.04515 7.18e-21)
(1.121 -0.07377 -1.959e-20)
(-0.07449 0.02554 0)
(0.2484 0.02732 -2.151e-20)
(-0.05491 0.0173 -6.574e-21)
(1.093 0.5916 -1.029e-20)
(0.9999 0.0005307 -5.107e-20)
(1.008 -0.17 0)
(1.138 -0.03747 -1.204e-20)
(0.128 -0.05013 0)
(0.1504 -0.01102 0)
(-0.1032 0.02951 9.164e-22)
(0.7222 -0.2055 1.313e-20)
(0.5642 0.02965 4.269e-20)
(-0.03457 0.006231 0)
(0.3558 -0.02986 -1.059e-21)
(1.004 -0.07535 0)
(-0.1691 0.05051 0)
(0.6565 -0.3036 3.313e-21)
(0.552 -0.06338 3.159e-21)
(-0.1298 0.04623 0)
(0.2002 -0.08691 -1.287e-21)
(1.006 -0.008351 -9.551e-22)
(-0.008823 0.003149 0)
(-0.003295 0.0008889 0)
(-0.1554 0.06368 0)
(-0.08726 0.0146 1.565e-20)
(0.04001 -0.00844 -7.174e-21)
(1.001 0.01343 1.149e-21)
(-0.006089 0.001558 1.604e-21)
(0.03369 -0.0061 0)
(1.001 -0.0001404 0)
(0.9996 -5.651e-05 -1.086e-20)
(-0.07363 0.01009 7.309e-25)
(-0.1354 0.03587 2.901e-20)
(0.001015 -0.0004169 -4.492e-23)
(0.006886 -0.03111 3.488e-22)
(0.6841 -0.09949 -5.849e-22)
(0.4512 -0.1679 0)
(-0.04846 0.01591 -5.947e-21)
(1.016 -0.1663 0)
(1.058 -0.1349 0)
(1.003 -0.00625 -4.108e-23)
(-0.04195 0.01406 -8.879e-21)
(-0.1171 -0.02119 0)
(-0.06222 0.02115 -6.882e-21)
(0.9928 -0.2054 0)
(-0.001588 -0.000455 1.967e-22)
(-0.1543 0.05575 -1.209e-20)
(1.001 -0.0007451 -5.849e-22)
(0.03154 -0.004255 0)
(-0.1099 0.03669 -4.832e-21)
(1 -0.0006806 -4.515e-20)
(-0.05717 0.009179 -3.297e-21)
(1.001 -0.0001464 -4.421e-21)
(0.9969 -0.002248 1.799e-20)
(0.9967 -0.1369 1.499e-21)
(0.9966 -0.1459 0)
(-0.007137 0.001016 -5.827e-21)
(1 -0.001358 4.257e-21)
(0.2212 -0.02568 -2.436e-22)
(1.003 0.004175 0)
(1.182 0.5352 0)
(1.006 -0.1324 2.323e-21)
(0.08758 0.003308 6.165e-21)
(1.083 -0.124 -3.85e-21)
(0.2998 -0.0596 -1.089e-22)
(0.3288 -0.04707 0)
(-0.04343 0.01254 1.241e-20)
(0.8966 -0.1004 5.588e-21)
(1.002 -0.002109 4.529e-21)
(1.017 0.004446 2.52e-20)
(-0.08346 0.02567 7.093e-21)
(0.5559 -0.1037 3.688e-22)
(-0.0868 0.0305 -6.797e-22)
(-0.0519 0.01686 0)
(0.07526 -0.004779 1.968e-25)
(-0.04125 0.01336 -3.187e-21)
(-0.005126 0.001655 -5.547e-21)
(-0.08318 0.01387 1.338e-20)
(0.4406 -0.1227 0)
(-0.01279 0.004101 -1.221e-20)
(0.2949 -0.03164 -5.198e-22)
(0.101 -0.01449 0)
(0.8295 0.3846 2.64e-21)
(-0.02343 0.02121 0)
(1.002 -0.005841 3.453e-21)
(-0.04493 0.009058 1.502e-20)
(-0.02491 -0.005371 1.168e-21)
(0.165 -0.02683 0)
(0.9974 3.782e-05 3.673e-21)
(0.322 -0.2144 3.613e-21)
(-0.1541 0.0448 0)
(0.6861 -0.06468 5.168e-22)
(0.7383 -0.2053 2.335e-22)
(-0.08433 0.01374 -9.215e-22)
(1.07 -0.131 -4.793e-21)
(-0.02884 0.006354 0)
(-0.1085 0.03579 4.19e-21)
(0.694 -0.06566 1.55e-21)
(-0.07523 0.02407 -8.438e-23)
(0.2992 -0.08274 -1.007e-21)
(0.01064 -0.02409 7.271e-22)
(1.001 -0.0003282 0)
(1.051 -0.0697 -4.675e-21)
(-0.04563 0.008419 0)
(0.9996 -0.006993 0)
(-0.06328 0.0141 0)
(-0.04269 0.004435 9.761e-22)
(0.9991 -9.431e-06 1.779e-21)
(0.9811 -0.2118 9.104e-23)
(-0.02531 0.002906 0)
(1.029 -0.01876 0)
(0.8486 0.3864 -1.154e-20)
(0.002263 0.02314 0)
(0.04379 -0.01356 0)
(1.028 -0.1428 -6.135e-21)
(1.003 2.188e-05 -1.177e-22)
(-0.06902 0.01695 -1.953e-22)
(-0.07433 0.02152 -3.878e-22)
(1.01 -0.001975 2.412e-20)
(0.9053 0.3462 4.229e-21)
(1.042 0.08174 6.432e-21)
(-0.1573 0.04533 1.078e-20)
(-0.06408 0.0174 -6.434e-21)
(1.021 -0.1802 -1.224e-21)
(1.045 -0.02952 0)
(-0.004087 -0.000872 -1.733e-22)
(-0.0004662 0.0001109 1.637e-22)
(0.3226 -0.06881 -9.77e-24)
(0.4201 -0.06735 -1.533e-21)
(-0.1597 0.05229 -3.781e-21)
(0.05016 -0.004203 0)
(0.9928 -1.116e-06 -3.647e-21)
(0.4977 -0.05344 3.155e-21)
(1.003 0.005459 2.016e-22)
(-0.1347 0.04054 0)
(0.6064 -0.2903 -3.326e-21)
(-0.0684 0.01241 0)
(0.7307 -0.2033 2.039e-21)
(0.01335 -0.0156 -1.868e-22)
(-0.01311 0.001992 0)
(0.9993 0.002165 -1.225e-20)
(-0.001489 0.0005461 0)
(-0.02844 0.009028 0)
(-0.03633 0.01045 3.294e-21)
(0.8292 -0.06923 4.781e-21)
(0.4779 0.1522 0)
(-0.1263 0.03905 -4.004e-21)
(-0.02664 -0.01189 9.372e-21)
(0.1344 -0.00969 0)
(0.772 -0.1086 0)
(0.8839 0.003524 -7.986e-20)
(0.007571 -0.0003799 1.668e-22)
(-0.1677 0.05828 2.801e-21)
(0.3795 -0.02739 0)
(0.2342 -0.0511 2.048e-22)
(0.4989 -0.07661 0)
(0.4418 -0.2703 -5.957e-21)