/*--------------------------------*- C++ -*----------------------------------*\
  =========                 |
  \\      /  F ield         | OpenFOAM: The Open Source CFD Toolbox
   \\    /   O peration     | Website:  https://openfoam.org
    \\  /    A nd           | Version:  8
     \\/     M anipulation  |
\*---------------------------------------------------------------------------*/
FoamFile
{
    version     2.0;
    format      ascii;
    class       volScalarField;
    location    "20";
    object      epsilon;
}
// * * * * * * * * * * * * * * * * * * * * * * * * * * * * * * * * * * * * * //

dimensions      [0 2 -3 0 0 0 0];

internalField   nonuniform List<scalar> 
127143
(
38.1
7.678
12.34
8.116
312
8.075
209.7
318.4
346.9
40.8
318.6
399.2
31.43
7.219
13.72
10.52
10.09
0.07712
0.1103
10.75
0.378
3.078
0.1318
0.6746
3.136
3.334
11.12
12.61
12.73
0.06257
0.8873
3.446
38.41
2.223
0.06443
36.65
0.2809
0.3638
0.565
2.099
0.11
1.162
0.9541
15.52
0.07779
2.162
12.24
0.1929
1.042
0.5882
10.04
0.02159
0.8284
0.229
0.005275
2.258
0.005088
0.1363
0.01309
0.2273
0.9008
0.15
0.3358
0.09658
2.634
0.4798
0.06471
0.3602
0.3541
0.0008089
0.7405
10.41
0.1298
0.01311
0.02705
11.53
0.0172
0.2691
2.214
0.1318
10.52
9.571
1.335
1.706
0.1591
0.247
0.5112
17.21
0.4605
12.22
0.01589
0.145
9.722
0.3769
0.7465
0.08377
1.086
1.122
0.2491
0.06315
0.1332
0.9992
26.87
0.2354
0.2411
0.2531
0.583
0.0008157
1.148
0.01752
12.85
17.21
0.5122
5.386
0.02068
0.3071
0.01767
0.02706
0.01713
1.485
0.0167
1.129
1.549
0.1191
10.07
3.938
0.1887
0.01658
1.3
2.705
0.3687
0.6448
0.2889
0.2655
3.274
0.3621
0.0362
0.355
11.28
0.03804
0.1949
0.01736
0.6068
0.3709
0.8204
3.836
55.8
0.1068
0.6592
30.04
0.2459
1.102
0.3582
0.1494
5.665
0.1573
0.1358
3.53
0.1908
1.339
0.7192
43.31
0.01608
0.3675
3.889
2.413
0.3193
0.8298
9.978
0.02246
0.6826
0.3695
0.3518
0.927
0.003699
0.2721
4.078
1.292
0.6357
0.01843
0.9286
0.02951
0.2834
0.2704
2.626
0.1483
0.2143
5.181
0.6282
0.02097
0.864
1.131
0.03515
11.52
4.043
0.2236
0.112
0.112
22.08
0.0184
0.01692
0.023
0.03649
0.2697
4.975
0.4151
0.06536
0.4607
0.06012
0.02086
0.07631
0.1799
0.01554
9.921
0.4575
17.03
1.047
0.5242
0.4793
0.06452
3.743
0.02938
1.131
0.8183
1.435
0.7291
3.177
0.3604
0.5257
0.2089
0.3992
0.02894
0.126
3.926
0.3962
0.08774
0.3674
35.65
0.01683
0.7717
1.107
2.471
0.2177
3.451
0.6154
1.473
0.9265
11.04
5.845
0.001442
1.733
2.107
0.7037
0.399
1.693
1.129
0.01646
10.37
0.6448
0.1108
0.2445
0.02346
0.1423
0.01737
0.8883
2.421
0.5256
6.953
1.131
0.5483
2.487
0.003608
0.1728
0.7759
0.2826
0.852
0.5068
0.8152
0.006093
0.7793
0.002486
0.08762
0.2307
0.02255
0.02042
3.553
0.4459
0.02031
0.7557
0.01875
0.3498
0.2471
0.08731
0.4163
0.01441
1.422
0.8787
0.8212
0.2176
0.5323
1.299
0.3873
0.5048
0.2996
1.542
3.422
0.4533
0.01556
0.1556
0.2836
0.6028
0.9253
2.379
0.002565
0.01981
7.334
0.4129
1.291
0.1275
0.01976
0.1266
0.7997
0.02191
0.705
7.457
0.533
0.03476
1.623
0.7549
4.191
0.1676
0.02042
0.06246
0.1016
0.1016
0.1419
1.12
0.3491
0.1675
0.485
0.03681
0.524
0.7619
0.8404
4.112
0.7702
0.9188
0.6463
1.309
1.566
1.185
0.1111
0.2743
0.8489
0.02642
0.8142
0.3999
3.251
0.01074
0.7793
0.1571
0.3198
0.08301
0.5747
0.5829
0.04063
0.01851
0.013
1.622
0.006197
1.836
0.022
1.628
0.5929
0.02028
0.0761
0.8308
3.993
0.2247
0.0065
0.1229
3.59
1.139
0.4008
0.01758
5.079
0.04659
1.968
0.2298
0.2232
0.01287
0.4263
0.591
1.753
0.6356
0.9033
0.4259
0.8146
0.02637
0.02283
1.924
0.03012
0.4154
0.2761
0.04711
0.2987
0.2313
0.3022
0.1375
0.5975
1.812
1.509
0.1903
0.1844
1.487
0.7344
0.3307
2.711
0.4591
2.642
0.3102
2.122
0.5278
0.001485
0.2118
0.1384
0.858
0.1546
2.326
0.08363
0.05465
0.5118
0.2883
0.08556
1.144
0.04023
0.3984
0.9106
0.02115
0.01444
0.02275
0.5518
0.03693
1.196
0.01884
1.07
0.0185
5.873
0.01322
0.1798
0.3221
1.002
0.2856
1.867
0.0503
0.2546
1.536
2.269
0.2407
0.4111
0.2792
1.065
0.2345
3.762
1.082
0.003371
0.01719
0.5394
0.8551
0.03247
0.2317
0.1594
0.1176
0.4051
0.0533
0.006091
6.057
0.1554
0.5956
0.6884
13.18
5.799
1.307
2.358
1.613
1.119
0.6266
0.01563
1.157
0.0173
6.349
0.4845
0.8945
3.727
2.741
0.3905
3.232
0.08236
3.699
0.01706
13.51
0.01714
0.2433
0.2203
7.362
1.364
6.462
0.07079
0.8007
2.175
0.02002
0.1519
1.682
0.3249
0.3003
0.3274
1.021
0.2313
3.802
0.003357
0.1992
3.845
2.962
1.143
0.6379
0.01302
0.2405
0.03533
0.2309
0.01234
1.233
22.65
0.605
0.04393
0.5396
0.102
0.8142
1.873
14.9
0.188
0.01732
0.4564
1.283
0.03629
0.3979
0.4272
0.8065
0.5594
0.8975
0.7815
0.2265
0.759
2.334
0.299
0.4961
0.01426
1.766
0.3898
1.6
0.3442
0.2051
0.08465
0.06712
0.1014
0.9409
4.241
0.01928
0.001686
1.089
4.114
0.23
1.637
0.864
2.139
0.4662
0.017
0.03758
0.6373
0.2643
0.8214
0.003967
10.84
0.2989
0.5564
0.006303
1.875
0.01917
0.2249
0.2662
0.1992
0.001634
0.5062
0.2449
23.04
0.006371
0.5659
1.039
0.02218
0.2963
0.01967
0.4593
0.5882
0.02269
1.097
0.9845
1.237
0.8777
0.5776
1.145
1.11
5.305
0.5341
9.175
0.5523
0.2897
0.9329
1.397
0.003993
1.925
0.02104
3.801
0.01723
0.5967
0.04642
0.02037
0.1408
2.607
0.4373
0.003494
0.007785
0.5011
11.02
1.142
1.076
0.1382
1.183
0.3164
1.853
0.8324
0.5808
3.007
0.003492
2.069
0.7889
0.2481
0.3149
0.01599
0.001693
0.5255
10.08
0.6249
1.834
0.01716
0.001042
0.3704
1.707
0.02235
2.279
0.1438
0.03957
0.7378
0.5931
0.78
0.2042
20.56
0.6918
0.2375
0.2554
0.4411
1.05
1.68
1.273
0.02015
1.172
0.4432
0.4094
0.01072
0.7789
0.4338
0.5802
0.04474
0.01005
1.81
0.08244
1.402
1.068
3.752
0.1567
0.4684
1.263
0.2255
1.818
0.01567
0.007672
2.05
0.1367
1.493
0.5593
5.47
0.1396
3.195
0.07404
0.0823
0.001032
1.044
0.05372
1.667
3.228
0.4512
0.8726
0.2201
0.001491
0.3742
0.5878
1.821
0.09524
0.2833
0.8294
27.45
0.3326
4.31
0.1224
1.536
0.4049
0.2781
0.1865
0.2383
43.24
0.4431
0.02211
0.9359
2.241
0.4921
0.01482
0.3374
0.1107
0.2274
0.0009366
1.881
0.5031
1.911
0.0009828
1.324
0.2889
1.068
1.316
0.001079
0.2068
0.6127
0.9197
0.4176
0.01813
0.7615
9.172
0.01483
0.496
0.3719
1.024
0.3865
0.3741
0.4594
2.632
0.4838
0.01875
0.2075
0.1423
2.027
1.427
0.2307
0.1503
0.7479
0.02551
0.3157
0.7249
0.6737
5.261
0.6706
0.5895
0.5597
0.2088
0.5066
0.07265
16.5
0.3946
0.858
0.8154
0.2234
0.4249
0.3925
0.6791
0.04009
0.1045
0.2503
0.0009383
0.4476
6.255
0.5803
1.471
0.02827
0.3101
0.2807
0.01577
0.02036
0.3126
0.1499
0.1383
0.4205
0.2222
9.469
0.2882
0.4281
0.01081
0.2739
0.2972
0.8639
1.336
0.7894
0.002226
0.01289
0.04142
11.51
0.01156
0.06757
9.619
0.4299
2.839
0.004341
0.211
0.4161
0.02653
1.28
0.0685
3.141
25.33
1.254
0.7024
2.656
0.01548
0.9259
0.2374
1.183
0.5296
1.909
35.48
0.2303
0.2989
0.9056
7.361
0.02423
0.2685
2.664
6.654
0.4466
6.521
0.002217
0.05149
0.6447
4.293
14.13
2.869
73.86
4.722
52.33
0.5909
0.7568
0.1039
4.701
0.01733
0.6009
0.001783
0.001738
0.6081
0.01935
1.026
0.1203
5.148
0.172
0.02595
8.684
1.005
0.01273
0.1032
0.2844
0.02501
1.222
5.856
0.31
0.5581
12.74
0.3234
0.497
0.01894
0.8893
1.644
0.01054
0.9619
0.3804
0.149
0.02612
0.01989
0.1052
13.13
0.951
7.17
0.2446
1.956
0.8652
1.138
2.043
0.002207
12.04
0.6623
0.002207
1.173
3.933
0.1592
4.343
0.1997
0.3074
1.432
12.71
0.7313
0.01701
0.02864
0.513
1.667
0.3461
1.152
7.762
6.903
0.8403
0.1045
6.884
0.04125
5.884
0.01692
0.1982
1.678
0.4536
0.565
0.2621
0.02428
0.01692
0.7044
0.2379
0.3811
0.8474
0.531
0.1624
0.5922
2.146
1.689
7.43
0.7524
0.992
0.819
0.2949
0.1613
11
0.4172
1.751
2.8
0.2646
0.01504
0.01056
0.1963
0.2227
0.2657
0.1799
2.069
0.3181
0.1419
0.49
0.5257
0.5687
2.608
0.1382
0.2339
0.1336
9.765
1.593
0.2938
0.5546
0.2433
1.67
0.6559
0.2637
0.135
2.307
0.5513
0.3163
8.07
0.01262
2.726
1.177
0.1409
0.8821
13.91
0.01905
4.911
9.85
0.002476
0.1533
0.9414
0.4176
3.804
0.5286
0.5834
2.927
0.5952
0.2342
0.1924
0.0173
0.6704
0.1816
0.481
0.4433
0.8792
0.2578
0.003406
5.811
0.333
0.02968
1.273
0.002217
0.01712
0.3657
0.1379
11.83
0.01724
1.265
0.02722
6.968
0.1146
0.09753
0.248
1.66
1.054
0.744
0.3459
0.006187
0.03277
0.4601
0.9523
0.4324
0.5578
2.907
0.6442
3.803
0.899
2.01
3.677
0.8286
2.544
0.4171
0.1043
0.01089
1.176
0.3574
2.148
0.0007236
6.771
0.2503
0.3974
1.236
0.895
0.2085
1.693
0.2099
0.3946
0.3944
2.579
0.5401
0.003163
0.2451
1.209
0.01501
0.8625
2.239
0.2081
0.4517
0.4189
0.03307
0.4153
0.3237
1.255
0.1638
0.1056
0.7383
0.5405
0.01341
0.2879
0.02676
0.309
0.698
0.4191
0.02414
0.6533
2.248
1.852
0.9549
0.1984
4.481
0.0008085
0.5392
0.02349
0.303
2.116
0.9498
1.243
0.6961
3.951
0.04514
3.294
0.9717
1.033
0.327
9.718
0.201
0.09475
1.675
0.4966
0.03694
9.31
0.2481
0.6527
2.23
0.7822
4.473
0.8408
1.277
0.6618
0.3437
0.7202
1.015
0.7561
0.1586
4.735
0.09019
0.9514
0.09932
1.538
0.1056
0.02166
0.4676
4.593
0.2072
0.02175
6.573
0.6805
0.02574
12.4
0.5509
0.6105
1.269
0.654
0.3051
11
0.1036
1.866
0.186
0.4701
4.591
0.9496
1.345
1.57
1.193
0.06599
0.07401
0.5591
0.4336
0.644
0.3884
0.1435
1.404
0.1791
0.185
0.1602
1.208
0.4232
0.3956
4.825
0.04514
10.27
1.451
0.3372
0.3031
0.02682
0.166
0.9408
0.4231
1.029
2.467
1.677
0.01803
1.385
0.6706
0.4903
7.096
1.202
0.122
0.5754
0.01536
0.5972
0.3209
16.59
0.8422
0.03823
0.3078
0.01397
25.02
9.825
0.2544
0.2919
0.6618
0.002845
0.04596
0.4683
0.2071
0.1219
0.07477
0.0006758
0.0006794
3.518
0.3446
0.1726
2.411
0.7593
5.605
0.4849
1.767
0.3276
0.4778
0.05511
0.8738
0.2033
0.971
7.232
0.4261
0.1707
0.3577
0.3158
0.5204
45.15
0.1167
0.4515
0.1493
0.1842
0.1922
0.9092
28.61
0.123
0.6167
0.00819
0.6852
15.33
0.06451
27.03
0.5244
0.2971
1.317
0.01158
0.563
12.42
0.01899
0.5635
0.6991
0.3972
20.2
0.316
0.2187
0.5447
4.072
0.3224
1.071
0.1011
1.038
2.446
44.24
2.983
0.3564
0.02193
2.124
0.1219
1.198
9.986
0.143
0.3395
0.009825
0.2772
0.447
0.0117
0.1393
0.002434
24.36
0.1397
4.498
0.3719
0.7555
6.196
0.4782
0.5113
2.367
68.08
0.426
0.4447
0.6559
0.4404
0.1713
0.08411
0.2923
0.01719
0.2005
0.05474
0.1521
0.01472
2.819
0.3244
0.1778
0.01533
0.5928
0.1005
1
0.1333
0.1978
1.533
0.3907
0.03417
7.597
1.52
1.304
0.6898
0.3328
0.8321
0.8639
0.3601
0.09169
2.24
0.2114
0.7691
1.997
0.8999
0.9424
0.1157
0.01759
58.55
0.4229
6.759
0.02491
6.878
2.345
0.9206
0.3407
0.01958
0.01812
0.06706
0.1213
0.04653
0.1635
0.4418
0.3625
1.196
0.02289
0.2622
4.632
1.651
0.08689
0.3393
0.1906
2.534
0.9272
0.741
0.9304
0.2111
0.01545
0.3532
0.3677
5.368
0.7519
0.03381
0.9542
0.01436
0.5571
0.2819
3.021
0.07092
0.03718
0.207
1.334
7.133
18.91
0.2676
0.3958
0.9555
0.07404
0.01022
20.39
0.8441
11.61
0.07991
5.289
0.3112
0.01395
1.802
3.107
0.1984
0.2566
0.3436
0.5395
0.4895
1.324
0.3079
7.873
0.0512
5.213
1.163
1.061
0.001158
0.001128
0.8585
1.832
55.81
4.882
1.238
1.254
51.42
0.01309
0.4514
0.0188
0.01723
0.01391
0.1811
0.004439
19.75
0.02292
20.59
0.3105
2.463
1.988
0.9704
0.001034
29.71
0.1267
14.71
0.2625
4.564
0.01274
0.8317
0.6742
0.2448
1.124
0.6476
0.2468
19.03
24.6
0.05181
0.01023
1.579
0.0006133
0.1978
0.2786
1.087
0.006607
1.94
0.02967
0.6934
0.8302
0.2767
11.94
0.004942
0.2062
1.083
1.093
0.1061
0.3137
0.2567
0.02074
0.09323
0.9054
79.61
0.9262
0.5406
0.01739
4.121
0.2203
0.1286
0.0007494
0.704
0.4134
0.9214
0.01799
2.674
0.01729
0.8816
0.1056
0.8346
2.035
0.2961
4.783
2.417
0.6
0.007646
0.6908
1.708
0.5356
6.82
1.941
0.1488
0.03282
1.06
58.94
0.7615
6.693
2.942
0.001065
0.1416
0.01517
1.621
1.054
1.161
0.02736
2.868
0.02856
0.1295
0.412
0.008422
0.1341
0.1257
1.98
0.3154
0.01457
0.7592
0.03857
1.938
10.03
0.3694
0.113
0.7563
0.02296
0.681
0.2697
11
2.302
0.2657
1.281
0.7482
1.455
18.49
0.04472
0.1962
2.143
0.03753
0.7966
0.3141
0.2223
0.4446
0.01903
0.00734
0.8453
0.1048
0.7606
0.3427
8.073
0.2884
4.905
0.2194
0.01853
5.138
0.7925
0.09741
0.8773
0.02512
0.6136
0.1442
0.2127
4.24
0.2575
2.038
0.6852
0.7791
0.03596
0.4562
0.621
1.502
6.001
0.02066
0.4005
2.207
0.01644
0.02051
0.2949
0.0008343
0.9783
0.5516
0.488
2.38
0.2301
0.188
0.003006
0.2439
0.9189
0.003274
0.2927
7.497
4.496
0.1727
0.4843
3.373
0.1624
3.635
0.1513
0.5199
4.543
0.0007997
0.001333
0.3232
0.01767
2.094
2.24
0.1977
2.307
1.003
0.02008
1.781
15.95
231.7
0.4601
0.3354
0.8474
0.1552
0.1774
0.2435
0.209
1.231
0.4416
0.4472
3.066
3.279
0.2737
0.2163
0.01847
18.03
0.1821
0.326
0.4026
0.04736
0.891
0.4465
0.1164
0.1661
2.309
1.959
0.4986
1.664
0.248
8.249
1.325
0.02225
0.8041
1.358
0.4383
0.6159
6.205
0.0173
12.42
13.38
0.6043
0.001758
0.2025
0.1581
1.152
1.244
0.1646
1.523
0.00329
1.62
0.8422
0.06613
0.1513
0.01391
0.8924
19.13
0.4735
1.316
50.42
0.2061
5.979
0.001426
19.91
1.089
0.1343
0.03631
0.1014
0.2922
0.1852
0.4401
0.001409
0.8377
13.67
31.72
0.2893
0.3234
0.4193
0.7136
0.01778
0.02119
1.287
0.2222
0.01378
0.4271
0.4662
0.7316
0.3866
0.5197
1.522
0.4374
24.41
3.353
1.966
0.0962
0.661
8.642
0.1649
0.912
0.1033
0.3097
0.3082
19.91
0.2042
0.2456
0.0008541
0.03706
2.525
0.3141
0.01996
0.04583
0.2123
1.912
0.1682
0.7059
5.538
4.061
0.01952
1.295
0.1374
0.3339
2.665
0.1603
0.04119
0.8156
0.4837
0.2283
1.03
0.03504
2.802
0.1212
1.628
0.07799
0.823
2.621
0.4419
1.358
0.4414
1.234
0.4786
0.8507
0.1987
0.1664
0.2877
0.2538
1.429
0.3433
29.91
0.628
0.01458
0.3695
0.1025
1.479
0.6339
0.003547
0.2726
0.09621
4.158
0.001015
0.3421
0.2377
0.2807
0.1453
0.4444
0.0788
4.191
0.1478
0.01926
0.8104
0.04251
0.1831
0.03349
0.2218
0.198
0.08386
0.1693
0.5561
0.7816
0.02387
0.0166
0.1389
0.2721
2.793
0.03178
0.6511
0.2642
2.687
0.8945
0.1208
1.766
0.5048
0.0718
0.4497
5.893
0.1529
18.27
0.7667
0.1721
8.334
0.01992
0.007711
0.7991
0.1618
50.79
0.02609
0.229
0.7836
86.42
0.686
1.736
0.007586
0.007571
0.8327
0.8518
0.2693
5.301
0.03661
0.1823
0.2159
0.1344
1.344
1.131
0.5407
0.2407
2.236
0.06042
0.6959
0.116
0.2881
1.611
2.019
2.384
0.5386
18.26
0.554
0.9284
0.4171
1.198
0.5833
0.08891
2.699
1.447
0.001621
0.001606
0.567
0.3702
3.383
1.063
4.448
1.141
0.003939
0.02052
1.615
0.0994
0.3601
11.23
4.276
0.1415
0.9682
0.059
15.23
7.098
0.001192
0.2986
0.3582
0.5426
0.21
1.812
0.5448
0.8371
0.5943
0.266
0.2877
0.1763
4.917
0.9137
0.4797
0.367
41.31
0.3335
0.556
0.6375
3.968
1.114
0.5366
5.72
0.1899
1.441
0.01601
0.1694
0.09005
0.5965
0.1348
6.589
0.5532
0.151
1.475
31.9
1.451
0.5511
0.4605
1.19
8.001
0.003492
0.2146
0.261
16.04
0.4202
0.2842
0.1066
0.236
0.02109
0.4641
40.65
0.3041
0.7046
0.1455
0.08379
5.162
0.1162
0.5367
0.205
0.1766
6.517
0.1167
0.5047
0.1247
0.04661
2.635
0.3135
7.735
0.7505
0.6162
0.01008
0.2551
0.5514
1.221
8.755
0.2975
0.1249
1.016
0.01851
1.226
4.894
1.458
2.353
0.6947
3.845
1.131
2.831
4.397
0.238
2.469
1.373
0.1034
0.07129
3.814
0.0007496
0.149
0.01938
0.0495
3.76
0.01551
0.7348
1.075
0.194
0.4611
1.26
4.448
0.3856
8.95
0.4315
0.1669
4.237
0.3855
0.3885
0.01912
9.269
0.229
2.157
3.475
0.0008716
1.078
1.069
0.2852
0.2597
1.04
10.77
1.014
0.2793
0.4022
0.02201
0.1076
0.06798
0.3728
0.2491
0.5016
1.081
0.8673
4.637
0.2107
0.01345
1.243
0.3399
0.1682
0.3677
0.4525
8.753
1.335
5.106
5.186
0.4838
0.5767
0.5863
0.3744
0.4418
0.1433
2.444
1.448
0.4658
1.046
0.01048
2.161
1.194
0.1776
0.2933
5.66
1.702
4.502
0.2754
0.7189
18.1
0.0127
1.87
0.1625
0.03743
0.9921
2.375
0.0148
0.8373
0.237
0.8193
23.74
0.9705
0.9452
40.41
0.2685
0.6152
0.1914
0.1914
0.538
0.562
0.7544
3.892
0.4217
0.01977
3.859
2.152
0.7073
0.01476
0.0134
0.8574
0.4001
0.5467
132.7
2.148
0.006359
0.9452
1.579
0.1202
1.564
0.6437
0.002188
0.2584
1.061
0.1208
0.238
0.02066
0.01007
0.01434
0.004297
0.06166
0.2221
0.5405
3.862
0.2847
0.4226
0.4299
3.85
0.004307
0.5712
0.2555
0.8538
2.575
0.9401
0.3978
0.401
0.8364
0.627
0.4583
0.04196
0.467
76.37
1.306
2.662
0.8109
3.304
0.02058
2.269
0.3969
1.364
0.2131
0.0332
24.71
0.02663
0.2812
2.303
0.004796
1.109
0.3281
0.3132
0.3288
2.156
0.04677
0.7499
0.003924
1.344
0.5166
0.473
0.181
2.171
0.01204
0.01577
0.1677
0.5382
1.076
0.07792
0.3142
1.394
0.3036
14.81
0.8769
0.1941
0.1384
0.229
0.3066
0.1213
14.34
0.8114
0.02092
9.402
0.01889
0.01255
0.1411
0.001401
17.04
0.2061
1.391
0.2265
1.155
0.03322
0.07749
0.4557
0.7523
0.1558
0.002092
0.2404
78.9
5.138
0.09195
9.027
4.993
9.193
0.001157
0.1736
0.3088
0.1013
0.01731
0.1556
4.636
43.18
0.1811
1.161
5.072
0.02129
1.154
3.652
0.405
0.0263
1.371
52.01
7.672
12.34
0.1585
0.6408
6.054
0.03169
0.3435
0.01614
0.2972
4.491
0.1288
0.921
11.55
0.1045
0.3636
2.063
0.1686
0.02193
0.7892
1.575
0.1191
1.151
1.092
0.2162
0.1672
0.6328
0.452
0.2882
0.02157
0.8522
0.871
0.7991
0.5921
3.071
0.8098
9.678
4.376
15.43
10.51
0.867
0.05169
4.881
0.02007
1.498
5.468
0.02191
104
0.1308
0.4485
6.244
1.632
1.207
7.615
0.5593
5.099
0.01586
131.1
1.202
0.0006608
0.1651
0.3273
50.35
5.206
2.004
0.2196
1.58
28.96
0.349
0.1445
0.4612
9.229
0.008263
0.2831
0.4038
0.3773
0.3118
0.2313
0.1151
2.719
0.5945
1.056
8.337
0.01507
2.581
0.1568
0.5064
0.4415
0.01767
0.07914
0.4525
1.651
1.438
3.606
0.0006277
0.0156
0.2328
0.8574
7.313
0.2216
0.1255
0.005691
0.02316
1.934
0.005704
0.6164
1.634
0.0881
0.6074
0.2511
6.158
3.608
5.991
0.03824
0.9298
0.313
1.22
0.148
0.1697
5.982
0.1699
3.021
0.8387
1.352
0.4841
0.4615
18.82
0.2134
0.3466
0.6052
0.0008209
0.4696
0.06702
0.01788
0.4087
13.52
0.379
2.971
0.3033
1.407
36.61
0.1345
6.153
0.003811
0.1422
0.03318
0.041
1.146
0.127
4.816
4.092
0.5588
1.901
0.1687
0.523
1.881
0.4792
0.1718
2.063
0.1666
13.96
0.9969
0.001931
0.3394
0.3474
0.0596
0.0248
1.742
0.0307
1.805
0.6725
0.8829
0.4496
2.187
0.00104
0.1212
0.04511
1.903
2.035
3.787
0.4838
0.01419
2.711
0.01255
0.1207
0.4532
0.2196
6.751
0.6008
1.115
0.1577
14.17
0.4932
0.003484
0.2505
0.5706
0.04475
0.3547
0.03167
1.039
1.474
5.321
0.2992
0.006043
0.9668
0.7174
1.511
1.673
1.659
0.8099
0.0174
0.1917
0.2997
0.4655
1.353
0.2463
0.08251
0.9505
0.1289
3.285
1.572
0.00388
0.1642
0.01572
0.02646
0.4166
0.7817
0.7877
0.01822
0.6534
1.984
0.5361
0.06912
0.6511
0.09938
1.785
0.002644
104.2
0.6328
1.885
0.0009131
0.07164
3.881
0.02489
0.4657
1.077
1.677
0.5323
0.801
0.02694
0.6457
0.5183
0.9401
0.298
0.8728
0.2288
0.234
0.7856
8.482
0.01272
0.3
0.5016
11.19
0.287
0.07641
2.791
2.374
0.2684
0.3657
0.3094
6.27
0.03487
0.2518
0.4936
0.1409
0.3693
0.4499
0.002051
1.933
8.883
0.4461
0.3589
5.877
0.8807
0.5489
0.01923
0.02418
0.09
0.001066
37.96
0.5204
0.04471
0.01655
0.3675
17.18
0.04135
0.2056
1.919
0.5148
0.583
1.276
16.94
0.9896
3.688
1.19
2.99
2.471
0.01775
0.3756
0.5363
0.4799
0.02328
0.1167
0.4256
0.2016
0.486
27.77
6.813
0.09262
0.902
2.998
0.1732
4.2
0.2066
0.4728
0.2712
2.801
4.768
0.01853
1.971
0.3824
0.0432
3.695
0.2219
1.045
0.07222
0.7586
1.327
0.526
1.442
0.01402
0.01861
0.09532
0.3613
0.1716
0.3744
0.02006
5.578
0.1258
0.2417
0.7558
1.845
0.1297
0.9849
0.00992
4.165
1.53
24.38
0.8917
0.07076
5.367
0.5869
1.066
9.579
0.1159
4.318
0.1012
0.1028
0.264
0.06709
0.01788
25.64
0.5052
1.977
1.071
0.8244
0.3781
0.001549
22.7
0.03435
0.8228
0.1632
0.2059
1.523
0.2452
0.4036
0.7461
0.1253
0.6252
0.008202
0.4615
1.342
18.9
5.858
0.09102
0.2405
0.2626
0.1648
0.5701
0.8053
0.05399
0.03352
0.3063
4.941
0.003077
0.01221
0.2665
0.8424
0.1411
12.25
0.1397
1.031
0.4538
0.3945
0.07035
0.1017
1.304
1.518
1.062
0.2973
3.93
0.09957
2.239
0.001468
1.61
15.03
0.03491
0.3439
0.1931
1.022
1.791
0.615
0.08009
0.01034
0.8557
0.1609
0.01681
1.561
3.596
0.1852
0.1567
0.0785
0.06716
0.02268
3.838
0.3119
0.02021
8.917
0.8873
0.6134
0.02217
0.03845
0.01585
0.04054
0.5644
0.1569
1.051
8.209
4.286
0.7994
3.332
3.947
0.01782
9.197
0.9636
1.049
0.1245
0.1591
0.4374
1.105
2.096
4.658
0.5376
0.03377
0.313
2.313
0.3615
0.9169
0.1178
0.391
0.157
1.73
0.001196
0.4228
0.5775
0.5449
0.4382
2.287
10.41
4.678
0.01037
56.04
0.4411
0.1716
5.169
0.0291
0.9455
0.6744
0.006671
1.986
3.599
0.2052
0.5166
0.1293
3.219
0.01725
0.3081
6.154
0.2078
0.01656
1.82
0.2227
0.02906
0.2886
0.1573
0.524
11.8
1.054
0.9149
0.2216
0.5449
1.051
0.01923
0.03256
2.864
0.4037
0.5582
0.06825
6.084
0.5384
0.2729
0.3602
0.2962
1.132
0.03423
0.05725
0.6165
0.5547
0.05185
0.6258
1.605
0.1497
1.156
1.407
0.1542
0.05007
0.1325
0.2974
0.7513
0.5081
0.06472
0.9352
0.003101
0.233
0.4403
0.1692
1.015
0.4208
4.428
0.2701
0.3603
0.01234
0.007273
0.2603
0.2731
2.077
4.709
0.3827
1.139
7.339
0.7704
0.4464
0.9228
0.8256
4.173
0.8489
0.03873
2.24
0.3673
1.369
0.2434
0.1959
0.208
0.5754
0.03873
0.3762
0.1014
0.02206
0.08064
2.237
0.01466
8.128
1.502
0.5691
0.0178
0.6984
0.8017
0.001007
0.6022
0.9434
0.7741
0.4754
1.013
0.03388
1.375
0.1178
0.168
1.102
6.813
0.4449
0.8309
6.044
0.00679
0.02525
0.6444
1.132
1.891
0.1932
1.569
1.309
0.2539
0.1609
0.01768
6.72
1.644
0.1243
0.2199
0.0165
1.169
0.08091
0.9522
1.001
0.4746
0.0124
10.61
0.8505
0.01923
0.6069
1.234
0.07837
0.01101
0.01181
1.134
25.76
0.3551
0.1119
0.3224
0.07302
0.5579
0.4913
0.01343
0.4462
0.4192
6.918
7.062
1.379
0.01214
0.913
0.4125
0.7706
0.7725
6.423
0.7096
0.7611
0.6643
0.5069
1.144
2.177
0.1001
0.001092
0.1025
0.03273
14.71
0.01736
0.1538
0.9525
0.379
0.1609
7.029
0.6359
19.07
0.1898
15.87
0.4904
0.2
1.833
6.664
0.2104
5.15
14.3
0.02175
5.322
6.94
2.64
2.727
0.8131
0.1671
0.4014
0.3905
0.464
0.0452
0.3573
0.1883
0.2839
0.207
0.3082
0.5525
0.1664
0.1106
4.084
0.6661
31.61
0.3961
0.9155
0.006036
1.485
0.531
2.394
0.227
5.265
1.108
0.6072
0.1041
4.576
0.1025
0.3687
0.3924
0.0547
0.2063
0.2639
0.3866
0.3224
0.4324
0.2237
0.6502
0.2287
5.615
0.3968
3.481
0.04775
0.2984
0.3703
0.1663
0.04136
7.681
0.02008
0.01453
0.02115
0.2514
0.4783
0.5183
0.06245
0.2193
0.2297
0.05484
3.078
2.975
4.019
0.5503
0.06472
1.134
22.44
0.06382
0.945
0.03232
0.6203
0.119
0.5457
0.1742
0.01096
0.008771
0.7253
0.1407
0.04626
9.555
0.5522
0.05485
0.02653
0.3364
0.03188
1.99
3.18
0.004825
0.6273
0.5684
4.765
2.063
10.87
1.606
0.1066
0.2882
0.662
0.2309
1.227
0.9772
0.7632
1.341
0.3494
6.605
0.01902
0.9461
1.208
10.81
0.04004
0.2317
0.02235
0.2706
0.2479
1.031
0.7897
0.6038
6.295
0.1408
1.358
10.65
0.7594
2.537
1.053
0.2925
0.2659
0.4505
1.206
0.1942
1.591
0.002978
4.479
5.515
1.536
0.2737
0.5144
3.678
0.7882
0.2459
0.04433
56.97
0.3451
0.0007697
0.00138
0.00304
0.7268
8.578
0.196
26.8
0.5419
0.001084
0.7867
0.4937
0.3518
0.9164
73.16
2.556
0.3001
7.431
0.2315
0.4045
8.085
0.2629
0.3861
0.1597
1.55
0.2162
0.2446
0.2473
0.9416
0.1976
0.752
1.085
0.1873
3.889
0.5878
0.06156
5.156
0.2544
10.54
0.6469
0.008232
0.1094
1.196
0.02266
0.2394
4.475
2.885
0.1575
0.01206
0.1386
0.2489
0.25
0.04997
0.9048
0.009854
0.8788
0.4034
0.5149
0.4224
0.9673
0.937
1.275
5.018
0.4874
0.3519
0.02788
12.44
0.04198
0.001374
0.4238
0.01815
3.059
0.1503
4.93
0.04482
1.31
0.3224
0.7615
0.9049
0.09325
0.3418
0.2122
1.103
1.868
0.472
0.06886
0.01617
0.4364
1.243
0.08764
0.2618
0.7337
0.7419
1.36
0.007695
0.2404
1.268
5.752
0.5539
0.3389
1.386
0.6562
0.01993
0.2223
27.3
1.318
0.04671
0.1475
0.636
0.1026
0.4975
1.785
0.6904
0.04695
0.05297
0.1171
0.01387
0.01312
0.02445
0.1318
18.14
1.486
0.1389
0.4738
0.1965
0.07253
0.1591
0.2215
0.7212
0.04674
0.03275
1.329
0.08094
0.02141
0.7996
0.5191
0.1167
3.983
6.16
0.02085
0.2979
0.2931
0.7177
0.4323
1.27
0.1633
0.8194
3.453
0.4811
5.779
0.1591
1.996
0.3186
0.6489
0.2938
12.25
0.06321
19.06
0.7085
0.02179
0.0287
0.004151
0.4093
0.2729
3.277
2.801
2.794
0.07827
0.01053
1.154
1.468
0.1733
0.01723
1.244
0.1715
1.961
0.5168
11.06
2.258
1.519
1.692
0.5421
0.1028
1.568
0.5875
0.2865
0.3265
0.0564
0.016
0.2026
0.2353
1.346
6.672
0.3355
0.02987
1.584
0.07047
0.1256
0.01777
3.419
0.4745
1.117
1.045
0.4228
0.2767
0.2652
0.1793
0.1928
0.5772
0.1753
0.133
0.04201
0.2812
12.5
0.1151
0.4579
20.9
0.005873
0.02122
0.2098
0.0244
0.05712
3.789
0.06529
0.06519
0.6948
0.01294
0.2827
1.267
0.7743
0.1621
0.1448
0.03383
0.05188
0.3119
0.5738
1.921
5.972
0.2872
0.004783
0.1334
0.9332
1.88
0.07935
0.04714
0.04139
3.563
0.12
0.07077
0.2782
0.7569
0.0682
0.02629
0.9282
0.01189
0.01859
0.01126
2.947
0.05584
0.6702
0.1388
0.02578
0.05916
0.1561
0.1926
1.454
0.1833
0.3683
0.3426
0.106
7.776
0.2825
1.486
0.03743
0.4603
0.4115
0.5487
0.5419
0.1981
0.5045
0.3001
0.1507
0.8014
0.06592
134.8
0.5911
14.42
0.103
3.6
0.01979
0.04456
0.3607
1.04
0.1545
0.424
0.1402
0.001439
20.33
0.001425
0.6981
27.37
0.127
0.2675
0.002061
6.184
0.01776
0.1898
0.22
0.6038
0.6567
0.01649
24.02
0.03003
0.3829
1.263
0.6672
0.7245
14.41
0.4857
11.72
0.3897
0.01425
0.2067
1.551
0.02041
0.0835
2.339
0.162
19.03
2.34
4.56
0.02649
0.3158
0.02555
0.01605
0.02514
2.766
0.1434
0.1898
0.001144
0.2881
0.2242
0.9521
0.5675
11.61
0.01767
0.879
3.566
0.5342
0.1273
0.1906
0.03331
0.3507
0.005848
0.2876
0.9448
0.01621
0.5703
19.72
0.4308
2.023
0.2473
5.939
2.507
0.5112
2.011
5.752
0.7159
2.634
0.7001
0.2432
0.9324
0.3458
0.3961
0.6032
0.8253
0.003764
0.6842
0.002589
1.748
13.62
0.4751
0.7234
12.59
0.1978
0.4425
0.001238
0.6773
0.3119
30.11
0.1679
0.01156
0.2227
0.5579
0.567
0.001196
0.6914
0.5608
0.2731
0.2673
3.403
2.092
14.7
0.4662
0.8467
0.5279
0.1795
0.6183
0.02039
2.809
1.363
0.01826
0.2811
0.2905
0.5572
1.224
1.774
0.05825
3.839
4.802
0.0788
1.031
3.294
2.289
1.422
0.004777
0.001878
0.8282
0.4653
0.3942
0.01225
3.595
0.5055
2.075
7.851
0.00774
0.5689
2.901
0.27
18.34
0.5581
0.6688
0.8307
0.2094
0.6549
0.01818
0.354
14.46
0.4049
0.6352
0.1938
0.2171
0.009639
0.002932
0.5417
0.4423
0.2479
1.093
0.3032
0.01552
1.042
1.082
0.1635
1.61
30.13
1.48
0.001143
0.1431
0.02025
0.6124
1.013
1.204
2.755
1.895
2.253
0.02847
0.9456
0.03095
0.1325
0.9587
0.3069
4.012
0.6323
27.33
0.0406
0.7757
2.1
0.01755
0.4941
0.328
4.964
0.135
0.03783
0.01596
0.003865
0.3225
0.01532
0.2617
1.291
0.2313
0.2426
0.5782
0.04737
0.4459
0.1514
0.003615
2.442
1.142
5.373
0.5558
0.01707
1.419
2.078
0.02079
3.317
0.1733
1.609
0.3715
14.72
0.3121
2.967
0.1535
0.171
0.04183
0.1917
0.04363
0.06248
2.955
0.4154
0.5017
0.3908
0.4443
0.5786
0.01903
0.06054
0.07067
0.3373
0.2589
0.6936
9.678
0.1124
0.02259
1.703
0.1169
3.093
0.01164
0.7215
1.236
0.1787
0.1541
1.46
0.8532
0.8201
0.3081
0.756
0.01613
1.446
0.1886
0.4133
0.9544
7.735
1.577
0.0742
0.2939
0.2945
0.172
44.64
0.01598
1.082
0.4163
0.2116
0.3036
0.3084
25.66
0.3433
6.253
1.048
18.68
0.2978
0.2572
5.547
1.306
0.02312
0.639
0.2061
0.8241
0.7767
0.1717
3.355
0.001286
0.7368
3.227
1.634
0.9446
2.257
2.237
0.02046
0.9639
0.9612
0.6266
0.1242
0.05041
0.6611
0.3218
0.7811
3.02
0.01015
0.4611
0.1768
0.2356
0.2791
1.387
1.366
0.2627
1.371
1.817
0.006694
0.3435
0.2638
10.94
1.22
5.661
0.3493
0.3326
0.2324
0.1143
0.5776
0.889
5.738
2.008
4.947
29.19
0.3786
0.1134
13.67
1.278
1.981
0.001165
3.099
6.991
1.185
0.4187
0.01548
1.745
0.02492
0.258
1.592
0.3991
0.9145
0.156
1.559
0.2438
4.224
0.2354
0.8407
0.7509
5.842
1.019
0.8002
0.299
0.194
9.539
0.1525
7.736
0.3149
0.3659
0.02788
7.758
0.1596
0.05709
0.01872
0.267
0.5998
0.03005
0.006624
0.01777
0.6178
2.231
25.12
0.08112
0.001947
0.4383
0.006334
0.004797
1.118
0.0007558
0.4157
8.938
0.04992
1.004
0.5235
0.9997
0.1276
0.5521
0.06398
0.4702
0.205
6.097
0.2917
0.55
0.9223
1.857
0.09008
0.001949
0.1365
1.763
0.0191
0.1179
0.5493
1.587
7.392
0.4277
0.4075
1.552
0.01533
0.3855
0.952
0.6052
0.4385
0.368
0.0006106
0.382
0.3319
1.004
0.532
0.6026
0.001487
1.877
0.5034
0.00127
0.2412
0.0005833
0.9186
0.01825
14.54
10.13
0.02553
0.6324
0.642
0.1044
6.978
1.279
0.01577
1.668
0.3074
0.5653
2.387
0.0406
0.08294
9.638
0.3442
0.6471
0.1562
0.3256
0.1893
0.2479
0.4936
0.001192
0.271
1.011
0.3101
0.2669
0.2026
1.327
0.2918
0.3159
1.581
0.3569
0.213
2.922
0.03123
0.1962
3.219
0.194
0.04386
0.206
0.4531
1.339
0.478
0.4807
6.717
0.2293
0.7408
0.3541
0.003949
0.2555
2.155
0.2034
1.261
0.03991
1.458
0.1342
0.3555
0.08649
0.1435
2.437
1.133
0.231
0.499
8.123
0.4018
0.008639
0.01417
0.2247
1.893
2.005
0.3545
0.3111
0.1553
0.7238
0.1022
0.1579
16.06
0.158
0.1481
7.055
0.7397
0.2826
0.2202
0.06008
121.8
0.01529
0.3049
0.6989
0.3688
0.4262
0.3912
2.121
0.1806
0.751
0.09301
80.23
1.044
0.1981
107.9
6.303
1.342
0.9079
0.003015
0.1461
0.08628
3.789
0.04084
1.601
14.63
0.06839
0.8577
0.2712
0.2907
6.663
0.908
11.17
4.357
0.5329
0.007535
0.007601
0.02473
0.7468
13.45
0.2558
0.0161
0.07619
5.721
0.6581
8.916
0.3417
0.0146
63.96
0.05107
0.1923
0.1695
0.03508
0.3067
0.1763
0.1975
0.06362
2.567
0.2095
0.4811
0.4178
50.32
0.195
1.471
0.6673
0.143
0.09464
51.34
1.429
5.013
0.3616
0.7876
3.301
3.114
0.09848
0.2162
0.7556
0.6132
1.837
0.002189
12.78
0.263
5.55
0.2133
0.03398
0.05871
0.01491
0.7537
0.3171
0.4198
0.4483
0.2311
3.49
0.7038
0.1929
0.1179
1.732
0.1135
0.9798
1.535
1.285
0.1835
0.06325
0.2775
0.2881
0.518
0.1298
0.6855
1.477
6.26
0.3215
0.2917
2.065
0.3837
2.685
0.2314
0.7916
0.1071
6.88
2.177
1.427
0.2343
3.478
0.06248
2.769
1.454
0.4526
0.3104
0.3175
0.8156
1.015
0.2579
0.4271
0.3326
2.295
27.7
0.003001
0.03236
0.01247
0.4871
0.8525
0.4223
4.746
2.213
4.502
1.748
0.5504
2.291
4.152
0.2221
1.087
1.746
0.6895
6.184
0.01727
10.47
2.394
2.49
0.08593
2.258
0.5035
0.621
1.417
2.197
0.01554
0.07083
0.6128
2.887
0.005167
0.5809
0.0942
0.4821
316.8
0.001281
0.199
0.1373
0.716
0.9084
0.1941
0.5718
1.389
0.8064
2.458
0.9478
0.04418
0.1656
3.188
0.02128
0.01727
7.495
3.758
0.5162
0.5684
0.06524
0.5566
1.244
0.847
2.135
0.5598
0.0366
0.7512
0.1725
0.1646
0.01122
0.8263
0.006334
62.42
0.7549
1.182
0.1289
13.87
0.01342
1.426
0.005135
0.1048
4.558
0.2397
8.473
0.1536
0.0664
0.5555
0.5606
0.244
0.4753
0.2814
1.074
2.186
0.7589
1.165
2.269
6.656
0.712
0.4227
0.848
6.035
0.7441
0.4365
0.1713
0.008549
31.11
0.4684
0.5485
11.51
0.01701
2.227
0.1395
0.008261
0.184
118.3
0.1271
0.9347
17.68
0.06423
1.139
0.8381
0.2125
0.1355
0.507
16.48
2.391
0.02229
7.782
23.82
0.07586
0.01634
0.8433
1.692
0.7412
1.733
0.5925
3.344
0.01739
0.8434
0.1587
3.665
1.542
12.3
0.00829
0.008374
0.1618
1.181
0.0336
0.1786
0.217
4.041
0.2695
0.2958
1.332
0.08355
0.01835
7.578
2.476
4.623
2.007
0.04126
0.5265
0.002811
0.4877
9.535
0.5713
1.311
4.103
1.011
1.118
1.177
0.5638
0.4886
0.02122
0.01717
0.02002
0.1709
0.8732
0.9912
7.985
0.731
0.01795
0.565
0.9745
2.156
8.706
0.5978
0.5944
2.068
2.515
0.07986
0.3554
0.2281
1.654
0.07761
2.142
0.2184
0.3741
0.7764
2.197
0.004535
0.01519
3.952
0.2736
0.1439
0.3018
10
0.4806
0.00491
0.4026
0.3832
0.5574
0.4493
1.723
0.5318
1.141
5.686
0.09026
0.0005934
0.4969
0.05835
0.1126
0.06687
8.871
0.2395
1.667
0.322
0.3354
0.772
0.02506
1.624
1.497
0.4394
0.278
1.981
15.79
0.03261
0.01659
1.987
0.3506
0.5518
0.2245
0.1251
1.238
0.04828
0.02924
0.6446
2.197
0.01984
1.275
1.004
0.01325
4.512
0.03645
0.2672
0.4463
2.217
0.2041
14.95
0.8984
0.4501
0.03642
0.01543
0.2511
0.3209
0.3857
0.1842
0.007328
0.007087
0.02053
0.3638
0.5239
1.726
0.0007055
1.314
0.257
1.135
0.48
2.951
0.14
0.03272
3.155
0.01771
5.367