/*--------------------------------*- C++ -*----------------------------------*\
  =========                 |
  \\      /  F ield         | OpenFOAM: The Open Source CFD Toolbox
   \\    /   O peration     | Website:  https://openfoam.org
    \\  /    A nd           | Version:  8
     \\/     M anipulation  |
\*---------------------------------------------------------------------------*/
FoamFile
{
    version     2.0;
    format      ascii;
    class       volVectorField;
    location    "20";
    object      U;
}
// * * * * * * * * * * * * * * * * * * * * * * * * * * * * * * * * * * * * * //

dimensions      [0 1 -1 0 0 0 0];

internalField   nonuniform List<vector> 
127143
(
(0.07764 -0.00223 1.386e-22)
(-0.002297 -0.01082 -1.091e-22)
(0.001739 0.008602 1.061e-22)
(0.002336 0.01055 0)
(0.6785 0.2274 0)
(0.002096 0.01041 0)
(0.681 0.4109 6.269e-22)
(0.6961 0.3183 0)
(0.6089 0.2765 1.812e-21)
(0.6657 0.02745 3.232e-21)
(0.3765 0.5464 0)
(0.624 0.3854 8.63e-23)
(0.03599 -0.01383 3.092e-23)
(0.003084 0.01128 0)
(0.317 -0.3251 0)
(0.7119 -0.05125 3.85e-23)
(-0.004617 -0.01813 1.433e-22)
(0.7583 -0.06932 0)
(0.6679 -0.1478 -7.378e-22)
(0.7891 -0.005899 9.829e-23)
(0.9383 -0.2245 0)
(0.2955 -0.1071 1.172e-22)
(1.03 -0.1619 6.631e-22)
(1.117 -0.1031 8.514e-23)
(0.2928 -0.1067 3.506e-22)
(1.093 -0.1759 0)
(1.167 -0.01134 8.164e-23)
(1.165 0.01542 -5.956e-21)
(0.9187 -0.4238 0)
(0.8027 -0.05419 5.423e-21)
(1.098 -0.07635 7.452e-24)
(1.069 -0.1775 9.487e-22)
(1.247 0.3175 7.882e-22)
(0.889 -0.2185 -1.171e-21)
(0.8946 -0.08354 6.14e-23)
(1.261 0.3234 7.725e-22)
(0.6405 -0.2115 -8.855e-22)
(1.049 -0.1668 6.447e-22)
(1.122 -0.1035 3.988e-23)
(1.062 -0.04989 6.542e-23)
(0.6674 -0.1461 -2.49e-22)
(1.121 0.2896 0)
(1.098 0.2774 5.535e-22)
(0.0729 -0.02408 -3.222e-22)
(0.7605 -0.06525 0)
(0.8962 -0.2187 1.136e-21)
(0.9302 -0.4257 0)
(0.6685 -0.2113 -3.51e-22)
(1.144 -0.1965 -2.329e-23)
(1.116 -0.09284 -3.005e-23)
(0.7647 -0.0557 4.769e-23)
(0.9502 -0.03536 2.886e-21)
(1.145 -0.1383 -3.304e-22)
(1.094 -0.06296 -7.478e-24)
(0.9998 -0.002556 -6e-21)
(1.117 -0.283 -2.051e-21)
(0.9992 -0.002747 5.729e-21)
(1.111 -0.1027 -1.388e-22)
(1.001 -0.01859 4.177e-22)
(1.095 -0.05948 9.209e-22)
(0.676 -0.1805 -6.736e-22)
(0.7494 -0.2108 0)
(1.126 -0.08911 3.013e-23)
(1.002 0.001074 0)
(1.177 -0.1131 3.526e-21)
(1.013 -0.2756 -5.499e-22)
(1.063 0.02107 1.056e-21)
(1.125 -0.09099 0)
(1.125 -0.09095 0)
(0.9984 0.0006422 3.128e-21)
(1.11 -0.09278 3.754e-23)
(1.193 -0.001803 -2.318e-21)
(0.6193 -0.1043 2.581e-22)
(1.002 -0.01788 0)
(1.008 0.006027 8.961e-21)
(1.199 0.0132 5.119e-21)
(1.023 0.04262 0)
(0.7127 -0.2246 4.196e-22)
(1.118 -0.2829 1.023e-21)
(1.001 0.001472 -4.262e-21)
(0.9329 -0.4183 -2.539e-21)
(0.8319 -0.01196 -2.21e-22)
(0.9353 -0.2202 2.475e-21)
(1.062 -0.07075 -3.512e-23)
(0.5666 -0.1407 0)
(0.7082 -0.2229 -7.878e-22)
(1.128 -0.1123 -1.262e-22)
(1.252 0.1017 7.057e-22)
(1.01 -0.2731 0)
(1.22 0.6132 0)
(0.9952 -0.02959 -6.464e-21)
(0.9569 -0.1618 -2.398e-21)
(1.203 0.5922 0)
(0.9392 -0.2241 -4.226e-22)
(1.022 -0.2061 1.833e-21)
(1.05 -0.04368 1.046e-21)
(1.119 0.2825 0)
(1.085 -0.08495 6.979e-23)
(0.7777 -0.2302 6.404e-22)
(1.062 0.02546 0)
(1.001 0.001428 7.816e-21)
(1.145 -0.1968 -1.896e-22)
(0.9738 0.8357 0)
(1.131 -0.1302 1.258e-22)
(0.7088 -0.2227 7.299e-22)
(0.7764 -0.2304 0)
(1.145 -0.175 -1.184e-22)
(0.9982 0.0006445 -2.34e-21)
(0.9007 -0.3529 -2.575e-22)
(1.005 -0.001304 3.538e-20)
(0.3259 -0.3258 -3.401e-21)
(1.241 0.1096 6.423e-22)
(0.9793 -0.2177 7.716e-22)
(0.3533 0.2431 9.16e-22)
(0.9957 0.02201 -1.652e-21)
(1.125 -0.1803 1.173e-22)
(0.9985 0.0548 0)
(1.008 0.006272 -4.713e-21)
(1.023 0.04192 -2.727e-22)
(0.01024 0.05306 1.214e-22)
(1.005 -0.00149 -2.951e-20)
(0.9017 -0.2259 1.232e-21)
(1.028 -0.3632 -5.117e-22)
(1.096 -0.1109 -7.257e-23)
(0.9304 -0.4269 4.809e-21)
(1.023 -0.1359 7.616e-23)
(0.7874 -0.2234 0)
(1.03 -0.007744 0)
(1.194 -0.1071 -2.861e-22)
(1.099 -0.3141 0)
(0.7889 -0.2333 1.843e-21)
(0.9634 -0.2209 0)
(1.13 -0.103 -7.333e-23)
(0.7128 -0.2243 -2.058e-22)
(-0.007383 -0.02566 -5.815e-22)
(0.79 -0.2334 -1.938e-21)
(0.949 -0.07737 -1.659e-21)
(0.9548 -0.2186 -2.145e-21)
(0.8406 -0.4641 2.42e-21)
(0.9896 -0.07459 -3.912e-21)
(1.029 -0.194 -2.608e-22)
(0.9904 0.04764 -7.603e-22)
(1.1 -0.1618 0)
(1.007 -0.1983 -1.09e-21)
(1.144 -0.1381 4.901e-22)
(1.296 0.3097 4.51e-22)
(0.008352 0.07961 -2.255e-21)
(1.002 0.0009042 -1.938e-23)
(0.9627 -0.2209 -8.542e-23)
(1.057 0.8336 -6.531e-24)
(1.132 -0.1217 -1.316e-22)
(1.143 -0.2194 3.497e-22)
(1.056 -0.1589 0)
(0.9018 -0.1619 0)
(0.5711 -0.4072 -8.827e-22)
(0.5689 -0.1409 0)
(1.111 -0.1019 -1.327e-22)
(1.052 -0.3629 0)
(0.6686 -0.2109 -4.684e-25)
(1.087 -0.09144 1.596e-22)
(1.105 -0.07983 -4.356e-25)
(0.6436 -0.3181 2.034e-21)
(0.9966 -0.03047 5.847e-21)
(0.788 -0.2332 0)
(1.104 -0.2897 -3.836e-22)
(1.18 -0.1133 -7.195e-22)
(0.6532 -0.2151 -1.023e-21)
(0.8599 -0.31 2.64e-21)
(1.356 0.2691 -8.074e-23)
(0.9495 0.05624 2.602e-22)
(0.4449 -0.1556 1.589e-22)
(1.006 -0.1989 0)
(1.127 -0.1918 -5.808e-22)
(1.088 -0.3024 7.811e-22)
(0.9897 -0.001096 0)
(0.4965 -0.153 4.545e-24)
(1.264 0.3736 -3.076e-23)
(1.193 -0.1078 -2.778e-22)
(1.124 -0.1134 -2.071e-22)
(0.9558 -0.03353 0)
(1.087 -0.3032 -8.029e-22)
(1.022 -0.04809 5.141e-21)
(0.4753 -0.1361 2.957e-23)
(0.4962 -0.1522 -4.642e-24)
(1.099 -0.3155 -7.89e-22)
(0.7499 -0.2101 0)
(1.046 0.151 0)
(0.3719 0.2603 0)
(1.119 -0.1033 0)
(0.9748 -0.04352 2.123e-22)
(1.131 -0.152 1.272e-22)
(1.141 -0.1487 -1.176e-22)
(0.953 -0.07587 0)
(0.3952 0.5875 -3.11e-22)
(-0.004821 -0.02951 5.259e-22)
(0.8507 -0.2256 -2.428e-21)
(1.001 1.821e-05 -2.165e-22)
(0.9998 3.627e-06 -5.116e-23)
(0.4406 0.01369 2.311e-24)
(0.9893 0.03123 4.265e-22)
(1.021 0.01312 -1.853e-21)
(0.9262 0.01836 8.86e-22)
(0.8779 -0.0395 2.576e-21)
(0.6421 -0.2116 9.221e-26)
(0.003797 0.01871 5.565e-22)
(1.123 -0.08191 2.74e-24)
(1.012 -0.1136 -8.933e-22)
(1.139 -0.1944 -6.476e-22)
(0.8067 -0.05672 -1.297e-20)
(0.9957 0.02144 7.923e-22)
(0.9021 -0.1335 1.83e-21)
(0.5473 -0.1466 -1.039e-22)
(0.9814 -0.007221 -1.305e-20)
(1.357 0.2725 8.306e-23)
(0.79 -0.2339 0)
(0.6521 -0.01975 3.262e-23)
(0.4456 -0.1571 -9.277e-23)
(1.136 -0.2135 3.326e-22)
(0.9206 -0.2295 0)
(1.013 -0.1126 -6.286e-22)
(1.255 0.3675 -2.118e-23)
(1.003 0.0104 0)
(1.143 -0.2191 -3.876e-22)
(1.149 -0.1326 0)
(1.077 -0.08883 -5.117e-23)
(0.4646 -0.1633 -9.039e-23)
(1.109 -0.2917 2.765e-22)
(1.05 -0.1652 0)
(0.5281 -0.1836 -1.667e-22)
(0.7717 -0.2265 4.504e-22)
(0.9462 -0.2234 1.278e-21)
(1.021 -0.04874 -2.288e-21)
(0.6243 -0.1056 0)
(0.039 -0.02793 -3.733e-22)
(0.9457 -0.2234 -2.908e-22)
(1.07 -0.1049 3.902e-22)
(0.7882 -0.2332 -1.084e-21)
(0.1904 -0.01566 1.554e-22)
(1.021 0.01261 2.872e-21)
(1.121 -0.1563 -4.24e-23)
(1.141 -0.1485 0)
(1.214 -0.08649 9.454e-22)
(0.571 -0.1834 -1.762e-22)
(1.052 -0.3627 -5.162e-22)
(1.131 -0.1278 0)
(0.01012 0.0529 -2.365e-22)
(1.143 -0.2231 0)
(1.165 -0.02142 0)
(0.3377 -0.1026 -6.198e-22)
(0.9987 0.0009007 -2.112e-21)
(1.245 0.2049 0)
(1.079 -0.1159 0)
(1.124 -0.2534 0)
(0.9898 -0.2099 0)
(1.128 -0.2725 7.906e-22)
(0.9188 -0.3535 -1.146e-22)
(1.029 -0.007882 0)
(1.347 0.3474 -9.205e-22)
(1.101 -0.2688 4.718e-22)
(0.9158 0.1314 -3.936e-22)
(0.8815 -0.2242 5.936e-24)
(0.998 -0.05058 1.478e-21)
(0.9594 -0.1597 6.428e-23)
(0.9891 0.04716 0)
(1.175 -0.1067 -1.497e-21)
(1.197 -0.09974 6.386e-22)
(0.7176 -0.2261 9.25e-22)
(0.548 -0.4187 0)
(0.7486 -0.2905 0)
(1.143 -0.08999 -7.39e-22)
(1.124 -0.2111 -9.095e-23)
(0.9889 -0.001144 0)
(0.6612 -0.206 0)
(1.12 -0.157 0)
(1.128 -0.08699 0)
(1.131 -0.1516 0)
(0.9789 -0.2178 -7.657e-22)
(1.143 -0.1761 1.401e-24)
(0.9808 -0.003697 -5.092e-21)
(1.067 -0.3025 -6.339e-22)
(0.9909 -0.001105 0)
(1.042 -0.03933 0)
(1.13 -0.1301 0)
(0.9896 0.009548 -6.783e-21)
(1.008 0.02001 -1.668e-22)
(-0.01622 -0.0344 4.199e-22)
(0.8463 -0.2349 -5.415e-22)
(0.9965 0.02335 9.068e-22)
(1.139 -0.1561 -1.233e-24)
(0.953 -0.03414 1.475e-21)
(1.055 -0.1578 -1.652e-22)
(1.068 -0.2026 0)
(1.069 -0.1056 -7.473e-22)
(1.125 -0.2105 0)
(0.9858 -0.01869 1.349e-21)
(0.9025 -0.3731 -2.092e-23)
(1.106 -0.09371 0)
(0.3398 -0.1254 -6.167e-23)
(0.5714 -0.1838 3.409e-22)
(1.141 -0.08892 0)
(1.11 -0.1223 -3.481e-22)
(1.046 -0.2499 1.564e-21)
(0.9337 -0.2786 1.443e-21)
(1.123 -0.1799 1.258e-22)
(1.067 -0.08349 -1.325e-22)
(0.7506 -0.4267 -1.059e-21)
(1.139 -0.194 5.366e-22)
(0.9808 -0.007271 7.999e-21)
(0.8448 -0.2046 4.248e-24)
(1.134 -0.1194 -8.771e-25)
(1.144 -0.1706 0)
(0.3391 -0.169 -7.211e-23)
(1.126 -0.2726 -7.054e-22)
(0.9912 -0.001143 -1.585e-21)
(0.9844 0.0128 0)
(1.311 0.4182 4.157e-23)
(1.061 -0.1678 3.378e-22)
(1.104 -0.1159 5.05e-22)
(0.9917 -0.1352 -2.719e-22)
(0.9397 -0.01532 2.379e-21)
(1.026 -0.1602 1.538e-22)
(1.098 -0.08267 -4.197e-24)
(1.028 -0.02549 2.773e-21)
(1.124 -0.253 2.927e-22)
(1.313 0.4181 0)
(1.1 -0.1508 0)
(0.9098 -0.03749 -4.493e-21)
(0.4246 -0.04539 -7.125e-23)
(1.099 -0.03678 -1.996e-22)
(1.218 0.4289 1.656e-22)
(0.7352 -0.2168 5.322e-22)
(1.008 0.01969 1.059e-21)
(0.8981 -0.08341 -1.861e-22)
(1.001 1.405e-05 0)
(0.9998 2.837e-06 0)
(0.8988 -0.1563 0)
(0.9109 -0.3519 0)
(1.127 -0.1922 0)
(0.7343 -0.2166 -2.581e-22)
(0.8617 -0.2344 2.004e-25)
(0.9898 -0.07274 5.223e-21)
(1.136 -0.213 -6.222e-22)
(1.138 -0.1398 2.85e-22)
(1.132 -0.1506 0)
(0.3986 -0.1285 1.381e-21)
(1.138 -0.1559 3.594e-22)
(0.9401 -0.2254 -1.64e-21)
(1.025 -0.2049 -6.883e-25)
(1.119 -0.1338 -4.146e-22)
(1.217 -0.08589 0)
(1.121 -0.1289 0)
(0.722 -0.1726 5.887e-22)
(0.5169 -0.1668 9.775e-23)
(1.132 -0.151 0)
(0.9332 0.05251 0)
(0.9252 -0.226 -2.557e-21)
(0.9887 -0.2106 6.321e-22)
(1.295 0.2707 -5.661e-22)
(0.981 -0.01557 1.259e-21)
(1.094 -0.03477 1.228e-22)
(0.6546 -0.199 1.864e-22)
(1.126 -0.08921 0)
(0.7836 -0.131 7.653e-22)
(1.112 -0.08506 0)
(1.118 -0.09564 2.71e-23)
(1.004 0.005033 1.104e-22)
(0.9897 0.0305 4.969e-22)
(0.9687 -0.008197 -1.331e-21)
(1.024 -0.1957 3.687e-21)
(0.9831 -0.003434 -1.332e-22)
(0.5868 -0.2141 9.83e-22)
(1.026 -0.02714 -4.248e-21)
(1.098 -0.1199 4.308e-24)
(1.112 -0.08711 0)
(0.9792 -0.04213 -8.834e-21)
(1.01 -0.09699 -1.376e-22)
(1.117 -0.1084 -1.308e-22)
(0.311 -0.1968 -7.932e-23)
(0.7563 -0.2271 0)
(0.978 -0.004691 -8.127e-22)
(0.8538 -0.1815 -1.203e-21)
(1.055 -0.1377 0)
(1.118 -0.1395 1.71e-22)
(1.046 -0.2531 1.98e-21)
(0.9986 0.05393 0)
(0.9061 -0.06621 8.142e-24)
(0.9847 0.09421 -5.357e-24)
(1.067 -0.05076 -7.9e-23)
(0.8531 -0.2263 2.277e-22)
(0.9559 -0.1923 0)
(1.01 -0.01344 3.873e-21)
(0.8883 -0.2511 0)
(0.4917 -0.1715 2.43e-22)
(1.123 -0.2807 -3.067e-22)
(1.117 -0.1021 0)
(1.094 -0.08355 -3.383e-23)
(0.8927 -0.2523 -1.977e-21)
(1.102 -0.07638 1.179e-23)
(0.9314 0.05069 5.174e-22)
(0.9963 -0.04944 -3.991e-22)
(1.047 -0.07978 4.198e-23)
(1.003 0.009977 -2.141e-22)
(0.9747 -0.2165 0)
(0.4783 -0.136 0)
(0.9891 0.09353 0)
(1.136 -0.1356 -2.927e-22)
(0.7119 -0.2226 0)
(1.132 -0.1081 -6.93e-23)
(0.9999 0.001387 -4.534e-21)
(1.125 -0.1135 9.246e-23)
(0.9323 -0.3942 0)
(1.127 -0.1608 -2.641e-22)
(1.029 -0.1923 0)
(0.6821 -0.2126 0)
(1.026 -0.3619 -5.114e-22)
(1.023 -0.2056 -1.365e-21)
(0.8466 -0.2339 6.919e-23)
(1.117 -0.2096 -1.796e-22)
(1.1 -0.1346 1.888e-21)
(1.006 -0.3927 5.999e-22)
(0.6538 -0.215 6.824e-22)
(0.5503 -0.19 3.972e-21)
(0.8011 -0.2342 0)
(0.9995 0.001014 0)
(0.7714 -0.2269 0)
(0.9612 0.1523 5.113e-22)
(1.093 0.2666 -3.306e-22)
(0.9824 -0.1815 0)
(1.215 -0.08673 0)
(1.009 -0.1324 -6.565e-22)
(1.005 -4.804e-05 4.774e-21)
(0.7936 -0.2337 0)
(0.5141 -0.1671 0)
(0.8697 -0.1449 -3.156e-21)
(1.224 -0.04043 2.491e-23)
(1.004 0.00493 0)
(1.141 -0.1691 1.055e-22)
(0.9679 -0.2185 -1.414e-21)
(0.9509 -0.03441 -1.52e-21)
(0.985 -0.01765 1.397e-21)
(0.9943 -0.0008376 -1.923e-20)
(1.118 -0.09308 0)
(0.9437 -0.07901 6.126e-22)
(0.9165 -0.3588 2.349e-22)
(0.9627 0.0512 -1.243e-21)
(1.088 -0.08537 -5.157e-23)
(0.9796 0.01334 -1.873e-22)
(0.6856 -0.4537 -2.821e-22)
(0.9658 -0.00884 -5.43e-22)
(0.5471 -0.1449 -9.765e-23)
(0.8817 -0.231 0)
(1.127 -0.1365 6.346e-26)
(1.135 -0.1352 -9.803e-23)
(1.048 -0.1888 3.109e-21)
(0.894 0.05892 8.514e-22)
(0.6283 -0.207 -4.07e-22)
(1.115 -0.1323 -2.477e-22)
(1.227 -0.07369 1.665e-21)
(0.6503 -0.2118 0)
(1.093 -0.1314 2.997e-21)
(1.13 -0.103 0)
(1.186 -0.1072 8.536e-22)
(0.9356 -0.2052 0)
(0.426 0.231 -1.62e-21)
(1.186 -0.1081 0)
(0.9925 -0.0005497 4.078e-21)
(1.014 0.0386 -2.064e-23)
(1.048 -0.1922 9.873e-22)
(0.879 -0.2302 1.821e-21)
(0.9995 -6.727e-05 0)
(0.7875 -0.2294 0)
(0.9847 -0.1528 0)
(1.095 -0.1103 2.904e-22)
(1.059 -0.167 0)
(1.007 -0.1006 0)
(1.008 0.0004581 1.126e-20)
(0.4934 -0.3644 0)
(0.9867 -0.1505 0)
(0.5633 -0.1955 -5.972e-22)
(1.134 -0.1356 0)
(0.8347 -0.4566 3.046e-21)
(0.6675 -0.4493 4.831e-22)
(1.11 -0.1656 3.704e-22)
(1.125 -0.2728 -6.247e-22)
(0.9274 -0.3852 -3.915e-22)
(1.223 -0.04001 -5.263e-22)
(1.126 -0.1366 -1.38e-22)
(1.019 0.004303 0)
(1.094 -0.09225 -1.75e-22)
(0.9619 0.02982 0)
(1.298 0.4145 2.717e-23)
(1.129 -0.1124 1.705e-22)
(1.152 -0.1356 5.72e-22)
(1.301 0.2939 -5.156e-22)
(0.005411 0.02928 -5.061e-22)
(0.7743 -0.2328 4.618e-22)
(0.4175 0.07003 4.101e-21)
(1.076 -0.08523 -1.296e-21)
(1.017 0.5196 -2.388e-22)
(0.9833 -0.001398 0)
(0.8382 -0.4541 -3.056e-21)
(1.015 0.03825 2.326e-24)
(0.5647 -0.1853 -2.299e-22)
(0.8524 -0.2249 -8.242e-22)
(-0.00499 -0.02328 0)
(-0.0163 -0.075 2.05e-22)
(0.203 -0.06799 1.132e-22)
(1 -0.000366 0)
(0.9257 -0.2262 8.073e-23)
(1.289 0.02714 0)
(0.985 0.01283 4.278e-23)
(0.6779 -0.2029 4.798e-22)
(1.03 -0.3658 2.643e-22)
(0.7198 -0.2263 1.688e-22)
(1.133 -0.1602 0)
(0.8817 -0.2313 0)
(1.126 -0.1364 2.778e-22)
(0.7883 -0.2294 0)
(0.9211 -0.1781 -4.861e-22)
(0.994 -0.0003403 -4.081e-21)
(0.5257 -0.13 0)
(0.2549 -0.09153 -4.87e-22)
(1.001 -0.3991 -7.621e-22)
(1.107 -0.1076 3.303e-23)
(0.4483 -0.1562 0)
(1.005 -0.01666 0)
(1.132 -0.1216 -1.532e-22)
(0.8815 -0.04067 3.193e-21)
(0.9361 -0.2042 0)
(1.006 -0.01501 1.667e-21)
(1.083 -0.08846 0)
(1.28 0.5602 0)
(0.5148 -0.1796 1.219e-22)
(0.9994 3.933e-06 -1.054e-21)
(1.048 -0.1928 6.147e-22)
(1.07 -0.1201 1.232e-21)
(0.4086 -0.1465 -4.638e-23)
(0.9057 -0.3974 5.396e-22)
(1.341 0.3407 -2.475e-22)
(0.8928 -0.2061 0)
(0.9555 0.02027 1.382e-22)
(0.604 -0.2049 0)
(0.9967 -0.3609 -6.504e-22)
(0.9995 -6.716e-05 0)
(1.047 -0.2517 -2.9e-21)
(1.092 -0.1367 3.161e-21)
(1.109 -0.09418 0)
(1.113 -0.08504 6.118e-24)
(0.876 -0.2299 -2.006e-21)
(0.6666 -0.2179 1.128e-22)
(0.8531 -0.2258 0)
(1.178 -0.07332 -2.423e-21)
(1.014 -0.3864 9.675e-22)
(0.6927 -0.2222 3.031e-22)
(0.7952 -0.2338 0)
(1.022 -0.007157 6.347e-22)
(1.074 -0.05282 3.639e-23)
(0.8352 -0.2349 0)
(1.126 -0.1695 -3.244e-22)
(1.135 -0.1213 1.407e-22)
(0.5951 -0.1916 0)
(1 0.002843 0)
(0.9997 0.003686 0)
(0.9201 0.1272 -1.975e-23)
(0.9382 -0.2257 2.9e-21)
(0.9911 0.5516 0)
(0.9831 0.01525 2.148e-21)
(1.005 0.000715 -2.204e-22)
(0.9967 -0.3487 0)
(0.9733 -0.4177 0)
(0.7041 -0.2215 1.006e-21)
(0.9266 -0.3862 4.985e-22)
(0.6127 -0.2052 2.977e-22)
(0.6369 -0.2088 -2.867e-21)
(1.108 -0.2374 0)
(1.021 0.04097 0)
(1.001 -0.0004437 3.188e-21)
(0.5351 -0.1858 -1.442e-22)
(0.8098 -0.2319 4.221e-22)
(1.129 -0.2545 0)
(1.002 -0.000888 0)
(1.186 -0.02184 0)
(1.133 -0.1136 0)
(0.8683 -0.234 0)
(0.9782 -0.004569 1.539e-21)
(1.089 -0.1349 1.338e-21)
(0.9826 0.01474 1.127e-21)
(0.713 -0.2224 0)
(0.4831 -0.1231 4.32e-23)
(0.9278 -0.1974 -2.621e-21)
(0.9965 0.0001046 2.7e-22)
(0.6732 -0.2196 1.283e-21)
(0.8824 -0.2241 -7.059e-24)
(0.803 -0.4183 -1.62e-22)
(1.008 0.0004365 -1.117e-20)
(1.145 -0.1751 0)
(0.4462 -0.1574 -1.853e-22)
(0.9944 -0.001095 1.868e-20)
(1.136 -0.1358 2.096e-22)
(0.9898 0.02301 1.124e-22)
(1.119 -0.08638 2.245e-23)
(1.113 -0.1458 0)
(0.9897 0.009131 6.543e-21)
(0.9174 -0.2253 2.03e-21)
(1.134 -0.1515 4.095e-22)
(0.2841 -0.1548 2.597e-24)
(1.097 -0.174 2.852e-22)
(1.098 -0.1601 -8.768e-22)
(1.123 -0.1298 0)
(1.12 -0.1391 0)
(0.4267 -0.278 -2.127e-21)
(1.123 -0.1037 -3.298e-23)
(1.198 0.5872 -8.102e-24)
(1.122 -0.06169 0)
(0.5289 -0.1748 -1.639e-22)
(1.171 -0.1163 0)
(1.092 -0.0986 0)
(1.003 -0.0008992 -6.414e-21)
(1.136 -0.2383 -9.447e-22)
(0.9873 0.01109 3.896e-21)
(0.4077 -0.1069 0)
(1.037 0.00638 2.624e-21)
(1.099 -0.1615 2.53e-23)
(1.005 -6.057e-05 0)
(0.9959 0.02316 -1.648e-21)
(1.113 -0.1015 0)
(1.005 -0.393 3.026e-22)
(0.9425 -0.2253 0)
(1.006 -9.205e-06 5.301e-21)
(1.004 -0.002819 -2.9e-21)
(0.5307 -0.1839 9.303e-25)
(1.316 0.167 1.651e-21)
(0.941 -0.2213 2.237e-21)
(1.099 -0.09646 -6.616e-23)
(0.619 -0.1689 0)
(0.9155 -0.3576 -2.539e-22)
(0.8767 -0.2313 0)
(0.9333 -0.3954 1.262e-22)
(1.132 -0.1505 -2.17e-22)
(0.7853 -0.2331 5.525e-22)
(1.192 -0.09929 -1.951e-21)
(1.006 -4.065e-05 2.395e-21)
(1.238 -0.0635 7.828e-25)
(1.126 -0.1533 0)
(1.11 -0.1754 0)
(1.066 -0.1361 -4.55e-22)
(1.001 -0.02908 -9.678e-21)
(1.005 0.0006791 2.076e-22)
(1.1 -0.1499 0)
(0.8407 -0.4672 -4.123e-21)
(1.125 -0.1369 5.908e-23)
(0.4105 -0.1449 -4.539e-22)
(1.037 0.008086 -3.864e-21)
(1.003 0.0005169 -5.294e-22)
(0.7457 -0.23 -1.025e-21)
(1.184 -0.1164 -1.495e-22)
(0.9278 0.01882 -3.951e-22)
(1.141 -0.1381 0)
(1.068 -0.1529 8.53e-22)
(1.019 -0.02892 -1.622e-21)
(0.7578 -0.2307 -1.32e-24)
(1.11 -0.2555 2.193e-22)
(1.126 -0.1528 -3.537e-22)
(0.9152 -0.1928 0)
(0.07457 -0.02516 0)
(0.4668 -0.1637 0)
(0.6513 -0.2118 -9.088e-23)
(0.6283 -0.2073 3.738e-22)
(0.8461 -0.2347 0)
(1.107 -0.1683 4.251e-22)
(1.1 -0.1367 -1.345e-21)
(1.094 -0.1728 7.561e-22)
(0.9442 -0.02122 -2.464e-21)
(1.179 -0.119 -5.839e-22)
(0.4253 -0.148 0)
(0.9744 -0.2161 -1.88e-24)
(1.004 -0.001698 -1.722e-20)
(1.144 -0.1762 -8.176e-22)
(0.9848 -0.2684 -2.293e-21)
(0.6852 -0.08937 3.035e-21)
(0.9994 1.733e-05 2.871e-22)
(1.004 -0.001829 1.461e-20)
(-0.04278 -0.05252 7.947e-23)
(1.077 -0.08433 4.989e-22)
(1.14 -0.2117 0)
(1.129 -0.1562 5.103e-23)
(0.8169 -0.4446 1.313e-21)
(0.8459 -0.205 -3.253e-21)
(1.153 -0.02896 -2.088e-21)
(1.084 -0.08889 6.973e-23)
(0.7737 -0.06587 0)
(1.117 -0.2915 0)
(1.018 0.003933 8.947e-21)
(1.008 -0.0006209 1.788e-20)
(1.253 0.2342 1.6e-22)
(0.9683 0.1505 0)
(1.027 -0.1966 -2.529e-21)
(0.6912 -0.0969 -5.603e-21)
(0.9904 -0.4071 3.464e-21)
(0.6459 -0.1858 6.36e-22)
(0.9965 -0.4027 8.847e-22)
(0.9058 -0.1311 0)
(0.7884 -0.1308 0)
(0.9965 0.0001737 0)
(1.087 -0.07761 1.429e-23)
(1.009 -0.1005 0)
(1.131 -0.2582 -7.05e-22)
(-0.01098 -0.03884 -1.271e-22)
(1.143 -0.1728 2.942e-22)
(1.174 -0.1057 9.204e-22)
(0.757 -0.2268 0)
(0.9964 0.0001095 -2.478e-22)
(1.135 -0.1216 -1.818e-22)
(1.119 -0.09975 6.523e-23)
(0.4918 -0.1709 -6.702e-22)
(0.7081 -0.1266 -4.779e-22)
(0.9581 -0.2076 1.438e-24)
(1.131 -0.1507 0)
(1.06 0.8253 2.899e-23)
(0.8456 -0.234 -1.039e-21)
(0.8596 -0.4493 0)
(0.6863 -0.1815 9.325e-22)
(1.128 -0.2723 0)
(1.134 -0.1211 8.727e-23)
(1.134 -0.1196 8.388e-23)
(0.7876 -0.2229 6.103e-22)
(1.086 -0.1898 3.48e-22)
(0.1036 -0.004153 -4.826e-23)
(0.9837 -0.2704 2.061e-21)
(0.9488 0.05437 -2.644e-22)
(1.135 -0.2503 2.534e-22)
(0.9636 -0.4021 4.25e-22)
(1.13 -0.1171 0)
(1.011 -0.0003123 2.006e-20)
(0.4541 -0.1412 -4.385e-23)
(0.725 -0.1722 6.389e-22)
(0.704 -0.2212 3.079e-22)
(1.002 0.0005145 4.11e-22)
(0.4077 -0.1458 6.277e-22)
(0.802 -0.2343 7.26e-25)
(1.09 -0.1326 8.837e-22)
(0.9958 0.0002043 -1.309e-21)
(1.092 -0.1733 0)
(0.554 -0.1854 -6.391e-23)
(1.037 -0.1979 2.717e-21)
(1.168 -0.1301 2.141e-22)
(0.9958 0.0001796 -1.249e-21)
(0.7196 -0.2218 4.415e-22)
(0.4253 -0.1503 0)
(0.8505 -0.2322 0)
(0.9974 -0.2085 -7.786e-22)
(0.988 0.03316 4.03e-22)
(1.138 -0.1392 1.279e-22)
(0.2711 -0.1845 3.313e-21)
(1.026 0.001413 0)
(1.138 -0.2042 0)
(1.101 -0.2224 5.276e-22)
(1.108 -0.1678 -8.277e-22)
(0.7742 -0.2326 4.186e-22)
(1.043 -0.2482 1.486e-21)
(1.143 -0.173 -2.782e-22)
(1.066 -0.1355 7.967e-22)
(0.7205 -0.2265 8.576e-22)
(0.999 2.675e-05 -8.08e-22)
(0.7187 -0.2218 -5.628e-22)
(0.7063 -0.2033 0)
(1.037 -0.07848 0)
(1.131 -0.1627 2.367e-22)
(1.089 -0.07293 0)
(0.678 -0.2022 0)
(0.6692 -0.2184 2.631e-22)
(0.9991 4.149e-06 9.984e-22)
(0.7204 -0.2263 0)
(0.7575 -0.2309 -1.316e-25)
(1.13 -0.1388 5.183e-23)
(0.07175 -0.07139 3.69e-22)
(1.13 -0.1383 -1.03e-22)
(0.5156 -0.1798 -5.672e-23)
(1.025 -0.2039 -6.876e-22)
(0.5619 -0.1766 0)
(1.107 -0.2454 1.313e-22)
(1 -0.0003423 0)
(0.04138 -0.01733 2.793e-22)
(0.8181 -0.2346 4.725e-22)
(1.097 -0.1739 0)
(0.5324 -0.1864 0)
(0.6654 -0.2138 0)
(0.6318 -0.2112 3.386e-22)
(0.72 -0.2268 -1.367e-22)
(1.112 -0.09302 -3.402e-23)
(1.001 -0.0003878 -5.446e-21)
(0.7109 -0.1561 0)
(1.132 -0.137 1.774e-22)
(0.9965 0.0001993 -9.532e-23)
(0.7385 -0.2291 1.069e-21)
(1.298 0.4125 -1.454e-23)
(1.144 -0.1706 -2.073e-22)
(1.038 -0.3559 -4.192e-22)
(1.006 0.0001984 -1.544e-21)
(0.877 -0.2309 0)
(0.4972 -0.1559 7.758e-23)
(1.018 0.004377 0)
(1.007 0.0002023 -1.359e-20)
(1.064 -0.138 4.631e-22)
(0.7418 -0.2106 -8.668e-22)
(0.6197 -0.1698 -2.816e-22)
(0.6191 -0.2084 0)
(0.7092 -0.2217 0)
(0.8278 -0.03204 1.4e-23)
(1.135 -0.146 1.971e-22)
(0.8231 -0.2213 2.235e-21)
(1.004 -0.001786 1.819e-20)
(0.755 -0.2296 0)
(0.6469 -0.213 0)
(1.096 -0.08084 -1.217e-24)
(1.075 -0.0847 8.793e-23)
(0.8585 -0.3051 -3.023e-23)
(1.001 0.0007155 -6.423e-22)
(1.006 -0.01587 0)
(0.9831 -0.01808 -2.321e-21)
(1.203 0.007613 -1.35e-21)
(1.004 -0.001649 -1.636e-20)
(0.9022 -0.1241 0)
(0.7864 -0.473 0)
(1.14 -0.1421 -1.189e-22)
(1.082 -0.1486 1.366e-23)
(0.9914 -0.003677 -7.585e-22)
(0.5245 -0.1491 8.04e-23)
(1.138 -0.1356 -2.092e-22)
(1.003 0.01248 3.156e-22)
(1.12 -0.1335 3.651e-22)
(1 -9.919e-05 4.342e-21)
(0.8808 -0.4328 3.38e-22)
(0.2309 -0.301 1.074e-21)
(1.125 -0.1572 -5.149e-22)
(1.151 -0.1133 0)
(1.043 -0.04838 8.396e-23)
(0.9923 -0.02828 -6.338e-21)
(0.8677 -0.2307 9.634e-22)
(0.9175 -0.2075 -2.776e-21)
(1.085 -0.08861 0)
(0.4083 -0.1533 6.611e-23)
(1.113 -0.1473 0)
(0.6929 0.9007 2.791e-22)
(1.091 -0.06945 0)
(1.105 -0.1987 1.042e-21)
(0.942 -0.3349 7.285e-22)
(0.6941 -0.1308 6.305e-22)
(1.001 0.01535 -2.067e-21)
(1.009 -0.1737 3.722e-21)
(1.074 -0.3431 5.561e-22)
(1.352 0.2316 0)
(0.4256 -0.1487 0)
(1.023 -0.169 -1.442e-21)
(1.002 0.0007212 0)
(0.8667 -0.09142 0)
(0.5347 -0.1854 2.834e-22)
(1.078 -0.248 -1.683e-21)
(1.009 -0.06156 -7.763e-21)
(1.316 0.0897 0)
(0.2478 -0.3045 0)
(1.341 0.1453 -1.366e-21)
(0.8396 0.05793 -3.074e-21)
(0.9339 -0.2273 1.819e-21)
(0.5418 -0.1886 0)
(0.7143 -0.1558 -4.313e-22)
(0.9369 -0.07506 -9.795e-24)
(1.014 0.04851 0)
(1.144 -0.164 -6.165e-22)
(1.004 0.0004862 -1.202e-21)
(0.9967 9.794e-05 -1.82e-21)
(1.09 -0.1699 4.978e-22)
(1.04 0.01639 -7.386e-21)
(1.14 -0.1488 6.318e-22)
(0.6661 -0.08009 1.42e-21)
(0.3576 0.2174 -8.176e-22)
(1.121 -0.1147 3.391e-22)
(0.9688 -0.05634 3.742e-21)
(1.309 0.446 3.094e-22)
(1.133 -0.2546 -6.347e-22)
(1.01 -0.01302 0)
(0.7679 -0.1655 0)
(0.6765 -0.2189 -1.469e-22)
(0.9721 -0.05447 -5.897e-21)
(0.9402 -0.217 -2.368e-21)
(0.3517 -0.1354 4.09e-21)
(0.4782 -0.1022 -4.136e-22)
(1.132 -0.2258 0)
(0.3428 -0.3392 6.003e-22)
(0.9943 -0.1975 -1.616e-24)
(0.6112 -0.2064 0)
(0.9869 0.001016 7.17e-21)
(1.153 -0.1346 -7.088e-22)
(1.131 -0.2583 0)
(0.9826 -0.01551 -4.13e-22)
(0.9073 -0.2265 0)
(0.8266 -0.2348 0)
(0.763 -0.2103 -7.506e-22)
(0.9995 -7.052e-05 0)
(0.9558 -0.01132 7.051e-21)
(0.8022 -0.1701 0)
(0.7358 -0.03053 0)
(1.023 -0.3325 0)
(0.3536 -0.1334 0)
(0.8135 -0.2306 -6.049e-22)
(0.9439 -0.3982 -1.38e-22)
(1.135 -0.2463 0)
(0.4255 -0.1518 0)
(1.212 -0.09245 0)
(0.9969 7.772e-05 -9.603e-22)
(0.82 -0.4789 2.344e-21)
(1.16 0.1493 8.324e-22)
(1.005 0.0004867 -3.744e-22)
(0.9464 -0.3584 0)
(0.2836 -0.1044 -8.109e-23)
(0.9017 -0.1905 1.095e-21)
(1.316 0.06717 -1.493e-21)
(1.125 -0.0792 0)
(1.129 -0.1733 -3.929e-22)
(0.3928 -0.1398 -3.01e-22)
(0.5792 -0.03462 0)
(1.122 -0.1155 -4.002e-22)
(1.02 0.04145 7.948e-22)
(0.995 0.008649 0)
(1.135 -0.214 -3.563e-22)
(0.8902 -0.3867 -7.492e-22)
(0.6858 -0.2216 -8.387e-22)
(0.9428 -0.2208 2.286e-21)
(0.3509 0.4063 0)
(0.9853 -0.4102 -1.461e-21)
(0.946 -0.02766 0)
(1.071 -0.03091 0)
(0.9867 -0.4106 1.469e-21)
(0.9852 -0.0807 2.27e-21)
(1.188 -0.07225 -2.597e-21)
(1.011 0.001136 -1.009e-20)
(0.6796 -0.2142 0)
(0.234 -0.1608 -1.183e-22)
(1.032 -0.195 0)
(0.8384 -0.2344 9.664e-22)
(0.8052 -0.2317 -3.354e-22)
(0.9911 0.006369 -1.173e-20)
(0.9675 0.009837 1.801e-21)
(0.5488 -0.1918 0)
(1.026 -0.2121 0)
(0.5858 -0.1995 -2.285e-22)
(1.134 -0.1483 0)
(0.5891 -0.2023 0)
(0.6379 -0.1959 0)
(1.123 -0.1338 0)
(1.275 -0.008846 1.758e-22)
(1.196 -0.1055 6.639e-22)
(0.6445 -0.09433 8.3e-22)
(1.13 -0.1476 -3.275e-22)
(1.089 -0.08189 -6.671e-24)
(0.7815 -0.2316 0)
(1.136 -0.138 -3.314e-22)
(0.6755 -0.2057 0)
(0.4153 0.5914 0)
(0.6408 -0.2138 -1.93e-23)
(0.2477 -0.1771 -5.472e-23)
(0.315 -0.1129 -1.75e-22)
(0.8024 -0.2318 0)
(1.011 -0.0002547 -5.221e-21)
(1.009 -0.003742 7.101e-21)
(0.7254 -0.2213 -4.382e-22)
(0.6194 -0.2024 0)
(1.114 -0.1785 0)
(1.001 1.722e-05 4.956e-21)
(0.907 -0.405 1.138e-21)
(0.8772 -0.2314 0)
(1.115 -0.09714 3.369e-22)
(0.618 -0.2087 -4.181e-22)
(1.104 -0.1449 6.007e-22)
(0.7423 -0.2286 1.289e-24)
(1.114 0.4196 -9.597e-23)
(0.9999 0.001369 4.202e-21)
(1.089 -0.1864 -6.835e-22)
(1.109 -0.08129 -5.243e-23)
(1 -0.3893 2.283e-21)
(1.067 -0.08242 2.252e-23)
(0.5362 -0.1783 0)
(0.8678 -0.2714 -1.482e-21)
(0.9928 -0.1774 0)
(1.049 -0.1888 -1.359e-21)
(1.117 -0.1017 -1.575e-22)
(1.129 -0.09502 -2.249e-23)
(0.664 -0.1886 2.892e-22)
(0.9208 -0.4114 -9.131e-23)
(1.135 -0.1297 4.247e-22)
(0.6498 -0.2143 5.25e-22)
(0.9753 -0.4226 1.76e-21)
(0.9855 -0.02047 0)
(0.5775 -0.216 3.822e-22)
(0.4002 -0.1437 -5.18e-23)
(0.7068 -0.2026 5.07e-23)
(1.104 -0.17 -9.836e-22)
(0.3086 -0.3222 -2.63e-21)
(1.006 0.02703 -2.254e-22)
(0.5285 -0.1365 -4.056e-21)
(0.6709 -0.1281 0)
(0.9956 -0.0004328 4.734e-21)
(1 -3.616e-05 0)
(1.154 -0.1356 0)
(0.9427 -0.2247 -3.39e-21)
(0.2619 -0.09728 -1.672e-22)
(0.3957 -0.1456 -2.733e-23)
(1.144 -0.1638 4.338e-22)
(1.031 -0.3802 0)
(0.6772 -0.2198 -1.203e-21)
(1.095 -0.1823 0)
(1.112 -0.1461 -1.992e-22)
(0.9965 -0.03427 0)
(0.6866 -0.2213 -2.1e-21)
(0.5596 -0.1014 0)
(0.6875 -0.2219 -1.944e-22)
(1.117 -0.2248 7.723e-22)
(0.4103 -0.1457 0)
(0.6855 -0.2197 -7.782e-22)
(0.9921 -0.002245 2.026e-21)
(0.6616 -0.08739 -5.847e-22)
(0.5555 -0.1884 -1.828e-22)
(0.9997 -0.001343 -2.852e-20)
(1.111 -0.1657 6.48e-22)
(0.995 -0.0004259 -9.463e-22)
(0.9883 -0.003157 1.492e-20)
(1.14 -0.1522 0)
(1.04 -0.1631 6.334e-22)
(0.9377 -0.1 6.394e-21)
(0.9988 -0.003311 -3.521e-21)
(1.119 -0.1332 3.817e-22)
(1.007 0.008963 0)
(1.293 0.4379 -1.276e-22)
(1.036 -0.1486 -1.347e-21)
(0.7519 -0.1527 0)
(1.132 -0.1295 -1.281e-22)
(1.138 -0.2205 1.265e-21)
(1.138 -0.164 5.744e-22)
(0.7467 -0.2277 -5.035e-23)
(1.136 -0.1245 0)
(0.9991 -0.003367 1.504e-20)
(1.026 -0.05276 -4.547e-22)
(1.038 -0.1925 0)
(1.144 -0.211 6.548e-22)
(0.6246 -0.2101 0)
(0.7037 -0.224 0)
(0.9884 -0.07255 -1.055e-23)
(0.6901 -0.2218 1.448e-21)
(0.4237 -0.1351 -4.109e-21)
(1.096 -0.1746 -1.639e-21)
(1.109 -0.3043 0)
(1.289 0.01512 1.919e-21)
(1.119 -0.1166 0)
(1.067 -0.1317 -1.301e-21)
(0.8856 0.2357 0)
(0.73 -0.162 -4.125e-22)
(0.9702 -0.0154 2.936e-21)
(1.018 -0.2044 -3.356e-21)
(0.4631 -0.1509 -6.167e-23)
(1.113 -0.1904 1.331e-21)
(0.9964 0.0003639 0)
(0.7126 -0.4644 1.519e-21)
(0.8577 -0.2286 4.819e-22)
(1.13 -0.1074 -1.843e-23)
(1.106 -0.2993 0)
(1.135 -0.15 6.402e-23)
(1.122 -0.1395 5.171e-25)
(0.9681 -0.2094 -3.137e-21)
(0.8748 -0.2185 0)
(1.13 -0.1076 1.81e-23)
(0.5262 -0.18 0)
(1.106 -0.2993 0)
(0.4053 -0.1539 -6.312e-23)
(0.9962 -0.0009823 -1.035e-21)
(1.128 -0.08956 0)
(1.033 -0.1975 0)
(0.9883 -0.0251 1.476e-21)
(0.9967 -0.2118 -2.404e-21)
(1.162 -0.1248 -2.175e-21)
(0.9999 2.611e-06 -9.87e-22)
(1.11 -0.2334 0)
(0.4666 -0.1571 -2.519e-23)
(1.013 -0.0654 0)
(0.9017 0.2372 -7.656e-22)
(1.004 -0.1914 1.309e-21)
(0.4625 -0.04969 0)
(1.08 -0.1583 0)
(1.001 2.293e-05 0)
(0.9415 -0.2259 4.701e-22)
(0.8026 -0.2338 -8.861e-22)
(1.018 -0.003291 -2.547e-22)
(0.9481 0.2071 -4.529e-22)
(1.043 0.0305 0)
(0.8688 -0.2318 2.01e-22)
(0.8794 -0.232 0)
(1.136 -0.1929 5.34e-22)
(0.9789 -0.0522 4.916e-21)
(0.4294 -0.1505 -3.152e-23)
(0.337 -0.1219 4.242e-22)
(1.137 -0.2385 7.968e-22)
(1.142 -0.1767 -5.516e-22)
(0.7695 -0.225 7.082e-22)
(0.9419 -0.07388 6.298e-25)
(0.9961 0.0004201 1.257e-21)
(1.128 -0.1159 1.451e-22)
(1.008 0.01146 -2.729e-21)
(0.7807 -0.2322 0)
(0.8471 -0.4031 0)
(1.059 -0.1911 -9.551e-22)
(1.107 -0.2987 1.755e-21)
(0.3987 -0.1596 1.83e-23)
(1.012 -0.1679 0)
(0.9988 0.005653 -7.997e-23)
(0.2356 -0.0836 0)
(0.7182 -0.2256 0)
(0.7877 -0.2302 0)
(1.129 -0.1 -9.204e-23)
(1.347 0.3473 -5.775e-22)
(0.8492 -0.221 -1.623e-21)
(0.7166 -0.1312 0)
(1.067 -0.08296 0)
(1.142 -0.1558 1.782e-22)
(0.8948 0.005018 1.171e-21)
(0.4463 -0.03189 -1.185e-22)
(0.6122 -0.2024 -2.055e-22)
(1.108 -0.08283 1.235e-23)
(1.124 -0.2345 1.282e-21)
(1.142 -0.1689 4.859e-23)
(0.7548 -0.4493 0)
(0.4307 -0.06541 7.342e-23)
(0.5637 -0.1924 -5.994e-23)
(1.146 -0.19 -2.776e-22)
(0.7079 -0.2252 0)
(1.155 -0.1116 1.466e-21)
(1.126 -0.136 -3.179e-22)
(1.119 -0.1131 -1.994e-24)
(0.8943 -0.1927 0)
(0.3652 -0.1409 0)
(1.078 -0.09794 1.422e-21)
(1.139 -0.2387 -5.912e-22)
(1.068 -0.1193 -6.311e-22)
(1.133 -0.1893 -1.776e-21)
(0.9997 3.585e-06 -1.061e-21)
(1.007 0.0004121 0)
(1.081 -0.1593 1.113e-21)
(0.911 -0.06333 0)
(0.6926 -0.2178 6.497e-23)
(0.9267 -0.02479 -6.042e-21)
(0.5884 -0.1271 0)
(0.5882 -0.2018 -3.549e-22)
(0.9934 0.01004 -1.478e-20)
(1.339 0.1893 3.55e-22)
(1.141 -0.1519 2.778e-22)
(1.13 -0.1275 1.669e-22)
(-0.01083 0.02717 9.127e-23)
(1.068 -0.2884 2.318e-22)
(0.6216 -0.2072 -1.212e-22)
(0.09848 -0.03225 -1.475e-22)
(0.7703 -0.1664 9.039e-22)
(0.566 -0.1946 -2.357e-21)
(0.7516 -0.2221 -1.063e-21)
(1.139 -0.1407 -3.455e-23)
(1.123 -0.1147 -2.227e-21)
(1.139 -0.1628 0)
(1.086 -0.09332 0)
(0.9419 -0.3825 0)
(1.081 -0.179 2.51e-21)
(1.061 -0.0782 -8.456e-22)
(0.7871 -0.11 0)
(1.144 -0.08946 0)
(0.779 -0.2329 0)
(1.111 -0.2607 -9.376e-22)
(1.123 -0.08767 0)
(0.642 -0.1869 0)
(0.3731 -0.136 0)
(0.6425 -0.2024 1.941e-22)
(1.099 -0.156 3.94e-22)
(0.5975 -0.1758 0)
(1.091 0.3158 3.021e-22)
(1.142 -0.04074 9.276e-22)
(1.139 -0.1785 1.929e-22)
(0.3687 -0.1397 3.909e-21)
(1.027 0.07242 3.427e-22)
(1.266 0.03984 0)
(0.7529 -0.2244 0)
(0.6382 -0.2121 -2.149e-22)
(0.7141 -0.2254 -2.842e-22)
(1.007 0.008857 3.392e-22)