/*--------------------------------*- C++ -*----------------------------------*\
| =========                 |                                                 |
| \\      /  F ield         | OpenFOAM: The Open Source CFD Toolbox           |
|  \\    /   O peration     | Version:  v2012                                 |
|   \\  /    A nd           | Website:  www.openfoam.com                      |
|    \\/     M anipulation  |                                                 |
\*---------------------------------------------------------------------------*/
FoamFile
{
    version     2.0;
    format      ascii;
    class       volScalarField;
    location    "5";
    object      epsilon;
}
// * * * * * * * * * * * * * * * * * * * * * * * * * * * * * * * * * * * * * //

dimensions      [0 2 -3 0 0 0 0];


internalField   nonuniform List<scalar> 
124707
(
147.1
826.2
861.5
115.9
616.9
497.9
662.1
155.2
317.5
889.4
60.58
352.7
387.9
57.67
266.1
300.7
58.23
66.44
60.92
9.907
0.01708
0.01742
28.49
0.06113
4.627
2.632
0.3281
2.376
0.1622
8.307
1.774
503.5
233
230
4.998
0.01977
0.0602
0.1074
0.2454
0.01741
2.205
9.327
0.4155
0.2574
3.935
0.05961
4.412
11.17
27.55
0.4426
0.0259
0.01706
9.1
5.304
1.211
2.53
0.1056
0.5682
50.89
0.2592
2.329
0.003947
230.4
0.7514
0.3389
8.68
0.01856
6.786
54.48
1.791
9.696
51.83
0.2936
0.03702
5.635
0.4266
1.46
0.06114
0.714
0.3023
3.179
0.3432
0.4903
6.578
2.38
0.003837
0.5721
0.003819
0.7042
5.784
0.0186
0.3016
0.4277
0.8165
0.7697
27.96
0.01816
1.002
10.91
2.358
0.0877
1.114
5.407
0.3043
0.1568
6.02
0.04257
2.142
0.7665
11.66
0.1069
0.4707
2.736
0.1006
2.926
6.033
0.02417
2.246
0.3527
2.161
1.676
4.282
3.514
0.2394
0.7368
9.418
0.9948
1.331
6.141
12.85
5.752
3.062
26.78
0.02078
0.1868
75.05
5.518
2.141
2.736
0.4717
2.844
0.008597
73.47
6.531
0.7591
1.287
1.975
2.694
0.02251
151.9
2.82
0.02049
0.01578
2.206
0.3206
0.8709
5.339
5.163
2.061
2.489
0.03121
1.646
0.02123
0.7889
26.85
0.2069
2.354
5.428
0.7446
0.1143
0.3388
4.115
4.473
2.452
56.43
2.092
0.04855
2.559
2.826
0.8399
3.787
2.647
0.007412
0.1717
0.3411
0.02059
5.073
2.913
0.09763
11.39
0.7901
0.3432
0.3034
3.551
4.428
24.7
2.491
0.1258
0.007356
0.001808
2.963
0.1834
0.7794
22.36
7.821
0.2068
0.00147
0.05494
1.508
2.966
4.182
0.2793
1.112
1.336
0.2989
1.071
1.95
0.3347
0.00922
0.7841
3.524
14.44
0.02046
2.394
0.05151
4.057
3.895
1.621
1.814
1.557
2.836
0.4715
6.163
11.35
4.751
0.5285
0.8335
0.07022
0.7591
0.9938
0.01569
0.004381
0.01987
1.978
6.35
7.05
0.08994
0.02169
1.041
0.01343
1.679
0.9043
4.943
14.39
6.037
3.693
1.033
0.1964
0.7624
1.375
0.2605
0.09333
0.2794
0.1744
25.46
0.03398
3.695
2.849
0.4867
204.5
7.144
3.187
5.663
12.35
0.1801
79.08
5.912
1.191
2.238
1.3
1.937
1.267
0.4086
1.496
0.1057
1.053
0.3325
0.02312
3.143
1.144
3.692
1.359
5.575
1.122
0.5466
1.8
1.739
497.9
0.04145
4.787
0.7365
0.05468
1.37
0.04749
0.04674
0.05631
42.24
5.29
5.29
4.513
1.316
2.176
0.1302
28.14
0.02514
0.001449
0.004014
2.772
0.7804
28.53
81.83
0.01976
0.7299
0.8057
0.01349
1.78
15.22
0.1159
0.1241
0.006345
0.7652
4.996
0.003771
3.578
5.171
26.79
0.5673
0.8335
4.175
0.3815
3.942
0.03197
2.669
3.677
7.428
0.0224
4.801
3.737
0.01831
13.02
1.898
4.101
1.252
1.02
0.03337
16.19
45.71
6.536
4.689
0.9716
1.9
1.165
1.553
2.478
0.4139
1.31
0.6497
2.641
3.017
0.05728
0.8384
5.587
0.02889
2.11
0.03399
0.8338
5.511
0.2801
0.0276
2.051
64.49
0.00184
87.67
4.322
0.1693
0.007277
0.819
1.01
0.4891
15.42
5.333
3.112
0.9592
0.05217
81.92
4.06
4.018
27.64
19.29
2.952
0.05505
0.5756
29.66
2.861
0.9954
0.1472
2.744
0.02425
4.784
0.05253
0.8133
0.02101
113.5
0.003738
2.749
1.835
2.079
2.319
2.732
0.2078
0.8976
2.976
2.764
1.716
0.001973
0.0224
0.2337
0.3194
1.165
1.605
1.628
0.08327
0.7927
0.1303
0.05369
15.08
15.76
5.221
18.09
5.869
0.01929
0.9828
5.713
4.398
0.7147
0.001091
2.414
0.09619
1.09
5.274
1.235
234.7
0.02946
0.129
0.6434
0.3435
0.006929
3.554
4.092
1.354
0.2291
0.01332
18.22
0.02505
14.03
14.94
0.4616
0.6009
0.8397
1.592
4.087
0.4374
161.1
3.918
8.947
4.454
2.264
2.042
0.6148
2.231
0.5155
0.0281
1.885
0.1322
2.769
0.2035
26.01
0.01637
0.4776
1.342
0.9284
0.7703
0.01953
960
2.79
0.9798
0.05085
12.38
2.43
0.4329
200.2
2.641
0.05279
3.205
3.03
0.07082
6.87
1.256
1.981
0.007291
0.7827
5.006
1.943
1.788
170
10.84
3.698
1.309
2.558
1.903
0.7589
0.6528
3.467
2.033
12.39
0.02241
1.991
2.976
0.337
2.076
5.746
0.008508
0.02819
0.03246
1.778
0.9618
0.02314
2.854
2.927
1.485
4.635
6.457
0.8939
0.06887
0.507
0.008623
0.04941
9.96
60.52
1.317
0.0783
0.00461
0.02907
0.816
3.655
3.396
4.348
0.9139
3.601
4.035
1.171
0.01851
22.11
6.737
0.04975
2.382
3.905
0.004968
13.71
0.1119
0.6086
1.548
5.833
0.5388
1.146
1.658
0.8032
0.5506
0.03924
2.422
5.021
0.1112
2.659
2.848
227.7
251.8
0.04763
4.516
0.02364
0.2914
3.435
23.74
10.8
0.8518
4.576
0.001192
1.904
0.03966
1.695
0.6861
1.228
1.061
0.4604
0.09437
0.2507
3.338
3.977
1.606
17.4
1.042
441.6
0.0308
2.869
16.97
0.00553
2.525
1.331
3.121
0.03194
6.71
1.094
43.19
0.5516
1.455
4.508
6.88
0.001962
0.00717
2.4
9.412
0.2005
0.05341
0.07017
0.6667
1.869
1.191
0.4834
2.804
1.262
1.838
2.945
5.066
1.577
1.15
0.04645
4.68
0.1667
0.008271
39.44
2.326
1.364
1.262
0.5017
14.69
0.001998
192.7
207.1
1.455
0.6778
0.02118
0.001018
0.3256
118.8
0.01837
1.549
1.109
0.5093
0.2255
2.7
0.1557
0.5493
3.903
6.014
70.37
2.109
1.046
0.0008025
7.529
0.2023
438
3.551
8.601
0.4186
1.842
0.005439
1.707
0.001193
1.198
45.66
7.376
0.8552
1.829
0.3703
3.394
3.043
0.04126
1.634
0.01634
0.003249
1.657
13.72
0.4889
1.652
2.139
0.3296
1.157
0.4301
0.06866
1.952
0.02278
10.94
0.02418
0.4277
1.547
0.3012
0.7607
1.33
2.933
1.611
0.03906
1.8
0.3195
2.679
0.4526
0.5988
0.0007901
155.5
0.4188
5.537
0.2702
0.08789
0.4118
18.32
1.849
0.4396
0.3454
3.1
3.764
74.25
0.4002
4.096
12.23
0.02366
5.767
0.0244
0.9612
4.04
0.006171
0.9082
0.8929
0.005284
0.7475
0.5539
1.015
4.313
1.799
0.02389
1.392
4.82
0.5647
4.497
9.22
5.846
1.352
2.312
10.63
0.001022
2.895
0.005189
0.5858
0.2946
1.713
2.636
2.521
0.001399
0.05642
2.346
2.072
0.01518
2.402
0.4756
8.453
0.6756
0.02049
0.06208
2.249
2.266
3.909
5.893
0.001415
0.001526
1.055
2.869
1.246
2.387
0.7613
0.7835
0.9254
0.994
1.399
0.2924
0.01112
0.06938
165.5
1.339
1.342
0.2392
0.9756
0.9465
23.23
24.11
0.9138
0.6843
0.2633
8.606
7.119
4.55
2.181
4.055
2.274
0.5482
1.105
12.23
0.01943
4.013
0.01377
3.73
0.001934
0.7579
0.3899
4.098
1.355
0.413
1.567
0.000916
0.5596
7.759
5.578
1.205
1.193
19.41
1.83
1.021
7.02
2.342
0.8486
0.7004
31.52
1.331
5.355
12.97
1.442
4.996
8.238
1.966
17.12
20.42
0.1885
5.526
9.522
3.667
0.341
0.1691
1.154
0.05458
2.19
0.9418
1.977
2.004
30.2
1.082
33.81
1.509
3.425
8.435
0.6673
0.04692
0.2857
0.000616
2.414
1.743
1.568
2.774
12.85
0.3763
4.34
4.483
217.2
0.7123
0.01013
9.081
0.6418
0.5479
0.1761
3.207
0.02053
1.675
3.28
1.325
246.3
572.4
0.001091
1.028
0.1123
0.1186
0.09922
0.6256
0.0246
2.674
1.148
0.002536
0.7925
0.01808
20.37
3.826
0.7089
3.704
0.008565
0.0842
0.02034
11.93
0.4886
0.0157
0.7204
0.0009892
0.6291
0.02137
7.243
2.099
0.4457
1.2
0.008702
0.01234
34.65
1.887
1.492
9.8
14.32
1.86
1.021
8.984
5.479
0.145
14.54
0.5239
0.000927
12.14
0.3253
0.1703
1.492
24.07
0.03374
3.189
13.09
31.24
2.451
0.04661
56.23
0.5876
1.606
0.01648
0.2857
0.02883
20.58
2.373
2.992
12.95
93.14
2.036
2.769
26.47
0.4034
7.724
1.896
0.1179
2.034
0.7333
5.897
25.79
7.084
0.3519
3.053
210.9
2.101
0.7346
5.905
0.9928
1.858
31.19
2.969
1.726
0.03643
2.044
1.557
1.484
4.396
4.103
230
5.951
5.011
3.301
492.9
0.04203
6.599
1.064
1.341
1.518
0.2363
6.629
0.9216
4.511
241.3
11.22
0.2583
3.53
1.775
0.863
5.807
9.3
2.08
0.02729
0.7241
12.31
0.01477
0.4078
3.059
0.269
0.1879
4.341
1.89
2.077
4.986
25.09
0.1457
15.74
1.179
3.183
11.09
0.07635
0.04325
1.326
1.925
1.242
39.17
0.4634
0.1939
0.003913
0.01347
0.657
1.608
3.365
1.259
0.4946
1.821
9.293
84.92
1.625
2.718
1.878
0.8803
0.007551
0.09772
0.1944
4.395
5.356
0.2759
0.01517
0.006525
0.04101
4.418
24.99
0.0009967
55.47
25.86
23.52
0.4324
0.004258
0.02474
22.38
98.57
3.784
558.5
6.795
0.8623
2.984
0.4912
2.791
2.164
1.928
8.291
0.6027
2.755
0.2134
5.154
1.464
0.1859
0.02654
0.02457
2.337
9.277
1.762
17.91
0.2384
3.657
2.144
0.0168
3.258
2.25
65.45
1.011
4.302
2.876
1.148
3.243
0.03809
2.39
0.9736
4.295
0.2411
1.092
0.2589
0.4235
0.0187
0.08568
7.759
6.507
0.02265
10.11
14.21
2.194
0.03613
0.5863
0.603
3.277
4.918
6.044
0.0531
15.75
3.329
0.001534
0.02039
168.2
2.426
3.114
2.542
6.252
4.582
6.107
0.4087
0.0821
0.03736
0.03311
39.99
6.979
1.451
1.273
4.846
0.6469
0.7641
0.2295
0.1114
181
0.3472
0.3918
0.01445
1.98
0.001623
3.416
1.823
0.0182
0.01901
1.975
0.03119
5.579
67.87
10.64
0.1232
0.2539
4.873
0.009364
3.13
0.6488
0.222
0.1009
37.27
1.496
0.1274
0.007903
163.5
1.492
3.332
2.036
2.083
1.062
5.312
0.2513
1.761
0.01152
2.129
4.25
0.005287
0.01517
66.03
2.472
0.2322
4.083
3.004
1.822
1.949
0.2915
2.467
0.0008868
0.01978
0.4357
13.78
1.101
13.48
5.949
77.62
0.5898
8.653
144.2
0.01124
1.858
2.082
0.001538
0.8246
2.968
0.03905
0.263
0.2215
1.415
0.02553
11.7
0.01064
4.098
3.282
1.115
4.196
0.3145
0.02848
0.5791
0.2469
0.01739
0.02496
117.6
0.004757
6.823
0.9588
13.66
0.0006727
0.000678
1.581
22.03
0.771
9.092
0.0201
1.865
1.013
0.6627
3.596
0.4892
8.283
0.01281
23.19
0.02135
272.1
10.61
0.102
3.688
3.52
0.4109
0.04357
0.02388
2.473
3.138
5.277
1.92
2.562
0.03206
2.462
33.34
2.347
1.9
3.094
0.1268
8.484
2.301
1.072
4.361
0.7905
0.7404
1.219
69.76
0.8645
5.064
1.029
0.9008
1.191
0.648
2.5
0.9354
0.02639
0.01786
3.615
1.681
19.6
4.774
0.3652
1.363
3.429
2.652
0.03178
0.0211
1.106
2.023
2.096
0.8781
0.05957
8.576
115
0.6672
0.5562
2.127
52.97
0.3922
0.1622
4.423
0.3097
14.78
2.585
0.05816
14.5
0.03372
1.58
4.945
2.729
0.01967
2.349
0.3445
0.7601
0.001988
0.01753
0.005031
16.42
3.167
0.4796
2.567
2.825
0.002561
19.58
2.084
10.49
6.812
0.02578
0.09851
7.209
0.02777
22.39
0.7031
1.867
1.286
1.354
2.149
0.3812
11.07
1.393
3.363
6.937
0.003914
17.99
23.7
0.7937
0.1496
0.7691
2.968
14.38
0.666
0.7565
0.02091
38.76
0.5321
0.001288
36.47
524.1
0.06853
1.191
0.7546
42.65
0.008185
1.043
4.238
2.006
0.5945
2.346
0.6232
26.76
1.322
0.9657
0.08243
7.301
1.379
0.7075
1.399
255
1.324
0.05038
0.954
1.023
0.6744
1.791
3.087
4.947
3.493
4.475
1.164
48.73
1.989
2.155
0.05007
2.437
0.0268
1.841
15.83
1.939
1.529
22.66
0.3443
4.658
3.944
11.49
2.073
2.5
32.09
1.356
0.7606
1.937
1.102
2.259
0.4262
1.337
0.4186
1.001
1.121
10.46
1.082
1.615
12.3
51.28
5.715
34.24
0.009038
0.6665
1.512
0.7667
0.07213
1.408
0.6212
3.786
2.219
1.1
5.448
34.39
0.002551
5.298
1.948
79.61
0.02426
1.356
2.936
6.077
3.179
0.8232
1.196
1.58
1.853
0.8826
82.51
0.05506
11.28
8.528
0.3702
139.4
0.004675
0.9086
5.285
17.7
1.228
0.2182
2.282
24.01
1.657
0.06325
3.192
0.1313
6.714
4.047
1.653
3.858
0.9683
0.02511
0.8074
110.4
0.01782
0.2985
21.29
18.35
1.766
0.7413
11.5
3.056
6.112
1.844
0.2074
0.02571
0.002503
0.00235
1.63
77.97
3.613
3.147
1.112
1.52
0.17
0.8717
1.656
2.77
0.4994
24.96
0.1592
1.823
2.786
9.453
1.156
0.9419
0.8917
5.731
5.604
0.01798
0.01984
28.85
1.135
0.154
5.857
0.01566
12.67
30.95
1.994
7.693
1.808
0.1105
6.414
1.445
0.02851
0.7784
1.841
0.002287
3.6
0.004137
1.535
0.03226
4.022
1.398
1.227
2.571
0.5626
0.307
1.854
1.565
4.027
0.01831
3.651
0.04102
2.83
3.806
34.33
1.45
0.3375
1.133
1.281
4.159
0.813
9.223
10.48
2.467
1.057
6.061
0.4354
1.063
0.6689
33.94
0.1127
2.001
1.602
2.124
3.706
0.4797
5.524
3.022
47.39
0.4634
6.58
1.951
3.787
0.7536
1.061
0.2588
3.668
1.06
1.407
314.3
2.586
0.001451
0.001464
1.086
0.1654
24.79
5.821
9.217
1.124
0.004834
32.34
338.8
0.01721
13.59
14.19
14.84
1.395
3.182
0.4186
0.0203
4.665
1.126
0.01353
0.3044
0.8312
2.881
0.64
0.01942
3.24
5.984
0.01682
4.946
8.054
4.678
1.628
61.37
0.9242
2.182
9.093
0.01739
1.536
0.009789
4.087
0.02264
0.01623
0.001194
1.98
22.53
0.3127
32.2
1.066
0.758
5.891
6.148
0.6559
0.5696
0.004915
2.845
9.2
44.36
2.225
32.04
1.102
4.433
1.648
0.02584
0.5407
3.011
4.98
2.761
1.055
0.936
0.01701
3.146
0.003331
0.004324
0.3139
3.272
1.276
0.000954
1.683
60.73
5.463
3.093
9.111
2.793
0.8881
0.5403
1.297
0.3448
0.5232
0.02835
3.725
0.03661
18.9
3.597
496.4
2.199
7.107
2.138
1.243
2.627
0.1616
3.3
0.002304
0.956
0.01709
0.1496
0.1493
20.13
1.76
3.741
0.9824
2.457
5.795
0.4893
1.815
38.42
12.34
0.6322
2.027
0.01489
0.7786
14.48
0.01732
3.087
1.712
0.3618
0.08644
2.368
35.26
0.01042
1.786
0.001469
5.58
0.03917
0.1476
0.004461
0.03725
1.571
0.8918
13
17.23
2.604
2.086
1.27
4.453
31.27
3
0.2938
0.4598
0.06247
0.002592
0.5001
0.8154
0.03377
1.488
2.877
0.4777
2.425
3.066
0.2191
2.411
304.9
3.148
0.3742
105.7
0.008564
19.08
0.9492
0.0006626
0.7994
1.18
2.229
1.266
1.77
0.5184
0.05378
2.2
5.828
0.2188
1.504
3.151
0.8136
0.223
1.201
2.615
9.606
11.87
17.4
0.1324
6.459
1.263
2.048
1.071
3.775
4.47
3.389
0.2978
24.45
109.1
0.06615
0.648
0.7997
2.111
2.539
0.00738
0.0074
3.378
0.03689
6.048
0.9015
0.3291
0.01405
3.649
0.1007
0.007404
0.7635
0.02328
4.899
5.617
2.955
15.72
1.766
22.68
3.06
0.007678
0.3361
14.48
3.619
1.183
1.414
7.501
1.92
3.935
0.02723
0.7703
0.9659
0.1684
10.2
1.911
13.51
6.433
0.09398
2.322
4.842
0.4896
0.009606
0.06353
1.344
6.337
0.2775
7.242
0.1674
5.269
0.06283
0.3646
0.643
5.787
0.1758
0.2805
40.9
2.342
0.02457
86.37
1.873
3.946
3.992
1.285
16.68
128.4
2.45
1.451
3.928
16.31
0.01779
1.998
1.43
0.02554
4.909
1.373
42.8
15.47
6.619
1.137
2.231
13.49
0.9643
1.952
0.3703
63.74
0.9879
0.03566
0.8354
1.752
0.4145
0.2868
0.2875
15.71
115.5
2.816
44.75
3.832
1.322
0.01539
0.001944
2.863
2.884
2.33
22.17
34.81
0.7297
2.381
222.4
0.02168
0.248
0.6413
0.002561
1.905
0.08439
3.157
4.336
1.548
0.4822
20.03
0.04675
0.001364
10.89
1.533
0.3413
15.56
0.1169
1.746
1.409
57.92
0.02043
46.3
0.000912
3.542
0.8205
1.302
0.962
0.4915
20.95
2.701
25.77
0.007219
1.465
0.3365
2.288
12.73
7.092
2.32
20.11
0.7908
0.3621
0.002463
0.003929
9.09
8.553
0.4269
11.83
14.76
2.187
7.187
2.257
0.9285
1.801
1.066
7.306
0.7051
0.3909
0.7781
5.126
1.531
25.89
9.066
0.02138
13.37
2.036
3.614
0.1107
0.001535
0.344
0.08803
0.02756
2.542
1.133
0.003641
10.49
0.02124
5.323
22.48
2.443
0.02655
0.101
0.4025
18.84
0.02393
0.5782
97.27
0.03639
0.3922
0.1548
9.551
2.765
0.4225
0.3699
2.629
30.59
1.574
0.4393
3.402
0.8852
30.36
0.01403
1.199
5.218
1.992
4.399
2.226
155.8
0.001005
0.000992
1.624
2.511
0.367
0.01917
3.172
0.1825
42.55
4.028
0.02691
0.04439
0.7567
7.988
0.1523
0.1941
0.1971
0.02703
0.08046
0.5871
0.05198
382.1
0.7672
4.654
1.722
82.22
9.206
2.09
0.5753
1.123
40.08
4.748
1.168
4.017
3.709
0.8886
2.331
76.42
0.5806
0.001503
26.15
0.1503
0.4831
11.45
0.272
0.007762
2.815
3.853
0.02776
2.023
12.41
0.01019
4.451
1.028
4.929
6.721
0.03887
0.01724
2.612
0.218
3.4
0.06624
0.06789
5.59
15.89
15.14
0.566
1.684
20.13
22.4
1.84
1.473
76.93
0.7943
3.007
18.11
0.8672
4.789
2.683
2.332
1.292
2.084
42.98
7.443
46.72
1.092
22.54
36.43
0.75
0.3508
4.805
0.9664
0.4766
0.02307
4.047
6.658
1.195
2.217
1.879
6.021
0.02849
0.8281
0.03934
3.864
0.009655
2.643
0.2703
106.6
0.564
0.01602
0.01729
1.17
0.03702
33.24
2.286
0.2152
2.927
5.16
0.8454
3.069
1.455
0.3641
0.3349
0.8272
0.05551
7.611
0.1439
0.04846
1.599
95.15
2.014
0.001994
10.41
5.021
3.343
1.326
1.054
0.4157
0.408
0.07459
70.63
0.9244
0.8778
0.6722
0.5185
0.2358
1.211
0.003205
4.253
1.164
1.327
0.02667
1.266
0.3108
0.6398
1.464
0.01795
0.7217
0.4528
1.43
0.001882
5.03
0.01881
0.7699
22.22
0.2331
2.272
1.611
4.067
9.027
0.4997
0.7244
32.43
1.206
5.394
1.11
0.3647
0.2885
2.463
0.4682
1.963
1.427
4.374
2.707
0.4843
0.01639
8.624
22.82
4.738
1.511
1.047
0.01317
2.522
0.0198
14.69
22.84
78.23
7.823
82.84
5.509
49.44
2.983
0.4969
0.8984
9.723
0.2672
0.6612
1.918
3.916
0.1769
0.001093
1.623
2.024
1.301
0.1441
8.097
0.004636
13.43
7.627
24.15
0.497
3.099
0.5486
0.001557
5.34
0.9548
6.58
39.96
0.02157
1.666
0.2352
2.165
115.3
0.1173
6.701
2.027
2.354
77.28
0.2055
0.0006261
1.073
0.3201
0.76
1.503
0.03046
2.805
1.988
0.7563
0.1144
3.204
0.5684
0.7439
12.37
5.811
0.02322
0.7376
0.05246
0.3114
0.1017
2.663
11.67
0.01458
0.1031
1.376
0.07412
0.4507
3.394
0.02684
0.283
3.247
3.382
17.48
1.923
0.3046
1.605
1.337
0.01787
8.219
2.96
2.085
0.018
0.02299
7.483
3.269
2.051
4.138
0.05645
1.204
0.0269
1.036
1.87
1.956
2.804
20.05
5.586
0.7165
1.623
0.1553
0.001855
0.8241
0.1347
2.118
0.01951
0.03916
67.86
0.8158
0.01922
3.57
5.597
2.136
2.485
1.766
0.01791
74.51
0.01759
0.6776
0.06112
1.019
0.05795
1.625
0.03488
2.63
19.74
0.06573
2.862
2.668
0.02186
0.01802
0.2135
11.11
2.419
70.26
3.95
14.65
0.4727
3.564
0.2057
14.41
22.76
6.971
67.14
1.486
0.551
8.04
2.327
72.72
0.8125
1.574
2.408
38.54
0.457
0.001821
0.05449
0.001754
216.6
4.884
8.97
0.1198
1.454
2.323
0.03072
0.004789
1.478
1.665
5.77
0.8682
0.001514
3.11
0.3714
3.722
1.439
0.5112
0.5245
0.004468
57.22
3.305
7.346
3.361
0.7202
9.501
5.565
43.63
0.04102
0.2217
0.06482
2.564
1.26
0.01697
3.373
0.7381
8.377
0.5077
8.218
0.4724
1.401
0.04209
0.5375
11.71
0.4511
1.108
0.6274
0.7119
0.2228
2.18
1.579
12.74
0.2322
1.631
0.7983
0.01801
0.7808
1.896
4.064
0.04125
16.07
1.65
0.4212
27.29
0.6294
0.08877
0.3257
1.497
7.048
23.72
14.98
3.559
6.563
1.718
0.7556
2.214
6.96
2.823
0.1937
14.79
6.564
0.07503
13.86
1.785
0.002428
1.145
1.855
9.149
1.305
2.468
4.938
2.316
8.784
2.276
2.63
23.79
2.159
2.518
0.6469
9.084
0.9829
5.96
2.605
0.08697
0.02093
0.02742
0.02197
0.4414
69.76
0.07816
0.7484
2.099
0.5247
5.631
0.7101
4.517
0.002338
2.299
90.15
0.1171
0.4556
0.3456
0.2692
0.01382
2.5
3.2
8.018
0.7905
9.033
8.841
0.8178
102.7
15.75
1.454
1.087
0.7498
1.368
1.978
3.507
29.33
0.01595
0.4212
17.94
6.5
0.1044
0.1988
35.39
1.718
13.18
0.8068
0.7736
82.45
2.521
34.43
0.1365
0.3178
1.253
3.41
2.843
0.7851
0.01989
2.77
0.01231
0.3501
9.812
2.399
0.1321
0.8134
3.905
0.02134
0.004008
0.8331
0.2703
7.244
0.09661
2.925
0.8679
2.299
1.207
0.7032
0.06734
5.021
0.7127
1.053
0.4807
0.00214
192.7
0.9524
210.8
0.01388
7.146
0.01794
6.808
0.01313
0.3456
3.161
0.03175
2.621
0.018
0.06331
0.4009
11.97
0.03251
0.0863
13.06
5.274
5.087
1.912
0.5546
0.04059
0.07199
1.736
11.58
8.552
0.01573
0.5201
2.181
45.46
0.1012
0.02627
0.3527
1.181
0.7107
10.44
0.09164
3.598
3.323
4.984
18.2
120.6
0.02251
0.8255
2.725
4.533
1.772
2.767
0.213
0.6488
1.667
0.03242
2.024
5.534
4.096
0.01814
0.8168
0.1121
3.297
1.297
1.245
3.29
20.73
2.505
7.142
2.326
1.131
1.073
3.638
0.001471
6.997
0.8057
38.99
0.01135
0.6357
4.341
1.373
0.003119
2.382
1.132
2.672
0.01834
0.02006
2.752
6.956
0.1934
0.00103
0.2616
2.55
0.59
12.89
0.03499
39.01
2.458
5.436
0.5154
1.045
1.182
0.05774
5.652
0.7321
0.01292
4.068
2.27
0.773
2.332
12.71
0.01078
1.515
1.457
5.599
9.363
7.454
11.8
13.8
0.008975
2.122
1.702
0.1271
0.9243
9.124
42.34
2.174
2.604
0.02115
0.7918
1.063
38.42
1.017
9.664
5.59
0.8728
34.91
0.001508
0.0628
0.00217
6.521
0.03315
0.3701
0.7427
2.638
60.74
1.245
4.149
0.1702
1.369
0.3544
1.991
3.131
1.006
0.04938
8.625
2.173
0.2362
1.046
0.007626
2.351
2.614
0.01319
0.237
0.3625
0.8093
2.033
1.517
4.475
19.63
0.8836
26.27
1.777
1.896
4.961
1.565
0.01893
1.216
0.4894
0.02224
0.9017
3.965
0.8098
1.625
2.763
1.027
1.492
0.2653
13.19
0.01622
22.43
2.676
2.242
4.276
71.47
1.108
2.531
7.124
0.3463
1.056
1.733
0.6078
3.02
2.011
1.011
2.095
29.31
5.184
0.4763
0.000686
163.2
0.01494
1.565
102.9
5.371
1.536
4.988
0.04667
1.18
0.7978
6.367
1.932
0.08459
2.128
0.5178
2.421
1.188
2.156
0.0185
1.15
1.518
5.674
5.765
0.01765
1.471
0.01833
5.415
1.299
16.31
0.01512
125
2.795
0.5523
57.51
4.056
0.05045
5.943
0.02596
2.518
0.03132
2.974
2.044
0.6027
0.1094
0.6608
2.107
0.05614
6.103
2.91
0.2893
10.69
47.62
1.023
0.8197
68.3
4.254
1.896
3.126
0.1556
2.46
3.039
1.872
0.1804
2.024
1.538
69.88
14.29
0.01539
0.3886
0.5205
1.286
0.1022
7.18
0.265
3.247
6.149
3.921
1.266
2.78
0.001367
1.549
0.0267
52.11
3.349
2.214
0.001038
10.34
0.002777
4.262
0.06324
0.3139
1.662
3.066
1.259
0.02419
3.88
2.361
0.5978
0.02851
0.7477
0.06091
0.4787
0.4876
0.01674
0.02332
29.03
5.186
28.63
91.98
5.106
12.08
9.653
2.77
5.202
2.724
3.133
8.934
5.24
0.02237
1.146
2.719
373.6
0.01006
0.1172
1.921
5.082
5.607
0.002225
8.571
0.04302
0.7226
0.08997
2.53
0.09573
36.08
11.57
0.6411
0.03139
0.1253
0.02041
0.7792
1.024
1.505
0.3085
3.779
1.819
0.3974
5.255
0.2558
13.87
4.963
2.48
1.231
0.8744
0.3991
4.187
0.5249
6.594
83.75
20.74
1.796
9.67
4.216
73.17
0.02155
3.018
77.69
0.02854
0.3762
1.507
0.1006
1.629
0.01203
2.125
0.009464
8.495
0.02557
1.692
2.414
4.899
0.8192
1.803
9.976
2.614
3.731
0.8588
8.562
0.7469
0.3818
8.006
0.01145
1.764
4.932
0.8752
0.347
0.2234
8.995
4.771
1.56
0.3784
4.539
0.7833
0.7064
1.117
0.6978
1.265
0.1819
29.05
79.54
3.882
4.63
1.091
1.366
4.786
2.667
28.85
0.01108
0.02059
0.7255
1.186
4.946
1.319
5.695
49.62
0.07041
0.6889
0.1249
3.682
1.184
19.72
0.582
1.166
0.2357
0.1711
2.885
10.08
0.003322
0.4776
0.4726
237.6
7.05
10.01
5.554
0.1761
3.771
0.8051
8.438
2.989
0.2745
0.2529
0.754
1.804
0.8197
0.8596
0.01994
2.236
4.264
0.09332
0.003588
1.428
0.3695
0.5521
0.935
1.107
0.5782
0.2462
5.288
2.551
0.2037
0.3989
21.68
0.07547
4.491
7.065
0.02409
0.02011
3.385
1.56
1.806
10.57
24.07
1.024
1.689
69.43
3.506
0.1594
9.149
12.02
2.702
0.02962
0.7434
46.75
0.00348
1.167
38.5
0.1213
0.6416
1.775
1.528
8.084
0.2163
1.873
0.07511
0.05551
0.00486
9.88
1.415
1.74
14.08
4.84
1.142
2.956
15.49
0.07533
2.536
0.06335
1.481
3.397
2.447
0.6261
25.8
82.24
1.638
0.115
0.396
0.001605
5.56
13.4
4.884
2.827
38.26
2.479
2.079
0.1703
0.7856
6.275
4.463
0.001378
11.52
3.673
7.365
0.3619
3.229
2.739
37.92
13.32
146.3
0.6721
0.01013
0.1092
0.0441
2.954
22.07
0.1816
0.3965
0.4135
6.503
3.404
2.383
0.6007
0.02343
0.01715
7.271
14.67
2.133
1.597
5.761
0.6332
42.99
2.41
7.692
3.54
11.39
0.04802
2.267
85.61
192.3
1.805
0.4469
1.151
37.01
4.264
1.182
0.01365
5.262
1.564
9.118
0.005623
0.7053
22.22
1.173
1.93
2.014
0.001137
0.03524
0.7895
0.01032
12.11
7.398
0.007592
63.62
5.367
1.427
2.975
2.553
0.02096
20.99
10.37
1.12
4.861
1.213
0.7887
0.0334
1.166
0.0008904
5.233
0.3853
10.54
0.003186
0.1083
0.2131
1.657
0.03353
0.00322
0.05282
1.952
57.99
1.327
0.01847
1.3
0.2321
0.8373
3.889
34
0.03587
38.21
0.4327
11.57
0.1511
1.88
9.916
3.95
3.361
0.07891
21.11
8.821
2.656
3.051
4.512
0.01902
10.21
3.65
3.865
0.004379
2.114
0.8701
0.08681
2.581
13.48
0.2068
1.817
13.99
0.03902
3.335
0.1874
1.479
2.547
0.1883
1.099
3.27
32.99
2.728
6.435
9.024
25.96
1.414
2.499
0.02438
0.5707
2.067
2.909
0.8307
1.227
2.514
0.9281
4.893
25.59
0.01086
4.145
0.005792
1.51
4.435
2.629
12.92
0.2792
0.03256
5.928
2.533
0.09402
0.3691
0.5834
2.395
0.01665
1.286
4.048
2.621
1.529
4.468
2.836
2.018
4.125
0.3152
45.11
1.675
1.953
0.8227
4.315
1.106
0.6238
8.91
1.296
2.805
1.445
4.461
0.03111
47.41
0.6457
8.557
0.9407
1.235
16.89
3.613
4.492
3.821
0.9769
0.0349
2.131
2.981
0.1472
0.3993
3.205
8.811
4.976
2.83
32.69
4.693
13.34
5.068
1.705
3.817
0.1007
3.252
0.5441
11.76
0.0179
0.0006138
1.019
0.00487
0.6939
10.54
1.721
41.43
5.747
1.043
36.98
0.7136
0.04142
1.133
0.002827
1.529
1.28
0.007678
124.3
9.236
11.9
1.595
2.469
0.07137
11.9
1.921
0.01473
0.01907
1.895
51.53
1.368
2.761
5.746
0.9603
49.97
0.7683
2.148
0.6855
58.99
1.731
0.1384
8.85
1.788
0.8022
4.212
1.042
0.06876
1.298
2.086
1.05
1.07
1.15
0.4166
0.0008959
0.0009166
0.003258
2.425
5.022
0.5313
4.344
11.34
1.773
3.514
29.52
12.13
1.772
2.978
2.617
0.1617
41.65
108.4
4.284
1.39
0.4754
0.002656
22.15
1.701
0.616
0.2463
2.784
1.966
0.4991
2.871
0.1444
0.01102
0.7937
40.97
0.1419
43.05
0.02336
1.979
36.79
0.2317
2.345
8.56
7.008
5.841
0.01375
2.08
0.9178
0.129
2.234
3.631
0.6408
1.6
0.5458
5.893
3.908
1.825
6.179
3.82
0.4948
0.1074
12.87
0.01662
0.04829
1.719
0.06866
1.319
29.42
2.484
0.2356
0.8031
0.006361
4.738
1.212
0.05679
87.68
2.107
0.316
1.287
0.2633
1.495
3.671
0.6099
1.715
0.6606
17.48
0.5622
0.03211
2.226
0.001333
2.819
92.34
1.104
1.05
9.118
1.461
168.5
1.429
2.495
2.615
0.2165
0.5058
0.2432
0.09327
0.7502
0.03699
1.39
12.59
0.07827
5.383
0.1948
0.303
0.1886
0.01821
0.5494
0.2477
0.08239
1.529
36.74
68.41
0.5586
0.8868
4.413
0.7523
0.009392
32.11
12.39
0.004678
1.762
2.728
0.4064
0.3014
8.584
5.727
0.1222
8.079
2.106
4.373
2.595
0.6236
1.069
0.0007044
131.6
0.1304
8.528
3.186
4.879
11.5
0.9247
3.618
42.27
0.5336
0.07486
3.349
0.6574
23.68
0.002596
3.165
3.09
0.5629
0.002264
0.1753
0.1073
7.253
3.58
2.56
0.8728
0.25
0.347
0.7899
0.1542
68.85
1.59
0.002559
0.866
1.927
2.981
6.501
0.01712
1.08
0.0008528
7.184
49.59
3.063
1.423
2.448
0.001142
16.68
2.432
0.1614
5.809
4.635
12.77
1.28
0.4814
0.9784
18.98
0.06494
2.069
22.44
36.31
8.886
1.071
1.041
13.36
2.876
0.05478
12.16
6.341
18.99
1.897
5.866
64.82
37.92
0.4363
0.7569
4.144
0.01842
0.6505
1.86
21.61
0.2417
100.3
0.001408
0.7597
2.329
0.4899
8.5
0.301
2.508
0.006501
2.218
0.01869
1.33
11.26
5.11
0.02017
2.453
1.069
0.0201
0.6065
1.44
0.026
1.961
1.257
4.575
1.498
1.126
0.09615
0.02024
124.4
1.336
3.793
0.006467
25.44
0.01042
0.4385
71.73
1.02
6.485
3.174
0.6383
2.974
3.595
0.0679
2.609
12.15
9.153
19.02
0.3037
99.21
23.09
1.712
1.088
9.299
2.82
26.7
17.6
22.39
1.638
1.105
1.07
6.076
322.4
2.795
3.715
0.6199
0.5206
8.37
3.175
6.303
6.395
12.37
0.2268
1.268
0.003522
1.957
3.21
0.06815
0.4565
0.2956
0.2593
61.81
1.765
1.374
1.704
12.21
0.7866
0.1827
1.189
2.236
0.07761
0.4554
1.953
0.5237
3.036
2.602
0.05916
1.428
1.63
0.0007333
6.323
0.8998
5.501
0.2817
0.05463
1.201
0.1507
0.7291
71.41
4.745
13.62
4.433
1.631
5.211
0.01974
0.2248
6.192
1.257
0.8118
2.765
5.696
8.843
4.73
0.3451
0.05234
1.757
7.54
2.51
1.131
1.418
1.036
0.1291
1.762
0.01711
0.0005842
0.1742
1.026
5.142
1.313
0.01965
0.5728
0.6381
37.47
311.1
0.06143
0.08567
0.02087
0.01717
0.2504
7.23
0.5238
0.03986
0.001357
63.11
0.07685
15.5
2.301
6.95
7.703
2.882
24.8
0.02075
1.653
1.232
5.526
17.06
1.789
0.3677
1.781
5.405
2.074
24.36
1.271
0.02855
1.33
2.448
1.728
5.127
0.01771
2.752
1.24
0.0822
1.684
0.01754
0.1741
0.9714
256.2
0.2537
60
0.42
0.007648
1.512
2.951
0.03984
0.8254
12.5
0.01175
1.952
0.2655
0.2562
3.391
1.466
3.542
26.09
0.1788
1.545
1.843
2.226
0.01501
1.235
1.956
0.04588
22.97
0.002887
1.913
1.825
2.334
1.403
5.231
0.4445
0.93
1.296
2.659
0.7368
0.5255
0.01363
0.3638
0.1389
0.01497
0.861
0.8319
2.748
44.62
2.282
0.01897
5.401
0.913
0.03388
0.02166
1.129
15.39
0.602
0.01629
1.363
3.474
5.95
114.4
0.4341
0.446
3.252
0.5519
5.108
2.072
2.13
0.6291
92.91
5.693
1.377
2.038
0.02242
0.02424
1.945
0.001332
1.609
3.038
44.07
1.774
2.876
13.19
4.674
9.686
1.58
14.55
0.01149
1.678
2.925
0.1997
3.774
0.8914
0.428
41.57
1.814
0.1897
0.3212
0.001893
0.05725
0.1822
2.692
1.323
0.2371
3.841
0.01406
91.24
1.867
2.559
3.395
34.64
0.3072
1.045
0.7109
24.76
1.092
1.028
0.9405
1.123
25.12
1.957
1.437
1.18
21.64
4.871
23.52
5.102
1.682
2.834
5.03
1.438
2.225
13.09
0.1336
1.642
10.76
0.04522
0.1658
0.03602
1.507
0.404
0.1797
3.866
0.0499
0.009882
5.211
0.03764
1.245
0.7137
0.1045
0.03389
0.6133
0.01641
6.905
15.18
21.59
70.34
3.054
84.78
5.534
0.02076
6.477
1.551
1.863
0.8999
0.01794
1.022
1.513
0.001923
0.3975
3.907
2.449
11.75
2.407
0.04774
2.568
0.8682
0.01145
2.031
0.04149
0.7782
5.836
10.16
5.097
0.7991
0.001421
40.5
6.317
0.00775
0.001094
0.6982
0.7498
4.798
0.2207
0.005566
0.7572
0.01251
4.883
0.01885
3.115
0.02509
0.05099
0.8893
0.003078
5.837
23.51
0.1672
0.3518
8.386
1.836
0.01772
0.01129
10.1
0.2764
0.0242
0.0184
1.476
0.1827
5.076
1.852
5.396
2.744
1.768
25.36
0.8857
1.076
10.75
0.2205
2.047
11.61
0.4486
0.008981
3.282
0.002184
1.759
1.693
1.588
0.9802
0.01759
5.827
3.74
72.08
0.2532
1.508
0.2848
3.259
0.2661
0.01971
6.643
0.003078
0.8562
2.41
19.53
0.142
19.57
9.61
1.642
4.051
2.574
7.684
5.443
0.9662
8.318
0.03405
7.597
16.91
2.38
0.008248
5.108
38.33
5.021
2.848
11.53
6.56
0.02468
1.015
2.886
0.05673
1.798
8.569
11.76
0.4769
0.1503
0.4773
4.922
5.536
1.266
4.938
9.915
1.918
1.74
4.471
1.043
0.01552
1.33
2.011
5.304
0.3909
19.8
0.456
0.4041
0.00461
0.004747
0.03355
0.238
0.2844
1.901
0.4914
71.18
0.2526
0.8247
41.08
0.3941
1.548
1.75
4.499
0.6406
1.357
0.01899
0.207
0.03057
3.035
0.1034
1.487
5.427
0.6728
3.805
1.576
63.49
0.008264
0.00125
5.543
2.761
0.001848
0.1158
1.408
75.25
3.448
0.02325
12.43
0.4709
0.4131
0.00122
1.693
0.7285
1.467
2.906
1.038
1.502
1.889
3.118
0.1746
0.02367
22.89
0.07903
39.52
30.69
3.851
2.852
1.134
0.3092
4.018
0.3893
10.81
4.439
0.5375
2.088
0.08818
0.2489
0.8896
56.06
0.01866
108
93.07
1.011
4.23
0.3609
5.604
57.27
0.3015
19.39
0.334
0.5931
1.162
4.256
0.001927
1.162
4.707
0.8559
0.5873
0.207
0.01574
0.3054
0.01206
0.003866
0.1357
1.444
0.008082
0.001182
2.58
3.597
0.0008391
2.368
2.097
0.8365
14.16
5.254
0.6099
192.9
0.0006811
3.477
12.96
0.5134
1.828
2.46
1.17
0.6784
0.04397
1.12
0.7288
1.039
22.76
23.52
1.459
1.155
2.622
0.0142
0.02238
1.586
10.53
2.517
2.39
1.052
0.05457
10.6
0.6864
48.28
0.5496
0.02764
15.82
3.114
90.93
1.367
0.03121
1.847
0.3681
3.741
0.0005938
0.1555
2.345
3.333
0.1284
20.49
9.809
2.593
0.8703
0.7105
1.788
7.615
1.076
0.7174
6.972
1.959
2.713
3.399
2.503
0.4752
0.5676
49.33
3.119
0.02267
15.23
4.844
12.01
1.739
4.41
2.113
6.934
14.01
2.839
5.914
2.052
4.357
0.004059
2.171
1.536
0.6478
8.756
1.018
0.1362
6.669
0.007775
0.7638
8.665
2.904
1.635
1.946
0.3694
0.01854
0.6792
1.783
0.7352
0.01442
4.746
9.962
0.05522
0.1984
0.0132
0.5015
36.65
0.3129
0.03184
0.5315
6.681
4.196
43.52
2.88
0.03055
0.02028
6.275
0.1624
4.249
0.5204
0.2719
9.599
21.79
3.453
6.209
0.9202
0.01399
36.62
2.891
0.8567
1.426
0.3261
0.2603
3.126
0.3581
0.1233
0.4502
11.19
35.51
24.04
1.931
0.027
9.783
27.33
2.675
0.05192
5.995
26.08
0.02066
0.003796
0.6368
10.03
2.057
0.009275
0.1017
2.142
1.805
2.075
33.82
0.463
68.95
1.886
8.338
1.461
2.246
3.497
4.856
6.869
0.09596
5.868
2.218
4.009
3.265
0.8904
3.511
1.388
0.1045
0.8736
0.5368
0.3665
0.04496
0.01443
0.365
1.79
0.02278
36.27
5.585
0.9053
0.09814
1.677
0.02293
1.309
1.007
14.42
2.458
5.449
352.5
0.6056
0.06831
0.5105
1.472
1.082
0.1477
3.866
0.1844
228.4
0.01678
0.2368
2.988
1.194
0.3359
1.086
1.074
1.487
1.065
4.386
1.939
44.24
5.112
5.225
2.135
0.6062
7.096
0.8895
0.2339
2.797
1.439
1.26
10.38
0.3361
0.6524
0.01774
11.8
20.12
8.311
35.83
0.01848
0.1518
0.5584
1.619
12.3
3.176
1.474
71.24
5.55
8.045
0.01923
0.006274
2.115
0.002852
0.5246
0.3867
1.37
1.404
4.642
0.02757
0.8088
14.03
0.1365
6.715
0.6971
10.71
0.7767
21.18
4.77
1.69
0.7779
0.4872
0.005705
0.7228
6.417
1.826
7.649