/*--------------------------------*- C++ -*----------------------------------*\
| =========                 |                                                 |
| \\      /  F ield         | OpenFOAM: The Open Source CFD Toolbox           |
|  \\    /   O peration     | Version:  v2012                                 |
|   \\  /    A nd           | Website:  www.openfoam.com                      |
|    \\/     M anipulation  |                                                 |
\*---------------------------------------------------------------------------*/
FoamFile
{
    version     2.0;
    format      ascii;
    class       volVectorField;
    location    "5";
    object      U;
}
// * * * * * * * * * * * * * * * * * * * * * * * * * * * * * * * * * * * * * //

dimensions      [0 1 -1 0 0 0 0];


internalField   nonuniform List<vector> 
124707
(
(2.353e-05 -0.0009372 0)
(0.003161 0.0003628 2.708e-24)
(0.008084 0.01825 3.801e-22)
(0.04805 0.009498 -1.418e-22)
(0.02574 0.01062 0)
(0.003523 0.0003274 -3.634e-24)
(0.02433 0.03149 0)
(5.709e-05 -0.0008192 0)
(0.007075 -0.0007482 -1.555e-24)
(0.02666 0.02954 0)
(0.0001478 -0.004489 0)
(0.02793 -0.01538 0)
(0.005138 0.0008546 -2.968e-23)
(0.0002734 -0.008076 0)
(0.03912 0.02103 0)
(0.04013 0.02188 0)
(0.000968 -0.01375 0)
(0.0005432 -0.007274 0)
(0.1196 0.01956 -4.252e-23)
(0.2567 0.03569 1.928e-22)
(0.9868 0.02602 -5.469e-22)
(0.966 0.005634 -4.499e-21)
(0.5068 -0.3304 4.493e-22)
(0.9104 -0.09506 0)
(0.7845 0.4978 -1.436e-21)
(0.3796 0.03965 1.548e-22)
(0.663 -0.07836 -8.085e-22)
(0.8611 -0.216 0)
(1.021 0.01444 2.211e-22)
(0.7379 -0.2885 -1.251e-21)
(0.9112 0.06304 -2.313e-22)
(0.000694 0.008253 0)
(0.004571 0.02351 -1.864e-22)
(0.00169 0.02319 -5.988e-22)
(0.3981 0.02906 0)
(1.006 0.02733 9.216e-22)
(0.9135 -0.09413 -3.535e-22)
(1.002 -3.636e-05 0)
(0.8897 -0.05061 4.199e-22)
(0.9663 0.004546 0)
(1.018 0.348 2.854e-22)
(0.2618 0.0369 -1.603e-22)
(0.9783 -0.002629 0)
(0.8936 -0.04864 0)
(0.366 0.03547 -2.032e-22)
(0.9739 -0.01456 8.024e-22)
(0.3762 0.03359 -4.593e-24)
(0.6766 -0.1079 -2.049e-22)
(0.4838 -0.2937 1.615e-21)
(0.7186 -0.06688 -4.969e-23)
(1.004 0.0001692 -2.067e-21)
(0.988 0.02588 1.276e-21)
(0.351 0.02045 -2.18e-22)
(0.4364 0.0202 0)
(0.8773 -0.1917 -2.087e-23)
(0.3831 0.03941 -3.642e-22)
(1.002 -0.0005905 2.946e-20)
(0.7178 0.008537 -1.088e-22)
(0.001417 -0.01688 0)
(0.8349 0.006951 -1.577e-22)
(0.8636 -0.2185 -4.766e-22)
(0.9951 -0.002407 6.99e-21)
(0.01477 -0.0009027 6.717e-24)
(0.5576 0.06445 0)
(0.9515 -0.1185 0)
(0.3591 0.01215 -2.555e-22)
(0.9948 0.01584 -9.544e-21)
(0.7009 0.1158 1.81e-22)
(0.1307 0.02001 8.115e-23)
(0.8594 0.03983 -2.916e-22)
(0.2821 0.05207 9.648e-24)
(0.02027 -0.04956 1.148e-21)
(0.9534 -0.1522 1.606e-21)
(1.003 8.491e-05 -4.59e-22)
(0.426 0.0206 -8.911e-23)
(0.8027 -0.05626 0)
(0.9483 0.06712 -3.742e-22)
(0.9705 -0.01674 2.523e-23)
(0.7404 -0.001598 -2.763e-24)
(0.7928 -0.0654 5.471e-22)
(0.3432 0.04096 0)
(0.737 0.05293 -1.074e-21)
(0.6235 0.06472 -5.795e-22)
(0.7407 -0.1223 0)
(0.6083 0.003068 0)
(1.005 -0.001427 1.169e-20)
(0.748 -0.05601 0)
(0.9925 -0.002567 -8.374e-21)
(0.7432 -0.002889 4.723e-23)
(0.2901 0.03814 -1.44e-22)
(0.9955 0.0157 -7.359e-21)
(0.7937 -0.06539 -6.598e-22)
(1.004 0.01401 -1.222e-21)
(0.8667 -0.01532 9.663e-22)
(0.8345 -0.0459 1.904e-22)
(0.1921 0.03005 -1.027e-22)
(0.9792 0.005619 -8.009e-23)
(0.6043 0.02577 0)
(0.6916 -0.3914 0)
(0.5588 -0.254 0)
(0.922 0.01709 0)
(0.4726 -0.1127 0)
(0.3683 -0.2331 0)
(0.835 -0.0143 2.518e-22)
(1.019 0.01464 -4.394e-22)
(0.5026 -0.01134 2.71e-23)
(1.002 4.369e-05 -2.013e-22)
(0.7843 0.02044 -1.626e-21)
(0.8364 -0.04663 -9.689e-23)
(0.6714 -0.1075 -9.608e-23)
(1.002 -9.895e-05 0)
(0.9432 -0.01411 1.365e-22)
(0.5699 0.01114 -7.364e-23)
(0.9164 -0.04287 -2.522e-21)
(0.5859 0.001317 4.61e-23)
(0.5016 -0.01665 -2.375e-23)
(0.9984 -0.02715 3.878e-23)
(0.5323 -0.208 2.777e-21)
(0.9777 -0.009348 -1.153e-21)
(0.3428 -0.04641 0)
(0.4298 -0.05063 0)
(0.818 -0.2416 -1.327e-22)
(0.3419 0.04963 -1.131e-22)
(0.8949 -0.04958 9.913e-23)
(0.5609 0.06495 0)
(0.2837 0.05196 0)
(0.6056 0.02584 -6.075e-23)
(0.5265 -0.05364 3.793e-22)
(0.5052 -0.02099 4.809e-23)
(0.2597 0.04114 1.26e-22)
(0.3097 0.04712 6.101e-23)
(0.3467 0.04126 0)
(0.1956 0.0308 0)
(1.007 0.01985 -7.72e-22)
(0.9131 -0.03698 0)
(0.0806 -0.1367 0)
(0.3885 0.02721 7.733e-22)
(0.3437 -0.04475 0)
(0.3596 0.04151 0)
(0.9441 -0.01341 -1.416e-22)
(0.3701 0.03906 -1.237e-23)
(1.007 -0.0005076 0)
(0.06819 -0.1309 0)
(0.5201 -0.03181 2.649e-23)
(0.6387 -0.06044 0)
(0.494 -0.05496 8.767e-22)
(0.3936 0.04488 9.154e-23)
(0.5724 0.01092 6.975e-23)
(1.003 0.0001456 5.669e-22)
(0.2456 0.198 0)
(0.5591 0.01311 1.265e-22)
(1.004 0.0001635 -2.996e-22)
(1.008 0.02224 0)
(0.459 0.0363 -1.443e-22)
(0.6652 -0.0784 1.064e-21)
(0.8243 -0.02471 1.771e-21)
(0.5925 -0.04533 2.771e-23)
(0.3009 0.03712 0)
(0.6231 -0.02292 -9.453e-22)
(0.3716 0.04128 0)
(1 -0.003527 -9.943e-21)
(0.9249 0.06383 -7.382e-24)
(1.005 0.008019 -6.454e-21)
(0.5156 0.05528 -5.325e-22)
(0.2274 0.05309 5.802e-23)
(0.8157 -0.06682 -5.082e-24)
(0.3812 0.05775 0)
(0.5217 -0.01719 -1.609e-24)
(0.6526 0.0207 -1.479e-23)
(1.001 -0.0005282 0)
(0.9213 -0.03443 -6.979e-22)
(0.8171 0.4838 5.563e-22)
(0.3196 0.04533 -9.078e-23)
(0.373 0.04135 -8.36e-23)
(0.08773 -0.01628 4.385e-23)
(0.3585 -0.05256 0)
(0.9992 -0.0009718 1.24e-23)
(0.9014 0.4234 -5.178e-22)
(0.5904 0.001176 -5.07e-23)
(0.8813 -0.07833 0)
(0.3655 -0.02169 0)
(0.907 0.426 0)
(1.005 -0.0003348 -4.289e-21)
(0.8995 -0.1591 8.724e-22)
(0.9412 -0.09969 4.268e-22)
(1.004 0.0002409 0)
(0.5307 -0.01434 0)
(0.5614 0.01134 -2.168e-22)
(0.997 -0.004118 -1.802e-21)
(0.2513 0.03579 0)
(0.5919 0.03077 0)
(0.7818 -0.06414 6.998e-22)
(0.8364 -0.0146 5.83e-24)
(0.3329 0.04026 0)
(0.7763 -0.1833 -1.433e-22)
(0.5114 -0.3157 -2.858e-21)
(0.3677 0.04267 1.96e-22)
(1.027 0.04106 -7.996e-22)
(1.007 -0.001061 -9.534e-21)
(0.9875 -0.0009824 1.277e-21)
(0.358 0.03974 3.995e-23)
(0.9155 -0.03855 0)
(0.8898 -0.08102 1.1e-23)
(0.5117 -0.08443 -3.748e-22)
(0.7549 0.1516 2.222e-23)
(0.9434 -0.0365 -1.214e-21)
(0.9927 -0.0009827 0)
(1.003 0.001736 0)
(0.9135 0.3628 0)
(0.4133 0.03632 -1.176e-22)
(0.8084 0.4881 -5.301e-22)
(0.8032 -0.06558 0)
(0.4648 -0.1253 -3.479e-23)
(0.5239 -0.0524 0)
(0.7445 -0.07179 -8.125e-22)
(0.4715 -0.06174 3.129e-22)
(0.3948 0.04545 -1.056e-22)
(0.9411 -0.09878 -2.049e-22)
(1.007 -0.0004683 -8.342e-21)
(0.7025 0.007601 0)
(0.8567 -0.3139 6.924e-22)
(0.1135 -0.01882 0)
(1.006 0.02566 -7.213e-22)
(0.3721 0.04264 0)
(0.8468 0.003806 2.629e-21)
(0.7761 -0.149 1.49e-22)
(0.3282 0.03284 0)
(0.4343 -0.04871 0)
(0.8446 0.03214 6.155e-22)
(0.4582 0.03903 7.183e-23)
(0.4865 0.03033 1.049e-22)
(0.8191 -0.02287 0)
(0.3005 0.04416 -7.325e-23)
(0.1918 -0.1641 0)
(0.3613 -0.1132 2.156e-22)
(0.6001 -0.07218 -2.615e-22)
(0.8837 -0.07976 5.974e-24)
(1.005 -0.0003622 -7.986e-20)
(0.5189 -0.07211 0)
(0.5301 0.03669 1.596e-22)
(1.008 0.02181 0)
(1.007 0.001021 -5.613e-22)
(0.9878 -0.002645 2.795e-21)
(0.6125 0.009774 -3.582e-23)
(0.7421 -0.1234 -2.459e-23)
(0.2865 0.04074 -9.177e-23)
(0.9998 -0.0002907 1.707e-20)
(1.004 0.007783 7.254e-21)
(0.518 0.03775 0)
(1.009 -0.01368 -3.038e-21)
(0.949 0.08259 -5.595e-24)
(0.7779 -0.03395 0)
(0.4574 0.01956 0)
(0.5573 -0.1007 0)
(0.4857 -0.3811 0)
(0.5409 0.006057 -1.062e-26)
(0.5486 0.03358 -1.383e-22)
(0.9146 -0.04421 0)
(0.5183 -0.07256 0)
(0.4454 0.04785 -2.318e-23)
(0.8337 0.007803 1.552e-22)
(0.9998 -0.000245 0)
(0.8023 -0.06523 0)
(0.9821 -0.01865 7.088e-22)
(0.2305 0.05436 -3.343e-23)
(1.003 -0.0001082 0)
(0.3813 -0.02951 0)
(0.5635 0.01149 2.204e-22)
(0.6501 -0.07016 -5.841e-23)
(0.06559 0.0422 1.907e-21)
(0.8126 0.5156 0)
(0.6195 -0.02264 -1.932e-24)
(0.3154 0.05135 0)
(0.2629 0.04201 -1.082e-22)
(0.9028 -0.1625 1.799e-21)
(0.1259 0.03756 0)
(0.5395 -0.03064 0)
(0.5562 0.03204 1.083e-22)
(0.6165 0.002469 3.714e-23)
(0.8798 -0.1585 -8.347e-23)
(0.3957 0.04595 2.013e-22)
(0.4633 0.04345 0)
(0.9093 -0.2196 7.271e-23)
(0.6996 -0.0129 1.422e-23)
(0.999 -0.002988 -2.283e-21)
(0.4704 -0.123 0)
(0.9514 -0.1175 1.219e-22)
(0.9783 -0.008064 0)
(0.3708 0.03776 1.377e-22)
(0.6638 -0.04436 -4.527e-22)
(0.3715 0.03652 2.232e-23)
(0.8585 -0.1883 -5.661e-23)
(0.7505 -0.1273 4.066e-23)
(0.5028 -0.05868 -4.614e-22)
(1.004 0.2305 -8.762e-22)
(0.6173 0.01115 -1.316e-22)
(0.3884 -0.0551 2.807e-23)
(0.02614 0.02789 -1.566e-22)
(0.8952 0.03576 1.929e-21)
(0.3154 0.03636 -2.839e-22)
(0.6433 -0.06093 2.142e-22)
(0.9624 -0.08912 -1.029e-21)
(0.7184 -0.01613 5.07e-24)
(0.999 -0.0007243 -1.938e-20)
(1.006 -0.0001617 1.747e-20)
(1.003 0.001842 -3.399e-22)
(0.1383 0.06948 4.687e-23)
(0.7534 -0.1284 -4.189e-23)
(0.595 -0.0451 0)
(0.4097 0.02955 0)
(0.4373 -0.05545 0)
(0.4408 0.0378 1.459e-22)
(0.7979 0.02793 8.061e-21)
(0.4179 -0.3912 0)
(0.9671 0.004446 0)
(0.9927 -0.0009429 -6.801e-21)
(1.007 0.001028 0)
(0.4871 0.02979 -9.68e-23)
(0.5161 0.05295 5.642e-22)
(0.4131 -0.3864 0)
(0.0631 -0.1447 -3.192e-21)
(0.987 -0.002175 -2.474e-22)
(0.6566 0.01952 -2.987e-24)
(0.8688 -0.01537 -2.985e-22)
(1.009 -0.01361 4.382e-21)
(0.6179 0.011 -1.331e-23)
(0.239 0.01753 0)
(0.9421 -0.01409 0)
(1.028 0.04382 8.146e-22)
(0.9608 0.00161 7.438e-21)
(0.7071 0.006479 0)
(0.3232 0.05213 0)
(1.005 -0.001386 9.694e-21)
(0.5257 0.01424 1.066e-22)
(0.5289 -0.01706 1.461e-23)
(0.01006 -0.03634 8.914e-23)
(0.5889 -0.07112 0)
(0.541 -0.0637 -5.518e-22)
(0.7856 0.4882 1.29e-21)
(0.6402 -0.07577 2.53e-22)
(0.3225 0.04081 3.941e-23)
(1 -0.003329 2.187e-20)
(0.3654 0.05041 0)
(0.7804 -0.1368 0)
(0.7578 -0.2965 -7.231e-22)
(0.9816 -0.006655 -1.079e-22)
(0.4058 0.0293 -4.698e-22)
(0.4543 -0.2423 -6.187e-24)
(0.98 0.005181 5.872e-21)
(0.5819 -0.1031 1.443e-22)
(0.8088 0.02095 -4.456e-22)
(0.7751 -0.148 -1.45e-22)
(0.7771 -0.03964 -1.137e-23)
(0.8979 -0.2102 -9.66e-23)
(1.004 -0.002168 -4.476e-20)
(0.2554 0.04971 1.053e-23)
(0.1958 0.05116 1.958e-23)
(0.2845 0.03281 -1.028e-22)
(0.3066 0.01058 -7.819e-25)
(0.5338 0.03678 -2.739e-22)
(0.3981 0.04561 -9.782e-23)
(0.5292 0.03493 0)
(0.8443 -0.1693 -3.024e-23)
(0.3691 0.04249 -1.361e-22)
(0.8068 -0.05642 3.098e-22)
(0.5298 -0.05211 1.197e-21)
(1.01 0.04056 5.637e-22)
(0.3604 0.04492 -8.11e-23)
(0.4621 0.03117 3.103e-23)
(1 0.002133 3.703e-20)
(0.5406 -0.06459 2.908e-22)
(0.7565 -0.2045 5.148e-22)
(0.9966 0.003452 6.446e-21)
(0.4635 0.03634 0)
(1.005 0.02685 8.389e-22)
(0.832 -0.02527 -1.685e-21)
(0.2941 0.03832 0)
(0.9524 -0.1529 -1.538e-21)
(0.9969 0.004666 0)
(0.3843 -0.06478 -1.585e-22)
(0.008164 -0.003688 1.422e-21)
(0.9869 -0.0009417 -6.718e-21)
(0.08576 -0.1854 6.586e-22)
(0.3222 0.04567 -1.294e-22)
(0.9568 -0.1122 -1.077e-21)
(1.008 -0.0009171 8.024e-21)
(0.6579 0.01844 0)
(0.5869 0.02942 0)
(0.9697 -1.93e-05 4.977e-23)
(0.6248 -0.3606 0)
(0.5313 -0.02268 -4.133e-23)
(0.5422 0.01504 0)
(0.907 -0.1139 -1.295e-22)
(1.003 0.00187 -7.999e-23)
(0.0001764 -0.003796 -4.796e-24)
(0.3842 0.03457 2.061e-24)
(0.7668 -0.1359 2.182e-23)
(0.5109 -0.3342 0)
(0.2666 -0.0149 5.675e-22)
(0.4233 0.03619 -1.148e-22)
(0.9634 -0.08864 1.852e-22)
(0.6349 0.04225 -2.544e-22)
(0.3147 0.05508 -5.154e-24)
(0.3608 0.04014 -1.071e-22)
(0.9154 -0.1456 -2.5e-23)
(1.019 0.01445 -1.508e-21)
(0.3634 0.04052 1.265e-23)
(0.9716 0.002706 0)
(0.3082 0.03762 -1.148e-22)
(0.9446 -0.0927 -7.119e-22)
(0.5089 -0.0931 3.151e-25)
(0.9936 -0.006173 0)
(0.09882 0.01953 3.763e-22)
(1.005 0.0007765 -1.026e-20)
(0.3665 0.05571 6.98e-23)
(0.4502 -0.04581 -8.149e-22)
(0.7394 0.003111 1.308e-21)
(0.3823 0.05769 -5.71e-23)
(0.7903 -0.148 -1.465e-23)
(0.9449 -0.03595 5.417e-22)
(0.5289 -0.06292 3.087e-22)
(0.6832 -0.04818 7.813e-23)
(0.3722 0.03895 0)
(0.432 -0.09887 0)
(0.9933 -0.001305 7.724e-21)
(0.994 -0.004515 0)
(0.7149 -0.07875 0)
(0.7358 -0.07145 4.196e-22)
(0.482 0.04112 -1.88e-22)
(0.9568 0.08258 0)
(0.8847 -0.235 -5.078e-22)
(1.004 -0.0001932 6.859e-20)
(0.5985 -0.06353 4.142e-22)
(0.9023 -0.0504 0)
(0.9458 -0.09332 -7.662e-23)
(0.195 0.02064 0)
(0.2567 0.04953 -1.022e-23)
(0.6956 0.07193 5.348e-22)
(0.3477 0.05195 0)
(0.309 0.04712 0)
(1.006 0.0272 0)
(0.9172 -0.1492 2.398e-23)
(0.7601 -0.4105 0)
(0.5648 -0.01967 2.154e-24)
(0.5824 0.04161 -3.679e-22)
(0.9908 -0.0002383 1.075e-20)
(0.3709 0.04271 -6.19e-23)
(0.9991 -0.001856 1.775e-21)
(1.075 0.1838 -3.297e-23)
(0.6968 0.07391 0)
(0.7805 -0.04084 -9.055e-25)
(0.03304 0.09277 0)
(0.9968 0.003455 -6.092e-21)
(1.028 0.06597 -1.075e-21)
(0.9425 -0.1994 -1.948e-23)
(0.6439 -0.08218 5.812e-22)
(1.005 -0.0003551 -4.089e-21)
(0.4028 0.03504 0)
(0.3359 0.05242 -1.956e-23)
(0.4475 0.04774 5.272e-23)
(1.001 -6.721e-05 0)
(1.01 -0.004538 -9.084e-21)
(0.1986 0.02732 -2.762e-22)
(0.9439 -0.01438 0)
(0.725 0.3006 8.229e-22)
(0.7037 0.2893 -7.886e-22)
(0.7876 -0.05703 -7.618e-22)
(0.9389 -0.2087 -5.183e-22)
(0.8279 -0.02491 7.535e-24)
(0.4249 0.04419 -6.931e-23)
(0.7889 -0.1859 -9.073e-22)
(0.6189 -0.0719 4.548e-22)
(0.06893 0.01209 3.94e-24)
(0.3227 0.0406 -3.894e-23)
(0.7348 -0.3667 8.242e-22)
(0.3219 0.03681 1.114e-22)
(0.8042 -0.1567 -1.817e-23)
(0.71 -0.03686 -1.335e-23)
(0.9478 -0.1491 0)
(0.4942 0.03242 2.02e-23)
(0.7363 -0.06122 -4.794e-22)
(1.003 -0.0001135 0)
(0.4989 -0.04243 8.885e-22)
(0.9513 0.1368 -8.816e-22)
(0.4201 0.03648 0)
(0.753 -0.07451 9.85e-22)
(0.2288 0.05839 2.086e-23)
(0.9866 -0.02329 0)
(0.6272 0.0651 1.438e-22)
(0.7217 -0.0171 0)
(0.5154 -0.06288 0)
(0.8894 -0.08034 0)
(0.9928 -0.00259 4.639e-22)
(0.03631 0.02703 -8.251e-22)
(0.7891 -0.1473 0)
(0.8421 -0.06033 2.18e-23)
(0.9993 -0.0008951 1.845e-20)
(0.2667 0.04439 5.996e-23)
(0.5796 -0.02369 -1.061e-21)
(0.7232 -0.06646 -2.268e-23)
(0.008423 0.04296 -9.685e-22)
(0.3631 0.04165 0)
(1.005 -0.0001786 -8.7e-21)
(0.8464 -0.2332 -3.456e-22)
(0.8409 -0.3561 1.364e-21)
(0.9032 -0.03291 3.079e-21)
(0.7378 -0.1222 0)
(0.6218 0.01962 -3.095e-23)
(0.4169 -0.04514 6.327e-22)
(1.006 -0.001345 0)
(1.061 0.1089 0)
(0.3026 0.03755 0)
(0.8795 -0.3069 1.722e-21)
(0.654 -0.02404 -1.544e-21)
(0.007963 0.03797 -9.201e-22)
(0.575 0.1068 -2.891e-24)
(0.7805 -0.1364 0)
(0.4394 -0.05725 0)
(0.3633 0.04536 0)
(0.3756 -0.05593 1.491e-22)
(0.835 -0.04594 -3.038e-23)
(0.7704 -0.04854 3.551e-22)
(0.3431 0.04988 5.426e-23)
(0.438 0.03842 0)
(0.3103 0.00377 0)
(0.9942 -0.004629 -3.55e-21)
(0.9339 0.09276 0)
(0.8433 -0.3538 -1.134e-21)
(0.7392 0.05288 9.216e-22)
(0.3889 0.0508 4.715e-23)
(0.7275 -0.4264 -1.805e-22)
(0.9705 -0.005988 6.877e-22)
(0.9971 0.004494 0)
(0.9319 -0.01889 0)
(0.4574 -0.04554 -1.705e-21)
(0.9072 -0.1154 -2.837e-22)
(0.9743 -0.05442 3.002e-22)
(0.5141 0.02326 1.076e-22)
(0.3613 0.05497 -7.326e-25)
(0.4329 0.04964 -1.158e-22)
(0.9292 0.218 0)
(0.7423 -0.1234 -5.603e-23)
(0.5303 -0.06269 -3.273e-22)
(0.9728 -0.0834 -4.769e-22)
(0.907 -0.02471 -2.026e-23)
(0.9746 -0.005957 -2.35e-22)
(0.999 -0.0006411 0)
(0.7038 -0.3954 4.214e-22)
(0.0327 -0.004789 4.033e-23)
(0.453 0.06333 -2.486e-22)
(1.002 -1.313e-05 2.228e-21)
(1.008 -0.001096 -1.081e-20)
(1.007 -0.0002441 -1.283e-20)
(0.6585 0.01872 -1.043e-22)
(0.2431 -0.03701 -5.534e-22)
(0.859 -0.3162 -7.273e-22)
(0.8421 0.1384 -8.089e-23)
(0.8892 -0.2605 -2.317e-22)
(0.4824 0.0239 3.966e-22)
(0.3371 0.05276 0)
(0.5588 0.03166 -1.12e-22)
(0.9911 0.0158 -4.011e-21)
(0.5186 -0.08347 -3.241e-22)
(0.2898 0.04175 2.094e-23)
(0.8475 0.001815 -4.66e-21)
(0.372 0.04327 -4.941e-23)
(0.7809 -0.1476 -2.796e-22)
(1.008 -0.001069 0)
(0.212 0.02039 7.618e-22)
(0.9459 -0.01616 3.078e-22)
(0.6693 0.01958 4.207e-23)
(0.5329 -0.04672 1.736e-21)
(0.3092 0.04713 0)
(0.9168 -0.01893 -1.58e-22)
(0.5317 0.03462 -4.174e-23)
(0.3956 -0.05625 0)
(0.51 -0.0942 7.993e-25)
(0.9293 -0.01229 0)
(0.8974 0.03172 1.537e-23)
(0.3712 0.04256 1.658e-22)
(0.3024 0.03851 2.308e-22)
(1 -0.0004631 -1.658e-20)
(0.3653 0.04916 0)
(0.5847 0.003829 -8.583e-23)
(0.02937 0.004905 0)
(0.02055 0.03509 0)
(1.002 -0.002026 -1.518e-20)
(0.3174 0.04432 3.782e-23)
(0.9902 -0.04799 -5.652e-22)
(0.7485 -0.07047 1.104e-21)
(0.4057 0.0347 0)
(0.3273 0.06038 5.068e-23)
(0.2556 0.03693 1.865e-25)
(0.5455 -0.06319 5.422e-22)
(0.3335 0.03516 2.626e-22)
(0.9896 -0.0001468 -6.51e-21)
(0.3978 0.04585 -1.787e-22)
(0.9763 0.06866 -4.999e-22)
(0.9713 0.1008 -2.989e-22)
(0.6571 -0.06226 -5.833e-22)
(0.6535 0.0114 -3.146e-23)
(0.4763 -0.08377 -3.874e-22)
(0.8238 -0.02425 -2.499e-24)
(1.001 2.864e-05 -1.839e-21)
(0.8965 -0.04908 0)
(0.5547 0.00599 -9.376e-23)
(0.4354 0.02972 -2.1e-22)
(0.89 -0.2474 0)
(0.182 0.02337 -3.841e-22)
(0.9087 -0.1336 -2.494e-22)
(0.01149 0.0009123 -3.307e-24)
(0.9947 -0.04209 3.341e-23)
(0.363 0.0553 0)
(0.2064 0.02841 6.38e-23)
(1.01 0.0009375 -8.276e-22)
(0.8573 -0.217 -1.195e-22)
(0.5752 0.02792 -1.028e-22)
(0.3544 0.05337 2.483e-23)
(1.007 -0.0002623 3.393e-21)
(0.7252 -0.1196 0)
(0.7564 -0.02315 0)
(0.02491 -0.05133 -1.372e-21)
(0.7244 0.007418 3.82e-23)
(0.4348 0.06155 -6.554e-23)
(0.7931 -0.2104 1.714e-22)
(0.723 -0.1192 0)
(0.9938 -0.001276 -7.638e-21)
(1.004 -0.001818 0)
(0.4117 0.03861 1.657e-22)
(0.2749 0.02335 0)
(0.8214 -0.06668 5.873e-24)
(1.003 0.001919 -1.335e-23)
(0.9159 -0.03209 3.386e-21)
(0.7203 0.005492 1.196e-23)
(0.4806 -0.04417 -4.567e-22)
(0.4937 0.0385 0)
(0.9728 0.0009609 0)
(0.4281 0.03599 2.298e-22)
(0.8246 -0.003136 1.082e-21)
(0.8649 0.04145 6.317e-22)
(0.5481 0.01357 0)
(0.3022 0.03727 -6.408e-23)
(0.4259 0.04425 1.532e-22)
(0.5123 -0.05741 -2.765e-22)
(1.002 -0.002055 -3.073e-20)
(0.5459 -0.01737 2.509e-23)
(0.957 -0.1113 1.064e-21)
(0.9945 0.002046 0)
(0.1363 0.06676 -6.817e-23)
(0.3743 0.04359 -1.624e-23)
(0.5875 0.02563 5.106e-23)
(0.6498 0.01167 6.399e-23)
(0.596 -0.07374 -5.035e-22)
(0.1992 0.02529 1.998e-22)
(1.001 -0.0007958 -3.854e-21)
(0.08871 0.05151 -1.362e-21)
(0.09498 0.03926 1.122e-21)
(0.6772 -0.001517 0)
(0.5955 0.04134 -2.964e-22)
(0.9936 -0.005916 -1.765e-21)
(0.9991 -0.0003859 6.318e-23)
(0.9265 -0.03385 0)
(0.2744 0.2349 0)
(0.953 0.01193 6.066e-22)
(0.4592 0.03934 2.831e-22)
(1.022 0.09538 -4.661e-24)
(0.7369 -0.06051 -4.519e-22)
(0.9145 -0.04506 7.553e-22)
(0.564 0.01285 -1.144e-22)
(0.8244 -0.06557 7.275e-22)
(1.025 0.2178 0)
(0.3405 0.03723 -3.075e-22)
(0.3023 0.04452 3.728e-23)
(0.0003769 -0.01584 -7.637e-24)
(0.5361 0.02723 6.683e-23)
(0.6816 -0.04597 -7.835e-24)
(0.9935 0.0002315 -1.754e-21)
(0.7623 -0.3638 1.381e-21)
(0.7544 -0.07461 -6.557e-22)
(0.03066 0.05082 1.204e-22)
(0.2483 -0.03565 2.577e-22)
(0.7172 -0.1168 1.596e-22)
(1.007 0.01579 1.397e-21)
(0.5076 -0.04136 -9.248e-22)
(1.01 0.0009843 6.453e-23)
(0.4595 -0.04764 0)
(0.9899 -0.0002507 0)
(0.6158 -0.04949 0)
(0.1962 0.05226 2.792e-24)
(0.2825 0.03175 -9.029e-23)
(1.021 0.07111 2.648e-22)
(0.4868 -0.04366 0)
(1.006 0.009704 0)
(0.3366 0.0407 3.184e-23)
(0.3537 0.03988 6.095e-23)
(0.978 0.0695 -4.753e-22)
(0.8798 0.04017 -2.984e-22)
(0.9874 -0.02304 0)
(1.005 0.0008267 7.067e-21)
(0.8626 0.03239 8.639e-23)
(0.2224 0.03076 1.116e-23)
(0.6956 0.02246 2.393e-22)
(0.8327 -0.1761 6.913e-24)
(0.5735 -0.02782 -1.325e-21)
(0.7881 -0.06446 0)
(0.5351 0.03437 2.062e-22)
(0.9874 0.003607 1.568e-22)
(0.9267 0.09674 0)
(0.3946 0.04483 -1.239e-22)
(0.9732 -0.05378 -2.862e-22)
(0.2571 0.03761 2.754e-23)
(1.005 -0.003413 0)
(0.8814 -0.03919 1.337e-22)
(0.845 -0.1689 3.041e-23)
(0.7125 -0.07395 -6.057e-22)
(0.6038 0.0295 0)
(0.5757 0.02835 1.054e-22)
(0.354 0.04093 5.916e-23)
(0.4209 -0.1306 0)
(0.8951 -0.01854 -3.785e-21)
(0.4544 0.03814 -2.164e-22)
(0.735 -0.07121 4.314e-22)
(0.3589 0.04472 0)
(0.9358 -0.01907 -6.127e-22)
(0.6328 0.03419 1.639e-22)
(0.9934 0.0001681 -4.581e-22)
(0.003108 0.03836 -9.153e-22)
(0.8033 -0.05638 -3.42e-22)
(0.3164 0.05136 0)
(0.8286 0.006394 0)
(0.9194 -0.1175 1.323e-21)
(0.9487 -0.1203 -9.363e-23)
(0.3716 0.0581 -2.873e-23)
(0.4049 -0.07117 0)
(0.9078 -0.02957 1.036e-21)
(0.9783 -0.009388 1.655e-21)
(0.3718 0.03791 0)
(0.3308 0.03276 0)
(0.138 0.0257 -6.134e-22)
(0.9825 -0.001881 -9.876e-22)
(0.4321 0.02916 0)
(0.2689 0.01964 0)
(0.9459 -0.01384 6.171e-21)
(0.7613 -0.409 0)
(0.9384 -0.01492 -1.394e-20)
(0.8436 -0.06052 0)
(0.3204 0.04055 -7.753e-23)
(0.9604 0.001121 -3.274e-21)
(0.5187 -0.06344 3.182e-22)
(0.6331 -0.0545 2.889e-22)
(1.002 0.001765 1.632e-20)
(1.054 0.09287 6.153e-22)
(0.6308 -0.06821 2.799e-22)
(0.552 0.03313 7.689e-23)
(0.4756 0.01969 -2.216e-22)
(0.5426 0.02926 0)
(0.9987 -0.0265 0)
(0.9091 0.3552 0)
(0.3179 0.03561 1.474e-22)
(0.6396 0.04124 1.421e-22)
(0.3589 0.03495 0)
(0.711 -0.1143 -1.76e-22)
(0.7542 0.1197 1.576e-22)
(0.5999 0.02301 0)
(0.39 0.04011 6.799e-23)
(0.2657 0.02223 -2.655e-22)
(0.9993 0.0004348 -1.01e-22)
(0.6876 -0.04965 -9.085e-23)
(0.9994 0.001936 2.135e-20)
(0.8645 -0.03235 8.252e-22)
(0.906 -0.04296 9.993e-22)
(0.5055 -0.04543 2.313e-22)
(0.507 0.0274 5.234e-24)
(0.4187 0.03759 9.299e-23)
(1 -0.0005066 4.53e-21)
(1 0.002179 -3.57e-20)
(0.5868 0.01162 0)
(0.4459 0.03793 0)
(1.011 0.01728 -5.683e-23)
(0.9325 0.1159 0)
(0.6542 -0.07019 0)
(0.3954 0.01084 0)
(0.6603 -0.06245 7.245e-22)
(1.007 0.01927 0)
(1.011 0.0353 -2.993e-22)
(0.805 -0.1571 -3.901e-23)
(0.8123 -0.1584 0)
(0.3333 0.04589 8.901e-24)
(0.2936 0.03441 -1.954e-22)
(1 -0.0005186 -2.882e-21)
(0.9917 -0.000959 0)
(0.5603 0.03197 0)
(0.353 0.04656 4.092e-23)
(0.4657 0.04349 0)
(0.5854 -0.02176 -8.607e-22)
(0.6149 0.02703 0)
(0.6001 -0.06391 4.352e-22)
(0.5912 -0.05836 3.718e-22)
(0.5886 0.02927 -6.417e-23)
(0.956 0.06918 5.59e-22)
(0.9079 -0.04235 -1.04e-21)
(1.012 0.003582 6.475e-22)
(0.9159 -0.03131 -2.009e-21)
(0.2164 0.1948 2.734e-23)
(0.9669 0.07223 0)
(0.8599 -0.1895 4.296e-23)
(0.9073 -0.05093 1.492e-23)
(0.5557 -0.0585 0)
(0.7342 -0.04092 5.819e-22)
(0.2315 0.0458 0)
(0.03885 -0.01273 -1.429e-22)
(0.6772 0.0113 -3.738e-23)
(0.7149 0.006286 1.124e-22)
(0.7945 -0.0678 2.775e-22)
(0.2638 0.03651 7.787e-23)
(0.4968 -0.02662 -1.426e-23)
(0.3121 0.0379 0)
(0.6879 -0.03112 8.209e-24)
(0.7662 -0.1359 0)
(0.3841 -0.04092 0)
(0.6621 -0.06768 1.139e-21)
(0.8865 -0.2066 4.914e-23)
(0.2228 0.02667 3.479e-22)
(1.006 0.008421 0)
(0.3228 0.0432 -3.351e-23)
(1.009 -0.004439 1.83e-20)
(0.6533 -0.0491 -2.769e-24)
(1.001 -0.0007327 0)
(0.6166 0.02679 0)
(0.9279 -0.2069 -5.738e-24)
(0.3613 0.03544 -3.459e-23)
(0.8577 -0.2029 -4.167e-23)
(0.6782 -0.07137 6.544e-22)
(0.8861 -0.2367 2.194e-22)
(0.9986 -0.0003511 5.389e-23)
(0.7511 -0.05628 5.735e-22)
(0.2834 0.0414 3.678e-24)
(0.8943 0.4689 1.012e-22)
(0.5123 0.03659 -5.037e-23)
(0.5013 0.03804 9.397e-23)
(0.1705 0.02333 2.133e-23)
(0.4852 -0.04577 0)
(0.5216 0.03731 0)
(0.2778 0.03333 1.206e-22)
(0.3739 0.04291 -1.588e-23)
(0.5409 0.04472 -1.324e-22)
(0.587 0.0419 5.795e-22)
(0.1495 0.02123 -1.722e-22)
(0.6051 -0.04596 1.214e-21)
(0.3143 0.04733 0)
(0.2444 0.03559 0)
(0.9895 0.09508 0)
(0.3903 -0.24 4.07e-21)
(0.4984 0.4995 7.908e-22)
(0.7544 0.004622 -1.667e-21)
(0.1779 0.02355 -2e-23)
(0.2289 0.03813 0)
(0.9193 -0.04585 0)
(0.2953 0.03599 1.598e-22)
(0.2512 0.03387 1.956e-22)
(1.001 0.3313 2.345e-22)
(0.6345 -0.08659 1.175e-21)
(0.7958 -0.06885 -9.085e-22)
(0.8984 -0.1461 -3.497e-22)
(0.9804 -0.07162 -1.303e-22)
(0.3994 -0.1571 -2.663e-22)
(0.658 0.01604 -1.039e-22)
(0.4908 0.03475 -2.375e-22)
(0.5819 -0.02897 0)
(0.1269 0.01088 0)
(0.4907 0.04432 1.544e-22)
(0.1127 0.004303 9.969e-23)
(0.4421 -0.09441 4.095e-22)
(0.4935 0.02141 0)
(0.3242 0.02817 0)
(0.6688 0.0182 5.969e-23)
(0.9987 0.0001975 0)
(0.8228 -0.06236 2.968e-22)
(0.9951 8.367e-05 -2.643e-21)
(0.373 0.04213 0)
(0.7941 0.009316 -1.655e-23)
(0.5602 0.02837 2.199e-22)
(0.3662 0.05607 6.493e-23)
(0.2267 0.02703 1.958e-21)
(0.6813 -0.07265 0)
(0.7742 -0.1323 0)
(0.6541 -0.06009 5.092e-23)
(0.01122 0.001509 0)
(0.6458 -0.0611 -5.034e-22)
(1.009 0.0005861 1.776e-20)
(0.7132 -0.1156 -4.165e-23)
(0.5928 -0.06684 0)
(0.7587 -0.05622 1.325e-22)
(0.7982 0.04066 1.241e-21)
(0.8647 -0.3032 0)
(1 -0.007598 -9.809e-21)
(0.4934 0.0359 0)
(0.2808 -0.04081 1.43e-22)
(0.6025 0.02261 0)
(0.07123 0.05379 5.702e-24)
(0.008616 0.001383 0)
(0.9912 -0.0003322 -9.633e-21)
(0.9193 0.02054 -6.595e-22)
(0.9471 -0.01911 1.607e-22)
(0.9522 -0.03811 2.635e-23)
(0.9543 -0.01819 1.007e-23)
(0.7506 -0.05392 3.131e-22)
(0.9937 0.002468 2.762e-20)
(0.3693 0.05642 -4.574e-24)
(0.48 0.0442 -7.002e-23)
(0.9981 -0.001524 0)
(0.5473 0.06276 -3.14e-22)
(1.005 -0.007394 7.897e-21)
(0.1893 0.02708 -4.247e-22)
(0.5619 -0.009289 0)
(0.6214 -0.0639 0)
(0.3314 0.04502 0)
(1.009 0.0006277 -2.206e-20)
(0.8983 0.02282 6.102e-21)
(1.006 0.02453 3.648e-22)
(0.1094 -0.006705 -3.225e-21)
(0.7298 0.008948 -1.859e-22)
(1.005 -0.0213 -3.138e-22)
(0.8537 -0.02489 -1.267e-21)
(0.9954 0.0006136 0)
(0.5348 -0.1042 1.188e-22)
(0.9919 -0.004207 1.531e-20)
(0.2689 0.0341 0)
(1.016 0.3473 0)
(0.8692 -0.04153 -1.176e-21)
(0.8342 -0.003609 -1.175e-21)
(1.011 -0.001868 -4.888e-21)
(1.007 -0.0003732 0)
(0.09489 0.008775 0)
(0.4484 0.03832 0)
(0.8115 -0.06818 0)
(0.1193 -0.01647 -3.161e-23)
(0.2521 0.03972 -7.225e-23)
(0.4058 0.04282 4.626e-23)
(0.5096 0.03994 0)
(0.7246 -0.3895 -8.499e-22)
(0.7395 0.09547 -2.186e-22)
(0.8119 0.03551 -5.051e-21)
(0.05261 -0.006449 0)
(0.6889 0.02006 2.003e-22)
(0.9987 0.0004033 -3.216e-22)
(0.1104 -0.005552 -6.483e-21)
(0.7929 0.009448 -5.045e-22)
(0.9558 -0.09886 -8.439e-24)
(0.8116 0.002654 0)
(0.1588 0.02339 0)
(0.9978 0.00268 0)
(0.3417 0.04308 1.276e-23)
(0.5395 0.1182 1.278e-22)
(0.05038 0.144 2.19e-21)
(0.3684 0.04647 6.881e-23)
(0.9896 -0.03726 5.34e-23)
(0.213 -0.0003999 2.469e-22)
(0.8632 -0.03277 -7.794e-22)
(0.4234 0.04395 7.477e-23)
(0.9912 -0.01911 2.198e-21)
(0.8217 -0.06215 3.217e-22)
(0.9953 -0.04143 -2.316e-23)
(0.1726 0.02522 -3.553e-23)
(0.8041 -0.1281 -6.34e-23)
(0.2776 -0.0332 -2.264e-22)
(0.4015 -0.4254 0)
(0.09858 0.03424 2.909e-22)
(0.568 -0.0317 -1.66e-21)
(0.5175 0.02331 -9.653e-23)
(0.02709 -0.006075 0)
(0.8532 -0.03488 -5.969e-24)
(0.2718 0.03728 -3.139e-23)
(0.4952 0.03483 -5.69e-23)
(1.027 0.04564 4.512e-23)
(0.3853 0.02122 0)
(0.614 0.02829 0)
(0.2878 0.03678 0)
(0.2242 0.04457 -2.627e-23)
(0.2481 -0.01019 -1.127e-22)
(0.6148 0.0009559 1.801e-21)
(0.2728 -0.03776 4.358e-22)
(0.03426 0.09843 -2.892e-21)
(0.4154 0.0393 2.578e-22)
(0.7642 -0.04562 -8.282e-22)
(0.2639 -0.03249 -2.132e-22)
(0.8933 -0.2221 -4.184e-22)
(0.4195 0.04021 5.347e-23)
(0.5469 0.3884 -9.947e-22)
(0.8279 -0.19 0)
(0.4576 0.03837 -4.295e-23)
(1.004 -0.001995 2.664e-20)
(0.4028 0.04075 -2.015e-22)
(0.4221 -0.05488 -7.934e-22)
(0.4832 0.03731 2.224e-22)
(0.7592 -0.1331 2.534e-23)
(0.4374 0.02983 -2.727e-23)
(0.04305 0.08948 -1.535e-21)
(0.2525 -0.05055 -6.244e-23)
(0.3216 0.05174 1.355e-23)
(0.7835 -0.1409 -3.831e-25)
(0.005681 0.0008305 -7.378e-24)
(0.9987 0.001876 -2.785e-21)
(0.7267 -0.1238 -4.612e-22)
(0.9067 -0.1341 3.626e-22)
(0.4567 0.04185 2.474e-24)
(0.4372 0.04157 0)
(1 -1.074e-05 3.379e-20)
(0.277 0.03632 -9.236e-23)
(0.6754 0.01199 -6.152e-23)
(0.3476 -0.02472 2.518e-21)
(0.07274 -0.05147 3.646e-22)
(0.2504 0.0355 7.982e-23)
(0.9549 -0.1389 -5.849e-22)
(0.5732 -0.005515 -3.117e-24)
(0.8525 -0.1922 2.49e-23)
(1.016 0.06724 -2.727e-22)
(0.2928 0.02736 0)
(0.7109 -0.114 -8.704e-23)
(0.6111 0.008489 -7.466e-23)
(1.002 -0.00438 -1.707e-20)
(0.5772 0.04501 -3.453e-22)
(0.6312 -0.2277 -1.807e-22)
(1.006 -0.01346 0)
(0.6988 0.0564 -1.812e-23)
(1.019 0.3138 4.136e-22)
(0.995 -0.006267 -6.995e-22)
(0.7747 -0.07159 1.501e-21)
(0.2319 -0.03132 -1.287e-21)
(0.8841 -0.2989 -1.305e-21)
(0.5107 0.03115 0)
(0.3148 0.03543 -8.937e-24)
(0.2258 0.04466 4.425e-23)
(0.8998 -0.05135 -1.265e-21)
(0.3046 -0.01761 -5.177e-22)
(0.4691 0.06494 4.004e-22)
(0.3748 0.03741 2.724e-22)
(0.1665 -0.008864 1.857e-21)
(0.9586 -0.1 -2.616e-22)
(1.002 -0.002293 -8.059e-21)
(0.9684 0.07211 0)
(0.84 0.03625 0)
(0.7248 -0.01476 0)
(0.1878 0.03575 0)
(0.6779 -0.0694 4.323e-22)
(0.8543 0.1467 9.992e-22)
(1.007 0.001314 5.323e-21)
(1.009 -0.01428 -3.785e-21)
(0.6429 0.02464 1.746e-22)
(0.4046 -0.06074 -1.083e-24)
(0.7542 -0.1005 -8.659e-23)
(0.5883 0.02645 -5.484e-24)
(0.6561 0.05814 8.972e-22)
(0.4963 0.03502 -1.477e-22)
(0.6127 -0.156 -2.495e-21)
(0.09878 0.024 2.099e-22)
(0.6022 0.01788 -1.099e-22)
(1.024 0.3348 1.92e-22)
(0.6187 0.009545 -3.415e-24)
(0.5819 0.03074 0)
(0.9984 -0.00315 2.88e-21)
(1.004 -6.349e-06 -2.719e-20)
(0.8815 -0.05581 3.253e-22)
(0.2314 -0.02647 0)
(0.7581 -0.1258 1.161e-22)
(0.7125 -0.07561 -6.025e-22)
(1.01 0.01124 -3.321e-21)
(0.9997 -0.002696 -5.193e-21)
(0.9985 -0.0007063 -1.11e-20)
(0.2835 -0.02563 0)
(0.01289 -0.03703 -1.574e-22)
(0.9965 -0.0005804 1.278e-21)
(0.3484 -0.2899 5.624e-21)
(0.29 -0.379 -1.606e-21)
(0.1548 0.02218 -3.553e-22)
(0.8022 -0.2006 1.642e-21)
(1.004 0.001689 7.87e-21)
(0.9727 0.002269 -2.536e-21)
(0.4442 -0.1642 0)
(0.09246 0.02711 0)
(0.3319 0.03872 0)
(0.01406 -0.002649 0)
(0.7618 0.1456 8.026e-23)
(0.604 -0.05945 1.62e-22)
(0.4284 0.1246 2.012e-21)
(1.072 0.1137 0)
(0.3601 0.04064 -1.741e-22)
(0.3876 0.04209 -1.02e-22)
(0.5777 0.02014 0)
(0.1383 -0.02035 -1.516e-22)
(0.6113 -0.06762 7.708e-23)
(0.8322 -0.1859 -1.172e-22)
(0.9105 -0.04708 -6.744e-22)
(0.9455 0.2977 -1.455e-22)
(0.542 -0.04751 -1.225e-21)
(0.8826 0.006914 -6.12e-22)
(0.8989 -0.01068 -3.112e-20)
(0.9974 -0.004826 0)
(0.6145 0.001534 3.279e-23)
(0.1981 -0.018 -1.616e-23)
(0.6595 -0.003504 1.386e-23)
(0.4641 -0.4398 0)
(0.8826 -0.03047 1.114e-22)
(0.6626 -0.05274 -6.25e-23)
(0.4224 -0.04467 2.097e-21)
(1.006 0.01487 -3.2e-21)
(0.3415 0.04551 2.614e-23)
(0.4456 0.03693 -7.819e-23)
(0.05859 0.0498 -1.087e-23)
(0.478 -0.07466 -3.802e-22)
(0.5333 -0.002874 -2.493e-22)
(0.356 0.04888 0)
(0.6449 0.01546 -3.764e-23)
(0.3415 0.04085 3.032e-23)
(1.005 0.001969 -2.139e-20)
(0.412 0.03877 -7.925e-23)
(0.5057 -0.06227 0)
(0.3152 0.04049 0)
(1.041 0.1196 9.162e-23)
(0.8539 -0.004027 4.707e-22)
(1.052 0.09327 0)
(0.8434 -0.04909 1.348e-22)
(0.9912 0.01489 0)
(0.9217 0.01659 0)
(0.2665 0.03236 0)
(0.8149 0.183 0)
(0.9934 0.006192 -1.009e-21)
(0.1136 -0.09886 4.926e-23)
(0.7582 0.3779 -4.201e-22)
(0.5766 0.01705 -1.428e-22)
(1.007 6.516e-05 -1.642e-20)
(0.7629 -0.05357 -2.864e-22)
(0.8759 -0.02745 0)
(0.3662 0.03797 0)
(0.3068 0.04131 1.015e-22)
(0.4521 0.01427 8.849e-22)
(0.8944 0.0159 2.719e-21)
(0.1916 0.02025 -9.425e-22)
(0.3502 0.05329 -7.422e-23)
(0.9979 -0.000907 -5.247e-21)
(0.9894 -0.003563 0)