/*--------------------------------*- C++ -*----------------------------------*\
  =========                 |
  \\      /  F ield         | OpenFOAM: The Open Source CFD Toolbox
   \\    /   O peration     | Website:  https://openfoam.org
    \\  /    A nd           | Version:  8
     \\/     M anipulation  |
\*---------------------------------------------------------------------------*/
FoamFile
{
    version     2.0;
    format      ascii;
    class       volScalarField;
    location    "60";
    object      nut;
}
// * * * * * * * * * * * * * * * * * * * * * * * * * * * * * * * * * * * * * //

dimensions      [0 2 -1 0 0 0 0];

internalField   nonuniform List<scalar> 
127143
(
6.305e-21
1.371e-20
2.221e-19
2.685e-18
1.209e-17
2.811e-18
1.01e-15
1.026e-16
3.225e-17
4.706e-16
1.102e-15
1.114e-16
1.327e-18
5.513e-18
3.03e-07
5.842e-14
6.916e-18
0.005697
0.004101
1.603e-12
0.0006158
3.438e-11
6.794e-05
1.306e-07
2.875e-11
1.247e-09
9.234e-11
1.098e-10
2.439e-10
0.006185
5.842e-08
1.191e-09
5.349e-11
6.133e-08
5.278e-05
5.701e-11
0.0001925
0.0007362
2.141e-07
8.37e-10
0.004115
5.162e-06
5.496e-06
7.008e-17
0.005614
7.952e-08
2.452e-10
0.0008914
1.022e-07
1.656e-07
2.128e-13
0.0004369
0.0004331
5.552e-05
0.006668
3.023e-08
0.006667
0.0001009
0.006063
5.056e-05
4.433e-06
0.002436
7.791e-07
0.006702
1.675e-06
2.27e-05
7.121e-05
6.502e-07
6.531e-07
0.002978
8.88e-08
2.85e-10
0.00278
0.005479
0.006693
3.21e-10
0.0008939
0.000252
3.046e-08
0.006705
2.364e-10
1.745e-12
1.29e-06
2.746e-09
0.002005
0.0003546
3.16e-07
4.078e-11
2.372e-05
2.532e-07
0.004234
0.0005653
8.334e-07
0.0006275
0.0001089
0.0001082
5.583e-06
2.183e-08
0.0005638
5.979e-05
0.006705
1.176e-07
1.911e-08
3.103e-05
0.0003911
0.0005266
5.252e-07
0.002979
9.508e-06
0.00668
4.298e-07
3.128e-11
0.0003188
8.056e-07
0.006691
8.824e-05
0.0006149
0.006693
0.0008728
6.572e-13
0.00668
1.602e-06
3.065e-06
0.0001144
2.76e-10
2.515e-10
0.001594
0.001075
0.0001713
2.327e-08
0.0001133
8.431e-05
1.602e-06
0.0002649
1.997e-15
0.000124
0.0001754
0.0009225
9.524e-10
0.000164
5.467e-05
0.00106
0.0005836
0.001184
0.0004407
5.732e-06
2.828e-10
0.006702
7.376e-05
7.456e-09
1.21e-05
1.396e-07
0.0007715
2.956e-05
2.594e-06
0.002053
7.945e-05
1.784e-08
0.0009263
1.044e-08
1.339e-07
8.519e-14
0.004483
0.0001149
2.169e-09
3.321e-06
0.0001068
9.043e-06
1.561e-08
0.0002169
2.722e-06
0.001188
6.86e-05
7.186e-06
0.002812
0.000554
3.687e-06
0.0001749
1.588e-07
0.002169
7.228e-06
0.0005723
0.000603
0.0005693
2.444e-08
0.00252
1.571e-05
8.708e-07
1.406e-07
0.0008156
0.0002783
0.0001273
0.000173
6.548e-07
5.663e-16
0.001559
0.006639
0.006624
2.659e-14
0.003034
0.006694
0.0002076
0.0024
0.0002363
6.587e-17
4.688e-07
0.0001282
6.147e-06
0.005878
0.006691
0.0002857
0.001576
0.006688
1.642e-08
4.005e-05
8.161e-15
1.035e-07
5.984e-06
0.0001889
0.0001258
3.563e-06
0.006694
1.245e-07
0.0004339
8.372e-09
1.625e-06
6.574e-09
0.0006403
1.299e-05
0.00102
0.0005537
0.000717
0.002924
1.107e-11
0.0005662
0.0001062
0.0001147
1.453e-18
0.006628
0.0003654
0.0001384
3.617e-06
0.0008356
1.82e-08
0.0002759
9.805e-13
2.805e-07
1.347e-10
6.066e-13
0.003015
8.282e-06
1.89e-09
4.561e-06
0.0008973
6.514e-08
7.444e-06
0.001222
2.352e-08
3.106e-05
1.707e-05
0.001523
0.0007782
0.0004017
0.001025
0.0001987
2.725e-06
7.683e-06
1.754e-06
5.461e-06
2.057e-05
5.611e-09
0.002809
0.001325
0.0003516
1.389e-06
0.0002984
0.0003311
1.803e-07
0.002874
2.688e-05
0.003427
0.0001138
3.167e-05
0.00669
0.006691
5.466e-16
9.884e-05
0.006692
1.646e-07
0.002202
0.000681
4.84e-05
0.0001069
4.311e-05
0.006698
7.45e-06
5.811e-08
0.0001108
0.0008317
1.934e-05
1.88e-08
3.479e-05
1.505e-05
0.0001076
5.62e-09
4.147e-06
6.198e-06
0.00669
0.003059
4.287e-06
4.519e-07
7.045e-06
1.95e-08
0.003736
0.00669
4.867e-07
0.0008139
1.868e-08
0.0001319
0.00347
8.661e-05
8.603e-08
0.0004022
4.53e-06
4.366e-07
0.0004671
0.0001135
0.0001373
9.402e-08
2.709e-06
0.001661
0.006691
5.78e-05
0.006639
0.006624
3.293e-05
9.702e-06
6.888e-05
0.001656
7.507e-05
0.0001826
5.969e-06
0.00049
0.0003249
1.1e-06
1.636e-07
9.415e-06
0.0002223
2.244e-08
8.041e-05
3.438e-08
0.004179
0.0004693
0.000309
0.000145
1.321e-05
0.0008813
6.616e-06
0.006324
9.356e-08
0.001831
9.426e-07
0.003394
2.238e-07
1.901e-07
0.006697
0.003445
0.003169
1.298e-06
0.002865
2.699e-06
0.0003714
5.458e-09
1.475e-07
0.000929
0.0001291
7.403e-08
5.444e-11
0.0006917
0.002894
0.002179
4.629e-10
4.195e-08
2.948e-05
0.0006792
7.591e-12
4.85e-05
1.196e-09
0.001465
0.001301
0.006696
1.438e-05
6.684e-06
7.24e-08
1.571e-07
5.279e-08
1.493e-05
7.968e-08
0.000146
0.0005801
2.304e-09
0.006694
0.0006649
0.0006427
4.65e-05
6.641e-06
0.0004706
1.767e-06
0.006705
1.773e-07
1.074e-05
1.99e-08
4.913e-05
0.001039
5.088e-06
0.0001177
0.000367
4.666e-09
0.0004749
2.539e-07
0.0001187
2.137e-09
2.529e-05
0.003273
0.0009709
1.389e-05
5.384e-06
4.054e-05
5.815e-06
9.785e-05
0.006677
2.486e-05
0.0003925
0.001314
1.877e-05
0.006697
5.01e-06
1.459e-05
0.0004749
0.006697
0.00669
2.309e-07
0.0001567
8.317e-06
0.0003445
2.437e-08
0.006267
7.671e-07
0.003226
0.001579
0.000601
5.887e-08
8.429e-06
6.994e-07
3.996e-05
0.0003318
1.481e-08
7.747e-06
0.0003749
0.0002795
2.133e-06
0.0002502
0.001801
9.15e-07
0.0002516
0.002856
0.001552
0.0006157
4.753e-06
0.006667
0.0008115
0.0002148
9.882e-05
0.0006727
0.0001407
0.006645
2.127e-06
0.0001749
4.225e-06
0.000525
2.846e-10
1.006e-06
1.123e-05
2.001e-08
8.81e-06
1.875e-05
0.000562
0.006688
2.122e-08
0.0009335
1.337e-06
3.608e-07
0.0003861
6.236e-06
2.032e-15
8.475e-05
1.139e-06
9.952e-05
1.511e-06
0.006686
2.391e-10
0.001573
0.0005766
0.001646
7.379e-18
3.908e-14
1.569e-13
0.006697
1.431e-05
5.216e-06
0.00669
0.001996
1.631e-06
0.0001103
2.639e-05
0.0005665
5.805e-08
0.0008242
2.462e-09
0.002899
0.001315
3.424e-12
1.529e-07
2.244e-08
4.522e-06
0.006542
1.37e-05
0.001973
0.001836
0.006605
1.445e-08
2.692e-09
5.556e-06
0.006636
0.0006096
0.0001198
8.728e-07
8.285e-06
5.737e-09
0.002502
0.0009433
1.907e-05
1.535e-05
0.006668
3.701e-05
0.000461
7.599e-08
2.311e-07
3.707e-06
5.86e-07
0.001527
3.081e-05
4.43e-07
0.0001329
2.821e-05
0.003617
2.095e-09
0.0001594
1.394e-08
1.255e-06
0.0009088
0.006702
0.006701
1.814e-05
8.366e-06
1.32e-06
0.006691
0.004988
1.333e-05
4.599e-08
0.0004649
1.128e-05
3.326e-07
2.836e-09
5.245e-05
0.001226
0.006682
4.165e-06
0.0006102
1.38e-06
0.005094
4.315e-10
2.011e-06
4.565e-05
0.00289
4.551e-09
0.006691
0.0005259
0.0007756
0.001851
0.005072
6.854e-06
0.001529
4.315e-12
0.006644
5.793e-07
1.203e-07
0.00669
6.669e-06
0.005516
3.224e-07
0.0005761
0.00669
2.605e-06
6.962e-08
1.523e-05
0.0001254
0.0006043
3.63e-08
4.355e-08
1.454e-06
2.666e-07
1.3e-06
2.485e-07
0.0003532
0.0003125
1.045e-08
0.005645
3.04e-08
0.006689
1.318e-06
0.000871
0.0005915
0.006677
0.00638
7.905e-05
2.61e-07
0.0003707
0.006491
0.006675
1.751e-05
4.521e-10
3.411e-06
2.8e-08
0.00267
9.191e-06
0.0006092
9.913e-06
0.0003369
1.165e-05
6.38e-07
0.00649
1.964e-05
0.0003696
9.527e-05
0.0001964
0.005224
0.004989
0.0004843
1.763e-09
0.0005632
2.152e-09
0.0007822
0.004034
7.292e-05
4.013e-05
0.0002
4.035e-06
9.881e-05
0.0005618
3.379e-06
3.094e-05
0.0003893
2.456e-05
1.867e-16
2.366e-06
0.0003929
0.0003257
0.0001031
4.6e-05
6.936e-09
9.623e-06
0.0004163
0.0002338
0.0001263
0.0006984
0.006677
1.94e-07
1.927e-05
4.931e-06
0.006636
0.006677
3.892e-10
0.0001003
4.833e-08
8.2e-05
1.63e-06
0.003039
3.078e-05
1.484e-08
1.082e-05
7.382e-08
0.006688
0.006667
7.533e-06
1.529e-05
2.174e-06
5.46e-06
5.222e-09
0.00257
9.244e-08
0.0002731
0.002768
0.004128
3.118e-08
0.0001527
5.713e-08
1.788e-15
2.088e-06
0.0002614
0.0007502
0.004894
8.491e-07
1.978e-07
1.391e-09
0.004887
0.001627
0.000338
1.122e-08
0.0003545
2.285e-07
0.003464
9.717e-08
6.45e-07
4.341e-06
0.001651
5.834e-05
2.553e-20
2.267e-05
0.0001876
5.081e-07
2.119e-06
3.571e-07
0.006686
0.0003617
0.004209
0.0004786
0.003879
1.665e-09
3.06e-05
4.74e-09
0.003758
7.018e-06
0.0003108
1.795e-05
0.0001441
0.004132
0.0007445
8.841e-06
2.362e-06
0.0008387
0.002704
0.0004902
1.13e-06
0.00361
5.974e-06
5.733e-05
5.368e-05
8.691e-05
3.674e-05
2.073e-06
1.18e-09
1.248e-05
0.006607
0.0007337
0.002476
1.6e-09
2.227e-08
5.649e-05
0.002059
7.966e-07
0.006619
0.000122
3.602e-06
0.0004973
3.055e-11
0.0005047
6.359e-06
0.0004082
0.001001
6.559e-05
0.006697
4.585e-17
0.0001229
0.000146
5.439e-07
0.0005035
2.088e-05
4.454e-05
1.174e-07
0.006681
0.004476
3.066e-05
0.004004
2.704e-05
1.356e-06
5.071e-07
2.95e-06
0.006659
0.0006589
0.0004856
0.006688
0.006656
0.0002041
0.002374
0.002664
2.771e-05
0.0005423
2.764e-13
1.714e-05
9.069e-06
0.006678
0.0003125
0.0001457
6.968e-08
9.905e-09
9.233e-06
0.003784
0.00662
0.001134
1.886e-10
0.006678
0.0002508
6.777e-09
8.661e-07
9.246e-10
0.005597
0.001112
7.696e-07
0.006692
2.304e-08
0.006679
1.419e-06
2.876e-09
2.81e-05
0.0003231
2.614e-10
0.004381
2.976e-06
2.124e-05
1.592e-08
5.087e-05
7.703e-09
7.766e-09
5.843e-05
6.6e-05
1.181e-05
8.46e-13
0.006691
0.0008928
3.835e-08
5.94e-08
0.0001174
4.339e-11
0.003843
0.0005618
4.011e-06
7.649e-10
7.52e-11
5.795e-07
1.837e-14
1.766e-07
2.013e-14
8.384e-05
8.01e-07
0.004505
2.316e-11
0.0008935
3.727e-07
0.005066
0.005144
0.0005845
0.0004677
0.0001738
0.002901
8.165e-07
0.0001024
0.0003645
2.675e-07
4.606e-07
0.006697
0.004324
0.0001739
0.0004272
1.969e-06
9.194e-12
0.0006947
8.304e-06
3.919e-07
0.001353
1.254e-05
0.006687
0.0003921
5.815e-08
0.006365
3.533e-06
0.0001593
0.002626
0.006664
0.003332
0.003706
3.928e-14
1.694e-05
8.242e-12
0.0008422
8.382e-06
6.817e-07
4.959e-08
1.308e-05
0.005603
1.388e-09
1.129e-05
0.005516
9.488e-06
1.584e-11
0.001847
3.228e-07
1.091e-05
6.379e-05
1.071e-08
5.182e-14
1.08e-07
0.0009762
0.006693
7.49e-06
8.434e-06
6.122e-05
3.931e-06
6.428e-07
2.31e-09
6.3e-05
6.174e-05
2.178e-09
0.0001639
5.457e-09
0.006687
0.0007956
4.606e-06
0.0008844
2.718e-05
0.0006047
0.006691
0.002414
1.044e-06
4.311e-05
6.206e-05
8.532e-08
7.838e-06
0.001709
0.0004442
2.45e-05
4.343e-05
1.5e-12
0.0004731
3.958e-08
2.144e-06
7.592e-06
0.001654
6.266e-07
2.424e-05
1.184e-06
1.351e-10
0.0005663
0.006686
0.006681
0.0009253
0.0006052
8.97e-05
0.006686
7.882e-06
0.000599
7.228e-05
9.54e-06
0.0005525
7.157e-06
2.687e-06
0.006705
7.173e-05
6.11e-05
1.701e-10
5.698e-09
0.0003222
1.228e-05
0.001088
1.6e-06
1.456e-07
2.349e-06
0.00278
4.581e-06
3.163e-07
0.0001089
1.511e-09
0.006487
9.917e-10
3.999e-08
0.002546
0.000138
3.345e-07
0.00494
4.811e-11
1.515e-12
0.00624
0.00669
0.0003503
0.0004408
5.756e-12
0.0001052
3.912e-07
7.793e-08
3.514e-06
7.625e-05
0.0001105
0.00254
2.327e-06
0.001643
1.125e-05
7.299e-05
4.308e-07
0.0002695
0.005256
2.786e-12
0.0001656
0.006691
1.335e-05
0.005608
0.006685
3.688e-06
8.007e-05
1.421e-10
0.006686
2.559e-08
0.006693
1.032e-06
9.324e-05
0.004555
1.793e-05
3.071e-08
6.484e-08
2.365e-06
1.394e-06
0.003832
0.0005012
0.0008828
1.679e-07
2.129e-05
5.276e-06
1.428e-10
2.056e-06
1.933e-11
0.000106
6.316e-08
7.929e-07
8.731e-08
1.047e-09
6.029e-06
0.004486
0.003537
8.574e-06
0.0002221
5.979e-09
0.003174
2.009e-07
0.001168
5.764e-07
6.181e-07
0.0002659
0.0001426
6.001e-07
0.002132
5.768e-07
8.239e-05
1.886e-08
4.743e-05
0.006506
3.18e-06
7.814e-06
0.004863
3.025e-05
4.85e-06
0.006671
5.289e-05
8.729e-05
0.0002878
6.099e-06
0.001256
0.0001948
0.0001086
0.006656
3.256e-05
2.011e-05
0.006694
8.365e-06
0.0001691
0.0006056
1.525e-05
1.382e-05
0.0004158
4.629e-06
2.128e-10
3.106e-08
1.025e-07
0.001186
2.191e-11
0.003046
2.553e-07
0.006691
0.0002705
6.283e-06
5.416e-05
6.138e-07
5.138e-06
3.411e-09
0.006698
8.396e-13
3.036e-07
6.942e-07
9.677e-07
2.793e-08
0.002044
0.004884
4.576e-09
6.514e-07
6.988e-05
5.871e-16
0.0004043
1.613e-07
1.225e-08
1.881e-07
1.397e-06
0.0002477
4.621e-08
4.809e-07
7.171e-05
0.0003108
5.965e-08
1.035e-07
0.002014
9.853e-12
9.771e-05
3.76e-07
0.0001234
2.598e-08
0.006641
0.006689
0.000689
1.017e-11
0.0006733
0.002624
3.579e-11
2.081e-06
0.006692
8.186e-10
4.03e-07
0.0003719
8.633e-11
2.961e-05
0.0001517
1.517e-15
0.003866
7.103e-09
0.001289
5.904e-07
5.167e-08
8.36e-08
9.539e-09
9.759e-06
1.457e-05
0.0001114
0.003436
2.049e-05
4.991e-05
2.046e-05
5.332e-07
0.002412
1.727e-08
0.001221
8.504e-05
0.001933
4.77e-06
3.66e-05
9.216e-06
9.826e-12
6.562e-05
5.841e-10
1.015e-07
7.858e-05
0.000143
0.006693
0.001728
0.0002362
3.855e-05
6.578e-08
1.278e-08
6.211e-09
0.006681
5.535e-08
3.266e-06
0.0003485
3.662e-12
0.0001245
0.003832
4.975e-06
0.002674
3.699e-06
9.089e-05
1.562e-10
6.442e-05
0.000674
0.000992
0.006696
2.37e-13
5.384e-12
0.0002874
7.184e-05
2.538e-05
0.006502
0.006645
3.38e-05
0.001244
0.003511
0.0001002
0.003412
0.003371
1.72e-06
0.000301
0.002782
1.204e-05
1.361e-07
2.319e-12
3.282e-05
5.907e-09
0.0001328
1.579e-05
0.006647
6.142e-08
0.001298
1.088e-06
1.143e-12
0.0004346
0.002485
6.844e-05
9.515e-07
0.000514
6.949e-13
0.002606
0.0002139
0.002147
0.002352
2.997e-05
1.363e-07
3.669e-13
8.297e-05
9.179e-06
0.006674
1.384e-07
1.183e-07
0.006662
9.256e-08
2.027e-06
0.0001399
5.169e-08
0.006681
2.413e-05
1.491e-14
0.004995
2.193e-07
2.449e-06
5.628e-07
1.211e-09
5.832e-05
3.148e-05
1.375e-05
1.923e-09
0.000116
3.218e-05
2.019e-05
6.595e-07
1.92e-08
3.907e-09
8.652e-07
0.0001256
0.00669
2.264e-05
0.003824
1.555e-08
1.173e-06
0.002448
0.0001127
0.006688
7.406e-05
1.79e-05
0.006588
0.002585
0.006109
8.993e-09
0.00259
1.763e-11
3.87e-05
0.0004865
6.755e-08
0.0003696
2.948e-07
6.221e-08
1.188e-14
0.0001145
3.198e-05
0.0005649
0.0005542
0.001359
0.006702
0.0003272
0.001379
0.001354
0.006699
0.002198
0.006684
3.672e-06
0.0001205
0.00667
0.006684
7.2e-05
0.000107
6.666e-07
7.702e-05
0.006669
1.099e-05
0.0003075
6.86e-05
9.087e-14
2.581e-08
1.998e-11
2.098e-07
1.555e-06
9.139e-08
1.94e-07
0.000535
0.0004086
5.592e-10
0.001111
3.396e-07
1.06e-05
0.0001771
0.0002921
0.003874
0.006686
1.084e-14
0.0001889
1.192e-09
0.006691
1.512e-12
3.174e-07
7.746e-08
0.000135
0.006635
0.006635
0.002719
0.001961
0.002333
0.00196
7.568e-07
5.779e-05
5.287e-06
0.003536
3.963e-05
3.742e-09
2.905e-06
0.0001129
0.0004636
2.931e-05
2.254e-06
1.295e-06
6.479e-07
8.373e-08
0.0008183
0.002789
0.0002443
0.000152
4.65e-11
0.0004959
0.0003038
1.033e-06
0.00288
3.019e-07
0.0004274
5.735e-07
0.004369
0.006692
0.0007614
4.343e-06
8.981e-13
1.057e-09
9.062e-05
0.0001258
3.759e-07
0.0001092
0.006617
2.327e-07
6.62e-06
7.807e-14
6.249e-05
1.388e-11
0.0001693
0.006685
3.857e-05
3.283e-06
0.001862
1.536e-05
0.001038
1.318e-05
9.411e-07
0.0001427
0.000835
1.44e-08
0.0001305
4.054e-07
4.206e-07
2.904e-08
0.003531
0.003528
7.646e-08
1.07e-05
2.714e-13
4.21e-06
1.653e-08
1.706e-08
1.106e-14
0.003269
1.774e-05
0.0004232
0.00402
0.006685
0.001134
0.006179
2.267e-12
0.006691
1.156e-09
4.187e-05
6.789e-06
6.89e-07
4.256e-08
0.002968
6.791e-10
0.0001158
6.028e-07
0.0006941
1.789e-09
0.006686
6.962e-05
1.812e-06
0.0008497
2.695e-07
4.572e-06
0.0004108
2.207e-07
1.217e-07
0.0001725
0.006661
1.402e-08
0.002982
0.006649
5.828e-05
8.823e-08
0.00666
1.857e-09
0.006694
0.0004263
0.0002408
0.001172
6.234e-07
0.006657
0.0006855
2.608e-06
0.0002331
3.745e-05
8.504e-06
3.858e-05
0.00669
0.00668
0.0003466
1.96e-13
5.204e-06
4.82e-07
0.0008694
2.234e-10
7.788e-05
4.973e-05
0.003275
2.012e-05
3.292e-05
5.139e-08
0.0006889
3.008e-07
0.001115
0.0002891
0.006703
4.59e-06
6.205e-07
0.0006858
7.995e-07
1.292e-08
3.029e-05
0.006675
0.0005212
2.635e-09
5.597e-06
2.156e-12
7.079e-09
0.003044
0.0003012
1.406e-05
2.712e-10
0.0004818
8.848e-08
9.419e-09
0.003181
7.19e-05
0.006686
7.647e-05
1.867e-07
0.0001901
0.006692
1.773e-05
0.006692
0.0001035
3.096e-05
0.006683
0.00331
6.183e-05
8.16e-06
0.001019
0.002951
1.034e-07
0.006696
6.478e-08
1.862e-09
4.661e-05
0.003971
2.097e-07
0.0009359
0.0002571
0.000497
1.417e-08
2.395e-06
0.0004086
2.45e-08
0.0001975
9.96e-05
3.419e-09
0.0001387
4.928e-05
1.471e-06
0.000207
1.178e-07
0.000513
1.107e-05
6.01e-07
0.0003499
0.00278
5.642e-07
0.003661
0.0001074
6.559e-05
1.931e-12
0.0001652
3.389e-11
0.0001162
0.006663
3.46e-11
2.972e-07
0.0001007
8.056e-08
0.0004018
0.0005713
0.006705
0.00188
1.738e-10
0.001142
7.67e-06
8.574e-07
2.667e-07
0.006695
7.932e-07
8.289e-06
1.114e-05
2.386e-08
0.0004396
5.481e-07
2.584e-09
0.006687
0.0002543
0.0003817
0.003116
0.0002537
3.915e-05
4.5e-05
6.131e-06
0.0001074
0.00136
0.003495
5.598e-05
0.0001209
0.006509
2.787e-05
3.101e-08
2.865e-11
0.006686
1.179e-05
1.143e-10
0.002948
1.135e-06
0.002091
2.847e-07
2.911e-11
0.003346
0.002928
0.0002543
0.0009678
3.777e-07
5.708e-06
0.001032
9.718e-10
3.859e-05
0.0004454
3.594e-05
4.951e-15
1.478e-14
0.0002894
0.0002175
3.848e-05
8.883e-05
0.001249
8.755e-06
0.0009955
4.531e-07
4.652e-05
8.303e-05
4.288e-07
3.441e-10
0.0004844
0.0001002
0.00669
3.169e-07
9.279e-05
0.0002585
1.853e-05
8.553e-05
2.974e-07
0.0002874
0.004009
0.006662
4.315e-08
7.32e-09
0.0005486
3.054e-05
0.000898
1.396e-12
9.83e-08
0.000205
2.188e-05
1.836e-08
0.0005702
3.896e-07
5.321e-13
0.006608
4.626e-10
2.804e-07
2.615e-07
0.005062
0.0007375
0.001762
2.129e-08
1.046e-05
0.00188
7.401e-09
0.004842
5.912e-06
1.721e-07
0.0001348
0.002213
0.006492
6.393e-08
4.962e-09
3.568e-07
9.694e-09
7.124e-10
0.0007796
1.972e-11
0.002971
4.577e-07
1.964e-05
0.002824
0.0001283
0.004502
2.048e-06
0.001199
4.427e-07
0.003422
5.337e-07
5.785e-14
2.129e-11
0.0001666
0.0005805
3.481e-05
1.338e-05
0.002112
0.0002321
0.0001693
8.133e-05
0.006697
6.313e-07
3.944e-07
1.423e-07
7.639e-05
1.061e-05
2.207e-07
0.0007897
1.209e-07
2.162e-11
1.001e-09
0.0001126
4.795e-07
9.821e-14
0.001913
2.886e-07
0.004489
6.95e-06
1.047e-05
3.94e-16
9.867e-06
7.011e-06
0.003789
0.0001747
6.022e-08
0.0001237
0.006691
0.006697
0.001223
7.624e-09
0.001781
4.135e-07
1.151e-11
1.651e-06
0.00109
1.084e-08
0.002681
0.000117
9.254e-10
0.0001101
0.004927
0.0004439
8.839e-05
0.0001091
7.193e-05
0.006695
4.416e-06
0.003479
8.833e-09
0.004043
1.479e-07
9.947e-09
5.93e-05
1.067e-08
0.0007023
4.827e-07
3.679e-07
5.033e-07
2.23e-05
0.001604
0.0001746
0.0004045
2.615e-06
0.0001074
1.239e-08
2.236e-06
0.006695
0.0001059
0.004513
1.592e-08
8.795e-07
0.00281
0.001701
9.651e-05
3.308e-08
0.003691
9.119e-05
0.0009398
0.0003109
0.002399
0.0009024
0.0002865
2.485e-11
0.000117
0.0003698
5.136e-07
0.006671
0.001198
7.489e-05
0.0001315
0.00172
0.006687
0.0001015
2.3e-07
9.003e-07
0.006691
0.001066
0.002645
4.328e-06
6.993e-06
0.001333
0.0005051
0.000419
1.542e-08
5.682e-08
0.002522
1.171e-06
0.0005046
9.982e-05
4.574e-07
2.99e-12
0.002483
1.159e-08
8.713e-08
0.002119
2.133e-12
0.006691
0.00666
1.37e-05
4.9e-05
1.256e-14
0.006692
0.002032
5.578e-07
4.087e-13
2.6e-06
2.861e-08
0.006321
0.006381
8.404e-08
9.454e-05
0.0004618
2.322e-06
5.817e-05
0.00174
9.967e-05
0.006705
1.216e-08
2.606e-07
5.939e-07
0.0006757
7.918e-10
0.001987
2.465e-05
0.006656
9.226e-06
2.42e-07
1.277e-08
5.532e-08
0.0001105
5.325e-10
1.094e-05
0.0002526
4.805e-07
8.348e-06
8.752e-05
0.0001129
1.906e-06
7.905e-09
0.004976
0.005137
5.103e-06
6.553e-05
1.256e-10
9.715e-06
5.368e-08
4.776e-05
0.002984
0.00669
7.989e-06
0.006702
0.0004179
8.452e-12
2.578e-06
9.501e-05
1.086e-06
0.0001273
3.561e-10
3.125e-07
0.00336
7.012e-06
9.776e-06
4.86e-07
0.0008806
1.632e-06
7.09e-05
0.0001715
0.0003657
0.0002388
5.155e-06
0.001475
6.579e-09
4.006e-07
0.0001801
0.0001499
2.675e-09
0.0001596
9.949e-06
1.284e-06
1.1e-06
8.018e-06
5.121e-06
1.866e-11
0.0001175
9.59e-05
0.001623
0.001551
0.006703
2.968e-07
0.002935
1.997e-11
1.53e-05
4.225e-05
9.03e-08
3.009e-13
7.967e-09
0.0004387
8.018e-07
2.119e-08
2.902e-09
0.002806
0.0008232
2.056e-06
4.416e-12
5.755e-05
0.0002108
7.161e-05
7.809e-05
0.006691
0.0008951
6.056e-09
2.598e-05
4.408e-06
0.002401
0.0001008
2.403e-08
0.006641
0.0006083
0.0001129
0.001687
1.533e-08
7.494e-05
4.591e-05
0.003314
6.121e-05
3.058e-07
2.985e-06
2.093e-11
7.135e-07
2.385e-06
0.006674
0.0002975
1.692e-05
2.824e-08
3.938e-08
1.78e-06
0.003516
0.0001866
0.006321
1.005e-07
5.349e-08
8.892e-06
6.733e-06
0.0005378
5.697e-08
2.27e-08
1.013e-07
3.686e-06
6.701e-05
1.488e-06
1.339e-08
0.004517
0.0001233
1.511e-11
0.003134
0.0006496
0.005479
0.006698
5.924e-06
0.002979
1.292e-06
1.333e-06
0.0007775
0.0008855
2.371e-08
6.957e-08
5.422e-05
1.558e-07
5.652e-05
0.00181
1.04e-12
0.0003771
8.385e-05
0.003479
6.377e-12
0.001513
2.951e-09
6.537e-11
0.00379
3.784e-07
2.77e-08
3.415e-05
0.00113
8.613e-08
1.028e-06
1.168e-07
0.0005672
0.0003294
0.0002069
0.004305
0.0067
4.846e-05
0.001177
2.728e-05
2.12e-06
0.0003599
1.315e-11
0.001111
0.005484
1.08e-05
0.0002513
0.002477
1.178e-06
0.0002791
1.105e-06
2.839e-08
6.136e-09
3.471e-11
1.209e-05
1.913e-07
8.043e-06
9.492e-05
1.801e-05
2.241e-05
4.008e-12
1.774e-05
5.917e-07
9.133e-06
0.006677
1.387e-05
7.649e-06
0.00125
3.656e-05
2.911e-11
6.874e-07
1.154e-06
0.000843
0.0002578
1.2e-08
0.006691
1.687e-07
0.002293
0.0001425
3.925e-06
4.398e-08
0.006696
2.521e-05
0.001143
1.153e-05
3.169e-10
2.01e-05
9.976e-05
6.22e-14
0.0002971
2.129e-07
0.006651
0.006632
2.229e-07
0.0004386
2.452e-05
6.402e-07
4.855e-07
0.006685
4.044e-08
1.154e-08
0.0004072
0.005787
0.004547
0.0003918
0.0002828
2.138e-07
9.404e-15
3.617e-08
0.00525
4.716e-08
1.346e-10
8.885e-05
3.508e-08
1.281e-07
0.003085
0.000103
1.027e-07
0.002277
0.0006209
0.00663
0.006585
0.006611
0.006285
0.0001255
0.001013
5.101e-06
5.981e-08
1.726e-05
4.637e-05
0.000452
1.541e-07
0.006162
0.0001092
0.000297
6.496e-07
1.573e-06
2.41e-07
0.0001671
8.274e-07
1.133e-07
0.0005244
3.639e-07
0.0001871
5.407e-07
1.18e-13
2.38e-07
4.134e-10
4.406e-06
1.121e-06
0.00669
5.513e-12
0.0001049
9.656e-08
1.785e-05
0.0001335
5.443e-12
0.006693
0.0002023
3.196e-06
0.004187
6.386e-05
8.323e-05
0.001031
0.0001871
1.331e-08
8.872e-05
9.757e-07
0.006626
8.629e-06
1.205e-05
1.287e-05
0.001114
2.702e-06
0.006678
0.005699
7.996e-05
2.358e-05
3.8e-07
9.704e-05
0.0008492
0.0001168
5.178e-05
1.345e-08
1.094e-07
0.00247
0.002608
0.001024
0.0001439
0.0001087
6.392e-13
4.243e-06
0.006689
1.47e-10
0.006691
0.006685
0.000113
0.00297
2.29e-09
0.0009925
1.109e-08
0.0004846
8.536e-08
0.006695
9.723e-05
3.687e-05
2.098e-07
0.001986
0.00374
6.555e-05
1.301e-10
2.388e-08
0.006702
6.199e-10
2.22e-08
2.786e-14
0.003308
0.002766
0.001468
9.515e-05
0.0006976
0.003064
2.796e-06
1.115e-10
1.086e-05
3.418e-08
1.57e-13
0.00669
7.433e-08
2.602e-07
5.089e-07
0.006693
2.135e-08
1.33e-11
2.517e-13
1.707e-12
0.0001147
0.0003209
1.942e-12
0.000254
7.526e-05
0.006686
0.0009073
1.672e-07
0.003515
4.612e-06
1.687e-12
0.0001107
0.0002816
2.024e-06
0.006706
0.003184
8.298e-08
5.191e-07
0.003944
5.179e-08
8.908e-05
0.0001339
0.001629
0.0005156
3.203e-05
0.0001603
0.006691
0.0004031
0.0003745
2.039e-07
3.556e-06
8.646e-07
8.673e-08
1.273e-06
1.211e-11
2.92e-12
5.527e-16
6.187e-08
0.0001522
2.669e-08
0.0003418
1.49e-08
1.052e-08
0.00669
1.526e-13
0.006705
1.863e-05
9.528e-10
3.302e-09
0.0001765
1.528e-06
6.832e-06
4.287e-07
0.006628
9.131e-14
4.649e-05
0.003266
0.001753
0.0001673
4.215e-12
2.677e-11
4.502e-12
0.001623
6.351e-08
5.894e-08
0.0009742
2.703e-05
6.228e-07
6.229e-10
0.006667
0.0001862
8.934e-07
0.0001336
1.123e-06
0.0006826
0.003457
4.768e-10
3.897e-07
3.962e-07
3.659e-11
0.002498
1.394e-09
4.329e-05
1.292e-06
2.012e-05
0.004998
0.0001156
1.618e-06
1.696e-06
1.083e-05
1.366e-11
0.003281
0.004283
2.667e-05
1.707e-07
2.816e-09
0.0005276
0.0035
0.006436
0.0003012
8.181e-09
0.006364
5.122e-06
9.203e-08
9.095e-05
4.75e-05
0.0005149
4.167e-11
8.647e-12
1.515e-12
8.98e-05
5.08e-08
0.0001137
5.814e-05
0.002803
0.002505
3.929e-10
0.001386
1.227e-08
1.523e-07
1.493e-08
3.386e-07
5.028e-05
7.943e-12
0.001116
7.314e-07
0.0005297
0.003513
1.131e-06
0.0002586
0.002427
3.471e-06
6.369e-07
0.0001329
1.216e-06
1.471e-06
6.965e-12
1.128e-13
0.002823
6.077e-13
0.002817
0.0001553
0.0001187
0.0001774
4.715e-06
0.006704
3.064e-07
1.07e-11
4.134e-06
9.251e-09
0.001846
0.0006408
4.415e-07
9.929e-05
0.001484
7.463e-06
0.001811
3.018e-10
4.49e-05
0.005399
0.0001085
7.219e-07
0.0067
0.0004264
5.471e-09
0.006694
3.25e-05
2.401e-05
1.598e-07
1.892e-05
1.301e-09
0.002957
0.001833
5.853e-05
3.172e-08
9.507e-08
4.256e-08
1.005e-06
0.006683
1.185e-07
0.006686
7.972e-05
2.735e-05
0.001413
2.003e-12
2.953e-05
3.586e-08
0.00294
6.869e-09
2.551e-05
0.002858
0.0006322
4.892e-06
0.006669
2.961e-05
0.006694
2.852e-08
1.437e-07
2.462e-06
0.0001312
0.006599
1.434e-06
1.089e-07
9.619e-05
1.281e-08
4.763e-05
7.101e-07
0.0006777
0.0007893
4.254e-05
6.178e-05
8.306e-06
2.685e-06
0.0001109
1.967e-05
0.0001028
4.046e-06
8.312e-05
0.006625
0.006659
0.002157
0.000305
5.809e-06
1.225e-06
2.566e-06
0.002688
2.122e-07
8.295e-06
3.71e-07
0.006697
1.009e-06
5.927e-05
4.806e-09
0.003202
1.788e-13
0.0003547
3.249e-09
0.003826
0.0001109
2.271e-11
0.0003047
4.056e-07
2.985e-07
1.911e-07
1.145e-05
0.0001245
0.006693
2.385e-07
8.223e-06
0.0002838
0.0001452
0.000341
1.479e-05
0.0004518
9.271e-07
4.843e-08
0.006684
0.000886
1.562e-06
5.714e-10
7.568e-06
0.006701
4.157e-06
1.457e-07
0.0006414
0.0006968
6.967e-06
6.379e-08
0.0001927
2.429e-06
3.116e-05
0.002546
0.0001449
0.0004211
0.005419
5.561e-06
1.856e-12
0.0004528
0.0001609
7.966e-09
1.511e-05
2.041e-05
0.006689
0.0002989
8.619e-05
0.003804
4.031e-11
4.661e-05
0.006697
0.001188
6.616e-07
2.878e-14
0.006697
0.000691
7.435e-09
3.828e-07
3.127e-05
5.265e-05
5.34e-08
7.494e-05
3.533e-06
3.03e-08
1.108e-10
1.059e-07
0.00232
0.000168
0.0006155
6.341e-05
0.006683
6.307e-05
2.337e-05
0.0009617
7.529e-06
1.449e-12
1.231e-09
0.00373
1.299e-06
8.817e-11
0.002644
7.93e-08
0.0007061
4.13e-05
9.374e-05
5.605e-09
1.326e-11
0.006687
1.664e-05
5.716e-07
0.006697
8.894e-09
0.0009409
1.16e-05
0.0001347
0.0004656
3.204e-08
1.222e-05
3.311e-06
0.0067
0.003511
0.004155
0.0001548
0.006668
6.621e-05
0.0003984
1.033e-08
0.003131
0.0009528
1.011e-07
4.536e-09
0.003277
0.0002476
0.006673
1.628e-11
1.662e-05
4.154e-08
6.206e-08
0.0001109
1.114e-07
2.125e-05
2.639e-05
2.325e-12
0.003855
3.021e-11
0.006669
0.006683
0.0003911
6.415e-05
0.006683
8.849e-13
3.046e-07
1.397e-07
3.798e-08
2.582e-05
0.0002935
0.005017
7.246e-13
0.0004684
8.57e-07
0.006659
2.877e-05
0.0001642
0.0003378
0.0002054
0.0004893
0.003273
5.236e-06
0.006655
0.0002247
1.245e-07
2.742e-08
4.746e-09
9.199e-05
0.000706
6.053e-06
0.006699
9.622e-06
8.891e-06
0.0005881
0.0002075
0.0003529
2.599e-11
0.006019
0.006678
3.728e-06
4.745e-07
0.002538
1.912e-08
0.006701
1.091e-07
5.63e-05
5.28e-07
0.006701
7.235e-05
1.692e-08
2.388e-07
9.083e-08
0.0005688
2.751e-06
0.006671
4.738e-08
0.00479
9.702e-07
1.149e-12
0.0007719
0.0001485
0.001664
2.056e-07
1.064e-09
5.486e-06
9.1e-05
0.006656
0.0001814
8.874e-05
0.006687
1.044e-05
1.463e-06
0.002466
0.006678
0.0001151
0.0001043
0.0001981
1.785e-07
0.0001317
0.006691
4.067e-07
8.451e-07
5.594e-06
0.000506
0.006696
0.006687
0.0003269
0.0004503
0.002555
4.771e-08
1.881e-12
2.009e-11
9.218e-07
6.571e-11
1.224e-09
0.002028
4.077e-12
0.0001178
9.258e-08
0.003312
7.079e-05
4.464e-05
8.55e-08
1.396e-06
4.085e-09
4.811e-06
0.0002395
0.0004321
1.769e-07
6.371e-07
1.657e-05
9.782e-05
7.686e-05
6.383e-05
1.405e-07
0.004341
0.0003482
8.435e-06
1.073e-05
1.433e-05
3.167e-06
1.753e-12
5.698e-09
0.006661
5.867e-10
0.0003149
0.006648
2.99e-06
0.006694
2.403e-07
0.0001397
0.002988
1.268e-05
4.577e-07
0.006707
3.827e-05
0.003505
1.142e-10
0.0009469
1.754e-05
4.115e-11
2.738e-05
0.006687
2.613e-09
0.0005166
0.0003878
1.803e-05
0.002941
3.236e-07
2.08e-12
5.029e-08
0.0001055
0.001992
2.429e-05
5.515e-06
0.006687
0.0001814
1.57e-07
5.739e-07
9.433e-05
0.006701
1.018e-11
2.529e-07
1.941e-06
0.0001685
0.0002977
0.0002019
0.006653
0.0001462
2.988e-06
2.863e-05
5.163e-05
4.085e-07
3.459e-08
0.003093
8.71e-06
8.98e-06
0.002178
5.488e-05
0.002969
2.103e-06
2.109e-05
7.506e-06
0.0067
3.169e-07
0.002904
0.0004244
2.293e-05
4.208e-05
1.066e-07
0.0001286
1.204e-14
0.001721
4.205e-05
0.00243
0.006675
2.055e-05
3.023e-06
1.963e-09
7.651e-08
3.509e-05
7.231e-08
8.65e-09
0.0004785
2.409e-05
0.0001093
7.729e-08
2.557e-10
0.0003288
0.0001456
5.543e-09
5.448e-05
1.059e-08
7.017e-06
0.001924
0.001099
1.999e-07
0.006693
0.0001012
6.701e-05
0.006689
0.0005797
5.381e-09
0.00287
9.676e-14
4.115e-08
7.804e-06
0.006688
0.0004828
3.356e-05
0.00369
0.0005302
0.0003513
9.741e-07
1.449e-05
9.009e-08
0.006695
0.0001299
0.006676
4.219e-05
1.585e-05
1.106e-06
2.534e-05
7.808e-08
7.497e-14
0.006612
0.006692
1.872e-06
7.131e-07
9.063e-09
0.0001263
7.513e-05
2.97e-08
0.001514
0.00176
0.003046
1.182e-06
5.288e-09
3.72e-05
0.0005323
0.006686
9.759e-07
6.438e-05
0.0002804
7.99e-08
6.629e-05
0.002239
7.964e-08
3.852e-05
0.0004318
3.388e-06
8.908e-05
0.0002878
0.006682
0.006545
7.275e-08
5.963e-08
3.766e-06
0.004113
0.0001168
0.003449
3.168e-07
4.729e-06
0.006602
9.62e-06
3.432e-05
3.223e-13
5.364e-09
1.752e-07
0.00668
5.607e-08
4.819e-07
1.081e-06
1.152e-06
1.151e-11
2.679e-05
0.0004791
5.104e-07
8.657e-07
3.545e-08
1.398e-09
0.003282
0.003213
0.004393
9.615e-05
8.593e-14
0.0008895
0.002147
6.619e-08
2.19e-06
0.001768
3.929e-07
0.0002413
1.191e-09
0.001389
6.371e-07
0.0006624
2.766e-05
2.298e-05
3.336e-13
0.0006403
2.178e-11
1.779e-11
0.00669
1.889e-11
1.927e-06
9.458e-09
6.78e-08
0.0004334
0.001683
4.829e-05
6.833e-07
7.793e-06
5.381e-05
0.001087
0.001062
0.0003806
0.001014
0.0001406
1.733e-05
8.888e-05
0.002508
1.779e-11
0.0002757
1.896e-08
5.936e-07
5.321e-08
0.006648
2.019e-06
0.0001227
2.567e-08
0.0014
2.046e-11
1.248e-05
1.693e-07
9.16e-05
5.948e-08
8.343e-05
0.0007372
0.0003532
0.0001587
0.0001051
0.0005777
3.667e-06
0.000236
2.178e-05
5.463e-06
2.561e-07
0.0004633
1.974e-11
4.499e-06
1.589e-11
4.201e-05
0.001097
6.257e-05
0.002559
0.0001521
4.904e-07
0.00669
0.003367
0.00669
0.0003007
3.823e-07
2.382e-05
0.003831
9.187e-06
0.0005377
5.811e-05
1.973e-12
2.895e-09
2.08e-11
2.203e-07
0.0001144
3.024e-08
5.249e-08
0.0001169
2.441e-07
0.006695
0.000567
0.00361
7.832e-06
0.001831
0.006679
0.006675
7.339e-05
0.002578
0.0001526
1.217e-12
3.318e-07
0.006672
0.006692
9.598e-07
0.000258
4.935e-08
1.242e-10
0.00503
4.123e-05
6.146e-06
1.748e-07
9.493e-06
1.758e-12
1.015e-05
9.436e-05
1.545e-06
1.421e-07
3.848e-05
1.132e-05
4.845e-06
1.502e-05
3.118e-08
6.743e-05
7.094e-14
0.005651
1.041e-06
4.927e-07
2.498e-08
0.006695
0.0004318
0.006691
0.0017
0.001015
3.134e-06
0.0004621
2.077e-07
1.364e-06
0.000108
1.068e-08
6.159e-08
1.18e-06
1.964e-08
2.983e-08
0.0001782
0.0001278