/*--------------------------------*- C++ -*----------------------------------*\
  =========                 |
  \\      /  F ield         | OpenFOAM: The Open Source CFD Toolbox
   \\    /   O peration     | Website:  https://openfoam.org
    \\  /    A nd           | Version:  8
     \\/     M anipulation  |
\*---------------------------------------------------------------------------*/
FoamFile
{
    version     2.0;
    format      ascii;
    class       volScalarField;
    location    "60";
    object      omega;
}
// * * * * * * * * * * * * * * * * * * * * * * * * * * * * * * * * * * * * * //

dimensions      [0 0 -1 0 0 0 0];

internalField   nonuniform List<scalar> 
127143
(
3.821e+07
7.184e+07
8.194e+07
3.494e+07
2.933e+06
3.537e+07
1.159e+06
2.025e+06
3.234e+06
4.719e+05
1.704e+06
2.662e+06
9.642e+07
2.958e+07
480.9
7.929e+04
9.896e+06
11.9
9.341
3.263e+04
18.56
7.133e+04
0.0783
258.2
7.683e+04
1590
5883
5728
5177
11.7
408.2
1749
7322
918.7
0.04052
6653
43.92
55.37
198.4
2137
9.376
0.3033
0.2279
1.373e+07
11.87
816.7
4650
16.31
261.5
223.8
5.055e+04
0.02518
36.3
0.1332
0.02092
554
0.0209
0.3031
0.02208
0.1324
0.2402
8.959
70
0.02211
330.4
0.3303
0.04182
85.16
84.59
0.08436
299.5
3985
14.34
0.02208
0.02179
4058
0.02258
29.2
545.5
0.02222
4805
2.911e+04
295.3
1339
16.68
24.5
153.2
4513
0.2805
510.6
0.02216
30.45
220.1
18.43
44.81
0.2514
0.279
547
17.75
0.04142
0.02221
247.2
2471
4.588
23.19
18.38
89.12
0.08471
0.999
0.02132
382.2
5148
25.81
3.3
0.02173
1.476
0.02278
0.02179
0.0225
2.882e+05
0.02134
282.7
44.9
0.1462
4734
2736
10.7
0.02312
42.62
617.5
42.38
49.79
36.46
28.47
1.119e+06
40.42
0.051
16.14
3616
0.04243
0.1086
0.02217
29.78
18.71
36.79
24.68
1.736e+04
0.02213
53.21
3395
9.574
236.7
70.12
0.0639
44.4
16.35
0.3034
782.9
15.97
662.3
287.5
9.342e+04
0.02218
42.08
1375
249.3
56.46
0.3868
1051
0.0255
813.8
18.53
2.368
20.46
0.2779
40.6
13.48
42.35
224.6
0.03273
20.39
0.03413
40.07
39.93
610
8.868
0.07167
3.137
238.1
0.03183
33.15
43.97
0.04676
47.43
2.051e+06
11.51
0.01938
0.01933
2.223e+05
0.02176
0.02168
0.02567
5.101
38.71
1.109e+07
124.2
0.04712
18.76
12.05
0.02174
3.885
19.57
0.02163
1071
72.28
2.288e+05
2633
20.08
32.61
0.04737
8.477
0.02184
238.6
42.68
789
911.8
965
59.17
297.9
13.09
19.57
0.03389
13.71
1.971e+05
19.38
0.082
42.05
4.482e+06
0.02168
29.48
42.56
185.4
24.57
765.4
90.45
2.284e+05
153.1
5713
1.703e+05
0.1022
1.365
1167
26.68
17.29
375.5
1.082
0.02309
1211
5.317
0.04798
12.2
0.02702
24.64
0.02213
83.92
226.6
155.6
112.5
0.4493
51.18
887.4
0.2747
13.4
29.54
40
32.63
25.37
192.7
0.5306
2.97
0.07614
0.5062
4.506
0.02175
0.02173
1.891e+06
45.67
0.02173
208.1
0.03438
71.03
0.1819
0.08158
3.728
0.02166
2.205
356.5
120.7
24.58
44.49
518
0.3013
0.2312
1.218
913.1
20.4
18.62
0.02164
11.23
19.41
99.19
745.8
628.3
0.05977
0.02172
282.1
46.47
530.5
0.5334
2.47
0.07389
328.1
0.02777
26.77
301.8
54.04
0.03036
116.1
340.7
7.919
10.45
0.02173
0.04022
0.0194
0.01935
0.06271
0.9882
2.36
10.47
52.19
0.04192
20.08
37.77
32.33
3.884
208.7
138.4
31.69
482.6
53.84
425.3
8.561
42.38
32.55
0.02719
117.9
17.33
18.19
0.0235
344
11.59
57.34
15.44
215.1
217.6
0.02192
0.02175
1.446
318.7
0.5218
0.7034
0.02791
776.4
233.7
0.03015
0.06221
320.3
1.546e+05
16.01
0.5652
19.95
2009
386.4
0.299
0.0227
1.272e+04
0.03398
1853
11.8
27.56
0.02178
0.1598
460.3
372.7
237.5
395.7
0.1623
346.5
0.02713
0.02665
1293
0.02184
18.62
38.33
0.03476
15.23
20.81
33.95
0.02222
203.9
11.72
516
0.1093
14.42
30.02
43.2
22.61
990.5
103.3
232.9
53.4
4709
89.54
0.07707
13.41
0.05356
0.2023
0.07518
153.2
0.05435
0.02115
90.57
47.95
20.15
221.4
0.02192
20.33
116.2
0.02486
0.02166
0.02172
199
0.05182
1.294
0.02358
522.5
0.02171
188.5
1.546
19.64
18
341.4
12.9
390
0.03453
34
584.1
122.5
28.78
96.66
29.6
50.05
16.02
1.227
47.17
0.206
0.0219
21.63
180.8
0.02078
14.68
16.66
0.1468
48.87
0.04217
0.02027
36.49
11.83
392.6
49.71
5483
157.4
99.27
632.5
5.547
218.6
55.8
0.02162
530.3
0.0222
133.8
138.4
36.07
28.39
3.46e+06
49.15
1.318
0.1007
1.567
0.02165
5448
0.02192
31.52
11.33
5.043e+06
2.529e+05
8.19e+05
0.02194
115.2
358.1
0.02172
10.41
70.93
44.85
5.499
18.51
345
14.57
3223
0.1738
23.59
1.664e+05
306.5
495.7
653.3
0.02197
8.73
3.757
16.79
0.0221
632.9
3400
455.7
0.01964
21.63
0.08645
1548
8.288
1711
13.79
0.0223
171.1
6.011
0.02081
0.3003
101.6
314.9
213.1
198.9
452.5
11.63
118.1
166.3
43.49
85.38
0.02186
1489
35.12
568.7
44.69
21.29
0.02212
0.02207
0.04625
146
2.386
0.02171
0.02938
2.714
576.7
21.29
5.598
755.6
3017
1.546
0.02225
0.02134
459.2
17.1
59.96
0.03163
3828
31.46
66.75
0.5557
846.8
0.02171
19.54
34.56
21.46
0.0276
185.4
12.2
2.037e+04
0.02026
83.09
2530
0.02171
15.2
0.02173
151.8
49.57
0.02175
228.1
311.5
418.6
41.2
34.01
421.1
384.3
15.64
181.1
151.8
206.7
48.74
53.87
671
0.0267
518.9
0.02173
2.832
0.02333
30.84
0.02116
0.02173
0.4265
230
23.55
0.02135
0.02114
257.8
2038
210.7
475.9
11.61
1.236
17.82
13.36
32.08
127.4
398.7
0.02137
81.36
30.36
0.3899
52.69
0.0223
0.02933
58.8
2780
55.6
1.094e+04
0.02327
0.03846
53.8
82.5
0.02544
279.9
0.1085
0.07664
211.6
5.28
30.27
0.08414
8.656e+06
779.5
27.92
34.32
44.78
60.63
715
116.9
0.02425
38.15
123.2
18.28
0.02121
183.7
0.2405
0.1481
0.01963
0.02119
1.122e+04
0.1013
395
49.26
93.73
11.26
0.42
636.5
0.07277
364.1
0.02162
0.02089
1.804
0.05508
255.9
0.1497
1326
10.44
396.6
1.674
16.05
0.03729
517.6
0.0424
385.3
1.213e+06
36.19
93.22
15.34
0.02913
60.6
211.8
8810
10.03
15.57
31.95
2873
23
312
8.69
296.8
76.93
19.3
10.55
0.2101
1.868e+07
0.2386
0.02532
111.2
64.67
136
0.02154
57.46
8.591
21
0.0413
1.159e+04
81.85
865.5
0.04724
132.7
48.23
105.8
44.94
0.03951
16
569.6
240.9
17.85
0.02177
38.37
50.11
0.02178
19.58
0.5843
57.03
48.62
0.2655
36.42
1508
128.8
0.01935
16.14
9.04
1498
497.2
0.1486
10.27
399.3
0.01938
42.63
209.9
45.59
1.371e+05
46.87
426.9
24.05
22.88
2.014
0.02193
1.397e+07
40.19
38.49
1008
22.88
139.2
71.27
256.9
0.02132
8.982
4.673
0.03941
89.87
132
91.33
45.59
0.02048
17.17
44.05
0.02162
0.02042
53.4
9.012
11.56
130.1
19.35
4.926e+04
7.694
0.1361
0.02123
24.57
49.51
371.3
726.4
0.3491
0.05584
0.02189
1.871
4534
0.02125
1.022
1809
60.68
1541
0.02734
24.92
65.41
0.0218
471.6
0.0212
97.01
4621
72.95
119.1
3368
0.02195
219.9
0.09252
611.9
233.3
757.1
4083
0.1475
0.4172
0.7081
2e+04
0.02178
51.77
526.3
818.6
129.8
5055
0.05361
2.53
470.8
2161
1.112e+04
425
3.474e+05
553.8
6.393e+04
49.73
811.8
9.028
8869
0.02254
116
0.02734
0.02685
25.67
0.02501
39.17
16.36
2.755
1.033
0.03739
418.5
119.8
0.02178
10.46
39.8
0.03603
273.5
3.784e+04
39.46
15.95
402.9
20.18
194.3
0.02168
36.75
385.9
0.02328
207.3
35.09
8.844
0.02069
2.454
14.08
1.131e+05
2.583
3.826e+04
14.52
20.98
91.79
3788
113.7
0.02386
3212
0.202
0.02433
1.666
1.213e+05
23.73
214.4
9.702
2.506
7382
5.832e+04
258.2
0.02222
0.02183
16.97
3.634
66.55
200.7
9.907
2063
180.5
0.05929
2021
0.0445
1896
0.0216
16.82
748.9
19.66
86.05
17.13
0.02177
0.02179
704.5
0.1328
106.7
256.9
272.4
12.73
72.98
107.4
75.68
1.54e+04
32.11
455.6
244.4
14
11.46
48.07
124.2
1536
4.456e+04
17.71
0.02154
0.02138
14.13
24.62
0.4996
0.02078
15.83
17.97
0.4927
213
68
158.6
0.9601
0.02223
0.2161
0.537
4657
918.3
50.34
0.2046
47.69
294.6
246
27.49
9.561
36.53
146
56.73
2432
0.02288
4636
4524
8.947
39.17
456.9
0.02173
1.148e+04
1.758e+04
0.02208
0.02154
35.14
21.69
1.624e+05
137.9
111.6
420.2
231.6
0.245
0.3217
0.02271
275.1
22.01
143
2.181
1931
30.36
0.03004
1.153e+04
70.51
0.02172
93.28
0.02602
0.02164
23.88
0.0841
1.199e+04
0.02157
469.8
0.02181
167.7
0.07268
10.42
7.205
463.7
319.2
251.1
41.32
0.05472
0.03734
20.25
205.6
145.3
184
3892
271.8
1.759e+04
44.39
392
187.9
302
1559
0.09948
9.062
0.05484
147.6
80.12
828.5
0.06692
415.5
12.98
89.92
113.5
34.23
0.7678
429.1
11.24
89.96
119.2
647.7
244.8
0.02116
22.33
154.5
0.02181
83.82
245.3
0.02065
1.474
142.9
0.03483
0.103
24.96
98.45
0.1335
0.01975
79.04
99.2
0.0216
0.07942
0.0287
17.77
110.5
9.98
0.03411
719.2
3.484e+04
505.1
262.2
12.15
8861
0.07938
159.6
0.02176
26.31
5.584
63.71
113.4
873.4
2477
0.02196
1.665e+05
561.4
396.5
54.93
1110
10.62
10.08
1039
75.23
0.03136
3.354e+05
32.42
258.2
717.7
188.5
112.5
81.28
1980
99.36
57.81
118.9
343.7
279.7
21.11
3.092e+04
0.09537
129.5
0.08431
482.5
0.01969
0.02165
52.14
1.13e+04
17.84
1.803
1.314e+04
442.4
0.02179
1729
110.8
92.81
3.859e+04
1.53
54.99
3.373e+06
10.6
3040
11.7
82.96
1381
287
671.8
6.02
107.8
0.07536
15.53
51.15
64.98
7.761
108.4
10.82
7546
14.94
0.1998
14.2
0.289
0.34
13.39
2.944e+04
0.03433
2650
821.3
71.87
39.54
0.0218
10.26
35.67
0.6093
1371
718.5
890.9
0.02135
368.4
773.3
24.68
1.122e+04
96.42
8.752
335.7
0.02185
419.1
56.23
3531
58.59
0.06653
14.88
0.02171
4.124e+04
1.304e+04
32.07
0.4142
6.421
0.02086
0.01976
216.2
25.18
8.586
0.06258
0.05197
0.0527
1.629
25.03
11.29
84.76
238.3
1.338e+04
0.5698
775.2
70.61
116.8
0.0198
399.3
11.7
74.57
1.659e+04
103.2
9.631
56.9
56.99
21.81
5.176e+04
19.77
30.53
11.01
10.15
4.548
228
4.295e+04
0.1024
581.8
0.02118
253.6
841.9
0.0203
1248
39.46
45.08
367.9
0.02137
0.5739
1.105e+05
0.02173
214.1
244.5
92.81
5083
0.483
4.485
359.8
1468
43.13
77
0.04644
99.49
3126
6023
446
39.76
0.02169
129.1
8.689
616.2
83.53
9.067
42.58
0.02165
2.156
117.3
0.02214
10.36
0.02289
2728
10.96
9470
94.26
42.8
559.5
23.95
174.7
406.3
8.516e+04
42.16
80.71
39.64
20.09
13.17
0.02211
49.71
0.02199
11.49
0.022
14.46
0.02147
197.6
65.72
0.02065
0.02161
178.7
0.1709
385.1
0.08192
0.02
4.945
25.22
0.03013
8.691e+05
1383
9.036e+04
178.8
38.46
273.4
185.3
45.77
11.33
2261
25.03
643.9
177.5
36.5
58.44
8.54
0.02155
8.447e+04
32.42
2351
0.02178
1.513e+04
201.3
286.2
76.27
0.01973
0.01971
15.92
22.26
5.875
9.708
67.06
0.5857
0.5245
3.019
3.789
1367
50.64
0.5589
20.39
4.621
358.3
313.5
86.19
298.6
14.72
0.02185
75.39
95
5567
35.59
0.03506
76.02
1.278
150.6
45.25
519.8
14.38
0.02174
20.52
33.01
2.138e+04
4891
0.5035
39.69
506.1
0.2976
0.01971
683.4
158.4
7.834e+04
0.04754
3.13e+04
60.28
0.02152
68.46
584.9
10.52
0.08268
15.6
343
58.59
54.57
49.84
1251
0.03946
253.5
480.3
475.2
0.05853
0.05839
318.8
3.614
7.646e+04
45.41
564.5
630.2
8.492e+04
1.548
157.7
0.02431
0.02173
0.02149
14.84
0.02346
2.367e+04
0.02172
3535
0.212
21.81
167.9
439.3
0.09661
8028
0.5506
117.2
16.03
4100
0.02168
56.42
303.7
14.46
3795
706.6
21.5
687.3
1153
0.04457
0.0206
3852
0.07378
0.01994
0.2181
3225
0.0206
1444
0.02184
26.51
114.6
13.59
48.22
0.02091
17.63
226.4
91.22
0.05258
13.28
0.1304
0.02173
0.02122
34.25
1.559e+05
26.37
94.7
0.02375
1.049e+04
0.2602
0.06752
0.06186
1.028
81.64
394.6
0.02454
216.5
0.02215
33.66
0.02217
0.1752
135.3
38.29
2.119
699.7
81.12
0.02119
50.11
1058
203.6
1.383e+04
731.6
9.203
0.03348
2.125
1.622e+04
42.5
705.3
9662
0.0772
0.1087
0.02159
58.07
199.3
58.83
0.0218
282.4
0.02175
0.1622
85.43
0.02136
8.788
0.3857
21.49
14.95
1.225
281
0.0219
383.7
2692
3.416
9.117
174.3
0.04156
145.7
40.66
1558
59.83
38.83
470
34.19
52.66
3650
0.07432
0.112
81.71
0.03333
229.5
19.15
0.07499
82.57
0.02373
0.408
1584
13.75
176.8
68.86
1.451e+04
44.33
5537
0.7924
0.02066
5612
139.8
0.08713
301.5
0.02742
39.02
0.02223
11.01
3125
13.23
6.307
71.48
149.5
0.02187
64.77
0.2053
4.507
493.4
0.02471
98.48
1122
0.02159
0.02472
50.53
0.07496
65.45
1.988
1.289
16.02
0.547
19.2
0.07138
5.104
41.17
0.02116
0.1303
730.1
1.479e+04
0.02085
170.5
4535
11.1
156.5
9.615
160.2
1.439e+04
0.05859
0.1135
65.25
0.02487
334.4
7.902
19.7
1869
74.67
0.02431
73.99
2.225e+05
8.321e+05
66.34
72.54
74.37
0.7589
14.56
11.91
22.88
459.9
177.5
161.6
192.2
7323
19.2
1.594
0.0217
536.8
1.695
26.95
0.1225
0.03698
147.4
66.75
8.605
0.02034
470.8
745.1
93.14
99.69
14.18
1.566e+04
289.4
0.02577
96.31
5810
19.89
111.8
2.572e+04
0.0194
2140
497.4
163.2
0.02763
18.18
10.98
521
122.2
18.03
742.1
0.03472
1.678
197.8
0.04769
13.5
0.02166
341.9
2607
150.6
814.3
1.144e+04
20.27
6480
0.1111
448
4.313
10.26
0.0337
9.931
31.02
16.89
118.9
0.06753
101.8
5.871e+04
1.564e+04
47.2
76.3
0.4156
0.4858
0.02183
0.02503
47.14
0.2635
0.02166
78.84
131.5
235.8
108.1
12.98
206.5
38.67
1145
1.671e+04
1.82e+04
0.07988
99.3
4.583e+04
9.801
1776
9.42
15.1
41.85
5.816e+05
10.83
13.77
0.04421
0.05288
806.4
59.82
0.02172
0.02196
12.09
739.8
16.61
110.3
1.035e+04
5.448
0.02398
616.5
10.49
73.12
1556
3.464
7.11
36.68
47.97
0.7119
50.47
0.02188
542.8
9.84
655.7
14.65
215
2018
2.16
651.3
47.99
457.9
143.3
1695
0.06577
10.73
36.09
21.45
241.8
81.47
3293
295.1
0.02164
94.59
9.497
531.4
67.65
0.2754
15.89
0.0719
1659
0.04974
76.22
30.02
45.2
12.23
19.27
3.734
1.607e+04
0.1691
0.02419
633.2
0.0209
16.07
0.02976
0.8464
10.65
0.02151
0.2289
208.4
1198
0.02176
0.02286
11.95
19.13
113.4
0.1414
46.76
38.3
740.2
369.3
21.25
106.9
93.52
0.08531
107.9
1.704e+04
8.987
2083
324.8
9.661
1.425e+04
0.02172
0.0206
0.7245
3.01
9.238e+04
0.02179
12.51
500.5
8.846e+04
236.2
479.4
0.01981
0.01957
303.7
48.61
40.43
33.99
0.03076
24.46
1.601
0.02222
611.5
172.6
81.34
31.08
1680
12.91
2.007
0.01976
12.16
200.8
635
429.5
43.12
5543
369.5
35.1
118.2
149
48.77
0.0633
79.46
3319
0.02803
0.02686
201.3
100.2
3894
0.8571
571.8
59.49
0.1423
0.02172
4.525
0.02211
21.65
1.146e+04
8.234
0.1088
74.42
0.04278
6891
354.6
0.06639
14.73
12.54
94.53
22.55
72.09
53.54
35.9
25.45
31.62
17.71
11
1264
124
33.38
94.05
6632
71.21
353.3
389.3
1.464
0.9802
22.58
6507
0.322
55.34
0.02217
14.04
0.02214
145.5
8.49
6524
111.9
0.0745
851.9
5.372e+04
815
23.4
64.47
552.2
1390
0.2708
23.64
29.77
3.438e+04
60.36
31.42
0.1965
0.2155
0.02174
21.77
5057
5.567
933.8
12.91
0.06988
1092
0.0197
45.8
0.3712
20.91
1103
0.1631
1.998
9.217
0.03473
213.3
25.33
1.776e+04
743.1
161
0.0214
32.68
129.7
3003
998.1
33.83
8.294
38.34
0.02171
266.5
598.9
2.982
16.04
33.98
1346
489.1
362.7
19.98
0.6658
0.9343
6883
9.141
0.06061
2.31e+04
0.06843
34.05
0.02173
0.02199
24.61
0.02184
544.4
68.88
47.2
20.41
477.3
1319
62.79
548.1
60.79
16.37
1.484e+05
22.92
49.51
2.416
5.788e+04
11.72
4837
5857
0.0441
491.2
460.6
4.358
13.32
3098
191.9
812.4
17.81
24.55
0.02559
8.913
0.02206
0.5053
12.93
275.6
73.9
52.7
9904
12.57
0.02183
130.6
27.37
15.86
46.52
26.94
43.31
439.7
1225
5112
156.4
200.8
472.9
46.4
141.5
0.06078
7.239e+04
95.28
82.65
0.8713
0.02158
209.7
153.4
14.6
4.125
5472
408.8
134.3
60.67
30.39
2097
0.02164
4077
9.327
0.034
32.88
476.1
0.02165
90.2
12.78
13.4
5904
8.416
44.32
5.813e+04
25.48
194
0.01965
0.0196
185.9
75.18
2.35
189.9
115.7
0.02151
1539
676.8
26.92
0.02174
0.02183
34.38
95.46
188.6
1.963e+05
493.9
0.03034
397.1
1.871e+04
0.07529
447.4
256.9
0.1094
0.8112
828.8
26.6
29.92
0.01964
0.01951
0.01947
0.02027
0.07495
27.28
22.6
510.5
7.66
145.6
21.58
527.3
0.0208
43.63
33.58
1781
422.7
2260
100.2
61.95
260.1
24.65
140
0.2001
91.05
1.1e+05
188.1
2053
0.2186
114.7
0.02172
6.032e+04
43.71
294.1
6.949
0.02987
1.929e+04
0.02179
44.05
282.3
0.04629
53.98
56.62
14.88
68.44
3669
0.03668
347.8
0.02066
1.649
126.6
152.7
13.82
53.81
0.0215
0.02169
0.1539
343.7
501.1
0.1813
15.68
49.85
3.026
2008
263.9
12.87
9.857
28.51
38.59
0.1365
2.923e+04
0.1818
0.02173
4824
0.0217
0.02167
0.7724
0.1107
3619
13.27
729.5
21
275.5
0.02187
0.0788
191.2
175.2
12.51
0.05801
0.1699
1.707e+04
1801
0.02213
3395
2299
9.487e+04
0.06902
11.33
16.38
0.07081
0.02309
10.77
66.34
1.432e+04
0.06161
417.7
6.369e+05
0.02174
305.5
858.9
111.6
0.02178
511.6
2.433e+04
3.862e+04
1.965e+04
0.3594
108.4
2.037e+04
0.04807
55.9
0.02153
15.03
339.4
8.51
186.2
1.904e+04
0.5137
68.81
65.31
0.02225
0.02927
337.4
457
9.423
3983
48.4
1.211
10.58
24.8
176.4
39.24
0.02174
43.88
34.15
178.4
220.2
130.3
320.2
72.68
2.508e+04
2.877e+04
3.566e+05
352.3
0.04479
769.6
0.02423
571.7
1077
0.02175
1.92e+05
0.02221
113.6
4734
1233
99.35
50.05
267.1
246.3
0.01963
1.637e+05
254.9
0.05874
10.2
68.4
3.22e+04
6076
5.738e+04
11.33
363.6
1700
15.85
0.06176
79.27
3383
0.02088
35.5
58.18
103.1
47.88
27.92
11.91
1880
111.8
132.9
5891
0.09061
1385
0.07075
49.01
131.1
0.02342
0.07506
42.04
271.3
105.4
2.409e+04
0.05659
0.02171
5.189
199.8
1245
23.5
8.295
0.01966
0.02792
713.2
0.01995
180.3
322.5
0.06132
65.13
33.77
7926
2.567e+04
1.51e+04
0.0316
373
55.64
58.27
10.82
9.604
6227
12.38
782.1
211.9
3276
164.4
1.527
1.471e+04
25.66
74.85
23.66
0.05228
52.16
1.074
0.0218
25.91
80.79
38.44
114.6
38.86
4.702e+04
7.37e+04
11.28
5.447e+05
0.2868
1.469
0.02977
0.04706
29.83
0.02221
287.6
2.155e+04
230.1
1968
32.45
41.63
155.9
45.06
11.07
211.1
16.09
2264
69.47
0.02587
76.2
77.06
0.02204
0.03622
885.5
0.02185
77.8
90.25
207.9
7.849
1274
0.09841
30.69
0.03424
500.2
5288
579.1
56.49
0.02143
341.4
0.02153
0.2484
87.77
29.88
1.432e+04
82.52
408.7
9.756
1606
0.3635
0.2082
16.68
190.7
0.02083
5.109
0.02185
532.9
713.3
76.57
45.36
0.02162
288.7
281.9
51.58
1.44e+04
75.89
1043
0.02264
46.78
3.613
2.135
114.1
25
0.07062
1.025
0.1015
19.05
60.71
0.02068
0.02024
0.02199
0.0343
0.1095
1348
230.7
0.02177
186.8
12.05
128.6
0.02194
188.8
0.05484
915
0.09772
1.085e+05
113.6
970.7
0.04409
0.08453
1.528e+04
0.02698
124.5
157.5
226.5
132
42.65
0.02181
218
268.2
62.18
49.74
33.63
8.132
21.24
73.77
969.9
0.02149
15.19
44.54
1887
0.08362
0.02209
120.2
580.7
16.71
17.62
15.1
648.4
0.03969
26.65
260.3
11.18
95.98
106.9
0.02575
4.172
1.582e+04
102.2
88.72
1925
0.9907
7.573
0.02166
0.02648
0.1075
0.04705
1.602e+04
66.27
0.02195
0.02227
82.25
7.597e+04
0.02194
17.76
5614
125.5
5.226
61.87
1249
49.45
7.247
436.9
2.925e+04
869.5
0.02181
34.16
43.49
57.56
0.02139
0.2833
99.62
20.47
195.7
1.878e+04
2493
12.12
311.8
3.043e+04
10.08
478.7
16.87
1.016
0.6983
926.3
1.043e+04
0.02157
102.3
101.7
0.02193
2021
13.63
1.156
0.0609
48.56
422.7
128.9
41.67
0.02166
0.02175
10.75
90.83
0.01998
41.83
0.02433
1105
11.74
13.74
307.6
817.3
13.85
66.5
0.02139
1.831e+04
4.956
1679
330.3
0.06106
717.8
58.89
89.77
1.437e+04
8.569
1.342e+04
0.02074
0.02123
21.63
0.04317
0.02139
3.511e+04
168.7
277.8
1521
135.3
25.75
0.02838
3.404e+04
0.04018
78.26
0.02022
0.08067
111.2
28.47
30.96
44.36
9.72
418.5
0.02046
29.84
1828
1733
2422
0.1102
31.21
15.27
0.02195
387.4
140.1
3.163
0.03991
55
1.478e+04
0.0219
0.0215
21.02
1166
11.14
1436
0.02206
2373
60.41
105.9
0.02208
0.06058
533.1
200.3
870.9
18
11.79
0.02043
456.1
0.0311
365.7
2.396e+04
0.05672
76.76
10.63
3469
9563
494.8
0.04944
0.02047
35.27
0.1339
0.02163
120
105.1
10.48
0.0203
0.0633
0.06555
0.02571
330.3
40.44
0.02172
339.5
81.88
555.3
0.02571
0.02191
0.02162
0.05153
101.4
16.2
373.3
1.519e+04
9082
74.34
2.971e+04
1830
0.02291
1.294e+04
42.19
1307
9.813
0.1054
2.002
3081
293.6
1379
213.4
0.05171
20.66
269.3
87.97
9.724
0.164
115.7
0.1014
266.4
0.03677
24.06
15.88
24.61
0.1352
287.1
2.817e+04
2032
0.02061
1.53e+04
25.4
0.01992
63.71
0.02181
772.4
39.38
0.1176
142.7
200.8
0.0223
0.8984
8.532
4218
0.02225
0.1102
5052
4.977
0.02157
1228
23.19
0.03059
0.1046
12.83
147
1.942e+04
361.9
44.02
11.6
349.4
0.3951
0.02169
0.0388
300.8
86.32
46.55
0.02207
4.063e+04
186.5
31.16
89.2
24.99
38.18
0.02016
0.05527
231.8
84.52
0.0367
106.8
456.4
9.468
0.9932
2.307
9.302
0.03538
8.583
30.72
106
16.92
0.02205
541.5
0.1653
25.88
6.624
3.408
1897
39.81
1.033e+05
15.43
0.3101
0.3085
0.02118
6.53
23.95
1432
505.1
89.54
311.9
1453
40.83
0.3086
42.86
347.1
2729
32.74
0.03563
822.8
0.5806
657.2
13.71
10.42
23.74
190.1
0.02179
102.9
0.183
0.02164
10.23
809.4
1.286
7.037e+05
426.5
378.5
0.02165
38.9
78.99
0.04993
23.61
35.26
1152
183
1187
0.02188
47.07
0.02064
3.399
113
156.7
6.07
365.9
5.25e+05
0.02147
0.02174
44.93
100.2
704.5
1.272
80.06
442
21.81
12.56
0.02177
149.7
1003
0.05673
20.29
0.02156
84.7
0.04675
60.6
293.3
56.21
0.3099
807.9
173.9
0.02487
236.3
51.23
3.859
0.02145
0.02258
314.2
1591
23.39
8.535
43.06
17.45
146.3
22.95
0.01941
0.1334
0.3351
2.869e+04
993.6
687.4
0.02134
358
117.4
892
658.3
7385
2.041
33.91
95.48
62.69
418.7
1579
17.22
0.07515
10.08
0.0295
5.274e+04
0.02223
14.45
331.5
33.01
12.64
311.7
30.56
4652
11.29
162.3
49.51
4.912
120.3
2.777e+04
20.07
1.555e+04
1.071e+04
0.02174
1.721e+04
53.55
811.4
932.5
44.22
31.96
122.7
73.08
15.93
0.03401
16.05
13.19
46.25
22.38
39.15
0.3312
1.746
25.37
1.778e+04
29.22
2984
86.36
362
0.02027
267.7
40.81
1429
11.85
6902
126
235.9
0.06937
1256
0.061
17.31
23.66
0.06637
0.5468
17.53
24.45
65.12
144
15.62
156.5
24.86
6941
21.88
9.514e+04
0.03386
38.75
97.63
9.5
0.03922
285.5
0.02172
0.02192
0.02173
31.18
127.7
308.9
14.44
0.06906
26.66
0.03653
9.416e+04
1135
1.696e+04
193.8
0.054
446.6
1495
0.07093
740.3
0.02186
37.37
9.469
303.4
23.98
0.02128
0.02138
53.74
8.856
0.03547
1.818e+04
138.4
0.02095
0.0218
54.38
0.03026
431.2
3547
0.03285
4.052
276.9
454.2
149.3
1.901e+04
6.515
0.126
37.53
229.7
0.1012
129.2
28.15
0.7689
431
59.8
5.517e+05
0.0269
75.94
2825
1230
0.02183
22.76
0.02175
14.36
44.18
38.95
40.74
228.2
24.5
0.1418
717.4
912.1
338.5
652.6
455.7
34.6
30.16
64.54
117.8
18.65
291.4
0.02241
1.614e+04
6280
793.3
34.61
8.878
1139
366.6
0.2222
1.258
2.132e+04
72.54
0.05561
0.03179
0.05209
267
325.6
22.3
1611
104.9
0.0372
108.9
58.59
58.1
307.6
9.811e+04
371.9
54.33
248.4
25.44
50.03
1265
34
19.91
9.226
823.6
21.9
0.1983
31.32
394.1
0.07265
127.9
0.2079
14.28
1.878e+04
376.3
0.02204
294.5
15.22
8762
496.3
0.02135
0.08737
431.1
0.02841
23.9
1020
267.7
9.128
0.02176
0.1548
12.6
14.32
0.07851
280.2
0.02077
361.3
20.1
212.4
150.1
42.93
43.76
291.1
278
0.1395
78.46
0.02181
2.535e+04
0.03299
0.03141
153.9
0.02177
5.798
10.12
3.372e+05
0.02196
97.2
65.16
317.2
270.7
0.1881
39.07
22.66
257.1
1280
24.29
0.06805
0.02191
162.6
199.9
22.01
37.88
555.5
1142
0.5375
0.02113
30.7
186.5
3.903e+04
47.35
44.32
0.3996
175.9
0.0215
13.91
2174
696.2
0.02197
0.1684
491.4
0.01978
71.83
832
36.93
0.02195
0.022
8.987
0.02312
0.02013
0.02173
8.491
241.8
740.3
0.7881
124.9
7.981
14.19
0.02225
14.72
61.68
0.04116
0.5689
674
11.87
0.025
864.5
29.62
8.495
1.615e+04
2.015e+04
0.02468
52.26
16.53
194.8
35.38
1830
0.02194
139.8
1.768e+04
2.729
186.7
0.3589
1075
34.69
156.3
12.69
9041
0.0485
5653
28.57
0.0254
0.0281
0.02006
128.7
19.61
1241
102.2
2.883e+04
0.0672
0.01941
112.3
299
0.06355
0.02178
512
9.764
539.9
29.09
899
163
53.92
5.152
202.6
0.01971
9084
80.37
35.92
12.73
0.06556
0.02187
19.53
12.6
294.7
1935
34.46
0.03874
44.64
14.3
0.05353
0.02181
793.2
160.4
2559
89.53
21.93
0.8327
37.2
15.49
5.551
76.02
0.3396
0.1174
0.02192
41.7
7187
19.94
0.3203
2551
0.5194
0.02168
16.57
0.02926
0.02203
8.498
0.01936
0.01931
1.994
0.02011
28.18
2.432e+04
320.4
11.32
0.1201
0.02113
0.02197
44.29
173.5
13.56
1.736e+04
15
0.03008
11.26
48.55
1323
7.628
0.02198
2.527
20.1
0.02203
0.02136
43.31
186.2
0.04876
0.02753
45.13
0.0213
1.891
0.02148
9.808e+04
7.042
473.1
9.437
0.0269
2.219
9.237
18.93
423.3
20.45
68.03
15.63
0.02214
1.209e+04
15.27
297.7
0.02191
204.2
139.4
53.93
323.4
0.1896
194.6
10.51
0.1219
1460
0.02205
2.156e+05
13.88
9654
0.02197
104
0.02173
0.107
2.904
3269
14.61
114
12.64
0.1167
1371
0.1307
814.2
1649
8.419
0.07663
0.05779
344
0.02162
2.904
19.01
68
13.74
0.02174
5523
0.03445
110.6
292.6
57.11
587.6
4546
20.12
420
86.72
1.471
15.03
0.335
0.02172
0.02181
294.2
10.4
6506
21.49
24.36
0.02179
54.15
0.02179
0.02168
0.03246
120.2
0.0956
14.17
0.03568
30.8
0.1575
45.35
210.1
1273
0.02482
144.3
120.9
81.17
0.1498
19.07
0.02187
79.83
0.4341
46.75
3.177
0.03431
195.4
3.748e+04
157.7
1027
19.85
1.125e+04
872.2
2.501
20.79
715.3
67.43
4.423e+04
233.9
20.83
43.6
70
27.36
530.8
359
0.03895
26.24
0.09715
356.1
1.032e+04
70.39
666.5
254.3
12.82
168.5
0.03348
191.3
27.4
2.074e+04
10.39
0.02231
17.59
27.4
128.7
0.05904
60.3
136.9
22.26
0.4104
131.2
16.38
4359
140.4
59.03
22.33
18.15
487
0.0244
241.4
3.297
0.02336
45.51
47.96
204.6
284.4
90.92
0.02202
424.7
5.771
0.07448
1.166
303.2
6.267e+04
59.04
0.02084
0.02506
0.2715
182.8
52.62
0.0215
1.496
208.5
423.6
5789
0.02103
202.9
2537
37.58
4.817e+04
55.03
66.31
182.9
22.36
73.16
0.02309
47.57
2433
47.4
229.9
1.277
21.37
0.02161
0.07748
215.8
110.9
20.84
659.1
54.51
0.0217
2233
50.55
0.1548
289
5475
6825
0.04315
0.1204
0.02438
77.53
1833
302.8
966.8
132.5
279.3
0.02181
44.97
5.051
9.55
2833
0.3415
1.739e+04
50.1
1323
0.03222
138.7
1265
0.02168
126.3
71.02
48.17
11.5
0.0219
0.02168
0.03849
26.4
0.0217
12.85
6110
0.09805
16.31
222.8
0.03709
59.47
10.85
0.2791
1347
94.87
6151
41.39
0.02173
120.3
1707
0.0217
4045
10.63
53.43
30.76
136.7
53.19
180.7
15.99
10.55
0.02194
11.5
0.02178
0.05344
1114
109.5
46.1
36.62
0.6788
104.4
0.02173
0.01964
0.04928
76.13
31.94
72.03
1.741e+04
12.81
1.184
124
0.4917
9.409
0.02135
505.1
452
16.74
13.39
55.91
104.2
32.69
20.05
0.7739
0.02253
99.58
16.18
104.8
1340
1.603e+04
437.8
0.02149
50.32
21.12
20.35
8.115e+04
0.02164
52.04
21.1
25.91
54.53
21.07
5.008e+04
58.04
9.863
458.6
2776
12.74
70.67
2407
1.45
0.02168
258.2
15.96
32.11
75.25
16.46
0.9722
0.04618
632.9
264.3
868.7
17.72
720.4
167.4
0.02171
115.8
53.35
43.1
11.55
0.01934
266.7
39.61
28.27
3.046
0.02133
203.6
11.14
5.617
43.55
272
50.42
30.91
393
383.7
0.01992
77.5
35.86
41.13
432.2
179.3
33.93
20.33
27.32
9.203
123.3
415.5
1.649e+04
626.4
410.6
1.023e+04
30.4
0.07231
2.264e+06
336.2
1506
0.03563
1665
1220
258.2
29.39
0.02196
0.9204
0.02178
15.55
73
4.796
0.5602
16.44
612.1
20.89
2.111e+05
13.42
249.6
719.1
1.554e+04
425.9
213.2
17.5
0.08174
63.91
16.75
1.92e+04
60.63
0.2861
0.6619
1549
1.101
0.022
0.02169
30.85
50.63
0.03901
0.02017
0.02182
491.1
153.4
1.015e+04
0.02155
0.03174
59.17
0.01976
0.0199
248.6
0.0555
119.1
430.2
0.05261
1298
8.98
40.63
8.309
25.85
0.04635
59.61
17.68
6.401e+05
30.71
347.2
967.5
1229
11.02
0.03166
10.45
625.4
0.0217
9.502
129.9
563.8
1.301e+04
114.9
30.77
660.7
0.02457
110
2345
216.8
82.37
60.14
0.07246
31.93
15.36
1783
128.3
170.4
0.04989
832.1
261
0.03596
19.64
0.06747
34.25
0.02596
1869
1.662e+04
0.02708
466.5
127.1
0.1334
741.4
42.1
0.02224
5827
57
185.8
409.1
0.03268
21.14
5.076e+04
74.84
406.5
12.74
19.38
2.898
14.38
156.6
0.05889
1.688
47.97
59.66
26.74
14.43
45.23
6.284
63.8
494.6
51.07
5.897
1.136
0.0218
0.08366
631.6
17.76
0.01936
2.982
36.37
3.075
160.9
70.67
14.8
0.08618
554.2
81.09
0.1086
35.67
112.3
0.06608
605.1
0.03863
660.2
9.546
0.1568
0.06238
9.983
678.6
38.1
0.02091
64.31
216.5
113.4
0.228
0.02184
11.68
350.6
537
34.58
56.43
11.34
514.6
10.61
22.25
2.24e+04
9.823
1.784
4.541e+04
351.9
13.91
14.51
0.02204
1.22e+05
0.02197
26.3
110.2
97.29
137.5
116.2
1.958e+04
9.886
12.89
22.84
3.083e+04
459.5
12.81
4.299e+04
6551
460.3
123.9
0.189
0.6198
21.66
25.01
0.02187
379.1
2.057e+04
0.04229
66.42
6.491
16.51
308.5
412.4
4.049e+04
1587
198.6
0.01954
0.01937
0.02178
517.9
2161
0.3582
0.02158
0.1516
2596
6.378
4.475e+04
75.58
0.02199
3.868e+04
0.01937
1.749
10.43
0.03703
14.84
0.3032
1.379
0.05482
311.3
17.65
57.69
111
2.329e+04
11.86
115.6
191.4
10.92
0.02213
9057
419.7
590.1
89.23
935.3
229.1
264.8
0.05061
25.17
240.3
24.63
384.7
0.02918
827.4
32.85
735.6
13.2
0.6153
2.109
0.02177
232.5
33.67
117.7
179.8
11.87
688.1
37.93
20.31
12.58
140.8
0.1508
890.8
308.5
269.1
25.93
0.06235
10.19
0.07992
63.37
14.38
94.29
3.001
296.8
14.88
14.97
382.1
0.1856
1996
28.94
0.4194
0.08193
3.568e+04
302.6
223.1
29.01
5578
0.02204
6116
512
68
57.12
60.78
77.89
68.43
16.13
73.73
69.98
198.6
3494
0.07762
0.02186
0.0217
108.6
162.6
2.007
2.473e+04
111.7
9274
904
95.59
1842
1.836e+04
10.59
416.6
745.1
36.5
1.914e+04
0.02166
46.89
607
620.1
0.02157
588.3
45.09
204
294.6
269.6
0.02168
16.89
228.7
715.9
0.02089
169.8
10.15
0.1267
3.08e+05
0.03339
10.73
13.76
233.2
307.3
0.2609
34.35
1.915
159.7
714.2
111.9
0.01939
14.77
6.577e+05
0.02489
0.02246
1991
845.1
42.78
408.3
0.05947
29.32
40.15
53.73
40.56
172.9
0.01999
36.11
10.04
0.1129
0.022
31.73
0.0212
8.233e+04
34.25
1.304
8.317
1.339e+04
0.02169
101.2
0.02
0.02216
378.5
0.29
1344
9.01
0.03887
37.3
359.5
21.51
21.57
29.56
371.8
114.6
465.3
484.9
404.5
5290
839.3
57.64
364.5
121.8
182.5
0.199
0.02112
0.02118
3276
20.05
303.8
4.274e+04
0.02178
240.1
0.4342
0.02038
16.5
4.897e+04
8.549
412
2758
0.02206
465.1
36.28
16.27
10.7
24.83
2022
95.65
0.02174
4.644e+04
1130
0.0602
0.0232
1161
108.9
561.9
506.8
129
305
0.02168
208.1
0.02117
453.6
488.5
4.12e+04
0.01956
0.01938
0.1306
252.7
0.03045
18.07
2.002
4.082
23.87
51.02
259.1
0.04356
0.0267
1.784e+04
2.134e+04
24.39
755.2
0.04666
298.8
0.02218
131.5
1267
440.2
2203
228.9
427.1
347.5
0.2255
25.67
26.33
0.02477
0.02175
0.02173
11.61
197.4
682
3.038e+04
280.4
0.02416
373.4
824
429.7
3.357e+04
53.77
499.8
215
98.85
0.05219
2.418
15.63
0.7241
0.07817
900.7
23.43
41.15
40.58
589.7
0.3541
0.01973
1.739e+04
13.85
12.01
37.43
2.111e+04
20.29
0.02082
119.3
24.33
182.3
7.863
189.2
333
1.453
66.72
11.07
0.06494
175.1
0.04255
0.07245
7.995
967.1
19.83
1002
20.21
49
34.32
0.0278
64.72
349.2
0.1965
42.67
1.614
1.897e+04
0.02944
0.02351
72.7
76.33
163.8
24.19
26.97
2272
0.06461
0.02183
27.02
1861
0.02425
0.4072
43.46
0.02158
1.852e+04
0.05228
38.35
81.57
46.18
0.5585
300.6
2068
6.674
0.05943
0.02172
18.16
50.52
91.5
14.97
0.02132
0.02019
0.02172
82.46
191.6
236.4
0.05452
754.3
35.07
434
51.43
803.7
1.604
0.02967
4118
0.02183
863.9
29.12
0.02935
119.2
74.1
260.9
99.74
127.2
14.2
6.608
0.07255
2263
1251
2201
0.1485
0.4422
0.02167
1.872e+04
0.02158
159.1
1817
0.02205
11.93
140.1
291.1
0.08283
14.22
1.311e+04
24.23
0.02166
17.87
457.5
82.47
155.9
13.84
29.96
1.521e+04
12.36
0.0207
0.0227
1.162e+04
23.88
386.2
8.738
53.75
0.02117
0.02193
1.997
6.816e+04
1810
479
357.8
0.8476
305.5
1464
138.2
194.6
0.02189
656.4
8.468
260.1
18.5
16.27
0.0216
605.1
14.07
1.548e+04
1.836e+04
11.21
14.94
1.531
1009
0.02779
8.925
1.707e+04
437.4
141.2
1861
6622
126.3
189.8
0.1022
950.6
178.9
1354
40.46
0.02598
1026
6684
0.02172
322.6
3458
338.8
935.6
36.62
13.62
175.7
43.62
0.0339
66.27
0.02211
112
0.08637
1.411e+04
0.1051
4010
47.26
214.6
17.67
12.52
447.6
11.77
80.05
775.8
72.55
32.05
9.538
41.78
157.1
545.7
59.56
0.02418
26.55
21.77
76.28
119.9
76.48
275.8
40.88
0.02483
39.65
2.214e+04
16.22
10.69
83.36
0.03929
33.49
0.02155
45.8
5.687e+05
8.653e+04
397.8
24.57
41.5
0.02098
0.05406
19.87
23.34
26.55
6.38
0.02178
30.33
50.02
60.51
71.35
0.02164
860.3
1315
5.849e+04
9.1
25.6
59.65
576.5
0.05022
145.7
9.941e+04
0.8432
15.45
0.241
309
5.204e+04
11.57
14.26
18.12
31.4
0.02432
154.3
0.01988
1.647e+04
84.59
11.28
1279
7.24
121.3
37.57
3.073
0.04474
0.02199
0.02149
52.81
17.44
25.08
9.223
29.48
57.76
1.962e+04
0.7153
295.7
0.2003
0.02176
973.6
0.02182
13.26
638
5.263
24.69
23.21
4.809e+04
204.4
20.76
266.6
139.8
68.93
0.1221
1.731e+04
0.02172
5.535e+04
2802
86.72
133.5