/*--------------------------------*- C++ -*----------------------------------*\
  =========                 |
  \\      /  F ield         | OpenFOAM: The Open Source CFD Toolbox
   \\    /   O peration     | Website:  https://openfoam.org
    \\  /    A nd           | Version:  8
     \\/     M anipulation  |
\*---------------------------------------------------------------------------*/
FoamFile
{
    version     2.0;
    format      ascii;
    class       surfaceScalarField;
    location    "60";
    object      phi;
}
// * * * * * * * * * * * * * * * * * * * * * * * * * * * * * * * * * * * * * //

dimensions      [0 3 -1 0 0 0 0];

internalField   nonuniform List<scalar> 
189008
(
7.141e-08
-7.141e-08
1.685e-08
-1.685e-08
1.275e-08
-1.275e-08
1.862e-08
-1.862e-08
-1.389e-06
1.389e-06
1.913e-08
-1.913e-08
8.124e-06
-8.124e-06
-2.557e-06
2.557e-06
-1.52e-06
1.52e-06
9.551e-07
-9.551e-07
9.271e-06
-9.271e-06
-3.475e-06
3.475e-06
-8.473e-09
8.473e-09
-2.12e-08
2.12e-08
6.77e-05
-8.168e-05
1.398e-05
6.39e-06
-7.277e-06
8.865e-07
-5.746e-08
5.746e-08
-0.001398
-0.001765
0.003164
-0.001524
0.000728
0.0007957
-5.318e-06
6.102e-06
-7.838e-07
0.0005117
-0.0004313
-8.038e-05
1.751e-07
-1.092e-07
-6.597e-08
-0.003294
0.01055
-0.007251
1.963e-05
0.0004991
-0.0005187
1.022e-07
7.293e-08
-0.0002571
0.0001445
0.0001127
-1.136e-05
1.252e-05
-1.157e-06
-1.254e-05
1.177e-06
0.0001964
-0.0001527
-4.371e-05
0.0019
-0.007852
0.005951
-4.64e-05
-0.0002099
0.0002563
-6.945e-05
-0.0001877
2.137e-05
-1.537e-05
-5.993e-06
-5.255e-05
3.162e-05
2.093e-05
0.01205
0.01086
-0.02291
4.964e-06
1.64e-05
4.249e-05
0.0002848
-0.0003273
-0.000711
0.001104
-0.0003928
-4.723e-05
0.00059
-0.0005428
-5.166e-05
5.976e-05
-8.102e-06
-0.001182
-0.0003413
0.001696
-0.003406
0.001709
0.0003871
-0.004072
0.003685
2.426e-08
-2.426e-08
0.001605
-0.003003
-2.781e-05
-2.475e-05
0.0001296
6.681e-05
-0.0004988
0.0005128
-1.403e-05
-0.0007947
0.0009584
-0.0001637
-3.023e-05
0.0004779
-0.0004477
2.223e-06
4.167e-06
-0.01374
-0.03102
0.04476
-5.656e-05
-1.14e-05
6.796e-05
-0.01214
0.01092
0.00122
1.083
-0.1279
-0.9549
0.0009459
-0.0007606
-0.0001854
-0.147
1.23
0.01228
-0.007613
-0.004666
-0.312
0.01819
0.2938
-0.005166
-0.006976
-0.002338
-9.617e-05
0.002434
-0.0003853
0.0008161
-0.0004308
-0.0002243
0.001836
-0.001612
-0.81
0.9549
-0.145
-3.606e-05
8.845e-05
-5.239e-05
-0.000333
-0.003308
0.003641
-0.02768
0.0221
0.00558
0.002238
-0.001855
-0.0003833
0.0006172
0.001621
-1.276
0.4797
0.7959
-6.987e-05
-0.0003088
0.0003787
4.991e-06
7.525e-06
-0.001203
-0.0003571
0.00156
-0.1151
-0.1968
-0.2732
0.5154
-0.2423
-5.243e-06
-7.292e-06
-0.05145
0.09111
-0.03966
-0.0005287
0.0004981
3.057e-05
0.0005006
0.0004453
0.1597
-0.634
0.4743
-0.0001915
0.000146
4.549e-05
-1.727e-06
-3.591e-06
5.229e-05
6.108e-05
-0.0001134
1.057e-05
4.71e-05
-5.767e-05
9.007e-05
-0.0003208
0.0002307
-0.0002829
0.0004577
-0.0001747
-0.000673
0.001282
-0.0006088
1.64e-05
-4.966e-06
-1.143e-05
-0.00325
0.002917
-0.0004042
0.0007016
-0.0002973
0.1871
-0.02183
-0.1653
-0.004334
-0.006199
0.01053
-0.0002898
0.0008845
-0.0005947
0.0002932
0.0002185
0.0002374
-0.0002421
4.689e-06
0.02941
0.01438
-0.0438
0.003077
-0.00138
0.0002611
-0.0002641
2.974e-06
-0.000368
-5.868e-05
0.0004266
-0.01818
-0.009497
0.6861
-0.5264
-7.292e-06
-0.0007874
-7.494e-05
-0.0002358
0.0003107
0.004376
-0.005328
0.0009519
0.0001045
-0.0003875
-0.0004741
0.0001062
-0.001129
0.00162
-0.000491
-0.9987
-0.2769
-0.001303
0.0006506
0.000652
-1.154
0.8762
0.2777
9.522e-05
-2.752e-05
1.157e-05
4.831e-06
-0.0003714
5.426e-05
0.0003172
0.0004513
-0.0008338
0.0003825
-0.2115
0.09533
0.1161
0.0006152
0.002569
-0.003185
-0.1063
0.05766
0.04859
0.1657
-0.4389
0.02273
-0.07418
4.247e-07
-3.387e-07
-8.598e-08
-1.253
0.09912
2.846e-05
5.023e-05
-7.869e-05
-0.0004346
-0.0007933
0.001228
0.01419
-0.01216
-0.002032
-0.0001266
-6.493e-05
0.000186
-0.0001722
-1.377e-05
-0.0004394
-0.0002505
0.0006899
0.08798
-0.1025
0.01454
-0.0001628
5.999e-05
0.0001029
-0.0006472
0.0005237
0.0001235
0.0003571
-0.0001154
-0.0002417
0.0002179
-8.368e-05
-0.0001342
-0.0003913
-0.001354
0.001745
-0.0002146
-0.0003141
1.367e-07
-1.044e-07
-3.23e-08
0.0003732
-1.606e-05
-0.004113
0.03618
-0.03207
-0.000156
0.0003232
-0.0001672
-0.0001868
0.0002156
-2.874e-05
0.03466
-0.05506
0.0204
0.009409
0.0003077
-0.009716
-0.04694
-0.04286
0.08981
-4.099e-05
0.0001188
-7.782e-05
-0.0003699
0.0002279
0.0001419
-7.595e-05
1.939e-05
0.001365
-0.0005433
-0.0008215
-3.259e-05
-1.168e-05
4.427e-05
-0.02784
-0.7821
0.0002707
-5.287e-05
0.000217
-0.0003237
0.0001068
0.002587
-0.003828
0.001241
0.001113
-0.0003045
-0.0008081
0.00206
-0.002498
0.0004382
-0.009108
0.0001326
0.008975
0.0002053
-0.0004318
0.0002265
0.0003171
-0.000227
0.008132
0.004147
0.0006549
-0.0005358
-0.0001191
-9.556e-05
-0.0004032
0.0001157
-0.0002208
0.0001051
-0.0002784
0.0005131
-0.0002347
-3.546e-05
3.546e-05
0.1928
-0.005704
0.0004518
-0.000142
-0.0003098
0.0001296
-0.0002745
0.0001449
3.195e-05
-6.801e-05
-0.0003153
3.177e-05
0.0002836
0.0001634
0.001724
-0.001887
-0.0001894
0.0001597
2.971e-05
-0.04104
0.03379
0.007247
2.877e-06
8.549e-06
-1.143e-05
-0.0001928
-0.0001771
-0.004658
0.001972
0.002687
-0.002838
0.0009164
0.001922
1.018
-1.191
0.1725
-9.763e-05
6.649e-05
3.114e-05
-0.0007323
0.0003853
0.000347
-8.232e-05
-8.053e-05
-0.0004239
0.0008272
-0.0004033
0.1194
-0.1479
0.02843
-0.001855
-0.000983
-0.124
-0.001886
0.1258
-4.107e-05
6.242e-05
-2.135e-05
-6.396e-05
-3.367e-05
-0.0002705
-0.0003767
0.000395
-0.0007803
0.0004223
-0.006577
0.006155
-0.0002673
0.0007185
0.0005129
-0.0004933
-0.004336
0.08578
-0.08144
1.37e-06
6.552e-05
-6.689e-05
-6.342e-05
-1.379e-07
6.356e-05
-0.0437
0.03959
0.0006634
-0.0008098
0.0001464
7.927e-08
0.0001825
0.0004545
-0.000637
-1.469
1.198
0.271
-1.464
1.194
0.2703
1.458e-06
4.963e-08
-1.507e-06
-0.1669
0.1318
0.03511
0.204
-0.03795
-0.166
-0.05786
0.04924
0.00862
0.02664
-0.06802
0.04138
0.0002796
-0.0002371
-5.289e-08
5.289e-08
0.0003315
-0.001139
0.0008073
0.02655
-0.007798
-0.01876
0.002848
-0.0006588
-0.002189
0.01652
-0.01462
-0.2087
-0.002796
0.003783
-0.02234
0.01856
-0.0003475
0.0002689
7.863e-05
-0.06019
0.2035
-0.1433
-8.333e-05
-0.0001061
6.825e-06
-0.000166
0.0001592
1.411e-06
-1.764e-06
3.528e-07
-1.348e-05
1.22e-05
1.282e-06
0.003619
-0.002175
-0.001444
-6.873e-05
0.0002436
-0.0001749
0.02252
0.004037
-0.0006331
0.0002407
0.0003924
-0.4708
0.2223
0.2485
0.0009802
0.0001324
2.597e-05
-5.557e-05
2.959e-05
0.0001081
6.134e-05
-0.0001694
-2.482e-05
2.035e-05
4.465e-06
-0.0002284
0.000358
0.0003589
-0.00107
7.08e-05
-7.278e-05
1.979e-06
0.0004808
-0.0004496
-3.12e-05
-0.000451
0.0001192
0.0003318
-0.04853
-0.07543
-0.001644
0.000441
-4.991e-07
6.118e-07
-1.127e-07
-0.0002776
-0.0001735
-0.02415
0.01902
0.005124
0.0001428
0.000309
5.212e-07
-5.212e-07
0.2253
-0.0213
-0.0001454
5.234e-05
9.31e-05
-9.521e-05
3.179e-05
-4.261e-05
9.595e-05
-5.334e-05
0.0003544
-0.0002483
-0.0001061
0.0003271
0.0003278
0.0001782
3.233e-05
-0.0002106
2.75e-07
1.497e-07
0.0009756
0.000445
-0.001421
1.352e-05
-1.224e-05
-1.283e-06
3.44e-06
-3.44e-06
0.1969
-0.967
0.7702
-0.0003862
-0.001709
0.002095
-6.779e-05
0.000167
-9.922e-05
0.002362
-0.001116
-0.001246
-0.0004565
0.0001553
0.0003011
-0.0001635
0.0007434
-0.0005799
0.0007255
-0.0004261
-0.0002994
0.1162
-0.02825
9.341e-05
-0.0002843
0.0001909
-0.0002223
0.001476
-0.001254
-0.009189
-0.0002763
0.009465
0.0007255
-0.0004081
-0.0003174
-0.06588
0.09854
-0.03267
-0.01322
0.00889
-0.08748
0.04054
-9.717e-06
-8.067e-05
9.039e-05
-5.4e-06
-6.8e-05
7.34e-05
9.647e-05
-0.0001897
9.321e-05
0.0001356
-0.00034
0.0002043
-0.001025
-0.0008763
0.001901
0.002884
-0.005586
0.002702
-0.000346
-7.978e-06
0.0003539
0.8541
0.1643
0.0004872
-0.0006184
0.0001312
-0.0001254
-2.005e-05
0.001288
-0.002203
0.0009148
8.153e-05
-8.016e-05
-0.0002055
-0.0001659
0.001068
-0.001244
0.0001753
-0.3764
-0.4296
0.806
0.0007776
0.001335
-0.002113
-0.543
-0.3515
0.8945
0.04546
-0.01605
0.004439
-6.371e-05
-0.09003
-0.1664
0.2565
0.04473
0.1211
-0.1659
1.871e-07
-5.746e-08
-1.296e-07
-0.0003205
0.0002609
5.958e-05
-0.0741
-0.1022
0.1763
0.001305
-0.000961
-0.0003435
0.1733
-0.05382
9.037e-06
0.002051
-0.002511
0.005558
-0.003047
-0.01121
-0.01294
0.0009908
0.001409
-0.0024
-0.2074
0.2384
-0.031
-0.0005528
0.0009295
-0.0003767
-0.0001953
-0.0001319
0.0003272
7.411e-08
8.417e-06
-8.491e-06
0.0001424
0.0002121
0.003779
-0.0008944
-0.0001454
-0.0002403
0.0003856
-0.004055
0.001166
0.002889
-0.001235
-0.001886
0.003121
0.003746
-0.003131
-8.986e-05
0.0001513
-6.145e-05
0.000602
0.0001325
-0.0007346
0.002612
0.0002364
-0.184
0.1238
0.0003685
-3.974e-05
-0.0003288
-0.0034
0.003431
-3.142e-05
0.001272
0.0001152
-0.001387
-2.484e-06
5.728e-06
-3.244e-06
-0.0006271
0.0004178
0.0002092
-0.8573
0.3143
-0.2578
0.1347
0.1232
0.0003085
0.0001293
-0.0004379
0.0004849
-0.0004358
-4.902e-05
-0.0001183
-0.0001902
0.0003085
0.0178
-0.008703
-0.0091
0.1875
-0.1774
-0.01016
0.009264
-0.01256
-0.0003529
-2.197e-05
0.0003749
0.09501
-0.05342
-0.04159
0.00165
0.0007121
0.0004869
-0.0001784
7.906e-05
9.592e-05
-0.000175
-0.01615
0.03224
-0.01609
2.718e-07
-2.623e-05
2.596e-05
0.0006293
-0.000222
-0.0004073
-0.001602
0.0004977
0.001105
-0.001075
0.0006166
0.0004585
0.1932
-0.1484
-0.005816
0.01787
-0.5003
-0.969
-0.4985
-0.9658
-0.01118
0.00207
-0.001058
0.000859
0.0001992
-0.004433
-0.0002255
-0.0003894
-0.0006857
-2.151e-05
-0.0002152
0.0002367
-0.0116
0.04626
0.002455
0.001164
6.42e-05
-2.479e-05
-3.941e-05
-1.878e-05
-3.458e-05
5.336e-05
-0.0006853
0.0003542
0.0003311
0.0003653
0.0009393
-0.0001397
5.711e-05
8.263e-05
0.0002003
-0.0002498
4.953e-05
0.0004855
-0.0003448
-0.0001407
3.821e-05
-0.0001381
9.986e-05
-0.0006625
0.0005291
0.0001334
0.0007253
-0.0008989
0.0001736
-1.494e-06
8.216e-05
-8.066e-05
6.275e-05
-0.0008794
-0.02768
0.02856
-0.0001788
0.0001583
2.051e-05
-0.0003491
-0.0001074
-0.0001633
-0.001068
0.001232
0.3014
-0.4093
0.1079
0.0005688
6.047e-05
0.000286
-0.0005526
0.0002666
-0.002074
0.00185
-0.002238
-0.002472
0.004711
0.0009054
-0.0009452
3.977e-05
-8.8e-05
0.0006853
-0.0005973
0.3805
0.1363
-0.5168
-0.119
-0.04784
-0.1699
0.2392
-0.06936
-6.556e-05
7.81e-05
-1.255e-05
0.4291
-0.8056
-0.001562
0.001762
-0.0001992
0.05953
0.03548
0.0001598
-0.0002276
6.692e-05
-0.0005492
0.0004823
0.1172
-0.1216
0.03053
-0.01403
-0.01651
-0.0001453
0.0006425
-0.0004972
3.112e-07
2.39e-07
-5.502e-07
-0.0003086
0.0005759
-0.0002672
0.9157
-0.686
-0.2297
0.001168
0.001179
-0.002347
4.208e-05
0.0001439
-0.0006757
0.0004906
0.0001851
0.006506
-0.004989
-0.001517
-0.08521
-0.02104
1.26e-05
1.679e-06
-1.428e-05
0.01545
-0.01996
0.004516
4.04e-06
-5.57e-05
-0.0004167
0.0006143
-0.0001976
0.000171
-0.0006059
0.0004349
0.2462
-0.2551
0.008918
0.00615
-0.00524
-0.0009101
1.039e-05
-4.32e-05
3.281e-05
0.0002174
0.0005453
-0.0007627
-0.0006761
0.0007451
-6.898e-05
-0.00013
0.0002646
-0.0001346
0.004093
0.002057
-0.0003034
0.000257
-0.02246
0.02158
0.009267
-0.07514
6.029e-05
-9.885e-05
3.855e-05
-0.5074
0.0366
-0.0004529
-2.503e-05
0.0004779
-8.03e-05
3.923e-05
-0.0009927
0.01644
-0.004615
0.003649
0.0009662
-0.0001506
0.0005399
-0.0003893
-0.002477
0.002448
2.871e-05
0.1113
0.4875
-0.5988
0.0004383
-0.0008622
-0.0002866
-0.0002093
0.0004959
-0.0005737
-1.05e-05
0.0005842
0.00124
0.008168
-4.857e-05
-0.0003407
0.0003893
-0.001167
0.0007324
8.021e-05
0.0001572
-0.0005115
0.0004319
7.966e-05
-0.0004108
6.482e-05
-7.256e-05
0.001574
-0.001502
-0.0008985
0.0001629
0.0007356
-0.000359
4.365e-05
-3.219e-05
2.984e-05
2.352e-06
-0.0002004
0.0002159
-1.553e-05
-0.6753
0.8721
0.0006655
-0.0001847
0.007552
-0.01038
0.002828
-0.003445
0.003832
-0.01247
0.0006952
0.01177
-6.556e-05
2.296e-05
-0.01112
-0.007387
0.01851
-1.274
1.436
-0.1616
0.0002739
-0.0002758
1.838e-06
-8.301e-05
-4.422e-05
0.0001272
0.007086
0.009532
-0.01662
0.003027
-0.002885
-0.0001419
0.5724
-0.1919
0.001074
-0.002166
0.001091
-3.067e-05
0.000132
-0.0001014
-0.0605
0.04676
-0.02562
-0.1818
0.7021
-0.6559
-0.0462
0.000679
-0.0007092
0.06684
-0.03066
-0.0003721
-0.0001192
0.0004913
0.05208
-0.05468
0.002598
3.472e-05
0.0002264
-0.009282
-0.1347
0.144
0.0005386
-0.0003922
-0.0001463
0.05437
-0.2242
-0.0001865
-0.000161
0.000393
-0.0004342
4.125e-05
-0.0007136
0.000414
0.0002996
-0.001394
0.003107
-0.001713
-3.318e-05
6.549e-05
-3.231e-05
-0.01973
0.00843
0.0113
0.0004383
-0.0002318
-0.0002065
0.0003019
9.698e-05
-0.0003989
8.348e-05
-1.078e-05
-7.27e-05
0.0004829
-0.0001151
-0.0003678
5.967e-05
0.006735
-0.006795
-0.002812
0.00242
-4.57e-05
-2.701e-05
7.27e-05
0.0001538
6.839e-05
-0.0002222
0.001577
-0.001513
-6.394e-05
3.026e-05
-7.596e-05
0.3521
-0.9416
0.5895
0.1183
-0.0001663
-0.1181
-0.0003566
0.000145
0.0002116
0.000103
-0.0001107
7.667e-06
-1.54
0.1227
1.418
0.0006962
-0.0004167
-0.0002795
-0.001678
0.01105
-0.009376
0.005128
0.00906
7.616e-05
0.0004087
0.03168
-0.01724
-0.01444
1.411
-0.2681
-1.143
6.463e-05
-0.0003129
0.0002483
-0.0115
0.009825
0.0001164
-0.0001023
-1.407e-05
-1.165e-05
1.403e-05
-2.386e-06
0.0001729
-0.0001224
-5.042e-05
0.0004339
-3.289e-05
-0.000401
-5.495e-05
4.282e-06
5.067e-05
-0.0003601
-0.0002669
-0.0007451
7.274e-05
0.0006724
0.000977
0.00205
9.722e-05
-4.891e-05
-4.83e-05
-0.1249
0.2548
-0.1299
-0.000185
0.0003007
-0.1026
0.08364
0.019
0.0006748
-0.0005542
-0.0001206
0.0006364
-0.001309
7.391e-05
-8.757e-05
1.366e-05
0.0002445
-0.00136
0.001115
-1.275e-08
-4.014e-08
-0.000408
0.0001996
0.0002084
-0.0005961
0.0008106
-0.0002144
0.03108
-0.01868
-0.0124
0.001666
-0.002191
0.0005249
-0.2875
0.2321
0.05538
0.0001257
4.713e-05
0.1161
0.002234
0.0001826
2.842e-05
-0.000211
0.0005496
-0.0003672
-1.073e-07
1.073e-07
1.424e-07
-1.651e-07
2.271e-08
1.376e-07
-1.269e-07
-1.066e-08
1.197
-0.8186
-0.378
-8.93e-05
-8.947e-05
6.821e-05
0.0002707
-0.0003389
-0.1448
-0.113
-0.0006947
1.652e-05
0.0006781
-0.0003217
0.0009828
-0.0006611
-0.0002896
0.0003184
-2.88e-05
0.003466
-0.0003161
-0.00315
-7.086e-06
0.0004001
-0.0006103
-0.0001033
0.0004254
0.0002708
2.658e-05
-2.469e-05
-1.892e-06
-0.4373
0.7894
-0.0002771
0.0001738
0.0001033
7.746e-08
-7.555e-08
-1.897e-09
0.0005824
-0.0006645
8.207e-05
0.0003657
-8.346e-05
-0.0002822
1.646e-05
-1.358e-05
0.06397
-0.1791
0.003453
-0.0008661
-0.05106
0.07769
-4.015e-05
0.0001939
0.04166
0.2471
-0.2887
-0.0002884
6.925e-05
0.0002191
-6.518e-05
-9.771e-05
0.0001629
8.218e-05
-7.764e-05
-4.536e-06
1.527
-0.9026
-0.6244
-0.000275
-8.163e-05
0.009584
0.004023
-0.01361
1.218e-06
-2.226e-06
1.008e-06
-0.0006812
-2.126e-05
0.0007024
0.0001572
-1.454e-05
-0.0001427
0.0003188
-0.0002159
-0.0001029
-0.107
0.1028
0.004123
3.353e-05
-0.0001549
0.0001213
0.0009329
0.0007468
-0.00168
-0.8039
-0.7364
0.002451
-0.003426
-5.367e-05
0.00348
-0.0003958
0.0002005
0.0003079
0.0005975
1.183e-06
0.0001018
0.0001098
-1.739e-05
-9.24e-05
-0.0005615
0.0001448
-0.002945
0.003599
-0.0006543
0.0008953
4.152e-06
-0.0008995
0.0001833
-0.0003804
0.0001971
7.389e-05
0.0002
0.1129
0.05485
-0.1677
-7.677e-05
5.757e-05
1.921e-05
4.374e-05
-0.0002422
0.0001985
0.0004342
-0.0004817
4.755e-05
0.001116
-0.002406
0.00129
0.0001415
-0.0002686
0.0001271
-0.791
0.1144
0.6767
-0.7882
0.6298
0.1584
0.001936
-0.01113
-0.0001312
-8.544e-06
-0.0005763
-0.001088
0.001664
0.1389
-0.2088
0.0699
1.472
-0.6488
-0.8234
-0.001522
0.002456
-0.0009335
0.0002778
-0.000409
0.0001313
-0.0006489
0.0002625
0.0003864
-0.0007266
-1.853e-05
8.058e-05
6.888e-06
-8.747e-05
-2.744e-05
2.551e-05
1.928e-06
-0.003157
0.002998
0.0001598
-0.1404
0.09975
0.04067
1.401
-1.278
-0.123
-9.405e-05
4.638e-05
4.766e-05
-0.000122
-0.0002751
0.0003971
0.0005422
-0.001715
0.001173
0.3133
0.5223
-0.8356
4.568e-06
8.956e-06
0.002583
-0.003027
0.0004442
-0.0001776
0.0001743
3.317e-06
0.4861
-0.000309
0.0003539
-4.49e-05
-0.02659
0.1655
0.0002427
-0.0003933
-0.0001374
4.993e-05
8.75e-05
0.0007346
-0.0005644
-0.0001702
0.9793
0.1619
-1.141
-3.081e-05
-0.0001184
0.0001493
0.0004948
0.0002307
-8.098e-05
4.553e-05
0.3909
1.021
0.0004413
-0.00157
-1.001e-05
-3.47e-06
0.3958
0.3063
-0.001762
-0.002853
-0.1641
0.004752
0.1593
-0.0003779
-0.0004465
0.0008244
0.0001453
-9.011e-05
-5.516e-05
-0.2801
0.19
0.000106
-9.718e-05
-8.8e-06
0.0002459
0.0004573
-0.0007032
-2.792e-06
8.505e-06
-5.713e-06
-4.9e-05
-8.074e-05
0.0001297
-7.74e-05
-2.858e-06
8.026e-05
-0.0001907
-0.0004718
-0.0002204
-0.0004553
0.0001996
0.0002066
-0.0004062
0.0006877
-0.000735
0.0005647
-0.0008545
0.0006023
-0.0009308
0.0003285
0.0001011
-0.0001166
1.544e-05
5.786e-05
-4.039e-05
-1.747e-05
0.0003054
-0.0002268
-7.853e-05
-0.6002
0.9134
0.0007489
-0.0005184
-0.0002305
0.1087
-0.1944
0.08578
-0.0005142
-0.0001711
-0.1237
0.0344
0.08931
0.0001088
-0.0001498
-0.342
-0.9323
-0.1523
0.07817
-0.002593
-0.005117
0.00771
-0.0004354
-0.0004631
-0.0002054
-0.0001589
0.0003644
-1.04
0.1278
0.9122
1.107
-0.8992
-0.2083
0.00011
-3.921e-05
-6.11e-06
-7.338e-06
1.345e-05
-5.491e-05
0.0001072
-0.0004773
0.0001787
0.0002986
0.0008294
-0.0002577
-0.0005717
0.0002996
-0.0006717
-0.0003325
0.0004973
-0.0001648
-0.0007439
0.0004572
-8.275e-05
4.817e-05
-5.187e-05
0.0001416
-8.974e-05
-3.181e-05
-1.049e-05
4.23e-05
-1.16
0.1203
2.665e-05
5.999e-05
-8.664e-05
3.153e-05
-8.21e-05
5.057e-05
-5.964e-05
-0.005039
0.005099
0.008786
-0.005601
-0.003185
0.1784
-0.2404
0.06205
1.029
0.4429
0.0002969
-0.0002178
-1.015e-05
-0.0001767
1.593e-05
8.129e-05
9.56e-06
-6.393e-06
-3.166e-06
-0.07576
-0.04795
-0.9852
-0.4034
1.389
-0.0001449
-0.0001103
0.0002552
-0.0001176
-9.812e-07
0.0001186
-0.05141
-0.006457
1.96e-05
3.066e-05
-5.026e-05
0.01463
-0.002192
-0.01244
-0.03622
0.0884
-0.05217
-0.0001898
6.716e-05
0.0001227
0.002323
-0.002878
0.0005551
-5.608e-05
8.761e-05
0.004683
-0.009458
0.004774
-4.29e-08
4.29e-08
-3.13e-05
6.479e-06
6.467e-05
0.0004182
0.0003165
0.0001218
-0.0001647
-0.0001558
9.361e-05
2.348e-05
-0.0001171
-0.0002978
-1.12e-05
-5.284e-05
8.936e-05
-3.652e-05
0.05669
0.006683
-0.06338
0.0001336
-4.489e-05
-8.873e-05
1.458e-05
-4.533e-06
-1.005e-05
-9.722e-05
-0.0003557
0.7437
-1.069
0.3248
0.001288
-0.0002192
-0.004817
0.004238
0.0005791
0.001615
-0.003366
0.00175
1.077
0.45
-0.02603
0.7697
2.005e-07
-8.266e-07
6.261e-07
0.0236
0.007477
0.0003619
-0.0006368
0.0002749
4.834e-05
-5.173e-05
3.397e-06
-0.0003626
0.0006369
-0.0002743
0.0004235
-5.496e-05
0.004086
0.002661
-0.006748
0.000238
-0.0001299
0.003818
-0.006815
0.002997
0.0009759
-0.0008311
-0.0001448
-0.1494
-0.1988
0.3483
1.05
-0.04428
-1.005
-0.002044
-0.0004531
0.002497
-0.001235
0.008787
2.283e-05
-8.839e-05
-0.001528
0.003143
0.0003443
-0.0003825
3.823e-05
0.0009796
-0.0003127
-0.0006669
0.0003094
0.0001874
-0.0004968
-0.01992
0.0237
0.002708
-0.004946
-1.126
-0.3863
1.512
-0.0001182
0.0002226
-0.0001044
0.02306
0.008617
-0.001065
0.0007996
0.0002653
7.983e-08
-0.00247
0.0007027
0.001767
-0.0002221
0.0002124
0.0002021
-0.0005107
1.258
-0.2788
-0.001843
0.002091
-0.000248
-0.0003426
-0.0005353
0.0008779
-2.035e-05
2.105e-05
-7.026e-07
-0.001104
-0.0002387
0.001343
0.0002511
-6.092e-06
-0.0002451
-6.322e-05
-1.953e-05
-0.0001086
0.0003255
-0.0002532
-0.0002583
0.0001323
-0.0004615
0.0003292
0.0005714
0.0003723
-0.0009437
0.0005929
-0.0007564
0.001386
-0.002393
0.001007
-0.003614
0.0002146
8.943e-05
-0.0005288
0.003129
-0.006035
0.002905
-1.5e-07
1.5e-07
-0.001012
-0.003805
-0.06591
0.02487
0.000174
-0.001422
0.001248
0.00018
0.0003406
-0.0005206
6.744e-07
0.001107
-0.001107
0.1019
0.3719
-0.4737
-5.037e-05
2.609e-05
2.428e-05
6.532e-06
0.0007188
-0.0005808
-6.804e-05
-1.51
0.5252
2.493e-06
7.067e-06
-0.0002501
4.969e-05
0.0003068
-0.000351
4.415e-05
-0.3884
-0.638
1.026
-2.96e-07
-5.254e-05
0.0001315
-0.0001616
3.018e-05
4.58e-05
-0.0001392
9.34e-05
1.449e-05
-9.825e-05
8.377e-05
-1.199
0.8104
-0.0005786
0.0003376
0.0002411
6.323e-06
-4.297e-06
-2.025e-06
7.863e-05
-0.0001199
4.123e-05
-0.0003566
0.0003619
-5.245e-06
-0.1577
0.06233
0.09534
5.265e-05
1.155e-05
1.087e-05
-0.0001054
9.453e-05
-0.1613
0.1677
-0.006361
0.002786
0.0005448
-0.003331
-0.00391
0.003808
0.0001019
9.729e-05
-3.682e-06
-0.0002765
-0.0001315
-0.002684
0.003851
-0.002808
0.0003382
-9.354e-06
-0.0002069
0.0002163
-7.305e-05
0.0001695
0.2821
0.5873
-0.8694
-0.0004091
-0.0001695
-0.0004649
0.0008129
-0.000348
0.0001043
-0.0001055
1.283e-06
-0.0001163
-0.0004574
-0.01308
0.01162
0.001462
-0.0008389
0.0001443
2.544e-05
8.434e-05
1.029
-0.7467
4.34e-05
-0.000333
-7.693e-05
-0.0001129
1.811e-05
-1.869e-05
5.864e-07
2.536e-07
-7.528e-07
2.411e-05
-6.005e-06
3.501e-05
4.716e-05
0.0002395
4.228e-05
-0.0002818
0.0002863
-0.0001883
-9.802e-05
-0.004603
0.001206
0.003397
0.1728
1.024
-7.544e-09
7.545e-09
0.0001087
0.0001444
-0.0002531
7.472e-05
-0.0001237
6.949e-05
-6.313e-05
-6.354e-06
-0.0001285
0.0003355
-0.000207
3.109e-05
-0.0001717
0.0001407
-0.0002783
4.431e-05
0.000234
-0.0005036
0.0004337
0.5596
0.8415
6.961e-05
0.0006171
-0.0006867
-0.00445
0.001265
0.003185
-1.505
0.3791
-0.0001466
0.0002541
-0.0001074
0.0001444
0.0005304
0.002056
-0.0007834
0.0009244
0.000329
-0.001253
0.1374
-1.017
0.8792
9.397e-05
-0.0004265
9.664e-05
-1.901e-05
-7.763e-05
-0.2743
-0.7142
0.8516
0.00661
0.002176
-0.0008133
0.001088
-0.0002751
0.0004541
0.0003753
-0.000187
-9.465e-06
0.0001965
-0.0005762
0.0005018
7.44e-05
5.567e-06
-4.713e-07
-5.096e-06
-0.00411
0.001022
0.003089
-0.004127
0.005624
-0.001497
-0.7988
-0.2697
-0.0004319
0.000111
0.0003209
-0.0003984
0.0001913
0.0002071
0.0003895
-0.0003216
-6.788e-05
9.631e-05
-0.0001862
0.002022
-0.001859
1.084
0.0859
-1.17
0.2754
-0.2115
0.07893
-0.1344
0.05543
-1.013e-05
2.412e-06
7.72e-06
0.04563
-0.8444
0.03362
-0.01812
-0.01551
-0.0001248
0.0002624
-0.0001377
-0.0008845
-0.00107
0.001954
0.0001303
5.716e-05
-0.0001874
-0.2156
0.8475
-0.632
-0.0001919
0.0001402
5.175e-05
-0.0004009
0.002268
-0.001868
-0.2383
-0.01783
0.2561
0.000245
0.0002405
0.6921
0.4737
-1.166
-0.0004246
-0.0002602
0.0006848
-8.595e-06
-1.412e-05
2.272e-05
7.154e-05
-3.453e-05
-3.701e-05
-0.0002176
-0.0004276
0.0006451
2.221e-05
1.416e-05
-3.637e-05
0.1862
-0.04869
-0.1375
6.809e-05
5.26e-05
-0.0001207
-0.009237
0.009378
-0.0001409
-0.0002252
-6.318e-05
-2.916e-07
5.674e-06
-5.382e-06
-0.0002088
-0.0001968
0.0004056
0.0002773
9.156e-05
-0.0003689
-0.006771
-0.006309
0.005399
-0.005991
0.000592
0.001922
-0.0003784
-0.001544
6.82e-05
-6.82e-05
-0.3399
0.1972
0.1427
-0.001177
0.002431
-0.001254
0.0007981
-0.0005097
-0.0002884
-0.000197
0.0003741
-0.0001771
7.057e-06
7.522e-06
0.0001213
-0.0001097
-1.157e-05
-0.1178
1.202
0.04744
-0.02958
-0.01786
-6.607e-05
-2.798e-05
-0.0002117
1.13e-05
0.0002004
-5.898e-06
8.223e-06
-2.326e-06
-0.000426
0.001206
-0.0007795
6.434e-06
-6.434e-06
-0.000251
0.000292
-4.1e-05
6.967e-06
-6.967e-06
-0.0003323
0.0001134
0.0002189
4.873e-05
2.947e-05
-7.82e-05
0.0005446
-0.000475
4.235e-05
-2.995e-05
-1.241e-05
0.09758
-0.07369
-0.02389
0.001836
-0.001392
-0.0004439
1.092
-1.516
0.424
1.319
-1.742
0.4231
-8.838e-05
-0.0001222
0.0002105
-0.04268
0.09132
-0.04864
7.165e-05
6.731e-06
-7.838e-05
-0.003955
0.001942
0.002012
-0.001037
0.000203
-0.007774
0.008788
-0.001014
0.04672
-0.1013
0.05463
-0.000641
3.655e-05
0.0006044
0.0006579
0.001002
-0.00166
0.2518
-0.005656
-0.0002931
0.0006438
-0.0003508
0.0002352
-0.000417
0.0001818
0.09385
-0.04713
0.0001089
-5.408e-05
-5.477e-05
1.547e-05
-1.547e-05
-0.0001136
1.659e-05
9.704e-05
0.0009124
-0.002903
0.001991
0.000162
-5.93e-05
-0.0001027
-3.037e-05
0.0001396
-0.0001092
-0.0001831
0.0001748
8.258e-06
-0.339
0.1239
0.2151
0.0001153
-4.135e-05
-0.0005145
-0.0005504
-0.04939
0.3508
0.0001132
-8.47e-05
0.0003645
-3.462e-05
-0.0003299
0.000513
-0.0008982
0.0003852
-0.4777
-0.5497
1.027
0.217
0.001635
-0.2187
0.001451
-0.001315
-0.0001362
1.524e-06
7.027e-07
-2.226e-06
0.0001329
-0.002225
0.002092
-1.528e-05
1.528e-05
0.0006688
-0.0003553
-0.0003135
0.0007675
-0.0002055
-0.000562
-0.001986
0.001821
0.0001658
4.661e-06
2.984e-06
-7.645e-06
0.0001022
2.562e-05
-0.0001279
-0.4119
1.373
-0.9615
-0.0001621
0.0002246
-6.252e-05
0.005264
-0.0004696
-0.004795
-0.3003
1.332
-1.032
-0.0006308
-0.0008474
0.001478
-3.3e-07
1.774e-07
1.526e-07
0.0008625
0.0006462
-0.001509
3.829e-05
-1.162e-05
-2.667e-05
0.006689
-0.003801
-0.002888
0.001239
0.003167
-0.004406
-1.031e-06
-1.676e-06
2.706e-06
2.526e-05
-2.526e-05
0.0005481
0.0002419
-0.00079
-0.08763
-0.05279
-0.4605
0.2239
0.2367
0.002911
-0.001107
-0.001804
-0.00145
0.001103
0.0003473
-8.59e-05
-0.0001602
0.0002461
0.0001497
-8.555e-05
-6.416e-05
-0.0005466
-9.686e-05
0.0006435
0.0003142
-0.0001487
-0.0001655
-0.00237
0.00213
0.0002399
-0.008978
0.0167
-0.007722
0.0001247
0.0001895
-0.03157
-0.01609
0.04765
2.776e-05
1.54e-06
-2.93e-05
0.137
-0.5754
0.4384
-0.0002476
-0.0003543
0.0006019
-1.815e-06
9.739e-06
-7.924e-06
0.0002762
-0.0003366
6.041e-05
-0.0002682
0.0002204
4.781e-05
0.0005223
-0.0002627
-0.0002596
-0.3822
0.09675
0.2854
-0.1897
0.05637
0.1333
5.385e-05
-9.01e-05
3.624e-05
0.007941
-0.008999
0.001057
-0.0001266
0.0002423
-0.0001156
0.0004353
-0.0007424
0.000307
7.797e-05
-0.0001499
7.188e-05
-0.0005722
0.0005549
1.727e-05
0.0002213
-7.599e-05
-0.0001453
7.052e-06
9.787e-06
-1.684e-05
-2.027e-05
9.733e-05
-7.706e-05
8.463e-05
-8.463e-05
-1.222e-05
-5.298e-05
6.519e-05
-3.629e-05
0.0002584
-0.0002221
-0.0001561
0.0001299
2.623e-05
-0.00281
0.004218
-0.001408
-0.0003723
0.0007957
-0.0004233
6.855e-05
0.0005948
0.0002294
-0.0002389
9.481e-06
-1.603e-07
-5.301e-06
5.462e-06
4.676e-08
6.878e-09
-5.364e-08
0.0006424
-0.000305
-0.0003374
-0.3191
0.421
0.5896
0.2179
-0.8074
0.0004547
-0.0006008
0.0001461
-9.327e-05
-0.0002812
0.0003745
0.004892
-0.0009174
-0.003975
-0.1885
1.18
-0.9913
0.0002786
0.0006475
-0.0009261
0.0004607
3.666e-05
-0.002537
-0.005807
0.008344
-9.463e-05
-5.771e-05
0.0001523
0.0005977
-0.0003923
-0.0002054
3.168e-05
-0.0001292
9.755e-05
0.00246
-0.002969
0.000509
0.7874
-0.6762
-0.008506
0.002826
0.00568
0.01239
0.0005662
-0.01295
0.000133
-1.594e-05
-0.0001171
4.654e-05
7.717e-05
-0.0001237
0.0001598
-0.0001212
-3.865e-05
-0.004571
0.001766
0.002804
0.0002768
-0.002615
0.002338
-3.753e-05
9.286e-05
-5.533e-05
-0.0006206
0.0009328
-0.0003122
-0.002253
-0.001527
0.00378
-0.001187
0.0004736
0.0007134
-0.0007337
-0.0001559
0.0008896
0.001742
-0.001425
-0.0003175
-0.0003909
0.0003319
5.9e-05
0.0002538
-0.0001823
-7.149e-05
0.2604
-0.3213
0.06087
2.567e-05
-1.438e-05
-1.13e-05
7.76e-07
2.884e-06
-3.66e-06
-0.0007308
0.000266
-1.372e-05
-0.0001346
0.0001483
-0.0001106
2.893e-05
0.02191
-0.1183
0.09636
1.892e-05
-1.892e-05
-8.958e-05
8.958e-05
-0.1667
-1.048
1.215
1.259
0.231
-1.49
0.0001193
-5.215e-05
-6.715e-05
-7.722e-05
0.0004868
-0.0004096
-1.193e-07
1.371e-07
-1.783e-08
-6.147e-06
-4.631e-06
1.078e-05
-0.0002033
0.002039
-0.0004801
0.0006299
-0.0001498
-0.0001422
-1.5e-05
0.0001572
-0.001143
-0.004219
0.005362
0.003633
0.005248
-0.008881
-0.1907
0.06348
0.1272
-0.0001458
9.772e-05
4.813e-05
-9.049e-06
0.0005148
-0.0005058
0.0001136
-0.0002316
0.000118
-0.004727
0.001056
0.003671
1.482e-06
-2.834e-06
1.352e-06
-0.0003204
0.0004404
-0.00012
0.8162
-1.148
0.3317
-0.0001062
0.0001062
-0.0002147
0.0001361
7.865e-05
0.1661
0.5631
-0.7292
-6.587e-05
1.092e-05
-1.288
1.121
0.2423
-0.4272
0.1849
-0.003177
0.002202
0.0009748
-0.01139
-0.002157
0.01354
-1.505e-05
9.169e-06
5.884e-06
0.7814
-0.9468
0.1653
0.0005298
-0.0002784
-0.0002514
0.4754
-0.1357
-0.3397
0.0004459
-0.00086
0.0004141
-0.01706
0.005653
0.0114
0.0004753
-0.0002957
-0.0001796
0.006229
-0.00327
-0.002959
-0.0001281
-0.0005317
0.0006597
-0.0005597
-0.0002275
0.0007872
-9.731e-05
-2.973e-05
0.000127
0.001846
0.0003857
-0.002231
0.149
0.651
-0.8
0.01136
0.06102
-0.07238
0.0003607
-0.0002165
-0.0001442
-0.0001623
-0.0008316
0.0009939
-6.675e-05
0.0002145
-0.0001477
-0.0001791
0.0001013
7.782e-05
4.95e-05
-2.964e-05
-1.985e-05
9.74e-05
2.451e-05
-0.0001219
1.59e-05
-1.59e-05
7.098e-05
-0.0001517
0.001126
-0.0008161
-0.0003097
2.287e-05
-6.073e-05
3.786e-05
-0.0007059
0.0004541
0.0002518
0.0001109
5.238e-05
-0.0001633
0.004997
-0.006121
0.001125
-0.000839
0.000315
0.0005239
0.4956
-0.3656
-0.13
0.000152
-0.000165
1.303e-05
1.302e-05
-3.533e-05
2.231e-05
-0.0003112
2.305e-06
0.0003089
0.4962
-1.094
0.598
-0.0005237
0.0001863
0.0003374
-0.0007205
0.0003961
0.0003244
-0.002307
0.0005956
0.001712
0.00153
-0.0006844
-0.0008459
2.221e-05
-9.46e-05
7.239e-05
0.001461
0.006791
-0.008252
-8.706e-05
9.961e-05
-1.255e-05
6.247e-05
0.000382
-0.0004445
-0.001153
-0.001155
3.917e-05
7.615e-05
-0.0001153
-0.0004636
-7.158e-05
0.0005352
-5.486e-06
5.194e-06
-1.182
0.5419
0.6396
0.002339
-0.004598
0.002259
0.0001312
-4.908e-05
-8.21e-05
0.1293
0.05755
-0.1868
0.0001671
-4.787e-05
-0.0001193
-7.049e-05
-1.865e-05
8.914e-05
-1.247
1.247
0.001555
0.002366
-0.003922
2.659e-05
-3.865e-05
1.206e-05
0.06916
-0.05306
-0.0161
0.006351
-0.001355
3.385e-05
6.394e-05
-9.779e-05
5.627e-05
-2.109e-05
-3.518e-05
0.01247
-0.009646
-0.002827
-1.269
0.5233
0.7453
-0.0001328
0.0002124
-7.958e-05
7.682e-05
-0.0001827
0.0001058
0.4031
-0.2555
-0.1476
-0.008191
0.005461
0.00273
0.0009231
-0.03069
0.02976
0.0003836
0.0001455
-0.0005291
0.0001273
4.455e-05
-0.0001719
-0.001557
-0.0007693
0.002327
-0.05429
-0.05412
0.1084
1.57e-08
6.229e-06
-6.244e-06
3.408e-08
7.374e-07
-7.715e-07
0.0001875
0.0005614
0.0003381
-0.001162
0.0008241
0.0005443
-0.0008464
0.0003021
2.868e-05
1.367e-05
-0.3926
1.239
-0.8468
0.0002328
-0.001141
0.0009084
0.3494
-0.006697
-0.3427
-0.0002551
0.0003674
-0.0001123
-0.001023
0.0009993
2.402e-05
-9.134e-05
-0.0001045
0.0001958
0.0004216
0.001109
-1.056e-06
2.913e-06
-1.857e-06
-1.545e-05
1.694e-05
-1.482e-06
-0.5584
0.2182
0.3402
-2.273e-06
2.273e-06
8.344e-05
-6.269e-05
-2.075e-05
-2.308e-05
8.813e-05
-6.505e-05
-0.001791
-0.0002103
0.002002
-0.0002045
0.0002979
0.0004157
0.0002352
-0.0006508
-0.001417
0.0008235
0.0005935
-0.0001994
0.0001649
3.446e-05
0.002078
-0.001443
-0.0006354
-0.0104
0.0251
-0.0147
5.406e-06
-5.406e-06
0.0002521
-0.0003137
6.159e-05
-0.000749
0.0003292
0.0004199
0.0002802
0.0001345
-0.0004147
0.001364
-0.001134
-0.0002299
0.000223
0.0003941
-0.000617