/*--------------------------------*- C++ -*----------------------------------*\
  =========                 |
  \\      /  F ield         | OpenFOAM: The Open Source CFD Toolbox
   \\    /   O peration     | Website:  https://openfoam.org
    \\  /    A nd           | Version:  8
     \\/     M anipulation  |
\*---------------------------------------------------------------------------*/
FoamFile
{
    version     2.0;
    format      ascii;
    class       volVectorField;
    location    "60";
    object      U;
}
// * * * * * * * * * * * * * * * * * * * * * * * * * * * * * * * * * * * * * //

dimensions      [0 1 -1 0 0 0 0];

internalField   nonuniform List<vector> 
127143
(
(0.001929 -8.418e-05 0)
(-9.862e-05 -0.0004629 -6.042e-24)
(-7.45e-05 -0.0003659 1.108e-23)
(-9.734e-05 -0.000447 -1.379e-27)
(0.007292 0.002273 -1.291e-22)
(-8.245e-05 -0.0004627 5.448e-27)
(0.03027 0.01867 0)
(0.01294 0.005997 -1.857e-22)
(0.01043 0.004994 6.146e-22)
(-0.002671 -0.0001085 0)
(0.03173 0.04352 6.111e-22)
(0.01949 0.01285 6.962e-22)
(0.0002786 -0.0001054 -2.257e-24)
(-0.0001279 -0.0005079 0)
(0.1213 -0.1003 1.387e-20)
(0.04353 -0.004013 0)
(-0.0002407 -0.001103 -1.799e-23)
(-0.07142 -0.0697 3.194e-20)
(-0.1948 -0.01015 0)
(0.05357 0.008786 0)
(-0.1627 0.04447 6.122e-21)
(-0.00112 0.0002815 0)
(1.006 -0.147 0)
(0.6174 -0.05921 0)
(-0.001149 0.0003497 -2.113e-22)
(0.2257 -0.03482 0)
(-0.01877 0.0002903 1.23e-20)
(-0.01883 -0.0005726 -1.849e-22)
(0.2424 -0.1083 0)
(0.2213 -0.0749 -1.778e-20)
(0.5007 -0.02961 0)
(0.2193 -0.03226 -3.334e-21)
(0.04715 0.01241 2.178e-21)
(-0.04109 0.01094 -1.426e-20)
(0.8923 -0.09113 1.927e-20)
(0.0439 0.01465 -5.065e-24)
(-0.2432 0.08547 5.46e-21)
(0.2243 0.02458 -4.746e-21)
(0.7307 -0.06555 -1.828e-21)
(0.2223 -0.0101 3.232e-25)
(-0.1956 -0.01268 0)
(1.009 0.4046 -3.65e-21)
(0.9941 0.3941 2.528e-21)
(0.000582 -0.0001976 0)
(-0.07687 -0.06255 -2.816e-20)
(-0.04296 0.009903 4.571e-21)
(0.245 -0.1138 0)
(-0.2448 0.08702 -7.366e-22)
(0.7162 -0.1256 5.092e-22)
(0.6996 -0.05569 -1.239e-21)
(0.05166 -0.00371 -1.979e-22)
(0.9855 -0.03825 2.552e-20)
(-0.07261 -0.001481 0)
(1.128 0.1674 -7.036e-21)
(1.002 -0.000722 1.616e-20)
(0.5581 -0.1382 1.838e-23)
(1.002 -0.0007176 -1.455e-20)
(1.119 -0.08035 0)
(1.009 -0.006811 -1.243e-20)
(1.126 0.1682 -1.365e-20)
(0.5562 -0.1066 -6.791e-20)
(-0.1794 0.07446 -1.15e-21)
(1.056 -0.0731 4.978e-21)
(1.001 0.0004531 2.162e-20)
(-0.09192 0.01024 0)
(0.9008 -0.2411 -5.148e-21)
(1.051 0.1441 2.035e-20)
(1.019 -0.07577 0)
(1.026 -0.07536 1.324e-21)
(0.9894 -1.998e-05 0)
(0.5597 -0.04161 0)
(-0.02028 0.0003183 -5.801e-21)
(-0.2056 -0.05902 -7.227e-21)
(1.01 -0.006673 -6.916e-21)
(1.003 0.002632 -4.342e-22)
(-0.02042 -0.000404 5.795e-21)
(1.003 0.03347 -2.608e-21)
(-0.2298 0.07856 0)
(0.5776 -0.1492 5.679e-23)
(1 0.0005329 0)
(0.2355 -0.1066 1.708e-23)
(0.06002 0.007399 4.503e-23)
(-0.07811 0.01836 6.996e-21)
(0.2739 -0.0192 0)
(-0.1746 -0.0177 1.322e-21)
(-0.2338 0.08131 0)
(0.8251 -0.08193 -3.386e-21)
(-0.02616 -0.002398 3.248e-21)
(0.8998 -0.2386 0)
(1.124 0.66 0)
(1.005 -0.003613 0)
(1.117 0.07613 0)
(1.112 0.6469 0)
(-0.1621 0.04425 -6.294e-21)
(-0.1469 0.03108 0)
(1.059 0.06686 2.507e-20)
(1.011 0.3983 7.663e-21)
(0.3663 -0.0274 0)
(-0.2151 0.06935 2.431e-21)
(1.047 0.1439 0)
(1 0.0005188 0)
(0.745 -0.1337 0)
(0.8507 0.7831 -8.935e-22)
(1.087 -0.1211 0)
(-0.2342 0.08163 -1.392e-21)
(-0.2155 0.06941 3.484e-21)
(0.9876 -0.1535 -3.05e-21)
(0.9886 5.138e-05 0)
(0.7402 -0.2845 0)
(1.002 -0.000529 2.261e-20)
(0.1325 -0.1039 -4.307e-21)
(-0.02611 -0.002001 6.24e-21)
(-0.1573 0.03778 -6.328e-21)
(0.2784 0.409 0)
(0.9954 0.006863 1.685e-20)
(1.044 -0.1661 -5.592e-22)
(0.9837 0.03288 -1.191e-20)
(1.003 0.002733 -1.484e-20)
(1.003 0.03262 1.802e-21)
(-0.001096 -0.004704 0)
(1.002 -0.0005633 -3.161e-20)
(-0.07988 0.02132 -1.976e-21)
(0.8424 -0.303 0)
(1.098 -0.08811 1.672e-20)
(0.2494 -0.1113 5.414e-22)
(0.1567 -0.02079 -9.852e-21)
(-0.1906 0.06597 0)
(1.031 0.009105 8.872e-20)
(-0.09111 0.01313 -1.419e-21)
(0.5626 -0.1632 -3.005e-22)
(-0.1992 0.06122 0)
(-0.1533 0.03607 -4.687e-21)
(1.1 -0.0939 -1.134e-20)
(-0.2302 0.07883 0)
(-0.0003589 -0.001951 -9.862e-23)
(-0.2009 0.06177 -2.317e-21)
(1.09 -0.03327 0)
(-0.1431 0.0409 1.482e-21)
(0.2967 -0.1685 -4.707e-21)
(1.102 0.01637 8.751e-21)
(0.9783 -0.1771 1.83e-21)
(0.9835 0.02141 5.801e-20)
(-0.05273 0.03372 2.657e-22)
(-0.0755 0.02907 -4.104e-21)
(-0.07033 -0.001508 -6.579e-22)
(1.131 0.4218 3.147e-21)
(-0.03376 0.2027 2.588e-21)
(1.001 0.000393 -1.939e-20)
(-0.1513 0.03563 4.137e-21)
(0.7755 0.6606 -5.146e-22)
(1.094 -0.1136 -4.218e-21)
(0.784 -0.1564 0)
(0.4141 0.04144 1.601e-20)
(0.8656 -0.1522 0)
(0.3655 -0.2484 0)
(-0.1771 -0.0177 0)
(1.12 -0.07944 -5.911e-21)
(0.5432 -0.1889 0)
(-0.2446 0.08691 -1.384e-21)
(0.323 -0.02894 1.993e-21)
(0.6059 -0.03825 0)
(0.06467 -0.03273 6.162e-21)
(1.005 -0.003183 -2.443e-22)
(-0.2 0.06152 -5.955e-21)
(0.3418 -0.09142 0)
(-0.0989 0.01154 8.824e-21)
(-0.2349 0.08241 -3.719e-21)
(0.7237 -0.2484 1.493e-20)
(0.2546 0.08463 -3.617e-21)
(0.9397 0.03219 -6.959e-21)
(-0.0455 0.01378 0)
(-0.07669 0.02977 1.91e-21)
(1.036 -0.1763 -1.524e-21)
(0.9298 -0.2626 -1.108e-21)
(0.9761 -0.0002983 3.993e-20)
(-0.1036 0.005295 3.452e-23)
(1.115 0.4662 -6.017e-22)
(-0.09147 0.01346 -1.368e-21)
(0.6825 -0.0686 0)
(1.007 -0.0163 4.488e-21)
(0.929 -0.2631 -3.761e-22)
(1.016 0.009511 0)
(-0.08134 -0.01282 5.176e-22)
(-0.1032 0.004118 -3.493e-23)
(0.5755 -0.17 7.291e-22)
(-0.1765 0.07389 2.066e-21)
(0.9757 0.2627 -1.06e-21)
(0.2923 0.4245 -7.75e-21)
(0.6457 -0.06278 -3.944e-21)
(1.027 -0.02404 4.323e-20)
(-0.08965 0.02089 5.68e-22)
(-0.08581 -0.0006817 -4.31e-21)
(1.087 -0.03245 7.393e-20)
(0.3666 0.7568 -1.423e-21)
(-0.000221 -0.002053 1.645e-22)
(-0.1673 0.0567 0)
(1.003 -6.93e-07 0)
(0.9992 -3.906e-06 1.238e-22)
(0.02179 0.007966 0)
(0.9901 0.009444 4.992e-21)
(1.008 0.007476 2.05e-20)
(0.9368 -0.008366 1.013e-19)
(0.9643 -0.04384 1.214e-20)
(-0.2445 0.08591 -2.564e-21)
(-0.0001753 -0.0009795 2.417e-24)
(0.947 -0.05886 5.526e-21)
(1.029 -0.09688 -5.218e-21)
(1.033 -0.1789 5.217e-22)
(0.3103 -0.09525 1.545e-20)
(0.9955 0.006609 -8.723e-21)
(1.175 0.01255 1.844e-20)
(-0.1567 -0.008046 7.963e-22)
(0.9982 -0.005225 5.589e-21)
(0.2753 0.08929 -3.791e-21)
(-0.1761 0.05403 4.629e-24)
(0.0332 0.001481 0)
(-0.03976 0.01344 -1.616e-21)
(1.019 -0.1942 -1.748e-21)
(-0.1699 0.04455 -5.61e-21)
(1.031 -0.0956 -1.411e-21)
(1.108 0.4623 -1.264e-21)
(1 0.003861 -1.97e-20)
(0.7717 -0.151 3.41e-22)
(-0.05483 -0.006448 7.127e-22)
(0.3001 -0.02778 0)
(-0.06227 0.02091 0)
(0.4231 -0.1094 -9.752e-23)
(0.2652 0.03035 5.35e-21)
(-0.1423 0.049 3.435e-21)
(-0.2099 0.07047 3.531e-21)
(-0.1618 0.04317 3.871e-21)
(1.017 0.008361 -1.782e-20)
(-0.2113 -0.05905 1.441e-20)
(-8.988e-05 -0.01146 0)
(-0.1617 0.04331 0)
(1.086 -0.07422 1.717e-20)
(-0.2 0.06153 2.868e-21)
(0.004997 -0.0007698 1.035e-22)
(1.009 0.007299 -1.909e-20)
(-0.08517 0.03293 2.717e-21)
(-0.08715 -0.0004197 3.86e-21)
(-0.09273 0.009205 -1.425e-20)
(-0.197 0.04931 -3.541e-22)
(0.5632 -0.1976 1.854e-24)
(0.2183 0.02709 0)
(-0.0008765 -0.004854 2.648e-26)
(0.9016 -0.1806 -1.608e-21)
(-0.01976 0.0003641 0)
(-0.009254 0.002549 2.323e-21)
(1 1.462e-05 -8.069e-22)
(1.106 0.3585 -1.131e-20)
(0.2258 -0.02493 6.778e-21)
(0.9848 -0.2259 0)
(-0.1277 0.03474 0)
(0.7111 -0.1718 -1.982e-22)
(0.7572 -0.2869 0)
(1.03 0.00855 -6.953e-20)
(0.6452 0.2271 0)
(0.9645 -0.2371 0)
(0.8494 0.1779 1.583e-20)
(-0.1526 0.05269 -2.977e-21)
(1.021 -0.01102 1.471e-20)
(1.152 0.08322 -1.734e-22)
(0.9831 0.02042 -4.637e-20)
(0.06683 0.01088 0)
(-0.09414 0.0103 -4.575e-21)
(-0.1397 0.0457 1.047e-20)
(0.3385 -0.2497 0)
(0.6068 -0.211 3.94e-20)
(1.16 0.1879 -4.601e-21)
(0.3711 -0.06784 0)
(0.9715 -0.001068 -4.816e-20)
(-0.242 0.08338 -1.088e-21)
(-0.08647 0.03299 -2.926e-21)
(1.12 -0.07209 8.497e-21)
(-0.08864 0.02106 -2.676e-21)
(-0.1572 0.03792 0)
(0.8016 -0.1272 3.988e-21)
(0.9497 -0.001149 -3.693e-22)
(0.9175 -0.2623 1.373e-21)
(1.004 -0.0002547 -1.246e-22)
(1.057 0.07103 2.812e-21)
(1.088 -0.1206 -1.256e-23)
(0.9959 0.0008966 0)
(1.001 0.008648 -4.006e-21)
(-0.000898 -0.002166 -2.382e-23)
(-0.1826 0.05271 0)
(0.9954 0.007645 9.521e-21)
(0.7573 -0.1078 3.15e-21)
(1.006 -0.01633 5.483e-21)
(0.4537 0.03863 -2.079e-20)
(0.9987 -0.1832 0)
(1.085 -0.07517 -1.697e-20)
(1.021 -0.1916 0)
(1.002 -0.005607 -1.191e-21)
(0.7288 -0.2977 -3.974e-22)
(0.4752 -0.03594 3.473e-21)
(-0.008654 -0.0216 -6.83e-22)
(-0.1976 0.04985 1.366e-21)
(1.159 0.1879 3.368e-21)
(0.3627 -0.04268 -1.902e-21)
(0.9458 -0.2223 -4.519e-22)
(0.8245 -0.2383 -9.009e-21)
(1.044 -0.1658 5.426e-21)
(0.2859 -0.02053 0)
(0.5445 -0.3067 5.363e-23)
(1.034 -0.1785 1.754e-22)
(0.9981 -0.005452 0)
(-0.0394 0.03916 -1.692e-23)
(1.09 -0.1121 -4.957e-21)
(0.962 -0.148 -3.731e-21)
(0.005293 -0.03283 -2.651e-22)
(0.526 -0.1258 0)
(1.003 -0.0003849 6.495e-22)
(0.9935 0.0006699 -1.867e-20)
(1.161 0.4895 5.871e-22)
(0.09905 0.02421 2.181e-21)
(0.3456 -0.03893 4.896e-21)
(1.155 0.09386 2.115e-20)
(0.8746 -0.01255 -2.608e-21)
(1.005 -0.146 0)
(0.5384 -0.03692 -5.637e-21)
(1.055 0.0222 2.042e-20)
(0.9853 -0.2256 -2.476e-22)
(1.161 0.4881 0)
(0.07578 0.03028 -4.364e-21)
(0.9251 -0.05315 4.191e-20)
(0.03022 -0.01187 -5.4e-24)
(0.5775 -0.02254 2.552e-21)
(1.088 0.5109 4.719e-21)
(-0.2093 0.07892 0)
(1.001 0.008561 2.748e-21)
(0.8974 -0.09162 -7.543e-20)
(1.003 5.441e-06 0)
(0.9992 -5.126e-06 0)
(0.8649 -0.1487 0)
(0.7511 -0.2851 -2.586e-21)
(1.035 -0.1764 -1.493e-21)
(-0.2098 0.07933 -1.418e-21)
(-0.1723 0.04882 -1.791e-20)
(1.1 0.0137 -3.985e-20)
(1.019 -0.1939 0)
(-0.05252 0.006562 5.963e-22)
(-0.0871 0.02014 4.121e-22)
(0.2572 0.04034 -1.299e-23)
(0.746 -0.1033 -2.062e-21)
(-0.114 0.02727 -5.713e-21)
(-0.148 0.03218 2.364e-21)
(0.3975 -0.04855 -3.152e-21)
(-0.08847 0.01428 0)
(0.4236 -0.04633 2.433e-21)
(-0.1127 0.044 5.706e-21)
(-0.1325 0.02562 -7.034e-22)
(-0.08817 0.02021 1.881e-21)
(0.9209 0.03057 0)
(-0.122 0.03014 -1.363e-20)
(-0.1291 0.03513 -2.139e-21)
(1.129 0.3991 -2.88e-21)
(1.004 -0.004612 3.999e-21)
(0.559 -0.02159 0)
(-0.2368 0.07569 -1.816e-21)
(1.076 -0.07416 1.469e-21)
(0.3119 -0.03711 -4.041e-20)
(0.7227 -0.05199 0)
(0.7085 -0.05943 -3.482e-21)
(1.001 0.002028 5.456e-24)
(0.9905 0.009261 -1.483e-20)
(0.8891 0.0007814 0)
(-0.07972 0.01504 4.094e-21)
(0.9568 -0.0007192 0)
(0.442 -0.09904 5.708e-20)
(1.056 0.02023 -4.444e-20)
(0.2754 -0.02988 -5.704e-21)
(0.6911 -0.05008 4.707e-21)
(1.027 -0.02258 0)
(1.128 0.08115 -4.725e-22)
(0.5158 -0.04852 3.095e-21)
(0.009636 -0.01435 2.727e-26)
(-0.2191 0.07341 -6.404e-21)
(0.9553 -0.004452 3.416e-21)
(0.2328 0.01581 -4.569e-20)
(0.1832 -0.02112 9.743e-21)
(0.4442 -0.05424 0)
(0.9439 -0.2245 -1.921e-21)
(0.9844 0.03162 0)
(0.09585 -0.007249 0)
(0.9382 0.1293 0)
(0.2357 -0.01166 0)
(-0.1698 0.05705 -8.98e-22)
(0.1245 0.02276 -1.76e-20)
(1.01 -0.004888 -3.561e-20)
(0.7931 -0.2146 0)
(-0.0974 0.0325 3.026e-21)
(0.7153 -0.1835 -1.024e-22)
(0.644 -0.05697 6.166e-21)
(0.4778 -0.0315 4.145e-21)
(0.7974 -0.2162 -7.387e-21)
(0.5363 -0.03089 0)
(0.9202 0.02883 0)
(1.02 -0.0115 0)
(0.2449 -0.02045 -1.803e-21)
(1 0.003664 7.3e-21)
(-0.1475 0.03823 0)
(-0.08409 -0.01276 0)
(0.9426 0.1317 0)
(1.077 -0.1272 3.128e-21)
(-0.2337 0.08174 -7.21e-21)
(1.089 -0.1002 7.735e-21)
(1 0.0003888 -8.879e-20)
(0.725 -0.07509 0)
(0.7427 -0.316 0)
(0.4028 -0.05543 -3.845e-21)
(0.9795 -0.1759 -1.891e-21)
(-0.2408 0.08694 0)
(0.8421 -0.3017 0)
(-0.1473 0.03124 -3.513e-21)
(-0.1983 0.05934 -5.614e-21)
(0.3254 -0.06577 0)
(0.6021 0.06717 3.67e-21)
(0.7589 -0.3037 -1.069e-21)
(-0.2366 0.08335 0)
(-0.03857 0.01357 -5.695e-21)
(-0.1576 0.04708 0)
(1.003 0.0002326 -2.481e-22)
(-0.211 0.0707 -4.37e-21)
(0.8918 0.2228 -9.025e-21)
(0.9902 0.3838 3.197e-22)
(0.9477 -0.1676 -5.644e-21)
(-0.09656 0.01046 1.466e-20)
(1.012 -0.1194 2.253e-21)
(1.003 -0.0001326 0)
(-0.1596 0.04824 0)
(-0.13 0.02679 0)
(1.068 -0.001653 1.002e-19)
(0.8897 0.1777 5.89e-22)
(1.001 0.001999 -7.937e-22)
(1.051 -0.1576 3.555e-21)
(-0.1227 0.02818 -1.011e-20)
(0.986 -0.03703 -9.755e-21)
(1.001 -0.005669 0)
(0.9994 -0.001171 -3.206e-21)
(0.7348 -0.05943 1.777e-21)
(1.089 -0.038 -2.583e-20)
(0.7518 -0.2903 4.604e-21)
(0.9599 0.02185 0)
(0.387 -0.028 -2.504e-22)
(0.9917 -0.0005338 4.181e-20)
(0.4619 -0.3096 0)
(0.8687 -0.003219 -1.797e-21)
(-0.1563 -0.009914 7.836e-22)
(-0.1846 0.05485 0)
(0.5101 -0.06619 -2.244e-23)
(1.079 -0.1265 -9.07e-21)
(-0.0686 0.01299 2.525e-20)
(0.8608 0.05472 1.465e-22)
(-0.2435 0.08395 -7.966e-22)
(0.3442 -0.04074 -1.828e-21)
(-0.09331 0.008375 0)
(-0.2471 0.08688 0)
(0.9329 0.1153 3.226e-21)
(1.104 -0.0944 3.621e-21)
(-0.04883 0.01326 2.472e-21)
(-0.02858 0.03428 0)
(0.3423 0.3749 -3.179e-20)
(-0.05676 0.01308 3.555e-25)
(0.9923 -0.0005442 0)
(0.9995 0.02171 0)
(-0.1182 0.02942 0)
(-0.1022 0.02737 6.961e-21)
(1 -0.0001066 0)
(-0.2101 0.06806 2.733e-21)
(1.168 0.09846 1.676e-20)
(1.099 -0.08661 -2.527e-20)
(0.1199 0.02323 -7.784e-22)
(1.032 -0.0808 -8.195e-21)
(1.003 -6.809e-05 0)
(0.2994 -0.1923 -2.532e-20)
(1.167 0.09981 -1.613e-20)
(-0.1521 0.05309 -2.283e-21)
(0.009764 0.008645 1.465e-22)
(0.2357 -0.1257 4.322e-22)
(0.4473 -0.3024 -2.659e-21)
(-0.06231 0.01488 3.729e-21)
(0.5242 -0.1259 0)
(0.7438 -0.3098 0)
(0.9295 0.1855 -5.739e-22)
(0.06899 0.02571 -1.212e-22)
(1.008 0.002442 2.63e-20)
(0.369 -0.03318 -3.358e-21)
(0.975 0.002491 3.79e-20)
(1.148 0.4899 1.946e-22)
(0.8623 -0.08576 2.934e-21)
(-0.08114 -0.007341 0)
(1.132 0.412 1.399e-21)
(-0.0002961 -0.001654 0)
(-0.1947 0.0603 7.552e-21)
(0.3084 0.2239 8.249e-21)
(1.108 -0.02773 -2.619e-22)
(0.9278 0.6034 3.486e-21)
(0.9971 -0.003602 -4.31e-20)
(0.2314 -0.1283 0)
(1 0.02187 -6.738e-24)
(-0.1934 0.05341 0)
(-0.1624 0.05582 -3.281e-21)
(-0.0002106 -0.001198 0)
(0.0005533 -0.003187 1.361e-22)
(0.002164 -0.0007814 -4.544e-23)
(1.001 -0.000285 -2.267e-20)
(-0.1245 0.03094 0)
(0.3628 0.09375 0)
(0.9937 0.0008555 3.67e-20)
(-0.2304 0.08094 2.786e-21)
(0.8405 -0.3039 3.908e-21)
(-0.215 0.07177 6.968e-21)
(1.061 -0.1492 0)
(-0.1852 0.05484 0)
(0.5015 -0.06161 -2.217e-21)
(-0.2098 0.06778 -2.789e-21)
(-0.02699 0.005024 1.304e-21)
(0.9978 -0.0002685 0)
(-0.1289 -0.02039 -1.039e-21)
(-0.0005976 0.0001712 0)
(0.7211 -0.2932 7.335e-22)
(0.3867 -0.03846 1.271e-21)
(-0.04966 0.01453 1.284e-21)
(1.01 -0.006218 -1.068e-20)
(1.095 -0.1132 -4.611e-21)
(0.986 -0.04371 -4.11e-21)
(-0.01662 0.03279 5.108e-21)
(1.001 -0.002496 0)
(0.3298 -0.02462 0)
(0.4915 0.2313 0)
(-0.1203 0.0406 -4.459e-21)
(0.9993 1.016e-05 0)
(-0.1187 0.02993 -1.715e-21)
(1.071 -0.09859 -1.274e-20)
(-0.01104 0.0005664 1.616e-25)
(0.7161 -0.3146 2.043e-21)
(0.2893 0.096 8.683e-22)
(-0.0184 0.0356 -2.02e-21)
(0.9743 -0.004611 2.41e-21)
(-0.2008 0.07041 -2.49e-21)
(0.8213 -0.2997 -2.318e-21)
(1 -0.0001068 2.35e-21)
(0.9451 -0.2241 2.6e-21)
(0.6944 0.07798 -1.975e-20)
(0.5163 -0.04275 -2.767e-21)
(0.7383 -0.05084 2.454e-21)
(-0.09389 0.02519 -7.321e-21)
(-0.09261 0.03186 1.915e-21)
(-0.1674 0.05651 1.604e-21)
(1.101 0.1909 0)
(0.7893 -0.3086 9.832e-22)
(-0.2289 0.07887 0)
(-0.1651 0.04982 2.05e-22)
(1.016 -0.0008774 -5.653e-21)
(0.2599 -0.01252 6.115e-22)
(-0.1935 0.05737 -3.032e-21)
(0.3839 -0.0605 4.868e-21)
(1.066 -0.1129 -6.923e-21)
(-0.2201 0.06262 1.439e-21)
(1 0.0008574 0)
(0.9998 0.001053 1.572e-20)
(0.8561 0.1706 -2.545e-20)
(-0.1105 0.02638 -2.85e-21)
(0.908 0.6316 0)
(0.9924 0.001102 -2.504e-20)
(1.003 4.229e-06 -4.084e-22)
(0.8306 -0.2909 0)
(0.6199 -0.2721 0)
(-0.2362 0.08307 2.359e-21)
(0.7427 -0.3103 0)
(-0.09581 0.03277 7.124e-21)
(-0.02673 0.008881 0)
(0.9938 -0.2131 3.45e-22)
(1.003 0.02876 0)
(1.001 -0.000265 4.007e-21)
(-0.1336 0.04679 3.795e-21)
(-0.2075 0.06508 -2.146e-21)
(0.9828 -0.2263 -7.389e-22)
(1.002 -0.0006787 6.594e-21)
(-0.0218 0.0003498 2.831e-21)
(1.089 -0.1062 0)
(-0.1572 0.04357 6.755e-21)
(0.9549 -0.003109 9.652e-21)
(0.2613 -0.03234 4.353e-22)
(0.9923 0.0008601 4.601e-20)
(-0.2335 0.08187 -1.166e-21)
(-0.08634 -0.01858 0)
(0.0824 0.02718 3.296e-22)
(1.001 -1.55e-05 1.705e-22)
(-0.1558 0.05225 -1.139e-20)
(-0.1517 0.05199 -7.057e-22)
(0.1074 -0.06263 -7.09e-21)
(1.003 -6.351e-05 -9.987e-22)
(0.9997 -0.1564 3.139e-21)
(-0.04034 0.01341 7.555e-22)
(0.9995 -0.001217 0)
(1.077 -0.1274 0)
(0.9927 0.005826 -9.325e-22)
(0.8694 -0.05757 3.459e-21)
(0.04516 0.03339 0)
(0.9961 0.0007693 2.541e-20)
(-0.08826 0.02168 1.642e-20)
(0.5691 -0.07728 2.009e-21)
(0.004442 -0.03226 0)
(-0.1163 0.03141 -5.833e-21)
(-0.03024 0.03273 -5.635e-22)
(0.4441 -0.04878 -7.294e-21)
(0.4574 -0.05548 -2.212e-21)
(0.2578 -0.1021 -3.012e-20)
(0.7591 -0.07065 -1.509e-21)
(1.105 0.643 7.182e-22)
(0.7749 -0.03796 -2.753e-21)
(-0.1514 0.03882 -8.153e-22)
(-0.03141 0.00328 -1e-21)
(0.3197 -0.02901 1.568e-21)
(1.002 -0.000658 0)
(0.552 -0.116 7.617e-22)
(0.9949 0.0008102 -1.048e-20)
(0.2705 0.05678 -2.038e-20)
(1.03 0.0235 3.262e-20)
(-0.04823 0.0334 3.748e-21)
(1.003 -0.000155 0)
(0.9952 0.007467 2.353e-20)
(1.122 -0.07938 2.83e-20)
(0.7633 -0.3061 5.507e-22)
(-0.1663 0.04323 2.951e-21)
(1.003 -0.0003376 5.857e-21)
(1.002 -0.0009349 -9.475e-21)
(-0.1484 0.05046 -2.916e-21)
(-0.02461 -0.00154 0)
(-0.09386 0.02172 6.994e-21)
(0.3827 -0.03142 -4.533e-21)
(-0.2164 0.02207 0)
(0.7514 -0.2895 -3.881e-21)
(-0.1864 0.05569 -4.424e-22)
(0.7424 -0.3169 0)
(-0.08621 0.02058 -5.75e-23)
(-0.1405 0.04287 -2.779e-20)
(-0.07555 0.007475 0)
(1.003 -0.0003555 -1.041e-21)
(-0.09029 0.007868 1.08e-20)
(-0.08295 0.02842 2.048e-22)
(1.043 -0.1606 -1.442e-21)
(1.131 0.1401 0)
(1.004 -0.002007 4.376e-21)
(1.003 6.252e-06 3.832e-23)
(0.1031 0.03057 -4.248e-21)
(0.3368 -0.1915 4.479e-24)
(0.06887 0.02646 6.038e-22)
(-0.02123 0.006516 1.341e-21)
(1.029 0.0241 0)
(1.003 -3.305e-05 7.973e-23)
(-0.1973 0.0632 0)
(-0.114 0.01287 0)
(0.9396 -0.007987 -8.046e-20)
(-0.07951 0.006078 -4.365e-21)
(1.041 -0.1372 0)
(0.9979 0.01732 -8.401e-21)
(-0.1075 0.03301 1.111e-20)
(0.9788 -0.2274 8.715e-23)
(-0.08075 0.02827 1.289e-21)
(0.8644 -0.1773 -2.764e-20)
(0.000565 -0.0001803 0)
(-0.06602 0.02162 0)
(-0.2471 0.08695 -7.004e-22)
(-0.2435 0.08412 1.487e-21)
(-0.1832 0.05277 0)
(-0.09624 0.02632 6.881e-21)
(0.2987 -0.04226 -9.949e-22)
(-0.07999 0.0189 0)
(0.9766 -0.03164 -7.39e-21)
(-0.09465 0.006884 4.858e-21)
(-0.03485 -0.01224 0)
(-0.1466 0.03836 -3.095e-21)
(1.002 -0.0006677 2.159e-20)
(0.8322 -0.1295 -2.858e-21)
(0.8815 -0.2352 0)
(0.5886 -0.03199 -2.665e-20)
(0.9993 -2.946e-06 4.648e-23)
(1.002 -0.0006931 -2.876e-20)
(0.0003518 -0.01252 0)
(1.108 -0.02541 -8.226e-21)
(0.6052 -0.1128 1.806e-21)
(-0.08193 0.01458 -3.489e-22)
(0.6019 -0.3311 0)
(-0.04045 0.03861 9.667e-21)
(1.133 0.2107 0)
(0.3388 -0.02878 1.929e-21)
(0.7084 -0.04203 4.208e-20)
(0.7193 -0.195 0)
(1.008 0.002202 -9.532e-21)
(1.003 -0.0003874 0)
(1.107 0.3767 0)
(0.9001 0.2247 0)
(-0.0878 0.01745 9.502e-22)
(0.5959 -0.04316 0)
(0.4343 -0.1789 2.322e-21)
(-0.2261 0.05459 0)
(0.6951 -0.2879 -1.864e-21)
(1.172 0.01137 1.172e-19)
(0.361 -0.03821 6.021e-20)
(1.002 2.416e-05 -8.365e-23)
(0.4279 -0.02803 -1.249e-21)
(1.034 -0.07987 -1.271e-21)
(0.6714 -0.1569 3.221e-22)
(-0.0005235 -0.00243 2.324e-23)
(1.043 -0.1603 1.048e-21)
(0.09885 0.01747 -7.989e-21)
(-0.2183 0.07329 6.466e-21)
(1.001 -5.505e-06 -1.596e-22)
(1.037 -0.1105 1.234e-22)
(0.6928 -0.05928 -4.078e-21)
(-0.03757 0.01293 0)
(-0.1266 -0.03671 8.215e-21)
(-0.07145 0.03454 2.85e-21)
(-0.08603 0.02131 -8.751e-22)
(0.8299 0.6982 0)
(-0.1984 0.05934 5.39e-21)
(0.6215 -0.3309 3.61e-21)
(-0.192 0.05427 -1.727e-21)
(0.7623 -0.1871 -5.978e-23)
(1.004 -0.1068 3.497e-21)
(1.091 -0.1122 2.343e-21)
(-0.1888 0.06548 2.901e-21)
(1.02 -0.1725 -3.117e-21)
(0.002562 -0.0001533 0)
(0.8791 -0.2365 0)
(0.9404 0.02879 3.39e-20)
(0.9569 -0.2167 3.062e-22)
(0.7623 -0.324 3.212e-21)
(0.8706 -0.08994 -9.052e-22)
(1.005 -8.264e-05 0)
(-0.06163 -0.01094 -3.929e-22)
(-0.1057 0.04458 -1.139e-20)
(-0.2363 0.08328 -2.192e-21)
(1.004 -1.658e-05 -1.468e-22)
(-0.02078 0.007688 0)
(-0.1641 0.05025 0)
(0.2637 -0.03588 7.335e-21)
(1.003 3.12e-05 5.085e-22)
(-0.07518 0.01776 8.399e-21)
(-0.1846 0.05509 0)
(-0.1235 0.02468 9.512e-21)
(-0.1062 0.0027 -2.597e-21)
(1.002 -2.92e-05 -4.359e-22)
(-0.2303 0.08157 -3.692e-21)
(-0.02367 0.00105 0)
(-0.08884 0.0251 1.356e-20)
(-0.128 0.03426 0)
(0.9889 0.01006 -5.951e-21)
(-0.05146 0.005568 5.434e-22)
(0.1105 0.02661 0)
(1.016 0.003714 -1.102e-20)
(1.026 -0.1867 -1.628e-21)
(1.002 -0.2005 0)
(-0.09711 0.02685 -6.601e-21)
(-0.1954 0.06041 0)
(0.9458 -0.2208 -1.554e-21)
(1.041 -0.1603 0)
(0.195 -0.02296 1.244e-21)
(-0.1527 0.04855 0)
(0.9998 -1.78e-05 -4.424e-22)
(-0.2308 0.0817 3.5e-21)
(-0.2074 0.08062 5.719e-22)
(0.2326 -0.01895 0)
(0.438 -0.06323 2.95e-21)
(1.131 0.163 0)
(-0.2295 0.08043 0)
(-0.09838 0.03397 4.852e-22)
(0.9996 2.246e-06 2.387e-22)
(-0.2173 0.0728 -6.56e-21)
(-0.1087 0.03272 0)
(0.005031 0.0173 0)
(0.0007169 -0.01357 -2.602e-23)
(0.0103 0.0173 -5.566e-22)
(-0.1221 0.04163 6.852e-21)
(-0.1424 0.0324 -6.391e-22)
(-0.1841 0.03743 0)
(0.9869 -0.2194 0)
(1.001 -0.0002714 1.106e-20)
(0.0001181 -4.671e-05 -1.708e-23)
(-0.1936 0.0585 7.148e-21)
(-0.1165 0.03177 5.143e-21)
(-0.1023 0.03657 2.348e-21)
(-0.2466 0.08757 -4.774e-21)
(-0.2034 0.07108 9.386e-21)
(-0.1929 0.06322 -3.049e-21)
(0.5989 -0.04616 0)
(1.001 -0.0002486 0)
(-0.1153 0.01318 0)
(1.081 -0.1278 -1.505e-23)
(1.002 -1.165e-05 0)
(-0.1715 0.05433 -1.105e-20)
(1.147 0.4885 0)
(0.9784 -0.1493 2.609e-21)
(0.8548 -0.2983 -1.139e-21)
(1.003 -3.535e-05 -3.936e-21)
(-0.1855 0.0556 0)
(-0.1055 0.009747 0)
(1.008 0.002454 -3.061e-20)
(1.003 -3.941e-05 0)
(1.117 0.1355 0)
(-0.1863 0.07665 4.333e-21)
(-0.2168 0.02357 -1.968e-21)
(-0.2074 0.07272 4.121e-21)
(-0.2347 0.08267 3.254e-21)
(0.05851 -0.001032 2.345e-23)
(1.072 -0.1368 0)
(0.7318 -0.1814 -2.228e-20)
(1.002 -0.000699 0)
(-0.2187 0.07115 -3.239e-21)
(-0.2406 0.0846 0)
(0.5142 -0.03162 -2.97e-21)
(0.3178 -0.02605 0)
(0.7256 -0.2461 -1.398e-20)
(1.004 -0.0001975 0)
(1.01 -0.005876 1.702e-21)
(0.9961 0.01257 2.375e-20)
(-0.02004 -0.0002059 3.015e-21)
(1.002 -0.0006541 3.797e-21)
(1.168 -0.005125 -4.676e-20)
(0.3791 -0.2309 8.253e-22)
(1.03 -0.1297 5.168e-21)
(0.218 -0.03356 -4.657e-21)
(1.002 -0.0008963 0)
(-0.1332 -0.002263 -1.164e-21)
(1.029 -0.1232 -3.167e-21)
(1 0.004609 0)
(0.404 -0.04906 3.073e-21)
(1 -0.0001283 0)
(0.6683 -0.3343 5.015e-21)
(0.03829 -0.03803 -6.176e-21)
(-0.06328 0.00941 -1.365e-22)
(0.2988 0.02757 0)
(0.1831 -0.008495 7.534e-22)
(1.005 -0.00464 -3.404e-22)
(-0.08926 0.02412 0)
(0.8575 -0.1867 -7.295e-21)
(0.338 -0.02639 0)
(-0.0188 -0.01521 -1.06e-21)
(0.3119 -0.03953 1.547e-21)
(0.5909 0.8114 -1.172e-21)
(1.13 0.1642 -6.417e-21)
(1.022 -0.1809 1.722e-21)
(0.7918 -0.2764 6.205e-23)
(0.06089 -0.005548 0)
(0.9988 0.005369 0)
(0.3831 0.03198 1.407e-20)
(0.6326 -0.2047 0)
(0.4452 0.1287 2.781e-22)
(-0.03448 -0.01157 2.782e-22)
(0.126 -0.02624 0)
(1.003 -0.0001826 0)
(1.109 -0.09779 4.089e-20)
(-0.1322 0.04563 -1.85e-21)
(0.2352 -0.05366 1.049e-21)
(-0.01526 0.0004301 1.203e-20)
(0.7501 0.1995 0)
(0.01427 -0.0145 -1.316e-21)
(0.2853 0.08025 -1.256e-21)
(-0.01065 -0.0009001 2.85e-21)
(-0.157 0.03921 -3.657e-21)
(-0.111 0.03883 4.701e-21)
(-0.1069 0.01411 5.255e-21)
(0.1045 -0.007603 2.529e-21)
(0.9954 0.03338 2.206e-21)
(0.9422 -0.1369 0)
(1.003 1.383e-05 0)
(1.001 -2.279e-05 0)
(-0.07987 0.03046 2.008e-21)
(1.03 0.0427 8.402e-22)
(-0.08995 0.002666 3.352e-21)
(-0.2144 -0.06348 -2.347e-20)
(0.2784 0.3801 0)
(1.106 -0.1011 -1.815e-20)
(1.049 -0.03053 -2.573e-20)
(1.153 0.5021 1.857e-21)
(0.9419 -0.2164 -4.578e-22)
(1.01 -0.004833 2.495e-20)
(0.04289 0.03262 1.642e-22)
(-0.2373 0.08306 -1.372e-21)
(1.047 -0.02888 3.485e-20)
(-0.08624 0.02016 -1.774e-20)
(-0.0157 0.005665 -2.663e-21)
(-0.06754 -0.02141 0)
(1.009 -0.2042 0)
(0.1454 -0.1199 -1.058e-20)
(-0.03829 0.02754 0)
(-0.1865 0.06524 0)
(0.9973 -0.002151 1.783e-20)
(-0.07863 -0.007496 1.409e-21)
(0.6819 -0.1599 -2.995e-22)
(1.004 -0.004459 0)
(-0.09414 0.02368 8.205e-21)
(-0.1956 0.05836 0)
(-0.1632 0.0695 -2.101e-21)
(1 -9.288e-05 1.049e-21)
(0.8611 -0.0005365 4.011e-21)
(0.1468 0.02372 0)
(0.0423 -7.579e-05 4.749e-23)
(0.8625 -0.2817 -2.725e-21)
(-0.01551 0.005186 0)
(-0.2029 0.06455 2.802e-21)
(0.7496 -0.3198 0)
(0.9717 -0.2153 1.19e-22)
(-0.02775 0.009459 0)
(-0.1035 0.01192 2.773e-21)
(1.001 -1.432e-05 -1.054e-22)
(0.311 -0.1831 0)
(1.068 0.3093 -6.489e-21)
(1.003 1.384e-05 0)
(0.7798 -0.2934 1.044e-22)
(0.003085 -0.001245 2.028e-22)
(0.2018 0.02035 -5.19e-21)
(-0.04094 -0.001952 -1.231e-20)
(1.156 -0.05408 7.814e-21)
(1.051 -0.1605 1.001e-21)
(-0.01302 0.004246 2.029e-25)
(0.03398 -0.003666 -5.191e-22)
(0.6061 -0.06563 0)
(1.002 0.02833 4.121e-22)
(0.9977 0.001741 6.045e-21)
(1.019 -0.1946 0)
(0.7089 -0.3058 -1.141e-21)
(-0.2162 0.07364 -1.251e-20)
(-0.09572 0.02235 0)
(0.2945 0.5762 -1.027e-20)
(0.3777 -0.157 -1.408e-21)
(0.5252 0.004406 -2.121e-22)
(1.096 0.1447 -1.444e-20)
(0.3705 -0.1536 -1.373e-21)
(1.109 0.0188 4.259e-20)
(-0.03417 0.002781 0)
(1.004 0.0005493 0)
(-0.2433 0.08733 3.673e-22)
(0.007084 -0.03647 -8.088e-23)
(-0.1006 0.02893 -4.842e-21)
(-0.1527 0.04444 0)
(-0.2088 0.06558 0)
(0.9971 0.0002137 -1.674e-20)
(0.9875 -0.00535 1.115e-20)
(-0.1198 0.04171 0)
(0.9621 -0.1923 2.802e-21)
(-0.211 0.07291 0)
(0.6549 -0.08309 0)
(-0.1736 0.06237 -5.853e-21)
(-0.2363 0.0701 -1.728e-21)
(0.1663 0.03189 -6.522e-22)
(-0.006813 0.009795 -3.338e-21)
(-0.1114 0.01362 -8.896e-21)
(0.05764 -0.01035 -3.054e-21)
(-0.06558 0.02266 -1.334e-21)
(0.4468 -0.03093 2.251e-21)
(-0.09475 0.02871 1.159e-20)
(1.076 -0.1294 -6.653e-21)
(-0.2358 0.08351 4.601e-21)
(0.3821 0.7566 1.706e-21)
(-0.2053 0.07189 -2.491e-22)
(0.007401 -0.03869 3.976e-22)
(-0.0002672 -9.609e-05 0)
(-0.2098 0.06588 0)
(1.004 -7.407e-05 0)
(1.004 -0.001381 1.482e-20)
(-0.2263 0.08072 2.629e-21)
(-0.2394 0.07921 0)
(1.042 -0.1637 9.185e-21)
(1.002 1.563e-05 0)
(0.7118 -0.3199 -3.314e-21)
(-0.1863 0.05543 2.296e-21)
(1.129 -0.07287 -2.316e-20)
(-0.1843 0.06379 0)
(0.1581 0.03238 -8.51e-21)
(-0.1335 0.04259 -1.287e-20)
(1.003 0.5093 -6.13e-21)
(0.9999 0.0003781 -5.531e-20)
(1.024 -0.1697 0)
(1.148 -0.03669 -1.403e-20)
(0.2419 -0.09586 0)
(0.2912 -0.0218 0)
(-0.1617 0.0441 4.478e-22)
(0.7591 -0.2247 1.173e-20)
(0.3869 0.03276 2.682e-20)
(-0.07871 0.01514 0)
(0.624 -0.0551 -1.289e-21)
(1.121 -0.08452 0)
(-0.2209 0.06179 0)
(0.7202 -0.3259 3.666e-21)
(0.859 -0.09907 3.374e-21)
(-0.2359 0.08289 0)
(0.3644 -0.1579 -1.789e-21)
(1.006 -0.006885 -7.949e-22)
(-0.02094 0.007324 0)
(-0.01502 0.004774 0)
(-0.2054 0.08006 0)
(-0.1098 0.03245 8.071e-21)
(0.1174 -0.09515 -1.697e-20)
(0.9987 0.01156 2.162e-21)
(-0.01051 0.002685 4.868e-21)
(0.06239 -0.01403 0)
(1.001 -0.0001297 0)
(1 -5e-05 -7.858e-21)
(-0.08815 -0.007872 2.918e-25)
(-0.1654 0.04363 9.013e-21)
(0.001162 -0.0005209 -2.04e-22)
(-0.02245 -0.01935 3.172e-22)
(0.9564 -0.1388 -6.976e-22)
(0.6971 -0.2591 0)
(-0.1305 0.04329 -1.28e-20)
(1.031 -0.1656 0)
(1.069 -0.1333 0)
(1.007 -0.003663 9.267e-21)
(-0.1134 0.03778 -1.99e-20)
(-0.136 -0.04215 0)
(-0.1628 0.05528 -1.132e-20)
(1.007 -0.2031 0)
(-0.01615 0.003715 8.565e-22)
(-0.2393 0.08405 -6.725e-21)
(1.002 -0.0005877 -4.021e-22)
(0.06187 -0.00976 0)
(-0.188 0.06058 -3.262e-21)
(1.001 -0.0006491 -3.408e-20)
(-0.06518 0.01602 -5.621e-21)
(1.002 -0.0001337 -3.163e-21)
(0.9986 -0.00272 1.272e-20)
(1.061 -0.1427 1.969e-21)
(1.013 -0.1476 0)
(-0.01966 0.002833 -1.672e-20)
(1.001 -0.001189 3.08e-21)
(0.4093 -0.04816 -3.654e-22)
(1.002 0.003742 0)
(1.151 0.5076 0)
(1.022 -0.134 5.909e-21)
(0.02872 0.01235 5.625e-21)
(1.087 -0.1208 -4.813e-21)
(0.5341 -0.1055 -2.651e-22)
(0.581 -0.08314 0)
(-0.09964 0.02943 2.75e-20)
(1.068 -0.1171 6.88e-21)
(1.002 -0.001437 3.34e-21)
(1.024 0.01081 4.246e-20)
(-0.09506 0.02863 2.459e-21)
(0.8435 -0.1553 6.699e-22)
(-0.2027 0.07068 -1.072e-21)
(-0.1369 0.04494 0)
(0.1566 -0.009991 1.315e-25)
(-0.1105 0.03639 -7.449e-21)
(-0.01095 0.003651 -2.062e-20)
(-0.1167 0.03084 7.918e-21)
(0.7044 -0.1986 0)
(-0.0613 -0.0006862 -2.453e-20)
(0.5318 -0.05708 -6.776e-22)
(0.1967 -0.02618 0)
(0.7986 0.3183 5.428e-21)
(-0.06958 0.02581 0)
(1.003 -0.004628 2.44e-21)
(-0.1096 0.02233 2.114e-20)
(-0.06679 0.002121 6.115e-22)
(0.3117 -0.0514 0)
(0.9979 2.457e-06 3.955e-21)
(0.4704 -0.3119 4.535e-21)
(-0.1796 0.05754 0)
(0.9792 -0.0918 5.252e-22)
(0.9197 -0.2548 9.046e-23)
(-0.09039 0.01406 -2.833e-22)
(1.078 -0.1285 -5.833e-21)
(-0.06952 0.01533 0)
(-0.1178 0.04783 2.414e-21)
(0.9837 -0.09261 1.569e-21)
(-0.1519 0.04822 -8.478e-23)
(0.5217 -0.1437 -4.393e-22)
(-0.01738 -0.01612 1.158e-21)
(1.002 -0.0002643 0)
(1.136 -0.07537 -5.337e-21)
(-0.1087 0.02095 0)
(1.004 -0.005744 0)
(-0.1358 0.02949 0)
(-0.09869 0.01018 1.798e-21)
(0.9994 -1.07e-05 1.299e-21)
(0.9976 -0.2101 -1.064e-21)
(-0.07306 0.01489 0)
(1.04 -0.01601 0)
(0.8148 0.3217 -2.189e-20)
(-0.0002668 0.02434 0)
(0.0274 -0.01389 0)
(1.043 -0.1426 -9.452e-21)
(1.003 1.591e-05 -8.6e-23)
(-0.1388 0.03338 -2.024e-22)
(-0.1542 0.04561 -5.342e-22)
(1.009 -0.000919 2.024e-20)
(0.8675 0.2924 1.194e-20)
(1.025 0.08186 3.888e-21)
(-0.1896 0.05707 3.501e-21)
(-0.1284 0.03488 -9.028e-21)
(1.035 -0.1776 -2.1e-21)
(1.048 -0.0246 0)
(-0.0297 0.006149 -6.376e-22)
(-0.003868 0.001294 7.367e-22)
(0.5727 -0.1216 3.882e-23)
(0.7074 -0.1127 -2.064e-21)
(-0.207 0.07047 -1.815e-21)
(0.1039 -0.008288 0)
(0.9928 -3.292e-05 -4.053e-21)
(0.8058 -0.0856 3.715e-21)
(1.003 0.004947 5.73e-23)
(-0.2123 0.06657 0)
(0.6565 -0.3091 -3.671e-21)
(-0.1322 0.02653 0)
(0.9186 -0.2538 7.827e-22)
(0.00119 -0.01489 -6.995e-22)
(-0.01884 0.003204 0)
(0.9993 0.001532 -1.321e-20)
(-0.00474 0.001747 0)
(-0.06703 0.02214 0)
(-0.07214 0.02085 7.99e-21)
(1.064 -0.08875 5.308e-21)
(0.7277 0.2503 0)
(-0.1437 0.05333 -2.247e-21)
(-0.09475 -0.03002 8.465e-21)
(0.2648 -0.01927 0)
(1.008 -0.1399 0)
(0.8909 -0.01522 -7.57e-20)
(0.01635 -0.000844 7.305e-22)
(-0.2366 0.07929 1.502e-21)
(0.6552 -0.04521 0)
(0.4344 -0.09209 1.048e-21)
(0.8001 -0.1223 0)
(0.5372 -0.3235 -7.376e-21)
(0.002934 -0.01418 2.68e-21)
(-0.07195 0.02511 3.533e-22)
(0.9737 -0.1658 -5.007e-22)
(-0.2111 0.07107 0)
(0.2836 0.0325 0)
(0.5024 -0.061 3.264e-21)
(0.575 -0.05884 -2.326e-21)