/*--------------------------------*- C++ -*----------------------------------*\
  =========                 |
  \\      /  F ield         | OpenFOAM: The Open Source CFD Toolbox
   \\    /   O peration     | Website:  https://openfoam.org
    \\  /    A nd           | Version:  8
     \\/     M anipulation  |
\*---------------------------------------------------------------------------*/
FoamFile
{
    version     2.0;
    format      ascii;
    class       volScalarField;
    location    "35";
    object      nut;
}
// * * * * * * * * * * * * * * * * * * * * * * * * * * * * * * * * * * * * * //

dimensions      [0 2 -1 0 0 0 0];

internalField   nonuniform List<scalar> 
127143
(
8.584e-16
5.628e-18
6.407e-18
4.022e-17
3.66e-12
3.314e-17
8.326e-10
2.308e-11
2.303e-12
4.448e-08
3.208e-10
6.537e-11
5.752e-17
5.161e-17
1.246e-06
6.596e-09
2.461e-15
9.666e-05
5.145e-05
1.504e-08
4.298e-05
2.866e-09
7.148e-05
7.15e-06
2.426e-09
7.906e-06
1.111e-05
9.784e-06
2.68e-08
0.0001957
3.244e-06
6.429e-06
3.524e-06
1.535e-05
3.748e-05
3.592e-06
0.0001036
3.519e-05
7.667e-06
1.25e-06
5.16e-05
2.02e-06
2.216e-06
2.939e-15
9.66e-05
1.572e-05
2.671e-08
0.0001487
6.868e-06
5.313e-06
8.956e-09
0.000324
7.195e-06
1.821e-05
0.006685
2.921e-07
0.006685
0.0002093
0.004075
2.095e-05
2.908e-06
3.995e-05
7.721e-06
0.006702
2.706e-05
1.973e-05
3.032e-05
7.426e-06
7.426e-06
0.001389
4.038e-06
1.177e-05
0.0003924
0.003481
0.006696
1.025e-05
0.0004416
8.689e-05
2.92e-07
0.006705
2.682e-08
2.206e-08
3.32e-05
1.613e-06
0.0003168
0.0001536
8.009e-06
1.259e-05
1.844e-05
1.374e-06
0.002203
4.881e-05
2.703e-06
4.284e-05
5.305e-05
0.0002859
2.229e-06
2.463e-06
0.0001154
3.372e-05
0.006705
6.705e-06
1.752e-07
7.697e-05
0.0001269
0.0001114
7.034e-06
0.00139
6.835e-06
0.006683
1.36e-06
1.255e-05
5.143e-05
6.424e-07
0.003229
7.67e-05
0.000366
0.006696
0.0005535
2.14e-11
0.006684
3.293e-05
1.367e-05
0.0002076
2.694e-08
7.105e-06
5.295e-05
0.0006525
1.249e-05
2.447e-07
8.782e-05
5.663e-05
1.039e-05
9.143e-05
6.854e-13
9.801e-05
0.0002326
2.147e-05
2.226e-07
0.0001442
4.416e-05
0.0005756
8.27e-06
1.28e-05
7.142e-06
5.869e-06
1.925e-08
0.006703
6.749e-05
8.535e-08
3.729e-05
4.071e-06
3.186e-05
2.116e-05
2.022e-06
0.0002499
0.0001667
2.696e-07
0.0001386
1.716e-06
4.12e-06
1.601e-09
0.002013
0.0001079
1.447e-07
2.097e-05
9.302e-05
6.44e-06
4.044e-06
9.959e-05
1.653e-05
1.28e-05
6.659e-05
2.584e-05
0.0006453
0.0001618
5.885e-06
1.249e-05
7.853e-06
0.002232
2.281e-05
0.000907
0.0001477
0.0001633
2.454e-07
3.848e-05
5.899e-06
7.815e-07
7.312e-06
0.000893
1.165e-05
2.355e-05
0.0003335
1.122e-06
2.01e-13
3.016e-05
0.00673
0.006721
1.648e-10
0.00149
0.004506
0.0001287
0.0008014
0.0001117
3.625e-16
5.914e-06
0.0001374
2.721e-05
0.0002352
0.003561
8.775e-05
0.0002986
0.003521
3.998e-06
7.597e-05
6.003e-10
2.787e-06
2.704e-05
7.58e-05
0.0001444
5.774e-06
0.006698
4.077e-06
7.07e-06
1.915e-06
1.288e-05
1.658e-07
3.623e-05
1.929e-05
0.0001008
4.46e-05
0.0009882
0.0003481
3.153e-11
4.46e-05
0.0002252
0.0001074
3.873e-13
0.003971
9.021e-06
2.248e-05
2.753e-05
0.0002126
2.696e-07
1.571e-05
3.58e-11
3.06e-06
1.027e-05
1.512e-10
0.001348
3.927e-06
6.153e-06
2.387e-05
1.593e-05
4.773e-07
6.269e-06
0.0008179
3.251e-07
2.914e-05
8.535e-06
2.313e-05
0.0007745
4.546e-05
0.0005441
7.648e-06
2.772e-05
3.89e-05
1.983e-06
3.64e-06
1.882e-05
7.513e-06
0.0006448
0.0001488
9.161e-06
9.342e-06
1.075e-05
5.141e-05
7.292e-06
0.0004592
2.176e-05
0.00288
0.0001555
7.823e-05
0.006701
0.004707
2.045e-13
9.656e-05
0.00319
7.685e-06
0.002075
3.407e-05
4.26e-05
0.0002179
6.003e-05
0.002747
6.777e-06
3.663e-06
2.554e-05
0.0002114
1.86e-05
8.354e-06
2.94e-05
9.798e-06
9.448e-05
1.568e-06
3.464e-06
2.735e-05
0.003203
4.932e-05
1.791e-05
7.103e-06
6.418e-06
3.534e-07
0.003603
0.003702
2.327e-06
2.318e-05
6.837e-06
3.562e-05
0.0003531
7.995e-05
3.685e-06
0.000291
2.379e-05
2.208e-06
1.512e-05
7.522e-05
1.866e-05
3.83e-06
4.482e-06
0.0001016
0.003904
4.036e-05
0.00673
0.006721
2.122e-05
6.869e-06
7.132e-05
0.0001023
8.294e-05
0.0001679
2.701e-05
7.238e-06
9.5e-06
1.112e-06
7.684e-06
5.348e-05
4.355e-05
7.696e-06
1.334e-05
8.166e-06
3.922e-05
0.0001643
1.064e-05
7.416e-05
5.877e-05
1.598e-05
6.656e-06
0.006154
3.843e-06
0.0001092
8.242e-06
0.0001044
4.715e-06
5.787e-06
0.006698
0.001763
0.0002658
2.918e-05
0.0004175
1.727e-06
0.0003089
7.997e-06
4.536e-06
0.001133
4.763e-05
7.576e-06
3.544e-10
0.0001027
0.0005037
5.792e-05
7.349e-06
8.677e-06
2.227e-05
0.0003861
1.641e-07
2.345e-05
1.337e-06
3.133e-05
5.22e-05
0.004996
9.632e-06
2.494e-05
5.016e-07
7.016e-06
3.212e-06
9.87e-06
3.701e-06
7.212e-05
0.001066
1.176e-06
0.006698
2.755e-05
0.0001559
2.474e-05
2.506e-05
0.0001576
1.098e-05
0.006705
7.986e-06
8.497e-06
7.845e-06
4.247e-05
0.0001073
1.232e-05
5.256e-05
0.0001011
7.517e-06
2.675e-05
5.592e-06
9.621e-05
1.446e-06
5.358e-05
0.001855
0.0001018
7.73e-06
2.084e-06
3.5e-05
2.216e-05
0.0001078
0.006681
8.19e-05
0.0001516
8.701e-05
1e-05
0.006698
2.195e-05
4.378e-05
0.0003553
0.002912
0.006695
5.726e-06
0.0001908
6.852e-06
0.0002226
2.487e-06
0.002714
3.432e-06
0.0002644
0.0002995
7.124e-05
8.681e-06
2.968e-05
2.896e-05
2.233e-05
9.205e-05
7.404e-06
2.293e-05
0.0001325
2.106e-05
1.172e-05
6.611e-06
2.918e-05
5.208e-07
7.121e-06
0.0008192
0.0008673
1.35e-05
5.337e-05
0.006673
0.000107
4.309e-05
0.0001821
2.421e-05
0.0001826
0.006652
1.705e-06
4.153e-05
7.423e-07
9.48e-06
7.059e-08
3.314e-06
3.196e-05
3.532e-07
7.052e-06
1.001e-05
1.27e-05
0.006556
2.229e-06
0.0005277
3.623e-06
8.051e-06
7.524e-06
5.849e-06
1.06e-14
9.526e-05
8.983e-07
0.0004621
9.919e-07
0.00471
6.894e-08
0.0009024
0.0001799
2.712e-05
3.183e-15
1.324e-11
6.435e-12
0.006698
5.884e-05
3.815e-06
0.003601
0.0001425
1.477e-05
6.806e-05
7.225e-05
7.211e-05
8.675e-06
0.0001067
1.06e-05
0.0009588
0.0002751
2.936e-10
3.875e-06
6.706e-06
2.018e-05
0.004146
4.079e-05
0.0009413
3.406e-05
0.00626
2.099e-06
6.655e-08
1.867e-05
0.006682
1.353e-05
0.0001966
8.051e-06
6.856e-06
1.675e-06
4.464e-05
0.0004892
1.17e-05
1.319e-05
0.006674
2.941e-05
2.655e-05
4.207e-06
4.72e-06
4.932e-05
2.052e-05
3.075e-05
2.14e-05
8.431e-06
0.0001353
8.28e-05
0.002431
1.63e-06
6.926e-05
8.392e-06
9.764e-06
9.245e-05
0.006703
0.006701
9.732e-06
5.316e-05
1.205e-06
0.003178
0.004591
9.83e-06
1.595e-06
0.0001755
8.482e-06
9.024e-06
3.015e-06
4.12e-05
0.0006797
0.006684
4.507e-06
9.267e-05
9.07e-06
0.004707
1.047e-05
1.169e-05
5.937e-05
0.0005033
8.284e-06
0.003097
0.0001155
0.0001824
5.267e-05
0.005128
4.551e-05
2.312e-05
5.539e-09
0.006651
7.088e-06
3e-06
0.006694
2.512e-05
0.002676
5.709e-06
1.264e-05
0.006701
4.188e-05
8.056e-06
6.451e-06
2.801e-05
9.643e-06
8.149e-06
8.664e-06
1.246e-06
7.706e-06
3.252e-06
4.763e-06
0.0001488
6.652e-06
2.452e-06
0.005422
3.068e-06
0.005624
8.935e-07
0.0005511
8.419e-06
0.00668
0.002746
0.0001554
5.644e-06
5.936e-05
0.006473
0.006685
2.375e-05
1.272e-05
3.811e-05
3.13e-06
0.0002851
7.385e-06
7.065e-05
8.2e-06
9.304e-06
6.037e-05
1.543e-05
0.006473
1.912e-05
8.941e-06
9.666e-05
2.327e-05
0.002265
0.004594
1.707e-05
3.147e-07
1.27e-05
1.66e-07
0.0006114
0.003206
8.694e-05
2.648e-05
0.000149
1.87e-05
9.453e-05
0.00103
3.719e-05
3.366e-05
8.22e-06
1.854e-05
8.409e-15
1.563e-05
0.000134
9.366e-05
7.848e-05
3.477e-05
8.365e-06
4.064e-05
0.0003011
1.178e-05
4.56e-05
2.75e-05
0.006682
7.245e-06
1.491e-05
2.794e-06
0.006682
0.006682
1.077e-07
0.0005339
7.084e-06
2.622e-05
5.08e-06
4.928e-05
1.172e-05
2.197e-06
6.467e-06
5.349e-07
0.006709
0.006674
4.113e-06
7.738e-06
3.127e-05
3.068e-06
1.659e-07
0.0001819
2.398e-06
9.843e-05
0.0001169
0.003717
2.643e-06
0.0001971
6.126e-07
6.628e-13
1.176e-05
8.382e-06
0.0001011
0.004895
8.73e-06
6.664e-06
1.05e-08
5.184e-05
1.772e-05
9.305e-06
1.14e-07
7.239e-05
6.782e-06
5.143e-05
6.875e-07
8.314e-06
1.803e-05
5.225e-05
5.783e-05
5.894e-15
1.774e-05
0.0001135
3.307e-06
9.781e-06
8.25e-06
0.006694
9.73e-05
4.108e-05
0.0001768
0.002964
1.385e-07
5.781e-05
8.278e-06
0.003139
2.994e-05
0.0001322
3.916e-05
2.16e-05
0.003801
0.0001346
1.96e-05
3.608e-05
1.605e-05
0.001317
7.238e-06
1.036e-06
0.002344
2.705e-05
4.625e-05
3.311e-05
9.681e-05
2.922e-05
1.174e-05
8.023e-06
4.683e-05
0.006641
0.0001516
7.981e-05
1.001e-06
7.84e-06
1.903e-05
0.0001407
2.235e-05
0.006659
7.085e-05
3.928e-05
9.601e-06
8.475e-11
9.767e-06
2.082e-05
2.966e-05
0.0002349
4.414e-05
0.006697
3.518e-15
6.839e-05
2.645e-05
6.972e-07
0.0001184
4.597e-05
6.13e-05
4.844e-06
0.006683
4.149e-05
7.8e-05
0.003518
6.678e-05
3.627e-06
7.181e-06
1.771e-05
0.006667
6.836e-05
0.0001546
0.006652
0.006662
2.356e-05
4.95e-05
0.000264
3.669e-05
0.0001735
1.998e-08
5.266e-05
6.143e-06
0.006683
9.822e-05
9.966e-05
3.488e-06
1.97e-06
5.576e-06
0.002753
0.004323
0.0002447
1.113e-05
0.006683
9.949e-05
2.085e-06
8.619e-06
8.212e-06
0.006198
0.0002425
8.477e-06
0.006698
7.714e-06
0.006683
6.369e-06
1.126e-07
3.563e-05
1.375e-05
7.839e-07
0.002115
4.171e-05
1.596e-05
2.093e-06
2.684e-05
8.192e-06
8.495e-08
1.965e-05
5.944e-05
9.928e-06
2.933e-06
0.006701
3.255e-05
4.051e-07
2.031e-06
4.464e-05
7.425e-06
0.002853
0.0002284
4.592e-06
6.389e-07
5.643e-06
3.249e-06
7.126e-10
2.997e-06
5.526e-06
6.316e-05
8.809e-07
4.833e-05
1.902e-07
0.0004131
7.372e-06
0.004703
0.005201
8.072e-06
0.000302
1.841e-05
0.0002396
5.986e-07
0.0001312
0.000508
1.619e-06
3.102e-06
0.004175
8.467e-05
0.0001325
0.0005931
3.759e-05
1.183e-08
0.00018
3.514e-05
1.276e-06
1.892e-05
1.955e-05
0.006703
7.513e-06
6.131e-07
0.006203
4.335e-05
9.43e-05
3.136e-05
0.00667
0.0002442
7.189e-05
3.598e-09
1.597e-05
1.536e-08
8.944e-05
9.235e-06
4.418e-06
2.064e-06
2.557e-05
0.00573
2.922e-07
3.986e-06
0.005297
7.948e-06
8.046e-10
5.102e-05
1.493e-05
2.756e-05
8.491e-05
5.418e-07
2.814e-08
8.081e-06
0.0005479
0.006698
3.188e-05
6.512e-06
0.000109
4.118e-05
8.932e-07
8.213e-08
2.21e-05
2.97e-05
8.196e-08
0.0001356
1.676e-05
0.006694
0.0001674
3e-06
1.062e-05
8.428e-05
0.000105
0.006698
0.001249
2.629e-07
3.718e-05
9.466e-06
8.106e-06
3.763e-06
0.0001787
1.598e-05
5.973e-06
2.272e-05
3.072e-06
7.215e-06
2.809e-06
3.657e-05
2.774e-05
0.0001424
1.271e-06
5.301e-05
1.409e-06
8.668e-09
0.0001163
0.006693
0.006696
0.0001469
9.318e-05
8.455e-05
0.006759
6.67e-06
7.036e-05
0.0001471
2.318e-05
1.907e-05
5.286e-05
1.253e-06
0.006705
7.149e-05
0.0001271
1.659e-08
1.654e-06
0.0001424
7.822e-06
3.643e-05
2.779e-05
6.979e-06
1.191e-05
0.0001203
6.713e-06
8.064e-06
9.34e-05
5.884e-08
0.006222
5.599e-07
1.861e-06
7.63e-05
2.408e-05
1.532e-06
0.00235
5.745e-06
3.02e-06
0.006421
0.006694
8.811e-06
5.485e-05
3.84e-10
3.254e-05
7.381e-06
1.357e-06
4.355e-05
7.615e-05
0.0001242
0.001549
2.771e-06
0.0003632
2.767e-05
5.391e-05
6.549e-06
0.0001551
0.005876
2.835e-06
8.624e-05
0.006693
3.895e-05
0.005936
0.006702
1.704e-05
7.462e-05
4.587e-06
0.006691
7.706e-06
0.006697
3.235e-06
9.534e-05
0.0001041
5.147e-05
6.283e-06
7.912e-06
5.155e-05
1.017e-05
0.002922
0.0009821
9.997e-06
5.341e-06
3.989e-05
1.287e-05
5.253e-07
3.12e-06
1.07e-06
2.99e-05
5.044e-07
1.947e-05
7.895e-06
8.137e-06
3.115e-06
5.732e-05
0.004933
3.648e-05
8.745e-05
8.598e-06
0.001911
4.223e-06
4.358e-05
8.142e-06
5.234e-06
1.223e-05
0.0001298
2.771e-05
1.969e-05
8.145e-06
7.41e-05
2.27e-07
2.552e-05
0.006604
1.348e-05
3.563e-05
0.002074
4.269e-05
2.504e-05
0.00675
4.329e-05
6.35e-05
0.0006755
2.796e-06
2.367e-05
3.025e-05
0.0001015
0.006742
5.439e-05
4.529e-05
0.005421
3.963e-06
9.387e-05
7.451e-05
6.533e-05
4.818e-05
0.0004684
1.553e-05
2.018e-08
3.06e-06
7.688e-06
8.576e-05
1.914e-07
0.001616
8.235e-06
0.006698
0.0001115
4.995e-06
4.227e-05
5.224e-06
1.119e-05
1.171e-05
0.006699
1.633e-10
2.748e-05
1.093e-05
8.808e-06
3.378e-07
2.165e-05
6.356e-05
1.47e-06
7.874e-06
4.311e-05
1.661e-10
6.393e-05
4.206e-06
4.544e-06
7.487e-06
4.261e-06
4.858e-05
2.14e-07
6.141e-06
2.611e-05
1.28e-05
8.708e-06
7.62e-06
5.324e-05
8.74e-08
0.0002758
2.427e-06
0.0001736
8.334e-06
0.006726
0.006692
1.919e-05
2.162e-07
0.0001822
0.0008685
4.579e-06
1.633e-06
0.006698
1.175e-05
7.568e-06
1.599e-05
7.178e-09
2.466e-05
5.931e-05
8.241e-14
7.708e-05
2.503e-06
9.227e-05
8.043e-06
1.595e-05
7.862e-06
1.984e-06
7.909e-06
3.384e-05
0.001142
0.0001467
1.438e-05
6.221e-05
3.571e-05
6.655e-06
0.0001543
6.972e-07
0.000123
9.611e-05
0.000265
1.911e-06
1.153e-05
3.576e-05
7.455e-08
3.12e-05
1.415e-05
6.919e-06
7.642e-05
5.124e-05
0.006697
9.034e-05
1.386e-05
1.321e-05
7.834e-06
7.088e-07
1.452e-06
0.006684
6.795e-06
1.702e-05
4.942e-05
2.935e-06
5.823e-06
4.198e-05
2.746e-06
0.001797
6.162e-07
0.0001164
1.48e-05
5.308e-05
0.001574
3.051e-05
0.003589
5.133e-06
3.066e-06
0.0001298
6.985e-05
3.358e-05
0.00649
0.006681
5.062e-05
0.0002734
4.664e-05
5.356e-05
0.0024
0.00213
1.118e-06
7.547e-05
3.599e-05
1.505e-05
8.445e-06
3.145e-06
2.796e-05
8.311e-06
1.038e-05
4.228e-05
0.006685
3.227e-06
7.085e-05
7.903e-06
3.064e-06
2.522e-05
2.357e-05
8.165e-05
8.31e-06
2.521e-05
5.666e-09
6.657e-05
6.917e-05
0.0001711
2.182e-05
6.745e-05
7.431e-06
3.993e-09
3.874e-05
1.833e-05
0.006685
5.905e-06
7.721e-07
0.006695
6.97e-07
1.124e-05
0.0001256
8.016e-06
0.006689
2.028e-05
1.443e-09
0.002288
4.711e-06
4.113e-05
8.107e-06
1.517e-07
5.064e-05
7.586e-05
3.325e-05
1.433e-07
8.559e-05
3.434e-05
9.45e-06
4.746e-06
1.214e-06
7.271e-08
2.9e-06
8.516e-05
0.006694
5.326e-06
4.196e-05
2.226e-06
3.516e-06
7.988e-05
0.0001028
0.006657
0.0001003
5.323e-05
0.006232
0.0001796
0.006348
9.739e-08
0.0001612
2.358e-07
7.008e-05
7.465e-06
6.136e-06
4.929e-05
6.267e-06
6.445e-07
2.121e-06
7.09e-05
8.998e-05
9.205e-06
3.341e-05
0.0001192
0.006702
0.0001435
0.0007443
6.882e-05
0.0067
0.00025
0.006689
5.797e-06
3.137e-05
0.006744
0.00626
2.466e-05
5.3e-05
2.09e-05
7.616e-05
0.006783
8.678e-06
6.692e-05
4.48e-05
4.755e-12
2.1e-05
3.229e-10
7.572e-06
1.059e-05
8.434e-06
5.965e-06
0.0001297
7.21e-05
8.996e-07
0.0002421
1.716e-05
3.095e-05
1.616e-05
6.638e-06
3.55e-05
0.00669
1.971e-06
6.077e-05
5.372e-08
0.0067
2.874e-06
5.993e-06
8.113e-06
5.734e-05
0.006653
0.006652
0.0001547
5.877e-05
0.0002567
5.303e-05
8.345e-06
5.345e-05
3.167e-06
0.0003722
9.283e-05
8.569e-08
1.008e-05
0.0001521
8.207e-05
6.521e-05
2.253e-05
3.463e-05
4.546e-06
8.402e-06
0.0001124
0.001761
8.886e-05
9.303e-05
6.891e-06
7.198e-06
0.0006097
7.276e-06
0.0002732
8.048e-06
0.0001575
1.771e-05
0.0001981
0.006693
0.0001288
1.778e-05
3.323e-06
5.34e-07
8.743e-05
9.191e-05
2.346e-05
8.638e-05
0.006627
1.255e-06
5.817e-05
6.829e-09
2.548e-05
7.532e-09
1.408e-05
0.006696
1.818e-05
4.09e-06
2.772e-05
6.624e-06
1.889e-05
3.347e-05
8.4e-06
7.182e-06
0.0003555
2.17e-06
0.0001598
5.306e-06
2.298e-05
3.127e-06
0.002754
0.002752
7.763e-06
8.377e-06
4.881e-08
4.921e-06
5.379e-06
2.187e-06
2.459e-06
0.0003158
3.625e-05
0.0002479
0.002181
0.006692
0.0001636
0.006492
9.943e-09
0.006695
3.149e-07
3.639e-05
6.143e-06
6.684e-06
2.973e-06
0.001416
8.932e-08
3.872e-05
9.296e-07
9.796e-05
4.069e-06
0.005481
5.14e-05
6.785e-06
8.922e-05
1.891e-06
1.807e-05
9.925e-05
1.168e-06
7.426e-07
0.0002801
0.006666
2.02e-08
0.001464
0.006766
4.983e-05
2.772e-06
0.006667
1.064e-06
0.006698
9.451e-06
9.939e-06
3.055e-05
1.039e-06
0.006677
0.0001577
4.165e-05
3.732e-05
1.691e-05
3.124e-05
2.96e-05
0.004743
0.006687
9.158e-06
1.497e-10
2.419e-05
7.515e-06
0.0005913
2.243e-07
8.243e-05
4.384e-05
0.002134
1.67e-05
6.941e-05
3.041e-06
0.0004431
6.873e-06
0.0006124
1.133e-05
0.006704
2.221e-06
9.075e-06
0.0001657
4.887e-07
7.101e-07
6.617e-05
0.00669
9.478e-06
2.778e-06
5.492e-05
2.802e-06
7.472e-06
2.881e-05
0.0005168
1.165e-05
1.208e-08
7.463e-06
8.227e-07
5.336e-08
0.001965
3.003e-05
0.006703
1.014e-05
2.403e-06
6.392e-06
0.006696
8.056e-06
0.006694
0.0001687
4.181e-05
0.006715
3.276e-05
0.0001642
8.018e-06
2.612e-05
0.0006088
7.606e-06
0.006697
5.053e-07
2.255e-07
6.601e-05
4.725e-05
7.296e-06
0.00119
1.653e-05
0.0001687
4.559e-06
8.929e-06
0.0001461
7.731e-06
3.4e-05
2.046e-05
4.317e-07
0.0002206
1.959e-05
1.178e-05
0.0002205
7.902e-06
8.876e-05
6.433e-06
8.188e-06
0.0001995
0.001138
8.06e-06
7.376e-05
1.728e-05
9.414e-05
3.167e-06
0.0001008
7.355e-06
0.000102
0.006667
7.642e-06
5.61e-06
0.0001908
8.435e-06
0.0004361
9.902e-06
0.006705
2.198e-05
7.198e-06
4.353e-05
6.038e-06
5.579e-06
6.081e-06
0.006696
8.374e-06
5.132e-06
8.032e-06
1.728e-05
0.0003971
7.999e-06
8.039e-06
0.006695
0.0001446
0.000145
0.001785
6.531e-06
3.219e-05
3.485e-05
4.922e-06
0.0001011
0.0002704
0.002248
2.858e-05
2.178e-05
0.006607
2.073e-05
7.025e-06
2.363e-06
0.006749
3.416e-05
3.537e-07
4.325e-05
1.388e-05
0.0001022
8.041e-06
2.413e-06
0.002061
0.001183
0.0001231
0.0008863
2.724e-05
4.669e-06
0.0001063
8.133e-07
3.313e-05
0.0003764
2.057e-05
5.033e-10
9.557e-10
6.456e-05
0.0001145
4.727e-05
0.0001523
0.0001352
2.856e-05
0.0002342
3.034e-05
5.886e-05
4.688e-05
8.715e-06
5.279e-08
9.791e-05
0.000124
0.003049
1.549e-06
0.0001523
0.0001035
5.658e-06
4.56e-05
3.08e-06
6.479e-05
4.453e-05
0.006758
3.784e-07
7.45e-06
2.548e-05
2.724e-05
8.134e-05
3.077e-06
1.311e-06
0.0001027
4.411e-05
9.972e-07
3.324e-05
7.173e-06
4.09e-06
0.00664
1.136e-05
1.451e-06
8.167e-06
0.004697
0.0001638
0.0001292
4.452e-06
3.117e-05
0.0003383
6.287e-06
0.005455
4.431e-06
7.193e-06
0.0001672
0.0003073
0.003884
7.407e-06
9.261e-08
7.331e-06
2.379e-06
2.678e-08
0.000127
6.954e-06
0.001417
1.377e-06
1.618e-05
0.0001855
7.458e-05
4.388e-05
1.176e-05
0.0001089
7.973e-06
0.002573
3.452e-06
2.658e-08
9.247e-07
0.0001009
2.581e-05
2.983e-05
1.035e-05
0.001063
0.0001115
8.432e-06
8.355e-05
0.003721
8.248e-06
7.969e-06
8.413e-06
3.62e-05
4.081e-05
1.845e-06
1.757e-05
7.482e-07
7.802e-07
7.183e-08
0.0001613
6.139e-06
3.2e-08
5.305e-05
4.725e-06
7.607e-05
2.641e-05
1.054e-05
5.96e-11
2.05e-05
2.384e-05
0.003146
0.000293
1.384e-06
6.845e-05
0.003634
0.006698
7.065e-05
7.643e-06
0.0003071
5.806e-06
8.997e-08
1.284e-06
0.001011
5.839e-06
0.0001953
1.761e-05
7.743e-06
3.439e-05
0.0002299
7.14e-06
8.04e-05
9.976e-05
2.713e-05
0.006698
4.253e-06
0.0001282
8.021e-06
0.0001348
7.724e-06
1.151e-05
4.251e-05
5.921e-06
1.971e-05
3.064e-05
7.908e-06
7.56e-06
8.361e-06
0.0001232
9.499e-05
9.817e-05
2.951e-05
1.01e-05
2.022e-07
4.181e-05
0.004714
6.697e-05
7.62e-05
8.383e-06
6.325e-06
0.0007173
1.911e-05
4.284e-05
1.373e-05
0.003029
3.061e-05
0.0002148
0.0001134
0.0002066
1.069e-05
8.518e-05
1.712e-06
0.0001674
0.0001869
1.069e-05
0.006677
0.0001587
3.928e-05
0.0001176
3.799e-05
0.006689
0.0001309
4.841e-06
1.046e-05
0.006698
0.0007095
0.0002597
1.78e-05
8.935e-06
0.000777
1.044e-05
0.0001483
2.602e-07
3.737e-06
5.979e-05
8.265e-06
2.543e-05
0.001607
8.199e-06
7.724e-08
3.299e-05
1.066e-07
3.574e-06
3.294e-05
2.998e-06
0.003165
0.006667
1.075e-05
7.517e-05
3.118e-06
0.006698
1.982e-05
2.561e-05
1.189e-08
3.884e-05
6.461e-06
0.006295
0.006454
7.885e-06
4.463e-05
0.0001675
2.228e-06
3.783e-05
4.479e-05
0.0001502
0.006705
6.542e-06
1.681e-06
7.573e-06
0.0001981
1.127e-06
0.0001886
2.048e-05
0.006742
3.223e-05
2.334e-06
7.098e-06
5.63e-07
6.244e-05
1.238e-06
3.05e-05
1.313e-05
6.872e-06
4.18e-05
7.468e-05
0.0001275
6.335e-06
3.294e-07
0.004581
0.005193
6.188e-06
1.426e-05
4.084e-07
8.16e-06
2.525e-06
3.158e-05
0.001186
0.005214
6.597e-06
0.006702
7.928e-05
4.886e-08
4.651e-06
0.0001093
7.898e-06
0.000136
5.35e-07
1.955e-06
0.002038
2.618e-05
3.651e-05
7.562e-06
0.0001867
1.31e-05
7.838e-05
2.418e-05
2.94e-05
0.0001558
2.054e-05
9.42e-05
1.546e-07
2.66e-06
8.11e-05
9.4e-05
5.146e-08
8.225e-05
2.56e-05
2.008e-05
6.225e-07
6.926e-06
2.427e-05
7.855e-06
0.000133
2.548e-05
0.001039
0.0001627
0.006703
7.736e-06
4.665e-05
6.456e-06
7.389e-05
4.336e-05
5.06e-06
3.072e-09
1.808e-06
2.835e-05
8.366e-06
2.411e-06
1.492e-05
0.0006445
0.0001552
1.072e-05
3.886e-06
6.517e-05
9.492e-05
0.000229
7.508e-05
0.003885
9.808e-06
1.003e-07
7.164e-05
1.091e-05
0.0002753
6.134e-05
1.945e-05
0.006726
1.333e-05
0.0001157
0.0003489
1.108e-06
0.0001546
3.526e-05
8.64e-05
2.965e-05
6.907e-06
1.462e-05
4.121e-06
5.747e-07
5.522e-06
0.006715
0.0001239
1.054e-05
3.876e-08
4.306e-07
1.1e-05
3.051e-05
1.833e-05
0.003114
3.547e-06
2.958e-06
6.987e-06
5.821e-06
7.637e-06
1.602e-05
6.729e-06
2.097e-06
5.543e-06
2.244e-05
1.01e-06
7.864e-07
5.742e-05
5.34e-05
3.093e-07
0.001685
4.551e-05
0.002449
0.006699
5.882e-06
0.001957
1.096e-06
1.071e-05
3.342e-05
9.988e-06
7.988e-06
1.613e-05
8.233e-05
2.848e-06
8.782e-05
0.0002481
1.764e-10
7.629e-05
9.314e-05
0.0003528
7.811e-10
3.084e-05
1.937e-06
4.181e-07
0.003147
2.959e-05
5.978e-06
8.462e-05
4.276e-05
2.868e-06
2.922e-06
3.431e-06
0.0001025
7.731e-05
0.0001157
3.546e-05
0.006701
4.686e-05
4.353e-05
4.152e-05
1.437e-05
6.91e-06
1.653e-07
8.466e-05
0.003537
3.394e-05
8.687e-05
5.994e-05
9.589e-06
5.684e-05
9.669e-07
8.442e-06
1.673e-07
6.844e-06
5.068e-05
6.512e-06
2.685e-05
0.0001013
4.551e-05
1.783e-05
8.643e-10
3.447e-05
8.04e-06
8.268e-06
0.006567
4.186e-06
4.123e-05
0.0001357
8.792e-05
7.78e-06
2.646e-05
4.232e-06
3.588e-05
2.779e-05
1.068e-07
0.006587
4.248e-07
3.243e-05
7.212e-05
2.283e-05
4.056e-07
0.004962
5.035e-05
5.527e-05
2.985e-05
5.545e-07
2.012e-05
2.453e-05
2.693e-06
0.0001037
8.374e-06
0.006763
0.006749
6.774e-06
1.782e-05
2.07e-05
1.741e-05
7.492e-06
0.006688
1.593e-05
5.217e-06
9.707e-06
0.0024
0.00298
7.93e-06
2.549e-05
6.417e-06
4.473e-07
3.074e-07
0.006121
3.665e-06
4.056e-09
9.064e-05
7.283e-06
4.237e-06
0.001891
9.662e-05
3.846e-06
5.808e-05
0.0001858
0.006655
0.006617
0.006639
0.006375
0.001128
0.0002272
2.422e-05
1.97e-06
5.294e-05
2.327e-05
5.013e-05
1.811e-05
0.006099
5.85e-05
0.0001217
6.71e-06
2.148e-05
5.276e-06
6.333e-05
8.654e-06
8.288e-06
9.829e-06
6.856e-06
0.0003724
8.088e-06
4.306e-10
1.647e-06
5.118e-06
2.781e-06
6.901e-06
0.005436
6.967e-10
9.729e-05
1.252e-06
4.693e-05
0.0001108
3.695e-09
0.006696
9.519e-05
2.784e-05
0.005087
2.942e-05
0.0001201
2.61e-05
0.0001039
1.09e-06
4.649e-05
1.639e-05
0.006633
5.843e-06
9.003e-06
5.194e-05
0.0001257
1.032e-05
0.006717
0.003081
2.363e-05
2.82e-05
2.948e-05
0.0004563
4.161e-05
2.234e-05
9.154e-05
1.615e-06
8.298e-06
3.536e-05
0.0001426
0.0002322
8.964e-05
0.0001772
1.26e-08
1.913e-06
0.004788
1.712e-08
0.004503
0.006549
3.923e-05
0.001417
1.138e-06
0.0001062
1.872e-06
0.0001695
5.823e-06
0.006697
0.0003265
5.178e-05
7.299e-06
0.0001682
0.0035
5.681e-05
1.101e-08
1.511e-05
0.006702
1.286e-05
1.362e-05
5.632e-10
0.001944
3.598e-05
1.582e-05
0.0001019
0.0004272
4.521e-05
4.855e-06
2.834e-08
5.009e-06
8.048e-06
1.132e-11
0.004988
7.023e-06
1.952e-05
6.969e-06
0.006696
7.533e-06
3.45e-08
7.957e-09
5.227e-07
0.0001697
1.536e-05
7.058e-08
0.0004394
3.121e-05
0.00669
4.437e-05
2.248e-05
3.182e-05
4.037e-05
6.161e-07
5.13e-05
7.985e-05
1.083e-05
0.006706
0.002051
3.49e-06
2.534e-05
6.316e-05
2.022e-06
2.559e-05
0.0001344
0.0001142
9.82e-06
1.734e-05
0.0001318
0.005133
6.898e-06
8.482e-06
6.995e-06
3.93e-06
7.626e-06
3.866e-06
1.149e-06
1.876e-07
4.428e-06
7.264e-11
4.526e-06
0.000284
1.236e-06
0.0002809
7.988e-06
3.825e-07
0.004578
6.133e-09
0.006705
1.9e-05
5.028e-06
1.759e-06
2.918e-05
4.115e-06
6.376e-06
5.139e-06
0.00665
1.77e-09
8.173e-06
0.002111
9.057e-05
7.561e-05
1.553e-08
5.429e-06
2.792e-10
2.861e-05
9.165e-07
5.015e-07
2.03e-05
1.792e-05
8.089e-06
1.214e-05
0.006673
0.0001381
8.783e-06
8.774e-05
9.064e-06
0.0001926
0.000213
7.841e-06
7.379e-06
2.664e-06
7.028e-06
0.003768
7.314e-06
2.747e-05
8.912e-06
5.335e-05
0.002441
6.412e-05
1.029e-05
2.886e-05
3.007e-05
2.324e-07
0.00214
0.00208
6.856e-05
7.2e-06
1.676e-05
0.0001439
3.048e-05
0.006501
0.0002159
8.466e-06
0.006338
5.028e-05
6.136e-07
0.000118
6.706e-05
0.0001671
1.101e-07
2.817e-08
2.38e-06
6.077e-05
6.168e-06
9.386e-05
3.178e-05
5.227e-05
2.358e-05
3.072e-06
0.0001299
1.632e-07
7.476e-06
8.019e-08
5.025e-06
4.225e-05
8.419e-09
0.0002421
7.738e-06
1.239e-05
0.002639
8.854e-06
0.0001104
0.001253
1.656e-05
8.53e-07
8.381e-05
5.53e-06
1.016e-05
3.848e-09
2.045e-09
0.0002654
1.716e-11
0.0007271
3.901e-05
9.041e-05
0.0001416
2.134e-05
0.006705
5.917e-06
5.392e-07
5.041e-05
3.14e-06
4.135e-05
1.297e-05
6.176e-06
6.86e-05
0.0001216
2.293e-05
0.0002425
1.612e-05
3.555e-05
0.005142
1.743e-05
6.82e-06
0.006701
0.0005089
2.083e-06
0.006698
2.065e-05
6.121e-05
7.25e-06
4.714e-05
6.017e-06
0.001387
5.491e-05
2.934e-05
1.883e-06
2.482e-07
1.145e-06
8.521e-06
0.006687
2.055e-06
0.006716
0.0002014
7.03e-05
4.924e-05
2.864e-06
6.663e-05
8.076e-06
2.976e-05
1.677e-06
2.038e-05
0.0008196
0.0001102
1.231e-05
0.006675
7.223e-05
0.006697
2.612e-06
1.683e-05
4.446e-06
0.0001212
0.006654
3.252e-05
7.329e-06
1.123e-05
1.339e-07
2.638e-05
5.306e-06
0.000375
3.884e-05
9.509e-05
4.586e-05
3.471e-05
1.154e-05
0.0001944
6.524e-06
0.0001271
3.63e-06
7.21e-06
0.006632
0.006757
0.0014
0.0003179
3.827e-06
9.236e-06
3.837e-05
0.001444
8.28e-06
6.593e-06
8.034e-06
0.006698
4.811e-06
2.515e-05
5.67e-06
0.002337
2.062e-09
1.654e-05
6.364e-06
0.003231
0.001438
1.67e-06
0.0002492
8.123e-06
1.93e-06
1.775e-06
5.653e-05
4.368e-05
0.006698
4.622e-06
3.854e-06
6.639e-06
9.881e-05
9.489e-06
4.188e-05
0.0001544
5.936e-06
4.239e-07
0.0067
4.446e-05
9.607e-06
1.462e-05
4.666e-06
0.006702
1.963e-05
1.814e-05
9.991e-05
3.986e-05
2.646e-05
3.961e-06
0.0001635
1.149e-05
4.212e-05
0.000237
9.284e-05
2.468e-05
0.005169
4.509e-06
2.739e-06
0.0001502
9.92e-05
1.395e-05
1.163e-05
4.594e-05
0.006696
0.0002232
0.0002727
0.003249
8.015e-08
8.319e-05
0.006698
0.0006919
8.086e-06
1.11e-08
0.006698
0.0001791
1.676e-08
8.024e-06
4.003e-05
3.275e-05
3.977e-07
2.855e-05
5.55e-06
8.316e-06
4.191e-09
1.772e-05
0.001219
7.972e-05
1.332e-05
9.494e-05
0.006685
0.000185
2.257e-05
0.0001062
3.438e-05
7.495e-06
5.363e-08
0.0001041
4.041e-05
2.677e-09
2.544e-05
3.496e-06
0.0001708
3.659e-05
9.198e-05
1.061e-06
1.968e-07
0.00669
2.451e-05
6.239e-06
0.006698
1.099e-05
9.69e-05
8.258e-06
0.0002613
7.802e-06
8.431e-06
5.132e-05
1.713e-05
0.004701
0.001621
0.0001047
9.791e-05
0.006783
2.075e-05
0.0002051
3.824e-07
0.0003245
7.867e-05
3.739e-06
8.311e-06
6.661e-05
6.532e-06
0.006715
8.493e-07
8.892e-06
3.877e-07
8.328e-06
6.071e-05
1.737e-06
1.919e-05
3.238e-05
1.768e-06
3.636e-05
3.654e-06
0.006702
0.006691
0.0001196
3.01e-05
0.006686
6.832e-09
7.093e-06
1.536e-06
8.981e-06
1.768e-05
6.749e-05
0.005082
7.526e-09
0.0008698
5.564e-06
0.006761
1.115e-05
2.404e-05
0.0001399
8.14e-05
7.78e-06
0.0001253
5.403e-06
0.006662
6.504e-05
2.383e-07
8.997e-07
1.39e-05
0.0003107
0.0002001
2.212e-05
0.006699
2.763e-05
4.998e-05
0.0001796
0.0001958
0.0001319
3.354e-06
0.005924
0.006717
1.595e-05
1.514e-06
0.0002334
1.852e-07
0.006701
2.707e-06
7.465e-05
6.292e-06
0.006701
7.067e-05
8.471e-06
2.077e-06
1.08e-05
8.56e-05
2.305e-06
0.006723
4.163e-07
0.004801
2.726e-05
5.932e-08
0.001062
8.216e-05
4.488e-05
3.1e-06
1.892e-08
2.197e-05
7.842e-05
0.006662
1.741e-05
9.864e-05
0.006702
3.44e-05
5.064e-06
2.318e-05
0.00678
0.0001951
6.752e-05
9.979e-05
6.552e-06
8.736e-05
0.004035
2.008e-06
5.682e-06
2.326e-05
0.0004502
0.006698
0.006594
0.0008152
2.106e-05
7.148e-05
8.217e-06
2.769e-06
3.069e-07
5.925e-06
2.075e-09
1.18e-06
0.00137
3.149e-06
2.187e-05
2.328e-06
0.0001303
7.012e-05
1.443e-05
3.104e-06
2.385e-05
8.56e-08
5.231e-05
0.0003563
8.235e-05
2.707e-06
7.191e-06
1.213e-05
0.0001981
5.757e-05
2.943e-05
1.213e-06
0.00416
6.857e-05
3.558e-05
1.737e-05
4.856e-06
2.791e-05
3.03e-06
1.041e-05
0.006666
3.125e-08
6.633e-05
0.006766
4.63e-06
0.006696
1.792e-05
5.562e-05
0.001462
2.916e-05
7.208e-06
0.006707
2.922e-05
3.18e-05
3.715e-07
0.0006381
1.082e-05
7.341e-06
6.608e-05
0.006692
1.217e-06
0.0001404
0.0005863
1.273e-05
6.15e-05
8.287e-06
4.761e-08
8.702e-06
2.886e-05
1.843e-05
2.579e-05
3.475e-06
0.006702
0.0002739
3.9e-06
8.255e-06
5.918e-05
0.006701
3.002e-09
7.831e-06
1.091e-05
9.694e-05
9.901e-05
1.871e-05
0.006671
0.0005702
2.647e-05
8.387e-05
2.575e-05
6.953e-06
7.29e-06
3.105e-05
6.588e-06
6.628e-06
6.089e-05
4.455e-05
5.439e-05
1.195e-05
2.141e-05
3.192e-05
0.006701
1.5e-05
0.0009886
0.0001404
5.798e-05
7.839e-05
1.973e-07
0.0001027
1.365e-08
1.88e-05
1.356e-05
0.002306
0.006694
5.87e-05
1.412e-05
1.097e-06
1.703e-05
9.383e-05
7.523e-06
6.464e-07
7.22e-06
2.188e-05
2.493e-05
3.486e-06
8.008e-06
9.354e-06
7.684e-05
8.303e-06
5.073e-05
2.47e-06
2.385e-05
2.718e-05
0.0002459
7.951e-06
0.006694
8.02e-05
0.0003565
0.006692
7.77e-05
8.327e-06
0.0002737
6.307e-12
7.202e-06
1.609e-05
0.006699
8.2e-06
5.162e-05
0.003027
1.239e-05
8.81e-06
1.092e-05
2.03e-05
7.923e-06
0.006698
2.012e-05
0.006722
7.855e-05
3.683e-05
2.507e-06
5.394e-05
3.582e-06
1.012e-11
0.0066
0.006694
1.09e-05
5.759e-06
8.552e-06
0.0001421
5.711e-06
8.24e-06
3.48e-05
0.0001336
0.001282
3.41e-06
1.461e-06
1.429e-05
0.0001562
0.00669
8.269e-06
4.903e-05
6.639e-06
7.877e-06
8.431e-05
0.000642
2.711e-06
1.537e-05
0.0002797
9.468e-06
2.969e-05
8.28e-05
0.006709
0.006327
7.523e-06
4.963e-07
1.726e-05
3.515e-05
8.447e-05
0.0002864
8.061e-06
2.243e-05
0.006633
4.95e-06
1.302e-05
4.992e-07
1.446e-05
7.866e-06
0.006685
7.434e-06
6.872e-06
4.904e-06
4.815e-07
7.063e-06
2.246e-05
7.149e-06
5.81e-06
8.014e-06
8.035e-06
9.188e-07
6.702e-05
0.002043
5.131e-05
5.736e-05
4.113e-08
0.0004876
0.0002278
8.551e-06
1.238e-05
0.0001561
2.213e-06
4.197e-05
5.281e-07
7.228e-05
9.496e-07
1.682e-05
6.58e-05
2.443e-05
4.914e-07
0.0001294
3.156e-06
2.024e-08
0.004863
2.316e-06
4.207e-06
1.029e-06
1.632e-05
7.107e-06
5.384e-05
7.963e-06
8.379e-06
3.305e-05
2.927e-05
1.476e-05
0.0001544
0.0001539
0.0002353
8.826e-05
1.258e-05
0.0001446
6.527e-05
3.79e-07
3.2e-05
2.234e-07
8.269e-06
7.302e-06
0.006657
3.444e-05
7.243e-05
1.278e-05
3.788e-05
5.937e-06
3.848e-05
4.469e-06
0.0001028
1.713e-05
7.487e-05
3.405e-05
7.694e-05
0.0007602
0.0001098
0.0001157
1.715e-05
0.0001235
3.878e-05
1.794e-05
7.54e-06
0.0001146
4.823e-06
2.003e-05
1.214e-09
2.619e-05
3.851e-05
1.585e-05
2.389e-05
9.369e-05
2.313e-06
0.003985
0.002193
0.005343
0.0001239
8.237e-06
3.58e-05
0.0002354
4.786e-06
8.286e-05
4.766e-05
5.69e-10
7.537e-06
4.377e-07
6.122e-06
6.957e-05
7.136e-06
5.885e-07
0.0009843
2.035e-05
0.006698
9.466e-06
9.047e-05
1.163e-06
4.92e-05
0.006685
0.006676
4.607e-05
6.715e-05
0.000109
1.287e-06
8.078e-06
0.006679
0.006698
8.969e-06
0.000213
3.921e-07
4.558e-07
0.005841
3.97e-05
6.608e-06
1.833e-06
2.559e-05
1.404e-06
8.153e-06
0.0001988
1.015e-05
8.264e-06