/*--------------------------------*- C++ -*----------------------------------*\
  =========                 |
  \\      /  F ield         | OpenFOAM: The Open Source CFD Toolbox
   \\    /   O peration     | Website:  https://openfoam.org
    \\  /    A nd           | Version:  8
     \\/     M anipulation  |
\*---------------------------------------------------------------------------*/
FoamFile
{
    version     2.0;
    format      ascii;
    class       volScalarField;
    location    "35";
    object      omega;
}
// * * * * * * * * * * * * * * * * * * * * * * * * * * * * * * * * * * * * * //

dimensions      [0 0 -1 0 0 0 0];

internalField   nonuniform List<scalar> 
127143
(
2.183e+06
4.105e+06
4.682e+06
1.997e+06
1.676e+05
2.021e+06
6.622e+04
1.157e+05
1.848e+05
2.697e+04
9.739e+04
1.521e+05
5.509e+06
1.69e+06
123.2
5963
5.655e+05
2.008
12.95
4186
61.7
4331
0.1325
149.1
4480
626.2
1772
1942
1248
0.9667
244.7
640.8
4273
471.1
0.05955
4143
46.31
5.778
102.9
718.6
12.95
2.416
1.493
7.844e+05
2.012
461.4
1188
60.04
131.4
117.3
5071
0.02892
53.34
0.4307
0.02097
249.4
0.02096
0.4122
0.02302
0.4262
0.968
17.06
35.35
0.02211
629.5
1.026
0.07386
42.07
41.92
0.06823
176.7
1754
48.74
0.02301
0.0218
1878
0.02462
96.54
246.2
0.02222
1035
3705
330.7
588.9
46.67
81.62
76.55
2423
0.8465
437.6
0.02396
0.6359
243.9
61.68
186.1
0.6405
2.133
316
77.17
0.07251
0.02221
122.9
1923
2.378
81.47
79.28
41.66
0.06845
4.212
0.02133
120.7
2450
107.1
34.57
0.02184
1.359
0.02495
0.0218
0.02442
1.646e+04
0.02134
279.3
13.22
0.2277
1055
755.3
27.81
0.02562
136.6
238.2
117.1
201.9
19.65
95.42
6.412e+04
116.7
0.06815
35.99
501.1
0.06113
0.2181
0.02364
31.35
17.88
51.49
68.02
5984
0.02213
202.8
2693
4.748
110.2
4.669
0.1179
42.86
47.46
0.412
268.8
59.85
424.3
156.8
5338
0.02403
117.8
551.2
586.9
57.88
1.601
1720
0.03034
114.2
17.86
1.773
7.498
0.2039
27.85
59.8
136.1
124.5
0.03684
7.485
0.03803
27.25
27.85
239.8
16.27
0.1962
36.77
136.6
0.03651
83.82
176.1
0.06122
134.7
1.171e+05
23.9
0.01956
0.0195
1.674e+04
0.02207
0.02183
0.03036
0.2161
47.87
6.339e+05
59.09
0.06451
6.848
0.7968
0.02183
0.2471
40.74
0.02186
1728
125.3
1.446e+04
281.5
7.093
149.9
0.06486
48.5
0.02185
110.1
44.34
411.7
137.7
425.2
5.592
100.2
49.73
67.59
0.03772
44.73
1.13e+04
67.4
0.1163
117.8
2.561e+05
0.02183
62.44
166.3
557.7
39.49
265.7
14.71
1.322e+04
65.68
1711
9734
0.08207
12.87
608
8.588
35.29
172
4.274
0.02553
1237
3.705
0.09329
22.39
0.03077
0.5972
0.02346
36.68
574.3
103.1
55.87
2.045
5.183
456.3
0.2021
55.27
63.02
22.09
78.32
106.5
94.24
0.3412
3.85
0.04689
1.911
2.34
0.02179
0.02181
1.088e+05
148.4
0.02185
105.5
0.03842
4.417
0.4134
0.116
2.409
0.02224
7.193
215.2
50.36
39.72
4.514
324
0.8303
0.7209
1.248
488.4
26.85
6.814
0.02188
3.994
9.798
46.08
124.2
310.2
0.03796
0.02182
253.3
9.173
316.6
0.3315
0.6968
0.1233
189
0.0335
8.61
264.2
15.03
0.03911
110.5
202.1
50.36
40.99
0.02181
0.05834
0.01957
0.01951
0.1147
4.066
1.771
41.18
160.9
0.05919
7.097
40.75
70.7
28.17
105.2
266.8
130
312.7
177.9
272.5
5.283
29.39
77.85
0.03393
236.5
35.28
52.08
0.02466
202
51.22
29.75
0.7899
110.8
114.6
0.02193
0.02205
1.026
423.6
0.3798
4.798
0.03372
446.1
124.7
0.03454
0.1248
196.6
8904
64.76
0.3177
1.23
727.3
236.8
0.8215
0.0248
1778
0.05062
688.4
25.11
3.377
0.02234
0.4433
93.52
157.8
135.3
234.1
0.4604
197.7
0.03362
0.03026
598.3
0.02185
51.83
27.28
0.05248
7.095
82.08
17.91
0.02222
107.7
11.99
304.1
0.2204
62.26
11.52
184.5
96.92
469.1
5.769
43.79
57.41
517.5
155.7
0.06327
50.31
0.1136
1.247
0.1352
513.5
0.07971
0.02116
141.8
29.39
0.3949
27.36
0.02192
8.199
278.8
0.02847
0.02221
0.02173
101.5
0.06917
4.882
0.02649
313
0.02189
49.94
1.046
40.8
74.44
206.1
6.014
458.2
0.05061
42.53
358.4
426.3
54.96
4.054
16.08
64.59
6.876
14.22
74.07
0.1594
0.02266
49.71
233.8
0.0208
60.77
0.622
0.2277
8.736
0.05479
0.02029
46.4
0.5739
172.9
26.5
884.2
48.22
342.4
312.7
9.872
27.3
18.7
0.02171
339
0.02374
162.6
67.88
61.62
69.88
1.98e+05
130.5
11.59
0.1306
21.37
0.02176
852.9
0.02273
39.58
21.75
2.882e+05
1.484e+04
4.685e+04
0.02194
234.9
107.6
0.02181
40.66
16.63
70.07
2.609
75.67
207.9
60.85
793.5
0.1372
35.68
9677
59.35
314.5
99.9
0.02277
4.353
0.1821
5.881
0.02422
360.6
3417
101.3
0.01972
49.66
0.1328
156.4
11.71
2637
4.443
0.02396
69.64
7.76
0.02082
0.8257
4.71
185.1
110.2
238
190.1
24.55
10.17
30.54
80.83
141.9
0.02248
597.3
124.5
322.3
22.51
50.72
0.02213
0.02207
0.08576
266.4
30.56
0.02185
0.02704
5.481
121.3
78.67
9.853
219.7
577.1
2.024
0.02382
0.02134
176.9
79.01
19.62
0.03006
1721
16.41
179.8
0.3148
450.8
0.02186
82.33
27.08
3.105
0.02371
148.4
22.42
2128
0.02028
38.73
277.2
0.02172
7.082
0.02188
72.3
18.59
0.02179
282.5
179.2
108.3
145.6
25.03
273.5
237.4
39.76
93.29
201.2
105.8
32.31
51.02
404
0.02603
254.3
0.02179
24.01
0.0261
30.39
0.02117
0.02185
0.5071
43.57
94.35
0.02135
0.02117
91.15
2503
302.9
291.5
53.64
4.81
71.09
12.58
69.21
149.1
746.5
0.02138
318.4
63.64
0.7038
2.076
0.02439
0.027
13.15
410.6
18.69
818.8
0.02598
0.03391
96.18
320.7
0.02993
588.8
0.1928
0.1495
190.5
3.484
58.31
0.179
4.946e+05
123
55.6
42.54
147.9
219.5
417.4
349.3
0.02753
117.8
39.63
51.59
0.02123
89.68
0.7099
0.586
0.01971
0.0212
552
0.1308
221.4
180.5
30.45
3.997
1.621
351.4
0.1639
149.2
0.0217
0.0209
17.05
0.1194
404.9
0.4976
396.4
47.1
84.98
0.206
0.738
0.03023
311.8
0.05506
182.6
6.971e+04
15.38
32.16
61.58
0.02465
30.3
114.1
954.2
3.801
11.85
69.11
2339
97.11
40.13
15.16
123.6
37.94
9.744
27.39
0.4548
1.067e+06
0.6976
0.02991
41.36
17.89
67.47
0.02156
29.41
4.964
78.38
0.0361
802.7
153.2
440.8
0.03637
357.9
42.21
310.8
198.4
0.03107
81.96
81.56
243
37.77
0.02216
40.77
79.79
0.02225
6.987
1.167
205.1
129.6
0.7062
15.44
534.9
94.46
0.01935
81.64
26.18
649.5
301.2
0.475
39.94
185.4
0.01942
70.55
187.9
25.95
7893
25.43
96.63
81.52
37.74
2.323
0.02193
7.981e+05
126.6
136
277.2
62.92
59.87
70.68
139.6
0.02132
4.976
2.363
0.03166
109.1
162.3
42.47
13.05
0.02049
68.08
27.86
0.02171
0.02044
2.081
19.82
53.65
51.42
80.39
3738
3.489
0.387
0.02124
87.02
50.78
213.3
403.4
1.288
0.04776
0.02258
3.193
1837
0.02126
0.1897
149.8
28.9
582.7
0.02301
34.02
31.59
0.02182
308.6
0.02121
25.81
1519
294.2
17.41
930.8
0.02335
239.9
0.2007
361.1
52.29
428.9
3155
0.4694
0.8316
2.832
1421
0.02181
2.826
198.6
726
40.13
931
0.04607
0.174
176.8
611.4
1837
136.6
1.985e+04
418.6
3653
182.7
207.6
4.134
1606
0.02453
54.71
0.02537
0.02329
39.27
0.02915
133.9
27.32
32.35
0.8764
0.04511
344.7
43.33
0.02234
1.893
68.54
0.04302
311.8
2163
26.02
5.698
125.6
11.02
65
0.02174
61.65
184
0.0244
250.4
119.4
13.64
0.0207
1.736
1.344
7201
4.813
2186
59.21
13.95
33.31
325.3
393.2
0.02156
456.4
1.228
0.02309
5.212
7252
1.783
699.8
6.088
1.687
560.4
3333
145.8
0.02373
0.02184
6.11
9.229
93.2
300.7
72.01
607.2
184.5
0.1305
594.7
0.06525
1164
0.02162
64
140.9
29.58
171.9
79.92
0.02179
0.02237
216.1
0.2987
87
133.3
114
59.93
14.37
171.1
271
879.7
46.41
276.1
210
6.44
48.94
137.2
68.16
192.2
2826
82.03
0.02156
0.02143
78.31
49.73
0.8302
0.02095
14.25
71.08
0.5519
70.82
11.64
160.3
13.27
0.02223
0.4631
0.5811
1279
470.9
34.67
0.6694
2.486
427.1
141.1
15.45
30.9
17.01
73.05
54.88
775.8
0.02442
861.2
335.6
24.92
131.9
137.2
0.0219
656.1
1252
0.02094
0.02155
75.3
84.39
9336
45.65
52.79
115.9
154.5
0.5049
0.5316
0.02514
195
40.59
155
2.098
183.4
69.92
0.02391
849.1
54.92
0.02172
335.9
0.02264
0.0217
10.65
0.1447
2298
0.02158
303.7
0.02182
188.3
0.1176
1.901
3.508
251.6
185.1
190.6
20.53
0.05079
0.04094
28.19
100.8
55.98
109.9
1038
170.9
1005
156.7
152.2
653.9
181.3
598.5
0.3205
3.461
0.03147
334.4
31.34
399.1
0.05206
53.09
35.74
43.72
34.2
89.15
0.8098
388.8
11.79
43.8
49.9
281.9
53.58
0.02075
12.96
342.2
0.02287
259.1
537.5
0.02083
1.934
39.8
0.03994
0.3483
8.738
84.4
0.2506
0.01993
231.6
157.4
0.0218
0.2231
0.0374
70.96
198.1
4.024
0.04075
98.14
2071
251.3
138.5
40.52
1568
0.06127
79.27
0.02178
105.4
12.44
245.8
34.14
98.15
834.6
0.02197
9517
244.9
241
28.37
976.8
15.03
3.075
504.3
35.43
0.04149
1.917e+04
51.74
142.5
359.5
90.48
35.03
48.86
483.8
45.16
101
18.98
205.1
165.5
1.881
1767
0.1336
51.17
0.1284
255.1
0.01985
0.02166
11.39
1647
72.52
0.204
750.9
166.4
0.02181
2581
52.55
14.42
2106
2.893
42.04
1.927e+05
1.891
438.9
39.45
39.21
916.6
161.7
416.1
9.739
325.5
0.08896
0.6511
5.183
128.1
4.107
51.66
53.09
513.2
59.27
0.3771
47.7
2.179
1.306
5.221
1682
0.05223
1688
359.3
48
87.76
0.02181
36.09
101.3
1.647
275.8
343.1
496.9
0.02136
195.4
108.4
96.95
877.1
60.49
4.665
126.7
0.02243
177
74.56
2903
227.5
0.09786
37.11
0.02267
2356
1004
59.96
0.8249
3.968
0.02081
0.01984
58.51
33.61
14.07
0.1261
0.04146
0.04499
22.19
104.2
5.462
327.4
129.6
940.4
1.462
431.7
74.49
80.04
0.01988
243.8
37.46
23.21
1134
4.706
11.26
74.15
29.6
67.57
2958
1.122
133.1
50.5
11.69
2.634
114.5
2454
0.2324
80.29
0.0212
145.2
686.5
0.02038
791.9
15.34
69.38
201.9
0.0214
1.687
1.066e+04
0.02192
110.9
191.8
45.04
1029
0.9328
2.392
75.81
560.2
70.57
266.6
0.08327
33.54
169.6
3435
163.3
121.1
0.0217
159.5
4.665
353.3
168.6
26.31
95.54
0.02217
1.489
138
0.02432
46.59
0.02129
2242
54.24
1565
73.87
37.57
792.9
94.03
86.55
143.7
4866
140.9
123.7
27.09
63.85
54.87
0.02211
34.77
0.02302
36.31
0.02201
49.71
0.02148
247.7
50.41
0.02082
0.02173
52.8
0.2333
257.7
0.1405
0.02024
9.27
107.5
0.04021
5.024e+04
299.7
5222
87.78
19.39
156.4
90.98
26.41
0.3321
766.4
33.87
246.1
522.4
105.2
48.58
9.664
0.02156
4827
132.1
663.9
0.02181
1027
39.85
158.8
70.77
0.01977
0.01975
0.3841
1.092
5.587
23.17
31.75
1.152
2.617
0.6368
2.015
506.9
27.79
2.581
87.93
2.717
596.1
237.4
34.22
170.4
59.45
0.02243
30.93
33.49
1025
41.77
0.04007
24.43
1.066
74.28
29.32
706.1
0.7912
0.02174
50.38
10.85
1439
484
0.8325
123
243.4
0.173
0.01973
501.3
240.4
5502
0.09221
1789
69.58
0.02155
251.9
110.2
18.88
0.2542
31.73
77.86
27.14
97.47
46
135.8
0.05197
39.69
279.3
293.2
0.04286
0.04277
193.7
20.06
6097
97.81
337.6
364.8
4853
0.75
59.81
0.0279
0.02201
0.02151
57.66
0.02187
1353
0.02174
4260
0.5271
17.53
51.93
261.6
0.07283
1722
0.3351
181.3
71.78
890.1
0.02283
227.3
207.4
59.4
275.7
98.24
77.84
536.7
642.6
0.05603
0.02061
877.6
0.06025
0.02018
0.5081
284.6
0.02061
652.4
0.02185
56.14
26.01
32.13
134.5
0.02099
73.08
283.4
87.21
0.1122
5.787
0.2958
0.02179
0.02123
74.61
2.084e+04
8.58
44.48
0.02688
1184
0.507
0.1145
0.048
2.661
87.18
244.2
0.02808
38.34
0.02361
84.06
0.02217
0.941
27.69
26.09
24.23
338.9
184
0.02123
26.51
545.2
151.3
953.3
434.7
7.116
0.03898
5.007
8503
37.63
473.8
566.1
0.05651
0.2721
0.02164
163.6
86.44
74.21
0.02181
96.73
0.02176
0.2605
72.53
0.02154
6.118
0.4588
14
34.79
0.3093
166.5
0.0219
150.7
467.6
2.135
12.67
84.01
0.04669
14.02
29.52
74.2
18.13
43.92
301.1
132
215.5
576.9
0.09858
0.342
18.88
0.04146
117.5
82.3
0.1684
39.07
0.02681
0.1389
169.5
1.345
13.35
74.17
1083
57.31
915.2
0.8532
0.02066
905.1
64.15
0.1305
185.8
0.03184
24.52
0.02223
16.81
833
37.77
12.38
27.88
70.77
0.02187
30.77
0.7546
8.954
1208
0.02823
47.5
517.9
0.02161
0.02885
28.48
0.05719
49.3
2.516
2.01
16.17
0.7588
40.09
0.0604
0.9544
129.7
0.02077
0.297
1255
845
0.02099
95.3
1125
4.547
514.2
34.68
80.86
822.4
0.04939
0.08962
30.43
0.02835
546.7
14.23
49.59
744.8
273.9
0.0276
275.5
1.45e+04
4.755e+04
33.1
31.38
248.6
0.7242
58.69
6.093
37.84
283.5
53.82
41.46
29.78
1033
89.97
1.169
0.02184
424.9
1.197
114.9
0.516
0.05851
63.25
33.15
4.42
0.02055
185.1
440.9
8.365
396.3
57.24
1109
131.4
0.03117
255.1
449.4
63.76
51.92
1469
0.0194
2584
122.9
80.76
0.02562
61.78
45.13
301.4
345
44.76
410.7
0.02572
7.619
96.53
0.06528
49.65
0.02193
208.7
2624
74.29
409.5
5524
50.25
1069
0.0795
334.6
5.974
45.24
0.04852
8.821
16.24
48.59
57.07
0.04746
39.35
3355
5415
47.34
2.839
1.073
1.768
0.02241
0.02947
105.3
0.5172
0.02248
37.9
63.74
135.3
86.05
4.9
70.74
12.41
644.2
955
1243
0.1207
45.08
2619
23.21
216.2
2.616
6.787
28.44
3.391e+04
8.143
7.253
0.03496
0.07
738
41.7
0.02181
0.02196
40.06
389
44.27
50.62
1961
27.6
0.02718
366.6
48.74
73.91
611.9
0.5287
1.731
51.39
161.9
0.8433
174.9
0.02189
107.6
28.87
393.4
0.8025
106.7
555.6
2.094
384.1
11
282.5
68.48
171.8
0.169
48.17
99.06
79.45
375.1
79.46
1375
172.2
0.02182
59.84
2.612
315
27.65
0.183
10.81
0.154
856.6
0.03785
49.73
29.26
51.54
53.06
28.49
0.2453
918
0.2888
0.02782
204.9
0.02092
53.34
0.03958
0.8779
23.99
0.02152
0.3955
107.1
153
0.02178
0.02518
53.77
9.829
295.4
0.2335
23.4
43.53
325.6
227.2
1.104
37.5
8.38
0.102
53.21
2367
14.92
1972
195.2
17.7
1029
0.02183
0.02062
2.458
2.355
5279
0.02181
10.49
227.8
1.421e+04
190.3
252.4
0.0196
0.01917
182.4
198.5
32.28
40.77
0.0419
2.277
1.173
0.02222
362.7
68.74
38.03
33.44
679.3
0.3124
3.261
0.01994
5.559
64.14
343.4
154.2
174.8
243.7
83.16
97.27
57.14
341.8
181.5
0.0938
60.07
600.3
0.02589
0.02329
172
80.36
1068
3.619
93.88
227.9
0.1171
0.02179
9.388
0.02211
92.63
1957
52.54
0.1932
23.19
0.05785
398.7
282.7
0.0553
6.806
5.071
44.31
44.36
17.16
177.4
125.6
87.73
74.19
8.614
38.91
418.3
48.97
153.5
34.04
3936
56.83
88.64
193.2
15.85
4.034
7.847
1119
0.5249
252.3
0.02337
54.25
0.02214
68.32
16.39
1059
135.4
0.1336
328.9
3069
431.9
78.79
30.48
313.9
1530
0.2001
43.95
17.28
1964
128.5
74.1
0.2639
0.4624
0.02183
25.66
2605
2.629
101
51.76
0.1422
1081
0.01987
17.25
0.5895
41.16
187
0.2444
2.319
22.3
0.05321
38.14
12.49
1015
260.3
107.3
0.02158
54.2
93.09
527.7
818
17.89
8.483
133.8
0.02188
125.2
90.21
8.19
16.31
35.64
828.5
312.1
86.95
70.72
0.7386
6.799
488.1
3.454
0.1155
1320
0.05687
0.7311
0.0219
0.02199
68
0.02241
200.2
19.13
1.109
28.23
307.3
896.4
91.97
73.18
121.4
44.76
8480
97.84
129
0.6916
3307
24.92
490.5
1189
0.03489
246.8
289.9
2.223
37.5
294.2
231
274.6
82.25
103.9
0.03066
7.225
0.02207
1.098
35.62
57.59
16.87
45.35
1689
44.4
0.02243
344
115.7
2.848
22.78
112.3
82.7
256.8
386.2
918.5
113.8
104.3
87.23
125.3
76.18
0.1124
4137
370.8
39.09
3.543
0.02267
129.1
344.8
58.83
2.151
958.1
396.8
124.5
2.627
109.4
1997
0.02264
335
16.14
0.0493
9.842
184.2
0.02184
259.6
39.12
5.78
4859
5.972
146.1
3322
81.45
102.7
0.01986
0.0198
96.53
12.63
3.53
663.5
55.8
0.02152
814.7
342.6
59.32
0.0226
0.02244
62.19
4.052
93.54
1.122e+04
208.2
0.02406
243.4
2112
0.1241
251.3
140.8
0.06829
0.9799
274.7
0.8969
39.63
0.01966
0.01944
0.01946
0.01961
0.08471
31.71
7.856
104.8
3.473
103.7
82.2
883.6
0.0204
176.3
50.41
172.8
633.6
206.7
34.92
30.08
141.2
50.23
67.5
0.1123
42.97
6286
70.03
694.2
0.8685
27.36
0.02178
3447
128.4
132.1
3.75
0.03758
2835
0.0218
42.8
580.2
0.0286
209.3
85.56
34.68
45.1
175.6
0.05772
173.6
0.02069
6.276
88.95
111.7
60.88
16.96
0.02166
0.02192
0.3473
60.23
245.3
0.3751
47.23
217.6
1.819
237.8
142.8
5.602
36.65
30.13
71.18
0.2177
3390
1.004
0.02179
1174
0.02179
0.02283
0.3795
0.07927
292
50.23
401.7
76.96
137.4
0.02188
0.103
61.28
84.33
55.14
0.03813
0.3807
1.002e+04
970
0.02213
1564
960.9
9292
0.05726
5.466
13.65
0.1095
0.02568
4.348
103.4
7346
0.1383
272
3.645e+04
0.02179
156.4
772.1
53.8
0.02179
325.9
8877
4834
1123
0.4907
15.16
2469
0.05907
86.71
0.02155
46.1
984.5
6.451
259.8
1088
0.2671
31.38
17.18
0.02225
0.034
199.9
385.1
3.116
326.5
179.7
1.021
46.62
50.4
118.7
79
0.0218
50.43
68.05
85.68
155.9
25.82
190.1
81.67
1433
1927
2.038e+04
217
0.0562
152.3
0.02772
344.2
290.5
0.02181
2.218e+04
0.02221
143.7
1249
549.4
69.89
132.1
95.4
39.25
0.01965
9355
35.3
0.04641
36.16
60.21
1757
852.8
3279
22.47
169.2
941.4
33.8
0.1164
37.48
1561
0.02089
83.44
28.23
34.76
25.26
39.98
31.73
659.8
52.72
48.64
984.1
0.0425
618
0.1307
21.26
83.42
0.02663
0.1465
18.73
428.5
371.3
1376
0.04506
0.02221
2.652
97.14
1600
57.37
8.497
0.01931
0.03445
393.9
0.01976
170.7
135.7
0.09067
196.5
40.92
2081
1467
862.6
0.04164
228.4
54.45
251.2
3.772
11.25
987.7
54.84
304
105.1
589.7
84.21
2.018
1882
33.17
37.44
55.79
0.0406
23.95
0.1912
0.02226
10.85
155.7
130.6
76.24
20.58
2687
4211
52.73
3.116e+04
0.1848
0.3895
0.03783
0.06769
9.72
0.02221
38.64
1231
161.1
537.8
1.528
17.68
35.57
161
50.74
525.4
45.33
2399
267.2
0.02436
74.54
38.52
0.02204
0.04317
478.3
0.02186
275.4
214.5
102
3.501
614.3
0.07424
0.703
0.05191
242.6
396
145.1
26.05
0.02144
87.5
0.02165
0.3383
120.5
2.944
974.1
183.8
268.8
6.713
2597
1.128
0.1607
75.69
110.2
0.02085
2.554
0.02185
324.3
352.3
120.7
74.17
0.02171
249.4
169.1
153.3
855.6
317
178
0.02472
1.111
1.997
2.186
364.2
15.27
0.09988
5.42
0.1709
24.33
125.3
0.02072
0.02045
0.02286
0.04285
0.308
143.9
205.7
0.02213
94.24
13.08
61.84
0.02194
122.7
0.1173
453.2
0.05783
6200
13.91
507.4
0.03463
0.1018
873.3
0.03187
60.15
62.31
75.5
141.2
182.9
0.02183
120.1
112.9
48.68
50.39
74.3
4.213
82.63
26.3
790.4
0.02154
46.29
18.66
1968
0.2078
0.02209
466.9
604.5
75.49
56.71
6.779
741
0.05424
15.68
55.49
54.47
34.41
5.157
0.02427
10.94
1073
116.4
33.68
1103
3.241
3.702
0.02168
0.03117
0.146
0.03589
6981
170.6
0.02195
0.02381
40.28
4341
0.02194
69.69
1055
60.73
3.473
271.9
1050
174.2
45.87
279.1
2266
540.5
0.02231
119.2
17.23
157.9
0.02139
0.3624
85.42
51.04
116.4
3313
681.1
1.427
234.8
2388
8.164
75.86
78.07
1.85
0.9546
425
1606
0.02158
362.7
49.13
0.02194
787.1
52.64
4.005
0.08172
34.83
244.2
130.7
12.38
0.02193
0.02204
1.889
34.05
0.02022
2.541
0.02797
294.2
49.81
53.37
181.1
444.7
1.889
49.41
0.02157
1046
16.52
1165
205.3
0.117
450.3
5.853
306.8
820.9
9.952
766.9
0.02082
0.02125
86.51
0.07793
0.0214
2006
85.18
90.64
348.4
12.95
114
0.02412
1945
0.04402
27.76
0.02044
0.2399
119.9
63.02
133
34.88
29.62
174.6
0.02048
135.7
396.4
410.8
1086
0.1498
32.02
7.83
0.02195
88.18
237.4
0.1844
0.05334
28.37
844.4
0.02131
0.02167
11.08
239.1
54.57
1564
0.02206
234.4
142.2
50.56
0.02208
0.09504
333
67.07
291
70.44
28.37
0.02055
175.9
0.02572
384.7
1369
0.07633
54.42
25.9
233.6
968.2
99.41
0.07307
0.02049
103.9
0.2511
0.02168
415.2
91.45
9.146
0.02053
0.08863
0.1197
0.03084
44.23
71.59
0.02181
301
28.15
96.2
0.02972
0.02191
0.02169
0.05492
10.45
2.467
238.1
1043
1409
26.39
2623
642.3
0.02549
975
139.8
281.4
30.38
0.1944
2.147
275.6
551.9
515
158.9
0.06456
86.93
68.76
42.94
8.655
0.2452
63.52
0.2673
94.78
0.02914
106
5.675
4.311
0.6195
574.9
1610
907.7
0.02062
4718
105.5
0.02016
112
0.02182
266.4
170.6
0.1043
449.5
30.71
0.0223
1.876
6.459
1137
0.02381
0.2634
863.9
2.712
0.02158
587.7
60.37
0.03513
0.2496
3.206
73.85
2708
220.9
159.3
13.47
60.7
1.853
0.02174
0.0518
58.89
42.81
182.5
0.02207
2322
96.93
17.4
32.52
104
151.2
0.0202
0.06558
117.8
170.7
0.05859
49.88
254.2
6.436
4.179
7.179
23.75
0.04958
17.68
15.97
10.15
6.101
0.02205
266.6
0.131
60.03
3.174
2.266
428.4
143
5902
10.99
1.065
0.06992
0.02123
3.113
12.73
629.5
1061
102.1
167
268.4
41.1
0.9084
143.8
203.9
733.1
70.38
0.05256
417.1
1.164
399.4
7.231
18.33
35.23
98.25
0.02179
49.3
0.243
0.02165
0.291
412.9
1.076
4.09e+04
235.9
108.2
0.02168
31.82
254.7
0.03796
55.59
75.42
149.9
63.53
279
0.02188
201.6
0.02075
2.262
323.9
56.03
3.038
211.8
3e+04
0.02196
0.02175
15.7
30.72
366.5
1.005
102.5
266.6
5.79
59.9
0.02223
176.1
505.6
0.1286
73.84
0.02157
23.8
0.07108
48.81
164.2
158.7
0.2911
87.28
15.5
0.02875
195.2
240.7
0.2469
0.02154
0.02391
168
1025
10.51
6.315
70.23
9.353
72.82
8.221
0.01939
0.4202
1.29
1639
1598
342.1
0.02135
223.8
56.93
184.6
272.8
1104
3.273
45.38
43.19
28.9
273.6
696.4
0.9421
0.05491
9.951
0.03835
3013
0.0238
49.41
205.6
15.4
59.23
258.2
124.7
496.8
34.15
198.5
13.22
2.715
435
1587
61.92
888.4
1551
0.0218
983.3
128.1
390.1
585.2
42.98
1.529
90.88
36.27
5.797
0.05095
27.31
72.66
32.25
38.37
70.87
1.127
1.252
0.7618
1016
109
1440
42.42
228.1
0.02028
386
170.5
502.5
28.49
970.8
328.7
125.6
0.1091
916.6
0.09593
51.67
99.5
0.07323
0.7047
82.02
10.53
33.13
55.51
9.358
75.86
59.12
1077
8.977
5795
0.04873
5.248
65.59
10.91
0.05885
258.2
0.02182
0.02263
0.02178
60.4
63.69
60.49
0.4711
0.1646
49.81
0.0514
5381
512.6
968.9
99.21
0.09623
275.5
627.4
0.08348
253.5
0.02187
25.9
21.65
151.8
2.105
0.0213
0.02194
213.1
22.58
0.04654
1039
67.06
0.02097
0.02182
27.91
0.03706
179.9
1052
0.02469
3.344
94.9
255.5
444.8
1087
9.989
0.1881
20.34
126
0.3284
342.7
8.963
2.51
245.7
103.1
3.152e+04
0.03174
24.43
261.2
1251
0.02184
73.94
0.02181
12.5
2.825
11.13
42.73
120.4
53.12
0.2442
396.5
89.04
208.8
282.5
278.3
73.36
1.371
30.69
332.1
49.14
118.1
0.02122
922.5
991.4
420.1
19.49
3.911
436.8
222
0.4842
0.1453
7860
67.5
0.04323
0.02875
0.04539
155
293.2
2.988
990.9
5.77
0.03293
44.88
26.97
36.56
181.5
5606
631.8
63.98
233.4
60.47
123.3
127.2
61.25
18.19
15.67
433
59.69
0.4417
46.69
242.1
0.2034
20.09
1.123
4.438
1073
175.5
0.02204
849.5
8.636
1176
181.4
0.02156
0.1384
269.9
0.03449
77.02
333.3
659.7
14.41
0.02322
0.2594
29.99
57.58
0.09445
154.2
0.02078
225.4
71.81
95.14
40.89
139.6
145.4
139.6
839.3
0.429
38.7
0.02183
1449
0.04814
0.02625
46.82
0.02216
34.99
38.29
1.927e+04
0.02196
70.34
31.11
185.2
150.7
0.2438
107.6
55.06
131.9
618.3
98.97
0.1246
0.02265
82.68
342.3
13.27
67.31
179.3
127.2
3.138
0.02116
35.89
70.19
2230
18.91
90.29
3.967
85.28
0.02151
8.226
983.3
392.2
0.02198
0.2883
184.5
0.01995
33.74
437.4
32.27
0.02195
0.02201
14.82
0.02492
0.02014
0.02174
16.36
244.4
389.3
0.3842
60.39
4.791
0.8412
0.02225
57.58
22.13
0.05052
1.047
384
2.158
0.02921
264.6
127.9
9.68
922.6
2520
0.02871
29.42
11.92
164.3
146
410.4
0.02194
22.26
1010
2.432
47.45
0.4905
529.6
97.98
75.66
5.749
1168
0.08706
2890
89.88
0.02904
0.0355
0.02001
88.14
91.41
710
391.8
3085
0.1345
0.01941
35.63
47.18
0.1596
0.0222
306.4
20.8
438
127.9
96.15
30.33
14.19
10.05
103.7
0.01988
691.6
184
89.13
5.464
0.1059
0.02251
50.72
39.01
132.9
1343
17.16
0.05015
25.6
0.7909
0.09978
0.0223
302.4
76.24
511.7
297.6
84.97
1.027
49.25
53.27
3.253
34.48
0.5112
0.1993
0.02192
27.49
1858
1.122
0.9467
3814
0.3367
0.02169
4.628
0.03318
0.02203
48.47
0.0195
0.01945
3.228
0.02012
83.22
1309
186.8
4.544
0.2126
0.02113
0.02197
5.098
88.17
13.03
992.1
45.12
0.0291
52.63
11.75
603.5
0.2744
0.02198
3.48
58.99
0.02203
0.02136
27.97
89.82
0.06742
0.03498
160.4
0.02132
0.3808
0.02189
5604
0.226
131.5
29.34
0.0328
0.1861
9.487
44.62
236.7
39.91
34.15
26.08
0.02215
969.7
54.33
47.38
0.02191
56.42
93.9
181.1
85.69
0.3742
104
4.66
0.2211
144.5
0.02205
2.767e+04
5.196
1369
0.02197
91.5
0.02187
0.1088
1.938
259.8
49.14
37.58
2.647
0.08384
1073
0.09733
122.8
995.4
6.75
0.2112
0.03803
253.3
0.02164
1.761
80.21
6.585
5.332
0.02224
1452
0.03835
41.37
323.4
22.11
171.9
579.8
51.07
370.1
42.4
1.07
72.79
1.848
0.02179
0.02181
572.2
44.28
385.2
37.54
34.42
0.0218
28.13
0.02181
0.02202
0.03713
462.9
0.169
4.448
0.02885
80.15
0.3412
146.4
107
1858
0.02829
244.1
29.33
38.05
0.2425
41.26
0.02187
39.62
0.2382
47.79
4.901
0.03613
102.3
2142
54.85
510.7
76.84
1841
437.9
2.56
14.4
1247
8.368
2571
186.6
77.57
144.9
74.55
119.3
75.9
207.2
0.03554
55.89
0.0576
147.9
1253
33.37
93.17
273.9
47.1
66.07
0.03007
97.58
108.6
3578
37.02
0.02344
79.44
29.89
59.5
0.04968
23.98
65.18
94.33
0.7782
449
14.08
245.2
137.6
236.1
69.42
41.44
158.7
0.02777
628.1
7.512
0.02609
59.23
44.02
148.7
313.3
333.9
0.02202
72.52
47.96
0.145
4.054
48.35
3581
290.2
0.02089
0.02223
2.031
63.17
25.65
0.02163
20.72
72.95
171.4
960.8
0.02104
107.5
872.5
56.97
2753
181.7
206.6
181.4
44.76
7.505
0.02552
94.34
231.3
34.78
127.8
1.008
62.64
0.0221
0.04502
162.1
144.7
77.25
239.1
41.85
0.02221
220
181.9
0.3522
113.7
4034
553.6
0.03313
0.2129
0.02775
34.15
297.5
288.1
438.5
44.49
135.8
0.02182
145.7
1.356
29.6
203.1
0.7506
993.5
20.98
712.8
0.04266
64.11
600.6
0.0218
62.62
76.84
100.5
53.19
0.0219
0.02203
0.03544
114.5
0.02222
25.56
405.6
0.2122
70.19
153.6
0.04847
28.15
46.73
0.1859
504.7
68.51
1102
165
0.02211
381.9
679.9
0.02172
1092
6.249
14.31
14.34
213.8
48.38
28.75
48.92
35.82
0.02194
35.2
0.02178
0.06876
509.3
54.6
19.76
17.12
1.484
143.9
0.02192
0.01976
0.09354
75.18
65.51
27.97
994.8
1.648
0.1169
442.7
0.6746
41.12
0.02137
176.8
283.3
45.83
48.67
235.1
40.18
94.13
86.26
2.527
0.02497
83.08
59.27
52.58
350.4
1155
245.9
0.0215
44.58
103.5
43
4637
0.02184
190.3
78.21
32.62
43.16
91.62
2862
116.9
65.84
292
3678
5.77
63.23
798.8
5.959
0.02169
142.5
80.87
86.93
54.8
44.47
11.52
0.03447
170.3
40.28
462.7
9.59
362.8
497.1
0.02176
286.9
54.58
184.7
2.306
0.01945
147.8
87.05
8.815
28.5
0.02136
52.26
41.62
2.829
27.89
39.9
239.1
73.85
208.3
167.7
0.01993
42.76
52.86
116.1
268.8
47.53
16.49
90.03
49.89
15.51
58.43
226.2
942.4
347.9
237.4
5534
10.93
0.117
1.294e+05
179.9
657.7
0.03172
647.2
1410
121.7
12.52
0.02338
10.65
0.02181
69.08
17.29
2.589
2.398
48.08
368.1
11.9
1.213e+04
51.08
131.2
248.9
2248
270.6
105.8
73.4
0.1646
83.75
49.21
1097
34.71
0.7606
0.9844
257.6
0.9139
0.022
0.02178
17.41
19.4
0.05042
0.02019
0.02238
97.59
496.4
522.7
0.02155
0.02545
28.12
0.01974
0.01985
296
0.04316
56.39
367.8
0.05926
322.2
3.941
138.8
8.804
98.26
0.08309
30.24
69.28
3.716e+04
84.47
114.4
303.7
561.3
1.903
0.0254
48.68
344.9
0.02179
3.109
164.1
323.7
952.8
37.91
134.1
386.8
0.02721
50.92
212.1
117.8
39.12
69.25
0.0586
14.78
32.54
440.3
61.9
87.64
0.03604
444.1
70.61
0.03202
75.34
0.05608
81.11
0.02978
3051
1123
0.03386
179.2
59.18
0.1932
917.5
180.5
0.02349
879.4
43.5
95.91
585.9
0.04755
0.4351
3929
37.49
163.7
3.206
83.08
1.757
7.605
77.49
0.04958
1.322
165.8
69.5
77.57
70.94
124.7
2.896
78.21
276.6
90.71
3.128
15.91
0.0218
0.168
215.2
54.06
0.01946
1.752
15.42
7.434
80.54
33.36
78.54
0.1846
208.3
39.83
0.09111
32.48
171.8
0.1701
348.8
0.05696
332.4
30.82
0.4135
0.09168
37.56
311.2
151.5
0.02108
147.6
66.03
63.19
0.06195
0.02244
27.13
136.7
445.1
7.92
29.89
49.47
201.2
1.89
1.87
1280
6.718
1.406
3617
175.2
33.82
57.41
0.02204
2.457e+04
0.02277
107
50.68
37.24
62.59
36.57
1329
15.46
5.454
0.5449
1.122e+04
279.7
46.92
8145
1066
279.5
49.11
0.1461
0.6363
0.4317
30.25
0.02187
177.9
1175
0.06165
21.88
3.029
63.87
54.03
248.6
2313
559.2
100.3
0.01943
0.01914
0.0218
188.5
2359
0.7256
0.0216
0.2309
821.2
3.961
2557
59.4
0.02281
6920
0.01949
1.216
35.8
0.05184
37.06
0.4855
1.056
0.09772
619.1
76.6
26.77
53.17
8197
40.02
393.1
97.85
53.84
0.02213
5308
234.7
490.6
57.76
279.9
33.71
254
0.1053
34.84
138.2
46.67
166.4
0.02724
678.8
65.69
479.6
8.461
0.1096
0.1852
0.02223
119.4
99.36
104.2
44.04
25.13
802.6
33.8
38.97
34.95
60.23
0.2254
259.9
52.95
39.92
2.208
0.07719
4.741
0.2089
28.91
1.887
213.9
8.169
235.4
24.87
7.067
143.4
0.4855
723.2
32.08
1.596
0.1295
2039
93.46
81.95
36.07
1184
0.02204
548.8
302.4
32.15
47.56
28.91
27.7
257.9
72.41
121.8
54.46
39.66
2762
0.04506
0.02187
0.02216
52.3
239.7
1.954
1413
424
1619
150.1
44.91
719.2
1049
5.862
260.5
422.2
32.26
1094
0.02176
142.1
279.5
264
0.02157
266
15.4
108.5
131.6
71.62
0.02207
0.3538
128.5
692.8
0.02094
153.2
3.202
0.5564
1.76e+04
0.03001
24.02
54.6
134.2
188
0.471
24.98
6.865
216
342.9
286.4
0.01951
47.34
3.76e+04
0.02915
0.02429
462.7
781.8
172
84.98
0.07631
27.57
167.7
16.99
16.24
88.35
0.02005
41.8
8.157
0.2916
0.02394
80.71
0.02137
5985
43.7
4.851
10.34
2445
0.02276
370.6
0.02
0.02216
202.3
0.5744
122.9
14.93
0.06362
155.1
124.7
79.85
7.796
77.52
229.4
402.8
206.7
288.6
571.8
946.4
130.2
27.46
207.9
153.8
89.2
0.5775
0.02121
0.0212
1632
32.47
123.8
2442
0.02232
539.8
0.5104
0.02039
49.41
8282
5.916
246.8
3640
0.02206
267.2
125.4
86.31
50.88
26.1
2364
356.9
0.02177
2654
575.6
0.08311
0.02558
190.6
415.7
176.4
290.7
61.65
48.34
0.0218
230.6
0.02125
268.9
285.3
2354
0.01945
0.01916
0.2448
35.23
0.03806
41.54
1.334
37.25
86.21
33.6
114.4
0.07851
0.03044
1019
2850
35.99
397.4
0.05029
94.52
0.02152
63.12
1854
75.19
390
814.9
271.9
200.5
1.226
31.85
113
0.02878
0.0222
0.02185
56.1
94.27
275.6
2923
165.7
0.02748
86.51
251.5
170.4
4224
17.77
88.84
521.4
20.89
0.07601
1.792
6.201
3.571
0.1029
439.5
48.86
19.86
41.18
281.3
0.2383
0.01976
993.9
38.65
53.49
72.95
1207
36.33
0.02086
49.67
106.6
93.2
3.506
45.92
71.6
4.85
120.7
1.903
0.05423
87.38
0.0575
0.1167
0.2479
785.1
11.5
515.1
87.41
25.12
127
0.03526
256.2
164.7
0.5625
47.23
16.34
3451
0.03885
0.02622
257.9
59.79
82.71
56.8
0.5362
460.1
0.06974
0.02184
8.82
117
0.02793
2.118
12.25
0.02175
1058
0.06959
27.77
38.76
16.89
0.701
304.9
185.2
2.567
0.08155
0.0223
78.84
26.32
102.1
58.05
0.02157
0.0202
0.02179
31.82
96.63
78.74
0.04286
422.7
48.81
277
23.46
347.9
0.3938
0.0376
1065
0.02244
164.7
90.67
0.03903
56.29
38.77
79.61
231
131.9
55.89
2.962
0.04956
2364
356.3
458.3
0.2516
1.401
0.02188
1336
0.02175
42.15
697.2
0.02306
3.618
10.97
235.8
0.0675
59.66
6382
34.87
0.02169
61.39
174.4
77.29
70.3
55.99
126.9
1670
11.68
0.02074
0.02509
6824
10.64
215.2
4.684
24.73
0.02122
0.02193
1.656
3895
667.2
305.7
168.8
0.8781
181.4
708.8
25.59
175.8
0.0219
335.8
5.892
196.7
87.3
66.07
0.02161
365.6
59.39
1565
7649
15.53
7.399
1.122
131.1
0.02315
19.76
2443
131.1
150.6
192.6
1196
37.09
98.55
0.2175
437.7
477.9
1221
72.38
0.03107
781
637.5
0.02179
202.7
323.9
175.4
281.9
111
10.24
71.99
20.98
0.02757
42.09
0.02211
43.02
0.2241
1803
0.2699
2875
20.69
262.6
37.63
61.15
219.7
8.675
127
1062
36.88
50.66
29.61
5.127
76.71
111.9
21.76
0.02768
11.69
8.946
52.24
82.81
103.8
619.7
139.2
0.02843
164.8
1265
75.68
46.85
361.8
0.04576
131.3
0.0217
66.55
3.248e+04
1.969e+04
523.9
78.67
20.42
0.02113
0.04062
77.07
49.88
75.17
3.071
0.02227
53.97
206.2
6.516
86.65
0.02184
447
123.1
3275
5.449
14.4
34.32
245.2
0.03521
410.2
5681
0.9896
8.428
0.4109
184
2958
3.826
47.72
5.539
117.1
0.02772
107.4
0.01989
941.1
73.05
13.65
122.2
3.367
291.3
71.59
1.863
0.08293
0.02199
0.02172
20.11
60.52
45.43
22.22
30.42
56.04
2892
1.423
151.4
0.3515
0.0221
472.7
0.02236
50.96
370.6
3.48
78.28
36.03
2748
229.2
62.83
144.5
25.73
128.9
0.1825
989.1
0.02178
3728
870.5
34.66
56.21
0.02224
81.22
78.53
136.4
1.196
90.9
770
922.6
0.02176
48.33
0.02196
0.0218
632.1
0.02955
61.68
8.573
1407
86.88
82.33
84.35
112
1.476
110.5
1.776
3.998
9.694
0.02542
54.54
0.07691
1446
44.96
25.61
0.4218
14.38
177.6
1186
170.9
26.9
7.582
0.4311
124.1
50.75
309.2
98.01
0.6621
58.39
70.34
37.42
34.17
4.651
55.58
7.155
155.8
3248
32.32
0.2143
0.03964
597.8
29.76
0.02182
356.7
0.4539
1198
244.1
0.01967
84.14
216.7
212.5
360.7
333
34.37
146.1
0.0396
403.9
282.2
54.86
146.9
41.86
84.33
0.02235
0.02421
0.02224
130.8
0.2811
0.02197
0.1186
2.108e+04
0.02194
154
423.7
1.16
253.9
195.7
156.7
608.2
24.24
86.3
89.15
2.461e+04
0.02174
229.9
12.11
40.12
1.988
5.131
3.57
1.504
1193
0.04561
0.02974
1.186
1128
1209
271.4
477.9
0.04991
3926
0.02173
71.89
131.4
54.32
0.02181
0.744
33.46
196.6
208.7
262.4
2.638
356
1876
11.26
36.19
0.02811
4.875
5.944
0.5497
1.256
11
186
16.69
0.3381
182.7
252.4