/*--------------------------------*- C++ -*----------------------------------*\
  =========                 |
  \\      /  F ield         | OpenFOAM: The Open Source CFD Toolbox
   \\    /   O peration     | Website:  https://openfoam.org
    \\  /    A nd           | Version:  8
     \\/     M anipulation  |
\*---------------------------------------------------------------------------*/
FoamFile
{
    version     2.0;
    format      ascii;
    class       volScalarField;
    location    "35";
    object      p;
}
// * * * * * * * * * * * * * * * * * * * * * * * * * * * * * * * * * * * * * //

dimensions      [0 2 -2 0 0 0 0];

internalField   nonuniform List<scalar> 
127143
(
-0.009668
-0.009684
-0.009218
-0.009173
-2.363
-0.009153
-2.757
-2.561
-2.567
-1.354
-3.149
-2.859
-0.006571
-0.00912
0.2153
-0.006832
-0.009361
0.01724
0.002264
-0.009609
-0.3556
-0.00347
0.133
0.03109
-0.003404
0.08766
-1.188
-1.213
0.4082
0.008446
-0.0004544
0.09289
-2.168
-0.417
0.1947
-2.17
0.02363
-0.479
0.03102
-0.007515
0.001877
-1.062
-0.9843
-0.006704
0.01807
-0.4149
0.4063
0.003512
0.1079
0.01996
-0.00737
0.07799
-0.7013
-0.5071
-0.002045
0.1939
-0.001917
0.03798
-0.01534
-0.5101
0.4047
-0.0736
0.01566
-0.007677
-0.8576
0.2604
-0.3132
0.0174
0.01742
-3.156e-05
0.01959
-1.196
0.009581
-0.01588
-0.01028
-1.207
-0.0491
-0.06235
0.1938
-0.003367
0.3985
-0.009503
-0.4155
-0.004676
-0.008612
-0.09266
0.03757
-1.461
0.2606
-2.426
0.0264
-0.2555
-2.29
-0.3563
-0.5104
0.03414
-1.043
0.01282
-0.1427
-0.315
-0.003543
0.1082
-2.899
0.05505
-0.0938
-0.1436
0.08982
1.255e-05
0.3995
0.005149
0.2264
-1.478
-0.4302
-0.4852
-0.000443
0.1021
-0.02477
-0.01021
-0.04744
-0.009227
0.005246
-0.3652
0.3203
0.04983
0.3975
0.06803
-0.1239
-0.05368
-0.8322
0.2361
-0.1745
-0.4244
0.0294
-0.06533
-0.009366
-0.1776
-0.06051
-0.3688
0.4739
-0.1114
0.1676
-0.007327
-0.602
-0.433
-0.6999
-1.667
-0.8937
-0.007619
-0.4227
-2.974
0.04692
0.1303
-0.4851
0.2575
0.4672
-0.009358
0.03747
0.302
0.005456
0.0193
0.004138
0.4211
0.02593
-0.1735
0.2054
-0.8625
-0.01041
0.4028
-1.951
0.02262
-0.0002306
-0.431
0.1119
0.2332
0.0002891
-0.00488
-1.725
-0.8302
0.03957
-0.01174
0.2341
0.0292
-0.007249
-0.005108
0.2362
-0.07354
-0.5132
-0.5103
0.02982
-0.0294
-0.6842
-0.7209
-0.06064
-1.581
-0.009346
-0.2057
0.0002096
-0.0001917
-0.0104
0.002696
-0.02342
0.07889
-0.002461
0.02354
-0.009086
0.006615
0.09384
0.1096
0.005845
-0.0001418
-0.108
-0.007443
0.02457
-1.98
-0.1941
-0.01076
0.004647
0.1278
-0.356
0.09212
-1.674
-0.005404
0.1298
-0.7081
0.01557
0.0042
0.2043
-0.4793
0.0291
-0.1101
-0.3671
0.03035
0.008611
-0.008932
-0.3651
0.05464
-0.1738
-0.006686
-0.02344
-0.6582
-0.7215
-0.9335
0.02052
0.3023
-0.651
-0.009239
0.133
-1.147
0.04415
7.242e-05
-1.254
0.0463
0.1694
-0.4209
0.1804
0.3882
-0.05198
-2.096
0.1956
-0.1312
-0.2549
0.04359
-0.2555
-0.005846
-0.7626
-0.8957
-0.07796
0.4583
0.449
-0.6645
0.1245
0.0004768
0.03357
-0.6576
0.01445
-0.6828
-0.4297
0.09124
0.0002733
0.247
-0.0003373
0.0337
0.05503
0.01048
-0.01216
-0.009464
-0.2655
-0.001694
0.07464
-0.0108
-0.4813
0.1513
0.05559
0.1301
0.026
0.4101
0.02255
-0.008434
0.0212
-0.6614
0.05118
0.213
0.3261
0.1025
0.01406
0.4901
0.1093
0.02516
-0.1584
0.04377
0.08649
-0.008791
0.1796
-0.0004043
0.01449
-2.055
-0.507
0.04196
-0.2787
-0.0007147
0.1331
0.007901
-0.09054
0.1688
-2.063
-0.59
0.1371
-0.008112
-0.006401
-1.748
-0.07968
-0.0126
0.1912
0.0001608
-0.0001465
0.2555
0.3921
0.1125
-0.08072
-0.2795
-0.1081
0.1274
-0.6827
-0.683
0.199
0.07455
-0.4061
-0.5045
0.05435
-0.9012
0.0516
-0.006646
0.0003996
-0.6835
0.04215
-0.3788
-0.4198
-1.57
-0.005416
-0.006364
0.0569
0.0159
-0.02476
0.01016
0.02297
-0.007176
0.002851
0.0009262
-0.567
-2.905e-05
0.4078
-0.08939
0.04636
0.01396
-0.03007
-0.2359
0.03462
-0.008508
-0.08742
-0.0005213
-0.1302
0.06899
0.06326
0.2145
-0.02428
-0.005577
-0.1374
-0.006611
-0.2102
-0.3141
-0.01755
0.3419
0.009841
0.1912
0.02957
0.0113
0.3389
0.0002176
0.04666
0.04389
0.007453
-0.005467
-0.4072
-0.007356
-0.1479
0.0576
-0.0923
0.03425
0.0007316
0.0397
0.4023
0.08347
0.1665
-0.01937
0.3209
-0.5129
-0.2346
0.1262
-0.5753
0.3536
-0.009514
0.009025
-0.1988
0.0001024
-0.1115
-0.2754
-0.9407
0.1923
-0.9378
0.1166
0.002876
-0.2029
0.000785
-0.09354
-0.9005
-0.007353
0.08664
-0.4507
0.07629
0.02606
0.01163
0.01977
-0.05647
0.3931
0.01791
0.01386
0.01876
0.4976
0.0002454
-0.00687
-0.2806
0.05634
0.05774
-0.599
0.06606
0.04995
0.05451
-0.9553
0.01906
-0.5505
0.02949
-0.8004
-0.3007
-0.4104
-0.8011
0.0004682
-0.02783
-0.5202
-0.3304
-0.001255
-0.1508
-0.2998
0.04945
-0.5037
0.08436
0.0004953
0.4157
-0.2979
0.06128
-0.6663
0.4638
0.4964
-0.6905
0.1798
0.401
-0.8958
-0.6441
-0.0188
0.01993
0.0306
-1.975
0.03762
-0.7208
-1.646
-0.009074
-0.1714
-0.04596
0.04164
-1.561
0.02076
0.4629
-0.0292
0.02364
-0.2065
-0.00943
-0.009799
-0.00667
0.008487
-0.3795
-1.157
0.0139
0.01987
0.3209
-0.05231
0.08058
-0.282
0.05886
-0.1561
-0.564
0.0005222
-0.008359
-0.003591
0.3607
0.03528
-0.0002512
-0.01659
0.0469
-0.003753
-0.2997
0.007973
0.02202
-2.508
0.02261
-1.965e-05
-0.5186
0.06783
-0.003935
0.4197
-2.205
-0.2294
0.04171
0.05396
0.3401
-0.001394
0.2132
-0.5564
0.02376
0.009923
-0.3314
-0.07707
-0.2092
-0.7624
0.344
-0.09345
-0.2031
-0.02793
-0.008731
-0.2242
0.07806
0.04498
0.04496
-0.0004169
0.0003903
-0.1258
-0.407
-1.609
0.01502
5.189e-05
0.3308
0.3888
-0.1024
0.4017
0.001018
-0.08343
0.1626
-0.04223
-0.004205
0.04108
-0.1872
0.1676
0.001102
-1.153
0.03908
-0.296
-0.0006968
0.06972
0.01548
-0.09222
-0.007763
-0.27
-7.757e-06
-0.08896
-0.256
0.4234
0.0004869
0.09007
0.004429
0.01164
0.05783
0.005171
0.01266
-0.6186
0.01062
-0.3889
0.06859
-0.008988
-0.63
-0.5955
0.05195
0.06303
0.3301
0.03043
-2.258
-0.003176
0.006956
-0.7593
0.0246
0.001175
0.1464
0.01223
0.1913
-0.06748
-0.5993
0.002975
-0.0009388
0.03637
0.3545
-0.3693
0.0009573
-0.003922
0.02926
-1.652
-0.4157
0.0247
0.0146
0.393
-0.2756
0.4023
-0.6815
-0.1988
-0.9179
0.0009431
-0.9865
-0.6675
0.1031
-0.4853
0.02191
6.514e-05
-0.5888
0.4743
-0.6432
0.00548
-0.06728
-1.028e-05
-0.111
-0.8472
0.07549
-0.7871
0.09962
0.01726
-0.1696
0.1786
-0.6667
0.2695
-0.00655
0.004149
0.01818
0.04951
-0.2647
-0.6607
0.07304
-0.6546
0.07509
-0.795
-0.007036
-0.4059
-0.004368
0.09146
0.2752
0.3309
-6.417e-05
-0.0043
-0.0095
0.04156
0.1204
-0.7002
0.4766
-0.1607
-0.6969
0.01517
0.2887
0.2049
-0.01788
0.002256
-1.341
-0.2877
-0.5655
0.3381
0.3665
0.0582
0.3649
-0.1073
-0.02711
1.014e-05
0.001967
0.0827
0.1673
-0.009433
0.08915
-0.7605
-0.08823
-2.833e-05
0.045
0.02546
0.05906
0.0001731
-0.3482
-0.6804
-2.96
-0.2296
0.4607
0.0221
0.1806
0.04448
0.044
-0.1236
0.1283
-0.007642
0.2775
0.02651
0.1608
0.3873
0.04148
-0.01086
-0.007064
-0.009096
-0.09995
-8.355e-06
0.005679
-0.2006
0.06082
-6.034e-06
-0.6555
0.02429
-0.5502
-0.7846
-2.272e-05
-0.08814
-0.004439
-0.2936
-0.4347
0.003344
-0.683
0.07094
-0.03052
0.1185
0.1519
-0.6577
-0.1704
0.2125
0.08911
0.06365
-0.07807
2.367e-05
-0.08876
-0.02186
0.005371
0.0856
-0.4963
0.02089
-0.07678
6.667e-06
-0.05138
-0.1706
-0.658
-0.008917
-0.6579
0.02294
-0.4942
0.008874
0.1701
0.008465
-0.004687
-0.1923
-0.6304
0.05131
-0.005528
0.01186
-0.06165
0.02001
-0.004096
-0.002342
0.06049
2.172e-05
-0.1092
-1.968
0.08647
0.3087
0.0007446
-0.2757
-0.003919
-0.0184
0.0007308
-0.4811
-0.0746
0.01462
0.03407
-0.1012
-0.01066
0.06759
0.3713
-0.004621
-0.108
0.008257
0.002563
0.01461
0.4004
0.0003346
-0.01644
0.01227
-1.217
-0.004786
-0.09062
0.4897
0.06229
0.08449
-0.001248
-0.006077
0.05636
-0.005409
0.05508
-0.002903
0.4471
0.09901
-0.7059
-0.6987
-0.009977
0.02735
-0.3087
0.2792
0.02084
-0.007353
0.06548
-2.971
-0.5018
0.1275
0.3607
0.06273
-0.00407
-0.3948
0.2715
-1.78
-0.006974
0.08218
0.0003592
-0.02849
0.04067
0.1737
-0.9344
-1.308
0.3011
-1.508
-1.59
-0.3755
0.057
-0.003433
0.00503
-0.03994
0.07978
1.22e-05
-7.818e-06
-0.5891
-0.09307
-0.713
0.03257
-0.4265
0.04428
-0.0425
-2.139
0.1649
-0.01691
-0.036
-0.06194
-0.04245
-0.4235
0.04537
-0.007359
0.1405
0.2542
-0.402
0.03965
0.01673
-0.7206
0.1678
-0.005523
-0.3617
-0.198
-0.07637
-0.00119
0.002785
-0.06551
-0.01076
0.3015
0.04394
-0.1837
0.3972
0.1566
0.002041
-0.9096
-1.162e-05
0.4789
-0.8963
2.487e-05
0.3726
-0.00603
-0.2127
-1.356
0.01463
0.09425
-0.00108
0.01799
0.03846
-0.04056
0.005341
0.1291
0.4233
-0.09222
-0.4193
-0.9757
0.3713
0.01024
-0.3849
0.3717
-0.1187
-1.01
-0.01143
-0.02368
-0.009193
-0.4837
-0.2638
-0.1831
0.01047
0.03205
0.06029
0.1882
0.06172
0.06699
0.05931
0.06588
-0.635
-1.097
-0.8602
0.0704
-0.6685
0.008079
-0.203
0.06002
0.01674
-1.565
-0.003732
-0.009151
-0.004043
-0.1731
-0.01073
-0.007734
-0.07275
0.06404
0.1044
0.0006697
0.4224
-0.274
0.03252
0.02646
-0.594
-0.1392
-1.409
0.000982
0.1235
0.02762
0.3366
0.01212
0.01114
0.3718
-0.3637
-0.5894
0.02853
0.02224
0.04602
0.4169
0.05101
-0.002775
0.3869
-0.009504
-0.06419
-0.001501
-0.02166
-0.6442
0.2059
-0.01254
-0.3509
0.132
-0.0003074
-0.004839
-0.7293
-0.3641
-0.00475
-0.007941
0.07961
0.3297
-0.07947
0.116
0.07488
0.02922
-0.05142
-0.003483
-0.07085
0.1463
-0.002802
-0.07715
-0.0008042
0.06252
0.03278
0.008828
-0.6924
-0.0002711
0.01716
0.07138
0.1263
-0.8346
0.009608
0.055
-0.00929
-2.033
0.1139
-0.02053
0.05365
0.1277
0.07755
-0.1656
0.04783
0.001822
0.03298
-0.4924
0.1204
0.02324
-0.05354
0.0007968
-0.04857
-0.1247
-0.6284
0.2216
-1.231
0.04093
0.06869
-0.3966
-0.01172
-0.003636
-0.5223
-0.005319
0.1056
-2.279e-05
0.4985
-0.2246
0.03337
0.2193
-0.6934
0.06571
-0.4666
-0.2275
0.03353
0.01627
0.2142
-0.007425
-0.0006724
0.01791
-0.5576
0.02813
-0.485
-0.8181
-0.0003908
0.1581
-0.002418
0.04846
-0.4221
-0.4131
-0.008558
0.09916
-5.267e-05
-0.4041
-0.1948
-0.01804
-0.4204
-0.1503
-0.2672
-0.3086
0.1095
-0.04493
-0.003016
-0.002449
0.1465
0.09181
-0.09939
0.005299
1.923e-05
0.03959
-0.01114
-0.1688
0.4524
-0.5759
0.2184
-0.007021
-0.6356
0.001347
0.003141
-0.126
-0.194
0.02617
-2.089
-0.1969
-0.002562
0.01486
0.07319
0.1247
-0.0001861
0.06386
0.005508
0.149
0.08447
0.4929
-0.008072
0.05184
0.1028
-0.04671
-0.7066
0.0608
0.04063
-0.2056
-0.003
0.04706
0.1481
0.06752
0.1008
3.345e-05
-0.009167
-0.5479
-0.001445
-0.06826
-0.003051
-0.4741
0.05448
0.006354
-1.738
0.06981
-0.6494
-0.009285
0.2338
0.04927
-0.006224
-0.03851
0.009552
-0.06214
0.06106
-0.8228
0.07802
0.02493
0.3901
-0.6329
0.04358
-0.01352
-0.6694
-0.1713
0.182
0.01364
0.05307
-0.004441
0.05899
0.08963
0.01442
-1.072
-0.6607
0.09546
-0.005079
-0.2102
-1.299
-0.2011
0.01525
-0.04479
-0.009576
-0.07626
-0.7027
-0.6436
0.00202
0.1673
0.02209
0.005475
0.1214
-0.001009
-0.4196
0.08167
-0.8723
-0.05788
0.05934
-0.03498
0.06088
-0.0708
-1.754
-0.5235
0.01809
-0.3097
0.02027
-1.235
0.1436
-0.006638
0.1269
0.1936
0.0004417
6.451e-05
0.007112
-0.007025
0.01744
-0.2301
-3.814e-05
-9.664e-05
-1.526
-0.2324
-0.1869
-1.086
0.05919
0.04538
0.2102
0.05759
0.06188
-0.06401
0.0001302
0.001054
-0.1402
0.1912
0.07754
-0.5581
-0.1456
-0.06993
0.01698
-0.4828
0.4538
-0.1154
-0.3449
0.06198
-0.179
0.0312
0.09317
0.3782
-0.3261
-0.005131
0.004506
0.02513
-2.578
0.0002927
-2.725
0.1073
-0.06223
0.09677
-0.007059
0.2533
0.0004012
-0.01242
0.01018
-0.1449
0.03313
0.4317
0.1322
0.04822
0.003531
0.2066
-0.05859
-0.6232
0.03226
0.1828
-0.009488
-2.989
-1.307
-0.1678
-0.0108
-1.103
-0.05564
0.01481
-2.289
-0.02392
-0.1157
-0.006311
0.08207
-0.07615
0.006279
0.05565
-0.0003697
-2.757
0.03963
-0.006706
-0.03279
-0.6857
-1.64
-0.4148
0.0205
0.2603
-1.642
-0.2525
-0.1422
-0.6441
-0.4155
0.03207
-0.005965
0.01143
-0.02707
-0.1381
0.007276
-0.005053
-0.007735
-1.23
0.05688
-0.0005798
0.01938
-0.008115
-0.2217
-0.2027
0.1277
-8.597e-05
0.3903
-0.299
-0.001261
-0.006167
-0.1547
-0.009187
0.07377
0.04503
0.05539
0.1101
-0.007787
-0.1391
-0.0005672
-0.006575
-0.04164
-0.7904
-0.6768
-0.7673
0.009626
0.008763
-1.629
-0.2898
0.345
0.001023
0.07182
0.3348
0.06889
0.04438
0.0001283
0.0001327
-0.02275
-0.1352
0.01596
-0.06997
0.06149
0.1481
0.4504
-0.0005616
0.0709
0.2767
-1.115
0.03423
-0.276
0.02906
-0.8054
-0.2715
0.1273
0.06548
-0.06912
-0.03556
-0.005729
-0.0004319
0.08346
-0.676
0.04761
0.1848
0.002532
0.05346
0.000483
-0.852
-0.001094
-0.008203
0.06127
0.2905
0.04538
0.4877
0.1036
-0.1933
-0.1266
-0.1324
0.0001213
-2.679
-0.3449
-0.009748
-0.3526
0.0541
0.06177
-0.01104
-0.9235
-0.009343
-0.18
-0.5979
-0.3678
0.008758
0.07915
-0.8766
0.01991
0.4801
0.1021
0.4887
-0.2725
0.02273
-3.234e-05
-2.181e-05
0.04122
-1.243
-2.327
-1.82
0.03292
0.009549
-1.611
-0.0001202
0.0217
-0.08452
-0.02716
-0.009267
0.03749
-0.001352
0.301
-0.0115
-2.266
0.1885
0.4464
-1.169
0.01204
-5.105e-05
0.2566
-0.2737
-1.413
-0.2013
-0.4159
0.01126
-0.5272
-0.06759
-0.1889
-0.008349
-0.002471
-0.05798
-2.745
-1.356
0.06526
-0.001074
0.06111
-7.442e-05
8.837e-05
0.1562
-0.0005611
-0.001119
0.001098
-0.00471
-0.6186
-0.752
-0.2807
-1.483
0.002003
-0.06975
-0.3842
-0.008045
-0.4153
0.06984
0.2056
-0.0131
-0.002898
-0.7127
0.2569
0.2275
0.07538
-0.06611
-0.00956
0.1008
0.1779
-1.92e-05
0.2683
-0.08394
0.01995
-0.0688
0.3684
0.02876
-0.6924
0.001927
-0.7918
0.328
-0.007634
-0.6088
0.1708
-0.2937
-0.004254
-0.6677
0.03104
-0.08834
0.07244
0.06908
-0.1071
0.05418
0.3326
-2.607
-0.6875
-1.89
-0.009199
-6.319e-06
-0.3651
-0.01527
-0.9447
0.1378
-0.8376
0.009829
-0.008791
-0.009172
0.05327
-0.05407
-0.005043
-0.0793
0.02966
0.3964
-0.3262
-0.001617
0.03798
-0.007947
0.2212
0.4505
0.1127
0.008838
0.08852
-0.0161
-0.6993
0.0004606
0.4992
0.3973
0.03022
0.05323
-0.5679
-0.8323
0.4491
-0.05199
-0.4827
0.3703
0.08817
0.06917
-0.2569
0.2946
0.05247
0.01932
-0.0009551
-0.0008205
-0.06245
-0.7486
-0.05688
0.1129
-0.00887
0.04588
0.07133
-0.001145
0.04784
0.1087
0.06167
0.05063
0.06686
-0.6221
-0.0003305
-0.2092
0.08411
-0.2415
0.4444
0.1257
0.1047
0.009235
0.06464
0.4051
0.3896
-1.431
0.07526
0.02894
0.06134
-0.01222
-0.02546
-0.00162
2.463e-05
-0.7838
0.1872
0.1779
0.4496
0.08313
0.002872
0.0006044
-0.4451
-0.6636
-0.0007018
0.2537
-1.751
-0.269
0.0002347
-0.02162
0.006345
-0.1697
-1.255
-0.04558
0.03831
-0.2703
4.312e-05
-6.795e-05
0.0009658
-0.04763
-0.6795
0.4575
0.04184
0.006733
-0.5796
0.07448
-0.9077
-0.009953
-3.594
-0.007941
0.001128
-0.4829
0.03455
0.05481
0.04118
0.009313
-0.27
0.008853
-0.005667
0.4081
-0.06108
-0.1708
0.06
0.01966
-2.708
0.04136
-0.2038
-0.7399
-0.255
0.1332
-0.007934
-0.03561
-0.0006317
0.239
0.0746
-0.5908
-0.7671
-0.1976
0.1132
0.1495
-0.06203
-0.4238
0.0001175
-0.4168
0.08467
0.02394
7.04e-06
-1.689
0.2633
0.05693
2.223e-05
-0.0006157
0.01094
0.03156
-0.6263
-0.008658
0.03399
-0.000729
0.4538
0.09632
0.09109
0.005481
-0.02236
0.03693
-2.399
0.02508
-0.005611
-3.4
0.06034
0.06456
6.677e-06
-1.594
0.3065
0.04069
-0.2002
0.005851
0.03904
0.06074
0.03295
-7.276e-05
0.1422
0.01812
-2.314
0.01882
-0.4706
0.1962
0.3293
-0.001085
0.000937
-0.8535
0.1035
0.02002
0.05101
0.03403
0.04805
0.04309
0.1354
0.2194
-0.5164
-1.384
-0.1277
-0.001154
0.06958
0.1026
0.01719
-0.0695
0.006632
-0.01971
0.06463
0.0309
-0.0099
0.03658
0.03637
-4.048e-06
-0.0523
-0.009154
0.03972
-0.01402
0.007963
-0.1599
0.08277
-0.002285
0.1061
0.006909
0.3717
0.03747
0.03134
0.04716
0.0623
0.05391
-0.3236
0.003798
-0.6983
-0.2919
0.07864
-0.6853
-0.005902
-0.009297
0.01187
0.06753
-0.01132
0.08071
-0.4329
0.147
0.03355
-0.5271
-0.2714
0.03169
-0.001561
-0.4972
-0.08682
-0.07148
-0.08509
-0.5296
0.06166
-0.5939
-0.08828
-0.02163
0.03016
-0.01854
0.07836
0.112
3.565e-05
-0.3405
-0.2921
-0.7436
-9.521e-06
0.05486
-0.007577
0.04039
0.01981
-0.4749
-0.1153
-0.1953
0.06606
-0.05437
0.0007836
-0.001718
0.06774
-0.009177
0.07076
-0.169
0.005174
0.07063
0.01249
0.002648
-0.01129
-0.05827
0.006192
0.04064
-1.194
0.01131
-0.6492
0.02983
0.1941
0.02284
-0.13
-1.123
-0.594
0.04258
0.04208
-0.001405
-0.0766
-2.507
0.01763
-0.1167
0.1132
0.01233
-0.001116
0.3227
0.0301
-1.443
0.00864
-0.2696
-0.08031
-2.511
-0.1442
0.1283
-8.605e-06
5.257e-06
0.03999
-0.5691
0.006401
0.4686
0.02591
-0.2528
0.05971
0.001367
0.03617
0.1641
0.07989
0.005101
0.02354
-0.01871
0.2373
-3.452e-05
0.06045
0.2436
0.1239
0.2603
-0.3535
0.4991
0.009857
-0.7021
0.01823
-0.5551
-0.377
0.09143
-1.38
0.04296
3.026e-05
-2.878e-05
-0.0548
0.06238
0.01197
0.3912
0.4157
-0.7006
0.000714
-0.0137
0.4102
-0.007862
-0.2918
0.205
-1.753
0.09881
0.1906
0.1018
0.4985
-2.02
5.113e-05
0.05897
0.08715
0.07419
0.03362
0.3383
-0.3265
-0.6315
-0.5132
-0.09427
0.0512
-0.06094
0.3572
0.1439
-0.352
0.0005237
-3.272
0.036
0.02296
-0.04214
-0.47
0.3928
0.1298
0.0868
0.0728
-0.7946
-0.04769
0.06285
-0.0004738
0.06425
-0.0357
0.08152
-0.1911
0.194
-0.1909
0.3863
0.01763
-0.4944
0.06659
0.01616
-1.3
0.000176
0.03358
0.01102
-0.8606
-0.1722
-0.05247
0.03578
0.1246
-0.0001127
-0.5038
-2.034
0.08013
-0.006865
0.005521
-0.2472
-1.028
1.342e-05
-0.585
0.0783
-0.005763
0.4455
0.04178
0.1709
0.0316
-0.2086
0.3676
0.05086
-0.4705
0.06218
-0.001382
0.008169
0.01235
0.01227
0.05929
-2.024
0.0345
-0.03123
-0.7128
0.01901
0.1349
0.4348
0.4033
0.4482
-0.6526
-0.7494
0.03333
0.3372
-1.772
-0.4573
0.1682
-0.001511
-0.01085
-0.2187
-0.06697
3.003e-05
-0.2586
0.008526
-0.0004727
-1.657
-0.03579
0.05462
0.2181
-0.3253
-0.4942
0.05101
-0.8171
-0.09552
0.4871
-0.1936
-0.002091
0.02612
-0.3147
-0.1705
-3.498e-05
0.04997
-0.2132
0.01965
-0.009546
2.113e-06
-0.1976
0.03176
0.07622
-0.2467
0.00125
-2.362
-0.05911
-0.1975
-0.324
-0.03876
0.003559
0.006747
0.1609
-0.2232
-0.0008988
-0.9095
-0.7351
0.003855
-0.1371
-0.02149
-0.593
-0.1952
-0.2065
0.04945
-0.3587
-0.01357
0.08123
0.3655
0.06489
-0.05511
0.02427
0.002668
-0.1683
-0.007022
0.2692
0.03536
-0.7191
0.06096
0.3861
0.006429
-1.127
-0.5436
0.05447
0.08085
0.06272
-0.467
-1.721
-0.4123
-0.5756
-2.51
0.01181
-0.00894
-0.09372
-0.2046
0.2285
0.2524
-0.02296
-0.4486
-0.1974
0.2178
-2.35
0.2661
-0.6645
-1.36
-0.0738
0.0466
-7.092e-05
6.856e-05
0.02416
-0.6187
0.2469
-1.264
0.02289
0.007337
-0.7444
0.1409
-0.6249
0.02813
-0.02064
-0.7031
-0.5454
0.02308
-2.239
0.1985
-0.00204
0.02303
0.06035
0.118
0.118
0.01223
-0.0001869
0.09188
-0.06436
-0.1491
0.02347
-6.87e-05
-3.405e-05
-2.693e-05
-3.136e-05
0.04161
-0.006906
0.1291
0.3887
0.06788
0.04137
-0.3813
-1.04
2.81e-05
-0.3856
0.02315
-0.004224
-0.7908
-0.00152
-0.006358
0.05448
0.06449
-0.5861
0.01995
-0.02347
0.05537
0.4995
0.1848
0.04151
0.3984
0.448
-0.01367
0.0533
-0.2073
0.1493
0.03603
0.1271
0.3858
-0.01028
0.0364
-0.7557
-0.001185
-0.7011
-0.09193
-0.3252
0.02221
-0.009499
-0.2509
-0.08029
0.0009496
0.4091
0.01239
-0.05387
-0.0191
0.3872
0.01312
-0.02709
-0.3878
-0.004724
-0.1971
0.03409
-0.3001
-0.8019
0.08747
0.4545
0.06463
-0.2316
0.05256
-0.008145
-0.05575
0.05625
0.009183
-0.8085
0.01262
0.3587
-0.01824
0.01064
-0.3061
5.64e-05
0.4846
-0.09242
0.01448
-0.09989
0.122
0.006798
0.04674
0.01529
0.08863
0.04891
-0.0002421
0.1518
-3.097
-0.8484
0.006519
-1.116
-0.7965
-0.0006755
7.826e-05
-0.1887
-0.3745
0.09411
-0.06756
-0.1541
-1.773
-2.879
-0.1367
0.05181
-0.004702
-0.01119
0.1097
-0.7993
0.01775
-0.01045
0.05525
-2.563
0.01042
0.1647
0.05069
-0.6683
0.004609
-0.03741
-0.04671
-0.008785
-0.2845
-1.24
-0.06398
-0.3542
0.1654
-0.2237
-0.007059
0.3697
0.006617
0.01679
0.01198
-0.4368
-0.0641
-0.0005597
-0.706
0.06535
-0.08756
-0.5898
0.04268
-0.09442
-0.008034
-0.7206
-0.7042
0.09726
-0.04857
0.4279
0.0207
0.1968
-0.05146
-0.94
-0.0006092
0.0265
0.0644
0.4155
0.0706
0.0617
0.4
0.003103
-3.233
-0.0009648
-0.05828
-0.5847
-0.008592
-0.007986
-2.119
0.05046
0.4892
-5.905e-05
0.4096
-0.9112
2.98e-05
-0.07655
0.03896
0.4995
0.03996
0.06133
-0.2031
0.1593
-2.119
-0.3674
0.2682
0.06124
-1.121
0.00221
-0.09303
0.05607
-0.0001631
0.02248
0.02327
0.01283
0.0531
0.07922
0.17
0.1391
-0.005014
0.04851
0.2268
0.09227
-0.02192
0.01983
-0.2002
0.084
-0.6019
-0.7066
-0.05382
-1.624e-05
0.03184
0.05198
0.09608
-1.334
0.02382
-0.03377
-2.322e-06
-0.113
0.1061
2.893e-06
-0.1479
0.1877
0.09715
-0.3501
0.02534
-0.009167
-0.08125
0.04049
0.1481
0.02954
-0.002382
-0.7163
-0.1404
-0.1441
-0.4135
-0.001186
0.237
0.0902
0.0628
-0.002212
0.1637
0.3273
-0.007323
0.01813
-0.5634
2.889e-06
0.08091
-0.0867
-0.01125
0.08427
-1.203
-0.1997
-1.418
0.0317
0.06104
0.3814
0.0129
-0.007237
-0.0001048
-0.3007
0.1321
-0.09842
0.2626
0.001126
0.4799
-0.1907
-0.08893
-0.08332
-0.2453
-0.5729
0.2951
-0.2909
-0.08801
-0.7808
0.0003364
-1.616
-0.595
5.1e-05
0.06227
0.002284
-0.002832
-0.04048
0.02477
-0.005061
-0.9051
-0.3444
0.09736
0.1266
0.04302
-4.544e-05
-0.169
-0.1953
0.1474
-0.008933
0.3799
0.08054
-0.007079
0.3276
-0.0139
0.03245
-0.1297
-0.3131
0.06282
-0.2954
0.05013
-0.1392
-2.171
0.2508
0.0004554
-0.1648
-0.05321
0.001434
0.101
0.008511
-0.001126
-0.2931
-1.874
-0.08077
-0.002178
-0.2931
0.03232
-0.8993
-0.008399
-0.8462
0.02411
-0.04322
-0.3215
0.08404
0.157
-0.6754
0.008349
0.06347
-0.9543
0.087
0.4893
-0.9424
0.0009758
3.039e-05
-0.04222
-0.06864
0.2748
-0.003922
-0.2035
0.003364
0.05695
0.4218
0.05334
-0.008307
0.0007777
-0.3869
0.03875
-0.0003951
0.4901
-0.6666
0.04174
5.685e-06
0.04285
-0.1594
0.08616
0.03805
0.1626
0.2373
-0.123
-0.5644
-0.005067
-0.005946
0.05948
-0.7688
0.008936
-0.6988
0.04098
-0.09191
0.1514
-2.021
-0.01122
-0.2854
0.09778
-1.464
0.2994
0.004697
-1.112
-0.6564
-0.1978
-0.3543
0.06471
-1.664
-0.09913
0.01126
-0.001388
0.0379
0.0006611
-0.572
5.024e-05
0.4538
0.09692
0.03735
0.001323
-0.9277
0.3293
0.1545
-0.01296
0.09122
0.04138
-8.371e-06
-2.521
-0.2728
0.007658
-0.05168
0.02534
0.0109
0.002095
-0.05387
0.04203
0.0529
0.1782
-0.7222
-2.62
-0.6688
-1.666
0.05325
0.01674
-0.5311
-0.01507
-0.1995
-0.5827
-0.2673
-0.00536
0.03239
-0.04839
0.04481
-0.03969
-1.689
0.3422
-0.02408
-0.2436
0.02622
-0.1687
0.4213
-0.09732
0.1804
0.09939
0.1661
-0.006656
-0.008622
-0.9074
0.004021
0.008024
-0.5673
-0.147
0.3636
0.06061
-0.6925
0.08934
-0.1092
0.3051
-0.02225
0.001612
-0.01867
0.001608
-0.0002607
-0.545
0.07106
0.4004
-0.009584
-0.1946
0.01745
0.05715
-0.1211
-0.7863
0.007981
-0.1352
-1.131
-2.873
0.04432
-0.2132
-1.64
-0.6872
-0.5867
0.1511
0.01138
-0.2583
-0.000833
0.002784
-0.1198
-0.3204
-0.006022
0.3242
0.02504
0.2703
-0.0398
-0.7908
-0.2846
-1.371e-05
0.3232
0.03234
0.1537
2.088e-05
-0.564
-0.008431
-0.01867
-0.2824
-0.6844
0.02632
0.03786
0.0008475
-0.3513
0.04928
0.2402
-0.9239
0.04072
0.0007899
0.03975
-0.007693
0.01263
-0.3437
-0.03148
-0.08769
-0.003236
-0.37
4.253e-05
0.01342
0.03759
0.02967
0.03985
-2.231
-0.008163
0.01313
-0.2
0.00683
0.0003873
0.1386
0.04503
0.2292
-0.09016
-0.2237
0.485
0.0002505
0.2372
-1.243e-05
-0.4702
0.2207
0.01773
0.02949
-0.15
-0.006489
0.05859
0.01271
0.1384
0.0008744
-0.6556
0.09818
-0.01583
-0.7206
-1.554
-0.1897
0.0006169
0.06974
-0.1812
-0.01687
0.4319
-0.05963
-0.01352
-2.174
0.1677
0.003021
0.06496
-0.007587
-0.0175
0.02976
-0.6298
-0.1872
0.048
0.09603
-0.009172
0.1517
0.0444
0.1669
0.03277
0.1369
-0.6836
0.02492
0.02123
0.1238
-0.6381
0.0004876
-0.728
0.2816
-0.08889
-0.04204
-0.2131
0.3103
0.01494
-0.8859
0.04098
0.02973
-0.4121
0.2347
-1.977e-05
-0.355
0.1453
-0.6805
-0.7662
-0.7555
-0.706
-0.7166
-0.001151
-1.419
-0.3554
0.0002448
-1.852
-0.009799
-0.06533
-0.4806
0.001565
-0.8507
0.4381
-0.002235
0.2018
-0.06523
0.0003083
0.04001
0.3239
0.08141
0.04041
-0.01016
0.009098
0.01169
0.05041
0.3214
-0.1731
0.04173
0.01506
0.05799
-0.6434
-0.245
-0.005532
0.4452
0.01638
-0.08889
0.3603
0.04195
-0.3557
0.001039
0.06265
0.03167
0.01973
-0.0009071
-0.1691
-0.7465
0.0002765
0.04777
-0.07309
-0.2628
-0.2201
0.08912
0.1184
-0.1182
0.4013
0.4045
-0.07743
0.1731
-0.00535
0.04002
-0.7619
0.1286
-0.005098
-0.1053
0.0002871
0.006304
0.1273
0.02061
0.05237
-0.2664
0.02198
-0.3358
-0.609
-0.002635
-0.003969
0.05973
0.03579
0.009267
-1.187
-0.08921
0.1052
0.445
-0.689
0.2459
-0.6558
0.008827
0.1054
-0.6874
-0.198
0.1146
0.1527
0.02455
0.0356
-0.1787
-0.003311
0.0371
0.008698
0.01996
0.03758
-0.009021
-0.1021
0.1092
0.002142
-0.004815
0.1214
0.02849
-0.0149
-0.6614
-0.4517
5.986e-06
-0.5612
-0.7308
0.002746
0.03998
0.001309
-0.001925
-0.8119
0.0006898
0.02043
-0.5655
0.4797
0.1295
-0.0008541
-0.002098
0.003007
-0.01021
0.133
0.2059
0.1034
0.05161
-0.9622
0.07113
-0.3392
0.06565
0.02082
-2.015
0.01411
-0.4506
-0.08285
0.009635
0.2197
0.1814
-0.7719
0.07854
-0.2663
0.002985
0.4714
-0.7978
-0.09078
-0.06818
-0.7282
-0.1109
-0.009861
-0.007879
0.1047
-2.77
0.06953
8.341e-05
-0.05818
0.01656
0.05163
0.1153
-5.901e-06
0.3818
-0.6638
0.03193
-1.371
-0.2001
0.006001
0.03772
0.0182
0.02663
0.06194
0.07423
0.2362
-0.6756
0.1067
0.08416
0.0521
0.01056
-0.0673
-3.852e-05
0.008481
0.1205
0.01852
-0.01255
-0.002015
0.04875
0.06806
0.06696
-2.017
-0.5051
0.4819
-0.09688
-1.28
-0.5607
0.03794
-0.8004
0.03098
0.007005
-0.3223
0.2814
0.008255
-0.326
-2.068
0.1585
-0.5273
-0.7079
-0.2413
0.06152
0.04458
0.1164
-0.1636
-0.394
-0.09378
0.006952
0.01078
-0.05552
0.3017
0.03055
-0.126
-0.1693
-0.539
-1.089
0.03702
0.03366
-0.0004808
-0.5218
-0.3595
-0.4042
-0.1995
0.03729
-0.5283
0.01208
0.1062
-0.84
0.136
-0.3608
-0.3173
0.03911
0.0714
-0.1774
0.07763
0.005924
0.02484
0.01624
0.07231
0.01241
0.03682
0.0857
-0.003552
0.05903
-0.4081
0.05954
-0.1363
-0.1678
-2.075
0.01206
-0.03072
-0.01294
-0.008118
0.04094
-0.002058
-0.005929
0.07048
0.06409
0.1823
0.06344
0.1318
-0.1699
0.02122
-0.2155
0.04218
-0.2838
0.04411
-0.06584
-0.003068
-0.6232
0.01512
0.06134
-0.2378
-0.005378
0.004948
-0.4625
-0.03171
0.1214
0.1544
0.05623
-0.001689
0.008248
0.03524
0.09242
0.2066
0.01486
-0.00135
0.1961
0.05008
-1.665
-0.8782
0.1563
0.3913
0.04677
0.02522
0.04116
-0.5622
-0.5864
0.2324
0.3076
0.08954
-0.04732
-0.001932
0.01287
0.1855
-0.008707
-2.115
-0.008696
-0.08738
-0.004158
-0.3273
-0.3648
0.2279
-0.6952
0.00501
0.3079
0.07246
0.02141
0.4785
-0.1107
0.2181
0.03082
-0.04936
-0.4489
0.06468
-0.6071
0.06004
0.1917
-0.0006232
-0.2103
0.04242
0.03454
0.01463
0.145
0.2362
-0.005384
0.13
-0.01748
-1.924
-0.03017
-3.711e-06
3.521e-06
0.0006525
0.03618
-2.154
-0.2676
-2.483
-0.6468
-2.913e-05
0.1271
0.08376
0.01974
0.06029
-1.815
-0.7944
0.0622
-2.065
0.005283
-0.1974
0.4778
-0.01664
-0.4486
-0.08704
0.03634
0.0209
0.1374
0.03651
0.02391
-0.5465
-0.7228
-0.4466
-0.2304
-0.2028
0.06139
0.007101
-1.416
-0.3189
0.1834
0.04416
-0.004739
0.07619
0.05622
-0.09123
-0.1008
0.3449
-0.9332
-0.08712
0.008266
0.06306
-0.2422
-0.1985
0.02729
0.06593
0.001661
0.02929
-0.3659
-0.001088
-0.0007818
-0.6816
-0.6631
0.1367
-1.403
0.3797
0.01263
-0.007958
0.1522
-0.1363
-5.205e-06
0.005253
0.006779
-1.551
0.01144
0.0007119
0.00299
-0.9024
0.002419
0.008778
0.07366
0.04214
-0.1459
0.05793
0.1161
0.007153
-0.4058
-0.179
-0.03953
0.05871
-0.5078
0.02801
0.06097
0.01022
-0.004148
0.458
-0.003834
0.01257
0.1855
0.05919
0.1073
-0.1021
-1.167
0.06115
-0.007069
0.01869
-0.7258
0.005846
0.0002063
0.06706
0.04707
-4.957e-06
0.07335
0.05858
-0.6553
0.008274
0.005636
0.01843
-0.01363
-0.0003326
-0.01043
-0.01446
-1.708
0.03363
-0.3005
0.03807
0.02118
-0.0002308
-0.0001999
-0.1109
0.1401
0.06461
0.01042
0.02703
0.01574
0.07115
0.0581
-0.4101
0.008693
-0.2456
-0.002952
0.03611
0.0008067
-0.3618
-0.2111
-0.2901
0.04975
-0.007621
-0.7542
-0.1453
0.157
0.4977
0.05109
0.03569
-0.1273
0.0722
0.0624
0.2352
-0.249
-1.746
-0.5869
0.06178
0.05301
0.0001177
0.06164
-0.1703
-0.6379
-1.15
0.03068
-0.2294
3.351e-05
0.201
-0.9992
-0.4688
-0.02831
0.04122
-0.09891
-0.4705
-0.4168
0.4605
0.3436
0.3075
0.4152
0.004825
-2.182e-06
0.002215
-0.2937
-0.08377
0.07228
-0.1195
-0.03872
0.06082
-0.1975
0.1506
-1.061
0.04863
-0.06614
-1.101
0.001188
0.239
-0.01419
0.2786
0.01146
0.06001
-0.5776
-0.3703
0.09879
0.02052
0.06727
0.02657
0.0945
0.06235
0.07646
-0.007996
-0.006444
-1.214
-0.1119
0.244
-2.167
0.0003856
-0.01073
-0.2712
0.02724
-0.002689
-1.68
4.745e-05
-4.107e-05
0.235
-0.0003081
-0.08352
-0.009278
0.0112
-0.1713
0.08847
0.003009
0.008445
-0.4258
0.04459
0.4103
0.037
-0.27
0.001489
0.006859
-0.8622
0.009939
-0.1048
0.001852
0.009764
-1.627
-0.008165
0.004121
-0.003582
0.08473
0.09476
-0.0772
-0.6471
-0.005456
-0.001122
0.01069
0.03051
-0.02296
0.02686
0.03431
0.1031
-0.0505
-0.1147
0.0268
0.09597
-0.008678
0.03827
-0.3819
-0.006459
0.1078
-0.2528
-1.008
-0.004643
0.00726
0.06221
-0.3328
0.02438
0.1025
-0.01852
0.06697
0.09507
-0.005636
0.006933
-3.203
0.155
0.2652
0.008323
-1.561
0.00558
-0.03707
0.1117
-0.003622
-0.0021
-0.006871
-0.1376
-8.424e-06
-2.755
-1.131e-05
0.003429
-2.464
-0.05616
-0.3803
-0.000251
-1.914
0.01201
0.03842
-0.1017
-0.6916
0.178
0.03294
0.3947
0.03508
0.007589
-0.4362
-0.6624
0.01116
0.4873
-0.4734
-2.403
0.03232
0.002227
-0.04978
-0.03112
0.01393
0.007739
-0.799
-0.07509
0.4986
-1.334
0.4859
0.01035
0.01857
0.006062
0.0292
0.01922
-1.101
0.1187
-0.2339
-2.51e-05
-0.07657
0.1413
-0.6638
0.01201
-2.041
-0.04881
-0.3581
0.4641
0.08005
0.05662
0.01089
0.007547
0.01661
5.716e-06
0.01802
0.2886
-0.007635
0.03379
-0.976
0.01374
0.04721
-0.08839
0.03124
0.1297
-0.6884
0.4061
-1.236
-0.7551
-0.002699
-0.1552
-0.05914
-0.6598
-0.05687
-0.2916
-0.005291
0.003461
0.0009285
-0.6147
-0.0003812
0.2047
0.2612
0.06921
-0.008097
-2.485
-0.07158
0.02495
3.951e-07
0.05575
-0.1699
-1.447
-0.07399
-0.008098
-0.04624
-0.5722
0.06444
4.925e-06
-0.6732
0.06101
-0.1453
-0.5047
-1.241
0.419
0.4977
-0.09017
-0.531
-0.482
-0.001723
0.06011
0.07644
-0.9578
0.3759
-0.02762
0.06273
0.02897
-0.08039
-0.4216
-0.8621
0.007128
0.4022
-1.787
-0.2043
0.3621
0.3945
0.04439
-0.7678
-0.001718
-6.292e-05
-0.9687
0.02371
0.05657
0.01321
-1.527
0.03768
0.2294
0.1329
0.003155
0.02831
0.02057
-0.002886
-0.9298
-0.333
-0.3828
0.01019
0.03335
-0.7199
0.03852
-0.1115
0.485
-0.00626
0.03163
0.05102
-5.886e-06
-0.006344
-0.0004808
-0.08918
-0.05732
-0.07457
-0.1557
0.03672
0.0311
0.0134
-0.6992
-0.3809
0.1961
-2.66
0.006323
-2.437e-05
0.08768
0.07329
0.1008
0.02633
-0.359
0.139
-1.156
-1.157
0.01014
-0.6616
0.0007936
0.0463
-0.006541
0.142
-0.1617
-0.6434
-1.968
0.1531
0.1091
0.0229
-0.02137
0.04863
0.06184
-1.831
0.008204
-0.007781
0.02906
0.0009561
-0.208
0.03078
-0.2735
-0.005061
0.2525
-0.1492
-0.0476
0.1097
0.06379
0.04881
0.0002727
-0.4247
-0.008218
0.06184
-0.3782
0.02864
-0.6947
0.005515
-0.01296
0.009844
-0.1801
0.3211
0.0669
-2.211
0.02263
0.4074
-0.009638
-0.06819
-0.006093
-0.0965
-0.008059
0.05954
0.1383
-0.001792
0.09275
0.06966
0.1826
-0.214
-0.01128
-5.461e-05