/*--------------------------------*- C++ -*----------------------------------*\
  =========                 |
  \\      /  F ield         | OpenFOAM: The Open Source CFD Toolbox
   \\    /   O peration     | Website:  https://openfoam.org
    \\  /    A nd           | Version:  8
     \\/     M anipulation  |
\*---------------------------------------------------------------------------*/
FoamFile
{
    version     2.0;
    format      ascii;
    class       surfaceScalarField;
    location    "35";
    object      phi;
}
// * * * * * * * * * * * * * * * * * * * * * * * * * * * * * * * * * * * * * //

dimensions      [0 3 -1 0 0 0 0];

internalField   nonuniform List<scalar> 
189008
(
2.263e-07
-2.263e-07
3.133e-08
-3.131e-08
-1.109e-08
1.108e-08
-1.401e-08
1.406e-08
-5.242e-06
5.242e-06
-1.312e-08
1.314e-08
6.614e-05
-6.614e-05
-1.663e-05
1.663e-05
-8.37e-06
8.37e-06
-2.712e-05
2.711e-05
0.0001072
-0.0001072
-2.906e-05
2.906e-05
1.498e-08
-1.5e-08
1.321e-08
-1.32e-08
-0.0004959
0.000448
4.783e-05
1.872e-05
-2.17e-05
2.978e-06
-6.232e-08
6.233e-08
0.03992
-0.01662
-0.02331
0.008018
-0.00473
-0.003289
-1.053e-05
1.353e-05
-3e-06
-0.00383
0.003327
0.0005032
1.765e-06
-9.207e-07
-8.472e-07
-0.003287
0.009085
-0.005799
2.383e-05
0.0007264
-0.0007502
1.072e-06
6.889e-07
-0.0007732
0.000388
0.0003852
0.0003101
-0.000349
3.896e-05
0.0003413
-3.127e-05
0.0002785
-0.0002019
-7.66e-05
0.02238
-0.03975
0.01737
-6.371e-05
-0.0003298
0.0003935
-0.0002541
-0.0005191
0.0001585
-0.0001237
-3.487e-05
0.0004191
-0.0002383
-0.0001807
0.00754
0.01126
-0.0188
2.953e-05
0.000129
-7.696e-05
-0.0003238
0.0004007
-0.00608
0.007283
-0.001202
-5.603e-05
0.0007512
-0.0006951
-0.0001058
0.0001248
-1.894e-05
0.005065
0.002954
0.00286
-0.005611
0.002751
0.0008267
-0.006713
0.005886
-3.934e-08
3.934e-08
0.001293
0.03863
0.0002364
0.0001827
0.0001645
0.000114
0.001079
-0.001099
1.946e-05
-0.0009742
0.001188
-0.0002138
-3.407e-05
0.0006229
-0.0005888
6.306e-06
1.241e-05
-0.01619
-0.02682
0.04301
0.0009934
0.0004296
-0.001423
-0.01595
0.01257
0.003376
1.082
-0.1294
-0.9523
0.001299
-0.001005
-0.000294
-0.1448
1.227
0.01047
-0.006562
-0.003905
-0.3152
0.02054
0.2947
-0.008438
-0.007511
-0.002763
0.001755
0.001008
0.002977
-0.004748
0.001771
-0.0001843
0.001691
-0.001506
-0.8103
0.9555
-0.1452
0.000435
-0.001013
0.0005782
-0.0005447
-0.002247
0.002792
-0.03363
0.02548
0.008148
0.002129
-0.001751
-0.0003776
0.0005888
0.00154
-1.288
0.4839
0.8045
-9.571e-05
-0.0004809
0.0005766
-0.0001296
-0.0002194
0.0008586
0.003602
-0.004461
-0.118
-0.1972
-0.2751
0.518
-0.2429
0.0001378
0.0002036
-0.05233
0.09474
-0.04241
0.001125
-0.0008856
-0.0002395
0.000628
0.0006706
0.1607
-0.6345
0.4739
-0.0002905
0.0002059
8.455e-05
-1.292e-06
-9.243e-06
-0.0003033
-0.0003885
0.0006918
2.102e-05
9.421e-05
-0.0001152
-0.0002946
0.0004777
-0.0001831
0.0007202
-0.0009357
0.0002155
-0.0007527
0.001466
-0.0007135
-0.000387
0.0001257
0.0002613
-0.002564
0.00202
-0.000768
0.001307
-0.0005388
0.1788
-0.01817
-0.1607
-0.009249
-0.003265
0.01251
-0.0005514
0.001632
-0.001081
-0.002107
-0.001723
-0.001904
0.001964
-5.968e-05
0.02105
0.01739
-0.03843
0.004983
-0.002123
0.0004913
-0.0004959
4.674e-06
0.001461
0.0002805
-0.001741
-0.02294
-0.01069
0.6867
-0.5261
-1.994e-05
-0.0009542
-0.0001681
-0.0005501
0.0007181
0.003757
-0.004582
0.0008253
-3.666e-05
0.0007568
0.001898
-0.0004375
-0.001034
0.001484
-0.0004498
-1.008
-0.2802
-0.0007234
0.0004247
0.0002987
-1.154
0.8751
0.2786
-0.000357
-0.0001389
-0.000282
-0.000105
0.003011
-0.0004867
-0.002524
0.00222
-0.002657
0.000437
-0.2142
0.09906
0.1151
0.0004598
0.002212
-0.002671
-0.1094
0.06177
0.04761
0.1657
-0.4408
0.02501
-0.07734
-3.468e-07
2.73e-07
7.382e-08
-1.251
0.09745
-0.0001559
-0.0003071
0.000463
-0.0003232
-0.0004988
0.000822
0.01219
-0.0104
-0.001789
-0.0001758
-0.0001147
0.0006725
-0.0006127
-5.979e-05
0.002639
0.001211
-0.00385
0.08784
-0.1051
0.01721
0.002877
-0.001131
-0.001746
-0.000822
0.000649
0.000173
-0.0009932
0.0003102
0.000683
-0.001379
0.0005526
0.0008259
-0.0003256
-0.001204
0.00153
0.0006223
0.0005026
1.376e-07
-1.001e-07
-3.744e-08
-0.001046
5.267e-05
-0.006591
0.03626
-0.02967
0.001599
-0.00288
0.001282
-0.000123
0.0001436
-2.061e-05
0.03102
-0.05497
0.02395
0.007347
0.0005477
-0.007895
-0.05215
-0.03945
0.0916
0.002813
-0.003303
0.0004893
0.006163
-0.00335
-0.002813
0.001612
-0.0006187
0.002289
-0.0007986
-0.00149
-0.0002259
-0.0001222
0.000348
-0.02774
-0.7826
-0.001689
0.0003105
0.0005497
-0.0008603
0.0003106
0.002236
-0.003309
0.001073
0.001251
-0.0003355
-0.0009154
0.004679
-0.008298
0.003619
-0.008543
0.001597
0.006946
-0.0002705
0.0002747
-4.209e-06
-0.000433
0.0001384
0.006872
0.003595
0.0007216
-0.0005749
-0.0001467
0.0002256
0.0008535
0.0002363
-0.0004669
0.0002306
-0.000374
0.0007089
-0.0003349
-8.953e-05
8.953e-05
0.1872
-0.008423
-0.00125
0.0003748
0.0008748
0.0002425
-0.0005564
0.0003139
-0.0003465
0.0007815
0.0003543
-1.932e-05
-0.0003349
-0.0003879
0.001231
-0.0008436
-0.001502
0.001145
0.0003573
-0.04625
0.03414
0.01211
-1.819e-06
5.468e-08
1.761e-06
0.003998
0.002165
-0.003926
0.001695
0.002231
-0.002144
0.00072
0.001424
1.039
-1.215
0.1762
2.889e-05
-3.232e-05
3.434e-06
-0.001279
0.0006486
0.0006308
0.001601
0.001276
-0.0005526
0.001109
-0.0005562
0.1229
-0.1491
0.02616
-0.001429
-0.0007145
-0.1147
-0.006
0.1207
-1.056e-05
-1.684e-05
2.74e-05
4.425e-06
2.447e-05
-0.0003237
-0.0004983
-0.001275
0.004252
0.001219
-0.009708
0.008489
0.0003015
0.001919
0.0006949
-0.000671
-0.006581
0.08727
-0.08069
0.000132
-0.001121
0.0009889
0.0009499
0.0001709
-0.001121
-0.04397
0.03738
0.001765
-0.002018
0.0002531
7.528e-08
-0.0008092
-0.003245
0.004054
-1.475
1.203
0.2719
-1.457
1.187
0.2691
3.014e-06
-5.059e-07
-2.508e-06
-0.1675
0.1347
0.03277
0.2067
-0.03836
-0.1683
-0.06076
0.04694
0.01382
0.02662
-0.07096
0.04434
-0.0003505
0.0002736
2.747e-08
-2.751e-08
0.0003558
-0.001174
0.0008179
0.02288
-0.006341
-0.01654
0.002384
-0.0005319
-0.001852
0.05534
-0.03296
-0.2087
-0.005515
-0.0008843
-0.0189
0.01978
0.0002757
-0.0001476
-0.0001282
-0.05739
0.1989
-0.1415
-0.0006633
-0.0008392
-2.24e-05
0.0004319
-0.0004096
3.839e-06
-4.444e-06
6.056e-07
-9.116e-06
8.354e-06
7.586e-07
0.003007
-0.001824
-0.001183
0.0004748
-0.001489
0.001014
0.01978
0.003101
-0.001074
0.0003712
0.0007031
-0.4715
0.2206
0.2509
0.001093
0.0001576
-0.001183
0.001665
-0.0004818
0.0002244
0.0001395
-0.0003639
-4.143e-06
3.234e-06
9.032e-07
-0.0003691
0.0006116
-2.93e-06
-0.006078
5.091e-06
8.739e-06
-1.383e-05
-0.002348
0.002081
0.0002668
0.003472
-0.00101
-0.002462
-0.04156
-0.07313
0.00485
-0.003992
1.973e-07
-2.075e-07
1.012e-08
0.002052
0.001419
-0.02077
0.01647
0.004304
-0.0003935
-0.0008561
1.798e-06
-1.798e-06
0.2284
-0.02171
0.001984
-0.0003609
-0.001624
0.001641
-0.0006908
0.0006696
-0.00142
0.0007502
-0.0002217
0.0001826
3.909e-05
0.0003899
0.0003317
0.0008203
0.0005624
-0.001383
-2.238e-07
-1.229e-07
0.0008958
0.000439
-0.001335
-0.0003333
0.0002952
3.803e-05
-2.311e-05
2.31e-05
0.1975
-0.9692
0.7717
-0.001126
-0.002454
0.00358
-0.0001815
0.0004906
-0.0003092
0.001904
-0.000881
-0.001023
0.004536
-0.00141
-0.003126
-0.0001863
0.0008664
-0.0006801
0.0004337
-0.0002942
-0.0001396
0.1186
-0.03073
0.0002311
-0.0009731
0.000742
-0.0002353
0.001191
-0.0009559
-0.009486
-0.003595
0.01308
-0.005457
0.002826
0.002631
-0.0597
0.09148
-0.03178
-0.01605
0.006804
-0.09097
0.03882
-0.001458
-0.001383
0.002841
0.0001116
0.0008788
-0.0009904
-0.0002694
0.0005216
-0.0002522
-0.000206
0.0002636
-5.76e-05
-0.001393
0.0003363
0.001057
0.00214
-0.006474
0.004335
-0.0007344
-8.765e-06
0.0007431
0.873
0.1658
-0.00116
0.001508
-0.0003486
0.002153
-0.0001688
0.001151
-0.001934
0.0007829
-0.001275
0.001407
0.001586
0.001424
0.001179
-0.00139
0.0002115
-0.3874
-0.4521
0.8396
0.000501
0.001026
-0.001527
-0.5417
-0.3487
0.8905
0.0396
-0.01855
0.00382
-6.307e-05
-0.09343
-0.1628
0.2562
0.04778
0.1203
-0.1681
2.048e-07
-6.233e-08
-1.425e-07
0.001234
-0.001011
-0.0002231
-0.07852
-0.1009
0.1794
0.00159
-0.001178
-0.0004119
0.1752
-0.05229
-0.001473
0.006152
-0.002274
0.004646
-0.002372
-0.009548
-0.01123
0.0007622
0.001205
-0.001967
-0.2013
0.2323
-0.03094
-0.000396
0.0005285
-0.0001325
-0.0003128
-0.0002317
0.0005445
2.108e-05
-1.083e-05
-1.025e-05
-0.0001153
-0.0001064
0.0047
-0.00256
-0.000296
-0.0005288
0.0008248
-0.002992
0.0006608
0.002331
-0.001275
-0.0009966
0.002271
0.003108
-0.002648
-0.0001881
0.0003257
-0.0001376
2.107e-05
0.000101
-0.000122
0.002206
0.0001781
-0.1791
0.1217
-0.008778
0.004327
0.004451
-0.002968
0.002998
-3.039e-05
0.001185
0.0001226
-0.001307
7.662e-06
6.287e-07
-8.29e-06
-0.0009525
0.0006171
0.0003354
-0.8541
0.3124
-0.2555
0.1303
0.1252
0.0005961
0.0001881
-0.0007842
0.004256
-0.005735
0.001479
-0.0002512
-0.0004288
0.00068
0.01893
-0.01137
-0.007561
0.2119
-0.2023
-0.009579
0.007372
-0.01066
-0.0005154
-3.91e-05
0.0005545
0.09725
-0.05236
-0.04489
0.001309
0.0005952
0.0008881
-0.000292
-0.001471
0.003732
-0.002261
-0.02003
0.03138
-0.01135
-2.471e-06
-2.254e-05
2.502e-05
0.000878
-0.0002878
-0.0005902
-0.002839
0.000905
0.001934
0.005146
-0.002615
-0.002532
0.1968
-0.149
-0.007924
0.01546
-0.5023
-0.9725
-0.4957
-0.9609
-0.008999
0.000456
-0.0006304
0.0004583
0.0001721
-0.003693
-0.0002327
0.001369
0.003777
0.00012
0.0008188
-0.0009388
-0.01597
0.04699
0.002019
0.0009876
-0.001859
0.0006696
0.001189
0.000151
0.000705
-0.000856
0.0008053
-0.001736
0.0009312
0.0004621
0.001128
0.0007533
-0.0003012
-0.0004521
-0.001727
0.002201
-0.000474
0.0009762
-0.0006736
-0.0003026
-0.0004548
0.002367
-0.001912
-0.001245
0.0009725
0.0002728
-0.00489
0.007227
-0.002336
8.797e-06
-3.246e-05
2.366e-05
-0.001124
-0.006316
-0.02573
0.03205
0.0009276
-0.0008229
-0.0001046
0.003672
0.0008641
-0.0006102
-0.001619
0.002229
0.2984
-0.4095
0.1111
0.0008004
7.763e-05
-0.0006662
0.001438
-0.0007717
-0.001858
0.001673
-0.007754
-0.008348
0.0161
0.001123
-0.00117
4.743e-05
-0.0001068
0.0008872
-0.0007804
0.3824
0.1358
-0.5182
-0.1166
-0.05085
-0.1932
0.2627
-0.06946
0.0005321
-0.0006376
0.0001055
0.4448
-0.8323
-0.001473
0.000153
0.00132
0.06344
0.0338
0.0003829
-0.0005643
9.281e-05
-0.0007226
0.0006298
0.1158
-0.1224
0.03104
-0.01127
-0.01977
-0.000219
0.001064
-0.0008454
-1.103e-07
-3.735e-08
1.479e-07
0.001303
-0.00226
0.0009572
0.9531
-0.7145
-0.2386
0.0007924
0.009444
-0.01024
0.0001323
0.0005402
-0.001247
0.0008843
0.0003629
0.004995
-0.003947
-0.001048
-0.09018
-0.0192
3.408e-05
4.659e-06
-3.874e-05
0.0207
-0.02392
0.003219
9.624e-06
-0.0001155
0.003023
-0.004023
0.001
-0.002166
-0.003865
0.006031
0.2457
-0.2575
0.01186
0.003959
-0.003947
-1.154e-05
2.118e-06
-5.102e-06
2.985e-06
0.0002217
0.0006284
-0.0008501
-0.0009249
0.001027
-0.0001022
-0.0002044
0.0004334
-0.000229
0.002084
0.001875
-0.0004392
0.0003755
-0.02595
0.01963
0.01035
-0.07005
0.0001313
-0.0002203
8.9e-05
-0.5101
0.03855
0.004026
7.757e-05
-0.004103
1.505e-05
-2.561e-05
0.001677
0.01902
-0.004006
0.003162
0.0008441
0.0005578
-0.001338
0.0007807
-0.002181
0.002163
1.734e-05
0.1101
0.4884
-0.5985
0.0005411
-0.001094
-0.0001174
-0.0001421
0.0002594
-0.001108
-2.462e-05
0.001133
0.0005895
0.006758
0.0001494
0.0008338
-0.0009831
-0.0007883
0.000465
-0.0006219
-0.001282
0.002479
-0.002105
-0.0003736
-0.0009072
0.0001728
-0.001594
0.004595
-0.003001
-0.0005955
0.0001233
0.0004722
0.000421
-6.676e-05
-1.151e-06
-3.212e-06
4.359e-06
0.0006353
-0.0006175
-1.777e-05
-0.6741
0.8716
-0.003121
0.0007739
0.01236
-0.0145
0.002141
-0.00536
0.006186
-0.01064
0.001099
0.009545
0.0009691
-0.0002996
-0.01037
-0.005692
0.01606
-1.277
1.439
-0.1617
-0.0007266
0.000745
-1.842e-05
1.4e-05
1.95e-05
-3.351e-05
0.003273
0.01205
-0.01532
0.004831
-0.005236
0.0004056
0.5739
-0.1915
0.0008997
-0.001849
0.0009492
0.0001902
-0.0007797
0.0005895
-0.05833
0.04214
-0.02429
-0.177
0.6964
-0.6519
-0.04457
0.0008385
-0.0008726
0.06456
-0.0283
-0.0002807
-1.556e-05
0.0002963
0.05057
-0.05659
0.006023
6.598e-05
0.0004253
-0.01424
-0.1308
0.1451
-3.627e-05
-4.391e-06
4.066e-05
0.05716
-0.2504
0.0001047
0.000171
-0.002561
0.002663
-0.0001013
-0.001208
0.000668
0.00054
-0.001215
0.002693
-0.001478
0.0003336
-0.0006496
0.000316
-0.01865
0.004301
0.01435
-0.0005335
0.0002687
0.0002648
0.0006418
0.000234
-0.0008758
-0.001346
0.0001416
0.001204
-0.000676
0.0001744
0.0005016
0.001907
0.008725
-0.01063
-0.002451
0.002126
0.0008258
0.001331
-0.002157
0.001765
-0.005861
0.004096
0.004698
-0.003261
-0.001437
-0.001162
0.001988
0.356
-0.9494
0.5934
0.123
-0.001889
-0.1211
0.004038
-0.001763
-0.002275
-0.0004922
0.000535
-4.281e-05
-1.532
0.1224
1.409
-0.003294
0.002058
0.001236
-0.005777
0.01482
-0.009044
0.004482
0.007712
-0.001216
0.005472
0.02786
-0.0155
-0.01235
1.414
-0.2689
-1.145
-0.000378
0.0005085
-0.0001305
-0.01237
0.006591
-0.0001913
0.0001724
1.895e-05
-0.001898
0.0009251
0.0009732
0.0001633
-0.0001073
-5.608e-05
-0.0001062
6.304e-05
4.316e-05
0.001101
-0.0001725
-0.0009281
-0.0005185
-0.000434
-0.0003627
-7.028e-06
0.0003697
0.0009245
0.003906
0.002064
-0.0006594
-0.001404
-0.1271
0.2575
-0.1304
-0.000353
0.0005893
-0.1
0.08512
0.01488
0.001176
-0.0009921
-0.0001834
0.0006872
-0.00144
-0.00177
0.001593
0.0001766
0.0002083
-0.002232
0.002024
1.174e-08
1.562e-08
0.001054
-0.0005248
-0.0005288
0.00126
0.0008037
-0.002064
0.02644
-0.01532
-0.01112
0.003154
-0.003934
0.0007806
-0.285
0.2279
0.05709
0.0001075
5.581e-05
0.119
0.003979
-5.239e-05
-4.989e-05
0.0001023
-0.003594
0.002785
-1.257e-07
1.257e-07
8.455e-08
-3.498e-07
2.653e-07
-2.272e-07
2.049e-07
2.229e-08
1.195
-0.8174
-0.3772
0.0004587
0.0004689
-0.0003625
0.001821
-0.001458
-0.1461
-0.1094
0.002619
-0.0002426
-0.002377
-0.0002523
0.0006795
-0.0004272
0.000591
-0.0006572
6.618e-05
0.00298
-0.0002944
-0.002686
-9.351e-05
-0.002468
-0.001019
-0.000189
-0.002062
-0.001232
-0.0003187
0.0002911
2.765e-05
-0.4346
0.7907
0.000135
-3.915e-05
-9.581e-05
1.095e-06
-1.043e-06
-4.493e-08
0.0003815
-0.0004484
6.689e-05
0.0007203
-0.000174
-0.0005462
-4.007e-06
2.186e-06
0.06134
-0.1794
0.002981
-0.0007456
-0.05209
0.07871
0.005973
-0.004208
0.04711
0.242
-0.2891
-0.0005911
0.000145
0.0004461
-0.0002718
-0.000435
0.0007068
6.074e-06
-1.933e-06
-4.165e-06
1.517
-0.8966
-0.6201
0.003283
0.0007549
0.008194
0.003514
-0.01171
-4.457e-06
4.615e-06
-1.58e-07
-0.0003915
3.218e-05
0.0003593
0.000967
-6.498e-05
-0.000902
-0.008247
0.001699
0.006547
-0.1094
0.1009
0.008497
-6.022e-05
0.0002406
-0.0001803
0.0005263
0.0005438
-0.00107
-0.7994
-0.7324
0.002003
-0.007913
0.001231
0.006682
-0.0006266
0.0003138
0.0003802
0.0007424
-1.519e-06
-0.0004906
-5.59e-05
-1.869e-05
7.46e-05
0.003544
-0.0005207
-0.005153
0.005142
1.106e-05
0.0005699
1.936e-05
-0.0005893
-0.0002037
0.0004875
-0.0002837
-0.0001772
-0.0005494
0.1121
0.05737
-0.1694
-0.0001522
0.0001144
3.78e-05
-0.0001779
0.0009342
-0.0007563
0.0008777
-0.0009967
0.000119
0.0009965
-0.002156
0.001159
-9.148e-07
0.000205
-0.0002041
-0.7902
0.1129
0.6774
-0.7889
0.6291
0.1598
0.005147
-0.01463
0.0007087
4.461e-05
-0.0008098
-0.002211
0.003021
0.1342
-0.2066
0.07235
1.474
-0.6495
-0.8241
-0.001075
0.001628
-0.0005527
0.0001814
-0.0002821
0.0001007
0.00134
-0.0005869
-0.0007532
-0.0004039
4.125e-05
-9.018e-05
-4.695e-06
9.489e-05
0.0001389
-0.0001249
-1.39e-05
-0.002589
0.0024
0.0001885
-0.1464
0.103
0.04338
1.396
-1.274
-0.1218
7.766e-05
-3.001e-05
-4.765e-05
0.0006867
0.001224
-0.001911
0.0004126
-0.001379
0.0009659
0.3155
0.5195
-0.8349
-9.92e-05
-0.0002341
0.002278
-0.002666
0.000388
0.0007237
-0.0006883
-3.535e-05
0.5009
-0.0007826
0.0009317
-0.0001491
-0.03091
0.1651
-0.0003768
0.0009346
3.497e-05
2.725e-06
-3.768e-05
0.00668
-0.008427
0.001746
0.9749
0.1611
-1.136
4.264e-05
6.166e-05
-0.0001043
-0.003975
-0.001482
-0.0001588
6.932e-05
0.3919
1.022
0.0003837
-0.001417
-5.842e-06
-3.276e-06
0.3915
0.305
-0.001532
-0.002473
-0.1675
0.007861
0.1596
-0.0003948
-0.000503
0.0008978
0.002823
-0.0007971
-0.002026
-0.2805
0.1871
-0.0006077
0.0005507
5.698e-05
0.0003627
0.0007385
-0.001101
6.962e-06
4.089e-06
-1.105e-05
0.0008614
0.0007025
-0.001564
0.004031
-0.002234
-0.001797
-0.0003247
-0.0009207
-0.0003788
-0.0008684
-0.001123
0.0002597
0.0008636
0.0008342
-0.0008902
0.001024
-0.001575
0.0007107
-0.001096
0.000385
-2.841e-05
2.911e-05
-7.09e-07
-0.002989
0.002255
0.0007348
0.0006638
-0.0004815
-0.0001823
-0.598
0.9135
0.001121
-0.0007461
-0.0003752
0.1046
-0.1923
0.08768
-0.000653
0.001458
-0.1282
0.03696
0.09129
-0.0006033
0.003417
-0.3433
-0.934
-0.1536
0.07512
-0.00211
-0.004431
0.006541
-0.0002963
-0.0002991
0.00159
0.001044
-0.002634
-1.04
0.1289
0.9116
1.104
-0.8982
-0.206
-1.054e-05
1.562e-05
0.0003341
0.0002147
-0.0005488
0.0003107
-0.0006139
-0.000922
0.0003591
0.0005629
-0.002527
0.0007657
0.001761
0.0001274
-0.0004081
0.002205
-0.003111
0.000906
-0.0003839
0.0002666
0.00144
-0.0007354
0.0001387
-0.0003837
0.0002451
0.0004653
0.0001217
-0.0005871
-1.16
0.1191
-0.0003943
-0.001186
0.001581
-0.0001335
0.001257
-0.001123
-0.0001398
-0.004185
0.004325
0.01111
-0.0052
-0.005909
0.1774
-0.2341
0.05664
1.03
0.4434
0.002369
-0.003841
-1.232e-05
-0.0001107
0.0008891
0.001175
1.049e-05
-6.905e-06
-3.591e-06
-0.07962
-0.04863
-0.9853
-0.4036
1.389
0.0003368
0.0002816
-0.0006184
0.001567
-2.415e-05
-0.001543
-0.04888
-0.01188
-0.0002789
-0.0003354
0.0006142
0.01232
-0.001697
-0.01063
-0.02816
0.08343
-0.05526
0.0004439
-0.0001843
-0.0002597
0.00182
-0.002294
0.0004739
0.001295
-0.001428
0.002312
-0.006708
0.004395
7.335e-08
-7.336e-08
-4.612e-06
4.692e-07
-0.000105
-0.0005711
-0.0004099
-0.0001235
0.0006486
0.0005851
-0.001113
-0.0004873
0.0016
-0.0007425
-4.016e-05
0.0006563
-0.001203
0.0005465
0.05077
0.009699
-0.06047
-0.00226
0.0007684
0.001492
-1.693e-05
1.504e-05
1.895e-06
0.001021
0.003004
0.7439
-1.067
0.3228
0.001411
-0.0002323
-0.003291
0.003155
0.0001359
-0.001984
-0.0005998
0.002584
1.07
0.4471
-0.02388
0.7678
-8.028e-07
-3.6e-07
1.163e-06
0.02065
0.005788
0.0004851
-0.0009016
0.0004165
-0.0009147
0.0009281
-1.348e-05
-0.0001629
0.0002162
-5.329e-05
-0.006665
-0.002113
0.003539
0.005199
-0.008738
0.0004782
-0.0002538
-7.883e-05
-0.004874
0.004953
0.001012
-0.000856
-0.0001556
-0.1498
-0.2015
0.3513
1.051
-0.04555
-1.006
-0.003643
-0.0004253
0.004068
0.0005053
0.01186
-0.0001753
0.0007074
-0.003975
0.001991
0.0003685
-0.000418
4.947e-05
-0.003209
0.0008654
0.002343
0.0001982
0.0001414
-0.0003396
-0.0219
0.02102
0.006394
-0.01415
-1.12
-0.3845
1.505
-0.000191
0.0003702
-0.0001791
0.01998
0.007875
-0.0013
0.0009483
0.0003514
7.915e-08
-0.002121
0.0005938
0.001528
-0.003876
0.002418
-0.0007532
0.002056
1.253
-0.2776
-0.001686
0.001916
-0.0002305
-0.0004266
-0.000719
0.001146
7.709e-05
-8.185e-05
4.77e-06
0.00195
0.007056
-0.009006
-0.002861
-0.001513
0.004374
0.0009592
0.0004812
-0.0002579
0.0008076
0.001176
0.001302
2.312e-05
-0.0001728
0.0001497
-0.002345
-0.002144
0.004488
0.0005918
-0.0007781
0.001303
-0.00227
0.0009676
-0.003157
0.0001895
-0.0001512
0.00279
0.002426
-0.004952
0.002526
-5.109e-07
5.108e-07
-0.0004128
-0.002878
-0.06815
0.02191
0.000125
-0.001189
0.001064
7.528e-05
0.0002128
-0.000288
4.537e-07
0.001214
-0.001215
0.1004
0.3737
-0.4741
1.878e-05
3.071e-06
-2.185e-05
0.001728
-0.006619
0.001106
0.0002343
-1.51
0.5251
2.713e-06
7.767e-06
0.0007195
-8.425e-05
0.0007749
-0.0009182
0.0001433
-0.3865
-0.6348
1.021
-8.068e-05
0.000737
-2.309e-05
5.109e-05
-2.8e-05
-0.0003336
0.001056
-0.0007228
-0.0003635
0.001535
-0.001172
-1.193
0.8068
0.001631
-0.001149
-0.0004815
-9.237e-06
5.876e-07
8.65e-06
-0.0003404
0.0005468
-0.0002064
0.003866
-0.003657
-0.0002093
-0.1593
0.06615
0.0931
-0.001501
-0.0003578
0.0008992
-0.0006851
-0.0002141
-0.1644
0.1697
-0.005355
0.002311
0.0004796
-0.00279
-0.003251
0.0031
0.000151
-0.001361
0.0002479
0.0006831
0.0003705
-0.002334
0.002995
-0.002424
0.0003027
-4.056e-05
-0.0006328
0.0006733
0.0001653
-0.0004347
0.2803
0.5836
-0.8639
0.001399
0.0002316
0.002508
-0.003832
0.001324
0.0002278
-0.0002315
3.663e-06
-0.0002102
-0.000898
-0.01674
0.01273
0.00401
0.002978
-0.0003581
2.227e-05
-7.814e-05
1.022
-0.7417
-9.342e-05
0.0006844
0.0001641
0.0002799
-0.000991
-0.000426
0.001417
-1.541e-08
2.127e-07
0.0005347
-0.001526
6.545e-06
-4.822e-07
-0.00216
-0.0004941
0.002654
-0.000181
0.000128
5.306e-05
-0.003709
0.001012
0.002698
0.1725
1.022
4.915e-08
-4.907e-08
-0.0003241
-0.0005056
0.0008297
-0.0007284
0.00159
-0.0001377
0.0001265
1.126e-05
0.0002042
-0.0005452
0.000341
-5.28e-05
0.000211
-0.0001582
0.0006066
-8.835e-05
-0.0005182
-0.0007103
0.0006146
0.5568
0.8389
-0.001133
-0.004819
0.005952
-0.003832
0.001099
0.002733
-1.497
0.3773
0.000331
-0.0006062
0.0002752
0.0002201
0.0009555
0.001906
-0.0007216
0.0006624
0.0001809
-0.0008433
0.1376
-1.02
0.8823
-0.0004311
0.002636
-4.059e-05
2.034e-05
2.024e-05
-0.2768
-0.7164
0.854
0.006691
0.004418
0.004961
-0.005703
0.0007421
-0.001354
-0.001173
0.0002154
2.969e-05
-0.0002451
0.001397
-0.001104
-0.0002931
1.496e-05
-1.624e-06
-1.334e-05
-0.003546
0.0008975
0.002649
-0.003361
0.003399
-3.848e-05
-0.799
-0.2676
0.001332
-0.0003336
-0.0009988
0.0004731
-0.0002386
-0.0002345
0.000594
-0.0004841
-0.0001098
0.0001906
-0.0003787
0.000851
-0.001239
1.084
0.08482
-1.169
0.2752
-0.2139
0.0703
-0.1291
0.05875
0.0002887
-6.867e-05
-0.00022
0.04396
-0.843
0.03101
-0.01949
-0.01152
-4.576e-05
8.799e-05
-4.223e-05
-0.0008033
-0.0009752
0.001778
0.0003608
0.0001973
-0.0005581
-0.2177
0.8468
-0.6292
8.759e-05
-3.58e-05
-5.179e-05
-0.0003674
0.002087
-0.00172
-0.2414
-0.01482
0.2562
0.0004673
0.0005089
0.6884
0.4719
-1.16
-0.0001531
-0.0001487
0.0003019
0.0002395
0.0001022
-0.0003417
-0.001509
0.00073
0.000779
-0.0007159
-0.002577
0.003293
5.042e-05
3.123e-05
-8.165e-05
0.1803
-0.04943
-0.1309
-0.0003355
-0.000271
0.0006064
-0.007426
0.006498
0.000928
-0.0004712
-0.0001199
2.104e-05
-1.616e-05
-4.883e-06
-0.0004613
-0.0005238
0.0009851
0.0007106
0.0002545
-0.0009651
-0.0105
-0.00624
0.004433
-0.005007
0.0005739
0.001316
-0.000416
-0.0009
0.0003825
-0.0003825
-0.3424
0.1965
0.1459
-0.006398
0.009458
-0.00306
0.0008369
-0.0005165
-0.0003204
-0.0009852
0.001811
-0.0008255
-1.753e-05
5.947e-07
0.0005876
-0.000527
-6.057e-05
-0.1168
1.201
0.04412
-0.02687
-0.01725
5.626e-05
2.141e-05
-0.0005136
2.61e-05
0.0004875
0.0001665
-0.0002159
4.941e-05
-0.001422
0.003211
-0.001789
-8.436e-05
8.436e-05
-0.001602
0.001685
-8.317e-05
-0.0001155
0.0001155
0.001897
-0.0006406
-0.001257
-9.439e-05
-6.128e-05
0.0001557
-0.005363
0.00423
0.0001185
-8.229e-05
-3.621e-05
0.1015
-0.07456
-0.0269
0.001778
-0.001342
-0.0004363
1.093
-1.518
0.4246
1.313
-1.734
0.4211
0.0005827
0.003064
-0.003647
-0.04685
0.09725
-0.05041
-0.001338
1.56e-05
0.001323
0.01515
-0.003237
-0.01191
-0.002317
-0.0003402
-0.006661
0.007503
-0.0008425
0.04454
-0.1005
0.05593
-0.001177
0.0001029
0.001074
0.000578
0.0008273
-0.001405
0.2538
-0.008101
-0.01183
0.011
0.0008253
-0.0002776
0.0005304
-0.0002528
0.09293
-0.04839
-0.0006517
0.0003305
0.0003212
-4.382e-05
4.384e-05
6.12e-05
-4.184e-05
-1.935e-05
0.0007814
-0.002409
0.001627
-0.0005156
1.145e-05
0.0005041
0.003852
-0.004806
0.0009539
0.0002431
-0.0002448
1.709e-06
-0.3337
0.1198
0.2138
-0.002233
0.0004634
-0.0006011
-0.0006986
-0.05266
0.3511
-0.0006091
0.0004531
-0.001343
0.0001174
0.001226
-0.002133
0.004928
-0.002794
-0.4748
-0.5469
1.022
0.2461
-0.003244
-0.2429
0.01232
-0.007399
-0.00492
4.578e-06
1.399e-06
-5.977e-06
-2.981e-05
-0.001487
0.001516
3.946e-05
-3.952e-05
-0.003522
0.001735
0.001787
0.0004473
-0.000152
-0.0002952
-0.001654
0.001533
0.0001202
3.886e-06
3.074e-06
-6.958e-06
-0.001432
-0.0004282
0.001861
-0.41
1.367
-0.9567
-9.049e-05
0.0001285
-3.803e-05
0.008225
-0.00135
-0.006875
-0.3007
1.334
-1.034
-0.000486
-0.0004429
0.000929
8.457e-07
-4.131e-07
-4.327e-07
0.001612
0.006888
-0.0085
-0.001738
0.00067
0.001068
0.005674
-0.003316
-0.002359
0.001004
0.002709
-0.003713
-1.071e-06
-3.419e-06
4.477e-06
8.739e-05
-8.739e-05
0.0007817
0.0003759
-0.001158
-0.09011
-0.0563
-0.4594
0.221
0.2384
0.00241
-0.0008957
-0.001514
-0.0007825
0.0005222
0.0002603
0.000121
0.000157
-0.000278
-0.0008563
0.0004808
0.0003756
-0.0009465
-0.0006642
0.001611
0.0003894
-0.0001668
-0.0002226
-0.002994
0.002695
0.000299
-0.01395
0.02136
-0.007401
0.0001717
0.0002177
-0.03452
-0.01143
0.04595
-0.0005282
-3.72e-05
0.0005654
0.1359
-0.5769
0.4409
0.0005451
0.000752
-0.001297
-5.135e-06
8.975e-06
-3.84e-06
-0.003432
0.004634
-0.001202
0.0009294
-0.0007654
-0.000164
-0.002434
0.00113
0.001305
-0.3821
0.09967
0.2825
-0.185
0.0515
0.1335
-9.752e-05
0.0001706
-7.31e-05
0.006654
-0.007113
0.0004587
0.0001439
-0.0003033
0.0001593
0.0005907
-0.001038
0.000447
-0.0001468
0.0002733
-0.0001265
0.001265
-0.001126
-0.0001394
0.001795
-0.0002911
-0.001504
-0.002723
0.00214
0.0005836
0.0002055
-0.001332
0.001126
0.0004565
-0.0004565
-9.121e-05
0.001449
-0.001357
-5.572e-05
0.000435
-0.0003793
0.0004936
-0.0003906
-0.0001031
-0.002437
0.003649
-0.001212
0.001313
-0.002525
0.001212
0.0003674
0.001397
-0.0002639
0.0002614
2.523e-06
2.908e-06
-3.573e-06
6.661e-07
2.074e-06
-1.095e-06
-9.781e-07
-0.002868
0.001283
0.001586
-0.3215
0.4219
0.5926
0.2148
-0.8075
-0.001186
0.002023
-0.000837
7.136e-05
0.0003719
-0.0004431
0.004141
-0.000835
-0.003306
-0.1892
1.183
-0.9941
8.336e-05
0.0003644
-0.0004478
-0.002787
-0.0003243
-0.002263
-0.004816
0.007079
0.000142
5.547e-05
-0.0001975
0.004429
-0.003904
-0.0005259
-7.835e-05
0.0003032
-0.0002248
0.004396
-0.005196
0.0008001
0.7865
-0.6764
-0.007061
0.002218
0.004843
0.01056
0.0002142
-0.01077
0.0002641
-2.959e-05
-0.0002345
9.749e-05
0.0001648
-0.0002623
-3.912e-05
3.158e-05
7.536e-06
-0.003059
0.001704
0.001355
0.00367
-0.008929
0.005259
0.0003303
-0.0008303
0.0004999
-0.0008527
0.001317
-0.000464
-0.001931
-0.001347
0.003278
0.004842
-0.002125
-0.002717
-0.0003954
-5.063e-05
0.0004461
0.001925
-0.001588
-0.0003366
0.0004538
-0.0003994
-5.433e-05
0.0003072
-0.0002297
-7.752e-05
0.2585
-0.3224
0.06384
-0.0001789
0.0001085
7.05e-05
1.16e-06
2.288e-06
-3.445e-06
0.003349
-0.0008408
-6.524e-05
0.002008
-0.001943
0.0004962
-4.819e-05
0.01994
-0.1189
0.09901
-0.0001623
0.0001622
-0.000429
0.000429
-0.1656
-1.044
1.21
1.256
0.2303
-1.486
-0.002221
0.001215
0.001007
0.0007125
-0.003612
0.002899
7.773e-07
-9.495e-07
1.726e-07
-1.784e-05
2.31e-05
-5.259e-06
-0.0001956
0.001974
-0.0003809
0.0004977
-0.0001168
0.0001456
-2.957e-05
-0.0001161
-0.001108
-0.00341
0.004518
0.003043
0.004518
-0.007561
-0.1833
0.05779
0.1255
0.0004379
-0.0002582
-0.0001797
-0.0003244
-0.0003206
0.000645
5.228e-06
0.0001958
-0.0002011
-0.003866
0.0009027
0.002963
-1.309e-06
1.226e-06
8.108e-08
0.0004669
-0.000648
0.0001811
0.8154
-1.145
0.3294
-0.00054
0.00054
6.034e-05
-1.547e-05
-4.488e-05
0.1658
0.561
-0.7268
0.001191
-9.002e-05
-1.282
1.117
0.2402
-0.4217
0.1814
-0.002753
0.001897
0.0008568
-0.009913
-0.001455
0.01137
0.0002387
-0.0001286
-0.00011
0.7764
-0.9416
0.1652
0.00106
-0.0005235
-0.0005361
0.4788
-0.1377
-0.3411
0.0007498
-0.001535
0.0007852
-0.01462
0.005142
0.009482
0.01311
-0.01165
-0.001459
0.005371
-0.002824
-0.002547
-0.0002189
-0.0008152
0.001034
-0.0008244
-0.0003748
0.001199
0.0002206
6.402e-05
-0.0002846
0.001647
0.0003412
-0.001989
0.1531
0.6455
-0.7987
0.004856
0.0624
-0.06725
-0.00496
0.002463
0.002497
-0.0001669
-0.0008741
0.001041
9.946e-05
-0.0002592
0.0001597
0.0005381
-0.0003092
-0.0002288
0.0001215
-7.116e-05
-5.038e-05
-0.0003394
-9.735e-05
0.0004367
-1.176e-05
1.161e-05
-0.0009675
0.00167
0.001164
-0.0008306
-0.0003338
-0.0006355
0.001697
-0.001062
-0.001136
0.000709
0.0004268
0.000329
0.0001912
-0.0005202
0.009139
-0.00894
-0.0001992
0.01277
-0.005643
-0.007123
0.4951
-0.3683
-0.1268
-0.001068
0.001174
-0.0001063
-2.676e-05
3.012e-05
-3.349e-06
-0.0007063
3.944e-07
0.0007059
0.4958
-1.095
0.5991
-1.112e-05
2.787e-05
-1.674e-05
0.00455
-0.002343
-0.002207
-0.002253
0.0005893
0.001663
0.001213
-0.0005589
-0.0006542
-0.0003228
0.00154
-0.001217
0.001273
0.005793
-0.007067
0.000614
-0.00071
9.593e-05
-0.001445
-0.002907
0.004352
-0.001104
-0.001148
1.278e-06
-9.892e-06
8.606e-06
-0.0006415
-0.0001049
0.0007464
1.339e-05
7.658e-06
-1.177
0.5406
0.6366
0.002054
-0.003975
0.001921
-0.001005
0.0003732
0.0006317
0.1268
0.05435
-0.1811
-0.001115
0.0002998
0.0008147
0.0007719
0.0002012
-0.0009732
-1.242
1.242
0.001325
0.00184
-0.003166
-9.171e-06
2.193e-05
-1.276e-05
0.06196
-0.04866
-0.01331
0.009128
1.078e-05
-0.005529
0.00551
1.808e-05
5.967e-05
-2.484e-05
-3.483e-05
0.01048
-0.008236
-0.002241
-1.274
0.5256
0.7482
0.0007388
-0.001164
0.0004251
-0.0001507
0.0004984
-0.0003477
0.4052
-0.2586
-0.1467
-0.01152
0.009172
0.002352
5.522e-05
-0.03369
0.03364
-0.002193
-0.001003
0.003196
-0.0005527
-0.0001958
0.0007484
-0.00133
-0.0006179
0.001948
-0.0524
-0.05608
0.1085
-3.164e-06
-3.223e-06
6.392e-06
5.563e-08
3.076e-06
-3.137e-06
0.0002538
0.0008676
0.0004079
-0.001499
0.001091
-0.002481
0.004028
-0.001547
8.005e-05
3.845e-05
-0.3937
1.246
-0.8525
0.000286
-0.001325
0.001039
0.353
-0.008437
-0.3446
0.0008952
-0.001231
0.0003355
-0.0005153
0.0004051
0.0001102
0.0007581
0.000985
-0.001743
0.0003559
0.0008571
-9.533e-06
7.085e-06
2.447e-06
0.0003222
-0.0003565
3.428e-05
-0.5591
0.2205
0.3386
-2.86e-06
2.853e-06
-0.0002192
0.0001628
5.638e-05
0.000105
-0.0004887
0.0003838
-0.001614
-0.0002045
0.001818
-0.0006294
0.0008605
-0.002445
-0.00236
0.004805
0.01318
-0.01177
-0.001413
-0.0004442
0.0003639
8.033e-05
0.001899
-0.001316
-0.0005829
-0.00416
0.0231
-0.01894
1.785e-05
-1.785e-05
-0.0002568
0.0003487
-9.183e-05
-0.0009992
0.0004345
0.0005647
0.0005392
0.000222
-0.0007611
0.001539
-0.001273
-0.0002658
-3.407e-05
0.0001003
-6.626e-05
1.513e-05
-3.472e-05
1.959e-05
9.687e-05
6.175e-05
-0.0001586
0.002024
-0.001476
-0.0005481
0.0006369
-7.324e-05
-0.0005637
0.001148
-0.003958
0.002811
-0.0004387
-0.0005483
0.000987
-0.001325
0.0006989
0.0006261
-0.008547
-0.0001695
0.008716
3.459e-05
-3.463e-05
-0.01927
0.005857
0.01341
0.0008446
0.0003444
-0.001189
-0.00558
0.01377
0.0008472
-0.001163
0.0003155
-1.264
0.5118
0.7521
0.5501
-0.785
0.2349
0.003786
-0.00619
0.002403
7.128e-05
-8.273e-05
1.144e-05