/*--------------------------------*- C++ -*----------------------------------*\
  =========                 |
  \\      /  F ield         | OpenFOAM: The Open Source CFD Toolbox
   \\    /   O peration     | Website:  https://openfoam.org
    \\  /    A nd           | Version:  8
     \\/     M anipulation  |
\*---------------------------------------------------------------------------*/
FoamFile
{
    version     2.0;
    format      ascii;
    class       volVectorField;
    location    "35";
    object      U;
}
// * * * * * * * * * * * * * * * * * * * * * * * * * * * * * * * * * * * * * //

dimensions      [0 1 -1 0 0 0 0];

internalField   nonuniform List<vector> 
127143
(
(0.006186 -0.0002697 0)
(-0.0001869 -0.0008626 -4.662e-24)
(6.776e-05 0.0003338 8.255e-24)
(8.095e-05 0.0003438 -1.059e-27)
(0.0398 0.003996 -1.221e-20)
(6.5e-05 0.000326 6.583e-27)
(0.2881 0.1721 0)
(0.1106 0.05018 -1.095e-20)
(0.07222 0.03633 5.086e-20)
(0.07784 0.001202 0)
(0.4423 0.6265 1.431e-20)
(0.1989 0.1305 3.122e-20)
(-0.0005012 0.0001981 -1.228e-24)
(9.071e-05 0.0003267 0)
(-0.3763 0.6569 2.94e-21)
(0.1299 -0.01022 0)
(-0.0002804 -0.001145 -1.341e-23)
(0.9838 -0.1062 -4.312e-21)
(0.9795 -0.1543 0)
(0.1281 -0.004297 0)
(1.247 -0.2801 1.276e-20)
(-0.01143 0.004162 0)
(0.8502 -0.09113 0)
(0.882 -0.08437 0)
(-0.01115 0.004267 -4.821e-23)
(0.6808 -0.1105 0)
(0.5219 -0.01412 2.667e-20)
(0.5125 0.005261 -4.243e-22)
(0.3436 -0.1536 0)
(0.9935 -0.08301 6.655e-21)
(0.7653 -0.05152 0)
(0.6587 -0.1058 2.21e-21)
(0.3822 0.09584 1.358e-20)
(0.3294 -0.07963 -1.13e-20)
(0.7789 0.04925 4.78e-20)
(0.3054 0.08785 -3.772e-23)
(0.2843 -0.1176 -9.097e-22)
(1.384 -0.204 -9.5e-21)
(0.9215 -0.0868 3.567e-22)
(0.4663 -0.02776 1.225e-24)
(0.9806 -0.1551 0)
(1.635 0.683 -2.807e-20)
(1.588 0.6755 2.248e-20)
(-0.0009994 0.0002943 0)
(0.9827 -0.1041 3.99e-21)
(0.3359 -0.0803 3.69e-21)
(0.3546 -0.1612 0)
(0.5241 -0.1793 4.708e-23)
(0.8898 -0.1522 -8.069e-22)
(0.9033 -0.07608 1.397e-22)
(0.1496 -0.01053 -3.655e-23)
(0.9185 0.005472 1.313e-19)
(1.524 -0.1656 0)
(1.422 -0.03732 -1.894e-20)
(0.9989 -0.002506 5.932e-20)
(0.7768 -0.1957 1.382e-21)
(0.999 -0.002496 -5.335e-20)
(0.9524 -0.07828 0)
(1.015 -0.01729 -2.709e-20)
(1.424 -0.0328 -3.747e-20)
(0.3047 0.3115 -7.475e-20)
(1.026 -0.2377 -1.099e-21)
(0.9716 -0.07568 -4.978e-22)
(1.001 0.0006221 1.858e-19)
(1.046 -0.09327 0)
(0.6782 -0.1315 -2.658e-20)
(1.274 0.1049 8.699e-20)
(0.9683 -0.07795 0)
(0.969 -0.07782 -1.488e-22)
(0.999 -6.542e-05 0)
(0.843 -0.06961 0)
(0.5509 0.0003287 -1.263e-20)
(0.6855 -0.1373 7.919e-22)
(1.016 -0.01713 -1.468e-20)
(1.007 0.003842 -5.821e-23)
(0.548 0.01083 1.337e-20)
(1.047 0.04936 -1.144e-19)
(0.4641 -0.01111 0)
(0.785 -0.1983 -2.721e-21)
(1.001 0.001363 0)
(0.3716 -0.1628 -4.298e-24)
(0.1488 -0.008147 1.776e-23)
(0.4754 -0.1087 4.35e-21)
(0.5419 -0.03809 0)
(0.2102 -0.04584 2.91e-22)
(0.4751 -0.07989 0)
(0.9411 -0.09498 9.152e-22)
(0.6023 0.03643 7.328e-21)
(0.6787 -0.1284 0)
(2.098 1.194 0)
(0.9735 -0.01919 0)
(1.217 -0.1974 0)
(2.049 1.168 0)
(1.248 -0.28 -1.281e-20)
(1.186 -0.2293 0)
(0.9552 -0.06114 -1.616e-20)
(1.63 0.6665 6.097e-20)
(0.697 -0.05515 0)
(0.8844 -0.2677 2.296e-21)
(1.272 0.1117 0)
(1.001 0.001317 0)
(0.8915 -0.1526 0)
(1.929 1.765 -4.617e-21)
(0.9359 -0.1026 0)
(0.4934 -0.08652 -1.069e-21)
(0.8615 -0.2635 3.177e-21)
(0.9032 -0.1365 4.35e-21)
(0.9987 -4.903e-05 0)
(0.4404 -0.08441 0)
(1.001 -0.001847 8.462e-20)
(-0.3701 0.6416 -9.902e-22)
(0.6255 0.04159 1.466e-20)
(1.264 -0.267 -9.587e-21)
(0.2817 1.379 0)
(1 0.02325 -7.732e-22)
(0.8804 -0.1289 1.189e-21)
(1.022 0.07476 1.842e-20)
(1.007 0.004078 -1.055e-19)
(1.046 0.04786 9.131e-20)
(0.0008605 0.003865 0)
(1.001 -0.001964 -1.185e-19)
(0.4689 -0.1217 -1.264e-21)
(0.5702 -0.1812 0)
(0.9405 -0.08073 -8.817e-21)
(0.3717 -0.1643 1.539e-21)
(0.5859 -0.08155 3.622e-21)
(1.06 -0.2947 0)
(1.053 -0.01048 1.66e-19)
(1.602 -0.125 -2.598e-21)
(0.7207 -0.2038 -2.614e-21)
(0.5534 -0.1665 0)
(0.9689 -0.2138 -4.646e-21)
(0.9669 -0.08818 2.725e-21)
(0.4707 -0.01501 0)
(-0.0004234 -0.001889 -7.324e-23)
(0.5688 -0.1708 -1.49e-21)
(1.058 -0.07895 0)
(1.256 -0.2752 4.557e-21)
(0.1994 -0.1045 -2.141e-20)
(1.107 -0.07696 9.681e-21)
(0.8072 -0.1055 4.844e-20)
(1.006 0.0607 -2.312e-20)
(1.459 -0.1973 8.329e-22)
(1.334 -0.2485 -1.031e-20)
(1.523 -0.1653 -3.9e-21)
(1.991 0.5966 1.49e-20)
(-0.3353 1.646 -2.88e-21)
(1.001 0.0005425 -1.686e-19)
(0.9473 -0.2068 3.739e-21)
(2.08 1.735 -2.007e-21)
(0.9458 -0.09831 1.958e-21)
(0.8669 -0.1651 0)
(1.392 -0.1921 3.152e-20)
(0.6974 -4.535e-05 0)
(-0.09727 0.2436 0)
(0.2255 -0.04631 0)
(0.9527 -0.07785 1.956e-21)
(0.6115 -0.2085 0)
(0.5318 -0.1823 1.305e-22)
(0.6816 -0.05944 -1.933e-22)
(0.8367 -0.05934 0)
(0.1734 -0.0847 3.379e-20)
(0.9741 -0.01988 2.49e-21)
(0.5576 -0.1594 -3.408e-21)
(0.6895 -0.1799 0)
(1.123 -0.1043 8.65e-21)
(0.2699 -0.1075 -1.935e-22)
(0.4394 -0.02413 4.677e-20)
(2.086 0.4616 -5.89e-21)
(0.9676 0.1334 -2.612e-21)
(0.004728 -0.004604 0)
(1.333 -0.2491 5.079e-21)
(0.8686 -0.1361 3.798e-21)
(0.7071 -0.1806 -1.121e-20)
(0.9953 -0.003044 1.321e-20)
(0.03114 -0.02545 2.859e-24)
(1.972 0.743 -3.034e-21)
(1.601 -0.1258 -2.597e-21)
(0.9101 -0.09255 0)
(1.013 -0.0298 1.119e-20)
(0.7058 -0.1807 -3.777e-21)
(0.9679 -0.03853 0)
(0.02782 -0.01817 7.177e-23)
(0.03102 -0.02532 -2.949e-24)
(0.7202 -0.205 5.266e-21)
(1.024 -0.238 2.464e-21)
(1.363 0.427 -3.24e-20)
(0.3149 1.396 4.675e-21)
(0.8913 -0.0861 7.298e-22)
(1.03 -0.04015 4.934e-20)
(1.501 -0.1848 2.666e-21)
(1.492 -0.1774 -1.066e-20)
(1.059 -0.07831 5.142e-20)
(0.7048 1.924 7.16e-21)
(-0.0003058 -0.002074 1.225e-22)
(1.12 -0.2812 0)
(1.006 -4.347e-06 0)
(0.9941 -2.47e-06 1.186e-21)
(0.03993 0.001495 0)
(0.9969 0.0354 1.192e-21)
(1.022 0.006961 7.736e-20)
(0.9137 0.09006 1.191e-19)
(1.006 -0.0511 -3.118e-21)
(0.292 -0.1199 4.751e-22)
(9.603e-05 0.0004827 1.77e-24)
(0.962 -0.06874 -2.148e-22)
(0.8968 -0.06311 1.899e-20)
(0.8724 -0.142 -1.195e-21)
(0.9964 -0.08313 -3.794e-21)
(1 0.02266 6.073e-22)
(1.097 -0.1541 1.213e-20)
(0.1139 -0.03381 1.331e-22)
(0.977 0.0003906 3.394e-20)
(2.112 0.4724 -5.962e-21)
(0.4578 -0.1442 -2.178e-23)
(0.08014 -0.004028 0)
(-0.02738 0.0108 1.65e-22)
(0.8495 -0.1514 5.964e-21)
(1.028 -0.2377 -7.024e-21)
(0.8988 -0.06289 4.601e-21)
(1.951 0.7366 -6.945e-21)
(1.004 0.009476 6.429e-20)
(0.8679 -0.1654 -9.36e-22)
(1.531 -0.1573 3.839e-21)
(0.6442 -0.05564 0)
(-0.01161 0.003847 0)
(0.7295 -0.1899 -3.06e-21)
(1.385 -0.2017 1.133e-20)
(0.02224 0.01512 -9.734e-22)
(0.9996 -0.294 4.172e-21)
(1.251 -0.2802 7.272e-21)
(0.9668 -0.03806 3.84e-20)
(0.7545 -0.1505 -1.531e-21)
(0.0006524 0.003637 0)
(1.252 -0.2803 0)
(0.9363 -0.07147 -1.171e-20)
(0.5573 -0.1601 1.679e-21)
(0.01669 -0.002652 5.007e-23)
(1.022 0.006627 -7.09e-20)
(1.489 -0.191 1.188e-20)
(1.5 -0.1776 7.769e-21)
(1.355 -0.08803 -1.092e-20)
(0.1363 -0.005478 1.183e-22)
(0.615 -0.2086 -9.511e-24)
(1.505 -0.1488 0)
(0.0006489 0.003973 -1.818e-26)
(0.8496 -0.1631 5.427e-21)
(0.5035 0.000515 0)
(0.06424 -0.02058 -2.967e-21)
(1.001 -0.0002961 -2.676e-21)
(1.823 0.4289 -5.113e-20)
(0.6454 -0.07141 -1.596e-21)
(0.7955 -0.1688 0)
(1.308 -0.2635 0)
(0.8039 -0.1904 3.824e-21)
(0.4622 -0.09916 0)
(1.051 -0.0109 -1.305e-19)
(2.254 0.662 0)
(0.7604 -0.1677 0)
(1.027 0.4552 -1.133e-20)
(1.167 -0.2879 -6.753e-21)
(0.9543 -0.02988 -3.471e-20)
(1.217 -0.194 7.466e-22)
(1.004 0.06007 1.432e-20)
(1.574 -0.1202 0)
(1.262 -0.09304 -3.685e-21)
(0.3759 -0.1339 1.898e-21)
(-0.1414 0.2588 0)
(0.2977 0.1153 8.73e-20)
(1.526 -0.08952 -1.502e-20)
(0.7638 -0.1425 0)
(0.9946 -0.003113 -1.559e-20)
(0.5964 -0.1816 5.389e-22)
(1.487 -0.1919 -1.097e-20)
(0.9753 -0.07294 -8.011e-22)
(1.502 -0.1841 -1.076e-20)
(1.27 -0.2688 0)
(0.9091 -0.1407 -4.745e-21)
(0.9925 -0.006672 -1.187e-21)
(0.6885 -0.1703 1.107e-20)
(0.9993 -0.001201 3.248e-21)
(0.9531 -0.06089 -2.344e-22)
(0.9358 -0.1022 7.263e-24)
(0.9909 0.01288 0)
(1.011 0.01764 3.838e-20)
(-0.001068 -0.002372 -1.761e-23)
(0.7013 -0.2017 0)
(1.002 0.02465 -2.948e-21)
(0.9185 -0.1267 -2.519e-21)
(1.012 -0.0299 1.69e-20)
(1.389 -0.1919 -4.797e-20)
(0.8231 -0.1229 0)
(0.9354 -0.07163 1.196e-20)
(0.8459 -0.1454 0)
(0.9749 -0.009232 -3.133e-20)
(0.4119 -0.09464 -1.655e-21)
(0.7974 -0.06684 -4.195e-22)
(0.03824 -0.0318 -1.194e-22)
(0.1371 -0.004859 -4.997e-22)
(1.523 -0.08798 1.015e-20)
(0.7667 -0.08885 5.446e-22)
(0.7436 -0.1365 -4.902e-21)
(0.5827 -0.07802 -3.105e-20)
(0.8801 -0.1285 -1.154e-20)
(0.6116 -0.04525 0)
(0.1351 0.01573 -1.43e-24)
(0.8727 -0.1416 -3.957e-22)
(0.9762 0.0006473 0)
(1.117 -0.2577 3.464e-23)
(0.9532 -0.09879 2.086e-21)
(0.9098 -0.1348 4.704e-21)
(0.03523 -0.02772 -3.957e-23)
(0.798 -0.1911 0)
(0.9991 -0.001255 2.325e-21)
(0.9866 0.01765 -3.209e-20)
(2.11 0.7924 2.955e-21)
(1.401 -0.2052 4.805e-21)
(0.751 -0.08306 -1.066e-21)
(1.243 -0.1564 3.487e-20)
(1.003 -0.0251 1.227e-21)
(0.8499 -0.08958 0)
(0.8036 -0.05998 2.291e-22)
(1.088 -0.02274 3.435e-20)
(0.7964 -0.1687 3.049e-21)
(2.113 0.791 0)
(1.458 -0.1814 -1.137e-20)
(0.8503 0.0569 8.302e-20)
(0.0283 -0.01366 4.628e-24)
(0.8046 -0.04403 6.29e-23)
(1.928 0.8764 2.253e-20)
(1.045 -0.223 0)
(1.012 0.01729 -3.336e-20)
(0.7848 0.04346 -1.735e-19)
(1.007 5.87e-06 0)
(0.9938 6.09e-06 0)
(0.7002 0.004531 0)
(0.4551 -0.09273 -1.061e-20)
(0.8678 -0.1359 3.835e-21)
(1.045 -0.2249 -1.051e-21)
(0.6778 -0.1762 -1.46e-20)
(1.103 -0.07532 -4.275e-20)
(0.8501 -0.1513 0)
(1.514 -0.1671 3.308e-21)
(1.504 -0.1828 3.022e-21)
(-0.05159 0.7749 -7.195e-22)
(0.9175 -0.1257 1.679e-21)
(0.615 -0.1422 -3.665e-21)
(1.315 -0.2494 3.825e-21)
(0.8018 -0.09715 9.917e-22)
(1.647 -0.09842 0)
(0.811 -0.09334 -7.35e-22)
(0.988 -0.1944 6.169e-22)
(0.03466 -0.02117 4.201e-24)
(1.503 -0.1832 9.711e-21)
(0.9441 0.1563 0)
(0.6338 -0.156 -8.243e-21)
(1.306 -0.2642 -5.85e-21)
(1.963 0.5256 -1.275e-20)
(1.005 -0.01322 1.368e-20)
(0.7922 -0.04307 0)
(0.6604 -0.1663 2.378e-21)
(0.9723 -0.07562 -1.531e-22)
(1.02 -0.1541 -7.189e-21)
(0.9009 -0.06898 0)
(0.9082 -0.07951 4.615e-22)
(1.004 0.003919 9.742e-22)
(0.997 0.03454 -4.233e-21)
(0.9773 -0.01531 0)
(0.6518 -0.1229 3.199e-21)
(0.9903 -0.006492 0)
(0.13 0.4094 7.551e-20)
(1.087 -0.0251 -6.93e-20)
(0.6999 -0.07916 1.389e-21)
(0.8933 -0.06984 -3.245e-22)
(1.03 -0.03905 0)
(1.212 -0.1021 -7.063e-22)
(0.8412 -0.08349 -5.86e-22)
(-0.003038 0.00329 -2.834e-27)
(0.8575 -0.2561 -4.454e-21)
(0.9957 -0.007431 1.193e-21)
(1.105 -0.2221 -4.336e-20)
(0.6271 -0.08171 -3.508e-21)
(0.8279 -0.1032 0)
(0.7402 -0.1378 -1.835e-20)
(1.022 0.07219 0)
(0.2583 -0.02045 0)
(1.098 0.2639 0)
(0.4854 -0.03026 0)
(1.122 -0.284 -1.859e-21)
(1.253 -0.2419 -4.218e-20)
(1.017 -0.0145 -7.843e-20)
(0.5595 -0.02532 0)
(-0.008355 0.005433 -2.058e-22)
(0.7867 -0.1947 4.124e-21)
(0.8884 -0.08294 -1.033e-21)
(0.7765 -0.05719 -2.238e-22)
(0.5645 -0.03117 -2.507e-20)
(0.7899 -0.05268 0)
(0.939 0.1549 0)
(0.9541 -0.02884 0)
(0.5445 -0.04328 5.564e-23)
(1.004 0.009024 -2.406e-20)
(1.283 -0.2726 0)
(0.02767 -0.01783 0)
(1.109 0.2621 0)
(0.935 -0.1084 -2.048e-21)
(0.5477 -0.09306 -4.692e-21)
(0.9628 -0.09231 -2.267e-21)
(1 0.001477 -2.424e-20)
(0.922 -0.09451 0)
(0.4204 -0.131 0)
(0.8062 -0.1143 2.628e-21)
(0.8093 -0.1048 -5.194e-20)
(0.6125 -0.2133 0)
(0.5696 -0.1782 0)
(1.209 -0.2319 -4.306e-21)
(0.9724 -0.2794 -5.747e-21)
(0.7361 -0.1405 0)
(1.458 -0.1568 8.984e-21)
(0.5081 -0.1858 -5.162e-21)
(0.2756 -0.1103 0)
(-0.007488 -0.005577 1.571e-21)
(0.4606 -0.09278 0)
(1.002 -0.0002213 9.679e-22)
(0.9884 -0.2911 -4.3e-21)
(1.154 0.4722 2.329e-20)
(1.566 0.6579 9.666e-22)
(0.7802 -0.07607 -3.164e-20)
(1.409 -0.1056 1.371e-20)
(0.8715 -0.07017 -1.634e-20)
(1.005 -0.0005271 0)
(0.4335 -0.1181 0)
(0.03264 -0.02015 0)
(1.081 -0.1697 6.986e-20)
(1.671 -0.02186 1.582e-21)
(1.004 0.003781 -2.929e-20)
(0.9006 -0.1289 -4.845e-21)
(0.7237 -0.1603 -7.961e-21)
(0.9207 0.005783 -4.855e-20)
(0.9748 -0.008381 0)
(0.9923 0.001387 -9.748e-21)
(0.9144 -0.07762 -2.002e-22)
(1.056 -0.08189 -1.67e-20)
(0.4518 -0.1004 2.072e-20)
(0.9787 0.09482 0)
(0.7145 -0.05599 1.588e-23)
(0.9819 0.01983 7.868e-20)
(0.01241 0.06028 0)
(0.9797 -0.01544 1.007e-21)
(0.1136 -0.03292 1.087e-22)
(1.169 -0.2887 0)
(0.8613 -0.107 -1.033e-23)
(0.9342 -0.1076 5.934e-21)
(0.6729 -0.1134 2.015e-20)
(0.8956 0.2614 -2.084e-21)
(0.2874 -0.1228 4.225e-22)
(0.7668 -0.09196 5.38e-22)
(1.563 -0.08655 0)
(0.3339 -0.1293 0)
(1.444 -0.1509 7.629e-21)
(0.9674 -0.08811 -8.625e-22)
(1.588 -0.1235 6.74e-21)
(1.235 -0.2606 0)
(0.3583 1.283 1.244e-20)
(1.587 -0.1247 -1.018e-23)
(0.9983 -0.002641 0)
(1.027 0.03863 0)
(1.382 -0.2379 0)
(0.4844 -0.1353 3.74e-21)
(0.9945 -0.0003532 0)
(1.007 -0.2889 2.869e-21)
(1.255 -0.1833 2.352e-20)
(0.941 -0.08 1.314e-20)
(1.399 -0.2043 -1.659e-21)
(0.9085 -0.05497 2.454e-20)
(1.005 -0.0003107 0)
(-0.1634 0.3782 -2.185e-20)
(1.254 -0.1807 -2.762e-20)
(0.2621 -0.07933 8.852e-22)
(1.51 -0.1608 7.876e-22)
(0.2213 -0.1156 1.559e-21)
(-0.004228 0.08561 -1.664e-20)
(1.196 -0.1701 2.52e-21)
(0.7957 -0.1911 0)
(0.4255 -0.1224 0)
(1.668 -0.02193 -1.693e-21)
(1.497 -0.1617 -6.902e-22)
(1.017 -0.00098 7.714e-20)
(0.7241 -0.06397 2.951e-22)
(0.968 0.05138 4.387e-20)
(2.075 0.7956 9.524e-22)
(0.9461 -0.09542 -8.16e-22)
(1.534 -0.1621 0)
(1.99 0.5631 6.722e-21)
(0.0001777 0.0007491 0)
(0.506 -0.1366 3.927e-21)
(0.1848 1.03 -6.277e-22)
(0.9493 -0.05823 -4.355e-23)
(1.638 1.199 2.899e-20)
(0.9811 0.004579 -1.592e-19)
(0.2262 -0.1187 0)
(1.028 0.03819 1.367e-22)
(0.1041 -9.657e-05 0)
(1.122 -0.2803 -8.143e-21)
(-0.0002684 -0.001394 0)
(-0.002645 -0.009227 1.008e-22)
(-0.003632 0.001157 -2.452e-23)
(0.999 -0.000189 -6.706e-20)
(0.6437 -0.1601 0)
(1.803 0.07346 0)
(0.9872 0.01749 5.968e-20)
(0.8306 -0.2349 -8.643e-22)
(0.5687 -0.1833 1.911e-20)
(0.442 -0.1524 1.765e-21)
(0.9067 -0.1208 0)
(1.16 -0.2856 0)
(0.8554 -0.105 8.452e-22)
(1.011 -0.2908 -2.886e-21)
(0.337 -0.0621 1.705e-21)
(0.9996 -0.002454 0)
(0.06369 -0.0214 -1.806e-22)
(-0.008279 0.002792 0)
(0.494 -0.1858 3.505e-21)
(0.7626 -0.07526 -2.09e-22)
(0.008116 -0.006053 2.79e-24)
(1.016 -0.01642 -2.414e-20)
(0.9454 -0.09815 2.135e-21)
(1.007 -0.05073 -1.568e-21)
(1.235 -0.2594 1.44e-20)
(0.9929 -0.01517 0)
(0.6796 -0.05412 0)
(2.084 0.9623 0)
(-0.0009218 0.01158 9.696e-22)
(0.9926 6.229e-05 0)
(1.38 -0.2384 -4.648e-21)
(0.9222 -0.08135 1.251e-20)
(0.01653 -0.01003 8.003e-25)
(0.3833 -0.1108 8.899e-21)
(1.903 0.5498 1.917e-21)
(1.177 -0.2614 -3.969e-21)
(0.9571 0.04463 3.477e-21)
(0.2976 -0.1154 7.839e-22)
(0.5416 -0.1602 -1.101e-20)
(0.9944 -0.0003525 8.673e-21)
(0.742 -0.1381 2.444e-20)
(1.446 -0.1596 -4.354e-20)
(0.8236 -0.07219 3.274e-22)
(0.907 -0.06854 -1.297e-22)
(0.4543 -0.1258 -4.027e-21)
(0.08045 0.01248 7.868e-22)
(1.122 -0.2827 4.164e-21)
(1.587 -0.06663 0)
(0.5263 -0.1867 4.922e-21)
(0.3112 -0.08166 0)
(0.4492 -0.1199 9.609e-23)
(1.027 -0.01128 -1.175e-20)
(0.5192 -0.03141 3.192e-23)
(0.7531 -0.2283 -3.029e-21)
(0.8007 -0.12 -2.747e-21)
(0.9534 -0.1015 3.001e-21)
(0.2369 0.009942 -1.92e-21)
(1 0.002874 0)
(1 0.003825 2.279e-21)
(1.031 0.4356 1.885e-20)
(0.5992 -0.1401 -1.819e-21)
(1.621 1.27 0)
(0.9858 0.02058 -4.124e-20)
(1.004 -8.869e-06 -8.558e-22)
(0.5594 -0.1536 0)
(0.4362 -0.1778 0)
(0.4878 -0.1236 1.634e-21)
(0.4234 -0.1224 0)
(0.1014 -0.03812 -3.98e-23)
(0.1322 -0.04005 0)
(0.8044 -0.1539 -4.224e-21)
(1.04 0.04449 0)
(0.9974 -0.000968 1.464e-20)
(0.117 -0.02375 -1.784e-21)
(0.9978 -0.2738 -2.933e-21)
(0.7989 -0.1722 8.637e-21)
(1.001 -0.002733 2.642e-20)
(0.5392 0.006427 6.554e-21)
(0.9593 -0.09568 0)
(0.624 -0.157 5.156e-21)
(0.9964 -0.007027 3.533e-21)
(0.6997 -0.08893 -1.604e-22)
(0.9852 0.02029 7.68e-20)
(0.5796 -0.1029 -1.008e-21)
(0.02844 -0.0109 0)
(1.216 -0.2493 5.726e-22)
(0.9965 1.536e-05 6.192e-22)
(0.1068 -0.0223 -3.762e-21)
(1.169 -0.2873 -1.732e-21)
(0.2267 -0.1198 -2.359e-20)
(1.005 -0.0002816 -3.397e-21)
(0.9017 -0.1361 -4.546e-21)
(-0.02694 0.01094 -7.383e-23)
(0.9923 0.001131 0)
(0.9346 -0.1084 0)
(0.995 0.02623 -5.037e-22)
(0.946 -0.07165 -2.482e-22)
(1.477 -0.1748 0)
(0.9908 0.0124 3.999e-20)
(0.5067 -0.1292 9.741e-21)
(0.8795 -0.1179 -1.086e-21)
(0.02992 -0.03062 0)
(1.424 -0.2118 -1.161e-20)
(1.456 -0.1948 -1.346e-21)
(0.822 -0.09544 2.214e-21)
(0.834 -0.1042 8.905e-22)
(-0.1588 0.5545 -1.084e-20)
(0.928 -0.08846 2.977e-22)
(2.036 1.162 3.225e-21)
(0.9108 -0.05621 -4.172e-23)
(0.03634 -0.01286 6.896e-23)
(1.566 -0.1342 -2.305e-21)
(0.6959 -0.06513 -1.787e-22)
(1.001 -0.00266 0)
(0.8332 -0.1741 -2.366e-21)
(0.989 0.01514 -1.689e-20)
(-0.02808 0.7915 -5.593e-21)
(1.066 0.006461 7.653e-20)
(1.457 -0.1969 1.274e-20)
(1.005 -0.0006274 0)
(1.001 0.02453 -1.81e-21)
(0.954 -0.07786 -8.635e-21)
(0.5066 -0.185 2.583e-21)
(1.21 -0.2743 4.621e-21)
(1.003 -0.001384 2.168e-20)
(1 -0.003306 -3.293e-20)
(0.02318 0.01655 8.907e-22)
(0.95 0.1171 0)
(0.5381 -0.1216 4.609e-21)
(0.7432 -0.06552 4.544e-22)
(0.6587 -0.07051 0)
(0.452 -0.09916 -1.659e-20)
(1.162 -0.2897 -7.183e-22)
(0.4196 -0.1323 0)
(1.504 -0.1825 -2.633e-22)
(0.3768 -0.1148 -1.224e-20)
(1.043 -0.07351 0)
(1.003 -0.001462 -3.786e-21)
(1.689 -0.07264 1.069e-20)
(1.496 -0.1866 1.176e-21)
(0.8792 -0.122 3.168e-21)
(1.398 -0.1581 0)
(0.978 -0.02077 -1.06e-19)
(1.004 -1.312e-05 9.394e-23)
(1.458 -0.1802 -1.091e-20)
(0.2026 -0.1043 -5.28e-24)
(1.496 -0.162 3.452e-21)
(-0.02355 0.008279 -2.729e-22)
(1.066 0.00817 0)
(1.004 6.739e-06 2.567e-22)
(0.4778 -0.1654 0)
(1.481 -0.1298 0)
(0.9178 0.08791 -9.516e-20)
(0.9505 -0.1151 -4.932e-21)
(0.8863 -0.09922 0)
(0.9781 -0.04354 -4.426e-20)
(0.2589 -0.05848 4.58e-21)
(0.7829 -0.1641 -2.65e-21)
(1.497 -0.186 7.263e-21)
(0.6756 -0.02811 -9.369e-20)
(-0.0009524 0.0003225 0)
(-0.009116 0.00266 0)
(0.3402 -0.1305 1.129e-22)
(0.2869 -0.1233 -7.837e-22)
(0.7068 -0.2028 0)
(1.38 -0.202 6.717e-21)
(0.7361 -0.09528 3.664e-22)
(1.096 -0.169 0)
(0.9217 0.0204 -2.265e-20)
(1.577 -0.14 1.262e-20)
(0.04715 -0.03026 0)
(1.282 -0.2725 -7.172e-21)
(0.9995 -0.002456 7.611e-20)
(0.9088 -0.1403 3.481e-21)
(0.6592 -0.1126 0)
(0.4174 0.4008 -3.544e-20)
(0.9926 3.023e-05 -3.21e-23)
(0.9996 -0.00253 -1.015e-19)
(-0.006709 -0.0111 0)
(0.9493 -0.05776 3.382e-21)
(0.8632 -0.1583 -3.52e-21)
(1.467 -0.1888 -7.462e-22)
(0.2048 -0.05935 0)
(1.119 -0.2581 1.59e-20)
(1.549 0.01533 0)
(0.6847 -0.05864 -1.461e-22)
(0.5865 0.281 6.921e-20)
(0.7631 -0.1969 0)
(1.016 -0.001132 -2.768e-20)
(1.003 -0.001532 0)
(1.858 0.4814 0)
(1.168 0.4694 0)
(0.7028 -0.1332 7.263e-22)
(0.4196 0.3746 0)
(0.4845 -0.195 7.949e-21)
(0.7781 -0.1214 0)
(0.4849 -0.1856 -9.309e-21)
(1.097 -0.151 7.959e-20)
(1.022 -0.1536 1.06e-20)
(0.9973 2.972e-05 -7.473e-23)
(0.7111 -0.05095 1.561e-23)
(0.9102 -0.05549 3.415e-21)
(0.8267 -0.1868 -2.353e-21)
(-0.0006788 -0.002717 1.725e-23)
(0.8988 -0.1323 -1.501e-21)
(1.575 -0.1184 -1.44e-20)
(0.8782 -0.2621 4.886e-21)
(0.9967 2.788e-05 -5.965e-22)
(0.9523 -0.1021 -5.292e-23)
(0.9048 -0.08201 6.058e-22)
(0.1512 -0.05491 0)
(0.996 -0.1598 2.419e-23)
(1.268 -0.263 1.149e-20)
(1.503 -0.1828 -3.949e-21)
(2.059 1.714 0)
(0.9631 -0.2764 5.741e-21)
(0.257 -0.106 1.96e-20)
(0.9371 -0.1865 6.893e-22)
(0.7957 -0.1882 1.064e-21)
(0.9517 -0.102 -1.417e-21)
(0.9523 -0.09869 -9.999e-22)
(1.057 -0.2917 5.876e-21)
(0.8499 -0.123 1.424e-20)
(0.00883 -0.0005145 0)
(0.6554 -0.1129 0)
(0.9651 0.1282 1.524e-20)
(0.8071 -0.1723 -2.436e-21)
(0.4461 -0.1594 1.532e-20)
(0.9466 -0.09858 3.003e-22)
(1.008 -0.003058 0)
(0.03435 -0.02375 -5.05e-23)
(0.9908 -0.1953 -1.432e-21)
(0.4925 -0.1275 -1.569e-21)
(1.004 -1.177e-05 -2.247e-22)
(-0.02272 0.008429 0)
(0.4758 -0.0989 0)
(0.7061 -0.0899 -2.233e-21)
(0.998 1.906e-05 2.581e-22)
(1.051 -0.1659 6.58e-21)
(0.06655 0.00454 0)
(0.9498 -0.1783 7.891e-21)
(1.548 -0.1535 -6.526e-21)
(0.9976 5.7e-06 -2.209e-22)
(0.7271 -0.1194 -2.773e-21)
(0.03633 -0.02078 0)
(0.4107 -0.1041 7.115e-21)
(1.317 -0.261 0)
(0.9962 0.0383 -9.228e-22)
(1.515 -0.1666 3.31e-21)
(-0.2951 0.8757 0)
(1.03 -0.004453 -2.535e-20)
(0.8613 -0.1471 4.46e-21)
(0.8194 -0.1436 0)
(1.4 -0.2 -7.804e-21)
(0.5075 -0.1377 0)
(0.7449 -0.1348 -1.478e-20)
(0.8989 -0.1326 0)
(0.6419 -0.08043 -4.085e-22)
(0.3886 -0.137 0)
(0.9934 9.431e-06 -5.395e-22)
(0.7146 -0.1194 2.677e-21)
(0.9867 -0.2739 1.802e-22)
(0.5138 -0.04121 0)
(0.8275 -0.1193 -1.989e-21)
(1.415 -0.05473 0)
(0.8396 -0.2353 0)
(0.0863 0.01473 1.824e-22)
(0.993 4.609e-05 -1.249e-22)
(0.4475 -0.1529 -1.713e-21)
(0.2582 -0.05617 0)
(1.503 -0.1655 0)
(0.0005457 0.004087 -1.839e-23)
(1.503 -0.1647 -3.818e-21)
(-0.0007216 0.01152 -1.384e-21)
(1.346 -0.2548 -1.604e-21)
(0.1185 -0.01665 0)
(0.7942 -0.1577 0)
(0.9991 -0.0002156 3.307e-20)
(-0.0007881 0.0003128 -6.71e-24)
(0.6499 -0.1691 5.802e-21)
(1.431 -0.2127 1.002e-20)
(0.2131 -0.06672 -8.121e-22)
(0.405 -0.1482 -2.84e-22)
(0.2355 -0.09617 -4.434e-22)
(0.4223 -0.1496 -5.977e-22)
(0.8633 -0.0725 0)
(0.9972 -0.0008968 0)
(0.9915 -0.1717 0)
(0.9298 -0.1071 -1.091e-23)
(0.9976 1.526e-06 0)
(0.4087 -0.1425 -3.049e-21)
(2.073 0.7919 0)
(0.9085 -0.1344 -3.268e-21)
(0.5896 -0.1825 -6.002e-21)
(1.007 -0.0001646 -1.407e-20)
(1.173 -0.2924 0)
(0.03165 -0.02524 0)
(1.017 -0.0007985 -8.99e-20)
(1.006 -0.0001829 0)
(1.394 -0.1602 0)
(1.037 -0.2442 3.641e-21)
(0.6617 -0.07041 5.095e-22)
(0.2543 -0.1065 -6.812e-22)
(0.5586 -0.1214 2.397e-21)
(0.1547 -0.008614 7.81e-24)
(0.9222 -0.1135 0)
(0.5012 0.06575 -6.355e-20)
(0.9998 -0.002576 0)
(0.6687 -0.2174 -2.088e-21)
(0.2822 -0.1135 0)
(0.7855 -0.0557 3.779e-23)
(0.6488 -0.05371 0)
(0.4451 -0.02172 -4.652e-20)
(1.002 -0.0008836 0)
(1.016 -0.01588 2.735e-21)
(0.9758 -0.04563 2.517e-20)
(0.5604 0.005081 7.636e-21)
(0.9998 -0.002437 1.334e-20)
(1.083 -0.1404 -2.788e-20)
(0.1266 -0.06039 5.278e-21)
(0.9357 -0.1158 -3.769e-21)
(0.6725 -0.09289 2.486e-21)
(0.9997 -0.003085 0)
(0.05215 -0.02661 -1.534e-22)
(0.9421 -0.1116 1.949e-21)
(1.005 0.01164 0)
(0.8083 -0.09784 -9.746e-22)
(0.9954 -0.0004147 0)
(0.3056 -0.1117 2.426e-20)
(-0.4741 0.7772 -6.986e-22)
(1.331 -0.1738 -1.497e-22)
(1.539 -0.128 0)
(0.4109 -0.02556 6.045e-23)
(0.9729 -0.01709 5.27e-21)
(0.4502 -0.1261 0)
(0.6611 -0.03568 -2.205e-20)
(0.6861 -0.05835 0)
(0.04964 -0.03146 -8.924e-23)
(0.7477 -0.09837 -5.866e-22)
(1.567 2.175 -7.007e-21)
(1.418 -0.04975 -1.728e-20)
(0.8499 -0.1329 -7.097e-21)
(0.5143 -0.1082 2.775e-23)
(0.3559 -0.06641 0)
(1.004 0.01501 0)
(1.321 -0.2145 2.442e-20)
(0.6603 -0.2067 0)
(2.114 0.3911 5.607e-22)
(0.04738 -0.03042 2.733e-23)
(0.5662 -0.0928 0)
(1.002 -0.0008353 0)
(1.029 -0.09961 1.237e-20)
(0.1154 -0.02449 8.889e-22)
(0.6063 -0.1395 -7.66e-21)
(0.3675 -0.01946 3.308e-20)
(1.88 0.169 0)
(-0.1888 0.2192 -1.737e-21)
(1.973 0.2367 -2.053e-21)
(0.1762 0.02822 2.412e-20)
(0.8942 -0.2135 -3.029e-21)
(0.2218 -0.08318 -1.587e-21)
(0.9935 -0.1725 4.293e-22)
(0.2971 -0.02268 -1.024e-22)
(1.038 0.05893 -1.513e-20)
(0.9189 -0.1312 0)
(1.004 2.182e-05 0)
(0.9964 2.166e-05 0)
(1.446 -0.2079 5.915e-21)
(1.089 0.02634 3.914e-21)
(1.511 -0.1796 1.02e-20)
(0.9267 -0.1577 4.897e-21)
(0.2535 1.336 0)
(0.9459 -0.08949 7.668e-21)
(1.042 -0.05455 -2.241e-20)
(2.127 0.8434 8.272e-21)
(0.8012 -0.1746 4.268e-21)
(1.016 -0.01427 5.498e-20)
(1.021 -0.1939 -1.646e-22)
(0.3015 -0.1164 -4.571e-22)
(1.042 -0.05253 3.271e-20)
(0.5138 -0.1158 -1.136e-20)
(0.04471 -0.01274 1.825e-21)
(0.02526 -0.009458 0)
(0.833 -0.1566 0)
(-0.3645 0.6037 -3.407e-21)
(1.314 -0.2479 0)
(0.2569 -0.1056 0)
(0.9855 0.005515 5.368e-20)
(1.535 -0.1608 5.83e-21)
(0.8262 -0.1874 2.38e-21)
(1.005 -0.01289 0)
(0.514 -0.1281 4.905e-21)
(0.7222 -0.2045 0)
(1.022 -0.2397 -2.232e-21)
(0.9946 -0.000325 4.356e-21)
(0.9704 -0.02343 3.138e-21)
(1.049 -0.2023 0)
(0.1088 -0.007663 2.425e-23)
(0.6064 -0.1615 -1.397e-20)
(0.04319 -0.005923 0)
(1.083 -0.2902 3.38e-21)
(0.4284 -0.1421 0)
(0.8128 -0.1704 -8.603e-22)
(-0.02502 0.00887 0)
(1.514 -0.1039 2.088e-21)
(0.9961 1.929e-05 7.041e-23)
(0.1788 -0.09584 0)
(1.632 0.3685 -3.241e-20)
(1.005 2.027e-05 0)
(0.4888 -0.1236 4.349e-22)
(-0.00802 0.002639 9.182e-23)
(1.172 -0.2388 -7.251e-21)
(1.88 0.1233 -6.891e-21)
(0.9794 -0.06265 -7.712e-22)
(0.8901 -0.1268 -1.664e-21)
(-0.02026 0.008258 2.304e-24)
(0.124 -0.01759 9.754e-23)
(0.888 -0.09338 0)
(1.039 0.04488 -3.928e-20)
(0.996 0.0102 6.392e-21)
(0.848 -0.1512 0)
(0.3781 -0.09279 -4.714e-21)
(0.245 -0.06861 -4.351e-21)
(0.5452 -0.1222 0)
(0.4398 1.669 1.704e-20)
(0.4624 -0.1909 -4.339e-21)
(0.6874 -0.005359 -2.421e-22)
(1.332 0.01385 -4.101e-20)
(0.4675 -0.1913 -4.303e-21)
(1.112 -0.08439 4.837e-20)
(0.6747 -0.04764 0)
(1.008 -0.001718 0)
(0.5249 -0.1898 9.906e-23)
(0.01884 -0.02251 -1.868e-23)
(1.367 -0.2435 -1.429e-20)
(0.5287 -0.1537 0)
(0.9736 -0.2703 0)
(0.9915 0.00918 -3.092e-20)
(0.9681 0.0231 2.472e-20)
(0.2237 -0.0796 0)
(0.779 -0.1118 3.412e-20)
(0.2789 -0.07084 0)
(0.9057 -0.1171 0)
(0.3196 -0.1152 1.794e-21)
(0.5049 -0.1045 2.35e-21)
(1.493 -0.1569 -3.109e-21)
(1.763 0.01381 -1.84e-21)
(1.555 -0.1232 -1.095e-20)
(0.3333 -0.05051 1.348e-21)
(1.502 -0.1785 -8.272e-21)
(0.7447 -0.05564 -8.694e-23)
(0.3001 -0.07296 5.009e-21)
(0.9317 -0.1096 4.679e-21)
(0.7473 -0.2244 -1.137e-21)
(0.7314 1.912 -8.184e-21)
(0.2238 -0.08979 -3.525e-24)
(0.01545 -0.01369 1.338e-22)
(-0.01226 0.003874 0)
(0.9442 -0.2635 0)
(1.007 -0.002932 0)
(1.005 -0.005376 4.548e-20)
(0.8255 -0.14 1.963e-21)
(0.2915 -0.07453 0)
(0.8776 -0.1249 -2.042e-20)
(1.006 3.089e-05 0)
(0.3745 -0.1166 -1.595e-20)
(1.161 -0.2895 3.578e-21)
(0.9577 -0.07465 6.06e-21)
(0.238 -0.09797 0)
(1.464 -0.1728 -1.934e-20)
(0.3093 -0.1029 -4.219e-21)
(1.725 0.9341 -4.014e-20)
(0.9999 0.00146 -2.221e-20)
(0.8554 -0.1219 0)
(0.9621 -0.05724 2.847e-21)
(0.4528 -0.1765 0)
(0.6099 -0.04629 0)
(0.04031 -0.008917 -5.67e-23)
(0.5048 -0.01341 3.559e-20)
(1.298 -0.2199 4.695e-20)
(0.7144 -0.1252 0)
(0.8815 -0.08229 1.978e-22)
(0.9729 -0.08079 0)
(0.8898 -0.175 0)
(0.3842 -0.1317 1.745e-20)
(0.94 -0.1081 -1.43e-21)
(0.2719 -0.1082 0)
(0.4303 -0.1848 -5.688e-21)
(1.009 -0.01721 -2.059e-21)
(0.1355 -0.05972 0)
(-0.01532 0.004168 0)
(0.9847 -0.2704 0)
(1.447 -0.2092 1.375e-20)
(-0.3836 0.6661 -3.662e-21)
(1.012 0.02551 -5.779e-21)
(0.09966 -0.02044 8.266e-21)
(0.3298 -0.06484 0)
(0.9973 -0.0003892 0)
(0.9969 -0.0001023 -2.964e-20)
(1.537 -0.1628 1.992e-24)
(1.232 -0.2776 1.368e-20)
(-0.008617 0.003113 -7.209e-23)
(0.04719 -0.03127 4.161e-23)
(0.9183 -0.1308 7.289e-22)
(0.5536 -0.1965 0)
(0.1125 0.005482 -3.489e-21)
(0.8646 -0.1212 0)
(0.9118 -0.1063 0)
(0.9701 -0.02207 -5.79e-20)
(0.3533 -0.0993 -3.165e-21)
(0.138 -0.03502 0)
(0.1901 0.01895 -3.96e-21)
(0.8251 -0.1503 0)
(0.004554 -0.003877 3.659e-23)
(0.3502 -0.1301 -3.368e-21)
(0.9991 -0.001963 -1.708e-21)
(0.3446 -0.04748 0)
(0.06154 0.01394 1.151e-21)
(0.9975 -0.0008057 -1.114e-19)
(1.221 -0.1755 -3.969e-21)
(0.9976 -0.0004205 -1.187e-20)
(0.9854 0.001241 5.006e-20)
(0.9197 -0.1195 -1.853e-21)
(0.8572 -0.09549 0)
(0.3255 -0.03129 -4.092e-20)
(0.9954 -0.002249 1.134e-20)
(0.8079 -0.09655 1.13e-22)
(1.007 0.007019 0)
(2.085 0.8409 0)
(0.8719 -0.0877 -2.677e-20)
(1.011 -0.1759 8.229e-22)
(0.9377 -0.1028 2.789e-21)
(0.8452 -0.1637 5.527e-22)
(0.8828 -0.1275 0)
(0.2235 -0.06288 1.025e-20)
(0.9507 -0.1038 -3.328e-21)
(0.9998 -0.006053 1.164e-20)
(0.9635 -0.04133 -6.76e-20)
(1.376 -0.2399 7.225e-21)
(0.8742 -0.1595 -1.556e-21)
(0.2418 -0.1004 1.085e-22)
(0.3993 -0.1414 0)
(0.3835 -0.02786 -2.596e-24)
(0.4028 -0.1313 -9.803e-22)
(-0.00164 0.005116 -6.618e-20)
(1.414 -0.2105 1.254e-20)
(0.7394 -0.2012 0)
(1.732 0.03509 -1.579e-20)
(0.8582 -0.09087 1.579e-22)
(0.6469 -0.07913 0)
(1.106 0.7546 -1.425e-20)
(0.9987 -0.182 0)
(1.004 -0.01354 1.004e-20)
(0.7798 -0.1467 1.399e-20)
(0.0392 -0.02846 4.178e-23)
(0.7468 -0.1261 0)
(0.998 -1.427e-05 4.73e-22)
(0.03702 0.02031 7.524e-20)
(1.14 -0.2975 0)
(0.9579 -0.09256 -1.344e-22)
(0.7267 -0.1889 1.623e-21)
(1.506 -0.1815 -9.957e-22)
(0.9226 -0.1055 4.956e-21)
(0.5032 -0.1071 0)
(1.164 -0.28 7.567e-21)
(0.958 -0.09272 -4.062e-22)
(0.01539 0.002631 1.084e-23)
(0.7494 -0.2 -5.922e-21)
(0.04949 -0.03159 9.815e-23)
(0.9977 -0.0009233 0)
(0.9771 -0.07504 6.553e-22)
(0.8309 -0.159 0)
(0.9721 -0.01401 0)
(0.9013 -0.1841 0)
(1.074 -0.1121 1.671e-21)
(0.9963 -7.251e-06 4.768e-21)
(0.8102 -0.1526 1.024e-20)
(0.03501 -0.02187 0)
(0.9477 -0.04049 0)
(1.14 0.743 5.293e-20)
(1.325 -0.2398 0)
(0.02863 -0.01793 0)
(0.8868 -0.105 2.111e-20)
(1.007 4.881e-05 -2.668e-22)
(0.7564 -0.177 -1.543e-22)
(0.4591 -0.09258 -2.886e-22)
(1.017 -0.007572 4.913e-20)
(1.199 0.6298 -4.376e-20)
(1.14 0.07472 2.059e-20)
(1.147 -0.2944 5.471e-21)
(0.5607 -0.1524 -5.096e-21)
(0.8721 -0.14 4.607e-21)
(1.045 -0.05057 0)
(0.02329 -0.01386 -1.601e-23)
(-0.01653 0.006028 1.104e-22)
(0.8431 -0.176 -2.749e-22)
(0.9035 -0.1411 2.185e-21)
(1.017 -0.2906 -1.533e-21)
(0.2908 -0.02553 0)
(0.9976 -4.058e-05 -3.828e-22)
(0.938 -0.09743 -1.059e-21)
(1.01 0.008889 1.071e-21)
(0.7087 -0.1998 0)
(0.3011 -0.06246 -1.518e-20)
(1.184 -0.2038 0)
(0.7279 -0.1889 1.459e-20)
(0.04109 -0.02594 -5.037e-23)
(0.4226 -0.07171 0)
(0.9994 0.006108 -5.751e-21)
(-0.005588 0.002647 0)
(0.1767 -0.0597 0)
(0.3853 -0.1156 3.172e-21)
(0.9661 -0.086 -1.055e-21)
(2.211 0.6535 0)
(1.131 -0.2772 -5.818e-21)
(0.9983 -0.1608 2.773e-22)
(0.5943 -0.04636 0)
(0.9236 -0.1248 0)
(0.8551 0.1366 -9.896e-20)
(0.05482 -0.0016 5.07e-24)
(0.2762 -0.06808 -1.637e-21)
(0.8663 -0.06437 0)
(0.7903 -0.1638 -3.354e-21)
(0.9142 -0.1357 0)
(0.1154 -0.0037 -6.916e-20)
(0.02271 -0.01453 4.897e-22)
(0.2316 -0.08188 -8.81e-23)
(0.8861 -0.1444 9.199e-22)
(0.4027 -0.07115 0)
(1.544 -0.1258 0)
(0.8555 -0.1038 -1.347e-21)
(0.8735 -0.08925 5.27e-22)
(1.165 -0.2413 0)
(-0.04029 0.008602 0)
(0.9439 -0.06829 -5.396e-21)
(0.8245 -0.1681 -4.813e-21)
(0.9227 -0.08058 0)
(0.8368 -0.142 1.553e-21)
(0.9934 4.724e-05 0)
(1.004 -0.001208 1.615e-19)
(1.43 -0.1932 -1.615e-20)
(0.2719 -0.01798 1.405e-23)
(0.5184 -0.1866 2.083e-21)
(1.005 -0.0294 7.297e-21)
(0.1749 -0.03511 -7.435e-21)
(0.3099 -0.114 -8.183e-22)
(0.9949 0.01208 -1.933e-20)
(1.146 0.1533 0)
(0.9293 -0.1232 4.125e-22)
(1.505 -0.148 0)
(-0.001047 0.004859 0)
(0.7088 -0.1638 -1.229e-20)
(0.2793 -0.1191 -5.187e-22)
(-0.001163 0.0003524 0)
(1.024 -0.195 -9.914e-23)
(0.007827 -0.0146 -1.822e-21)
(0.9835 -0.249 2.495e-21)
(0.9376 -0.1156 0)