0.001       	1.1642e+01	2.4088e-21	1.2261e+01	-6.1306e+00	-6.1091e+00	5.8209e+00	-3.0972e-01	1.1952e+01	5.8209e+00	-5.8209e+00	2.1502e-02	1.2240e+01
0.002       	3.5460e+00	1.5240e-19	-7.9686e+01	3.9843e+01	4.5535e+01	1.7730e+00	4.1616e+01	-3.8070e+01	1.7730e+00	-1.7730e+00	5.6916e+00	-8.5378e+01
0.003       	3.8124e+00	1.0741e-19	3.8750e+01	-1.9375e+01	-2.3517e+01	1.9062e+00	-1.7469e+01	2.1281e+01	1.9062e+00	-1.9062e+00	-4.1419e+00	4.2892e+01
0.004       	4.8016e+00	-1.3279e-20	1.4794e+02	-7.3971e+01	-8.4822e+01	2.4008e+00	-7.1570e+01	7.6372e+01	2.4008e+00	-2.4008e+00	-1.0851e+01	1.5879e+02
0.005       	1.0162e-01	-7.3862e-20	1.1956e+02	-5.9782e+01	-6.7708e+01	5.0808e-02	-5.9731e+01	5.9833e+01	5.0808e-02	-5.0808e-02	-7.9266e+00	1.2749e+02
0.006       	-4.0085e-01	-8.0885e-20	8.4823e+01	-4.2411e+01	-4.9620e+01	-2.0043e-01	-4.2612e+01	4.2211e+01	-2.0043e-01	2.0043e-01	-7.2088e+00	9.2032e+01
0.007       	1.7059e-01	-1.2745e-20	-3.9413e+01	1.9707e+01	2.1106e+01	8.5293e-02	1.9792e+01	-1.9621e+01	8.5293e-02	-8.5293e-02	1.3995e+00	-4.0813e+01
0.008       	3.4173e+00	4.6485e-20	-3.4321e+01	1.7160e+01	1.1075e+01	1.7086e+00	1.8869e+01	-1.5452e+01	1.7086e+00	-1.7086e+00	-6.0858e+00	-2.8235e+01
0.009       	3.5094e+00	4.9671e-20	-2.3236e+01	1.1618e+01	6.4182e+00	1.7547e+00	1.3373e+01	-9.8631e+00	1.7547e+00	-1.7547e+00	-5.1996e+00	-1.8036e+01
0.01        	2.9825e+00	1.6442e-20	6.0689e+01	-3.0345e+01	-3.1240e+01	1.4913e+00	-2.8853e+01	3.1836e+01	1.4913e+00	-1.4913e+00	-8.9556e-01	6.1585e+01
0.011       	3.5525e-01	-2.0826e-20	6.6154e+01	-3.3077e+01	-3.1303e+01	1.7762e-01	-3.2899e+01	3.3255e+01	1.7762e-01	-1.7762e-01	1.7744e+00	6.4379e+01
0.012       	-1.0439e-01	-2.5551e-20	5.3788e+01	-2.6894e+01	-2.5960e+01	-5.2197e-02	-2.6946e+01	2.6842e+01	-5.2197e-02	5.2197e-02	9.3374e-01	5.2854e+01
0.013       	-3.1249e+00	-1.6311e-20	-6.1111e+01	3.0555e+01	3.0853e+01	-1.5624e+00	2.8993e+01	-3.2118e+01	-1.5624e+00	1.5624e+00	2.9777e-01	-6.1409e+01
0.014       	-2.6087e+00	4.7395e-21	-8.8918e+01	4.4459e+01	4.4562e+01	-1.3044e+00	4.3154e+01	-4.5763e+01	-1.3044e+00	1.3044e+00	1.0370e-01	-8.9021e+01
0.015       	-2.0339e+00	9.6604e-21	-7.4713e+01	3.7357e+01	3.8111e+01	-1.0169e+00	3.6340e+01	-3.8374e+01	-1.0169e+00	1.0169e+00	7.5385e-01	-7.5467e+01
0.016       	3.3724e+00	1.4658e-20	5.7965e+01	-2.8983e+01	-2.9857e+01	1.6862e+00	-2.7296e+01	3.0669e+01	1.6862e+00	-1.6862e+00	-8.7456e-01	5.8840e+01
0.017       	4.6672e+00	5.3031e-21	1.0168e+02	-5.0839e+01	-5.2001e+01	2.3336e+00	-4.8506e+01	5.3173e+01	2.3336e+00	-2.3336e+00	-1.1614e+00	1.0284e+02
0.018       	3.9574e+00	-4.0371e-22	8.4409e+01	-4.2204e+01	-4.3622e+01	1.9787e+00	-4.0226e+01	4.4183e+01	1.9787e+00	-1.9787e+00	-1.4172e+00	8.5826e+01
0.019       	-2.4304e+00	-1.2354e-20	-4.8678e+01	2.4339e+01	2.5526e+01	-1.2152e+00	2.3124e+01	-2.5554e+01	-1.2152e+00	1.2152e+00	1.1875e+00	-4.9865e+01
0.02        	-5.1109e+00	-9.2972e-21	-1.0386e+02	5.1930e+01	5.3989e+01	-2.5555e+00	4.9374e+01	-5.4485e+01	-2.5555e+00	2.5555e+00	2.0586e+00	-1.0592e+02
0.021       	-3.6455e+00	-1.2251e-22	-6.8645e+01	3.4322e+01	3.5580e+01	-1.8228e+00	3.2500e+01	-3.6145e+01	-1.8228e+00	1.8228e+00	1.2578e+00	-6.9903e+01
0.022       	2.1248e+00	9.6681e-21	3.7178e+01	-1.8589e+01	-1.9821e+01	1.0624e+00	-1.7526e+01	1.9651e+01	1.0624e+00	-1.0624e+00	-1.2321e+00	3.8410e+01
0.023       	4.8831e+00	7.9778e-21	8.2686e+01	-4.1343e+01	-4.3117e+01	2.4415e+00	-3.8902e+01	4.3785e+01	2.4415e+00	-2.4415e+00	-1.7744e+00	8.4461e+01
0.024       	3.4890e+00	4.6073e-22	5.2081e+01	-2.6040e+01	-2.6766e+01	1.7445e+00	-2.4296e+01	2.7785e+01	1.7445e+00	-1.7445e+00	-7.2606e-01	5.2807e+01
0.025       	-6.4795e-01	-6.7168e-21	-1.8486e+01	9.2428e+00	1.0218e+01	-3.2398e-01	8.9188e+00	-9.5668e+00	-3.2398e-01	3.2398e-01	9.7509e-01	-1.9461e+01
0.026       	-3.7311e+00	-5.6620e-21	-6.3133e+01	3.1567e+01	3.2928e+01	-1.8655e+00	2.9701e+01	-3.3432e+01	-1.8655e+00	1.8655e+00	1.3616e+00	-6.4495e+01
0.027       	-2.8413e+00	-2.0883e-22	-4.3215e+01	2.1607e+01	2.2037e+01	-1.4206e+00	2.0187e+01	-2.3028e+01	-1.4206e+00	1.4206e+00	4.2961e-01	-4.3644e+01
0.028       	4.2277e-01	4.6176e-21	8.5320e+00	-4.2660e+00	-5.0251e+00	2.1138e-01	-4.0546e+00	4.4774e+00	2.1138e-01	-2.1138e-01	-7.5907e-01	9.2911e+00
0.029       	3.1703e+00	4.1412e-21	4.5799e+01	-2.2900e+01	-2.3846e+01	1.5851e+00	-2.1314e+01	2.4485e+01	1.5851e+00	-1.5851e+00	-9.4663e-01	4.6746e+01
0.03        	2.6483e+00	3.6552e-22	3.3640e+01	-1.6820e+01	-1.7020e+01	1.3242e+00	-1.5496e+01	1.8144e+01	1.3242e+00	-1.3242e+00	-2.0015e-01	3.3840e+01
0.031       	2.1418e-01	-2.8881e-21	-2.9069e+00	1.4535e+00	2.0306e+00	1.0709e-01	1.5605e+00	-1.3464e+00	1.0709e-01	-1.0709e-01	5.7712e-01	-3.4840e+00
0.032       	-1.8646e+00	-2.6913e-21	-2.9928e+01	1.4964e+01	1.5623e+01	-9.3230e-01	1.4032e+01	-1.5896e+01	-9.3230e-01	9.3230e-01	6.5867e-01	-3.0586e+01
0.033       	-1.7039e+00	-1.4106e-22	-2.4479e+01	1.2240e+01	1.2296e+01	-8.5197e-01	1.1388e+01	-1.3092e+01	-8.5197e-01	8.5197e-01	5.6023e-02	-2.4535e+01
0.034       	-4.1139e-02	1.9381e-21	-4.2472e-01	2.1236e-01	-2.5100e-01	-2.0569e-02	1.9179e-01	-2.3293e-01	-2.0569e-02	2.0569e-02	-4.6337e-01	3.8642e-02
0.035       	1.5206e+00	1.8702e-21	1.9323e+01	-9.6613e+00	-1.0114e+01	7.6032e-01	-8.9009e+00	1.0422e+01	7.6032e-01	-7.6032e-01	-4.5253e-01	1.9775e+01
0.036       	1.5623e+00	2.1226e-22	1.7734e+01	-8.8668e+00	-8.8574e+00	7.8117e-01	-8.0856e+00	9.6480e+00	7.8117e-01	-7.8117e-01	9.3878e-03	1.7724e+01
0.037       	4.5280e-01	-1.1475e-21	2.1423e+00	-1.0711e+00	-7.1201e-01	2.2640e-01	-8.4473e-01	1.2975e+00	2.2640e-01	-2.2640e-01	3.5912e-01	1.7831e+00
0.038       	-6.5206e-01	-1.1162e-21	-1.1530e+01	5.7648e+00	6.0701e+00	-3.2603e-01	5.4388e+00	-6.0908e+00	-3.2603e-01	3.2603e-01	3.0533e-01	-1.1835e+01
0.039       	-7.8122e-01	-8.6176e-23	-1.1821e+01	5.9104e+00	5.8707e+00	-3.9061e-01	5.5198e+00	-6.3010e+00	-3.9061e-01	3.9061e-01	-3.9698e-02	-1.1781e+01
0.04        	-1.9059e-01	6.4706e-22	-3.6158e+00	1.8079e+00	1.5506e+00	-9.5296e-02	1.7126e+00	-1.9032e+00	-9.5296e-02	9.5296e-02	-2.5732e-01	-3.3585e+00
0.041       	7.0045e-01	7.5246e-22	7.3621e+00	-3.6810e+00	-3.8986e+00	3.5023e-01	-3.3308e+00	4.0313e+00	3.5023e-01	-3.5023e-01	-2.1752e-01	7.5796e+00
0.042       	9.4131e-01	2.0396e-22	9.5689e+00	-4.7844e+00	-4.7623e+00	4.7066e-01	-4.3138e+00	5.2551e+00	4.7066e-01	-4.7066e-01	2.2128e-02	9.5468e+00
0.043       	4.7649e-01	-3.4705e-22	3.2501e+00	-1.6250e+00	-1.4282e+00	2.3824e-01	-1.3868e+00	1.8633e+00	2.3824e-01	-2.3824e-01	1.9681e-01	3.0533e+00
0.044       	-2.7302e-02	-4.0816e-22	-2.8591e+00	1.4295e+00	1.5931e+00	-1.3651e-02	1.4159e+00	-1.4432e+00	-1.3651e-02	1.3651e-02	1.6355e-01	-3.0226e+00
0.045       	-3.1374e-01	-1.0028e-22	-5.8951e+00	2.9475e+00	2.9260e+00	-1.5687e-01	2.7907e+00	-3.1044e+00	-1.5687e-01	1.5687e-01	-2.1544e-02	-5.8735e+00
0.046       	-1.3810e-01	1.8206e-22	-3.4189e+00	1.7095e+00	1.5632e+00	-6.9048e-02	1.6404e+00	-1.7785e+00	-6.9048e-02	6.9048e-02	-1.4627e-01	-3.2727e+00
0.047       	2.4020e-01	2.5696e-22	1.1759e+00	-5.8797e-01	-7.2032e-01	1.2010e-01	-4.6787e-01	7.0808e-01	1.2010e-01	-1.2010e-01	-1.3235e-01	1.3083e+00
0.048       	4.8560e-01	1.3724e-22	3.9200e+00	-1.9600e+00	-1.9800e+00	2.4280e-01	-1.7172e+00	2.2028e+00	2.4280e-01	-2.4280e-01	-2.0025e-02	3.9400e+00
0.049       	4.6904e-01	-4.7006e-23	3.4726e+00	-1.7363e+00	-1.6374e+00	2.3452e-01	-1.5018e+00	1.9708e+00	2.3452e-01	-2.3452e-01	9.8910e-02	3.3737e+00
0.05        	2.4002e-01	-1.3239e-22	6.5269e-01	-3.2635e-01	-2.0819e-01	1.2001e-01	-2.0634e-01	4.4636e-01	1.2001e-01	-1.2001e-01	1.1816e-01	5.3453e-01
0.051       	3.1968e-02	-8.5626e-23	-1.7300e+00	8.6499e-01	9.0451e-01	1.5984e-02	8.8097e-01	-8.4900e-01	1.5984e-02	-1.5984e-02	3.9525e-02	-1.7695e+00
0.052       	-1.9049e-02	4.4309e-24	-2.1978e+00	1.0989e+00	1.0502e+00	-9.5244e-03	1.0894e+00	-1.1084e+00	-9.5244e-03	9.5244e-03	-4.8736e-02	-2.1491e+00
0.053       	9.0508e-02	7.7052e-23	-7.9336e-01	3.9668e-01	3.0061e-01	4.5254e-02	4.4193e-01	-3.5142e-01	4.5254e-02	-4.5254e-02	-9.6070e-02	-6.9729e-01
0.054       	2.4473e-01	7.1937e-23	1.0100e+00	-5.0499e-01	-5.6169e-01	1.2237e-01	-3.8262e-01	6.2735e-01	1.2237e-01	-1.2237e-01	-5.6703e-02	1.0667e+00
0.055       	2.7433e-01	5.0347e-23	1.3131e+00	-6.5654e-01	-6.8288e-01	1.3717e-01	-5.1938e-01	7.9371e-01	1.3717e-01	-1.3717e-01	-2.6334e-02	1.3394e+00
0.056       	2.8077e-01	-2.6673e-23	1.2584e+00	-6.2921e-01	-5.6469e-01	1.4038e-01	-4.8883e-01	7.6960e-01	1.4038e-01	-1.4038e-01	6.4526e-02	1.1939e+00
0.057       	2.1422e-01	-5.8890e-23	4.1825e-01	-2.0913e-01	-1.2331e-01	1.0711e-01	-1.0202e-01	3.1624e-01	1.0711e-01	-1.0711e-01	8.5813e-02	3.3244e-01
0.058       	1.8071e-01	-4.5293e-23	5.1959e-02	-2.5980e-02	3.5006e-02	9.0354e-02	6.4375e-02	1.1633e-01	9.0354e-02	-9.0354e-02	6.0986e-02	-9.0267e-03
0.059       	1.5575e-01	-2.0316e-23	-2.0596e-01	1.0298e-01	1.2149e-01	7.7873e-02	1.8085e-01	-2.5109e-02	7.7873e-02	-7.7873e-02	1.8512e-02	-2.2448e-01
0.06        	1.3856e-01	1.3458e-23	-3.5455e-01	1.7727e-01	1.4082e-01	6.9281e-02	2.4655e-01	-1.0799e-01	6.9281e-02	-6.9281e-02	-3.6453e-02	-3.1810e-01
0.061       	1.4235e-01	3.9282e-23	-2.4986e-01	1.2493e-01	4.9784e-02	7.1177e-02	1.9611e-01	-5.3753e-02	7.1177e-02	-7.1177e-02	-7.5145e-02	-1.7471e-01
0.062       	1.6768e-01	3.7084e-23	7.5552e-02	-3.7776e-02	-1.0660e-01	8.3841e-02	4.6065e-02	1.2162e-01	8.3841e-02	-8.3841e-02	-6.8821e-02	1.4437e-01
0.063       	1.9095e-01	2.0726e-23	3.4018e-01	-1.7009e-01	-2.0801e-01	9.5477e-02	-7.4615e-02	2.6557e-01	9.5477e-02	-9.5477e-02	-3.7919e-02	3.7810e-01
0.064       	2.1158e-01	1.1610e-25	5.4222e-01	-2.7111e-01	-2.6830e-01	1.0579e-01	-1.6532e-01	3.7690e-01	1.0579e-01	-1.0579e-01	2.8033e-03	5.3941e-01
0.065       	2.2492e-01	-1.9729e-23	6.2796e-01	-3.1398e-01	-2.7255e-01	1.1246e-01	-2.0152e-01	4.2644e-01	1.1246e-01	-1.1246e-01	4.1427e-02	5.8653e-01
0.066       	2.2235e-01	-2.9807e-23	5.2554e-01	-2.6277e-01	-2.0332e-01	1.1118e-01	-1.5159e-01	3.7394e-01	1.1118e-01	-1.1118e-01	5.9450e-02	4.6609e-01
0.067       	2.0522e-01	-2.5087e-23	2.9728e-01	-1.4864e-01	-1.0120e-01	1.0261e-01	-4.6029e-02	2.5125e-01	1.0261e-01	-1.0261e-01	4.7440e-02	2.4984e-01
0.068       	1.8705e-01	-1.4497e-23	1.0412e-01	-5.2061e-02	-3.1103e-02	9.3525e-02	4.1463e-02	1.4559e-01	9.3525e-02	-9.3525e-02	2.0958e-02	8.3164e-02
0.069       	1.7456e-01	-6.0267e-24	-2.9549e-03	1.4774e-03	-1.6943e-03	8.7282e-02	8.8759e-02	8.5804e-02	8.7282e-02	-8.7282e-02	-3.1717e-03	2.1681e-04
0.07        	1.6797e-01	-6.3289e-25	-3.8668e-02	1.9334e-02	-8.0339e-04	8.3985e-02	1.0332e-01	6.4651e-02	8.3985e-02	-8.3985e-02	-2.0137e-02	-1.8530e-02
0.071       	1.6619e-01	2.7431e-24	-1.5925e-02	7.9624e-03	-2.3824e-02	8.3096e-02	9.1059e-02	7.5134e-02	8.3096e-02	-8.3096e-02	-3.1787e-02	1.5862e-02
0.072       	1.7101e-01	2.9620e-24	7.4589e-02	-3.7295e-02	-7.1910e-02	8.5507e-02	4.8212e-02	1.2280e-01	8.5507e-02	-8.5507e-02	-3.4615e-02	1.0920e-01
0.073       	1.8137e-01	-2.5710e-25	2.0192e-01	-1.0096e-01	-1.2705e-01	9.0686e-02	-1.0272e-02	1.9164e-01	9.0686e-02	-9.0686e-02	-2.6094e-02	2.2801e-01
0.074       	1.9270e-01	-4.5475e-24	3.1319e-01	-1.5660e-01	-1.6809e-01	9.6349e-02	-6.0246e-02	2.5294e-01	9.6349e-02	-9.6349e-02	-1.1494e-02	3.2468e-01
0.075       	2.0072e-01	-7.7497e-24	3.7541e-01	-1.8771e-01	-1.8629e-01	1.0036e-01	-8.7345e-02	2.8807e-01	1.0036e-01	-1.0036e-01	1.4196e-03	3.7399e-01
0.076       	2.0548e-01	-9.8392e-24	3.9916e-01	-1.9958e-01	-1.8877e-01	1.0274e-01	-9.6844e-02	3.0232e-01	1.0274e-01	-1.0274e-01	1.0813e-02	3.8835e-01
0.077       	2.0866e-01	-1.1832e-23	3.9379e-01	-1.9690e-01	-1.7701e-01	1.0433e-01	-9.2567e-02	3.0123e-01	1.0433e-01	-1.0433e-01	1.9888e-02	3.7391e-01
0.078       	2.0795e-01	-1.3334e-23	3.3559e-01	-1.6779e-01	-1.4161e-01	1.0398e-01	-6.3819e-02	2.7177e-01	1.0398e-01	-1.0398e-01	2.6181e-02	3.0941e-01
0.079       	2.0120e-01	-1.3198e-23	2.3192e-01	-1.1596e-01	-9.2493e-02	1.0060e-01	-1.5363e-02	2.1656e-01	1.0060e-01	-1.0060e-01	2.3468e-02	2.0845e-01
0.08        	1.9237e-01	-1.1969e-23	1.4352e-01	-7.1758e-02	-5.8286e-02	9.6187e-02	2.4429e-02	1.6794e-01	9.6187e-02	-9.6187e-02	1.3472e-02	1.3004e-01
0.081       	1.8730e-01	-1.1165e-23	1.1000e-01	-5.5000e-02	-4.9829e-02	9.3650e-02	3.8650e-02	1.4865e-01	9.3650e-02	-9.3650e-02	5.1708e-03	1.0483e-01
0.082       	1.8544e-01	-1.0949e-23	1.0518e-01	-5.2589e-02	-5.1606e-02	9.2722e-02	4.0133e-02	1.4531e-01	9.2722e-02	-9.2722e-02	9.8336e-04	1.0419e-01
0.083       	1.8435e-01	-1.0932e-23	1.0997e-01	-5.4987e-02	-5.7663e-02	9.2173e-02	3.7187e-02	1.4716e-01	9.2173e-02	-9.2173e-02	-2.6765e-03	1.1265e-01
0.084       	1.8386e-01	-1.1077e-23	1.2780e-01	-6.3902e-02	-7.0749e-02	9.1930e-02	2.8028e-02	1.5583e-01	9.1930e-02	-9.1930e-02	-6.8470e-03	1.3465e-01
0.085       	1.8473e-01	-1.1390e-23	1.6500e-01	-8.2498e-02	-9.3274e-02	9.2367e-02	9.8691e-03	1.7487e-01	9.2367e-02	-9.2367e-02	-1.0775e-02	1.7577e-01
0.086       	1.8773e-01	-1.1749e-23	2.2082e-01	-1.1041e-01	-1.2305e-01	9.3865e-02	-1.6543e-02	2.0427e-01	9.3865e-02	-9.3865e-02	-1.2644e-02	2.3346e-01
0.087       	1.9250e-01	-1.1931e-23	2.7991e-01	-1.3996e-01	-1.5099e-01	9.6248e-02	-4.3708e-02	2.3620e-01	9.6248e-02	-9.6248e-02	-1.1034e-02	2.9095e-01
0.088       	1.9683e-01	-1.1854e-23	3.1699e-01	-1.5850e-01	-1.6566e-01	9.8413e-02	-6.0084e-02	2.5691e-01	9.8413e-02	-9.8413e-02	-7.1608e-03	3.2415e-01
0.089       	1.9895e-01	-1.1704e-23	3.2732e-01	-1.6366e-01	-1.6783e-01	9.9476e-02	-6.4184e-02	2.6314e-01	9.9476e-02	-9.9476e-02	-4.1721e-03	3.3149e-01
0.09        	2.0017e-01	-1.1541e-23	3.2773e-01	-1.6386e-01	-1.6562e-01	1.0009e-01	-6.3778e-02	2.6395e-01	1.0009e-01	-1.0009e-01	-1.7539e-03	3.2948e-01
0.091       	2.0137e-01	-1.1311e-23	3.2004e-01	-1.6002e-01	-1.5840e-01	1.0068e-01	-5.9336e-02	2.6070e-01	1.0068e-01	-1.0068e-01	1.6173e-03	3.1842e-01
0.092       	2.0246e-01	-1.1012e-23	2.9700e-01	-1.4850e-01	-1.4184e-01	1.0123e-01	-4.7268e-02	2.4973e-01	1.0123e-01	-1.0123e-01	6.6597e-03	2.9034e-01
0.093       	2.0270e-01	-1.0850e-23	2.5234e-01	-1.2617e-01	-1.1359e-01	1.0135e-01	-2.4819e-02	2.2752e-01	1.0135e-01	-1.0135e-01	1.2583e-02	2.3976e-01
0.094       	2.0113e-01	-1.1225e-23	1.9328e-01	-9.6638e-02	-8.0009e-02	1.0057e-01	3.9276e-03	1.9720e-01	1.0057e-01	-1.0057e-01	1.6629e-02	1.7665e-01
0.095       	1.9794e-01	-1.2265e-23	1.4549e-01	-7.2747e-02	-5.6636e-02	9.8970e-02	2.6223e-02	1.7172e-01	9.8970e-02	-9.8970e-02	1.6111e-02	1.2938e-01
0.096       	1.9535e-01	-1.3283e-23	1.3111e-01	-6.5553e-02	-5.2882e-02	9.7675e-02	3.2123e-02	1.6323e-01	9.7675e-02	-9.7675e-02	1.2671e-02	1.1843e-01
0.097       	1.9432e-01	-1.3799e-23	1.3390e-01	-6.6948e-02	-5.6787e-02	9.7161e-02	3.0212e-02	1.6411e-01	9.7161e-02	-9.7161e-02	1.0161e-02	1.2373e-01
0.098       	1.9364e-01	-1.4275e-23	1.4286e-01	-7.1429e-02	-6.3906e-02	9.6820e-02	2.5391e-02	1.6825e-01	9.6820e-02	-9.6820e-02	7.5232e-03	1.3533e-01
0.099       	1.9306e-01	-1.4927e-23	1.6256e-01	-8.1282e-02	-7.7727e-02	9.6531e-02	1.5248e-02	1.7781e-01	9.6531e-02	-9.6531e-02	3.5552e-03	1.5901e-01
0.1         	1.9286e-01	-1.5744e-23	1.9747e-01	-9.8734e-02	-1.0062e-01	9.6432e-02	-2.3016e-03	1.9517e-01	9.6432e-02	-9.6432e-02	-1.8864e-03	1.9935e-01
0.101       	1.9360e-01	-1.6403e-23	2.4439e-01	-1.2220e-01	-1.2963e-01	9.6800e-02	-2.5397e-02	2.1900e-01	9.6800e-02	-9.6800e-02	-7.4287e-03	2.5182e-01
0.102       	1.9546e-01	-1.6489e-23	2.8941e-01	-1.4470e-01	-1.5551e-01	9.7729e-02	-4.6974e-02	2.4243e-01	9.7729e-02	-9.7729e-02	-1.0807e-02	3.0021e-01
0.103       	1.9784e-01	-1.5962e-23	3.1751e-01	-1.5875e-01	-1.6970e-01	9.8921e-02	-5.9833e-02	2.5768e-01	9.8921e-02	-9.8921e-02	-1.0946e-02	3.2845e-01
0.104       	1.9974e-01	-1.5262e-23	3.2592e-01	-1.6296e-01	-1.7209e-01	9.9868e-02	-6.3091e-02	2.6283e-01	9.9868e-02	-9.9868e-02	-9.1268e-03	3.3504e-01
0.105       	2.0112e-01	-1.4604e-23	3.2407e-01	-1.6204e-01	-1.6876e-01	1.0056e-01	-6.1474e-02	2.6260e-01	1.0056e-01	-1.0056e-01	-6.7221e-03	3.3079e-01
0.106       	2.0253e-01	-1.3815e-23	3.1457e-01	-1.5729e-01	-1.6056e-01	1.0127e-01	-5.6020e-02	2.5855e-01	1.0127e-01	-1.0127e-01	-3.2778e-03	3.1785e-01
0.107       	2.0409e-01	-1.2830e-23	2.9355e-01	-1.4677e-01	-1.4487e-01	1.0205e-01	-4.4727e-02	2.4882e-01	1.0205e-01	-1.0205e-01	1.9047e-03	2.9164e-01
0.108       	2.0548e-01	-1.1815e-23	2.5932e-01	-1.2966e-01	-1.2115e-01	1.0274e-01	-2.6920e-02	2.3240e-01	1.0274e-01	-1.0274e-01	8.5160e-03	2.5081e-01
0.109       	2.0605e-01	-1.1195e-23	2.1789e-01	-1.0895e-01	-9.4214e-02	1.0303e-01	-5.9203e-03	2.1197e-01	1.0303e-01	-1.0303e-01	1.4734e-02	2.0316e-01
0.11        	2.0539e-01	-1.1312e-23	1.8174e-01	-9.0869e-02	-7.2584e-02	1.0270e-01	1.1828e-02	1.9357e-01	1.0270e-01	-1.0270e-01	1.8285e-02	1.6345e-01
0.111       	2.0383e-01	-1.2087e-23	1.6137e-01	-8.0686e-02	-6.2410e-02	1.0191e-01	2.1228e-02	1.8260e-01	1.0191e-01	-1.0191e-01	1.8275e-02	1.4310e-01
0.112       	2.0215e-01	-1.3080e-23	1.5757e-01	-7.8784e-02	-6.2921e-02	1.0108e-01	2.2292e-02	1.7986e-01	1.0108e-01	-1.0108e-01	1.5863e-02	1.4170e-01
0.113       	2.0068e-01	-1.4081e-23	1.6419e-01	-8.2093e-02	-6.9765e-02	1.0034e-01	1.8245e-02	1.8243e-01	1.0034e-01	-1.0034e-01	1.2328e-02	1.5186e-01
0.114       	1.9933e-01	-1.5142e-23	1.7907e-01	-8.9533e-02	-8.1735e-02	9.9665e-02	1.0132e-02	1.8920e-01	9.9665e-02	-9.9665e-02	7.7982e-03	1.7127e-01
0.115       	1.9824e-01	-1.6249e-23	2.0233e-01	-1.0116e-01	-9.8773e-02	9.9120e-02	-2.0429e-03	2.0028e-01	9.9120e-02	-9.9120e-02	2.3900e-03	1.9994e-01
0.116       	1.9775e-01	-1.7213e-23	2.3158e-01	-1.1579e-01	-1.1881e-01	9.8873e-02	-1.6918e-02	2.1466e-01	9.8873e-02	-9.8873e-02	-3.0233e-03	2.3461e-01
0.117       	1.9814e-01	-1.7788e-23	2.6079e-01	-1.3039e-01	-1.3748e-01	9.9071e-02	-3.1322e-02	2.2946e-01	9.9071e-02	-9.9071e-02	-7.0834e-03	2.6787e-01
0.118       	1.9935e-01	-1.7864e-23	2.8316e-01	-1.4158e-01	-1.5043e-01	9.9675e-02	-4.1904e-02	2.4126e-01	9.9675e-02	-9.9675e-02	-8.8504e-03	2.9201e-01
0.119       	2.0105e-01	-1.7527e-23	2.9623e-01	-1.4812e-01	-1.5656e-01	1.0052e-01	-4.7592e-02	2.4864e-01	1.0052e-01	-1.0052e-01	-8.4474e-03	3.0468e-01
0.12        	2.0295e-01	-1.6923e-23	3.0111e-01	-1.5055e-01	-1.5703e-01	1.0147e-01	-4.9079e-02	2.5203e-01	1.0147e-01	-1.0147e-01	-6.4765e-03	3.0758e-01
0.121       	2.0498e-01	-1.6115e-23	2.9927e-01	-1.4964e-01	-1.5292e-01	1.0249e-01	-4.7146e-02	2.5213e-01	1.0249e-01	-1.0249e-01	-3.2810e-03	3.0256e-01
0.122       	2.0705e-01	-1.5149e-23	2.9118e-01	-1.4559e-01	-1.4467e-01	1.0353e-01	-4.2064e-02	2.4912e-01	1.0353e-01	-1.0353e-01	9.2403e-04	2.9026e-01
0.123       	2.0893e-01	-1.4124e-23	2.7751e-01	-1.3876e-01	-1.3307e-01	1.0446e-01	-3.4292e-02	2.4322e-01	1.0446e-01	-1.0446e-01	5.6811e-03	2.7183e-01
0.124       	2.1025e-01	-1.3222e-23	2.6071e-01	-1.3035e-01	-1.2026e-01	1.0512e-01	-2.5230e-02	2.3548e-01	1.0512e-01	-1.0512e-01	1.0092e-02	2.5062e-01
0.125       	2.1080e-01	-1.2617e-23	2.4373e-01	-1.2187e-01	-1.0850e-01	1.0540e-01	-1.6465e-02	2.2727e-01	1.0540e-01	-1.0540e-01	1.3361e-02	2.3037e-01
0.126       	2.1062e-01	-1.2342e-23	2.2952e-01	-1.1476e-01	-9.9668e-02	1.0531e-01	-9.4477e-03	2.2007e-01	1.0531e-01	-1.0531e-01	1.5090e-02	2.1443e-01
0.127       	2.0985e-01	-1.2377e-23	2.1884e-01	-1.0942e-01	-9.4084e-02	1.0493e-01	-4.4911e-03	2.1435e-01	1.0493e-01	-1.0493e-01	1.5334e-02	2.0350e-01
0.128       	2.0861e-01	-1.2705e-23	2.1198e-01	-1.0599e-01	-9.1808e-02	1.0430e-01	-1.6877e-03	2.1030e-01	1.0430e-01	-1.0430e-01	1.4185e-02	1.9780e-01
0.129       	2.0701e-01	-1.3325e-23	2.0948e-01	-1.0474e-01	-9.3054e-02	1.0350e-01	-1.2353e-03	2.0824e-01	1.0350e-01	-1.0350e-01	1.1685e-02	1.9779e-01
0.13        	2.0530e-01	-1.4181e-23	2.1197e-01	-1.0599e-01	-9.7871e-02	1.0265e-01	-3.3350e-03	2.0864e-01	1.0265e-01	-1.0265e-01	8.1155e-03	2.0386e-01
0.131       	2.0387e-01	-1.5147e-23	2.1913e-01	-1.0956e-01	-1.0544e-01	1.0194e-01	-7.6278e-03	2.1150e-01	1.0194e-01	-1.0194e-01	4.1215e-03	2.1501e-01
0.132       	2.0306e-01	-1.6020e-23	2.2904e-01	-1.1452e-01	-1.1387e-01	1.0153e-01	-1.2990e-02	2.1605e-01	1.0153e-01	-1.0153e-01	6.4987e-04	2.2839e-01
0.133       	2.0297e-01	-1.6675e-23	2.3945e-01	-1.1973e-01	-1.2145e-01	1.0149e-01	-1.8239e-02	2.2121e-01	1.0149e-01	-1.0149e-01	-1.7291e-03	2.4118e-01
0.134       	2.0350e-01	-1.7085e-23	2.4900e-01	-1.2450e-01	-1.2742e-01	1.0175e-01	-2.2753e-02	2.2625e-01	1.0175e-01	-1.0175e-01	-2.9160e-03	2.5192e-01
0.135       	2.0456e-01	-1.7267e-23	2.5758e-01	-1.2879e-01	-1.3183e-01	1.0228e-01	-2.6510e-02	2.3107e-01	1.0228e-01	-1.0228e-01	-3.0356e-03	2.6062e-01
0.136       	2.0614e-01	-1.7213e-23	2.6514e-01	-1.3257e-01	-1.3467e-01	1.0307e-01	-2.9498e-02	2.3564e-01	1.0307e-01	-1.0307e-01	-2.1017e-03	2.6724e-01
0.137       	2.0819e-01	-1.6893e-23	2.7125e-01	-1.3563e-01	-1.3574e-01	1.0410e-01	-3.1531e-02	2.3972e-01	1.0410e-01	-1.0410e-01	-1.0964e-04	2.7136e-01
0.138       	2.1042e-01	-1.6322e-23	2.7510e-01	-1.3755e-01	-1.3488e-01	1.0521e-01	-3.2344e-02	2.4276e-01	1.0521e-01	-1.0521e-01	2.6678e-03	2.7244e-01
0.139       	2.1247e-01	-1.5587e-23	2.7633e-01	-1.3816e-01	-1.3244e-01	1.0624e-01	-3.1929e-02	2.4440e-01	1.0624e-01	-1.0624e-01	5.7238e-03	2.7061e-01
0.14        	2.1395e-01	-1.4860e-23	2.7528e-01	-1.3764e-01	-1.2930e-01	1.0698e-01	-3.0664e-02	2.4461e-01	1.0698e-01	-1.0698e-01	8.3361e-03	2.6694e-01
0.141       	2.1484e-01	-1.4229e-23	2.7276e-01	-1.3638e-01	-1.2612e-01	1.0742e-01	-2.8961e-02	2.4380e-01	1.0742e-01	-1.0742e-01	1.0260e-02	2.6250e-01
0.142       	2.1521e-01	-1.3720e-23	2.6941e-01	-1.3471e-01	-1.2322e-01	1.0761e-01	-2.7100e-02	2.4231e-01	1.0761e-01	-1.0761e-01	1.1486e-02	2.5793e-01
0.143       	2.1517e-01	-1.3306e-23	2.6520e-01	-1.3260e-01	-1.2047e-01	1.0759e-01	-2.5016e-02	2.4019e-01	1.0759e-01	-1.0759e-01	1.2128e-02	2.5308e-01
0.144       	2.1470e-01	-1.3021e-23	2.6025e-01	-1.3013e-01	-1.1802e-01	1.0735e-01	-2.2774e-02	2.3748e-01	1.0735e-01	-1.0735e-01	1.2110e-02	2.4814e-01
0.145       	2.1382e-01	-1.2918e-23	2.5470e-01	-1.2735e-01	-1.1603e-01	1.0691e-01	-2.0441e-02	2.3426e-01	1.0691e-01	-1.0691e-01	1.1322e-02	2.4338e-01
0.146       	2.1264e-01	-1.3052e-23	2.4942e-01	-1.2471e-01	-1.1489e-01	1.0632e-01	-1.8388e-02	2.3103e-01	1.0632e-01	-1.0632e-01	9.8188e-03	2.3960e-01
0.147       	2.1142e-01	-1.3436e-23	2.4505e-01	-1.2253e-01	-1.1469e-01	1.0571e-01	-1.6817e-02	2.2823e-01	1.0571e-01	-1.0571e-01	7.8381e-03	2.3721e-01
0.148       	2.1045e-01	-1.3942e-23	2.4250e-01	-1.2125e-01	-1.1536e-01	1.0523e-01	-1.6026e-02	2.2648e-01	1.0523e-01	-1.0523e-01	5.8965e-03	2.3661e-01
0.149       	2.0986e-01	-1.4479e-23	2.4168e-01	-1.2084e-01	-1.1658e-01	1.0493e-01	-1.5908e-02	2.2577e-01	1.0493e-01	-1.0493e-01	4.2618e-03	2.3742e-01
0.15        	2.0966e-01	-1.4978e-23	2.4231e-01	-1.2115e-01	-1.1808e-01	1.0483e-01	-1.6325e-02	2.2598e-01	1.0483e-01	-1.0483e-01	3.0717e-03	2.3924e-01
0.151       	2.0983e-01	-1.5453e-23	2.4427e-01	-1.2214e-01	-1.1988e-01	1.0491e-01	-1.7223e-02	2.2705e-01	1.0491e-01	-1.0491e-01	2.2604e-03	2.4201e-01
0.152       	2.1041e-01	-1.5854e-23	2.4769e-01	-1.2385e-01	-1.2192e-01	1.0521e-01	-1.8640e-02	2.2905e-01	1.0521e-01	-1.0521e-01	1.9216e-03	2.4577e-01
0.153       	2.1150e-01	-1.6134e-23	2.5276e-01	-1.2638e-01	-1.2419e-01	1.0575e-01	-2.0627e-02	2.3213e-01	1.0575e-01	-1.0575e-01	2.1901e-03	2.5057e-01
0.154       	2.1299e-01	-1.6192e-23	2.5897e-01	-1.2948e-01	-1.2634e-01	1.0649e-01	-2.2990e-02	2.3598e-01	1.0649e-01	-1.0649e-01	3.1430e-03	2.5582e-01
0.155       	2.1469e-01	-1.5990e-23	2.6557e-01	-1.3279e-01	-1.2812e-01	1.0735e-01	-2.5440e-02	2.4013e-01	1.0735e-01	-1.0735e-01	4.6678e-03	2.6090e-01
0.156       	2.1617e-01	-1.5606e-23	2.7104e-01	-1.3552e-01	-1.2922e-01	1.0809e-01	-2.7434e-02	2.4361e-01	1.0809e-01	-1.0809e-01	6.3035e-03	2.6474e-01
0.157       	2.1730e-01	-1.5155e-23	2.7492e-01	-1.3746e-01	-1.2972e-01	1.0865e-01	-2.8814e-02	2.4611e-01	1.0865e-01	-1.0865e-01	7.7453e-03	2.6718e-01
0.158       	2.1803e-01	-1.4722e-23	2.7728e-01	-1.3864e-01	-1.2980e-01	1.0902e-01	-2.9625e-02	2.4766e-01	1.0902e-01	-1.0902e-01	8.8446e-03	2.6844e-01
0.159       	2.1855e-01	-1.4278e-23	2.7868e-01	-1.3934e-01	-1.2960e-01	1.0927e-01	-3.0066e-02	2.4861e-01	1.0927e-01	-1.0927e-01	9.7406e-03	2.6894e-01
0.16        	2.1886e-01	-1.3831e-23	2.7917e-01	-1.3959e-01	-1.2916e-01	1.0943e-01	-3.0158e-02	2.4901e-01	1.0943e-01	-1.0943e-01	1.0423e-02	2.6875e-01
0.161       	2.1896e-01	-1.3396e-23	2.7860e-01	-1.3930e-01	-1.2847e-01	1.0948e-01	-2.9820e-02	2.4878e-01	1.0948e-01	-1.0948e-01	1.0829e-02	2.6777e-01
0.162       	2.1883e-01	-1.3066e-23	2.7686e-01	-1.3843e-01	-1.2761e-01	1.0941e-01	-2.9016e-02	2.4784e-01	1.0941e-01	-1.0941e-01	1.0819e-02	2.6604e-01
0.163       	2.1849e-01	-1.2902e-23	2.7401e-01	-1.3701e-01	-1.2665e-01	1.0925e-01	-2.7760e-02	2.4625e-01	1.0925e-01	-1.0925e-01	1.0352e-02	2.6366e-01
0.164       	2.1808e-01	-1.2926e-23	2.7077e-01	-1.3538e-01	-1.2581e-01	1.0904e-01	-2.6346e-02	2.4442e-01	1.0904e-01	-1.0904e-01	9.5792e-03	2.6119e-01
0.165       	2.1769e-01	-1.3094e-23	2.6760e-01	-1.3380e-01	-1.2512e-01	1.0884e-01	-2.4955e-02	2.4264e-01	1.0884e-01	-1.0884e-01	8.6782e-03	2.5892e-01
0.166       	2.1740e-01	-1.3336e-23	2.6500e-01	-1.3250e-01	-1.2465e-01	1.0870e-01	-2.3798e-02	2.4120e-01	1.0870e-01	-1.0870e-01	7.8461e-03	2.5715e-01
0.167       	2.1721e-01	-1.3635e-23	2.6278e-01	-1.3139e-01	-1.2433e-01	1.0861e-01	-2.2782e-02	2.4000e-01	1.0861e-01	-1.0861e-01	7.0621e-03	2.5572e-01
0.168       	2.1715e-01	-1.3973e-23	2.6102e-01	-1.3051e-01	-1.2415e-01	1.0857e-01	-2.1937e-02	2.3908e-01	1.0857e-01	-1.0857e-01	6.3620e-03	2.5466e-01
0.169       	2.1725e-01	-1.4342e-23	2.5981e-01	-1.2990e-01	-1.2414e-01	1.0862e-01	-2.1282e-02	2.3853e-01	1.0862e-01	-1.0862e-01	5.7689e-03	2.5404e-01
0.17        	2.1756e-01	-1.4665e-23	2.5959e-01	-1.2979e-01	-1.2436e-01	1.0878e-01	-2.1014e-02	2.3857e-01	1.0878e-01	-1.0878e-01	5.4335e-03	2.5415e-01
0.171       	2.1813e-01	-1.4878e-23	2.6068e-01	-1.3034e-01	-1.2488e-01	1.0907e-01	-2.1276e-02	2.3941e-01	1.0907e-01	-1.0907e-01	5.4660e-03	2.5522e-01
0.172       	2.1888e-01	-1.4920e-23	2.6310e-01	-1.3155e-01	-1.2564e-01	1.0944e-01	-2.2108e-02	2.4099e-01	1.0944e-01	-1.0944e-01	5.9041e-03	2.5719e-01
0.173       	2.1973e-01	-1.4786e-23	2.6653e-01	-1.3326e-01	-1.2661e-01	1.0987e-01	-2.3397e-02	2.4313e-01	1.0987e-01	-1.0987e-01	6.6571e-03	2.5987e-01
0.174       	2.2051e-01	-1.4545e-23	2.7015e-01	-1.3507e-01	-1.2757e-01	1.1025e-01	-2.4819e-02	2.4533e-01	1.1025e-01	-1.1025e-01	7.5007e-03	2.6265e-01
0.175       	2.2122e-01	-1.4242e-23	2.7375e-01	-1.3687e-01	-1.2852e-01	1.1061e-01	-2.6263e-02	2.4748e-01	1.1061e-01	-1.1061e-01	8.3555e-03	2.6539e-01
0.176       	2.2185e-01	-1.3904e-23	2.7717e-01	-1.3858e-01	-1.2942e-01	1.1093e-01	-2.7658e-02	2.4951e-01	1.1093e-01	-1.1093e-01	9.1617e-03	2.6800e-01
0.177       	2.2247e-01	-1.3527e-23	2.8063e-01	-1.4031e-01	-1.3036e-01	1.1123e-01	-2.9080e-02	2.5155e-01	1.1123e-01	-1.1123e-01	9.9516e-03	2.7068e-01
0.178       	2.2303e-01	-1.3151e-23	2.8385e-01	-1.4193e-01	-1.3129e-01	1.1152e-01	-3.0410e-02	2.5344e-01	1.1152e-01	-1.1152e-01	1.0634e-02	2.7322e-01
0.179       	2.2354e-01	-1.2811e-23	2.8659e-01	-1.4329e-01	-1.3217e-01	1.1177e-01	-3.1526e-02	2.5506e-01	1.1177e-01	-1.1177e-01	1.1128e-02	2.7546e-01
0.18        	2.2390e-01	-1.2580e-23	2.8827e-01	-1.4413e-01	-1.3282e-01	1.1195e-01	-3.2185e-02	2.5608e-01	1.1195e-01	-1.1195e-01	1.1315e-02	2.7695e-01
0.181       	2.2412e-01	-1.2481e-23	2.8874e-01	-1.4437e-01	-1.3318e-01	1.1206e-01	-3.2309e-02	2.5643e-01	1.1206e-01	-1.1206e-01	1.1190e-02	2.7755e-01
0.182       	2.2420e-01	-1.2506e-23	2.8812e-01	-1.4406e-01	-1.3322e-01	1.1210e-01	-3.1959e-02	2.5616e-01	1.1210e-01	-1.1210e-01	1.0840e-02	2.7728e-01
0.183       	2.2420e-01	-1.2624e-23	2.8668e-01	-1.4334e-01	-1.3299e-01	1.1210e-01	-3.1241e-02	2.5544e-01	1.1210e-01	-1.1210e-01	1.0346e-02	2.7633e-01
0.184       	2.2414e-01	-1.2799e-23	2.8473e-01	-1.4236e-01	-1.3257e-01	1.1207e-01	-3.0294e-02	2.5443e-01	1.1207e-01	-1.1207e-01	9.7960e-03	2.7493e-01
0.185       	2.2406e-01	-1.3026e-23	2.8225e-01	-1.4112e-01	-1.3194e-01	1.1203e-01	-2.9093e-02	2.5316e-01	1.1203e-01	-1.1203e-01	9.1888e-03	2.7306e-01
0.186       	2.2399e-01	-1.3270e-23	2.7951e-01	-1.3975e-01	-1.3115e-01	1.1199e-01	-2.7761e-02	2.5175e-01	1.1199e-01	-1.1199e-01	8.6064e-03	2.7090e-01
0.187       	2.2395e-01	-1.3507e-23	2.7666e-01	-1.3833e-01	-1.3023e-01	1.1198e-01	-2.6354e-02	2.5031e-01	1.1198e-01	-1.1198e-01	8.1007e-03	2.6856e-01
0.188       	2.2399e-01	-1.3669e-23	2.7434e-01	-1.3717e-01	-1.2937e-01	1.1200e-01	-2.5172e-02	2.4917e-01	1.1200e-01	-1.1200e-01	7.8023e-03	2.6654e-01
0.189       	2.2416e-01	-1.3728e-23	2.7286e-01	-1.3643e-01	-1.2867e-01	1.1208e-01	-2.4353e-02	2.4851e-01	1.1208e-01	-1.1208e-01	7.7575e-03	2.6510e-01
0.19        	2.2442e-01	-1.3681e-23	2.7254e-01	-1.3627e-01	-1.2830e-01	1.1221e-01	-2.4059e-02	2.4848e-01	1.1221e-01	-1.1221e-01	7.9702e-03	2.6457e-01
0.191       	2.2481e-01	-1.3536e-23	2.7335e-01	-1.3668e-01	-1.2828e-01	1.1241e-01	-2.4271e-02	2.4908e-01	1.1241e-01	-1.1241e-01	8.3941e-03	2.6496e-01
0.192       	2.2527e-01	-1.3323e-23	2.7514e-01	-1.3757e-01	-1.2862e-01	1.1264e-01	-2.4933e-02	2.5021e-01	1.1264e-01	-1.1264e-01	8.9491e-03	2.6619e-01
0.193       	2.2585e-01	-1.3049e-23	2.7789e-01	-1.3895e-01	-1.2932e-01	1.1293e-01	-2.6019e-02	2.5187e-01	1.1293e-01	-1.1293e-01	9.6222e-03	2.6827e-01
0.194       	2.2650e-01	-1.2748e-23	2.8138e-01	-1.4069e-01	-1.3035e-01	1.1325e-01	-2.7438e-02	2.5394e-01	1.1325e-01	-1.1325e-01	1.0335e-02	2.7104e-01
0.195       	2.2725e-01	-1.2422e-23	2.8557e-01	-1.4279e-01	-1.3173e-01	1.1362e-01	-2.9164e-02	2.5641e-01	1.1362e-01	-1.1362e-01	1.1057e-02	2.7452e-01
0.196       	2.2798e-01	-1.2138e-23	2.8983e-01	-1.4491e-01	-1.3326e-01	1.1399e-01	-3.0925e-02	2.5890e-01	1.1399e-01	-1.1399e-01	1.1654e-02	2.7817e-01
0.197       	2.2867e-01	-1.1921e-23	2.9379e-01	-1.4689e-01	-1.3482e-01	1.1434e-01	-3.2558e-02	2.6123e-01	1.1434e-01	-1.1434e-01	1.2072e-02	2.8172e-01
0.198       	2.2922e-01	-1.1814e-23	2.9675e-01	-1.4838e-01	-1.3613e-01	1.1461e-01	-3.3767e-02	2.6298e-01	1.1461e-01	-1.1461e-01	1.2247e-02	2.8450e-01
0.199       	2.2963e-01	-1.1799e-23	2.9868e-01	-1.4934e-01	-1.3713e-01	1.1482e-01	-3.4524e-02	2.6415e-01	1.1482e-01	-1.1482e-01	1.2208e-02	2.8647e-01