/*--------------------------------*- C++ -*----------------------------------*\
  =========                 |
  \\      /  F ield         | OpenFOAM: The Open Source CFD Toolbox
   \\    /   O peration     | Website:  https://openfoam.org
    \\  /    A nd           | Version:  8
     \\/     M anipulation  |
\*---------------------------------------------------------------------------*/
FoamFile
{
    version     2.0;
    format      ascii;
    class       volScalarField;
    location    "55";
    object      epsilon;
}
// * * * * * * * * * * * * * * * * * * * * * * * * * * * * * * * * * * * * * //

dimensions      [0 2 -3 0 0 0 0];

internalField   nonuniform List<scalar> 
127143
(
86.65
57.41
39.15
33.39
190.3
34.63
262.4
252.9
283.1
65.53
398.4
326.1
70.95
34
12.63
7.7
24.53
0.0835
0.1239
8.334
0.4612
3.514
0.136
1.133
3.557
3.392
10.94
11.09
11.87
0.06623
1.592
3.483
28.03
2.264
0.068
27.9
0.3482
0.3829
0.9405
2.898
0.1236
1.176
0.9791
33.22
0.08399
2.204
11.46
0.2342
1.505
1.008
6.753
0.02199
0.9278
0.2367
0.005278
3.048
0.005091
0.1487
0.01312
0.2351
0.9495
0.1726
0.5219
0.09658
3.409
0.4892
0.0672
0.5695
0.5572
0.0008088
1.254
10.02
0.152
0.01313
0.02705
10.05
0.01723
0.3365
2.984
0.1318
11.63
8.017
1.561
2.58
0.1834
0.3065
0.8109
14.07
0.4697
10.86
0.01599
0.1518
8.462
0.4591
0.9731
0.0869
1.103
1.789
0.3069
0.06558
0.1332
1.433
23.97
0.2767
0.2987
0.3126
0.7909
0.0008155
1.147
0.01753
11.8
13.94
0.6456
5.259
0.02067
0.3368
0.01773
0.02705
0.01716
4.562
0.01671
1.412
1.689
0.1253
10.99
3.476
0.2216
0.01662
1.543
3.519
0.4721
0.8572
0.4067
0.3316
8.331
0.4627
0.03699
0.4183
12.65
0.03879
0.2007
0.01738
0.6716
0.4124
0.9158
3.493
57.72
0.1068
0.8791
28.48
0.3025
1.541
0.3741
0.1581
5.309
0.1811
0.1481
4.546
0.2314
1.879
1.288
44.71
0.01618
0.4702
4.651
3.153
0.3964
0.8432
10.95
0.02288
0.8376
0.4111
0.3885
1.027
0.003691
0.3186
3.687
1.533
1.026
0.01865
1.028
0.0299
0.3304
0.3163
3.418
0.1702
0.228
5.075
1.055
0.02119
1.022
1.432
0.03587
10.48
10.86
0.2606
0.112
0.112
18.87
0.01839
0.01691
0.02349
0.0376
0.3342
27.92
0.6915
0.06755
0.5462
0.06367
0.02085
0.07957
0.2077
0.01555
10.83
0.587
17.71
1.209
0.616
0.6179
0.06667
3.404
0.02937
1.587
0.9006
2.042
0.8704
4.025
0.3786
0.6253
0.2517
0.4896
0.02933
0.147
8.131
0.4853
0.09065
0.47
42.42
0.01682
0.8936
1.394
3.19
0.2602
4.428
0.6419
4.338
1.247
10.57
7.145
0.001441
1.659
2.379
0.812
0.4644
2.262
1.129
0.01649
10.75
0.7016
0.1186
0.2834
0.02383
0.1488
0.01739
0.9455
3.21
0.6701
6.506
1.154
0.5564
3.047
0.003601
0.2071
0.9021
0.4128
1.002
0.6377
1.177
0.00608
0.8226
0.002484
0.09075
0.2697
0.02255
0.02041
10.14
0.5752
0.0203
1.115
0.01898
0.3649
0.2542
0.09016
0.4602
0.01445
1.415
1.413
0.8367
0.2603
0.5402
1.807
0.3968
0.5171
0.3269
2.117
3.301
0.5355
0.01556
0.1706
0.3709
0.8345
1.107
3.066
0.002564
0.0198
6.691
0.4384
1.795
0.1325
0.01989
0.1307
1.401
0.02209
0.8148
6.826
0.5654
0.03611
1.107
1.239
3.794
0.1976
0.02041
0.06587
0.1016
0.1016
0.1503
1.119
0.3845
0.1975
0.6368
0.03751
0.6166
0.8387
0.9804
4.031
1.14
1.178
0.8218
1.807
1.868
1.668
0.1235
0.3263
0.9949
0.02713
1.07
0.4666
2.988
0.01077
1.279
0.1859
0.4881
0.08918
1.016
0.9824
0.04063
0.0185
0.013
2.086
0.006185
1.872
0.02218
2.111
1.049
0.02047
0.07861
1.316
11.08
0.2756
0.006488
0.1315
3.143
1.703
0.4106
0.01764
4.483
0.04857
2.774
0.2689
0.2382
0.01288
0.4432
0.7063
2.368
1.068
1.54
0.4423
1.476
0.02707
0.02318
2.383
0.03011
0.4997
0.3218
0.04911
0.373
0.2855
0.4221
0.1375
0.9608
1.831
2.13
0.1959
0.2228
1.607
0.9553
0.4152
3.301
0.4743
3.062
0.385
1.756
0.675
0.001485
0.2557
0.1481
0.8853
0.1608
2.998
0.0866
0.05466
0.6558
0.3438
0.08998
1.158
0.04023
0.4887
1.205
0.02153
0.01447
0.02275
0.9416
0.03777
1.195
0.01901
1.723
0.01849
5.65
0.01323
0.2075
0.3974
1.498
0.3518
2.366
0.05293
0.3122
1.99
2.924
0.297
0.4231
0.3877
1.185
0.2558
3.774
1.213
0.003365
0.01719
0.634
1.094
0.03248
0.2816
0.1662
0.1236
0.4292
0.05504
0.006097
5.636
0.1619
0.6989
0.7363
14.14
5.543
1.758
3.042
1.618
1.131
0.6624
0.01562
1.721
0.01735
5.701
0.7615
1.016
3.404
15.36
0.4938
3.268
0.08557
3.5
0.01706
14.23
0.01714
0.2921
0.2556
19.4
8.886
9.5
0.0708
1.051
2.268
0.02001
0.1788
1.864
0.4113
0.3463
0.4053
1.526
0.281
3.92
0.003352
0.2321
4.695
3.453
1.668
0.7847
0.01304
0.2938
0.03641
0.2512
0.01237
1.886
23.37
0.7127
0.04393
0.6354
0.1053
1.038
1.873
15.33
0.2051
0.01739
0.5401
1.326
0.0363
0.4077
0.4411
1.325
0.9863
1.149
0.8733
0.2643
0.7678
2.684
0.3756
0.6343
0.01426
2.616
0.4989
2.258
0.4781
0.2469
0.08465
0.06712
0.1083
1.206
3.977
0.01927
0.001687
1.115
4.741
0.284
1.643
0.9389
1.783
0.4997
0.01701
0.03759
0.7215
0.3256
0.9893
0.003968
9.551
0.4075
0.7376
0.006291
2.39
0.01916
0.277
0.316
0.2139
0.001636
0.628
0.2836
20.47
0.006377
0.7603
1.198
0.02218
0.3686
0.01966
0.7864
0.6257
0.02269
1.381
1.465
1.069
1.121
0.6302
1.607
1.656
5.018
0.8831
7.968
0.9423
0.3468
1.022
1.899
0.003995
2.529
0.02104
3.755
0.01728
0.6579
0.04643
0.02036
0.1551
3.01
0.5494
0.003498
0.007788
0.5954
13.35
1.393
1.689
0.1596
1.181
0.3904
1.877
0.9677
0.7385
3.924
0.003496
2.58
0.911
0.2629
0.3248
0.01609
0.001694
0.5554
11.17
0.6607
1.951
0.01721
0.001042
0.4719
2.217
0.0228
2.968
0.1482
0.04009
0.8542
0.6494
0.8958
0.2147
26.92
0.8265
0.2929
0.3134
0.5683
1.374
2.213
1.736
0.02047
1.387
0.53
0.4905
0.01073
1.116
0.4433
0.6249
0.04474
0.01006
2.413
0.08569
1.963
1.369
3.73
0.1718
0.4755
1.889
0.2442
2.411
0.01567
0.007681
1.941
0.1461
1.943
0.6023
6.534
0.1623
3.742
0.0771
0.08827
0.001033
1.801
0.05545
2.242
9.374
0.5692
0.9231
0.2691
0.001493
0.5336
0.9819
1.932
0.1055
0.3135
0.9641
25.67
0.4182
4.563
0.139
2.045
0.593
0.3608
0.2185
0.2467
61
0.4527
0.02251
1.187
2.37
0.7632
0.01482
0.3948
0.1228
0.2804
0.0009371
1.99
0.6435
2.428
0.0009835
1.818
0.3474
1.439
1.655
0.00108
0.2523
0.7646
1.166
0.4877
0.01812
0.8371
8.467
0.01483
0.587
0.3916
1.332
0.4889
0.3832
0.5825
3.007
0.6217
0.01875
0.2533
0.1649
2.473
2.006
0.2383
0.1766
0.834
0.02552
0.3991
0.8452
0.7224
7.623
0.7177
0.6936
0.6875
0.2476
0.5448
0.07265
27.14
0.5056
1.088
0.9448
0.2748
0.5239
0.4965
1.16
0.04009
0.1158
0.2933
0.0009392
0.5684
5.616
0.7955
1.613
0.02828
0.381
0.3305
0.01576
0.02037
0.3226
0.173
0.1598
0.5181
0.2733
8.348
0.3428
0.4516
0.01081
0.3435
0.3688
1.501
1.97
0.8043
0.002226
0.0129
0.04186
10.51
0.01156
0.07027
10.21
0.5888
3.063
0.00434
0.2445
0.5781
0.02653
1.78
0.06851
3.217
27.34
1.672
0.7296
3.293
0.01557
1.171
0.249
1.828
0.654
2.289
33.41
0.2379
0.3148
0.9111
9.108
0.02423
0.2822
3.461
7.235
0.5349
5.198
0.002217
0.05383
0.7285
5.31
10.85
2.921
174
5.17
50.72
0.7784
0.8867
0.1149
3.965
0.01738
0.8475
0.001785
0.00174
0.6883
0.01947
1.265
0.1373
5.044
0.1934
0.02633
8.019
1.28
0.01274
0.1124
0.3557
0.02535
1.534
4.868
0.3855
0.6463
11.7
0.3535
0.5892
0.01894
1.005
2.205
0.01056
1.255
0.4866
0.1701
0.02613
0.01996
0.1135
11.93
0.9814
4.929
0.2971
2.003
1.091
1.355
2.625
0.002209
12.14
0.6774
0.002209
1.178
4.764
0.1701
5.213
0.2522
0.3431
1.663
10.06
1.175
0.01702
0.02864
0.5978
1.655
0.4374
1.394
7.342
7.62
0.6679
0.1086
7.697
0.04213
6.368
0.01691
0.2415
1.208
0.5167
0.7228
0.3231
0.02427
0.01693
0.8463
0.2445
0.4616
1.284
0.6324
0.1927
0.6199
2.388
2.168
8.974
0.8426
1.65
0.9666
0.3634
0.1915
10.03
0.5131
1.393
3.203
0.327
0.01504
0.01056
0.2378
0.2707
0.2835
0.1799
2.079
0.3928
0.1578
0.5974
0.5521
0.7142
2.503
0.1382
0.2424
0.149
9.192
2.122
0.352
0.5731
0.256
2.129
1.101
0.3675
0.1561
2.358
0.8245
0.3929
8.355
0.01266
2.182
1.44
0.1629
1.112
12.79
0.01904
6.202
12.48
0.002479
0.1533
1.086
0.5193
4.597
0.6308
0.8171
3.545
0.7045
0.2439
0.2058
0.01744
0.7775
0.2204
0.593
0.4821
1.109
0.3221
0.003406
7.318
0.3997
0.02969
1.708
0.002219
0.01712
0.4603
0.142
9.58
0.01725
1.772
0.02721
6.251
0.1182
0.1063
0.2971
2.361
1.555
0.8887
0.4724
0.006185
0.03328
0.5216
1.325
0.5299
0.6813
3.219
0.7851
4.76
1.158
2.647
4.543
1.303
2.892
0.4497
0.1149
0.01092
1.56
0.4223
2.89
0.0007238
6.647
0.2974
0.6069
1.504
1.063
0.2302
1.954
0.2366
0.6011
0.4718
3.416
0.6702
0.003165
0.3363
1.628
0.01508
1.157
2.948
0.2081
0.4846
0.5059
0.03378
0.4472
0.3499
0.9618
0.1693
0.1056
0.9709
0.6902
0.01341
0.3096
0.02723
0.3815
0.9124
0.4848
0.02443
0.8145
2.739
2.446
1.388
0.2373
3.969
0.0008085
0.8541
0.02348
0.3805
2.084
1.259
1.515
0.9389
4.085
0.04514
7.016
1.11
1.16
0.4858
9.99
0.2294
0.1045
2.207
0.6793
0.0385
18.12
0.3028
1.16
3.037
1.135
4.366
0.843
1.209
0.893
0.434
0.7486
1.508
1.216
0.1699
4.702
0.09359
1.241
0.1025
2.192
0.1056
0.02166
0.4957
4.4
0.2539
0.02202
8.112
0.7664
0.02574
13.24
0.7817
0.6361
2.37
0.6834
0.3739
19.86
0.1127
1.503
0.2221
0.6643
4.849
1.4
1.869
1.584
1.62
0.06796
0.07955
0.5672
0.5573
0.7136
0.6358
0.1675
1.753
0.2151
0.1935
0.1878
1.228
0.4308
0.4686
4.566
0.0468
9.932
1.434
0.4185
0.3828
0.02682
0.1953
1.13
0.4305
1.11
3.19
2.082
0.01804
1.994
0.8243
0.6159
8.304
1.29
0.1351
0.6804
0.01536
0.7094
0.4037
16.18
1.119
0.03873
0.3645
0.01403
30.01
12.39
0.3154
0.3069
0.7254
0.002849
0.04597
0.5667
0.2449
0.1382
0.07722
0.0006763
0.0006797
3.337
0.4354
0.1902
2.915
1.163
7.167
0.5015
2.261
0.3989
0.5962
0.05512
1.557
0.2416
1.176
8.95
0.4394
0.1934
0.46
0.4787
0.6289
47.36
0.1249
0.5795
0.1754
0.2084
0.2324
1.296
31.26
0.1275
0.7738
0.008198
1.144
13.66
0.06452
24.08
0.65
0.3721
1.83
0.01158
0.576
9.663
0.01898
0.9946
0.8569
0.6082
21.02
0.3331
0.2581
0.66
4.82
0.4089
1.442
0.1084
1.289
1.738
40.48
3.11
0.4514
0.02193
2.337
0.1351
1.863
8.583
0.1657
0.4315
0.009837
0.3121
0.5531
0.01172
0.1618
0.002436
23.39
0.1622
4.215
0.4698
0.8232
7.024
0.5993
0.8584
3.011
56.06
0.5465
0.567
0.7081
0.5368
0.2051
0.08411
0.3502
0.01719
0.2377
0.05474
0.1757
0.01472
3.115
0.3947
0.1778
0.01533
0.7054
0.1044
1.119
0.1374
0.1978
1.544
0.4958
0.03541
10.26
1.485
3.459
1.011
0.4568
1.251
1.192
0.4407
0.09591
2.842
0.2449
0.9175
2.63
1.101
1.027
0.13
0.0176
54.12
0.546
7.96
0.0249
8.411
2.727
1.406
0.413
0.01959
0.01812
0.07121
0.1295
0.04707
0.1906
0.6124
0.382
1.21
0.02311
0.3009
5.426
1.6
0.08974
0.4244
0.2314
3.23
1.166
0.9606
1.371
0.2575
0.01544
0.4159
0.4434
4.846
0.8309
0.03453
1.159
0.01437
0.8304
0.3356
3.821
0.07663
0.03718
0.251
1.468
8.82
19.14
0.2861
0.507
1.073
0.07687
0.01022
17.71
1.082
8.893
0.08315
4.723
0.3789
0.01395
2.222
1.534
0.2292
0.2717
0.4004
0.6477
0.655
1.492
0.314
8.37
0.05305
5.219
1.372
1.661
0.001159
0.001128
1.348
1.743
57.19
4.389
1.808
1.912
51.63
0.01311
0.5488
0.01892
0.01722
0.01391
0.2182
0.004439
23.28
0.02292
21.98
0.3185
2.459
1.951
1.629
0.001034
30.5
0.1318
13.34
0.3215
3.71
0.01278
1.102
0.7846
0.2972
1.948
0.807
0.3082
16.39
22.89
0.05331
0.01024
1.483
0.0006133
0.1978
0.2871
1.295
0.006613
2.507
0.02967
0.8051
0.8682
0.3259
10.88
0.004948
0.2524
1.365
0.8774
0.1111
0.3795
0.2639
0.02073
0.09323
1.048
90.12
1.036
0.7501
0.01745
2.581
0.2312
0.1339
0.0007496
0.7232
0.5349
1.511
0.01806
3.024
0.01733
1.039
0.1056
0.8766
2.322
0.3586
4.71
3.14
0.7899
0.007648
0.7389
2.205
0.6598
8.597
2.351
0.1665
0.03358
1.082
62.1
0.8309
6.64
2.093
0.001065
0.1468
0.01517
1.874
1.442
1.284
0.02736
1.543
0.02856
0.1367
0.5203
0.008426
0.1495
0.1383
2.031
0.3719
0.01462
1.218
0.03857
2.539
10.62
0.4113
0.1272
1.099
0.02335
0.701
0.3205
11.04
2.411
0.3202
1.807
0.9523
1.823
18.65
0.04609
0.2034
2.314
0.03874
1.19
0.3903
0.2406
0.6357
0.01922
0.007334
1.027
0.1131
0.7754
0.4277
9.835
0.3581
4.095
0.2413
0.01854
4.306
1.085
0.1007
1.314
0.02568
0.6626
0.1442
0.2439
3.924
0.3061
2.014
0.8753
1.083
0.03596
0.6275
0.6488
1.511
7.247
0.02101
0.6279
2.665
0.01644
0.02077
0.3508
0.0008344
1.06
0.5901
0.5179
2.361
0.2489
0.2208
0.003004
0.2518
1.152
0.003277
0.3022
8.56
5.398
0.1727
0.5822
3.272
0.1786
4.356
0.1769
0.8246
5.25
0.0007999
0.001332
0.3877
0.01775
2.619
2.203
0.2373
2.617
1.336
0.02039
2.221
11.57
486.6
0.5423
0.4029
1.131
0.175
0.213
0.3065
0.2479
1.333
0.5325
0.537
3.311
2.511
0.3402
0.2446
0.01847
15.51
0.2094
0.4123
0.419
0.04882
1.19
0.5269
0.129
0.1661
3.011
2.357
0.5178
2.21
0.2999
9.987
1.807
0.02259
1.085
1.563
0.5327
0.8598
8.186
0.01731
13.76
12.34
0.9097
0.001759
0.2471
0.1871
1.758
1.692
0.1907
1.983
0.003289
1.6
1.183
0.06831
0.1759
0.01391
1.419
20.23
0.7771
2.198
54.36
0.2498
4.792
0.001425
18.02
1.137
0.1551
0.03713
0.1141
0.3955
0.2218
0.6905
0.001409
1.076
10.13
32.06
0.3592
0.3356
0.4328
0.7222
0.01778
0.02151
1.475
0.2328
0.01382
0.6089
0.7339
1.137
0.465
0.5982
1.932
0.4688
22.65
4.655
2.265
0.09918
0.8924
9.684
0.1925
1.089
0.1133
0.3805
0.3459
16.57
0.2365
0.3166
0.0008548
0.03794
2.205
0.3873
0.01995
0.04583
0.253
2.551
0.1955
0.9555
3.991
3.911
0.01975
1.877
0.1593
0.4076
2.736
0.1666
0.04205
0.9099
0.6359
0.2489
1.323
0.03503
1.467
0.1377
2.155
0.08421
1.222
2.702
0.4797
1.9
0.4689
1.337
0.7701
1.052
0.2113
0.1968
0.3604
0.317
1.809
0.419
29.3
0.7651
0.01457
0.4418
0.1123
2.094
0.8118
0.00354
0.3001
0.09966
4.463
0.001016
0.415
0.2791
0.3405
0.1689
0.5065
0.08218
5.143
0.1556
0.01942
0.8767
0.04253
0.2196
0.03466
0.2449
0.2305
0.08387
0.1794
0.9797
0.9541
0.02387
0.01663
0.1602
0.3566
3.197
0.03206
0.6953
0.3181
3.53
1.453
0.1291
1.724
0.5244
0.07422
0.6828
5.018
0.1752
18.34
1.32
0.1983
10.23
0.01992
0.007717
0.8093
0.1881
48.31
0.02608
0.2555
0.8852
78.16
0.8365
2.43
0.007589
0.007575
1.306
1.117
0.3215
4.976
0.03806
0.1949
0.2443
0.1344
1.868
1.481
0.7426
0.2861
2.459
0.06394
0.7302
0.116
0.352
1.989
2.801
3.035
0.7039
18.55
0.6642
1.109
0.6843
1.614
0.7673
0.09166
2.565
1.565
0.001622
0.001607
0.684
0.4514
3.202
1.064
5.035
1.495
0.003934
0.02051
1.611
0.0994
0.4512
9.812
3.873
0.1458
1.173
0.0611
18.31
6.613
0.001192
0.3708
0.4247
0.7566
0.2523
1.992
0.7128
1.049
0.7351
0.333
0.3646
0.2091
6.012
1.192
0.6186
0.4427
42.12
0.4011
0.6559
0.7855
3.965
1.113
0.6317
5.206
0.2035
1.848
0.01601
0.2015
0.09005
0.8695
0.154
5.042
0.6982
0.1571
1.476
35.86
2.076
0.673
0.6327
1.815
8.907
0.003484
0.2581
0.368
18.74
0.5391
0.358
0.1142
0.2446
0.02108
0.5199
39.26
0.3522
0.9507
0.1685
0.08667
6.039
0.1162
0.5739
0.2199
0.2118
7.103
0.1238
0.5419
0.1423
0.0484
2.974
0.4086
8.361
0.8677
0.7114
0.01009
0.3156
0.5519
1.331
8.953
0.413
0.1405
1.246
0.0185
1.718
5.407
1.455
2.335
0.7629
4.366
1.662
3.393
3.958
0.2456
2.525
1.651
0.1139
0.07358
4.514
0.0007498
0.156
0.01937
0.0495
3.427
0.01551
0.8133
1.267
0.2028
0.5219
1.779
4.74
0.4968
8.633
0.5554
0.194
7.059
0.4839
0.4932
0.01924
5.231
0.2671
1.725
3.87
0.0008724
1.187
1.644
0.3287
0.3088
1.285
9.275
1.125
0.3448
0.5079
0.02235
0.12
0.06798
0.3894
0.2958
0.6132
1.073
0.9463
4.078
0.2525
0.01345
1.643
0.4305
0.1818
0.5073
0.5769
8.118
1.923
6.099
4.327
0.5869
0.9764
0.7173
0.4743
0.5395
0.1527
5.476
1.962
0.657
1.047
0.0105
2.322
1.594
0.2132
0.3359
4.587
1.873
4.173
0.288
0.8991
18.04
0.01274
2
0.1867
0.03829
1.125
3.062
0.01479
1.112
0.2826
0.9054
25.75
1.038
1.197
41.21
0.3388
0.9639
0.1914
0.1914
0.9022
0.588
0.7929
4.716
0.6803
0.01978
4.449
2.846
0.8227
0.01482
0.0134
0.9769
0.4118
0.9195
100.1
2.951
0.00636
1.525
2.827
0.1239
2.151
1.142
0.002185
0.2802
1.139
0.1282
0.2856
0.02067
0.01008
0.01435
0.004301
0.06338
0.2571
0.6384
4.428
0.337
0.5043
0.5329
4.965
0.004309
0.7487
0.316
1.093
3.29
1.153
0.4707
0.5548
1.243
0.7267
0.7555
0.04355
0.6704
70.23
1.694
2.733
0.8586
3.402
0.02057
5.355
0.5086
1.868
0.2619
0.03439
17.53
0.02662
0.3484
2.904
0.004794
1.438
0.415
0.369
0.3949
1.713
0.04822
0.9085
0.003929
1.338
0.5437
0.5751
0.2182
2.284
0.01205
0.01576
0.1738
0.662
1.193
0.08067
0.3774
1.763
0.3441
14.64
1.304
0.213
0.1608
0.27
0.388
0.127
6.65
0.8518
0.02092
9.949
0.01888
0.01258
0.1466
0.0014
16.91
0.2488
1.993
0.2796
1.67
0.03322
0.08004
0.5439
1.091
0.1835
0.00209
0.2472
57.58
5.347
0.09195
8.737
5.013
9.565
0.001157
0.1913
0.3426
0.1044
0.01736
0.1712
4.216
44.87
0.1956
1.665
6.77
0.02128
1.643
4.09
0.6611
0.02629
1.833
42.65
6.723
14.33
0.1725
0.6659
5.187
0.03238
0.4346
0.01614
0.3567
5.57
0.144
1.165
13.81
0.1087
0.4272
2.212
0.1686
0.0221
1.373
1.863
0.1308
1.381
1.398
0.2409
0.1975
0.7335
0.5368
0.3616
0.02156
0.9409
0.9986
1.118
0.7223
3.22
1.34
8.871
4.581
19.22
18.44
1.403
0.05318
5.565
0.02037
2.054
6.308
0.0219
126.8
0.1308
0.5575
4.94
2.508
0.9991
6.626
0.6368
5.083
0.01586
114.1
1.231
0.0006611
0.194
0.3946
36.07
4.188
5.103
0.2551
2.182
26.91
0.4093
0.1539
0.6476
9.099
0.008272
0.354
0.5568
0.4559
0.4613
0.2774
0.1327
2.746
0.8364
1.342
6.773
0.01518
2.574
0.1644
0.6515
0.5371
0.01779
0.08188
0.582
2.142
1.95
4.486
0.000628
0.01562
0.2756
1.207
9.12
0.2719
0.1411
0.005694
0.02339
2.555
0.005707
0.7634
2.174
0.09089
0.7991
0.3018
4.527
4.528
7.402
0.03985
1.498
0.3885
1.598
0.1624
0.1922
4.228
0.2031
3.912
1.231
1.428
0.7636
0.4933
14.87
0.2469
0.5403
0.7111
0.0008215
0.618
0.06972
0.01787
0.5091
12.36
0.4847
2.83
0.4296
4.976
35.72
0.1548
8.83
0.003803
0.1478
0.03441
0.0419
1.272
0.127
4.893
4.966
0.6899
1.562
0.1789
0.5621
2.213
0.6286
0.2038
2.73
0.194
13.3
1.329
0.001933
0.4147
0.5298
0.0596
0.02513
2.083
0.0307
2.266
0.8836
1.251
0.5094
2.469
0.00104
0.128
0.04683
2.569
2.215
4.461
0.6429
0.01419
3.261
0.01255
0.1308
0.5755
0.2339
7.681
0.7928
1.612
0.1757
14.55
0.5034
0.003477
0.3079
0.6967
0.04476
0.4025
0.03167
1.807
1.631
4.791
0.3765
0.006045
1.22
1.182
1.777
3.607
2.142
0.9266
0.01744
0.2005
0.3419
0.5027
1.818
0.3291
0.08501
0.9373
0.133
3.17
1.794
0.003885
0.1642
0.01572
0.02678
0.4522
0.993
0.934
0.01822
0.9921
1.988
0.7948
0.06912
0.7783
0.1035
2.212
0.002641
85.49
0.6563
2.291
0.0009139
0.07402
4.743
0.02549
0.7249
1.402
2.113
0.6666
1.044
0.02694
0.9602
0.6174
1.02
0.3699
1.012
0.2821
0.2892
0.976
8.589
0.01272
0.3607
0.6324
10.92
0.3112
0.07641
3.487
2.966
0.3298
0.4425
0.3797
6.999
0.03549
0.3498
0.6029
0.1637
0.4456
0.464
0.002053
1.901
10.01
0.3821
0.4327
6.108
0.8918
0.6155
0.01923
0.02475
0.09385
0.001067
41.05
0.6823
0.04471
0.01656
0.5675
12
0.04135
0.2516
1.614
0.7583
0.6367
1.682
15.42
1.27
3.361
1.692
3.024
2.674
0.01775
0.4799
0.575
0.6209
0.02328
0.1267
0.5369
0.2424
0.6108
20.35
7.974
0.1003
1.123
3.125
0.1939
4.679
0.2525
0.4986
0.2925
3.654
4.445
0.01853
2.511
0.6148
0.0432
3.462
0.268
1.05
0.07434
0.8206
1.958
0.6633
1.583
0.01401
0.0186
0.1038
0.4357
0.1716
0.384
0.02035
6.424
0.1438
0.2915
1.304
2.367
0.1403
1.066
0.009932
4.726
1.472
21.49
1.389
0.07303
5.743
0.5948
1.422
11.53
0.1303
5.203
0.1012
0.1028
0.3291
0.06965
0.01789
27.59
0.8394
2.462
1.242
0.8329
0.4822
0.001551
25.09
0.03488
1.032
0.1632
0.2155
1.017
0.3043
0.5206
0.81
0.1432
0.7122
0.00821
0.5921
1.152
17.97
6.248
0.09505
0.2847
0.3412
0.1648
0.6791
1.034
0.05645
0.03409
0.363
6.668
0.003079
0.01223
0.3512
0.9663
0.1639
12.87
0.1397
1.202
0.5829
0.6473
0.07035
0.1055
1.821
1.906
1.184
0.3674
3.733
0.09958
2.921
0.001469
1.857
16.87
0.03532
0.4122
0.2258
1.488
2.048
0.7289
0.08334
0.01035
1.051
0.1663
0.01681
2.124
3.379
0.2076
0.1567
0.08084
0.06928
0.02309
4.138
0.3953
0.0202
8.083
1.089
0.7496
0.02258
0.03844
0.01584
0.04121
0.5854
0.1693
1.567
9.705
4.374
0.9974
2.972
4.585
0.01798
11.46
1.208
1.158
0.1421
0.1637
0.4446
1.289
2.805
5.356
0.664
0.03454
0.3909
2.773
0.5768
0.907
0.1253
0.4668
0.1628
2.199
0.001197
0.5331
0.6676
0.5515
0.455
2.902
13.08
4.466
0.01038
61.2
0.559
0.1716
4.651
0.0291
1.029
0.8767
0.006666
2.616
3.79
0.2052
0.5405
0.1444
3.19
0.01731
0.3239
4.826
0.2492
0.01655
2.311
0.2736
0.02966
0.3042
0.1713
0.8194
5.779
1.599
1.168
0.2506
0.6716
1.077
0.01923
0.0331
3.322
0.5963
0.7313
0.06825
4.859
0.8801
0.3884
0.4338
0.3712
1.398
0.03424
0.05877
0.7673
0.7094
0.05401
0.8687
2.206
0.1667
1.155
1.402
0.179
0.05265
0.1517
0.4029
0.7588
0.5912
0.06472
1.082
0.003096
0.2872
0.4958
0.2017
1.166
0.5423
11.5
0.2979
0.3685
0.01238
0.007275
0.3093
0.366
2.444
5.949
0.4837
1.665
7.986
0.8443
0.4557
1.168
1.431
3.866
0.9887
0.03961
2.79
0.3859
1.883
0.3135
0.2257
0.2433
0.9267
0.03874
0.4506
0.108
0.02206
0.08437
2.791
0.01467
8.865
2.093
0.6707
0.0178
0.7588
1.06
0.001008
0.7078
1.087
0.9433
0.5653
1.072
0.03388
1.713
0.1178
0.1998
1.497
6.431
0.4999
1.513
9.88
0.006795
0.02525
0.7909
1.38
2.539
0.2182
1.739
1.875
0.2738
0.1906
0.01768
6.018
2.162
0.1304
0.2711
0.0165
1.402
0.08498
1.036
1.478
0.6143
0.01241
10.31
0.8612
0.01935
0.7209
1.596
0.08176
0.01101
0.01185
1.657
22.81
0.4466
0.1248
0.4087
0.07459
0.8377
0.5838
0.01343
0.4744
0.4271
8.516
8.717
1.363
0.01215
1.427
0.6753
0.8828
0.8361
5.234
0.7474
0.8477
0.8824
0.6742
1.629
2.492
0.1073
0.001092
0.1156
0.03396
10.37
0.01739
0.1781
1.434
0.489
0.1905
6.499
0.8054
18.85
0.225
14.44
0.5216
0.2394
2.412
8.212
0.2575
6.396
11.61
0.02175
6.477
6.075
3.339
2.727
0.8919
0.1772
0.4843
0.5658
0.5417
0.04701
0.4109
0.2269
0.3395
0.2457
0.3901
0.5621
0.193
0.1174
5
0.837
29.97
0.5953
1.439
0.006042
1.822
0.694
2.348
0.2669
4.166
1.469
1.077
0.1074
4.789
0.1063
0.4435
0.4943
0.05601
0.2244
0.3259
0.4842
0.387
0.5314
0.2965
0.9456
0.2814
4.331
0.4875
3.901
0.05015
0.3167
0.4506
0.1881
0.04226
6.987
0.02008
0.01453
0.02114
0.3115
0.7365
0.6334
0.06674
0.2384
0.2795
0.05771
6.34
3.424
4.859
0.9246
0.06668
1.65
21.31
0.06566
1.019
0.03231
0.6725
0.135
0.6407
0.1862
0.01097
0.008781
0.9486
0.1625
0.04808
12.63
0.8182
0.05486
0.02652
0.485
0.03285
2.636
2.983
0.004824
0.6785
0.6479
4.701
2.739
13.5
1.621
0.1116
0.4114
1.055
0.2399
1.622
1.097
0.775
1.942
0.4413
10.08
0.01913
1.146
1.772
11.26
0.04004
0.2871
0.02234
0.3012
0.2615
1.183
0.8684
1.073
5.89
0.1466
1.993
10.42
0.9183
3.232
1.652
0.3689
0.2748
0.618
1.646
0.2333
2.135
0.00298
5.724
4.328
2.056
0.3945
0.5784
4.594
1.324
0.2547
0.04623
71.27
0.4349
0.0007701
0.001381
0.00304
1.176
7.747
0.2102
24.58
0.5529
0.001085
1.036
0.6519
0.4027
1.387
64.45
3.219
0.3665
6.736
0.2851
0.5204
8.655
0.3272
0.428
0.1833
2.077
0.2649
0.2525
0.3051
1.515
0.2081
0.7805
1.154
0.2039
5.16
0.6854
0.06156
6.085
0.2796
8.393
0.7529
0.008236
0.1129
1.732
0.02286
0.2968
5.517
3.67
0.1803
0.01209
0.1454
0.2929
0.3027
0.05095
1.376
0.009863
1.423
0.4973
0.6166
0.5127
1.216
1.186
1.794
5.905
0.5212
0.5587
0.02787
13.49
0.0436
0.001375
0.5127
0.01815
2.817
0.1764
8.552
0.04482
1.413
0.3869
1.34
1.357
0.09852
0.434
0.2563
1.515
2.357
0.5925
0.07108
0.01617
0.5253
1.606
0.08925
0.3192
0.8623
0.9444
1.379
0.007698
0.287
1.636
4.88
0.697
0.4319
1.381
0.9938
0.01993
0.293
25.68
1.992
0.04671
0.155
0.7356
0.1026
0.6799
2.279
0.7521
0.04695
0.05297
0.1323
0.01392
0.01312
0.02444
0.1506
16.32
2.023
0.1443
0.7395
0.2463
0.07855
0.1591
0.2695
0.8963
0.04808
0.03303
1.937
0.08881
0.02179
0.9228
0.665
0.1312
5.517
5.257
0.02117
0.3559
0.3232
0.9047
0.5612
1.159
0.1633
0.8497
4.746
0.5225
5.558
0.173
2.313
0.4041
0.9434
0.3581
10.28
0.06515
17.79
0.8718
0.02218
0.02958
0.004154
0.4945
0.3396
3.526
3.377
3.15
0.0809
0.01054
1.434
1.497
0.1842
0.01722
1.744
0.1989
2.055
0.6612
10.67
2.581
1.68
1.687
0.9528
0.1028
1.78
0.78
0.3585
0.3959
0.05809
0.01599
0.2452
0.2799
1.841
7.142
0.4518
0.03033
1.536
0.07616
0.1353
0.01776
4.262
0.8178
1.297
1.419
0.527
0.2998
0.3283
0.2146
0.2369
0.761
0.1892
0.1379
0.04201
0.3269
11.65
0.1231
0.4676
19.43
0.005861
0.02122
0.2276
0.02468
0.05712
3.443
0.06529
0.06519
0.7307
0.01294
0.3579
2.134
1.36
0.178
0.1497
0.03384
0.05188
0.3299
0.9063
1.939
7.314
0.3464
0.004784
0.1534
0.9294
2.375
0.08292
0.04714
0.04184
3.258
0.12
0.07078
0.3281
1.094
0.07048
0.02688
1.189
0.01189
0.01873
0.01128
5.975
0.05875
0.7952
0.1612
0.02648
0.06169
0.1757
0.2299
1.982
0.2117
0.5394
0.3926
0.106
10.49
0.3428
1.51
0.03742
0.5561
0.5011
0.7182
0.6402
0.206
0.5987
0.362
0.1557
1.045
0.06592
135.8
0.6738
11.24
0.103
3.375
0.01978
0.04612
0.4008
1.311
0.1789
0.5045
0.1524
0.001438
18
0.001423
0.8447
25.24
0.1421
0.2879
0.00206
5.826
0.01777
0.223
0.2703
0.6121
0.7352
0.0165
24.43
0.03049
0.4616
1.628
0.7079
0.8569
14.77
0.5765
10.33
0.5956
0.01426
0.252
1.637
0.02041
0.08351
3.024
0.1911
20.38
2.205
4.31
0.02649
0.4761
0.02554
0.01606
0.02537
3.458
0.1476
0.2068
0.001145
0.3662
0.2307
1.21
1.002
12.3
0.01774
1.129
3.631
0.7309
0.1336
0.2256
0.03331
0.5516
0.005837
0.357
0.9843
0.01636
0.9367
21.88
0.5157
2.377
0.3078
4.679
3.081
0.5171
2.046
6.934
0.7211
3.201
0.8394
0.3031
1.181
0.4321
0.5059
0.7553
1.458
0.003763
0.7938
0.002586
2.311
10.86
0.6519
0.9705
10.75
0.2384
0.5277
0.001239
1.026
0.3933
22.43
0.1978
0.01159
0.2742
0.6196
0.8187
0.001197
0.7343
0.8262
0.3405
0.2752
4.042
2.111
15.45
0.5839
1.124
0.6418
0.2096
0.7451
0.02072
3.578
1.375
0.01837
0.3437
0.3604
0.6634
1.556
2.302
0.05826
4.327
4.378
0.08151
1.037
3.683
5.32
1.853
0.00478
0.00188
0.8374
0.5668
0.5388
0.01226
3.42
0.5968
2.731
6.406
0.007749
0.9504
2.814
0.3349
20.87
0.7312
0.8873
0.6806
0.2516
0.6626
0.01832
0.4506
14.26
0.4772
1.053
0.2193
0.2665
0.009649
0.00293
0.6704
0.5486
0.3095
1.186
0.3758
0.01554
1.184
1.392
0.1694
2.162
30.84
1.705
0.001144
0.148
0.02057
0.8138
1.116
1.43
3.304
1.852
2.39
0.02847
1.202
0.03138
0.1528
1.387
0.32
4.824
0.672
25.18
0.04239
1.055
2.341
0.01754
0.7376
0.4006
4.461
0.1554
0.03782
0.01597
0.003864
0.4075
0.01534
0.3047
1.657
0.2409
0.2973
0.7043
0.04914
0.6118
0.1782
0.003607
2.547
0.9604
4.787
0.7268
0.01707
1.918
2.642
0.02079
3.187
0.1923
1.766
0.4786
12.95
0.3127
3.189
0.1769
0.2018
0.04183
0.2279
0.04363
0.06427
3.398
0.6276
0.6419
0.5056
0.4644
0.74
0.01902
0.06055
0.07304
0.4112
0.322
0.888
11.47
0.1217
0.02293
2.269
0.1256
2.849
0.01165
0.7793
1.745
0.2116
0.18
1.863
1.093
0.9952
0.3837
0.7679
0.01622
1.57
0.2283
0.6137
1.066
8.982
2.113
0.07421
0.3587
0.3678
0.2071
41.94
0.01598
1.397
0.5158
0.2517
0.3709
0.3855
31.61
0.4309
5.642
1.587
20.11
0.3649
0.2421
5.682
1.301
0.02312
1.133
0.2513
0.9909
0.7688
0.201
3.393
0.001287
0.8611
3.525
2.125
0.9344
3.086
2.957
0.02046
1.299
1.057
0.8209
0.1351
0.05042
1.17
0.4103
0.8977
2.797
0.01016
0.5601
0.2099
0.2791
0.3287
1.404
1.751
0.3286
1.955
2.414
0.0067
0.4119
0.3267
10.11
1.753
5.468
0.4604
0.416
0.283
0.1289
0.8371
1.023
7.081
2.667
4.821
29.02
0.4081
0.1169
16.47
1.801
2.541
0.001166
3.03
8.198
1.655
0.526
0.01557
1.68
0.02492
0.315
1.777
0.4474
0.9205
0.18
2.106
0.3297
5.134
0.2834
1.253
0.8652
4.452
1.565
1.185
0.3685
0.2041
8.754
0.1787
9.313
0.3776
0.3754
0.02806
8.782
0.1815
0.0571
0.01871
0.3795
0.75
0.03053
0.00663
0.01777
0.7257
2.895
23.59
0.08113
0.001948
0.5947
0.006339
0.004801
1.423
0.0007563
0.6889
8.191
0.05109
1.109
0.5906
1.242
0.1437
0.6906
0.06602
0.561
0.2507
7.973
0.3698
0.6502
0.9971
2.314
0.09864
0.00195
0.1581
2.402
0.01909
0.1293
0.6876
2.239
9.154
0.5096
0.5252
2.088
0.01542
0.462
1.161
1.014
0.6246
0.4662
0.0006106
0.4922
0.3894
1.153
0.7875
0.9151
0.001488
2.362
0.6045
0.001271
0.3003
0.0005834
1.07
0.01834
15.78
11.42
0.02614
0.7346
0.9074
0.1099
7.856
1.593
0.01578
1.703
0.3696
0.9061
3.08
0.0421
0.08749
7.601
0.5349
0.7303
0.1701
0.4056
0.222
0.3217
0.8112
0.001193
0.3016
1.29
0.3789
0.3352
0.2462
1.549
0.3396
0.3867
2.352
0.4568
0.2566
2.799
0.03123
0.2056
4.04
0.2343
0.04387
0.241
0.5713
1.349
0.7908
0.6626
5.974
0.2428
0.8145
0.5536
0.003946
0.3043
2.392
0.2186
1.885
0.04075
1.432
0.1551
0.3665
0.08918
0.1675
3.22
1.398
0.231
0.6443
7.61
0.4927
0.008642
0.01417
0.2633
2.48
2.084
0.3791
0.459
0.1835
0.7979
0.1111
0.1689
18.74
0.1759
0.1699
6.835
0.9115
0.3344
0.2675
0.06008
111.7
0.01529
0.3836
0.9422
0.4447
0.5083
0.4734
2.267
0.2069
0.8365
0.09854
67
1.612
0.2386
57.49
5.134
1.859
1.181
0.00301
0.1637
0.09099
3.626
0.04084
2.231
19.01
0.07178
1.04
0.3198
0.3562
6.455
1.618
9.02
5.23
0.9254
0.007538
0.007605
0.02473
0.8544
13.02
0.2636
0.0161
0.0789
5.815
0.7198
9.72
0.4109
0.01461
77.38
0.05108
0.2196
0.1998
0.03571
0.3633
0.1891
0.2242
0.06553
3.309
0.2566
0.6402
0.6645
53.4
0.2326
1.996
1.01
0.1667
0.09465
44.94
1.951
5.484
0.4324
0.9126
3.575
3.421
0.1031
0.2545
1.166
0.7045
2.438
0.002191
11.94
0.3274
5.959
0.2723
0.03508
0.06115
0.0149
1.146
0.4021
0.5239
0.5433
0.2706
4.187
0.7667
0.2264
0.1364
1.265
0.1199
1.058
1.568
1.316
0.1958
0.06504
0.3385
0.3136
0.6831
0.1403
0.901
1.473
5.84
0.3697
0.3645
2.694
0.3935
2.711
0.2725
0.8014
0.1104
4.926
2.63
1.852
0.2795
3.724
0.06247
2.528
1.983
0.6246
0.3783
0.3776
1.021
1.363
0.3163
0.5439
0.3992
2.66
26.74
0.002999
0.03236
0.01247
0.7152
1.092
0.4582
4.737
2.837
4.12
1.243
0.7657
2.532
5.02
0.284
1.627
2.141
0.7517
8.266
0.01727
9.225
3.166
3.316
0.08594
3.023
0.5383
0.9904
1.922
2.191
0.01556
0.07484
1.028
3.562
0.005174
0.7122
0.1041
0.5029
234.1
0.001282
0.2322
0.1581
1.111
1.357
0.2052
0.6233
1.382
1.041
3.178
1.275
0.04419
0.195
13.57
0.02163
0.0173
8.591
4.147
0.6723
0.6865
0.06711
0.6142
1.536
1.011
2.216
0.8812
0.03661
0.8289
0.1932
0.1707
0.01124
0.9827
0.006337
51.03
0.8385
1.182
0.1456
10.61
0.01346
1.93
0.00514
0.1048
4.452
0.2514
8.983
0.176
0.07028
0.7201
0.6696
0.3038
0.5651
0.3562
1.565
2.79
0.8818
1.734
2.846
5.739
0.8486
0.5785
1.498
5.426
1.088
0.4479
0.1714
0.008558
29.56
0.535
0.6562
9.256
0.01702
2.893
0.1543
0.008267
0.2206
62.5
0.1417
1.548
18.27
0.06423
1.341
1.052
0.2601
0.1566
0.5639
16.93
2.959
0.02228
9.432
22.14
0.07811
0.01638
0.9687
2.235
0.8554
2.255
0.8489
3.744
0.01738
1.09
0.1588
3.926
2.088
9.544
0.008293
0.008378
0.1671
1.209
0.03474
0.2083
0.2473
3.701
0.3374
0.3543
1.79
0.08842
0.01847
9.574
2.953
4.366
2.659
0.04202
0.6252
0.002813
0.7648
9.919
0.7018
1.332
5.016
1.548
1.632
1.247
0.6319
0.6182
0.02159
0.01718
0.02001
0.2037
1.252
1.081
6.255
1.21
0.01802
0.6647
1.036
2.86
6.574
0.6329
0.7272
2.689
2.679
0.08274
0.3924
0.2488
1.675
0.08014
2.562
0.2654
0.4978
0.8522
2.917
0.004525
0.0152
4.53
0.3255
0.1671
0.3813
12.59
0.5509
0.004913
0.4961
0.4845
0.8902
0.5096
1.709
0.6441
1.145
5.077
0.09872
0.0005936
0.8469
0.06046
0.1161
0.06997
8.971
0.324
2.216
0.402
0.4723
0.9779
0.02543
2.05
2.049
0.4511
0.3395
1.882
18.67
0.03376
0.01663
2.443
0.4342
0.8601
0.2758
0.1311
1.332
0.04923
0.02923
0.7561
1.424
0.02007
1.315
1.159
0.01324
5.208
0.03727
0.3109
0.637
2.309
0.2227
12.77
1.158
0.4575
0.03687
0.01546
0.3099
0.4777
0.4873
0.2225
0.007332
0.007094
0.02052
0.4292
0.9042
2.156
0.0007059
2.071
0.3139
1.648
0.6322
3.701
0.1457
0.03391
3.217
0.01771
6.079
0.8958
0.03178
0.8583
0.4041
0.9462
0.9938
0.6596
0.2576
0.3857
0.001574
13.54
1.015
9.231
0.1457
0.5478
0.01555
7.634
0.01432
0.5231
2.647
0.01585
0.1711
0.634
1.136
0.001092
0.209
44.4
0.2376
0.01849
0.4268
2.973
0.2959
1.212
0.2124