/*--------------------------------*- C++ -*----------------------------------*\
  =========                 |
  \\      /  F ield         | OpenFOAM: The Open Source CFD Toolbox
   \\    /   O peration     | Website:  https://openfoam.org
    \\  /    A nd           | Version:  8
     \\/     M anipulation  |
\*---------------------------------------------------------------------------*/
FoamFile
{
    version     2.0;
    format      ascii;
    class       surfaceScalarField;
    location    "55";
    object      phi;
}
// * * * * * * * * * * * * * * * * * * * * * * * * * * * * * * * * * * * * * //

dimensions      [0 3 -1 0 0 0 0];

internalField   nonuniform List<scalar> 
189008
(
1.763e-07
-1.763e-07
3.661e-09
-3.661e-09
1.502e-08
-1.502e-08
2.138e-08
-2.138e-08
-5.915e-06
5.915e-06
2.227e-08
-2.227e-08
1.358e-05
-1.358e-05
-6.74e-06
6.74e-06
-4.116e-06
4.116e-06
-1.553e-05
1.553e-05
8.765e-06
-8.765e-06
-5.846e-06
5.846e-06
-4.651e-08
4.651e-08
-2.527e-08
2.527e-08
0.0002052
-0.0002137
8.508e-06
1.305e-05
-1.488e-05
1.83e-06
-7.168e-08
7.168e-08
0.02857
-0.01191
-0.01666
0.00483
-0.003082
-0.001748
-2.003e-05
2.106e-05
-1.025e-06
-0.002292
0.001978
0.0003139
-3.671e-06
1.988e-06
1.683e-06
-0.002955
0.01057
-0.007618
1.738e-05
0.0005943
-0.0006117
-2.286e-06
-1.385e-06
-0.0004921
0.0002648
0.0002273
0.0002128
-0.0002355
2.276e-05
0.0002349
-2.207e-05
0.0003058
-0.0002345
-7.135e-05
0.01759
-0.03045
0.01286
-6.067e-05
-0.0002759
0.0003365
-0.0001439
-0.0003482
0.000171
-0.0001152
-5.576e-05
0.0004092
-0.0002383
-0.0001709
0.01212
0.01066
-0.02278
5.633e-05
0.0001147
-5.759e-05
-0.0004618
0.0005193
-0.004348
0.005216
-0.0008681
-4.904e-05
0.0006304
-0.0005813
-0.0001091
0.0001209
-1.177e-05
0.002812
0.002017
0.001319
-0.003333
0.002013
-9.479e-05
-0.0039
0.003995
1.307e-07
-1.307e-07
0.0006282
0.02794
0.0002288
0.0001804
0.0001974
0.0001084
0.0009883
-0.0009893
1.038e-06
-0.0008815
0.001072
-0.0001902
-3.011e-05
0.0005161
-0.000486
4.443e-06
8.602e-06
-0.01265
-0.0302
0.04285
0.0006415
0.0002823
-0.0009238
-0.01222
0.009589
0.002633
1.084
-0.1297
-0.9543
0.001197
-0.0009389
-0.0002581
-0.1446
1.229
0.01175
-0.007425
-0.004325
-0.3113
0.02021
0.291
-0.00653
-0.005691
-0.002402
-0.0004831
0.002885
0.001721
-0.002912
0.001191
-0.0001828
0.001575
-0.001393
-0.8104
0.9561
-0.1458
0.0002739
-0.0006536
0.0003797
-0.0002381
-0.003707
0.003945
-0.02787
0.02028
0.007591
0.00195
-0.00161
-0.00034
0.0005403
0.00141
-1.286
0.4821
0.8039
-7.968e-05
-0.000387
0.0004667
-9.083e-05
-0.0001447
0.0005637
0.002727
-0.003291
-0.1164
-0.1948
-0.2766
0.5187
-0.2421
9.717e-05
0.0001377
-0.05114
0.09211
-0.04097
0.001095
-0.001018
-7.724e-05
0.0006021
0.000595
0.1608
-0.6346
0.4738
-0.0002993
0.0002267
7.256e-05
-9.316e-06
-1.072e-05
-0.0002936
-0.0003814
0.000675
1.468e-05
8.427e-05
-9.895e-05
-0.0006645
0.001001
-0.0003361
0.0006108
-0.0009438
0.000333
-0.0006595
0.001274
-0.0006142
-0.0002568
7.774e-05
0.0001791
-0.003489
0.003251
-0.000398
0.0006456
-0.0002476
0.1817
-0.01651
-0.1652
-0.007039
-0.002656
0.009696
-0.0003282
0.0008542
-0.000526
-0.001282
-0.001011
-0.001155
0.001186
-3.187e-05
0.02354
0.01685
-0.04039
0.003188
-0.001869
0.0003843
-0.0003884
4.165e-06
0.0009367
0.000186
-0.001123
-0.0198
-0.008073
0.6868
-0.526
-1.316e-05
-0.0008683
-7.561e-05
-0.0001955
0.0002711
0.004183
-0.005061
0.0008781
-0.0001816
0.0007924
0.001237
-0.0003006
-0.001052
0.001511
-0.0004588
-1.007
-0.2793
-0.001524
0.0007407
0.0007829
-1.159
0.8798
0.2794
0.000209
-3.786e-06
-0.0001847
-7.205e-05
0.001758
-0.000275
-0.001483
9.162e-05
-0.0005003
0.0004086
-0.2126
0.09804
0.1146
0.0006613
0.002546
-0.003207
-0.1066
0.05911
0.0475
0.1643
-0.4409
0.02412
-0.07526
5.183e-07
-4.158e-07
-1.025e-07
-1.258
0.09849
-0.0001458
-0.0002996
0.0004454
-0.0004617
-0.0008476
0.001309
0.01406
-0.01185
-0.002206
-0.0001947
-0.0001046
0.0003969
-0.0003674
-2.948e-05
0.001595
0.0007309
-0.002325
0.08667
-0.1026
0.0159
0.001731
-0.0006685
-0.001063
-0.000812
0.0006488
0.0001632
-0.0009091
0.0002873
0.0006218
-0.0009289
0.0003618
0.0005671
-0.0003229
-0.001179
0.001501
0.0004619
0.0006335
1.73e-07
-1.367e-07
-3.635e-08
-0.0009598
5.064e-05
-0.005907
0.03258
-0.02667
0.0009986
-0.001814
0.000815
-0.0002723
0.0003168
-4.451e-05
0.02811
-0.04931
0.0212
0.01
0.0001458
-0.01015
-0.04971
-0.04007
0.08978
0.001868
-0.002199
0.0003306
0.004136
-0.00226
-0.001876
0.001049
-0.0004073
0.001355
-0.000438
-0.0009173
-7.504e-06
-5.81e-07
8.085e-06
-0.02738
-0.783
-0.00115
0.0002211
0.0001944
-0.000302
0.0001076
0.002421
-0.003547
0.001126
0.001194
-0.0003243
-0.0008701
0.003416
-0.006011
0.002595
-0.009133
-0.0001489
0.009282
0.0003334
-0.0006309
0.0002975
-0.0008221
0.0001576
0.007664
0.004086
0.0008128
-0.0006542
-0.0001585
0.0002216
0.0007667
0.0001791
-0.0003544
0.0001753
-0.0003225
0.0006001
-0.0002776
-5.362e-05
5.362e-05
0.192
-0.01034
-0.001153
0.0003573
0.0007962
0.0001993
-0.0004455
0.0002462
-0.0002142
0.0004882
0.0005275
-6.284e-05
-0.0004647
0.0003329
0.001922
-0.002255
-0.0006654
0.0005005
0.0001649
-0.04189
0.03366
0.00823
-1.498e-05
-2.883e-05
4.381e-05
0.002686
0.001451
-0.004678
0.001959
0.002719
-0.002968
0.0009492
0.002019
1.03
-1.203
0.1726
0.0002863
-0.0002435
-4.281e-05
-0.0007546
0.0003651
0.0003895
0.000965
0.0007661
-0.0004663
0.0009281
-0.0004617
0.1167
-0.1406
0.02388
-0.001941
-0.001027
-0.1204
-0.00639
0.1268
-2.194e-05
-0.0001915
0.0002134
0.0001293
0.0001571
-0.000328
-0.000484
-0.0009485
0.00267
-0.0006464
-0.006102
0.006748
-0.0004291
0.0005207
0.0005749
-0.0005575
-0.006508
0.08279
-0.07629
7.726e-05
-0.000692
0.0006148
0.0005411
0.0001041
-0.0006452
-0.03972
0.03382
0.0004597
-0.0006019
0.0001422
1.013e-07
-0.0005437
-0.002037
0.002581
-1.467
1.196
0.2706
-1.465
1.195
0.2704
4.77e-06
1.092e-06
-5.862e-06
-0.1659
0.1328
0.03301
0.2073
-0.03981
-0.1675
-0.05757
0.04806
0.009517
0.023
-0.06049
0.03748
-0.0004525
0.000395
-6.58e-08
6.58e-08
0.0002978
-0.00104
0.0007424
0.0265
-0.008312
-0.01819
0.002778
-0.0006433
-0.002135
0.04308
-0.02549
-0.2075
-0.005092
-0.0006194
-0.01558
0.0162
0.0009436
-0.0005123
-0.0004314
-0.06053
0.2007
-0.1401
-0.0002971
-0.0003683
-1.015e-05
0.0004487
-0.0004386
4.007e-06
-5.297e-06
1.29e-06
3.694e-05
-3.376e-05
-3.176e-06
0.003569
-0.002149
-0.00142
0.0002815
-0.0009407
0.0006592
0.02191
0.004592
-0.0006146
0.0001802
0.0004344
-0.4705
0.2197
0.2507
0.001048
0.0001465
-0.0007845
0.001098
-0.0003136
0.0001707
0.0001043
-0.000275
6.284e-05
-5.269e-05
-1.015e-05
-0.0003212
0.0005205
1.294e-05
-0.004361
-0.0001176
0.0001199
-2.274e-06
-0.001405
0.001244
0.0001611
0.002062
-0.0005818
-0.00148
-0.0432
-0.07719
0.003184
-0.00262
-8.018e-07
1.113e-06
-3.115e-07
0.001224
0.0008375
-0.02343
0.0189
0.004525
-0.0003722
-0.0007812
1.068e-06
-1.068e-06
0.2277
-0.02034
0.001261
-0.0002348
-0.001026
0.0009459
-0.0004047
0.0003858
-0.0008257
0.0004399
-0.0007007
0.0004663
0.0002344
0.0004192
0.0003936
0.0005737
0.0003939
-0.0009675
3.342e-07
1.841e-07
0.0009541
0.0004465
-0.001401
-0.0002346
0.0002109
2.365e-05
-6.181e-06
6.181e-06
0.1945
-0.9639
0.7694
-0.0009031
-0.001495
0.002398
-0.0001312
0.0003339
-0.0002027
0.002375
-0.001122
-0.001253
0.002892
-0.0009097
-0.001983
-0.0001829
0.0008458
-0.0006629
0.000838
-0.0004796
-0.0003584
0.116
-0.02929
9.021e-05
-0.0004234
0.0003332
-0.0002137
0.001535
-0.001322
-0.009977
0.0003804
0.009596
-0.003481
0.001801
0.00168
-0.06037
0.09517
-0.0348
-0.01245
0.005412
-0.08865
0.03893
-0.0009938
-0.0009196
0.001913
6.131e-05
0.0005287
-0.00059
-0.0002455
0.0005088
-0.0002633
0.0002219
-0.0004987
0.0002768
-0.0009822
-0.001232
0.002214
0.001546
-0.004684
0.003138
-0.0005606
-1.021e-05
0.0005708
0.864
0.1663
-0.0009533
0.00124
-0.000287
0.00136
-9.955e-05
0.001105
-0.001876
0.0007709
-0.000798
0.0008752
0.0009369
0.0008209
0.001096
-0.001287
0.0001907
-0.3843
-0.441
0.8252
0.0008627
0.001427
-0.002289
-0.537
-0.3451
0.882
0.04098
-0.01744
0.004208
-2.497e-05
-0.09168
-0.1636
0.2553
0.04836
0.119
-0.1674
2.19e-07
-7.168e-08
-1.473e-07
0.000977
-0.0007899
-0.0001871
-0.0775
-0.1005
0.178
0.001406
-0.001039
-0.0003669
0.1649
-0.04817
-0.001055
0.004471
-0.002476
0.005752
-0.003275
-0.01036
-0.01306
0.001033
0.001413
-0.002445
-0.2021
0.236
-0.03385
-0.0006172
0.001079
-0.0004621
-0.0002516
-0.0001841
0.0004357
8.177e-05
-6.031e-05
-2.146e-05
-0.0002493
-0.0004513
0.003413
-0.001867
-0.000229
-0.0003963
0.0006253
-0.00444
0.001375
0.003065
-0.001229
-0.002194
0.003423
0.003806
-0.003145
-0.0001448
0.0002503
-0.0001054
0.0007798
0.0001467
-0.0009265
0.002542
0.0002365
-0.1817
0.1212
-0.006127
0.00302
0.003107
-0.003049
0.00309
-4.081e-05
0.001189
0.0001139
-0.001303
2.611e-05
2.792e-06
-2.89e-05
-0.000831
0.0005453
0.0002857
-0.8466
0.3097
-0.255
0.1314
0.1236
0.0003385
8.351e-05
-0.000422
0.003009
-0.004046
0.001036
-0.0001914
-0.0003185
0.0005099
0.0151
-0.008993
-0.006102
0.1961
-0.1854
-0.01069
0.009745
-0.0127
-0.0004273
-2.996e-05
0.0004573
0.09183
-0.04961
-0.04222
0.001665
0.0007109
0.0004827
-0.0001441
-0.001027
0.002596
-0.001569
-0.01593
0.03149
-0.01556
0.0001839
-0.0003143
0.0001304
0.0008145
-0.0003259
-0.0004886
-0.001687
0.00059
0.001097
0.002951
-0.001606
-0.001345
0.1963
-0.1479
-0.005585
0.0177
-0.4994
-0.9673
-0.4988
-0.9665
-0.01147
0.002333
-0.001224
0.001011
0.0002133
-0.004476
-0.0002019
0.0009205
0.002031
8.474e-05
0.0006904
-0.0007752
-0.0141
0.04221
0.00243
0.001139
-0.001232
0.0004455
0.000786
9.953e-05
0.0004393
-0.0005388
-0.001115
0.0008991
0.0002155
0.0004033
0.001002
0.000666
-0.0002641
-0.0004019
-0.001015
0.001285
-0.0002699
0.0007543
-0.0005247
-0.0002296
-0.0002769
0.001386
-0.001109
-0.0009767
0.0007663
0.0002104
-0.003485
0.004873
-0.001387
3.155e-05
-0.0002304
0.0001989
-0.0006984
-0.001658
-0.02732
0.02898
0.0007914
-0.0006949
-9.649e-05
0.002336
0.0005567
-0.000457
-0.0009415
0.001398
0.2902
-0.3992
0.109
0.0006758
0.0001387
-0.0005886
0.001153
-0.0005645
-0.001763
0.00158
-0.006148
-0.006023
0.01217
0.0009434
-0.0009852
4.186e-05
-9.094e-05
0.0007365
-0.0006456
0.383
0.1352
-0.5182
-0.1161
-0.04975
-0.186
0.256
-0.07005
0.0004289
-0.0005169
8.801e-05
0.4356
-0.8198
-0.001692
0.002278
-0.0005856
0.05955
0.03228
0.0002794
-0.0004107
7.478e-05
-0.0005982
0.0005234
0.1102
-0.1167
0.026
-0.009538
-0.01646
-0.0001815
0.0008538
-0.0006722
1.311e-06
4.372e-07
-1.748e-06
0.0008398
-0.001473
0.0006336
0.9306
-0.6949
-0.2357
0.0005854
0.007049
-0.007634
8.618e-05
0.0003107
-0.0009865
0.0007054
0.0002812
0.00703
-0.005335
-0.001695
-0.08687
-0.01974
2.392e-05
3.389e-06
-2.731e-05
0.01512
-0.02041
0.005287
1.031e-06
-0.0001101
0.001895
-0.00254
0.0006444
-0.001531
-0.002814
0.004344
0.2451
-0.256
0.01092
0.00684
-0.005667
-0.001173
-2.379e-05
9.081e-05
-6.702e-05
0.0002354
0.0006206
-0.000856
-0.0007672
0.0008494
-8.221e-05
-0.000166
0.0003478
-0.0001818
0.004704
0.002136
-0.0003793
0.0003186
-0.02292
0.02126
0.01273
-0.07309
0.0001004
-0.0001676
6.722e-05
-0.5093
0.03884
0.002475
5.701e-05
-0.002532
0.0002011
-0.000223
-0.002014
0.01714
-0.004269
0.003387
0.0008827
0.0003589
-0.00116
0.0008013
-0.002148
0.002131
1.656e-05
0.1103
0.4882
-0.5985
0.0004602
-0.0009265
-0.0003377
-0.0002333
0.000571
-0.000866
-1.675e-05
0.0008828
0.001538
0.008462
0.000169
0.0006576
-0.0008266
-0.001254
0.0007923
-0.0003796
-0.000775
0.001556
-0.001335
-0.000221
-0.0006831
0.0001225
-0.001144
0.003305
-0.002162
-0.0009438
0.0001748
0.000769
0.0005898
-6.224e-05
8.537e-05
-7.934e-05
-6.03e-06
0.0005908
-0.0006345
4.372e-05
-0.673
0.8675
-0.001867
0.000462
0.006902
-0.01049
0.003584
-0.003839
0.003744
-0.01265
0.0004967
0.01215
0.000553
-0.0001672
-0.01041
-0.007897
0.0183
-1.278
1.44
-0.1621
-0.0007809
0.0007902
-9.279e-06
0.0001721
0.0001312
-0.0003033
0.002624
0.009616
-0.01224
0.003289
-0.003572
0.000283
0.5737
-0.1908
0.001027
-0.002057
0.00103
0.0001447
-0.000629
0.0004843
-0.05802
0.04537
-0.02187
-0.1803
0.6995
-0.6532
-0.04631
0.0007025
-0.0007326
0.05794
-0.02536
-0.0004112
-0.0001552
0.0005663
0.05092
-0.05473
0.003812
5.085e-05
0.0003334
-0.01185
-0.1316
0.1434
0.0006829
-0.0004936
-0.0001893
0.05828
-0.2442
0.0003303
0.0006133
-0.001472
0.001554
-8.148e-05
-0.000973
0.0005456
0.0004274
-0.001282
0.002884
-0.001601
0.0002608
-0.0005164
0.0002557
-0.02011
0.008602
0.01151
-0.0007109
0.0003808
0.0003301
0.0004887
0.0001733
-0.000662
-0.0007404
7.865e-05
0.0006618
-0.0008167
0.0001793
0.0006374
0.001374
0.006393
-0.007767
-0.002431
0.002108
0.0005382
0.0008548
-0.001393
0.001242
-0.004079
0.002838
0.001065
-0.001314
0.0002491
-0.0007341
0.001272
0.3493
-0.9391
0.5898
0.1211
-0.001957
-0.1191
0.002561
-0.001107
-0.001454
-0.0004942
0.0005267
-3.245e-05
-1.541
0.1228
1.419
-0.001957
0.001216
0.0007414
-0.00436
0.01142
-0.00706
0.005396
0.00866
-0.0008566
0.003866
0.03097
-0.01621
-0.01476
1.419
-0.269
-1.15
0.0001826
-0.0005418
0.0003593
-0.009656
0.005295
-0.0001813
0.000159
2.233e-05
-0.001292
0.000629
0.0006625
0.0002663
-0.0001854
-8.094e-05
0.000572
-5.281e-05
-0.0005192
0.0006682
-0.0001022
-0.000566
-0.0004605
-0.0003705
-0.0008735
9.703e-05
0.0007765
0.0006234
0.002666
0.001426
-0.0004545
-0.0009719
-0.125
0.257
-0.132
-0.0002749
0.000454
-0.09996
0.08316
0.0168
0.0006391
-0.0005533
-8.58e-05
0.0006085
-0.001268
-0.001139
0.00102
0.000119
7.302e-05
-0.001317
0.001244
-1.408e-08
-5.173e-08
0.001018
-0.0005033
-0.0005146
-0.001083
0.0009001
0.0001827
0.02953
-0.01694
-0.01259
0.001569
-0.002213
0.0006439
-0.2838
0.2293
0.05458
0.0001922
7.411e-05
0.1169
0.004156
-0.0003741
-2.554e-05
0.0003996
-0.002311
0.001767
-1.252e-07
1.252e-07
2.978e-07
1.637e-07
-4.615e-07
7.438e-07
-6.827e-07
-6.11e-08
1.197
-0.8186
-0.3782
0.000388
0.0004033
-0.0002405
0.001145
-0.0009049
-0.1448
-0.1102
0.001655
-0.0001225
-0.001532
-0.000337
0.001033
-0.0006957
0.0006174
-0.0006678
5.038e-05
0.003354
-0.0002882
-0.003066
-3.195e-05
-0.00144
-0.0008229
-0.0001501
-0.001228
-0.0007289
-0.0002505
0.0002302
2.023e-05
-0.4334
0.7827
0.000751
-0.0002455
-0.0005055
-2.223e-06
2.115e-06
1.076e-07
0.0006199
-0.0007097
8.98e-05
0.0005599
-0.000133
-0.000427
-6.017e-05
4.519e-05
0.0613
-0.1777
0.0032
-0.0007786
-0.04477
0.06778
0.004183
-0.002941
0.04668
0.2448
-0.2915
-0.0004515
0.0001094
0.0003421
-0.0001079
-0.0001543
0.0002623
-0.0001454
0.0001365
8.885e-06
1.528
-0.903
-0.6248
0.002078
0.0004837
0.009966
0.003551
-0.01352
-2.723e-05
3.355e-05
-6.319e-06
-0.0007818
-3.605e-05
0.0008179
0.0004113
-2.013e-05
-0.0003912
-0.005783
0.001182
0.004601
-0.1062
0.1004
0.005794
-4.725e-05
0.000231
-0.0001838
0.001062
0.0008147
-0.001877
-0.8045
-0.7368
0.00259
-0.005732
0.0008819
0.004851
-0.0005029
0.0002512
0.0003186
0.0006248
-7.575e-06
-0.0004867
-0.0003197
5.248e-05
0.0002672
0.002253
-0.000358
-0.003655
0.003638
1.778e-05
0.0009322
5.274e-06
-0.0009375
-0.0003289
0.0007102
-0.0003813
-0.0002013
-0.0005796
0.113
0.05578
-0.1688
-0.0001471
0.0001049
4.227e-05
-0.0001088
0.0006977
-0.0005889
0.0006824
-0.0007689
8.649e-05
0.0009895
-0.002124
0.001135
-0.0002952
0.0005092
-0.000214
-0.7902
0.113
0.6772
-0.7886
0.629
0.1596
0.001411
-0.01139
0.0006239
4.214e-05
-0.0007158
-0.0009503
0.001666
0.1352
-0.2062
0.07094
1.474
-0.6505
-0.8236
-0.001685
0.002749
-0.001064
0.0003114
-0.0004646
0.0001532
0.00134
-0.0005625
-0.0007777
-0.0008383
-3.521e-05
-0.0001814
-1.791e-05
0.0001993
0.0001481
-0.0001377
-1.036e-05
-0.003272
0.003131
0.0001413
-0.143
0.1006
0.04239
1.403
-1.28
-0.123
0.0001535
-7.532e-05
-7.818e-05
0.0003971
0.0007604
-0.001157
0.0005322
-0.001677
0.001145
0.3125
0.5213
-0.8338
-7.77e-05
-0.0001569
0.002285
-0.002667
0.000382
0.0006097
-0.0005946
-1.511e-05
0.4897
-0.0005712
0.0006679
-9.675e-05
-0.02894
0.1642
-0.0004799
0.0008388
0.0003773
1.362e-05
-0.0003909
0.004841
-0.006072
0.00123
0.9751
0.1613
-1.136
6.839e-05
0.0002636
-0.0003319
-0.002524
-0.0009574
-0.0001247
7.109e-05
0.3924
1.027
0.0004073
-0.001459
2.694e-05
9.996e-06
0.3949
0.3046
-0.001628
-0.002642
-0.1656
0.007108
0.1585
-0.0003487
-0.0004311
0.0007799
0.001948
-0.0005477
-0.0014
-0.2793
0.1876
-0.0005689
0.0005167
5.218e-05
0.0003042
0.0006065
-0.0009107
2.767e-05
5.981e-06
-3.365e-05
0.000495
0.0004151
-0.00091
0.002721
-0.001501
-0.00122
-0.0002598
-0.0007169
-0.0003054
-0.0006811
0.0005606
0.0002035
-0.0007642
0.0007077
-0.0007567
0.0005017
-0.0008299
0.0005982
-0.0009713
0.0003731
-0.000238
0.0002468
-8.759e-06
-0.001967
0.001481
0.0004859
0.0004985
-0.0003642
-0.0001344
-0.6004
0.9129
0.0009591
-0.0006447
-0.0003144
0.1058
-0.1923
0.08649
-0.0005306
-0.0005839
-0.1244
0.0354
0.08898
-0.0004129
0.002281
-0.3431
-0.9351
-0.1526
0.07506
-0.002295
-0.005
0.007296
-0.0004575
-0.0004863
0.0009183
0.0006343
-0.001553
-1.043
0.1276
0.9152
1.111
-0.903
-0.2076
-0.0001805
6.289e-05
0.0002054
0.000152
-0.0003574
0.0002784
-0.0005719
-0.0007132
0.0002745
0.0004388
-0.002025
0.0008218
0.001203
0.0003625
-0.0007737
0.00126
-0.001802
0.0005421
-0.0008558
0.0005182
0.0009055
-0.0004662
0.0001622
-0.0004448
0.0002826
0.0002893
8.636e-05
-0.0003756
-1.164
0.1213
-0.0002231
-0.0006428
0.0008659
-9.054e-05
0.0007985
-0.000708
2.395e-05
-0.005177
0.005154
0.008272
-0.00389
-0.004382
0.1831
-0.2399
0.0568
1.031
0.4429
0.001659
-0.002685
-1.54e-05
-0.0002569
0.0006144
0.000812
-2.532e-05
1.691e-05
8.414e-06
-0.07688
-0.04749
-0.9831
-0.404
1.387
0.0003451
0.0002506
-0.0005957
0.0008761
-8.01e-06
-0.0008681
-0.05009
-0.007488
-0.0001877
-0.0002325
0.0004201
0.01498
-0.002443
-0.01254
-0.03143
0.08574
-0.05432
0.0006583
-0.0002529
-0.0004054
0.002424
-0.00299
0.0005658
0.0008234
-0.0009139
0.005212
-0.01004
0.004829
-2.407e-07
2.407e-07
8.103e-05
-1.819e-05
-9.711e-05
-0.0007196
-0.0005105
-0.0002005
0.0005095
0.0004675
-0.0006456
-0.0002798
0.0009255
-0.0005429
-2.83e-05
0.0004256
-0.0007697
0.0003441
0.05465
0.006525
-0.06117
-0.001379
0.000471
0.0009081
-8.174e-05
6.239e-05
1.935e-05
0.0006244
0.001851
0.7476
-1.073
0.3254
0.001315
-0.0002195
-0.005367
0.004621
0.000746
0.002317
-0.004039
0.001722
1.077
0.4503
-0.02502
0.7726
2.783e-06
-5.486e-07
-2.235e-06
0.02318
0.006353
0.0004323
-0.0007868
0.0003546
-0.0005198
0.0005319
-1.202e-05
-0.0004187
0.0007449
-0.0003262
-0.004674
-0.001453
0.002502
0.003884
-0.006386
0.0003672
-0.0001965
0.0044
-0.007288
0.002888
0.001068
-0.0009054
-0.0001624
-0.1519
-0.1996
0.3516
1.057
-0.04466
-1.012
-0.00244
-0.0001617
0.002602
-0.002172
0.009075
-0.0001353
0.0005642
-0.001216
0.003533
0.0004597
-0.0005142
5.447e-05
-0.002298
0.0007868
0.001512
0.0003333
0.0002065
-0.0005398
-0.01805
0.01743
0.004478
-0.01063
-1.119
-0.3843
1.504
-0.0001634
0.000311
-0.0001476
0.02325
0.007727
-0.001231
0.000912
0.0003192
9.377e-08
-0.002313
0.0006611
0.001652
-0.002628
0.001634
-0.0004785
0.001318
1.253
-0.2776
-0.001631
0.001854
-0.0002231
-0.0003615
-0.0005939
0.0009554
3.841e-05
-3.969e-05
1.282e-06
0.0008596
0.004866
-0.005726
-0.001949
-0.001019
0.002968
0.0006056
0.0002999
-0.0001045
0.0002989
0.0007354
0.0008208
0.00015
-0.0005185
0.0003686
-0.001727
-0.001148
0.002876
0.0006253
-0.0008082
0.00124
-0.002147
0.0009065
-0.003257
0.0002076
-0.0001038
0.001698
0.003386
-0.006304
0.002918
-3.149e-07
3.149e-07
-0.001238
-0.004129
-0.06593
0.02404
0.0001641
-0.001373
0.001209
0.0002003
0.0003701
-0.0005704
1.342e-06
0.001073
-0.001074
0.1031
0.3745
-0.4776
0.0001671
-2.147e-05
-0.0001456
0.0009187
-0.004404
0.001163
0.0001768
-1.508
0.5248
-6.473e-06
-1.885e-05
0.0007232
-0.0001324
0.0005646
-0.0006594
9.475e-05
-0.3856
-0.6333
1.019
-5.245e-05
0.0004781
-0.0002483
0.0002911
-4.287e-05
-0.0002279
0.0007342
-0.0005063
-0.000216
0.0008775
-0.0006615
-1.191
0.8056
0.001285
-0.0007842
-0.0005008
-4.717e-05
1.275e-05
3.442e-05
-0.0003617
0.0005748
-0.0002131
0.002453
-0.002334
-0.0001192
-0.1574
0.06464
0.09276
-0.0009911
-0.0002404
-0.0002147
2.977e-05
0.0001849
-0.1628
0.1693
-0.006505
0.002737
0.0005283
-0.003265
-0.004047
0.003978
6.893e-05
-0.0007844
0.0001388
0.0006857
0.0003323
-0.002765
0.004141
-0.002627
0.0003145
-2.499e-05
-0.0004167
0.0004417
0.0001816
-0.0004272
0.2821
0.5872
-0.8692
0.0009526
0.0003324
0.001465
-0.002261
0.0007962
0.000176
-0.0001789
2.893e-06
-0.0001681
-0.000698
-0.01282
0.009717
0.003102
0.001915
-0.0002608
-6.715e-05
-0.0002525
1.029
-0.7469
-7.408e-05
0.0006915
0.0002872
0.0003711
-0.0006765
-0.0002871
0.0009636
7.605e-07
-1.562e-06
0.0003632
-0.00104
-6.275e-05
-8.267e-05
-0.001313
-0.0002837
0.001597
-0.0006078
0.0003564
0.0002514
-0.004796
0.001239
0.003557
0.1729
1.024
-1.153e-07
1.153e-07
-0.0002885
-0.000411
0.0006994
-0.0004331
0.0009281
-0.0001206
0.0001093
1.126e-05
0.0002645
-0.0006166
0.0003521
-4.405e-05
0.0002738
-0.0002298
0.0006112
-0.0001035
-0.0005077
-0.0005799
0.0005002
0.5603
0.843
-0.001097
-0.002871
0.003968
-0.004232
0.001181
0.003051
-1.496
0.3766
0.00036
-0.0006277
0.0002676
0.0001031
0.0005361
0.001919
-0.0007295
0.0009749
0.0003565
-0.001331
0.1384
-1.02
0.8817
-0.0002705
0.00153
-0.0003166
0.0001052
0.0002114
-0.277
-0.717
0.8554
0.00501
0.003263
0.002918
-0.003485
0.0005674
-0.0008674
-0.001158
0.00029
1.126e-05
-0.0003013
0.001235
-0.001046
-0.0001892
1.49e-05
-8.468e-07
-1.406e-05
-0.003902
0.0009516
0.00295
-0.004394
0.006254
-0.00186
-0.8029
-0.2701
0.001039
-0.00028
-0.0007586
0.0006445
-0.0003051
-0.0003394
0.0004874
-0.0003998
-8.757e-05
0.0001483
-0.0002931
0.002427
-0.002094
1.079
0.08698
-1.166
0.2733
-0.212
0.07215
-0.1272
0.05502
0.000192
-4.644e-05
-0.0001456
0.04511
-0.848
0.02588
-0.01625
-0.009625
-0.0001643
0.0003544
-0.00019
-0.0007957
-0.0009676
0.001763
0.0002478
0.0001161
-0.000364
-0.2169
0.8395
-0.6226
0.0005647
-0.0002911
-0.0002736
-0.0003568
0.002037
-0.00168
-0.2409
-0.0144
0.2553
0.0003647
0.0003896
0.6926
0.4741
-1.167
-0.0004839
-0.0002913
0.0007752
-5.312e-05
-4.158e-05
9.469e-05
-0.0008818
0.0004308
0.0004509
-0.0004938
-0.0018
0.002294
4.292e-05
3.508e-05
-7.801e-05
0.1843
-0.05277
-0.1315
-0.0003165
-0.0002759
0.0005924
-0.009651
0.01008
-0.0004295
-0.0003575
-9.402e-05
7.594e-05
-6.357e-05
-1.237e-05
-0.0003525
-0.0003734
0.0007259
0.0002221
7.806e-05
-0.0003002
-0.008088
-0.004731
0.005608
-0.006163
0.0005544
0.002161
-0.0003712
-0.00179
0.0001458
-0.0001458
-0.3411
0.1957
0.1454
-0.004649
0.006911
-0.002262
0.0009388
-0.000587
-0.0003518
-0.0004988
0.0008923
-0.0003935
-7.483e-05
-6.91e-06
0.0002676
-0.0002354
-3.225e-05
-0.1192
1.198
0.03695
-0.02202
-0.01494
0.0001068
4.668e-05
-0.0003669
1.75e-05
0.0003494
7.473e-05
-0.000108
3.322e-05
-0.0008878
0.001965
-0.001077
1.467e-05
-1.467e-05
-0.0008683
0.0009119
-4.365e-05
-9.883e-05
9.883e-05
0.00132
-0.0004564
-0.0008638
-8.244e-05
-5.18e-05
0.0001342
-0.003706
0.002609
7.815e-05
-5.512e-05
-2.304e-05
0.09863
-0.07316
-0.02546
0.001732
-0.00131
-0.0004224
1.094
-1.517
0.424
1.313
-1.735
0.4216
0.0003898
0.001994
-0.002384
-0.04478
0.09245
-0.04767
-0.0007956
1.557e-05
0.0007801
0.009351
-0.002348
-0.007002
-0.00085
0.0003497
-0.007456
0.00832
-0.0008634
0.04149
-0.09354
0.05205
-0.00062
7.078e-05
0.0005492
0.0006443
0.0009678
-0.001612
0.2522
-0.00716
-0.00852
0.007749
0.0007702
-0.0004354
0.0007456
-0.0003103
0.08683
-0.04535
-0.0006178
0.000321
0.0002969
-3.473e-05
3.473e-05
0.0007095
-0.0004366
-0.0002729
0.0009032
-0.002894
0.001991
0.000333
-8.198e-05
-0.000251
0.002655
-0.003308
0.0006529
0.0002897
-0.0002745
-1.521e-05
-0.3355
0.1224
0.2132
-0.001433
0.000294
-0.0005819
-0.0006493
-0.05259
0.3428
-0.0005688
0.000423
-0.00103
8.783e-05
0.0009423
-0.001505
0.003239
-0.001734
-0.478
-0.5501
1.028
0.2357
-1.052e-05
-0.2357
0.00909
-0.005337
-0.003752
3.827e-06
2.413e-06
-6.241e-06
0.000187
-0.002479
0.002292
3.47e-05
-3.47e-05
-0.002041
0.001025
0.001016
0.0008623
-0.0002247
-0.0006376
-0.001914
0.001756
0.0001577
-1.624e-05
-9.421e-06
2.566e-05
-0.0007963
-0.0002372
0.001034
-0.4104
1.369
-0.9583
-0.0002293
0.0003226
-9.327e-05
0.005848
-0.001447
-0.004402
-0.3
1.334
-1.034
-0.0006913
-0.0009948
0.001686
-2.521e-06
1.255e-06
1.266e-06
0.001234
0.005041
-0.006275
-0.0008736
0.0003321
0.0005415
0.005878
-0.003336
-0.002542
0.001265
0.003124
-0.004389
4.751e-06
9.225e-06
-1.398e-05
4.916e-05
-4.916e-05
0.0006416
0.000305
-0.0009466
-0.08811
-0.05488
-0.4589
0.2215
0.2374
0.002888
-0.001098
-0.00179
-0.001692
0.001308
0.0003835
0.0001713
0.0002908
-0.0004621
-0.0007921
0.0004338
0.0003584
-0.0005244
3.557e-05
0.0004888
0.0004495
-0.0002013
-0.0002482
-0.002846
0.002459
0.0003867
-0.01157
0.01724
-0.005664
0.000186
0.0002634
-0.03059
-0.01044
0.04102
-0.0003752
-2.234e-05
0.0003975
0.139
-0.58
0.441
0.0005418
0.0006551
-0.001197
-1.969e-05
3.037e-05
-1.068e-05
-0.002253
0.003023
-0.0007698
0.0008766
-0.0007129
-0.0001636
-0.001499
0.0007133
0.0007854
-0.381
0.098
0.283
-0.1853
0.05378
0.1315
-9.015e-05
0.0001528
-6.266e-05
0.008215
-0.009532
0.001317
0.0001843
-0.0003558
0.0001715
0.0005034
-0.0008785
0.000375
-0.0001238
0.0002318
-0.000108
0.00115
-0.001133
-1.664e-05
0.001256
-0.000203
-0.001053
-0.001643
0.001288
0.0003547
0.0001199
-0.0007459
0.000626
0.0001936
-0.0001936
-5.56e-05
0.0009433
-0.0008877
-4.687e-05
0.0003508
-0.000304
0.000614
-0.0004974
-0.0001167
-0.002614
0.003933
-0.001319
0.0008905
-0.001753
0.0008626
-7.269e-06
0.000467
-0.0003718
0.0003932
-2.142e-05
9.85e-06
-1.651e-05
6.665e-06
-5.243e-06
2.8e-06
2.443e-06
-0.001801
0.0008232
0.0009778
-0.321
0.4241
0.5943
0.2181
-0.8124
-0.001005
0.001408
-0.0004035
0.000158
0.0004822
-0.0006401
0.004945
-0.0008773
-0.004067
-0.1883
1.179
-0.9903
0.0003372
0.0007393
-0.001076
-0.001628
-0.0001737
-0.002543
-0.005324
0.007867
0.0001546
9.687e-05
-0.0002515
0.003114
-0.002746
-0.0003683
-8.242e-05
0.0003779
-0.0002955
0.002307
-0.002999
0.0006928
0.7866
-0.6764
-0.008811
0.003037
0.005775
0.01154
0.0003071
-0.01184
0.000219
-2.564e-05
-0.0001934
7.51e-05
0.0001275
-0.0002026
-0.0003202
0.0002301
9.006e-05
-0.005079
0.001816
0.003263
0.002648
-0.006565
0.003917
0.0002692
-0.0006512
0.000382
-0.000707
0.001082
-0.000375
-0.001928
-0.001324
0.003252
0.002903
-0.001126
-0.001777
-0.0008311
-0.0001811
0.001012
0.001716
-0.001411
-0.0003045
0.0006375
-0.0005342
-0.0001033
0.0003687
-0.0002707
-9.795e-05
0.2518
-0.3148
0.06295
-0.0001332
7.661e-05
5.662e-05
-3.398e-06
-1.668e-05
2.008e-05
0.001998
-0.0005331
-3.326e-05
0.001172
-0.001139
-0.0002642
5.054e-05
0.01949
-0.1178
0.09835
-0.0001733
0.0001733
-0.0001942
0.0001942
-0.165
-1.044
1.209
1.26
0.2311
-1.491
-0.0014
0.0007669
0.0006332
0.0003986
-0.002119
0.00172
-1.79e-06
2.141e-06
-3.507e-07
-6.181e-05
8.955e-05
-2.774e-05
-0.0001895
0.001922
-0.0005225
0.0006901
-0.0001676
0.0003471
3.76e-05
-0.0003847
-0.00104
-0.004444
0.005484
0.003724
0.005141
-0.008865
-0.1885
0.05758
0.131
0.0004045
-0.000259
-0.0001455
-0.0008476
-0.001069
0.001916
-0.0002381
0.0005098
-0.0002717
-0.004867
0.001069
0.003798
-1.593e-05
2.421e-05
-8.285e-06
0.0006228
-0.0008294
0.0002066
0.8096
-1.136
0.3267
-0.0002428
0.0002428
0.0003563
-0.0002322
-0.0001241
0.1673
0.5625
-0.7297
0.0007249
-5.669e-05
-1.279
1.114
0.2394
-0.4234
0.184
-0.002954
0.002055
0.0008991
-0.01133
-0.002512
0.01384
0.0001318
-8.018e-05
-5.164e-05
0.7794
-0.9463
0.167
0.0008201
-0.0004115
-0.0004086
0.4789
-0.1385
-0.3405
0.0003823
-0.0008352
0.0004529
-0.0171
0.005377
0.01172
0.009109
-0.008339
-0.0007707
0.005849
-0.003056
-0.002793
-0.0001811
-0.0006898
0.0008709
-0.0006952
-0.0003072
0.001002
0.0003375
0.0001159
-0.0004535
0.001629
0.0003469
-0.001976
0.1494
0.6449
-0.7943
0.004856
0.06639
-0.07125
-0.003254
0.001617
0.001636
-0.0001634
-0.0008582
0.001022
0.0001027
-0.0003378
0.0002351
0.0004697
-0.0002773
-0.0001924
8.951e-05
-5.33e-05
-3.622e-05
-0.0002719
-7.627e-05
0.0003482
-8.962e-05
8.962e-05
-0.0005552
0.0009703
0.001253
-0.0009028
-0.0003497
-0.0003342
0.0008855
-0.0005513
-0.0009144
0.0005747
0.0003397
0.0002235
0.000112
-0.0003355
0.004658
-0.006366
0.001708
0.008531
-0.003523
-0.005008
0.4769
-0.3559
-0.121
-0.0008113
0.0008892
-7.798e-05
-0.000115
0.0001688
-5.379e-05
-0.0005262
1.964e-06
0.0005242
0.495
-1.093
0.5977
-0.0006432
0.0002263
0.0004169
0.002776
-0.001444
-0.001333
-0.002067
0.0005361
0.001531
0.001518
-0.000682
-0.0008364
-0.0002042
0.0009502
-0.000746
0.001376
0.006687
-0.008063
0.0005513
-0.0006381
8.679e-05
-0.0009445
-0.001935
0.00288
-0.001022
-0.001045
-7.72e-05
-0.000132
0.0002092
-0.0005963
-9.717e-05
0.0006934
5.31e-05
2.284e-05
-1.177
0.5405
0.6364
0.002048
-0.003981
0.001933
-0.0007376
0.0002812
0.0004564
0.1314
0.05356
-0.185
-0.0007869
0.0002244
0.0005624
0.0004855
0.0001349
-0.0006204
-1.248
1.248
0.001585
0.002497
-0.004082
-7.726e-05
0.000135
-5.773e-05
0.06548
-0.05248
-0.013
0.006708
-0.002049
-0.00386
0.003852
7.938e-06
0.0004232
2.577e-05
-0.000449
0.01282
-0.009742
-0.003077
-1.267
0.5226
0.7441
0.0005604
-0.0009029
0.0003425
-0.0002223
0.0005518
-0.0003295
0.4068
-0.2579
-0.1489
-0.008572
0.005121
0.003451
-0.001525
-0.02968
0.0312
-0.001283
-0.000567
0.00185
-0.0004897
-0.000188
0.0006777
-0.001531
-0.0007657
0.002297
-0.04913
-0.0527
0.1018
-9.577e-06
-3.11e-05
4.067e-05
-9.764e-08
-6.686e-06
6.784e-06
0.0002275
0.0007315
0.0003666
-0.001316
0.0009494
-0.001478
0.002394
-0.0009152
5.294e-05
2.521e-05
-0.3922
1.243
-0.8512
0.0002445
-0.001149
0.0009046
0.3534
-0.009734
-0.3437
0.0006628
-0.0009326
0.0002698
-0.001204
0.001204
6.977e-07
0.000476
0.0005887
-0.001065
0.0004201
0.001098
-3.746e-05
2.519e-05
1.227e-05
0.0002476
-0.0002727
2.515e-05
-0.5586
0.22
0.3386
6.723e-06
-6.723e-06
-0.0003484
0.0002567
9.169e-05
0.0001032
-0.0004347
0.0003315
-0.001536
-0.0001902
0.001726
-0.0003087
0.000399
-0.001628
-0.001497
0.003125
0.008598
-0.007939
-0.0006595
-0.0003345
0.0002746
5.995e-05
0.001903
-0.001319
-0.0005836
-0.009887
0.02484
-0.01495
9.792e-06
-9.792e-06
-0.0004133
0.0005136
-0.0001003
-0.0008361
0.0003614
0.0004747
0.0004259
0.0001839
-0.0006098
0.001412
-0.001169
-0.0002428
0.0002862
0.0004727
-0.000759
-6.776e-05
-0.0002907
0.0003585
6.629e-05
3.733e-05
-0.0001036
0.002101
-0.001534
-0.0005667
0.0007484
-0.0001794
-0.000569
0.0007947
-0.002746
0.001952
-0.000356
-0.0004358
0.0007918
-0.001077
0.0005716
0.0005058
-0.006244
-0.0001507
0.006395
-4.369e-05
4.369e-05
-0.02202
0.007012
0.01501