/*--------------------------------*- C++ -*----------------------------------*\
  =========                 |
  \\      /  F ield         | OpenFOAM: The Open Source CFD Toolbox
   \\    /   O peration     | Website:  https://openfoam.org
    \\  /    A nd           | Version:  8
     \\/     M anipulation  |
\*---------------------------------------------------------------------------*/
FoamFile
{
    version     2.0;
    format      ascii;
    class       volScalarField;
    location    "55";
    object      nut;
}
// * * * * * * * * * * * * * * * * * * * * * * * * * * * * * * * * * * * * * //

dimensions      [0 2 -1 0 0 0 0];

internalField   nonuniform List<scalar> 
127143
(
7.781e-16
2.422e-17
2.501e-16
2.965e-15
7.312e-12
3.149e-15
7.886e-10
2.635e-11
2.617e-12
4.852e-08
2.895e-10
6.511e-11
9.559e-16
6.112e-15
1.244e-06
5.98e-09
8.619e-15
8.849e-05
8.509e-05
1.236e-08
4.349e-05
1.426e-08
7.111e-05
7.979e-06
1.217e-08
7.916e-06
1.137e-05
9.947e-06
2.445e-08
0.0001881
2.999e-06
6.356e-06
2.417e-06
1.482e-05
3.847e-05
2.555e-06
0.0002408
3.574e-05
8.351e-06
9.809e-07
8.527e-05
2.067e-06
2.261e-06
5.003e-14
8.837e-05
1.513e-05
2.439e-08
0.0003164
6.893e-06
5.676e-06
7.814e-09
0.0003385
7.892e-06
1.861e-05
0.006682
2.852e-07
0.006682
0.000211
0.004205
2.142e-05
2.957e-06
5.705e-05
8.047e-06
0.006702
2.974e-05
1.977e-05
3.127e-05
7.779e-06
7.779e-06
0.001433
4.28e-06
1.199e-05
0.0004489
0.003564
0.006696
1.041e-05
0.0004594
0.0002176
2.852e-07
0.006705
2.473e-08
1.803e-08
3.253e-05
1.305e-06
0.0005023
0.0002336
8.232e-06
1.239e-05
1.858e-05
1.405e-06
0.002307
5.193e-05
2.708e-06
4.337e-05
5.359e-05
0.0003045
2.279e-06
2.429e-06
0.0001313
3.475e-05
0.006705
6.74e-06
1.806e-07
7.784e-05
0.000185
0.0001346
7.094e-06
0.001433
6.71e-06
0.006683
1.379e-06
1.235e-05
5.205e-05
5.982e-07
0.003406
8.526e-05
0.0003806
0.006696
0.000576
7.062e-10
0.006683
3.463e-05
1.375e-05
0.0002015
2.481e-08
7.102e-06
7.276e-05
0.0006741
1.441e-05
2.36e-07
0.0001112
5.534e-05
1.048e-05
0.0002194
2.409e-12
0.0001248
0.0002327
2.152e-05
1.725e-07
0.0001492
4.451e-05
0.0005994
8.559e-06
1.294e-05
7.788e-06
5.863e-06
1.955e-08
0.006703
6.644e-05
8.798e-08
3.747e-05
4.314e-06
2.932e-05
2.163e-05
2.021e-06
0.000408
0.0001683
2.532e-07
0.0002882
1.783e-06
4.055e-06
1.645e-09
0.002097
0.0001339
1.438e-07
2.273e-05
0.000203
6.537e-06
2.762e-06
0.0001032
2.715e-05
1.294e-05
7.381e-05
2.764e-05
0.0007174
0.0002784
5.869e-06
1.441e-05
8.246e-06
0.00218
2.406e-05
0.0009458
0.0003094
0.0002834
2.366e-07
5.401e-05
6.065e-06
7.2e-07
8.12e-06
0.0008971
1.35e-05
2.744e-05
0.000332
1.063e-06
7.02e-13
3.226e-05
0.006715
0.006708
1.388e-10
0.001561
0.004726
0.0001332
0.0008254
0.0002534
7.051e-14
6.188e-06
0.0001394
2.685e-05
0.0002299
0.003759
9.352e-05
0.0004762
0.00372
2.728e-06
8.342e-05
5.34e-10
4.726e-06
2.661e-05
7.201e-05
0.0001459
5.07e-06
0.006697
4.32e-06
7.502e-06
1.923e-06
2.028e-05
1.641e-07
3.728e-05
5.813e-05
0.0001448
4.546e-05
0.00101
0.0004125
1.111e-08
4.543e-05
0.0002148
0.000134
3.828e-13
0.004151
1.019e-05
2.62e-05
3.004e-05
0.0003536
2.532e-07
1.636e-05
9.858e-10
3.234e-06
1.051e-05
3.576e-10
0.001399
3.493e-06
6.255e-06
2.333e-05
1.622e-05
4.64e-07
6.157e-06
0.0008439
2.691e-07
3.047e-05
8.765e-06
2.315e-05
0.0007981
4.815e-05
0.0005668
7.885e-06
2.92e-05
9.528e-05
1.976e-06
3.713e-06
1.728e-05
7.591e-06
0.0007169
0.0003386
1.036e-05
9.598e-06
1.242e-05
5.202e-05
7.292e-06
0.0005356
2.205e-05
0.002841
0.0001791
7.914e-05
0.0067
0.004941
7.108e-13
0.0001027
0.003363
7.671e-06
0.002088
3.111e-05
4.228e-05
0.0002071
6.549e-05
0.002886
6.69e-06
3.894e-06
0.0001092
0.0003535
1.742e-05
8.417e-06
2.957e-05
9.978e-06
0.0001013
1.512e-06
3.301e-06
2.698e-05
0.003383
4.557e-05
1.791e-05
7.152e-06
5.93e-05
3.456e-07
0.003548
0.003903
2.377e-06
2.413e-05
7.39e-06
3.702e-05
0.0004137
8.086e-05
3.613e-06
0.0003007
2.325e-05
2.261e-06
1.561e-05
7.754e-05
4.918e-05
3.515e-06
3.961e-06
0.0001595
0.004092
4.144e-05
0.006715
0.006707
2.171e-05
6.774e-06
7.552e-05
0.0001611
8.699e-05
0.0001737
2.657e-05
7.625e-06
1.09e-05
1.073e-06
7.67e-06
5.175e-05
4.547e-05
7.812e-06
1.509e-05
8.252e-06
3.297e-05
0.0002491
1.228e-05
7.694e-05
5.8e-05
1.625e-05
6.699e-06
0.006208
3.524e-06
0.000235
8.536e-06
9.429e-05
4.87e-06
6.237e-06
0.006698
0.001844
0.0003606
2.908e-05
0.0005017
1.75e-06
0.0003184
8.086e-06
4.712e-06
0.001148
4.986e-05
8.48e-06
4.82e-08
0.000145
0.0005713
6.905e-05
7.392e-06
8.729e-06
2.242e-05
0.0004021
1.349e-07
2.416e-05
1.051e-06
3.361e-05
5.13e-05
0.005195
9.759e-06
3.85e-05
4.86e-07
7.773e-06
3.138e-06
1.001e-05
3.518e-06
7.455e-05
0.001115
1.077e-06
0.006697
2.771e-05
0.000321
2.548e-05
2.511e-05
0.0002396
1.104e-05
0.006705
8.283e-06
8.563e-06
7.856e-06
4.26e-05
0.0001959
1.248e-05
5.013e-05
0.0001118
7.595e-06
2.389e-05
5.156e-06
0.0002109
2.465e-06
9.214e-05
0.001897
0.0001532
7.92e-06
2.129e-06
3.5e-05
2.29e-05
0.0001078
0.00668
9.628e-05
0.000226
9.594e-05
1.034e-05
0.006698
2.189e-05
4.291e-05
0.0003686
0.003071
0.006694
6.127e-06
0.00019
6.75e-06
0.0002303
2.452e-06
0.002859
2.954e-06
0.0003581
0.0004782
7.55e-05
8.744e-06
2.976e-05
3.023e-05
2.3e-05
0.0002764
7.57e-06
2.371e-05
0.000286
1.979e-05
1.179e-05
7.192e-06
2.891e-05
5.191e-07
7.92e-06
0.0008892
0.0009029
1.449e-05
5.077e-05
0.006672
0.0001417
4.482e-05
0.0001774
2.523e-05
0.0001818
0.006651
1.745e-06
4.4e-05
5.026e-05
9.74e-06
5.77e-08
2.754e-06
3.377e-05
3.453e-07
7.112e-06
1.035e-05
1.309e-05
0.006709
2.328e-06
0.0005496
3.634e-06
8.222e-06
8.421e-06
5.845e-06
2.142e-12
0.0001298
9.042e-07
0.000429
9.131e-07
0.00497
5.65e-08
0.0009389
0.0003008
2.839e-05
1.107e-14
5.145e-11
1.114e-10
0.006698
5.823e-05
3.831e-06
0.003795
0.0002713
1.505e-05
0.0001793
7.254e-05
7.633e-05
8.738e-06
0.0001386
9.897e-06
0.001027
0.0004735
1.499e-09
3.532e-06
7.742e-06
3.321e-05
0.004268
4.104e-05
0.0009733
3.389e-05
0.006336
2.135e-06
6.158e-08
3.844e-05
0.006675
1.451e-05
0.0001895
2.142e-05
6.816e-06
9.534e-07
4.338e-05
0.0005096
0.0001087
1.311e-05
0.006673
2.959e-05
2.454e-05
4.494e-06
4.876e-06
4.944e-05
5.199e-05
3.297e-05
2.177e-05
7.89e-06
0.0002076
9.863e-05
0.00252
1.298e-06
7.832e-05
8.369e-06
9.798e-06
0.0003084
0.006702
0.006701
1.001e-05
5.134e-05
1.071e-06
0.003353
0.0046
9.805e-06
1.42e-06
0.0002473
8.572e-06
3.391e-05
5.986e-06
4.216e-05
0.0007079
0.006683
3.959e-05
9.916e-05
8.777e-06
0.004736
1.072e-05
1.173e-05
6.378e-05
0.000571
8.442e-06
0.003253
0.0001717
0.0003663
5.422e-05
0.005096
0.0001007
2.316e-05
5.448e-09
0.00665
7.152e-06
5.04e-06
0.006694
2.517e-05
0.002811
6.001e-06
1.299e-05
0.006699
4.087e-05
8.058e-06
6.558e-05
3.186e-05
9.879e-06
8.234e-06
8.715e-06
1.273e-06
8.341e-06
3.231e-06
4.787e-06
0.000219
7.072e-06
2.693e-06
0.005443
3.341e-06
0.005934
8.563e-07
0.0005691
8.697e-06
0.006679
0.002881
0.0001617
5.199e-06
6.052e-05
0.006475
0.006683
6.638e-05
1.202e-05
3.763e-05
3.374e-06
0.0004314
7.236e-06
7.539e-05
8.232e-06
1.065e-05
6.904e-05
1.67e-05
0.006475
2.092e-05
1.012e-05
9.787e-05
2.332e-05
0.002384
0.004602
1.77e-05
2.403e-07
1.308e-05
2.73e-07
0.000633
0.003226
0.0001301
3.023e-05
0.0001532
2.084e-05
9.474e-05
0.001095
5.832e-05
3.497e-05
9.203e-06
1.899e-05
1.342e-13
2.392e-05
0.0002891
0.0002752
8.244e-05
3.928e-05
8.503e-06
4.365e-05
0.0003119
1.368e-05
0.0001434
2.765e-05
0.006682
7.249e-06
1.5e-05
2.896e-06
0.006675
0.006681
3.527e-07
0.0004997
7.137e-06
3.037e-05
5.05e-06
4.556e-05
1.19e-05
2.218e-06
6.632e-06
5.161e-07
0.006706
0.006673
3.589e-06
7.935e-06
3.101e-05
3.14e-06
1.519e-07
0.0003646
2.167e-06
0.0001047
0.0001112
0.003695
2.378e-06
0.0001979
6.02e-07
2.318e-12
1.18e-05
8.611e-06
0.0001347
0.004862
8.773e-06
7.274e-06
5.739e-07
4.421e-05
1.754e-05
1.065e-05
1.176e-07
7.647e-05
6.686e-06
9.777e-05
6.661e-07
8.358e-06
1.802e-05
7.205e-05
5.691e-05
5.645e-15
1.792e-05
0.0001175
3.217e-06
1.007e-05
8.316e-06
0.006693
0.0002323
3.4e-05
0.000249
0.002987
2.39e-07
9.416e-05
8.414e-06
0.003119
3.172e-05
0.000224
3.955e-05
2.501e-05
0.003771
0.0001789
5.033e-05
4.492e-05
1.643e-05
0.001378
7.625e-06
1.055e-06
0.002429
2.664e-05
4.73e-05
3.764e-05
0.0001311
2.945e-05
1.177e-05
8.014e-06
0.0001074
0.006636
0.0002125
0.0001513
8.985e-07
7.847e-06
1.942e-05
0.0002783
5.756e-05
0.006653
0.0001673
5.898e-05
9.858e-06
2.916e-08
1.003e-05
4.175e-05
3.108e-05
0.0003781
4.583e-05
0.006697
2.984e-14
9.297e-05
3.01e-05
1.679e-05
0.0002591
0.0001278
0.0001457
5.168e-06
0.006683
3.493e-05
7.878e-05
0.003497
0.0001154
3.638e-06
7.234e-06
1.78e-05
0.006666
7.305e-05
0.0002563
0.006707
0.006661
2.368e-05
7.391e-05
0.000362
0.0001263
0.000247
1.676e-08
5.294e-05
6.293e-06
0.006682
0.0001584
0.0002232
3.353e-06
1.914e-06
5.704e-06
0.002787
0.004505
0.0003293
1.141e-05
0.006682
0.0001033
1.387e-06
8.663e-06
8.123e-06
0.006174
0.0004094
8.513e-06
0.006698
7.828e-06
0.006683
6.391e-06
1.152e-07
4.007e-05
1.429e-05
6.075e-07
0.002235
4.539e-05
1.62e-05
2.13e-06
0.0001037
8.239e-06
8.722e-08
2.003e-05
6.069e-05
9.943e-06
2.853e-06
0.006699
3.224e-05
3.833e-07
1.551e-06
0.0001392
7.31e-06
0.002885
0.000217
3.82e-05
6.284e-07
5.619e-06
3.223e-06
6.127e-10
2.682e-06
5.374e-06
6.249e-05
2.237e-05
3.96e-05
1.712e-07
0.0004307
7.4e-06
0.004711
0.005171
8.591e-06
0.0003142
2.147e-05
0.0003448
5.59e-07
0.0001457
0.000507
1.673e-06
3.011e-06
0.004339
9.54e-05
0.0002274
0.0005955
3.749e-05
2.006e-08
0.0003343
3.467e-05
1.286e-06
1.913e-05
9.475e-05
0.006701
8.404e-06
6.022e-07
0.006254
4.772e-05
0.0001186
3.9e-05
0.006669
0.0003415
8.973e-05
3.16e-09
1.599e-05
1.724e-08
0.0001091
9.196e-06
4.301e-06
3.267e-06
2.847e-05
0.005705
2.215e-07
4.068e-06
0.005301
7.882e-06
8.986e-09
5.578e-05
1.516e-05
2.807e-05
9.563e-05
1.293e-06
3.035e-08
8.362e-06
0.0005695
0.006697
3.142e-05
6.497e-06
0.0001759
4.065e-05
8.257e-07
7.572e-08
3.635e-05
3.069e-05
7.559e-08
0.0001395
1.704e-05
0.006693
0.0002974
4.754e-05
1.102e-05
8.447e-05
0.0001164
0.006697
0.001304
2.783e-05
3.739e-05
0.0001385
8.085e-06
7.259e-05
0.0003839
1.659e-05
6.298e-06
2.597e-05
2.789e-06
7.774e-06
2.671e-06
5.007e-05
2.782e-05
0.0002677
1.199e-06
0.0001356
3.433e-05
4.764e-08
0.0001399
0.006692
0.006694
0.0001642
0.0003271
8.776e-05
0.006749
6.69e-06
7.502e-05
0.000153
9.711e-05
1.986e-05
7.93e-05
1.204e-06
0.006705
7.071e-05
0.0001359
1.608e-08
1.559e-06
0.0002138
8.007e-06
3.659e-05
2.91e-05
7.751e-06
1.205e-05
0.000275
6.708e-06
8.096e-06
0.0002059
5.366e-08
0.006275
3.298e-06
3.847e-06
0.0001445
2.768e-05
1.537e-06
0.002466
4.593e-06
2.966e-06
0.006408
0.006694
1.012e-05
5.597e-05
3.378e-09
0.0001311
7.411e-06
1.248e-06
8.275e-05
7.462e-05
0.0001259
0.001628
6.92e-05
0.000551
0.0001128
5.629e-05
1.473e-05
0.0002447
0.005836
2.862e-06
0.0001736
0.006692
4.267e-05
0.005905
0.0067
1.708e-05
7.434e-05
4.556e-06
0.00669
7.802e-06
0.006697
3.254e-06
9.526e-05
9.463e-05
5.187e-05
6.447e-06
7.903e-06
5.481e-05
1.02e-05
0.002983
0.001015
1.036e-05
5.488e-06
0.0001224
9.109e-05
4.434e-07
7.075e-05
4.602e-07
3.393e-05
4.836e-07
2.025e-05
8.212e-06
8.346e-06
3.191e-06
4.715e-05
0.004981
3.702e-05
0.0001763
8.59e-06
0.001928
3.977e-06
4.792e-05
8.302e-06
4.995e-06
1.423e-05
0.000148
2.83e-05
1.865e-05
8.304e-06
0.0001145
2.227e-07
0.0001016
0.006599
1.366e-05
3.577e-05
0.002179
4.238e-05
2.751e-05
0.006739
4.441e-05
0.0001086
0.0006799
2.865e-06
2.419e-05
6.736e-05
0.000102
0.006728
5.246e-05
8.231e-05
0.00567
4.062e-06
9.709e-05
8.036e-05
6.703e-05
4.785e-05
0.0004717
3.748e-05
7.133e-08
3.335e-06
7.659e-06
0.000136
1.725e-07
0.001643
8.341e-06
0.006697
0.0001391
4.892e-06
4.257e-05
4.987e-06
5.003e-05
1.193e-05
0.006699
4.068e-10
3.098e-05
3.483e-05
8.993e-06
3.184e-07
2.136e-05
5.438e-05
1.445e-06
7.927e-06
4.426e-05
1.625e-10
0.0002881
4.214e-06
4.924e-06
7.477e-06
3.928e-06
9.534e-05
8.08e-06
6.242e-06
0.0001738
1.327e-05
8.77e-06
8.172e-06
5.859e-05
4.424e-08
0.0002618
2.39e-06
0.000171
8.29e-06
0.006714
0.006691
1.992e-05
1.782e-07
0.0002739
0.0008534
4.771e-06
4.635e-05
0.006697
1.087e-05
7.598e-06
1.665e-05
8.117e-08
2.483e-05
0.0002161
1.055e-12
9.548e-05
5.058e-06
0.0001573
8.074e-06
1.687e-05
7.848e-06
2.104e-06
7.9e-06
3.509e-05
0.0009199
0.0001317
1.332e-05
0.000108
3.856e-05
7.007e-06
0.0002554
3.229e-06
0.0003308
9.545e-05
0.0004488
1.956e-06
1.169e-05
3.55e-05
4.292e-08
3.219e-05
1.457e-05
1.997e-05
0.0001864
0.0001959
0.006697
0.0001439
1.619e-05
1.336e-05
1.898e-05
7.017e-07
1.517e-06
0.006684
6.871e-06
3.011e-05
5.001e-05
2.893e-06
6.057e-06
3.501e-05
6.012e-05
0.001881
4.773e-05
0.0001973
1.33e-05
5.433e-05
0.001537
3.074e-05
0.003801
5.26e-06
3.207e-06
0.0002647
7.081e-05
3.509e-05
0.006491
0.006676
7.185e-05
0.0004776
8.212e-05
5.612e-05
0.002406
0.002162
1.014e-06
8.074e-05
3.337e-05
1.606e-05
8.46e-06
3.121e-06
2.807e-05
8.448e-06
0.0001831
0.0001138
0.006679
2.997e-06
9.855e-05
7.601e-06
2.977e-06
2.324e-05
2.279e-05
0.0001585
8.599e-06
2.633e-05
5.427e-09
7.771e-05
6.71e-05
0.0003712
2.077e-05
6.86e-05
7.419e-06
3.857e-09
4.037e-05
5.337e-05
0.006683
6.474e-06
7.954e-07
0.00669
7.162e-07
1.119e-05
0.0002171
7.981e-06
0.006688
2.03e-05
1.348e-09
0.002401
4.867e-06
5.709e-05
8.294e-06
1.483e-07
5.169e-05
7.685e-05
4.925e-05
1.424e-07
0.0001786
3.598e-05
9.757e-06
4.571e-06
4.53e-06
7.474e-08
2.855e-06
0.0001179
0.006693
5.574e-06
3.498e-05
2.185e-06
3.439e-06
0.0001507
0.0001531
0.006668
0.000122
0.0001263
0.006312
0.000335
0.006331
1.009e-07
0.000216
1.884e-07
0.0001605
7.783e-06
5.37e-06
4.988e-05
6.711e-06
6.087e-07
1.993e-06
7.493e-05
0.0001148
9.446e-06
3.376e-05
0.0002405
0.006702
0.0002161
0.0007763
9.562e-05
0.006699
0.0004404
0.006688
5.918e-06
0.0001959
0.006735
0.006595
0.0001141
5.627e-05
3.71e-05
7.643e-05
0.006765
8.784e-06
6.76e-05
4.603e-05
5.663e-11
1.384e-05
1.923e-08
7.57e-06
1.062e-05
8.482e-06
6.055e-06
0.0002739
7.9e-05
7.563e-07
0.0004104
3.975e-05
3.404e-05
1.871e-05
6.986e-06
4.526e-05
0.006689
1.858e-06
6.136e-05
5.052e-08
0.006699
2.865e-06
5.568e-06
8.107e-06
0.0001656
0.00665
0.006649
0.0001429
6.954e-05
0.0003593
8.517e-05
8.388e-06
5.422e-05
3.217e-06
0.0004208
9.373e-05
8.269e-08
1.044e-05
0.0001808
8.659e-05
6.638e-05
2.52e-05
4.147e-05
4.606e-06
8.379e-06
0.0001629
0.001836
0.0001865
0.0001371
6.844e-06
7.616e-06
0.0006335
7.009e-06
0.0003715
8.075e-06
0.0002369
1.964e-05
0.0001792
0.006693
0.0003441
1.799e-05
3.488e-06
6.25e-07
9.204e-05
0.0001169
3.244e-05
9.188e-05
0.006625
1.272e-06
5.404e-05
5.874e-09
2.625e-05
3.039e-08
0.0002016
0.006694
2.034e-05
2.961e-05
2.946e-05
6.788e-06
1.886e-05
4.958e-05
8.461e-06
7.992e-06
0.0004253
1.637e-06
0.0001607
5.162e-06
2.955e-05
3.373e-06
0.002739
0.002737
8.131e-06
7.11e-06
3.498e-08
4.894e-06
6.373e-06
2.045e-06
2.358e-06
0.0003958
0.0001145
0.0002568
0.002279
0.006691
0.0003426
0.006481
9.896e-09
0.006695
2.125e-07
3.655e-05
6.013e-06
6.804e-06
2.883e-06
0.001449
8.961e-08
4.065e-05
9.001e-07
0.0001043
3.996e-06
0.005759
5.076e-05
6.628e-05
0.0001087
2.081e-05
3.641e-05
0.0001997
1.183e-06
7.681e-07
0.0002762
0.006665
2.029e-06
0.001502
0.00675
4.988e-05
5.28e-06
0.006666
9.15e-07
0.006697
1.053e-05
1.024e-05
3.096e-05
9.855e-07
0.006675
0.0002644
4.079e-05
7.694e-05
1.742e-05
3.132e-05
2.996e-05
0.004979
0.006686
1.056e-05
1.321e-10
2.484e-05
7.558e-06
0.000611
2.793e-07
8.156e-05
4.415e-05
0.002144
1.671e-05
0.0001319
3.181e-06
0.0004567
6.338e-06
0.0006399
1.316e-05
0.006704
2.273e-06
8.56e-06
0.0003372
4.714e-07
7.034e-07
7.23e-05
0.006688
9.74e-06
3.3e-06
9.149e-05
2.811e-06
7.557e-06
2.522e-05
0.0005305
1.18e-05
1.214e-08
7.782e-06
8.32e-07
3.908e-06
0.001975
3.117e-05
0.006701
1.13e-05
2.578e-06
6.966e-06
0.006696
3.706e-05
0.006694
0.0001691
0.0001385
0.006713
2.786e-05
0.0001755
8.037e-06
2.603e-05
0.0006381
8.157e-06
0.006697
4.844e-07
1.891e-07
7.391e-05
8.024e-05
7.297e-06
0.001179
1.733e-05
0.0002573
3.676e-06
9.032e-06
0.000261
7.826e-06
3.689e-05
2.36e-05
4.283e-07
0.0002166
2.013e-05
1.185e-05
0.0002265
7.888e-06
9.736e-05
6.582e-06
8.222e-06
0.0002063
0.001127
1.445e-05
9.539e-05
1.82e-05
0.0001833
3.205e-06
0.0002311
7.315e-06
0.0001146
0.006666
7.581e-06
5.722e-06
0.0001812
8.479e-06
0.0004517
1.014e-05
0.006705
2.195e-05
7.276e-06
4.665e-05
6.101e-06
5.593e-06
6.164e-06
0.006696
8.422e-06
5.145e-06
8.243e-06
1.738e-05
0.0004112
8.308e-06
8.133e-06
0.006694
0.0001502
0.0002217
0.001804
6.84e-06
3.273e-05
3.526e-05
4.81e-06
0.0001095
0.0004299
0.002294
2.901e-05
2.51e-05
0.006601
2.102e-05
5.778e-06
1.672e-06
0.00674
0.0001098
3.166e-07
3.989e-05
1.434e-05
0.0001854
8.248e-06
1.852e-06
0.002096
0.001235
0.0001785
0.0009049
2.881e-05
4.492e-06
0.0003598
7.27e-07
3.369e-05
0.0003929
2.314e-05
4.324e-10
8.971e-10
0.0001893
0.0001649
4.71e-05
0.0001582
0.0003549
2.863e-05
0.0003773
2.954e-05
8.397e-05
0.0001168
8.531e-06
1.22e-06
0.0001194
0.0001466
0.003208
1.564e-06
0.0001557
0.0001193
5.785e-06
4.711e-05
3.247e-06
0.0001921
3.66e-05
0.006745
3.616e-07
7.535e-06
2.682e-05
2.885e-05
9.645e-05
3.081e-06
1.361e-06
0.0001065
4.326e-05
1.713e-06
3.361e-05
7.211e-06
4.182e-06
0.006636
1.047e-05
1.455e-06
8.18e-06
0.004706
0.0003075
0.0002302
5.054e-06
3.246e-05
0.0005138
7.375e-06
0.005402
4.419e-06
7.204e-06
0.0001682
0.0004571
0.004025
8.2e-06
8.57e-08
7.86e-06
1.995e-06
2.711e-08
0.0003459
6.984e-06
0.001448
1.317e-06
1.647e-05
0.0003316
7.733e-05
5.629e-05
1.18e-05
0.0003224
8.246e-06
0.002559
3.409e-06
2.887e-08
4.822e-07
0.0002315
2.551e-05
2.995e-05
1.032e-05
0.00111
0.0001155
9.547e-06
8.282e-05
0.003953
8.284e-06
8.251e-06
8.463e-06
0.0001276
4.04e-05
1.76e-06
1.812e-05
7.739e-07
4.28e-07
1.825e-07
0.0001572
6.241e-06
3.453e-08
8.552e-05
8.174e-06
6.53e-05
2.648e-05
1.377e-05
5.4e-11
2.099e-05
2.388e-05
0.003131
0.0002892
1.04e-06
0.0002067
0.003814
0.006698
9.196e-05
7.7e-06
0.0004715
5.916e-06
8.491e-08
1.307e-06
0.00106
6.913e-06
0.0003397
0.0001781
7.884e-06
3.582e-05
0.0002902
7.785e-06
8.348e-05
0.0001096
3.128e-05
0.006697
3.391e-05
0.0002442
8.084e-06
0.000118
7.694e-06
1.178e-05
4.411e-05
6.98e-06
2.044e-05
2.922e-05
8.322e-06
1.435e-05
8.601e-06
0.0001843
0.0001901
0.0001529
2.981e-05
0.0001657
2.111e-07
6.924e-05
0.004933
0.0001393
6.538e-05
8.36e-06
6.405e-06
0.0007784
1.892e-05
4.446e-05
1.409e-05
0.003011
0.00018
0.0004071
0.0002366
0.0003218
1.106e-05
9.2e-05
9.852e-07
0.0001688
0.0001944
4.192e-05
0.006676
0.0003819
4.053e-05
0.0001318
4.328e-05
0.006688
0.000132
5.048e-06
1.591e-05
0.006697
0.000735
0.0003717
1.781e-05
9.324e-06
0.0008108
1.072e-05
0.0002639
2.55e-07
4.011e-06
7.002e-05
8.482e-06
2.678e-05
0.001226
8.248e-06
6.634e-08
4.27e-05
1.106e-07
3.729e-06
3.991e-05
3.005e-06
0.003331
0.006666
1.076e-05
7.802e-05
3.052e-06
0.006697
1.904e-05
4.713e-05
9.339e-09
5.878e-05
6.612e-06
0.006294
0.006445
8.201e-06
4.741e-05
0.000253
2.206e-06
3.9e-05
4.765e-05
0.0001602
0.006705
7.577e-06
1.637e-06
7.625e-06
0.0003094
1.224e-06
0.0001728
2.065e-05
0.006729
3.235e-05
2.208e-06
7.212e-06
5.321e-07
6.274e-05
2.09e-06
4.653e-05
1.533e-05
7.27e-06
4.213e-05
7.437e-05
0.000128
6.397e-06
2.343e-06
0.00459
0.005162
8.884e-05
0.0001479
3.815e-07
7.973e-06
2.198e-06
3.617e-05
0.001254
0.005476
6.55e-06
0.006702
7.844e-05
4.858e-08
4.108e-06
0.0001085
7.596e-06
0.0001376
2.908e-07
2.011e-06
0.002075
2.624e-05
3.639e-05
7.605e-06
0.000364
1.331e-05
7.655e-05
2.761e-05
3.106e-05
0.0002325
2.054e-05
0.0001572
1.421e-07
2.64e-06
7.952e-05
0.0001358
5.263e-08
0.0001727
5.003e-05
5.904e-05
6.221e-07
6.774e-06
2.384e-05
7.991e-06
0.000135
2.933e-05
0.001077
0.0003986
0.006703
7.739e-06
7.05e-05
6.932e-06
8.584e-05
4.318e-05
2.087e-05
3.059e-09
1.732e-06
2.972e-05
8.416e-06
2.418e-06
1.542e-05
0.0007165
0.000355
1.098e-05
3.923e-06
0.0001102
0.0002001
0.0002413
7.466e-05
0.004083
1.009e-05
1.036e-07
7.192e-05
4.724e-05
0.0004317
6.432e-05
1.99e-05
0.006714
1.369e-05
0.0001186
0.0005413
9.245e-07
0.0001527
3.604e-05
0.0001924
3.061e-05
6.37e-06
1.462e-05
4.152e-06
2.644e-05
5.986e-06
0.006711
0.0002683
1.561e-05
4.179e-06
4.053e-07
1.106e-05
3.203e-05
2.137e-05
0.003274
3.829e-06
2.522e-06
7.174e-06
5.657e-06
7.947e-06
1.633e-05
7.764e-06
1.915e-06
5.515e-06
2.285e-05
1.029e-06
1.704e-06
4.721e-05
5.608e-05
9.263e-08
0.001725
4.85e-05
0.00257
0.006699
5.877e-06
0.002037
3.914e-05
1.028e-05
3.439e-05
1.035e-05
8.131e-06
1.71e-05
0.000136
2.734e-06
9.441e-05
0.0004615
4.253e-10
7.873e-05
0.0001313
0.0004134
6.792e-09
3.285e-05
1.771e-06
3.239e-07
0.003132
3.33e-05
6.993e-06
8.521e-05
4.551e-05
4.437e-06
2.906e-06
3.18e-05
0.0001205
7.914e-05
0.0001199
3.585e-05
0.006701
4.725e-05
4.785e-05
6.594e-05
1.512e-05
7.289e-06
1.479e-07
0.0001193
0.00365
3.548e-05
0.0001086
6.525e-05
9.622e-06
5.362e-05
9.81e-07
8.403e-06
1.531e-07
6.901e-06
0.0001104
7.061e-06
4.011e-05
0.0001335
0.0001237
1.826e-05
3.357e-09
3.708e-05
8.072e-06
8.089e-06
0.006598
4.272e-06
4.18e-05
0.0003618
8.856e-05
7.818e-06
2.699e-05
4.242e-06
3.573e-05
3.035e-05
1.108e-07
0.006613
1.809e-05
4.047e-05
7.481e-05
2.236e-05
3.857e-07
0.005188
4.943e-05
6.459e-05
3.211e-05
3.292e-07
2.095e-05
2.831e-05
2.837e-06
0.0001941
8.414e-06
0.006745
0.006733
7.336e-06
1.856e-05
2.091e-05
1.8e-05
7.927e-06
0.006688
1.626e-05
5.6e-06
1.088e-05
0.00253
0.003082
8.943e-06
2.389e-05
6.908e-06
1.739e-07
2.993e-07
0.006119
3.951e-06
5.699e-08
9.068e-05
7.328e-06
4.33e-06
0.001889
0.0001044
2.901e-05
6.636e-05
0.0003113
0.006652
0.006613
0.006635
0.006364
0.001213
0.0004009
2.379e-05
1.753e-06
5.322e-05
0.0001051
5.119e-05
1.909e-05
0.0061
5.731e-05
0.0002698
1.946e-05
2.403e-05
9.938e-06
0.0001592
8.69e-06
8.263e-06
1.08e-05
7.303e-06
0.0003566
8.117e-06
8.589e-10
1.589e-06
5.924e-06
2.765e-06
6.803e-06
0.005713
5.481e-09
0.0001106
1.292e-06
4.74e-05
0.0001134
3.617e-09
0.006696
0.0002409
2.969e-05
0.005026
3.389e-05
0.000188
2.599e-05
0.0001736
3.871e-06
4.81e-05
5.311e-05
0.006632
5.974e-06
1.27e-05
0.0001146
0.000235
1.044e-05
0.006713
0.003214
2.434e-05
7.129e-05
3.313e-05
0.0004923
4.287e-05
2.584e-05
0.0001056
1.616e-06
8.273e-06
3.389e-05
0.0002952
0.0004293
0.0001873
0.0001736
1.267e-08
1.951e-06
0.005048
1.63e-08
0.004726
0.006582
4.094e-05
0.001447
1.308e-06
0.0001454
1.896e-06
0.0002405
5.962e-06
0.006697
0.0003032
7.997e-05
7.3e-06
0.0003415
0.003451
5.759e-05
1.087e-08
1.646e-05
0.006702
1.281e-05
1.474e-05
4.96e-10
0.001983
3.338e-05
1.576e-05
0.0001018
0.0004438
4.133e-05
4.841e-06
2.636e-08
5.161e-06
8.16e-06
9.751e-11
0.005236
7.04e-06
2.142e-05
7.36e-06
0.006696
7.685e-06
2.733e-08
7.885e-09
5.282e-07
0.0001741
1.601e-05
6.468e-08
0.0004331
0.0001725
0.00669
4.592e-05
2.326e-05
2.754e-05
4.107e-05
6.252e-07
5.452e-05
0.0002045
1.091e-05
0.006706
0.00212
3.503e-06
2.563e-05
5.481e-05
4.105e-06
2.965e-05
0.0001565
0.0001786
1.079e-05
9.177e-05
0.0002001
0.005397
7.429e-06
9.681e-06
7.021e-06
8.154e-05
7.496e-06
4.102e-06
1.162e-06
9.25e-08
4.448e-06
6.896e-11
4.974e-06
0.0002806
1.065e-06
0.0002904
8.087e-06
3.378e-07
0.004817
5.806e-09
0.006705
0.000125
4.733e-06
1.422e-06
6.379e-05
4.034e-06
7.684e-05
4.927e-06
0.006647
1.483e-09
8.381e-06
0.002123
0.0001443
0.0001794
8.598e-09
6.513e-06
6.674e-09
3.036e-05
9.204e-07
5.19e-07
2.031e-05
1.841e-05
8.123e-06
1.233e-05
0.006673
0.0001931
8.819e-06
0.0001285
9.263e-06
0.0003248
0.0003041
8.024e-06
7.41e-06
2.581e-06
7.204e-06
0.003848
7.446e-06
2.797e-05
8.975e-06
0.000127
0.002548
6.772e-05
1.034e-05
3.012e-05
3.257e-05
7.943e-08
0.002152
0.002186
6.931e-05
7.211e-06
1.73e-05
0.0003084
3.204e-05
0.006494
0.0002235
8.438e-06
0.006338
7.16e-05
5.941e-07
0.0001157
6.537e-05
0.0002865
8.568e-08
7.681e-08
2.794e-06
6.248e-05
7.054e-06
0.0002089
3.642e-05
4.74e-05
2.279e-05
2.593e-06
0.0002366
1.586e-07
7.46e-06
2.63e-06
5.085e-06
4.315e-05
8.442e-09
0.0004238
8.07e-06
1.359e-05
0.002633
8.917e-06
0.000115
0.00131
1.657e-05
8.284e-07
0.0001034
5.557e-06
1.023e-05
1.034e-08
2.076e-09
0.0003338
4.429e-10
0.0007862
4.07e-05
9.253e-05
0.0001447
2.163e-05
0.006705
5.811e-06
2.842e-07
8.427e-05
8.826e-06
4.409e-05
1.331e-05
5.801e-06
7.2e-05
0.0001872
2.554e-05
0.0004681
1.544e-05
3.632e-05
0.005147
0.0001723
7.132e-06
0.0067
0.0005113
2.299e-06
0.006697
2.325e-05
5.885e-05
7.259e-06
5.279e-05
6.13e-06
0.001422
6.122e-05
3.024e-05
2.022e-06
1.427e-05
1.024e-06
8.584e-06
0.006687
1.896e-06
0.006713
0.0002034
0.0001127
4.995e-05
2.884e-06
7.358e-05
8.187e-06
2.643e-05
9.551e-07
2.047e-05
0.0008897
0.0001156
8.791e-05
0.006674
7.607e-05
0.006696
2.323e-06
2.092e-05
4.431e-06
0.0002038
0.006657
4.274e-05
8.217e-06
1.272e-05
4.813e-06
3.013e-05
1.583e-05
0.0003898
4.021e-05
9.58e-05
4.748e-05
3.657e-05
1.191e-05
0.0001897
6.416e-06
0.0001245
3.419e-06
7.965e-06
0.006631
0.006743
0.001455
0.0003239
3.929e-06
2.427e-05
5.18e-05
0.001511
8.296e-06
6.636e-06
8.062e-06
0.006698
4.695e-06
2.594e-05
6.45e-06
0.002313
2.124e-09
1.728e-05
6.841e-06
0.003213
0.000993
7.571e-07
0.000257
8.236e-06
1.881e-06
1.683e-06
8.913e-05
4.659e-05
0.006697
4.487e-06
7.698e-05
6.985e-06
0.0002226
1.094e-05
4.218e-05
0.000238
5.783e-06
4.122e-07
0.006698
4.607e-05
9.645e-06
1.462e-05
4.725e-06
0.006702
2.073e-05
1.877e-05
0.0001081
4.022e-05
2.652e-05
3.287e-06
0.0001682
1.176e-05
7.018e-05
0.000375
0.0001337
2.252e-05
0.005174
4.483e-06
2.722e-06
0.0002062
0.0001414
1.455e-05
1.172e-05
5.252e-05
0.006695
0.0002322
0.0002671
0.003225
6.016e-08
9.151e-05
0.006698
0.0007189
8.394e-06
1.133e-08
0.006698
0.0002804
1.011e-06
8.053e-06
4.111e-05
3.554e-05
4.128e-07
3.281e-05
4.871e-06
8.363e-06
1.812e-08
1.724e-05
0.001273
9.859e-05
1.369e-05
9.863e-05
0.006685
0.0001973
0.0001329
0.0003677
0.0001018
7.009e-06
5.041e-08
0.0001209
4.285e-05
2.325e-08
2.319e-05
3.031e-06
0.0002547
3.691e-05
9.871e-05
1.062e-06
1.554e-07
0.00669
2.736e-05
6.528e-06
0.006698
1.029e-05
0.0001322
8.182e-06
0.0002561
8.081e-06
8.389e-06
9.134e-05
1.735e-05
0.004894
0.001694
9.511e-05
0.000139
0.006765
2.076e-05
0.0002134
3.377e-07
0.0003817
9.428e-05
3.901e-06
8.469e-06
8.562e-05
6.839e-06
0.006711
3.751e-07
7.597e-06
3.976e-07
8.526e-06
6.397e-05
1.486e-06
1.751e-05
3.319e-05
1.92e-06
4.809e-05
1.848e-06
0.006698
0.00669
0.000178
3.106e-05
0.006685
6.691e-09
7.652e-06
1.442e-06
1.666e-05
1.868e-05
6.756e-05
0.005048
7.423e-09
0.000894
5.417e-06
0.006747
1.146e-05
5.671e-05
0.0002696
8.496e-05
8.067e-06
0.0002566
4.128e-05
0.006661
6.091e-05
7.058e-06
9.247e-07
1.449e-05
0.0002949
0.0003134
2.214e-05
0.006699
4.456e-05
4.707e-05
0.0001719
0.0002
0.0002145
2.624e-06
0.005925
0.006713
1.597e-05
1.307e-05
0.0004039
1.691e-07
0.006701
4.945e-06
0.0001088
6.592e-06
0.006701
7.072e-05
8.527e-06
1.974e-06
2.614e-05
9.879e-05
2.263e-06
0.006715
3.979e-07
0.004764
2.733e-05
6.002e-08
0.0011
0.0001614
5.516e-05
1.52e-05
2.791e-07
3.603e-05
7.959e-05
0.006661
2.006e-05
9.812e-05
0.0067
3.706e-05
5.071e-06
2.139e-05
0.006764
0.0001902
7.143e-05
0.0001036
6.373e-06
0.0001543
0.00424
2.054e-06
5.497e-06
3.482e-05
0.0004669
0.006697
0.006705
0.0008568
2.211e-05
7.788e-05
8.324e-06
2.765e-06
2.389e-07
5.772e-06
2.746e-08
1.185e-06
0.001437
3.007e-06
2.529e-05
1.622e-05
0.0002619
6.964e-05
1.456e-05
4.712e-06
2.639e-05
8.256e-08
9.028e-05
0.0003511
9.083e-05
2.512e-06
7.542e-06
1.087e-05
0.0001977
0.0001228
3.019e-05
1.153e-06
0.004125
6.91e-05
3.512e-05
1.646e-05
4.961e-06
2.979e-05
2.976e-06
1.113e-05
0.006665
3.196e-08
6.7e-05
0.006749
4.609e-06
0.006696
3.292e-05
5.326e-05
0.001537
3.2e-05
7.209e-06
0.006707
2.935e-05
2.754e-05
3.18e-07
0.0006628
1.103e-05
7.259e-06
6.698e-05
0.006691
1.138e-06
0.0003014
0.0005965
1.29e-05
5.885e-05
8.356e-06
4.772e-08
8.774e-06
3.297e-05
1.767e-05
7.484e-05
3.552e-06
0.0067
0.0002781
3.555e-06
8.304e-06
5.959e-05
0.006701
1.428e-08
8.45e-06
1.108e-05
0.0001444
0.0001185
2.187e-05
0.006668
0.0005396
7.531e-05
8.525e-05
2.654e-05
7.004e-06
7.335e-06
2.708e-05
6.493e-06
6.729e-06
9.356e-05
4.549e-05
9.554e-05
1.198e-05
2.072e-05
3.146e-05
0.006701
3.338e-05
0.001055
0.0002892
6.292e-05
8.072e-05
6.218e-06
0.0001046
1.525e-08
1.859e-05
1.372e-05
0.002238
0.006691
5.916e-05
1.415e-05
1.013e-06
1.772e-05
0.000154
7.518e-06
5.445e-07
7.607e-06
2.188e-05
2.874e-05
3.413e-06
7.929e-06
1.073e-05
7.98e-05
8.266e-06
5.145e-05
2.71e-06
2.389e-05
2.88e-05
0.0003962
8.269e-06
0.006694
0.000129
0.0003753
0.006691
8.484e-05
8.287e-06
0.0003718
5.45e-11
7.252e-06
4.798e-05
0.006697
8.462e-06
5.093e-05
0.003009
1.358e-05
1.012e-05
1.65e-05
0.0001037
2.219e-05
0.006697
2.328e-05
0.006715
8.089e-05
3.738e-05
2.453e-06
5.888e-05
3.354e-06
3.915e-11
0.00661
0.006694
1.067e-05
5.51e-06
8.519e-06
0.0001602
6.122e-06
8.232e-06
3.533e-05
0.0002929
0.001343
3.424e-06
1.436e-06
1.467e-05
0.0002411
0.00669
7.911e-06
5.002e-05
6.986e-06
7.863e-06
8.898e-05
0.0007306
2.654e-06
1.615e-05
0.0002899
7.902e-05
3.423e-05
8.871e-05
0.006706
0.006371
7.518e-06
5.097e-07
1.73e-05
3.158e-05
0.0001788
0.0003979
8.093e-06
2.209e-05
0.006629
5.082e-06
1.316e-05
6.64e-07
1.486e-05
2.143e-05
0.006684
8.388e-06
7.27e-06
1.974e-05
2.891e-05
6.92e-06
2.274e-05
7.666e-06
5.925e-06
8.078e-06
8.146e-06
8.436e-07
7.911e-05
0.00205
7.021e-05
5.913e-05
4.419e-08
0.0005075
0.0004236
8.619e-06
1.242e-05
0.0003457
2.268e-06
4.394e-05
5.931e-07
0.0001151
9.282e-07
1.739e-05
6.674e-05
2.656e-05
6.665e-07
0.0003076
1.975e-06
2.045e-08
0.005129
1.41e-06
4.141e-06
1.037e-06
1.678e-05
7.505e-06
5.813e-05
0.0001251
8.423e-06
3.26e-05
3.014e-05
1.484e-05
0.0001837
0.0002284
0.0003808
0.000187
1.272e-05
0.0001484
7.454e-05
5.934e-07
3.445e-05
2.324e-07
8.359e-06
8.264e-06
0.006656
3.452e-05
7.298e-05
1.111e-05
4.218e-05
7.392e-06
3.911e-05
4.587e-06
0.0001017
1.813e-05
7.564e-05
3.44e-05
7.927e-05
0.0007877
0.000116
0.0001365
1.718e-05
0.0001758
0.0001219
1.82e-05
7.547e-06
0.0002816
6.714e-06
2e-05
5.751e-09
2.703e-05
4.01e-05
0.0001523
2.297e-05
9.744e-05
2.361e-06
0.004197
0.002268
0.005625
0.0002673
8.297e-06
6.447e-05
0.0002153
4.907e-06
0.0003163
4.861e-05
1.279e-09
7.612e-06
5.985e-07
6.585e-06
7.306e-05
7.618e-06
6.159e-07
0.0008426
3.402e-05
0.006697
9.7e-06
0.0001821
6.473e-05
5.31e-05
0.006684
0.006685
4.53e-05
0.0001183
0.0001117
1.363e-06
8.093e-06
0.006678
0.006697
9.044e-06
0.0002194
3.795e-07
4.452e-07
0.005804
4.1e-05
7.37e-05
1.839e-06
2.732e-05
1.495e-06
8.182e-06
0.0001891
1.028e-05
8.446e-06