/*--------------------------------*- C++ -*----------------------------------*\
  =========                 |
  \\      /  F ield         | OpenFOAM: The Open Source CFD Toolbox
   \\    /   O peration     | Website:  https://openfoam.org
    \\  /    A nd           | Version:  8
     \\/     M anipulation  |
\*---------------------------------------------------------------------------*/
FoamFile
{
    version     2.0;
    format      ascii;
    class       volScalarField;
    location    "55";
    object      omega;
}
// * * * * * * * * * * * * * * * * * * * * * * * * * * * * * * * * * * * * * //

dimensions      [0 0 -1 0 0 0 0];

internalField   nonuniform List<scalar> 
127143
(
2.183e+06
4.105e+06
4.682e+06
1.997e+06
1.676e+05
2.021e+06
6.622e+04
1.157e+05
1.848e+05
2.697e+04
9.739e+04
1.521e+05
5.509e+06
1.69e+06
120.1
6108
5.655e+05
2.19
16.7
4419
63.42
4477
0.1255
151.7
4547
623.7
1786
1966
1278
1.002
242
641.5
4259
452.4
0.05718
4155
42.65
5.447
104.7
738.4
16.67
2.078
1.305
7.844e+05
2.201
442.8
1218
60.55
131
118.2
5256
0.02841
54.07
0.3883
0.02096
250.4
0.02095
0.3978
0.02286
0.3843
0.8926
21.9
35.57
0.02211
636.7
0.944
0.07019
42.42
42.26
0.06925
177.8
1766
45.92
0.02286
0.0218
1899
0.02439
72.15
247.3
0.02222
1059
3903
317.4
600.6
37.53
72.25
77.27
2408
0.7778
418.6
0.02366
0.5845
233
63.47
188.4
0.6101
1.837
317.9
95.06
0.06895
0.02221
122.5
1872
2.315
73.69
96.61
41.41
0.06948
3.907
0.02133
117.5
2436
108.6
31.25
0.02182
1.318
0.02471
0.0218
0.0242
1.683e+04
0.02134
281
13.02
0.2192
1079
759.9
35.41
0.02527
142.6
240.5
115.9
199.9
19.64
72.23
6.419e+04
115.9
0.065
37.16
553.6
0.05836
0.2052
0.02347
31.36
18.03
52.09
63.39
5860
0.02213
200.8
2635
4.634
110.2
4.354
0.1116
41.23
38.64
0.3976
274
60.97
429
155
5338
0.02372
114.9
553.1
598.1
46.97
1.439
1664
0.0298
105.1
18.01
1.728
7.417
0.2087
28.12
55.42
142.2
126.1
0.03586
7.405
0.03663
26.68
27.91
242.1
20.77
0.1813
33.46
139.1
0.03558
87.55
188
0.05861
128.9
1.171e+05
26.44
0.01953
0.01947
1.725e+04
0.02203
0.02181
0.02981
0.2094
42.83
6.339e+05
59
0.06191
6.833
0.8111
0.02182
0.2272
30.49
0.02183
1672
122.5
1.463e+04
252.5
7.08
147.6
0.06224
44.69
0.02184
110.1
44.35
416.2
116.2
427
5.261
63.49
70.57
70.07
0.03635
43.29
1.117e+04
69.84
0.1121
115.5
2.561e+05
0.02181
64.48
177.2
572.9
31.12
270.8
13.93
1.343e+04
65.69
1723
9734
0.08328
11.33
613.8
8.604
36.26
172.4
4.011
0.02519
1191
3.596
0.08813
23.89
0.02998
0.5474
0.0233
35.87
589.3
87.24
53.57
1.784
4.694
456.5
0.2069
62.9
65.15
22.09
81.55
108
94
0.3538
3.694
0.04824
1.87
2.277
0.02178
0.0218
1.087e+05
147.6
0.02184
105.6
0.03736
4.116
0.3863
0.1118
2.352
0.02216
6.468
216.7
51.99
31.2
4.08
327
0.7723
0.6577
1.208
495.7
25.51
6.799
0.02185
4.267
9.662
45.84
77.36
310.8
0.03888
0.0218
241
8.757
320.9
0.3027
0.7728
0.1169
188.2
0.03275
8.625
251.4
14.47
0.03804
158.5
197
46.41
50.67
0.0218
0.05607
0.01954
0.01948
0.1086
3.793
1.726
50.8
160
0.05659
7.084
40.74
73.27
25.99
105.4
259
133.2
315.7
185
275.2
6.411
30.24
81
0.03318
240.6
36.24
48.21
0.02436
196.8
63.6
29.9
0.7627
110.7
115.8
0.02193
0.02201
1.065
417
0.3901
4.395
0.03295
450.1
124.8
0.03372
0.1164
200.2
8247
90.17
0.3331
1.202
732
238.7
0.7637
0.02457
1878
0.04879
706.1
27.74
3.262
0.02226
0.4096
78.23
158.5
137.5
234.2
0.4245
194.9
0.03289
0.02951
612
0.02185
52.84
26.34
0.05055
6.97
77.09
17.87
0.02222
108.9
11.39
305.5
0.2073
69.27
11.18
186.7
111.6
469.6
5.33
45.72
46.74
370.8
133.5
0.06402
71.47
0.1065
1.091
0.1279
529.9
0.07623
0.02116
127.9
31.36
0.3627
25.7
0.02192
8.132
276.9
0.02798
0.02213
0.02173
102.4
0.06595
4.566
0.02617
314.8
0.02187
46.93
1.092
30.44
78.77
207.7
5.9
454.6
0.04878
39.48
361.6
441.9
45.48
3.715
16.02
65.08
6.937
12.15
75.26
0.1621
0.02256
51.24
225
0.02079
75.83
0.5671
0.2192
8.33
0.05282
0.02029
46.16
0.5226
71.45
25.88
942.1
45.04
354.1
313.3
9.152
25.65
18.01
0.0217
342.1
0.02356
154.4
68.44
62.86
65.22
1.989e+05
106.7
10.01
0.1268
18.95
0.02175
909.1
0.02263
31.15
23.9
2.882e+05
1.481e+04
4.687e+04
0.02194
239.1
105.1
0.0218
62.76
16.68
73.49
2.562
79.98
209.6
75.69
775.4
0.1392
27.02
9868
62.34
319.6
92.88
0.02264
4.245
0.1757
5.901
0.02382
364
3292
78.9
0.01971
51.18
0.1273
144.1
11.04
2512
4.541
0.02377
50.98
7.392
0.02082
0.7678
4.336
186.4
110.2
227.8
95.97
27.16
9.275
31.56
59.76
127.9
0.02239
607.7
137.1
323.5
22.49
34.63
0.02213
0.02207
0.08127
258.4
27.58
0.02183
0.02713
5.243
128.1
73.18
9.128
100.8
331.3
1.943
0.02363
0.02134
79.55
88.78
19.8
0.02998
1731
16.34
177.6
0.33
454.2
0.02184
78.96
25.96
3.036
0.02391
67.92
23.93
2156
0.02027
38.49
247.7
0.02172
6.958
0.02186
72.47
18.01
0.02178
277.8
180
70.01
155.5
24.74
276.2
239.2
39.84
94.9
192.3
104
32.25
50.96
408.3
0.02596
255
0.02178
21.5
0.02577
30.36
0.02116
0.02184
0.4897
45.53
98.16
0.02133
0.02117
59.12
2504
291.8
294
56.15
4.493
75.59
12
71.62
132.3
750.8
0.02135
328.6
65.69
0.672
1.891
0.02403
0.02709
12.58
459.5
18.01
937
0.02566
0.03412
89.33
338.5
0.0294
584.8
0.1832
0.1437
133.3
3.389
59.89
0.1667
4.946e+05
105.9
45.95
39.56
147.5
233.6
420.7
358.9
0.02711
123
41.1
52.59
0.02122
89.44
0.6527
0.5261
0.01969
0.0212
687
0.1269
221.1
192.1
29.12
4.269
1.409
354.6
0.1522
150.2
0.02168
0.0209
15.15
0.1119
399.9
0.4536
407.9
58.45
89.47
0.1898
0.708
0.03063
311.4
0.05308
182.7
6.97e+04
15.28
31.19
87.36
0.02489
30.37
115.7
623.1
4.305
12.08
71.52
2284
112.1
41.4
22.14
123.9
38.09
9.609
35.09
0.429
1.067e+06
0.6418
0.02939
41.55
17.81
67.87
0.02156
30.44
5.998
73.13
0.03635
903.3
132.2
444.3
0.03699
367.1
33.29
312.9
208.8
0.03153
81.92
81.69
221.1
38.78
0.02211
40.75
78.96
0.02218
6.975
1.111
218.8
106.4
0.6564
15.33
539.5
84.34
0.01935
81.69
38.09
666.8
302.5
0.4274
61.92
91.49
0.01941
73.99
131.5
25.37
7735
24.83
75.43
83.68
30.26
2.233
0.02193
7.981e+05
132.7
145
127
52.76
51.12
75.62
140.7
0.02132
5.881
2.305
0.0321
89.28
154.2
42.23
12.9
0.02049
72.56
29.18
0.02169
0.02044
1.896
25.55
56.37
49.62
77.16
3888
3.42
0.3539
0.02124
96.82
44.66
211.8
407.5
1.173
0.04807
0.02248
3.16
1843
0.02126
0.1753
189.4
28.83
584.8
0.02307
26.84
31.6
0.02182
311.6
0.02121
25.55
1453
308.1
16.46
972.3
0.02313
232.9
0.1865
364.5
51.77
432.1
3087
0.4223
0.791
2.586
1386
0.0218
2.642
201.7
713.5
41.92
929.2
0.04635
0.1642
81.16
611.9
1828
133.3
1.985e+04
416.6
3653
188.3
108.6
4.844
1667
0.0243
54.55
0.02544
0.02347
39.9
0.02866
141.7
29.39
29.08
0.8481
0.04368
327.8
43.56
0.02226
2.009
53.4
0.04172
302.4
2163
29.67
5.669
121.6
10.94
55.83
0.02173
62.86
184
0.02413
254.8
132.3
17.01
0.0207
1.811
1.353
7315
4.613
2186
67.3
13.47
33.46
314.5
410.1
0.02167
512.4
1.07
0.02313
4.948
7414
1.732
704
5.891
1.649
557.8
3333
147.4
0.02355
0.02184
6.089
8.477
58.05
290.3
67.67
621.6
186.9
0.1217
609.1
0.06217
1151
0.02161
64.75
86.33
30.15
158.3
90.73
0.02179
0.02229
97.79
0.2772
43.53
133.8
61.24
56.72
13.67
171.1
286.3
1099
46.95
276.7
161.7
6.325
67.73
131.3
51.35
111.6
3030
92.93
0.02156
0.02142
80.39
38.08
0.7944
0.02093
13.77
75.56
0.5327
56.22
11.05
105.2
11.49
0.02223
0.4374
0.5571
1294
478.6
32.88
0.6047
2.331
423.1
143.4
15.39
49.79
16.87
73.48
46.09
796.8
0.02414
392.2
333.7
36.36
141.1
132.8
0.02188
656.1
1200
0.02097
0.02155
77.66
87.65
9378
44
52.63
120.1
76.8
0.4789
0.5101
0.02471
87.28
34.46
68.99
2.027
170.9
58.28
0.02407
858.2
37.1
0.02172
347.7
0.02276
0.02169
10.51
0.137
2279
0.02158
306.6
0.02182
179.1
0.1117
2.021
3.423
251.1
185.7
129.9
20.49
0.05049
0.03944
28.62
100.5
50.96
82.36
1080
88.35
1005
167.3
153.7
655
183.4
603.3
0.2924
3.993
0.03108
331
35.24
399.8
0.05299
52.18
39.46
44.06
34.85
93.31
0.7848
381.7
12.8
44.14
43.67
283.7
52.57
0.02076
12.85
342.2
0.02271
259.2
552.7
0.02081
1.857
46.07
0.03868
0.3168
8.546
129
0.2382
0.0199
230.5
136.4
0.02177
0.206
0.03642
76.23
201.1
3.988
0.03959
94.22
2117
252
138.3
58.96
1629
0.06243
79.82
0.02178
108
11.95
249
34.78
89.27
809.1
0.02197
9517
152.5
198.3
28.56
942.5
16.58
3.442
512.1
35.29
0.04032
1.917e+04
36.48
141.7
360.8
90.3
36.25
82.7
201.3
44.96
67.58
18.01
206.7
167.9
1.841
1767
0.1292
51.15
0.1231
254.9
0.01983
0.02166
10.9
1730
70.28
0.2201
750.9
78.04
0.02181
2574
52.56
13.64
2256
2.752
40.24
1.927e+05
2.007
271.9
59.03
39.24
905.5
162.1
420.5
9.037
334.3
0.08615
0.6245
4.69
112.8
4.018
51.93
60.53
479.2
52.51
0.3595
43.59
1.882
1.139
5.185
1682
0.05024
1693
249.7
44.92
70.82
0.02181
46.63
106.6
1.447
137.4
343.4
503.6
0.02136
195
100.4
98.45
874.7
59.79
5.5
67.64
0.02235
73.63
53.63
2894
228.7
0.09262
38.62
0.02252
2356
982.1
48.44
0.7848
3.864
0.0208
0.01983
55.71
26.81
19.9
0.1177
0.04209
0.04539
19.77
119.2
5.844
331.9
130.4
945.5
1.375
435.1
38.31
79.46
0.01987
241.6
48.35
23.54
1122
4.329
12.93
78.29
29.75
69.38
2958
1.092
136
62.19
13.07
2.538
114.2
2454
0.2135
80.51
0.0212
147.1
658.9
0.02036
763.5
15.34
52.88
201.8
0.02139
1.569
1.091e+04
0.02189
110.8
120.8
45.42
974.4
0.8885
2.323
69.78
562.1
76.57
276.6
0.07911
33.94
258.9
3362
160.6
106.3
0.0217
159.1
5.5
356
161.2
38.12
92.06
0.02208
1.454
66.02
0.0239
58.49
0.02133
2188
59.31
1658
51.27
37.32
788.4
95.64
87.49
146.1
4866
144.7
95.95
26.65
64.97
63.84
0.02211
32.78
0.02289
46.78
0.02201
44.13
0.02148
247.9
40.1
0.02079
0.02171
48.39
0.2145
186.7
0.133
0.0202
8.548
113
0.03907
5.093e+04
249.9
5367
87.89
19.33
157.5
90.65
31.38
0.3043
792.4
26.74
98.16
526.1
111
48.31
12.46
0.02156
4827
136
676.9
0.02181
1033
41.36
159.5
38.57
0.01976
0.01974
0.3603
1.054
5.748
32.3
31.72
1.097
2.25
0.7126
1.968
512.4
25.56
2.528
92.42
2.614
604
208.2
34.25
171.3
84.18
0.02235
34.19
39.67
1014
41.89
0.03879
24.75
1.086
74.68
30.8
706.3
0.7787
0.02174
42.08
10.69
1469
433.3
0.7967
133.7
150.7
0.16
0.01973
482.3
226.7
5663
0.08702
1789
37.24
0.02155
262.8
113.8
21.08
0.2331
32.76
68.24
26.94
99.22
46.9
160.3
0.05015
40.89
246.8
295.7
0.04374
0.04365
196
18.05
8050
91.95
342.7
368.2
4853
0.8036
52.53
0.02749
0.02198
0.02151
58.05
0.02187
1353
0.02173
4080
0.4896
17.63
49.08
262.1
0.07434
1647
0.3058
175.2
79.09
851.4
0.02264
228.7
86.74
67.39
180.6
94.04
89.35
516
618.3
0.05403
0.02061
382.2
0.0611
0.02014
0.4759
271.7
0.02061
671.8
0.02185
58.01
24.95
33.75
128.7
0.02097
70.94
278.5
126.7
0.1053
5.694
0.274
0.02178
0.02123
77.17
2.035e+04
8.539
44.36
0.02651
861.7
0.4829
0.1084
0.04885
2.506
82.32
245.8
0.02764
40.1
0.02344
87.74
0.02217
0.832
28.44
27.54
21.11
339.2
185.2
0.02122
25.9
551.6
69.3
960.1
437.7
8.261
0.03781
4.777
8340
37.37
459.3
500.5
0.05776
0.2491
0.02163
168.1
86.46
74.82
0.02181
114.7
0.02176
0.2502
73.62
0.02151
7.235
0.4406
13.52
35.99
0.3396
168.9
0.0219
152.2
499.1
2.09
16.96
83.77
0.04522
13.09
29.92
76.66
18.05
32.38
304
136.8
227.6
542.9
0.09323
0.3102
18.95
0.04019
117.8
91.14
0.1574
39.2
0.02646
0.1496
155.4
1.355
12.34
52.28
1084
46.78
920.7
0.8257
0.02066
908.4
63.89
0.1253
187.3
0.03111
24.09
0.02223
18.44
838.8
40.87
11.76
27.92
70.48
0.02187
30.7
0.6759
8.243
1217
0.02776
48.05
522.6
0.02161
0.02839
31.33
0.05831
48.91
2.414
1.922
16.22
0.7298
31.62
0.06077
0.858
138
0.02077
0.2747
1238
845
0.02097
57.57
1166
4.877
517
47.61
81.6
822.4
0.04989
0.09112
34.69
0.02785
538.2
14.14
35.33
766.3
276
0.02717
288.6
1.475e+04
4.755e+04
36.16
36.04
249.4
0.7004
54.89
5.96
30.33
241.1
51.01
46.46
30.82
603.6
99.9
1.135
0.02182
408
1.155
118.5
0.4626
0.05602
63.26
35.48
5.249
0.02052
187.1
444
7.825
416.1
63.9
1114
131.2
0.03057
250.7
466.2
64.9
51.7
1469
0.01939
2578
118.8
81.16
0.02569
58.18
66.51
304.5
353.7
34.79
417
0.02599
6.802
96.21
0.06264
47.88
0.02189
212.4
2505
75.39
408.7
5432
41.97
1078
0.08143
321.9
5.745
54.84
0.04675
10.28
16.16
40.81
57.69
0.04856
39.35
3355
5508
43.29
2.614
1.008
1.604
0.02233
0.02898
108.1
0.4923
0.02235
38.02
64.44
136.3
43.22
4.863
71.83
11.99
620
955
1289
0.1156
44.88
2619
32.49
190.4
2.903
6.673
28.91
3.401e+04
7.964
7.113
0.03549
0.06678
772.4
41.63
0.0218
0.02196
48.82
391.7
35.71
50.42
2021
27.5
0.02657
372.2
57.27
39.51
616.9
0.4791
1.992
51.99
163
0.8141
186.5
0.02189
105.2
37.96
396.4
0.7813
106.6
537.1
2.022
390
10.54
240
69.45
161
0.1565
57.17
67.54
95.18
367.8
39.61
1324
79.99
0.0218
40.66
2.898
316.2
27.65
0.1888
10.98
0.1431
843.1
0.03853
41.4
25.41
33.78
55.15
29.04
0.2254
918
0.2766
0.02742
89.82
0.02091
44.98
0.03849
0.8504
27.15
0.02152
0.379
107.3
135.7
0.02178
0.02487
55.24
9.691
296.8
0.2306
22.8
32.26
326.8
229
1.069
35.02
7.834
0.09891
53.48
2474
18.75
1905
196.1
21.4
1033
0.02181
0.02061
2.274
2.225
5279
0.02181
11.02
94.09
1.48e+04
120.1
252
0.0196
0.01918
184.5
203.4
30.74
39.13
0.04065
2.207
1.139
0.02222
368.5
68.88
37.83
29.37
688.6
0.2938
3.113
0.01991
5.453
65.51
342.6
156.7
171.8
171.2
70.41
102.1
57.69
341.8
186.8
0.0896
56.49
361.4
0.02597
0.02347
78.01
42.8
1099
3.351
100.6
241.5
0.1182
0.02178
8.649
0.02211
97.41
1957
48.46
0.1837
23.52
0.05563
565
269.6
0.0559
6.684
5.02
44.2
32.94
17.15
183
133.8
90.21
61.54
8.478
54.47
429.6
48.92
151.6
39.76
3861
37.4
68.45
79.32
13.65
3.761
7.843
1119
0.5039
265.2
0.02321
48.82
0.02214
68.49
21.3
950.3
127
0.1264
252.4
3069
437.7
80.86
30.38
316.2
1532
0.2047
32.61
17.17
1964
112.4
78.36
0.2547
0.4366
0.02181
25.86
2535
2.582
93.03
51.68
0.1323
1070
0.01984
16.73
0.5658
33.46
203.3
0.2355
2.229
35.24
0.05116
39.88
12.36
1015
102.3
105.7
0.02155
45.22
94.64
259.8
791.6
17.85
10.61
141.7
0.02185
125.5
98.1
7.426
16.35
35.56
814
317.2
90.74
65.75
0.6592
5.818
504.2
3.985
0.108
1320
0.05754
0.6723
0.02188
0.02199
63.39
0.02233
85.89
19.45
1.023
28.67
310.5
885.5
85.66
66.38
120.6
36.31
8480
104.6
107.9
0.767
3307
27.43
444.1
1257
0.03542
190.2
294.5
2.177
40.4
282.2
221.1
134.2
89.29
110
0.0301
8.655
0.02206
1.042
39.32
61.31
15.43
45.16
1753
58.22
0.02234
342.4
122.5
2.861
22.76
113.7
81.86
257.4
397.5
928.6
60.4
105.8
79.15
105
53.38
0.1061
4137
383.4
39.13
3.286
0.02248
127.3
345
54.32
2.107
967
387.6
118.5
2.441
113.5
1929
0.02248
190.8
19.94
0.04747
9.844
186.7
0.02181
258
44.81
5.689
4751
5.801
156.1
3322
90.1
103.4
0.01983
0.01977
97.9
11.99
3.376
665.2
56.52
0.02151
800.1
343.7
61.43
0.02247
0.02235
63.69
3.715
94.72
1.122e+04
209.3
0.02401
245.3
1695
0.1177
251
140.7
0.07044
0.9446
141.3
0.8509
31.08
0.01966
0.01944
0.01945
0.01964
0.08196
25.89
7.851
111
3.405
47.45
85.49
880.5
0.0204
181.8
43.48
156.4
622.6
199.7
38.03
30.1
141.8
51.72
68.29
0.1068
43.11
6286
70.56
702.9
0.802
26.95
0.02177
3447
124.9
131.9
3.637
0.03659
2860
0.0218
41.11
582.7
0.02897
222.2
57.6
35.87
36.42
283.2
0.05529
110.9
0.02068
5.645
89.9
59.47
70.25
16.79
0.02164
0.02189
0.3157
64.53
188.8
0.3553
49.6
229.7
1.78
221.4
143.4
5.815
55.73
25.59
77.2
0.2092
3433
0.8873
0.02178
1194
0.02178
0.02264
0.3453
0.08119
258.4
74.13
406.3
71.14
137.1
0.02188
0.09965
52.54
84.09
54.26
0.03903
0.3555
9900
951.8
0.02213
1565
948.7
9506
0.05791
5.846
13.87
0.1044
0.02539
4.691
97.64
7230
0.1294
274.7
3.65e+04
0.02179
156
767.4
54.31
0.02179
328.8
8984
4909
1123
0.4736
14.32
2551
0.05679
68.73
0.02154
48.5
981.1
7.728
242
1088
0.2451
32.73
17.09
0.02225
0.03269
200.1
377.7
3.484
309.9
191
0.9912
54.62
51.9
50.89
60.75
0.0218
50.69
70.05
85.35
83.45
26.01
191.5
81.36
1433
1934
2.038e+04
219.2
0.05419
162.8
0.02731
347.3
304
0.0218
2.214e+04
0.02221
68.38
1219
557.6
118.4
125.6
60.91
40.5
0.01965
9355
33.6
0.04716
46.56
37.03
2558
853.6
3279
24.83
169.1
908.3
34.92
0.1096
37.5
1561
0.02089
64.11
28.22
41.05
25.39
31.13
33.71
665.4
52.56
48.94
964.6
0.0415
623.2
0.1237
21.14
54.28
0.02601
0.1361
18.58
425.8
382.8
1376
0.04576
0.02214
2.581
96.82
1597
47
10.64
0.01932
0.03363
394.2
0.01976
111.1
136.2
0.08663
194.3
31.5
2231
1467
862.6
0.0404
232.1
45.91
265.1
4.086
12.91
973.5
69.64
306.8
104.9
315.3
82.49
1.937
1889
26.09
37.74
57.65
0.0413
23.76
0.1767
0.0222
10.76
150.4
127.9
72.24
20.58
2687
4211
55.7
3.124e+04
0.1911
0.3542
0.03685
0.06444
9.63
0.02221
39.54
1231
72.05
271.9
1.455
17.2
36.61
162.8
58.59
529.2
37.02
2398
270.5
0.02441
40.03
38.34
0.02204
0.04186
484
0.02186
288.7
207.7
101.7
3.453
620.2
0.07578
0.6555
0.04995
242.6
230.2
152.6
25.85
0.02144
90.76
0.02164
0.326
93.53
2.821
985.1
184.6
271.4
7.566
2474
1.042
0.1635
89.28
83.03
0.02084
2.51
0.02185
323.8
313.7
114.2
55.41
0.02165
227.4
172.2
158.7
560.1
334.6
127.2
0.02449
1.025
1.955
2.108
373.1
15.06
0.09589
4.766
0.163
23.62
127.5
0.02071
0.02042
0.02273
0.0415
0.2827
132.6
158.5
0.02208
94.74
12.49
62.15
0.02194
119.7
0.1098
459.3
0.05971
6200
13.09
514
0.03517
0.09863
873.3
0.03121
60.56
62.45
76.91
97.6
188.4
0.02182
116.7
59.31
48.4
44.55
76.98
4.1
77.11
26.42
764.3
0.02154
48.75
18.59
1964
0.1935
0.02209
471.3
589.7
82.48
58.24
6.666
735.1
0.05204
15.56
59.57
58.63
40.08
4.747
0.02432
10.24
1075
114.2
38.91
1089
3.021
3.637
0.02168
0.03055
0.1414
0.03652
6974
158.9
0.02195
0.02361
40.72
4341
0.02194
67.98
505
61.03
3.378
286.6
1013
186.4
42.2
281.6
2493
533.9
0.02225
132.5
16.73
151.7
0.02139
0.3486
71.51
35.12
60.94
3310
694.2
1.462
194.1
2411
9.103
81.79
76.99
1.763
0.9176
425.2
1710
0.02158
379.2
48.93
0.02193
770.2
67.55
3.773
0.07857
34.39
244.4
94.02
12.24
0.02189
0.022
2.01
39.25
0.02018
2.304
0.02755
307.9
49.12
60.01
181.9
448.2
1.923
49
0.02154
1046
14.82
1129
207.4
0.1093
445
5.298
306.8
820.9
12.89
766.9
0.02081
0.02125
100
0.07393
0.0214
2006
86.43
92.77
159.1
11.88
118.3
0.02433
1945
0.04232
27.9
0.02041
0.2199
168.2
51.4
136.1
34.51
41.4
77.79
0.02048
134.4
200.8
388.7
1071
0.1451
28.76
7.686
0.02195
72.14
224.6
0.1734
0.05123
31.59
844.4
0.02132
0.02164
10.95
143.3
58.87
1498
0.02206
233.4
129.4
50.5
0.02208
0.09044
336.4
68.27
157.6
82.93
25.31
0.02053
177.9
0.02599
377.8
1369
0.07215
38.05
30.61
214
805.5
81.14
0.06991
0.02048
110
0.2387
0.02167
424.9
86.7
10.11
0.02049
0.08494
0.1118
0.03027
46.84
77.77
0.0218
286.3
28.4
85.87
0.02913
0.02191
0.02168
0.0527
9.788
2.478
240.4
1046
1496
26.51
2285
642.3
0.02503
982.2
148.5
145.6
41.42
0.1841
1.907
273.5
552.5
520.5
70.01
0.06191
103.2
71.15
43.22
7.739
0.2363
43.17
0.2447
96.28
0.02954
106.1
5.643
3.883
0.5532
577.4
1610
891.4
0.02062
4613
107.5
0.02012
105.8
0.02182
112.4
173.6
0.1041
468.4
31.08
0.0223
1.778
7.739
1187
0.02362
0.2437
861.7
2.627
0.02158
600.5
49.49
0.03415
0.2314
3.316
74.3
2742
222.7
170.6
14.51
63.68
1.62
0.02173
0.0498
61.86
43
178.8
0.02207
2322
98.56
17.37
38.61
107.9
160.3
0.0202
0.06333
93.51
157.7
0.05619
49.63
253.8
7.367
3.874
6.494
30.81
0.04785
24.85
15.89
9.254
6.08
0.02205
142.9
0.1329
48.87
3.123
2.156
214.7
144.4
5902
11.19
0.9345
0.07312
0.02123
3.041
12.62
644.4
1057
57.92
166.7
288.5
41.04
0.8392
153.9
203.5
736.5
72.86
0.05049
417.4
1.108
403.6
7.091
20.51
28.21
99.38
0.02179
41.38
0.2347
0.02164
0.2672
413.2
1.096
4.154e+04
235.5
70.41
0.02168
31.46
253.2
0.03865
57.43
77.77
132.8
53.53
126.5
0.02188
212.9
0.02073
2.152
323.7
50.35
2.986
208.5
3e+04
0.02186
0.02175
15.73
31.26
366.8
0.975
102.7
267.9
5.693
57.12
0.02217
167.3
513.5
0.1202
68.42
0.02157
24.24
0.06792
48.52
164.6
152.2
0.2895
78.62
14.32
0.02829
80.27
256.1
0.2268
0.02153
0.02367
167.7
989.8
10.38
7.743
76.21
10.23
73.24
8.216
0.01939
0.383
1.125
1639
1594
239.2
0.02135
228
57.48
113.6
98.05
1096
3.125
45.76
43.04
28.69
276.3
714.4
0.9141
0.05612
11.6
0.03731
3013
0.02363
43.8
207.5
15.24
56.21
246
127.8
452.1
49.1
192
12.71
2.627
447.3
1587
54.1
888.4
1556
0.0218
983.3
121.3
390.2
570.1
42.89
1.456
45.57
36.4
5.779
0.04908
28.11
76.64
31.78
30.69
76.74
1.021
1.202
0.7182
1016
113.3
1390
42.65
232.2
0.02027
377.4
168.3
480.1
31.9
999
325.8
125.5
0.1038
900.9
0.09126
53.27
106.2
0.07071
0.6797
92.87
10.41
35.18
50.95
9.186
75.94
48.23
1079
8.901
6053
0.04704
5.008
43.18
12.66
0.05627
245.6
0.02181
0.02253
0.02178
48.84
64.05
63.88
0.45
0.1535
37.5
0.04956
5381
511.2
968.9
100.3
0.09046
279.1
599.3
0.08079
110.6
0.02187
25.52
30.95
62.6
2.044
0.0213
0.02184
212.9
31.34
0.04502
1039
67.36
0.02096
0.02182
27.98
0.03607
181
1078
0.02483
3.233
62.26
248.5
464.6
1087
9.29
0.1816
20.37
127.1
0.2981
341
8.93
2.333
245.8
67.31
3.152e+04
0.03055
24.75
145.2
1204
0.02184
66.57
0.0218
12.86
2.663
11.18
42.74
119.6
53.28
0.2337
400.7
80.19
120.1
284.5
282.7
76.28
1.243
30.62
337.1
38.07
118.8
0.02125
922.5
993.5
426.3
19.44
3.853
440.2
216.7
0.4566
0.138
7716
49.82
0.04398
0.02887
0.04557
157.8
278.7
2.921
955.8
5.256
0.03312
44.91
26.77
36.69
182.9
5606
628.2
37.02
221.9
49.31
121.5
149
49.06
18.27
19.54
439.3
49.16
0.415
41.75
244
0.1875
19.07
0.9973
4.534
1073
69.09
0.02204
857.1
8.788
1176
82.6
0.02153
0.1323
272.3
0.03367
69.45
342.3
671.4
17.88
0.02296
0.2486
32.16
64.36
0.09021
154.8
0.02078
229
74.49
58.98
47.51
148.4
155.4
139.9
846.7
0.3878
38.87
0.02183
1449
0.04648
0.02653
48.18
0.02211
31.96
59.75
1.927e+04
0.02196
69.73
34.83
184.5
151.1
0.2351
98.66
35.06
131.5
634
101.2
0.1162
0.02255
49.38
338.1
14
34.29
87.06
118.4
2.718
0.02115
30.17
70.74
2230
18.89
88.72
3.356
85.59
0.02151
8.059
945
395.6
0.02198
0.276
79.64
0.01992
33.58
441.4
31.98
0.02195
0.02201
21.19
0.0246
0.02014
0.02174
22.32
235.7
395.6
0.3495
60.81
4.631
0.831
0.02225
81.37
22.18
0.04877
1.029
387.7
2.347
0.02872
110.5
129.5
12.51
922.6
2624
0.02826
32.18
12.07
162
148.6
200.6
0.02194
21.14
1010
2.352
44.98
0.4734
536.5
96.89
75.75
5.644
1169
0.08215
2892
93.68
0.02849
0.03466
0.02
46.42
101.3
694.3
393.9
2399
0.1253
0.01941
36.2
45.1
0.1482
0.02215
310.4
26.61
426.6
129.3
87.92
31.35
14.13
9.329
103.1
0.01985
738.2
181.4
65.66
5.378
0.09923
0.02242
42.55
44.72
132.6
1336
17.07
0.0483
23.48
0.779
0.09436
0.02224
306.6
76.38
250.6
298.6
88.33
0.9892
43.34
45.65
3.132
34.28
0.4922
0.1906
0.02192
27.3
1863
1.091
0.8752
3733
0.349
0.02169
4.626
0.03208
0.02203
44.65
0.01948
0.01943
3.082
0.02012
89.87
1459
186.6
4.873
0.2027
0.02113
0.02197
4.841
88.7
12.46
992.1
47.87
0.02899
55.51
10.62
617
0.2519
0.02198
3.477
54.76
0.02203
0.02136
29.26
89.65
0.06466
0.03416
171.9
0.02131
0.4226
0.02183
5604
0.2127
77.99
49.07
0.0321
0.1737
11.12
34.53
236.8
29.45
34.28
26.89
0.02215
972
59.58
45.26
0.02191
54.22
47.35
184.9
65.68
0.3555
58.88
4.574
0.2104
128.5
0.02205
2.768e+04
5.152
1372
0.02197
86.72
0.02185
0.1031
1.894
249.5
43.15
39.89
2.76
0.08587
1037
0.09948
106.6
959.9
8.166
0.1952
0.03892
242.5
0.02163
1.701
77.18
5.969
5.271
0.02217
1383
0.03701
42.52
319.4
21.4
86.7
662.8
52.51
354.5
42.75
1.106
84.1
1.635
0.02178
0.02181
582.1
54.98
239.1
34.66
30.71
0.0218
28.29
0.02181
0.02197
0.03562
467.5
0.1601
4.543
0.02922
86.06
0.3197
156.6
107.1
1765
0.02779
242.6
28.44
37.85
0.2328
32.76
0.02187
39.92
0.2496
43.4
4.716
0.03518
104
2142
48.78
515.5
95.33
1857
437.6
2.272
13.93
1240
7.582
2615
123
90.17
155.1
52.46
123.5
76.7
204.9
0.0355
57.75
0.05947
148.9
1255
33.26
74.28
262.9
70.37
49.93
0.03022
98.13
109.8
3585
48.97
0.02324
87.08
29.97
59.62
0.05018
23.24
65.39
103.8
0.6916
450.9
13.57
349.6
64.6
237.6
71.31
32.6
78.85
0.02733
641.3
6.993
0.02579
36.56
42.04
73.33
304
351.8
0.02202
77.15
44.21
0.1347
3.819
51.09
3581
307.2
0.02088
0.02235
1.743
53.94
25.61
0.02161
18.32
56.26
173.2
962.8
0.02104
109.3
890.1
46.72
2753
185.2
212.3
183.6
33.09
6.805
0.02524
89.52
202.1
43.71
130.1
0.978
53.71
0.02202
0.04638
70.75
68.23
93
177
41.54
0.02214
219.2
193.6
0.3201
114.4
3915
606.7
0.03368
0.203
0.02731
34.01
185.1
282.9
439
41.8
133.8
0.02182
156
1.526
47.18
184.3
0.7102
993.5
20.34
685.9
0.04137
63.86
608.7
0.02178
62.99
38.31
94.59
55.54
0.0219
0.02198
0.03538
118.1
0.02215
27.02
376
0.197
87.76
81.22
0.04686
28.07
64.15
0.1918
489.9
111.9
1119
170.6
0.02206
390.7
701.1
0.02172
1123
6.784
14.18
14.18
206
49.79
29.69
40.82
49.4
0.02194
51.56
0.02178
0.06618
509.9
53.7
19.66
16.95
1.407
149.9
0.0219
0.01974
0.08812
39.16
53.15
28.02
994.8
1.692
0.1181
458
0.6355
37.82
0.02137
81.46
285.8
36.72
47.76
248.9
40.19
99.31
102.3
2.349
0.02453
82.59
55.02
51.7
148.1
1077
245.6
0.0215
38.9
109.9
36.08
4637
0.02181
202.5
81.35
26.66
39.76
105.4
2862
64.62
61.45
296.6
3479
5.664
63.32
800.6
5.355
0.02169
142
81.06
91.33
87.43
35.95
9.673
0.03508
88.54
42.5
469.6
8.597
362.4
515.2
0.02175
286
54.69
184.5
2.429
0.01943
147.8
88.47
8.831
25.82
0.02135
54.1
56.84
2.755
29.13
37.88
252.3
61.68
208.1
168.3
0.01993
37.72
44.81
111.6
271.2
45.28
16.36
94.63
37.2
21.21
58.5
147.7
942.4
347.7
229.9
5576
10.62
0.1111
1.294e+05
179.5
677.2
0.03189
654.4
1405
121.9
12.4
0.02315
9.254
0.02181
76.29
17.4
2.54
2.151
39.4
371.1
11.79
1.221e+04
58.2
131.7
97.86
2341
275.1
105.7
83
0.1541
83.47
41.56
1097
34.59
0.7093
0.9694
280.8
0.8818
0.022
0.02177
17.37
19.43
0.04856
0.02018
0.02231
81.8
513.1
401.7
0.02155
0.02571
28.01
0.01974
0.01985
283.5
0.04391
56.78
349.7
0.05723
152.4
3.884
146.9
11
101
0.07855
37.61
67.73
3.783e+04
89.56
67.74
119.7
572.6
2.031
0.02567
56.93
345.6
0.02178
3.476
111.4
324.9
940.9
40.01
137.5
390.5
0.02673
42.58
204
120
39.25
73.56
0.05948
14.62
33.66
205.4
62.21
88.2
0.03674
447.6
60.07
0.03219
92.45
0.05676
84.32
0.02921
2967
1133
0.03311
79.34
58.98
0.1867
904.3
189.8
0.02331
469.9
34.63
96.9
586.4
0.04591
0.401
4100
37.78
71.93
3.316
88.01
1.697
7.465
78.75
0.05007
1.288
176.7
36.32
83.12
82.2
129.2
2.843
36.96
276
86.83
3.035
13.87
0.0218
0.1574
220
45.3
0.01945
1.698
15.32
6.911
81.66
33.26
73.54
0.1719
84.58
39.75
0.09169
29.91
171.8
0.1577
352.1
0.05453
251.6
49.42
0.3814
0.08762
58.83
312.3
160.6
0.02106
149.2
63.05
49.62
0.06526
0.02235
30.27
138.3
433.4
7.613
29.77
64.11
82.32
2.005
1.825
1280
7.571
1.332
3725
111.9
35.54
80.96
0.02204
2.455e+04
0.02266
109.3
50.48
40.49
48.19
43
1361
17.55
5.372
0.5056
1.111e+04
282.7
70.22
8367
1198
281.4
49.07
0.1487
0.6142
0.3973
28.6
0.02187
177.8
1175
0.05917
22.09
2.964
72.3
51.02
246.3
2313
561.8
100.7
0.01943
0.01914
0.02179
86.8
2357
0.646
0.0216
0.2193
823
3.857
2557
38.23
0.02269
6759
0.01947
1.177
49.08
0.0498
38.57
0.4666
1.024
0.09179
627.6
73.94
26.58
53.87
8079
58.21
402.6
98.39
59.99
0.02213
5222
234.8
488.1
39.78
120
35.09
253.7
0.09898
28.55
139.3
47.89
167
0.02728
649.1
52.95
473.9
8.234
0.1047
0.1727
0.02217
119.9
98.56
57.39
50.29
27.77
794.8
33.53
30.45
36.08
103.1
0.2174
117.9
50.78
38.12
2.132
0.07455
4.643
0.1932
28.71
1.919
207.4
7.406
224.8
25.75
6.942
145.1
0.4487
733.3
28.09
1.443
0.1235
2039
95.95
82.84
30.04
1250
0.02204
486.2
304.5
32.1
39.36
32.87
27.83
263.9
81.97
95.4
37.04
41.16
2700
0.04642
0.02187
0.02209
52.56
226
1.887
1413
439.1
1704
92.03
44.78
735.1
1049
5.716
263.5
426.1
31.97
1094
0.02175
135.5
281
266.2
0.02157
267.3
14.9
109.2
131.5
68.54
0.02202
0.329
130.7
684
0.02093
100.7
3.578
0.4982
1.76e+04
0.03015
27.18
49.84
135.2
189.5
0.4505
24.69
6.148
214.2
343.2
285.4
0.01949
41.67
3.773e+04
0.02868
0.02408
483.8
777.4
172.3
73.8
0.07354
27.49
176.3
17.16
15.98
88.88
0.02004
41.91
9.095
0.2661
0.02357
84.42
0.02134
6273
43.98
4.558
13.01
2421
0.02259
382.1
0.02
0.02216
196
0.5463
146.8
18.79
0.06082
158.8
67.74
86.67
7.788
83.83
231.4
418.8
93.73
293.7
565
948.5
108.6
27.39
205.4
146
89.07
0.5298
0.0212
0.02119
1576
33.16
64.43
2442
0.02225
549.4
0.4929
0.02039
42.42
8488
7.08
247.7
3583
0.02206
242.6
133.6
84.66
56.53
26.13
2242
363.7
0.02176
2654
552.1
0.07969
0.02523
136.7
435.3
86.4
290.5
61.69
51.11
0.02178
213
0.02124
267.6
285.7
2354
0.01945
0.01916
0.2326
33.55
0.037
32.67
1.295
34.05
96.82
32.89
114.3
0.07464
0.02981
1251
1816
32.49
398.1
0.04841
63.25
0.02154
63.55
1855
75.2
192.4
813.7
276.4
201.2
1.088
32.07
115.4
0.02831
0.02214
0.02183
68.36
93.94
130.7
3078
168.7
0.02708
70.84
114.6
172.1
4323
17.14
80.98
530.4
21.12
0.07274
1.747
6.253
3.208
0.09948
442.1
39.51
19.74
41.12
281.7
0.2457
0.01976
993.9
40.78
55.79
75.28
1207
37.19
0.02085
47.97
112
94.11
3.458
43.41
67.09
4.602
114.1
2.029
0.05486
86.34
0.05531
0.1108
0.2296
757.3
11.36
524.9
96.08
25.14
132.1
0.0344
269.6
164.5
0.5167
37.88
14.49
3514
0.03779
0.02583
265.6
47.88
83.22
46.44
0.493
202.2
0.06707
0.02184
8.837
167.7
0.02752
1.891
12.35
0.02173
1058
0.06637
27.07
38.88
16.69
0.6767
293.1
164.1
2.296
0.07713
0.02222
96.4
26.48
57.88
61.67
0.02153
0.0202
0.02178
35.46
97.18
80.3
0.04357
427.3
37.13
279.6
23.27
350
0.3581
0.03662
1109
0.02236
176.5
94.95
0.03796
56.18
37.01
60.19
236.4
94.37
81.27
2.92
0.05079
2364
149.7
478.8
0.241
1.294
0.02185
1326
0.02173
48.26
718.3
0.02292
3.805
10.19
207.1
0.06841
53.77
6264
27.24
0.02169
63.75
176.4
77.96
70.17
64.4
131.1
1214
12.34
0.02073
0.02467
6741
10.51
214.9
5.519
24.54
0.02121
0.02193
1.61
3895
676.2
308.8
168.7
0.8507
184
687
26.29
112.8
0.0219
335.5
7.097
123.5
97.7
89.25
0.02161
369.4
71.53
1431
7506
16.84
7.263
1.082
120.1
0.02327
25.36
2469
74.42
155.4
190.8
1179
42.92
100.2
0.2028
439.5
480.9
1173
56.12
0.03047
770.7
644.9
0.02178
204.5
306.9
86.32
290.3
117.1
10.16
71.83
20.86
0.02791
42.18
0.02211
43.05
0.2076
1916
0.2488
2869
20.55
261.2
38.62
72.2
109.6
9.245
120.2
1055
36.68
34.65
47.45
4.886
76.39
71
21.03
0.02729
11.28
8.869
50.18
53.72
88.42
632.7
147.3
0.02797
164.7
1265
75.69
54.92
376.7
0.04422
136.2
0.02168
51.18
3.266e+04
1.979e+04
516.3
85.17
20.34
0.02111
0.0414
95.87
38.48
70.16
3.021
0.0222
55.17
217.6
5.9
86.94
0.02181
450.8
107.8
3479
6.399
14.32
34.38
246.9
0.0344
413.4
5681
0.9548
8.579
0.3941
185.4
2883
4.064
43.54
4.974
131.6
0.02731
58.28
0.01989
941.1
72.64
14.79
104.8
3.314
289.6
56.46
1.824
0.07853
0.02199
0.02169
20.14
56.87
46.52
34.95
28.67
35.52
3018
1.354
63.31
0.3364
0.02206
473.2
0.02228
65.72
373.6
3.385
69.81
28.71
2748
210.7
54.7
145
26.44
138.3
0.1761
989.1
0.02177
4246
876.8
34.7
56.22
0.02224
83.24
73.37
139.1
1.155
97.22
770
1036
0.02176
40.29
0.02193
0.02177
646.5
0.02898
50.55
7.807
1407
98.22
75.79
42.42
115.6
1.519
59.1
1.679
3.959
8.444
0.02515
53.84
0.07331
1396
41.31
30.13
0.3889
13.91
178.4
602.2
166.9
37.83
7.466
0.4079
131.3
46.35
314.4
98.83
0.599
56.56
75.39
34.96
37.57
4.562
57.29
6.816
161.4
3351
33.15
0.1975
0.03853
598.2
29.82
0.02179
356.8
0.4346
1267
159.3
0.01967
106.4
215.5
213.4
369.2
337.6
30.96
144.6
0.03851
431.3
269.2
55.08
147.1
32.91
82.11
0.02228
0.02384
0.02224
112.5
0.2659
0.02197
0.1111
2.108e+04
0.02194
154.3
432.7
1.046
267.9
197
87.32
611.4
24.34
86.69
88.92
2.47e+04
0.02174
231.9
14.01
31.71
1.947
5.063
3.285
1.468
931.1
0.04407
0.02875
1.306
1128
1218
280.9
480.3
0.0482
4390
0.02171
74.07
118.9
49.43
0.02179
0.7544
37.84
180.2
199.5
248.6
2.568
333.7
1876
10.69
43.96
0.02769
4.517
5.766
0.5069
1.09
10.21
185.6
17.43
0.3258
115.4
265.2
0.6454