/*--------------------------------*- C++ -*----------------------------------*\
  =========                 |
  \\      /  F ield         | OpenFOAM: The Open Source CFD Toolbox
   \\    /   O peration     | Website:  https://openfoam.org
    \\  /    A nd           | Version:  8
     \\/     M anipulation  |
\*---------------------------------------------------------------------------*/
FoamFile
{
    version     2.0;
    format      ascii;
    class       volVectorField;
    location    "55";
    object      U;
}
// * * * * * * * * * * * * * * * * * * * * * * * * * * * * * * * * * * * * * //

dimensions      [0 1 -1 0 0 0 0];

internalField   nonuniform List<vector> 
127143
(
(0.006992 -0.0003032 0)
(-0.0001854 -0.0008554 -5.298e-24)
(-0.0001313 -0.0006457 9.468e-24)
(-0.0001725 -0.0007845 -9.539e-27)
(0.07525 0.01238 -1.004e-20)
(-0.0001493 -0.0007864 2.24e-26)
(0.3094 0.1843 0)
(0.1415 0.06443 -9.262e-21)
(0.1001 0.04785 4.347e-20)
(0.0862 0.001602 0)
(0.4342 0.6149 1.371e-20)
(0.2151 0.14 2.842e-20)
(-0.0007058 0.0002673 -1.929e-24)
(-0.00022 -0.0008401 0)
(-0.3462 0.613 3.657e-21)
(0.1447 -0.0112 0)
(-0.0002513 -0.001174 -1.554e-23)
(0.9767 -0.1064 -4.42e-21)
(0.9939 -0.1985 0)
(0.146 -0.004884 0)
(1.248 -0.2784 1.194e-20)
(-0.01928 0.006865 0)
(0.8606 -0.09461 0)
(0.8941 -0.08552 0)
(-0.01893 0.007017 -1.528e-22)
(0.6855 -0.1113 0)
(0.5408 -0.01326 2.482e-20)
(0.5317 0.006504 -3.941e-22)
(0.3607 -0.1615 0)
(0.9876 -0.08159 6.909e-21)
(0.7941 -0.05202 0)
(0.6632 -0.1065 2.034e-21)
(0.4504 0.1126 1.128e-20)
(0.3091 -0.07586 -1.117e-20)
(0.7865 0.04148 4.601e-20)
(0.3838 0.1038 -3.598e-23)
(0.08415 -0.02352 1.103e-21)
(1.368 -0.2005 -9.14e-21)
(0.934 -0.08795 3.071e-22)
(0.5074 -0.0292 1.251e-24)
(0.9931 -0.1983 0)
(1.61 0.6631 -2.726e-20)
(1.564 0.6557 2.183e-20)
(-0.001442 0.0004617 0)
(0.9762 -0.1039 4.107e-21)
(0.3156 -0.07663 3.645e-21)
(0.3721 -0.1695 0)
(0.279 -0.07147 -3.782e-22)
(0.8882 -0.1518 -7.515e-22)
(0.9182 -0.07688 1.16e-22)
(0.1665 -0.01157 -3.972e-23)
(0.9227 0.002828 1.261e-19)
(1.521 -0.1652 0)
(1.405 -0.03839 -1.838e-20)
(0.9989 -0.002332 5.616e-20)
(0.7803 -0.1966 1.311e-21)
(0.999 -0.002321 -5.05e-20)
(0.9625 -0.0783 0)
(1.014 -0.0167 -2.584e-20)
(1.407 -0.03399 -3.637e-20)
(0.3183 0.2873 -7.593e-20)
(1.051 -0.2397 -1.189e-21)
(0.9847 -0.07547 -4.206e-22)
(1.001 0.0005974 1.76e-19)
(1.017 -0.09041 0)
(0.6925 -0.1382 -2.52e-20)
(1.262 0.1007 8.415e-20)
(0.982 -0.07797 0)
(0.9825 -0.07783 -1.254e-22)
(0.9985 -4.34e-06 0)
(0.858 -0.07058 0)
(0.5697 0.001467 -1.175e-20)
(0.5784 -0.1378 1.293e-21)
(1.014 -0.01655 -1.402e-20)
(1.007 0.003641 -6.097e-23)
(0.5681 0.01175 1.242e-20)
(1.045 0.04713 -1.091e-19)
(0.2543 -0.0716 0)
(0.7888 -0.1995 -2.577e-21)
(1.001 0.001304 0)
(0.3877 -0.1701 -4.431e-24)
(0.1694 -0.009043 1.882e-23)
(0.4486 -0.1038 4.265e-21)
(0.5808 -0.03937 0)
(0.1618 -0.04593 2.476e-22)
(0.2771 -0.07642 0)
(0.9519 -0.09583 8.028e-22)
(0.6024 0.03778 7.093e-21)
(0.693 -0.1352 0)
(2.065 1.166 0)
(0.9759 -0.01885 0)
(1.204 -0.1886 0)
(2.014 1.138 0)
(1.252 -0.278 -1.199e-20)
(1.163 -0.2222 0)
(0.965 -0.05902 -1.554e-20)
(1.606 0.6471 5.904e-20)
(0.7176 -0.0564 0)
(0.7094 -0.1827 2.333e-21)
(1.261 0.1073 0)
(1.001 0.00126 0)
(0.8897 -0.1522 0)
(1.893 1.727 -4.468e-21)
(0.9436 -0.1032 0)
(0.2933 -0.08114 -8.279e-22)
(0.6788 -0.1769 3.232e-21)
(0.9034 -0.1362 4.016e-21)
(0.9983 9.511e-06 0)
(0.4581 -0.09557 0)
(1.001 -0.001736 8.011e-20)
(-0.34 0.5981 -1.228e-21)
(0.6253 0.04263 1.418e-20)
(1.25 -0.2613 -9.095e-21)
(0.2848 1.328 0)
(1 0.022 -2.014e-23)
(0.891 -0.1312 1.078e-21)
(1.021 0.07135 1.714e-20)
(1.007 0.003865 -1.002e-19)
(1.044 0.0457 8.71e-20)
(-0.001746 -0.007575 0)
(1.001 -0.001847 -1.121e-19)
(0.4053 -0.104 -1.297e-21)
(0.5871 -0.1885 0)
(0.951 -0.08132 -8.053e-21)
(0.3881 -0.1717 1.442e-21)
(0.5921 -0.08236 3.242e-21)
(1.075 -0.2562 0)
(1.051 -0.01053 1.605e-19)
(1.611 -0.1247 -2.482e-21)
(0.7279 -0.2061 -2.481e-21)
(0.4239 -0.1199 0)
(0.9351 -0.2062 -4.503e-21)
(0.9697 -0.08774 2.375e-21)
(0.2588 -0.07238 0)
(-0.0003698 -0.002107 -8.449e-23)
(0.4398 -0.1231 -1.431e-21)
(1.055 -0.07788 0)
(1.272 -0.2713 4.241e-21)
(0.2262 -0.1202 -1.879e-20)
(1.102 -0.07506 9.499e-21)
(0.8183 -0.1099 4.567e-20)
(1.005 0.05775 -1.987e-20)
(1.453 -0.1967 8.009e-22)
(1.325 -0.2437 -9.823e-21)
(1.52 -0.1648 -3.748e-21)
(1.958 0.5823 1.447e-20)
(-0.3208 1.58 -2.628e-21)
(1.001 0.0005212 -1.597e-19)
(0.914 -0.1995 3.622e-21)
(2.045 1.701 -1.948e-21)
(0.952 -0.09858 1.748e-21)
(0.8669 -0.1652 0)
(1.375 -0.189 3.045e-20)
(0.7078 -0.008543 0)
(-0.07332 0.2126 0)
(0.1724 -0.04711 0)
(0.9628 -0.07783 1.767e-21)
(0.624 -0.2132 0)
(0.2852 -0.07368 -7.59e-22)
(0.6984 -0.06075 -1.579e-22)
(0.8609 -0.05957 0)
(0.1823 -0.08895 3.17e-20)
(0.9765 -0.01949 2.35e-21)
(0.4243 -0.1159 -3.336e-21)
(0.6909 -0.1805 0)
(1.095 -0.1016 8.426e-21)
(0.08586 -0.02449 -6.571e-22)
(0.4572 -0.03643 4.474e-20)
(2.098 0.4703 -5.649e-21)
(0.9673 0.127 -2.757e-21)
(-0.03653 0.0125 0)
(1.324 -0.2443 4.838e-21)
(0.8792 -0.1385 3.476e-21)
(0.7208 -0.1856 -1.052e-20)
(0.9948 -0.002711 1.286e-20)
(-0.000972 -0.003641 4.592e-24)
(1.938 0.7226 -2.944e-21)
(1.609 -0.1257 -2.481e-21)
(0.9217 -0.09354 0)
(1.011 -0.02871 1.066e-20)
(0.7196 -0.1857 -3.545e-21)
(0.9723 -0.03751 0)
(-0.006257 -0.01304 5.638e-23)
(-0.000541 -0.004065 -4.689e-24)
(0.7276 -0.2074 5.002e-21)
(1.052 -0.2387 2.613e-21)
(1.347 0.4133 -3.141e-20)
(0.3168 1.346 4.28e-21)
(0.9035 -0.08727 6.229e-22)
(1.027 -0.03929 4.785e-20)
(1.506 -0.1849 2.53e-21)
(1.511 -0.1798 -9.997e-21)
(1.055 -0.07723 5.098e-20)
(0.6917 1.865 6.832e-21)
(-0.0002224 -0.00219 1.414e-22)
(1.148 -0.2723 0)
(1.006 -3.152e-06 0)
(0.9945 -2.054e-06 1.098e-21)
(0.04522 0.001437 0)
(0.9968 0.0335 1.327e-21)
(1.021 0.006512 7.377e-20)
(0.916 0.08426 1.178e-19)
(1.001 -0.04916 -2.731e-21)
(0.09194 -0.02562 -5.432e-22)
(-0.0002948 -0.001477 2.019e-24)
(0.9802 -0.0681 -1.727e-22)
(0.905 -0.0652 1.785e-20)
(0.8808 -0.1438 -1.105e-21)
(0.9905 -0.08175 -4.108e-21)
(1 0.02145 2.097e-22)
(1.094 -0.1491 1.244e-20)
(0.08628 -0.02669 1.544e-22)
(0.9784 -0.0001345 3.229e-20)
(2.122 0.4808 -5.709e-21)
(0.3379 -0.09665 -2.19e-23)
(0.09088 -0.004641 0)
(-0.0431 0.01557 -3.905e-22)
(0.8587 -0.1537 5.545e-21)
(0.9758 -0.2302 -6.802e-21)
(0.9069 -0.06492 4.321e-21)
(1.917 0.7161 -6.783e-21)
(1.004 0.008996 6.008e-20)
(0.8678 -0.1654 -8.769e-22)
(1.527 -0.1566 3.697e-21)
(0.6632 -0.05701 0)
(-0.03883 0.01392 0)
(0.7319 -0.1907 -2.91e-21)
(1.369 -0.1983 1.091e-20)
(-0.02321 0.008953 2.854e-22)
(0.9052 -0.2242 4.286e-21)
(1.255 -0.276 6.859e-21)
(0.9712 -0.0371 3.622e-20)
(0.6418 -0.1505 -2.497e-21)
(-0.002065 -0.008264 0)
(1.256 -0.2769 0)
(0.9458 -0.07203 -1.085e-20)
(0.4252 -0.1156 1.646e-21)
(0.01845 -0.002919 5.771e-23)
(1.021 0.006192 -6.764e-20)
(1.489 -0.1901 1.136e-20)
(1.521 -0.1802 7.314e-21)
(1.342 -0.08539 -1.057e-20)
(0.05396 -0.01225 -8.539e-23)
(0.6278 -0.2134 -9.54e-24)
(1.491 -0.1481 0)
(-0.001464 -0.007792 3.88e-26)
(0.8528 -0.1639 5.071e-21)
(0.5289 -0.001721 0)
(-0.01385 0.005023 3.191e-21)
(1.001 -0.0002273 -2.493e-21)
(1.795 0.4166 -4.969e-20)
(0.6558 -0.07244 -1.398e-21)
(0.8065 -0.172 0)
(1.312 -0.2598 0)
(0.8088 -0.1917 3.614e-21)
(0.48 -0.1099 0)
(1.049 -0.01094 -1.261e-19)
(2.226 0.6549 0)
(0.774 -0.1723 0)
(1.022 0.4387 -1.028e-20)
(1.179 -0.2729 -6.185e-21)
(0.9585 -0.02984 -3.282e-20)
(1.205 -0.1855 6.959e-22)
(1.003 0.05712 1.197e-20)
(1.564 -0.1197 0)
(1.241 -0.08955 -3.585e-21)
(0.1335 -0.03982 2.62e-21)
(-0.1171 0.2281 0)
(0.3176 0.09837 8.71e-20)
(1.507 -0.09012 -1.464e-20)
(0.7651 -0.1427 0)
(0.9941 -0.002799 -1.521e-20)
(0.3452 -0.08357 -6.068e-22)
(1.488 -0.1909 -1.049e-20)
(0.9847 -0.07181 -6.972e-22)
(1.505 -0.184 -1.025e-20)
(1.257 -0.2631 0)
(0.9077 -0.1401 -4.389e-21)
(0.9919 -0.006144 -1.261e-21)
(0.7038 -0.1763 1.04e-20)
(0.9993 -0.001076 3.006e-21)
(0.9631 -0.05868 -1.894e-22)
(0.9437 -0.1029 6.519e-24)
(0.9913 0.01205 0)
(1.011 0.01674 3.604e-20)
(-0.0009395 -0.002293 -2.033e-23)
(0.5915 -0.1562 0)
(1.001 0.02334 -2.384e-21)
(0.9216 -0.1268 -2.294e-21)
(1.01 -0.02879 1.606e-20)
(1.372 -0.1887 -4.636e-20)
(0.835 -0.1268 0)
(0.9448 -0.07223 1.106e-20)
(0.857 -0.1483 0)
(0.9768 -0.009343 -2.97e-20)
(0.4307 -0.1061 -1.557e-21)
(0.8123 -0.06799 -3.519e-22)
(-0.01952 -0.01653 -4.278e-23)
(0.05375 -0.01267 3.23e-22)
(1.504 -0.08858 9.881e-21)
(0.7776 -0.09002 4.85e-22)
(0.757 -0.1419 -4.6e-21)
(0.5977 -0.08719 -2.957e-20)
(0.8907 -0.1308 -1.052e-20)
(0.6329 -0.04665 0)
(0.1592 -0.0009376 1.544e-23)
(0.8811 -0.1434 -3.658e-22)
(0.9777 8.958e-05 0)
(1.118 -0.2394 3.208e-23)
(0.9548 -0.0983 1.863e-21)
(0.9085 -0.1342 4.336e-21)
(-0.01728 -0.009886 -7.42e-24)
(0.7997 -0.1915 0)
(0.9991 -0.001134 2.176e-21)
(0.9871 0.01648 -3.115e-20)
(2.075 0.7731 2.86e-21)
(1.387 -0.2023 4.618e-21)
(0.7619 -0.08393 -9.323e-22)
(1.23 -0.1507 3.369e-20)
(1.002 -0.02348 1.096e-21)
(0.8602 -0.09307 0)
(0.8263 -0.06072 1.8e-22)
(1.084 -0.0225 3.336e-20)
(0.8073 -0.1719 2.858e-21)
(2.078 0.7719 0)
(1.447 -0.1801 -1.095e-20)
(0.8554 0.0507 8.081e-20)
(0.003979 -0.01424 -1.242e-23)
(0.8357 -0.04336 6.553e-23)
(1.894 0.8517 2.186e-20)
(0.9344 -0.2228 0)
(1.011 0.01641 -3.14e-20)
(0.7922 0.03597 -1.677e-19)
(1.006 6.526e-06 0)
(0.9943 5.984e-06 0)
(0.7105 -0.004007 0)
(0.473 -0.1036 -1.002e-20)
(0.8785 -0.1384 3.52e-21)
(0.9295 -0.2214 -1.048e-21)
(0.6032 -0.1537 -1.411e-20)
(1.099 -0.07353 -4.196e-20)
(0.8592 -0.1535 0)
(1.509 -0.1664 3.185e-21)
(1.505 -0.1827 2.876e-21)
(-0.03326 0.7367 -7.372e-22)
(0.9209 -0.1259 1.528e-21)
(0.5773 -0.1314 -3.617e-21)
(1.309 -0.245 3.625e-21)
(0.8116 -0.09829 8.805e-22)
(1.658 -0.09719 0)
(0.8214 -0.0945 -6.509e-22)
(1.021 -0.2028 3.294e-21)
(0.001512 -4.845e-05 -1.049e-22)
(1.506 -0.1831 9.248e-21)
(0.9443 0.1487 0)
(0.5789 -0.133 -8.374e-21)
(1.311 -0.2605 -5.499e-21)
(1.931 0.513 -1.238e-20)
(1.004 -0.01253 1.29e-20)
(0.8242 -0.04249 0)
(0.436 -0.103 -1.185e-21)
(0.9844 -0.07527 -1.295e-22)
(1.02 -0.159 -9.705e-21)
(0.9197 -0.06939 0)
(0.9223 -0.08041 3.885e-22)
(1.004 0.003732 9.201e-22)
(0.9968 0.03268 -4.603e-21)
(0.9743 -0.01395 0)
(0.626 -0.1143 3.151e-21)
(0.9893 -0.00588 0)
(0.1484 0.3821 7.659e-20)
(1.083 -0.02479 -6.737e-20)
(0.7109 -0.0803 1.218e-21)
(0.9109 -0.07045 -2.643e-22)
(1.028 -0.03822 0)
(1.202 -0.09861 -6.687e-22)
(0.8524 -0.08441 -5.105e-22)
(-0.004312 -0.00262 -7.784e-27)
(0.6732 -0.1703 -6.119e-21)
(0.9954 -0.006872 1.317e-21)
(1.105 -0.209 -4.357e-20)
(0.6337 -0.08254 -3.14e-21)
(0.8373 -0.1043 0)
(0.7537 -0.1434 -1.728e-20)
(1.02 0.06889 0)
(0.2839 -0.02224 0)
(1.092 0.2541 0)
(0.5266 -0.03164 0)
(1.152 -0.2735 -1.743e-21)
(1.239 -0.2321 -4.032e-20)
(1.016 -0.01404 -7.484e-20)
(0.574 -0.03585 0)
(-0.03342 0.01232 2.339e-22)
(0.7927 -0.1965 3.896e-21)
(0.9008 -0.08406 -8.857e-22)
(0.798 -0.05826 -1.778e-22)
(0.579 -0.0415 -2.372e-20)
(0.8176 -0.05305 0)
(0.9394 0.1473 0)
(0.9582 -0.02884 0)
(0.5694 -0.04481 3.404e-23)
(1.004 0.008568 -2.249e-20)
(1.3 -0.2692 0)
(-0.00456 -0.0135 0)
(1.102 0.2524 0)
(0.94 -0.1088 -1.845e-21)
(0.3369 -0.09296 -4.227e-21)
(0.9645 -0.09186 -2.004e-21)
(1 0.001407 -2.669e-20)
(0.9333 -0.09545 0)
(0.441 -0.1422 0)
(0.8125 -0.1151 2.404e-21)
(0.8204 -0.1092 -4.883e-20)
(0.3835 -0.09581 0)
(0.5865 -0.1857 0)
(1.187 -0.2255 -4.167e-21)
(0.8833 -0.2241 -5.815e-21)
(0.7379 -0.1408 0)
(1.441 -0.1556 8.719e-21)
(0.5252 -0.1934 -4.88e-21)
(0.08955 -0.02569 0)
(-0.01008 0.003413 -6.682e-21)
(0.3301 -0.09151 0)
(1.002 -0.0001462 8.644e-22)
(0.8843 -0.2171 -4.623e-21)
(1.144 0.4562 2.207e-20)
(1.544 0.6385 9.437e-22)
(0.7911 -0.08146 -3.015e-20)
(1.399 -0.1043 1.324e-20)
(0.8804 -0.07311 -1.541e-20)
(1.005 -0.0004857 0)
(0.315 -0.08868 0)
(-0.002742 0.001494 0)
(1.08 -0.1645 7.279e-20)
(1.652 -0.02239 1.537e-21)
(1.004 0.0036 -2.768e-20)
(0.9076 -0.13 -4.438e-21)
(0.6945 -0.1525 -7.791e-21)
(0.9248 0.003183 -4.667e-20)
(0.9767 -0.008529 0)
(0.9928 0.00119 -9.341e-21)
(0.9293 -0.0784 -1.661e-22)
(1.052 -0.08083 -1.663e-20)
(0.4695 -0.1112 1.968e-20)
(0.9785 0.09004 0)
(0.7348 -0.05721 1.283e-23)
(0.9827 0.01846 7.635e-20)
(0.04189 0.05033 0)
(0.9767 -0.01404 7.292e-22)
(0.08665 -0.02633 1.268e-22)
(1.127 -0.2711 0)
(0.8708 -0.108 -1.022e-23)
(0.9402 -0.108 5.346e-21)
(0.6472 -0.1111 1.968e-20)
(0.8959 0.2494 -1.96e-21)
(0.08395 -0.02117 -1.898e-22)
(0.7764 -0.09307 4.759e-22)
(1.564 -0.08253 0)
(0.1289 -0.03391 0)
(1.426 -0.1496 7.396e-21)
(0.9696 -0.08754 -7.522e-22)
(1.586 -0.1233 6.494e-21)
(1.225 -0.2495 0)
(0.3607 1.236 1.097e-20)
(1.586 -0.1245 -9.836e-24)
(0.9979 -0.002367 0)
(1.025 0.03679 0)
(1.388 -0.2374 0)
(0.423 -0.1078 3.856e-21)
(0.9948 -0.0003227 0)
(0.8878 -0.2225 2.721e-21)
(1.241 -0.1764 2.272e-20)
(0.9515 -0.08056 1.2e-20)
(1.385 -0.2014 -1.595e-21)
(0.916 -0.05667 2.312e-20)
(1.005 -0.0002685 0)
(-0.1372 0.3419 -2.505e-20)
(1.24 -0.1739 -2.658e-20)
(-0.01282 0.005362 -2.82e-22)
(1.5 -0.1598 7.603e-22)
(0.2446 -0.1286 1.396e-21)
(0.02274 0.07478 -1.958e-20)
(1.171 -0.1654 2.445e-21)
(0.7973 -0.1916 0)
(0.4454 -0.1336 0)
(1.649 -0.0225 -1.645e-21)
(1.485 -0.1607 -6.66e-22)
(1.016 -0.001054 7.361e-20)
(0.7404 -0.0652 2.395e-22)
(0.9689 0.04826 4.322e-20)
(2.039 0.7749 9.246e-22)
(0.9564 -0.09619 -7.163e-22)
(1.533 -0.1614 0)
(1.957 0.55 6.537e-21)
(-0.0004686 -0.002385 0)
(0.3437 -0.0982 3.683e-21)
(0.1936 0.9876 -2.57e-22)
(0.9584 -0.0581 -5.182e-23)
(1.61 1.166 2.8e-20)
(0.9821 0.003953 -1.522e-19)
(0.2499 -0.1318 0)
(1.027 0.03637 1.3e-22)
(0.03284 -0.007306 0)
(1.149 -0.2708 -7.686e-21)
(-0.0002148 -0.001245 0)
(-0.003193 -0.009594 1.147e-22)
(-0.00501 0.001571 -3.797e-23)
(0.9991 -0.0001973 -6.409e-20)
(0.5892 -0.1374 0)
(1.79 0.0706 0)
(0.9877 0.01635 5.801e-20)
(0.6685 -0.1559 1.732e-21)
(0.5857 -0.1906 1.804e-20)
(0.2105 -0.05802 2.427e-21)
(0.915 -0.1221 0)
(1.114 -0.2676 0)
(0.8649 -0.1061 7.536e-22)
(0.8938 -0.2267 -2.725e-21)
(0.3261 -0.05971 1.692e-21)
(0.9993 -0.002161 0)
(0.04784 -0.02619 -1.467e-22)
(-0.01413 0.005025 0)
(0.5112 -0.1935 3.313e-21)
(0.7737 -0.07622 -1.805e-22)
(-0.03564 0.01217 7.636e-23)
(1.015 -0.01587 -2.301e-20)
(0.952 -0.09838 1.906e-21)
(1.003 -0.04886 -1.551e-21)
(1.225 -0.2482 1.36e-20)
(0.9941 -0.01434 0)
(0.6977 -0.05546 0)
(2.099 0.9618 0)
(-0.02888 0.01073 -4.293e-22)
(0.9931 5.886e-05 0)
(1.387 -0.2379 -4.396e-21)
(0.932 -0.08262 1.157e-20)
(-0.03044 0.008381 -2.717e-26)
(0.4045 -0.1228 8.364e-21)
(1.943 0.5627 1.802e-21)
(1.171 -0.2464 -3.814e-21)
(0.9585 0.04156 3.408e-21)
(0.01621 -0.003484 -2.555e-22)
(0.5584 -0.1685 -1.038e-20)
(0.9948 -0.0003228 8.216e-21)
(0.7555 -0.1436 2.301e-20)
(1.428 -0.1582 -4.221e-20)
(0.838 -0.07322 2.751e-22)
(0.9257 -0.06891 -1.044e-22)
(0.3964 -0.1003 -4.066e-21)
(0.04955 -0.01676 4.579e-22)
(1.151 -0.2726 3.923e-21)
(1.568 -0.06737 0)
(0.5435 -0.1942 4.659e-21)
(0.1626 -0.04738 0)
(0.3286 -0.09093 9.32e-23)
(1.026 -0.01109 -1.128e-20)
(0.5605 -0.03275 3.406e-23)
(0.632 -0.166 -3.188e-21)
(0.8072 -0.1208 -2.492e-21)
(0.9535 -0.1009 2.684e-21)
(0.08688 -0.0219 4.443e-22)
(1 0.002736 0)
(1 0.003636 2.823e-21)
(1.026 0.4197 1.708e-20)
(0.5619 -0.1292 -1.796e-21)
(1.593 1.235 0)
(0.9864 0.01925 -4.012e-20)
(1.004 8.553e-06 -7.79e-22)
(0.5766 -0.162 0)
(0.4553 -0.1868 0)
(0.3036 -0.08265 1.222e-21)
(0.4435 -0.1336 0)
(0.01289 -0.003745 1.681e-21)
(0.04105 -0.01268 0)
(0.817 -0.1577 -3.946e-21)
(1.038 0.04244 0)
(0.9976 -0.0009111 1.389e-20)
(-0.02441 0.00909 4.308e-22)
(0.889 -0.2276 -2.793e-21)
(0.8081 -0.1748 8.101e-21)
(1.001 -0.002481 2.472e-20)
(0.5644 0.003998 5.998e-21)
(0.9596 -0.09504 0)
(0.5442 -0.1423 5.104e-21)
(0.9962 -0.006487 3.411e-21)
(0.7084 -0.08995 -1.455e-22)
(0.9858 0.01897 7.468e-20)
(0.3663 -0.1012 -8.304e-22)
(-0.001031 -0.02074 0)
(1.205 -0.2372 5.441e-22)
(0.9968 2.19e-05 5.854e-22)
(0.07281 -0.02263 -1.769e-21)
(1.18 -0.2726 -1.583e-21)
(0.2383 -0.1259 -2.204e-20)
(1.005 -0.0002425 -3.195e-21)
(0.9027 -0.136 -4.194e-21)
(-0.04296 0.01562 1.761e-22)
(0.9928 0.0009465 0)
(0.9398 -0.1088 0)
(0.995 0.02476 -5.165e-22)
(0.9633 -0.07188 -2.036e-22)
(1.467 -0.1736 0)
(0.9912 0.01159 3.899e-20)
(0.4535 -0.1083 1.007e-20)
(0.8867 -0.1188 -9.802e-22)
(-0.01537 -0.0127 0)
(1.442 -0.2123 -1.09e-20)
(1.449 -0.1939 -1.296e-21)
(0.8324 -0.0966 1.963e-21)
(0.8433 -0.1053 8.001e-22)
(-0.1346 0.5181 -1.237e-20)
(0.9405 -0.0896 2.556e-22)
(2.001 1.132 3.126e-21)
(0.9346 -0.05502 -4.607e-23)
(0.0006959 0.001792 -1.202e-22)
(1.561 -0.1339 -2.222e-21)
(0.7107 -0.06658 -1.503e-22)
(1.001 -0.002415 0)
(0.833 -0.1738 -2.228e-21)
(0.9895 0.01416 -1.635e-20)
(-0.01041 0.7534 -6.692e-21)
(1.063 0.005825 7.391e-20)
(1.451 -0.1962 1.224e-20)
(1.004 -0.0005785 0)
(1.001 0.02323 -7.052e-22)
(0.964 -0.07779 -7.756e-21)
(0.5239 -0.1927 2.444e-21)
(1.191 -0.2664 4.45e-21)
(1.003 -0.001243 2.043e-20)
(1 -0.003111 -3.121e-20)
(-0.0214 0.008488 -2.65e-22)
(0.9529 0.1183 0)
(0.5085 -0.116 4.501e-21)
(0.7578 -0.06684 3.758e-22)
(0.4658 -0.1097 0)
(0.4696 -0.1099 -1.575e-20)
(1.115 -0.2683 -6.725e-22)
(0.4402 -0.1434 0)
(1.504 -0.1823 -2.516e-22)
(0.2619 -0.07458 -1.172e-20)
(1.019 -0.07122 0)
(1.002 -0.001315 -3.566e-21)
(1.7 -0.06895 1.018e-20)
(1.495 -0.1858 1.124e-21)
(0.8906 -0.1246 2.92e-21)
(1.379 -0.1558 0)
(0.9803 -0.02021 -9.993e-20)
(1.004 4.201e-06 8.61e-23)
(1.446 -0.1789 -1.051e-20)
(0.2303 -0.1204 -5.356e-24)
(1.484 -0.161 3.331e-21)
(-0.0377 0.01299 6.471e-22)
(1.063 0.007479 0)
(1.003 3.098e-05 3.731e-22)
(0.2579 -0.07203 0)
(1.481 -0.1276 0)
(0.92 0.08226 -9.405e-20)
(0.9251 -0.1154 -4.754e-21)
(0.897 -0.1018 0)
(0.9834 -0.04155 -4.172e-20)
(0.1834 -0.05528 4.051e-21)
(0.7959 -0.1682 -2.474e-21)
(1.495 -0.1852 6.951e-21)
(0.6877 -0.0365 -8.898e-20)
(-0.001554 0.0004697 0)
(-0.038 0.01365 0)
(0.1334 -0.03495 -2.014e-22)
(0.08281 -0.02225 3.368e-22)
(0.5961 -0.1556 0)
(1.377 -0.1985 6.365e-21)
(0.7451 -0.09634 3.31e-22)
(1.063 -0.1602 0)
(0.9252 0.0173 -2.186e-20)
(1.584 -0.141 1.206e-20)
(-0.02092 -0.007184 0)
(1.299 -0.2689 -6.634e-21)
(0.9995 -0.002315 7.218e-20)
(0.9072 -0.1397 3.219e-21)
(0.6734 -0.12 0)
(0.4295 0.3777 -3.646e-20)
(0.9931 2.897e-05 -3.707e-23)
(0.9996 -0.002383 -9.623e-20)
(-0.002985 -0.01405 0)
(0.9585 -0.05761 3.221e-21)
(0.8623 -0.158 -3.291e-21)
(1.479 -0.1891 -6.967e-22)
(0.2289 -0.0752 0)
(1.119 -0.2398 1.545e-20)
(1.529 0.01247 0)
(0.7034 -0.05997 -1.167e-22)
(0.5954 0.2634 6.852e-20)
(0.7703 -0.1992 0)
(1.015 -0.001191 -2.648e-20)
(1.003 -0.001404 0)
(1.828 0.468 0)
(1.158 0.4536 0)
(0.6759 -0.1239 7.155e-22)
(0.4316 0.3524 0)
(0.5016 -0.2023 7.476e-21)
(0.6077 -0.1384 0)
(0.5022 -0.1934 -8.787e-21)
(1.094 -0.1463 8.105e-20)
(1.022 -0.1581 1.389e-20)
(0.9976 4.449e-05 -2.847e-23)
(0.7412 -0.05185 8.326e-24)
(0.9177 -0.05712 3.214e-21)
(0.8296 -0.1876 -2.22e-21)
(-0.0005534 -0.002564 1.986e-23)
(0.9046 -0.1332 -1.377e-21)
(1.563 -0.1181 -1.395e-20)
(0.7077 -0.1817 6.649e-21)
(0.997 3.52e-05 -5.625e-22)
(0.9542 -0.1017 -4.717e-23)
(0.9179 -0.08305 5.128e-22)
(-0.03296 0.01137 0)
(0.9919 -0.1758 1.077e-21)
(1.26 -0.2547 1.088e-20)
(1.504 -0.1825 -3.773e-21)
(2.024 1.679 0)
(0.8716 -0.2204 5.792e-21)
(0.281 -0.1201 1.781e-20)
(1.006 -0.2107 -9.567e-22)
(0.8015 -0.1899 1.003e-21)
(0.9556 -0.1019 -1.262e-21)
(0.9545 -0.0983 -8.935e-22)
(1.079 -0.2563 5.73e-21)
(0.8616 -0.1264 1.326e-20)
(0.0099 -0.0005734 0)
(0.6697 -0.1202 0)
(0.9649 0.122 1.586e-20)
(0.8146 -0.1743 -2.283e-21)
(0.4665 -0.1695 1.431e-20)
(0.9558 -0.0992 2.643e-22)
(1.007 -0.002949 0)
(-0.01561 -0.009775 -3.619e-23)
(1.022 -0.2028 -6.785e-21)
(0.3083 -0.08339 -1.147e-21)
(1.003 1.705e-05 -3.165e-22)
(-0.03755 0.01324 0)
(0.3438 -0.09649 0)
(0.7149 -0.09091 -1.987e-21)
(0.9982 3.255e-05 1.957e-22)
(1.015 -0.1567 6.417e-21)
(0.01073 -0.001067 0)
(0.9221 -0.1689 7.725e-21)
(1.562 -0.1557 -6.151e-21)
(0.9979 1.866e-05 -1.675e-22)
(0.4933 -0.1282 -2.736e-21)
(-0.02772 0.005481 0)
(0.3384 -0.09141 7.045e-21)
(1.322 -0.2583 0)
(0.9961 0.03625 -1.106e-21)
(1.51 -0.1659 3.187e-21)
(-0.2706 0.8296 0)
(1.028 -0.004524 -2.434e-20)
(0.87 -0.1492 4.133e-21)
(0.8318 -0.1474 0)
(1.4 -0.1961 -7.359e-21)
(0.3448 -0.0976 0)
(0.7582 -0.1403 -1.393e-20)
(0.9044 -0.1334 0)
(0.6497 -0.0814 -3.66e-22)
(0.1452 -0.04201 0)
(0.9939 9.615e-06 -4.997e-22)
(0.4814 -0.1248 2.586e-21)
(0.9676 -0.2163 4.235e-22)
(0.54 -0.04277 0)
(0.8337 -0.1201 -1.818e-21)
(1.397 -0.05531 0)
(0.6861 -0.1607 0)
(0.05269 -0.01751 1.074e-22)
(0.9935 4.366e-05 -1.191e-22)
(0.2202 -0.06127 -2.514e-21)
(0.184 -0.05338 0)
(1.494 -0.1644 0)
(-0.002381 -0.008582 -2.015e-23)
(1.494 -0.1636 -3.683e-21)
(-0.02852 0.0105 6.248e-22)
(1.364 -0.2541 -1.499e-21)
(0.05531 -0.01263 0)
(0.8071 -0.1617 0)
(0.9992 -0.0002211 3.159e-20)
(-0.001465 0.0005508 -1.572e-23)
(0.5228 -0.1419 6.005e-21)
(1.452 -0.214 9.404e-21)
(-0.02818 0.01017 4.924e-22)
(0.1858 -0.04903 -1.914e-21)
(0.04021 -0.01118 1.067e-21)
(0.1721 -0.04814 -8.534e-22)
(0.8782 -0.07343 0)
(0.9974 -0.0008435 0)
(1.01 -0.1938 0)
(0.9375 -0.1079 -1.105e-23)
(0.9979 2.042e-05 0)
(0.1975 -0.05589 -3.459e-21)
(2.037 0.7713 0)
(0.908 -0.134 -3.011e-21)
(0.6059 -0.1895 -5.656e-21)
(1.006 -0.0001419 -1.324e-20)
(1.131 -0.2723 0)
(-0.003453 -0.001464 0)
(1.016 -0.0008757 -8.597e-20)
(1.006 -0.000158 0)
(1.376 -0.1579 0)
(1.043 -0.2383 3.709e-21)
(0.4681 -0.1103 -7.79e-22)
(0.03074 -0.008268 4.709e-22)
(0.3566 -0.09677 1.884e-21)
(0.1751 -0.009516 8.265e-24)
(0.9294 -0.1144 0)
(0.5159 0.05236 -6.019e-20)
(0.9998 -0.00243 0)
(0.4406 -0.1158 -2.389e-21)
(0.08524 -0.02361 0)
(0.8102 -0.05648 1.8e-23)
(0.6701 -0.05509 0)
(0.4627 -0.03412 -4.428e-20)
(1.002 -0.0007752 0)
(1.015 -0.01535 2.627e-21)
(0.9825 -0.04372 2.258e-20)
(0.581 0.005821 7.074e-21)
(0.9998 -0.0023 1.266e-20)
(1.081 -0.1371 -2.849e-20)
(0.1552 -0.079 4.531e-21)
(0.9348 -0.1153 -3.425e-21)
(0.6797 -0.09388 2.272e-21)
(0.9996 -0.002851 0)
(0.03575 -0.01413 -1.948e-22)
(0.9416 -0.1111 1.76e-21)
(1.004 0.01105 0)
(0.8182 -0.09899 -8.64e-22)
(0.9956 -0.0003869 0)
(0.3264 -0.1241 2.243e-20)
(-0.4443 0.7311 -1.058e-21)
(1.32 -0.172 -1.481e-22)
(1.524 -0.1277 0)
(0.4512 -0.02713 6.382e-23)
(0.9753 -0.01689 4.981e-21)
(0.3672 -0.09588 0)
(0.6738 -0.04421 -2.114e-20)
(0.7041 -0.05967 0)
(-0.02124 -0.006497 -4.15e-23)
(0.7563 -0.09945 -5.27e-22)
(1.534 2.124 -6.769e-21)
(1.401 -0.05047 -1.677e-20)
(0.8619 -0.1362 -6.591e-21)
(0.5319 -0.1181 3.037e-23)
(0.3583 -0.06688 0)
(1.003 0.01423 0)
(1.305 -0.2086 2.347e-20)
(0.6711 -0.2105 0)
(2.103 0.393 5.425e-22)
(-0.02099 -0.006742 1.562e-23)
(0.5713 -0.09361 0)
(1.002 -0.0007301 0)
(1.024 -0.09939 1.27e-20)
(-0.02462 0.009417 -2.109e-22)
(0.6057 -0.1394 -7.268e-21)
(0.3602 -0.01912 3.24e-20)
(1.865 0.1647 0)
(-0.1742 0.2024 -2.053e-21)
(1.968 0.2359 -1.984e-21)
(0.1748 0.0281 2.348e-20)
(0.8506 -0.1958 -3.011e-21)
(-0.0244 0.009158 8.604e-22)
(1.011 -0.1935 3.077e-21)
(0.3166 -0.02398 -6.841e-23)
(1.036 0.05628 -1.434e-20)
(0.9173 -0.1305 0)
(1.004 3.619e-05 0)
(0.9967 2.74e-05 0)
(1.442 -0.2077 5.673e-21)
(1.086 0.02501 3.774e-21)
(1.532 -0.1823 9.582e-21)
(0.8373 -0.1524 5.41e-21)
(0.2579 1.286 0)
(0.9554 -0.08993 6.771e-21)
(1.039 -0.05367 -2.194e-20)
(2.093 0.8228 7.998e-21)
(0.8087 -0.1766 4.004e-21)
(1.015 -0.01381 5.248e-20)
(1.037 -0.1935 -1.52e-22)
(0.1412 -0.04008 -3.686e-22)
(1.039 -0.05168 3.197e-20)
(0.4857 -0.1113 -1.111e-20)
(-0.01684 0.004909 -3.57e-21)
(-0.009545 -0.02789 0)
(0.8431 -0.1592 0)
(-0.3342 0.5616 -4.127e-21)
(1.303 -0.2417 0)
(0.01952 -0.00493 0)
(0.9863 0.004954 5.16e-20)
(1.533 -0.16 5.6e-21)
(0.8293 -0.1883 2.247e-21)
(1.004 -0.01222 0)
(0.4547 -0.1114 4.957e-21)
(0.6005 -0.1553 0)
(1.06 -0.2396 -2.57e-21)
(0.9949 -0.0002958 4.13e-21)
(0.9652 -0.02141 3.115e-21)
(1.058 -0.1956 0)
(0.1233 -0.00865 2.628e-23)
(0.6233 -0.1691 -1.321e-20)
(-0.01706 0.005177 0)
(0.9995 -0.2501 3.145e-21)
(0.4491 -0.1529 0)
(0.8205 -0.1724 -8.059e-22)
(-0.04234 0.01517 0)
(1.513 -0.1021 1.999e-21)
(0.9964 2.391e-05 5.398e-23)
(0.2062 -0.1126 0)
(1.609 0.3568 -3.143e-20)
(1.004 3.329e-05 0)
(0.5064 -0.1335 4.109e-22)
(-0.01236 0.004079 1.541e-22)
(1.164 -0.2252 -6.936e-21)
(1.886 0.1212 -6.617e-21)
(0.9834 -0.06048 -7.531e-22)
(0.8999 -0.1287 -1.507e-21)
(-0.03908 0.01412 -9.27e-25)
(0.1299 -0.01829 7.737e-23)
(0.8995 -0.09431 0)
(1.037 0.04281 -3.744e-20)
(0.9962 0.009609 6.302e-21)
(0.8574 -0.1536 0)
(0.3989 -0.1051 -4.403e-21)
(0.1228 -0.03585 -2.509e-21)
(0.5158 -0.1171 0)
(0.4358 1.613 1.593e-20)
(0.479 -0.1982 -4.084e-21)
(0.7075 -0.004631 -2.457e-22)
(1.318 0.0122 -3.974e-20)
(0.4841 -0.1984 -4.046e-21)
(1.107 -0.08219 4.745e-20)
(0.6754 -0.04664 0)
(1.008 -0.001674 0)
(0.3024 -0.07793 1.924e-22)
(-0.01251 -0.01256 -2.626e-24)
(1.362 -0.2404 -1.362e-20)
(0.432 -0.1159 0)
(0.8625 -0.2209 0)
(0.9919 0.008563 -3.001e-20)
(0.9695 0.02125 2.394e-20)
(-0.02066 0.007898 0)
(0.7909 -0.1168 3.216e-20)
(0.01094 -0.001039 0)
(0.9125 -0.1178 0)
(0.002346 0.0002616 -6.786e-22)
(0.3047 -0.0732 -8.937e-22)
(1.48 -0.1561 -3e-21)
(1.757 0.01393 -1.769e-21)
(1.563 -0.122 -1.041e-20)
(0.3372 -0.05115 1.211e-21)
(1.498 -0.1777 -7.942e-21)
(0.7684 -0.05668 -6.698e-23)
(0.2071 -0.05864 4.961e-21)
(0.9375 -0.1101 4.222e-21)
(0.5309 -0.1255 2.989e-21)
(0.7177 1.854 -7.829e-21)
(0.05034 -0.01522 -3.193e-23)
(-0.01208 -0.0116 1.519e-23)
(-0.02205 0.0076 0)
(0.8276 -0.2136 0)
(1.007 -0.002827 0)
(1.005 -0.005124 4.324e-20)
(0.6117 -0.1554 2.304e-21)
(0.09725 -0.02466 0)
(0.889 -0.1275 -1.878e-20)
(1.006 3.034e-05 0)
(0.3963 -0.1287 -1.473e-20)
(1.114 -0.269 3.346e-21)
(0.9675 -0.07426 5.464e-21)
(0.02501 -0.006394 0)
(1.451 -0.1716 -1.867e-20)
(0.1778 -0.05186 -3.805e-21)
(1.697 0.9075 -3.892e-20)
(0.9999 0.001391 -2.334e-20)
(0.867 -0.1252 0)
(0.9711 -0.05662 2.771e-21)
(0.4634 -0.1807 0)
(0.633 -0.04778 0)
(0.00229 0.001659 6.833e-23)
(0.521 -0.02511 3.384e-20)
(1.282 -0.2129 4.503e-20)
(0.6916 -0.1238 0)
(0.8937 -0.08341 1.682e-22)
(0.9768 -0.07978 0)
(0.8006 -0.1756 0)
(0.4059 -0.1433 1.618e-20)
(0.9468 -0.1087 -1.275e-21)
(0.08214 -0.02355 0)
(0.4483 -0.193 -5.331e-21)
(1.008 -0.01647 -1.955e-21)
(0.02159 -0.00843 0)
(-0.0392 0.01399 0)
(0.9786 -0.2189 0)
(1.47 -0.2087 1.288e-20)
(-0.3536 0.6219 -4.65e-21)
(1.011 0.02422 -5.372e-21)
(0.09701 -0.02231 7.73e-21)
(0.3322 -0.06515 0)
(0.9974 -0.0003461 0)
(0.997 -9.643e-05 -2.811e-20)
(1.538 -0.162 1.712e-24)
(1.221 -0.2717 1.306e-20)
(-0.01326 0.004867 -1.604e-22)
(-0.02113 -0.01114 1.669e-23)
(0.9169 -0.1302 6.698e-22)
(0.569 -0.2028 0)
(0.06851 -0.02168 -2.496e-21)
(0.8761 -0.1242 0)
(0.9223 -0.1081 0)
(0.973 -0.02172 -5.472e-20)
(0.07139 -0.02257 -4.669e-21)
(0.1032 -0.04953 0)
(0.09109 -0.02901 -2.256e-21)
(0.837 -0.1537 0)
(-0.0346 0.01114 7.549e-23)
(0.1867 -0.05289 -2.385e-21)
(0.9991 -0.001797 -1.618e-21)
(0.3487 -0.04801 0)
(0.002322 0.00111 -4.511e-22)
(0.9977 -0.000802 -1.062e-19)
(1.198 -0.1711 -3.841e-21)
(0.9977 -0.0003742 -1.129e-20)
(0.9863 0.0008978 4.791e-20)
(0.9248 -0.12 -1.684e-21)
(0.8677 -0.09878 0)
(0.3167 -0.03038 -4.041e-20)
(0.9958 -0.002196 1.078e-20)
(0.8178 -0.09769 1.002e-22)
(1.007 0.006664 0)
(2.049 0.8187 0)
(0.8819 -0.09061 -2.509e-20)
(1.022 -0.1844 1.681e-21)
(0.9448 -0.1034 2.503e-21)
(0.8443 -0.1635 5.181e-22)
(0.8879 -0.1281 0)
(0.1634 -0.04799 9.659e-21)
(0.9503 -0.1031 -2.981e-21)
(1 -0.005584 1.091e-20)
(0.9684 -0.04038 -6.383e-20)
(1.369 -0.2368 6.898e-21)
(0.8742 -0.1594 -1.454e-21)
(0.03373 -0.009162 -1.275e-22)
(0.104 -0.03095 0)
(0.412 -0.02966 -2.73e-24)
(0.07815 -0.02271 -1.712e-21)
(0.01486 -0.002556 -5.935e-20)
(1.426 -0.2104 1.183e-20)
(0.7476 -0.2038 0)
(1.738 0.03499 -1.507e-20)
(0.8698 -0.09183 1.379e-22)
(0.6551 -0.08009 0)
(1.095 0.7302 -1.357e-20)
(1.019 -0.1946 0)
(1.003 -0.01277 9.451e-21)
(0.7551 -0.1455 1.369e-20)
(-0.01801 -0.001135 5.086e-23)
(0.7501 -0.1266 0)
(0.9987 2.446e-05 3.561e-22)
(0.06506 0.002801 6.293e-20)
(1.158 -0.2765 0)
(0.967 -0.09318 -1.177e-22)
(0.7373 -0.1924 1.534e-21)
(1.514 -0.1822 -9.457e-22)
(0.9323 -0.1068 4.437e-21)
(0.473 -0.1017 0)
(1.164 -0.263 7.133e-21)
(0.9668 -0.0933 -3.565e-22)
(-0.01564 0.006896 -8.422e-24)
(0.754 -0.2014 -5.627e-21)
(-0.02114 -0.006795 4.425e-23)
(0.9978 -0.000838 0)
(0.9809 -0.07349 5.792e-22)
(0.8024 -0.1489 0)
(0.9744 -0.01398 0)
(0.8724 -0.1769 0)
(1.046 -0.1087 1.63e-21)
(0.9966 -6.31e-06 4.541e-21)
(0.8226 -0.1563 9.54e-21)
(-0.02484 0.00637 0)
(0.9532 -0.04041 0)
(1.128 0.7191 4.979e-20)
(1.314 -0.234 0)
(0.007355 -0.02288 0)
(0.8976 -0.1076 1.954e-20)
(1.007 4.64e-05 -2.795e-22)
(0.7109 -0.1594 -1.523e-22)
(0.3264 -0.09011 -2.483e-22)
(1.016 -0.007381 4.69e-20)
(1.187 0.6095 -4.146e-20)
(1.133 0.07172 1.983e-20)
(1.092 -0.2664 5.076e-21)
(0.482 -0.1212 -5.278e-21)
(0.8812 -0.1419 4.258e-21)
(1.042 -0.04976 0)
(-0.03185 0.009096 -2.91e-23)
(-0.02694 0.009881 4.821e-22)
(0.8428 -0.1758 -2.588e-22)
(0.9035 -0.1408 2.016e-21)
(0.95 -0.2314 -1.793e-21)
(0.3104 -0.02706 0)
(0.9981 1.862e-06 -3.826e-22)
(0.9483 -0.09818 -9.304e-22)
(1.009 0.008433 1.016e-21)
(0.5185 -0.1379 0)
(0.3239 -0.07645 -1.411e-20)
(1.161 -0.2 0)
(0.7384 -0.1924 1.377e-20)
(-0.02089 -0.0022 -2.193e-23)
(0.3931 -0.06502 0)
(0.9994 0.005788 -5.996e-21)
(-0.01356 0.0052 0)
(0.1057 -0.03291 0)
(0.1955 -0.05393 3.869e-21)
(0.9741 -0.08611 -9.059e-22)
(2.182 0.6457 0)
(1.14 -0.2646 -5.486e-21)
(0.9965 -0.1766 1.156e-21)
(0.6145 -0.04776 0)
(0.9227 -0.1242 0)
(0.8585 0.1279 -9.734e-20)
(0.0597 -0.001743 2.975e-23)
(0.06829 -0.01752 3.354e-22)
(0.8878 -0.06469 0)
(0.7898 -0.1636 -3.159e-21)
(0.9138 -0.1353 0)
(0.1395 -0.02147 -6.174e-20)
(-0.01302 -0.02152 2.816e-22)
(-0.0151 0.005607 1.626e-22)
(0.8878 -0.1447 8.52e-22)
(0.1674 -0.04944 0)
(1.529 -0.1255 0)
(0.865 -0.1049 -1.208e-21)
(0.8851 -0.09028 4.627e-22)
(1.158 -0.2273 0)
(-0.01376 0.003346 0)
(0.9534 -0.06848 -5.02e-21)
(0.8303 -0.1696 -4.51e-21)
(0.9324 -0.08182 0)
(0.8387 -0.1421 1.437e-21)
(0.9939 4.423e-05 0)
(1.004 -0.001161 1.536e-19)
(1.417 -0.1914 -1.556e-20)
(0.2972 -0.01937 1.867e-23)
(0.3264 -0.08733 1.815e-21)
(1.002 -0.02787 6.618e-21)
(0.1529 -0.03006 -7.926e-21)
(-0.00121 0.001606 5.842e-22)
(0.9951 0.01137 -1.903e-20)
(1.155 0.1572 0)
(0.9288 -0.1227 3.762e-22)
(1.49 -0.1474 0)
(-0.002559 -0.01478 0)
(0.7237 -0.1696 -1.154e-20)
(0.05378 -0.01398 1.913e-22)