/*--------------------------------*- C++ -*----------------------------------*\
  =========                 |
  \\      /  F ield         | OpenFOAM: The Open Source CFD Toolbox
   \\    /   O peration     | Website:  https://openfoam.org
    \\  /    A nd           | Version:  8
     \\/     M anipulation  |
\*---------------------------------------------------------------------------*/
FoamFile
{
    version     2.0;
    format      ascii;
    class       volScalarField;
    location    "5";
    object      nut;
}
// * * * * * * * * * * * * * * * * * * * * * * * * * * * * * * * * * * * * * //

dimensions      [0 2 -1 0 0 0 0];

internalField   nonuniform List<scalar> 
127143
(
5.077e-14
7.848e-16
3.237e-15
3.55e-14
6.648e-07
3.752e-14
1.092e-06
9.044e-07
6.467e-07
1.253e-06
1.142e-06
8.35e-07
1.661e-14
6.777e-14
1.272e-06
7.279e-08
1.705e-13
0.0001005
2.087e-05
7.845e-08
1.311e-05
1.354e-07
7.117e-05
5.165e-06
1.258e-07
4.872e-06
4.992e-06
4.89e-06
7.032e-07
0.0002
4.772e-06
2.877e-06
3.174e-06
1.221e-05
3.752e-05
3.732e-06
0.0001326
3.458e-05
5.128e-06
1.7e-06
2.088e-05
2.038e-06
2.226e-06
8.641e-13
0.0001003
1.237e-05
7.026e-07
0.0001236
4.486e-06
5.093e-06
7.579e-08
0.0003236
6.526e-06
1.813e-05
0.006684
3.632e-06
0.006684
0.0002712
0.004043
2.086e-05
2.902e-06
1.612e-05
5.983e-06
0.006702
1.373e-05
1.965e-05
3.028e-05
5.647e-06
5.647e-06
0.00139
5.105e-06
7.606e-06
0.0001652
0.003424
0.006696
6.465e-06
0.0004418
9.873e-05
3.627e-06
0.006705
1.504e-06
1.021e-07
1.915e-05
2.404e-06
0.0002598
0.0001005
5.246e-06
4.958e-06
1.832e-05
3.383e-06
0.00214
4.94e-05
3.723e-06
1.31e-05
1.854e-05
0.00026
2.252e-06
5.044e-06
5.173e-05
3.374e-05
0.006705
4.467e-06
3.185e-06
8.307e-05
7.43e-05
5.41e-05
6.172e-06
0.00139
6.776e-06
0.006683
1.356e-06
5.328e-06
1.579e-05
6.235e-07
0.003243
8.458e-05
0.0003674
0.006696
0.0005538
8.547e-09
0.006684
1.725e-05
1.377e-05
0.0002305
1.484e-06
2.925e-06
1.675e-05
0.0006502
6.379e-06
3.339e-06
4.361e-05
2.593e-05
9.153e-06
0.0001044
4.566e-11
5.493e-05
0.0002262
9.445e-06
6.114e-07
0.0001436
4.396e-05
0.0005764
8.74e-06
1.32e-05
6.628e-06
5.965e-06
2.335e-06
0.006703
2.592e-05
3.347e-06
4.133e-05
4.329e-06
2.865e-05
2.111e-05
1.998e-06
0.0001922
0.0002164
2.959e-06
0.0001264
4.777e-06
5.264e-06
2.485e-07
0.001944
6.022e-05
3.566e-06
1.374e-05
0.0001242
6.421e-06
4.455e-06
9.957e-05
3.519e-05
1.32e-05
7.322e-05
2.745e-05
0.0006401
0.0002254
5.899e-06
6.378e-06
5.277e-06
0.002109
2.392e-05
0.0008348
0.0002454
0.0002282
3.341e-06
1.619e-05
5.92e-06
7.577e-07
5.138e-06
0.0008738
6.453e-06
9.449e-06
0.0003232
1.095e-06
1.349e-11
1.233e-05
0.006724
0.006718
1.616e-09
0.001493
0.004514
0.0001287
0.0008075
0.0001256
7.195e-13
5.205e-06
0.0001392
2.988e-05
0.0002398
0.003584
8.756e-05
0.0002951
0.003512
4.456e-06
3.245e-05
1.143e-08
1.243e-05
2.95e-05
2.758e-05
0.0001467
5.282e-06
0.006697
4.328e-06
7.197e-06
4.933e-06
3.144e-05
3.49e-06
3.598e-05
7.289e-05
3.536e-05
1.362e-05
0.0008901
0.0001256
8.779e-08
1.361e-05
0.0002453
5.579e-05
5.045e-11
0.003991
6.312e-06
9.136e-06
1.188e-05
0.0002441
2.956e-06
1.688e-05
1.09e-08
4.849e-06
6.013e-06
6.362e-09
0.001349
3.682e-06
4.777e-06
2.606e-05
8.718e-06
3.663e-06
6.158e-06
0.0008136
3.832e-06
3.039e-05
8.528e-06
1.167e-05
0.0007276
4.586e-05
0.0005444
8.32e-06
1.279e-05
5.196e-05
1.949e-06
3.628e-06
1.725e-05
4.453e-06
0.0006397
0.0001512
6.316e-06
7.889e-06
6.34e-06
1.578e-05
4.943e-06
0.0004494
2.185e-05
0.002867
0.000151
8.444e-05
0.006701
0.004729
1.413e-11
4.087e-05
0.003196
4.947e-06
0.002012
3.05e-05
4.209e-05
0.0002338
6.583e-05
0.002702
6.718e-06
5.107e-06
0.0001044
0.0002436
1.727e-05
5.253e-06
2.933e-05
9.768e-06
0.000101
4.573e-06
3.423e-06
3.001e-05
0.003199
5.181e-05
1.907e-05
5.857e-06
5.859e-05
3.518e-06
0.00359
0.003711
3.887e-06
2.5e-05
5.395e-06
3.549e-05
0.0003326
8.006e-05
5.233e-06
0.0002893
2.599e-05
3.853e-06
1.636e-05
7.533e-05
3.873e-05
4.696e-06
4.028e-06
3.016e-05
0.003925
4.038e-05
0.006723
0.006718
2.119e-05
6.791e-06
7.496e-05
3.021e-05
3.969e-05
0.0001671
2.947e-05
7.498e-06
6.232e-06
1.093e-06
4.944e-06
2.513e-05
1.44e-05
5.092e-06
6.409e-06
5.197e-06
3.694e-05
0.0002112
6.328e-06
7.412e-05
2.551e-05
8.717e-06
6.756e-06
0.006174
4.7e-06
0.0001278
6.523e-06
8.832e-05
5.167e-06
5.09e-06
0.006698
0.001768
0.0002506
1.481e-05
0.0004092
1.717e-06
0.0003073
5.44e-06
5.163e-06
0.001119
4.773e-05
5.232e-06
4.603e-07
5.766e-05
0.0004917
6.211e-05
4.686e-06
5.287e-06
2.216e-05
0.0003871
4.852e-07
2.348e-05
1.804e-06
1.234e-05
4.865e-05
0.004998
9.617e-06
5.23e-05
3.719e-06
5.15e-06
5.176e-06
9.848e-06
5.037e-06
7.207e-05
0.001001
4.132e-06
0.006697
9.857e-06
0.0002525
2.479e-05
2.772e-05
0.000106
1.004e-05
0.006705
5.236e-06
8.488e-06
4.98e-06
4.234e-05
9.601e-05
1.24e-05
1.841e-05
3.496e-05
4.453e-06
2.374e-05
7.373e-06
0.0001269
6.575e-06
3.3e-05
0.001861
3.556e-05
7.744e-06
2.096e-06
3.48e-05
1.149e-05
0.0001081
0.00668
4.119e-05
0.0001964
8.819e-05
1.066e-05
0.006698
2.468e-05
2.225e-05
0.000355
0.002871
0.006695
5.079e-06
0.0001868
6.758e-06
0.0002233
5.053e-06
0.002717
3.346e-06
0.0002483
0.0003039
2.03e-05
5.227e-06
3.29e-05
1.622e-05
2.233e-05
0.000171
5.02e-06
9.549e-06
0.0001464
1.961e-05
1.099e-05
6.098e-06
3.154e-05
5.139e-07
5.881e-06
0.0008173
0.0008684
7.395e-06
2.303e-05
0.006673
3.504e-05
4.316e-05
0.0002045
2.61e-05
0.0001842
0.006651
1.684e-06
4.21e-05
6.215e-05
1.033e-05
2.196e-07
3.271e-06
1.659e-05
3.52e-06
7.005e-06
1.067e-05
1.373e-05
0.006582
4.888e-06
0.0005282
4.367e-06
5.275e-06
6.23e-06
5.96e-06
2.074e-11
6.145e-05
8.894e-07
0.0005876
9.374e-07
0.004703
2.178e-07
0.0009046
0.0002214
1.233e-05
2.583e-13
1.827e-09
1.902e-09
0.006698
2.863e-05
4.951e-06
0.003616
7.293e-05
1.548e-05
8.428e-05
7.606e-05
2.048e-05
5.23e-06
3.497e-05
7.816e-06
0.0009592
0.0003188
1.757e-08
5.613e-06
5.12e-06
4.084e-05
0.004101
4.523e-05
0.0009487
3.675e-05
0.006274
5.011e-06
3.909e-06
5.498e-05
0.00668
7.395e-06
0.0002022
2.676e-05
6.784e-06
4.384e-06
4.752e-05
0.0004887
9.706e-05
1.316e-05
0.006674
2.928e-05
2.434e-05
5.151e-06
5.164e-06
2.164e-05
3.525e-05
1.234e-05
2.165e-05
1.016e-05
9.293e-05
3.894e-05
0.002428
2.166e-06
4.045e-05
5.105e-06
8.541e-06
0.000164
0.006703
0.006701
9.73e-06
2.377e-05
1.121e-06
0.003183
0.004605
9.762e-06
2.897e-06
9.499e-05
8.436e-06
3.169e-05
7.947e-06
4.169e-05
0.0006799
0.006684
5.576e-05
3.483e-05
1.17e-05
0.004736
7.548e-06
1.107e-05
3.009e-05
0.0004914
5.256e-06
0.003095
7.274e-05
0.0002844
5.017e-05
0.005121
5.896e-05
1.167e-05
7.516e-07
0.006651
6.42e-06
1.302e-05
0.006694
2.779e-05
0.002686
5.128e-06
1.369e-05
0.0067
2.22e-05
4.924e-06
6.411e-05
1.047e-05
1.048e-05
5.188e-06
5.283e-06
1.232e-06
5.142e-06
3.875e-06
5.206e-06
0.0001919
6.725e-06
4.812e-06
0.005444
4.075e-06
0.005648
8.764e-07
0.0005472
8.945e-06
0.00668
0.002757
0.0002179
7.42e-06
1.776e-05
0.006477
0.006684
8.003e-05
6.947e-06
1.821e-05
5.046e-06
0.0001662
7.301e-06
1.979e-05
8.163e-06
6.227e-06
2.976e-05
1.012e-05
0.006476
7.745e-06
6.285e-06
9.868e-05
2.283e-05
0.002213
0.004607
1.841e-05
7.993e-07
1.373e-05
1.852e-06
0.0006109
0.003218
5.185e-05
1.083e-05
0.0001495
1.171e-05
9.526e-05
0.0009673
3.315e-05
3.463e-05
6.346e-06
1.856e-05
2.297e-12
3.574e-05
0.0001439
0.0001705
3.722e-05
1.299e-05
5.304e-06
1.795e-05
0.0003007
6.284e-06
0.0001278
9.851e-06
0.006682
4.962e-06
1.482e-05
2.787e-06
0.00668
0.006682
1.934e-06
0.0008583
4.408e-06
1.014e-05
5.031e-06
5.179e-05
1.166e-05
5.013e-06
6.46e-06
3.636e-06
0.006708
0.006674
3.809e-06
7.749e-06
1.668e-05
3.059e-06
2.313e-06
0.0001029
4.044e-06
9.807e-05
0.0001023
0.003711
4.379e-06
0.0001985
3.693e-06
4.312e-11
1.336e-05
9.156e-06
5.453e-05
0.004887
6.895e-06
5.127e-06
4.337e-06
5.392e-05
1.874e-05
6.226e-06
3.318e-06
3.509e-05
6.745e-06
1.99e-05
3.85e-06
6.091e-06
1.92e-05
1.67e-05
5.735e-05
7.596e-13
1.764e-05
0.0001137
6.237e-06
9.864e-06
5.259e-06
0.006694
0.0001941
3.944e-05
0.0001135
0.002975
1.769e-06
3.85e-05
5.251e-06
0.00313
1.816e-05
0.000189
2.169e-05
8.917e-06
0.003792
8.742e-05
5.207e-05
2.553e-05
8.515e-06
0.001319
7.5e-06
1.021e-06
0.002337
2.96e-05
4.625e-05
1.224e-05
6.176e-05
2.909e-05
1.333e-05
3.459e-06
5.407e-05
0.00664
8.804e-05
2.597e-05
3.993e-06
4.967e-06
1.892e-05
7.145e-05
3.689e-05
0.006658
6.578e-05
3.336e-05
1.046e-05
1.981e-07
1.064e-05
5.835e-05
1.036e-05
0.0002596
4.52e-05
0.006697
4.404e-13
4.017e-05
9.979e-06
3.284e-05
0.0001095
9.351e-05
7.579e-05
5.113e-06
0.006683
4.007e-05
8.357e-05
0.003511
5.08e-05
4.37e-06
6.104e-06
1.82e-05
0.006666
1.923e-05
0.0002124
0.006678
0.006662
2.314e-05
1.714e-05
0.000165
9.943e-05
0.0001052
1.065e-07
5.725e-05
6.134e-06
0.006683
6.433e-05
0.0001355
5.167e-06
4.846e-06
5.556e-06
0.002769
0.004333
0.0002188
7.272e-06
0.006683
9.757e-05
3.653e-06
7.425e-06
3.827e-06
0.006195
0.0002925
6.886e-06
0.006698
5.097e-06
0.006683
6.279e-06
3.553e-07
1.413e-05
1.477e-05
1.178e-06
0.002075
2.207e-05
1.595e-05
5.005e-06
9.599e-05
5.177e-06
3.016e-06
1.951e-05
5.99e-05
9.827e-06
1.115e-06
0.0067
3.14e-05
3.223e-06
3.965e-06
0.0001243
2.714e-06
0.002869
0.000215
5.461e-05
2.198e-06
4.44e-06
4.624e-06
2.732e-08
4.039e-06
1.886e-06
2.934e-05
3.874e-05
4.831e-05
1.912e-06
0.0004128
5.529e-06
0.004716
0.005195
7.446e-06
0.0003024
7.989e-06
7.753e-05
5.818e-07
0.0001621
0.0004956
3.648e-06
6.035e-06
0.004166
9.839e-05
0.0001169
0.000583
2.004e-05
4.932e-07
0.000277
3.73e-05
1.271e-06
2.058e-05
8.203e-05
0.006702
6.231e-06
3.695e-06
0.006222
2.202e-05
4.787e-05
1.647e-05
0.00667
0.0002221
7.821e-05
4.125e-08
1.591e-05
4.759e-07
2.551e-05
9.227e-06
7.297e-06
9.564e-06
1.023e-05
0.005725
7.568e-07
4.027e-06
0.005307
7.9e-06
1.134e-07
5.186e-05
6.026e-06
2.976e-05
9.588e-05
4.87e-06
1.093e-06
5.283e-06
0.0005497
0.006697
3.426e-05
6.451e-06
9.533e-05
2.277e-05
8.651e-07
2.387e-06
3.489e-05
2.976e-05
2.384e-06
0.0001342
9.096e-06
0.006694
0.0001308
4.786e-05
8.984e-06
4.026e-05
3.755e-05
0.006698
0.001248
4.271e-05
3.695e-05
0.0001256
4.962e-06
7.629e-05
0.0001836
1.716e-05
4.731e-06
9.099e-06
1.045e-06
6.901e-06
4.964e-06
2.837e-05
3.077e-05
0.0001032
1.241e-06
9.447e-05
3.619e-05
3.659e-07
3.992e-05
0.006693
0.006695
7.083e-05
0.0001794
8.728e-05
0.006755
6.607e-06
1.977e-05
0.0002178
7.88e-05
2.048e-05
3.944e-05
1.198e-06
0.006705
7.116e-05
0.0002204
2.768e-06
4.509e-06
0.0001876
7.802e-06
3.548e-05
1.478e-05
5.158e-06
1.118e-05
4.962e-05
6.655e-06
5.217e-06
0.0001268
1.781e-06
0.00624
4.747e-06
8.788e-06
2.505e-05
9.295e-06
1.554e-06
0.002359
2.681e-06
1.036e-06
0.006419
0.006694
6.085e-06
1.64e-05
4.267e-08
0.0001202
5.596e-06
3.526e-06
5.288e-05
7.585e-05
0.0001306
0.001499
4.314e-05
0.0002894
6.706e-05
5.544e-05
2.067e-05
0.0001083
0.00587
1.278e-06
0.0001559
0.006693
1.648e-05
0.00593
0.006702
1.882e-05
7.409e-05
4.742e-06
0.006691
5.091e-06
0.006697
4.162e-06
9.541e-05
0.0001041
5.664e-05
4.368e-06
4.942e-06
3.214e-05
9.261e-06
0.002959
0.0008749
9.206e-06
4.507e-06
9.373e-05
5.43e-05
1.533e-06
4.444e-05
2.52e-06
1.103e-05
3.545e-06
7.45e-06
5.332e-06
4.013e-06
3.105e-06
5.822e-05
0.004959
1.808e-05
0.0001519
4.945e-06
0.001907
4.135e-06
1.365e-05
5.682e-06
7.784e-06
6.549e-06
0.0001496
1.747e-05
1.785e-05
5.684e-06
0.0001186
3.442e-06
9.432e-05
0.006603
1.317e-05
1.856e-05
0.00203
2.279e-05
1.475e-05
0.006748
4.397e-05
0.000104
0.0006212
2.782e-06
2.574e-05
5.482e-05
0.0001027
0.006736
2.742e-05
3.36e-05
0.005434
3.961e-06
9.377e-05
2.106e-05
2.919e-05
5.063e-05
0.00046
4.184e-05
5.743e-07
4.07e-06
4.9e-06
2.848e-05
1.937e-06
0.001611
5.208e-06
0.006698
5.862e-05
4.946e-06
1.81e-05
7.77e-06
5.158e-05
8.223e-06
0.006699
9.39e-09
2.085e-05
2.131e-05
6.882e-06
3.695e-06
1.461e-05
6.687e-05
4.598e-06
6.664e-06
4.312e-05
2.905e-08
0.0001744
5.241e-06
4.219e-06
5.009e-06
4.206e-06
7.971e-05
1.971e-05
5.901e-06
8.398e-05
1.377e-05
5.237e-06
5.357e-06
5.427e-05
8.255e-07
0.0003453
5.319e-06
0.000181
5.015e-06
0.006723
0.006692
2.072e-05
6.096e-07
0.0001228
0.0008624
2.706e-06
5.405e-05
0.006698
6.534e-06
5.553e-06
1.716e-05
6.94e-07
2.472e-05
0.0001502
1.812e-11
9.241e-05
9.194e-06
3.136e-05
6.204e-06
1.086e-05
4.916e-06
4.867e-06
7.877e-06
1.871e-05
0.0006741
0.000128
1.329e-05
4.056e-05
3.794e-05
5.306e-06
0.0001313
7.454e-06
0.0001385
9.753e-05
0.0002338
1.917e-06
1.144e-05
3.881e-05
8.966e-07
3.124e-05
7.587e-06
1.438e-05
0.0001237
8.279e-05
0.006697
2.64e-05
6.858e-06
1.307e-05
2.085e-05
3.742e-06
4.613e-06
0.006684
4.392e-06
3.722e-05
1.512e-05
1.17e-06
6.247e-06
4.235e-05
6.741e-05
0.001816
6.03e-05
0.0001038
6.458e-06
1.995e-05
0.001306
1.095e-05
0.003554
2.138e-06
1.025e-06
0.0001267
7.001e-05
3.476e-05
0.006492
0.006679
8.182e-05
0.000305
1.911e-05
5.376e-05
0.002396
0.002136
1.057e-06
3.81e-05
3.805e-05
6.53e-06
5.111e-06
1.2e-06
2.793e-05
5.273e-06
0.0001532
6.333e-05
0.006682
4.819e-06
2.131e-05
1.047e-05
1.096e-06
2.305e-05
1.823e-05
7.395e-05
6.572e-06
9.331e-06
3.316e-08
6.985e-05
2.713e-05
0.0001301
1.777e-05
7.475e-05
4.883e-06
9.298e-07
3.896e-05
5.431e-05
0.006684
5.133e-06
3.238e-06
0.006693
2.163e-06
1.352e-05
0.0001172
4.978e-06
0.006688
2.019e-05
5.652e-08
0.002296
5.166e-06
3.392e-05
5.64e-06
4.057e-07
5.099e-05
8.26e-05
5.947e-05
3.561e-06
7.943e-05
1.674e-05
9.433e-06
7.528e-06
7.996e-06
2.97e-06
4.38e-06
4.654e-05
0.006694
4.677e-06
4.23e-05
4.966e-06
3.454e-06
2.596e-05
5.946e-05
0.006661
0.0001207
7.35e-05
0.006248
0.0001019
0.006345
3.46e-06
0.0001415
5.443e-07
9.945e-05
7.94e-06
4.507e-06
1.502e-05
5.089e-06
3.417e-06
1.787e-06
3.763e-05
5.921e-05
1.004e-05
1.098e-05
0.0001242
0.006702
0.0001888
0.0007464
2.078e-05
0.0067
0.0002028
0.006688
4.523e-06
0.000126
0.006743
0.006226
0.000106
5.348e-05
2.227e-05
7.625e-05
0.006775
8.65e-06
2.616e-05
4.488e-05
8.423e-10
1.313e-05
1.638e-07
4.998e-06
9.723e-06
5.119e-06
4.585e-06
0.0002367
7.346e-05
2.172e-06
0.0002932
3.347e-05
1.525e-05
7.335e-06
6.91e-06
2.134e-05
0.00669
1.788e-06
3.233e-05
2.69e-06
0.0067
1.086e-06
7.797e-06
4.96e-06
0.0001488
0.006652
0.006651
0.000139
6.299e-05
0.0002151
1.773e-05
6.938e-06
5.337e-05
3.154e-06
0.0003528
9.731e-05
3.07e-06
1.048e-05
0.0001494
2.374e-05
7.241e-05
1.264e-05
2.088e-05
6.891e-06
5.067e-06
5.59e-05
0.001767
0.000159
0.0001307
3.277e-06
7.354e-06
0.0005472
9.913e-06
0.000259
5.174e-06
0.0002032
1.076e-05
0.000183
0.006693
0.000189
1.83e-05
1.15e-06
1.302e-06
9.115e-05
5.001e-05
2.11e-05
8.652e-05
0.006626
2.902e-06
2.434e-05
5.227e-08
2.546e-05
8.797e-07
0.0001625
0.006695
7.637e-06
2.921e-05
1.332e-05
6.659e-06
9.51e-06
6.286e-05
8.075e-06
5.491e-06
0.0003757
3.61e-06
0.0001605
5.204e-06
1.825e-05
5.043e-06
0.002745
0.002743
5.369e-06
7.407e-06
2.698e-06
5.129e-06
5.087e-06
4.691e-06
1.726e-06
0.0002986
8.87e-05
0.0002478
0.002186
0.006691
0.000164
0.00649
8.531e-07
0.006695
4.523e-06
3.619e-05
6.071e-06
7.154e-06
5.106e-06
0.001411
2.649e-07
3.891e-05
8.96e-07
2.914e-05
6.201e-06
0.005417
1.99e-05
4.185e-05
2.549e-05
2.563e-05
4.138e-05
7.241e-05
3.016e-06
1.418e-06
0.0002778
0.006665
1.043e-05
0.001463
0.006763
4.922e-05
1.136e-05
0.006667
2.955e-06
0.006698
6.542e-06
1.077e-05
1.133e-05
1.014e-06
0.006677
0.0001126
1.98e-05
6.36e-05
1.698e-05
3.468e-05
2.946e-05
0.004767
0.006687
6.139e-06
3.465e-08
2.527e-05
5.917e-06
0.0005876
2.161e-06
8.347e-05
4.368e-05
0.002128
1.662e-05
6.508e-05
5.062e-06
0.0004406
8.631e-06
0.0006127
6.402e-06
0.006704
2.215e-06
1.077e-05
0.0002738
4.767e-07
3.739e-06
3.276e-05
0.006689
1.033e-05
4.722e-06
6.312e-05
1.109e-06
4.857e-06
2.769e-05
0.0004871
1.159e-05
2.904e-06
7.938e-06
3.614e-06
7.178e-06
0.001958
3.005e-05
0.006702
5.633e-06
4.383e-06
5.778e-06
0.006696
3.223e-05
0.006694
0.0001831
7.548e-05
0.006715
3.201e-05
0.000298
8.005e-06
1.03e-05
0.0005918
5.358e-06
0.006697
3.544e-06
5.411e-07
7.338e-05
2.022e-05
5.017e-06
0.001148
1.768e-05
0.0002161
4.777e-06
8.936e-06
0.0002045
5.1e-06
1.195e-05
8.556e-06
9.713e-07
0.0002107
1.957e-05
1.191e-05
0.0002207
4.93e-06
2.642e-05
6.424e-06
6.075e-06
0.0001997
0.001119
2.192e-05
8.249e-05
1.836e-05
0.000103
1.106e-06
0.0001115
2.836e-06
0.0001153
0.006667
2.582e-06
5.021e-06
0.000201
5.152e-06
0.0004261
1.08e-05
0.006705
1.361e-05
3.012e-06
1.343e-05
5.984e-06
8.036e-06
4.899e-06
0.006696
7.148e-06
5.13e-06
8.004e-06
7.124e-06
0.0003969
5.551e-06
5.186e-06
0.006695
0.0001447
0.0001923
0.001779
6.881e-06
3.263e-05
3.515e-05
4.852e-06
0.0001099
0.0002741
0.002264
2.827e-05
8.735e-06
0.006605
2.065e-05
4.675e-06
2.66e-06
0.006746
7.826e-05
2.749e-06
4.559e-05
5.894e-06
3.32e-05
5.235e-06
2.712e-06
0.002067
0.001182
0.0001637
0.0008762
1.565e-05
4.613e-06
0.0001766
3.698e-06
1.93e-05
0.0003756
8.373e-06
5.947e-09
7.23e-07
0.0001717
0.0001538
2.373e-05
0.0002101
0.0001453
3.147e-05
0.0002588
1.988e-05
9.307e-05
0.0001057
8.875e-06
3.211e-06
4.565e-05
0.0001483
0.003059
3.026e-06
0.0001607
5.183e-05
5.678e-06
4.565e-05
4.917e-06
0.0001733
4.453e-05
0.006756
3.367e-06
4.838e-06
2.711e-05
1.473e-05
2.307e-05
1.105e-06
3.964e-06
0.0001027
2.38e-05
5.814e-06
1.097e-05
5.598e-06
1.04e-06
0.006639
6.103e-06
1.451e-06
5.166e-06
0.004711
0.0001523
8.226e-05
5.207e-06
1.89e-05
0.0003002
5.011e-06
0.005446
4.397e-06
4.867e-06
0.0001694
0.0002192
0.003867
5.406e-06
3.862e-06
5.174e-06
3.376e-06
3.364e-06
0.0001942
2.445e-06
0.001411
1.327e-06
1.622e-05
9.027e-05
7.47e-05
2.59e-05
1.117e-05
0.0001446
5.375e-06
0.002563
6.275e-06
1.162e-06
4.069e-06
0.0001421
2.502e-05
2.971e-05
1.027e-05
0.001065
0.0001116
5.635e-06
8.455e-05
0.003695
6.159e-06
5.322e-06
5.085e-06
0.0001246
4.29e-05
4.67e-06
1.909e-05
1.38e-06
2.098e-06
1.285e-06
0.0001661
5.897e-06
1.13e-06
1.774e-05
1.79e-05
7.782e-05
2.935e-05
1.35e-05
1.416e-09
1.941e-05
2.593e-05
0.003139
0.0002819
1.464e-06
0.0001346
0.003649
0.006698
2.04e-05
5.044e-06
0.0002817
5.554e-06
3.105e-06
1.269e-06
0.0009657
5.091e-06
0.0001054
0.0001475
4.914e-06
3.449e-05
0.0002004
6.628e-06
3.831e-05
0.0001097
1.035e-05
0.006698
3.347e-05
3.685e-05
5.157e-06
0.0001138
4.957e-06
1.005e-05
4.325e-05
5.067e-06
2.133e-05
1.986e-05
5.239e-06
2.11e-05
8.351e-06
3.843e-05
7.408e-05
7.164e-05
1.533e-05
0.0001446
1.495e-06
4.946e-05
0.004734
0.0001343
7.794e-05
5.096e-06
8.067e-06
0.0007095
2.045e-05
4.273e-05
1.031e-05
0.00302
0.0001377
0.0003005
0.0001899
0.0001693
9.187e-06
8.552e-05
2.457e-06
0.0001748
0.0001868
3.641e-05
0.006676
0.0002083
3.929e-05
0.0001322
1.366e-05
0.006689
0.0001374
5.139e-06
2.6e-05
0.006697
0.0007084
0.0001832
1.887e-05
5.021e-06
0.0007881
1.137e-05
0.0002058
3.691e-06
5.115e-06
6.327e-05
8.663e-06
2.707e-05
0.0007582
5.453e-06
3.852e-07
1.584e-05
3.652e-06
5.153e-06
1.445e-05
1.111e-06
0.003179
0.006666
1.067e-05
7.953e-05
1.633e-06
0.006698
2.033e-05
3.582e-05
2.593e-06
3.171e-05
4.391e-06
0.006298
0.006452
5.333e-06
1.608e-05
0.0002119
2.205e-06
3.79e-05
4.431e-05
0.0001621
0.006705
5.062e-06
4.693e-06
6.475e-06
0.0002256
4.161e-06
0.0001768
2.055e-05
0.006736
3.578e-05
4.96e-06
4.525e-06
3.36e-06
2.995e-05
3.252e-06
5.974e-05
6.708e-06
5.278e-06
2.129e-05
2.933e-05
0.0001294
6.623e-06
1.096e-05
0.004594
0.005186
5.265e-05
0.0001283
3.5e-06
8.138e-06
3.95e-06
1.199e-05
0.001191
0.005238
6.539e-06
0.006702
2.333e-05
2.171e-06
4.14e-06
0.0001104
1.046e-05
0.0001369
1.58e-06
3.817e-06
0.002044
2.902e-05
3.986e-05
5.943e-06
0.000234
1.34e-05
3.505e-05
9.329e-06
1.032e-05
0.000105
2.232e-05
2.97e-05
2.41e-06
5.481e-06
2.86e-05
0.000131
3.265e-06
0.000155
6.572e-05
4.794e-05
6.135e-07
6.855e-06
2.674e-05
2.502e-06
0.0001414
1.029e-05
0.001037
0.000182
0.006703
5.167e-06
1.765e-05
2.472e-06
3.518e-05
4.304e-05
1.532e-05
8.022e-07
4.649e-06
1.006e-05
7.243e-06
5.008e-06
7.978e-06
0.0006394
0.0002063
9.658e-06
2.18e-06
4.306e-05
7.98e-05
0.0005667
7.479e-05
0.003906
9.881e-06
2.636e-06
7.547e-05
4.923e-05
0.0002042
6.154e-05
1.071e-05
0.006724
1.446e-05
0.0001227
0.0003131
2.039e-06
0.0001895
3.584e-05
2.986e-05
2.969e-05
8.661e-06
1.516e-05
2.553e-06
4.155e-05
6.152e-06
0.006714
0.0001517
1.571e-05
1.389e-05
3.655e-06
1.006e-05
2.306e-05
7.982e-06
0.003113
4.214e-06
4.444e-06
6.955e-06
5.757e-06
8.105e-06
1.103e-05
5.129e-06
4.038e-06
5.602e-06
2.226e-05
1.002e-06
5.512e-06
5.831e-05
5.359e-05
2.262e-06
0.001689
4.624e-05
0.002453
0.006699
5.979e-06
0.001958
4.851e-05
1.291e-05
3.325e-05
9.208e-06
5.172e-06
1.101e-05
5.338e-05
2.794e-06
3.518e-05
0.0002143
7.518e-09
2.302e-05
6.073e-05
0.0003325
1.233e-07
1.232e-05
7.421e-06
8.046e-07
0.003141
2.009e-05
5.14e-06
8.858e-05
1.327e-05
1.106e-05
3.655e-06
2.222e-05
3.243e-05
2.331e-05
0.0001158
2.802e-05
0.006701
4.667e-05
1.364e-05
7.016e-05
1.512e-05
7.152e-06
1.698e-06
2.596e-05
0.003511
1.924e-05
4.726e-05
5.775e-05
8.483e-06
2.055e-05
9.554e-07
5.068e-06
2.307e-06
2.754e-06
7.523e-05
5.106e-06
5.03e-05
5.657e-05
8.746e-05
1.786e-05
7.697e-08
1.561e-05
6.203e-06
8.198e-06
0.006574
4.739e-06
2.108e-05
0.0001508
9.145e-05
2.816e-06
1.68e-05
4.89e-06
3.478e-05
1.012e-05
3.652e-06
0.006591
2.187e-05
1.504e-05
7.216e-05
2.435e-05
3.303e-06
0.004982
2.499e-05
1.627e-05
3.17e-05
4.338e-06
2.051e-05
9.48e-06
1.794e-06
7.202e-05
5.088e-06
0.006754
0.006746
5.119e-06
1.912e-05
2.077e-05
6.687e-06
5.328e-06
0.006688
1.117e-05
4.22e-06
6.467e-06
0.00236
0.002965
6.248e-06
2.373e-05
5.089e-06
1.19e-06
3.49e-06
0.006127
5.108e-06
1.475e-06
9.07e-05
4.428e-06
5.217e-06
0.001879
0.0001042
2.036e-05
6.081e-05
0.0002297
0.006655
0.006616
0.006638
0.006372
0.0006568
0.0002915
2.67e-05
3.354e-06
5.753e-05
0.0001089
1.521e-05
1.089e-05
0.006104
2.791e-05
0.0001487
2.483e-05
1.239e-05
1.657e-05
0.0001387
7.08e-06
5.019e-06
6.84e-06
5.17e-06
0.0003561
5.902e-06
8.615e-09
4.655e-06
4.577e-06
2.773e-06
6.809e-06
0.005468
1.135e-07
4.428e-05
3.954e-06
5.221e-05
0.0001109
2.378e-06
0.006696
0.0001532
1.513e-05
0.00508
1.124e-05
0.000104
1.03e-05
0.0001593
7.401e-06
4.653e-05
3.31e-05
0.006634
5.795e-06
1.264e-05
7.705e-05
0.000113
1.036e-05
0.006716
0.003084
2.357e-05
6.941e-05
2.015e-05
0.0004281
1.284e-05
9.17e-06
0.0001071
2.802e-06
5.026e-06
3.778e-05
6.954e-05
0.0003105
7.719e-05
0.0001906
2.58e-06
1.907e-06
0.004796
2.488e-06
0.004522
0.006555
3.926e-05
0.00141
2.355e-06
4.006e-05
4.893e-06
9.462e-05
4.38e-06
0.006697
0.0003833
9.109e-05
5.018e-06
0.0001614
0.003487
5.648e-05
3.467e-06
8.064e-06
0.006702
7.417e-06
9.273e-06
3.461e-08
0.00195
3.806e-05
1.655e-05
0.0001034
0.0004283
4.742e-05
5.154e-06
3.992e-06
4.994e-06
5.161e-06
1.348e-09
0.005011
4.417e-06
1.215e-05
5.32e-06
0.006696
5.042e-06
3.951e-06
2.593e-06
8.783e-07
0.0001952
1.65e-05
1.376e-06
0.0004253
7.262e-05
0.00669
1.339e-05
8.85e-06
3.014e-05
1.878e-05
8.84e-07
5.186e-05
0.0001741
1.093e-05
0.006706
0.001973
5.233e-06
1.503e-05
6.5e-05
9.417e-06
1.001e-05
0.0001577
3.447e-05
6.841e-06
9.824e-05
8.106e-05
0.005163
6.712e-06
6.158e-06
4.896e-06
4.852e-05
7.568e-06
5.093e-06
1.135e-06
1.799e-06
2.238e-06
2.307e-08
5.102e-06
0.0002885
2.297e-06
0.0002815
5.194e-06
1.194e-06
0.004591
2.268e-06
0.006705
7.179e-05
5.325e-06
2.444e-06
5.093e-05
4.167e-06
7.375e-05
5.043e-06
0.006649
1.801e-08
8.872e-06
0.002107
2.64e-05
0.0001583
1.335e-07
2.997e-06
1.571e-07
1.239e-05
3.792e-06
1.907e-06
9.475e-06
1.794e-05
6.34e-06
6.194e-06
0.006673
7.601e-05
7.411e-06
0.0001242
7.31e-06
0.0002296
5.698e-05
4.748e-06
5.593e-06
5.621e-06
2.501e-06
0.003799
4.719e-06
2.749e-05
9.945e-06
8.736e-05
0.002367
6.441e-05
1.113e-05
1.568e-05
1.618e-05
1.815e-06
0.002137
0.002069
7.467e-05
4.869e-06
7.631e-06
0.0001564
2.305e-05
0.006499
0.0002153
5.044e-06
0.006341
4.052e-05
3.807e-06
0.0001183
2.851e-05
0.0002181
2.779e-07
2.331e-06
1.217e-06
6.083e-05
5.188e-06
0.0001279
1.234e-05
5.449e-05
1.822e-05
4.96e-06
0.0001097
3.292e-06
4.921e-06
1.382e-05
5.155e-06
4.291e-05
2.418e-06
0.0003008
5.89e-06
7.001e-06
0.002632
8.926e-06
0.0001085
0.001256
1.872e-05
8.299e-07
4.244e-05
5.937e-06
8.842e-06
2.552e-07
9.273e-07
0.0001372
7.684e-09
0.0007185
3.909e-05
9.064e-05
0.000139
2.196e-05
0.006705
5.86e-06
1.848e-06
5.877e-05
8.772e-06
4.176e-05
1.409e-05
8.147e-06
3.488e-05
3.722e-05
1.361e-05
0.0002465
7.055e-06
1.823e-05
0.005153
0.0001443
5.677e-06
0.006701
0.0004991
4.676e-06
0.006697
8.381e-06
2.621e-05
4.847e-06
5.322e-05
4.862e-06
0.001383
5.674e-05
2.937e-05
3.966e-06
1.827e-05
2.539e-06
8.356e-06
0.006687
4.147e-06
0.006715
0.0003024
4.548e-05
4.772e-05
1.162e-06
3.068e-05
5.165e-06
2.994e-05
4.375e-06
2.027e-05
0.0008177
4.198e-05
5.35e-05
0.006674
7.805e-05
0.006697
4.294e-06
1.309e-05
4.827e-06
9.067e-05
0.006656
2.482e-05
5.172e-06
5.955e-06
9.678e-06
1.08e-05
3.147e-05
0.0003758
3.879e-05
9.809e-05
4.685e-05
1.758e-05
1.066e-05
0.000205
6.395e-06
0.000128
3.588e-06
5.188e-06
0.006632
0.006754
0.0014
0.0003143
3.818e-06
2.949e-05
2.868e-05
0.00145
5.115e-06
6.53e-06
5.337e-06
0.006698
4.973e-06
2.52e-05
5.224e-06
0.002324
3.112e-08
1.773e-05
5.062e-06
0.003223
0.0007525
2.871e-06
0.0002478
5.325e-06
4.923e-06
4.499e-06
4.429e-05
1.54e-05
0.006698
5.03e-06
7.929e-05
6.912e-06
0.0001355
6.188e-06
4.648e-05
8.78e-05
8.748e-06
3.632e-06
0.006699
1.34e-05
1.121e-05
7.155e-06
4.659e-06
0.006702
7.702e-06
1.051e-05
3.039e-05
1.241e-05
2.94e-05
4.229e-06
0.0001621
1.062e-05
7.303e-05
0.0001496
0.0001295
2.236e-05
0.00518
4.47e-06
1.092e-06
0.0001859
0.0001361
9.393e-06
1.155e-05
5.076e-05
0.006696
0.0002226
0.0003726
0.003239
4.156e-06
3.784e-05
0.006698
0.0006929
5.815e-06
1.218e-06
0.006698
0.0001281
6.462e-06
5.349e-06
4.095e-05
1.286e-05
3.279e-06
1.072e-05
5.05e-06
5.214e-06
2.195e-07
1.045e-05
0.001222
4.809e-05
1.446e-05
4.389e-05
0.006685
0.0003702
7.01e-05
0.0001883
7.335e-05
4.082e-06
2.691e-06
9.955e-05
2.348e-05
2.183e-07
2.496e-05
5.052e-06
9.751e-05
3.674e-05
9.769e-05
3.865e-06
4.562e-07
0.00669
9.644e-06
5.34e-06
0.006698
9.248e-06
3.036e-05
8.219e-06
0.0002728
8.417e-06
5.143e-06
5.052e-05
1.743e-05
0.004695
0.001624
0.0001083
0.0001343
0.006775
2.037e-05
0.0002044
1.193e-06
0.0001276
2.224e-05
5.158e-06
5.284e-06
7.329e-05
6.881e-06
0.006714
2.566e-06
7.794e-06
3.08e-06
5.387e-06
6.113e-05
3.864e-06
1.754e-05
2.024e-05
9.719e-07
2.108e-05
2.73e-06
0.006702
0.006691
6.878e-05
3.013e-05
0.006685
9.2e-07
5.135e-06
4.135e-06
1.938e-05
1.87e-05
2.987e-05
0.005075
8.875e-07
0.000766
8.39e-06
0.006758
1.12e-05
4.637e-05
0.0001294
3.536e-05
8.375e-06
4.024e-05
5.731e-05
0.006662
2.553e-05
2.06e-05
1.062e-06
9.415e-06
0.0004403
0.0002458
2.403e-05
0.006699
5.855e-05
2.202e-05
0.0001696
0.0001927
0.0001845
2.251e-06
0.00593
0.006716
1.651e-05
2.917e-05
0.0001487
3.801e-06
0.006701
1.432e-05
4.05e-05
5.325e-06
0.006701
7.055e-05
5.247e-06
4.818e-06
2.213e-05
2.545e-05
2.281e-06
0.006719
3.406e-06
0.004792
1.498e-05
7.958e-07
0.001012
0.0001493
1.483e-05
2.083e-05
3.885e-06
5.046e-05
7.857e-05
0.006662
7.603e-06
9.931e-05
0.006701
1.639e-05
5.496e-06
2.249e-05
0.006774
0.0002029
6.794e-05
9.991e-05
6.757e-06
5.869e-05
0.004049
3.705e-06
8.484e-06
4.546e-05
0.0004375
0.006698
0.006621
0.0007431
2.248e-05
7.042e-05
5.177e-06
1.115e-06
6.005e-07
8.736e-06
2.965e-07
3.706e-06
0.001319
1.088e-06
8.821e-06
2.263e-05
4.043e-05
6.963e-05
1.426e-05
1.092e-05
1.35e-05
3.071e-06
6.051e-05
0.0003427
3.331e-05
4.864e-06
5.56e-06
1.103e-05
0.000241
0.000123
2.924e-05
4.032e-06
0.004151
2.028e-05
3.768e-05
1.629e-05
4.888e-06
1.518e-05
1.908e-06
9.366e-06
0.006666
2.58e-06
1.955e-05
0.006763
4.935e-06
0.006696
2.905e-05
1.897e-05
0.00148
1.276e-05
7.187e-06
0.006707
2.932e-05
3.014e-05
1.512e-06
0.0006391
1.08e-05
2.945e-06
7.282e-05
0.006692
4.241e-06
0.000144
0.0005425
1.27e-05
6.295e-05
5.229e-06
2.78e-06
5.268e-06
1.078e-05
1.589e-05
7.208e-05
3.466e-06
0.006702
0.0002697
5.636e-06
5.786e-06
3.06e-05
0.006701
3.179e-07
5.154e-06
9.861e-06
0.0001359
5.794e-05
8.104e-06
0.00667
0.0004779
4.375e-05
3.494e-05
2.576e-05
5.657e-06
4.432e-06
3.092e-05
6.522e-06
6.583e-06
1.894e-05
4.46e-05
1.929e-05
1.143e-05
2.064e-05
3.429e-05
0.006701
2.434e-05
0.0009894
0.0001551
6.45e-05
8.646e-05
2.036e-05
4.374e-05
1.062e-06
2.006e-05
1.342e-05
0.0023
0.006693
6.393e-05
1.417e-05
4.088e-06
9.894e-06
9.19e-05
4.654e-06
1.323e-06
7.484e-06
2.175e-05
9.561e-06
5.19e-06
3.252e-06
6.224e-06
7.694e-05
4.805e-06
5.057e-05
4.825e-06
2.595e-05
1.345e-05
0.0002816
5.228e-06
0.006694
0.0001293
0.0007097
0.006691
7.844e-05
4.819e-06
0.0002592
6.888e-10
4.434e-06
6.376e-05
0.006699
8.883e-06
2.615e-05
0.003018
6.999e-06
6.085e-06
2.685e-05
8.725e-05
2.235e-05
0.006698
8.494e-06
0.006719
8.665e-05
2.119e-05
2.464e-06
5.909e-05
4.903e-06
6.438e-10
0.006605
0.006694
1.356e-05
8.344e-06
5.233e-06
0.0001709
5.19e-06
5.099e-06
3.756e-05
0.0001518
0.001281
4.247e-06
4.586e-06
1.429e-05
9.406e-05
0.00669
1.058e-05
4.908e-05
6.911e-06
4.924e-06
3.786e-05
0.0006448
2.751e-06
1.629e-05
0.0002797
4.279e-05
1.166e-05
8.286e-05
0.006708
0.006342
4.656e-06
2.878e-06
1.9e-05
3.057e-05
8.704e-05
0.0002087
5.215e-06
2.504e-05
0.006632
4.941e-06
1.289e-05
9.751e-07
8.642e-06
1.469e-05
0.006685
5.291e-06
5.277e-06
3.46e-05
4.519e-05
2.512e-06
2.262e-05
6.999e-06
6.022e-06
7.752e-06
5.155e-06
3.938e-06
7.08e-05
0.002035
2.495e-05
5.739e-05
1.213e-06
0.0004881
0.0002077
5.178e-06
1.298e-05
0.0001763
3.89e-06
1.389e-05
1.258e-06
2.342e-05
9.158e-07
1.821e-05
7.267e-05
1.406e-05
1.018e-06
0.0001216
2.335e-06
2.039e-06
0.004881
2.113e-06
4.345e-06
3.794e-06
1.219e-05
7.332e-06
5.463e-05
0.0001172
6.224e-06
3.556e-05
2.93e-05
9.757e-06
6.629e-05
0.0001975
0.0002493
7.826e-05
1.252e-05
0.000155
6.788e-05
2.691e-06
1.121e-05
2.076e-06
5.783e-06
5.199e-06
0.006657
1.726e-05
2.938e-05
1.023e-05
1.302e-05
2.53e-06
2.177e-05
5.197e-06
0.000103
1.089e-05
7.487e-05
1.115e-05
2.321e-05
0.0005391
0.0001196
3.98e-05
1.92e-05
0.0001631
9.38e-05
1.864e-05
5.106e-06
0.0001209
2.382e-06
2.26e-05
5.344e-08
2.621e-05
4.119e-05
0.0001266
1.86e-05
9.354e-05
3.858e-06
0.004003
0.002184
0.005385
0.000125
5.3e-06
6.697e-05
0.0002206
4.772e-06
0.0001785
4.772e-05
3.721e-08
4.499e-06
2.566e-06
5.092e-06
6.993e-05
5.401e-06
1.214e-06
0.0006778
2.933e-05
0.006698
1.032e-05
2.755e-05
7.338e-05
4.933e-05
0.006685
0.006679
2.359e-05
2.158e-05
0.0001093
1.008e-06
5.277e-06
0.006678
0.006698
7.079e-06
0.0002126
3.526e-06
3.668e-06
0.005838
4.074e-05
7.191e-05
3.936e-06
1.187e-05
9.44e-07
8.119e-06