/*--------------------------------*- C++ -*----------------------------------*\
  =========                 |
  \\      /  F ield         | OpenFOAM: The Open Source CFD Toolbox
   \\    /   O peration     | Website:  https://openfoam.org
    \\  /    A nd           | Version:  8
     \\/     M anipulation  |
\*---------------------------------------------------------------------------*/
FoamFile
{
    version     2.0;
    format      ascii;
    class       volScalarField;
    location    "5";
    object      omega;
}
// * * * * * * * * * * * * * * * * * * * * * * * * * * * * * * * * * * * * * //

dimensions      [0 0 -1 0 0 0 0];

internalField   nonuniform List<scalar> 
127143
(
7.642e+05
1.437e+06
1.639e+06
6.988e+05
5.866e+04
7.075e+05
2.318e+04
4.049e+04
6.469e+04
9438
3.409e+04
5.324e+04
1.928e+06
5.916e+05
113.1
4501
1.979e+05
1.905
9.414
4079
44.77
1739
0.1311
133.2
1695
515.2
1950
2098
727.4
0.945
227.4
521.2
4447
535.1
0.05911
4434
74.66
5.398
90.49
667.3
9.397
2.298
1.435
2.745e+05
1.906
528.6
707.1
88.31
113.5
105.5
4298
0.02885
48.32
0.4141
0.02097
213.8
0.02096
0.4074
0.02297
0.4097
0.9494
13.49
31.73
0.02211
602.3
1.009
0.07299
37.76
37.64
0.06809
161.7
1914
37.2
0.02296
0.0218
2070
0.02458
112
211.5
0.02222
624
3652
381.4
540.9
65.43
106.2
68.9
2604
0.8322
394.9
0.02394
0.6097
228.6
44.85
137.8
0.7235
2.026
290.2
63.82
0.07166
0.02221
106.3
1699
2.198
104.7
67.26
36.67
0.06831
4.122
0.02133
111.1
2596
75.42
33.88
0.02183
1.349
0.02491
0.0218
0.02438
6160
0.02134
342.2
12.8
0.2253
626.8
599.3
20.68
0.02556
117.3
202.7
131.2
162
17.3
111.4
2.267e+04
130.6
0.06741
29.17
292.8
0.06045
0.2156
0.02361
28.84
16.31
46.73
62.82
3944
0.02213
162.9
2397
4.217
96.15
4.378
0.1167
42.24
66.64
0.407
220
87.8
387.5
142
1868
0.02401
133.3
435.8
545.3
81.3
1.563
1136
0.03025
82.25
16.3
1.756
7.295
0.2031
34.7
56.15
117
112.5
0.03656
7.283
0.03819
32.54
34.6
203.3
12.97
0.1924
36.1
121.9
0.03629
72.69
142.7
0.06061
133.4
4.087e+04
19.04
0.01954
0.01949
1.2e+04
0.02207
0.02183
0.03027
0.2144
77.63
2.219e+05
53.56
0.06387
6.563
0.7821
0.02183
0.2399
53.43
0.02185
1145
174
7717
146.7
6.843
108.5
0.06421
45.6
0.02185
96.04
40.54
377.1
86.37
345.2
5.228
57.15
38.48
48.97
0.03787
29.68
4316
48.86
0.1148
133.5
8.964e+04
0.02183
55.39
136
483.3
49.31
218
13.66
4988
59.42
1901
3407
0.08175
11.81
512.7
8.234
29.79
150.3
4.199
0.02547
900.3
3.652
0.09229
18.49
0.0308
0.5729
0.02344
33.81
504.8
145.6
55.07
1.992
4.841
372.5
0.2013
75.54
55.81
19.65
68.32
75.12
83.38
0.3406
3.812
0.04699
2.165
2.163
0.02179
0.0218
3.858e+04
141.8
0.02185
93.52
0.03811
4.14
0.4096
0.1145
2.379
0.02223
7.061
197.9
50.04
49.55
4.216
289.3
0.8198
0.7071
1.24
450.7
26.59
6.531
0.02188
3.805
8.582
40.59
70.95
256
0.03803
0.02182
222.4
8.521
288
0.3199
0.6946
0.122
172.1
0.03334
8.254
230.4
13.96
0.03893
203.2
182.8
47.73
25.22
0.02181
0.05792
0.01956
0.0195
0.1135
3.987
1.754
25.19
156.9
0.05855
6.846
37.37
62.16
27.8
93.19
283.2
94.78
278.4
151.2
242.1
4.903
36.8
67.99
0.03381
255.5
29.75
47.84
0.02456
182.4
61.04
26.59
0.764
99.58
103.1
0.02193
0.02204
1.02
463.3
0.3779
4.689
0.03355
397.6
112.2
0.03435
0.1223
175.5
2582
59.64
0.3182
1.185
587.1
210.5
0.8107
0.02477
1787
0.05027
637.2
19.82
3.175
0.02232
0.4355
65.14
139.8
120.9
214.4
0.4522
181.6
0.03349
0.03028
561.3
0.02185
40.07
32.6
0.05211
6.308
96.96
15.75
0.02222
96.84
11.8
261.3
0.2178
77.14
11.3
136.9
73.96
380.5
5.391
37.45
81.71
252.5
184.2
0.06298
38.74
0.1121
1.196
0.1337
436.9
0.0789
0.02116
180.1
37.02
0.3815
25.34
0.02192
7.547
287.1
0.0284
0.0222
0.02173
91.21
0.06843
4.795
0.02644
287.3
0.02189
50.06
1.041
53.41
49.79
183.1
5.367
499.1
0.05028
70.23
315.9
342.9
86.52
3.806
14.09
58.34
6.395
13.84
66.31
0.1583
0.02264
42.51
277.5
0.02079
43.09
0.5958
0.2252
8.115
0.05431
0.02029
45.99
0.5496
67.48
24.55
521.8
48.04
284.7
257.7
9.72
25.3
17.39
0.02171
312.1
0.02372
149
61.06
55.3
64.42
7.096e+04
146.5
11.3
0.1288
20.63
0.02176
508.2
0.02272
44.83
17.73
1.009e+05
5300
1.64e+04
0.02194
254.3
96.96
0.02181
38.1
15.74
126.2
2.492
50.45
184.7
43.13
845.9
0.1362
43.28
3683
49.34
285.8
75.43
0.02273
3.874
0.1808
5.483
0.02415
331
2630
65.08
0.01972
42.44
0.1314
107.8
11.52
1672
4.188
0.02394
62.11
7.678
0.02082
0.815
4.416
169.5
99.14
280.7
138.2
19.48
9.409
27.06
110.7
179.3
0.02246
549.2
122.3
278.2
19.87
62
0.02213
0.02207
0.0849
283.4
29.51
0.02185
0.02696
5.42
90.03
98.65
9.698
114
348
2.008
0.02379
0.02134
67.1
52.59
18.62
0.02984
1889
14.43
189.3
0.3154
397.2
0.02185
91.67
33.18
2.93
0.02373
109.8
18.51
952.3
0.02027
34.1
143.2
0.02172
6.297
0.02187
65.09
17.3
0.02179
327.5
156.5
65.35
114.8
23.17
243.3
211.3
39.56
82.52
192.2
95.16
38.45
46.59
368.7
0.0259
216.9
0.02179
23.58
0.02603
27.96
0.02117
0.02185
0.4972
37.26
65.84
0.02133
0.02117
54.63
2150
342.1
271
52.43
4.726
46.97
12.39
61.05
198.1
712.6
0.02135
259.7
56.43
0.7003
1.958
0.02437
0.02692
12.22
246.7
17.39
412.4
0.02592
0.03378
142
263.8
0.02984
575.1
0.1911
0.1501
204.6
3.433
52.15
0.1765
1.731e+05
80.3
87.16
70.39
141.6
170.4
371.3
307.2
0.02747
101.8
41.91
39.94
0.02122
79.39
0.6978
0.5762
0.0197
0.0212
329.2
0.129
187.9
143.1
30.07
3.806
1.509
323
0.1619
131.8
0.02169
0.0209
15.72
0.1178
435.4
0.4897
302.2
41.18
69.14
0.2006
0.7136
0.03025
292.5
0.05458
159.6
2.47e+04
13.85
29.76
55.38
0.02467
26.93
101.9
288.1
3.453
10.86
60.97
2082
73.9
37.71
11.92
111.2
33.86
8.541
20.53
0.452
3.736e+05
0.6856
0.02982
38.59
17.47
60.45
0.02156
34.07
4.636
97.94
0.03596
400.5
180.7
388.2
0.03641
317
41.79
282
162.8
0.03111
70.5
70.9
289.1
31.81
0.02216
37.39
79.36
0.02223
6.727
1.16
158.5
145.6
0.6967
13.9
459.5
143.3
0.01935
70.66
18.53
612.4
259.5
0.4559
37.26
136.9
0.01942
125.9
202.5
24.04
3100
23.58
63.13
62.59
48.2
2.302
0.02193
2.793e+05
134.6
108
91.07
96.11
72.68
133.7
126.4
0.02132
4.516
2.206
0.03168
153.4
148.9
37.41
12.59
0.02049
45.29
35.19
0.0217
0.02044
1.963
14.68
52.41
66.74
90.91
3484
3.229
0.3804
0.02124
101.4
77.88
195.6
370.7
1.257
0.04743
0.02255
3.16
2011
0.02126
0.1852
100.9
25.55
488.8
0.023
40.21
28.03
0.02182
275.2
0.02121
25.49
906.9
234.8
16.13
891.7
0.02334
295.9
0.1978
331.2
50.37
371
2713
0.4505
0.8276
2.777
820
0.02181
2.66
168.4
544.1
42.58
648.5
0.04575
0.1723
67.77
474.2
1910
122.1
6949
336
3300
153.9
84.86
3.85
1522
0.02449
48.33
0.02529
0.02331
35.67
0.02905
112.5
16.38
31.67
0.8443
0.04479
296.1
40.48
0.02232
1.822
99.03
0.04273
360.9
756.9
35.75
5.518
113.8
10.15
68.92
0.02173
55.35
160.5
0.0243
299.5
117.2
11.47
0.0207
1.72
1.297
4824
4.765
765.3
38.22
13.74
31.28
171.5
321.1
0.02157
268
1.159
0.02304
5.141
2729
1.703
531.8
5.336
1.663
261.5
1630
130.4
0.0237
0.02184
5.907
9.065
106.2
337.8
71.04
432.6
193.5
0.1279
426.8
0.0645
1257
0.02161
87.88
78.75
26.44
192.6
55.19
0.02179
0.02236
81.3
0.2947
52.51
117.5
65.12
73.81
13.36
146.2
220.7
672.7
42.2
256.1
232.1
5.752
53.39
136
77.01
97.51
1219
57.8
0.02156
0.02143
55.78
70.55
0.8262
0.02094
14.03
47.07
0.5395
72.45
10.82
171.7
12.6
0.02223
0.4604
0.5652
805.1
440
39.36
0.6562
2.347
451.7
126.2
13.56
24.62
16.76
65.5
79.2
521.2
0.02433
426.5
188
17.83
106
121.5
0.02189
673.3
733.6
0.02094
0.02155
66.64
59.51
3352
43.77
46.65
99.64
121
0.5023
0.5281
0.02512
135.7
57.47
116.2
2.08
119.9
104.7
0.02391
601.5
43.68
0.02172
278.9
0.02265
0.02169
9.486
0.1432
1866
0.02158
271.7
0.02182
172.5
0.1164
1.816
3.175
210.7
161.9
198.6
18.09
0.05001
0.04114
25.43
87.52
69.79
139
978.1
140.4
555.1
122.1
134
503
163.4
512
0.3147
3.281
0.03127
329.2
38.06
346.3
0.05208
52.75
26.39
39.27
31.92
77.01
0.8003
452.8
10.67
39.35
44.87
235.3
51.01
0.02075
11.37
329.6
0.02286
226.6
495.1
0.02083
1.92
45.57
0.03994
0.3417
8.09
153.5
0.2488
0.01991
218.3
190.4
0.02179
0.2194
0.03721
46.96
232.3
3.899
0.04049
77.79
830.3
214.6
122.4
30.68
1475
0.06128
70.83
0.02178
100.4
12.21
190.5
31.9
77.76
896.2
0.02197
3331
214.4
280.7
25.19
722.8
13.02
2.862
465.9
31.24
0.04128
6709
62.08
128.7
295.2
79.9
34.65
93.15
131.5
39.68
121.6
17.6
182
150
1.796
618.5
0.1317
47.59
0.127
221.8
0.01985
0.02166
10.57
1618
88.32
0.2026
843.8
77.46
0.02181
2013
46.73
13.38
849.9
2.866
62.87
6.745e+04
1.82
212.4
29.56
34.84
1042
142
379.9
9.6
278.2
0.08826
0.6349
4.838
157.5
4.032
46.59
50.52
253.1
83.75
0.3749
73.5
2.084
1.222
4.955
588.8
0.05182
1799
330.3
71.41
120.9
0.02181
23.05
86.66
1.542
138.1
284.8
451
0.02136
165.7
79.95
68.69
582.4
55.19
4.452
68.61
0.02241
68.45
98.42
2542
175.3
0.09872
28.56
0.02265
2307
602.3
91.42
0.821
3.906
0.02079
0.01984
51.62
41.88
11.22
0.1237
0.04145
0.04482
21.48
82.82
5.157
265.7
115.3
636
1.447
382.5
49.76
138.4
0.01987
226.6
26.72
21.89
711.9
4.41
10.05
134.8
26.42
53.21
1035
1.081
96.05
53.43
10.44
2.343
101
1165
0.2256
70.72
0.0212
131.2
611.3
0.02037
717.2
14.28
98.09
176.1
0.02139
1.667
6691
0.02191
99.73
187.3
40.42
601.5
0.9281
2.186
60.67
442
128.7
210.8
0.08251
31.41
186.4
2989
144.2
133.5
0.0217
137.4
4.453
324.4
164.7
18.56
134.2
0.02214
1.462
113.7
0.02424
41.04
0.02129
1978
50.46
1590
84.48
34.57
584.1
66.6
77.55
126.4
3854
139.2
155.8
25.09
47.65
74.02
0.02211
39.41
0.023
26.04
0.02201
70.1
0.02148
206.4
58.5
0.02081
0.02173
47.34
0.2263
260.8
0.139
0.02022
9.14
74.4
0.04
1.842e+04
301.5
2061
78.01
17.07
138.3
79.05
35.39
0.3207
719.4
40.01
121.8
481.1
88.56
44.5
8.149
0.02156
3772
98.56
484.8
0.02181
671.7
35.37
139.7
45.87
0.01976
0.01974
0.3766
1.052
5.465
17.55
28.11
1.146
2.544
0.632
1.924
383.6
25.65
2.877
58.21
2.406
584.4
283
31.75
150.7
52.98
0.02241
37.23
41.23
708.6
38.27
0.04009
23.03
1.052
66.46
36.88
705.5
0.7714
0.02174
80.22
10.54
846.9
271.4
0.8286
133.2
215.8
0.1688
0.01973
468
273
4428
0.09091
626
50.37
0.02155
209
111
15.43
0.2482
26.4
59.01
23.89
86.27
56.46
94.46
0.05157
39.14
325.9
272.3
0.04292
0.04283
175
18.48
8297
90.75
311.3
341.2
3737
0.7506
71.03
0.02782
0.02201
0.02151
83.62
0.02186
817.6
0.02174
2776
0.5204
17.3
47.87
240.4
0.07283
1013
0.3233
176.9
45.68
828.1
0.0228
175.5
131.8
38.31
135.7
77.29
91.91
498.2
542.4
0.05552
0.02061
182.4
0.06014
0.02017
0.5037
160.2
0.02061
620.8
0.02185
49.78
24.11
24.93
133.5
0.02098
88.18
328.2
147.8
0.1104
5.252
0.2916
0.02179
0.02123
65.88
1.015e+04
8.294
39.31
0.02681
433.3
0.5044
0.1133
0.04802
2.631
141.1
224.8
0.02799
32.65
0.02359
73.05
0.02217
0.9133
25.14
33.45
23.58
281.7
200.4
0.02123
24.56
488.8
107
636.4
367
6.683
0.0389
4.949
6493
34.62
376.1
300.8
0.05657
0.2641
0.02164
139.8
78
66.75
0.02181
123.4
0.02176
0.258
129.8
0.02153
5.77
0.4502
13.79
27.37
0.3102
150.9
0.0219
132.8
293.1
2.108
9.649
74.34
0.04632
12.96
36.82
67.1
17.79
44.1
269.4
99.41
179.7
348.6
0.09746
0.3299
18.11
0.04122
103.8
56.21
0.1664
34.84
0.02675
0.1398
108.8
1.298
12.35
92.92
661.1
84.85
673.5
0.8442
0.02066
708.7
55.88
0.1289
166.2
0.03175
22.74
0.02223
14.39
642
27.56
12.17
26.06
61.77
0.02187
27.21
0.7401
8.828
910.8
0.02817
42.33
447.8
0.02161
0.02876
36.49
0.05722
45.19
2.492
1.994
15.93
0.7537
55.33
0.05985
0.9056
106.1
0.02076
0.2925
863.4
690.6
0.02099
84.52
1051
4.318
397.9
23.17
72.71
689.5
0.04921
0.08937
38.37
0.02825
574.1
14
65.16
706
221.6
0.02754
226.3
8766
2.327e+04
37.35
39.13
209.5
0.701
82.29
5.354
48.41
323.2
48.72
46.28
27.43
424.1
66.75
1.133
0.02184
399.9
1.128
97.14
0.4966
0.05794
57.29
36.79
4.223
0.02055
159.8
370.9
7.797
346.5
37.26
689
118.1
0.03106
247.2
231.1
47.73
45.8
897
0.01939
1985
110.9
72.08
0.02554
93.4
43.8
279.3
303.2
61.55
371.3
0.02573
7.45
85.29
0.06462
71
0.02192
189
2001
65.97
372
4668
79.85
751
0.07954
302.8
5.915
35.02
0.04812
6.649
14.27
76.6
51.17
0.04753
36.89
1704
4834
75.08
2.673
1.062
1.732
0.0224
0.02938
92.48
0.5146
0.02246
33.81
57.14
120.8
47.59
4.758
64.55
11.49
545.2
498
527.9
0.1194
39.61
1401
17.59
119.1
2.51
6.083
30.04
1.463e+04
7.981
6.334
0.03498
0.0693
774.3
65.32
0.02181
0.02196
27.65
330.2
65.29
44.47
1511
27.39
0.02718
338.7
40.33
51.94
528.6
0.5059
1.65
46.65
147.2
0.8363
138.4
0.02189
101.2
17.31
348.4
0.7787
93.68
612
2.076
352
10.2
321.3
60.82
112.9
0.1657
28.64
116.8
89.06
401.2
49.41
1012
118.6
0.02182
44.73
2.507
273.2
25.24
0.1829
9.933
0.1506
957.5
0.0379
58.8
35.03
45.16
62.25
25.5
0.2381
609.6
0.2866
0.02775
107.1
0.02092
81.43
0.03938
0.8682
18.27
0.02152
0.3927
96.35
96.68
0.02178
0.02512
55.13
8.587
240.7
0.2284
21.71
44.06
271.9
210.1
1.064
34.65
7.806
0.1012
47.63
2249
12.42
1618
178.4
14.47
649.7
0.02183
0.02062
2.418
2.155
3778
0.02181
9.63
128.1
1.016e+04
188
210.1
0.01959
0.01917
164.4
149.8
38.54
40.24
0.04168
2.162
1.136
0.02222
328.2
62.97
33.48
40.11
600.6
0.308
3.23
0.01993
4.99
58.47
283.9
135.1
136
127.2
60.74
83.74
51.27
329.7
152.9
0.09279
55.13
186.4
0.02581
0.0233
125.5
53.67
964.5
3.542
68.83
177.8
0.1159
0.02179
9.231
0.02211
62.7
1167
49.86
0.1915
21.88
0.05733
204.6
241.6
0.05507
6.062
4.757
39.13
56.22
16.32
169.2
101
67.31
108.5
7.588
26.95
319.9
45.58
113.8
41.34
3431
44.18
59.53
103.6
15.44
3.954
7.563
823.3
0.5213
205.2
0.02334
79.41
0.02214
60.98
12.48
750.2
189.7
0.1321
332.2
1264
402.8
60.96
26.89
291.2
1481
0.1993
54.51
15.35
1769
156.9
117.7
0.2622
0.4596
0.02182
23.4
2156
2.511
80.2
64.8
0.1392
1126
0.01986
16.02
0.5855
57.45
124.7
0.2414
2.298
16.3
0.05279
32.52
10.97
992.5
84.32
103.7
0.02157
84.91
95.95
152.3
611.5
15.74
7.578
112.7
0.02187
109.6
66.82
8.063
16.08
32.82
922.1
283.9
75.45
65.98
0.7008
6.614
245.8
3.275
0.1133
461.9
0.05669
0.7013
0.02189
0.02199
62.82
0.02239
81.84
18.12
1.058
25.47
274.5
1025
141.6
72.19
153.5
66.27
2968
68.64
143.1
0.6897
1158
19.76
230.7
1189
0.03491
267.4
266.9
2.13
27.39
159.6
220.7
195
53.58
72.28
0.03056
6.125
0.02207
1.09
26.33
55.77
15.58
41.51
1458
31.48
0.0224
313.2
95.72
2.706
20.1
75.19
82.51
223.5
296
687.6
92.76
93.24
66.5
141.6
78.77
0.1112
1448
313.5
34.75
3.47
0.02263
114
347.4
82.36
2.074
671.5
458.7
112.5
2.475
84.66
1633
0.02262
147.9
13.42
0.04888
9.465
158.1
0.02183
247.9
27.81
5.651
3592
5.903
117.1
2800
105.7
91.57
0.01984
0.0198
86.22
11.75
3.495
502.6
49.69
0.02152
910.1
280.4
52.45
0.02259
0.02242
55.62
3.807
83.47
7033
182.3
0.02401
225.6
495.8
0.1228
211.6
127
0.06842
0.9734
201
0.8636
45.59
0.01966
0.01944
0.01946
0.01961
0.0843
37.26
7.571
78.61
3.215
49.54
58.74
819.9
0.02038
142.2
80.91
115
641.5
130.1
39.79
26.71
124.8
44.46
60.34
0.1113
38.34
2200
64.36
590.8
0.8524
26.99
0.02178
1206
141.5
118.8
3.311
0.03741
1262
0.0218
70.25
597.3
0.0286
164.4
106.7
27.31
41.92
193.2
0.05717
169.2
0.02069
6.155
90.5
92.17
71.98
16.62
0.02166
0.02192
0.3344
59.34
265.3
0.4116
34.64
179
1.78
159.5
126
5.255
31.95
36.45
125.5
0.2155
2033
0.9745
0.02179
774.5
0.02179
0.0228
0.3651
0.07931
177.4
40.64
369.8
98.61
118
0.02188
0.1016
49.99
74.59
71.94
0.0382
0.3769
7614
1086
0.02213
1690
1094
5302
0.05703
5.158
12.48
0.1084
0.02563
4.141
95.08
5951
0.1366
242.5
1.286e+04
0.02179
133.7
855.9
48.3
0.02179
288.2
7744
2523
739.4
0.4856
14.04
1925
0.05861
123.3
0.02155
33.26
785.5
6.018
293
725
0.2582
35.57
16.64
0.02225
0.03398
182.1
461.1
3.008
178.6
143.4
1
27.42
44.6
51.86
111.3
0.0218
45.94
60.48
75.59
136.9
25.22
174.7
80.77
501.5
1672
7132
199.1
0.05569
104.6
0.02766
302.9
203.4
0.02181
1.449e+04
0.02221
118.4
1128
505.8
142
128.6
69.19
38.74
0.01965
3274
32.67
0.04641
23.01
44.52
730.4
729.1
1148
18.12
149.6
823.1
27.72
0.1151
33.28
1700
0.02089
114.1
25.01
42.13
22.39
46.93
17.12
568.1
46.57
45.26
646.4
0.04212
513.8
0.1292
19
82.43
0.0266
0.1434
16.63
451.3
315.9
481.7
0.04505
0.0222
2.426
85.75
1425
88.89
7.59
0.01931
0.03427
338.7
0.01975
177
121.2
0.08971
185.6
44.31
2319
513.3
699.1
0.04142
209
78.98
198.7
3.608
10.04
928.9
60.92
251.8
93.01
154.4
76.43
2.002
1075
38.91
33.51
48.14
0.04064
21.12
0.1868
0.02225
9.82
153.5
130.1
69.73
18.13
940.4
1474
44.45
1.077e+04
0.1848
0.3748
0.03767
0.06689
9.429
0.02221
37.82
643.6
109.6
324.6
1.46
16.42
32.73
143.5
29.31
482.4
67.44
2250
209.7
0.0243
52.1
35.22
0.02204
0.04287
430.2
0.02186
225.6
219.1
90.11
3.421
520.5
0.07424
0.6762
0.05151
208.5
170.5
111.4
22.94
0.02144
76.31
0.02165
0.3345
157.6
2.775
659.1
200.2
239.8
6.317
1650
1.112
0.1596
54.75
138.8
0.02085
2.494
0.02185
302.8
388.1
111.8
103
0.02169
296.6
151.2
131.5
292.6
261.5
88.71
0.02468
1.061
1.939
2.167
315.6
13.74
0.09862
5.026
0.1694
24.01
109
0.02071
0.02044
0.02283
0.04253
0.3036
101.1
229.6
0.02212
83.81
12.87
55.26
0.02194
115.2
0.1153
411.9
0.05796
2170
12.89
437.5
0.03466
0.101
568.9
0.03178
53.96
57.26
68.43
165.8
137.2
0.02183
108
64
44.58
77.44
65.5
3.73
97.56
24.88
594.9
0.02154
33.36
16.92
1880
0.2051
0.02209
370
657.2
48.24
41.61
6.076
555.6
0.05371
13.91
54.68
52.08
41.56
4.828
0.02421
10.73
702.9
112.1
40.85
1235
3.195
3.629
0.02168
0.03107
0.1438
0.03594
6005
173.4
0.02195
0.02377
35.86
2069
0.02194
89.72
228
54.37
3.423
216
921.6
136.5
43.27
249.7
1061
633.8
0.0223
116.8
16.02
159.9
0.02139
0.3575
125.3
63.88
89.58
3786
494.1
1.37
267.3
1055
7.555
57.96
79.64
1.835
0.9494
347.5
1683
0.02158
292.7
44.83
0.02194
839.7
36.93
3.943
0.0807
32.1
213
161.1
11.97
0.02192
0.02203
1.809
41.07
0.0202
2.391
0.02791
205.2
35.78
34.86
165.3
393.2
1.816
45.27
0.02156
598.9
15.19
1060
184.8
0.1147
359.5
5.45
260.7
630.9
8.309
648.7
0.02082
0.02125
89.09
0.07696
0.0214
1066
75.79
80.12
158.1
11.98
79.82
0.02414
1007
0.04432
26.23
0.02043
0.2335
209.6
95.71
101.5
32.14
19.1
65.51
0.02048
94.62
117.8
279.7
1220
0.1477
38.71
6.842
0.02195
61.8
271.2
0.1823
0.05285
36.23
748.8
0.02128
0.02166
9.678
93.47
52.14
1160
0.02206
135.6
160.3
45.91
0.02208
0.09404
298.3
61.22
215.5
49.39
27.92
0.02054
152.6
0.02574
449.8
807.1
0.0769
43.49
19.35
148.4
300
66.81
0.07238
0.02048
86.98
0.2493
0.02167
369.5
83.28
8.405
0.02051
0.08758
0.1172
0.03074
38.5
127.9
0.02181
266.2
26.52
70.36
0.02966
0.02191
0.02169
0.0554
9.71
2.352
212.6
688
1438
24.96
964.5
506.1
0.02548
617.6
114.2
127.6
19.01
0.1926
2.013
160.1
567.8
387.8
109.1
0.06399
65.25
61.35
38.68
8.012
0.2422
45.9
0.2595
84.96
0.02918
70.22
5.495
4.029
0.5952
592.6
1392
989.1
0.02062
3470
71.13
0.02015
103.9
0.02182
136.7
125.8
0.1024
384.2
29.45
0.0223
1.858
6.024
1084
0.02379
0.2595
618.2
2.436
0.02158
549.1
92.59
0.03513
0.246
3.054
66.1
1729
196.5
125.4
12.07
59.04
1.806
0.02174
0.05135
49.03
38.27
147.9
0.02207
812.6
85.78
15.33
40.54
98.1
127.2
0.0202
0.06505
150.1
192.1
0.0581
43.95
213.7
6.082
4.087
7.051
16.6
0.04927
13.39
14.03
9.39
5.898
0.02205
213.5
0.1301
91.82
3.11
2.011
119.2
128.9
2066
10.1
1.001
0.06983
0.02123
2.861
11.14
592.6
893.1
101.6
145.1
170.2
37.69
0.8945
114.9
186.6
597
62.04
0.05207
349.7
1.157
365.2
6.316
15.07
43.05
88.37
0.02179
43.88
0.241
0.02165
0.282
346.7
1.062
1.535e+04
199.3
61.07
0.02168
29.39
237.9
0.03801
47.99
66.73
94.92
67.59
135.3
0.02188
168.5
0.02074
2.006
293
55.11
2.982
194.7
1.05e+04
0.02192
0.02175
15.01
28.8
323.7
0.9719
90.78
235.3
5.396
73.44
0.02222
161.2
467
0.1263
96.65
0.02157
22.47
0.07044
44.68
143.9
160
0.2833
81.87
14.34
0.02866
126.6
193.8
0.2398
0.02154
0.02383
146
923.8
9.354
5.748
128.2
8.452
65.28
7.883
0.01939
0.4132
1.206
955.1
1416
323.9
0.02135
201
51.11
84.53
80.63
751.7
3.242
41.4
38.18
25.47
243.8
649.9
0.9086
0.05497
7.155
0.03818
1594
0.02377
70.89
183.9
13.59
73.87
223.4
91.2
286.1
25.86
189.6
12.26
2.43
368.7
953.3
94.83
740.9
886
0.0218
767.3
122.8
321.4
652.5
39.36
1.461
53.41
32.36
5.593
0.05058
23.6
49.82
38.41
49.75
125.3
1.106
1.156
0.7336
621.5
83.4
1142
38.06
205.2
0.02028
414.6
131.5
567.9
21.71
764.7
320.4
113
0.108
1025
0.09492
38.92
69.58
0.07348
0.6987
57.85
9.446
39.24
69.5
8.186
67.47
90.92
793.2
8.204
2391
0.04843
4.904
56.3
9.785
0.05824
228
0.02182
0.02261
0.02178
91.9
57.11
57.69
0.4634
0.1626
68.14
0.05107
1883
415.7
599.8
89.03
0.09462
251.5
425.9
0.08277
136.6
0.02187
23.98
14.34
62.75
2.002
0.0213
0.02191
169.4
15.96
0.04624
750.5
59.98
0.02097
0.02182
24.78
0.03689
157.5
939.7
0.02468
3.303
69.95
216.4
367.8
748.3
9.842
0.1858
17.95
112.4
0.3175
311.9
8.656
2.474
214
121.3
1.103e+04
0.03165
23.02
117.6
908.4
0.02184
101.8
0.02181
11.44
2.659
10.66
39.11
108.4
52.91
0.2424
363.5
83.13
189.6
235.1
256.5
120.1
1.298
27.14
287.8
71.8
105.9
0.02122
643.8
779.7
383.5
17.29
3.822
344
201.6
0.4811
0.144
5680
85.08
0.04326
0.02865
0.04502
137.8
259.1
2.82
871
5.386
0.03281
41.01
23.78
37.03
161.5
4297
645.5
52.08
207.6
92.47
146
88.71
92.33
16.63
13.07
396.6
91.64
0.4385
77.86
224.5
0.1988
18.65
1.1
4.181
603.2
66.41
0.02204
629.7
7.972
782.3
69.98
0.02155
0.1371
239
0.03431
103.9
265.8
594.6
12.18
0.02317
0.2573
23
37.4
0.09615
135.8
0.02078
206.4
51.42
81.2
46.44
114
116.5
121.5
624.6
0.422
34.91
0.02183
866.9
0.04781
0.02626
46.95
0.02215
32.53
32.91
6744
0.02196
63.86
38.62
168.5
133.5
0.2465
131.9
62.59
113.1
583.4
69.55
0.1219
0.02263
59.12
362.2
12.09
51.48
99.14
93.72
3.053
0.02116
42.4
64.36
780.6
17.45
133.8
3.707
75.82
0.02151
7.169
750.9
366.1
0.02198
0.2861
68.89
0.01994
29.72
389.6
29.79
0.02195
0.02201
11.27
0.02482
0.02014
0.02174
12.56
230.9
356.8
0.3696
54.15
4.176
0.819
0.02225
46.38
21.03
0.05011
1.028
350.8
2.04
0.02913
92.15
89.29
8.182
634.5
2319
0.02864
37.22
10.94
227.3
119
118.5
0.02194
20.64
529.9
2.408
47.35
0.4854
466.7
124
67.3
5.168
823.2
0.08575
2950
72.54
0.02899
0.03535
0.02
56.04
70.04
781
309.1
929.6
0.1318
0.01941
33.3
43.52
0.1567
0.02219
280.8
16.51
503.9
89.48
86.47
26.91
13.59
9.886
93.28
0.01987
322.5
198.7
114.8
4.991
0.104
0.02249
80.32
27.86
119.3
1438
15.1
0.04974
23.62
0.7717
0.09878
0.02229
245.4
68.58
141.6
253.7
59.83
1.021
79.14
81.13
2.857
30.36
0.5072
0.1976
0.02192
33.34
2052
1.082
0.9324
2724
0.3362
0.02169
4.344
0.03323
0.02203
45.56
0.01949
0.01944
3.198
0.02012
111.4
610.7
170.3
4.313
0.2109
0.02113
0.02197
4.768
78.59
12.84
723.9
31.89
0.0289
44.29
10.85
565
0.2661
0.02198
3.432
54.32
0.02203
0.02136
35.41
79.42
0.06674
0.03483
126.1
0.02131
0.38
0.02188
1962
0.2233
87.35
23.55
0.03269
0.1832
8.656
62.92
205.1
50.82
30.5
22.61
0.02215
627.3
37.23
43.67
0.02191
50.67
54.96
169.2
58.26
0.372
85.42
4.248
0.2194
101.3
0.02205
1.776e+04
5.041
857.3
0.02197
83.31
0.02186
0.1077
1.916
157.3
70.6
41.05
2.536
0.08386
959.7
0.09726
82.15
873.2
6.252
0.2078
0.0381
215.9
0.02164
1.615
90.43
6.125
5.181
0.02223
835
0.03852
43.41
375.5
20.52
98.17
335.9
41.93
340.8
37.98
1.061
58.44
1.809
0.02179
0.02181
548.3
27.29
185
34.59
33.86
0.0218
25.02
0.02181
0.02201
0.03718
367.2
0.1673
4.189
0.02888
116.5
0.338
117
96.12
1211
0.02819
280.5
28.91
33.51
0.2402
58.43
0.02187
35.59
0.2387
75.63
4.854
0.03582
90.46
1989
47.66
453
82.22
1115
357.4
2.394
14.19
1108
7.761
1014
191.2
90.69
115.8
93.17
85.44
68.22
190.2
0.03522
49.58
0.05773
130.6
826
29.46
68.04
262.7
37.37
49.2
0.02997
86.71
102.6
3463
24.08
0.02338
75.32
27.44
53.16
0.04948
22.23
58.36
90.92
0.7361
351
13.86
135.5
107.2
185.1
54.21
58.51
71.25
0.02771
545.2
7.418
0.02604
55.15
71.37
118.5
362.6
271
0.02202
55.38
46.05
0.1419
3.993
39.58
1253
236.8
0.02089
0.02224
1.896
71.47
22.69
0.02163
19.99
70.13
148.6
661.4
0.02104
95.22
777.6
86.78
2178
169.9
187.3
190.4
56.67
6.976
0.02548
138
151.3
48.67
113.1
0.9747
95.66
0.02207
0.04512
110.3
118.8
88.39
240.2
67.28
0.0222
131.8
143.8
0.3393
102.4
3209
274.1
0.03317
0.2112
0.0277
30.21
118.3
348.3
352.1
41.06
120.1
0.02182
116.4
1.326
22.9
133.5
0.7462
600.4
19.5
625.8
0.04244
55.91
530.8
0.02179
56.3
49.12
93.3
47.55
0.0219
0.02202
0.03512
96.79
0.02221
20.76
215.9
0.2092
53.39
131.5
0.04813
24.86
52.22
0.1858
569.9
132.7
756.2
129.4
0.0221
332.8
646.6
0.02172
978.9
5.883
13.76
12.66
209.7
56.64
26.68
66.99
24.48
0.02194
26.65
0.02178
0.068
405.9
50.23
17.73
15.1
1.472
200.8
0.02192
0.01976
0.09211
49.76
98.47
26.14
1093
1.59
0.1159
404.2
0.6909
38.05
0.02137
80.44
252.9
68.19
72.63
192.4
37.62
79.68
64.86
2.491
0.02494
74.79
88.76
48.46
108.9
684.1
205.2
0.0215
61.21
78.5
60.11
1623
0.02183
150.1
55.62
40.94
61.84
67.79
1192
118.1
63.97
268.7
2316
5.186
58.36
597.4
5.841
0.02169
128.6
70.42
74.37
95.87
66.4
11.18
0.03452
93.61
34.45
422.5
8.864
297.5
420
0.02176
279.7
49.65
137.7
2.22
0.01944
133.5
126.6
8.452
26.86
0.02135
50.76
28.2
2.582
35.24
36.87
192.9
108.2
181.9
147.4
0.01993
41.82
83.03
115.5
237.7
47.31
14.49
59.92
67.1
11.09
52.08
213.7
826.2
286.7
202.1
4752
10.11
0.1157
4.528e+04
153.3
626.2
0.03161
547.3
1335
106.8
11.25
0.02336
9.817
0.02181
44.11
16.29
2.545
2.336
66.41
325.6
10.4
4364
33.64
115.5
85.97
2078
247.6
93.05
50.68
0.1625
82.87
64.14
1041
39.5
0.7514
0.9603
167.9
0.8671
0.022
0.02177
15.37
18.16
0.05001
0.02019
0.02237
66.88
419.6
224.5
0.02155
0.02547
24.81
0.01974
0.01984
338.1
0.04319
50.71
316.5
0.05922
118.7
3.851
114.9
7.821
72.01
0.08193
39.29
89.49
1.401e+04
117.6
59.3
107
523.2
1.82
0.02542
40.13
298.8
0.02179
3.002
178.9
279.7
609.1
41.12
102.5
342.5
0.02708
44.5
131.7
104.3
34.89
130.6
0.05853
13.06
26.49
116.8
55.33
78.57
0.03609
390.5
54.86
0.03191
83.84
0.05593
71.11
0.02966
2001
674.2
0.03373
68.23
52.23
0.1906
668.5
150
0.02345
225.8
41.61
86.26
619.4
0.04722
0.4208
3745
33.55
74.52
3.054
54.71
1.612
6.637
68.48
0.04938
1.304
132.4
46.24
109.4
55.15
108
2.734
46.82
231.3
137.5
2.797
15.2
0.0218
0.1659
179.3
83.48
0.01946
1.626
13.88
7.344
71.92
29.44
76.1
0.1821
81.43
36.31
0.09005
38.91
146.8
0.1675
322.4
0.05638
334.7
24.53
0.407
0.09069
34.73
260.9
127.4
0.02107
171.1
64.88
74.73
0.06211
0.02242
20.94
120.3
509.3
7.355
27.19
57.62
80.67
1.819
1.786
801.2
6.32
1.283
2838
171.2
25.95
46.27
0.02204
1.735e+04
0.02275
100.3
44.53
42.11
60.69
43.41
552.7
13.07
5.321
0.5254
9066
257.6
37.38
6872
835.6
246.9
45.68
0.1453
0.6175
0.4172
30.05
0.02187
156.9
790.4
0.06116
20.72
2.812
43.7
54.04
231.2
1278
426.6
90.14
0.01942
0.01914
0.0218
105.3
2216
0.6879
0.0216
0.2415
608.4
3.899
1338
44.54
0.02279
4528
0.01948
1.155
24.41
0.05135
28.5
0.4819
1.019
0.09608
597.8
87.03
23.58
47.25
6569
30.43
345.7
86.98
50.32
0.02213
4383
203.4
385.9
44.27
87.36
30.54
212.3
0.1037
42.27
123.6
41.68
146.6
0.02713
580.7
98.57
379.7
7.512
0.1087
0.1821
0.02222
105.4
119.8
94.71
48.68
19.86
849.4
31.17
51.29
19.94
112.8
0.2226
137.1
48.73
36.91
2.097
0.0763
4.267
0.2061
25.49
1.813
218.8
8.038
203.7
21.41
6.27
126.4
0.4777
620.8
38.79
1.557
0.1282
713.6
82.41
74.41
43.15
1172
0.02204
439
267.8
28.47
59.21
36.95
26.17
201.6
47.11
155.5
43.56
35.24
2432
0.04516
0.02187
0.02214
46.82
272.7
1.938
494.6
343.4
1600
83.19
39.67
659.9
624
5.102
233.5
369.9
29.79
776
0.02176
140.1
236.6
222
0.02157
227.2
14.3
96.34
117.5
65.61
0.02207
0.3453
114.4
762.1
0.02094
170.1
2.956
0.5366
1.076e+04
0.0299
18.25
56.01
120
167.8
0.4682
23.13
6.736
265.2
284.9
278.7
0.0195
73.64
1.394e+04
0.02908
0.02426
280.3
865.5
140.6
63.15
0.07536
25.37
140.3
16.13
15.97
78.83
0.02005
38.29
7.55
0.2822
0.02386
69.74
0.02136
8759
39.93
4.772
8.918
1963
0.02274
316.1
0.02
0.02216
174.8
0.5716
87.2
12.44
0.0631
114.3
64.12
92.84
7.465
115.7
204.2
325.3
132.7
262.5
599.9
674
82.6
24.26
190.6
141.2
78.92
0.5675
0.02121
0.0212
1260
28.84
66.98
1287
0.02231
502.7
0.5006
0.02039
78.85
6649
5.553
226.9
2628
0.02206
323.1
100.8
70.33
41.06
23.96
1665
287.6
0.02177
1353
471.7
0.08215
0.02551
94.27
369.4
100.5
241.5
54.86
39.57
0.0218
277.5
0.02124
226.7
247.9
1263
0.01944
0.01916
0.243
32.61
0.03788
58.64
1.28
35.48
99.82
38.98
102.5
0.07773
0.03029
787.8
614.6
35.45
345.6
0.05062
57.09
0.02149
56.48
1675
65.15
188.1
615.7
248.8
176.2
1.201
29.11
79.37
0.0287
0.02219
0.02185
40.4
82.44
194.8
2882
148.3
0.0274
60.98
136.3
148.2
3058
16.55
67.53
516.2
20.2
0.07525
1.775
5.78
3.472
0.1015
378.9
74.65
17.48
37.75
236.6
0.2378
0.01976
505.7
28.32
61.02
122.4
1219
32.17
0.02086
66.02
73.9
83.7
3.426
42.36
58.92
4.782
112.8
1.817
0.05408
78.95
0.057
0.1154
0.2425
597.3
10.05
484.5
59.74
22.27
97.17
0.03508
212.7
145.7
0.5527
60.93
15.09
1795
0.03866
0.02615
213.4
79.03
73.96
88.34
0.5157
183.7
0.07035
0.02184
8.472
136.5
0.02786
2.067
11.69
0.02175
634.7
0.06887
33.97
34.58
16.6
0.6947
293.1
120.8
2.407
0.08224
0.02229
66.99
23.36
101.2
82.98
0.02155
0.0202
0.02179
38.14
86.91
71.19
0.04288
398.5
62.66
247
20.71
282.5
0.379
0.03744
1006
0.02243
111.9
74.2
0.03883
49.82
40.9
56.97
244.6
162
47.16
2.85
0.04964
2157
99.34
278
0.2496
1.382
0.02188
777.9
0.02175
47.08
663.8
0.02303
3.445
10.17
282
0.06728
81.53
5194
43.61
0.02169
43.22
151.8
77.6
61.8
75.48
93.29
419
10.65
0.02073
0.02508
5398
9.48
182
4.468
21.81
0.02122
0.02193
1.643
3244
577.9
273
148.7
0.8684
164.5
780.2
23.1
179.4
0.0219
277
5.525
192.1
63.54
63.81
0.02161
336.3
40.25
446.1
5570
13.55
6.508
1.054
90.4
0.02315
14.63
1534
86.03
217.6
119.6
1100
43.58
87.15
0.2146
354.1
458.8
984.6
104.2
0.03097
873.6
548.4
0.02179
181.6
170.7
129
229.9
94.21
10.47
66.2
18.5
0.0276
64.68
0.02211
40.22
0.2211
1877
0.2659
2819
18.43
315.6
31.71
40.54
169.6
8.032
118.2
1027
33.76
56.12
22.97
4.79
69.35
65.99
20.2
0.02762
11.5
8.177
51.54
84.51
150.5
559.8
115.2
0.02837
126.3
829.6
79.29
27.52
299
0.04561
98.99
0.0217
94.71
1.278e+04
1.42e+04
554.9
104.3
18.02
0.02112
0.04068
80.84
71.77
69.67
3.008
0.02226
48.65
172.7
6.059
77.54
0.02183
412.8
90.21
1299
4.821
12.61
39.36
206.8
0.03492
380.5
4372
0.9827
7.783
0.4081
168.8
933.5
3.644
73.81
5.157
104
0.02764
90.2
0.01989
608.8
66.11
12.16
88.52
3.296
291.7
104.3
1.828
0.08186
0.02199
0.02171
18.91
92
40.75
16.24
41.79
44.39
2573
1.413
59.35
0.3491
0.0221
383.3
0.02234
35.95
328.6
3.43
106.7
44.37
1438
274.5
95.95
126.8
23.21
173.5
0.1802
760.2
0.02178
1790
664.3
32.19
51.17
0.02224
72.05
63.11
142.7
1.127
108.4
720.9
709.5
0.02176
67.49
0.02195
0.02179
460.9
0.02949
94.22
8.43
656.7
95.02
64.44
47.29
97.65
1.415
93.75
1.759
3.823
8.911
0.02537
52.39
0.07623
1140
74.9
19.19
0.4152
14.16
162
270.5
185.7
18.64
6.801
0.4286
105.4
69.6
281.8
87.71
0.6496
85.87
133.3
34.6
40.33
4.222
46.26
7.077
118.1
2372
30.08
0.2105
0.03942
463.1
26.45
0.02181
296
0.451
1225
226.3
0.01967
69.45
177.3
160.7
290
265
39.77
131.9
0.03924
209.1
241.4
48.99
132.7
41.95
139.3
0.02234
0.02416
0.02224
84.04
0.279
0.02197
0.1166
7379
0.02194
139.2
378.5
1.134
199.7
174.7
79.21
461.2
21.46
77.09
78.98
8413
0.02174
204.3
8.939
55.5
1.931
4.748
3.351
1.479
467.7
0.04526
0.02966
1.177
603.3
917.2
214.8
426.5
0.04961
1786
0.02172
65.96
95.58
79.11
0.02181
0.7312
23.53
126.9
199.6
192.6
2.415
200.4
1688
10.47
21.38
0.02804
4.57
5.182
0.5291
1.228
10.19
169.5
19.85
0.3339
179.5
205.9
0.6523
1.909
123.4
0.0225