/*--------------------------------*- C++ -*----------------------------------*\
  =========                 |
  \\      /  F ield         | OpenFOAM: The Open Source CFD Toolbox
   \\    /   O peration     | Website:  https://openfoam.org
    \\  /    A nd           | Version:  8
     \\/     M anipulation  |
\*---------------------------------------------------------------------------*/
FoamFile
{
    version     2.0;
    format      ascii;
    class       volVectorField;
    location    "5";
    object      U;
}
// * * * * * * * * * * * * * * * * * * * * * * * * * * * * * * * * * * * * * //

dimensions      [0 1 -1 0 0 0 0];

internalField   nonuniform List<vector> 
127143
(
(0.01785 -0.0005865 0)
(-0.0001748 -0.0008115 1.568e-23)
(-0.0001457 -0.0007181 -3.008e-23)
(-0.0001972 -0.0009247 -7.755e-27)
(0.679 0.2042 -4.018e-21)
(-0.0001737 -0.0009585 2.372e-26)
(0.7193 0.426 0)
(0.6484 0.302 -3.736e-21)
(0.5875 0.2628 1.929e-20)
(0.3429 0.01261 0)
(0.599 0.8528 1.158e-20)
(0.5934 0.3649 1.613e-20)
(-0.0004961 0.0001884 6.668e-24)
(-0.0002683 -0.001057 0)
(-0.3756 0.6597 2.929e-21)
(0.281 -0.02084 0)
(-0.0002692 -0.001262 4.88e-23)
(0.9767 -0.1055 -4.137e-21)
(0.9738 -0.1996 0)
(0.274 -0.01585 0)
(1.265 -0.2925 1.312e-20)
(-0.01482 0.005381 0)
(0.851 -0.09119 0)
(0.9557 -0.08836 0)
(-0.01497 0.00551 2.674e-22)
(0.7566 -0.1224 0)
(0.9669 -0.01988 1.653e-20)
(0.9498 0.01149 -2.634e-22)
(0.38 -0.1706 0)
(0.9879 -0.08304 5.956e-21)
(0.8838 -0.06238 0)
(0.7293 -0.117 2.111e-21)
(1.518 0.361 3.436e-21)
(0.5462 -0.1331 -7.505e-21)
(0.7795 0.04963 4.792e-20)
(1.523 0.3719 -4.128e-23)
(0.2016 -0.05834 1.011e-21)
(1.382 -0.2107 -9.492e-21)
(0.9678 -0.08903 4.603e-22)
(0.6718 -0.04283 1.018e-24)
(0.9728 -0.199 0)
(1.639 0.6703 -2.826e-20)
(1.592 0.6641 2.267e-20)
(-0.0009993 0.0002961 0)
(0.9761 -0.1034 3.77e-21)
(0.5557 -0.135 2.478e-21)
(0.3919 -0.1777 0)
(0.6245 -0.1628 -3.16e-22)
(0.8898 -0.1518 -8.309e-22)
(0.9659 -0.08004 2.326e-22)
(0.3141 -0.02304 5.062e-23)
(0.9184 0.005206 1.333e-19)
(1.536 -0.1744 0)
(1.42 -0.04346 -1.899e-20)
(0.9988 -0.002453 5.915e-20)
(0.7807 -0.197 1.37e-21)
(0.9988 -0.002441 -5.319e-20)
(0.9489 -0.07835 0)
(1.014 -0.01755 -2.712e-20)
(1.422 -0.03892 -3.758e-20)
(0.3064 0.3127 -7.444e-20)
(1.039 -0.2562 -1.195e-21)
(0.9665 -0.07516 -1.09e-21)
(1.001 0.0006145 1.87e-19)
(1.394 -0.1251 0)
(0.6795 -0.1316 -2.669e-20)
(1.274 0.1012 8.742e-20)
(0.9673 -0.07702 0)
(0.9669 -0.07691 -2.955e-22)
(0.9992 -4.459e-06 0)
(0.9366 -0.07703 0)
(1.008 0.003754 -7.837e-21)
(0.8601 -0.1799 3.299e-21)
(1.015 -0.0174 -1.471e-20)
(1.007 0.003752 -4.51e-23)
(1.014 0.01928 8.453e-21)
(1.047 0.04858 -1.157e-19)
(0.5729 -0.1609 0)
(0.7833 -0.1974 -2.714e-21)
(1.001 0.001364 0)
(0.4108 -0.1795 -2.334e-23)
(0.3138 -0.02094 -1.636e-23)
(0.7346 -0.1713 3.241e-21)
(0.7277 -0.05126 0)
(0.3566 -0.0912 -4.378e-22)
(0.6189 -0.1688 0)
(0.9617 -0.09565 1.093e-21)
(1.219 0.09656 4.258e-21)
(0.68 -0.1285 0)
(2.14 1.172 0)
(0.9742 -0.01988 0)
(1.211 -0.2002 0)
(2.081 1.144 0)
(1.265 -0.2922 -1.314e-20)
(1.367 -0.2676 0)
(0.9645 -0.06723 -1.594e-20)
(1.634 0.6541 6.116e-20)
(0.8384 -0.06569 0)
(1.023 -0.278 2.25e-21)
(1.272 0.108 0)
(1.001 0.001317 0)
(0.8867 -0.1508 0)
(1.949 1.761 -4.588e-21)
(0.9333 -0.1012 0)
(0.6466 -0.1771 -8.184e-22)
(1.008 -0.2751 3.06e-21)
(0.8934 -0.1335 4.557e-21)
(0.999 6.419e-06 0)
(0.442 -0.08383 0)
(1.001 -0.001821 8.425e-20)
(-0.3696 0.6442 -9.875e-22)
(1.238 0.0986 8.617e-21)
(1.326 -0.286 -9.753e-21)
(0.287 1.384 0)
(1 0.02308 -9.715e-22)
(0.8812 -0.1286 1.199e-21)
(1.023 0.07418 1.878e-20)
(1.007 0.003987 -1.063e-19)
(1.046 0.0471 9.238e-20)
(-0.001877 -0.008526 0)
(1.001 -0.001938 -1.179e-19)
(0.6874 -0.1753 -1.079e-21)
(0.571 -0.181 0)
(0.9391 -0.08089 -1.006e-20)
(0.4078 -0.1808 1.394e-21)
(0.6633 -0.09317 3.351e-21)
(1.08 -0.2803 0)
(1.052 -0.01145 1.673e-19)
(1.621 -0.1325 -2.623e-21)
(0.7212 -0.203 -2.591e-21)
(0.7863 -0.2234 0)
(1.224 -0.2742 -4.131e-21)
(0.9558 -0.085 3.851e-21)
(0.5809 -0.1637 0)
(-0.0004037 -0.002289 2.538e-22)
(0.8052 -0.2264 -1.325e-21)
(1.055 -0.08101 0)
(1.28 -0.2845 4.554e-21)
(0.2066 -0.1061 -2.134e-20)
(1.105 -0.07934 9.794e-21)
(0.8082 -0.1056 4.89e-20)
(1.006 0.06032 -2.416e-20)
(1.467 -0.206 8.301e-22)
(1.336 -0.2557 -1.023e-20)
(1.535 -0.174 -3.905e-21)
(1.982 0.5743 1.481e-20)
(-0.3383 1.7 -2.764e-21)
(1.001 0.0005362 -1.697e-19)
(1.21 -0.2702 3.355e-21)
(2.111 1.74 -2.037e-21)
(0.9412 -0.09645 2.236e-21)
(0.8544 -0.1621 0)
(1.389 -0.1987 3.163e-20)
(0.6982 0.0003808 0)
(-0.09616 0.2448 0)
(0.3794 -0.09411 0)
(0.9492 -0.07796 2.431e-21)
(0.6099 -0.2074 0)
(0.6369 -0.1673 -6.12e-22)
(0.8284 -0.07015 -2.704e-22)
(0.9313 -0.06834 0)
(0.2226 -0.1079 2.859e-20)
(0.9748 -0.02057 2.525e-21)
(0.787 -0.2197 -2.987e-21)
(0.742 -0.1921 0)
(1.453 -0.1336 7.411e-21)
(0.2067 -0.06023 -6.46e-22)
(0.4407 -0.02335 4.682e-20)
(2.199 0.4779 -5.413e-21)
(0.9684 0.133 -2.549e-21)
(-0.006489 0.002433 0)
(1.335 -0.2563 5.04e-21)
(0.8694 -0.1358 3.83e-21)
(0.7077 -0.1804 -1.124e-20)
(0.9963 -0.002875 1.152e-20)
(0.0426 -0.01353 -4.353e-24)
(1.973 0.7137 -3.026e-21)
(1.62 -0.1334 -2.621e-21)
(0.9613 -0.0969 0)
(1.011 -0.03004 1.124e-20)
(0.7065 -0.1805 -3.788e-21)
(0.9702 -0.04047 0)
(0.03341 -0.01989 -7.369e-23)
(0.04324 -0.01381 4.464e-24)
(0.7187 -0.2032 5.207e-21)
(1.039 -0.2552 2.608e-21)
(1.365 0.4215 -3.268e-20)
(0.3204 1.402 4.778e-21)
(0.959 -0.08925 9.664e-22)
(1.028 -0.04096 4.974e-20)
(1.52 -0.1943 2.712e-21)
(1.556 -0.1935 -1.1e-20)
(1.056 -0.08035 5.215e-20)
(0.7162 1.932 7.272e-21)
(-0.0002354 -0.002352 -4.276e-22)
(1.15 -0.2902 0)
(1.006 -3.325e-06 0)
(0.9942 -1.968e-06 1.167e-21)
(0.08614 -0.003884 0)
(0.997 0.03517 1.144e-21)
(1.022 0.006602 7.797e-20)
(0.9142 0.09001 1.191e-19)
(1.001 -0.05116 -3.401e-21)
(0.2198 -0.06314 -5.132e-22)
(-0.0003651 -0.00207 -6.444e-24)
(0.9791 -0.0713 -8.641e-22)
(0.8965 -0.06332 1.959e-20)
(0.8711 -0.1412 -1.212e-21)
(0.9906 -0.08322 -3.21e-21)
(1 0.0225 7.098e-22)
(1.094 -0.1572 1.253e-20)
(0.1988 -0.05457 -1.826e-22)
(0.9771 0.0001296 3.428e-20)
(2.199 0.4839 -5.463e-21)
(0.6495 -0.1862 -3.327e-23)
(0.1781 -0.01237 0)
(-0.01018 0.003948 1.264e-22)
(0.8485 -0.1509 6.031e-21)
(1.214 -0.2929 -6.79e-21)
(0.8984 -0.06312 4.755e-21)
(1.951 0.7089 -7.03e-21)
(1.004 0.009395 6.521e-20)
(0.8561 -0.1627 -9.624e-22)
(1.543 -0.1656 3.829e-21)
(0.8023 -0.0668 0)
(-0.004468 0.001977 0)
(0.7599 -0.1975 -2.892e-21)
(1.382 -0.2084 1.127e-20)
(0.0192 -0.005719 -1.963e-23)
(1.067 -0.2838 4.945e-21)
(1.276 -0.2915 7.504e-21)
(0.969 -0.04001 3.932e-20)
(0.8947 -0.1847 -6.704e-21)
(-0.0008383 -0.01533 0)
(1.275 -0.2914 0)
(0.9349 -0.07259 -1.309e-20)
(0.787 -0.2182 1.489e-21)
(0.04061 -0.005078 -2.017e-22)
(1.022 0.006269 -7.144e-20)
(1.503 -0.1995 1.186e-20)
(1.552 -0.1924 7.905e-21)
(1.637 -0.1074 -9.695e-21)
(0.1372 -0.03698 1.155e-23)
(0.61 -0.2064 -7.435e-24)
(1.507 -0.1566 0)
(-0.001597 -0.008729 5.139e-26)
(0.8414 -0.161 5.516e-21)
(0.9395 -0.01337 0)
(-0.009757 0.003994 4.592e-22)
(1.001 -0.0002456 -2.625e-21)
(1.818 0.4178 -5.089e-20)
(0.7582 -0.08165 -1.598e-21)
(0.7947 -0.1686 0)
(1.322 -0.2723 0)
(0.7909 -0.1876 3.855e-21)
(0.4638 -0.09878 0)
(1.051 -0.01187 -1.315e-19)
(2.17 0.6022 0)
(0.7614 -0.1679 0)
(1.031 0.4536 -1.16e-20)
(1.185 -0.2902 -6.631e-21)
(0.9548 -0.03149 -3.603e-20)
(1.212 -0.1968 7.34e-22)
(1.004 0.05969 1.509e-20)
(1.582 -0.1276 0)
(1.569 -0.1169 -3.212e-21)
(0.3051 -0.09373 2.742e-21)
(-0.1403 0.26 0)
(0.2992 0.1164 8.711e-20)
(1.524 -0.09696 -1.515e-20)
(0.8282 -0.1552 0)
(0.9958 -0.002912 -1.356e-20)
(0.7216 -0.1809 -3.664e-22)
(1.502 -0.2003 -1.101e-20)
(0.9649 -0.07255 -1.888e-21)
(1.519 -0.1935 -1.088e-20)
(1.326 -0.2863 0)
(0.9027 -0.1382 -4.998e-21)
(0.9941 -0.006383 -1.047e-21)
(0.6901 -0.1705 1.113e-20)
(0.999 -0.001134 3.274e-21)
(0.9635 -0.06697 -2.753e-22)
(0.9334 -0.1008 7.955e-24)
(0.9909 0.01279 0)
(1.011 0.01741 3.886e-20)
(-0.000998 -0.002467 6.046e-23)
(0.9509 -0.2571 0)
(1.002 0.02446 -3.091e-21)
(0.9267 -0.1261 -2.613e-21)
(1.01 -0.03012 1.695e-20)
(1.385 -0.1985 -4.82e-20)
(0.8245 -0.1233 0)
(0.9341 -0.07271 1.33e-20)
(0.8467 -0.1455 0)
(0.9752 -0.009658 -3.171e-20)
(0.4135 -0.09414 -1.667e-21)
(0.9078 -0.07547 -5.853e-22)
(-0.006316 -0.02337 4.902e-23)
(0.1369 -0.03735 -5.52e-23)
(1.521 -0.09537 1.022e-20)
(0.8787 -0.101 5.568e-22)
(0.745 -0.1367 -4.934e-21)
(0.5839 -0.07769 -3.111e-20)
(0.881 -0.1281 -1.17e-20)
(0.7778 -0.05863 0)
(0.1367 0.01657 -3.059e-24)
(0.8715 -0.1409 -4.017e-22)
(0.9763 0.00038 0)
(1.118 -0.2564 3.352e-23)
(0.944 -0.09613 2.451e-21)
(0.898 -0.1314 4.963e-21)
(-0.004564 -0.0156 8.054e-24)
(0.8085 -0.1942 0)
(0.9989 -0.001187 2.314e-21)
(0.9866 0.01752 -3.226e-20)
(2.115 0.75 2.914e-21)
(1.401 -0.2123 4.794e-21)
(0.8679 -0.09432 -1.11e-21)
(1.238 -0.16 3.502e-20)
(1.001 -0.02464 1.244e-21)
(0.8507 -0.08963 0)
(0.9092 -0.0684 7.133e-22)
(1.087 -0.02436 3.464e-20)
(0.7954 -0.1685 3.071e-21)
(2.118 0.7483 0)
(1.461 -0.1892 -1.129e-20)
(0.8507 0.05707 8.329e-20)
(0.008879 -0.01644 -2.322e-23)
(0.9113 -0.0525 -1.57e-22)
(1.938 0.8487 2.246e-20)
(1.03 -0.2626 0)
(1.012 0.01706 -3.377e-20)
(0.7853 0.04382 -1.739e-19)
(1.006 6.634e-06 0)
(0.9939 6.652e-06 0)
(0.701 0.004977 0)
(0.4567 -0.09223 -1.069e-20)
(0.8687 -0.1357 3.876e-21)
(1.029 -0.2623 -1.024e-21)
(0.9572 -0.2501 -1.313e-20)
(1.101 -0.07767 -4.323e-20)
(0.8491 -0.1508 0)
(1.525 -0.1755 3.292e-21)
(1.52 -0.1922 3.066e-21)
(-0.05002 0.7782 -7.289e-22)
(0.9278 -0.1261 1.737e-21)
(0.9123 -0.2113 -2.987e-21)
(1.389 -0.2687 3.89e-21)
(0.8993 -0.1082 9.918e-22)
(1.666 -0.104 0)
(0.9098 -0.1052 -7.333e-22)
(1.007 -0.2117 2.509e-21)
(0.04833 -0.01356 6.689e-23)
(1.52 -0.1927 9.799e-21)
(0.9451 0.156 0)
(0.9162 -0.2171 -7.02e-21)
(1.321 -0.273 -5.799e-21)
(1.953 0.5092 -1.259e-20)
(1.004 -0.01318 1.356e-20)
(0.9029 -0.05164 0)
(0.8133 -0.1973 -5.778e-22)
(0.9654 -0.07499 -3.323e-22)
(1.014 -0.1622 -8.239e-21)
(0.9654 -0.07379 0)
(0.9671 -0.08279 6.882e-22)
(1.004 0.003878 9.831e-22)
(0.9971 0.03431 -4.099e-21)
(0.9816 -0.01491 0)
(0.9543 -0.1757 2.564e-21)
(0.9922 -0.00623 0)
(0.1315 0.4111 7.52e-20)
(1.086 -0.02671 -6.988e-20)
(0.8219 -0.09211 1.401e-21)
(0.9627 -0.07524 -7.263e-22)
(1.029 -0.03987 0)
(1.21 -0.1054 -7.031e-22)
(0.934 -0.09122 -6.53e-22)
(0.003363 -0.01142 -6.089e-26)
(0.9985 -0.2707 -5.542e-21)
(0.9967 -0.007082 8.928e-22)
(1.104 -0.223 -4.503e-20)
(0.7125 -0.09345 -3.23e-21)
(0.9129 -0.1133 0)
(0.7416 -0.1381 -1.846e-20)
(1.022 0.07163 0)
(0.4733 -0.03607 0)
(1.1 0.2621 0)
(0.6865 -0.04468 0)
(1.153 -0.2914 -1.901e-21)
(1.248 -0.2452 -4.214e-20)
(1.016 -0.01478 -7.858e-20)
(0.5605 -0.02473 0)
(0.004729 -0.0006545 -6.612e-23)
(0.7747 -0.191 4.158e-21)
(0.9573 -0.08731 -1.333e-21)
(0.8924 -0.06703 -5.329e-22)
(0.5655 -0.03061 -2.511e-20)
(0.901 -0.06319 0)
(0.9399 0.1546 0)
(0.9545 -0.03036 0)
(0.7312 -0.05658 1.911e-22)
(1.004 0.008948 -2.44e-20)
(1.307 -0.2818 0)
(0.03641 -0.0206 0)
(1.11 0.2602 0)
(0.9301 -0.1066 -2.232e-21)
(0.7151 -0.1956 -3.538e-21)
(0.9525 -0.08893 -2.917e-21)
(1 0.00148 -2.34e-20)
(0.963 -0.09723 0)
(0.4223 -0.1307 0)
(0.8826 -0.1242 2.554e-21)
(0.8103 -0.105 -5.243e-20)
(0.7737 -0.1985 0)
(0.5707 -0.1782 0)
(1.375 -0.2682 -4.131e-21)
(1.129 -0.298 -5.683e-21)
(0.807 -0.1534 0)
(1.456 -0.1641 9.005e-21)
(0.5084 -0.185 -5.133e-21)
(0.2147 -0.06333 0)
(0.03273 -0.01103 -2.104e-21)
(0.6286 -0.1784 0)
(1.002 -0.0001771 9.58e-22)
(1.064 -0.2835 -5.097e-21)
(1.157 0.4693 2.355e-20)
(1.571 0.6472 9.637e-22)
(0.7809 -0.076 -3.185e-20)
(1.659 -0.1144 1.27e-20)
(0.8716 -0.07017 -1.669e-20)
(1.005 -0.0005105 0)
(0.6064 -0.1717 0)
(0.04221 -0.01151 0)
(1.078 -0.1733 7.363e-20)
(1.673 -0.02753 1.583e-21)
(1.004 0.003739 -2.954e-20)
(0.898 -0.1275 -4.998e-21)
(1.039 -0.2314 -6.671e-21)
(0.9206 0.005508 -4.928e-20)
(0.9751 -0.008787 0)
(0.9924 0.001333 -9.784e-21)
(0.969 -0.08063 -3.399e-22)
(1.053 -0.08396 -1.699e-20)
(0.4535 -0.1 2.109e-20)
(0.9792 0.09448 0)
(0.8503 -0.06627 3.028e-23)
(0.982 0.01969 7.918e-20)
(0.01365 0.06081 0)
(0.9836 -0.01503 1.138e-21)
(0.1992 -0.05429 -2.283e-22)
(1.2 -0.3023 0)
(0.9349 -0.1144 -4.996e-24)
(0.9302 -0.1059 6.445e-21)
(0.9838 -0.1715 1.6e-20)
(0.8973 0.2611 -2.103e-21)
(0.2013 -0.05743 -1.391e-22)
(0.8707 -0.1041 5.307e-22)
(1.728 -0.09315 0)
(0.3018 -0.08325 0)
(1.441 -0.158 7.65e-21)
(0.9557 -0.08488 -1.216e-21)
(1.604 -0.1312 6.721e-21)
(1.234 -0.2637 0)
(0.3637 1.288 1.271e-20)
(1.604 -0.1324 -9.998e-24)
(0.9986 -0.002482 0)
(1.027 0.03811 0)
(1.401 -0.2482 0)
(0.7207 -0.1866 3.329e-21)
(0.9945 -0.0003386 0)
(1.08 -0.2894 2.894e-21)
(1.25 -0.1869 2.352e-20)
(0.9396 -0.08025 1.502e-20)
(1.399 -0.2114 -1.653e-21)
(0.9078 -0.05545 2.546e-20)
(1.005 -0.0002817 0)
(-0.1625 0.3795 -2.203e-20)
(1.249 -0.1844 -2.769e-20)
(0.03343 -0.01054 -6.09e-23)
(1.516 -0.1687 7.861e-22)
(0.2392 -0.126 1.483e-21)
(-0.002985 0.08678 -1.733e-20)
(1.452 -0.208 2.26e-21)
(0.807 -0.194 0)
(0.4272 -0.1222 0)
(1.67 -0.02764 -1.699e-21)
(1.501 -0.1694 -6.891e-22)
(1.017 -0.00124 7.754e-20)
(0.8577 -0.07334 4.368e-22)
(0.9682 0.05119 4.394e-20)
(2.079 0.7563 9.555e-22)
(0.9597 -0.09532 -9.822e-22)
(1.549 -0.1707 0)
(1.98 0.5434 6.69e-21)
(-0.0005764 -0.003454 0)
(0.675 -0.1927 3.312e-21)
(0.1882 1.034 -6.788e-22)
(0.9472 -0.06367 8.659e-24)
(1.656 1.189 2.92e-20)
(0.9811 0.004398 -1.606e-19)
(0.244 -0.1282 0)
(1.028 0.03766 1.385e-22)
(0.1003 -0.02836 0)
(1.151 -0.2888 -8.261e-21)
(-0.000219 -0.001307 0)
(-0.004425 -0.009634 -3.163e-22)
(-0.002985 0.0007329 1.275e-22)
(0.999 -0.000194 -6.71e-20)
(0.9306 -0.2223 0)
(1.813 0.0679 0)
(0.9873 0.01736 5.996e-20)
(0.9565 -0.2313 1.258e-21)
(0.5693 -0.1831 1.919e-20)
(0.4779 -0.1385 2.754e-21)
(0.9054 -0.1198 0)
(1.201 -0.3028 0)
(0.9307 -0.1136 8.614e-22)
(1.081 -0.29 -2.902e-21)
(0.5533 -0.1045 1.149e-21)
(0.9997 -0.002309 0)
(0.1297 -0.0421 2.378e-22)
(-0.01234 0.004412 0)
(0.4943 -0.1849 3.48e-21)
(0.8834 -0.08573 -2.281e-22)
(-0.005325 0.002132 -4.791e-23)
(1.015 -0.01669 -2.42e-20)
(0.9412 -0.09626 2.433e-21)
(1.003 -0.05085 -1.578e-21)
(1.233 -0.2624 1.429e-20)
(0.9937 -0.01512 0)
(0.8265 -0.06618 0)
(2.313 1.031 0)
(0.0121 -0.003506 5.462e-23)
(0.9927 6.245e-05 0)
(1.399 -0.2488 -4.623e-21)
(0.9219 -0.08156 1.343e-20)
(-0.008649 0.001495 -4.196e-27)
(0.3851 -0.1105 8.973e-21)
(2.244 0.6051 1.602e-21)
(1.176 -0.2623 -3.955e-21)
(0.9572 0.04447 3.491e-21)
(0.07392 -0.0229 -1.33e-22)
(0.5431 -0.1603 -1.107e-20)
(0.9944 -0.0003388 8.661e-21)
(0.7434 -0.1383 2.458e-20)
(1.443 -0.1668 -4.359e-20)
(0.9251 -0.07911 4.626e-22)
(0.9681 -0.07361 -3.458e-22)
(0.6799 -0.175 -3.514e-21)
(0.1448 -0.0458 4.177e-22)
(1.153 -0.2905 4.259e-21)
(1.587 -0.07366 0)
(0.5265 -0.1862 4.899e-21)
(0.3804 -0.1083 0)
(0.6302 -0.177 8.728e-23)
(1.027 -0.01178 -1.182e-20)
(0.7115 -0.04566 -3.499e-23)
(0.9909 -0.2689 -2.961e-21)
(0.882 -0.1302 -2.672e-21)
(0.9426 -0.09851 3.516e-21)
(0.2044 -0.05575 5.912e-23)
(1 0.002874 0)
(1 0.003822 2.12e-21)
(1.034 0.434 1.928e-20)
(0.8919 -0.209 -1.501e-21)
(1.641 1.262 0)
(0.9859 0.02044 -4.145e-20)
(1.004 8.787e-06 -8.039e-22)
(0.561 -0.1538 0)
(0.4362 -0.1765 0)
(0.6679 -0.1812 1.026e-21)
(0.4251 -0.1221 0)
(0.06831 -0.02185 1.031e-21)
(0.1269 -0.0405 0)
(0.8056 -0.1544 -4.263e-21)
(1.04 0.04381 0)
(0.9974 -0.0009601 1.464e-20)
(0.01911 -0.005909 1.149e-23)
(1.102 -0.2952 -2.898e-21)
(0.7966 -0.1716 8.695e-21)
(1.001 -0.002608 2.617e-20)
(0.9902 -0.003386 4.016e-21)
(0.9486 -0.09284 0)
(0.8838 -0.2323 4.607e-21)
(0.9973 -0.006729 3.04e-21)
(0.8012 -0.1011 -1.561e-22)
(0.9853 0.02015 7.721e-20)
(0.7525 -0.2073 -7.434e-22)
(0.04308 -0.0283 0)
(1.212 -0.2514 5.719e-22)
(0.9966 2.414e-05 6.22e-22)
(0.1835 -0.05649 -2.008e-21)
(1.186 -0.2898 -1.7e-21)
(0.2826 -0.148 -1.975e-20)
(1.005 -0.0002544 -3.354e-21)
(0.8933 -0.1334 -4.756e-21)
(-0.01 0.003963 -5.591e-23)
(0.9924 0.001076 0)
(0.9299 -0.1067 0)
(0.995 0.02606 -4.988e-22)
(0.9764 -0.07486 -6.119e-22)
(1.482 -0.1826 0)
(0.9908 0.01231 4.017e-20)
(0.7505 -0.1821 8.043e-21)
(0.9308 -0.1244 -1.117e-21)
(-0.005916 -0.01863 0)
(1.487 -0.227 -1.203e-20)
(1.463 -0.2032 -1.342e-21)
(0.9169 -0.1071 2.215e-21)
(0.9166 -0.114 8.793e-22)
(-0.1578 0.5566 -1.082e-20)
(0.9681 -0.08943 3.931e-22)
(2.067 1.138 3.229e-21)
(0.9744 -0.06266 2.352e-22)
(0.04852 -0.01297 5.139e-23)
(1.578 -0.1422 -2.295e-21)
(0.8349 -0.07584 -2.162e-22)
(1.001 -0.00254 0)
(0.8471 -0.1781 -2.363e-21)
(0.9891 0.01504 -1.696e-20)
(-0.02641 0.7949 -5.538e-21)
(1.065 0.005371 7.717e-20)
(1.465 -0.2055 1.266e-20)
(1.005 -0.0006081 0)
(1.001 0.02435 -2.122e-21)
(0.9501 -0.0779 -1.073e-20)
(0.507 -0.1842 2.57e-21)
(1.279 -0.2956 4.75e-21)
(1.003 -0.001306 2.149e-20)
(1 -0.003277 -3.286e-20)
(0.02139 -0.00626 1.704e-23)
(1.741 0.2232 0)
(0.8194 -0.189 3.647e-21)
(0.8703 -0.07593 5.969e-22)
(0.8153 -0.1876 0)
(0.4536 -0.09876 -1.681e-20)
(1.194 -0.3025 -7.478e-22)
(0.4214 -0.132 0)
(1.519 -0.1918 -2.649e-22)
(0.5136 -0.1448 -1.203e-20)
(1.406 -0.1024 0)
(1.002 -0.001381 -3.752e-21)
(1.734 -0.07527 1.086e-20)
(1.509 -0.1952 1.18e-21)
(0.8806 -0.1219 3.233e-21)
(1.393 -0.1646 0)
(0.9789 -0.02138 -1.07e-19)
(1.004 3.929e-06 8.923e-23)
(1.461 -0.188 -1.085e-20)
(0.2052 -0.104 -5.826e-24)
(1.5 -0.1697 3.447e-21)
(-0.01561 0.006032 -3.563e-22)
(1.065 0.007094 0)
(1.003 3.478e-05 3.87e-22)
(0.5499 -0.1595 0)
(1.642 -0.1483 0)
(0.9183 0.08786 -9.513e-20)
(1.298 -0.159 -4.009e-21)
(0.8872 -0.0992 0)
(0.9829 -0.0446 -4.359e-20)
(0.377 -0.1129 3.402e-21)
(0.7837 -0.1643 -2.67e-21)
(1.509 -0.1946 7.276e-21)
(0.6765 -0.0277 -9.39e-20)
(-0.001178 0.0003544 0)
(-0.003544 0.001744 0)
(0.3127 -0.0854 -1.77e-22)
(0.199 -0.05841 2.383e-22)
(0.9579 -0.2578 0)
(1.513 -0.2206 6.695e-21)
(0.8391 -0.1071 3.601e-22)
(1.376 -0.2097 0)
(0.9217 0.02023 -2.29e-20)
(1.597 -0.1491 1.272e-20)
(0.003337 -0.01266 0)
(1.306 -0.2814 -7.161e-21)
(0.9994 -0.00244 7.602e-20)
(0.9002 -0.1378 3.652e-21)
(0.6604 -0.1126 0)
(0.4195 0.4022 -3.523e-20)
(0.9926 3.122e-05 -4.43e-23)
(0.9994 -0.002512 -1.014e-19)
(-0.002068 -0.0143 0)
(0.9474 -0.06348 3.876e-21)
(0.8819 -0.161 -3.556e-21)
(1.54 -0.2042 -7.847e-22)
(0.2064 -0.0587 0)
(1.12 -0.2568 1.603e-20)
(1.547 0.008492 0)
(0.8301 -0.06893 -2.455e-22)
(0.5884 0.2819 6.889e-20)
(0.7535 -0.1931 0)
(1.016 -0.001376 -2.782e-20)
(1.003 -0.001476 0)
(1.852 0.4681 0)
(1.172 0.4664 0)
(1.012 -0.1865 5.885e-22)
(0.4217 0.376 0)
(0.4908 -0.1967 7.78e-21)
(0.9182 -0.2123 0)
(0.4851 -0.1846 -9.23e-21)
(1.094 -0.1542 8.184e-20)
(1.016 -0.1614 1.2e-20)
(0.9974 4.618e-05 -3.591e-23)
(0.8453 -0.0623 1.23e-22)
(0.9095 -0.05601 3.55e-21)
(0.8162 -0.184 -2.399e-21)
(-0.0005793 -0.002721 -5.877e-23)
(0.8953 -0.1307 -1.551e-21)
(1.581 -0.1259 -1.437e-20)
(1.011 -0.2741 6.177e-21)
(0.9967 3.79e-05 -5.982e-22)
(0.9427 -0.09915 -6.194e-23)
(0.9641 -0.08578 8.472e-22)
(0.001059 -0.0005338 0)
(0.9794 -0.1741 -2.981e-22)
(1.269 -0.268 1.139e-20)
(1.518 -0.192 -3.971e-21)
(2.09 1.713 0)
(1.125 -0.297 5.639e-21)
(0.2586 -0.1057 2.007e-20)
(0.9914 -0.2208 -6.371e-22)
(0.7834 -0.1851 1.071e-21)
(0.944 -0.09928 -1.664e-21)
(0.9437 -0.09613 -1.171e-21)
(1.08 -0.2793 6.639e-21)
(0.8515 -0.1233 1.446e-20)
(0.0247 -0.001111 0)
(0.6566 -0.1128 0)
(0.9659 0.1279 1.492e-20)
(0.8039 -0.1716 -2.448e-21)
(0.4477 -0.1591 1.554e-20)
(0.9553 -0.09818 3.556e-22)
(1.007 -0.00315 0)
(0.01626 -0.01578 4.291e-23)
(1.008 -0.2117 -5.211e-21)
(0.6753 -0.1826 -9.589e-22)
(1.003 1.834e-05 -3.232e-22)
(-0.01583 0.005693 0)
(0.6525 -0.1873 0)
(0.8085 -0.1018 -2.148e-21)
(0.998 3.326e-05 2.035e-22)
(1.343 -0.2085 5.911e-21)
(0.06493 -0.01865 0)
(1.25 -0.232 6.751e-21)
(1.602 -0.168 -6.627e-21)
(0.9976 2.127e-05 -1.741e-22)
(0.883 -0.2353 -2.087e-21)
(-0.004266 -0.0009769 0)
(0.5983 -0.1608 5.741e-21)
(1.333 -0.2707 0)
(0.9963 0.03805 -8.575e-22)
(1.525 -0.175 3.294e-21)
(-0.2942 0.879 0)
(1.029 -0.004963 -2.552e-20)
(0.86 -0.1466 4.519e-21)
(0.821 -0.1442 0)
(1.516 -0.2199 -7.932e-21)
(0.6763 -0.1915 0)
(0.7462 -0.1351 -1.488e-20)
(0.8952 -0.1309 0)
(0.7347 -0.09266 -3.926e-22)
(0.3286 -0.0983 0)
(0.9935 1.132e-05 -5.032e-22)
(0.874 -0.2322 2.028e-21)
(1.006 -0.2416 3.935e-22)
(0.7062 -0.05456 0)
(0.8999 -0.1287 -1.932e-21)
(1.412 -0.06089 0)
(0.9614 -0.2324 0)
(0.151 -0.04635 1.02e-22)
(0.993 4.659e-05 -1.455e-22)
(0.4981 -0.1439 -2.853e-21)
(0.3776 -0.11 0)
(1.509 -0.1733 0)
(-0.0004749 -0.01604 4.17e-23)
(1.509 -0.1725 -3.805e-21)
(0.01252 -0.003744 -7.939e-23)
(1.375 -0.2653 -1.64e-21)
(0.1386 -0.03657 0)
(0.7953 -0.1581 0)
(0.9991 -0.0002202 3.308e-20)
(-0.001528 0.0005733 4.765e-23)
(0.8939 -0.2476 5.65e-21)
(1.484 -0.2265 1.034e-20)
(0.01564 -0.005109 4.16e-23)
(0.43 -0.1148 -2.11e-21)
(0.1168 -0.03559 8.851e-22)
(0.3915 -0.1106 -9.148e-22)
(0.9482 -0.0788 0)
(0.9972 -0.0008887 0)
(0.9946 -0.1988 0)
(0.9275 -0.1058 -1.051e-23)
(0.9976 2.184e-05 0)
(0.4231 -0.1224 -3.737e-21)
(2.077 0.7529 0)
(0.8978 -0.1312 -3.432e-21)
(0.5904 -0.1824 -6.036e-21)
(1.006 -0.0001491 -1.391e-20)
(1.193 -0.3017 0)
(0.03902 -0.01173 0)
(1.016 -0.001051 -9.038e-20)
(1.006 -0.0001659 0)
(1.39 -0.1667 0)
(1.033 -0.2549 3.669e-21)
(0.8173 -0.1886 1.742e-23)
(0.09875 -0.0302 3.267e-22)
(0.744 -0.2011 1.563e-21)
(0.3187 -0.01993 -5.611e-24)
(0.9197 -0.1121 0)
(0.5025 0.0666 -6.352e-20)
(0.9997 -0.002562 0)
(0.8328 -0.2313 -2.232e-21)
(0.205 -0.05982 0)
(0.8972 -0.06613 2.945e-22)
(0.8045 -0.06469 0)
(0.4464 -0.02093 -4.66e-20)
(1.002 -0.0008121 0)
(1.015 -0.01614 2.747e-21)
(0.9821 -0.04578 2.402e-20)
(1.028 0.01379 4.914e-21)
(0.9997 -0.002425 1.333e-20)
(1.08 -0.1438 -2.882e-20)
(0.1281 -0.05976 5.094e-21)
(0.925 -0.1129 -4.107e-21)
(0.7638 -0.1052 2.444e-21)
(0.9995 -0.002997 0)
(0.1029 -0.03014 2.181e-22)
(0.9309 -0.1088 2.163e-21)
(1.005 0.01154 0)
(0.9055 -0.1089 -9.737e-22)
(0.9953 -0.0004066 0)
(0.3075 -0.1115 2.453e-20)
(-0.4741 0.7803 -6.938e-22)
(1.527 -0.2049 -1.211e-22)
(1.541 -0.1357 0)
(0.6281 -0.04106 -5.469e-23)
(0.9735 -0.01774 5.346e-21)
(0.6398 -0.1672 0)
(0.6621 -0.03528 -2.209e-20)
(0.831 -0.0691 0)
(-0.0004849 -0.01192 4.644e-23)
(0.8472 -0.1118 -5.578e-22)
(1.579 2.18 -7.002e-21)
(1.415 -0.05591 -1.734e-20)
(0.8516 -0.1332 -7.19e-21)
(0.5156 -0.108 2.73e-23)
(0.3799 -0.07233 0)
(1.004 0.01489 0)
(1.316 -0.2197 2.439e-20)
(0.655 -0.2045 0)
(2.074 0.3888 5.566e-22)
(0.003221 -0.01224 -1.756e-23)
(0.6272 -0.1018 0)
(1.002 -0.0007657 0)
(1.023 -0.1017 1.272e-20)
(0.01888 -0.005504 -5.171e-24)
(0.6958 -0.1606 -6.732e-21)
(0.6101 -0.03015 2.279e-20)
(1.89 0.1645 0)
(-0.2309 0.2676 -1.554e-21)
(1.98 0.2419 -2.037e-21)
(0.6118 0.06966 9.012e-21)
(1.159 -0.2732 -2.663e-21)
(0.01959 -0.006532 1.064e-22)
(0.996 -0.1986 1.89e-21)
(0.5361 -0.04215 -2.885e-22)
(1.038 0.05824 -1.533e-20)
(0.9062 -0.128 0)
(1.004 3.732e-05 0)
(0.9964 3.042e-05 0)
(1.456 -0.2171 5.891e-21)
(1.089 0.02497 3.946e-21)
(1.54 -0.1912 1.049e-20)
(0.9332 -0.1512 6.765e-21)
(0.2584 1.341 0)
(0.9435 -0.08837 8.807e-21)
(1.04 -0.05585 -2.269e-20)
(2.142 0.798 8.107e-21)
(0.7979 -0.1737 4.298e-21)
(1.015 -0.01454 5.51e-20)
(1.027 -0.2024 -1.665e-22)
(0.3299 -0.09408 -3.813e-22)
(1.04 -0.0538 3.309e-20)
(0.7863 -0.1806 -8.802e-21)
(0.00219 -0.0009127 -3.495e-21)
(0.02816 -0.03447 0)
(0.8325 -0.1565 0)
(-0.3643 0.6059 -3.418e-21)
(1.314 -0.254 0)
(0.07923 -0.02469 0)
(0.9856 0.005391 5.405e-20)
(1.549 -0.1693 5.831e-21)
(0.8149 -0.1839 2.417e-21)
(1.004 -0.01285 0)
(0.7569 -0.1857 4.132e-21)
(0.9654 -0.2602 0)
(1.05 -0.2572 -2.545e-21)
(0.9946 -0.0003106 4.361e-21)
(0.9752 -0.02297 2.942e-21)
(1.051 -0.2065 0)
(0.238 -0.01953 -2.467e-23)
(0.6081 -0.1618 -1.402e-20)
(0.003259 0.0004802 0)
(1.116 -0.2959 3.483e-21)
(0.4302 -0.1418 0)
(0.8098 -0.1699 -8.676e-22)
(-0.01284 0.004635 0)
(1.687 -0.1164 1.995e-21)
(0.9961 2.614e-05 6.59e-23)
(0.1836 -0.09705 0)
(1.631 0.3598 -3.236e-20)
(1.004 3.428e-05 0)
(0.4905 -0.1235 4.369e-22)
(-0.008301 0.002605 -3.727e-22)
(1.169 -0.2398 -7.287e-21)
(1.951 0.1223 -6.75e-21)
(0.9634 -0.06458 -1.824e-21)
(0.8902 -0.1261 -1.688e-21)
(-0.01588 0.005708 -6.219e-25)
(0.2843 -0.02765 4.297e-23)
(0.9551 -0.09868 0)
(1.039 0.04422 -3.976e-20)
(0.996 0.01015 6.39e-21)
(0.8472 -0.1508 0)
(0.3798 -0.09228 -4.733e-21)
(0.2896 -0.0844 -3.11e-21)
(0.8299 -0.1902 0)
(0.4475 1.677 1.731e-20)
(0.4792 -0.1966 -4.123e-21)
(0.763 -0.01479 -2.648e-22)
(1.331 0.009168 -4.112e-20)
(0.484 -0.1969 -4.088e-21)
(1.109 -0.08689 4.9e-20)
(1.076 -0.06855 0)
(1.008 -0.001817 0)
(0.6636 -0.1733 1.525e-22)
(-0.005465 -0.01785 2.81e-24)
(1.374 -0.2518 -1.424e-20)
(0.7556 -0.2062 0)
(1.093 -0.2934 0)
(0.9915 0.009113 -3.107e-20)
(0.9682 0.02291 2.493e-20)
(0.0236 -0.007759 0)
(0.7801 -0.112 3.437e-20)
(0.0667 -0.01969 0)
(0.9382 -0.1214 0)
(0.05306 -0.01699 -2.604e-22)
(0.6581 -0.1622 -3.552e-22)
(1.495 -0.1647 -3.109e-21)
(1.781 0.009134 -1.829e-21)
(1.663 -0.1353 -1.095e-20)
(0.3725 -0.05604 1.337e-21)
(1.513 -0.1869 -8.291e-21)
(0.8696 -0.06526 -2.559e-22)
(0.4208 -0.1208 4.076e-21)
(0.9276 -0.1079 5.058e-21)
(0.8943 -0.2199 1.88e-21)
(0.7429 1.921 -8.334e-21)
(0.1363 -0.04207 -2.773e-23)
(-0.004784 -0.01642 -1.575e-23)
(-0.01479 0.005195 0)
(1.081 -0.2915 0)
(1.007 -0.00302 0)
(1.005 -0.005411 4.547e-20)
(0.9558 -0.2522 1.919e-21)
(0.2313 -0.06344 0)
(0.879 -0.1247 -2.08e-20)
(1.006 3.148e-05 0)
(0.3763 -0.1162 -1.609e-20)
(1.195 -0.3024 3.751e-21)
(0.9526 -0.07513 7.916e-21)
(0.08881 -0.02683 0)
(1.466 -0.1804 -1.937e-20)
(0.3666 -0.109 -4.373e-21)
(1.737 0.9172 -4.04e-20)
(0.9999 0.001463 -2.175e-20)
(0.857 -0.1222 0)
(0.9541 -0.06322 4.349e-21)
(0.5148 -0.2 0)
(0.7773 -0.05927 0)
(0.05131 -0.01397 -2.084e-23)
(0.5061 -0.01271 3.56e-20)
(1.292 -0.2245 4.691e-20)
(1.035 -0.1839 0)
(0.9546 -0.08696 2.613e-22)
(0.9602 -0.07847 0)
(0.9773 -0.2248 0)
(0.3862 -0.1314 1.762e-20)
(0.9454 -0.1073 -1.612e-21)
(0.1985 -0.05878 0)
(0.4491 -0.1914 -5.383e-21)
(1.008 -0.0173 -2.054e-21)
(0.1033 -0.03905 0)
(-0.01435 0.005087 0)
(1.006 -0.241 0)
(1.492 -0.2207 1.404e-20)
(-0.3824 0.6688 -3.663e-21)
(1.012 0.02522 -5.869e-21)
(0.2222 -0.05464 4.087e-21)
(0.3636 -0.07074 0)
(0.9972 -0.000361 0)
(0.9968 -0.0001005 -2.964e-20)
(1.554 -0.1714 1.609e-24)
(1.276 -0.2945 1.408e-20)
(-0.01107 0.004048 3.821e-22)
(-0.001125 -0.01707 -1.893e-23)
(0.9059 -0.1277 7.753e-22)
(0.5513 -0.1948 0)
(0.1812 -0.05495 -2.501e-21)
(0.8662 -0.1213 0)
(0.9124 -0.1059 0)
(0.9709 -0.02295 -5.892e-20)
(0.1923 -0.06147 -4.34e-21)
(0.2607 -0.07867 0)
(0.2272 -0.06875 -2.326e-21)
(0.8262 -0.1508 0)
(-0.0107 0.003274 -5.449e-23)
(0.4301 -0.1219 -2.585e-21)
(0.9989 -0.001889 -1.707e-21)
(0.381 -0.05246 0)
(0.05328 -0.01566 7.762e-24)
(0.9975 -0.000818 -1.114e-19)
(1.465 -0.2109 -3.646e-21)
(0.9975 -0.0003907 -1.191e-20)
(0.9855 0.001103 5.038e-20)
(0.9153 -0.1178 -1.956e-21)
(0.8581 -0.09555 0)
(0.5238 -0.05192 -2.828e-20)
(0.9955 -0.002273 1.133e-20)
(0.9039 -0.1078 1.124e-22)
(1.007 0.006919 0)
(2.095 0.8002 0)
(0.8725 -0.08772 -2.734e-20)
(1.012 -0.1902 1.319e-21)
(0.9346 -0.1013 3.071e-21)
(0.8718 -0.1689 5.534e-22)
(0.9257 -0.1334 0)
(0.341 -0.09944 9.02e-21)
(0.9401 -0.1007 -3.822e-21)
(1 -0.005863 1.146e-20)
(0.9657 -0.0438 -6.985e-20)
(1.382 -0.248 7.179e-21)
(0.8619 -0.1564 -1.618e-21)
(0.1044 -0.03178 -9.358e-23)
(0.2521 -0.07685 0)
(0.6085 -0.04598 6.066e-25)
(0.2024 -0.06421 -1.681e-21)
(0.08635 -0.02563 -1.819e-20)
(1.49 -0.2282 1.277e-20)
(0.731 -0.1974 0)
(1.889 0.04016 -1.479e-20)
(0.9421 -0.09812 1.733e-22)
(0.7489 -0.09086 0)
(1.112 0.7521 -1.446e-20)
(1.006 -0.2014 0)
(1.003 -0.01342 9.945e-21)
(1.096 -0.2147 1.122e-20)
(0.01405 -0.007819 -5.339e-23)
(0.825 -0.1387 0)
(0.9986 2.481e-05 1.755e-22)
(0.03842 0.02093 8.167e-20)
(1.162 -0.2956 0)
(0.9567 -0.08994 -1.735e-22)
(0.7247 -0.1877 1.625e-21)
(1.526 -0.1916 -1.004e-21)
(0.9221 -0.1047 5.226e-21)
(0.7609 -0.1654 0)
(1.169 -0.2803 7.554e-21)
(0.9564 -0.08999 -5.2e-22)
(0.0274 -0.007592 1.819e-24)
(0.7555 -0.2016 -5.822e-21)
(-0.0008027 -0.01225 -4.926e-23)
(0.9975 -0.0008792 0)
(0.9626 -0.07382 1.312e-21)
(1.15 -0.214 0)
(0.9726 -0.01459 0)
(1.198 -0.2474 0)
(1.409 -0.1472 1.404e-21)
(0.9964 -6.125e-06 4.791e-21)
(0.8114 -0.1531 1.033e-20)
(0.007134 -0.002488 0)
(0.9479 -0.04291 0)
(1.146 0.7401 5.353e-20)
(1.325 -0.246 0)
(0.01787 -0.02583 0)
(0.8879 -0.105 2.171e-20)
(1.007 4.855e-05 -2.945e-22)
(1.056 -0.2437 -1.287e-22)
(0.6198 -0.1746 -2.484e-22)
(1.016 -0.007842 4.928e-20)
(1.204 0.6261 -4.414e-20)
(1.14 0.07275 2.075e-20)
(1.184 -0.3029 5.584e-21)
(0.8052 -0.2058 -4.669e-21)
(0.8715 -0.1393 4.676e-21)
(1.043 -0.05187 0)
(-0.006298 0.001422 2.424e-23)
(-0.01717 0.006212 -6.293e-22)
(0.8513 -0.1783 -2.615e-22)
(0.9112 -0.1413 2.251e-21)
(1.065 -0.2813 -1.964e-21)
(0.5363 -0.04413 0)
(0.9983 2.593e-06 -1.529e-22)
(0.9592 -0.09792 -1.282e-21)
(1.009 0.008747 1.081e-21)
(0.8999 -0.2488 0)
(0.3028 -0.06186 -1.525e-20)
(1.404 -0.2451 0)
(0.7259 -0.1878 1.461e-20)
(-0.002966 -0.007738 2.312e-23)
(0.6554 -0.1089 0)
(0.9994 0.006091 -5.659e-21)
(-0.01163 0.004004 0)
(0.235 -0.07136 0)
(0.3958 -0.1099 3.112e-21)
(0.9587 -0.08351 -1.588e-21)
(2.154 0.5988 0)
(1.142 -0.2824 -5.811e-21)
(0.9845 -0.1764 2.637e-22)
(0.7677 -0.05931 0)
(0.9127 -0.1219 0)
(0.856 0.1367 -9.869e-20)
(0.1539 -0.009019 -2.595e-22)
(0.1684 -0.04834 1.713e-22)
(0.9479 -0.07133 0)
(0.8345 -0.1733 -3.217e-21)
(0.9103 -0.1332 0)
(0.1172 -0.002997 -7.129e-20)
(-0.001805 -0.02511 -6.15e-22)
(0.02861 -0.009604 4.163e-23)
(0.8783 -0.142 9.486e-22)
(0.3872 -0.1167 0)
(1.547 -0.1335 0)
(0.9311 -0.1119 -1.345e-21)
(0.9492 -0.09605 5.891e-22)
(1.162 -0.2422 0)
(0.01117 -0.003389 0)
(0.9417 -0.07031 -6.21e-21)
(0.8198 -0.1675 -4.85e-21)
(0.9223 -0.08082 0)
(0.8902 -0.1495 1.516e-21)
(0.9935 4.676e-05 0)
(1.004 -0.001253 1.621e-19)
(1.432 -0.2008 -1.611e-20)
(0.489 -0.03356 -8.007e-23)
(0.7024 -0.1893 1.413e-21)
(1.002 -0.02925 7.315e-21)
(0.2862 -0.05833 -4.937e-21)
(0.04725 -0.01523 2.191e-22)
(0.9949 0.01201 -1.935e-20)
(1.88 0.2747 0)
(0.9179 -0.1204 4.439e-22)
(1.506 -0.1559 0)
(-0.002668 -0.01522 0)
(0.7104 -0.1641 -1.236e-20)
(0.1397 -0.04115 1.273e-22)
(-0.00237 0.0007244 0)
(1.029 -0.2029 -1.267e-22)
(0.03828 -0.01352 1.633e-21)
(1.046 -0.2735 3.979e-21)
(0.9265 -0.1126 0)
(0.941 -0.09898 7.294e-21)
(0.9263 -0.132 6.208e-22)