/*--------------------------------*- C++ -*----------------------------------*\
| =========                 |                                                 |
| \\      /  F ield         | OpenFOAM: The Open Source CFD Toolbox           |
|  \\    /   O peration     | Version:  v2012                                 |
|   \\  /    A nd           | Website:  www.openfoam.com                      |
|    \\/     M anipulation  |                                                 |
\*---------------------------------------------------------------------------*/
FoamFile
{
    version     2.0;
    format      ascii;
    class       volScalarField;
    location    "5";
    object      p;
}
// * * * * * * * * * * * * * * * * * * * * * * * * * * * * * * * * * * * * * //

dimensions      [0 2 -2 0 0 0 0];


internalField   nonuniform List<scalar> 
118995
(
-0.3693
1.656
0.5977
0.4668
0.3951
-0.03108
0.6209
-0.1937
1.873
1.045
1.527
0.01635
1.506
1.062
2.051
2.06
-0.2216
1.834
-0.2299
-0.2296
1.027
-0.3801
-0.3819
-0.3973
-0.2665
0.2431
-0.2509
-0.3085
-0.2325
-0.3835
-0.2416
0.6403
0.01662
-0.2418
-0.3796
-0.05762
-0.2849
-0.118
-0.06102
-0.2512
-0.2979
-0.06783
0.0541
-0.2703
-0.2386
-0.2796
-0.2619
-0.186
-0.05768
-0.1115
-0.2766
-0.272
0.8619
-0.07892
-0.08141
-0.2567
0.005825
0.2287
-0.0623
-0.2443
-0.2782
-0.2095
-0.2704
-0.03516
0.01282
-0.304
-0.3976
0.04701
0.6118
-0.1841
-0.2756
0.9937
0.2331
2.069
0.7673
-0.2379
0.7588
-0.3131
-0.2747
-0.2186
-0.2692
-0.2559
0.2324
-0.2865
0.1567
0.07609
0.1132
-0.1978
-0.3002
-0.2793
0.05487
-0.116
0.02144
0.03193
-0.03247
0.1921
-0.2944
0.01536
1.074
-0.08916
0.04848
-0.2216
0.8775
0.2019
0.253
0.2196
-0.2551
-0.2258
0.08154
0.06125
0.169
-0.2719
0.0528
-0.08498
-0.207
-0.0336
-0.2954
-0.0859
-0.1075
0.001862
-0.05852
0.09171
0.1348
-0.03398
0.1842
-0.1189
0.006688
0.0002089
6.881e-05
0.1987
0.02134
0.0006378
-0.2445
-0.07352
0.0002651
0.0002188
-0.05226
-0.3088
-0.01182
0.002013
0.09111
0.01606
-0.03235
-0.2918
-0.06921
-0.373
-0.2519
0.2592
-0.276
0.003909
0.05405
0.09025
1.715
-0.2183
-0.277
0.6071
-0.2019
-0.08273
0.005994
-0.242
0.3684
-0.5454
-0.04919
0.1006
0.07691
0.1489
-0.1539
-0.1901
0.3265
-0.2525
1.094
-0.2819
0.5681
-0.2144
0.02203
0.01441
-0.09704
-0.2217
-0.2484
0.1728
0.636
-0.2825
-0.04658
1.054
-0.2835
-0.1441
0.133
0.01234
-0.1963
0.07176
0.3633
0.01551
-0.2787
-0.2944
0.05082
-0.3768
-0.241
0.0111
0.1934
1.796
-0.1465
-0.03572
-0.1898
-0.1979
0.07134
-0.1079
-0.1997
-0.06139
-0.1705
-0.2847
-0.1285
0.3304
0.02681
0.6657
-0.06272
1.828
-0.008491
0.09698
-0.1173
1.302
1.051
-0.1273
0.02764
-0.2489
-0.2636
0.7632
-0.2707
-0.251
-0.05731
0.638
0.1587
0.006432
-0.2492
-0.05509
0.3717
0.576
-0.007918
-0.283
-0.1135
-0.1323
0.4962
0.6145
0.3843
0.0571
-0.1122
-0.05436
0.07989
-0.05811
-0.1277
0.01705
-0.2872
0.3295
0.02153
-0.24
-0.2084
-0.1626
0.02783
0.00395
-0.1962
0.01156
0.08589
0.002081
-0.2705
-0.07527
-0.04944
0.4615
-0.1524
-0.05669
-0.2305
-0.3081
-0.1265
0.5993
0.2234
-0.2473
-0.09181
-0.138
0.2114
-0.1655
-0.2539
0.3893
-0.2723
0.3391
-0.2889
-0.2447
0.8126
1.998
-0.02641
0.001154
-0.2646
-0.1353
0.04794
0.01365
0.9354
0.02494
-0.2438
0.07285
-0.2348
-0.2373
-0.03959
-0.02383
-0.1993
-0.08088
-0.378
0.6459
-0.2784
-0.207
0.004349
0.3662
-0.2324
-0.1383
-0.09857
-0.2109
0.0007942
0.0008296
-0.2728
-0.2007
-0.2791
0.0008189
0.0008465
0.6269
-0.1987
0.02444
-0.2216
0.0005457
-0.1548
-0.1103
-0.0181
-0.2779
0.9155
0.09427
0.001233
0.148
0.0839
-0.1563
0.006363
0.1066
0.7757
-0.2587
-0.2287
0.3352
0.04667
-0.259
-0.2534
0.0793
0.02663
0.1335
0.08138
0.0007454
0.002083
-0.1327
0.1612
-0.1393
0.2074
-0.07523
0.01346
-0.2023
0.008862
-0.2759
0.2647
-0.04162
-0.08336
-0.002549
0.2183
-0.05086
0.7651
0.07913
-0.2919
-0.09571
-0.1447
0.001983
-0.05621
-0.2474
0.1455
-0.2269
-0.2443
0.03706
0.1153
0.01722
-0.2609
0.4473
-0.192
0.1728
-0.1415
0.7648
-0.1363
-0.3034
-0.06691
-0.2316
-0.1426
-0.03978
-0.06869
-0.2763
-0.1208
0.08821
0.5843
-0.2192
-0.1557
0.6693
-0.07484
0.01218
0.0591
0.01092
-0.02999
0.09482
-0.0005135
-0.2532
-0.2247
-0.1194
-0.1356
0.1362
-0.07443
0.0006885
0.02572
-0.1512
-0.1456
-0.2106
0.1451
-0.1936
0.1305
0.0005004
-0.06283
0.01257
-0.1065
-0.2254
-0.4024
0.02301
1.784
-0.2558
-0.09803
0.01068
-0.07168
0.09909
0.07661
-0.2374
-0.2096
0.02719
-0.2455
-0.07071
-0.0127
0.3382
-0.3156
0.02709
-0.01247
-0.06949
0.005128
-0.06779
-0.1118
1.119
-0.1215
0.3339
0.1237
-0.2325
0.00192
0.1593
0.003986
-0.1373
-0.1919
-0.04491
0.01707
-0.1179
-0.2432
0.5896
-0.2178
-0.1997
0.1403
0.05248
-0.1225
0.03821
0.06189
0.001828
0.4068
-0.07508
0.7444
-0.2528
0.02225
-0.2009
0.0529
0.02737
-0.02649
-0.06201
-0.2922
0.06984
-0.2363
-0.2078
-0.04073
0.02349
0.1474
0.01461
-0.2029
0.1074
-0.1889
0.000553
-0.2107
0.6628
0.02707
-0.2939
0.02703
0.08397
0.382
-0.06728
0.01766
-0.2492
-0.2284
-0.2685
0.4552
-0.02765
0.06303
0.09273
-0.2766
-0.1553
-0.2328
-0.2372
-0.1923
-0.2894
0.1886
0.01124
0.000676
0.0006858
-0.2683
-0.1895
0.6652
0.0006995
0.01438
-0.2562
-0.008512
-0.253
-0.08573
-0.1448
-0.07611
-0.2386
-0.2345
0.005074
0.1693
-0.1425
-0.2214
0.1591
-0.2643
-0.2214
0.001265
0.02797
0.0012
-0.2687
1.923
-0.3684
-0.2381
0.3321
0.2755
-0.2843
0.0451
0.9493
-0.1962
0.001743
0.08168
0.04529
0.0005535
-0.004593
-0.2544
-0.2024
-0.08947
-0.2521
0.1133
-0.1154
0.003686
0.01382
0.2653
0.000434
1.269
-0.04889
-0.04588
0.8212
-0.1116
0.3636
0.05976
-0.06397
-0.03704
-0.08957
0.02059
-0.02483
0.01307
-0.2879
0.008429
0.0258
-0.1207
-0.2822
-0.272
-0.04542
0.1635
0.02214
-0.1033
-0.01189
-0.2182
-0.2367
-0.1927
-0.2533
0.01974
2.068
-0.1184
-0.07155
-0.1558
-0.2177
-0.2249
0.4882
-0.06578
-0.1507
1.658
0.008772
-0.228
-0.1887
0.6503
0.002439
0.1777
-0.2052
0.2437
-0.0114
0.02763
-0.03547
-0.123
0.05204
0.5396
-0.1017
-0.009009
0.06063
-0.1299
-0.2973
-0.255
0.3129
0.00218
0.0133
0.002388
0.03624
0.09878
-0.2039
-0.2029
-0.1718
-0.2704
-0.2043
-0.2409
-0.008822
0.01785
0.6264
-0.1175
0.04148
0.0231
0.4494
0.002245
0.1974
0.2704
1.735
-0.1578
-0.1141
-0.003651
-0.09203
1.84
0.1454
0.3796
0.0005159
-0.08436
0.0004859
0.5261
-0.1408
-0.04525
-0.2981
0.07239
0.2083
0.1567
-0.3001
-0.1423
-0.2405
-0.003963
-0.296
0.3846
0.09658
0.0832
-0.1051
-0.1601
-0.1641
0.1813
0.07831
0.5993
-0.1556
-0.2576
-0.1639
-0.1496
-0.09953
0.02896
-0.1593
-0.07414
0.005331
0.5619
0.3529
0.1396
-0.2547
0.2215
-0.07359
0.03782
0.000472
-0.1136
0.1502
0.002661
-0.2618
-0.2422
-0.2345
0.0155
-0.1054
1.696
0.5816
-0.2345
-0.193
-0.07986
-0.09465
0.5666
0.0007625
0.0104
-0.2743
-0.2496
-0.116
-0.0004941
-0.0317
0.453
0.02206
-0.2667
0.2331
0.09595
0.02555
-0.2702
0.08149
0.065
0.01371
0.3889
1.027
-0.2079
-0.31
0.00373
-0.2631
0.2022
0.03973
0.0009241
2.928e-05
-1.637e-05
-0.05821
-0.1165
-0.01219
0.1135
-0.1896
-0.0527
-0.07208
0.3833
1.416
-0.2726
0.002638
-0.2127
-0.1832
0.01541
0.9772
0.5667
0.2002
0.04183
0.1607
-0.2355
-0.06213
-0.2466
0.01064
-0.1048
0.0004977
-0.04804
0.6505
-0.2644
0.00782
0.01826
0.4608
0.739
-0.2039
-0.2117
-0.2315
-0.09168
-0.2479
0.0296
0.002581
-0.0445
-0.2396
-0.2392
-0.1219
0.06353
-0.1987
-0.08718
-0.08171
-0.2432
0.1176
0.3325
0.8551
0.05685
-0.08684
-0.2278
0.0315
-0.2179
0.01339
-0.1872
0.0009137
1.711
0.2218
-0.2995
-0.1286
1.418
0.02019
0.09105
-0.1642
-0.2792
-0.2006
-0.2404
0.05373
0.05294
0.3449
0.7733
-0.2644
0.6716
-0.2339
-0.07029
0.008547
-0.2556
-0.21
-0.2287
-0.1691
-0.2233
-0.08367
-0.2607
-0.1984
0.0002812
2.017
0.7819
0.000481
-0.125
0.5316
-0.1207
0.1752
-0.1127
0.02003
-0.2826
0.08131
0.007348
-0.1321
-0.02002
0.908
-0.1977
0.05913
0.1182
-0.118
-0.2713
0.4169
-0.2661
0.08992
-0.06455
0.002037
-0.2088
-0.05039
0.022
-0.287
0.01391
-0.1196
-0.1364
0.0003275
-0.06496
0.5761
-0.004225
0.02779
-0.2106
0.65
0.0004357
0.0004977
-0.2261
-0.2228
-0.1397
0.08015
1.433
-0.03605
0.2134
1.432
-0.2509
-0.1084
-0.08756
0.3996
-0.1286
-0.2444
-0.2571
-0.2042
0.01446
0.001828
4.311e-06
-3.599e-05
0.719
-0.1419
-0.06359
-0.04989
-0.3032
-0.03261
-0.2486
0.1867
0.02815
0.2624
-0.2965
0.1301
-0.08472
0.1285
-0.1709
-0.1205
-0.2395
-0.3067
-0.1141
-0.3086
-0.03393
-0.1183
-0.01125
-0.003386
-0.2282
0.1504
0.1742
-0.017
-0.08728
0.0004339
-0.08362
-0.1677
-0.06839
0.1748
-0.2337
-0.122
-0.2399
0.2234
-0.011
0.0204
-0.2085
-0.06206
-0.2095
-0.2666
-0.2866
0.2569
-0.1339
-0.183
-0.05294
0.2471
0.002999
0.05514
-0.2411
-0.2844
-0.2678
0.1764
-0.08691
0.09924
-0.2732
0.1086
0.3945
-0.08565
-0.2243
-0.268
-0.2017
-0.2019
-0.001969
-0.2618
-0.2119
-0.2167
-0.06705
0.01589
0.002215
-0.214
-0.29
0.5405
0.09199
0.001075
-0.1222
-0.1433
-0.2201
-0.1356
-0.1123
-0.1115
0.003626
0.3031
-0.301
-0.2122
-0.2161
-0.0785
0.02563
-0.1982
0.00207
-0.2987
-0.2113
0.06806
-0.1965
-0.02975
-0.2675
1.232
0.3319
0.1176
-0.2415
-0.1189
0.06212
-0.257
0.0002116
-0.01749
0.6958
-0.01773
-0.2759
-0.2023
0.523
0.2575
0.5624
-0.05528
0.06938
-0.2465
-0.1652
0.001399
-0.1356
0.1533
0.1241
0.009596
-0.1124
0.01633
0.126
1.532
-0.1334
-0.2719
-0.248
0.002244
-0.0359
0.1645
-0.2774
-0.2398
-0.2907
-0.01814
-0.2116
0.1902
0.01948
-0.2661
-0.1967
0.1778
0.1243
0.1774
0.02381
0.3157
0.1
0.1323
-0.0372
-0.2762
-0.2173
-0.1117
-0.2394
-0.2266
0.03559
0.3572
-0.2249
0.04258
-0.2555
-0.1162
-0.2656
0.8168
0.03323
0.001403
-0.264
0.2664
1.602
-0.2187
-0.02864
-0.2837
-0.08903
-0.3639
0.05734
-0.2851
-0.08409
-0.2546
-0.2632
-0.1449
-0.2342
0.0009971
-0.2921
-0.2624
-0.1632
-0.161
-0.2163
-0.2974
1.45
1.094
-0.08937
-0.2899
-0.1464
0.005273
0.1454
-0.2065
-0.238
0.09448
-0.1682
-0.2833
-0.2023
0.07079
-0.1078
0.499
0.1513
-0.09841
0.0006368
0.05758
0.2926
-0.1187
-0.2269
0.02227
0.3899
-0.222
0.00334
-0.2625
0.01256
-0.3036
-0.05729
-0.1477
-0.2364
-0.197
-0.2578
0.002499
-0.09428
0.001698
-0.2226
-0.1221
-0.05397
0.2365
2.054
0.1694
-0.2602
-0.2095
0.1029
-0.1427
-0.09352
0.02134
0.5511
-0.07194
0.002693
-0.094
-0.2993
-0.08095
-0.2046
-0.2158
-0.146
-0.179
-0.2019
-0.2416
0.1268
-0.1229
0.2409
0.01503
0.5857
-0.1992
-0.0927
1.7
-0.228
-0.09694
-0.268
0.08989
-0.05546
1.624
-0.3158
-0.2333
-0.2537
-0.1938
-0.2135
-0.1263
-0.276
-0.0759
0.3972
-0.01328
-0.2196
-0.2102
0.2887
-0.1229
-0.2085
0.02711
0.04392
0.1291
-0.124
-0.0131
-0.2181
0.1347
0.03583
0.005596
-0.01383
-0.1292
-0.04884
0.0007836
-0.1658
-0.2201
-0.1232
-0.2596
0.07464
5.095e-07
-4.357e-05
-0.03177
0.08427
-0.1159
0.08991
0.0714
-0.1605
-0.2016
-0.2164
-0.2617
0.3972
-0.1156
0.0009945
-0.08664
0.01153
-0.322
-0.2956
-0.07945
0.08216
-0.2447
-0.1691
-0.2385
0.001798
-0.1969
-0.2353
-0.3089
-0.2725
0.3361
-0.2251
0.3036
0.0004375
0.02165
-0.2646
-0.285
-0.1853
0.02125
0.2192
0.09024
0.1918
-0.2506
-0.1401
0.07375
-0.2534
-0.2781
-0.1917
-0.2017
0.01047
-0.01526
-0.04784
-0.06876
-0.1099
0.06655
0.2364
-0.2844
-0.1967
-0.1067
-0.27
-0.1274
0.0134
0.04776
0.04411
0.2247
-0.1997
-0.1348
-0.2439
-0.1267
-0.1294
-0.0117
0.6495
-0.02239
0.2277
-0.08583
-0.1107
0.1019
0.0002434
0.00024
0.02379
-0.1402
-0.2124
-0.1401
0.1463
-0.2851
-0.2867
0.0002844
-4.95e-05
1.233
-0.2052
0.00199
0.2855
-0.2278
-0.2874
0.001409
-0.2742
0.2739
0.001468
-0.1337
0.0181
0.5949
0.08548
1.547
-0.2556
0.4945
-0.1287
0.006116
-0.2094
0.0294
-0.01843
1.71
-0.2394
-0.2552
0.002936
-0.1371
0.00333
-0.2283
-0.2542
-0.213
-0.06228
-0.1521
0.04164
0.0996
-0.2488
-0.113
0.06673
0.7493
-0.2628
0.02618
-0.1326
0.7377
0.02093
0.1351
-0.26
-0.295
-0.2726
-0.1583
-0.2567
-0.3075
-0.2027
0.391
-0.06236
-0.08952
0.02721
-0.09787
-0.2566
0.1162
-0.3008
-0.2357
-0.1933
0.1751
-0.1646
-0.1141
-0.09871
0.5927
-0.06128
0.03377
0.0008502
-0.2621
-0.1221
0.2671
-0.1234
-0.1338
-0.1329
0.03639
-0.2928
0.169
0.5982
-0.1205
-0.2098
-0.2033
-0.01254
-0.02297
-0.08253
-0.002576
0.02347
-0.1165
0.02444
-0.01568
-0.2282
-0.1113
0.262
-0.2313
0.02494
0.5545
-0.2854
0.001009
0.02011
0.2098
0.002254
-0.1347
0.02136
0.3654
1.496
0.4579
0.003887
-0.2808
0.09385
-0.2722
0.107
-0.06626
-0.2057
0.0402
-0.2501
-0.2371
-0.2345
0.00272
-0.0001007
0.266
0.02827
-0.2318
0.2006
0.2542
0.51
-0.08323
-0.2991
0.5595
-0.2323
-0.2166
-0.1142
-0.2645
-0.109
0.04526
0.04571
0.4187
-0.2553
0.8262
0.0002035
-0.2126
0.2484
0.003806
0.02771
0.02467
-0.1228
0.01119
0.1195
-0.161
-0.0791
0.02505
-0.1052
-0.044
-0.08933
-0.1852
-0.2044
0.1396
0.02978
0.02745
-0.2064
-0.2068
0.1652
-0.1316
-0.2813
0.0388
0.05482
-0.1846
0.05272
0.9195
-0.2954
0.04831
0.6222
-0.09091
0.4641
0.3816
-0.236
0.00254
0.4416
1.434
-0.1985
-0.2021
-0.2902
0.4763
-0.1387
-0.1602
0.0007258
-0.1362
-0.2375
0.7112
-0.1592
-0.3016
0.07658
0.7254
0.08928
0.1299
0.5483
1.083
-0.08109
0.0007869
-0.1039
-0.2905
0.06695
-0.2346
1.196
-0.2511
0.0115
-0.05354
-0.137
0.2345
-0.2301
1.831
-0.06255
-0.06861
0.5941
-0.2032
0.06282
0.244
0.2799
-0.254
-0.01337
1.849
0.1003
0.03294
0.01212
0.1389
0.1462
-0.1692
-0.3102
-0.1354
-0.00085
0.2339
0.8286
-0.2229
0.06818
-0.2456
0.5256
0.04624
0.00239
1.651
0.1358
0.002307
-0.1117
0.2357
0.0145
0.02063
-0.2204
-0.2446
-0.2787
-0.1816
0.01628
-0.291
0.901
-0.2276
-0.1778
0.09303
0.8277
-0.3065
-0.2591
-0.1686
-0.04703
0.02684
0.2989
-0.2051
-0.2114
-0.2941
0.2636
0.001911
-0.1011
0.3586
0.9357
-0.1171
-0.2509
0.01794
0.07715
-0.05905
-0.1189
-0.2099
0.3069
0.09851
-0.2305
0.00102
-0.2898
-0.2455
0.1716
-0.01223
-0.1172
-0.2559
-0.2601
0.1946
-0.05197
-0.05035
-0.2773
-0.01571
-0.1963
-0.1131
0.002052
-0.02586
0.0287
-0.2427
-0.1646
-0.1426
0.02344
-0.2835
0.3301
-0.02668
-0.03854
-0.2017
-0.2077
-0.02266
-0.06361
-0.1175
0.1351
0.08599
-0.2636
0.8334
0.09802
-0.1139
0.02575
0.00325
-0.1812
0.3352
-0.07351
-0.2912
-0.1074
0.5825
0.9896
0.1173
0.1359
0.8414
0.1565
0.04123
-0.05647
0.02917
-0.1347
-0.142
-0.2909
1.825
0.05503
0.04118
-0.08816
0.03285
0.7442
0.3144
-0.2763
-0.2044
-0.196
0.3433
-0.102
0.2073
-0.0419
0.003789
-0.1385
-0.2451
-0.2661
0.01987
0.08046
0.01158
0.4772
-0.2653
-0.1499
0.37
-0.1254
0.1703
0.1207
0.02649
0.02581
0.07766
-0.1421
1.035
0.2115
-0.231
0.1476
0.01515
0.01427
-0.04755
-0.012
0.01663
-0.1929
-0.2382
-0.09513
0.785
0.6019
0.158
-0.01267
-0.2203
-0.1623
1.139
-0.2677
-0.001427
-0.2404
0.2585
-0.2059
-0.2626
-0.1999
0.9701
-0.0724
0.5649
-0.2082
-0.2907
-0.07092
-0.06952
0.1091
-0.09544
0.7099
0.06303
-0.03801
0.1651
-0.00338
0.04518
1.537
0.7046
-0.03024
0.2388
-0.2014
-0.1646
0.9588
0.09533
-0.03122
-0.1329
0.3049
-0.2428
0.001544
-0.1122
0.05897
-0.001074
2.006
-0.2242
-0.1181
-0.1659
0.001696
-0.1355
-0.07573
-0.265
0.08033
-0.2938
-0.1698
0.006978
-0.05963
0.6137
0.5933
-0.199
0.02463
1.791
-0.02279
-0.1528
-0.2566
0.6902
-0.2151
-0.1782
0.06554
-0.2414
0.02238
-0.2045
-0.1105
-0.2699
-0.1263
-0.226
0.04615
5.713e-07
5.059e-05
1.372
-0.247
-0.2872
-0.04676
-0.05825
0.02682
0.08613
0.1923
-0.1006
0.00254
0.0007904
1.71
0.01354
-0.2689
-0.2278
0.2944
-0.2315
0.1383
0.6744
0.003551
0.6795
-0.09127
-0.2619
0.02727
-0.07949
0.1038
-0.1278
-0.1224
-0.2
-0.08818
-0.1702
-0.2904
-0.2964
0.03857
0.01121
-0.1508
-0.09783
-0.3002
0.1738
-0.0824
-0.1357
0.2154
0.6722
0.2514
-0.1556
-0.042
-0.07969
0.1024
0.5032
-0.2357
0.01343
-0.01067
-0.2902
-0.1208
0.03538
0.07847
-0.08511
1.264
-0.1195
0.8381
0.1511
0.008321
-0.1964
0.02479
-0.1341
-0.2219
0.2588
0.003255
0.01296
0.00238
-0.1447
-0.03214
-0.2002
1.809
-0.2525
0.5308
0.06237
-0.1642
0.8565
-0.2252
-0.3019
1.148
-0.2106
0.2588
0.01507
0.4651
-0.2511
-0.06245
0.02525
-0.104
0.1007
0.2401
-0.005856
-0.002913
0.1018
0.426
-0.1699
0.9377
-0.0621
0.2289
-0.1406
0.002176
1.823
-0.08937
-0.1389
0.002195
0.001369
0.04595
0.383
0.004813
-0.2823
-0.1591
0.02665
-0.233
-0.2059
-0.1839
-0.07391
-0.09942
-0.04441
-0.2985
0.003513
-0.09976
-0.2372
-0.2349
0.003773
0.6923
0.1056
-0.09245
-0.2162
1.052
-0.2275
0.5194
-0.00173
0.03771
0.3716
0.02397
-0.01497
-0.09792
-0.1616
-0.1027
0.562
-0.1557
-0.08976
-0.05403
-0.1282
-0.004842
0.008117
0.001431
0.04489
-0.01085
-0.2621
-0.2385
0.2389
-0.1806
0.00232
-0.1434
-0.09993
-0.1924
0.1335
1.122
-0.1921
-0.2921
-0.00273
0.1084
-0.2077
0.02576
0.02482
0.1651
-0.2943
-0.2428
-0.1963
-0.1971
-0.172
0.01738
0.1172
0.04454
-0.1312
-0.2314
0.03422
0.4454
-0.274
-0.2708
1.397
-0.257
-0.1375
-0.05334
0.002368
2.075
0.4048
-0.2513
-0.2545
-0.2922
0.0008449
0.03489
-0.2293
-0.2
0.2437
0.002667
0.01558
-0.05642
-0.2259
0.09986
-0.1995
-0.2272
1.384
-0.2068
-0.141
0.002659
-0.2673
-0.1081
0.02492
1.427
0.6213
1.516
-0.06913
0.152
-0.2146
4.091e-05
7.263e-05
-0.2285
-0.1234
-0.05658
-0.08488
0.1604
-0.282
-0.03653
-0.06408
0.7327
0.05711
0.1533
0.03273
-0.1396
-0.04967
0.02409
0.02206
0.08184
-0.2972
-0.2436
0.3889
0.08232
-0.1988
0.1283
-0.2105
0.1
-0.09733
0.1868
-0.2405
-0.1029
-0.1729
0.003961
-0.1465
0.111
-0.2571
-0.2185
0.04282
-0.1491
0.09824
-0.08864
-0.2967
-0.1487
0.4506
0.1538
-0.2527
2.003
0.2099
-0.06478
0.1031
-0.1687
0.2093
-0.2811
0.05782
-0.2443
0.07503
-0.1788
0.1818
-0.08343
-0.2838
0.003119
-0.03332
-0.2718
-0.2999
-0.07719
0.4488
0.05424
-0.2551
0.1266
0.000539
-0.3208
-0.01193
-0.2393
-0.08506
0.05472
-0.1394
-0.01264
0.02073
-0.2778
0.0502
-0.3119
0.08577
-0.2582
-0.3215
-0.116
0.5451
1.646
-0.08
-0.3068
0.02505
0.3416
0.03772
-0.035
1.194
-0.06312
0.02562
-0.07611
-0.2698
-0.1109
-0.1248
0.0212
-0.2607
-0.2401
-0.2859
-0.2432
-0.05829
0.7287
-0.103
-0.1962
0.002003
-0.1904
-0.09081
-0.2891
-0.2329
-0.05264
0.07821
-0.04656
-0.1823
-0.002915
-0.2069
-0.04728
0.01125
0.025
0.1032
-0.122
-0.242
-0.2446
-0.006826
0.3362
-0.008561
-0.1382
-0.2713
-0.1244
0.1723
-0.1141
-0.2656
0.8462
0.577
-0.2553
-0.2422
-0.1221
-0.1637
-0.2703
0.0005345
-0.2853
-0.3073
-0.07188
0.424
0.5732
-0.06956
1.29
0.0007882
1.857
-0.2778
-0.2227
-0.2102
-0.08383
0.02665
-0.1197
-0.03
-0.1274
-0.2673
-0.2795
0.4312
-0.1207
0.09196
-0.2346
-0.271
0.004789
8.827e-05
-0.013
-0.07819
-0.3014
-0.05285
-0.1897
-0.1188
0.2151
-0.08764
-0.2055
0.2064
0.0789
-0.2649
0.2073
-0.197
0.003316
0.05286
-0.2672
-0.2927
-0.02295
-0.301
0.1265
-0.08447
-0.1491
0.02112
-0.07421
0.003007
-0.1638
-0.2811
0.3372
-0.2565
0.3524
-0.2843
0.04666
0.9068
-0.08744
0.1513
-0.1414
0.003024
0.04665
0.1554
0.04708
-0.2183
0.02514
-0.03137
0.009683
-0.2936
0.4407
-0.3607
0.3979
-0.02432
0.2739
-0.1778
-0.2466
-0.2436
-0.255
-0.1954
-0.0008243
-0.1973
0.9368
0.05591
-0.3725
-0.05881
0.1185
-0.2575
-0.1862
0.6459
0.8948
-0.02188
-0.09763
-0.0425
-0.2328
0.146
0.321
-0.2101
-0.1181
0.001804
0.09131
-0.007768
0.2271
-0.264
0.02076
0.17
0.2405
0.001153
-0.3053
0.7459
1.196
0.0003666
0.0004266
-5.861e-05
-0.06202
-0.1652
-0.2621
-0.1086
-0.02153
0.02525
1.739
-0.2719
-0.23
-0.09728
-0.02307
0.02823
-0.1206
-0.2844
-0.2527
-0.2402
-0.2531
0.003972
-0.0906
-0.04451
0.1647
-0.1596
-0.02632
0.02583
0.00249
-0.05139
0.002529
-0.2464
0.005322
0.1597
-0.1358
-0.2869
-0.03641
-0.2428
-0.1146
-0.2745
-0.09673
-0.2421
0.0096
-0.1784
-0.1331
-0.1409
-0.2937
-0.2974
-0.2586
0.5648
-0.1844
-0.164
0.2178
0.5991
-0.08956
-0.0141
-0.1195
-0.08379
1.707
-0.1132
0.002267
-0.1571
0.2356
-0.02615
0.2867
-0.1626
0.00826
-0.1168
0.01364
0.02224
-0.1171
-0.2469
0.509
-0.0428
-0.03595
-0.1709
-0.1662
0.002094
-0.2592
-0.106
-0.03245
-0.2595
-0.2855
0.2425
0.1276
0.7512
1.433
-0.1135
-0.3148
0.3051
0.05148
-0.2189
-0.3649
0.514
0.05026
-0.1445
0.1514
-0.1692
0.3457
-0.2186
-0.1017
0.02538
0.04789
0.007283
0.003106
-0.1918
-0.1239
-0.114
0.05732
0.2231
-0.2453
-0.2318
0.000132
7.698e-05
0.803
-0.1265
-0.1576
-0.2024
-0.1311
-0.2206
-0.2145
0.6509
0.01294
-0.2585
-0.07496
0.03206
-0.175
2.053
-0.0009776
-0.1925
-0.1618
0.8203
-0.04891
0.0002099
0.002505
-0.1064
1.062
0.001062
0.0009581
-0.1299
0.2732
0.08022
-0.08731
-0.2468
0.002096
0.004627
-0.01989
-0.2581
0.2724
-0.2638
-0.05635
0.04964
1.027
-0.06711
-0.2693
-0.1676
-0.2281
-0.1251
0.005711
-0.2177
-0.2953
-0.08303
-0.09439
0.2193
-0.1331
0.01737
-0.1516
0.2041
0.1264
-0.1383
-0.2742
0.003113
-0.03441
-0.1142
0.2249
0.04651
-0.1615
-0.1247
0.1723
0.406
-0.1062
0.1122
0.02131
-0.3071
0.003625
0.3328
-0.201
-0.238
0.099
-0.09569
-0.01173
-0.2376
-0.1996
0.3286
-0.2987
-0.3007
-0.09651
-0.1172
0.032
0.01499
-0.269
-0.167
-0.2713
-0.143
0.441
0.005355
-0.1175
0.01028
-0.2684
-0.1505
-0.2045
-0.1497
-0.0905
-0.2039
0.04488
-0.2339
0.5923
-0.03594
-0.1481
-0.1215
-0.2374
-0.1325
0.05261
0.001829
1.786
0.001534
0.6712
-0.1095
-0.1592
0.002453
0.659
0.2189
0.3171
-0.1444
-0.1321
-0.2455
-0.04458
-0.02275
-0.07088
-0.06691
-0.2224
-0.07269
-0.1181
-0.1624
-0.07885
1.858
-0.1397
-0.1988
-0.1411
-0.004043
0.0005094
-0.1016
0.2914
0.0134
1.315
-0.06951
0.02147
0.00171
0.05938
0.88
-0.2842
-0.1491
-0.1588
-0.06362
-0.09171
-0.1345
0.1555
-0.005892
-0.2904
-0.1343
0.2667
-0.2801
-0.2829
-0.1367
-0.2925
-0.2349
-0.2034
-0.2423
-0.2352
0.003384
0.001273
-0.06787
0.08718
0.03052
0.162
-0.09818
-0.2379
-0.2073
-0.3002
-0.004847
0.002585
0.2407
0.001257
0.001264
-0.2147
0.02209
-0.3047
-0.0807
0.02358
-0.1175
0.3209
-0.09224
0.28
-0.1415
-0.3077
0.03419
1.307
0.1077
0.6184
0.6299
1.261
0.1718
-0.2236
-0.1575
-0.155
0.03162
-0.2191
0.0656
-0.2212
-0.1881
-0.2807
0.06629
0.05072
-0.1319
-0.22
0.877
-0.2899
-0.139
0.001242
-0.1436
-0.004889
0.001421
0.02215
0.00134
-0.0983
0.03929
-0.2026
0.003228
-0.2816
-0.3076
0.005556
0.01325
-0.2423
-0.1054
0.01381
0.1735
-0.1322
-0.196
-0.05198
0.005522
0.04248
0.251
-0.164
0.1026
-0.259
0.6113
-0.29
-0.2476
0.0009048
0.0009732
0.04505
2.04
-0.2004
-0.2391
0.09633
-0.3024
-0.002707
-0.02828
-0.05862
0.07706
-0.002083
-0.2518
-0.159
-0.2682
-0.21
0.205
-0.04327
0.4696
-0.01726
-0.1127
0.05097
0.001237
-0.1215
-0.03729
-0.2308
-0.07689
1.242
0.411
0.01026
0.4788
0.1548
-0.04733
-0.09536
-0.0847
-0.1488
-0.2145
-0.2383
-0.3016
0.3202
0.6191
0.3209
0.03272
-0.2817
-0.2013
-0.05216
-0.1362
0.08595
-0.3211
-0.06616
-0.2377
-0.08602
0.02474
1.814
-0.1479
-0.07755
0.01779
-0.1337
0.05488
-0.22
-0.02395
-0.08976
0.8326
-0.2816
-0.04986
0.5068
-0.07806
0.0004852
0.0004417
-0.1113
-0.2328
0.4495
0.02287
0.03077
-0.2233
-0.2476
-0.08031
0.03417
-0.1619
-0.2054
-0.03739
0.02592
-0.1482
-0.02437
0.02492
-0.2527
-0.05705
-0.037
1.687
0.7085
-0.2299
0.01499
0.1627
-0.197
0.01485
-0.09679
-0.0002175
-0.1617
-0.2749
0.0008668
1.667
0.3332
-0.1178
0.1604
0.1233
0.01815
1.483
-0.2234
-0.1038
-0.2897
-0.2458
0.05099
-0.101
-0.1429
-0.3181
-0.007012
0.5983
0.2851
-0.1607
-0.28
0.3035
0.118
-0.003592
0.02524
0.07013
0.01531
0.02631
0.223
-0.3086
-0.2099
-0.222
-0.2692
-0.2414
-0.2053
0.5517
-0.2007
-0.1963
-0.2354
0.5908
0.007934
-0.06276
0.001973
0.02461
-0.001166
0.004371
0.03819
-0.07182
-0.1563
0.1967
1.792
0.1058
-0.2073
0.259
-0.1966
-0.05676
0.009069
-0.09834
0.0007676
-0.09248
0.1194
-0.2379
-0.07877
-0.04317
-0.05505
-0.07583
0.001748
0.03485
0.2053
0.1483
0.001434
-0.04789
-0.2106
-0.2678
0.4167
0.02472
0.04703
-0.03204
0.02472
0.4789
-0.2605
0.4547
-0.2971
-0.03935
0.07749
-0.1482
-0.03994
-0.04558
0.3031
-0.2784
0.0106
0.002022
0.03198
0.002154
0.2516
-0.2991
0.602
-0.219
0.04823
0.2347
0.4203
0.1281
0.02055
0.001903
0.8194
0.03266
-0.2934
0.02373
-0.2222
-0.2576
0.3435
1.428
0.07943
1.171
-0.2478
-0.1417
-0.2535
-0.2966
0.0006252
-0.1343
-0.2783
-0.004356
0.1537
-0.2504
-0.3071
-0.1284
-0.2587
-0.04679
-0.1096
-0.04854
-0.005989
-0.2822
0.144
-0.1969
0.021
0.2979
-0.2082
0.02161
0.002648
-0.06786
0.4146
-0.2198
-0.2845
-0.04449
0.03184
0.08516
0.01553
0.04863
-0.2119
-0.2626
-0.02767
-0.2326
0.03428
-0.1721
-0.2826
-0.2828
-0.1832
-0.2799
-0.2414
0.1027
-0.1763
-0.3
1.161
-0.2836
-0.2825
0.04592
-0.1379
-0.07147
-0.1589
-0.2495
-0.2811
0.3147
-0.1148
-0.2911
0.29
0.005622
0.02835
-0.06765
1.159
-0.2881
0.2546
-0.07321
-0.1376
-0.2487
-0.004789
0.001255
0.0764
-0.1475
-0.0641
-0.08191
0.7812
0.02541
-0.2993
0.0764
-0.07844
-0.1108
0.02437
-0.2823
0.01813
-0.06379
-0.2593
-0.04469
0.2703
-0.1732
-0.2577
-0.2065
-0.0695
-0.2696
-0.1261
0.2489
-0.1127
0.02
1.69
-0.2762
-0.1841
0.144
0.9593
-0.05319
0.1156
-0.2279
-0.292
-0.2331
-0.2006
0.06548
-0.1223
0.8069
0.9947
-0.2269
0.2722
0.02822
-0.03918
0.5785
0.7595
-0.1255
-0.1349
0.124
0.1121
-0.07536
-0.2304
-0.1422
-0.06612
0.05886
-0.2306
0.0276
0.005555
-0.2961
-0.178
-0.1666
0.2247
-0.1997
0.002238
-0.2057
-0.3037
0.3695
1.213
0.6237
0.8931
0.1812
0.9236
0.1656
0.02107
-0.1318
-0.2631
0.02953
0.4633
-0.3179
0.14
-0.1994
0.1158
-0.1468
-0.2233
-0.1064
0.1406
-0.08844
-0.2316
-0.2193
0.006873
0.03664
-0.2227
-0.04637
9.923e-05
7.165e-05
-0.107
0.1498
-0.1393
-0.3004
0.4615
-0.2705
-0.2627
-0.2946
-0.3002
-0.2465
-0.239
-0.08165
0.02214
-0.302
-0.141
-0.1018
0.02261
0.004088
-0.1967
0.08945
-0.1522
0.01029
-0.131
0.8015
0.01366
0.2544
-0.1512
-0.225
-0.2817
-0.1009
-0.2168
-0.1271
-0.2041
0.2289
1.251
-0.09426
1.627
-0.2591
-0.3054
1.446
0.001663
-0.3002
-0.249
0.03106
-0.01337
0.03908
-0.1079
-0.2564
-0.09991
0.0424
1.382
-0.09403
-0.1306
0.09522
-0.01742
-0.2855
0.001514
0.04917
-0.2245
-0.1959
-0.2057
-0.03817
-0.2543
-0.1589
-0.1619
0.2053
0.831
-0.168
-0.2722
0.04047
0.259
0.0007805
-0.2021
-0.2844
-0.2506
-0.05263
-0.2969
-0.08494
-0.04316
-0.1219
0.002168
-0.1273
-0.1981
-0.2936
0.002017
1.058
-0.2519
-0.2635
0.16
-0.215
-0.2483
-0.004963
0.04481
0.4779
0.705
-0.2429
-0.2121
0.001404
0.1658
1.089
-0.2075
0.1166
-0.0953
-0.3067
-0.221
0.2605
0.6642
-0.2451
-0.2457
0.01763
-0.1283
-0.2726
-0.2537
-0.01107
-0.1066
0.01312
-0.1057
0.02194
0.1074
0.0004474
-0.1121
-0.07855
-0.227
-0.1468
0.001852
0.06122
-0.18
0.04993
-0.06606
0.01314
-0.1297
0.1677
-0.137
0.03798
0.0002948
-0.2095
0.3812
0.3232
0.6054
-0.0005273
-0.1853
-0.01529
0.001727
-0.2644
-0.02905
0.4328
-0.3128
0.002629
-0.2704
-0.1018
-0.1511
-0.0571
0.003222
-0.1068
-0.2606
-0.005739
0.1663
-0.02039
-0.2969
-0.1898
-0.05714
0.03771
0.09979
-0.2788
0.1501
-0.1084
-0.224
-0.2841
-0.1672
-0.3005
-0.2858
0.23
-0.2438
-0.1155
-0.2891
-0.1712
0.001403
0.1239
0.0002785
0.000229
0.1581
0.7261
0.4463
0.159
-0.2217
0.004474
0.01692
-0.2905
-0.07735
1.299
-0.1104
-0.2267
0.02443
0.06863
-0.2693
-0.09555
0.01179
0.1118
-0.1072
-0.008616
-0.1695
0.1295
-0.2649
-0.07993
-0.1603
1.334
-0.04703
0.2388
1.946
-0.2763
0.1255
-0.2826
-0.1946
-0.02217
-0.2185
0.07442
-0.1076
0.09287
-0.1386
-0.2534
-0.1394
-0.129
0.02767
-0.01641
-0.08943
-0.1107
-0.1046
-0.06906
-0.001138
0.5437
-0.293
-0.2375
-0.1283
-0.02276
0.5415
0.4485
0.001907
-0.1437
0.09927
-0.2312
-0.01723
-0.2506
-0.05561
0.00224
-0.2118
1.164
0.0203
-0.107
0.8029
-0.2024
0.03921
-0.193
-0.2654
-0.1942
1.642
-0.05225
-0.1504
-0.01958
1.018
-0.02981
-0.1181
-0.07591
-0.1249
0.04595
0.001788
1.315
-0.1332
0.001402
-0.2898
-0.06914
-0.37
1.51
0.1252
-0.05209
-0.1627
0.00156
-0.1958
0.02742
-0.2728
-0.303
-0.04357
-0.1482
-0.03389
0.902
-0.01303
0.1781
0.02365
0.2432
-0.2804
-0.0104
0.04829
-0.07539
-0.3027
0.7817
-0.269
-0.003384
0.4652
-0.1442
-0.1536
0.0383
1.17
-0.04295
-0.1202
0.2089
-0.2265
0.01312
-0.1087
-0.1851
-0.01613
-0.3081
-0.2735
-0.152
-0.2592
0.408
-0.2586
0.4897
-0.01553
-0.1346
-0.2763
-0.3109
-0.2303
-0.2837
-0.2741
0.009283
-0.2873
-0.007568
0.8967
-0.04841
0.1752
-0.00474
-0.01025
0.4228
-0.1267
1.131
-0.1598
-0.06449
0.4562
0.02315
-0.2971
-0.2257
-0.1797
0.1993
-0.09709
-0.2762
0.001485
0.03972
-0.1347
-0.2269
0.001813
-0.1067
-0.1216
0.02638
0.02389
0.003556
-0.1964
-0.2755
-0.2816
1.392
0.001985
-0.2221
-0.2016
0.06763
-0.1309
0.02651
-0.01261
-0.2011
0.02499
0.3176
-0.04884
0.1041
0.001159
-0.02037
0.00405
-0.2016
-0.09656
0.193
-0.06487
-0.006787
0.07392
-0.2183
-0.2904
-0.005775
0.07722
-0.0504
-0.2087
0.007798
0.01557
-0.1726
0.08139
0.002295
0.1837
-0.2952
-0.2599
-0.1753
0.001337
0.003951
-0.2424
-0.233
0.4402
0.3576
0.1275
-0.07446
-0.1205
-0.1226
-0.09014
-0.04453
0.1441
0.1255
0.1085
0.143
-0.1255
1.365
0.05266
-0.1362
0.03242
-0.2768
0.06881
0.9861
-0.197
-0.2878
0.419
-0.2857
9.412e-05
-0.1569
-0.123
0.01155
-0.09692
-0.3594
-0.1245
0.3443
-0.05675
-0.188
0.1875
0.0255
-0.2566
0.00283
0.1982
0.006848
0.0003226
0.0002801
0.1857
-0.124
-0.1003
1.29
-0.2032
-0.1908
-0.06729
1.467
0.0465
-0.2837
-0.08896
-0.1455
-0.274
-0.2796
0.03308
-0.0809
-0.2453
-0.01411
0.00145
0.1542
-0.07534
-0.2089
-0.1205
0.007792
-0.03901
0.02468
0.321
1.136
-0.1488
-0.04474
0.101
0.002409
-0.2873
0.01639
0.03402
0.04807
0.04403
-0.1225
-0.2121
0.01078
-0.02189
-0.08424
-0.03227
-0.01982
-0.2861
-0.2615
-0.01963
-0.2355
-0.2387
-0.07359
-0.2025
0.0005015
-0.03214
0.06713
-0.1285
-0.01625
-0.09932
0.2724
0.03607
0.4611
0.02365
0.3938
-0.1172
0.01991
-0.1301
-0.1471
-0.2617
-0.238
-0.1979
0.152
0.002421
-0.1434
-0.2569
0.02322
-0.1474
-0.2
0.2308
-0.2568
-0.2484
0.1446
0.2177
0.09739
-0.2525
0.9276
0.1065
0.1275
0.002528
0.687
0.4002
0.7409
-0.2393
-0.08795
-0.2752
-0.08967
-0.1705
0.2834
0.0004542
0.3129
-0.08685
0.1739
-0.153
-0.2705
-0.003126
0.009161
0.001467
-0.2532
-0.004638
-0.2856
-0.1542
-0.1048
0.06988
-0.06846
0.1818
-0.3064
0.02214
0.02301
-0.1404
-0.006935
-0.2293
0.4999
1.223
0.1359
0.0001015
-0.1167
-0.2115
-0.09884
-0.0456
-0.2901
-0.2976
-0.007986
-0.01457
-0.2701
-0.296
-0.1342
2.02
-0.2204
-0.2121
-0.1384
-0.275
-0.08817
-0.2043
0.005098
-0.006083
-0.2651
0.0006793
0.5594
-0.1961
-0.1498
0.02117
-0.01651
-0.2196
-0.2317
-0.2766
-0.2946
-0.04612
-0.1242
0.3832
-0.2254
-0.2005
0.1239
0.4773
0.09874
-0.1548
-0.2935
-0.02825
-0.2661
-0.003811
-0.2161
-0.2785
0.5954
-0.06896
1.25
-0.25
-0.09123
-0.05842
-0.1678
-0.2071
-0.1873
-0.07454
0.1702
0.5716
-0.02385
0.1728
-0.1162
0.1909
0.04879
0.004512
0.4936
0.08384
0.1491
0.01632
-0.1258
-0.07436
-0.1069
-0.273
0.4736
0.0007749
-0.2972
-0.1628
-0.2292
0.001976
-0.2165
-0.2544
-0.1247
-0.1118
0.0196
0.1788
0.1409
-0.272
-0.04416
0.0002194
0.03543
-0.2226
-0.09462
-0.1049
0.01168
-0.05549
0.01782
0.001685
-0.1964
-0.022
-0.1332
0.00224
0.0242
-0.01007
-0.2054
0.004101
1.791
-0.04259
-0.1311
-0.2347
0.1599
0.2494
0.08576
0.002893
0.04311
0.00397
-0.0332
-0.05327
-0.2463
-0.25
-0.2391
0.1615
0.6555
-0.01158
0.001708
-0.2922
-0.04021
-0.06439
-0.2708
-0.2977
-0.1216
0.068
-0.2474
-0.2062
-0.2915
0.02851
-0.2144
0.3724
-0.367
0.5707
-0.2802
-0.1993
-0.1021
-0.1911
0.03532
-0.01763
0.7089
-0.1753
-0.1514
-0.1291
-0.128
0.007442
-0.06178
-0.203
-0.2462
-0.2657
0.2279
0.06921
0.1037
-0.01896
-0.01737
-0.1322
0.001227
-0.2067
0.6929
0.02772
-0.2976
-0.3038
-0.09414
0.2891
0.2485
-0.2683
0.0003259
-0.2491
-0.2863
-0.1216
-0.2824
0.1084
-0.2793
0.5317
-0.1266