/*--------------------------------*- C++ -*----------------------------------*\
| =========                 |                                                 |
| \\      /  F ield         | OpenFOAM: The Open Source CFD Toolbox           |
|  \\    /   O peration     | Version:  v2012                                 |
|   \\  /    A nd           | Website:  www.openfoam.com                      |
|    \\/     M anipulation  |                                                 |
\*---------------------------------------------------------------------------*/
FoamFile
{
    version     2.0;
    format      ascii;
    class       surfaceScalarField;
    location    "5";
    object      phi;
}
// * * * * * * * * * * * * * * * * * * * * * * * * * * * * * * * * * * * * * //

dimensions      [0 3 -1 0 0 0 0];
oriented        oriented;


internalField   nonuniform List<scalar> 
176786
(
9.461e-09
-9.462e-09
2.11e-06
-2.11e-06
7.953e-06
-7.953e-06
-1.063e-05
1.063e-05
-3.141e-06
3.141e-06
-1.264e-05
1.264e-05
-6.397e-06
6.397e-06
4.879e-07
-4.879e-07
3.38e-06
-3.38e-06
-3.979e-06
3.979e-06
-3.572e-06
3.572e-06
2.302e-05
-2.302e-05
-3.272e-06
3.272e-06
-4.644e-06
4.644e-06
-6.759e-07
6.759e-07
5.818e-07
-5.818e-07
3.833e-07
-3.833e-07
3.03e-06
-3.03e-06
3.191e-07
-3.191e-07
1.829e-07
-1.829e-07
5.235e-06
-5.235e-06
3.909e-08
-3.909e-08
3.909e-08
-5.599e-08
5.599e-08
-1.829e-07
1.829e-07
-0.0002713
0.0003199
-4.864e-05
-9.569e-07
6.915e-07
2.654e-07
0.0005324
-0.001062
0.0005293
-6.237e-06
6.972e-05
-6.348e-05
-6.282e-08
2.372e-08
0.000933
-0.0009462
1.32e-05
-0.0001841
0.000284
-9.986e-05
0.6283
-0.2244
-0.4039
-0.0002639
0.0002437
2.013e-05
5.997e-08
-2.089e-08
-9.985e-05
-0.0002047
0.0003045
3.697e-05
1.143e-05
-4.84e-05
-0.001931
-0.001602
0.003533
0.0001488
-0.0004933
0.0003445
0.004718
-0.004459
-0.000259
0.0001593
0.0004906
-0.0006499
-0.002733
0.000412
0.002321
-0.09429
-0.00806
0.1024
-0.0003534
0.0002043
0.0001492
-0.0001919
0.000691
-0.000499
0.0004125
-0.0001127
-0.0002997
0.0003464
-0.0001979
-0.0001486
-0.0003698
-1.418e-05
0.000384
-0.0009489
-0.001784
6.341e-05
-0.0006166
0.0005532
-0.0003636
0.0002101
0.0001535
-0.0001036
-0.0002498
-0.004029
0.0005288
0.0035
-0.0004969
0.0007711
-0.0002742
0.01914
-0.007711
-0.01143
0.0002086
0.0001378
0.2701
0.6652
-0.9353
-0.002818
0.003705
-0.0008869
-0.0001707
0.0005681
-0.0003974
-9.569e-07
-0.0001065
-0.000257
-0.00422
0.004986
-0.0007665
0.002204
-0.002501
0.0002974
0.000307
0.0001674
-0.0004744
-0.4053
0.1264
0.2789
0.000524
-0.0003378
-0.0001862
-2.532e-07
2.532e-07
-0.004268
0.005682
-0.001415
-6.65e-05
0.0005962
-0.0005297
-3.334e-05
-0.0003364
0.0002879
0.0001245
-0.003251
0.002487
0.0007642
0.005835
-0.01224
0.00641
2.055e-06
-7.186e-06
5.131e-06
-0.0001972
6.73e-05
0.0001299
-0.0001575
-0.0001063
-6.628e-05
-0.000131
0.0008911
-0.0007318
8.693e-05
-2.161e-05
-6.532e-05
-9.887e-06
-7.404e-05
8.393e-05
0.000464
-0.001173
0.0007092
0.003978
0.0007397
-0.005757
0.01159
-0.0004415
0.0001206
0.0003209
0.03044
-0.03004
-0.0004015
-0.04153
0.05505
-0.01352
-0.001496
0.001962
-0.0004663
-0.01723
0.00649
0.01074
0.0003749
0.0001491
-0.0013
0.001867
-0.0005663
-0.1209
0.02661
-0.001046
0.001945
-0.0008994
0.1216
-0.3335
0.2118
0.0009912
-0.00093
-6.125e-05
-0.04315
4.032e-05
0.04311
0.0003941
-0.0006964
0.0003023
-0.0003175
-0.000124
0.08964
-0.2497
0.1601
-0.001462
0.001548
-8.616e-05
0.002216
-0.002555
0.0003397
-0.115
-0.009076
0.124
0.0003687
-0.0003982
2.947e-05
-0.006155
0.005408
0.0007466
2.2e-05
0.0004579
-0.0004799
4.352e-06
-0.0002756
0.01859
-0.01836
-0.000225
0.000331
9.836e-05
-0.0004294
7.163e-05
-0.003338
0.003266
0.0009147
-0.009618
0.008704
-0.006151
-0.0666
0.07275
0.03368
-0.003245
0.0002437
-0.0005103
0.0002665
0.001673
0.0005554
-0.002228
0.0002086
0.002007
0.0001655
-0.0003549
0.0001894
0.0006533
-0.0003463
-0.0006853
0.0005835
0.0001018
-0.0001413
0.00047
-0.0003287
0.01406
-0.01856
0.004498
0.09569
-1.023
0.9276
0.0007495
-0.03924
0.03849
0.0001537
-0.0001457
-7.992e-06
0.004701
-0.006318
0.001617
-0.002336
0.002213
0.0001231
-0.04195
0.01625
0.0257
0.002271
-0.01004
0.007766
0.3539
-0.2198
-0.1341
-1.37
0.1566
1.213
-1.441
0.1658
1.275
0.0004161
-0.2118
0.3335
1.676
-1.407
-0.2684
0.0001496
-0.0005109
0.0003613
-0.0008488
-0.0003873
0.001236
0.1462
-1.516
-1.529
0.08851
-0.003443
0.00531
-0.001867
-0.0004163
0.0009488
-0.008873
0.01853
-0.009653
-0.9679
1.064
0.0007349
-0.0006916
-4.33e-05
0.516
0.1122
-0.001239
-0.001097
-0.0008532
0.0007868
6.646e-05
-0.03344
0.07223
-0.03879
2.579e-06
2.468e-06
-5.047e-06
-0.0007695
0.001188
-0.0004187
-0.0004989
-0.002319
6.636e-05
-0.001367
-1.037
0.9283
0.1084
-0.005975
0.001708
1.12e-05
-1.12e-05
-4.503e-05
6.07e-05
-1.567e-05
-9.148e-05
8.159e-05
0.0005203
0.001683
0.001323
-0.001565
0.0002422
0.0002325
-0.0008791
0.0006466
0.0001639
-0.0006608
1.317
-1.047
-0.0002305
1.879e-05
0.0002117
0.003857
-0.001827
-0.00203
-2.573e-07
2.573e-07
0.0002926
0.001457
-0.00175
0.0003951
0.0008025
-0.001198
-0.02002
-0.01568
0.0357
-0.04041
0.04041
-4.609e-06
0.0003569
0.0002233
-0.0005802
-0.0002989
-0.0003791
0.0006781
0.0001188
0.0002992
-0.000418
0.0006283
-0.0006667
3.844e-05
-0.0002914
-0.001171
0.0004917
-0.0005394
4.773e-05
-2.068e-05
0.0004244
-0.0004037
-0.003685
-0.0005343
-0.1404
0.002259
0.1382
-0.9952
0.4243
0.5709
0.02189
-0.002747
-0.008261
0.00274
0.005521
0.0005865
-0.0004535
-0.000133
-0.0002112
0.0005921
-0.0003809
0.0001487
-0.0003328
0.0007597
-0.0005884
-0.0001713
-0.003394
0.005383
-0.001989
-0.0004019
0.0002054
0.0001964
-0.0002082
0.0007044
-0.0004962
0.003258
-0.003473
0.0002156
0.0001086
4.764e-05
-0.0001562
0.387
0.03968
-0.4267
-0.0005117
-0.0004353
0.0009469
0.0157
0.05213
-0.06783
0.003141
0.0007164
0.2291
-0.1394
-0.002476
0.002394
8.198e-05
-0.0002751
-0.0005782
1.85e-05
0.001654
-5.032e-09
5.031e-09
0.0002439
-0.0004763
0.0002324
-0.249
0.3674
-0.1184
-0.000606
-9.035e-05
4.814e-05
-6.009e-05
1.195e-05
0.0004372
0.002821
-0.0002743
0.0006376
-0.0003632
-0.01339
-0.003842
-9.511e-05
0.0002579
-0.0001628
-0.002666
0.002745
-7.85e-05
-0.003944
0.002014
7.685e-05
9.354e-05
-0.0001704
0.05605
-0.0553
3.247e-06
-4.682e-05
4.357e-05
-0.0009236
0.001142
-0.0002188
6.808e-05
3.144e-05
-9.952e-05
-0.005889
0.004148
0.001741
-0.1329
0.03956
0.0933
-0.004204
-0.0006256
0.004829
0.0001833
-0.0004798
0.0002965
1.36e-05
-1.36e-05
0.3599
-0.1614
-0.1986
0.0008121
-0.003987
0.003174
0.002106
0.00637
-0.008476
-0.000575
-0.0002601
0.0008351
-0.0002554
-0.0001465
0.001348
-0.001366
1.866e-05
-0.3393
0.02008
0.3192
0.000307
0.0002795
-0.0001828
0.002622
-0.002439
-0.0009041
0.0008019
0.0001021
-0.0002326
0.0006388
-0.0004062
0.0004762
-4.051e-05
-0.0004357
-0.08039
-0.003681
0.08407
0.001318
-0.0006539
-0.0006641
-0.003135
0.00187
0.001265
0.3337
0.02015
0.001208
0.0004902
-0.001698
0.0007777
-0.00177
0.000992
0.01037
-0.01043
5.71e-05
-0.0004892
0.0001556
0.0003337
-0.002693
-0.004086
0.006779
0.000397
0.0003627
0.0005988
-0.0002529
-0.0003459
-0.000185
7.717e-05
0.0001079
5.131e-05
-0.0007227
0.0006714
-0.000775
0.0007085
-0.0002937
-0.0003572
0.0006508
0.0003306
0.001006
-0.001336
-0.0002457
-0.0002633
0.000509
0.0005889
-0.03403
0.01952
-0.06105
0.0472
-0.04661
0.0001613
0.001186
-0.9555
0.8013
0.1542
0.002116
-0.000279
-0.001837
0.005442
-0.007365
0.001923
0.01152
-0.006199
-0.005325
0.0007149
-0.0009068
-0.0009957
0.0009777
1.796e-05
0.0006772
-0.000509
-0.0001682
-0.474
0.1347
-0.5838
-0.09217
0.676
3.307e-06
1.536e-05
-1.867e-05
-0.3177
0.06872
0.0002912
-0.001081
0.0007898
1.3
-1.167
-0.1327
0.001087
-0.0006231
0.0001221
-0.0009709
0.001763
-0.002564
0.0008005
0.0003707
-1.745e-05
-0.0003533
0.000183
-0.000581
0.000398
-0.0003585
0.0005073
-0.001309
0.003749
-0.00244
0.0008121
-0.0006149
-0.0001972
0.0002629
-0.0001627
-0.0001002
0.0004654
-0.0007142
0.0002487
0.003969
0.01462
0.00263
-0.001422
-0.0004367
0.000222
0.0002147
-0.0003135
6.093e-05
0.0002525
0.001021
-0.0009348
-8.6e-05
-0.0001855
-0.0002132
0.0003986
0.000437
-7.086e-05
-0.0003661
-0.000523
0.0005614
-3.837e-05
-0.00162
0.001306
0.0003142
-0.0001061
0.0001116
-5.491e-06
0.0004471
-0.0004974
5.032e-05
-0.0003867
0.0005363
-0.004673
0.0006443
-2.367e-05
-7.535e-06
3.121e-05
-0.0001504
0.0001504
-0.7793
1.13
-0.3506
-0.004837
0.004206
0.0006311
0.001041
0.0002457
-0.001287
-0.1634
0.04848
-0.2685
0.2764
-0.00787
0.0003126
-0.001472
0.00116
0.001274
-0.001525
0.0002506
-0.0008658
-2.184e-05
0.0008877
-0.000574
-0.002092
0.001368
-0.0004433
-0.0009245
-3.896e-05
0.0009719
0.0008306
-0.0001323
-0.0006982
-0.0009222
0.0006197
0.0003025
0.000102
-0.0003664
0.0002644
-0.0004924
-0.0002167
0.000709
5.494e-08
0.0003561
0.0009618
-0.0008867
0.00121
-0.0003238
-2.094e-06
7.654e-08
2.018e-06
-0.1223
-0.4615
0.001695
0.00868
0.002252
-0.0002384
-0.002014
4.862e-05
-4.862e-05
0.0002578
-0.0003991
0.0007796
-0.0004506
-0.000329
1.537
-0.8143
-0.7231
1.481
-0.7564
-0.7241
0.001546
-0.001799
0.0002533
0.0009766
-0.0009958
1.912e-05
-0.002011
-0.0004649
0.6698
0.8676
0.6403
0.8402
-0.0009439
3.38e-05
0.0009101
-0.00439
0.004882
-0.0004918
-0.1504
0.009977
-0.004186
-0.004075
0.9078
0.7679
9.226e-05
-8.444e-05
-7.817e-06
0.0003837
0.0002151
0.04217
0.03526
-0.07743
-0.0002895
-0.0001632
0.0004527
-0.0008667
-0.002384
-0.003298
0.0008345
0.002464
-1.159
0.3798
-0.001426
0.002057
-0.0006309
-0.03101
0.01099
0.001978
-0.00114
-0.0008384
0.1538
-0.1103
-0.04351
-0.004078
0.00489
5.989e-05
0.0001325
-0.0001924
-0.001346
0.002284
-0.0009376
0.0007568
-0.002478
0.001721
-0.003313
-0.002576
-7.676e-05
-0.001031
0.001108
-0.002514
0.0002336
0.00228
0.000519
-8.199e-05
7.68e-05
7.689e-05
0.0005334
0.0004579
-0.00172
0.0002235
-0.008702
0.009616
-1.223
1.248
-0.02587
0.4421
0.8579
9.158e-05
-2.35e-05
-0.0002651
0.0003632
-9.816e-05
0.000146
-0.0001305
-1.55e-05
0.001252
-0.003719
0.002467
-0.0008281
-6.804e-05
0.0008961
-0.002336
0.001831
0.0005052
-0.0005094
-0.002608
0.003117
0.009973
0.001552
-0.0004647
-0.001796
0.00226
-0.001216
-0.004534
0.005751
0.01644
-0.05959
0.06951
-0.01635
-0.05316
0.635
-0.4471
-0.1879
-0.02402
-0.005615
0.02964
-0.0004308
0.0003309
-0.0008045
-9.954e-05
0.00213
-0.001404
-0.0007263
0.0007716
-0.00169
0.0009182
-0.0002571
-0.0001795
-0.0002032
0.0003862
-1.635
0.7209
0.9143
-0.005249
0.001856
0.001119
-0.001502
0.0003829
-0.0008492
0.00555
-0.0003155
0.0009997
-0.0006841
-0.00102
-0.0006096
0.00163
0.04999
0.1362
-0.1862
-0.001057
0.001158
-0.0001008
-0.3677
-0.5879
-0.002868
0.004486
-0.001618
0.001739
-0.001758
1.985e-05
-8.118e-05
-3.716e-05
0.0001183
0.0003773
-0.0005886
0.001532
9.361e-05
-0.001626
-0.001382
0.000196
0.001186
-0.0003057
-7.747e-06
0.0004681
0.000344
0.0004428
-0.0006135
0.0005625
-0.0005999
3.749e-05
-0.007365
0.01116
-0.003791
0.0008203
-0.0007665
-5.384e-05
0.05147
0.02076
-0.0003658
0.0006095
0.003251
-0.00216
-0.001091
-0.02977
-0.01355
0.04332
-0.0003826
-0.0001066
-0.0005919
0.001403
-0.0008108
0.0003224
0.0003548
-0.002978
0.0004468
0.002531
0.0009809
0.0004132
-0.001394
-0.3922
-0.01303
0.0003459
6.704e-05
-0.0004129
0.7283
-0.6145
-0.1138
-0.0004198
-0.0005023
-0.0003713
0.0004178
-4.655e-05
0.2902
0.1956
-0.4859
0.0005219
-9.416e-05
-0.0004277
0.0003725
-0.000366
-6.493e-06
-0.0005627
0.0004316
0.000131
-0.0001538
-3.125e-05
0.001662
-0.0008813
-0.0007809
-0.06891
0.0874
-0.01849
-1.019
-0.2032
-0.8481
0.8421
0.006059
5.056e-05
-0.0005571
0.0005065
0.004247
-0.007868
0.003621
0.0004655
0.0003141
-0.001283
-0.001622
0.002905
0.00039
-0.0001591
-0.000231
0.001369
0.0002929
0.809
0.5016
-1.311
0.0009494
-0.0009785
2.914e-05
0.045
0.342
-0.0006518
0.001065
-0.0004133
0.0002805
-0.000412
0.0001316
-4.003e-08
-2.132e-07
-0.8364
0.5756
0.2608
-0.0002274
0.0001402
8.721e-05
-0.003475
-0.001363
0.0003545
-0.0004833
0.0001288
0.504
0.2243
-0.001031
0.0005388
-0.02573
-0.02121
0.04694
0.001588
0.0005416
-0.002936
0.004518
-0.001583
-0.0006095
-0.0003862
0.04486
-0.3611
0.3163
-0.0003443
0.000641
-0.0002967
0.00143
-0.001137
-0.2622
0.07341
0.1888
0.0009981
-0.0006041
-0.000394
0.0005811
2.011e-05
-0.0006012
-0.2776
0.3224
-0.0008728
-0.001998
0.00287
0.0001111
-0.0001081
-2.935e-06
-1.061
0.4251
0.6359
0.001356
-0.001117
-0.0002393
-0.001788
0.0007423
-6.159e-05
-0.001408
0.00147
7.254e-05
0.0001903
0.0007686
0.0002295
0.001267
-0.001248
-1.964e-05
-0.0004279
0.0003197
0.0001082
-1.31
-0.3249
-0.04178
-0.0001747
-0.1276
-0.9091
-0.001626
0.002916
-0.00129
0.002801
-0.0005338
-0.002267
0.0005109
0.0003196
0.02823
0.1836
-0.2118
-0.0002979
-0.0002648
-5.617e-05
-0.0001744
-2.252e-05
2.252e-05
-0.00217
0.002836
-0.0006667
-0.0002162
0.0001079
0.0001084
-0.0007954
0.001195
-0.0003992
0.005249
-0.00101
-0.004239
0.0006385
-0.0002548
-0.0003838
0.1157
-0.1006
-0.01509
-0.07974
0.07359
-1.595
0.9464
0.6487
-0.0001189
-0.0004041
0.001796
-0.0008153
-0.003334
-0.00282
-0.003902
0.00357
0.0003314
-0.4952
0.364
0.1311
0.001656
-0.001896
0.0002402
-0.0003469
0.0007542
-0.0004074
-0.5573
0.3796
0.1777
-0.000114
-3.639e-05
-0.0005862
0.001364
-0.0002663
0.0009038
-0.0006375
0.0002425
0.0002095
-0.000452
-9.322e-05
8.698e-05
0.0002121
-0.0003461
0.000134
0.0001896
0.0006308
-0.1434
0.01052
-0.001469
4.311e-05
0.04146
-0.01674
-0.02472
0.0006344
-0.0004717
-0.0001627
0.001863
-0.0007293
-0.001134
-1.838e-05
-5.156e-05
6.994e-05
1.361
-0.5516
0.000507
-6.958e-05
-0.0004375
-0.006659
0.002455
-0.2638
-0.21
0.4738
0.0009095
0.001207
0.02791
-0.1164
0.08851
-0.00169
0.002077
-0.0003865
-0.001311
0.0009287
0.0003823
0.0009068
-8.699e-05
-0.0008199
0.001065
-0.001276
0.0002116
0.0003884
-0.0007987
0.0004103
0.006162
0.0004089
-0.006571
-0.00345
0.001802
0.001648
-0.001098
0.0002287
0.0008691
0.0002366
0.08417
-0.06847
-0.0001991
-0.003099
-0.00092
-0.0006998
0.0001293
-1.267e-05
-0.0001167
9.001e-05
-7.444e-05
-1.557e-05
-0.0007997
0.001819
-0.00102
0.0001414
-0.0001052
-3.626e-05
-0.0006088
1.124e-05
0.0005975
-0.0003414
0.0001275
0.0002139
-0.5193
0.4654
0.0539
0.8812
0.2006
-1.082
1.038
0.004982
-1.043
0.002313
-0.002496
-0.003319
0.003174
0.0001446
0.0002617
-0.0003123
5.054e-05
-0.3275
1.366
-0.929
-0.06624
-0.0006312
0.0009848
-0.0003537
0.000314
-0.0005996
0.0002856
-0.002938
0.0005581
0.00238
-0.0004331
-0.0003455
0.0007786
-0.0009119
0.0002067
0.0007052
-0.0633
-0.005611
0.0007209
-0.0007236
2.695e-06
-0.002731
0.001422
0.3392
-0.8072
0.468
-0.0004218
0.0001568
0.002314
-0.0007817
-0.0003274
8.108e-05
0.0002463
-0.005135
-0.002859
0.007994
0.001019
-0.0008665
-0.0001524
-0.003614
1.323
-0.8947
-0.428
0.006184
0.0002577
-0.006441
0.9121
0.4106
-0.001451
0.001995
-0.0005442
-1.806e-05
-5.398e-05
7.205e-05
-6.73e-06
-2.118e-06
8.848e-06
0.001272
9.584e-05
-6.058e-06
0.0002932
-0.0002872
0.01019
-0.007099
-0.003086
-2.093e-05
-0.0009027
-0.0003967
-0.0007561
0.001153
-0.0006955
0.002002
-0.001306
-0.0008186
-0.003571
-0.6757
-0.9194
0.004648
-0.04478
0.04013
-0.001427
0.002316
-0.0008899
-1.561
0.1519
1.409
-0.0009049
-0.0009473
0.001852
0.00071
-0.000379
0.0006819
-8.298e-05
-0.000599
-0.0001048
-0.0009103
0.001015
1.942e-05
0.0004568
0.000253
-0.0001444
0.0001328
-0.000123
-9.85e-06
1.35
-1.244
-0.1057
0.5807
-0.0387
-0.542
0.002177
-0.001469
-0.0007079
1.283
-0.4021
-0.0004167
0.0009239
-0.0005072
-0.007072
0.003629
0.0007866
-0.00055
7.525e-05
9.974e-05
-0.000175
0.0001077
0.0002255
-0.0003333
-4.964e-05
9.884e-05
-4.92e-05
0.000412
0.001632
-0.002044
2.963e-05
-2.963e-05
0.002736
0.03826
-0.041
0.0001612
-0.0004095
0.0002483
0.7259
-0.4472
-0.2787
-0.001117
0.001569
-0.0004527
-1.293
1.149
0.1434
0.001814
-0.00251
0.0006967
0.07621
0.01125
-0.08746
-0.8099
0.8124
-0.002459
0.0005947
4.38e-05
2.942e-05
0.0004623
-0.002757
0.00306
-0.0003034
0.002959
0.0006735
-0.003632
-0.002349
-0.0007862
-0.001385
-0.0009504
9.272e-05
4.378e-05
-0.0001365
-0.05875
-0.2034
-0.0004441
0.002572
-0.002128
-0.0002509
-0.0001771
-0.005762
0.00266
0.003103
-0.001351
0.001486
-0.0001354
0.1524
0.04238
-0.1948
-8.497e-06
1.055e-05
-4.772e-05
-0.0001604
0.0002081
-0.0003573
1.219e-05
0.0003451
0.0001144
0.0007996
-0.000914
-0.0005785
-0.0008971
0.001476
-0.0003719
4.448e-05
0.0006774
-0.0006261
0.0005995
0.0007569
-0.0002513
0.0006082
0.0001358
-0.0001352
-6.165e-07
-0.00618
0.0005881
0.005592
0.0001981
0.0001744
0.0006463
5.289e-05
-0.0006992
0.000257
4.755e-06
-0.4121
-0.517
0.9291
0.001107
-3.627e-05
-0.001071
0.001008
-0.001044
3.565e-05
0.0005616
-6.006e-05
-0.0005016
0.01171
-0.02058
-0.0003949
0.0002899
0.000105
-0.002788
0.006325
-0.003536
-0.002079
0.002167
-8.814e-05
-0.003147
-0.0001557
0.003303
-0.008306
0.005216
0.003091
-0.001704
0.01577
0.1561
0.2038
-0.001667
0.006252
-0.004585
0.0001825
-0.0006075
0.0004251
-0.0008702
-0.0003057
0.001176
0.003602
-0.002686
-0.0009157
-0.0005319
-0.0003011
0.000833
1.254
-1.423
0.169
0.6332
-0.05247
1.135
0.119
0.004796
0.02122
-0.02602
-0.00567
0.0007241
0.004946
-0.001593
0.002387
-0.0007945
0.000344
0.0002904
-4.928e-05
5.253e-05
0.0006537
-0.0005487
-0.000105
0.0001074
-9.563e-05
-1.175e-05
-0.0002602
0.000332
-7.182e-05
-0.0009865
-0.0007697
0.001756
-0.1994
0.4969
-0.2975
-0.001752
-0.00301
0.004762
5.866e-05
0.000917
-0.0009757
-0.000145
0.0005505
-0.0004055
-0.7091
-0.1273
0.0003083
0.00143
0.8617
-1.274
-0.006361
0.003214
0.003147
0.007168
0.003018
-0.0002985
0.0001245
0.000174
9.096e-05
3.837e-05
0.007956
-0.003225
-0.004731
0.1695
-0.04607
-0.1234
0.001033
-0.0016
0.0005666
-3.837e-05
1.376e-05
2.461e-05
0.0006233
0.0004491
-0.001072
-0.0008545
0.0003112
0.0005433
1.503
-0.5629
-0.9403
0.0001211
-0.0007769
0.0006558
-0.5793
-0.9817
0.002663
-0.002418
-0.0002452
2.426e-05
0.0001217
0.07613
-0.1182
0.04203
0.0002119
-0.0004898
0.0002778
-0.001501
0.001758
-0.000257
9.322e-05
0.000254
-0.0003472
0.002227
-0.004265
0.002037
-0.0003251
-0.0003602
0.0002523
-0.0001859
-6.643e-05
-0.001799
0.002024
-0.0002248
0.07642
0.09305
-0.000787
0.0001951
0.0005919
-0.0009269
0.0006332
0.001462
-0.001067
0.0004475
0.0002873
-0.0005931
0.00168
-0.001248
-0.0004323
-0.01662
-0.005385
0.02201
-9.884e-05
-0.0002426
-0.01516
0.01068
0.004486
0.001634
-0.000311
1.529e-05
7.697e-05
-0.002136
-0.0003773
1.657e-05
0.0001318
-0.0001484
0.001339
0.001144
-0.002483
-0.0006214
0.0006848
-0.0002528
-0.0001421
0.001669
-0.001864
0.0001953
-0.0001363
-0.0007071
0.0008434
-0.001492
0.002661
-0.001168
0.001199
-0.009505
-0.0005722
-0.0001003
0.0006725
-0.02007
-0.02033
-0.002647
0.003269
-0.0006217
-0.0002914
-0.0004591
0.0007505
-0.0003826
2.536e-05
-3.106e-05
3.106e-05
0.805
0.6983
0.0003732
0.0002826
-0.0006557
-0.005348
0.005891
-0.0005428
1.137
-0.4365
-0.7002
-0.002017
0.001311
0.0007054
0.0006213
-0.0007231
0.0001018
0.0004786
0.001773
0.0003768
-0.003125
0.002749
-0.0002977
-0.0002409
0.0005386
-0.0003119
4.171e-05
0.0002702
-2.525e-05
0.0003755
-0.0003502
0.0002657
0.0002409
-0.0005066
0.000184
0.0007927
-8.8e-05
0.001019
-0.0009309
0.0002744
0.00027
-0.0005444
-0.007413
0.0023
0.005113
-1.239
1.016
0.2229
0.09688
-0.07004
-0.02684
0.000498
-0.0007062
0.000289
-0.0008611
0.0005721
0.01045
-0.04897
0.03852
0.0434
-0.0435
9.882e-05
-0.0005626
0.0005143
4.829e-05
-0.0004704
-0.0006274
-0.5593
0.06413
-0.002591
-0.0008586
0.002712
-0.001459
-0.001253
0.001802
6.176e-05
-0.7706
-0.07756
0.0005918
-0.0001251
-0.0004666
-0.00845
-0.006714
0.0003245
0.0004246
-0.0007491
-0.8918
0.3709
0.521
-0.0008776
2.31e-05
-0.0004123
0.0009414
-0.0005291
-1.379e-05
9.595e-06
4.199e-06
0.0008387
-0.0007433
-9.547e-05
0.5742
0.7756
0.002181
0.0001725
-0.002353
0.002985
-0.001733
0.0003981
-5.227e-05
-1.288
1.144
0.1445
-1.101
-0.2937
1.394
-1.002
-0.297
1.299
0.001078
-0.0001288
8.884e-05
-0.0002057
0.0001169
0.003166
-0.005859
0.000213
-0.00127
5.805e-05
8.34e-05
-0.0177
0.09383
0.0002034
0.0001137
-0.0003171
-0.0007228
-0.0005882
-0.0001769
0.0001258
5.114e-05
-0.0008664
-0.001891
0.08991
0.06385
-0.0003108
0.0007951
-0.0004843
-0.0007428
0.0004439
-0.2215
-0.001042
0.0007326
0.0003099
0.0003799
-0.0004006
0.0002579
-0.000238
-1.983e-05
0.0006077
5.123e-07
-0.0006082
-0.006611
-0.00322
0.009831
8.205e-05
0.00062
-0.0007021
-0.0008812
0.0007459
0.0001353
-0.002872
-6.598e-05
-0.1712
0.02082
-0.0006634
0.0004178
1.569
-0.5936
-0.9753
-0.1172
0.03681
0.0005393
-0.0007431
0.0002039
0.0002534
-0.0005764
0.000323
-0.6507
0.3575
0.2932
0.01484
0.02275
-0.03759
5.9e-05
0.0003117
-0.0006482
0.0002422
0.000406
0.0002189
-0.000142
0.0006033
0.000405
-6.836e-05
8.517e-05
-1.681e-05
-0.006673
0.006264
0.0004089
0.002697
0.002131
-0.004828
9.441e-05
-0.0003463
0.0002519
0.9846
0.1521
0.008637
-0.004913
-0.003724
-0.001354
0.0004881
0.002338
0.001264
-0.000508
0.0002094
0.0002986
-0.001516
1.492e-05
5.815e-05
-3.305e-05
-2.51e-05
-9.28e-05
0.0004473
0.005253
0.003267
-0.00852
0.0003064
-0.001327
-0.0002062
0.0004022
-0.000196
-0.0008718
0.006314
-0.0004892
0.001203
-0.0007143
-0.003908
0.001085
0.002824
0.0008958
-0.0001033
-0.0007926
0.0009289
-0.001244
0.1417
-0.02596
-0.0006962
-0.0001931
0.0008892
-0.5816
-0.7109
-0.008469
0.01188
-0.00341
-0.3765
-0.912
2.159e-05
-6.662e-05
0.001008
-0.0003161
-0.000692
0.001483
-0.001167
-0.0003156
0.0001928
-2.43e-05
-0.0001685
-0.0001124
-6.45e-05
-0.1072
-0.2687
0.3759
-0.0001521
-0.001538
0.0002819
-0.0004673
0.00173
-0.00205
0.0003203
-2.144e-05
-0.0001331
0.0001545
2.222e-05
6.779e-05
0.001615
-0.001285
0.001093
-0.00149
-1.696e-05
-8.918e-05
-0.0006753
-0.0007069
0.0007981
-0.0004832
-0.0003149
-0.0003724
-0.002605
-0.0006288
0.0008032
-0.0001744
-0.0007624
0.001097
-0.0003347
-0.5188
0.8416
-0.3228
0.0005681
-0.000578
9.859e-06
4.877e-05
-0.0003367
0.000288
-8.595e-05
1.946e-06
8.4e-05
0.003677
0.0005581
-0.004235
-0.0001097
-0.0002393
0.000349
0.001537
0.003754
-0.005291
0.002341
-0.002623
0.0002819
-5.782e-06
-4.736e-08
5.83e-06
0.1604
0.8836
-1.044
6.373e-07
-1.644e-05
1.581e-05
0.0002763
0.0004116
-0.0006879
-0.2265
0.4751
-0.2485
8.513e-05
-0.0002884
0.0002033
-0.002788
0.001862
0.0009255
0.001079
-0.0008178
-0.0002615
0.0001688
-0.0001688
8.624e-05
-8.624e-05
0.0012
-0.0009789
-0.0002211
9.985e-05
-7.163e-05
-2.823e-05
0.0002359
-0.001637
0.001402
0.001045
0.0001368
-0.001182
-0.0001638
6.96e-05
9.417e-05
0.0003762
0.0004467
-0.0008229
0.0007762
-9.08e-05
-0.0006854
-0.0001398
0.0001125
2.731e-05
-0.02695
-0.09225
0.1192
-0.0005459
0.0009618
-0.0004158
-0.0009785
-0.0002702
0.001249
-5.258e-05
-0.0004741
0.0005267
0.003802
-0.005354
0.001552
-0.001552
0.001559
-6.332e-06
-0.004152
0.00546
-0.001308
0.0139
-0.004176
-0.009726
-1.39
0.9894
0.4005
-0.0006711
0.0007204
-4.934e-05
0.0006251
-0.0003856
-0.0002395
-0.1129
0.1597
-0.04683
-0.0007721
8.179e-05
0.0006903
-0.685
-0.2068
0.0007486
-0.0008966
0.000148
-7.759e-05
-8.618e-05
0.3309
-0.4012
0.0703
-0.0005831
0.0001024
0.0004807
0.002597
-0.003417
0.0008192
-0.1256
0.2149
-0.0893
-0.5547
0.1475
0.4072
-4.512e-05
3.075e-05
1.437e-05
-0.0005413
0.0007177
-0.0001764
1.038
0.3611
-1.399
1.039
0.3604
-1.399
-0.0006253
-0.0008828
0.001508
0.0007339
0.0001398
-0.0008737
4.572e-05
5.349e-05
-9.921e-05
0.0001249
-0.0003086
0.0001837
-0.0001655
-1.924e-06
0.0001675
0.006465
0.01173
-0.0182
-0.0007467
0.001351
-0.0006047
0.0004665
-0.0003873
-7.917e-05
-0.0005123
6.301e-05
0.0004493
7.323e-05
-7.323e-05
-0.001443
-0.0002364
0.001679
-0.0006198
0.0007184
-9.864e-05
0.0002191
0.0001172
-0.0003363
0.004904
-0.0009903
-0.003914
0.00164
-0.002213
0.0005732
0.00135
-0.002653
0.001303
-0.03946
-0.1416
-0.9563
1.098
-1.446
0.3455
-1.462
0.4602
-0.0005037
-7.159e-05
0.0005753
-2.692e-05
4.489e-05
-1.796e-05
-0.01075
-0.04474
0.05549
0.001457
-0.00123
-0.0002275
-0.0002264
-0.0002362
0.0004627
-0.001506
0.001672
-0.0001659
-4.707e-06
0.000633
-0.007326
-0.01457
0.0219
-0.357
-0.005008
0.3621
0.0003271
0.0004752
-0.0008023
0.0003558
-0.0006548
0.000299
-0.0001769
0.0001769
-2.336e-05
-0.0004584
0.0004817
-0.000493
0.0004849
8.052e-06
-0.01502
-0.007837
0.02286
-0.0001808
-0.0003338
0.0005146
-0.000498
0.0006688
-0.0001708
-0.0006607
0.0002073
0.0004533
-0.01267
0.03886
-0.02619
0.0007685
-0.0004439
-0.0003246
-0.001151
0.0008621
0.0002889
0.0009509
-2.668e-05
-0.0009242
-0.002734
0.003111
-0.2725
0.2951
-0.02262
-6.173e-05
-6.632e-06
-0.000426
0.0007592
-0.0003333
-0.0003127
0.001057
-0.0007446
0.2424
0.03953
-0.2819
0.0003548
-0.0009121
0.0005573
0.6977
0.8712
-0.0003152
0.0007324
-0.0004171
-4.116e-05
-5.85e-06
4.701e-05
0.007991
-0.02388
0.01589
0.0008179
0.0003766
-0.001194
-0.0008348
0.0009124
-7.756e-05
-4.954e-05
4.954e-05
0.003268
0.0007012
-0.003969
-0.000833
-0.0002509
0.001084
-0.02019
0.03764
-0.01745
0.2628
0.4631
-0.0007076
-0.00017
0.0008776
0.002614
-0.000851
4.577e-06
-0.0001561
0.0001516
-0.004544
0.003782
0.000762
-0.001393
0.0002947
0.001098
0.002153
-0.002428
0.000275
3.311e-05
-0.0001595
0.0001264
-0.002466
0.01961
-0.01714
-0.0015
0.001162
0.0003375
-0.004336
0.00327
0.001066
1.185
-0.2163
-0.9682
0.1361
-0.1297
-0.00644
0.0006087
0.0007071
-0.001316
0.0002645
-0.0005573
0.0002928
0.0004805
0.0005384
0.0003412
0.0007658
-0.0001145
0.0001145
0.0005082
-0.0003296
-0.0001787
-0.0008878
0.0002998
0.000588
0.0003347
0.0001735
-0.0001612
-0.0003259
0.0004871
0.0001083
-0.0001083
0.002962
-0.002205
0.001792
-0.001101
-0.0006915
-0.0006158
0.0002102
0.0004056
-3.192e-06
2.035e-06
1.157e-06
0.1794
0.4557
0.000875
-0.002126
0.001251
-6.549e-06
-1.727e-05
2.382e-05
0.006767
-0.003803
-0.002965
0.0003002
0.0005385
-0.0008386
0.001974
0.0002245
-0.002199
-1.191
-0.1985
0.007673
-0.005284
-0.002389
-0.001567
0.001296
0.0002713
0.000269
-0.0004689
0.0001998
-0.03846
-0.03091
0.06937
0.979
0.09286
-1.072
-0.0003365
0.0002181
0.0001184
-0.0002308
0.0001905
4.026e-05
-0.0001208
3.463e-05
8.615e-05
-0.0002221
0.0001426
7.946e-05
0.01005
-0.007777
-0.03614
0.01168
0.02446
-0.8757
1.313
-0.4377
0.0009029
-0.0007754
-0.0001275
0.002004
-0.001943
-6.077e-05
-0.0001698
0.0001932
-2.337e-05
0.004128
0.001756
-0.005885
0.00085
-0.0001942
-0.0006558
-0.5909
-0.2191
-0.0004523
-0.0002188
1.137
-0.008345
-1.129
0.0006953
0.000907
-0.001602
-0.001436
0.0008042
0.0006321
0.0004182
-0.0022
0.001781
-0.000103
-3.678e-05
-0.01501
0.01176
0.003248
0.001212
-0.002319
0.001107
0.0002306
-0.0005105
0.0002799
0.0002017
0.001422
-0.001623
0.02058
-0.05269
0.03211
0.000337
-0.0001734
-0.0001636
0.0002492
0.001874
-0.002123
-0.0004141
-0.000205
0.0006191
-0.001942
-0.0001044
0.002047
0.4564
0.7299
-1.186
-0.003564
-0.004242
0.007806
-0.0002415
0.0002972
-5.568e-05
0.08843
-0.04626
0.0006218
-0.0001266
-0.0004952
-0.000314
0.0002245
8.945e-05
0.0002886
-0.0005003
0.0002117
-0.001083
-0.002335
0.003418
0.001259
-0.001293
3.477e-05
-0.09429
0.06925
0.02504
-0.1062
0.06961
0.03663
-0.002451
0.001229
0.001222
0.002516
-0.004283
0.001767
0.0008203
-0.0003166
-0.0005038
0.002146
-0.009511
0.001712
-0.001764
5.197e-05
0.0009678
-0.0004777
-0.0004901
-0.1153
0.2749
-0.1596
-0.0006778
-0.003205
0.003882
-0.001461
0.002383
-0.0009222
0.001035
0.0002319
0.0001425
0.0003243
-0.0004668
-0.006304
0.008958
-0.002654
9.57e-05
-0.0002438
0.0001481
0.0004266
2.319e-05
-0.0004498
0.5073
0.572
-1.079
0.1882
-0.06147
-0.1268
-0.0007735
0.0006451
0.0001285
0.0001011
-0.0009878
0.0006188
-0.0005335
-8.534e-05
-9.964e-05
0.0005467
-0.0001604
0.0001604
-2.004e-06
-1.896e-05
2.097e-05
-0.001753
0.002515
-0.0007621
-0.08775
0.4781
-0.3903
-0.00131
0.001145
0.0001648
-1.89e-05
-0.0001973
0.02871
0.008943
-0.03765
-0.001241
-6.246e-06
-0.004329
-0.0001433
0.004473
-0.2576
-0.0992
0.3569
0.0009735
-5.558e-05
-0.000918
-0.0196
0.06131
-0.04171
-0.001164
0.0006133
0.0005507
-0.001145
0.001223
-7.742e-05
0.002173
0.000175
-0.002348
1.559e-05
-2.518e-05
9.585e-06
-0.0002472
0.0009958
0.005376
-0.004583
-0.000793
-0.004929
0.007139
-0.00221
-0.2348
0.2481
-0.0133
-0.0002309
3.15e-05
0.0001994
0.0003016
-0.0002205
0.1718
-0.2227
0.05092
0.0001579
-0.0001579
0.0001594
-0.0004079
0.0002485
-0.0008638
0.000751
0.0001128
-0.001881
0.002138
-0.0002575
-0.04248
0.194
-0.1515
0.2056
0.8994
-1.105
-0.0001349
0.0005055
-0.0003706
0.003965
-0.004502
0.0005377
0.0002854
-0.000257
-2.833e-05
0.00532
-0.009108
0.003789
0.000274
-0.0003519
7.788e-05
0.001448
0.0002856
-0.001734
-0.0009127
0.0006763
0.0002364
1.548e-06
-1.548e-06
2.686e-10
0.0007076
-2.347e-05
-0.0006842
-0.001409
0.001664
-0.0002553
0.0007475
-0.0001407
-0.0006068
-0.0004471
0.0004243
2.284e-05
-0.0002783
0.001824
-0.003758
0.002729
0.001029
5.496e-05
-0.0001414
8.642e-05
0.7606
-0.4802
-0.2804
-0.000963
0.0007899
0.0001731
0.000549
-0.001318
0.0007368
-0.0006432
-9.362e-05
-7.372e-05
0.0001689
-9.515e-05
0.01373
-0.007713
-0.006017
0.0008932
-0.000883
-1.018e-05
0.0006323
-0.0006149
-1.736e-05
-0.0003194
-0.0001112
0.0004306
0.001009
-0.0001096
-0.0008999
9.859e-05
-9.859e-05
4.467e-05
-8.489e-05
4.022e-05
-1.317
0.2564
0.0008897
-0.000113
-0.0007767
-0.0001695
0.0002012
-3.176e-05
0.0005196
0.0007389
-0.001259
-0.0007239
0.001015
-0.004585
0.003271
0.001313
9.556e-05
-9.556e-05
-0.0001774
0.000109
6.839e-05
-0.1007
-0.00559
0.0006306
-0.0005719
-5.866e-05
3.011e-05
-0.0003689
0.0003388
-0.0101
0.005366
0.004738
-0.0001006
-0.0003814
0.000482
1.575
-0.7847
-0.7899
-0.1085
-0.01383
0.1223
0.003022
-0.008661
0.005639
-0.0002219
0.0001281
9.375e-05
2.953e-06
-1.747e-05
1.452e-05
0.001009
-0.0004755
-0.0005975
-0.0002801
0.007701
-0.005226
-0.002475
-0.4243
1.511
-1.086
0.006006
-0.003578
-0.002427
0.3671
-0.3448
-0.02228
0.0005921
0.0003076
-0.0008998
-0.06671
-0.0239
0.09061
-0.0001013
9.38e-05
7.496e-06
0.006614
-0.01009
0.003477
-0.001073
3.226e-05
0.00104
3.84e-07
-2.347e-06
1.963e-06
0.8981
0.02889
-0.927
0.0002587
0.0002907
-0.0005494
0.7934
-1.263
0.4693
0.001386
-0.0004661
-0.00092
0.0002312
-0.000138
-9.321e-05
-0.000527
0.003486
0.0002521
0.0003432
-0.0005952
-8.103e-06
1.489e-05
-6.79e-06
0.0003784
0.0002222
-0.0006005
-0.001495
-9.356e-05
0.001588
0.0003242
0.0004429
-0.0007671
0.002264
0.001506
-0.00377
0.009486
-0.003414
-0.006072
0.009031
0.01144
-0.02047
0.0004585
0.0002115
-0.0006699
-0.0001432
0.0001432
0.02762
0.04188
0.7025
-1.345
0.6428
0.000424
-0.0004816
5.758e-05
0.0003823
-0.00137
0.0009878
-0.0002423
2.863e-05
0.0002137
4.241e-05
-4.241e-05
0.001208