0.001       	1.7541e-02	-2.2027e-23	3.8553e-02	-1.9277e-02	-2.1153e-02	8.7703e-03	-1.0506e-02	2.8047e-02	8.7703e-03	-8.7703e-03	-1.8761e-03	4.0429e-02
0.002       	8.4508e-01	-7.1824e-21	1.3736e+00	-6.8681e-01	-7.3674e-01	4.2254e-01	-2.6427e-01	1.1094e+00	4.2254e-01	-4.2254e-01	-4.9930e-02	1.4236e+00
0.003       	1.1216e+00	-7.7790e-21	2.4501e+00	-1.2250e+00	-1.3381e+00	5.6078e-01	-6.6424e-01	1.7858e+00	5.6078e-01	-5.6078e-01	-1.1304e-01	2.5631e+00
0.004       	2.4085e-01	1.1719e-21	7.8215e-01	-3.9107e-01	-3.8217e-01	1.2042e-01	-2.7065e-01	5.1150e-01	1.2042e-01	-1.2042e-01	8.9022e-03	7.7325e-01
0.005       	-5.2563e-01	7.5809e-21	-9.0939e-01	4.5470e-01	5.6511e-01	-2.6282e-01	1.9188e-01	-7.1751e-01	-2.6282e-01	2.6282e-01	1.1042e-01	-1.0198e+00
0.006       	-7.3560e-01	6.4780e-21	-1.8481e+00	9.2407e-01	1.1112e+00	-3.6780e-01	5.5627e-01	-1.2919e+00	-3.6780e-01	3.6780e-01	1.8717e-01	-2.0353e+00
0.007       	-1.8496e-01	-9.0266e-22	-7.1506e-01	3.5753e-01	3.9545e-01	-9.2480e-02	2.6505e-01	-4.5001e-01	-9.2480e-02	9.2480e-02	3.7924e-02	-7.5298e-01
0.008       	3.7565e-01	-4.4207e-21	8.3715e-01	-4.1858e-01	-5.0762e-01	1.8783e-01	-2.3075e-01	6.0640e-01	1.8783e-01	-1.8783e-01	-8.9046e-02	9.2620e-01
0.009       	6.9944e-01	-3.3526e-21	2.0590e+00	-1.0295e+00	-1.1524e+00	3.4972e-01	-6.7978e-01	1.3792e+00	3.4972e-01	-3.4972e-01	-1.2291e-01	2.1819e+00
0.01        	3.6454e-01	9.1583e-22	1.2869e+00	-6.4345e-01	-6.5586e-01	1.8227e-01	-4.6118e-01	8.2572e-01	1.8227e-01	-1.8227e-01	-1.2408e-02	1.2993e+00
0.011       	-9.3164e-02	3.3026e-21	-1.5600e-01	7.8002e-02	1.7926e-01	-4.6582e-02	3.1421e-02	-1.2458e-01	-4.6582e-02	4.6582e-02	1.0126e-01	-2.5727e-01
0.012       	-4.7806e-01	2.4125e-21	-1.5925e+00	7.9626e-01	9.5325e-01	-2.3903e-01	5.5723e-01	-1.0353e+00	-2.3903e-01	2.3903e-01	1.5699e-01	-1.7495e+00
0.013       	-3.0723e-01	-4.2138e-22	-1.1532e+00	5.7659e-01	6.3327e-01	-1.5362e-01	4.2297e-01	-7.3020e-01	-1.5362e-01	1.5362e-01	5.6685e-02	-1.2099e+00
0.014       	1.8323e-01	-1.3448e-21	4.5182e-01	-2.2591e-01	-2.4850e-01	9.1613e-02	-1.3430e-01	3.1752e-01	9.1613e-02	-9.1613e-02	-2.2590e-02	4.7441e-01
0.015       	5.9346e-01	-1.2883e-21	1.8971e+00	-9.4857e-01	-1.0123e+00	2.9673e-01	-6.5184e-01	1.2453e+00	2.9673e-01	-2.9673e-01	-6.3759e-02	1.9609e+00
0.016       	4.6821e-01	2.1251e-22	1.5863e+00	-7.9315e-01	-8.1396e-01	2.3411e-01	-5.5904e-01	1.0273e+00	2.3411e-01	-2.3411e-01	-2.0818e-02	1.6071e+00
0.017       	2.8567e-02	1.4382e-21	9.0655e-02	-4.5327e-02	3.7599e-02	1.4284e-02	-3.1044e-02	5.9611e-02	1.4284e-02	-1.4284e-02	8.2926e-02	7.7287e-03
0.018       	-2.8108e-01	1.2716e-21	-1.0400e+00	5.2002e-01	6.5620e-01	-1.4054e-01	3.7948e-01	-6.6055e-01	-1.4054e-01	1.4054e-01	1.3618e-01	-1.1762e+00
0.019       	-2.0433e-01	4.4213e-23	-8.3501e-01	4.1750e-01	5.0830e-01	-1.0216e-01	3.1534e-01	-5.1967e-01	-1.0216e-01	1.0216e-01	9.0792e-02	-9.2580e-01
0.02        	1.5837e-01	-5.3840e-22	4.0007e-01	-2.0003e-01	-1.9349e-01	7.9186e-02	-1.2085e-01	2.7922e-01	7.9186e-02	-7.9186e-02	6.5420e-03	3.9353e-01
0.021       	2.8300e-01	-4.6732e-22	8.5262e-01	-4.2631e-01	-4.4483e-01	1.4150e-01	-2.8481e-01	5.6781e-01	1.4150e-01	-1.4150e-01	-1.8522e-02	8.7114e-01
0.022       	3.9253e-01	5.6186e-23	1.2958e+00	-6.4788e-01	-6.4401e-01	1.9627e-01	-4.5162e-01	8.4415e-01	1.9627e-01	-1.9627e-01	3.8749e-03	1.2919e+00
0.023       	2.1057e-01	4.2885e-22	6.7319e-01	-3.3660e-01	-2.6992e-01	1.0528e-01	-2.3131e-01	4.4188e-01	1.0528e-01	-1.0528e-01	6.6681e-02	6.0651e-01
0.024       	1.2149e-01	4.2408e-22	3.4711e-01	-1.7356e-01	-9.3430e-02	6.0744e-02	-1.1281e-01	2.3430e-01	6.0744e-02	-6.0744e-02	8.0127e-02	2.6699e-01
0.025       	-1.1202e-01	1.5558e-22	-5.6725e-01	2.8363e-01	3.8379e-01	-5.6011e-02	2.2762e-01	-3.3964e-01	-5.6011e-02	5.6011e-02	1.0016e-01	-6.6741e-01
0.026       	-6.4312e-02	-1.9202e-22	-4.1194e-01	2.0597e-01	2.6693e-01	-3.2156e-02	1.7381e-01	-2.3813e-01	-3.2156e-02	3.2156e-02	6.0956e-02	-4.7290e-01
0.027       	4.9673e-03	-2.0814e-22	-1.5195e-01	7.5977e-02	1.2410e-01	2.4836e-03	7.8461e-02	-7.3494e-02	2.4836e-03	-2.4836e-03	4.8123e-02	-2.0008e-01
0.028       	3.4427e-01	-2.3145e-24	1.1152e+00	-5.5761e-01	-5.4583e-01	1.7214e-01	-3.8547e-01	7.2975e-01	1.7214e-01	-1.7214e-01	1.1783e-02	1.1034e+00
0.029       	3.8871e-01	2.5903e-22	1.3135e+00	-6.5676e-01	-6.4324e-01	1.9435e-01	-4.6241e-01	8.5111e-01	1.9435e-01	-1.9435e-01	1.3516e-02	1.3000e+00
0.03        	3.2792e-01	2.9089e-22	1.0827e+00	-5.4135e-01	-5.1986e-01	1.6396e-01	-3.7739e-01	7.0531e-01	1.6396e-01	-1.6396e-01	2.1494e-02	1.0612e+00
0.031       	-3.1207e-02	2.2261e-22	-3.1538e-01	1.5769e-01	2.5470e-01	-1.5604e-02	1.4209e-01	-1.7329e-01	-1.5604e-02	1.5604e-02	9.7015e-02	-4.1239e-01
0.032       	-1.4169e-01	2.3797e-23	-7.4849e-01	3.7424e-01	4.7994e-01	-7.0845e-02	3.0340e-01	-4.4509e-01	-7.0845e-02	7.0845e-02	1.0570e-01	-8.5419e-01
0.033       	-7.5409e-02	1.8285e-23	-4.9006e-01	2.4503e-01	3.3891e-01	-3.7705e-02	2.0732e-01	-2.8273e-01	-3.7705e-02	3.7705e-02	9.3883e-02	-5.8394e-01
0.034       	2.3999e-01	-8.5502e-24	7.3010e-01	-3.6505e-01	-3.3392e-01	1.1999e-01	-2.4506e-01	4.8505e-01	1.1999e-01	-1.1999e-01	3.1133e-02	6.9897e-01
0.035       	4.3570e-01	7.1561e-23	1.5033e+00	-7.5163e-01	-7.6613e-01	2.1785e-01	-5.3379e-01	9.6948e-01	2.1785e-01	-2.1785e-01	-1.4496e-02	1.5178e+00
0.036       	3.6386e-01	1.0434e-22	1.2231e+00	-6.1157e-01	-6.1843e-01	1.8193e-01	-4.2964e-01	7.9350e-01	1.8193e-01	-1.8193e-01	-6.8558e-03	1.2300e+00
0.037       	1.4694e-01	1.8449e-22	3.3667e-01	-1.6834e-01	-1.1671e-01	7.3468e-02	-9.4869e-02	2.4180e-01	7.3468e-02	-7.3468e-02	5.1623e-02	2.8505e-01
0.038       	2.5666e-02	1.9342e-22	-1.5825e-01	7.9125e-02	1.6895e-01	1.2833e-02	9.1958e-02	-6.6292e-02	1.2833e-02	-1.2833e-02	8.9825e-02	-2.4808e-01
0.039       	-3.9971e-02	1.0472e-22	-4.2403e-01	2.1201e-01	3.2414e-01	-1.9986e-02	1.9203e-01	-2.3200e-01	-1.9986e-02	1.9986e-02	1.1213e-01	-5.3616e-01
0.04        	3.2058e-02	9.0499e-23	-1.3634e-01	6.8170e-02	1.6766e-01	1.6029e-02	8.4199e-02	-5.2142e-02	1.6029e-02	-1.6029e-02	9.9490e-02	-2.3583e-01
0.041       	1.5798e-01	5.6276e-23	3.8552e-01	-1.9276e-01	-1.2931e-01	7.8991e-02	-1.1377e-01	2.7175e-01	7.8991e-02	-7.8991e-02	6.3453e-02	3.2207e-01
0.042       	2.5854e-01	4.1829e-23	8.0819e-01	-4.0409e-01	-3.7916e-01	1.2927e-01	-2.7482e-01	5.3336e-01	1.2927e-01	-1.2927e-01	2.4936e-02	7.8325e-01
0.043       	3.1198e-01	5.7971e-23	1.0188e+00	-5.0942e-01	-5.1215e-01	1.5599e-01	-3.5343e-01	6.6541e-01	1.5599e-01	-1.5599e-01	-2.7310e-03	1.0216e+00
0.044       	2.7473e-01	1.0081e-22	8.5038e-01	-4.2519e-01	-4.1908e-01	1.3737e-01	-2.8782e-01	5.6255e-01	1.3737e-01	-1.3737e-01	6.1099e-03	8.4427e-01
0.045       	2.0282e-01	1.3603e-22	5.1770e-01	-2.5885e-01	-2.2155e-01	1.0141e-01	-1.5744e-01	3.6026e-01	1.0141e-01	-1.0141e-01	3.7301e-02	4.8040e-01
0.046       	1.5286e-01	1.3939e-22	2.8679e-01	-1.4339e-01	-8.0836e-02	7.6429e-02	-6.6965e-02	2.1982e-01	7.6429e-02	-7.6429e-02	6.2559e-02	2.2423e-01
0.047       	1.1469e-01	1.2703e-22	1.3019e-01	-6.5095e-02	1.6026e-02	5.7343e-02	-7.7519e-03	1.2244e-01	5.7343e-02	-5.7343e-02	8.1121e-02	4.9069e-02
0.048       	7.4519e-02	1.0951e-22	3.5245e-03	-1.7623e-03	9.2179e-02	3.7260e-02	3.5497e-02	3.9022e-02	3.7260e-02	-3.7260e-02	9.3941e-02	-9.0417e-02
0.049       	9.6215e-02	8.0048e-23	1.2632e-01	-6.3162e-02	1.8047e-02	4.8108e-02	-1.5055e-02	1.1127e-01	4.8108e-02	-4.8108e-02	8.1210e-02	4.5115e-02
0.05        	1.3327e-01	6.9439e-23	2.9094e-01	-1.4547e-01	-8.2193e-02	6.6633e-02	-7.8836e-02	2.1210e-01	6.6633e-02	-6.6633e-02	6.3276e-02	2.2766e-01
0.051       	1.6041e-01	6.9263e-23	4.0072e-01	-2.0036e-01	-1.5053e-01	8.0206e-02	-1.2016e-01	2.8057e-01	8.0206e-02	-8.0206e-02	4.9832e-02	3.5089e-01
0.052       	2.2150e-01	7.6332e-23	6.1538e-01	-3.0769e-01	-2.8447e-01	1.1075e-01	-1.9694e-01	4.1844e-01	1.1075e-01	-1.1075e-01	2.3219e-02	5.9216e-01
0.053       	2.5132e-01	9.2807e-23	6.9395e-01	-3.4698e-01	-3.3261e-01	1.2566e-01	-2.2132e-01	4.7263e-01	1.2566e-01	-1.2566e-01	1.4370e-02	6.7958e-01
0.054       	2.2140e-01	9.7866e-23	5.6102e-01	-2.8051e-01	-2.5011e-01	1.1070e-01	-1.6981e-01	3.9121e-01	1.1070e-01	-1.1070e-01	3.0395e-02	5.3062e-01
0.055       	1.9296e-01	1.0008e-22	4.4862e-01	-2.2431e-01	-1.7860e-01	9.6479e-02	-1.2783e-01	3.2079e-01	9.6479e-02	-9.6479e-02	4.5708e-02	4.0292e-01
0.056       	1.5040e-01	1.0328e-22	2.9292e-01	-1.4646e-01	-7.8544e-02	7.5202e-02	-7.1260e-02	2.2166e-01	7.5202e-02	-7.5202e-02	6.7917e-02	2.2501e-01
0.057       	8.0285e-02	9.8246e-23	5.4274e-02	-2.7137e-02	6.9733e-02	4.0142e-02	1.3006e-02	6.7279e-02	4.0142e-02	-4.0142e-02	9.6870e-02	-4.2596e-02
0.058       	5.3513e-02	9.0099e-23	-2.3225e-02	1.1613e-02	1.1549e-01	2.6756e-02	3.8369e-02	1.5144e-02	2.6756e-02	-2.6756e-02	1.0387e-01	-1.2710e-01
0.059       	8.0132e-02	8.6068e-23	8.2119e-02	-4.1060e-02	5.0196e-02	4.0066e-02	-9.9385e-04	8.1125e-02	4.0066e-02	-4.0066e-02	9.1255e-02	-9.1360e-03
0.06        	1.0957e-01	8.7320e-23	1.9039e-01	-9.5195e-02	-1.8528e-02	5.4784e-02	-4.0410e-02	1.4998e-01	5.4784e-02	-5.4784e-02	7.6667e-02	1.1372e-01
0.061       	1.5399e-01	9.0513e-23	3.4714e-01	-1.7357e-01	-1.1791e-01	7.6995e-02	-9.6577e-02	2.5057e-01	7.6995e-02	-7.6995e-02	5.5666e-02	2.9148e-01
0.062       	2.0247e-01	9.7975e-23	5.1071e-01	-2.5536e-01	-2.1903e-01	1.0123e-01	-1.5412e-01	3.5659e-01	1.0123e-01	-1.0123e-01	3.6322e-02	4.7439e-01
0.063       	2.2344e-01	1.0809e-22	5.7280e-01	-2.8640e-01	-2.5492e-01	1.1172e-01	-1.7468e-01	3.9812e-01	1.1172e-01	-1.1172e-01	3.1479e-02	5.4132e-01
0.064       	2.0714e-01	1.1436e-22	5.0518e-01	-2.5259e-01	-2.1078e-01	1.0357e-01	-1.4902e-01	3.5616e-01	1.0357e-01	-1.0357e-01	4.1811e-02	4.6337e-01
0.065       	1.7640e-01	1.1469e-22	3.9104e-01	-1.9552e-01	-1.3667e-01	8.8200e-02	-1.0732e-01	2.8372e-01	8.8200e-02	-8.8200e-02	5.8852e-02	3.3219e-01
0.066       	1.4265e-01	1.1718e-22	2.7036e-01	-1.3518e-01	-5.7497e-02	7.1326e-02	-6.3855e-02	2.0651e-01	7.1326e-02	-7.1326e-02	7.7684e-02	1.9268e-01
0.067       	1.1506e-01	1.1857e-22	1.7495e-01	-8.7474e-02	4.5996e-03	5.7532e-02	-2.9942e-02	1.4501e-01	5.7532e-02	-5.7532e-02	9.2074e-02	8.2875e-02
0.068       	9.8077e-02	1.2248e-22	1.1940e-01	-5.9698e-02	3.9205e-02	4.9038e-02	-1.0660e-02	1.0874e-01	4.9038e-02	-4.9038e-02	9.8903e-02	2.0493e-02
0.069       	8.8563e-02	1.2132e-22	9.3625e-02	-4.6813e-02	5.1770e-02	4.4281e-02	-2.5314e-03	9.1094e-02	4.4281e-02	-4.4281e-02	9.8583e-02	-4.9573e-03
0.07        	9.5388e-02	1.1284e-22	1.2860e-01	-6.4302e-02	2.1547e-02	4.7694e-02	-1.6608e-02	1.1200e-01	4.7694e-02	-4.7694e-02	8.5849e-02	4.2754e-02
0.071       	1.1596e-01	1.0450e-22	2.0838e-01	-1.0419e-01	-3.5344e-02	5.7978e-02	-4.6211e-02	1.6217e-01	5.7978e-02	-5.7978e-02	6.8844e-02	1.3953e-01
0.072       	1.3204e-01	1.0230e-22	2.6673e-01	-1.3337e-01	-7.4860e-02	6.6019e-02	-6.7347e-02	1.9939e-01	6.6019e-02	-6.6019e-02	5.8507e-02	2.0823e-01
0.073       	1.4262e-01	1.0002e-22	3.0404e-01	-1.5202e-01	-9.8578e-02	7.1310e-02	-8.0711e-02	2.2333e-01	7.1310e-02	-7.1310e-02	5.3442e-02	2.5060e-01
0.074       	1.5090e-01	9.8117e-23	3.3202e-01	-1.6601e-01	-1.1518e-01	7.5452e-02	-9.0557e-02	2.4146e-01	7.5452e-02	-7.5452e-02	5.0833e-02	2.8119e-01
0.075       	1.5951e-01	9.6951e-23	3.5902e-01	-1.7951e-01	-1.2989e-01	7.9754e-02	-9.9758e-02	2.5927e-01	7.9754e-02	-7.9754e-02	4.9627e-02	3.0940e-01
0.076       	1.7092e-01	9.6607e-23	3.9165e-01	-1.9583e-01	-1.4564e-01	8.5458e-02	-1.1037e-01	2.8128e-01	8.5458e-02	-8.5458e-02	5.0191e-02	3.4146e-01
0.077       	1.8529e-01	9.9063e-23	4.2905e-01	-2.1452e-01	-1.6055e-01	9.2647e-02	-1.2188e-01	3.0717e-01	9.2647e-02	-9.2647e-02	5.3974e-02	3.7507e-01
0.078       	1.9510e-01	1.0235e-22	4.5001e-01	-2.2500e-01	-1.6443e-01	9.7550e-02	-1.2745e-01	3.2255e-01	9.7550e-02	-9.7550e-02	6.0572e-02	3.8943e-01
0.079       	1.9472e-01	1.0661e-22	4.4225e-01	-2.2112e-01	-1.5655e-01	9.7359e-02	-1.2377e-01	3.1848e-01	9.7359e-02	-9.7359e-02	6.4570e-02	3.7768e-01
0.08        	1.9168e-01	1.1494e-22	4.2920e-01	-2.1460e-01	-1.4920e-01	9.5841e-02	-1.1876e-01	3.1044e-01	9.5841e-02	-9.5841e-02	6.5401e-02	3.6380e-01
0.081       	1.8755e-01	1.1203e-22	4.1334e-01	-2.0667e-01	-1.4179e-01	9.3777e-02	-1.1289e-01	3.0045e-01	9.3777e-02	-9.3777e-02	6.4880e-02	3.4846e-01
0.082       	1.8043e-01	1.2227e-22	3.8852e-01	-1.9426e-01	-1.3078e-01	9.0214e-02	-1.0404e-01	2.8447e-01	9.0214e-02	-9.0214e-02	6.3477e-02	3.2504e-01
0.083       	1.6749e-01	1.2726e-22	3.4520e-01	-1.7260e-01	-1.1194e-01	8.3746e-02	-8.8853e-02	2.5635e-01	8.3746e-02	-8.3746e-02	6.0654e-02	2.8454e-01
0.084       	1.5270e-01	1.2293e-22	2.9575e-01	-1.4787e-01	-9.0556e-02	7.6352e-02	-7.1522e-02	2.2423e-01	7.6352e-02	-7.6352e-02	5.7318e-02	2.3843e-01
0.085       	1.4155e-01	1.2121e-22	2.5638e-01	-1.2819e-01	-7.3874e-02	7.0776e-02	-5.7413e-02	1.9897e-01	7.0776e-02	-7.0776e-02	5.4315e-02	2.0206e-01
0.086       	1.3993e-01	1.2034e-22	2.4850e-01	-1.2425e-01	-7.0386e-02	6.9966e-02	-5.4283e-02	1.9422e-01	6.9966e-02	-6.9966e-02	5.3863e-02	1.9464e-01
0.087       	1.4413e-01	1.2015e-22	2.6098e-01	-1.3049e-01	-7.5307e-02	7.2065e-02	-5.8423e-02	2.0255e-01	7.2065e-02	-7.2065e-02	5.5181e-02	2.0580e-01
0.088       	1.4993e-01	1.1862e-22	2.8074e-01	-1.4037e-01	-8.2600e-02	7.4966e-02	-6.5402e-02	2.1533e-01	7.4966e-02	-7.4966e-02	5.7768e-02	2.2297e-01
0.089       	1.5719e-01	1.1401e-22	3.0686e-01	-1.5343e-01	-9.2055e-02	7.8597e-02	-7.4832e-02	2.3203e-01	7.8597e-02	-7.8597e-02	6.1374e-02	2.4548e-01
0.09        	1.6449e-01	1.1752e-22	3.3348e-01	-1.6674e-01	-1.0176e-01	8.2247e-02	-8.4492e-02	2.4899e-01	8.2247e-02	-8.2247e-02	6.4976e-02	2.6850e-01
0.091       	1.7027e-01	1.2393e-22	3.5631e-01	-1.7816e-01	-1.0969e-01	8.5133e-02	-9.3024e-02	2.6329e-01	8.5133e-02	-8.5133e-02	6.8468e-02	2.8784e-01
0.092       	1.7211e-01	1.2524e-22	3.6679e-01	-1.8339e-01	-1.1227e-01	8.6057e-02	-9.7336e-02	2.6945e-01	8.6057e-02	-8.6057e-02	7.1123e-02	2.9566e-01
0.093       	1.7025e-01	1.2335e-22	3.6500e-01	-1.8250e-01	-1.0934e-01	8.5123e-02	-9.7379e-02	2.6762e-01	8.5123e-02	-8.5123e-02	7.3158e-02	2.9185e-01
0.094       	1.6231e-01	1.2260e-22	3.4519e-01	-1.7260e-01	-9.6358e-02	8.1155e-02	-9.1442e-02	2.5375e-01	8.1155e-02	-8.1155e-02	7.6238e-02	2.6896e-01
0.095       	1.4681e-01	1.2673e-22	3.0432e-01	-1.5216e-01	-6.9893e-02	7.3407e-02	-7.8751e-02	2.2557e-01	7.3407e-02	-7.3407e-02	8.2265e-02	2.2205e-01
0.096       	1.3347e-01	1.2953e-22	2.6961e-01	-1.3481e-01	-4.6492e-02	6.6736e-02	-6.8070e-02	2.0154e-01	6.6736e-02	-6.6736e-02	8.8315e-02	1.8130e-01
0.097       	1.2573e-01	1.2964e-22	2.4930e-01	-1.2465e-01	-3.2886e-02	6.2866e-02	-6.1783e-02	1.8751e-01	6.2866e-02	-6.2866e-02	9.1763e-02	1.5753e-01
0.098       	1.2019e-01	1.3080e-22	2.3486e-01	-1.1743e-01	-2.3242e-02	6.0095e-02	-5.7334e-02	1.7752e-01	6.0095e-02	-6.0095e-02	9.4187e-02	1.4067e-01
0.099       	1.1803e-01	1.2298e-22	2.2941e-01	-1.1470e-01	-1.9645e-02	5.9015e-02	-5.5688e-02	1.7372e-01	5.9015e-02	-5.9015e-02	9.5058e-02	1.3435e-01
0.1         	1.2088e-01	1.2308e-22	2.3825e-01	-1.1912e-01	-2.5048e-02	6.0441e-02	-5.8683e-02	1.7956e-01	6.0441e-02	-6.0441e-02	9.4076e-02	1.4417e-01
0.101       	1.3013e-01	1.2580e-22	2.6491e-01	-1.3246e-01	-4.1981e-02	6.5067e-02	-6.7390e-02	1.9752e-01	6.5067e-02	-6.5067e-02	9.0476e-02	1.7444e-01
0.102       	1.4271e-01	1.2650e-22	3.0075e-01	-1.5037e-01	-6.5069e-02	7.1354e-02	-7.9019e-02	2.2173e-01	7.1354e-02	-7.1354e-02	8.5304e-02	2.1544e-01
0.103       	1.5639e-01	1.2562e-22	3.3990e-01	-1.6995e-01	-9.0223e-02	7.8193e-02	-9.1759e-02	2.4815e-01	7.8193e-02	-7.8193e-02	7.9729e-02	2.6017e-01
0.104       	1.6817e-01	1.2991e-22	3.7441e-01	-1.8720e-01	-1.1150e-01	8.4086e-02	-1.0312e-01	2.7129e-01	8.4086e-02	-8.4086e-02	7.5700e-02	2.9871e-01
0.105       	1.7869e-01	1.3133e-22	4.0613e-01	-2.0306e-01	-1.3029e-01	8.9345e-02	-1.1372e-01	2.9241e-01	8.9345e-02	-8.9345e-02	7.2778e-02	3.3335e-01
0.106       	1.8825e-01	1.2655e-22	4.3576e-01	-2.1788e-01	-1.4708e-01	9.4124e-02	-1.2376e-01	3.1201e-01	9.4124e-02	-9.4124e-02	7.0801e-02	3.6496e-01
0.107       	1.9670e-01	1.2414e-22	4.6273e-01	-2.3136e-01	-1.6180e-01	9.8348e-02	-1.3302e-01	3.2971e-01	9.8348e-02	-9.8348e-02	6.9562e-02	3.9317e-01
0.108       	2.0487e-01	1.3093e-22	4.9004e-01	-2.4502e-01	-1.7594e-01	1.0244e-01	-1.4258e-01	3.4745e-01	1.0244e-01	-1.0244e-01	6.9082e-02	4.2095e-01
0.109       	2.1275e-01	1.2774e-22	5.1779e-01	-2.5889e-01	-1.8954e-01	1.0638e-01	-1.5252e-01	3.6527e-01	1.0638e-01	-1.0638e-01	6.9357e-02	4.4843e-01
0.11        	2.1925e-01	1.2638e-22	5.4287e-01	-2.7144e-01	-2.0071e-01	1.0962e-01	-1.6181e-01	3.8106e-01	1.0962e-01	-1.0962e-01	7.0730e-02	4.7214e-01
0.111       	2.2337e-01	1.2898e-22	5.6069e-01	-2.8034e-01	-2.0799e-01	1.1169e-01	-1.6866e-01	3.9203e-01	1.1169e-01	-1.1169e-01	7.2353e-02	4.8833e-01
0.112       	2.2511e-01	1.3378e-22	5.6978e-01	-2.8489e-01	-2.1135e-01	1.1256e-01	-1.7233e-01	3.9745e-01	1.1256e-01	-1.1256e-01	7.3542e-02	4.9624e-01
0.113       	2.2589e-01	1.3566e-22	5.7451e-01	-2.8726e-01	-2.1323e-01	1.1295e-01	-1.7431e-01	4.0020e-01	1.1295e-01	-1.1295e-01	7.4028e-02	5.0048e-01
0.114       	2.2623e-01	1.3846e-22	5.7613e-01	-2.8806e-01	-2.1446e-01	1.1312e-01	-1.7495e-01	4.0118e-01	1.1312e-01	-1.1312e-01	7.3600e-02	5.0253e-01
0.115       	2.2616e-01	1.5029e-22	5.7396e-01	-2.8698e-01	-2.1536e-01	1.1308e-01	-1.7390e-01	4.0006e-01	1.1308e-01	-1.1308e-01	7.1616e-02	5.0234e-01
0.116       	2.2578e-01	1.5393e-22	5.6839e-01	-2.8419e-01	-2.1620e-01	1.1289e-01	-1.7131e-01	3.9708e-01	1.1289e-01	-1.1289e-01	6.7992e-02	5.0040e-01
0.117       	2.2537e-01	1.4758e-22	5.6086e-01	-2.8043e-01	-2.1741e-01	1.1269e-01	-1.6774e-01	3.9312e-01	1.1269e-01	-1.1269e-01	6.3018e-02	4.9784e-01
0.118       	2.2546e-01	1.4710e-22	5.5442e-01	-2.7721e-01	-2.1955e-01	1.1273e-01	-1.6448e-01	3.8994e-01	1.1273e-01	-1.1273e-01	5.7655e-02	4.9676e-01
0.119       	2.2649e-01	1.5054e-22	5.5023e-01	-2.7512e-01	-2.2354e-01	1.1325e-01	-1.6187e-01	3.8836e-01	1.1325e-01	-1.1325e-01	5.1578e-02	4.9865e-01
0.12        	2.3017e-01	1.4682e-22	5.5351e-01	-2.7675e-01	-2.3224e-01	1.1508e-01	-1.6167e-01	3.9184e-01	1.1508e-01	-1.1508e-01	4.4513e-02	5.0899e-01
0.121       	2.3716e-01	1.5028e-22	5.6810e-01	-2.8405e-01	-2.4574e-01	1.1858e-01	-1.6547e-01	4.0263e-01	1.1858e-01	-1.1858e-01	3.8317e-02	5.2979e-01
0.122       	2.4702e-01	1.5374e-22	5.9427e-01	-2.9713e-01	-2.6291e-01	1.2351e-01	-1.7363e-01	4.2064e-01	1.2351e-01	-1.2351e-01	3.4223e-02	5.6005e-01
0.123       	2.5741e-01	1.6207e-22	6.2449e-01	-3.1225e-01	-2.7964e-01	1.2871e-01	-1.8354e-01	4.4095e-01	1.2871e-01	-1.2871e-01	3.2604e-02	5.9189e-01
0.124       	2.6783e-01	1.6188e-22	6.5700e-01	-3.2850e-01	-2.9604e-01	1.3391e-01	-1.9458e-01	4.6241e-01	1.3391e-01	-1.3391e-01	3.2462e-02	6.2454e-01
0.125       	2.7813e-01	1.6194e-22	6.9009e-01	-3.4504e-01	-3.1176e-01	1.3906e-01	-2.0598e-01	4.8411e-01	1.3906e-01	-1.3906e-01	3.3287e-02	6.5680e-01
0.126       	2.8777e-01	1.5619e-22	7.2290e-01	-3.6145e-01	-3.2640e-01	1.4389e-01	-2.1756e-01	5.0534e-01	1.4389e-01	-1.4389e-01	3.5053e-02	6.8785e-01
0.127       	2.9558e-01	1.5009e-22	7.5164e-01	-3.7582e-01	-3.3813e-01	1.4779e-01	-2.2803e-01	5.2361e-01	1.4779e-01	-1.4779e-01	3.7690e-02	7.1395e-01
0.128       	2.9989e-01	1.3834e-22	7.6878e-01	-3.8439e-01	-3.4497e-01	1.4994e-01	-2.3445e-01	5.3434e-01	1.4994e-01	-1.4994e-01	3.9427e-02	7.2936e-01
0.129       	3.0167e-01	1.3995e-22	7.7683e-01	-3.8842e-01	-3.4795e-01	1.5084e-01	-2.3758e-01	5.3925e-01	1.5084e-01	-1.5084e-01	4.0466e-02	7.3637e-01
0.13        	3.0131e-01	1.3725e-22	7.7760e-01	-3.8880e-01	-3.4823e-01	1.5066e-01	-2.3814e-01	5.3946e-01	1.5066e-01	-1.5066e-01	4.0570e-02	7.3703e-01
0.131       	2.9912e-01	1.2951e-22	7.7102e-01	-3.8551e-01	-3.4557e-01	1.4956e-01	-2.3595e-01	5.3507e-01	1.4956e-01	-1.4956e-01	3.9935e-02	7.3109e-01
0.132       	2.9789e-01	1.4148e-22	7.6687e-01	-3.8343e-01	-3.4417e-01	1.4894e-01	-2.3449e-01	5.3238e-01	1.4894e-01	-1.4894e-01	3.9268e-02	7.2760e-01
0.133       	2.9163e-01	1.3810e-22	7.4405e-01	-3.7202e-01	-3.3550e-01	1.4581e-01	-2.2621e-01	5.1784e-01	1.4581e-01	-1.4581e-01	3.6519e-02	7.0753e-01
0.134       	2.8359e-01	1.4357e-22	7.1301e-01	-3.5651e-01	-3.2312e-01	1.4180e-01	-2.1471e-01	4.9830e-01	1.4180e-01	-1.4180e-01	3.3388e-02	6.7962e-01
0.135       	2.7470e-01	1.4211e-22	6.7623e-01	-3.3812e-01	-3.0668e-01	1.3735e-01	-2.0076e-01	4.7547e-01	1.3735e-01	-1.3735e-01	3.1435e-02	6.4480e-01
0.136       	2.6752e-01	1.4592e-22	6.4351e-01	-3.2176e-01	-2.9084e-01	1.3376e-01	-1.8799e-01	4.5552e-01	1.3376e-01	-1.3376e-01	3.0912e-02	6.1260e-01
0.137       	2.6713e-01	1.5277e-22	6.4075e-01	-3.2037e-01	-2.8919e-01	1.3356e-01	-1.8681e-01	4.5394e-01	1.3356e-01	-1.3356e-01	3.1185e-02	6.0956e-01
0.138       	2.6560e-01	1.4841e-22	6.3224e-01	-3.1612e-01	-2.8274e-01	1.3280e-01	-1.8332e-01	4.4892e-01	1.3280e-01	-1.3280e-01	3.3375e-02	5.9886e-01
0.139       	2.6492e-01	1.4433e-22	6.2981e-01	-3.1491e-01	-2.8031e-01	1.3246e-01	-1.8245e-01	4.4737e-01	1.3246e-01	-1.3246e-01	3.4594e-02	5.9522e-01
0.14        	2.6184e-01	1.4116e-22	6.2032e-01	-3.1016e-01	-2.7069e-01	1.3092e-01	-1.7924e-01	4.4108e-01	1.3092e-01	-1.3092e-01	3.9473e-02	5.8085e-01
0.141       	2.5989e-01	1.4796e-22	6.1548e-01	-3.0774e-01	-2.6594e-01	1.2994e-01	-1.7780e-01	4.3768e-01	1.2994e-01	-1.2994e-01	4.1797e-02	5.7369e-01
0.142       	2.5404e-01	1.5481e-22	6.0181e-01	-3.0091e-01	-2.5200e-01	1.2702e-01	-1.7389e-01	4.2793e-01	1.2702e-01	-1.2702e-01	4.8912e-02	5.5290e-01
0.143       	2.5205e-01	1.5069e-22	5.9735e-01	-2.9868e-01	-2.4783e-01	1.2603e-01	-1.7265e-01	4.2470e-01	1.2603e-01	-1.2603e-01	5.0841e-02	5.4651e-01
0.144       	2.4527e-01	1.5648e-22	5.8175e-01	-2.9087e-01	-2.3514e-01	1.2263e-01	-1.6824e-01	4.1351e-01	1.2263e-01	-1.2263e-01	5.5731e-02	5.2602e-01
0.145       	2.4320e-01	1.5279e-22	5.7636e-01	-2.8818e-01	-2.3131e-01	1.2160e-01	-1.6658e-01	4.0978e-01	1.2160e-01	-1.2160e-01	5.6867e-02	5.1949e-01
0.146       	2.3416e-01	1.5197e-22	5.5071e-01	-2.7536e-01	-2.1481e-01	1.1708e-01	-1.5828e-01	3.9244e-01	1.1708e-01	-1.1708e-01	6.0549e-02	4.9016e-01
0.147       	2.2393e-01	1.5316e-22	5.1947e-01	-2.5973e-01	-1.9452e-01	1.1196e-01	-1.4777e-01	3.7170e-01	1.1196e-01	-1.1196e-01	6.5218e-02	4.5425e-01
0.148       	2.2095e-01	1.5546e-22	5.0934e-01	-2.5467e-01	-1.8803e-01	1.1048e-01	-1.4419e-01	3.6515e-01	1.1048e-01	-1.1048e-01	6.6642e-02	4.4270e-01
0.149       	2.0793e-01	1.5928e-22	4.6614e-01	-2.3307e-01	-1.5818e-01	1.0396e-01	-1.2910e-01	3.3703e-01	1.0396e-01	-1.0396e-01	7.4887e-02	3.9125e-01
0.15        	1.9104e-01	1.6025e-22	4.1075e-01	-2.0537e-01	-1.1926e-01	9.5520e-02	-1.0985e-01	3.0089e-01	9.5520e-02	-9.5520e-02	8.6109e-02	3.2464e-01
0.151       	1.7387e-01	1.5706e-22	3.5442e-01	-1.7721e-01	-7.8126e-02	8.6935e-02	-9.0276e-02	2.6414e-01	8.6935e-02	-8.6935e-02	9.9084e-02	2.5534e-01
0.152       	1.6087e-01	1.5770e-22	3.1309e-01	-1.5654e-01	-4.8529e-02	8.0436e-02	-7.6107e-02	2.3698e-01	8.0436e-02	-8.0436e-02	1.0801e-01	2.0507e-01
0.153       	1.5210e-01	1.6143e-22	2.8611e-01	-1.4306e-01	-2.9247e-02	7.6051e-02	-6.7004e-02	2.1911e-01	7.6051e-02	-7.6051e-02	1.1381e-01	1.7230e-01
0.154       	1.4506e-01	1.5778e-22	2.6596e-01	-1.3298e-01	-1.5944e-02	7.2528e-02	-6.0452e-02	2.0551e-01	7.2528e-02	-7.2528e-02	1.1704e-01	1.4892e-01
0.155       	1.3919e-01	1.5222e-22	2.5151e-01	-1.2576e-01	-6.4694e-03	6.9593e-02	-5.6163e-02	1.9535e-01	6.9593e-02	-6.9593e-02	1.1929e-01	1.3223e-01
0.156       	1.3349e-01	1.5066e-22	2.3917e-01	-1.1958e-01	1.2062e-03	6.6744e-02	-5.2839e-02	1.8633e-01	6.6744e-02	-6.6744e-02	1.2079e-01	1.1838e-01
0.157       	1.2847e-01	1.5412e-22	2.2992e-01	-1.1496e-01	7.3966e-03	6.4236e-02	-5.0726e-02	1.7920e-01	6.4236e-02	-6.4236e-02	1.2236e-01	1.0756e-01
0.158       	1.2432e-01	1.5462e-22	2.2305e-01	-1.1153e-01	1.2464e-02	6.2159e-02	-4.9367e-02	1.7368e-01	6.2159e-02	-6.2159e-02	1.2399e-01	9.9062e-02
0.159       	1.2122e-01	1.5168e-22	2.1839e-01	-1.0920e-01	1.6849e-02	6.0610e-02	-4.8586e-02	1.6981e-01	6.0610e-02	-6.0610e-02	1.2604e-01	9.2347e-02
0.16        	1.1801e-01	1.5039e-22	2.1294e-01	-1.0647e-01	2.2106e-02	5.9006e-02	-4.7464e-02	1.6548e-01	5.9006e-02	-5.9006e-02	1.2858e-01	8.4364e-02
0.161       	1.1488e-01	1.4375e-22	2.0730e-01	-1.0365e-01	2.8097e-02	5.7441e-02	-4.6209e-02	1.6109e-01	5.7441e-02	-5.7441e-02	1.3175e-01	7.5553e-02
0.162       	1.1181e-01	1.4210e-22	2.0104e-01	-1.0052e-01	3.4147e-02	5.5907e-02	-4.4615e-02	1.5643e-01	5.5907e-02	-5.5907e-02	1.3467e-01	6.6376e-02
0.163       	1.1074e-01	1.4253e-22	1.9927e-01	-9.9633e-02	3.6943e-02	5.5368e-02	-4.4265e-02	1.5500e-01	5.5368e-02	-5.5368e-02	1.3658e-01	6.2690e-02
0.164       	1.1151e-01	1.4094e-22	2.0136e-01	-1.0068e-01	3.6038e-02	5.5753e-02	-4.4926e-02	1.5643e-01	5.5753e-02	-5.5753e-02	1.3672e-01	6.4641e-02
0.165       	1.1377e-01	1.4352e-22	2.0732e-01	-1.0366e-01	3.1855e-02	5.6883e-02	-4.6779e-02	1.6054e-01	5.6883e-02	-5.6883e-02	1.3552e-01	7.1806e-02
0.166       	1.1621e-01	1.4514e-22	2.1420e-01	-1.0710e-01	2.6120e-02	5.8104e-02	-4.8997e-02	1.6521e-01	5.8104e-02	-5.8104e-02	1.3322e-01	8.0981e-02
0.167       	1.1925e-01	1.4386e-22	2.2322e-01	-1.1161e-01	1.8060e-02	5.9623e-02	-5.1986e-02	1.7123e-01	5.9623e-02	-5.9623e-02	1.2967e-01	9.3548e-02
0.168       	1.2267e-01	1.4511e-22	2.3415e-01	-1.1707e-01	7.7967e-03	6.1337e-02	-5.5737e-02	1.7841e-01	6.1337e-02	-6.1337e-02	1.2487e-01	1.0928e-01
0.169       	1.2648e-01	1.4689e-22	2.4748e-01	-1.2374e-01	-3.9864e-03	6.3238e-02	-6.0503e-02	1.8698e-01	6.3238e-02	-6.3238e-02	1.1975e-01	1.2773e-01
0.17        	1.3050e-01	1.4729e-22	2.6248e-01	-1.3124e-01	-1.6430e-02	6.5250e-02	-6.5988e-02	1.9649e-01	6.5250e-02	-6.5250e-02	1.1481e-01	1.4767e-01
0.171       	1.3550e-01	1.4496e-22	2.8098e-01	-1.4049e-01	-3.0375e-02	6.7749e-02	-7.2744e-02	2.0824e-01	6.7749e-02	-6.7749e-02	1.1012e-01	1.7087e-01
0.172       	1.4227e-01	1.4434e-22	3.0523e-01	-1.5261e-01	-4.7081e-02	7.1137e-02	-8.1477e-02	2.2375e-01	7.1137e-02	-7.1137e-02	1.0553e-01	1.9970e-01
0.173       	1.5001e-01	1.4701e-22	3.3189e-01	-1.6595e-01	-6.4261e-02	7.5004e-02	-9.0942e-02	2.4095e-01	7.5004e-02	-7.5004e-02	1.0169e-01	2.3021e-01
0.174       	1.5892e-01	1.4660e-22	3.6159e-01	-1.8079e-01	-8.2528e-02	7.9461e-02	-1.0133e-01	2.6025e-01	7.9461e-02	-7.9461e-02	9.8265e-02	2.6332e-01
0.175       	1.7235e-01	1.4818e-22	4.0469e-01	-2.0234e-01	-1.0853e-01	8.6175e-02	-1.1617e-01	2.8852e-01	8.6175e-02	-8.6175e-02	9.3814e-02	3.1088e-01
0.176       	1.8845e-01	1.4536e-22	4.5488e-01	-2.2744e-01	-1.3869e-01	9.4224e-02	-1.3322e-01	3.2166e-01	9.4224e-02	-9.4224e-02	8.8753e-02	3.6613e-01
0.177       	2.0518e-01	1.4440e-22	5.0539e-01	-2.5269e-01	-1.6904e-01	1.0259e-01	-1.5010e-01	3.5528e-01	1.0259e-01	-1.0259e-01	8.3657e-02	4.2173e-01
0.178       	2.1653e-01	1.4398e-22	5.3877e-01	-2.6938e-01	-1.8919e-01	1.0826e-01	-1.6112e-01	3.7765e-01	1.0826e-01	-1.0826e-01	8.0193e-02	4.5857e-01
0.179       	2.2495e-01	1.4528e-22	5.6294e-01	-2.8147e-01	-2.0363e-01	1.1247e-01	-1.6899e-01	3.9394e-01	1.1247e-01	-1.1247e-01	7.7836e-02	4.8510e-01
0.18        	2.2974e-01	1.4671e-22	5.7652e-01	-2.8826e-01	-2.1148e-01	1.1487e-01	-1.7339e-01	4.0313e-01	1.1487e-01	-1.1487e-01	7.6777e-02	4.9974e-01
0.181       	2.3074e-01	1.4475e-22	5.7980e-01	-2.8990e-01	-2.1242e-01	1.1537e-01	-1.7453e-01	4.0527e-01	1.1537e-01	-1.1537e-01	7.7474e-02	5.0232e-01
0.182       	2.2661e-01	1.4048e-22	5.6979e-01	-2.8489e-01	-2.0457e-01	1.1330e-01	-1.7159e-01	3.9820e-01	1.1330e-01	-1.1330e-01	8.0325e-02	4.8946e-01
0.183       	2.1861e-01	1.4188e-22	5.4994e-01	-2.7497e-01	-1.9062e-01	1.0930e-01	-1.6567e-01	3.8427e-01	1.0930e-01	-1.0930e-01	8.4352e-02	4.6559e-01
0.184       	2.0991e-01	1.4306e-22	5.2859e-01	-2.6430e-01	-1.7611e-01	1.0496e-01	-1.5934e-01	3.6925e-01	1.0496e-01	-1.0496e-01	8.8182e-02	4.4041e-01
0.185       	2.0169e-01	1.4137e-22	5.0896e-01	-2.5448e-01	-1.6298e-01	1.0085e-01	-1.5364e-01	3.5533e-01	1.0085e-01	-1.0085e-01	9.1498e-02	4.1747e-01
0.186       	1.9427e-01	1.4712e-22	4.9228e-01	-2.4614e-01	-1.5187e-01	9.7136e-02	-1.4900e-01	3.4328e-01	9.7136e-02	-9.7136e-02	9.4273e-02	3.9801e-01
0.187       	1.8937e-01	1.5992e-22	4.8278e-01	-2.4139e-01	-1.4584e-01	9.4684e-02	-1.4670e-01	3.3607e-01	9.4684e-02	-9.4684e-02	9.5552e-02	3.8723e-01
0.188       	1.8880e-01	1.6171e-22	4.8546e-01	-2.4273e-01	-1.4828e-01	9.4401e-02	-1.4833e-01	3.3713e-01	9.4401e-02	-9.4401e-02	9.4455e-02	3.9101e-01
0.189       	1.9603e-01	1.5745e-22	5.0880e-01	-2.5440e-01	-1.6515e-01	9.8017e-02	-1.5638e-01	3.5241e-01	9.8017e-02	-9.8017e-02	8.9252e-02	4.1954e-01
0.19        	2.1450e-01	1.6010e-22	5.6022e-01	-2.8011e-01	-2.0113e-01	1.0725e-01	-1.7286e-01	3.8736e-01	1.0725e-01	-1.0725e-01	7.8978e-02	4.8124e-01
0.191       	2.3517e-01	1.6002e-22	6.1392e-01	-3.0696e-01	-2.3809e-01	1.1758e-01	-1.8937e-01	4.2454e-01	1.1758e-01	-1.1758e-01	6.8866e-02	5.4505e-01
0.192       	2.5338e-01	1.5131e-22	6.5851e-01	-3.2926e-01	-2.6800e-01	1.2669e-01	-2.0256e-01	4.5595e-01	1.2669e-01	-1.2669e-01	6.1252e-02	5.9726e-01
0.193       	2.6376e-01	1.5651e-22	6.8222e-01	-3.4111e-01	-2.8297e-01	1.3188e-01	-2.0923e-01	4.7299e-01	1.3188e-01	-1.3188e-01	5.8144e-02	6.2408e-01
0.194       	2.7004e-01	1.6884e-22	6.9510e-01	-3.4755e-01	-2.8974e-01	1.3502e-01	-2.1253e-01	4.8257e-01	1.3502e-01	-1.3502e-01	5.7808e-02	6.3729e-01
0.195       	2.7238e-01	1.7392e-22	6.9858e-01	-3.4929e-01	-2.8933e-01	1.3619e-01	-2.1310e-01	4.8548e-01	1.3619e-01	-1.3619e-01	5.9954e-02	6.3862e-01
0.196       	2.7181e-01	1.6732e-22	6.9569e-01	-3.4784e-01	-2.8351e-01	1.3591e-01	-2.1194e-01	4.8375e-01	1.3591e-01	-1.3591e-01	6.4334e-02	6.3135e-01
0.197       	2.6890e-01	1.7092e-22	6.8858e-01	-3.4429e-01	-2.7444e-01	1.3445e-01	-2.0984e-01	4.7874e-01	1.3445e-01	-1.3445e-01	6.9844e-02	6.1873e-01
0.198       	2.6502e-01	1.7695e-22	6.8113e-01	-3.4056e-01	-2.6556e-01	1.3251e-01	-2.0805e-01	4.7307e-01	1.3251e-01	-1.3251e-01	7.5005e-02	6.0612e-01
0.199       	2.6392e-01	1.7014e-22	6.7958e-01	-3.3979e-01	-2.6373e-01	1.3196e-01	-2.0783e-01	4.7175e-01	1.3196e-01	-1.3196e-01	7.6064e-02	6.0352e-01
0.2         	2.6131e-01	1.6233e-22	6.7809e-01	-3.3904e-01	-2.6139e-01	1.3065e-01	-2.0839e-01	4.6970e-01	1.3065e-01	-1.3065e-01	7.7651e-02	6.0044e-01
0.201       	2.6014e-01	1.6750e-22	6.8092e-01	-3.4046e-01	-2.6347e-01	1.3007e-01	-2.1039e-01	4.7053e-01	1.3007e-01	-1.3007e-01	7.6985e-02	6.0393e-01