/*--------------------------------*- C++ -*----------------------------------*\
  =========                 |
  \\      /  F ield         | OpenFOAM: The Open Source CFD Toolbox
   \\    /   O peration     | Website:  https://openfoam.org
    \\  /    A nd           | Version:  8
     \\/     M anipulation  |
\*---------------------------------------------------------------------------*/
FoamFile
{
    version     2.0;
    format      ascii;
    class       volScalarField;
    location    "30";
    object      nut;
}
// * * * * * * * * * * * * * * * * * * * * * * * * * * * * * * * * * * * * * //

dimensions      [0 2 -1 0 0 0 0];

internalField   nonuniform List<scalar> 
127143
(
8.127e-16
6.658e-18
4.671e-18
2.475e-17
7.441e-12
1.892e-17
8.14e-10
2.723e-11
2.706e-12
4.597e-08
2.911e-10
6.765e-11
8.738e-18
2.716e-17
1.252e-06
6.742e-09
2.733e-15
0.0001053
4.217e-05
1.539e-08
4.352e-05
8.551e-10
7.035e-05
7.603e-06
8.228e-10
7.836e-06
1.094e-05
9.69e-06
2.439e-08
0.0002072
3.125e-06
6.362e-06
2.504e-06
1.506e-05
3.807e-05
2.635e-06
0.0001023
3.544e-05
8.037e-06
1.21e-06
4.219e-05
2.057e-06
2.247e-06
4.487e-16
0.0001051
1.544e-05
2.432e-08
0.0001632
6.88e-06
5.489e-06
9.676e-09
0.0003269
7.427e-06
1.859e-05
0.006683
2.927e-07
0.006683
0.0003106
0.003856
2.14e-05
2.943e-06
4.179e-05
7.857e-06
0.006702
2.743e-05
1.95e-05
3.062e-05
7.585e-06
7.584e-06
0.001416
4.168e-06
1.162e-05
0.0002046
0.003268
0.006696
1.016e-05
0.0004436
0.0001685
2.926e-07
0.006705
2.461e-08
2.266e-08
3.27e-05
1.565e-06
0.0001995
0.0001807
8.132e-06
1.182e-05
1.814e-05
1.4e-06
0.00207
5.059e-05
2.692e-06
4.339e-05
5.453e-05
0.0002278
2.276e-06
2.472e-06
0.0001189
3.405e-05
0.006705
6.72e-06
1.804e-07
7.709e-05
0.0001337
0.0001191
7.042e-06
0.001416
6.618e-06
0.006683
1.378e-06
1.176e-05
5.225e-05
6.034e-07
0.003255
8.731e-05
0.0003695
0.006696
0.000556
1.641e-11
0.006684
3.35e-05
1.349e-05
0.0002283
2.469e-08
7.095e-06
5.997e-05
0.0006472
1.271e-05
2.37e-07
9.367e-05
5.576e-05
1.041e-05
0.0001695
7.566e-13
0.0001062
0.0002171
2.207e-05
1.775e-07
0.0001417
4.418e-05
0.000579
8.453e-06
1.31e-05
7.364e-06
5.859e-06
1.941e-08
0.006703
6.688e-05
8.837e-08
3.729e-05
4.149e-06
2.883e-05
2.135e-05
1.997e-06
0.0001518
0.00025
2.533e-07
0.0001521
1.786e-06
4.052e-06
1.631e-09
0.00187
0.0001146
1.494e-07
2.13e-05
0.0001078
6.507e-06
2.848e-06
0.0001006
2.808e-06
1.31e-05
7.853e-05
2.75e-05
0.0006478
0.0001355
5.861e-06
1.271e-05
8.056e-06
0.001916
2.352e-05
0.0007858
0.0001268
0.0001374
2.375e-07
3.987e-05
6e-06
7.255e-07
7.753e-06
0.0008359
1.229e-05
2.465e-05
0.0003094
1.064e-06
2.233e-13
3.143e-05
0.006713
0.006706
1.658e-10
0.001499
0.004525
0.0001302
0.0007353
0.0001126
1.469e-16
5.98e-06
0.0001401
2.678e-05
0.0002488
0.003602
8.35e-05
0.0001858
0.003501
2.816e-06
6.264e-05
5.701e-10
6.101e-07
2.663e-05
7.268e-05
0.0001475
5.14e-06
0.006697
4.156e-06
7.249e-06
1.962e-06
2.362e-06
1.695e-07
3.644e-05
1.474e-05
0.0001235
4.538e-05
0.0008287
0.0001733
4.85e-12
4.536e-05
0.0002324
0.0001143
3.456e-13
0.003968
9.507e-06
2.354e-05
2.727e-05
0.0001583
2.533e-07
1.642e-05
2.811e-11
3.09e-06
1.03e-05
2.018e-10
0.001366
3.499e-06
6.246e-06
2.339e-05
1.657e-05
4.738e-07
5.886e-06
0.0008092
2.767e-07
2.876e-05
8.643e-06
2.355e-05
0.0006996
4.637e-05
0.0005466
7.846e-06
2.741e-05
7.956e-05
1.951e-06
3.687e-06
1.754e-05
7.583e-06
0.0006478
0.0001587
9.662e-06
9.411e-06
1.134e-05
5.222e-05
7.292e-06
0.0004535
2.135e-05
0.002836
0.0001199
7.836e-05
0.006701
0.004722
2.28e-13
9.55e-05
0.003209
7.663e-06
0.00184
3.12e-05
4.082e-05
0.0002201
6.688e-05
0.002651
6.517e-06
3.801e-06
7.063e-06
0.0001589
1.776e-05
8.445e-06
2.909e-05
9.877e-06
0.0001025
1.59e-06
3.33e-06
2.691e-05
0.003193
4.924e-05
1.791e-05
7.11e-06
7.921e-07
3.583e-07
0.003554
0.003715
2.373e-06
2.413e-05
7.09e-06
3.594e-05
0.0003327
8.037e-05
3.626e-06
0.0002885
2.331e-05
2.258e-06
1.557e-05
7.632e-05
1.236e-05
3.652e-06
3.966e-06
0.0001027
0.003907
4.094e-05
0.006713
0.006706
2.147e-05
6.64e-06
7.673e-05
0.0001032
8.547e-05
0.0001649
2.66e-05
7.419e-06
9.996e-06
1.082e-06
7.663e-06
5.298e-05
4.518e-05
7.739e-06
1.334e-05
8.245e-06
4.052e-05
9.672e-05
1.121e-05
7.509e-05
5.751e-05
1.661e-05
6.7e-06
0.006195
3.664e-06
0.0001349
8.359e-06
8.37e-05
4.734e-06
6.02e-06
0.006698
0.001771
0.000247
2.941e-05
0.0004129
1.74e-06
0.000305
8.095e-06
4.579e-06
0.001081
4.815e-05
8.07e-06
5.566e-11
0.0001242
0.0004957
6.11e-05
7.36e-06
8.71e-06
2.18e-05
0.0003898
1.806e-07
2.371e-05
1.292e-06
3.272e-05
4.989e-05
0.004869
9.708e-06
1.233e-05
4.931e-07
7.43e-06
3.172e-06
9.938e-06
3.593e-06
7.275e-05
0.0009686
1.192e-06
0.006698
2.831e-05
0.0001357
2.499e-05
2.504e-05
0.0001849
1.1e-05
0.006705
8.146e-06
8.285e-06
7.822e-06
4.242e-05
0.0001195
1.217e-05
5.218e-05
0.0001058
7.587e-06
2.393e-05
5.123e-06
0.0001114
1.831e-06
7.971e-05
0.00187
0.0001247
7.817e-06
2.115e-06
3.464e-05
2.204e-05
0.0001077
0.00668
7.241e-05
8.425e-05
8.324e-05
1.042e-05
0.006698
2.17e-05
4.365e-05
0.000357
0.002828
0.006695
5.921e-06
0.0001808
6.466e-06
0.0002247
2.494e-06
0.002723
3.035e-06
0.0002449
0.0001923
7.356e-05
8.708e-06
2.963e-05
3.003e-05
2.263e-05
5.372e-05
7.446e-06
2.284e-05
0.0001446
1.999e-05
1.172e-05
6.736e-06
2.97e-05
5.179e-07
7.259e-06
0.0008229
0.000869
1.431e-05
5.139e-05
0.006673
0.0001224
4.404e-05
0.0001973
2.524e-05
0.0001827
0.006651
1.725e-06
4.335e-05
1.992e-05
9.715e-06
5.871e-08
2.871e-06
3.303e-05
3.581e-07
6.902e-06
1.043e-05
1.308e-05
0.006525
2.312e-06
0.0005312
3.618e-06
8.149e-06
7.78e-06
5.842e-06
4.209e-15
0.0001141
9.003e-07
0.0004234
9.194e-07
0.004676
5.744e-08
0.0009042
0.0001327
2.798e-05
3.535e-15
1.571e-11
9.967e-13
0.006698
5.768e-05
3.826e-06
0.003618
0.0001509
1.456e-05
0.0001386
7.226e-05
7.447e-05
8.702e-06
0.0001217
1.015e-05
0.0009623
0.0001869
9.456e-11
3.507e-06
7.288e-06
4.154e-06
0.003941
4.079e-05
0.0007679
3.474e-05
0.006285
2.153e-06
6.236e-08
1.251e-05
0.006677
1.434e-05
0.0001913
1.526e-06
6.543e-06
1.007e-06
4.515e-05
0.0004913
6.827e-06
1.284e-05
0.006674
2.887e-05
2.456e-05
4.369e-06
4.739e-06
4.892e-05
4.826e-05
3.209e-05
2.143e-05
7.847e-06
0.0001535
7.479e-05
0.002394
1.56e-06
7.467e-05
8.352e-06
9.775e-06
0.0001298
0.006703
0.006701
9.862e-06
5.262e-05
1.084e-06
0.003192
0.004612
9.636e-06
1.407e-06
0.0001706
8.333e-06
1.202e-05
6.485e-06
4.013e-05
0.0006826
0.006684
1.706e-05
9.212e-05
8.787e-06
0.004709
1.049e-05
1.17e-05
6.317e-05
0.0004957
8.372e-06
0.00309
0.0001254
0.000156
5.103e-05
0.005069
6.109e-05
2.356e-05
5.421e-09
0.00665
7.096e-06
6.014e-07
0.006694
2.51e-05
0.002691
5.802e-06
1.296e-05
0.0067
4.042e-05
8.05e-06
4.058e-07
2.981e-05
9.829e-06
8.228e-06
8.697e-06
1.264e-06
8.047e-06
3.209e-06
4.72e-06
8.607e-05
6.799e-06
2.601e-06
0.005425
3.13e-06
0.005645
8.626e-07
0.0005445
8.6e-06
0.00668
0.002753
0.0002809
5.167e-06
6.02e-05
0.006474
0.006684
2.24e-05
1.169e-05
3.763e-05
3.284e-06
0.0002064
7.046e-06
7.29e-05
7.961e-06
9.785e-06
4.821e-05
1.531e-05
0.006473
1.889e-05
9.41e-06
9.102e-05
2.361e-05
0.002139
0.004614
1.766e-05
2.478e-07
1.307e-05
8.98e-08
0.000608
0.003238
0.0001068
2.694e-05
0.0001504
1.93e-05
9.355e-05
0.0007497
4.632e-05
3.441e-05
8.616e-06
1.884e-05
1.358e-15
2.747e-06
0.0001473
5.7e-05
7.696e-05
3.664e-05
8.447e-06
4.222e-05
0.0003026
1.208e-05
2.737e-05
2.826e-05
0.006682
7.246e-06
1.473e-05
2.859e-06
0.006676
0.006682
1.157e-07
0.000558
7.11e-06
2.752e-05
4.935e-06
4.922e-05
1.197e-05
2.243e-06
6.57e-06
5.211e-07
0.006708
0.006674
3.592e-06
7.825e-06
3.13e-05
3.113e-06
1.51e-07
0.000174
2.15e-06
9.353e-05
9.628e-05
0.003665
2.546e-06
0.0001971
6.124e-07
7.451e-13
1.168e-05
8.629e-06
0.0001189
0.004833
8.745e-06
6.995e-06
1.181e-07
5.761e-05
1.803e-05
9.788e-06
1.18e-07
7.336e-05
6.473e-06
4.783e-05
6.747e-07
8.332e-06
1.802e-05
5.926e-05
5.433e-05
5.402e-15
1.758e-05
0.0001148
3.214e-06
9.605e-06
8.296e-06
0.006694
7.601e-05
4.259e-05
0.0001885
0.002996
1.011e-07
8.325e-05
8.356e-06
0.003084
3.108e-05
9.681e-05
3.973e-05
2.222e-05
0.003735
0.0001414
6.288e-06
4.53e-05
1.675e-05
0.001322
7.419e-06
1.053e-06
0.002307
2.663e-05
4.433e-05
3.492e-05
0.0001151
2.875e-05
1.166e-05
7.983e-06
8.867e-05
0.006636
0.000162
7.652e-05
1.015e-06
7.815e-06
1.947e-05
0.0001489
5.191e-05
0.006654
0.0001154
4.685e-05
9.829e-06
1.127e-11
1e-05
1.905e-05
3.101e-05
0.0001628
4.396e-05
0.006697
9.117e-16
8.551e-05
2.816e-05
9.026e-06
0.0001372
4.75e-05
0.0001169
5.009e-06
0.006683
4.393e-05
7.81e-05
0.003467
9.273e-05
3.623e-06
7.188e-06
1.733e-05
0.006666
7.05e-05
0.0001229
0.006638
0.006662
2.384e-05
4.972e-05
0.0002056
2.864e-05
0.0001886
2.045e-08
5.247e-05
6.239e-06
0.006683
0.0001273
0.000108
3.414e-06
1.985e-06
5.664e-06
0.002756
0.004228
0.0001921
1.096e-05
0.006683
9.255e-05
1.476e-06
8.633e-06
8.189e-06
0.006196
0.0001741
8.489e-06
0.006698
7.756e-06
0.006683
6.245e-06
1.133e-07
3.732e-05
1.439e-05
7.762e-07
0.002029
3.741e-05
1.609e-05
2.148e-06
1.199e-05
8.162e-06
8.677e-08
2.001e-05
5.794e-05
9.657e-06
2.844e-06
0.0067
3.219e-05
3.836e-07
1.562e-06
2.67e-05
7.209e-06
0.002856
0.0001975
1.654e-05
6.505e-07
5.923e-06
3.249e-06
6.134e-10
2.572e-06
5.404e-06
6.276e-05
9.273e-06
5.114e-05
2.049e-07
0.0004157
7.369e-06
0.004729
0.005146
8.373e-06
0.0003043
1.933e-05
0.0001166
5.641e-07
0.0002114
0.000477
1.671e-06
3.012e-06
0.004067
8.893e-05
0.0001516
0.0005639
3.641e-05
3.097e-09
0.0001426
3.48e-05
1.28e-06
1.937e-05
1.232e-05
0.006702
7.766e-06
6.129e-07
0.006242
4.574e-05
0.0001105
3.233e-05
0.00667
0.0002132
6.974e-05
3.494e-09
1.528e-05
4.439e-09
9.629e-05
8.792e-06
4.294e-06
2.887e-07
2.551e-05
0.005686
2.292e-07
4.061e-06
0.005317
7.694e-06
1.374e-10
5.349e-05
1.402e-05
2.687e-05
0.0001063
1.075e-07
2.935e-08
8.228e-06
0.00055
0.006698
3.149e-05
6.341e-06
0.0001253
4.034e-05
8.344e-07
7.532e-08
1.602e-05
3.029e-05
7.519e-08
0.0001316
1.632e-05
0.006694
0.0001768
9.219e-08
1.103e-05
7.98e-05
0.000111
0.006698
0.001247
9.758e-06
3.675e-05
5.813e-05
8.076e-06
5.954e-06
0.0001849
1.659e-05
5.779e-06
2.298e-05
2.754e-06
7.449e-06
2.761e-06
3.242e-05
2.769e-05
0.0001595
1.201e-06
6.303e-05
4.051e-08
2.772e-09
0.0001232
0.006693
0.006695
0.0001377
0.0001322
8.365e-05
0.006758
6.504e-06
7.259e-05
0.0003257
2.089e-05
1.986e-05
6.905e-05
1.209e-06
0.006705
6.747e-05
0.0003044
1.606e-08
1.661e-06
8.731e-05
7.927e-06
3.649e-05
2.89e-05
7.401e-06
1.192e-05
0.0001205
6.537e-06
8.076e-06
0.0001059
5.338e-08
0.006171
3.086e-06
2.646e-07
7.294e-05
2.561e-05
1.527e-06
0.002364
5.016e-06
3.017e-06
0.006408
0.006694
9.153e-06
5.565e-05
1.086e-10
1.585e-05
7.379e-06
1.246e-06
7.243e-05
6.927e-05
0.0001248
0.001459
5.074e-05
0.0002098
9.348e-05
5.449e-05
1.07e-06
0.0001712
0.00586
2.842e-06
7.552e-05
0.006693
4.061e-05
0.005905
0.006702
1.699e-05
7.273e-05
4.703e-06
0.006691
7.752e-06
0.006697
3.238e-06
9.448e-05
0.0001021
5.143e-05
6.354e-06
7.881e-06
4.382e-05
1.019e-05
0.002922
0.0008163
1.034e-05
5.396e-06
3.719e-05
6.29e-05
5.481e-07
4.473e-05
7.019e-07
3.179e-05
4.861e-07
1.888e-05
8.056e-06
8.198e-06
3.156e-06
6.027e-05
0.005005
3.749e-05
6.304e-05
8.603e-06
0.001902
4.061e-06
4.584e-05
8.228e-06
5.006e-06
1.288e-05
0.0001759
2.88e-05
1.971e-05
8.23e-06
5.097e-05
2.268e-07
1.145e-05
0.006601
1.344e-05
3.601e-05
0.001989
4.297e-05
2.543e-05
0.006746
4.213e-05
3.33e-05
0.0005825
2.835e-06
2.437e-05
2.245e-05
0.0001011
0.006731
5.347e-05
7.495e-05
0.005392
4.015e-06
9.418e-05
7.684e-05
6.115e-05
4.793e-05
0.0004462
4.509e-06
6.551e-09
3.123e-06
7.683e-06
0.0001063
2.064e-07
0.001616
8.301e-06
0.006698
0.0001215
4.862e-06
4.283e-05
4.998e-06
2.639e-06
1.172e-05
0.006699
4.43e-11
2.837e-05
3.584e-05
8.891e-06
3.245e-07
2.182e-05
6.993e-05
1.505e-06
7.881e-06
4.357e-05
1.625e-10
0.0001171
4.164e-06
4.666e-06
7.479e-06
3.954e-06
3.538e-05
9.614e-08
6.167e-06
0.0001308
1.335e-05
8.734e-06
7.893e-06
5.651e-05
5.064e-08
0.0003447
2.376e-06
0.0001764
8.306e-06
0.006716
0.006692
1.989e-05
2.348e-07
0.0001937
0.0008836
4.799e-06
1.37e-06
0.006698
1.067e-05
7.567e-06
1.672e-05
6.615e-09
2.396e-05
3.241e-05
1.344e-14
8.637e-05
2.296e-06
0.0001121
8.047e-06
1.571e-05
7.83e-06
2.078e-06
7.65e-06
3.465e-05
0.0004962
0.0001224
1.338e-05
9.134e-05
3.811e-05
6.794e-06
0.0001794
1.339e-07
0.0001323
9.08e-05
0.0002112
1.944e-06
1.17e-05
3.533e-05
4.59e-08
3.154e-05
1.381e-05
1.424e-05
7.721e-05
0.0001441
0.006697
9.213e-05
1.458e-05
1.347e-05
9.099e-06
7.176e-07
1.518e-06
0.006684
6.844e-06
3.65e-06
5.021e-05
2.859e-06
5.912e-06
4.284e-05
4.092e-06
0.001819
1.83e-05
0.0001345
1.308e-05
5.458e-05
0.0009129
3.118e-05
0.003464
5.066e-06
3.111e-06
0.0001511
6.761e-05
3.398e-05
0.00649
0.006678
2.232e-05
0.0001831
4.319e-05
5.407e-05
0.002381
0.002162
1.022e-06
7.714e-05
3.589e-05
1.467e-05
8.443e-06
3.161e-06
2.678e-05
8.391e-06
7.882e-05
9.215e-05
0.006682
3.118e-06
8.185e-05
7.621e-06
3.029e-06
2.347e-05
2.352e-05
0.0001305
8.427e-06
2.645e-05
5.426e-09
6.569e-05
6.683e-05
0.0001886
2.18e-05
6.744e-05
7.427e-06
3.837e-09
4.012e-05
6.18e-06
0.006684
6.217e-06
7.937e-07
0.006694
7.095e-07
1.108e-05
0.0001445
8.007e-06
0.006688
1.969e-05
1.519e-09
0.002304
4.731e-06
4.919e-05
8.206e-06
1.443e-07
4.926e-05
7.6e-05
8.295e-06
1.48e-07
0.0001432
3.542e-05
9.61e-06
4.582e-06
1.099e-06
7.428e-08
2.848e-06
0.0001012
0.006694
5.159e-06
4.283e-05
2.239e-06
3.424e-06
7.651e-05
0.0001263
0.006665
0.0001286
0.0001026
0.006263
0.0001731
0.006332
1.018e-07
0.0001548
2.545e-07
8.501e-05
7.642e-06
5.159e-06
5.006e-05
6.487e-06
6.094e-07
2.053e-06
6.863e-05
0.0001004
9.399e-06
3.42e-05
0.0001296
0.006702
8.826e-05
0.0007498
7.937e-05
0.0067
0.0001664
0.006688
5.47e-06
3.3e-05
0.006741
0.006127
9.927e-06
5.367e-05
2.437e-05
7.61e-05
0.006769
8.527e-06
6.878e-05
4.526e-05
7.48e-13
1.123e-05
2.129e-10
7.556e-06
1.06e-05
8.44e-06
5.991e-06
9.705e-05
7.175e-05
9.121e-07
0.0001758
2.481e-05
3.159e-05
1.708e-05
6.782e-06
3.333e-05
0.00669
1.923e-06
6.168e-05
5.046e-08
0.0067
2.83e-06
5.547e-06
8.096e-06
6.462e-05
0.006651
0.00665
0.0001291
6.271e-05
0.0001947
5.899e-05
8.357e-06
5.208e-05
3.191e-06
0.0003546
9.336e-05
8.268e-08
1.05e-05
0.0001164
8.449e-05
6.511e-05
2.298e-05
3.722e-05
4.506e-06
8.369e-06
0.0001403
0.001761
6.54e-05
4.493e-05
6.813e-06
7.386e-06
0.0005204
7.026e-06
0.0002522
8.05e-06
8.967e-05
1.809e-05
0.0001758
0.006693
0.0001121
1.766e-05
3.2e-06
6.113e-07
8.725e-05
0.0001099
2.926e-05
8.382e-05
0.006626
1.262e-06
5.498e-05
6.911e-09
2.577e-05
2.062e-09
8.73e-05
0.006695
1.81e-05
1.252e-06
2.841e-05
6.708e-06
1.942e-05
1.509e-05
8.404e-06
7.227e-06
0.0002697
1.699e-06
0.0001607
5.089e-06
2.873e-05
3.282e-06
0.002705
0.002702
7.946e-06
7.162e-06
3.522e-08
4.88e-06
5.9e-06
2.163e-06
2.397e-06
0.0002977
3.434e-05
0.000248
0.002186
0.006691
0.0001776
0.006492
9.876e-09
0.006695
2.195e-07
3.58e-05
5.905e-06
6.836e-06
2.937e-06
0.001419
8.766e-08
3.965e-05
9.012e-07
9.421e-05
3.788e-06
0.005122
5.186e-05
5.7e-05
9.596e-05
1.709e-07
4.723e-06
0.0001439
1.174e-06
7.634e-07
0.0002688
0.006665
6.556e-07
0.001487
0.006752
4.776e-05
3.134e-07
0.006666
1.066e-06
0.006698
9.999e-06
1.029e-05
3.142e-05
9.882e-07
0.006676
0.0001682
4.028e-05
3.035e-05
1.715e-05
3.107e-05
2.945e-05
0.004756
0.006686
9.566e-06
1.309e-10
2.479e-05
7.516e-06
0.0005855
4.272e-07
7.776e-05
4.381e-05
0.002115
1.614e-05
0.0001103
3.134e-06
0.0004369
6.291e-06
0.0006167
1.193e-05
0.006704
2.256e-06
8.527e-06
0.0001357
4.735e-07
7.189e-07
6.839e-05
0.006689
9.715e-06
3.048e-06
7.358e-05
2.786e-06
7.521e-06
2.815e-05
0.0004691
1.128e-05
1.211e-08
7.64e-06
8.44e-07
2.771e-08
0.001942
3.064e-05
0.006702
1.006e-05
2.435e-06
6.478e-06
0.006696
9.482e-07
0.006694
0.0001769
0.0001056
0.006715
3.258e-05
0.0003849
7.698e-06
2.661e-05
0.0005967
7.878e-06
0.006697
4.869e-07
1.907e-07
8.116e-05
4.117e-05
7.293e-06
0.001054
1.75e-05
9.945e-05
3.815e-06
8.734e-06
0.0001156
7.777e-06
3.569e-05
2.086e-05
4.184e-07
0.0001999
2.001e-05
1.158e-05
0.0002212
7.886e-06
9.244e-05
6.52e-06
8.197e-06
0.0002008
0.001122
1.122e-06
7.458e-05
1.844e-05
0.0001125
3.164e-06
0.0001165
7.353e-06
0.0001278
0.006667
7.737e-06
5.641e-06
0.0001909
8.479e-06
0.0004226
1.01e-05
0.006705
2.228e-05
7.227e-06
4.489e-05
5.996e-06
5.503e-06
6.11e-06
0.006696
8.386e-06
5.166e-06
8.008e-06
1.656e-05
0.0003993
8.158e-06
8.104e-06
0.006695
0.0001461
9.314e-05
0.001775
6.667e-06
3.133e-05
3.331e-05
4.746e-06
0.0001098
0.0001908
0.002248
2.904e-05
2.303e-05
0.006603
2.073e-05
5.696e-06
2.685e-06
0.006749
4.446e-05
3.717e-07
4.313e-05
1.321e-05
9.929e-05
8.157e-06
2.962e-06
0.002095
0.001202
6.285e-05
0.0008595
2.808e-05
4.487e-06
0.0001501
8.306e-07
3.375e-05
0.0003785
2.061e-05
5.173e-10
8.995e-10
4.14e-05
5.462e-05
4.78e-05
0.0002518
0.0001415
2.855e-05
0.0001631
2.919e-05
3.08e-05
2.69e-05
8.506e-06
1.296e-06
0.0001112
0.0001606
0.00306
1.552e-06
0.0001544
0.0001018
5.736e-06
4.591e-05
3.107e-06
4.212e-05
4.574e-05
0.006752
3.627e-07
7.5e-06
2.7e-05
2.757e-05
8.58e-05
3.09e-06
1.316e-06
0.0001037
4.332e-05
1.363e-07
3.404e-05
7.178e-06
4.139e-06
0.006636
1.021e-05
1.449e-06
8.163e-06
0.004723
0.0001861
0.0001414
4.783e-06
3.2e-05
0.0002167
6.905e-06
0.00543
4.377e-06
7.196e-06
0.0001694
0.0001998
0.003781
7.776e-06
8.688e-08
7.612e-06
2.252e-06
2.713e-08
0.0001147
6.942e-06
0.001412
1.323e-06
1.587e-05
0.0001612
7.519e-05
3.819e-05
1.177e-05
0.0001244
8.115e-06
0.002528
3.379e-06
2.772e-08
5.027e-07
0.0001027
2.579e-05
2.874e-05
1.01e-05
0.001069
0.0001125
8.521e-06
7.907e-05
0.0036
8.259e-06
8.117e-06
8.459e-06
5.212e-05
4.056e-05
1.765e-06
1.811e-05
7.692e-07
5.859e-07
2.019e-08
0.0001606
6.166e-06
3.331e-08
5.917e-05
1.385e-06
7.926e-05
2.633e-05
9.892e-06
5.572e-11
1.662e-05
2.379e-05
0.003099
0.0002671
1.356e-06
4.835e-05
0.003647
0.006698
7.894e-05
7.647e-06
0.0002227
5.834e-06
9.612e-08
1.296e-06
0.0009429
6.412e-06
0.0001737
7.157e-05
7.76e-06
3.53e-05
0.0001994
7.363e-06
8.347e-05
0.000115
2.852e-05
0.006698
9.963e-07
9.242e-05
8.042e-06
0.0001115
7.691e-06
1.093e-05
4.274e-05
6.492e-06
2.043e-05
2.885e-05
8.123e-06
1.189e-06
8.498e-06
0.0001203
0.0001349
0.0001276
3.04e-05
6.951e-05
2.092e-07
5.833e-05
0.004699
6.09e-05
7.94e-05
8.342e-06
6.293e-06
0.0007165
1.945e-05
4.313e-05
1.396e-05
0.002975
2.081e-05
0.0001823
0.0001073
0.0001659
1.109e-05
8.183e-05
7.908e-07
0.0001685
0.0001884
1.406e-05
0.006676
0.0001696
3.971e-05
0.0001501
3.958e-05
0.006689
0.0001279
4.895e-06
1.324e-06
0.006697
0.0007075
0.0002148
1.778e-05
8.526e-06
0.0007553
1.07e-05
0.0001164
2.643e-07
3.901e-06
6.158e-05
8.517e-06
2.697e-05
0.0004946
8.232e-06
8.556e-08
3.477e-05
1.119e-07
3.657e-06
3.521e-05
3.012e-06
0.00318
0.006666
1.048e-05
6.711e-05
3.046e-06
0.006698
1.994e-05
4.019e-05
9.505e-09
4.998e-05
6.533e-06
0.006299
0.00644
8.045e-06
4.654e-05
9.914e-05
2.195e-06
3.833e-05
4.468e-05
0.0001601
0.006705
7.142e-06
1.641e-06
7.579e-06
0.0001214
1.195e-06
0.0001647
2e-05
0.006732
3.216e-05
2.21e-06
7.148e-06
5.328e-07
6.235e-05
2.069e-06
1.532e-05
1.382e-05
7.058e-06
4.233e-05
7.419e-05
0.0001294
6.418e-06
1.085e-07
0.004608
0.005137
7.149e-05
5.365e-05
4.279e-07
8.051e-06
2.192e-06
3.311e-05
0.001186
0.005232
6.359e-06
0.006702
8.18e-05
5.116e-08
4.141e-06
0.0001093
7.616e-06
0.0001373
3.139e-07
2.015e-06
0.002061
2.614e-05
3.612e-05
7.563e-06
0.000172
1.289e-05
7.579e-05
2.578e-05
3.079e-05
0.0001722
2.054e-05
0.0001064
1.415e-07
2.611e-06
8.065e-05
4.112e-05
5.256e-08
7.533e-05
1.055e-05
2.967e-05
6.205e-07
6.631e-06
2.385e-05
8e-06
0.0001321
2.611e-05
0.001032
0.0001654
0.006703
7.724e-06
4.359e-05
6.866e-06
5.783e-05
4.265e-05
2.233e-05
3.025e-09
1.815e-06
2.967e-05
8.377e-06
2.442e-06
1.439e-05
0.0006479
0.0001568
1.072e-05
4.037e-06
9.495e-05
0.0001527
0.0006589
7.209e-05
0.003904
1.007e-05
1.028e-07
7.163e-05
2.59e-06
0.0001904
6.231e-05
1.9e-05
0.006717
1.366e-05
0.0001137
0.0002131
9.321e-07
0.0001914
3.445e-05
7.912e-05
3e-05
6.322e-06
1.463e-05
4.352e-06
3.528e-06
5.484e-06
0.006714
0.0001369
9.601e-06
8.591e-07
4.134e-07
1.101e-05
3.03e-05
1.925e-05
0.003113
3.623e-06
2.535e-06
7.017e-06
5.619e-06
7.809e-06
1.594e-05
7.31e-06
1.91e-06
5.502e-06
2.292e-05
1.02e-06
1.106e-07
6.038e-05
5.393e-05
2.903e-07
0.001718
4.814e-05
0.002454
0.006699
5.874e-06
0.001949
8.065e-07
1.029e-05
3.429e-05
1.033e-05
8.088e-06
1.591e-05
0.0001057
2.67e-06
7.472e-05
0.0001699
2.49e-10
7.794e-05
0.0001161
0.0003327
5.039e-09
3.211e-05
1.875e-06
4.065e-07
0.003101
1.496e-05
6.52e-06
8.492e-05
4.393e-05
4.001e-07
2.888e-06
2.275e-05
0.0001084
7.829e-05
0.0001168
3.521e-05
0.006701
4.471e-05
4.579e-05
1.39e-05
1.53e-05
7.073e-06
1.783e-07
9.931e-05
0.003411
3.527e-05
9.873e-05
5.863e-05
9.603e-06
5.437e-05
9.776e-07
8.387e-06
1.522e-07
6.845e-06
6.82e-05
6.805e-06
5.588e-06
0.000116
5.742e-05
1.812e-05
3.617e-09
3.562e-05
8.045e-06
8.022e-06
0.00658
4.11e-06
4.201e-05
0.0001496
8.846e-05
7.766e-06
2.768e-05
4.253e-06
3.577e-05
2.926e-05
1.121e-07
0.006164
1.321e-08
3.466e-05
7.272e-05
2.23e-05
3.863e-07
0.004929
5.024e-05
5.872e-05
3.109e-05
3.419e-07
1.986e-05
2.591e-05
2.705e-06
0.0001538
8.415e-06
0.006742
0.006731
7.075e-06
1.856e-05
1.984e-05
1.669e-05
7.715e-06
0.006688
1.59e-05
5.32e-06
1.028e-05
0.002326
0.002891
8.246e-06
2.471e-05
6.669e-06
1.864e-07
3.048e-07
0.006144
3.837e-06
1.505e-09
9.006e-05
7.305e-06
4.237e-06
0.001864
0.0001041
2.214e-05
6.054e-05
0.0001376
0.006652
0.006612
0.006635
0.006357
0.0005532
0.0001842
2.38e-05
1.738e-06
5.275e-05
2.94e-05
5.104e-05
1.789e-05
0.006108
5.772e-05
0.0001261
1.175e-06
2.231e-05
6.614e-07
4.203e-05
8.667e-06
8.257e-06
1.039e-05
7.078e-06
0.0003287
8.094e-06
7.381e-10
1.596e-06
5.457e-06
2.771e-06
6.615e-06
0.00546
5.842e-09
9.172e-05
1.254e-06
4.692e-05
0.0001118
3.586e-09
0.006696
7.964e-05
2.803e-05
0.00508
3.084e-05
0.0001372
2.658e-05
7.504e-05
1.001e-06
4.698e-05
4.575e-05
0.006633
5.849e-06
8.222e-06
6.897e-05
0.0001415
1.013e-05
0.006716
0.003069
2.403e-05
1.173e-05
1.492e-05
0.0003894
4.281e-05
2.291e-05
0.0001059
1.585e-06
8.266e-06
3.558e-05
0.0001458
0.0001893
0.0001485
0.0001821
1.308e-08
1.936e-06
0.004787
1.625e-08
0.00452
0.006558
3.983e-05
0.001412
1.281e-06
0.0001304
1.923e-06
0.0001619
5.89e-06
0.006697
0.000347
3.735e-05
7.296e-06
0.0001574
0.003445
5.649e-05
1.094e-08
1.532e-05
0.006702
1.259e-05
1.399e-05
6.308e-10
0.001968
3.589e-05
1.613e-05
0.0001027
0.000429
4.496e-05
4.836e-06
2.675e-08
5.089e-06
8.135e-06
3.209e-12
0.004992
7.032e-06
1.982e-05
7.149e-06
0.006696
7.57e-06
2.774e-08
8.325e-09
5.28e-07
0.0002079
1.61e-05
7.673e-08
0.0004076
0.0001206
0.00669
4.569e-05
2.188e-05
3.204e-05
3.92e-05
6.222e-07
5.239e-05
5.898e-05
1.063e-05
0.006706
0.001797
3.477e-06
2.462e-05
6.437e-05
2.878e-07
2.682e-05
0.0001843
0.0001134
1.038e-05
2.271e-05
0.000137
0.00516
7.078e-06
8.846e-06
7.004e-06
5.146e-05
7.325e-06
3.999e-06
1.159e-06
1.7e-07
4.996e-06
7.136e-11
4.781e-06
0.0002816
1.062e-06
0.0002836
8.004e-06
3.355e-07
0.004585
5.908e-09
0.006705
0.0001015
5.235e-06
1.686e-06
1.961e-05
4.013e-06
3.131e-06
4.857e-06
0.006647
1.501e-09
8.453e-06
0.002098
9.21e-05
7.895e-05
8.916e-09
5.851e-06
4.272e-10
2.967e-05
9.174e-07
5.146e-07
2.087e-05
1.825e-05
8.095e-06
1.19e-05
0.006673
0.0001347
8.797e-06
4.06e-05
9.144e-06
0.0001444
0.0001037
7.956e-06
7.377e-06
2.585e-06
6.964e-06
0.003849
7.425e-06
2.789e-05
8.882e-06
6.448e-05
0.002249
6.445e-05
1.026e-05
2.992e-05
3.122e-05
1.97e-07
0.002129
0.002058
6.862e-05
7.204e-06
1.603e-05
0.0001584
3.028e-05
0.006489
0.0002149
8.446e-06
0.006343
6.159e-05
6.017e-07
0.0001162
6.577e-05
0.0001259
1.139e-07
1.287e-07
2.547e-06
6.157e-05
6.649e-06
0.0001062
3.329e-05
5.2e-05
2.352e-05
2.938e-06
0.0001499
1.592e-07
7.47e-06
1.639e-07
4.988e-06
4.017e-05
8.402e-09
0.0001871
7.887e-06
1.315e-05
0.002602
8.851e-06
0.0001034
0.001261
1.642e-05
8.295e-07
8.953e-05
5.584e-06
1.018e-05
1.19e-09
2.049e-09
0.0001905
2.718e-12
0.0007244
3.969e-05
9.146e-05
0.0001352
2.155e-05
0.006705
5.662e-06
2.949e-07
6.87e-05
8.53e-06
4.287e-05
1.328e-05
5.789e-06
7.13e-05
0.0001217
2.354e-05
0.0002036
1.474e-05
3.643e-05
0.00516
6.899e-05
6.876e-06
0.006701
0.000482
2.216e-06
0.006698
2.07e-05
5.928e-05
7.255e-06
5.708e-05
6.114e-06
0.001392
5.612e-05
2.962e-05
1.91e-06
8.406e-09
1.015e-06
8.523e-06
0.006687
1.893e-06
0.006715
0.0005096
9.076e-05
4.948e-05
2.84e-06
6.856e-05
8.161e-06
2.922e-05
1.009e-06
1.994e-05
0.0008228
0.0001085
6.079e-05
0.006675
7.637e-05
0.006697
2.507e-06
2.099e-05
4.417e-06
0.0001326
0.00666
4.15e-05
7.812e-06
1.125e-05
1.292e-08
2.685e-05
7.525e-06
0.0003771
4.004e-05
9.589e-05
4.477e-05
3.576e-05
1.127e-05
0.0002006
6.502e-06
0.0001222
3.445e-06
7.156e-06
0.006631
0.006749
0.001397
0.0003085
3.888e-06
1.796e-06
3.272e-05
0.001454
8.277e-06
6.448e-06
8.038e-06
0.006698
4.752e-06
2.548e-05
6.018e-06
0.002301
2.197e-09
1.74e-05
6.577e-06
0.003179
0.0005007
9.651e-07
0.0002487
8.192e-06
1.883e-06
1.686e-06
7.785e-05
4.565e-05
0.006698
4.517e-06
6.88e-06
6.782e-06
0.0001065
9.951e-06
4.188e-05
0.0001703
5.77e-06
4.195e-07
0.006699
4.582e-05
9.539e-06
1.367e-05
4.7e-06
0.006702
1.916e-05
1.859e-05
9.771e-05
4.037e-05
2.638e-05
3.186e-06
0.0001593
1.145e-05
1.594e-05
0.0001965
3.998e-05
2.27e-05
0.005186
4.46e-06
2.745e-06
0.0001011
4.33e-05
1.366e-05
1.146e-05
5.528e-05
0.006696
0.0002246
0.0003262
0.003189
6.106e-08
8.843e-05
0.006698
0.0006929
8.241e-06
1.141e-08
0.006698
0.0001932
3.445e-07
8.029e-06
4.027e-05
3.43e-05
4.134e-07
3.01e-05
4.884e-06
8.364e-06
1.132e-08
1.785e-05
0.001225
9.439e-05
1.365e-05
9.459e-05
0.006685
0.000487
9.683e-05
0.0001573
4.483e-05
7.051e-06
5.035e-08
9.831e-05
3.039e-05
1.142e-08
2.518e-05
3.031e-06
0.0001676
3.522e-05
9.433e-05
1.073e-06
2.106e-07
0.00669
2.447e-05
6.297e-06
0.006698
1.054e-05
0.0001124
8.205e-06
0.0002668
7.989e-06
8.413e-06
7.808e-05
1.695e-05
0.004629
0.001623
0.0001107
4.237e-05
0.006769
2.118e-05
0.0002061
3.355e-07
0.0001784
8.332e-05
3.82e-06
8.399e-06
7.305e-05
6.667e-06
0.006714
5.834e-07
7.521e-06
3.96e-07
8.448e-06
6.165e-05
1.485e-06
1.759e-05
3.32e-05
1.796e-06
3.386e-05
2.585e-06
0.006701
0.006692
0.0001508
3.043e-05
0.006685
6.683e-09
7.391e-06
1.443e-06
1.126e-05
1.896e-05
6.668e-05
0.00502
7.408e-09
0.0007041
5.407e-06
0.006753
1.137e-05
1.755e-05
0.0001623
8.482e-05
7.964e-06
0.0001011
1.557e-05
0.006661
6.186e-05
2.812e-06
9.055e-07
1.36e-05
0.0003832
0.0001178
2.209e-05
0.006699
1.801e-05
4.815e-05
0.0001572
0.0001883
9.617e-05
3.373e-06
0.005935
0.006716
1.593e-05
8.527e-06
0.0001959
1.723e-07
0.006701
3.29e-06
9.667e-05
6.37e-06
0.006701
7.05e-05
8.568e-06
1.979e-06
2.501e-05
9.314e-05
2.261e-06
0.006721
3.991e-07
0.004734
2.779e-05
6.196e-08
0.0008687
7.059e-05
4.849e-05
3.566e-07
8.537e-08
1.388e-05
7.92e-05
0.006661
1.848e-05
9.694e-05
0.006701
3.58e-05
5.09e-06
2.303e-05
0.006773
0.0001992
6.804e-05
0.000101
6.32e-06
0.0001156
0.004048
2.047e-06
5.501e-06
4.487e-06
0.0004332
0.006698
0.006603
0.0006862
2.225e-05
7.328e-05
8.296e-06
2.775e-06
3.162e-07
5.759e-06
1.213e-08
1.194e-06
0.001283
3.116e-06
2.303e-05
2.102e-06
0.0001016
6.808e-05
1.473e-05
3.061e-07
2.509e-05
8.256e-08
7.171e-05
0.0003268
9.148e-05
2.509e-06
7.338e-06
1.086e-05
0.0002427
5.117e-05
2.959e-05
1.155e-06
0.00409
6.881e-05
3.525e-05
1.689e-05
4.948e-06
2.816e-05
3.171e-06
1.116e-05
0.006665
3.177e-08
6.671e-05
0.006752
4.595e-06
0.006696
2.937e-05
5.535e-05
0.001457
2.958e-05
7.011e-06
0.006707
2.758e-05
3.202e-05
3.942e-07
0.0006416
1.093e-05
7.166e-06
6.614e-05
0.006692
1.234e-06
0.0001652
0.000516
1.281e-05
6.211e-05
8.336e-06
4.989e-08
8.736e-06
3.065e-05
1.855e-05
1.064e-05
3.525e-06
0.006702
0.0002628
3.529e-06
8.284e-06
5.916e-05
0.006701
6.321e-10
8.161e-06
1.094e-05
5.019e-05
0.0001036
1.955e-05
0.00667
0.0004051
6.401e-05
8.021e-05
2.602e-05
6.962e-06
7.313e-06
3.037e-05
6.365e-06
6.596e-06
6.005e-05
4.502e-05
5.079e-05
1.195e-05
2.061e-05
3.153e-05
0.006701
3.045e-05
0.0009933
0.0001612
6.325e-05
7.731e-05
3.169e-06
9.818e-05
1.427e-08
1.913e-05
1.376e-05
0.00233
0.006693
5.862e-05
1.41e-05
1.115e-06
1.676e-05
0.0001146
7.523e-06
5.486e-07
7.4e-06
2.135e-05
2.64e-05
3.434e-06
7.979e-06
9.83e-06
7.745e-05
8.279e-06
4.832e-05
2.619e-06
2.381e-05
2.782e-05
0.0001525
8.12e-06
0.006694
5.632e-05
0.0007139
0.006692
7.435e-05
8.303e-06
0.0002521
1.626e-12
7.231e-06
1.403e-05
0.006699
8.381e-06
5.159e-05
0.002973
1.316e-05
9.149e-06
1.356e-06
1.24e-05
9.797e-06
0.006698
2.06e-05
0.006721
7.747e-05
3.751e-05
2.416e-06
6.196e-05
3.458e-06
2.618e-12
0.006607
0.006694
1.063e-05
5.525e-06
8.52e-06
0.0001852
5.682e-06
8.233e-06
3.582e-05
0.0001588
0.001286
3.408e-06
1.497e-06
1.446e-05
0.0001541
0.00669
7.923e-06
4.965e-05
6.783e-06
7.845e-06
8.448e-05
0.0006264
2.616e-06
1.636e-05
0.00028
5.83e-05
3.106e-05
7.884e-05
0.006708
0.006354
7.523e-06
5.051e-07
1.722e-05
3.555e-05
0.000143
0.0001988
8.073e-06
2.203e-05
0.006629
5.041e-06
1.319e-05
5.688e-07
1.393e-05
1.449e-05
0.006685
7.928e-06
7.057e-06
9.876e-06
1.221e-05
7.029e-06
2.142e-05
7.362e-06
5.832e-06
8.016e-06
8.121e-06
9.395e-07
6.354e-05
0.002017
4.015e-05
5.807e-05
4.332e-08
0.00049
0.0001715
8.613e-06
1.238e-05
0.0001873
2.27e-06
4.357e-05
5.815e-07
8.844e-05
9.327e-07
1.736e-05
6.585e-05
2.494e-05
5.647e-07
0.000153
2.545e-06
2.037e-08
0.004879
1.906e-06
4.117e-06
1.04e-06
1.713e-05
7.282e-06
5.592e-05
4.415e-05
8.397e-06
3.262e-05
2.956e-05
1.525e-05
0.0001502
8.943e-05
0.0001671
0.0001436
1.253e-05
0.0001458
6.533e-05
7.096e-07
3.369e-05
2.306e-07
8.322e-06
7.835e-06
0.006656
3.529e-05
7.234e-05
1.219e-05
4.001e-05
6.85e-06
3.951e-05
4.474e-06
0.0001013
1.712e-05
7.523e-05
3.474e-05
7.846e-05
0.0004694
0.0001201
0.0001226
1.705e-05
6.516e-05
3.531e-05
1.776e-05
7.529e-06
0.000133
5.538e-06
1.981e-05
3.727e-10
2.659e-05
4.034e-05
3.497e-05
2.375e-05
9.349e-05
2.355e-06
0.004008
0.002157
0.005378
0.000148
8.28e-06
1.337e-05
0.0002047
4.852e-06
0.0001262
4.82e-05
2.222e-10
7.574e-06
7.072e-07
6.36e-06
7.033e-05
7.361e-06
6.095e-07
0.0005172
3.036e-05
0.006698
9.651e-06
7.178e-05
2.662e-05
5.014e-05
0.006685
0.006682
4.619e-05
6.277e-05
0.0001104
1.302e-06
8.075e-06
0.006678
0.006698
9.004e-06
0.0002134
3.843e-07
4.812e-07
0.00584
3.898e-05
3.187e-06
1.87e-06
2.58e-05
1.421e-06
7.864e-06