/*--------------------------------*- C++ -*----------------------------------*\
  =========                 |
  \\      /  F ield         | OpenFOAM: The Open Source CFD Toolbox
   \\    /   O peration     | Website:  https://openfoam.org
    \\  /    A nd           | Version:  8
     \\/     M anipulation  |
\*---------------------------------------------------------------------------*/
FoamFile
{
    version     2.0;
    format      ascii;
    class       volScalarField;
    location    "30";
    object      omega;
}
// * * * * * * * * * * * * * * * * * * * * * * * * * * * * * * * * * * * * * //

dimensions      [0 0 -1 0 0 0 0];

internalField   nonuniform List<scalar> 
127143
(
2.183e+06
4.105e+06
4.682e+06
1.997e+06
1.676e+05
2.021e+06
6.622e+04
1.157e+05
1.848e+05
2.697e+04
9.739e+04
1.521e+05
5.509e+06
1.69e+06
120.1
5745
5.655e+05
1.866
10.72
3921
62.98
4182
0.1259
150.5
4495
626.7
1792
1967
1277
0.9136
246.3
640.1
4260
467.3
0.05799
4155
51.58
5.416
103.9
734.5
10.7
2.119
1.332
7.844e+05
1.869
457.5
1217
65.47
131.3
117.9
4816
0.02871
53.59
0.3887
0.02096
250.7
0.02095
0.3988
0.02294
0.385
0.9011
17.48
35.62
0.02211
628
0.9424
0.07131
42.37
42.21
0.06925
177.5
1773
34.46
0.02294
0.0218
1903
0.02453
92.66
247.5
0.02222
1059
3515
327.9
599.6
53.57
88.96
76.94
2444
0.778
415.7
0.02391
0.5682
230.7
62.99
189.6
0.7973
1.875
318.1
88.43
0.07006
0.02221
122.8
1867
2.343
88.52
90.5
41.6
0.06947
3.863
0.02133
117.6
2471
108.7
31.72
0.02183
1.313
0.02486
0.0218
0.02434
1.646e+04
0.02134
285.1
13.09
0.2185
1079
757.2
30.82
0.0255
137.5
240.2
119.6
203.4
19.69
92.34
6.409e+04
119.3
0.06609
36.58
546.7
0.05931
0.2055
0.02358
31.28
17.76
51.7
62.53
5866
0.02213
204.3
2633
4.716
110.4
4.283
0.1129
40.95
54.53
0.3983
273.6
65.26
426.6
157.3
5338
0.02399
119.3
553.3
585.4
61.71
1.442
1672
0.03008
159.2
17.74
1.719
7.459
0.2064
27.45
54.85
137
125.3
0.0363
7.448
0.03804
26.86
27.27
241.7
16.54
0.1851
33.9
138
0.03608
84.72
179.1
0.05959
128.7
1.171e+05
25.16
0.01952
0.01947
1.587e+04
0.02206
0.02182
0.0301
0.2078
52.92
6.339e+05
59.49
0.06233
6.813
0.7544
0.02183
0.2282
45.24
0.02185
1681
129.4
1.418e+04
336
7.035
148.4
0.06265
44.26
0.02185
110.3
44.34
415.2
167.2
427.1
5.223
71.75
59.91
69.36
0.03771
29.53
1.148e+04
69.14
0.1114
119.8
2.561e+05
0.02182
62.91
169.1
553.3
41.48
270.4
13.95
1.325e+04
65.9
1733
9734
0.08311
11.29
610.6
8.548
35.61
172.9
3.966
0.02542
1204
3.624
0.0899
23.03
0.0307
0.5339
0.02341
35.96
576
116.8
53.42
1.813
4.555
456.8
0.2046
60.1
63.52
22.26
79.11
108.1
94.09
0.345
3.73
0.04775
2.392
2.305
0.02179
0.0218
1.087e+05
143.2
0.02185
105.4
0.03781
4.042
0.3865
0.1111
2.339
0.02222
6.474
216.2
96.98
41.73
3.959
325.4
0.7734
0.659
1.204
492.4
25.64
6.779
0.02188
3.986
9.753
45.98
268.6
311.4
0.03853
0.02181
239.7
8.832
318.5
0.3004
0.6875
0.1173
189.7
0.03311
8.568
250.1
14.68
0.03852
77.97
205.4
46.21
36.75
0.0218
0.05685
0.01953
0.01948
0.11
3.748
1.716
36.76
159.9
0.0575
7.039
40.75
71.33
26.58
105.1
264.2
132.9
313.9
178.1
273.9
5.014
33.06
78.62
0.03355
241.2
35.59
47.43
0.02446
205.2
54.67
29.97
0.7342
111.1
115.4
0.02193
0.02204
1.031
421.5
0.3833
4.456
0.03332
448.2
125
0.03417
0.1177
198.5
9669
79.3
0.3216
1.146
729.1
237.7
0.7647
0.02471
1731
0.04954
703.4
26.48
3.211
0.02231
0.4117
74.9
158.8
136.6
235.3
0.4269
198.6
0.03325
0.03018
603.7
0.02185
52.73
26.35
0.05134
7.063
86.46
17.91
0.02222
108.3
11.38
304.3
0.2076
64.84
11.24
187.7
107.7
469.6
5.22
45.96
61.18
472.4
132.2
0.06386
60.69
0.1088
1.117
0.1288
510.1
0.07667
0.02116
128.4
34.62
0.3621
25.36
0.02192
8.196
277.5
0.02827
0.02219
0.02173
102.1
0.06709
4.523
0.02635
315
0.02189
48.18
1.05
45.1
76.95
206.8
5.983
460
0.04952
63.19
359.5
424.6
58.58
3.611
16.09
64.52
6.817
12.52
74.21
0.161
0.02262
50.33
222.7
0.02079
68.67
0.5534
0.2184
8.39
0.05325
0.02029
46
0.5112
121.9
26.15
935.8
45.66
346.4
313.9
9.151
25.32
18.23
0.02171
340.8
0.02368
152.9
68.19
62.03
64.32
1.983e+05
115.2
10.24
0.1259
19.14
0.02176
903.2
0.0227
37.48
22.74
2.882e+05
1.48e+04
4.701e+04
0.02194
239.7
105.2
0.02181
40.75
16.77
93.54
2.562
78.32
208.6
68.61
790.9
0.1384
35.51
9406
62.65
317
134.2
0.02271
4.322
0.1753
5.81
0.02409
363.2
3303
84.42
0.01971
50.28
0.127
231.3
11.03
2537
4.402
0.0239
95.39
7.385
0.02082
0.7688
4.228
186
110.6
226.3
147.4
25.87
9.024
31.74
88.75
127.9
0.02245
609.5
137.6
322.4
22.49
50.26
0.02213
0.02207
0.08284
263.6
27.81
0.02184
0.02702
5.228
128.7
84.61
9.129
186.2
409.2
1.955
0.02375
0.02134
125.1
80.88
19.73
0.03003
1741
16.39
181.9
0.3187
452.8
0.02185
84.7
25.66
2.978
0.02399
122.4
23.06
2154
0.02027
38.69
337.9
0.02172
7.05
0.02187
72.63
18.28
0.02179
283.2
179.4
333.5
150.6
24.89
274.8
238.2
39.8
94.2
190.3
106.8
30.49
50.87
405.8
0.026
255
0.02179
22.13
0.02596
30.31
0.02117
0.02185
0.4916
45.76
97.03
0.02134
0.02117
66.44
2525
300.7
293
47.53
4.45
73.06
12
69.8
142.8
741.2
0.02136
317.2
64.11
0.6745
1.832
0.02433
0.02698
12.74
453.1
18.24
717.2
0.02585
0.03393
107.1
322.1
0.02969
581.9
0.1832
0.1518
160.3
3.404
58.65
0.1686
4.946e+05
153.6
59.1
61.9
143.1
225.3
419.3
355.8
0.02736
118.7
54.99
52.49
0.02122
89.53
0.6536
0.5401
0.0197
0.0212
555.2
0.1261
221.7
182.9
29.09
3.989
1.396
354.1
0.1554
150.2
0.02169
0.0209
15.07
0.1143
404.1
0.4636
407.8
42.64
89.83
0.1911
0.6848
0.03076
314.3
0.0535
183.4
6.966e+04
15.41
31.26
75.42
0.02498
30.32
115.1
725.9
3.444
11.79
69.7
2281
108.2
41.17
14.11
124.3
38
9.699
30.43
0.4304
1.067e+06
0.6426
0.02966
41.64
17.86
67.68
0.02156
33.13
4.713
84.07
0.03614
753.4
130.3
442.9
0.03723
364.2
33.41
315.9
200
0.03172
76.34
119.5
235.6
38.14
0.02215
40.77
78.94
0.02222
6.938
1.118
210.4
114.7
0.6567
15.47
536.4
111.7
0.01935
76.32
23.8
655.2
301.4
0.4264
40.01
143.4
0.01941
93.82
158.1
25.65
8168
25.11
81.55
83.43
41.14
2.248
0.02193
7.981e+05
130.4
140.5
177.4
67.11
62.44
95.41
140.3
0.02132
4.584
2.327
0.03225
113.4
152.7
42.39
12.97
0.02049
69.97
28.81
0.0217
0.02044
1.837
19.46
47.58
54.96
83.03
3599
3.455
0.3588
0.02124
100.1
55.05
214.3
406.9
1.171
0.04798
0.02254
3.304
1851
0.02126
0.1769
182.3
28.82
583.6
0.02299
31.74
31.54
0.02182
309.7
0.02121
25.48
1462
297.6
16.39
947.9
0.02332
235.1
0.1886
363.7
81.82
429.8
3083
0.4217
0.7951
2.57
1381
0.02181
2.575
201.3
713.3
55.77
920.8
0.04627
0.1674
127.1
612.9
1851
133
1.985e+04
412.4
3653
186.8
178.7
3.866
1578
0.02444
54.55
0.02532
0.02355
39.31
0.02891
136
17.58
29.58
0.8474
0.04432
326.5
43.64
0.02231
1.794
75.3
0.04232
310.5
2163
25.74
5.62
122
10.89
69.42
0.02173
62.05
184.7
0.02421
256.2
130.9
14.08
0.0207
1.733
1.266
7069
4.624
2186
60.79
13.48
33.51
429.3
393.4
0.02172
504.2
1.087
0.02305
4.907
7162
1.672
697.6
6.167
1.636
648.7
3333
146.5
0.02366
0.02184
6.043
8.488
94.61
299
68.07
621.3
192.3
0.1236
608.7
0.06319
1165
0.02161
69
430.2
29.6
155
83.71
0.02179
0.02235
160.8
0.2781
79.48
133.3
125.6
60.04
13.78
169.7
273.4
1088
46.54
277.9
179.5
6.41
50
131.1
71.42
555.4
2738
86.36
0.02156
0.02143
67.99
60.91
0.796
0.02095
13.7
73.1
0.538
69.77
11.14
132.5
11.64
0.02223
0.439
0.5762
1293
475.5
29.47
0.61
2.27
427.9
142.4
15.49
29.84
16.8
73.2
58.76
796.1
0.02426
508.2
486.5
22.72
135.8
133.2
0.02189
656.1
1256
0.02096
0.02155
75.98
86.66
9264
69.58
52.65
120.1
126.4
0.4812
0.5098
0.02507
131.1
46.11
113.6
2.03
275.5
78.59
0.02395
851.5
38.08
0.02172
340
0.02274
0.02169
10.63
0.1373
2316
0.02158
304.8
0.02182
177.5
0.112
1.779
3.477
251.8
185.1
157.5
20.5
0.05075
0.04093
28.15
100.9
58.07
112.1
1040
126.3
1005
162.2
153.5
652.5
182.2
600.9
0.2997
3.266
0.03098
335
37.99
398.9
0.05325
52.62
37.75
43.91
34.71
90.15
0.7826
390.2
12.02
44
32.37
283.6
83.1
0.02075
13.01
345.4
0.02284
263.5
540.6
0.02082
1.867
56.36
0.0396
0.3251
8.574
56.18
0.2385
0.0199
231.9
136.7
0.02179
0.2107
0.03688
72.47
198.9
3.957
0.04014
140.6
2027
252
138.3
48.64
1546
0.06271
79.56
0.02178
108.5
11.82
249.1
34.64
165
828.5
0.02197
9517
193.1
233.9
28.52
953.3
15.49
2.826
508.4
35.33
0.04083
1.917e+04
61.25
142.9
360.5
90.3
36.03
43.05
425.1
45.21
98.74
17.95
205.8
166.7
1.775
1767
0.1281
51.42
0.1227
255
0.01983
0.02166
11.02
1604
75.07
0.1978
750.9
157.5
0.02181
2585
52.44
13.65
2119
2.778
60.16
1.927e+05
1.791
404.9
45.32
39.14
920.4
161.6
418.3
9.037
333.3
0.0866
0.6106
4.551
122.5
4.03
51.96
48.26
659.8
65.34
0.3605
59.95
1.922
1.129
5.186
1682
0.05101
1700
309.5
52.59
95.78
0.02181
33.65
102.6
1.425
240
344.2
499.4
0.02136
195.6
146.3
98.67
866.6
59.62
4.569
133.1
0.0224
126.7
80.93
2928
230.6
0.09974
38.18
0.02264
2356
967.3
63.24
0.7889
3.889
0.02079
0.01984
52.77
33.92
13.11
0.119
0.04224
0.04519
19.95
115.9
5.486
325.2
129.9
938.4
1.382
433.7
62.68
102.7
0.01987
245.2
42.28
23.43
1132
4.22
11.71
96.94
29.82
69.12
2958
1.039
134.4
50.59
12.03
2.61
114.3
2454
0.2141
118.3
0.0212
146.3
655.3
0.02037
759.7
15.39
75.96
201.9
0.02139
1.574
1.024e+04
0.02191
111.2
152
45.25
992.2
0.8933
2.36
89.36
562.3
93.81
274.4
0.08054
33.85
189.8
3359
160.3
112.8
0.0217
158
4.57
355.8
159.8
23.86
106.3
0.02212
1.443
110.5
0.02418
42.52
0.02132
2187
47.37
1536
78.39
37.47
778.7
95.88
87.13
145.7
4866
141.9
116.1
26.91
64.98
59.51
0.02211
29.53
0.02297
40.9
0.02201
58.05
0.02148
246.3
82.59
0.02081
0.02172
86.23
0.2141
217.6
0.1333
0.0202
8.549
113.8
0.03958
5.047e+04
306.4
5221
87.69
19.36
156.8
90.95
28.59
0.3023
775.9
31.46
182.7
518.9
106.7
48.3
8.976
0.02156
4827
136.6
676.1
0.02181
1023
41.5
158.9
47.56
0.01976
0.01974
0.3627
1.008
5.55
24.81
31.68
1.104
2.292
0.6226
1.969
511.8
25
3.167
89.94
2.695
597.8
228.8
34.35
170.6
71.2
0.0224
36.88
48.45
1011
41.81
0.03976
24.64
1.071
74.39
33.96
702.8
0.7426
0.02174
65.01
10.75
1506
442.5
0.7982
133.3
192.2
0.1611
0.01973
479
231.1
5311
0.0885
1789
60.32
0.02155
251.5
196.9
19.64
0.2378
32.13
64.81
27.08
97.37
41.52
156.6
0.05065
40.71
274.9
294.6
0.04396
0.04388
194.7
17.77
8046
90.89
339.8
367.9
4853
0.7528
61.25
0.02771
0.022
0.02151
62.83
0.02184
1353
0.02174
4107
0.4899
17.46
48.49
263.1
0.07457
1661
0.3035
174.3
70.8
889.4
0.02278
230.5
134.8
60.79
501.6
137
91.25
512.6
616.5
0.0544
0.02061
315
0.06112
0.02015
0.4771
428
0.02061
657.7
0.02185
56.62
24.93
33.3
128.7
0.02098
75.28
283.9
51
0.1072
5.764
0.2752
0.02179
0.02123
75.35
2.046e+04
8.566
44.36
0.02673
940.1
0.4849
0.1093
0.04911
2.518
105.3
245.4
0.0279
40.36
0.02356
84.97
0.02217
0.854
28.56
25.99
21.64
340
190.1
0.02122
26.16
547.4
124.8
952.1
435.9
7.284
0.03853
4.761
8337
37.52
462.3
618.5
0.05803
0.2501
0.02164
163.3
86.7
74.05
0.02181
269.7
0.02176
0.2497
95.48
0.02153
6.124
0.4525
13.54
35.51
0.3079
167.7
0.0219
151.9
497
2.073
11.03
83.84
0.04589
12.91
32.73
76.11
18.08
37.06
302.3
134.9
217
553.3
0.09498
0.3121
19.08
0.04068
117.5
85.88
0.1603
39.08
0.02666
0.1404
250.6
1.268
12.08
79.67
1084
60.87
913.1
0.8225
0.02066
904.5
64.17
0.1248
186.5
0.03153
24.34
0.02223
17.38
834.7
39.22
11.67
27.99
70.76
0.02187
30.69
0.6873
8.238
1208
0.02805
47.84
520
0.02161
0.02863
33.71
0.05862
48.9
2.435
1.938
16.02
0.7285
46.91
0.06068
0.8378
132.3
0.02076
0.2766
1230
845
0.02099
96.86
1123
4.555
512.8
30.72
81.26
822.4
0.04967
0.09099
39.64
0.02815
544.7
13.94
52.11
748.6
276.9
0.02743
276.4
1.41e+04
4.755e+04
42.91
42.14
253.4
0.7055
64.49
6.055
41.29
266.6
43.57
57.96
30.85
633.3
94.04
1.131
0.02184
404.9
1.163
111.1
0.4718
0.0569
63.47
42.73
4.295
0.02054
186.8
442.1
7.764
406.7
57.59
1113
131.8
0.03087
254.8
561.5
64.87
51.8
1469
0.01939
2590
119.3
80.85
0.02557
67.24
45.12
302.9
352.7
50.19
413.7
0.02582
6.837
96.4
0.06304
59.23
0.02192
210.4
2518
74.98
415.2
5428
64.62
1071
0.08142
320.2
5.756
37.94
0.04742
7.147
16.22
59.25
57.4
0.04865
39.53
3355
5505
52.27
2.539
1.013
1.6
0.02238
0.02923
105.5
0.4944
0.02245
37.91
64.11
135.8
55.6
4.819
71.61
12.14
618
955
1240
0.1153
45.13
2619
24.92
228.7
2.488
6.76
36.71
3.373e+04
10.01
7.214
0.03568
0.06798
754.7
50.07
0.02181
0.02196
43.82
389.8
53.89
50.68
1935
27.48
0.02711
369
41.7
71.24
613.6
0.4701
1.611
51.59
164.3
0.8114
177.8
0.02189
199.1
21.34
394.7
0.7497
106.4
552
2.027
386.7
10.66
265.5
69
253.4
0.16
40.12
94.58
94.58
372.2
64.87
1325
135.8
0.02181
39.11
2.485
315.1
27.75
0.1857
10.74
0.1445
858.6
0.03878
81.17
26.65
40
53.97
28.5
0.2261
918
0.2768
0.02764
174.9
0.02092
62.16
0.03898
0.8473
25.09
0.02152
0.3792
107.4
210.4
0.02178
0.02507
48.85
9.785
294.2
0.2358
23.08
36.92
327.1
228.4
1.02
34.41
7.769
0.09904
53.35
2279
15.67
1910
196
19.04
1032
0.02183
0.02061
2.273
2.556
5279
0.02181
10.53
163.4
1.482e+04
151.5
252.7
0.01958
0.01919
183.3
202.4
30.63
38.89
0.04119
2.149
1.135
0.02222
365.5
69.16
37.93
32.94
682.7
0.2976
3.144
0.01992
5.53
65.31
343.5
156.3
172.7
168.9
65.14
98.5
57.53
344.9
185.5
0.08975
55.59
605.9
0.02585
0.02355
120
82.36
1065
3.308
100.9
231
0.1178
0.02179
8.65
0.02211
97.57
1958
48.31
0.1836
23.41
0.05613
533
269
0.05573
6.775
5.042
44.19
46.44
17.27
178.3
129.5
89.73
84.23
8.573
40.67
429.1
49.19
152.1
49.47
3858
40.04
74.89
152.7
14.02
3.715
7.797
1119
0.5035
254
0.02331
62.19
0.02214
68.27
15.37
947.5
139.2
0.1273
295.9
3069
435.7
80.58
30.39
315.9
1537
0.2026
45.41
17.46
1964
121.8
93.31
0.2592
0.4382
0.02182
25.55
2533
2.583
167
55.16
0.1336
1078
0.01985
16.98
0.5654
46.54
202.6
0.2342
2.245
20.09
0.05195
40.15
12.44
1015
158
119.9
0.02157
57.72
107.5
357.1
800.1
17.89
8.258
135.9
0.02187
125.6
97.84
7.433
16.16
35.6
828.4
314.6
90.82
65.07
0.648
5.971
651.4
3.261
0.1092
1320
0.05738
0.6526
0.02189
0.02199
62.52
0.02238
180.9
19.38
0.9886
28.2
308.8
900.1
106
67.96
124.2
54.51
8480
103.3
115.3
0.6832
3307
26.21
393.2
1199
0.0356
235.8
292
2.176
38.84
377.9
219
195.5
80.28
108.2
0.03039
6.453
0.02207
1.048
37.63
83.99
15.06
45.19
1658
51.01
0.02239
345.2
115.7
2.769
22.75
113.3
81.81
256.6
397.5
921.3
108.9
105.2
106.8
113.4
78.9
0.1076
4137
373.3
39.03
3.242
0.0226
127.2
348.9
64.59
2.099
959.9
396.8
117.5
2.372
111.7
1934
0.0226
833.5
17.32
0.04815
9.861
186.3
0.02183
258.6
41.42
5.727
4772
5.85
149.2
3322
95.99
103
0.01982
0.01977
97.37
12.07
3.408
662.2
56.28
0.02152
814.4
343.4
59.88
0.02258
0.02241
62.64
3.611
94.27
1.122e+04
209.4
0.02393
244.6
1869
0.118
251.6
141.1
0.06981
0.9423
202.8
0.8168
38.19
0.01966
0.01944
0.01945
0.01965
0.083
28.35
7.805
111.5
3.439
64.76
84.53
875.4
0.02037
180.5
54.96
258.7
623.5
331.5
45.33
30.05
141.3
50.6
68.01
0.1088
42.97
6286
70.59
697.6
0.81
26.91
0.02178
3447
121.1
132.5
3.721
0.03703
2857
0.0218
50.58
585.4
0.0286
211.9
90.57
35.39
32
194.3
0.05616
152.1
0.02069
5.642
101.7
107.3
62.31
16.84
0.02166
0.02191
0.3153
89.23
233.3
0.4455
49.16
219.5
1.766
225.1
142.9
5.591
36.02
27.89
93.72
0.2089
3356
0.91
0.02179
1192
0.02179
0.02278
0.3422
0.08119
264.1
61.2
404.6
82.86
137.6
0.02188
0.09895
37.93
84.17
59.43
0.03881
0.3556
9898
967.2
0.02213
1579
962.9
8955
0.05774
5.489
13.57
0.1045
0.02556
4.356
96.53
7241
0.1322
273.3
3.629e+04
0.02179
156.3
774.5
54.17
0.02179
327
9013
4756
1123
0.4726
14.27
2407
0.05782
97.41
0.02155
48.06
983.1
6.38
252.9
1088
0.2433
37.44
17.19
0.02225
0.03388
200.6
381.5
3.046
442.1
181.8
0.9862
39.43
50.76
77.68
88.07
0.0218
50.52
68.63
85.56
120
25.95
191
81.21
1433
1644
2.038e+04
218.2
0.05456
163.2
0.02755
345.4
304.5
0.02181
2.215e+04
0.02221
108.7
1246
559.1
58.52
124.5
103.3
40.3
0.01965
9355
33.36
0.04735
33.56
41.74
2425
853.1
3279
23.57
169.8
905.4
34.29
0.1113
37.41
1575
0.02089
91.24
28.18
50.69
25.4
39.44
19.25
662
52.57
49.01
954.9
0.0416
620.9
0.1248
21.3
86.68
0.02654
0.1374
18.74
430.3
374.7
1376
0.04592
0.02219
2.619
97.02
1602
60.88
8.272
0.01933
0.03401
393.8
0.01974
138.2
136.5
0.08686
192.9
36.91
2008
1467
862.6
0.04093
230.2
58.35
253.7
3.763
11.69
984
55.41
306.3
105
355.9
86.41
1.949
1888
30.14
37.72
56.41
0.04154
23.92
0.1786
0.02224
10.86
150
121.9
71.33
20.61
2687
4211
42.46
3.122e+04
0.1876
0.3509
0.0373
0.0655
9.68
0.02221
39.28
1231
128.9
352.6
1.405
17.44
36.65
164.7
42.52
522.1
55.16
2422
270.8
0.02433
72.77
39.13
0.02204
0.04247
480.4
0.02186
276.4
208.8
101.9
3.419
616.9
0.07599
0.6345
0.05072
243.2
924.9
153.1
26
0.02144
90.76
0.02165
0.3294
115.9
2.769
972.8
189.6
270
6.843
2499
1.042
0.1623
82.85
112.8
0.02085
2.486
0.02185
326.9
336.4
113
81.76
0.02166
244.2
170.7
153.4
1266
318.5
140.1
0.02463
0.9913
1.944
2.117
368.1
15.85
0.09557
4.698
0.1629
23.56
124.8
0.02071
0.02043
0.02281
0.04207
0.2889
214
176.5
0.02211
94.36
12.45
61.92
0.02194
134.8
0.1117
455.7
0.05894
6200
13.01
510.1
0.03538
0.09887
873.3
0.03158
60.39
62.7
76.66
125.2
187.3
0.02183
124.3
122.2
48.39
54.72
75.02
4.181
86.91
26.44
772.6
0.02154
48.29
18.72
1977
0.197
0.02209
463
597.6
73.86
57.85
6.752
728
0.05289
15.87
79.87
48.24
49.8
4.634
0.02424
10.17
1074
93.88
46.76
1101
3.015
3.623
0.02168
0.03088
0.1402
0.03675
6997
158.2
0.02195
0.02374
40.58
4341
0.02194
73.52
642.7
60.81
3.393
274.8
1010
178
41.88
280.2
2756
542.4
0.02229
131
16.97
147.9
0.02139
0.3548
99.49
51.35
111
3365
693.4
1.335
201.5
2739
8.333
81.87
76.06
1.777
0.917
426.2
1574
0.02158
362.8
49.71
0.02194
785.5
60.17
3.733
0.07848
34.6
244
122.9
12.3
0.02191
0.02202
1.772
46.89
0.02018
2.235
0.0278
308.4
34.79
53.95
181.8
446.7
1.813
48.98
0.02156
1046
14.55
1125
206.4
0.1105
443.2
5.141
308.8
820.9
9.182
766.9
0.02082
0.02125
98.5
0.07511
0.0214
2006
85.95
92.58
294.3
11.59
116.2
0.02442
1945
0.04411
27.92
0.02042
0.2237
70.97
67.31
133.4
34.71
23.69
118.1
0.02048
134.9
281.9
392.5
1085
0.1442
32.45
7.788
0.02195
61.9
228
0.1768
0.05209
32.36
844.4
0.02128
0.02166
11.05
159.5
48.34
1513
0.02206
241.6
125.3
50.99
0.02208
0.09098
334.7
68.04
206.8
79.03
25.45
0.02054
177.5
0.0261
386.3
1369
0.07755
36.54
27.75
403.3
1013
76.11
0.07051
0.02048
105.8
0.239
0.02167
417.9
85.74
9.325
0.02051
0.08489
0.1129
0.03055
46.69
94.19
0.02181
284.3
28.36
117.1
0.02951
0.02191
0.02169
0.05517
9.721
2.387
239.2
1045
1404
26.53
2681
643.4
0.02542
969.4
142
249.4
23.63
0.184
1.865
425.8
555.2
519.8
127
0.063
98.91
71.14
43.23
7.551
0.235
41.41
0.2464
96
0.0297
106.2
5.596
3.771
0.563
580.2
1610
909.2
0.02062
4614
107
0.02013
104.6
0.02182
188.2
175.6
0.1045
449.5
30.98
0.0223
1.791
6.386
1133
0.02375
0.2468
854.2
2.683
0.02158
592.8
63.71
0.03488
0.2343
3.16
74.09
2689
221.7
164.5
13.71
91.5
1.648
0.02174
0.05063
62.16
42.91
179.9
0.02207
2322
97.81
17.46
45.95
107.9
154.1
0.0202
0.06387
126.3
154.3
0.0571
49.78
254.5
6.562
3.829
6.488
22.65
0.04853
16.45
15.94
9.001
6.034
0.02205
188.9
0.1322
63.22
3.093
2.266
290.8
139.7
5902
10.93
0.9267
0.06902
0.02123
3.079
12.7
634
1059
99.08
166.9
287.5
41.09
0.8389
147.3
204.8
734.9
71
0.05123
417.1
1.115
401.2
7.191
19.07
36.8
98.84
0.02179
32.47
0.2382
0.02165
0.268
413
1.081
4.08e+04
236.2
84.6
0.02168
31.68
253.9
0.0389
56.2
76.1
209.5
68.61
235.1
0.02188
203.3
0.02075
2.261
326.4
50.49
2.959
213
3e+04
0.02191
0.02175
15.72
31.12
366.7
0.9735
101.6
267
5.665
59.78
0.02221
165.7
509.7
0.1224
79.18
0.02157
24.14
0.06875
48.5
164.1
148.5
0.2916
79.43
14.02
0.02854
128.3
244.9
0.2279
0.02154
0.02377
167.9
985.8
10.49
6.005
93.52
8.313
72.96
8.191
0.01939
0.3894
1.116
1639
1600
300.5
0.02135
225.8
57.32
130.1
125.5
1103
3.156
45.49
43.27
28.86
274.9
700.3
0.8715
0.05638
7.79
0.03779
3013
0.02374
58.56
206.6
15.35
59.7
245.2
127.4
461.6
40.2
190.9
12.87
2.687
434.1
1587
66.44
888.4
1555
0.0218
983.3
120.2
391.1
581.7
42.94
1.407
83.88
36.32
5.741
0.04983
27.47
61.86
30.35
42.26
93.55
1.02
1.224
0.6926
1016
112.2
1389
42.56
230.2
0.02027
382.1
169
495.5
30.22
970.5
329.8
125.9
0.1041
914.1
0.0918
52.9
104.8
0.07271
0.6775
86.23
10.52
33.59
57.65
9.411
75.76
62.3
1077
8.978
5654
0.04773
4.997
86.2
11.36
0.05716
244.1
0.02182
0.02259
0.02178
63.73
63.88
86.87
0.4463
0.1568
61.23
0.05025
5381
512.5
968.9
99.92
0.0917
277.1
600.3
0.0812
185.3
0.02187
25.74
17.56
110.5
1.983
0.0213
0.0219
214.4
20.45
0.04555
1039
67.11
0.02096
0.02182
27.96
0.03651
181
1052
0.02467
3.261
102.6
248.6
448.6
1087
9.292
0.1807
20.41
126.5
0.3015
343.8
8.959
2.336
245.5
98.93
3.152e+04
0.03156
24.64
561.6
1217
0.02184
81.33
0.02181
12.47
2.602
11.19
42.74
120.8
53.25
0.2341
399.1
81.39
158.8
284.2
280.3
93.6
1.207
30.61
337.7
56.29
118.9
0.02123
922.5
992.1
422.6
19.64
3.824
439.7
224.9
0.4583
0.1404
7716
72.21
0.04422
0.02872
0.04553
156.4
276.8
2.86
952.6
5.106
0.03293
45.05
26.94
44.57
182.1
5606
627.2
62.08
220.4
63.72
121.8
145.7
64.89
18.06
16.74
435.6
63.1
0.4161
54.45
243.3
0.1912
19
1.025
4.395
1073
118.6
0.02204
846.5
8.589
1176
128.5
0.02154
0.1321
270.8
0.03406
85.39
341.9
653.3
15.24
0.02314
0.2488
31.09
57.96
0.0967
154.3
0.02078
227.2
73.67
93.61
61.4
141.9
148.6
140
836.5
0.3967
38.99
0.02183
1449
0.04716
0.02663
50.72
0.02215
31.57
37.62
1.927e+04
0.02196
69.45
38.54
185.8
150.7
0.2487
109.3
51.1
131.9
624
101.2
0.1173
0.02261
103.6
341.3
11.88
48.98
156.6
179.2
2.776
0.02116
34.85
70.76
2230
18.97
104.2
3.415
85.31
0.02151
8.241
944.5
395.9
0.02198
0.2763
125.3
0.01993
33.64
438.9
32.16
0.02195
0.02201
13.26
0.02475
0.02014
0.02174
15.28
234.2
391.9
0.3463
60.63
4.791
0.7889
0.02225
69.94
22.21
0.04923
1.079
386
2
0.02899
223
130.5
9.009
922.6
2428
0.02851
35.79
11.83
187.7
148.6
275
0.02194
21.03
1010
2.359
46.17
0.4725
532.4
106.7
75.57
5.721
1169
0.08332
2939
91.8
0.02887
0.03506
0.01999
90.58
96.34
706.5
388.6
2713
0.1266
0.0194
36.06
44.89
0.1515
0.02218
308.1
22.91
437
130.4
88.6
31.52
14.2
9.328
104.1
0.01986
648.2
187
92.71
5.44
0.1007
0.02247
64.35
41.4
133.3
1354
17.11
0.04908
22.95
0.7431
0.09596
0.02228
306.1
76.57
329.6
300.6
87.31
0.9876
53.87
62.17
3.233
34.49
0.4909
0.1907
0.02192
27.16
1872
1.041
0.8749
3754
0.3405
0.02169
4.551
0.03312
0.02203
44.24
0.01947
0.01942
3.113
0.02012
97.81
1333
187.5
4.551
0.2029
0.02113
0.02197
4.818
88.47
12.44
992.1
46.48
0.02906
42.24
10.34
608.6
0.253
0.02198
3.565
53.94
0.02203
0.02136
29.25
89.65
0.06506
0.03455
165.7
0.02131
0.3747
0.02187
5604
0.2162
120.2
28.67
0.03246
0.1768
9.849
50.76
236.7
42.79
34.23
26.23
0.02215
967.3
56.38
45.02
0.02191
51.15
89.43
180.5
68.58
0.3564
103.7
4.632
0.2107
222.8
0.02205
2.77e+04
5.116
1371
0.02197
85.74
0.02186
0.1051
1.881
393.6
58.26
50.81
2.591
0.08582
1032
0.09937
153.4
956.8
6.639
0.1997
0.03871
242.2
0.02164
1.732
82.67
5.792
5.26
0.02222
1405
0.03834
38.03
320.1
21.63
151.3
647.7
51.94
351.7
42.6
1.075
72.92
1.677
0.02179
0.02181
574
37.53
245.6
33.98
30.87
0.0218
28.33
0.02181
0.02201
0.03707
459.1
0.1602
4.404
0.02937
96.36
0.3197
149.6
107.3
1784
0.02809
244.7
28.41
37.95
0.2325
48.15
0.02187
39.9
0.2412
52.61
4.74
0.0355
103.2
2142
35.57
512.7
92.22
1846
438.5
2.224
13.92
1246
7.366
2654
151.7
91.13
148.2
80.07
123.9
111.6
208.2
0.03554
56.37
0.05873
148.9
1255
33.27
165.9
260.4
56.28
43.96
0.03005
97.72
110.5
3633
35.63
0.02333
83.31
29.81
59.44
0.05
23.46
65.17
102.2
0.6819
447.4
13.52
329.8
116.1
239.7
71.08
49.51
143.5
0.0276
624
6.972
0.02596
63.42
50.06
122.9
311.9
336.5
0.02202
77.46
44.3
0.136
3.781
51.36
3581
296.2
0.02088
0.02239
1.765
63.88
25.59
0.02162
18.53
75.1
172.9
955.1
0.02104
108.6
875.6
60.33
2753
180.8
211
190.2
46.73
6.609
0.02541
105.9
207
26.72
129
0.9766
67.19
0.02205
0.04572
127.9
108.4
92.21
217.1
49.42
0.02219
245.4
184.3
0.3197
114.5
3918
518.6
0.03387
0.2032
0.02759
34.22
214.3
288.7
439.1
41.17
133.8
0.02182
149.1
1.303
28.05
351.9
0.7139
993.5
20.62
683.4
0.04191
64.14
603.3
0.02179
62.77
60.67
93.51
44.13
0.0219
0.02202
0.03544
110.9
0.02221
26.31
606
0.199
80.26
118
0.04736
28.07
49.09
0.1887
502
55.32
1134
169.2
0.02209
385.2
685.7
0.02172
1088
6.306
14.26
14.3
204.5
41.48
29.72
54.83
36.34
0.02194
41.81
0.02178
0.06637
509.9
56.78
19.81
17.07
1.417
168.4
0.02191
0.01975
0.08938
64.35
71.22
28.09
994.8
1.571
0.1131
450.6
0.7866
37.25
0.02137
168.9
284.4
54.68
60.32
237.3
40.37
95.79
97.93
2.353
0.0249
82.13
64.14
54.9
281
1074
246.1
0.0215
73.71
101.5
48.18
4637
0.02183
192.9
80.4
32.87
69.32
98.29
2862
100.2
61.6
294.1
3509
5.742
52.98
801
5.353
0.02169
142.9
75.51
88.15
38.18
54.18
10.04
0.03524
155
42.63
465.6
8.382
363
500.2
0.02176
290.7
54.48
185.7
2.24
0.01943
148.2
102
8.794
25.68
0.02135
68.91
42.59
2.796
28.87
37.57
242
83.89
208.3
168.6
0.01992
30.15
56.65
111.7
269.7
46.32
16.43
90.97
60.9
13.03
58.35
187
942.4
348.3
229.7
5576
10.72
0.1114
1.294e+05
180.1
662.8
0.03171
648.2
1411
122.1
12.52
0.02335
9.285
0.02181
68.38
17.48
2.516
2.138
54.29
369.5
11.91
1.206e+04
52.45
131.2
207.3
2161
272.7
105.6
78.39
0.1558
83.27
51.99
1097
29.92
0.7103
1.005
279.2
0.8882
0.022
0.02177
17.51
19.47
0.04935
0.02018
0.02236
71.74
495
404.2
0.02155
0.0257
28.04
0.01973
0.01984
290.6
0.04415
56.72
348.2
0.05848
300.1
3.855
140.5
8.59
100.8
0.07969
37.8
73.23
3.7e+04
99.42
82.69
284.2
566.5
1.779
0.02566
41.46
345
0.02179
3.04
131.9
323.8
939.6
51.26
136.4
388.8
0.02697
32.9
332.9
119
39.12
93.84
0.05957
14.74
33.04
279.5
61.98
87.85
0.0368
446.4
48.43
0.03203
90.06
0.05666
82.03
0.02955
2988
1123
0.03347
124.5
59.04
0.1855
899.7
182
0.02342
604.6
32.5
96.44
591.5
0.04658
0.4009
3754
37.77
153.7
3.16
84.21
1.728
7.567
78.24
0.04989
1.28
168.5
46.67
93.2
70.02
125.3
2.855
49.58
276.8
104.6
3.098
14.03
0.0218
0.1592
219.6
64.93
0.01945
1.72
15.45
6.892
81.23
33.26
73.54
0.1741
182.3
40.31
0.09155
31.4
170.4
0.1615
350.7
0.05538
294
29.71
0.384
0.08778
37.96
312.6
154.4
0.02108
151
62.96
66.17
0.06174
0.02241
28.75
138
443.9
7.666
30.41
52.54
183.6
1.791
1.763
1280
6.848
1.427
3483
152.1
35.11
69.66
0.02204
2.458e+04
0.02273
109.6
50.73
41.42
88.5
54.43
1278
16.13
5.391
0.4979
1.112e+04
281.2
56.2
8382
1069
280.1
49.33
0.1477
0.6197
0.3966
29.18
0.02187
178.6
1175
0.05991
22.02
2.994
68.15
51.79
250.1
2313
561.6
100.7
0.01942
0.01915
0.0218
165
2380
0.6376
0.0216
0.2527
823.4
3.882
2557
41.3
0.02277
6769
0.01947
1.181
36.14
0.05058
38.14
0.4658
1.023
0.09308
617.7
77.63
26.72
53.61
8092
47.98
396.4
97.99
47.9
0.02213
5218
234.7
483.1
38.2
169.6
35.1
252.1
0.1008
36.04
138.8
46.91
167.3
0.02725
647.4
71.46
472
8.759
0.1064
0.1756
0.02221
119.5
106.7
101.5
61.95
26.49
801.7
33.71
44.26
21.64
134.3
0.2161
200.7
50.61
37.91
2.075
0.07462
4.711
0.1977
28.9
1.809
208.1
7.414
224.2
25.06
7.033
144.8
0.4504
726.1
32.52
1.437
0.1234
2039
95.79
82.72
36.01
1189
0.02204
550.1
303
32.07
78.45
34.53
27.86
263.1
74.34
115.3
37.71
41.3
2699
0.04574
0.02187
0.02213
52.37
230.3
1.89
1413
422.5
1579
445.5
44.79
724.4
1049
5.832
261.9
423.9
32.15
1094
0.02176
134.9
281
265.9
0.02157
267.4
15.11
108.9
132.2
68.12
0.02207
0.3316
129.7
694.9
0.02093
131.4
2.922
0.5082
1.76e+04
0.02998
25.13
47.25
134.8
188.7
0.4514
24.84
6.156
216
344.1
290.1
0.01949
59.44
3.799e+04
0.02894
0.02421
483.6
784.6
170.7
85.51
0.07348
27.46
169.2
17.08
16.01
88.65
0.02004
41.84
8.326
0.2675
0.02381
81.64
0.02135
6256
43.78
4.518
10.07
2445
0.02272
373.9
0.02
0.02216
195.5
0.5489
142.9
15.7
0.06188
158.3
127.4
90.28
7.77
94.51
230.4
401.1
152.3
290.9
571.9
949.7
148.2
27.38
208.7
144.6
89
0.5323
0.02121
0.0212
1576
32.56
134.5
2442
0.0223
540
0.4963
0.02039
60.59
8502
5.825
247.9
3603
0.02206
270
129.4
79.14
41.53
25.98
2261
354.6
0.02177
2654
551
0.07975
0.02546
150.8
426.6
154.4
290.7
61.55
51.37
0.02179
227.2
0.02124
265.7
285.4
2354
0.01943
0.01917
0.2328
33.31
0.03747
49.58
1.294
34.07
99.47
29.69
114.9
0.07602
0.03017
1250
2151
32.59
397.2
0.0503
70.7
0.02149
63.37
1861
104.7
283.8
812.9
274
200.6
1.118
31.78
115.6
0.02857
0.02218
0.02185
49.25
94.21
193.2
2791
167.3
0.02732
58.51
196.3
171.8
4101
17.39
113.2
529.4
21.16
0.07322
1.738
6.142
3.22
0.09882
440.4
63.34
19.79
41.17
282.3
0.2412
0.01976
993.9
39.87
53.22
94.19
1207
36.49
0.02086
53.76
112.8
93.69
3.423
42.94
87.92
4.557
112.8
1.776
0.05472
88.17
0.05582
0.1111
0.2332
765.7
11.52
519.9
90.59
25.13
129.7
0.0348
258.7
165.2
0.519
71.99
14.44
3508
0.03826
0.02608
256.9
63.79
82.97
60.43
0.482
288.3
0.06994
0.02184
8.776
166
0.02774
1.916
12.34
0.02174
1058
0.06753
26.55
38.76
16.71
0.6746
290.5
293.4
2.238
0.08299
0.02228
90.19
26.46
99.09
63.13
0.02154
0.0202
0.02179
38.97
97.04
80.06
0.04377
427
66.13
278.3
23.44
349.8
0.3547
0.03707
1062
0.02242
176.6
92.79
0.03844
56.14
29.45
206.7
236.2
123.3
68.22
2.91
0.05077
2384
205.4
478.6
0.2412
1.296
0.02187
1333
0.02175
60.11
702.1
0.023
3.591
10.02
227.5
0.06828
64.32
6272
35.95
0.02169
62.93
176.1
78.46
70.44
60.43
131.7
1790
11.77
0.02073
0.02503
6758
10.62
215.5
4.598
24.7
0.02121
0.02193
1.603
3895
670.4
307.1
169.4
0.8475
182.6
698.6
26.48
141.7
0.0219
336.3
5.774
155.8
91.48
79.34
0.02161
367.5
65.24
1590
7507
15.96
7.36
1.092
180
0.0232
19.36
2431
119.7
175.1
213.3
1203
50.13
99.44
0.2045
438.7
479.7
1181
80.67
0.03078
784.3
736.3
0.02179
203.6
365.3
140.1
290
112.6
13.18
72.28
20.91
0.02805
49.93
0.02211
43.24
0.212
1758
0.2527
2910
20.72
264.4
37.99
56.68
159.3
8.743
118.9
1060
37.57
51.61
28.14
4.867
77.2
264.2
21.25
0.02751
11.33
8.946
50
86.55
111
622.6
141
0.02824
164.8
1265
73.94
39.68
365.2
0.04506
134.3
0.0217
72.08
3.284e+04
1.984e+04
519.9
92.92
20.37
0.02113
0.04166
92.28
60.51
69.27
2.991
0.02225
54.21
207.7
5.725
86.05
0.02183
453.3
214.7
3294
4.935
14.43
30.05
246.8
0.03457
411.4
5681
0.9521
8.382
0.394
185
3151
3.81
60.13
4.835
130.1
0.02755
104.4
0.01989
941.1
72.25
13.96
214.2
3.281
294.6
80.06
1.809
0.07981
0.02199
0.0217
20.17
65.67
45.62
19.99
32.32
40.31
2751
1.363
103
0.3368
0.02209
473.2
0.02233
58.36
371.6
3.401
87.5
38.24
2748
223.9
67.6
144.5
26.63
142.1
0.1754
989.1
0.02178
3225
873.6
34.8
56.41
0.02224
83.08
100.4
149.1
1.163
102.3
770
1028
0.02176
55.28
0.02195
0.02178
645.9
0.02935
65.21
7.815
1407
99.18
105.6
54.67
115.5
1.379
105.6
1.691
3.951
8.441
0.02531
61.66
0.07436
1395
52.79
27.37
0.3915
13.9
178.3
905.1
169.6
24.17
7.559
0.4091
126.3
57.87
311.5
98.42
0.6078
63.58
95.07
34.36
38.54
4.622
56.5
6.798
160.1
3148
33.16
0.2023
0.03902
599.1
29.77
0.02181
357.7
0.4352
1211
202.5
0.01967
101.8
217
214.9
358
337.1
31.06
146.6
0.03881
416.6
268.7
54.88
147.2
33.76
103.2
0.02233
0.02412
0.02224
156.4
0.2658
0.02197
0.1128
2.108e+04
0.02194
154.4
426.2
1.047
259.4
196.1
473.8
677.2
24.35
86.38
89.01
2.495e+04
0.02174
230.7
9.125
47.01
1.935
5.107
3.193
1.458
987.4
0.04472
0.02957
1.168
1128
1209
279
478.6
0.04888
3377
0.02172
106
207.3
62.13
0.0218
0.7049
34.53
299.5
197.5
251.2
2.605
558
1876
10.76
25.83
0.02792
4.426
5.963
0.4957
1.118
10.03
186.7
23.52
0.3285
145.9
254.1
0.6474
1.878