/*--------------------------------*- C++ -*----------------------------------*\
  =========                 |
  \\      /  F ield         | OpenFOAM: The Open Source CFD Toolbox
   \\    /   O peration     | Website:  https://openfoam.org
    \\  /    A nd           | Version:  8
     \\/     M anipulation  |
\*---------------------------------------------------------------------------*/
FoamFile
{
    version     2.0;
    format      ascii;
    class       volScalarField;
    location    "30";
    object      p;
}
// * * * * * * * * * * * * * * * * * * * * * * * * * * * * * * * * * * * * * //

dimensions      [0 2 -2 0 0 0 0];

internalField   nonuniform List<scalar> 
127143
(
0.03568
0.03618
0.03637
0.03633
-2.288
0.03631
-2.672
-2.484
-2.492
-1.33
-3.021
-2.773
0.03445
0.03631
0.2381
0.03672
0.03645
0.01458
0.001236
0.03629
-0.3575
0.02987
0.1349
0.04503
0.02983
0.08986
-1.17
-1.196
0.4041
0.006409
0.03774
0.09506
-2.106
-0.4169
0.1947
-2.11
-0.01058
-0.4773
0.04494
0.03744
0.002366
-1.039
-0.9626
0.03458
0.01517
-0.4149
0.4021
-0.02624
0.1095
0.03963
0.03632
0.07972
-0.6957
-0.5047
-0.00208
0.1923
-0.001955
0.05154
-0.01575
-0.5076
0.4068
-0.09728
0.03991
-0.007733
-0.8499
0.2585
-0.3121
0.03975
0.03986
-4.23e-05
0.03881
-1.177
0.04096
-0.01629
-0.01037
-1.19
-0.04929
-0.1064
0.1922
-0.003287
0.3947
0.03633
-0.4155
0.03742
0.03076
-0.1006
0.0488
-1.432
0.2588
-2.356
0.02714
-0.2619
-2.224
-0.3583
-0.5064
0.03273
-1.02
0.03678
-0.1635
-0.3137
-0.003467
0.1097
-2.801
0.0624
-0.1
-0.1649
0.09257
1.005e-05
0.3963
0.005255
0.2484
-1.449
-0.4282
-0.4453
-0.0001565
0.1045
-0.02445
-0.0103
-0.04763
0.03639
0.005354
-0.3718
0.3172
0.05978
0.3936
0.07183
-0.1549
-0.05473
-0.8233
0.2337
-0.186
-0.4229
0.04429
-0.1077
0.03644
-0.1883
-0.06334
-0.3716
0.471
-0.1151
0.1682
-0.00695
-0.5974
-0.4327
-0.6942
-1.625
-0.8193
-0.007672
-0.4209
-2.879
0.05601
0.1308
-0.4832
0.2564
0.4725
0.0297
0.05126
0.2988
-0.02472
0.03772
0.03924
0.4174
0.02664
-0.1869
0.2036
-0.8546
-0.03393
0.3999
-1.906
0.02357
0.02416
-0.4307
0.1136
0.2311
0.0002989
0.02767
-1.679
-0.8214
0.05035
-0.01217
0.2319
0.02998
0.0351
0.02791
0.2338
-0.09672
-0.5042
-0.4703
0.04374
-0.03048
-0.6783
-0.7169
-0.0634
-1.507
0.03646
-0.2237
0.0001819
-0.0001703
0.03563
0.003091
-0.02375
0.07982
-0.003247
-0.01059
0.03625
0.03887
0.09767
0.1112
0.003902
0.000148
-0.1167
0.02784
0.02529
-1.933
-0.1905
0.03529
0.01825
0.1287
-0.3538
0.09606
-1.631
-0.005334
0.1304
-0.7026
0.03682
0.01826
0.2025
-0.4776
-0.00215
-0.1497
-0.3711
0.03122
0.03899
0.03617
-0.3688
0.06336
-0.1864
0.03682
-0.02378
-0.6522
-0.7173
-0.9197
-0.003939
0.299
-0.6454
0.03638
0.1334
-1.127
-0.009744
6.447e-05
-1.229
0.05461
0.1686
-0.4202
0.1792
0.3853
-0.05302
-2.032
0.1943
-0.1256
-0.2605
0.04569
-0.2618
-0.005449
-0.755
-0.8837
-0.1332
0.4645
0.4477
-0.6587
0.125
0.000565
-0.005326
-0.6517
0.04075
-0.677
-0.428
0.0938
0.0004949
0.2449
-0.0003432
0.03205
0.06243
0.01093
-0.01217
0.03636
-0.2567
-0.001423
0.07863
-0.01122
-0.4795
0.1521
0.06412
0.131
0.02676
0.4067
0.04064
0.03843
-0.004187
-0.6556
0.05912
0.212
0.3238
0.1049
0.0383
0.4894
0.111
0.0259
-0.175
0.05339
0.08944
0.03624
0.1784
-0.0004027
0.01503
-1.992
-0.5045
0.05162
-0.2831
-0.001038
0.135
0.03856
-0.09232
0.168
-2
-0.5851
0.1378
0.04267
0.03967
-1.701
-0.0988
-0.01262
0.1912
0.0001363
-0.0001281
0.2545
0.3891
0.1142
-0.09777
-0.287
-0.1117
0.1282
-0.677
-0.6772
0.2175
0.07856
-0.4063
-0.5014
0.06075
-0.8887
0.05871
-0.03153
0.01898
-0.6776
0.04319
-0.3833
-0.4191
-1.533
-0.005582
0.04002
0.002103
0.04008
-0.03056
0.03803
0.04094
-0.007187
0.003235
0.0003195
-0.5625
9.344e-05
0.4139
-0.09121
0.05467
0.03913
-0.03116
-0.2399
0.04667
0.03591
-0.1391
-0.0005302
-0.1465
0.07281
0.06888
0.2134
-0.02397
0.03615
-0.1347
0.03826
-0.2284
-0.3182
-0.01799
0.3396
0.01277
0.1896
0.04401
0.03876
0.3367
0.03834
0.04768
0.04598
0.03613
-0.005398
-0.407
0.03506
-0.1452
0.06418
-0.1018
0.04709
0.0009115
0.05048
0.3987
0.08678
0.1671
-0.04063
0.3178
-0.5091
-0.2427
0.1267
-0.5707
0.3503
-0.03319
-0.02024
-0.2125
9.648e-05
-0.1514
-0.2683
-0.9202
0.1923
-0.924
0.1192
0.002927
-0.1968
0.01868
-0.104
-0.8869
-0.007371
0.08976
-0.4486
0.07801
0.02682
0.012
0.03943
-0.05927
0.39
0.01867
0.03788
0.01941
0.4997
-0.0002291
0.0288
-0.2882
0.0622
0.06438
-0.5956
0.06781
0.004151
0.06082
-0.9422
-0.0135
-0.5468
0.0444
-0.7919
-0.3056
-0.375
-0.7924
0.0004988
-0.02789
-0.518
-0.3297
-0.001283
-0.1679
-0.3039
0.05952
-0.5013
0.08853
0.0005044
0.4252
-0.3021
-0.01072
-0.6607
0.4605
0.499
-0.6843
0.1786
0.3976
-0.8823
-0.6378
-0.01913
0.03837
0.03143
-1.917
0.04887
-0.7153
-1.606
0.03625
-0.1817
-0.02153
0.05221
-1.516
0.0214
0.4596
-0.02928
-0.00381
-0.2241
0.03639
0.03609
0.03455
0.008741
-0.3841
-1.136
0.01443
-0.0174
0.3177
-0.1135
0.08443
-0.29
0.06469
-0.1739
-0.5586
0.0005148
0.0354
0.03011
0.3573
0.04731
0.02419
-0.01702
0.05601
-0.00458
-0.3047
0.007988
0.04246
-2.436
0.001839
-2.343e-05
-0.5165
0.07453
0.03065
0.4161
-2.137
-0.2394
0.04264
0.00219
0.3372
-0.001421
0.2121
-0.5523
0.04182
0.03788
-0.3306
-0.09889
-0.227
-0.7539
0.3407
-0.09066
-0.1973
-0.02855
0.03593
-0.2442
0.08127
0.05405
-0.01358
-0.0002604
0.0005693
-0.1205
-0.4071
-1.561
0.01559
4.572e-05
0.3279
0.3851
-0.09497
0.3982
-0.02534
-0.1368
0.1623
-0.0424
-0.00428
-0.008431
-0.1869
0.1668
0.001101
-1.133
0.05016
-0.309
-0.0008005
0.07532
0.01606
-0.09987
0.03789
-0.2767
6.597e-07
-0.0895
-0.2615
0.4199
0.0004947
0.09282
0.01808
0.012
0.06437
0.00558
0.03939
-0.6123
0.01106
-0.3914
0.07307
0.03644
-0.6264
-0.5909
0.05903
0.06862
0.3445
0.04433
-2.193
0.0389
0.01189
-0.7516
0.03986
0.001186
0.1461
0.01273
0.2095
-0.06847
-0.5947
0.003029
-0.000661
0.05055
0.3512
-0.3745
0.0009717
-0.004
-0.00234
-1.62
-0.4156
0.04099
-0.003478
0.3899
-0.2809
0.3987
-0.6756
-0.1928
-0.9043
0.0009564
-0.9712
-0.6617
0.1056
-0.4835
0.02242
5.249e-05
-0.5837
0.4715
-0.6368
0.01739
-0.06823
-3.059e-05
-0.1517
-0.8382
0.07643
-0.7766
0.103
0.0167
-0.1822
0.1778
-0.661
0.2681
0.03442
0.01842
-0.0141
0.004068
-0.2566
-0.6541
0.07868
-0.649
0.07654
-0.7867
0.03511
-0.4055
-0.004449
0.09401
0.2734
0.334
-6.331e-05
-0.004381
0.03632
0.05199
0.1213
-0.6941
0.4741
-0.1772
-0.6899
0.0364
0.2895
0.2031
-0.01819
0.002293
-1.313
-0.2807
-0.5609
0.3409
0.3629
-0.008956
0.3615
-0.1156
-0.03316
2.676e-05
0.03901
0.087
0.1664
0.03638
0.09204
-0.753
-0.14
-1.913e-05
0.05402
0.04129
-0.01227
0.001986
-0.3508
-0.6745
-2.865
-0.2386
0.4575
-0.0181
0.1793
0.05357
0.0536
-0.1548
0.1299
0.0363
0.2756
0.02745
0.1602
0.3838
0.05137
-0.01106
0.03508
-0.03326
-0.09121
-2.026e-05
0.01731
-0.2133
0.06631
4.646e-06
-0.6499
-0.002552
-0.5477
-0.7759
-1.87e-05
-0.1027
0.03083
-0.3071
-0.434
0.00376
-0.6774
0.09905
-0.03111
0.1197
0.1521
-0.651
-0.1808
0.2115
0.09198
0.06865
-0.1331
2.489e-05
-0.1004
-0.044
0.03587
0.0889
-0.4943
-0.01695
-0.09907
8.985e-06
-0.112
-0.1825
-0.6521
0.03617
-0.652
0.001751
-0.4927
0.003962
0.1696
0.008713
0.0321
-0.2285
-0.6269
-0.01139
-0.03162
-0.01834
-0.1207
0.03922
-0.004168
-0.01802
0.06685
2.925e-05
-0.151
-1.91
0.08944
0.3057
0.0007506
-0.2807
0.02588
-0.01872
0.0007372
-0.4794
-0.09045
-0.005977
-0.00458
-0.09839
0.03524
0.07284
0.3692
-0.004705
-0.1519
-0.02082
0.03549
0.03884
0.3976
0.0003543
-0.01687
0.01138
-1.197
-0.00487
-0.09783
0.4882
0.06797
0.08823
-0.001269
0.02844
0.06292
-0.005322
0.06151
-0.002955
0.4437
0.1279
-0.6996
-0.6926
0.03515
0.02816
-0.3149
0.2776
0.04122
0.03537
0.0703
-2.857
-0.4996
0.1288
0.3581
0.06485
-0.003929
-0.3956
0.2686
-1.741
0.03492
0.085
0.0003754
-0.03109
-0.008392
0.1726
-0.9213
-1.282
0.3184
-1.475
-1.558
-0.3812
-0.01257
-0.019
0.03686
-0.03991
0.08324
-1.317e-07
1.888e-06
-0.5854
-0.094
-0.708
0.03954
-0.3879
0.05482
-0.04423
-2.073
0.1641
-0.01733
-0.05261
-0.06514
-0.04412
-0.4223
0.0003477
0.04087
0.1408
0.2746
-0.4022
-0.001942
0.01726
-0.715
0.1668
-0.005698
-0.3682
-0.2363
-0.1078
-0.001212
0.002166
-0.08166
0.03521
0.2989
-0.0001771
-0.1865
0.3937
0.1561
0.02144
-0.8962
-3.17e-06
0.4764
-0.8816
1.175e-05
0.3698
0.03368
-0.223
-1.332
0.04392
0.09703
0.02569
0.03977
0.0485
-0.04069
0.005658
0.1298
0.4198
-0.08983
-0.4189
-0.9196
0.3676
0.0524
-0.3842
0.3681
-0.1227
-0.9939
-0.01163
-0.04228
0.03632
-0.4823
-0.2554
-0.1907
0.01089
0.03293
-0.01164
0.1881
-0.009975
0.07184
-0.0006185
-0.01009
-0.6286
-1.077
-0.8525
0.07463
-0.6626
0.03782
-0.2012
0.06626
-0.01792
-1.492
-0.0288
0.03628
0.03087
-0.1841
-0.01092
-0.007894
-0.1001
-0.007127
0.1068
0.0006724
0.4187
-0.2788
0.04868
-0.008894
-0.5885
-0.1649
-1.373
0.001166
0.1253
0.04854
0.3333
0.03832
0.007418
0.3693
-0.3657
-0.5853
0.04284
0.04172
-0.0106
0.4132
0.05839
-0.02844
0.3829
-0.009803
-0.1257
0.02634
-0.04406
-0.639
0.2289
-0.01248
-0.3472
0.1324
-0.0003172
-0.004916
-0.7237
-0.3684
0.0322
0.03694
0.08313
0.3264
-0.0992
0.1181
0.07986
0.03014
-0.1064
0.04218
-0.1027
0.1465
0.0288
-0.07388
-0.000817
0.06761
-0.006426
0.009078
-0.6862
-0.0002864
0.01767
0.07597
0.1285
-0.8244
0.009852
0.06145
-0.009327
-1.972
0.1167
-0.03343
0.0612
0.1281
0.08104
-0.1767
0.05627
0.001818
0.03416
-0.4904
0.1213
-0.01087
-0.1134
0.03769
-0.109
-0.1581
-0.6251
0.2194
-1.211
0.05069
0.07438
-0.3825
-0.02937
-0.00379
-0.5215
0.03048
0.1071
7.132e-06
0.4996
-0.2399
0.04629
0.2173
-0.6876
0.07161
-0.4683
-0.2388
0.04637
0.005004
0.2122
0.03554
-0.0006794
0.04159
-0.5544
0.02898
-0.4866
-0.8109
-0.0004023
0.158
0.02602
0.05183
-0.408
-0.4131
0.04232
0.1025
-6.532e-05
-0.4042
-0.2146
-0.01842
-0.4087
-0.1506
-0.2667
-0.3142
0.1112
-0.04655
0.02863
0.0281
0.1463
0.09428
-0.1432
0.03717
2.005e-06
0.04981
-0.0112
-0.1804
0.4493
-0.5699
0.2164
0.03463
-0.6326
0.001559
0.01971
-0.1588
-0.2285
0.04238
-2.025
-0.2104
-0.003109
0.03767
0.07738
0.1254
0.03733
-0.007191
0.03708
0.1489
0.08756
0.4923
0.04222
0.001766
0.1047
-0.1061
-0.7002
0.06667
0.05138
-0.2167
-0.02827
0.0576
0.1479
0.07426
0.1026
3.338e-05
-0.00931
-0.5442
0.03908
-0.06617
-0.003378
-0.4759
0.001722
0.006704
-1.704
0.07437
-0.6437
0.03643
0.232
0.002125
0.03396
-0.05527
-0.01982
-0.116
0.06688
-0.815
0.08156
0.04186
0.3868
-0.6313
0.05023
-0.01604
-0.6635
-0.1881
0.181
0.03926
-0.01482
0.03166
0.003437
0.09347
-0.006832
-1.047
-0.6547
0.09801
-0.02972
-0.2081
-1.28
-0.2084
-0.01618
-0.1067
-0.009621
-0.09925
-0.6972
-0.6382
-0.02454
0.1663
0.0401
0.00559
0.1223
0.02538
-0.4181
0.08451
-0.8605
-0.0771
-0.0006027
-0.0356
-0.01101
-0.07017
-1.72
-0.5222
0.01761
-0.3154
0.02076
-1.214
0.1435
-0.03098
0.1282
0.1924
0.0004426
5.869e-05
0.01499
0.03874
-0.0203
-0.2343
-5.793e-06
-9.63e-05
-1.483
-0.2418
-0.2003
-1.067
0.06505
0.05306
0.209
0.06306
-0.01236
-0.1227
0.0001205
0.03834
-0.1658
0.1898
0.08117
-0.554
-0.1665
-0.1275
0.04025
-0.4826
0.4504
-0.1319
-0.3421
-0.006347
-0.1919
0.0465
0.09556
0.3746
-0.3283
0.032
0.004588
0.04093
-2.501
0.0002943
-2.611
0.109
-0.06543
0.09888
-0.007191
0.2514
0.03753
-0.01234
0.03789
-0.1669
0.04619
0.4402
0.1332
0.05716
0.01875
0.2047
-0.118
-0.6215
0.03607
0.1816
0.03631
-2.868
-1.282
-0.1784
-0.01096
-1.083
-0.0747
0.03869
-2.219
-0.04521
-0.1537
-0.00648
0.08589
-0.1011
0.006256
-0.01123
-0.0003691
-2.674
-0.01234
0.03657
-0.04721
-0.6801
-1.606
-0.4141
0.03967
0.2576
-1.61
-0.2484
-0.1659
-0.6378
-0.4148
-0.006413
-0.005957
0.007113
-0.02704
-0.1639
0.007575
0.01388
-0.007871
-1.208
0.001365
-0.0005865
0.01993
0.03691
-0.2278
-0.204
0.1298
-9.762e-05
0.3871
-0.3123
0.0002975
0.03389
-0.1712
0.03634
0.0779
0.05412
0.06174
0.1115
0.04025
-0.1491
0.03648
0.02853
-0.05267
-0.7799
-0.6707
-0.7599
-0.02201
0.008983
-1.598
-0.3041
0.3417
0.001278
0.07606
0.3315
0.0735
-0.011
0.0001212
0.0001249
-0.02584
-0.1507
0.01553
-0.11
0.06725
0.1486
0.4486
-0.0009201
0.07584
0.2736
-1.095
0.03312
-0.282
0.04565
-0.799
-0.273
0.128
0.07048
-0.1262
-0.03617
0.03139
0.02228
0.08562
-0.6703
0.05099
0.1835
0.002675
0.06042
0.01886
-0.8433
-0.003055
-0.008324
0.0005895
0.2877
0.0492
0.4921
0.106
-0.2325
-0.1591
-0.1403
0.0001145
-2.579
-0.3416
0.03584
-0.3514
0.002066
-0.01239
-0.01125
-0.9101
0.03619
-0.1908
-0.5884
-0.3703
0.01354
0.08275
-0.8652
0.05206
0.4778
0.1051
0.4872
-0.2746
0.03896
-3.534e-05
-2.923e-05
0.05103
-1.22
-2.25
-1.77
0.04602
0.03855
-1.579
-0.0003477
-0.012
-0.08507
-0.02743
-0.009435
-0.001714
-0.001378
0.2978
-0.01165
-2.189
0.1881
0.4431
-1.148
0.03926
-4.942e-05
0.2774
-0.2784
-1.337
-0.2003
-0.4151
0.01136
-0.526
-0.1038
-0.1915
0.03598
0.02779
-0.1186
-2.65
-1.271
0.07077
-0.001097
-0.009348
-4.797e-05
8.727e-05
0.1567
0.02489
-0.001141
0.03573
-0.004614
-0.6143
-0.7446
-0.2885
-1.409
0.002024
-0.06685
-0.3866
0.04221
-0.4121
0.07472
0.205
-0.01314
-0.00295
-0.7073
0.278
0.2254
0.07933
-0.06723
-0.03267
0.1036
0.1783
-6.884e-06
0.2661
-0.1369
0.03925
-0.07004
0.365
0.02957
-0.6869
0.002132
-0.7708
0.3247
0.03936
-0.5677
0.1698
-0.3083
-0.004339
-0.6621
0.0445
-0.08506
0.07672
0.07329
-0.1362
0.05788
0.3298
-2.487
-0.6818
-1.841
0.03631
-1.856e-05
-0.3663
-0.01555
-0.9308
0.138
-0.828
0.01021
0.03737
-0.0093
0.06219
-0.1133
-0.005155
-0.1037
0.04912
0.3929
-0.328
-0.001808
0.04866
-0.007983
0.219
0.4468
0.1144
-0.005604
0.09135
-0.01685
-0.6929
0.01883
0.5012
0.3938
-0.007242
0.05969
-0.5628
-0.8234
0.4562
-0.05521
-0.4807
0.367
0.09127
0.07365
-0.2548
0.2951
0.05971
0.02011
-0.001001
0.02519
-0.07851
-0.7408
-0.06222
0.1142
-0.03288
0.05358
0.07649
-0.001169
0.0555
0.1102
0.06926
0.05769
0.06955
-0.616
-0.0001748
-0.2247
0.08681
-0.2483
0.4412
0.1264
0.1064
0.009555
0.06998
0.403
0.3864
-1.407
0.07692
0.04351
0.06668
-0.01243
-0.02474
0.02228
2.443e-05
-0.7751
0.1863
0.1772
0.4463
0.08706
0.008777
0.0006262
-0.4444
-0.6574
-0.0007192
0.2523
-1.714
-0.2624
0.0002413
-0.04061
0.03807
-0.185
-1.234
-0.05725
0.04919
-0.265
3.327e-05
-9.343e-05
0.01971
-0.04883
-0.6731
0.4546
-0.01363
0.03779
-0.5736
0.07596
-0.895
0.03555
-3.441
0.03894
0.01963
-0.4833
0.04917
0.004403
0.05191
0.003385
-0.2648
0.01298
0.03213
0.4043
-0.1045
-0.1843
0.06668
0.02031
-2.613
0.05268
-0.1955
-0.7291
-0.2549
0.1336
0.03864
-0.05646
-0.0006187
0.2365
0.07881
-0.5854
-0.7601
-0.2016
0.1145
0.1492
-0.06134
-0.4224
0.02361
-0.4163
0.08782
0.03151
5.924e-06
-1.654
0.2832
0.06321
8.091e-06
-0.02795
-0.02213
0.04571
-0.6242
0.03409
0.04588
-0.0007363
0.4512
0.09856
0.09518
-0.0006514
-0.02283
0.04775
-2.328
0.04133
0.03735
-3.276
-0.003181
0.06952
8.67e-06
-1.508
0.3037
-0.01279
-0.2012
0.01572
0.05016
-0.01558
0.04594
-8.36e-05
0.1423
0.03975
-2.243
-0.01368
-0.4691
0.1954
0.3267
-0.0007068
0.001799
-0.8439
0.1062
0.02051
0.05862
0.04639
0.05585
-0.01002
0.1359
0.2173
-0.5136
-1.298
-0.1595
0.02591
0.07598
0.1045
0.03988
-0.1111
0.01626
-0.03724
0.07018
0.05745
0.03568
0.0548
0.04878
1.497e-05
-0.05496
0.03686
-0.001449
-0.01406
0.008274
-0.1765
0.08614
0.01434
0.1078
0.0367
0.3832
0.03897
0.04391
-0.01129
-0.01017
0.05973
-0.3267
0.002974
-0.6927
-0.3046
0.083
-0.679
-0.005863
0.03616
-0.00273
0.07195
-0.01363
0.08413
-0.4301
0.1472
0.04586
-0.5241
-0.2655
0.04514
0.02632
-0.4888
-0.08269
-0.1042
-0.1371
-0.5269
-0.01301
-0.533
-0.08955
-0.02205
-0.004489
-0.03545
0.08156
0.1134
3.435e-05
-0.3431
-0.2948
-0.7424
-1.872e-05
0.002849
0.03695
-0.01021
-0.006268
-0.4739
-0.1243
-0.1918
0.07256
-0.05408
-0.02551
-0.00175
-0.0113
-0.007628
0.07595
-0.1827
0.005284
0.0763
0.03829
0.02031
-0.01137
-0.05921
-0.001048
0.05137
-1.173
0.01085
-0.6431
-0.006864
0.1925
0.03991
-0.1458
-1.103
-0.5885
0.04957
0.0517
0.0377
-0.1114
-2.431
0.03825
-0.1485
0.1146
0.01284
-0.00114
0.3201
0.0511
-1.414
0.009025
-0.2766
-0.07746
-2.448
-0.1664
0.1287
-1.679e-05
1.16e-05
0.0497
-0.5632
0.0113
0.4737
0.02747
-0.2605
0.06637
0.00156
0.048
0.1634
0.0834
0.01099
0.0393
-0.02124
0.2353
-4.61e-05
0.06664
0.2411
0.1243
0.2575
-0.3555
0.5017
0.01264
-0.6966
0.0392
-0.5514
-0.3831
0.09569
-1.352
-0.0004997
1.669e-05
-1.586e-05
-0.1053
-0.00764
0.03953
0.3883
0.4117
-0.6943
0.0007108
-0.01376
0.4066
-0.007927
-0.3045
0.2031
-1.706
0.1023
0.1892
0.105
0.4988
-1.958
3.967e-05
0.06534
0.09032
0.07828
-0.01057
0.3351
-0.327
-0.6276
-0.5108
-0.08668
0.05907
-0.1077
0.3537
0.1438
-0.3486
0.02077
-3.153
-0.007696
0.00148
-0.05326
-0.4334
0.3897
0.1305
0.08973
0.07803
-0.7866
-0.04841
-0.01551
-0.0003196
0.06952
-0.05457
0.08438
-0.189
0.194
-0.2234
0.3823
0.04274
-0.4929
0.07165
0.03849
-1.28
8.395e-05
-0.0101
0.04129
-0.8532
-0.189
-0.1139
0.05021
0.1263
0.0001653
-0.5017
-1.927
0.08402
0.0345
0.004391
-0.2512
-1.011
1.26e-05
-0.5802
0.08284
0.04083
0.4418
0.05422
0.1704
-0.01275
-0.2064
0.3642
0.05869
-0.472
-0.006156
0.04323
0.008286
-0.01831
0.05181
-0.01222
-1.965
0.04728
-0.05299
-0.7078
0.01966
0.1352
0.431
0.3998
0.445
-0.6466
-0.7471
0.04537
0.3339
-1.724
-0.4564
0.1846
0.02631
-0.0279
-0.2229
-0.06885
1.766e-05
-0.2649
0.008988
-0.0003065
-1.616
-0.03639
0.001918
0.2161
-0.3288
-0.4924
0.05821
-0.8095
-0.1425
0.4913
-0.1899
0.01417
-0.0002106
-0.3195
-0.1825
-0.0002818
-0.01109
-0.2312
-0.01348
0.03581
1.206e-05
-0.1926
0.04484
0.08051
-0.2517
0.02239
-2.292
-0.1192
-0.2056
-0.3259
-0.03794
-0.01134
0.007036
0.1609
-0.2393
0.02437
-0.8958
-0.7284
0.03684
-0.1617
-0.02201
-0.588
-0.224
-0.2181
0.05744
-0.3625
0.0178
0.08438
0.3618
0.06996
-0.06105
0.04091
0.01995
-0.1787
-0.03113
0.2681
-0.006244
-0.7144
0.06676
0.3833
0.006455
-1.107
-0.5431
0.002313
0.08467
0.06771
-0.4683
-1.678
-0.4126
-0.5709
-2.431
0.01194
0.03636
-0.132
-0.2057
0.2264
0.2497
-0.02339
-0.4465
-0.2117
0.216
-2.273
0.2636
-0.6583
-1.336
-0.1299
0.05495
-7.356e-05
6.936e-05
0.04051
-0.6123
0.2448
-1.243
0.04046
0.007512
-0.7425
0.1409
-0.6206
0.02898
-0.02116
-0.6976
-0.5418
0.04105
-2.182
0.1969
-0.002111
0.03962
-0.002771
0.1206
0.1189
0.03893
-0.0002015
0.09504
-0.1222
-0.1628
-0.004244
-7.232e-05
-3.394e-05
-2.667e-05
-2.078e-05
0.04571
0.03157
0.1298
0.385
0.0731
-0.008839
-0.3843
-1.023
1.135e-05
-0.3889
-0.01062
0.0311
-0.78
0.02633
0.03318
0.06139
0.06959
-0.5823
0.03907
-0.0254
0.06203
0.501
0.1834
0.05119
0.4003
0.4446
-0.01374
-0.01193
-0.1994
0.1491
0.04884
0.1281
0.3812
-0.01036
-0.002812
-0.7516
-0.001225
-0.6949
-0.0883
-0.3274
-0.0003453
0.0363
-0.2508
-0.1353
0.0009581
0.4057
0.05131
-0.06022
-0.04041
0.3838
0.01339
-0.02755
-0.3886
0.03103
-0.1925
0.0335
-0.3085
-0.794
0.09074
0.4612
0.06971
-0.2415
-0.007566
0.03694
-0.1155
0.06468
0.03878
-0.7875
0.01312
0.355
-0.01841
0.01074
-0.3097
5.209e-05
0.4892
-0.1419
0.03503
-0.08942
0.1228
0.007122
0.0565
0.00668
0.09142
-0.01847
-0.000247
0.1526
-2.989
-0.8385
0.006802
-1.096
-0.7878
0.03701
8.02e-05
-0.2021
-0.3763
0.09807
-0.0682
-0.1718
-1.726
-2.801
-0.1291
0.05899
0.03212
-0.01119
0.1111
-0.7923
0.0391
-0.01055
0.06157
-2.486
0.03918
0.1639
0.05976
-0.6628
0.0375
-0.03929
-0.1082
-0.008936
-0.2929
-1.219
-0.08298
-0.3507
0.1646
-0.23
0.03497
0.3665
0.006896
0.01689
0.03752
-0.4338
-0.08319
0.02497
-0.7003
0.07121
-0.09423
-0.5861
-0.009586
-0.09137
-0.007961
-0.7145
-0.6987
0.09941
-0.1093
0.4241
0.03949
0.2193
-0.05875
-0.927
0.03711
0.04213
0.07002
0.4115
0.07163
0.06786
0.3961
0.00343
-3.122
-0.0008236
-0.1053
-0.5806
0.03492
0.04242
-2.059
0.001825
0.4879
-6.353e-05
0.42
-0.8974
2.672e-05
-0.09808
-0.008994
0.5009
0.04922
-0.0101
-0.2205
0.1587
-2.013
-0.3701
0.2671
0.06704
-1.101
0.002245
-0.1007
0.06269
0.02208
0.04117
-0.0054
0.03392
0.06108
0.08282
0.169
0.139
-0.005261
0.05535
0.2261
0.09489
-0.04099
0.02018
-0.2058
0.08727
-0.5985
-0.7003
-0.06053
1.287e-05
0.03279
0.05995
0.09828
-1.31
-0.01038
-0.0549
5.021e-06
-0.1146
0.1076
-1.249e-05
-0.1682
0.1863
0.101
-0.3466
-0.005316
0.03662
-0.09629
0.0497
0.1487
0.0431
-0.02842
-0.7113
-0.1601
-0.1656
-0.4136
-0.02882
0.2345
0.09287
-0.005937
0.04388
0.1635
0.3239
0.03216
0.03999
-0.5592
1.171e-05
0.08439
-0.09379
-0.01106
0.08757
-1.131
-0.203
-1.388
0.04552
-0.002476
0.3765
-0.001786
0.03504
-6.15e-05
-0.3045
0.1328
-0.1024
0.26
0.001314
0.4776
-0.1904
-0.08581
-0.1365
-0.2532
-0.5685
0.292
-0.3054
-0.09528
-0.7705
0.01078
-1.586
-0.5909
3.901e-05
-0.009655
0.04076
-0.002729
-0.04206
0.03982
-0.004981
-0.8924
-0.3408
0.09949
0.1275
0.05131
-4.59e-05
-0.1806
-0.1931
0.1471
0.03634
0.3763
0.08401
-0.007206
0.3243
-0.01421
0.04959
-0.1606
-0.3173
0.06865
-0.3102
0.05733
-0.1608
-2.104
0.249
0.0003963
-0.1789
-0.1136
0.001455
0.1033
0.008862
0.03666
-0.3052
-1.82
-0.07621
-0.002232
-0.3077
0.04548
-0.8869
0.03604
-0.8372
0.001148
-0.0432
-0.325
0.08758
0.1569
-0.6687
0.04499
0.07062
-0.9397
0.09146
0.4884
-0.9284
0.0009864
2.138e-05
-0.04291
-0.07086
0.2785
0.03064
-0.2012
0.003774
0.06324
0.4181
0.06034
-0.008413
0.04759
-0.3857
0.04871
-0.0004072
0.4943
-0.6611
0.0507
2.118e-05
0.05025
-0.1733
0.08812
0.04912
0.1619
0.2349
-0.1575
-0.5595
-0.004971
0.04221
-0.0008059
-0.7607
-0.02047
-0.6932
0.05186
-0.1034
0.1511
-1.962
-0.01144
-0.2946
0.1
-1.436
0.3006
0.004958
-1.092
-0.6511
-0.1974
-0.3562
0.07024
-1.629
-0.1025
0.0416
0.02517
-0.01084
0.02061
-0.5675
3.877e-05
0.4509
0.09892
0.0673
0.01969
-0.9145
0.3266
0.1544
-0.01315
0.09286
0.05337
-1.021e-05
-2.456
-0.2709
0.007969
-0.05225
0.04172
0.04037
0.002325
-0.05836
-0.008974
0.05999
0.1774
-0.7182
-2.542
-0.6623
-1.623
0.06004
0.005883
-0.5307
-0.01492
-0.2377
-0.578
-0.2583
-0.005451
0.04973
-0.1086
-0.01434
-0.05127
-1.655
0.3387
-0.03408
-0.2442
-0.0002709
-0.1838
0.4174
-0.08586
0.1797
0.102
0.1652
0.03766
-0.008764
-0.8941
0.03956
0.008338
-0.5618
-0.1675
0.3609
0.06785
-0.6867
0.09208
-0.1508
0.3021
-0.02271
0.001976
-0.02948
0.01946
-0.0002623
-0.5416
0.07209
0.3965
0.02252
-0.1953
0.0385
0.06265
-0.1406
-0.7777
0.008092
-0.1629
-1.112
-2.776
0.05337
-0.2176
-1.605
-0.6808
-0.581
0.1507
-0.02065
-0.2515
-0.0008503
0.00283
-0.1553
-0.3195
-0.006126
0.3209
0.04138
0.2675
-0.05132
-0.7814
-0.2933
-9.966e-06
0.3199
0.03339
0.1533
1.449e-05
-0.5585
0.0423
-0.03857
-0.2899
-0.679
-0.009239
-0.007543
0.0008587
-0.3491
-0.011
0.2619
-0.9108
0.05288
0.01607
0.05079
-0.007806
0.01
-0.341
-0.03434
-0.09082
0.02527
-0.3765
2.558e-05
0.0137
0.04938
-0.002273
-0.01125
-2.157
-0.008268
0.009914
-0.211
0.03905
0.0005662
0.1404
0.0528
0.227
-0.1413
-0.2431
0.4876
0.0002527
0.2348
-1.329e-05
-0.4718
0.2185
0.01756
-0.004491
-0.1708
0.03413
-0.01258
0.01011
0.1401
0.0008823
-0.6496
0.1016
-0.01609
-0.7161
-1.52
-0.2026
0.0005945
0.076
-0.1866
-0.01591
0.4281
-0.1188
-0.01355
-2.109
0.1668
0.01965
0.06723
-0.00761
-0.0178
0.03039
-0.6238
-0.2
0.05526
0.09806
0.03612
0.1514
-0.009654
0.1661
0.0339
0.137
-0.6773
-0.009652
-0.007489
0.126
-0.6328
0.02329
-0.7251
0.2786
-0.086
-0.04416
-0.2417
0.3071
0.03955
-0.8732
0.0537
-0.003628
-0.4119
0.2324
-1.821e-05
-0.3544
0.1454
-0.6743
-0.7549
-0.7519
-0.6995
-0.7111
-0.001171
-1.326
-0.3591
0.0002349
-1.8
-0.009889
-0.06785
-0.4813
0.00157
-0.8419
0.4344
-0.002126
0.2006
-0.0845
0.0364
0.04094
0.322
0.08425
0.0517
-0.01034
0.03558
-0.01907
0.05348
0.3194
-0.1877
0.05148
0.04058
0.0637
-0.6386
-0.2532
0.0323
0.4439
0.0169
-0.09196
0.3569
0.05177
-0.3573
0.001232
-0.007231
0.04499
0.04107
0.02274
-0.1807
-0.7414
0.0002778
0.05434
-0.1299
-0.2548
-0.2175
0.0919
0.1193
-0.1443
0.398
0.4011
-0.09397
0.1734
-0.03456
0.05084
-0.7534
0.1294
-0.00506
-0.1489
0.0003011
-0.02224
0.1282
0.04513
-0.01175
-0.2578
0.04168
-0.3387
-0.6042
-0.002811
-0.004048
0.06614
0.04821
0.03708
-1.169
-0.08498
0.1069
0.4412
-0.6832
0.2443
-0.6501
0.03811
0.1077
-0.6817
-0.1997
0.116
0.153
0.03986
0.04829
-0.1899
0.02025
0.0482
0.008949
0.002412
0.05029
-0.009162
-0.1116
0.1105
0.002016
0.03228
0.1223
-0.001817
-0.01513
-0.6555
-0.4496
6.247e-06
-0.5572
-0.7251
0.02009
-0.001802
-0.02502
-0.001775
-0.8036
0.0006919
0.04527
-0.56
0.4841
0.1303
0.03889
0.02742
0.003034
-0.01035
0.1335
0.2042
0.1051
0.06001
-0.947
0.07513
-0.3421
-0.01024
0.02152
-1.956
0.03683
-0.4467
-0.07636
0.009877
0.2177
0.1817
-0.7633
0.08208
-0.2574
0.002937
0.4767
-0.7881
-0.09182
-0.1038
-0.7252
-0.1199
-0.01008
-0.008111
0.1063
-2.664
0.07436
-0.02634
-0.1179
0.01465
0.05892
0.1166
-5.817e-06
0.3804
-0.6576
0.04561
-1.348
-0.2057
0.006121
0.04916
0.03928
-0.0004813
-0.008281
0.07786
0.2342
-0.6698
0.1084
0.08737
0.05927
0.0389
-0.08183
-4.754e-05
0.01973
0.1212
0.04003
-0.0122
0.01132
0.05632
0.073
-0.01032
-1.955
-0.5019
0.4867
-0.1403
-1.203
-0.5567
0.05024
-0.7928
0.04453
-0.02218
-0.3237
0.2783
0.008665
-0.3266
-2.01
0.1576
-0.5258
-0.7023
-0.2494
-0.01009
0.0537
0.1177
-0.1611
-0.3947
-0.09833
0.01161
0.001305
-0.1157
0.2995
0.04695
-0.1402
-0.1853
-0.5374
-1.012
0.04857
0.04585
-0.0004947
-0.5181
-0.3625
-0.4044
-0.2165
0.04791
-0.5277
0.03961
0.1095
-0.8304
0.1378
-0.3638
-0.3219
0.04152
0.07662
-0.1874
0.08152
0.01394
-0.009895
0.04218
0.07656
-0.01839
0.04741
0.08892
0.03004
0.06077
-0.4084
-0.001564
-0.16
-0.1709
-2.011
0.01257
-0.03139
-0.01299
-0.03212
0.05076
0.02644
-0.008196
0.07636
-0.006752
0.1825
-0.009092
0.1321
-0.1861
0.03933
-0.2195
0.05183
-0.2373
0.05071
-0.06818
-0.002943
-0.6173
-0.005736
-0.01077
-0.2465
-0.005478
0.00498
-0.463
-0.0504
0.1233
0.1538
0.06265
-0.001722
0.008624
0.04763
0.09488
0.2048
0.03854
-0.001392
0.1948
0.001854
-1.626
-0.8708
0.1557
0.3881
0.05763
0.04238
0.05096
-0.5579
-0.5815
0.2303
0.305
0.09204
-0.1062
0.02714
0.01284
0.1842
0.03623
-2.051
-0.008811
-0.07897
-0.003997
-0.3305
-0.3667
0.2258
-0.6896
0.03842
0.3239
0.07823
0.04089
0.4834
-0.1516
0.2159
0.04406
-0.1097
-0.4481
0.06996
-0.6053
-0.01504
0.1902
-0.000634
-0.2433
0.05169
0.0476
0.04087
0.1452
0.2336
0.03937
0.1315
-0.01935
-1.819
-0.04564
-8.566e-06
-4.188e-06
0.0006763
0.04823
-2.089
-0.2743
-2.374
-0.6414
-3.53e-05
0.1278
0.08703
0.05099
0.06618
-1.779
-0.7863
-0.01137
-2.002
-0.02302
-0.1903
0.4752
-0.03738
-0.4481
-0.1253
0.0489
-0.01209
0.1386
-0.002609
0.04054
-0.5401
-0.7158
-0.4246
-0.2402
-0.1989
-0.01054
0.007396
-1.391
-0.3224
0.182
-0.009739
-0.004848
0.08185
0.06236
-0.09316
-0.09279
0.3414
-0.9201
-0.1247
0.008292
0.07005
-0.2493
-0.2033
0.02725
0.07068
0.001687
0.04286
-0.37
-0.0271
0.02351
-0.6754
-0.6568
0.1369
-1.379
0.3794
0.03969
-0.007952
0.1524
-0.134
2.197e-06
0.01639
0.007254
-1.514
-0.02255
0.023
0.003233
-0.8887
0.01796
0.03937
0.07772
0.04664
-0.1675
-0.01556
0.1172
0.03772
-0.4063
-0.1847
-0.04007
-0.0002211
-0.5043
0.02467
-0.01366
-0.01932
0.0309
0.4576
-0.003909
0.00289
0.1842
-0.0001457
0.109
-0.1471
-1.141
0.06683
-0.007188
0.04227
-0.6596
0.03662
0.0003896
0.07342
-0.01047
-1.899e-05
0.07761
0.0646
-0.6493
0.008583
0.005918
-0.01171
-0.01405
-0.000342
-0.01057
-0.04054
-1.62
0.04645
-0.3042
0.04907
0.04347
-0.002114
-4.141e-05
-0.1501
0.1403
0.06979
0.01007
0.04429
0.01398
0.0721
0.0002842
-0.4097
-0.02337
-0.2456
0.03632
0.03701
0.01922
-0.3642
-0.241
-0.3022
-0.01089
-0.007731
-0.7463
-0.1671
0.1569
0.4997
0.06005
0.04532
-0.1595
0.07645
0.0683
0.2327
-0.2515
-1.711
-0.5827
0.06405
0.05411
0.0001153
-0.005072
-0.1854
-0.6353
-1.13
-0.00305
-0.2338
1.281e-05
0.1994
-0.9826
-0.4611
-0.02853
0.05073
-0.1381
-0.4721
-0.4166
0.4666
0.3403
0.3044
0.4116
0.03691
-1.601e-06
0.02101
-0.3087
-0.1018
0.07685
-0.1253
-0.03927
-0.003934
-0.2126
0.1503
-1.044
0.05683
-0.06857
-1.082
-0.0007405
0.2394
-0.01403
0.2756
0.03885
-0.01166
-0.5718
-0.3752
0.1014
-0.01271
-0.01213
0.04463
0.09692
0.06903
0.08185
-0.00804
0.03227
-1.194
-0.1284
0.2424
-2.103
0.0003993
-0.01089
-0.278
0.02793
-0.002583
-1.637
3.056e-05
-2.965e-05
0.2331
-0.0003166
-0.1369
0.0364
0.03901
-0.1863
0.09265
0.003062
0.008746
-0.4254
0.05344
0.4066
0.04747
-0.2739
0.001505
-0.002645
-0.8502
0.03661
-0.114
0.002072
0.008273
-1.587
-0.008272
0.0042
0.02498
0.08783
0.0986
-0.0761
-0.6422
-0.005555
-0.001382
0.01084
-0.002903
-0.02554
-0.008509
-0.01142
0.104
-0.05504
-0.1438
-0.01101
0.0981
0.03031
0.04948
-0.3836
-0.006469
0.1094
-0.2544
-0.9912
-0.004573
0.01474
-0.008377
-0.3318
0.0007573
0.1053
-0.03846
0.07224
0.09874
0.03285
0.007224
-3.094
0.1547
0.2623
0.008567
-1.526
0.005992
-0.03966
0.1134
0.03019
0.01274
0.03434
-0.1565
-4.977e-07
-2.67
-1.781e-05
0.01907
-2.356
-0.07452
-0.3692
-0.0002622
-1.86
0.01234
0.05064
-0.0976
-0.6851
0.1771
0.03388
0.4061
0.03657
0.01358
-0.4333
-0.6568
-0.0185
0.4856
-0.4732
-2.334
0.04563
0.002098
-0.1095
-0.01265
0.01446
0.007941
-0.7924
-0.07279
0.5016
-1.307
0.4889
0.01075
0.04032
0.00641
0.03006
0.01936
-1.081
0.1211
-0.2434
-2.049e-05
-0.1332
0.1425
-0.6574
0.03796
-1.983
-0.05003
-0.3622
0.4611
0.08357
0.06488
-0.001527
0.007884
0.03981
1.363e-05
-0.01417
0.286
-0.007944
0.047
-0.9624
0.007759
0.05512
-0.1408
0.04515
0.1302
-0.6818
0.4024
-1.215
-0.7468
0.0287
-0.171
-0.1188
-0.6536
-0.06156
-0.3054
0.03231
0.03852
0.0009373
-0.611
-0.0003797
0.2028
0.2583
0.07394
0.03611
-2.409
-0.1264
-0.0001731
-1.079e-05
0.06206
-0.183
-1.418
-0.1024
-0.00833
-0.1106
-0.5682
0.06972
5.494e-06
-0.6678
0.06679
-0.1666
-0.5025
-1.22
0.4152
0.4977
-0.09044
-0.5305
-0.4817
0.01219
-0.01193
0.07796
-0.9454
0.3729
-0.02722
-0.00923
-0.007227
-0.09898
-0.4203
-0.8545
0.007424
0.3984
-1.737
-0.2098
0.3594
0.3908
-0.009761
-0.759
-0.001757
-6.677e-05
-0.952
-0.01056
0.06312
0.0135
-1.483
-0.002807
0.2271
0.1331
0.003211
0.04309
0.04091
-0.02869
-0.9163
-0.3316
-0.3862
0.05308
-0.01198
-0.7127
0.03938
-0.1526
0.4895
0.0427
0.04496
0.05956
-0.02684
-0.006503
-0.0004874
-0.08691
-0.1053
-0.1304
-0.1718
-0.002843
0.03204
0.009554
-0.693
-0.3819
0.1944
-2.585
0.01661
-2.689e-05
0.09196
0.07495
0.1028
-0.000379
-0.363
0.1391
-1.136
-1.136
0.0105
-0.6553
0.0001769
-0.01139
0.03413
0.1428
-0.1744
-0.637
-1.866
0.1537
0.1106
0.03946
-0.02164
0.05667
-0.0129
-1.78
4.898e-05
-0.00781
0.02993
0.0009434
-0.1993
0.0317
-0.2801
0.03252
0.2513
-0.1678
-0.1075
0.1122
0.06926
-0.004097
0.0002968
-0.4229
0.04238
0.06578
-0.3828
0.02947
-0.6885
0.04055
-0.01313
0.03736
-0.194
0.318
0.07202
-2.121
0.05151
0.4035
0.03122
-0.1057
-0.006069
-0.1413
-0.008178
0.06648
0.1383
0.04287
0.09533
0.07439
0.182
-0.2429
-0.01118
-5.099e-05
-0.2889
-0.01227
-0.0543
0.127
-0.6448
-0.09451
-0.00464
-0.7327
0.04725
-1.51
0.006643
0.001789
0.05847
-0.007349
-0.005498
-0.7984
0.1451
-0.6432
-0.2414
0.3034
0.02056
-0.9264
-0.004478
0.04448
0.0005119
0.08372
0.1175
0.005025
0.00304
-0.1958
0.04052
0.4146
0.02468
-0.6911
-0.3737
0.03817
0.002178
-0.2281
0.3815
-0.1049
-1.83
0.04418
-2.209