/*--------------------------------*- C++ -*----------------------------------*\
  =========                 |
  \\      /  F ield         | OpenFOAM: The Open Source CFD Toolbox
   \\    /   O peration     | Website:  https://openfoam.org
    \\  /    A nd           | Version:  8
     \\/     M anipulation  |
\*---------------------------------------------------------------------------*/
FoamFile
{
    version     2.0;
    format      ascii;
    class       surfaceScalarField;
    location    "30";
    object      phi;
}
// * * * * * * * * * * * * * * * * * * * * * * * * * * * * * * * * * * * * * //

dimensions      [0 3 -1 0 0 0 0];

internalField   nonuniform List<scalar> 
189008
(
1.72e-07
-1.719e-07
2.718e-08
-2.717e-08
-1.305e-08
1.307e-08
-1.879e-08
1.884e-08
-9.66e-06
9.661e-06
-1.872e-08
1.876e-08
7.098e-05
-7.098e-05
-2.129e-05
2.129e-05
-1.2e-05
1.2e-05
-2.928e-05
2.928e-05
0.0001053
-0.0001053
-3.166e-05
3.166e-05
-1.976e-08
1.976e-08
2.025e-08
-2.02e-08
-0.0004707
0.0004244
4.624e-05
1.592e-05
-1.837e-05
2.448e-06
-5.524e-08
5.54e-08
0.03943
-0.01651
-0.02292
0.007819
-0.004846
-0.002974
-8.528e-06
1.096e-05
-2.435e-06
-0.00387
0.00336
0.0005105
-1.987e-06
1.189e-06
7.978e-07
-0.003285
0.00913
-0.005845
2.435e-05
0.0007284
-0.0007527
-1.405e-06
-5.807e-07
-0.000774
0.0003883
0.0003857
0.0003188
-0.0003585
3.967e-05
0.0003513
-3.25e-05
0.0002918
-0.0002117
-8.019e-05
0.0218
-0.03912
0.01733
-6.179e-05
-0.0003278
0.0003896
-0.0002543
-0.0005197
0.0001895
-0.0001424
-4.706e-05
0.0004126
-0.0002346
-0.000178
0.007635
0.01126
-0.0189
4.396e-05
0.0001455
-6.288e-05
-0.0003223
0.0003851
-0.006031
0.007218
-0.001186
-5.587e-05
0.0007535
-0.0006977
-0.0001015
0.0001199
-1.838e-05
0.004669
0.003151
0.00281
-0.00554
0.00273
0.0007977
-0.00663
0.005832
5.429e-08
-5.421e-08
0.001386
0.03805
0.0002324
0.0001802
0.0001727
0.0001191
0.001123
-0.001127
3.311e-06
-0.0009745
0.001188
-0.0002138
-3.392e-05
0.0006241
-0.0005902
5.427e-06
1.049e-05
-0.01607
-0.0269
0.04297
0.001002
0.0004318
-0.001434
-0.01584
0.01247
0.003368
1.081
-0.1294
-0.9519
0.001305
-0.00101
-0.0002952
-0.1447
1.226
0.01049
-0.0066
-0.003889
-0.3149
0.02067
0.2943
-0.008397
-0.007443
-0.002747
0.00169
0.001057
0.002858
-0.004765
0.001907
-0.0001807
0.001685
-0.001504
-0.8103
0.9555
-0.1452
0.0004347
-0.001019
0.0005845
-0.0005388
-0.00229
0.002829
-0.03353
0.02538
0.00815
0.002127
-0.001749
-0.0003781
0.0005891
0.001538
-1.288
0.4832
0.8047
-9.577e-05
-0.0004823
0.0005781
-0.0001323
-0.0002262
0.0008921
0.004337
-0.005229
-0.118
-0.1969
-0.2751
0.518
-0.2429
0.0001417
0.0002096
-0.05236
0.09472
-0.04236
0.001031
-0.0009417
-8.905e-05
0.0006314
0.0006734
0.1607
-0.6345
0.4739
-0.0003025
0.0002147
8.781e-05
-9.414e-07
-7.586e-06
-0.0002989
-0.0003837
0.0006826
2.103e-05
9.173e-05
-0.0001128
-0.0005556
0.0008207
-0.0002651
0.0006345
-0.000947
0.0003124
-0.000755
0.001471
-0.0007159
-0.0004004
0.0001302
0.0002702
-0.002594
0.002055
-0.0007587
0.001284
-0.0005248
0.1788
-0.01787
-0.161
-0.009215
-0.003223
0.01244
-0.0005495
0.001605
-0.001055
-0.002131
-0.00174
-0.001905
0.001966
-6.159e-05
0.02111
0.01803
-0.03913
0.004928
-0.002119
0.0004926
-0.0004973
4.625e-06
0.001311
0.0003029
-0.001614
-0.02289
-0.01063
0.6868
-0.5261
-1.982e-05
-0.0009546
-0.0001672
-0.0005363
0.0007034
0.003769
-0.004596
0.0008267
-0.0001758
0.0008103
0.001751
-0.0004398
-0.001036
0.001487
-0.0004508
-1.008
-0.2798
-0.0007464
0.0004353
0.0003111
-1.154
0.8753
0.2787
-0.0003371
-0.0001336
-0.0002906
-0.0001098
0.003031
-0.0004928
-0.002538
0.002158
-0.002593
0.0004351
-0.2141
0.09903
0.1151
0.0004709
0.002231
-0.002702
-0.1093
0.06171
0.04764
0.1657
-0.4408
0.02495
-0.07731
-3.884e-07
3.055e-07
8.312e-08
-1.251
0.09745
-0.0001496
-0.0002906
0.0004402
-0.0003305
-0.0005169
0.0008473
0.01227
-0.01045
-0.001822
-0.0001831
-0.0001193
0.0006745
-0.0006146
-5.996e-05
0.002785
0.001215
-0.004
0.08768
-0.105
0.01732
0.002903
-0.001142
-0.001761
-0.0008289
0.0006546
0.0001743
-0.0009216
0.0002676
0.000654
-0.001374
0.0005541
0.0008197
-0.0003233
-0.001201
0.001525
0.00046
0.0005707
1.215e-07
-8.757e-08
-3.371e-08
-0.001001
7.903e-05
-0.006784
0.03621
-0.02943
0.001605
-0.002889
0.001283
-0.0001371
0.0001605
-2.339e-05
0.03083
-0.05485
0.02402
0.007418
0.0005406
-0.007958
-0.05208
-0.0395
0.09158
0.002828
-0.003319
0.0004909
0.006188
-0.003361
-0.002827
0.001624
-0.000622
0.002245
-0.0007784
-0.001467
-0.0002176
-0.0001174
0.0003349
-0.02772
-0.7826
-0.00168
0.0003057
0.0005373
-0.0008436
0.0003063
0.00224
-0.003315
0.001075
0.001254
-0.0003364
-0.0009178
0.004618
-0.008209
0.003591
-0.008569
0.001565
0.007003
-0.0002483
0.0002462
2.125e-06
-0.0006995
0.000144
0.006866
0.003623
0.0007359
-0.0005863
-0.0001496
0.0002561
0.0008673
0.0002372
-0.0004684
0.0002312
-0.0003705
0.0007043
-0.0003338
-9.363e-05
9.363e-05
0.1876
-0.008727
-0.001172
0.0003378
0.0008339
0.0002435
-0.0005584
0.0003149
-0.0003502
0.000785
0.0003629
-2.828e-05
-0.0003346
-0.0003762
0.001256
-0.0008796
-0.001521
0.001159
0.0003615
-0.04615
0.03413
0.01202
-1.245e-05
-2.35e-05
3.595e-05
0.004017
0.002171
-0.003969
0.00171
0.002258
-0.002188
0.0007322
0.001456
1.039
-1.216
0.1765
0.0001137
-9.984e-05
-1.386e-05
-0.001257
0.0006351
0.0006218
0.001617
0.001286
-0.0005548
0.001113
-0.0005585
0.1227
-0.1486
0.02586
-0.001457
-0.0007315
-0.115
-0.006353
0.1213
-9.564e-06
-7.732e-05
8.689e-05
4.759e-05
6.611e-05
-0.0003264
-0.0005025
-0.00145
0.004308
0.001176
-0.009623
0.008447
0.0002818
0.001876
0.0006975
-0.0006731
-0.006822
0.08717
-0.08035
0.0001324
-0.001125
0.0009925
0.0009531
0.0001751
-0.001128
-0.04392
0.03714
0.001722
-0.001972
0.0002497
6.628e-08
-0.000817
-0.003306
0.004123
-1.474
1.202
0.2717
-1.457
1.188
0.2692
2.321e-06
-4.192e-07
-1.902e-06
-0.1674
0.1346
0.03279
0.2066
-0.03831
-0.1683
-0.06069
0.04697
0.01372
0.02608
-0.07014
0.04406
-0.0003413
0.0002785
4.937e-08
-4.926e-08
0.0003594
-0.00117
0.0008104
0.02294
-0.006387
-0.01655
0.002401
-0.0005363
-0.001864
0.05437
-0.03257
-0.2086
-0.005499
-0.001062
-0.01873
0.01979
0.0005318
-0.000278
-0.0002538
-0.05758
0.199
-0.1414
-0.0006676
-0.0008529
1.018e-05
0.0004002
-0.0004104
3.03e-06
-3.496e-06
4.661e-07
2.953e-05
-2.737e-05
-2.157e-06
0.003034
-0.00184
-0.001194
0.0004627
-0.001468
0.001005
0.01979
0.003141
-0.001054
0.0003606
0.000693
-0.4715
0.2206
0.251
0.001096
0.0001579
-0.001187
0.001672
-0.0004855
0.0002251
0.0001397
-0.0003648
4.824e-05
-4.109e-05
-7.15e-06
-0.0003707
0.0006142
-1.059e-05
-0.006021
-3.588e-05
3.087e-05
5.011e-06
-0.002369
0.002055
0.0003147
0.003516
-0.001025
-0.002491
-0.04137
-0.07361
0.005308
-0.004416
3.033e-07
-2.829e-07
-2.023e-08
0.002077
0.001439
-0.02079
0.01653
0.004256
-0.0003865
-0.0007852
1.425e-06
-1.424e-06
0.2284
-0.02174
0.001991
-0.0003608
-0.00163
0.00165
-0.000697
0.0006744
-0.00143
0.0007553
-0.0003285
0.0002092
0.0001193
0.000397
0.0003388
0.0008102
0.00056
-0.00137
-2.472e-07
-1.41e-07
0.0008996
0.0004406
-0.00134
-0.0003488
0.0003086
4.019e-05
1.056e-05
-1.057e-05
0.1974
-0.9701
0.7727
-0.001128
-0.00241
0.003538
-0.0001824
0.0004933
-0.0003108
0.00193
-0.0008939
-0.001036
0.004532
-0.001408
-0.003124
-0.0001871
0.0008706
-0.0006835
0.0004466
-0.0003012
-0.0001455
0.1185
-0.03081
0.0002295
-0.0009681
0.0007385
-0.0002344
0.00121
-0.0009759
-0.009492
-0.003507
0.013
-0.005455
0.002816
0.002639
-0.05947
0.09152
-0.03205
-0.01596
0.006746
-0.09092
0.03884
-0.001452
-0.001376
0.002828
0.0001163
0.0008792
-0.0009956
-0.0001524
0.0003037
-0.0001513
-0.0001901
0.00024
-4.986e-05
-0.001393
0.0002988
0.001094
0.002096
-0.006387
0.00429
-0.0007346
-8.76e-06
0.0007433
0.8735
0.1659
-0.00117
0.001553
-0.000383
0.002162
-0.0001707
0.001149
-0.001922
0.0007731
-0.001281
0.001414
0.001592
0.001439
0.001178
-0.00139
0.0002115
-0.387
-0.4505
0.8375
0.0005176
0.001045
-0.001563
-0.5411
-0.3483
0.8894
0.04034
-0.01923
0.003831
-6.184e-05
-0.09338
-0.1628
0.2562
0.04776
0.1203
-0.1681
1.832e-07
-5.54e-08
-1.276e-07
0.001158
-0.000945
-0.0002129
-0.07849
-0.1009
0.1794
0.00159
-0.001178
-0.0004118
0.1746
-0.05192
-0.001466
0.006084
-0.002285
0.004688
-0.002403
-0.009499
-0.01129
0.0007771
0.001216
-0.001994
-0.2013
0.2325
-0.03119
-0.0004053
0.0005465
-0.0001411
-0.0003135
-0.0002326
0.0005461
6.528e-05
-4.898e-05
-1.63e-05
-0.0001012
-0.0002272
0.004641
-0.002544
-0.0002975
-0.0005314
0.000829
-0.00304
0.000682
0.002358
-0.001279
-0.001025
0.002304
0.003147
-0.002677
-0.0001884
0.0003261
-0.0001377
4.204e-05
0.0001042
-0.0001463
0.00222
0.0001806
-0.1792
0.1217
-0.008841
0.004364
0.004477
-0.002971
0.003001
-3.054e-05
0.001187
0.0001226
-0.001309
3.245e-05
-7.243e-06
-2.52e-05
-0.0009557
0.0006193
0.0003364
-0.8532
0.3121
-0.2555
0.1304
0.1251
0.000588
0.000181
-0.000769
0.004225
-0.005699
0.001474
-0.0002525
-0.0004308
0.0006833
0.01882
-0.01132
-0.007501
0.21
-0.2006
-0.009393
0.007431
-0.01072
-0.000514
-3.966e-05
0.0005536
0.09714
-0.05222
-0.04492
0.001329
0.0006015
0.0008722
-0.0002842
-0.001469
0.003722
-0.002253
-0.01995
0.03139
-0.01144
3.482e-05
-0.0001022
6.734e-05
0.0008553
-0.0002754
-0.0005799
-0.002796
0.0008966
0.001899
0.005103
-0.002741
-0.002362
0.1968
-0.149
-0.007883
0.01552
-0.502
-0.972
-0.4959
-0.9614
-0.009062
0.000493
-0.0006487
0.0004739
0.0001748
-0.003737
-0.0002312
0.001532
0.003571
0.0001076
0.000802
-0.0009096
-0.01609
0.04691
0.002039
0.0009949
-0.001867
0.0006715
0.001195
0.0001517
0.0007088
-0.0008605
0.0007538
-0.001665
0.0009108
0.0004623
0.001127
0.0007414
-0.0002966
-0.0004448
-0.001737
0.002216
-0.0004796
0.0009808
-0.0006767
-0.000304
-0.0004545
0.002383
-0.001929
-0.001251
0.0009771
0.0002741
-0.005111
0.007355
-0.002244
1.525e-05
-9.531e-05
8.006e-05
-0.001129
-0.006212
-0.02577
0.03199
0.0009044
-0.0007968
-0.0001076
0.003671
0.0008612
-0.0006117
-0.001584
0.002196
0.2977
-0.4087
0.111
0.0007843
7.097e-05
-0.0006767
0.001524
-0.0008473
-0.001848
0.001668
-0.007949
-0.008083
0.01603
0.001122
-0.001169
4.668e-05
-0.0001068
0.0008893
-0.0007825
0.3824
0.1358
-0.5182
-0.1166
-0.05082
-0.1923
0.2617
-0.06943
0.0005315
-0.0006342
0.0001027
0.4453
-0.8323
-0.001477
0.0002097
0.001268
0.06346
0.03368
0.0003848
-0.0005673
9.349e-05
-0.0007233
0.0006298
0.1153
-0.1222
0.03092
-0.0112
-0.01973
-0.0002199
0.001068
-0.0008485
7.08e-07
-1.52e-07
-5.559e-07
0.001276
-0.002165
0.0008883
0.9492
-0.7113
-0.2379
0.0007095
0.009487
-0.0102
0.0001327
0.0005418
-0.001252
0.0008878
0.0003644
0.005065
-0.003996
-0.001069
-0.09011
-0.01924
3.134e-05
4.087e-06
-3.543e-05
0.02058
-0.02385
0.003262
9.71e-06
-0.0001112
0.003091
-0.004103
0.001012
-0.002148
-0.003841
0.005988
0.2453
-0.2573
0.01203
0.004031
-0.003996
-3.498e-05
-1.889e-05
5.597e-05
-3.708e-05
0.0002233
0.0006319
-0.0008551
-0.0009276
0.00103
-0.0001027
-0.0002041
0.0004336
-0.0002294
0.002144
0.001888
-0.0004344
0.0003727
-0.02589
0.01967
0.01064
-0.07012
0.000131
-0.0002193
8.827e-05
-0.5101
0.03857
0.004054
7.115e-05
-0.004125
7.924e-05
-8.881e-05
0.001601
0.01898
-0.004016
0.00317
0.0008462
0.0004284
-0.001302
0.000874
-0.002175
0.002158
1.7e-05
0.1101
0.4884
-0.5985
0.0005431
-0.001098
-0.000125
-0.0001463
0.0002712
-0.00111
-2.462e-05
0.001135
0.0006099
0.006808
0.0002211
0.0008453
-0.001066
-0.0008115
0.000481
-0.0006211
-0.001284
0.002355
-0.002044
-0.0003103
-0.0009075
0.0001729
-0.001587
0.004547
-0.002959
-0.0006159
0.0001266
0.0004894
0.0004224
-5.952e-05
2.376e-05
-2.388e-05
1.428e-07
0.0005385
-0.00059
5.15e-05
-0.675
0.8724
-0.003094
0.0007243
0.01224
-0.01441
0.002169
-0.005317
0.006115
-0.0107
0.001091
0.009613
0.0009747
-0.0003003
-0.01036
-0.005737
0.0161
-1.277
1.439
-0.1618
-0.0007204
0.0007265
-6.112e-06
6.707e-05
5.614e-05
-0.0001232
0.003057
0.01208
-0.01514
0.004758
-0.005165
0.0004062
0.5739
-0.1915
0.0009038
-0.001856
0.0009524
0.0001869
-0.0007765
0.0005896
-0.05827
0.0422
-0.02406
-0.1772
0.6965
-0.6518
-0.04464
0.0008405
-0.0008744
0.06426
-0.02805
-0.0002863
-1.86e-05
0.0003049
0.05059
-0.05656
0.005966
6.625e-05
0.0004264
-0.01415
-0.1308
0.145
-1.773e-05
-2.128e-05
3.901e-05
0.05665
-0.2489
0.00019
0.0003418
-0.002548
0.00266
-0.0001115
-0.001213
0.0006705
0.0005423
-0.001218
0.0027
-0.001482
0.0003306
-0.0006473
0.0003166
-0.01868
0.004399
0.01428
-0.0004572
0.0002611
0.0001961
0.0006448
0.0002351
-0.0008799
-0.001355
0.0001418
0.001213
-0.0006696
0.0001605
0.0005091
0.001899
0.008609
-0.01051
-0.002443
0.002119
0.000829
0.001338
-0.002167
0.001783
-0.005876
0.004093
0.004593
-0.003202
-0.001391
-0.001173
0.002002
0.3567
-0.9512
0.5945
0.1229
-0.001854
-0.1211
0.004041
-0.001764
-0.002277
-0.0004821
0.0005206
-3.851e-05
-1.532
0.1224
1.41
-0.003173
0.002024
0.00115
-0.005757
0.01473
-0.008973
0.004546
0.007722
-0.001212
0.005437
0.02788
-0.01547
-0.01241
1.415
-0.2689
-1.146
-0.0003554
0.0004721
-0.0001167
-0.01228
0.006525
-1.23e-05
1.741e-05
-5.109e-06
-0.001895
0.0009232
0.0009717
0.000179
-0.0001176
-6.141e-05
-9.641e-05
6.742e-05
2.9e-05
0.001103
-0.0001726
-0.0009308
-0.0005203
-0.0004353
-0.0003801
-4.426e-06
0.0003845
0.0009046
0.003854
0.002054
-0.0006561
-0.001398
-0.1271
0.2575
-0.1304
-0.0003541
0.0005912
-0.1
0.08507
0.01494
0.00115
-0.0009732
-0.000177
0.0006889
-0.001444
-0.001784
0.001608
0.0001759
0.0001967
-0.002188
0.001992
1.112e-08
3.836e-08
0.0009162
-0.0004502
-0.000466
0.001198
0.0008033
-0.002001
0.02646
-0.01515
-0.01131
0.003101
-0.00388
0.0007793
-0.2849
0.2279
0.05694
0.0001181
6.086e-05
0.119
0.003939
-0.0001755
8.966e-06
0.0001666
-0.003636
0.002819
-1.125e-07
1.126e-07
8.195e-08
-3.088e-07
2.27e-07
3.686e-07
-3.417e-07
-2.691e-08
1.195
-0.8175
-0.3773
0.0004532
0.0004511
-0.0003657
0.001812
-0.001447
-0.1461
-0.1094
0.002725
-0.0002879
-0.002437
-0.0002572
0.0006991
-0.0004419
0.0004923
-0.0005212
2.894e-05
0.002997
-0.0002946
-0.002702
-8.126e-05
-0.002467
-0.001023
-0.0001897
-0.002019
-0.001155
-0.0003266
0.0002984
2.816e-05
-0.4356
0.7924
0.0003477
-0.000112
-0.0002357
-9.804e-07
9.382e-07
4.232e-08
0.0003958
-0.0004643
6.847e-05
0.0007229
-0.0001747
-0.0005482
-4.637e-05
3.392e-05
0.06107
-0.1791
0.002986
-0.0007459
-0.05168
0.07775
0.005975
-0.004192
0.04747
0.2424
-0.2899
-0.0005929
0.0001454
0.0004475
-0.0002764
-0.0004394
0.0007157
-4.466e-05
3.998e-05
4.67e-06
1.517
-0.8969
-0.6203
0.003285
0.0007557
0.00826
0.003493
-0.01175
-2.49e-05
3.096e-05
-6.055e-06
-0.0004069
3.106e-05
0.0003758
0.0009874
-6.704e-05
-0.0009204
-0.008248
0.001688
0.00656
-0.1093
0.1009
0.008421
-1.66e-05
0.0001576
-0.000141
0.0005469
0.0005557
-0.001103
-0.7995
-0.7325
0.002025
-0.007827
0.001227
0.0066
-0.0006283
0.0003148
0.0003806
0.0007413
-2.737e-06
-0.0004793
-9.35e-05
1.272e-05
8.079e-05
0.003605
-0.0005144
-0.005096
0.005075
2.063e-05
0.0005906
1.883e-05
-0.0006094
-0.0002514
0.0005284
-0.000277
-0.0001895
-0.0005309
0.1119
0.05746
-0.1693
-0.0001474
0.0001112
3.622e-05
-9.539e-05
0.0008477
-0.0007523
0.0008794
-0.0009987
0.0001194
0.0009952
-0.002153
0.001158
-0.0001625
0.0002914
-0.0001289
-0.7902
0.1128
0.6774
-0.7889
0.629
0.1598
0.005065
-0.01456
0.000697
4.44e-05
-0.0008102
-0.002167
0.002978
0.1343
-0.2066
0.0723
1.474
-0.6497
-0.8241
-0.0011
0.001672
-0.000572
0.0001901
-0.0002948
0.0001047
0.00145
-0.0005924
-0.0008579
-0.0004198
3.973e-05
-9.474e-05
-6.325e-06
0.0001011
6.671e-05
-5.982e-05
-6.885e-06
-0.002625
0.002438
0.0001864
-0.1463
0.103
0.04332
1.396
-1.274
-0.1218
1.011e-05
-6.768e-06
-3.345e-06
0.0006988
0.001142
-0.001841
0.000418
-0.001392
0.000974
0.3157
0.5201
-0.8358
-0.0001048
-0.000244
0.002276
-0.002663
0.0003873
0.0006787
-0.0006552
-2.352e-05
0.4987
-0.000786
0.0009357
-0.0001497
-0.03084
0.1651
-0.0005521
0.0009806
0.0001486
2.869e-06
-0.0001515
0.006652
-0.008383
0.001732
0.9748
0.1613
-1.136
3.163e-05
0.0001012
-0.0001328
-0.003986
-0.001469
-0.0001664
7.274e-05
0.3919
1.023
0.0003851
-0.001421
2.156e-05
7.97e-06
0.3916
0.3049
-0.001536
-0.00248
-0.1674
0.007834
0.1596
-0.0003927
-0.0005035
0.0008961
0.002816
-0.0007949
-0.002021
-0.2804
0.1871
-0.0005846
0.0005338
5.076e-05
0.0003632
0.0007403
-0.001103
3.262e-05
-3.574e-06
-2.905e-05
0.0008719
0.0007062
-0.001578
0.004044
-0.002242
-0.001801
-0.0003262
-0.000925
-0.0003803
-0.0008719
-0.001072
0.0002564
0.0008156
0.0008373
-0.0008932
0.000999
-0.001548
0.0007056
-0.001081
0.0003758
-0.0001084
9.714e-05
1.13e-05
-0.002997
0.00226
0.0007363
0.0006666
-0.0004834
-0.0001833
-0.5986
0.9143
0.001123
-0.0007476
-0.0003756
0.1046
-0.1922
0.08764
-0.0006486
0.001402
-0.1282
0.037
0.09119
-0.0006046
0.003433
-0.3433
-0.9341
-0.1536
0.07513
-0.002082
-0.004459
0.006541
-0.0003058
-0.0003101
0.001604
0.00105
-0.002654
-1.041
0.1289
0.9122
1.104
-0.898
-0.2059
-4.883e-05
1.296e-05
0.0003456
0.0002232
-0.0005689
0.0003075
-0.0006064
-0.0009251
0.0003603
0.0005649
-0.003064
0.001164
0.0019
0.0001335
-0.0004198
0.002188
-0.003094
0.0009058
-0.0004019
0.0002769
0.001448
-0.0007392
0.0001474
-0.0003811
0.0002336
0.0004708
0.0001212
-0.000592
-1.16
0.1192
-0.0003944
-0.001197
0.001591
-0.0001328
0.001262
-0.001129
-0.000132
-0.004238
0.00437
0.01099
-0.00513
-0.00586
0.1781
-0.2345
0.05646
1.031
0.4433
0.002354
-0.003824
-1.278e-05
-0.0001243
0.0008859
0.001169
-1.273e-05
9.209e-06
3.515e-06
-0.07964
-0.04855
-0.9846
-0.4038
1.388
0.0002881
0.0001918
-0.0004799
0.001573
-2.428e-05
-0.001549
-0.0489
-0.01178
-0.0002809
-0.0003354
0.0006163
0.01241
-0.001722
-0.01069
-0.02813
0.08423
-0.0561
0.0004437
-0.0001681
-0.0002756
0.001854
-0.002333
0.0004794
0.001303
-0.001436
0.002374
-0.006789
0.004416
-1.008e-07
1.009e-07
6.278e-05
-1.454e-05
-9.328e-05
-0.0005763
-0.0003121
-0.000145
0.0006172
0.0005407
-0.001116
-0.0004915
0.001608
-0.0007457
-4.037e-05
0.0006499
-0.001197
0.0005471
0.05085
0.009611
-0.06046
-0.002279
0.0007737
0.001506
-5.105e-05
3.722e-05
1.384e-05
0.001033
0.003022
0.7438
-1.067
0.3227
0.00141
-0.0002324
-0.003347
0.003198
0.0001495
-0.001872
-0.0006918
0.002564
1.07
0.4473
-0.02384
0.7677
-7.601e-07
-3.316e-07
1.092e-06
0.02084
0.005619
0.0004854
-0.0009021
0.0004166
-0.0009178
0.0009323
-1.44e-05
-0.0001728
0.0002353
-6.251e-05
-0.006699
-0.002142
0.003481
0.005166
-0.008647
0.0004797
-0.0002546
3.522e-05
-0.004938
0.004903
0.001019
-0.0008622
-0.0001569
-0.1497
-0.2015
0.3512
1.051
-0.04554
-1.006
-0.003603
-0.0004074
0.00401
0.0004494
0.01179
-0.0001708
0.0007023
-0.003905
0.002033
0.0003815
-0.0004323
5.089e-05
-0.003652
0.001114
0.002538
0.0002064
0.0001459
-0.0003523
-0.02193
0.02087
0.006024
-0.01397
-1.121
-0.3844
1.505
-0.0001888
0.0003669
-0.0001781
0.02005
0.007835
-0.001305
0.0009525
0.0003526
7.08e-08
-0.002129
0.0005962
0.001533
-0.003851
0.002399
-0.0007127
0.001989
1.253
-0.2778
-0.001684
0.001913
-0.0002299
-0.0004275
-0.0007213
0.001149
-2.42e-05
2.604e-05
-1.872e-06
0.001568
0.007133
-0.008701
-0.002863
-0.001531
0.004393
0.0009639
0.0004842
-0.0002545
0.0007918
0.001044
0.001311
2.768e-05
-0.0001879
0.0001602
-0.002582
-0.002088
0.00467
0.0005954
-0.0007825
0.001301
-0.002269
0.0009675
-0.003161
0.0001901
-8.812e-05
0.002873
0.002462
-0.005006
0.002544
-3.997e-07
3.998e-07
-0.0004324
-0.002915
-0.06811
0.02196
0.0001264
-0.001196
0.00107
8.07e-05
0.0002206
-0.0003013
2.836e-07
0.001217
-0.001218
0.1003
0.3737
-0.474
7.866e-05
-1.092e-05
-6.774e-05
0.001566
-0.006677
0.001246
0.0002044
-1.51
0.5251
-2.171e-06
-1.056e-05
0.0006767
-0.0001383
0.0007782
-0.0009221
0.0001439
-0.3862
-0.6349
1.021
-8.424e-05
0.0007342
-0.0001064
0.0001094
-3.082e-06
-0.0003253
0.001048
-0.0007226
-0.0003644
0.00154
-0.001176
-1.193
0.8069
0.001732
-0.001066
-0.0006651
-3.632e-05
9.761e-06
2.656e-05
-0.000313
0.0004951
-0.0001821
0.003864
-0.003655
-0.0002089
-0.1592
0.0661
0.09311
-0.001508
-0.0003582
0.0008638
-0.0006627
-0.0002012
-0.1644
0.1697
-0.005284
0.00233
0.0004819
-0.002812
-0.003289
0.003142
0.0001476
-0.001368
0.0002518
0.0005994
0.0003168
-0.002352
0.003034
-0.002433
0.0003036
-4.07e-05
-0.0006354
0.0006761
0.0001144
-0.0002669
0.2804
0.5837
-0.8642
0.001321
0.0004107
0.002546
-0.003856
0.00131
0.0002263
-0.0002298
3.48e-06
-0.0002107
-0.0008997
-0.01661
0.01262
0.003998
0.003067
-0.0003423
-1.83e-05
-7.52e-05
1.022
-0.7419
-4.641e-05
0.0005387
0.0001853
0.0002584
-0.0009895
-0.000426
0.001416
1.221e-07
1.814e-07
0.0005338
-0.001523
-2.262e-05
-2.204e-05
-0.002172
-0.0005036
0.002676
-0.0002766
0.0001466
0.00013
-0.003767
0.001024
0.002743
0.1726
1.022
-3.551e-08
3.556e-08
-0.0003453
-0.0004466
0.0007919
-0.000733
0.001605
1.444e-05
-1.297e-05
-1.448e-06
0.0002287
-0.0005611
0.0003324
-4.575e-05
0.0001971
-0.0001513
0.0004267
-6.896e-05
-0.0003577
-0.000712
0.0006162
0.5568
0.8389
-0.001437
-0.004562
0.005999
-0.003844
0.001102
0.002743
-1.498
0.3772
0.0002566
-0.000432
0.0001754
0.0002123
0.0009379
0.00191
-0.0007231
0.000679
0.0001898
-0.0008688
0.1377
-1.02
0.8823
-0.0004392
0.002627
-0.0001313
4.69e-05
8.44e-05
-0.2768
-0.7164
0.8541
0.006609
0.004381
0.004863
-0.00575
0.0008871
-0.001371
-0.001693
0.000199
2.225e-05
-0.0002213
0.001457
-0.001231
-0.000226
1.253e-05
-1.355e-06
-1.118e-05
-0.003559
0.0009001
0.002658
-0.003398
0.003478
-7.988e-05
-0.799
-0.2676
0.001184
-0.0003221
-0.000862
0.0004677
-0.0002322
-0.0002355
0.0005924
-0.0004824
-0.0001101
0.0001911
-0.0003795
0.0008897
-0.001266
1.085
0.08507
-1.17
0.2748
-0.2137
0.0711
-0.1309
0.05982
0.0002971
-6.981e-05
-0.0002273
0.04394
-0.8429
0.03083
-0.01952
-0.0113
-5.264e-05
0.0001045
-5.19e-05
-0.0008039
-0.0009749
0.001779
0.000362
0.0001979
-0.0005599
-0.2175
0.846
-0.6285
0.0002385
-0.0001195
-0.0001189
-0.0003676
0.002086
-0.001718
-0.2414
-0.0148
0.2562
0.0004694
0.0005114
0.6884
0.4719
-1.16
-0.0001644
-0.0001546
0.000319
0.0002274
9.64e-05
-0.0003238
-0.001515
0.0007337
0.0007816
-0.0007047
-0.002556
0.003261
4.816e-05
2.925e-05
-7.741e-05
0.1805
-0.04978
-0.1307
-0.0002991
-0.0002611
0.0005601
-0.007491
0.006586
0.0009048
-0.0004727
-0.0001202
5.01e-05
-4.529e-05
-4.808e-06
-0.0004633
-0.0005259
0.0009892
0.0006927
0.0002495
-0.0009422
-0.01044
-0.006177
0.004491
-0.005065
0.0005738
0.001343
-0.0004176
-0.0009254
0.0003828
-0.0003828
-0.3424
0.1965
0.1459
-0.006343
0.009365
-0.003023
0.0008491
-0.0005239
-0.0003252
-0.000984
0.001811
-0.0008267
-4.448e-05
-6.572e-06
0.0005886
-0.0005279
-6.07e-05
-0.1171
1.202
0.04373
-0.02632
-0.0174
8.297e-06
1.808e-06
-0.0005139
2.61e-05
0.0004877
0.0001786
-0.0002296
5.1e-05
-0.001412
0.003185
-0.001772
-7.925e-05
7.924e-05
-0.001602
0.001684
-8.278e-05
-0.00012
0.00012
0.001883
-0.0006404
-0.001242
5.925e-06
6.089e-06
-1.203e-05
-0.005498
0.004061
0.000114
-7.961e-05
-3.441e-05
0.1014
-0.07458
-0.02684
0.001778
-0.001342
-0.0004361
1.093
-1.517
0.4243
1.313
-1.734
0.4213
0.0005861
0.003081
-0.003667
-0.0469
0.09723
-0.05032
-0.001347
1.837e-05
0.001329
0.01498
-0.003369
-0.01161
-0.002272
-0.0003211
-0.006683
0.007519
-0.0008355
0.0442
-0.1002
0.05595
-0.001156
0.0001046
0.001051
0.000581
0.0008329
-0.001414
0.2536
-0.008243
-0.0119
0.01091
0.0009846
-0.0003126
0.0005669
-0.0002543
0.0926
-0.0484
-0.0006456
0.0003254
0.0003202
-4.796e-05
4.802e-05
0.0002771
-0.0001674
-0.0001097
0.0007883
-0.002435
0.001647
-0.0004859
8.706e-06
0.0004772
0.003862
-0.004813
0.0009516
0.0002211
-0.0002174
-3.764e-06
-0.3337
0.12
0.2137
-0.002254
0.0004694
-0.0006036
-0.0007014
-0.05272
0.3504
-0.0005873
0.0004377
-0.001271
0.000101
0.00117
-0.002304
0.005086
-0.002782
-0.4748
-0.5469
1.022
0.2449
-0.003322
-0.2415
0.01233
-0.00728
-0.00505
3.721e-06
1.097e-06
-4.818e-06
-2.221e-05
-0.001527
0.001549
4.48e-05
-4.489e-05
-0.003419
0.001647
0.001771
0.0004652
-0.0001559
-0.0003093
-0.001664
0.001542
0.0001214
-1.392e-05
-7.362e-06
2.128e-05
-0.001435
-0.0004331
0.001868
-0.4102
1.367
-0.9567
-0.0001019
0.0001455
-4.358e-05
0.008156
-0.001362
-0.006793
-0.3004
1.334
-1.034
-0.0004953
-0.0004604
0.0009557
-1.445e-06
6.57e-07
7.882e-07
0.0016
0.006859
-0.00846
-0.001756
0.0006769
0.001079
0.00561
-0.003324
-0.002286
0.001018
0.002731
-0.00375
4.146e-06
7.688e-06
-1.183e-05
8.481e-05
-8.48e-05
0.0007849
0.0003777
-0.001163
-0.0901
-0.05624
-0.4594
0.221
0.2384
0.002433
-0.0009052
-0.001528
-0.0008143
0.0005472
0.0002671
0.0001092
0.0001817
-0.0002909
-0.0008467
0.0004766
0.0003701
-0.0009326
-0.000643
0.001576
0.0004027
-0.0001726
-0.0002302
-0.002661
0.002476
0.0001855
-0.01393
0.02128
-0.007349
0.0001772
0.0002255
-0.03454
-0.01126
0.04579
-0.0005456
-3.902e-05
0.0005847
0.1359
-0.5768
0.441
0.0006259
0.0007566
-0.001383
-1.451e-05
1.508e-05
-5.656e-07
-0.003444
0.004652
-0.001208
0.0008832
-0.0007271
-0.0001561
-0.002363
0.00105
0.001313
-0.3821
0.09962
0.2824
-0.185
0.05158
0.1334
6.691e-06
-8.231e-06
1.544e-06
0.006705
-0.007183
0.0004778
4.035e-05
-0.0001037
6.337e-05
0.0005914
-0.001039
0.000448
-8.652e-05
0.0001246
-3.808e-05
0.001531
-0.001354
-0.0001767
0.001781
-0.0002873
-0.001494
-0.002733
0.002145
0.0005878
0.0002072
-0.001341
0.001134
0.000458
-0.000458
-9.351e-05
0.001459
-0.001365
-5.526e-05
0.0004346
-0.0003793
0.0005146
-0.0004226
-9.2e-05
-0.002444
0.003659
-0.001216
0.0014
-0.002627
0.001226
0.0003551
0.001367
-0.0002549
0.0002568
-1.853e-06
9.57e-06
-7.925e-06
-1.645e-06
-3.273e-06
1.53e-06
1.744e-06
-0.002766
0.001201
0.001565
-0.3215
0.4219
0.5926
0.2147
-0.8073
-0.001464
0.002095
-0.0006307
2.005e-05
0.0004078
-0.0004278
0.004185
-0.000838
-0.003347
-0.1892
1.183
-0.9941
9.092e-05
0.0003798
-0.0004707
-0.002782
-0.000312
-0.002295
-0.004776
0.007071
0.0001268
5.42e-05
-0.0001809
0.004396
-0.003878
-0.0005186
-4.858e-05
0.0002361
-0.0001876
0.004323
-0.005124
0.0008008
0.7865
-0.6764
-0.007134
0.00225
0.004885
0.0106
7.293e-05
-0.01067
0.0002695
-3.013e-05
-0.0002393
9.773e-05
0.0001646
-0.0002624
-0.0001283
7.821e-05
5.006e-05
-0.003118
0.001717
0.001401
0.003642
-0.008843
0.005201
0.0003331
-0.000832
0.000499
-0.0008552
0.001321
-0.0004656
-0.001917
-0.001342
0.003258
0.005087
-0.002156
-0.002931
-0.0004137
-5.512e-05
0.0004689
0.001928
-0.001591
-0.0003371
0.0004526
-0.0003932
-5.934e-05
0.0003195
-0.000239
-8.045e-05
0.2579
-0.3218
0.06388
-5.459e-05
2.778e-05
2.684e-05
-2.939e-06
-1.613e-05
1.908e-05
0.003375
-0.0008291
-6.863e-05
0.002025
-0.001956
0.0004693
-4.482e-05
0.01996
-0.1189
0.09898
-0.0001709
0.0001709
-0.0004293
0.0004293
-0.1656
-1.043
1.209
1.256
0.2303
-1.486
-0.002242
0.001225
0.001018
0.0007208
-0.003646
0.002926
-9.978e-07
1.164e-06
-1.656e-07
-3.626e-05
6.128e-05
-2.501e-05
-0.0001959
0.001974
-0.000391
0.0005118
-0.0001208
0.0001356
9.36e-06
-0.000145
-0.001107
-0.003456
0.004562
0.003079
0.004551
-0.00763
-0.1836
0.05755
0.1261
0.0001765
-0.0001055
-7.099e-05
-0.0006713
-0.0007182
0.00139
-0.000102
0.0002279
-0.0001258
-0.003921
0.0009122
0.003009
-1.547e-05
2.333e-05
-7.866e-06
0.0005235
-0.0007067
0.0001832
0.8147
-1.144
0.3291
-0.0005417
0.0005417
0.0001238
-9.077e-05
-3.306e-05
0.1659
0.561
-0.7269
0.001194
-9.038e-05
-1.282
1.116
0.2402
-0.4217
0.1816
-0.002762
0.001903
0.0008595
-0.009958
-0.001481
0.01144
0.0002494
-0.0001338
-0.0001156
0.7765
-0.9418
0.1653
0.001065
-0.0005259
-0.0005386
0.4788
-0.1377
-0.3411
0.0007296
-0.001504
0.0007747
-0.01469
0.00515
0.009539
0.01294
-0.0117
-0.001241
0.005383
-0.00283
-0.002554
-0.0002189
-0.0008157
0.001035
-0.0008251
-0.0003752
0.0012
0.0002186
7.06e-05
-0.0002892
0.001646
0.000341
-0.001987
0.1534
0.6467
-0.8001
0.004384
0.06312
-0.06751
-0.004981
0.002471
0.00251
-0.0001672
-0.0008765
0.001044
8.845e-05
-0.00024
0.0001515
0.0002745
-0.0001603
-0.0001142
0.000117
-6.876e-05
-4.828e-05
-0.0001382
-4.177e-05
0.0001799
-3.78e-05
3.777e-05
-0.0009784
0.001685
0.001175
-0.0008379
-0.0003368
-0.0006422
0.001716
-0.001074
-0.001141
0.0007121
0.0004289
0.0003305
0.000192
-0.0005225
0.009026
-0.00887
-0.0001564
0.0127
-0.005433
-0.007272
0.4938
-0.3675
-0.1263
-0.001067
0.00117
-0.0001022
-5.876e-05
8.435e-05
-2.559e-05
-0.0007067
4.178e-07
0.0007062
0.4965
-1.096
0.5994
-3.331e-05
3.626e-05
-2.961e-06
0.004661
-0.002357
-0.002304
-0.002255
0.00059
0.001665
0.001229
-0.0005652
-0.0006637
-0.0003247
0.001546
-0.001222
0.001279
0.00584
-0.007118
0.0006
-0.0006937
9.369e-05
-0.001482
-0.002906
0.004388
-0.001105
-0.00115
-4.611e-05
-4.325e-05
8.936e-05
-0.0006452
-0.0001055
0.0007508
3.837e-05
1.173e-05
-1.177
0.5403
0.6363
0.002047
-0.003946
0.001899
-0.0009969
0.0003654
0.0006315
0.1272
0.05418
-0.1813
-0.001107
0.0002945
0.0008126
0.0007769
0.0002001
-0.000977
-1.242
1.242
0.00134
0.001874
-0.003213
-4.213e-05
7.438e-05
-3.225e-05
0.06189
-0.0488
-0.01309
0.009061
-3.481e-05
-0.005516
0.0055
1.609e-05
0.0001716
-2.264e-05
-0.0001489
0.01056
-0.008293
-0.002272
-1.273
0.5254
0.748
0.0007296
-0.001145
0.0004149
-0.0002199
0.0005103
-0.0002904
0.405
-0.2585
-0.1465
-0.01145
0.009075
0.002373
-6.07e-06
-0.03362
0.03363
-0.002167
-0.000987
0.003154
-0.0005035
-0.0001981
0.0007016
-0.00134
-0.0006246
0.001965
-0.05211
-0.05614
0.1082
-7.858e-06
-2.493e-05
3.279e-05
-1.031e-07
-4.318e-06
4.422e-06
0.0002543
0.0008689
0.0004076
-0.001498
0.001091
-0.002475
0.004056
-0.001581
7.771e-05
3.631e-05
-0.3934
1.247
-0.8532
0.0002871
-0.001329
0.001042
0.3531
-0.008446
-0.3446
0.000801
-0.001089
0.0002883
-0.000541
0.0004314
0.0001096
0.0007597
0.0009877
-0.001747
0.0003592
0.0008697
-2.993e-05
1.799e-05
1.194e-05
0.0003229
-0.0003562
3.329e-05
-0.5591
0.2205
0.3386
4.405e-07
-4.381e-07
-0.000182
0.0001356
4.641e-05
7.308e-05
-0.000312
0.0002389
-0.00161
-0.000205
0.001815
-0.0006238
0.0008534
-0.002455
-0.002367
0.004823
0.01282
-0.01166
-0.001158
-0.0004448
0.0003645
8.026e-05
0.001901
-0.001318
-0.0005831
-0.004289
0.02314
-0.01885
1.545e-05
-1.545e-05
-0.0001923
0.000287
-9.467e-05
-0.0009969
0.0004346
0.0005623
0.0005393
0.0002221
-0.0007615
0.001538
-0.001272
-0.0002654
-2.498e-05
0.0001129
-8.79e-05
3.407e-06
-0.0001371
0.0001337
7.335e-05
4.664e-05
-0.00012
0.002031
-0.001481
-0.00055
0.0005004
-0.0001034
-0.000397
0.00113
-0.003918
0.002788
-0.0004404
-0.0005506
0.000991
-0.001331
0.0007019
0.0006288
-0.008515
-0.0001687
0.008684
1.412e-05
-1.407e-05
-0.01937
0.005983
0.01338
0.0008488
0.0003457
-0.001195
-0.005569
0.01383
0.0008472
-0.001163
0.0003156
-1.264
0.512
0.7524
0.5501
-0.785
0.2349
0.003761
-0.006157
0.002396
6.605e-05
-7.65e-05