/*--------------------------------*- C++ -*----------------------------------*\
  =========                 |
  \\      /  F ield         | OpenFOAM: The Open Source CFD Toolbox
   \\    /   O peration     | Website:  https://openfoam.org
    \\  /    A nd           | Version:  8
     \\/     M anipulation  |
\*---------------------------------------------------------------------------*/
FoamFile
{
    version     2.0;
    format      ascii;
    class       volVectorField;
    location    "30";
    object      U;
}
// * * * * * * * * * * * * * * * * * * * * * * * * * * * * * * * * * * * * * //

dimensions      [0 1 -1 0 0 0 0];

internalField   nonuniform List<vector> 
127143
(
(0.004669 -0.0002098 0)
(-0.0001622 -0.0007477 1.706e-23)
(7.7e-05 0.0003795 -3.257e-23)
(0.0001004 0.0004543 5.282e-27)
(0.07502 0.01242 -1.021e-20)
(8.612e-05 0.0004572 -1.191e-26)
(0.3126 0.1861 0)
(0.1432 0.06525 -9.345e-21)
(0.1015 0.04848 4.391e-20)
(0.0866 0.001676 0)
(0.4343 0.6151 1.394e-20)
(0.2175 0.1414 2.865e-20)
(0.0006525 -0.0002507 6.443e-24)
(0.000128 0.0004962 0)
(-0.3541 0.6232 3.417e-21)
(0.1096 -0.008978 0)
(-0.0002511 -0.001011 5.346e-23)
(0.9697 -0.1089 -3.729e-21)
(0.9449 -0.2034 0)
(0.1042 -0.004323 0)
(1.26 -0.2839 1.27e-20)
(0.01218 -0.004559 0)
(0.855 -0.093 0)
(0.8848 -0.08487 0)
(0.01212 -0.005151 4.215e-22)
(0.6815 -0.1106 0)
(0.5365 -0.01371 2.573e-20)
(0.5271 0.00614 -4.086e-22)
(0.36 -0.1612 0)
(0.9784 -0.0856 5.29e-21)
(0.7582 -0.05258 0)
(0.6594 -0.1059 2.258e-21)
(0.4457 0.1114 1.158e-20)
(0.3242 -0.07804 -1.148e-20)
(0.7816 0.04638 4.756e-20)
(0.3784 0.1027 -3.563e-23)
(0.2806 -0.1077 4.036e-22)
(1.371 -0.2035 -9.544e-21)
(0.9246 -0.08735 5.152e-22)
(0.4476 -0.02794 1.178e-24)
(0.9431 -0.2026 0)
(1.618 0.6711 -2.78e-20)
(1.573 0.6642 2.225e-20)
(0.001304 -0.0004371 0)
(0.9684 -0.1067 3.379e-21)
(0.3307 -0.07885 3.747e-21)
(0.3713 -0.1692 0)
(0.5416 -0.1732 -2.265e-22)
(0.8901 -0.1523 -8.184e-22)
(0.9052 -0.07643 2.768e-22)
(0.1275 -0.008945 2.158e-22)
(0.9187 0.00403 1.343e-19)
(1.535 -0.1657 0)
(1.412 -0.03939 -1.897e-20)
(0.9986 -0.002518 6.043e-20)
(0.7804 -0.1966 1.365e-21)
(0.9985 -0.002511 -5.431e-20)
(0.9539 -0.08173 0)
(1.014 -0.01797 -2.794e-20)
(1.414 -0.03487 -3.754e-20)
(0.3129 0.2968 -7.555e-20)
(1.032 -0.2734 -1.451e-21)
(0.9685 -0.07664 -1.275e-21)
(1.001 0.0006437 1.871e-19)
(1.053 -0.09672 0)
(0.6877 -0.1356 -2.607e-20)
(1.27 0.1031 8.701e-20)
(0.9673 -0.07851 0)
(0.9677 -0.07841 -3.389e-22)
(0.9988 0.000358 0)
(0.8452 -0.06993 0)
(0.5658 0.001211 -1.219e-20)
(0.7988 -0.1679 3.673e-21)
(1.014 -0.0178 -1.514e-20)
(1.007 0.003868 -7.408e-23)
(0.5634 0.01169 1.289e-20)
(1.047 0.04882 -1.149e-19)
(0.4399 -0.122 0)
(0.7888 -0.1994 -2.685e-21)
(1.001 0.001393 0)
(0.3866 -0.1697 -4.187e-24)
(0.1225 -0.007936 -7.008e-23)
(0.4692 -0.107 4.407e-21)
(0.53 -0.03824 0)
(0.3426 -0.1027 -1.103e-21)
(0.4817 -0.1428 0)
(0.9441 -0.09527 1.185e-21)
(0.6233 0.03949 7.054e-21)
(0.6879 -0.1325 0)
(2.062 1.163 0)
(0.9749 -0.02086 0)
(1.209 -0.1977 0)
(2.013 1.137 0)
(1.261 -0.2836 -1.276e-20)
(1.187 -0.2278 0)
(0.9742 -0.07086 -1.554e-20)
(1.614 0.655 6.03e-20)
(0.6989 -0.0554 0)
(0.8245 -0.2277 2.761e-21)
(1.268 0.1098 0)
(1.001 0.001345 0)
(0.8919 -0.1528 0)
(1.89 1.723 -4.552e-21)
(0.9384 -0.1031 0)
(0.5034 -0.1503 -1.057e-21)
(0.7967 -0.2221 3.817e-21)
(0.9054 -0.1369 4.473e-21)
(0.9986 0.0003733 0)
(0.4531 -0.09047 0)
(1.001 -0.001873 8.634e-20)
(-0.3482 0.6083 -1.149e-21)
(0.6469 0.04445 1.413e-20)
(1.271 -0.2665 -9.468e-21)
(0.2817 1.344 0)
(1 0.02315 -2.719e-23)
(0.89 -0.1315 1.179e-21)
(1.022 0.07405 1.822e-20)
(1.007 0.004106 -1.064e-19)
(1.045 0.04734 9.17e-20)
(0.0009662 0.004335 0)
(1.001 -0.001994 -1.209e-19)
(0.4462 -0.116 -1.313e-21)
(0.5872 -0.1885 0)
(0.9443 -0.08389 -1.045e-20)
(0.3871 -0.1713 1.465e-21)
(0.5877 -0.08179 3.812e-21)
(1.102 -0.29 0)
(1.052 -0.01148 1.694e-19)
(1.617 -0.1252 -2.547e-21)
(0.7267 -0.2057 -2.566e-21)
(0.5284 -0.1401 0)
(0.9647 -0.2098 -4.653e-21)
(0.9637 -0.08823 4.116e-21)
(0.4464 -0.125 0)
(-0.0003786 -0.001654 2.858e-22)
(0.5452 -0.1428 -1.587e-21)
(1.054 -0.08264 0)
(1.259 -0.2742 4.574e-21)
(0.2227 -0.118 -1.918e-20)
(1.104 -0.07991 1.002e-20)
(0.8133 -0.1078 4.822e-20)
(1.006 0.06016 -2.191e-20)
(1.466 -0.1979 8.223e-22)
(1.34 -0.2487 -1.026e-20)
(1.534 -0.1653 -3.838e-21)
(1.958 0.5804 1.48e-20)
(-0.3219 1.584 -2.74e-21)
(1.001 0.0005616 -1.698e-19)
(0.943 -0.2027 3.75e-21)
(2.043 1.698 -1.982e-21)
(0.9473 -0.09865 2.332e-21)
(0.8693 -0.1657 0)
(1.377 -0.1918 3.18e-20)
(0.7023 -0.003562 0)
(-0.08113 0.2219 0)
(0.3604 -0.1059 0)
(0.9542 -0.08138 2.533e-21)
(0.6231 -0.2129 0)
(0.55 -0.1763 -4.35e-22)
(0.6837 -0.05973 -3.669e-22)
(0.8319 -0.06048 0)
(0.1814 -0.08853 3.22e-20)
(0.9756 -0.02159 2.565e-21)
(0.528 -0.1367 -3.698e-21)
(0.6918 -0.1807 0)
(1.129 -0.1077 8.522e-21)
(0.2723 -0.1017 -5.913e-22)
(0.451 -0.03041 4.554e-20)
(2.112 0.4706 -5.713e-21)
(0.9671 0.1316 -2.714e-21)
(0.1312 -0.04944 0)
(1.338 -0.2493 5.054e-21)
(0.8784 -0.1387 3.755e-21)
(0.7213 -0.1859 -1.087e-20)
(0.9961 -0.002938 1.454e-20)
(0.1215 -0.04923 -1.718e-23)
(1.94 0.7234 -3.005e-21)
(1.615 -0.126 -2.547e-21)
(0.9138 -0.09291 0)
(1.009 -0.03094 1.177e-20)
(0.72 -0.186 -3.662e-21)
(0.9727 -0.04244 0)
(0.1169 -0.04393 -3.767e-22)
(0.1213 -0.04901 1.751e-23)
(0.7264 -0.2069 5.171e-21)
(1.029 -0.2714 3.146e-21)
(1.354 0.421 -3.213e-20)
(0.314 1.362 4.45e-21)
(0.8942 -0.08663 1.064e-21)
(1.027 -0.04194 5.137e-20)
(1.506 -0.1857 2.627e-21)
(1.502 -0.1817 -1.049e-20)
(1.055 -0.08195 5.391e-20)
(0.6929 1.878 6.99e-21)
(-0.000279 -0.001829 -4.78e-22)
(1.138 -0.2853 0)
(1.006 8.491e-06 0)
(0.9945 6.851e-06 1.043e-21)
(0.03038 0.0004824 0)
(0.9967 0.03512 1.36e-21)
(1.022 0.006759 7.843e-20)
(0.9138 0.08826 1.207e-19)
(0.9944 -0.05271 -3.988e-21)
(0.2901 -0.1102 -2.009e-22)
(0.000174 0.0009367 -7.061e-24)
(0.9568 -0.07087 -1.194e-21)
(0.8983 -0.06489 1.968e-20)
(0.8781 -0.1433 -1.206e-21)
(0.9809 -0.08575 -2.525e-21)
(1 0.02257 2.29e-22)
(1.092 -0.1602 1.318e-20)
(0.2172 -0.07093 -6.117e-22)
(0.9771 -0.0002847 3.493e-20)
(2.136 0.4811 -5.774e-21)
(0.4443 -0.1206 -2.126e-23)
(0.06291 -0.003328 0)
(0.08609 -0.03212 5.145e-22)
(0.857 -0.1533 5.957e-21)
(1.015 -0.2388 -7.115e-21)
(0.9001 -0.06471 4.781e-21)
(1.92 0.718 -6.919e-21)
(1.004 0.009528 6.347e-20)
(0.8702 -0.1659 -9.367e-22)
(1.538 -0.157 3.79e-21)
(0.6459 -0.05591 0)
(0.1253 -0.04808 0)
(0.7325 -0.1908 -3.02e-21)
(1.371 -0.2013 1.138e-20)
(0.05614 -0.02932 7.529e-23)
(0.9966 -0.275 5.36e-21)
(1.267 -0.2828 7.254e-21)
(0.9713 -0.04196 3.976e-20)
(0.84 -0.1754 -7.342e-21)
(0.001706 0.004542 0)
(1.268 -0.2832 0)
(0.9381 -0.07546 -1.356e-20)
(0.529 -0.136 1.836e-21)
(0.01316 -0.00211 -2.779e-22)
(1.022 0.006423 -7.191e-20)
(1.495 -0.1907 1.172e-20)
(1.509 -0.1818 7.661e-21)
(1.364 -0.08815 -1.07e-20)
(0.1702 -0.07028 -2.958e-23)
(0.6269 -0.2131 -9.485e-24)
(1.492 -0.15 0)
(0.0007719 0.004449 -1.876e-26)
(0.853 -0.1638 5.421e-21)
(0.526 -0.001331 0)
(-0.02715 0.01061 9.774e-22)
(1.002 -0.0001128 -2.564e-21)
(1.8 0.4183 -5.075e-20)
(0.6489 -0.07177 -1.871e-21)
(0.8062 -0.172 0)
(1.307 -0.2624 0)
(0.8081 -0.1915 3.78e-21)
(0.4755 -0.1053 0)
(1.051 -0.01191 -1.332e-19)
(2.24 0.6582 0)
(0.7741 -0.1724 0)
(1.024 0.4481 -1.089e-20)
(1.168 -0.283 -6.9e-21)
(0.9558 -0.0331 -3.661e-20)
(1.209 -0.1944 7.21e-22)
(1.004 0.05952 1.336e-20)
(1.566 -0.1202 0)
(1.267 -0.08847 -3.623e-21)
(0.2241 -0.07277 3.13e-21)
(-0.1252 0.2371 0)
(0.3107 0.1055 8.703e-20)
(1.508 -0.09204 -1.511e-20)
(0.764 -0.1425 0)
(0.9948 -0.003013 -1.731e-20)
(0.6178 -0.1742 -1.025e-22)
(1.493 -0.1916 -1.082e-20)
(0.9675 -0.07464 -2.274e-21)
(1.508 -0.1849 -1.061e-20)
(1.278 -0.2682 0)
(0.9086 -0.1405 -4.881e-21)
(0.9901 -0.006526 -8.375e-22)
(0.7025 -0.1759 1.076e-20)
(0.9981 -0.001172 3.369e-21)
(0.9733 -0.07039 -1.992e-22)
(0.9385 -0.1027 8.229e-24)
(0.9908 0.01275 0)
(1.011 0.01759 3.838e-20)
(-0.0009609 -0.002114 6.852e-23)
(0.6576 -0.1847 0)
(1.002 0.02454 -2.545e-21)
(0.9182 -0.1265 -2.655e-21)
(1.008 -0.03105 1.781e-20)
(1.374 -0.1917 -4.841e-20)
(0.831 -0.1256 0)
(0.9372 -0.0755 1.376e-20)
(0.8566 -0.1484 0)
(0.9755 -0.01032 -3.227e-20)
(0.426 -0.1015 -1.593e-21)
(0.7998 -0.0672 -7.441e-22)
(0.1327 -0.05827 7.925e-22)
(0.1705 -0.07021 1.221e-22)
(1.505 -0.09053 1.019e-20)
(0.7706 -0.08928 6.239e-22)
(0.7531 -0.1401 -4.808e-21)
(0.5918 -0.08268 -3.038e-20)
(0.8898 -0.131 -1.153e-20)
(0.6124 -0.0454 0)
(0.1524 0.004688 9.751e-24)
(0.8785 -0.143 -3.996e-22)
(0.9764 -4.498e-05 0)
(1.126 -0.2577 2.832e-23)
(0.9541 -0.09895 2.543e-21)
(0.911 -0.135 4.859e-21)
(0.1221 -0.04707 2.181e-22)
(0.8007 -0.1918 0)
(0.998 -0.001212 2.366e-21)
(0.9864 0.0174 -3.329e-20)
(2.072 0.7704 2.918e-21)
(1.392 -0.2049 4.805e-21)
(0.7546 -0.08333 -1.302e-21)
(1.235 -0.1573 3.561e-20)
(0.9941 -0.02548 2.214e-21)
(0.8545 -0.09141 0)
(0.8022 -0.06062 1.048e-21)
(1.087 -0.02427 3.506e-20)
(0.8069 -0.1719 3.001e-21)
(2.075 0.7692 0)
(1.453 -0.1816 -1.129e-20)
(0.8514 0.05475 8.338e-20)
(0.1205 -0.02786 1.786e-23)
(0.7869 -0.04931 -4.158e-22)
(1.899 0.8553 2.228e-20)
(1.021 -0.2805 0)
(1.012 0.01725 -3.339e-20)
(0.7874 0.04073 -1.728e-19)
(1.006 2e-05 0)
(0.9943 1.644e-05 0)
(0.705 0.001042 0)
(0.4681 -0.09871 -1.027e-20)
(0.8778 -0.1386 3.812e-21)
(1.019 -0.2804 -1.261e-21)
(0.659 -0.1755 -1.514e-20)
(1.101 -0.07829 -4.422e-20)
(0.8575 -0.1532 0)
(1.521 -0.1667 3.266e-21)
(1.512 -0.1836 2.973e-21)
(-0.04091 0.7495 -7.35e-22)
(0.9173 -0.1255 1.77e-21)
(0.6052 -0.1403 -3.72e-21)
(1.324 -0.249 3.762e-21)
(0.8056 -0.09757 1.103e-21)
(1.66 -0.09654 0)
(0.8148 -0.09377 -8.316e-22)
(0.9956 -0.2192 2.526e-21)
(0.125 -0.04803 2.781e-22)
(1.51 -0.1841 9.566e-21)
(0.9438 0.1539 0)
(0.6174 -0.1457 -8.543e-21)
(1.305 -0.263 -5.843e-21)
(1.931 0.5112 -1.264e-20)
(1.003 -0.01359 1.41e-20)
(0.774 -0.04825 0)
(0.7109 -0.1664 4.368e-23)
(0.9683 -0.0766 -3.898e-22)
(1.004 -0.1666 -9.017e-21)
(0.8999 -0.06974 0)
(0.9105 -0.07989 8.151e-22)
(1.004 0.003974 9.754e-22)
(0.9968 0.03427 -4.744e-21)
(0.9731 -0.01512 0)
(0.6487 -0.1191 3.19e-21)
(0.9904 -0.00641 0)
(0.1411 0.3916 7.64e-20)
(1.086 -0.02667 -7.083e-20)
(0.7036 -0.07956 1.629e-21)
(0.8935 -0.07031 -9.347e-22)
(1.028 -0.0408 0)
(1.208 -0.1037 -7.2e-22)
(0.8443 -0.08378 -7.801e-22)
(0.01476 -0.005861 5.156e-26)
(0.8209 -0.2349 -6.969e-21)
(0.9918 -0.007462 1.031e-22)
(1.102 -0.2269 -4.898e-20)
(0.629 -0.08196 -3.692e-21)
(0.8313 -0.1036 0)
(0.7498 -0.1416 -1.803e-20)
(1.021 0.07152 0)
(0.2354 -0.0193 0)
(1.095 0.2605 0)
(0.4676 -0.03063 0)
(1.145 -0.286 -1.981e-21)
(1.244 -0.2397 -4.31e-20)
(1.016 -0.01509 -8.062e-20)
(0.5678 -0.03029 0)
(0.114 -0.04956 -3.137e-22)
(0.7913 -0.1961 4.067e-21)
(0.8912 -0.08344 -1.531e-21)
(0.777 -0.05767 -7.755e-22)
(0.5728 -0.03606 -2.444e-20)
(0.7827 -0.05393 0)
(0.9387 0.1525 0)
(0.9555 -0.03192 0)
(0.5419 -0.04339 3.392e-22)
(1.004 0.009078 -2.375e-20)
(1.292 -0.2718 0)
(0.117 -0.04372 0)
(1.106 0.2588 0)
(0.9374 -0.1088 -2.277e-21)
(0.5564 -0.1649 -5.002e-21)
(0.9604 -0.09223 -3.119e-21)
(0.9999 0.001502 -3.037e-20)
(0.9256 -0.09484 0)
(0.4374 -0.1393 0)
(0.8078 -0.1145 2.726e-21)
(0.8153 -0.1071 -5.163e-20)
(0.6527 -0.2049 0)
(0.5864 -0.1855 0)
(1.211 -0.231 -4.27e-21)
(0.9451 -0.2391 -6.181e-21)
(0.7363 -0.1406 0)
(1.441 -0.1576 9.028e-21)
(0.5253 -0.1933 -4.972e-21)
(0.2783 -0.1045 0)
(0.02611 -0.01089 -2.108e-21)
(0.4295 -0.1338 0)
(1.003 -4.366e-05 8.912e-22)
(0.9804 -0.2692 -5.651e-21)
(1.149 0.4655 2.283e-20)
(1.552 0.647 9.545e-22)
(0.7854 -0.07838 -3.146e-20)
(1.417 -0.1053 1.346e-20)
(0.874 -0.07174 -1.668e-20)
(1.005 -0.0005185 0)
(0.4232 -0.1256 0)
(0.1233 -0.0475 0)
(1.075 -0.1776 7.875e-20)
(1.649 -0.02481 1.578e-21)
(1.004 0.003834 -2.936e-20)
(0.9041 -0.1296 -5.005e-21)
(0.7217 -0.1621 -7.957e-21)
(0.9209 0.004348 -4.967e-20)
(0.9754 -0.009423 0)
(0.9923 0.001239 -1.005e-20)
(0.9163 -0.07797 -3.978e-22)
(1.051 -0.08572 -1.764e-20)
(0.4651 -0.1067 2.019e-20)
(0.9783 0.09361 0)
(0.7164 -0.05626 4.276e-23)
(0.9818 0.01949 8.14e-20)
(0.03316 0.05339 0)
(0.9736 -0.01548 4.937e-22)
(0.2177 -0.0701 -6.639e-22)
(1.167 -0.2925 0)
(0.8647 -0.1073 -1.01e-23)
(0.9366 -0.1079 6.6e-21)
(0.6708 -0.1147 1.993e-20)
(0.8952 0.2566 -2.046e-21)
(0.2651 -0.06248 4.591e-23)
(0.7705 -0.09237 5.984e-22)
(1.574 -0.08604 0)
(0.3374 -0.1214 0)
(1.427 -0.1519 7.668e-21)
(0.9642 -0.08822 -1.303e-21)
(1.597 -0.1234 6.633e-21)
(1.237 -0.2584 0)
(0.3578 1.252 1.16e-20)
(1.599 -0.1245 -1.094e-23)
(1 -0.002519 0)
(1.027 0.03828 0)
(1.383 -0.238 0)
(0.4722 -0.1296 3.845e-21)
(0.9945 -0.0003368 0)
(0.9774 -0.261 3.246e-21)
(1.246 -0.1835 2.399e-20)
(0.9447 -0.0833 1.563e-20)
(1.389 -0.2039 -1.659e-21)
(0.9092 -0.05709 2.569e-20)
(1.005 -0.000248 0)
(-0.1462 0.352 -2.404e-20)
(1.246 -0.1809 -2.818e-20)
(0.02515 0.002881 -2.295e-22)
(1.507 -0.1606 7.817e-22)
(0.2422 -0.1271 1.419e-21)
(0.01538 0.07938 -1.848e-20)
(1.199 -0.1708 2.481e-21)
(0.7983 -0.1918 0)
(0.4415 -0.1303 0)
(1.645 -0.02493 -1.692e-21)
(1.49 -0.1619 -6.854e-22)
(1.017 -0.001181 7.853e-20)
(0.7264 -0.06428 5.723e-22)
(0.9678 0.05061 4.506e-20)
(2.037 0.7728 9.439e-22)
(0.9487 -0.09566 -1.057e-21)
(1.548 -0.162 0)
(1.956 0.5478 6.685e-21)
(0.000273 0.001544 0)
(0.4388 -0.1252 4.264e-21)
(0.1886 1.002 -4.087e-22)
(0.9517 -0.06865 3.923e-23)
(1.616 1.176 2.856e-20)
(0.9811 0.004115 -1.642e-19)
(0.2475 -0.1304 0)
(1.028 0.03783 1.372e-22)
(0.1425 -0.06374 0)
(1.136 -0.2828 -8.713e-21)
(-0.0002394 -0.001244 0)
(-0.002222 -0.008111 -3.733e-22)
(0.005732 -0.002043 1.257e-22)
(0.999 -0.0002142 -6.906e-20)
(0.6278 -0.15 0)
(1.792 0.0697 0)
(0.9871 0.01726 6.197e-20)
(0.8586 -0.2317 6.909e-22)
(0.5861 -0.1907 1.846e-20)
(0.351 -0.1028 3.001e-21)
(0.9121 -0.1219 0)
(1.156 -0.2891 0)
(0.8588 -0.1054 9.272e-22)
(0.9823 -0.2641 -3.251e-21)
(0.3461 -0.06383 1.671e-21)
(1.002 -0.002392 0)
(0.1651 -0.05045 9.718e-22)
(0.006852 -0.002309 0)
(0.511 -0.1934 3.374e-21)
(0.7655 -0.07553 -2.801e-22)
(0.1326 -0.04973 -3.616e-22)
(1.015 -0.01706 -2.493e-20)
(0.947 -0.0985 2.544e-21)
(0.9963 -0.0524 -1.683e-21)
(1.235 -0.257 1.462e-20)
(0.9951 -0.01577 0)
(0.6816 -0.05438 0)
(2.106 0.9657 0)
(0.05887 -0.02823 7.395e-23)
(0.9929 8.276e-05 0)
(1.381 -0.2385 -4.621e-21)
(0.9255 -0.08385 1.374e-20)
(0.1256 -0.04858 -5.771e-25)
(0.3999 -0.1189 8.546e-21)
(1.948 0.5639 1.829e-21)
(1.18 -0.2594 -4.142e-21)
(0.9569 0.04377 3.556e-21)
(0.2204 -0.05931 5.056e-23)
(0.5568 -0.1672 -1.063e-20)
(0.9945 -0.0003377 8.838e-21)
(0.7516 -0.1418 2.4e-20)
(1.429 -0.1603 -4.375e-20)
(0.8259 -0.07252 5.803e-22)
(0.9058 -0.06932 -4.65e-22)
(0.4454 -0.1219 -4.119e-21)
(0.08125 -0.02499 5.708e-22)
(1.142 -0.2847 4.43e-21)
(1.566 -0.06914 0)
(0.5437 -0.1942 4.751e-21)
(0.3239 -0.1048 0)
(0.436 -0.1283 9.866e-23)
(1.027 -0.01194 -1.203e-20)
(0.503 -0.03193 -1.261e-22)
(0.7146 -0.1787 -3.429e-21)
(0.8024 -0.1201 -2.855e-21)
(0.9523 -0.1013 3.612e-21)
(0.2368 -0.07218 4.39e-22)
(1 0.002918 0)
(1 0.003873 3.328e-21)
(1.028 0.4288 1.812e-20)
(0.5894 -0.1382 -1.846e-21)
(1.6 1.245 0)
(0.9857 0.02031 -4.278e-20)
(1.004 0.0001597 -7.307e-22)
(0.5739 -0.1603 0)
(0.4549 -0.1866 0)
(0.5264 -0.1631 1.442e-21)
(0.4395 -0.1303 0)
(0.1095 -0.04012 1.032e-21)
(0.06284 -0.01858 0)
(0.8165 -0.1577 -4.176e-21)
(1.04 0.04402 0)
(0.9974 -0.0009708 1.49e-20)
(0.01392 -0.006277 3.61e-22)
(0.962 -0.2471 -3.015e-21)
(0.8064 -0.1743 8.526e-21)
(1.002 -0.002694 2.624e-20)
(0.5621 0.004508 6.204e-21)
(0.958 -0.09561 0)
(0.5885 -0.1557 5.504e-21)
(0.9921 -0.007018 3.117e-21)
(0.7028 -0.0893 -1.727e-22)
(0.9851 0.02001 7.969e-20)
(0.5905 -0.1765 -1.021e-21)
(0.1186 -0.03808 0)
(1.21 -0.2471 5.901e-22)
(0.9966 0.0001364 3.253e-22)
(0.1395 -0.04465 -2.865e-21)
(1.17 -0.2827 -1.767e-21)
(0.2372 -0.1253 -2.238e-20)
(1.005 -0.0002217 -3.432e-21)
(0.9043 -0.1366 -4.672e-21)
(0.08845 -0.03229 -2.515e-22)
(0.9923 0.0009771 0)
(0.937 -0.1088 0)
(0.9948 0.02605 -5.452e-22)
(0.9448 -0.07256 -7.749e-22)
(1.474 -0.1749 0)
(0.9907 0.01227 4.169e-20)
(0.489 -0.1198 1.019e-20)
(0.8814 -0.1181 -1.155e-21)
(0.1031 -0.04263 0)
(1.438 -0.212 -1.137e-20)
(1.461 -0.1953 -1.331e-21)
(0.8258 -0.09587 2.504e-21)
(0.8373 -0.1046 9.658e-22)
(-0.1435 0.529 -1.185e-20)
(0.9312 -0.08901 4.321e-22)
(2 1.132 3.186e-21)
(0.8981 -0.06066 4.83e-22)
(0.1184 -0.05819 1.722e-22)
(1.57 -0.1338 -2.275e-21)
(0.6988 -0.06558 -2.806e-22)
(1.002 -0.002619 0)
(0.8346 -0.1743 -2.358e-21)
(0.9889 0.01497 -1.756e-20)
(-0.01791 0.7663 -6.268e-21)
(1.065 0.0056 7.773e-20)
(1.464 -0.1975 1.258e-20)
(1.005 -0.0006174 0)
(1.001 0.02442 -8.062e-22)
(0.9548 -0.08126 -1.098e-20)
(0.5239 -0.1926 2.49e-21)
(1.219 -0.2759 4.647e-21)
(1.003 -0.001328 2.198e-20)
(1 -0.003345 -3.358e-20)
(0.06235 -0.03204 -7.032e-23)
(0.9863 0.1216 0)
(0.5314 -0.1197 4.665e-21)
(0.7458 -0.06594 7.695e-22)
(0.7508 -0.1881 0)
(0.4652 -0.1054 -1.614e-20)
(1.156 -0.2915 -7.328e-22)
(0.4367 -0.1406 0)
(1.512 -0.1832 -2.593e-22)
(0.3703 -0.1045 -1.334e-20)
(1.052 -0.07157 0)
(1.003 -0.001404 -3.868e-21)
(1.701 -0.07122 1.048e-20)
(1.504 -0.1866 1.159e-21)
(0.8888 -0.1247 3.231e-21)
(1.382 -0.1587 0)
(0.9799 -0.02238 -1.086e-19)
(1.004 0.000156 7.902e-23)
(1.451 -0.1804 -1.085e-20)
(0.2266 -0.118 -5.264e-24)
(1.489 -0.1622 3.428e-21)
(0.02682 -0.009737 -8.517e-22)
(1.065 0.007341 0)
(1.003 0.0002015 6.987e-22)
(0.3704 -0.111 0)
(1.486 -0.1302 0)
(0.9179 0.0862 -9.641e-20)
(0.9534 -0.1172 -4.837e-21)
(0.892 -0.1013 0)
(0.9891 -0.04674 -4.365e-20)
(0.2532 -0.07477 4.634e-21)
(0.7961 -0.1684 -2.592e-21)
(1.505 -0.1859 7.155e-21)
(0.6818 -0.03169 -9.203e-20)
(0.001276 -0.0003833 0)
(0.1282 -0.04934 0)
(0.344 -0.1227 -8.415e-23)
(0.2633 -0.06867 -8.45e-23)
(0.6622 -0.1838 0)
(1.387 -0.2007 6.581e-21)
(0.7393 -0.09567 3.953e-22)
(1.092 -0.1645 0)
(0.9218 0.01908 -2.309e-20)
(1.591 -0.1401 1.238e-20)
(0.1364 -0.05333 0)
(1.29 -0.2716 -7.118e-21)
(0.9995 -0.002479 7.754e-20)
(0.9086 -0.1402 3.579e-21)
(0.668 -0.1167 0)
(0.424 0.3875 -3.61e-20)
(0.9929 5.31e-05 -4.989e-23)
(0.9995 -0.002555 -1.034e-19)
(-0.006336 -0.01042 0)
(0.9521 -0.06859 4.201e-21)
(0.8637 -0.1583 -3.544e-21)
(1.473 -0.191 -7.319e-22)
(0.2229 -0.07034 0)
(1.128 -0.258 1.736e-20)
(1.534 0.01196 0)
(0.6868 -0.05894 -3.402e-22)
(0.591 0.272 6.954e-20)
(0.7685 -0.1985 0)
(1.016 -0.001318 -2.817e-20)
(1.004 -0.001505 0)
(1.833 0.4695 0)
(1.163 0.4628 0)
(0.6987 -0.1287 7.25e-22)
(0.4263 0.3619 0)
(0.5009 -0.202 7.616e-21)
(0.8511 -0.1899 0)
(0.5021 -0.1933 -8.946e-21)
(1.092 -0.157 8.571e-20)
(1.007 -0.1659 1.317e-20)
(0.9976 0.0001804 9.65e-23)
(0.7054 -0.05173 2.346e-22)
(0.9109 -0.05769 3.584e-21)
(0.8301 -0.1877 -2.33e-21)
(-0.0006112 -0.002433 -6.652e-23)
(0.902 -0.1329 -1.545e-21)
(1.565 -0.1187 -1.434e-20)
(0.8487 -0.2445 7.602e-21)
(0.9968 0.0001552 -2.942e-22)
(0.9511 -0.1018 -6.358e-23)
(0.9074 -0.08247 9.707e-22)
(-0.04756 0.01839 0)
(0.9717 -0.178 -1.649e-22)
(1.274 -0.262 1.152e-20)
(1.511 -0.1834 -3.889e-21)
(2.021 1.676 0)
(0.9351 -0.2349 6.144e-21)
(0.2767 -0.1169 1.831e-20)
(0.9655 -0.2211 -5.354e-22)
(0.8 -0.1894 1.051e-21)
(0.9511 -0.1017 -1.708e-21)
(0.9535 -0.0989 -1.214e-21)
(1.101 -0.2887 7.068e-21)
(0.8583 -0.1257 1.431e-20)
(0.006884 -0.0004255 0)
(0.6642 -0.1169 0)
(0.9647 0.1264 1.576e-20)
(0.8119 -0.1736 -2.413e-21)
(0.4647 -0.1684 1.467e-20)
(0.9489 -0.09874 3.713e-22)
(1.008 -0.003145 0)
(0.1232 -0.04869 2.837e-22)
(0.9981 -0.2195 -5.292e-21)
(0.5329 -0.1653 -1.352e-21)
(1.003 0.0002008 -5.401e-22)
(0.02761 -0.01265 0)
(0.443 -0.1391 0)
(0.7092 -0.09026 -2.429e-21)
(0.9979 0.0001904 1.164e-22)
(1.045 -0.1612 6.501e-21)
(0.1169 -0.05731 0)
(0.946 -0.1733 7.88e-21)
(1.554 -0.1538 -6.421e-21)
(0.9975 0.0001701 -9.964e-23)
(0.7199 -0.2065 -3.009e-21)
(0.1375 -0.05386 0)
(0.3701 -0.09887 7.456e-21)
(1.316 -0.2608 0)
(0.996 0.03797 -1.102e-21)
(1.522 -0.1662 3.268e-21)
(-0.2785 0.842 0)
(1.029 -0.004974 -2.588e-20)
(0.8678 -0.1488 4.475e-21)
(0.8303 -0.1471 0)
(1.408 -0.1987 -7.638e-21)
(0.44 -0.1247 0)
(0.7542 -0.1384 -1.454e-20)
(0.9021 -0.1332 0)
(0.6445 -0.08075 -4.388e-22)
(0.2416 -0.07665 0)
(0.9937 4.865e-05 -5.411e-22)
(0.7099 -0.2036 2.891e-21)
(0.9942 -0.2688 3.724e-22)
(0.5097 -0.04123 0)
(0.829 -0.1195 -2.064e-21)
(1.404 -0.05667 0)
(0.8678 -0.233 0)
(0.08769 -0.02581 1.386e-22)
(0.9933 7.678e-05 -7.791e-23)
(0.3645 -0.1067 -3.143e-21)
(0.2541 -0.0727 0)
(1.502 -0.165 0)
(0.002444 0.00407 7.419e-23)
(1.501 -0.1644 -3.785e-21)
(0.06016 -0.0291 -1.095e-22)
(1.357 -0.2548 -1.581e-21)
(0.1643 -0.07416 0)
(0.8067 -0.1618 0)
(0.9991 -0.0002394 3.404e-20)
(0.0004804 -0.0002023 4.583e-23)
(0.608 -0.1827 6.534e-21)
(1.444 -0.2128 9.825e-21)
(-0.02492 0.006879 3.602e-22)
(0.4147 -0.1418 -1.599e-21)
(0.2235 -0.08769 7.059e-22)
(0.2946 -0.09388 -1.022e-21)
(0.8655 -0.07283 0)
(0.9972 -0.0008983 0)
(0.9856 -0.2045 0)
(0.9329 -0.1076 -1.009e-23)
(0.9979 0.0001685 0)
(0.2913 -0.08738 -4.346e-21)
(2.035 0.7692 0)
(0.9102 -0.1347 -3.374e-21)
(0.6062 -0.1896 -5.795e-21)
(1.007 -0.0001328 -1.419e-20)
(1.169 -0.2947 0)
(0.122 -0.04931 0)
(1.017 -0.0009862 -9.149e-20)
(1.006 -0.0001489 0)
(1.379 -0.1609 0)
(1.032 -0.2763 4.387e-21)
(0.7534 -0.1881 -2.52e-22)
(0.2312 -0.09223 1.07e-22)
(0.5864 -0.1773 2.218e-21)
(0.129 -0.007497 -2.899e-23)
(0.9254 -0.114 0)
(0.51 0.05913 -6.175e-20)
(0.9997 -0.002602 0)
(0.586 -0.1701 -2.88e-21)
(0.2806 -0.1067 0)
(0.7828 -0.05636 4.679e-22)
(0.6503 -0.05398 0)
(0.4564 -0.02801 -4.521e-20)
(1.003 -0.000787 0)
(1.015 -0.0165 2.805e-21)
(0.9912 -0.04859 2.204e-20)
(0.5768 0.00604 7.369e-21)
(0.9997 -0.002461 1.358e-20)
(1.077 -0.1468 -3.025e-20)
(0.1496 -0.07501 4.678e-21)
(0.9359 -0.1158 -4.111e-21)
(0.6746 -0.09318 2.591e-21)
(0.9987 -0.003114 0)
(0.1478 -0.05205 8.158e-22)
(0.9415 -0.1114 2.176e-21)
(1.005 0.01169 0)
(0.8121 -0.09827 -1.085e-21)
(0.9954 -0.0004112 0)
(0.3221 -0.1207 2.297e-20)
(-0.449 0.7377 -9.347e-22)
(1.336 -0.1757 -1.485e-22)
(1.524 -0.1292 0)
(0.3894 -0.02538 -2.303e-22)
(0.9741 -0.01868 5.432e-21)
(0.4207 -0.1086 0)
(0.6678 -0.03944 -2.174e-20)
(0.6882 -0.05864 0)
(0.1399 -0.05476 6.134e-22)
(0.7508 -0.09875 -6.272e-22)
(1.532 2.121 -6.898e-21)
(1.408 -0.05171 -1.733e-20)
(0.8601 -0.136 -7.103e-21)
(0.526 -0.114 2.854e-23)
(0.3561 -0.06638 0)
(1.004 0.01502 0)
(1.308 -0.2135 2.47e-20)
(0.6699 -0.2101 0)
(2.114 0.3912 5.492e-22)
(0.1366 -0.05346 -1.826e-22)
(0.5673 -0.09298 0)
(1.003 -0.0007422 0)
(1.018 -0.1045 1.363e-20)
(0.01323 -0.005713 -1.717e-22)
(0.6065 -0.1396 -7.607e-21)
(0.3911 -0.02154 3.083e-20)
(1.864 0.1646 0)
(-0.1771 0.2059 -1.956e-21)
(1.974 0.2359 -2.011e-21)
(0.1831 0.02952 2.304e-20)
(0.8864 -0.2077 -3.099e-21)
(-0.01737 0.008733 8.413e-22)
(0.9881 -0.2045 1.984e-21)
(0.2863 -0.02203 -7.052e-22)
(1.037 0.05836 -1.512e-20)
(0.9189 -0.1311 0)
(1.004 0.0001815 0)
(0.9966 0.000138 0)
(1.454 -0.209 5.843e-21)
(1.089 0.02547 3.933e-21)
(1.518 -0.1831 1.004e-20)
(0.9199 -0.1526 6.02e-21)
(0.2544 1.302 0)
(0.9486 -0.09087 9.028e-21)
(1.039 -0.05706 -2.346e-20)
(2.089 0.8202 8.157e-21)
(0.806 -0.1759 4.224e-21)
(1.015 -0.01484 5.652e-20)
(1.02 -0.2106 -1.902e-22)
(0.3234 -0.1137 -4.306e-22)
(1.039 -0.05496 3.417e-20)
(0.509 -0.1128 -1.15e-20)
(0.05031 -0.01695 4.776e-24)
(0.1199 -0.02999 0)
(0.8423 -0.159 0)
(-0.3425 0.5716 -3.886e-21)
(1.316 -0.2473 0)
(0.2312 -0.08869 0)
(0.9855 0.005214 5.539e-20)
(1.548 -0.1605 5.73e-21)
(0.8296 -0.1884 2.357e-21)
(1.003 -0.01326 0)
(0.495 -0.1233 5.046e-21)
(0.6874 -0.1875 0)
(1.036 -0.2689 -3.044e-21)
(0.9946 -0.0003085 4.483e-21)
(0.9645 -0.02346 2.8e-21)
(1.045 -0.2147 0)
(0.08746 -0.006466 -9.029e-23)
(0.6205 -0.1678 -1.36e-20)
(0.04883 -0.01239 0)
(1.056 -0.2683 3.479e-21)
(0.4461 -0.1508 0)
(0.8178 -0.1717 -8.53e-22)
(0.07599 -0.02807 0)
(1.521 -0.1012 2.05e-21)
(0.9962 0.0001241 -5.859e-23)
(0.2021 -0.1099 0)
(1.618 0.3613 -3.216e-20)
(1.005 0.0001714 0)
(0.5029 -0.1303 4.207e-22)
(0.01338 -0.004643 -4.859e-22)
(1.167 -0.238 -7.622e-21)
(1.899 0.125 -6.721e-21)
(0.9676 -0.07105 -2.257e-21)
(0.8985 -0.1288 -1.652e-21)
(0.05653 -0.02061 -4.365e-24)
(0.1202 -0.0176 2.369e-22)
(0.8918 -0.0937 0)
(1.038 0.04442 -3.944e-20)
(0.9959 0.01019 6.773e-21)
(0.856 -0.1533 0)
(0.3937 -0.1005 -4.506e-21)
(0.2565 -0.08398 -3.757e-21)
(0.539 -0.1197 0)
(0.4349 1.629 1.643e-20)
(0.4781 -0.1978 -4.16e-21)
(0.6106 -0.02803 -2.769e-22)
(1.326 0.01221 -4.111e-20)
(0.4832 -0.198 -4.123e-21)
(1.109 -0.08751 5.017e-20)
(0.6989 -0.0483 0)
(1.008 -0.001782 0)
(0.5606 -0.1824 1.612e-22)
(0.05338 -0.02055 1.062e-22)
(1.372 -0.2436 -1.419e-20)
(0.5033 -0.1462 0)
(0.9451 -0.2401 0)
(0.9914 0.009076 -3.216e-20)
(0.968 0.02246 2.541e-20)
(-0.004032 0.009571 0)
(0.7859 -0.1145 3.377e-20)
(0.0988 -0.01793 0)
(0.9071 -0.1172 0)
(0.1443 -0.02166 -3.392e-23)
(0.6115 -0.1252 -2.506e-22)
(1.482 -0.1578 -3.093e-21)
(1.77 0.01255 -1.801e-21)
(1.565 -0.1243 -1.078e-20)
(0.3344 -0.05076 1.42e-21)
(1.512 -0.178 -8.138e-21)
(0.7441 -0.05616 -3.888e-22)
(0.3149 -0.09719 5.091e-21)
(0.9342 -0.11 5.149e-21)
(0.7762 -0.2188 1.113e-21)
(0.719 1.868 -8e-21)
(0.22 -0.08431 -2.66e-23)
(0.04338 -0.01436 -5.796e-22)
(0.01874 -0.006338 0)
(0.9175 -0.2341 0)
(1.007 -0.003015 0)
(1.005 -0.0055 4.644e-20)
(0.8153 -0.2302 2.538e-21)
(0.2934 -0.04814 0)
(0.8875 -0.1276 -2.069e-20)
(1.006 3.447e-05 0)
(0.3916 -0.125 -1.512e-20)
(1.154 -0.2919 3.649e-21)
(0.9566 -0.07871 8.026e-21)
(0.2177 -0.08669 0)
(1.455 -0.173 -1.929e-20)
(0.2473 -0.07262 -4.819e-21)
(1.704 0.9161 -3.966e-20)
(0.9999 0.001484 -2.605e-20)
(0.8639 -0.1246 0)
(0.9572 -0.07077 4.647e-21)
(0.4622 -0.1803 0)
(0.61 -0.04653 0)
(0.1152 -0.06341 -5.411e-23)
(0.5148 -0.01913 3.466e-20)
(1.285 -0.2187 4.766e-20)
(0.7147 -0.1275 0)
(0.8842 -0.08278 2.96e-22)
(0.9675 -0.08121 0)
(0.9378 -0.2125 0)
(0.4022 -0.1406 1.657e-20)
(0.9412 -0.1082 -1.635e-21)
(0.2717 -0.1027 0)
(0.4476 -0.1927 -5.42e-21)
(1.008 -0.0178 -2.131e-21)
(0.04143 -0.0179 0)
(0.07887 -0.02983 0)
(0.9938 -0.2669 0)
(1.457 -0.2085 1.348e-20)
(-0.3615 0.6321 -4.309e-21)
(1.012 0.02538 -5.713e-21)
(0.1046 -0.02264 7.909e-21)
(0.3301 -0.06483 0)
(0.9968 -0.0003444 0)
(0.9969 -0.0001036 -3.012e-20)
(1.552 -0.1625 9.264e-25)
(1.244 -0.2803 1.371e-20)
(0.009922 -0.003796 4.812e-22)
(0.1388 -0.05438 -2.624e-22)
(0.9186 -0.1308 7.609e-22)
(0.5691 -0.2028 0)
(0.1212 -0.03549 -3.304e-21)
(0.8732 -0.1239 0)
(0.9198 -0.1085 0)
(0.9718 -0.0241 -5.98e-20)
(0.1416 -0.03772 -6.003e-21)
(0.2959 -0.07267 0)
(0.1672 -0.04669 -3.018e-21)
(0.8367 -0.1538 0)
(0.1173 -0.04505 -4.486e-22)
(0.3814 -0.1313 -2.974e-21)
(0.9982 -0.001963 -1.747e-21)
(0.3458 -0.04759 0)
(0.1043 -0.04949 -2.299e-22)
(0.9976 -0.0008716 -1.145e-19)
(1.225 -0.1762 -3.904e-21)
(0.997 -0.000372 -1.244e-20)
(0.9855 0.0008717 5.153e-20)
(0.9226 -0.1199 -1.966e-21)
(0.8623 -0.09738 0)
(0.3399 -0.03358 -3.89e-20)
(0.9956 -0.002389 1.163e-20)
(0.8116 -0.09697 1.259e-22)
(1.007 0.007061 0)
(2.047 0.8167 0)
(0.876 -0.08947 -2.729e-20)
(1.004 -0.1964 1.421e-21)
(0.9398 -0.1032 3.171e-21)
(0.8457 -0.1638 5.54e-22)
(0.8836 -0.1275 0)
(0.2275 -0.0665 1.181e-20)
(0.9502 -0.1036 -3.92e-21)
(1.002 -0.006115 1.166e-20)
(0.9682 -0.04598 -7.065e-20)
(1.382 -0.2402 7.168e-21)
(0.8766 -0.16 -1.563e-21)
(0.2244 -0.08985 -5.338e-23)
(0.2094 -0.0671 0)
(0.3697 -0.02726 -3.91e-24)
(0.168 -0.04992 -2.289e-21)
(0.0254 -0.004749 -5.569e-20)
(1.427 -0.2107 1.23e-20)
(0.7458 -0.2032 0)
(1.75 0.03538 -1.541e-20)
(0.8622 -0.09119 1.948e-22)
(0.6498 -0.07949 0)
(1.099 0.7422 -1.395e-20)
(0.9988 -0.2081 0)
(1.001 -0.0139 1.04e-20)
(0.7771 -0.1496 1.396e-20)
(0.1272 -0.0525 -2.876e-22)
(0.7472 -0.1261 0)
(0.9988 0.0002806 3.129e-23)
(0.05704 0.007192 6.736e-20)
(1.168 -0.2891 0)
(0.9589 -0.09278 -1.859e-22)
(0.7364 -0.1922 1.59e-21)
(1.512 -0.1829 -9.818e-22)
(0.9294 -0.1071 5.198e-21)
(0.4909 -0.1049 0)
(1.174 -0.2769 7.885e-21)
(0.9588 -0.09291 -5.603e-22)
(0.1052 -0.05791 3.743e-24)
(0.7537 -0.2012 -5.834e-21)
(0.14 -0.05475 -6.837e-22)
(0.9972 -0.0008928 0)
(0.9688 -0.0766 1.527e-21)
(0.8257 -0.1535 0)
(0.973 -0.01544 0)
(0.8955 -0.1807 0)
(1.078 -0.1108 1.646e-21)
(0.9964 -5.023e-06 4.959e-21)
(0.822 -0.1563 1.01e-20)
(0.1296 -0.05031 0)
(0.9493 -0.0451 0)
(1.132 0.731 5.159e-20)
(1.323 -0.2389 0)
(0.1249 -0.02571 0)
(0.8933 -0.1072 2.168e-20)
(1.007 5.927e-05 -5.006e-22)
(0.7436 -0.1721 -1.57e-22)
(0.4229 -0.1315 -2.582e-22)
(1.016 -0.007935 5.021e-20)
(1.192 0.6203 -4.281e-20)
(1.138 0.0736 2.068e-20)
(1.132 -0.2899 5.496e-21)
(0.5297 -0.1323 -5.53e-21)
(0.8792 -0.1417 4.648e-21)
(1.042 -0.05292 0)
(0.1338 -0.05165 2.353e-22)
(0.02122 -0.007794 -1.17e-21)
(0.8446 -0.1763 -2.748e-22)
(0.9029 -0.1409 2.246e-21)
(1.03 -0.2823 -2.173e-21)
(0.2792 -0.02494 0)
(0.998 0.000282 -1.443e-22)
(0.941 -0.09768 -1.328e-21)
(1.01 0.008911 1.076e-21)
(0.6265 -0.172 0)
(0.318 -0.07141 -1.442e-20)
(1.186 -0.2046 0)
(0.7374 -0.1921 1.428e-20)
(0.1354 -0.05338 3.768e-22)
(0.4237 -0.07007 0)
(0.9993 0.006155 -6.615e-21)
(-0.001176 0.0003717 0)
(0.149 -0.04609 0)
(0.2497 -0.07318 4.037e-21)
(0.9645 -0.0862 -1.708e-21)
(2.193 0.6484 0)
(1.135 -0.2785 -6.19e-21)
(0.9774 -0.1809 3.739e-22)
(0.595 -0.04651 0)
(0.9246 -0.1248 0)
(0.8559 0.1334 -9.937e-20)
(0.04671 -0.001087 -8.837e-22)
(0.2359 -0.03916 1.377e-22)
(0.8637 -0.06528 0)
(0.7907 -0.1639 -3.348e-21)
(0.9134 -0.1355 0)
(0.1331 -0.01597 -6.369e-20)
(0.1233 -0.02738 -2.351e-21)
(0.1756 -0.06043 -3.775e-24)
(0.8891 -0.1451 9.334e-22)
(0.2997 -0.07943 0)
(1.529 -0.127 0)
(0.8589 -0.1042 -1.473e-21)
(0.8773 -0.08962 6.679e-22)
(1.161 -0.2406 0)
(-0.02137 0.005748 0)
(0.9454 -0.07388 -6.468e-21)
(0.8283 -0.169 -4.786e-21)
(0.9258 -0.0831 0)
(0.8369 -0.142 1.579e-21)
(0.9938 5.354e-05 0)
(1.004 -0.001226 1.64e-19)
(1.423 -0.1933 -1.612e-20)
(0.2509 -0.01677 -2.568e-22)
(0.5744 -0.1878 1.866e-21)
(0.9975 -0.03023 8.27e-21)
(0.1646 -0.03228 -7.869e-21)
(0.2036 -0.0661 -3.882e-23)
(0.9948 0.01204 -2.04e-20)
(1.183 0.1594 0)
(0.9286 -0.1229 4.398e-22)
(1.491 -0.1494 0)
(-0.0007563 0.005905 0)
(0.7217 -0.1688 -1.198e-20)
(0.2421 -0.07107 -3.265e-23)
(0.001446 -0.0004667 0)
(1.022 -0.2111 -1.404e-22)
(0.0401 -0.02048 1.859e-21)
(1.002 -0.277 4.415e-21)
(0.9368 -0.1154 0)
(0.6331 -0.06755 9.841e-21)
(0.8958 -0.1281 6.347e-22)
(0.6819 -0.06144 -1.298e-21)