/*--------------------------------*- C++ -*----------------------------------*\
  =========                 |
  \\      /  F ield         | OpenFOAM: The Open Source CFD Toolbox
   \\    /   O peration     | Website:  https://openfoam.org
    \\  /    A nd           | Version:  8
     \\/     M anipulation  |
\*---------------------------------------------------------------------------*/
FoamFile
{
    version     2.0;
    format      ascii;
    class       volScalarField;
    location    "35";
    object      k;
}
// * * * * * * * * * * * * * * * * * * * * * * * * * * * * * * * * * * * * * //

dimensions      [0 2 -2 0 0 0 0];

internalField   nonuniform List<scalar> 
127143
(
2.492e-13
7.334e-13
1.42e-11
7.318e-11
1.979e-11
7.755e-11
9.453e-10
1.449e-10
7.166e-11
9.292e-10
2.015e-09
2.517e-10
8.983e-11
1.271e-10
0.0001762
4.749e-09
5.184e-11
0.0723
0.03625
4.419e-08
0.01464
1.705e-06
0.0001549
3.092e-05
1.532e-06
1.84e-06
1.223e-06
1.422e-06
1.368e-06
0.06073
2.361e-05
1.933e-06
1.653e-07
7.545e-05
0.0001516
1.589e-07
0.008167
0.05615
4.158e-05
1.833e-06
0.03656
0.0001543
0.0001537
6.754e-10
0.07041
8.533e-05
1.239e-06
0.01449
2.579e-05
4.221e-05
1.103e-08
0.0001499
0.01895
0.0001562
0.0001397
1.674e-05
0.0001396
0.0001685
0.0001481
0.0001561
0.0001538
0.02439
5.004e-05
0.0001482
0.0004216
0.0001594
0.0001519
5.071e-05
5.059e-05
0.0002035
2.934e-05
2.554e-06
0.03738
0.0001481
0.0001459
2.93e-06
0.0001481
0.008083
1.66e-05
0.000149
1.225e-06
4.499e-08
0.0004816
3.711e-06
0.0266
0.009487
4.325e-05
1.222e-06
0.0001583
0.0001214
0.0001468
0.02072
0.0001849
0.0148
0.006467
0.0001738
0.0001542
1.146e-05
0.01117
0.0001519
0.0001489
2.708e-05
4.681e-05
0.0001485
0.00989
0.01082
4.564e-05
0.0002043
0.0001647
0.0001424
0.0002036
1.058e-06
0.01079
0.0001625
0.0001457
0.0001695
0.0001481
0.0001459
0.000148
1.481e-07
0.0001425
0.0006133
0.0001542
0.0001632
1.415e-06
6.33e-07
0.01897
0.0001497
0.006831
1.478e-05
0.005324
0.005195
5.627e-05
0.00828
1.695e-09
0.005579
0.000157
0.01893
3.83e-06
0.0001545
0.0001554
0.0001473
0.02556
0.0286
0.01944
0.0001966
5.705e-06
0.0001483
0.004837
2.537e-05
0.0001212
3.186e-05
0.06542
0.0001526
0.0002345
0.02672
0.0001686
1.489e-05
0.01472
6.509e-06
3.767e-05
8.447e-09
0.0001469
0.005361
2.967e-06
0.0006213
0.006131
0.0001567
9.827e-06
0.0001495
0.001499
0.02843
0.0001686
0.0001591
0.0005882
0.0174
0.0001972
0.006919
3.441e-05
0.0001576
0.0001594
0.000155
0.01872
0.01758
1.536e-05
0.02503
0.0001522
0.0001627
3.436e-05
0.0001563
0.01505
0.007623
0.0001564
0.0002285
8.798e-10
0.0211
0.0001294
0.0001285
4.687e-09
0.000146
0.0001455
0.0001496
0.003265
0.008847
5.677e-10
5.542e-05
0.0001538
0.0001236
0.04977
0.0001457
0.000493
0.02396
0.000145
1.129e-05
0.002954
1.818e-09
0.0001845
0.000129
0.007908
0.0001538
0.00019
0.0001462
3.168e-05
0.0203
6.283e-06
0.001004
6.314e-06
0.05892
0.002768
0.01471
0.01396
0.0001548
0.03784
1.676e-06
0.01412
0.0001581
0.005345
6.684e-12
0.0001455
0.01796
0.008117
0.0008225
0.01656
1.485e-05
0.04159
1.75e-07
4.262e-05
1.552e-06
7.518e-08
0.00025
0.0001683
1.999e-06
0.0001318
0.02012
2.433e-05
0.0001664
0.0001496
2.762e-05
0.0001733
0.0001514
0.02251
0.0001516
0.01305
0.0001471
0.02245
0.000639
0.001164
0.0002317
0.0001562
0.02742
4.729e-06
0.000581
0.01703
0.01753
5.254e-05
0.01567
0.011
3.192e-05
0.001092
0.0001785
0.0002137
0.0001861
0.0001489
0.0001456
0.0001456
7.815e-10
0.005583
0.0001457
3.072e-05
0.0001581
0.06718
0.0001588
0.000158
0.0001679
0.0001454
0.0001748
2.221e-05
0.01038
0.0165
0.02307
8.781e-06
0.0001603
0.0001558
0.0001698
4.933e-06
0.0002119
0.0001238
0.0001451
0.04468
8.584e-05
4.281e-05
0.004
1.204e-05
0.0001899
0.0001455
0.0001125
0.0452
8.981e-06
0.0002284
0.005201
0.0001546
2.975e-05
0.0001521
0.0001314
0.0001067
0.0396
0.0001507
0.01286
3.273e-05
0.0001861
0.01897
0.0001456
0.0001516
0.0001295
0.0001286
0.0001525
0.000165
0.0001687
0.01894
0.00478
0.0001545
0.0001287
0.02271
0.01644
0.0001692
3.061e-05
0.001531
0.009445
9.731e-06
0.00474
1.312e-05
0.03996
0.01554
0.01594
0.0001499
0.001805
0.01982
0.000192
0.0001498
3.211e-05
0.01957
4.988e-05
0.0666
4.694e-05
4.23e-05
0.0001468
0.000146
0.003342
0.000642
0.001106
0.000156
0.0001522
3.836e-06
4.329e-05
0.0001556
0.0001548
2.162e-05
6.22e-06
0.0122
0.001134
0.07587
8.474e-07
1.454e-05
0.0001601
0.000148
9.814e-08
0.0001509
2.266e-06
0.0204
0.05899
0.0001468
0.0001542
0.002102
2.726e-05
3.423e-05
2.15e-05
0.0001543
3.035e-05
0.0001499
0.0001514
2.904e-06
0.0001462
0.01608
0.01909
0.0001509
0.0001063
0.01066
5.846e-05
0.000149
3.776e-05
0.000194
9.33e-06
0.0001555
0.01532
0.0001689
0.006705
0.01034
4.397e-06
0.06272
6.818e-05
0.006446
1.067e-05
0.002352
0.0002131
0.01435
0.0001516
0.0001535
0.0001537
0.001063
0.0001538
0.0001413
0.002288
0.01469
0.01094
0.03182
0.0001468
0.0001086
0.002068
0.0001498
0.0001453
0.0001454
4.574e-05
0.0001571
0.0001686
0.0001486
1.222e-05
0.0001456
0.0001735
0.003595
0.02413
0.01368
1.798e-05
0.0001143
0.0005079
0.0001508
0.01039
7.785e-06
0.001301
0.01053
0.06157
6.216e-05
0.01296
0.04032
0.000157
0.01219
0.0004579
0.0001467
0.01797
0.001003
0.0001386
0.01328
0.006968
0.0001633
0.04738
0.0001535
0.0001348
0.0002353
0.004474
0.001273
0.02957
1.704e-06
0.0001895
0.003312
1.244e-05
0.0001885
0.03282
0.03649
0.0001449
1.059e-05
0.0001472
0.0001646
4.453e-05
0.01601
0.0001919
5.464e-09
0.004531
0.0001573
0.0001609
0.0001591
0.000145
1.422e-06
0.0001468
0.01468
0.02197
2.808e-11
7.36e-09
9.026e-08
0.000147
0.001882
0.005833
0.0001455
0.02039
0.0001316
0.005425
0.0001523
0.01331
1.792e-05
0.01338
1.613e-05
0.0003999
0.02454
3.965e-07
5.373e-05
1.018e-05
0.002013
0.0001477
0.000125
0.001906
0.04226
0.0001459
8.673e-06
7.581e-06
0.001772
0.0001306
0.0178
0.0001577
0.0009225
0.0001924
5.539e-06
0.04509
0.0001473
0.002815
0.0001875
0.0001388
0.0001602
0.06579
2.653e-05
4.718e-05
0.0009051
0.0002828
0.02094
0.04494
8.512e-05
0.006319
0.002424
0.000147
3.185e-06
0.006894
7.221e-06
5.388e-05
0.01611
0.0001483
0.0001479
0.0001513
0.001469
0.0001622
0.0001455
0.00014
0.0001802
3e-05
0.01072
0.0001885
0.0002535
1.092e-05
0.0001735
0.0001476
0.0001426
0.001364
0.01201
9.004e-05
0.0001564
3.334e-06
6.265e-05
0.003697
0.001116
3.489e-06
0.0001455
0.01117
0.02112
0.05678
0.0001333
0.001294
0.02263
9.538e-08
0.0001346
4.732e-05
0.0002063
0.0001453
0.0001066
0.0001457
5.448e-05
0.03625
0.0001456
0.0007349
1.948e-05
0.004941
0.009047
0.02899
1.371e-05
1.5e-05
0.0002037
4.385e-05
0.0002062
5.007e-05
0.01354
0.01698
6.528e-06
0.0001483
1.519e-05
0.0001455
0.0001634
0.0001496
0.02641
0.0001413
0.0001457
0.0001689
6.938e-05
0.01132
0.0001384
0.0001412
0.003258
3.411e-06
0.0008788
1.244e-05
0.02532
0.0001679
0.01368
0.0001945
0.01683
0.00145
0.0002957
0.0001385
0.002195
0.01808
0.0001669
0.03698
0.0001469
0.0001398
0.0417
5.567e-06
0.03659
1.614e-05
0.0001495
0.0001412
0.004192
0.002384
0.0001495
0.0005799
0.0001575
0.0001651
0.0007014
0.0001715
0.01872
0.0001531
1.133e-09
0.001245
0.01073
0.0103
0.005706
0.006242
4.477e-06
0.002776
0.0001493
0.008289
0.01188
0.01654
0.0001417
3.281e-05
0.000157
0.0001529
0.0001305
0.0001415
3.305e-06
0.000161
1.797e-05
0.007973
0.0001779
0.04444
0.0001645
8.985e-06
0.0001521
2.743e-05
0.0001448
0.0001393
0.0001704
0.0001517
0.0008114
0.0001529
7.512e-06
0.02334
4.18e-05
0.0002368
0.06464
0.0001396
1.599e-05
0.0001536
2.167e-05
1.637e-09
7.989e-05
0.0242
0.01267
0.0001346
4.769e-05
4.015e-05
9.453e-06
0.0526
0.03215
0.01689
3.202e-05
0.01016
8.492e-05
0.02929
3.144e-05
4.488e-05
8.645e-05
0.0194
0.0001611
4.904e-13
0.0001569
0.0001494
5.934e-05
0.0001563
4.311e-05
0.0001441
0.01605
0.0409
0.01088
0.0001442
1.316e-05
0.00258
3.717e-06
0.0001557
0.002397
0.01201
0.002556
0.005109
0.0001474
0.01292
0.003516
0.0006998
0.01957
0.0001461
0.02283
0.000257
0.0001465
0.0001256
0.0001687
0.006744
0.004598
0.0001594
7.98e-05
1.62e-06
0.001579
0.0001279
0.01284
0.02346
2.351e-06
1.005e-05
0.0001573
0.02071
0.0003238
0.0001284
0.005711
0.0007338
0.0302
3.214e-06
0.0307
0.001896
0.01319
0.01816
0.0001741
0.0001469
4.459e-10
0.005851
0.009711
0.0004028
0.01162
0.002775
0.003345
3.654e-05
0.0001424
0.0434
0.0001497
0.0001418
0.002455
0.0001648
4.471e-05
0.0001504
0.0001364
0.0142
0.01657
0.0001449
0.000136
0.03847
0.02373
0.02519
0.003324
0.01137
1.4e-08
0.0001388
0.0001534
0.0001418
0.008541
0.007148
2.641e-05
6.912e-06
0.0001562
0.0001895
0.0001473
0.002515
2.025e-06
0.0001419
0.0001925
1.389e-05
5.051e-05
1.302e-06
0.0001479
0.02139
4.728e-05
0.000146
9.762e-06
0.0001416
0.0001592
1.422e-05
0.004454
0.03883
9.04e-07
0.0001464
0.0008543
0.0001533
9.235e-06
0.00893
5.269e-06
3.264e-05
0.0001572
0.0001668
0.0001626
1.581e-08
0.0001458
0.06995
2.137e-05
5.783e-05
0.01162
2.022e-07
0.0001856
0.000285
0.001347
1.611e-06
1.076e-06
0.003198
5.717e-09
0.0003169
6.493e-09
0.005155
0.0004833
0.04448
2.03e-07
0.000148
4.022e-05
0.0001328
0.0001319
0.02198
0.0001503
0.01003
0.04743
0.0001614
0.0001662
0.0001563
9.234e-05
5.782e-05
0.0001468
0.06043
0.007387
0.0001562
0.0006994
3.304e-07
0.02228
0.0001418
0.0001929
0.03489
0.00219
0.0001451
0.01634
2.21e-05
0.0001494
0.0009188
0.006777
0.02636
0.0001379
0.006018
0.07136
4.5e-09
0.00018
3.001e-07
0.01398
0.0001921
6.641e-05
0.0001272
0.001616
0.0001299
5.008e-06
0.0001544
0.0001307
0.0001733
1.341e-06
0.07194
0.0002982
0.0001101
0.0001661
5.422e-05
2.89e-09
2.967e-05
0.0001475
0.0001461
0.000136
0.0001818
0.004397
0.0009653
0.0001809
5.161e-06
0.008349
0.0001531
4.75e-06
0.0001547
1.697e-05
0.0001445
0.01374
0.002693
0.02293
0.002648
0.01185
0.0001457
0.0001461
0.0005549
0.0001559
0.005469
2.712e-05
0.001764
0.01918
0.04234
0.003821
0.002722
2.143e-08
0.02171
1.757e-05
0.0005535
0.0001119
0.01869
0.0002293
0.002981
0.001427
4.172e-06
0.01145
0.0001441
0.000143
0.0142
0.01321
0.0001683
0.0001396
0.000196
0.01358
0.0001694
0.001867
0.04507
0.001109
0.0001577
0.000149
0.0001615
0.0001716
8.465e-07
5.061e-06
0.01282
0.0001546
0.07241
0.0008388
3.285e-05
6.367e-05
0.02432
0.0001862
4.098e-05
0.006217
4.007e-06
0.0001499
5.737e-06
0.0001245
0.02389
0.01004
0.0001673
0.0001458
1.343e-06
2.574e-08
0.0001363
0.0001441
0.01405
0.01235
6.509e-07
0.01114
4.076e-05
3.66e-05
0.0008412
0.000163
0.0001666
0.0001478
0.000676
0.03143
0.001657
0.0001724
0.0005697
0.008775
0.0001501
2.955e-08
0.009278
0.0001453
0.003532
0.0001412
0.0001448
9.284e-05
0.0001553
1.083e-06
0.0001443
1.079e-05
0.000146
0.0001585
0.000155
0.06066
0.0001353
1.354e-05
1.868e-05
0.0005961
5.612e-05
0.0001971
0.0001558
0.02361
3.303e-05
0.002899
0.0009422
5.574e-07
0.0005752
5.733e-07
0.008266
2.558e-05
0.0003483
2.374e-05
1.481e-06
0.0001522
0.04755
0.0001699
0.001719
0.01365
4.617e-06
0.0001756
0.0001006
0.01812
4.636e-05
7.697e-05
0.01424
0.000168
0.0003953
0.02924
4.641e-05
0.00747
1.232e-05
0.008741
0.0001373
7.112e-05
0.001689
0.0001461
0.003186
0.0006915
0.0001382
0.0001732
0.009369
0.0001542
0.0001523
0.03977
0.01583
0.000159
0.0001322
0.00306
0.002034
0.0001453
0.0001521
0.0001509
0.01349
0.001999
0.0001463
0.0001556
0.002291
5.157e-06
1.509e-05
2.459e-05
0.01587
1.92e-07
0.0001959
4.216e-05
0.0001457
0.008043
0.0001887
0.004841
7.63e-05
0.003213
3.04e-05
0.0001471
9.746e-08
0.000195
0.0003113
4.905e-05
3.647e-05
0.02565
0.0538
4.548e-06
4.7e-05
0.0001506
1.983e-10
0.01152
4.041e-05
8.408e-06
3.23e-05
0.0001849
0.01647
8.106e-05
4.729e-05
0.004472
0.0374
1.834e-05
2.649e-05
0.06886
3.487e-07
0.0001597
4.968e-05
0.0001576
1.16e-05
0.0001312
0.0001448
0.04296
1.167e-07
0.0127
0.002183
1.063e-06
0.0007786
0.0001459
2.542e-06
4.09e-05
0.04247
2.597e-06
0.0001751
0.007633
3.569e-09
0.0611
2.187e-05
0.01656
4.536e-05
4.094e-05
2.163e-05
6.002e-06
0.0001897
0.002876
0.0001589
0.05441
0.02715
0.003418
0.0001677
5.356e-05
0.02257
8.997e-05
0.01669
0.0001628
0.02193
0.000154
0.000163
0.0001315
3.301e-07
0.0001511
4.905e-06
0.0001093
0.005491
0.006221
0.0001459
0.01941
0.01276
0.0001699
9.004e-05
8.938e-06
5.2e-06
0.0001427
1.924e-05
0.001726
0.01123
3.847e-08
0.01405
0.04112
0.001379
0.0001467
0.001186
0.005484
6.305e-07
0.004985
0.0001619
0.01842
0.0001455
2.426e-08
6.816e-08
0.00934
0.0001668
0.0001716
0.0001354
0.0001317
0.005289
0.02516
0.02988
0.0001549
0.0001516
0.0001528
0.0001595
0.009408
0.04014
0.001731
2.884e-05
2.838e-08
0.0001668
4.137e-06
0.007803
0.001852
0.0001319
2.423e-05
0.01687
8.876e-05
1.763e-08
0.0657
0.02791
0.004177
5.007e-05
0.01496
3.563e-08
0.07627
0.008426
0.02111
0.02824
0.0001417
2.856e-05
1.64e-08
0.0001569
0.003765
0.0001414
3.291e-05
9.355e-05
0.0001355
0.0001195
8.542e-05
0.006737
1.752e-05
0.0001429
0.0001649
1.657e-09
0.0001458
4.714e-05
0.0006091
4.672e-05
7.875e-06
0.0001677
0.000147
0.003462
2.809e-06
0.005482
0.004333
0.0001513
7.071e-05
4.617e-05
2.451e-05
0.002678
0.005545
0.0001452
0.004167
0.04047
9.193e-06
0.000235
0.02331
0.005235
0.0001458
0.0001654
0.002181
0.0001458
0.02339
0.0001378
2.35e-05
0.02386
1.706e-07
0.003766
0.02376
7.225e-05
0.01156
4.898e-05
2.681e-05
4.302e-09
0.005958
0.002644
0.02985
0.01455
0.01721
0.0001482
0.01287
0.0001469
0.01727
0.0001474
0.02501
0.0001435
0.002023
0.007044
0.0001381
0.0001446
0.009863
0.000164
0.0002721
0.0001552
0.0001344
0.0001876
0.01004
0.0001504
5.513e-08
3.414e-05
1.414e-06
3.361e-05
5.858e-05
2.597e-05
3.398e-05
0.01956
0.00235
1.265e-06
0.02147
0.0002307
0.0009909
0.01225
0.01728
0.03368
0.0001441
4.212e-09
0.007872
2.988e-06
0.0001458
2.113e-08
7.333e-05
2.259e-05
0.008261
0.000131
0.0001309
0.01582
0.077
0.01251
0.0211
4.801e-05
0.0001689
0.000157
0.00606
0.0001566
5.294e-06
0.0002422
0.000189
0.01206
0.0001407
0.0004451
0.000506
5.786e-05
2.236e-05
0.01322
0.0001467
0.01415
0.01103
2.416e-07
0.0229
0.0001543
8.557e-05
0.002871
4.028e-05
0.0151
0.000218
0.05675
0.0001455
0.01414
0.000158
1.772e-08
5.872e-06
0.0001684
0.005964
0.0002048
0.0001665
0.0001305
0.0001667
0.001234
6.322e-09
0.0001523
4.005e-07
0.00857
0.000144
0.003022
0.001491
0.02251
0.0001524
0.02051
0.003148
5.528e-05
0.008792
0.04595
2.085e-05
0.0001528
0.0001228
0.0002789
1.287e-05
0.0001761
0.0001755
2.197e-05
0.0001807
8.003e-09
0.0001988
8.585e-06
1.047e-05
4.673e-09
0.003424
0.002626
0.0001497
0.000146
0.0001438
0.01604
0.0001433
5.497e-08
0.0001454
2.557e-06
0.0001585
0.0002003
0.002672
1.809e-05
0.0002281
5.287e-06
0.00023
0.0002605
0.01293
1.417e-05
0.0001451
0.00516
0.0005679
0.01406
0.0007548
0.002218
0.009738
0.0001573
0.0001462
0.0001544
0.0001372
4.234e-05
0.0001792
0.0001332
0.00016
0.0001937
0.0001372
2.66e-06
0.0001462
0.01807
0.0296
0.0196
0.0002319
0.0001393
0.01279
0.0007221
0.01783
0.0001522
0.0001195
0.0001554
0.0001455
0.0001418
0.01498
3.08e-08
0.0001495
4.273e-05
0.0001502
2.547e-06
0.0001642
0.0001535
0.0001696
0.0001709
0.002761
1.912e-05
0.0001508
7.583e-05
0.0001471
0.01494
0.0001486
0.000153
9.645e-05
0.0209
0.0001593
8.792e-06
0.002894
0.0001416
0.02941
2.573e-06
0.001194
2.77e-08
4.691e-06
0.0337
0.0001536
0.0001778
4.586e-06
0.02336
8.784e-05
7.187e-05
0.0002007
0.0001567
0.0001445
0.005551
3.644e-05
0.01186
0.0001459
0.003841
0.0001456
0.0001637
0.002737
0.0001434
0.03622
0.0001717
0.0001917
0.01908
0.002094
2.641e-05
0.0001467
2.566e-05
5.484e-06
0.0001662
0.03404
3.359e-05
0.0001595
0.04742
0.0158
2.579e-05
0.0001631
0.01287
1.034e-05
0.009458
0.004088
1.441e-05
0.0001594
0.0001553
0.0001384
0.0001523
2.888e-05
0.01227
0.0001521
4.502e-05
0.0001487
0.000723
0.0006073
0.07087
0.0491
0.004783
2.675e-08
0.007447
1.7e-07
0.0001683
0.0001377
1.761e-07
4.004e-05
0.0001581
2.17e-05
0.0001514
0.03091
0.0001491
0.02462
5.07e-07
0.01823
0.0001904
6.444e-05
3.811e-05
0.0001464
4.918e-05
0.000154
0.0001864
7.172e-05
0.0001497
4.852e-05
2.625e-06
0.0001445
0.0001493
0.01497
0.0001907
0.01718
0.0001749
0.0001733
0.0002007
0.0001682
0.02045
0.0002195
0.002101
0.01012
0.0001374
0.0001547
2.177e-05
8.175e-07
0.00014
0.002024
5.11e-07
0.04197
0.000524
0.02132
4.263e-05
7.648e-07
0.0001677
0.0002644
0.01286
0.0001519
0.0005493
0.0001951
0.01686
1.785e-06
0.004046
0.0001493
0.002761
1.139e-09
1.442e-08
0.01498
0.01219
0.003667
0.000168
0.01678
0.0001085
0.01809
0.0002496
0.006058
0.0101
9.683e-05
2.913e-06
0.01062
0.0001646
0.0001454
0.0001783
0.0001622
0.008153
0.0001534
0.0001518
4.361e-05
0.01494
0.04138
0.0001361
2.107e-05
4.939e-06
0.05503
0.002008
0.01476
2.082e-08
2.778e-05
0.0001497
0.002477
7.275e-05
0.0148
4.096e-05
1.252e-08
0.0001282
2.095e-06
0.0001601
3.789e-05
0.0001341
0.01345
0.01924
1.025e-05
0.002475
0.02734
5.032e-06
0.0001561
0.000167
3.152e-05
0.0001539
0.02373
0.0001458
1.982e-05
1.049e-05
4.906e-05
7.967e-06
8.619e-06
0.01428
1.159e-07
0.0002593
0.0002177
0.0001842
0.0249
0.0001518
0.04575
6.301e-05
0.01722
4.712e-05
0.0001932
5.642e-05
3.246e-09
1.297e-07
0.007656
0.06779
0.0001642
0.0001601
0.0001463
0.0001493
0.008292
0.0001642
0.0001453
4.523e-05
4.646e-05
2.99e-05
0.006482
0.0001469
4.867e-05
0.03882
0.0001443
5.753e-07
1.256e-05
0.0001571
4.707e-05
4.316e-09
0.02077
0.0003479
0.05243
0.0001108
0.0002742
2.371e-10
0.0001128
9.991e-05
0.0001479
0.0001575
3.493e-05
0.006902
0.0001456
0.0001471
0.01651
5.149e-06
0.02301
4.49e-05
1.167e-07
0.000174
0.0001493
6.14e-06
0.02408
0.007229
1.304e-06
0.001089
0.02504
0.01964
0.005249
0.0001686
0.007995
0.0001465
0.001863
0.03001
5.224e-06
0.06417
2.98e-05
3.123e-05
0.0001725
6.371e-06
0.0433
0.0002644
4.749e-05
0.0005834
0.0001521
0.01857
0.006936
0.00962
0.0008893
0.007205
4.4e-05
0.0007058
0.0001454
0.00782
0.05315
7.69e-06
6.178e-05
0.0005683
0.03437
0.000155
5.069e-05
0.0001599
0.006197
0.02217
0.01147
0.02377
0.02288
0.0004851
7.029e-07
0.000163
0.0001492
0.0003176
0.0001395
0.01686
0.0001503
0.0001682
0.02076
0.0001439
0.0001649
4.737e-05
0.0007285
0.0001457
0.000149
0.02563
8.515e-05
0.001579
0.0001987
0.03238
0.01301
1.135e-05
1.961e-05
0.07675
0.00135
0.05437
0.0001599
4.388e-05
5.153e-08
0.02523
2.193e-05
2.678e-05
0.02312
2.908e-08
0.0001455
0.0001373
0.0001645
0.0001546
7.816e-09
0.0001459
0.03176
0.0002981
2.278e-08
0.0006138
1.303e-05
0.0001246
0.0001243
2.386e-05
0.006374
0.01473
0.0002286
0.0001504
0.06585
0.0001646
0.000149
6.807e-06
4.599e-05
4.67e-05
0.01657
1.243e-06
0.006082
0.0001766
0.0001323
0.0001182
5.296e-05
7.708e-06
2.508e-05
0.005938
3.433e-06
0.002804
0.01329
5.224e-05
0.001725
0.005266
0.0001551
0.0001267
2.34e-05
0.0001333
0.0001317
0.001054
0.005535
4.762e-07
0.0001634
3.528e-05
0.006161
0.0003499
0.0001455
0.0001853
0.0001482
0.01163
9.635e-08
0.0001862
0.0001576
8.842e-05
0.0001532
2.662e-06
8.792e-05
0.0001907
0.0001087
0.0001303
4.299e-05
0.01628
0.0001345
0.004679
0.01063
0.01259
0.008202
9.514e-05
0.0178
9.072e-06
5.079e-05
0.007694
0.0108
1.85e-05
0.009056
0.002479
0.0005302
0.0001576
0.0001648
0.0001244
1.119e-07
0.0001666
0.003764
0.0001477
0.01871
0.0001484
3.853e-05
0.027
1.2e-07
0.001692
0.0001536
0.0001005
1.681e-08
6.259e-06
0.01376
4.979e-05
1.117e-05
1.431e-05
0.0005725
0.01595
5.975e-05
1.144e-07
0.003677
0.007327
0.0001686
0.0001614
0.0001457
0.02567
3.244e-05
0.0001518
0.002931
0.02474
0.0001554
4.47e-05
0.0001313
0.03591
0.000167
0.02999
1.906e-05
0.000165
0.0001741
0.02781
0.0001511
7.601e-05
7.766e-05
8.239e-07
0.0004218
0.0002487
0.0001431
0.009581
0.001366
6.49e-05
4.556e-05
5.874e-05
0.03268
0.01037
0.0001455
2.905e-05
3.718e-05
0.0001798
0.0002007
0.02563
5.366e-05
1.016e-05
4.142e-05
0.0002024
0.0002434
0.0001563
6.343e-05
0.04843
0.0001549
4.806e-07
0.0001786
0.02758
0.0001457
0.0001473
0.0001962
0.0001467
0.0005959
0.0001014
0.05313
0.02386
1.018e-05
5.251e-05
0.003592
0.0001053
0.003667
0.02305
1.093e-07
0.01115
0.004506
0.005108
2.769e-07
0.02098
1.438e-05
3.945e-07
0.0001476
0.0001972
1.172e-05
0.0001556
0.01821
0.0001804
0.000207
0.0001074
0.01192
0.01045
0.0001496
0.03873
0.0001478
0.0001673
0.01816
0.005389
0.008669
0.01923
1.291e-07
0.01548
0.0001469
0.002116
0.008272
0.05563
5.268e-05
0.009724
0.0002487
1.133e-05
8.202e-06
1.611e-07
0.001959
4.314e-05
0.002623
0.004803
0.002521
0.0001522
2.072e-07
0.00267
4.526e-05
0.0001638
0.0001443
0.004657
0.001585
0.0168
0.0001577
1.443e-07
0.000404
0.0001188
0.0726
0.01107
2.3e-05
0.000145
0.0005327
0.02419
0.0001519
0.0001413
2.193e-05
0.0001455
0.002806
0.01698
0.0001651
8.885e-07
0.0001797
0.009211
1.628e-08
0.008406
3.672e-05
0.0001316
0.0001306
4.489e-05
0.04467
0.0001774
0.0003589
5.109e-05
0.0001438
4.713e-05
7.461e-06
0.01784
0.0001458
0.000147
0.01716
0.06155
4.646e-05
8.199e-10
1.785e-05
0.0001524
1.747e-05
2.119e-06
0.0001551
1.477e-05
4.012e-05
0.0002635
0.0001693
9.086e-05
0.07251
0.01502
0.0001303
0.0001284
0.0001287
0.0001264
0.0001593
0.02138
0.0001241
3.482e-05
0.0001392
0.005159
0.01265
0.0001377
0.000127
0.005935
0.009662
0.0007916
0.0003375
0.0003722
0.01281
4.832e-05
2.631e-05
0.01882
5.155e-05
0.0001652
4.461e-05
1.357e-08
4.646e-05
7.732e-07
0.0001536
0.0001496
0.0001455
2.532e-07
0.005216
2.777e-05
0.0001291
0.0001508
1.11e-07
0.0001459
0.008413
0.0005915
0.0001714
0.006934
0.005124
0.01919
0.01011
3.759e-05
0.0001517
0.0003511
0.0001369
0.0001708
0.0009618
0.002029
0.01575
0.0001648
0.0001438
0.0001458
0.0001599
0.005832
0.0002027
0.0001701
0.0167
0.00439
0.0001632
3.238e-05
2.598e-05
0.04087
0.02338
0.02311
0.006114
0.0001621
1.831e-08
0.0001531
0.0001455
7.621e-07
0.0001455
0.0001451
0.0002914
0.0002582
9.884e-06
0.01448
7.679e-06
0.01097
2.685e-05
0.0001464
0.0001584
0.005174
3.378e-05
0.02089
0.0001854
0.0001583
2.255e-06
2.676e-05
0.0001483
4.147e-06
2.489e-05
2.661e-09
0.0001939
0.04006
0.03063
0.0001555
0.000149
0.0423
0.0001737
1.404e-06
0.0001517
1.282e-05
6.96e-08
0.0001456
2.195e-05
0.0001149
5.22e-05
0.0001458
9.815e-06
2.514e-07
9.512e-09
3.285e-08
0.0001676
0.04181
3.923e-08
0.0001579
0.00455
0.000144
0.01698
0.0001391
0.03546
0.001012
3.133e-08
0.0002014
0.01494
0.0001509
0.0001492
0.0001526
2.693e-05
0.0003095
0.04796
0.0001412
0.007763
0.0001667
0.01876
0.01876
0.004268
0.006881
0.0001456
0.01882
0.01644
3.38e-05
0.0007842
0.0001316
2.609e-05
0.0002732
3.913e-07
1.19e-07
1.987e-10
2.024e-05
0.0001545
2.34e-05
0.0001491
7.674e-06
1.262e-05
0.0001457
2.98e-08
0.0001489
0.002202
1.109e-05
4.129e-06
0.01423
0.0002251
0.001577
0.0001265
0.0001302
1.645e-08
0.02533
0.0001611
0.01958
0.009154
1.487e-07
1.479e-07
2.039e-07
0.02158
2.301e-05
0.0001039
0.0196
0.0001523
4.593e-05
4.199e-06
0.0001392
0.007256
4.953e-05
0.01049
5.002e-05
0.01543
0.04004
8.14e-07
4.064e-05
5.511e-05
2.058e-07
0.0001817
1.747e-06
0.0001531
6.595e-05
0.002668
0.0001483
0.0001564
7.088e-05
0.0008149
0.002541
4.246e-07
0.0001565
0.0001457
0.0001444
3.158e-05
1.605e-05
0.01202
0.03262
0.0001261
0.0001516
5.424e-06
0.0001264
0.0009216
2.997e-05
0.0001547
0.003772
0.01407
2.78e-07
3.188e-07
2.095e-08
0.0001508
1.743e-05
0.006364
0.005348
0.04506
0.02807
3.645e-06
0.01731
9.822e-06
2.95e-05
3.953e-05
5.367e-05
0.0001734
1.23e-07
0.02221
5.007e-05
0.01749
0.0001579
6.003e-05
0.0001935
0.0001462
9.556e-05
0.0002569
0.005933
0.0001291
5.478e-05
2.795e-07
8.754e-09
0.02622
2.335e-07
0.0005889
0.0004464
0.0001506
0.0001553
0.0001543
0.0001489
0.0001056
3.044e-07
0.0009961
2.076e-05
0.07638
0.03455
7.795e-05
0.005618
0.01786
0.0008163
0.02274
3.234e-06
0.004547
0.0001354
0.006984
5.162e-05
0.0001477
0.0001563
4.51e-06
0.0001463
0.002629
0.002503
3.077e-05
0.0001569
1.504e-06
0.0002311
0.05556
0.000151
1.531e-05
0.00039
2.784e-05
5.729e-05
0.0001433
4.541e-05
0.0001444
0.0001693
0.002438
0.06258
2.653e-08
0.002887
1.316e-05
0.03503
7.159e-06
0.0001605
0.0004629
0.01185
0.0009166
0.000139
0.0001588
0.0001463
1.508e-05
0.0001291
0.0001827
0.006432
0.0001432
0.0005092
2.804e-05
0.005597
0.000136
0.002579
0.0005086
0.0001481
0.05314
0.0001603
0.0001731
0.00283
6.732e-05
0.0001567
0.0001695
0.0001578
0.0002105
0.006302
0.0001371
0.0001353
0.0001472
0.0001545
0.0001525
0.001125
0.0006016
0.000146
3.52e-05
0.000195
4.242e-05
0.0001469
0.0001292
0.0001527
4.001e-06
0.0002469
1.976e-08
0.0437
2.864e-06
0.0001492
0.0001597
5.343e-07
0.0001507
4.494e-05
4.832e-05
4.663e-05
0.001516
0.007296
0.000146
5.043e-05
0.001819
0.01787
0.007147
0.01594
0.0001254
0.01045
7.328e-05
4.956e-05
0.0001439
0.01678
7.337e-05
7.244e-06
0.0001522
0.0001481
0.0009167
0.0002838
0.01252
0.01565
0.000111
6.375e-05
0.0001544
6.397e-05
0.005856
0.02375
0.01064
0.06404
0.0001354
0.0001827
2.785e-08
0.04257
0.01096
1.923e-05
0.0001681
0.0001632
0.000145
0.0001503
0.0001613
0.0001573
4.752e-07
0.00364
0.000147
0.0001478
4.924e-05
2.149e-09
0.0001469
0.01288
3.003e-05
4.268e-05
0.0001716
0.004711
6.157e-05
0.008059
0.0001866
1.189e-05
2.252e-06
0.0001399
0.0001463
0.006964
0.03491
0.004373
0.0001429
0.0001709
0.002387
0.01639
0.001509
7.501e-08
3.283e-06
0.0688
0.0004637
1.896e-06
0.03221
4.411e-05
0.0128
0.0001723
0.0001693
5.031e-06
1.421e-07
0.0001443
0.001839
5.436e-05
0.0001469
3.243e-05
0.01426
0.0001686
0.0001561
0.02428
1.238e-05
0.001585
0.0001535
0.0001457
0.0001459
0.0624
0.01078
0.0001343
0.02747
0.0001492
1.271e-05
0.03196
0.01507
2.944e-05
3.356e-06
0.06293
0.01711
0.000143
4.767e-07
0.0001754
7.008e-05
2.043e-05
0.000155
0.0001563
0.03113
0.003345
3.248e-08
0.03331
8.894e-07
0.0001385
0.000142
0.009429
0.0001521
0.000143
3.197e-08
4.71e-05
4.243e-05
6.636e-05
0.04332
0.009747
0.0001351
2.54e-08
0.0001564
7.169e-05
0.0001352
0.000153
0.01504
0.00987
0.008176
0.02452
0.02783
0.001557
0.0001362
0.008644
0.000166
5.273e-05
1.446e-05
0.0001616
0.01727
9.567e-05
0.0001471
0.002601
0.001447
0.0003425
0.0001548
0.01502
8.295e-07
0.0001302
0.0001438
7.997e-05
0.0003819
0.02366
2.333e-05
0.0001478
0.0001771
0.003789
5.451e-05
0.000148
0.0001538
8.133e-06
5.155e-05
8.57e-05
0.01254
0.0002045
0.0001368
2.247e-05
0.0001397
0.0005107
2.762e-08
0.0001602
0.008998
0.01982
0.000502
7.731e-06
0.001861
0.0001531
0.0001363
0.01213
0.0001591
0.0001448
0.001871
0.0001191
0.03136
0.0001365
0.0001559
0.0001558
0.0001496
6.997e-05
0.005852
0.0001456
0.0001205
7.452e-05
0.002123
0.0001506
0.0001467
0.0001448
0.0001584
0.04922
0.0598
1.597e-05
2.701e-08
1.882e-07
7.339e-05
1.42e-06
2.17e-06
0.0001481
5.105e-08
0.01005
0.0001167
0.0283
0.0001564
0.0002619
0.0001778
0.0005768
5.846e-06
0.001056
0.000158
0.01096
5.339e-05
5.15e-05
0.0002064
0.0001651
0.006832
0.0001556
3.989e-05
0.0001459
0.01081
0.0001434
0.007848
0.0001535
0.0006139
2.17e-07
3.344e-05
0.0001373
1.07e-05
0.01034
0.0001331
0.0001894
0.000146
0.0002093
0.007229
0.0003093
0.001306
0.0001083
0.0001495
0.000171
0.03554
4.81e-07
0.0001472
0.0001534
1.905e-07
0.0001418
0.0001443
3.11e-06
0.01182
0.0001532
0.0001532
0.05043
4.227e-05
3.907e-08
1.63e-05
0.008737
0.02826
0.006142
0.0001557
0.0001451
0.0001546
5.421e-05
4.44e-05
0.005471
0.0001479
3.432e-07
4.275e-05
5.872e-05
0.0115
0.008407
0.008115
0.0001343
0.0001565
0.0006993
0.002723
0.0001512
4.159e-05
1.487e-05
0.03581
0.0001646
0.0001759
0.02235
0.0001511
0.02649
6.428e-05
0.04172
0.0001359
0.0001477
0.0001863
0.0003822
0.01093
0.0001601
0.0001491
0.0001496
0.006406
1.18e-09
0.03372
0.0001631
0.0004413
0.0001416
0.0001407
7.312e-05
2.734e-06
8.52e-05
0.003335
2.091e-05
1.4e-05
0.02263
0.0001593
0.009353
2.716e-05
6.522e-07
0.01635
0.0001523
4.258e-06
0.0001686
6.482e-06
9.951e-05
0.02306
0.02024
3.988e-05
0.0001459
0.008015
0.0001679
0.0001448
0.002028
4.067e-06
0.00289
4.744e-08
1.653e-05
0.002081
0.0001449
0.02699
0.003241
0.0001604
0.01742
0.01404
0.0007554
0.002375
0.0001047
0.0001465
0.004823
0.0001382
0.0001492
0.002455
0.0002073
0.0001619
2.829e-05
2.744e-08
0.0001422
0.0001455
9.08e-05
7.812e-05
5.918e-06
0.0001653
0.007385
1.185e-05
0.04581
0.01944
0.000146
0.0001634
5.073e-06
0.0001523
0.01152
0.0001442
9.118e-05
0.0001523
0.01737
2.114e-05
0.004457
0.0006251
8.031e-05
0.04676
0.0001504
0.0008216
0.005682
0.0004947
0.0001437
0.0001492
2.12e-05
9.71e-05
9.275e-05
0.03776
0.005514
0.04786
4.11e-05
0.0001168
0.0001282
0.0001532
0.0001628
8.575e-09
2.399e-05
0.0001437
0.0001426
1.826e-05
5.205e-05
0.0006715
0.0005932
7.758e-08
0.0001768
0.02194
4.87e-05
5.45e-05
1.332e-05
2.151e-06
0.07452
0.0001982
0.04515
0.0001504
4.326e-09
0.0001474
0.02438
1.964e-05
7.485e-05
0.01952
9.586e-05
0.009876
6.559e-06
0.01731
0.0002628
0.04019
0.0001413
0.001591
8.583e-09
0.01278
6.745e-07
1.967e-07
0.0001456
6.69e-07
0.0002198
7.436e-06
0.0001044
0.02073
0.07656
0.00485
4.537e-05
0.000133
0.0001509
0.02231
0.01516
0.01386
0.01806
0.006057
0.0001581
0.0001615
0.06665
4.817e-07
0.01105
6.023e-05
4.593e-05
1.759e-05
0.0001348
0.0007537
0.006302
5.962e-05
0.01934
1.291e-07
0.002066
4.349e-05
0.000155
4.772e-05
0.0001538
0.0163
0.01081
0.0001589
0.0001681
0.01157
9.497e-05
0.01197
0.002927
8.736e-05
3.606e-05
0.01136
1.252e-07
0.0001049
1.052e-06
0.0001507
0.05502
0.005278
0.02836
0.0001533
0.0001172
0.0001455
0.0001472
0.0001455
0.009511
4.335e-05
0.005263
0.02515
0.0001518
0.01268
0.0001513
1.493e-07
3.128e-06
5.347e-07
4.553e-05
0.0001543
1.222e-05
8.35e-05
0.0001584
0.0002026
0.0001464
0.0298
0.03065
0.001838
0.06769
0.0001422
0.0001431
0.005001
0.02424
0.000152
2.153e-08
4.088e-05
0.0001398
0.0001459
4.828e-05
0.0001517
2.243e-05
4.231e-07
0.0001552
0.0001745
0.001473
0.0001719
0.001223
3.271e-08
0.0001905
0.0001622
5.557e-05
3.33e-05
0.0001541
0.002164
0.0001487
0.0001657
1.231e-05
0.004349
2.724e-08
0.000151
8.623e-05
0.001052
2.512e-05
0.0001462
0.01055
0.0001457
0.03082
0.06905
0.0001341
0.02154
4.595e-05
0.0002224
0.0001611
7.242e-06
6.94e-05
0.0004039
1.304e-05
1.25e-05
0.006815
0.01791
4.911e-05
0.00257
0.01646
3.42e-05
0.0001387
6.824e-07
1.343e-07
5.483e-06
5.623e-05
0.0001586
5.145e-06
2.859e-05
0.0001615
0.0002057
5.602e-06
0.004811
0.0001613
0.0001347
0.0001876
2.906e-05
0.0001211
0.05891
0.0001009
0.05536
0.0001419
5.044e-05
5.703e-05
0.0001831
2.164e-05
1.043e-09
0.0003779
0.008914
0.0001269
0.01103
0.004512
2.069e-05
0.008789
0.02911
0.02443
3.877e-06
0.01241
0.0001601
0.01045
1.728e-05
0.0001525
0.03712
0.000153
0.04657
4.364e-07
0.00133
0.0001476
0.0001697
0.03561
1.406e-07
0.001192
0.0001434
0.0001573
1.317e-05
0.0001524
0.009933
1.201e-05
0.0004561
0.02527
0.0001451
0.0001626
0.01984
0.01462
0.0001622
2.34e-05
0.0001384
1.822e-05
0.01348
0.001609
0.008564
0.009828
0.00932
2.664e-05
0.0001906
0.000153
5.119e-05
0.000146
1.87e-08
0.0001508
0.000134
0.007234
0.000146