/*--------------------------------*- C++ -*----------------------------------*\
  =========                 |
  \\      /  F ield         | OpenFOAM: The Open Source CFD Toolbox
   \\    /   O peration     | Website:  https://openfoam.org
    \\  /    A nd           | Version:  8
     \\/     M anipulation  |
\*---------------------------------------------------------------------------*/
FoamFile
{
    version     2.0;
    format      ascii;
    class       volScalarField;
    location    "35";
    object      nut;
}
// * * * * * * * * * * * * * * * * * * * * * * * * * * * * * * * * * * * * * //

dimensions      [0 2 -1 0 0 0 0];

internalField   nonuniform List<scalar> 
127143
(
6.521e-21
1.021e-20
1.733e-19
2.095e-18
6.747e-18
2.192e-18
8.158e-16
7.157e-17
2.216e-17
1.969e-15
1.182e-15
9.456e-17
9.317e-19
4.297e-18
4.428e-07
5.988e-14
5.239e-18
0.004927
0.00363
1.353e-12
0.0007081
2.388e-11
7.017e-05
1.191e-07
1.994e-11
1.149e-09
2.075e-10
2.482e-10
2.687e-10
0.004621
5.797e-08
1.098e-09
2.583e-11
7.214e-08
5.02e-05
2.302e-11
0.0001956
0.001019
1.943e-07
8.57e-10
0.003633
4.71e-06
5.022e-06
4.92e-17
0.004949
8.31e-08
2.711e-10
0.0008916
9.821e-08
1.541e-07
2.18e-13
0.0004646
0.0004302
3.016e-05
0.006673
3.073e-08
0.006672
0.0001015
0.004868
2.848e-05
4e-06
0.002483
7.165e-07
0.006702
1.286e-06
2.279e-05
5.152e-05
5.949e-07
5.976e-07
0.0025
8.311e-08
6.388e-10
0.002484
0.004236
0.006694
7.203e-10
0.0006723
0.0002879
3.095e-08
0.006705
2.579e-10
1.544e-12
1.304e-06
2.768e-09
0.001753
0.0004007
2.82e-07
2.709e-10
2.337e-05
1.796e-07
0.006651
0.000673
5.708e-07
0.0007199
0.0001172
0.0001177
5.219e-06
2.097e-08
0.0006508
4.433e-05
0.006705
1.119e-07
1.7e-08
3.365e-05
0.00044
0.0006084
5.353e-07
0.002501
9.077e-06
0.006681
6.855e-07
2.055e-10
0.000353
7.328e-07
0.005979
8.761e-05
0.0005058
0.006694
0.0007384
5.138e-13
0.006681
1.778e-06
3.979e-06
0.0001206
3.027e-10
2.302e-10
0.001712
0.0007968
0.0001312
2.449e-08
0.0001206
8.433e-05
1.564e-06
0.0003025
1.515e-15
0.0001327
0.0001628
0.001026
1.083e-09
0.0001261
5.38e-05
0.0008672
0.0007645
0.001274
0.0004375
2.998e-06
3.143e-10
0.006702
7.33e-05
6.972e-09
1.299e-05
1.39e-07
0.0009507
2.867e-05
2.62e-06
0.001798
8.008e-05
1.96e-08
0.0009244
9.832e-09
1.31e-07
9.042e-14
0.006648
0.0001224
2.164e-09
2.456e-06
0.0001153
8.66e-06
1.364e-08
0.000174
1.81e-06
0.001278
7.519e-05
8.811e-06
0.002218
0.0004488
4.255e-06
0.0001329
1.424e-07
0.001952
8.866e-06
0.0009766
0.0005028
0.0004621
2.58e-08
0.002555
1.282e-05
7.978e-07
1.279e-07
0.0007334
0.0003711
0.0001231
0.0001822
6.768e-07
4.289e-16
0.001709
0.006662
0.00664
2.108e-14
0.002427
0.0067
0.0001898
0.001236
0.0002397
5.117e-17
4.433e-07
0.0001329
7.125e-06
0.003946
0.006212
0.0002948
0.001356
0.006694
1.605e-08
3.596e-05
7.944e-15
6.947e-08
6.997e-06
0.0002116
0.0001312
3.646e-06
0.006695
1.262e-07
0.0004403
7.969e-09
1.085e-06
6.589e-09
0.0008596
9.169e-06
0.001135
0.0006348
0.001179
0.002626
8.509e-12
0.0006489
0.0001123
0.0001221
1.491e-18
0.005203
0.000488
0.0001378
4.343e-06
0.0006858
2.002e-08
0.0004787
7.664e-13
2.923e-07
2.713e-10
4.413e-13
0.002527
7.149e-06
1.705e-09
5.47e-06
0.0009834
6.669e-08
7.546e-06
0.0009669
2.349e-08
3.553e-05
1.478e-05
0.001664
0.001164
0.000513
0.000837
0.0003288
2.789e-06
6.611e-06
2.365e-06
5.233e-06
0.000208
5.305e-09
0.002215
0.001269
0.0004784
1.323e-06
0.0003898
0.000366
1.694e-07
0.002213
2.703e-05
0.003177
0.0001175
3.439e-05
0.006692
0.006696
4.133e-16
0.0001107
0.006048
1.491e-07
0.002038
0.0008133
4.825e-05
0.0001134
4.863e-05
0.006702
7.661e-06
5.438e-08
9.317e-05
0.0006829
0.0001893
1.683e-08
3.486e-05
1.409e-05
0.0001071
5.405e-09
4.126e-06
7.188e-06
0.006696
0.002687
4.515e-06
4.498e-07
5.618e-06
1.934e-08
0.003593
0.006694
2.411e-07
0.001026
1.684e-08
0.000105
0.002532
8.809e-05
8.397e-08
0.0003321
5.429e-06
2.14e-07
0.0006471
0.0001061
9.756e-05
9.429e-08
3.034e-06
0.001747
0.005848
5.52e-05
0.006662
0.00664
3.14e-05
9.263e-06
7.552e-05
0.001743
7.927e-05
0.0001447
6.978e-06
0.0004838
0.0004088
1.082e-06
1.481e-07
8.707e-06
0.0002446
1.999e-08
8.303e-05
3.062e-08
0.003768
0.0003749
0.0003959
0.0001249
1.181e-05
0.0009684
3.326e-06
0.006259
9.386e-08
0.001713
8.742e-07
0.003298
2.13e-07
1.755e-07
0.006697
0.002754
0.002388
1.724e-06
0.002207
2.477e-06
0.0003082
4.916e-09
1.396e-07
0.0008952
7.405e-05
6.712e-08
4.026e-11
0.0007803
0.002228
0.002126
4.186e-10
3.733e-08
2.833e-05
0.0005607
7.712e-12
3.889e-05
1.222e-09
0.001627
0.001471
0.006086
1.358e-05
4.478e-06
7.555e-08
1.433e-07
5.124e-08
1.387e-05
7.882e-08
0.0001202
0.0008886
2.246e-09
0.006695
0.0007459
0.000537
3.8e-05
7.229e-06
0.0005254
1.752e-06
0.006705
1.591e-07
1.04e-05
1.794e-08
4.823e-05
0.001059
6.534e-06
0.0001252
0.0004511
4.421e-09
0.0005754
3.212e-07
0.0001283
2.26e-09
2.284e-05
0.002841
0.001084
1.215e-05
4.87e-06
3.969e-05
6.737e-06
0.0001019
0.006678
2.199e-05
0.0003122
0.0008016
0.0001593
0.006697
5.664e-06
1.402e-05
0.0004854
0.006702
0.006691
2.142e-07
0.0001227
8.347e-06
0.000299
2.341e-08
0.005136
1.142e-06
0.002423
0.001359
0.0007256
5.227e-08
9.19e-06
1.135e-06
3.493e-05
0.0003162
1.322e-08
1.007e-05
0.0003796
0.0006054
2.127e-06
0.0002731
0.001853
7.877e-07
0.0002594
0.002296
0.001225
0.0006853
4.284e-06
0.006668
0.0009281
0.0003287
0.0001055
0.0009517
0.0001503
0.006645
2.125e-06
0.0002776
3.222e-06
0.000497
3.16e-10
1.534e-06
2.729e-05
1.986e-08
8.598e-06
0.0001613
0.000517
0.006695
1.997e-08
0.0008124
6.65e-07
3.22e-07
0.0003686
2.49e-06
1.579e-15
8.931e-05
1.227e-06
0.0001064
1.46e-06
0.00669
2.646e-10
0.001233
0.0004711
0.001783
5.567e-18
2.911e-14
1.102e-13
0.006697
1.244e-05
4.407e-05
0.006694
0.001953
2.119e-06
0.0001239
2.961e-05
0.0006858
5.155e-08
0.0009422
4.816e-09
0.002364
0.001121
2.383e-12
1.906e-07
2.046e-08
3.026e-06
0.005077
1.471e-05
0.001106
0.001912
0.006624
1.371e-08
2.344e-09
3.834e-06
0.006644
0.0006789
0.0001291
5.902e-07
8.13e-06
4.393e-09
0.002304
0.0008095
1.67e-05
1.553e-05
0.006669
3.644e-05
0.0007101
7.096e-08
2.201e-07
3.645e-06
5.665e-07
0.001681
0.0002461
5.675e-07
0.0001522
2.452e-05
0.002867
2.137e-09
0.0001876
1.26e-08
1.237e-06
0.0007671
0.006702
0.006701
1.603e-05
8.04e-06
1.286e-06
0.006299
0.004814
1.271e-05
5.546e-08
0.0005172
1.094e-05
3.237e-07
3.594e-09
4.988e-05
0.0009838
0.006682
2.938e-06
0.0007188
1.627e-06
0.004925
8.684e-10
2.031e-06
4.748e-05
0.002225
4.093e-09
0.005797
0.0005837
0.000655
0.001961
0.005031
6.419e-06
0.001669
4.689e-12
0.006645
5.964e-07
8.079e-08
0.006691
7.265e-06
0.00439
3.029e-07
0.0006718
0.006692
2.659e-06
6.223e-08
1.277e-05
0.0001897
0.0008108
3.229e-08
3.871e-08
1.365e-06
2.408e-07
8.943e-07
2.417e-07
0.0002815
0.0003597
9.723e-09
0.005534
2.947e-08
0.006692
1.144e-06
0.0007044
0.0007829
0.006677
0.004537
7.836e-05
3.315e-07
0.0004235
0.006473
0.006677
1.247e-05
1.667e-09
3.281e-06
2.611e-08
0.002427
9.182e-06
0.0007387
9.867e-06
0.0004201
9.621e-06
7.46e-07
0.006472
2.544e-05
0.0004733
0.0001034
0.0004784
0.00663
0.004816
0.0006693
2.081e-09
0.0005209
1.467e-09
0.0006642
0.003736
7.666e-05
2.346e-05
0.000185
1.779e-06
0.0001003
0.0009752
2.81e-06
3.541e-05
0.000488
2.341e-05
1.309e-16
1.565e-06
0.0003979
0.0003109
0.0001152
9.166e-05
6.21e-09
2.046e-05
0.0004144
0.0001623
9.986e-05
0.0007811
0.006679
1.829e-07
1.862e-05
4.576e-06
0.006643
0.006678
2.945e-10
0.0001034
4.581e-08
0.0001342
2.281e-06
0.002677
1.945e-05
1.413e-08
9.889e-06
7.827e-08
0.006694
0.006668
7.016e-06
1.308e-05
2.63e-06
4.969e-06
5.815e-09
0.002389
1.137e-07
0.0001075
0.002654
0.003933
3.096e-08
0.0001653
5.752e-08
1.35e-15
2.329e-06
0.0003731
0.0008429
0.004831
8.053e-07
1.809e-07
1.072e-09
0.004082
0.001653
0.0004232
1.024e-08
0.0004357
3.064e-07
0.003322
1.059e-07
5.945e-07
4.576e-06
0.001765
6.024e-05
2.626e-20
2.225e-05
0.0001644
5.7e-07
2.839e-06
3.181e-07
0.006688
0.000297
0.003771
0.0005321
0.003559
1.132e-09
2.713e-05
4.269e-09
0.003506
1.565e-05
0.0002516
1.934e-05
7.124e-05
0.003959
0.0008134
6.066e-06
2.394e-06
0.0009224
0.002151
0.000483
1.151e-06
0.002877
6.967e-06
5.737e-05
0.0001051
9.158e-05
3.667e-05
2.312e-06
1.07e-09
1.097e-05
0.006614
0.0008018
0.002497
1.568e-09
2.004e-08
3.007e-05
0.002014
7.205e-07
0.006626
0.0001372
2.937e-06
0.0005141
2.347e-11
0.0005108
4.37e-06
0.0004553
0.0008208
6.129e-05
0.006697
3.193e-17
0.0001399
0.0002166
3.96e-07
0.0005221
2.03e-05
4.609e-05
1.094e-07
0.006682
0.003886
3.357e-05
0.003788
2.517e-05
6.735e-07
5.109e-07
3.799e-06
0.006661
0.0007962
0.0003904
0.006694
0.006657
0.000497
0.002431
0.002423
2.634e-05
0.0005993
2.842e-13
1.901e-05
8.349e-06
0.006679
0.0003586
0.0001528
6.829e-08
9.526e-09
8.456e-06
0.003445
0.005262
0.00112
4.455e-10
0.00668
9.133e-05
8.13e-09
8.619e-07
8.406e-10
0.005785
0.0009326
7.449e-07
0.006694
2.052e-08
0.00668
1.936e-06
3.018e-09
4.586e-05
0.0004543
2.681e-10
0.006678
3.245e-06
2.001e-05
1.51e-08
3.898e-05
6.897e-09
7.371e-09
3.152e-05
6.854e-05
1.207e-05
7.906e-13
0.006693
0.001123
4.217e-08
1.334e-07
9.238e-05
3.974e-11
0.003513
0.0001932
2.832e-06
7.45e-10
9.658e-11
1.067e-05
1.645e-14
1.662e-06
1.016e-13
8.516e-05
5.906e-07
0.00389
2.288e-11
0.0006895
3.582e-07
0.004903
0.005106
0.0007268
0.0003801
0.0001979
0.002738
7.289e-07
9.976e-05
0.0003499
1.433e-07
5.155e-07
0.005284
0.00352
0.0001959
0.0004068
2.095e-06
8.729e-12
0.0005838
9.8e-06
6.177e-07
0.001462
1.133e-05
0.006689
0.0003753
5.861e-08
0.006303
3.491e-06
0.0001865
0.002624
0.006665
0.002527
0.003052
3.98e-14
1.798e-05
7.844e-12
0.00098
9.794e-06
7.746e-07
3.343e-08
1.369e-05
0.005603
1.613e-09
9.309e-06
0.005405
9.442e-06
1.106e-11
0.001916
1.548e-06
1.135e-05
7.026e-05
7.312e-09
4.955e-14
9.644e-08
0.0007438
0.006694
8.767e-06
8.185e-06
6.793e-05
3.87e-06
6.389e-07
2.555e-09
4.525e-05
3.984e-05
2.4e-09
0.0001174
8.931e-09
0.006689
0.000823
3.828e-06
0.0009696
2.54e-05
0.0007099
0.006692
0.002083
7.809e-07
4.255e-05
5.241e-05
7.661e-08
6.464e-06
0.001549
0.000537
5.632e-05
3.129e-05
1.392e-12
0.0005196
3.863e-08
1.916e-06
8.308e-06
0.00162
6.539e-07
2.461e-05
9.711e-07
9.34e-11
0.0006643
0.006688
0.006685
0.001003
0.0005447
9.501e-05
0.006705
7.861e-06
0.0007263
7.032e-05
8.701e-06
0.0007262
5.942e-06
2.635e-06
0.006705
7.484e-05
5.574e-05
1.835e-10
5.513e-09
0.0002574
1.121e-05
0.001313
2.473e-06
1.328e-07
2.333e-06
0.002651
6.001e-06
2.828e-07
0.0001163
1.689e-09
0.006371
1.14e-09
2.745e-08
0.002565
0.000224
3.876e-07
0.003727
1.17e-10
1.464e-12
0.006291
0.00669
0.0003202
0.0005044
4.007e-12
8.609e-05
3.779e-07
9.265e-08
3.321e-06
8.12e-05
0.0001157
0.006572
2.195e-06
0.001399
1.091e-05
6.807e-05
2.929e-07
0.0003028
0.005413
2.563e-12
0.0001329
0.006691
3.08e-05
0.005679
0.006687
4.06e-06
8.087e-05
9.122e-11
0.006687
2.277e-08
0.006694
5.497e-07
9.546e-05
0.003699
1.948e-05
2.933e-08
5.84e-08
2.008e-06
1.396e-06
0.003543
0.0008203
0.0009719
1.66e-07
2.027e-05
4.495e-06
1.43e-10
1.864e-06
3.259e-11
0.000161
6.783e-08
1.806e-06
7.811e-08
9.463e-10
5.532e-06
0.003829
0.004033
9.41e-06
0.000176
5.543e-09
0.002764
2.765e-07
0.00135
5.193e-07
7.341e-07
0.0003389
0.0001449
7.714e-07
0.002123
5.198e-07
6.239e-05
1.935e-08
3.646e-05
0.006539
3.198e-06
8.856e-06
0.006693
2.966e-05
2.619e-06
0.006683
5.075e-05
6.573e-05
0.0003822
5.49e-06
0.001413
0.0001569
0.0001088
0.006678
3.043e-05
1.752e-05
0.006706
7.346e-06
0.0001298
0.0007388
1.464e-05
1.597e-05
0.0003639
3.138e-06
1.48e-10
3.011e-08
9.468e-08
0.001303
2.165e-11
0.002601
2.289e-07
0.006693
0.0003129
6.042e-06
6.179e-05
7.282e-07
3.653e-06
1.196e-08
0.006698
5.852e-13
2.99e-07
6.43e-07
9.017e-07
2.634e-08
0.002094
0.004032
4.379e-09
6.496e-07
6.211e-05
5.913e-16
0.0003636
1.562e-07
1.172e-08
1.748e-07
1.992e-06
0.0002024
4.034e-08
4.996e-07
7.816e-05
0.0004577
5.296e-08
9.28e-08
0.002041
1.128e-11
0.0001017
4.079e-07
0.0001276
2.397e-08
0.006654
0.00669
0.0009054
1.032e-11
0.0007212
0.00191
8.09e-11
1.739e-06
0.006693
1.464e-09
3.796e-07
0.0005236
6.733e-11
2.942e-05
0.0001454
1.058e-15
0.003267
7.004e-09
0.001393
5.628e-07
3.046e-08
7.54e-08
8.935e-09
9.673e-06
2.222e-05
0.0001239
0.00304
0.0002044
4.855e-05
2.397e-05
4.915e-07
0.002224
1.189e-08
0.001124
8.711e-05
0.001687
4.408e-06
2.192e-05
1.056e-05
1.121e-11
5.116e-05
1.85e-09
1.161e-07
8.029e-05
0.0001627
0.006694
0.001815
0.0002885
2.292e-05
6.344e-08
1.25e-08
5.836e-09
0.006681
5.275e-08
2.199e-06
0.0003852
3.428e-12
0.0002187
0.003395
4.079e-06
0.002118
2.81e-06
0.0001025
1.776e-10
6.843e-05
0.0008033
0.001127
0.006698
5.883e-13
5.227e-12
0.0003057
7.599e-05
2.94e-05
0.006488
0.006654
2.407e-05
0.001056
0.003373
6.115e-05
0.00306
0.002969
1.635e-06
0.0003687
0.002524
1.982e-05
1.209e-07
2.12e-12
3.258e-05
5.296e-09
0.0001131
1.459e-05
0.006656
6.083e-08
0.001431
1.293e-06
1.063e-12
0.0006679
0.002427
7.288e-05
8.833e-07
0.0005709
6.884e-13
0.002506
0.0002444
0.001992
0.00232
3.149e-05
1.273e-07
3.818e-13
4.767e-05
6.385e-06
0.006675
1.27e-07
8.976e-08
0.00667
8.355e-08
2.304e-06
0.0001577
4.762e-08
0.006683
2.362e-05
1.499e-14
0.003719
2.083e-07
2.118e-06
5.068e-07
1.655e-09
5.959e-05
3.381e-05
9.441e-06
1.917e-09
0.0001304
4.806e-05
1.747e-05
7.649e-07
1.479e-08
3.811e-09
1.542e-05
0.0001389
0.006691
5.871e-05
0.003407
1.494e-08
1.231e-06
0.002472
0.0001231
0.006682
8.064e-05
1.789e-05
0.006609
0.002408
0.006176
8.03e-09
0.002377
1.8e-11
4.132e-05
0.0004811
2.577e-07
0.0004116
2.724e-07
6.912e-08
5.052e-14
0.0001307
3.049e-05
0.0005886
0.0006231
0.001305
0.006702
0.0002615
0.001086
0.001485
0.006699
0.001948
0.006685
2.321e-05
0.0001118
0.006682
0.006688
5.886e-05
6.016e-05
6.05e-07
7.852e-05
0.006698
1.088e-05
0.0003661
6.046e-05
6.346e-14
2.214e-08
1.565e-11
1.908e-07
1.562e-06
8.154e-08
1.899e-07
0.0004496
0.0003555
5.588e-10
0.0009325
3.355e-07
4.272e-06
0.0002876
0.0003543
0.003626
0.006687
4.987e-14
0.000219
1.289e-09
0.006693
1.396e-12
3.998e-07
6.905e-08
0.00011
0.006639
0.006638
0.001365
0.00215
0.002086
0.002046
7.407e-07
5.965e-05
4.769e-06
0.002511
4.378e-05
3.927e-09
1.468e-06
0.0001209
0.0005638
3.072e-05
1.203e-06
1.27e-06
7.136e-07
7.452e-08
0.0009107
0.002205
0.0001948
0.0001172
4.319e-11
0.0004994
0.0004043
1.219e-06
0.002242
2.697e-07
0.0003406
4.275e-07
0.003462
0.006692
0.0006962
5.475e-06
8.29e-13
1.25e-09
9.832e-05
0.0001439
3.424e-07
6.962e-05
0.006618
2.033e-07
6.175e-06
8.07e-14
4.339e-05
1.279e-11
0.0001457
0.006688
4.187e-05
2.654e-06
0.001961
1.264e-05
0.001138
8.971e-06
9.87e-07
0.0001782
0.0007716
1.778e-08
0.0001404
5.581e-07
4.78e-07
2.707e-08
0.003239
0.003237
6.847e-08
7.653e-06
1.062e-13
1.958e-06
1.517e-08
1.663e-08
5.502e-14
0.002442
1.685e-05
0.0003266
0.003114
0.006687
0.001081
0.006288
2.322e-12
0.006692
8.105e-10
4.197e-05
6.981e-06
6.548e-06
4.127e-08
0.002499
6.641e-10
7.593e-05
6.094e-07
0.0008215
3.18e-09
0.006689
7.308e-05
1.651e-06
0.0009888
2.002e-07
3.09e-06
0.0004674
1.883e-07
1.105e-07
0.0001923
0.006662
1.089e-08
0.002516
0.006668
5.887e-05
5.954e-08
0.006662
1.84e-09
0.006695
0.0005591
0.0003808
0.00133
6.556e-07
0.00666
0.0007345
2.625e-06
0.0001904
2.727e-05
9.453e-06
3.712e-05
0.006694
0.006681
0.0003488
2e-13
6.403e-06
4.682e-07
0.0007225
2.368e-10
8.126e-05
4.887e-05
0.002894
1.978e-05
3.211e-05
4.844e-08
0.0005232
3.882e-07
0.0009882
0.0003594
0.006703
4.289e-06
7.923e-07
0.0005786
7.2e-07
1.263e-08
2.902e-05
0.006679
0.0004964
2.429e-09
5.493e-06
2.004e-12
6.353e-09
0.002814
0.0003821
1.422e-05
2.717e-10
0.0004779
9.688e-08
7.488e-09
0.002785
3.89e-05
0.006691
0.0001035
1.906e-07
0.0002378
0.006693
1.419e-05
0.006693
0.0001102
3.112e-05
0.006696
0.003117
5.892e-05
9.512e-06
0.001145
0.002224
9.266e-08
0.006696
6.962e-08
2.097e-09
5.228e-05
0.00358
1.976e-07
0.0009082
0.0004016
0.0003974
1.78e-08
3.222e-06
0.0003351
2.183e-08
0.0002253
5.774e-05
4.234e-09
0.0001366
2.858e-05
1.967e-06
0.000226
1.063e-07
0.0006315
1.001e-05
5.586e-07
0.0002931
0.00222
3.794e-07
0.003002
0.0003405
7.237e-05
1.844e-12
0.0001785
3.062e-11
0.0001168
0.006664
3.128e-11
2.995e-07
0.0001068
7.147e-08
0.0004864
0.0007007
0.006705
0.001966
1.616e-10
0.001323
7.477e-06
9.6e-07
2.65e-07
0.006695
7.874e-07
7.548e-06
1.067e-05
1.499e-07
0.0004707
4.941e-07
2.326e-09
0.006689
0.0002172
0.0003036
0.002692
0.0003276
3.865e-05
4.257e-05
6.046e-06
0.0001145
0.001139
0.003113
0.0001212
0.0002173
0.006541
2.684e-05
4.917e-08
5.528e-11
0.006702
1.172e-05
1.126e-10
0.002632
3.632e-06
0.002136
2.56e-07
5.314e-11
0.002937
0.00242
0.0002002
0.0008476
1.305e-06
5.61e-06
0.0008715
9.546e-10
4.424e-05
0.0004885
3.478e-05
5.12e-15
1.733e-14
0.0002433
0.0001702
3.906e-05
8.566e-05
0.001159
9.28e-06
0.0008163
4.441e-07
3.362e-05
6.305e-05
5.686e-07
3.764e-10
0.0005686
0.0001066
0.005694
2.674e-07
9.718e-05
0.0003022
1.465e-05
6.152e-05
3.112e-07
0.0002414
0.003572
0.006677
4.643e-08
6.567e-09
0.0006834
1.244e-05
0.001051
1.329e-12
9.878e-08
0.000164
2.019e-05
1.247e-08
0.000639
3.805e-07
4.87e-13
0.006614
9.842e-10
3.708e-07
2.341e-07
0.004899
0.0007482
0.001738
1.965e-08
1.672e-05
0.001627
6.764e-09
0.004963
5.537e-06
1.631e-07
0.0001434
0.001963
0.004955
5.766e-08
4.266e-09
3.24e-07
9.784e-09
7.357e-10
0.0007114
1.782e-11
0.002503
3.904e-07
1.968e-05
0.002628
9.344e-05
0.003936
2.071e-06
0.00104
3.969e-07
0.003112
5.899e-07
5.528e-14
8.189e-12
0.0001711
0.0008773
3.511e-05
1.267e-05
0.001664
0.0001817
0.0001707
8.48e-05
0.0067
5.876e-07
3.533e-07
1.262e-07
6.061e-05
1.247e-05
2.51e-07
0.001021
1.099e-07
3.442e-11
6.879e-10
0.0001164
4.977e-07
9.419e-14
0.002002
1.937e-07
0.003744
7.65e-06
7.064e-06
4.077e-16
1.105e-05
7.353e-06
0.003531
0.0001796
4.283e-08
0.0001212
0.005695
0.006698
0.001364
6.906e-09
0.00154
4.267e-07
1.127e-11
1.658e-06
0.002029
9.936e-09
0.002485
0.0001018
8.336e-10
0.0001554
0.003624
0.0004415
9.493e-05
0.0001122
0.0001384
0.006696
3.601e-06
0.003177
7.891e-09
0.003485
1.355e-07
1.519e-08
5.424e-05
9.758e-09
0.0009612
4.662e-07
3.305e-07
3.42e-07
1.874e-05
0.001675
0.0002005
0.0004633
3.031e-06
9.03e-05
1.223e-08
2.199e-06
0.006261
8.323e-05
0.003747
1.435e-08
9.691e-07
0.002227
0.001714
5.625e-05
2.972e-08
0.003428
8.479e-05
0.0007952
0.0002572
0.002158
0.0009857
0.0003071
4.375e-11
0.0001231
0.0002992
4.771e-07
0.006672
0.001064
6.269e-05
0.0001301
0.00184
0.006687
0.0001045
2.173e-07
5.992e-07
0.006693
0.0008523
0.002395
4.532e-06
1.91e-05
0.001141
0.000529
0.0003433
1.546e-08
5.302e-08
0.00254
4.682e-06
0.0006734
0.0001108
4.105e-07
3.021e-12
0.002506
9.993e-09
8.233e-08
0.002175
2.041e-12
0.005623
0.006662
1.343e-05
5.228e-05
8.46e-14
0.006693
0.002003
5.411e-07
2.688e-13
2.186e-06
2.729e-08
0.006297
0.006394
7.502e-08
0.000106
0.0003698
2.295e-06
5.248e-05
0.001819
0.000106
0.006705
1.11e-08
2.814e-07
5.983e-07
0.0005453
7.394e-10
0.0009123
2.457e-05
0.006678
1.012e-05
2.83e-07
1.212e-08
6.106e-08
0.0001151
6.526e-10
7.444e-06
0.0003054
4.399e-07
9.317e-06
8.834e-05
0.0001169
5.839e-07
6.865e-09
0.004803
0.005098
4.714e-06
5.676e-05
1.222e-10
9.481e-06
6.641e-08
8.389e-05
0.00249
0.006695
7.92e-06
0.006702
0.0005013
8.4e-12
2.803e-06
9.835e-05
1.29e-06
0.0001328
3.95e-10
1.451e-07
0.002947
7.658e-06
1.11e-05
4.712e-07
0.0007336
2.143e-06
7.392e-05
0.0002526
0.0004075
0.0002716
5.521e-06
0.001572
7.404e-09
4.346e-07
0.0002001
0.000116
2.678e-09
0.0001286
6.895e-06
1.293e-06
9.92e-07
8.035e-06
6.003e-06
1.711e-11
0.0001251
4.324e-05
0.001291
0.001373
0.006703
2.691e-07
0.002935
1.83e-11
1.288e-05
4.346e-05
1.012e-07
3.129e-13
7.686e-09
0.0004876
8.018e-07
2.024e-08
1.024e-08
0.002213
0.0006847
2.018e-06
3.327e-12
5.653e-05
0.0002418
7.084e-05
8.046e-05
0.006185
0.001003
5.946e-09
2.916e-05
3.112e-06
0.002151
6.368e-05
4.042e-08
0.006655
0.0008242
0.000121
0.001438
1.823e-08
7.869e-05
4.341e-05
0.003131
4.824e-05
3.953e-07
3.15e-06
4.64e-11
5.603e-07
1.577e-06
0.006679
0.0003064
1.096e-05
2.153e-08
4.254e-08
1.767e-06
0.003376
0.0002089
0.005556
1.023e-07
6.715e-08
8.732e-06
6.784e-06
0.0005798
3.743e-08
2.071e-08
1.227e-07
4.153e-06
7.223e-05
1.552e-06
9.18e-09
0.003836
7.369e-05
2.081e-11
0.002687
0.0007814
0.00423
0.006699
3e-06
0.002436
1.076e-06
1.617e-06
0.001033
0.0009769
2.116e-08
4.15e-08
5.61e-05
2.224e-07
5.518e-05
0.001567
7.367e-13
0.0004455
8.743e-05
0.002532
4.785e-12
0.00167
2.929e-09
6.731e-11
0.003532
3.329e-07
2.538e-08
3.798e-05
0.00131
5.781e-08
7.466e-07
1.181e-07
0.0006792
0.0003853
0.0001726
0.003811
0.006701
5.073e-05
0.001358
1.923e-05
3.957e-05
0.0004085
1.303e-11
0.001241
0.004305
1.32e-05
0.0003004
0.00239
1.166e-06
0.0003178
1.076e-06
2.559e-08
6.909e-09
3.137e-11
1.237e-05
1.753e-07
5.446e-06
0.0001009
1.803e-05
2.175e-05
2.863e-12
1.842e-05
5.638e-07
9.399e-06
0.006682
5.508e-05
8.256e-06
0.001157
4.081e-05
2.625e-11
8.492e-07
4.029e-07
0.0009896
0.0002965
1.034e-08
0.006694
1.334e-07
0.002329
0.000101
4.831e-06
4.788e-08
0.006417
2.499e-05
0.001313
1.391e-05
1.564e-10
2.356e-05
0.0001843
2.801e-13
0.0003412
1.89e-07
0.00668
0.006651
2.04e-07
0.0006061
2.569e-05
1.937e-06
4.404e-07
0.006686
2.859e-08
1.102e-08
0.0005429
0.006699
0.003579
0.0004014
0.0006111
1.968e-07
4.177e-15
3.698e-08
0.005572
4.394e-08
1.123e-10
9.121e-05
3.311e-08
1.222e-07
0.00269
0.0001089
1.014e-07
0.002276
0.0005078
0.006635
0.006593
0.006617
0.006301
0.0001498
0.0008518
5.977e-06
7.325e-08
1.916e-05
3.546e-05
0.0005148
2.566e-07
0.006119
0.000111
0.0003001
4.404e-07
7.266e-07
1.635e-07
0.0001321
8.029e-07
1.01e-07
0.0006312
3.348e-07
0.0001743
5.019e-07
1.234e-13
2.616e-07
3.76e-10
3.927e-06
1.527e-06
0.006694
4.198e-12
0.0001145
9.711e-08
1.886e-05
0.0001326
5.8e-12
0.006694
0.0002003
1.645e-06
0.004358
0.0001036
9.423e-05
0.001157
0.0001488
1.026e-08
6.575e-05
8.933e-07
0.006624
8.135e-06
7.899e-06
1.309e-05
0.001133
3.616e-06
0.006682
0.004248
3.957e-05
1.671e-05
3.311e-07
0.000122
0.0009876
5.836e-05
5.741e-05
1.762e-08
9.746e-08
0.002294
0.002474
0.0008681
0.0001631
0.0001172
6.258e-13
3.89e-06
0.006692
1.595e-10
0.006697
0.006688
9.872e-05
0.002502
2.9e-09
0.0011
1.053e-08
0.0005361
8.43e-08
0.006695
0.0001048
2.676e-05
1.977e-07
0.001772
0.003573
6.591e-05
1.302e-10
1.501e-08
0.006702
1.217e-09
1.095e-08
2.803e-14
0.002885
0.002512
0.001529
9.554e-05
0.0005411
0.002705
1.125e-06
1.01e-10
9.697e-06
3.045e-08
1.093e-13
0.006694
7.116e-08
1.348e-07
4.657e-07
0.006693
1.902e-08
1.084e-11
2.461e-13
1.672e-12
0.0001164
0.0004609
1.924e-12
0.0002627
8.247e-05
0.006687
0.001062
4.013e-07
0.003259
4.271e-06
1.646e-12
6.852e-05
0.0002294
2.7e-06
0.006706
0.005516
7.982e-08
5.798e-07
0.003333
3.527e-08
0.0001273
0.0001409
0.001711
0.0006258
2.417e-05
0.0001839
0.006694
0.0004151
0.0003863
1.949e-07
3.105e-06
1.167e-06
8.133e-08
1.341e-06
1.56e-11
4.136e-12
5.574e-16
5.731e-08
0.0001701
3.235e-08
0.0003385
1.332e-08
1.224e-08
0.006694
1.553e-13
0.006705
1.857e-05
2.179e-09
3.347e-09
0.0001414
1.664e-06
5.876e-06
5.969e-07
0.006632
1.005e-13
0.0001722
0.002879
0.00184
0.0001354
4.714e-12
2.43e-11
3.553e-12
0.001764
6.478e-08
5.445e-08
0.001077
2.518e-05
5.972e-07
1.233e-09
0.006668
0.000214
8.782e-07
0.0001026
1.055e-06
0.0005597
0.003135
4.317e-10
3.76e-07
4.423e-07
3.481e-11
0.002982
1.254e-09
3.996e-05
1.419e-06
2.072e-05
0.006457
7.303e-05
1.771e-06
2.593e-06
1.673e-05
1.763e-11
0.002898
0.004254
2.886e-05
1.618e-07
1.286e-08
0.0005237
0.00336
0.006449
0.0002395
7.555e-09
0.006342
4.363e-06
9.641e-08
9.54e-05
4.825e-05
0.0004211
3.497e-11
1.242e-11
1.388e-12
8.405e-05
4.657e-08
0.0001214
6.362e-05
0.002728
0.002442
5.469e-10
0.001385
1.278e-08
1.417e-07
1.194e-08
3.274e-07
4.878e-05
8.407e-12
0.0009445
6.7e-07
0.0006075
0.003196
1.207e-06
9.386e-05
0.001922
3.891e-06
6.461e-07
0.0001494
4.533e-07
1.432e-06
5.945e-12
1.188e-13
0.002575
4.288e-13
0.002233
0.0001538
0.0001121
0.0001302
5.889e-06
0.006704
4.2e-07
1.412e-11
4.011e-06
9.838e-09
0.001976
0.0008768
5.475e-07
0.0001094
0.001567
3.086e-06
0.001567
1.435e-09
5.317e-05
0.005273
9.446e-05
6.719e-07
0.0067
0.0003874
5.09e-09
0.006695
3.178e-05
2.204e-05
1.512e-07
2.194e-05
1.177e-09
0.002484
0.001678
4.636e-05
3.088e-08
7.519e-08
5.134e-08
1.062e-06
0.006684
1.425e-07
0.006696
7.892e-05
2.574e-05
0.001652
1.853e-12
2.85e-05
3.193e-08
0.002696
6.293e-09
2.504e-05
0.002298
0.0007343
4.239e-06
0.00667
3.364e-05
0.006695
2.835e-08
1.549e-07
1.14e-06
0.0001496
0.006627
1.43e-06
9.895e-08
0.0001051
9.465e-09
2.669e-05
4.811e-07
0.0005317
0.001044
4.731e-05
5.747e-05
2.102e-05
2.726e-06
0.0001187
1.431e-05
0.0001101
4.076e-06
0.0001193
0.006623
0.006675
0.001737
0.0002605
5.446e-06
8.244e-07
2.144e-06
0.002204
1.892e-07
8.121e-06
3.34e-07
0.006698
6.968e-07
3.902e-05
4.358e-09
0.002875
1.821e-13
0.0005183
2.939e-09
0.00358
0.0001206
3.496e-11
0.0003202
3.622e-07
3.246e-07
2.196e-07
1.016e-05
0.0001376
0.006694
2.33e-07
6.757e-06
0.0003564
0.0001521
0.0003791
1.572e-05
0.0005053
1.066e-06
4.78e-08
0.006688
0.001039
1.743e-06
3.839e-09
6.896e-06
0.006701
7.147e-06
4.305e-07
0.0007617
0.0007968
7.674e-06
2.115e-07
0.000149
2.412e-06
2.219e-05
0.002326
0.000112
0.0006646
0.005296
5.39e-06
1.76e-12
0.0003909
0.0001247
9.946e-09
1.485e-05
2.379e-05
0.006691
0.0003125
9.054e-05
0.003569
3.135e-11
4.668e-05
0.006697
0.0009083
6.013e-07
2.829e-14
0.006697
0.0007341
5.32e-09
3.447e-07
3.58e-05
5.074e-05
4.138e-08
0.0001448
3.74e-06
2.698e-08
7.659e-11
1.447e-07
0.001828
0.0001967
0.0008393
6.587e-05
0.006683
6.108e-05
2.271e-05
0.0008133
7.464e-06
3.991e-12
1.334e-09
0.002747
1.156e-06
6.211e-11
0.002502
1.003e-07
0.000766
4.088e-05
0.0001026
5.435e-09
1.362e-11
0.006688
1.714e-05
5.331e-07
0.006697
1.477e-08
0.001065
1.09e-05
0.0001465
0.0004772
2.912e-08
1.113e-05
4.233e-06
0.006203
0.002643
0.002931
0.0001198
0.006698
0.0003179
0.0003561
1.201e-08
0.002786
0.001106
9.553e-08
4.078e-09
0.002865
0.0003228
0.006678
2.604e-11
7.348e-06
3.7e-08
5.533e-08
6.836e-05
4.509e-07
0.0002169
3.024e-05
2.261e-12
0.003609
6.627e-11
0.006674
0.006685
0.0004504
4.527e-05
0.006683
9.105e-13
2.775e-07
1.63e-07
4.283e-08
0.0002238
0.0003533
0.004977
7.462e-13
0.0007021
9.829e-07
0.006675
2.067e-05
0.0001188
0.0003624
0.0002434
0.0004849
0.003043
3.679e-06
0.006656
0.0002548
8.989e-08
3.45e-08
5.957e-09
9.593e-05
0.00057
6.375e-06
0.006699
6.604e-06
8.173e-06
0.0002228
0.0001718
0.0002808
5.613e-11
0.00596
0.006683
3.869e-06
3.233e-07
0.002322
1.692e-08
0.006701
7.381e-08
5.833e-05
4.967e-07
0.006701
7.229e-05
1.515e-08
2.75e-07
8.98e-08
0.000697
2.708e-06
0.006684
5.107e-08
0.004728
1.149e-06
1.153e-12
0.001422
0.0001183
0.001783
1.446e-07
8.055e-10
3.695e-06
9.043e-05
0.006657
0.000297
9.184e-05
0.006691
1.006e-05
4.63e-07
0.002374
0.006704
0.0001239
6.96e-05
0.0001623
2.361e-07
0.0001485
0.006696
2.34e-07
9.806e-07
3.75e-06
0.0006183
0.006697
0.006693
0.0005377
0.000561
0.002431
4.244e-08
1.779e-12
2.071e-11
1.06e-06
4.768e-11
1.183e-09
0.004895
3.945e-12
0.0002071
8.847e-08
0.003063
7.253e-05
2.384e-05
5.72e-08
1.532e-06
4.3e-09
4.55e-06
0.0002409
0.0005309
2.138e-07
5.843e-07
4.549e-06
0.0001033
5.894e-05
3.621e-05
1.586e-07
0.004213
0.0003996
9.98e-06
9.012e-05
1.14e-05
1.678e-06
7.702e-12
1.529e-08
0.006662
6.767e-10
0.0003591
0.006667
1.378e-06
0.006694
2.511e-07
0.0001504
0.002585
8.361e-06
6.137e-07
0.006707
3.653e-05
0.003246
1.139e-10
0.0008794
1.595e-05
3.75e-11
2.91e-05
0.006688
2.531e-09
0.000523
0.0005109
1.715e-05
0.002594
2.881e-07
2.01e-12
4.469e-08
0.0001733
0.002019
1.734e-05
5.087e-06
0.006689
0.0001666
1.963e-07
5.218e-07
9.845e-05
0.006701
8.447e-12
2.28e-07
1.899e-06
0.0001304
0.0003451
0.0001436
0.006657
0.0001674
2.609e-06
2.638e-05
4.139e-05
4.057e-07
3.266e-08
0.002815
8.475e-06
8.668e-06
0.002248
5.313e-05
0.002953
2.134e-06
0.0002235
8.786e-06
0.0067
3.089e-07
0.002374
0.0004368
2.651e-05
4.375e-05
7.804e-08
0.0001474
1.143e-14
0.001727
2.345e-05
0.002136
0.00668
2.255e-05
3.103e-06
1.909e-09
1.667e-07
3.743e-05
6.763e-08
1.008e-08
0.0004736
2.452e-05
0.0001925
7.516e-08
2.383e-10
0.0004009
0.0001002
5.14e-09
5.681e-05
9.857e-09
7.355e-06
0.002011
0.0009107
1.794e-07
0.006693
7.781e-05
6.998e-05
0.00669
0.0004256
4.99e-09
0.002238
6.742e-14
3.895e-08
5.415e-06
0.006691
0.0005304
3.263e-05
0.003427
0.0006062
0.0003198
6.459e-07
1.304e-05
8.468e-08
0.006696
7.177e-05
0.006688
4.329e-05
1.725e-05
1.701e-06
2.921e-05
7.749e-08
5.228e-14
0.006611
0.006692
2.174e-06
8.448e-07
8.343e-09
0.0001229
0.0001299
2.659e-08
0.001662
0.001595
0.002365
6.134e-07
5.058e-09
2.732e-05
0.0005812
0.006687
1.176e-06
6.186e-05
0.0003485
7.208e-08
6.862e-05
0.001913
1.12e-07
0.0002539
0.0003386
3.144e-06
7.202e-05
0.0002945
0.00669
0.006454
6.807e-08
5.382e-08
4.137e-06
0.003755
0.0001314
0.00302
2.831e-07
5.497e-06
0.006609
8.541e-06
2.141e-05
2.989e-13
2.403e-08
1.644e-07
0.006681
5.075e-08
4.412e-07
7.453e-07
8.891e-07
1.046e-11
2.824e-05
0.0004987
5.366e-07
9.114e-07
3.155e-08
1.361e-09
0.003056
0.002828
0.003876
8.586e-05
8.204e-14
0.0007249
0.001897
5.883e-08
2.359e-06
0.001595
1.795e-07
0.0002645
1.491e-09
0.001507
6.316e-07
0.000886
2.93e-05
9.747e-06
3.091e-13
0.000648
4.339e-11
1.845e-11
0.006693
3.888e-11
2.149e-06
9.179e-09
1.005e-07
0.0004446
0.001921
4.031e-05
6.334e-07
9.103e-06
4.429e-05
0.001178
0.001137
0.0003037
0.0008333
0.0001592
1.653e-05
8.024e-05
0.002243
2.709e-11
0.0003096
1.839e-08
5.374e-07
4.838e-08
0.00665
2.341e-06
0.0001303
3.878e-08
0.001564
1.868e-11
1.291e-05
1.615e-07
9.356e-05
3.919e-08
8.336e-05
0.0008383
0.0004177
0.0001923
0.0001106
0.0006778
4.08e-06
0.0001857
2.068e-05
5.598e-06
2.349e-07
0.0004706
1.802e-11
5.072e-06
1.104e-11
3.821e-05
0.001352
5.59e-05
0.002484
0.0001062
2.536e-07
0.006695
0.002652
0.006694
0.0003199
3.41e-07
1.676e-05
0.002059
8.179e-06
0.0004844
5.685e-05
1.586e-12
2.745e-09
3.154e-11
2.03e-07
7.255e-05
2.72e-08
4.972e-08
0.0001335
2.529e-07
0.006695
0.0007031
0.003308
6.038e-06
0.001934
0.006681
0.006682
7.55e-05
0.002605
0.0001462
1.184e-12
2.99e-07
0.006673
0.006693
9.031e-07
0.0002678
5.368e-08
1.192e-10
0.00525
4.592e-05
5.294e-06
2.454e-07
7.825e-06
1.72e-12
1.006e-05
0.0001006
1.496e-06
1.271e-07
2.561e-05
1.355e-05
5.957e-06
1.425e-05
2.843e-08
7.343e-05
4.937e-14
0.005854
1.23e-06
3.8e-07
2.356e-08
0.006695
0.0004781
0.006694
0.001713
0.001268
3.85e-06
0.0004608
2.006e-07
1.382e-06
0.0001157
1.01e-08
8.551e-08
1.052e-06
2.036e-08
2.735e-08