/*--------------------------------*- C++ -*----------------------------------*\
  =========                 |
  \\      /  F ield         | OpenFOAM: The Open Source CFD Toolbox
   \\    /   O peration     | Website:  https://openfoam.org
    \\  /    A nd           | Version:  8
     \\/     M anipulation  |
\*---------------------------------------------------------------------------*/
FoamFile
{
    version     2.0;
    format      ascii;
    class       volScalarField;
    location    "35";
    object      omega;
}
// * * * * * * * * * * * * * * * * * * * * * * * * * * * * * * * * * * * * * //

dimensions      [0 0 -1 0 0 0 0];

internalField   nonuniform List<scalar> 
127143
(
3.821e+07
7.184e+07
8.194e+07
3.494e+07
2.933e+06
3.537e+07
1.159e+06
2.025e+06
3.234e+06
4.719e+05
1.704e+06
2.662e+06
9.642e+07
2.958e+07
397.8
7.931e+04
9.896e+06
14.67
9.986
3.265e+04
20.67
7.141e+04
0.08679
259.6
7.685e+04
1602
5896
5729
5092
13.14
407.2
1761
6400
1046
0.04357
6902
41.75
52.12
199.6
2139
10.06
0.4808
0.3396
1.373e+07
14.23
1027
4571
16.25
256.8
225.2
5.058e+04
0.02549
44.06
0.2398
0.02093
544.9
0.02092
0.3194
0.02243
0.2375
0.3236
9.824
69.85
0.02211
327.9
0.4283
0.05004
85.24
84.65
0.08139
300.3
3998
15.05
0.02242
0.02179
4068
0.02316
28.07
536.3
0.02222
4751
2.914e+04
369.3
1340
15.18
23.67
153.4
4510
0.361
675.8
0.02208
30.79
323.9
20.55
55.17
0.259
0.4434
546.3
17.17
0.04941
0.02221
242
2754
4.412
22.47
17.78
85.24
0.08171
1.47
0.02132
297
5146
30.56
6.065
0.02175
1.436
0.02332
0.02179
0.02304
2.882e+05
0.02134
345
38.76
0.16
4674
2750
11.08
0.02405
52.07
603.4
44.15
61.6
35.97
27.38
1.119e+06
42.04
0.06109
18.46
3538
0.05106
0.1248
0.02248
33.44
22.44
44.44
65.56
1.815e+04
0.02213
66
3638
9.331
229.2
65.61
0.07189
39.34
14.86
0.3198
759.6
15.92
662
287.5
9.342e+04
0.02209
43.79
1371
253
53.17
0.5261
720.3
0.02651
827.9
22.25
2.243
18.05
0.2652
38.76
32.07
52.05
225.7
0.03534
17.98
0.03218
37.23
38.04
595.3
9.798
0.09084
6.314
239.6
0.0346
40.57
61.93
0.05515
73.82
2.051e+06
12.34
0.01943
0.01936
2.224e+05
0.02182
0.02172
0.0265
2.642
36.91
1.109e+07
125
0.04935
17.35
12.61
0.02175
1.612
17.67
0.02166
703.1
82.16
2.288e+05
2655
18.43
37.38
0.04961
20.38
0.02184
231.2
46.11
788.5
924.9
958.2
55.36
301.9
12.96
22
0.03201
14.41
1.97e+05
21.76
0.08752
43.76
4.482e+06
0.02172
36.81
58.92
189.4
24.14
741.9
79.97
2.284e+05
145.8
5723
1.703e+05
0.09892
3.985
1172
24.11
20.46
364.9
1.584
0.024
1064
4.878
0.0556
13.53
0.02619
25.44
0.0224
60.76
229.1
176.1
87.2
0.6476
131.8
891.5
0.2622
13.42
36.65
39.72
40.19
30.06
188.4
0.4935
3
0.06727
0.4802
4.329
0.02176
0.02175
1.891e+06
50.43
0.02176
206.1
0.03706
67.44
0.2165
0.0871
3.453
0.02169
2.954
357
111.4
24.16
121.9
521.6
0.3819
0.2968
1.201
912.6
20.56
17.22
0.02167
16.63
19.01
95.16
711.9
622.6
0.05284
0.02173
466.6
44.07
533.2
1.117
2.055
0.08157
327.8
0.02999
24.2
498.7
50.84
0.03174
119.1
338.9
17.41
10.86
0.02175
0.04309
0.01944
0.01937
0.07047
1.45
2.234
10.87
60.29
0.05008
18.44
46.93
40.21
8.187
206.7
175.8
38.61
486.8
57.09
428.7
10.61
41.46
40.26
0.02855
152.9
20.46
57.72
0.02393
342.1
11.42
57.06
20.19
216.3
219
0.02192
0.02181
1.399
372.3
0.5013
0.9272
0.03018
780.3
234.9
0.03264
0.08759
322.1
1.545e+05
15.64
0.5091
27.9
2024
389.5
0.3788
0.02322
1.272e+04
0.03758
1855
12.54
33.45
0.02198
0.2008
469.4
360.8
238.9
395
0.2047
345.8
0.02844
0.02584
1293
0.02184
21.56
35.56
0.03866
14.71
20.28
33.37
0.02222
204.8
10.94
520.1
0.1257
14.46
25.85
53.53
22.92
994.5
91.17
212.3
50.24
4720
103
0.075
13.23
0.06351
0.3028
0.08473
157.8
0.05796
0.02115
104
47.05
13.65
199.7
0.02192
19.17
147.5
0.02517
0.02169
0.02172
200.5
0.06217
1.877
0.02418
521.8
0.02174
151.9
1.484
17.75
18.85
343.9
12.44
447.6
0.03753
32.85
588.8
129.2
27.75
101.7
29.22
47.46
21.12
2.269
46.98
0.1994
0.02208
26.23
234.1
0.02078
14.31
21.2
0.1605
46.11
0.04363
0.02028
34.79
16.12
394.9
59.51
5392
123.5
121.4
626.4
6.009
203.5
70.58
0.02165
530.1
0.02245
247.5
138.3
43.42
77.08
3.46e+06
50.74
2.094
0.107
3.123
0.02167
5373
0.02212
31.17
12.32
5.043e+06
2.529e+05
8.19e+05
0.02194
151.3
132.4
0.02173
10.44
62.13
43.77
5.143
19.4
347.5
14.21
3349
0.1692
21.89
1.664e+05
281.9
497.4
665.2
0.02226
8.501
1.723
22.11
0.02202
632.4
3234
462.1
0.01965
26.22
0.09371
1563
8.415
1261
19.57
0.02254
168.6
5.95
0.02081
0.3806
92.65
315.7
214.4
248.3
499.3
12.45
182.6
150
41.51
98.87
0.02207
1490
36.75
573.2
43.55
21
0.02212
0.02207
0.05303
182.7
5.165
0.02174
0.02909
3.132
540.9
20.73
6.056
783
3038
1.585
0.02266
0.02134
464.1
16.71
55.35
0.03175
3839
30.85
77.86
0.5015
852.5
0.02174
19.13
32.24
28.1
0.02649
201.6
13.56
2.034e+04
0.02026
79.35
2554
0.02171
14.68
0.02176
153
53.96
0.02176
276.4
313
386.9
47.7
35.75
424.6
387.5
22.11
182.1
230.6
207.2
48.11
47.21
671.4
0.02681
515.2
0.02174
5.022
0.02434
33.74
0.02116
0.02176
0.4391
209.3
26.72
0.02138
0.02115
261.3
2046
267.8
476.3
10.43
1.803
18.52
12.27
40.05
150.8
396.4
0.0214
86.27
38.2
0.4371
77.3
0.02216
0.02904
53.68
2675
70.25
1.1e+04
0.02426
0.0378
54.68
101.6
0.02623
326
0.1215
0.08123
249.6
4.844
38.35
0.09735
8.656e+06
795.1
26.96
33.14
49.53
68.1
721
135.7
0.02461
51.08
119
21.17
0.02122
179.3
0.3076
0.1957
0.01964
0.02119
1.122e+04
0.1076
392.3
59.42
77.98
16.6
1.419
635.9
0.08606
350.5
0.02164
0.02089
5.128
0.06583
308.6
0.1899
1292
9.769
367.7
0.6081
20.39
0.03548
516.6
0.04385
376.7
1.213e+06
34.3
64.88
15.03
0.02787
59.21
213.1
8817
12.89
19.45
39.9
3127
23.33
277.1
8.815
285.2
75.49
18.89
10.99
0.249
1.868e+07
0.3049
0.02628
104.1
55.07
135.5
0.02155
54.05
10.85
20.45
0.04052
1.163e+04
95.1
870.7
0.04441
153.2
47.76
132.1
71.72
0.03722
15.88
579.6
292.4
21.21
0.02185
47.26
59.55
0.02193
18.03
0.6783
64.14
50.21
0.3331
34.51
1514
143.9
0.01934
16.02
9.393
1499
501.3
0.2895
10.29
449.4
0.01938
41.61
249.9
58.74
1.369e+05
60.11
433.8
28.96
22.13
2.006
0.02193
1.397e+07
41.82
44.84
1017
22.25
136.7
72.57
258.1
0.02132
11.17
4.459
0.03744
97.53
244.7
87.51
39.6
0.02048
17.84
42.44
0.02165
0.02043
77.4
9.76
10.4
126.2
18.97
4.926e+04
7.303
0.17
0.02123
23.82
46.79
370.6
725.7
0.4621
0.055
0.02213
2.245
4545
0.02125
0.3596
1708
58.6
1549
0.02557
22.94
63.48
0.0218
475.7
0.0212
82.25
4713
97.12
82.58
3371
0.02192
263.2
0.1079
611.5
229.1
763.9
4428
0.2863
0.484
1.002
2e+04
0.02178
52.79
506.7
433.5
125.8
5087
0.05284
0.5342
475.8
2163
1.114e+04
299.8
3.474e+05
190.7
6.393e+04
60.54
818.4
11.44
8875
0.02307
112.3
0.02708
0.02584
30.24
0.02636
50.7
17.32
5.178
1.024
0.04183
644.5
112.2
0.02197
17.17
37.71
0.04004
333.9
3.784e+04
38.16
14.47
312.3
23.86
193.2
0.02169
43.54
377
0.0237
263.2
36.34
10.05
0.02069
2.382
22.17
1.131e+05
2.899
3.826e+04
14.27
18.29
85.74
3806
118
0.02318
3105
0.3355
0.02417
2.282
1.212e+05
31.88
192.6
9.704
2.364
7415
5.832e+04
259.7
0.02261
0.02183
15.52
4.481
64.73
249.5
21.88
2020
184.5
0.07994
1980
0.05433
1900
0.0216
16.7
703.5
23.65
104.3
16.69
0.02177
0.02186
710.6
0.1564
104.3
256.8
273
12.39
78.84
67.83
86.99
1.54e+04
41.78
454.7
288.8
13.47
11.53
74.32
121.1
1469
4.467e+04
17.24
0.02155
0.0214
14.16
24.24
0.5468
0.02083
14.48
18.69
0.5042
214.6
62.07
186.6
1.859
0.02223
0.2555
0.5501
4613
918
49.8
0.2635
50.15
339.2
247.4
27.29
9.175
31.02
144.9
53.46
2373
0.02353
5034
4536
9.313
44.82
431.6
0.02177
1.148e+04
1.758e+04
0.02167
0.02154
43.88
24.49
1.624e+05
129.4
107.9
395
253.3
0.2866
0.352
0.02249
307.9
22.46
151.9
2.119
1945
28.98
0.02773
1.153e+04
69.79
0.02172
114.7
0.02487
0.02165
22.87
0.09358
1.187e+04
0.02157
473.8
0.02181
288.3
0.07956
16.4
6.945
461.6
319.9
296.8
40.19
0.05562
0.03557
24.29
198.9
143
209.6
3897
308.6
1.759e+04
51.36
377.1
192.9
304
1565
0.1265
12.42
0.04213
182.7
77.59
833
0.06354
363.9
13.42
89.26
104.8
42.03
0.7688
512.4
13.77
89.28
119.7
637
239.7
0.02099
22.24
190.7
0.02182
107.4
264
0.02068
1.513
142.5
0.03439
0.1323
28.14
100.9
0.1521
0.0198
100.5
116.1
0.02166
0.09961
0.03115
18.25
136.5
9.162
0.03769
729.9
3.485e+04
501.2
259.7
12.18
8866
0.07535
159.7
0.02176
25.71
6.649
78.33
104.8
879.5
2541
0.02196
1.665e+05
652
484
54.4
1103
12.25
13.34
1039
72.35
0.03324
3.354e+05
31.68
258.8
717.3
184.8
92.79
81.38
2009
94.65
57.21
81.71
346.2
281.5
29.67
3.092e+04
0.1023
121.8
0.09119
483.9
0.01971
0.02165
47.45
1.131e+04
17.61
1.143
1.314e+04
447.7
0.0218
1736
107.7
81.1
3.858e+04
1.725
52.48
3.373e+06
17.49
3123
11.89
80.59
1344
286.9
671.8
6.32
129.4
0.07762
17.9
132.8
70.41
6.998
109
10.15
7564
14.84
0.2286
13
0.4463
1.032
12.45
2.944e+04
0.03857
2651
941.4
68.39
38.23
0.0218
10.7
44.22
2.746
1419
715.2
890.9
0.02136
364.8
785.1
29.14
1.122e+04
64.25
12.11
338.1
0.02203
421.9
53.51
3550
72.84
0.06521
16.35
0.02172
4.124e+04
1.304e+04
30.55
0.4802
5.837
0.02087
0.01979
219.7
23.83
8.858
0.08839
0.04955
0.05147
3.248
25.52
15.9
87.36
238.6
1.338e+04
0.7171
781.2
68.99
127
0.01982
398.4
11.79
68.65
1.659e+04
95.21
11.5
57.31
56.69
26.2
5.176e+04
27.4
34.47
10.6
12.17
4.499
224.3
4.295e+04
0.1731
589.7
0.02118
254.9
1042
0.02032
1430
37.07
42.72
367.8
0.02138
0.7495
1.106e+05
0.02177
215.3
287.6
92.19
4758
0.5547
4.347
366.7
1465
42.05
90.15
0.0528
92.44
3122
6430
173.7
39.91
0.02169
70.97
11.88
615.5
128.7
9.428
42.52
0.02183
2.052
121.9
0.02205
9.713
0.02231
2927
10.04
9477
91.14
49.38
280.4
28.09
176
387.8
8.516e+04
45.57
86.71
50.72
23.34
13.18
0.02211
49.2
0.02222
11.63
0.022
12.84
0.02147
87.17
62.98
0.02068
0.02162
167.6
0.2786
449.8
0.09108
0.02007
5.446
27.42
0.03223
8.688e+05
1542
9.034e+04
176.2
37.5
274.7
179
43.51
6.61
2263
23.02
687.8
231.9
42.6
48.76
9.289
0.02156
8.447e+04
35.94
2319
0.02179
1.513e+04
183.4
287.1
75.1
0.01974
0.01972
11.59
29.39
5.997
10.31
64.82
0.6766
0.7628
2.413
3.578
1348
165
0.5225
21.39
4.581
370.1
398.5
81.08
300
14.52
0.02203
72.63
94.1
5594
45.85
0.03457
70.22
1.281
149.3
44.35
510
16.39
0.02174
20.31
28.86
2.138e+04
4698
0.5506
41.44
598.1
0.2107
0.01972
819.8
199.9
7.835e+04
0.05915
3.13e+04
58.81
0.02153
72.16
561.8
11.48
0.1082
18.02
351
56.01
49.35
53.82
1173
0.04102
219.9
583.4
475.6
0.05436
0.05424
320.9
13.14
7.533e+04
101.5
565.7
629.4
8.492e+04
1.402
155.8
0.02541
0.02181
0.0215
14.84
0.02279
2.367e+04
0.02173
3155
0.2595
19.62
408.1
438.5
0.09128
7961
1.138
160.9
15.74
4457
0.02169
70.61
343.9
14.22
3769
717.9
20.84
835
1323
0.04566
0.0206
3888
0.07122
0.01998
0.2634
3253
0.0206
1446
0.02184
32.33
77.14
14.74
73.18
0.02092
17.41
275
93.66
0.06608
12.64
0.154
0.02174
0.02122
42.96
1.54e+05
23.34
91.26
0.02494
1.076e+04
0.2991
0.07504
0.05862
1.299
85.98
394.7
0.02592
195.4
0.02238
41.56
0.02217
0.2497
121.7
36.13
3.965
696.3
99.74
0.0212
59.24
1059
217.4
1.383e+04
738.4
11.98
0.0333
2.61
1.688e+04
48.87
906.7
9598
0.07207
0.1891
0.0216
53.63
191.2
49.88
0.0218
270.8
0.02175
0.1783
87.97
0.02141
11.62
0.4005
18.74
16.66
0.9416
282.7
0.0219
368.6
2615
3.178
9.51
170
0.04564
104.2
39.75
1449
50.62
38.41
473.9
41.98
70.81
3404
0.0914
0.1869
70.38
0.03406
228.5
19.43
0.08878
80.6
0.02437
0.3257
1601
21.83
144.2
66.08
1.451e+04
41.73
5553
0.7925
0.02066
5629
133.7
0.09409
303.6
0.02751
44.11
0.02223
12.52
3137
13.78
7.193
67.12
143.8
0.02187
62.46
0.2582
5.062
478.5
0.02503
98.2
1129
0.0216
0.02569
49.32
0.07085
52.44
2.018
1.381
15.09
0.5722
17.95
0.0705
17.33
46.58
0.021
0.1551
442.8
1.479e+04
0.02088
172.6
4539
15.95
144.3
9.984
160.4
1.439e+04
0.05712
0.1092
64.27
0.02646
420.9
8.918
19.34
1870
91.46
0.02465
79.39
2.225e+05
8.321e+05
61.58
71.64
93.89
0.7624
14.48
11.69
22.16
562
180.2
160.2
170.3
7738
18.69
1.545
0.02172
666.8
1.669
26.98
0.1796
0.04302
140.1
61.89
11.58
0.02038
453.9
752.2
80.53
161.4
14.05
1.566e+04
281.2
0.02709
122.7
5836
23.16
107.7
2.572e+04
0.01939
2128
431.8
161.9
0.02737
17.97
11.07
521.8
148.1
16.81
744
0.03147
2.391
193.2
0.04994
12.08
0.02174
343.8
2458
151.4
814.3
1.171e+04
20.07
6506
0.1036
557.7
4.417
9.475
0.0384
11.62
30.42
16.56
118.7
0.06208
95.64
5.871e+04
1.583e+04
44.75
77.27
0.525
0.6519
0.02194
0.02602
48.58
0.3035
0.02168
76.98
131.5
236.9
106.9
11.78
193.9
37.97
1312
1.671e+04
1.826e+04
0.08616
94.59
4.583e+04
10.37
1796
14
14.49
38.81
5.816e+05
10.22
13.59
0.04189
0.06338
815.6
56.92
0.02174
0.02196
12.1
745.5
14.94
105.2
1.036e+04
8.006
0.0235
617.9
9.69
70.99
1564
7.008
6.909
44.48
55.3
0.7212
57.77
0.02189
517.3
9.445
662
18.41
212.3
2055
2.1
652.9
45.04
567.2
143.7
1706
0.08304
11.08
34.59
20.77
293.4
79.79
3599
320.9
0.02169
93.96
14.18
535.9
63.74
0.2552
20.06
0.1061
1706
0.04664
73.09
27.88
44.58
11.02
23.22
1.58
1.607e+04
0.1887
0.02512
665.8
0.02091
15.85
0.03183
0.8426
11.29
0.02151
0.2551
209.8
1216
0.02177
0.02365
10.7
18.79
82.65
0.1742
61.21
37.9
733.9
369.9
28.69
288.3
80.73
0.08863
106.9
1.706e+04
10.07
2195
325.3
10.63
1.425e+04
0.02174
0.02061
0.9896
2.957
9.238e+04
0.0218
15.86
550.9
8.474e+04
280.8
477.6
0.0198
0.01944
305.7
60.15
39.83
31.62
0.03295
31.93
1.552
0.02222
613.3
163.4
78.05
30.39
1681
6.667
2.157
0.01981
11.68
187.2
635.8
410.8
51.58
5260
376.7
43.52
118.8
185.2
59.61
0.06768
217
3409
0.02775
0.02584
223.5
97.53
3898
1.257
531.3
73.44
0.1405
0.02174
5.179
0.02211
23.2
1.147e+04
17.86
0.1219
68.54
0.04467
6739
605.8
0.0647
14.2
11.73
91.22
22.2
62.76
63.3
42.09
30.89
30.2
17.23
11.32
1225
116.8
38.45
93.12
6909
70.41
359.5
410
2.64
1.437
20.72
6540
0.3511
87.04
0.02255
13.63
0.02214
143.2
9.198
6556
131.4
0.08391
993.6
5.372e+04
814.3
28.22
62.1
551.6
1397
0.2587
23.3
29.6
3.438e+04
65.04
30.3
0.2107
0.2548
0.02176
25.6
5456
5.207
941.9
11.5
0.102
1106
0.01973
43.56
0.4014
20.85
1045
0.1772
1.992
8.882
0.03898
192.3
24.65
1.776e+04
752.7
157.7
0.02142
31.27
124.7
3014
1004
33.25
9.683
49.66
0.02173
259.1
553.7
3.741
15.11
44.21
1434
490.9
337.7
47.43
3.009
1.4
6910
12.62
0.08435
2.31e+04
0.06647
35.29
0.02176
0.02199
65.39
0.02201
553.9
62.71
51.45
24.42
481.1
1265
64.03
473.3
66.45
14.72
1.484e+05
25.04
51.54
2.017
5.788e+04
12.56
4911
5861
0.04179
592.5
461.9
4.097
13.9
3121
277.2
909.3
17.55
27.13
0.02678
10.16
0.02206
0.6034
13.37
280.2
219.1
47.08
9912
12.47
0.02203
160.3
27.53
23.28
45.17
30.6
55.52
442.6
1187
5137
158.4
202.1
481.6
47.63
139.8
0.06845
7.239e+04
144.9
80.28
1.271
0.0216
84.55
192
14.52
3.864
5497
475.7
294.8
61.46
37.32
2223
0.02166
3992
10.39
0.03887
29.25
458.1
0.0217
112.3
12.94
11.87
5681
7.627
49.98
5.813e+04
24.64
194.3
0.01971
0.01963
187
73.7
2.47
185.3
116
0.02151
1649
676.9
32.87
0.02177
0.02204
42.75
100.7
190
1.963e+05
482.7
0.02736
397.6
1.888e+04
0.08281
446.2
257.8
0.09798
0.8233
895.8
31.87
29.57
0.01964
0.01948
0.01946
0.02007
0.07631
25.1
20.75
475.4
7.264
145.5
24.57
536.8
0.02076
53.45
32.2
1798
464.5
2276
97.01
60.18
260.6
29.82
140.8
0.1223
88.88
1.1e+05
177.6
2057
0.2944
98
0.02174
6.032e+04
45.55
285.9
6.847
0.03099
1.913e+04
0.02179
41.99
359.6
0.03934
66.92
54.38
16.58
67.95
3665
0.04255
393.1
0.02067
2.335
121.8
155
13.9
45.58
0.02151
0.02175
0.3361
348.9
612.2
0.1886
16.91
75.23
2.842
1838
264.5
17.82
9.45
26.62
37.49
0.1501
2.925e+04
0.2615
0.02174
4776
0.02172
0.02169
1.819
0.1032
3408
13.16
729.1
20.46
269.4
0.02187
0.08279
193.4
170.8
11.79
0.0519
0.2012
1.732e+04
1783
0.02213
3407
2274
9.493e+04
0.06719
15.95
20.04
0.07664
0.02393
15.64
154.4
1.389e+04
0.0732
421.1
6.37e+05
0.02175
301.8
851.9
112.1
0.02178
516
2.319e+04
3.865e+04
1.965e+04
0.3774
81.03
2.038e+04
0.05555
55.17
0.02154
15.99
346.5
10.88
236.9
1.904e+04
0.7114
65.14
55.88
0.02225
0.02766
337.3
533.8
14.39
4005
61
1.183
10.96
29.98
176.6
37.41
0.02176
45.33
42.56
173.4
252.5
112.8
320.8
81.67
2.508e+04
2.877e+04
3.566e+05
353.2
0.04587
723.3
0.02478
576.1
1030
0.02176
1.919e+05
0.02221
118.6
5088
1234
100.6
84.03
268.3
212
0.01963
1.637e+05
147.1
0.05594
10.64
67.59
3.155e+04
6088
5.738e+04
12.24
355.2
1908
18.2
0.06974
76.9
3406
0.02088
33.91
56.41
102.3
47.42
27.57
12.77
1886
108.1
124.6
5913
0.06093
1393
0.07988
46.49
128.8
0.02297
0.1107
40.03
314.3
151.9
2.409e+04
0.054
0.02175
5.005
195.2
1248
22.95
9.708
0.01955
0.03025
718
0.01994
211.2
310.9
0.06553
78.17
33.42
7948
2.567e+04
1.51e+04
0.03319
374.2
52.42
84.07
16.22
11.49
6664
12.5
768.5
208.2
3311
163.9
1.568
1.463e+04
23.51
74.73
28.8
0.04942
49.75
0.3686
0.0219
24.56
114.3
39.71
284.9
38.26
4.702e+04
7.37e+04
10.18
5.447e+05
0.2637
2.902
0.03105
0.0575
26.2
0.02221
251.5
2.155e+04
248.3
2111
38.65
39.41
142.4
51.36
11.4
264.5
14.51
2253
85.51
0.02569
73.93
76.82
0.02204
0.04026
886
0.02185
82.71
113.6
203.4
7.152
1278
0.09303
33.12
0.03831
495.9
5187
542.3
53.93
0.02143
318.7
0.02157
0.264
94.72
35.57
1.432e+04
101.3
412.1
12.99
1138
0.4728
0.2014
16.14
216.2
0.02084
4.721
0.02185
532.1
833.8
160.3
42.99
0.02161
356
283.4
53.23
1.437e+04
96.6
1057
0.0232
50.91
3.388
2.088
134.7
24.7
0.07486
4.182
0.1123
19.2
52.85
0.02069
0.02027
0.02226
0.03844
0.1361
1365
280.6
0.02184
186.1
11.46
127
0.02194
185.4
0.07143
918
0.08588
1.085e+05
84.32
974.2
0.04167
0.08788
1.528e+04
0.02746
124.1
148.9
212.4
149.2
53.03
0.02181
216.4
269.2
50.16
47
42.05
7.973
20.69
68.74
1037
0.02151
16.15
42.09
1887
0.1007
0.02209
128.3
659.1
16.44
19.64
14.47
301.5
0.04656
26.52
263.9
10.21
95.06
96.36
0.02557
5.233
1.582e+04
108.9
87.87
1933
1.36
6.861
0.02167
0.02701
0.1152
0.04408
1.516e+04
77.99
0.02195
0.02272
81.89
7.597e+04
0.02194
17.54
5645
123.8
4.792
92.85
1488
55.66
17.17
440.6
2.941e+04
966.7
0.02192
35.4
41.59
66.38
0.02139
0.2987
105.1
20.15
202.2
1.879e+04
2461
18.92
401.1
3.053e+04
12.88
439.8
16.71
1.141
0.7271
925.7
1.043e+04
0.02158
107.3
102
0.02193
2196
13.38
1.649
0.0636
50.87
424.9
142.4
36.26
0.02174
0.0218
16.77
90.03
0.02005
86.4
0.0249
1058
11.47
13.63
308.1
822.8
21.97
53.01
0.02141
1.831e+04
23.87
1894
332.6
0.08529
346.6
143.5
110.6
1.437e+04
9.229
1.342e+04
0.02076
0.02124
20.93
0.05229
0.0214
3.511e+04
169.7
260.3
1549
193.5
27.59
0.02715
3.404e+04
0.03832
72.94
0.02026
0.1121
115.2
27.23
33.59
50.56
9.146
423.2
0.02047
33.92
1847
1529
2428
0.1181
30.3
15.01
0.02195
393.8
177.1
0.6854
0.04653
53.49
1.478e+04
0.02184
0.02152
20.67
1181
10.19
1379
0.02206
2399
64.96
106.3
0.02208
0.06579
537
187.4
954.4
17.99
15.85
0.02046
439.9
0.02955
444.4
2.396e+04
0.05482
76.05
11.12
3472
9597
503.6
0.05284
0.02047
40.82
0.1525
0.02164
185.9
257.3
13.21
0.02036
0.06677
0.09264
0.02688
296.3
39.41
0.02174
514.8
75.99
566
0.02583
0.02191
0.02164
0.0493
87.73
24.1
376.2
1.519e+04
9086
69.26
2.977e+04
1834
0.02265
1.294e+04
48.52
1319
9.238
0.1192
10.99
3109
376.4
1360
232.1
0.06037
20.64
249.7
88.14
45.37
0.1781
115.9
0.1682
251.5
0.03463
27.05
14.37
87.08
0.1997
365.9
2.817e+04
2187
0.02061
1.582e+04
28.8
0.01996
137.5
0.02181
833.7
48.06
0.1197
156.2
176.4
0.0223
1.054
10.95
4224
0.02247
0.1325
5080
4.872
0.02157
1229
22.6
0.03021
0.1253
19.44
146.7
1.944e+04
364.7
50.42
14
354.2
0.5689
0.02169
0.04506
276.1
85.1
55.57
0.02207
4.063e+04
187.5
30.92
88.2
24.36
56.5
0.02017
0.05615
268.1
103.2
0.04164
102.5
455.2
12.72
1.461
3.046
9.942
0.03773
8.972
30.12
186.7
15.47
0.02205
603.1
0.161
25.03
6.04
3.409
1917
43.45
1.033e+05
19.53
0.9432
0.2066
0.02119
6.242
23.57
1432
511.1
89.1
309.2
1389
47.79
0.3962
48.59
346.8
2737
40.78
0.04138
828.4
0.6745
657.6
13.53
11.47
22.22
190.9
0.02179
103
0.1961
0.02164
4.766
814.9
1.291
7.037e+05
424.4
384.4
0.02166
50.88
99.32
0.0468
28.74
43.89
1169
182.1
1236
0.02188
67.19
0.02067
3.401
142.3
121.9
5.543
365.1
5.25e+05
0.02152
0.02174
41.76
92.46
709.3
1.249
56.84
445.7
26.69
12.19
0.02184
266.4
1003
0.07249
19.82
0.02156
77.57
0.05037
49.85
293.3
64.96
0.3267
717.2
184.2
0.0262
261.3
78.9
1.619
0.02148
0.02312
311.4
1804
22.42
10.06
41.97
15.85
145.2
21.24
0.0194
0.1699
1.013
2.869e+04
998.4
874
0.02134
359.8
118
900.9
667.2
7415
2.187
43.99
90.74
59.81
422.1
1580
24.31
0.07009
11.65
0.031
5.274e+04
0.02258
12.85
333.9
31.73
12.24
533.9
37.33
4400
11.49
216.7
45.36
4.823
163.2
2.777e+04
19.72
1.555e+04
1.066e+04
0.02175
1.721e+04
95.02
810.1
1039
46.63
38.21
120.3
71.64
14.61
0.03779
18.95
13.33
45.64
21.68
38.05
0.4332
1.735
29.72
1.778e+04
35.7
3275
85.47
363.7
0.02027
321.9
48.36
1537
12.36
6911
160.1
237
0.07537
1218
0.06627
19.44
25.87
0.06645
0.5636
17.07
23.28
64.47
141.6
15.61
153.5
24.13
6952
20.67
9.525e+04
0.03667
40.7
94.41
11.42
0.04692
462
0.02174
0.02216
0.02174
29.73
127.1
313.9
12.22
0.08302
26.18
0.03887
9.416e+04
1140
1.696e+04
195.2
0.07192
449.2
1680
0.07281
801.2
0.02187
42.37
9.264
304.4
31.72
0.02129
0.02141
66.24
9.305
0.03695
1.818e+04
136.7
0.02095
0.0218
53.46
0.03093
417.5
3549
0.02957
3.801
278.2
700.6
156.3
1.901e+04
6.741
0.1369
37.14
230.9
0.1554
159.7
24.96
1.04
433.1
59.22
5.517e+05
0.0258
70.11
2769
1066
0.02184
22.06
0.02177
18
46.78
34.83
46.75
229.1
31.67
0.1587
717
811.6
384
640.2
457
33.42
53.56
62.21
141.8
18.36
279.5
0.02196
1.614e+04
6293
794.6
34.38
8.018
1128
365
0.264
0.287
2.217e+04
68.76
0.05264
0.03137
0.05161
268.6
501
29.11
1846
134.1
0.03659
102.8
55.88
54.91
309.5
9.811e+04
399.6
52.83
412.5
24.62
53.47
1197
32.26
23.69
10.29
825
21.45
0.2361
30.21
394.7
0.0957
86.89
0.2946
20.3
1.878e+04
378.6
0.02204
260.9
19.66
8773
499.6
0.02142
0.09524
434.6
0.03083
23.11
987.5
272
10.3
0.02175
0.1721
13.39
14.19
0.07755
281
0.02077
362.6
22.54
215.3
150.8
49.16
49.32
284.1
243.6
0.1721
78.48
0.02182
2.535e+04
0.03636
0.03003
155.6
0.02184
16.78
10.2
3.372e+05
0.02196
64.5
64.3
317
270.7
0.1992
38.71
22.41
251.5
1281
28.27
0.09705
0.02212
160.2
240.9
20.83
37.24
572.6
1155
0.7937
0.02114
30.27
176
3.903e+04
44.58
44.29
0.6916
174.5
0.02151
13.9
2432
695.5
0.02197
0.1881
496.4
0.01982
69.03
837.5
48.53
0.02195
0.022
9.091
0.02389
0.02013
0.02173
9.017
311.8
741.6
1.838
124.5
7.97
16.76
0.02225
14.4
57.49
0.04185
0.7269
674
15.17
0.02573
878.4
35.35
9.243
1.615e+04
2.017e+04
0.02549
51.33
20.41
248.5
39.43
1848
0.02194
93.1
1.768e+04
2.611
150.6
0.3768
1078
34.11
153.4
12.17
9026
0.06237
5702
34.99
0.0254
0.02959
0.02006
125.7
19.03
1315
105
2.894e+04
0.09684
0.01942
104.1
174.1
0.07983
0.02188
514.8
10.51
624.5
34.74
783.5
146.8
47.1
5.787
203.8
0.01974
9138
97.08
34.35
12.09
0.08861
0.02206
19.35
12.81
286.4
1954
33.54
0.04449
150.6
16.27
0.06101
0.02191
773
161.7
2583
109.4
24.76
0.8485
35.47
15.23
5.519
72.35
0.3633
0.1306
0.02192
39.14
7192
27.34
0.4121
2272
0.4839
0.02168
22.35
0.02762
0.02203
20.41
0.0194
0.01933
2.142
0.02011
27.3
2.431e+04
320.3
16.44
0.1348
0.02113
0.02197
45.13
173.5
12.55
1.736e+04
15.62
0.03027
10.18
161
1323
3.307
0.02198
2.866
57.7
0.02203
0.02136
41.8
182.4
0.05122
0.02931
51.42
0.02131
1.423
0.02151
9.808e+04
1.976
488.3
9.314
0.02787
0.4774
11.44
18.38
424.6
18.58
66.93
18.5
0.02214
1.209e+04
15.59
190.1
0.02191
207.7
137
64.48
328.4
0.2195
198.6
10.01
0.1375
1469
0.02205
2.153e+05
12.48
9624
0.02197
256.6
0.02175
0.1079
2.72
3287
12.99
110.3
19.84
0.109
1593
0.1236
826.4
1889
10.54
0.09574
0.05172
623.8
0.02162
2.851
18.66
152.4
12.22
0.0218
5039
0.03288
110.8
336.4
65.2
608.9
4387
24.13
560.1
86.08
1.433
14.92
0.506
0.02173
0.02181
313.4
10.76
6300
75.36
25.24
0.02179
53.83
0.02179
0.02172
0.03044
128.2
0.107
20.04
0.03385
29.83
0.1849
50.89
211.4
906.8
0.02639
179
102.1
77.88
0.1651
18.21
0.02187
79.83
0.3863
44.32
3.367
0.03533
196.5
3.748e+04
158.9
1032
19.23
1.125e+04
875.8
13.83
18.21
721.5
171.6
4.424e+04
279.3
20.21
49.15
67.22
29.87
538.2
358.3
0.03891
31.95
0.08542
342.4
1.029e+04
67.83
655.4
346.3
12.82
169.8
0.03301
190.8
26.91
2.071e+04
10.8
0.02276
17.25
30.51
125.9
0.05764
61.57
134.7
21.55
1.67
121.2
14.9
4229
145.1
74.41
26.79
16.62
491.2
0.02475
252.2
3.92
0.02402
44.19
45.53
225.2
342.2
103.1
0.02202
390.9
13.08
0.1097
1.664
275.3
6.267e+04
101.8
0.02086
0.02417
0.4709
182.8
50.94
0.02151
2.975
208.2
408.4
5811
0.02103
204.2
2538
35.59
4.817e+04
65.47
83.65
185.3
22.01
162.7
0.02354
47.78
2245
48.5
231.3
1.255
20.89
0.02178
0.06718
233.4
116
20.19
743.8
51.8
0.02174
2253
61.5
0.3393
276.4
5301
6882
0.04041
0.1351
0.02467
73.57
1845
362.4
970.1
340.7
101.5
0.02181
50.44
4.608
9.089
2842
0.4092
1.739e+04
64.44
1509
0.03384
132.6
1266
0.02171
125.1
69.46
106.6
10.36
0.0219
0.02172
0.03855
26.41
0.02173
14.2
6117
0.1142
15.81
255.8
0.03856
57.33
10.66
0.2589
1500
96.03
6176
49.93
0.02177
157.1
1708
0.0217
4050
14.3
46.29
29.58
188.2
57.38
159.4
14.74
10.94
0.02194
11.66
0.02178
0.05515
1118
108.5
43.68
35.17
0.8103
123.9
0.02178
0.01966
0.06349
74.35
30.33
67.63
1.741e+04
20.78
0.6248
197.7
0.4934
28.22
0.02136
514.2
455.7
15.9
12.15
81.19
97.83
38.49
20
1.047
0.02232
63.38
16.13
103.6
1360
1.603e+04
436.4
0.0215
48.22
20.82
20.66
8.115e+04
0.02166
62.75
23.81
24.66
52.11
20.92
5.008e+04
56.65
20.56
460
2451
12.22
71.77
2406
2.102
0.02168
258.9
15.86
38.1
76.17
15.08
1.699
0.04288
663.7
236.9
870.4
73.71
722
170.9
0.02172
147.9
47.13
53.65
18.62
0.01936
267.5
39.21
25.38
7.81
0.02133
206.2
11.44
5.413
41.97
206
83.3
29.51
393.2
372.9
0.01992
77.07
34.15
62.76
435.8
146.3
32.86
21.15
26.82
9.444
120.4
497.6
1.649e+04
627.7
697.7
9329
31.89
0.07915
2.264e+06
331.9
1507
0.03508
1676
1221
250.8
27.9
0.02192
2.258
0.02179
15.28
64.42
4.41
0.7876
15.16
617.4
20.79
2.111e+05
13.3
249.8
733.9
1.555e+04
427.4
210.4
17.66
0.09386
75.41
16.53
1.92e+04
60.02
0.3596
0.7971
1490
1.096
0.022
0.02172
30.65
47.48
0.04483
0.02017
0.02194
499.9
156.9
9881
0.02155
0.02972
56.99
0.01977
0.0199
300.8
0.05254
119.9
643.7
0.05257
1324
8.116
49.47
9.699
30.93
0.05853
56.29
17.46
6.402e+05
29.86
352.9
1007
1229
15.65
0.02965
9.641
629.9
0.02173
14.66
151.6
568.3
1.301e+04
111
33.71
664.7
0.02583
110.1
2364
218.1
80.41
59.51
0.06972
30.67
17.46
1804
126.7
169.7
0.04589
838.1
264.6
0.03542
19.06
0.06545
43.19
0.02779
1654
1.662e+04
0.02856
470.3
122.9
0.1444
387.2
65.4
0.02266
5850
56.49
186.4
485.3
0.03604
16.91
5.077e+04
74.71
412.9
19.33
20.04
2.843
14.19
157.4
0.0575
1.622
55
58.5
25.8
14.37
50.18
5.906
62.5
493.7
51.56
5.772
2.209
0.0218
0.09593
607.4
17.63
0.01937
2.901
34.46
3.729
161.9
68.08
29.14
0.1004
563.9
81.03
0.1078
35.03
68.35
0.08118
605.3
0.04591
826
9.142
0.1937
0.06656
9.776
671.3
56.52
0.02096
72.49
162.8
109.8
0.1624
0.02204
12.29
335.3
617.3
36.04
56.03
11.16
524.3
17.39
30.64
2.24e+04
13.16
1.779
4.541e+04
394.8
15.02
14.21
0.02204
1.218e+05
0.02223
25.8
105.1
96.97
133.9
115.9
1.963e+04
11.15
11.48
23.91
3.069e+04
460.5
12.81
4.216e+04
6581
464.5
116.9
0.1827
0.6278
17.08
24.23
0.02187
371.1
2.057e+04
0.04519
61.4
6.165
16.68
258.4
411.4
4.049e+04
1581
200.1
0.01954
0.01929
0.02178
540.9
2151
1.356
0.02159
0.1587
2594
5.795
4.475e+04
74.63
0.02228
3.876e+04
0.01941
1.71
10.84
0.04325
16.28
0.3294
1.352
0.07338
313.5
17.42
55.13
111
2.332e+04
11.95
165.9
190.9
10.16
0.02213
9407
420.8
222.9
88.7
945.2
204.1
95.87
0.06287
23.99
241.3
29.54
373.9
0.02902
1081
31.18
368.3
13.14
0.2008
0.4641
0.02192
232.3
33.05
118.1
180
12.59
670.7
49.57
19
13.4
138.4
0.164
946.4
168.8
149.3
33.09
0.06423
9.795
0.09779
60.32
22.6
117.7
3.762
532.9
17.44
14.48
366.3
0.2304
1996
27.77
0.564
0.08919
3.568e+04
283.6
210.5
28.53
5582
0.02204
6490
516.7
65.68
54.7
59.35
72.6
81.38
15.77
78.47
69.27
180.8
3633
0.06729
0.02187
0.02186
107
203.8
1.956
2.473e+04
118.7
9289
854.2
92.2
1843
1.836e+04
10.51
419.2
750.5
47.93
1.914e+04
0.02167
75.66
596.2
605.7
0.02157
578.8
41.8
204.6
284.6
401.3
0.02171
10.86
230.1
834.4
0.0209
196.1
13.28
0.1805
3.08e+05
0.03292
11.3
13.28
234.2
309.5
0.2933
35.55
2.648
197.2
711.2
144.7
0.01942
13.72
6.576e+05
0.02574
0.02293
1929
838.3
50.31
416.1
0.06156
31.61
61.25
49.36
34.2
172.8
0.02
46.29
12.79
0.199
0.02195
38.27
0.02125
8.169e+04
44.48
1.891
9.557
1.329e+04
0.0217
147.8
0.02001
0.02216
657.8
0.335
1262
10.09
0.04337
44.7
362.1
20.88
19.98
28.53
374.7
120.7
517
487
473.3
5317
851.8
55.66
363.8
232.3
179
0.2523
0.02113
0.02118
3656
24.14
305
4.274e+04
0.02184
267.3
0.4474
0.02038
16.21
4.605e+04
11.14
411.7
2609
0.02206
552.5
42.48
16.08
9.756
28.37
1807
101.9
0.02175
4.644e+04
1313
0.06325
0.02414
1172
173.8
582.2
507.3
125.9
277
0.02171
262.4
0.02118
140.6
491.3
4.12e+04
0.01955
0.01931
0.1486
147.5
0.03132
16.51
1.934
9.804
23.14
50.39
249.5
0.05027
0.02864
1.784e+04
2.144e+04
25.22
760.2
0.04538
303.1
0.0221
131.2
1269
447.2
2254
230.3
428.6
349.2
0.3196
29.54
30.85
0.02547
0.02181
0.02176
11.88
192
780
3.039e+04
281.9
0.02537
380.1
881.8
414.6
3.358e+04
61.73
509.7
291
85.06
0.05556
2.287
20.72
1.004
0.08216
908.2
23.1
39.75
47.35
583.9
0.3308
0.01974
1.739e+04
14.63
10.83
36.22
2.111e+04
24.41
0.02083
115.7
26.43
182.9
7.167
357.1
340.1
2.04
134.1
15.9
0.06308
175.9
0.04443
0.0792
2.644
1112
19.76
1002
20.56
47.96
42.04
0.03003
74.47
340.5
0.2488
41.12
4.455
1.884e+04
0.03134
0.02461
76
72.37
163.4
23.6
24.07
2346
0.06354
0.02183
24.58
1838
0.02505
0.5894
39.05
0.02163
1.852e+04
0.06274
36.11
79.59
39.01
0.5733
393.4
2077
33.12
0.05769
0.02176
17.56
50.05
91.12
14.99
0.0214
0.02019
0.02173
79.76
193
221.5
0.05178
754
34.08
437.3
49.04
794.1
3.096
0.03087
4124
0.02194
815.8
35.55
0.03154
115.5
73.53
240.3
131.6
140.7
13.99
6.134
0.06621
2270
1265
2150
0.1655
0.5814
0.02173
1.872e+04
0.0216
159
1819
0.02236
17.91
105.5
375.9
0.08026
14.09
1.297e+04
22.91
0.02166
19.45
441.3
81.09
149
13.87
33.04
1.539e+04
15.43
0.02071
0.02248
1.122e+04
22.85
382.7
12.03
51.28
0.02118
0.02193
1.913
6.816e+04
1810
482.7
348.5
0.8438
307.4
1488
122.6
233.3
0.02189
656.8
10.85
318.2
18.01
15.93
0.0216
605
13.76
1.572e+04
1.926e+04
13.04
14.58
1.514
1022
0.02606
9.71
1.708e+04
453.1
168.5
1879
6965
124.7
190.8
0.1184
952.5
245.2
1564
38.35
0.02684
1087
7212
0.02173
325
3480
374.1
904.2
45.66
12.69
167
42.09
0.03215
63.11
0.02211
105.2
0.106
1.411e+04
0.1278
4060
44.91
266.5
21.02
12.67
498.5
15.29
161.7
786.8
72.15
31.53
9.099
43.42
158.2
513.2
66.29
0.02491
22.69
20.56
60.27
118.3
80.82
275.6
49.98
0.02524
47
2.214e+04
16.13
11.06
135.1
0.03917
41.24
0.0216
43.17
5.684e+05
8.604e+04
451.9
23.73
40.27
0.02102
0.05056
19.24
23.03
65.02
5.828
0.02186
38.96
67.46
150.3
54.44
0.0217
860.5
1323
5.848e+04
10.94
25.42
59.04
564
0.04071
184.3
9.941e+04
0.851
19.99
0.2673
309.8
5.202e+04
17.23
13.11
74.32
32.43
0.02556
157
0.01988
1.647e+04
59.69
13.45
1282
6.599
156
35.67
2.88
0.0547
0.02199
0.02156
49.48
17.3
29.98
8.898
29.36
57
1.965e+04
0.8281
297.1
0.2248
0.02184
977.9
0.02198
13.06
643.9
4.826
23.84
21.84
4.809e+04
257
20.33
266.9
124.3
77.64
0.1326
1.731e+04
0.02173
5.555e+04
2811
81.61