/*--------------------------------*- C++ -*----------------------------------*\
  =========                 |
  \\      /  F ield         | OpenFOAM: The Open Source CFD Toolbox
   \\    /   O peration     | Website:  https://openfoam.org
    \\  /    A nd           | Version:  8
     \\/     M anipulation  |
\*---------------------------------------------------------------------------*/
FoamFile
{
    version     2.0;
    format      ascii;
    class       surfaceScalarField;
    location    "35";
    object      phi;
}
// * * * * * * * * * * * * * * * * * * * * * * * * * * * * * * * * * * * * * //

dimensions      [0 3 -1 0 0 0 0];

internalField   nonuniform List<scalar> 
189008
(
7.344e-08
-7.344e-08
1.702e-08
-1.702e-08
1.263e-08
-1.263e-08
1.811e-08
-1.811e-08
-6.51e-08
6.504e-08
1.837e-08
-1.837e-08
5.694e-06
-5.694e-06
-1.022e-06
1.022e-06
-5.767e-07
5.767e-07
9.325e-07
-9.326e-07
1.014e-05
-1.014e-05
-2.478e-06
2.478e-06
-2.307e-09
2.307e-09
-2.007e-08
2.007e-08
-3.51e-05
1.698e-05
1.812e-05
6.577e-06
-7.49e-06
9.131e-07
-5.879e-08
5.879e-08
0.006026
-0.005344
-0.0006822
-0.001392
0.0007448
0.000647
-5.476e-06
6.275e-06
-7.992e-07
0.0007797
-0.00066
-0.0001197
6.944e-07
-3.849e-07
-3.095e-07
-0.003285
0.0102
-0.006914
2e-05
0.0005009
-0.0005209
4.214e-07
2.73e-07
-0.0002631
0.0001477
0.0001155
-1.249e-05
1.377e-05
-1.281e-06
-1.38e-05
1.309e-06
0.0001827
-0.0001419
-4.076e-05
0.008721
-0.01931
0.01058
-4.719e-05
-0.0002113
0.0002585
-7.119e-05
-0.000192
-8.683e-06
5.187e-06
3.496e-06
-0.0001201
7.129e-05
4.885e-05
0.01102
0.01088
-0.0219
-3.71e-06
-4.973e-06
3.582e-05
0.0002848
-0.0003206
-0.0003149
0.0005956
-0.0002807
-4.718e-05
0.0005926
-0.0005454
-5.3e-05
6.128e-05
-8.287e-06
-0.0009705
-0.0004214
0.002097
-0.003784
0.001688
0.0007218
-0.004567
0.003845
7.011e-09
-7.011e-09
0.001912
0.004114
-6.477e-05
-5.537e-05
0.0001203
6.242e-05
-0.0004767
0.0004791
-2.337e-06
-0.0007976
0.0009623
-0.0001647
-3.018e-05
0.0004784
-0.0004482
2.287e-06
4.29e-06
-0.01436
-0.02992
0.04429
-7.705e-05
-8.066e-05
0.0001577
-0.01321
0.01201
0.001195
1.083
-0.1285
-0.9542
0.0009339
-0.0007501
-0.0001838
-0.1463
1.229
0.01189
-0.007358
-0.004531
-0.3133
0.01911
0.2942
-0.005482
-0.007724
-0.002366
0.0002521
0.002114
-0.000496
0.0008814
-0.0003854
-0.000225
0.001838
-0.001613
-0.8101
0.9552
-0.1451
-4.031e-05
9.162e-05
-5.131e-05
-0.0003692
-0.003068
0.003437
-0.02914
0.02367
0.00547
0.002241
-0.001857
-0.0003838
0.0006174
0.001623
-1.278
0.4805
0.7977
-6.984e-05
-0.0003088
0.0003786
5.612e-06
8.157e-06
-0.001141
-0.0004892
0.00163
-0.1163
-0.197
-0.274
0.5164
-0.2424
-5.882e-06
-7.917e-06
-0.05127
0.09199
-0.04072
-0.000588
0.0005481
3.987e-05
0.0004927
0.0004412
0.1601
-0.6342
0.4741
-0.0001795
0.0001366
4.283e-05
-1.788e-06
-3.687e-06
0.0001108
0.0001324
-0.0002432
1.07e-05
4.805e-05
-5.874e-05
0.0001333
-0.0003495
0.0002162
-0.0003123
0.0004913
-0.000179
-0.0006766
0.00129
-0.000613
1.712e-05
-4.961e-06
-1.216e-05
-0.003082
0.002713
-0.0004061
0.0007426
-0.0003366
0.1846
-0.02082
-0.1637
-0.005765
-0.006
0.01176
-0.0002634
0.0009334
-0.00067
0.0004428
0.000337
0.0004229
-0.0004312
8.306e-06
0.02741
0.01427
-0.04168
0.003306
-0.001209
0.000261
-0.000264
3e-06
-0.0004264
-7.815e-05
0.0005046
-0.01879
-0.01035
0.6863
-0.5263
-7.895e-06
-0.0007897
-7.31e-05
-0.000262
0.0003351
0.004227
-0.005152
0.0009247
9.709e-05
-0.0004094
-0.0005609
0.0001345
-0.001113
0.001597
-0.0004842
-1.001
-0.2776
-0.001171
0.0005957
0.0005751
-1.154
0.876
0.278
8.82e-06
-4.392e-05
1.235e-05
4.766e-06
-0.0006134
9.009e-05
0.0005233
0.0007628
-0.001131
0.0003683
-0.2122
0.09651
0.1157
0.0005773
0.002479
-0.003056
-0.1068
0.05883
0.04794
0.1656
-0.4396
0.02381
-0.07509
4.187e-07
-3.341e-07
-8.457e-08
-1.253
0.09856
6.211e-05
0.0001142
-0.0001763
-0.0004045
-0.0007243
0.001129
0.01372
-0.01177
-0.00195
-0.0001185
-6.096e-05
0.0001906
-0.0001765
-1.416e-05
-0.0005387
-0.000265
0.0008037
0.08836
-0.1037
0.01534
-0.0003073
0.0001128
0.0001945
-0.0006316
0.0005106
0.0001209
0.0004912
-0.0001591
-0.0003321
0.0003845
-0.0001458
-0.0002387
-0.000386
-0.001339
0.001725
-0.0002428
-0.0003452
1.4e-07
-1.071e-07
-3.294e-08
0.0005155
-2.429e-05
-0.005753
0.03693
-0.03118
-0.0002568
0.0005112
-0.0002544
-0.0001647
0.00019
-2.525e-05
0.03411
-0.05627
0.02216
0.008927
0.0003552
-0.009283
-0.04853
-0.04158
0.0901
-0.0002511
0.0003348
-8.375e-05
-0.0007199
0.0004229
0.000297
-0.0001721
9.501e-05
0.001515
-0.0006752
-0.0008402
-5.125e-05
-2.013e-05
7.138e-05
-0.02778
-0.7823
0.0004803
-9.58e-05
0.0002328
-0.0003409
0.000108
0.002507
-0.003715
0.001208
0.001106
-0.0003027
-0.0008037
0.001508
-0.001707
0.0001994
-0.008915
0.000424
0.008491
0.0001153
-0.0002915
0.0001762
0.000329
-0.0001957
0.007883
0.004005
0.0006254
-0.0005114
-0.0001141
-0.0001043
-0.0003724
0.0001157
-0.0002208
0.0001051
-0.0002801
0.0005156
-0.0002354
-3.292e-05
3.292e-05
0.191
-0.006408
0.000622
-0.0001974
-0.0004247
0.0001287
-0.0002732
0.0001445
3.394e-05
-7.424e-05
-0.0003338
3.857e-05
0.0002953
6.047e-05
0.001606
-0.001666
3.429e-06
3.858e-06
-7.286e-06
-0.0422
0.03364
0.008553
4.145e-06
1.094e-05
-1.508e-05
-0.0004107
-0.0003092
-0.004474
0.001901
0.002573
-0.002664
0.0008646
0.001799
1.022
-1.195
0.1733
-0.0001033
7.252e-05
3.077e-05
-0.0007867
0.0004385
0.0003482
-0.0001597
-0.0001477
-0.0004269
0.0008334
-0.0004065
0.1208
-0.1483
0.02747
-0.001746
-0.0009175
-0.1209
-0.002837
0.1238
-3.816e-05
6.836e-05
-3.019e-05
-6.492e-05
-3.837e-05
-0.0002635
-0.0003681
0.0003063
-0.0008022
0.001051
-0.007336
0.006285
-0.0001432
0.000906
0.0005153
-0.0004953
-0.005556
0.08662
-0.08106
-4.707e-06
0.0001632
-0.0001585
-0.0001357
-4.079e-05
0.0001765
-0.04461
0.03886
0.0008419
-0.0009956
0.0001537
8.12e-08
0.0001956
0.0006208
-0.0008164
-1.471
1.2
0.2713
-1.462
1.192
0.2699
1.495e-06
5.472e-08
-1.549e-06
-0.1669
0.1325
0.03432
0.2051
-0.03826
-0.1668
-0.05834
0.04847
0.009874
0.02668
-0.07008
0.0434
0.0002714
-0.0002356
-4.915e-08
4.915e-08
0.0003306
-0.001143
0.0008125
0.02568
-0.007434
-0.01824
0.002735
-0.0006288
-0.002106
0.03364
-0.02492
-0.2085
-0.003696
0.001679
-0.02197
0.02029
-0.0003639
0.000264
9.989e-05
-0.05934
0.2021
-0.1427
1.498e-06
1.932e-06
7.953e-06
-0.0002582
0.0002503
1.447e-06
-1.809e-06
3.621e-07
-1.686e-05
1.529e-05
1.565e-06
0.003467
-0.002087
-0.00138
-0.0001108
0.0003941
-0.0002833
0.02189
0.003793
-0.0007102
0.0003096
0.0004006
-0.471
0.2216
0.2494
0.0009744
0.0001321
0.0001562
-0.0001687
1.248e-05
0.000108
6.138e-05
-0.0001694
-2.934e-05
2.419e-05
5.151e-06
-0.0002263
0.000355
0.0002958
-0.0006108
7.35e-05
-7.534e-05
1.843e-06
0.0005602
-0.0005037
-5.652e-05
-0.0007004
0.0001886
0.0005118
-0.04659
-0.07433
-0.00169
0.0005493
-4.308e-07
5.075e-07
-7.667e-08
-0.0004288
-0.0002716
-0.02343
0.01842
0.005002
0.0002018
0.0004202
5.379e-07
-5.379e-07
0.2264
-0.02133
-0.0002936
6.678e-05
0.0002268
-0.0002556
0.0001199
-6.034e-05
0.0001283
-6.791e-05
0.0003363
-0.000234
-0.0001023
0.0003135
0.0003119
0.000121
-2.371e-05
-9.727e-05
2.695e-07
1.492e-07
0.0009553
0.0004387
-0.001394
1.466e-05
-1.328e-05
-1.383e-06
3.921e-06
-3.921e-06
0.197
-0.9671
0.7702
-0.0001631
-0.002002
0.002165
-6.867e-05
0.0001693
-0.0001006
0.002246
-0.001058
-0.001188
-0.0007564
0.0002525
0.0005039
-0.0001611
0.0007321
-0.000571
0.0006576
-0.0003931
-0.0002645
0.1174
-0.02906
5.526e-05
-0.0001226
6.734e-05
-0.0002219
0.001404
-0.001182
-0.008911
-0.001151
0.01006
0.001009
-0.0005463
-0.0004627
-0.06436
0.09655
-0.0322
-0.01491
0.009143
-0.08837
0.03985
0.0001586
-1.197e-05
-0.0001466
-9.721e-06
-8.012e-05
8.984e-05
0.0001501
-0.0003057
0.0001556
7.158e-05
-0.0002213
0.0001497
-0.001068
-0.0006362
0.001705
0.003011
-0.005369
0.002358
-0.0003507
-8.043e-06
0.0003587
0.8574
0.1643
0.0004326
-0.0005655
0.0001329
-0.0003019
8.292e-06
0.001278
-0.00219
0.0009124
0.0001954
-0.0002001
-0.0003399
-0.0002735
0.00107
-0.001247
0.0001767
-0.3778
-0.4368
0.8146
0.0007152
0.001258
-0.001973
-0.5427
-0.3507
0.8934
0.0431
-0.01569
0.004294
-6.739e-05
-0.09106
-0.1653
0.2563
0.04589
0.1207
-0.1666
1.912e-07
-5.879e-08
-1.324e-07
-0.0004941
0.0004
9.406e-05
-0.07553
-0.1017
0.1772
0.001317
-0.0009707
-0.0003467
0.1739
-0.05313
4.244e-05
0.001465
-0.002449
0.00534
-0.002891
-0.01091
-0.01252
0.000936
0.001356
-0.002292
-0.2055
0.2364
-0.03092
-0.0005116
0.0008366
-0.0003251
-0.0001953
-0.0001319
0.0003272
-5.083e-06
1.267e-05
-7.59e-06
0.0001334
0.0002029
0.003828
-0.0008162
-0.0001473
-0.0002436
0.000391
-0.003809
0.001057
0.002752
-0.001226
-0.001694
0.00292
0.003587
-0.00301
-8.996e-05
0.0001515
-6.152e-05
0.0004827
0.0001225
-0.0006052
0.002512
0.0002228
-0.1825
0.1232
0.0005198
-0.0001602
-0.0003597
-0.003323
0.003353
-2.998e-05
0.001258
0.0001157
-0.001374
-5.017e-06
5.747e-06
-7.3e-07
-0.0006232
0.0004149
0.0002083
-0.8564
0.3137
-0.257
0.1333
0.1237
0.0002875
0.0001771
-0.0004646
0.000209
-7.25e-05
-0.0001365
-0.0001195
-0.0001921
0.0003116
0.01932
-0.009797
-0.009526
0.1991
-0.1893
-0.009785
0.008825
-0.01211
-0.0003537
-2.179e-05
0.0003755
0.09665
-0.05378
-0.04287
0.001565
0.0006809
0.0005
-0.0002125
0.0001262
-0.000121
-5.168e-06
-0.01696
0.03191
-0.01495
-3.305e-06
-1.766e-05
2.097e-05
0.0006411
-0.0002281
-0.000413
-0.001682
0.0004688
0.001214
-0.001089
0.0005938
0.0004954
0.1944
-0.1485
-0.006231
0.01725
-0.5011
-0.9703
-0.4975
-0.9642
-0.01064
0.001728
-0.0009589
0.0007692
0.0001897
-0.004248
-0.000226
-0.0003562
-0.0007329
-3.641e-05
-0.0003532
0.0003896
-0.0134
0.04751
0.002348
0.001119
0.0002045
-9.858e-05
-0.0001059
-3.903e-05
-8.957e-05
0.0001286
-0.0003832
-4.107e-05
0.0004243
0.0003693
0.0009482
-0.0002792
0.0001132
0.000166
0.0003466
-0.0004335
8.694e-05
0.0004938
-0.0003506
-0.0001432
5.448e-05
-0.0002363
0.0001818
-0.0006723
0.0005369
0.0001354
0.0005817
-0.0007757
0.000194
-2.918e-06
8.485e-05
-8.193e-05
0.0001563
-0.002289
-0.02694
0.02923
-0.0003496
0.0003093
4.036e-05
-0.0005853
-0.0001711
5.099e-06
-0.001268
0.001262
0.3004
-0.4095
0.1091
0.0005773
6.376e-05
0.0002442
-0.0004927
0.0002484
-0.002072
0.001847
-0.004897
-0.004075
0.008973
0.0009066
-0.0009467
4.007e-05
-8.801e-05
0.0006865
-0.0005985
0.3812
0.1361
-0.5173
-0.1181
-0.04875
-0.1734
0.2415
-0.06812
-0.0001354
0.0001613
-2.586e-05
0.4314
-0.8092
-0.001516
0.001429
8.647e-05
0.06124
0.03541
0.0001619
-0.0002306
6.677e-05
-0.0005494
0.0004827
0.1165
-0.1221
0.0322
-0.0143
-0.0179
-0.000146
0.0006463
-0.0005003
1.543e-07
1.964e-07
-3.507e-07
-0.0003624
0.0006502
-0.0002878
0.9285
-0.6968
-0.2317
0.0009935
0.002409
-0.003403
4.312e-05
0.0001475
-0.0006877
0.0004992
0.0001885
0.006149
-0.004738
-0.001411
-0.08654
-0.02023
1.292e-05
1.722e-06
-1.465e-05
0.01682
-0.02067
0.003847
4.081e-06
-5.708e-05
-0.0005766
0.0008054
-0.0002288
0.0001815
-0.0005265
0.000345
0.2461
-0.2561
0.01003
0.005655
-0.004926
-0.0007288
1.171e-05
-4.788e-05
3.617e-05
0.000212
0.0005355
-0.0007475
-0.0006785
0.0007479
-6.935e-05
-0.0001301
0.0002647
-0.0001346
0.00366
0.001995
-0.0003059
0.0002587
-0.0232
0.02091
0.009335
-0.07369
6.056e-05
-9.937e-05
3.881e-05
-0.5083
0.03731
-0.0007315
-3.745e-05
0.0007689
-8.578e-05
4.761e-05
0.0001197
0.0167
-0.004484
0.003543
0.0009413
-0.0001723
0.0005771
-0.0004048
-0.002446
0.002418
2.802e-05
0.1109
0.4878
-0.5987
0.0004418
-0.0008686
-0.00025
-0.0001919
0.0004419
-0.0005851
-1.08e-05
0.0005959
0.001099
0.007829
-7.226e-05
-0.0003073
0.0003795
-0.001074
0.0006692
0.0001419
0.000281
-0.0006924
0.0005903
0.0001021
-0.0004166
6.596e-05
-3.239e-06
0.0009929
-0.0009896
-0.0008247
0.0001513
0.0006734
-0.0003737
3.988e-05
-4.458e-05
4.124e-05
3.339e-06
-0.0003335
0.0003594
-2.59e-05
-0.675
0.872
0.0007552
-0.000195
0.008672
-0.01106
0.002389
-0.003526
0.004247
-0.01202
0.0007731
0.01124
-8.966e-05
2.932e-05
-0.01094
-0.006986
0.01793
-1.275
1.437
-0.1617
0.000447
-0.0004513
4.257e-06
-8.3e-05
-4.638e-05
0.0001294
0.005857
0.01223
-0.01809
0.001075
-0.0009883
-8.644e-05
0.5729
-0.1917
0.001033
-0.002092
0.001059
-5.826e-05
0.0002546
-0.0001963
-0.0599
0.04553
-0.02526
-0.1803
0.7003
-0.6546
-0.04571
0.0006803
-0.0007105
0.0666
-0.02968
-0.0003472
-9.842e-05
0.0004456
0.0514
-0.05499
0.003585
3.466e-05
0.0002263
-0.01075
-0.1335
0.1442
0.0004181
-0.0003095
-0.0001086
0.05454
-0.2279
-0.0001814
-0.0001825
0.0005581
-0.0006047
4.663e-05
-0.0007254
0.0004207
0.0003048
-0.001356
0.003016
-0.00166
-7.682e-05
0.0001492
-7.241e-05
-0.01919
0.00733
0.01186
0.0004164
-0.0002218
-0.0001946
0.0003072
9.873e-05
-0.0004059
0.0001213
-1.492e-05
-0.0001064
0.0004602
-0.0001037
-0.0003565
1.65e-05
0.004992
-0.005009
-0.002772
0.002386
-0.000113
-9.275e-05
0.0002057
7.288e-05
0.0003057
-0.0003786
0.002094
-0.001773
-0.0003209
7.941e-05
-0.0001924
0.3528
-0.9421
0.5893
0.1199
-0.0009265
-0.1189
-0.000638
0.0002658
0.0003722
0.0002213
-0.0002376
1.632e-05
-1.538
0.1226
1.415
0.0008132
-0.0004957
-0.0003175
-0.002511
0.01263
-0.01012
0.004935
0.008785
0.0001431
6.592e-05
0.03078
-0.01686
-0.01391
1.413
-0.2684
-1.144
-1.768e-05
-0.0001552
0.0001729
-0.01268
0.01016
0.0001215
-0.0001068
-1.47e-05
9.379e-05
-1.998e-05
-7.38e-05
0.0001547
-0.0001094
-4.527e-05
0.0003236
-1.569e-05
-0.0003079
-0.0002059
2.741e-05
0.0001785
-0.0003574
-0.0002658
-0.0006595
5.72e-05
0.0006023
0.0004157
0.0006591
-1.228e-05
-1.581e-05
2.809e-05
-0.1256
0.2558
-0.1302
-0.0001849
0.0003006
-0.1017
0.0839
0.01781
0.0007526
-0.0005923
-0.0001603
0.00064
-0.001317
0.0002419
-0.0001785
-6.342e-05
0.0003879
-0.001535
0.001147
-1.237e-08
-3.677e-08
-0.0005737
0.0002855
0.0002882
-0.0002193
0.0007669
-0.0005475
0.0301
-0.01814
-0.01196
0.001885
-0.00236
0.0004744
-0.2867
0.2308
0.05587
0.0001124
4.235e-05
0.1168
0.003024
0.0001756
2.563e-05
-0.0002012
0.0007064
-0.0005108
-1.095e-07
1.095e-07
1.451e-07
-1.659e-07
2.085e-08
4.145e-08
-3.897e-08
-2.481e-09
1.196
-0.8183
-0.3778
-0.0001716
-0.000178
4.201e-05
-4.03e-05
-1.719e-06
-0.1452
-0.1119
-0.0006576
4.596e-05
0.0006116
-0.0003013
0.000907
-0.0006057
-0.0003559
0.0003876
-3.172e-05
0.003346
-0.0003112
-0.003035
-1.261e-06
0.0005593
-0.0006203
-0.0001051
0.0005089
0.0003043
5.755e-05
-5.357e-05
-3.987e-06
-0.4362
0.789
-0.0002965
0.0001715
0.000125
4.001e-07
-3.826e-07
-1.757e-08
0.0005339
-0.0006106
7.663e-05
0.0003677
-8.395e-05
-0.0002838
2.11e-05
-1.696e-05
0.06299
-0.1793
0.00335
-0.0008429
-0.05139
0.07808
-0.0002572
0.0003301
0.04348
0.2453
-0.2888
-0.0002882
6.923e-05
0.000219
-3.816e-05
-6.614e-05
0.0001043
8.73e-05
-8.232e-05
-4.973e-06
1.524
-0.9007
-0.623
-0.0004997
-0.0001383
0.009235
0.003941
-0.01318
3.802e-06
-5.449e-06
1.647e-06
-0.0006122
-1.182e-05
0.000624
2.825e-05
-4.321e-06
-2.393e-05
0.000498
-0.0002192
-0.0002788
-0.1074
0.1021
0.005306
3.338e-05
-0.0001614
0.000128
0.0008407
0.0006934
-0.001534
-0.8025
-0.7351
0.002339
-0.002348
-7.136e-05
0.00242
-0.0003959
0.0002006
0.0003081
0.0005985
2.407e-06
0.0002189
0.0001786
-2.852e-05
-0.0001501
-0.0007191
0.0001425
-0.001785
0.002167
-0.0003818
0.0008192
5.762e-06
-0.0008249
0.0001956
-0.0004221
0.0002265
0.0001161
0.0003309
0.1127
0.05578
-0.1685
-7.859e-05
5.888e-05
1.972e-05
5.816e-05
-0.0003488
0.0002906
0.0004432
-0.0004918
4.866e-05
0.001102
-0.00238
0.001278
0.0001317
-0.0002496
0.0001178
-0.7908
0.1139
0.6769
-0.7884
0.6296
0.1588
0.002754
-0.01167
-0.000261
-1.821e-05
-0.0005116
-0.001285
0.001796
0.1374
-0.208
0.0706
1.473
-0.6492
-0.8238
-0.001411
0.002257
-0.0008464
0.0002533
-0.0003744
0.0001211
-0.0006765
0.0002844
0.0003922
-0.0006516
-7.948e-06
0.0001053
9.626e-06
-0.000115
-6.231e-05
5.76e-05
4.717e-06
-0.003015
0.002851
0.0001639
-0.1423
0.1005
0.04177
1.399
-1.277
-0.1226
-9.82e-05
4.83e-05
4.991e-05
-0.0001602
-0.0003332
0.0004934
0.0005125
-0.001634
0.001121
0.314
0.5214
-0.8354
5.014e-06
9.65e-06
0.002541
-0.002979
0.0004382
-0.000308
0.0003022
5.844e-06
0.4917
-0.0003153
0.0003611
-4.588e-05
-0.02788
0.1653
0.0002383
-0.0004106
-0.00015
4.761e-05
0.0001024
0.0006546
-0.0004779
-0.0001766
0.978
0.1616
-1.14
-4.393e-05
-0.0001663
0.0002102
0.000715
0.000294
-7.521e-05
4.229e-05
0.3913
1.021
0.0004316
-0.001544
-1.239e-05
-4.471e-06
0.3945
0.3059
-0.001713
-0.002771
-0.1651
0.005743
0.1593
-0.0003796
-0.0004474
0.000827
-4.329e-05
-1.575e-05
5.903e-05
-0.2801
0.1891
0.000226
-0.0002059
-2.004e-05
0.0002497
0.0004651
-0.0007148
-5.578e-06
8.441e-06
-2.862e-06
-0.0001372
-0.0001331
0.0002704
-0.0003337
0.0001617
0.000172
-0.0001933
-0.000479
-0.0002241
-0.0004636
-4.838e-05
0.0002091
-0.0001607
0.0006912
-0.0007384
0.0006427
-0.0009062
0.0006058
-0.000939
0.0003332
0.0001021
-0.0001161
1.405e-05
0.0002596
-0.0001596
-9.998e-05
0.0003058
-0.0002271
-7.865e-05
-0.5995
0.9135
0.0007493
-0.0005181
-0.0002312
0.1074
-0.1937
0.08633
-0.0005189
0.0001357
-0.1256
0.03509
0.09048
0.0001077
-0.0003588
-0.3425
-0.933
-0.1526
0.07709
-0.002528
-0.004942
0.00747
-0.0004003
-0.0004244
-0.0003246
-0.0002508
0.0005754
-1.04
0.1282
0.9121
1.107
-0.8991
-0.2075
0.0001136
-4.007e-05
-1.79e-05
-1.214e-05
3.004e-05
-0.0001108
0.0002216
-0.0004776
0.0001788
0.0002988
0.0008011
-0.0002735
-0.0005276
0.0002626
-0.0006098
-0.0004696
0.0006919
-0.0002223
-0.0006621
0.000412
-0.0002031
0.0001135
-9.153e-05
0.0002511
-0.0001596
-3.922e-05
-1.078e-05
5e-05
-1.16
0.1199
4.215e-05
9.537e-05
-0.0001375
3.648e-05
-0.0001824
0.000146
-7.868e-05
-0.004831
0.00491
0.008166
-0.004996
-0.003171
0.1779
-0.2383
0.06041
1.03
0.4431
0.000102
2.42e-05
-9.503e-06
-0.0001552
-3.283e-05
2.055e-05
1.231e-05
-8.165e-06
-4.143e-06
-0.07698
-0.04858
-0.9855
-0.4035
1.389
-0.0001979
-0.0001486
0.0003465
-0.0001709
4.289e-07
0.0001705
-0.05056
-0.007781
3.451e-05
3.435e-05
-6.886e-05
0.01408
-0.002072
-0.01201
-0.03342
0.08623
-0.0528
-0.0003591
0.000133
0.0002261
0.0022
-0.002733
0.000533
-0.0001636
0.0002001
0.004176
-0.008835
0.004659
-1.079e-08
1.079e-08
-3.715e-05
7.815e-06
5.499e-05
0.0004052
0.0002967
0.0001196
-0.0002518
-0.0002423
0.0002066
8.294e-05
-0.0002896
-0.0003038
-1.145e-05
-0.0001409
0.0002516
-0.0001107
0.05512
0.007433
-0.06255
0.0002718
-0.0001073
-0.0001645
1.867e-05
-7.671e-06
-1.1e-05
-0.0001616
-0.0005699
0.7439
-1.068
0.3242
0.001289
-0.0002191
-0.004472
0.003984
0.0004883
0.0008971
-0.002763
0.001866
1.075
0.4491
-0.0253
0.7692
2.171e-07
-8.417e-07
6.246e-07
0.02281
0.007287
0.0003632
-0.0006404
0.0002772
0.0001416
-0.0001523
1.065e-05
-0.0003156
0.0005435
-0.0002279
0.0004567
6.315e-05
0.004787
0.002657
-0.007444
0.0002379
-0.0001298
0.00299
-0.006318
0.003328
0.0009505
-0.0008095
-0.000141
-0.1497
-0.1997
0.3494
1.05
-0.04472
-1.006
-0.002043
-0.0006655
0.002708
-0.0005224
0.009194
4.569e-05
-0.0001811
-0.001961
0.002858
0.0003233
-0.0003595
3.618e-05
0.0008997
-0.0002907
-0.0006091
0.0002832
0.0001737
-0.0004569
-0.02201
0.02369
0.003559
-0.008456
-1.124
-0.3857
1.51
-0.0001194
0.0002246
-0.0001052
0.02229
0.008482
-0.001053
0.0007899
0.0002633
8.163e-08
-0.002395
0.0006791
0.001716
0.0001524
6.2e-06
0.0002106
-0.000573
1.256
-0.2785
-0.001831
0.002078
-0.0002472
-0.0003435
-0.0005371
0.0008806
-2.296e-05
2.376e-05
-8.034e-07
-0.0007522
6.101e-05
0.0006912
0.0003952
7.271e-05
-0.0004679
-0.0001475
-5.559e-05
-0.0001105
0.0003434
-0.0003386
-0.0003539
0.0001105
-0.000398
0.0002875
0.0005188
0.0003525
-0.0008714
0.0005793
-0.0007404
0.001382
-0.002389
0.001007
-0.003531
0.0002082
5.262e-05
-0.0005913
0.002966
-0.005778
0.002812
-1.549e-07
1.549e-07
-0.0008866
-0.003585
-0.0661
0.0239
0.0001648
-0.00137
0.001205
0.0001576
0.0003092
-0.0004668
1.094e-06
0.001113
-0.001114
0.1014
0.3726
-0.474
-5.657e-05
2.654e-05
3.003e-05
-5.593e-05
0.0006376
-0.0005935
-8.302e-05
-1.511
0.5252
3.237e-06
9.071e-06
-0.0004097
7.621e-05
0.000313
-0.0003581
4.509e-05
-0.3878
-0.6371
1.025
1.398e-05
-0.0001549
0.0001279
-0.0001565
2.863e-05
8.626e-05
-0.0002683
0.0001821
6.371e-05
-0.0002109
0.0001472
-1.197
0.8094
-0.0005905
0.0003581
0.0002324
9.949e-06
-5.247e-06
-4.703e-06
0.0001696
-0.0002637
9.416e-05
-0.0006059
0.0006056
3.213e-07
-0.158
0.06347
0.0945
0.0001389
6.558e-05
0.0001726
-0.0002074
3.484e-05
-0.1625
0.1686
-0.006095
0.002669
0.0005278
-0.003197
-0.003744
0.003633
0.000111
0.0002422
-3.552e-05
-0.000391
-0.0001827
-0.002591
0.003648
-0.002726
0.0003308
-9.577e-06
-0.0002115
0.0002211
-0.0001114
0.0002615
0.2815
0.5861
-0.8676
-0.0004308
-0.0001597
-0.0004813
0.0007693
-0.0002879
0.000105
-0.0001063
1.315e-06
-0.0001185
-0.0004667
-0.01429
0.01281
0.001476
-0.0007629
0.0001053
3.908e-05
0.0001395
1.027
-0.7451
4.485e-05
-0.0004007
-0.0001521
-0.0002071
9.183e-05
-7.157e-06
-8.468e-05
1.64e-07
-5.948e-07
5.988e-06
8.585e-05
3.719e-05
5.011e-05
0.0004064
7.524e-05
-0.0004817
0.0002758
-0.0001783
-9.753e-05
-0.004382
0.001155
0.003226
0.1727
1.023
9.436e-09
-9.435e-09
0.0001511
0.0002127
-0.0003638
0.0001302
-0.0002674
7.441e-05
-6.757e-05
-6.846e-06
-0.0001378
0.0003286
-0.0001908
3.147e-05
-0.0001895
0.000158
-0.0003736
6.238e-05
0.0003113
-0.0005038
0.000434
0.5587
0.8407
9.228e-05
0.0004304
-0.0005227
-0.004303
0.001228
0.003075
-1.503
0.3786
-0.0002172
0.0003799
-0.0001628
0.0001915
0.0005611
0.002031
-0.000773
0.0008572
0.0002965
-0.001154
0.1375
-1.018
0.8803
0.000117
-0.0005866
0.0001035
-2.23e-05
-8.119e-05
-0.2753
-0.715
0.8525
0.006162
0.002004
-0.0008948
0.001098
-0.0002031
0.0004085
0.0003926
-0.0002005
-8.336e-06
0.0002088
-0.0006013
0.0005119
8.94e-05
5.715e-06
-4.837e-07
-5.232e-06
-0.003976
0.0009936
0.002983
-0.003922
0.005122
-0.0012
-0.799
-0.2691
-0.0005175
0.0001392
0.0003783
-0.0004033
0.0001903
0.0002131
0.0003906
-0.0003227
-6.791e-05
9.629e-05
-0.0001862
0.001776
-0.001715
1.084
0.08555
-1.17
0.2754
-0.2125
0.07561
-0.1322
0.05657
-1.097e-05
2.712e-06
8.254e-06
0.04507
-0.8441
0.03395
-0.01982
-0.01414
-0.0001067
0.0002236
-0.0001168
-0.0008744
-0.001059
0.001933
0.0001333
5.865e-05
-0.000192
-0.2163
0.8475
-0.6312
-0.0002026
0.0001403
6.229e-05
-0.0003974
0.002251
-0.001854
-0.2393
-0.01674
0.2561
0.0002492
0.0002446
0.6909
0.4731
-1.164
-0.0003657
-0.0002323
0.000598
2.094e-05
3.907e-06
-2.485e-05
0.0002629
-0.0001348
-0.0001281
-0.0001556
-6.696e-05
0.0002225
2.279e-05
1.455e-05
-3.734e-05
0.1843
-0.04877
-0.1355
0.0001467
0.000119
-0.0002657
-0.008799
0.008731
6.873e-05
-0.0002251
-6.313e-05
-4.879e-06
9.61e-06
-4.731e-06
-0.0002131
-0.0002011
0.0004141
0.0003181
0.0001012
-0.0004193
-0.007272
-0.007018
0.005164
-0.005749
0.0005851
0.00178
-0.0003788
-0.001401
7.007e-05
-7.007e-05
-0.3406
0.1969
0.1438
-0.0009442
0.001985
-0.001041
0.000767
-0.0004893
-0.0002776
-7.965e-06
2.035e-05
-1.239e-05
1.079e-05
7.878e-06
0.0001248
-0.0001128
-1.193e-05
-0.1174
1.202
0.04633
-0.02705
-0.01928
-6.872e-05
-2.948e-05
-0.0002128
1.135e-05
0.0002014
-6.323e-06
8.971e-06
-2.648e-06
-5.207e-05
0.0001596
-0.0001075
1.474e-06
-1.474e-06
3.149e-05
-2.998e-05
-1.516e-06
7.25e-06
-7.251e-06
-0.0005767
0.0001986
0.0003781
5.183e-05
3.187e-05
-8.37e-05
0.0003992
-0.0003069
4.295e-05
-3.036e-05
-1.259e-05
0.0985
-0.07347
-0.02503
0.001826
-0.001383
-0.0004421
1.092
-1.517
0.4243
1.317
-1.739
0.4225
-0.0001085
-0.0003408
0.0004493
-0.04339
0.09323
-0.04984
0.0002238
-1.862e-05
-0.0002052
-0.004124
0.001967
0.002157
-0.001218
8.684e-05
-0.007517
0.008508
-0.000991
0.04561
-0.1014
0.05577
-0.000648
3.508e-06
0.0006445
0.0006374
0.0009636
-0.001601
0.2526
-0.006564
-0.001071
0.001111
-3.993e-05
0.0002579
-0.0004423
0.0001844
0.09368
-0.04807
0.0002268
-0.0001153
-0.0001115
1.989e-05
-1.989e-05
-0.0001454
3.598e-05
0.0001094
0.0008776
-0.002778
0.0019
3.156e-05
-4.141e-05
9.848e-06
-0.0002067
0.000376
-0.0001693
-0.0002
0.00019
9.95e-06
-0.3373
0.1227
0.2147
0.0002555
-1.362e-05
-0.0005081
-0.0005451
-0.05056
0.3509
0.0002404
-0.0001783
0.0005154
-4.735e-05
-0.0004681
0.0004446
-0.0009216
0.000477
-0.4768
-0.5488
1.026
0.219
-0.0002118
-0.2188
0.002858
-0.00176
-0.001098
1.563e-06
7.211e-07
-2.284e-06
0.0001015
-0.002051
0.00195
-1.973e-05
1.973e-05
0.0008171
-0.0004235
-0.0003936
0.0006917
-0.0001905
-0.0005012
-0.001911
0.001754
0.0001568
6.346e-06
3.983e-06
-1.033e-05
0.00014
3.902e-05
-0.000179
-0.4113
1.371
-0.96
-0.0001416
0.0001963
-5.468e-05
0.005487
-8.141e-05
-0.005406
-0.3005
1.333
-1.033
-0.0005907
-0.000757
0.001348
8.476e-09
8.072e-09
-1.654e-08
0.0008587
0.000999
-0.001858
7.726e-05
-2.958e-05
-4.768e-05
0.006541
-0.003699
-0.002842
0.00118
0.003052
-0.004233
-1.595e-06
-2.84e-06
4.434e-06
2.539e-05
-2.539e-05
0.0005531
0.000244
-0.0007971
-0.08818
-0.05413
-0.4601
0.2229
0.2372
0.002787
-0.001056
-0.001731
-0.001295
0.0009729
0.0003224
-0.0001047
-0.0001866
0.0002913
0.000307
-0.0001719
-0.0001352
-0.0005871
-0.0002037
0.0007907
0.0002958
-0.0001396
-0.0001562
-0.002508
0.002236
0.0002728
-0.009382
0.01783
-0.008443
0.0001178
0.000178
-0.03336
-0.01485
0.04821
3.409e-05
1.834e-06
-3.593e-05
0.1367
-0.5761
0.4394
-0.0002566
-0.0003241
0.0005806
4.347e-07
6.814e-06
-7.248e-06
0.0004968
-0.0006264
0.0001296
-0.0004698
0.0003828
8.704e-05
0.0006445
-0.0003167
-0.0003277
-0.3821
0.09764
0.2845
-0.1882
0.05496
0.1332
5.721e-05
-9.633e-05
3.912e-05
0.007631
-0.008561
0.0009296
-0.0001251
0.0002396
-0.0001145
0.0004414
-0.000753
0.0003117
8.37e-05
-0.0001587
7.498e-05
-0.0005219
0.0005008
2.113e-05
0.0001055
-5.718e-05
-4.832e-05
0.0001571
-0.0001082
-4.886e-05
-2.433e-05
0.0001426
-0.0001183
8.683e-05
-8.683e-05
-8.61e-06
-0.0001585
0.0001671
-3.65e-05
0.000259
-0.0002225
-0.0003152
0.0002589
5.632e-05
-0.002728
0.004091
-0.001364
-0.0003705
0.0007408
-0.0003704
0.0001291
0.0007128
0.0002542
-0.0002679
1.37e-05
-1.446e-06
-3.585e-06
5.032e-06
7.701e-07
-3.853e-07
-3.847e-07
0.0007877
-0.0003691
-0.0004185
-0.32
0.4214
0.5908
0.2169
-0.8077
0.0004418
-0.0006126
0.0001708
-8.185e-05
-0.0002648
0.0003466
0.004707
-0.0008966
-0.00381
-0.1888
1.181
-0.9923
0.0002379
0.0005807
-0.0008186
0.0006336
5.83e-05
-0.002442
-0.005644
0.008085
-0.000106
-6.593e-05
0.0001719
0.0002423
-0.0001168
-0.0001255
5.029e-05
-0.000221
0.0001708
0.00281
-0.003228
0.0004189
0.7871
-0.6763
-0.008162
0.002683
0.005478
0.01197
0.0006061
-0.01257
0.0001278
-1.531e-05
-0.0001125
4.658e-05
7.739e-05
-0.000124
0.0001578
-0.0001187
-3.907e-05
-0.004219
0.001727
0.002492
0.0002255
-0.002314
0.002089
-8.085e-05
0.000201
-0.0001201
-0.0006229
0.0009363
-0.0003134
-0.002222
-0.001508
0.00373
-0.001089
0.0004405
0.0006482
-0.000655
-0.0001339
0.000789
0.001754
-0.001435
-0.0003189
-0.0004058
0.0003401
6.578e-05
0.0002375
-0.0001706
-6.686e-05
0.2598
-0.3217
0.06198
5.963e-05
-3.418e-05
-2.545e-05
1.176e-06
4.795e-06
-5.971e-06
-0.0006767
0.0001954
2.269e-06
-0.0003272
0.0003249
4.403e-06
1.257e-05
0.02113
-0.1184
0.09724
5.201e-05
-5.201e-05
-9.142e-05
9.142e-05
-0.1664
-1.047
1.213
1.258
0.2308
-1.489
0.0002896
-0.000182
-0.0001076
-0.0001237
0.0007626
-0.0006389
1.28e-07
-1.605e-07
3.246e-08
-3.067e-06
-9.61e-06
1.268e-05
-0.000202
0.002028
-0.0004494
0.0005892
-0.0001398
-0.0002126
-2.24e-05
0.000235
-0.001133
-0.004027
0.005159
0.003488
0.005078
-0.008566
-0.1884
0.06188
0.1265
-0.0002355
0.0001539
8.157e-05
3.731e-05
0.0005586
-0.000596
0.0001534
-0.0003248
0.0001714
-0.004513
0.001016
0.003497
3.056e-06
-5.278e-06
2.221e-06
-0.0003423
0.0004613
-0.000119
0.8162
-1.147
0.331
-0.0001088
0.0001088
-0.00021
0.0001331
7.689e-05
0.1661
0.5624
-0.7285
-0.0002289
2.296e-05
-1.286
1.12
0.2416
-0.4255
0.1838
-0.003086
0.002136
0.0009503
-0.01104
-0.001995
0.01303
-1.021e-05
6.373e-06
3.839e-06
0.7799
-0.9452
0.1653
0.0005387
-0.000283
-0.0002557
0.4766
-0.1365
-0.3401
0.0005304
-0.0009283
0.0003979
-0.01649
0.005534
0.01095
0.001366
-0.001246
-0.0001207
0.006032
-0.003169
-0.002863
-0.0001291
-0.0005349
0.000664
-0.0005682
-0.0002315
0.0007997
-0.0001847
-6.068e-05
0.0002454
0.001823
0.0003793
-0.002202
0.1504
0.6492
-0.7996
0.00991
0.06076
-0.07067
0.0006736
-0.0003797
-0.0002939
-0.0001612
-0.000825
0.0009862
-7.196e-05
0.0002339
-0.0001619
-0.0002825
0.0001644
0.0001181
5.04e-05
-3.018e-05
-2.023e-05
0.0001593
4.227e-05
-0.0002016
3.921e-05
-3.921e-05
0.0001661
-0.0002992
0.001093
-0.0007917
-0.000301
3.462e-05
-8.622e-05
5.16e-05
-0.0007127
0.0004585
0.0002542
0.0001132
5.356e-05
-0.0001668
0.005743
-0.006437
0.0006947
-0.0004674
0.0002151
0.0002523
0.4955
-0.3666
-0.1289
0.0002954
-0.0003213
2.583e-05
1.758e-05
-4.177e-05
2.419e-05
-0.0003173
2.339e-06
0.0003149
0.4962
-1.095
0.5985
-0.0004168
0.0001522
0.0002646
-0.0009464
0.0005006
0.0004457
-0.002311
0.0005968
0.001714
0.001452
-0.0006509
-0.0008008
6.406e-05
-0.0002394
0.0001753
0.00142
0.006549
-0.007968
-0.0001823
0.0002096
-2.731e-05
0.0001667
0.0004813
-0.000648
-0.001153
-0.001158
4.032e-05
7.733e-05
-0.0001176
-0.0004564
-7.047e-05
0.0005269
-8.732e-06
3.853e-06
-1.18
0.5416
0.6387
0.002297
-0.004527
0.002231
0.0002594
-9.747e-05
-0.0001619
0.1284
0.05664
-0.185
0.0003112
-9.079e-05
-0.0002204
-7.813e-05
-2.024e-05
9.836e-05
-1.246
1.246
0.001495
0.00224
-0.003735
2.987e-05
-4.446e-05
1.459e-05
0.06738
-0.05178
-0.0156
0.006604
-0.0008613
0.0002959
-0.0001872
-0.0001087
4.238e-05
-1.984e-05
-2.254e-05
0.01199
-0.009309
-0.002685
-1.27
0.5241
0.7464
-0.0002437
0.0003963
-0.0001526
0.0001273
-0.0003121
0.0001849
0.4041
-0.2567
-0.1474
-0.00855
0.006189
0.002361
0.001622
-0.03205
0.03043
0.0005108
0.0002114
-0.0007222
0.000244
8.945e-05
-0.0003335
-0.0015
-0.0007327
0.002233
-0.0535
-0.05543
0.1089
7.425e-07
8.842e-06
-9.584e-06
4.704e-08
1.652e-06
-1.699e-06
0.0001869
0.0005623
0.0003402
-0.001173
0.0008326
0.0005772
-0.0009316
0.0003544
2.906e-05
1.389e-05
-0.393
1.242
-0.8485
0.0002343
-0.001149
0.000915
0.3507
-0.007424
-0.3433
-0.000325
0.0004642
-0.0001392
-0.0009056
0.0008682
3.747e-05
-0.0001706
-0.0002009
0.0003716
0.0004032
0.001049
2.147e-06
7.587e-07
-2.906e-06
-5.423e-05
5.884e-05
-4.615e-06
-0.5586
0.219
0.3396
-3.165e-06
3.165e-06
0.0001718
-0.0001281
-4.368e-05
-4.958e-05
0.0002011
-0.0001515
-0.001784
-0.0002104
0.001995
-9.05e-05
0.0001458
0.0004762
0.0003691
-0.0008454
-0.000356
-1.254e-05
0.0003685
-0.0001995
0.000165
3.451e-05
0.002054
-0.001425
-0.0006285
-0.008894
0.02446
-0.01557
5.555e-06
-5.555e-06
0.0002336
-0.0002938
6.019e-05
-0.0007505
0.0003294
0.0004211
0.0002823
0.000135
-0.0004174
0.001371
-0.001139
-0.0002312
0.0001715