/*--------------------------------*- C++ -*----------------------------------*\
  =========                 |
  \\      /  F ield         | OpenFOAM: The Open Source CFD Toolbox
   \\    /   O peration     | Website:  https://openfoam.org
    \\  /    A nd           | Version:  8
     \\/     M anipulation  |
\*---------------------------------------------------------------------------*/
FoamFile
{
    version     2.0;
    format      ascii;
    class       volVectorField;
    location    "35";
    object      U;
}
// * * * * * * * * * * * * * * * * * * * * * * * * * * * * * * * * * * * * * //

dimensions      [0 1 -1 0 0 0 0];

internalField   nonuniform List<vector> 
127143
(
(0.001983 -8.709e-05 0)
(-9.95e-05 -0.0004673 -5.412e-24)
(-7.388e-05 -0.0003625 9.864e-24)
(-9.553e-05 -0.0004349 -2.157e-27)
(0.0001856 4.857e-05 -1.596e-22)
(-8.082e-05 -0.0004447 6.409e-27)
(0.02093 0.013 0)
(0.005013 0.002439 -2.364e-22)
(0.003949 0.001906 7.803e-22)
(-0.002599 -0.0001022 0)
(0.03438 0.04737 1.236e-21)
(0.01384 0.009241 9.429e-22)
(7.568e-05 -2.867e-05 -2.018e-24)
(-0.000123 -0.0004836 0)
(0.02396 0.03819 1.75e-20)
(0.04481 -0.004132 0)
(-0.0002459 -0.00113 -1.602e-23)
(0.1137 -0.09432 1.508e-20)
(-0.1738 0.01038 0)
(0.05504 0.009154 0)
(-0.249 0.06585 8.727e-21)
(-0.004435 0.001463 0)
(0.9693 -0.1343 0)
(0.62 -0.0596 0)
(-0.004394 0.001583 -1.906e-22)
(0.231 -0.03565 0)
(-0.02061 0.0003854 1.949e-20)
(-0.02067 -0.0007151 -2.932e-22)
(0.2254 -0.1005 0)
(0.5049 -0.0958 1.081e-20)
(0.5048 -0.02938 0)
(0.2245 -0.03306 -1.382e-21)
(-0.01964 -0.004501 3.063e-21)
(-0.09437 0.02471 -1.813e-20)
(0.8629 -0.0608 2.608e-20)
(-0.02025 -0.003971 -2.239e-24)
(-0.241 0.08083 5.773e-21)
(0.1245 0.03053 -7.044e-21)
(0.7341 -0.06603 -1.38e-21)
(0.2279 -0.01021 3.652e-25)
(-0.1743 0.008477 0)
(1.061 0.4991 -6.7e-21)
(1.045 0.4871 5.036e-21)
(0.0001635 -5.923e-05 0)
(0.09676 -0.08646 -1.069e-20)
(-0.09812 0.02313 5.878e-21)
(0.2282 -0.1057 0)
(-0.2316 0.07458 -8.021e-22)
(0.7192 -0.1258 1.615e-22)
(0.7004 -0.05583 -9.878e-22)
(0.05316 -0.003823 -1.749e-22)
(0.9677 -0.02698 5.338e-20)
(-0.1717 0.04961 0)
(1.231 0.2015 -1.187e-20)
(1.001 -0.001336 3.093e-20)
(0.5513 -0.1365 4.332e-22)
(1.001 -0.001329 -2.782e-20)
(1.083 -0.07607 0)
(1.012 -0.01084 -1.8e-20)
(1.229 0.2029 -2.301e-20)
(0.4962 -0.02618 -7.714e-20)
(-0.1914 0.05863 -1.359e-21)
(1.057 -0.07285 4.076e-21)
(1.001 0.000544 7.486e-20)
(-0.09476 0.008543 0)
(0.8479 -0.2175 -9.356e-21)
(1.107 0.174 3.993e-20)
(1.02 -0.07574 0)
(1.028 -0.07536 1.072e-21)
(0.9914 -4.804e-05 0)
(0.5597 -0.04163 0)
(-0.02229 0.0004369 -9.196e-21)
(-0.2189 -0.04885 -6.887e-21)
(1.012 -0.01069 -9.929e-21)
(1.004 0.003236 -3.631e-22)
(-0.02247 -0.0005205 9.194e-21)
(1.015 0.04249 -3.402e-20)
(-0.2554 0.08251 0)
(0.5704 -0.1471 -7.791e-22)
(1 0.0008321 0)
(0.2211 -0.09982 1.626e-23)
(0.06168 0.007723 4.022e-23)
(-0.1672 0.03984 8.035e-21)
(0.2791 -0.0194 0)
(-0.1786 -0.002799 1.342e-21)
(-0.2509 0.08126 0)
(0.8302 -0.08267 -2.464e-21)
(-0.02725 -0.002507 5.005e-21)
(0.8475 -0.215 0)
(1.186 0.7498 0)
(0.9948 -0.007708 0)
(1.223 0.02135 0)
(1.181 0.746 0)
(-0.2483 0.06548 -8.974e-21)
(-0.2622 0.05547 0)
(1.01 0.04989 6.545e-21)
(1.063 0.4922 1.476e-20)
(0.3663 -0.02735 0)
(-0.2547 0.07732 2.862e-21)
(1.103 0.1744 0)
(1 0.000807 0)
(0.7469 -0.1336 0)
(0.9183 0.8659 -1.315e-21)
(1.052 -0.116 0)
(-0.2497 0.08072 -1.493e-21)
(-0.256 0.07783 4.095e-21)
(0.9734 -0.1508 -1.427e-21)
(0.9907 8.483e-06 0)
(0.6704 -0.243 0)
(1.002 -0.0009769 4.393e-20)
(0.03319 0.03446 -5.465e-21)
(-0.02701 -0.001898 9.608e-21)
(-0.26 0.06233 -9.196e-21)
(0.2627 0.5693 0)
(0.9964 0.01233 1.337e-20)
(1.003 -0.157 -1.999e-22)
(0.9919 0.04807 -5.404e-21)
(1.004 0.003388 -4.443e-20)
(1.015 0.04134 2.689e-20)
(-0.001102 -0.004634 0)
(1.002 -0.001039 -6.144e-20)
(-0.1782 0.04735 -2.352e-21)
(0.7753 -0.2752 0)
(1.064 -0.08339 1.175e-20)
(0.2336 -0.104 7.872e-22)
(0.1606 -0.02137 -5.514e-21)
(-0.2216 0.06598 0)
(1.042 0.003815 1.254e-19)
(-0.1717 0.02269 -2.539e-21)
(0.5492 -0.1591 -9.405e-22)
(-0.2762 0.08331 0)
(-0.27 0.06423 -6.644e-21)
(1.087 -0.09301 -8.756e-21)
(-0.2549 0.08236 0)
(-0.0003665 -0.001999 -8.798e-23)
(-0.2759 0.08305 -2.842e-21)
(1.091 -0.06292 0)
(-0.2253 0.06025 2.211e-21)
(0.2614 -0.1479 -6.401e-21)
(1.128 -0.01643 1.105e-20)
(0.9372 -0.1613 1.158e-20)
(0.9879 0.03451 4.286e-20)
(-0.1484 0.0345 3.462e-22)
(-0.1505 0.04579 -6.356e-21)
(-0.1682 0.0494 -1.145e-21)
(1.196 0.5382 4.196e-21)
(-0.0601 0.3295 1.714e-21)
(1.001 0.0004728 -6.775e-20)
(-0.2687 0.06405 5.781e-21)
(0.8044 0.7015 -7.228e-22)
(1.062 -0.1095 -3.005e-21)
(0.7789 -0.1548 0)
(0.2822 0.04151 2.689e-20)
(0.8244 -0.1205 0)
(0.2692 -0.1539 0)
(-0.1805 -0.00252 0)
(1.084 -0.07516 -4.5e-21)
(0.5192 -0.1802 0)
(-0.2311 0.07423 -1.504e-21)
(0.3229 -0.02894 1.578e-21)
(0.6086 -0.03782 0)
(0.06005 -0.03051 8.37e-21)
(0.9949 -0.007632 5.79e-22)
(-0.2759 0.08335 -7.247e-21)
(0.3405 -0.09087 0)
(-0.1069 0.01043 1.45e-20)
(-0.2469 0.08257 -3.828e-21)
(0.66 -0.2034 2.107e-20)
(-0.009081 0.008003 -1.045e-20)
(0.9408 0.06015 -6.571e-21)
(-0.05877 0.01879 0)
(-0.1517 0.04667 2.967e-21)
(0.9938 -0.1665 -3.943e-22)
(0.8733 -0.2434 -3.151e-21)
(0.9792 -0.001184 3.357e-20)
(-0.1096 0.009878 3.799e-23)
(1.172 0.5739 -8.126e-22)
(-0.1723 0.02342 -2.469e-21)
(0.6877 -0.06929 0)
(1.009 -0.02197 6.576e-21)
(0.8725 -0.2438 -1.061e-21)
(0.9976 -0.001856 0)
(-0.09098 -0.007309 5.473e-22)
(-0.1093 0.00885 -3.838e-23)
(0.5613 -0.1654 2.004e-21)
(-0.1886 0.05762 2.447e-21)
(1.021 0.334 -6.122e-21)
(0.2793 0.5862 -4.966e-21)
(0.6484 -0.0632 -2.995e-21)
(1.029 -0.03287 4.76e-20)
(-0.2216 0.04307 7.497e-22)
(-0.2334 0.04344 -6.864e-21)
(1.088 -0.0618 7.6e-20)
(0.4029 0.9396 1.018e-22)
(-0.0002246 -0.002103 1.468e-22)
(-0.2201 0.06425 0)
(1.004 -2.366e-06 0)
(0.9975 -3.95e-06 4.728e-22)
(0.02237 0.008254 0)
(0.9912 0.0178 4.438e-21)
(1.014 0.008084 3.945e-20)
(0.927 0.01606 1.14e-19)
(0.9935 -0.04677 9.964e-21)
(-0.2406 0.08047 -2.715e-21)
(-0.0001677 -0.0009087 2.148e-24)
(0.9515 -0.05804 4.679e-21)
(0.9981 -0.08787 6.775e-23)
(0.9937 -0.1702 1.55e-22)
(0.6193 -0.1181 -1.183e-20)
(0.9964 0.01195 -6.83e-21)
(1.206 -0.06994 2.24e-20)
(-0.1609 0.003076 8.287e-22)
(0.9916 -0.00351 1.37e-20)
(-0.001704 0.01097 -1.158e-20)
(-0.2728 0.082 -5.308e-25)
(0.03405 0.001531 0)
(-0.04973 0.01713 -1.478e-21)
(0.9768 -0.184 -1.006e-22)
(-0.274 0.07173 -7.827e-21)
(0.9997 -0.08678 -9.988e-23)
(1.165 0.5686 -1.684e-21)
(1.002 0.005905 4.505e-21)
(0.7674 -0.1497 2.373e-23)
(-0.1414 0.05193 1.196e-21)
(0.3 -0.02774 0)
(-0.07412 0.02547 0)
(0.4197 -0.1084 -1.01e-21)
(0.1581 0.03414 7.979e-21)
(-0.1475 0.05121 3.569e-21)
(-0.2383 0.07222 4.189e-21)
(-0.2518 0.06544 5.528e-21)
(0.9985 -0.002375 2.825e-21)
(-0.2225 -0.04839 1.369e-20)
(-0.0004509 -0.009329 0)
(-0.2511 0.06544 0)
(1.053 -0.06963 1.132e-20)
(-0.276 0.08326 3.502e-21)
(0.005159 -0.0007946 9.162e-23)
(1.014 0.007843 -3.675e-20)
(-0.2071 0.03835 3.585e-21)
(-0.2337 0.04394 5.881e-21)
(-0.1231 0.009453 -2.053e-20)
(-0.1861 0.04851 -4.095e-22)
(0.5382 -0.1883 1.218e-24)
(0.09619 0.05073 0)
(-0.0008955 -0.004788 2.51e-26)
(0.8852 -0.1766 -5.945e-23)
(-0.02134 0.0004023 0)
(-0.01054 0.002913 2.28e-21)
(1 -8.584e-05 -1.409e-21)
(1.174 0.4616 -1.782e-20)
(0.2288 -0.02528 4.655e-21)
(0.9367 -0.2124 0)
(-0.213 0.05466 0)
(0.6995 -0.1686 8.133e-22)
(0.688 -0.2475 0)
(1.041 0.003206 -9.823e-20)
(0.2628 0.117 0)
(0.9138 -0.2211 0)
(0.8638 0.2458 1.199e-20)
(-0.2143 0.06283 -4.231e-21)
(1.001 -0.01357 4.827e-22)
(1.26 0.02825 1.05e-22)
(0.987 0.0335 -3.5e-20)
(-0.06024 0.03674 0)
(-0.1147 0.009407 -6.957e-21)
(-0.2253 0.07226 1.048e-20)
(0.2403 -0.152 0)
(0.5367 -0.1467 5.094e-20)
(1.115 0.2109 -7.487e-21)
(0.376 -0.06875 0)
(0.9759 -0.001817 -4.039e-20)
(-0.2233 0.06976 -1.203e-21)
(-0.2091 0.03833 -3.787e-21)
(1.113 -0.07063 7.056e-21)
(-0.2184 0.04281 -3.572e-21)
(-0.2593 0.06232 0)
(0.8046 -0.1275 1.863e-21)
(0.9608 -0.003344 -1.304e-21)
(0.8616 -0.2415 3.138e-21)
(1.003 -0.0005727 7.762e-22)
(1.006 0.05301 1.953e-21)
(1.052 -0.1156 -8.495e-24)
(0.9941 0.004592 0)
(1.004 0.0122 7.634e-21)
(-0.0009155 -0.002214 -2.125e-23)
(-0.2815 0.08036 0)
(0.9968 0.01336 6.979e-21)
(0.7646 -0.1088 1.69e-21)
(1.008 -0.02197 8.828e-21)
(0.3223 0.03697 -3.413e-20)
(0.9571 -0.1697 0)
(1.052 -0.07052 -1.11e-20)
(0.9769 -0.1806 0)
(0.9932 -0.006442 -9.934e-21)
(0.6556 -0.2552 -5.681e-22)
(0.4752 -0.03596 2.735e-21)
(-0.01954 -0.01808 -6.935e-22)
(-0.1865 0.04894 1.581e-21)
(1.169 0.2177 4.996e-21)
(0.3677 -0.04332 -1.283e-21)
(0.8974 -0.2035 -1.297e-21)
(0.7682 -0.2051 -1.319e-20)
(1.003 -0.1566 1.927e-21)
(0.2862 -0.02051 0)
(0.4561 -0.2413 5.177e-23)
(0.994 -0.1698 5.321e-23)
(0.9913 -0.003592 0)
(-0.06172 0.03083 -6.601e-24)
(1.066 -0.1093 -3.576e-21)
(0.9532 -0.1461 -1.871e-21)
(-0.005705 -0.02545 -2.473e-22)
(0.5228 -0.125 0)
(1.002 -0.0006943 1.143e-21)
(0.991 0.005817 -2.342e-20)
(1.203 0.5956 7.456e-22)
(0.01172 0.0355 3.153e-21)
(0.3491 -0.03937 3.456e-21)
(1.256 0.05855 3.279e-20)
(0.9332 -0.01727 -8.743e-22)
(0.9681 -0.1331 0)
(0.5394 -0.03671 -4.753e-21)
(1.075 0.01119 2.831e-20)
(0.9373 -0.2122 4.49e-22)
(1.197 0.59 0)
(-0.01925 0.02963 -5.818e-21)
(0.904 -0.02799 5.42e-20)
(0.01984 -0.009701 -5.787e-24)
(0.5868 -0.02022 2.235e-21)
(1.143 0.613 6.622e-21)
(-0.2158 0.06708 0)
(1.004 0.01202 -7.396e-21)
(0.8682 -0.06236 -1.002e-19)
(1.004 5.395e-06 0)
(0.9974 -2.071e-06 0)
(0.8243 -0.1167 0)
(0.6819 -0.245 -3.716e-21)
(0.9933 -0.1666 -3.633e-22)
(-0.2158 0.0673 -1.623e-21)
(-0.2808 0.07875 -2.337e-20)
(1.124 -0.01837 -4.946e-20)
(0.9772 -0.1837 0)
(-0.1493 0.04612 1.049e-21)
(-0.2139 0.04272 5.799e-22)
(0.1876 0.1736 -4.064e-22)
(0.7537 -0.1043 -1.091e-21)
(-0.2268 0.05503 -6.876e-21)
(-0.2572 0.0553 3.453e-21)
(0.4043 -0.04941 -2.029e-21)
(-0.1594 0.01597 0)
(0.4299 -0.04711 1.597e-21)
(-0.1003 0.03169 6.427e-21)
(-0.134 0.02836 -8.012e-22)
(-0.2167 0.04283 2.575e-21)
(0.9194 0.06318 0)
(-0.2395 0.06012 -1.658e-20)
(-0.2147 0.05522 -3.242e-21)
(1.198 0.5155 -4.242e-21)
(1.005 -0.007686 7.205e-21)
(0.5685 -0.01924 0)
(-0.2156 0.06376 -2.004e-21)
(1.075 -0.07374 1.203e-21)
(0.5532 -0.1101 -3.342e-20)
(0.7238 -0.05178 0)
(0.7098 -0.05965 -2.734e-21)
(1.002 0.002784 3.085e-22)
(0.9915 0.01741 -1.338e-20)
(0.8972 -0.003854 0)
(-0.1649 0.03068 5.196e-21)
(0.9611 -0.002579 0)
(0.3751 -0.002678 7.076e-20)
(1.076 0.008534 -6.018e-20)
(0.2791 -0.03031 -3.914e-21)
(0.6916 -0.04998 3.88e-21)
(1.029 -0.03136 0)
(1.201 0.05418 -8.368e-22)
(0.5189 -0.04892 2.276e-21)
(0.005557 -0.01011 1.687e-26)
(-0.2467 0.07597 -7.374e-21)
(0.9689 -0.005747 4.399e-21)
(0.3601 -0.02834 -5.949e-20)
(0.1877 -0.02168 5.452e-21)
(0.4522 -0.05523 0)
(0.8951 -0.2055 -5.187e-21)
(0.9924 0.04633 0)
(0.09829 -0.007437 0)
(0.9606 0.1751 0)
(0.2416 -0.01175 0)
(-0.2236 0.06523 -1.212e-21)
(0.1055 0.02397 -2.731e-20)
(1.013 -0.00848 -5.209e-20)
(0.7384 -0.1761 0)
(-0.1071 0.03634 2.98e-21)
(0.7009 -0.1794 9.157e-22)
(0.6465 -0.05733 4.684e-21)
(0.4779 -0.03138 3.453e-21)
(0.7428 -0.1784 -1.048e-20)
(0.5403 -0.03055 0)
(0.9178 0.06138 0)
(1.001 -0.0138 0)
(0.2462 -0.0205 -1.513e-21)
(1.002 0.005612 -1.771e-21)
(-0.2377 0.06015 0)
(-0.09368 -0.007154 0)
(0.9665 0.1773 0)
(1.047 -0.1228 2.067e-21)
(-0.2473 0.07977 -7.795e-21)
(1.076 -0.09912 5.834e-21)
(1 0.0007532 -7.512e-20)
(0.7304 -0.07583 0)
(0.6671 -0.2759 0)
(0.411 -0.05663 -1.894e-21)
(0.9385 -0.1602 -1.204e-20)
(-0.2299 0.07365 0)
(0.775 -0.2736 0)
(-0.2621 0.05547 -5.008e-21)
(-0.2703 0.07765 -6.948e-21)
(0.3302 -0.06663 0)
(0.3908 0.05432 6.131e-21)
(0.6974 -0.277 -1.731e-21)
(-0.2471 0.08263 0)
(-0.05373 0.01881 -5.749e-21)
(-0.2644 0.07797 0)
(1.003 0.0001175 6.004e-23)
(-0.2397 0.07285 -5.176e-21)
(0.918 0.2924 -4.127e-21)
(1.04 0.4757 3.508e-22)
(0.9075 -0.1478 -1.142e-20)
(-0.1312 0.01153 2.13e-20)
(0.9789 -0.1077 -1.848e-21)
(1.004 -0.0002665 0)
(-0.2637 0.07865 0)
(-0.132 0.02939 0)
(1.213 -0.09488 1.223e-19)
(0.2952 0.07825 1.347e-21)
(1.002 0.002718 -9.763e-21)
(1.016 -0.1509 1.775e-21)
(-0.2356 0.05417 -1.312e-20)
(0.9686 -0.02596 -2.01e-20)
(0.9931 -0.006255 0)
(0.9972 -0.0004159 -5.443e-21)
(0.736 -0.05961 1.416e-21)
(1.088 -0.06867 -2.627e-20)
(0.6816 -0.2505 6.54e-21)
(0.9609 0.04287 0)
(0.3869 -0.02794 -2.052e-22)
(0.9883 0.005501 5.51e-20)
(0.3659 -0.2338 0)
(0.8864 -0.006639 -1.848e-21)
(-0.1608 0.00141 8.117e-22)
(-0.259 0.073 0)
(0.5186 -0.06731 -2.292e-23)
(1.047 -0.1219 -5.99e-21)
(-0.1558 0.02786 3.18e-20)
(0.8568 0.1032 -1.783e-22)
(-0.2325 0.07688 -8.671e-22)
(0.3503 -0.04149 -1.18e-21)
(-0.1366 0.01115 0)
(-0.2394 0.0792 0)
(0.684 0.08716 5.701e-21)
(1.089 -0.09312 2.806e-21)
(-0.1395 0.03017 3.528e-21)
(-0.07652 0.04229 0)
(0.3283 0.5293 -2.029e-20)
(-0.1458 0.0303 2.285e-24)
(0.9921 -0.001282 0)
(1.007 0.02915 0)
(-0.2136 0.04795 0)
(-0.2164 0.05813 7.854e-21)
(0.9983 -0.0001928 0)
(-0.2475 0.07465 3.282e-21)
(1.285 0.05912 2.413e-20)
(1.064 -0.08192 -1.78e-20)
(0.03015 0.0343 -1.088e-21)
(1.003 -0.07303 -8.718e-22)
(1.004 -0.000154 0)
(0.2067 -0.08391 -3.887e-20)
(1.286 0.06261 -2.402e-20)
(-0.1592 0.05534 -2.295e-21)
(-0.07284 0.04585 2.675e-22)
(0.211 -0.1123 5.846e-22)
(0.3505 -0.2236 -3.779e-21)
(-0.2284 0.03943 3.411e-21)
(0.5209 -0.1251 0)
(0.6691 -0.2694 0)
(0.3235 0.08001 -1.388e-21)
(-0.01059 0.03699 -2.222e-22)
(1.012 0.001583 4.464e-20)
(0.3689 -0.03319 -2.664e-21)
(0.9712 0.01624 4.271e-20)
(1.208 0.6027 2.417e-22)
(0.867 -0.08649 2.137e-21)
(-0.1805 0.04936 0)
(1.2 0.5298 1.855e-21)
(-0.0002804 -0.001519 0)
(-0.2744 0.08366 8.888e-21)
(0.2682 0.3612 7.991e-21)
(1.073 -0.02427 -2.976e-22)
(0.9838 0.7108 6.745e-21)
(0.9921 -0.00117 -7.91e-20)
(0.2075 -0.1148 0)
(1.008 0.02917 3.347e-23)
(-0.1839 0.05203 0)
(-0.2153 0.063 -4.517e-21)
(-0.0002149 -0.001224 0)
(0.0005919 -0.003175 1.219e-22)
(0.0006268 -0.0002605 -4.07e-23)
(1 -0.0002683 -3.815e-20)
(-0.2428 0.06125 0)
(-0.01598 0.02121 0)
(0.9913 0.005911 4.519e-20)
(-0.2129 0.0653 3.035e-21)
(0.7737 -0.2764 6.67e-21)
(-0.2624 0.08407 7.655e-21)
(1.023 -0.142 0)
(-0.2606 0.07343 0)
(0.5098 -0.06268 -1.404e-21)
(-0.2474 0.07427 -3.349e-21)
(-0.05876 0.01065 1.939e-21)
(0.9971 -0.0009153 0)
(-0.1384 -0.01103 -1.069e-21)
(-0.002954 0.001027 0)
(0.6635 -0.2681 1.163e-21)
(0.3889 -0.03874 9.402e-22)
(-0.06292 0.01957 1.205e-21)
(1.013 -0.01011 -1.585e-20)
(1.062 -0.1092 -3.282e-21)
(0.9956 -0.04745 -2.49e-21)
(-0.06152 0.04 8.166e-21)
(0.9981 -0.006743 0)
(0.3297 -0.0246 0)
(0.3224 0.1648 0)
(-0.1277 0.04349 -4.39e-21)
(0.9971 2.59e-05 0)
(-0.2141 0.04869 -2.566e-21)
(1.038 -0.0926 -7.485e-21)
(-0.02415 0.005623 -2.094e-26)
(0.639 -0.2712 2.954e-21)
(0.04197 0.02023 1.935e-21)
(-0.05286 0.03485 -3.364e-21)
(0.968 0.008781 2.881e-21)
(-0.2102 0.07227 -2.622e-21)
(0.7532 -0.2685 -3.727e-21)
(0.9982 -0.0001927 4.51e-21)
(0.8964 -0.2052 6.94e-21)
(0.4769 0.06036 -3.467e-20)
(0.5164 -0.04279 -2.179e-21)
(0.7396 -0.0506 2.048e-21)
(-0.2042 0.05497 -8.294e-21)
(-0.1524 0.05145 1.815e-21)
(-0.221 0.06439 2.187e-21)
(0.6568 0.127 0)
(0.7252 -0.2812 1.63e-21)
(-0.2564 0.08401 0)
(-0.2679 0.07988 2.372e-22)
(1.021 -0.004433 -8.205e-21)
(0.266 -0.01257 5.393e-22)
(-0.2794 0.08056 -3.825e-21)
(0.392 -0.06172 2.558e-21)
(1.054 -0.1116 -4.897e-21)
(-0.2042 0.05837 1.663e-21)
(1 0.001544 0)
(0.9998 0.001985 1.269e-20)
(0.8708 0.2366 -1.946e-20)
(-0.2212 0.05382 -3.427e-21)
(0.9672 0.7423 0)
(0.9899 0.006978 -3.12e-20)
(1.003 -8.302e-06 -5.794e-22)
(0.765 -0.2605 0)
(0.5685 -0.2481 0)
(-0.2469 0.08004 2.531e-21)
(0.6678 -0.2698 0)
(-0.1266 0.04277 6.886e-21)
(-0.06145 0.02013 0)
(0.9469 -0.1994 -5.954e-22)
(1.013 0.03696 0)
(0.9998 -0.0005069 7.657e-21)
(-0.1395 0.04895 3.765e-21)
(-0.2574 0.07651 -2.618e-21)
(0.9374 -0.214 1.164e-21)
(1.002 -0.001372 1.31e-20)
(-0.0237 0.0003227 4.507e-21)
(1.072 -0.1045 0)
(-0.2749 0.07588 8.775e-21)
(0.9699 -0.004669 8.638e-21)
(0.2666 -0.03302 2.636e-22)
(0.9897 0.00671 5.757e-20)
(-0.2455 0.07905 -1.265e-21)
(-0.09735 -0.01306 0)
(0.06893 0.02708 5.162e-22)
(0.9998 -9.107e-06 3.346e-22)
(-0.2164 0.07109 -1.146e-20)
(-0.2136 0.06212 -1.007e-21)
(0.09994 -0.0586 -9.781e-21)
(1.004 -0.0001412 -1.832e-21)
(0.9831 -0.1531 1.472e-21)
(-0.05043 0.01717 6.918e-22)
(0.9972 -0.0005274 0)
(1.047 -0.1229 0)
(0.9928 0.01232 -9.054e-22)
(0.8719 -0.05739 2.862e-21)
(-0.04268 0.02906 0)
(0.9942 0.004353 3.162e-20)
(-0.1886 0.04707 1.894e-20)
(0.5784 -0.07854 1.181e-21)
(-0.005082 -0.02702 0)
(-0.2452 0.04323 -6.847e-21)
(-0.1223 0.03321 -7.111e-22)
(0.4507 -0.0496 -4.788e-21)
(0.4655 -0.05652 -1.355e-21)
(0.1734 0.01973 -4.853e-20)
(0.7627 -0.07119 -1.141e-21)
(1.174 0.7418 9.539e-22)
(0.782 -0.03615 -2.408e-21)
(-0.1504 0.04018 -9.391e-22)
(-0.123 0.04125 -1.361e-21)
(0.3201 -0.02907 1.207e-21)
(1.002 -0.001329 0)
(0.5524 -0.116 -1.764e-22)
(0.9928 0.00519 -1.299e-20)
(0.2055 0.1907 -2.564e-20)
(1.045 0.02177 5.088e-20)
(-0.1427 0.03422 4.917e-21)
(1.003 -0.000315 0)
(0.9965 0.01318 1.903e-20)
(1.087 -0.07514 2.172e-20)
(0.7006 -0.2789 8.83e-22)
(-0.2625 0.06766 4.176e-21)
(1.003 -0.0006931 1.132e-20)
(1.002 -0.001752 -1.755e-20)
(-0.153 0.05248 -3.04e-21)
(-0.05206 -0.007217 0)
(-0.1938 0.04576 8.381e-21)
(0.383 -0.03146 -3.524e-21)
(-0.2039 0.03271 0)
(0.6813 -0.2496 -5.537e-21)
(-0.2588 0.07324 -5.746e-22)
(0.6668 -0.2769 0)
(-0.2117 0.04228 -8.039e-23)
(-0.2464 0.07386 -3.144e-20)
(-0.08888 0.006843 0)
(1.003 -0.0007313 -1.983e-21)
(-0.1447 0.01193 1.415e-20)
(-0.2056 0.03924 2.824e-22)
(1.003 -0.1513 -4.638e-22)
(1.061 0.1176 0)
(0.995 -0.007355 -3.07e-20)
(1.003 -7.88e-06 5.914e-23)
(0.004052 0.03027 -5.922e-21)
(0.2962 -0.1675 2.977e-24)
(-0.01075 0.03778 1.114e-21)
(-0.02736 0.008517 1.236e-21)
(1.044 0.02283 0)
(1.004 -2.549e-05 1.696e-22)
(-0.268 0.08364 0)
(-0.1633 0.01723 0)
(0.9303 0.01593 -9.068e-20)
(-0.1048 0.01534 -7.334e-21)
(1.004 -0.128 0)
(0.985 -0.002443 -3.506e-20)
(-0.2045 0.06261 1.06e-20)
(0.93 -0.2127 -4.72e-22)
(-0.2018 0.03892 1.81e-21)
(0.82 -0.1464 -4.039e-20)
(0.0001341 -4.814e-05 0)
(-0.07792 0.02622 0)
(-0.2393 0.07903 -7.483e-22)
(-0.2327 0.07694 1.617e-21)
(-0.2816 0.08033 0)
(-0.2469 0.04269 6.678e-21)
(0.3047 -0.04309 -6.093e-22)
(-0.2287 0.03893 0)
(0.9614 -0.01843 -1.164e-20)
(-0.1825 0.03164 9.722e-21)
(-0.04587 -0.007242 0)
(-0.236 0.06004 -4.569e-21)
(1.001 -0.001283 4.037e-20)
(0.8332 -0.1295 -1.319e-21)
(0.8292 -0.2093 0)
(0.5427 0.04991 -3.444e-20)
(0.9971 5.868e-06 2.351e-23)
(1.001 -0.001325 -5.379e-20)
(0.0004583 -0.01267 0)
(1.073 -0.02195 -5.853e-21)
(0.6088 -0.1134 2.997e-22)
(-0.2418 0.04424 -3.866e-22)
(0.5137 -0.2744 0)
(-0.06379 0.03025 1.547e-20)
(1.237 0.274 0)
(0.3386 -0.02873 1.56e-21)
(0.6725 0.02205 5.002e-20)
(0.7016 -0.1895 0)
(1.011 0.001345 -1.612e-20)
(1.003 -0.0007749 0)
(1.173 0.4822 0)
(0.9277 0.2944 0)
(-0.1799 0.03507 1.192e-21)
(0.5494 0.03685 0)
(0.4084 -0.168 3.597e-21)
(-0.2066 0.05178 0)
(0.6404 -0.2637 -2.921e-21)
(1.201 -0.0689 1.446e-19)
(0.6096 -0.114 4.919e-20)
(1.001 2.702e-05 -5.926e-23)
(0.4315 -0.02794 -1.075e-21)
(1.005 -0.07233 -2.244e-22)
(0.6643 -0.1549 -3.962e-22)
(-0.0005326 -0.002482 2.075e-23)
(1.012 -0.1544 5.08e-22)
(-0.04211 0.03926 -9.632e-21)
(-0.2449 0.07524 7.469e-21)
(0.9999 1.969e-06 -3.202e-22)
(1.031 -0.11 8.679e-23)
(0.6949 -0.05961 -3.142e-21)
(-0.04253 0.01461 0)
(-0.05785 -0.0334 8.868e-21)
(-0.1363 0.04784 4.676e-21)
(-0.2115 0.04215 -1.219e-21)
(0.8697 0.7493 0)
(-0.2707 0.07785 6.682e-21)
(0.5392 -0.283 5.152e-21)
(-0.1777 0.04864 -1.816e-21)
(0.747 -0.183 1.939e-22)
(1.003 -0.1068 2.463e-21)
(1.066 -0.1093 1.686e-21)
(-0.2197 0.06518 3.63e-21)
(0.9791 -0.1611 4.923e-22)
(0.002645 -0.0001581 0)
(0.8265 -0.2103 0)
(0.9408 0.05607 3.3e-20)
(0.9223 -0.2075 -2.454e-22)
(0.6874 -0.2874 4.858e-21)
(0.8757 -0.09069 -6.412e-22)
(1.006 -0.001035 0)
(-0.07168 -0.006176 -4.194e-22)
(-0.09323 0.03107 -1.291e-20)
(-0.2462 0.0799 -2.35e-21)
(1.004 -1.769e-05 -2.059e-22)
(-0.02678 0.009906 0)
(-0.2692 0.08029 0)
(0.2692 -0.03663 4.591e-21)
(1.001 2.351e-05 3.958e-22)
(-0.2216 0.03822 8.939e-21)
(-0.1785 0.05415 0)
(-0.2382 0.04672 1.225e-20)
(-0.2008 0.03219 -6.16e-21)
(1.001 -2.337e-05 -3.391e-22)
(-0.2394 0.07664 -4.09e-21)
(-0.03735 0.006467 0)
(-0.1966 0.05463 1.444e-20)
(-0.2151 0.05427 0)
(0.9899 0.01909 -5.176e-21)
(-0.1471 0.04655 9.577e-22)
(0.03291 0.1803 0)
(1.022 0.001454 -1.676e-20)
(0.9851 -0.1773 -3.214e-22)
(0.9572 -0.1873 0)
(-0.2469 0.04278 -6.485e-21)
(-0.2743 0.08368 0)
(0.8978 -0.202 -4.174e-21)
(1.011 -0.1545 0)
(0.1994 -0.02349 7.44e-22)
(-0.237 0.07462 0)
(0.9977 -1.224e-05 -5.006e-22)
(-0.2397 0.07679 3.875e-21)
(-0.1974 0.06191 6.255e-22)
(0.2343 -0.01903 0)
(0.4467 -0.0645 1.464e-21)
(1.238 0.1936 0)
(-0.212 0.06482 0)
(-0.1602 0.05404 4.596e-22)
(0.9974 1.481e-05 1.354e-22)
(-0.2621 0.08393 -7.197e-21)
(-0.2052 0.06247 0)
(-0.0827 0.0391 0)
(3.272e-05 -0.01087 -2.314e-23)
(-0.0761 0.04026 -9.895e-22)
(-0.1294 0.04446 6.797e-21)
(-0.2438 0.05394 -9.533e-22)
(-0.1763 0.03925 0)
(0.9393 -0.2052 0)
(1 -0.0002667 1.873e-20)
(-0.0001486 5.501e-05 -1.538e-23)
(-0.2794 0.08183 8.965e-21)
(-0.2436 0.04283 6.051e-21)
(-0.1098 0.03917 2.281e-21)
(-0.2399 0.0786 -5.057e-21)
(-0.2257 0.07666 9.762e-21)
(-0.2597 0.08303 -3.328e-21)
(0.599 -0.0462 0)
(0.9997 -0.0004719 0)
(-0.08525 0.01489 0)
(1.045 -0.1223 -1.419e-23)
(1.001 -6.279e-06 0)
(-0.2559 0.07978 -1.199e-20)
(1.207 0.6014 0)
(0.9668 -0.1471 1.311e-21)
(0.7891 -0.2717 -2.008e-21)
(1.005 -8.072e-05 -7.444e-21)
(-0.2568 0.07257 0)
(-0.111 0.01382 0)
(1.011 0.001649 -5.21e-20)
(1.004 -8.971e-05 0)
(1.03 0.1118 0)
(-0.1945 0.06007 5.033e-21)
(-0.204 0.03371 -2.049e-21)
(-0.2222 0.07595 4.317e-21)
(-0.2446 0.07899 3.523e-21)
(0.06007 -0.001059 2.092e-23)
(1.036 -0.131 0)
(0.6775 -0.132 -2.941e-20)
(1.001 -0.001345 0)
(-0.261 0.08074 -3.715e-21)
(-0.2445 0.08191 0)
(0.5159 -0.03141 -2.536e-21)
(0.318 -0.02601 0)
(0.6626 -0.2013 -1.984e-20)
(1.003 -0.0004408 0)
(1.013 -0.00967 2.2e-21)
(0.9883 -0.009249 3.185e-20)
(-0.02165 -0.0001269 4.784e-21)
(1.001 -0.001267 7.089e-21)
(1.183 -0.08063 -5.356e-20)
(0.3229 -0.195 1.127e-21)
(1.019 -0.1279 3.257e-21)
(0.2234 -0.03431 -2.486e-21)
(1.001 -0.001644 0)
(-0.138 0.005342 -1.242e-21)
(1.02 -0.122 -2.07e-21)
(1.001 0.007146 0)
(0.4109 -0.04993 1.98e-21)
(0.9986 -0.0002281 0)
(0.5852 -0.2866 7.223e-21)
(-0.03156 0.06839 -6.093e-21)
(-0.232 0.04115 -1.403e-22)
(0.1012 0.05461 0)
(0.188 -0.008673 6.671e-22)
(0.9945 -0.007799 1.307e-21)
(-0.1976 0.05345 0)
(0.8114 -0.1555 -1.058e-20)
(0.3378 -0.02638 0)
(-0.03085 -0.009518 -1.108e-21)
(0.3184 -0.0404 9.123e-22)
(0.6638 0.9252 -2.038e-21)
(1.236 0.1959 -1.076e-20)
(0.98 -0.1696 -1.385e-22)
(0.7285 -0.2414 5.56e-23)
(0.06254 -0.005737 0)
(1 0.008742 0)
(0.3142 0.03092 2.23e-20)
(0.6078 -0.1962 0)
(0.0272 0.02106 1.222e-21)
(-0.04557 -0.006536 2.995e-22)
(0.1296 -0.02692 0)
(1.003 -0.0004112 0)
(1.076 -0.1293 3.353e-20)
(-0.138 0.04786 -1.836e-21)
(0.2367 -0.05401 -2.191e-21)
(-0.01664 0.0003878 1.956e-20)
(0.1134 0.05067 0)
(0.003538 -0.003517 -1.417e-21)
(-0.04314 0.0008774 -4.473e-21)
(-0.01089 -0.001046 4.31e-21)
(-0.2734 0.06917 -4.98e-21)
(-0.119 0.04152 4.59e-21)
(-0.07529 0.01445 5.889e-21)
(0.1059 -0.007704 2.14e-21)
(1.006 0.04476 -2.214e-21)
(0.9377 -0.1361 0)
(1.004 1.325e-05 0)
(0.9997 -1.183e-05 0)
(-0.1763 0.03738 2.736e-21)
(1.051 0.04538 1.828e-21)
(-0.2332 0.04516 4.81e-21)
(-0.227 -0.05811 -1.97e-20)
(0.2579 0.5385 0)
(1.07 -0.09664 -1.33e-20)
(1.05 -0.04567 -2.66e-20)
(1.154 0.5818 2.403e-21)
(0.909 -0.2077 5.183e-22)
(1.013 -0.008355 3.656e-20)
(0.0944 -0.007441 1.506e-22)
(-0.2522 0.0834 -1.419e-21)
(1.049 -0.04334 3.715e-20)
(-0.1793 0.04285 -2.093e-20)
(-0.02037 0.007335 -2.721e-21)
(-0.08117 -0.01793 0)
(0.9648 -0.193 0)
(0.04448 0.01522 -1.763e-20)
(-0.1028 0.04288 0)
(-0.204 0.06996 0)
(0.9936 0.0001381 2.982e-20)
(-0.1754 0.04989 2.434e-21)
(0.6742 -0.1577 4.253e-22)
(1.005 -0.007465 0)
(-0.2008 0.05133 9.58e-21)
(-0.2787 0.08116 0)
(-0.1817 0.05491 -2.593e-21)
(0.9984 -0.0001736 2.164e-21)
(0.8674 -0.007067 5.252e-21)
(0.2539 -0.03345 0)
(0.0434 -7.215e-05 4.237e-23)
(0.8006 -0.255 -4.675e-21)
(-0.0202 0.006797 0)
(-0.2494 0.07411 3.449e-21)
(0.6742 -0.281 0)
(0.9348 -0.2058 -8.313e-23)
(-0.0373 0.01303 0)
(-0.1452 0.01208 3.936e-21)
(0.9995 -6.753e-06 -4.88e-23)
(0.2719 -0.1595 0)
(1.133 0.3945 -1.132e-20)
(1.004 1.227e-05 0)
(0.7108 -0.2569 1.561e-22)
(-8.074e-05 -0.0001256 1.822e-22)
(0.2538 0.0002208 -7.611e-21)
(-0.08387 -0.004844 -1.527e-20)
(1.131 -0.04893 6.627e-21)
(1.01 -0.1521 4.32e-22)
(-0.02121 0.007249 8.586e-27)
(0.03417 -0.003685 -4.233e-22)
(0.6116 -0.06635 0)
(1.012 0.03667 -1.077e-20)
(0.997 0.004444 6.595e-21)
(0.9759 -0.1843 0)
(0.6324 -0.261 -1.635e-21)
(-0.255 0.0839 -1.315e-20)
(-0.1962 0.04689 0)
(0.3019 0.7533 -5.143e-21)
(0.3554 -0.1477 -2.135e-21)
(0.5567 0.01021 -2.075e-22)
(1.174 0.1672 -2.491e-20)
(0.3492 -0.1446 -2.093e-21)
(1.137 -0.01743 5.472e-20)
(-0.04168 0.003423 0)
(1.006 -0.0001228 0)
(-0.235 0.07598 3.966e-22)
(-0.0007557 -0.0308 -7.486e-23)
(-0.1865 0.04668 -7.408e-21)
(-0.2688 0.07681 0)
(-0.2572 0.07682 0)
(0.9952 0.002975 -2.22e-20)
(0.9813 0.002681 1.558e-20)
(-0.128 0.04449 0)
(0.919 -0.1748 9.229e-21)
(-0.2092 0.07149 0)
(0.6642 -0.08432 0)
(-0.184 0.065 -5.99e-21)
(-0.2149 0.06146 -1.927e-21)
(0.07127 0.04042 -9.859e-22)
(-0.1019 0.01142 -2.6e-21)
(-0.1647 0.0156 -1.523e-20)
(0.05917 -0.01065 -1.723e-21)
(-0.177 0.03888 -2.131e-21)
(0.4477 -0.03081 1.894e-21)
(-0.1931 0.05772 1.155e-20)
(1.044 -0.1247 -4.325e-21)
(-0.2186 0.06812 5.04e-21)
(0.4197 0.9375 -1.192e-22)
(-0.2315 0.07849 -2.564e-22)
(0.0002798 -0.03184 3.581e-22)
(-0.004477 0.0014 0)
(-0.2585 0.07732 0)
(1.006 -0.000988 0)
(1.005 -0.002758 2.563e-20)
(-0.2349 0.0745 2.941e-21)
(-0.2229 0.07098 0)
(1.002 -0.1543 2.922e-21)
(1.004 2.118e-05 0)
(0.6341 -0.2766 -4.837e-21)
(-0.2592 0.07323 2.981e-21)
(1.094 -0.0686 -1.817e-20)
(-0.2065 0.07014 0)
(0.05125 0.03147 -1.245e-20)
(-0.2286 0.07142 -1.361e-20)
(1.056 0.6096 -1.018e-20)
(0.9999 0.0007397 -4.9e-20)
(0.9835 -0.1587 0)
(1.113 -0.03 -1.142e-20)
(0.2323 -0.09193 0)
(0.2918 -0.02177 0)
(-0.1591 0.04481 5.155e-22)
(0.7 -0.182 1.609e-20)
(0.3425 0.02931 4.262e-20)
(-0.1716 0.03148 0)
(0.6264 -0.05544 -9.847e-22)
(1.106 -0.08311 0)
(-0.2023 0.05467 0)
(0.6423 -0.2841 5.362e-21)
(0.8646 -0.09989 2.297e-21)
(-0.2458 0.08244 0)
(0.3407 -0.1474 -2.65e-21)
(1.007 -0.01074 -1.233e-21)
(-0.04895 0.01618 0)
(-0.02471 0.008383 0)
(-0.1957 0.06122 0)
(-0.2422 0.0427 8.871e-21)
(0.01829 0.04413 -2.663e-20)
(1.002 0.01685 2.01e-22)
(-0.0294 0.007716 6.913e-21)
(0.06375 -0.01433 0)
(1 -0.0002277 0)
(0.999 -7.045e-05 -1.531e-20)
(-0.1921 0.04774 -2.749e-24)
(-0.2587 0.06717 1.269e-20)
(-0.001507 0.0004817 -1.835e-22)
(-0.03362 -0.0146 3.299e-22)
(0.9501 -0.1376 -3.738e-22)
(0.6522 -0.2414 0)
(-0.1965 0.06405 -1.231e-20)
(0.9912 -0.1552 0)
(1.032 -0.1262 0)
(0.9952 -0.008203 -1.1e-20)
(-0.1843 0.0605 -1.883e-20)
(-0.1542 -0.03619 0)
(-0.2293 0.07576 -1.128e-20)
(0.9618 -0.1907 0)
(-0.02855 0.008272 7.683e-22)
(-0.2506 0.08233 -6.991e-21)
(1.001 -0.001054 -8.448e-22)
(0.0634 -0.01003 0)
(-0.1837 0.05961 -3.721e-21)
(0.9998 -0.0007268 -6.073e-20)
(-0.2314 0.04047 -5.175e-21)
(1 -0.0002415 -6.138e-21)
(0.9945 -0.001547 2.5e-20)
(1.031 -0.1377 1.167e-21)
(0.9766 -0.1356 0)
(-0.0133 0.001849 -2.865e-20)
(0.9992 -0.001569 5.896e-21)
(0.4161 -0.04901 -2.354e-22)
(1.004 0.005078 0)
(1.21 0.6175 0)
(0.9871 -0.1231 -1.161e-21)
(0.09936 -0.01778 6.484e-21)
(1.053 -0.1161 -3.281e-21)
(0.5376 -0.106 -1.793e-23)
(0.5902 -0.08448 0)
(-0.1929 0.058 2.717e-20)
(1.053 -0.1153 4.803e-21)
(1.001 -0.003024 6.38e-21)
(1.002 -2.81e-05 1.559e-21)
(-0.1808 0.04595 3.746e-21)
(0.8363 -0.1537 1.47e-22)
(-0.2218 0.07561 -1.111e-21)
(-0.2158 0.06943 0)
(0.1595 -0.01015 3.324e-25)
(-0.1839 0.06017 -7.142e-21)
(-0.02764 0.009263 -2.453e-20)
(-0.2471 0.0433 9.215e-21)
(0.6844 -0.1923 0)
(-0.08747 -7.269e-05 -3.393e-20)
(0.5369 -0.05773 -4.799e-22)
(0.201 -0.0267 0)
(0.8223 0.4113 2.723e-21)
(-0.04056 0.01314 0)
(1.003 -0.007757 4.916e-21)
(-0.2145 0.04382 2.536e-20)
(-0.07633 0.006281 6.726e-22)
(0.318 -0.05245 0)
(0.9982 -3.425e-06 3.006e-21)
(0.3785 -0.2441 6.407e-21)
(-0.2367 0.06799 0)
(0.981 -0.09223 3.931e-22)
(0.872 -0.2399 3.917e-22)
(-0.223 0.04462 -3.809e-22)
(1.041 -0.1223 -3.627e-21)
(-0.1466 0.03288 0)
(-0.173 0.05325 3.674e-21)
(0.9852 -0.09301 1.172e-21)
(-0.1544 0.04984 -9.57e-23)
(0.514 -0.1413 -2.032e-21)
(-0.02941 -0.01036 1.208e-21)
(1 -0.0004947 0)
(1.119 -0.07321 -4.401e-21)
(-0.2154 0.04094 0)
(0.9938 -0.007726 0)
(-0.2526 0.05529 0)
(-0.1087 0.01248 3.07e-21)
(0.9984 -1.05e-05 2.487e-21)
(0.9511 -0.1967 1.249e-21)
(-0.08309 0.01894 0)
(1.014 -0.01767 0)
(0.8404 0.4135 -1.199e-20)
(-0.06221 0.03779 0)
(0.01649 -0.01187 0)
(1.006 -0.1334 -3.04e-21)
(1.004 2.677e-05 -1.431e-22)
(-0.2587 0.06353 -2.662e-22)
(-0.2626 0.07671 -6.3e-22)
(1.013 -0.003158 3.095e-20)
(0.8971 0.3759 4.272e-21)
(1.058 0.09648 8.756e-21)
(-0.2597 0.07363 4.485e-21)
(-0.2505 0.06773 -1.076e-20)
(0.9945 -0.1686 -6.329e-22)
(1.051 -0.03928 0)
(-0.04345 0.01121 -5.98e-22)
(-0.008635 0.003085 6.658e-22)
(0.5728 -0.1215 -7.562e-23)
(0.7137 -0.1136 -9.357e-22)
(-0.233 0.07031 -2.163e-21)
(0.1054 -0.008388 0)
(0.9943 -4.268e-05 -3.163e-21)
(0.8115 -0.0864 2.687e-21)
(1.005 0.006606 3.759e-22)
(-0.2678 0.08145 0)
(0.5761 -0.2581 -5.135e-21)
(-0.2519 0.04767 0)
(0.8716 -0.2393 3.506e-21)
(-0.01291 -0.007917 -6.578e-22)
(-0.06619 0.01006 0)
(0.9993 0.003051 -1.187e-20)
(-0.006645 0.002459 0)
(-0.1388 0.04496 0)
(-0.1629 0.04805 8.166e-21)
(1.06 -0.08863 4.125e-21)
(0.3382 0.1402 0)
(-0.1936 0.05796 -3.207e-21)
(-0.0198 -0.03024 9.57e-21)
(0.265 -0.01927 0)
(0.9964 -0.1379 0)
(0.8763 0.01962 -8.709e-20)
(0.01681 -0.0008664 6.333e-22)
(-0.2228 0.07236 1.681e-21)
(0.6568 -0.04486 0)
(0.4372 -0.09264 -3.662e-22)
(0.8044 -0.1228 0)
(0.4446 -0.2574 -1.043e-20)
(-0.009514 -0.01209 2.842e-21)
(-0.08606 0.02986 3.48e-22)
(0.9569 -0.1621 -1.882e-22)
(-0.2599 0.08423 0)
(0.08616 0.05736 0)
(0.5107 -0.06207 2.032e-21)
(0.5796 -0.05942 -1.676e-21)
(0.1952 0.002878 0)
(-0.02186 0.007851 0)
(1.066 -0.05781 7.396e-21)