/*--------------------------------*- C++ -*----------------------------------*\
  =========                 |
  \\      /  F ield         | OpenFOAM: The Open Source CFD Toolbox
   \\    /   O peration     | Website:  https://openfoam.org
    \\  /    A nd           | Version:  8
     \\/     M anipulation  |
\*---------------------------------------------------------------------------*/
FoamFile
{
    version     2.0;
    format      ascii;
    class       volScalarField;
    location    "25";
    object      nut;
}
// * * * * * * * * * * * * * * * * * * * * * * * * * * * * * * * * * * * * * //

dimensions      [0 2 -1 0 0 0 0];

internalField   nonuniform List<scalar> 
127143
(
7.484e-16
7.48e-18
2.141e-17
2.128e-16
1.294e-11
2.094e-16
8.381e-10
3.183e-11
3.202e-12
5.705e-08
2.883e-10
7.184e-11
2.174e-16
3.908e-16
1.26e-06
5.932e-09
1.876e-15
9.282e-05
4.812e-05
1.292e-08
4.477e-05
1.566e-09
7.036e-05
7.502e-06
1.482e-09
7.85e-06
1.152e-05
1.009e-05
2.39e-08
0.0001961
2.912e-06
6.38e-06
1.717e-06
1.611e-05
3.843e-05
1.847e-06
7.014e-05
3.401e-05
7.927e-06
1.017e-06
4.82e-05
2.07e-06
2.259e-06
1.166e-14
9.259e-05
1.643e-05
2.383e-08
0.0001396
6.754e-06
5.354e-06
8.012e-09
0.0003353
8.207e-06
1.859e-05
0.006682
2.687e-07
0.006682
0.000238
0.004022
2.14e-05
2.954e-06
4.047e-05
7.778e-06
0.006702
3.013e-05
1.959e-05
3.095e-05
7.49e-06
7.489e-06
0.00142
4.049e-06
1.217e-05
0.0002958
0.003396
0.006696
1.054e-05
0.0004547
7.681e-05
2.687e-07
0.006705
2.418e-08
1.889e-08
3.429e-05
1.337e-06
0.0002636
0.0001258
8.043e-06
1.243e-05
1.832e-05
1.424e-06
0.002176
4.952e-05
2.713e-06
4.464e-05
5.542e-05
0.0002601
2.285e-06
2.351e-06
0.0001236
3.441e-05
0.006705
6.59e-06
1.827e-07
7.717e-05
9.913e-05
0.0001271
6.941e-06
0.00142
6.634e-06
0.006683
1.395e-06
1.238e-05
5.503e-05
5.913e-07
0.003374
8.599e-05
0.0003782
0.006696
0.0005699
6.209e-11
0.006683
3.315e-05
1.36e-05
0.0002083
2.425e-08
7.035e-06
6.702e-05
0.0006652
1.496e-05
2.325e-07
5.508e-05
5.773e-05
1.04e-05
8.659e-05
5.196e-13
5.719e-05
0.0002262
2.238e-05
1.667e-07
0.0001461
4.431e-05
0.000594
8.755e-06
1.32e-05
8.09e-06
5.865e-06
1.966e-08
0.006703
6.885e-05
8.949e-08
3.73e-05
3.789e-06
2.79e-05
2.156e-05
2.022e-06
0.0002678
0.0001901
2.491e-07
0.0001283
1.717e-06
3.859e-06
1.646e-09
0.001967
4.977e-05
1.303e-07
2.315e-05
8.241e-05
6.534e-06
2.182e-06
0.0001025
3.366e-06
1.319e-05
7.702e-05
2.772e-05
0.0006936
0.0001877
5.863e-06
1.497e-05
7.955e-06
0.001999
2.384e-05
0.0008469
0.0002543
0.0001954
2.331e-07
3.884e-05
6.052e-06
7.092e-07
7.648e-06
0.0008663
1.419e-05
2.875e-05
0.0003226
1.048e-06
1.559e-13
2.866e-05
0.006709
0.006703
1.421e-10
0.001546
0.004665
0.0001325
0.0007707
8.01e-05
4.39e-15
5.843e-06
0.0001398
2.666e-05
0.0002388
0.003734
8.709e-05
0.0002305
0.003644
2.151e-06
4.434e-05
5.2e-10
4.616e-07
2.636e-05
7.49e-05
0.0001466
4.922e-06
0.006697
3.796e-06
7.746e-06
1.87e-06
1.549e-06
1.513e-07
3.498e-05
2.913e-05
0.0001042
4.697e-05
0.0008985
0.0002569
7.364e-10
4.694e-05
0.0002168
5.097e-05
3.489e-13
0.004103
1.069e-05
2.746e-05
3.058e-05
0.0001786
2.491e-07
1.681e-05
9.558e-11
2.833e-06
1.07e-05
3.639e-10
0.001388
3.39e-06
6.2e-06
2.295e-05
1.701e-05
4.387e-07
5.967e-06
0.0008314
2.592e-07
2.948e-05
8.732e-06
2.228e-05
0.0007449
4.552e-05
0.0005612
8.084e-06
2.962e-05
6.264e-05
1.983e-06
3.711e-06
1.696e-05
7.492e-06
0.0006934
0.0001357
1.087e-05
9.41e-06
1.304e-05
5.5e-05
7.188e-06
0.0005022
2.166e-05
0.002808
0.0001531
7.844e-05
0.0067
0.00489
1.639e-13
6.036e-05
0.003325
7.621e-06
0.001929
3.011e-05
4.118e-05
0.0002075
6.6e-05
0.002771
6.552e-06
3.696e-06
0.0001003
0.0001789
1.728e-05
8.367e-06
2.926e-05
9.955e-06
0.0001014
1.488e-06
3.268e-06
2.68e-05
0.003321
4.877e-05
1.787e-05
7.016e-06
3.685e-05
3.042e-07
0.003516
0.003854
2.42e-06
2.472e-05
7.021e-06
3.55e-05
0.0003634
8.056e-05
3.45e-06
0.0002955
2.288e-05
2.306e-06
1.587e-05
7.734e-05
4.337e-05
3.412e-06
3.822e-06
9.165e-05
0.00405
4.136e-05
0.006708
0.006703
2.166e-05
6.676e-06
7.583e-05
9.211e-05
7.895e-05
0.00017
2.633e-05
7.857e-06
1.144e-05
1.066e-06
7.62e-06
5.39e-05
4.805e-05
7.694e-06
1.557e-05
8.194e-06
3.643e-05
6.113e-05
1.289e-05
7.644e-05
5.664e-05
1.705e-05
6.72e-06
0.00622
3.422e-06
0.0001157
8.302e-06
9.81e-05
4.58e-06
5.897e-06
0.006698
0.001827
0.0003073
3.005e-05
0.0004678
1.746e-06
0.0003133
8.038e-06
4.435e-06
0.00112
4.841e-05
8.005e-06
8.793e-09
0.0001019
0.0005376
6.009e-05
7.302e-06
8.655e-06
2.203e-05
0.0003991
1.439e-07
2.402e-05
1.088e-06
2.982e-05
4.633e-05
0.005052
9.755e-06
7.835e-06
4.722e-07
7.327e-06
3.015e-06
9.997e-06
3.385e-06
7.403e-05
0.001037
1.078e-06
0.006697
2.935e-05
0.0002628
2.532e-05
2.501e-05
0.0001291
1.098e-05
0.006705
8.05e-06
8.395e-06
7.785e-06
4.243e-05
0.000103
1.232e-05
5.142e-05
8.762e-05
7.497e-06
2.301e-05
5.025e-06
8.538e-05
5.559e-07
5.051e-05
0.001891
0.0001216
7.889e-06
2.127e-06
3.473e-05
2.313e-05
0.0001075
0.00668
4.684e-05
5.279e-05
8.631e-05
1.058e-05
0.006698
2.176e-05
4.378e-05
0.0003652
0.002955
0.006694
5.786e-06
0.0001888
6.557e-06
0.0002291
2.373e-06
0.002822
2.902e-06
0.0003038
0.0002355
6.714e-05
8.664e-06
2.964e-05
3.123e-05
2.292e-05
3.982e-05
7.406e-06
2.393e-05
0.0001119
1.951e-05
1.173e-05
7.467e-06
3.011e-05
5.174e-07
8.248e-06
0.0008687
0.0008935
1.532e-05
5.189e-05
0.006672
0.0001347
4.305e-05
0.0001803
2.588e-05
0.0001818
0.00665
1.751e-06
4.257e-05
1.065e-05
9.925e-06
5.586e-08
2.703e-06
3.479e-05
3.04e-07
6.985e-06
1.059e-05
1.332e-05
0.006709
2.231e-06
0.000545
3.648e-06
8.067e-06
8.786e-06
5.849e-06
1.333e-13
7.541e-05
9.021e-07
0.0004421
8.984e-07
0.004865
5.471e-08
0.00093
0.000154
2.581e-05
2.601e-15
1.749e-11
2.525e-11
0.006698
5.681e-05
3.91e-06
0.003754
0.0001397
1.484e-05
9.724e-05
7.185e-05
6.806e-05
8.658e-06
0.0001338
9.942e-06
0.001008
0.0003206
2.169e-10
3.433e-06
7.292e-06
4.907e-06
0.004089
4.083e-05
0.0008109
3.545e-05
0.006327
2.061e-06
6.087e-08
1.761e-05
0.006674
1.535e-05
0.000186
4.838e-06
6.634e-06
6.969e-07
4.608e-05
0.0005044
5.985e-06
1.293e-05
0.006673
2.913e-05
2.391e-05
4.256e-06
4.585e-06
4.874e-05
1.101e-05
2.925e-05
2.051e-05
7.716e-06
0.0001238
4.816e-05
0.002474
1.331e-06
5.992e-05
8.333e-06
9.742e-06
0.0001381
0.006702
0.006701
9.968e-06
5.342e-05
1.045e-06
0.003311
0.004601
9.704e-06
1.373e-06
0.0001364
8.432e-06
4.342e-06
7.672e-06
4.069e-05
0.0007005
0.006683
2.008e-05
6.812e-05
8.707e-06
0.004743
1.09e-05
1.168e-05
6.143e-05
0.0005375
8.302e-06
0.003202
9.755e-05
0.0003034
4.769e-05
0.005075
4.161e-05
2.229e-05
5.409e-09
0.00665
6.997e-06
4.472e-07
0.006694
2.508e-05
0.002784
5.66e-06
1.317e-05
0.006699
3.903e-05
7.999e-06
4.465e-05
3.374e-05
1.002e-05
8.177e-06
8.641e-06
1.272e-06
7.94e-06
3.221e-06
4.522e-06
7.848e-05
7.308e-06
2.549e-06
0.005449
2.476e-06
0.005863
8.505e-07
0.0005586
8.887e-06
0.006679
0.002851
0.0002084
5.067e-06
6.21e-05
0.006478
0.006683
3.209e-05
1.168e-05
3.91e-05
3.208e-06
0.0002677
7.094e-06
6.603e-05
8.064e-06
1.117e-05
2.363e-05
1.701e-05
0.006477
2.138e-05
1.062e-05
9.301e-05
2.339e-05
0.002247
0.004603
1.806e-05
2.318e-07
1.332e-05
5.695e-08
0.0006243
0.003217
0.0001026
3.107e-05
0.0001526
2.121e-05
9.361e-05
0.0008015
8.834e-06
3.457e-05
9.629e-06
1.899e-05
3.245e-14
1.776e-06
0.0001146
4.035e-05
5.186e-05
4.12e-05
8.377e-06
4.507e-05
0.0003092
1.425e-05
0.0001196
2.928e-05
0.006682
7.142e-06
1.485e-05
2.895e-06
0.006673
0.006681
1.069e-07
0.0005918
6.986e-06
3.194e-05
4.943e-06
4.88e-05
1.193e-05
2.145e-06
6.628e-06
5.066e-07
0.006706
0.006673
3.456e-06
7.901e-06
3.205e-05
3.138e-06
1.48e-07
0.0001865
2.101e-06
9.738e-05
0.0001121
0.003669
2.334e-06
0.0001975
5.339e-07
5.641e-13
1.166e-05
8.819e-06
9.503e-05
0.00484
8.709e-06
6.887e-06
7.133e-08
4.875e-05
1.808e-05
1.117e-05
1.195e-07
7.353e-05
6.512e-06
4.952e-05
6.478e-07
8.291e-06
1.798e-05
6.572e-05
5.491e-05
5.259e-15
1.774e-05
0.0001168
3.2e-06
9.851e-06
8.231e-06
0.006693
0.0001949
3.823e-05
0.0001545
0.002977
6.241e-08
5.286e-05
8.292e-06
0.003093
3.294e-05
0.0001159
4.094e-05
2.598e-05
0.003744
0.0001219
1.852e-05
5.03e-05
1.728e-05
0.001363
7.857e-06
1.056e-06
0.002381
2.643e-05
4.537e-05
3.956e-05
7.968e-05
2.901e-05
1.164e-05
7.999e-06
6.948e-05
0.006635
0.0001386
7.298e-05
9.047e-07
7.779e-06
1.943e-05
0.0001382
1.041e-05
0.006652
9.724e-05
9.519e-06
1.004e-05
1.906e-09
1.021e-05
1.853e-05
3.295e-05
0.0001848
4.457e-05
0.006697
4.149e-15
6.528e-05
3.19e-05
7.758e-06
0.0001165
2.769e-05
8.574e-05
4.879e-06
0.006683
3.827e-05
7.807e-05
0.003471
8.43e-05
3.653e-06
7.094e-06
1.752e-05
0.006666
6.387e-05
0.0001427
0.006707
0.006661
2.362e-05
4.725e-05
0.0002441
1.38e-05
0.000146
1.722e-08
5.256e-05
6.291e-06
0.006682
0.0001169
7.885e-05
3.224e-06
1.871e-06
5.704e-06
0.002788
0.004391
0.0002561
1.173e-05
0.006682
9.766e-05
1.346e-06
8.586e-06
8.198e-06
0.006172
0.0002493
8.447e-06
0.006698
7.711e-06
0.006683
6.301e-06
1.164e-07
4.152e-05
1.47e-05
6.385e-07
0.002131
3.196e-05
1.617e-05
2.056e-06
8.183e-05
8.156e-06
8.759e-08
2e-05
5.893e-05
9.765e-06
2.915e-06
0.0067
3.138e-05
3.781e-07
1.362e-06
0.0001152
7.474e-06
0.002887
0.000209
1.959e-05
5.078e-07
6.107e-06
3.279e-06
6.013e-10
2.571e-06
5.566e-06
6.358e-05
6.323e-06
4.48e-05
1.757e-07
0.0004261
7.304e-06
0.004707
0.005151
8.906e-06
0.000311
2.25e-05
0.0001718
5.533e-07
0.00021
0.0004948
1.717e-06
3e-06
0.004218
0.0001052
0.0001264
0.0005844
3.865e-05
2.222e-09
0.0002925
3.417e-05
1.295e-06
1.948e-05
5.114e-06
0.006701
8.767e-06
5.342e-07
0.006265
4.506e-05
8.641e-05
3.229e-05
0.006669
0.0002733
7.344e-05
3.12e-09
1.557e-05
2.685e-09
7.949e-05
8.949e-06
4.281e-06
3.249e-07
2.914e-05
0.00569
2.142e-07
4.074e-06
0.005299
7.752e-06
1.478e-09
5.272e-05
1.487e-05
2.757e-05
0.0001051
1.167e-07
2.832e-08
8.145e-06
0.0005647
0.006697
3.109e-05
6.39e-06
0.0001016
4.248e-05
8.138e-07
7.393e-08
3.07e-05
3.045e-05
7.381e-08
0.000136
1.741e-05
0.006693
0.0001509
2.543e-05
1.142e-05
4.063e-05
7.666e-05
0.006697
0.001286
6.367e-06
3.696e-05
4.163e-05
8.039e-06
3.639e-06
0.0001702
1.699e-05
6.449e-06
2.675e-05
2.728e-06
8.064e-06
2.59e-06
1.483e-05
2.77e-05
0.0001417
1.182e-06
4.289e-05
1.331e-05
5.602e-09
8.991e-05
0.006692
0.006694
0.0001276
0.0001183
8.495e-05
0.006749
6.572e-06
6.58e-05
0.0002376
8.333e-06
2.037e-05
7.317e-05
1.197e-06
0.006705
6.822e-05
0.000239
1.589e-08
1.54e-06
8.879e-05
7.995e-06
3.509e-05
3.015e-05
7.3e-06
1.196e-05
0.0001271
6.589e-06
8.032e-06
7.95e-05
5.23e-08
0.00628
2.765e-06
3.402e-07
6.989e-05
2.935e-05
1.541e-06
0.002443
5.997e-06
3.402e-06
0.006402
0.006694
1.059e-05
5.753e-05
4.721e-10
0.0001107
7.314e-06
1.219e-06
2.84e-05
7.059e-05
0.0001223
0.001537
3.736e-06
0.000302
2.227e-05
5.488e-05
2.073e-06
0.0001466
0.005826
2.839e-06
9.08e-05
0.006692
4.379e-05
0.00589
0.0067
1.698e-05
7.312e-05
4.776e-06
0.00669
7.705e-06
0.006697
3.273e-06
9.446e-05
0.000104
5.154e-05
6.004e-06
7.841e-06
3.293e-05
1.015e-05
0.002974
0.0008939
1.068e-05
5.18e-06
1.932e-05
2.923e-05
4.604e-07
1.008e-05
1.311e-06
3.59e-05
4.774e-07
2.018e-05
7.978e-06
8.215e-06
3.181e-06
5.394e-05
0.005012
3.863e-05
0.0001254
8.545e-06
0.001909
3.879e-06
4.186e-05
8.157e-06
4.928e-06
1.494e-05
0.0001722
2.814e-05
1.945e-05
8.16e-06
4.807e-05
2.129e-07
8.005e-05
0.006597
1.355e-05
3.711e-05
0.002083
4.386e-05
2.812e-05
0.006739
4.273e-05
2.758e-05
0.0006276
2.857e-06
2.467e-05
6.021e-05
0.0001011
0.006723
5.46e-05
4.846e-05
0.005573
4.049e-06
9.585e-05
6.949e-05
5.64e-05
4.736e-05
0.0004621
7.384e-06
9.176e-09
2.472e-06
7.579e-06
0.0001025
1.769e-07
0.001624
8.229e-06
0.006697
0.0001278
4.838e-06
4.402e-05
4.92e-06
3.148e-05
1.21e-05
0.006699
5.856e-11
4.401e-05
1.848e-05
8.845e-06
3.238e-07
2.078e-05
6.035e-05
1.418e-06
7.828e-06
4.411e-05
1.533e-10
9.981e-05
3.989e-06
3.707e-06
7.398e-06
3.858e-06
9.363e-05
7.942e-08
6.035e-06
4.965e-05
1.363e-05
8.691e-06
7.787e-06
5.624e-05
3.092e-08
0.0002828
2.333e-06
0.0001711
8.227e-06
0.006711
0.006692
2.033e-05
1.89e-07
0.0001699
0.000859
4.459e-06
8.998e-07
0.006698
1.048e-05
7.524e-06
1.712e-05
1.019e-08
2.43e-05
2.125e-05
2.154e-13
9.962e-05
5.696e-07
9.604e-05
8.005e-06
1.693e-05
7.788e-06
2.016e-06
7.736e-06
3.628e-05
0.0006863
0.0001343
1.304e-05
2.758e-05
3.843e-05
6.672e-06
0.0001763
4.378e-07
0.0001063
9.131e-05
0.0002532
1.957e-06
1.169e-05
3.525e-05
2.747e-08
3.195e-05
1.44e-05
5.676e-06
5.021e-05
8.303e-05
0.006697
8.267e-05
1.699e-05
1.339e-05
3.198e-06
5.73e-07
1.461e-06
0.006684
6.675e-06
4.221e-06
5.28e-05
2.953e-06
6.234e-06
4.036e-05
2.49e-06
0.001877
1.138e-05
0.0001096
1.253e-05
5.703e-05
0.001004
3.056e-05
0.003625
5.43e-06
3.187e-06
0.000122
6.876e-05
3.446e-05
0.006493
0.006674
1.579e-05
0.0002745
4.43e-05
5.454e-05
0.002384
0.002151
9.95e-07
7.443e-05
3.589e-05
1.629e-05
8.401e-06
3.124e-06
2.722e-05
8.325e-06
7.466e-05
6.435e-05
0.006677
2.908e-06
9.259e-05
7.518e-06
3.053e-06
2.271e-05
2.259e-05
0.0001052
8.372e-06
2.79e-05
5.374e-09
6.493e-05
6.717e-05
0.0001807
2.1e-05
6.787e-05
7.323e-06
3.805e-09
3.989e-05
2.56e-05
0.006683
6.115e-06
8.082e-07
0.00669
7.168e-07
1.107e-05
0.0001194
7.912e-06
0.006688
1.99e-05
1.33e-09
0.00238
4.578e-06
5.998e-05
8.133e-06
1.458e-07
5.016e-05
7.619e-05
5.369e-06
1.29e-07
0.00011
3.743e-05
9.727e-06
4.543e-06
1.298e-06
7.503e-08
2.898e-06
9.962e-05
0.006693
5.703e-06
4.032e-05
2.123e-06
3.395e-06
7.297e-05
0.0001156
0.00667
0.0001268
3.98e-05
0.006306
0.0001847
0.006324
1.037e-07
0.0001567
2.021e-07
6.447e-05
7.994e-06
4.999e-06
5.254e-05
6.359e-06
6.002e-07
2.116e-06
5.602e-05
0.000104
9.607e-06
3.581e-05
0.0001145
0.006702
9.069e-05
0.0007701
8.967e-05
0.006699
0.0002087
0.006688
5.954e-06
2.015e-05
0.006735
0.006378
9.363e-05
5.376e-05
1.037e-05
7.605e-05
0.006758
8.636e-06
7.463e-05
4.584e-05
9.654e-12
9.486e-06
1.495e-09
7.513e-06
1.057e-05
8.396e-06
5.841e-06
0.0002491
7.316e-05
7.781e-07
0.0002561
1.25e-05
3.433e-05
1.97e-05
7.204e-06
3.3e-05
0.006689
1.995e-06
6.178e-05
4.966e-08
0.006699
2.861e-06
5.439e-06
8.053e-06
8.44e-05
0.006649
0.006648
0.0001404
6.224e-05
0.0002619
5.526e-05
8.313e-06
5.284e-05
3.212e-06
0.0003759
9.284e-05
8.173e-08
1.064e-05
0.0001537
7.665e-05
6.56e-05
2.583e-05
2.54e-05
4.396e-06
8.335e-06
0.0001134
0.001815
0.0001399
2.485e-05
6.842e-06
7.857e-06
0.0005757
6.946e-06
0.0003161
8.008e-06
5.552e-05
2.003e-05
0.0001823
0.006693
9.634e-05
1.78e-05
3.478e-06
6.046e-07
8.872e-05
8.533e-05
3.844e-05
8.674e-05
0.006625
1.27e-06
5.593e-05
5.931e-09
2.599e-05
2.785e-09
8.037e-05
0.006694
2.089e-05
1.781e-05
2.631e-05
6.763e-06
1.963e-05
9.843e-06
8.335e-06
8.309e-06
0.0003269
1.582e-06
0.0001607
5.051e-06
1.583e-05
3.206e-06
0.00271
0.002708
7.867e-06
6.774e-06
2.947e-08
4.887e-06
5.864e-06
2.006e-06
2.477e-06
0.0003457
1.752e-05
0.0002538
0.002255
0.006691
0.0001471
0.006481
9.772e-09
0.006695
1.778e-07
3.603e-05
5.907e-06
6.913e-06
2.782e-06
0.001431
9.007e-08
3.92e-05
8.924e-07
8.086e-05
4.379e-06
0.00537
5.291e-05
6.016e-06
7.9e-05
9.357e-06
6.643e-06
0.0001101
1.183e-06
7.72e-07
0.0002725
0.006665
5.968e-08
0.001488
0.006745
4.846e-05
3.175e-07
0.006666
9.297e-07
0.006697
1.106e-05
1.048e-05
2.979e-05
9.733e-07
0.006675
0.0001395
3.937e-05
6.784e-05
1.731e-05
3.115e-05
2.967e-05
0.004929
0.006686
1.105e-05
1.299e-10
2.482e-05
7.462e-06
0.0006005
1.657e-07
7.833e-05
4.395e-05
0.002122
1.635e-05
9.53e-05
3.03e-06
0.0004491
6.181e-06
0.0006338
1.381e-05
0.006704
2.27e-06
8.386e-06
0.0002902
4.69e-07
5.743e-07
6.483e-05
0.006688
9.927e-06
3.029e-06
4.961e-05
2.803e-06
7.446e-06
2.713e-05
0.000501
1.151e-05
1.216e-08
7.994e-06
8.585e-07
2.591e-07
0.001951
3.059e-05
0.006701
1.166e-05
2.132e-06
7.231e-06
0.006696
3.216e-05
0.006694
0.0001676
6.83e-05
0.006713
3.13e-05
0.0002923
7.838e-06
2.635e-05
0.0006072
7.773e-06
0.006697
4.782e-07
1.829e-07
7.974e-05
4.497e-05
7.196e-06
0.001101
1.791e-05
6.493e-05
3.557e-06
8.865e-06
0.0001359
7.73e-06
3.91e-05
2.439e-05
4.195e-07
0.0002103
2.004e-05
1.167e-05
0.0002248
7.839e-06
8.269e-05
6.575e-06
8.16e-06
0.0002049
0.001105
1.33e-06
7.768e-05
1.883e-05
9.258e-05
3.167e-06
9.253e-05
7.381e-06
0.0001229
0.006666
7.218e-06
5.481e-06
0.0001806
8.428e-06
0.0004394
1.029e-05
0.006705
2.108e-05
7.166e-06
4.136e-05
6.032e-06
5.432e-06
5.967e-06
0.006696
8.34e-06
5.158e-06
8.127e-06
1.738e-05
0.0004081
8.076e-06
8.047e-06
0.006694
0.0001491
5.554e-05
0.001784
7.046e-06
3.183e-05
3.393e-05
4.745e-06
0.0001083
0.0002133
0.002289
2.883e-05
2.653e-05
0.006599
2.088e-05
5.181e-06
1.605e-06
0.006741
3.122e-05
3.228e-07
4.277e-05
1.422e-05
9.189e-05
8.071e-06
1.83e-06
0.002086
0.001223
3.679e-05
0.0008867
2.96e-05
4.442e-06
0.000159
7.347e-07
3.489e-05
0.0003885
2.377e-05
4.385e-10
8.93e-10
0.0001742
2.981e-05
4.912e-05
0.0002499
0.0001178
2.854e-05
0.0001851
1.022e-05
2.292e-05
8.109e-05
8.512e-06
6.588e-08
7.887e-05
0.0001592
0.003172
1.562e-06
0.0001543
7.991e-05
5.77e-06
4.653e-05
2.858e-06
0.0001752
4.24e-05
0.006744
3.572e-07
7.425e-06
2.777e-05
2.951e-05
6.944e-05
3.056e-06
1.123e-06
0.0001057
4.5e-05
1.199e-07
3.564e-05
7.09e-06
4.139e-06
0.006635
1.003e-05
1.465e-06
8.122e-06
0.004703
0.0001587
0.0001287
4.726e-06
3.358e-05
0.0002685
6.937e-06
0.005387
4.386e-06
7.096e-06
0.0001685
0.0002582
0.003916
7.669e-06
8.486e-08
7.507e-06
1.998e-06
2.729e-08
9.831e-05
6.949e-06
0.001426
1.305e-06
1.614e-05
0.0001873
7.633e-05
3.895e-05
1.175e-05
0.0001256
8.031e-06
0.002529
3.342e-06
2.682e-08
3.464e-07
7.163e-05
2.541e-05
2.914e-05
1.017e-05
0.0011
0.0001147
9.938e-06
7.973e-05
0.003766
8.222e-06
8.029e-06
8.398e-06
6.515e-05
3.984e-05
1.742e-06
1.842e-05
7.779e-07
1.468e-06
2.264e-08
0.0001563
6.033e-06
3.213e-08
5.548e-05
9.058e-07
7.361e-05
2.636e-05
1.302e-05
5.178e-11
1.904e-05
2.381e-05
0.003106
0.0002791
1.103e-06
2.697e-05
0.003775
0.006698
8.696e-05
7.595e-06
0.0002468
5.688e-06
8.501e-08
1.304e-06
0.001
6.413e-06
0.0001966
5.288e-05
7.75e-06
3.477e-05
0.0002247
8.087e-06
8.148e-05
0.0001117
3.288e-05
0.006697
2.102e-05
0.0001228
8.003e-06
0.0001244
7.641e-06
1.104e-05
4.319e-05
6.513e-06
2.087e-05
9.895e-06
8.028e-06
1.682e-06
8.572e-06
0.0001082
7.062e-05
0.0001147
3.146e-05
7.105e-05
2.135e-07
3.597e-05
0.00486
7.158e-05
7.366e-05
8.324e-06
6.197e-06
0.0007536
1.952e-05
4.322e-05
1.466e-05
0.002984
1.67e-05
0.0003207
0.0001237
0.0001839
1.144e-05
8.439e-05
8.714e-07
0.0001654
0.0001925
6.314e-06
0.006676
0.0001677
4.029e-05
0.000145
3.71e-05
0.006688
0.0001261
4.748e-06
1.175e-06
0.006697
0.0007264
0.0002443
1.777e-05
9.393e-06
0.0007783
1.089e-05
0.0001369
2.329e-07
3.807e-06
6.12e-05
8.625e-06
2.774e-05
0.0007747
8.176e-06
6.945e-08
3.473e-05
1.156e-07
3.537e-06
3.765e-05
2.977e-06
0.003297
0.006665
1.059e-05
7.324e-05
3.355e-06
0.006697
2.005e-05
2.462e-05
8.723e-09
5.536e-05
6.204e-06
0.006292
0.006441
7.969e-06
4.986e-05
9.586e-05
2.207e-06
3.885e-05
4.329e-05
0.0001587
0.006705
7.152e-06
1.607e-06
7.506e-06
0.0001272
1.166e-06
0.0001738
2.026e-05
0.006724
3.22e-05
2.174e-06
6.858e-06
5.248e-07
6.422e-05
2.125e-06
9.99e-06
1.607e-05
6.942e-06
4.381e-05
7.473e-05
0.0001283
6.456e-06
3.806e-08
0.004586
0.005142
6.094e-06
2.897e-05
3.84e-07
7.975e-06
2.127e-06
3.778e-05
0.001236
0.00542
6.415e-06
0.006702
7.721e-05
4.196e-08
3.974e-06
0.0001081
7.514e-06
0.0001375
2.949e-07
2.063e-06
0.002069
2.614e-05
3.615e-05
7.512e-06
0.0001861
1.312e-05
7.508e-05
2.927e-05
3.309e-05
0.000144
2.048e-05
9.173e-05
1.387e-07
2.551e-06
8.147e-05
2.561e-05
5.3e-08
9.048e-05
2.147e-05
1.462e-05
6.204e-07
6.659e-06
2.362e-05
7.862e-06
0.0001293
3.034e-05
0.001061
0.0001667
0.006703
7.681e-06
4.261e-05
6.477e-06
2.582e-05
4.276e-05
1.046e-05
3.029e-09
1.7e-06
3.152e-05
8.33e-06
2.334e-06
1.525e-05
0.0006934
0.0001813
1.08e-05
4.019e-06
2.882e-05
0.0001197
0.0003785
7.269e-05
0.004045
1.033e-05
1.04e-07
7.123e-05
2.904e-05
0.0002364
6.24e-05
2.021e-05
0.006711
1.387e-05
0.0001127
0.0003151
8.932e-07
0.0001622
3.491e-05
9.036e-05
3.039e-05
6.212e-06
1.457e-05
4.235e-06
1.051e-06
5.564e-06
0.006711
0.0001055
1.4e-05
4.134e-07
4.112e-07
1.1e-05
2.922e-05
2.24e-05
0.003227
3.203e-06
2.443e-06
7.106e-06
5.582e-06
8.152e-06
1.692e-05
7.315e-06
1.865e-06
5.506e-06
2.276e-05
1.027e-06
1.312e-07
5.398e-05
5.437e-05
2.144e-07
0.001714
4.697e-05
0.002538
0.006699
5.88e-06
0.002008
5.75e-07
1.01e-05
3.322e-05
1.067e-05
8.037e-06
1.715e-05
0.0001016
2.741e-06
5.656e-05
0.0002358
4.023e-10
7.661e-05
6.873e-05
0.0003634
2.538e-09
2.941e-05
3.071e-07
3.377e-07
0.003107
4.931e-06
6.474e-06
8.437e-05
4.045e-05
4.392e-07
2.897e-06
9.708e-06
8.572e-05
7.733e-05
0.000119
3.243e-05
0.006701
4.548e-05
4.18e-05
1.196e-05
1.554e-05
7.518e-06
1.519e-07
0.0001106
0.003532
3.72e-05
7.716e-05
6.07e-05
9.565e-06
5.605e-05
9.796e-07
8.379e-06
1.492e-07
6.844e-06
4.654e-05
6.693e-06
4.033e-06
9.891e-05
3.863e-05
1.826e-05
1.921e-09
3.796e-05
8.003e-06
8.01e-06
0.006597
4.363e-06
4.31e-05
0.0001248
8.767e-05
7.777e-06
2.721e-05
4.27e-06
3.499e-05
3.219e-05
1.157e-07
0.006465
4.721e-06
3.582e-05
7.375e-05
2.197e-05
3.809e-07
0.005096
5.089e-05
4.954e-05
3.175e-05
2.561e-07
2.045e-05
2.992e-05
3.111e-06
0.0001192
8.342e-06
0.006736
0.006727
6.966e-06
1.903e-05
2.029e-05
1.783e-05
7.619e-06
0.006688
1.685e-05
4.584e-06
1.144e-05
0.002432
0.002995
9.343e-06
2.386e-05
6.548e-06
5.565e-08
2.882e-07
0.006129
3.749e-06
2.001e-09
9.003e-05
7.192e-06
4.086e-06
0.00186
0.0001034
9.725e-06
6.168e-05
0.0001588
0.006651
0.006612
0.006634
0.006359
0.0007569
0.0002877
2.358e-05
1.695e-06
5.283e-05
5.215e-05
5.307e-05
1.942e-05
0.006099
5.862e-05
9.309e-05
4.556e-06
2.437e-05
9.038e-07
0.0001261
8.626e-06
8.219e-06
1.133e-05
6.962e-06
0.0003435
8.055e-06
9.088e-10
1.579e-06
5.403e-06
2.761e-06
6.66e-06
0.005659
1.428e-09
6.892e-05
1.075e-06
4.708e-05
0.0001131
3.575e-09
0.006696
5.088e-05
3.028e-05
0.005021
3.551e-05
0.0001115
2.632e-05
8.718e-05
1.025e-06
4.757e-05
2.842e-05
0.006632
5.927e-06
1.134e-05
4.872e-05
0.0001239
1.027e-05
0.006714
0.003168
2.396e-05
3.503e-05
4.834e-06
0.0004311
4.189e-05
2.676e-05
0.0001044
1.587e-06
8.229e-06
3.612e-05
0.0001509
0.0003301
0.0001141
0.0001729
1.21e-08
1.947e-06
0.004975
1.605e-08
0.004677
0.006577
3.943e-05
0.001426
1.265e-06
9.552e-05
1.836e-06
0.0001346
5.67e-06
0.006697
0.0003159
3.084e-05
7.198e-06
0.0001624
0.003417
5.692e-05
1.097e-08
1.67e-05
0.006702
1.307e-05
1.472e-05
5.129e-10
0.001976
3.592e-05
1.616e-05
0.0001017
0.0004397
4.424e-05
4.844e-06
2.646e-08
5.144e-06
8.085e-06
1.387e-11
0.005178
6.909e-06
2.143e-05
7.036e-06
0.006696
7.53e-06
2.532e-08
7.631e-09
3.981e-07
0.0001842
1.648e-05
6.575e-08
0.0004238
6.099e-05
0.00669
4.32e-05
2.314e-05
3.047e-05
4.031e-05
4.7e-07
5.226e-05
0.0001726
1.075e-05
0.006706
0.001894
3.336e-06
2.409e-05
6.202e-05
2.945e-07
3.117e-05
0.000182
0.0001016
1.133e-05
4.452e-05
0.0001151
0.005349
7.697e-06
1.013e-05
6.901e-06
1.24e-05
7.365e-06
3.885e-06
1.164e-06
1.169e-07
5.095e-06
6.606e-11
4.695e-06
0.0002807
1.028e-06
0.0002888
7.972e-06
3.267e-07
0.004757
5.938e-09
0.006705
1.604e-05
5.272e-06
1.451e-06
6.05e-05
4.002e-06
2.341e-06
4.809e-06
0.006646
1.434e-09
8.573e-06
0.002103
8.272e-05
9.313e-05
9.033e-09
5.797e-06
9.467e-10
2.717e-05
7.775e-07
5.206e-07
2.111e-05
1.842e-05
8.052e-06
1.263e-05
0.006672
0.0001121
8.753e-06
2.638e-05
9.111e-06
0.0001652
0.0001547
7.92e-06
7.313e-06
2.571e-06
7.006e-06
0.003876
7.376e-06
2.8e-05
8.823e-06
4.525e-05
0.002364
6.494e-05
1.021e-05
3.12e-05
3.357e-05
1.472e-07
0.002132
0.002137
6.876e-05
7.103e-06
1.705e-05
0.0001252
2.922e-05
0.00649
0.00022
8.379e-06
0.006337
6.713e-05
5.795e-07
0.000115
6.65e-05
0.0001472
9.216e-08
3.428e-08
2.522e-06
6.232e-05
6.577e-06
7.939e-05
3.795e-05
5.105e-05
2.26e-05
3.285e-06
0.0001302
1.558e-07
7.369e-06
9.055e-08
4.799e-06
4.103e-05
8.359e-09
0.000298
7.806e-06
1.433e-05
0.002609
8.784e-06
0.0001089
0.001299
1.645e-05
8.217e-07
6.345e-05
5.607e-06
1.016e-05
1.882e-09
2.063e-09
0.0002444
1.196e-10
0.0007602
3.917e-05
9.237e-05
0.0001403
2.159e-05
0.006705
5.657e-06
5.803e-07
4.708e-05
9.526e-06
4.109e-05
1.347e-05
5.676e-06
6.938e-05
0.0001082
2.607e-05
0.0002514
1.497e-05
3.758e-05
0.005149
4.947e-05
6.797e-06
0.0067
0.0004991
2.173e-06
0.006697
2.389e-05
6.036e-05
7.155e-06
5.604e-05
6.068e-06
0.001404
5.79e-05
3.002e-05
1.517e-06
3.093e-06
9.906e-07
8.453e-06
0.006687
1.853e-06
0.006713
0.0002608
8.391e-05
4.574e-05
2.844e-06
6.407e-05
8.112e-06
2.812e-05
6.991e-07
2.014e-05
0.0008687
0.0001249
2.804e-05
0.006674
7.524e-05
0.006696
2.288e-06
2.143e-05
4.431e-06
0.000115
0.00666
4.671e-05
7.728e-06
1.317e-05
1.472e-06
3.097e-05
8.599e-06
0.0003863
3.874e-05
9.482e-05
4.548e-05
3.774e-05
1.158e-05
0.000192
6.451e-06
0.0001215
3.379e-06
8.259e-06
0.006631
0.006741
0.001438
0.000319
3.923e-06
5.717e-06
1.477e-05
0.001499
8.236e-06
6.517e-06
7.997e-06
0.006698
4.474e-06
2.568e-05
5.946e-06
0.002282
2.063e-09
1.782e-05
6.526e-06
0.003187
0.0007581
1.982e-07
0.0002542
8.118e-06
1.851e-06
1.66e-06
7.392e-05
4.918e-05
0.006698
4.285e-06
3.868e-06
7.203e-06
7.73e-05
1.146e-05
4.196e-05
0.0001265
5.755e-06
4.231e-07
0.006698
4.336e-05
9.496e-06
1.439e-05
4.72e-06
0.006702
2.094e-05
1.93e-05
8.27e-05
4.134e-05
2.641e-05
2.982e-06
0.0001645
1.157e-05
1.166e-05
0.0002339
2.229e-05
2.191e-05
0.005175
4.45e-06
2.708e-06
0.000164
2.656e-05
1.477e-05
1.158e-05
5.463e-05
0.006695
0.0002299
0.0002821
0.003197
5.338e-08
7.089e-05
0.006698
0.0007115
8.166e-06
1.071e-08
0.006698
0.0001694
3.515e-07
7.988e-06
4.05e-05
3.588e-05
4.219e-07
3.458e-05
4.697e-06
8.325e-06
1.336e-08
1.802e-05
0.001261
7.352e-05
1.386e-05
6.125e-05
0.006685
0.0003063
4.71e-05
0.000168
3.216e-05
6.94e-06
4.955e-08
0.0001253
2.577e-05
2.055e-08
2.45e-05
2.937e-06
0.0001408
3.577e-05
9.534e-05
8.391e-07
1.671e-07
0.00669
2.804e-05
6.183e-06
0.006698
1.033e-05
0.0001252
8.176e-06
0.00026
8.285e-06
8.355e-06
8.015e-05
1.712e-05
0.004783
0.001675
0.0001043
2.496e-05
0.006758
2.092e-05
0.0002112
3.267e-07
0.0002589
6.82e-05
3.696e-06
8.329e-06
6.649e-05
7.046e-06
0.006711
1.116e-06
7.194e-06
4.003e-07
8.378e-06
6.221e-05
1.411e-06
1.706e-05
3.445e-05
1.371e-06
3.385e-05
7.943e-07
0.006699
0.006691
0.0001472
3.075e-05
0.006685
6.623e-09
7.283e-06
1.417e-06
7.337e-06
1.933e-05
6.362e-05
0.005027
7.346e-09
0.0007747
5.393e-06
0.006744
1.144e-05
4.826e-05
0.0001343
7.863e-05
8.271e-06
0.0001275
2.086e-05
0.006661
6.326e-05
3.509e-06
9.336e-07
1.472e-05
0.0003213
0.0001056
2.209e-05
0.006699
1.212e-05
4.947e-05
0.0001668
0.0001947
9.59e-05
3.14e-06
0.005926
0.006714
1.593e-05
9.039e-06
0.0002309
1.69e-07
0.006701
1.907e-06
6.612e-05
6.25e-06
0.006701
7.046e-05
8.487e-06
1.951e-06
2.655e-05
7.796e-05
2.249e-06
0.006715
3.93e-07
0.00474
2.759e-05
5.416e-08
0.0009206
8.388e-05
5.338e-05
6.272e-06
8.959e-08
8.78e-06
7.949e-05
0.006661
2.119e-05
9.683e-05
0.0067
3.767e-05
5.103e-06
2.272e-05
0.006761
0.0001919
6.891e-05
0.0001029
6.239e-06
9.507e-05
0.004192
2.09e-06
5.469e-06
3.156e-06
0.000452
0.006697
0.006705
0.0007453
2.287e-05
7.945e-05
8.246e-06
2.737e-06
2.548e-07
5.743e-06
1.503e-08
9.196e-07
0.001354
3.012e-06
2.666e-05
5.199e-07
0.0001298
6.841e-05
1.464e-05
2.935e-07
2.713e-05
8.159e-08
4.89e-05
0.0003399
7.94e-05
2.457e-06
7.236e-06
1.052e-05
0.0002078
6.165e-05
2.965e-05
1.139e-06
0.004098
6.976e-05
3.458e-05
1.645e-05
4.965e-06
3.039e-05
3.041e-06
1.085e-05
0.006665
3.213e-08
6.824e-05
0.006745
4.606e-06
0.006696
1.731e-05
5.499e-05
0.001514
3.241e-05
7.071e-06
0.006707
2.817e-05
3.047e-05
3.302e-07
0.0006574
1.101e-05
7.385e-06
6.64e-05
0.006691
1.133e-06
0.0001355
0.0005541
1.288e-05
6.282e-05
8.269e-06
4.632e-08
8.686e-06
3.486e-05
1.825e-05
4.475e-05
3.552e-06
0.0067
0.0002726
3.455e-06
8.234e-06
6.079e-05
0.006701
2.954e-09
8.06e-06
1.096e-05
3.147e-05
0.0001179
2.283e-05
0.006668
0.0004733
4.766e-05
3.9e-05
2.634e-05
6.86e-06
7.2e-06
2.925e-05
6.4e-06
6.66e-06
5.635e-05
4.541e-05
4.986e-05
1.193e-05
1.955e-05
3.113e-05
0.006701
2.962e-05
0.001038
0.000131
6.205e-05
7.897e-05
2.378e-06
7.24e-05
1.394e-08
1.92e-05
1.371e-05
0.002264
0.006691
5.872e-05
1.411e-05
1.013e-06
1.777e-05
8.67e-05
7.419e-06
5.268e-07
7.839e-06
2.153e-05
3.042e-05
3.266e-06
7.974e-06
1.125e-05
7.86e-05
8.203e-06
4.935e-05
2.566e-06
2.383e-05
2.59e-05
0.0001477
8.021e-06
0.006694
5.963e-05
0.0006258
0.006691
7.678e-05
8.226e-06
0.0003158
7.366e-12
7.108e-06
2.3e-05
0.006698
8.649e-06
5.222e-05
0.002982
1.432e-05
1.059e-05
1.181e-06
5.094e-06
3.475e-06
0.006697
2.409e-05
0.006715
7.913e-05
3.886e-05
2.45e-06
6.141e-05
3.242e-06
5.198e-12
0.006612
0.006694
1.061e-05
5.443e-06
8.46e-06
0.0001838
6.325e-06
8.185e-06
3.661e-05
0.0001485
0.001327
3.44e-06
1.41e-06
1.457e-05
0.000131
0.00669
7.785e-06
4.998e-05
7.203e-06
7.803e-06
5.431e-05
0.0006871
2.663e-06
1.667e-05
0.0002866
8.107e-06
3.563e-05
8.211e-05
0.006706
0.006377
7.418e-06
5.105e-07
1.72e-05
3.254e-05
0.0001091
0.0002601
8.029e-06
2.194e-05
0.006628
5.084e-06
1.316e-05
5.729e-07
1.475e-05
5.895e-06
0.006684
7.826e-06
6.941e-06
1.008e-05
1.917e-06
7.043e-06
2.196e-05
7.94e-06
5.69e-06
7.936e-06
8.071e-06
8.47e-07
6.762e-05
0.002025
4.394e-05
5.89e-05
4.154e-08
0.0005028
0.0002047
8.556e-06
1.233e-05
0.0001794
2.318e-06
4.649e-05
5.731e-07
8.67e-05
9.24e-07
1.77e-05
6.614e-05
2.703e-05
5.696e-07
0.0001303
2.674e-06
2.005e-08
0.005068
2.282e-06
4.113e-06
8.149e-07
1.771e-05
7.739e-06
5.443e-05
3.581e-05
8.357e-06
3.23e-05
2.994e-05
1.545e-05
0.0001391
8.3e-05
0.000189
0.0001131
1.263e-05
0.0001468
6.589e-05
2.73e-07
3.677e-05
2.342e-07
8.26e-06
7.797e-06
0.006655
3.666e-05
7.468e-05
1.224e-05
3.546e-05
6.808e-06
4.088e-05
4.32e-06
0.0001007
1.829e-05
7.542e-05
3.558e-05
7.717e-05
0.0005763
0.0001156
8.775e-05
1.707e-05
5.3e-05
1.8e-05
1.802e-05
7.485e-06
0.0001175
5.507e-06
1.987e-05
7.068e-10
2.694e-05
4.134e-05
1.712e-05
2.286e-05
9.52e-05
2.402e-06
0.004155
0.002225
0.005581
0.0001224
8.217e-06
9.189e-06
0.0002128
4.895e-06
0.0001093
4.856e-05
1.131e-09
7.263e-06
2.631e-07
6.237e-06
7.117e-05
7.29e-06
6.235e-07
0.0006711
1.739e-05
0.006697
9.848e-06
9.045e-05
1.411e-05
4.89e-05
0.006684
0.006686
4.699e-05
6.051e-05
0.0001114
9.804e-07
8.034e-06
0.006678
0.006697
8.965e-06
0.0002173
3.701e-07
4.434e-07
0.005803
3.987e-05
2.306e-06
1.88e-06
2.773e-05
1.075e-06
7.983e-06
0.0001943
1.017e-05