/*--------------------------------*- C++ -*----------------------------------*\
  =========                 |
  \\      /  F ield         | OpenFOAM: The Open Source CFD Toolbox
   \\    /   O peration     | Website:  https://openfoam.org
    \\  /    A nd           | Version:  8
     \\/     M anipulation  |
\*---------------------------------------------------------------------------*/
FoamFile
{
    version     2.0;
    format      ascii;
    class       volScalarField;
    location    "25";
    object      omega;
}
// * * * * * * * * * * * * * * * * * * * * * * * * * * * * * * * * * * * * * //

dimensions      [0 0 -1 0 0 0 0];

internalField   nonuniform List<scalar> 
127143
(
2.183e+06
4.105e+06
4.682e+06
1.997e+06
1.676e+05
2.021e+06
6.622e+04
1.157e+05
1.848e+05
2.697e+04
9.739e+04
1.521e+05
5.509e+06
1.69e+06
119.6
5968
5.655e+05
2.035
12.84
4212
62.84
4431
0.1242
149.8
4848
624.3
1818
2008
1284
0.9528
242.5
638.6
4417
471.5
0.05707
4318
45.13
5.218
103.2
733.8
12.83
2.026
1.279
7.844e+05
2.039
462.2
1224
61.34
130
117.1
5085
0.02844
55.76
0.3782
0.02096
248.7
0.02095
0.4022
0.02286
0.3745
0.8817
17.61
35.18
0.02211
642.7
0.9253
0.07002
41.93
41.78
0.06954
176.8
1798
43.48
0.02285
0.0218
1939
0.02441
90.81
245.6
0.02222
1064
3737
326.5
598
46.36
85.23
76.45
2471
0.7631
409.7
0.02373
0.5604
228.2
62.88
188.4
0.7177
1.793
316.9
90.56
0.06878
0.02221
121.5
1854
2.307
85.07
90.89
40.96
0.06976
3.793
0.02133
117.1
2497
110.6
30.77
0.02182
1.331
0.02472
0.0218
0.02422
1.646e+04
0.02134
288.3
13.06
0.2188
1084
754.2
36.61
0.0253
146.6
239.7
98.57
200.7
19.46
90.92
6.4e+04
97.26
0.06486
37.38
560.6
0.05831
0.2026
0.02348
32.53
18.57
53.68
61.35
5836
0.02213
201.8
2618
4.606
108.2
4.133
0.1109
41.34
47.72
0.4019
274.7
61.19
426.6
155
5338
0.0238
102.5
550.1
604.5
52.43
1.405
1649
0.02981
177.3
18.56
1.745
7.506
0.209
34.7
53.8
146.2
124.6
0.0358
7.492
0.03711
28
33.82
241.2
16.8
0.1802
32.96
137.2
0.03558
90.54
193.2
0.05851
127.5
1.172e+05
23.85
0.01951
0.01946
1.673e+04
0.02203
0.02181
0.02983
0.2068
45.9
6.339e+05
58.54
0.06154
6.796
0.778
0.02182
0.2246
38.44
0.02183
1657
92.74
1.446e+04
355.3
7.082
143.9
0.06186
43.36
0.02185
108.2
45.29
414.5
187.5
424.7
5.031
61.11
58.34
69.4
0.03682
39.02
1.266e+04
69.18
0.1111
101.2
2.561e+05
0.02181
66.9
182.3
581.4
31.52
271.5
13.5
1.308e+04
64.43
1754
9734
0.08335
10.89
609.6
8.688
37.08
171
3.906
0.02522
1180
3.634
0.08795
22.54
0.0302
0.5264
0.02332
35.68
596.4
117.9
53.75
1.745
4.438
453.9
0.2072
57.71
67.58
21.9
84.42
110
93.22
0.3538
3.692
0.0486
2.178
2.27
0.02178
0.0218
1.083e+05
145.3
0.02184
104.9
0.03729
3.901
0.3813
0.1108
2.379
0.02217
6.302
215.5
46
31.62
3.857
324.4
0.7613
0.6442
1.219
492.5
25.21
6.763
0.02186
4.05
9.585
45.38
96.97
308.5
0.03912
0.02181
234.5
8.577
317.6
0.2945
0.739
0.1157
187.8
0.03275
8.708
244.5
14.41
0.03804
131.3
198.8
45.22
34.44
0.0218
0.05597
0.01953
0.01948
0.108
3.687
1.743
34.52
140.6
0.05653
7.084
41.8
75.93
25.7
104.6
258.6
134.6
312.9
189.8
273
5.591
51.49
83.86
0.0332
237.8
37.06
46.51
0.02432
198.5
56.24
29.58
0.7326
109.9
114.7
0.02193
0.02201
1.059
413.9
0.39
4.325
0.03296
447.1
124
0.03372
0.1156
197.9
9539
64.78
0.3328
1.125
726.2
236.8
0.7526
0.02459
1812
0.04878
702.1
25.02
3.093
0.02226
0.4031
93.27
157.3
135.8
233.7
0.4177
195.3
0.03291
0.0297
606.1
0.02185
53.77
27.77
0.05054
6.911
84.69
17.71
0.02222
107.7
11.27
303.1
0.2046
63.26
11.16
186.9
98.3
466.8
5.046
46.42
52.16
556.4
112.5
0.06396
59.21
0.1062
1.071
0.1268
538.4
0.07568
0.02116
99.21
52.06
0.3573
24.71
0.02192
8.045
273.8
0.02802
0.02214
0.02173
101.4
0.06581
4.445
0.02618
313.9
0.02187
46.13
1.083
38.03
68.17
206
5.854
455.3
0.04876
55.1
358.7
450.5
50.62
3.51
15.88
66.19
6.842
11.9
76.91
0.1621
0.02257
52.92
219.4
0.02079
82.91
0.5439
0.2188
8.136
0.05259
0.02029
46.35
0.5019
115.7
26.03
951.1
44.54
356.9
311.1
8.996
24.67
17.87
0.0217
340.4
0.02358
150.4
67.75
64.82
63.12
1.98e+05
129.3
9.8
0.126
18.49
0.02175
917.9
0.02264
28.95
21.85
2.882e+05
1.478e+04
4.767e+04
0.02194
236.5
104
0.0218
41.31
16.82
74.96
2.558
69.52
207.8
83.42
787.1
0.1391
30.49
9449
63.32
316.7
157.4
0.02264
4.221
0.174
5.757
0.02387
362.6
3234
80.12
0.01971
52.86
0.1262
265.7
10.9
2465
4.362
0.02379
90.21
7.286
0.02082
0.7567
4.099
185.2
109.4
223.5
198
24.48
8.773
32.01
80.79
99.46
0.02239
605.5
124.8
321.2
22.29
37.87
0.02213
0.02207
0.08113
258.2
26.99
0.02183
0.02711
5.165
130
82.37
8.972
182.5
479.9
1.955
0.02365
0.02134
94.68
69.71
19.81
0.02989
1762
16.2
178.7
0.3297
451.3
0.02184
84
26.97
2.877
0.02398
138.5
22.58
2161
0.02027
38.06
355.9
0.02172
6.899
0.02186
71.79
18.09
0.02178
280.5
178.6
79.94
159.9
25.47
273.9
237.3
39.79
93.59
188.6
104.2
34.01
51.7
405.8
0.0259
250.7
0.02178
21.22
0.02579
31.46
0.02116
0.02184
0.4955
46.22
96.59
0.02131
0.02117
56.72
2545
298.1
292.4
57
4.372
64.32
11.89
74.23
114.9
758.2
0.02134
335.5
68.15
0.6735
1.787
0.02412
0.02706
12.4
466
17.88
759.3
0.02568
0.03419
106
345.5
0.02943
588.7
0.1814
0.149
228.8
3.43
62.17
0.165
4.946e+05
171.9
51.16
53.95
146.1
238.4
417.9
361.6
0.02714
126.6
40.82
53.51
0.02122
88.69
0.6406
0.5209
0.01969
0.0212
618.6
0.1262
219.6
197.9
28.85
4.049
1.344
353.3
0.1514
149.2
0.02169
0.0209
14.59
0.1116
396.9
0.4494
410.5
49.95
90.83
0.1879
0.6824
0.03079
311.1
0.05284
181.2
6.948e+04
15.08
30.78
61.89
0.02497
30.09
114.5
820.1
3.921
12.2
74.12
2267
98.1
41.49
15.38
122.8
37.75
9.532
35.73
0.4257
1.067e+06
0.6299
0.02941
41.26
17.81
67.3
0.02156
31.04
5.252
82.02
0.03643
806.3
110
441.2
0.03721
369.4
28.22
313.6
214.5
0.0317
78.28
146.3
254.3
39.71
0.02212
41.8
78.71
0.02218
6.957
1.111
223.7
127.4
0.6467
15.13
535.2
108.8
0.01934
78.16
24.35
659.4
300.2
0.415
40.66
202.5
0.01941
75.45
222.4
25.59
9608
25
77.59
85.25
31.99
2.249
0.02193
7.981e+05
107.9
149.3
146.6
60.82
55.58
80.05
139.5
0.02132
5.211
2.299
0.03228
120
150.2
41.8
12.97
0.02049
61.72
41.8
0.02169
0.02043
1.792
19.32
57
56.2
82.42
3766
3.402
0.3493
0.02124
85.6
47.67
211.7
405.9
1.146
0.04789
0.02247
3.26
1875
0.02126
0.1739
192.1
28.56
582.2
0.02306
32.49
31.32
0.02182
308.8
0.02121
25.32
1442
314.3
15.9
959.2
0.02318
239
0.1845
363.1
52.92
428.7
3070
0.4103
0.7907
2.521
1416
0.02181
2.489
201.7
716.6
41.82
932.7
0.04617
0.1636
95.96
608.8
1842
131.6
1.985e+04
419.7
3653
184.3
148.8
4.337
1623
0.02432
54.08
0.02545
0.02354
41.54
0.02867
145.9
23.05
28.63
0.8473
0.04362
318.7
43.27
0.02225
1.858
66.43
0.04167
311
2163
28.6
5.712
121.2
11.08
76.94
0.02173
64.79
182.5
0.02408
258.1
110.8
14.63
0.0207
1.787
1.265
7210
4.57
2186
54.09
13.38
33.26
409.1
418
0.02171
519.1
1.043
0.02312
4.84
7527
1.624
708.7
5.927
1.66
684.6
3333
145.9
0.02356
0.02184
6.103
8.318
88.18
296.8
66.89
624.7
187.5
0.1209
612.1
0.0621
1166
0.02161
65.94
119.7
31.19
170.4
78.99
0.02179
0.0223
154.8
0.2731
60.06
132.8
122.5
56.64
13.35
173.6
292.9
1086
48.66
276.1
176.8
6.273
49.82
129.9
59.39
200.8
3014
86.69
0.02156
0.02142
67.91
49.1
0.7973
0.02093
13.63
64.38
0.5404
71.36
10.78
158.8
11.15
0.02223
0.4344
0.5695
1296
475.6
31.19
0.5934
2.196
422.4
141.7
15.26
33.63
16.78
72.86
50.26
801.2
0.02412
561.3
479.4
23.29
145.4
132.1
0.02188
656.1
1005
0.02098
0.02155
80.2
86.46
9421
42.98
52.17
121.2
156.5
0.477
0.512
0.02481
160.8
38.08
140.2
2.046
293.5
71.56
0.02409
849.8
30.78
0.02172
350.6
0.02281
0.02169
10.4
0.1355
2311
0.02158
303.9
0.02182
174.6
0.1106
1.873
3.405
248.7
184.2
190
20.3
0.05036
0.03992
29.67
99.38
55.13
104.2
1060
133.9
1005
171.9
152.9
664.1
181.5
598.1
0.2904
3.605
0.03089
334.2
41.52
397
0.05333
51.3
35.16
43.59
35
96.44
0.7921
387.8
12.25
43.68
38.17
282.2
53.8
0.02075
12.77
340.8
0.02275
258.8
556.5
0.02081
1.868
120.1
0.03887
0.3146
8.532
104.9
0.2362
0.01989
225.7
119
0.02177
0.2049
0.03645
64.23
199.7
3.99
0.03956
216.8
2118
247.8
137.2
47.68
1587
0.06282
79.11
0.02178
103.9
11.78
251.1
34.93
106.2
817.4
0.02197
9517
230.2
269.1
28.25
934.2
15.43
3.164
508.7
34.95
0.04031
1.917e+04
48.5
141.3
354.1
89.63
35.84
65.42
496.7
44.39
79.55
17.44
205.1
165.9
1.724
1767
0.1282
50.67
0.1219
253.4
0.01982
0.02166
10.74
1674
74.65
0.2094
750.9
182
0.02181
2602
52.1
13.21
2200
2.744
56.5
1.927e+05
1.854
498.9
38.99
38.89
917.6
160.8
418.2
8.883
336.9
0.08578
0.6064
4.434
122.5
4.073
51.37
53.78
639.3
59.52
0.3584
52.6
1.839
1.09
5.153
1682
0.05021
1727
377
46.75
78.89
0.02181
31.39
110
1.378
260.9
341.1
499.9
0.02136
193.6
184.1
100
879
59.8
4.918
132.5
0.02235
113.4
70.17
2944
232.4
0.09638
37.4
0.02255
2356
979.4
56.03
0.7845
3.908
0.02078
0.01983
62.07
29.93
14.25
0.1168
0.04237
0.04556
19.3
105
5.6
339
129.4
965.2
1.364
432.2
43.83
91.04
0.01986
241.9
53.47
23.61
1134
4.092
12.33
85.34
29.44
70.79
2958
1.025
127.6
54.71
12.3
2.534
113.3
2454
0.2095
119.5
0.0212
145.7
646.3
0.02036
754.6
15.12
66.34
200.3
0.02139
1.548
1.066e+04
0.02189
110.1
181.8
44.93
971
0.8891
2.315
97.79
559.2
79.39
280.6
0.07896
33.87
290.7
3346
159.5
116
0.0217
160.8
4.919
354.8
158.5
24.41
102.1
0.02207
1.46
131.7
0.02395
49.75
0.02135
2169
55.16
1604
65.04
38.03
791.9
96.79
86.51
146
4866
147.2
129.6
27.15
66.17
57.32
0.02211
30.96
0.0229
51.43
0.02201
55.6
0.02148
250.8
71.97
0.0208
0.02171
48.19
0.2104
235.5
0.1316
0.02018
8.388
106.2
0.03908
5.238e+04
358.9
5221
87.22
19.16
156.2
89.73
29.44
0.298
782.6
31.98
249
531.2
114.4
48.82
9.984
0.02156
4827
125.9
679.1
0.02181
1029
41.95
158.2
34.71
0.01976
0.01974
0.3563
0.9915
5.679
23.99
31.42
1.098
2.197
0.6733
1.965
512.2
24.44
2.91
78.47
2.611
606.5
210.6
33.68
170
57.21
0.02235
38.34
95.48
1022
43.16
0.039
24.77
1.085
74.05
52.54
712
0.7506
0.02174
56.68
10.74
1457
437.5
0.7997
112
223.9
0.1584
0.01972
475.8
230.5
5522
0.08674
1789
42.89
0.02155
268.9
126.9
19.25
0.2311
33.05
79.41
26.65
101.3
43.73
162.9
0.04999
40.51
282
294.1
0.04405
0.04396
194
17.31
9164
89.35
339.4
366.6
4853
0.7904
57.85
0.0275
0.02198
0.02151
58.75
0.02186
1353
0.02173
4002
0.4823
17.47
47.39
261.5
0.07482
1636
0.2976
173.3
58.78
880.9
0.02267
232.5
190.3
53.64
271.1
211.9
77.91
508.8
611.6
0.05375
0.0206
774.1
0.06143
0.02013
0.4709
450.6
0.02061
663.2
0.02185
60.2
24.37
31.97
127.4
0.02097
75.09
281.1
103.9
0.1048
5.647
0.27
0.02178
0.02123
79.79
2.03e+04
8.653
43.96
0.02652
1089
0.4822
0.1075
0.04917
2.482
99.95
244.7
0.02767
40.71
0.02346
90.75
0.02217
0.8208
28.82
27.44
20.71
336.9
198.1
0.02122
26.02
547.4
141.2
952.8
434.3
7.754
0.03792
4.703
8307
38.07
454.5
1140
0.05818
0.2445
0.02163
172.2
84.75
75.97
0.02181
96.09
0.02176
0.2499
76.05
0.02151
6.533
0.45
13.44
35.39
0.3291
166.9
0.0219
151.4
504.8
2.108
12.83
83.1
0.04516
12.51
49.76
76.04
18.03
28.48
301.3
140
233.3
542.6
0.093
0.3036
19.05
0.04015
116.9
80.81
0.1565
38.85
0.02648
0.1486
264.2
1.267
11.73
67.91
1073
52.49
931.3
0.8332
0.02066
1010
63.09
0.1243
185.8
0.03116
24.59
0.02223
17.16
831
36.5
11.58
27.5
69.73
0.02187
30.41
0.6656
8.079
1225
0.0278
47.47
518.4
0.02161
0.0284
72.15
0.05869
49.24
2.426
1.928
16.05
0.7345
36.83
0.06054
0.8171
142
0.02077
0.2709
1237
845
0.02098
80.91
1143
4.646
523.3
31.25
80.76
822.4
0.05002
0.09134
62.32
0.02786
538.3
13.96
39.71
755.9
277.2
0.02721
295.1
1.451e+04
4.755e+04
33.25
62.72
248.7
0.7048
59.61
5.922
32.03
268.1
52.44
53.95
30.99
1031
95.84
1.136
0.02183
402
1.15
88.01
0.4556
0.05597
62.06
32.99
4.662
0.02052
186.5
440.5
7.48
421.8
48.85
1103
129.6
0.03059
252.3
617.6
66.1
51.22
1469
0.01939
2606
118.5
80.5
0.02569
62.29
45.34
302.2
355.9
40.95
413.5
0.02603
6.644
95.44
0.06225
57.44
0.02189
209.6
2448
74.47
409
5412
56.26
1070
0.08203
318
5.689
46.98
0.04673
8.555
16.02
46.63
57.02
0.04894
38.95
3355
5619
45.63
2.467
0.9996
1.566
0.02234
0.02899
110.8
0.4915
0.02238
37.68
63.69
135.2
40.26
4.898
71.7
11.99
613.2
955
1359
0.1145
44.31
2619
24.12
262.2
2.661
6.615
31.36
3.391e+04
8.632
7.067
0.0357
0.06665
759.1
48.39
0.0218
0.02196
56.7
388.1
45.36
49.76
1977
27.42
0.02673
368.8
50.07
54.55
612.5
0.46
1.79
53.58
154.2
0.821
191.2
0.02189
117.3
28.85
393.2
0.7512
105.8
554.9
2.042
386.5
10.41
265.7
68.54
263.4
0.1557
40.43
96.24
78.28
372
44.58
1312
157.9
0.0218
33.64
2.658
313.9
27.18
0.1895
11.06
0.1416
851.2
0.03878
71.28
27.37
29.56
59.63
30.03
0.2226
918
0.2761
0.02744
169.4
0.02091
51.78
0.0385
0.8583
24.87
0.02152
0.3795
106.4
197.6
0.02178
0.0249
58
9.617
302.1
0.2362
22.94
28.44
324.7
227.7
1.004
33.63
7.485
0.09841
53.03
2391
16.19
1875
195.2
20.88
1022
0.02182
0.02061
2.234
2.313
5279
0.02181
10.85
204.4
1.522e+04
179.9
249.7
0.0196
0.01919
182.6
206.4
32.12
39.23
0.04065
2.077
1.139
0.02222
365.2
68.27
37.46
30.78
683.5
0.2915
3.109
0.0199
5.412
65.72
340.3
156.6
169.9
169.1
81.09
105.4
57.02
340.2
183
0.08875
54.54
707.3
0.02598
0.02354
142.1
69.76
1080
3.252
102.3
247.4
0.1179
0.02178
8.489
0.02211
89.65
1952
47.27
0.1818
23.59
0.05539
566.4
262.5
0.05591
6.629
4.985
43.8
34.78
17.28
171.5
137.8
92.5
76.37
8.407
35.76
431.9
48.39
146.5
78.06
3845
31.37
69.65
184.2
13.37
3.655
7.843
1119
0.506
271.4
0.02321
54.09
0.02214
67.94
15.83
1060
106.7
0.1253
352.4
3069
435.3
82.47
30.09
315.1
1557
0.2051
33.85
17.08
1964
122.9
79.98
0.2575
0.4335
0.02182
26.84
2518
2.578
112.1
59.32
0.1311
1084
0.01984
16.87
0.5684
37.4
206.4
0.2354
2.245
23.76
0.05113
40.49
12.25
1015
206.4
108.4
0.02155
50.17
97.82
447.5
786.3
17.69
8.931
145.8
0.02186
123
99.65
7.257
16.19
36.66
823.3
314.3
91.87
63.84
0.6306
5.703
675
3.598
0.1072
1320
0.05775
0.644
0.02188
0.02199
61.35
0.02233
212.6
19.63
0.9695
29.71
307.9
897.5
103.7
65.66
89.8
46.16
8480
97.49
127.4
0.7343
3307
24.88
484.6
1229
0.03563
280.4
291.5
2.175
36.11
365
217.1
257
65.23
102
0.03012
7.441
0.02206
1.039
35.05
139.2
14.67
45.8
1707
62.39
0.02234
341.7
93.75
2.701
22.55
111.8
81.56
255.7
400.1
919.4
102.5
104.6
109.4
121.4
65.19
0.1054
4137
389.4
38.78
3.192
0.0225
127.5
345.6
59.62
2.107
958.8
394.1
115.4
2.3
116.3
1898
0.02251
430.1
18.37
0.04745
9.975
186.3
0.02181
255.6
36.53
5.761
4736
5.807
160.5
3322
84.17
102.5
0.01981
0.01976
96.79
11.68
3.371
672.5
55.83
0.02151
809.4
337.5
63.71
0.0225
0.02235
65.86
3.511
93.62
1.122e+04
207.9
0.02396
244
2090
0.1165
249.4
139.9
0.07103
0.9521
259.5
0.8055
29.3
0.01966
0.01944
0.01945
0.01965
0.08182
29.29
7.85
112.7
3.387
46.65
84.41
891.9
0.0204
177.2
47.36
277.8
626.2
323.6
39.92
29.83
140.7
53.65
67.47
0.1065
42.73
6286
70.05
696.9
0.7925
26.72
0.02178
3447
94.28
130.4
3.623
0.03659
2864
0.0218
45.26
586.5
0.02896
228.5
82.19
35.27
30.18
315.9
0.05525
182.4
0.02068
5.487
92.66
100.4
61.31
16.78
0.02164
0.02189
0.3075
97.4
277.5
0.4063
47.17
235.4
1.785
222
142.3
5.616
40.71
27.79
79.3
0.2086
3396
0.8749
0.02178
1197
0.02178
0.02267
0.335
0.08179
261.1
53.42
404.3
80.96
135.8
0.02188
0.09874
47.23
83.41
56.76
0.0393
0.3507
9880
963.7
0.02213
1592
954.2
9295
0.05794
5.599
14.12
0.1033
0.0254
4.466
94.84
7211
0.1289
272.5
3.645e+04
0.02179
154.8
772.5
53.67
0.02179
326.1
9147
4837
1123
0.4776
13.82
2484
0.05672
74.73
0.02154
44.91
993.5
6.85
258.1
1088
0.2392
32.96
17.14
0.02225
0.0331
199.4
384
3.193
463.2
197
0.9955
38.17
53.83
53.89
79.96
0.0218
51.88
72.46
84.65
123
25.9
190.3
81.29
1433
1644
2.038e+04
217.6
0.05391
165.4
0.02733
344.4
307.4
0.0218
2.216e+04
0.02221
121.4
1241
555.7
94.13
123.3
108.5
40.12
0.01964
9355
32.58
0.04748
31.36
31.68
2556
853
3279
22.48
167.5
899
35.14
0.109
37.16
1588
0.02089
86.06
27.96
93.94
25.12
29.98
26.54
661.2
52.1
48.59
962.8
0.04124
619.5
0.1227
20.85
71.59
0.02616
0.1349
18.35
425.8
388.2
1376
0.04608
0.02215
2.571
96.05
1619
52.6
8.948
0.01933
0.03364
391.7
0.01976
166.2
135.1
0.08585
187
28.57
2130
1467
862.6
0.04039
229.5
49.96
272
3.857
12.32
991.5
54.93
305.8
104.1
477.1
83.04
1.949
1889
29.52
37.31
59.56
0.04156
23.49
0.1754
0.0222
10.63
149
97.73
70.01
20.39
2687
4211
53.89
3.138e+04
0.1918
0.3437
0.03685
0.06435
9.714
0.02221
39.34
1231
149.4
420.8
1.37
17.42
37.08
157
41.22
534.3
46.89
2445
272.7
0.02439
56.23
38.17
0.02204
0.04181
480.6
0.02186
295.2
204.7
100.9
3.478
615.9
0.07626
0.6269
0.04993
239.7
563.1
154.7
25.56
0.02144
91.71
0.02164
0.3296
129.4
2.667
973.1
197.4
269.2
7.237
2428
1.024
0.1635
96.66
104.5
0.02084
2.517
0.02185
323.5
379.5
111.2
71.88
0.02164
267
170
162.9
835
341.6
138.8
0.0245
0.9724
1.957
2.127
375.2
15.15
0.09494
4.547
0.1616
23.33
130.2
0.02071
0.02041
0.02274
0.04146
0.2806
250.7
173.9
0.02209
93.97
12.35
61.62
0.02194
122.8
0.1092
455
0.06017
6200
12.58
509.3
0.03538
0.09821
873.3
0.03125
59.99
61.9
76.97
146.3
191.9
0.02182
118.2
120.5
48.88
47.42
79.66
4.079
85.21
26.29
758.3
0.02154
45.14
18.33
2003
0.1923
0.02209
480.2
590
60.77
57.67
6.608
739.2
0.05202
15.49
152.9
55.91
76.13
4.49
0.0243
10.06
1064
107.5
65.95
1104
2.969
3.686
0.02168
0.03058
0.1406
0.03674
7047
135.8
0.02195
0.02362
40.24
4341
0.02194
72.01
581.7
60.51
3.419
293.2
996.4
191.1
40.99
279.3
1783
540.9
0.02225
111.2
16.88
147.3
0.02139
0.3546
75.16
38.94
101.4
3395
696.4
1.368
265.3
1803
8.663
83.1
77.71
1.764
0.9235
422.2
1650
0.02158
387
48.65
0.02194
781.9
73.98
3.688
0.07786
34.79
242.9
138.1
12.29
0.02189
0.022
1.865
64.73
0.02016
2.179
0.02757
311.3
46.2
46.61
181
445.2
1.79
49.31
0.02154
1046
14.16
1116
205.6
0.1085
447
5.005
306.9
820.9
10.26
766.9
0.02081
0.02125
86.47
0.07373
0.0214
2006
85.4
93.17
349.4
11.27
101.3
0.02441
1945
0.04292
27.76
0.0204
0.2175
140.2
60.74
115.8
35.03
31.11
90.4
0.02048
130.5
215.5
384.9
1087
0.1445
36.9
7.633
0.02195
78.4
226.8
0.1728
0.05122
54.3
844.4
0.02131
0.02165
10.87
146.8
55.83
1473
0.02206
263.3
102.7
50.11
0.02208
0.08969
333.5
68.28
267.5
70.18
25.25
0.02053
177.2
0.02609
383.6
1369
0.07489
31.17
32.55
292.9
799.3
97.09
0.06951
0.02048
113.3
0.2367
0.02167
429
84.19
9.583
0.02049
0.08413
0.1109
0.03028
47.27
80.5
0.0218
278.7
28.32
120.6
0.02919
0.02191
0.02168
0.05358
9.375
2.33
238.4
1035
1454
26.38
1928
638.8
0.02514
947.3
152.7
294.4
31.34
0.1819
1.811
453.9
551.4
520.2
147.2
0.0618
83.78
71.91
42.74
7.348
0.2362
36.36
0.2404
96.14
0.02969
103.6
5.694
3.676
0.5437
581
1610
899
0.02062
4592
105.8
0.02011
102.9
0.02182
232.3
175.3
0.1039
475.7
31.01
0.0223
1.772
6.857
1160
0.02364
0.241
865.2
2.618
0.02158
594.9
56.41
0.03432
0.2289
3.133
73.68
2713
220.9
175.3
13.95
81.48
1.586
0.02173
0.0498
62.84
42.63
177.3
0.02207
2322
97.22
17.22
97.63
103.1
165
0.0202
0.06305
133.2
171.3
0.05616
49.13
252.2
6.981
3.76
6.326
22.18
0.04781
17.05
15.75
8.752
6.093
0.02205
244.2
0.1328
56.08
3.149
2.166
239.3
136.6
5902
11.28
0.8958
0.07162
0.02122
3.027
12.52
637.4
1072
94.25
165.5
292.3
42
0.8242
158.4
203
731.9
75.48
0.05045
414.7
1.108
401.1
7.046
18.82
40.83
98.25
0.02179
34.94
0.2368
0.02164
0.264
410.6
1.095
4.211e+04
234
73.73
0.02168
32.1
250.8
0.03889
59.33
80.31
198.3
76.41
256.8
0.02188
218.3
0.02073
2.161
322.6
50.5
3.013
209.1
3e+04
0.02186
0.02175
15.64
31.36
364.7
0.9748
103.9
265.9
5.56
56.54
0.02217
163
510
0.1196
77.47
0.02157
24.43
0.06764
48.98
163.3
145.9
0.2904
78.42
13.63
0.02831
178.9
261.6
0.2243
0.02153
0.02364
166.5
978.8
10.27
6.665
78.88
9.222
72.62
8.169
0.01939
0.3786
1.077
1639
1616
367.1
0.02135
225
56.81
126
203.8
1104
3.121
47.29
42.43
28.37
274
705.5
0.8668
0.05653
9.445
0.03732
3013
0.02364
55.24
205.7
15.08
56.03
239.5
129.4
455.7
40.6
189.9
12.62
2.619
452.9
1587
60.44
888.4
1555
0.0218
983.3
118.8
387.3
581.7
43.72
1.372
64.16
36.07
5.775
0.04907
28.68
63.3
33.36
32.56
78.83
0.9971
1.197
0.6848
1016
116.7
1378
42.25
229.7
0.02027
380.6
166.5
502.2
27.86
970.7
328.9
124.8
0.1028
911.9
0.0905
53
98.9
0.07114
0.685
85.09
10.29
39.95
55.56
9.171
75.34
54.76
1077
8.801
6025
0.04703
4.82
82.08
12.04
0.05625
239
0.02181
0.02253
0.02178
56.61
63.51
171.5
0.4421
0.1529
49.35
0.0495
5381
508.8
968.9
99.26
0.09006
276.3
592.8
0.08039
229.1
0.02187
26.13
22.27
102
1.92
0.0213
0.02185
212.3
20.88
0.04495
1039
66.81
0.02096
0.02182
27.72
0.03608
179.8
1062
0.02481
3.261
108.2
245.4
472.1
1087
9.139
0.181
20.17
125.9
0.2929
340.2
9.044
2.297
244.2
80.43
3.152e+04
0.03088
24.78
240.9
1191
0.02184
78.13
0.0218
12.97
2.51
11.33
43.74
119.2
53.32
0.2327
398.7
79.75
203.9
283.1
279.7
78.26
1.178
30.33
338.8
43.54
117.8
0.02125
922.5
991.9
422.3
19.3
3.898
438.8
218.4
0.4532
0.1375
7687
60.35
0.04426
0.02891
0.04539
155.7
271.3
2.762
945.7
4.965
0.03317
44.06
26.46
38.85
181.4
5606
630.6
45.86
216
56.66
90.78
151.3
57.57
18.83
17.53
435.4
55.44
0.411
46.62
242.6
0.1861
18.47
0.9861
4.351
1073
118
0.02204
860.6
8.719
1174
93.68
0.02153
0.1311
270
0.03367
81.32
344.1
680.4
15.95
0.02299
0.2481
29.36
49.03
0.09354
153.6
0.02078
226.5
73.63
78.69
117.3
152.6
159.9
137.3
850.4
0.3838
38.46
0.02183
1449
0.04647
0.02664
58.86
0.02212
30.85
38.18
1.927e+04
0.02196
69.9
51.31
184.1
150
0.2419
103.7
38.22
130.3
627.4
101
0.1152
0.02255
99.42
333.7
12.95
34.92
148.8
222.4
2.659
0.02115
28.87
70.24
2230
18.6
99.67
3.25
84.93
0.02151
8.04
935.6
394.2
0.02198
0.2755
96.95
0.01991
33.26
437.7
32.75
0.02195
0.02201
15.15
0.02458
0.02014
0.02174
15.88
232.9
391.7
0.3391
60.23
4.636
0.7992
0.02225
65.55
22.04
0.0486
1.064
385.7
2.189
0.02874
250
129.2
10.01
922.6
2541
0.02828
55.74
12.23
187.9
135.8
221
0.02194
20.47
1010
2.376
44.14
0.4774
531.7
97.98
75.15
5.6
1168
0.08183
2966
96.32
0.02857
0.03467
0.01999
89.6
105.1
698.8
401.3
2033
0.1243
0.0194
36.23
43.91
0.1475
0.02215
307.3
24.61
436.3
129.2
87.95
31.79
14.23
9.172
102.6
0.01985
667
189.6
91.39
5.334
0.09887
0.02242
55.95
36.54
131.1
1359
16.92
0.04827
22.43
0.7512
0.09402
0.02224
306.6
75.68
405.8
298.9
87.09
0.9967
46.64
52.14
3.13
33.86
0.495
0.1894
0.02192
29.78
1896
1.026
0.8598
3721
0.3491
0.02169
4.465
0.03243
0.02203
43.32
0.01947
0.01942
3.079
0.02012
87.1
1468
186
4.639
0.2012
0.02113
0.02197
4.643
88.01
12.34
992.1
42.42
0.02892
53.7
10.07
611
0.249
0.02198
3.549
52.9
0.02203
0.02136
47.27
88.99
0.06425
0.03417
176.7
0.02131
0.4032
0.02184
5604
0.2115
131.5
30.26
0.03212
0.173
10.46
38.9
234.9
35.11
33.96
27.37
0.02215
975
51.63
44.03
0.02191
60.67
77.31
173.2
64.59
0.3535
88.58
4.543
0.2087
194.4
0.02205
2.777e+04
5.215
1371
0.02197
84.19
0.02185
0.1028
1.911
377.5
54.62
40.28
2.583
0.08647
1022
0.1
163.3
949.8
7.158
0.1942
0.0392
236.7
0.02164
1.696
82.16
5.638
5.348
0.02218
1377
0.03744
45.43
322.4
21.28
144.2
670.4
53.74
347.3
42.28
1.1
62.7
1.614
0.02178
0.02181
584.7
38.08
240.1
33.32
30.71
0.0218
27.99
0.02181
0.02198
0.03615
476.3
0.1583
4.357
0.02936
86.78
0.3156
161
106.3
1731
0.02781
248.5
28.17
37.48
0.2323
37.26
0.02187
39.47
0.2496
45.85
4.687
0.03506
102.6
2142
44.25
511.8
75.61
1848
435
2.158
13.83
1256
7.169
2892
175.7
77.4
159.5
68.36
113.7
108
205.2
0.03535
59.92
0.05994
147.9
1254
32.95
85.78
258.6
47.14
43.2
0.03024
97.33
109.8
3688
32.62
0.02322
72.5
31.13
59.13
0.05017
23.12
64.86
94.91
0.6621
457.5
13.44
350.9
127.4
241.7
72.72
39.79
114.1
0.02737
650.5
6.842
0.0258
48.67
44.53
149.8
312.7
359.1
0.02202
78.36
43.31
0.1336
3.735
51.84
3581
314.7
0.02088
0.0224
1.689
62.09
25.37
0.02161
17.88
84.53
172.4
938.1
0.02104
107.9
879.7
52.6
2753
173.6
207
184.5
35.01
6.433
0.02526
103.3
203.8
37.95
128.3
0.9777
61.21
0.02201
0.04668
148.2
119.7
76.53
251.8
45.78
0.02215
268.5
199.6
0.3119
113.5
3864
574.4
0.03387
0.2014
0.02735
33.54
194.2
295.4
434.3
40.24
133.7
0.02182
160.5
1.418
32.34
251.2
0.7073
993.5
20.39
678.2
0.04135
63.06
604
0.02178
62.43
41.97
91.94
55.12
0.0219
0.02199
0.03525
87.9
0.02216
25.7
544.7
0.1947
88.64
115.9
0.04675
27.8
51.19
0.1924
506.7
89.91
1111
166.7
0.02206
392.8
691.8
0.02172
1103
6.5
14.26
14.03
203.5
44.81
29.84
49.46
32.81
0.02194
41.32
0.02178
0.0657
505.3
54.07
19.39
16.77
1.403
155.8
0.0219
0.01974
0.08771
44.83
64.18
27.59
994.8
1.573
0.115
458.9
0.6984
36.49
0.02137
187.4
283.5
43.49
56.29
254.9
39.82
102.3
82.88
2.313
0.02464
82.99
58.51
52.12
322
1076
243.9
0.0215
64.86
81.88
39.72
4637
0.02181
208.2
80.35
29.54
62.33
80.24
2862
107.5
60.45
293.6
3383
5.62
58.98
796.9
5.202
0.02169
141.5
77.51
94.24
68.32
44.59
9.481
0.0353
180
43.01
465.5
8.157
360
522.8
0.02175
285.3
55.56
186.4
2.258
0.01943
147
95.2
8.943
25.02
0.02135
78.42
37.3
2.744
43.34
36.68
259.3
76.17
206.6
166.9
0.01992
32.56
49.16
110.7
268.8
44.41
16.21
78.81
48.84
15.63
58.01
209.8
942.4
345.5
226.1
5660
10.65
0.11
1.294e+05
178.2
668.5
0.03194
646.7
1426
119.6
12.25
0.02321
8.914
0.02181
57.17
17.58
2.56
2.089
47.65
368.3
11.71
1.237e+04
47.17
130.7
233.4
2262
272.2
105
73.65
0.1526
83.37
46.62
1097
34.22
0.6999
0.9943
284.9
0.879
0.022
0.02177
17.23
19.15
0.04853
0.02018
0.02232
89.87
521.3
397.4
0.02155
0.02581
27.75
0.01973
0.01984
286.9
0.04419
56.14
340.1
0.05734
351.6
3.929
151.5
9.259
102.9
0.07827
33.43
71.6
3.817e+04
90.15
69.2
333.6
567.8
1.895
0.02576
49.91
343.4
0.02178
3.187
161.1
322.6
952
40.14
121.2
387.4
0.02671
35.77
331.1
118.3
38.9
75.62
0.05983
14.47
33.64
248.5
61.68
87.47
0.03699
444.5
60.32
0.03219
74.27
0.05704
87.16
0.02923
2947
1113
0.03312
91.79
58.47
0.1863
906.7
195
0.02332
717.1
28.89
95.87
584.7
0.0459
0.3955
3958
37.36
178.5
3.135
73.29
1.693
7.417
77.69
0.05007
1.297
181.4
33.43
82.46
60.4
132.7
2.834
35.07
274.5
101.5
3.023
13.48
0.0218
0.156
220.7
56.94
0.01944
1.693
15.12
6.76
80.69
32.94
72.29
0.1703
215.8
39.48
0.09139
31.57
174.2
0.1571
350.2
0.0545
351.4
33.58
0.3758
0.08681
40.21
310.3
165.3
0.02106
158.9
63.24
56.59
0.06446
0.02235
26.69
137.7
443.6
7.479
29.64
54.41
214.8
1.855
1.711
1280
7.237
1.345
3626
189.8
33.59
65.84
0.02204
2.465e+04
0.02266
108.5
49.82
49.32
82.53
95.6
1424
16.66
5.445
0.493
1.11e+04
280.6
47.24
8564
1186
279.2
48.53
0.1487
0.6203
0.3914
28.09
0.02187
176.1
1175
0.059
22.08
2.952
63.45
50.44
246.6
2313
559.5
99.81
0.01943
0.01915
0.02179
166.1
2403
0.6195
0.0216
0.2368
819.3
3.901
2557
32.22
0.0227
6730
0.01947
1.174
32.69
0.04978
37.35
0.4687
1.024
0.09142
633.1
78.23
26.29
53.2
8065
46.56
407.2
97.59
54
0.02213
5202
232.9
491.8
32.92
144.5
35.32
255.7
0.09862
35.8
138.2
49.74
165.6
0.0272
633.7
64.34
476.1
8.33
0.1045
0.1719
0.02217
119
96.91
93.52
114.1
25.05
801.8
34.32
35.51
29.5
79.03
0.217
240.9
49.56
37.06
2.007
0.074
4.611
0.1923
28.36
1.785
204.1
7.238
219.2
25.99
6.884
144.6
0.4416
727.4
44.47
1.406
0.1222
2039
96.53
82.39
29.22
1221
0.02204
833.7
302.1
31.81
67.94
64.4
27.69
267
64.79
127.4
30.66
41.75
2679
0.04671
0.02187
0.02209
52.1
229.6
1.905
1413
447.6
1648
137.4
44.38
727.5
1049
5.692
261.1
422.8
32.75
1094
0.02175
133.6
279.3
265
0.02157
265.5
14.96
108.3
130.3
66.68
0.02203
0.3258
129
684.7
0.02093
156
3.289
0.4908
1.76e+04
0.03017
25.01
54.1
134.1
188
0.4509
25.42
5.983
221.6
340.8
284.7
0.01948
50.27
3.876e+04
0.0287
0.0241
488.4
783
163.4
101.3
0.0729
28.46
181.2
17.22
15.94
88.18
0.02004
43.16
8.659
0.2608
0.02361
87.26
0.02133
6488
45.42
4.444
10.76
2453
0.02262
387.7
0.02
0.02216
192.7
0.5455
148.9
16.23
0.06077
154.9
92.52
79.05
7.74
84.28
229.6
427.3
178.1
290.1
567.8
951
175.6
27.13
205.7
142.2
88.41
0.5206
0.0212
0.02119
1563
34.31
133.3
2442
0.02226
552.4
0.5001
0.02039
48.38
8658
6.271
246.9
3595
0.02206
276.5
137.6
74.97
51.4
27.11
2184
371.2
0.02176
2654
545.9
0.07899
0.02526
146.1
437.8
139.3
288.4
61.18
51.86
0.02178
245.6
0.02124
268.3
283.5
2354
0.01944
0.01916
0.2306
32.53
0.037
40.05
1.293
33.23
84.7
32.66
113.2
0.07454
0.02982
1019
2262
32.52
395.2
0.04896
61.02
0.02152
62.95
1886
182.8
339.8
823.2
273.5
199.8
1.076
33.34
114.5
0.02833
0.02215
0.02184
50.77
93.15
255.8
2959
166.5
0.0271
69.85
239.1
171.3
4223
17.11
112.7
532.7
21.15
0.07225
1.764
6.123
3.162
0.09858
438.7
53.74
19.55
42.06
279.6
0.2461
0.01976
993.9
36.91
59.28
77.32
1207
38.51
0.02085
55.05
105.1
93.13
3.482
41.93
96.29
4.498
111.2
1.892
0.05511
86.23
0.05508
0.1097
0.2285
749
11.3
520.8
85.16
24.91
135.3
0.03442
275.8
163
0.5078
62.9
13.97
3524
0.03779
0.02586
271.5
53.52
82.52
52.07
0.4759
354.1
0.06809
0.02184
8.894
281.5
0.02753
1.864
12.51
0.02173
1058
0.06623
30.65
38.54
16.65
0.6822
288.8
271.7
2.178
0.08014
0.02223
90.41
26.19
94.08
59.6
0.02152
0.0202
0.02178
40.15
96.27
80.42
0.04386
425.2
55.88
277.2
23
348.3
0.3475
0.03663
1085
0.02237
179.2
97.71
0.03796
55.7
33.8
61.79
233
138.7
57.58
2.915
0.0512
2406
187.9
483.3
0.2403
1.272
0.02186
1336
0.02174
130.9
708.6
0.02293
3.603
9.692
210.9
0.06853
59.65
6236
30.72
0.02169
60.91
175.8
78.02
69.09
57.96
121.8
1982
12.11
0.02073
0.02477
6741
10.39
213.3
4.936
24.26
0.02121
0.02193
1.626
3895
671.2
306.2
167.3
0.8586
181.8
687.8
26.61
169.7
0.0219
332.1
6.243
183.4
92.86
63.41
0.02161
367.3
83.76
1702
7478
15.97
7.209
1.079
190.3
0.0233
19.22
2447
130.5
166.6
235.7
1208
63.31
98.86
0.2005
429.9
484.2
1153
71.35
0.03049
776.3
803
0.02178
202.8
391.6
162.9
292.1
120.8
11.18
71.01
20.66
0.02804
48.94
0.02211
42.67
0.2065
1847
0.2463
2930
20.28
269.9
39.55
50.05
193.8
8.96
117.1
1071
36.55
37.38
32.3
4.69
75.94
85.33
20.88
0.02731
11.24
8.77
50.34
71.97
114.7
639.5
152
0.028
162.7
1265
75.47
38.28
384.6
0.04428
139.4
0.02168
62.77
3.562e+04
1.996e+04
515.2
82.05
20.16
0.02112
0.04167
76.05
48.63
68
3.043
0.02221
57.3
223.1
5.573
87.94
0.02181
449.7
133.7
3330
5.659
14.21
34.43
245.6
0.03423
414.1
5681
0.9627
8.494
0.3948
184.2
3113
3.851
52.49
4.71
116.2
0.02733
95.63
0.01989
941.1
72.98
14.13
129.9
3.341
289.3
71.1
1.832
0.0783
0.02199
0.02168
19.86
60.61
48.36
23.68
30.55
30.31
2908
1.353
74.7
0.3362
0.02206
470.7
0.02229
71.78
370.6
3.426
82.44
36.98
2748
239.6
61.79
143.9
26.76
121.8
0.1756
989.1
0.02178
3444
872.2
34.14
55.16
0.02224
83.68
102.4
141.5
1.151
89.62
770
1027
0.02176
50.01
0.02193
0.02177
649.3
0.02904
58.45
7.643
1407
85.12
108
39.54
116.5
1.42
98.24
1.671
3.944
8.116
0.02517
55.46
0.07306
1384
45.83
31.66
0.3831
13.81
177.5
1111
146.8
24.67
7.397
0.4051
135.1
57.52
310.6
97.9
0.5904
58.79
79.47
33.58
46.58
4.531
59.02
6.706
157.6
3261
33.55
0.1965
0.03854
594.9
29.55
0.0218
354.1
0.4353
1237
229.5
0.01966
105.9
216.6
215.4
376.6
337.7
29.33
144.5
0.03834
452.2
262.2
54.62
146.3
28.12
96.54
0.02228
0.02391
0.02224
173.4
0.263
0.02197
0.1106
2.108e+04
0.02194
153.4
436.8
1.022
272.4
195.4
125
1052
24.09
86.01
88.17
2.551e+04
0.02174
229.9
11.04
36.83
1.949
5.024
3.099
1.476
1082
0.04404
0.02901
1.249
1128
1226
284.6
477.4
0.04817
3511
0.02171
121.5
175.3
54.27
0.02179
0.7252
32.26
309.2
195.8
246.5
2.558
468.9
1876
10.4
35.62
0.02771
4.278
5.775
0.4898
1.072
9.709
185.1
20.06
0.3292
176.3
271.4
0.6532
1.907
140.9