/*--------------------------------*- C++ -*----------------------------------*\
  =========                 |
  \\      /  F ield         | OpenFOAM: The Open Source CFD Toolbox
   \\    /   O peration     | Website:  https://openfoam.org
    \\  /    A nd           | Version:  8
     \\/     M anipulation  |
\*---------------------------------------------------------------------------*/
FoamFile
{
    version     2.0;
    format      ascii;
    class       volVectorField;
    location    "25";
    object      U;
}
// * * * * * * * * * * * * * * * * * * * * * * * * * * * * * * * * * * * * * //

dimensions      [0 1 -1 0 0 0 0];

internalField   nonuniform List<vector> 
127143
(
(0.006179 -0.0002729 0)
(-0.0001693 -0.0007824 1.046e-24)
(3.459e-05 0.0001724 -2.041e-24)
(6.042e-05 0.0002973 1.232e-26)
(0.1053 0.02018 -9.043e-21)
(6.281e-05 0.0003014 -2.915e-26)
(0.3276 0.1947 0)
(0.1663 0.07591 -8.499e-21)
(0.1221 0.05733 4.026e-20)
(0.102 0.002338 0)
(0.4336 0.6141 1.372e-20)
(0.2287 0.148 2.742e-20)
(0.00218 -0.0008266 7.541e-25)
(9.264e-05 0.000332 0)
(-0.3442 0.6097 3.674e-21)
(0.1309 -0.01033 0)
(-0.0001344 -0.0004944 3.867e-24)
(0.974 -0.107 -3.856e-21)
(1.002 -0.1858 0)
(0.13 -0.004175 0)
(1.277 -0.293 1.23e-20)
(0.02657 -0.009979 0)
(0.86 -0.09475 0)
(0.8846 -0.08463 0)
(0.0265 -0.01034 6.291e-23)
(0.678 -0.11 0)
(0.5704 -0.01336 2.387e-20)
(0.5616 0.007161 -3.787e-22)
(0.3642 -0.1631 0)
(0.9799 -0.0834 5.781e-21)
(0.7762 -0.05181 0)
(0.656 -0.1053 2.125e-21)
(0.5144 0.1284 1.008e-20)
(0.3329 -0.08265 -1.093e-20)
(0.7856 0.04245 4.64e-20)
(0.4519 0.1186 -4.034e-23)
(0.2886 -0.1176 -7.598e-22)
(1.368 -0.2054 -9.38e-21)
(0.9238 -0.08702 3.884e-22)
(0.4826 -0.02828 1.255e-24)
(1.001 -0.1867 0)
(1.611 0.6628 -2.745e-20)
(1.566 0.6558 2.198e-20)
(0.004545 -0.00152 0)
(0.9743 -0.1048 3.579e-21)
(0.3405 -0.08388 3.565e-21)
(0.3756 -0.1712 0)
(0.5131 -0.1706 -5.917e-24)
(0.8809 -0.1506 -7.801e-22)
(0.9075 -0.0762 1.762e-22)
(0.151 -0.01056 2.822e-23)
(0.9216 0.002786 1.291e-19)
(1.539 -0.1674 0)
(1.407 -0.04156 -1.866e-20)
(0.9986 -0.00236 5.751e-20)
(0.7739 -0.195 1.336e-21)
(0.9986 -0.002347 -5.17e-20)
(0.9617 -0.08047 0)
(1.013 -0.01741 -2.664e-20)
(1.409 -0.03708 -3.692e-20)
(0.3183 0.2877 -7.588e-20)
(1.037 -0.2557 -1.006e-21)
(0.9719 -0.07532 -7.301e-22)
(1.001 0.0006133 1.803e-19)
(1.038 -0.09183 0)
(0.693 -0.1385 -2.537e-20)
(1.265 0.09971 8.532e-20)
(0.9695 -0.07758 0)
(0.97 -0.07745 -2.039e-22)
(0.9989 6.268e-05 0)
(0.8481 -0.06991 0)
(0.5998 0.001759 -1.13e-20)
(0.7092 -0.1564 2.272e-21)
(1.014 -0.01726 -1.445e-20)
(1.007 0.003673 -6.398e-23)
(0.5991 0.01234 1.195e-20)
(1.045 0.04713 -1.113e-19)
(0.4694 -0.07558 0)
(0.7824 -0.1979 -2.626e-21)
(1.001 0.001338 0)
(0.3907 -0.1715 -4.314e-24)
(0.1513 -0.008139 -3.448e-24)
(0.4798 -0.114 4.21e-21)
(0.5584 -0.03861 0)
(0.2343 -0.05053 -6.644e-23)
(0.5131 -0.09655 0)
(0.942 -0.09487 9.525e-22)
(0.6395 0.04037 6.783e-21)
(0.6933 -0.1354 0)
(2.061 1.157 0)
(0.9761 -0.02009 0)
(1.202 -0.1979 0)
(2.01 1.13 0)
(1.28 -0.2924 -1.235e-20)
(1.18 -0.2326 0)
(0.9727 -0.06625 -1.533e-20)
(1.607 0.6468 5.945e-20)
(0.7056 -0.0556 0)
(0.778 -0.2273 3.685e-21)
(1.263 0.1064 0)
(1.001 0.001293 0)
(0.8824 -0.151 0)
(1.887 1.718 -4.494e-21)
(0.9416 -0.1035 0)
(0.5331 -0.1037 -8.496e-22)
(0.7465 -0.224 5.099e-21)
(0.8968 -0.1353 4.206e-21)
(0.9987 7.784e-05 0)
(0.4592 -0.09507 0)
(1.001 -0.001785 8.23e-20)
(-0.3381 0.5949 -1.233e-21)
(0.6625 0.04513 1.358e-20)
(1.278 -0.2692 -9.285e-21)
(0.2841 1.328 0)
(1 0.02225 -1.183e-23)
(0.8937 -0.1325 1.107e-21)
(1.021 0.07174 1.758e-20)
(1.007 0.003901 -1.026e-19)
(1.044 0.04568 8.888e-20)
(-0.0001292 0.0004219 0)
(1.001 -0.001901 -1.152e-19)
(0.4594 -0.1165 -1.28e-21)
(0.5911 -0.1904 0)
(0.9506 -0.08316 -8.968e-21)
(0.3912 -0.1732 1.434e-21)
(0.5855 -0.08151 3.477e-21)
(1.134 -0.3268 0)
(1.051 -0.01147 1.634e-19)
(1.645 -0.1265 -2.459e-21)
(0.7242 -0.2052 -2.513e-21)
(0.5772 -0.1567 0)
(0.9635 -0.215 -4.606e-21)
(0.9614 -0.08735 3.044e-21)
(0.4767 -0.07382 0)
(-0.0001982 -0.0008079 2.026e-23)
(0.5849 -0.1607 -1.311e-21)
(1.052 -0.08018 0)
(1.298 -0.2846 4.355e-21)
(0.2301 -0.1224 -1.85e-20)
(1.101 -0.07831 9.614e-21)
(0.8181 -0.11 4.638e-20)
(1.005 0.05817 -2.078e-20)
(1.468 -0.2002 8.069e-22)
(1.343 -0.2514 -1.002e-20)
(1.536 -0.167 -3.763e-21)
(1.952 0.5773 1.459e-20)
(-0.3184 1.569 -2.642e-21)
(1.001 0.0005352 -1.636e-19)
(0.9422 -0.2075 3.698e-21)
(2.041 1.693 -1.96e-21)
(0.947 -0.09844 1.969e-21)
(0.8595 -0.1637 0)
(1.374 -0.1936 3.125e-20)
(0.7072 -0.007668 0)
(-0.07289 0.2109 0)
(0.2425 -0.0536 0)
(0.962 -0.08005 2.068e-21)
(0.6252 -0.2138 0)
(0.5208 -0.1733 1.665e-23)
(0.6877 -0.05992 -2.366e-22)
(0.8454 -0.05948 0)
(0.1838 -0.08967 3.153e-20)
(0.9768 -0.02078 2.439e-21)
(0.575 -0.1392 -3.209e-21)
(0.6846 -0.1788 0)
(1.117 -0.1031 8.367e-21)
(0.2736 -0.1083 -2.53e-22)
(0.4576 -0.03563 4.473e-20)
(2.139 0.4811 -5.579e-21)
(0.9675 0.1279 -2.731e-21)
(0.1294 -0.04358 0)
(1.342 -0.2522 4.932e-21)
(0.882 -0.1398 3.546e-21)
(0.7244 -0.1874 -1.056e-20)
(0.9959 -0.002559 1.3e-20)
(0.06309 0.02013 -6.817e-25)
(1.933 0.7174 -2.963e-21)
(1.643 -0.1276 -2.458e-21)
(0.9119 -0.09256 0)
(1.009 -0.02987 1.112e-20)
(0.7232 -0.1875 -3.558e-21)
(0.9736 -0.04037 0)
(0.0466 -0.00753 -1.364e-23)
(0.06328 0.01881 6.824e-25)
(0.7242 -0.2066 5.067e-21)
(1.038 -0.2552 2.216e-21)
(1.35 0.4141 -3.17e-20)
(0.3161 1.346 4.303e-21)
(0.8939 -0.08635 7.963e-22)
(1.026 -0.04069 4.899e-20)
(1.543 -0.1876 2.509e-21)
(1.539 -0.1812 -9.939e-21)
(1.053 -0.07952 5.136e-20)
(0.6905 1.862 6.863e-21)
(-0.0001695 -0.0009009 -3.385e-23)
(1.148 -0.2932 0)
(1.006 -1.488e-06 0)
(0.9947 -1.147e-06 1.07e-21)
(0.03997 0.001487 0)
(0.9968 0.0338 1.333e-21)
(1.021 0.006353 7.55e-20)
(0.9155 0.08507 1.187e-19)
(0.9954 -0.05097 -3.392e-21)
(0.2957 -0.1198 3.931e-22)
(0.0001271 0.0005148 -3.793e-25)
(0.9644 -0.06848 -5.219e-22)
(0.9034 -0.06568 1.851e-20)
(0.8813 -0.1443 -1.135e-21)
(0.9825 -0.08356 -3.192e-21)
(1 0.02169 2.111e-22)
(1.087 -0.1553 1.23e-20)
(0.1663 -0.01319 -1.324e-23)
(0.9781 -0.0004354 3.334e-20)
(2.161 0.4915 -5.634e-21)
(0.553 -0.1816 -1.436e-23)
(0.08042 -0.004042 0)
(0.08831 -0.03241 -3.895e-23)
(0.8604 -0.1545 5.659e-21)
(1.028 -0.2506 -6.966e-21)
(0.9052 -0.06544 4.486e-21)
(1.913 0.7116 -6.839e-21)
(1.004 0.009135 6.14e-20)
(0.8604 -0.1639 -9.052e-22)
(1.536 -0.1589 3.729e-21)
(0.6515 -0.05617 0)
(0.1361 -0.05187 0)
(0.7255 -0.189 -2.964e-21)
(1.368 -0.2032 1.116e-20)
(0.09736 -0.03925 9.747e-23)
(0.9665 -0.3275 5.935e-21)
(1.282 -0.2883 7.036e-21)
(0.9724 -0.03991 3.77e-20)
(0.7698 -0.1684 -4.401e-21)
(0.005094 -0.01729 0)
(1.283 -0.2892 0)
(0.9442 -0.07415 -1.19e-20)
(0.5753 -0.1454 1.566e-21)
(0.01662 -0.002638 -4.047e-23)
(1.021 0.006027 -6.922e-20)
(1.521 -0.1933 1.131e-20)
(1.55 -0.1816 7.272e-21)
(1.371 -0.08697 -1.047e-20)
(0.1144 -0.04401 -6.139e-23)
(0.6291 -0.2142 -9.378e-24)
(1.49 -0.1518 0)
(-2.346e-05 0.0003549 1.236e-26)
(0.8463 -0.1626 5.221e-21)
(0.5565 -0.002157 0)
(0.01638 -0.005343 1.345e-22)
(1.001 -5.482e-05 -2.593e-21)
(1.794 0.4138 -5.005e-20)
(0.648 -0.07164 -1.587e-21)
(0.8095 -0.1734 0)
(1.343 -0.2702 0)
(0.8028 -0.1904 3.687e-21)
(0.4814 -0.1096 0)
(1.049 -0.01188 -1.285e-19)
(2.227 0.6548 0)
(0.7775 -0.1739 0)
(1.023 0.4403 -1.047e-20)
(1.191 -0.2892 -6.262e-21)
(0.958 -0.03181 -3.439e-20)
(1.203 -0.1945 7.31e-22)
(1.004 0.05753 1.26e-20)
(1.563 -0.122 0)
(1.267 -0.09143 -3.551e-21)
(0.3052 -0.1133 2.277e-21)
(-0.1165 0.2264 0)
(0.3182 0.09887 8.692e-20)
(1.505 -0.09356 -1.49e-20)
(0.7571 -0.1411 0)
(0.9949 -0.002624 -1.543e-20)
(0.5725 -0.165 4.012e-22)
(1.521 -0.1941 -1.043e-20)
(0.9723 -0.07238 -1.261e-21)
(1.541 -0.1867 -1.017e-20)
(1.285 -0.2714 0)
(0.9002 -0.139 -4.595e-21)
(0.9912 -0.006041 -9.266e-22)
(0.7066 -0.1777 1.045e-20)
(0.9987 -0.0009743 3.102e-21)
(0.9707 -0.06569 -2.089e-22)
(0.9421 -0.1032 7.147e-24)
(0.9912 0.0122 0)
(1.011 0.01687 3.693e-20)
(-0.0005463 -0.001132 4.864e-24)
(0.7212 -0.1531 0)
(1.001 0.02358 -2.441e-21)
(0.9135 -0.1258 -2.438e-21)
(1.008 -0.02996 1.68e-20)
(1.371 -0.1935 -4.758e-20)
(0.8357 -0.1274 0)
(0.9433 -0.07428 1.211e-20)
(0.8601 -0.1496 0)
(0.9766 -0.01005 -3.074e-20)
(0.4324 -0.106 -1.555e-21)
(0.8026 -0.06725 -5.002e-22)
(0.01108 -0.01656 1.387e-23)
(0.1152 -0.04367 2.316e-22)
(1.502 -0.09204 1.005e-20)
(0.769 -0.08902 5.399e-22)
(0.758 -0.1425 -4.643e-21)
(0.5977 -0.08671 -2.969e-20)
(0.8934 -0.132 -1.082e-20)
(0.6202 -0.04575 0)
(0.1605 -0.0009512 1.453e-23)
(0.8818 -0.144 -3.76e-22)
(0.9774 -0.0002117 0)
(1.119 -0.2495 2.3e-23)
(0.9483 -0.09786 2.129e-21)
(0.9017 -0.1333 4.552e-21)
(0.01604 -0.01772 3.304e-24)
(0.7924 -0.1898 0)
(0.9985 -0.001027 2.216e-21)
(0.9869 0.01665 -3.199e-20)
(2.066 0.7648 2.874e-21)
(1.388 -0.2067 4.724e-21)
(0.7539 -0.0832 -1.077e-21)
(1.229 -0.1578 3.454e-20)
(0.9954 -0.02442 1.709e-21)
(0.8595 -0.09318 0)
(0.8126 -0.06027 4.786e-22)
(1.084 -0.02415 3.389e-20)
(0.8102 -0.1733 2.889e-21)
(2.07 0.7636 0)
(1.448 -0.1836 -1.111e-20)
(0.8546 0.05149 8.158e-20)
(0.02029 -0.01198 -9.664e-24)
(0.8139 -0.04403 -7.026e-23)
(1.892 0.8471 2.197e-20)
(1.004 -0.2421 0)
(1.011 0.01654 -3.216e-20)
(0.7913 0.03691 -1.69e-19)
(1.006 8.094e-06 0)
(0.9944 6.874e-06 0)
(0.7098 -0.003099 0)
(0.4741 -0.1032 -1.003e-20)
(0.8814 -0.1397 3.6e-21)
(1.004 -0.2418 -8.669e-22)
(0.7254 -0.2175 -1.335e-20)
(1.097 -0.07667 -4.244e-20)
(0.8609 -0.1544 0)
(1.52 -0.1688 3.209e-21)
(1.539 -0.1852 2.858e-21)
(-0.03369 0.7366 -7.403e-22)
(0.9127 -0.1248 1.624e-21)
(0.6187 -0.148 -3.561e-21)
(1.328 -0.2545 3.659e-21)
(0.8031 -0.09725 9.689e-22)
(1.693 -0.09894 0)
(0.8125 -0.09349 -7.225e-22)
(1.006 -0.1983 1.571e-21)
(0.08799 -0.004876 -1.563e-23)
(1.541 -0.1857 9.185e-21)
(0.9444 0.1497 0)
(0.6308 -0.1474 -8.27e-21)
(1.342 -0.2711 -5.591e-21)
(1.926 0.5085 -1.246e-20)
(1.003 -0.01302 1.333e-20)
(0.802 -0.04306 0)
(0.6398 -0.1344 1.558e-21)
(0.9719 -0.07521 -2.238e-22)
(1.008 -0.1581 -8.254e-21)
(0.9067 -0.06901 0)
(0.9118 -0.07965 5.499e-22)
(1.004 0.003801 9.417e-22)
(0.9969 0.03298 -4.64e-21)
(0.9748 -0.01435 0)
(0.6442 -0.1178 3.142e-21)
(0.9907 -0.00588 0)
(0.1483 0.3821 7.66e-20)
(1.083 -0.02646 -6.84e-20)
(0.7026 -0.07941 1.382e-21)
(0.8989 -0.0699 -5.06e-22)
(1.027 -0.03959 0)
(1.203 -0.1038 -6.959e-22)
(0.8438 -0.08368 -6.158e-22)
(0.04373 -0.03943 -1.728e-25)
(0.8019 -0.2759 -5.95e-21)
(0.9932 -0.006907 3.578e-22)
(1.096 -0.2216 -4.477e-20)
(0.6267 -0.08168 -3.367e-21)
(0.8286 -0.1033 0)
(0.7546 -0.1439 -1.744e-20)
(1.021 0.06927 0)
(0.2633 -0.02094 0)
(1.093 0.2551 0)
(0.502 -0.03079 0)
(1.155 -0.2962 -1.777e-21)
(1.238 -0.2429 -4.187e-20)
(1.015 -0.01467 -7.699e-20)
(0.5738 -0.035 0)
(0.1348 -0.05304 9.06e-23)
(0.7876 -0.1954 3.964e-21)
(0.8911 -0.08326 -1.137e-21)
(0.7854 -0.05763 -3.889e-22)
(0.5788 -0.04068 -2.382e-20)
(0.8001 -0.05295 0)
(0.9394 0.1483 0)
(0.9577 -0.03072 0)
(0.5544 -0.04391 1.398e-22)
(1.004 0.008703 -2.298e-20)
(1.328 -0.2822 0)
(0.04913 -0.007936 0)
(1.104 0.2534 0)
(0.9349 -0.1084 -2.01e-21)
(0.5886 -0.1134 -3.578e-21)
(0.9568 -0.09135 -2.435e-21)
(1 0.001444 -2.845e-20)
(0.9235 -0.09446 0)
(0.4436 -0.143 0)
(0.8043 -0.114 2.532e-21)
(0.8202 -0.1093 -4.958e-20)
(0.627 -0.2025 0)
(0.5904 -0.1875 0)
(1.204 -0.2359 -4.211e-21)
(1.006 -0.2627 -6.005e-21)
(0.7296 -0.1391 0)
(1.439 -0.1593 8.883e-21)
(0.5291 -0.1952 -4.87e-21)
(0.2788 -0.1108 0)
(0.04788 -0.0177 3.302e-22)
(0.5558 -0.1793 0)
(1.002 1.496e-05 8.982e-22)
(0.9488 -0.3215 -5.906e-21)
(1.146 0.4577 2.231e-20)
(1.545 0.6387 9.464e-22)
(0.7905 -0.08112 -3.051e-20)
(1.429 -0.1063 1.312e-20)
(0.879 -0.07321 -1.584e-20)
(1.005 -0.0004863 0)
(0.5484 -0.1778 0)
(0.09243 -0.01147 0)
(1.07 -0.1712 7.19e-20)
(1.647 -0.02548 1.555e-21)
(1.004 0.003666 -2.834e-20)
(0.9052 -0.13 -4.635e-21)
(0.7187 -0.1583 -7.828e-21)
(0.9236 0.003129 -4.778e-20)
(0.9765 -0.009198 0)
(0.9927 0.001147 -9.631e-21)
(0.9183 -0.0777 -2.529e-22)
(1.049 -0.08311 -1.675e-20)
(0.4709 -0.111 1.973e-20)
(0.9786 0.09072 0)
(0.723 -0.05643 2.364e-23)
(0.9824 0.01863 7.833e-20)
(0.0434 0.05055 0)
(0.9756 -0.01464 6.109e-22)
(0.1681 -0.01367 -3.48e-23)
(1.161 -0.3092 0)
(0.8619 -0.107 -1.012e-23)
(0.9358 -0.1077 5.823e-21)
(0.6632 -0.1148 1.961e-20)
(0.8961 0.2508 -1.984e-21)
(0.2873 -0.08878 4.155e-22)
(0.7682 -0.09209 5.247e-22)
(1.601 -0.08362 0)
(0.3305 -0.1285 0)
(1.424 -0.1536 7.542e-21)
(0.9614 -0.0872 -9.641e-22)
(1.596 -0.1251 6.526e-21)
(1.227 -0.2627 0)
(0.3601 1.236 1.105e-20)
(1.599 -0.1262 -8.807e-24)
(0.9994 -0.002196 0)
(1.026 0.03689 0)
(1.421 -0.2445 0)
(0.5144 -0.1465 3.475e-21)
(0.9947 -0.0003093 0)
(0.9798 -0.2276 4.031e-21)
(1.24 -0.1845 2.324e-20)
(0.951 -0.08247 1.339e-20)
(1.385 -0.2058 -1.63e-21)
(0.9141 -0.05743 2.407e-20)
(1.005 -0.0002026 0)
(-0.1368 0.3403 -2.517e-20)
(1.24 -0.1819 -2.734e-20)
(0.1093 -0.02467 2.914e-22)
(1.502 -0.1628 7.707e-22)
(0.2485 -0.1306 1.376e-21)
(0.02372 0.07444 -1.977e-20)
(1.183 -0.1688 2.459e-21)
(0.7901 -0.1899 0)
(0.4478 -0.1342 0)
(1.644 -0.02562 -1.667e-21)
(1.486 -0.1641 -6.755e-22)
(1.016 -0.001281 7.542e-20)
(0.7301 -0.06442 3.647e-22)
(0.9686 0.0487 4.385e-20)
(2.032 0.7671 9.309e-22)
(0.9465 -0.09525 -8.498e-22)
(1.554 -0.1637 0)
(1.951 0.5452 6.592e-21)
(0.000139 0.0006688 0)
(0.4383 -0.01699 4.87e-21)
(0.1929 0.9879 -2.706e-22)
(0.9573 -0.06334 -1.895e-23)
(1.61 1.165 2.815e-20)
(0.9819 0.003823 -1.571e-19)
(0.2538 -0.1339 0)
(1.027 0.03646 1.328e-22)
(0.107 -0.04427 0)
(1.151 -0.2908 -7.624e-21)
(-0.0001427 -0.0006699 0)
(-0.002848 -0.008719 -2.313e-23)
(0.01577 -0.005471 1.437e-23)
(0.9991 -0.0002107 -6.607e-20)
(0.6409 -0.1514 0)
(1.787 0.06781 0)
(0.9875 0.01651 5.957e-20)
(0.8257 -0.2152 -4.695e-22)
(0.5899 -0.1925 1.804e-20)
(0.4266 -0.1488 1.804e-21)
(0.9157 -0.1229 0)
(1.152 -0.3075 0)
(0.8559 -0.105 8.228e-22)
(0.9885 -0.2251 -4.026e-21)
(0.3506 -0.06508 1.628e-21)
(1.001 -0.002045 0)
(0.1275 -0.0204 5.215e-23)
(0.01864 -0.006662 0)
(0.515 -0.1953 3.304e-21)
(0.7656 -0.07551 -2.195e-22)
(0.1272 -0.04235 -4.083e-23)
(1.014 -0.01655 -2.375e-20)
(0.9473 -0.09823 2.148e-21)
(0.9972 -0.05066 -1.607e-21)
(1.226 -0.2611 1.415e-20)
(0.9953 -0.01509 0)
(0.6865 -0.05462 0)
(2.133 0.9718 0)
(0.09895 -0.03936 -1.403e-22)
(0.9932 6.962e-05 0)
(1.42 -0.2451 -4.416e-21)
(0.9311 -0.08386 1.239e-20)
(0.05589 -0.009816 -8.542e-25)
(0.4067 -0.1232 8.35e-21)
(1.997 0.5787 1.758e-21)
(1.167 -0.2589 -3.871e-21)
(0.9581 0.04196 3.461e-21)
(0.2786 -0.08924 6.011e-22)
(0.5614 -0.1698 -1.037e-20)
(0.9947 -0.0003116 8.405e-21)
(0.7564 -0.1441 2.322e-20)
(1.426 -0.1621 -4.301e-20)
(0.8284 -0.07252 3.904e-22)
(0.9126 -0.06857 -2.316e-22)
(0.488 -0.1388 -3.741e-21)
(0.1302 -0.006697 7.301e-22)
(1.153 -0.2945 3.949e-21)
(1.565 -0.07045 0)
(0.5475 -0.196 4.653e-21)
(0.3376 -0.08929 0)
(0.5569 -0.1791 7.402e-23)
(1.026 -0.01173 -1.155e-20)
(0.5363 -0.03195 -1.026e-23)
(0.7815 -0.2344 -3.315e-21)
(0.7989 -0.1196 -2.638e-21)
(0.9465 -0.1004 3.049e-21)
(0.1793 -0.0396 7.153e-23)
(1 0.002803 0)
(1 0.003721 3.076e-21)
(1.027 0.4213 1.741e-20)
(0.6036 -0.1457 -1.768e-21)
(1.594 1.234 0)
(0.9862 0.01944 -4.116e-20)
(1.004 7.522e-05 -7.872e-22)
(0.5789 -0.163 0)
(0.4595 -0.1888 0)
(0.5341 -0.1335 1.278e-21)
(0.4458 -0.1342 0)
(0.1414 -0.05366 8.953e-23)
(0.04698 -0.01541 0)
(0.8201 -0.1592 -4.007e-21)
(1.039 0.04246 0)
(0.9975 -0.0009304 1.425e-20)
(0.07273 -0.02378 6.186e-23)
(0.9413 -0.2292 -2.472e-21)
(0.8093 -0.1757 8.198e-21)
(1.002 -0.00243 2.508e-20)
(0.5925 0.003647 5.788e-21)
(0.9525 -0.09455 0)
(0.6516 -0.1932 5.114e-21)
(0.9936 -0.006501 2.949e-21)
(0.7007 -0.08901 -1.562e-22)
(0.9856 0.01916 7.665e-20)
(0.6212 -0.1248 -7.554e-22)
(0.05166 -0.01802 0)
(1.201 -0.2494 5.652e-22)
(0.9968 2.973e-05 5.378e-22)
(0.1529 -0.03816 -2.829e-21)
(1.192 -0.2893 -1.601e-21)
(0.2403 -0.1269 -2.19e-20)
(1.005 -0.0001794 -3.27e-21)
(0.8963 -0.1351 -4.391e-21)
(0.09053 -0.03252 1.949e-23)
(0.9927 0.0008958 0)
(0.9348 -0.1085 0)
(0.995 0.02502 -5.276e-22)
(0.9496 -0.07155 -4.073e-22)
(1.47 -0.177 0)
(0.9911 0.01174 4.012e-20)
(0.5075 -0.124 9.791e-21)
(0.878 -0.1176 -1.05e-21)
(0.01279 -0.01794 0)
(1.465 -0.2156 -1.089e-20)
(1.459 -0.1973 -1.31e-21)
(0.8234 -0.09557 2.177e-21)
(0.8346 -0.1043 8.66e-22)
(-0.1346 0.5173 -1.239e-20)
(0.9302 -0.08864 3.247e-22)
(1.997 1.124 3.143e-21)
(0.9163 -0.05617 1.146e-22)
(0.1061 -0.04648 -6.783e-23)
(1.567 -0.1359 -2.241e-21)
(0.7012 -0.06576 -2.003e-22)
(1.002 -0.002367 0)
(0.8264 -0.1727 -2.288e-21)
(0.9893 0.01432 -1.683e-20)
(-0.01088 0.7533 -6.676e-21)
(1.063 0.005021 7.522e-20)
(1.464 -0.1996 1.233e-20)
(1.005 -0.0005795 0)
(1.001 0.02347 -7.436e-22)
(0.9629 -0.07994 -8.99e-21)
(0.5278 -0.1945 2.439e-21)
(1.222 -0.2782 4.543e-21)
(1.003 -0.001168 2.09e-20)
(0.9999 -0.003195 -3.205e-20)
(0.09996 -0.04029 -8.375e-23)
(0.9984 0.124 0)
(0.5416 -0.1274 4.484e-21)
(0.7483 -0.06605 5.256e-22)
(0.6474 -0.1173 0)
(0.4711 -0.1097 -1.578e-20)
(1.146 -0.3013 -6.766e-22)
(0.4429 -0.1443 0)
(1.537 -0.1849 -2.5e-22)
(0.5201 -0.1719 -1.024e-20)
(1.045 -0.07338 0)
(1.003 -0.001238 -3.661e-21)
(1.74 -0.06996 1.004e-20)
(1.526 -0.1886 1.118e-21)
(0.8928 -0.1258 3.024e-21)
(1.379 -0.1604 0)
(0.9808 -0.02152 -1.034e-19)
(1.004 6.871e-05 8.631e-23)
(1.447 -0.1824 -1.068e-20)
(0.2343 -0.1226 -5.329e-24)
(1.485 -0.1644 3.378e-21)
(0.03181 -0.01092 7.934e-23)
(1.063 0.006714 0)
(1.003 2.649e-05 3.433e-22)
(0.3949 -0.1506 0)
(1.511 -0.1293 0)
(0.9195 0.08306 -9.477e-20)
(0.9397 -0.1147 -4.753e-21)
(0.8969 -0.1024 0)
(0.9886 -0.04472 -4.264e-20)
(0.3593 -0.05788 4.907e-21)
(0.7994 -0.1698 -2.497e-21)
(1.525 -0.188 6.925e-21)
(0.6871 -0.0357 -8.958e-20)
(0.004517 -0.001447 0)
(0.1403 -0.05359 0)
(0.3356 -0.1295 7.694e-23)
(0.2867 -0.09354 -7.942e-22)
(0.7287 -0.1505 0)
(1.393 -0.2005 6.37e-21)
(0.737 -0.09535 3.566e-22)
(1.072 -0.161 0)
(0.9243 0.01747 -2.23e-20)
(1.618 -0.1428 1.196e-20)
(0.02094 -0.006279 0)
(1.327 -0.2819 -6.811e-21)
(0.9994 -0.002376 7.41e-20)
(0.8999 -0.1386 3.37e-21)
(0.6735 -0.1199 0)
(0.4293 0.3786 -3.641e-20)
(0.9932 4.027e-05 -4.508e-23)
(0.9994 -0.002446 -9.88e-20)
(-0.005666 -0.009525 0)
(0.9574 -0.06307 3.579e-21)
(0.8552 -0.1567 -3.4e-21)
(1.505 -0.1915 -6.937e-22)
(0.2308 -0.07572 0)
(1.12 -0.2495 1.603e-20)
(1.529 0.009777 0)
(0.692 -0.05916 -1.991e-22)
(0.5952 0.2646 6.859e-20)
(0.7665 -0.1984 0)
(1.015 -0.001407 -2.712e-20)
(1.003 -0.001396 0)
(1.826 0.465 0)
(1.16 0.4551 0)
(0.6923 -0.127 7.144e-22)
(0.4314 0.3533 0)
(0.5049 -0.2038 7.452e-21)
(0.793 -0.1203 0)
(0.5062 -0.1952 -8.759e-21)
(1.087 -0.1523 8.038e-20)
(1.01 -0.1574 1.203e-20)
(0.9975 2.571e-05 -1.544e-23)
(0.7234 -0.0514 8.081e-23)
(0.9158 -0.05795 3.352e-21)
(0.8226 -0.1861 -2.27e-21)
(-0.0003831 -0.001347 -4.665e-24)
(0.9004 -0.1328 -1.439e-21)
(1.562 -0.1205 -1.413e-20)
(0.8256 -0.2844 6.515e-21)
(0.997 4.008e-05 -5.168e-22)
(0.9467 -0.1011 -5.361e-23)
(0.9078 -0.08228 6.883e-22)
(0.08524 -0.02747 0)
(0.9932 -0.1712 4.16e-22)
(1.272 -0.2667 1.123e-20)
(1.537 -0.185 -3.75e-21)
(2.018 1.671 0)
(0.9959 -0.2636 5.985e-21)
(0.2838 -0.1213 1.774e-20)
(0.9802 -0.1899 3.076e-23)
(0.7963 -0.1888 1.022e-21)
(0.9476 -0.1012 -1.436e-21)
(0.9481 -0.09787 -1.019e-21)
(1.133 -0.3242 7.142e-21)
(0.8628 -0.1272 1.357e-20)
(0.008826 -0.0005218 0)
(0.6698 -0.1202 0)
(0.9651 0.1228 1.576e-20)
(0.8125 -0.1743 -2.321e-21)
(0.47 -0.1711 1.43e-20)
(0.9464 -0.09832 3.062e-22)
(1.007 -0.003093 0)
(0.032 -0.005568 8.843e-24)
(1.007 -0.1989 -3.333e-21)
(0.5396 -0.1367 -1.213e-21)
(1.003 1.3e-05 -2.928e-22)
(0.03225 -0.01346 0)
(0.5662 -0.1833 0)
(0.7071 -0.08997 -2.165e-21)
(0.9981 4.777e-05 1.753e-22)
(1.025 -0.1574 6.443e-21)
(0.1058 -0.04646 0)
(0.9324 -0.169 7.808e-21)
(1.596 -0.1567 -6.102e-21)
(0.9978 3.825e-05 -1.5e-22)
(0.7454 -0.154 -1.982e-21)
(0.03434 0.005376 0)
(0.4188 -0.1219 6.503e-21)
(1.353 -0.2675 0)
(0.9961 0.03657 -1.095e-21)
(1.52 -0.1684 3.212e-21)
(-0.27 0.8277 0)
(1.028 -0.005028 -2.49e-20)
(0.8712 -0.1499 4.231e-21)
(0.8342 -0.1486 0)
(1.418 -0.1981 -7.357e-21)
(0.4381 -0.0178 0)
(0.759 -0.1408 -1.407e-20)
(0.9 -0.133 0)
(0.6424 -0.08047 -3.951e-22)
(0.3227 -0.1182 0)
(0.994 2.2e-05 -4.714e-22)
(0.7375 -0.1511 1.907e-21)
(0.9857 -0.2549 2.006e-22)
(0.5242 -0.04185 0)
(0.8254 -0.119 -1.916e-21)
(1.399 -0.05871 0)
(0.8348 -0.2156 0)
(0.1363 -0.005253 1.718e-22)
(0.9936 5.338e-05 -1.245e-22)
(0.4357 -0.1511 -1.773e-21)
(0.3485 -0.05266 0)
(1.497 -0.1673 0)
(0.009046 -0.02407 3.274e-24)
(1.497 -0.1666 -3.73e-21)
(0.09963 -0.04016 2.168e-22)
(1.388 -0.2622 -1.511e-21)
(0.1034 -0.0449 0)
(0.8102 -0.1632 0)
(0.9992 -0.0002344 3.256e-20)
(0.002123 -0.0008319 7.542e-24)
(0.6961 -0.2235 5.478e-21)
(1.476 -0.2176 9.399e-21)
(0.06285 -0.01823 -6.759e-23)
(0.397 -0.1439 -5.071e-22)
(0.2414 -0.09796 -3.183e-22)
(0.3871 -0.1391 -6.563e-22)
(0.8681 -0.07276 0)
(0.9973 -0.0008605 0)
(1.006 -0.184 0)
(0.9362 -0.1082 -1.145e-23)
(0.9978 3.619e-06 0)
(0.3157 -0.1211 -4.278e-21)
(2.029 0.7636 0)
(0.9013 -0.1331 -3.16e-21)
(0.6099 -0.1914 -5.656e-21)
(1.006 -0.0001121 -1.351e-20)
(1.157 -0.3028 0)
(0.06186 0.02718 0)
(1.016 -0.00109 -8.803e-20)
(1.006 -0.0001257 0)
(1.376 -0.1626 0)
(1.036 -0.2544 3.202e-21)
(0.6519 -0.1159 -6.577e-22)
(0.2597 -0.1046 -6.538e-22)
(0.6079 -0.1374 1.829e-21)
(0.1571 -0.008681 -1.118e-24)
(0.9276 -0.1145 0)
(0.5159 0.05336 -6.031e-20)
(0.9997 -0.002496 0)
(0.5952 -0.2195 -2.867e-21)
(0.2849 -0.1145 0)
(0.7953 -0.05603 1.696e-22)
(0.6576 -0.05425 0)
(0.4631 -0.03328 -4.43e-20)
(1.003 -0.0006251 0)
(1.014 -0.01601 2.687e-21)
(0.989 -0.04669 2.243e-20)
(0.6119 0.006027 6.795e-21)
(0.9997 -0.002363 1.299e-20)
(1.074 -0.1419 -2.828e-20)
(0.1582 -0.08062 4.462e-21)
(0.9281 -0.1145 -3.699e-21)
(0.6719 -0.0928 2.399e-21)
(0.999 -0.002864 0)
(0.1163 0.007963 1.697e-23)
(0.9347 -0.1103 1.925e-21)
(1.005 0.01121 0)
(0.8096 -0.09794 -9.519e-22)
(0.9955 -0.0003901 0)
(0.3286 -0.1249 2.234e-20)
(-0.4403 0.7247 -1.066e-21)
(1.337 -0.1731 -1.491e-22)
(1.522 -0.1308 0)
(0.4258 -0.02611 -1.508e-23)
(0.9753 -0.01803 5.165e-21)
(0.4618 -0.1162 0)
(0.6733 -0.04346 -2.126e-20)
(0.693 -0.05885 0)
(0.01894 -0.008075 1.607e-23)
(0.7482 -0.0984 -5.671e-22)
(1.528 2.114 -6.804e-21)
(1.402 -0.0538 -1.704e-20)
(0.864 -0.1373 -6.741e-21)
(0.5324 -0.1179 2.986e-23)
(0.3541 -0.06607 0)
(1.004 0.01442 0)
(1.305 -0.2156 2.418e-20)
(0.6712 -0.2109 0)
(2.115 0.3943 5.424e-22)
(0.02108 -0.005656 -5.505e-24)
(0.5649 -0.09255 0)
(1.003 -0.0005855 0)
(1.019 -0.101 1.275e-20)
(0.07251 -0.02314 -2.686e-23)
(0.5993 -0.138 -7.448e-21)
(0.3815 -0.02045 3.1e-20)
(1.861 0.1609 0)
(-0.1726 0.2006 -2.069e-21)
(1.977 0.2334 -1.988e-21)
(0.1901 0.02972 2.214e-20)
(0.8932 -0.2075 -3.02e-21)
(0.07964 -0.02016 -3.153e-22)
(1.005 -0.1842 1.64e-21)
(0.302 -0.023 -2.773e-22)
(1.036 0.05644 -1.464e-20)
(0.9103 -0.1296 0)
(1.004 4.855e-05 0)
(0.9967 3.1e-05 0)
(1.466 -0.2122 5.685e-21)
(1.086 0.02424 3.836e-21)
(1.567 -0.1839 9.514e-21)
(0.9152 -0.1575 5.525e-21)
(0.2572 1.286 0)
(0.9549 -0.09102 7.451e-21)
(1.038 -0.0554 -2.235e-20)
(2.085 0.8136 8.031e-21)
(0.8063 -0.1764 4.071e-21)
(1.015 -0.01442 5.399e-20)
(1.016 -0.1959 -1.464e-22)
(0.3144 -0.1137 -3.875e-22)
(1.038 -0.05338 3.258e-20)
(0.5132 -0.1175 -1.117e-20)
(0.0706 -0.02424 8.518e-22)
(0.03787 -0.02408 0)
(0.8458 -0.1603 0)
(-0.3324 0.5585 -4.148e-21)
(1.312 -0.2501 0)
(0.2675 -0.1023 0)
(0.9861 0.004915 5.315e-20)
(1.553 -0.1623 5.606e-21)
(0.8223 -0.1868 2.296e-21)
(1.003 -0.0127 0)
(0.5082 -0.1237 4.925e-21)
(0.7538 -0.2368 0)
(1.046 -0.2628 -2.185e-21)
(0.9948 -0.0002807 4.24e-21)
(0.9663 -0.02249 2.815e-21)
(1.039 -0.2039 0)
(0.1097 -0.007733 -4.111e-24)
(0.6255 -0.1702 -1.326e-20)
(0.06865 -0.01889 0)
(1.025 -0.2384 2.795e-21)
(0.4521 -0.1541 0)
(0.819 -0.1725 -8.192e-22)
(0.09033 -0.03607 0)
(1.547 -0.104 1.977e-21)
(0.9964 3.451e-05 5.775e-23)
(0.2099 -0.1147 0)
(1.611 0.3558 -3.168e-20)
(1.004 5.334e-05 0)
(0.5083 -0.1339 4.111e-22)
(0.02632 -0.009655 -6.013e-23)
(1.157 -0.2361 -7.157e-21)
(1.927 0.1238 -6.515e-21)
(0.9714 -0.0637 -1.289e-21)
(0.9023 -0.1298 -1.54e-21)
(0.07156 -0.02638 -2.715e-24)
(0.1242 -0.01783 1.355e-22)
(0.89 -0.09339 0)
(1.037 0.04285 -3.822e-20)
(0.9961 0.009767 6.502e-21)
(0.8595 -0.1545 0)
(0.4007 -0.1051 -4.393e-21)
(0.2733 -0.07649 -3.406e-21)
(0.5471 -0.1268 0)
(0.4351 1.612 1.6e-20)
(0.4821 -0.1995 -4.071e-21)
(0.6682 -0.01027 -2.459e-22)
(1.321 0.009742 -4.031e-20)
(0.4872 -0.1998 -4.034e-21)
(1.105 -0.08576 4.809e-20)
(0.7017 -0.04841 0)
(1.008 -0.001783 0)
(0.5355 -0.1815 9.961e-23)
(0.0131 -0.01993 1.228e-24)
(1.389 -0.2479 -1.374e-20)
(0.5653 -0.1126 0)
(0.9071 -0.2016 0)
(0.9917 0.008671 -3.091e-20)
(0.9691 0.02139 2.45e-20)
(0.09662 -0.02567 0)
(0.7909 -0.1169 3.257e-20)
(0.1324 -0.02028 0)
(0.9037 -0.1167 0)
(0.2431 -0.07367 1.203e-21)
(0.5403 -0.06911 7.884e-22)
(1.479 -0.1598 -3.047e-21)
(1.767 0.01246 -1.77e-21)
(1.597 -0.1236 -1.029e-20)
(0.3332 -0.05063 1.296e-21)
(1.518 -0.1801 -7.961e-21)
(0.7546 -0.05609 -1.782e-22)
(0.4781 -0.1553 3.394e-21)
(0.9331 -0.1098 4.571e-21)
(0.7421 -0.2072 -6.138e-22)
(0.7165 1.851 -7.864e-21)
(0.2316 -0.09324 -7.08e-24)
(0.01493 -0.02347 -9.149e-24)
(0.0336 -0.01172 0)
(0.8686 -0.1814 0)
(1.007 -0.002965 0)
(1.004 -0.00532 4.446e-20)
(0.8258 -0.1834 1.508e-21)
(0.2697 -0.02134 0)
(0.8914 -0.1287 -1.939e-20)
(1.006 3.371e-05 0)
(0.3985 -0.1292 -1.469e-20)
(1.145 -0.3031 3.385e-21)
(0.9655 -0.07673 6.365e-21)
(0.2438 -0.09839 0)
(1.451 -0.175 -1.901e-20)
(0.1858 -0.06114 -6.086e-21)
(1.697 0.9062 -3.915e-20)
(0.9999 0.001427 -2.46e-20)
(0.8683 -0.126 0)
(0.9667 -0.06265 3.423e-21)
(0.4642 -0.1811 0)
(0.6195 -0.04691 0)
(0.1083 -0.05121 3.729e-23)
(0.5211 -0.02423 3.391e-20)
(1.281 -0.2211 4.653e-20)
(0.7081 -0.1279 0)
(0.8842 -0.08261 2.182e-22)
(0.9673 -0.07981 0)
(0.9033 -0.1622 0)
(0.4085 -0.1443 1.613e-20)
(0.938 -0.1077 -1.417e-21)
(0.2747 -0.1095 0)
(0.4519 -0.1947 -5.303e-21)
(1.007 -0.01715 -2.022e-21)
(0.0467 -0.02417 0)
(0.09014 -0.03495 0)
(0.987 -0.2534 0)
(1.496 -0.2116 1.285e-20)
(-0.3516 0.6185 -4.669e-21)
(1.012 0.0244 -5.5e-21)
(0.1088 -0.0236 7.25e-21)
(0.3256 -0.06387 0)
(0.9972 -0.0002661 0)
(0.997 -9.843e-05 -2.884e-20)
(1.565 -0.1642 1.713e-24)
(1.251 -0.2839 1.34e-20)
(0.02122 -0.00802 7.052e-23)
(0.01544 -0.01292 -5.295e-24)
(0.91 -0.1293 7.071e-22)
(0.5726 -0.2044 0)
(0.1531 -0.006896 -3.161e-21)
(0.8775 -0.1251 0)
(0.9242 -0.1093 0)
(0.9731 -0.02318 -5.681e-20)
(0.3335 -0.1065 -3.109e-21)
(0.204 -0.05509 0)
(0.2334 -0.01057 -3.121e-21)
(0.8402 -0.1551 0)
(0.08778 -0.02744 -8.514e-23)
(0.3677 -0.1265 -2.797e-21)
(0.9986 -0.001756 -1.658e-21)
(0.3448 -0.04752 0)
(0.1079 -0.04346 -1.481e-22)
(0.9977 -0.0008488 -1.095e-19)
(1.211 -0.1744 -3.86e-21)
(0.9975 -0.0002878 -1.15e-20)
(0.9862 0.0007426 4.939e-20)
(0.92 -0.1195 -1.791e-21)
(0.8673 -0.09902 0)
(0.3343 -0.03194 -3.896e-20)
(0.9958 -0.002315 1.111e-20)
(0.8092 -0.09665 1.104e-22)
(1.007 0.006748 0)
(2.042 0.8103 0)
(0.8811 -0.09089 -2.582e-20)
(1.006 -0.1815 1.175e-21)
(0.9416 -0.1034 2.752e-21)
(0.8378 -0.1621 5.345e-22)
(0.8795 -0.1269 0)
(0.1749 0.003979 1.665e-20)
(0.9435 -0.1025 -3.352e-21)
(1.001 -0.005692 1.106e-20)
(0.9694 -0.04359 -6.671e-20)
(1.395 -0.244 6.96e-21)
(0.8669 -0.158 -1.504e-21)
(0.2466 -0.1011 9.619e-23)
(0.3357 -0.1225 0)
(0.3926 -0.02848 -3.02e-24)
(0.3307 -0.1193 -1.172e-21)
(-0.06863 0.01766 -3.604e-20)
(1.447 -0.2135 1.184e-20)
(0.745 -0.2033 0)
(1.782 0.03677 -1.482e-20)
(0.8606 -0.09093 1.602e-22)
(0.6478 -0.07922 0)
(1.096 0.732 -1.369e-20)
(1.006 -0.1886 0)
(1.001 -0.01326 9.815e-21)
(0.7689 -0.1472 1.386e-20)
(0.03598 0.01408 -2.053e-23)
(0.7422 -0.1252 0)
(0.9987 2.35e-05 1.847e-22)
(0.06654 0.002916 6.246e-20)
(1.175 -0.3003 0)
(0.9574 -0.09235 -1.44e-22)
(0.7393 -0.1935 1.544e-21)
(1.551 -0.1845 -9.382e-22)
(0.9341 -0.1079 4.661e-21)
(0.4991 -0.1061 0)
(1.176 -0.2798 7.24e-21)
(0.9573 -0.09248 -4.35e-22)
(0.1194 -0.05307 -3.872e-24)
(0.7483 -0.2 -5.72e-21)
(0.01851 -0.008845 -1.715e-23)
(0.9975 -0.0007754 0)
(0.9703 -0.07414 9.252e-22)
(0.8145 -0.1501 0)
(0.9743 -0.01495 0)
(0.8926 -0.1779 0)
(1.066 -0.1114 1.62e-21)
(0.9966 -4.237e-06 4.64e-21)
(0.8256 -0.1577 9.676e-21)
(0.04938 0.0178 0)
(0.9523 -0.04309 0)
(1.129 0.7208 5.026e-20)
(1.318 -0.2412 0)
(0.02395 -0.01962 0)
(0.898 -0.1083 2.025e-20)
(1.006 5.001e-05 -2.686e-22)
(0.7528 -0.1773 -1.514e-22)
(0.5504 -0.177 -2.116e-22)
(1.016 -0.007789 4.812e-20)
(1.188 0.6112 -4.184e-20)
(1.135 0.07112 2.014e-20)
(1.126 -0.2854 4.944e-21)
(0.5675 -0.1384 -5.231e-21)
(0.8828 -0.1428 4.377e-21)
(1.041 -0.05144 0)
(0.06565 -0.008767 4.306e-23)
(0.03844 -0.01428 -1.715e-22)
(0.8362 -0.1746 -2.649e-22)
(0.8958 -0.1397 2.111e-21)
(1.001 -0.3273 -1.888e-21)
(0.2954 -0.02598 0)
(0.9983 4.244e-05 -2.214e-22)
(0.9386 -0.09727 -1.086e-21)
(1.009 0.008514 1.04e-21)
(0.6088 -0.07824 0)
(0.3254 -0.07651 -1.406e-20)
(1.174 -0.2034 0)
(0.7403 -0.1935 1.386e-20)
(0.02326 -0.007732 1.303e-23)
(0.4096 -0.06737 0)
(0.9994 0.005908 -6.283e-21)
(0.001328 -0.0005581 0)
(0.0597 -0.02391 0)
(0.3843 -0.1212 3.028e-21)
(0.9644 -0.0856 -1.212e-21)
(2.179 0.6443 0)
(1.144 -0.2771 -5.33e-21)
(0.9943 -0.1716 6.421e-22)
(0.602 -0.04686 0)
(0.916 -0.1234 0)
(0.8581 0.129 -9.782e-20)
(0.0546 -0.00151 -2.408e-22)
(0.2242 -0.01884 -5.675e-22)
(0.8738 -0.06446 0)
(0.7843 -0.1624 -3.257e-21)
(0.9062 -0.1342 0)
(0.1407 -0.02163 -6.145e-20)
(0.01411 -0.01775 -2.226e-22)
(0.235 -0.08144 -5.486e-23)
(0.8814 -0.1437 8.855e-22)
(0.3776 -0.1133 0)
(1.527 -0.1286 0)
(0.8561 -0.1039 -1.313e-21)
(0.8759 -0.08934 5.426e-22)
(1.151 -0.238 0)
(-0.02829 0.006566 0)
(0.9519 -0.07144 -5.594e-21)
(0.826 -0.1689 -4.605e-21)
(0.9314 -0.08307 0)
(0.8309 -0.1408 1.496e-21)
(0.994 4.681e-05 0)
(1.004 -0.001214 1.577e-19)
(1.418 -0.1951 -1.586e-20)
(0.2773 -0.01823 -6.022e-23)
(0.5561 -0.1827 1.682e-21)
(0.9981 -0.02908 7.508e-21)
(0.1742 -0.03397 -7.423e-21)
(0.2705 -0.08957 -5.713e-22)
(0.995 0.01154 -1.961e-20)
(1.203 0.1636 0)
(0.9216 -0.1218 4.017e-22)
(1.489 -0.1512 0)
(-0.001266 -0.004679 0)
(0.7261 -0.1708 -1.161e-20)
(0.2779 -0.09714 -5.097e-22)
(0.006004 -0.001968 0)
(1.018 -0.1969 -8.573e-23)
(0.06703 -0.03072 -4.004e-22)
(0.9623 -0.2788 2.891e-21)
(0.9302 -0.1144 0)
(0.6201 -0.06659 9.818e-21)