/*--------------------------------*- C++ -*----------------------------------*\
  =========                 |
  \\      /  F ield         | OpenFOAM: The Open Source CFD Toolbox
   \\    /   O peration     | Website:  https://openfoam.org
    \\  /    A nd           | Version:  8
     \\/     M anipulation  |
\*---------------------------------------------------------------------------*/
FoamFile
{
    version     2.0;
    format      ascii;
    class       volScalarField;
    location    "20";
    object      nut;
}
// * * * * * * * * * * * * * * * * * * * * * * * * * * * * * * * * * * * * * //

dimensions      [0 2 -1 0 0 0 0];

internalField   nonuniform List<scalar> 
127143
(
7.817e-16
2.255e-17
2.293e-17
1.092e-16
9.899e-12
8.019e-17
7.522e-10
2.653e-11
2.63e-12
5.544e-08
2.766e-10
6.139e-11
1.243e-17
1.104e-16
1.227e-06
6.444e-09
1.272e-14
9.394e-05
4.739e-05
1.406e-08
4.342e-05
9.65e-10
7.175e-05
7.486e-06
9.548e-10
7.895e-06
1.129e-05
9.962e-06
2.514e-08
0.0001969
3.113e-06
6.42e-06
1.613e-06
1.476e-05
3.801e-05
1.731e-06
0.0001325
3.335e-05
7.931e-06
1.157e-06
4.744e-05
2.045e-06
2.24e-06
6.452e-16
9.362e-05
1.504e-05
2.506e-08
0.0002083
6.807e-06
5.455e-06
9.052e-09
0.0003302
8.064e-06
1.834e-05
0.006684
2.711e-07
0.006684
0.0001748
0.004339
2.111e-05
2.939e-06
3.602e-05
7.818e-06
0.006702
2.967e-05
1.976e-05
3.069e-05
7.541e-06
7.54e-06
0.001389
4.149e-06
1.199e-05
0.0002705
0.003681
0.006696
1.04e-05
0.0004513
0.0001154
2.711e-07
0.006705
2.525e-08
2.071e-08
3.218e-05
1.511e-06
0.0002032
0.000109
8.064e-06
1.227e-05
1.851e-05
1.378e-06
0.002312
4.91e-05
2.684e-06
4.33e-05
5.411e-05
0.0002912
2.256e-06
2.481e-06
0.0001024
3.411e-05
0.006705
6.645e-06
1.727e-07
7.693e-05
7.747e-05
9.957e-05
6.982e-06
0.001389
6.761e-06
0.006683
1.35e-06
1.22e-05
5.247e-05
6.179e-07
0.003334
6.073e-05
0.0003736
0.006696
0.0005661
7.722e-11
0.006683
3.384e-05
1.322e-05
0.0001956
2.535e-08
7.047e-06
5.098e-05
0.0006669
1.452e-05
2.318e-07
8.066e-05
5.626e-05
1.039e-05
0.0001156
3.48e-12
9.275e-05
0.000232
2.159e-05
1.928e-07
0.0001452
4.44e-05
0.0005887
8.827e-06
1.337e-05
7.959e-06
5.819e-06
1.897e-08
0.006703
6.711e-05
8.387e-08
3.702e-05
3.964e-06
3.035e-05
2.142e-05
1.997e-06
0.0001491
0.000147
2.512e-07
0.0001848
1.762e-06
4.032e-06
1.647e-09
0.00211
9.652e-05
1.342e-07
2.277e-05
8.779e-05
6.506e-06
1.881e-06
0.0001014
4.478e-06
1.337e-05
5.267e-05
2.277e-05
0.000653
0.0001005
5.854e-06
1.453e-05
7.956e-06
0.002274
2.048e-05
0.0009528
7.611e-05
0.0001009
2.324e-07
3.474e-05
5.975e-06
7.478e-07
7.637e-06
0.0009147
1.369e-05
2.747e-05
0.0003318
1.092e-06
1.016e-12
2.947e-05
0.00673
0.006717
1.536e-10
0.00153
0.004666
0.0001309
0.0008067
0.0001392
5.316e-16
5.93e-06
0.0001392
2.655e-05
0.0002381
0.003674
8.65e-05
0.0002222
0.003651
1.859e-06
5.981e-05
5.47e-10
6.316e-07
2.622e-05
7.298e-05
0.0001463
5.474e-06
0.006697
3.97e-06
7.666e-06
1.953e-06
3.673e-06
1.547e-07
3.685e-05
6.522e-06
0.0001021
4.547e-05
0.001001
0.0002325
1.049e-11
4.545e-05
0.000226
9.672e-05
3.427e-13
0.004112
1.038e-05
2.623e-05
3.002e-05
0.0001475
2.511e-07
1.712e-05
1.317e-10
2.943e-06
1.056e-05
1.2e-10
0.001342
3.663e-06
6.203e-06
2.291e-05
1.638e-05
4.411e-07
6.218e-06
0.0008362
2.441e-07
2.571e-05
8.646e-06
2.252e-05
0.0007734
4.528e-05
0.0005566
8.05e-06
2.928e-05
5.761e-05
1.948e-06
3.68e-06
1.792e-05
7.559e-06
0.0006524
0.000212
1.055e-05
9.4e-06
1.262e-05
5.245e-05
7.241e-06
0.0004722
2.129e-05
0.002881
0.0001497
7.818e-05
0.0067
0.004862
1.015e-12
8.748e-05
0.003296
7.653e-06
0.002182
3.324e-05
4.224e-05
0.0002177
4.515e-05
0.00287
6.725e-06
3.772e-06
4.945e-06
0.000143
1.81e-05
8.391e-06
2.941e-05
9.906e-06
7.812e-05
1.577e-06
3.386e-06
2.669e-05
0.003315
5.178e-05
1.774e-05
7.06e-06
6.325e-07
3.147e-07
0.003603
0.003826
2.36e-06
2.561e-05
6.991e-06
3.568e-05
0.000366
8.077e-05
3.631e-06
0.0002951
2.284e-05
2.246e-06
1.643e-05
7.638e-05
6.286e-06
3.624e-06
4.226e-06
7.807e-05
0.004031
4.093e-05
0.006729
0.006717
2.148e-05
6.826e-06
6.023e-05
7.846e-05
8.464e-05
0.0001692
2.618e-05
7.809e-06
1.112e-05
1.095e-06
7.653e-06
5.17e-05
4.562e-05
7.696e-06
1.507e-05
8.203e-06
3.675e-05
0.0001185
1.249e-05
7.555e-05
5.776e-05
1.641e-05
6.637e-06
0.006183
3.636e-06
0.0001347
8.327e-06
7.839e-05
4.722e-06
5.969e-06
0.006698
0.00181
0.0002923
2.873e-05
0.0004336
1.74e-06
0.0003136
8.048e-06
4.58e-06
0.001167
4.801e-05
7.905e-06
1.293e-10
0.0001133
0.0005137
5.449e-05
7.314e-06
8.69e-06
2.226e-05
0.0003946
1.656e-07
2.378e-05
1.238e-06
3.071e-05
4.911e-05
0.00527
9.72e-06
8.637e-06
4.703e-07
7.324e-06
3.187e-06
9.967e-06
3.575e-06
7.335e-05
0.001084
1.166e-06
0.006697
2.793e-05
8.307e-05
2.508e-05
2.482e-05
0.0001268
1.096e-05
0.006705
8.062e-06
8.457e-06
7.809e-06
4.266e-05
0.0001193
1.177e-05
5.066e-05
0.0001012
7.56e-06
2.475e-05
5.217e-06
9.223e-05
8.722e-07
7.209e-05
0.001843
0.0001031
7.819e-06
2.107e-06
3.511e-05
2.305e-05
0.0001086
0.00668
8.165e-05
0.0001053
8.548e-05
1.042e-05
0.006698
2.166e-05
4.319e-05
0.0003613
0.00305
0.006694
5.879e-06
0.0001914
6.782e-06
0.0002264
2.504e-06
0.002801
3.18e-06
0.0002905
0.0002588
7.136e-05
8.677e-06
2.942e-05
3.051e-05
2.266e-05
0.0001415
7.408e-06
2.407e-05
0.0001658
2.042e-05
1.169e-05
7.302e-06
3.086e-05
5.194e-07
8.049e-06
0.0008251
0.0008886
1.457e-05
4.971e-05
0.006673
0.0001021
4.319e-05
0.0001712
2.68e-05
0.000183
0.006651
1.709e-06
4.224e-05
8.732e-06
1.007e-05
6.278e-08
3.039e-06
3.36e-05
3.145e-07
7.045e-06
1.043e-05
1.368e-05
0.00671
2.289e-06
0.000539
3.602e-06
8.091e-06
8.599e-06
5.794e-06
1.486e-14
9.878e-05
9.009e-07
0.0003686
9.469e-07
0.004895
6.138e-08
0.0009242
0.0001218
2.638e-05
1.579e-14
4.508e-11
1.357e-12
0.006698
5.8e-05
3.795e-06
0.003719
0.0001984
1.307e-05
0.0001031
7.164e-05
7.229e-05
8.67e-06
0.0001017
9.844e-06
0.0009637
0.0002234
1.503e-10
3.582e-06
7.132e-06
6.343e-06
0.004388
4.054e-05
0.0008871
3.651e-05
0.006309
2.145e-06
5.853e-08
4.566e-06
0.006679
1.459e-05
0.0001944
1.328e-06
6.797e-06
6.312e-07
4.763e-05
0.0004997
3.355e-05
1.29e-05
0.006673
2.938e-05
2.477e-05
4.336e-06
4.727e-06
4.699e-05
4.965e-06
3.011e-05
2.136e-05
7.979e-06
7.545e-05
8.337e-05
0.002525
1.508e-06
7.052e-05
8.352e-06
9.732e-06
0.000128
0.006702
0.006701
9.864e-06
5.129e-05
1.132e-06
0.003285
0.00457
9.766e-06
1.461e-06
0.0001072
8.498e-06
6.872e-06
8.481e-06
3.778e-05
0.0006952
0.006683
1.704e-06
8.932e-05
8.649e-06
0.004713
1.076e-05
1.164e-05
5.839e-05
0.0005132
8.324e-06
0.003199
8.519e-05
9.819e-05
4.955e-05
0.005111
1.003e-05
2.253e-05
5.509e-09
0.006651
7.034e-06
6.316e-07
0.006694
2.488e-05
0.002756
5.767e-06
1.357e-05
0.0067
4.02e-05
8.029e-06
3.425e-07
3.201e-05
1.021e-05
8.187e-06
8.677e-06
1.257e-06
7.947e-06
3.214e-06
4.657e-06
0.0001113
7.197e-06
2.547e-06
0.005427
2.738e-06
0.005823
8.74e-07
0.0005619
8.973e-06
0.00668
0.002832
0.0001205
5.265e-06
6.039e-05
0.006472
0.006684
6.936e-06
1.129e-05
3.766e-05
3.236e-06
0.000208
7.298e-06
7.029e-05
8.133e-06
1.086e-05
5.081e-05
1.675e-05
0.006471
2.053e-05
1.032e-05
8.641e-05
2.329e-05
0.002408
0.004572
1.871e-05
2.704e-07
1.368e-05
4.461e-08
0.0006257
0.003192
8.132e-05
3.002e-05
0.0001512
2.064e-05
9.481e-05
0.001059
4.316e-05
3.077e-05
9.4e-06
1.88e-05
2.025e-15
4.448e-06
0.0001675
0.0001419
7.201e-05
3.926e-05
8.405e-06
4.325e-05
0.000306
1.387e-05
1.677e-05
2.787e-05
0.006682
7.195e-06
1.498e-05
2.846e-06
0.006679
0.006681
3.081e-07
0.0004575
7.057e-06
3.04e-05
5.071e-06
5.179e-05
1.176e-05
2.24e-06
6.552e-06
5.031e-07
0.006708
0.006674
3.807e-06
7.83e-06
3.09e-05
3.104e-06
1.53e-07
0.000193
2.199e-06
9.675e-05
8.744e-05
0.003691
2.53e-06
0.0001976
5.506e-07
3.169e-12
1.163e-05
8.807e-06
0.0001116
0.004876
8.717e-06
6.913e-06
1.459e-07
5.117e-05
1.836e-05
1.085e-05
1.123e-07
7.557e-05
6.662e-06
5.701e-05
6.441e-07
8.308e-06
1.785e-05
5.045e-05
5.622e-05
5.28e-15
1.785e-05
0.0001155
3.166e-06
9.502e-06
8.259e-06
0.006693
4.445e-05
3.868e-05
0.0001163
0.002952
4.578e-08
7.767e-05
8.32e-06
0.003127
3.159e-05
8.325e-05
3.978e-05
2.487e-05
0.003787
9.691e-05
4.853e-06
3.576e-05
1.659e-05
0.001352
7.808e-06
1.044e-06
0.002429
2.629e-05
4.362e-05
3.768e-05
9.958e-05
2.926e-05
1.16e-05
8.042e-06
6.337e-05
0.006639
0.0001123
8.474e-05
9.864e-07
7.803e-06
1.916e-05
0.0001963
5.155e-06
0.006657
9.263e-05
4.347e-05
1.02e-05
2.168e-11
1.038e-05
4.594e-06
3.122e-05
0.0001951
4.007e-05
0.006697
1.323e-15
8.145e-05
3.026e-05
6.629e-07
0.0001581
5.042e-05
8.866e-05
4.979e-06
0.006683
3.964e-05
7.785e-05
0.003493
7.171e-05
3.606e-06
7.136e-06
1.633e-05
0.006666
6.794e-05
9.69e-05
0.006708
0.006662
2.359e-05
4.179e-05
0.0001866
4.164e-05
0.000129
1.912e-08
5.235e-05
6.227e-06
0.006682
0.0001011
0.0001145
3.413e-06
1.981e-06
5.654e-06
0.002739
0.004564
0.0002694
1.156e-05
0.006683
9.719e-05
1.659e-06
8.587e-06
8.166e-06
0.006193
0.000196
8.455e-06
0.006698
7.713e-06
0.006683
6.325e-06
1.106e-07
3.978e-05
1.479e-05
7.301e-07
0.002227
4.315e-05
1.612e-05
2.139e-06
7.69e-06
8.19e-06
8.367e-08
1.977e-05
5.642e-05
9.966e-06
3.074e-06
0.0067
3.189e-05
3.786e-07
1.196e-06
1.668e-05
7.435e-06
0.002838
0.0002141
1.701e-06
5.43e-07
6.208e-06
3.178e-06
6.399e-10
2.315e-06
5.459e-06
6.33e-05
1.283e-06
4.657e-05
1.94e-07
0.0004222
7.342e-06
0.004686
0.005183
8.853e-06
0.0003078
2.154e-05
0.0001825
5.765e-07
0.0001161
0.0005127
1.664e-06
2.965e-06
0.004395
9.77e-05
2.642e-05
0.0006035
3.727e-05
4.509e-08
8.692e-05
3.397e-05
1.262e-06
1.999e-05
3.042e-05
0.006701
8.581e-06
5.508e-07
0.00623
4.664e-05
0.0001035
2.918e-05
0.00667
0.0002752
7.18e-05
3.336e-09
1.575e-05
3.023e-08
8.51e-05
9.035e-06
4.238e-06
3.727e-07
2.828e-05
0.005717
2.503e-07
4.016e-06
0.005282
7.894e-06
1.318e-10
4.822e-05
1.408e-05
2.694e-05
7e-05
1.029e-07
2.887e-08
8.156e-06
0.0005604
0.006697
3.091e-05
6.494e-06
4.683e-05
4.044e-05
8.581e-07
7.644e-08
1.227e-05
3.005e-05
7.628e-08
0.0001358
1.736e-05
0.006693
0.0001632
7.288e-08
1.131e-05
6.834e-05
0.0001065
0.006697
0.001281
2.612e-06
3.732e-05
4.5e-05
8.069e-06
1.544e-05
0.000215
1.747e-05
6.123e-06
2.571e-05
2.739e-06
7.965e-06
2.764e-06
4.315e-05
2.749e-05
0.0002094
1.233e-06
4.472e-05
3.811e-08
2.351e-09
0.0001096
0.006692
0.006694
9.599e-05
0.0001545
7.575e-05
0.006752
6.65e-06
7.006e-05
0.0001381
2.914e-05
2.104e-05
2.873e-05
1.224e-06
0.006705
6.951e-05
0.0003005
1.607e-08
1.644e-06
0.0001072
7.935e-06
3.614e-05
2.925e-05
7.294e-06
1.19e-05
0.0001482
6.665e-06
8.056e-06
9.375e-05
5.473e-08
0.006255
4.381e-06
2.855e-07
8.198e-05
2.787e-05
1.513e-06
0.002421
4.305e-06
3.369e-06
0.006423
0.006694
1.034e-05
5.586e-05
1.349e-10
9.746e-06
7.351e-06
1.25e-06
1.271e-05
7.198e-05
0.0001062
0.001619
1.616e-05
0.0002758
2.85e-05
4.605e-05
1.132e-06
6.133e-05
0.005871
2.846e-06
2.699e-05
0.006692
4.228e-05
0.005938
0.006701
1.687e-05
7.482e-05
4.838e-06
0.00669
7.707e-06
0.006697
3.227e-06
9.591e-05
8.56e-05
5.126e-05
6.191e-06
7.87e-06
3.601e-05
1.013e-05
0.002958
0.0009986
1.066e-05
5.279e-06
4.542e-05
4.063e-05
5.17e-07
1.943e-05
1.815e-07
3.407e-05
4.739e-07
1.914e-05
7.983e-06
8.136e-06
3.152e-06
5.609e-05
0.004953
3.711e-05
4.012e-05
8.576e-06
0.001906
4.235e-06
4.345e-05
8.182e-06
4.928e-06
1.442e-05
9.793e-05
2.819e-05
1.971e-05
8.185e-06
4.028e-05
2.145e-07
7.417e-06
0.006604
1.345e-05
3.585e-05
0.002163
4.287e-05
2.731e-05
0.006742
3.906e-05
3.101e-05
0.000641
2.83e-06
2.553e-05
1.094e-05
0.0001015
0.00674
5.293e-05
6.674e-05
0.00566
4.01e-06
9.524e-05
7.368e-05
6.551e-05
4.709e-05
0.0004752
4.255e-06
7.294e-09
2.734e-06
7.631e-06
8.676e-05
1.954e-07
0.001615
8.256e-06
0.006698
9.768e-05
4.946e-06
4.264e-05
4.919e-06
1.836e-06
1.193e-05
0.006699
1.451e-10
4.118e-06
2.506e-05
8.86e-06
3.103e-07
2.102e-05
6.395e-05
1.493e-06
7.846e-06
4.369e-05
1.581e-10
0.0001296
4.154e-06
4.104e-06
7.446e-06
4.093e-06
1.841e-05
2.713e-06
6.079e-06
8.398e-05
1.372e-05
8.701e-06
7.767e-06
4.88e-05
3.254e-09
0.0003041
2.324e-06
0.0001751
8.268e-06
0.006721
0.006692
2.106e-05
2.169e-07
0.0001132
0.0008368
4.886e-06
1.702e-05
0.006698
1.003e-05
7.55e-06
1.744e-05
2.97e-08
2.426e-05
0.0001104
1.665e-14
8.757e-05
9.94e-07
8.576e-05
8.022e-06
1.66e-05
7.819e-06
2.043e-06
7.834e-06
3.494e-05
0.0006018
0.0001159
1.372e-05
7.002e-05
3.029e-05
6.748e-06
0.0001465
1.09e-07
0.0001873
9.014e-05
0.0001856
1.935e-06
1.157e-05
3.515e-05
2.513e-09
3.164e-05
1.427e-05
2.035e-05
9.525e-05
0.0001053
0.006697
7.07e-05
1.637e-05
1.325e-05
2.966e-06
6.108e-07
1.493e-06
0.006684
6.759e-06
4.934e-06
5.042e-05
2.938e-06
6.101e-06
4.165e-05
1.295e-05
0.001854
7.629e-06
2.092e-05
1.192e-05
5.417e-05
0.001556
3.025e-05
0.003831
5.41e-06
3.269e-06
0.0001414
6.67e-05
3.028e-05
0.006487
0.00668
2.505e-05
0.0002137
4.971e-05
5.399e-05
0.002386
0.002127
1.059e-06
7.881e-05
3.712e-05
1.555e-05
8.434e-06
3.174e-06
2.761e-05
8.353e-06
5.261e-05
6.96e-05
0.006683
3.106e-06
6.854e-05
7.49e-06
3.018e-06
2.384e-05
2.288e-05
0.0001048
8.396e-06
2.645e-05
5.531e-09
6.251e-05
6.824e-05
0.0002169
2.144e-05
6.731e-05
7.373e-06
3.89e-09
3.927e-05
4.497e-06
0.006684
6.138e-06
7.73e-07
0.006693
6.975e-07
1.104e-05
2.286e-05
7.957e-06
0.006688
2.021e-05
1.457e-09
0.002355
4.72e-06
2.222e-05
8.157e-06
1.499e-07
4.821e-05
7.588e-05
1.397e-05
1.329e-07
0.0001108
3.603e-05
9.602e-06
4.501e-06
1.659e-06
7.166e-08
2.78e-06
8.295e-05
0.006693
5.412e-06
4.158e-05
2.243e-06
3.457e-06
8.416e-05
8.896e-05
0.006663
8.051e-05
3.441e-05
0.006283
0.0001855
0.006349
9.677e-08
0.0001239
2.329e-07
1.937e-05
7.976e-06
4.527e-06
5.029e-05
6.436e-06
6e-07
1.99e-06
6.756e-05
6.177e-05
9.762e-06
3.404e-05
0.0001487
0.006702
0.0001082
0.0007617
6.66e-05
0.006699
0.0001838
0.006688
5.578e-06
9.497e-05
0.006737
0.006574
6.509e-06
5.323e-05
3.367e-05
7.675e-05
0.006781
8.661e-06
6.629e-05
4.54e-05
7.047e-13
7.743e-06
8.633e-10
7.546e-06
1.055e-05
8.414e-06
5.908e-06
5.099e-05
7.169e-05
8.703e-07
0.0001943
4.896e-07
3.393e-05
1.881e-05
7.107e-06
3.299e-05
0.006689
1.868e-06
6.026e-05
5.05e-08
0.006699
2.872e-06
5.611e-06
8.082e-06
1.796e-05
0.006652
0.006651
0.0001301
5.568e-05
0.0002884
4.826e-05
8.32e-06
5.116e-05
3.191e-06
0.0003804
9.248e-05
8.205e-08
1.034e-05
0.0001452
8.178e-05
6.498e-05
2.492e-05
3.674e-05
4.424e-06
8.376e-06
0.0001211
0.001818
4.225e-05
5.242e-05
7.094e-06
7.801e-06
0.0005855
6.909e-06
0.0003029
8.036e-06
0.0001105
1.963e-05
0.0001585
0.006693
0.0001785
1.633e-05
3.337e-06
6.249e-07
7.565e-05
0.0001026
4.058e-06
8.575e-05
0.006626
1.25e-06
5.289e-05
6.541e-09
2.576e-05
5.783e-08
6.465e-05
0.006695
2.011e-05
1.556e-06
2.643e-05
6.695e-06
1.9e-05
1.308e-05
8.346e-06
8.072e-06
0.0003045
1.858e-06
0.0001607
5.232e-06
2.782e-05
3.234e-06
0.002754
0.002751
7.865e-06
7.549e-06
3.163e-08
4.861e-06
5.776e-06
2.154e-06
2.38e-06
0.0003353
3.695e-05
0.0002525
0.002244
0.006691
0.000221
0.006489
9.885e-09
0.006695
1.709e-07
3.638e-05
6.06e-06
6.752e-06
2.949e-06
0.001417
8.686e-08
3.9e-05
9.134e-07
9.416e-05
4.136e-06
0.00598
5.075e-05
9.705e-06
8.495e-05
1.392e-07
4.809e-06
0.0001045
1.159e-06
7.507e-07
0.0002725
0.006665
4.909e-07
0.001466
0.00676
4.93e-05
3.814e-07
0.006667
1.03e-06
0.006697
1.073e-05
1.05e-05
3.006e-05
1.012e-06
0.006676
0.0001001
4.018e-05
1.505e-05
1.711e-05
3.095e-05
2.982e-05
0.004901
0.006686
1.078e-05
1.356e-10
2.25e-05
7.492e-06
0.0006029
3.635e-09
7.722e-05
4.414e-05
0.002127
1.658e-05
9.338e-05
3.12e-06
0.0004515
6.459e-06
0.0006271
1.336e-05
0.006704
2.246e-06
8.623e-06
7.988e-05
4.783e-07
6.123e-07
6.846e-05
0.006689
1.007e-05
2.978e-06
5.829e-06
2.813e-06
7.473e-06
2.839e-05
0.000502
1.158e-05
1.176e-08
7.976e-06
8.338e-07
6.264e-08
0.001966
3.027e-05
0.006701
1.127e-05
2.258e-06
7.046e-06
0.006696
4.896e-07
0.006694
0.000152
7.575e-05
0.006713
3.252e-05
0.0002038
7.869e-06
2.584e-05
0.0006015
7.752e-06
0.006697
4.746e-07
2.023e-07
5.17e-05
4.615e-05
7.248e-06
0.001222
1.787e-05
0.000123
4.17e-06
8.774e-06
6.36e-05
7.732e-06
3.692e-05
2.343e-05
4.358e-07
0.0002143
1.975e-05
1.145e-05
0.000223
7.871e-06
8.912e-05
6.509e-06
8.179e-06
0.000203
0.001117
1.63e-06
7.429e-05
1.853e-05
1.415e-05
3.199e-06
0.0001098
7.413e-06
7.999e-05
0.006667
7.72e-06
5.547e-06
0.0001906
8.444e-06
0.000438
1.05e-05
0.006705
2.137e-05
7.194e-06
4.281e-05
6.075e-06
5.435e-06
6.021e-06
0.006696
8.346e-06
5.143e-06
8.078e-06
1.705e-05
0.0004029
8.103e-06
8.074e-06
0.006694
0.0001474
9.348e-05
0.001783
6.947e-06
3.014e-05
3.3e-05
4.845e-06
8.2e-05
0.0002197
0.002245
2.867e-05
2.525e-05
0.006606
2.091e-05
4.625e-06
2.895e-06
0.006742
2.211e-05
3.543e-07
4.507e-05
1.339e-05
9.802e-05
8.091e-06
3.396e-06
0.002053
0.00118
7.93e-05
0.0009059
2.838e-05
4.574e-06
0.0001356
8.037e-07
3.372e-05
0.0003844
2.288e-05
4.891e-10
8.698e-10
2.25e-05
7.147e-05
4.758e-05
0.0001868
0.0002016
2.83e-05
0.0001936
2.334e-05
3.102e-05
1.856e-05
8.493e-06
3.459e-07
0.000103
0.0001196
0.003144
1.538e-06
0.0001537
9.665e-05
5.715e-06
4.616e-05
2.963e-06
2.294e-05
4.314e-05
0.006751
3.554e-07
7.451e-06
2.822e-05
2.862e-05
7.827e-05
3.071e-06
1.191e-06
0.0001045
4.385e-05
1.517e-07
3.389e-05
7.137e-06
4.148e-06
0.006639
9.555e-06
1.431e-06
8.149e-06
0.004679
0.0001956
0.0001944
4.691e-06
3.23e-05
0.000246
6.748e-06
0.005449
4.421e-06
7.143e-06
0.0001688
0.0001902
0.004065
7.618e-06
8.136e-08
7.54e-06
2.22e-06
2.601e-08
0.0001777
6.983e-06
0.00142
1.34e-06
1.592e-05
0.0001729
7.555e-05
3.936e-05
1.171e-05
0.0001317
8.051e-06
0.002576
3.328e-06
2.727e-08
3.432e-07
0.0001258
2.578e-05
2.95e-05
1.035e-05
0.001089
0.0001135
9.669e-06
7.915e-05
0.003998
8.238e-06
8.046e-06
8.422e-06
1.118e-05
3.955e-05
1.732e-06
1.909e-05
7.563e-07
1.501e-07
1.693e-08
0.0001618
6.077e-06
3.275e-08
4.839e-05
1.44e-06
7.698e-05
2.616e-05
8.828e-06
5.437e-11
1.759e-05
2.36e-05
0.003126
0.0002898
1.274e-06
0.0001091
0.003751
0.006698
6.694e-05
7.62e-06
0.0002183
5.742e-06
9.201e-08
1.295e-06
0.001038
6.28e-06
0.0001838
6.451e-05
7.714e-06
3.471e-05
0.0002506
7.956e-06
8.042e-05
8.068e-05
3.134e-05
0.006697
1.177e-06
0.0001046
8.038e-06
9.999e-05
7.677e-06
1.166e-05
3.832e-05
6.358e-06
2.164e-05
2.28e-05
8.044e-06
1.516e-06
8.476e-06
9.525e-05
8.781e-05
0.0001036
2.974e-05
4.224e-05
2.032e-07
4.155e-06
0.004913
2.347e-05
7.708e-05
8.342e-06
6.223e-06
0.0007229
1.986e-05
4.314e-05
1.383e-05
0.00302
8.953e-05
0.0001361
3.621e-05
0.0001543
1.135e-05
8.385e-05
1.354e-06
0.0001538
0.0001906
9.477e-06
0.006676
0.0001947
3.989e-05
9.351e-05
3.549e-05
0.006688
0.0001137
4.885e-06
2.527e-06
0.006697
0.000725
0.0001943
1.764e-05
8.859e-06
0.0008467
1.112e-05
6.739e-05
2.379e-07
3.86e-06
5.792e-05
8.426e-06
2.816e-05
0.0006006
8.201e-06
7.942e-08
3.082e-05
1.083e-07
3.656e-06
3.121e-05
3.001e-06
0.003265
0.006666
1.075e-05
6.995e-05
3.27e-06
0.006697
2.026e-05
5.636e-07
8.68e-09
2.318e-05
6.376e-06
0.006291
0.006449
7.973e-06
4.73e-05
0.0001309
2.198e-06
3.841e-05
4.436e-05
0.0001557
0.006705
6.978e-06
1.596e-06
7.537e-06
0.0001642
1.165e-06
0.0001721
2.01e-05
0.00674
3.196e-05
2.178e-06
7.018e-06
5.243e-07
6.316e-05
1.991e-06
1.147e-05
1.551e-05
7.01e-06
4.215e-05
7.456e-05
0.0001289
6.318e-06
5.114e-07
0.004564
0.005174
2.159e-05
5.759e-05
4.126e-07
8.084e-06
2.306e-06
3.607e-05
0.001194
0.005387
6.558e-06
0.006702
7.986e-05
4.404e-08
4.372e-06
0.0001096
7.485e-06
0.0001374
3.52e-07
2.004e-06
0.002024
2.593e-05
3.602e-05
7.54e-06
9.726e-05
1.22e-05
7.686e-05
2.776e-05
3.107e-05
8.76e-05
2.033e-05
8.037e-05
1.428e-07
2.552e-06
8.078e-05
5.44e-05
5.04e-08
2.21e-05
5.983e-06
1.426e-06
6.216e-07
6.844e-06
2.349e-05
7.934e-06
0.0001072
2.914e-05
0.001065
0.0002067
0.006703
7.709e-06
4.131e-05
6.999e-06
5.631e-05
4.34e-05
1.749e-05
3.085e-09
1.806e-06
2.983e-05
8.335e-06
2.448e-06
1.48e-05
0.0006518
9.411e-05
1.074e-05
4.116e-06
7.428e-05
0.0001151
0.0002447
7.383e-05
0.004009
1.042e-05
1.003e-07
7.102e-05
1.832e-06
0.000193
6.191e-05
2.005e-05
0.006722
1.432e-05
9.127e-05
0.0002801
9.914e-07
0.0001468
3.261e-05
9.409e-05
3.008e-05
6.49e-06
1.449e-05
4.252e-06
5.715e-06
5.209e-06
0.006712
0.0001503
8.052e-06
4.48e-07
3.945e-07
1.097e-05
2.859e-05
2.145e-05
0.003212
3.404e-06
2.684e-06
7.067e-06
5.737e-06
8.167e-06
1.603e-05
7.155e-06
1.926e-06
5.498e-06
2.256e-05
1.02e-06
9.813e-08
5.617e-05
5.386e-05
1.385e-08
0.001683
4.67e-05
0.002523
0.006699
5.832e-06
0.002021
1.49e-05
1.015e-05
3.351e-05
1.066e-05
8.044e-06
1.681e-05
8.754e-05
2.704e-06
7.146e-05
0.0001478
2.441e-10
7.674e-05
9.974e-05
0.0003656
6.249e-10
3.022e-05
8.342e-07
3.831e-07
0.003128
2.194e-05
6.389e-06
8.409e-05
4.191e-05
6.241e-07
2.889e-06
2.072e-05
0.0001005
7.756e-05
0.0001178
3.269e-05
0.006701
4.512e-05
4.34e-05
1.719e-05
1.507e-05
7.434e-06
1.685e-07
8.247e-05
0.003713
3.548e-05
9.655e-05
5.461e-05
9.556e-06
5.485e-05
9.737e-07
8.399e-06
1.542e-07
6.871e-06
3.781e-06
6.735e-06
1.033e-05
9.764e-05
3.326e-05
1.808e-05
6.608e-10
3.691e-05
8.02e-06
8.219e-06
0.006586
4.175e-06
4.228e-05
0.0002164
8.717e-05
7.812e-06
2.663e-05
4.185e-06
3.556e-05
3.033e-05
1.084e-07
0.006605
1.562e-08
3.073e-05
7.305e-05
1.943e-05
3.797e-07
0.005188
4.986e-05
5.445e-05
2.553e-05
2.479e-07
1.904e-05
2.847e-05
3.09e-06
0.0001117
8.378e-06
0.006762
0.006744
7.001e-06
1.961e-05
2.015e-05
1.685e-05
7.658e-06
0.006688
1.595e-05
4.96e-06
1.107e-05
0.002505
0.003123
9.14e-06
2.525e-05
6.611e-06
6.23e-08
2.884e-07
0.006121
3.79e-06
2.238e-08
9.121e-05
7.26e-06
4.243e-06
0.001893
8.003e-05
1.82e-05
5.685e-05
0.0001231
0.006654
0.006616
0.006638
0.00637
0.0007876
0.0001671
2.344e-05
1.805e-06
5.262e-05
7.838e-06
5.138e-05
1.898e-05
0.006092
5.815e-05
0.000153
1.005e-06
2.375e-05
8.054e-07
2.645e-05
8.632e-06
8.257e-06
1.099e-05
7.024e-06
0.000363
8.075e-06
6.196e-10
1.56e-06
5.339e-06
2.776e-06
6.779e-06
0.005621
6.506e-10
8.885e-05
1.137e-06
4.667e-05
0.0001122
3.661e-09
0.006696
0.0001314
2.911e-05
0.00507
3.387e-05
5.427e-05
2.581e-05
6.354e-05
1.607e-06
4.712e-05
3.501e-05
0.006633
5.895e-06
7.128e-06
3.932e-06
0.0001453
1.014e-05
0.006715
0.003189
2.382e-05
8.76e-06
2.155e-05
0.0004672
4.175e-05
2.569e-05
7.989e-05
1.64e-06
8.267e-06
3.698e-05
0.0001768
0.0001566
0.0001148
0.0001695
1.275e-08
1.932e-06
0.004958
1.636e-08
0.004652
0.006572
3.945e-05
0.001419
1.316e-06
0.0001063
1.913e-06
0.0001047
5.773e-06
0.006697
0.0003186
2.525e-05
7.251e-06
0.0001472
0.003504
5.708e-05
1.039e-08
1.652e-05
0.006702
1.285e-05
1.487e-05
5.881e-10
0.001932
3.714e-05
1.64e-05
0.0001031
0.0004365
4.695e-05
4.789e-06
2.535e-08
5.084e-06
8.094e-06
4.704e-12
0.005157
6.965e-06
2.115e-05
7.101e-06
0.006696
7.533e-06
2.535e-08
8.076e-09
4.374e-07
0.0001351
1.668e-05
7.27e-08
0.0004374
8.643e-05
0.00669
4.421e-05
2.223e-05
3.115e-05
3.955e-05
5.169e-07
5.156e-05
2.95e-05
1.055e-05
0.006706
0.00224
3.498e-06
2.526e-05
6.518e-05
3.512e-07
2.967e-05
0.0001014
8.655e-05
1.099e-05
5.476e-06
8.221e-05
0.005301
7.579e-06
9.891e-06
6.948e-06
2.633e-05
7.444e-06
3.976e-06
1.149e-06
1.667e-08
4.663e-06
6.87e-11
4.71e-06
0.0002803
1.121e-06
0.0002857
7.974e-06
3.497e-07
0.004733
5.433e-09
0.006705
4.035e-05
5.419e-06
1.636e-06
1.011e-05
4.051e-06
3.017e-05
5.031e-06
0.006649
1.614e-09
8.451e-06
0.002102
7.075e-05
1.998e-05
9.412e-09
5.723e-06
1.707e-09
2.785e-05
8.18e-07
5.054e-07
2.041e-05
1.819e-05
8.067e-06
1.238e-05
0.006673
8.493e-05
8.755e-06
4.932e-05
9.118e-06
0.0001227
0.00014
7.938e-06
7.35e-06
2.54e-06
7.252e-06
0.003804
7.378e-06
2.776e-05
8.82e-06
2.954e-05
0.002607
6.448e-05
1.019e-05
3.036e-05
3.235e-05
1.384e-08
0.00213
0.00215
6.848e-05
7.15e-06
1.649e-05
0.0001829
2.859e-05
0.006497
0.0002191
8.433e-06
0.006334
3.551e-05
5.76e-07
0.0001181
6.444e-05
9.899e-05
1.027e-07
4.471e-08
2.494e-06
6.163e-05
6.528e-06
9.59e-05
3.626e-05
5.46e-05
2.288e-05
2.987e-06
0.0001659
1.558e-07
7.423e-06
6.95e-07
4.913e-06
3.809e-05
8.453e-09
0.0001858
7.846e-06
1.368e-05
0.002625
8.788e-06
0.000108
0.001285
1.637e-05
8.405e-07
8.374e-05
5.491e-06
1.015e-05
1.097e-08
2.09e-09
0.0001797
5.325e-12
0.0007328
3.923e-05
9.153e-05
0.0001409
1.984e-05
0.006705
5.85e-06
3.977e-07
5.074e-06
1.294e-05
4.086e-05
1.389e-05
5.799e-06
6.834e-05
9.197e-05
2.53e-05
0.0001512
1.446e-05
3.623e-05
0.005123
6.372e-05
6.829e-06
0.0067
0.000517
2.166e-06
0.006697
2.298e-05
5.797e-05
7.2e-06
3.784e-05
6.07e-06
0.001389
5.401e-05
2.974e-05
1.667e-06
1.039e-08
1.046e-06
8.463e-06
0.006687
1.898e-06
0.006714
0.0001895
4.229e-05
4.488e-05
2.828e-06
6.945e-05
8.121e-06
2.978e-05
6.315e-07
2.039e-05
0.0008259
0.0001
3.526e-05
0.006674
6.445e-05
0.006696
2.49e-06
1.542e-05
4.391e-06
3.831e-05
0.006655
3.398e-05
7.68e-06
1.278e-05
1.706e-08
2.992e-05
1.007e-06
0.000383
3.897e-05
9.429e-05
4.025e-05
3.637e-05
1.134e-05
0.0001973
6.46e-06
0.0001259
3.525e-06
7.978e-06
0.006631
0.00675
0.001438
0.0003216
3.88e-06
1.549e-06
4.374e-05
0.001482
8.262e-06
6.595e-06
8.023e-06
0.006698
4.627e-06
2.543e-05
5.882e-06
0.002337
2.241e-09
1.799e-05
6.507e-06
0.003213
0.0005786
1.383e-06
0.0002522
8.146e-06
1.837e-06
1.657e-06
3.038e-05
4.65e-05
0.006698
4.455e-06
2.27e-05
7.105e-06
0.0001147
1.116e-05
4.163e-05
0.0001039
5.699e-06
4.076e-07
0.006699
4.434e-05
9.484e-06
1.398e-05
4.697e-06
0.006702
1.995e-05
1.857e-05
9.642e-05
4.012e-05
2.621e-05
2.634e-06
0.0001645
1.148e-05
1.786e-05
0.0001947
5.379e-05
2.324e-05
0.00515
4.504e-06
2.726e-06
9.328e-05
5.962e-05
1.488e-05
1.166e-05
3.565e-05
0.006695
0.0002273
0.0002666
0.003239
5.399e-08
8.861e-05
0.006698
0.0007084
8.194e-06
1.118e-08
0.006698
9.419e-05
3.276e-08
8.014e-06
3.651e-05
3.507e-05
3.987e-07
3.294e-05
5.225e-06
8.333e-06
1.644e-09
1.779e-05
0.001251
8.808e-05
1.431e-05
8.791e-05
0.006685
0.0002067
6.379e-05
0.0001354
6.056e-06
6.823e-06
5.041e-08
7.487e-05
2.864e-05
3.177e-09
2.552e-05
3.196e-06
0.000109
3.531e-05
7.555e-05
9.066e-07
1.921e-07
0.00669
2.712e-05
6.245e-06
0.006698
1.019e-05
9.338e-05
8.247e-06
0.0002604
8.293e-06
8.389e-06
6.461e-05
1.632e-05
0.004916
0.001666
9.272e-05
5.892e-05
0.006781
2.075e-05
0.0002092
3.498e-07
0.0002025
7.504e-05
3.82e-06
8.353e-06
5.935e-05
6.946e-06
0.006712
2.919e-07
8.009e-06
3.833e-07
8.392e-06
6.127e-05
1.277e-06
1.795e-05
3.312e-05
1.532e-06
3.396e-05
1.56e-06
0.006699
0.00669
0.0001216
3.046e-05
0.006685
6.683e-09
7.317e-06
1.428e-06
1.746e-07
1.883e-05
6.942e-05
0.005068
7.416e-09
0.0008832
5.338e-06
0.006753
1.127e-05
8.879e-06
0.0001293
8.613e-05
8.283e-06
0.0001149
2.049e-06
0.006662
6.21e-05
2.636e-07
8.9e-07
1.482e-05
0.0002941
0.0001615
2.19e-05
0.006699
1.05e-05
4.609e-05
0.0001697
0.0001962
7.841e-05
3.516e-06
0.005913
0.006714
1.582e-05
5.241e-07
0.0002042
1.611e-07
0.006701
5.01e-07
8.816e-05
6.322e-06
0.006701
7.106e-05
8.502e-06
1.945e-06
2.782e-05
8.799e-05
2.284e-06
0.006718
3.91e-07
0.00479
2.741e-05
5.64e-08
0.001178
3.142e-05
4.204e-05
2.657e-07
1.622e-07
6.751e-06
7.929e-05
0.006662
2.018e-05
9.822e-05
0.006701
3.675e-05
5.007e-06
2.328e-05
0.006775
0.0001976
6.804e-05
0.0001016
6.404e-06
9.15e-05
0.004169
2.036e-06
5.417e-06
8.392e-06
0.0004538
0.006697
0.006706
0.0008782
2.32e-05
6.441e-05
8.257e-06
2.756e-06
2.915e-07
5.688e-06
3.903e-09
1e-06
0.001425
3.101e-06
2.538e-05
6.124e-06
0.0001154
7.008e-05
1.447e-05
4.148e-07
2.58e-05
8.193e-08
5.355e-06
0.0003522
8.774e-05
2.509e-06
7.293e-06
1.132e-05
0.000174
1.909e-05
2.958e-05
1.135e-06
0.00415
6.872e-05
3.438e-05
1.697e-05
4.898e-06
2.919e-05
3.153e-06
1.118e-05
0.006666
3.106e-08
6.675e-05
0.00676
4.572e-06
0.006696
3.078e-07
5.407e-05
0.001491
3.197e-05
7.123e-06
0.006707
2.818e-05
3.117e-05
3.703e-07
0.000651
1.094e-05
7.363e-06
6.6e-05
0.006692
1.212e-06
0.0001815
0.0005692
1.284e-05
5.598e-05
8.298e-06
4.845e-08
8.711e-06
3.313e-05
1.845e-05
7.457e-06
3.513e-06
0.006701
0.0002752
3.604e-06
8.255e-06
5.984e-05
0.006701
1.3e-08
8.054e-06
1.093e-05
5.506e-05
8.74e-05
2.185e-05
0.006669
0.0004529
4.897e-05
6.74e-05
2.61e-05
6.907e-06
7.268e-06
3.09e-05
6.526e-06
6.681e-06
4.91e-05
4.507e-05
5.609e-05
1.189e-05
2.095e-05
3.095e-05
0.006701
3.001e-05
0.0009921
0.0001695
4.145e-05
7.775e-05
3.346e-07
9.356e-05
1.403e-08
1.951e-05
1.359e-05
0.002245
0.006692
5.847e-05
1.403e-05
1.091e-06
1.728e-05
2.419e-05
7.462e-06
5.814e-07
7.786e-06
2.188e-05
2.892e-05
3.444e-06
8.017e-06
1.094e-05
7.774e-05
8.269e-06
4.808e-05
2.565e-06
2.361e-05
2.592e-05
0.0002107
8.033e-06
0.006694
4.337e-05
0.0002862
0.006691
7.628e-05
8.288e-06
0.0003036
1.807e-12
7.178e-06
3.836e-06
0.006698
8.712e-06
5.133e-05
0.003018
1.367e-05
1.034e-05
2.552e-06
3.313e-05
3.495e-06
0.006698
2.315e-05
0.006717
7.791e-05
3.725e-05
2.44e-06
4.237e-05
3.44e-06
6.151e-12
0.006606
0.006694
1.053e-05
5.429e-06
8.489e-06
0.0001372
6.101e-06
8.211e-06
3.793e-05
0.0001441
0.001316
3.397e-06
1.485e-06
1.444e-05
0.0001018
0.00669
7.809e-06
4.963e-05
7.105e-06
7.834e-06
7.797e-05
0.0006812
2.627e-06
1.635e-05
0.0002849
1.318e-05
3.411e-05
8.151e-05
0.006707
0.006353
7.462e-06
4.938e-07
1.709e-05
3.242e-05
0.0001102
0.0003188
8.054e-06
2.183e-05
0.006632
5.021e-06
1.305e-05
5.534e-07
1.439e-05
2.118e-05
0.006684
7.732e-06
7.009e-06
1.096e-06
4.598e-06
7.009e-06
2.167e-05
7.852e-06
5.743e-06
7.957e-06
8.08e-06
9.151e-07
6.575e-05
0.002044
4.365e-05
5.825e-05
4.24e-08
0.0004984
0.0001862
8.571e-06
1.227e-05
0.000161
2.255e-06
4.408e-05
6.007e-07
7.279e-05
9.374e-07
1.833e-05
6.571e-05
2.647e-05
5.492e-07
0.0001927
2.673e-06
2.044e-08
0.005031
1.909e-06
4.149e-06
8.824e-07
1.671e-05
7.669e-06
5.314e-05
4.076e-05
8.372e-06
3.213e-05
2.967e-05
1.51e-05
0.0001023
0.0001162
0.0001746
0.0001142
1.266e-05
0.000146
6.405e-05
9.32e-07
3.44e-05
2.25e-07
8.283e-06
7.675e-06
0.006657
3.426e-05
7.345e-05
1.13e-05
3.721e-05
6.555e-06
3.923e-05
4.471e-06
0.0001033
1.814e-05
7.559e-05
3.44e-05
7.734e-05
0.0006783
8.73e-05
0.0001093
1.697e-05
8.358e-05
3.757e-05
1.778e-05
7.518e-06
0.0001622
5.311e-06
1.977e-05
4.192e-10
2.661e-05
4.092e-05
6.842e-05
2.313e-05
9.45e-05
2.344e-06
0.004113
0.002269
0.005527
0.0001411
8.244e-06
1.366e-05
0.0001911
4.847e-06
0.0001477
4.819e-05
7.202e-10
7.448e-06
8.666e-07
6.306e-06
7.018e-05
7.271e-06
5.921e-07
0.0005995
3.082e-07
0.006697
1.003e-05
8.236e-05
1.257e-05
4.794e-05
0.006684
0.006681
4.581e-05
6.48e-05
0.0001104
1.094e-06
8.06e-06
0.006678
0.006697
8.973e-06
0.0002156
3.685e-07
4.671e-07
0.005832
3.618e-05
2.176e-05
1.821e-06
2.736e-05
1.199e-06
8.086e-06
0.0001893