/*--------------------------------*- C++ -*----------------------------------*\
  =========                 |
  \\      /  F ield         | OpenFOAM: The Open Source CFD Toolbox
   \\    /   O peration     | Website:  https://openfoam.org
    \\  /    A nd           | Version:  8
     \\/     M anipulation  |
\*---------------------------------------------------------------------------*/
FoamFile
{
    version     2.0;
    format      ascii;
    class       volScalarField;
    location    "20";
    object      omega;
}
// * * * * * * * * * * * * * * * * * * * * * * * * * * * * * * * * * * * * * //

dimensions      [0 0 -1 0 0 0 0];

internalField   nonuniform List<scalar> 
127143
(
2.183e+06
4.105e+06
4.682e+06
1.997e+06
1.676e+05
2.021e+06
6.622e+04
1.157e+05
1.848e+05
2.697e+04
9.739e+04
1.521e+05
5.509e+06
1.69e+06
121.2
5798
5.655e+05
2.04
12.35
4045
62.63
4782
0.1285
149.9
5259
624.8
1828
2017
1271
0.9687
245.5
638
4415
469.1
0.05834
4315
55.61
5.018
103.5
728.8
12.33
2.242
1.397
7.844e+05
2.047
459.5
1212
61.64
130.3
117.8
4890
0.02866
53.75
0.4096
0.02097
249.9
0.02096
0.4102
0.02292
0.4055
0.9259
16.33
35.45
0.02211
645.7
0.9659
0.07217
42.22
42.06
0.06891
177.4
1808
40.37
0.02291
0.0218
1950
0.0245
71.77
246.7
0.02222
1055
3614
325
595.2
48.99
68.12
76.62
2470
0.7987
416
0.02377
0.5952
233.2
62.67
188.7
0.6135
1.982
316.9
79.28
0.07086
0.02221
121.8
1869
2.317
68.29
82.06
41.15
0.06913
4.008
0.02133
118.6
2496
108.5
32.85
0.02183
1.356
0.02482
0.0218
0.0243
1.649e+04
0.02134
288.3
12.93
0.2235
1075
755
27.52
0.02542
144.7
241.2
119
199.5
19.58
71.5
6.42e+04
118.6
0.06684
37.25
530.4
0.05997
0.2103
0.02355
31.2
18.1
51.64
63.85
5909
0.02213
200.4
2625
4.623
108.9
4.076
0.1146
41.19
49.93
0.41
275.3
61.89
425.5
156.9
5338
0.02383
119.4
552.3
606
87.74
1.505
1600
0.03006
142.2
18.1
1.779
7.483
0.2051
28.86
56.77
144.3
124.8
0.03624
7.467
0.0373
29.4
28.77
242.8
15.61
0.189
35.05
137.4
0.03596
89.8
191.8
0.06011
131.6
1.17e+05
24.43
0.01956
0.01949
1.612e+04
0.02205
0.02182
0.03008
0.2153
54.41
6.339e+05
59.14
0.06314
6.889
0.794
0.02182
0.2379
37.98
0.02184
1609
132.4
1.428e+04
373
7.213
145.5
0.06347
46.04
0.02185
108.8
43.05
413.4
166.3
426.6
4.857
111.9
53.97
69.22
0.03702
35.67
1.178e+04
68.99
0.1133
119.8
2.561e+05
0.02182
66.16
180.8
582
35.99
272.1
12.89
1.344e+04
64.87
1762
9734
0.08272
12.03
609.6
8.856
36.86
171.8
4.066
0.02533
1139
3.643
0.09076
23.04
0.03037
0.5606
0.02338
33.84
598.5
142.4
53.71
1.901
4.689
454.8
0.2033
64.51
66.86
22.11
83.65
107.9
93.57
0.3456
3.671
0.04693
1.831
2.28
0.02179
0.0218
1.09e+05
143.7
0.02184
105.2
0.03778
3.862
0.3941
0.113
2.434
0.02218
6.733
215.9
85.86
36.64
4.104
324.6
0.786
0.6825
1.243
490.3
26.12
6.854
0.02186
3.816
9.633
45.59
222.6
309.7
0.03797
0.02181
235.3
8.048
317.6
0.3161
0.7549
0.1197
189.4
0.03313
8.877
245.1
13.42
0.03857
76.93
204.7
48.13
31.02
0.0218
0.05719
0.01957
0.0195
0.1116
3.869
1.777
31.04
159.7
0.05809
7.214
39.76
75.03
27.21
104.9
260.8
133.5
313.1
187.7
273.1
5.495
28.48
83.08
0.03355
241.8
36.83
48.8
0.02448
204.5
60.23
29.82
0.7407
110.9
115.2
0.02193
0.02203
1.045
423.7
0.3829
4.596
0.03334
447.2
124.9
0.03405
0.1211
197.7
1.066e+04
70.79
0.3237
1.114
727.1
237.1
0.7776
0.02468
1760
0.04973
697.8
25.66
2.966
0.02229
0.4242
107.9
158.1
136
234.9
0.44
198
0.03325
0.02987
602
0.02185
53.08
28.58
0.05154
6.942
68.05
17.81
0.02222
107.9
11.46
303.6
0.2125
66.89
11.09
186.8
103.5
467.7
5.054
45.46
84.65
613.1
152.1
0.06382
54.65
0.1101
1.168
0.1313
537.8
0.07785
0.02116
138.3
29.38
0.3772
24.58
0.02192
8.093
277.8
0.02822
0.02216
0.02173
102
0.06783
4.643
0.02632
313.9
0.02188
50.04
1.071
37.99
74.19
206.3
5.88
456.8
0.0497
47.9
358.8
447.6
54.19
3.62
15.99
63.38
6.518
13.14
74.1
0.1601
0.0226
52.29
234.6
0.02079
59.13
0.5833
0.2235
7.647
0.05378
0.02029
45.82
0.5394
83.41
24.41
918.2
47.39
355.2
312.2
9.322
24.52
16.72
0.02171
340
0.02365
152.9
67.92
62.74
65.49
1.986e+05
116.4
10.74
0.1286
20.14
0.02176
886
0.02267
35.65
22.31
2.882e+05
1.486e+04
4.817e+04
0.02194
240.3
100.4
0.02181
57.61
16.62
80.02
2.589
75.53
208.1
59.05
791.9
0.1378
31.02
9525
61.92
316.1
115.6
0.02268
4.236
0.1809
5.454
0.02395
361.9
3210
138.6
0.01972
52.22
0.1289
236.8
11.2
2395
4.139
0.02386
71.08
7.321
0.02082
0.7815
4.163
185.8
110.3
238.1
184.1
25.1
9.125
31.4
56.65
138.3
0.02242
604.5
134.7
321.7
22.39
44.24
0.02213
0.02207
0.08356
260.4
29.05
0.02184
0.02719
5.185
126.6
65.31
9.305
245.2
436.8
1.973
0.02372
0.02134
131.2
72.19
20.06
0.03
1770
16.28
182.4
0.3207
451.8
0.02185
66.83
26.88
2.75
0.0238
98.55
23.08
2149
0.02027
38.24
369
0.02172
6.93
0.02186
72.39
16.86
0.02178
285
179
307.8
157.6
24.08
274.1
237.7
39.8
93.79
193.2
106.2
29.36
49.19
405.1
0.02599
252
0.02179
22.8
0.02592
30.13
0.02116
0.02184
0.5054
45.24
96.42
0.02135
0.02117
109.3
2539
296.7
292.3
45.25
4.575
70.2
12.06
73.31
150.4
764.1
0.02137
332.5
67.3
0.6867
1.899
0.02416
0.02714
11.58
437.8
16.72
1066
0.0258
0.03421
122.7
342.3
0.02966
591.7
0.1861
0.1358
180.5
3.457
61.2
0.1724
4.946e+05
151
54.35
48.04
143.8
235.9
418.2
360.3
0.02731
125.1
57.46
52.83
0.02122
89.03
0.6722
0.5549
0.0197
0.0212
564
0.1288
220.2
195.2
29.52
3.815
1.505
352.7
0.1578
150.2
0.02169
0.0209
15.98
0.1158
405.7
0.475
407.6
45.32
88.92
0.1989
0.6937
0.03051
313.3
0.05405
181.8
6.986e+04
15.17
29.27
66.97
0.02476
30.21
114.8
661
3.749
11.89
73.21
2274
103.7
40.57
17.09
123.4
37.87
9.579
27.21
0.4353
1.067e+06
0.6609
0.02964
41.6
17.57
67.46
0.02156
36.88
5.151
65.08
0.03644
1141
149
441.6
0.0366
368.4
38.91
312.5
211.8
0.03123
60.99
112
240.2
39.44
0.02214
39.75
79.39
0.0222
7.07
1.123
221.3
115.7
0.6692
15.22
536
130.8
0.01935
61.01
29.01
653.8
300.7
0.4508
56.75
183.3
0.01942
79.9
178
23.97
8635
23.42
138.9
84.24
32.06
2.265
0.02193
7.981e+05
132.2
147.1
220.3
59.65
115.1
92.23
140.2
0.02132
5.016
2.31
0.03197
139.4
152.6
41.99
12.83
0.02049
67.2
29.44
0.0217
0.02044
1.902
17.97
45.3
92.08
65.47
3655
3.417
0.3692
0.02124
99.89
66.56
213.8
404.8
1.219
0.04804
0.02251
3.068
1886
0.02126
0.1837
170.9
28.69
582.3
0.02301
29.1
31.44
0.02182
309
0.02121
25.62
1486
310.4
15.37
943.8
0.02321
242
0.193
362.4
78.2
429.4
3090
0.4456
0.8027
2.65
1370
0.02181
2.496
202.8
694.3
57.67
931.6
0.04634
0.1709
131.6
610
1843
127.9
1.985e+04
406.4
3653
185.9
189
4.177
1594
0.02441
54.3
0.02549
0.02338
40.79
0.0289
144.7
23.6
30.65
0.8642
0.04439
319.6
43.63
0.02228
1.767
77.55
0.04236
308
2163
26.82
5.842
123
10.53
121.8
0.02173
62.67
183.1
0.02424
258.3
128.9
13.53
0.0207
1.782
1.227
7118
4.555
2186
54.39
13.43
33.57
479.8
415.1
0.02161
487.2
1.149
0.02316
4.946
7972
1.588
692.9
6.034
1.693
791.6
3333
146
0.02363
0.02184
6.229
8.74
57.53
295.3
69.79
621
189.6
0.1265
608.4
0.06398
1173
0.02161
66.19
662.8
30.85
161.1
74.13
0.02179
0.02232
156.5
0.2857
39.19
133.1
91.96
56.51
12.59
167.9
289.2
1089
47.01
277.1
200.9
6.301
64.27
134.1
124.3
874.3
3382
76.56
0.02156
0.02143
54.37
46.91
0.8133
0.02093
13.8
70.27
0.549
135.1
10.14
124.5
12.36
0.02223
0.4436
0.5816
1295
473.5
30.51
0.6327
2.201
422.5
141.8
15.39
38.33
16.71
73
81.22
794.1
0.02425
487.9
541.6
27.9
143.5
134.6
0.02189
656.1
1005
0.02093
0.02155
78.49
86.23
9597
69.33
52.38
120.5
109.9
0.4856
0.5241
0.02488
153.1
42.18
81.95
2.074
279.4
62.63
0.02391
851.6
61.93
0.02172
348.9
0.02263
0.02169
10.45
0.1401
2324
0.02158
304.1
0.02182
177.2
0.1142
1.779
3.417
249.7
184.6
169.9
20.39
0.05022
0.04026
29.23
99.77
107.9
134
1044
160.5
1005
169.3
154.1
650.3
181.7
599.5
0.3065
3.454
0.03126
328.6
39.77
397.5
0.0526
53.6
36.24
43.74
35.33
95.67
0.8071
386.6
12.38
43.82
50.68
283.7
78.85
0.02075
12.91
343.8
0.02277
258.9
560.1
0.02082
1.887
47.17
0.03944
0.3327
8.013
60.61
0.2414
0.01992
230.2
158.6
0.02178
0.2146
0.03693
69.25
201.1
4.077
0.04015
131.3
2287
249
137.7
43
1560
0.06177
79.3
0.02178
102.4
12.05
248.5
35.26
150.4
818.4
0.02197
9517
229.4
251.4
28.4
900.4
15.58
3.014
506.3
35.12
0.0409
1.917e+04
42.54
142.6
356.2
89.93
36.03
47.18
431.9
44.57
70.37
16.81
205.3
166
1.674
1767
0.1305
50.98
0.1246
253.8
0.01984
0.02166
10.05
1627
69.3
0.2178
750.9
165.8
0.02181
2588
52.3
12.62
2067
2.749
47.24
1.927e+05
1.764
622.6
38.12
39.04
923.5
161.2
417.2
9.163
335.9
0.08774
0.622
4.693
130.7
4.101
51.77
49.36
753.7
56.84
0.3646
51.1
2.027
1.214
5.209
1682
0.05128
1737
318.7
73.82
73.13
0.02181
28.67
109.2
1.53
330.9
342
498.4
0.02136
194.1
131.3
98.3
877.5
57.11
4.745
115.4
0.02238
87.27
71.35
2934
226.1
0.09127
37.81
0.02257
2356
998.9
63.83
0.7965
3.92
0.02081
0.01984
60.04
29.89
15.56
0.1224
0.042
0.04552
20.96
111.3
5.38
334.4
129.6
946.4
1.385
432.5
36.77
111.6
0.01988
244.5
36.85
23.9
1129
4.162
11.67
94.88
29.67
70.02
2958
1.022
132.6
54.27
12.15
2.544
113.7
2454
0.2234
110.4
0.0212
146
655.4
0.02037
769
15.24
78.33
200.9
0.02139
1.589
1.034e+04
0.0219
111
146.1
45.07
1000
0.9015
2.323
80.25
561.3
85.85
277.2
0.0812
34.24
236.5
3368
154.4
111.1
0.0217
155.2
4.748
354.4
163.5
28.79
118.5
0.02211
1.488
72.47
0.02404
45.5
0.02128
2168
46.6
1557
121
35.98
771.3
95.38
86.99
147
4866
144.6
107.1
25.48
65.13
65.1
0.02211
30.5
0.02294
35.75
0.02201
48.34
0.02148
242.4
43.19
0.0208
0.02172
80.03
0.2241
238.5
0.1361
0.02023
8.695
108.2
0.03964
5.394e+04
351.8
5304
87.48
19.25
156.4
90.03
31.9
0.3174
774.8
28.99
268.3
531.1
113.4
46.37
10.04
0.02156
4827
132.6
677.6
0.02181
1032
41.29
158.6
51.37
0.01977
0.01975
0.374
0.9943
5.699
22.08
31.56
1.11
2.413
0.6962
1.988
514.1
25.56
2.461
86.75
2.623
613.2
224.6
33.96
170.3
60.85
0.02238
39.41
37.84
1006
41.24
0.03957
25.07
1.066
74.21
29.01
716.5
0.7589
0.02174
50.88
10.63
1442
443.2
0.8157
133.2
232.6
0.1673
0.01973
485.9
235.8
5370
0.08982
1789
36.11
0.02155
266
303.3
19.05
0.244
32.98
86.58
26.78
98.11
37.85
149
0.05104
40.56
279
294
0.04297
0.04289
194.1
18.77
8669
92.31
338.9
366.6
4853
0.7837
116.1
0.02769
0.02199
0.02151
61.03
0.02186
1353
0.02173
3947
0.5006
17.5
47.4
262.5
0.07319
1686
0.3194
177.8
64.94
888.9
0.0227
225.9
146.5
54.5
500.1
125.9
81.07
519.5
626.5
0.05503
0.02061
577
0.06101
0.02016
0.4843
476.6
0.02061
657.3
0.02185
59.68
23.35
32.7
131.5
0.02098
68.8
285.6
55.32
0.109
5.672
0.2829
0.02178
0.02123
78.44
2.06e+04
8.672
44.16
0.02667
1459
0.4906
0.1113
0.04848
2.511
114.8
245
0.02784
39.6
0.02352
89.97
0.02217
0.8861
28.41
27.65
22.62
337.9
183.7
0.02122
24.4
546.7
109.4
955.1
434.9
7.39
0.03848
4.736
8376
36
440.3
723.2
0.05673
0.2611
0.02164
169.4
85.28
72.9
0.02181
451.4
0.02176
0.2555
89.24
0.02152
6.272
0.4602
13.49
35.58
0.33
167
0.0219
152.5
486.8
2.154
12.68
83.41
0.04587
12.35
28.24
75.93
17.82
46.51
301.5
137.3
230.3
555.9
0.0966
0.3267
18.72
0.04083
117.2
82.87
0.1629
38.98
0.02663
0.1435
245.8
1.229
11.87
95.59
1076
74.8
922
0.8513
0.02066
907
63.34
0.1268
186
0.03149
23.08
0.02223
17.45
832.6
37.78
11.92
27.74
69.96
0.02187
30.55
0.7112
8.388
1207
0.02799
47.64
518.9
0.02161
0.02861
30.29
0.05762
46.77
2.434
1.939
16.11
0.7519
36.94
0.06061
0.8897
140.5
0.02076
0.2842
1206
845
0.02098
138.4
1128
4.4
509.5
34.19
80.94
822.4
0.04992
0.09028
32.28
0.02805
542
14.1
45.97
748.5
275.5
0.02738
291.6
1.419e+04
4.755e+04
48.58
33.69
249.4
0.717
58.49
5.949
32.25
267.1
54.38
56.63
30.16
869.4
84.3
1.157
0.02183
411.3
1.16
107.3
0.4901
0.05736
62.48
48.4
4.536
0.02054
187.8
441.1
7.251
418.5
53.34
1108
130.1
0.03087
251.2
677.2
65.07
51.44
1469
0.01939
2595
120.3
80.68
0.02574
60.48
61.65
302.1
355.8
46.47
412.8
0.02573
7.144
95.77
0.06388
50.72
0.02191
209.5
2419
74.73
412.3
5431
50.7
1073
0.0797
326.3
5.659
40.14
0.04771
8.319
16.11
50.5
57.17
0.0475
39.24
3355
5627
58.61
2.541
1.018
1.65
0.02237
0.02922
108.1
0.5002
0.02239
37.8
63.84
135.4
62.47
5.018
72.35
11.18
628
955
1690
0.1172
44.49
2619
22.17
253.9
2.53
6.645
34.36
3.376e+04
9.247
7.107
0.03529
0.06866
751.8
52.43
0.02181
0.02196
38.22
388.8
45.25
49.96
1951
27.55
0.02684
368.2
43.15
36.79
612.6
0.4978
1.938
51.56
163.7
0.8398
189.2
0.02189
334.2
24.37
393.6
0.7582
106.1
556
2.069
385.8
9.723
265.5
68.7
252.5
0.1629
35.41
67.06
89.51
367.2
38.2
1344
146.1
0.02181
68.29
2.528
314.4
27.38
0.1843
10.72
0.1491
854
0.03807
45.49
26.65
46.69
49.16
29.72
0.236
918
0.2814
0.02762
220.1
0.02092
51.84
0.03904
0.8757
23.41
0.02152
0.3874
107.3
199.9
0.02178
0.025
46.3
9.67
293.9
0.2126
21.45
45.58
326
228
1.005
34.25
7.266
0.1005
53.17
2315
14.85
1861
195.9
17.84
1029
0.02182
0.02062
2.309
2.393
5279
0.02181
10.8
250.4
1.497e+04
146.9
250.6
0.01961
0.01918
182.8
203.5
28.28
39.16
0.04128
2.015
1.16
0.02222
364.6
68.67
37.63
27.95
681.6
0.306
3.104
0.01994
5.435
66.19
341.2
157.6
169.8
170.5
93.75
104.7
57.38
343.5
184.5
0.09139
55.57
709.9
0.02602
0.02338
114.9
39.4
1069
3.433
98.19
244.3
0.1173
0.02178
8.868
0.02211
93.31
1955
50.29
0.1865
23.87
0.0567
497.4
260.6
0.05582
6.659
5.022
44
44.99
17.06
179.8
135.9
90.45
58.53
8.445
33.94
429.6
48.69
149.5
37.6
3859
62.13
125.1
186.6
14.7
3.839
7.982
1115
0.518
268.9
0.02328
52.73
0.02214
68.13
15.87
948.7
144.2
0.1297
310.5
3069
433.8
81.4
30.24
314.9
1561
0.2013
44.86
17.3
1964
129.7
81.74
0.2651
0.4428
0.02182
26.17
2553
2.608
152.3
49.75
0.1378
1091
0.01986
15.73
0.5821
42.68
196.8
0.2414
2.261
24.62
0.05223
39.39
12.31
1015
163.8
120.1
0.02156
56.51
105.1
414.1
757.2
17.79
8.854
144.7
0.02186
123.9
94.72
7.667
16.24
34.88
825.5
313.7
90.76
67.16
0.6913
6.264
793.1
3.449
0.1122
1320
0.05752
0.6807
0.02188
0.02199
63.81
0.02236
189.1
19.8
1.019
29.25
308
903.2
118.1
70.8
125.7
45.82
8480
99.8
117.4
0.7488
3307
25.49
758.9
1201
0.03522
249.9
291.2
2.202
37.45
385
222.4
265.6
75.34
105.6
0.03038
7.115
0.02206
1.051
36.12
65.05
15.31
43.44
1676
44.14
0.02237
340.4
113.1
2.561
22.65
111.5
82.34
256.1
397.2
921.1
125
105
93.46
112.2
136.8
0.1092
4137
386.9
38.93
3.355
0.02255
122.7
345.1
58.06
2.142
960.9
394.1
115.8
2.337
113.9
1884
0.02253
1271
16.32
0.04846
10.01
187.6
0.02182
258.3
38.94
5.745
4692
5.733
158.8
3322
92.57
102.7
0.01986
0.01979
97.1
11.02
3.358
654.8
56.1
0.02151
811.4
339.8
63.21
0.02252
0.02238
64.16
3.616
94.07
1.122e+04
209.1
0.02402
244.1
2431
0.1204
250
141
0.06836
0.9737
261.7
0.8245
36.17
0.01966
0.01944
0.01946
0.01962
0.08353
27.61
7.989
109.5
3.403
74.41
84.47
898.2
0.02042
179.8
53.75
267.7
630.8
343.6
48.11
29.95
141
53.18
67.85
0.1102
42.87
6286
70.6
696.5
0.8316
27.08
0.02178
3447
126
130.9
3.638
0.03708
2857
0.0218
51.01
587
0.02867
225.4
56.35
35.46
42.22
236.7
0.05659
203.6
0.02069
5.886
99.83
124.5
67.29
16.59
0.02165
0.0219
0.3313
81.74
248
0.361
47.95
233
1.823
226
142.6
5.385
44.39
27
84.23
0.2125
3371
0.9451
0.02179
1194
0.02179
0.0227
0.3606
0.07948
264.9
54.21
403.1
64.22
136.3
0.02188
0.1008
63.78
83.73
52.54
0.03811
0.3631
9888
969.7
0.02213
1597
969.2
9042
0.05781
5.377
13.78
0.1065
0.02552
4.22
96.88
7173
0.1339
272.6
3.644e+04
0.02179
155.2
783.5
54.02
0.02179
326.3
9022
4787
1123
0.4883
13.31
2436
0.05803
72.76
0.02154
46.49
981
6.617
250.5
1088
0.2556
41.67
16.89
0.02225
0.03314
200.4
386.2
3.032
490.2
194.3
1.017
33.39
53.34
79.39
57.33
0.0218
49.54
70.96
84.95
148.1
25.77
190.9
81.36
1433
1985
2.038e+04
217.7
0.0552
159.3
0.02751
344.7
301
0.02181
2.211e+04
0.02221
79.32
1247
555
61.57
127.8
119.7
40.15
0.01965
9355
31.85
0.04699
28.62
58.2
2287
853
3279
22.98
168.1
916.5
35.05
0.1129
37.31
1593
0.02089
61.08
28.08
38.88
25.29
37.27
24.22
661.2
52.32
48.99
978.9
0.04198
619.6
0.127
20.97
128.1
0.02623
0.142
18.45
426.3
384.6
1376
0.04567
0.02217
2.58
96.37
1622
53.86
8.866
0.01932
0.03405
392.1
0.01977
125.6
135.8
0.0884
194.2
38.94
2062
1467
862.6
0.04101
229.4
79.57
269
3.617
11.65
996.2
66.2
307.6
104.4
544.5
85.89
1.966
1889
28.43
37.57
58.95
0.04099
23.61
0.1852
0.02223
10.69
152.9
125.7
70.58
20.5
2687
4211
41.87
3.156e+04
0.1863
0.3699
0.03734
0.06637
9.635
0.02221
39.02
1231
117.7
361.9
1.37
16.25
36.84
162
35.53
534
46.1
2437
268
0.02445
36.97
38.76
0.02204
0.04249
479.7
0.02186
291.6
210.3
101.2
3.572
615.9
0.07461
0.6546
0.05097
240.6
1447
151.5
25.69
0.02144
91.05
0.02164
0.3378
123.4
2.583
969
183.4
269.4
6.911
2359
1.063
0.1614
71.69
135.2
0.02084
2.579
0.02185
325.7
343.1
113.6
61.42
0.02168
242.3
170
160.7
1384
338.4
251.3
0.0246
1.022
1.994
2.151
374.1
15.59
0.09726
5.039
0.1653
23.98
126.7
0.02072
0.02043
0.02278
0.04221
0.2949
217.8
197.3
0.0221
94.16
12.59
61.77
0.02194
135.8
0.1139
454.7
0.05793
6200
12.19
509.1
0.03492
0.1003
873.3
0.03154
60.16
62.29
77.6
148.6
188.7
0.02182
124.1
86.18
46.42
66.13
78.62
4.094
68.46
26.56
730.6
0.02154
46.71
18.44
2002
0.2004
0.02209
473.6
594.7
68.22
57.52
6.638
718.9
0.05329
15.71
62.95
46.55
37.84
4.548
0.02436
10.46
1069
104
36.38
1111
3.048
3.746
0.02168
0.03085
0.1434
0.03607
6969
152.6
0.02195
0.02369
40.42
4341
0.02194
74.01
830.1
60.66
3.448
290.8
1004
189.2
43.63
279.5
2702
542.4
0.02228
128.9
15.73
148
0.02139
0.3637
84.42
45
137.7
3365
694.9
1.318
229.8
2429
8.451
79.38
63.21
1.775
0.9434
423.3
1598
0.02158
383.5
49.31
0.02194
787.6
51.78
3.787
0.07983
32.8
243.4
155.3
12.16
0.0219
0.02201
1.776
36.62
0.02021
2.325
0.02775
304.8
37.58
49.44
181.7
445.6
1.705
46.84
0.02155
1046
15.38
1128
205.8
0.1136
432.5
5.288
306.1
820.9
10.29
766.9
0.02081
0.02125
97.85
0.07609
0.0214
2006
85.69
93.55
413.6
11.62
113.2
0.0242
1945
0.04327
28.04
0.02042
0.2305
73.81
69.47
130.2
33.04
27.35
135.3
0.02048
132.1
345.8
400
1094
0.1474
27.59
7.673
0.02195
99.81
233.5
0.1809
0.05243
31.77
844.4
0.02135
0.02165
10.93
277.3
46.78
1433
0.02206
395
138.2
50.66
0.02208
0.09257
333.6
68.88
250.6
74.86
26.17
0.02054
178.5
0.02579
382.6
1369
0.07191
60.7
25.14
410.9
615.2
125.6
0.07143
0.02048
112.2
0.2419
0.02167
428.6
85
9.509
0.02052
0.08641
0.1163
0.03055
45.48
86.37
0.0218
281.8
28.63
105.4
0.02942
0.02191
0.02168
0.05393
9.081
2.213
238.6
1040
1415
26.65
1968
640
0.02521
964.9
151.1
301.1
27.15
0.1876
1.992
478.4
559.1
522.1
117.1
0.06343
93.14
71.51
43.06
7.963
0.2422
74.63
0.2566
96.95
0.02925
104.1
5.829
3.946
0.5871
581.7
1610
905.5
0.02062
4647
105.4
0.02014
105.5
0.02182
307.1
173.5
0.1031
473.7
30.75
0.0223
1.786
6.621
1141
0.02371
0.2527
863
2.626
0.02158
590.9
55.73
0.03471
0.2398
2.953
73.85
2699
221.2
173
14.16
85.38
1.725
0.02173
0.05093
61.46
42.76
177
0.02207
2322
97.38
17.37
36.95
101.2
163
0.0202
0.06464
163
161.1
0.05744
49.35
252.9
6.633
3.977
6.73
20.5
0.0487
19.11
15.83
9.118
6.219
0.02205
227.2
0.1317
56.83
3.234
2.186
338.2
138.6
5902
10.96
0.9931
0.07207
0.02123
3.039
12.6
632.8
1067
66.59
165.9
280.6
39.9
0.8574
156.6
204.4
733.8
74.52
0.05163
415.3
1.12
400.5
7.085
18.52
29.96
98.42
0.02179
50.08
0.2443
0.02165
0.2796
411.1
1.076
4.358e+04
234.6
132.8
0.02168
30.25
253.3
0.03817
58.73
78.57
200.1
114.8
302.3
0.02188
215.9
0.02074
2.18
325.1
51.72
3.089
212.3
3e+04
0.0219
0.02175
15.84
31.7
365.3
0.9913
100.1
266.4
5.235
56.46
0.02219
165.8
507.6
0.1247
64.92
0.02157
24.65
0.06946
46.51
163.7
147.9
0.282
81.77
13.85
0.02851
124.4
260.7
0.2376
0.02154
0.02376
166.9
996.1
10.32
6.602
85.25
10.08
72.77
8.278
0.01939
0.4001
1.2
1639
1619
309.4
0.02135
224.8
57.17
224.3
143.7
1100
3.116
45.47
42.63
28.51
274.2
699.8
0.8676
0.0551
9.189
0.03782
3013
0.02371
48.27
205.9
15.15
55.74
238.6
128.1
461.7
35.51
194.6
11.78
2.627
452.9
1587
58.12
888.4
1557
0.0218
983.3
123.3
388.4
581.4
41.49
1.371
40.32
36.19
5.879
0.05005
28.6
50.4
29.04
33.24
83.72
1.055
1.204
0.7068
1016
113.5
1408
42.39
229.4
0.02028
378.5
166.2
497
28.8
970.8
323.3
125.7
0.1061
917.6
0.09342
52.82
101.5
0.07233
0.7017
76.49
10.35
32.42
108.4
9.294
75.59
55.4
1077
8.854
6502
0.04789
4.578
43.59
11.32
0.05774
240.5
0.02181
0.02256
0.02178
64.31
63.67
71.78
0.4596
0.1591
45.79
0.05047
5381
510.1
968.9
99.74
0.09375
276.3
612.3
0.08228
312.6
0.02187
24.58
20.49
68.13
1.866
0.0213
0.02188
212
22.63
0.04578
1039
66.97
0.02096
0.02182
27.84
0.03657
180.9
1053
0.02471
3.266
122.4
239.1
470.6
1087
9.414
0.1845
20.31
126.1
0.314
339.1
9.05
2.36
244.8
70.01
3.152e+04
0.03093
25.08
560.6
1150
0.02184
62.83
0.0218
12.79
2.486
11.38
41.59
120.4
53.13
0.2369
397.9
84.09
198.5
284.7
279.5
80.1
1.267
30.47
336.4
48.08
118.6
0.02121
922.5
991.9
421.7
19.5
3.991
441.1
224.1
0.4632
0.1429
7757
112.2
0.04367
0.02894
0.04552
155.7
274.4
2.644
964.2
5.157
0.0332
44.4
26.59
42.87
181.7
5606
638.8
36.28
217.8
57.24
123.9
138.8
72.57
18.27
15.79
434.7
55.07
0.4219
51.01
242.8
0.1959
17.83
1.059
4.128
1073
81.82
0.02204
841.8
8.391
1175
143
0.02154
0.1342
270.2
0.03409
63.98
342.7
683.6
14.53
0.02304
0.2529
30.24
53.72
0.09138
154
0.02078
226.4
73.41
151.8
46.91
151
158.1
138.2
832
0.4074
38.79
0.02183
1449
0.04733
0.02644
48.84
0.02213
32.96
54.94
1.927e+04
0.02196
66.88
32.19
185.5
150.4
0.2487
106.4
43.35
130.7
622.4
100.5
0.1209
0.02259
58.07
341
13.99
36.97
215.2
176.1
2.918
0.02116
29.67
70.79
2230
18.74
113.1
3.651
85.16
0.02151
8.135
960
394.2
0.02198
0.2808
146.5
0.01995
33.42
437.8
30.93
0.02195
0.02201
15.59
0.02471
0.02014
0.02174
17.03
238.9
391
0.365
60.4
4.684
0.8048
0.02225
63.95
22.28
0.04967
0.9794
385
2.161
0.02896
216
128.5
10.07
922.6
2463
0.02847
30.09
11.86
181.5
147
346.2
0.02194
19.83
1010
2.404
47.8
0.488
531.4
115.1
75.4
5.624
1169
0.08491
2954
94.48
0.02876
0.03507
0.02001
45.13
85.57
702.7
393.4
2960
0.1304
0.01941
36.62
42.85
0.1541
0.02217
307.3
20.93
435.2
128.4
90.29
31.2
14.07
9.544
103.7
0.01987
884.9
184.2
64.13
5.357
0.1032
0.02245
50.91
38.95
131.6
1364
17
0.04932
23.56
0.7593
0.09703
0.02227
307.9
76.32
422.1
299.2
86.88
1.018
55.06
51.98
3.148
34.02
0.507
0.1929
0.02192
29.58
1907
1.022
0.8932
3676
0.3409
0.02169
4.219
0.03255
0.02203
46.04
0.0195
0.01944
3.074
0.02012
97.22
1323
187.2
4.39
0.2053
0.02113
0.02197
4.439
88.17
12.52
992.1
44.86
0.029
41.77
10.71
606.8
0.2638
0.02198
3.387
55.33
0.02203
0.02136
29.24
89.28
0.06595
0.03457
174.4
0.02131
0.4125
0.02185
5604
0.222
197.2
41.15
0.03244
0.1818
9.878
46.5
235.6
36.26
34.09
27.34
0.02215
971.8
54.07
43.03
0.02191
59.04
42.83
182.5
117.5
0.36
140.5
4.563
0.2133
218.6
0.02205
2.753e+04
5.333
1372
0.02197
85.07
0.02186
0.1067
1.95
418.2
48.14
53.6
2.431
0.08407
1033
0.09775
146.7
968.7
6.951
0.2033
0.03801
233.5
0.02164
1.702
65.27
5.929
5.439
0.0222
1419
0.03773
41.41
323.7
19.95
219
624.7
53.25
353
42.43
1.085
58.68
1.736
0.02179
0.02181
590.6
35.23
264.7
34.96
31.7
0.0218
28.2
0.02181
0.02199
0.03618
469.7
0.1633
4.134
0.02904
93.85
0.3261
159.3
107.1
1671
0.028
245.6
28.76
37.65
0.237
39.51
0.02187
39.74
0.2423
58.91
4.647
0.03557
102.8
2142
55.01
511.9
85.84
1846
435.7
2.374
13.91
1252
7.556
3234
152.5
80.99
157.7
93.73
119.7
103.6
207.6
0.03549
59.44
0.05769
148.9
1255
33.1
141.7
264.3
48.02
77.44
0.03029
97.52
104.3
3658
30.11
0.02332
67.96
30.04
59.31
0.05015
21.71
65.05
97.86
0.7282
445.7
13.61
305.6
84.67
234.6
71.93
39.77
106.2
0.02754
653.1
7.045
0.02593
38.06
54.41
104.7
309.7
355.6
0.02202
75.53
46.03
0.1405
3.833
50.05
3581
310
0.02089
0.02223
1.883
122.3
25.48
0.02162
19.5
123.4
173.6
953.1
0.02104
108.2
874.6
65.51
2753
183
210.8
187.5
44.83
6.761
0.02537
119.2
208.7
27.14
128.5
0.9939
58.79
0.02205
0.04511
117
79.78
84.96
244.6
52.42
0.02217
409.3
196.7
0.336
114.3
3860
826.8
0.03326
0.2056
0.02752
33.7
365.2
291.9
435.8
40.62
128.7
0.02182
158.6
1.495
35.2
350.5
0.719
993.5
19.04
693.3
0.04201
63.31
602.3
0.02179
62.58
37.16
94.92
43.11
0.0219
0.022
0.03538
107
0.02218
26.25
686.9
0.204
69.86
130.7
0.04766
27.93
58.45
0.1873
504.8
59.56
1104
168.3
0.02208
391.6
685.4
0.02172
1092
6.304
14.09
14.11
208.9
38.24
29.06
50.69
30.69
0.02194
36.78
0.02178
0.06738
506.7
56.33
19.5
16.86
1.416
162.1
0.02191
0.01976
0.09113
37.05
89.2
27.84
994.8
1.507
0.1192
462.6
0.6908
38.61
0.02137
186.7
283.7
46.99
52.28
252.3
40.11
101.4
92.25
2.376
0.02469
79.59
58.89
54.44
276.1
1155
244.5
0.0215
44.18
94.99
45.61
4637
0.02182
205.4
80.19
29.24
45.75
93.92
2862
64.55
63.58
293.3
3321
5.644
61.49
799.3
5.591
0.02169
142.7
60.53
93.49
42.42
44.73
10.55
0.03453
248
41.46
464.6
8.803
361.1
522.5
0.02175
286.3
52.97
184.2
2.131
0.01944
148
106.9
9.089
26.94
0.02135
55.06
35.29
2.754
29.31
36.08
255.2
58.55
207.2
167.7
0.01993
40.06
57.81
113.8
269.1
47.73
16.29
87.14
45.28
15.11
58.22
205
942.4
346.3
221.1
5671
9.961
0.1136
1.294e+05
178.7
662.5
0.03197
648
1427
120.4
12.32
0.02323
9.909
0.02181
62.63
17.41
2.626
2.239
50.47
368.6
11.82
1.269e+04
47.27
131
197.3
2196
271.9
105.3
75.51
0.159
83.46
51.27
1097
32.11
0.7214
0.9246
271.4
0.8933
0.022
0.02177
17.4
19.32
0.04958
0.02019
0.02234
122
520.6
417.9
0.02155
0.02543
27.88
0.01974
0.01986
289.6
0.04361
56.55
341.9
0.05863
378.3
4.02
149.7
9.119
101.2
0.08108
43.09
74.12
3.942e+04
100.6
125.2
349.3
564.5
1.814
0.02538
42.85
344.2
0.02178
3.026
133.3
323.1
952.2
53.99
134.3
387.5
0.0269
51.17
346.7
118.5
39.02
85.12
0.05935
14.54
33.63
337.3
61.83
87.62
0.03604
444.9
72.9
0.03226
81.26
0.05681
86.03
0.02944
2890
1118
0.03348
141.5
58.71
0.1904
881.9
192.8
0.02338
615.3
40.17
96.04
592.8
0.04675
0.4153
3816
37.62
161.1
2.955
80.5
1.699
7.46
77.9
0.05005
1.322
179.5
42.58
84.15
56.31
130.4
2.856
41.2
274.9
114.9
3.032
14.87
0.0218
0.1624
221
52.42
0.01946
1.7
15.21
6.972
81.01
33.09
75.93
0.1779
181.8
39.97
0.09118
27.85
168.4
0.164
349.8
0.05591
311.5
37.98
0.3946
0.08936
50.48
311.6
163.2
0.02106
158.2
63.38
112.6
0.06365
0.02238
27.51
138.8
442.1
7.012
30.1
59.83
183.1
1.765
1.665
1280
6.911
1.365
3524
207.4
34.38
63.7
0.02204
2.44e+04
0.0227
102.9
50.02
38.45
61.33
41.08
1815
15.71
5.471
0.515
1.108e+04
280.5
48.06
8460
1067
279.7
48.84
0.1469
0.6313
0.4117
29.97
0.02187
176.7
1175
0.06039
22.36
2.966
65.4
53.8
249.4
2313
561.8
100.5
0.01944
0.01914
0.02179
228.5
2396
0.6802
0.0216
0.2263
821.8
3.912
2557
62.78
0.02274
6824
0.01949
1.187
30.55
0.05095
37.76
0.4802
1.04
0.09519
635.3
64.92
26.42
53.39
8021
42.4
404.5
97.78
48.08
0.02213
5220
233.6
476.7
66.41
217.7
34.29
246.9
0.1023
29.08
138.4
49.27
166.4
0.02734
636.6
90.43
460.6
8.57
0.1078
0.1808
0.02219
119.3
111.8
96.92
53.38
25.69
809.2
32.43
34.55
27.11
123.5
0.2222
313
48.24
36.13
1.955
0.07581
4.629
0.201
28.5
1.702
210
7.649
217.2
26.03
6.915
145.7
0.4627
725.3
27.78
1.498
0.1256
2039
96.71
83.09
29.84
1194
0.02204
597.2
302.7
31.95
43.08
32.84
27.97
261.8
66.12
107.5
61.31
41.11
2680
0.04516
0.02187
0.02211
52.23
235.3
1.932
1413
444.8
1602
714.4
44.57
722.5
1049
5.732
261.2
423
30.94
1094
0.02175
138.4
280.8
266.7
0.02157
266.8
13.94
108.5
130.8
65.68
0.02204
0.3428
129.2
694.9
0.02093
165.2
3.142
0.5278
1.76e+04
0.03022
23.42
47.2
134.3
188.2
0.4598
24.05
6.419
218.2
341.8
285.5
0.01951
51.07
3.847e+04
0.02891
0.02418
477.1
793.5
169.9
92.62
0.07473
27.24
179.2
17.46
15.82
88.35
0.02004
41.22
8.446
0.2793
0.02369
86.58
0.02135
6514
43.57
4.612
10.58
2455
0.02264
384.1
0.02001
0.02216
188.8
0.5552
135.6
14.87
0.06224
157.1
90.84
77.38
7.838
88.76
229.8
424.1
219.7
289.9
570.3
947.5
158.9
27.25
208.2
144.5
88.69
0.5485
0.0212
0.0212
1597
33.94
102.2
2442
0.02228
557.3
0.508
0.02039
51.08
8557
6.065
247.4
3563
0.02206
276.3
135.6
63.06
41.8
26.17
2140
366.6
0.02176
2654
560.9
0.08111
0.02536
259
438.7
233.7
289
61.4
50.05
0.02179
225.4
0.02124
259.5
284.3
2354
0.01946
0.01916
0.2358
31.78
0.03753
39.96
1.312
35.56
98.73
30.21
113.7
0.07663
0.03005
1019
1211
33.37
395.7
0.04962
110.2
0.02156
63.12
1882
89.21
566.4
805.5
273.2
200.2
1.156
32.39
114.4
0.02854
0.02217
0.02184
49.85
93.42
264
2848
166.6
0.02726
102.9
318.9
172.5
4143
15.95
98.63
534.2
20.75
0.07428
1.798
5.819
3.334
0.1006
439.3
48.77
19.65
39.95
280.6
0.2404
0.01976
993.9
38.61
48.7
79.63
1207
38.19
0.02086
84.03
107.4
93.31
3.575
41.76
77.68
4.605
114.5
1.81
0.05493
87.6
0.05637
0.1133
0.2407
722.7
11.42
518.1
87.51
25.02
132.1
0.03484
272.6
163.5
0.5347
42.76
15.31
3500
0.03832
0.02599
269.2
99.24
82.7
53.63
0.505
524.7
0.06855
0.02184
9.07
224.7
0.02771
1.983
12.6
0.02174
1058
0.06825
28.44
38.67
16.51
0.6983
295.4
300.7
2.375
0.07669
0.02225
81.98
26.35
66.93
63.08
0.02154
0.0202
0.02178
41.17
96.92
81.03
0.04338
425.4
43.21
277.5
23.12
350.1
0.3739
0.0371
1069
0.0224
172.3
96.07
0.0385
55.92
35.89
165.7
236.6
156.1
60.47
2.958
0.04957
2396
279.2
472.3
0.2447
1.318
0.02187
1331
0.02174
49.38
702.1
0.02298
3.394
9.634
223.6
0.06812
57.18
6210
30.99
0.02169
61.95
177
81.97
69.44
65.6
127.3
1722
12.15
0.02073
0.02484
6686
10.45
213.8
4.756
24.38
0.02121
0.02193
1.657
3895
669.2
306.4
167.8
0.876
181.9
693.2
26.02
133.1
0.0219
333.6
6.07
152.6
81.66
68.49
0.02161
366.7
56.12
2246
7547
16.24
7.241
1.089
163.8
0.02314
17.9
2437
188.3
176.1
350.8
1208
47.52
99.01
0.2094
433
484.7
1132
59.78
0.03076
780.4
782.2
0.02178
202.9
471
166.8
290.6
119.9
12.03
71.35
20.76
0.02772
54.24
0.02211
42.97
0.2157
1788
0.2588
2919
20.39
266.9
39.29
45.76
227.1
8.874
120.1
1077
37.2
39.03
35.52
4.467
76.78
214.1
19.59
0.02748
11.19
8.822
50.26
128.9
134
642.9
150.3
0.02819
162.4
1265
65.28
33.49
379.5
0.04515
136.7
0.02169
97.41
3.35e+04
1.966e+04
519.8
83.69
20.25
0.02112
0.04082
86.46
47.5
70.8
3.127
0.02223
56.21
220.3
5.878
84.55
0.02182
450.6
195.2
3276
5.419
14.33
31.88
247.1
0.03477
414.5
5681
0.9846
8.168
0.4034
184.7
3552
3.625
51.41
5.063
125.9
0.0275
126.1
0.01989
941.1
69.86
14.34
194.4
3.43
289.5
60.13
1.87
0.08091
0.02199
0.0217
20.06
59.38
47.84
24.42
28.62
53.27
2799
1.365
101.9
0.3426
0.02208
471.6
0.02231
50.29
371.1
3.451
65.13
30.43
2748
226.8
59.31
144.2
26.17
150.4
0.1788
989.1
0.02178
4807
872.3
34.43
55.54
0.02224
83.96
84.63
146.9
1.161
105.3
770
1029
0.02176
50.03
0.02194
0.02178
646.3
0.02926
58.28
8.053
1407
98.58
91.38
61.51
116.2
1.365
109.1
1.687
3.994
9.031
0.02527
60.97
0.07507
1414
50.76
24.86
0.4023
13.89
178.2
881.6
168.7
27.49
7.432
0.4134
134.2
48.75
310.4
98.09
0.6275
60.2
91.33
34.17
34.93
4.55
58.1
6.753
159.2
3188
33.44
0.206
0.0391
596.2
29.66
0.0218
355.1
0.4442
1216
240.3
0.01967
96.53
215.3
211.8
372.8
339
29.01
146.2
0.03899
608.1
260.2
54.77
147.1
38.88
109
0.02231
0.02395
0.02224
153.1
0.27
0.02197
0.1157
2.108e+04
0.02194
154.3
436.4
1.09
270
195.7
529.1
838.7
24.24
86.2
88.51
2.585e+04
0.02174
230.1
12.43
37
1.987
5.051
3.177
1.506
1664
0.04491
0.02907
1.28
1128
1208
281
477.6
0.04905
5262
0.02172
98.21
202.4
52.75
0.0218
0.7416
31.79
313.7
200.9
255.3
2.568
616.1
1876
9.802
28.74
0.02789
4.273
5.849
0.5178
1.165
9.668
186.4
20.33
0.3376
140.2
269.1
0.662
1.953
142
0.02246