/*--------------------------------*- C++ -*----------------------------------*\
  =========                 |
  \\      /  F ield         | OpenFOAM: The Open Source CFD Toolbox
   \\    /   O peration     | Website:  https://openfoam.org
    \\  /    A nd           | Version:  8
     \\/     M anipulation  |
\*---------------------------------------------------------------------------*/
FoamFile
{
    version     2.0;
    format      ascii;
    class       surfaceScalarField;
    location    "20";
    object      phi;
}
// * * * * * * * * * * * * * * * * * * * * * * * * * * * * * * * * * * * * * //

dimensions      [0 3 -1 0 0 0 0];

internalField   nonuniform List<scalar> 
189008
(
1.803e-07
-1.805e-07
3.111e-08
-3.114e-08
-2.226e-08
2.222e-08
-2.929e-08
2.922e-08
-1.171e-05
1.17e-05
-2.832e-08
2.823e-08
6.967e-05
-6.967e-05
-2.187e-05
2.187e-05
-1.249e-05
1.248e-05
-3.202e-05
3.202e-05
0.0001049
-0.0001049
-3.083e-05
3.082e-05
-9.187e-08
9.181e-08
3.001e-08
-3.011e-08
-0.0004789
0.0004321
4.681e-05
1.674e-05
-1.933e-05
2.59e-06
-8.453e-08
8.433e-08
0.03918
-0.0162
-0.02298
0.007889
-0.004849
-0.00304
-9.097e-06
1.173e-05
-2.636e-06
-0.003907
0.003389
0.0005187
-7.549e-06
3.939e-06
3.61e-06
-0.003292
0.009133
-0.005841
2.415e-05
0.0007278
-0.0007519
-4.62e-06
-2.928e-06
-0.000772
0.0003873
0.0003847
0.0003412
-0.0003831
4.185e-05
0.0003769
-3.565e-05
0.0002898
-0.0002101
-7.967e-05
0.02227
-0.03919
0.01691
-6.254e-05
-0.0003293
0.0003919
-0.0002537
-0.0005183
0.0002205
-0.0001627
-5.781e-05
0.0004303
-0.000245
-0.0001853
0.007672
0.01126
-0.01894
5.76e-05
0.0001629
-2.067e-05
-0.0002207
0.0002414
-0.006016
0.00719
-0.001174
-5.595e-05
0.0007527
-0.0006968
-0.0001033
0.000122
-1.871e-05
0.004802
0.003087
0.002823
-0.005559
0.002736
0.0008038
-0.006649
0.005845
2.555e-07
-2.557e-07
0.001135
0.03804
0.0002446
0.0001856
0.0001713
0.0001185
0.0009686
-0.0008846
-8.393e-05
-0.0009667
0.001179
-0.000212
-3.405e-05
0.0006242
-0.0005901
5.693e-06
1.104e-05
-0.0161
-0.02697
0.04307
0.0009773
0.0004294
-0.001407
-0.01587
0.01251
0.003368
1.082
-0.1293
-0.9527
0.001302
-0.001008
-0.0002939
-0.145
1.227
0.01055
-0.00663
-0.003922
-0.3149
0.02032
0.2946
-0.008406
-0.007467
-0.002751
0.0017
0.001051
0.002887
-0.004703
0.001816
-0.0001828
0.001689
-0.001506
-0.8103
0.9555
-0.1452
0.0004373
-0.001019
0.0005816
-0.0005421
-0.002277
0.00282
-0.0335
0.02535
0.008152
0.002129
-0.001751
-0.000378
0.0005892
0.00154
-1.289
0.4846
0.8048
-9.58e-05
-0.0004821
0.0005779
-0.0001392
-0.0002439
0.001116
0.003812
-0.004929
-0.1178
-0.1972
-0.2749
0.5178
-0.2429
0.0001502
0.0002266
-0.05239
0.09466
-0.04227
0.001179
-0.001115
-6.441e-05
0.0006313
0.0006707
0.1606
-0.6345
0.4739
-0.0003015
0.0002138
8.767e-05
-9.779e-07
-8.119e-06
-0.0003088
-0.0003928
0.0007016
2.112e-05
9.305e-05
-0.0001142
-0.000446
0.0007251
-0.0002791
0.0006684
-0.001047
0.000379
-0.0007539
0.001469
-0.0007146
-0.0004049
0.0001319
0.000273
-0.002588
0.002046
-0.0007632
0.001292
-0.0005291
0.1792
-0.01833
-0.1609
-0.009209
-0.003241
0.01245
-0.0005516
0.001617
-0.001065
-0.002159
-0.001749
-0.001896
0.001961
-6.531e-05
0.02156
0.01755
-0.03912
0.004942
-0.002119
0.0004924
-0.0004971
4.702e-06
0.001382
0.000323
-0.001705
-0.02288
-0.01062
0.6867
-0.5261
-2.002e-05
-0.0009467
-0.0001663
-0.0005398
0.0007061
0.0038
-0.004631
0.0008311
-0.0002278
0.0008962
0.001856
-0.0004735
-0.00103
0.001477
-0.0004469
-1.009
-0.2805
-0.0007413
0.0004325
0.0003087
-1.154
0.8751
0.2785
-0.0003435
-0.0001355
-0.0002942
-0.0001107
0.003033
-0.0004884
-0.002545
0.002172
-0.002609
0.0004367
-0.2141
0.09888
0.1152
0.0004688
0.002233
-0.002702
-0.1093
0.06163
0.04771
0.1658
-0.4407
0.02485
-0.07724
-6.767e-07
5.342e-07
1.419e-07
-1.251
0.09759
-0.0001518
-0.0002926
0.0004444
-0.000329
-0.0005098
0.0008388
0.01227
-0.01046
-0.001807
-0.0001825
-0.000119
0.0006731
-0.0006133
-5.984e-05
0.002755
0.001195
-0.00395
0.0877
-0.1049
0.01718
0.0029
-0.001144
-0.001755
-0.0008324
0.0006578
0.0001746
-0.00105
0.000313
0.0007372
-0.001371
0.000548
0.0008234
-0.000324
-0.001199
0.001523
0.0004896
0.0006897
1.878e-07
-1.369e-07
-5.122e-08
-0.001126
7.612e-05
-0.006527
0.03612
-0.02959
0.00166
-0.002984
0.001324
-0.0001323
0.0001547
-2.243e-05
0.03092
-0.05479
0.02387
0.007407
0.0005433
-0.007951
-0.05194
-0.03964
0.09158
0.002769
-0.003262
0.0004931
0.006107
-0.003319
-0.002788
0.001592
-0.0006148
0.002263
-0.0007899
-0.001473
-0.0002203
-0.000119
0.0003394
-0.02776
-0.7825
-0.001683
0.0003116
0.0005385
-0.0008438
0.0003054
0.002247
-0.003323
0.001076
0.001244
-0.0003338
-0.0009101
0.004616
-0.008207
0.003591
-0.008569
0.001561
0.007009
-0.0002552
0.0002538
1.354e-06
-0.0006508
0.0002048
0.006918
0.003634
0.0007404
-0.0005898
-0.0001506
0.0003206
0.0006481
0.0002369
-0.0004679
0.000231
-0.0003727
0.0007077
-0.000335
-9.303e-05
9.303e-05
0.1875
-0.008308
-0.001338
0.0003939
0.0009437
0.0002424
-0.0005554
0.000313
-0.0003499
0.0007873
0.00034
-0.000113
-0.000227
-0.0003757
0.001251
-0.0008749
-0.001515
0.001155
0.0003599
-0.04611
0.03416
0.01195
-1.566e-05
-2.809e-05
4.375e-05
0.003954
0.002153
-0.00397
0.001712
0.002258
-0.002176
0.0007301
0.001446
1.039
-1.215
0.1761
0.000116
-0.0001047
-1.133e-05
-0.001265
0.0006409
0.0006243
0.001608
0.001291
-0.000554
0.001111
-0.0005574
0.1224
-0.1489
0.02646
-0.001449
-0.0007273
-0.1152
-0.005894
0.1211
-1.515e-05
-7.942e-05
9.457e-05
4.454e-05
7.144e-05
-0.0003279
-0.0005045
-0.001358
0.004245
0.00117
-0.009624
0.008454
0.0002848
0.001888
0.0006966
-0.0006725
-0.006383
0.08701
-0.08062
0.0001356
-0.001144
0.001008
0.0009874
0.0001743
-0.001162
-0.04381
0.03728
0.001737
-0.001987
0.0002507
1.033e-07
-0.0008548
-0.003378
0.004232
-1.475
1.203
0.2719
-1.457
1.188
0.2692
2.49e-06
-4.673e-07
-2.023e-06
-0.1675
0.1346
0.03289
0.2065
-0.03827
-0.1682
-0.06071
0.04704
0.01366
0.02688
-0.07074
0.04386
-0.0002242
0.0002036
7.345e-08
-7.366e-08
0.0003583
-0.001172
0.0008139
0.02298
-0.006385
-0.0166
0.002422
-0.0005425
-0.001879
0.05474
-0.03247
-0.2087
-0.005371
-0.0009006
-0.0188
0.0197
0.0004633
-0.000253
-0.0002104
-0.05752
0.1991
-0.1416
-0.0006593
-0.0008561
-1.057e-05
0.00045
-0.0004394
3.255e-06
-3.753e-06
4.974e-07
4.146e-05
-3.765e-05
-3.803e-06
0.003056
-0.001852
-0.001204
0.0004579
-0.001468
0.00101
0.01985
0.003131
-0.001062
0.0003663
0.0006961
-0.4715
0.2207
0.2508
0.001087
0.0001567
-0.00117
0.00164
-0.0004702
0.0002249
0.0001397
-0.0003646
5.48e-05
-4.564e-05
-9.157e-06
-0.0003693
0.0006117
-1.435e-05
-0.006002
-8.667e-05
9.226e-05
-5.593e-06
-0.002452
0.002115
0.0003374
0.003544
-0.001026
-0.002518
-0.04183
-0.07334
0.005129
-0.004013
4.264e-07
-3.423e-07
-8.458e-08
0.002093
0.00145
-0.02085
0.01654
0.004304
-0.0004353
-0.0009023
1.482e-06
-1.482e-06
0.2282
-0.02174
0.002005
-0.0003643
-0.001641
0.001702
-0.000715
0.0006838
-0.001447
0.0007629
-0.0003653
0.0002689
9.645e-05
0.0003996
0.0003409
0.0008038
0.0005588
-0.001363
-4.236e-07
-2.533e-07
0.0008977
0.0004383
-0.001336
-0.0003706
0.0003282
4.237e-05
-8.576e-06
8.503e-06
0.198
-0.9702
0.7721
-0.001121
-0.002434
0.003555
-0.0001821
0.0004925
-0.0003104
0.001936
-0.0008978
-0.001038
0.004652
-0.00144
-0.003212
-0.0001868
0.00087
-0.0006831
0.0004432
-0.0002992
-0.000144
0.1184
-0.03067
0.0002225
-0.000944
0.0007215
-0.0002354
0.001204
-0.0009691
-0.009508
-0.003491
0.013
-0.005621
0.002905
0.002715
-0.05989
0.09176
-0.03188
-0.01597
0.006766
-0.09086
0.03892
-0.001448
-0.001348
0.002797
0.0001148
0.0008889
-0.001004
-0.0001972
0.0003672
-0.00017
-0.0001952
0.0002465
-5.129e-05
-0.001391
0.0003041
0.001087
0.002117
-0.006425
0.004308
-0.0007299
-8.775e-06
0.0007386
0.8728
0.1658
-0.0009437
0.001254
-0.0003107
0.002179
-0.0001733
0.00115
-0.001927
0.0007777
-0.001294
0.001429
0.001595
0.001438
0.001169
-0.00138
0.0002105
-0.3878
-0.4519
0.8397
0.0005093
0.001038
-0.001547
-0.5421
-0.3489
0.8909
0.04034
-0.01878
0.00386
-6.007e-05
-0.09326
-0.163
0.2562
0.04757
0.1204
-0.168
2.751e-07
-8.433e-08
-1.91e-07
0.001207
-0.0009736
-0.0002329
-0.0783
-0.101
0.1793
0.001586
-0.001175
-0.0004108
0.1749
-0.05249
-0.001469
0.006085
-0.002285
0.004677
-0.002393
-0.009566
-0.01128
0.0007753
0.001217
-0.001992
-0.2016
0.2325
-0.03094
-0.0004023
0.0005414
-0.0001391
-0.0003133
-0.0002324
0.0005457
8.791e-05
-6.446e-05
-2.346e-05
-0.0001571
-0.0002082
0.004667
-0.00255
-0.000297
-0.0005304
0.0008273
-0.003024
0.0006738
0.00235
-0.001278
-0.001021
0.002299
0.003144
-0.002675
-0.0001886
0.0003264
-0.0001379
3.785e-05
0.0001029
-0.0001407
0.002238
0.0001832
-0.1793
0.1218
-0.008639
0.004249
0.00439
-0.002957
0.002987
-2.919e-05
0.001177
0.0001221
-0.001299
4.679e-05
-8.34e-06
-3.845e-05
-0.0009503
0.000616
0.0003343
-0.8546
0.3125
-0.2557
0.1306
0.1251
0.0005885
0.0001821
-0.0007706
0.004175
-0.005642
0.001467
-0.0002521
-0.0004302
0.0006823
0.01884
-0.01132
-0.007523
0.2117
-0.2018
-0.009965
0.007427
-0.01072
-0.0005158
-3.941e-05
0.0005552
0.09701
-0.05223
-0.04479
0.001333
0.0006032
0.0008732
-0.0002848
-0.001464
0.003677
-0.002213
-0.01993
0.03143
-0.0115
5.616e-05
-0.0001536
9.739e-05
0.0008598
-0.0002761
-0.0005837
-0.002812
0.0008991
0.001913
0.004875
-0.002596
-0.002278
0.1966
-0.149
-0.007873
0.01554
-0.5023
-0.9725
-0.4957
-0.9611
-0.009068
0.0004991
-0.0006443
0.0004704
0.0001739
-0.003738
-0.0002322
0.00144
0.003435
0.0001019
0.0008415
-0.0009434
-0.01592
0.04683
0.002054
0.001001
-0.001834
0.0006653
0.001169
0.0001524
0.0007116
-0.000864
0.0007627
-0.001679
0.0009164
0.0004612
0.001124
0.0007495
-0.0002986
-0.0004509
-0.00174
0.002223
-0.0004832
0.0009784
-0.0006751
-0.0003033
-0.0004598
0.002397
-0.001937
-0.001248
0.0009748
0.0002735
-0.005105
0.007423
-0.002319
1.758e-05
-0.0001014
8.384e-05
-0.001141
-0.006142
-0.02583
0.03197
0.0009089
-0.0007997
-0.0001092
0.003768
0.0008839
-0.0006026
-0.001604
0.002206
0.2989
-0.4097
0.1108
0.0007892
7.059e-05
-0.0007618
0.001407
-0.0006447
-0.001854
0.001671
-0.007742
-0.008165
0.01591
0.001124
-0.001171
4.721e-05
-0.0001069
0.0008891
-0.0007822
0.3822
0.1358
-0.5181
-0.1168
-0.05073
-0.1925
0.2624
-0.06983
0.0005323
-0.000633
0.0001007
0.4442
-0.832
-0.001479
0.0002007
0.001278
0.06329
0.03372
0.0003841
-0.0005663
9.311e-05
-0.0007239
0.0006308
0.1158
-0.1222
0.03092
-0.01122
-0.0197
-0.0002197
0.001067
-0.0008476
2e-06
-3.28e-07
-1.672e-06
0.001332
-0.002316
0.0009843
0.9533
-0.7144
-0.2389
0.0007541
0.009368
-0.01012
0.0001324
0.0005407
-0.001249
0.0008857
0.0003635
0.005042
-0.003981
-0.001061
-0.09002
-0.01932
3.252e-05
4.293e-06
-3.682e-05
0.02054
-0.02383
0.00329
9.792e-06
-0.0001131
0.003154
-0.004197
0.001043
-0.002154
-0.003805
0.005959
0.2457
-0.2573
0.01162
0.004026
-0.003992
-3.43e-05
-1.582e-05
6.562e-05
-4.98e-05
0.0002247
0.0006326
-0.0008574
-0.0009267
0.001029
-0.0001026
-0.0002047
0.0004343
-0.0002296
0.002141
0.001885
-0.0004371
0.0003746
-0.02586
0.01972
0.01037
-0.07026
0.0001315
-0.0002204
8.893e-05
-0.51
0.03841
0.004164
7.182e-05
-0.004236
7.72e-05
-9.235e-05
0.001557
0.01899
-0.004018
0.003173
0.0008457
0.000427
-0.001388
0.0009615
-0.00217
0.002152
1.757e-05
0.1102
0.4883
-0.5985
0.000542
-0.001096
-0.0001221
-0.0001451
0.0002671
-0.001108
-2.457e-05
0.001132
0.0006054
0.006802
0.0005488
0.0005433
-0.001092
-0.0008035
0.0004746
-0.0006148
-0.001281
0.00243
-0.002105
-0.000325
-0.0009018
0.0001719
-0.001592
0.004552
-0.002961
-0.0006113
0.0001264
0.000485
0.0003095
3.047e-05
-7.528e-05
7.098e-05
3.941e-06
0.0005766
-0.0006245
4.782e-05
-0.6741
0.8721
-0.00319
0.0007371
0.01223
-0.01441
0.002181
-0.005327
0.006131
-0.01071
0.001091
0.009616
0.0009904
-0.0003066
-0.01039
-0.005739
0.01613
-1.277
1.439
-0.1617
-0.0007768
0.0007762
6.052e-07
7.034e-05
6.309e-05
-0.0001334
0.003225
0.01199
-0.01522
0.004773
-0.005178
0.000405
0.5738
-0.1915
0.0009118
-0.001869
0.0009572
0.0001912
-0.0007789
0.0005877
-0.0584
0.0423
-0.02436
-0.1772
0.6967
-0.6521
-0.04464
0.0008404
-0.0008744
0.06435
-0.02823
-0.0002846
-1.792e-05
0.0003025
0.05066
-0.05656
0.005899
6.612e-05
0.0004263
-0.01403
-0.131
0.145
-2.149e-05
-1.677e-05
3.827e-05
0.05779
-0.2503
0.0001737
0.0002896
-0.002551
0.002667
-0.0001159
-0.00121
0.0006689
0.000541
-0.001221
0.002706
-0.001485
0.0003258
-0.0006483
0.0003225
-0.01871
0.004437
0.01428
-0.0003656
0.0001864
0.0001792
0.0006433
0.0002346
-0.0008779
-0.001379
0.0001424
0.001236
-0.0004681
8.055e-05
0.0003875
0.001904
0.008644
-0.01055
-0.002438
0.002114
0.0008204
0.001304
-0.002124
0.001723
-0.00576
0.004037
0.004617
-0.003217
-0.001399
-0.001138
0.001958
0.3559
-0.9491
0.5932
0.1228
-0.00177
-0.121
0.004143
-0.001812
-0.00233
-0.00049
0.0005213
-3.135e-05
-1.532
0.1224
1.41
-0.003238
0.002051
0.001187
-0.005752
0.01475
-0.008995
0.00452
0.007746
-0.001213
0.005387
0.02796
-0.01554
-0.01242
1.414
-0.2689
-1.145
-0.0003623
0.000482
-0.0001197
-0.01231
0.006553
-0.0001263
0.0001014
2.484e-05
-0.001865
0.0009055
0.0009598
0.0001738
-0.0001141
-5.967e-05
-9.793e-05
6.564e-05
3.229e-05
0.001097
-0.0001728
-0.0009245
-0.0005177
-0.0004326
-0.0003742
-5.435e-06
0.0003797
0.0009105
0.003863
0.002029
-0.0006445
-0.001384
-0.127
0.2573
-0.1303
-0.0003537
0.0005906
-0.1001
0.08509
0.01504
0.001157
-0.0009779
-0.0001789
0.0006878
-0.001442
-0.001757
0.001578
0.0001787
0.0002073
-0.002207
0.002
1.443e-08
5.878e-08
0.001066
-0.000514
-0.0005516
0.001207
0.0008062
-0.002013
0.02657
-0.01532
-0.01125
0.003118
-0.003898
0.00078
-0.2851
0.2281
0.05702
0.0001146
5.923e-05
0.1189
0.003852
-0.0001514
-4.497e-05
0.0001964
-0.003749
0.002894
-1.665e-07
1.664e-07
1.052e-07
-3.54e-07
2.484e-07
1.392e-06
-1.269e-06
-1.227e-07
1.195
-0.8175
-0.3773
0.0004561
0.0004528
-0.0003634
0.001788
-0.001424
-0.1461
-0.1096
0.002758
-0.0003923
-0.002366
-0.0002569
0.0006941
-0.0004372
0.0005932
-0.000662
6.888e-05
0.003016
-0.0002945
-0.002722
-7.893e-05
-0.002472
-0.001021
-0.0001893
-0.002054
-0.001184
-0.0003226
0.0002956
2.696e-05
-0.4344
0.7904
0.0002816
-8.697e-05
-0.0001946
-4.647e-06
4.4e-06
2.444e-07
0.0003923
-0.0004608
6.852e-05
0.0007223
-0.0001745
-0.0005478
-5.685e-05
4.12e-05
0.06156
-0.1793
0.002996
-0.0007491
-0.05179
0.07867
0.005874
-0.004151
0.04656
0.2423
-0.2888
-0.0005923
0.0001453
0.000447
-0.0002774
-0.0004357
0.0007131
-0.0001134
0.0001079
5.576e-06
1.517
-0.8968
-0.6203
0.003368
0.0007751
0.008238
0.003521
-0.01176
-3.468e-05
4.297e-05
-8.284e-06
-0.0004021
3.134e-05
0.0003708
0.0009976
-6.757e-05
-0.0009301
-0.008134
0.001685
0.006449
-0.1093
0.101
0.008343
-2.93e-05
8.469e-05
-5.537e-05
0.0005374
0.0005524
-0.00109
-0.7997
-0.7327
0.002018
-0.007847
0.001231
0.006616
-0.0006279
0.0003146
0.0003809
0.0007431
-9.814e-06
-0.0004802
-0.0003804
6.91e-05
0.0003113
0.003699
-0.0005454
-0.005116
0.005098
1.738e-05
0.000585
1.95e-05
-0.0006045
-0.0003537
0.0007023
-0.0003486
-0.0002136
-0.0005632
0.112
0.05723
-0.1693
-0.0001495
0.0001127
3.683e-05
-0.0001295
0.0008988
-0.0007693
0.0008773
-0.0009964
0.0001191
0.0009897
-0.002143
0.001153
-0.0002034
0.0003056
-0.0001022
-0.7903
0.113
0.6773
-0.7888
0.6291
0.1597
0.00505
-0.01456
0.0007055
4.407e-05
-0.0008104
-0.002182
0.002993
0.1345
-0.2067
0.07225
1.474
-0.6495
-0.8244
-0.001092
0.001655
-0.0005635
0.0001874
-0.0002913
0.0001039
0.001514
-0.0006098
-0.0009041
-0.0004147
4.047e-05
2.108e-05
-1.081e-05
-1.046e-05
1.332e-05
-1.541e-05
2.209e-06
-0.002613
0.002426
0.0001876
-0.1462
0.103
0.04322
1.396
-1.274
-0.1219
0.0001556
-7.58e-05
-7.975e-05
0.0006778
0.001215
-0.001893
0.0004229
-0.001404
0.0009815
0.3151
0.5193
-0.8344
-0.0001106
-0.00026
0.002264
-0.00265
0.0003864
0.0007155
-0.0006748
-4.077e-05
0.5015
-0.0007842
0.0009336
-0.0001494
-0.03072
0.1652
-0.0006135
0.00104
0.0001368
6.015e-06
-0.0001428
0.006584
-0.008318
0.001734
0.9748
0.1611
-1.136
5.16e-05
0.0003083
-0.0003599
-0.004106
-0.001515
-0.0001652
7.212e-05
0.3919
1.022
0.0003826
-0.001412
2.944e-05
1.202e-05
0.3917
0.305
-0.001538
-0.00248
-0.1674
0.007711
0.1597
-0.0003943
-0.0005037
0.000898
0.002767
-0.0007742
-0.001993
-0.2805
0.1872
-0.0005869
0.0005377
4.914e-05
0.0003624
0.0007388
-0.001101
5.158e-05
-2.645e-06
-4.893e-05
0.0008919
0.0007188
-0.001611
0.003967
-0.002191
-0.001776
-0.0003255
-0.0009229
-0.0003794
-0.0008699
-0.001085
0.0002582
0.0008264
0.0008361
-0.0008921
0.001009
-0.001561
0.0007088
-0.001087
0.000378
-0.000105
0.0001097
-4.662e-06
-0.002941
0.002213
0.0007284
0.0006663
-0.0004831
-0.0001832
-0.5978
0.9129
0.001115
-0.0007423
-0.0003731
0.1048
-0.1924
0.08759
-0.0006512
0.001414
-0.128
0.03692
0.0911
-0.000609
0.003378
-0.3431
-0.9338
-0.1536
0.0753
-0.00211
-0.004485
0.006595
-0.000304
-0.0003074
0.001599
0.001054
-0.002654
-1.04
0.1288
0.9112
1.105
-0.8983
-0.2062
-0.0001358
4.913e-05
0.0003476
0.0002234
-0.000571
0.0003094
-0.0006182
-0.0009244
0.00036
0.0005644
-0.002678
0.001015
0.001662
0.0001321
-0.0004167
0.002179
-0.003096
0.0009168
-0.0003956
0.0002735
0.001453
-0.0007412
0.0001447
-0.0004067
0.000262
0.0004702
0.000123
-0.0005932
-1.159
0.119
-0.0003982
-0.00122
0.001618
-0.000135
0.001267
-0.001132
-0.0001372
-0.004222
0.004359
0.01103
-0.005155
-0.005878
0.1775
-0.2344
0.05693
1.03
0.4435
0.002319
-0.003784
-1.264e-05
-0.0001196
0.0008776
0.001151
-3.859e-05
2.359e-05
1.501e-05
-0.07951
-0.04851
-0.9859
-0.4038
1.39
0.0003603
0.0001937
-0.000554
0.001611
-2.741e-05
-0.001584
-0.04899
-0.01172
-0.0002845
-0.0003344
0.0006189
0.01239
-0.00171
-0.01068
-0.02864
0.08391
-0.05527
0.0005364
-0.0001963
-0.0003401
0.001845
-0.002323
0.0004781
0.001298
-0.001433
0.002377
-0.006791
0.004414
-4.797e-07
4.793e-07
7.009e-05
-1.529e-05
-3.502e-05
-0.0004331
-0.000283
-8.25e-05
0.0006564
0.0005502
-0.001123
-0.0004951
0.001618
-0.000744
-4.026e-05
0.0006417
-0.001183
0.0005418
0.05097
0.009602
-0.06058
-0.002277
0.0007783
0.001499
-6.355e-05
4.822e-05
1.532e-05
0.001064
0.0031
0.7438
-1.067
0.3229
0.0014
-0.0002309
-0.003336
0.003189
0.0001463
-0.001884
-0.0006836
0.002568
1.07
0.4472
-0.02408
0.7679
-8.261e-07
-4.134e-07
1.239e-06
0.02082
0.005747
0.0004814
-0.0008952
0.0004137
-0.0009429
0.0009553
-1.24e-05
-0.0001696
0.0002298
-6.018e-05
-0.006573
-0.002066
0.003511
0.005177
-0.008688
0.0004792
-0.0002543
3.401e-05
-0.00494
0.004906
0.001025
-0.0008675
-0.0001579
-0.1497
-0.2014
0.3511
1.051
-0.04544
-1.005
-0.003616
-0.0004211
0.004037
0.0004334
0.0118
-0.0001697
0.000702
-0.003914
0.00203
0.0003813
-0.0004323
5.101e-05
-0.003413
0.001178
0.002235
0.0002042
0.0001453
-0.0003495
-0.02182
0.02092
0.006212
-0.01395
-1.12
-0.3844
1.504
-0.0001902
0.0003692
-0.000179
0.02008
0.007886
-0.0013
0.0009495
0.0003508
1.086e-07
-0.002136
0.000599
0.001537
-0.00382
0.002372
-0.0007766
0.002109
1.252
-0.2775
-0.001678
0.001908
-0.0002291
-0.0004273
-0.0007208
0.001148
1.22e-05
-1.299e-05
9.247e-07
0.001774
0.00694
-0.008714
-0.002832
-0.001488
0.00432
0.0009682
0.0004845
-0.0002544
0.0007929
0.001093
0.001338
2.627e-05
-0.000183
0.0001567
-0.002778
-0.002092
0.00487
0.0005981
-0.0007849
0.001298
-0.002264
0.000966
-0.003146
0.0001884
-8.3e-05
0.002838
0.002447
-0.004988
0.002541
-4.173e-07
4.172e-07
-0.0004273
-0.002908
-0.06814
0.02203
0.0001292
-0.001206
0.001077
7.805e-05
0.0002183
-0.0002963
2.259e-07
0.001216
-0.001216
0.1005
0.3735
-0.474
8.685e-05
-9.21e-06
-7.764e-05
0.001632
-0.006737
0.001314
0.0002003
-1.511
0.5255
-1.065e-05
-2.793e-05
0.0007195
-0.0001429
0.0007765
-0.00092
0.0001436
-0.3865
-0.6344
1.021
-8.378e-05
0.0007254
-0.0001043
0.0001404
-3.615e-05
-0.0003293
0.001052
-0.0007222
-0.000376
0.001586
-0.00121
-1.193
0.8066
0.001781
-0.001084
-0.0006968
-4.936e-05
1.225e-05
3.711e-05
-0.0003281
0.000529
-0.0002008
0.003968
-0.003748
-0.0002208
-0.1592
0.06599
0.09323
-0.001477
-0.0003579
0.0008738
-0.0006692
-0.0002046
-0.1642
0.1696
-0.005367
0.00235
0.0004844
-0.002834
-0.003277
0.003127
0.0001498
-0.001381
0.0002579
0.0007126
0.000353
-0.002348
0.003022
-0.00244
0.0003037
-4.062e-05
-0.000634
0.0006746
0.0001287
-0.0003258
0.2803
0.5837
-0.864
0.001335
0.0004457
0.002867
-0.003974
0.001106
0.0002278
-0.0002314
3.61e-06
-0.0002102
-0.0008977
-0.01665
0.01266
0.003999
0.003014
-0.000256
-8.728e-05
-0.0002931
1.022
-0.7418
-0.0001058
0.000699
0.0002301
0.0003063
-0.0009809
-0.0004122
0.001393
3.707e-07
5.54e-08
0.0005197
-0.001501
-4.509e-05
-6.831e-05
-0.002222
-0.0005179
0.00274
-0.0003039
0.0001981
0.0001058
-0.003748
0.00102
0.002728
0.1725
1.022
-2.486e-07
2.483e-07
-0.0003516
-0.0004971
0.0008487
-0.0007531
0.001645
-0.0001291
0.0001148
1.434e-05
0.000335
-0.0005029
0.0001678
-2.535e-08
6.26e-05
-6.26e-05
0.0005499
-7.877e-05
-0.0004711
-0.0007118
0.000616
0.557
0.839
-0.001382
-0.004593
0.005975
-0.003873
0.001108
0.002765
-1.497
0.3771
0.0003115
-0.0004849
0.0001734
0.000215
0.0009419
0.001895
-0.0007184
0.0006748
0.0001854
-0.0008602
0.1375
-1.02
0.882
-0.0004502
0.00263
-0.0001405
5.343e-05
8.707e-05
-0.2767
-0.7162
0.8537
0.006639
0.004394
0.004809
-0.005567
0.000759
-0.001179
-0.001499
7.987e-05
5.066e-06
-8.487e-05
0.001508
-0.001289
-0.0002193
1.333e-05
-1.435e-06
-1.189e-05
-0.003582
0.0009036
0.002678
-0.003392
0.00347
-7.845e-05
-0.7989
-0.2678
0.00136
-0.0003847
-0.0009756
0.0003235
-0.0001404
-0.0001831
0.0005944
-0.0004842
-0.0001102
0.0001911
-0.0003796
0.0008853
-0.001261
1.084
0.08462
-1.168
0.2752
-0.2136
0.0713
-0.1302
0.05889
0.0003186
-7.409e-05
-0.0002445
0.04411
-0.843
0.03086
-0.01941
-0.01145
-5.034e-05
9.903e-05
-4.869e-05
-0.0007989
-0.0009684
0.001767
0.0003612
0.0001975
-0.0005586
-0.2175
0.8472
-0.6297
0.0002067
-9.981e-05
-0.0001069
-0.0003659
0.002075
-0.001709
-0.2412
-0.01503
0.2562
0.0004682
0.0005102
0.6886
0.472
-1.161
-0.0001609
-0.0001528
0.0003137
0.000232
9.862e-05
-0.0003306
-0.001524
0.0007358
0.0007884
-0.0006986
-0.002551
0.00325
4.921e-05
3.009e-05
-7.93e-05
0.1806
-0.04941
-0.1312
-0.0003211
-0.0002622
0.0005834
-0.007488
0.006585
0.0009032
-0.0004722
-0.0001201
6.915e-05
-6.043e-05
-8.716e-06
-0.0004621
-0.0005247
0.0009868
0.0006978
0.0002499
-0.0009477
-0.01045
-0.006201
0.004471
-0.005047
0.0005757
0.001338
-0.000418
-0.0009196
0.000382
-0.000382
-0.3423
0.1966
0.1457
-0.006347
0.009366
-0.003019
0.0008554
-0.0005277
-0.0003276
-0.000962
0.001775
-0.000813
-5.725e-05
-6.296e-06
0.0005875
-0.0005269
-6.059e-05
-0.1167
1.2
0.04386
-0.02677
-0.01709
0.0001046
5.098e-05
-0.0005098
2.586e-05
0.000484
0.0001733
-0.0002236
5.033e-05
-0.001405
0.003155
-0.00175
-8.107e-05
8.107e-05
-0.001572
0.00165
-7.805e-05
-0.0001177
0.0001177
0.001889
-0.0006419
-0.001247
-8.147e-05
-4.427e-05
0.0001258
-0.005438
0.004056
0.0001164
-8.117e-05
-3.525e-05
0.1014
-0.07462
-0.02675
0.001766
-0.001333
-0.0004329
1.093
-1.518
0.4248
1.313
-1.734
0.421
0.0005936
0.003045
-0.003639
-0.04684
0.09708
-0.05024
-0.001386
1.369e-05
0.001373
0.01499
-0.003478
-0.01152
-0.002285
-0.0003245
-0.006739
0.007582
-0.0008434
0.04453
-0.1002
0.05571
-0.001158
0.0001053
0.001052
0.0005844
0.0008412
-0.001426
0.2536
-0.007903
-0.01173
0.01085
0.000872
-0.0004791
0.0007163
-0.0002369
0.09274
-0.04821
-0.0006556
0.0003354
0.0003201
8.077e-05
-8.08e-05
0.0002651
-0.0001582
-0.0001069
0.0007909
-0.002445
0.001655
-0.0004953
9.368e-06
0.000486
0.00378
-0.004728
0.0009472
5.114e-05
-4.772e-05
-3.35e-06
-0.3339
0.12
0.2139
-0.002212
0.0004546
-0.000602
-0.0006984
-0.0523
0.3512
-0.0005939
0.0004421
-0.001324
0.0001056
0.001219
-0.002279
0.00509
-0.002811
-0.475
-0.5471
1.022
0.2453
-0.002602
-0.2427
0.01218
-0.007295
-0.004888
3.975e-06
1.174e-06
-5.149e-06
-2.749e-05
-0.00151
0.001537
-7.683e-05
7.693e-05
-0.003464
0.001711
0.001754
0.0004591
-0.000155
-0.0003041
-0.001679
0.001554
0.000124
-2.024e-05
-1.249e-05
3.272e-05
-0.001471
-0.0004392
0.00191
-0.4099
1.367
-0.9567
-9.8e-05
0.0001397
-4.166e-05
0.008176
-0.001356
-0.006819
-0.3008
1.335
-1.034
-0.0004929
-0.0004542
0.0009471
-4.931e-06
2.486e-06
2.445e-06
0.00158
0.006828
-0.008409
-0.001757
0.00067
0.001087
0.005621
-0.003316
-0.002305
0.001021
0.00274
-0.003761
7.154e-06
1.484e-05
-2.199e-05
8.603e-05
-8.603e-05
0.0007834
0.000377
-0.00116
-0.09006
-0.05612
-0.4595
0.2212
0.2383
0.002449
-0.0009129
-0.001537
-0.0008053
0.0005405
0.0002648
0.0001363
0.0003116
-0.0004478
-0.0008614
0.0004803
0.0003812
-0.0009373
-0.0006488
0.001586
0.0004028
-0.0001725
-0.0002303
-0.002744
0.002561
0.0001832
-0.01392
0.02127
-0.007352
0.0001774
0.0002254
-0.03441
-0.01139
0.0458
-0.0005454
-3.912e-05
0.0005845
0.1359
-0.5767
0.4408
0.0008489
0.000425
-0.001274
-3.259e-05
3.649e-05
-3.897e-06
-0.00344
0.004651
-0.001211
0.0009296
-0.0007531
-0.0001765
-0.002436
0.001123
0.001314
-0.3821
0.09953
0.2826
-0.1852
0.0517
0.1335
-8.03e-05
0.0001234
-4.314e-05
0.006697
-0.007171
0.0004733
0.0001212
-0.0002005
7.933e-05
0.0005903
-0.001037
0.0004471
-2.968e-05
7.61e-05
-4.643e-05
0.001117
-0.001168
5.145e-05
0.001766
-0.0002818
-0.001484
-0.002669
0.002093
0.0005756
0.0002099
-0.001371
0.001161
0.000457
-0.000457
-8.634e-05
0.001432
-0.001346
-5.564e-05
0.0004357
-0.0003801
0.0005152
-0.000425
-9.011e-05
-0.002451
0.003669
-0.001218
0.001452
-0.002475
0.001023
0.0003594
0.001377
-9.027e-05
0.0001521
-6.197e-05
2.094e-05
-1.904e-05
-1.897e-06
-1.027e-05
5.566e-06
4.704e-06
-0.002884
0.001284
0.0016
-0.3213
0.4218
0.5924
0.2151
-0.8075
-0.001496
0.002108
-0.0006118
0.00014
0.0002374
-0.0003773
0.004176
-0.0008394
-0.003337
-0.1892
1.183
-0.9939
8.862e-05
0.0003752
-0.0004638
-0.002791
-0.0003051
-0.002305
-0.004835
0.00714
1.09e-05
2.083e-05
-3.179e-05
0.004351
-0.003849
-0.0005028
-6.708e-05
0.0003188
-0.0002517
0.004346
-0.005146
0.0008003
0.7866
-0.6764
-0.007111
0.002236
0.004874
0.01071
0.0001214
-0.01083
0.0002707
-3.028e-05
-0.0002404
9.78e-05
0.0001651
-0.0002629
-0.0001438
0.0001062
3.761e-05
-0.00311
0.001713
0.001397
0.003645
-0.008846
0.005201
0.0003387
-0.0008373
0.0004986
-0.0008544
0.00132
-0.0004651
-0.001919
-0.001341
0.003259
0.004942
-0.001894
-0.003048
-0.0004079
-5.339e-05
0.0004613
0.001924
-0.001588
-0.0003365
0.0003349
-0.0002368
-9.808e-05
0.0003185
-0.0002383
-8.025e-05
0.2588
-0.3223
0.06352
-7.271e-06
-9.07e-06
1.66e-05
-5.055e-06
-2.382e-05
2.887e-05
0.003431
-0.0005639
-7.321e-05
0.002087
-0.002014
0.000478
-4.587e-05
0.02007
-0.1189
0.09888
-0.0001939
0.0001939
-0.0004266
0.0004266
-0.1656
-1.044
1.21
1.256
0.2304
-1.486
-0.002217
0.001215
0.001002
0.0007173
-0.003648
0.002931
-3.583e-06
4.321e-06
-7.392e-07
-5.041e-05
8.028e-05
-2.988e-05
-0.0001948
0.00196
-0.000391
0.0005116
-0.0001206
0.000358
5.811e-05
-0.0004161
-0.001112
-0.003437
0.004549
0.003071
0.004551
-0.007623
-0.1837
0.05803
0.1257
0.0003916
-0.0002616
-0.0001299
-0.0004887
-0.0005479
0.001037
-0.0002559
0.0005125
-0.0002566
-0.003908
0.0009108
0.002997
-2.094e-05
3.166e-05
-1.072e-05
0.0006013
-0.0007912
0.00019
0.8158
-1.145
0.3296
-0.000541
0.000541
0.0001985
-0.0001141
-8.436e-05
0.1658
0.5611
-0.7269
0.001186
-8.841e-05
-1.283
1.117
0.2404
-0.422
0.1816
-0.002765
0.001906
0.0008591
-0.009963
-0.001472
0.01144
0.0002494
-0.000133
-0.0001164
0.7767
-0.9419
0.1651
0.001062
-0.0005247
-0.0005374
0.4785
-0.1375
-0.341
0.000735
-0.001512
0.0007771
-0.0147
0.00516
0.009538
0.01283
-0.01153
-0.0013
0.005415
-0.002847
-0.002568
-0.0002173
-0.0008097
0.001027
-0.0008232
-0.0003743
0.001198
0.0002762
0.0001074
-0.0003835
0.001638
0.0003382
-0.001976
0.1525
0.6454
-0.798
0.005013
0.06252
-0.06753
-0.004958
0.00247
0.002488
-0.0001661
-0.0008689
0.001035
1.676e-05
-8.156e-05
6.477e-05
0.0004086
-0.0002282
-0.0001805
0.0001195
-7.011e-05
-4.939e-05
-0.0002525
-5.869e-05
0.0003112
-0.0001404
0.0001411
-0.0009912
0.00171
0.001183
-0.0008441
-0.0003393
-0.0006479
0.00174
-0.001092
-0.001139
0.0007108
0.0004281
0.0003298
0.0001916
-0.0005214
0.009035
-0.008883
-0.0001524
0.0126
-0.005437
-0.007165
0.4955
-0.3682
-0.1273
-0.001076
0.001176
-0.0001003
-7.267e-05
0.0001016
-2.891e-05
-0.0007038
4.664e-07
0.0007034
0.4948
-1.093
0.5982
-2.829e-05
3.375e-05
-5.454e-06
0.004698
-0.002397
-0.002301
-0.002253
0.0005897
0.001664
0.001238
-0.0005682
-0.0006695
-0.0003284
0.001573
-0.001245
0.001283
0.00586
-0.007143
0.0006098
-0.0007073
9.742e-05
-0.001466
-0.002911
0.004377
-0.001104
-0.001149
-3.578e-05
-7.553e-05
0.0001113
-0.0006452
-0.0001056
0.0007507
5.072e-05
1.842e-05
-1.178
0.5409
0.6369
0.002043
-0.003947
0.001905
-0.0009986
0.0003667
0.0006319
0.1269
0.05449
-0.1814
-0.001109
0.0002993
0.0008093
0.0007782
0.0001992
-0.0009773
-1.243
1.243
0.001336
0.001862
-0.003198
-5.129e-05
9.407e-05
-4.278e-05
0.06219
-0.04885
-0.01334
0.009076
-4.042e-05
-0.00544
0.005412
2.828e-05
0.0002333
-2.293e-05
-0.0002104
0.01054
-0.008282
-0.002258
-1.274
0.5255
0.7482
0.0007367
-0.001149
0.0004123
-0.0002217
0.0005312
-0.0003094
0.405
-0.2583
-0.1467
-0.01146
0.009077
0.002382
-4.244e-05
-0.03355
0.03359
-0.002176
-0.0009767
0.003153
-0.0005358
-0.0001946
0.0007305
-0.001347
-0.0006305
0.001978
-0.05234
-0.05588
0.1082
-1.131e-05
-3.272e-05
4.403e-05
-2.343e-07
-1.229e-05
1.253e-05
0.0002525
0.0008629
0.000405
-0.001491
0.001086
-0.00251
0.004121
-0.001611
7.912e-05
3.731e-05
-0.3932
1.244
-0.8507
0.0002867
-0.001327
0.00104
0.3528
-0.008276
-0.3445
0.0008774
-0.001218
0.0003401
-0.000534
0.0004249
0.0001092
0.0007529
0.0009861
-0.001739
0.0003615
0.0008762
-4.302e-05
2.699e-05
1.603e-05
0.0003108
-0.0003424
3.158e-05
-0.5591
0.2204
0.3387
1.235e-05
-1.235e-05
-0.0002911
0.0002172
7.381e-05
9.078e-05
-0.0003323
0.0002414
-0.001611
-0.0002047
0.001816
-0.0006102
0.0008327
-0.002522
-0.002401
0.004923
0.01274
-0.01147
-0.00127
-0.0004451
0.0003646
8.043e-05
0.001887
-0.001308
-0.0005785
-0.004351
0.02318
-0.01883
1.603e-05
-1.603e-05
-0.000254
0.0002784
-2.439e-05
-0.0009998
0.0004353
0.0005645
0.0005363
0.0002206
-0.0007569
0.001529
-0.001265
-0.0002639
-2.659e-05
0.0001098
-8.319e-05
-5.199e-07
-0.0001705
0.000171
-3.153e-05
-2.957e-05
6.118e-05
0.002019
-0.001473
-0.0005459
0.0007392
-0.0001983
-0.0005409
0.001123
-0.003901
0.002778
-0.0004394
-0.0005492
0.0009887
-0.001329
0.0007006
0.0006279
-0.008468
-0.0001515
0.00862
-3.208e-05
3.584e-05
-0.01937
0.00592
0.01345
0.000854
0.0003457
-0.0012
-0.005596
0.01383
0.000843
-0.001157
0.0003144
-1.264
0.5119
0.7523
0.55
-0.7848
0.2348
0.003711
-0.006088
0.002377
6.834e-05