/*--------------------------------*- C++ -*----------------------------------*\
  =========                 |
  \\      /  F ield         | OpenFOAM: The Open Source CFD Toolbox
   \\    /   O peration     | Website:  https://openfoam.org
    \\  /    A nd           | Version:  8
     \\/     M anipulation  |
\*---------------------------------------------------------------------------*/
FoamFile
{
    version     2.0;
    format      ascii;
    class       volVectorField;
    location    "20";
    object      U;
}
// * * * * * * * * * * * * * * * * * * * * * * * * * * * * * * * * * * * * * //

dimensions      [0 1 -1 0 0 0 0];

internalField   nonuniform List<vector> 
127143
(
(0.004916 -0.0002149 0)
(-0.0001855 -0.0008553 1.347e-23)
(0.0001321 0.0006507 -2.577e-23)
(0.0001596 0.0007055 9.159e-27)
(0.09297 0.01595 -9.6e-21)
(0.0001325 0.000689 -1.772e-26)
(0.3057 0.1819 0)
(0.1473 0.06692 -9.259e-21)
(0.1055 0.05008 4.352e-20)
(0.09657 0.001992 0)
(0.4325 0.6127 1.415e-20)
(0.2112 0.1375 2.941e-20)
(0.003047 -0.001157 5.138e-24)
(0.0001896 0.0007374 0)
(-0.3612 0.6342 3.304e-21)
(0.1153 -0.00929 0)
(-0.000379 -0.001567 4.253e-23)
(0.9665 -0.1004 -4.022e-21)
(0.9559 -0.1924 0)
(0.1116 -0.005045 0)
(1.27 -0.2888 1.24e-20)
(0.04774 -0.01776 0)
(0.8551 -0.09255 0)
(0.8839 -0.0847 0)
(0.04765 -0.01812 2.644e-22)
(0.6798 -0.1103 0)
(0.5741 -0.01337 2.41e-20)
(0.565 0.007316 -3.821e-22)
(0.3574 -0.1599 0)
(0.9792 -0.07854 6.495e-21)
(0.7625 -0.05239 0)
(0.6577 -0.1056 2.161e-21)
(0.5132 0.1286 1.027e-20)
(0.3379 -0.08307 -1.092e-20)
(0.7828 0.04543 4.693e-20)
(0.4501 0.118 -4.226e-23)
(0.1885 -0.05836 2.73e-21)
(1.365 -0.2039 -9.474e-21)
(0.9235 -0.08714 4.123e-22)
(0.4558 -0.02825 1.111e-24)
(0.9551 -0.1901 0)
(1.623 0.6743 -2.768e-20)
(1.576 0.6668 2.216e-20)
(0.00623 -0.002039 0)
(0.968 -0.09808 3.797e-21)
(0.345 -0.08405 3.569e-21)
(0.3688 -0.1678 0)
(0.4476 -0.08161 -7.094e-22)
(0.883 -0.1509 -7.93e-22)
(0.9053 -0.07633 2.04e-22)
(0.1342 -0.009315 1.574e-22)
(0.9208 0.003988 1.288e-19)
(1.507 -0.168 0)
(1.415 -0.03833 -1.875e-20)
(0.9993 -0.002326 5.608e-20)
(0.7785 -0.1962 1.351e-21)
(0.9994 -0.002315 -5.044e-20)
(0.9598 -0.08071 0)
(1.014 -0.01631 -2.566e-20)
(1.417 -0.03384 -3.71e-20)
(0.3118 0.2991 -7.534e-20)
(1.018 -0.2543 -8.857e-22)
(0.9706 -0.07611 -9.195e-22)
(1.001 0.0005913 1.765e-19)
(1.052 -0.09433 0)
(0.6853 -0.1343 -2.593e-20)
(1.269 0.1025 8.582e-20)
(0.9686 -0.07814 0)
(0.9691 -0.07802 -2.467e-22)
(0.9998 -0.0002688 0)
(0.8449 -0.06985 0)
(0.6038 0.001959 -1.142e-20)
(0.7457 -0.1281 2.825e-21)
(1.015 -0.01618 -1.393e-20)
(1.007 0.003665 -4.663e-23)
(0.6027 0.01271 1.207e-20)
(1.046 0.04797 -1.114e-19)
(0.5096 -0.1731 0)
(0.7871 -0.1992 -2.657e-21)
(1.001 0.001303 0)
(0.3856 -0.1691 -4.249e-24)
(0.131 -0.008707 -5.355e-23)
(0.4807 -0.1121 4.251e-21)
(0.5366 -0.03836 0)
(0.3185 -0.0697 -1.166e-21)
(0.5324 -0.1771 0)
(0.9426 -0.09504 9.878e-22)
(0.6305 0.039 6.984e-21)
(0.6857 -0.1312 0)
(2.076 1.173 0)
(0.9751 -0.0185 0)
(1.21 -0.1968 0)
(2.029 1.149 0)
(1.273 -0.2884 -1.245e-20)
(1.184 -0.2241 0)
(0.9716 -0.05924 -1.467e-20)
(1.618 0.6581 6.006e-20)
(0.6987 -0.05526 0)
(0.8704 -0.2382 2.25e-21)
(1.267 0.1092 0)
(1.001 0.001259 0)
(0.8845 -0.1513 0)
(1.897 1.734 -4.583e-21)
(0.9454 -0.1043 0)
(0.5505 -0.182 -4.573e-22)
(0.846 -0.2328 3.104e-21)
(0.8989 -0.1356 4.278e-21)
(0.9993 -0.0002497 0)
(0.4501 -0.08956 0)
(1.001 -0.001726 8.027e-20)
(-0.355 0.6191 -1.111e-21)
(0.6541 0.04397 1.399e-20)
(1.273 -0.2686 -9.369e-21)
(0.2827 1.353 0)
(1 0.02238 -3.761e-22)
(0.8902 -0.1311 1.19e-21)
(1.022 0.07276 1.775e-20)
(1.007 0.003891 -1.007e-19)
(1.045 0.04651 8.889e-20)
(0.001825 0.007517 0)
(1.001 -0.001835 -1.123e-19)
(0.4501 -0.1175 -1.285e-21)
(0.5817 -0.1853 0)
(0.9454 -0.08206 -9.233e-21)
(0.3859 -0.1706 1.467e-21)
(0.5865 -0.08163 3.547e-21)
(1.088 -0.2849 0)
(1.051 -0.0104 1.616e-19)
(1.615 -0.1271 -2.529e-21)
(0.7296 -0.2068 -2.535e-21)
(0.5975 -0.1655 0)
(0.9642 -0.2146 -4.599e-21)
(0.9624 -0.08779 3.255e-21)
(0.5141 -0.1747 0)
(-0.0005779 -0.002571 2.254e-22)
(0.6128 -0.1686 -1.41e-21)
(1.055 -0.07793 0)
(1.301 -0.283 4.376e-21)
(0.2147 -0.1133 -1.986e-20)
(1.103 -0.07671 9.55e-21)
(0.8126 -0.1073 4.727e-20)
(1.006 0.05894 -2.141e-20)
(1.441 -0.1992 8.287e-22)
(1.321 -0.2479 -1.024e-20)
(1.505 -0.1676 -3.881e-21)
(1.968 0.5904 1.473e-20)
(-0.3266 1.605 -2.762e-21)
(1.001 0.0005157 -1.602e-19)
(0.9432 -0.2078 3.696e-21)
(2.042 1.7 -2e-21)
(0.9498 -0.09906 2.016e-21)
(0.8622 -0.1643 0)
(1.376 -0.1923 3.144e-20)
(0.7028 -0.004053 0)
(-0.08468 0.2283 0)
(0.3396 -0.07078 0)
(0.9602 -0.08034 2.215e-21)
(0.627 -0.2142 0)
(0.454 -0.08551 -1.473e-21)
(0.683 -0.05965 -2.711e-22)
(0.8356 -0.0602 0)
(0.1802 -0.08801 3.236e-20)
(0.9757 -0.01913 2.362e-21)
(0.6004 -0.1631 -3.284e-21)
(0.6879 -0.1798 0)
(1.131 -0.1056 8.387e-21)
(0.2131 -0.01143 -1.102e-21)
(0.4489 -0.03 4.566e-20)
(2.107 0.475 -5.758e-21)
(0.9676 0.13 -2.68e-21)
(0.1586 -0.06101 0)
(1.32 -0.2486 5.04e-21)
(0.8788 -0.1386 3.75e-21)
(0.7176 -0.1842 -1.095e-20)
(0.995 -0.003017 1.36e-20)
(0.1243 -0.05609 -2.369e-23)
(1.951 0.7331 -2.992e-21)
(1.613 -0.1282 -2.527e-21)
(0.9122 -0.09268 0)
(1.012 -0.02804 1.052e-20)
(0.7163 -0.1843 -3.685e-21)
(0.9712 -0.03719 0)
(0.1206 -0.05031 -4.73e-22)
(0.1236 -0.05578 2.428e-23)
(0.7296 -0.2082 5.111e-21)
(1.02 -0.2529 1.9e-21)
(1.355 0.4205 -3.195e-20)
(0.3152 1.371 4.473e-21)
(0.8932 -0.08644 8.469e-22)
(1.028 -0.03871 4.746e-20)
(1.53 -0.1869 2.553e-21)
(1.547 -0.1809 -1.005e-20)
(1.055 -0.07729 5.033e-20)
(0.6968 1.894 6.996e-21)
(-0.0004031 -0.002832 -3.775e-22)
(1.167 -0.2959 0)
(1.006 -5.001e-06 0)
(0.9942 -3.435e-06 1.179e-21)
(0.03246 9.881e-05 0)
(0.9969 0.03419 1.254e-21)
(1.021 0.006689 7.438e-20)
(0.915 0.08699 1.184e-19)
(1.002 -0.04795 -2.701e-21)
(0.1999 -0.06102 -1.39e-21)
(0.0002514 0.001413 -5.566e-24)
(0.9595 -0.0701 -8.517e-22)
(0.9005 -0.06421 1.865e-20)
(0.8854 -0.1451 -1.152e-21)
(0.9836 -0.07907 -3.975e-21)
(1 0.0218 3.966e-22)
(1.092 -0.1542 1.219e-20)
(0.1918 -0.05522 -6.063e-22)
(0.978 0.000166 3.258e-20)
(2.127 0.4849 -5.813e-21)
(0.4858 -0.145 -2.561e-23)
(0.06751 -0.00365 0)
(0.1226 -0.04409 7.104e-22)
(0.863 -0.155 5.745e-21)
(1.017 -0.2423 -6.978e-21)
(0.9024 -0.06397 4.521e-21)
(1.931 0.7275 -6.861e-21)
(1.004 0.009072 6.1e-20)
(0.863 -0.1645 -9.188e-22)
(1.507 -0.1596 3.835e-21)
(0.6455 -0.05579 0)
(0.1419 -0.05159 0)
(0.7295 -0.1901 -2.999e-21)
(1.367 -0.2016 1.127e-20)
(0.1867 -0.05875 -1.165e-21)
(1.024 -0.2766 4.883e-21)
(1.276 -0.2864 7.118e-21)
(0.9701 -0.03684 3.625e-20)
(0.7944 -0.1371 -5.716e-21)
(0.003426 0.004825 0)
(1.277 -0.2872 0)
(0.9399 -0.07284 -1.198e-20)
(0.6004 -0.162 1.629e-21)
(0.01361 -0.002187 -2.087e-22)
(1.021 0.006369 -6.818e-20)
(1.504 -0.1927 1.152e-20)
(1.557 -0.1814 7.346e-21)
(1.381 -0.08896 -1.054e-20)
(0.2089 -0.03981 2.58e-22)
(0.6309 -0.2145 -9.597e-24)
(1.484 -0.1512 0)
(0.001525 0.007761 -2.653e-26)
(0.8502 -0.1636 5.292e-21)
(0.5592 -0.002082 0)
(0.0223 -0.007056 -3.117e-21)
(1.002 -0.0005726 -2.385e-21)
(1.81 0.4249 -5.056e-20)
(0.6478 -0.07165 -1.629e-21)
(0.8086 -0.1728 0)
(1.341 -0.2685 0)
(0.8082 -0.1918 3.73e-21)
(0.472 -0.1039 0)
(1.05 -0.0108 -1.27e-19)
(2.182 0.6396 0)
(0.7695 -0.1706 0)
(1.025 0.447 -1.082e-20)
(1.204 -0.2927 -6.471e-21)
(0.9572 -0.02984 -3.348e-20)
(1.211 -0.1935 7.36e-22)
(1.004 0.05831 1.309e-20)
(1.548 -0.1229 0)
(1.279 -0.09283 -3.567e-21)
(0.2668 -0.09514 3.036e-21)
(-0.1289 0.2436 0)
(0.3081 0.1068 8.715e-20)
(1.515 -0.09066 -1.494e-20)
(0.7591 -0.1415 0)
(0.9944 -0.003108 -1.604e-20)
(0.4988 -0.1391 -1.341e-21)
(1.505 -0.1933 -1.063e-20)
(0.971 -0.07381 -1.643e-21)
(1.526 -0.1859 -1.037e-20)
(1.279 -0.2704 0)
(0.9026 -0.1394 -4.673e-21)
(0.9924 -0.006214 -1.153e-21)
(0.6968 -0.1731 1.078e-20)
(0.9998 -0.001241 3.115e-21)
(0.9701 -0.05854 -1.144e-22)
(0.9458 -0.104 7.284e-24)
(0.9912 0.01229 0)
(1.011 0.01698 3.667e-20)
(-0.001427 -0.003188 5.387e-23)
(0.6832 -0.1812 0)
(1.002 0.02374 -2.627e-21)
(0.9158 -0.1262 -2.481e-21)
(1.011 -0.02809 1.585e-20)
(1.374 -0.1922 -4.784e-20)
(0.8289 -0.1245 0)
(0.939 -0.07296 1.22e-20)
(0.8561 -0.1481 0)
(0.9761 -0.009037 -2.992e-20)
(0.422 -0.1 -1.603e-21)
(0.7991 -0.06712 -5.628e-22)
(0.177 -0.08273 5.843e-22)
(0.2094 -0.03963 -1.037e-21)
(1.513 -0.08914 1.008e-20)
(0.769 -0.08907 5.524e-22)
(0.7502 -0.1387 -4.77e-21)
(0.5905 -0.08205 -3.03e-20)
(0.8895 -0.1306 -1.147e-20)
(0.613 -0.04538 0)
(0.1481 0.00672 9.114e-24)
(0.8857 -0.1448 -3.815e-22)
(0.9772 0.0004017 0)
(1.099 -0.2559 3.46e-23)
(0.9492 -0.09811 2.19e-21)
(0.9037 -0.1336 4.63e-21)
(0.1831 -0.08442 1.363e-22)
(0.7962 -0.1908 0)
(0.9996 -0.001276 2.237e-21)
(0.987 0.01687 -3.125e-20)
(2.076 0.7732 2.92e-21)
(1.378 -0.2051 4.794e-21)
(0.7535 -0.08323 -1.111e-21)
(1.237 -0.1561 3.463e-20)
(1.001 -0.02291 1.086e-21)
(0.8548 -0.09101 0)
(0.8046 -0.06037 7.462e-22)
(1.085 -0.02283 3.368e-20)
(0.8095 -0.1728 2.946e-21)
(2.078 0.7713 0)
(1.433 -0.1828 -1.133e-20)
(0.853 0.05374 8.197e-20)
(0.1762 -0.03658 1.766e-23)
(0.7915 -0.05046 -3.32e-22)
(1.909 0.8639 2.22e-20)
(0.9779 -0.2605 0)
(1.011 0.01664 -3.191e-20)
(0.7887 0.03978 -1.707e-19)
(1.007 5.213e-06 0)
(0.9939 4.762e-06 0)
(0.7055 0.000493 0)
(0.4649 -0.09764 -1.03e-20)
(0.8779 -0.1384 3.778e-21)
(0.9753 -0.2584 -6.134e-22)
(0.6852 -0.1875 -1.459e-20)
(1.1 -0.07506 -4.214e-20)
(0.8637 -0.1549 0)
(1.491 -0.17 3.296e-21)
(1.519 -0.1845 2.92e-21)
(-0.04237 0.7552 -7.289e-22)
(0.9151 -0.1252 1.653e-21)
(0.6121 -0.1409 -3.642e-21)
(1.329 -0.2476 3.701e-21)
(0.8037 -0.09733 9.902e-22)
(1.665 -0.1005 0)
(0.8129 -0.09354 -7.391e-22)
(1.008 -0.2142 2.664e-21)
(0.131 -0.05284 3.921e-22)
(1.524 -0.1851 9.362e-21)
(0.9444 0.1523 0)
(0.6204 -0.1454 -8.422e-21)
(1.34 -0.2693 -5.619e-21)
(1.943 0.5211 -1.263e-20)
(1.005 -0.01222 1.281e-20)
(0.7785 -0.04951 0)
(0.602 -0.2004 -1.957e-21)
(0.9707 -0.07606 -2.816e-22)
(1.004 -0.1569 -7.425e-21)
(0.9018 -0.06938 0)
(0.9102 -0.07981 6.164e-22)
(1.004 0.00374 9.265e-22)
(0.9969 0.03334 -4.397e-21)
(0.9769 -0.01376 0)
(0.6477 -0.117 3.181e-21)
(0.99 -0.006039 0)
(0.1395 0.3952 7.612e-20)
(1.084 -0.02513 -6.796e-20)
(0.7024 -0.07942 1.418e-21)
(0.8947 -0.07005 -6.637e-22)
(1.029 -0.03767 0)
(1.208 -0.1021 -7.069e-22)
(0.8433 -0.08366 -6.429e-22)
(0.04325 -0.02084 1.176e-25)
(0.8788 -0.2638 -6.164e-21)
(0.9959 -0.006934 1.512e-21)
(1.093 -0.2219 -4.452e-20)
(0.6277 -0.0818 -3.435e-21)
(0.8293 -0.1034 0)
(0.7468 -0.1401 -1.788e-20)
(1.021 0.07024 0)
(0.2448 -0.01989 0)
(1.095 0.2589 0)
(0.4754 -0.03089 0)
(1.171 -0.2962 -1.864e-21)
(1.237 -0.2406 -4.237e-20)
(1.016 -0.01372 -7.448e-20)
(0.5671 -0.03019 0)
(0.1441 -0.04966 -9.012e-22)
(0.7935 -0.197 4.004e-21)
(0.8903 -0.0833 -1.215e-21)
(0.7782 -0.05747 -5.482e-22)
(0.5721 -0.03592 -2.439e-20)
(0.7871 -0.05373 0)
(0.9393 0.1509 0)
(0.9569 -0.0288 0)
(0.5448 -0.04342 2.273e-22)
(1.004 0.008637 -2.283e-20)
(1.325 -0.2782 0)
(0.1185 -0.04927 0)
(1.106 0.2571 0)
(0.9378 -0.1089 -2.048e-21)
(0.5975 -0.1934 -2.096e-21)
(0.958 -0.09169 -2.551e-21)
(1 0.001411 -2.523e-20)
(0.9239 -0.0946 0)
(0.4317 -0.1362 0)
(0.8059 -0.1142 2.576e-21)
(0.8147 -0.1066 -5.063e-20)
(0.6067 -0.06613 0)
(0.5807 -0.1822 0)
(1.208 -0.2274 -4.239e-21)
(0.9722 -0.2495 -5.957e-21)
(0.7318 -0.1396 0)
(1.443 -0.1583 8.96e-21)
(0.5216 -0.1911 -4.988e-21)
(0.2212 -0.0159 0)
(-0.09708 0.0357 -3.209e-21)
(0.4544 -0.1372 0)
(1.003 -0.0005099 9.368e-22)
(1.012 -0.2715 -5.134e-21)
(1.149 0.4644 2.27e-20)
(1.555 0.6493 9.55e-22)
(0.7856 -0.07844 -3.097e-20)
(1.439 -0.1081 1.321e-20)
(0.8756 -0.07149 -1.602e-20)
(1.005 -0.0004952 0)
(0.4509 -0.1408 0)
(0.133 -0.05388 0)
(1.075 -0.1702 7.11e-20)
(1.652 -0.02355 1.574e-21)
(1.004 0.003607 -2.786e-20)
(0.9102 -0.131 -4.702e-21)
(0.7225 -0.159 -7.885e-21)
(0.923 0.004322 -4.763e-20)
(0.9761 -0.008223 0)
(0.9927 0.001271 -9.347e-21)
(0.9163 -0.07787 -2.928e-22)
(1.052 -0.08078 -1.634e-20)
(0.4615 -0.1052 2.018e-20)
(0.9787 0.09217 0)
(0.7162 -0.0561 3.045e-23)
(0.9825 0.01896 7.676e-20)
(0.02741 0.05357 0)
(0.979 -0.0139 9.16e-22)
(0.1912 -0.05444 -6.193e-22)
(1.169 -0.2944 0)
(0.8627 -0.1071 -1.02e-23)
(0.9392 -0.1083 5.932e-21)
(0.6725 -0.1196 1.958e-20)
(0.8959 0.2553 -2.022e-21)
(0.1974 -0.08436 -4.041e-22)
(0.7687 -0.09216 5.365e-22)
(1.605 -0.08538 0)
(0.253 -0.06727 0)
(1.432 -0.1521 7.585e-21)
(0.9622 -0.08763 -1.031e-21)
(1.561 -0.1256 6.731e-21)
(1.215 -0.2584 0)
(0.359 1.259 1.17e-20)
(1.562 -0.1267 -7.522e-24)
(0.998 -0.002628 0)
(1.026 0.03746 0)
(1.417 -0.2435 0)
(0.4781 -0.1251 3.838e-21)
(0.9949 -0.0003398 0)
(0.9955 -0.2709 2.754e-21)
(1.249 -0.1827 2.337e-20)
(0.9459 -0.08138 1.377e-20)
(1.377 -0.2043 -1.653e-21)
(0.9119 -0.05605 2.415e-20)
(1.005 -0.0003591 0)
(-0.1501 0.3594 -2.345e-20)
(1.248 -0.1802 -2.744e-20)
(0.1516 -0.07001 8.125e-23)
(1.483 -0.1638 7.88e-22)
(0.2353 -0.1233 1.46e-21)
(0.01035 0.08018 -1.803e-20)
(1.191 -0.1677 2.476e-21)
(0.7938 -0.1908 0)
(0.4363 -0.1275 0)
(1.65 -0.02361 -1.687e-21)
(1.472 -0.1645 -6.892e-22)
(1.016 -0.0009304 7.376e-20)
(0.7256 -0.0642 4.194e-22)
(0.9686 0.04958 4.341e-20)
(2.046 0.7796 9.412e-22)
(0.9473 -0.09545 -8.812e-22)
(1.521 -0.1634 0)
(1.967 0.5577 6.651e-21)
(0.0003871 0.002342 0)
(0.5083 -0.1571 3.61e-21)
(0.189 1.008 -4.398e-22)
(0.9545 -0.06254 1.728e-23)
(1.624 1.184 2.852e-20)
(0.9818 0.004232 -1.532e-19)
(0.2405 -0.1264 0)
(1.027 0.03703 1.325e-22)
(0.185 -0.03658 0)
(1.169 -0.2945 -8.089e-21)
(-0.0003439 -0.001857 0)
(-0.002345 -0.009158 -2.935e-22)
(0.02244 -0.007348 9.206e-23)
(0.9991 -0.0001895 -6.404e-20)
(0.6309 -0.1501 0)
(1.767 0.06726 0)
(0.9876 0.01672 5.816e-20)
(0.8498 -0.1956 3.135e-21)
(0.5811 -0.1878 1.869e-20)
(0.4447 -0.1568 2.219e-21)
(0.9185 -0.1234 0)
(1.159 -0.2911 0)
(0.8568 -0.1051 8.398e-22)
(0.9993 -0.2741 -2.765e-21)
(0.3433 -0.06161 1.685e-21)
(0.9992 -0.002456 0)
(0.1342 -0.04431 6.709e-22)
(0.03446 -0.01224 0)
(0.5076 -0.1913 3.385e-21)
(0.7648 -0.07543 -2.296e-22)
(0.161 -0.06207 -3.52e-22)
(1.015 -0.01552 -2.283e-20)
(0.9504 -0.09883 2.199e-21)
(1.004 -0.0477 -1.546e-21)
(1.215 -0.2573 1.446e-20)
(0.993 -0.01393 0)
(0.6809 -0.05429 0)
(2.096 0.9539 0)
(0.1706 -0.05428 1.346e-21)
(0.9928 4.61e-05 0)
(1.416 -0.244 -4.442e-21)
(0.9262 -0.08223 1.253e-20)
(0.1737 -0.06841 9.989e-25)
(0.3948 -0.1166 8.609e-21)
(1.977 0.5709 1.803e-21)
(1.159 -0.2595 -4.014e-21)
(0.958 0.04288 3.433e-21)
(0.1018 -0.04655 -6.983e-22)
(0.5511 -0.1638 -1.07e-20)
(0.9948 -0.0003379 8.212e-21)
(0.7486 -0.1404 2.381e-20)
(1.432 -0.1609 -4.333e-20)
(0.8253 -0.07246 4.39e-22)
(0.9078 -0.06893 -3.293e-22)
(0.449 -0.1164 -4.083e-21)
(0.3227 -0.118 1.974e-22)
(1.17 -0.2956 4.158e-21)
(1.573 -0.06815 0)
(0.5399 -0.1919 4.764e-21)
(0.4162 -0.1538 0)
(0.4652 -0.1438 8.796e-23)
(1.026 -0.01084 -1.129e-20)
(0.5101 -0.0322 -9.48e-23)
(0.7444 -0.202 -3.292e-21)
(0.8005 -0.1198 -2.689e-21)
(0.9479 -0.1006 3.13e-21)
(0.227 -0.09351 -9.43e-22)
(1 0.002745 0)
(1 0.003651 2.548e-21)
(1.029 0.4277 1.799e-20)
(0.5967 -0.1387 -1.81e-21)
(1.607 1.254 0)
(0.9862 0.01971 -4.026e-20)
(1.004 -0.0001213 -8.546e-22)
(0.5686 -0.1571 0)
(0.4502 -0.1838 0)
(0.5507 -0.1806 4.7e-22)
(0.4343 -0.1275 0)
(-0.01066 0.02472 5.442e-21)
(0.008079 -0.005526 0)
(0.8126 -0.1563 -4.133e-21)
(1.039 0.04321 0)
(0.9976 -0.0009074 1.385e-20)
(0.2179 -0.08087 -7.927e-22)
(0.9891 -0.2719 -2.789e-21)
(0.8129 -0.1765 8.313e-21)
(1.001 -0.002586 2.531e-20)
(0.5955 0.003827 5.853e-21)
(0.9535 -0.09483 0)
(0.6138 -0.1502 5.216e-21)
(0.9965 -0.006543 3.677e-21)
(0.7012 -0.08912 -1.591e-22)
(0.9857 0.01943 7.495e-20)
(0.6243 -0.2008 -4.26e-22)
(0.1113 -0.03845 0)
(1.2 -0.2478 5.771e-22)
(0.9964 -3.424e-05 5.594e-22)
(0.3695 -0.1351 -9.706e-22)
(1.205 -0.2924 -1.66e-21)
(0.2356 -0.1245 -2.252e-20)
(1.005 -0.0003293 -3.245e-21)
(0.8985 -0.1355 -4.466e-21)
(0.1238 -0.04413 -3.478e-22)
(0.9927 0.001028 0)
(0.9378 -0.109 0)
(0.995 0.02524 -5.059e-22)
(0.9464 -0.0721 -5.525e-22)
(1.452 -0.1768 0)
(0.9911 0.01182 3.893e-20)
(0.4917 -0.1182 1.007e-20)
(0.8796 -0.1178 -1.07e-21)
(0.1712 -0.08289 0)
(1.467 -0.2162 -1.105e-20)
(1.434 -0.1963 -1.345e-21)
(0.8239 -0.09563 2.227e-21)
(0.8353 -0.1044 8.828e-22)
(-0.1464 0.5353 -1.163e-20)
(0.93 -0.08879 3.449e-22)
(2.016 1.144 3.185e-21)
(0.9027 -0.06056 3.619e-22)
(0.1392 -0.04738 3.942e-22)
(1.538 -0.1366 -2.306e-21)
(0.6985 -0.06555 -2.177e-22)
(1.001 -0.002519 0)
(0.8288 -0.1731 -2.324e-21)
(0.9894 0.01446 -1.64e-20)
(-0.0192 0.7719 -6.148e-21)
(1.064 0.006026 7.476e-20)
(1.438 -0.1985 1.266e-20)
(1.004 -0.0005897 0)
(1.001 0.02362 -1.216e-21)
(0.9622 -0.08056 -1.003e-20)
(0.52 -0.1903 2.497e-21)
(1.218 -0.2778 4.599e-21)
(1.002 -0.001358 2.063e-20)
(1 -0.003069 -3.107e-20)
(0.1839 -0.05659 8.619e-22)
(0.9897 0.1227 0)
(0.5414 -0.1247 4.52e-21)
(0.7452 -0.06587 5.825e-22)
(0.6556 -0.1662 0)
(0.4617 -0.104 -1.615e-20)
(1.157 -0.2962 -7.14e-22)
(0.4309 -0.1374 0)
(1.517 -0.1844 -2.555e-22)
(0.3999 -0.1235 -1.19e-20)
(1.054 -0.0744 0)
(1.002 -0.001432 -3.594e-21)
(1.729 -0.0707 1.025e-20)
(1.506 -0.1881 1.141e-21)
(0.8863 -0.1235 3.119e-21)
(1.388 -0.1585 0)
(0.9794 -0.01981 -1.002e-19)
(1.004 -0.00012 9.097e-23)
(1.434 -0.1817 -1.088e-20)
(0.2183 -0.1133 -5.337e-24)
(1.471 -0.1648 3.447e-21)
(0.0853 -0.03037 -7.656e-22)
(1.064 0.007695 0)
(1.004 -2.076e-05 -3.342e-23)
(0.428 -0.1084 0)
(1.52 -0.1307 0)
(0.9191 0.08491 -9.457e-20)
(0.9562 -0.1201 -4.746e-21)
(0.8911 -0.1002 0)
(0.9817 -0.04049 -4.115e-20)
(0.3038 -0.09569 3.72e-21)
(0.7926 -0.1672 -2.585e-21)
(1.502 -0.1877 7.079e-21)
(0.6818 -0.03198 -9.14e-20)
(0.006508 -0.002008 0)
(0.1436 -0.05244 0)
(0.2598 -0.06767 -4.721e-22)
(0.1958 -0.08432 7.518e-22)
(0.689 -0.1799 0)
(1.398 -0.2004 6.454e-21)
(0.7376 -0.09547 3.632e-22)
(1.079 -0.1621 0)
(0.9237 0.0187 -2.225e-20)
(1.589 -0.1427 1.231e-20)
(0.1708 -0.07487 0)
(1.325 -0.278 -6.837e-21)
(0.9997 -0.00229 7.19e-20)
(0.9021 -0.139 3.427e-21)
(0.6663 -0.1157 0)
(0.4237 0.3891 -3.596e-20)
(0.9928 1.506e-05 -3.229e-23)
(0.9997 -0.002355 -9.586e-20)
(-0.006929 -0.01229 0)
(0.9549 -0.06223 3.588e-21)
(0.8571 -0.1571 -3.455e-21)
(1.509 -0.1918 -7.031e-22)
(0.2177 -0.06764 0)
(1.101 -0.2563 1.618e-20)
(1.541 0.01403 0)
(0.6861 -0.05881 -2.425e-22)
(0.5912 0.2722 6.939e-20)
(0.7726 -0.2002 0)
(1.015 -0.001075 -2.651e-20)
(1.003 -0.001442 0)
(1.844 0.4772 0)
(1.164 0.4617 0)
(0.6985 -0.1272 7.218e-22)
(0.4259 0.3634 0)
(0.501 -0.2019 7.596e-21)
(0.7532 -0.2362 0)
(0.4986 -0.1912 -8.981e-21)
(1.092 -0.1511 7.976e-20)
(1.007 -0.1562 1.089e-20)
(0.9969 -1.383e-05 -1.4e-22)
(0.7096 -0.05163 1.704e-22)
(0.9136 -0.05656 3.363e-21)
(0.8269 -0.1872 -2.3e-21)
(-0.0008736 -0.003625 -5.224e-23)
(0.9049 -0.1336 -1.46e-21)
(1.549 -0.1209 -1.439e-20)
(0.9009 -0.2712 6.772e-21)
(0.9965 -2.649e-05 -5.429e-22)
(0.9484 -0.1014 -5.501e-23)
(0.9067 -0.08239 7.504e-22)
(0.01723 -0.006959 0)
(0.9672 -0.1631 -9.247e-22)
(1.253 -0.2614 1.148e-20)
(1.516 -0.1845 -3.831e-21)
(2.023 1.68 0)
(0.9628 -0.2471 5.929e-21)
(0.2702 -0.1134 1.864e-20)
(1.004 -0.2464 -8.151e-22)
(0.8022 -0.1903 1.032e-21)
(0.9493 -0.1015 -1.474e-21)
(0.9492 -0.09814 -1.048e-21)
(1.088 -0.2846 6.266e-21)
(0.8557 -0.1244 1.389e-20)
(0.007182 -0.0004392 0)
(0.6625 -0.116 0)
(0.9652 0.1249 1.552e-20)
(0.8184 -0.1758 -2.347e-21)
(0.4583 -0.1645 1.486e-20)
(0.9474 -0.09855 3.156e-22)
(1.007 -0.002889 0)
(0.1389 -0.06023 3.676e-22)
(1.006 -0.2135 -5.478e-21)
(0.5538 -0.1798 -4.226e-22)
(1.004 -4.065e-05 4.604e-25)
(0.08362 -0.03146 0)
(0.4714 -0.144 0)
(0.7076 -0.09008 -2.21e-21)
(0.9976 -8.382e-05 4.003e-22)
(1.032 -0.1586 6.522e-21)
(0.1647 -0.03636 0)
(0.9469 -0.1758 7.798e-21)
(1.599 -0.159 -6.17e-21)
(0.9974 -9.072e-05 -3.425e-22)
(0.7343 -0.2214 -1.3e-21)
(0.1872 -0.07651 0)
(0.3984 -0.09913 7.333e-21)
(1.352 -0.2663 0)
(0.9962 0.037 -1.013e-21)
(1.491 -0.1696 3.298e-21)
(-0.2828 0.8516 0)
(1.029 -0.004313 -2.443e-20)
(0.8746 -0.1505 4.296e-21)
(0.8266 -0.1456 0)
(1.422 -0.198 -7.46e-21)
(0.509 -0.1569 0)
(0.7514 -0.1371 -1.44e-20)
(0.9043 -0.1338 0)
(0.6431 -0.08057 -4.03e-22)
(0.2913 -0.1016 0)
(0.9936 -8.424e-06 -4.667e-22)
(0.7244 -0.2183 1.257e-21)
(1.034 -0.195 4.43e-22)
(0.5135 -0.04129 0)
(0.8271 -0.1192 -1.95e-21)
(1.408 -0.05561 0)
(0.8642 -0.203 0)
(0.3288 -0.1188 4.912e-23)
(0.9931 2.987e-05 -1.682e-22)
(0.4562 -0.1607 -2.224e-21)
(0.3064 -0.09418 0)
(1.477 -0.1683 0)
(0.00553 0.00285 5.77e-23)
(1.477 -0.1676 -3.812e-21)
(0.1706 -0.05387 -2.109e-21)
(1.39 -0.2588 -1.529e-21)
(0.1941 -0.04323 0)
(0.8027 -0.1603 0)
(0.9992 -0.0002141 3.156e-20)
(0.00385 -0.00155 3.959e-23)
(0.6566 -0.1848 6.109e-21)
(1.478 -0.2184 9.521e-21)
(0.1871 -0.07282 -3.591e-22)
(0.3561 -0.05023 -3.453e-21)
(0.08951 -0.01921 3.404e-21)
(0.3813 -0.1354 -8.257e-22)
(0.8652 -0.07276 0)
(0.9974 -0.000841 0)
(0.9835 -0.1987 0)
(0.94 -0.109 -1.154e-23)
(0.9971 -4.454e-05 0)
(0.3277 -0.08049 -4.354e-21)
(2.044 0.7762 0)
(0.9033 -0.1334 -3.215e-21)
(0.601 -0.1866 -5.851e-21)
(1.006 -0.0001814 -1.344e-20)
(1.168 -0.2989 0)
(0.1279 -0.05752 0)
(1.016 -0.0007581 -8.613e-20)
(1.006 -0.0002008 0)
(1.385 -0.1607 0)
(1.007 -0.2462 2.482e-21)
(0.6559 -0.169 1.422e-21)
(0.08443 -0.03102 1.659e-21)
(0.6098 -0.1931 7.93e-22)
(0.1373 -0.007826 -2.173e-23)
(0.9317 -0.1154 0)
(0.509 0.05923 -6.181e-20)
(0.9999 -0.002403 0)
(0.6708 -0.1847 -2.697e-21)
(0.2023 -0.04552 0)
(0.7857 -0.05617 3.214e-22)
(0.6504 -0.05387 0)
(0.4545 -0.02763 -4.532e-20)
(1.002 -0.0009941 0)
(1.015 -0.01501 2.619e-21)
(0.9837 -0.04238 2.232e-20)
(0.6167 0.006297 6.863e-21)
(0.9999 -0.002274 1.261e-20)
(1.078 -0.1405 -2.79e-20)
(0.1419 -0.07024 4.864e-21)
(0.9297 -0.1148 -3.769e-21)
(0.6732 -0.09297 2.441e-21)
(1 -0.002866 0)
(0.1269 -0.04953 8.089e-22)
(0.9364 -0.1106 1.963e-21)
(1.005 0.01116 0)
(0.8101 -0.09803 -9.731e-22)
(0.9956 -0.0003892 0)
(0.317 -0.118 2.328e-20)
(-0.4586 0.7527 -8.806e-22)
(1.344 -0.1752 -1.494e-22)
(1.518 -0.1303 0)
(0.3989 -0.0257 -1.734e-22)
(0.9745 -0.01655 5.013e-21)
(0.4336 -0.1194 0)
(0.6676 -0.03958 -2.16e-20)
(0.6874 -0.05852 0)
(0.1858 -0.08167 5.266e-22)
(0.749 -0.09851 -5.783e-22)
(1.539 2.135 -6.933e-21)
(1.411 -0.05066 -1.711e-20)
(0.8568 -0.1346 -6.921e-21)
(0.5236 -0.1124 2.844e-23)
(0.3552 -0.06651 0)
(1.004 0.0144 0)
(1.308 -0.2139 2.433e-20)
(0.6749 -0.2119 0)
(2.072 0.3865 5.638e-22)
(0.1717 -0.07527 -1.998e-22)
(0.5662 -0.09277 0)
(1.002 -0.0009487 0)
(1.023 -0.0977 1.197e-20)
(0.2178 -0.08075 3.931e-22)
(0.6017 -0.1385 -7.552e-21)
(0.3804 -0.02056 3.138e-20)
(1.847 0.1599 0)
(-0.1813 0.2106 -1.896e-21)
(1.937 0.227 -2.069e-21)
(0.1793 0.0297 2.351e-20)
(0.8893 -0.2091 -3.061e-21)
(0.1764 -0.07163 -5.349e-22)
(0.9822 -0.198 1.347e-21)
(0.2922 -0.02238 -4.85e-22)
(1.037 0.05732 -1.469e-20)
(0.9124 -0.1299 0)
(1.005 -1.103e-05 0)
(0.9963 -1.913e-05 0)
(1.443 -0.211 5.817e-21)
(1.087 0.02537 3.867e-21)
(1.568 -0.1839 9.643e-21)
(0.9119 -0.1352 4.934e-21)
(0.2552 1.31 0)
(0.9564 -0.09152 8.092e-21)
(1.04 -0.05323 -2.172e-20)
(2.092 0.8201 8.169e-21)
(0.8123 -0.178 4.117e-21)
(1.016 -0.0135 5.223e-20)
(1.01 -0.1977 -1.634e-22)
(0.4144 -0.09168 -1.13e-22)
(1.04 -0.05124 3.169e-20)
(0.5168 -0.1189 -1.114e-20)
(-0.08978 0.03111 -1.47e-21)
(0.1145 -0.0287 0)
(0.8462 -0.1603 0)
(-0.3494 0.582 -3.766e-21)
(1.292 -0.2461 0)
(0.04693 -0.01623 0)
(0.9861 0.005168 5.178e-20)
(1.519 -0.1621 5.785e-21)
(0.8267 -0.1879 2.327e-21)
(1.005 -0.01191 0)
(0.5 -0.1252 4.932e-21)
(0.7162 -0.1962 0)
(1.043 -0.2634 -2.124e-21)
(0.995 -0.0003142 4.101e-21)
(0.9691 -0.02092 3.002e-21)
(1.037 -0.202 0)
(0.09352 -0.006891 -6.883e-23)
(0.6152 -0.1647 -1.361e-20)
(-0.08509 0.02932 0)
(1.065 -0.2877 3.265e-21)
(0.44 -0.1471 0)
(0.8246 -0.174 -8.288e-22)
(0.1166 -0.04298 0)
(1.554 -0.1058 1.995e-21)
(0.996 -2.606e-05 1.16e-22)
(0.1941 -0.105 0)
(1.622 0.3638 -3.199e-20)
(1.005 -2.18e-05 0)
(0.4984 -0.1278 4.224e-22)
(0.04578 -0.01647 -3.001e-22)
(1.16 -0.238 -7.328e-21)
(1.901 0.1192 -6.707e-21)
(0.9695 -0.06859 -1.659e-21)
(0.9011 -0.1293 -1.644e-21)
(0.1042 -0.03738 -1.149e-25)
(0.122 -0.01763 1.678e-22)
(0.8902 -0.09351 0)
(1.038 0.04358 -3.819e-20)
(0.9962 0.009736 6.249e-21)
(0.8614 -0.1548 0)
(0.3893 -0.09868 -4.547e-21)
(0.3917 -0.1465 -1.352e-21)
(0.5482 -0.1255 0)
(0.4368 1.641 1.648e-20)
(0.4782 -0.1977 -4.148e-21)
(0.6327 -0.03094 -3.001e-22)
(1.326 0.01247 -4.053e-20)
(0.4834 -0.198 -4.111e-21)
(1.108 -0.08417 4.777e-20)
(0.6989 -0.0482 0)
(1.008 -0.001626 0)
(0.5247 -0.04388 1.993e-22)
(0.1174 -0.05665 4.471e-23)
(1.373 -0.2445 -1.399e-20)
(0.5291 -0.1396 0)
(0.9746 -0.2651 0)
(0.9918 0.00873 -2.998e-20)
(0.969 0.022 2.417e-20)
(0.154 -0.0684 0)
(0.7848 -0.1139 3.327e-20)
(0.1616 -0.07919 0)
(0.9055 -0.117 0)
(0.08838 -0.04474 -1.323e-21)
(0.4667 -0.1758 -7.186e-22)
(1.47 -0.1594 -3.1e-21)
(1.728 0.01079 -1.837e-21)
(1.601 -0.1254 -1.041e-20)
(0.3338 -0.05072 1.32e-21)
(1.488 -0.1807 -8.2e-21)
(0.7459 -0.05596 -2.741e-22)
(0.314 -0.09672 4.513e-21)
(0.9366 -0.1105 4.651e-21)
(0.727 -0.1556 5.275e-21)
(0.723 1.883 -8.002e-21)
(0.1301 0.00403 -7.301e-23)
(0.09984 -0.04551 -2.818e-22)
(0.05928 -0.0209 0)
(0.952 -0.2595 0)
(1.007 -0.002768 0)
(1.005 -0.005022 4.302e-20)
(0.8173 -0.2406 1.218e-21)
(0.2265 -0.1038 0)
(0.8853 -0.1266 -2.006e-20)
(1.006 2.714e-05 0)
(0.3864 -0.1224 -1.53e-20)
(1.156 -0.2963 3.559e-21)
(0.966 -0.07787 7.225e-21)
(0.04188 -0.008654 0)
(1.441 -0.1745 -1.935e-20)
(0.3315 -0.1015 -5.075e-21)
(1.711 0.9218 -3.955e-20)
(0.9999 0.001395 -2.248e-20)
(0.8613 -0.1233 0)
(0.9703 -0.06686 3.572e-21)
(0.4644 -0.1811 0)
(0.6112 -0.0465 0)
(0.1436 -0.04388 -2.043e-22)
(0.5134 -0.01891 3.468e-20)
(1.285 -0.2191 4.681e-20)
(0.7177 -0.1312 0)
(0.8834 -0.08264 2.333e-22)
(0.9676 -0.08052 0)
(0.9185 -0.2665 0)
(0.3964 -0.1374 1.678e-20)
(0.9395 -0.108 -1.448e-21)
(0.2059 -0.02364 0)
(0.4461 -0.1918 -5.426e-21)
(1.009 -0.01606 -1.939e-21)
(0.0008839 -0.001304 0)
(0.1215 -0.04516 0)
(1.037 -0.1975 0)
(1.499 -0.2117 1.3e-20)
(-0.3685 0.6433 -4.158e-21)
(1.012 0.02462 -5.51e-21)
(0.1192 -0.02781 7.006e-21)
(0.3278 -0.06407 0)
(0.9976 -0.000452 0)
(0.997 -9.572e-05 -2.805e-20)
(1.533 -0.1634 3.035e-24)
(1.245 -0.2826 1.354e-20)
(0.03891 -0.01453 3.179e-22)
(0.1782 -0.07939 -2.351e-22)
(0.912 -0.1296 7.196e-22)
(0.5689 -0.2024 0)
(0.3467 -0.1273 -1.326e-21)
(0.8705 -0.1225 0)
(0.9191 -0.1078 0)
(0.972 -0.0214 -5.51e-20)
(0.3025 -0.1079 -3.114e-21)
(0.2228 -0.04974 0)
(0.352 -0.1299 -1.386e-21)
(0.8341 -0.1528 0)
(0.1586 -0.06141 -3.696e-22)
(0.4289 -0.1335 -6.49e-22)
(0.9997 -0.001867 -1.611e-21)
(0.3453 -0.04753 0)
(0.1783 -0.04184 1.715e-21)
(0.9976 -0.0007777 -1.062e-19)
(1.218 -0.1733 -3.895e-21)
(0.9979 -0.0004898 -1.119e-20)
(0.9861 0.001086 4.806e-20)
(0.9235 -0.1202 -1.82e-21)
(0.8621 -0.0968 0)
(0.3399 -0.03289 -3.864e-20)
(0.9957 -0.00214 1.078e-20)
(0.8097 -0.09674 1.129e-22)
(1.007 0.006714 0)
(2.056 0.8229 0)
(0.8765 -0.08889 -2.62e-20)
(0.9931 -0.1862 1.193e-21)
(0.9454 -0.1041 2.804e-21)
(0.8395 -0.1625 5.431e-22)
(0.8815 -0.1272 0)
(0.301 -0.09964 9.286e-21)
(0.9449 -0.1028 -3.433e-21)
(0.999 -0.005546 1.1e-20)
(0.9673 -0.0403 -6.396e-20)
(1.375 -0.24 7.102e-21)
(0.8693 -0.1585 -1.527e-21)
(0.07562 -0.02193 -4.393e-22)
(0.306 -0.1076 0)
(0.3773 -0.02771 -3.881e-24)
(0.2788 -0.09912 -1.433e-21)
(0.1066 -0.03228 -1.656e-20)
(1.449 -0.2142 1.2e-20)
(0.7508 -0.205 0)
(1.772 0.03651 -1.509e-20)
(0.8606 -0.09103 1.654e-22)
(0.6485 -0.07934 0)
(1.101 0.7427 -1.392e-20)
(0.99 -0.2007 0)
(1.004 -0.01245 9.381e-21)
(0.7823 -0.1532 1.37e-20)
(0.151 -0.06688 -3.754e-22)
(0.7443 -0.1256 0)
(0.9964 -0.000134 8.123e-22)
(0.05184 0.009474 6.893e-20)
(1.177 -0.2964 0)
(0.9583 -0.09259 -1.511e-22)
(0.7416 -0.1939 1.564e-21)
(1.539 -0.1842 -9.537e-22)
(0.9328 -0.1076 5.011e-21)
(0.5001 -0.1089 0)
(1.171 -0.28 7.551e-21)
(0.9582 -0.09272 -4.561e-22)
(0.1468 -0.04446 2.875e-23)
(0.7532 -0.2014 -5.779e-21)
(0.1867 -0.08234 -5.826e-22)
(0.9981 -0.0009183 0)
(0.9696 -0.07542 1.126e-21)
(0.8271 -0.1543 0)
(0.9736 -0.01366 0)
(0.8964 -0.1839 0)
(1.078 -0.1105 1.628e-21)
(0.9965 -8.876e-06 4.501e-21)
(0.8184 -0.155 9.99e-21)
(0.1617 -0.06852 0)
(0.9513 -0.04094 0)
(1.134 0.7313 5.143e-20)
(1.303 -0.2383 0)
(0.1718 -0.0301 0)
(0.8919 -0.106 2.067e-20)
(1.007 4.247e-05 -1.95e-22)
(0.7466 -0.1694 -1.541e-22)
(0.4469 -0.1324 -2.554e-22)
(1.016 -0.007187 4.685e-20)
(1.193 0.62 -4.265e-20)
(1.136 0.07282 2.025e-20)
(1.132 -0.2936 5.292e-21)
(0.5479 -0.146 -5.204e-21)
(0.885 -0.1431 4.451e-21)
(1.042 -0.04942 0)
(0.1781 -0.07114 2.105e-22)
(0.06549 -0.02401 -7.716e-22)
(0.8387 -0.1751 -2.699e-22)
(0.8982 -0.1401 2.147e-21)
(1.046 -0.2883 -1.964e-21)
(0.2854 -0.02532 0)
(0.9958 -0.0002261 -4.448e-22)
(0.9394 -0.09746 -1.12e-21)
(1.009 0.008517 1.025e-21)
(0.7012 -0.2041 0)
(0.3136 -0.06955 -1.458e-20)
(1.181 -0.2017 0)
(0.7429 -0.194 1.405e-20)
(0.1928 -0.0831 2.668e-22)
(0.4062 -0.06689 0)
(0.9994 0.005829 -5.793e-21)
(0.02655 -0.009601 0)
(0.245 -0.06384 0)
(0.262 -0.06758 4.088e-21)
(0.965 -0.08603 -1.32e-21)
(2.14 0.6307 0)
(1.156 -0.2881 -5.722e-21)
(0.9681 -0.1666 -1.661e-22)
(0.5954 -0.04644 0)
(0.9178 -0.1237 0)
(0.857 0.1322 -9.813e-20)
(0.04847 -0.001134 -6.176e-22)
(0.1952 -0.09455 3.406e-22)
(0.8665 -0.06494 0)
(0.786 -0.1628 -3.302e-21)
(0.9086 -0.1346 0)
(0.1288 -0.0135 -6.481e-20)
(0.1585 -0.03214 -2.099e-21)
(-0.09085 0.0306 1.581e-22)
(0.884 -0.1442 8.998e-22)
(0.4158 -0.1484 0)
(1.523 -0.128 0)
(0.8569 -0.104 -1.339e-21)
(0.8758 -0.08941 5.618e-22)
(1.152 -0.2406 0)
(0.05363 -0.008422 0)
(0.9475 -0.07046 -5.633e-21)
(0.8314 -0.1703 -4.664e-21)
(0.9266 -0.08146 0)
(0.8331 -0.1412 1.521e-21)
(0.9936 4.169e-05 0)
(1.004 -0.001146 1.534e-19)
(1.406 -0.194 -1.613e-20)
(0.2598 -0.01726 -1.848e-22)
(0.5219 -0.1208 1.799e-22)
(1.004 -0.0271 6.627e-21)
(0.1666 -0.03327 -7.61e-21)
(0.01289 -0.01128 1.527e-21)
(0.995 0.01154 -1.891e-20)
(1.192 0.1627 0)
(0.9238 -0.1222 4.089e-22)
(1.484 -0.1504 0)
(-0.00105 0.0105 0)
(0.7165 -0.1664 -1.197e-20)
(0.1591 -0.06925 4.365e-22)
(0.009336 -0.002959 0)
(1.012 -0.1979 -1.393e-22)
(-0.09946 0.03655 3.132e-21)
(0.9963 -0.292 3.433e-21)
(0.9323 -0.1148 0)
(0.6271 -0.06654 9.843e-21)
(0.8937 -0.1278 5.968e-22)
(0.6814 -0.06137 -9.888e-22)
(0.458 -0.1365 -6.662e-21)
(1.074 -0.1748 0)