/*--------------------------------*- C++ -*----------------------------------*\
  =========                 |
  \\      /  F ield         | OpenFOAM: The Open Source CFD Toolbox
   \\    /   O peration     | Website:  https://openfoam.org
    \\  /    A nd           | Version:  8
     \\/     M anipulation  |
\*---------------------------------------------------------------------------*/
FoamFile
{
    version     2.0;
    format      ascii;
    class       volScalarField;
    location    "45";
    object      k;
}
// * * * * * * * * * * * * * * * * * * * * * * * * * * * * * * * * * * * * * //

dimensions      [0 2 -2 0 0 0 0];

internalField   nonuniform List<scalar> 
127143
(
2.424e-13
9.923e-13
1.804e-11
9.302e-11
3.758e-11
9.863e-11
1.196e-09
2.148e-10
1.08e-10
1.935e-10
1.885e-09
3.015e-10
1.314e-10
1.618e-10
0.0001461
4.68e-09
6.833e-11
0.06622
0.03763
5.34e-08
0.01114
2.555e-06
0.0001535
3.514e-05
2.303e-06
2.016e-06
4.992e-07
5.789e-07
1.262e-06
0.07111
2.45e-05
2.117e-06
4.268e-07
5.422e-05
0.0001506
4.136e-07
0.008627
0.04982
4.764e-05
1.812e-06
0.03787
0.0001524
0.0001521
9.871e-10
0.06502
6.243e-05
1.139e-06
0.01472
2.792e-05
4.684e-05
1.087e-08
0.0001492
0.01621
0.0001535
0.0001395
1.663e-05
0.0001394
0.0001658
0.0001468
0.0001534
0.0001523
0.02159
5.652e-05
0.0001482
0.0005129
0.0001564
0.0001508
5.757e-05
5.743e-05
0.0002548
3.238e-05
1.044e-06
0.03828
0.0001468
0.0001458
1.197e-06
0.0001471
0.007145
1.651e-05
0.000149
1.135e-06
5.18e-08
0.0003679
3.743e-06
0.03314
0.008482
5.057e-05
1.858e-07
0.0001556
0.0001297
0.0001469
0.01139
0.0001832
0.01128
0.004821
0.0001711
0.0001523
1.231e-05
0.009707
0.0001508
0.0001489
2.927e-05
4.729e-05
0.0001422
0.008862
0.009387
4.679e-05
0.0002559
0.0001592
0.0001424
0.0001648
1.628e-07
0.008103
0.000157
0.0001454
0.0001645
0.0001473
0.0001459
0.0001471
1.877e-07
0.0001425
0.0004325
0.0001373
0.0001608
1.305e-06
7.059e-07
0.01668
0.0001482
0.007303
1.425e-05
0.004706
0.004152
5.899e-05
0.007325
2.23e-09
0.004911
0.0001552
0.01456
3.445e-06
0.0001531
0.0001538
0.0001465
0.01724
0.02214
0.01673
0.0001843
4.931e-06
0.0001483
0.00388
2.54e-05
0.0001153
3.296e-05
0.05285
0.0001514
0.0002114
0.03324
0.0001658
1.389e-05
0.01497
7.155e-06
3.972e-05
7.978e-09
0.000147
0.004733
2.973e-06
0.0007695
0.006082
0.0001543
1.765e-05
0.0001486
0.002329
0.02199
0.0001626
0.0001468
0.0007901
0.023
0.0001776
0.007414
3.995e-05
0.0001558
0.0001472
0.0001549
0.0244
0.02324
1.479e-05
0.02211
0.000151
0.0001567
3.914e-05
0.0001546
0.009062
0.005719
0.0001547
0.0001989
1.16e-09
0.01758
0.0001286
0.0001281
6.031e-09
0.0001456
0.0001451
0.0001488
0.01193
0.009328
7.255e-10
6.123e-05
0.0001527
0.0001149
0.06938
0.0001454
0.0007096
0.03091
0.0001447
1.88e-05
0.00286
1.892e-09
0.0002883
0.0001198
0.006022
0.0001527
0.0001715
0.0001462
3.28e-05
0.0192
6.809e-06
0.001565
6.317e-06
0.05157
0.004101
0.01299
0.01059
0.0001547
0.0385
2.173e-06
0.01072
0.0001564
0.004723
6.574e-12
0.0001451
0.01042
0.006021
0.0006186
0.02118
1.385e-05
0.04495
2.22e-07
4.264e-05
7.076e-07
1.096e-07
0.0003117
0.0001576
2.289e-06
0.0001214
0.01527
2.427e-05
0.0001603
0.0001482
3.302e-05
0.0001653
0.0001504
0.01816
0.0001515
0.006001
0.0001464
0.02329
0.0005679
0.001157
0.0001974
0.0001538
0.0005276
5.005e-06
0.0007803
0.01807
0.01002
5.658e-05
0.009578
0.008272
3.519e-05
0.00154
0.0001712
0.0002631
0.0001906
0.0001426
0.0001455
0.0001454
1.033e-09
0.004428
0.0001454
3.514e-05
0.0001563
0.05269
0.0001564
0.0001564
0.0001609
0.0001451
0.0001671
2.457e-05
0.01344
0.02109
0.0004408
1.012e-05
0.0001572
0.0001538
0.0001652
5.279e-06
0.0001927
0.000115
0.0001448
0.03394
8.267e-05
4.501e-05
0.005267
1.22e-05
0.0002248
0.0001453
0.0001392
0.0397
1.031e-05
0.0001617
0.008585
0.0001533
3.151e-05
0.0001509
0.0001209
0.0001338
0.03377
0.0001499
0.01576
3.376e-05
0.0001691
0.01714
0.0001454
0.0001506
0.0001287
0.0001281
0.0001514
0.0001594
0.0001627
0.01713
0.003852
0.0001531
0.0001195
0.01907
0.01037
0.0001596
3.503e-05
0.00127
0.006966
1.123e-05
0.004194
1.519e-05
0.03553
0.0205
0.009915
0.0001491
0.001516
0.01502
0.0001796
0.0001485
3.308e-05
0.02163
5.572e-05
0.06186
5.082e-05
4.734e-05
0.0001468
0.0001456
0.004631
0.000397
0.001511
0.0001539
0.000151
4.402e-06
4.704e-05
0.0001539
0.0001531
2.471e-05
8.456e-06
0.01074
0.001651
0.05699
9.545e-07
1.678e-05
0.0001571
0.0001472
9.785e-08
0.0001499
2.247e-06
0.01692
0.04674
0.0001458
0.0001527
0.00326
2.674e-05
3.889e-05
2.29e-05
0.0001527
3.164e-05
0.000149
0.0001513
3.055e-06
0.0001462
0.01215
0.02486
0.00015
0.0001004
0.009571
6.036e-05
0.000149
4.395e-05
0.0001808
1.051e-05
0.0001539
0.01507
0.0001525
0.00503
0.008093
4.647e-06
0.04568
5.869e-05
0.0064
1.008e-05
0.00223
0.0002547
0.01266
0.0001506
0.0001519
0.0001524
0.0008236
0.0001527
0.0001412
0.002219
0.01942
0.02152
0.002267
0.0001468
0.0001012
0.001658
0.0001491
0.0001451
0.0001453
5.096e-05
0.0001553
0.0001618
0.0001478
1.313e-05
0.0001453
0.0001445
0.005035
0.03105
0.01052
2.083e-05
0.0001081
0.0002549
0.0001498
0.01159
8.966e-06
0.0009016
0.01097
0.01747
6.335e-05
0.01272
0.03126
0.0001539
0.01204
0.0005949
0.0001461
0.01317
0.0008291
0.0001386
0.01159
0.001948
0.0001609
0.04183
0.0001525
0.0001347
0.0002173
0.001129
0.001757
0.02742
1.562e-06
0.0001582
0.001038
1.26e-05
0.0001784
0.002229
0.03345
0.0001446
1.165e-05
0.0001466
0.0001795
5.216e-05
0.01436
0.0001848
6.982e-09
0.00407
0.0001542
0.0001589
0.0001548
0.0001448
1.304e-06
0.0001461
0.0188
0.01827
3.721e-11
9.984e-09
1.318e-07
0.000147
0.001606
0.001353
0.0001453
0.02105
0.0001153
0.004781
0.000145
0.0102
2.075e-05
0.01168
7.706e-06
0.0005093
0.03079
5.932e-07
4.65e-05
1.157e-05
0.003102
0.0001465
0.000119
0.007201
0.03272
0.000146
9.444e-06
9.361e-06
0.002689
0.0001303
0.01304
0.000156
0.001405
0.0001809
1.048e-05
0.03433
0.0001467
0.003407
0.0001772
0.0001387
0.0001571
0.0389
2.94e-05
5.107e-05
0.0007075
0.0002546
0.01739
0.001866
7.318e-05
0.005654
0.002382
0.000146
3.166e-06
0.005485
8.113e-06
5.662e-05
0.01995
0.0001483
0.0001479
0.0001503
0.001188
0.0001561
0.0001453
0.0001471
0.000172
2.637e-05
0.00972
0.0001784
0.0002531
7.83e-06
0.0001679
0.0001467
0.0001426
0.002037
0.01016
8.208e-05
0.0001615
1.516e-06
6.336e-05
0.002978
0.001621
3.984e-06
0.0001453
0.01005
0.02673
0.04357
0.0001405
0.001245
0.01825
8.789e-08
0.0001346
4.805e-05
0.0003219
0.0001453
0.0001007
0.0001454
6.015e-05
0.02987
0.0001455
0.0005727
2.238e-05
0.006375
0.004902
0.02068
1.588e-05
1.732e-05
0.0001863
5.042e-05
0.0001969
5.313e-05
0.01782
0.01729
7.266e-06
0.0001509
1.576e-05
0.0001454
0.0001577
0.0001482
0.01818
0.0001413
0.0001454
0.0001659
5.96e-05
0.008537
0.0001386
0.0001411
0.004779
1.018e-06
0.0006966
1.382e-05
0.03107
0.0001614
0.01056
0.0001806
0.01067
0.001461
0.0002336
0.0001387
0.001567
0.01096
0.0001637
0.005966
0.0001472
0.0001468
0.0373
4.897e-06
0.03338
2.488e-05
0.0001481
0.0001563
0.00381
0.003219
0.0001487
0.001099
0.0001557
0.0001629
0.0006932
0.0001635
0.01154
0.0001519
1.66e-09
0.00195
0.01116
0.01148
0.004532
0.002592
5.127e-06
0.001037
0.0001486
0.009046
0.01585
0.01253
0.0001416
3.61e-05
0.0001547
0.0001516
0.0001302
0.0001415
4.368e-06
0.000159
1.917e-05
0.003933
0.0001527
0.0338
0.0001562
9.747e-06
0.000151
2.662e-05
0.0001446
0.0001393
0.0001588
0.0001506
0.000533
0.0001516
6.903e-06
0.02716
3.638e-05
0.0003239
0.06243
0.0001551
1.656e-05
0.0001526
2.188e-05
2.168e-09
7.49e-05
0.02537
0.01117
0.0001432
5.252e-05
4.545e-05
1.292e-05
0.04797
0.02516
0.01065
3.234e-05
0.007956
7.107e-05
0.03014
3.104e-05
5.11e-05
8.321e-05
0.01704
0.0001582
4.809e-13
0.0001546
0.0001486
5.586e-05
0.0001368
5.065e-05
0.000144
0.02111
0.03589
0.009875
0.0001616
2.042e-05
0.002477
4.239e-06
0.0001792
0.0008586
0.01557
0.001848
0.006637
0.0001644
0.01167
0.005211
0.0005462
0.01474
0.0001457
0.01942
0.0002323
0.0001457
0.0001166
0.0001646
0.002853
0.004129
0.0001565
7.483e-05
1.835e-06
0.00156
0.0001278
0.01161
0.02249
2.455e-06
1.134e-05
0.0001539
0.02142
0.0003085
0.0001282
0.005029
0.0007346
0.02599
4.171e-06
0.02683
0.002886
0.009689
0.02355
0.000168
0.0001469
6.657e-10
0.004844
0.00534
0.0005817
0.01163
0.002973
0.003075
4.048e-05
0.0001424
0.03973
0.0001431
0.0001591
0.002361
0.0001797
4.641e-05
0.0001342
0.0001363
0.01101
0.02193
0.0001446
0.0001359
0.006256
0.02121
0.03088
0.003715
0.01029
1.372e-08
0.0001315
0.000152
0.0001417
0.007424
0.007328
2.778e-05
7.407e-06
0.000154
0.0002127
0.0001462
0.002198
7.977e-07
0.0001419
0.0002451
1.225e-05
5.292e-05
1.461e-06
0.0001531
0.02804
5.105e-05
0.0001459
1.127e-05
0.0001416
0.0001375
1.333e-05
0.001976
0.03739
8.904e-07
0.0001464
0.0006224
0.000152
1.006e-05
0.01208
6.017e-06
3.174e-05
0.0001538
0.0001633
0.0001581
1.72e-08
0.0001457
0.05601
2.001e-05
4.961e-05
0.01554
2.239e-07
0.0002073
0.001188
0.002011
1.656e-06
7.708e-07
0.0001947
6.399e-09
9.7e-05
1.37e-09
0.004098
0.0006903
0.04019
2.09e-07
0.0001471
4.375e-05
0.000139
0.0001386
0.01477
0.0001492
0.006915
0.04536
0.0001563
0.0001622
0.0001547
0.0001137
5.456e-05
0.0001458
0.0445
0.006868
0.0001546
0.000521
3.569e-07
0.027
0.0001323
0.0001583
0.02756
0.002524
0.000145
0.01487
2.23e-05
0.0001481
0.0007034
0.005472
0.02291
0.0001379
0.008262
0.05139
4.484e-09
0.0001723
3.233e-07
0.01192
0.0001757
6.192e-05
0.0001982
0.001385
0.000134
4.456e-06
0.0001524
0.0001345
0.0001658
1.984e-06
0.05401
6.333e-05
0.0001053
0.0001601
8.292e-05
3.095e-09
3.442e-05
0.0001467
0.0001461
0.0001269
0.0001731
0.003994
0.0007653
0.0001644
4.752e-06
0.01126
0.0001518
4.39e-06
0.0001532
9.94e-06
0.0001444
0.01345
0.003431
0.01729
0.002305
0.01008
0.0001457
0.0001457
0.000781
0.0001541
0.006923
3.13e-05
0.002241
0.02223
0.04316
0.002586
0.003167
2.37e-08
0.01519
1.856e-05
0.0005074
0.0001056
0.01922
0.0001998
0.003053
0.001805
6.261e-06
0.009759
0.000144
0.0001429
0.01283
0.01535
0.0001648
0.0001389
0.0001813
0.01047
0.0001662
0.002095
0.04258
0.001102
0.0001541
0.000149
0.0001586
0.0001681
7.897e-07
5.376e-06
0.01682
0.0001529
0.05733
0.0004446
3.731e-05
6.484e-05
0.02684
0.0001672
4.794e-05
0.006253
3.665e-06
0.0001483
4.224e-06
0.0001895
0.02289
0.005094
0.0001532
0.0001454
5.178e-07
2.686e-08
0.0001378
0.0001441
0.01269
0.009345
9.713e-07
0.01469
4.412e-05
3.248e-05
0.0007879
0.00016
0.0001637
0.000148
0.0006094
0.0349
0.001562
0.0001663
0.0008686
0.008089
0.0001581
3.309e-08
0.01217
0.0001453
0.001155
0.0001462
0.0001447
8.739e-05
0.0001538
1.595e-06
0.0001442
1.247e-05
0.000146
0.0001738
0.0001536
0.04675
0.0001287
1.427e-05
2.121e-05
0.0005731
5.789e-05
0.0002107
0.0001552
0.01782
3.451e-05
0.003177
0.000941
5.655e-07
0.0005338
3.016e-07
0.004458
2.451e-05
0.000139
2.748e-05
1.686e-06
0.0001511
0.04019
0.0001939
0.001224
0.01822
5.012e-06
0.0002152
8.334e-05
0.01481
5.394e-05
6.95e-05
0.009052
0.0001643
0.0002492
0.02354
5.399e-05
0.01027
1.213e-05
0.01181
0.0001376
7.099e-05
0.001166
0.0001459
0.00249
0.001141
0.0001378
0.0001676
0.01289
0.0001533
0.0001511
0.03209
0.01886
0.0001568
0.0001314
0.002526
0.001967
0.0001446
0.0001509
0.0001499
0.01048
0.001633
0.0001377
0.0001541
0.003469
7.743e-06
1.567e-05
2.73e-05
0.01405
1.975e-07
0.0002451
4.945e-05
0.0001456
0.006913
0.0001786
0.003366
6.893e-05
0.00458
7.969e-06
0.0001471
1.471e-07
0.000159
0.0002644
5.46e-05
4.073e-05
0.02131
0.04827
4.89e-06
4.928e-05
0.0001497
2e-10
0.01353
4.305e-05
8.806e-06
3.607e-05
0.0001571
0.01985
9.492e-05
4.761e-05
0.004024
0.03611
2.125e-05
3.059e-05
0.05083
3e-07
0.0001579
4.818e-05
0.0001559
1.269e-05
0.0001307
0.0001448
0.03788
1.163e-07
0.01194
0.004708
4.667e-07
0.0009636
0.0001458
1.631e-06
4.551e-05
0.04551
3.304e-06
0.0001691
0.008592
5.276e-09
0.0447
2.179e-05
0.01476
4.984e-05
6.804e-05
2.458e-05
6.635e-06
0.0001793
0.001459
0.0001573
0.06391
0.0005262
0.003181
0.0001589
6.022e-05
0.02646
0.0001354
0.01867
0.0001601
0.02789
0.0001523
0.0001557
0.000123
2.848e-07
0.0001501
1.331e-06
7.82e-05
0.005762
0.005473
0.0001459
0.01749
0.008474
0.0001581
9.111e-05
9.16e-06
5.722e-06
0.0001427
2.047e-05
0.002647
0.008465
4.194e-08
0.01319
0.03314
0.001753
0.0001459
0.001643
0.005056
6.413e-07
0.00372
0.000161
0.01436
0.0001454
9.077e-09
7.082e-08
0.0093
0.0001633
0.0001631
0.0001356
0.0001313
0.007659
0.03089
0.03017
0.0001532
0.0001795
0.0001798
0.000155
0.007354
0.03099
0.0009865
3.36e-05
3.212e-08
0.0001623
4.734e-06
0.009766
0.001786
0.0001316
2.522e-05
0.01483
8.045e-05
1.943e-08
0.03651
0.02351
0.003771
5.587e-05
0.01106
3.626e-08
0.05825
0.006368
0.02406
0.02346
0.0001361
3.147e-05
1.58e-08
0.0001541
0.005506
0.0001413
3.707e-05
9.991e-05
0.0001352
0.0001154
7.933e-05
0.006254
1.928e-05
0.0001428
0.0001604
1.674e-09
0.0001455
5.106e-05
0.0005739
5.439e-05
6.157e-06
0.000164
0.000141
0.005199
2.816e-06
0.004835
0.00233
0.0001503
6.491e-05
5.979e-05
2.357e-05
0.0003097
0.004864
0.0001451
0.002948
0.03286
9.869e-06
0.0002089
0.02229
0.004659
0.0001447
0.0001599
0.002044
0.0001459
0.0271
0.0001399
2.471e-05
0.02865
1.689e-07
0.003659
0.02163
4e-05
0.008705
5.498e-05
2.503e-05
1.106e-09
0.00474
0.002517
0.0228
0.01093
0.01821
0.0001482
0.01687
0.0001462
0.01519
0.0001474
0.03183
0.0001435
0.0007873
0.008194
0.0001377
0.0001444
0.01301
0.000157
0.0002487
0.0001537
0.0001334
0.0001779
0.007548
0.0001495
8.145e-08
3.454e-05
1.789e-06
3.848e-05
6.007e-05
3.023e-05
3.603e-05
0.0243
0.002918
1.289e-06
0.02812
0.0002159
0.001845
0.006195
0.01754
0.03296
0.0001441
9.949e-10
0.005979
2.796e-06
0.0001458
2.35e-08
6.34e-05
2.603e-05
0.01074
0.0001309
0.0001308
0.04057
0.06048
0.01399
0.01874
5.131e-05
0.0001647
0.0001544
0.01067
0.0001501
5.099e-06
0.0001512
0.0001947
0.009199
0.0001352
0.0007821
0.0003895
5.531e-05
2.583e-05
0.01172
0.0001459
0.01883
0.01493
2.632e-07
0.018
0.0001534
7.782e-05
0.003726
4.716e-05
0.01995
0.0002766
0.06785
0.0001455
0.01605
0.0001431
1.97e-08
5.178e-06
0.0001649
0.004894
0.0001798
0.0001667
0.0001305
0.0001587
0.00101
6.157e-09
0.0001511
4.476e-07
0.01061
0.0001439
0.002515
0.001909
0.0192
0.0001512
0.01585
0.00477
5.495e-05
0.007804
0.04505
1.799e-05
0.0001518
0.0001026
0.0001915
1.432e-05
0.0002087
0.000208
2.54e-05
0.000165
2.252e-08
0.0001906
9.698e-06
1.105e-05
1.005e-09
0.00509
0.002872
0.0001486
0.0001455
0.0001437
0.01716
0.000145
5.392e-08
0.0001454
4.28e-06
0.000156
0.0001833
0.0001127
1.926e-05
0.0002906
5.465e-06
0.0001622
0.0002304
0.01084
7.128e-06
0.000145
0.003875
0.00053
0.01198
0.001029
0.003372
0.008549
0.0001514
0.0001403
0.0001533
0.0001372
5.699e-05
0.0002233
0.0001326
0.0001572
0.0002989
0.0001372
2.742e-06
0.0001462
0.0109
0.02951
0.01551
0.0002019
0.0001392
0.01201
0.0005697
0.02083
0.0001511
0.0001123
0.0001537
0.0001454
0.0001417
0.0122
3.063e-08
0.0001369
4.615e-05
0.0001487
2.319e-06
0.0001613
0.0001523
0.0002052
0.0001653
0.002609
2.1e-05
0.0001494
6.469e-05
0.0001465
0.009697
0.0001486
0.0001516
8.347e-05
0.02608
0.0001552
9.017e-06
0.002399
0.0001414
0.02745
2.893e-06
0.001112
3.061e-08
5.328e-06
0.02754
0.0001527
0.0001702
4.405e-06
0.02126
6.344e-05
9.012e-05
0.0002485
0.0001539
0.0001443
0.004509
3.702e-05
0.01142
0.0001459
0.005006
0.0001456
0.0001613
0.002565
0.0001427
0.02955
0.0001685
0.0001752
0.01483
0.003626
3.051e-05
0.0001466
2.46e-05
5.015e-06
0.0001594
0.03575
3.704e-05
0.0001578
0.0332
0.02083
2.206e-05
0.0001431
0.01645
1.195e-05
0.006637
0.005217
1.249e-05
0.0001571
0.0001531
0.0001198
0.0001514
3.33e-05
0.009569
0.000151
5.094e-05
0.0001479
0.001143
0.0009385
0.05092
0.01261
0.004493
2.839e-08
0.00739
1.948e-07
0.0001646
0.0001376
2.015e-07
4.151e-05
0.0001564
2.524e-05
0.0001507
0.02266
0.0001491
0.02031
5.54e-07
0.01476
0.0001799
6.07e-05
3.994e-05
0.0001464
5.176e-05
0.0001525
0.000177
1.08e-05
0.000149
5.627e-05
2.995e-06
0.0001444
0.0001484
0.01986
0.0002367
0.0171
0.0001688
0.0001678
0.0001854
0.0001649
0.02667
0.0002513
0.0002033
0.004687
0.0001377
0.0001531
2.557e-05
3.963e-07
0.0001394
0.002023
5.285e-07
0.03229
0.0001567
0.02014
4.985e-05
3.913e-07
0.0001983
0.0003364
0.01715
0.0001501
0.0001201
0.0001833
0.02094
1.856e-06
0.002803
0.0001486
0.002519
1.108e-09
1.238e-08
0.01929
0.01632
0.002814
0.0001643
0.01859
0.0001036
0.02343
0.0002006
0.008647
0.01375
8.21e-05
2.361e-06
0.009042
0.0001599
0.0001452
0.0001697
0.0001575
0.006794
0.0001518
0.0001507
4.352e-05
0.0193
0.03416
0.0001355
2.013e-05
5.611e-06
0.05095
0.003067
0.01242
2.214e-08
2.831e-05
0.0001488
0.002071
0.0001123
0.01114
4.391e-05
1.416e-08
0.0001282
1.126e-06
0.0001398
4.418e-05
0.0001404
0.01355
0.01958
1.151e-05
0.001182
0.03337
5.707e-06
0.0001685
0.0001611
3.44e-05
0.0001528
0.03012
0.000145
2.277e-05
1.327e-05
5.61e-05
8.047e-06
8.174e-06
0.01623
1.318e-07
0.0003343
0.0002046
0.000175
0.02917
0.0001508
0.04353
6.362e-05
0.02081
5.496e-05
0.0002333
5.378e-05
3.477e-09
3.627e-07
0.008013
0.03656
0.0001601
0.0001567
0.0001458
0.0001485
0.007996
0.0001612
0.0001451
5.107e-05
5.416e-05
3.493e-05
0.008647
0.0001376
4.504e-05
0.03247
0.0001384
3.211e-07
1.911e-05
0.0001555
4.744e-05
4.607e-09
0.01845
0.0005424
0.04176
0.0001043
0.0004473
2.305e-10
0.0001063
9.597e-05
0.0001691
0.0001556
4.985e-05
0.007603
0.0001453
0.000147
0.01443
5.777e-06
0.0299
4.546e-05
1.217e-07
0.0001652
0.0001494
6.946e-06
0.02837
0.008902
1.49e-06
0.0002538
0.03488
0.01679
0.004158
0.000165
0.003445
0.0001465
0.002384
0.03388
5.967e-06
0.06447
3.368e-05
1.954e-05
0.0001664
7.22e-06
0.03764
0.0002126
5.51e-05
0.0008936
0.0001509
0.01707
0.006123
0.008393
0.0006085
0.009126
4.092e-05
0.0006365
0.0001448
0.01046
0.04231
8.658e-06
5.897e-05
0.0007823
0.02693
0.0001531
5.368e-05
0.0001853
0.007196
0.02815
0.01459
0.02957
0.01728
0.0006836
3.633e-07
0.0001606
0.0001483
0.0003296
0.0001394
0.01976
0.0001494
0.0001644
0.01795
0.0001439
0.0001622
5.163e-05
0.001139
0.0001456
0.0001477
0.03161
8.229e-05
0.0007423
0.0001894
0.02741
0.01664
1.135e-05
2.177e-05
0.05934
0.0001279
0.05085
0.0001582
5.131e-05
5.167e-08
0.022
2.449e-05
2.933e-05
0.02008
3.081e-08
0.0001453
0.0001372
0.0001596
0.0001474
1.18e-09
0.0001458
0.02499
0.0002711
3.78e-08
0.0005912
1.376e-05
0.0001253
0.000125
2.763e-05
0.004513
0.0193
0.0002084
0.0001495
0.05033
0.0001598
0.000149
7.729e-06
4.45e-05
4.845e-05
0.02165
1.376e-06
0.02352
0.0001702
0.0001315
0.0001115
4.804e-05
8.139e-06
2.354e-05
0.004671
2.952e-06
0.004273
0.008923
5.92e-05
0.001201
0.004198
0.0001537
0.0001555
2.721e-05
0.00014
0.0001385
0.0009898
0.006848
5e-07
0.0001584
3.054e-05
0.002739
0.0004287
0.0001453
0.000176
0.0001482
0.0088
9.681e-08
0.0001692
0.0001557
8.014e-05
0.0001521
2.459e-06
0.0001136
0.0002254
0.0001026
0.0001221
4.646e-05
0.02048
0.0001173
0.003709
0.005852
0.009194
0.007415
9.062e-05
0.01594
8.279e-06
4.916e-05
0.005877
0.0146
1.778e-05
0.01185
0.00373
0.000493
0.0001543
0.0001593
0.0001152
1.241e-07
0.0001638
0.005402
0.0001467
0.0223
0.0001484
4.449e-05
0.02493
1.332e-07
0.001682
0.0001524
7.253e-05
1.621e-08
6.677e-06
0.01013
5.199e-05
1.207e-05
3.487e-06
0.0007685
0.02008
6.17e-05
1.415e-07
0.003411
0.0064
0.0001657
0.0001586
0.0001454
0.01954
3.066e-05
0.0001445
0.004207
0.0311
0.0001534
2.533e-05
0.0001308
0.02886
0.000164
0.03421
1.688e-05
0.0001624
0.000168
0.03057
0.0001501
6.479e-05
7.515e-05
3.67e-07
0.0005591
0.0003927
0.0001428
0.009871
0.002216
8.96e-05
4.609e-05
6.056e-05
0.02906
0.007278
0.0001453
3.002e-05
3.191e-05
0.0001715
0.0001854
0.01834
7.194e-05
1.155e-05
3.644e-05
0.0001826
0.0001583
0.0001538
9.653e-05
0.04081
0.0001531
3.257e-07
0.0002173
0.01518
0.0001454
0.0001473
0.0001843
0.0001459
0.0007358
9.114e-05
0.02846
0.01803
1.175e-05
8.758e-05
0.003303
8.54e-05
0.003381
0.02993
1.636e-07
0.008406
0.004061
0.008417
3.894e-07
0.01736
1.442e-05
3.865e-07
0.0001687
0.0001787
1.327e-05
0.0001488
0.01469
0.0002815
0.0001967
8.86e-05
0.009842
0.007869
0.0001487
0.03789
0.0001478
0.0001632
0.01487
0.007834
0.0001404
0.01961
1.325e-07
0.01361
0.000146
0.001345
0.006715
0.04106
5.525e-05
0.007346
0.0002231
1.277e-05
7.484e-06
1.831e-07
0.001875
4.872e-05
0.004
0.004302
0.002583
0.0001511
3.083e-07
0.001634
4.977e-05
0.0001587
0.0001441
0.002564
0.001132
0.01867
0.0001508
1.643e-07
0.0002718
0.0001583
0.0527
0.007686
2.551e-05
0.0001448
0.0006838
0.021
0.0001508
0.0001287
2.074e-05
0.0001449
0.002232
0.01427
0.0001544
2.001e-06
0.0001691
0.004153
3.194e-09
0.007314
4.305e-05
0.0001307
0.00013
5.094e-05
0.04492
0.0001707
0.0001059
5.863e-05
0.0001438
6.002e-05
7.83e-06
0.01055
0.0001456
0.000146
0.01381
0.01747
5.225e-05
2.031e-09
1.774e-05
0.0001594
1.943e-05
2.629e-06
0.0001537
1.577e-05
4.329e-05
0.0003411
0.0001654
8.032e-05
0.06159
0.01921
0.0001302
0.0001285
0.0001287
0.0001275
0.0001578
0.02789
0.0001149
3.033e-05
0.0001318
0.007102
0.009552
7.844e-05
0.0001283
0.004695
0.01016
0.001202
0.0006435
0.0005709
0.0171
5.196e-05
3.045e-05
0.01265
5.847e-05
0.0001777
5.052e-05
1.303e-08
4.426e-05
8.805e-07
0.0001521
0.0001284
0.0001453
3.502e-07
0.004492
2.825e-05
0.0001236
0.00015
1.051e-07
0.0001458
0.009131
0.0008657
0.0001944
0.003355
0.004618
0.01494
0.01333
4.862e-05
0.0001507
0.0003216
0.0001369
0.0001636
0.001542
0.001952
0.0155
0.0001452
0.0001435
0.0001452
0.0001549
0.008356
0.0001829
0.0001674
0.01294
0.00591
0.0001569
2.703e-05
3.005e-05
0.03151
0.02602
0.02901
0.005368
0.0001597
1.908e-08
0.0001517
0.0001453
7.074e-07
0.0001452
0.0001449
0.0001649
0.0003328
8.297e-06
0.01282
8.353e-06
0.01002
2.832e-05
0.0001464
0.0001568
0.007406
3.724e-05
0.02533
0.0002185
0.000156
2.227e-06
4.039e-05
0.0001483
1.963e-06
5.063e-05
2.685e-09
0.0002307
0.03092
0.02391
0.0001541
0.0001478
0.03255
0.000186
1.622e-06
0.0001506
1.483e-05
1.039e-07
0.0001454
2.377e-05
0.0002166
5.922e-05
0.0001458
1.133e-05
3.321e-07
9.93e-09
3.373e-08
0.0001648
0.04256
4.025e-08
0.0001561
0.004078
0.000144
0.01327
5.146e-05
0.02959
0.0008259
3.228e-08
0.0001646
0.01971
0.0001319
0.0001492
0.0001535
2.892e-05
0.0002291
0.03665
0.0002166
0.004268
0.0001624
0.01705
0.0125
0.005956
0.006152
0.0001455
0.01831
0.0131
3.669e-05
0.0007538
0.0001125
2.881e-05
0.0002412
2.888e-07
7.815e-08
2e-10
2.265e-05
0.0001534
2.045e-05
0.0001483
8.826e-06
1.129e-05
0.0001455
2.947e-08
0.0001489
0.002053
4.326e-06
4.138e-06
0.01733
0.0002001
0.001905
0.0001055
0.0001301
1.497e-08
0.008478
0.0001943
0.01765
0.01192
1.36e-07
1.689e-07
2.722e-07
0.01802
2.339e-05
0.0001002
0.01511
0.0001512
5.017e-05
1.969e-06
0.0001392
0.006446
5.25e-05
0.01426
5.507e-05
0.0197
0.0397
9.301e-07
4.406e-05
5.207e-05
2.165e-07
0.0002257
2.003e-06
0.0001519
6.278e-05
0.002654
0.000149
0.0001542
6.744e-05
0.0004306
0.001088
3.125e-07
0.0001881
0.0001453
0.0001381
3.446e-05
3.083e-06
0.01262
0.02892
0.0001266
0.0001505
5.896e-06
0.000127
0.0008921
2.94e-05
0.0001535
0.003015
0.018
3.379e-07
2.021e-07
2.367e-08
0.00015
1.971e-05
0.006408
0.003377
0.0342
0.02363
2.355e-06
0.01733
9.53e-06
3.277e-05
5.139e-05
5.777e-05
0.0001678
1.167e-07
0.0288
5.68e-05
0.01233
0.0001857
5.865e-05
0.0002502
0.0001458
8.926e-05
0.0002253
0.005005
0.0001444
5.786e-05
3.41e-07
8.325e-09
0.0318
3.382e-07
0.0008167
0.0001863
0.0001498
0.0001538
0.0001403
0.0001489
8.797e-05
2.151e-07
0.0009271
1.696e-05
0.05935
0.02757
6.828e-05
0.004377
0.01624
0.001538
0.0295
7.348e-07
0.003011
0.00014
0.008605
5.775e-05
0.0001477
0.0001548
5.017e-06
0.0001463
0.002393
0.002111
3.355e-05
0.0001485
1.72e-06
0.0002949
0.05089
0.00015
1.585e-05
0.0004996
2.448e-05
5.652e-05
0.0001432
4.01e-05
0.000144
0.0001665
0.002335
0.05011
2.956e-08
0.002377
1.523e-05
0.02821
1.168e-05
0.0001572
0.0006016
0.01025
0.000901
0.0001389
0.0001513
0.0001462
1.559e-05
9.832e-05
0.0001887
0.00587
0.0001426
0.0003972
3.198e-05
0.004846
0.0001856
0.003529
0.0007903
0.0001472
0.02861
0.0001537
0.000167
0.0008784
6.728e-05
0.0001553
0.0001584
0.0001559
0.0001922
0.005149
0.000137
0.0001348
0.0001463
0.0001531
0.0001513
0.001717
0.0005773
0.0001456
4.109e-05
0.0001818
4.941e-05
0.0001469
0.0001974
0.0001515
4.569e-06
0.0003158
1.948e-08
0.04245
3.275e-06
0.0001702
0.000158
3.138e-07
0.0001499
5.268e-05
4.651e-05
4.278e-05
0.001459
0.005232
0.000146
5.382e-05
0.002317
0.01814
0.007337
0.01162
0.0001197
0.009376
6.773e-05
4.81e-05
0.0001437
0.01308
6.895e-05
1.092e-06
0.0001511
0.0001481
0.0004774
7.906e-05
0.01044
0.01197
0.0001045
4.323e-05
0.0001531
6.505e-05
0.008432
0.02874
0.0144
0.03703
0.0001399
0.0001739
2.985e-08
0.04515
0.01478
1.407e-05
0.0001621
0.0001547
0.0001449
0.0001496
0.0001592
0.0001805
6.672e-07
0.003039
0.000147
0.0001468
5.655e-05
2.227e-09
0.0001469
0.01224
4.434e-05
4.973e-05
0.0001636
0.003255
6.707e-05
0.003471
0.0001692
1.374e-05
3.437e-06
8.822e-05
0.0001458
0.005621
0.02767
0.003591
0.0001429
0.0001679
0.002259
0.02028
0.00147
3.06e-08
3.063e-06
0.05247
0.0003929
2.844e-06
0.02624
3.778e-05
0.01175
0.0001672
0.0001655
5.188e-06
1.397e-07
0.0001443
0.00159
6.053e-05
0.0001469
1.727e-05
0.01249
0.000162
0.0001548
0.02361
1.381e-05
0.001518
0.0001377
0.000145
0.0001456
0.04858
0.01457
0.0001332
0.001231
0.0001484
1.137e-05
0.0359
0.01277
3.224e-05
3.832e-06
0.04506
0.01697
0.0001427
2.666e-07
0.0001658
6.984e-05
2.366e-05
0.0001532
7.85e-05
0.0006221
0.002294
3.354e-08
0.03291
3.738e-07
0.0001384
0.0001419
0.008189
0.000151
0.000143
3.123e-08
5.362e-05
3.838e-05
5.616e-05
0.001743
0.007361
0.0001429
2.478e-08
0.0001558
6.64e-05
0.0001346
0.0001517
0.01794
0.009664
0.006207
0.02261
0.03173
0.002332
0.0001362
0.006547
0.0002415
4.766e-05
1.057e-05
0.0001595
0.02267
9.178e-05
0.0001471
0.003939
0.001204
0.001539
0.0001534
0.01995
3.675e-07
0.000132
0.0001436
7.797e-05
0.0005905
0.02856
2.819e-05
0.0001478
0.0002748
0.003339
6.071e-05
0.000148
0.0001526
9.371e-06
4.727e-05
7.43e-05
0.009976
0.0001871
0.0001363
2.14e-05
0.0001497
0.0003429
2.76e-08
0.0001597
0.01188
0.01732
0.0007317
1.075e-05
0.002878
0.000152
0.0001363
0.006041
0.0001569
0.0001446
0.001188
0.0001575
0.02542
0.0001356
0.0001545
0.0001539
0.0001487
5.873e-05
0.005152
0.0001453
0.0001392
6.851e-05
0.003273
0.0001499
0.0001467
0.0001446
0.0001576
0.04876
0.04358
1.851e-05
2.905e-08
1.841e-07
6.786e-05
2.071e-06
2.24e-06
0.0001482
5.321e-08
0.004752
0.0001235
0.03235
0.0001547
0.0001602
0.0002778
0.0003796
5.614e-06
0.001005
0.0001561
0.008702
4.721e-05
5.832e-05
0.0001618
0.0001625
0.009318
0.0001533
3.699e-05
0.0001606
0.008172
0.0001338
0.0001942
0.0001519
0.000876
4.974e-08
1.146e-05
0.0001373
9.017e-06
0.007817
0.0001324
0.0001905
0.000146
0.000179
0.00544
0.0003544
0.00171
9.168e-05
0.0001495
0.0001659
0.02957
4.907e-07
0.0001466
0.000152
2.124e-07
0.000136
0.0001442
3.295e-06
0.01215
0.0001524
0.0001519
0.03744
4.963e-05
4.135e-08
1.885e-05
0.004369
0.02269
0.008724
0.0001535
0.000145
0.0001532
4.685e-05
5.127e-05
0.004301
0.0001479
4.32e-07
4.926e-05
6.101e-05
0.01553
0.007226
0.007977
0.0001341
0.0001552
0.000662
0.002389
0.0001502
4.379e-05
1.586e-05
0.02881
0.0001592
0.0001681
0.02007
0.0001502
0.02561
6.465e-05
0.001092
0.0001267
0.0001477
0.0001607
0.0004853
0.01112
0.000152
0.0001433
0.0002143
0.005018
1.277e-09
0.0264
0.0001557
0.0007513
0.0001413
0.0001338
7.221e-05
2.881e-06
3.542e-05
0.00309
2.276e-05
1.255e-05
0.02026
0.0001564
0.004397
2.886e-05
7.095e-07
0.0107
0.0001512
4.607e-06
0.0001645
7.214e-06
9.559e-05
0.01966
0.02661
4.642e-05
0.0001459
0.01088
0.0001651
0.0001447
0.004223
4.4e-06
0.003735
7.073e-08
1.763e-05
0.00314
0.0001448
0.02153
0.002611
0.000186
0.01232
0.01276
0.001185
0.002749
0.0001083
0.0001465
0.006159
0.0001378
0.0001433
0.001734
0.0001733
0.0001539
2.937e-05
4.116e-08
0.000142
0.0001455
8.348e-05
7.074e-05
6.471e-06
0.0001609
0.00628
1.349e-05
0.03633
0.02258
0.0001456
0.0001776
5.46e-06
0.0001512
0.0107
0.0001441
8.198e-05
0.0001513
0.01746
2.4e-05
0.003669
0.000702
6.436e-05
0.003457
0.0001492
0.0007729
0.004653
0.0007081
0.0001433
0.0001476
2.307e-05
9.48e-05
8.737e-05
0.03489
0.00486
0.06042
4.81e-05
0.000108
0.0001281
0.0001518
0.0001556
9.543e-09
4.683e-06
0.0001141
0.0001425
2.091e-05
5.898e-05
0.001025
0.0008008
8.719e-08
0.0001703
0.01643
4.847e-05
5.404e-05
1.542e-05
2.263e-06
0.05885
0.0002443
0.04305
0.0001496
4.642e-09
0.0001466
0.03117
2.282e-05
7.175e-05
0.02283
0.0001251
0.007293
5.548e-06
0.01533
0.0002374
0.03443
0.0001356
0.002749
9.569e-09
0.01301
3.18e-07
1.903e-07
0.0001454
3.047e-07
0.000198
7.662e-06
6.087e-05
0.01987
0.05949
0.006203
5.133e-05
0.0001238
0.00015
0.01716
0.01379
0.01821
0.02335
0.005319
0.0001554
0.0001567
0.06076
2.901e-07
0.007954
5.668e-05
5.319e-05
2.005e-05
0.0001347
0.0005205
0.004909
3.541e-05
0.01622
1.466e-07
0.001525
4.693e-05
0.0001537
6.946e-05
0.0001526
0.01246
0.008124
0.0001575
0.0001648
0.009855
8.896e-05
0.01593
0.003225
8.494e-05
4.104e-05
0.01168
1.422e-07
9.78e-05
1.575e-06
0.0001498
0.04674
0.006356
0.02388
0.000152
0.0001417
0.0001453
0.0001462
0.0001454
0.009456
5.089e-05
0.007648
0.0533
0.0001508
0.01477
0.0001504
1.95e-07
3.299e-06
3.224e-07
5.115e-05
0.0001528
1.405e-05
7.856e-05
0.0001569
0.0001746
0.0001464
0.02143
0.03387
0.002515
0.05124
0.0001422
0.0001427
0.003899
0.0229
0.0001511
2.218e-08
4.75e-05
0.0001398
0.0001459
5.342e-05
0.0001508
2.194e-05
4.523e-07
0.0001655
0.0001671
0.001776
8.05e-05
0.001323
3.357e-08
0.0001798
0.0001599
5.872e-05
3.879e-05
0.0001523
0.001396
0.0001361
0.0001606
1.368e-05
0.003913
4.096e-08
0.000152
7.839e-05
0.001392
3.182e-05
0.0001462
0.009705
0.0001455
0.02411
0.05639
0.0001217
0.01951
4.905e-05
0.0002028
0.0001587
7.915e-06
5.618e-05
0.0003796
1.271e-05
1.413e-05
0.005959
0.002007
5.173e-05
0.001417
0.01998
3.312e-05
0.0001402
3.381e-07
1.529e-07
6.184e-06
5.923e-05
0.0001497
5.025e-06
2.938e-05
0.0001585
0.0005982
4.823e-06
0.004648
0.0001918
0.0001446
0.0002067
3.335e-05
0.0001411
0.04517
9.826e-05
0.005467
0.0001558
4.935e-05
5.604e-05
0.0002915
2.513e-05
1.267e-09
0.0007216
0.01088
0.0001509
0.0112
0.004024
1.808e-05
0.008622
0.02258
0.02123
4.38e-06
0.01293
0.0001574
0.01129
1.921e-05
0.0001513
0.03372
0.0001516
0.03536
2.454e-07
0.00184
0.0001476
2.815e-05
0.02772
1.423e-07
0.001759
0.0001427
0.0001556
1.524e-05
0.0001512
0.00899
1.099e-05
0.0003147
0.02187
0.000145
0.0001601
0.0161
0.01228
0.0001608
2.698e-05
0.0001384
2.061e-05
0.0102
0.001679
0.0119
0.004569
0.004248
2.76e-05
3.266e-05
0.0001517
5.777e-05
0.000146
1.953e-08