/*--------------------------------*- C++ -*----------------------------------*\
  =========                 |
  \\      /  F ield         | OpenFOAM: The Open Source CFD Toolbox
   \\    /   O peration     | Website:  https://openfoam.org
    \\  /    A nd           | Version:  8
     \\/     M anipulation  |
\*---------------------------------------------------------------------------*/
FoamFile
{
    version     2.0;
    format      ascii;
    class       volScalarField;
    location    "45";
    object      nut;
}
// * * * * * * * * * * * * * * * * * * * * * * * * * * * * * * * * * * * * * //

dimensions      [0 2 -1 0 0 0 0];

internalField   nonuniform List<scalar> 
127143
(
6.344e-21
1.381e-20
2.202e-19
2.662e-18
1.281e-17
2.788e-18
1.032e-15
1.061e-16
3.338e-17
4.1e-16
1.106e-15
1.133e-16
1.362e-18
5.468e-18
3.046e-07
5.903e-14
6.905e-18
0.005625
0.004119
1.638e-12
0.0006144
3.583e-11
6.77e-05
1.361e-07
2.997e-11
1.267e-09
8.476e-11
1.01e-10
2.433e-10
0.006104
6.015e-08
1.21e-09
5.641e-11
5.88e-08
5.291e-05
6.074e-11
0.0001951
0.0006918
2.229e-07
8.484e-10
0.004131
5.051e-06
5.38e-06
7.191e-17
0.005545
7.579e-08
2.446e-10
0.0008937
1.02e-07
1.719e-07
2.151e-13
0.0004393
0.000432
5.623e-05
0.006668
2.986e-08
0.006667
9.933e-05
0.006148
5.257e-05
4.414e-06
0.00241
8.012e-07
0.006702
1.529e-06
2.245e-05
7.239e-05
6.716e-07
6.746e-07
0.003006
9.226e-08
2.615e-10
0.002746
0.005575
0.006693
2.945e-10
0.0009094
0.0002436
3.01e-08
0.006705
2.359e-10
1.781e-12
1.246e-06
2.802e-09
0.002007
0.0003436
3.288e-07
4.086e-11
2.339e-05
2.57e-07
0.004187
0.0004316
8.482e-07
0.0006263
0.0001106
0.0001113
5.455e-06
2.255e-08
0.0005503
6.105e-05
0.006705
1.176e-07
1.914e-08
3.049e-05
0.0003792
0.0005137
5.193e-07
0.003007
9.356e-06
0.00668
4.332e-07
3.155e-11
0.0003234
7.989e-07
0.006691
7.682e-05
0.0006236
0.006693
0.0008919
6.514e-13
0.00668
1.541e-06
3.037e-06
0.000114
2.752e-10
2.581e-10
0.001564
0.001108
0.0001636
2.296e-08
0.0001141
8.646e-05
1.602e-06
0.0002561
1.993e-15
0.0001248
0.0001848
0.0009182
9.514e-10
0.0001745
5.441e-05
0.001073
0.000542
0.001149
0.0004376
5.6e-06
2.839e-10
0.006702
7.555e-05
7.477e-09
1.188e-05
1.381e-07
0.0007067
2.956e-05
2.565e-06
0.002055
7.84e-05
1.766e-08
0.000929
1.083e-08
1.382e-07
8.54e-14
0.004507
0.0001155
2.156e-09
3.026e-06
0.0001071
9.006e-06
1.616e-08
0.0002178
2.869e-06
0.001154
6.784e-05
7.108e-06
0.00283
0.0005609
3.564e-06
0.0001672
1.653e-07
0.002193
7.15e-06
0.0005861
0.0006051
0.000576
2.411e-08
0.002495
1.549e-05
8.639e-07
1.463e-07
0.0008389
0.0002802
0.0001373
0.0001816
6.501e-07
5.655e-16
0.001539
0.006638
0.006624
2.713e-14
0.003067
0.006693
0.0002089
0.002344
0.000239
6.54e-17
4.847e-07
0.0001286
6.032e-06
0.005782
0.006691
0.0002426
0.001582
0.006689
1.692e-08
4.119e-05
8.268e-15
1.097e-07
5.882e-06
0.0001913
0.0001263
3.517e-06
0.006694
1.23e-07
0.0004172
8.647e-09
1.72e-06
6.521e-09
0.0006151
1.383e-05
0.0009943
0.0005544
0.0007355
0.00289
1.102e-11
0.0005667
0.0001065
0.0001154
1.467e-18
0.006693
0.0003567
0.0001493
3.323e-06
0.0008536
1.801e-08
0.0002656
9.72e-13
2.76e-07
1.237e-10
6.435e-13
0.003038
8.13e-06
1.964e-09
4.493e-06
0.0008942
6.421e-08
7.24e-06
0.001258
2.438e-08
3.081e-05
1.7e-05
0.001502
0.0007837
0.0002982
0.001037
0.0001737
2.483e-06
7.673e-06
1.757e-06
5.439e-06
1.349e-05
5.628e-09
0.002828
0.001337
0.0003427
1.401e-06
0.0003
0.000336
1.812e-07
0.002889
2.531e-05
0.003431
0.0001205
3.113e-05
0.00669
0.006691
5.462e-16
0.0001004
0.006692
1.679e-07
0.002202
0.0006568
4.772e-05
0.0001071
4.257e-05
0.006698
7.271e-06
6.041e-08
0.0001101
0.0008497
1.316e-05
1.957e-08
3.432e-05
1.498e-05
9.517e-05
5.795e-09
4.089e-06
6.082e-06
0.00669
0.003026
4.21e-06
4.489e-07
6.978e-06
1.933e-08
0.003735
0.00669
5.125e-07
0.0007654
1.946e-08
0.0001583
0.003462
8.641e-05
8.89e-08
0.000419
4.462e-06
4.604e-07
0.0004135
0.0001139
0.0001373
9.67e-08
2.646e-06
0.001633
0.006691
5.794e-05
0.006638
0.006624
3.293e-05
9.511e-06
6.812e-05
0.001629
7.693e-05
0.0001945
5.867e-06
0.000483
0.0003268
1.095e-06
1.668e-07
9.344e-06
0.0002258
2.33e-08
7.463e-05
3.575e-08
0.004222
0.000479
0.0003109
0.0001459
1.32e-05
0.0008786
6.745e-06
0.006339
9.624e-08
0.00185
9.633e-07
0.003249
2.319e-07
1.975e-07
0.006697
0.00348
0.003185
1.235e-06
0.002882
2.682e-06
0.0003869
5.678e-09
1.527e-07
0.0009524
0.0001412
7.72e-08
5.47e-11
0.0006717
0.002906
0.002025
4.754e-10
4.342e-08
2.911e-05
0.0006893
7.697e-12
4.854e-05
1.214e-09
0.001445
0.001176
0.006698
1.435e-05
7.111e-06
7.128e-08
1.637e-07
5.458e-08
1.489e-05
8.216e-08
0.0001464
0.0005843
2.368e-09
0.006694
0.0006668
0.0006449
4.665e-05
6.506e-06
0.0004565
1.76e-06
0.006705
1.845e-07
1.042e-05
2.036e-08
4.897e-05
0.001036
5.048e-06
0.0001197
0.0003647
4.684e-09
0.0004184
2.506e-07
0.0001191
2.141e-09
2.59e-05
0.003293
0.0009464
1.384e-05
5.264e-06
4.043e-05
5.344e-06
9.786e-05
0.006677
2.546e-05
0.0004012
0.001126
1.148e-05
0.006697
4.906e-06
1.452e-05
0.0004769
0.006697
0.00669
2.397e-07
0.0001657
8.082e-06
0.0003478
2.519e-08
0.0063
7.658e-07
0.003239
0.001585
0.0005947
6.098e-08
8.26e-06
6.478e-07
4.002e-05
0.0003383
1.537e-08
7.362e-06
0.0003778
0.0001989
2.119e-06
0.0002334
0.001714
9.063e-07
0.0002355
0.002875
0.001579
0.0006132
4.695e-06
0.006667
0.000793
0.0001615
9.804e-05
0.0006007
0.0001415
0.006645
2.108e-06
0.0001373
4.496e-06
0.0005092
2.846e-10
1.005e-06
1.08e-05
1.983e-08
8.658e-06
1.143e-05
0.0005205
0.006688
2.203e-08
0.0009404
1.407e-06
3.75e-07
0.000387
6.156e-06
2.018e-15
8.494e-05
1.133e-06
0.0001004
1.488e-06
0.006686
2.392e-10
0.001601
0.0005913
0.001626
7.378e-18
3.948e-14
1.61e-13
0.006697
1.434e-05
3.523e-06
0.00669
0.002008
1.614e-06
0.0001072
2.591e-05
0.0005606
6.012e-08
0.0008056
2.38e-09
0.002917
0.001314
3.566e-12
1.509e-07
2.339e-08
4.76e-06
0.006667
1.345e-05
0.001925
0.001738
0.006603
1.495e-08
2.742e-09
5.923e-06
0.006636
0.0006075
0.000119
9.083e-07
8.04e-06
5.98e-09
0.002418
0.0009481
2.001e-05
1.478e-05
0.006668
3.655e-05
0.000374
7.902e-08
2.395e-07
3.623e-06
5.729e-07
0.001507
1.915e-05
4.375e-07
0.0001295
2.908e-05
0.003702
2.129e-09
0.0001605
1.426e-08
1.253e-06
0.0009283
0.006702
0.006701
1.811e-05
8.272e-06
1.301e-06
0.006691
0.004995
1.303e-05
4.55e-08
0.0004524
1.099e-05
3.37e-07
2.596e-09
4.871e-05
0.00125
0.006682
4.456e-06
0.0005999
1.355e-06
0.005093
3.954e-10
1.993e-06
4.633e-05
0.002902
4.708e-09
0.006691
0.0005107
0.0007751
0.001706
0.005069
6.862e-06
0.001509
4.315e-12
0.006644
5.719e-07
1.274e-07
0.00669
6.533e-06
0.005571
3.341e-07
0.0005501
0.00669
2.532e-06
7.146e-08
1.5e-05
0.0001215
0.000559
3.775e-08
4.507e-08
1.443e-06
2.778e-07
1.323e-06
2.565e-07
0.0003625
0.0002919
1.085e-08
0.005644
3.023e-08
0.006689
1.31e-06
0.0008964
0.0005472
0.006677
0.006458
7.597e-05
2.576e-07
0.0003733
0.00649
0.006675
1.863e-05
4.991e-10
3.327e-06
2.91e-08
0.002686
8.959e-06
0.0006026
9.612e-06
0.0003382
1.192e-05
5.839e-07
0.00649
1.91e-05
0.0003648
9.005e-05
0.0001406
0.005248
0.004996
0.0004273
1.757e-09
0.0005026
2.277e-09
0.000806
0.004051
7.225e-05
3.737e-05
0.0002011
3.774e-06
9.802e-05
0.0005888
3.371e-06
3.064e-05
0.0003842
2.455e-05
1.918e-16
2.51e-06
0.0003958
0.000332
0.0001049
4.452e-05
7.178e-09
9.025e-06
0.0004182
0.0002306
0.0001271
0.0007
0.006677
1.948e-07
1.913e-05
4.919e-06
0.006635
0.006677
3.894e-10
0.0001016
4.829e-08
8.545e-05
1.627e-06
0.003006
3.045e-05
1.535e-08
1.081e-05
7.26e-08
0.006687
0.006667
7.356e-06
1.52e-05
2.067e-06
5.444e-06
5.189e-09
0.002592
9.124e-08
0.0002685
0.002661
0.004135
3.208e-08
0.0001537
5.643e-08
1.787e-15
2.044e-06
0.0002394
0.0007289
0.004892
8.576e-07
2.058e-07
1.466e-09
0.004886
0.001584
0.0003389
1.126e-08
0.0003523
2.271e-07
0.003495
9.542e-08
6.579e-07
4.263e-06
0.001621
5.718e-05
2.575e-20
2.249e-05
0.000189
4.979e-07
2.103e-06
3.705e-07
0.006686
0.0003633
0.00425
0.000466
0.003898
1.762e-09
3.156e-05
4.902e-09
0.003769
6.557e-06
0.0003206
1.763e-05
0.0001466
0.004137
0.0007248
9.156e-06
2.307e-06
0.0008363
0.002733
0.0004818
1.119e-06
0.003692
5.867e-06
5.44e-05
5.216e-05
8.712e-05
3.61e-05
2.029e-06
1.218e-09
1.25e-05
0.006607
0.0007141
0.002477
1.642e-09
2.278e-08
5.817e-05
0.002071
7.903e-07
0.006619
0.0001187
3.607e-06
0.0004596
3.042e-11
0.0004675
6.793e-06
0.0004119
0.001019
5.866e-05
0.006697
4.766e-17
0.0001239
0.0001415
5.785e-07
0.0005031
2.146e-05
4.39e-05
1.221e-07
0.006681
0.004518
3.011e-05
0.004013
2.705e-05
1.428e-06
5.026e-07
2.922e-06
0.006659
0.0006514
0.0004928
0.006688
0.006656
0.0001451
0.002351
0.00268
2.86e-05
0.0005276
2.786e-13
1.681e-05
9.053e-06
0.006678
0.000304
0.0001471
7.199e-08
1.022e-08
9.202e-06
0.003795
0.006687
0.001141
1.756e-10
0.006678
0.00018
6.758e-09
8.62e-07
9.486e-10
0.005587
0.00112
7.718e-07
0.006692
2.392e-08
0.006679
1.414e-06
2.888e-09
2.876e-05
0.0002857
2.646e-10
0.004353
2.875e-06
2.122e-05
1.648e-08
5.124e-05
7.953e-09
7.766e-09
6.086e-05
6.313e-05
1.157e-05
8.601e-13
0.006691
0.000858
3.781e-08
5.924e-08
0.0001182
4.43e-11
0.003853
0.000514
4.289e-06
7.654e-10
6.926e-11
4.818e-07
1.842e-14
1.614e-07
2.143e-14
8.574e-05
8.527e-07
0.004547
2.358e-11
0.0009087
3.732e-07
0.005073
0.005141
0.0005549
0.0004822
0.0001856
0.002862
8.093e-07
9.276e-05
0.000378
2.795e-07
4.514e-07
0.006698
0.004322
0.0001712
0.0004429
1.907e-06
9.431e-12
0.0006907
8.176e-06
3.945e-07
0.001286
1.305e-05
0.006687
0.0003898
5.741e-08
0.006379
3.44e-06
0.0001601
0.002599
0.006664
0.003343
0.003577
3.965e-14
1.618e-05
8.449e-12
0.0008271
8.365e-06
6.682e-07
5.235e-08
1.202e-05
0.005598
1.385e-09
1.108e-05
0.00552
9.293e-06
1.636e-11
0.001684
2.783e-07
1.071e-05
6.293e-05
1.124e-08
5.306e-14
1.124e-07
0.0009931
0.006693
7.367e-06
8.238e-06
6.018e-05
3.842e-06
6.383e-07
2.297e-09
6.263e-05
6.384e-05
2.167e-09
0.0001753
5.239e-09
0.006687
0.0007915
4.533e-06
0.0008711
2.795e-05
0.0005937
0.006691
0.00242
1.112e-06
4.284e-05
6.493e-05
8.756e-08
8.275e-06
0.001731
0.0003963
2.074e-05
4.03e-05
1.539e-12
0.0004702
4.085e-08
2.124e-06
7.438e-06
0.001663
6.218e-07
2.467e-05
1.167e-06
1.405e-10
0.0005559
0.006686
0.006681
0.0009023
0.0006178
8.452e-05
0.006686
7.647e-06
0.0005925
7e-05
9.906e-06
0.0004924
7.209e-06
2.631e-06
0.006705
7.01e-05
5.989e-05
1.693e-10
5.868e-09
0.0003316
1.224e-05
0.001062
1.496e-06
1.517e-07
2.335e-06
0.002802
4.569e-06
3.263e-07
0.0001096
1.503e-09
0.006502
9.214e-10
4.19e-08
0.002549
0.0001333
3.362e-07
0.00502
4.51e-11
1.527e-12
0.006235
0.00669
0.0003568
0.000443
5.98e-12
0.0001049
3.914e-07
7.69e-08
3.473e-06
7.342e-05
0.0001058
0.002553
2.265e-06
0.00162
1.115e-05
6.532e-05
4.502e-07
0.0002639
0.005244
2.87e-12
0.000172
0.006691
1.283e-05
0.0056
0.006685
3.611e-06
7.958e-05
1.327e-10
0.006686
2.657e-08
0.006693
1.077e-06
9.301e-05
0.00457
1.76e-05
3.065e-08
6.61e-08
2.348e-06
1.385e-06
0.003833
0.0005092
0.0008656
1.664e-07
2.196e-05
5.274e-06
1.454e-10
2.016e-06
1.715e-11
0.0001026
6.212e-08
7.364e-07
9.103e-08
1.082e-09
5.974e-06
0.004528
0.003527
8.312e-06
0.0002252
6.043e-09
0.003197
2.002e-07
0.001151
5.953e-07
6.074e-07
0.0002722
0.0001236
5.756e-07
0.002109
5.957e-07
8.619e-05
1.864e-08
4.772e-05
0.006504
3.148e-06
7.543e-06
0.004815
3.032e-05
4.478e-06
0.006671
4.879e-05
8.989e-05
0.0002901
6.033e-06
0.001188
0.000194
0.0001071
0.006656
3.301e-05
2.064e-05
0.006693
8.278e-06
0.0001729
0.0005987
1.527e-05
1.358e-05
0.0004321
4.832e-06
2.223e-10
3.088e-08
1.035e-07
0.001158
2.23e-11
0.003071
2.653e-07
0.006691
0.0002661
6.181e-06
5.363e-05
6.031e-07
5.231e-06
3.21e-09
0.006698
8.835e-13
2.895e-07
6.812e-07
9.85e-07
2.918e-08
0.002023
0.004891
4.718e-09
6.475e-07
7.007e-05
5.963e-16
0.0004141
1.668e-07
1.223e-08
1.898e-07
1.395e-06
0.0002468
4.806e-08
4.74e-07
7.021e-05
0.0002759
6.179e-08
1.079e-07
0.001829
9.703e-12
9.856e-05
3.687e-07
0.0001232
2.623e-08
0.00664
0.006689
0.0006491
1.03e-11
0.0006628
0.002603
3.551e-11
2.188e-06
0.006692
9.47e-10
4.064e-07
0.0003665
8.563e-11
2.839e-05
0.0001555
1.564e-15
0.003745
7.197e-09
0.001259
5.944e-07
4.871e-08
8.53e-08
9.901e-09
9.527e-06
1.364e-05
0.0001132
0.003345
1.347e-05
5.056e-05
2.024e-05
5.526e-07
0.002433
1.793e-08
0.001239
8.241e-05
0.001951
4.672e-06
3.588e-05
9.04e-06
9.675e-12
6.599e-05
5.019e-10
9.63e-08
7.997e-05
0.0001385
0.006693
0.0017
0.0002464
3.83e-05
6.681e-08
1.27e-08
6.437e-09
0.006681
5.527e-08
3.43e-06
0.0003537
3.737e-12
0.0001108
0.003669
5.249e-06
0.002742
3.937e-06
8.961e-05
1.819e-10
6.494e-05
0.0007277
0.0009799
0.006696
2.201e-13
5.431e-12
0.0002872
6.924e-05
2.515e-05
0.006502
0.006645
3.552e-05
0.001239
0.003542
0.0001099
0.003433
0.003398
1.693e-06
0.0002998
0.002751
1.125e-05
1.406e-07
2.4e-12
3.186e-05
6.113e-09
0.0001381
1.572e-05
0.006647
6.329e-08
0.001272
1.069e-06
1.171e-12
0.000349
0.002464
6.734e-05
9.719e-07
0.0005172
7.005e-13
0.002437
0.0002156
0.002168
0.002332
2.949e-05
1.371e-07
3.679e-13
9.252e-05
9.459e-06
0.006674
1.441e-07
1.195e-07
0.006662
9.261e-08
1.985e-06
0.0001378
5.22e-08
0.006681
2.366e-05
1.515e-14
0.005078
2.269e-07
2.416e-06
5.818e-07
1.211e-09
5.583e-05
3.095e-05
1.449e-05
1.913e-09
0.0001129
3.069e-05
2.014e-05
6.468e-07
1.913e-08
3.909e-09
6.79e-07
0.0001247
0.00669
1.94e-05
0.00383
1.605e-08
1.168e-06
0.002449
0.0001113
0.006689
7.304e-05
1.772e-05
0.006585
0.002607
0.006103
9.052e-09
0.00261
1.785e-11
3.888e-05
0.0004721
6.516e-08
0.0003745
3.064e-07
6.123e-08
1.299e-14
0.0001162
3.215e-05
0.0005518
0.0005575
0.001371
0.006702
0.0003367
0.001402
0.001327
0.006699
0.002209
0.006684
3.192e-06
0.0001243
0.00667
0.006684
7.164e-05
0.0001277
6.579e-07
7.685e-05
0.006668
1.069e-05
0.0003073
6.896e-05
9.371e-14
2.531e-08
1.98e-11
2.136e-07
1.544e-06
9.443e-08
1.927e-07
0.0005334
0.0003194
5.707e-10
0.001118
3.391e-07
9.894e-06
0.0001761
0.0002711
0.003913
0.006686
1.178e-14
0.0001905
1.187e-09
0.006691
1.553e-12
3.133e-07
7.959e-08
0.0001406
0.006635
0.006635
0.002572
0.001857
0.002341
0.001929
7.564e-07
5.545e-05
5.261e-06
0.003522
3.895e-05
3.717e-09
3.628e-06
0.00012
0.0004601
2.883e-05
2.115e-06
1.27e-06
6.351e-07
8.631e-08
0.000795
0.002858
0.0002471
0.0001563
4.727e-11
0.0004924
0.000308
1.014e-06
0.002895
3.113e-07
0.0004366
5.261e-07
0.004292
0.006692
0.0007749
4.301e-06
9.217e-13
1.058e-09
8.38e-05
0.0001268
3.645e-07
0.0001156
0.006617
2.33e-07
6.528e-06
7.859e-14
6.33e-05
1.43e-11
0.0001755
0.006685
3.595e-05
3.253e-06
0.001839
1.52e-05
0.001031
1.397e-05
9.268e-07
0.0001297
0.0008225
1.434e-08
0.0001313
4.04e-07
4.042e-07
3.019e-08
0.003542
0.00354
7.973e-08
1.089e-05
2.94e-13
4.471e-06
1.721e-08
1.758e-08
1.184e-14
0.003274
1.829e-05
0.0004329
0.0041
0.006685
0.001146
0.006173
2.278e-12
0.006691
1.2e-09
4.14e-05
6.599e-06
7.721e-07
4.395e-08
0.002992
6.809e-10
0.0001284
5.993e-07
0.0006823
1.73e-09
0.006685
7.03e-05
1.791e-06
0.0008346
2.704e-07
4.782e-06
0.0003972
2.212e-07
1.218e-07
0.0001739
0.006661
1.482e-08
0.003012
0.006648
5.709e-05
9.282e-08
0.00666
1.903e-09
0.006694
0.0004094
0.0002291
0.001156
6.191e-07
0.006657
0.0006746
2.537e-06
0.0002313
3.75e-05
8.329e-06
3.838e-05
0.00669
0.00668
0.0003585
1.965e-13
5.141e-06
4.819e-07
0.0008964
2.219e-10
7.571e-05
4.97e-05
0.003297
1.961e-05
3.277e-05
5.334e-08
0.0007096
2.97e-07
0.001123
0.0002954
0.006703
4.53e-06
6.13e-07
0.000684
7.928e-07
1.283e-08
3.08e-05
0.006675
0.0005046
2.739e-09
5.556e-06
2.214e-12
7.286e-09
0.003024
0.000304
1.349e-05
2.714e-10
0.0004672
9.394e-08
9.323e-09
0.0032
7.57e-05
0.006686
7.112e-05
1.841e-07
0.0001735
0.006692
1.766e-05
0.006692
0.0001015
3.06e-05
0.006683
0.003161
6.107e-05
8.142e-06
0.001008
0.002945
1.077e-07
0.006696
6.369e-08
1.859e-09
4.6e-05
0.003999
2.107e-07
0.0009514
0.0002127
0.0005071
1.414e-08
2.38e-06
0.0004205
2.544e-08
0.0001982
9.513e-05
3.421e-09
0.0001461
5.026e-05
1.456e-06
0.0002083
1.206e-07
0.0005076
1.105e-05
6.107e-07
0.0003524
0.002782
5.932e-07
0.003528
7.597e-05
6.522e-05
1.956e-12
0.0001654
3.521e-11
0.0001032
0.006663
3.594e-11
2.94e-07
0.0001007
8.369e-08
0.0004045
0.0005414
0.006705
0.001859
1.773e-10
0.001126
7.513e-06
8.401e-07
2.645e-07
0.006695
7.899e-07
8.268e-06
1.089e-05
2.156e-08
0.0004422
5.677e-07
2.671e-09
0.006687
0.0002574
0.0003893
0.003139
0.0002335
3.651e-05
4.262e-05
6.011e-06
9.842e-05
0.001377
0.003506
6.46e-05
0.0001182
0.006507
2.777e-05
2.957e-08
2.68e-11
0.006686
1.196e-05
1.167e-10
0.002917
9.552e-07
0.002084
2.96e-07
2.719e-11
0.00337
0.002953
0.0002607
0.0009964
3.524e-07
5.627e-06
0.001053
9.946e-10
3.801e-05
0.0004483
3.318e-05
4.982e-15
1.487e-14
0.0002888
0.0002234
3.869e-05
8.529e-05
0.001265
8.595e-06
0.001013
4.426e-07
4.882e-05
8.449e-05
4.252e-07
3.249e-10
0.0004755
9.878e-05
0.00669
3.177e-07
9.144e-05
0.0002566
1.819e-05
8.748e-05
2.925e-07
0.0002869
0.00403
0.006662
4.249e-08
7.534e-09
0.0005026
2.994e-05
0.0008832
1.414e-12
9.71e-08
0.0002074
2.206e-05
1.933e-08
0.0005735
3.885e-07
5.508e-13
0.006607
5.247e-10
2.817e-07
2.692e-07
0.00507
0.0007381
0.001769
2.214e-08
9.728e-06
0.001876
7.705e-09
0.004831
5.861e-06
1.725e-07
0.0001352
0.002227
0.006623
6.667e-08
5.068e-09
3.713e-07
9.905e-09
7.136e-10
0.0007935
2.035e-11
0.002992
4.578e-07
1.883e-05
0.002846
0.0001328
0.004487
2.029e-06
0.00122
4.597e-07
0.003433
5.231e-07
5.922e-14
2.318e-11
0.0001687
0.0004845
3.39e-05
1.324e-05
0.002137
0.0002333
0.0001567
7.896e-05
0.006697
6.411e-07
4.098e-07
1.479e-07
7.998e-05
1.045e-05
2.165e-07
0.0007131
1.209e-07
1.921e-11
1.05e-09
0.0001125
4.727e-07
1.005e-13
0.001881
3.059e-07
0.004522
6.805e-06
1.05e-05
3.964e-16
9.582e-06
6.888e-06
0.003801
0.0001828
6.245e-08
0.0001266
0.006691
0.006697
0.0012
7.809e-09
0.001794
4.078e-07
1.177e-11
1.637e-06
0.001097
1.129e-08
0.002702
0.0001215
9.584e-10
0.0001202
0.004901
0.0004411
9.02e-05
9.913e-05
7.253e-05
0.006695
4.37e-06
0.003499
9.104e-09
0.003922
1.501e-07
9.666e-09
5.459e-05
1.111e-08
0.0006253
4.717e-07
3.829e-07
5.277e-07
2.214e-05
0.001583
0.0001691
0.0003924
2.502e-06
0.000112
1.242e-08
2.195e-06
0.006694
0.0001105
0.004545
1.628e-08
8.62e-07
0.002827
0.001646
0.0001059
3.195e-08
0.003702
9.427e-05
0.0009401
0.0003209
0.002416
0.0008902
0.0002448
2.261e-11
0.000114
0.0003755
5.254e-07
0.006671
0.001218
7.515e-05
0.0001167
0.001697
0.006687
9.745e-05
2.382e-07
9.524e-07
0.006691
0.001097
0.002659
4.254e-06
5.755e-06
0.001312
0.00045
0.0004311
1.527e-08
5.907e-08
0.002343
1.405e-06
0.0004992
0.0001015
4.722e-07
3.033e-12
0.002454
1.175e-08
9.045e-08
0.00209
2.162e-12
0.006691
0.00666
1.34e-05
4.783e-05
1.277e-14
0.006692
0.001998
5.511e-07
4.26e-13
2.584e-06
2.858e-08
0.006322
0.006379
8.759e-08
9.477e-05
0.0004729
2.301e-06
5.849e-05
0.001586
9.829e-05
0.006705
1.266e-08
2.557e-07
5.89e-07
0.0006896
8.198e-10
0.001856
2.369e-05
0.006656
9.039e-06
2.376e-07
1.278e-08
5.447e-08
0.0001129
5.317e-10
1.161e-05
0.0002628
4.987e-07
8.062e-06
8.965e-05
0.0001131
2.259e-06
8.234e-09
0.004984
0.005133
5.043e-06
6.835e-05
1.286e-10
9.573e-06
5.319e-08
4.936e-05
0.002999
0.00669
7.789e-06
0.006702
0.0004159
8.436e-12
2.524e-06
9.48e-05
1.067e-06
0.0001278
3.566e-10
3.348e-07
0.003382
6.868e-06
9.583e-06
4.861e-07
0.0008994
1.615e-06
7.218e-05
0.0001661
0.0003692
0.0002325
5.054e-06
0.001444
6.527e-09
3.929e-07
0.0001826
0.0001543
2.679e-09
0.0001659
1.061e-05
1.279e-06
1.091e-06
7.867e-06
5.033e-06
1.908e-11
0.0001107
9.542e-05
0.001665
0.001574
0.006703
3.033e-07
0.002937
2.041e-11
1.561e-05
4.217e-05
8.635e-08
3.017e-13
8.211e-09
0.0004424
7.971e-07
2.19e-08
2.499e-09
0.002825
0.0008413
2.052e-06
4.117e-12
5.836e-05
0.0002038
7.182e-05
7.659e-05
0.006691
0.0008651
6.058e-09
2.552e-05
4.498e-06
0.002414
0.0001125
2.309e-08
0.006641
0.0005683
0.0001048
0.001668
1.525e-08
7.461e-05
4.304e-05
0.003342
6.159e-05
3.019e-07
2.933e-06
2.067e-11
7.553e-07
2.428e-06
0.006674
0.0002994
1.697e-05
2.986e-08
4.1e-08
1.772e-06
0.003529
0.0001991
0.006346
9.92e-08
5.308e-08
8.706e-06
6.602e-06
0.0005255
5.181e-08
2.366e-08
9.995e-08
3.593e-06
7.238e-05
1.486e-06
1.403e-08
0.004559
0.000136
1.41e-11
0.003162
0.0004999
0.005524
0.006698
5.825e-06
0.003054
1.358e-06
1.312e-06
0.0006356
0.0008667
2.465e-08
6.524e-08
5.366e-05
1.557e-07
5.758e-05
0.001823
1.102e-12
0.0003763
8.428e-05
0.003471
6.729e-12
0.001494
2.988e-09
6.602e-11
0.003802
3.717e-07
2.886e-08
3.356e-05
0.001114
9.095e-08
1.042e-06
1.11e-07
0.0005589
0.0003297
0.0002091
0.004341
0.0067
4.673e-05
0.00116
2.846e-05
2.319e-06
0.000339
1.339e-11
0.001087
0.005594
1.03e-05
0.0002501
0.002349
1.174e-06
0.0002815
1.101e-06
2.9e-08
6.089e-09
3.583e-11
1.209e-05
1.99e-07
8.483e-06
9.501e-05
1.835e-05
2.244e-05
4.259e-12
1.744e-05
5.958e-07
8.929e-06
0.006676
1.008e-05
7.39e-06
0.001267
3.595e-05
3.005e-11
6.613e-07
1.287e-06
0.0008199
0.0002577
1.216e-08
0.006691
1.672e-07
0.002261
0.0001475
3.876e-06
4.33e-08
0.006695
2.533e-05
0.001125
1.141e-05
3.377e-10
2.001e-05
9.765e-05
5.495e-14
0.0002878
2.212e-07
0.00665
0.006632
2.318e-07
0.0003983
2.278e-05
5.438e-07
5.042e-07
0.006685
3.759e-08
1.153e-08
0.0003911
0.00572
0.004638
0.0003999
0.000201
2.222e-07
1.035e-14
3.572e-08
0.005237
4.903e-08
1.407e-10
8.862e-05
3.511e-08
1.327e-07
0.003097
9.369e-05
9.799e-08
0.002218
0.0006362
0.00663
0.006585
0.006611
0.006282
0.0001275
0.001019
5.013e-06
5.912e-08
1.693e-05
4.894e-05
0.000455
1.48e-07
0.006163
0.0001121
0.0003
6.751e-07
1.459e-06
2.528e-07
0.0001687
8.295e-07
1.167e-07
0.000508
3.782e-07
0.000188
5.493e-07
1.184e-13
2.335e-07
4.293e-10
4.388e-06
1.117e-06
0.00669
5.806e-12
0.0001056
9.539e-08
1.755e-05
0.0001341
5.442e-12
0.006693
0.0002059
2.905e-06
0.004174
6.668e-05
8.144e-05
0.00102
0.000194
1.326e-08
9.101e-05
9.439e-07
0.006626
8.5e-06
1.21e-05
1.291e-05
0.001112
2.683e-06
0.006678
0.005831
8.415e-05
2.429e-05
3.736e-07
9.908e-05
0.0008386
0.0001158
5.1e-05
1.345e-08
1.126e-07
0.002418
0.002629
0.001023
0.0001398
0.0001075
6.532e-13
4.172e-06
0.006689
1.464e-10
0.006691
0.006684
0.0001232
0.002991
2.29e-09
0.0009667
1.147e-08
0.0004726
8.469e-08
0.006695
9.818e-05
3.884e-05
2.108e-07
0.002008
0.003741
6.485e-05
1.303e-10
2.236e-08
0.006702
5.778e-10
2.174e-08
2.831e-14
0.00333
0.002734
0.001429
9.514e-05
0.0007144
0.003039
3.04e-06
1.13e-10
1.08e-05
3.554e-08
1.632e-13
0.00669
7.425e-08
2.466e-07
5.28e-07
0.006693
2.217e-08
1.361e-11
2.573e-13
1.716e-12
0.0001105
0.0003179
1.976e-12
0.0002634
7.356e-05
0.006686
0.0008952
1.505e-07
0.003509
4.522e-06
1.696e-12
0.0001254
0.000283
2.006e-06
0.006706
0.003323
8.588e-08
4.994e-07
0.003942
5.442e-08
9.426e-05
0.0001324
0.001604
0.0004986
3.391e-05
0.0001559
0.006691
0.0003849
0.0003843
2.039e-07
3.527e-06
8.599e-07
9.012e-08
1.262e-06
1.152e-11
2.717e-12
5.608e-16
6.439e-08
0.0001535
2.646e-08
0.0003442
1.545e-08
1.044e-08
0.00669
1.534e-13
0.006705
1.84e-05
9.068e-10
3.365e-09
0.0001763
1.513e-06
7.175e-06
4.273e-07
0.006628
9.146e-14
3.262e-05
0.003289
0.001726
0.0001739
4.219e-12
2.782e-11
4.744e-12
0.001603
6.258e-08
5.896e-08
0.0009689
2.704e-05
6.26e-07
5.808e-10
0.006667
0.0001806
8.923e-07
0.0001376
1.139e-06
0.0006988
0.003428
4.951e-10
3.899e-07
3.883e-07
3.671e-11
0.002495
1.448e-09
4.327e-05
1.266e-06
2.034e-05
0.005112
0.000132
1.585e-06
1.576e-06
1.055e-05
1.297e-11
0.003305
0.004259
2.62e-05
1.711e-07
2.461e-09
0.0005321
0.003511
0.006433
0.0003133
8.253e-09
0.006365
5.114e-06
9.054e-08
9.099e-05
4.813e-05
0.0005286
4.274e-11
7.876e-12
1.568e-12
9.009e-05
5.292e-08
0.0001145
6.141e-05
0.002689
0.002484
3.77e-10
0.001388
1.213e-08
1.535e-07
1.572e-08
3.499e-07
4.654e-05
7.925e-12
0.001121
7.533e-07
0.0005221
0.003529
1.111e-06
0.0001887
0.002462
3.398e-06
6.325e-07
0.0001336
1.43e-06
1.474e-06
7.252e-12
1.13e-13
0.002839
6.209e-13
0.002833
0.0001592
0.0001191
0.0001895
4.664e-06
0.006704
3.051e-07
9.98e-12
4.103e-06
8.698e-09
0.001742
0.0005971
4.354e-07
0.0001008
0.001459
6.947e-06
0.001826
3.238e-10
4.385e-05
0.005403
0.0001127
7.431e-07
0.0067
0.0004414
5.676e-09
0.006694
3.001e-05
2.429e-05
1.601e-07
1.863e-05
1.351e-09
0.002981
0.001649
5.884e-05
3.153e-08
9.421e-08
4.206e-08
9.886e-07
0.006683
1.168e-07
0.006686
7.895e-05
2.742e-05
0.001272
2.065e-12
2.996e-05
3.729e-08
0.002922
7.087e-09
2.511e-05
0.002877
0.0006183
4.867e-06
0.006669
2.913e-05
0.006694
2.934e-08
1.389e-07
2.622e-06
0.0001286
0.006598
1.398e-06
1.135e-07
8.912e-05
1.287e-08
4.448e-05
7.599e-07
0.0006891
0.000644
4.185e-05
5.527e-05
7.886e-06
2.659e-06
0.0001113
2.003e-05
0.0001017
3.989e-06
7.654e-05
0.006625
0.006659
0.002213
0.000319
5.798e-06
1.275e-06
2.576e-06
0.002717
2.189e-07
8.1e-06
3.814e-07
0.006697
1.042e-06
5.956e-05
5.001e-09
0.003208
1.795e-13
0.000341
3.378e-09
0.003836
0.0001126
2.053e-11
0.0003063
4.209e-07
2.928e-07
1.876e-07
1.141e-05
0.0001255
0.006693
2.463e-07
8.693e-06
0.0002624
0.0001466
0.0003512
1.453e-05
0.0004381
9.088e-07
5.068e-08
0.006684
0.0008739
1.529e-06
5.775e-10
7.548e-06
0.006701
3.924e-06
1.351e-07
0.0006313
0.0006941
6.823e-06
6.189e-08
0.0002046
2.415e-06
3.242e-05
0.002566
0.0001492
0.0003389
0.005423
5.493e-06
1.887e-12
0.0004446
0.0001656
7.294e-09
1.476e-05
2.016e-05
0.006689
0.0003006
8.675e-05
0.003813
4.149e-11
4.78e-05
0.006697
0.001216
6.825e-07
2.931e-14
0.006697
0.0006824
7.907e-09
3.934e-07
3.097e-05
5.526e-05
5.391e-08
7.348e-05
3.451e-06
3.148e-08
1.176e-10
1.006e-07
0.002356
0.000169
0.0005741
6.498e-05
0.006683
6.296e-05
2.318e-05
0.0009816
7.597e-06
1.629e-12
1.226e-09
0.003574
1.295e-06
9.352e-11
0.002625
7.859e-08
0.0006904
3.972e-05
8.528e-05
5.585e-09
1.34e-11
0.006687
1.529e-05
5.91e-07
0.006697
8.47e-09
0.0009196
1.141e-05
0.0001358
0.0004444
3.261e-08
1.211e-05
3.281e-06
0.006699
0.003547
0.003949
0.0001595
0.006667
4.075e-05
0.0004003
1.025e-08
0.003125
0.0009366
1.05e-07
4.692e-09
0.003127
0.0002279
0.006673
1.456e-11
1.72e-05
4.164e-08
6.464e-08
0.000122
1.077e-07
1.364e-05
2.577e-05
2.334e-12
0.003894
2.785e-11
0.006669
0.006683
0.0003808
6.516e-05
0.006683
8.893e-13
3.171e-07
1.373e-07
3.699e-08
1.55e-05
0.0002932
0.005013
7.279e-13
0.0004791
8.401e-07
0.006658
2.858e-05
0.0001636
0.000336
0.0002065
0.0004732
0.003296
5.6e-06
0.006655
0.0002269
1.325e-07
2.753e-08
4.355e-09
9.256e-05
0.0007188
5.943e-06
0.006699
1.021e-05
8.829e-06
0.0005345
0.0002195
0.0003592
2.487e-11
0.006021
0.006678
3.669e-06
5.082e-07
0.002559
1.964e-08
0.006701
1.16e-07
5.706e-05
5.453e-07
0.006701
7.234e-05
1.76e-08
2.343e-07
8.636e-08
0.0005615
2.721e-06
0.006671
4.664e-08
0.004788
9.303e-07
1.152e-12
0.000798
0.0001543
0.001638
2.109e-07
1.125e-09
5.84e-06
9.114e-05
0.006656
0.0001758
8.791e-05
0.006687
9.839e-06
1.677e-06
0.002445
0.006677
0.0001156
0.0001157
0.0001997
1.771e-07
0.0001283
0.006691
4.207e-07
8.288e-07
5.913e-06
0.0005104
0.006696
0.006687
0.0003321
0.0004372
0.002424
4.962e-08
1.913e-12
2.027e-11
9.037e-07
6.975e-11
1.222e-09
0.002043
4.112e-12
0.0001185
9.459e-08
0.003334
7.024e-05
4.378e-05
9.029e-08
1.249e-06
4.055e-09
4.808e-06
0.0002495
0.0004276
1.743e-07
6.587e-07
2.16e-05
9.646e-05
8.066e-05
6.719e-05
1.379e-07
0.004343
0.0003501
8.308e-06
1.062e-05
1.406e-05
2.888e-06
1.766e-12
5.526e-09
0.006661
5.889e-10
0.0003174
0.006647
3.184e-06
0.006694
2.348e-07
0.0001423
0.002995
1.158e-05
4.552e-07
0.006707
3.633e-05
0.003499
1.165e-10
0.0009531
1.751e-05
4.204e-11
2.693e-05
0.006687
2.689e-09
0.0005189
0.0003921
1.802e-05
0.002875
3.361e-07
2.131e-12
5.206e-08
0.000102
0.001968
2.491e-05
5.491e-06
0.006687
0.0001911
1.549e-07
5.888e-07
9.621e-05
0.006701
1.063e-11
2.635e-07
1.939e-06
0.000173
0.0002926
0.0002148
0.006653
0.0001482
2.943e-06
2.955e-05
5.197e-05
4.059e-07
3.462e-08
0.003075
8.549e-06
8.772e-06
0.002153
5.508e-05
0.002982
2.082e-06
1.264e-05
7.382e-06
0.0067
3.013e-07
0.002923
0.0004255
2.26e-05
4.136e-05
1.132e-07
0.0001303
1.237e-14
0.001671
4.028e-05
0.002419
0.006675
2.017e-05
2.983e-06
2.016e-09
7.019e-08
3.477e-05
7.258e-08
8.614e-09
0.0004659
2.378e-05
0.0001061
7.992e-08
2.6e-10
0.000333
0.0001516
5.591e-09
5.197e-05
1.1e-08
6.895e-06
0.001902
0.001111
2.08e-07
0.006693
0.0001057
6.743e-05
0.006689
0.0004811
5.427e-09
0.002883
1.005e-13
4.103e-08
8.336e-06
0.006688
0.0004549
3.394e-05
0.003701
0.0005231
0.0003566
1.031e-06
1.511e-05
9.188e-08
0.006695
0.0001269
0.006676
4.148e-05
1.541e-05
1.106e-06
2.498e-05
8.04e-08
7.84e-14
0.006612
0.006692
1.836e-06
7.004e-07
9.171e-09
0.0001196
6.857e-05
3.05e-08
0.001407
0.001782
0.003065
1.237e-06
5.456e-09
3.698e-05
0.0005218
0.006686
9.602e-07
6.447e-05
0.0002593
8.154e-08
6.805e-05
0.002245
7.96e-08
2.325e-05
0.000445
3.351e-06
9.528e-05
0.0002446
0.006682
0.006556
7.301e-08
5.964e-08
3.687e-06
0.004156
0.0001136
0.003454
3.268e-07
4.64e-06
0.006602
9.597e-06
3.394e-05
3.326e-13
4.681e-09
1.706e-07
0.00668
5.847e-08
5.001e-07
1.152e-06
1.222e-06
1.181e-11
2.472e-05
0.0004785
5.022e-07
8.521e-07
3.686e-08
1.436e-09
0.003107
0.003231
0.004375
9.645e-05
8.803e-14
0.0009009
0.002159
6.886e-08
2.147e-06
0.00179
4.198e-07
0.0002451
1.191e-09
0.001359
6.343e-07
0.0005931
2.721e-05
2.192e-05
3.446e-13
0.0006419
2.045e-11
1.774e-11
0.00669
1.771e-11
1.91e-06
9.411e-09
6.464e-08
0.0004151
0.001596
5.064e-05
6.957e-07
7.653e-06
5.409e-05
0.001079
0.001039
0.0003905
0.001033
0.0001366
1.719e-05
8.308e-05
0.002361
1.632e-11
0.0002782
1.899e-08
6.11e-07
5.548e-08
0.006647
1.931e-06
0.0001252
2.473e-08
0.00138
2.126e-11
1.215e-05
1.753e-07
9.137e-05
5.471e-08
8.338e-05
0.0007348
0.0003524
0.0001622
9.788e-05
0.0005672
3.589e-06
0.000243
2.248e-05
5.379e-06
2.602e-07
0.0004655
2.052e-11
4.406e-06
1.656e-11
4.219e-05
0.0009887
6.513e-05
0.002537
0.0001616
5.136e-07
0.00669
0.00345
0.00669
0.0003003
3.962e-07
2.478e-05
0.003713
9.147e-06
0.0005494
5.829e-05
2.071e-12
2.903e-09
1.901e-11
2.29e-07
0.0001246
3.152e-08
5.256e-08
0.0001187
2.391e-07
0.006695
0.0005292
0.003635
8.332e-06
0.001679
0.006679
0.006675
7.484e-05
0.002578
0.000153
1.22e-12
3.406e-07
0.006672
0.006692
9.725e-07
0.0002592
4.844e-08
1.277e-10
0.005017
4.098e-05
6.448e-06
1.891e-07
8.663e-06
1.766e-12
9.822e-06
9.41e-05
1.55e-06
1.478e-07
3.789e-05
1.08e-05
4.788e-06
1.479e-05
3.166e-08
6.599e-05
7.424e-14
0.005648
1.023e-06
4.902e-07
2.587e-08
0.006695
0.0004221
0.006691
0.001665
0.0009785
3.095e-06
0.0004496
2.148e-07
1.355e-06
0.0001061
1.105e-08
6.154e-08
1.145e-06
1.938e-08
3.107e-08
0.0001725