/*--------------------------------*- C++ -*----------------------------------*\
  =========                 |
  \\      /  F ield         | OpenFOAM: The Open Source CFD Toolbox
   \\    /   O peration     | Website:  https://openfoam.org
    \\  /    A nd           | Version:  8
     \\/     M anipulation  |
\*---------------------------------------------------------------------------*/
FoamFile
{
    version     2.0;
    format      ascii;
    class       volScalarField;
    location    "45";
    object      omega;
}
// * * * * * * * * * * * * * * * * * * * * * * * * * * * * * * * * * * * * * //

dimensions      [0 0 -1 0 0 0 0];

internalField   nonuniform List<scalar> 
127143
(
3.821e+07
7.184e+07
8.194e+07
3.494e+07
2.933e+06
3.537e+07
1.159e+06
2.025e+06
3.234e+06
4.719e+05
1.704e+06
2.662e+06
9.642e+07
2.958e+07
479.7
7.928e+04
9.896e+06
11.77
9.135
3.26e+04
18.14
7.132e+04
0.07764
258.1
7.683e+04
1591
5889
5729
5186
11.65
407.3
1750
7565
922.1
0.04032
6809
44.22
61.11
198.7
2135
9.168
0.3012
0.2266
1.373e+07
11.73
823.7
4658
16.47
263.3
223.9
5.053e+04
0.02515
37.52
0.1283
0.02092
556.9
0.0209
0.3031
0.02205
0.1275
0.2375
8.959
70.55
0.02211
335.5
0.3245
0.04134
85.72
85.14
0.08475
299.2
3991
13.94
0.02205
0.02179
4064
0.02254
29.33
548.5
0.02222
4811
2.909e+04
295.1
1336
16.51
24.69
153.8
4547
0.2759
504.6
0.02217
26.39
216
18.01
43.6
0.2546
0.2769
545.7
17.64
0.04095
0.02221
249
2471
4.663
23.37
18.27
90.11
0.0851
0.9765
0.02132
380.3
5161
25.05
3.28
0.02173
1.488
0.02275
0.02179
0.02247
2.882e+05
0.02134
280.6
45.22
0.1449
4741
2735
10.66
0.02304
44.65
620.7
41.26
48.02
36.83
28.6
1.119e+06
39.35
0.0492
15.86
3621
0.04131
0.1075
0.02216
31.8
19.27
38.23
22.72
1.737e+04
0.02213
51.36
3397
9.704
238.6
74.79
0.06343
44.23
16.18
0.3034
786.5
16.12
660.7
287.3
9.342e+04
0.02219
40.98
1379
254.3
56.82
0.3809
1092
0.02544
811.7
19.05
2.397
20.66
0.2792
41.01
12.86
44.35
224.8
0.03224
20.58
0.03404
40.33
40.34
613.3
8.864
0.07111
3.125
238.2
0.03137
32.34
41.64
0.0453
47.09
2.051e+06
11.42
0.01938
0.01933
2.223e+05
0.02175
0.02168
0.02562
5.091
39.02
1.109e+07
124.8
0.04688
19.04
12
0.02174
2.925
19.54
0.02163
1111
69.45
2.288e+05
2629
20.37
31.47
0.04712
8.13
0.02184
240.6
46.02
787.5
909.8
968.6
64.68
296.5
13.06
19.1
0.0338
13.32
1.971e+05
18.91
0.08138
40.94
4.482e+06
0.02168
29.22
40.33
186.2
24.82
769
102.6
2.284e+05
154.5
5719
1.703e+05
0.1026
1.299
1166
27.01
17.07
378
1.055
0.02301
1211
5.366
0.04768
12.09
0.02699
20.12
0.02211
94.91
228.7
150.8
112.4
0.4433
39.11
889.3
0.2759
13.52
29.24
40.39
31.93
24.62
194.2
0.5331
2.959
0.07668
0.5313
4.581
0.02175
0.02173
1.891e+06
44.11
0.02173
209.3
0.03382
75.28
0.1793
0.08097
3.78
0.02166
2.159
355.9
122.2
24.83
33.5
517.2
0.2959
0.2278
1.224
911
20.27
18.9
0.02164
11.22
19.63
100.3
754.8
631.3
0.06019
0.02172
271.6
51.87
529.6
0.343
2.48
0.0733
327.6
0.02753
27.1
290.7
60.36
0.03027
114.7
340.4
7.707
10.49
0.02173
0.04003
0.01939
0.01935
0.06225
0.9651
2.388
10.51
50.07
0.04082
20.38
39.49
31.73
3.842
209.9
135.9
30.85
482.2
56.19
424.9
8.416
42.8
31.89
0.02712
114.9
17.09
16.42
0.02342
343.7
11.69
57.85
15.39
215.2
217.8
0.02192
0.02175
1.454
321.4
0.5242
0.6942
0.02767
775.3
233.7
0.02975
0.05999
320
1.546e+05
15.99
0.5681
20.52
2008
386.4
0.2937
0.02267
1.271e+04
0.03378
1850
11.71
29.8
0.02177
0.1579
458.4
375.2
237.5
394.9
0.1604
346
0.02705
0.02662
1290
0.02184
18.22
38.55
0.03455
15.44
20.96
34.3
0.02222
204.3
11.66
516.4
0.1082
14.55
30.22
42
22.19
992.1
109.2
234.2
53.73
4708
86.12
0.07737
13.38
0.05319
0.201
0.07456
154.1
0.05402
0.02115
87.15
48.4
19.12
197.4
0.02192
20.63
114.2
0.02483
0.02166
0.02172
199.3
0.04996
1.261
0.02354
521.2
0.02171
188.7
1.554
19.59
17.69
341.5
13.09
393.5
0.03437
34.26
583.5
122.5
29.05
87.85
29.9
54.51
16.75
1.221
51.15
0.2069
0.02189
21.48
176.6
0.02078
14.61
12.07
0.1454
54.46
0.04198
0.02028
36.3
8.221
390.8
53.85
5489
157.5
96.08
635.5
5.478
195
60.79
0.02162
529
0.02219
127.6
139.1
37.12
25.94
3.46e+06
47.92
1.311
0.09988
1.553
0.02165
5453
0.02191
31.8
11.24
5.043e+06
2.529e+05
8.19e+05
0.02194
112
384.1
0.02172
10.49
71.43
44.58
5.595
18.19
345.1
14.5
3237
0.1746
23.43
1.663e+05
308.2
494.7
651.6
0.02194
8.851
3.74
17.62
0.02211
631.5
3414
454
0.01964
21.47
0.08577
1547
8.21
1752
14.12
0.02229
170.3
5.967
0.02081
0.2949
104
314.5
213.3
195.3
444.4
11.54
97.43
167.3
43.67
81.93
0.02184
1487
34.17
569
45.19
21.49
0.02212
0.02207
0.04596
143.6
2.36
0.02171
0.02945
2.672
579.5
21.49
5.528
750.9
3016
1.542
0.02223
0.02134
457.2
16.94
60.59
0.0317
3833
31.79
64.26
0.5585
846.1
0.02171
19.69
34.49
22.92
0.02772
181.4
12.09
2.037e+04
0.02026
84.01
2526
0.02171
15.41
0.02173
152.3
54.3
0.02175
226.2
312.1
425.1
40.34
37
420.7
384.4
15.46
181.5
148.8
207.1
49.15
59.23
669.6
0.02674
521.4
0.02173
2.797
0.02324
33.23
0.02116
0.02173
0.4288
231.3
22.87
0.02135
0.02114
256.5
2039
209.4
475
11.57
1.205
17.53
13.31
31.55
122.6
400.1
0.02138
82.08
30.05
0.3858
42.44
0.02231
0.0294
66.15
2786
60.53
1.093e+04
0.02319
0.03859
52.74
86.15
0.02539
291.3
0.1074
0.07653
205.6
5.337
30.03
0.0834
8.656e+06
776.9
28.18
34.58
43.22
58.21
714.4
114.9
0.02423
39.23
124.7
17.9
0.02121
185.3
0.2368
0.1469
0.01962
0.02119
1.122e+04
0.1005
397
46.03
93.85
11.24
0.3809
635.1
0.07225
366.6
0.02162
0.02089
1.718
0.05469
257.9
0.1484
1330
10.48
398.7
1.206
16.01
0.03752
516.2
0.04221
387.8
1.213e+06
36.65
106
15.33
0.02927
61.25
212
8809
9.817
15.89
31.43
2874
22.58
313
8.624
299
77.67
19.52
10.51
0.2069
1.868e+07
0.235
0.02526
112.2
65.04
136.7
0.02154
58.1
8.443
21.19
0.04144
1.159e+04
78.46
864.9
0.04754
130.9
48.56
104.8
45.29
0.03975
16.1
569.1
236.8
17.62
0.02177
40.3
49.96
0.02177
19.87
0.5765
54.7
47.4
0.2611
36.88
1507
124.8
0.01935
16.25
9.076
1495
497.7
0.1418
10.34
390.3
0.01938
42.38
203.7
48.2
1.371e+05
49.85
424.9
23.52
23.11
2.014
0.02193
1.397e+07
39.1
37.75
1006
23.12
138.5
70.05
256.8
0.02132
8.793
4.752
0.03965
87.26
125.9
92.35
45.93
0.02048
16.91
44.51
0.02162
0.02042
43.1
9.024
11.52
129.9
19.51
4.926e+04
7.821
0.1347
0.02123
24.42
49.82
370.6
724.6
0.3438
0.05604
0.02187
1.926
4544
0.02125
0.7409
1813
61.39
1540
0.02741
25.04
66.14
0.0218
471.1
0.0212
97.26
4616
68.73
130.9
3365
0.02196
216.5
0.09166
610.5
235.8
756.5
4088
0.1408
0.4118
0.6921
2e+04
0.02178
55.12
529.3
837.4
131.4
5055
0.0538
2.311
468.8
2163
1.113e+04
404
3.474e+05
601
6.393e+04
47.79
809.5
8.838
8864
0.02251
117.2
0.02739
0.02696
26.61
0.0249
37.26
15.85
2.743
1.048
0.03664
406.9
120.9
0.02176
10.3
40.13
0.03537
273.2
3.784e+04
39.09
16.18
401.3
21.44
193.4
0.02168
38.15
388.4
0.02321
204.5
34.17
8.817
0.02069
2.471
14.11
1.131e+05
2.552
3.826e+04
14.41
21
92.67
3786
115.3
0.02393
3218
0.1992
0.02436
1.623
1.213e+05
25.06
227.5
9.829
2.543
7377
5.832e+04
258.3
0.0222
0.02183
17.22
3.572
66.36
199.2
9.838
2069
179.8
0.05816
2026
0.04321
1897
0.0216
16.99
756.8
19.85
82.47
16.98
0.02177
0.02178
702.3
0.1312
106.6
257.8
270.9
12.84
82.45
124.7
78.59
1.54e+04
32.31
454.5
238.9
14.2
11.55
47.74
123.8
1547
4.457e+04
17.55
0.02154
0.02138
14.22
24.84
0.4952
0.02078
15.77
17.67
0.4965
211.5
76.44
152.8
0.9509
0.02223
0.2128
0.5437
4666
916.2
50.72
0.2019
50.52
297.1
245.9
27.77
9.579
36.59
146.9
57.05
2439
0.02281
4584
4523
8.979
38.21
455.7
0.02173
1.148e+04
1.758e+04
0.02211
0.02154
35.56
21.1
1.624e+05
140.1
112.7
422.4
226.9
0.2415
0.3192
0.02271
269
21.54
140.1
2.192
1929
30.65
0.03016
1.153e+04
70.73
0.02172
90.04
0.0261
0.02164
24.2
0.08336
1.202e+04
0.02157
469.4
0.02181
161.3
0.07211
10.23
7.316
465.7
320.1
244.1
41.79
0.05498
0.03722
20.59
207.4
144.7
178.4
3889
264.9
1.759e+04
43.44
394.6
188.7
301.9
1558
0.09883
8.876
0.05497
147.3
80.93
829.5
0.06732
416.3
12.87
90.6
114.4
33.25
0.7719
432.9
11.16
90.64
119.2
651
247.5
0.02116
22.55
154.5
0.02182
82.13
254.9
0.02065
1.469
143.4
0.03473
0.1024
27.02
97.2
0.132
0.01975
76.53
95.3
0.0216
0.07887
0.02852
17.5
106.9
10.14
0.03355
717.8
3.483e+04
507.5
263.7
12.14
8857
0.07982
160.3
0.02176
25.98
5.498
62.76
114.3
875.7
2483
0.02196
1.665e+05
549.4
388.2
55.43
1097
10.53
9.868
1037
76.1
0.03125
3.354e+05
32.67
258.1
720
190
112.6
80.41
1975
100.4
57.31
130.9
343.9
279.7
22.21
3.092e+04
0.09459
130.7
0.08365
483.8
0.01968
0.02165
58.36
1.13e+04
18.02
1.809
1.314e+04
440.3
0.02179
1722
112
104.7
3.858e+04
1.515
55.25
3.373e+06
10.45
3027
11.72
83.84
1397
288.1
670.2
5.952
107
0.07481
15.47
39.05
62.91
7.852
109
10.87
7548
15.07
0.1974
14.3
0.2872
0.3121
13.61
2.944e+04
0.03409
2653
812.1
72.05
39.5
0.0218
10.29
34.4
0.5114
1364
721.4
888.9
0.02135
370.4
771.7
23.94
1.122e+04
111.1
8.641
333.9
0.02183
417.3
56.42
3526
57.29
0.06604
14.65
0.02171
4.124e+04
1.304e+04
32.38
0.4089
6.485
0.02086
0.01976
215.6
24.93
8.519
0.06031
0.05228
0.05292
1.615
24.53
11.27
87.66
239
1.338e+04
0.5587
774.5
70.72
113.6
0.0198
398.4
11.66
75.25
1.659e+04
104.6
9.541
56.01
57.49
21.39
5.176e+04
20.27
29.53
11.1
10.06
4.615
229.5
4.295e+04
0.09698
582.1
0.02118
253.6
836.2
0.0203
1247
39.96
45.39
369.3
0.02137
0.5613
1.105e+05
0.02173
214.2
237.6
93.49
5086
0.4771
4.555
358.8
1472
42.83
75.91
0.04616
100.4
3125
6029
456.1
39
0.02169
151.9
8.58
614.7
82.26
9.104
41.87
0.02163
2.189
115.3
0.02215
10.4
0.02293
2730
10.98
9465
94.09
45.83
613.9
23.24
175.1
408.8
8.516e+04
40.79
78.27
41.31
19.6
13.28
0.02211
50.09
0.02198
11.45
0.022
14.41
0.02147
240.7
65.92
0.02065
0.02161
181.6
0.1373
378.1
0.08122
0.02
4.877
24.56
0.03001
8.691e+05
1365
9.036e+04
180.1
38.89
273.9
186.9
45.55
9.137
2258
25.15
636.5
186.5
35.18
64.69
8.424
0.02155
8.447e+04
31.39
2356
0.02178
1.513e+04
202.4
287
76.44
0.01973
0.01971
15.77
22.92
5.977
9.716
67.83
0.578
0.5169
3.03
3.854
1372
41.68
0.589
19.99
4.688
369.9
306.7
87.1
299.3
14.74
0.02183
76.2
95.55
5568
36.56
0.03496
76.73
1.287
151.5
45.69
525.8
14.3
0.02174
20.71
33.27
2.138e+04
4895
0.499
38.58
493.3
0.2133
0.01972
681.1
154.7
7.834e+04
0.04691
3.13e+04
60.46
0.02152
69.97
587
10.44
0.08195
15.37
341.4
59.29
60.16
48.92
1255
0.0393
254
473.7
474.2
0.05891
0.05876
318.6
3.291
7.659e+04
42.63
563.4
628.5
8.492e+04
1.555
157
0.02422
0.02173
0.02149
14.98
0.02349
2.367e+04
0.02172
3565
0.2088
21.74
146
438.3
0.09712
8027
0.3524
116.8
15.89
4121
0.02168
55.13
295.9
14.35
3804
705.1
21.52
684.5
1152
0.04436
0.0206
3845
0.07414
0.01994
0.2147
3221
0.0206
1441
0.02184
26.63
128.8
13.43
47.92
0.02091
17.8
224.5
90.03
0.05197
13.48
0.1289
0.02173
0.02122
34.02
1.559e+05
26.64
95.76
0.02363
1.045e+04
0.2569
0.06701
0.06224
1.009
79.62
393.8
0.0244
217.8
0.02214
32.83
0.02217
0.1742
136.2
38.13
2.105
702.6
77.91
0.02118
54.39
1056
200.1
1.383e+04
731.2
9.107
0.0334
2.085
1.623e+04
45.51
675.3
9666
0.07767
0.1034
0.02159
63.4
201.1
65.83
0.0218
283.4
0.02175
0.1608
83.82
0.02135
8.701
0.389
21.51
14.72
1.231
280.9
0.0219
386.2
2698
3.465
8.94
175.8
0.04063
156.1
41.07
1560
60.12
39.13
469.6
33.48
54.84
3653
0.06997
0.1085
82.28
0.03323
230.6
18.85
0.07444
83.41
0.02369
0.411
1582
13.76
166
68.88
1.451e+04
44.68
5532
0.7961
0.02066
5607
141.2
0.08644
301.6
0.02738
41.86
0.02223
10.92
3125
13.1
6.221
72.26
151
0.02187
65.53
0.2028
4.441
500.8
0.02468
99.12
1121
0.02159
0.02466
51.02
0.0754
73.26
1.983
1.279
15.92
0.5448
19.37
0.07167
3.147
39.64
0.02117
0.1288
780.5
1.479e+04
0.02085
169.1
4530
11.07
164.1
9.665
160.8
1.439e+04
0.05883
0.1139
65.78
0.02469
340.7
7.805
19.9
1866
73.74
0.02428
75.91
2.225e+05
8.321e+05
66.8
73.05
72.73
0.7668
14.69
12.05
23.12
453.2
177.1
162.7
193.1
7266
19.01
1.619
0.0217
534.1
1.722
26.47
0.121
0.03658
148.8
67.29
8.478
0.02034
473.7
744.7
101.4
102.4
14.06
1.566e+04
291.5
0.02569
93.86
5807
19.42
113
2.572e+04
0.0194
2145
496.2
164.1
0.02769
18.36
11.07
520.1
121.5
17.79
740.7
0.03489
1.642
199.4
0.04745
13.52
0.02165
341.5
2618
151.1
812.4
1.145e+04
20.46
6476
0.1117
447.1
4.277
10.25
0.03332
9.7
31.35
17.05
119.6
0.06797
102.8
5.871e+04
1.564e+04
47.51
75.46
0.4074
0.4759
0.02182
0.02498
51.02
0.2601
0.02166
79.66
132.2
236.3
108.1
13.17
208
42.71
1145
1.671e+04
1.82e+04
0.07927
100.4
4.583e+04
9.81
1773
9.235
15.32
42.59
5.816e+05
11.09
13.93
0.04449
0.05094
798.3
60.06
0.02172
0.02196
12.03
739.8
16.66
111.5
1.034e+04
5.361
0.02398
615.3
10.5
73.27
1555
2.111
7.117
38.07
46.1
0.7121
47.5
0.02188
545.5
9.684
655.4
14.58
216.4
2021
2.172
650.1
53.4
450.8
143.9
1694
0.06521
10.78
36.21
21.39
243.2
81.51
3295
290
0.02163
94.72
9.31
531.8
68.41
0.2767
16.36
0.06924
1680
0.05006
76.34
29.95
45.48
12.24
19.41
2.792
1.607e+04
0.1674
0.02413
627.2
0.0209
16.22
0.02965
0.8513
10.58
0.02151
0.2269
208.6
1196
0.02176
0.0228
11.89
19.35
129
0.1443
49.45
38.59
743.2
368.6
21.89
90.98
101.9
0.08465
108.7
1.703e+04
8.965
2084
324.3
9.608
1.425e+04
0.02172
0.0206
0.7074
3.081
9.238e+04
0.02179
12.5
492
8.873e+04
228.8
481.4
0.01982
0.01959
303.6
47.62
40.81
33.81
0.03064
26.12
1.626
0.02222
610.3
174.1
82.27
31.39
1679
12.67
1.994
0.01976
12.34
202.2
636.8
432.1
41.37
5552
368
33.96
118.7
148.9
46.82
0.06287
68.85
3305
0.02809
0.02697
196.3
100.2
3888
0.8383
574.3
55.5
0.1429
0.02172
4.46
0.02211
21.16
1.148e+04
8.025
0.1077
75.11
0.04258
6896
339.3
0.06664
14.94
12.74
95.57
22.77
72.63
51.39
35.23
24.9
31.89
17.93
11.04
1268
125.1
32.18
94.61
6638
71.41
351.4
385.3
1.455
0.9576
22.9
6506
0.3196
56.61
0.02214
14.17
0.02214
146.7
8.488
6524
107.7
0.07389
840
5.372e+04
813.2
22.9
65.23
551.1
1395
0.272
23.87
30.08
3.438e+04
58.44
31.4
0.1956
0.2122
0.02174
22.58
5061
5.664
935.4
12.88
0.06698
1097
0.0197
50.72
0.3686
20.51
1107
0.1619
1.999
9.147
0.03449
214.6
25.62
1.776e+04
740.2
161.7
0.0214
32.97
130.6
3001
980.2
34.18
8.234
36.56
0.02171
268.5
601.2
2.928
15.95
34.91
1389
488.2
364.6
18.97
0.4785
0.9244
6879
8.952
0.05839
2.31e+04
0.06873
30.36
0.02173
0.02199
22.65
0.02183
541.7
69.47
44.78
20.8
476.8
1342
61.55
548.5
58.72
16.42
1.484e+05
22.34
48.19
2.425
5.788e+04
11.62
4827
5854
0.04437
480.8
459.7
4.433
13.19
3095
188.9
798.4
17.61
23.87
0.02552
8.729
0.02206
0.4976
12.82
275.2
60.51
57.86
9897
12.52
0.02181
130.5
26.85
16.44
47.06
26.1
43.24
440.4
1229
5109
155
201
471.5
45.28
140.8
0.06035
7.239e+04
93.66
83.54
0.8514
0.02158
254.3
153.2
14.74
4.196
5468
411.1
123
63.1
29.82
2097
0.02164
4091
9.288
0.03361
33.2
479
0.02164
88.14
12.68
13.53
5926
8.452
42.53
5.813e+04
25.41
194.7
0.01965
0.0196
186.2
84.73
2.335
194.8
116.3
0.02151
1597
678.9
26.98
0.02174
0.02182
34.53
86.9
188.9
1.963e+05
496.7
0.03043
396.3
1.868e+04
0.07469
449.3
256.8
0.1101
0.8113
819.7
27.15
30.2
0.01964
0.01951
0.01947
0.0203
0.07439
27.38
22.92
513.1
7.787
145.1
20.99
530.2
0.02081
41.87
33.87
1780
441.1
2258
101.3
62.64
260.9
24.91
140.5
0.1777
91.97
1.1e+05
189.6
2051
0.2164
115
0.02172
6.032e+04
42.56
296.2
7.043
0.02979
1.931e+04
0.02179
44.36
298
0.04658
50.31
56.7
14.65
68.71
3668
0.03629
340.8
0.02066
1.611
127.5
151.3
13.94
54.11
0.0215
0.02168
0.1406
344.1
489.5
0.1817
15.43
51.06
3.076
2010
264.7
13.03
9.894
28.36
38.4
0.1352
2.921e+04
0.1808
0.02173
4831
0.0217
0.02168
0.4821
0.1113
3623
13.26
728
21.2
277.5
0.02187
0.07823
190.7
176.7
12.61
0.0584
0.1676
1.71e+04
1806
0.02213
3398
2329
9.484e+04
0.06929
11.31
16.74
0.07029
0.02302
10.71
61.18
1.435e+04
0.0612
417.3
6.369e+05
0.02174
307.3
878.2
112.2
0.02178
511.1
2.441e+04
3.859e+04
1.965e+04
0.3589
119.5
2.037e+04
0.04659
55.44
0.02153
14.82
342
8.431
182.7
1.904e+04
0.3278
69.65
65.76
0.02225
0.02925
336.8
458.7
9.298
3980
45.28
1.227
10.63
25.07
175.7
39.46
0.02174
47.57
34.08
180
213.7
130.8
319.7
72.4
2.508e+04
2.877e+04
3.566e+05
351.7
0.04458
772.9
0.0242
571.2
1081
0.02175
1.921e+05
0.02221
111.6
4770
1230
98.26
49.04
265.6
246.8
0.01964
1.637e+05
259.9
0.05909
10.23
68.58
3.222e+04
6070
5.738e+04
11.24
366
1699
15.6
0.06132
80.13
3390
0.02088
35.69
58.83
103.7
48.34
28.19
11.58
1879
113
134.1
5896
0.09048
1384
0.07019
49.59
130.5
0.02343
0.07114
42.56
273.1
103.1
2.409e+04
0.05693
0.02171
5.272
201.5
1253
23.72
8.236
0.01968
0.0277
714.4
0.01996
174.4
324.8
0.06092
62.65
34.06
7906
2.567e+04
1.51e+04
0.0315
372.4
55.95
54.98
10.78
9.514
6248
12.49
785.7
213.4
3269
165.1
1.523
1.473e+04
25.69
75.41
23.62
0.05261
52.79
0.7791
0.0218
26.27
80.56
37.46
100.9
39.26
4.702e+04
7.37e+04
11.2
5.447e+05
0.2883
0.8857
0.02969
0.04556
30.09
0.02221
288.4
2.155e+04
225.9
1950
34.06
46.17
156.8
43.41
11.13
221.4
16.16
2269
68.67
0.02591
76.37
77.71
0.02204
0.03554
883.9
0.02185
79.72
86.91
209.6
7.971
1273
0.09892
30.86
0.03401
502.6
5304
582.1
57.17
0.02143
343.2
0.02153
0.2482
85.16
32.53
1.432e+04
79.33
408.3
9.654
1648
0.3566
0.2091
16.57
185.1
0.02083
5.194
0.02185
531.3
707.9
71.98
45.63
0.02161
284.1
281.7
54.38
1.441e+04
79.34
1040
0.02261
44.43
3.673
2.143
111.4
25.3
0.07013
0.9192
0.1005
18.92
67.27
0.02068
0.02024
0.02197
0.03371
0.1087
1347
224.1
0.02176
187.7
11.98
129.6
0.02194
189.4
0.05398
913.6
0.09843
1.085e+05
124.5
969.5
0.04436
0.08389
1.528e+04
0.02694
125.2
158.8
228
127.9
41.7
0.02181
218.5
266.6
69.15
50.05
33.08
8.242
21.4
74.52
949.2
0.02149
14.97
45.08
1892
0.08298
0.02209
121.7
585.3
16.54
17.24
15.31
698.5
0.03875
26.93
260.1
11.2
96.53
109.3
0.02579
4.098
1.582e+04
101.6
89.24
1929
0.9669
7.675
0.02166
0.02643
0.1066
0.04735
1.608e+04
63.58
0.02195
0.02225
82.86
7.597e+04
0.02194
17.94
5607
126.4
5.283
58.92
1244
47.23
6.992
436.5
2.923e+04
877.3
0.0218
33.26
48.19
55.26
0.02139
0.2841
97.46
20.66
193.5
1.879e+04
2498
11.97
303.5
3.041e+04
9.994
480.7
17.02
1.005
0.6955
929
1.043e+04
0.02157
104
102.4
0.02193
2039
13.58
1.126
0.06053
53.12
423.6
125.4
41.97
0.02165
0.02175
10.56
91.34
0.01998
30.2
0.0243
1109
11.49
13.64
307.2
816.6
14.06
74.46
0.02139
1.831e+04
4.186
1677
330.1
0.05878
728.9
45.62
89.04
1.437e+04
8.452
1.342e+04
0.02074
0.02123
21.5
0.04264
0.02139
3.511e+04
169.1
279.5
1518
112.4
25.1
0.02851
3.404e+04
0.04003
79.04
0.02022
0.07956
109.7
28.77
30.06
47.78
9.626
416.5
0.02046
28.85
1823
1731
2426
0.1093
31.53
15.44
0.02195
386
136.3
2.878
0.03895
55.55
1.478e+04
0.02192
0.0215
21.25
1162
11.16
1436
0.02206
2368
58.51
106.5
0.02208
0.06016
532.3
201.7
860.3
17.77
11.65
0.02043
458.9
0.03125
368.6
2.396e+04
0.05635
77
10.57
3470
9556
492.9
0.04916
0.02047
34.37
0.1324
0.02163
120.7
93.93
10.39
0.0203
0.06289
0.06258
0.02563
331.6
40.16
0.02172
330.9
82.66
553.6
0.02568
0.02191
0.02162
0.05124
111.5
16.75
373.1
1.519e+04
9080
75.09
2.969e+04
1833
0.02291
1.294e+04
40.1
1305
9.702
0.1044
1.458
3077
304
1385
209.1
0.04993
20.35
270.8
88.54
7.493
0.1627
115.5
0.09766
268.2
0.03698
23.34
16.1
18.29
0.1337
303.4
2.817e+04
2073
0.02061
1.531e+04
24.63
0.01992
59.81
0.02181
762.6
38.24
0.1183
147.7
201.4
0.0223
0.8862
8.451
4213
0.02224
0.1091
5052
5.051
0.02157
1226
23.42
0.03054
0.1036
13.02
147.7
1.94e+04
362
42.82
11.53
350.1
0.3902
0.02169
0.03793
302.5
87.07
44.7
0.02207
4.063e+04
186.9
31.47
89.77
24.69
37.14
0.02016
0.05494
224.9
80.86
0.03643
107.9
458.2
9.368
0.9711
2.26
9.321
0.03523
8.586
31.05
86.35
17.17
0.02205
533.4
0.166
26.14
6.725
3.464
1892
38.51
1.033e+05
15.79
0.283
0.3106
0.02118
6.637
24.21
1429
504.7
88.87
313.5
1457
43.48
0.3032
41.44
346.5
2729
32.13
0.03514
824.1
0.5729
655.8
13.86
10.34
23.94
190.6
0.02179
102.9
0.182
0.02164
8.778
810.6
1.295
7.037e+05
428.4
376.6
0.02165
40.36
76.93
0.05025
23.55
35.79
1149
181.9
1179
0.02188
48.55
0.02064
3.456
112.5
156.6
6.161
365.3
5.25e+05
0.02147
0.02174
45.47
101
705.6
1.29
91.59
442.3
23.44
12.67
0.02177
143.6
1001
0.05605
20.5
0.02156
85.38
0.04649
67.34
294.3
53.92
0.3127
808.5
148.7
0.02475
230.7
48.83
2.895
0.02145
0.02252
315.9
1590
23.7
8.395
42.77
17.49
147.2
23.29
0.01941
0.1322
0.3083
2.869e+04
1001
669.2
0.02134
357.5
117.9
889.9
655.3
7384
2.027
34.34
96.51
63.42
418.3
1576
17.37
0.07562
9.841
0.02941
5.274e+04
0.02222
14.44
331.4
33.42
12.75
298.1
29.76
4657
11.28
161.9
55.33
4.984
125.4
2.777e+04
20.27
1.555e+04
1.072e+04
0.02174
1.721e+04
52.2
814.2
941.7
47.88
33.58
122.5
73.79
16.18
0.0338
15.9
13.27
46.64
22.61
38.95
0.3254
1.775
25.74
1.778e+04
28.59
2985
87.05
361.4
0.02027
269.5
39.21
1432
11.76
6895
125.5
236
0.06886
1270
0.06058
16.95
23.05
0.06592
0.546
17.37
24.79
65.56
143.4
15.79
157.7
25.1
6933
22.2
9.513e+04
0.03371
42.64
97.59
9.41
0.03843
275.9
0.02172
0.0219
0.02173
31.48
128.5
308.6
14.35
0.0686
26.88
0.03637
9.416e+04
1137
1.696e+04
194.1
0.05226
445.9
1495
0.07043
730.5
0.02186
39.93
9.318
301.9
25.53
0.02128
0.02138
52.1
8.882
0.03534
1.818e+04
139.4
0.02095
0.0218
54.93
0.03019
434
3542
0.03298
4.079
275.5
425.8
152.7
1.901e+04
6.447
0.1248
37.9
230
0.09911
129.2
28.43
0.7507
432
59.29
5.517e+05
0.02691
76.65
2838
1230
0.02183
22.99
0.02175
14.48
47.5
39.32
43.4
228.3
24.37
0.1403
716
913
331.4
656.1
454.9
34.55
21.98
65.3
117.4
18.83
293.5
0.02243
1.614e+04
6274
791.9
34.96
9.007
1143
366.1
0.2187
1.171
2.134e+04
72.76
0.05596
0.03188
0.05227
266.9
317
23.83
1610
86.23
0.03732
110
59.28
58.95
308
9.811e+04
385.3
54.55
239.4
25.69
48.48
1268
34.33
20.69
9.194
822.2
22.11
0.1954
31.59
393.3
0.07189
140.8
0.2066
14.71
1.878e+04
374.4
0.02204
308.9
15.65
8772
494.7
0.02135
0.08665
430.8
0.02814
24.12
1024
268
9.092
0.02177
0.1533
12.48
14.2
0.07791
281
0.02077
360.7
19.6
210.7
150.4
40.77
42.09
293.1
293.2
0.1382
79.03
0.02181
2.535e+04
0.0328
0.03157
153.9
0.02177
5.45
10.19
3.372e+05
0.02196
113.2
65.65
316.7
271.7
0.1877
38.44
22.86
259
1277
23.57
0.06478
0.0219
161.9
199.9
22.2
38.14
552.1
1141
0.5306
0.02113
30.99
187.9
3.903e+04
47.92
43.62
0.3958
177
0.0215
14.06
2175
694.3
0.02197
0.1667
489.1
0.01977
72.67
831.2
38.08
0.02195
0.022
8.852
0.02303
0.02013
0.02173
8.487
240.9
739.1
0.4908
125.6
8.085
14.11
0.02225
14.68
62.35
0.04098
0.5845
672.6
11.72
0.02496
861.2
28.61
8.388
1.615e+04
2.014e+04
0.02464
52.74
17.02
187.9
34.19
1825
0.02194
155.6
1.768e+04
2.748
186.9
0.3583
1073
34.23
157.6
12.88
9056
0.04734
5652
28.15
0.02538
0.02802
0.02006
128.4
19.43
1246
106.1
2.88e+04
0.06441
0.01942
113.2
287.3
0.06303
0.02178
511.1
9.731
544.3
28.1
899.7
164
54.31
5.082
202.8
0.01971
9077
77.3
36.08
12.92
0.06225
0.02186
19.71
12.5
296.8
1941
34.85
0.03788
36.51
14.22
0.0532
0.0218
797.1
160.9
2554
88.62
21.33
0.8319
37.51
15.64
5.628
76.87
0.3378
0.1162
0.02192
42.09
7192
20.42
0.3146
2621
0.5218
0.02168
17.41
0.02922
0.02203
8.156
0.01935
0.01931
1.98
0.02011
28.04
2.432e+04
319.9
11.33
0.1188
0.02113
0.02197
48.7
174.2
13.51
1.736e+04
14.81
0.03014
11.16
38.7
1320
6.239
0.02198
2.585
18.36
0.02203
0.02136
43.77
187.7
0.0485
0.02742
43.87
0.0213
1.9
0.02148
9.808e+04
6.72
469.6
9.479
0.02684
1.865
9.149
19.13
424.5
20.37
68.68
15.51
0.02214
1.209e+04
15.09
283.1
0.02191
203.6
139.1
51.74
321.8
0.187
192.7
10.68
0.1206
1460
0.02205
2.156e+05
14.08
9672
0.02197
92.95
0.02173
0.09676
2.943
3267
14.6
115.3
12.79
0.1173
1367
0.1313
812.2
1649
8.345
0.07611
0.05818
325.1
0.02162
2.95
19.17
53.4
13.91
0.02174
5525
0.03436
110.8
292.4
63.6
583.3
4554
19.81
414.7
87.38
1.48
15.09
0.3328
0.02172
0.02181
306.6
10.46
6512
18.47
24.2
0.02179
54.64
0.02179
0.02168
0.0324
121.6
0.09471
14.57
0.03589
30.65
0.1554
43.51
210.3
1306
0.02464
141.4
121.2
82.1
0.1483
19.27
0.02187
80.38
0.4364
47.05
3.149
0.03385
195.8
3.748e+04
157.5
1026
19.81
1.124e+04
874.2
1.82
20.79
718.8
53.52
4.423e+04
226.4
20.85
42.03
70.02
26.59
531.3
358.4
0.03907
26.4
0.09784
358.6
1.033e+04
71.2
672.4
251.3
12.83
168.1
0.03357
192.1
27.04
2.077e+04
10.42
0.02227
17.65
29.42
129.8
0.05926
67.85
137.9
22.07
0.333
139.2
16.32
4364
138.4
57.75
21.88
18.27
484.9
0.02438
241.8
3.239
0.02331
45.76
48.26
199.8
284.3
94.17
0.02202
426.7
5.657
0.07065
1.136
304.8
6.267e+04
59.31
0.02084
0.02514
0.2673
181.6
53.22
0.0215
1.484
207.4
426.3
5794
0.02103
203.2
2534
37.91
4.817e+04
52.86
63.82
182.4
22.58
58.03
0.02307
46.74
2436
46.69
230
1.296
21.59
0.0216
0.07806
211.6
108.9
20.82
649.6
54.78
0.0217
2230
47.17
0.1414
291.1
5493
6817
0.04342
0.1191
0.02436
78.39
1831
300.7
968.9
114.1
324.2
0.02181
43.24
5.064
9.548
2834
0.336
1.739e+04
53.5
1321
0.03212
140.1
1263
0.02168
127.2
71.15
45.27
11.41
0.0219
0.02168
0.03861
25.93
0.0217
12.71
6112
0.0971
16.22
216
0.03695
60.17
10.94
0.2805
1353
93.8
6149
39.77
0.02173
117.8
1704
0.0217
4038
10.56
53.81
31.15
135.8
52.24
181.6
15.77
10.58
0.02194
11.49
0.02178
0.05315
1116
110.3
46.65
37.07
0.6684
100.4
0.02173
0.01964
0.04828
76.25
32.27
72.81
1.741e+04
12.83
1.186
126.9
0.5039
8.673
0.02135
502.4
451.6
16.9
13.46
57.8
105.2
32.04
19.75
0.7556
0.02254
114.7
16.33
105.6
1336
1.603e+04
439.7
0.02149
50.58
20.84
19.91
8.115e+04
0.02164
48.58
20.54
25.64
54.79
20.77
5.008e+04
57.75
9.694
457.7
2802
12.92
70.85
2412
1.417
0.02168
258.1
16.07
31.45
74.33
16.58
0.9658
0.04647
626.8
265.6
867.2
13.69
722.1
169.3
0.02171
114.4
58.66
41.57
11.56
0.01934
266.6
39.08
28.59
2.936
0.02133
203.4
11.18
5.706
44.01
249.2
50.54
31.18
394.3
386.2
0.01992
77.77
36.17
40.96
432
179.5
34.33
19.94
27.55
9.029
124.4
404.6
1.649e+04
628.3
383.7
1.031e+04
33.36
0.07175
2.264e+06
338.2
1503
0.03574
1664
1224
260.2
29.79
0.02196
0.8956
0.02178
15.41
73.54
4.869
0.5496
16.23
611.6
21.1
2.111e+05
13.33
250.5
715.2
1.554e+04
425.1
214.7
17.26
0.08103
63.61
16.39
1.92e+04
61.03
0.2811
0.6757
1553
1.117
0.022
0.02169
31.15
51.24
0.03813
0.02017
0.02182
488.9
154.8
1.015e+04
0.02155
0.03189
59.87
0.01976
0.01991
247.2
0.05585
119.7
419.8
0.05231
1294
9.11
38.5
8.258
25.18
0.04542
59.58
17.86
6.402e+05
30.48
345.3
960.3
1226
10.83
0.03181
10.46
626.1
0.0217
9.379
125.1
564.2
1.301e+04
116.3
29.84
659.8
0.02441
110
2342
217
83.22
59.5
0.07284
32.33
15.11
1778
129.3
171.2
0.05021
831.3
260.2
0.03606
19.64
0.06778
33.81
0.02573
1912
1.662e+04
0.02699
464.8
128.4
0.1322
787.2
42.39
0.02221
5822
57.32
186.3
420.6
0.03249
20.79
5.076e+04
75.4
404
12.92
19.04
2.944
14.54
157.2
0.05911
1.71
45.22
59.92
26.74
14.49
48.07
6.393
64.03
496.4
50.15
5.981
1.126
0.0218
0.08292
634.8
17.92
0.01936
3.029
36.84
3.019
161.3
71.49
14.53
0.08543
551.3
81.73
0.1091
36.02
130.8
0.06563
603.9
0.03786
645
9.558
0.1549
0.06197
10.04
681.7
37.12
0.02091
61.93
216.3
113.1
0.2299
0.02183
11.59
353
541.2
38.11
56.99
11.44
511.7
10.44
23.44
2.24e+04
9.722
1.821
4.541e+04
345.1
13.74
14.47
0.02204
1.221e+05
0.02195
25.94
111.3
97.67
137.1
116.7
1.957e+04
9.809
13.04
22.89
3.087e+04
458.7
12.82
4.306e+04
6551
460.3
125.1
0.1899
0.626
21.18
24.87
0.02187
381.6
2.057e+04
0.04208
67.09
6.6
16.3
309
411.5
4.049e+04
1591
198.9
0.01955
0.01937
0.02178
513.7
2168
0.2969
0.02158
0.1508
2601
6.441
4.475e+04
75.79
0.02197
3.868e+04
0.01937
1.777
10.46
0.03631
14.61
0.3011
1.4
0.05296
318.8
17.82
58.37
111.6
2.329e+04
11.85
113.7
192.3
10.96
0.02213
9073
420.9
634.8
89.35
932.1
230.1
317.9
0.05005
25.42
240.7
25.09
387.1
0.02924
817.8
33.19
748.4
13.37
0.5941
1.763
0.02176
233.4
33.24
116.6
180.2
11.77
694.6
39.26
20.49
12.23
140.4
0.1495
881.5
301
273.9
27.71
0.06196
10.34
0.07939
64.11
14.63
90.99
2.947
281.4
14.72
15.17
384.6
0.183
1992
29.23
0.412
0.08128
3.568e+04
304.5
224.8
29.29
5575
0.02204
6073
511.9
68.78
57.39
61.36
78.67
67.59
15.99
71.53
70.21
199.7
3499
0.0782
0.02186
0.02169
109.5
159
2.018
2.473e+04
111.8
9265
912.3
96.65
1839
1.836e+04
10.72
416.1
744.2
37.64
1.914e+04
0.02166
46.37
610.3
623.6
0.02157
591.4
50.22
204.6
296.8
240
0.02168
16.6
228.8
743
0.02089
164.2
9.947
0.1256
3.08e+05
0.03349
10.66
13.47
233.6
307.4
0.2582
37.5
1.874
155.9
717
110.5
0.01939
14.89
6.577e+05
0.02484
0.02243
1997
861
41.08
406.9
0.05911
31.86
40.34
54.29
40.74
173.6
0.01999
37.22
9.947
0.1078
0.02201
31.08
0.02119
8.241e+04
34.84
1.27
8.276
1.341e+04
0.02169
98.97
0.02
0.02216
351.5
0.2862
1347
8.987
0.03866
35.93
357.6
21.56
21.89
29.49
371.7
114.8
456.2
484.1
408.2
5292
837.1
58.31
363.9
115.7
183.9
0.1962
0.02112
0.02118
3278
20.23
302.4
4.274e+04
0.02177
250.7
0.4366
0.02038
16.66
4.918e+04
8.463
411.1
2801
0.02206
459.6
35.6
16.36
10.68
26.32
2037
97.78
0.02174
4.644e+04
1129
0.05983
0.02312
1158
111.5
558
508.6
130.2
306.6
0.02168
203.4
0.02117
490.1
489.5
4.12e+04
0.01956
0.01939
0.1291
257.5
0.03036
18.19
2.035
3.986
23.73
51.42
261.1
0.04327
0.02642
1.784e+04
2.132e+04
24.23
756.4
0.04643
297.3
0.0222
132.2
1270
439.5
2196
232.7
426.3
348.2
0.2241
27.05
25.5
0.02473
0.02175
0.02173
11.69
199.1
667.5
3.038e+04
280.3
0.02405
371.6
814.3
432.4
3.356e+04
58.99
498.2
225.3
99.38
0.05188
2.447
16.27
0.7137
0.0776
900.4
23.64
41.64
43.17
592.4
0.3558
0.01973
1.739e+04
13.69
12.02
37.35
2.111e+04
20.45
0.02082
119
23.69
182.8
7.985
165.7
332
1.414
63.56
10.88
0.06524
175.6
0.04235
0.0719
7.183
943.5
20.04
999.8
19.88
49.51
33.71
0.02763
67.27
351.6
0.1939
42.95
1.545
1.898e+04
0.02933
0.0234
73.89
76.51
164.5
24.42
23.53
2261
0.06418
0.02183
27.37
1862
0.02421
0.4029
43.88
0.02158
1.852e+04
0.05038
38.71
82.41
46.39
0.5583
298.3
2069
4.71
0.05903
0.02172
18.05
50.99
90.82
15.11
0.02131
0.02019
0.02172
83.32
191.8
238
0.05485
752.1
35.33
433.5
52.04
807.4
0.9661
0.02959
4113
0.02183
867.2
28.74
0.02922
120.4
74.45
265.3
96.57
123.7
14.19
6.722
0.07303
2264
1247
2205
0.1469
0.4331
0.02167
1.872e+04
0.02159
159.5
1814
0.02203
12
148.1
284.1
0.08317
14.35
1.312e+04
23.98
0.02166
17.52
460.3
82.96
157.3
13.96
29.04
1.518e+04
12.32
0.0207
0.0227
1.165e+04
24.2
388.2
8.634
54.4
0.02117
0.02193
2.017
6.816e+04
1808
478.4
360.2
0.8524
305.3
1464
139.1
187.8
0.02189
658.4
8.384
251.2
18.32
16.29
0.0216
603.7
13.99
1.545e+04
1.838e+04
11.12
15.12
1.556
1007
0.02789
8.933
1.706e+04
433.8
136.7
1858
6656
127.1
190.2
0.1012
952.8
181.2
1343
40.76
0.02593
1044
6629
0.02172
322.6
3454
332.1
939.2
35.15
13.95
177.3
44.14
0.03409
66.47
0.02211
113.1
0.08579
1.41e+04
0.1042
4009
47.82
211.8
17.46
12.58
440
11.75
75.9
778.2
73.21
32.3
9.541
45.9
157.6
553.4
66.98
0.02414
26.71
22.08
76.07
119.3
74.51
277.9
38.71
0.0248
38.13
2.214e+04
16.38
10.74
85.97
0.03915
32.79
0.02155
46.15
5.687e+05
8.658e+04
400
24.59
41.97
0.02098
0.05441
19.81
23.54
24.74
6.48
0.02178
30.27
52.1
47.39
81.07
0.02164
858
1318
5.849e+04
8.902
25.85
60.06
579.7
0.05001
145.2
9.941e+04
0.8438
15.98
0.2389
308.6
5.204e+04
11.59
14.36
13.59
30.65
0.0242
152.8
0.01988
1.647e+04
97.68
11.19
1282
7.35
119.9
37.87
3.121
0.04417
0.02199
0.02148
53.43
17.61
25.66
9.144
29.02
58
1.961e+04
0.7059
294.5
0.1983
0.02176
975.4
0.02181
13.2
637.5