/*--------------------------------*- C++ -*----------------------------------*\
  =========                 |
  \\      /  F ield         | OpenFOAM: The Open Source CFD Toolbox
   \\    /   O peration     | Website:  https://openfoam.org
    \\  /    A nd           | Version:  8
     \\/     M anipulation  |
\*---------------------------------------------------------------------------*/
FoamFile
{
    version     2.0;
    format      ascii;
    class       volScalarField;
    location    "45";
    object      p;
}
// * * * * * * * * * * * * * * * * * * * * * * * * * * * * * * * * * * * * * //

dimensions      [0 2 -2 0 0 0 0];

internalField   nonuniform List<scalar> 
127143
(
-0.213
-0.2164
-0.2115
-0.2114
-0.3756
-0.2114
-0.4373
-0.4127
-0.4103
-0.2345
-0.2662
-0.4401
-0.2054
-0.2115
0.488
-0.2107
-0.2123
-0.1166
-0.2258
-0.2141
-0.1918
-0.203
-0.01324
-0.1393
-0.2029
-0.07085
-0.2297
-0.229
0.1728
-0.03651
-0.202
-0.06924
-0.3219
-0.1937
0.1001
-0.3219
-0.2198
-0.1898
-0.1391
-0.2114
-0.2262
-0.09944
-0.07966
-0.205
-0.1115
-0.1939
0.1691
-0.2203
-0.05614
-0.1607
-0.2111
0.01687
-0.2046
-0.1502
-0.0005533
0.002154
-0.0005148
-0.1261
-0.007212
-0.149
0.3443
-0.2144
-0.1723
-0.0008551
-0.2188
0.06849
-0.06192
-0.1696
-0.1687
-0.000177
-0.1604
-0.2296
-0.2208
-0.00752
-0.001436
-0.2291
-0.0009902
-0.2139
-0.005885
0.001285
0.1604
-0.2142
-0.1938
-0.2079
-0.2187
-0.2151
-0.1278
-0.2418
0.06975
-0.3808
-0.002513
-0.175
-0.3463
-0.1916
-0.1986
-0.06166
-0.09729
-0.1742
-0.2053
-0.05904
0.001215
-0.05804
-0.3898
-0.1023
-0.2151
-0.2053
-0.07145
-6.558e-06
0.1878
0.001364
0.4875
-0.2418
-0.1943
0.3779
0.007015
-0.05884
0.01799
-0.001336
-0.001097
-0.2115
0.001381
-0.1926
0.09785
-0.1033
0.162
-0.08671
-0.2061
-0.02778
-0.2183
0.02872
-0.2024
-0.194
-0.1427
-0.2139
-0.2125
-0.2022
-0.08795
-0.192
0.2532
-0.1001
0.009031
0.01832
-0.2048
-0.1938
-0.2047
-0.2476
0.4274
-0.0008256
-0.1942
-0.4267
-0.1135
-0.04401
-0.1961
0.1176
0.4047
-0.2177
-0.1271
0.08031
-0.2203
-0.1589
-0.1945
0.1866
-0.002621
-0.2025
0.005957
-0.2186
-0.2194
0.2095
-0.2865
0.05942
-0.2018
-0.1937
-0.05234
0.03125
0.0005572
-0.2085
-0.2481
-0.2184
-0.1245
-0.004563
0.03181
-0.01415
-0.2113
-0.2075
0.03133
-0.2138
-0.0124
0.3688
-0.1423
-0.02441
-0.2036
-0.2063
-0.08508
0.1446
-0.212
-0.1976
9.591e-05
-1.205e-05
-0.2195
0.01217
-0.006359
0.06379
0.01459
-0.2198
-0.2111
-0.1921
-0.03075
-0.05656
-0.03224
0.006953
-0.1736
-0.2149
0.00467
-0.2897
-0.2013
-0.2159
-0.202
-0.04389
-0.1924
-0.03215
-0.2371
0.001711
-0.04049
-0.2043
-0.1672
-0.2016
0.007131
-0.192
-0.2069
-0.207
-0.1922
-0.01536
-0.2197
-0.2108
-0.1923
-0.08843
-0.2025
-0.2099
-0.006569
-0.2027
-0.2062
-0.2219
-0.2113
0.077
-0.1942
-0.2115
-0.04401
-0.2285
-0.2108
-6.53e-05
-0.1871
-0.1138
-0.01514
-0.193
-0.007647
0.1743
-0.02729
-0.3237
0.006085
0.1228
-0.1939
-0.01873
-0.1724
0.01854
-0.2128
-0.221
-0.21
0.4137
0.2976
-0.1893
-0.04982
0.001942
-0.2206
-0.203
-0.1774
-0.2035
-0.1943
-0.07276
0.002988
0.04508
-9.518e-05
-0.06047
-0.1022
0.006811
0.00134
-0.2137
-0.1957
0.006984
-0.08007
-0.003692
-0.2054
-0.0127
-0.08698
-0.03976
0.001166
0.1929
-0.1561
-0.2113
-0.211
-0.1883
-0.1088
0.03107
0.135
-0.05819
-0.1734
0.3072
-0.05661
0.004799
-0.2006
-0.1182
-0.07667
-0.2089
-0.01035
-0.000184
0.009195
-0.318
-0.1994
-0.1197
-0.1599
0.001828
-0.01193
-0.1874
-0.0529
-0.01563
-0.3197
-0.2016
0.07347
-0.2111
-0.2085
-0.2401
-0.2134
0.001027
0.09657
7.61e-05
-6.771e-06
0.1182
0.1793
-0.05171
-0.2143
-0.1947
-0.09759
-0.04421
-0.2003
-0.2033
0.4666
-0.07922
-0.1936
-0.1983
-0.103
-0.2212
-0.1062
-0.2257
-0.2055
-0.2033
0.07684
-0.1929
-0.1931
-0.2348
-0.001685
-0.2085
-0.2205
-0.1713
-0.2194
-0.1837
-0.1541
-4.348e-05
0.01189
-0.004915
-0.2015
7.245e-06
0.4008
-0.05424
-0.1142
-0.1751
-0.02431
-0.1317
-0.1326
-0.2082
-0.2089
-0.0008569
-0.2031
-0.08627
-0.09536
0.03155
0.01727
-0.209
0.05129
-0.2106
-0.1978
-0.186
-0.008218
0.1645
-0.203
-0.00369
-0.1418
-0.1809
0.1608
-0.2009
0.07751
-0.01757
-0.1857
0.001617
-0.1935
-0.2115
0.04707
-0.1
-0.2149
-0.1347
0.002613
-0.1246
0.1762
-0.07745
0.008504
-0.2197
0.09892
-0.1986
-0.1966
-0.04842
-0.1972
0.1222
-0.2195
-0.2193
-0.1994
1.3e-05
-0.2072
0.07481
-0.07174
0.0397
-0.2218
-0.01565
0.0007642
-0.2006
-0.2045
-0.1966
-0.2307
-0.0001453
-0.07383
-0.1951
0.0161
0.001458
0.003845
-0.1613
-0.08701
0.178
0.04152
-0.1738
0.01094
0.3452
-0.004133
-0.217
-0.1941
-0.103
-0.09974
-0.2037
0.1289
-0.2191
-0.1032
-0.2233
-0.22
-0.1924
-0.1426
-0.2173
-0.1919
0.366
-0.2177
0.0006729
0.002476
-0.1987
-0.193
-0.0003221
-0.2045
-0.1706
-0.1037
-0.1989
-0.03294
0.000148
0.4397
-0.169
-0.2143
-0.1981
0.2389
0.3559
-0.2045
-0.008292
0.1777
-0.229
-0.1972
-0.006316
-0.1581
0.0271
-0.3005
-0.1294
-0.2068
-0.2459
-0.2114
-0.2036
0.4284
-0.1101
-0.1257
0.005863
0.2363
0.001729
-0.2095
-0.1975
-0.2132
-0.2177
-0.2052
0.002862
-0.1928
-0.2288
0.008989
-0.222
0.0975
-0.2119
-0.07718
-0.1941
-0.09913
-0.2044
-0.2021
0.000436
-0.2149
-0.2031
0.1293
-0.1326
-0.2019
-0.007877
-0.1135
0.01056
-0.1892
0.001519
-0.1607
-0.4034
-0.206
1.207e-06
-0.1989
-0.07455
-0.2035
0.1962
-0.3265
-0.1915
0.02799
-0.2182
0.1191
-0.0003768
0.03069
-0.1904
-0.1539
-0.1845
-0.1929
-0.2157
-0.1974
-0.211
0.1146
-0.2164
-0.2006
-0.01367
-0.2125
-0.1971
-0.0819
-0.1173
-0.214
0.002379
0.002704
0.1187
-0.1936
-0.1193
0.0102
3.067e-05
0.1138
0.1514
-0.2159
0.1781
-0.2201
-0.2093
-0.01557
-0.0007775
-0.001133
-0.2095
-0.2012
-0.01778
0.0002694
-0.2285
-0.1267
-0.1939
-0.003166
-0.09336
0.01022
-0.2149
-0.2141
-0.1926
1.813e-07
-0.2168
-0.194
0.186
0.0001449
-0.07131
-0.2016
0.003784
-0.09974
0.009657
-0.1783
-0.2059
0.006721
-0.1928
-0.09105
-0.2101
-0.2044
-0.2043
-0.1057
-0.09531
0.4632
-0.1408
-0.3374
-0.2068
-0.2054
-0.2138
-0.147
0.0003048
-0.03776
0.007782
0.4627
-0.02745
-0.2041
0.0007985
0.007146
-0.1295
0.1247
-0.1926
0.0002553
-0.00112
-0.2071
-0.254
-0.1938
-0.149
-0.2206
0.1782
-0.1946
0.1758
-0.2035
-0.201
-0.2213
0.000248
-0.224
-0.2031
-0.05511
-0.1864
-0.001255
1.248e-05
-0.2028
0.2516
-0.2
-0.2019
-0.02644
-1.622e-05
-0.2077
-0.218
0.06121
-0.2117
-0.04764
0.003238
-0.2037
-0.006025
-0.203
0.1131
-0.2051
-0.2019
-0.22
-0.219
-0.1958
-0.2044
-0.09179
-0.2046
0.0253
-0.2157
-0.2074
-0.1938
-0.001221
-0.07305
0.08653
0.326
-6.194e-06
-0.001208
-0.2131
-0.1096
-0.05047
-0.2046
0.2654
-0.1987
-0.1697
-0.1677
0.2503
0.001094
-0.005942
0.0006012
-0.1969
0.06812
-0.2014
0.3228
0.1314
-0.2221
0.1305
-0.171
-0.2253
1.757e-05
-0.1982
-0.03501
-0.01805
-0.2133
-0.07264
-0.2109
-0.2088
-9.509e-06
-0.1174
-0.1485
-0.2129
-0.2251
-0.1907
-0.2034
-0.4288
-0.1968
0.2363
-0.2257
-0.008627
-0.1184
-0.1177
-0.2058
-0.03206
-0.2108
0.08814
0.05963
-0.02509
0.1562
-0.1189
-0.003303
-0.2095
-0.2277
-0.216
1.165e-05
-0.2019
-0.1992
-0.09817
-2.292e-05
-0.2045
-0.2082
-0.2012
-0.2136
-3.806e-05
-0.2144
-0.2035
-0.1939
-0.1947
0.01342
-0.2008
0.4943
-0.01323
-0.05006
-0.02065
-0.2045
-0.204
0.03121
-0.07242
-0.09218
-0.2101
1.935e-05
-0.2145
-0.2214
-0.1899
-0.07505
-0.1533
-0.222
-0.2159
1.546e-05
-0.2121
-0.2036
-0.1973
-0.2105
-0.1964
-0.2063
-0.1975
-0.2107
-0.01078
0.00281
-0.204
-0.1986
-0.2044
-0.2114
-0.2198
-0.2198
-0.211
-0.1597
-0.001103
-0.2314
-0.09618
5.04e-05
-0.2078
-0.299
-0.07703
0.08848
0.0002038
-0.1945
-0.2076
-0.006084
0.0002003
-0.1838
-0.2147
-0.2207
-0.2194
-0.2154
-0.2151
-0.08958
0.2183
-0.001306
-0.2077
-0.2198
-0.1956
-0.1734
0.2091
0.0001767
-0.007715
0.01041
-0.2302
-0.00135
-0.1666
0.2843
-0.09646
-0.08164
-0.0003186
-0.2129
-0.1021
0.002201
-0.1029
-0.0007924
0.2209
0.4982
-0.2051
-0.2044
-0.2135
-0.002057
-0.1931
0.1169
-0.1615
-0.2075
-0.09153
-0.2804
-0.1524
-0.03708
0.1502
-0.07341
0.0035
-0.1848
0.05547
-0.2668
-0.2074
-0.07414
0.0001937
-0.1076
-0.2094
-0.01395
-0.2219
-0.2395
0.4755
-0.2559
-0.2497
-0.1926
-0.2125
-0.2257
-0.1902
0.006274
-0.08327
2.947e-06
4.476e-06
-0.2048
-0.02813
-0.2055
-0.2094
0.3898
-0.1164
-0.04642
-0.3377
-0.02034
-0.007776
-0.2268
-0.2182
-0.0445
-0.194
-0.219
-0.2167
-0.03478
0.4826
-0.1953
-0.2188
0.00564
-0.2076
-0.01827
-0.001744
-0.1929
-0.1982
-0.2102
-0.0003158
-0.0008717
-0.2154
-0.2157
0.08925
-0.2191
-0.2011
0.1689
-0.02729
-0.2017
-0.2214
1.703e-06
0.2626
-0.1246
1.043e-05
0.1549
-0.205
-0.1922
-0.2354
-0.1793
-0.06549
-0.2019
-0.167
-0.1272
-0.000105
0.005033
-0.04277
0.2043
-0.2166
-0.1938
0.2927
0.1373
-0.2064
-0.1093
0.1369
-0.1072
-0.2242
-0.003256
-0.2193
-0.2102
-0.1975
-0.1959
-0.2018
0.005819
0.01507
-0.2137
0.02158
-0.2152
-0.09392
-0.2165
-0.2201
-0.1973
-0.2277
-0.2194
-0.08661
-0.2024
-0.187
-0.2002
-0.09741
-0.2212
0.1424
-0.2201
-0.21
-0.2034
-0.202
-0.003225
-0.002475
-0.2137
-0.2177
-0.05503
0.0002005
0.1971
-0.1941
-0.1377
-0.2195
-0.2037
-0.2059
-0.1414
0.002677
-0.03601
-0.1563
0.1065
-0.1789
-0.206
0.1897
-0.1847
-0.2034
-0.1433
-0.1586
-0.2229
0.1883
-0.1115
-0.2198
0.1507
-0.003665
-0.2105
-0.202
-0.221
-0.2044
0.4886
0.003633
-0.1926
-0.04377
-7.87e-05
-0.001225
-0.2081
-0.1923
-0.2041
-0.2096
-0.08165
0.1052
-0.2154
-0.04269
-0.07833
-0.004735
-0.2139
-0.2196
-0.2149
-0.02762
-0.2027
-0.2176
-0.0001779
-0.09309
-0.2087
0.00273
-0.2044
-7.599e-05
0.004392
-0.08673
-0.02107
-0.2177
0.002538
-0.1021
-0.0003291
-0.3121
-0.02834
-0.2318
-0.1043
-0.04388
-0.08119
-0.2045
-0.1122
0.0005275
-0.02231
-0.1974
-0.05484
-0.2199
-0.2122
-0.1987
-0.213
-0.2068
-0.2043
0.01202
-0.2301
-0.1221
-0.09628
0.1254
-0.2334
-0.0007232
-0.1998
-0.2061
-0.06081
-0.0001849
0.3295
-0.1965
-0.1366
0.01715
-0.2039
-0.08912
-0.1965
-0.195
-0.1363
-0.2049
0.01368
-0.2077
-0.0001666
-0.1689
-0.2015
-0.0009841
-0.197
-0.2157
-9.694e-05
-0.01871
-0.203
-0.03771
0.1134
-0.1936
-0.2152
-0.05106
-2.597e-05
-0.1932
-0.1996
-0.007392
0.07662
-0.02622
-0.1948
-0.1932
-0.05587
-0.04494
-0.2026
-0.2024
-0.03317
-0.07274
-0.2072
-0.1911
0.0002396
-0.1279
-0.0006157
-0.2039
0.239
-0.2026
0.01662
-0.206
-0.2045
0.003241
-0.2017
-0.2069
-0.1988
-0.1478
-0.3221
-0.1982
-0.2261
-0.1705
-0.08803
0.1045
-0.2009
-0.2172
-0.1922
-0.03238
-0.08125
0.3055
-0.2133
-0.2184
-0.06378
-0.2135
-0.2077
-0.09686
-0.1247
-0.1889
-0.2198
-0.1016
-0.03038
-0.07427
-0.0676
-4.572e-06
-0.002299
-0.2007
-0.2044
-0.2178
0.0007511
-0.1966
-0.218
0.005685
-0.261
-0.0888
-0.1978
-0.2115
0.03725
-0.2189
-0.2051
-0.2235
-0.2195
-0.2101
-0.09852
-0.2159
-0.08131
-0.1515
0.166
-0.2042
-0.08877
-0.2025
-0.19
-0.2026
-0.00453
-0.1776
-0.2208
-0.2038
-0.2197
-0.06267
-0.2161
-0.08758
-0.1684
-0.06666
-0.2198
0.004158
-0.2322
-0.1996
-0.2198
-0.2133
-0.0004599
-0.2136
-0.2046
-0.1728
-0.2199
-0.01837
-0.1553
0.001454
-0.0466
-0.202
-0.1937
-0.07402
-0.2201
-0.2196
-0.2168
-0.01393
-0.214
-0.2181
-0.265
-0.1999
0.001761
-0.1916
0.000284
-0.2305
-0.03375
-0.2198
-0.0372
0.004381
0.0001272
1.761e-05
-0.2029
-0.218
-0.2268
-0.1319
-0.0003471
-0.0003424
-0.124
-0.1967
-0.1981
-0.2265
-0.09968
-0.1091
0.02293
-0.1003
-0.2143
-0.211
4.069e-05
-0.1995
-0.2056
-0.001514
-0.08224
-0.1929
-0.2025
-0.2105
-0.1701
-0.1969
0.2256
-0.2058
-0.1925
-0.2212
-0.2002
-0.1401
-0.07374
0.144
-0.1462
-0.2041
0.001131
-0.1481
-0.3975
9.112e-05
-0.1493
-0.05925
-0.2183
-0.06636
-0.002091
0.05755
-0.1989
0.003911
-0.1834
-0.2058
-0.1351
0.4299
-0.03424
-0.1112
-0.2017
0.008504
-0.2113
-0.2042
0.1712
-0.007102
-0.2118
-0.2486
-0.2364
-0.204
-0.002567
-0.228
-0.2173
-0.1724
-0.282
-0.2192
-0.2073
-0.002146
-0.07519
-0.2152
0.001397
-0.2225
-8.52e-05
-0.4302
-0.2194
-0.2089
-0.2193
-0.202
-0.2538
-0.1936
-0.1588
0.05049
-0.2534
-0.1963
-0.206
-0.2017
-0.1936
-0.2206
0.0001963
-0.2063
0.005703
-0.2049
0.003785
-0.2163
-0.002187
-0.2323
-0.2179
-0.0001264
0.003709
-0.2095
-0.1576
-0.2001
-0.0187
-2.664e-05
0.1669
-0.1933
0.08518
-0.2051
-0.2053
-0.2114
-0.0878
-0.1171
-0.1033
-0.05554
-0.2143
-0.1784
-0.1999
-0.2123
-0.2189
-0.2121
-0.2038
-0.2147
-0.228
0.002362
-0.2521
-0.1937
0.1147
0.005026
-0.08722
0.1053
-0.08934
-0.2103
4.507e-05
4.953e-05
-0.1754
-0.1991
0.0122
-0.212
-0.09553
-0.02305
0.2833
4.841e-05
-0.08559
0.05654
-0.2122
-0.05243
-0.1942
-0.1447
-0.2149
-0.1953
-0.0456
-0.09139
-0.2099
-0.01405
-0.2068
-0.2029
-0.0709
-0.1997
-0.03883
-0.006022
0.004489
-0.1056
-0.2039
-0.2184
-0.1655
-0.001951
-0.2189
0.07394
-0.08947
0.3782
-0.0558
-0.1983
-0.2068
-0.1612
4.694e-05
-0.2349
-0.1928
-0.2123
-0.07846
-0.2183
-0.2145
-0.003493
-0.2219
-0.2105
-0.2012
-0.0481
-0.1921
-0.2026
-0.0815
-0.2203
-0.2197
0.2635
-0.01226
0.2875
-0.1952
-0.1499
-6.513e-05
7.341e-05
-0.1206
-0.2002
-0.3567
-0.2709
-0.137
-0.185
-0.2509
-0.001441
-0.2193
-0.01588
-0.004593
-0.002779
-0.2203
-0.000337
0.0784
-0.002391
-0.3571
0.01503
0.2251
-0.2246
-0.18
-0.0002715
0.4815
-0.1603
0.246
-0.2005
-0.1939
0.00147
-0.1998
-0.2145
-0.2011
-0.2079
-0.2025
-0.2109
-0.3134
0.3137
-0.05237
-0.0002769
-0.2144
-0.0003099
1.962e-05
-0.01101
-0.2018
-0.0002904
-0.1973
0.002039
-0.2037
-0.21
-0.1933
0.1924
0.0005302
-0.2176
-0.1932
-0.2143
-0.06828
-0.08771
0.03563
0.0001042
-0.000777
-0.2055
0.4801
0.0267
-0.08546
-0.0312
-0.2198
-0.05535
0.03201
-8.535e-05
0.06564
-0.2095
-0.1602
-0.03477
0.1351
0.02639
-0.2042
0.002942
0.01322
0.1001
-0.2147
0.3305
-0.01906
-0.1936
-0.001255
-0.1972
-0.1391
-0.2169
-0.08714
-0.08845
-0.2078
-0.0355
0.1161
-0.05782
-0.2021
-0.2899
-0.2109
0.0001796
-0.1466
-0.005068
-0.223
-0.03855
-0.219
0.004796
-0.2103
-0.002052
-0.09956
-0.2123
-0.001618
-0.211
-0.1523
0.1677
-0.1917
-0.002571
-0.1272
-0.0004912
0.01508
0.2178
-0.05208
-0.2272
-0.06731
-0.009588
-0.208
-0.2065
0.3376
0.1662
-0.2101
-0.1043
-0.2021
-0.2176
0.4211
-0.1084
-0.1426
0.1401
-0.01177
-0.08998
-0.1957
0.2461
-0.1054
0.04297
-0.0007767
-0.2019
-0.2203
-0.1968
-0.2185
-0.05537
-0.2195
-0.1097
-0.0836
-0.0002983
-0.1088
-0.05928
-0.08148
-0.1086
-0.0107
-0.2052
0.002314
-0.1959
-0.07603
-0.1957
0.2279
-0.04748
-0.05757
0.003712
-0.09404
0.2477
0.1666
-0.2378
0.0173
-0.1419
-0.09676
-0.003597
0.03597
-0.2047
0.0002043
-0.2175
0.001892
-0.003972
0.231
-0.07235
-0.2127
0.0002328
-0.1729
-0.2041
-0.0001744
0.07848
-0.2671
-0.1956
9.459e-06
-0.2193
-0.1903
-0.1981
-0.2318
-0.2191
-0.1264
-0.1956
0.0001402
-0.0005148
-0.2035
-0.03234
-0.2047
0.2458
-0.2138
-0.1895
-0.2025
0.0235
-0.2213
-0.2135
-0.2196
-0.2127
-0.203
-0.1975
-0.1334
-0.22
-0.1224
-0.2109
-0.1957
-0.2033
-0.2052
0.1729
-0.2145
-0.2022
-0.09583
0.0094
-0.2956
-0.1215
-0.2005
-0.1045
-0.0582
-0.04578
-0.2131
-0.2235
-8.932e-05
0.0281
-0.08628
-0.2007
-0.2095
-0.1999
-0.05649
-0.03346
0.0261
-0.1941
-0.2015
-0.1933
-0.07635
-0.1141
1.465e-05
-0.2598
0.4812
-0.1028
4.824e-06
-0.2199
-0.2211
-0.1391
-0.2045
-0.2184
-0.1318
-0.0001619
0.2558
-0.06693
-0.0344
-0.2176
-0.00969
-0.1278
-0.386
-0.1498
-0.2092
-0.3845
-0.2189
-0.09312
0.0003674
0.2249
0.09106
-0.2221
-0.06149
-0.2223
-0.1267
-0.2165
-0.1398
-4.207e-05
-0.03532
-0.1667
-0.3517
-0.2199
-0.1939
0.01436
0.1243
0.01408
0.04861
-0.2196
-0.05287
0.0004746
-0.1109
-0.136
-0.1133
-0.2101
-0.03804
0.01815
-0.2006
0.3086
-0.2067
-0.202
-0.07117
-0.06384
-0.1696
-0.2113
-0.2022
-0.2298
-0.09305
-0.1911
-0.2129
-0.1818
-0.131
-2.693e-05
-0.08536
-0.2101
-0.2191
0.0006533
0.003857
-0.2033
-0.07845
-0.2154
-0.06216
-0.1874
0.4481
-0.01008
-0.1365
-0.2215
-0.2154
-0.1
-0.1662
0.01926
-0.2026
-0.1939
-0.07664
-0.2043
0.0009435
-0.2104
-0.2244
-0.08993
-0.2096
-0.08102
-0.1944
-0.02713
-0.1335
-0.1988
-0.1955
-0.138
-0.202
-0.01142
-0.2153
-0.2145
-0.209
-0.1992
-0.2135
0.4635
-0.2166
-0.008446
-0.2078
-0.2266
-0.08128
-0.05637
0.0004395
-0.1905
-0.1349
-0.207
1.696e-05
-0.2181
-0.2154
-0.2108
-0.2182
-0.1968
-0.1741
-0.2011
-0.08447
0.01474
-0.2202
-0.0004635
-0.2189
0.08058
-0.08428
-0.2009
0.00139
-0.08126
-0.1779
-0.2017
-0.001037
-0.02489
-0.2186
-0.1237
-0.2301
0.007314
-0.199
-0.2099
0.0005123
-0.1532
-0.2045
-0.2168
-0.2004
-0.09658
-0.1192
-0.2035
-0.2111
-0.4016
-0.164
-0.2057
-0.05634
0.009586
-0.0002886
0.1139
-0.1744
-0.2418
0.005561
-0.1932
-0.2175
-0.3974
-0.2059
-0.04797
-4.59e-06
-2.693e-06
-0.1212
-0.2023
-0.2059
0.4036
0.09844
-0.1908
-0.09619
0.002775
-0.1307
-0.02069
-0.08071
-0.2068
-0.1493
-0.1339
0.03896
-1.095e-05
-0.09686
0.03545
-0.04742
0.04585
-0.1927
0.3417
-0.2029
-0.2046
-0.1647
-0.2014
-0.1926
-0.04357
-0.2279
-0.2195
1.465e-05
5.748e-06
-0.2143
-0.216
-0.1816
0.1808
0.1811
-0.2048
0.000389
-0.000194
0.1886
-0.001017
-0.1936
0.006127
-0.235
-0.04804
-0.001353
-0.01827
0.3182
-0.3118
4.233e-05
-0.0984
-0.07267
-0.08688
-0.2127
0.1121
-0.1931
-0.2042
-0.1989
-0.2166
-0.1079
-0.2118
0.1244
-0.03468
-0.1926
-0.203
-0.3772
-0.2092
-0.2057
-0.2188
0.3546
0.1802
-0.04275
-0.07553
-0.0804
-0.2143
-0.01782
-0.2187
0.002345
-0.08998
-0.2197
-0.07606
-0.2018
0.04227
-0.1991
0.1526
-0.1728
-0.1975
-0.09037
-0.1692
-0.2331
-0.0004789
-0.2123
-0.1841
-0.2188
-0.2025
-0.2119
-0.1385
-0.03516
0.006687
-0.1985
0.1494
-0.07767
-0.206
-0.2182
-0.1361
-0.2247
1.465e-06
-0.203
-0.07566
-0.2188
0.2119
-0.1173
-0.01011
-0.2249
0.008905
0.1365
-0.1083
-0.1964
-0.2165
-0.2084
0.001535
-0.2199
-0.2007
-0.213
-0.3063
-0.134
-0.2211
-0.2057
0.01071
-0.03699
0.2016
0.1835
0.2294
-0.2005
-0.2076
-0.1346
0.109
-0.2576
-0.1673
0.4345
-0.202
-0.2314
-0.1308
-0.2181
9.444e-05
-0.1786
0.0106
0.002654
-0.2464
-0.01385
-0.2184
0.01761
-0.1783
-0.1972
-0.1074
-0.216
-0.2089
0.38
-0.2014
-0.2145
-0.2071
-0.1927
-0.2037
-0.0009784
-0.211
-0.1966
-0.2197
-0.2131
2.937e-05
-0.2012
-0.1385
-0.08091
-0.1951
-0.2017
-0.3405
-0.2115
-0.1995
-0.1927
0.03677
-0.2295
0.00368
-0.01321
-0.1967
-0.2019
-0.2077
-0.2111
-0.1935
-0.205
-0.01047
-0.203
-0.1989
-0.1939
-0.1111
-0.1924
0.4907
-0.07928
0.1294
-0.09287
-0.2184
-0.1497
-0.2019
-0.2042
-0.2198
0.1443
-0.2082
-0.2057
-0.09901
0.1748
0.001297
-0.2273
-0.2008
-0.2202
-0.07677
-0.09246
-0.1963
-0.262
-0.1849
-0.2026
-0.4109
0.001437
-0.2096
-0.2087
-0.06563
0.02648
0.03768
-0.00896
-0.195
-0.1992
0.02028
-0.3574
0.05753
-0.2041
-0.2351
-0.2098
-0.1155
-2.318e-05
1.286e-05
-0.1505
-0.2033
0.04549
-0.2318
-0.1588
0.002004
-0.2077
-0.03818
-0.2044
2.824e-06
-0.01004
-0.2045
-0.1952
-0.1543
-0.3371
0.00646
-0.0007052
-0.151
-0.2166
-0.02515
-0.05761
-0.1787
1.544e-05
-0.06561
-0.2112
-0.1955
-0.2099
-6.712e-06
-3.339e-06
3.407e-07
-8.253e-06
-0.07656
-0.213
-0.0433
0.1517
-0.08919
-0.2096
-0.1927
-0.2249
8.197e-06
-0.1929
-0.2199
-0.2036
-0.2111
-0.202
-0.2072
-0.1059
-0.0938
-0.2034
-0.1648
-0.05799
-0.1035
0.3297
-0.005993
-0.1208
0.339
0.2214
-0.0003157
-0.2117
-0.2003
-0.02335
-0.1311
0.05158
0.1528
-0.001239
-0.2195
-0.2083
-0.0002332
-0.2048
-0.2167
-0.1914
-0.2068
-0.2118
-0.05387
-0.2095
0.0002528
0.1936
-0.2061
-0.2186
-0.2197
0.1565
0.001909
-0.00931
-0.1538
-0.2042
-0.2011
-0.05614
-0.1925
-0.2153
-0.07118
0.4162
-0.09351
-0.1942
-0.2223
-0.2137
-0.2115
-0.09406
-0.1865
0.00234
0.007822
0.1256
-0.002588
0.001499
-0.161
0.0006249
0.384
-0.2087
-0.1649
-0.2165
-0.05387
0.004526
-0.09671
-0.2046
-0.0733
-0.2184
-4.31e-06
-0.0115
-0.4004
-0.217
0.003589
-0.2273
-0.2123
-0.201
0.0001726
-0.1968
-0.1907
-0.04493
-0.01664
-0.1989
-0.2665
-0.4411
0.157
-0.1063
-0.2039
0.001139
-0.0609
-0.2139
-0.1683
-0.001383
-0.1024
-0.409
-0.1842
-0.02046
-0.1057
-0.2003
-0.1925
-0.05404
-0.2129
-0.002454
-0.1935
-0.2307
-0.2172
-0.1927
-0.02085
-0.16
-0.2099
0.14
0.003521
0.0005589
-0.1773
-0.1945
-0.2176
-0.2019
-0.205
-0.08987
-0.215
-0.2036
-0.2099
-0.2164
0.002943
-0.2082
-0.205
-0.06999
-0.2128
0.1972
-0.1588
0.4893
-0.2187
-0.2224
-0.2007
-0.1465
-0.05317
0.1838
0.04501
-0.09682
0.1628
0.00691
-0.4178
0.00213
-0.2143
-0.2032
-0.2113
-0.2121
-0.2877
-0.2184
0.2892
-4.327e-06
0.4385
-0.2196
0.0002356
-0.2138
-0.2096
0.3293
-0.1192
-0.2144
-0.1966
-0.0222
0.1082
-0.1916
0.141
-0.09491
-0.2271
0.0005873
-0.2154
-0.1027
-0.203
-0.1576
-0.2099
-0.2206
-0.1106
-0.07816
-0.01793
-0.03541
-0.0007012
-0.1072
0.07658
-0.07073
-0.2189
-0.0009424
-0.1447
-0.0767
-0.2035
-0.2053
-0.2186
-0.0002603
0.005426
-0.1062
-0.07303
-0.2354
-0.2199
-0.221
4.984e-06
-0.05106
-0.06148
7.394e-06
-0.2055
-0.004273
-0.03772
-0.1926
-0.2093
-0.2132
-0.2159
-0.1189
0.08032
-0.1412
-0.2197
-0.2056
-0.2008
-0.2038
-0.1936
-0.2202
0.02649
-0.06941
-0.2168
-0.2026
-0.01451
0.09905
-0.2138
-0.1648
-0.2021
3.527e-05
-0.07933
-0.1667
0.008753
-0.07582
0.3003
-0.2
-0.2316
-0.1392
-0.2168
0.1503
-0.2206
-0.2056
0.0004781
-0.1633
0.07045
-0.1082
0.05255
0.002724
0.268
-0.2014
-0.217
-0.2094
-0.1843
-0.2047
0.07422
-0.1938
-0.2145
-0.212
-0.2165
-0.2502
-0.2033
3.1e-05
-0.2156
-0.1998
0.00171
-0.04247
-0.1468
0.00175
-0.2213
-0.1929
-0.06882
-0.04336
-0.1152
-0.0002701
-0.196
0.01453
-0.02862
-0.2096
0.1457
-0.08079
-0.002004
0.09978
-0.005293
-0.1391
-0.2066
-0.1844
-0.09736
-0.1937
-0.1087
-0.2026
-0.3229
0.05875
0.0002533
-0.2036
-0.2121
0.0003806
-0.06116
0.00449
-0.2018
-0.1939
-0.282
-0.2176
-0.0006641
-0.1939
-0.1376
-0.2213
-0.2082
-0.2179
-0.2061
0.005238
-0.1682
-0.07401
-0.02
-0.2045
-0.1946
-0.07408
-0.1822
-0.05844
0.3058
-0.2228
0.0002614
9.49e-06
-0.01633
-0.06501
0.3082
-0.2034
-0.2003
0.01299
-0.103
0.1975
-0.1037
-0.001658
-0.2048
-0.09694
-0.123
-0.000449
0.3762
-0.1947
-0.1174
-1.397e-05
-0.09664
-0.2048
0.01391
-0.1304
-0.0237
0.03213
-0.2069
-0.2019
0.002297
-0.2118
-0.2176
-0.2162
-0.2199
-0.2041
-0.1227
-0.2148
-0.02935
-0.3047
-0.003797
-0.1937
-0.06633
-0.2407
0.2721
0.003507
-0.2271
-0.2044
-0.2
-0.1919
-0.09278
-0.2567
-0.09302
-0.1838
-0.2021
-0.2214
-0.2027
-0.1977
2.671e-05
0.2457
-0.06546
-0.2079
-0.2032
-0.222
0.118
-0.02406
-0.003315
0.02436
-0.1133
2.93e-05
-0.4006
-0.1953
0.003915
-0.01312
-0.1503
-0.1858
0.003526
-0.2182
-0.2092
-0.1044
-0.006093
-0.2059
-0.4092
-0.2043
-0.2327
-0.1049
-0.2044
-0.1998
0.007166
-0.1981
-0.2034
-0.1959
-0.001468
-0.1461
-0.213
-0.2141
-0.2192
-0.2576
0.113
-0.2317
-0.1966
-0.2066
-0.2
0.1882
-0.2162
-0.001278
-0.05963
-0.02057
-0.2101
-0.002324
-0.2215
-0.1961
0.003895
-0.202
-0.2047
0.1489
-0.07262
-0.204
-0.07312
-0.2078
0.08556
-0.009491
0.01122
-0.2327
-0.2034
-9.92e-05
-0.1839
0.04369
0.1636
-0.2218
-0.2001
-0.1648
-0.09909
-0.1994
-0.2162
0.001499
-0.2063
-0.2006
-0.3802
-0.1175
-0.1308
-0.2463
-0.1934
-0.2025
-0.02951
-0.2276
-0.1961
-0.0002242
0.000731
-0.2068
-0.06841
-0.001653
0.0971
-0.1488
0.05461
-0.2187
-0.2132
-0.1941
3.58e-06
0.09537
-0.02237
-0.02922
-5.026e-06
-0.1027
-0.2148
-0.2195
-0.1944
-0.1993
-0.2238
-0.2082
0.0002347
-0.1925
-0.2106
0.4828
-0.2219
-0.115
-0.207
-0.1249
-0.001812
-0.2035
-0.1926
-0.1245
-0.08955
-0.2055
-0.1927
1.648e-05
0.001983
-0.1285
-0.2069
-0.2222
-0.3444
-0.001668
-0.2036
-0.1996
-0.1911
0.002679
0.0005927
-0.1133
0.02448
-0.209
-0.1969
0.3752
5.789e-05
0.02409
9.267e-06
-0.1963
0.01847
0.001465
-0.2078
-0.2026
-0.2056
-0.2133
-0.2037
0.008828
0.0002365
-0.2041
-0.05161
-0.004755
-0.2058
-0.2433
-0.1971
0.0002434
-0.06468
-0.1352
0.04919
0.1996
-0.2113
0.0007104
-0.3439
-0.01859
-0.2019
-0.003543
-0.0002227
-0.0057
-0.02143
-0.193
-0.1982
-0.1117
-0.06597
-0.2127
-0.02935
-0.2102
-0.01962
-0.006389
-0.03863
-0.2041
-0.2192
-0.2234
-0.02707
-0.1763
-0.2017
-0.206
0.06425
-0.2169
-0.06472
-0.1974
0.08659
-0.1747
-0.1961
-0.119
-0.2076
-0.144
0.02981
-3.305e-06
-0.1923
-0.03142
-0.1886
-0.1083
-0.2083
-0.2052
-0.2055
-0.0003066
0.3365
-0.1924
3.593e-05
-0.2774
-0.001418
-0.2181
-0.1971
0.0003435
-0.2183
0.2075
0.001679
0.01469
-0.2145
-0.199
0.02703
0.1603
-0.07447
-0.1235
-0.002883
-0.1809
-0.22
-0.02958
0.1612
-0.196
-0.1188
-0.176
-0.1007
-0.2043
-0.1939
-0.2046
0.2956
0.005732
-0.0867
0.1296
-0.1233
-0.1925
0.002867
-0.2156
-0.1396
-0.164
-0.2034
-0.2038
-0.2095
8.193e-05
-0.07595
-0.2104
-0.1961
0.01101
-0.07223
-0.05474
-0.2062
0.1895
0.186
-0.2138
0.1084
-0.2228
-0.1243
-0.2044
-0.04305
0.0006995
-0.2079
-0.00023
-0.2199
-0.04262
-0.1663
-0.2116
-0.1959
-0.1602
-0.1899
-0.1658
-0.000435
-0.001177
-0.09716
-0.1317
-0.1831
-0.2293
-0.2168
-0.06076
0.2113
-0.2023
0.05697
-0.2041
-0.1853
-0.06722
-0.2031
-0.07541
-0.05491
-0.01979
-0.1478
-0.132
-0.2014
-0.2103
-0.1293
0.00278
-0.2061
-0.1329
-0.002263
-0.1838
-0.05874
0.001691
-0.2041
-0.0472
-0.2066
-0.00414
-0.2
-0.1951
3.956e-05
-0.2018
-0.2086
-0.2018
-0.2187
-0.22
0.002732
-0.2166
0.0002046
-0.167
-0.2019
0.3911
-0.04103
-0.2023
-0.2022
0.0007145
-0.002184
-0.04113
0.008298
-0.06168
-0.1059
-0.2234
-0.0873
-0.1888
-0.2198
0.01619
-0.3081
-0.1699
-0.07375
-0.2175
0.002499
0.0188
0.05715
-0.2168
-0.08114
-0.1957
0.001293
0.4001
-0.2101
-0.03124
-0.2144
-0.2066
-0.1753
-0.00347
-0.002815
-0.06211
-0.243
-0.08873
-0.2275
-0.2113
0.009296
-0.1036
-0.05243
7.086e-06
0.2533
-0.1672
-0.1398
-0.2351
-0.1999
0.001523
-0.1288
-0.1651
-0.2066
-0.2152
-0.08288
0.03745
-0.2016
-0.06129
-0.0774
-0.1062
-0.1829
-0.2152
-6.89e-05
-0.2205
0.09065
-0.166
0.01748
-0.2176
-0.1114
-0.08998
-0.2197
-0.3107
-0.1984
0.3852
-0.2076
0.2975
-0.2012
-0.1278
-0.2139
-0.1393
-0.22
-0.193
0.06689
0.007694
-0.1929
-0.2953
-0.02638
-0.1994
-0.2049
-0.188
-0.2149
-0.1182
-0.05115
0.03436
-0.1919
-0.2146
-0.2059
-0.2104
-0.2117
0.1049
-0.1417
-0.204
-0.203
-0.2005
0.3774
-0.1279
-0.1337
-0.0001131
-0.1991
-0.1925
-0.1933
-0.1984
-0.1268
-0.2
-0.1793
-0.03309
-0.2171
-0.002224
-0.1923
-0.1928
-0.05995
-0.08296
-0.2019
-0.08126
-0.2046
-0.2195
-0.1733
-0.08736
-0.22
-0.1264
-0.07457
-0.203
0.1246
-0.1891
-0.2174
-0.2027
-0.09604
-0.3225
0.009338
-0.0151
-0.0001854
-0.2197
-0.1226
-0.2021
-0.1316
0.2366
-0.2177
0.0972
-0.2161
-0.04466
-0.2029
-0.1573
-0.1235
-0.1212
0.4894
-0.08597
-0.2183
0.002435
-0.2037
-0.2253
-0.2141
-0.1891
-0.00153
0.001046
-0.1958
-0.2186
0.01598
-0.02746
-0.1019
-0.0004609
0.005481
-0.1335
0.002367
0.004628
-0.1722
-0.0003269
0.006859
-0.2188
-0.2649
-0.2199
-0.02796
0.1668
-0.1065
-0.1514
-0.1213
-0.1308
-0.203
0.02984
0.1004
-0.0726
-0.2137
-0.2022
0.001909
-0.004821
-0.2088
-0.3185
-0.001816
-0.2172
0.004269
-0.1919
-0.1857
0.02566
-0.2033
-0.1928
0.4717
-0.07616
-0.1595
0.3918
-0.2077
0.0128
-0.1387
-0.2124
-0.1783
-0.09497
-0.2042
-0.2164
-0.001668
-0.0001541
-0.1976
-0.1186
-0.1355
-0.1766
-0.03053
0.02681
-0.2086
-0.0313
-0.04959
0.1921
-0.2192
3.199e-05
-1.116e-05
0.000191
-0.1306
-0.3389
-0.193
-0.06157
-0.1902
3.763e-05
-0.04735
-0.07615
-0.2034
-0.09796
-0.2691
-0.2134
-0.2153
-0.3203
-0.2199
-0.201
0.2594
-0.2195
-0.1952
-0.2106
-0.134
-0.22
-0.02462
-0.2196
-0.1512
-0.07177
-0.2091
0.2025
-0.1927
-0.2005
-0.2145
0.003719
-0.2382
-0.1925
-0.008189
-0.21
-0.001512
-0.06639
-0.09982
-0.05658
-0.2162
0.1142
-0.2223
-0.2099
0.001509
-0.08724
-0.1951
-0.1999
-0.01979
-0.09519
0.000446
-0.142
-0.1923
-0.2198
-0.2022
-0.2042
-0.2041
-0.044
-0.2383
0.2835
-0.1798
0.0005301
-0.03699
0.04319
-1.718e-05
-0.2027
0.01404
-0.2261
-0.2216
-0.2016
0.003607
-0.222
-0.2038
-0.1864
-0.08392
-0.1157
-0.2056
-0.2148
-0.05462
-0.1883
-0.1934
-0.1389
-0.01151
-0.2174
-0.1982
-0.02833
-0.2138
-0.2192
-0.2036
0.321
-0.00109
-0.2078
-0.006249
-0.2174
-0.05913
-0.2082
-0.1283
-0.09479
-0.001912
-0.1674
0.4463
-0.1901
0.002912
-0.08332
-0.2107
-2.953e-06
-0.08431
-0.1004
-0.1999
0.00374
0.003786
-0.2267
-0.006254
-7.394e-05
-0.002289
-0.2217
0.1814
-0.1358
-0.1615
-0.1298
-0.1625
-0.1756
0.002343
-0.2068
-0.03725
-0.04802
0.008866
-0.1517
-0.1604
0.05546
-0.2179
-0.1936
-0.2269
-0.1966
-0.2046
0.05539
-0.2055
-0.1887
-0.1979
-0.1939
-0.2111
-0.001739
-0.2147
-0.2057
-0.02038
0.3437
-0.1052
-0.1239
-0.2066
-0.08738
-0.09489
0.03063
-0.1106
-0.2638
-0.2032
-0.005626
0.08608
4.801e-05
-0.2164
-0.2031
-0.2043
-0.2284
-0.2073
-0.1357
1.455e-05
0.004229
-0.2134
-0.009793
-0.002624
-0.1208
-0.2079
-0.1962
-0.1936
0.4115
0.1135
0.08692
0.1936
-0.1932
-1.03e-06
-0.2017
-0.1938
-0.215
-0.08546
-0.1366
-0.01266
-0.2188
-0.1992
-0.03067
-0.2259
-0.1125
-0.07386
-0.2104
-0.1489
0.2039
0.007817
0.0572
-0.1817
-0.2133
-0.2022
-0.1924
-0.06045
-0.2199
-0.2185
-0.1499
-0.0688
-0.09123
-0.0705
-0.0006577
-0.2103
-0.2301
-0.2032
0.05447
-0.3219
0.002099
-0.0026
-0.1912
-0.008595
0.00178
-0.2381
1.495e-05
-9.491e-06
0.03688
-6.664e-05
-0.2093
-0.2115
-0.181
-0.1984
-0.0594
0.0008001
0.003583
-0.1943
-0.1165
0.1841
-0.1265
-0.1942
0.000447
-0.2201
-0.2061
-0.1801
-0.1802
0.003324
0.009995
-0.2422
-0.001687
0.00109
-0.2066
-0.07854
-0.03179
0.03376
-0.2043
-0.001544
-0.00151
0.001574
-0.2072
-0.1198
-0.22
-0.2222
0.0661
-0.1555
-0.206
-0.2126
-0.06711
-0.2151
-0.1295
-0.192
-0.000106
-0.06021
-0.1956
-0.2305
0.001434
-0.2029
-0.2157
-0.1929
-0.2062
-0.0518
-0.2196
-0.09046
-0.05332
-0.2045
0.003685
-0.4125
-0.0244
0.05137
0.002766
-0.2433
0.00955
-0.09324
-0.0527
-0.2032
-0.2181
-0.2078
-0.2029
0.0002369
-0.4157
9.493e-05
-0.2016
-0.05529
-0.2179
0.08776
-6.119e-05
-0.2929
0.003186
-0.1267
-0.2155
-0.1947
-0.00773
0.01106
0.4445
-0.02204
-0.2035
-0.1946
-0.1951
-0.2208
0.2792
-0.1961
-0.3732
-0.1372
0.000806
-0.2126
0.3666
0.008123
0.002315
-0.2152
-0.216
0.3443
-0.2168
0.3758
0.004877
-0.1661
0.005711
0.006991
-0.0009691
-0.2271
-0.02909
-0.1933
-8.738e-06
-0.2099
-0.01923
-0.2041
-0.1801
-0.3066
-0.0325
-0.1925
0.2439
-0.0794
-0.09441
-0.2109
0.00449
-0.1699
0.001505
-0.2199
0.07796
-0.001971
-0.1337
-0.2235
-0.2042
-0.1134
-0.2089
-0.1408
-0.04801
-0.1819
0.1783
-0.2309
-0.2004
-0.2026
-0.2054
-0.2109
-0.2042
-0.2187
-0.1936
-0.2045
-0.1955
0.0003523
-0.2045
-0.0001823
0.001677
0.04814
-0.08895
-0.2081
-0.3393
-0.21
-0.2065
2.337e-05
-0.102
-0.2035
-0.2416
-0.2139
-0.002949
-0.2121
-0.2033
-0.09833
-0.0001255
-0.1964
-0.1007
-0.2055
-0.1652
-0.2312
0.1925
0.3099
-0.2165
-0.2
-0.197
-0.2131
-0.2134
0.02316
-0.2231
0.1541
0.02175
-0.2162
-0.2196
-0.2155
-0.1941
-0.2194
0.003758
0.166
-0.1977
-0.1427
0.1478
0.1603
-0.21
-0.2108
-0.0004537
-1.55e-05
-0.1361
-0.22
-0.1016
0.00205
-0.1112
-0.2192
0.02329
-0.03982
0.0008277
-0.1431
-0.1628
-0.2198
-0.2221
-0.1927
-0.193
-0.2048
-0.2127
-0.1986
0.0383
-0.2075
0.3831
-0.2154
-0.1394
-0.1067
-0.2198
-0.002159
-4.204e-05
-0.2169
-0.2142
-0.2096
-0.205
-0.2194
0.005245
-0.2034
-0.2048
-0.1534
0.0007602
-0.4372
-0.2022
-2.059e-05
-0.05989
0.01636
-0.06442
-0.206
-0.1925
-0.03688
-0.2209
-0.2316
0.004312
-0.2042
0.01155
-0.2235
-0.2056
-0.02526
-0.2047
-0.1997
0.1467
0.08202
-0.05984
-0.1516
-0.005163
-0.1125
-0.2136
-0.2728
-0.2204
-0.0003381
0.006625
0.0002167
-0.2006
0.004141
-0.1934
-0.2044
0.08695
-0.2048
-0.2135