/*--------------------------------*- C++ -*----------------------------------*\
  =========                 |
  \\      /  F ield         | OpenFOAM: The Open Source CFD Toolbox
   \\    /   O peration     | Website:  https://openfoam.org
    \\  /    A nd           | Version:  8
     \\/     M anipulation  |
\*---------------------------------------------------------------------------*/
FoamFile
{
    version     2.0;
    format      ascii;
    class       surfaceScalarField;
    location    "45";
    object      phi;
}
// * * * * * * * * * * * * * * * * * * * * * * * * * * * * * * * * * * * * * //

dimensions      [0 3 -1 0 0 0 0];

internalField   nonuniform List<scalar> 
189008
(
7.007e-08
-7.007e-08
1.653e-08
-1.653e-08
1.245e-08
-1.245e-08
1.819e-08
-1.819e-08
-1.493e-06
1.494e-06
1.87e-08
-1.87e-08
8.291e-06
-8.291e-06
-2.658e-06
2.659e-06
-1.582e-06
1.582e-06
1.042e-06
-1.042e-06
9.337e-06
-9.336e-06
-3.543e-06
3.543e-06
-9.159e-09
9.159e-09
-2.075e-08
2.075e-08
6.629e-05
-8.049e-05
1.42e-05
6.279e-06
-7.149e-06
8.707e-07
-5.635e-08
5.635e-08
-0.0009935
-0.001895
0.002889
-0.001426
0.0006678
0.0007583
-5.227e-06
5.996e-06
-7.685e-07
0.0004648
-0.0003928
-7.198e-05
1.136e-07
-7.609e-08
-3.755e-08
-0.003298
0.01055
-0.007248
1.967e-05
0.0004971
-0.0005168
6.41e-08
4.951e-08
-0.0002574
0.0001446
0.0001128
-1.196e-05
1.317e-05
-1.209e-06
-1.321e-05
1.248e-06
0.0001979
-0.0001539
-4.402e-05
0.002088
-0.008142
0.006054
-4.586e-05
-0.0002079
0.0002537
-6.952e-05
-0.0001879
2.48e-05
-1.776e-05
-7.04e-06
-5.423e-05
3.246e-05
2.177e-05
0.01204
0.01087
-0.0229
5.976e-06
1.883e-05
4.255e-05
0.0002786
-0.0003211
-0.0009304
0.00139
-0.0004593
-4.702e-05
0.0005883
-0.0005412
-5.085e-05
5.883e-05
-7.982e-06
-0.001121
-0.000305
0.001695
-0.003425
0.00173
0.000376
-0.004093
0.003717
2.618e-08
-2.618e-08
0.001613
-0.002606
-2.887e-05
-2.536e-05
0.0001306
6.729e-05
-0.0004872
0.0005028
-1.557e-05
-0.0007984
0.0009628
-0.0001645
-3.002e-05
0.0004759
-0.0004458
2.185e-06
4.094e-06
-0.01374
-0.03101
0.04476
-5.482e-05
-3.676e-06
5.85e-05
-0.01218
0.01089
0.001297
1.083
-0.1279
-0.9549
0.0009533
-0.0007665
-0.0001868
-0.147
1.23
0.01228
-0.00762
-0.004664
-0.3119
0.01816
0.2937
-0.005252
-0.006932
-0.002347
-8.662e-05
0.002434
-0.0003422
0.0007592
-0.000417
-0.0002237
0.001835
-0.001612
-0.81
0.9549
-0.145
-3.706e-05
9.209e-05
-5.502e-05
-0.0003361
-0.003308
0.003644
-0.02773
0.02205
0.005673
0.002237
-0.001854
-0.0003832
0.0006174
0.001619
-1.276
0.4797
0.7959
-6.948e-05
-0.0003072
0.0003767
5.172e-06
7.998e-06
-0.001163
-0.0003379
0.001501
-0.1151
-0.1968
-0.2732
0.5154
-0.2423
-5.562e-06
-7.646e-06
-0.05151
0.09113
-0.03962
-0.0005027
0.0004747
2.799e-05
0.0005046
0.0004487
0.1597
-0.634
0.4743
-0.0001929
0.0001471
4.58e-05
-1.7e-06
-3.527e-06
5.183e-05
6.16e-05
-0.0001134
1.045e-05
4.642e-05
-5.688e-05
8.452e-05
-0.0003096
0.0002251
-0.0002691
0.0004382
-0.0001691
-0.0006723
0.00128
-0.000608
1.733e-05
-5.313e-06
-1.201e-05
-0.003253
0.002916
-0.0004082
0.0007066
-0.0002985
0.1871
-0.02178
-0.1653
-0.00447
-0.006304
0.01077
-0.000294
0.000892
-0.0005979
0.000265
0.0001998
0.0002266
-0.0002314
4.776e-06
0.02932
0.01454
-0.04387
0.0031
-0.001404
0.0002591
-0.000262
2.938e-06
-0.0003439
-5.388e-05
0.0003978
-0.01827
-0.009452
0.6861
-0.5264
-7.185e-06
-0.0007912
-7.554e-05
-0.0002369
0.0003125
0.00439
-0.005345
0.0009544
0.000103
-0.0003721
-0.0004422
9.822e-05
-0.001136
0.001631
-0.0004943
-0.9987
-0.2768
-0.001304
0.0006518
0.0006517
-1.154
0.8762
0.2777
9.437e-05
-2.809e-05
1.218e-05
5.149e-06
-0.0003441
5.139e-05
0.0002927
0.0004604
-0.0008442
0.0003837
-0.2115
0.09531
0.1162
0.0006164
0.002575
-0.003192
-0.1063
0.05766
0.04864
0.1657
-0.4389
0.02267
-0.07418
4.151e-07
-3.312e-07
-8.399e-08
-1.253
0.09912
2.723e-05
4.913e-05
-7.637e-05
-0.0004368
-0.0007968
0.001234
0.01419
-0.01215
-0.002036
-0.0001275
-6.538e-05
0.0001857
-0.0001719
-1.374e-05
-0.000404
-0.0002367
0.0006408
0.0879
-0.1024
0.01455
-0.0001557
5.559e-05
0.0001001
-0.0006527
0.0005282
0.0001245
0.0003261
-0.0001052
-0.0002209
0.0002055
-7.925e-05
-0.0001263
-0.000392
-0.00136
0.001752
-0.0002032
-0.0002995
1.341e-07
-1.024e-07
-3.168e-08
0.0003409
-1.477e-05
-0.004014
0.03603
-0.03202
-0.0001429
0.0002925
-0.0001496
-0.0001882
0.0002172
-2.896e-05
0.03451
-0.05485
0.02034
0.009405
0.0003108
-0.009716
-0.04693
-0.04291
0.08983
-1.044e-05
8.529e-05
-7.485e-05
-0.0003065
0.0001888
0.0001177
-6.55e-05
1.068e-05
0.001371
-0.0005397
-0.0008314
-3.29e-05
-1.181e-05
4.471e-05
-0.02784
-0.7821
0.0002552
-4.964e-05
0.0002182
-0.0003258
0.0001076
0.002599
-0.003845
0.001246
0.00112
-0.0003064
-0.0008133
0.002365
-0.002935
0.0005703
-0.009117
0.0001435
0.008974
0.0002041
-0.0004307
0.0002266
0.0003069
-0.0002224
0.008132
0.004152
0.0006607
-0.0005406
-0.0001201
-9.118e-05
-0.000396
0.000115
-0.0002193
0.0001043
-0.0002762
0.0005091
-0.0002329
-3.573e-05
3.573e-05
0.1929
-0.005756
0.0004127
-0.0001294
-0.0002833
0.0001306
-0.0002765
0.0001459
3.369e-05
-7.075e-05
-0.0003057
2.997e-05
0.0002757
0.0001592
0.001726
-0.001885
-0.000216
0.0001805
3.55e-05
-0.04107
0.03382
0.007248
2.668e-06
8.128e-06
-1.08e-05
-0.0001555
-0.000151
-0.00467
0.001977
0.002693
-0.002851
0.0009206
0.00193
1.018
-1.191
0.1725
-9.448e-05
6.399e-05
3.049e-05
-0.0007384
0.0003868
0.0003516
-7.577e-05
-7.993e-05
-0.0004229
0.0008251
-0.0004022
0.1194
-0.1478
0.02848
-0.001863
-0.0009873
-0.124
-0.001967
0.1259
-4.042e-05
6.026e-05
-1.984e-05
-6.231e-05
-3.217e-05
-0.0002728
-0.00038
0.0003902
-0.0007324
0.0003945
-0.006593
0.006198
-0.0002654
0.0007259
0.0005113
-0.0004916
-0.004243
0.08568
-0.08143
-1.609e-06
5.787e-05
-5.626e-05
-6.426e-05
7.561e-08
6.418e-05
-0.04353
0.03952
0.0006699
-0.0008171
0.0001472
7.771e-08
0.0001683
0.0004117
-0.0005799
-1.469
1.198
0.271
-1.464
1.194
0.2703
1.432e-06
4.967e-08
-1.482e-06
-0.1669
0.1318
0.03513
0.2039
-0.03792
-0.166
-0.0579
0.04926
0.008636
0.02669
-0.06801
0.04132
0.0002746
-0.000232
-5.19e-08
5.19e-08
0.0003311
-0.001135
0.0008039
0.02654
-0.007793
-0.01875
0.002862
-0.0006624
-0.0022
0.01691
-0.01482
-0.2087
-0.00278
0.003756
-0.02211
0.01836
-0.0003368
0.0002622
7.464e-05
-0.06022
0.2035
-0.1433
-9.543e-05
-0.0001205
6.017e-06
-0.0001498
0.0001438
1.386e-06
-1.732e-06
3.468e-07
-1.289e-05
1.166e-05
1.23e-06
0.003636
-0.002185
-0.001452
-6.394e-05
0.0002238
-0.0001599
0.02251
0.004035
-0.0006365
0.0002393
0.0003971
-0.4708
0.2223
0.2485
0.0009865
0.0001332
1.293e-05
-4.066e-05
2.773e-05
0.0001073
6.084e-05
-0.0001682
-2.388e-05
1.957e-05
4.31e-06
-0.0002302
0.0003608
0.0003954
-0.001326
6.919e-05
-7.116e-05
1.972e-06
0.0004487
-0.0004226
-2.617e-05
-0.0004115
0.0001104
0.0003011
-0.04847
-0.07551
-0.00158
0.0004168
-4.95e-07
6.1e-07
-1.15e-07
-0.0002523
-0.0001592
-0.02413
0.01902
0.005114
0.0001303
0.0002824
5.118e-07
-5.118e-07
0.2253
-0.02132
-0.0001234
4.495e-05
7.848e-05
-9.524e-05
3.098e-05
-4.364e-05
9.799e-05
-5.435e-05
0.0003471
-0.0002436
-0.0001035
0.00033
0.0003307
0.0002198
5.236e-05
-0.0002721
2.689e-07
1.462e-07
0.000983
0.0004481
-0.001431
1.397e-05
-1.265e-05
-1.328e-06
3.336e-06
-3.336e-06
0.1969
-0.9673
0.7704
-0.0004131
-0.001706
0.002119
-6.75e-05
0.0001663
-9.878e-05
0.002374
-0.001122
-0.001252
-0.0004111
0.0001384
0.0002727
-0.0001647
0.0007491
-0.0005844
0.0007264
-0.0004271
-0.0002993
0.1162
-0.02825
9.569e-05
-0.0002991
0.0002034
-0.0002235
0.001481
-0.001258
-0.00922
-0.0002789
0.009499
0.0006531
-0.0003686
-0.0002846
-0.06582
0.09853
-0.03271
-0.01327
0.008805
-0.08749
0.04056
-2.708e-05
-0.0001208
0.0001479
-5.449e-06
-6.955e-05
7.5e-05
8.644e-05
-0.0001691
8.263e-05
0.0001349
-0.0003393
0.0002044
-0.00103
-0.0008717
0.001902
0.002806
-0.005539
0.002733
-0.0003474
-8.003e-06
0.0003554
0.8541
0.1643
0.0004787
-0.0006055
0.0001268
-0.000106
-1.74e-05
0.001292
-0.002208
0.0009155
6.861e-05
-7.022e-05
-0.0001896
-0.0001545
0.001073
-0.001249
0.0001758
-0.3763
-0.4291
0.8054
0.0007788
0.001339
-0.002118
-0.5429
-0.3515
0.8944
0.04554
-0.01622
0.004453
-6.282e-05
-0.09002
-0.1664
0.2565
0.04469
0.1212
-0.1658
1.835e-07
-5.635e-08
-1.271e-07
-0.0002915
0.0002371
5.438e-05
-0.07408
-0.1022
0.1763
0.001307
-0.0009628
-0.0003441
0.1732
-0.05384
-2.488e-05
0.00239
-0.002514
0.005561
-0.003047
-0.01119
-0.01294
0.0009932
0.001413
-0.002406
-0.2074
0.2384
-0.03104
-0.0005545
0.000931
-0.0003765
-0.0001942
-0.0001312
0.0003254
7.993e-07
7.702e-06
-8.502e-06
0.0001399
0.0002072
0.003755
-0.0009484
-0.0001449
-0.0002394
0.0003843
-0.004056
0.001164
0.002891
-0.001239
-0.001883
0.003122
0.003753
-0.003137
-8.909e-05
0.00015
-6.092e-05
0.0006019
0.0001332
-0.000735
0.002624
0.0002377
-0.184
0.1238
0.0002421
2.418e-05
-0.0002663
-0.003417
0.00345
-3.247e-05
0.00128
0.0001155
-0.001396
-2.075e-06
5.593e-06
-3.518e-06
-0.0006316
0.0004208
0.0002107
-0.8573
0.3143
-0.2579
0.1347
0.1232
0.0003135
0.0001273
-0.0004408
0.0006088
-0.0005872
-2.164e-05
-0.0001178
-0.0001893
0.0003072
0.01767
-0.008706
-0.008961
0.187
-0.1768
-0.01013
0.009258
-0.01256
-0.0003502
-2.186e-05
0.0003721
0.09485
-0.05329
-0.04156
0.001658
0.0007158
0.0004912
-0.0001777
5.575e-05
0.0001681
-0.0002238
-0.01618
0.03226
-0.01608
6.123e-07
-2.691e-05
2.629e-05
0.0006225
-0.0002194
-0.000403
-0.001619
0.0005056
0.001113
-0.001026
0.0005947
0.0004318
0.1931
-0.1484
-0.005833
0.01787
-0.5003
-0.9689
-0.4985
-0.9659
-0.01118
0.002062
-0.001059
0.0008593
0.0002001
-0.004443
-0.000226
-0.00038
-0.0006464
-2.014e-05
-0.0001956
0.0002158
-0.01158
0.04609
0.002467
0.00117
4.348e-05
-1.185e-05
-3.163e-05
-1.282e-05
-3.169e-05
4.45e-05
-0.0006816
0.0003467
0.0003349
0.0003657
0.0009411
-0.0001354
5.493e-05
8.045e-05
0.0001878
-0.000235
4.715e-05
0.0004842
-0.0003439
-0.0001403
3.749e-05
-0.000135
9.746e-05
-0.0006606
0.0005276
0.000133
0.0006442
-0.0007888
0.0001445
-1.18e-06
7.959e-05
-7.841e-05
5.579e-05
-0.0008852
-0.0277
0.02859
-0.0001702
0.0001504
1.983e-05
-0.0003155
-9.561e-05
-0.000181
-0.001066
0.001247
0.3014
-0.4093
0.1079
0.0005629
5.954e-05
0.0002798
-0.0005394
0.0002597
-0.002075
0.001852
-0.002321
-0.002644
0.004965
0.0009008
-0.0009403
3.943e-05
-8.758e-05
0.0006826
-0.0005951
0.3805
0.1363
-0.5168
-0.1191
-0.04783
-0.1697
0.2391
-0.0694
-6.873e-05
8.209e-05
-1.335e-05
0.4292
-0.8056
-0.001567
0.00176
-0.0001923
0.05947
0.03539
0.0001592
-0.0002267
6.672e-05
-0.0005464
0.0004797
0.1172
-0.1215
0.03034
-0.01385
-0.01649
-0.0001447
0.0006399
-0.0004952
3.276e-07
2.384e-07
-5.66e-07
-0.0002883
0.000542
-0.0002536
0.9146
-0.6851
-0.2295
0.001236
0.001385
-0.00262
4.202e-05
0.0001437
-0.0006743
0.0004897
0.0001846
0.006509
-0.004993
-0.001516
-0.08522
-0.02108
1.24e-05
1.651e-06
-1.405e-05
0.01546
-0.02
0.004545
3.992e-06
-5.484e-05
-0.0003772
0.0005587
-0.0001815
0.0001187
-0.0006942
0.0005755
0.2461
-0.255
0.00888
0.006148
-0.005243
-0.000905
1.005e-05
-4.189e-05
3.184e-05
0.0002192
0.0005496
-0.0007689
-0.0006737
0.0007424
-6.875e-05
-0.0001289
0.0002625
-0.0001336
0.004087
0.002061
-0.0003006
0.0002547
-0.02248
0.0216
0.009321
-0.07514
5.97e-05
-9.784e-05
3.814e-05
-0.5074
0.03658
-0.000414
-2.099e-05
0.000435
-7.778e-05
3.737e-05
-0.001027
0.01648
-0.004638
0.003668
0.0009707
-0.0001417
0.0005166
-0.0003749
-0.002487
0.002459
2.835e-05
0.1113
0.4875
-0.5988
0.0004376
-0.0008605
-0.000287
-0.00021
0.000497
-0.0005738
-1.05e-05
0.0005843
0.001236
0.008169
-4.259e-05
-0.0003355
0.0003781
-0.001172
0.0007352
7.598e-05
0.0001506
-0.0004682
0.0003955
7.271e-05
-0.0004125
6.507e-05
-0.0001171
0.001842
-0.001725
-0.0009051
0.0001642
0.0007408
-0.0003491
4.335e-05
-3.029e-05
2.809e-05
2.206e-06
-0.0001806
0.0001944
-1.383e-05
-0.6754
0.8723
0.0006241
-0.0001753
0.007573
-0.01042
0.002847
-0.003477
0.003853
-0.01247
0.0006999
0.01177
-6.675e-05
2.311e-05
-0.01112
-0.00738
0.0185
-1.274
1.436
-0.1617
0.0002465
-0.0002483
1.766e-06
-8.098e-05
-4.273e-05
0.0001237
0.007284
0.009723
-0.01701
0.003308
-0.00316
-0.0001475
0.5724
-0.1919
0.00108
-0.002178
0.001097
-3.022e-05
0.0001297
-9.944e-05
-0.06049
0.04675
-0.02558
-0.1818
0.7021
-0.6559
-0.04621
0.0006765
-0.0007066
0.06666
-0.03063
-0.0003733
-0.0001187
0.0004921
0.05211
-0.0547
0.002592
3.448e-05
0.0002246
-0.009267
-0.1347
0.144
0.0005394
-0.0003929
-0.0001465
0.05425
-0.224
-0.0001819
-0.0001549
0.0003592
-0.0003963
3.712e-05
-0.0007123
0.0004134
0.0002989
-0.0014
0.003122
-0.001722
-3.504e-05
6.958e-05
-3.454e-05
-0.01976
0.008431
0.01133
0.0004314
-0.0002279
-0.0002034
0.0003011
9.667e-05
-0.0003977
8.483e-05
-1.067e-05
-7.416e-05
0.0004747
-0.0001141
-0.0003606
0.0001009
0.007282
-0.007383
-0.002823
0.002431
-4.743e-05
-1.306e-05
6.049e-05
0.0001631
-4.251e-07
-0.0001627
0.001595
-0.001525
-7.031e-05
1.782e-05
-6.526e-05
0.3522
-0.9419
0.5897
0.1183
-0.0001294
-0.1181
-0.0003252
0.0001328
0.0001924
9.648e-05
-0.0001034
6.923e-06
-1.54
0.1227
1.418
0.0006493
-0.0003877
-0.0002616
-0.001797
0.01105
-0.009255
0.005133
0.009056
5.327e-05
0.0005556
0.03166
-0.01723
-0.01443
1.411
-0.2681
-1.143
6.293e-05
-0.0003107
0.0002478
-0.01137
0.009574
0.000114
-0.0001002
-1.377e-05
-3.572e-05
2.161e-05
1.411e-05
0.0001742
-0.0001234
-5.079e-05
0.000434
-3.266e-05
-0.0004014
-6.274e-05
7.066e-06
5.567e-05
-0.0003627
-0.0002688
-0.0007462
7.243e-05
0.0006737
0.001033
0.002275
0.0001378
-5.807e-05
-7.972e-05
-0.1249
0.2548
-0.1299
-0.0001838
0.0002988
-0.1027
0.08366
0.019
0.000678
-0.0005586
-0.0001194
0.0006362
-0.001308
6.259e-05
-7.928e-05
1.669e-05
0.0002354
-0.001364
0.001128
-1.246e-08
-3.944e-08
-0.0003716
0.0001815
0.0001901
-0.0005892
0.0008122
-0.000223
0.03105
-0.01864
-0.01241
0.001679
-0.00221
0.0005307
-0.2875
0.2321
0.05536
0.0001267
4.749e-05
0.1161
0.002194
0.0001786
2.827e-05
-0.0002069
0.0004989
-0.0003306
-1.052e-07
1.052e-07
1.399e-07
-1.618e-07
2.185e-08
1.484e-07
-1.368e-07
-1.157e-08
1.197
-0.8186
-0.378
-8.499e-05
-8.525e-05
7.289e-05
0.0003581
-0.000431
-0.1448
-0.113
-0.0006707
1.179e-05
0.0006589
-0.0003237
0.0009883
-0.0006646
-0.0002702
0.0002976
-2.736e-05
0.003477
-0.0003167
-0.00316
-5.893e-06
0.000365
-0.0006092
-0.0001031
0.0003955
0.0002537
2.942e-05
-2.731e-05
-2.104e-06
-0.4375
0.7897
-0.0002687
0.0001694
9.936e-05
3.995e-08
-3.983e-08
-1.019e-10
0.0005867
-0.0006695
8.276e-05
0.000364
-8.306e-05
-0.0002809
1.561e-05
-1.294e-05
0.06399
-0.1791
0.003467
-0.0008682
-0.051
0.07769
3.767e-05
0.0001254
0.04168
0.2471
-0.2888
-0.0002863
6.874e-05
0.0002176
-6.731e-05
-0.0001001
0.0001674
8.015e-05
-7.575e-05
-4.404e-06
1.527
-0.9027
-0.6245
-0.0002508
-7.44e-05
0.009584
0.004019
-0.0136
8.594e-07
-1.774e-06
9.148e-07
-0.0006828
-2.091e-05
0.0007038
0.000171
-1.536e-05
-0.0001556
0.0001923
-0.000183
-9.245e-06
-0.107
0.1029
0.004123
3.296e-05
-0.0001514
0.0001185
0.0009348
0.0007497
-0.001685
-0.804
-0.7364
0.002453
-0.003926
-3.109e-05
0.003957
-0.0003937
0.0001995
0.0003065
0.0005943
1.236e-06
9.525e-05
9.819e-05
-1.553e-05
-8.266e-05
-0.0005113
0.0001341
-0.003045
0.003708
-0.0006631
0.0009013
4.3e-06
-0.0009056
0.0001766
-0.0003637
0.0001871
6.652e-05
0.00018
0.1129
0.05482
-0.1677
-7.562e-05
5.672e-05
1.89e-05
3.958e-05
-0.0002206
0.000181
0.0004342
-0.0004817
4.752e-05
0.001122
-0.002418
0.001296
0.0001383
-0.0002635
0.0001252
-0.791
0.1144
0.6767
-0.7882
0.6298
0.1583
0.001942
-0.01116
-0.0001272
-8.178e-06
-0.0005822
-0.001096
0.001678
0.1389
-0.2088
0.06989
1.472
-0.6489
-0.8235
-0.001526
0.002462
-0.0009352
0.0002799
-0.0004122
0.0001323
-0.0006246
0.0002506
0.0003741
-0.0007281
-1.808e-05
7.63e-05
6.449e-06
-8.275e-05
-2.312e-05
2.151e-05
1.609e-06
-0.003164
0.003003
0.0001606
-0.1404
0.09977
0.04063
1.401
-1.278
-0.123
-9.201e-05
4.539e-05
4.662e-05
-0.0001124
-0.0002546
0.000367
0.0005457
-0.001726
0.001181
0.3133
0.5224
-0.8357
4.728e-06
9.247e-06
0.002597
-0.003043
0.0004459
-0.0001622
0.0001589
3.283e-06
0.4855
-0.0003081
0.0003529
-4.476e-05
-0.02657
0.1655
0.0002363
-0.000378
-0.000133
4.889e-05
8.407e-05
0.000867
-0.0007326
-0.0001344
0.9794
0.1619
-1.141
-2.816e-05
-0.0001091
0.0001373
0.0004449
0.0002082
-8.159e-05
4.586e-05
0.3909
1.021
0.0004448
-0.001581
-9.585e-06
-3.307e-06
0.3958
0.3063
-0.00177
-0.002868
-0.1641
0.004737
0.1593
-0.0003763
-0.000445
0.0008214
0.0001947
-0.0001036
-9.115e-05
-0.2801
0.19
0.0001034
-9.474e-05
-8.617e-06
0.000246
0.000457
-0.000703
-2.379e-06
8.367e-06
-5.988e-06
-4.646e-05
-7.599e-05
0.0001224
-3.001e-05
-3.062e-05
6.064e-05
-0.0001902
-0.0004704
-0.00022
-0.0004544
0.0001946
0.0002077
-0.0004023
0.0006862
-0.0007332
0.0005678
-0.0008619
0.0005986
-0.0009244
0.0003259
9.837e-05
-0.0001137
1.534e-05
2.956e-05
-1.445e-05
-1.512e-05
0.0003036
-0.0002255
-7.805e-05
-0.6002
0.9135
0.0007535
-0.0005216
-0.0002318
0.1087
-0.1944
0.08577
-0.0005167
-0.0001649
-0.1236
0.03442
0.08922
0.0001058
-0.0001163
-0.342
-0.9323
-0.1523
0.07819
-0.002589
-0.005124
0.007713
-0.0004386
-0.0004665
-0.0001896
-0.0001441
0.0003337
-1.04
0.1278
0.9122
1.107
-0.8992
-0.2083
0.0001076
-3.839e-05
-4.5e-06
-6.688e-06
1.119e-05
-5.41e-05
0.0001059
-0.0004745
0.0001777
0.0002969
0.0007979
-0.0002441
-0.0005538
0.0002994
-0.0006728
-0.0003041
0.0004543
-0.0001502
-0.0007456
0.0004586
-7.078e-05
3.91e-05
-4.653e-05
0.0001266
-8.003e-05
-3.261e-05
-1.073e-05
4.333e-05
-1.16
0.1203
2.645e-05
6.105e-05
-8.749e-05
2.535e-05
-6.839e-05
4.305e-05
-6.013e-05
-0.005045
0.005105
0.008971
-0.005686
-0.003285
0.1785
-0.2405
0.06202
1.029
0.4429
0.0003688
-0.0003131
-1.022e-05
-0.000178
3.556e-05
0.0001022
9.122e-06
-6.105e-06
-3.017e-06
-0.07576
-0.04788
-0.9853
-0.4034
1.389
-0.0001326
-0.000101
0.0002337
-0.0001194
-2.589e-06
0.000122
-0.05142
-0.006473
2.481e-05
3.512e-05
-5.992e-05
0.01463
-0.002191
-0.01244
-0.03622
0.08854
-0.05232
-0.000167
5.882e-05
0.0001082
0.00233
-0.002887
0.000557
-4.658e-05
7.193e-05
0.004673
-0.009453
0.00478
-4.645e-08
4.645e-08
-3.01e-05
6.216e-06
6.458e-05
0.0004101
0.0003119
0.0001195
-0.0001502
-0.0001413
8.886e-05
2.526e-05
-0.0001141
-0.000297
-1.114e-05
-5.461e-05
9.337e-05
-3.877e-05
0.05669
0.006689
-0.06338
0.0001311
-4.752e-05
-8.356e-05
1.367e-05
-3.977e-06
-9.695e-06
-9.049e-05
-0.0003235
0.7437
-1.069
0.3248
0.001293
-0.0002201
-0.004815
0.004239
0.0005763
0.001601
-0.00336
0.001759
1.077
0.4501
-0.02605
0.7697
1.971e-07
-8.103e-07
6.132e-07
0.0236
0.007446
0.0003638
-0.0006399
0.0002761
4.939e-05
-5.081e-05
1.422e-06
-0.0003639
0.0006388
-0.0002749
0.0003284
-8.631e-05
0.004025
0.00273
-0.006756
0.0002363
-0.000129
0.003805
-0.006818
0.003013
0.0009841
-0.0008381
-0.000146
-0.1494
-0.1988
0.3482
1.05
-0.04428
-1.006
-0.002074
-0.0004403
0.002514
-0.001252
0.008825
2.366e-05
-9.239e-05
-0.001544
0.003145
0.0003469
-0.0003854
3.853e-05
0.0009439
-0.0002996
-0.0006443
0.0003118
0.0001889
-0.0005006
-0.01973
0.02349
0.002891
-0.005212
-1.126
-0.3863
1.512
-0.0001169
0.0002202
-0.0001033
0.02305
0.00861
-0.001073
0.0008055
0.0002672
7.827e-08
-0.002486
0.0007075
0.001778
-0.0003187
0.0002916
0.0001927
-0.0004811
1.258
-0.2789
-0.00185
0.002099
-0.0002492
-0.0003414
-0.0005335
0.0008749
-1.976e-05
2.044e-05
-6.815e-07
-0.001046
-0.000163
0.001209
0.0002076
-1.094e-05
-0.0001966
-5.204e-05
-1.875e-05
-0.0001094
0.0003276
-0.0002313
-0.0002369
0.0001328
-0.0004639
0.0003311
0.0005343
0.0003525
-0.0008869
0.0005977
-0.0007624
0.00139
-0.002399
0.001009
-0.003634
0.0002165
9.062e-05
-0.0004947
0.003129
-0.006037
0.002908
-1.473e-07
1.473e-07
-0.001009
-0.003806
-0.06596
0.02489
0.0001755
-0.001433
0.001258
0.0001806
0.0003422
-0.0005228
8.113e-07
0.001106
-0.001107
0.1019
0.3718
-0.4737
-4.841e-05
2.546e-05
2.295e-05
2.473e-05
0.0006195
-0.0005618
-6.289e-05
-1.511
0.5252
2.377e-06
6.745e-06
-0.0002254
4.479e-05
0.000306
-0.00035
4.401e-05
-0.3884
-0.638
1.026
1.142e-06
-5.575e-05
0.0001287
-0.0001584
2.974e-05
4.551e-05
-0.0001397
9.419e-05
1.87e-05
-0.0001039
8.517e-05
-1.199
0.8105
-0.0005573
0.0003224
0.0002349
5.727e-06
-4.109e-06
-1.618e-06
7.228e-05
-0.0001104
3.809e-05
-0.0003232
0.0003261
-2.891e-06
-0.1577
0.06232
0.09537
4.205e-05
1.427e-06
1.433e-05
-0.000108
9.369e-05
-0.1613
0.1676
-0.006354
0.0028
0.0005474
-0.003347
-0.003915
0.003813
0.0001026
9.436e-05
-5.503e-06
-0.0002514
-0.0001202
-0.002688
0.003853
-0.002826
0.0003401
-9.328e-06
-0.0002064
0.0002157
-6.576e-05
0.0001522
0.2821
0.5874
-0.8695
-0.0003911
-0.0001662
-0.0004361
0.000776
-0.00034
0.0001031
-0.0001044
1.262e-06
-0.0001163
-0.0004575
-0.01311
0.01155
0.001553
-0.0008139
0.0001432
2.301e-05
7.518e-05
1.029
-0.7468
4.168e-05
-0.0003119
-6.721e-05
-9.984e-05
-3.628e-06
-1.588e-05
1.951e-05
2.602e-07
-7.552e-07
2.41e-05
-2.773e-05
3.414e-05
4.601e-05
0.000221
4.038e-05
-0.0002614
0.0002797
-0.0001845
-9.515e-05
-0.004613
0.001209
0.003404
0.1728
1.024
-9.42e-09
9.421e-09
9.891e-05
0.0001314
-0.0002304
6.983e-05
-0.0001163
6.785e-05
-6.165e-05
-6.201e-06
-0.0001234
0.0003278
-0.0002043
3.052e-05
-0.0001664
0.0001358
-0.0002557
4.042e-05
0.0002152
-0.0005012
0.0004317
0.5596
0.8415
4.356e-05
0.000557
-0.0006005
-0.004464
0.001269
0.003195
-1.505
0.3791
-0.0001326
0.0002293
-9.672e-05
0.000143
0.000535
0.002069
-0.0007883
0.0009291
0.0003301
-0.001259
0.1374
-1.017
0.8792
8.532e-05
-0.0003895
9.323e-05
-1.8e-05
-7.523e-05
-0.2743
-0.7142
0.8516
0.006665
0.002305
-0.000753
0.001028
-0.0002754
0.000442
0.0003558
-0.000182
-9.47e-06
0.0001914
-0.0005538
0.0004847
6.907e-05
5.466e-06
-4.623e-07
-5.004e-06
-0.004125
0.001025
0.0031
-0.004131
0.005623
-0.001491
-0.7988
-0.2698
-0.000403
0.0001029
0.0003001
-0.0003891
0.0001873
0.0002017
0.0003863
-0.0003189
-6.736e-05
9.555e-05
-0.0001846
0.00202
-0.00186
1.084
0.08593
-1.17
0.2754
-0.2114
0.07914
-0.1347
0.05561
-1.088e-05
2.554e-06
8.321e-06
0.04565
-0.8444
0.03335
-0.01795
-0.0154
-0.0001256
0.0002642
-0.0001386
-0.0008891
-0.001076
0.001965
0.0001301
5.707e-05
-0.0001872
-0.2155
0.8475
-0.6319
-0.0001859
0.0001366
4.929e-05
-0.0004025
0.002279
-0.001877
-0.2383
-0.01786
0.2561
0.0002444
0.0002398
0.6921
0.4737
-1.166
-0.0004259
-0.0002613
0.0006873
-8.285e-06
-1.4e-05
2.228e-05
8.039e-05
-3.818e-05
-4.221e-05
-0.0002703
-0.0005306
0.0008009
2.186e-05
1.393e-05
-3.578e-05
0.1862
-0.04875
-0.1374
6.304e-05
4.917e-05
-0.0001122
-0.00924
0.009373
-0.0001324
-0.0002236
-6.273e-05
3.556e-07
5.007e-06
-5.363e-06
-0.0002084
-0.0001964
0.0004048
0.0002787
9.207e-05
-0.0003708
-0.00686
-0.006246
0.005404
-0.005998
0.0005933
0.001924
-0.0003805
-0.001544
6.826e-05
-6.826e-05
-0.3399
0.1972
0.1427
-0.001449
0.002889
-0.00144
0.0008052
-0.0005142
-0.000291
-0.0002232
0.0004225
-0.0001993
6.359e-06
7.313e-06
0.0001212
-0.0001097
-1.155e-05
-0.1178
1.202
0.04721
-0.02967
-0.01754
-6.466e-05
-2.735e-05
-0.000213
1.138e-05
0.0002016
-6.151e-06
8.586e-06
-2.435e-06
-0.0004755
0.001348
-0.0008724
6.43e-06
-6.43e-06
-0.0003039
0.0003521
-4.824e-05
7.169e-06
-7.169e-06
-0.0003088
0.0001062
0.0002026
4.762e-05
2.875e-05
-7.637e-05
0.0004629
-0.0004193
4.183e-05
-2.958e-05
-1.225e-05
0.0976
-0.07375
-0.02385
0.001845
-0.001399
-0.0004462
1.092
-1.516
0.424
1.319
-1.742
0.4231
-8.519e-05
-9.534e-05
0.0001805
-0.04276
0.0913
-0.04854
6.628e-05
8.437e-06
-7.472e-05
-0.003804
0.001888
0.001915
-0.001045
0.0002011
-0.007788
0.008801
-0.001013
0.04675
-0.1012
0.05447
-0.0006466
3.936e-05
0.0006072
0.000663
0.00101
-0.001673
0.2518
-0.005627
-0.0004923
0.0008336
-0.0003413
0.0002256
-0.0004027
0.0001771
0.09377
-0.04702
0.0001088
-5.428e-05
-5.448e-05
1.477e-05
-1.477e-05
-0.0001086
1.481e-05
9.375e-05
0.0009164
-0.002916
0.001999
0.0001609
-5.942e-05
-0.0001015
8.958e-06
8.285e-05
-9.181e-05
-0.000178
0.0001701
7.896e-06
-0.339
0.1239
0.2151
0.0001028
-4.024e-05
-0.0005183
-0.0005545
-0.04936
0.3507
0.0001086
-8.134e-05
0.0003323
-3.133e-05
-0.000301
0.0004964
-0.000842
0.0003455
-0.4777
-0.5498
1.027
0.2169
0.001644
-0.2186
0.001684
-0.001472
-0.0002123
1.495e-06
6.905e-07
-2.186e-06
0.000132
-0.00223
0.002098
-1.457e-05
1.457e-05
0.0006185
-0.0003293
-0.0002892
0.00077
-0.0002064
-0.0005636
-0.002001
0.001834
0.0001672
4.403e-06
2.83e-06
-7.233e-06
0.0001033
2.606e-05
-0.0001294
-0.412
1.374
-0.9616
-0.0001632
0.0002262
-6.297e-05
0.005313
-0.0005118
-0.004801
-0.3003
1.332
-1.032
-0.0006331
-0.0008482
0.001481
-3.682e-07
1.964e-07
1.718e-07
0.0009284
0.0008195
-0.001748
3.234e-05
-7.615e-06
-2.472e-05
0.006709
-0.003818
-0.002891
0.001242
0.003175
-0.004418
-9.543e-07
-1.522e-06
2.476e-06
2.501e-05
-2.501e-05
0.0005467
0.0002411
-0.0007878
-0.08765
-0.05275
-0.4606
0.2239
0.2367
0.002924
-0.001112
-0.001812
-0.001453
0.001104
0.0003486
-8.059e-05
-0.0001523
0.0002329
0.000148
-8.424e-05
-6.372e-05
-0.0005498
-9.966e-05
0.0006495
0.0003165
-0.0001498
-0.0001667
-0.002334
0.002101
0.0002333
-0.009115
0.01676
-0.007642
0.0001256
0.0001909
-0.03146
-0.01598
0.04744
2.959e-05
1.653e-06
-3.124e-05
0.137
-0.5754
0.4384
-0.0002382
-0.0003492
0.0005874
-2.059e-06
9.923e-06
-7.864e-06
0.0002429
-0.0002972
5.426e-05
-0.000243
0.0001996
4.342e-05
0.0004832
-0.0002433
-0.0002399
-0.3822
0.09674
0.2854
-0.1897
0.05639
0.1333
5.265e-05
-8.802e-05
3.537e-05
0.007946
-0.008999
0.001053
-0.0001244
0.000238
-0.0001136
0.0004355
-0.0007424
0.0003069
7.608e-05
-0.0001464
7.034e-05
-0.0005591
0.000542
1.714e-05
0.0002846
-8.555e-05
-0.0001991
-1.773e-05
3.386e-05
-1.613e-05
-2.157e-05
9.879e-05
-7.721e-05
8.443e-05
-8.443e-05
-7.667e-06
-4.21e-05
4.977e-05
-3.596e-05
0.0002562
-0.0002203
-0.0001382
0.000115
2.313e-05
-0.002823
0.004238
-0.001415
-0.0003583
0.0007738
-0.0004155
7.007e-05
0.0005998
0.0002217
-0.0002304
8.686e-06
1.107e-08
-5.412e-06
5.401e-06
-3.81e-08
5.204e-08
-1.395e-08
0.0005946
-0.0002825
-0.0003122
-0.3191
0.421
0.5895
0.2179
-0.8074
0.0004415
-0.0005775
0.000136
-9.226e-05
-0.0002766
0.0003689
0.004899
-0.0009189
-0.00398
-0.1885
1.18
-0.9912
0.0002787
0.0006494
-0.000928
0.0004204
3.393e-05
-0.002545
-0.005804
0.008349
-9.171e-05
-5.567e-05
0.0001474
0.0007533
-0.000523
-0.0002303
2.828e-05
-0.0001144
8.616e-05
0.002475
-0.002994
0.0005181
0.7874
-0.6762
-0.008511
0.002826
0.005685
0.0124
0.0005514
-0.01295
0.0001341
-1.607e-05
-0.000118
4.614e-05
7.646e-05
-0.0001226
0.0001561
-0.0001185
-3.758e-05
-0.004572
0.001772
0.002801
0.0003972
-0.003057
0.00266
-3.971e-05
9.748e-05
-5.777e-05
-0.0006184
0.0009294
-0.000311
-0.002261
-0.001534
0.003794
-0.00114
0.0004568
0.0006834
-0.0007361
-0.0001562
0.0008922
0.001743
-0.001426
-0.0003179
-0.0003803
0.0003236
5.671e-05
0.0002556
-0.0001836
-7.201e-05
0.2604
-0.3213
0.06083
2.147e-05
-1.196e-05
-9.517e-06
7.201e-07
2.623e-06
-3.343e-06
-0.0006993
0.0002632
-1.2e-05
-0.0001261
0.0001381
-0.0001094
2.889e-05
0.02194
-0.1183
0.09634
1.887e-05
-1.887e-05
-8.99e-05
8.99e-05
-0.1668
-1.048
1.215
1.259
0.231
-1.49
0.0001101
-4.697e-05
-6.309e-05
-7.249e-05
0.0004455
-0.000373
-1.479e-07
1.714e-07
-2.353e-08
-6.479e-06
-3.811e-06
1.029e-05
-0.0002042
0.00205
-0.0004841
0.0006351
-0.000151
-0.0001292
-1.365e-05
0.0001428
-0.001145
-0.004221
0.005366
0.003637
0.005253
-0.00889
-0.1908
0.06344
0.1273
-0.0001302
8.76e-05
4.255e-05
-9.699e-06
0.0004994
-0.0004897
0.0001049
-0.0002124
0.0001075
-0.004738
0.001059
0.003679
1.256e-06
-2.485e-06
1.229e-06
-0.000308
0.0004253
-0.0001173
0.8162
-1.148
0.3317
-0.0001059
0.0001059
-0.0002106
0.0001334
7.72e-05
0.1661
0.5631
-0.7292
-7.212e-05
9.386e-06
-1.288
1.121
0.2423
-0.4272
0.1849
-0.003195
0.002215
0.0009801
-0.01139
-0.002153
0.01354
-1.614e-05
9.858e-06
6.283e-06
0.7815
-0.9468
0.1653
0.0005283
-0.0002777
-0.0002506
0.4753
-0.1357
-0.3397
0.0004458
-0.0008661
0.0004203
-0.01705
0.005655
0.0114
0.0006766
-0.0004755
-0.0002011
0.006252
-0.003281
-0.002971
-0.0001287
-0.0005344
0.0006631
-0.0005602
-0.0002276
0.0007878
-8.544e-05
-2.571e-05
0.0001112
0.001855
0.0003884
-0.002243
0.1491
0.6511
-0.8002
0.01124
0.06117
-0.07241
0.0003162
-0.0001913
-0.0001249
-0.0001633
-0.000837
0.001
-6.498e-05
0.0002082
-0.0001432
-0.0001602
9.016e-05
7.008e-05
4.881e-05
-2.923e-05
-1.958e-05
8.659e-05
2.159e-05
-0.0001082
1.328e-05
-1.328e-05
6.802e-05
-0.000144
0.001135
-0.000823
-0.0003124
2.308e-05
-6.2e-05
3.892e-05
-0.0007037
0.0004527
0.0002509
0.0001106
5.22e-05
-0.0001628
0.005026
-0.006155
0.001128
-0.0006503
0.0002392
0.0004111
0.4955
-0.3655
-0.13
0.0001536
-0.0001671
1.347e-05
1.198e-05
-3.357e-05
2.159e-05
-0.000312
2.303e-06
0.0003097
0.4961
-1.094
0.5978
-0.0005256
0.0001872
0.0003384
-0.0006579
0.0003619
0.000296
-0.002309
0.0005956
0.001713
0.001542
-0.0006892
-0.0008523
1.612e-05
-8.195e-05
6.583e-05
0.001463
0.006803
-0.008266
-9.013e-05
0.0001033
-1.315e-05
4.856e-05
0.0003387
-0.0003873
-0.001154
-0.001155
3.814e-05
7.441e-05
-0.0001125
-0.0004674
-7.217e-05
0.0005396
-4.915e-06
5.27e-06
-1.182
0.5419
0.6396
0.00235
-0.004615
0.002266
0.0001337
-5.036e-05
-8.339e-05
0.1293
0.05752
-0.1868
0.0001632
-4.676e-05
-0.0001165
-7.54e-05
-2.17e-05
9.71e-05
-1.247
1.247
0.001559
0.00237
-0.003929
2.558e-05
-3.696e-05
1.138e-05
0.06911
-0.05306
-0.01605
0.006388
-0.001362
-5.049e-05
0.0001433
-9.276e-05
5.714e-05
-2.097e-05
-3.616e-05
0.01247
-0.009648
-0.002826
-1.269
0.5233
0.7453
-0.0001262
0.0002017
-7.547e-05
6.898e-05
-0.0001641
9.514e-05
0.4031
-0.2554
-0.1476
-0.008235
0.005486
0.002748
0.0008042
-0.03063
0.02983
0.0003503
0.0001336
-0.0004839
0.000117
4.14e-05
-0.0001584
-0.001563
-0.0007726
0.002335
-0.05427
-0.05399
0.1083
-9.84e-08
5.799e-06
-5.7e-06
3.233e-08
6.251e-07
-6.574e-07
0.0001887
0.0005648
0.0003394
-0.001166
0.0008265
0.000516
-0.0007974
0.0002814
2.833e-05
1.35e-05
-0.3925
1.239
-0.8465
0.0002324
-0.00114
0.0009078
0.3493
-0.00667
-0.3426
-0.0002357
0.0003394
-0.0001037
-0.001025
0.001
2.487e-05
-9.002e-05
-0.0001019
0.000192
0.0004248
0.001117
-1.449e-06
3.132e-06
-1.683e-06
-1.83e-05
2.002e-05
-1.726e-06
-0.5584
0.2182
0.3402
-2.15e-06
2.15e-06
7.17e-05
-5.395e-05
-1.774e-05
-2.058e-05
7.794e-05
-5.735e-05
-0.001795
-0.0002109
0.002006
-0.0002156
0.0003113
0.0003789
0.0002058
-0.0005847
-0.001226
0.0006643
0.0005613
-0.0001977
0.0001635
3.416e-05
0.002091
-0.001451
-0.0006393
-0.01039
0.02512
-0.01473
5.322e-06
-5.322e-06
0.0002485
-0.000309
6.046e-05
-0.0007442
0.0003273
0.0004169
0.0002817
0.0001353
-0.000417
0.001369
-0.001139
-0.0002307
0.0002229
0.0003951