/*--------------------------------*- C++ -*----------------------------------*\
  =========                 |
  \\      /  F ield         | OpenFOAM: The Open Source CFD Toolbox
   \\    /   O peration     | Website:  https://openfoam.org
    \\  /    A nd           | Version:  8
     \\/     M anipulation  |
\*---------------------------------------------------------------------------*/
FoamFile
{
    version     2.0;
    format      ascii;
    class       volVectorField;
    location    "45";
    object      U;
}
// * * * * * * * * * * * * * * * * * * * * * * * * * * * * * * * * * * * * * //

dimensions      [0 1 -1 0 0 0 0];

internalField   nonuniform List<vector> 
127143
(
(0.001893 -8.261e-05 0)
(-9.668e-05 -0.0004538 -5.903e-24)
(-7.269e-05 -0.000357 1.083e-23)
(-9.5e-05 -0.0004364 -1.24e-27)
(0.007857 0.00245 -1.369e-22)
(-8.044e-05 -0.0004523 5.124e-27)
(0.03091 0.01905 0)
(0.01347 0.006231 -1.955e-22)
(0.01086 0.005197 6.472e-22)
(-0.002912 -0.0001184 0)
(0.03196 0.04384 6.439e-22)
(0.01987 0.01309 7.281e-22)
(0.0003012 -0.0001139 -2.204e-24)
(-0.000125 -0.000497 0)
(0.1205 -0.09854 1.395e-20)
(0.04277 -0.003946 0)
(-0.0002361 -0.001082 -1.757e-23)
(-0.06039 -0.06928 3.247e-20)
(-0.183 -0.01244 0)
(0.05263 0.008664 0)
(-0.1482 0.03979 5.965e-21)
(-0.0007281 0.0001431 0)
(1.006 -0.1467 0)
(0.6152 -0.05904 0)
(-0.0007656 0.000204 -2.064e-22)
(0.2259 -0.03486 0)
(-0.01979 0.0002468 1.279e-20)
(-0.01982 -0.0006414 -1.923e-22)
(0.2442 -0.1091 0)
(0.2277 -0.07511 -1.926e-20)
(0.4959 -0.02944 0)
(0.2196 -0.0323 -3.275e-21)
(0.05485 0.01418 2.272e-21)
(-0.04249 0.01122 -1.374e-20)
(0.8924 -0.09038 1.931e-20)
(0.05126 0.01664 -5.453e-24)
(-0.2382 0.08429 5.249e-21)
(0.2804 0.02227 -4.704e-21)
(0.7287 -0.06541 -1.798e-21)
(0.2188 -0.009983 3.163e-25)
(-0.1838 -0.01479 0)
(1.018 0.4045 -4.041e-21)
(1.002 0.394 2.849e-21)
(0.0006286 -0.000213 0)
(-0.06683 -0.06274 -2.88e-20)
(-0.04429 0.01019 4.408e-21)
(0.2468 -0.1147 0)
(-0.2396 0.08645 -7.102e-22)
(0.7196 -0.1262 4.979e-22)
(0.6967 -0.05553 -1.218e-21)
(0.05076 -0.003648 -1.934e-22)
(0.9854 -0.0382 2.596e-20)
(-0.0622 -0.007303 0)
(1.129 0.1574 -7.123e-21)
(1.002 -0.0007026 1.597e-20)
(0.5625 -0.1393 2.491e-23)
(1.002 -0.0006983 -1.437e-20)
(1.119 -0.08092 0)
(1.009 -0.006666 -1.232e-20)
(1.128 0.1584 -1.383e-20)
(0.5564 -0.1046 -6.796e-20)
(-0.1673 0.07358 -1.112e-21)
(1.056 -0.07335 4.877e-21)
(1.001 0.0004507 2.065e-20)
(-0.09585 0.01115 0)
(0.9013 -0.2407 -5.207e-21)
(1.052 0.1399 2.089e-20)
(1.018 -0.07596 0)
(1.026 -0.07554 1.297e-21)
(0.9894 -1.268e-05 0)
(0.5568 -0.04143 0)
(-0.02142 0.0002423 -6.033e-21)
(-0.1975 -0.05747 -7.15e-21)
(1.01 -0.006528 -6.843e-21)
(1.003 0.002606 -4.314e-22)
(-0.02144 -0.0004922 6.027e-21)
(1.003 0.03286 -2.847e-21)
(-0.2185 0.07563 0)
(0.582 -0.1504 4.444e-23)
(1 0.000528 0)
(0.2371 -0.1073 1.719e-23)
(0.05896 0.007304 4.401e-23)
(-0.0782 0.01829 6.808e-21)
(0.2702 -0.019 0)
(-0.1693 -0.01819 1.291e-21)
(-0.2239 0.07907 0)
(0.8242 -0.08189 -3.33e-21)
(-0.02767 -0.002485 3.392e-21)
(0.9003 -0.2382 0)
(1.132 0.6626 0)
(1.005 -0.003893 0)
(1.136 0.07286 0)
(1.121 0.6498 0)
(-0.1476 0.03957 -6.134e-21)
(-0.1406 0.02949 0)
(1.062 0.06348 2.503e-20)
(1.02 0.398 8.486e-21)
(0.3635 -0.02721 0)
(-0.2005 0.06511 2.374e-21)
(1.049 0.1398 0)
(1 0.000514 0)
(0.7486 -0.1344 0)
(0.8556 0.7871 -9.303e-22)
(1.091 -0.1217 0)
(-0.2244 0.07951 -1.373e-21)
(-0.2009 0.06511 3.403e-21)
(0.994 -0.1547 -2.978e-21)
(0.9885 6.182e-05 0)
(0.7411 -0.2839 0)
(1.002 -0.0005262 2.235e-20)
(0.1317 -0.102 -4.324e-21)
(-0.02764 -0.002098 6.521e-21)
(-0.1456 0.03436 -6.175e-21)
(0.2791 0.4144 0)
(0.9954 0.006757 1.678e-20)
(1.047 -0.1664 -5.559e-22)
(0.984 0.03244 -1.165e-20)
(1.003 0.002705 -1.431e-20)
(1.003 0.03202 1.994e-21)
(-0.00107 -0.004598 0)
(1.002 -0.0005606 -3.125e-20)
(-0.07758 0.02051 -1.929e-21)
(0.8464 -0.3043 0)
(1.098 -0.08848 1.638e-20)
(0.2512 -0.1121 5.414e-22)
(0.1565 -0.02075 -9.706e-21)
(-0.1771 0.06286 0)
(1.03 0.008914 8.682e-20)
(-0.08731 0.01476 -1.536e-21)
(0.5675 -0.1646 -3.065e-22)
(-0.1819 0.05583 0)
(-0.1444 0.03351 -4.574e-21)
(1.104 -0.09452 -1.108e-20)
(-0.2191 0.07597 0)
(-0.000352 -0.001912 -9.634e-23)
(-0.1836 0.0564 -2.245e-21)
(1.087 -0.03158 0)
(-0.1293 0.03619 1.447e-21)
(0.2989 -0.1698 -4.699e-21)
(1.098 0.01564 8.466e-21)
(0.9784 -0.1767 2.042e-21)
(0.9837 0.02114 5.718e-20)
(-0.03801 0.03259 2.888e-22)
(-0.06222 0.02493 -4.168e-21)
(-0.05959 -0.007522 -6.854e-22)
(1.141 0.4178 3.347e-21)
(-0.03415 0.2047 2.567e-21)
(1.001 0.000391 -1.851e-20)
(-0.1429 0.0332 4.048e-21)
(0.7807 0.6646 -5.345e-22)
(1.099 -0.1143 -4.127e-21)
(0.7891 -0.1575 0)
(0.4872 0.04043 1.552e-20)
(0.8656 -0.1513 0)
(0.3652 -0.2474 0)
(-0.1717 -0.01822 0)
(1.12 -0.08002 -5.791e-21)
(0.548 -0.1906 0)
(-0.2394 0.08634 -1.334e-21)
(0.3208 -0.02877 1.962e-21)
(0.6012 -0.0381 0)
(0.06516 -0.03297 6.177e-21)
(1.005 -0.00347 -2.487e-22)
(-0.1827 0.05614 -5.795e-21)
(0.3443 -0.09213 0)
(-0.103 0.01259 9.127e-21)
(-0.2281 0.08069 -3.608e-21)
(0.724 -0.2474 1.498e-20)
(0.2913 0.09351 -3.573e-21)
(0.9405 0.03214 -6.873e-21)
(-0.04315 0.01293 0)
(-0.06346 0.02566 1.936e-21)
(1.038 -0.1767 -1.49e-21)
(0.9338 -0.2636 -1.134e-21)
(0.9762 -0.0002781 4.046e-20)
(-0.1002 0.004449 3.335e-23)
(1.126 0.4651 -6.39e-22)
(-0.0877 0.0153 -1.478e-21)
(0.6809 -0.06847 0)
(1.007 -0.01602 4.565e-21)
(0.933 -0.2641 -3.846e-22)
(1.017 0.008626 0)
(-0.07832 -0.01313 5.041e-22)
(-0.09981 0.003296 -3.377e-23)
(0.5804 -0.1715 7.421e-22)
(-0.1642 0.073 1.996e-21)
(0.9812 0.2613 -1.546e-21)
(0.2932 0.43 -7.623e-21)
(0.6435 -0.06262 -3.881e-21)
(1.026 -0.02336 4.271e-20)
(-0.07833 0.0152 5.778e-22)
(-0.08681 -0.001078 -4.16e-21)
(1.084 -0.0308 7.198e-20)
(0.3689 0.7638 -1.343e-21)
(-0.0002169 -0.002013 1.607e-22)
(-0.1519 0.05211 0)
(1.003 1.485e-07 0)
(0.9993 -2.979e-06 1.018e-22)
(0.02142 0.007848 0)
(0.9902 0.009301 4.95e-21)
(1.008 0.007365 2.009e-20)
(0.9372 -0.008142 1.008e-19)
(0.9641 -0.04332 1.128e-20)
(-0.2396 0.0848 -2.464e-21)
(-0.0001713 -0.000961 2.362e-24)
(0.9438 -0.05901 5.42e-21)
(1.029 -0.0968 -5.031e-21)
(1.038 -0.1798 5.088e-22)
(0.3171 -0.0949 1.717e-20)
(0.9955 0.006506 -8.687e-21)
(1.163 0.0128 1.785e-20)
(-0.1521 -0.008812 7.757e-22)
(0.9983 -0.005317 5.61e-21)
(0.3131 0.09827 -3.737e-21)
(-0.1592 0.04874 4.519e-24)
(0.03261 0.001464 0)
(-0.03804 0.01283 -1.582e-21)
(1.024 -0.1951 -1.701e-21)
(-0.1558 0.04032 -5.427e-21)
(1.03 -0.09554 -1.363e-21)
(1.119 0.4614 -1.347e-21)
(1 0.003812 -1.997e-20)
(0.7766 -0.152 3.321e-22)
(-0.04187 -0.01009 7.688e-22)
(0.2978 -0.0276 0)
(-0.05987 0.02005 0)
(0.4263 -0.1102 -1.099e-22)
(0.3259 0.02877 5.238e-21)
(-0.1391 0.04785 3.307e-21)
(-0.1968 0.06719 3.444e-21)
(-0.1477 0.03865 3.773e-21)
(1.018 0.007481 -1.795e-20)
(-0.2027 -0.05752 1.425e-20)
(-3.048e-05 -0.01145 0)
(-0.1476 0.03876 0)
(1.086 -0.07469 1.681e-20)
(-0.1827 0.05615 2.786e-21)
(0.004907 -0.0007559 1.011e-22)
(1.008 0.007192 -1.872e-20)
(-0.07169 0.0283 2.83e-21)
(-0.08718 -0.00115 3.733e-21)
(-0.09459 0.009152 -1.483e-20)
(-0.1931 0.04787 -3.388e-22)
(0.5682 -0.1994 1.901e-24)
(0.2841 0.02506 0)
(-0.0008552 -0.004744 2.599e-26)
(0.9083 -0.1821 -1.565e-21)
(-0.02042 0.0003895 0)
(-0.008971 0.002472 2.261e-21)
(1 1.984e-05 -7.433e-22)
(1.115 0.3539 -1.193e-20)
(0.2248 -0.02483 6.679e-21)
(0.9896 -0.227 0)
(-0.1152 0.03067 0)
(0.7167 -0.1732 -1.803e-22)
(0.7583 -0.2864 0)
(1.029 0.008375 -6.806e-20)
(0.6818 0.2355 0)
(0.9674 -0.2377 0)
(0.8523 0.1785 1.544e-20)
(-0.1373 0.04783 -2.882e-21)
(1.021 -0.01165 1.446e-20)
(1.155 0.07672 -1.409e-22)
(0.9834 0.02017 -4.574e-20)
(0.1026 0.01313 0)
(-0.09618 0.01057 -4.754e-21)
(-0.1246 0.04083 1.052e-20)
(0.3383 -0.249 0)
(0.6069 -0.2097 3.945e-20)
(1.157 0.1736 -4.831e-21)
(0.3727 -0.06814 0)
(0.9714 -0.001051 -4.882e-20)
(-0.2368 0.08251 -1.046e-21)
(-0.07319 0.0284 -3.053e-21)
(1.122 -0.07271 8.303e-21)
(-0.07694 0.01523 -2.728e-21)
(-0.1455 0.03445 0)
(0.8049 -0.1279 3.908e-21)
(0.9489 -0.00107 -3.011e-22)
(0.9199 -0.2627 1.401e-21)
(1.004 -0.0002374 -9.86e-23)
(1.06 0.06752 2.761e-21)
(1.091 -0.1212 -1.23e-23)
(0.996 0.0008486 0)
(1.001 0.008522 -4.065e-21)
(-0.0008809 -0.002124 -2.326e-23)
(-0.1661 0.04769 0)
(0.9954 0.007529 9.471e-21)
(0.7587 -0.1081 3.09e-21)
(1.006 -0.01606 5.67e-21)
(0.5293 0.03754 -2.042e-20)
(0.9992 -0.183 0)
(1.084 -0.07561 -1.662e-20)
(1.023 -0.192 0)
(1.002 -0.00577 -1.196e-21)
(0.7299 -0.2974 -3.985e-22)
(0.4726 -0.03576 3.418e-21)
(-0.006999 -0.02181 -6.703e-22)
(-0.1937 0.04841 1.307e-21)
(1.156 0.1734 3.522e-21)
(0.3614 -0.04253 -1.875e-21)
(0.9464 -0.222 -4.667e-22)
(0.8247 -0.2375 -9.053e-21)
(1.046 -0.1661 5.378e-21)
(0.2835 -0.02037 0)
(0.5451 -0.3065 5.362e-23)
(1.039 -0.1795 1.711e-22)
(0.9981 -0.005546 0)
(-0.02324 0.0357 -1.713e-23)
(1.096 -0.1129 -4.845e-21)
(0.9678 -0.1491 -3.652e-21)
(0.0067 -0.03311 -2.596e-22)
(0.5298 -0.1268 0)
(1.003 -0.0003652 6.651e-22)
(0.9935 0.0006087 -1.863e-20)
(1.171 0.4871 6.208e-22)
(0.1347 0.02156 2.281e-21)
(0.3441 -0.03877 4.825e-21)
(1.146 0.08485 2.035e-20)
(0.8719 -0.01252 -2.123e-21)
(1.004 -0.1456 0)
(0.5343 -0.03673 -5.543e-21)
(1.054 0.02146 1.994e-20)
(0.9901 -0.2267 -2.333e-22)
(1.171 0.4857 0)
(0.1067 0.02864 -4.733e-21)
(0.9252 -0.05267 4.19e-20)
(0.03106 -0.01203 -5.317e-24)
(0.5715 -0.02265 2.515e-21)
(1.099 0.512 4.998e-21)
(-0.1991 0.07799 0)
(1.001 0.008436 2.812e-21)
(0.8975 -0.09089 -7.553e-20)
(1.003 6.382e-06 0)
(0.9993 -4.228e-06 0)
(0.865 -0.1479 0)
(0.7521 -0.2845 -2.596e-21)
(1.038 -0.1768 -1.461e-21)
(-0.1996 0.07844 -1.38e-21)
(-0.157 0.04421 -1.727e-20)
(1.096 0.01313 -3.857e-20)
(1.024 -0.1948 0)
(-0.03983 -0.001696 6.245e-22)
(-0.07504 0.0141 4.196e-22)
(0.2569 0.0436 -2.065e-23)
(0.7473 -0.1035 -2.021e-21)
(-0.1105 0.02623 -5.629e-21)
(-0.1394 0.02994 2.334e-21)
(0.3964 -0.04843 -3.107e-21)
(-0.08604 0.01418 0)
(0.4223 -0.04619 2.398e-21)
(-0.09814 0.04002 5.492e-21)
(-0.1289 0.02445 -6.743e-22)
(-0.0764 0.01427 1.916e-21)
(0.9218 0.0307 0)
(-0.1163 0.0285 -1.346e-20)
(-0.1166 0.03106 -2.108e-21)
(1.138 0.3943 -3.036e-21)
(1.004 -0.004539 4.028e-21)
(0.5529 -0.02169 0)
(-0.2308 0.07411 -1.744e-21)
(1.077 -0.07449 1.437e-21)
(0.3304 -0.03715 -3.995e-20)
(0.7189 -0.05186 0)
(0.7058 -0.05927 -3.425e-21)
(1.001 0.002008 4.392e-25)
(0.9906 0.00912 -1.471e-20)
(0.8886 0.000859 0)
(-0.08388 0.01586 4.023e-21)
(0.9568 -0.0006873 0)
(0.442 -0.09685 5.718e-20)
(1.055 0.01956 -4.333e-20)
(0.2743 -0.02976 -5.621e-21)
(0.6876 -0.04992 4.627e-21)
(1.026 -0.02194 0)
(1.123 0.07524 -4.486e-22)
(0.5138 -0.04833 3.049e-21)
(0.01001 -0.0146 2.818e-26)
(-0.2063 0.07012 -6.283e-21)
(0.9542 -0.004439 3.112e-21)
(0.2614 0.01277 -4.459e-20)
(0.1829 -0.02109 9.598e-21)
(0.4433 -0.05414 0)
(0.9446 -0.2243 -1.976e-21)
(0.9847 0.0312 0)
(0.09431 -0.007136 0)
(0.9404 0.1286 0)
(0.2321 -0.01152 0)
(-0.1544 0.05239 -8.666e-22)
(0.1547 0.01691 -1.8e-20)
(1.01 -0.004771 -3.518e-20)
(0.7932 -0.2136 0)
(-0.09452 0.03147 2.932e-21)
(0.7211 -0.185 -8.709e-23)
(0.6417 -0.0568 6.069e-21)
(0.4741 -0.0313 4.077e-21)
(0.7976 -0.2152 -7.418e-21)
(0.5313 -0.03074 0)
(0.921 0.02898 0)
(1.02 -0.01209 0)
(0.2424 -0.02027 -1.772e-21)
(1 0.003618 7.401e-21)
(-0.1346 0.03411 0)
(-0.08102 -0.01307 0)
(0.9449 0.1309 0)
(1.083 -0.1281 3.059e-21)
(-0.2241 0.07976 -7.111e-21)
(1.093 -0.1008 7.563e-21)
(1 0.0003843 -8.923e-20)
(0.7236 -0.07499 0)
(0.7446 -0.3164 0)
(0.4028 -0.05545 -3.78e-21)
(0.9796 -0.1755 -2.11e-21)
(-0.2347 0.08647 0)
(0.8458 -0.3028 0)
(-0.1407 0.02958 -3.477e-21)
(-0.1816 0.05418 -5.44e-21)
(0.3267 -0.06606 0)
(0.6979 0.07036 3.739e-21)
(0.7645 -0.3058 -1.07e-21)
(-0.23 0.08172 0)
(-0.03627 0.01276 -5.555e-21)
(-0.1418 0.04228 0)
(1.003 0.0002354 -2.685e-22)
(-0.1978 0.06736 -4.266e-21)
(0.8956 0.2229 -8.56e-21)
(0.9983 0.3837 3.302e-22)
(0.9477 -0.167 -5.743e-21)
(-0.09825 0.01035 1.535e-20)
(1.012 -0.1191 2.129e-21)
(1.003 -0.0001299 0)
(-0.1436 0.04329 0)
(-0.1265 0.02563 0)
(1.09 0.001542 9.774e-20)
(0.9826 0.1882 5.699e-22)
(1.001 0.001979 -6.434e-22)
(1.056 -0.1586 3.475e-21)
(-0.1202 0.02736 -9.963e-21)
(0.9859 -0.03699 -9.918e-21)
(1.001 -0.005824 0)
(0.9994 -0.001196 -3.2e-21)
(0.732 -0.05927 1.747e-21)
(1.086 -0.03605 -2.514e-20)
(0.7529 -0.2899 4.628e-21)
(0.9604 0.02172 0)
(0.3841 -0.02781 -2.464e-22)
(0.9917 -0.0005955 4.169e-20)
(0.4629 -0.3099 0)
(0.8675 -0.003231 -1.956e-21)
(-0.1517 -0.0106 7.635e-22)
(-0.1685 0.04987 0)
(0.5092 -0.0661 -2.242e-23)
(1.084 -0.1274 -8.878e-21)
(-0.07285 0.01379 2.491e-20)
(0.8621 0.05531 1.277e-22)
(-0.2395 0.08298 -7.62e-22)
(0.3432 -0.04062 -1.803e-21)
(-0.09531 0.008086 0)
(-0.2423 0.08597 0)
(1.018 0.1188 3.208e-21)
(1.109 -0.09509 3.539e-21)
(-0.03763 0.01595 2.748e-21)
(-0.01272 0.02884 0)
(0.3434 0.3801 -3.125e-20)
(-0.04682 0.01586 8.296e-25)
(0.9927 -0.0005203 0)
(0.9995 0.02135 0)
(-0.1079 0.02662 0)
(-0.09551 0.02541 6.866e-21)
(1 -0.0001016 0)
(-0.1958 0.06396 2.663e-21)
(1.156 0.08801 1.653e-20)
(1.099 -0.087 -2.475e-20)
(0.1593 0.02008 -8.19e-22)
(1.032 -0.08086 -7.927e-21)
(1.003 -6.19e-05 0)
(0.2987 -0.1906 -2.548e-20)
(1.154 0.08832 -1.597e-20)
(-0.1489 0.05199 -2.225e-21)
(0.02858 -0.0006167 1.547e-22)
(0.2375 -0.1267 4.317e-22)
(0.448 -0.3025 -2.665e-21)
(-0.07011 0.01391 3.7e-21)
(0.528 -0.1268 0)
(0.7454 -0.31 0)
(1.017 0.1953 -5.598e-22)
(0.09861 0.01785 -1.339e-22)
(1.008 0.002427 2.584e-20)
(0.3666 -0.033 -3.306e-21)
(0.9752 0.002441 3.765e-20)
(1.159 0.4882 2.062e-22)
(0.8617 -0.08577 2.884e-21)
(-0.07293 -0.009713 0)
(1.143 0.4074 1.488e-21)
(-0.0002899 -0.001625 0)
(-0.1773 0.05486 7.402e-21)
(0.3085 0.2279 8.212e-21)
(1.107 -0.0292 -2.541e-22)
(0.936 0.6078 3.831e-21)
(0.9971 -0.003668 -4.315e-20)
(0.2331 -0.1293 0)
(1 0.0215 -6.54e-24)
(-0.1897 0.05207 0)
(-0.147 0.05124 -3.159e-21)
(-0.0002067 -0.001175 0)
(0.0005495 -0.003117 1.33e-22)
(0.002337 -0.0008403 -4.437e-23)
(1.001 -0.0002881 -2.258e-20)
(-0.1185 0.02919 0)
(0.4651 0.1122 0)
(0.9937 0.0007949 3.663e-20)
(-0.2232 0.07971 2.682e-21)
(0.845 -0.3053 3.924e-21)
(-0.2009 0.06752 6.872e-21)
(1.064 -0.1498 0)
(-0.1691 0.04985 0)
(0.5006 -0.06151 -2.186e-21)
(-0.1954 0.0637 -2.718e-21)
(-0.02994 0.005581 1.282e-21)
(0.9982 -0.0002636 0)
(-0.125 -0.02036 -1.016e-21)
(-0.0003244 7.265e-05 0)
(0.7266 -0.2953 7.337e-22)
(0.3849 -0.0383 1.253e-21)
(-0.04721 0.01365 1.25e-21)
(1.01 -0.006081 -1.055e-20)
(1.099 -0.114 -4.513e-21)
(0.9856 -0.04313 -4.065e-21)
(-0.0001212 0.02727 5.144e-21)
(1.001 -0.002516 0)
(0.3275 -0.02445 0)
(0.5047 0.2365 0)
(-0.1174 0.03955 -4.338e-21)
(0.9994 1.23e-05 0)
(-0.1083 0.02714 -1.722e-21)
(1.071 -0.09874 -1.247e-20)
(-0.009185 -0.0001184 1.701e-25)
(0.7176 -0.3147 2.049e-21)
(0.3165 0.1035 8.853e-22)
(-0.001938 0.03032 -1.995e-21)
(0.9745 -0.004615 2.399e-21)
(-0.1963 0.06897 -2.4e-21)
(0.8238 -0.3002 -2.333e-21)
(1 -0.0001022 2.322e-21)
(0.9457 -0.2238 2.673e-21)
(0.7936 0.0822 -1.967e-20)
(0.5136 -0.04255 -2.724e-21)
(0.7345 -0.05071 2.412e-21)
(-0.08798 0.02347 -7.211e-21)
(-0.08264 0.02855 1.915e-21)
(-0.152 0.05188 1.545e-21)
(1.135 0.1867 0)
(0.7948 -0.3106 9.849e-22)
(-0.2184 0.07607 0)
(-0.1488 0.04478 2.019e-22)
(1.016 -0.0008189 -5.546e-21)
(0.256 -0.01239 6.008e-22)
(-0.1764 0.05214 -2.913e-21)
(0.3839 -0.06052 4.792e-21)
(1.072 -0.1137 -6.774e-21)
(-0.2162 0.0612 1.374e-21)
(1 0.0008476 0)
(0.9998 0.001039 1.579e-20)
(0.859 0.1712 -2.481e-20)
(-0.1073 0.02544 -2.808e-21)
(0.916 0.6365 0)
(0.9924 0.001035 -2.497e-20)
(1.003 1.066e-05 -3.919e-22)
(0.8327 -0.2912 0)
(0.6246 -0.2742 0)
(-0.2273 0.08135 2.322e-21)
(0.7443 -0.3105 0)
(-0.09056 0.03106 7.02e-21)
(-0.02246 0.007464 0)
(0.9958 -0.2134 3.266e-22)
(1.003 0.02825 0)
(1.001 -0.0002581 3.946e-21)
(-0.1308 0.04577 3.697e-21)
(-0.1917 0.06031 -2.08e-21)
(0.9892 -0.2278 -7.002e-22)
(1.003 -0.0006658 6.409e-21)
(-0.02251 0.0003821 2.947e-21)
(1.094 -0.107 0)
(-0.1435 0.03956 6.573e-21)
(0.9536 -0.003074 9.685e-21)
(0.2605 -0.03225 4.29e-22)
(0.9924 0.0007947 4.59e-20)
(-0.224 0.08 -1.148e-21)
(-0.08326 -0.01857 0)
(0.1061 0.02187 3.344e-22)
(1.001 -5.742e-06 1.633e-22)
(-0.1437 0.04843 -1.129e-20)
(-0.1365 0.04712 -6.834e-22)
(0.1082 -0.06305 -7.098e-21)
(1.003 -5.769e-05 -9.819e-22)
(1.006 -0.1577 3.065e-21)
(-0.03859 0.01279 7.393e-22)
(0.9995 -0.001242 0)
(1.083 -0.1283 0)
(0.9928 0.005726 -9.266e-22)
(0.8662 -0.05752 3.396e-21)
(0.0705 0.03063 0)
(0.9961 0.0007225 2.538e-20)
(-0.08618 0.02108 1.608e-20)
(0.569 -0.0773 1.978e-21)
(0.005609 -0.03238 0)
(-0.1099 0.0294 -6.055e-21)
(-0.01328 0.03171 -6.125e-22)
(0.4429 -0.04864 -7.189e-21)
(0.4565 -0.05539 -2.179e-21)
(0.257 -0.09965 -3.036e-20)
(0.7572 -0.07053 -1.484e-21)
(1.114 0.646 7.533e-22)
(0.7695 -0.0381 -2.707e-21)
(-0.1478 0.03756 -7.776e-22)
(-0.01515 0.005414 -1.129e-21)
(0.3178 -0.02885 1.545e-21)
(1.003 -0.0006455 0)
(0.5554 -0.1167 7.404e-22)
(0.9949 0.0007563 -1.047e-20)
(0.2703 0.06009 -2.046e-20)
(1.029 0.02291 3.199e-20)
(-0.03312 0.03235 4.079e-21)
(1.003 -0.0001518 0)
(0.9953 0.007353 2.339e-20)
(1.122 -0.07999 2.777e-20)
(0.7689 -0.3082 5.511e-22)
(-0.1525 0.03892 2.868e-21)
(1.003 -0.000328 5.747e-21)
(1.002 -0.0009129 -9.359e-21)
(-0.1451 0.04927 -2.81e-21)
(-0.02077 -0.0009373 0)
(-0.09273 0.02135 6.844e-21)
(0.3805 -0.03125 -4.466e-21)
(-0.209 0.01942 0)
(0.7525 -0.289 -3.899e-21)
(-0.1703 0.05068 -4.291e-22)
(0.7444 -0.3173 0)
(-0.07388 0.01445 -5.868e-23)
(-0.1257 0.03828 -2.738e-20)
(-0.07741 0.00761 0)
(1.003 -0.0003454 -1.026e-21)
(-0.09115 0.007655 1.134e-20)
(-0.06936 0.02302 2.114e-22)
(1.044 -0.1607 -1.415e-21)
(1.149 0.1309 0)
(1.004 -0.002257 4.817e-21)
(1.003 1.302e-05 3.573e-23)
(0.1398 0.02898 -4.597e-21)
(0.3393 -0.1929 4.533e-24)
(0.09846 0.01867 6.721e-22)
(-0.02026 0.006207 1.311e-21)
(1.028 0.0235 0)
(1.004 -2.852e-05 5.222e-23)
(-0.1807 0.05802 0)
(-0.1173 0.01489 0)
(0.9399 -0.007775 -8e-20)
(-0.09367 0.008943 -4.363e-21)
(1.041 -0.1371 0)
(0.9998 0.01676 -6.437e-21)
(-0.09455 0.02897 1.124e-20)
(0.9818 -0.228 7.643e-23)
(-0.0669 0.02282 1.331e-21)
(0.8645 -0.1764 -2.778e-20)
(0.0006124 -0.0001949 0)
(-0.06353 0.02074 0)
(-0.2423 0.08606 -6.744e-22)
(-0.2394 0.08315 1.421e-21)
(-0.1666 0.04774 0)
(-0.09448 0.02369 7.106e-21)
(0.2978 -0.04217 -9.808e-22)
(-0.08394 0.01845 0)
(0.9766 -0.03155 -7.428e-21)
(-0.09119 0.01012 5.111e-21)
(-0.0325 -0.01272 0)
(-0.1336 0.03419 -3.027e-21)
(1.002 -0.0006507 2.129e-20)
(0.836 -0.1302 -2.799e-21)
(0.8818 -0.2347 0)
(0.5892 -0.02992 -2.666e-20)
(0.9994 -4.726e-07 4.056e-23)
(1.002 -0.0006757 -2.837e-20)
(0.0003485 -0.01227 0)
(1.108 -0.02694 -8.06e-21)
(0.6081 -0.1134 1.763e-21)
(-0.08037 0.01141 -3.454e-22)
(0.6036 -0.3318 0)
(-0.02429 0.03515 9.366e-21)
(1.137 0.2013 0)
(0.3363 -0.02859 1.898e-21)
(0.7091 -0.04045 4.2e-20)
(0.7253 -0.1967 0)
(1.008 0.00219 -9.368e-21)
(1.003 -0.0003798 0)
(1.117 0.3725 0)
(0.904 0.2248 0)
(-0.09168 0.01819 9.354e-22)
(0.5965 -0.04114 0)
(0.4376 -0.1803 2.323e-21)
(-0.2184 0.05174 0)
(0.7005 -0.29 -1.864e-21)
(1.161 0.01163 1.13e-19)
(0.3804 -0.03814 5.939e-20)
(1.002 3.525e-05 -9.698e-23)
(0.4235 -0.02783 -1.229e-21)
(1.034 -0.07995 -1.231e-21)
(0.6763 -0.1581 3.081e-22)
(-0.0005137 -0.002384 2.27e-23)
(1.05 -0.1616 1.023e-21)
(0.1411 0.02084 -8.451e-21)
(-0.2056 0.07009 6.338e-21)
(1.001 4.334e-06 -1.53e-22)
(1.041 -0.1111 1.208e-22)
(0.6904 -0.05911 -4.012e-21)
(-0.03647 0.01256 0)
(-0.1125 -0.03703 8.031e-21)
(-0.05745 0.02925 2.827e-21)
(-0.0736 0.01522 -8.938e-22)
(0.8352 0.7022 0)
(-0.1817 0.05418 5.218e-21)
(0.6248 -0.3325 3.607e-21)
(-0.1806 0.0506 -1.667e-21)
(0.7684 -0.1886 -5.543e-23)
(1.007 -0.1073 3.43e-21)
(1.097 -0.1131 2.29e-21)
(-0.1753 0.06242 2.806e-21)
(1.02 -0.1724 -3.017e-21)
(0.002516 -0.0001505 0)
(0.8794 -0.236 0)
(0.9411 0.02876 3.349e-20)
(0.9642 -0.2184 2.943e-22)
(0.7657 -0.3252 3.218e-21)
(0.8705 -0.08999 -8.894e-22)
(1.005 -6.27e-05 0)
(-0.05888 -0.01136 -3.824e-22)
(-0.09089 0.04064 -1.096e-20)
(-0.2275 0.08162 -2.158e-21)
(1.004 -1.128e-05 -1.207e-22)
(-0.01982 0.007335 0)
(-0.1479 0.04521 0)
(0.263 -0.03579 7.234e-21)
(1.003 4.472e-05 5.557e-22)
(-0.07987 0.01751 8.462e-21)
(-0.1811 0.05379 0)
(-0.1238 0.02463 9.512e-21)
(-0.1091 0.005707 -2.644e-21)
(1.002 -1.769e-05 -4.764e-22)
(-0.2209 0.07996 -3.626e-21)
(-0.02141 0.0002516 0)
(-0.08185 0.02304 1.341e-20)
(-0.1158 0.03038 0)
(0.989 0.00991 -5.895e-21)
(-0.03875 -0.00268 5.707e-22)
(0.1093 0.02994 0)
(1.015 0.003675 -1.08e-20)
(1.031 -0.1877 -1.586e-21)
(1.004 -0.2006 0)
(-0.09466 0.02413 -6.818e-21)
(-0.178 0.05496 0)
(0.9463 -0.2205 -1.599e-21)
(1.048 -0.1616 0)
(0.1944 -0.0229 1.226e-21)
(-0.137 0.04358 0)
(0.9999 -1.372e-05 -4.226e-22)
(-0.2214 0.08009 3.438e-21)
(-0.1978 0.07953 5.517e-22)
(0.2301 -0.01876 0)
(0.4381 -0.06326 2.9e-21)
(1.132 0.1525 0)
(-0.2222 0.07912 0)
(-0.08793 0.03052 4.853e-22)
(0.9997 5.369e-06 2.313e-22)
(-0.2034 0.06868 -6.473e-21)
(-0.09573 0.02864 0)
(0.02345 0.007979 0)
(0.000804 -0.01359 -2.543e-23)
(0.02932 0.007874 -6.11e-22)
(-0.1191 0.04057 6.654e-21)
(-0.1322 0.02957 -6.312e-22)
(-0.18 0.03593 0)
(0.9891 -0.2198 0)
(1.001 -0.0002741 1.102e-20)
(0.0001474 -5.79e-05 -1.668e-23)
(-0.1763 0.05319 6.883e-21)
(-0.1095 0.02965 5.343e-21)
(-0.09987 0.0357 2.298e-21)
(-0.2412 0.0868 -4.615e-21)
(-0.1968 0.0691 9.102e-21)
(-0.1771 0.05827 -3.02e-21)
(0.5959 -0.04596 0)
(1.001 -0.0002422 0)
(-0.1014 0.009666 0)
(1.084 -0.1284 -1.46e-23)
(1.002 -7.636e-07 0)
(-0.1549 0.04912 -1.1e-20)
(1.158 0.4868 0)
(0.9845 -0.1504 2.553e-21)
(0.8589 -0.2995 -1.145e-21)
(1.003 -3.195e-05 -3.87e-21)
(-0.1694 0.0506 0)
(-0.1021 0.008817 0)
(1.008 0.002439 -3.008e-20)
(1.003 -3.575e-05 0)
(1.142 0.1276 0)
(-0.1748 0.07592 4.195e-21)
(-0.2094 0.02087 -1.912e-21)
(-0.2019 0.07105 3.982e-21)
(-0.2257 0.08099 3.203e-21)
(0.05746 -0.001005 2.292e-23)
(1.076 -0.1375 0)
(0.7321 -0.1801 -2.232e-20)
(1.002 -0.0006814 0)
(-0.2042 0.06687 -3.177e-21)
(-0.2348 0.08322 0)
(0.5099 -0.03143 -2.923e-21)
(0.3152 -0.02586 0)
(0.726 -0.2451 -1.404e-20)
(1.004 -0.0001865 0)
(1.01 -0.005745 1.672e-21)
(0.9992 0.01227 2.167e-20)
(-0.02155 -0.000256 3.135e-21)
(1.002 -0.0006373 3.743e-21)
(1.158 -0.003659 -4.538e-20)
(0.3817 -0.2324 8.238e-22)
(1.036 -0.1307 5.058e-21)
(0.2177 -0.03353 -4.585e-21)
(1.002 -0.0008738 0)
(-0.1293 -0.003052 -1.13e-21)
(1.034 -0.1239 -3.101e-21)
(1 0.004548 0)
(0.4029 -0.04893 3.03e-21)
(1 -0.000125 0)
(0.6708 -0.3352 5.015e-21)
(0.03768 -0.03694 -6.192e-21)
(-0.07099 0.008517 -1.366e-22)
(0.371 0.03295 0)
(0.1801 -0.008379 7.386e-22)
(1.005 -0.004904 -3.446e-22)
(-0.0831 0.02234 0)
(0.8576 -0.1859 -7.332e-21)
(0.3356 -0.02622 0)
(-0.01673 -0.01569 -1.031e-21)
(0.3113 -0.03946 1.524e-21)
(0.594 0.8156 -1.231e-21)
(1.131 0.1539 -6.484e-21)
(1.023 -0.181 1.674e-21)
(0.7925 -0.2758 6.193e-23)
(0.06094 -0.005553 0)
(0.9988 0.005294 0)
(0.4507 0.02866 1.34e-20)
(0.6383 -0.2065 0)
(0.5017 0.1416 2.698e-22)
(-0.03214 -0.01207 2.704e-22)
(0.1259 -0.02624 0)
(1.003 -0.0001732 0)
(1.105 -0.09278 4.037e-20)
(-0.1293 0.04462 -1.802e-21)
(0.2367 -0.054 9.905e-22)
(-0.0159 0.0004432 1.249e-20)
(0.8313 0.2137 0)
(0.01427 -0.01448 -1.318e-21)
(0.3478 0.09494 -1.165e-21)
(-0.011 -0.0009017 3e-21)
(-0.1459 0.036 -3.574e-21)
(-0.1084 0.03792 4.602e-21)
(-0.09275 0.01062 5.066e-21)
(0.1032 -0.007507 2.481e-21)
(0.9955 0.03284 2.124e-21)
(0.947 -0.1378 0)
(1.003 1.977e-05 0)
(1.001 -1.363e-05 0)
(-0.06795 0.02931 2.13e-21)
(1.029 0.04157 8.495e-22)
(-0.0862 0.0003625 3.261e-21)
(-0.2058 -0.06255 -2.331e-20)
(0.2791 0.3853 0)
(1.108 -0.1016 -1.792e-20)
(1.048 -0.02939 -2.526e-20)
(1.163 0.5009 1.956e-21)
(0.9493 -0.2181 -4.375e-22)
(1.01 -0.004718 2.467e-20)
(0.06035 0.02987 1.69e-22)
(-0.2291 0.08113 -1.344e-21)
(1.045 -0.02782 3.419e-20)
(-0.08607 0.02002 -1.731e-20)
(-0.01497 0.005403 -2.586e-21)
(-0.06489 -0.02115 0)
(1.013 -0.2051 0)
(0.1446 -0.1183 -1.063e-20)
(-0.02278 0.02294 0)
(-0.1813 0.06361 0)
(0.9974 -0.0022 1.783e-20)
(-0.06995 -0.009692 1.472e-21)
(0.687 -0.1611 -2.853e-22)
(1.004 -0.004389 0)
(-0.09061 0.02264 8.062e-21)
(-0.1784 0.05306 0)
(-0.1502 0.06834 -2.026e-21)
(1 -8.789e-05 1.038e-21)
(0.8604 -0.000474 3.773e-21)
(0.1673 0.02155 0)
(0.04154 -6.499e-05 4.64e-23)
(0.8646 -0.282 -2.752e-21)
(-0.01478 0.004936 0)
(-0.1876 0.05997 2.719e-21)
(0.752 -0.3205 0)
(0.979 -0.217 1.145e-22)
(-0.02628 0.008921 0)
(-0.1048 0.01202 2.925e-21)
(1.001 -5.609e-06 -1.042e-22)
(0.3133 -0.1845 0)
(1.075 0.3053 -6.895e-21)
(1.003 1.952e-05 0)
(0.7814 -0.2933 1.05e-22)
(0.003442 -0.00137 1.98e-22)
(0.2348 0.01527 -5.176e-21)
(-0.03478 -0.0003476 -1.339e-20)
(1.159 -0.05531 7.62e-21)
(1.053 -0.1609 9.801e-22)
(-0.01193 0.003847 2.03e-25)
(0.03364 -0.003626 -5.093e-22)
(0.6044 -0.06548 0)
(1.002 0.02783 3.395e-22)
(0.9977 0.001702 6.042e-21)
(1.023 -0.1955 0)
(0.7101 -0.3056 -1.143e-21)
(-0.2047 0.07028 -1.23e-20)
(-0.09459 0.02192 0)
(0.2959 0.5826 -1.002e-20)
(0.3804 -0.1581 -1.408e-21)
(0.517 0.003553 -2.083e-22)
(1.096 0.1379 -1.453e-20)
(0.3732 -0.1547 -1.373e-21)
(1.104 0.0179 4.117e-20)
(-0.03647 0.002952 0)
(1.004 0.0005592 0)
(-0.2373 0.08676 3.56e-22)
(0.007923 -0.0365 -7.91e-23)
(-0.08897 0.02549 -4.888e-21)
(-0.1384 0.04009 0)
(-0.1932 0.06086 0)
(0.9971 0.0001755 -1.673e-20)
(0.9876 -0.005401 1.114e-20)
(-0.117 0.04076 0)
(0.9623 -0.1918 2.925e-21)
(-0.2072 0.07165 0)
(0.6549 -0.08313 0)
(-0.1696 0.06107 -5.688e-21)
(-0.2309 0.06836 -1.66e-21)
(0.2184 0.0268 -7.1e-22)
(0.008647 0.01319 -3.547e-21)
(-0.1127 0.01471 -9.555e-21)
(0.0575 -0.01032 -3.007e-21)
(-0.05123 0.01598 -1.372e-21)
(0.4431 -0.03073 2.215e-21)
(-0.0838 0.02535 1.159e-20)
(1.081 -0.1303 -6.509e-21)
(-0.2294 0.08264 4.43e-21)
(0.3846 0.7636 1.609e-21)
(-0.1978 0.06968 -2.43e-22)
(0.008171 -0.03875 3.888e-22)
(0.0002266 -0.0002687 0)
(-0.1942 0.06115 0)
(1.004 -5.498e-05 0)
(1.004 -0.001345 1.463e-20)
(-0.2167 0.07922 2.577e-21)
(-0.2357 0.07821 0)
(1.044 -0.1639 9.013e-21)
(1.002 1.59e-05 0)
(0.7135 -0.3202 -3.322e-21)
(-0.1702 0.05043 2.228e-21)
(1.13 -0.07359 -2.27e-20)
(-0.1784 0.06197 0)
(0.2058 0.0301 -8.874e-21)
(-0.1182 0.03778 -1.281e-20)
(1.013 0.5115 -6.653e-21)
(0.9999 0.0003736 -5.555e-20)
(1.024 -0.1696 0)
(1.148 -0.03819 -1.372e-20)
(0.2438 -0.09662 0)
(0.2886 -0.02162 0)
(-0.1581 0.04283 4.266e-22)
(0.7593 -0.2236 1.176e-20)
(0.4521 0.02978 2.491e-20)
(-0.08277 0.01596 0)
(0.6217 -0.05493 -1.27e-21)
(1.125 -0.08523 0)
(-0.2122 0.0589 0)
(0.7225 -0.3267 3.67e-21)
(0.8598 -0.09922 3.32e-21)
(-0.2294 0.08126 0)
(0.367 -0.1591 -1.789e-21)
(1.006 -0.006768 -7.953e-22)
(-0.01747 0.00616 0)
(-0.0137 0.004291 0)
(-0.1956 0.07889 0)
(-0.1026 0.02963 8.426e-21)
(0.1165 -0.0933 -1.705e-20)
(0.9987 0.01138 2.148e-21)
(-0.01057 0.002699 4.675e-21)
(0.06261 -0.0141 0)
(1.001 -0.0001176 0)
(1 -4.942e-05 -7.729e-21)
(-0.08184 -0.008922 1.049e-24)
(-0.1514 0.03919 8.779e-21)
(0.001468 -0.0006359 -1.991e-22)
(-0.02038 -0.01967 3.106e-22)
(0.9616 -0.1397 -6.831e-22)
(0.7029 -0.2612 0)
(-0.1183 0.03941 -1.282e-20)
(1.032 -0.1656 0)
(1.07 -0.1334 0)
(1.008 -0.004029 9.298e-21)
(-0.1011 0.03378 -2.003e-20)
(-0.1318 -0.04107 0)
(-0.1491 0.05094 -1.131e-20)
(1.009 -0.2035 0)
(-0.01437 0.003065 8.374e-22)
(-0.2311 0.08233 -6.597e-21)
(1.002 -0.00057 -3.991e-22)
(0.06167 -0.009725 0)
(-0.1844 0.0593 -3.099e-21)
(1.001 -0.0006561 -3.391e-20)
(-0.07222 0.01481 -5.633e-21)
(1.002 -0.0001207 -3.198e-21)
(0.9987 -0.002774 1.271e-20)
(1.067 -0.1437 1.925e-21)
(1.013 -0.1473 0)
(-0.02103 0.003065 -1.728e-20)
(1.001 -0.001202 3.059e-21)
(0.4081 -0.04804 -3.602e-22)
(1.002 0.003698 0)
(1.161 0.5065 0)
(1.022 -0.1338 5.686e-21)
(0.04422 0.009739 5.421e-21)
(1.091 -0.1215 -4.712e-21)
(0.5368 -0.106 -2.587e-22)
(0.5815 -0.08324 0)
(-0.08716 0.02558 2.756e-20)
(1.073 -0.1179 6.727e-21)
(1.002 -0.001418 3.241e-21)
(1.025 0.009702 4.253e-20)
(-0.08341 0.02525 2.498e-21)
(0.849 -0.1564 6.54e-22)
(-0.1967 0.06883 -1.041e-21)
(-0.1225 0.04034 0)
(0.1545 -0.009868 1.193e-25)
(-0.09799 0.03228 -7.484e-21)
(-0.009111 0.003037 -1.985e-20)
(-0.111 0.02891 8.217e-21)
(0.7104 -0.2003 0)
(-0.06256 -0.0008144 -2.551e-20)
(0.5301 -0.05692 -6.676e-22)
(0.1961 -0.02611 0)
(0.803 0.3204 5.169e-21)
(-0.05464 0.0221 0)
(1.003 -0.004563 2.484e-21)
(-0.1114 0.02266 2.096e-20)
(-0.0639 0.001349 5.905e-22)
(0.3125 -0.05153 0)
(0.9976 1.669e-05 4.096e-21)
(0.4722 -0.3129 4.534e-21)
(-0.164 0.05272 0)
(0.9798 -0.09199 5.154e-22)
(0.9265 -0.2567 9.385e-23)
(-0.08047 0.00867 -2.857e-22)
(1.08 -0.1289 -5.772e-21)
(-0.07226 0.0159 0)
(-0.1026 0.04307 2.32e-21)
(0.9845 -0.09281 1.54e-21)
(-0.1484 0.04694 -8.054e-23)
(0.5259 -0.1449 -4.603e-22)
(-0.01533 -0.01659 1.127e-21)
(1.002 -0.0002498 0)
(1.14 -0.07618 -5.206e-21)
(-0.111 0.02134 0)
(1.004 -0.005974 0)
(-0.1325 0.02854 0)
(-0.1076 0.01244 1.83e-21)
(0.9995 -1.049e-05 1.303e-21)
(0.9996 -0.2104 -1.019e-21)
(-0.07004 0.01389 0)
(1.04 -0.01691 0)
(0.8194 0.3237 -2.092e-20)
(0.01887 0.01985 0)
(0.02826 -0.01394 0)
(1.043 -0.1425 -9.223e-21)
(1.003 1.633e-05 -9.959e-23)
(-0.1317 0.03139 -1.99e-22)
(-0.1386 0.04093 -5.239e-22)
(1.009 -0.0008734 1.994e-20)
(0.8723 0.2935 1.118e-20)
(1.025 0.0798 3.95e-21)
(-0.1734 0.05203 3.394e-21)
(-0.1184 0.03197 -8.919e-21)
(1.039 -0.1784 -2.05e-21)
(1.047 -0.02368 0)
(-0.02742 0.005335 -6.197e-22)
(-0.003286 0.001076 7.195e-22)
(0.5762 -0.1224 3.549e-23)
(0.7096 -0.1131 -2.024e-21)
(-0.1942 0.06751 -1.769e-21)
(0.1026 -0.008188 0)
(0.9924 -1.936e-05 -4.112e-21)
(0.8049 -0.08559 3.657e-21)
(1.002 0.004885 5.291e-23)
(-0.1961 0.06157 0)
(0.6574 -0.3089 -3.678e-21)
(-0.1297 0.02612 0)
(0.9254 -0.2558 8.158e-22)
(0.002991 -0.01549 -6.802e-22)
(-0.02245 0.003718 0)
(0.9993 0.00151 -1.325e-20)
(-0.00448 0.00165 0)
(-0.05754 0.01902 0)
(-0.06377 0.01835 7.908e-21)
(1.066 -0.08913 5.195e-21)
(0.7636 0.2583 0)
(-0.1285 0.04897 -2.156e-21)
(-0.08071 -0.03099 8.271e-21)
(0.2625 -0.01912 0)
(1.014 -0.1409 0)
(0.8915 -0.01465 -7.533e-20)
(0.01609 -0.0008311 7.145e-22)
(-0.233 0.07827 1.43e-21)
(0.6509 -0.04507 0)
(0.4368 -0.09262 1.015e-21)
(0.8029 -0.1228 0)
(0.5383 -0.3239 -7.386e-21)
(0.004295 -0.01422 2.625e-21)
(-0.06933 0.02421 3.455e-22)
(0.9805 -0.1671 -4.885e-22)
(-0.1974 0.06694 0)
(0.3532 0.038 0)
(0.5014 -0.06089 3.215e-21)
(0.5732 -0.05867 -2.291e-21)