/*--------------------------------*- C++ -*----------------------------------*\
  =========                 |
  \\      /  F ield         | OpenFOAM: The Open Source CFD Toolbox
   \\    /   O peration     | Website:  https://openfoam.org
    \\  /    A nd           | Version:  8
     \\/     M anipulation  |
\*---------------------------------------------------------------------------*/
FoamFile
{
    version     2.0;
    format      ascii;
    class       volScalarField;
    location    "25";
    object      k;
}
// * * * * * * * * * * * * * * * * * * * * * * * * * * * * * * * * * * * * * //

dimensions      [0 2 -2 0 0 0 0];

internalField   nonuniform List<scalar> 
127143
(
1.048e-14
1.265e-13
8.99e-13
4.586e-12
2.808e-12
4.839e-12
5.898e-11
1.454e-11
6.947e-12
5.388e-12
1.416e-10
1.79e-11
6.186e-12
7.899e-12
2.407e-05
1.585e-10
4.668e-12
0.06017
0.02642
1.943e-08
0.001539
1.23e-07
0.0001538
6.362e-06
1.11e-07
1.372e-07
3.252e-09
3.343e-09
1.125e-07
0.06368
2.108e-06
1.323e-07
3.763e-08
4.02e-07
0.0001508
3.687e-08
0.002757
0.01427
1.275e-05
7.553e-08
0.02656
0.000153
0.0001525
4.642e-11
0.05862
4.897e-07
1.151e-07
0.009854
8.158e-06
1.011e-05
3.705e-10
0.0001493
0.0005234
0.0001539
0.0001395
2.892e-06
0.0001394
0.0001655
0.000147
0.0001538
0.0001527
0.01406
5.082e-05
0.0001482
5.775e-07
0.0001585
0.000151
4.446e-05
4.5e-05
0.000232
4.524e-06
7.136e-09
0.02596
0.000147
0.0001458
7.116e-09
0.0001473
0.001954
2.868e-06
0.000149
9.03e-08
1.848e-08
3.287e-06
1.672e-07
0.02272
0.003004
2.134e-05
1.776e-08
0.0001572
4.144e-05
0.0001468
0.0004524
7.974e-05
0.001576
0.0001322
0.0001721
0.0001528
8.022e-07
0.002738
0.0001509
0.0001489
9.406e-06
8.001e-06
0.0001125
0.003318
0.002567
3.689e-05
0.0002329
0.000167
0.0001424
3.159e-05
1.594e-08
0.0005819
0.000167
0.0001455
0.0001513
0.0001474
0.0001459
0.0001472
9.381e-09
0.0001425
3.786e-06
7.038e-05
0.0001623
1.06e-07
3.651e-08
0.00759
0.0001484
3.946e-05
2.372e-06
0.0004114
0.0001018
6.544e-05
0.002074
1.499e-10
0.000455
0.0001553
0.003191
3.054e-07
0.0001532
0.0001543
0.0001467
0.00314
0.007284
0.000563
0.0001544
3.968e-07
0.0001483
8.75e-05
3.304e-06
8.781e-05
1.148e-05
0.007635
0.0001517
0.0001154
0.02284
0.0001656
1.929e-06
0.01014
6.004e-07
5.193e-06
4.794e-10
0.0001468
0.0004211
3.184e-07
9.404e-07
0.001281
0.0001555
2.075e-06
0.0001488
0.0001284
0.00724
0.0001426
9.393e-05
0.0006774
0.01245
0.0001774
4.092e-05
1.011e-05
0.0001558
9.473e-05
0.0001549
0.01331
0.01275
2.738e-06
0.01447
0.0001512
0.0001661
8.44e-06
0.0001547
0.0003159
4.374e-05
0.0001549
0.0001909
8.007e-11
0.006177
0.0001288
0.0001281
1.883e-09
0.0001457
0.0001452
0.0001489
0.004247
0.00337
3.51e-11
3.153e-05
0.0001529
7.988e-05
0.05584
0.0001455
0.0001639
0.02158
0.0001447
2.318e-06
0.0001411
4.442e-10
1.47e-05
8.239e-05
0.0002825
0.0001529
0.0001816
0.0001462
1.077e-05
0.0006142
3.902e-07
8.36e-05
7.352e-07
0.01379
0.0003305
0.005327
0.001316
0.0001547
0.02633
1.031e-07
0.00136
0.000157
0.0004175
2.185e-13
0.0001452
0.0007573
5.057e-05
9.636e-07
0.01444
2.076e-06
0.001497
1.115e-08
2.182e-05
2.889e-09
5.199e-09
0.0002812
0.0001654
1.814e-07
7.767e-05
0.003487
6.363e-06
0.000169
0.0001484
5.393e-06
0.0001336
0.0001506
0.006094
0.0001515
0.0002206
0.0001466
0.0003975
8.112e-07
5.21e-05
6.909e-05
0.0001549
0.0001178
5.864e-07
0.0006692
0.01354
0.0007265
6.469e-05
0.0003553
0.0006161
1.428e-05
0.001274
0.0001535
0.0002335
0.0001854
0.0001133
0.0001455
0.0001454
7.387e-11
0.0002252
0.0001455
1.266e-05
0.0001564
0.007673
0.0001577
0.0001569
0.0001339
0.0001451
0.0001747
2.762e-06
0.002264
0.01436
0.0001223
9.969e-07
0.0001596
0.0001546
0.0001549
2.992e-07
0.0001345
8.03e-05
0.0001448
0.02207
7.308e-05
3.334e-05
0.0003111
1.821e-06
0.0002036
0.0001453
5.612e-05
0.01121
8.713e-07
0.0001577
0.00627
0.0001536
3.308e-06
0.0001511
7.7e-05
5.276e-05
0.006183
0.00015
0.00434
4.698e-06
0.0001838
0.01079
0.0001454
0.0001508
0.0001289
0.0001282
0.0001516
0.0001673
0.0001429
0.01084
0.0001428
0.0001533
8.195e-05
0.0008975
0.0003964
0.000174
1.199e-05
1.352e-05
0.0003389
1.353e-06
1.492e-05
1.743e-06
0.02598
0.01035
0.0003645
0.0001492
1.834e-05
0.00337
0.0001612
0.0001484
4.762e-06
0.01696
5.635e-05
0.05249
1.108e-05
1.124e-05
0.0001468
0.0001456
0.003899
3.593e-06
0.001282
0.0001551
0.0001512
3.83e-07
9.793e-06
0.000154
0.0001533
3.48e-06
3.871e-07
0.004008
0.001332
0.04963
8.394e-08
1.98e-06
0.0001594
0.0001474
3.534e-09
0.0001501
9.812e-08
0.005703
0.03056
0.000146
0.0001531
0.0002174
6.605e-06
8.256e-06
2.091e-06
0.0001532
2.94e-06
0.0001492
0.0001513
1.678e-07
0.0001462
0.001923
0.01394
0.0001501
7.769e-05
0.003927
6.565e-05
0.000149
1.26e-05
0.0001348
1.126e-06
0.0001544
0.01024
8.293e-05
0.0001476
0.00103
3.53e-07
0.0008128
1.769e-05
0.001456
4.448e-07
7.46e-05
0.0002344
0.005087
0.0001507
0.0001523
0.0001527
1.367e-06
0.0001529
0.0001412
7.935e-05
0.008691
0.002281
0.0001017
0.0001468
7.46e-05
2.047e-05
0.0001492
0.0001451
0.0001453
1.303e-05
0.0001554
0.0001713
0.000148
9.973e-07
0.0001453
4.474e-05
0.004193
0.02158
0.001658
3.338e-06
8.241e-05
2.598e-06
0.00015
0.005184
8.326e-07
1.873e-06
0.005136
0.0001654
6.826e-05
0.0001473
0.01638
0.0001562
0.0001321
0.0005208
0.0001462
0.001985
1.045e-05
0.0001386
0.003798
0.0001584
0.0001624
0.01178
0.0001527
0.0001347
0.000144
0.0001565
0.0001259
0.001671
1.267e-07
5.301e-05
1.615e-05
1.981e-06
0.0001608
0.0001012
0.002665
0.0001447
1.008e-06
0.0001467
8.934e-05
2.498e-05
0.0003269
0.0001481
3.375e-10
0.0003131
0.0001563
0.0001598
0.0001595
0.0001448
1.164e-07
0.0001462
0.01106
0.006641
2.811e-12
1.53e-09
6.194e-09
0.000147
2.062e-05
5.067e-05
0.0001453
0.0163
5.386e-05
0.0007143
0.000113
0.001541
3.198e-06
0.003836
5.26e-08
0.0004509
0.01984
2.857e-08
1.186e-05
1.162e-06
0.0001764
0.0001467
9.085e-05
0.002441
0.01778
0.0001458
5.904e-07
1.001e-06
0.0001765
0.0001304
0.001946
0.0001566
6.992e-05
0.0001517
1.055e-06
0.02114
0.0001468
0.0003785
0.0001466
0.0001387
0.0001595
0.0004551
3.638e-06
1.184e-05
7.776e-06
1.227e-05
0.006012
0.000106
2.466e-05
0.001178
9.501e-05
0.0001462
1.371e-07
0.0004093
8.333e-07
5.956e-05
0.01402
0.0001483
0.0001479
0.0001505
1.161e-05
0.0001652
0.0001453
0.000144
0.0001662
5.023e-06
0.004165
0.00016
1.263e-05
1.865e-07
0.0001576
0.0001469
0.0001426
0.0001419
0.002419
5.147e-05
0.0001589
6.433e-09
6.664e-05
7.301e-05
0.001309
2.91e-07
0.0001453
0.004368
0.0154
0.03043
0.0001371
8.602e-05
0.006138
7.331e-09
0.0001346
3.911e-05
1.616e-05
0.0001453
7.799e-05
0.0001455
2.34e-05
0.004121
0.0001455
4.838e-06
4.118e-06
0.0004428
0.0002069
0.004106
2.117e-06
2.281e-06
0.0001995
1.584e-05
9.623e-05
1.234e-05
0.007553
0.000308
5.337e-07
0.0001496
2.319e-06
0.0001454
0.0001664
0.0001484
0.003405
0.0001413
0.0001455
0.0001633
1.879e-05
0.0007102
0.0001384
0.0001412
0.000424
1.416e-07
6.581e-06
1.18e-06
0.02306
0.0001707
0.00173
0.0001292
0.0004284
4.505e-05
2.773e-07
0.0001386
4.415e-06
0.0006548
0.000165
0.0001384
0.000147
0.0001438
0.006272
5.926e-07
0.002711
1.215e-06
0.0001484
0.0001505
0.0003439
6.043e-06
0.0001489
1.003e-06
0.0001564
0.0001638
1.76e-05
0.0001306
0.0007164
0.0001521
7.82e-11
0.0001096
0.005342
0.005074
0.0002402
6.714e-05
5.029e-07
1.797e-05
0.0001487
6.636e-05
0.00276
0.002076
0.0001416
1.601e-05
0.0001558
0.0001519
0.0001303
0.0001415
3.641e-07
0.0001599
4.195e-06
5.84e-05
6.165e-05
0.02189
0.0001579
6.18e-07
0.0001512
6.87e-06
0.0001446
0.0001393
0.0001685
0.0001508
5.456e-06
0.0001519
8.175e-07
0.021
8.93e-06
0.0001601
0.05207
0.0001485
1.193e-06
0.0001528
5.311e-06
1.609e-10
6.088e-05
0.0004116
0.004328
0.0001392
5.202e-05
1.144e-05
5.813e-07
0.03635
0.0105
0.0004407
4.879e-06
0.0009994
1.912e-05
0.02242
9.47e-06
4.445e-05
7.332e-05
0.007864
0.0001602
1.617e-14
0.0001557
0.0001487
3.292e-05
6.014e-05
2.493e-05
0.000144
0.008414
0.02629
0.004298
0.0001549
1.019e-06
9.548e-05
2.774e-07
0.0001683
1.396e-05
0.006276
2.604e-05
2.587e-05
0.0001564
0.005849
0.0003055
6.325e-06
0.00319
0.0001457
0.0009057
0.0001589
0.0001458
7.989e-05
0.0001661
7.954e-05
0.0003274
0.0001585
6.049e-05
1.036e-07
7.863e-05
0.0001278
0.005807
0.01694
1.247e-07
1.505e-06
0.0001544
0.01661
1.649e-05
0.0001283
0.0008146
1.857e-05
0.001933
1.977e-07
0.001982
0.000204
0.0008828
0.01674
0.0001536
0.0001469
3.228e-11
0.0003468
0.0002471
3.161e-05
0.006164
0.0003232
0.0002635
6.376e-06
0.0001424
0.02896
0.0001124
0.0001517
0.0001319
9.051e-05
3.607e-05
7.004e-05
0.0001364
0.001912
0.01105
0.0001447
0.000136
0.000139
0.01419
0.02298
0.0004109
0.004668
1.505e-09
9.804e-05
0.0001524
0.0001418
0.001689
0.001927
2.615e-06
4.644e-07
0.000155
0.0002011
0.0001464
0.002348
6.544e-09
0.0001419
0.0001598
1.483e-06
5.042e-05
1.174e-07
0.0001493
0.01912
4.874e-05
0.0001459
1.431e-06
0.0001416
5.632e-05
1.232e-06
1.886e-05
0.0006024
3.829e-08
0.0001463
6.525e-06
0.0001523
6.982e-07
0.001225
5.842e-07
4.519e-06
0.0001543
0.0001654
0.0001634
8.594e-10
0.0001457
0.02167
3.922e-06
8.806e-06
0.002565
1.616e-08
0.0001966
0.0002182
0.0001353
9.236e-08
8.046e-10
4.781e-05
4.254e-10
1.205e-05
1.652e-10
0.0001035
4.139e-05
0.02942
5.738e-09
0.0001472
3.006e-05
0.0001365
0.0001355
0.002536
0.0001494
8.521e-05
0.03319
0.0001644
0.0001506
0.0001549
3.893e-05
3.01e-05
0.0001459
0.03607
0.001862
0.0001548
4.276e-06
1.577e-08
0.01436
8.988e-05
2.86e-05
0.01101
0.0002198
0.000145
0.0003471
5.737e-06
0.000148
6.816e-06
0.0004418
0.01434
0.0001379
0.007027
0.04606
7.146e-10
0.0001638
1.491e-08
0.003401
0.0001077
3.832e-05
9.76e-06
2.365e-06
0.000132
4.703e-07
0.0001529
0.000133
0.0001739
9.525e-08
0.04312
3.095e-06
8.411e-05
0.0001376
4.05e-06
9.424e-11
6.295e-06
0.0001468
0.0001461
8.789e-05
0.0001734
0.0005612
6.879e-06
0.0001939
5.189e-07
0.003273
0.0001519
4.524e-07
0.0001534
1.522e-08
0.0001444
0.008389
0.0001974
0.003987
6.423e-05
0.002456
0.0001457
0.0001457
4.911e-05
0.0001547
0.001099
7.591e-06
0.0001853
0.01737
0.002469
2.386e-05
6.799e-06
8.763e-10
0.000942
1.524e-06
9.905e-06
8.03e-05
0.01465
0.000193
0.0003249
9.402e-05
3.027e-07
0.002317
0.000144
0.0001429
0.006867
0.00933
0.0001647
0.0001391
0.0001282
0.001684
0.0001622
0.00019
0.005228
4.098e-05
0.0001567
0.000149
0.0001607
0.0001631
8.256e-08
3.418e-07
0.006784
0.0001535
0.0264
4.256e-06
7.325e-06
7.005e-05
0.02067
9.08e-05
2.387e-05
0.001349
4.317e-07
0.0001485
1.094e-07
9.211e-06
0.01724
0.0002316
2.351e-05
0.0001455
2.782e-09
1.038e-09
0.0001368
0.0001441
0.0002288
0.0009048
4.702e-08
0.002264
3.156e-05
7.994e-06
4.222e-05
0.0001624
0.0001647
0.0001478
2.432e-05
0.02143
0.0001066
0.0001489
4.305e-05
0.002764
0.0001527
1.131e-09
0.003172
0.0001453
1.915e-05
0.0001431
0.0001447
6.992e-05
0.0001543
1.307e-09
0.0001442
1.525e-06
0.000146
7.993e-05
0.000154
0.03778
9.802e-05
2.36e-06
4.601e-06
1.468e-05
6.065e-05
0.0002042
0.0001553
0.004106
1.484e-05
0.0003367
4.874e-05
2.494e-08
2.268e-05
5.694e-09
0.0001687
6.222e-06
1.661e-06
4.172e-06
1.054e-07
0.0001513
0.02999
0.0001745
1.264e-05
0.004904
4.003e-07
0.0001979
1.845e-05
0.004239
4.034e-05
3.616e-05
0.000239
0.0001574
1.957e-06
0.01044
4.074e-05
0.001627
1.935e-06
0.001161
0.0001373
7.217e-05
1.353e-05
0.0001458
3.886e-05
1.182e-06
0.0001379
0.0001578
0.001786
0.0001534
0.0001513
0.01348
0.006095
0.0001579
0.0001316
3.82e-05
6.357e-05
0.0001447
0.0001511
0.00015
0.001765
2.502e-05
9.934e-05
0.0001543
0.0001913
3.744e-07
2.463e-06
7.883e-06
0.006255
5.634e-09
0.0002226
1.902e-05
0.0001456
0.001147
0.0001701
7.1e-05
3.563e-05
0.0002539
8.681e-08
0.0001471
6.814e-09
3.933e-06
4.362e-06
5.663e-05
7.461e-06
0.008995
0.03675
2.243e-07
4.307e-05
0.0001499
7.366e-12
0.006732
6.802e-06
8.965e-07
1.446e-05
5.879e-05
0.007116
4.767e-06
3.403e-05
0.0005261
0.0005684
3.299e-06
5.366e-06
0.04142
1.141e-08
0.0001586
2.697e-05
0.0001565
1.572e-06
0.0001308
0.0001448
0.008307
3.839e-09
0.00661
0.002793
2.474e-09
6.322e-05
0.0001458
2.107e-07
3.225e-05
0.001429
1.713e-07
0.0001649
0.002388
2.51e-10
0.03643
1.106e-06
0.007701
4.19e-05
5.634e-08
6.321e-06
5.855e-07
0.0001559
2.545e-05
0.0001579
0.04999
0.0001184
0.0001735
0.0001186
3.607e-05
0.02059
6.541e-06
0.01399
0.0001621
0.02132
0.0001527
0.0001572
8.779e-05
1.116e-08
0.0001502
2.416e-08
1.138e-06
0.00109
0.001006
0.0001459
0.011
0.0001645
0.0001594
4.47e-06
1.295e-06
3.677e-07
0.0001427
4.099e-06
0.0001437
0.0006439
1.395e-09
0.0001193
0.02349
0.0001289
0.0001461
0.0001185
0.0009289
7.837e-08
7.795e-05
0.0001613
0.003272
0.0001453
7.853e-11
1.417e-09
0.003634
0.0001654
0.0001271
0.0001355
0.0001314
0.0007267
0.01913
0.02242
0.0001533
0.0001682
0.0001695
0.0001598
0.0008168
0.01833
5.313e-06
8.869e-06
8.839e-10
0.0001664
4.722e-07
0.002387
9.971e-05
0.0001317
2.321e-06
0.006074
4.695e-05
7.806e-10
0.0004101
0.01183
0.0003905
5.688e-05
0.001318
1.043e-09
0.05094
0.0003505
0.01888
0.01114
0.0001074
1.081e-05
7.432e-10
0.0001543
0.0003257
0.0001413
6.795e-06
2.699e-05
0.0001353
2.285e-05
5.957e-05
0.0015
3.534e-06
0.0001428
0.0001651
6.861e-11
0.0001455
1.172e-05
1.581e-05
3.986e-05
6.631e-07
0.0001656
0.0001126
0.0003568
2.201e-07
0.0007096
4.813e-05
0.0001505
3.639e-05
4.114e-06
2.712e-06
3.695e-05
0.0004869
0.0001451
2.824e-05
0.02328
6.26e-07
0.0001412
0.01676
0.000541
0.0001449
0.0001392
0.0001576
0.0001456
0.02095
0.0001385
3.551e-06
0.02189
5.868e-09
0.0004795
0.0009757
4.785e-06
0.0007089
1.757e-05
6.051e-06
1.448e-10
0.0002726
0.0001377
0.00232
0.001414
0.01368
0.0001482
0.006885
0.0001464
0.006324
0.0001474
0.0232
0.0001435
1.991e-05
0.001967
0.0001378
0.0001444
0.001589
0.0001568
4.816e-06
0.0001541
0.0001336
0.0001616
0.0006375
0.0001496
3.888e-09
8.448e-07
8.852e-08
1.676e-05
6.25e-05
6.779e-06
1.678e-05
0.01208
0.0001919
6.11e-08
0.01911
1.211e-05
1.982e-06
0.0002258
0.000293
0.02407
0.0001441
1.311e-10
0.0003531
2.4e-07
0.0001458
8.706e-10
2.09e-05
5.227e-06
0.0025
0.0001309
0.0001308
0.01496
0.05021
0.01363
0.01123
4.759e-05
0.000166
0.0001558
0.007442
0.0001218
4.645e-07
0.0001233
0.00019
0.00119
0.0001065
6.789e-07
5.275e-06
3.751e-05
5.542e-06
0.005012
0.0001461
0.005471
0.003108
1.429e-08
0.0009573
0.0001535
4.578e-05
0.003295
2.286e-05
0.009474
2.917e-07
0.05426
0.0001455
0.01066
7.934e-05
6.547e-10
4.582e-07
0.0001646
0.0003452
4.921e-06
0.0001575
0.0001305
4.288e-05
1.189e-05
4.276e-10
0.0001513
1.803e-08
0.003021
0.0001439
6.491e-06
0.0001259
0.007924
0.0001514
0.003947
0.0003499
4.895e-05
5.151e-05
0.0259
2.723e-06
0.000152
2.634e-05
2.271e-06
1.309e-06
0.0001922
0.0001916
3.647e-06
0.000172
1.183e-09
0.000136
8.051e-07
6.833e-07
1.241e-10
0.004024
0.00028
0.0001488
0.0001456
0.0001437
0.01253
0.0001435
1.549e-09
0.0001454
3.693e-07
0.0001574
0.0001191
8.336e-05
1.579e-06
0.0002598
4.19e-07
0.0001578
0.0001339
0.002682
3.494e-08
0.0001448
8.611e-05
2.62e-05
0.003416
4.857e-05
0.0001877
0.002706
4.23e-05
2.518e-05
0.0001536
0.0001372
2.747e-06
0.0002052
0.0001327
0.0001591
1.478e-05
0.0001372
1.468e-07
0.0001462
0.001314
0.000427
0.004206
0.0001912
0.0001392
0.00667
5.175e-06
0.007205
0.0001512
8.302e-05
0.0001543
0.0001454
0.0001417
0.0002617
2.409e-09
8.456e-05
3.653e-05
0.0001489
1.024e-07
0.0001635
0.0001526
0.0001896
0.0001692
0.0001768
1.955e-06
0.0001496
2.08e-05
0.0001466
0.000273
0.0001486
0.0001519
3.244e-05
0.01419
0.0001604
1.297e-06
4.927e-05
0.0001414
0.001637
2.126e-07
6.706e-05
9.093e-10
5.179e-07
0.01636
0.0001528
0.0001696
5.067e-07
0.0009292
2.046e-05
4.469e-06
0.0002247
0.0001542
0.0001444
2.293e-05
1.509e-05
0.0001058
0.0001459
0.0004493
0.0001456
0.000163
0.000201
0.0001428
0.01954
0.0001667
0.0001052
0.003487
0.002562
5.424e-06
0.0001466
6.693e-06
5.127e-07
0.0001328
0.02533
1.679e-05
0.0001578
0.0003467
0.01089
2.777e-06
6.472e-05
0.008014
1.336e-06
0.0003142
1.614e-05
1.135e-06
0.0001571
0.0001534
5.114e-05
0.0001516
9.741e-06
0.001487
0.0001512
4.191e-05
0.0001481
0.0008644
4.753e-05
0.04549
0.0001489
0.0007355
1.023e-09
0.00206
1.065e-08
0.0001576
0.0001376
1.1e-08
2.312e-05
0.000157
4.769e-06
0.0001508
0.003439
0.0001491
0.008021
2.232e-08
0.004067
0.0001652
4.314e-05
2.215e-05
0.0001464
4.814e-05
0.000153
0.0001643
7.528e-07
0.0001491
3.851e-05
2.278e-07
0.0001444
0.0001486
0.008581
0.0002154
0.0002461
0.0001558
0.000162
0.0001344
0.0001627
0.01978
0.0002351
0.0001555
0.0001805
0.0001374
0.0001536
3.331e-06
3.904e-09
0.0001395
0.0001661
1.769e-08
0.02006
3.718e-06
0.0148
2.032e-05
3.542e-09
0.0001856
0.0003007
0.005464
0.0001503
1.55e-06
0.0001627
0.0152
7.605e-08
5.109e-05
0.0001488
5.742e-06
5.624e-11
5.174e-10
0.006645
0.004596
4.523e-05
0.0001558
0.01396
8.22e-05
0.01664
2.603e-06
0.00097
0.00178
2.635e-05
8.101e-08
0.001989
0.000143
0.0001452
5.107e-05
0.0001387
0.0008902
0.0001521
0.0001509
2.359e-05
0.00658
0.02477
0.0001356
4.505e-06
5.312e-07
0.002088
4.751e-06
0.003461
9.92e-10
8.494e-06
0.000149
2.789e-05
5.534e-06
0.001473
3.032e-05
4.58e-10
0.0001282
1.536e-07
2.128e-05
1.947e-05
0.0001379
0.008459
0.01495
8.399e-07
1.984e-05
0.02209
4.194e-07
0.0001604
0.0001716
1.432e-05
0.000153
0.0226
0.0001452
2.782e-06
1.419e-06
2.31e-05
4.039e-07
8.223e-07
0.01087
8.35e-09
0.0002946
5.86e-05
0.0001498
0.02211
0.0001509
0.03193
6.704e-05
0.01555
3.061e-05
0.0002119
3.357e-05
1.017e-10
2.061e-08
0.002337
0.001403
0.0001639
0.0001596
0.0001459
0.0001487
4.951e-05
0.0001634
0.000145
4.386e-05
2.752e-05
8.362e-06
0.001394
9.616e-05
1.834e-05
0.009044
2.542e-05
5.796e-09
9.271e-07
0.000156
3.377e-05
1.23e-10
0.01096
2.741e-05
0.03202
7.898e-05
0.0002437
1.454e-11
8.657e-05
7.93e-05
0.0001599
0.0001557
2.702e-05
0.001867
0.0001454
0.000147
0.005398
4.352e-07
0.02212
3.054e-05
4.373e-09
0.0001871
0.0001493
6.447e-07
0.0217
0.002015
1.07e-07
0.0001577
0.02904
0.0005797
0.0001541
0.0001599
7.7e-05
0.0001465
0.0001563
0.02414
7.017e-07
0.05351
1.131e-05
1.187e-07
0.0001493
5.938e-07
0.009655
2.709e-06
2.367e-05
4.458e-05
0.0001511
0.01139
0.001367
0.002363
5.325e-06
0.001973
4.37e-06
2.965e-05
0.0001449
0.001999
0.03256
1.224e-06
4.424e-05
0.0006578
0.012
0.0001533
5.856e-08
0.0001733
0.001481
0.01719
0.006023
0.02238
0.004077
0.0001633
4.994e-09
0.0001622
0.0001485
1.948e-05
0.0001395
0.0148
0.0001496
0.0001565
0.007339
0.0001439
0.0001639
1.254e-05
5.903e-05
0.0001456
0.0001479
0.02328
7.38e-05
1.145e-05
0.000195
0.002369
0.008227
1.395e-06
2.452e-06
0.05038
9.897e-05
0.002043
0.0001588
3.38e-05
2.01e-09
0.01343
3.477e-06
3.657e-06
0.01013
1.042e-09
0.0001454
0.0001372
0.0001657
0.0001224
9.561e-11
0.0001459
0.01136
1.346e-05
2.292e-09
1.793e-05
2.033e-06
0.000125
0.0001246
4.244e-06
0.0001266
0.009802
0.0001329
0.0001497
0.03782
0.0001427
0.000149
6.128e-07
2.081e-05
4.002e-05
0.01343
8.093e-08
0.005506
0.000161
0.0001317
8.345e-05
2.013e-05
1.063e-06
5.558e-06
0.0001488
3.354e-07
0.0003028
0.0001845
3.259e-05
1.441e-05
0.0001104
0.0001541
0.0001073
1.655e-06
0.0001374
0.0001354
5.024e-05
0.001125
2.112e-08
0.0001648
6.099e-06
3.593e-05
0.0003878
0.0001454
0.000168
0.0001482
0.0009838
6.007e-09
0.0001843
0.0001564
4.673e-05
0.0001523
1.84e-07
4.39e-05
0.0002093
7.854e-05
8.799e-05
3.626e-05
0.01422
5.285e-05
0.0001044
0.0003059
0.0007436
0.002236
7.492e-05
0.009179
1.271e-06
2.82e-05
0.0002692
0.003037
1.984e-06
0.003028
0.0002839
2.734e-05
0.000157
0.000167
7.873e-05
8.614e-09
0.0001646
1.453e-05
0.0001469
0.01729
0.0001484
2.327e-05
0.01831
8.039e-09
5.444e-05
0.0001527
1.083e-06
7.345e-10
3.685e-07
0.0009943
4.786e-05
7.122e-07
8.108e-08
0.0006596
0.01366
6.917e-05
1.113e-10
0.0002058
0.001415
0.0001679
0.0001606
0.0001455
0.004711
3.912e-06
0.0001119
0.0002293
0.02306
0.0001536
4.433e-08
0.0001309
0.005981
0.0001643
0.02118
2.455e-06
0.0001642
0.000154
0.02268
0.0001502
2.132e-05
6.885e-05
1.885e-09
3.453e-05
0.0001976
0.0001428
0.004018
0.0008238
4.32e-06
9.428e-06
6.585e-05
0.02104
9.297e-05
0.0001453
8.908e-06
6.562e-06
0.0001738
0.0001341
0.001621
7.332e-08
1.191e-06
9.544e-06
0.0001688
0.0001586
0.0001552
4.682e-06
0.03056
0.0001533
1.027e-08
0.0002011
0.0006522
0.0001455
0.0001473
0.0001543
0.000146
4.674e-05
5.095e-05
0.001941
0.00418
1.266e-06
7.041e-08
0.0002586
1.462e-05
0.0001878
0.02219
6.988e-09
0.0007863
0.0003098
0.00616
1.601e-08
0.005931
6.212e-07
1.797e-08
0.0001596
3.534e-06
1.338e-06
0.0001184
0.00401
1.399e-05
8.73e-05
2.801e-06
0.002064
0.0006505
0.0001489
0.02713
0.0001478
0.0001659
0.004282
0.00063
0.0001094
0.0004575
4.699e-09
0.00531
0.0001461
1.715e-05
0.0007801
0.02997
5.733e-05
0.0004631
0.0001837
1.865e-06
1.139e-06
1.269e-08
0.0001399
1.242e-05
0.0002458
0.0003713
0.0002461
0.0001513
1.503e-08
7.202e-06
4.204e-05
0.0001653
0.000144
3.866e-05
1.326e-05
0.01403
0.000121
1.212e-08
2.187e-06
8.297e-05
0.01093
0.0004643
3.951e-06
0.0001447
3.296e-05
0.0116
0.000151
7.6e-05
4.934e-06
0.000145
3.117e-05
0.00438
0.0001068
1.257e-07
0.000126
0.0001446
1.005e-10
0.001787
1.364e-05
0.0001309
0.0001301
1.577e-05
0.00311
0.0001585
2.466e-06
3.291e-05
0.0001438
5.783e-08
1.172e-06
0.001206
0.0001456
0.0001462
0.0003883
0.0001648
1.44e-05
1.68e-10
2.992e-06
0.0001538
2.012e-06
1.183e-07
0.000154
2.84e-06
7.497e-06
0.0002961
0.0001598
2.557e-06
0.0427
0.01169
0.0001302
0.0001284
0.0001287
0.000127
0.0001583
0.01829
7.818e-05
6.599e-06
9.87e-05
0.0009261
0.0009509
1.459e-07
0.0001278
0.0001422
0.004195
5.939e-05
5.321e-07
2.822e-05
0.003632
5.065e-05
7.529e-06
0.001822
2.559e-05
0.0001617
3.932e-05
8.364e-10
1.855e-05
5.185e-08
0.0001526
4.852e-05
0.0001454
1.461e-08
0.0003212
7.982e-06
9.54e-05
0.0001501
6.774e-09
0.0001458
0.002989
9.246e-07
0.0001786
4.377e-05
0.0007438
0.003538
0.003691
3.242e-06
0.0001508
1.016e-05
0.0001369
0.0001731
0.0005686
0.0001564
0.01072
6.724e-05
0.0001436
0.0001453
0.0001554
0.0006115
3.532e-06
0.000169
0.002593
1.911e-05
0.000131
2.881e-06
6.773e-06
0.01809
0.02019
0.01777
0.0009214
0.0001611
6.591e-10
0.000152
0.0001454
7.957e-08
0.0001452
0.0001448
0.0001579
0.0002935
8.871e-07
0.005518
4.499e-07
0.004487
7.795e-06
0.0001464
0.0001574
0.0007812
1.706e-05
0.01977
0.0001989
0.0001571
2.696e-07
3.211e-08
0.0001483
6.963e-09
3.131e-08
9.447e-11
0.0002137
0.01821
0.009268
0.0001545
0.000148
0.02054
0.0001131
1.322e-07
0.0001508
1.711e-06
5.034e-09
0.0001455
5.576e-06
1.559e-07
3.454e-05
0.0001458
1.299e-06
2.664e-08
4.102e-10
1.077e-09
0.000164
0.0009404
1.437e-09
0.0001562
0.0005251
0.000144
0.002896
6.286e-07
0.0204
8.709e-06
1.133e-09
0.000158
0.006451
5.898e-05
0.0001492
0.0001531
3.392e-06
1.741e-06
0.02685
1.06e-05
5.002e-05
0.0001498
0.01099
0.001786
0.0006678
0.001438
0.0001455
0.0004915
0.0003418
1.708e-05
3.545e-05
4.082e-05
3.461e-06
0.0001033
1.046e-08
7.89e-11
6.636e-12
2.708e-06
0.0001536
3.848e-06
0.0001485
7.388e-07
1.67e-06
0.0001455
2.567e-09
0.0001489
0.0001447
2.85e-08
1.9e-07
0.005304
0.0001579
0.0001613
2.895e-05
0.0001301
1.059e-09
0.0001182
0.0001805
0.01117
0.003177
1.138e-08
9.65e-09
1.276e-08
0.00651
5.383e-06
1.757e-05
0.003507
0.0001514
4.344e-05
6.441e-09
0.0001392
0.001585
5.18e-05
0.002692
6.014e-05
0.0125
0.02793
6.42e-08
3.097e-05
2.778e-05
1.541e-08
0.0001894
1.595e-07
0.0001521
5.236e-05
0.0002498
0.0001487
0.0001544
5.765e-05
4.645e-06
7.885e-06
1.098e-08
0.0001753
0.0001454
0.0001081
1.397e-05
1.161e-07
0.007049
0.0209
0.0001263
0.0001506
7.973e-07
0.0001268
2.862e-05
8.269e-06
0.0001538
6.216e-05
0.01
1.49e-07
6.54e-09
7.43e-10
0.0001501
1.931e-06
0.001439
2.276e-05
0.02263
0.01198
1.632e-08
0.01271
1.532e-06
1.177e-05
2.662e-06
2.115e-05
0.0001581
9.098e-09
0.01903
4.874e-05
0.00167
0.0001735
5.253e-05
0.0001601
0.0001459
6.895e-05
0.0001551
0.0003999
9.246e-05
6.389e-05
1.416e-08
5.119e-10
0.02333
1.571e-08
0.0006823
0.0001581
0.0001499
0.0001539
8.119e-05
0.0001489
2.37e-05
3.319e-09
5.297e-05
4.503e-07
0.04035
0.006023
2.656e-05
0.0001667
0.01024
1.539e-06
0.02205
1.017e-07
5.966e-05
0.0001381
0.001847
4.77e-05
0.0001477
0.0001549
2.877e-07
0.0001463
5.079e-06
3.546e-05
1.302e-05
0.0001111
1.182e-07
0.0002634
0.01594
0.0001502
2.368e-06
2.4e-05
5.251e-06
5.033e-05
0.0001432
1.05e-05
0.000144
0.0001674
0.0001261
0.0331
8.008e-10
4.795e-05
2.025e-06
0.01614
1.34e-06
0.0001599
0.0005264
0.002842
4.308e-05
0.0001389
0.0001186
0.0001462
1.181e-06
1.038e-06
0.0001113
0.001293
0.0001425
4.628e-06
5.654e-06
2.008e-05
8.53e-06
7.269e-06
4.689e-05
0.0001474
0.001923
0.0001256
0.0001509
1.446e-05
7.093e-05
0.0001557
0.0001625
0.0001566
0.0001396
2.91e-05
0.000137
0.0001349
0.0001465
0.0001533
0.0001515
8.625e-05
1.23e-05
0.0001457
1.486e-05
0.0001389
2.752e-05
0.0001469
0.0001461
0.0001516
2.779e-07
0.0002744
1.079e-09
0.0007842
2.191e-07
0.0001609
0.0001587
5.642e-09
0.00015
2.818e-05
2.334e-05
1.641e-05
5.706e-05
0.0001747
0.000146
2.594e-05
0.0002052
0.0002983
0.00193
0.0003095
9.213e-05
0.003753
4.392e-05
1.099e-05
0.0001437
0.002812
5.547e-05
9.903e-08
0.0001513
0.0001481
2.25e-06
1.024e-06
0.002426
0.001889
7.925e-05
5.852e-06
0.0001532
7.056e-05
0.000706
0.02194
0.002922
0.0003996
0.000138
0.0001775
1.05e-09
0.0213
0.003274
1.672e-08
0.0001691
0.0001154
0.0001449
0.0001497
0.0001602
0.0001694
5.026e-08
9.467e-05
0.000147
0.000147
4.561e-05
6.18e-11
0.0001469
0.006973
2.189e-06
2.928e-05
0.0001311
1.73e-05
1.599e-05
0.0001038
0.0001821
1.646e-06
1.665e-07
6.675e-07
0.0001459
0.0004698
0.005842
0.0001456
0.0001429
0.0001683
0.0001672
0.01448
0.0001116
4.148e-09
2.658e-07
0.04536
6.326e-06
1.229e-07
0.01375
8.853e-06
0.006242
0.000165
0.000162
5.585e-07
4.975e-09
0.0001443
3.059e-06
3.891e-05
0.0001469
1.321e-07
0.004444
0.0001707
0.0001551
0.0009531
1.875e-06
5.784e-05
7.366e-05
0.0001452
0.0001456
0.03965
0.003137
0.0001335
0.0001259
0.0001486
1.618e-06
0.0244
0.003747
4.047e-06
3.102e-07
0.03731
0.0002378
0.0001428
5.102e-09
0.0001673
1.219e-05
3.413e-06
0.0001534
1.386e-05
0.000115
3.752e-05
1.467e-09
0.02402
3.766e-09
0.0001384
0.0001419
0.002029
0.0001511
0.000143
1.158e-09
1.896e-05
1.308e-05
2.346e-06
0.0001033
0.0006458
0.0001392
9.768e-10
0.0001559
4.223e-05
0.0001348
0.0001519
0.005402
0.00406
0.0004254
0.001051
0.02326
0.0001618
0.0001362
0.0003518
1.226e-05
5.019e-06
1.142e-08
0.0001605
0.01419
7.693e-05
0.0001471
0.0002691
1.554e-05
0.0002377
0.0001535
0.008059
1.925e-09
0.0001312
0.0001436
7.316e-05
3.558e-05
0.02185
4.347e-06
0.0001478
1.357e-05
0.0001581
3.701e-05
0.000148
0.0001528
1.047e-06
2.016e-05
2.021e-06
0.001804
0.000177
0.0001364
5.064e-06
0.0001447
2.933e-06
1.055e-09
0.0001598
0.002836
0.007405
3.524e-05
5.04e-07
0.0001852
0.0001522
0.0001363
0.0003132
0.0001579
0.0001447
4.712e-06
9.379e-05
0.0126
0.0001358
0.0001549
0.000154
0.0001489
1.732e-05
0.0008334
0.0001454
5.068e-05
4.245e-05
0.0001939
0.0001501
0.0001467
0.0001446
0.0001579
0.001154
0.0336
2.4e-06
1.193e-09
7.776e-09
4.362e-05
9.831e-08
1.947e-07
0.0001481
1.482e-09
0.0001299
6.142e-06
0.02353
0.0001553
0.0001598
1.4e-05
9.631e-07
5.337e-07
6.476e-05
0.0001562
0.001341
1.422e-05
4.339e-05
0.0001552
0.0001643
0.001506
0.0001536
1.349e-05
0.0001534
0.0006332
9.062e-05
0.000136
0.0001522
9.121e-07
3.192e-10
4.679e-08
0.0001373
6.602e-07
0.0005472
0.0001326
0.0001196
0.000146
7.569e-06
0.0001843
0.0003325
2.478e-06
2.853e-05
0.0001495
0.0001666
0.02031
2.3e-08
0.0001467
0.0001524
1.497e-08
0.0001075
0.0001442
1.925e-07
0.006637
0.0001525
0.0001522
0.02592
2.207e-05
1.378e-09
2.586e-06
0.0001696
0.009594
0.0006464
0.0001544
0.000145
0.0001533
1.289e-05
4.176e-05
0.0001219
0.0001479
1.821e-08
1.551e-05
6.835e-05
0.003489
0.001277
5.711e-05
0.0001342
0.0001555
2.413e-05
7.091e-05
0.0001504
3.069e-05
2.724e-06
0.01724
0.0001669
0.0001747
0.01326
0.0001503
0.01934
6.701e-05
0.000104
8.793e-05
0.0001477
4.226e-06
0.0004306
0.005469
0.0001159
0.0001169
1.1e-05
0.0003002
4.391e-11
0.01169
0.0001571
0.000527
0.0001414
0.0001015
7.128e-05
1.377e-07
2.519e-07
0.0003462
5.49e-06
1.512e-06
0.0008617
0.0001584
0.0001701
2.997e-06
3.094e-08
0.0003655
0.0001513
6.246e-07
0.0001661
5.651e-07
7.906e-05
0.008262
0.01867
1.44e-05
0.0001459
0.001979
0.0001673
0.0001448
0.0002918
5.864e-07
0.003308
3.43e-09
3.429e-06
0.0002354
0.0001448
0.001552
4.182e-05
0.0001738
0.001665
0.0002291
6.279e-05
0.0002732
5.809e-06
0.0001465
2.267e-05
0.0001379
0.0001169
2.428e-05
5.358e-05
0.0001188
2.567e-06
1.991e-09
0.0001419
0.0001455
5.693e-05
3.853e-05
7.74e-07
0.0001467
4.448e-05
1.802e-06
0.01978
0.01767
0.0001457
8.596e-05
2.694e-07
0.0001513
0.00523
0.0001441
4.409e-05
0.0001515
0.0002792
5.424e-06
0.0001532
0.0006707
9.328e-06
0.0001095
0.0001494
4.131e-05
2.406e-05
0.0001637
0.0001434
0.0001478
5.769e-06
1.909e-05
7.015e-05
0.02542
0.0007207
0.05441
2.34e-05
7.485e-05
0.0001281
0.0001521
0.000157
2.991e-10
1.808e-07
1.768e-06
0.0001425
2.627e-06
3.282e-05
5.482e-05
5.105e-05
6.762e-09
0.0001602
0.000868
3.524e-05
4.717e-05
1.944e-06
1.13e-07
0.0523
0.0002213
0.03153
0.0001497
1.378e-10
0.0001468
0.023
3.565e-06
6.346e-05
0.01787
4.925e-05
0.0003825
5.703e-07
0.007244
0.0001095
0.007439
0.0001072
3.521e-06
2.912e-10
0.007755
2.23e-09
1.313e-08
0.0001455
1.989e-09
0.0001489
9.779e-07
4.352e-07
0.0006418
0.04105
0.0008668
4.674e-05
8.589e-05
0.0001501
0.004704
0.007982
0.008141
0.01667
0.0009057
0.000157
0.0001373
0.03946
4.515e-09
0.0004949
6.762e-06
4.207e-05
2.372e-06
0.0001347
4.591e-06
0.0001652
2.007e-07
0.005441
7.002e-09
1.88e-05
8.969e-06
0.000154
6.69e-08
0.0001529
0.00212
0.0007245
0.000158
0.0001618
0.002354
6.983e-05
0.004936
0.0003448
7.604e-05
2.094e-05
0.006055
7.473e-09
7.321e-05
7.584e-08
0.0001499
0.02228
0.001057
0.01237
0.0001521
5.582e-05
0.0001454
0.0001464
0.0001454
0.003785
2.781e-05
0.0005827
0.02962
0.0001509
0.008505
0.0001505
8.078e-09
3.22e-07
4.67e-09
1.426e-05
0.0001529
1.393e-06
9.27e-06
0.0001574
7.955e-06
0.0001464
0.003229
0.0242
0.0002067
0.03951
0.0001422
0.0001427
8.875e-05
0.01706
0.0001512
1.248e-09
2.583e-05
0.0001398
0.0001459
5.592e-05
0.0001509
4.995e-06
2.141e-08
0.0001582
0.0001414
0.000143
3.745e-05
2.027e-06
1.227e-09
0.0001531
0.0001611
6.549e-05
9.188e-06
0.0001526
1.855e-05
8.29e-05
0.0001667
2.06e-06
0.0004898
1.982e-09
0.0001515
4.647e-05
6.751e-05
4.641e-06
0.0001462
0.004213
0.0001456
0.01001
0.02871
7.032e-05
0.0007444
9.883e-06
0.0001909
0.0001601
4.304e-07
7.97e-06
1.024e-05
2.59e-06
1.306e-06
0.001203
0.0001387
4.839e-05
2.148e-05
0.01452
1.001e-05
0.0001391
3.571e-09
8.698e-09
3.844e-07
6.706e-05