/*--------------------------------*- C++ -*----------------------------------*\
  =========                 |
  \\      /  F ield         | OpenFOAM: The Open Source CFD Toolbox
   \\    /   O peration     | Website:  https://openfoam.org
    \\  /    A nd           | Version:  8
     \\/     M anipulation  |
\*---------------------------------------------------------------------------*/
FoamFile
{
    version     2.0;
    format      ascii;
    class       volScalarField;
    location    "25";
    object      nut;
}
// * * * * * * * * * * * * * * * * * * * * * * * * * * * * * * * * * * * * * //

dimensions      [0 2 -1 0 0 0 0];

internalField   nonuniform List<scalar> 
127143
(
6.86e-23
4.402e-22
2.743e-21
3.281e-20
2.393e-19
3.42e-20
1.272e-17
1.796e-18
5.37e-19
2.854e-18
2.077e-17
1.681e-18
1.604e-20
6.676e-20
1.009e-08
5.03e-16
1.179e-19
0.004688
0.003032
1.547e-13
6.414e-05
4.312e-13
6.564e-05
1.694e-08
3.613e-13
3.083e-11
1.408e-13
1.466e-13
7.242e-12
0.004792
2.33e-09
2.637e-11
1.484e-12
1.163e-10
5.065e-05
1.502e-12
2.678e-05
0.0001909
5.006e-08
9.431e-12
0.00303
4.109e-06
4.45e-06
8.454e-19
0.004696
1.872e-10
8.011e-12
0.0004073
2.12e-08
3.334e-08
1.869e-15
0.0004443
1.541e-05
4.912e-05
0.006668
2.567e-09
0.006667
8.98e-05
0.005797
4.84e-05
4.046e-06
0.001519
4.397e-07
0.006702
4.953e-10
2.18e-05
6.615e-05
3.73e-07
3.828e-07
0.002788
9.032e-09
4.593e-13
0.001968
0.005127
0.006693
4.508e-13
0.0008368
3.331e-05
2.68e-09
0.006705
5.754e-12
1.653e-13
3.383e-09
3.703e-11
0.001479
6.543e-05
1.121e-07
1.102e-12
2.232e-05
3.205e-08
0.005371
3.413e-05
1.119e-07
6.669e-05
1.176e-06
0.0001142
4.446e-06
5.495e-10
0.0001012
5.762e-05
0.006705
2.664e-08
1.341e-09
9.027e-06
7.831e-05
8.962e-05
2.594e-07
0.002788
8.811e-06
0.00668
1.629e-08
7.97e-13
1.292e-05
7.727e-07
0.006693
2.881e-05
0.000593
0.006693
0.0008772
8.143e-15
0.006681
3.968e-09
5.203e-07
0.0001097
7.093e-12
4.017e-12
0.0006579
0.00103
4.782e-07
1.745e-09
4.458e-06
8.027e-07
7.537e-07
3.673e-05
3.35e-17
5.289e-06
0.0002085
0.0001978
2.344e-11
0.0001795
5.175e-05
0.001019
0.000126
0.0004724
1.657e-05
1.311e-06
5.92e-12
0.006702
6.308e-07
3.555e-10
3.879e-06
3.295e-08
7.876e-05
2.818e-05
3.977e-07
0.001521
7.203e-05
1.063e-09
0.0004338
3.452e-10
1.022e-08
1.283e-15
0.006097
4.614e-06
8.276e-11
1.074e-09
9.03e-06
8.377e-06
8.552e-10
0.0001978
3.915e-08
0.0004739
1.687e-05
1.499e-06
0.002493
0.0001401
2.462e-06
5.016e-07
3.427e-08
0.002072
1.521e-06
0.0006679
0.0001833
0.0001492
2.147e-09
0.001594
1.317e-05
8.096e-07
2.635e-08
0.0008396
7.458e-06
3.905e-07
0.0002108
6.06e-07
9.757e-18
0.0005573
0.006641
0.006626
2.132e-15
0.002907
0.006696
0.0002011
0.001162
3.833e-05
7.911e-19
1.776e-07
0.0001261
1.826e-06
0.004127
0.006692
0.0001452
0.001088
0.00669
9.908e-10
8.141e-07
4.86e-16
1.424e-09
1.745e-06
4.174e-06
0.0001242
2.981e-06
0.006694
2.987e-08
1.199e-05
1.711e-10
2.316e-08
3.059e-10
0.0001684
3.1e-07
0.0003242
4.98e-05
0.0008336
0.002076
1.31e-13
5.243e-05
0.0001048
4.58e-06
1.219e-20
0.006441
2.356e-05
4.943e-07
1.539e-09
0.0003492
1.224e-09
1.267e-05
1.221e-14
9.465e-08
1.293e-13
7.63e-15
0.002793
6.236e-06
5.278e-11
1.211e-06
0.0002142
1.073e-08
7.57e-06
0.001213
2.901e-09
6.424e-06
1.542e-05
0.0005408
0.0008567
2.574e-05
0.0009816
3.554e-06
1.092e-09
1.153e-07
1.149e-07
5.088e-06
2.844e-06
2.819e-10
0.002492
0.0007779
2.203e-05
6.92e-07
8.917e-06
1.411e-05
5.492e-08
0.00248
1.068e-05
0.003233
0.0001682
9.317e-06
0.00669
0.006692
9.769e-18
2.187e-06
0.006693
4.737e-08
0.002119
7.916e-05
4.517e-05
0.0001052
1.026e-05
0.006699
7.142e-06
3.997e-09
4.864e-06
0.000346
3.387e-06
8.494e-10
3.255e-05
1.404e-05
3.628e-05
1.094e-10
1.055e-06
1.867e-06
0.006691
0.001799
1.651e-06
2.01e-07
9.115e-08
1.449e-09
0.003588
0.006691
8.485e-08
0.0002146
6.884e-10
0.0001322
0.002719
8.323e-05
5.207e-09
0.0004247
1.191e-06
7.631e-08
0.0001035
0.0001092
2.87e-05
8.138e-09
2.335e-06
0.0008919
0.006692
5.563e-05
0.006641
0.006626
3.124e-05
9.342e-06
1.701e-05
0.0008926
1.156e-06
0.0002038
1.733e-06
2.639e-05
1.064e-05
1.166e-06
4.398e-08
3.103e-08
5.31e-06
1.327e-09
1.233e-07
2.03e-09
0.003174
9.965e-05
9.371e-06
0.000137
5.167e-08
0.0002039
1.944e-06
0.006327
8.19e-09
0.00127
5.089e-07
0.002807
3.692e-08
3.926e-08
0.006697
0.003288
0.00275
3.224e-09
0.00251
2.511e-06
0.000392
1.778e-10
3.003e-08
0.0009836
0.0001184
6.397e-09
6.258e-13
0.000172
0.002461
0.001447
1.493e-11
2.508e-09
2.79e-05
0.000658
7.085e-14
4.366e-05
1.46e-11
0.0004952
0.0006303
0.006698
1.345e-05
1.232e-07
1.051e-08
2.495e-08
2.438e-09
1.392e-05
4.037e-09
0.0001336
0.0006442
3.978e-11
0.006694
8.828e-05
0.0002139
4.274e-05
2.268e-06
0.000109
7.859e-07
0.006705
4.863e-08
2.259e-06
9.438e-10
4.653e-05
0.0005101
7.697e-07
1.402e-06
2.668e-05
1.24e-10
7.382e-06
3.423e-08
1.117e-05
2.358e-11
3.099e-07
0.003078
0.0002978
1.272e-05
4.335e-06
3.871e-05
2.687e-09
9.503e-05
0.006677
3.326e-07
6.678e-05
0.000199
6.278e-07
0.006697
1.632e-06
5.835e-08
0.0004747
0.006698
0.006691
5.018e-08
0.0001703
8.002e-06
0.0003326
7.806e-10
0.006088
6.579e-08
0.002771
0.001093
6.658e-05
5.73e-09
2.786e-06
1.879e-09
3.711e-05
6.99e-05
5.933e-10
4.716e-09
8.869e-05
2.657e-06
1.158e-06
2.094e-06
0.0008583
8.29e-07
2.219e-06
0.002572
0.001494
8.795e-05
1.891e-08
0.006667
0.0001954
3.138e-05
9.41e-05
0.0002089
0.0001404
0.006645
6.418e-07
4.237e-05
9.498e-08
2.875e-05
6.837e-12
8.771e-08
5.268e-08
1.602e-09
5.498e-06
6.34e-07
3.783e-05
0.00669
7.903e-10
0.0009046
2.122e-07
1.442e-07
8.706e-06
1.167e-06
2.439e-17
2.742e-06
1.139e-06
0.0001018
1.345e-06
0.006687
6.03e-12
0.001507
0.0001701
0.0006195
1.394e-19
1.514e-15
1.891e-15
0.006697
6.19e-08
1.403e-07
0.006691
0.001403
2.916e-07
7.085e-06
7.306e-06
5.899e-05
5.288e-09
0.0002003
4.21e-12
0.002634
0.0008443
4.294e-14
1.76e-08
1.086e-09
6.6e-08
0.006191
4.371e-06
0.0009964
0.0008679
0.006605
3.323e-10
1.033e-10
1.048e-07
0.006637
8.526e-05
0.0001142
1.101e-08
3.363e-06
2.367e-10
0.001389
0.0009032
7.592e-07
4.608e-06
0.006668
3.491e-05
5.056e-06
6.362e-09
4.109e-08
1.161e-08
7.946e-09
0.0005357
1.217e-06
6.348e-08
1.213e-05
4.464e-07
0.003533
2.555e-11
5.557e-06
5.96e-10
6.281e-07
0.0004132
0.006702
0.006701
1.675e-05
2.428e-08
1.23e-06
0.006693
0.00492
1.161e-05
3.818e-09
0.0001116
5.283e-06
4.659e-09
1.542e-11
2.509e-05
0.001197
0.006682
8.748e-08
9.777e-05
4.405e-07
0.005027
4.345e-13
1.058e-06
4.049e-07
0.002459
1.123e-10
0.006693
0.0001335
0.0003597
0.0008444
0.005037
1.7e-07
0.0005459
9.051e-14
0.006644
2.806e-07
1.631e-09
0.00669
2.292e-06
0.005288
1.2e-07
7.477e-05
0.00669
6.091e-09
8.318e-09
2.399e-07
2.434e-06
0.0001336
2.726e-09
3.118e-09
1.455e-06
7.021e-08
1.687e-07
4.204e-08
5.623e-05
5.22e-06
3.018e-10
0.005603
2.406e-09
0.00669
1.202e-06
0.0008757
0.0001288
0.006677
0.005795
6.565e-05
3.759e-08
1.837e-05
0.006483
0.006675
4.688e-07
1.851e-11
9.832e-09
1.03e-09
0.00212
8.573e-06
7.052e-05
1.925e-06
1.188e-05
1.268e-07
1.928e-10
0.006483
1.807e-08
2.016e-05
7.866e-05
4.732e-06
0.006609
0.004921
9.081e-05
7.051e-11
3.868e-05
2.827e-11
0.0008074
0.003934
2.695e-06
2.183e-08
0.000194
9.17e-10
9.323e-05
0.0007195
2.567e-08
6.44e-06
2.289e-05
2.349e-05
2.259e-18
3.619e-08
9.641e-05
6.754e-05
2.414e-06
4.589e-07
2.796e-10
4.989e-08
0.0004141
9.608e-07
4.451e-06
9.939e-05
0.006678
6.58e-08
1.843e-05
4.565e-06
0.006637
0.006677
8.197e-12
0.0001023
6.878e-09
5.198e-07
1.807e-07
0.001779
3.093e-05
3.586e-10
1.007e-05
1.125e-08
0.006689
0.006667
5.629e-06
1.368e-05
6.42e-09
5.015e-06
2.207e-10
0.002027
1.081e-08
0.0001309
0.002353
0.004036
9.079e-10
0.0001535
8.557e-09
3.317e-17
8.556e-07
3.45e-06
0.0001992
0.00485
5.049e-07
4.061e-08
1.654e-11
0.003519
0.0007577
1.228e-05
6.604e-10
2.517e-05
2.442e-08
0.002777
2.033e-08
3.458e-07
1.751e-06
0.0006971
5.399e-05
2.164e-22
2.11e-05
0.0001802
1.781e-07
2.897e-07
1.458e-07
0.006686
4.859e-05
0.003182
0.0001174
0.003771
2.214e-11
4.673e-07
1.04e-10
0.003642
3.267e-08
4.777e-05
8.056e-08
1.928e-07
0.004045
0.0002444
1.214e-07
7.806e-09
0.0001863
0.00258
2.356e-05
5.042e-07
0.003544
1.738e-06
4.713e-05
6.041e-07
2.925e-06
3.381e-05
8.38e-07
1.93e-11
2.214e-07
0.006608
0.0002393
0.001802
2.54e-11
1.512e-09
5.071e-05
0.001465
1.292e-08
0.00662
8.775e-06
2.759e-08
2.612e-05
3.617e-13
2.678e-05
1.33e-07
2.465e-05
0.0004853
1.819e-05
0.006697
5.777e-19
3.942e-06
3.242e-06
8.582e-09
0.0001493
8.266e-07
1.479e-06
1.583e-08
0.006681
0.003307
8.681e-06
0.003905
5.584e-07
2.198e-07
2.567e-07
5.329e-07
0.006659
8.36e-05
0.0001034
0.006689
0.006656
4.732e-06
0.001508
0.002116
1.055e-06
0.000145
7.651e-15
4.944e-06
8.521e-06
0.006678
3.73e-05
1.615e-05
3.385e-09
2.25e-10
8.548e-06
0.003627
0.006403
0.001146
3.697e-13
0.006679
0.0001354
2.857e-10
4.251e-07
2.373e-11
0.005611
0.0006172
4.504e-07
0.006693
1.469e-09
0.006679
1.818e-07
6.633e-11
8.499e-08
4.232e-06
2.994e-12
0.00563
8.696e-09
2.018e-05
4.427e-10
9.747e-07
3.237e-10
4.029e-10
5.413e-05
5.68e-05
1.094e-05
1.074e-14
0.006692
0.0002918
3.744e-09
8.771e-09
3.884e-06
1.06e-12
0.003691
0.0002489
8.044e-08
1.119e-11
1.851e-14
1.19e-07
3.061e-16
1.936e-08
6.458e-16
8.429e-07
1.393e-08
0.003318
1.673e-13
0.0008485
1.837e-07
0.005012
0.00511
0.0001125
0.0004733
1.113e-06
0.002312
7.524e-07
4.913e-05
0.0004019
4.291e-08
1.486e-07
0.00657
0.002954
2.101e-05
0.0004661
4.835e-09
1.042e-13
0.0003384
2.133e-06
1.443e-08
0.0006021
3.616e-07
0.006688
9.297e-06
9.469e-09
0.006367
1.03e-08
6.034e-06
0.001614
0.006664
0.002901
0.002138
1.582e-15
1.331e-05
9.741e-14
0.0001848
1.115e-06
2.406e-07
6.484e-10
6.548e-09
0.005589
4.673e-11
9.277e-06
0.005479
9.211e-06
1.964e-13
0.001148
4.297e-09
3.932e-06
1.609e-05
1.378e-10
4.039e-16
1.655e-08
0.0009188
0.006693
2.108e-06
7.528e-06
3.527e-06
1.025e-08
6.817e-07
9.629e-11
2.528e-05
5.864e-05
8.154e-11
0.0001741
2.02e-12
0.006688
0.000327
6.501e-08
0.0002422
2.865e-07
9.839e-05
0.006691
0.002327
1.954e-08
4.078e-05
3.358e-06
2.08e-08
2.18e-07
0.001155
2.495e-05
1.08e-07
2.939e-08
1.423e-14
3.193e-05
1.464e-09
1.159e-08
2.534e-06
0.001071
5.629e-07
9.447e-07
1.544e-08
1.698e-12
8.729e-05
0.006686
0.006682
0.0003497
0.0002062
7.251e-05
0.006692
1.629e-06
6.775e-05
6.174e-05
3.089e-07
5.959e-05
9.152e-08
2.226e-06
0.006705
6.569e-05
5.38e-05
5.698e-12
1.26e-10
4.79e-05
1.127e-05
0.0003873
4.16e-09
2.068e-08
1.267e-06
0.00221
6.202e-07
1.289e-07
9.508e-06
6.961e-11
0.006479
6.293e-12
5.086e-10
0.00187
3.094e-06
9.692e-09
0.004687
6.057e-14
1.476e-14
0.006251
0.00669
5.468e-06
2.729e-05
7.236e-14
3.189e-06
2.006e-07
9.432e-09
5.775e-08
6.677e-05
9.302e-05
0.003227
2.679e-08
0.001089
2.73e-07
1.7e-05
5.515e-09
4.449e-05
0.005249
2.453e-14
1.448e-05
0.006691
6.915e-08
0.005615
0.006686
1.381e-06
7.556e-05
2.811e-14
0.006686
1.58e-09
0.006693
1.596e-07
8.959e-05
0.003181
5.488e-06
2.585e-09
9.144e-09
1.792e-08
7.495e-07
0.003731
0.0005706
0.0002465
5.255e-08
8.099e-07
9.271e-08
1.692e-12
2.611e-08
8.092e-14
1.752e-06
8.914e-09
2.43e-09
8.58e-09
2.042e-11
5.363e-06
0.003289
0.003633
2.597e-08
1.573e-05
1.637e-10
0.003008
1.452e-08
0.0003117
3.203e-07
1.717e-07
5.207e-06
6.614e-05
1.386e-09
0.001045
3.245e-07
3.793e-06
1.4e-09
8.782e-07
0.006511
1.577e-06
2.796e-08
0.005883
1.634e-07
1.363e-09
0.006673
2.649e-05
2.884e-06
0.0003071
5.353e-06
0.0005346
5.263e-05
9.955e-05
0.00666
1.687e-07
2.391e-07
0.006697
7.3e-06
0.0001625
7.17e-05
7.686e-08
3.668e-06
0.0004418
6.321e-08
2.687e-12
2.77e-09
2.167e-08
0.0004271
1.638e-13
0.002861
9.407e-08
0.006692
2.294e-05
5.424e-06
3.981e-07
1.681e-07
6.394e-08
8.839e-12
0.006698
1.023e-14
2e-09
3.193e-09
5.476e-07
4.692e-09
0.0009249
0.003501
7.146e-11
3.584e-07
6.583e-05
5.49e-18
9.643e-05
1.695e-08
5.385e-10
5.686e-08
1.371e-07
6.92e-05
6.395e-10
2.208e-07
3.985e-06
4.01e-06
5.48e-09
1.267e-08
0.001051
9.227e-14
9.777e-05
1.27e-07
0.0001183
1.585e-09
0.006643
0.00669
0.0001379
8.654e-14
0.000233
0.001901
4.706e-14
4.17e-08
0.006692
3.161e-11
2.101e-07
1.183e-05
1.11e-12
2.41e-05
1.698e-05
1.86e-17
0.002488
9.737e-11
0.0005417
3.364e-07
1.105e-11
1.549e-08
3.511e-10
4.852e-06
8.004e-08
0.0001168
0.002742
2.855e-06
1.073e-06
4.223e-06
2.552e-07
0.001872
2.16e-10
0.0006911
7.536e-05
0.001409
3.834e-06
3.529e-05
2.676e-06
9.478e-14
5.983e-05
2.304e-12
3.704e-10
5.866e-06
1.166e-05
0.006693
0.0009386
3.06e-06
3.662e-05
8.859e-10
8.536e-10
1.471e-10
0.006681
6.68e-09
4.533e-08
1.553e-05
3.107e-14
7.134e-07
0.002723
1.196e-07
0.002632
8.351e-08
6.95e-06
5.622e-12
4.913e-07
0.0008255
0.0002105
0.006695
4.761e-16
2.717e-14
5.374e-05
6.296e-05
5.192e-06
0.006495
0.006647
8.474e-07
0.0007801
0.002808
9.745e-05
0.003275
0.003236
1.483e-06
1.798e-05
0.00158
1.993e-08
2.755e-08
1.651e-14
2.966e-05
2.435e-10
1.176e-05
3.086e-07
0.006649
2.741e-09
0.0004603
3.252e-07
1.176e-14
4.62e-06
0.0013
2.891e-06
4.802e-07
4.671e-05
5.039e-15
0.001806
5.76e-06
0.001593
0.001193
9.38e-06
3.468e-08
4.326e-15
8.133e-05
1.246e-07
0.006674
1.761e-08
1.352e-08
0.006664
4.916e-09
7.467e-07
1.454e-05
5.635e-09
0.006682
2.234e-05
1.578e-16
0.004711
4.028e-08
1.965e-08
3.014e-07
3.723e-11
5.038e-05
9.555e-06
2.426e-07
4.829e-11
7.377e-06
2.231e-07
1.826e-05
2.018e-07
3.404e-10
1.544e-10
9.662e-08
5.496e-06
0.006691
1.01e-07
0.002732
3.694e-10
3.422e-07
0.001772
5.761e-06
0.006687
1.924e-05
5.005e-07
0.00659
0.00204
0.006122
5.336e-10
0.002054
1.597e-13
1.994e-06
2.021e-05
4.552e-09
1.818e-05
8.014e-08
7.868e-09
4.25e-16
2.942e-06
6.64e-07
4.109e-05
5.419e-05
0.0008077
0.006702
4.959e-05
0.001322
0.0004928
0.006699
0.001691
0.006685
6.098e-08
1.116e-05
0.006673
0.006685
1.674e-06
0.0001102
3.591e-09
7.394e-05
0.006674
6.146e-06
1.42e-05
6.517e-05
1.119e-15
1.65e-10
2.453e-13
7.403e-08
6.735e-07
1.735e-08
6.716e-08
0.0002032
7.582e-05
7.293e-12
0.0006176
5.466e-09
2.866e-09
3.872e-06
3.524e-06
0.003039
0.006686
3.881e-16
5.346e-06
3.476e-11
0.006692
1.438e-14
4.794e-08
1.174e-08
1.045e-05
0.006636
0.006635
0.000986
0.001623
0.002238
0.001065
3.784e-07
4.953e-05
4.884e-06
0.002681
1.096e-05
1.296e-10
1.468e-06
0.0001798
3.779e-05
9.192e-06
5.28e-10
5.233e-09
2.35e-07
1.268e-08
0.0002442
0.002744
1.909e-05
8.4e-06
7.916e-13
2.992e-05
0.0003285
3.165e-07
0.002601
1.218e-07
8.075e-05
1.57e-10
0.003326
0.006692
0.0003149
7.607e-07
7.656e-15
2.626e-11
7.077e-05
4.002e-06
2.886e-09
0.0001248
0.006617
1.77e-08
2.418e-08
1.367e-15
5.689e-05
1.44e-13
1.806e-05
0.006686
3.431e-08
6.232e-08
0.0007856
1.345e-05
0.0002707
2.658e-07
4.748e-07
5.835e-07
0.0006283
8.239e-10
0.0001311
3.336e-08
1.355e-09
1.194e-09
0.003392
0.00339
6.771e-09
8.571e-06
3.918e-15
6.778e-07
5.791e-10
3.947e-10
3.654e-16
0.002704
6.064e-07
0.000407
0.003886
0.006685
0.0006122
0.006192
1.636e-14
0.006691
3.123e-11
3.952e-05
1.086e-06
4.278e-07
1.545e-09
0.002759
1.295e-11
9.721e-05
1.783e-07
0.0001238
2.277e-12
0.006684
5.767e-07
2.819e-08
0.0001873
3.082e-09
6.369e-08
7.209e-05
1.893e-08
5.07e-09
0.0001753
0.006661
1.9e-10
0.00281
0.006652
5.321e-05
1.157e-09
0.00666
3.08e-11
0.006694
4.636e-05
3.012e-06
0.000311
5.598e-07
0.006658
0.0002394
6.733e-09
7.15e-05
3.401e-05
2.704e-06
3.626e-05
0.006691
0.00668
6.546e-06
3.915e-15
1.16e-06
2.256e-07
0.000892
2.56e-12
7.035e-05
4.779e-05
0.003118
1.823e-05
8.426e-07
2.341e-09
0.0006711
4.368e-08
0.001093
6.413e-06
0.006703
3.992e-06
1.056e-07
0.0003052
7.638e-07
9.01e-10
2.278e-07
0.006676
2.364e-05
6.84e-11
1.099e-07
1.644e-14
2.886e-10
0.001838
0.0003189
1.213e-05
9.399e-12
2.007e-05
2.443e-08
1.176e-10
0.003002
6.317e-05
0.006687
1.905e-07
5.132e-08
1.302e-06
0.006693
5.303e-07
0.006692
9.494e-05
9.204e-07
0.006685
0.002277
5.692e-05
1.048e-06
0.0002319
0.002325
1.266e-08
0.006696
1.028e-08
6.475e-11
1.129e-05
0.003014
7.225e-08
0.0009466
2.429e-06
0.0001133
5.77e-10
3.235e-07
8.626e-05
1.315e-09
4.489e-06
1.101e-07
9.098e-11
0.0001721
4.501e-05
2.251e-07
0.0002094
3.151e-08
5.155e-05
1.028e-05
3.118e-07
0.0003306
0.002306
7.5e-09
0.002106
1.176e-06
4.428e-06
1.762e-14
1.989e-05
5.941e-13
6.315e-05
0.006663
6.113e-13
1.128e-07
9.771e-05
1.056e-08
0.0004213
6.28e-05
0.006705
0.0007978
2.021e-12
0.0002927
4.633e-06
3.461e-07
1.054e-07
0.006695
4.252e-07
7.712e-06
7.02e-06
4.024e-10
0.0004483
2.675e-07
6.695e-11
0.006688
0.0002465
6.073e-05
0.002937
2.588e-06
1.818e-05
3.17e-05
1.584e-06
8.28e-05
0.000834
0.00332
4.699e-05
2.367e-06
0.006514
2.615e-05
2.167e-09
6.601e-14
0.006691
3.408e-07
1.047e-12
0.001708
6.796e-09
0.001403
1.03e-07
6.153e-14
0.003195
0.002697
2.523e-05
0.001005
1.229e-09
3.668e-06
0.0005165
1.138e-11
2.33e-07
0.0004605
2.772e-08
6.333e-17
1.555e-16
3.749e-05
1.817e-05
2.096e-07
6.971e-05
0.0007159
3.043e-06
0.0004806
1.607e-09
1.417e-06
2.258e-06
5.53e-08
2.908e-12
6.534e-05
2.838e-05
0.006692
2.685e-08
2.78e-05
1.75e-05
1.498e-05
8.041e-05
1.079e-07
3.485e-05
0.002955
0.006665
5.12e-09
2.977e-10
1.686e-05
1.128e-08
0.0002005
1.584e-14
1.923e-08
0.0001928
9.969e-08
2.393e-10
5.77e-05
1.877e-07
4.452e-15
0.006609
1.869e-11
8.728e-09
9.374e-08
0.005007
0.0002938
0.001168
6.282e-10
5.43e-08
0.00134
2.104e-10
0.004807
5.725e-06
5.467e-08
0.0001333
0.001701
0.006181
4.447e-09
2.125e-10
1.236e-07
1.567e-10
2.216e-11
0.0003278
3.876e-13
0.00274
2.629e-08
6.293e-06
0.002267
0.0001245
0.003244
1.101e-06
0.000665
1.937e-07
0.003261
1.979e-07
4.332e-16
3.282e-13
2.076e-05
2.09e-05
3.212e-05
1.253e-05
0.002
0.0002104
6.402e-07
7.267e-05
0.006697
3.704e-07
1.655e-07
2.533e-08
3.813e-06
2.718e-06
5.237e-08
0.0001939
5.254e-09
8.67e-14
1.278e-11
0.0001086
2.187e-07
6.711e-16
0.001024
3.952e-09
0.003203
2.328e-06
4.056e-06
6.251e-18
4.018e-06
2.547e-06
0.003675
0.0002108
2.306e-08
1.224e-05
0.006693
0.006697
0.0003948
2.173e-10
0.001283
1.83e-07
1.135e-13
1.701e-06
0.001263
4.048e-10
0.002136
9.546e-06
2.145e-11
9.084e-05
0.003947
1.717e-05
1.378e-06
7.251e-05
6.946e-07
0.006696
8.193e-08
0.002706
4.829e-10
0.003122
3.842e-08
1.48e-11
1.73e-05
3.596e-10
0.0001842
1.691e-09
1.323e-07
6.517e-09
1.936e-05
0.0008986
1.78e-05
6.347e-05
6.601e-09
8.129e-06
3.281e-10
3.029e-08
0.006698
6.292e-06
0.003237
1.085e-09
3.674e-07
0.00247
0.0008112
9.173e-05
8.808e-12
0.00357
7.136e-06
0.0004992
5.137e-05
0.001875
0.0002515
0.0001568
7.771e-14
0.0001044
0.0003552
9.408e-09
0.006671
0.0006682
6.908e-05
5.806e-05
0.0006912
0.006687
8.703e-05
4.46e-08
1.254e-08
0.006692
0.001064
0.002093
1.687e-06
3.796e-08
0.001244
3.497e-05
9.051e-05
7.99e-10
3.41e-09
0.001771
7.262e-07
1.644e-05
0.0001049
2.246e-07
3.034e-14
0.001473
7.756e-10
6.347e-09
0.001042
1.828e-14
0.006692
0.006661
1.282e-05
1.67e-05
2.587e-16
0.006692
0.001016
8.127e-09
6.827e-15
2.435e-08
2.028e-09
0.006313
0.00638
8.677e-09
1.023e-06
0.0001006
6.024e-07
5.587e-05
0.0009273
2.815e-05
0.006705
3.909e-10
7.742e-08
3.108e-07
0.0002247
1.369e-11
0.0005796
1.778e-05
0.006661
2.948e-06
5.843e-08
7.328e-10
6.984e-09
1.489e-06
1.947e-11
2.102e-07
3.664e-06
2.142e-07
3.109e-08
9.35e-07
0.0001099
6.689e-07
1.383e-10
0.004919
0.005103
8.363e-08
3.813e-06
1.529e-12
9.174e-06
4.515e-09
2.305e-07
0.002754
0.006691
6.997e-06
0.006702
2.834e-05
1.553e-13
2.241e-06
9.153e-05
3.241e-07
0.0001257
7.545e-12
6.122e-08
0.003186
2.356e-06
2.894e-06
2.572e-07
0.0003878
2.703e-07
7.858e-07
4.636e-06
1.861e-05
3.409e-05
1.934e-06
0.0007043
4.299e-10
1.418e-07
3.873e-06
8.342e-06
9.598e-11
1.373e-05
2.231e-07
2.027e-08
1.005e-06
8.049e-06
1.527e-06
4.1e-13
9.444e-05
7.675e-08
0.001603
0.001002
0.006703
1.249e-07
0.00218
3.76e-13
1.758e-07
4.105e-05
3.546e-10
3.419e-15
1.482e-10
2.974e-05
4.04e-07
4.558e-10
1.522e-11
0.00249
0.0003429
1.124e-06
8.092e-16
1.421e-06
2.199e-05
7.108e-05
7.149e-05
0.006692
0.0002711
2.297e-10
7.12e-06
5.468e-08
0.001878
0.0001041
1.075e-11
0.006643
0.0001204
8.796e-05
0.001123
8.886e-10
7.254e-05
1.849e-05
0.002663
5.615e-05
4.615e-08
1.308e-06
2.653e-14
1.326e-08
1.245e-06
0.006675
5.792e-05
6.831e-06
3.68e-10
7.292e-09
9.291e-07
0.002661
1.287e-06
0.006277
2.145e-08
4.639e-09
7.926e-06
1.59e-06
5.199e-05
1.396e-11
1.126e-09
1.312e-08
1.632e-06
6.324e-05
1.478e-06
1.705e-10
0.0033
0.0001196
1.112e-13
0.002968
3.817e-05
0.005172
0.006699
1.328e-06
0.002991
2.542e-08
3.513e-07
5.62e-05
0.0002504
1.235e-09
1.545e-11
1.626e-06
7.707e-09
1.294e-06
0.001311
1.177e-14
2.069e-05
2.718e-06
0.002726
6.917e-14
0.0005262
3.318e-11
7.871e-13
0.003676
2.086e-09
1.319e-09
9.214e-06
0.0002865
1.14e-09
1.198e-07
9.608e-10
7.922e-05
1.528e-05
0.0001973
0.003216
0.0067
4.33e-05
0.0003163
5.302e-07
1.37e-06
6.226e-06
1.239e-13
0.0003549
0.005268
4.121e-08
1.495e-05
0.001279
5.238e-07
9.331e-06
8.576e-07
2.131e-09
3.759e-10
7.877e-13
2.968e-07
4.567e-08
1.28e-07
3.522e-06
6.118e-07
2.168e-05
5.192e-14
2.003e-08
3.391e-07
8.848e-06
0.006676
1.412e-07
2.766e-08
0.0007165
9.669e-06
6.967e-13
1.565e-09
2.56e-07
0.000136
8.556e-06
9.178e-10
0.006689
2.033e-09
0.001229
0.0001358
8.672e-07
5.738e-09
0.006698
1.152e-07
0.0003135
2.387e-06
5.534e-12
3.439e-06
1.657e-06
4.324e-16
3.715e-05
5.569e-08
0.006655
0.006634
6.652e-08
3.049e-05
1.415e-05
3.643e-09
2.195e-07
0.006685
9.664e-12
8.02e-10
4.111e-05
0.006697
0.004379
1.109e-05
2.675e-06
5.833e-08
2.139e-16
2.984e-09
0.005297
2.446e-09
1.65e-12
8.527e-05
3.742e-09
1.921e-08
0.00284
6.09e-05
8.181e-10
0.001187
0.0001971
0.006631
0.006587
0.006612
0.006284
0.0001332
0.0005331
1.509e-06
5.922e-09
5.032e-06
1.878e-06
2.951e-05
7.348e-11
0.006148
1.393e-06
5.804e-05
8.144e-09
3.318e-10
3.116e-09
7.997e-06
4.562e-07
2.094e-08
7.4e-05
1.447e-07
0.0001878
2.499e-07
1.901e-15
6.022e-08
7.585e-12
4.051e-06
1.357e-07
0.006691
6.055e-14
3.219e-06
1.731e-08
5.689e-06
0.0001313
1.027e-13
0.006693
2.847e-05
8.213e-10
0.004111
3.276e-07
5.545e-06
0.0002365
1.699e-05
2.262e-10
8.514e-05
8.264e-09
0.006625
8.097e-06
4.693e-06
3.553e-07
0.0005721
3.683e-07
0.006679
0.005434
6.763e-05
3.813e-07
2.086e-09
0.0001028
0.000145
1.246e-07
1.318e-05
4.272e-10
1.75e-08
0.001353
0.002047
0.0005816
1.112e-05
0.0001027
5.948e-15
3.625e-06
0.00669
5.172e-12
0.006692
0.006683
8.947e-05
0.00274
7.314e-11
0.0003236
2.069e-10
0.0001227
1.867e-08
0.006695
9.888e-05
1.091e-06
7.308e-08
0.001444
0.003601
6.068e-05
5.204e-12
4.527e-12
0.006702
5.222e-13
3.555e-12
2.54e-16
0.00313
0.001565
0.0006545
9.179e-05
0.0006755
0.001806
4.643e-07
2.8e-12
9.756e-06
2.032e-09
1.976e-15
0.006691
1.186e-08
4.964e-11
2.371e-07
0.006693
1.216e-09
2.977e-13
2.791e-15
1.369e-14
9.58e-05
7.009e-06
1.807e-14
0.0002898
4.053e-06
0.006686
0.0001713
4.984e-10
0.002475
1.468e-08
1.488e-14
0.000106
2.576e-05
2.998e-07
0.006706
0.00461
5.412e-09
1.074e-09
0.002702
6.68e-10
4.328e-07
3.868e-05
0.0008883
7.178e-05
1.103e-06
1.68e-05
0.006692
9.857e-06
9.41e-06
7.172e-08
5.45e-08
1.096e-07
5.883e-09
1.746e-07
1.043e-13
6.857e-16
4.653e-18
4.112e-09
0.0001553
2.146e-09
0.0003423
5.342e-10
6.327e-10
0.006691
3.463e-15
0.006705
4.694e-07
1.594e-12
4.536e-11
4.02e-05
6.377e-07
1.97e-07
3.89e-08
0.006628
1.617e-15
6.012e-07
0.003115
0.000962
1.533e-05
9.958e-14
4.838e-13
5.561e-14
0.000601
8.676e-09
2.754e-09
0.0002281
2.558e-05
3.191e-07
4.949e-13
0.006667
2.092e-05
4.681e-07
6.551e-06
6.827e-07
0.0002381
0.002468
1.046e-11
1.946e-07
1.269e-07
8.45e-13
0.002646
4.031e-11
4.056e-05
5.691e-07
6.721e-07
0.006375
0.0001257
7.216e-07
4.828e-09
2.104e-08
1.14e-13
0.003135
0.004378
8.003e-06
5.195e-08
2.451e-11
0.0001648
0.002639
0.006437
0.0003093
5.217e-10
0.006356
5.11e-08
1.586e-08
8.886e-05
3.517e-07
0.0001361
5.455e-12
6.37e-14
1.231e-14
8.615e-05
2.471e-09
1.047e-05
1.287e-07
0.001787
0.001318
6.88e-13
0.0008119
8.634e-10
4.116e-08
2.172e-10
9.924e-08
2.579e-05
1.85e-13
0.0006402
4.435e-07
6.638e-05
0.003377
5.054e-07
0.0001268
0.002328
1.257e-06
2.857e-07
4.78e-06
4.364e-07
7.481e-07
7.526e-14
1.737e-15
0.002244
7.211e-15
0.002466
9.717e-05
0.0001143
0.0001944
9.012e-07
0.006704
3.024e-08
3.851e-14
7.493e-08
6.032e-11
0.0008987
0.0001309
8.224e-08
1.586e-06
0.0007678
1.857e-09
0.00131
1.17e-11
3.006e-07
0.00535
8.281e-06
4.213e-07
0.0067
0.0004543
1.097e-10
0.006694
2.252e-08
1.433e-07
4.628e-08
4.744e-06
2.858e-11
0.002746
0.0004587
5.378e-05
2.342e-09
1.147e-09
4.365e-09
4.998e-07
0.006684
1.523e-08
0.006688
7.4e-05
5.501e-07
0.000782
1.398e-14
2.161e-07
2.627e-09
0.00172
3.534e-10
2.372e-05
0.002573
0.0001178
7.577e-08
0.006669
7.556e-06
0.006694
8.975e-10
3.999e-10
3.891e-07
1.247e-05
0.006602
4.791e-09
1.357e-08
1.871e-07
1.467e-10
2.959e-08
1.231e-08
0.0006455
5.609e-05
1.102e-05
1.749e-05
3.987e-08
1.458e-06
0.0001097
1.83e-05
9.812e-05
1.224e-06
2.461e-07
0.006623
0.006662
0.002149
0.0003315
5.419e-06
1.551e-08
1.636e-08
0.002597
6.181e-08
2.211e-06
1.626e-07
0.006697
8.038e-07
5.265e-05
1.061e-10
0.002964
2.487e-15
5.657e-06
7.144e-11
0.003714
0.0001156
9.229e-14
0.0003069
1.758e-07
9.47e-08
4.216e-08
1.537e-07
1.727e-06
0.006693
9.928e-08
2.596e-07
3.316e-06
1.606e-05
8.113e-06
4.756e-06
0.0001011
3.305e-07
9.042e-09
0.006685
0.0001638
6.568e-07
1.368e-11
7.103e-06
0.006701
5.282e-09
4.684e-10
0.0001038
8.853e-05
2.344e-06
5.759e-09
0.0002105
1.256e-06
6.214e-07
0.002013
7.828e-06
4.275e-06
0.005372
5.319e-06
1.659e-14
0.0002923
9.804e-06
2.298e-12
1.392e-05
4.537e-06
0.006689
0.0003025
8.689e-05
0.003693
8.574e-13
5.6e-07
0.006697
0.00114
3.88e-07
2.034e-16
0.006697
0.0002478
1.016e-10
1.695e-07
6.597e-06
8.442e-08
6.014e-09
9.808e-07
2.879e-06
1.911e-09
1.457e-12
2.106e-10
0.002223
6.687e-06
0.0001346
1.085e-06
0.006683
6.061e-05
6.615e-07
0.0004568
1.958e-07
5.537e-14
3.665e-11
0.002116
6.454e-09
1.027e-12
0.00146
8.193e-09
0.0002396
3.422e-05
7.053e-05
2.279e-10
1.196e-13
0.006687
9.942e-09
2.439e-07
0.006697
1.759e-11
0.0002594
1.109e-05
0.0001352
1.453e-05
2.256e-09
1.456e-07
5.973e-07
0.006702
0.003264
0.002358
9.129e-06
0.006673
4.909e-06
0.0003833
5.825e-10
0.0023
0.0002282
7.395e-09
1.316e-10
0.001841
2.875e-06
0.006674
6.965e-14
9.743e-06
2.713e-09
6.071e-09
0.0001102
1.926e-08
2.447e-06
1.407e-07
2.553e-14
0.003028
7.014e-14
0.00667
0.006684
5.43e-05
5.923e-05
0.006683
8.242e-15
9.047e-08
2.727e-08
3.883e-10
1.034e-06
1.382e-05
0.004983
7.173e-15
0.00053
2.983e-07
0.006662
2.599e-05
4.302e-05
7.087e-05
6.897e-06
1.609e-05
0.002616
1.103e-07
0.006655
5.96e-06
1.837e-09
7.369e-10
1.245e-12
9.223e-05
0.0002432
2.158e-06
0.006699
1.8e-07
3.656e-08
0.000271
0.0002336
4.929e-05
3.256e-14
0.005998
0.006679
1.656e-06
8.494e-09
0.002006
1.71e-09
0.006701
1.5e-09
1.057e-06
2.343e-07
0.006701
6.974e-05
9.209e-10
5.986e-08
6.205e-10
6.964e-05
2.478e-06
0.006675
6.011e-09
0.004749
2.551e-09
1.101e-14
0.0009832
1.146e-05
0.0006743
2.485e-09
1.347e-11
9.898e-08
8.784e-05
0.006656
5.481e-06
8.342e-05
0.006688
1.009e-08
3.909e-07
0.001311
0.006684
0.000114
0.0001139
0.0001852
2.343e-08
9.55e-06
0.006692
6.045e-08
2.884e-07
8.715e-08
0.0005374
0.006696
0.006689
0.0003696
8.739e-06
0.001304
3.387e-09
1.964e-14
2.162e-13
3.232e-07
8.393e-13
3.839e-11
0.00248
2.864e-14
1.633e-06
1.194e-09
0.002632
6.738e-05
4.043e-05
1.151e-09
8.046e-10
1.547e-10
1.057e-07
0.0002798
4.037e-05
2.741e-08
3.555e-07
8.454e-06
9.147e-05
3.837e-06
5.922e-05
3.03e-08
0.004272
1.545e-05
2.128e-06
5.552e-06
1.174e-05
7.897e-10
2.833e-15
5.765e-12
0.006661
1.122e-11
1.221e-05
0.006651
4.699e-07
0.006694
2.818e-09
2.012e-06
0.002832
5.184e-09
5.304e-08
0.006707
3.045e-05
0.002455
1.481e-12
0.000936
1.622e-05
9.442e-13
8.53e-06
0.006687
5.077e-11
0.0001583
0.0004164
1.706e-05
0.001727
1.19e-07
1.938e-14
3.841e-09
1.867e-06
0.0009394
3.864e-07
5.078e-06
0.006688
0.000209
2.025e-08
3.411e-07
1.084e-06
0.006701
1.12e-13
6.81e-08
9.459e-07
1.023e-05
2.754e-05
6.439e-07
0.006654
0.0001529
3.272e-08
3.344e-07
4.799e-05
1.946e-07
3.381e-09
0.001872
8.283e-06
8.309e-06
0.001332
5.338e-05
0.002299
9.609e-07
1.284e-06
2.123e-06
0.0067
2.122e-09
0.002643
0.0001103
5.582e-06
1.367e-05
1.593e-09
3.518e-06
1.063e-16
0.0008222
3.744e-05
0.002022
0.006676
5.991e-06
1.441e-06
2.932e-11
1.341e-10
1.551e-06
1.125e-08
3.945e-10
1.809e-05
2.31e-05
2.025e-06
4.366e-09
2.987e-12
9.748e-06
0.0001386
3.261e-10
4.638e-05
3.322e-10
2.557e-06
0.0008319
0.0005838
6.036e-08
0.006693
5.524e-06
6.871e-05
0.006689
0.0001066
3.072e-10
0.002592
1.219e-15
4.773e-09
1.767e-07
0.006689
2.682e-05
1.847e-07
0.003569
6.584e-05
5.48e-06
1.392e-08
5.152e-07
1.37e-09
0.006695
1.767e-07
0.006679
1.374e-05
7.092e-08
7.438e-08
6.062e-06
3.249e-09
9.481e-16
0.006611
0.006692
6.343e-07
2.059e-07
5.041e-10
3.734e-05
3.042e-07
2.052e-09
0.0006279
0.001206
0.002856
1.871e-07
9.333e-11
3.303e-05
0.0001507
0.006686
2.555e-07
6.158e-05
3.83e-06
1.213e-08
1.19e-06
0.002144
3.215e-09
9.067e-07
0.0004283
5.797e-08
1.5e-07
0.0001614
0.006684
0.006536
1.182e-08
4.154e-09
1.422e-06
0.003157
7.499e-06
0.003184
1.255e-07
1.463e-06
0.006603
8.792e-06
3.426e-05
2.606e-15
4.9e-11
8.05e-10
0.00668
3.975e-09
2.185e-07
1.622e-08
2.319e-08
2.72e-13
1.691e-05
2.829e-05
2.368e-07
4.134e-07
2.429e-09
2.119e-11
0.002343
0.003037
0.003167
9.098e-05
6.535e-16
0.0008533
0.001645
6.242e-09
9.74e-07
0.001216
7.279e-08
6.426e-06
3.679e-11
0.0005577
1.027e-07
0.0001362
8.717e-06
7.5e-09
2.622e-15
0.0002311
3.586e-14
3.89e-13
0.006691
2.89e-14
5.89e-07
5.544e-10
1.272e-10
1.223e-05
0.0009308
2.25e-06
3.477e-07
2.221e-06
5.003e-05
0.0003353
0.0004535
6.618e-05
0.0004968
1.072e-05
1.612e-05
2.809e-05
0.001175
6.349e-14
9.506e-06
5.895e-10
3.44e-07
3.471e-09
0.006648
5.158e-09
1.768e-06
3.696e-11
0.0004556
3.029e-13
4.94e-08
2.638e-08
8.801e-05
1.501e-11
8.018e-05
0.0001065
1.811e-05
0.0001711
8.314e-05
9.032e-05
1.342e-06
2.339e-05
8.289e-07
2.288e-06
1.039e-07
0.0001299
3.288e-13
1.534e-06
1.993e-13
4.013e-05
0.0004687
3.753e-06
0.001369
0.0001538
8.086e-08
0.006691
0.003286
0.006691
5.825e-05
1.722e-07
4.306e-07
0.001946
8.324e-06
0.0001653
5.656e-05
2.145e-14
1.003e-10
6.886e-14
5.675e-08
0.0001143
1.473e-09
1.345e-09
0.0001229
3.124e-09
0.006695
5.868e-05
0.00281
2.09e-07
0.00103
0.00668
0.006676
6.24e-07
0.001877
0.0001465
1.717e-14
1.464e-07
0.006672
0.006692
5.337e-07
0.0002564
6.664e-09
1.695e-12
0.005023
8.539e-06
1.653e-07
6.672e-08
4.281e-09
1.614e-14
4.33e-06
9.171e-05
7.987e-07
3.019e-08
3.442e-05
4.666e-08
1.058e-06
1.425e-05
2.5e-09
3.511e-06
8.982e-16
0.005649
3.242e-07
5.788e-09
2.289e-09
0.006695
0.0001021
0.006691
0.0007963
0.0004706
7.068e-07
2.033e-05