/*--------------------------------*- C++ -*----------------------------------*\
  =========                 |
  \\      /  F ield         | OpenFOAM: The Open Source CFD Toolbox
   \\    /   O peration     | Website:  https://openfoam.org
    \\  /    A nd           | Version:  8
     \\/     M anipulation  |
\*---------------------------------------------------------------------------*/
FoamFile
{
    version     2.0;
    format      ascii;
    class       volScalarField;
    location    "25";
    object      omega;
}
// * * * * * * * * * * * * * * * * * * * * * * * * * * * * * * * * * * * * * //

dimensions      [0 0 -1 0 0 0 0];

internalField   nonuniform List<scalar> 
127143
(
1.528e+08
2.873e+08
3.278e+08
1.398e+08
1.173e+07
1.415e+08
4.635e+06
8.099e+06
1.294e+07
1.888e+06
6.817e+06
1.065e+07
3.857e+08
1.183e+08
2385
3.152e+05
3.958e+07
12.84
8.714
1.256e+05
24
2.853e+05
0.0848
375.5
3.073e+05
4451
2.309e+04
2.28e+04
1.553e+04
13.29
904.6
5019
2.535e+04
3455
0.04144
2.454e+04
103
74.75
254.6
8009
8.767
0.4134
0.2957
5.491e+07
12.48
2616
1.437e+04
24.19
384.8
303.2
1.983e+05
0.0252
33.97
0.1493
0.02092
1127
0.02091
0.6505
0.0221
0.1479
0.2911
9.255
105.3
0.02211
1166
0.4571
0.04296
119.2
117.6
0.0832
500.9
1.554e+04
13.19
0.02209
0.02179
1.578e+04
0.02262
58.64
1070
0.02222
1.569e+04
1.118e+05
971.8
4515
15.37
45.91
190.5
1.612e+04
0.3716
1293
0.02212
13.26
712.4
23.64
112.4
0.3858
0.3772
1460
27.06
0.04252
0.02221
353.1
5964
12.47
42.38
28.64
137.8
0.08353
2.319
0.02132
1939
2e+04
45.06
9.953
0.02174
5.251
0.02283
0.02179
0.02254
1.152e+06
0.02134
953.9
135.3
0.1726
1.494e+04
9089
11.54
0.02311
82.52
1360
92.29
126.8
68.14
56.46
4.474e+06
86.04
0.04996
16.13
1.303e+04
0.04216
0.1217
0.0222
24.92
15.42
33.99
117.8
6.703e+04
0.02213
138.7
9292
22.64
348.3
96.94
0.06752
290.1
15.02
0.6494
1814
23.39
1739
508
3.737e+05
0.02214
91.27
3847
875.4
141.8
0.5153
2426
0.02563
3281
15.28
8.451
62.66
0.2717
88.92
72.07
81.58
295.1
0.0327
62.27
0.03404
72.66
85.41
1275
9.08
0.07804
9.41
320.3
0.03159
42.36
112
0.04589
253.9
8.206e+06
11.08
0.0194
0.01934
8.832e+05
0.02176
0.02168
0.02578
3.654
87.93
4.437e+07
159.3
0.04866
43.75
13.53
0.02174
0.6825
19.83
0.02163
2339
173.3
9.14e+05
1.032e+04
47.22
67.67
0.04892
44.17
0.02184
360.5
38.77
2281
3610
2403
81.9
1066
16.43
26.43
0.0338
12.68
7.872e+05
25.94
0.08744
91.15
1.793e+07
0.02168
32.14
102.3
626
41.35
1696
118.1
9.128e+05
230.6
2.234e+04
6.814e+05
0.1007
4.346
3437
64.15
16.28
593.1
2.619
0.02308
1859
20.8
0.05029
11.27
0.02688
8.569
0.02215
103.5
743.1
451.7
601.4
0.6028
41.43
2081
0.2686
17.4
32.98
72.6
39.84
43.65
260
0.5136
14.38
0.07222
0.7981
12.16
0.02175
0.02173
7.561e+06
103
0.02174
267.2
0.03426
96.93
0.2197
0.08701
13.05
0.02166
8.18
691
465.3
41.49
36.12
1174
0.4171
0.2845
4.271
2735
127.4
43.01
0.02164
12.27
42.64
150.1
3413
1257
0.05674
0.02172
661.5
52.25
1266
0.305
2.306
0.07954
635.3
0.02772
64.67
691.3
59.75
0.03065
151.2
577.3
38.24
12.1
0.02173
0.04109
0.01941
0.01935
0.06605
2.265
8.401
12.14
123.5
0.04156
47.3
34.01
37.26
10.94
272.6
435.7
63.82
1020
121.1
858.6
8.185
103.9
38.9
0.02739
354.9
16.52
82.9
0.02345
581.5
13.36
93.09
18.7
300
286.2
0.02192
0.02176
1.418
1114
0.5106
0.9832
0.02786
2154
326.1
0.02993
0.06396
544
6.186e+05
23.3
0.5412
26.73
5620
789.4
0.4165
0.02275
4.988e+04
0.03466
6720
11.52
35.21
0.02179
0.1835
1764
628.3
330.9
857.4
0.1872
728.2
0.02733
0.0265
4219
0.02184
21.78
65.16
0.03549
34.26
36.01
67.03
0.02222
259.1
59.7
1193
0.1224
20.08
107.8
105.3
38.6
2847
110.1
516.7
130.3
1.886e+04
240.7
0.07617
17.08
0.05667
0.2576
0.08084
508.7
0.05674
0.02115
238.6
130.2
11.46
161.9
0.02192
45.7
350.7
0.02487
0.02166
0.02172
259.7
0.05076
3.533
0.02364
1278
0.02171
680.1
1.513
19.75
24.9
582.5
29.58
1383
0.03521
74.15
1403
397.1
57.91
62.26
58.93
61.79
16.43
2.449
59.54
0.2025
0.02191
22.57
552.6
0.02078
19.43
5.047
0.1731
56.37
0.04314
0.02028
224.4
3.693
1326
53.68
1.853e+04
604.4
306.6
1237
29.25
159.5
70.43
0.02162
1275
0.02223
421
173.3
37.55
126.9
1.384e+07
114.2
2.212
0.1078
4.167
0.02166
1.93e+04
0.02194
65
10.72
2.017e+07
1.01e+06
3.276e+06
0.02194
333.1
307.4
0.02172
11.62
184.7
100.8
15.46
26.13
604.6
19.14
1.249e+04
0.1712
23.49
6.654e+05
673.8
1070
2673
0.02198
20.78
2.449
17.73
0.02207
1776
9690
1684
0.01964
22.82
0.09327
6351
45.11
4456
15.22
0.02233
498.6
31.81
0.02081
0.419
90.02
571.8
288.3
670.1
1544
11.22
87.1
388.5
97.15
212.8
0.02186
5364
73.65
1398
81.69
33.94
0.02212
0.02207
0.04822
478.1
8.208
0.02172
0.02928
13.05
1315
37.31
30.29
2711
1.209e+04
6.283
0.02228
0.02134
1622
24.74
116.9
0.03161
1.481e+04
62.11
180.3
0.5325
2591
0.02171
32.72
42.82
27.58
0.02722
506
11.24
8.1e+04
0.02026
131
9913
0.02171
34.03
0.02173
191.2
55.11
0.02175
794.3
495.1
1846
85.01
29.42
776.7
731.6
54.85
225.6
570.6
293.6
134.3
57.45
1769
0.0267
963.9
0.02173
6.906
0.02333
25.86
0.02116
0.02174
1.067
500
38.67
0.02135
0.02115
904.5
7652
669.4
1146
10.88
3.268
24.53
67.1
36.07
355.4
1438
0.02138
244.3
32.49
0.8758
29.24
0.02225
0.02923
69.07
8404
70.09
4.298e+04
0.02328
0.03826
127.6
276.8
0.02554
1093
0.1207
0.08154
685.7
20.27
31.3
0.09074
3.463e+07
3029
55.41
75.13
99.47
146.3
1799
360.1
0.02428
69.07
620.2
20.89
0.02121
243.4
0.3033
0.1719
0.01963
0.02119
4.442e+04
0.1084
609.9
112.3
341.2
12.3
0.6657
1723
0.07824
610.5
0.02162
0.02089
6.571
0.05838
849.7
0.1703
3704
10.36
826.2
0.3064
19.43
0.03679
1314
0.04339
620.6
4.85e+06
71.16
119.3
21.73
0.02871
99.02
281.6
3.515e+04
10.33
13.86
35.88
7389
39.7
782.9
8.073
465.8
116
41.87
11.28
0.2663
7.471e+07
0.3016
0.02543
184.8
207.6
171
0.02154
173.2
8.262
36.6
0.04107
4.6e+04
204.3
2667
0.0462
427.3
131.4
323.3
134.2
0.03866
23.93
2516
810.3
17.13
0.02178
34.59
315.2
0.02178
45.98
1.581
131.7
111.9
0.3535
72.19
5370
355.1
0.01934
24.26
9.398
4912
995.5
0.1693
11.34
1276
0.01938
92.84
673
48.77
5.467e+05
51.37
1533
35.81
34.49
8.447
0.02193
5.587e+07
87.96
76.23
3684
41.28
391
178.2
402.7
0.02132
8.757
12.94
0.03886
236.1
411.7
140.5
131.4
0.02048
22.87
106.9
0.02162
0.02042
29.37
9.412
10.86
389.5
32.2
1.967e+05
19.83
0.1545
0.02123
45.27
119.3
772.5
2064
0.4516
0.05545
0.0219
2.049
1.77e+04
0.02125
0.2143
5191
102.3
4947
0.02661
30.98
105.6
0.0218
974.6
0.0212
309.8
1.857e+04
221.9
142.3
1.279e+04
0.02193
750.4
0.1008
1577
1257
1805
1.122e+04
0.1673
0.9081
1.32
8e+04
0.02178
74.26
1048
1004
660.4
1.524e+04
0.05325
0.6902
1682
8257
4.347e+04
368.1
1.39e+06
622.3
2.557e+05
122.8
2972
8.868
3.429e+04
0.02258
163.6
0.02725
0.02652
22.55
0.02505
76.55
14.35
7.938
3.066
0.03699
907.2
202.6
0.02179
12.21
88.65
0.03567
884.4
1.514e+05
42.42
42.14
1982
18.29
607.8
0.02168
37.33
605.9
0.02325
661.7
73.23
8.884
0.02069
2.422
18.08
4.518e+05
12.3
1.531e+05
18.4
96.56
159.3
1.505e+04
361.2
0.02362
1.006e+04
0.2587
0.02427
5.364
4.851e+05
32.2
720.3
21.39
8.55
2.94e+04
2.333e+05
380.4
0.02225
0.02183
41.69
17.03
159.1
671.2
44.88
5389
129.5
0.06178
5547
0.04421
7532
0.0216
25.65
3036
16.46
224.2
24.96
0.02177
0.02179
2513
0.1525
327.1
364.9
849.7
15.03
98.96
220.9
231.3
6.158e+04
29.5
1040
854.3
31.69
13.68
234.7
343.9
6089
1.783e+05
26.55
0.02154
0.02139
19.63
45.26
1.35
0.02079
78.69
24.85
1.285
615.2
87.74
447.7
2.054
0.02223
0.2776
1.366
1.449e+04
2713
141.6
0.2446
68.15
1023
354.3
54.71
9.352
146.4
185.3
141.9
6202
0.02292
1.738e+04
1.811e+04
9.218
74.86
2425
0.02173
4.593e+04
7.034e+04
0.02189
0.02154
41.84
33.15
6.497e+05
709.8
157.3
847.5
731
0.3442
0.6816
0.02264
908
19.67
390.6
8.756
7805
62.11
0.02908
4.612e+04
219.1
0.02172
277
0.02549
0.02164
50.64
0.09177
4.652e+04
0.02157
965.4
0.02181
500.8
0.07806
11.88
17.86
912.9
503.2
819.3
78.41
0.05473
0.0374
16.66
282.3
415.7
525.7
1.474e+04
868.8
7.036e+04
96.27
698
683.4
486.3
5163
0.1116
9.118
0.04804
486.9
311.8
2446
0.06581
1271
13.6
126
210.7
45.89
2.379
1412
9.994
125.6
428.9
1382
1322
0.02108
45.76
483.9
0.0218
237.8
867.1
0.02066
5.956
619.2
0.03504
0.1161
24.42
115.8
0.1522
0.01976
226.4
265.8
0.02161
0.08754
0.02889
24.61
325.6
27.08
0.0338
3026
1.393e+05
889.2
363.7
14.65
3.439e+04
0.0778
202.2
0.02176
50
31.37
178.3
212
3971
9821
0.02196
6.662e+05
1967
1366
90.81
1590
9.725
10.5
3139
120.2
0.03175
1.342e+06
69.81
401.4
1665
254.3
428.8
102.8
7455
154.1
132
141.7
602
423.5
28.77
1.237e+05
0.1023
208
0.09076
991.4
0.01969
0.02165
60.23
4.436e+04
28.37
1.469
5.257e+04
1516
0.02179
6665
153.5
120.8
1.543e+05
6.376
140.7
1.349e+07
12.51
1.136e+04
14.22
124.6
5099
408.1
1668
32.14
317.9
0.07884
18.23
41.47
161.8
28.08
141.3
11
3.028e+04
20.24
0.2618
15.13
0.3892
0.5068
32.81
1.178e+05
0.03498
1.049e+04
3073
185.7
86.23
0.0218
11.72
53.76
1.033
5046
1517
2500
0.02135
613.6
3171
41.46
4.489e+04
135.6
8.627
1078
0.02185
1419
133.6
1.394e+04
158.7
0.06825
15.54
0.0217
1.649e+05
5.217e+04
67.64
0.8885
24.48
0.02086
0.01977
857.5
24.52
7.985
0.06435
0.05135
0.05237
4.259
45.42
11.6
266.6
321.9
5.354e+04
1.221
1939
203
323.1
0.0198
847
13.2
144.4
6.637e+04
88.75
9.099
135
92.39
28.22
2.07e+05
26.39
60.85
11.85
9.339
11.45
311.6
1.718e+05
0.1078
2613
0.02118
385.8
1997
0.0203
4649
77.94
103.2
627.2
0.02138
1.111
4.349e+05
0.02174
291.1
804.7
128.1
1.781e+04
1.188
11.78
1471
4557
96.19
215.7
0.04831
180.3
1.209e+04
1.756e+04
382.4
88.6
0.02169
233.6
8.52
1695
412.5
9.46
93.92
0.02167
7.237
315
0.0221
10.27
0.02262
6654
10.66
3.676e+04
240.4
39.36
1051
38.98
219.2
769
3.406e+05
92.67
207.4
39.25
26.09
16.94
0.02211
138.8
0.02201
12.83
0.022
13.72
0.02147
326.5
176.2
0.02065
0.02161
949.4
0.1434
1341
0.08909
0.02002
26.3
44.89
0.03048
3.475e+06
5120
3.608e+05
226.4
73.64
390.8
249.9
59.43
2.531
8377
30.94
2216
691.5
58.3
65.68
7.919
0.02155
3.379e+05
66.04
6907
0.02178
6.054e+04
436
445.4
239.1
0.01973
0.01971
15.18
29.66
6.089
10.54
109.9
1.606
0.7453
2.776
11.11
3586
84.02
0.8492
31.49
11.58
1286
1008
145.9
437.2
20.52
0.02185
286.6
370
1.805e+04
32
0.03527
144.6
1.267
187.6
117.3
1858
16.32
0.02174
33.85
104.3
8.551e+04
1.745e+04
1.378
86.26
1705
0.1273
0.01972
2423
491.7
3.128e+05
0.04916
1.252e+05
167.2
0.02152
189.2
2020
10.09
0.09124
14.58
1316
103.1
88.28
36.02
3304
0.0402
789.4
1676
1097
0.05665
0.05652
538.6
15.39
3.02e+05
200.6
1390
1731
3.397e+05
1.488
461.7
0.02436
0.02174
0.0215
20.47
0.02318
9.468e+04
0.02172
1.183e+04
0.2655
109.7
194.8
1022
0.09415
3.235e+04
0.3084
750.8
21.66
1.534e+04
0.02167
149.3
929.6
18.24
1.576e+04
2948
37.53
2235
4967
0.0457
0.0206
1.446e+04
0.07303
0.01995
0.276
1.278e+04
0.0206
4765
0.02184
28.35
141.8
13.52
262.5
0.02091
27.87
768.6
100.8
0.05502
30.71
0.1495
0.02173
0.02122
39.97
6.153e+05
72.9
140.4
0.02373
4.001e+04
0.4044
0.07169
0.0608
3.158
209.8
835.1
0.02452
476.2
0.02217
42.57
0.02217
0.2159
307.2
46.49
5.496
1440
216.3
0.02119
53.97
3108
610
5.53e+04
1794
8.9
0.03368
9.704
5.391e+04
38.85
837.6
3.801e+04
0.07487
0.1162
0.02159
120.4
294
81.27
0.0218
847.2
0.02175
0.2021
218.4
0.02136
8.581
0.8641
100.3
15.04
1.102
428.5
0.0219
650.8
7919
11.76
8.405
232.4
0.0412
142.8
96.12
4813
200.1
92.9
1016
69.99
146.6
1.247e+04
0.07028
0.1225
227.2
0.03365
309.1
28.84
0.08055
122.9
0.02379
0.3749
6337
17.63
126.6
166.1
5.805e+04
103.6
1.793e+04
2.495
0.02066
1.8e+04
205
0.09375
451.8
0.02744
36.9
0.02223
10.05
1.104e+04
13.9
35.65
124.6
210.1
0.02187
108
0.2398
23.4
1871
0.02473
133.2
3402
0.02159
0.02482
141.3
0.07335
80.91
8.569
5.109
84.85
1.574
23.72
0.07082
3.31
76.25
0.02109
0.1484
1537
5.915e+04
0.02085
487.4
1.69e+04
11.75
547.1
10.55
197.3
5.757e+04
0.05809
0.1115
216.6
0.02477
1261
44.37
29.43
6684
219.3
0.02433
207.2
8.88e+05
3.328e+06
177.3
252.9
215.8
2.174
19.5
27.01
34.64
1619
684.3
788.1
476.6
2.786e+04
30.44
5.037
0.0217
1902
4.99
50.87
0.1431
0.03763
218.7
188.8
8.384
0.02035
879.9
1784
123.8
421.1
17.26
6.264e+04
441.6
0.0259
279.7
2.313e+04
25.52
161.5
1.029e+05
0.01939
8218
2438
207.7
0.02754
28.8
12.81
1337
365.4
16.49
1994
0.03336
4.692
262
0.04929
13.29
0.02166
625.5
6680
186.9
2577
3.71e+04
33.17
2.154e+04
0.1075
2229
23.8
9.756
0.03401
9.845
60.86
23.39
152.9
0.06496
169.6
2.349e+05
6.279e+04
112.6
67.11
0.7083
0.7431
0.02184
0.02515
77.34
0.4115
0.02165
118.4
166.3
330.2
365.7
35.38
350.3
37.66
4838
6.685e+04
7.257e+04
0.08568
154.4
1.833e+05
10.7
6934
9.916
33.92
60.08
2.326e+06
21.55
31.13
0.04352
0.05176
1172
152.6
0.02172
0.02196
13.67
2003
17.24
166.9
3.851e+04
18.05
0.02386
1593
10.16
211.1
4990
1.333
7.358
33.76
111.8
2.204
110.9
0.02188
1908
8.923
1453
17.14
294.4
8021
8.633
1651
52.4
1602
178.8
6840
0.07123
12.68
76.84
37.23
806.7
242.7
1.332e+04
979
0.02164
317.7
10.06
1128
120.4
0.2664
14.79
0.07448
6648
0.04854
207.5
34.44
117.3
11.94
16.21
0.6639
6.426e+04
0.2122
0.02427
2071
0.02091
22.14
0.03012
2.696
10.62
0.02151
0.3642
281.3
4706
0.02176
0.02287
11.12
42.02
301.7
0.1568
52.79
90.89
1746
719.2
28.45
136.3
124.3
0.08981
143.6
6.626e+04
9.118
4483
576.1
9.718
5.701e+04
0.02172
0.0206
1.515
7.327
3.695e+05
0.02179
11.18
1656
3.357e+05
736.2
1002
0.01981
0.01953
489.1
123.8
97.47
220.6
0.03115
32.78
5.068
0.02222
1568
268.7
128.8
59.79
5912
9.5
9.055
0.01978
28.3
344.5
1450
795.9
99.9
1.723e+04
1441
50.36
152.1
463.3
118
0.06697
160.4
1.197e+04
0.02793
0.02653
600.8
295.2
1.381e+04
1.769
1351
155.9
0.1408
0.02173
22.51
0.02211
34.71
3.867e+04
38.51
0.121
144.2
0.04384
2.439e+04
717
0.0657
33.33
30.41
141
36.68
195.5
132.9
65.99
39.96
65.61
38.74
13.03
2957
198.9
69.52
364.1
2.067e+04
220.6
1273
1349
2.921
2.212
51.57
2.101e+04
0.6893
189.3
0.02218
17.25
0.02214
186.3
8.395
2.138e+04
309.7
0.07993
3053
2.149e+05
2486
33.43
108.7
1562
5328
0.2648
39.85
57.59
1.375e+05
144.8
64.34
0.2787
0.2773
0.02174
17.38
1.703e+04
15.72
4193
12.28
0.07176
4124
0.01971
46.62
0.8755
18.87
2763
0.2077
8.331
8.515
0.03541
461.9
52.62
7.103e+04
2605
158.7
0.0214
69.38
120.6
1.174e+04
1293
66.09
7.907
72.25
0.02171
415.3
1415
12.73
84.34
30.75
5253
1057
727.2
103.4
0.7283
1.379
2.746e+04
9.261
0.06202
9.239e+04
0.06777
17.09
0.02173
0.02199
116.2
0.02185
1839
145
34.53
16.69
1025
4557
159
1897
145.1
16.92
5.936e+05
38.01
114
2.259
2.315e+05
11.27
1.872e+04
2.283e+04
0.04341
1694
1015
12.85
13.99
1.227e+04
728.8
2916
26.06
42.58
0.02572
8.435
0.02206
1.158
13.54
1188
79.83
52.6
3.793e+04
14.96
0.02183
416.2
52.2
19.72
86.49
49.63
213.4
875.4
3030
1.611e+04
471.4
271.9
1921
105.4
402.2
0.06391
2.896e+05
359.6
124
1.808
0.02157
273
479.5
19.58
12.51
1.74e+04
1397
324.1
80.36
54.26
4305
0.02163
1.622e+04
9.435
0.03432
87.64
859.9
0.02165
270.5
13.97
44.76
2.272e+04
36.65
87.3
2.325e+05
48.11
245
0.01967
0.01961
237
102
11.2
677.1
149.9
0.02151
5984
1461
29.34
0.02173
0.02184
35.03
61.61
246.9
7.852e+05
1003
0.02904
822.7
7.168e+04
0.08119
759
390.3
0.1042
2.623
3125
35.98
59.32
0.01963
0.01949
0.01946
0.0202
0.07803
34.3
51.8
1114
19.62
493.1
32.22
1985
0.02078
102.1
72.29
7292
1603
9055
454.2
101.1
359.5
24.62
176.8
0.1037
131.5
4.4e+05
308
6836
0.2613
357.6
0.02172
2.413e+05
99.77
461.2
16.77
0.0301
6.597e+04
0.02179
105
1126
0.04344
133.6
134.1
14.96
217.2
1.433e+04
0.03732
1230
0.02066
5.297
121.2
440.1
18.74
182.6
0.0215
0.02169
0.1695
1604
1693
0.2401
17.89
153.4
9.944
6744
387
13.38
9.862
30.56
82.85
0.1569
1.108e+05
0.2248
0.02173
1.538e+04
0.0217
0.02166
0.4234
0.1071
1.213e+04
17.05
2175
36.55
417.6
0.02187
0.08332
715.8
233.4
13.69
0.05525
0.2024
5.181e+04
7093
0.02213
1.333e+04
8808
3.719e+05
0.06826
11.64
14.16
0.07574
0.02313
11.38
243.5
4.721e+04
0.06577
842
2.548e+06
0.02174
470.3
3140
145.7
0.02178
1068
8.948e+04
1.47e+05
7.861e+04
0.8578
134.2
7.953e+04
0.04709
129.6
0.02153
16.91
1261
8.245
593.4
7.615e+04
0.2334
250.4
196.7
0.02225
0.02916
626.7
1621
9.938
1.587e+04
115.6
3.874
12.38
24.88
605.4
85.6
0.02174
40.62
36.32
238.1
650.5
372.4
588.3
591.7
1.003e+05
1.151e+05
1.426e+06
658.7
0.04594
1793
0.02429
1383
2640
0.02175
7.411e+05
0.02221
308.2
1.788e+04
4189
131.9
247.6
819.2
744.2
0.01963
6.548e+05
196.6
0.05796
11.61
207.3
1.143e+05
1.995e+04
2.295e+05
10.83
620.5
6382
15.37
0.06503
121
1.301e+04
0.02088
75.79
98
411
83.56
52.49
11.32
6139
159.1
219
1.824e+04
0.07156
3957
0.07538
91.95
371.7
0.02333
0.07647
79.89
962.1
374.7
9.635e+04
0.05592
0.02171
13.51
268.9
4737
42.76
7.918
0.01962
0.02795
1528
0.01995
560
521.3
0.06472
176.7
73.5
2.732e+04
1.027e+05
6.038e+04
0.03196
781.4
137.4
176.9
11.77
9.085
2.372e+04
15.66
1775
286.1
1.225e+04
213.2
6.13
4.917e+04
29.72
109.9
25.16
0.05137
94.32
0.2183
0.02181
54.87
543.1
83.65
211.8
72.95
1.881e+05
2.948e+05
10.4
2.179e+06
0.2767
0.6016
0.03003
0.04652
90.08
0.02221
783.8
8.62e+04
706.9
7465
44.9
40.68
322.9
105.1
13.33
828.3
16.83
8696
198.4
0.0258
223
113.2
0.02204
0.03585
2623
0.02185
225.6
247.5
281.3
23.42
4136
0.09591
34.74
0.03489
1011
2.093e+04
1203
99.95
0.02143
689.3
0.02154
0.4404
229.2
39.47
5.727e+04
221.9
770.7
9.384
3791
0.5285
0.2046
24.12
568.6
0.02083
15.7
0.02185
1316
2596
286.1
103.7
0.02159
965.9
416.7
107.4
5.814e+04
245.7
3810
0.02268
34.29
11.39
8.628
362.7
48.65
0.07492
2.567
0.1119
114.1
118.3
0.02069
0.02025
0.022
0.03399
0.1218
5561
751.6
0.02177
240.4
62.82
169.2
0.02194
181.8
0.05711
2618
0.09256
4.34e+05
138.6
3068
0.04331
0.08904
6.113e+04
0.02705
160.2
246.4
389.3
371.3
101.2
0.02181
261.3
790.5
71.66
120.2
38.15
19.37
37.12
132.9
1216
0.02149
17.17
84.45
7238
0.09108
0.02209
425.9
2187
23.37
21.33
33.82
1016
0.03933
52.38
1136
10.9
373.3
93.48
0.02568
17.68
6.327e+04
72.87
333.9
7276
2.483
25.43
0.02166
0.02655
0.1166
0.04587
5.861e+04
169
0.02195
0.0223
117.6
3.039e+05
0.02194
28.14
2.156e+04
162.4
19.87
205
2658
105.8
35.84
861.4
1.143e+05
3170
0.02182
70.25
43.41
134.2
0.02139
0.5305
252.7
31.69
570.2
7.493e+04
7252
14.75
980.1
1.197e+05
9.416
1081
26.05
3.706
2.21
2451
4.161e+04
0.02157
307.7
137
0.02193
7508
17.13
2.972
0.06394
46.38
830.9
397.4
123.3
0.02166
0.02175
12.38
343.6
0.02
25.65
0.02439
2779
10.61
16.42
547.3
2357
17.81
82.71
0.02139
7.324e+04
17.18
4493
562.3
0.06249
719.9
46.99
266.7
5.746e+04
7.932
5.368e+04
0.02075
0.02123
37.36
0.04439
0.02139
1.404e+05
209.6
479.8
6043
99.92
46.73
0.02793
1.362e+05
0.04037
141.6
0.02023
0.08769
125.6
57.29
61.68
41.58
8.893
1467
0.02046
59.03
6675
6811
9177
0.1201
58.34
35
0.02195
1495
425
0.8771
0.03946
163.5
5.911e+04
0.02188
0.0215
44.17
4189
10.89
2542
0.02206
9048
149.7
142.4
0.02208
0.06384
1137
336.9
3258
25.91
69.9
0.02043
842.4
0.03048
1150
9.584e+04
0.05775
247.5
10.98
1.418e+04
3.742e+04
1871
0.05122
0.02047
57.14
0.1525
0.02163
467.2
239.9
9.607
0.02032
0.06674
0.06644
0.02584
739
87.27
0.02173
838.3
147.2
2225
0.0257
0.02191
0.02162
0.05219
132
20.7
708.7
6.074e+04
3.597e+04
135
1.171e+05
5070
0.02283
5.176e+04
79.53
5143
8.94
0.1176
3.055
1.216e+04
1197
3449
612.8
0.0505
33.21
518.9
122.1
18.36
0.2098
392.5
0.1086
445.3
0.03591
40.99
42.58
24.49
0.16
1155
1.127e+05
8116
0.02061
5.883e+04
44.81
0.01993
254.5
0.02181
2686
91.62
0.1174
477.9
537.9
0.0223
2.992
8.274
1.553e+04
0.02227
0.1221
1.586e+04
12.6
0.02157
3791
41.91
0.03065
0.1152
15.01
185.4
7.11e+04
673.2
90.84
10.21
1673
0.517
0.02169
0.03841
636.8
122.5
112.5
0.02207
1.625e+05
227.8
61.17
341.1
46.37
88.7
0.02017
0.05715
737.4
212.1
0.03755
157.7
805.6
9.211
2.302
8.9
9.95
0.03598
8.413
60.6
81.01
41.43
0.02205
1991
0.1629
49.58
20.76
8.549
6908
85.35
4.131e+05
14.21
0.4428
0.2606
0.02118
16.94
49.48
4697
1879
223.1
488
3834
36.92
0.4214
84.03
686.4
1.036e+04
37.49
0.03594
1915
1.547
1701
30.92
9.932
31.99
238.6
0.02179
358.3
0.2462
0.02164
2.738
1909
1.276
2.814e+06
718.4
1332
0.02165
36.97
226.4
0.0487
25.28
41.82
4510
530.2
4242
0.02188
128.3
0.02064
8.503
342.3
720.3
19.6
790.1
2.1e+06
0.02147
0.02174
89.74
187.1
1535
3.929
143.3
878.5
24.33
14.65
0.02178
459.4
2886
0.05974
34.69
0.02156
172.5
0.04819
70.44
447
128.7
0.3128
2901
120.7
0.02488
712.5
160.4
0.6772
0.02145
0.02262
488.3
4596
49.32
8.052
96.11
17.09
186.4
51.17
0.0194
0.1519
0.4903
1.148e+05
3690
2196
0.02134
661
150.2
3379
2201
2.486e+04
9.472
30.68
148.8
107.7
800
5334
22.32
0.07284
9.956
0.02978
2.109e+05
0.02227
13.98
571.1
65.15
14.7
676.7
59.53
1.55e+04
12.99
1067
54.64
12.3
469.5
1.111e+05
33.56
6.219e+04
3.377e+04
0.02174
6.883e+04
252.7
1764
3422
40.33
44.1
385.2
111.1
38.68
0.03466
14.03
17.6
123
33.57
84.52
0.4447
4.89
33.58
7.111e+04
52.07
1.147e+04
122.3
683.4
0.02027
890.2
93.41
5431
11.94
2.312e+04
380.6
339.9
0.0741
4457
0.06434
19.9
40.01
0.06856
1.568
26.06
52.04
211
416
33.23
201.6
46.61
2.273e+04
47.71
3.805e+05
0.03447
47.54
281.8
9.035
0.03938
690.3
0.02172
0.02192
0.02173
64.97
161.5
1353
15.22
0.07454
51.44
0.03719
3.767e+05
3209
6.782e+04
251.2
0.05483
945.8
6893
0.07403
2547
0.02186
34.07
8.614
988.8
32.51
0.02128
0.02138
142.2
9.092
0.03597
7.271e+04
176.5
0.02095
0.0218
91.22
0.03044
749.6
1.263e+04
0.03149
16.56
864.9
549.5
473.6
7.606e+04
35.35
0.1417
69.13
304.4
0.1111
397.5
78.37
1.686
824
139.5
2.207e+06
0.02682
143.3
1.166e+04
2027
0.02183
41.25
0.02176
12.57
61.02
99.48
36.62
334.3
111.1
0.1634
2108
3075
1176
1212
1013
72.7
14.9
107.6
359.3
27.62
487.7
0.02221
6.457e+04
2.051e+04
2326
65.11
27.22
2846
725.1
0.2872
0.3728
7.4e+04
186.3
0.05468
0.03166
0.05178
399.7
794.7
29
5195
67.48
0.037
171.9
101.7
78.76
481.2
3.924e+05
1347
145.9
631.1
48.33
114
3759
73.5
16.37
9.357
2312
38.3
0.2448
65.6
805.9
0.07874
147.8
0.2568
16.11
7.513e+04
1240
0.02204
1017
14.5
2.847e+04
1825
0.02136
0.09475
842.1
0.02834
44.31
2456
950.3
9.175
0.02175
0.1852
12.49
17.53
0.08135
422.7
0.02077
681.1
28.01
623.3
636.3
82.42
85.54
459.2
934.4
0.1564
114.1
0.02181
1.014e+05
0.03357
0.03102
609.6
0.02178
30.4
11.16
1.349e+06
0.02196
144.8
214.6
566.9
388.6
0.2536
85.92
38.45
365.9
3921
40.41
0.06889
0.02192
469.4
696.1
22.39
89.32
1977
4768
0.7623
0.02113
60.61
298.5
1.561e+05
90.35
98.73
0.5992
230.1
0.0215
30.23
8969
1959
0.02197
0.2108
1682
0.01979
117.4
2271
34.42
0.02195
0.022
8.226
0.02313
0.02013
0.02173
8.292
1430
2159
0.427
162
18.2
16.11
0.02225
20
115.1
0.04195
0.6325
1850
12.79
0.02509
3098
57.66
7.883
6.458e+04
7.791e+04
0.02478
151
14.88
571.9
74.4
6718
0.02194
155.7
7.071e+04
11.01
663.7
0.8559
3303
72.75
201.4
29.12
2.85e+04
0.04948
2.215e+04
45.3
0.02538
0.02833
0.02006
387.8
31.65
4849
342.1
1.124e+05
0.06889
0.01942
205.4
222.2
0.06844
0.02179
1106
10.15
1858
55.95
2967
369.5
147.4
26.6
268
0.01972
3.59e+04
216.2
76.84
30.42
0.06482
0.02188
31.23
13.58
456.6
7351
68.57
0.03833
74.87
16.18
0.05618
0.02182
1792
203.7
9524
279.8
33.7
2.75
83.01
20.69
13.54
126.1
0.7754
0.1305
0.02192
87.62
2.853e+04
26.44
0.4451
8423
0.5031
0.02168
18.65
0.02907
0.02203
44.76
0.01937
0.01932
9.146
0.02011
55.44
9.702e+04
593.7
12.22
0.1346
0.02113
0.02197
55.39
217.5
68.74
6.945e+04
17.28
0.03008
10.32
55.67
4332
1.588
0.02198
2.705
96.59
0.02203
0.02136
104
244.8
0.05049
0.02775
95.36
0.0213
1.687
0.02148
3.923e+05
2.957
1555
9.582
0.02706
0.4442
8.878
26.51
800.4
20.41
105.3
13.47
0.02214
4.835e+04
18.47
222.5
0.02191
801.6
424.4
132.2
1173
0.2371
548.6
25.48
0.1371
6121
0.02205
8.498e+05
38.94
2.974e+04
0.02197
237
0.02173
0.08395
10.13
1.316e+04
14.14
552.8
15.33
0.113
3444
0.1273
3229
5439
8.119
0.08414
0.05505
626.8
0.02162
7.944
31.41
53.4
40.34
0.02175
1.906e+04
0.03444
413.7
1073
67.3
1999
1.396e+04
22.14
1141
122.7
1.446
21.48
0.4474
0.02172
0.02181
985.9
12.06
2.224e+04
68.87
160.9
0.02179
90.05
0.02179
0.02168
0.03236
422.1
0.1054
15.8
0.03509
62.6
0.1861
91.19
291.2
2688
0.02472
463.2
383.7
127.5
0.1773
25.19
0.02187
114.4
0.414
110.8
16.41
0.03355
249.3
1.499e+05
593.4
3117
32.95
3.967e+04
1916
3.918
95.21
2726
58.21
1.769e+05
736.9
35.79
85.66
171.4
51.14
2421
708.1
0.03883
27.6
0.09203
570.3
3.333e+04
113.8
3225
939.5
16.36
611.7
0.03332
251.6
53.41
8.155e+04
11.95
0.02235
27.56
22.82
169.2
0.05848
68.84
175.6
38.89
0.5299
462.5
83.49
1.467e+04
399.6
157.6
30.17
20.52
1676
0.02442
798.1
16.29
0.02341
114.3
116.5
588
936.9
282
0.02202
944.2
26.95
0.07581
2.989
672.5
2.507e+05
219.1
0.02084
0.02465
0.3724
522.2
91.97
0.0215
3.794
632.7
731.4
1.797e+04
0.02103
261.7
8566
83.7
1.927e+05
139.1
181.1
134.6
36.2
58.37
0.02314
109.3
7501
45.37
316.1
3.952
37.05
0.02163
0.0731
633.1
290.8
35.69
2449
137
0.0217
8629
119
0.1706
487
1.653e+04
2.661e+04
0.04202
0.1348
0.02439
131.2
7120
1031
2685
162.8
299.8
0.02181
90.22
5.007
9.167
1.168e+04
0.5767
6.954e+04
59.68
5314
0.0326
200.3
3515
0.02168
160.8
206.8
210.2
10.57
0.0219
0.02168
0.03841
49.26
0.0217
12.05
2.457e+04
0.1077
23.32
627.4
0.03768
103.5
11.99
0.2701
5018
120.7
2.088e+04
94.91
0.02173
400.7
6122
0.0217
1.386e+04
10.29
152.6
61.91
761.3
37.83
441.1
14.49
12.19
0.02194
13.39
0.02178
0.05549
3005
149
87.89
70.38
1.889
282
0.02174
0.01965
0.05066
225.2
67.11
126.5
6.964e+04
16.02
0.8547
528
1.074
49.73
0.02135
1687
952.2
20.73
13.72
178.6
172.7
49.11
31.63
1.702
0.02247
153
23.55
143.2
4935
6.412e+04
755.1
0.02149
126.5
35.05
18.24
3.246e+05
0.02164
123.1
31.07
25.19
139.7
34.6
2.003e+05
135.1
48.07
930.9
8644
29.45
61.87
7227
4.262
0.02168
384.3
23.82
44.9
84.73
18.22
1.734
0.04469
1933
581.3
2478
27.29
1875
562.9
0.02171
352.3
58.46
102.4
13.8
0.01935
415.7
85.13
70.39
13.42
0.02133
846.7
13.32
14.42
104.7
201.3
171.2
63.51
739.5
651.6
0.01992
257.7
78.88
224.7
875.9
662.5
67.19
31.45
53.42
8.45
166.4
1407
6.597e+04
1370
545.7
3.763e+04
29.27
0.0776
9.055e+06
502
5161
0.03545
4852
4713
391.5
60.58
0.02193
2.437
0.02178
20.57
180.3
15.65
0.8713
14.94
1485
43.13
8.445e+05
15.89
357.9
2410
6.05e+04
878.4
283.9
24.46
0.08784
524.8
15.07
7.68e+04
188.6
0.3889
0.7126
4468
3.165
0.022
0.0217
59.89
96.27
0.03858
0.02017
0.02183
1845
495
3.607e+04
0.02155
0.0308
101.1
0.01976
0.0199
882.4
0.05458
154.1
925.1
0.05396
4906
27.67
77.06
7.972
43.81
0.04739
107
27.93
2.56e+06
61.77
1205
3264
4013
12.22
0.03072
10.05
1475
0.02171
10.14
357
1347
5.204e+04
562
61.22
1795
0.02456
391.3
9366
290.8
121.7
148.6
0.07167
63.68
14.96
6413
167.9
215.3
0.04801
2302
1031
0.03576
32.59
0.06692
42.19
0.02581
6285
6.649e+04
0.02728
1679
177.3
0.1524
1243
116.3
0.02224
2.268e+04
168.4
229.5
1690
0.03324
18.33
2.027e+05
109.5
1279
14.96
28.75
7.915
32.41
194.1
0.05834
5.726
101.2
173
51.55
20.14
82.05
16.89
187
943.2
118.8
14.56
2.562
0.0218
0.0902
1341
26.74
0.01936
8.359
71.51
14.41
194.4
115.4
75.83
0.09317
1833
117.1
0.1077
77.46
226.1
0.07147
1629
0.03871
2163
9.287
0.1824
0.06591
10.43
1364
88.35
0.02092
161.5
967.3
309.1
0.1999
0.02185
11.6
586.1
1866
37.34
91.07
12.89
1701
12.47
30.27
8.96e+04
9.479
4.609
1.813e+05
1232
14.14
19.53
0.02204
4.659e+05
0.02197
50.02
165.4
364.1
406.1
473.7
7.809e+04
9.48
41.79
27.28
1.098e+05
1003
16.32
1.68e+05
2.168e+04
932
197.5
0.1857
1.699
17.26
146.4
0.02187
658.6
8.228e+04
0.04334
127.2
17.21
21.81
1007
942.3
1.619e+05
4112
255.2
0.01954
0.01934
0.02178
1822
8035
0.4554
0.02158
0.1806
7377
24.17
1.79e+05
239
0.022
1.549e+05
0.01938
5.239
11.98
0.03697
15.48
0.628
4.277
0.05559
1067
27.96
101
145
9.504e+04
14.11
409.9
248.5
10.98
0.02213
2.535e+04
776
680.7
295.5
3292
556
371.6
0.05284
37.82
343.6
23.06
666.7
0.02913
1730
69.88
760.2
28
0.2589
0.4274
0.02178
308.5
69.99
308.8
808.5
11.59
2441
35.45
25.62
11.85
318.2
0.1828
3127
234.1
206.4
34.79
0.06503
24.36
0.08752
108.6
18.64
266.3
13.13
605.4
13.06
33.66
681.7
0.2232
6080
48.6
0.5766
0.0885
1.427e+05
528.6
355.8
54.47
2.169e+04
0.02204
2.353e+04
1118
111.2
150.1
194.3
140.4
193.4
22.21
180.6
217.5
421.9
9364
0.07325
0.02186
0.02171
147.2
513.9
7.834
9.893e+04
352.1
3.482e+04
3615
141.7
6267
7.345e+04
24.29
889.5
1880
33.93
7.657e+04
0.02166
245.1
1199
1170
0.02157
1106
46.59
261.6
450.9
262.4
0.02168
13.76
307.3
2853
0.02089
490.8
10.56
0.1501
1.232e+06
0.03323
10.79
12.36
318.5
484.5
0.4445
29.92
6.634
517.3
1632
326.2
0.0194
16.52
2.629e+06
0.02499
0.02249
5458
3151
98.18
1625
0.06209
24.54
102.4
109.8
152.4
212.4
0.01999
32.47
9.377
0.1217
0.02197
41.35
0.0212
3.277e+05
30.89
3.599
8.007
5.195e+04
0.02168
357
0.02
0.02216
496.5
0.4864
3799
9.137
0.04
83.41
1179
37.62
48.68
59.44
694
362.2
1513
1157
1593
1.636e+04
3274
99.07
757.4
388.3
240
0.2397
0.02113
0.02118
1.214e+04
17.02
983.7
1.71e+05
0.02178
844.8
1.092
0.02038
22.76
1.823e+05
8.299
888.5
1.009e+04
0.02206
1685
67.63
24.49
10.12
19.82
4811
307.2
0.02174
1.858e+05
5010
0.06327
0.02318
4401
465.1
1957
922.8
171.6
685.5
0.02168
662.4
0.02118
452.2
939.9
1.648e+05
0.01955
0.01936
0.1483
194.4
0.03065
20.21
6.204
19.17
43.33
144.8
393.9
0.04523
0.02655
7.134e+04
8.26e+04
163.2
1762
0.0473
1066
0.02215
170.5
4814
1891
8477
841.9
853.2
598.1
0.2809
21.37
47.19
0.02486
0.02176
0.02173
14.39
273.9
2363
1.206e+05
433.6
0.02417
1396
2853
787.4
1.311e+05
65.46
2019
896.7
281.7
0.05428
8.63
16.21
1.052
0.08269
2514
41.89
77.58
36.56
1206
0.3435
0.01973
6.957e+04
14.64
11.66
80.83
8.446e+04
17.62
0.02082
339
42.33
225.8
23.5
187.8
1352
4.258
271.3
12.36
0.06444
230.9
0.04357
0.07779
2.447
1294
41.38
3117
31.71
85.1
67.92
0.02794
183.9
549.2
0.2361
103
5.531
6.934e+04
0.02975
0.02347
210.7
196.7
202.1
44.66
10.23
8585
0.06635
0.02183
62.63
7142
0.02434
0.5406
105.2
0.02159
7.408e+04
0.05116
75.29
121.8
170
1.614
1183
8484
8.007
0.06066
0.02172
28.09
86.82
229.7
20.99
0.02133
0.02019
0.02172
329.2
245
402.3
0.05375
2134
78.13
872.7
93.72
1798
0.6205
0.02991
1.509e+04
0.02184
2120
46.21
0.02966
166.5
247.3
1229
278.1
385.9
19.14
18.54
0.06956
8473
4461
6879
0.1742
0.7273
0.02168
7.487e+04
0.02159
698.2
6356
0.02206
13.55
131.3
916.6
0.08172
18.57
5.017e+04
23.33
0.02166
23.01
868.3
73.28
229.5
18.46
58.62
5.843e+04
10.88
0.02071
0.02263
4.211e+04
50.45
624.7
8.596
95.93
0.02117
0.02193
7.231
2.727e+05
6440
1097
552.8
2.699
502.6
5837
330.5
583.5
0.02189
1540
8.182
803.6
28.69
24.14
0.0216
1588
17.85
5.905e+04
6.204e+04
10.06
33.34
4.408
4062
0.02706
9.251
6.199e+04
1378
439.3
7133
2.533e+04
562.2
239.2
0.1126
2526
697.6
2486
90.14
0.0261
4122
2.546e+04
0.02172
511.1
1.36e+04
1091
2380
59.55
25.37
267.9
80.86
0.0333
171.8
0.02211
186.4
0.09471
5.582e+04
0.1156
1.578e+04
89.93
689.7
16.63
16.11
1616
10.88
305.4
2918
107.5
68.68
9.193
52.13
201.9
2515
71.3
0.02426
101.7
47.13
449.8
325.9
195.5
956.5
78.84
0.02487
88.4
8.855e+04
24.47
12.58
334.7
0.03982
67.01
0.02156
106.4
2.271e+06
3.325e+05
1490
45.8
76.83
0.02099
0.05262
33
41.47
130.5
19.76
0.02179
29.44
131.7
49.71
117.9
0.02165
2616
5775
2.337e+05