/*--------------------------------*- C++ -*----------------------------------*\
  =========                 |
  \\      /  F ield         | OpenFOAM: The Open Source CFD Toolbox
   \\    /   O peration     | Website:  https://openfoam.org
    \\  /    A nd           | Version:  8
     \\/     M anipulation  |
\*---------------------------------------------------------------------------*/
FoamFile
{
    version     2.0;
    format      ascii;
    class       volScalarField;
    location    "25";
    object      p;
}
// * * * * * * * * * * * * * * * * * * * * * * * * * * * * * * * * * * * * * //

dimensions      [0 2 -2 0 0 0 0];

internalField   nonuniform List<scalar> 
127143
(
-0.1954
-0.2094
-0.1976
-0.1973
-0.5301
-0.1972
-0.5723
-0.5589
-0.5564
-0.3166
-0.3798
-0.5738
-0.1863
-0.1976
0.4989
-0.1946
-0.2005
-0.101
-0.2001
-0.2007
-0.2289
-0.1863
2.616e-05
-0.129
-0.1863
-0.05593
-0.2909
-0.2892
0.2072
-0.02815
-0.1878
-0.05477
-0.4761
-0.2322
0.1125
-0.4762
-0.2024
-0.2318
-0.1292
-0.1943
-0.2004
-0.1858
-0.1599
-0.1852
-0.09707
-0.2323
0.2028
-0.2032
-0.04181
-0.1499
-0.1951
0.02301
-0.2486
-0.1906
-0.0007065
0.0223
-0.0006596
-0.1163
-0.007926
-0.1894
0.3668
-0.2046
-0.1615
-0.001612
-0.2555
0.08978
-0.08958
-0.1596
-0.1584
-0.000163
-0.1496
-0.2907
-0.1942
-0.008261
-0.002423
-0.2893
-0.006352
-0.2057
0.01696
0.0007544
0.1922
-0.2001
-0.2323
-0.192
-0.195
-0.2056
-0.1179
-0.3442
0.09097
-0.5383
0.0006574
-0.2019
-0.5097
-0.2289
-0.2374
-0.05066
-0.1822
-0.1622
-0.2098
-0.08694
0.0006735
-0.04347
-0.5288
-0.09266
-0.2055
-0.2098
-0.05769
-4.64e-06
0.2159
0.00177
0.4999
-0.3443
-0.2334
0.34
0.006214
-0.04627
0.01372
-0.002327
-0.006267
-0.1977
0.001797
-0.2294
0.1219
-0.09339
0.1957
-0.07499
-0.2086
-0.03089
-0.2551
0.05309
-0.2129
-0.2327
-0.1329
-0.2055
-0.2009
-0.2128
-0.08343
-0.2299
0.2907
-0.1029
0.02451
0.01583
-0.2434
-0.234
-0.2486
-0.3892
0.3809
-0.001579
-0.2329
-0.5672
-0.1048
-0.02812
-0.2345
0.1354
0.4336
-0.1945
-0.1173
0.1062
-0.2032
-0.1479
-0.1801
0.2234
0.0005403
-0.2126
0.02842
-0.2554
-0.2032
0.2368
-0.4364
0.05722
-0.1857
-0.234
-0.03905
0.05162
0.0005166
-0.1876
-0.3903
-0.2552
-0.1154
-0.004924
0.05199
-0.008775
-0.1898
-0.1872
0.05444
-0.2041
-0.05735
0.3301
-0.132
-0.02434
-0.2469
-0.2486
-0.08103
0.04496
-0.2001
-0.2169
0.0001044
-2.737e-05
-0.212
0.01123
-0.008296
0.06686
0.01152
-0.2025
-0.1965
-0.1795
-0.02029
-0.0437
-0.02511
0.006188
-0.166
-0.1926
0.006723
-0.4394
-0.2136
-0.2002
-0.1861
-0.0281
-0.2282
-0.02176
-0.3748
0.0009074
-0.02533
-0.2486
-0.1562
-0.1856
0.02893
-0.2337
-0.19
-0.2082
-0.2297
-0.009861
-0.1935
-0.1957
-0.2297
-0.07846
-0.2128
-0.1931
-0.008483
-0.2455
-0.2485
-0.2605
-0.1918
0.1036
-0.246
-0.1976
-0.02891
-0.2845
-0.1937
-5.109e-05
-0.2899
-0.1035
0.002198
-0.233
0.01109
0.2023
-0.03024
-0.4812
0.02478
0.1053
-0.221
-0.01269
-0.2011
0.01618
-0.2509
-0.2588
-0.2076
0.4419
0.3257
-0.2369
-0.03323
0.001771
-0.2023
-0.2455
-0.1688
-0.2469
-0.2332
-0.05921
0.002601
0.06651
-0.0001132
-0.0494
-0.09267
0.007185
-0.0001728
-0.2035
-0.2202
0.006053
-0.0692
-0.004047
-0.2445
0.002405
-0.07702
-0.02513
0.003774
0.2219
-0.1467
-0.1919
-0.1917
-0.2362
-0.09878
0.04997
0.1589
-0.04558
-0.1609
0.3393
-0.04262
0.006895
-0.2106
-0.1087
-0.06649
-0.1915
0.009517
-0.0001968
0.009755
-0.4822
-0.2387
-0.1088
-0.1874
0.0008914
0.001263
-0.1737
-0.05803
0.001492
-0.4794
-0.2418
0.08173
-0.1908
-0.1926
-0.3798
-0.2045
-0.0005
0.1089
8.221e-05
-1.847e-05
0.1357
0.2073
-0.03836
-0.2048
-0.2228
-0.1001
-0.03008
-0.2473
-0.2469
0.4737
-0.0692
-0.2319
-0.2373
-0.09139
-0.2595
-0.09551
-0.2029
-0.1868
-0.2469
0.0756
-0.2303
-0.2329
-0.3681
-0.002011
-0.192
-0.2012
-0.16
-0.1908
-0.1712
-0.1442
-0.0008436
0.01099
-0.004366
-0.2397
-0.0001487
0.4232
-0.05905
-0.1037
-0.1641
-0.02438
-0.1517
-0.1223
-0.1898
-0.2075
-0.0008776
-0.2054
-0.0742
-0.08375
0.05048
0.0131
-0.1945
0.03482
-0.1932
-0.2175
-0.2245
-0.009112
0.1882
-0.1868
0.01582
-0.1322
-0.1677
0.1844
-0.1856
0.07666
-0.01162
-0.1726
0.0008172
-0.2322
-0.19
0.02985
-0.0896
-0.2054
-0.1262
0.002382
-0.1155
0.2056
-0.0651
0.0239
-0.2039
0.1246
-0.2375
-0.2191
-0.03224
-0.2385
0.1508
-0.2035
-0.2024
-0.2153
2.182e-05
-0.2082
0.04678
-0.1487
0.05574
-0.2604
-0.003874
0.0009911
-0.2147
-0.1862
-0.1789
-0.271
-0.0009533
-0.06309
-0.234
0.02213
0.004035
0.004657
-0.1506
-0.0819
0.2063
0.03995
-0.1625
0.01178
0.3784
-0.003984
-0.194
-0.2229
-0.08999
-0.08974
-0.2419
0.1276
-0.2006
-0.0917
-0.2638
-0.2029
-0.2363
-0.1323
-0.2538
-0.2263
0.3323
-0.254
0.0006529
-0.0008635
-0.2382
-0.2266
-0.0004193
-0.2103
-0.2033
-0.09383
-0.2384
-0.02316
0.0001864
0.4645
-0.2006
-0.1961
-0.2472
0.274
0.3874
-0.2458
0.01102
0.2068
-0.2701
-0.2449
-0.007694
-0.1476
0.02782
-0.4649
-0.1195
-0.2491
-0.3856
-0.1971
-0.2111
0.4183
-0.09919
-0.2387
0.007405
0.2704
-0.001692
-0.191
-0.2169
-0.2025
-0.2118
-0.1858
0.003453
-0.2302
-0.2931
0.009508
-0.2033
0.1243
-0.2063
-0.06592
-0.223
-0.08753
-0.2103
-0.2404
0.0004503
-0.1921
-0.1862
0.1594
-0.1225
-0.1858
-0.008673
-0.1046
0.009504
-0.2245
0.002307
-0.1502
-0.5521
-0.1896
-4.383e-07
-0.2382
-0.06431
-0.1867
0.226
-0.4822
-0.2178
0.02976
-0.1999
0.1458
-0.0004821
0.04957
-0.236
-0.1437
-0.1724
-0.2266
-0.2058
-0.2172
-0.2532
0.1426
-0.2057
-0.2148
-0.01519
-0.1965
-0.2185
-0.06876
-0.1099
-0.1947
0.002049
0.002426
0.1017
-0.2318
-0.233
0.01072
3.364e-05
0.1395
0.1821
-0.2051
0.2073
-0.2037
-0.2072
0.0009884
-0.0054
-0.001456
-0.1921
-0.2135
-0.0007581
0.000354
-0.2845
-0.1201
-0.2239
-0.002833
-0.08147
0.01079
-0.2055
-0.1919
-0.2251
8.793e-07
-0.2055
-0.2211
0.22
0.0001826
-0.05812
-0.1855
0.004604
-0.08946
0.009205
-0.1661
-0.2452
0.007119
-0.2305
-0.0787
-0.1924
-0.2437
-0.2429
-0.09501
-0.08325
0.4804
-0.1313
-0.4982
-0.1921
-0.1876
-0.2515
-0.1367
0.0003981
-0.01742
0.008245
0.469
-0.03239
-0.243
0.001032
0.006279
-0.1197
0.1551
-0.2297
0.0003318
-0.001411
-0.1902
-0.3779
-0.2323
-0.1394
-0.198
0.2064
-0.2223
0.2052
-0.2469
-0.214
-0.2592
0.0003234
-0.2658
-0.2462
-0.0426
-0.2257
0.001434
1.637e-05
-0.2428
0.289
-0.2463
-0.1858
-0.03146
-1.245e-05
-0.2085
-0.2546
0.06412
-0.2513
-0.03584
0.006956
-0.2115
0.01141
-0.2462
0.1324
-0.1858
-0.1859
-0.2029
-0.2007
-0.2201
-0.2453
-0.08005
-0.2446
0.03057
-0.2528
-0.1884
-0.2322
-0.00155
-0.05962
0.1081
0.3422
-1.095e-05
-0.00153
-0.2019
-0.09864
-0.03552
-0.247
0.2994
-0.2095
-0.2165
-0.1574
0.2648
0.0253
-0.007256
0.0007797
-0.3083
0.03931
-0.2396
0.3398
0.1629
-0.2006
0.1595
-0.1635
-0.1971
1.489e-05
-0.1831
-0.02526
0.001181
-0.2028
-0.06261
-0.2487
-0.2074
-8.784e-06
-0.1089
-0.1389
-0.1948
-0.1988
-0.229
-0.2469
-0.5704
-0.2191
0.2682
-0.2035
0.01007
-0.1094
-0.1074
-0.2084
-0.01817
-0.1941
0.1099
0.0578
-0.008692
0.1869
-0.1096
-0.004113
-0.1887
-0.2046
-0.2052
1.069e-05
-0.1859
-0.2152
-0.08663
-2.259e-05
-0.2445
-0.1902
-0.2395
-0.2519
-3.466e-05
-0.2054
-0.1867
-0.224
-0.234
0.01244
-0.2475
0.4953
-0.01517
-0.03687
-0.00502
-0.2454
-0.2113
0.05003
-0.05945
-0.0806
-0.2076
2.026e-05
-0.2055
-0.2043
-0.1768
-0.06321
-0.1934
-0.2033
-0.2059
1.522e-05
-0.2065
-0.2113
-0.246
-0.1949
-0.2458
-0.1899
-0.2369
-0.1908
0.006236
0.003405
-0.1867
-0.2164
-0.2436
-0.1937
-0.2035
-0.2029
-0.2068
-0.1488
-0.001418
-0.2055
-0.08609
4.658e-05
-0.2083
-0.4621
-0.06548
0.1141
0.0002616
-0.2222
-0.1872
-0.007443
0.0002571
-0.2251
-0.2041
-0.1982
-0.2018
-0.2051
-0.1994
-0.07866
0.2419
-0.001652
-0.208
-0.2031
-0.1814
-0.1611
0.2362
0.0001998
-0.008526
0.01236
-0.2941
-0.001709
-0.1554
0.3212
-0.08479
-0.07021
-0.0004119
-0.1909
-0.0911
0.001344
-0.09175
-0.001013
0.2532
0.5039
-0.2473
-0.2491
-0.1974
0.00111
-0.2256
0.137
-0.1508
-0.1892
-0.07924
-0.404
-0.1926
-0.02297
0.1769
-0.06013
0.002653
-0.2259
0.08135
-0.4063
-0.1884
-0.06158
0.0002159
-0.09444
-0.192
0.005528
-0.2603
-0.3237
0.4928
-0.3693
-0.3662
-0.23
-0.1947
-0.2012
-0.1762
0.001307
-0.07276
2.684e-06
3.479e-06
-0.2426
-0.03608
-0.2483
-0.1839
0.3562
-0.1069
-0.04515
-0.5031
-0.003139
-0.008654
-0.2045
-0.2045
-0.04351
-0.2326
-0.2011
-0.1939
-0.01933
0.4971
-0.2339
-0.2008
0.006789
-0.2494
0.001295
-0.002082
-0.2298
-0.2175
-0.2036
-0.0004059
6.472e-05
-0.1983
-0.1994
0.1135
-0.2013
-0.2134
0.1985
-0.01146
-0.1857
-0.2597
1.507e-06
0.2997
-0.1966
1.1e-05
0.1827
-0.1869
-0.2149
-0.3202
-0.1693
-0.05344
-0.1857
-0.1558
-0.1158
-0.004603
0.005042
-0.02839
0.234
-0.2054
-0.2323
0.2289
0.1694
-0.1889
-0.1419
0.1682
-0.1104
-0.2664
-0.004143
-0.204
-0.1932
-0.2368
-0.2203
-0.2129
0.006292
0.01689
-0.1957
0.03841
-0.1968
-0.08236
-0.1984
-0.2
-0.2442
-0.2811
-0.2564
-0.07468
-0.2466
-0.1737
-0.2148
-0.08753
-0.2033
0.04461
-0.204
-0.1932
-0.1865
-0.2127
-0.004029
-0.003019
-0.2054
-0.1987
-0.04239
0.0002502
0.2271
-0.2225
-0.1278
-0.202
-0.2432
-0.2092
-0.2507
0.002466
-0.02242
-0.1445
0.1365
-0.1673
-0.1881
0.2151
-0.2246
-0.2417
-0.1324
-0.1502
-0.2018
0.2171
-0.1002
-0.2036
0.183
-0.004161
-0.207
-0.1858
-0.204
-0.2442
0.4988
0.001854
-0.2275
-0.02765
-0.0001015
-0.001609
-0.2495
-0.2297
-0.1868
-0.1902
-0.06994
0.1347
-0.2056
-0.02946
-0.06746
-0.001034
-0.2062
-0.1944
-0.2058
-0.01215
-0.1862
-0.2046
-0.0002426
-0.08137
-0.191
0.003374
-0.2458
-9.642e-05
0.005724
-0.07575
-0.008037
-0.2548
0.003291
-0.09081
-0.001335
-0.4784
-0.01614
-0.2063
-0.09529
-0.02702
-0.06753
-0.2106
-0.101
0.0006732
-0.01597
-0.237
-0.03906
-0.2025
-0.2068
-0.1829
-0.2064
-0.209
-0.2439
0.03603
-0.2946
-0.1121
-0.08446
0.08929
-0.2081
-0.0009939
-0.2385
-0.1871
-0.04535
-0.0001701
0.3621
-0.2186
-0.1268
0.03903
-0.2474
-0.07869
-0.2356
-0.2186
-0.1261
-0.1882
0.03495
-0.1893
-0.0002169
-0.1596
-0.2397
0.002085
-0.236
-0.253
-0.0001265
-0.002478
-0.1861
-0.02998
0.0752
-0.2335
-0.1932
-0.03915
-2.801e-05
-0.2313
-0.2159
-0.008511
0.0383
-0.0405
-0.2213
-0.2257
-0.0426
-0.04429
-0.1861
-0.186
-0.01459
-0.05868
-0.2076
-0.1778
0.0002159
-0.1172
-0.001799
-0.2107
0.2699
-0.2409
0.03633
-0.1886
-0.2439
0.003009
-0.1857
-0.2091
-0.2168
-0.137
-0.4769
-0.2154
-0.2009
-0.1588
-0.07732
0.1098
-0.186
-0.1985
-0.1786
-0.01552
-0.06744
0.3387
-0.192
-0.2002
-0.04931
-0.2061
-0.2497
-0.08709
-0.1156
-0.2108
-0.2036
-0.09148
-0.01278
-0.06405
-0.05089
2.897e-08
-0.003044
-0.2403
-0.1882
-0.2046
0.000965
-0.2357
-0.1997
0.005736
-0.394
-0.07667
-0.2483
-0.1977
0.05801
-0.2007
-0.1867
-0.2016
-0.2026
-0.206
-0.08735
-0.2533
-0.07013
-0.1414
0.1949
-0.2432
-0.0783
-0.1777
-0.2378
-0.212
0.01339
-0.1661
-0.1999
-0.1868
-0.2007
-0.0511
-0.1952
-0.1736
-0.2141
-0.05413
-0.2038
-0.01696
-0.306
-0.215
-0.2026
-0.2062
-0.001483
-0.2048
-0.2479
-0.218
-0.2035
0.002237
-0.1446
0.001885
-0.03178
-0.1858
-0.2329
-0.06166
-0.2586
-0.2039
-0.1984
-0.01635
-0.1958
-0.2051
-0.4004
-0.2385
0.005629
-0.2256
0.002527
-0.2967
-0.01804
-0.2039
-0.02313
0.02288
0.0001611
2.353e-05
-0.1868
-0.1944
-0.2043
-0.1512
-0.0003162
-0.0003175
-0.2352
-0.219
-0.2142
-0.276
-0.08759
-0.09955
0.04203
-0.08823
-0.1958
-0.2069
5.017e-05
-0.1842
-0.2096
0.01591
-0.07067
-0.2367
-0.2095
-0.2071
-0.1604
-0.2365
0.2587
-0.2039
-0.2272
-0.2008
-0.2132
-0.1308
-0.05936
0.1747
-0.1763
-0.1872
0.001498
-0.1374
-0.5481
0.0001136
-0.2755
-0.04551
-0.2047
-0.05255
-0.002612
0.07879
-0.183
0.002119
-0.1698
-0.2096
-0.125
0.4587
-0.01982
-0.1019
-0.1857
0.03152
-0.2068
-0.2431
0.1658
0.0128
-0.1987
-0.3711
-0.3223
-0.2108
-0.00347
-0.2822
-0.2024
-0.1602
-0.4344
-0.2031
-0.2086
-0.002538
-0.06397
-0.2058
0.00199
-0.2009
-0.0001114
-0.5697
-0.1985
-0.1917
-0.2045
-0.2481
-0.3792
-0.2325
-0.1478
0.07429
-0.376
-0.2197
-0.2095
-0.2453
-0.2326
-0.2024
-0.0004954
-0.1883
0.002162
-0.2093
0.004135
-0.1945
-0.002776
-0.3042
-0.1997
-0.0001718
0.005349
-0.1905
-0.1765
-0.2151
-0.005659
-3.155e-05
0.1958
-0.2245
0.0795
-0.1868
-0.2104
-0.1973
-0.07614
-0.1091
-0.0916
-0.04134
-0.1927
-0.1791
-0.185
-0.1906
-0.2044
-0.2514
-0.2462
-0.2519
-0.2046
0.003044
-0.373
-0.2245
0.1449
0.004575
-0.07519
0.1315
-0.07752
-0.1923
5.438e-05
5.868e-05
-0.1487
-0.2017
0.01503
-0.2053
-0.08456
-0.007609
0.3119
0.001057
-0.07481
0.0833
-0.2854
-0.04135
-0.2228
-0.1358
-0.2528
-0.2218
-0.03065
-0.07979
-0.2068
-0.01653
-0.1873
-0.1858
-0.05773
-0.2468
-0.03105
0.01147
0.004605
-0.09535
-0.186
-0.2553
-0.146
-0.002628
-0.2
0.09784
-0.07844
0.4102
-0.04321
-0.2171
-0.2091
-0.1613
5.536e-05
-0.3859
-0.2272
-0.1933
-0.1089
-0.2001
-0.196
-0.004297
-0.2608
-0.1939
-0.2133
-0.0988
-0.23
-0.1864
-0.07152
-0.2582
-0.193
0.2977
-0.002049
0.3235
-0.2216
-0.1397
-6.15e-05
6.45e-05
-0.1108
-0.2991
-0.5137
-0.4233
-0.1267
-0.1722
-0.3696
-0.001405
-0.2019
-0.0239
-0.007165
-0.003468
-0.2021
-0.0004411
0.1042
-0.003401
-0.5117
0.03232
0.2563
-0.3022
-0.1669
-0.0002406
0.4978
-0.1873
0.1582
-0.2144
-0.2326
0.002645
-0.2384
-0.2054
-0.2135
-0.1904
-0.1861
-0.2068
-0.4652
0.2332
-0.04304
-0.0003594
-0.1961
-0.0002908
2.653e-05
0.004479
-0.1857
-0.0003758
-0.1836
0.001277
-0.2435
-0.2479
-0.2234
0.09841
0.0006884
-0.2047
-0.231
-0.1925
-0.1037
-0.07695
0.05334
-0.001379
-0.0009989
-0.2486
0.4976
0.04617
-0.07504
-0.03553
-0.2039
-0.04309
0.04701
-7.7e-05
0.08784
-0.2077
-0.1488
-0.03905
0.1635
0.02698
-0.2475
0.002804
-0.05093
0.1247
-0.1925
0.2858
-4.712e-05
-0.2249
-0.001562
-0.2471
-0.1289
-0.2052
-0.07519
-0.07597
-0.2068
-0.02766
0.1419
-0.1748
-0.2482
-0.4405
-0.196
0.0001601
-0.1794
-0.006176
-0.2639
-0.02366
-0.2566
0.00531
-0.1923
-0.00283
-0.0897
-0.207
-0.001954
-0.2027
-0.1405
0.1974
-0.2268
-0.002771
-0.1162
-0.001325
0.03872
0.2525
-0.03862
-0.2021
-0.05518
-0.009612
-0.2501
-0.1872
0.3742
0.1961
-0.1913
-0.09246
-0.2405
-0.2544
0.4521
-0.09892
-0.1815
0.1674
-0.002819
-0.07784
-0.2201
0.2612
-0.09526
0.04145
-0.0007634
-0.1857
-0.2023
-0.2428
-0.2046
-0.04112
-0.2034
-0.1004
-0.07285
-0.0003861
-0.09885
-0.04406
-0.07141
-0.0966
-0.003627
-0.2449
0.002
-0.2167
-0.06355
-0.2198
0.2586
-0.03046
-0.04316
0.004283
-0.08107
0.2732
0.1953
-0.3308
0.02314
-0.1317
-0.0839
-0.004533
0.03045
-0.1862
0.0001812
-0.2536
0.0199
0.01343
0.2618
-0.06105
-0.192
0.0002811
-0.212
-0.2455
-0.0002289
0.09846
-0.404
-0.2209
3.755e-05
-0.2038
-0.1765
-0.2108
-0.304
-0.2041
-0.1164
-0.2211
0.0001291
-0.0004706
-0.1861
-0.03397
-0.246
0.277
-0.1946
-0.1759
-0.2408
0.02883
-0.2595
-0.196
-0.3201
-0.1915
-0.1859
-0.2364
-0.1238
-0.201
-0.1132
-0.1908
-0.2211
-0.187
-0.1874
0.1997
-0.2057
-0.2124
-0.08584
0.01048
-0.4418
-0.1122
-0.2143
-0.1636
-0.08107
-0.03099
-0.1915
-0.2042
-0.0001419
0.05203
-0.07449
-0.2417
-0.2502
-0.2148
-0.04233
-0.0157
0.01757
-0.2327
-0.1853
-0.2327
-0.06381
-0.1054
1.415e-05
-0.3904
0.496
-0.09165
5.285e-06
-0.2034
-0.2033
-0.1293
-0.2436
-0.1944
-0.1213
-0.0002222
0.2862
-0.05401
-0.02398
-0.1958
-0.01104
-0.1168
-0.54
-0.1403
-0.1931
-0.5076
-0.1997
-0.08158
0.0003302
0.1296
0.1156
-0.2002
-0.07903
-0.1964
-0.1195
-0.1969
-0.13
-4.534e-05
-0.01777
-0.1558
-0.5089
-0.2028
-0.2414
0.03253
0.1493
0.01258
0.04493
-0.257
-0.04042
0.002657
-0.1012
-0.125
-0.1022
-0.1922
-0.02329
0.04068
-0.2392
0.2326
-0.2091
-0.1857
-0.06093
-0.05048
-0.1583
-0.2052
-0.1862
-0.2055
-0.08351
-0.1732
-0.1944
-0.1666
-0.1239
-2.611e-05
-0.07978
-0.1938
-0.2011
-0.0009896
0.004273
-0.2108
-0.06586
-0.1938
-0.04756
-0.1745
0.4683
-0.00523
-0.1262
-0.1999
-0.1969
-0.08822
-0.1992
0.01969
-0.248
-0.224
-0.06558
-0.2464
0.0001707
-0.1935
-0.2001
-0.07703
-0.1839
-0.0678
-0.2332
-0.01167
-0.123
-0.2387
-0.2208
-0.128
-0.1858
-0.05515
-0.2042
-0.2058
-0.2078
-0.2378
-0.1951
0.4307
-0.2054
-0.009888
-0.1902
-0.2029
-0.06826
-0.0422
0.0003877
-0.2285
-0.1612
-0.249
1.544e-05
-0.1997
-0.1926
-0.1925
-0.197
-0.2363
-0.1684
-0.2139
-0.07414
0.007668
-0.2039
-0.0005936
-0.1989
0.07437
-0.07353
-0.2117
0.001796
-0.07066
-0.1652
-0.1858
-0.002187
-0.02895
-0.1966
-0.1153
-0.2946
0.00902
-0.2459
-0.1914
0.01942
-0.1426
-0.2077
-0.2926
-0.2428
-0.0857
-0.1086
-0.1885
-0.2049
-0.5509
-0.1532
-0.2076
-0.04234
0.009886
-0.0003744
0.1387
-0.1606
-0.3428
0.005867
-0.2233
-0.205
-0.5465
-0.2098
-0.03063
-5.092e-06
-1.481e-06
-0.1105
-0.2407
-0.1876
0.4326
0.0947
-0.2214
-0.08611
0.002595
-0.1208
-0.002416
-0.06913
-0.1882
-0.1389
-0.117
0.0598
-1.246e-05
-0.08656
0.05951
-0.02927
0.07068
-0.2289
0.3775
-0.1867
-0.2479
-0.1533
-0.2397
-0.2298
-0.03268
-0.3341
-0.2017
1.447e-05
3.03e-06
-0.2061
-0.1974
-0.1689
0.2088
0.2134
-0.247
0.0004266
-0.001711
0.2179
-0.001775
-0.2243
0.03008
-0.3728
-0.03629
0.01748
-0.007759
0.3543
-0.4718
4.833e-05
-0.08691
-0.06051
-0.07571
-0.1934
0.1376
-0.2264
-0.2438
-0.2378
-0.205
-0.09913
-0.2053
0.1542
-0.01899
-0.228
-0.1858
-0.5039
-0.1914
-0.1891
-0.2043
0.3181
0.2081
-0.02873
-0.06199
-0.06961
-0.2523
-0.02137
-0.1985
0.002012
-0.07856
-0.2035
-0.06338
-0.2139
0.05829
-0.2166
0.1857
-0.161
-0.237
-0.07839
-0.1578
-0.3099
-0.0004018
-0.1931
-0.1737
-0.2556
-0.2119
-0.2064
-0.1264
-0.02149
0.005952
-0.2376
0.05457
-0.06645
-0.1886
-0.1964
-0.1577
-0.2681
3.092e-06
-0.2419
-0.06462
-0.1942
0.2462
-0.1073
0.006922
-0.2019
-0.01224
0.1672
-0.09858
-0.2355
-0.1982
-0.1883
0.002277
-0.2029
-0.1823
-0.1949
-0.4574
-0.1247
-0.2036
-0.2483
0.0116
-0.02231
0.2358
0.2124
0.2605
-0.2453
-0.2496
-0.1242
0.1385
-0.4034
-0.2065
0.4393
-0.1857
-0.2063
-0.1484
-0.2049
8.758e-05
-0.2038
0.01041
0.002287
-0.387
-0.01639
-0.2001
0.03729
-0.2189
-0.237
-0.09691
-0.2533
-0.2085
0.4123
-0.2138
-0.1935
-0.1907
-0.2258
-0.2115
-0.0002825
-0.1934
-0.2176
-0.2025
-0.1965
2.643e-05
-0.2141
-0.1285
-0.06994
-0.22
-0.1857
-0.5025
-0.207
-0.2153
-0.2263
0.02991
-0.2038
0.003984
0.002989
-0.2186
-0.1857
-0.2592
-0.2504
-0.18
-0.2094
-0.01157
-0.2412
-0.2161
-0.2152
-0.1032
-0.2293
0.4844
-0.06562
0.1615
-0.08058
-0.2047
-0.1399
-0.1859
-0.2109
-0.2038
0.1617
-0.1911
-0.2481
-0.08868
0.2026
0.0019
-0.2853
-0.2391
-0.201
-0.06552
-0.0812
-0.2353
-0.412
-0.2246
-0.2407
-0.5554
0.002674
-0.1929
-0.2064
-0.08342
0.05056
0.06272
-0.0105
-0.234
-0.2156
0.04044
-0.5136
0.0799
-0.2455
-0.3196
-0.2073
-0.1046
-2.736e-05
1.835e-05
-0.1399
-0.2452
0.06689
-0.3038
-0.1481
0.002574
-0.2497
-0.02203
-0.244
0.002945
-0.01109
-0.2484
-0.236
-0.1452
-0.4997
0.02643
-0.0008286
-0.1412
-0.1982
-0.01271
-0.0405
-0.1664
-6.579e-06
-0.05378
-0.207
-0.2022
-0.1912
-1.217e-05
-5.566e-06
-1.475e-06
-8.958e-06
-0.06637
-0.1909
-0.02919
0.1833
-0.07824
-0.1922
-0.2306
-0.2687
9.147e-06
-0.2305
-0.2027
-0.1868
-0.2509
-0.1857
-0.1879
-0.09687
-0.08243
-0.242
-0.1536
-0.0518
-0.09262
0.3643
0.0147
-0.1105
0.361
0.2545
-0.001817
-0.1939
-0.2144
-0.007532
-0.1219
0.06022
0.1851
-0.00225
-0.2017
-0.2498
-0.0003306
-0.2473
-0.2053
-0.2267
-0.1893
-0.1983
-0.07652
-0.2074
0.0003274
0.2225
-0.1882
-0.2047
-0.2039
0.1861
0.003145
-0.01133
-0.1886
-0.1872
-0.2141
-0.04558
-0.2251
-0.2526
-0.05964
0.4466
-0.08209
-0.2197
-0.2016
-0.1916
-0.2067
-0.0841
-0.1737
-0.06302
0.008322
0.1571
-0.004356
0.002598
-0.1915
0.0005593
0.4167
-0.2074
-0.1537
-0.205
-0.03739
0.004744
-0.08647
-0.1883
-0.06008
-0.1979
-2.765e-05
0.003616
-0.5241
-0.254
0.003879
-0.2788
-0.2514
-0.186
0.0001655
-0.2137
-0.2304
-0.03375
-0.02267
-0.2085
-0.4168
-0.5792
0.1388
-0.09561
-0.1865
-0.0002416
-0.04579
-0.2522
-0.1573
-0.002396
-0.0908
-0.5551
-0.1711
-0.002071
-0.09604
-0.2495
-0.1786
-0.05074
-0.206
-0.003131
-0.2236
-0.2975
-0.2035
-0.228
-0.002388
-0.1795
-0.189
0.1679
0.00383
0.002939
-0.1649
-0.2334
-0.2032
-0.1857
-0.2476
-0.07941
-0.2047
-0.2421
-0.1924
-0.2056
0.001721
-0.2497
-0.2484
-0.0561
-0.2063
0.2279
-0.1484
0.498
-0.2046
-0.2615
-0.1853
-0.1363
-0.04384
0.2167
0.04847
-0.08764
0.1951
0.006495
-0.5504
0.001768
-0.2058
-0.2415
-0.1955
-0.1914
-0.4408
-0.2001
0.324
-9.181e-06
0.4657
-0.2637
0.0002131
-0.2047
-0.1917
0.3645
-0.1097
-0.1963
-0.2162
-0.004625
-0.0006297
-0.2298
0.1585
-0.08279
-0.2783
0.0007622
-0.2054
-0.09254
-0.1859
-0.1469
-0.1911
-0.1941
-0.1003
-0.06571
0.0001286
-0.01952
-0.00103
-0.09679
0.09384
-0.0593
-0.2036
0.001641
-0.1596
-0.0646
-0.2418
-0.2474
-0.2047
-0.0002386
0.008105
-0.09658
-0.0583
-0.3197
-0.2025
-0.2036
5.19e-06
-0.05936
-0.0454
6.537e-06
-0.2097
0.01449
-0.0266
-0.227
-0.1908
-0.1993
-0.2057
-0.1093
0.08928
-0.1308
-0.2033
-0.2481
-0.2068
-0.2098
-0.232
-0.2035
0.05134
-0.05611
-0.1987
-0.1864
0.002099
0.1272
-0.1915
-0.1538
-0.2407
3.197e-05
-0.06743
-0.1545
0.006639
-0.06388
0.2233
-0.2154
-0.349
-0.1306
-0.1985
0.1816
-0.198
-0.1855
0.0003971
-0.1939
0.0784
-0.1076
0.07383
0.002524
0.3012
-0.2136
-0.2052
-0.2073
-0.2133
-0.2424
0.09805
-0.2243
-0.2047
-0.2517
-0.1947
-0.368
-0.2414
3.409e-05
-0.197
-0.1868
0.00119
-0.04144
-0.1367
0.0009805
-0.2593
-0.2276
-0.05424
-0.02883
-0.1052
-0.0002422
-0.2067
-0.005677
-0.01042
-0.1928
0.1767
-0.07046
-0.002541
0.1273
-0.006187
-0.1283
-0.209
-0.2231
-0.08664
-0.2248
-0.09794
-0.2084
-0.4771
0.07967
0.0002852
-0.2111
-0.2066
0.0004938
-0.04847
0.004896
-0.1866
-0.2237
-0.4371
-0.2052
-0.0008152
-0.2244
-0.1267
-0.2596
-0.1905
-0.2545
-0.1894
1.017e-05
-0.2132
-0.06263
-0.003788
-0.2453
-0.1827
-0.06409
-0.2475
-0.04728
0.3381
-0.2636
0.0003382
1.189e-05
-0.01937
-0.0653
0.3201
-0.1866
-0.2148
0.01205
-0.09175
0.2273
-0.09372
-0.002386
-0.1886
-0.1296
-0.1129
-0.0004296
0.4085
-0.2458
-0.1067
-1.35e-05
-0.08583
-0.2104
0.02103
-0.1202
-0.004323
0.05812
-0.2088
-0.2402
0.001467
-0.1934
-0.1994
-0.2528
-0.2032
-0.2479
-0.1136
-0.2054
-0.01429
-0.4584
-0.004577
-0.2237
-0.05397
-0.3419
0.2869
0.003608
-0.2783
-0.244
-0.2147
-0.2287
-0.08166
-0.3874
-0.09457
-0.1715
-0.1858
-0.1993
-0.1856
-0.2407
2.997e-05
0.2766
-0.05177
-0.187
-0.186
-0.2604
0.1433
-0.00794
-0.004378
0.03126
-0.1026
2.602e-05
-0.5497
-0.2213
0.004292
-0.01765
-0.1398
-0.1728
0.003344
-0.2044
-0.1917
-0.09412
0.01139
-0.2483
-0.5563
-0.2455
-0.3688
-0.09363
-0.188
-0.2383
0.004789
-0.2176
-0.2418
-0.2206
-0.001879
-0.1342
-0.2065
-0.1948
-0.2047
-0.3856
0.1438
-0.2052
-0.2196
-0.19
-0.2118
0.2201
-0.205
0.01624
-0.0473
-0.001562
-0.1924
-0.003
-0.2598
-0.1827
0.004314
-0.2403
-0.2099
0.1761
-0.06278
-0.2489
-0.06107
-0.2084
0.1096
-0.01086
0.01025
-0.2062
-0.1862
-0.0001127
-0.2278
0.04729
0.1967
-0.1963
-0.2142
-0.1534
-0.08574
-0.2
-0.2529
0.002226
-0.2095
-0.2825
-0.5136
-0.1072
-0.1477
-0.3775
-0.2395
-0.2406
-0.01144
-0.2042
-0.2202
-0.0002863
0.0009512
-0.2088
-0.09653
-0.002115
0.1249
-0.1389
0.07755
-0.2042
-0.2545
-0.2232
2.562e-06
0.1224
-0.01594
-0.01466
-1.448e-06
-0.1475
-0.1929
-0.2041
-0.2229
-0.2475
-0.2006
-0.1907
0.0003008
-0.2283
-0.1928
0.497
-0.2604
-0.1042
-0.1876
-0.1155
-0.002448
-0.1873
-0.227
-0.1089
-0.0896
-0.1864
-0.2298
1.91e-05
0.003238
-0.1181
-0.19
-0.1998
-0.4994
-0.002378
-0.1874
-0.2154
-0.178
0.002404
0.01358
-0.1019
0.04654
-0.208
-0.2185
0.4054
7.986e-05
0.04949
7.445e-06
-0.2353
0.04184
0.004869
-0.1902
-0.2099
-0.1879
-0.1955
-0.1875
0.02129
0.0003048
-0.2451
-0.03974
-0.005975
-0.2481
-0.3749
-0.2139
0.0002781
-0.0546
-0.147
0.04374
0.2298
-0.2069
-0.0008835
-0.52
-0.002269
-0.186
0.002865
-0.001048
-0.006999
-0.01472
-0.2418
-0.2152
-0.1001
-0.05234
-0.1958
-0.01297
-0.193
0.0003686
-0.002252
-0.02314
-0.2463
-0.2018
-0.2003
-0.01394
-0.2217
-0.1857
-0.2483
0.09002
-0.2053
-0.06058
-0.218
0.1147
-0.1639
-0.2487
-0.109
-0.1904
-0.1793
0.05435
-3.772e-06
-0.2284
-0.01569
-0.2346
-0.1695
-0.2498
-0.2473
-0.2477
-0.0003935
0.2757
-0.2293
5.593e-05
-0.4325
-0.002351
-0.2047
-0.2362
0.0004847
-0.2551
0.2402
0.001228
0.03337
-0.2021
-0.1848
0.0287
0.1824
-0.06231
-0.1145
-0.003667
-0.1684
-0.203
-0.02233
0.183
-0.2102
-0.1092
-0.164
-0.08816
-0.2444
-0.2204
-0.1875
0.3233
0.006835
-0.08736
0.16
-0.1142
-0.2288
0.002641
-0.1974
-0.129
-0.1561
-0.1861
-0.2106
-0.25
0.0001036
-0.0662
-0.2074
-0.2204
-0.01118
-0.05815
-0.03814
-0.207
0.2179
0.2148
-0.204
0.1182
-0.204
-0.1129
-0.2483
-0.02702
4.505e-05
-0.2081
-0.0001815
-0.2035
-0.02797
-0.1558
-0.1938
-0.2205
-0.1469
-0.2279
-0.2102
-0.0004228
-0.001462
-0.08686
-0.1219
-0.1702
-0.2898
-0.2051
-0.04583
0.2471
-0.2482
0.07753
-0.2449
-0.1718
-0.05246
-0.2472
-0.09209
-0.04101
-0.004105
-0.1377
-0.1228
-0.2132
-0.1896
-0.1183
0.003404
-0.1892
-0.1207
-0.002995
-0.173
-0.04343
0.001778
-0.1868
-0.03284
-0.1898
-0.005329
-0.2465
-0.2341
3.39e-05
-0.2406
-0.2496
-0.1859
-0.2008
-0.2037
0.002199
-0.2534
0.0002558
-0.1562
-0.2402
0.4212
-0.02648
-0.1873
-0.1858
0.0009724
-0.003068
-0.02377
0.03071
-0.04834
-0.09631
-0.2652
-0.07407
-0.2281
-0.1997
0.01678
-0.4746
-0.1579
-0.1116
-0.2048
0.00326
0.04251
0.07096
-0.2531
-0.06977
-0.2206
0.001545
0.4319
-0.2535
-0.03865
-0.2054
-0.2487
-0.1682
-0.004125
-0.00325
-0.04661
-0.3869
-0.07921
-0.2044
-0.2067
0.0167
-0.09512
-0.03957
6.344e-06
0.2764
-0.213
-0.1298
-0.3199
-0.2153
0.002005
-0.1192
-0.1533
-0.19
-0.1971
-0.0715
0.05835
-0.2471
-0.04782
-0.06722
-0.09548
-0.1695
-0.1987
-6.302e-05
-0.1949
0.09626
-0.1551
0.01452
-0.1955
-0.09953
-0.07759
-0.1996
-0.4775
-0.2374
0.4173
-0.2074
0.2168
-0.2407
-0.1187
-0.2521
-0.1292
-0.2033
-0.2262
0.09256
0.007744
-0.2264
-0.4512
-0.006029
-0.238
-0.2488
-0.2187
-0.1966
-0.1083
-0.03855
0.01623
-0.2314
-0.2051
-0.1877
-0.1908
-0.2067
0.1281
-0.1322
-0.2029
-0.212
-0.2392
0.314
-0.1183
-0.1233
-0.0001507
-0.2377
-0.2288
-0.2314
-0.216
-0.1174
-0.2385
-0.1667
-0.02138
-0.2541
0.01067
-0.2294
-0.2258
-0.0505
-0.07223
-0.2126
-0.06954
-0.187
-0.2021
-0.1627
-0.07503
-0.2031
-0.1164
-0.0641
-0.1862
0.1229
-0.2311
-0.1989
-0.2082
-0.1079
-0.4935
0.009634
-0.0168
-0.001618
-0.2037
-0.1117
-0.1857
-0.1175
0.2335
-0.1987
0.1086
-0.1982
-0.02702
-0.2121
-0.1459
-0.1408
-0.1114
0.4718
-0.07566
-0.205
0.001809
-0.2443
-0.2012
-0.1959
-0.2188
-0.001933
0.001489
-0.235
-0.2029
0.02633
-0.008904
-0.09043
-0.0005884
0.005754
-0.1255
0.01082
0.02648
-0.1604
-0.0004374
0.02551
-0.2006
-0.4065
-0.2569
-0.009503
0.1957
-0.09647
-0.1423
-0.1113
-0.1738
-0.2412
0.04966
0.1246
-0.05825
-0.2061
-0.1858
0.003514
0.01437
-0.1917
-0.4752
-0.002569
-0.205
0.003334
-0.2279
-0.2269
0.04806
-0.2483
-0.1784
0.4877
-0.06557
-0.1492
0.4241
-0.2083
0.03544
-0.1282
-0.2068
-0.2184
-0.0849
-0.2428
-0.1966
0.01827
-0.0002013
-0.2179
-0.1088
-0.125
-0.1662
-0.01518
0.05191
-0.193
-0.01726
-0.04372
0.09876
-0.2043
2.915e-05
-1.073e-05
0.0002495
-0.1211
-0.5088
-0.2253
-0.1941
-0.2401
3.396e-05
-0.03112
-0.06218
-0.1904
-0.08692
-0.4084
-0.2522
-0.1967
-0.4909
-0.2033
-0.2141
0.2952
-0.2041
-0.2352
-0.2063
-0.1237
-0.2029
-0.01023
-0.2016
-0.1417
-0.1171
-0.25
0.1646
-0.219
-0.2147
-0.1964
0.004058
-0.3324
-0.2279
0.01106
-0.1925
-0.001828
-0.05582
-0.08914
-0.06138
-0.2051
0.1455
-0.2615
-0.2059
0.002326
-0.07709
-0.2199
-0.2148
-0.0125
-0.08137
0.0005768
-0.1319
-0.2296
-0.2034
-0.1856
-0.2464
-0.2453
-0.02799
-0.3324
0.305
-0.1676
-0.0004249
-0.01935
0.02711
-1.48e-05
-0.1863
0.01337
-0.3565
-0.2034
-0.1855
0.003512
-0.2623
-0.1864
-0.1729
-0.07192
-0.1032
-0.2096
-0.1955
-0.03818
-0.1746
-0.2318
-0.1502
-0.01478
-0.1991
-0.237
-0.01629
-0.1953
-0.2023
-0.1867
0.349
-0.001375
-0.1893
0.01426
-0.1991
-0.04432
-0.2083
-0.2232
-0.08404
-0.002461
-0.1563
0.4065
-0.1772
0.002591
-0.07294
-0.1932
-2.713e-06
-0.07091
-0.08872
-0.2456
0.004203
0.003958
-0.2026
-0.006851
-9.987e-05
-0.003185
-0.2036
0.0777
-0.1262
-0.1917
-0.1188
-0.1527
-0.1561
0.00204
-0.2084
-0.02412
-0.03891
0.01052
-0.1425
-0.1433
0.05829
-0.1996
-0.2323
-0.2041
-0.2195
-0.1903
0.05476
-0.1868
-0.2288
-0.2183
-0.2238
-0.1934
-0.002376
-0.2551
-0.2098
-0.004113
0.3765
-0.09559
-0.1138
-0.209
-0.07579
-0.08409
0.05316
-0.1319
-0.3988
-0.2416
0.0006638
0.08541
5.631e-05
-0.1978
-0.2117
-0.2434
-0.2846
-0.1903
-0.1549
1.609e-05
0.02514
-0.2638
-0.05135
-0.005532
-0.1103
-0.207
-0.2353
-0.2321
0.4404
0.1396
0.1121
0.223
-0.1784
-3.792e-07
-0.1858
-0.2244
-0.2057
-0.07445
-0.1365
-0.01569
-0.1996
-0.2157
-0.01264
-0.2723
-0.1066
-0.07244
-0.2835
-0.1301
0.2155
0.005477
0.08286
-0.17
-0.1951
-0.2403
-0.2296
-0.04816
-0.2026
-0.1987
-0.1406
-0.05563
-0.08106
-0.05978
-0.001476
-0.1887
-0.2938
-0.1991
0.07499
-0.4775
0.001893
-0.003492
-0.2238
-0.004187
0.001268
-0.3762
1.703e-05
-1.103e-05
0.05764
-9.059e-05
-0.2077
-0.1977
-0.1677
-0.2114
-0.04808
0.001037
0.004083
-0.2358
-0.1063
0.2136
-0.1167
-0.222
0.0005612
-0.1977
-0.2534
-0.1678
-0.171
0.003137
0.01117
-0.3804
-0.002394
0.001415
-0.1869
-0.06626
-0.02118
0.0234
-0.2444
-0.001954
-0.001424
0.002612
-0.1903
-0.1037
-0.2025
-0.2025
0.07143
-0.1369
-0.2069
-0.1931
-0.05321
-0.1923
-0.1209
-0.2309
-0.0008168
-0.04602
-0.2204
-0.2781
0.0007451
-0.1867
-0.1972
-0.2267
-0.1896
-0.03952
-0.2042
-0.07971
-0.04168
-0.1874
0.004009
-0.5464
-0.008548
0.07642
0.003351
-0.3788
0.00915
-0.08373
-0.03942
-0.1864
-0.1957
-0.1886
-0.2074
0.0002097
-0.5789
8.196e-05
-0.1856
-0.1807
-0.2032
0.0521
-8.129e-05
-0.4497
0.004118
-0.1175
-0.2052
-0.2409
0.009647
0.01333
0.4712
-0.01582
-0.1869
-0.2334
-0.2466
-0.2039
0.3139
-0.236
-0.5337
-0.1275
0.001368
-0.206
0.3573
0.008729
0.00289
-0.2529
-0.2038
0.3812
-0.3236
0.4068
0.005438
-0.1561
0.005728
0.009261
0.002076
-0.278
-0.01636
-0.2194
-7.874e-06
-0.2071
-0.004749
-0.2454
-0.168
-0.4601
-0.03429
-0.2289
0.2769
-0.06762
-0.08447
-0.1915
0.004792
-0.159
0.001311
-0.2028
0.1014
-0.002347
-0.1253
-0.2646
-0.1876
-0.1035
-0.2076
-0.1298
-0.03129
-0.2275
0.2078
-0.2981
-0.2449
-0.1861
-0.2104
-0.2069
-0.2452
-0.2051
-0.2244
-0.1874
-0.1812
0.00042
-0.2436
-0.0001989
0.02464
0.07221
-0.07585
-0.1904
-0.5006
-0.2067
-0.1897
2.157e-05
-0.09002
-0.2113
-0.3436
-0.2051
-0.003399
-0.2062
-0.2417
-0.08536
-0.0001079
-0.2468
-0.08988
-0.2097
-0.2063
-0.3008
0.2225
0.3439
-0.2052
-0.2385
-0.2364
-0.192
-0.1954
0.02871
-0.2633
0.1823
0.01692
-0.1976
-0.202
-0.2056
-0.2328
-0.2565
0.004095
0.1985
-0.3276
-0.1582
0.175
0.1906
-0.1925
-0.2508
-0.0005853
-1.877e-05
-0.2141
-0.2028
-0.09113
0.003271
-0.2218
-0.2014
0.04639
-0.02443
0.001079
-0.1332
-0.1524
-0.2037
-0.2608
-0.2266
-0.2305
-0.1872
-0.1932
-0.2435
0.03901
-0.2083
0.4167
-0.1924
-0.1289
-0.09718
-0.2036
-0.002554
-8.999e-05
-0.2053
-0.2059
-0.2072
-0.21
-0.2015
0.007874
-0.1872
-0.2472
-0.1878
0.02267
-0.5798
-0.1862
-1.925e-05
-0.04862
0.02209
-0.051
-0.1892
-0.2289
-0.01989
-0.2977
-0.2945
0.004911
-0.2453
0.009898
-0.2018
-0.1881
-0.01034
-0.2106
-0.2454
0.04872
0.09136
-0.04452
-0.1418
-0.006997
-0.1016
-0.1953
-0.4255
-0.1977
-0.001171
0.008918
0.000288