/*--------------------------------*- C++ -*----------------------------------*\
  =========                 |
  \\      /  F ield         | OpenFOAM: The Open Source CFD Toolbox
   \\    /   O peration     | Website:  https://openfoam.org
    \\  /    A nd           | Version:  8
     \\/     M anipulation  |
\*---------------------------------------------------------------------------*/
FoamFile
{
    version     2.0;
    format      ascii;
    class       surfaceScalarField;
    location    "25";
    object      phi;
}
// * * * * * * * * * * * * * * * * * * * * * * * * * * * * * * * * * * * * * //

dimensions      [0 3 -1 0 0 0 0];

internalField   nonuniform List<scalar> 
189008
(
3.333e-08
-3.333e-08
4.319e-09
-4.319e-09
8.616e-09
-8.616e-09
1.249e-08
-1.249e-08
-1.2e-06
1.2e-06
1.278e-08
-1.278e-08
4.634e-06
-4.634e-06
-1.787e-06
1.787e-06
-1.081e-06
1.081e-06
4.519e-07
-4.519e-07
5.299e-06
-5.298e-06
-2.048e-06
2.048e-06
-4.815e-09
4.815e-09
-1.41e-08
1.41e-08
1.595e-05
-2.645e-05
1.049e-05
2.93e-06
-3.333e-06
4.032e-07
-2.792e-08
2.792e-08
0.001793
-0.0031
0.001307
-0.001227
0.0006527
0.0005743
-3.492e-06
3.752e-06
-2.591e-07
0.0004048
-0.0003434
-6.139e-05
-6.199e-08
2.9e-08
3.299e-08
-0.003236
0.01041
-0.007172
1.231e-05
0.0002809
-0.0002933
-4.206e-08
-1.993e-08
-0.0001323
7.507e-05
5.722e-05
-8.822e-06
9.705e-06
-8.835e-07
-9.714e-06
8.926e-07
0.0001039
-8.152e-05
-2.239e-05
0.004991
-0.013
0.00801
-2.495e-05
-0.0001148
0.0001398
-3.531e-05
-9.698e-05
2.664e-05
-1.84e-05
-8.239e-06
-2.067e-05
1.247e-05
8.207e-06
0.01165
0.01083
-0.02248
7.751e-06
1.889e-05
3.025e-05
0.0001744
-0.0002047
-0.001041
0.001511
-0.0004701
-2.764e-05
0.0003497
-0.0003221
-2.632e-05
2.993e-05
-3.616e-06
-0.0008615
-0.0003655
0.001885
-0.003699
0.001814
0.0004881
-0.004424
0.003936
1.376e-08
-1.376e-08
0.001719
7.426e-05
-1.093e-05
-9.737e-06
6.909e-05
3.482e-05
-0.0003802
0.0003966
-1.643e-05
-0.0004807
0.0005768
-9.619e-05
-1.807e-05
0.0002803
-0.0002622
1.019e-06
1.911e-06
-0.01392
-0.03065
0.04457
-2.603e-05
-1.933e-05
4.536e-05
-0.01262
0.01116
0.001464
1.083
-0.128
-0.9545
0.0005495
-0.0004446
-0.0001049
-0.1467
1.229
0.01223
-0.007596
-0.004632
-0.3121
0.01844
0.2937
-0.005551
-0.007068
-0.002313
5.934e-05
0.002253
-0.0002748
0.0006204
-0.0003455
-0.000174
0.001368
-0.001194
-0.81
0.955
-0.145
-1.701e-05
3.879e-05
-2.178e-05
-0.0003069
-0.003245
0.003552
-0.02841
0.02253
0.005879
0.001618
-0.001347
-0.0002717
0.0004535
0.001165
-1.277
0.4803
0.797
-3.984e-05
-0.0001729
0.0002127
3.708e-06
5.997e-06
-0.0008326
-0.00047
0.001303
-0.1154
-0.1967
-0.2733
0.5157
-0.2423
-3.915e-06
-5.799e-06
-0.0516
0.09153
-0.03993
-0.0003065
0.0002906
1.583e-05
0.0002965
0.000253
0.1598
-0.6341
0.4742
-0.0001009
7.849e-05
2.238e-05
-1.513e-06
-1.98e-06
2.009e-05
2.333e-05
-4.342e-05
5.264e-06
2.352e-05
-2.879e-05
9.677e-05
-0.000272
0.0001752
-0.0001784
0.0002904
-0.000112
-0.0004263
0.0008007
-0.0003744
-1.765e-06
-3.208e-08
1.797e-06
-0.003165
0.002858
-0.0003484
0.000608
-0.0002596
0.1863
-0.02144
-0.1649
-0.005231
-0.006181
0.01141
-0.0002718
0.0008831
-0.0006113
0.000233
0.0001718
0.0001182
-0.0001202
2.043e-06
0.02888
0.01463
-0.04351
0.003313
-0.001428
0.0001381
-0.0001396
1.538e-06
-0.0002369
-4.104e-05
0.000278
-0.01875
-0.009655
0.6862
-0.5263
-2.778e-06
-0.0004779
-5.08e-05
-0.0001609
0.0002117
0.004402
-0.005343
0.0009412
7.371e-05
-0.0002521
-0.0003063
6.94e-05
-0.0008556
0.001219
-0.0003629
-1
-0.2772
-0.001246
0.0006203
0.0006257
-1.154
0.8761
0.2777
4.098e-05
-2.502e-05
-1.522e-06
-2.431e-07
-0.0002503
3.498e-05
0.0002154
0.0006622
-0.001013
0.0003511
-0.2117
0.0957
0.116
0.0006369
0.002537
-0.003174
-0.1066
0.05809
0.04851
0.1657
-0.4391
0.02293
-0.07453
2.867e-07
-2.287e-07
-5.804e-08
-1.253
0.09895
1.146e-05
2.054e-05
-3.199e-05
-0.0003973
-0.0007383
0.001136
0.01411
-0.01207
-0.002038
-6.738e-05
-3.35e-05
9.388e-05
-8.731e-05
-6.565e-06
-0.000338
-0.0001864
0.0005244
0.08781
-0.1027
0.01493
-0.0001146
4.592e-05
6.868e-05
-0.0003773
0.0003065
7.086e-05
0.0001688
-5.249e-05
-0.0001163
0.0001042
-4.064e-05
-6.353e-05
-0.0003414
-0.001156
0.001498
-0.0001257
-0.0001808
6.855e-08
-5.368e-08
-1.486e-08
0.0001776
-8.842e-06
-0.004474
0.03603
-0.03155
-0.0001365
0.0002769
-0.0001404
-0.0001013
0.0001162
-1.494e-05
0.03395
-0.05487
0.02092
0.009282
0.0002898
-0.009572
-0.04747
-0.04253
0.09
-5.648e-05
9.295e-05
-3.647e-05
-0.0003264
0.000202
0.0001244
-4.832e-05
2.228e-05
0.00149
-0.0005871
-0.0009028
-2.416e-05
-8.838e-06
3.3e-05
-0.02783
-0.7822
0.0001286
-2.441e-05
0.000142
-0.000207
6.505e-05
0.00259
-0.00381
0.00122
0.0006946
-0.0001943
-0.0005002
0.003081
-0.003812
0.0007309
-0.008981
0.0002156
0.008766
0.0001706
-0.0003536
0.000183
0.0002601
-0.0001633
0.00809
0.004139
0.0003828
-0.0003144
-6.838e-05
-6.619e-05
-0.000314
6.028e-05
-0.0001146
5.435e-05
-0.0001597
0.0002922
-0.0001325
-1.619e-05
1.619e-05
0.1923
-0.005998
0.0002139
-6.464e-05
-0.0001493
7.047e-05
-0.00015
7.952e-05
1.362e-05
-3.063e-05
-0.0001685
1.566e-05
0.0001528
0.0001447
0.00165
-0.001795
-0.0001777
0.0001433
3.445e-05
-0.04156
0.03381
0.007752
4.929e-07
2.369e-06
-2.862e-06
-0.0001708
-0.0001556
-0.004625
0.001943
0.002682
-0.002752
0.0008714
0.00188
1.021
-1.194
0.173
-6.191e-05
4.175e-05
2.015e-05
-0.0008043
0.0004258
0.0003785
-6.108e-05
-5.352e-05
-0.0002512
0.0004851
-0.000234
0.1196
-0.1478
0.02817
-0.001797
-0.0009546
-0.1231
-0.002278
0.1254
-3.166e-05
3.873e-05
-7.071e-06
-4.18e-05
-2.011e-05
-0.000161
-0.0002163
0.0003263
-0.0006011
0.0005632
-0.00697
0.006407
-0.0001647
0.0008269
0.0002996
-0.0002873
-0.004594
0.08578
-0.08118
-5.054e-06
5.743e-05
-5.238e-05
-4.431e-05
-8.021e-06
5.233e-05
-0.04356
0.03909
0.0007935
-0.0009301
0.0001366
4.063e-08
0.0001257
0.000384
-0.0005097
-1.47
1.199
0.2711
-1.464
1.194
0.2702
8.607e-07
1.509e-07
-1.012e-06
-0.1669
0.1321
0.03489
0.2042
-0.03794
-0.1663
-0.05809
0.04898
0.009115
0.02701
-0.06978
0.04277
0.0001842
-0.000154
-3.501e-08
3.501e-08
0.0002236
-0.0007616
0.000538
0.02629
-0.007725
-0.01856
0.002784
-0.0006497
-0.002134
0.02529
-0.0203
-0.2087
-0.003063
0.002841
-0.02151
0.01867
-0.0002764
0.0002055
7.088e-05
-0.05994
0.203
-0.1431
-8.067e-05
-9.703e-05
2.148e-06
-6.662e-05
6.447e-05
7.364e-07
-9.633e-07
2.269e-07
-4.272e-06
3.858e-06
4.14e-07
0.003514
-0.002114
-0.0014
-4.037e-05
0.0001409
-0.0001005
0.02229
0.004001
-0.0006985
0.00027
0.0004285
-0.4709
0.2222
0.2488
0.000613
8.154e-05
2.573e-05
-2.657e-05
8.398e-07
5.587e-05
3.133e-05
-8.719e-05
-8.099e-06
6.63e-06
1.47e-06
-0.0001275
0.000198
0.0004471
-0.001488
2.909e-05
-2.999e-05
8.98e-07
0.0003448
-0.0003213
-2.349e-05
-0.0003506
9.153e-05
0.0002591
-0.04788
-0.07524
-0.001351
0.0005187
-3.313e-07
4.042e-07
-7.297e-08
-0.0002131
-0.0001375
-0.02394
0.01888
0.005056
6.601e-05
0.0001479
2.353e-07
-2.353e-07
0.2256
-0.02138
-0.0001063
2.442e-05
8.193e-05
-7.733e-05
3.302e-05
-2.63e-05
5.474e-05
-2.844e-05
0.0002688
-0.0001863
-8.248e-05
0.0001869
0.0001959
0.0003222
6.464e-05
-0.0003869
1.857e-07
1.01e-07
0.0006925
0.0003016
-0.000994
1.023e-05
-9.258e-06
-9.771e-07
1.169e-06
-1.169e-06
0.197
-0.9679
0.7708
-0.0004725
-0.001814
0.002286
-3.501e-05
8.583e-05
-5.082e-05
0.002266
-0.001073
-0.001193
-0.0003859
0.000132
0.0002539
-0.0001013
0.0004517
-0.0003504
0.0006959
-0.000407
-0.0002889
0.1164
-0.02859
5.438e-05
-0.0001869
0.0001325
-0.0001988
0.001448
-0.00125
-0.009162
-0.0006838
0.009846
0.0006155
-0.0003355
-0.0002799
-0.06532
0.09792
-0.03261
-0.01381
0.008582
-0.08784
0.04037
-4.638e-05
-0.0002082
0.0002546
-4.08e-06
-3.361e-05
3.769e-05
3.214e-05
-6.266e-05
3.051e-05
0.0001069
-0.0002608
0.0001539
-0.001005
-0.0007801
0.001785
0.002813
-0.005661
0.002847
-0.0001827
-5.484e-06
0.0001881
0.8564
0.1646
0.0003896
-0.0004853
9.568e-05
-0.0001097
3.323e-06
0.001085
-0.001842
0.0007577
6.611e-05
-7.117e-05
-0.0001361
-0.0001143
0.0006776
-0.0007845
0.0001068
-0.3775
-0.4323
0.8098
0.0007836
0.001305
-0.002089
-0.5426
-0.3511
0.8937
0.04516
-0.01627
0.004448
-4.601e-05
-0.09037
-0.1661
0.2564
0.045
0.1211
-0.1661
8.892e-08
-2.792e-08
-6.1e-08
-0.0001597
0.0001307
2.905e-05
-0.07454
-0.1021
0.1766
0.0007884
-0.0005782
-0.0002102
0.1732
-0.05358
-3.627e-05
0.003117
-0.002454
0.005477
-0.003023
-0.01108
-0.01286
0.001009
0.001385
-0.002394
-0.2068
0.2378
-0.03102
-0.0005218
0.0008864
-0.0003646
-0.0001076
-7.267e-05
0.0001802
1.095e-05
1.749e-06
-1.27e-05
0.0001046
0.0001642
0.003867
-0.001054
-7.658e-05
-0.000125
0.0002016
-0.003997
0.001169
0.002829
-0.001198
-0.001823
0.003021
0.003745
-0.003108
-4.641e-05
7.818e-05
-3.177e-05
0.0005535
0.0001134
-0.000667
0.00254
0.0002437
-0.1835
0.1236
0.0002741
-4.422e-05
-0.0002299
-0.003202
0.003237
-3.474e-05
0.0009289
7.471e-05
-0.001004
-9.473e-08
4.878e-06
-4.784e-06
-0.0003555
0.0002399
0.0001156
-0.8567
0.3141
-0.2576
0.1343
0.1234
0.0002857
0.0001234
-0.0004091
0.0005964
-0.0005833
-1.311e-05
-6.198e-05
-9.918e-05
0.0001612
0.018
-0.009126
-0.008871
0.1929
-0.1829
-0.01008
0.009162
-0.0124
-0.0001977
-1.226e-05
0.00021
0.09514
-0.05313
-0.04201
0.001598
0.000668
0.0004459
-0.0001602
3.967e-06
0.0002356
-0.0002396
-0.01644
0.0321
-0.01565
6.6e-06
-4.268e-05
3.608e-05
0.0003563
-0.0001338
-0.0002225
-0.001747
0.0005273
0.00122
-0.0008224
0.0004822
0.0003402
0.1935
-0.1485
-0.005952
0.0176
-0.5005
-0.9692
-0.4983
-0.9654
-0.01093
0.001953
-0.001014
0.0008248
0.0001888
-0.004419
-0.0002059
-0.0003101
-0.0005123
-1.123e-05
-0.0001017
0.0001129
-0.01228
0.04623
0.002404
0.00111
4.024e-05
-2.192e-05
-1.832e-05
-9.804e-06
-3.368e-05
4.349e-05
-0.0004911
0.0001275
0.0003635
0.0002179
0.0005705
-5.484e-05
2.291e-05
3.192e-05
0.0001207
-0.0001492
2.845e-05
0.0002615
-0.0001867
-7.484e-05
1.903e-05
-8.154e-05
6.25e-05
-0.0003568
0.0002858
7.098e-05
0.0005509
-0.0006235
7.261e-05
-1.552e-06
5.479e-05
-5.323e-05
5.631e-05
-0.001444
-0.02745
0.02889
-7.299e-05
6.491e-05
8.079e-06
-0.0002959
-8.997e-05
-0.0002077
-0.00115
0.001358
0.3009
-0.4091
0.1082
0.0003158
4.051e-05
0.0002355
-0.00044
0.0002045
-0.001614
0.00144
-0.003241
-0.003725
0.006965
0.0005436
-0.0005667
2.312e-05
-5.143e-05
0.0004021
-0.0003506
0.3807
0.1362
-0.5169
-0.1188
-0.04814
-0.1712
0.2403
-0.06908
-2.402e-05
2.847e-05
-4.45e-06
0.4307
-0.8083
-0.001494
0.001561
-6.709e-05
0.06
0.03514
8.291e-05
-0.0001179
3.916e-05
-0.0003231
0.000284
0.1168
-0.1214
0.03059
-0.0136
-0.017
-8.295e-05
0.0003537
-0.0002708
1.987e-07
1.6e-07
-3.587e-07
-0.0002113
0.0003922
-0.0001809
0.9203
-0.6896
-0.2307
0.001291
0.00228
-0.003571
2.178e-05
7.21e-05
-0.0003702
0.0002716
9.853e-05
0.006393
-0.00489
-0.001503
-0.08573
-0.02087
5.859e-06
8.012e-07
-6.66e-06
0.01605
-0.02039
0.004341
1.491e-06
-2.781e-05
-0.0003554
0.0004988
-0.0001434
7.415e-05
-0.0007972
0.000723
0.2459
-0.2552
0.009252
0.005929
-0.005073
-0.0008566
3.709e-06
-1.56e-05
1.189e-05
0.0001355
0.0003293
-0.0004647
-0.0003925
0.0004318
-3.922e-05
-7.14e-05
0.0001436
-7.225e-05
0.003928
0.002001
-0.0001684
0.0001434
-0.0228
0.02136
0.009384
-0.0747
3.065e-05
-5.001e-05
1.936e-05
-0.5077
0.03679
-0.0003699
-1.952e-05
0.0003894
-5.369e-05
2.204e-05
-0.000658
0.01671
-0.004478
0.003556
0.0009219
-9.701e-05
0.0003592
-0.0002622
-0.002126
0.002102
2.422e-05
0.1111
0.4876
-0.5988
0.0002642
-0.0005154
-0.0002803
-0.0001957
0.000476
-0.0003087
-3.348e-06
0.000312
0.001237
0.008045
-2.482e-05
-0.0002704
0.0002952
-0.001097
0.0006993
4.139e-05
7.677e-05
-0.0003277
0.000278
4.975e-05
-0.0002171
3.443e-05
-0.0001598
0.002438
-0.002278
-0.0006546
0.0001137
0.0005409
-0.0001949
2.645e-05
-1.155e-05
1.073e-05
8.194e-07
-8.119e-05
8.675e-05
-5.563e-06
-0.6755
0.8725
0.0004748
-0.00013
0.008133
-0.01083
0.002702
-0.003651
0.004139
-0.01226
0.000689
0.01157
-3.758e-05
1.127e-05
-0.01099
-0.007304
0.0183
-1.275
1.436
-0.1617
0.0001083
-0.0001096
1.218e-06
-5.253e-05
-2.768e-05
8.021e-05
0.006959
0.01109
-0.01805
0.00318
-0.003071
-0.0001093
0.5726
-0.1919
0.001052
-0.002081
0.00103
-1.178e-05
5.093e-05
-3.915e-05
-0.06026
0.04634
-0.02546
-0.1813
0.7015
-0.6555
-0.04604
0.0004098
-0.0004278
0.06619
-0.03016
-0.0003534
-0.0001171
0.0004705
0.05191
-0.05486
0.002948
1.845e-05
0.0001196
-0.009764
-0.1343
0.1441
0.0004253
-0.0003117
-0.0001136
0.05449
-0.2257
-0.0001425
-0.000134
0.0002952
-0.0003229
2.767e-05
-0.0003947
0.0002316
0.0001631
-0.001361
0.003046
-0.001685
-1.389e-05
2.653e-05
-1.264e-05
-0.01956
0.007964
0.0116
0.0003066
-0.0001623
-0.0001443
0.0001609
5.098e-05
-0.0002119
4.947e-05
-5.587e-06
-4.388e-05
0.0003454
-8.419e-05
-0.0002612
0.0001636
0.007935
-0.008098
-0.002492
0.002151
-2.823e-05
9.352e-06
1.888e-05
0.000116
7.151e-05
-0.0001875
0.001889
-0.001652
-0.0002369
5.816e-06
-3.405e-05
0.3527
-0.943
0.5903
0.1188
-0.0003164
-0.1185
-0.0002757
0.0001146
0.0001611
4.233e-05
-4.563e-05
3.302e-06
-1.539
0.1227
1.417
0.0004837
-0.000294
-0.0001896
-0.002312
0.01163
-0.009319
0.005123
0.008987
4.629e-05
0.0005501
0.03138
-0.01708
-0.0143
1.412
-0.2682
-1.144
4.034e-05
-0.0002354
0.000195
-0.01161
0.009299
4.573e-05
-4.032e-05
-5.413e-06
-8.911e-05
6.217e-05
2.693e-05
9.049e-05
-6.467e-05
-2.582e-05
0.0003543
-2.91e-05
-0.0003252
-4.521e-05
6.685e-06
3.853e-05
-0.0002065
-0.0001489
-0.0007204
7.555e-05
0.0006449
0.0009535
0.002227
0.0002344
-9.345e-05
-0.0001409
-0.1252
0.2551
-0.1299
-9.888e-05
0.0001592
-0.1024
0.08378
0.01859
0.0007068
-0.0005796
-0.0001273
0.000413
-0.0008393
6.959e-05
-5.895e-05
-1.065e-05
0.0002527
-0.001478
0.001226
-8.595e-09
-2.642e-08
-0.0001773
8.493e-05
9.233e-05
-0.0003451
0.0007551
-0.0004099
0.03079
-0.01846
-0.01233
0.001865
-0.002369
0.0005045
-0.2872
0.2317
0.05553
6.694e-05
2.355e-05
0.1164
0.002381
0.0001372
1.735e-05
-0.0001545
0.0004425
-0.0003168
-4.934e-08
4.934e-08
7.467e-08
-2.071e-08
-5.396e-08
8.078e-08
-7.47e-08
-6.079e-09
1.196
-0.8185
-0.3779
-3.653e-05
-3.645e-05
3.302e-05
0.0004537
-0.0004867
-0.145
-0.1126
-0.0005328
-1.888e-06
0.0005347
-0.0002781
0.0008634
-0.0005853
-0.0001336
0.000146
-1.242e-05
0.00345
-0.0002996
-0.00315
-2.333e-06
0.0002976
-0.0003383
-5.638e-05
0.0002967
0.000187
9.674e-06
-8.97e-06
-7.042e-07
-0.4373
0.7901
-0.000217
0.0001297
8.73e-05
-4.716e-08
4.42e-08
2.96e-09
0.0004046
-0.0004589
5.432e-05
0.0001961
-4.407e-05
-0.000152
4.225e-06
-3.732e-06
0.06363
-0.179
0.003444
-0.0008537
-0.05111
0.07811
-2.278e-05
0.0001388
0.0423
0.2466
-0.2889
-0.0001506
3.537e-05
0.0001153
-3.936e-05
-5.894e-05
9.83e-05
3.171e-05
-3.004e-05
-1.673e-06
1.526
-0.9021
-0.624
-0.0002162
-5.952e-05
0.009534
0.003961
-0.0135
-9.595e-07
8.444e-07
1.151e-07
-0.0006436
-2.613e-05
0.0006697
0.0001174
-8.157e-06
-0.0001092
0.0002063
-0.0001395
-6.684e-05
-0.1072
0.1026
0.004542
1.514e-05
-6.653e-05
5.138e-05
0.0009221
0.0007116
-0.001634
-0.8035
-0.736
0.002396
-0.004914
-4.049e-05
0.004955
-0.0002189
0.0001113
0.0001862
0.0003574
3.37e-07
4.199e-05
3.593e-05
-5.653e-06
-3.028e-05
-0.0004479
9.251e-05
-0.003096
0.003707
-0.0006112
0.0006943
3.285e-07
-0.0006947
9.869e-05
-0.0001964
9.772e-05
2.924e-05
7.909e-05
0.1127
0.05514
-0.1678
-3.88e-05
2.884e-05
9.957e-06
2.268e-05
-0.0001281
0.0001054
0.0002343
-0.0002589
2.453e-05
0.0009355
-0.001983
0.001048
0.0001145
-0.0002086
9.411e-05
-0.791
0.1142
0.6767
-0.7883
0.6297
0.1585
0.002322
-0.01148
-5.138e-05
-3.457e-06
-0.0005407
-0.001258
0.001799
0.1385
-0.2086
0.07014
1.473
-0.649
-0.8236
-0.00147
0.002389
-0.0009195
0.0001762
-0.0002569
8.069e-05
-0.0004419
0.0001725
0.0002693
-0.0006955
-2.491e-05
2.851e-05
2.397e-06
-3.091e-05
-9.944e-06
9.266e-06
6.788e-07
-0.003112
0.002973
0.000139
-0.1411
0.1001
0.04093
1.4
-1.278
-0.1228
-3.629e-05
1.812e-05
1.816e-05
-8.85e-05
-0.0001817
0.0002702
0.0004946
-0.001516
0.001021
0.3135
0.5222
-0.8357
3.443e-06
6.792e-06
0.002299
-0.002679
0.0003807
-7.936e-05
7.819e-05
1.171e-06
0.488
-0.0001646
0.0001881
-2.348e-05
-0.02701
0.1655
0.0001735
-0.0002705
-9.863e-05
3.897e-05
5.966e-05
0.0009911
-0.0008808
-0.0001104
0.9788
0.1618
-1.141
-1.054e-05
-4.045e-05
5.099e-05
0.0004323
0.0001832
-3.898e-05
2.279e-05
0.391
1.021
0.0003509
-0.001206
-3.189e-06
-1.083e-06
0.3954
0.3062
-0.001714
-0.002764
-0.1644
0.005058
0.1594
-0.0002449
-0.0002826
0.0005275
0.0002476
-0.0001011
-0.0001464
-0.2801
0.1897
4.199e-05
-3.823e-05
-3.755e-06
0.0001407
0.0002548
-0.0003955
-6.402e-07
8.485e-06
-7.844e-06
-4.406e-05
-3.997e-05
8.403e-05
-4.231e-05
8.718e-06
3.359e-05
-0.000104
-0.0002527
-0.0001226
-0.0002476
8.438e-05
0.0001823
-0.0002667
0.0004196
-0.0004473
0.0006143
-0.0008861
0.0003682
-0.0005681
0.0001998
6.685e-05
-7.558e-05
8.729e-06
-1.577e-05
3.018e-05
-1.441e-05
0.0001594
-0.0001187
-4.065e-05
-0.6001
0.9136
0.0004198
-0.0002919
-0.0001279
0.1083
-0.1942
0.08596
-0.0004949
3.879e-06
-0.1242
0.03474
0.08943
4.861e-05
-0.0001051
-0.3421
-0.9325
-0.1524
0.07787
-0.002567
-0.005113
0.00768
-0.0003228
-0.0003317
-0.000146
-0.0001083
0.0002543
-1.04
0.1279
0.9122
1.107
-0.899
-0.208
4.602e-05
-1.693e-05
1.474e-05
6.789e-06
-2.153e-05
-2.085e-05
4.094e-05
-0.0002516
9.263e-05
0.000159
0.0006697
-0.0002201
-0.0004496
0.0002895
-0.0006429
-0.0002538
0.0003727
-0.0001189
-0.0007131
0.0004328
-7.126e-05
3.758e-05
-2.013e-05
5.376e-05
-3.363e-05
-1.704e-05
-4.785e-06
2.182e-05
-1.16
0.1202
1.486e-05
3.514e-05
-5e-05
1.162e-05
-6.429e-05
5.267e-05
-3.227e-05
-0.00502
0.005052
0.009331
-0.005796
-0.003535
0.1784
-0.2399
0.0615
1.03
0.443
0.0004064
-0.0004024
-6.027e-06
-9.523e-05
6.85e-05
0.0001659
3.024e-06
-2.029e-06
-9.945e-07
-0.07623
-0.04794
-0.9854
-0.4035
1.389
-6.189e-05
-4.445e-05
0.0001063
-6.621e-05
1.282e-06
6.493e-05
-0.05112
-0.006971
1.049e-05
1.261e-05
-2.309e-05
0.0145
-0.002194
-0.01231
-0.03539
0.08798
-0.05259
-6.838e-05
2.449e-05
4.389e-05
0.002311
-0.002849
0.0005376
-5.786e-05
6.949e-05
0.004511
-0.009201
0.00469
-2.442e-08
2.442e-08
-1.019e-05
2.091e-06
5.023e-05
0.0002952
0.0002253
8.136e-05
-8.432e-05
-7.538e-05
5.368e-05
2.128e-05
-7.496e-05
-0.0001583
-6.266e-06
-2.808e-05
5.154e-05
-2.346e-05
0.05615
0.006932
-0.06308
9.816e-05
-3.534e-05
-6.282e-05
2.294e-07
4.903e-06
-5.132e-06
-8.059e-05
-0.0002893
0.7436
-1.068
0.3246
0.000822
-0.0001444
-0.004702
0.00413
0.0005713
0.001253
-0.003043
0.001791
1.076
0.4498
-0.02582
0.7695
4.565e-07
-4.581e-07
1.582e-09
0.02343
0.007364
0.0002133
-0.0003705
0.0001572
4.216e-05
-4.316e-05
1.001e-06
-0.0003083
0.0005431
-0.0002348
0.0002771
-3.02e-06
0.004047
0.002928
-0.006974
0.0001241
-6.827e-05
0.00342
-0.006563
0.003142
0.0006091
-0.0005201
-8.902e-05
-0.1494
-0.1991
0.3485
1.05
-0.04441
-1.006
-0.002245
-0.0004614
0.002706
-0.0009827
0.009115
8.159e-06
-3.217e-05
-0.001725
0.002977
0.0001952
-0.0002165
2.122e-05
0.000777
-0.0002557
-0.0005213
0.0002093
0.0001209
-0.0003302
-0.02019
0.02303
0.003821
-0.007062
-1.125
-0.386
1.511
-6.31e-05
0.0001183
-5.515e-05
0.02285
0.008529
-0.0006428
0.0004871
0.0001557
3.958e-08
-0.002235
0.0006486
0.001587
-0.0004942
0.0004478
0.0001413
-0.0003525
1.258
-0.2787
-0.001439
0.001629
-0.0001905
-0.0002047
-0.0003122
0.0005169
-7.259e-06
7.501e-06
-2.422e-07
-0.0004828
-0.0002529
0.0007357
0.0002215
9.227e-06
-0.0002308
-4.949e-05
-2.178e-05
-7.075e-05
0.0002127
-0.0001562
-0.0001715
0.0001023
-0.0003385
0.0002362
0.0004688
0.0002604
-0.0007292
0.0003794
-0.0004807
0.001031
-0.001752
0.0007219
-0.003414
0.000212
6.193e-05
-0.0003999
0.003125
-0.00598
0.002855
-6.826e-08
6.826e-08
-0.0009966
-0.003705
-0.06611
0.02455
0.0001422
-0.001104
0.0009615
0.0001678
0.0002979
-0.0004657
1.797e-06
0.0007078
-0.0007096
0.1017
0.372
-0.4737
-2.461e-05
1.806e-05
6.554e-06
8.591e-05
0.000465
-0.0003996
-4.226e-05
-1.511
0.5253
7.83e-07
2.241e-06
-0.0001014
2.017e-05
0.0001632
-0.0001868
2.356e-05
-0.3881
-0.6376
1.026
3.075e-06
-3.115e-05
8.91e-05
-0.0001075
1.84e-05
1.74e-05
-5.383e-05
3.643e-05
1.685e-05
-6.964e-05
5.279e-05
-1.198
0.81
-0.0004191
0.0002385
0.0001806
-3.678e-07
-1.162e-06
1.53e-06
3.279e-05
-4.996e-05
1.717e-05
-0.0002993
0.0003034
-4.163e-06
-0.1578
0.06271
0.09513
2.576e-05
1.448e-05
9.709e-05
-0.0001454
4.835e-05
-0.1616
0.1678
-0.006202
0.002727
0.0005116
-0.003238
-0.00385
0.003767
8.317e-05
6.434e-05
-1.066e-05
-0.0001174
-5.987e-05
-0.002614
0.003782
-0.002527
0.0002918
-5.544e-06
-0.000108
0.0001135
-2.489e-05
5.703e-05
0.2819
0.587
-0.869
-0.0002919
-0.0001272
-0.0003397
0.0006235
-0.0002837
5.251e-05
-5.326e-05
7.492e-07
-6.379e-05
-0.0002449
-0.01355
0.01179
0.001754
-0.0006581
0.0001253
8.289e-06
2.764e-05
1.028
-0.7463
2.122e-05
-0.0001548
-2.756e-05
-4.082e-05
-1.201e-05
-3.431e-05
4.632e-05
1.651e-07
-4.964e-07
4.94e-05
-6.141e-05
1.372e-05
1.799e-05
0.000172
2.866e-05
-0.0002007
0.0002179
-0.0001409
-7.698e-05
-0.004549
0.001179
0.00337
0.1728
1.024
-6.53e-09
6.53e-09
5.404e-05
7.15e-05
-0.0001255
4.271e-05
-8.678e-05
2.569e-05
-2.337e-05
-2.328e-06
-8.763e-05
0.0002426
-0.0001549
1.381e-05
-7.111e-05
5.73e-05
-0.0001064
1.652e-05
8.99e-05
-0.0002875
0.0002477
0.5593
0.8412
0.0001522
0.0003252
-0.0004774
-0.004448
0.001251
0.003198
-1.504
0.3788
-5.409e-05
9.169e-05
-3.76e-05
0.000155
0.0005518
0.001522
-0.000593
0.0008409
0.0003216
-0.001163
0.1374
-1.017
0.8795
6.75e-05
-0.0003213
5.91e-05
-1.064e-05
-4.846e-05
-0.2746
-0.7144
0.8518
0.006788
0.002543
-0.0006074
0.0008399
-0.0002325
0.0003514
0.0003183
-8.229e-05
-4.356e-06
8.664e-05
-0.0004003
0.0003537
4.663e-05
2.828e-06
-1.779e-07
-2.651e-06
-0.004087
0.0009988
0.003088
-0.004002
0.005381
-0.001378
-0.7987
-0.2695
-0.0002503
6.377e-05
0.0001866
-0.0002324
0.0001143
0.0001181
0.0002141
-0.0001772
-3.69e-05
5.052e-05
-9.692e-05
0.001924
-0.001779
1.085
0.08584
-1.17
0.2752
-0.2116
0.07832
-0.1345
0.05617
-7.696e-06
1.958e-06
5.738e-06
0.04547
-0.8442
0.03288
-0.01826
-0.01463
-7.221e-05
0.000148
-7.577e-05
-0.000702
-0.0008326
0.001535
6.621e-05
2.726e-05
-9.347e-05
-0.2157
0.8472
-0.6315
-0.0001443
0.0001028
4.151e-05
-0.0003135
0.001742
-0.001429
-0.2386
-0.01755
0.2561
0.0001324
0.0001291
0.6917
0.4735
-1.165
-0.0003664
-0.0002223
0.0005887
3.467e-06
-2.9e-06
-5.669e-07
6.339e-05
-3.019e-05
-3.32e-05
-0.0004004
-0.0006962
0.001097
1.059e-05
7.385e-06
-1.798e-05
0.1856
-0.0488
-0.1368
2.786e-05
2.186e-05
-4.972e-05
-0.009021
0.009118
-9.703e-05
-0.000117
-3.363e-05
9.681e-06
-3.947e-06
-5.734e-06
-0.0001127
-0.0001023
0.000215
0.0001958
5.818e-05
-0.000254
-0.007218
-0.006331
0.005359
-0.005923
0.0005642
0.001848
-0.0003572
-0.001491
3.239e-05
-3.239e-05
-0.3401
0.1971
0.143
-0.001867
0.003561
-0.001693
0.000487
-0.0003153
-0.0001717
-0.0001776
0.0003243
-0.0001466
-4.493e-06
4.722e-06
5.979e-05
-5.246e-05
-7.321e-06
-0.1177
1.202
0.04643
-0.02894
-0.01749
-2.573e-05
-1.055e-05
-0.0001086
4.283e-06
0.0001043
-3.119e-06
4.504e-06
-1.386e-06
-0.0004475
0.001162
-0.0007144
2.134e-06
-2.134e-06
-0.0002923
0.0003266
-3.427e-05
-1.402e-06
1.402e-06
-0.0001627
5.26e-05
0.0001101
1.835e-05
1.091e-05
-2.927e-05
0.0003888
-0.0002366
2.05e-05
-1.448e-05
-6.017e-06
0.09801
-0.07383
-0.02419
0.001293
-0.0009864
-0.0003069
1.092
-1.516
0.4241
1.318
-1.741
0.4229
-4.765e-05
-0.0001196
0.0001672
-0.04326
0.09203
-0.04877
6.629e-05
-9.46e-07
-6.534e-05
-0.003457
0.001524
0.001933
-0.001123
0.0001094
-0.007776
0.008769
-0.0009933
0.04629
-0.1009
0.05464
-0.0005429
3.171e-05
0.0005112
0.0004874
0.0007778
-0.001265
0.2519
-0.005935
-0.0008147
0.001089
-0.0002742
0.0001295
-0.0002382
0.0001087
0.09347
-0.04717
4.136e-05
-2.058e-05
-2.079e-05
5.551e-06
-5.551e-06
-8.035e-05
1.049e-05
6.986e-05
0.000875
-0.002832
0.001957
7.635e-05
-3.792e-05
-3.844e-05
-2.122e-05
0.0001218
-0.0001005
-7.458e-05
7.137e-05
3.209e-06
-0.3385
0.1235
0.215
8.026e-05
-1.067e-05
-0.0003165
-0.0003263
-0.04969
0.3506
4.575e-05
-3.429e-05
0.0001942
-1.692e-05
-0.0001772
0.0004113
-0.0007001
0.0002888
-0.4774
-0.5494
1.027
0.2176
0.0009345
-0.2185
0.002431
-0.001767
-0.0006636
7.252e-07
4.306e-07
-1.156e-06
0.0001515
-0.002184
0.002032
-5.465e-06
5.465e-06
0.0004781
-0.0002465
-0.0002316
0.0007208
-0.0001874
-0.0005334
-0.001595
0.001456
0.0001393
1.334e-06
8.924e-07
-2.226e-06
5.564e-05
1.671e-05
-7.235e-05
-0.4118
1.373
-0.961
-8.854e-05
0.0001216
-3.304e-05
0.005621
-0.0005567
-0.005064
-0.3003
1.333
-1.032
-0.0005996
-0.0008236
0.001423
-2.14e-07
1.104e-07
1.036e-07
0.001048
0.001277
-0.002325
-6.295e-05
3.585e-05
2.709e-05
0.006616
-0.003744
-0.002871
0.001258
0.003145
-0.004403
-2.461e-07
-3.375e-07
5.836e-07
1.218e-05
-1.218e-05
0.0003116
0.0001349
-0.0004465
-0.08792
-0.05314
-0.4604
0.2236
0.2368
0.002853
-0.001088
-0.001765
-0.001376
0.001053
0.0003227
-3.809e-05
-6.899e-05
0.0001071
5.722e-05
-3.296e-05
-2.425e-05
-0.0005474
-0.0001824
0.0007298
0.0001737
-8.287e-05
-9.082e-05
-0.001505
0.001362
0.0001429
-0.009588
0.01729
-0.007705
6.734e-05
0.0001064
-0.03196
-0.01525
0.04721
1.839e-05
1.089e-06
-1.948e-05
0.1368
-0.5755
0.4386
-0.0001792
-0.000276
0.0004551
-2.233e-06
9.631e-06
-7.398e-06
0.0002301
-0.0002774
4.736e-05
-0.0001155
9.559e-05
1.995e-05
0.0003521
-0.0001715
-0.0001806
-0.3822
0.09704
0.2851
-0.1892
0.05591
0.1333
2.052e-05
-3.394e-05
1.342e-05
0.007798
-0.008853
0.001055
-6.309e-05
0.0001234
-6.032e-05
0.000251
-0.0004277
0.0001767
3.058e-05
-6.026e-05
2.968e-05
-0.0004459
0.0004404
5.511e-06
0.0004194
-0.0001227
-0.0002967
-0.000232
0.0002218
1.027e-05
-9.098e-06
5.662e-05
-4.752e-05
4.271e-05
-4.271e-05
-2.495e-06
-4.777e-05
5.027e-05
-1.989e-05
0.0001389
-0.000119
-6.066e-05
5.02e-05
1.046e-05
-0.002756
0.004139
-0.001383
-0.0002779
0.0006187
-0.0003409
0.0001279
0.0006655
9.741e-05
-0.0001007
3.329e-06
1.338e-07
-4.493e-06
4.359e-06
-1.707e-07
1.014e-07
6.93e-08
0.0004256
-0.0001969
-0.0002287
-0.3194
0.4211
0.5898
0.2175
-0.8073
0.0003448
-0.0004443
9.947e-05
-7.509e-05
-0.0002083
0.0002834
0.00485
-0.0008901
-0.003959
-0.1886
1.18
-0.9915
0.0002732
0.0006069
-0.0008801
0.0003437
2.891e-05
-0.002543
-0.005773
0.008316
-3.666e-05
-2.305e-05
5.971e-05
0.0009399
-0.0006873
-0.0002527
1.072e-05
-4.421e-05
3.348e-05
0.002744
-0.003245
0.0005011
0.7873
-0.6762
-0.008422
0.00282
0.005602
0.01233
0.0005486
-0.01288
6.914e-05
-8.023e-06
-6.112e-05
2.384e-05
3.989e-05
-6.373e-05
0.0001037
-7.844e-05
-2.528e-05
-0.004392
0.001715
0.002677
0.0005402
-0.003809
0.003268
-1.432e-05
3.633e-05
-2.202e-05
-0.0003584
0.0005337
-0.0001753
-0.00204
-0.001345
0.003385
-0.0009208
0.0003552
0.0005656
-0.0006792
-0.0001486
0.0008278
0.001111
-0.0009033
-0.0002081
-0.0002122
0.0001825
2.97e-05
0.000139
-9.937e-05
-3.964e-05
0.2601
-0.3212
0.06113
9.017e-06
-5.132e-06
-3.885e-06
1.893e-07
5.287e-07
-7.18e-07
-0.0005654
0.0002256
1.277e-06
-0.000106
0.0001047
-4.085e-05
1.44e-05
0.02173
-0.1184
0.09662
8.942e-06
-8.942e-06
-4.699e-05
4.699e-05
-0.1667
-1.047
1.214
1.259
0.2309
-1.49
9.73e-05
-5.54e-05
-4.19e-05
-5.953e-05
0.0003537
-0.0002941
-1.078e-07
1.264e-07
-1.859e-08
-1.467e-05
9.09e-06
5.579e-06
-0.0001474
0.001441
-0.0003158
0.0004102
-9.433e-05
-4.743e-05
-4.888e-06
5.232e-05
-0.001101
-0.004204
0.005305
0.003637
0.0052
-0.008836
-0.1901
0.06292
0.1271
-4.723e-05
3.185e-05
1.537e-05
4.65e-05
0.0004062
-0.0004527
3.993e-05
-7.939e-05
3.947e-05
-0.004688
0.001034
0.003654
-1.445e-07
-5.086e-08
1.953e-07
-0.0001995
0.000276
-7.657e-05
0.8159
-1.147
0.3314
-5.446e-05
5.446e-05
-0.0001273
8.284e-05
4.444e-05
0.1661
0.5629
-0.729
-4.948e-05
4.274e-06
-1.287
1.12
0.2421
-0.4266
0.1845
-0.002988
0.002089
0.0008993
-0.01123
-0.002151
0.01339
-5.28e-06
3.234e-06
2.047e-06
0.7809
-0.9462
0.1653
0.0002863
-0.000152
-0.0001343
0.4757
-0.1359
-0.3398
0.0004652
-0.0008769
0.0004116
-0.01686
0.005574
0.01129
0.001136
-0.0008387
-0.0002971
0.006227
-0.00326
-0.002967
-7.126e-05
-0.0002999
0.0003712
-0.0003187
-0.000127
0.0004457
-3.495e-05
-1.045e-05
4.54e-05
0.001533
0.0003371
-0.00187
0.1495
0.6508
-0.8003
0.01077
0.06117
-0.07194
0.000295
-0.0001771
-0.0001179
-0.0001077
-0.0005425
0.0006502
-2.763e-05
9.038e-05
-6.276e-05
-5.88e-05
3.31e-05
2.57e-05
2.391e-05
-1.433e-05
-9.582e-06
3.131e-05
7.962e-06
-3.927e-05
5.922e-06
-5.922e-06
4.906e-05
-8.903e-05
0.0007036
-0.0005159
-0.0001877
5.393e-06
-7.727e-06
2.334e-06
-0.0003914
0.000254
0.0001374
5.789e-05
2.616e-05
-8.406e-05
0.00548
-0.006391
0.0009109
-0.0003239
4.554e-05
0.0002783
0.4951
-0.3656
-0.1295
5.585e-05
-6.063e-05
4.79e-06
-1.116e-07
-9.939e-06
1.005e-05
-0.0001651
1.133e-06
0.000164
0.4959
-1.094
0.5977
-0.0003692
0.0001253
0.0002439
-0.000573
0.0003059
0.0002671
-0.001623
0.0004092
0.001214
0.001225
-0.0005592
-0.0006661
1.761e-05
-7.953e-05
6.192e-05
0.001438
0.006783
-0.008221
-3.149e-05
3.599e-05
-4.509e-06
9.302e-05
0.0003022
-0.0003952
-0.000824
-0.0007993
2.005e-05
3.698e-05
-5.703e-05
-0.0002679
-4.023e-05
0.0003081
2.826e-06
6.855e-06
-1.181
0.5417
0.6392
0.002182
-0.004247
0.002065
4.922e-05
-1.776e-05
-3.146e-05
0.1291
0.05723
-0.1863
6.823e-05
-1.931e-05
-4.892e-05
-2.967e-05
-7.505e-06
3.718e-05
-1.247
1.247
0.001519
0.002366
-0.003885
9.259e-06
-1.218e-05
2.92e-06
0.06857
-0.05271
-0.01586
0.006609
-0.001129
-2.239e-06
9.235e-05
-9.011e-05
7.547e-05
-1.803e-05
-5.744e-05
0.01237
-0.009546
-0.002828
-1.269
0.5235
0.7455
-5.687e-05
9.014e-05
-3.327e-05
3.005e-05
-7.227e-05
4.222e-05
0.4032
-0.2557
-0.1474
-0.00853
0.005908
0.002621
0.0007803
-0.03102
0.03024
0.0002805
0.000111
-0.0003915
5.314e-05
1.843e-05
-7.157e-05
-0.001534
-0.0007774
0.002312
-0.05388
-0.05426
0.1081
-6.283e-07
9.942e-07
-3.658e-07
9.686e-09
5.075e-08
-6.044e-08
0.0001083
0.0003116
0.0002048
-0.0006856
0.0004809
0.0004
-0.0006197
0.0002197
1.397e-05
6.528e-06
-0.3924
1.239
-0.8469
0.0001403
-0.0007055
0.0005651
0.3497
-0.006839
-0.3429
-0.0001453
0.0002052
-5.984e-05
-0.0009569
0.0009433
1.367e-05
-3.981e-05
-5.137e-05
9.119e-05
0.0003241
0.0009012
-3.686e-06
3.819e-06
-1.334e-07
-9.43e-06
1.023e-05
-8.02e-07
-0.5585
0.2185
0.34
-6.871e-07
6.871e-07
2.878e-05
-2.167e-05
-7.113e-06
-9.57e-06
3.66e-05
-2.703e-05
-0.001406
-0.0001586
0.001564
-0.0001418
0.0001962
0.0003099
0.0002259
-0.0005358
-0.0005548
0.00032
0.0002349
-0.0001018
8.441e-05
1.743e-05
0.001593
-0.001113
-0.00048
-0.009781
0.02485
-0.01507
2.522e-06
-2.522e-06
0.0001852
-0.0002267
4.15e-05
-0.0004354
0.0001947
0.0002408
0.0001491
7.466e-05
-0.0002237
0.0008542