/*--------------------------------*- C++ -*----------------------------------*\
  =========                 |
  \\      /  F ield         | OpenFOAM: The Open Source CFD Toolbox
   \\    /   O peration     | Website:  https://openfoam.org
    \\  /    A nd           | Version:  8
     \\/     M anipulation  |
\*---------------------------------------------------------------------------*/
FoamFile
{
    version     2.0;
    format      ascii;
    class       volVectorField;
    location    "25";
    object      U;
}
// * * * * * * * * * * * * * * * * * * * * * * * * * * * * * * * * * * * * * //

dimensions      [0 1 -1 0 0 0 0];

internalField   nonuniform List<vector> 
127143
(
(0.0009008 -3.854e-05 0)
(-2.417e-05 -0.00012 -1.429e-24)
(-5.033e-05 -0.0002472 2.529e-24)
(-6.556e-05 -0.0002998 -9.745e-28)
(0.006369 0.00199 -4.879e-23)
(-5.536e-05 -0.0003091 3.549e-27)
(0.0173 0.01104 0)
(0.009121 0.004192 -6.65e-23)
(0.007444 0.003595 2.195e-22)
(-0.001277 -4.521e-05 0)
(0.01815 0.02509 2.382e-22)
(0.01154 0.007684 2.39e-22)
(0.0001583 -5.987e-05 -5.007e-25)
(-8.537e-05 -0.000338 0)
(0.05451 -0.02765 5.192e-21)
(0.01993 -0.001858 0)
(-0.0001122 -0.0005511 -4.093e-24)
(0.01329 -0.07245 3.349e-20)
(-0.1533 0.008046 0)
(0.03115 0.009534 0)
(-0.1288 0.03451 2.251e-20)
(0.0003932 -0.0001796 0)
(0.9934 -0.1463 0)
(0.3488 -0.03394 0)
(0.0003615 -0.0001728 -4.74e-23)
(0.1163 -0.01874 0)
(-0.01465 0.0001228 4.323e-21)
(-0.01468 -0.0003268 -6.484e-23)
(0.1276 -0.05535 0)
(0.3477 -0.0861 -1.397e-20)
(0.274 -0.01716 0)
(0.1119 -0.01663 -1.561e-21)
(0.05883 0.01438 9.442e-22)
(-0.01619 0.004381 -5.506e-21)
(0.8795 -0.07988 2.182e-20)
(0.05727 0.01659 -2.477e-24)
(-0.152 0.05543 8.27e-21)
(0.3056 0.02142 -1.024e-20)
(0.4341 -0.03927 -1.38e-21)
(0.1112 -0.00306 1.093e-25)
(-0.1541 0.0067 0)
(1.083 0.4498 -6.381e-21)
(1.063 0.4386 4.897e-21)
(0.0003293 -0.0001124 0)
(-0.002157 -0.0681 -2.974e-20)
(-0.01684 0.003818 1.745e-21)
(0.1304 -0.05976 0)
(-0.1878 0.07079 -1.145e-21)
(0.4304 -0.0759 3.644e-22)
(0.4118 -0.03287 -8.479e-22)
(0.02374 -0.001681 -4.612e-23)
(0.9792 -0.03476 3.56e-20)
(-0.04965 0.01016 0)
(1.165 0.1455 -8.48e-21)
(1.001 -0.0008773 2.042e-20)
(0.3239 -0.08033 1.727e-22)
(1.001 -0.0008722 -1.836e-20)
(1.114 -0.08177 0)
(1.009 -0.007974 -1.362e-20)
(1.164 0.1468 -1.651e-20)
(0.5207 -0.0695 -6.458e-20)
(-0.1369 0.06148 -1.582e-21)
(0.7918 -0.05328 4.727e-21)
(1.001 0.0004645 3.895e-20)
(-0.04004 0.003438 0)
(0.8792 -0.2386 -6.246e-21)
(1.078 0.14 2.896e-20)
(0.7344 -0.05481 0)
(0.7454 -0.05426 1.297e-21)
(0.9907 -1.168e-05 0)
(0.3147 -0.02344 0)
(-0.0157 0.000147 -2.034e-21)
(-0.1775 -0.02956 -8.315e-21)
(1.01 -0.007839 -7.544e-21)
(1.003 0.002702 -3.837e-22)
(-0.01581 -0.0002405 2.026e-21)
(1.008 0.03472 -1.534e-20)
(-0.1324 0.04638 0)
(0.335 -0.08822 -2.97e-22)
(1 0.0006166 0)
(0.124 -0.05728 7.349e-24)
(0.03428 0.008806 1.058e-23)
(-0.02989 0.007113 3.523e-21)
(0.1372 -0.00949 0)
(-0.1413 -0.00552 1.476e-21)
(-0.1485 0.05353 0)
(0.5162 -0.05058 -3.152e-21)
(0.002399 0.0009141 1.345e-21)
(0.8783 -0.236 0)
(0.9752 0.5915 0)
(1.002 -0.005292 0)
(1.18 0.03796 0)
(1.122 0.6841 0)
(-0.1289 0.03455 -2.302e-20)
(-0.0722 0.0154 0)
(1.054 0.05782 2.038e-20)
(1.084 0.4419 1.336e-20)
(0.1931 -0.01379 0)
(-0.1407 0.04422 6.162e-21)
(1.075 0.1407 0)
(1 0.0005991 0)
(0.455 -0.08249 0)
(0.5872 0.5445 -6.794e-22)
(1.089 -0.1249 0)
(-0.152 0.05524 -2.779e-21)
(-0.139 0.04371 8.76e-21)
(0.7434 -0.1162 -2.394e-21)
(0.9899 5.859e-05 0)
(0.7073 -0.2745 0)
(1.002 -0.0006631 2.903e-20)
(0.06414 -0.03148 -1.663e-21)
(0.002501 0.0005228 2.577e-21)
(-0.1054 0.02539 -1.93e-20)
(0.2518 0.5083 0)
(0.9959 0.008464 1.487e-20)
(1.039 -0.17 -4.246e-22)
(0.9879 0.03712 -8.561e-21)
(1.003 0.002816 -2.45e-20)
(1.008 0.03379 1.198e-20)
(-0.0007398 -0.003176 0)
(1.002 -0.0007063 -4.06e-20)
(-0.03252 0.008572 -8.689e-22)
(0.7768 -0.2861 0)
(1.091 -0.08949 1.447e-20)
(0.1302 -0.0577 3.194e-22)
(0.07931 -0.01019 -3.996e-21)
(-0.1449 0.0487 0)
(1.032 0.006051 9.596e-20)
(-0.06397 0.005852 -3.205e-21)
(0.3267 -0.09423 -5.052e-22)
(-0.09408 0.02817 0)
(-0.07411 0.01778 -6.803e-21)
(0.9495 -0.08006 -9.429e-21)
(-0.1342 0.04702 0)
(-0.0001675 -0.0009987 -2.277e-23)
(-0.09679 0.0291 -3.637e-21)
(1.08 -0.04013 0)
(-0.1224 0.03399 4.896e-21)
(0.1591 -0.09004 -2.726e-21)
(1.1 0.0008283 8.659e-21)
(0.9634 -0.176 5.456e-21)
(0.9859 0.02535 4.926e-20)
(-0.04169 0.01527 8.321e-22)
(-0.06662 0.02573 -9.84e-21)
(-0.0466 0.009996 -3.167e-21)
(1.239 0.4549 3.941e-21)
(-0.02653 0.1503 7.083e-22)
(1.001 0.0004034 -3.514e-20)
(-0.0714 0.01706 5.698e-21)
(0.4892 0.4257 -4.266e-22)
(1.088 -0.1161 -3.462e-21)
(0.4928 -0.09792 0)
(0.6311 0.05203 2.709e-20)
(0.8468 -0.1418 0)
(0.2995 -0.2048 0)
(-0.1434 -0.005385 0)
(1.115 -0.08082 -5.207e-21)
(0.317 -0.1112 0)
(-0.188 0.07087 -2.132e-21)
(0.1683 -0.01511 9.35e-22)
(0.3455 -0.02137 0)
(0.02925 -0.01542 2.112e-21)
(1.002 -0.004984 2.94e-23)
(-0.09496 0.0285 -9.057e-21)
(0.1899 -0.04892 0)
(-0.04409 0.004 4.16e-21)
(-0.1249 0.04471 -4.386e-21)
(0.6913 -0.2346 1.467e-20)
(0.242 0.06528 -2.504e-21)
(0.9421 0.04276 -6.518e-21)
(-0.01201 0.003038 0)
(-0.0677 0.02625 4.584e-21)
(1.031 -0.1806 -1.09e-21)
(0.9003 -0.2607 -1.669e-21)
(0.9785 -0.0005802 3.708e-20)
(-0.0655 0.002043 7.207e-23)
(1.222 0.5201 -6.493e-22)
(-0.06423 0.006062 -3.167e-21)
(0.4013 -0.04052 0)
(1.006 -0.01762 4.925e-21)
(0.8993 -0.2611 -5.741e-22)
(1.012 0.004915 0)
(-0.04956 -0.01392 9.964e-22)
(-0.06551 0.001236 -7.213e-23)
(0.3377 -0.09879 1.07e-21)
(-0.1345 0.06104 2.808e-21)
(1.02 0.2863 -4.986e-21)
(0.2702 0.5246 -4.132e-21)
(0.3762 -0.03691 -2.515e-21)
(1.025 -0.0259 4.221e-20)
(-0.07727 0.01128 1.871e-21)
(-0.06943 0.008398 -7.928e-21)
(1.078 -0.0393 6.789e-20)
(0.3667 0.8803 -2.575e-22)
(-8.89e-05 -0.001032 3.797e-23)
(-0.1369 0.04082 0)
(1.003 1.348e-06 0)
(0.9989 -9.11e-07 1.902e-22)
(0.01386 0.007545 0)
(0.9909 0.01199 4.582e-21)
(1.01 0.007165 2.615e-20)
(0.9338 0.001079 1.044e-19)
(0.9892 -0.04362 1.009e-20)
(-0.1583 0.05778 -4.121e-21)
(-0.0001165 -0.0006468 5.519e-25)
(0.6378 -0.03973 4.692e-21)
(1.019 -0.09614 -3.199e-21)
(1.004 -0.1785 3.488e-22)
(0.467 -0.1099 1.039e-20)
(0.996 0.008179 -7.672e-21)
(1.152 -0.02049 1.75e-20)
(-0.1232 -0.001197 9.372e-22)
(0.9962 -0.004739 8.202e-21)
(0.2539 0.06638 -2.677e-21)
(-0.07176 0.02166 3.232e-24)
(0.01855 0.001783 0)
(-0.01261 0.004214 -3.976e-22)
(0.9877 -0.1932 -1.024e-21)
(-0.09915 0.02604 -1.275e-20)
(1.02 -0.09491 -9.104e-22)
(1.213 0.5157 -1.287e-21)
(1.001 0.004393 -1.043e-20)
(0.4802 -0.09435 2.121e-22)
(-0.02069 0.01067 3.56e-21)
(0.1547 -0.01473 0)
(-0.02023 0.006708 0)
(0.2353 -0.05989 -3.221e-22)
(0.366 0.03125 1.111e-20)
(-0.05801 0.01977 1.483e-21)
(-0.1507 0.05024 7.879e-21)
(-0.1255 0.033 1.396e-20)
(1.013 0.003936 -1.149e-20)
(-0.182 -0.02911 1.66e-20)
(-8.871e-05 -0.007553 0)
(-0.126 0.03306 0)
(1.077 -0.0754 1.478e-20)
(-0.09487 0.0287 4.346e-21)
(0.002257 -0.0003467 2.341e-23)
(1.01 0.006972 -2.429e-20)
(-0.07486 0.01396 9.833e-21)
(-0.0708 0.008594 7.491e-21)
(-0.05214 0.002977 -7.074e-21)
(-0.1482 0.03988 -5.851e-22)
(0.3286 -0.1166 4.656e-25)
(0.4043 0.04606 0)
(-0.0005892 -0.003277 1.787e-26)
(0.6297 -0.1282 -1.03e-21)
(-0.01503 0.000294 0)
(-0.003147 0.0008681 5.265e-22)
(1.001 -1.291e-05 -9.034e-22)
(1.199 0.3708 -1.479e-20)
(0.1162 -0.01297 2.8e-21)
(0.9447 -0.2228 0)
(-0.108 0.02942 0)
(0.4352 -0.1051 1.897e-22)
(0.7259 -0.2784 0)
(1.032 0.005525 -7.527e-20)
(0.4356 0.1403 0)
(0.9525 -0.2409 0)
(0.8653 0.2109 1.241e-20)
(-0.1305 0.03962 -7.243e-21)
(1.015 -0.0129 9.897e-21)
(1.177 0.03881 1.377e-22)
(0.9854 0.0244 -3.973e-20)
(0.1711 0.02117 0)
(-0.04805 0.003846 -2.214e-21)
(-0.04625 0.01509 5.765e-21)
(0.2599 -0.1936 0)
(0.5676 -0.1863 3.704e-20)
(1.193 0.1619 -5.537e-21)
(0.1993 -0.03533 0)
(0.9742 -0.001275 -4.472e-20)
(-0.1889 0.06909 -1.461e-21)
(-0.07588 0.01389 -1.028e-20)
(0.9393 -0.06012 7.558e-21)
(-0.0766 0.01139 -9.111e-21)
(-0.1065 0.02594 0)
(0.5005 -0.07934 3.145e-21)
(0.9545 -0.001816 -4.84e-22)
(0.9009 -0.2642 1.812e-21)
(1.003 -0.0003222 2.265e-22)
(1.052 0.06178 2.708e-21)
(1.09 -0.1244 -1.049e-23)
(0.9954 0.002082 0)
(1.002 0.009444 4.239e-22)
(-0.0004057 -0.001037 -5.512e-24)
(-0.09093 0.02608 0)
(0.9961 0.009301 8.18e-21)
(0.4577 -0.06485 2.797e-21)
(1.005 -0.01765 6.283e-21)
(0.6869 0.04963 -3.709e-20)
(0.9854 -0.1839 0)
(1.076 -0.07632 -1.458e-20)
(1.014 -0.1959 0)
(0.9991 -0.006068 -4.028e-21)
(0.6949 -0.2887 -3.392e-22)
(0.2612 -0.02067 1.97e-21)
(0.01223 -0.03484 -7.776e-22)
(-0.1486 0.04034 2.256e-21)
(1.194 0.1617 3.933e-21)
(0.1905 -0.0209 -1.112e-21)
(0.9279 -0.2218 -7.16e-22)
(0.798 -0.2303 -9.806e-21)
(1.038 -0.1695 4.098e-21)
(0.1471 -0.0107 0)
(0.4913 -0.2835 3.589e-23)
(1.009 -0.1789 1.167e-22)
(0.996 -0.004922 0)
(-0.03059 0.02406 -1.082e-23)
(1.022 -0.1069 -4.231e-21)
(0.6923 -0.1093 -2.97e-21)
(0.01322 -0.03415 -7.761e-23)
(0.2973 -0.07253 0)
(1.002 -0.0004355 8.099e-22)
(0.9928 0.002333 -1.982e-20)
(1.086 0.4591 5.526e-22)
(0.1326 0.01889 5.531e-21)
(0.1814 -0.0198 2.609e-21)
(1.169 0.0551 2.316e-20)
(0.9013 -0.01397 -1.257e-21)
(0.992 -0.1451 0)
(0.3004 -0.02065 -3.282e-21)
(1.058 0.01511 2.18e-20)
(0.9437 -0.2219 4.52e-24)
(1.066 0.4465 0)
(0.129 0.01843 -1.216e-20)
(0.9167 -0.04372 4.639e-20)
(0.04972 -0.01627 -6.046e-24)
(0.3251 -0.004332 1.903e-21)
(1.187 0.5797 5.997e-21)
(-0.159 0.06455 0)
(1.002 0.009329 -1.055e-21)
(0.8847 -0.08089 -8.434e-20)
(1.003 8.175e-06 0)
(0.9988 -8.288e-07 0)
(0.8463 -0.1381 0)
(0.7191 -0.2758 -2.237e-21)
(1.03 -0.1807 -1.063e-21)
(-0.1593 0.06496 -2.133e-21)
(-0.08295 0.02322 -2.337e-20)
(1.097 -0.00107 -3.915e-20)
(0.9879 -0.1934 0)
(-0.0288 0.01115 3.017e-21)
(-0.07512 0.01129 1.546e-21)
(0.2073 0.1074 -1.149e-22)
(0.4486 -0.06247 -1.825e-21)
(-0.0446 0.01108 -3.684e-21)
(-0.08804 0.01933 6.18e-21)
(0.2138 -0.02539 -2.165e-21)
(-0.05328 0.006041 0)
(0.2267 -0.02476 1.787e-21)
(-0.07422 0.03847 6.398e-21)
(-0.08669 0.01781 -1.51e-21)
(-0.07607 0.01128 6.713e-21)
(0.9224 0.04364 0)
(-0.0496 0.01242 -9.498e-21)
(-0.1091 0.0296 -6.726e-21)
(1.237 0.4225 -3.468e-21)
(1.003 -0.005465 4.848e-21)
(0.3112 -0.003636 0)
(-0.1853 0.06299 -2.166e-21)
(0.8301 -0.0559 1.381e-21)
(0.461 -0.05284 -3.691e-20)
(0.4319 -0.03083 0)
(0.4176 -0.03512 -2.669e-21)
(1.002 0.002197 1.098e-22)
(0.9912 0.01174 -1.369e-20)
(0.8926 -0.0006825 0)
(-0.029 0.005312 1.854e-21)
(0.9601 -0.001326 0)
(0.399 -0.05335 5.259e-20)
(1.059 0.01309 -4.672e-20)
(0.1429 -0.01562 -2.688e-21)
(0.409 -0.02922 3.193e-21)
(1.025 -0.02452 0)
(1.14 0.05287 -5.363e-22)
(0.285 -0.02476 2.28e-21)
(0.006212 -0.009446 2.194e-26)
(-0.1494 0.05028 -1.46e-20)
(0.9602 -0.004759 3.326e-21)
(0.3694 -0.01176 -5.36e-20)
(0.09215 -0.01188 4.025e-21)
(0.2427 -0.0308 0)
(0.9259 -0.2241 -3.029e-21)
(0.9884 0.03571 0)
(0.04477 -0.003244 0)
(0.9552 0.1456 0)
(0.1181 -0.003799 0)
(-0.1385 0.04109 -2.196e-21)
(0.1899 0.01228 -3.393e-20)
(1.01 -0.006001 -3.911e-20)
(0.7663 -0.2026 0)
(-0.03555 0.01163 1.035e-21)
(0.4378 -0.1123 2.786e-22)
(0.3732 -0.03363 5.072e-21)
(0.2588 -0.01652 2.107e-21)
(0.7708 -0.2047 -8.208e-21)
(0.2976 -0.01834 0)
(0.9212 0.04192 0)
(1.014 -0.01325 0)
(0.1243 -0.01059 -6.345e-22)
(1.001 0.004172 3.831e-21)
(-0.1199 0.03087 0)
(-0.05286 -0.01333 0)
(0.9604 0.1475 0)
(1.045 -0.1263 2.599e-21)
(-0.1568 0.05731 -1.432e-20)
(0.9284 -0.08551 6.94e-21)
(1 0.0005016 -8.12e-20)
(0.4328 -0.04479 0)
(0.7073 -0.3088 0)
(0.2147 -0.02825 -2.468e-21)
(0.9647 -0.1748 -5.629e-21)
(-0.185 0.07134 0)
(0.7911 -0.2903 0)
(-0.07397 0.01579 -6.301e-21)
(-0.1283 0.0369 -1.556e-20)
(0.1712 -0.03296 0)
(0.9175 0.09027 6.072e-21)
(0.5486 -0.2211 -1.126e-21)
(-0.129 0.04677 0)
(-0.01383 0.00484 -1.508e-21)
(-0.06297 0.01839 0)
(1.003 0.0001822 -1.444e-22)
(-0.1505 0.04998 -9.748e-21)
(0.9182 0.2546 -4.952e-21)
(1.057 0.4266 3.797e-22)
(0.9316 -0.1639 -7.787e-21)
(-0.0546 0.003618 7.178e-21)
(1.001 -0.1181 6.775e-22)
(1.003 -0.0001697 0)
(-0.0631 0.01857 0)
(-0.08198 0.01752 0)
(1.165 -0.0298 1.072e-19)
(0.9634 0.1618 6.257e-22)
(1.002 0.002155 -3.857e-21)
(1.008 -0.1564 2.556e-21)
(-0.04777 0.01116 -6.899e-21)
(0.9799 -0.0336 -1.352e-20)
(0.9988 -0.006037 0)
(0.9987 -0.000921 -3.876e-21)
(0.4407 -0.03529 1.373e-21)
(1.079 -0.04442 -2.365e-20)
(0.7199 -0.2819 3.228e-21)
(0.9617 0.0293 0)
(0.2055 -0.01491 -1.282e-22)
(0.9907 0.001445 4.497e-20)
(0.3615 -0.2457 0)
(0.8753 -0.004365 -2.114e-21)
(-0.123 -0.002588 9.183e-22)
(-0.1388 0.03994 0)
(0.2826 -0.03679 -8.733e-24)
(1.063 -0.1275 -7.218e-21)
(-0.02763 0.004815 1.053e-20)
(0.862 0.07669 -4.906e-23)
(-0.17 0.06034 -1.373e-21)
(0.1828 -0.02217 -1.139e-21)
(-0.05654 0.00389 0)
(-0.1743 0.06374 0)
(1.131 0.1191 4.008e-21)
(0.9744 -0.08374 3.16e-21)
(-0.01009 0.01151 8.058e-21)
(-0.02521 0.02697 0)
(0.3225 0.4713 -1.973e-20)
(-0.02222 0.01093 -7.059e-25)
(0.9936 -0.000747 0)
(1.003 0.02318 0)
(-0.09231 0.02081 0)
(-0.04204 0.0114 3.732e-21)
(0.9995 -0.0001213 0)
(-0.1465 0.04579 6.757e-21)
(1.18 0.0553 1.93e-20)
(1.092 -0.08799 -2.19e-20)
(0.1589 0.01858 -1.856e-21)
(1.023 -0.0802 -5.419e-21)
(1.003 -8.057e-05 0)
(0.236 -0.1435 -1.491e-20)
(1.178 0.05552 -1.887e-20)
(-0.0596 0.02077 -9.325e-22)
(0.07192 0.01654 7.055e-22)
(0.1234 -0.06511 2.345e-22)
(0.3566 -0.2454 -1.731e-21)
(-0.0493 0.00749 1.939e-21)
(0.2984 -0.07031 0)
(0.7111 -0.3032 0)
(0.9881 0.1654 -6.218e-22)
(0.1682 0.02012 -4.848e-22)
(1.009 0.001924 3.146e-20)
(0.195 -0.0167 -1.845e-21)
(0.9742 0.00726 3.861e-20)
(1.194 0.5176 1.97e-22)
(0.5534 -0.05485 2.773e-21)
(-0.05848 0.009187 0)
(1.241 0.4399 1.753e-21)
(-0.0001972 -0.001091 0)
(-0.0844 0.02589 9.985e-21)
(0.2743 0.3003 5.642e-21)
(1.099 -0.03032 -2.576e-22)
(0.9934 0.6944 5.923e-21)
(0.9955 -0.002837 -5.44e-20)
(0.1206 -0.06777 0)
(1.003 0.02326 9.37e-24)
(-0.1404 0.04137 0)
(-0.1343 0.04023 -7.549e-21)
(-9.279e-05 -0.0005625 0)
(0.001098 0.0003364 3.228e-23)
(0.001266 -0.0004604 -1.006e-23)
(1 -0.0002745 -2.723e-20)
(-0.05098 0.01283 0)
(0.5364 0.1024 0)
(0.9931 0.002487 3.864e-20)
(-0.1792 0.06749 3.314e-21)
(0.7469 -0.2762 3.86e-21)
(-0.09824 0.0326 9.119e-21)
(1.06 -0.1536 0)
(-0.1375 0.03944 0)
(0.277 -0.0341 -1.702e-21)
(-0.1466 0.04593 -6.876e-21)
(-0.009816 0.001854 4.473e-22)
(0.9987 -0.0004912 0)
(-0.101 -0.01145 -1.282e-21)
(0.0003262 -0.0001351 0)
(0.4943 -0.2021 7.142e-22)
(0.2072 -0.0202 7.998e-22)
(-0.01331 0.003195 3.694e-22)
(1.01 -0.00736 -1.178e-20)
(1.092 -0.1156 -3.753e-21)
(0.9932 -0.044 -2.931e-21)
(-0.01167 0.02527 1.107e-20)
(1.001 -0.003928 0)
(0.1718 -0.01337 0)
(0.2956 0.1382 0)
(-0.04631 0.01558 -1.657e-21)
(0.9988 2.23e-05 0)
(-0.09257 0.02119 -6.146e-21)
(1.062 -0.0996 -1.057e-20)
(0.002465 -0.002645 1.043e-25)
(0.68 -0.3063 1.685e-21)
(0.2267 0.06624 5.868e-22)
(-0.01409 0.02253 -3.671e-21)
(0.9725 9.224e-05 2.531e-21)
(-0.08677 0.0307 -1.417e-21)
(0.7953 -0.298 -2.432e-21)
(0.9994 -0.0001222 2.976e-21)
(0.9271 -0.2236 4.072e-21)
(0.9997 0.09959 -2.699e-20)
(0.2847 -0.02362 -1.791e-21)
(0.445 -0.03036 2.079e-21)
(-0.03865 0.01049 -3.668e-21)
(-0.03038 0.01044 7.113e-22)
(-0.1372 0.04075 3.868e-21)
(1.135 0.1686 0)
(0.6015 -0.2394 9.87e-22)
(-0.1181 0.0419 0)
(-0.06606 0.0194 1.771e-22)
(1.017 -0.002299 -6.186e-21)
(0.1308 -0.00472 2.05e-22)
(-0.1038 0.03021 -5.706e-21)
(0.2065 -0.03294 2.965e-21)
(0.8813 -0.09476 -6.353e-21)
(-0.1683 0.05107 2.269e-21)
(1 0.001063 0)
(0.9998 0.001335 1.416e-20)
(0.872 0.2022 -2.012e-20)
(-0.04319 0.01055 -1.761e-21)
(0.971 0.7279 0)
(0.9917 0.003007 -2.632e-20)
(1.003 1.742e-05 -4.45e-22)
(0.8065 -0.2895 0)
(0.3896 -0.1715 0)
(-0.1603 0.05902 4.49e-21)
(0.7096 -0.3038 0)
(-0.03383 0.01167 2.511e-21)
(-0.009738 0.003213 0)
(0.9828 -0.2166 -1.375e-23)
(1.007 0.03002 0)
(1 -0.0003306 5.067e-21)
(-0.05148 0.01823 1.449e-21)
(-0.1412 0.04222 -6.124e-21)
(0.8691 -0.2045 -1.871e-23)
(1.003 -0.0008789 8.399e-21)
(-0.01635 0.0003957 9.793e-22)
(0.9615 -0.09501 0)
(-0.06964 0.01957 6.564e-21)
(0.9601 -0.003528 8.974e-21)
(0.1389 -0.01643 2.329e-22)
(0.9916 0.002759 4.836e-20)
(-0.1599 0.05879 -2.354e-21)
(-0.06031 -0.01627 0)
(0.1252 0.0175 6.565e-22)
(1.001 1.584e-05 1.397e-22)
(-0.05378 0.01815 -5.33e-21)
(-0.1299 0.03921 -1.721e-21)
(0.0523 -0.03233 -2.981e-21)
(1.003 -7.411e-05 -1.245e-21)
(0.7699 -0.1227 2.415e-21)
(-0.01278 0.004188 1.849e-22)
(0.9987 -0.0009883 0)
(1.048 -0.1276 0)
(0.993 0.00783 -8.849e-22)
(0.557 -0.03597 2.728e-21)
(0.1044 0.01646 0)
(0.9955 0.00192 2.684e-20)
(-0.03485 0.008872 8.335e-21)
(0.3212 -0.04425 1.43e-21)
(0.01151 -0.03641 0)
(-0.07646 0.01302 -1.036e-20)
(-0.01684 0.0147 -1.869e-21)
(0.2397 -0.02526 -5.352e-21)
(0.2508 -0.02932 -1.665e-21)
(0.197 -0.04472 -1.991e-20)
(0.4607 -0.04303 -1.192e-21)
(1.142 0.6992 7.67e-22)
(0.473 -0.02118 -2.383e-21)
(-0.09745 0.02629 -1.705e-21)
(0.01201 0.01192 -3.863e-21)
(0.1667 -0.01495 8.987e-22)
(1.003 -0.0008509 0)
(0.3093 -0.06403 3.046e-22)
(0.9943 0.002222 -1.106e-20)
(0.2226 0.1256 -1.584e-20)
(1.033 0.02057 3.741e-20)
(-0.03715 0.01515 1.201e-20)
(1.003 -0.0001995 0)
(0.9959 0.009131 2.089e-20)
(1.118 -0.08083 2.47e-20)
(0.5579 -0.2256 5.841e-22)
(-0.1161 0.03018 9.497e-21)
(1.003 -0.0004323 7.476e-21)
(1.002 -0.001159 -1.179e-20)
(-0.06233 0.02093 -1.506e-21)
(0.03629 0.006431 0)
(-0.03583 0.008428 3.673e-21)
(0.2011 -0.01648 -3.074e-21)
(-0.1722 0.02344 0)
(0.7195 -0.2809 -2.962e-21)
(-0.1396 0.04018 -1.483e-21)
(0.7059 -0.3094 0)
(-0.07438 0.01134 -2.142e-22)
(-0.05324 0.01594 -1.59e-20)
(-0.03875 0.003003 0)
(1.003 -0.0004557 -1.33e-21)
(-0.05156 0.004211 7.285e-21)
(-0.07297 0.01289 7.826e-22)
(1.035 -0.1634 -1.036e-21)
(1.189 0.111 0)
(1.001 -0.00404 -6.734e-21)
(1.003 1.985e-05 4.121e-23)
(0.1657 0.01909 -1.16e-20)
(0.1848 -0.1046 2.631e-24)
(0.1676 0.02178 2.433e-21)
(-0.006708 0.002044 3.165e-22)
(1.032 0.02132 0)
(1.004 -1.4e-05 1.533e-23)
(-0.08206 0.026 0)
(-0.06212 0.005117 0)
(0.9367 0.001224 -8.296e-20)
(-0.0357 0.004154 -1.973e-21)
(1.03 -0.1381 0)
(0.9972 0.01062 -1.573e-20)
(-0.03881 0.01176 5.946e-21)
(0.9682 -0.2313 -1.167e-22)
(-0.07097 0.01283 5.049e-21)
(0.844 -0.1681 -3.19e-20)
(0.0003195 -0.0001006 0)
(-0.02158 0.006973 0)
(-0.1753 0.06425 -1.222e-21)
(-0.1692 0.06073 2.574e-21)
(-0.09152 0.02589 0)
(-0.0642 0.01064 6.703e-21)
(0.1578 -0.02206 -5.194e-22)
(-0.04691 0.007513 0)
(0.9713 -0.02721 -8.897e-21)
(-0.06831 0.007594 1.41e-20)
(0.002808 -0.02273 0)
(-0.12 0.03117 -1.102e-20)
(1.002 -0.0008381 2.7e-20)
(0.5337 -0.08287 -2.36e-21)
(0.859 -0.2309 0)
(0.5615 0.008419 -2.693e-20)
(0.9988 8.049e-06 3.638e-23)
(1.002 -0.0008675 -3.597e-20)
(0.002838 -0.004786 0)
(1.099 -0.02812 -7.206e-21)
(0.3505 -0.06699 1.024e-21)
(-0.06817 0.009274 -4.627e-22)
(0.5148 -0.2892 0)
(-0.03189 0.02326 1.561e-20)
(1.179 0.1917 0)
(0.1754 -0.01443 8.955e-22)
(0.6895 -0.01183 4.36e-20)
(0.4451 -0.1214 0)
(1.008 0.001705 -1.138e-20)
(1.003 -0.0004959 0)
(1.205 0.3957 0)
(0.9274 0.2561 0)
(-0.03208 0.006178 4.55e-22)
(0.5686 -0.003928 0)
(0.2447 -0.1004 1.988e-21)
(-0.1771 0.04658 0)
(0.4617 -0.1931 -1.58e-21)
(1.15 -0.02055 1.112e-19)
(0.5147 -0.05495 5.291e-20)
(1.002 5.579e-05 -9.711e-23)
(0.2276 -0.01466 -5.813e-22)
(1.025 -0.07937 -8.727e-22)
(0.4036 -0.09432 2.869e-24)
(-0.0002191 -0.00114 5.4e-24)
(0.9452 -0.1489 8.204e-22)
(0.2188 0.03339 -1.587e-20)
(-0.1507 0.05095 1.466e-20)
(1.001 2.572e-05 -1.286e-22)
(0.8028 -0.08601 1.156e-22)
(0.408 -0.03462 -3.509e-21)
(-0.01335 0.004572 0)
(-0.07129 -0.01223 9.717e-21)
(-0.06722 0.02936 6.259e-21)
(-0.07435 0.01149 -3.256e-21)
(0.5406 0.4626 0)
(-0.1276 0.03665 1.479e-20)
(0.4571 -0.2475 2.746e-21)
(-0.1464 0.04697 -1.837e-21)
(0.4804 -0.118 3.724e-23)
(0.7347 -0.07829 3.409e-21)
(1.034 -0.1084 2.008e-21)
(-0.144 0.04859 5.699e-21)
(1.008 -0.1742 -1.669e-21)
(0.001164 -6.942e-05 0)
(0.8564 -0.2322 0)
(0.9424 0.0391 3.227e-20)
(0.7472 -0.1714 9.148e-23)
(0.6779 -0.2942 2.533e-21)
(0.5601 -0.05829 -7.91e-22)
(1.005 -0.0004305 0)
(-0.02489 -0.01725 -8.929e-22)
(-0.0676 0.03874 -1.278e-20)
(-0.1616 0.0596 -4.194e-21)
(1.004 6.352e-07 -7.829e-23)
(-0.006566 0.002446 0)
(-0.06643 0.0199 0)
(0.1395 -0.01828 3.944e-21)
(1.002 6.325e-05 5.236e-22)
(-0.04409 0.007228 4.025e-21)
(-0.122 0.03818 0)
(-0.04846 0.00921 7.092e-21)
(-0.07024 0.007194 -5.294e-21)
(1.002 6.55e-06 -4.487e-22)
(-0.1653 0.06165 -6.989e-21)
(0.001831 -0.004796 0)
(-0.03704 0.01077 6.65e-21)
(-0.1072 0.02864 0)
(0.9897 0.01283 -5.412e-21)
(-0.02659 0.0112 2.756e-21)
(0.05279 0.105 0)
(1.017 0.002473 -1.237e-20)
(0.9952 -0.1862 -1.072e-21)
(0.9907 -0.2032 0)
(-0.06582 0.01062 -6.901e-21)
(-0.08528 0.02581 0)
(0.9279 -0.2202 -2.378e-21)
(0.9338 -0.1474 0)
(0.1015 -0.01281 5.711e-22)
(-0.05131 0.01633 0)
(0.9993 -2.675e-06 -4.384e-22)
(-0.1654 0.06168 6.663e-21)
(-0.1586 0.06757 6.684e-22)
(0.1175 -0.009286 0)
(0.2349 -0.03276 1.87e-21)
(1.168 0.1392 0)
(-0.1785 0.06706 0)
(-0.03223 0.01109 1.839e-22)
(0.9991 1.642e-05 2.066e-22)
(-0.1023 0.03445 -9.188e-21)
(-0.03917 0.01136 0)
(0.05472 0.01428 0)
(0.0004353 -0.008956 -5.924e-24)
(0.06513 0.01585 -2.734e-21)
(-0.04705 0.01623 2.592e-21)
(-0.101 0.02325 -2.297e-21)
(-0.1392 0.03114 0)
(0.9759 -0.223 0)
(1 -0.000265 1.333e-20)
(0.0001012 -3.935e-05 -3.816e-24)
(-0.09645 0.02851 1.132e-20)
(-0.07845 0.01371 1.003e-20)
(-0.03775 0.0135 7.563e-22)
(-0.1797 0.06689 -8.583e-21)
(-0.08467 0.03002 5.666e-21)
(-0.07331 0.02395 -2.775e-21)
(0.3401 -0.02579 0)
(1 -0.0003087 0)
(-0.07421 0.02012 0)
(1.082 -0.132 -1.891e-23)
(1.002 2.274e-05 0)
(-0.06201 0.01932 -8.847e-21)
(1.198 0.5174 0)
(0.7245 -0.1111 2.267e-21)
(0.7908 -0.2832 -1.176e-21)
(1.004 -4.15e-05 -4.96e-21)
(-0.1409 0.04063 0)
(-0.06499 0.004808 0)
(1.009 0.001959 -3.667e-20)
(1.004 -4.657e-05 0)
(1.188 0.1094 0)
(-0.142 0.06367 5.805e-21)
(-0.1724 0.02449 -2.095e-21)
(-0.08993 0.03193 2.69e-21)
(-0.1628 0.06016 6.298e-21)
(0.03034 0.0006255 5.448e-24)
(1.068 -0.1402 0)
(0.7037 -0.1628 -2.392e-20)
(1.002 -0.0008789 0)
(-0.126 0.04058 -7.029e-21)
(-0.1403 0.05072 0)
(0.2826 -0.01692 -1.759e-21)
(0.1654 -0.01334 0)
(0.6936 -0.2321 -1.384e-20)
(1.004 -0.0002537 0)
(1.01 -0.007001 1.767e-21)
(1 0.004991 2.484e-20)
(-0.01489 5.969e-05 1.057e-21)
(1.002 -0.0008255 4.743e-21)
(1.143 -0.03095 -4.297e-20)
(0.2147 -0.1292 5.378e-22)
(0.8127 -0.1044 4.448e-21)
(0.1082 -0.01791 -1.944e-21)
(1.001 -0.001086 0)
(-0.09947 0.000582 -1.608e-21)
(0.7972 -0.09663 -2.876e-21)
(1 0.005278 0)
(0.2184 -0.02574 1.999e-21)
(0.9996 -0.0001523 0)
(0.5746 -0.2935 4.333e-21)
(0.001903 0.008723 -1.769e-21)
(-0.05596 0.007219 -9.882e-23)
(0.509 0.06077 0)
(0.09078 -0.002094 2.099e-22)
(1.002 -0.006001 2.086e-22)
(-0.03688 0.00992 0)
(0.8362 -0.1777 -8.397e-21)
(0.1774 -0.01281 0)
(0.01149 -0.02428 -7.059e-22)
(0.1659 -0.01976 8.935e-22)
(0.3977 0.5534 -1.097e-21)
(1.167 0.1411 -7.745e-21)
(1.012 -0.1836 9.816e-22)
(0.7627 -0.2694 5.348e-23)
(0.02992 -0.002102 0)
(0.9993 0.006299 0)
(0.5585 0.0299 2.347e-20)
(0.3871 -0.1248 0)
(0.3809 0.0905 2.522e-22)
(0.003133 -0.02193 3.414e-22)
(0.06142 -0.01108 0)
(1.003 -0.0002378 0)
(1.085 -0.09494 3.688e-20)
(-0.05103 0.01743 -6.96e-22)
(0.1194 -0.02916 -1.879e-22)
(-0.008212 0.0001571 3.837e-21)
(0.7065 0.1487 0)
(0.004744 -0.004806 -3.518e-22)
(0.3463 0.07187 -9.286e-22)
(0.001818 0.0002521 1.142e-21)
(-0.07637 0.01954 -5.33e-21)
(-0.04148 0.01451 1.611e-21)
(-0.06567 0.02058 6.028e-21)
(0.05032 -0.003741 7.25e-22)
(1 0.03577 2.43e-22)
(0.6596 -0.09596 0)
(1.003 3.11e-05 0)
(1.001 9.436e-06 0)
(-0.06555 0.01627 6.432e-21)
(1.036 0.03973 1.243e-21)
(-0.07442 0.009037 7.834e-21)
(-0.1925 -0.0373 -2.413e-20)
(0.2511 0.4772 0)
(1.105 -0.1034 -1.631e-20)
(1.045 -0.03368 -2.437e-20)
(0.9677 0.4184 2.051e-21)
(0.7149 -0.1662 -7.614e-23)
(1.01 -0.005914 2.739e-20)
(0.08514 0.01961 1.935e-22)
(-0.1354 0.04892 -2.052e-21)
(1.043 -0.03199 3.332e-20)
(-0.03276 0.007637 -9.017e-21)
(-0.005627 0.002014 -6.369e-22)
(-0.04836 -0.01648 0)
(0.9854 -0.2049 0)
(0.07367 -0.04543 -5.056e-21)
(-0.03341 0.02533 0)
(-0.07535 0.02661 0)
(0.9962 -0.001413 2.147e-20)
(-0.0547 0.009405 6.232e-21)
(0.4128 -0.09469 7.092e-24)
(1.003 -0.005297 0)
(-0.03816 0.009573 4.168e-21)
(-0.104 0.03016 0)
(-0.1252 0.05655 -2.956e-21)
(0.9995 -0.0001059 1.384e-21)
(0.8627 -0.002681 4.413e-21)
(0.2279 -0.002495 0)
(0.02263 0.0009694 1.075e-23)
(0.841 -0.2815 -2.982e-21)
(-0.00556 0.001816 0)
(-0.1458 0.04362 7.517e-21)
(0.7066 -0.3095 0)
(0.7875 -0.176 4.111e-23)
(-0.008138 0.002686 0)
(-0.05895 0.004095 1.801e-21)
(1 1.452e-05 -9.881e-23)
(0.1684 -0.09878 0)
(1.136 0.3196 -9.546e-21)
(1.003 2.977e-05 0)
(0.7507 -0.2877 1.003e-22)
(0.002 -0.0007708 4.523e-23)
(0.3161 -0.002248 -7.179e-21)
(0.06697 0.01232 -5.114e-21)
(1.143 -0.05294 6.851e-21)
(1.047 -0.1648 7.782e-22)
(-0.002829 0.0008195 4.263e-26)
(0.01631 -0.001603 -1.387e-22)
(0.3424 -0.03751 0)
(1.006 0.02969 -4.121e-21)
(0.9976 0.002587 6.043e-21)
(0.9951 -0.1946 0)
(0.673 -0.2963 -1.055e-21)
(-0.09481 0.03254 -1.189e-20)
(-0.03653 0.008316 0)
(0.2812 0.6912 -4.669e-21)
(0.2085 -0.0877 -1.09e-21)
(0.335 -0.0003582 -1.087e-22)
(1.126 0.1297 -1.79e-20)
(0.204 -0.08522 -1.05e-21)
(1.105 0.001401 4.23e-20)
(-0.02287 0.001756 0)
(1.005 0.0002658 0)
(-0.1839 0.07008 6.026e-22)
(0.008863 -0.03421 -2.223e-23)
(-0.08277 0.02463 -1.432e-20)
(-0.06558 0.01934 0)
(-0.1409 0.04233 0)
(0.9965 0.001105 -1.815e-20)
(0.9856 -0.002662 1.247e-20)
(-0.04507 0.01589 0)
(0.9459 -0.1909 5.168e-21)
(-0.1071 0.03715 0)
(0.377 -0.0478 0)
(-0.06951 0.02546 -2.684e-21)
(-0.1851 0.05838 -2.1e-21)
(0.3241 0.03459 -1.99e-21)
(0.1467 0.0285 -1.602e-21)
(-0.06562 0.005645 -8.442e-21)
(0.02892 -0.004323 -8.912e-22)
(-0.05409 0.01197 -5.978e-21)
(0.241 -0.01663 1.19e-21)
(-0.03681 0.011 5.452e-21)
(1.055 -0.1305 -5.458e-21)
(-0.1838 0.0696 5.798e-21)
(0.3854 0.8808 2.945e-22)
(-0.08543 0.0303 -1.656e-22)
(0.007118 -0.03185 9.636e-23)
(0.0009958 -0.0004245 0)
(-0.1394 0.04193 0)
(1.005 -0.0004077 0)
(1.004 -0.001797 1.782e-20)
(-0.1658 0.06254 4.832e-21)
(-0.1796 0.06239 0)
(1.035 -0.1668 6.62e-21)
(1.003 1.78e-05 0)
(0.6723 -0.3103 -2.96e-21)
(-0.1393 0.04013 7.67e-21)
(1.126 -0.07414 -2.021e-20)
(-0.07266 0.02501 0)
(0.2629 0.02731 -1.973e-20)
(-0.04567 0.01443 -6.404e-21)
(1.082 0.5802 -9.706e-21)
(0.9999 0.0004902 -5.135e-20)
(1.013 -0.1715 0)
(1.142 -0.03812 -1.237e-20)
(0.1283 -0.05023 0)
(0.1511 -0.01107 0)
(-0.1041 0.02961 8.998e-22)
(0.7293 -0.2109 1.266e-20)
(0.5549 0.03054 4.086e-20)
(-0.03093 0.005582 0)
(0.3566 -0.02991 -1.095e-21)
(1.004 -0.07523 0)
(-0.1718 0.05207 0)
(0.6652 -0.3085 3.172e-21)
(0.5513 -0.06325 3.313e-21)
(-0.1271 0.0457 0)
(0.2013 -0.08739 -1.234e-21)
(1.006 -0.007939 -8.994e-22)
(-0.00727 0.002601 0)
(-0.002928 0.00075 0)
(-0.1568 0.06706 0)
(-0.07761 0.01327 1.517e-20)
(0.05005 -0.02315 -7.032e-21)
(1 0.01284 1.351e-21)
(-0.005084 0.001301 1.513e-21)
(0.03352 -0.006069 0)
(1.001 -0.0001296 0)
(0.9997 -5.406e-05 -1.004e-20)
(-0.06709 0.008623 8.927e-25)
(-0.1209 0.03146 3.047e-20)
(0.001095 -0.0004465 -4.56e-23)
(0.008352 -0.03233 3.528e-22)
(0.6823 -0.09919 -6.305e-22)
(0.4527 -0.1685 0)
(-0.04329 0.01428 -5.865e-21)
(1.021 -0.1677 0)
(1.063 -0.1358 0)
(1.004 -0.005601 2.338e-21)
(-0.03663 0.01236 -8.734e-21)
(-0.1154 -0.02253 0)
(-0.05582 0.01915 -6.802e-21)
(0.9984 -0.2071 0)
(-0.001055 -0.0006438 1.994e-22)
(-0.1497 0.0549 -1.183e-20)
(1.001 -0.0006933 -5.353e-22)
(0.03146 -0.004243 0)
(-0.111 0.03705 -4.808e-21)
(1 -0.0006668 -4.205e-20)
(-0.05065 0.007748 -3.145e-21)
(1.001 -0.0001347 -4.084e-21)
(0.9973 -0.002358 1.655e-20)
(0.9972 -0.1369 1.6e-21)
(1.001 -0.1473 0)
(-0.006912 0.0009828 -5.521e-21)
(1 -0.001306 3.934e-21)
(0.2208 -0.02564 -2.569e-22)
(1.003 0.004019 0)
(1.171 0.5269 0)
(1.011 -0.1337 3.191e-21)
(0.07719 0.008935 6.661e-21)
(1.087 -0.1243 -4.038e-21)
(0.2985 -0.05934 -1.346e-22)
(0.3276 -0.04688 0)
(-0.03565 0.01028 1.206e-20)
(0.8959 -0.1002 5.861e-21)
(1.002 -0.001934 4.205e-21)
(1.019 0.006052 2.99e-20)
(-0.07772 0.02358 7.184e-21)
(0.5541 -0.1034 4.328e-22)
(-0.08482 0.02994 -6.767e-22)
(-0.04494 0.01472 0)
(0.07567 -0.004801 1.899e-25)
(-0.03574 0.01161 -3.128e-21)
(-0.004136 0.001337 -5.342e-21)
(-0.07415 0.01275 1.288e-20)
(0.4401 -0.1226 0)
(-0.004515 0.004509 -1.183e-20)
(0.295 -0.03164 -5.421e-22)
(0.1007 -0.01445 0)
(0.8251 0.3733 3.01e-21)
(-0.03057 0.0248 0)
(1.002 -0.005491 3.137e-21)
(-0.03987 0.007991 1.432e-20)
(-0.0235 -0.006199 1.166e-21)
(0.1642 -0.0267 0)
(0.9973 3.838e-05 3.729e-21)
(0.3301 -0.2205 3.504e-21)
(-0.1432 0.04173 0)
(0.6863 -0.06462 5.359e-22)
(0.7396 -0.2058 2.009e-22)
(-0.077 0.01045 -9.001e-22)
(1.075 -0.1317 -5.074e-21)
(-0.02512 0.005524 0)
(-0.1053 0.0344 4.693e-21)
(0.6942 -0.0656 1.607e-21)
(-0.07555 0.0241 -8.469e-23)
(0.2986 -0.08257 -8.566e-22)
(0.01205 -0.02516 7.375e-22)
(1.001 -0.0003027 0)
(1.051 -0.06964 -4.801e-21)
(-0.04077 0.007492 0)
(1.001 -0.006682 0)
(-0.05544 0.01227 0)
(-0.04098 0.004253 9.265e-22)
(0.9992 -9.383e-06 1.647e-21)
(0.9869 -0.2136 -1.796e-22)
(-0.02428 0.002392 0)
(1.032 -0.01833 0)
(0.8438 0.3753 -1.29e-20)
(0.006613 0.0214 0)
(0.04507 -0.01401 0)
(1.033 -0.1439 -6.921e-21)
(1.003 2.06e-05 -1.122e-22)
(-0.05897 0.0144 -1.878e-22)
(-0.06151 0.01782 -3.766e-22)
(1.01 -0.001755 2.292e-20)
(0.9002 0.3366 5.272e-21)
(1.039 0.08036 5.902e-21)
(-0.1402 0.04032 1.147e-20)
(-0.0533 0.01442 -6.189e-21)
(1.025 -0.1811 -1.388e-21)
(1.045 -0.02814 0)
(-0.003309 -0.001161 -1.757e-22)
(-0.0002959 4.714e-05 1.659e-22)
(0.3213 -0.06854 3.623e-24)
(0.4185 -0.06707 -1.682e-21)
(-0.1515 0.05168 -3.719e-21)
(0.05041 -0.004224 0)
(0.9927 -4.42e-07 -3.687e-21)
(0.4977 -0.0534 3.284e-21)
(1.003 0.005266 1.681e-22)
(-0.1185 0.03596 0)
(0.6162 -0.2968 -3.205e-21)
(-0.06156 0.01116 0)
(0.732 -0.2037 1.737e-21)
(0.01431 -0.01622 -1.897e-22)
(-0.01155 0.00176 0)
(0.9993 0.001995 -1.231e-20)
(-0.001432 0.0005245 0)
(-0.02331 0.007409 0)
(-0.02961 0.008502 3.164e-21)
(0.8295 -0.06914 4.94e-21)
(0.4856 0.1537 0)
(-0.1218 0.03813 -4.5e-21)
(-0.03924 -0.009468 1.018e-20)
(0.1349 -0.00973 0)
(0.7704 -0.1083 0)
(0.8856 -0.0006668 -7.859e-20)
(0.007611 -0.0003818 1.702e-22)
(-0.1696 0.05935 2.725e-21)
(0.3811 -0.02748 0)
(0.2331 -0.05088 3.253e-22)
(0.4971 -0.07632 0)