/*--------------------------------*- C++ -*----------------------------------*\
  =========                 |
  \\      /  F ield         | OpenFOAM: The Open Source CFD Toolbox
   \\    /   O peration     | Website:  https://openfoam.org
    \\  /    A nd           | Version:  8
     \\/     M anipulation  |
\*---------------------------------------------------------------------------*/
FoamFile
{
    version     2.0;
    format      ascii;
    class       surfaceScalarField;
    location    "15";
    object      phi;
}
// * * * * * * * * * * * * * * * * * * * * * * * * * * * * * * * * * * * * * //

dimensions      [0 3 -1 0 0 0 0];

internalField   nonuniform List<scalar> 
189008
(
5.74e-07
-5.74e-07
2.901e-08
-2.901e-08
1.662e-08
-1.662e-08
2.497e-08
-2.497e-08
-7.157e-05
7.157e-05
2.559e-08
-2.559e-08
0.0001464
-0.0001464
-8.797e-05
8.797e-05
-6.53e-05
6.53e-05
-9.205e-05
9.205e-05
0.0001421
-0.0001421
-7.858e-05
7.859e-05
1.461e-08
-1.461e-08
-2.839e-08
2.839e-08
-0.0005146
0.0004646
4.994e-05
3.767e-05
-4.432e-05
6.649e-06
-6.388e-08
6.388e-08
0.03973
-0.01658
-0.02315
0.008023
-0.004959
-0.003064
-2.063e-05
2.719e-05
-6.556e-06
-0.003935
0.003398
0.0005365
2.164e-06
-1.008e-06
-1.156e-06
-0.003282
0.009041
-0.005758
1.91e-05
0.0007858
-0.0008049
1.17e-06
9.937e-07
-0.0008503
0.0004253
0.000425
0.0005768
-0.0006456
6.878e-05
0.0006372
-6.036e-05
0.0002985
-0.000212
-8.652e-05
0.02213
-0.03955
0.01742
-6.866e-05
-0.0003763
0.000445
-0.0002786
-0.0005717
0.0006879
-0.0004295
-0.0002583
0.0007187
-0.0004032
-0.0003155
0.007398
0.01128
-0.01867
0.0002679
0.00042
-2.436e-05
-0.0003236
0.000348
-0.006157
0.00733
-0.001174
-6.178e-05
0.0007854
-0.0007236
-0.0001453
0.000173
-2.765e-05
0.004822
0.003201
0.002843
-0.005641
0.002798
0.000795
-0.006748
0.005953
-3.894e-08
3.894e-08
0.001322
0.03841
0.0004152
0.0003035
0.0001716
0.0001269
0.001569
-0.00152
-4.937e-05
-0.0009639
0.001177
-0.0002132
-3.748e-05
0.0006608
-0.0006233
1.247e-05
2.52e-05
-0.01622
-0.0267
0.04292
0.001001
0.0004447
-0.001445
-0.01603
0.01259
0.003436
1.081
-0.1294
-0.9521
0.001287
-0.0009899
-0.000297
-0.1447
1.226
0.01036
-0.006504
-0.003852
-0.3152
0.0207
0.2945
-0.008522
-0.007507
-0.00279
0.00182
0.0009696
0.002932
-0.004821
0.001889
-0.0001796
0.001664
-0.001484
-0.8103
0.9555
-0.1452
0.0005728
-0.001363
0.0007905
-0.0005506
-0.002218
0.002769
-0.03379
0.02555
0.008234
0.002102
-0.001728
-0.0003735
0.0005803
0.001522
-1.289
0.484
0.8051
-0.0001052
-0.0005296
0.0006348
-0.0002271
-0.0004185
0.001047
0.004979
-0.006026
-0.1181
-0.1971
-0.2751
0.518
-0.2429
0.0002427
0.0003945
-0.05238
0.09487
-0.04249
0.001576
-0.00145
-0.0001267
0.0006141
0.0006729
0.1607
-0.6346
0.4739
-0.0003115
0.0002171
9.441e-05
-2.073e-06
-1.856e-05
-0.0004836
-0.0006231
0.001107
2.729e-05
0.0001241
-0.0001514
-0.0007248
0.00113
-0.0004053
0.000964
-0.00142
0.0004555
-0.0007615
0.001486
-0.0007243
-0.0007779
0.0002622
0.0005157
-0.002545
0.001995
-0.0008092
0.001345
-0.0005356
0.1786
-0.01793
-0.1607
-0.009361
-0.003184
0.01255
-0.0005974
0.00168
-0.001083
-0.002181
-0.001753
-0.002211
0.002279
-6.743e-05
0.02083
0.01784
-0.03868
0.005023
-0.00218
0.0005773
-0.0005831
5.79e-06
0.001701
0.0003779
-0.002079
-0.02308
-0.01071
0.6868
-0.5261
-2.133e-05
-0.0009425
-0.0001806
-0.0005526
0.0007332
0.003717
-0.004537
0.0008204
-0.0002352
0.001199
0.002288
-0.0005869
-0.001018
0.001457
-0.0004388
-1.009
-0.2804
-0.0007074
0.0004192
0.0002882
-1.154
0.8751
0.2786
-0.0003706
-0.000144
-0.0005369
-0.000241
0.003179
-0.0005117
-0.002667
0.002275
-0.00272
0.0004445
-0.2143
0.09917
0.1151
0.0004539
0.002201
-0.002655
-0.1095
0.0619
0.04759
0.1658
-0.4409
0.02506
-0.07745
5.354e-07
-4.247e-07
-1.107e-07
-1.251
0.09743
-0.0002331
-0.0004705
0.0007036
-0.00032
-0.0004896
0.0008096
0.01211
-0.01032
-0.001785
-0.0001839
-0.0001276
0.0007572
-0.0006891
-6.807e-05
0.002744
0.001209
-0.003953
0.08776
-0.1051
0.01738
0.002935
-0.001147
-0.001788
-0.0008112
0.000638
0.0001732
-0.001491
0.0004567
0.001035
-0.001775
0.0006964
0.001078
-0.0003247
-0.001177
0.001501
0.0006938
0.0008826
1.535e-07
-1.179e-07
-3.552e-08
-0.001588
9.657e-05
-0.006809
0.03631
-0.02951
0.001626
-0.002956
0.00133
-0.0001179
0.0001372
-1.927e-05
0.03086
-0.05499
0.02413
0.007292
0.0005525
-0.007845
-0.05231
-0.03936
0.09166
0.002831
-0.003345
0.0005142
0.006229
-0.003406
-0.002823
0.001636
-0.0006353
0.002284
-0.0007816
-0.001503
-0.0002381
-0.0001275
0.0003656
-0.02773
-0.7826
-0.002191
0.0004166
0.0005555
-0.0008799
0.0003245
0.002203
-0.003267
0.001063
0.001223
-0.0003288
-0.0008941
0.004653
-0.008334
0.003681
-0.008531
0.001644
0.006887
-0.0002848
0.0002943
-9.524e-06
-0.0009845
0.0002596
0.006789
0.003567
0.0007059
-0.0005616
-0.0001443
0.0004162
0.001153
0.0002772
-0.0005596
0.0002824
-0.0004046
0.0007741
-0.0003695
-0.0001109
0.0001109
0.1872
-0.008641
-0.001888
0.0005674
0.001321
0.000253
-0.0005948
0.0003417
-0.0004435
0.001016
0.0003931
-5.744e-05
-0.0003357
-0.0004065
0.001218
-0.0008115
-0.001594
0.00119
0.0004043
-0.04641
0.03415
0.01226
-2.645e-08
1.838e-07
-1.573e-07
0.00402
0.002209
-0.003902
0.001686
0.002216
-0.002121
0.0007133
0.001407
1.041
-1.217
0.1763
6.053e-05
-5.075e-05
-9.78e-06
-0.001286
0.0006435
0.0006423
0.001627
0.001308
-0.0005767
0.001162
-0.0005851
0.123
-0.1489
0.02593
-0.001415
-0.0007055
-0.1146
-0.006298
0.1209
-8.883e-06
-3.349e-05
4.237e-05
2.961e-05
3.093e-05
-0.0003187
-0.0004925
-0.001425
0.004357
0.001205
-0.009769
0.008564
0.0003131
0.001962
0.000732
-0.0007129
-0.006838
0.08733
-0.08049
0.0001276
-0.001143
0.001015
0.0009885
0.0001895
-0.001178
-0.04404
0.03723
0.0018
-0.002061
0.0002614
8.958e-08
-0.0008619
-0.00335
0.004211
-1.475
1.203
0.2719
-1.456
1.187
0.2691
6.118e-06
-1.187e-06
-4.931e-06
-0.1675
0.1348
0.0327
0.2067
-0.03833
-0.1684
-0.06084
0.04687
0.01398
0.02632
-0.07067
0.04435
-0.0003375
0.0003131
-7.111e-08
7.111e-08
0.0003622
-0.001183
0.0008205
0.02275
-0.006304
-0.01645
0.002361
-0.0005252
-0.001836
0.05499
-0.03287
-0.2087
-0.005595
-0.001081
-0.01881
0.01989
0.0006799
-0.0003743
-0.0003056
-0.05739
0.1988
-0.1414
-0.0006812
-0.0009131
-6.965e-06
0.0006496
-0.0006426
8.175e-06
-9.355e-06
1.18e-06
-1.834e-06
1.654e-06
1.795e-07
0.002979
-0.001808
-0.001171
0.0005434
-0.001786
0.001242
0.01967
0.003084
-0.00107
0.0003566
0.0007134
-0.4716
0.2206
0.251
0.001068
0.0001551
-0.00121
0.001692
-0.0004823
0.0002693
0.0001761
-0.0004454
1.051e-06
-8.05e-07
-2.463e-07
-0.0003746
0.0006276
-4.188e-05
-0.006115
-1.528e-05
1.63e-05
-1.019e-06
-0.002592
0.002248
0.0003439
0.003574
-0.001028
-0.002545
-0.04126
-0.0733
0.005804
-0.004757
-5.003e-07
6.027e-07
-1.023e-07
0.002125
0.001449
-0.02061
0.01637
0.004239
-0.0006072
-0.001281
4.148e-06
-4.148e-06
0.2285
-0.02176
0.00203
-0.0003774
-0.001652
0.001713
-0.0007244
0.000805
-0.001737
0.0009323
-0.0003555
0.0002505
0.000105
0.0003838
0.0003221
0.000818
0.0005748
-0.001393
3.419e-07
1.936e-07
0.0008792
0.000431
-0.00131
-0.0006273
0.0005553
7.196e-05
3.018e-06
-3.018e-06
0.1974
-0.969
0.7717
-0.001159
-0.002447
0.003606
-0.0002133
0.0005714
-0.0003581
0.001885
-0.0008714
-0.001013
0.004633
-0.001451
-0.003182
-0.0001816
0.0008447
-0.0006631
0.0004257
-0.0002909
-0.0001349
0.1186
-0.03088
0.0002036
-0.0009375
0.0007339
-0.0002347
0.001182
-0.0009469
-0.009518
-0.003674
0.01319
-0.005585
0.002897
0.002688
-0.05936
0.09126
-0.0319
-0.01611
0.006754
-0.09108
0.03877
-0.001498
-0.001384
0.002882
0.0001355
0.001114
-0.00125
-0.0002373
0.0004906
-0.0002533
-0.0002163
0.0002798
-6.35e-05
-0.001407
0.0003731
0.001034
0.002112
-0.006488
0.004376
-0.000793
-7.933e-06
0.000801
0.8744
0.1662
-0.001517
0.002066
-0.0005491
0.002192
-0.0001623
0.00113
-0.001894
0.0007636
-0.001306
0.001433
0.0017
0.001479
0.001156
-0.001368
0.0002112
-0.3887
-0.453
0.8417
0.0004935
0.001017
-0.001511
-0.5415
-0.3487
0.8902
0.03986
-0.01903
0.003784
-6.692e-05
-0.09352
-0.1627
0.2562
0.04786
0.1203
-0.1682
2.084e-07
-6.388e-08
-1.445e-07
0.001741
-0.001408
-0.0003331
-0.07865
-0.1009
0.1795
0.001593
-0.001181
-0.0004123
0.175
-0.05205
-0.001519
0.006172
-0.002265
0.004622
-0.002357
-0.009441
-0.01117
0.000756
0.001197
-0.001953
-0.2011
0.2322
-0.03105
-0.0003935
0.0005185
-0.0001251
-0.0003496
-0.0002607
0.0006102
3.171e-06
5.619e-06
-8.79e-06
-0.0001314
-0.0002241
0.004718
-0.002605
-0.0003346
-0.0006031
0.0009378
-0.002964
0.0006482
0.002316
-0.001278
-0.0009704
0.002248
0.003087
-0.002633
-0.0002323
0.0004087
-0.0001764
2.748e-06
0.0001012
-0.0001039
0.002186
0.0001751
-0.179
0.1216
-0.008844
0.004344
0.004501
-0.002921
0.002946
-2.463e-05
0.001158
0.0001226
-0.001281
-2.083e-06
3.011e-06
-9.276e-07
-0.0009558
0.0006154
0.0003404
-0.8539
0.3123
-0.2555
0.1302
0.1252
0.0006191
0.0001694
-0.0007885
0.004253
-0.005773
0.00152
-0.0002875
-0.0004923
0.0007797
0.01895
-0.01143
-0.007516
0.2115
-0.2019
-0.00957
0.00732
-0.0106
-0.0005694
-4.508e-05
0.0006145
0.09733
-0.05229
-0.04504
0.001295
0.0005892
0.0008993
-0.0002802
-0.001517
0.003783
-0.002266
-0.02014
0.03135
-0.0112
-1.818e-05
-4.774e-06
2.295e-05
0.0009722
-0.0003117
-0.0006605
-0.002881
0.0009405
0.001941
0.005176
-0.002736
-0.00244
0.1969
-0.1491
-0.00799
0.01539
-0.5023
-0.9724
-0.4956
-0.9608
-0.008936
0.0004056
-0.0006185
0.0004467
0.0001718
-0.003669
-0.000233
0.001543
0.003633
0.0001657
0.00121
-0.001376
-0.01618
0.04704
0.002
0.000979
-0.001891
0.0006875
0.001203
0.0001621
0.000713
-0.0008751
0.0008477
-0.001801
0.0009528
0.0004676
0.001126
0.00115
-0.0004562
-0.0006939
-0.001844
0.002348
-0.0005045
0.001084
-0.0007455
-0.0003388
-0.0004711
0.00242
-0.001949
-0.00138
0.001074
0.0003066
-0.005142
0.007422
-0.00228
4.813e-06
-5.056e-05
4.574e-05
-0.001143
-0.006479
-0.02568
0.03216
0.001379
-0.001212
-0.0001662
0.003734
0.000899
-0.0006376
-0.001606
0.002244
0.2981
-0.4092
0.1112
0.0008881
8.409e-05
-0.0008991
0.001959
-0.00106
-0.001823
0.001643
-0.007975
-0.008175
0.01615
0.001183
-0.001233
4.996e-05
-0.0001143
0.0009381
-0.0008237
0.3824
0.1358
-0.5182
-0.1165
-0.05094
-0.1946
0.2645
-0.06993
0.0007893
-0.0009457
0.0001564
0.4459
-0.8346
-0.001479
0.0001082
0.001371
0.06362
0.0337
0.0004413
-0.0006546
9.886e-05
-0.0007705
0.0006717
0.1155
-0.1224
0.03105
-0.01119
-0.01986
-0.00024
0.001175
-0.0009346
2.718e-08
2.269e-07
-2.541e-07
0.001608
-0.002732
0.001124
0.9547
-0.7153
-0.2394
0.0006932
0.00955
-0.01024
0.0001486
0.0006086
-0.001361
0.0009609
0.0004005
0.004954
-0.003918
-0.001036
-0.09034
-0.01916
5.877e-05
8.702e-06
-6.747e-05
0.02084
-0.02404
0.003199
1.335e-05
-0.0001587
0.003124
-0.004172
0.001049
-0.002226
-0.00384
0.006066
0.2454
-0.2575
0.01207
0.003894
-0.003911
1.696e-05
-1.025e-06
5.502e-06
-4.477e-06
0.0002152
0.0006126
-0.0008279
-0.0009867
0.001094
-0.0001078
-0.0002292
0.000491
-0.0002618
0.002023
0.001872
-0.0004872
0.0004186
-0.02606
0.01958
0.01055
-0.0699
0.0001693
-0.0002897
0.0001204
-0.5102
0.03861
0.004129
9.331e-05
-0.004222
3.786e-05
-4.674e-05
0.001732
0.01911
-0.003958
0.003121
0.0008362
0.000639
-0.001904
0.001265
-0.002142
0.002121
2.164e-05
0.11
0.4884
-0.5985
0.0005545
-0.001131
-0.0001121
-0.0001406
0.0002527
-0.001199
-2.572e-05
0.001225
0.0005738
0.006718
0.0004021
0.001047
-0.00145
-0.0007771
0.0004571
-0.0007159
-0.001495
0.002907
-0.002509
-0.0003983
-0.0009832
0.0001902
-0.001638
0.004634
-0.002996
-0.0005834
0.0001218
0.0004615
0.00043
-3.691e-05
3.808e-05
-3.424e-05
-3.833e-06
0.0008769
-0.0009299
5.297e-05
-0.674
0.8713
-0.003398
0.0008061
0.01248
-0.01463
0.002146
-0.005428
0.006223
-0.01059
0.00111
0.009478
0.001148
-0.0003426
-0.01033
-0.005644
0.01597
-1.277
1.439
-0.1618
-0.00112
0.001137
-1.722e-05
3.873e-05
2.377e-05
-6.25e-05
0.003083
0.01215
-0.01523
0.004859
-0.005279
0.0004202
0.5739
-0.1915
0.0008869
-0.001829
0.0009417
0.0002728
-0.001146
0.0008735
-0.05821
0.04199
-0.02415
-0.177
0.6963
-0.6517
-0.04455
0.0008738
-0.0009113
0.06444
-0.02813
-0.000279
-1.224e-05
0.0002912
0.05053
-0.05665
0.006125
7.639e-05
0.0005009
-0.01437
-0.1307
0.1451
-5.429e-05
7.148e-06
4.714e-05
0.05749
-0.2521
0.0002616
0.0004183
-0.002656
0.002783
-0.0001273
-0.0013
0.0007121
0.0005884
-0.001206
0.002664
-0.001457
0.0004823
-0.0009623
0.0004801
-0.01863
0.004185
0.01445
-0.0004923
0.0002751
0.0002172
0.0007177
0.0002659
-0.0009836
-0.001501
0.0001558
0.001346
-0.0007666
0.0001394
0.0006272
0.00196
0.008725
-0.01068
-0.002404
0.002079
0.0008542
0.001347
-0.002201
0.001737
-0.00588
0.004143
0.004805
-0.003328
-0.001477
-0.001174
0.002028
0.356
-0.95
0.5939
0.1231
-0.001929
-0.1212
0.004136
-0.001796
-0.00234
-0.0007738
0.0008213
-4.746e-05
-1.532
0.1224
1.409
-0.00357
0.00224
0.00133
-0.005873
0.0149
-0.00903
0.004467
0.007641
-0.001261
0.005514
0.02771
-0.01541
-0.01229
1.414
-0.2689
-1.145
-0.000395
0.0005354
-0.0001404
-0.01238
0.006507
-3.798e-05
3.416e-05
3.827e-06
-0.00192
0.0009307
0.000989
0.0001666
-0.0001064
-6.026e-05
-0.0001204
6.493e-05
5.548e-05
0.001342
-0.0002107
-0.001131
-0.0005146
-0.0004412
-0.0003516
-9.835e-06
0.0003615
0.0009194
0.003939
0.002083
-0.0006605
-0.001422
-0.1272
0.2576
-0.1304
-0.0004094
0.0006866
-0.09991
0.08515
0.01476
0.00117
-0.0009997
-0.0001701
0.0006865
-0.001448
-0.001809
0.001619
0.0001904
0.0001871
-0.002224
0.002037
-1.487e-08
-5.624e-08
0.001546
-0.0007605
-0.000785
0.001312
0.0008108
-0.002123
0.02619
-0.01503
-0.01116
0.003186
-0.004008
0.0008219
-0.2848
0.2277
0.05708
0.0001069
5.977e-05
0.1191
0.004016
-0.0001404
-1.825e-05
0.0001587
-0.003727
0.002865
-1.184e-07
1.184e-07
-2.569e-08
-3.211e-07
3.468e-07
-1.664e-07
1.448e-07
2.152e-08
1.195
-0.8174
-0.3772
0.0006856
0.000693
-0.0003776
0.001851
-0.001473
-0.1461
-0.1093
0.003133
-0.0003842
-0.002749
-0.0002501
0.0006695
-0.0004194
0.0007989
-0.0008464
4.745e-05
0.002958
-0.0002951
-0.002663
-7.483e-05
-0.002581
-0.001094
-0.000206
-0.002282
-0.001287
-0.0005315
0.0004853
4.618e-05
-0.4347
0.7907
0.0003919
-0.0001252
-0.0002667
1.549e-06
-1.473e-06
-7.633e-08
0.0003725
-0.000439
6.652e-05
0.0008244
-0.0002007
-0.0006238
-5.424e-07
5.16e-07
0.06109
-0.1792
0.002945
-0.000742
-0.05199
0.07832
0.005999
-0.004262
0.04731
0.242
-0.2893
-0.0007071
0.0001758
0.0005313
-0.0003122
-0.0004912
0.0008034
-1.504e-05
1.45e-05
5.444e-07
1.516
-0.8964
-0.62
0.00335
0.0007861
0.008154
0.003482
-0.01164
1.379e-07
-6.031e-07
4.652e-07
-0.0003841
3.431e-05
0.0003498
0.001104
-6.049e-05
-0.001044
-0.008327
0.001737
0.006589
-0.1094
0.1008
0.008623
-1.361e-05
7.842e-05
-6.482e-05
0.0005151
0.0005387
-0.001054
-0.7993
-0.7323
0.00199
-0.007974
0.001272
0.006702
-0.0006942
0.0003446
0.0003998
0.0007833
-1.554e-05
-0.0007583
-0.0002128
3.309e-05
0.0001797
0.003682
-0.0005587
-0.005208
0.005176
3.213e-05
0.0005575
1.991e-05
-0.0005774
-0.0003429
0.0007621
-0.0004192
-0.0002889
-0.000831
0.1119
0.05753
-0.1694
-0.0002013
0.0001509
5.037e-05
-0.0001839
0.001253
-0.001069
0.0009539
-0.001087
0.0001331
0.0009729
-0.002113
0.00114
-0.0001828
0.0003475
-0.0001648
-0.7902
0.1128
0.6774
-0.7889
0.629
0.1599
0.005227
-0.01475
0.00108
6.967e-05
-0.0008557
-0.002225
0.003081
0.1341
-0.2065
0.07242
1.473
-0.6494
-0.824
-0.001063
0.001605
-0.000542
0.0001756
-0.0002743
9.867e-05
0.002113
-0.0009022
-0.00121
-0.0003952
4.359e-05
-7.639e-05
-8.489e-06
8.488e-05
0.0001522
-0.0001387
-1.347e-05
-0.002571
0.002384
0.0001876
-0.1466
0.1032
0.04345
1.395
-1.274
-0.1217
2.167e-05
-1.056e-05
-1.112e-05
0.0007627
0.001387
-0.00215
0.0004071
-0.001361
0.0009544
0.3154
0.5195
-0.8349
-0.000187
-0.0004403
0.002231
-0.002615
0.0003841
0.001051
-0.001015
-3.581e-05
0.5016
-0.0008867
0.001057
-0.0001702
-0.03102
0.1651
-0.000752
0.001391
8.087e-05
1.477e-05
-9.565e-05
0.006669
-0.008459
0.001789
0.9747
0.1611
-1.136
5.596e-05
0.0001776
-0.0002336
-0.004066
-0.001518
-0.0001885
7.761e-05
0.3919
1.022
0.0003746
-0.001393
-1.001e-06
-8.321e-07
0.3914
0.3049
-0.001517
-0.002441
-0.1676
0.007952
0.1596
-0.0003993
-0.000516
0.0009153
0.00284
-0.0007908
-0.002049
-0.2805
0.187
-0.0009257
0.0008444
8.122e-05
0.000377
0.0007814
-0.001158
-3.521e-06
5.521e-06
-2e-06
0.0008933
0.0007551
-0.001648
0.004076
-0.002244
-0.001831
-0.0003538
-0.001026
-0.0004095
-0.0009519
-0.001168
0.0002645
0.0009034
0.000856
-0.0009178
0.001021
-0.001618
0.0007477
-0.001152
0.000404
-5.076e-05
5.63e-05
-5.545e-06
-0.003041
0.002285
0.0007559
0.0007841
-0.000566
-0.0002182
-0.598
0.9134
0.001127
-0.0007424
-0.000385
0.1045
-0.1922
0.08772
-0.0006607
0.001508
-0.1284
0.03708
0.09133
-0.0006376
0.003468
-0.3433
-0.934
-0.1537
0.07503
-0.002072
-0.004391
0.006463
-0.0002912
-0.0002922
0.00167
0.001148
-0.002818
-1.04
0.1289
0.9116
1.104
-0.898
-0.2059
-2.522e-05
9.939e-06
0.0005685
0.0004313
-0.0009998
0.0004781
-0.0009617
-0.001065
0.0004198
0.0006452
-0.003632
0.001363
0.002269
0.0001223
-0.0004013
0.002264
-0.003231
0.0009676
-0.0003736
0.0002615
0.001466
-0.0007535
0.0002228
-0.0005818
0.000359
0.0006213
0.0001734
-0.0007947
-1.16
0.1191
-0.0004069
-0.001239
0.001646
-0.0001457
0.001283
-0.001137
-0.0001424
-0.004161
0.004303
0.01115
-0.005172
-0.005974
0.1777
-0.2341
0.05641
1.03
0.4433
0.00237
-0.003887
-1.33e-05
-0.0001046
0.0009026
0.00118
6.235e-06
-2.913e-06
-3.321e-06
-0.07979
-0.04862
-0.9849
-0.4036
1.388
0.0004902
0.0003203
-0.0008105
0.001742
-2.153e-05
-0.00172
-0.04879
-0.01205
-0.000382
-0.000468
0.00085
0.01225
-0.001684
-0.01057
-0.02797
0.08363
-0.05566
0.0007518
-0.0002848
-0.000467
0.001805
-0.002275
0.0004705
0.00131
-0.001456
0.00224
-0.006626
0.004386
7.965e-08
-7.965e-08
1.316e-06
-2.648e-07
-7.04e-05
-0.0006962
-0.0003493
-0.000143
0.0009254
0.0008152
-0.001226
-0.0005483
0.001774
-0.0008394
-4.73e-05
0.0008388
-0.001525
0.0006859
0.05058
0.009769
-0.06035
-0.002313
0.0007935
0.00152
-4.008e-06
4.874e-06
-8.663e-07
0.001036
0.003093
0.7438
-1.066
0.3227
0.001386
-0.0002294
-0.003248
0.003125
0.000123
-0.002094
-0.0005198
0.002613
1.069
0.447
-0.0238
0.7676
-2.2e-07
-7.305e-07
9.505e-07
0.02061
0.005586
0.0004852
-0.0009115
0.0004262
-0.0009639
0.0009815
-1.765e-05
-0.0001596
0.0002057
-4.607e-05
-0.006738
-0.002106
0.003507
0.005263
-0.00877
0.0005694
-0.0003001
-0.0001965
-0.004823
0.005019
0.0009859
-0.0008349
-0.0001509
-0.1497
-0.2016
0.3514
1.051
-0.04554
-1.006
-0.003677
-0.0004042
0.004081
0.0005258
0.01195
-0.0002482
0.001038
-0.004056
0.001963
0.0003623
-0.0004129
5.061e-05
-0.004149
0.001311
0.002838
0.0001925
0.0001391
-0.0003316
-0.02204
0.02096
0.006118
-0.01409
-1.12
-0.3844
1.505
-0.0002192
0.0004298
-0.0002107
0.01989
0.007819
-0.00127
0.0009236
0.0003459
9e-08
-0.002096
0.000585
0.001511
-0.003931
0.002433
-0.0008377
0.002445
1.252
-0.2776
-0.001656
0.001879
-0.0002231
-0.000448
-0.0007595
0.001208
5.244e-06
-5.369e-06
1.246e-07
0.001615
0.007148
-0.008763
-0.002917
-0.001492
0.004409
0.0009823
0.0004842
-0.0002703
0.0008258
0.001356
0.001551
1.911e-05
-0.0001641
0.000145
-0.002667
-0.002122
0.004789
0.0005771
-0.0007587
0.001277
-0.002233
0.0009553
-0.003103
0.0001821
-0.0001034
0.002847
0.00241
-0.004925
0.002515
-1.275e-06
1.275e-06
-0.0003955
-0.002852
-0.06823
0.02182
0.0001231
-0.001173
0.00105
7.153e-05
0.0002092
-0.0002807
-2.144e-06
0.001219
-0.001217
0.1003
0.3737
-0.474
1.765e-05
1.441e-06
-1.909e-05
0.001595
-0.006737
0.001778
0.0003343
-1.51
0.5249
2.276e-06
3.958e-06
0.001073
-0.0001957
0.0008763
-0.00104
0.0001641
-0.3864
-0.6347
1.021
-0.0001096
0.0009484
-6.704e-05
8.212e-05
-1.508e-05
-0.0004358
0.001416
-0.0009803
-0.0003908
0.001616
-0.001226
-1.193
0.8067
0.002268
-0.001425
-0.0008422
-4.815e-07
-5.105e-07
9.921e-07
-0.0005321
0.0008444
-0.0003123
0.003927
-0.003737
-0.00019
-0.1593
0.06626
0.09303
-0.00152
-0.0003707
0.0009282
-0.0007054
-0.0002227
-0.1645
0.1698
-0.005266
0.002288
0.000476
-0.002764
-0.003232
0.003081
0.0001506
-0.00149
0.0002642
0.001019
0.0005262
-0.002323
0.002972
-0.002397
0.0003013
-4.642e-05
-0.0007192
0.0007657
0.0001936
-0.0004309
0.2803
0.5835
-0.8637
0.00174
0.0005278
0.00263
-0.003905
0.001274
0.0003019
-0.000308
6.056e-06
-0.0002263
-0.0009731
-0.01681
0.01273
0.004079
0.003474
-0.000341
-4.263e-05
-0.0001702
1.022
-0.7415
-7.4e-05
0.0008729
0.0003187
0.0004331
-0.001012
-0.0004225
0.001434
1.468e-07
-6.471e-07
0.000533
-0.001545
-6.344e-06
-8.697e-06
-0.002237
-0.0004984
0.002736
-0.000315
0.0001995
0.0001155
-0.003682
0.001004
0.002678
0.1725
1.022
8.967e-08
-8.967e-08
-0.0004942
-0.0007159
0.00121
-0.0007651
0.001658
-1.773e-05
1.637e-05
1.356e-06
0.0003773
-0.000756
0.0003787
-1.699e-05
0.0001304
-0.0001134
0.0006833
-0.000119
-0.0005643
-0.0007677
0.0006625
0.5567
0.8388
-0.001433
-0.004605
0.006038
-0.003798
0.001092
0.002706
-1.497
0.3772
0.0004375
-0.0007325
0.000295
0.0002048
0.0009651
0.001868
-0.0007103
0.0006543
0.0001764
-0.0008306
0.1376
-1.02
0.8822
-0.0004579
0.002722
-6.122e-05
1.832e-05
4.29e-05
-0.2769
-0.7164
0.854
0.006676
0.00447
0.004922
-0.00576
0.0008376
-0.00167
-0.001962
0.0001309
1.013e-06
-0.0001319
0.002071
-0.001716
-0.0003551
2.912e-05
-3.41e-06
-2.571e-05
-0.003516
0.0008934
0.002622
-0.003342
0.003335
7.461e-06
-0.7989
-0.2675
0.001808
-0.0005065
-0.001301
0.0004565
-0.0002143
-0.0002422
0.0006652
-0.0005396
-0.0001256
0.0002282
-0.0004605
0.0008151
-0.001222
1.084
0.08487
-1.169
0.275
-0.2139
0.07061
-0.1297
0.05909
0.0005357
-0.0001196
-0.0004161
0.0439
-0.8428
0.03096
-0.01961
-0.01135
-4.232e-05
7.855e-05
-3.623e-05
-0.0007919
-0.0009538
0.001746
0.0004056
0.0002217
-0.0006273
-0.2176
0.8466
-0.629
0.0002326
-0.0001218
-0.0001108
-0.0003642
0.002049
-0.001684
-0.2415
-0.01473
0.2562
0.0005142
0.00057
0.6882
0.4718
-1.16
-0.0001453
-0.0001465
0.0002918
0.0002495
0.0001049
-0.0003544
-0.00175
0.000859
0.0008909
-0.0007071
-0.002614
0.003321
7.38e-05
4.644e-05
-0.0001202
0.1802
-0.04961
-0.1306
-0.0004828
-0.0004142
0.000897
-0.007373
0.006411
0.0009618
-0.0005656
-0.0001415
4.978e-06
-2.116e-06
-2.862e-06
-0.0005149
-0.0005922
0.001107
0.0007224
0.0002607
-0.0009831
-0.01059
-0.006221
0.004409
-0.004981
0.0005723
0.001299
-0.0004178
-0.000881
0.0004099
-0.0004099
-0.3425
0.1965
0.146
-0.006475
0.009501
-0.003026
0.0008183
-0.0005049
-0.0003134
-0.0009773
0.001794
-0.0008167
-5.558e-06
1.55e-06
0.0006431
-0.000575
-6.81e-05
-0.1169
1.201
0.04397
-0.02653
-0.01744
1.583e-05
5.846e-06
-0.0005754
2.989e-05
0.0005456
0.0002815
-0.0003637
8.214e-05
-0.001448
0.003257
-0.001809
-0.0001055
0.0001055
-0.001623
0.001711
-8.718e-05
-0.0004002
0.0004002
0.002503
-0.0008715
-0.001632
-1.377e-05
-8.726e-06
2.249e-05
-0.005522
0.004089
0.0002102
-0.0001372
-7.299e-05
0.1016
-0.07461
-0.02698
0.001739
-0.001314
-0.0004253
1.093
-1.518
0.4245
1.313
-1.734
0.421
0.0006166
0.003086
-0.003703
-0.04703
0.09747
-0.05045
-0.001383
2.404e-05
0.001359
0.01527
-0.003539
-0.01173
-0.002367
-0.0003526
-0.006595
0.007431
-0.0008368
0.04428
-0.1004
0.05608
-0.001196
0.0001268
0.001069
0.0005702
0.0008161
-0.001386
0.2537
-0.008277
-0.01197
0.011
0.0009633
-0.0004467
0.0007449
-0.0002982
0.09278
-0.0485
-0.001026
0.0005285
0.0004977
-9.131e-06
9.131e-06
0.0001423
-0.0001263
-1.598e-05
0.0007748
-0.002388
0.001613
-0.0005356
1.227e-05
0.0005233
0.003852
-0.004842
0.0009897
0.0001133
-0.0001054
-7.936e-06
-0.3335
0.1198
0.2137
-0.002272
0.0004625
-0.0005859
-0.0006836
-0.05276
0.3508
-0.0009246
0.0006915
-0.001847
0.000146
0.001701
-0.00231
0.005156
-0.002845
-0.4747
-0.5468
1.021
0.2484
-0.003271
-0.2451
0.01241
-0.007352
-0.005055
9.595e-06
2.791e-06
-1.239e-05
-3.423e-05
-0.001466
0.0015
9.613e-06
-9.613e-06
-0.003671
0.001828
0.001843
0.0004385
-0.0001511
-0.0002874
-0.001633
0.001514
0.0001187
1.352e-06
1.208e-06
-2.56e-06
-0.001591
-0.0004936
0.002085
-0.41
1.366
-0.9565
-8.519e-05
0.000121
-3.577e-05
0.00829
-0.0014
-0.00689
-0.3006
1.334
-1.034
-0.0004827
-0.0004316
0.0009143
7.934e-07
-4.255e-07
-3.679e-07
0.001566
0.00695
-0.008516
-0.001833
0.0006878
0.001145
0.005523
-0.003253
-0.002269
0.0009941
0.002692
-0.003686
-8.099e-07
-1.994e-06
2.803e-06
0.0001929
-0.0001929
0.0008263
0.0004067
-0.001233
-0.0902
-0.0564
-0.4594
0.2209
0.2385
0.002388
-0.0008865
-0.001501
-0.0007646
0.0005055
0.000259
0.0001751
0.0002476
-0.0004227
-0.001338
0.0007397
0.0005985
-0.0009684
-0.0006785
0.001647
0.0003947
-0.000166
-0.0002286
-0.003157
0.002869
0.0002884
-0.0141
0.02147
-0.007376
0.0001779
0.0002167
-0.03467
-0.01123
0.0459
-0.0008375
-6.302e-05
0.0009005
0.1358
-0.5768
0.441
0.0009499
0.000956
-0.001906
1.256e-06
2.955e-06
-4.211e-06
-0.003497
0.004692
-0.001194
0.0014
-0.00114
-0.0002591
-0.002789
0.001303
0.001485
-0.3821
0.09974
0.2824
-0.1848
0.05137
0.1335
-1.629e-05
2.798e-05
-1.169e-05
0.006617
-0.007061
0.0004439
5.171e-05
-0.000108
5.624e-05
0.0006039
-0.001068
0.0004645
-3.657e-05
6.774e-05
-3.116e-05
0.001922
-0.001788
-0.0001343
0.001807
-0.0002859
-0.001521
-0.002774
0.002174
0.0006001
0.0002287
-0.001434
0.001205
0.0005092
-0.0005092
-8.409e-05
0.001465
-0.001381
-6.272e-05
0.0005
-0.0004372
0.000759
-0.0006162
-0.0001429
-0.002413
0.003608
-0.001194
0.001766
-0.00323
0.001463
0.0003715
0.001428
-0.0002018
0.0002174
-1.566e-05
-1.351e-06
-1.298e-06
2.649e-06
2.287e-06
-1.392e-06
-8.956e-07
-0.003344
0.00151
0.001834
-0.3216
0.4219
0.5926
0.2146
-0.8073
-0.001754
0.002558
-0.0008042
8.814e-05
0.000411
-0.0004992
0.00412
-0.0008331
-0.003287
-0.1892
1.183
-0.9941
7.697e-05
0.0003568
-0.0004338
-0.002902
-0.0003299
-0.002253
-0.004734
0.006986
5.971e-05
4.485e-05
-0.0001046
0.004449
-0.003945
-0.0005044
-8.585e-05
0.0004065
-0.0003206
0.004406
-0.005253
0.0008471
0.7865
-0.6764
-0.007025
0.002204
0.004821
0.01045
0.0001084
-0.01056
0.0003002
-3.149e-05
-0.0002687
0.0001208
0.0002085
-0.0003293
-7.55e-05
5.762e-05
1.789e-05
-0.003016
0.001705
0.001311
0.003737
-0.008959
0.005222
0.000494
-0.001216
0.000722
-0.0009103
0.00141
-0.0004996
-0.001888
-0.001316
0.003204
0.005301
-0.002226
-0.003075
-0.0003857
-4.705e-05
0.0004327
0.001922
-0.001586
-0.0003361
0.000447
-0.0003705
-7.652e-05
0.0003135
-0.0002358
-7.768e-05
0.2582
-0.3221
0.06395
-0.0001576
9.894e-05
5.871e-05
5.884e-07
1.833e-06
-2.421e-06
0.003404
-0.0007731
-6.231e-05
0.002081
-0.002018
0.0005141
-4.948e-05
0.01989
-0.119
0.09908
-0.0003778
0.0003778
-0.0004726
0.0004726
-0.1656
-1.044
1.209
1.256
0.2303
-1.486
-0.002267
0.001246
0.001021
0.0007154
-0.00379
0.003075
8.42e-07
-1.059e-06
2.166e-07
-8.217e-06
5.576e-06
2.64e-06
-0.0001937
0.001933
-0.0003736
0.0004863
-0.0001127
0.0002542
2.37e-05
-0.0002779
-0.001106
-0.00339
0.004496
0.003023
0.004495
-0.007518
-0.1832
0.0575
0.1257
0.0003051
-0.000195
-0.0001102
-0.0008943
-0.0008565
0.001751
-0.0001866
0.0004008
-0.0002142
-0.003841
0.0008968
0.002944
4.582e-07
-1.017e-06
5.593e-07
0.0007896
-0.001008
0.0002189
0.8152
-1.145
0.3293
-0.000595
0.000595
8.809e-05
-5.627e-05
-3.182e-05
0.1658
0.5609
-0.7268
0.00145
-0.0001079
-1.282
1.116
0.2401
-0.4215
0.1814
-0.002721
0.001872
0.000849
-0.009867
-0.001437
0.0113
0.0003881
-0.0002073
-0.0001807
0.7763
-0.9415
0.1652
0.001177
-0.0005767
-0.0006004
0.4789
-0.1378
-0.3411
0.0007287
-0.001545
0.0008165
-0.01455
0.005122
0.009425
0.01303
-0.01177
-0.001268
0.005315
-0.002799
-0.002516
-0.000228
-0.0008266
0.001055
-0.0008528
-0.000395
0.001248
0.0003743
0.0001238
-0.0004981
0.00162
0.0003305
-0.001951
0.1531
0.6456
-0.7988
0.004405
0.06282
-0.06722
-0.005034
0.002522
0.002512
-0.0001645
-0.0008531
0.001018
4.163e-05
-0.0001545
0.0001129
0.0004081
-0.0002415
-0.0001666
0.0001873
-0.0001055
-8.172e-05
-0.0002142
-6.084e-05
0.000275
-0.0001346
0.0001346
-0.001031
0.001786
0.001135
-0.0008113
-0.0003241
-0.0006843
0.001889
-0.001204
-0.001234
0.0007642
0.0004697
0.0003762
0.0002192
-0.0005954
0.009252
-0.009043
-0.0002096
0.01278
-0.005475
-0.007302
0.4947
-0.3681
-0.1266
-0.001514
0.001661
-0.0001475
-1.316e-05
1.778e-05
-4.617e-06
-0.0007709
1.046e-06
0.0007698
0.4961
-1.096
0.5995
5.887e-06
2.39e-05
-2.978e-05
0.004682
-0.002405
-0.002277
-0.002229
0.0005879
0.001641
0.001197
-0.0005529
-0.0006436
-0.0003371
0.001578
-0.001241
0.001268
0.00575
-0.007018
0.0009455
-0.001097
0.0001513
-0.00145
-0.002955
0.004404
-0.001094
-0.001134
-1.081e-05
-2.11e-05
3.191e-05
-0.0006349
-0.0001054
0.0007402
1.549e-06
3.43e-06
-1.177
0.5405
0.6365
0.002007
-0.003879
0.001871
-0.001403
0.0005267
0.000876
0.1269
0.05417
-0.181
-0.001502
0.0004169
0.001085
0.001009
0.0002735
-0.001282
-1.242
1.242
0.001317
0.001828
-0.003144
-5.447e-06
9.845e-06
-4.398e-06
0.06164
-0.04857
-0.01307
0.009236
1.644e-05
-0.005581
0.005531
5.028e-05
6.42e-05
-4.078e-05
-2.342e-05
0.01042
-0.008196
-0.002226
-1.274
0.5255
0.7482
0.001045
-0.001659
0.0006142
-0.0003154
0.0007864
-0.0004711
0.4052
-0.2586
-0.1465
-0.01164
0.009264
0.002375
4.653e-06
-0.03378
0.03377
-0.002277
-0.001052
0.003329
-0.0008024
-0.0003104
0.001113
-0.001321
-0.0006107
0.001931
-0.05219
-0.05625
0.1084
-3.817e-07
2.548e-07
1.268e-07
5.555e-08
2.722e-06
-2.777e-06
0.0002517
0.0008757
0.0004037
-0.001503
0.001099
-0.002552
0.004231
-0.001679
0.0001324
7.774e-05
-0.3939
1.247
-0.8534
0.0002948
-0.001342
0.001048
0.3531
-0.00847
-0.3447
0.001198
-0.001652
0.0004534
-0.0005004
0.0003869
0.0001135
0.0009282
0.001157
-0.002085
0.0003522
0.0008443
-8.095e-07
1.563e-06
-7.533e-07
0.0005
-0.000554
5.391e-05
-0.5591
0.2206
0.3385
-5.151e-06
5.151e-06
-0.0003396
0.0002497
8.991e-05
0.0001339
-0.0005538
0.0004199
-0.001588
-0.0001982
0.001786
-0.0006369
0.0008405
-0.002528
-0.002377
0.004905
0.01289
-0.01171
-0.001187
-0.0005611
0.0004553
0.0001058
0.001861
-0.001292
-0.0005688
-0.003969
0.02304
-0.01907
4.442e-05
-4.442e-05
-0.0002384
0.0003067
-6.831e-05
-0.001078
0.0004679
0.0006099
0.0005706
0.0002284
-0.000799
0.001516
-0.001255
-0.000261
-4.316e-05
9.154e-05
-4.838e-05
3.33e-05
-3.078e-05
-2.519e-06
1.916e-05
1.092e-05
-3.008e-05
0.00199
-0.001454
-0.0005363
0.000812
-0.0001902
-0.0006219
0.001137
-0.003985
0.002848
-0.0004703
-0.000595
0.001065
-0.001425
0.0007439
0.0006806
-0.008619
-0.0001278
0.008747
-2.049e-05
2.049e-05
-0.01915
0.00589
0.01326
0.0008334
0.0003388
-0.001172
-0.005536
0.01369
0.0008858
-0.001226
0.0003399
-1.264
0.5117
0.752
0.55
-0.7849
0.235
0.003788
-0.006241
0.002453
0.0001218
-0.0001419
2.009e-05
-0.002161
0.0003977
0.001763
-0.212