/*--------------------------------*- C++ -*----------------------------------*\
  =========                 |
  \\      /  F ield         | OpenFOAM: The Open Source CFD Toolbox
   \\    /   O peration     | Website:  https://openfoam.org
    \\  /    A nd           | Version:  8
     \\/     M anipulation  |
\*---------------------------------------------------------------------------*/
FoamFile
{
    version     2.0;
    format      ascii;
    class       volVectorField;
    location    "15";
    object      U;
}
// * * * * * * * * * * * * * * * * * * * * * * * * * * * * * * * * * * * * * //

dimensions      [0 1 -1 0 0 0 0];

internalField   nonuniform List<vector> 
127143
(
(0.0165 -0.0005609 0)
(-0.0001732 -0.0008032 3.19e-23)
(-9.746e-05 -0.0004793 -6.08e-23)
(-0.0001291 -0.0006007 -3.86e-27)
(0.6826 0.2051 -4.108e-21)
(-0.0001123 -0.0006215 1.261e-26)
(0.7243 0.4287 0)
(0.6517 0.3037 -3.816e-21)
(0.5908 0.2643 1.969e-20)
(0.344 0.01264 0)
(0.6064 0.8645 1.182e-20)
(0.5964 0.367 1.651e-20)
(-0.0004844 0.000184 1.29e-23)
(-0.000173 -0.0006849 0)
(-0.3902 0.6816 2.577e-21)
(0.2661 -0.01975 0)
(-0.0002685 -0.001232 9.849e-23)
(0.978 -0.1073 -4.023e-21)
(0.9703 -0.2042 0)
(0.2583 -0.01503 0)
(1.276 -0.2968 1.342e-20)
(-0.01379 0.005016 0)
(0.8456 -0.08976 0)
(0.9452 -0.08755 0)
(-0.01402 0.005119 5.649e-22)
(0.7506 -0.1215 0)
(0.9724 -0.02006 1.677e-20)
(0.9551 0.01151 -2.672e-22)
(0.3687 -0.1654 0)
(0.9889 -0.08498 5.616e-21)
(0.8644 -0.06156 0)
(0.7235 -0.1161 2.237e-21)
(1.529 0.3635 3.49e-21)
(0.5646 -0.1376 -7.499e-21)
(0.7754 0.05367 4.904e-20)
(1.533 0.3744 -4.197e-23)
(0.2774 -0.08157 9.926e-22)
(1.391 -0.2131 -9.653e-21)
(0.9578 -0.08827 5.371e-22)
(0.6492 -0.0417 1.009e-24)
(0.9693 -0.2034 0)
(1.652 0.6791 -2.872e-20)
(1.605 0.673 2.304e-20)
(-0.000984 0.0002944 0)
(0.9774 -0.1052 3.65e-21)
(0.5745 -0.1396 2.477e-21)
(0.3803 -0.1723 0)
(0.7447 -0.201 -2.879e-22)
(0.8822 -0.1504 -8.78e-22)
(0.954 -0.07935 2.848e-22)
(0.2978 -0.02179 9.365e-23)
(0.916 0.006369 1.373e-19)
(1.548 -0.1761 0)
(1.428 -0.04383 -1.931e-20)
(0.9987 -0.002528 6.091e-20)
(0.772 -0.1948 1.425e-21)
(0.9987 -0.002516 -5.478e-20)
(0.9421 -0.07896 0)
(1.015 -0.01805 -2.793e-20)
(1.43 -0.03923 -3.821e-20)
(0.2992 0.3255 -7.384e-20)
(1.044 -0.2673 -1.264e-21)
(0.9557 -0.07507 -1.365e-21)
(1.001 0.0006273 1.932e-19)
(1.408 -0.1265 0)
(0.6721 -0.1285 -2.75e-20)
(1.28 0.1029 8.914e-20)
(0.9566 -0.07679 0)
(0.9562 -0.07668 -3.659e-22)
(0.9995 -5.533e-06 0)
(0.924 -0.07619 0)
(1.014 0.003738 -7.951e-21)
(0.9115 -0.187 4.014e-21)
(1.015 -0.0179 -1.515e-20)
(1.007 0.003836 -4.015e-23)
(1.019 0.01939 8.574e-21)
(1.048 0.04966 -1.192e-19)
(0.675 -0.194 0)
(0.7746 -0.1951 -2.825e-21)
(1.001 0.0014 0)
(0.4002 -0.1749 -2.22e-23)
(0.2965 -0.01998 -3.466e-23)
(0.7567 -0.1766 3.249e-21)
(0.7063 -0.05015 0)
(0.4849 -0.1226 -8.335e-22)
(0.7226 -0.2046 0)
(0.9528 -0.0949 1.246e-21)
(1.226 0.097 4.324e-21)
(0.6726 -0.1254 0)
(2.164 1.186 0)
(0.9731 -0.02041 0)
(1.218 -0.2039 0)
(2.104 1.157 0)
(1.277 -0.2965 -1.344e-20)
(1.383 -0.2714 0)
(0.963 -0.07071 -1.632e-20)
(1.647 0.6627 6.221e-20)
(0.8234 -0.06475 0)
(1.057 -0.2939 2.379e-21)
(1.278 0.1099 0)
(1.001 0.001352 0)
(0.8792 -0.1495 0)
(1.974 1.785 -4.659e-21)
(0.9269 -0.1006 0)
(0.7484 -0.2123 -8.308e-22)
(1.045 -0.2916 3.228e-21)
(0.8866 -0.1325 4.844e-21)
(0.9993 3.644e-06 0)
(0.4324 -0.07813 0)
(1.001 -0.001872 8.669e-20)
(-0.3842 0.6658 -8.706e-22)
(1.245 0.09909 8.752e-21)
(1.339 -0.29 -9.936e-21)
(0.2859 1.411 0)
(1.001 0.02373 -1.371e-21)
(0.8751 -0.1275 1.261e-21)
(1.024 0.07595 1.957e-20)
(1.007 0.004076 -1.097e-19)
(1.047 0.04814 9.517e-20)
(-0.001381 -0.005955 0)
(1.001 -0.001991 -1.214e-19)
(0.7133 -0.182 -1.08e-21)
(0.5618 -0.1774 0)
(0.933 -0.08122 -1.098e-20)
(0.3971 -0.176 1.458e-21)
(0.658 -0.09241 3.636e-21)
(1.089 -0.2902 0)
(1.054 -0.01181 1.717e-19)
(1.635 -0.1338 -2.656e-21)
(0.7119 -0.2003 -2.688e-21)
(0.8432 -0.2418 0)
(1.244 -0.2795 -4.19e-21)
(0.9474 -0.08466 4.5e-21)
(0.683 -0.197 0)
(-0.0004043 -0.002198 5.144e-22)
(0.8608 -0.2447 -1.337e-21)
(1.057 -0.08296 0)
(1.29 -0.2885 4.657e-21)
(0.192 -0.09774 -2.299e-20)
(1.107 -0.08127 1.004e-20)
(0.8025 -0.1037 5.066e-20)
(1.007 0.06187 -2.606e-20)
(1.478 -0.2081 8.428e-22)
(1.346 -0.2589 -1.043e-20)
(1.547 -0.1757 -3.96e-21)
(2 0.5806 1.501e-20)
(-0.3461 1.736 -2.888e-21)
(1.001 0.0005474 -1.753e-19)
(1.23 -0.2755 3.401e-21)
(2.139 1.763 -2.067e-21)
(0.9344 -0.09599 2.481e-21)
(0.8467 -0.1606 0)
(1.397 -0.201 3.217e-20)
(0.6926 0.004717 0)
(-0.1091 0.2579 0)
(0.5118 -0.1265 0)
(0.9424 -0.07862 2.705e-21)
(0.5998 -0.2038 0)
(0.7558 -0.2049 -5.565e-22)
(0.8157 -0.06918 -3.304e-22)
(0.9139 -0.06776 0)
(0.2159 -0.1046 2.984e-20)
(0.9738 -0.02113 2.621e-21)
(0.8444 -0.2384 -3.016e-21)
(0.7341 -0.19 0)
(1.467 -0.135 7.491e-21)
(0.2798 -0.08262 -6.906e-22)
(0.4311 -0.01697 4.8e-20)
(2.223 0.4835 -5.475e-21)
(0.9686 0.1364 -2.477e-21)
(-0.0002068 3.529e-05 0)
(1.345 -0.2595 5.138e-21)
(0.8632 -0.1347 4.02e-21)
(0.6997 -0.1779 -1.164e-20)
(0.9969 -0.002974 1.099e-20)
(0.06402 -0.02046 -1.059e-23)
(1.991 0.7218 -3.071e-21)
(1.633 -0.1347 -2.654e-21)
(0.9521 -0.09607 0)
(1.011 -0.03088 1.16e-20)
(0.6984 -0.178 -3.922e-21)
(0.9689 -0.0419 0)
(0.05328 -0.02411 -1.776e-22)
(0.06488 -0.02074 1.088e-23)
(0.7094 -0.2005 5.402e-21)
(1.044 -0.2661 2.743e-21)
(1.373 0.428 -3.326e-20)
(0.3199 1.429 4.988e-21)
(0.9487 -0.08845 1.129e-21)
(1.029 -0.04203 5.115e-20)
(1.532 -0.1963 2.748e-21)
(1.57 -0.1955 -1.114e-20)
(1.058 -0.08229 5.346e-20)
(0.7242 1.964 7.451e-21)
(-0.000244 -0.002281 -8.662e-22)
(1.16 -0.297 0)
(1.006 -3.589e-06 0)
(0.994 -2.137e-06 1.21e-21)
(0.08023 -0.003563 0)
(0.9971 0.03616 1.078e-21)
(1.023 0.006727 8.042e-20)
(0.9129 0.09307 1.203e-19)
(1.002 -0.05258 -3.703e-21)
(0.302 -0.08836 -5.042e-22)
(-0.0002366 -0.001351 -1.308e-23)
(0.9659 -0.0714 -1.158e-21)
(0.8919 -0.06267 2.05e-20)
(0.8645 -0.1401 -1.276e-21)
(0.9914 -0.08515 -2.871e-21)
(1 0.02313 9.214e-22)
(1.097 -0.1614 1.285e-20)
(0.2818 -0.07618 -4.161e-22)
(0.9763 0.0002701 3.541e-20)
(2.223 0.4896 -5.525e-21)
(0.7075 -0.2063 -3.436e-23)
(0.1669 -0.01163 0)
(-0.005589 0.002389 3.017e-22)
(0.8417 -0.1496 6.32e-21)
(1.234 -0.2992 -6.929e-21)
(0.8938 -0.06251 4.981e-21)
(1.969 0.717 -7.119e-21)
(1.005 0.009644 6.787e-20)
(0.8484 -0.1612 -1.01e-21)
(1.554 -0.1672 3.883e-21)
(0.7885 -0.0658 0)
(0.002035 -0.0002766 0)
(0.7515 -0.1953 -3.005e-21)
(1.391 -0.2108 1.145e-20)
(0.03161 -0.009799 -1.234e-22)
(1.08 -0.2952 5.289e-21)
(1.288 -0.2958 7.669e-21)
(0.9676 -0.04142 4.101e-20)
(0.9253 -0.1876 -8.296e-21)
(-0.0004892 -0.01113 0)
(1.286 -0.2956 0)
(0.9295 -0.07324 -1.415e-20)
(0.8442 -0.2369 1.503e-21)
(0.03764 -0.004814 -3.505e-22)
(1.023 0.006386 -7.366e-20)
(1.515 -0.2015 1.202e-20)
(1.566 -0.1944 8.004e-21)
(1.652 -0.1086 -9.802e-21)
(0.1958 -0.05381 6.796e-23)
(0.5999 -0.2028 -7.312e-24)
(1.517 -0.1581 0)
(-0.001167 -0.006122 3.61e-26)
(0.8341 -0.1596 5.783e-21)
(0.9451 -0.0134 0)
(-0.00873 0.003549 -1.979e-21)
(1.001 -0.0002577 -2.709e-21)
(1.833 0.4226 -5.163e-20)
(0.7507 -0.08087 -1.782e-21)
(0.7873 -0.1668 0)
(1.333 -0.2758 0)
(0.7824 -0.1855 4.015e-21)
(0.4541 -0.0934 0)
(1.052 -0.01223 -1.35e-19)
(2.193 0.609 0)
(0.754 -0.1658 0)
(1.034 0.4622 -1.218e-20)
(1.195 -0.2958 -6.846e-21)
(0.9528 -0.03229 -3.769e-20)
(1.218 -0.2006 7.456e-22)
(1.005 0.06124 1.645e-20)
(1.593 -0.1288 0)
(1.583 -0.1181 -3.247e-21)
(0.3666 -0.1121 2.829e-21)
(-0.153 0.2731 0)
(0.2892 0.1253 8.715e-20)
(1.534 -0.09786 -1.538e-20)
(0.8211 -0.1539 0)
(0.9964 -0.002991 -1.291e-20)
(0.8265 -0.2154 -3.19e-22)
(1.514 -0.2023 -1.116e-20)
(0.9541 -0.07284 -2.384e-21)
(1.531 -0.1954 -1.103e-20)
(1.339 -0.2902 0)
(0.8953 -0.1371 -5.313e-21)
(0.9951 -0.006554 -9.869e-22)
(0.6821 -0.1678 1.151e-20)
(0.999 -0.001173 3.41e-21)
(0.9626 -0.0705 -3.532e-22)
(0.927 -0.1003 8.714e-24)
(0.9907 0.01321 0)
(1.012 0.01785 4.037e-20)
(-0.000999 -0.002424 1.225e-22)
(0.9874 -0.2687 0)
(1.002 0.02514 -3.407e-21)
(0.9191 -0.1251 -2.81e-21)
(1.01 -0.03096 1.751e-20)
(1.394 -0.2008 -4.903e-20)
(0.8185 -0.1217 0)
(0.9287 -0.07331 1.436e-20)
(0.8403 -0.1442 0)
(0.9743 -0.009824 -3.283e-20)
(0.404 -0.08839 -1.722e-21)
(0.8954 -0.07456 -7.079e-22)
(-0.001343 -0.02323 1.085e-22)
(0.1956 -0.05397 -2.771e-22)
(1.531 -0.09625 1.037e-20)
(0.8703 -0.1001 6.125e-22)
(0.7381 -0.1343 -5.111e-21)
(0.576 -0.07314 -3.196e-20)
(0.8749 -0.1271 -1.232e-20)
(0.7629 -0.05766 0)
(0.1237 0.02617 -1.887e-23)
(0.8649 -0.1397 -4.229e-22)
(0.9756 0.0005346 0)
(1.125 -0.2635 3.324e-23)
(0.9368 -0.09562 2.74e-21)
(0.8911 -0.1304 5.285e-21)
(-0.0008402 -0.0148 1.86e-23)
(0.8 -0.1921 0)
(0.9988 -0.001224 2.39e-21)
(0.9863 0.0181 -3.298e-20)
(2.136 0.7582 2.953e-21)
(1.41 -0.2146 4.881e-21)
(0.859 -0.09339 -1.25e-21)
(1.244 -0.1628 3.583e-20)
(1.001 -0.02536 1.261e-21)
(0.8453 -0.08818 0)
(0.8926 -0.06769 9.448e-22)
(1.089 -0.02502 3.549e-20)
(0.7881 -0.1668 3.194e-21)
(2.139 0.7566 0)
(1.471 -0.1911 -1.148e-20)
(0.8478 0.06028 8.48e-20)
(0.01114 -0.01583 -2.333e-23)
(0.8901 -0.05242 -2.693e-22)
(1.956 0.8587 2.28e-20)
(1.037 -0.2751 0)
(1.012 0.01749 -3.504e-20)
(0.7813 0.04771 -1.775e-19)
(1.007 6.555e-06 0)
(0.9937 6.785e-06 0)
(0.6955 0.009348 0)
(0.447 -0.08672 -1.104e-20)
(0.8625 -0.1346 4.069e-21)
(1.037 -0.2749 -1.091e-21)
(0.9912 -0.2608 -1.329e-20)
(1.104 -0.07956 -4.428e-20)
(0.8423 -0.1495 0)
(1.536 -0.1772 3.339e-21)
(1.532 -0.1941 3.107e-21)
(-0.05956 0.7985 -7.204e-22)
(0.9202 -0.1251 1.868e-21)
(0.9369 -0.2177 -3.003e-21)
(1.402 -0.272 3.951e-21)
(0.8913 -0.1072 1.088e-21)
(1.68 -0.105 0)
(0.9015 -0.1043 -8.098e-22)
(1.005 -0.2192 2.402e-21)
(0.07172 -0.02109 1.739e-22)
(1.532 -0.1946 9.93e-21)
(0.945 0.1601 0)
(0.9424 -0.2241 -7.064e-21)
(1.331 -0.2765 -5.912e-21)
(1.97 0.5148 -1.277e-20)
(1.005 -0.01357 1.396e-20)
(0.8812 -0.05153 0)
(0.896 -0.2258 -4.681e-22)
(0.9547 -0.07494 -4.163e-22)
(1.013 -0.166 -8.14e-21)
(0.9513 -0.07331 0)
(0.9557 -0.08207 8.31e-22)
(1.004 0.003974 1.018e-21)
(0.9972 0.03527 -3.928e-21)
(0.9846 -0.01546 0)
(0.9701 -0.1788 2.585e-21)
(0.9933 -0.006437 0)
(0.122 0.4261 7.449e-20)
(1.088 -0.02743 -7.16e-20)
(0.8138 -0.09122 1.561e-21)
(0.9491 -0.07463 -9.252e-22)
(1.029 -0.04091 0)
(1.215 -0.1075 -7.236e-22)
(0.9241 -0.09033 -7.52e-22)
(0.003011 -0.009029 -3.784e-26)
(1.035 -0.2876 -5.882e-21)
(0.9974 -0.007235 7.792e-22)
(1.108 -0.2295 -4.685e-20)
(0.7067 -0.09269 -3.506e-21)
(0.905 -0.1123 0)
(0.7346 -0.1357 -1.91e-20)
(1.023 0.07335 0)
(0.4533 -0.03468 0)
(1.103 0.2671 0)
(0.6639 -0.04359 0)
(1.163 -0.2981 -1.974e-21)
(1.256 -0.249 -4.313e-20)
(1.017 -0.01521 -8.095e-20)
(0.5528 -0.01934 0)
(0.01355 -0.00366 -1.785e-22)
(0.766 -0.1887 4.326e-21)
(0.9468 -0.08651 -1.562e-21)
(0.8765 -0.06615 -6.947e-22)
(0.5578 -0.02535 -2.589e-20)
(0.8819 -0.06243 0)
(0.9397 0.1587 0)
(0.9525 -0.03111 0)
(0.7146 -0.05556 2.605e-22)
(1.004 0.009185 -2.539e-20)
(1.318 -0.2855 0)
(0.05738 -0.02516 0)
(1.114 0.2651 0)
(0.9235 -0.106 -2.433e-21)
(0.809 -0.229 -3.602e-21)
(0.9446 -0.08848 -3.353e-21)
(1 0.001523 -2.216e-20)
(0.9539 -0.09642 0)
(0.4117 -0.1252 0)
(0.8753 -0.1232 2.723e-21)
(0.8046 -0.1031 -5.438e-20)
(0.8648 -0.2309 0)
(0.5616 -0.1745 0)
(1.391 -0.2719 -4.187e-21)
(1.152 -0.3071 -5.863e-21)
(0.8002 -0.1521 0)
(1.466 -0.1658 9.139e-21)
(0.4979 -0.1806 -5.304e-21)
(0.2907 -0.0871 0)
(0.04517 -0.01496 -1.832e-21)
(0.6798 -0.1928 0)
(1.002 -0.0001929 1.006e-21)
(1.08 -0.2954 -5.413e-21)
(1.163 0.4774 2.424e-20)
(1.583 0.656 9.755e-22)
(0.7751 -0.07348 -3.279e-20)
(1.675 -0.1157 1.284e-20)
(0.8667 -0.06899 -1.738e-20)
(1.005 -0.0005257 0)
(0.6607 -0.1891 0)
(0.06353 -0.01832 0)
(1.081 -0.1781 7.602e-20)
(1.685 -0.02774 1.605e-21)
(1.004 0.00383 -3.057e-20)
(0.8915 -0.1265 -5.312e-21)
(1.061 -0.2368 -6.728e-21)
(0.9182 0.006648 -5.072e-20)
(0.9742 -0.008925 0)
(0.9921 0.001409 -1.005e-20)
(0.9572 -0.07997 -4.16e-22)
(1.054 -0.08598 -1.744e-20)
(0.4441 -0.09466 2.169e-20)
(0.9793 0.09701 0)
(0.8354 -0.06533 3.845e-23)
(0.9815 0.02037 8.098e-20)
(-0.0008628 0.07261 0)
(0.9865 -0.01558 1.342e-21)
(0.2819 -0.0757 -4.698e-22)
(1.213 -0.3082 0)
(0.9268 -0.1134 -4.972e-24)
(0.9237 -0.1053 7.023e-21)
(0.9987 -0.1744 1.613e-20)
(0.8972 0.2675 -2.176e-21)
(0.2806 -0.08133 -1.163e-22)
(0.863 -0.1032 5.838e-22)
(1.744 -0.09416 0)
(0.4067 -0.1152 0)
(1.45 -0.1597 7.773e-21)
(0.9474 -0.08457 -1.42e-21)
(1.616 -0.1324 6.81e-21)
(1.243 -0.268 0)
(0.3629 1.313 1.348e-20)
(1.617 -0.1337 -1.012e-23)
(0.9988 -0.002558 0)
(1.028 0.03902 0)
(1.412 -0.251 0)
(0.7521 -0.1955 3.325e-21)
(0.9943 -0.0003493 0)
(1.098 -0.3009 3.058e-21)
(1.256 -0.1901 2.404e-20)
(0.9335 -0.08063 1.64e-20)
(1.408 -0.2137 -1.683e-21)
(0.9035 -0.05509 2.667e-20)
(1.005 -0.0002916 0)
(-0.1759 0.3976 -2.058e-20)
(1.256 -0.1875 -2.835e-20)
(0.05087 -0.01613 -8.233e-24)
(1.526 -0.1703 7.981e-22)
(0.2257 -0.1185 1.582e-21)
(-0.01771 0.09594 -1.564e-20)
(1.467 -0.2105 2.286e-21)
(0.7985 -0.1919 0)
(0.4171 -0.1167 0)
(1.682 -0.02785 -1.722e-21)
(1.511 -0.1711 -7.002e-22)
(1.017 -0.00131 8.001e-20)
(0.845 -0.07239 5.356e-22)
(0.9676 0.05282 4.455e-20)
(2.1 0.7647 9.685e-22)
(0.9509 -0.09459 -1.12e-21)
(1.561 -0.1724 0)
(1.997 0.5494 6.78e-21)
(-0.0003791 -0.002269 0)
(0.7404 -0.2138 3.332e-21)
(0.1838 1.057 -8.697e-22)
(0.9418 -0.06633 3.343e-23)
(1.672 1.205 2.973e-20)
(0.9806 0.00464 -1.655e-19)
(0.2303 -0.1206 0)
(1.029 0.03855 1.429e-22)
(0.1437 -0.04128 0)
(1.16 -0.2955 -8.567e-21)
(-0.0002259 -0.001311 0)
(-0.004166 -0.009403 -6.463e-22)
(-0.002877 0.0007291 2.475e-22)
(0.9989 -0.0001935 -6.89e-20)
(0.9569 -0.2293 0)
(1.828 0.06855 0)
(0.987 0.01793 6.126e-20)
(0.9836 -0.2491 1.228e-21)
(0.5599 -0.1793 1.977e-20)
(0.5694 -0.1669 2.821e-21)
(0.8992 -0.1189 0)
(1.214 -0.3087 0)
(0.9225 -0.1127 9.415e-22)
(1.099 -0.3012 -3.065e-21)
(0.5643 -0.1067 1.155e-21)
(0.9998 -0.002392 0)
(0.1855 -0.05571 5.376e-22)
(-0.01184 0.004226 0)
(0.4839 -0.1805 3.596e-21)
(0.8735 -0.08483 -2.634e-22)
(0.001319 -0.0003652 -1.058e-22)
(1.016 -0.01717 -2.495e-20)
(0.9344 -0.09581 2.699e-21)
(1.003 -0.05225 -1.615e-21)
(1.242 -0.2667 1.469e-20)
(0.9934 -0.01557 0)
(0.8129 -0.0652 0)
(2.34 1.043 0)
(0.02231 -0.006859 2.111e-22)
(0.9924 6.395e-05 0)
(1.411 -0.2515 -4.698e-21)
(0.9165 -0.08149 1.435e-20)
(-0.003433 -0.0004106 -1.642e-26)
(0.3743 -0.1044 9.277e-21)
(2.269 0.6121 1.621e-21)
(1.184 -0.2677 -4.08e-21)
(0.9564 0.04605 3.549e-21)
(0.1067 -0.03317 -1.09e-22)
(0.5342 -0.1563 -1.143e-20)
(0.9942 -0.0003494 8.923e-21)
(0.7365 -0.1359 2.542e-20)
(1.452 -0.1686 -4.427e-20)
(0.9128 -0.07824 5.593e-22)
(0.9541 -0.07314 -4.501e-22)
(0.7108 -0.1837 -3.515e-21)
(0.1857 -0.05974 4.292e-22)
(1.163 -0.2972 4.415e-21)
(1.598 -0.07428 0)
(0.5161 -0.182 5.057e-21)
(0.478 -0.1396 0)
(0.6851 -0.1946 8.727e-23)
(1.027 -0.01213 -1.216e-20)
(0.6891 -0.0446 -6.756e-23)
(1.027 -0.2813 -3.017e-21)
(0.8747 -0.1291 -2.866e-21)
(0.9353 -0.0979 3.921e-21)
(0.2912 -0.07976 -1.795e-22)
(1 0.002955 0)
(1 0.003932 1.834e-21)
(1.038 0.4423 2.027e-20)
(0.9164 -0.2154 -1.51e-21)
(1.657 1.278 0)
(0.9856 0.02111 -4.234e-20)
(1.004 7.415e-06 -8.211e-22)
(0.5517 -0.1497 0)
(0.4258 -0.1717 0)
(0.7692 -0.2162 1.008e-21)
(0.4149 -0.1167 0)
(0.09436 -0.03024 9.902e-22)
(0.153 -0.0475 0)
(0.7989 -0.1527 -4.431e-21)
(1.042 0.0448 0)
(0.9973 -0.0009896 1.508e-20)
(0.03114 -0.009989 -1.06e-22)
(1.122 -0.3061 -3.033e-21)
(0.7893 -0.1698 9.049e-21)
(1.001 -0.002686 2.702e-20)
(0.9962 -0.00335 4.072e-21)
(0.941 -0.09235 0)
(0.9185 -0.2428 4.652e-21)
(0.9979 -0.006896 2.919e-21)
(0.7942 -0.1002 -1.681e-22)
(0.985 0.02082 7.889e-20)
(0.8403 -0.2389 -7.652e-22)
(0.06852 -0.03291 0)
(1.22 -0.2559 5.879e-22)
(0.9964 2.335e-05 6.488e-22)
(0.2401 -0.07452 -2.206e-21)
(1.196 -0.2954 -1.753e-21)
(0.274 -0.1436 -2.064e-20)
(1.005 -0.0002634 -3.449e-21)
(0.8865 -0.1324 -5.054e-21)
(-0.005338 0.002401 -1.333e-22)
(0.9921 0.001145 0)
(0.9233 -0.106 0)
(0.995 0.02682 -4.956e-22)
(0.9638 -0.07453 -7.858e-22)
(1.492 -0.1844 0)
(0.9906 0.01272 4.097e-20)
(0.7757 -0.1887 8.058e-21)
(0.9229 -0.1234 -1.207e-21)
(-0.003149 -0.01784 0)
(1.5 -0.2295 -1.219e-20)
(1.473 -0.2053 -1.363e-21)
(0.9086 -0.1062 2.444e-21)
(0.9086 -0.1131 9.556e-22)
(-0.1704 0.5765 -1.005e-20)
(0.9581 -0.0887 4.589e-22)
(2.089 1.151 3.278e-21)
(0.9569 -0.06277 3.688e-22)
(0.07176 -0.02034 1.48e-22)
(1.59 -0.1436 -2.327e-21)
(0.8236 -0.0749 -2.566e-22)
(1.001 -0.002617 0)
(0.8391 -0.1764 -2.472e-21)
(0.9888 0.01553 -1.736e-20)
(-0.03559 0.8151 -4.99e-21)
(1.067 0.005402 7.915e-20)
(1.475 -0.2076 1.285e-20)
(1.005 -0.0006263 0)
(1.001 0.02503 -2.722e-21)
(0.9431 -0.07854 -1.186e-20)
(0.4965 -0.1798 2.655e-21)
(1.292 -0.3001 4.849e-21)
(1.003 -0.001346 2.213e-20)
(1 -0.003377 -3.384e-20)
(0.03452 -0.01053 1.152e-22)
(1.754 0.2249 0)
(0.8426 -0.1947 3.664e-21)
(0.8585 -0.07499 7.2e-22)
(0.8961 -0.2112 0)
(0.4442 -0.09335 -1.731e-20)
(1.207 -0.3084 -7.714e-22)
(0.4108 -0.1265 0)
(1.531 -0.1937 -2.685e-22)
(0.5666 -0.1626 -1.207e-20)
(1.419 -0.1034 0)
(1.002 -0.001424 -3.862e-21)
(1.75 -0.07604 1.099e-20)
(1.521 -0.1971 1.197e-21)
(0.8746 -0.1209 3.4e-21)
(1.402 -0.1664 0)
(0.978 -0.02199 -1.11e-19)
(1.004 2.27e-06 9.146e-23)
(1.471 -0.1899 -1.103e-20)
(0.1904 -0.09549 -5.607e-24)
(1.51 -0.1714 3.502e-21)
(-0.01346 0.005477 -8.807e-22)
(1.067 0.007165 0)
(1.003 3.583e-05 4.042e-22)
(0.6269 -0.1856 0)
(1.658 -0.1499 0)
(0.917 0.09085 -9.609e-20)
(1.311 -0.1608 -4.051e-21)
(0.8817 -0.09831 0)
(0.9821 -0.04617 -4.495e-20)
(0.4286 -0.1285 3.344e-21)
(0.7765 -0.1625 -2.773e-21)
(1.521 -0.1965 7.377e-21)
(0.6701 -0.02346 -9.666e-20)
(-0.001139 0.0003486 0)
(0.003259 -0.0005945 0)
(0.4203 -0.118 -1.628e-22)
(0.2775 -0.08202 1.977e-22)
(0.9943 -0.2695 0)
(1.527 -0.2231 6.777e-21)
(0.8318 -0.1061 3.888e-22)
(1.392 -0.2124 0)
(0.9196 0.02171 -2.35e-20)
(1.61 -0.1506 1.288e-20)
(0.01231 -0.01376 0)
(1.317 -0.2852 -7.31e-21)
(0.9993 -0.002515 7.829e-20)
(0.8929 -0.1367 3.883e-21)
(0.653 -0.1091 0)
(0.4131 0.4143 -3.47e-20)
(0.9924 3.182e-05 -4.783e-23)
(0.9994 -0.002588 -1.044e-19)
(-0.00265 -0.01312 0)
(0.9421 -0.06626 4.241e-21)
(0.8742 -0.1596 -3.743e-21)
(1.553 -0.2064 -7.945e-22)
(0.195 -0.05054 0)
(1.127 -0.2639 1.669e-20)
(1.557 0.008805 0)
(0.8162 -0.06794 -3.076e-22)
(0.5837 0.2911 6.826e-20)
(0.7447 -0.1908 0)
(1.016 -0.001448 -2.865e-20)
(1.003 -0.00152 0)
(1.867 0.4735 0)
(1.177 0.4743 0)
(1.028 -0.1897 5.933e-22)
(0.4154 0.3877 0)
(0.4801 -0.1922 8.08e-21)
(0.9578 -0.2301 0)
(0.4748 -0.1801 -9.547e-21)
(1.097 -0.1582 8.386e-20)
(1.016 -0.1652 1.193e-20)
(0.9972 4.529e-05 -3.774e-23)
(0.8258 -0.06137 1.766e-22)
(0.9052 -0.05571 3.723e-21)
(0.8078 -0.182 -2.504e-21)
(-0.0005898 -0.002687 -1.191e-22)
(0.8886 -0.1297 -1.648e-21)
(1.593 -0.1271 -1.457e-20)
(1.044 -0.2898 6.579e-21)
(0.9966 3.744e-05 -6.243e-22)
(0.9353 -0.0985 -6.91e-23)
(0.9533 -0.08502 1.006e-21)
(0.008706 -0.003129 0)
(0.9775 -0.1766 -6.662e-22)
(1.278 -0.2718 1.167e-20)
(1.53 -0.1939 -4.025e-21)
(2.116 1.735 0)
(1.149 -0.3065 5.823e-21)
(0.2469 -0.09875 2.114e-20)
(0.9898 -0.2296 -5.522e-22)
(0.7751 -0.183 1.116e-21)
(0.9363 -0.09861 -1.858e-21)
(0.9366 -0.09563 -1.307e-21)
(1.089 -0.2891 6.983e-21)
(0.8456 -0.122 1.511e-20)
(0.02291 -0.001038 0)
(0.6491 -0.1093 0)
(0.966 0.1312 1.462e-20)
(0.7966 -0.17 -2.552e-21)
(0.4366 -0.1539 1.61e-20)
(0.9468 -0.09743 4.007e-22)
(1.008 -0.003257 0)
(0.03017 -0.01839 1.034e-22)
(1.007 -0.2192 -5.011e-21)
(0.7759 -0.2174 -9.5e-22)
(1.003 1.813e-05 -3.359e-22)
(-0.0138 0.004917 0)
(0.7044 -0.2021 0)
(0.8015 -0.1009 -2.347e-21)
(0.9978 3.135e-05 2.037e-22)
(1.358 -0.2112 5.975e-21)
(0.09369 -0.02745 0)
(1.268 -0.2355 6.822e-21)
(1.616 -0.1697 -6.706e-21)
(0.9975 2.028e-05 -1.743e-22)
(0.9455 -0.2615 -2.195e-21)
(0.002275 -0.003169 0)
(0.6313 -0.1701 5.729e-21)
(1.343 -0.2741 0)
(0.9964 0.03912 -7.638e-22)
(1.536 -0.1767 3.342e-21)
(-0.3067 0.9037 0)
(1.03 -0.005143 -2.625e-20)
(0.8533 -0.1454 4.746e-21)
(0.8146 -0.1426 0)
(1.53 -0.2224 -8.031e-21)
(0.7418 -0.2127 0)
(0.7394 -0.1326 -1.538e-20)
(0.8885 -0.1299 0)
(0.7285 -0.09188 -4.262e-22)
(0.3941 -0.1175 0)
(0.9932 1.121e-05 -5.095e-22)
(0.9386 -0.2591 2.137e-21)
(1.008 -0.2533 4.027e-22)
(0.6892 -0.05356 0)
(0.8924 -0.1277 -2.062e-21)
(1.42 -0.06149 0)
(0.9851 -0.2491 0)
(0.1935 -0.0605 1.064e-22)
(0.9928 4.75e-05 -1.591e-22)
(0.5907 -0.1726 -2.876e-21)
(0.4295 -0.1256 0)
(1.52 -0.175 0)
(-0.0001499 -0.01192 9.368e-23)
(1.52 -0.1742 -3.864e-21)
(0.02288 -0.007171 -3.124e-22)
(1.387 -0.2684 -1.667e-21)
(0.1982 -0.0535 0)
(0.7884 -0.1563 0)
(0.999 -0.0002209 3.397e-20)
(-0.001473 0.0005525 9.429e-23)
(0.9376 -0.2617 5.726e-21)
(1.497 -0.2289 1.048e-20)
(0.02659 -0.008692 -4.871e-23)
(0.5518 -0.1518 -2.068e-21)
(0.1621 -0.05021 9.067e-22)
(0.4704 -0.1384 -9.332e-22)
(0.9359 -0.07799 0)
(0.9971 -0.0009159 0)
(0.9922 -0.2044 0)
(0.9212 -0.1052 -1.041e-23)
(0.9975 2.059e-05 0)
(0.4934 -0.1455 -3.721e-21)
(2.097 0.7612 0)
(0.891 -0.1302 -3.655e-21)
(0.5815 -0.1789 -6.23e-21)
(1.007 -0.0001543 -1.431e-20)
(1.206 -0.3076 0)
(0.05926 -0.01833 0)
(1.017 -0.001115 -9.32e-20)
(1.006 -0.0001718 0)
(1.398 -0.1686 0)
(1.037 -0.2662 3.853e-21)
(0.8973 -0.2118 2.905e-22)
(0.1395 -0.04343 3.065e-22)
(0.8341 -0.2339 1.585e-21)
(0.3016 -0.01893 -1.248e-23)
(0.9134 -0.1114 0)
(0.4948 0.07359 -6.529e-20)
(0.9996 -0.00264 0)
(0.8966 -0.254 -2.275e-21)
(0.2802 -0.08335 0)
(0.8796 -0.06536 4.094e-22)
(0.7895 -0.0637 0)
(0.437 -0.0145 -4.789e-20)
(1.002 -0.0008385 0)
(1.016 -0.01661 2.828e-21)
(0.9806 -0.04692 2.521e-20)
(1.033 0.01385 4.985e-21)
(0.9996 -0.002499 1.373e-20)
(1.082 -0.1476 -2.959e-20)
(0.1136 -0.05077 5.497e-21)
(0.9181 -0.1121 -4.456e-21)
(0.7576 -0.1044 2.606e-21)
(0.9994 -0.003088 0)
(0.1467 -0.04301 5.327e-22)
(0.9239 -0.1081 2.364e-21)
(1.005 0.01185 0)
(0.8974 -0.1079 -1.07e-21)
(0.9952 -0.0004189 0)
(0.2963 -0.1051 2.561e-20)
(-0.489 0.8036 -5.146e-22)
(1.542 -0.2073 -1.222e-22)
(1.552 -0.137 0)
(0.6052 -0.03986 -1.095e-22)
(0.9724 -0.01819 5.546e-21)
(0.6711 -0.1755 0)
(0.6554 -0.03099 -2.263e-20)
(0.8175 -0.06811 0)
(0.006464 -0.01241 1.079e-22)
(0.84 -0.1108 -6.044e-22)
(1.601 2.212 -7.121e-21)
(1.424 -0.05644 -1.763e-20)
(0.8454 -0.1319 -7.518e-21)
(0.5063 -0.1031 2.591e-23)
(0.377 -0.0718 0)
(1.004 0.01529 0)
(1.325 -0.2226 2.489e-20)
(0.6454 -0.2013 0)
(2.094 0.393 5.633e-22)
(0.01211 -0.0134 -4.136e-23)
(0.6223 -0.101 0)
(1.002 -0.0007908 0)
(1.024 -0.104 1.308e-20)
(0.03084 -0.00945 5.204e-23)
(0.6895 -0.1591 -7.012e-21)
(0.6152 -0.03045 2.306e-20)
(1.906 0.1661 0)
(-0.2393 0.2772 -1.415e-21)
(1.998 0.2442 -2.062e-21)
(0.6134 0.06991 9.175e-21)
(1.182 -0.2795 -2.699e-21)
(0.03214 -0.01076 -4.706e-23)
(0.9937 -0.2042 1.627e-21)
(0.5207 -0.04112 -3.939e-22)
(1.039 0.05958 -1.583e-20)
(0.8993 -0.1271 0)
(1.004 3.7e-05 0)
(0.9963 3.01e-05 0)
(1.466 -0.2194 5.98e-21)
(1.092 0.02541 4.039e-21)
(1.552 -0.1932 1.062e-20)
(0.9373 -0.1504 7.045e-21)
(0.2565 1.368 0)
(0.9368 -0.08827 9.723e-21)
(1.041 -0.05724 -2.332e-20)
(2.164 0.8068 8.218e-21)
(0.7906 -0.172 4.479e-21)
(1.016 -0.01496 5.676e-20)
(1.027 -0.2091 -1.799e-22)
(0.4288 -0.1241 -3.862e-22)
(1.041 -0.05514 3.402e-20)
(0.8085 -0.1859 -8.836e-21)
(0.007133 -0.002014 -2.303e-21)
(0.05154 -0.03754 0)
(0.8256 -0.155 0)
(-0.379 0.6268 -3.075e-21)
(1.324 -0.2572 0)
(0.1135 -0.03597 0)
(0.9851 0.00563 5.551e-20)
(1.561 -0.1709 5.911e-21)
(0.8065 -0.182 2.521e-21)
(1.005 -0.01323 0)
(0.7837 -0.1925 4.143e-21)
(1.004 -0.274 0)
(1.055 -0.2676 -2.669e-21)
(0.9944 -0.0003206 4.496e-21)
(0.9791 -0.02384 2.925e-21)
(1.053 -0.2133 0)
(0.2239 -0.01848 -5.309e-23)
(0.5992 -0.1582 -1.446e-20)
(0.008574 -0.0006267 0)
(1.129 -0.305 3.648e-21)
(0.4195 -0.1365 0)
(0.8026 -0.1683 -9.049e-22)
(-0.009027 0.003239 0)
(1.703 -0.1176 2.017e-21)
(0.9959 2.553e-05 7.281e-23)
(0.169 -0.08825 0)
(1.644 0.3645 -3.289e-20)
(1.005 3.39e-05 0)
(0.481 -0.1186 4.509e-22)
(-0.007407 0.002329 -7.757e-22)
(1.175 -0.2451 -7.53e-21)
(1.971 0.1236 -6.824e-21)
(0.9528 -0.06634 -2.296e-21)
(0.8841 -0.1251 -1.783e-21)
(-0.01287 0.004533 -8.082e-25)
(0.2792 -0.02722 6.723e-23)
(0.9459 -0.09782 0)
(1.04 0.04522 -4.098e-20)
(0.9959 0.01046 6.475e-21)
(0.8404 -0.1495 0)
(0.3691 -0.08604 -4.91e-21)
(0.3719 -0.1103 -3.37e-21)
(0.853 -0.1958 0)
(0.4503 1.706 1.79e-20)
(0.4685 -0.192 -4.283e-21)
(0.7321 -0.01808 -2.636e-22)
(1.337 0.009415 -4.188e-20)
(0.4733 -0.1923 -4.248e-21)
(1.112 -0.089 5.024e-20)
(1.085 -0.06918 0)
(1.008 -0.001888 0)
(0.776 -0.2102 1.479e-22)
(-0.003703 -0.01667 6.356e-24)
(1.385 -0.2546 -1.449e-20)
(0.7968 -0.2186 0)
(1.114 -0.3046 0)
(0.9913 0.009422 -3.176e-20)
(0.9674 0.02381 2.553e-20)
(0.03777 -0.01239 0)
(0.774 -0.1098 3.557e-20)
(0.09594 -0.02864 0)
(0.9303 -0.1204 0)
(0.0781 -0.02544 -1.79e-22)
(0.7794 -0.1976 -2.003e-22)
(1.506 -0.1663 -3.161e-21)
(1.796 0.00919 -1.851e-21)
(1.678 -0.1367 -1.107e-20)
(0.3695 -0.05559 1.438e-21)
(1.524 -0.1887 -8.412e-21)
(0.8527 -0.06443 -3.394e-22)
(0.4637 -0.133 4.047e-21)
(0.9211 -0.1073 5.496e-21)
(0.9517 -0.2449 1.788e-21)
(0.7512 1.952 -8.531e-21)
(0.1859 -0.05796 -2.868e-23)
(-0.002975 -0.01494 -3.607e-23)
(-0.01308 0.004556 0)
(1.105 -0.3031 0)
(1.007 -0.003122 0)
(1.005 -0.005577 4.68e-20)
(0.9992 -0.2735 2.058e-21)
(0.3228 -0.08944 0)
(0.873 -0.1237 -2.189e-20)
(1.006 3.212e-05 0)
(0.365 -0.1101 -1.68e-20)
(1.207 -0.3083 3.87e-21)
(0.9452 -0.07604 8.759e-21)
(0.1251 -0.03845 0)
(1.476 -0.1823 -1.97e-20)
(0.4247 -0.1274 -4.491e-21)
(1.753 0.929 -4.106e-20)
(0.9999 0.001506 -2.122e-20)
(0.8512 -0.1209 0)
(0.9458 -0.06643 4.944e-21)
(0.5054 -0.1963 0)
(0.7615 -0.05826 0)
(0.07543 -0.02167 -6.809e-23)
(0.4976 -0.00668 3.66e-20)
(1.3 -0.2277 4.793e-20)
(1.051 -0.1868 0)
(0.9441 -0.08615 3.065e-22)
(0.9511 -0.07843 0)
(0.9807 -0.2358 0)
(0.3744 -0.1254 1.838e-20)
(0.9375 -0.1065 -1.777e-21)
(0.2698 -0.08128 0)
(0.4382 -0.1866 -5.621e-21)
(1.009 -0.0178 -2.115e-21)
(0.121 -0.04674 0)
(-0.01061 0.003603 0)
(1.008 -0.2526 0)
(1.505 -0.223 1.423e-20)
(-0.3969 0.6908 -3.182e-21)
(1.013 0.02587 -6.123e-21)
(0.2333 -0.05742 4.035e-21)
(0.3609 -0.0702 0)
(0.997 -0.0003737 0)
(0.9967 -0.0001031 -3.054e-20)
(1.566 -0.1731 1.616e-24)
(1.289 -0.2989 1.438e-20)
(-0.01012 0.00368 7.878e-22)
(0.006296 -0.01733 -4.424e-23)
(0.899 -0.1268 8.29e-22)
(0.5412 -0.1909 0)
(0.2332 -0.0726 -2.603e-21)
(0.8603 -0.1202 0)
(0.9066 -0.1053 0)
(0.9698 -0.02358 -6.121e-20)
(0.2397 -0.07561 -4.485e-21)
(0.3713 -0.1016 0)
(0.2881 -0.08885 -2.471e-21)
(0.8197 -0.1493 0)
(-0.005673 0.001278 -1.164e-22)
(0.5424 -0.1557 -2.596e-21)
(0.9988 -0.001947 -1.759e-21)
(0.3778 -0.05202 0)
(0.07751 -0.02339 2.059e-22)
(0.9974 -0.0008293 -1.145e-19)
(1.481 -0.2134 -3.686e-21)
(0.9974 -0.0004045 -1.228e-20)
(0.9851 0.001212 5.181e-20)
(0.9088 -0.117 -2.103e-21)
(0.8526 -0.09422 0)
(0.5292 -0.05247 -2.857e-20)
(0.9953 -0.00232 1.166e-20)
(0.8958 -0.1068 1.235e-22)
(1.007 0.00709 0)
(2.116 0.8091 0)
(0.8673 -0.0866 -2.856e-20)
(1.011 -0.1957 1.278e-21)
(0.928 -0.1007 3.366e-21)
(0.8639 -0.1673 5.813e-22)
(0.918 -0.1323 0)
(0.3923 -0.1156 8.987e-21)
(0.933 -0.1001 -4.239e-21)
(0.9999 -0.006032 1.18e-20)
(0.9641 -0.04542 -7.303e-20)
(1.392 -0.2508 7.302e-21)
(0.8545 -0.1551 -1.701e-21)
(0.1462 -0.04538 -9.027e-23)
(0.3137 -0.09573 0)
(0.5898 -0.04471 3.434e-25)
(0.2536 -0.07875 -1.75e-21)
(0.1013 -0.02998 -1.678e-20)
(1.503 -0.2307 1.294e-20)
(0.722 -0.1948 0)
(1.908 0.04053 -1.495e-20)
(0.9329 -0.09722 1.957e-22)
(0.7424 -0.09008 0)
(1.119 0.7647 -1.483e-20)
(1.004 -0.2077 0)
(1.003 -0.01382 1.024e-20)
(1.113 -0.2186 1.133e-20)
(0.02636 -0.01176 -1.241e-22)
(0.8183 -0.1375 0)
(0.9986 2.273e-05 8.244e-23)
(0.02418 0.03301 8.134e-20)
(1.173 -0.3022 0)
(0.948 -0.08934 -2.001e-22)
(0.7168 -0.1854 1.683e-21)
(1.538 -0.1935 -1.017e-21)
(0.916 -0.1041 5.61e-21)
(0.7791 -0.1695 0)
(1.178 -0.2863 7.823e-21)
(0.9477 -0.0894 -5.999e-22)
(0.04295 -0.01272 6.312e-24)
(0.7466 -0.1991 -6.046e-21)
(0.005993 -0.01264 -1.145e-22)
(0.9974 -0.0009077 0)
(0.9528 -0.07417 1.619e-21)
(1.167 -0.2175 0)
(0.9715 -0.01491 0)
(1.217 -0.2519 0)
(1.423 -0.1488 1.419e-21)
(0.9963 -6.187e-06 4.938e-21)
(0.8047 -0.1515 1.075e-20)
(0.0175 -0.006343 0)
(0.9451 -0.04412 0)
(1.153 0.7523 5.519e-20)
(1.334 -0.2491 0)
(0.02123 -0.02512 0)
(0.8823 -0.1041 2.286e-20)
(1.007 4.976e-05 -3.033e-22)
(1.08 -0.2503 -1.299e-22)
(0.6702 -0.1888 -2.501e-22)
(1.017 -0.008087 5.078e-20)
(1.211 0.6364 -4.541e-20)
(1.143 0.07411 2.126e-20)
(1.198 -0.309 5.766e-21)
(0.8378 -0.2147 -4.686e-21)
(0.865 -0.1382 4.924e-21)
(1.044 -0.05317 0)
(8.094e-05 -0.001066 5.246e-23)
(-0.01569 0.005607 -1.355e-21)
(0.8432 -0.1766 -2.755e-22)
(0.9035 -0.1401 2.394e-21)
(1.076 -0.2921 -2.083e-21)
(0.5208 -0.04308 0)
(0.9984 4.813e-07 -4.98e-23)
(0.9505 -0.09715 -1.447e-21)
(1.01 0.00896 1.117e-21)
(0.9516 -0.2678 0)
(0.2904 -0.05445 -1.59e-20)
(1.42 -0.2483 0)
(0.7179 -0.1855 1.514e-20)
(0.00193 -0.008138 5.252e-23)
(0.6657 -0.1107 0)
(0.9994 0.006268 -5.557e-21)
(-0.01242 0.004216 0)
(0.2792 -0.08652 0)
(0.4366 -0.1224 3.056e-21)
(0.9496 -0.08312 -1.88e-21)
(2.176 0.6055 0)
(1.151 -0.2894 -6.04e-21)
(0.9826 -0.1795 4.029e-23)
(0.7534 -0.0583 0)
(0.9058 -0.121 0)
(0.8542 0.1413 -9.98e-20)
(0.1449 -0.008347 -3.989e-22)
(0.2369 -0.06796 9.2e-23)
(0.9321 -0.07083 0)
(0.8268 -0.1717 -3.362e-21)
(0.9029 -0.1321 0)
(0.1024 0.007235 -7.759e-20)
(0.005887 -0.0247 -1.111e-21)
(0.04361 -0.01481 3.252e-23)
(0.8714 -0.1409 1.003e-21)
(0.4753 -0.1434 0)
(1.557 -0.1348 0)
(0.923 -0.111 -1.467e-21)
(0.9398 -0.09517 6.685e-22)
(1.169 -0.2476 0)
(0.01834 -0.005286 0)
(0.936 -0.0715 -6.73e-21)
(0.8126 -0.1659 -5.068e-21)
(0.9169 -0.08077 0)
(0.8826 -0.1482 1.605e-21)
(0.9933 4.809e-05 0)
(1.004 -0.0013 1.67e-19)
(1.441 -0.2029 -1.638e-20)
(0.4693 -0.03225 -1.253e-22)
(0.8049 -0.2233 1.406e-21)
(1.003 -0.03011 7.633e-21)
(0.2943 -0.06007 -4.936e-21)
(0.06986 -0.02275 1.665e-22)
(0.9948 0.01239 -1.963e-20)
(1.895 0.277 0)
(0.9108 -0.1195 4.784e-22)
(1.517 -0.1574 0)
(-0.002489 -0.01199 0)
(0.7026 -0.1615 -1.279e-20)
(0.1966 -0.05792 1.087e-22)
(-0.002256 0.0006904 0)
(1.029 -0.2096 -1.371e-22)
(0.05292 -0.01871 1.488e-21)
(1.057 -0.2857 4.256e-21)
(0.9194 -0.1118 0)
(0.9504 -0.1 7.372e-21)