/*--------------------------------*- C++ -*----------------------------------*\
  =========                 |
  \\      /  F ield         | OpenFOAM: The Open Source CFD Toolbox
   \\    /   O peration     | Website:  https://openfoam.org
    \\  /    A nd           | Version:  8
     \\/     M anipulation  |
\*---------------------------------------------------------------------------*/
FoamFile
{
    version     2.0;
    format      ascii;
    class       volScalarField;
    location    "25";
    object      k;
}
// * * * * * * * * * * * * * * * * * * * * * * * * * * * * * * * * * * * * * //

dimensions      [0 2 -2 0 0 0 0];

internalField   nonuniform List<scalar> 
127143
(
3.104e-13
7.334e-13
1.283e-11
6.604e-11
3.017e-11
6.998e-11
1.167e-09
1.94e-10
9.746e-11
1.401e-09
2.112e-09
2.989e-10
9.766e-11
1.147e-10
0.0001811
5.956e-09
4.912e-11
0.06382
0.03406
5.211e-08
0.01424
1.976e-06
0.0001543
3.7e-05
1.781e-06
1.869e-06
2.075e-06
2.555e-06
1.368e-06
0.05051
3.096e-05
1.965e-06
3.068e-07
7.294e-05
0.0001513
2.905e-07
0.008617
0.06629
4.947e-05
2.311e-06
0.03422
0.0001537
0.0001532
7.332e-10
0.06242
8.227e-05
1.238e-06
0.01482
2.53e-05
5.289e-05
1.383e-08
0.0001497
0.02164
0.0001549
0.0001396
1.638e-05
0.0001395
0.0001682
0.0001475
0.0001548
0.0001534
0.02222
5.727e-05
0.0001482
0.000418
0.0001583
0.0001515
5.946e-05
5.931e-05
0.0002045
3.674e-05
4.198e-06
0.03041
0.0001475
0.0001459
5.131e-06
0.0001478
0.006535
1.624e-05
0.000149
1.223e-06
5.423e-08
0.0004708
4.762e-06
0.02464
0.007958
4.896e-05
1.065e-06
0.0001574
0.0001285
0.0001468
0.001379
0.0001902
0.01443
0.007447
0.0001726
0.0001536
1.459e-05
0.009192
0.0001515
0.0001489
2.652e-05
4.84e-05
0.000149
0.008342
0.008864
4.411e-05
0.0002053
0.0001631
0.0001424
0.000206
8.92e-07
0.01144
0.0001617
0.0001456
0.0001698
0.0001479
0.0001459
0.0001477
1.334e-07
0.0001425
0.000573
0.0001538
0.0001621
1.41e-06
6.596e-07
0.01646
0.0001491
0.009352
1.445e-05
0.004684
0.005678
5.617e-05
0.006719
1.602e-09
0.004919
0.0001559
0.0192
3.869e-06
0.0001538
0.0001548
0.0001471
0.03317
0.03464
0.02237
0.0001983
5.891e-06
0.0001483
0.005288
2.661e-05
0.0001206
3.092e-05
0.05742
0.0001522
0.0002337
0.02475
0.0001682
1.466e-05
0.01508
8.101e-06
4.954e-05
8.537e-09
0.0001469
0.004688
2.948e-06
0.0006086
0.006031
0.000156
1.65e-05
0.0001492
0.001846
0.0343
0.0001691
0.0001588
0.0005754
0.01898
0.0001935
0.009455
3.938e-05
0.0001563
0.0001592
0.0001545
0.01886
0.0191
1.5e-05
0.02285
0.0001518
0.000162
4.107e-05
0.0001553
0.01544
0.00831
0.0001555
0.000227
8.341e-10
0.01942
0.0001292
0.0001284
5.281e-09
0.0001459
0.0001454
0.0001494
0.002168
0.009308
5.141e-10
7.084e-05
0.0001534
0.0001234
0.03886
0.0001456
0.0001675
0.02352
0.0001449
1.854e-05
0.002745
2.248e-09
0.0002364
0.0001289
0.007816
0.0001534
0.000186
0.0001462
3.076e-05
0.02527
7.891e-06
0.001281
6.243e-06
0.06552
0.003659
0.01228
0.01381
0.0001544
0.03104
1.539e-06
0.01394
0.0001574
0.004687
8.369e-12
0.0001454
0.0195
0.008797
0.0008643
0.01906
1.461e-05
0.05808
1.579e-07
4.11e-05
2.463e-06
9.559e-08
0.0002487
0.0001648
2.222e-06
0.0001316
0.02179
2.367e-05
0.0001644
0.000149
3.569e-05
0.0001734
0.0001511
0.02104
0.0001514
0.0007099
0.000147
0.03545
0.0006304
0.0008679
0.000232
0.0001556
0.002656
4.727e-06
0.0005685
0.01797
0.01909
5.454e-05
0.01608
0.01165
3.14e-05
0.001057
0.0001775
0.0002117
0.000192
0.0001494
0.0001456
0.0001455
7.434e-10
0.005213
0.0001456
3.102e-05
0.0001568
0.05539
0.0001578
0.0001573
0.0001686
0.0001454
0.0001727
2.761e-05
0.01001
0.019
0.002043
9.689e-06
0.0001592
0.0001552
0.0001699
6.266e-06
0.0002101
0.0001236
0.000145
0.04722
8.443e-05
4.147e-05
0.003734
1.185e-05
0.0001884
0.0001455
0.0001295
0.06243
1.018e-05
0.0001594
0.004779
0.0001541
3.88e-05
0.0001517
0.0001312
0.0001236
0.0558
0.0001505
0.01127
4.319e-05
0.0001831
0.01704
0.0001455
0.0001513
0.0001293
0.0001284
0.0001521
0.0001632
0.0001691
0.01705
0.004561
0.0001539
0.0001286
0.02664
0.01688
0.000168
3.093e-05
0.001545
0.01069
1.046e-05
0.006358
1.425e-05
0.03783
0.01782
0.01635
0.0001497
0.001802
0.02136
0.0001935
0.000149
4.232e-05
0.02088
5.492e-05
0.04712
6.081e-05
5.235e-05
0.0001468
0.0001459
0.003225
0.000733
0.001074
0.0001554
0.0001517
4.263e-06
5.568e-05
0.0001546
0.000154
2.536e-05
6.01e-06
0.00991
0.001093
0.05812
8.778e-07
1.538e-05
0.000159
0.0001478
1.244e-07
0.0001506
2.87e-06
0.0187
0.06828
0.0001464
0.0001537
0.002761
2.648e-05
4.114e-05
2.779e-05
0.0001538
3.99e-05
0.0001496
0.0001512
3.723e-06
0.0001462
0.01671
0.01916
0.0001506
0.0001054
0.009034
5.772e-05
0.000149
4.31e-05
0.0001926
9.541e-06
0.0001549
0.01523
0.0001686
0.007744
0.009284
4.407e-06
0.048
6.686e-05
0.00637
9.498e-06
0.002251
0.0002122
0.01194
0.0001513
0.000153
0.0001532
0.001126
0.0001534
0.0001413
0.002133
0.01695
0.001072
0.02324
0.0001468
0.0001079
0.002216
0.0001496
0.0001453
0.0001454
5.721e-05
0.0001561
0.0001664
0.0001484
1.56e-05
0.0001455
0.0001757
0.003452
0.02353
0.01227
1.908e-05
0.0001137
0.0006127
0.0001505
0.01145
8.375e-06
0.00148
0.01098
0.01826
6.135e-05
0.01841
0.04885
0.0001564
0.01715
0.0004495
0.0001465
0.02096
0.0009175
0.0001386
0.01116
0.0003691
0.0001622
0.06402
0.0001532
0.0001347
0.0002314
0.0002812
0.001631
0.03971
1.723e-06
0.0001917
0.003992
1.224e-05
0.0001864
0.02289
0.05037
0.0001448
1.318e-05
0.0001471
0.0001791
5.004e-05
0.01855
0.0001968
4.947e-09
0.003835
0.0001568
0.00016
0.0001582
0.0001449
1.438e-06
0.0001466
0.01717
0.02034
2.683e-11
7.463e-09
9.782e-08
0.000147
0.001886
0.01033
0.0001455
0.02101
0.0001309
0.004193
0.000153
0.01192
1.9e-05
0.01126
2.056e-05
0.0003932
0.02257
4.587e-07
5.259e-05
1.197e-05
0.002467
0.0001472
0.0001246
0.001268
0.05182
0.0001459
1.089e-05
9.353e-06
0.002354
0.0001305
0.0207
0.000157
0.001058
0.0001906
9.411e-06
0.05123
0.0001472
0.003331
0.0001857
0.0001388
0.0001591
0.03686
3.297e-05
6.113e-05
0.0008201
0.000208
0.01927
0.01313
8.378e-05
0.005292
0.002299
0.0001466
4.041e-06
0.00637
7.402e-06
5.31e-05
0.0184
0.0001483
0.0001479
0.000151
0.001478
0.0001611
0.0001455
0.0001401
0.0001781
2.947e-05
0.009307
0.0001865
0.0002386
6.329e-06
0.0001729
0.0001473
0.0001426
0.001831
0.01042
8.867e-05
0.0001559
5.215e-06
6.152e-05
0.003491
0.001076
3.708e-06
0.0001455
0.009522
0.01976
0.06619
0.0001334
0.001065
0.02119
9.566e-08
0.0001346
4.573e-05
0.0002633
0.0001453
0.0001057
0.0001456
6.959e-05
0.05023
0.0001456
0.0007041
2.01e-05
0.004558
0.01109
0.03909
1.487e-05
1.585e-05
0.0002001
5.198e-05
0.0002092
6.637e-05
0.0159
0.02398
7.943e-06
0.0001481
1.496e-05
0.0001455
0.0001626
0.0001491
0.0347
0.0001413
0.0001456
0.0001689
6.806e-05
0.01125
0.0001383
0.0001412
0.004289
2.025e-06
0.0008712
1.526e-05
0.02555
0.0001658
0.01224
0.0001932
0.01732
0.001308
0.0003061
0.0001385
0.002783
0.01917
0.0001661
0.004211
0.000147
0.0001399
0.05847
5.605e-06
0.05042
2.053e-05
0.000149
0.000142
0.003293
0.002717
0.0001493
0.0005816
0.0001567
0.0001654
0.0005544
0.0001718
0.01991
0.0001527
1.234e-09
0.0016
0.01117
0.01135
0.005339
0.007546
4.751e-06
0.003467
0.0001491
0.01099
0.0125
0.01721
0.0001417
3.222e-05
0.0001562
0.0001525
0.0001304
0.0001415
3.147e-06
0.0001601
1.77e-05
0.008578
0.0001789
0.04708
0.0001601
1.13e-05
0.0001517
2.661e-05
0.0001448
0.0001393
0.0001669
0.0001513
0.0009167
0.0001525
7.432e-06
0.02447
4.088e-05
0.0001612
0.04353
0.0001402
2.089e-05
0.0001532
2.111e-05
1.562e-09
7.85e-05
0.03914
0.01034
0.0001348
4.783e-05
4.879e-05
1.141e-05
0.04833
0.03764
0.01741
3.351e-05
0.009129
8.508e-05
0.02919
3.046e-05
4.607e-05
8.505e-05
0.01689
0.0001599
6.132e-13
0.0001561
0.0001492
5.749e-05
0.0001562
4.742e-05
0.0001441
0.01663
0.03862
0.009484
0.0001451
1.688e-05
0.002509
3.951e-06
0.0001562
0.002997
0.01433
0.003011
0.0064
0.0001476
0.01115
0.003958
0.0006139
0.02125
0.000146
0.02704
0.0002552
0.0001462
0.0001255
0.0001676
0.008105
0.003893
0.0001583
7.841e-05
1.712e-06
0.001195
0.0001279
0.01109
0.02302
3.015e-06
1.026e-05
0.0001554
0.02134
0.0002504
0.0001283
0.004439
0.0005849
0.03924
2.953e-06
0.04039
0.002543
0.01465
0.02056
0.0001737
0.0001469
5.096e-10
0.005427
0.01185
0.0005151
0.01166
0.002933
0.002558
4.57e-05
0.0001424
0.04095
0.0001503
0.0001425
0.001898
0.0001793
4.329e-05
0.00015
0.0001364
0.01272
0.01835
0.0001448
0.000136
0.004326
0.02177
0.0255
0.003647
0.009833
1.744e-08
0.000139
0.000153
0.0001418
0.006737
0.007321
3.451e-05
8.8e-06
0.0001555
0.0001884
0.0001469
0.002726
3.182e-06
0.0001419
0.0001604
1.403e-05
4.931e-05
1.348e-06
0.0001474
0.02208
4.657e-05
0.0001459
1.05e-05
0.0001416
0.0001598
1.452e-05
0.005057
0.05708
1.137e-06
0.0001464
0.0007454
0.0001529
1.16e-05
0.009257
5.531e-06
3.337e-05
0.0001554
0.0001657
0.0001611
1.616e-08
0.0001458
0.05729
2.086e-05
7.47e-05
0.01225
2.072e-07
0.0001847
0.0001751
0.001801
1.625e-06
1.226e-06
0.001726
5.79e-09
0.0002733
5.106e-09
0.005375
0.0006216
0.04191
2.547e-07
0.0001477
3.929e-05
0.0001331
0.000132
0.028
0.0001499
0.0106
0.03811
0.0001607
0.000167
0.0001555
0.0001053
5.595e-05
0.0001464
0.05612
0.00669
0.0001554
0.0006983
3.336e-07
0.01936
0.0001421
0.000195
0.04447
0.00245
0.0001451
0.01916
2.152e-05
0.0001486
0.000872
0.006242
0.02391
0.0001379
0.005801
0.06144
5.605e-09
0.0001782
3.016e-07
0.01221
0.0001914
6.463e-05
0.0001598
0.001795
0.0001299
5.054e-06
0.0001537
0.0001308
0.0001709
1.497e-06
0.06315
0.000386
0.0001085
0.0001668
6.554e-05
3.555e-09
3.363e-05
0.0001473
0.0001461
0.0001361
0.0001797
0.00368
0.0009631
0.0001799
5.111e-06
0.007646
0.0001526
4.71e-06
0.000154
2.097e-05
0.0001445
0.01353
0.002413
0.02705
0.002528
0.0102
0.0001457
0.000146
0.0007145
0.0001552
0.006628
2.799e-05
0.002142
0.02083
0.05706
0.006093
0.003222
2.255e-08
0.02371
2.279e-05
0.0004732
0.0001112
0.01927
0.0002278
0.00299
0.001266
4.813e-06
0.009818
0.0001441
0.000143
0.01232
0.01485
0.0001676
0.0001395
0.0001948
0.01215
0.0001695
0.002043
0.06003
0.0008482
0.0001568
0.000149
0.0001603
0.0001715
8.405e-07
6.464e-06
0.01521
0.0001541
0.05588
0.001008
3.946e-05
6.305e-05
0.02516
0.0001861
4.31e-05
0.006225
3.972e-06
0.0001491
3.337e-06
0.0001487
0.02344
0.01196
0.0001697
0.0001457
1.262e-06
2.636e-08
0.0001362
0.0001441
0.01614
0.01222
7.418e-07
0.01124
3.978e-05
3.577e-05
0.000651
0.0001618
0.0001659
0.0001477
0.000474
0.02512
0.001301
0.0001724
0.0006665
0.007855
0.0001495
3.14e-08
0.01125
0.0001453
0.004251
0.000141
0.0001447
9.167e-05
0.0001548
1.145e-06
0.0001443
1.16e-05
0.000146
0.0001723
0.0001545
0.0557
0.0001353
1.337e-05
1.895e-05
0.0004578
5.499e-05
0.0001957
0.0001552
0.02828
3.201e-05
0.003118
0.0007152
7.089e-07
0.0004037
2.83e-07
0.01021
2.482e-05
0.0005135
2.688e-05
1.579e-06
0.0001518
0.04451
0.0001673
0.001928
0.0149
4.647e-06
0.0001768
0.0001018
0.01638
5.097e-05
7.525e-05
0.01455
0.0001683
0.0004236
0.02903
5.099e-05
0.009279
1.207e-05
0.009012
0.0001371
7.01e-05
0.001952
0.0001461
0.00361
0.0006879
0.0001381
0.0001726
0.01078
0.0001538
0.0001519
0.05295
0.01353
0.000158
0.000132
0.003218
0.001953
0.000145
0.0001517
0.0001505
0.01204
0.001864
0.0001468
0.0001549
0.002666
6.05e-06
1.487e-05
2.443e-05
0.01338
2.406e-07
0.0001968
4.709e-05
0.0001456
0.006673
0.0001866
0.006015
7.456e-05
0.00334
4.381e-05
0.0001471
1.199e-07
0.0001238
0.0002701
5.167e-05
4.494e-05
0.02432
0.04974
5.73e-06
4.567e-05
0.0001503
2.514e-10
0.0131
5.288e-05
8.37e-06
3.199e-05
0.0001864
0.01428
8.833e-05
4.568e-05
0.00352
0.05593
1.946e-05
3.043e-05
0.06511
2.815e-07
0.0001589
4.787e-05
0.0001569
1.161e-05
0.000131
0.0001448
0.06018
1.466e-07
0.01184
0.001907
1.364e-06
0.0009138
0.0001459
2.031e-06
4.039e-05
0.0585
2.354e-06
0.0001738
0.00848
3.953e-09
0.05672
2.057e-05
0.01416
4.487e-05
4.489e-05
2.19e-05
7.394e-06
0.0001877
0.003611
0.0001582
0.03508
0.002671
0.002979
0.0001682
6.618e-05
0.02386
0.0001028
0.01816
0.0001617
0.02337
0.0001534
0.000159
0.0001315
2.667e-07
0.0001507
7.241e-06
8.623e-05
0.005738
0.004882
0.0001459
0.01742
0.01316
0.000163
8.66e-05
8.819e-06
6.434e-06
0.0001427
1.895e-05
0.002083
0.01181
3.985e-08
0.02337
0.0387
0.001661
0.0001465
0.001523
0.004853
6.178e-07
0.005855
0.0001608
0.01732
0.0001455
3.874e-08
7.052e-08
0.009294
0.0001657
0.0001718
0.0001353
0.0001316
0.00662
0.0223
0.02961
0.0001541
0.000153
0.0001544
0.0001586
0.008486
0.04256
0.002519
3.028e-05
3.124e-08
0.0001653
4.392e-06
0.009333
0.001402
0.0001318
3.181e-05
0.01447
8.723e-05
1.845e-08
0.03479
0.02597
0.003212
5.483e-05
0.01653
3.675e-08
0.05555
0.008116
0.02249
0.02713
0.0001418
2.819e-05
1.657e-08
0.0001553
0.00416
0.0001414
4.01e-05
9.861e-05
0.0001355
0.0001202
8.415e-05
0.006072
1.744e-05
0.0001429
0.0001632
2.102e-09
0.0001457
6.103e-05
0.0004445
5.168e-05
8.121e-06
0.0001667
0.0001474
0.004345
2.799e-06
0.004226
0.005504
0.000151
6.888e-05
4.264e-05
2.513e-05
0.002806
0.004617
0.0001451
0.006956
0.038
1.17e-05
0.000233
0.02284
0.004143
0.0001454
0.0001663
0.001738
0.0001457
0.02451
0.0001376
2.535e-05
0.02484
2.145e-07
0.003564
0.02969
6.006e-05
0.01207
6.083e-05
2.607e-05
2.67e-09
0.005589
0.002132
0.03744
0.01514
0.01812
0.0001482
0.01527
0.0001468
0.01487
0.0001474
0.02483
0.0001435
0.00312
0.008025
0.000138
0.0001446
0.009829
0.0001575
0.0002303
0.0001546
0.0001342
0.0001855
0.009194
0.0001501
6.116e-08
2.563e-05
1.27e-06
3.379e-05
5.751e-05
2.759e-05
3.296e-05
0.01768
0.0002175
1.622e-06
0.02207
0.000196
0.0009642
0.01305
0.02506
0.0328
0.0001441
2.778e-09
0.007301
2.978e-06
0.0001458
2.219e-08
7.198e-05
2.332e-05
0.01003
0.000131
0.0001309
0.005141
0.05137
0.0128
0.01874
4.703e-05
0.0001678
0.0001564
0.00547
0.0001575
5.266e-06
0.0001491
0.0002007
0.01081
0.0001408
0.0004636
0.0004284
5.608e-05
2.327e-05
0.0109
0.0001464
0.01529
0.01281
2.467e-07
0.02606
0.000154
8.4e-05
0.002805
4.223e-05
0.01737
0.0002161
0.04169
0.0001455
0.01566
0.0001575
1.855e-08
5.938e-06
0.0001677
0.005548
0.0001354
0.000158
0.0001305
0.0001672
0.001152
7.877e-09
0.0001519
4.107e-07
0.01015
0.0001439
0.003766
0.00134
0.02067
0.000152
0.02108
0.004059
5.363e-05
0.01308
0.03495
2.097e-05
0.0001525
0.000124
0.0002287
1.58e-05
0.000176
0.0001755
2.491e-05
0.0001757
1.513e-08
0.0002035
1.021e-05
1.349e-05
3.464e-09
0.003238
0.002807
0.0001493
0.0001458
0.0001437
0.01706
0.0001429
5.635e-08
0.0001454
3.881e-06
0.0001575
0.0001993
0.0003396
2.334e-05
0.0002278
5.346e-06
0.0001596
0.0002591
0.01133
1.513e-05
0.0001451
0.006085
0.0004243
0.01229
0.0007241
0.002613
0.007746
0.0001584
0.0001465
0.000154
0.0001372
5.157e-05
0.000181
0.000133
0.0001589
0.000236
0.0001372
3.428e-06
0.0001462
0.02188
0.04744
0.0181
0.0002305
0.0001393
0.01191
0.0006913
0.01498
0.0001518
0.000119
0.0001548
0.0001455
0.0001417
0.01629
3.186e-08
0.0001491
4.166e-05
0.0001496
2.16e-06
0.0001632
0.0001531
0.0001707
0.0001691
0.002122
2.394e-05
0.0001503
7.455e-05
0.000147
0.01528
0.0001486
0.0001525
9.52e-05
0.01903
0.0001586
8.679e-06
0.002741
0.0001415
0.03958
3.072e-06
0.0009618
2.918e-08
4.873e-06
0.03159
0.0001533
0.0001757
4.689e-06
0.02906
8.161e-05
6.379e-05
0.0002007
0.0001552
0.0001445
0.008025
3.522e-05
0.01808
0.0001459
0.003544
0.0001456
0.0001628
0.002105
0.0001431
0.03389
0.0001713
0.000191
0.01834
0.001943
3.032e-05
0.0001467
2.489e-05
5.523e-06
0.0001669
0.03273
3.302e-05
0.0001582
0.05691
0.01809
2.614e-05
0.0001631
0.0152
1.113e-05
0.01141
0.005233
1.465e-05
0.0001578
0.0001543
0.0001378
0.000152
2.954e-05
0.01095
0.0001518
4.544e-05
0.0001485
0.0006929
0.0007376
0.06158
0.04053
0.004344
2.764e-08
0.007373
1.876e-07
0.0001686
0.0001376
1.941e-07
3.868e-05
0.0001574
2.34e-05
0.0001512
0.04081
0.0001491
0.02325
5.235e-07
0.01653
0.0001883
6.273e-05
3.689e-05
0.0001464
4.796e-05
0.0001536
0.0001843
8.416e-05
0.0001495
5.503e-05
2.783e-06
0.0001444
0.000149
0.01703
0.0001915
0.02571
0.0001742
0.0001724
0.0001992
0.0001679
0.02233
0.0002176
0.0002
0.01151
0.0001372
0.0001541
2.926e-05
6.538e-07
0.0001399
0.001937
6.478e-07
0.04436
0.0007464
0.02061
4.816e-05
6.187e-07
0.0001688
0.0002631
0.01496
0.0001511
0.0006921
0.0001931
0.01915
2.276e-06
0.005019
0.0001492
0.003337
1.419e-09
1.541e-08
0.0145
0.01424
0.004178
0.0001685
0.01816
0.0001075
0.02049
0.0002127
0.007559
0.01096
9.631e-05
1.893e-06
0.00905
0.0001655
0.0001454
0.0001791
0.0001631
0.007179
0.0001528
0.0001514
4.204e-05
0.01458
0.03866
0.0001359
2.052e-05
5.128e-06
0.05889
0.0021
0.01306
2.14e-08
2.699e-05
0.0001495
0.00264
8.975e-05
0.01544
3.983e-05
1.386e-08
0.0001282
1.594e-06
0.0001617
3.939e-05
0.0001343
0.01364
0.0197
1.233e-05
0.003082
0.02439
5.901e-06
0.0001554
0.0001654
3.09e-05
0.0001535
0.02443
0.0001455
2.288e-05
1.332e-05
5.894e-05
1.025e-05
8.993e-06
0.01582
1.223e-07
0.0002576
0.0002169
0.0001825
0.02565
0.0001514
0.04103
6.184e-05
0.01926
5.348e-05
0.0001926
5.46e-05
3.985e-09
2.438e-07
0.008001
0.0265
0.0001626
0.0001589
0.0001462
0.0001491
0.01202
0.0001631
0.0001453
4.564e-05
5.273e-05
3.249e-05
0.008023
0.0001472
4.712e-05
0.05428
0.0001447
3.006e-07
1.511e-05
0.0001564
4.546e-05
5.331e-09
0.01839
0.0004461
0.04878
0.00011
0.0003034
2.954e-10
0.0001089
9.872e-05
0.0001486
0.0001564
3.836e-05
0.00755
0.0001455
0.0001471
0.01431
5.301e-06
0.02381
4.335e-05
1.481e-07
0.0001725
0.0001492
7.264e-06
0.02504
0.008558
1.398e-06
0.0001748
0.02256
0.02255
0.00499
0.0001686
0.008892
0.0001465
0.001674
0.02908
5.437e-06
0.04778
2.981e-05
3.242e-05
0.0001724
7.511e-06
0.06035
0.0002259
5.525e-05
0.0006974
0.0001517
0.01715
0.005599
0.007617
0.000965
0.008702
4.465e-05
0.0005349
0.0001452
0.009623
0.04939
7.867e-06
6.002e-05
0.0005549
0.04118
0.0001541
6.959e-05
0.0001602
0.007064
0.02086
0.01361
0.0246
0.02676
0.000167
4.625e-07
0.000162
0.0001489
0.0003124
0.0001395
0.01871
0.0001501
0.0001685
0.01871
0.0001439
0.000164
6.092e-05
0.0009191
0.0001457
0.0001486
0.02561
8.374e-05
0.002427
0.0002008
0.04266
0.01536
1.116e-05
2.421e-05
0.05348
0.0002166
0.059
0.0001591
4.703e-05
6.512e-08
0.02276
2.508e-05
3.383e-05
0.02056
3.008e-08
0.0001455
0.0001373
0.0001627
0.0001534
7.446e-09
0.0001459
0.03337
0.0002331
3.264e-08
0.0004533
1.29e-05
0.0001246
0.0001243
2.7e-05
0.007853
0.01717
0.0002274
0.0001502
0.06615
0.0001655
0.000149
7.978e-06
4.438e-05
4.529e-05
0.01903
1.513e-06
0.00171
0.0001755
0.0001321
0.0001177
5.139e-05
7.673e-06
2.441e-05
0.006065
3.476e-06
0.003642
0.0137
6.352e-05
0.001994
0.005495
0.0001546
0.0001444
2.578e-05
0.0001336
0.0001319
0.0007846
0.006595
6.014e-07
0.0001619
3.489e-05
0.006861
0.0003445
0.0001455
0.0001832
0.0001482
0.01055
9.689e-08
0.0001834
0.0001568
8.688e-05
0.0001528
2.707e-06
0.0001025
0.0001907
0.0001079
0.0001302
4.196e-05
0.01866
0.0001337
0.004578
0.01288
0.01424
0.007066
9.392e-05
0.01556
8.947e-06
4.901e-05
0.007599
0.01265
1.916e-05
0.011
0.003307
0.0004496
0.000157
0.0001631
0.0001242
1.154e-07
0.000166
0.004552
0.0001473
0.02058
0.0001484
3.918e-05
0.02587
1.235e-07
0.001505
0.0001532
8.259e-05
1.697e-08
7.975e-06
0.01532
4.849e-05
1.413e-05
2.054e-05
0.0005605
0.01834
5.999e-05
1.363e-07
0.003224
0.005722
0.0001674
0.0001602
0.0001456
0.03187
3.299e-05
0.0001525
0.003067
0.02499
0.0001544
5.903e-05
0.0001311
0.05084
0.0001664
0.02456
1.906e-05
0.0001639
0.0001736
0.02802
0.0001507
7.471e-05
7.62e-05
1.014e-06
0.0005175
0.0002752
0.000143
0.009866
0.001407
7.968e-05
5.411e-05
5.799e-05
0.03086
0.01095
0.0001455
2.825e-05
3.699e-05
0.0001777
0.0001993
0.02995
6.121e-05
1.196e-05
4.044e-05
0.0001996
0.0001624
0.0001558
7.583e-05
0.04528
0.000154
2.932e-07
0.0001799
0.002149
0.0001456
0.0001473
0.0001981
0.0001464
0.0006964
0.0001
0.008587
0.0287
1.109e-05
5.685e-05
0.002772
0.0001067
0.003344
0.02386
1.395e-07
0.01032
0.003848
0.004703
3.363e-07
0.01932
1.351e-05
4.928e-07
0.0001483
0.0001579
1.394e-05
0.0001564
0.0165
0.0002264
0.0002093
6.816e-05
0.0105
0.009782
0.0001493
0.03688
0.0001478
0.000166
0.01643
0.006433
0.0006766
0.02641
1.629e-07
0.01313
0.0001466
0.002556
0.007426
0.06204
5.17e-05
0.009601
0.0002475
1.153e-05
8.09e-06
1.705e-07
0.00173
5.271e-05
0.003284
0.004047
0.002513
0.0001519
2.672e-07
0.002984
4.478e-05
0.0001622
0.0001443
0.008431
0.001788
0.0182
0.0001585
1.524e-07
0.0004278
0.0001452
0.04424
0.01334
2.611e-05
0.000145
0.0004789
0.02156
0.0001515
0.0001408
2.135e-05
0.0001453
0.003064
0.0152
0.0001652
1.559e-06
0.000179
0.01058
2.345e-08
0.006576
4.007e-05
0.0001314
0.0001303
5.456e-05
0.0586
0.0001763
0.000504
6.067e-05
0.0001438
5.858e-05
7.428e-06
0.02136
0.0001458
0.0001466
0.01874
0.01795
5.732e-05
1.419e-09
1.747e-05
0.0001515
2.15e-05
2.391e-06
0.0001545
1.46e-05
5.188e-05
0.0002606
0.0001692
6.046e-05
0.0339
0.01751
0.0001303
0.0001284
0.0001287
0.0001264
0.0001586
0.02157
0.0001238
3.417e-05
0.0001394
0.006561
0.01272
0.0001807
0.0001271
0.006245
0.01015
0.0009036
0.0003453
0.0004458
0.0137
4.764e-05
2.732e-05
0.0234
6.31e-05
0.0001614
4.493e-05
1.381e-08
4.486e-05
8.757e-07
0.0001532
0.0001502
0.0001455
3.027e-07
0.004728
2.699e-05
0.0001288
0.0001506
1.114e-07
0.0001459
0.009073
0.0006202
0.0001698
0.007581
0.004293
0.01844
0.01226
3.467e-05
0.0001513
0.0002385
0.0001369
0.0001687
0.0009872
0.001808
0.01567
0.0001646
0.0001437
0.0001456
0.0001564
0.006484
0.0001619
0.0001688
0.01534
0.005528
0.0001641
3.29e-05
2.698e-05
0.04554
0.02438
0.02126
0.004739
0.000161
2.317e-08
0.0001526
0.0001454
7.562e-07
0.0001454
0.0001451
0.0001606
0.0002566
1.001e-05
0.01204
9.634e-06
0.009676
2.622e-05
0.0001464
0.0001577
0.006573
3.321e-05
0.02256
0.0001842
0.0001574
2.366e-06
2.904e-05
0.0001483
5.986e-06
3.016e-05
3.376e-09
0.0001939
0.04249
0.0362
0.0001549
0.0001486
0.04396
0.0001895
1.644e-06
0.0001513
1.394e-05
7.946e-08
0.0001456
2.162e-05
0.0001191
6.33e-05
0.0001458
1.054e-05
3.233e-07
1.205e-08
3.372e-08
0.0001674
0.05886
4.95e-08
0.0001568
0.003555
0.000144
0.01542
0.000198
0.03293
0.0009492
3.211e-08
0.0001592
0.0156
0.0001504
0.0001492
0.0001521
3.47e-05
0.0003108
0.04582
0.0001712
0.008333
0.0001674
0.01703
0.02333
0.005485
0.00578
0.0001456
0.02388
0.0178
3.302e-05
0.0005715
0.0001318
3.257e-05
0.0002702
2.659e-07
1.415e-07
2.509e-10
2.472e-05
0.0001541
2.314e-05
0.0001489
8.239e-06
1.247e-05
0.0001456
3.201e-08
0.0001489
0.001708
1.537e-05
5.272e-06
0.01244
0.0002229
0.001848
0.0001279
0.0001302
1.698e-08
0.0357
0.0001625
0.01762
0.0111
1.511e-07
1.672e-07
2.45e-07
0.01991
2.244e-05
0.0001045
0.01997
0.0001519
4.532e-05
6.25e-06
0.0001392
0.005996
4.859e-05
0.01223
5.23e-05
0.01792
0.03386
9.004e-07
3.967e-05
5.329e-05
2.072e-07
0.0001772
1.901e-06
0.0001527
6.429e-05
0.002562
0.0001483
0.0001552
6.931e-05
0.0009808
0.002909
2.856e-07
0.000158
0.0001456
0.0001448
3.097e-05
2.187e-05
0.01264
0.03075
0.000126
0.0001512
5.419e-06
0.0001264
0.0006995
2.906e-05
0.0001543
0.003741
0.01651
3.3e-07
1.745e-07
2.353e-08
0.0001506
2.082e-05
0.00639
0.005914
0.04643
0.0261
3.579e-06
0.01753
9.647e-06
2.918e-05
4.69e-05
7.132e-05
0.0001728
1.23e-07
0.02197
5.735e-05
0.02122
0.0001588
5.834e-05
0.0001606
0.0001461
9.454e-05
0.0002556
0.005428
0.0001316
5.471e-05
3.087e-07
8.799e-09
0.02611
2.491e-07
0.0005742
0.0001629
0.0001504
0.0001545
0.0001538
0.0001489
0.0001064
2.258e-07
0.000796
1.298e-05
0.05127
0.04904
7.648e-05
0.005301
0.01611
0.0007939
0.02377
2.336e-06
0.005689
0.0001355
0.008265
6.255e-05
0.0001477
0.0001555
5.467e-06
0.0001463
0.003156
0.002467
3.019e-05
0.0001576
1.673e-06
0.0002307
0.01116
0.0001507
1.508e-05
0.0003507
2.728e-05
5.562e-05
0.0001432
4.436e-05
0.0001443
0.0001685
0.001919
0.06848
2.856e-08
0.002724
1.431e-05
0.03416
1.134e-05
0.0001593
0.0004543
0.00995
0.000687
0.000139
0.0001596
0.0001463
1.973e-05
0.0001106
0.0001944
0.005623
0.0001428
0.0004417
3.326e-05
0.007719
0.0001314
0.002962
0.0006875
0.0001478
0.0085
0.0001612
0.0001728
0.003481
6.672e-05
0.0001561
0.000165
0.000157
0.0002086
0.009326
0.000137
0.0001352
0.0001469
0.0001539
0.0001521
0.001291
0.0005234
0.000146
3.686e-05
0.0001935
4.403e-05
0.0001469
0.0001574
0.0001522
4.557e-06
0.0002439
1.993e-08
0.05932
3.215e-06
0.0001498
0.000159
3.187e-07
0.0001505
4.994e-05
4.663e-05
4.516e-05
0.001133
0.008905
0.000146
6.74e-05
0.002223
0.02636
0.007327
0.01667
0.0001249
0.008824
7.162e-05
5.659e-05
0.0001438
0.01522
7.183e-05
7.012e-06
0.0001518
0.0001481
0.001302
0.0003645
0.011
0.01524
0.0001103
6.651e-05
0.0001538
6.366e-05
0.006914
0.02473
0.01249
0.03825
0.0001355
0.0001805
2.883e-08
0.03703
0.01289
2.031e-05
0.000166
0.0001638
0.0001449
0.0001501
0.0001603
0.0001576
6.324e-07
0.003466
0.000147
0.0001475
5.534e-05
2.681e-09
0.0001469
0.01221
3.861e-05
4.429e-05
0.0001718
0.005228
6.564e-05
0.009357
0.000183
1.285e-05
2.908e-06
0.0001526
0.0001462
0.00642
0.04926
0.004146
0.0001429
0.0001702
0.00184
0.01867
0.00137
4.952e-08
3.267e-06
0.06021
0.0004076
2.425e-06
0.03179
4.368e-05
0.01146
0.0001712
0.000169
5.003e-06
1.782e-07
0.0001443
0.002048
6.847e-05
0.0001469
3.783e-05
0.01203
0.0001663
0.0001555
0.03207
1.252e-05
0.001173
0.000153
0.0001455
0.0001458
0.05699
0.0127
0.000134
0.002113
0.000149
1.256e-05
0.02843
0.0133
3.724e-05
3.568e-06
0.06283
0.02573
0.000143
2.54e-07
0.0001755
7.214e-05
2.287e-05
0.0001541
0.0001749
0.003526
0.004125
3.297e-08
0.0325
6.89e-07
0.0001385
0.000142
0.007544
0.0001517
0.000143
3.274e-08
5.701e-05
4.12e-05
5.117e-05
0.01502
0.008823
0.0001352
2.596e-08
0.0001558
6.998e-05
0.000135
0.0001525
0.01285
0.009642
0.007475
0.03121
0.02781
0.002084
0.0001362
0.008479
0.0002126
5.45e-05
1.597e-05
0.0001606
0.01957
9.44e-05
0.0001471
0.003376
0.001363
0.00018
0.0001541
0.01687
8.355e-07
0.0001302
0.0001438
7.856e-05
0.0005157
0.02467
2.953e-05
0.0001478
0.0002298
0.003536
6.843e-05
0.000148
0.0001533
8.96e-06
4.996e-05
5.547e-05
0.01116
0.0002029
0.0001367
2.185e-05
0.0001398
0.0005417
2.823e-08
0.0001591
0.01095
0.01748
0.0005368
9.494e-06
0.002452
0.0001527
0.0001363
0.01376
0.0001581
0.0001448
0.002062
0.0001446
0.03117
0.0001363
0.0001553
0.0001548
0.0001493
6.968e-05
0.004537
0.0001455
0.0001333
7.28e-05
0.002682
0.0001504
0.0001467
0.0001448
0.0001577
0.05922
0.06392
1.735e-05
2.793e-08
2.346e-07
7.174e-05
1.805e-06
2.169e-06
0.000148
5.263e-08
0.01085
0.0001163
0.02805
0.0001558
0.0001681
0.0002223
0.0006651
5.803e-06
0.0008643
0.0001569
0.009766
5.213e-05
6.151e-05
0.0001682
0.000164
0.008547
0.0001545
3.859e-05
0.000146
0.01052
0.0001437
0.0006272
0.0001529
0.0006437
3.714e-07
4.521e-05
0.0001373
1.109e-05
0.01019
0.0001329
0.0001988
0.000146
0.0001573
0.008179
0.0003052
0.001333
0.0001084
0.0001495
0.0001696
0.033
6.14e-07
0.0001471
0.0001529
1.951e-07
0.000142
0.0001443
3.97e-06
0.01218
0.0001529
0.0001528
0.05488
4.662e-05
4.907e-08
1.727e-05
0.01056
0.02802
0.006718
0.0001552
0.0001451
0.0001539
5.303e-05
4.655e-05
0.005569
0.0001479
3.847e-07
5.035e-05
5.872e-05
0.0133
0.006975
0.009416
0.0001343
0.000156
0.0004908
0.002616
0.0001509
4.029e-05
1.47e-05
0.03433
0.000163
0.0001737
0.02042
0.0001508
0.02608
6.31e-05
0.009539
0.000136
0.0001477
0.0001209
0.0003762
0.01114
0.0001609
0.000149
0.0001885
0.005943
1.451e-09
0.03993
0.0001588
0.0004154
0.0001415
0.000141
7.178e-05
3.485e-06
0.0001378
0.002829
2.063e-05
1.403e-05
0.02761
0.0001583
0.01097
3.532e-05
6.671e-07
0.01677
0.0001518
4.27e-06
0.0001675
7.891e-06
9.831e-05
0.02125
0.02185
4.564e-05
0.0001459
0.009934
0.0001667
0.0001448
0.0002369
4.08e-06
0.002823
5.413e-08
1.631e-05
0.002785
0.0001449
0.03269
0.003588
0.0001607
0.0211
0.01622
0.0009589
0.00269
0.0001028
0.0001465
0.00626
0.0001382
0.0001491
0.002924
0.0002092
0.0001626
3.718e-05
3.243e-08
0.0001422
0.0001455
8.966e-05
7.637e-05
5.96e-06
0.0001661
0.01191
1.219e-05
0.05872
0.02108
0.000146
0.000177
6.404e-06
0.0001519
0.01049
0.0001442
8.958e-05
0.000152
0.02545
2.141e-05
0.004242
0.0006158
8.142e-05
0.02582
0.00015
0.0006235
0.006303
0.0001673
0.0001436
0.0001485
2.09e-05
9.817e-05
9.156e-05
0.03605
0.00425
0.04564
4.326e-05
0.0001164
0.0001281
0.0001528
0.0001588
1.011e-08
3.257e-05
0.0001167
0.0001426
2.126e-05
6.33e-05
0.0008857
0.0007376
8.03e-08
0.0001757
0.02425
4.702e-05
5.284e-05
1.447e-05
2.747e-06
0.05289
0.0001981
0.04015
0.0001502
5.316e-09
0.0001472
0.02462
2.142e-05
7.333e-05
0.02121
0.0001131
0.01119
6.641e-06
0.01477
0.0002612
0.05705
0.0001414
0.001637
1.013e-08
0.01307
5.932e-07
1.972e-07
0.0001456
5.908e-07
0.0002185
7.36e-06
0.0001177
0.02624
0.05195
0.005924
4.634e-05
0.0001331
0.0001506
0.02409
0.01343
0.01625
0.02046
0.004691
0.0001572
0.0001622
0.02655
3.049e-07
0.0129
6.105e-05
4.934e-05
2.069e-05
0.0001348
0.0008171
0.006412
5.93e-05
0.01755
1.491e-07
0.002333
5.634e-05
0.0001545
4.598e-05
0.0001534
0.0161
0.01
0.0001583
0.000168
0.00993
9.388e-05
0.01417
0.003167
8.582e-05
3.606e-05
0.01171
1.445e-07
0.0001041
1.217e-06
0.0001504
0.06852
0.006188
0.02624
0.0001527
0.0001332
0.0001455
0.0001468
0.0001455
0.009456
4.732e-05
0.00617
0.01357
0.0001515
0.0143
0.000151
1.746e-07
3.131e-06
3.423e-07
5.626e-05
0.0001536
1.385e-05
8.357e-05
0.0001577
0.0001531
0.0001464
0.03882
0.02987
0.002359
0.06526
0.0001422
0.000143
0.005667
0.02354
0.0001517
2.174e-08
4.221e-05
0.0001398
0.0001459
4.931e-05
0.0001514
2.182e-05
5.328e-07
0.0001543
0.0001744
0.001715
0.0001136
0.001254
3.335e-08
0.0001885
0.0001611
5.601e-05
3.752e-05
0.0001534
0.002616
0.0001483
0.0001639
1.24e-05
0.003412
3.235e-08
0.0001506
8.467e-05
0.0009749
3.363e-05
0.0001462
0.009433
0.0001457
0.03476
0.06199
0.0001334
0.02612
6.034e-05
0.0002186
0.00016
9.028e-06
7.026e-05
0.0002791
1.273e-05
1.488e-05
0.005317
0.001188
4.789e-05
0.003191
0.01857
3.311e-05
0.0001385
5.293e-07
1.515e-07
6.506e-06
5.722e-05
0.0001591
5.081e-06
3.761e-05
0.0001602
0.0001698
5.798e-06
0.004562
0.0001623
0.0001353
0.0001865
3.403e-05
0.0001346
0.06679
0.0001016
0.01519
0.0001426
4.869e-05
5.537e-05
0.0002019
2.289e-05
1.31e-09
0.0003612
0.01045
0.0001434
0.01123
0.004105
2.083e-05
0.008586
0.03594
0.02182
4.584e-06
0.01295
0.0001589
0.01124
2.126e-05
0.0001521
0.05519
0.0001526
0.05316
3.104e-07
0.001718
0.0001476
0.0001921
0.0421
1.401e-07
0.00157
0.0001431
0.0001566
1.41e-05
0.0001519
0.0086
1.185e-05
0.0004884
0.02266
0.0001451
0.0001615
0.01816
0.01293
0.0001611
2.417e-05
0.0001384
2.178e-05
0.01328
0.00162
0.01005
0.01068
0.01076
2.595e-05
0.0002157
0.0001526
6.049e-05
0.000146
1.926e-08
0.0001505
0.0001343
0.008842
0.000146
0.0001809