/*--------------------------------*- C++ -*----------------------------------*\
  =========                 |
  \\      /  F ield         | OpenFOAM: The Open Source CFD Toolbox
   \\    /   O peration     | Website:  https://openfoam.org
    \\  /    A nd           | Version:  8
     \\/     M anipulation  |
\*---------------------------------------------------------------------------*/
FoamFile
{
    version     2.0;
    format      ascii;
    class       volScalarField;
    location    "25";
    object      nut;
}
// * * * * * * * * * * * * * * * * * * * * * * * * * * * * * * * * * * * * * //

dimensions      [0 2 -1 0 0 0 0];

internalField   nonuniform List<scalar> 
127143
(
8.125e-21
1.021e-20
1.565e-19
1.89e-18
1.028e-17
1.978e-18
1.007e-15
9.58e-17
3.013e-17
2.968e-15
1.239e-15
1.123e-16
1.013e-18
3.878e-18
4.668e-07
7.515e-14
4.964e-18
0.004338
0.003849
1.602e-12
0.0007561
2.769e-11
6.918e-05
1.408e-07
2.318e-11
1.159e-09
3.469e-10
4.439e-10
2.672e-10
0.003836
7.653e-08
1.109e-09
4.83e-11
6.668e-08
5.029e-05
4.288e-11
0.0002005
0.000749
2.263e-07
1.086e-09
0.003843
4.23e-06
4.499e-06
5.341e-17
0.004385
7.513e-08
2.692e-10
0.0008522
9.338e-08
1.889e-07
2.74e-13
0.0004725
0.0003816
2.927e-05
0.006671
2.945e-08
0.006671
9.663e-05
0.005287
3.043e-05
3.876e-06
0.00226
7.782e-07
0.006702
1.113e-06
2.177e-05
5.16e-05
6.654e-07
6.682e-07
0.002475
1.032e-07
1.029e-09
0.002406
0.004615
0.006693
1.234e-09
0.0007102
0.0002387
2.966e-08
0.006705
2.562e-10
1.869e-12
1.242e-06
3.59e-09
0.001742
0.0003332
3.094e-07
2.274e-10
2.207e-05
2.01e-07
0.006652
0.0001942
6.368e-07
0.0007685
0.0001414
0.0001499
4.65e-06
2.693e-08
0.0005914
4.666e-05
0.006705
1.065e-07
1.739e-08
3.162e-05
0.0003661
0.0005523
5.015e-07
0.002476
8.461e-06
0.006681
7.038e-07
1.711e-10
0.0004064
6.979e-07
0.006271
5.846e-05
0.0005342
0.006693
0.0008068
4.631e-13
0.006681
1.66e-06
3.915e-06
0.0001206
3.003e-10
2.392e-10
0.001551
0.0008938
0.000145
2.35e-08
0.0001306
0.000102
1.483e-06
0.0002511
1.432e-15
0.0001445
0.0002161
0.001031
1.09e-09
0.0001646
5.262e-05
0.0009085
0.0006209
0.001047
0.0003841
4.495e-06
3.218e-10
0.006702
8.831e-05
7.215e-09
1.21e-05
1.312e-07
0.0006524
2.844e-05
2.488e-06
0.00179
7.75e-05
1.899e-08
0.0008853
1.234e-08
1.713e-07
9.138e-14
0.006649
0.0001316
2.125e-09
2.061e-06
0.0001122
8.481e-06
1.827e-08
0.0001731
2.261e-06
0.001053
5.536e-05
8.619e-06
0.002149
0.0004565
3.614e-06
0.000147
1.594e-07
0.002102
8.678e-06
0.001232
0.0004857
0.0004685
2.47e-08
0.002338
1.177e-05
7.606e-07
1.496e-07
0.0008497
0.0003566
0.0001413
0.0002453
6.471e-07
4.066e-16
0.001629
0.006657
0.006635
2.377e-14
0.002535
0.006699
0.0001927
0.0009802
0.0002423
4.635e-17
5.427e-07
0.0001353
6.79e-06
0.003149
0.006564
0.0001268
0.001346
0.006694
2.017e-08
4.166e-05
9.825e-15
8.986e-08
6.699e-06
0.000243
0.0001342
3.409e-06
0.006694
1.189e-07
0.0003369
1.008e-08
1.404e-06
6.415e-09
0.0006689
1.252e-05
0.0009876
0.0006868
0.001514
0.002554
7.809e-12
0.0007009
0.0001153
0.0001317
1.867e-18
0.005713
0.0004447
0.0001566
4.014e-06
0.0007406
1.938e-08
0.0004004
6.914e-13
2.742e-07
4.234e-10
5.612e-13
0.002489
6.768e-06
1.897e-09
5.269e-06
0.00097
6.329e-08
6.726e-06
0.001093
2.314e-08
2.642e-05
1.42e-05
0.001544
0.001169
0.0001618
0.0008726
0.000237
2.377e-06
5.863e-06
2.268e-06
5.111e-06
5.255e-05
5.232e-09
0.002147
0.001258
0.0004406
1.296e-06
0.0003699
0.0004212
1.618e-07
0.002121
2.279e-05
0.003096
0.0001795
3.229e-05
0.006691
0.006695
3.931e-16
0.0001223
0.006336
1.462e-07
0.002134
0.000637
4.546e-05
0.0001155
4.654e-05
0.006703
6.959e-06
6.743e-08
8.442e-05
0.0007379
4.799e-05
1.85e-08
3.311e-05
1.369e-05
7.486e-05
6.934e-09
3.921e-06
6.848e-06
0.006695
0.002151
4.2e-06
4.224e-07
4.888e-06
1.866e-08
0.003512
0.006694
3.374e-07
0.0007502
1.907e-08
7.693e-05
0.002338
8.728e-05
1.096e-07
0.0003923
5.23e-06
3.016e-07
0.0004079
0.0001068
0.0001012
1.233e-07
2.643e-06
0.001518
0.006251
5.524e-05
0.006657
0.006635
3.105e-05
8.537e-06
6.137e-05
0.001514
8.976e-05
0.000191
6.68e-06
0.0004066
0.000375
1.053e-06
1.453e-07
9.117e-06
0.0002885
2.134e-08
8.6e-05
3.297e-08
0.003812
0.0004021
0.0003742
0.0001253
1.248e-05
0.0009604
5.477e-06
0.006376
1.234e-07
0.001735
9.118e-07
0.002332
2.707e-07
2.125e-07
0.006697
0.002879
0.002271
1.85e-06
0.002122
2.415e-06
0.0003691
5.46e-09
1.754e-07
0.001039
8.044e-05
7.821e-08
3.888e-11
0.0006604
0.002127
0.001645
4.317e-10
3.897e-08
2.684e-05
0.0005918
9.794e-12
3.812e-05
1.558e-09
0.001557
0.0009874
0.006694
1.334e-05
6.042e-06
7.168e-08
1.697e-07
6.659e-08
1.36e-05
1.039e-07
0.0001192
0.0009273
2.907e-09
0.006695
0.0007923
0.0005192
3.774e-05
6.767e-06
0.000436
1.647e-06
0.006705
1.778e-07
9.297e-06
1.81e-08
4.746e-05
0.0009848
6.475e-06
0.0001519
0.0004696
4.384e-09
0.0004185
3.098e-07
0.0001254
2.016e-09
2.638e-05
0.002806
0.0009425
1.176e-05
4.34e-06
3.909e-05
6.207e-06
0.0001022
0.006678
2.47e-05
0.0003381
0.000286
8.752e-05
0.006697
5.361e-06
1.555e-05
0.0004915
0.006702
0.006691
2.617e-07
0.0001598
7.411e-06
0.0003098
3.015e-08
0.005265
1.183e-06
0.002296
0.001348
0.0007316
5.461e-08
8.607e-06
1.271e-06
3.457e-05
0.0003319
1.415e-08
1.018e-05
0.0003752
0.0002289
1.992e-06
0.0002576
0.001233
7.441e-07
0.0002519
0.002236
0.001313
0.0007059
4.135e-06
0.006668
0.0008458
0.0001395
0.0001039
0.0006143
0.0001546
0.006645
2.023e-06
0.0001068
4.287e-06
0.0004309
3.186e-10
1.598e-06
3.343e-05
1.914e-08
7.991e-06
8.724e-05
0.0004619
0.006693
2.504e-08
0.0008345
9.077e-07
3.499e-07
0.0003539
3.915e-06
1.43e-15
9.209e-05
1.2e-06
0.0001137
1.32e-06
0.00669
2.669e-10
0.001323
0.0005188
0.001688
5.32e-18
2.951e-14
1.194e-13
0.006697
1.321e-05
3.516e-05
0.006693
0.001915
2.071e-06
0.0001072
2.817e-05
0.0006924
5.384e-08
0.0008599
5.921e-09
0.002307
0.001089
2.757e-12
1.836e-07
2.409e-08
3.758e-06
0.005566
1.37e-05
0.0009091
0.001262
0.006628
1.734e-08
2.745e-09
5.231e-06
0.006641
0.0007015
0.0001264
6.801e-07
7.271e-06
6.317e-09
0.001766
0.0008204
2.065e-05
1.367e-05
0.006669
3.452e-05
0.0003621
8.771e-08
2.8e-07
3.456e-06
4.642e-07
0.001604
9.428e-05
5.497e-07
0.0001315
2.842e-05
0.003204
2.732e-09
0.0002063
1.276e-08
1.167e-06
0.0008245
0.006702
0.006701
1.557e-05
8.361e-06
1.173e-06
0.006473
0.004799
1.17e-05
5.37e-08
0.0004344
9.933e-06
3.197e-07
2.092e-09
3.99e-05
0.001059
0.006682
4.077e-06
0.0007018
1.551e-06
0.00491
1.326e-09
1.898e-06
5.181e-05
0.002124
4.335e-09
0.005934
0.000485
0.0006276
0.001197
0.004964
6.119e-06
0.001546
4.701e-12
0.006645
5.585e-07
1.042e-07
0.006691
6.801e-06
0.004593
3.768e-07
0.0004712
0.006691
2.575e-06
6.251e-08
1.077e-05
0.0002242
0.0006353
3.473e-08
4.037e-08
1.314e-06
2.781e-07
9.853e-07
3.125e-07
0.0003126
0.0003168
1.19e-08
0.005525
2.842e-08
0.006692
1.084e-06
0.0007871
0.0006272
0.006677
0.00476
6.989e-05
3.197e-07
0.0004733
0.006472
0.006677
1.699e-05
9.539e-10
3.232e-06
3.217e-08
0.002499
8.264e-06
0.0007419
8.797e-06
0.0003904
1.023e-05
7.033e-07
0.006472
2.78e-05
0.0004274
8.5e-05
0.0001413
0.006632
0.0048
0.0004314
2.084e-09
0.0004634
1.879e-09
0.0007616
0.003722
7.226e-05
2.282e-05
0.0001892
1.494e-06
9.772e-05
0.001717
2.527e-06
3.431e-05
0.0004345
2.32e-05
1.425e-16
2.056e-06
0.0003929
0.0003262
0.0001281
0.0001104
6.556e-09
2.547e-05
0.0004202
0.0001866
9.697e-05
0.0008245
0.006678
1.744e-07
1.799e-05
4.471e-06
0.006641
0.006678
2.807e-10
0.0001136
4.404e-08
0.0001488
2.339e-06
0.002138
1.807e-05
1.79e-08
9.665e-06
7.414e-08
0.006692
0.006668
6.668e-06
1.249e-05
2.804e-06
4.839e-06
5.696e-09
0.002461
1.094e-07
0.0001317
0.002163
0.003869
4.089e-08
0.0001708
5.469e-08
1.288e-15
2.197e-06
0.0003296
0.0007136
0.004762
7.746e-07
2.15e-07
1.296e-09
0.003771
0.001276
0.0003925
1.059e-08
0.0004537
3.063e-07
0.003464
1.001e-07
5.861e-07
4.258e-06
0.001603
5.561e-05
3.283e-20
2.144e-05
0.000168
5.374e-07
2.806e-06
3.383e-07
0.006687
0.0002864
0.003778
0.0004483
0.003546
1.456e-09
3.248e-05
4.524e-09
0.003441
1.948e-05
0.0002868
2.294e-05
8.465e-05
0.003887
0.0006779
6.84e-06
2.208e-06
0.000916
0.002241
0.0004052
1.106e-06
0.003199
6.654e-06
4.751e-05
0.0001257
9.468e-05
3.433e-05
2.181e-06
1.129e-09
9.982e-06
0.006611
0.0006681
0.00239
2.031e-09
2.016e-08
3.003e-05
0.00198
6.359e-07
0.006624
0.0001193
2.678e-06
0.0004086
2.156e-11
0.0003998
6.055e-06
0.0005109
0.000871
4.53e-05
0.006697
3.649e-17
0.0001572
0.0002528
5.178e-07
0.0004932
2.264e-05
4.117e-05
1.349e-07
0.006681
0.003548
3.163e-05
0.003725
2.346e-05
9.197e-07
4.793e-07
3.732e-06
0.00666
0.0007964
0.0004029
0.006692
0.006657
0.0001433
0.002209
0.002496
2.971e-05
0.0005012
3.542e-13
1.791e-05
8.179e-06
0.006679
0.0003162
0.0001535
8.991e-08
1.225e-08
8.287e-06
0.003412
0.005788
0.001098
6.879e-10
0.006679
0.000129
8.18e-09
8.105e-07
8.668e-10
0.005764
0.0009293
7.062e-07
0.006693
2.19e-08
0.00668
1.956e-06
3.042e-09
5.467e-05
0.0003995
3.386e-10
0.006679
2.965e-06
1.977e-05
1.913e-08
3.777e-05
7.196e-09
7.409e-09
3.266e-05
5.88e-05
1.12e-05
8.082e-13
0.006693
0.0008499
4.035e-08
9.968e-08
9.011e-05
4.056e-11
0.003482
0.0001542
3.906e-06
7.486e-10
1.082e-10
3.274e-06
1.667e-14
7.196e-07
7.986e-14
0.0001
7.773e-07
0.003618
2.877e-11
0.0007221
3.388e-07
0.00489
0.005041
0.0006649
0.000428
0.0002158
0.002599
6.91e-07
7.463e-05
0.000428
1.907e-07
4.859e-07
0.005826
0.002956
0.000175
0.0004953
2.05e-06
8.816e-12
0.00055
9.434e-06
6.346e-07
0.001134
1.33e-05
0.006689
0.0003557
5.569e-08
0.006411
3.365e-06
0.000206
0.002412
0.006665
0.002385
0.002284
4.957e-14
1.546e-05
7.883e-12
0.0009416
8.298e-06
7.323e-07
4.217e-08
1.3e-05
0.00555
1.62e-09
8.481e-06
0.005394
8.674e-06
1.234e-11
0.001475
1.796e-06
1.026e-05
6.848e-05
8.874e-09
6.096e-14
1.069e-07
0.0007958
0.006694
8.408e-06
7.496e-06
6.116e-05
3.859e-06
6.079e-07
2.508e-09
4.148e-05
4.244e-05
2.359e-09
0.0001533
1.094e-08
0.006689
0.000758
3.228e-06
0.0009005
2.835e-05
0.0006852
0.006692
0.002106
1.033e-06
4.131e-05
6.424e-05
7.684e-08
8.238e-06
0.001593
0.0004731
5.549e-05
3.112e-05
1.465e-12
0.0004366
5.056e-08
1.812e-06
7.787e-06
0.001577
6.234e-07
2.585e-05
8.284e-07
1.079e-10
0.0006405
0.006687
0.006684
0.0008386
0.0005766
7.76e-05
0.006703
7.034e-06
0.0007299
6.573e-05
1.016e-05
0.0005681
5.427e-06
2.316e-06
0.006705
6.844e-05
5.591e-05
1.809e-10
7.113e-09
0.0002902
1.091e-05
0.0009059
2.805e-06
1.574e-07
2.183e-06
0.002716
6.073e-06
2.881e-07
0.0001154
1.659e-09
0.006473
7.001e-10
3.284e-08
0.002464
0.0002541
3.942e-07
0.003979
1.099e-10
1.499e-12
0.00627
0.00669
0.0003267
0.0005583
4.567e-12
7.893e-05
3.57e-07
8.908e-08
2.927e-06
7.057e-05
9.93e-05
0.006516
1.755e-06
0.001307
9.827e-06
4.863e-05
3.443e-07
0.0002636
0.005369
2.723e-12
0.000158
0.006691
3.766e-05
0.005633
0.006687
3.818e-06
7.881e-05
9.369e-11
0.006687
2.43e-08
0.006694
7.207e-07
9.456e-05
0.003213
1.823e-05
2.836e-08
5.766e-08
1.74e-06
1.31e-06
0.003511
0.0009671
0.000889
1.564e-07
2.286e-05
4.066e-06
1.827e-10
1.509e-06
1.609e-11
0.0001931
6.435e-08
2.427e-06
8.738e-08
1.007e-09
5.209e-06
0.003676
0.004151
1.037e-05
0.0001796
5.52e-09
0.002725
2.818e-07
0.001308
5.473e-07
7.006e-07
0.0003338
9.658e-05
7.798e-07
0.001828
5.473e-07
7.78e-05
1.859e-08
3.503e-05
0.006531
2.961e-06
9.972e-06
0.006694
3.477e-05
2.158e-06
0.00668
3.98e-05
7.367e-05
0.0004002
5.104e-06
0.001089
0.000146
0.0001037
0.006674
3.464e-05
2.018e-05
0.006703
6.88e-06
0.0001382
0.0007408
1.517e-05
1.53e-05
0.0004405
3.678e-06
1.737e-10
2.902e-08
9.153e-08
0.001131
2.72e-11
0.002562
2.509e-07
0.006692
0.0003037
5.643e-06
7.817e-05
6.948e-07
3.736e-06
1.672e-08
0.006698
7.199e-13
2.097e-07
5.952e-07
9.041e-07
2.673e-08
0.001924
0.003845
5.567e-09
6.1e-07
6.208e-05
7.495e-16
0.0003923
2.025e-07
1.148e-08
1.68e-07
2.056e-06
0.0001893
4.494e-08
4.682e-07
6.923e-05
0.0003916
5.535e-08
1.045e-07
0.001339
9.104e-12
0.0001081
3.827e-07
0.0001279
2.357e-08
0.00665
0.00669
0.0007073
1.299e-11
0.0006328
0.001754
1.038e-10
2.127e-06
0.006693
1.153e-09
3.625e-07
0.0004574
6.102e-11
2.575e-05
0.000158
1.172e-15
0.00225
6.798e-09
0.001182
5.369e-07
3.038e-08
7.446e-08
1.109e-08
8.832e-06
2.727e-05
0.0001383
0.00205
5.239e-05
5.164e-05
2.357e-05
5.807e-07
0.002288
1.362e-08
0.00115
7.72e-05
0.001734
3.949e-06
2.013e-05
1.004e-05
9.058e-12
5.068e-05
2.712e-09
9.534e-08
8.452e-05
0.0001376
0.006694
0.001581
0.0002957
1.956e-05
6.359e-08
1.211e-08
7.281e-09
0.006681
5.07e-08
2.68e-06
0.0004423
3.551e-12
0.0001967
0.00296
5.149e-06
0.002382
3.742e-06
9.306e-05
1.73e-10
8.347e-05
0.00148
0.001107
0.0067
9.394e-13
5.408e-12
0.0002909
6.672e-05
2.915e-05
0.006487
0.006653
3.056e-05
0.001015
0.003509
7.538e-05
0.00302
0.00296
1.473e-06
0.0003878
0.002004
2.472e-05
1.238e-07
2.334e-12
2.915e-05
5.598e-09
0.0001341
1.316e-05
0.006655
8.04e-08
0.001296
1.235e-06
1.112e-12
0.0003442
0.002228
6.579e-05
9.168e-07
0.0006227
7.1e-13
0.001845
0.0002748
0.002035
0.002082
2.907e-05
1.222e-07
3.858e-13
6.004e-05
7.021e-06
0.006675
1.521e-07
9.737e-08
0.006669
8.354e-08
2.182e-06
0.000142
4.639e-08
0.006683
2.188e-05
1.903e-14
0.003961
2.631e-07
1.765e-06
5.374e-07
1.716e-09
5.119e-05
3.161e-05
1.203e-05
1.891e-09
0.0001132
6.056e-05
1.685e-05
7.252e-07
1.37e-08
3.851e-09
6.709e-06
0.0001391
0.006691
5.211e-05
0.003109
1.917e-08
1.176e-06
0.002359
0.0001164
0.006693
7.702e-05
1.626e-05
0.006613
0.00248
0.00615
8.511e-09
0.002453
2.27e-11
4.088e-05
0.0004022
1.527e-07
0.0004683
3.305e-07
6.586e-08
3.135e-14
0.0001463
2.987e-05
0.0004695
0.0006783
0.001292
0.006702
0.0002949
0.001159
0.001348
0.006699
0.001971
0.006685
2.135e-05
0.0001258
0.006679
0.006687
5.308e-05
8.039e-05
5.478e-07
7.791e-05
0.006693
9.829e-06
0.0003895
6.117e-05
7.038e-14
1.758e-08
1.406e-11
1.86e-07
1.466e-06
8.424e-08
1.789e-07
0.0004263
0.0001585
7.208e-10
0.0009275
3.084e-07
3.441e-06
0.0002929
0.0003097
0.003812
0.006687
3.289e-14
0.0002391
1.274e-09
0.006693
1.466e-12
3.864e-07
6.931e-08
0.0001318
0.006638
0.006638
0.000682
0.00163
0.002004
0.001806
6.993e-07
5.141e-05
4.624e-06
0.002298
4.159e-05
3.853e-09
1.905e-06
0.0001988
0.0005765
2.829e-05
1.059e-06
1.129e-06
6.713e-07
7.583e-08
0.0007618
0.002462
0.0001961
0.0001309
4.393e-11
0.0004175
0.0004417
1.162e-06
0.002147
2.738e-07
0.0003671
3.768e-07
0.002596
0.006692
0.0007241
5.378e-06
8.678e-13
1.265e-09
7.539e-05
0.0001614
2.529e-07
0.0001122
0.006617
2.043e-07
6.135e-06
1.006e-13
4.275e-05
1.312e-11
0.0001694
0.006687
4.278e-05
2.339e-06
0.001848
1.18e-05
0.001112
1.19e-05
9.247e-07
0.0001739
0.0007294
1.779e-08
0.0001446
5.681e-07
4.037e-07
3.335e-08
0.003172
0.00317
7.685e-08
8.581e-06
2.012e-13
2.696e-06
1.81e-08
2.168e-08
4.079e-14
0.002293
1.891e-05
0.0003539
0.003386
0.006686
0.001079
0.006278
2.381e-12
0.006692
1.158e-09
4.011e-05
6.28e-06
1.359e-06
5.361e-08
0.002453
6.671e-10
6.496e-05
5.891e-07
0.0008041
3.274e-09
0.006692
8.959e-05
1.427e-06
0.0009509
1.895e-07
3.672e-06
0.0003879
1.908e-07
1.098e-07
0.0002003
0.006662
1.349e-08
0.002498
0.006662
5.432e-05
7.311e-08
0.006661
2.397e-09
0.006694
0.0005433
0.0003207
0.00127
6.291e-07
0.00666
0.0006438
2.541e-06
0.0001748
2.639e-05
8.894e-06
3.607e-05
0.006693
0.006681
0.0003468
2.073e-13
6.23e-06
4.416e-07
0.0008205
2.062e-10
7.32e-05
4.855e-05
0.00285
1.799e-05
2.955e-05
6.086e-08
0.0005885
3.75e-07
0.001016
0.0003494
0.006703
3.968e-06
7.688e-07
0.0005505
6.794e-07
1.223e-08
3.15e-05
0.006678
0.0004299
2.914e-09
4.975e-06
2.111e-12
6.549e-09
0.00249
0.0004018
1.234e-05
2.748e-10
0.0004
8.947e-08
6.628e-09
0.00273
4.171e-05
0.00669
0.0001053
1.792e-07
0.0002234
0.006693
1.287e-05
0.006693
0.000103
2.796e-05
0.006692
0.002801
5.898e-05
8.095e-06
0.001125
0.002079
1.042e-07
0.006696
6.599e-08
2.099e-09
5.108e-05
0.003826
1.885e-07
0.001009
0.0003531
0.0004255
1.806e-08
3.203e-06
0.0003759
2.332e-08
0.0002723
6.349e-05
4.324e-09
0.0001861
2.84e-05
1.923e-06
0.0002327
1.059e-07
0.0006395
9.766e-06
5.423e-07
0.0002993
0.002112
4.646e-07
0.002211
0.0002158
6.853e-05
1.905e-12
0.0001724
3.381e-11
8.375e-05
0.006663
3.452e-11
2.811e-07
0.0001078
7.588e-08
0.0004994
0.0004766
0.006705
0.001819
1.664e-10
0.001281
6.88e-06
9.054e-07
2.491e-07
0.006695
7.404e-07
7.395e-06
9.743e-06
1.729e-07
0.0004829
5.371e-07
2.459e-09
0.006689
0.0002254
0.0003235
0.002648
0.0002885
3.124e-05
3.552e-05
5.59e-06
8.637e-05
0.001178
0.003074
5.284e-05
0.0002383
0.006534
2.619e-05
5.156e-08
4.421e-11
0.0067
1.209e-05
1.434e-10
0.002104
4.643e-06
0.001983
2.841e-07
4.299e-11
0.00292
0.002381
0.0002206
0.0009828
1.508e-06
5.265e-06
0.0009304
1.226e-09
5.568e-05
0.0005022
3.463e-05
6.378e-15
1.852e-14
0.0002279
0.0001894
4.627e-05
7.698e-05
0.001179
8.62e-06
0.0008671
3.926e-07
4.257e-05
6.533e-05
5.595e-07
2.558e-10
0.0005486
9.129e-05
0.005816
2.712e-07
9.15e-05
0.0003157
1.318e-05
6.467e-05
2.917e-07
0.000226
0.003366
0.006674
4.422e-08
6.764e-09
0.0004984
1.197e-05
0.001023
1.367e-12
9.346e-08
0.000168
2.29e-05
1.544e-08
0.0006944
3.585e-07
5.388e-13
0.006612
7.412e-10
3.761e-07
2.358e-07
0.004885
0.0007101
0.001682
2.369e-08
2.015e-05
0.001599
7.958e-09
0.004907
5.29e-06
1.553e-07
0.000146
0.002004
0.005442
6.61e-08
5.05e-09
3.772e-07
1.272e-08
7.593e-10
0.0007402
1.877e-11
0.002445
3.863e-07
1.7e-05
0.002722
0.0001033
0.003891
1.934e-06
0.001095
4.339e-07
0.003042
5.551e-07
6.787e-14
1.551e-11
0.0001744
0.0003911
3.174e-05
1.204e-05
0.00174
0.0001825
0.0001771
7.614e-05
0.006702
5.701e-07
3.871e-07
1.343e-07
7.517e-05
1.201e-05
2.375e-07
0.0006758
1.092e-07
1.799e-11
8.296e-10
0.0001168
4.664e-07
1.163e-13
0.001761
2.515e-07
0.002858
7.178e-06
6.948e-06
5.079e-16
9.149e-06
6.819e-06
0.003472
0.0002372
4.946e-08
0.0001309
0.006101
0.006698
0.001264
7.051e-09
0.001561
3.999e-07
1.436e-11
1.615e-06
0.002014
1.179e-08
0.002566
0.0001193
8.929e-10
5.814e-05
0.003246
0.0003866
0.0001068
8.444e-05
0.0001548
0.006696
3.145e-06
0.003358
8.143e-09
0.002596
1.32e-07
1.554e-08
4.256e-05
1.154e-08
0.0006432
4.135e-07
3.718e-07
4.105e-07
1.755e-05
0.001475
0.000169
0.0003965
3.132e-06
0.0001089
1.227e-08
1.862e-06
0.006702
0.0001017
0.003085
1.449e-08
9.12e-07
0.00215
0.001341
6.599e-05
3.872e-08
0.003362
9.657e-05
0.0007671
0.0002928
0.002216
0.0009169
0.0001452
2.879e-11
0.0001118
0.0003114
5.035e-07
0.006671
0.00111
6.236e-05
9.327e-05
0.001737
0.006687
8.985e-05
2.724e-07
7.67e-07
0.006693
0.0009606
0.002461
4.21e-06
2.184e-05
0.001082
0.0003935
0.0003848
1.496e-08
6.553e-08
0.00171
1.391e-06
0.0004955
0.0001236
4.238e-07
3.828e-12
0.002287
1.107e-08
1.039e-07
0.002003
2.11e-12
0.005817
0.006662
1.234e-05
4.526e-05
8.06e-14
0.006693
0.001608
4.719e-07
3.795e-13
1.857e-06
2.647e-08
0.006293
0.006377
8.333e-08
0.0001337
0.0004054
2.186e-06
5.319e-05
0.001254
0.0001019
0.006705
1.304e-08
2.646e-07
5.614e-07
0.000586
9.038e-10
0.0004786
2.169e-05
0.006674
9.489e-06
2.687e-07
1.187e-08
5.82e-08
0.0001363
6.605e-10
9.912e-06
0.0003099
5.144e-07
1.05e-05
0.0001044
0.0001182
1.158e-06
7.838e-09
0.00479
0.005033
4.076e-06
6.824e-05
1.553e-10
9.025e-06
6.49e-08
9.704e-05
0.002437
0.006693
7.201e-06
0.006702
0.0005231
8.404e-12
2.468e-06
9.814e-05
1.232e-06
0.0001352
4.013e-10
2.14e-07
0.00292
7.172e-06
1.052e-05
4.448e-07
0.00079
2.091e-06
8.449e-05
0.0002893
0.0004622
0.0002314
5.153e-06
0.001344
7.215e-09
4.081e-07
0.0002309
0.0001306
2.741e-09
0.0001534
9.53e-06
1.182e-06
9.362e-07
7.441e-06
5.744e-06
1.758e-11
0.0001014
4.824e-05
0.001439
0.001426
0.006703
2.647e-07
0.002835
1.878e-11
1.371e-05
4.301e-05
8.622e-08
3.159e-13
9.884e-09
0.0005435
7.533e-07
2.58e-08
1.436e-08
0.002146
0.0007397
1.903e-06
3.965e-12
6.091e-05
0.000203
7.488e-05
7.481e-05
0.006526
0.0008501
5.97e-09
2.775e-05
3.216e-06
0.002197
8.609e-05
5.135e-08
0.006651
0.000535
9.367e-05
0.001364
1.808e-08
7.897e-05
3.571e-05
0.003282
4.797e-05
3.817e-07
2.939e-06
5.713e-11
7.116e-07
1.673e-06
0.006679
0.0003013
1.065e-05
2.662e-08
4.18e-08
1.66e-06
0.003329
0.0002268
0.005688
9.641e-08
6.619e-08
8.055e-06
6.274e-06
0.0004606
3.7e-08
2.439e-08
1.179e-07
3.775e-06
3.549e-05
1.504e-06
1.101e-08
0.003666
8.627e-05
1.27e-11
0.00267
0.0002148
0.004384
0.006699
4.507e-06
0.002731
1.313e-06
1.554e-06
0.0003265
0.000888
2.291e-08
3.913e-08
5.149e-05
2.284e-07
6.215e-05
0.001589
9.397e-13
0.000476
9.15e-05
0.002341
5.811e-12
0.001592
2.799e-09
8.427e-11
0.003473
2.873e-07
3.022e-08
3.618e-05
0.001268
7.304e-08
8.025e-07
8.193e-08
0.0006797
0.0004188
0.0001775
0.004033
0.006701
4.419e-05
0.001317
2.306e-05
6.863e-06
0.0003336
1.649e-11
0.001115
0.004746
1.556e-05
0.0003199
0.001493
1.098e-06
0.0003592
1.033e-06
2.563e-08
6.737e-09
3.314e-11
1.179e-05
2.091e-07
6.923e-06
0.000104
1.903e-05
2.171e-05
3.691e-12
2.087e-05
5.379e-07
8.759e-06
0.006686
5.075e-05
9.07e-06
0.001178
3.902e-05
2.767e-11
8.626e-07
7.249e-07
0.0006533
0.0003506
1.14e-08
0.006697
1.178e-07
0.002125
0.0001093
4.691e-06
4.562e-08
0.006702
2.889e-05
0.001271
1.367e-05
2.715e-10
1.931e-05
0.0002064
4.034e-13
0.0002906
2.009e-07
0.006673
0.006645
2.419e-07
0.000502
2.058e-05
2.516e-06
5.026e-07
0.006686
3.078e-08
1.079e-08
0.0005252
0.0067
0.003956
0.0003757
0.0002282
2.368e-07
7.227e-15
3.542e-08
0.005586
5.416e-08
1.284e-10
9.036e-05
3.203e-08
1.555e-07
0.002614
8.11e-05
7.182e-08
0.001134
0.0005572
0.006634
0.006589
0.006614
0.006278
0.0001675
0.0008383
5.719e-06
7.08e-08
1.805e-05
4.618e-05
0.0005699
3.228e-07
0.006115
0.0001325
0.0003008
5.052e-07
6.12e-07
1.969e-07
0.0001313
7.612e-07
1.023e-07
0.0006291
4.014e-07
0.0002167
4.87e-07
1.255e-13
2.464e-07
4.264e-10
3.806e-06
1.541e-06
0.006693
5.017e-12
0.0001258
9.196e-08
1.746e-05
0.0001346
5.801e-12
0.006693
0.0002088
1.438e-06
0.004309
0.0001176
8.281e-05
0.001135
0.0001755
9.481e-09
6.969e-05
6.778e-07
0.006624
7.628e-06
7.642e-06
1.268e-05
0.001054
3.583e-06
0.006683
0.004677
3.87e-05
1.842e-05
2.859e-07
0.0001435
0.0009825
6.708e-05
5.543e-05
1.801e-08
9.843e-08
0.00177
0.002528
0.0008356
0.0001408
0.0001141
7.949e-13
3.534e-06
0.006692
1.575e-10
0.006695
0.006692
5.939e-05
0.002444
2.944e-09
0.0009392
1.332e-08
0.000454
7.983e-08
0.006695
0.0001118
3.462e-05
1.886e-07
0.00183
0.003492
6.31e-05
1.341e-10
1.583e-08
0.006702
1.731e-09
1.233e-08
3.563e-14
0.002857
0.001991
0.001235
9.581e-05
0.0005942
0.002189
1.788e-06
1.16e-10
9.193e-06
3.285e-08
1.247e-13
0.006693
6.791e-08
1.229e-07
5.419e-07
0.006693
2.029e-08
1.367e-11
3.128e-13
1.716e-12
0.0001029
0.0004088
2.433e-12
0.0003271
7.248e-05
0.006687
0.001042
5.357e-07
0.003044
4.175e-06
1.687e-12
7.919e-05
0.0002213
2.65e-06
0.006706
0.005542
1.03e-07
5.612e-07
0.00284
4.295e-08
0.0001424
0.0001003
0.001492
0.0006227
3.195e-05
0.0001578
0.006693
0.0003408
0.000369
1.848e-07
2.673e-06
1.166e-06
1.014e-07
1.277e-06
1.06e-11
4.918e-12
7.036e-16
6.989e-08
0.0001789
3.16e-08
0.0003494
1.422e-08
1.196e-08
0.006693
1.663e-13
0.006705
1.649e-05
2.844e-09
4.317e-09
0.000133
1.539e-06
7.253e-06
6.085e-07
0.006631
1.037e-13
0.0001394
0.002843
0.001607
0.0001614
4.787e-12
2.751e-11
4.271e-12
0.001676
6.128e-08
5.427e-08
0.001069
2.497e-05
5.682e-07
1.784e-09
0.006668
0.000181
8.286e-07
0.0001154
1.047e-06
0.0006108
0.003076
4.776e-10
3.553e-07
4.166e-07
3.484e-11
0.003176
1.364e-09
3.949e-05
1.334e-06
2.096e-05
0.00646
0.0001003
1.665e-06
2.947e-06
1.928e-05
1.186e-11
0.002863
0.004127
2.703e-05
1.541e-07
1.701e-08
0.0005187
0.003304
0.006435
0.0002795
7.438e-09
0.006339
3.869e-06
9.122e-08
9.592e-05
5.481e-05
0.0004666
4.206e-11
6.798e-12
1.559e-12
8.442e-05
5.554e-08
0.0001208
7.423e-05
0.001898
0.00224
5.226e-10
0.001316
1.234e-08
1.361e-07
1.444e-08
4.181e-07
3.804e-05
8.367e-12
0.0009267
7.302e-07
0.0006297
0.003142
1.131e-06
0.0001351
0.002034
3.676e-06
6.211e-07
0.0001661
7.595e-07
1.361e-06
6.566e-12
1.194e-13
0.002661
4.573e-13
0.002153
6.412e-05
0.0001134
0.0001702
5.763e-06
0.006704
4.244e-07
1.048e-11
3.612e-06
6.442e-09
0.001185
0.0005689
5.279e-07
0.0001213
0.001354
2.484e-06
0.001594
1.009e-09
6.674e-05
0.005261
0.0001105
7.665e-07
0.0067
0.0004648
6.206e-09
0.006695
3.162e-05
2.439e-05
1.441e-07
2.119e-05
1.309e-09
0.002439
0.0005521
4.614e-05
2.978e-08
6.654e-08
4.951e-08
9.958e-07
0.006684
1.37e-07
0.006693
7.792e-05
2.442e-05
0.001133
1.995e-12
3.072e-05
3.443e-08
0.002304
8.135e-09
2.346e-05
0.002237
0.000682
3.758e-06
0.00667
3.238e-05
0.006694
3.753e-08
1.34e-07
1.627e-06
0.0001322
0.006634
1.29e-06
1.162e-07
0.0001083
9.109e-09
2.602e-05
6.668e-07
0.0005645
0.0003257
4.544e-05
4.193e-05
2.6e-05
2.498e-06
0.0001221
1.408e-05
0.0001064
3.86e-06
0.0001181
0.006623
0.006671
0.001947
0.0003242
5.328e-06
9.522e-07
2.091e-06
0.002313
1.924e-07
7.404e-06
3.35e-07
0.006698
8.199e-07
3.788e-05
4.974e-09
0.002794
1.837e-13
0.0004301
3.303e-09
0.003518
0.0001339
2.085e-11
0.0003257
3.883e-07
3.051e-07
2.08e-07
8.98e-06
0.000172
0.006694
3.035e-07
8.719e-06
0.0003097
0.000153
0.0003663
1.461e-05
0.0004186
1.01e-06
4.853e-08
0.006687
0.00102
1.644e-06
3.645e-09
6.729e-06
0.006701
9.27e-06
5.157e-07
0.0007534
0.0008385
7.202e-06
1.45e-07
0.0001914
2.25e-06
2.62e-05
0.002399
0.0001264
0.0003535
0.005284
5.097e-06
1.822e-12
0.0003449
0.0001409
1.005e-08
1.379e-05
2.321e-05
0.00669
0.0003185
9.546e-05
0.0035
4.077e-11
5.243e-05
0.006697
0.0009936
6.453e-07
3.53e-14
0.006697
0.0006533
6.913e-09
3.455e-07
3.548e-05
5.933e-05
4.479e-08
0.0001659
3.333e-06
2.893e-08
9.965e-11
1.479e-07
0.001942
0.000218
0.0006432
7.414e-05
0.006683
6.318e-05
2.063e-05
0.000871
7.423e-06
2.632e-12
1.318e-09
0.002093
1.084e-06
7.985e-11
0.002142
9.825e-08
0.0006513
3.552e-05
7.488e-05
5.331e-09
1.709e-11
0.006688
1.607e-05
6.372e-07
0.006697
1.613e-08
0.0009644
1.031e-05
0.000154
0.0003965
2.894e-08
9.644e-06
4.16e-06
0.006705
0.002752
0.002074
0.0001358
0.006692
7.89e-05
0.0003568
1.174e-08
0.00285
0.001068
1.205e-07
4.32e-09
0.001889
0.0002844
0.006678
1.387e-11
1.216e-05
3.801e-08
6.088e-08
8.636e-05
2.632e-07
5.73e-05
3.748e-05
2.295e-12
0.003802
5.134e-11
0.006673
0.006685
0.0004012
4.583e-05
0.006683
9.323e-13
3.267e-07
1.551e-07
3.363e-08
9.121e-05
0.0003719
0.004908
7.626e-13
0.0008744
9.31e-07
0.006671
1.926e-05
0.0001186
0.0003367
0.0002615
0.0003548
0.003196
5.099e-06
0.006656
0.0002899
1.177e-07
3.593e-08
6.324e-09
0.0001014
0.0006036
5.918e-06
0.006699
8.769e-06
8.329e-06
0.0001499
0.0002221
0.0002948
5.654e-11
0.005954
0.006683
3.593e-06
4.487e-07
0.002395
1.9e-08
0.006701
9.727e-08
6.553e-05
6.025e-07
0.006701
7.218e-05
1.662e-08
2.606e-07
6.195e-08
0.0007012
2.567e-06
0.006682
4.86e-08
0.004657
1.153e-06
1.178e-12
0.002444
0.0001413
0.001658
1.543e-07
9.957e-10
4.997e-06
9.079e-05
0.006657
0.0003144
8.883e-05
0.00669
1.074e-05
8.965e-07
0.002028
0.0067
0.0001274
9.558e-05
0.0001646
2.335e-07
0.0001298
0.006695
2.952e-07
9.305e-07
4.823e-06
0.0006356
0.006696
0.006691
0.0006317
0.0004532
0.001538
4.565e-08
1.839e-12
2.585e-11
1.005e-06
6.087e-11
1.172e-09
0.004392
4.067e-12
0.0002206
8.929e-08
0.003222
7.03e-05
2.113e-05
7.214e-08
1.555e-06
4.208e-09
4.259e-06
0.0003067
0.0005433
2.053e-07
6.649e-07
1.119e-05
9.933e-05
7.46e-05
3.964e-05
1.501e-07
0.004139
0.0004476
9.619e-06
2.504e-05
1.022e-05
1.47e-06
1.318e-11
1.867e-08
0.006662
6.966e-10
0.0004048
0.006662
1.954e-06
0.006694
2.046e-07
0.0001812
0.002537
7.142e-06
6.134e-07
0.006707
3.063e-05
0.003021
1.463e-10
0.0009055
1.562e-05
3.826e-11
2.705e-05
0.006688
3.266e-09
0.0005071
0.0005401
1.692e-05
0.002032
3.077e-07
2.536e-12
4.668e-08
0.0002031
0.001735
1.867e-05
4.934e-06
0.006689
0.0002222
1.889e-07
5.254e-07
0.0001152
0.006701
9.468e-12
2.617e-07
1.796e-06
0.0001445
0.0003334
0.0001695
0.006657
0.0001831
2.137e-06
2.976e-05
4.126e-05
3.811e-07
3.161e-08
0.00242
7.842e-06
7.931e-06
0.002018
5.37e-05
0.002922
1.993e-06
7.5e-05
8.424e-06
0.0067
2.171e-07
0.002319
0.0004207
2.57e-05
3.97e-05
1.006e-07
0.0001618
1.405e-14
0.001304
2.077e-05
0.00206
0.006679
2.118e-05
2.885e-06
2.456e-09
2.564e-07
3.477e-05
6.507e-08
1.002e-08
0.0003977
2.324e-05
0.0002182
9.794e-08
2.432e-10
0.0003783
0.0001109
5.088e-09
4.781e-05
1.207e-08
6.82e-06
0.00189
0.0009301
2.007e-07
0.006693
9.632e-05
7.465e-05
0.00669
0.000238
4.943e-09
0.002143
7.693e-14
3.758e-08
7.502e-06
0.00669
0.0003824
3.857e-05
0.003361
0.0006297
0.0003262
8.329e-07
1.564e-05
8.746e-08
0.006696
8.251e-05
0.006686
3.933e-05
2.039e-05
1.77e-06
2.836e-05
1.021e-07
6.178e-14
0.006612
0.006692
2.07e-06
8.052e-07
8.287e-09
9.512e-05
0.0001232
2.696e-08
0.001067
0.001641
0.002413
8.113e-07
6.449e-09
2.548e-05
0.0005025
0.006687
1.126e-06
6.183e-05
0.0003048
7.127e-08
7.779e-05
0.00186
1.146e-07
0.0001266
0.0003805
2.74e-06
8.428e-05
0.0001291
0.006688
0.006534
6.546e-08
5.403e-08
3.887e-06
0.003883
0.0001139
0.002872
2.886e-07
5.237e-06
0.006606
8.276e-06
1.976e-05
3.523e-13
3.137e-08
1.425e-07
0.006681
5.88e-08
5.16e-07
1.001e-06
1.15e-06
1.081e-11
2.209e-05
0.0004201
5.027e-07
8.542e-07
3.4e-08
1.755e-09
0.00208
0.002771
0.003821
8.591e-05
1.008e-13
0.0007597
0.001924
6.337e-08
2.212e-06
0.001644
2.676e-07
0.0003117
1.513e-09
0.001318
6.156e-07
0.0005779
2.718e-05
8.681e-06
3.649e-13
0.0006211
3.816e-11
1.837e-11
0.006692
3.433e-11
1.999e-06
8.937e-09
1.057e-07
0.0003623
0.001208
5.007e-05
6.209e-07
8.699e-06
4.425e-05
0.001114
0.0009624
0.0003363
0.0008853
0.0001373
1.593e-05
6.67e-05
0.001031
1.715e-11
0.0003619
1.843e-08
5.536e-07
5.668e-08
0.00665
2.417e-06
0.0001531
3.767e-08
0.001503
2.163e-11
1.439e-05
2.056e-07
9.28e-05
3.382e-08
8.304e-05
0.000876
0.0004464
0.0002262
8.79e-05
0.0006538
3.845e-06
0.0002102
2.34e-05
5.121e-06
2.275e-07
0.0004579
2.085e-11
4.797e-06
1.279e-11
3.84e-05
0.0009611
6.629e-05
0.002279
0.0001281
3.443e-07
0.006694
0.002963
0.006693
0.000304
3.595e-07
1.971e-05
0.001325
7.868e-06
0.0005156
5.734e-05
1.854e-12
2.717e-09
2.019e-11
2.45e-07
9.199e-05
3.074e-08
4.908e-08
0.0001475
2.08e-07
0.006695
0.000434
0.003514
8.083e-06
0.001343
0.00668
0.006683
9.238e-05
0.002486
0.0001468
1.196e-12
2.985e-07
0.006673
0.006693
8.81e-07
0.0002716
5.063e-08
1.51e-10
0.00522
3.513e-05
6.468e-06
1.821e-07
6.753e-06
1.754e-12
8.95e-06
0.0001013
1.431e-06
1.397e-07
2.289e-05
1.596e-05
5.8e-06
1.334e-05
2.812e-08
6.469e-05
5.864e-14
0.005866
1.173e-06
3.433e-07
2.571e-08
0.006695
0.0004099
0.006693
0.00138
0.0009985
3.733e-06
0.0003888
2.592e-07
1.309e-06
0.0001082
1.268e-08
8.73e-08
8.073e-07
1.948e-08