/*--------------------------------*- C++ -*----------------------------------*\
  =========                 |
  \\      /  F ield         | OpenFOAM: The Open Source CFD Toolbox
   \\    /   O peration     | Website:  https://openfoam.org
    \\  /    A nd           | Version:  8
     \\/     M anipulation  |
\*---------------------------------------------------------------------------*/
FoamFile
{
    version     2.0;
    format      ascii;
    class       volScalarField;
    location    "25";
    object      omega;
}
// * * * * * * * * * * * * * * * * * * * * * * * * * * * * * * * * * * * * * //

dimensions      [0 0 -1 0 0 0 0];

internalField   nonuniform List<scalar> 
127143
(
3.821e+07
7.184e+07
8.194e+07
3.494e+07
2.933e+06
3.537e+07
1.159e+06
2.025e+06
3.234e+06
4.719e+05
1.704e+06
2.662e+06
9.642e+07
2.958e+07
387.9
7.926e+04
9.896e+06
14.71
8.848
3.253e+04
18.83
7.135e+04
0.08283
262.9
7.683e+04
1613
5982
5756
5122
13.17
404.6
1772
6352
1094
0.04258
6774
42.97
82.54
204.2
2128
8.905
0.4706
0.3355
1.373e+07
14.24
1095
4598
17.39
264
229
5.049e+04
0.02532
56.71
0.1941
0.02093
556.2
0.02091
0.3125
0.02222
0.1927
0.314
9.829
73.59
0.02211
375.6
0.3945
0.04768
89.37
88.76
0.0826
301.5
4079
12.64
0.02221
0.02179
4157
0.02294
27.38
547.6
0.02222
4772
2.902e+04
379
1326
14.14
23.89
158.2
4683
0.3349
639.3
0.02208
7.1
298.6
18.78
52.65
0.2735
0.4325
541.9
15.54
0.04712
0.02221
248.9
2783
4.713
22.79
16.05
87.94
0.08292
1.338
0.02132
292.7
5212
28.15
6.015
0.02175
1.426
0.02314
0.02179
0.02283
2.882e+05
0.02134
345.3
39.28
0.1505
4697
2757
10.61
0.02353
64.52
614.9
35.86
55.69
37.87
26.76
1.119e+06
34.04
0.05115
18.63
3549
0.04503
0.1182
0.02239
53.43
33.09
58.24
44.12
1.831e+04
0.02213
59.88
3689
9.97
235.6
88.01
0.06953
38.65
13.83
0.3129
771.8
17.03
656.6
289.2
9.342e+04
0.02209
35.62
1387
295.3
53.75
0.4954
902.9
0.02621
816.5
32.58
2.273
18.43
0.2678
41.58
25.61
64.32
230.3
0.03239
18.34
0.03159
38.83
40.77
607
9.775
0.08851
6.338
243.4
0.03192
43.29
58.83
0.04715
74.83
2.051e+06
11.92
0.01941
0.01935
2.222e+05
0.0218
0.02171
0.02624
2.211
38.42
1.109e+07
130.5
0.04787
18.18
12.34
0.02175
0.2292
17.48
0.02165
919.2
65.89
2.288e+05
2630
19.23
32.17
0.04812
16.9
0.02184
237.6
67.49
782.7
912
973.3
84.28
292.3
12.44
20.1
0.03143
12.15
1.971e+05
19.89
0.08313
35.59
4.482e+06
0.0217
43.85
56.16
215.3
25.73
754.2
126.9
2.284e+05
149.9
5817
1.703e+05
0.09993
3.045
1171
24.98
22.46
374
1.418
0.02349
1302
4.89
0.05428
13.62
0.02601
4.388
0.02232
109.7
265.3
148
84.23
0.6212
50.55
903.4
0.2647
14.28
43.33
42.07
43.49
27.67
194.1
0.4983
2.848
0.06839
0.6117
4.628
0.02175
0.02174
1.891e+06
42.63
0.02175
212.2
0.03374
86.95
0.2009
0.08276
3.538
0.02169
2.719
356.9
118.6
25.74
42.57
523.7
0.3499
0.2791
1.179
903.7
19.79
18.04
0.02166
21.96
20.1
98.18
764
635.1
0.05365
0.02173
383.9
78.04
533.8
0.2299
2.044
0.07803
327.6
0.02871
25.09
409.7
92.88
0.03128
110.6
339.9
15.89
11.23
0.02174
0.04212
0.01943
0.01936
0.06819
1.31
2.264
11.26
50.81
0.04423
19.24
65.51
44.08
8.027
212.8
169.5
37.06
490.4
73.93
432.2
9.924
44.32
43.69
0.02816
144.4
22.24
35.33
0.02336
343
12.03
60.23
20.21
220.3
223.1
0.02192
0.02179
1.42
396.3
0.5062
0.8979
0.02886
780.8
238.3
0.03034
0.07521
324.3
1.546e+05
15.01
0.5141
31.54
2033
394.6
0.3474
0.02305
1.27e+04
0.03669
1842
12.01
50.86
0.02187
0.1916
457
369.4
242.4
393
0.1952
345.4
0.02807
0.02568
1281
0.02184
21.09
36.91
0.03772
15.57
20.72
35.05
0.02222
209.8
10.51
527.2
0.119
15.46
26.04
50.98
19.77
1005
114.7
215.8
50.81
4711
85.32
0.07563
12.67
0.06197
0.2976
0.08132
181.4
0.056
0.02115
86.34
50.13
3.75
265.5
0.02192
20.13
142.5
0.02501
0.02168
0.02172
204.8
0.05186
1.681
0.024
517.3
0.02173
148.5
1.504
17.46
16.77
349.3
13.21
482
0.03678
34.5
592
145.5
29.26
79.78
30.8
71.46
33.6
2.275
68.08
0.201
0.02202
29.69
221.9
0.02078
13.19
2.646
0.151
79.99
0.04247
0.02028
33.22
1.778
380.4
92.15
5409
120
119.4
639.2
5.632
262.3
109.1
0.02164
526.5
0.02238
197.3
143
52.42
50.28
3.46e+06
41.65
2.075
0.1009
3.075
0.02167
5387
0.02205
33.1
12.05
5.043e+06
2.528e+05
8.19e+05
0.02194
142.8
293.7
0.02173
10.97
63.2
39.12
5.429
17.21
352.9
13.1
3472
0.1705
20.72
1.664e+05
286.4
496.9
656.6
0.02209
9.093
1.394
35.48
0.02201
627.8
3408
450
0.01965
29.51
0.08888
1555
7.986
1490
29.01
0.02248
161.3
5.608
0.02081
0.3489
101.8
316.6
218.3
237.3
448.2
12.02
139.2
152.4
40.25
80.9
0.02196
1479
30.87
580
45.5
22.32
0.02212
0.02207
0.05178
176.7
5.05
0.02173
0.0292
2.874
548.8
21.42
5.677
746.5
3025
1.513
0.02251
0.02134
449
14.85
57.17
0.03175
3933
32.41
67.38
0.5064
855.4
0.02173
19.64
31.48
43.55
0.02687
174.1
13.71
2.035e+04
0.02026
81.87
2528
0.02171
15.54
0.02175
158.4
95.38
0.02176
273.5
319.6
423.2
49.49
61.52
428.2
392.7
21.16
186.9
212.4
212.4
50.88
75.7
667.6
0.0268
526.4
0.02174
4.98
0.02383
55.33
0.02116
0.02175
0.4419
212.8
23.76
0.02137
0.02115
252.5
2123
269.6
474.3
10.22
1.617
16.5
11.84
44.37
127.9
435.2
0.0214
100.1
44.85
0.4075
29.8
0.02216
0.02915
97.88
2689
108.8
1.093e+04
0.02377
0.03816
45.57
119.1
0.02599
389.3
0.1145
0.08329
219.4
4.892
45.82
0.09365
8.656e+06
778.3
28.42
34.79
41.68
68.34
724.7
136.1
0.02447
58.91
128.9
20.87
0.02121
184.8
0.2872
0.1912
0.01963
0.02119
1.121e+04
0.1015
401.8
57.66
76.49
22.03
0.736
631.4
0.08382
359
0.02163
0.02089
4.004
0.06423
326.9
0.1841
1305
9.946
373.7
0.1505
20.13
0.03623
510.9
0.04268
386
1.213e+06
35.74
118.8
14.49
0.02831
61.75
217.2
8807
12.29
28.54
44.36
3165
20.12
277.8
8.427
292.4
78.6
19.98
10.54
0.2294
1.868e+07
0.2849
0.02599
107
55.66
140.2
0.02154
58.07
10.22
21.16
0.04094
1.159e+04
77.22
873.5
0.04538
153.9
49.96
131.2
75.6
0.03798
16.44
578.6
278
23.2
0.02183
66.72
60.21
0.02186
18.86
0.6272
64.5
41.12
0.3066
35.95
1516
119.7
0.01934
16.59
9.631
1484
508.6
0.2179
10.78
393.7
0.01938
37.21
218.4
89.05
1.37e+05
91.49
419.9
28.68
23.6
1.931
0.02193
1.397e+07
34.53
46.9
994.7
23.65
129.6
62.14
260.9
0.02132
10.29
4.753
0.03825
80.89
194.9
90.32
40.19
0.02048
15.97
45.55
0.02164
0.02043
30.2
9.854
10.21
122.8
19.62
4.925e+04
7.763
0.1638
0.02123
21.31
47.68
369.2
718.6
0.4344
0.05522
0.02199
2.483
4626
0.02125
0.1307
1715
60.84
1555
0.02557
23.76
65.95
0.0218
479.3
0.0212
81.67
4772
92.5
142.9
3357
0.02192
251.4
0.1036
606.6
245.1
768.7
4504
0.2162
0.4478
0.9066
2e+04
0.02178
67.41
516.8
749.4
136
5109
0.05305
0.1927
461
2171
1.134e+04
527.2
3.474e+05
379.8
6.393e+04
53.73
799.7
10.64
8851
0.02288
116
0.02721
0.0262
42.12
0.02577
49.11
14.66
5.17
1.071
0.03761
552
115.2
0.02187
18.98
38.22
0.03625
340.6
3.784e+04
35.19
15.06
307.3
39.21
184.1
0.02169
53.87
386.4
0.02318
259.1
30.3
9.91
0.02069
2.432
24.93
1.131e+05
2.684
3.826e+04
12.96
17.97
88.25
3789
138.1
0.02341
3119
0.3122
0.02425
2.044
1.213e+05
39.99
214.9
10.57
2.436
7386
5.832e+04
264.1
0.02247
0.02183
16.19
4.193
60.18
249.6
22.16
2038
184.3
0.07369
1997
0.04745
1917
0.0216
17.85
747.5
30.03
89.15
14.89
0.02177
0.02184
692
0.1476
103.2
263.5
260
13.08
120.6
109.8
103.5
1.54e+04
54.31
450.7
261.2
14.27
12.22
75.42
115.6
1529
4.459e+04
15.33
0.02154
0.02139
14.69
25.75
0.5124
0.02082
13.97
16.64
0.5141
201
105.7
156.3
1.813
0.02223
0.2356
0.5759
4646
908.7
52.42
0.2513
61.68
359.6
250.7
28.88
9.264
30.64
149.6
53.96
2394
0.02304
4766
4528
9.512
47.07
430.5
0.02176
1.148e+04
1.758e+04
0.02172
0.02154
49.4
21.88
1.624e+05
142.4
111.4
401.5
222.4
0.265
0.3311
0.02248
270.1
19.22
132.4
2.077
1936
29.79
0.02784
1.153e+04
71.18
0.02172
112.9
0.02503
0.02164
24.01
0.08906
1.222e+04
0.02157
477.5
0.02181
239
0.07606
17.34
7.421
471.4
327.1
263.1
41.98
0.05575
0.03469
31.81
204.6
136.4
175.9
3880
267.5
1.759e+04
52.88
385.6
211.6
307.6
1567
0.1243
12.11
0.04029
185.9
82.94
841.7
0.06489
361.2
12.53
93.13
107.4
43.59
0.7606
543.3
15.88
93.16
119.3
649.6
257.3
0.021
23.67
195.7
0.02182
103.8
318.8
0.02067
1.443
146.3
0.03374
0.1302
48.64
92.68
0.1422
0.01978
92.92
96.8
0.02164
0.09754
0.03028
16.26
122.9
9.594
0.03451
725
3.484e+04
512.4
266.9
11.83
8846
0.07681
164.7
0.02176
21.97
6.294
76.95
107.3
893.9
2620
0.02196
1.665e+05
590.4
453.8
57.14
1278
12.64
12.94
1029
74.87
0.03268
3.354e+05
33.39
261.1
729.3
190.5
90.66
75.4
1966
97.56
50.84
142.8
351.7
285
38.75
3.092e+04
0.09658
125.1
0.08656
492.8
0.0197
0.02165
85.08
1.129e+04
18.71
1.087
1.314e+04
429.6
0.0218
1761
111.4
127.9
3.858e+04
1.607
53.69
3.373e+06
19.44
3026
11.98
83.57
1477
294.1
666.6
5.926
132.4
0.07377
17.11
51
57.68
7.133
114
10.43
7549
15.79
0.2127
13.48
0.4397
0.5736
13.1
2.944e+04
0.0374
2670
904.5
67.89
35.47
0.0218
11.02
44.5
0.943
1362
728.3
883.7
0.02135
373.7
777.3
26.7
1.122e+04
116.4
12.64
322.7
0.02194
407
52.15
3571
70.15
0.0631
15.64
0.02172
4.124e+04
1.304e+04
31.95
0.4445
5.893
0.02086
0.01978
216.6
21.97
8.439
0.07575
0.05066
0.05216
3.201
21.89
21.24
101.9
244.6
1.338e+04
0.6541
784.6
69.59
106.6
0.01981
395.7
11.17
70.65
1.659e+04
101.1
11.66
48.81
59.81
26.55
5.176e+04
30.11
29.54
11.05
13.03
4.877
230.7
4.295e+04
0.1327
592.6
0.02118
257.8
1013
0.02031
1439
38.57
42.77
375.9
0.02138
0.6778
1.104e+05
0.02176
219.3
251.9
96.16
4733
0.5145
4.664
361.2
1480
37.34
90.87
0.05156
94.98
3113
6526
418.2
33.21
0.02169
123.3
12.22
610.1
124
9.679
35.59
0.02172
2.124
106.9
0.02204
9.883
0.02237
2978
10.12
9451
87.17
73.83
393.4
25.77
180.8
395.8
8.516e+04
38.21
71.38
79.73
22.32
14.02
0.02211
51.79
0.02215
11.03
0.022
12.6
0.02147
146.2
63.81
0.02067
0.02162
185.2
0.1473
420.4
0.08678
0.02005
5.071
23.6
0.03164
8.69e+05
1458
9.033e+04
181.7
39.23
280.5
184.3
41.48
0.7214
2250
23.79
635.6
280.2
44.55
80.89
8.605
0.02156
8.447e+04
30.53
2338
0.02179
1.513e+04
186.3
293.6
76.15
0.01974
0.01972
7.538
31.51
6.39
10.38
67.25
0.626
0.728
2.38
3.787
1367
78.24
0.7004
18.75
4.976
437.7
379.3
83.54
306.5
14.31
0.02194
77.98
97.83
5617
62.41
0.0339
72.29
1.306
154.2
47.32
573.6
16.06
0.02174
21.63
29.28
2.138e+04
4692
0.5158
34.37
535.3
0.1138
0.01972
818.3
187.7
7.833e+04
0.05601
3.13e+04
59.91
0.02153
88.04
572.9
11.19
0.105
18.97
341
58
75.23
47.92
1179
0.04005
218.2
566.4
473.7
0.05549
0.05536
324.1
7.777
7.517e+04
75.49
564.1
622.4
8.492e+04
1.412
148.4
0.02496
0.02178
0.0215
15.81
0.02276
2.367e+04
0.02173
3350
0.2403
18.95
249.9
435.3
0.09287
8014
0.2315
162.7
14.09
4622
0.02168
67.92
297.4
12.93
3822
711.6
19.97
830.2
1335
0.04431
0.0206
3822
0.07246
0.01997
0.2426
3228
0.0206
1430
0.02184
40.27
139.6
14.25
74.29
0.02091
18.5
272.1
85.71
0.06312
13.38
0.1457
0.02174
0.02122
46.97
1.537e+05
23.93
94.34
0.02431
1.047e+04
0.2774
0.0722
0.0599
1.187
71.79
393.4
0.02519
198.8
0.02232
43.72
0.02217
0.247
123.8
34.56
3.964
709.4
87.01
0.02119
92.06
1054
193.3
1.383e+04
744.1
12.69
0.03272
2.377
1.707e+04
72.65
912.2
9625
0.07352
0.1464
0.0216
76.19
196.6
80.91
0.0218
275.3
0.02175
0.1682
75.29
0.02138
12.08
0.4093
18.44
16.31
0.9346
286.2
0.0219
377.1
2631
3.267
8.553
175.2
0.04031
161.2
42.51
1447
50.92
40.45
477.5
41.9
82.43
3387
0.07021
0.1592
71.63
0.03346
234.9
17.12
0.08643
83.78
0.02418
0.328
1587
24.61
187.9
63.39
1.451e+04
42.76
5549
0.7811
0.02066
5625
137.6
0.0892
308.5
0.02725
76.61
0.02223
12.79
3146
12.9
6.816
69.28
148.1
0.02187
64.78
0.2476
4.699
486.6
0.02487
102.4
1132
0.02159
0.02538
52.64
0.0723
89.12
1.927
1.299
14.46
0.5456
18.96
0.07078
1.84
48.28
0.021
0.1471
567.4
1.479e+04
0.02088
160.3
4517
21.09
160.8
10.4
165.3
1.439e+04
0.0578
0.1105
67.83
0.02537
458.9
8.488
20.58
1856
90.14
0.02451
96.35
2.224e+05
8.321e+05
63.63
75.18
90.3
0.7909
15.41
12.47
23.63
541.9
177.6
167.7
172.1
7400
16.5
1.616
0.02172
660.4
1.783
22.74
0.1719
0.04103
144.1
64.51
11.49
0.02037
463.9
758.1
118.2
175.4
12.77
1.566e+04
288.8
0.02667
115.3
5813
22.24
111.1
2.572e+04
0.01939
2150
429.8
167
0.0275
19.2
11.71
520.4
152.9
15.25
741.5
0.03166
2.223
199
0.04843
12.19
0.0217
346.1
2637
156.3
805.5
1.184e+04
21.38
6515
0.1054
561.6
4.143
9.426
0.0365
10.54
31.97
17.59
123.3
0.06331
98.37
5.871e+04
1.572e+04
45.87
67.75
0.477
0.5967
0.02191
0.02573
67.85
0.2814
0.02168
80.04
136.2
241.9
106.7
12.26
198.4
67.68
1325
1.671e+04
1.821e+04
0.08193
97.48
4.583e+04
10.45
1773
14.33
15.33
43.67
5.816e+05
11.91
14.48
0.04281
0.05261
775.5
57.68
0.02174
0.02196
11.32
751.9
15.26
108.4
1.031e+04
7.848
0.02346
615.9
9.757
71.74
1566
0.636
6.951
58.32
46.73
0.6997
57.45
0.02188
532.2
8.661
667.7
18.41
218.7
2086
2.059
650.9
79.53
546.5
148.6
1699
0.08063
11.62
33.13
19.21
308.1
79.91
3639
287.3
0.02167
94.65
14.51
543.1
65.8
0.2581
30.71
0.08993
1798
0.04766
73.15
27.19
46.49
11.1
29.19
0.2269
1.607e+04
0.1771
0.02481
620.5
0.02091
16.86
0.03127
0.8341
10.77
0.02151
0.2395
214
1198
0.02176
0.02325
10.41
19.89
111.1
0.1855
93.99
39.91
746.3
369.5
31.27
155.7
119.1
0.0839
111
1.701e+04
9.949
2266
325.6
10.26
1.425e+04
0.02174
0.0206
0.8902
3.388
9.238e+04
0.0218
20.75
494
8.601e+04
244.1
487.2
0.01981
0.01949
309.3
58.75
42.36
31.07
0.03235
44
1.624
0.02222
611.8
167.8
80.67
32.47
1674
3.572
2.025
0.0198
12.4
191.3
646.5
419.3
44.5
5263
367.4
44.2
123.5
189.9
52.65
0.06497
124.7
3289
0.02789
0.02621
192.5
96.64
3872
1.145
537.6
70.71
0.1413
0.02173
4.847
0.02211
20.16
1.153e+04
16.54
0.1148
70.53
0.0435
6745
478.8
0.06531
15.04
12.38
94.33
23.63
63.95
54.18
44.51
30.82
30.54
18.23
11.58
1240
120.1
32.91
96.9
6991
71.69
347
380.5
2.639
1.301
21.62
6562
0.3309
94.35
0.02237
14.43
0.02214
148
9.125
6577
109.8
0.08058
957.9
5.372e+04
806.8
28.2
64.37
547.7
1430
0.2612
24.8
31.52
3.438e+04
52.93
28.19
0.2015
0.235
0.02175
36.61
5526
5.497
953.8
11.38
0.08517
1150
0.01972
80.58
0.3787
18.01
1054
0.1676
1.918
8.538
0.03785
195.7
25.92
1.776e+04
727.2
164.5
0.02142
32.75
132.1
2993
1175
34.92
9.268
48.28
0.02173
266.1
558.9
3.458
14.5
65.03
1654
490.3
343
37.14
0.5561
1.389
6888
12.35
0.07197
2.31e+04
0.06739
10.01
0.02175
0.02199
43.96
0.02193
530.2
64.38
26.3
32.32
483.9
1453
53.84
467.1
53.81
15.02
1.484e+05
21.67
42.06
2.009
5.788e+04
12.14
4827
5847
0.04271
549.4
461.3
4.323
13.02
3099
260.9
831.9
15.44
23.36
0.02641
9.145
0.02206
0.5553
12.48
279
98.59
75.72
9880
11.78
0.02192
164.3
23.21
34.11
47.09
26.73
56.58
450
1201
5145
146.7
206.4
474.4
38.91
132
0.06634
7.239e+04
143
83.25
1.15
0.02159
166.1
197.1
15.45
4.062
5506
496
200.3
67.72
38.06
2290
0.02165
4067
10.14
0.0369
30.01
468
0.02168
106.1
11.96
12.09
5744
7.509
51.28
5.813e+04
22.63
199.5
0.01969
0.01961
191.6
116.7
2.325
200.3
120.7
0.02151
1903
688.4
40.68
0.02176
0.02193
49.87
78.67
194.7
1.963e+05
493.2
0.02712
396.9
1.862e+04
0.07912
456
260.4
0.09969
0.7961
841.7
29.88
31.43
0.01964
0.01948
0.01946
0.02013
0.07246
25.73
21.65
482.6
7.721
142.1
22.31
559.8
0.02078
47.13
33.75
1789
564.1
2264
104.3
62.59
267
37.19
145.8
0.08708
92.25
1.1e+05
182
2054
0.286
97.5
0.02173
6.032e+04
37.59
293.5
7.373
0.03056
1.92e+04
0.02179
43.46
431.4
0.03941
64.44
51.84
16.25
69.83
3657
0.04063
351.9
0.02067
2.131
129.2
142.6
14.86
45.95
0.02151
0.02173
0.2007
352.1
566.3
0.1878
15.62
82.41
2.96
1826
270.8
25.73
9.644
25.44
33.65
0.1409
2.915e+04
0.2593
0.02174
4801
0.02172
0.02168
0.2833
0.105
3400
12.82
723.5
21.31
276.8
0.02187
0.07869
189.9
176.1
12.32
0.05276
0.1872
1.765e+04
1834
0.02213
3459
2446
9.477e+04
0.06785
21.34
29.31
0.07329
0.02358
20.08
106
1.418e+04
0.07156
424.5
6.369e+05
0.02175
309.8
969
116.8
0.02178
519.7
2.365e+04
3.852e+04
1.965e+04
0.3657
134.6
2.035e+04
0.04736
49.05
0.02154
14.8
369.6
10.82
227.3
1.904e+04
0.1847
70.48
56.74
0.02225
0.02744
336.8
553.8
16.14
3987
58.54
1.214
11.41
37.47
171.6
36.63
0.02175
66.26
48.22
178.6
213.8
113
321.3
80.32
2.508e+04
2.877e+04
3.566e+05
353.7
0.04451
732.4
0.0246
579.3
1043
0.02176
1.925e+05
0.02221
103.6
5406
1221
93.53
79.28
254.8
210.1
0.01963
1.637e+05
256.1
0.05718
10.96
68.8
3.157e+04
6077
5.738e+04
11.88
364.1
1926
18.67
0.06759
79.76
3503
0.02088
33.13
58.64
106
49.97
29.34
11.01
1885
111.7
127.9
5947
0.0558
1394
0.07699
48.19
122.3
0.02295
0.08846
41.62
332.8
150.9
2.409e+04
0.0552
0.02174
5.357
201
1286
24.37
9.309
0.01958
0.02906
728.6
0.01995
180.8
318.5
0.06299
68.26
35.4
7847
2.567e+04
1.51e+04
0.03267
374.9
52.88
79.66
20.64
11.65
6848
13.32
781.9
214.4
3249
170.6
1.497
1.47e+04
23.71
78.54
33.69
0.05054
51.57
0.1317
0.02187
25.72
116.1
32.68
173.3
40.2
4.702e+04
7.37e+04
9.809
5.447e+05
0.2666
0.3335
0.03063
0.04936
26.69
0.02221
250.7
2.155e+04
220.4
2014
43.29
72.4
144.9
43.71
11.9
319.6
14.91
2314
85.24
0.02576
74.76
81.6
0.02204
0.03641
880.9
0.02185
99.81
101.1
209.4
7.434
1278
0.09462
20.21
0.03722
506.5
5270
551
55.86
0.02143
323.9
0.02155
0.2576
78.59
52.42
1.432e+04
88.69
415.6
14.82
1394
0.4329
0.2031
14.59
182.8
0.02084
4.928
0.02185
525.7
824.8
119.4
42.53
0.02153
342.4
286.3
71.29
1.443e+04
113.8
1031
0.023
26.1
3.548
2.037
133.9
26.71
0.0715
2.136
0.1058
18.44
78.95
0.02069
0.02026
0.02213
0.03522
0.1325
1356
250.3
0.02182
191.6
10.98
131.4
0.02194
192
0.06698
916.2
0.0873
1.085e+05
137.9
973.4
0.04258
0.08327
1.528e+04
0.0272
128.6
152.8
217.1
126.1
51.78
0.02181
222.1
254.9
85.14
47.9
45.51
8.549
21.08
70.89
1166
0.0215
14.92
43.7
1923
0.09819
0.02209
140.5
706.8
14.6
18.18
15.31
458.7
0.04155
28.29
263.9
10.31
98.81
108.2
0.02564
4.929
1.582e+04
107.3
91.45
2020
1.224
7.058
0.02167
0.02676
0.1085
0.04503
1.551e+04
66.11
0.02195
0.02253
85.76
7.597e+04
0.02194
18.69
5585
128.2
4.843
88.12
1466
56.4
14.72
444.3
2.919e+04
1032
0.02188
29.44
76.59
55.93
0.02139
0.2964
89.21
21.43
184.6
1.882e+04
2480
20.15
376.1
3.037e+04
14.84
444.6
17.59
1.062
0.6928
938.5
1.042e+04
0.02157
127.5
107.5
0.02193
2344
12.47
1.465
0.06105
80.88
432.7
121.6
36.77
0.0217
0.02179
17.64
93.53
0.02003
26.78
0.02472
1070
9.978
12.45
309
825.8
28.3
90.46
0.02141
1.831e+04
10.42
1898
335.9
0.07259
664.6
61.54
110.1
1.437e+04
8.548
1.342e+04
0.02075
0.02124
18.8
0.04964
0.02139
3.511e+04
174.5
265.7
1522
164.7
23.73
0.02755
3.404e+04
0.03722
75.16
0.02025
0.1061
105.4
28.64
28.59
77.04
8.7
408.8
0.02047
29.25
1806
1517
2526
0.1112
32.43
15.95
0.02195
385
163.7
0.2229
0.04137
57.21
1.478e+04
0.02187
0.02152
21.87
1149
10.3
1554
0.02206
2362
53.95
111.7
0.02208
0.06335
539.1
191.7
895.4
15.91
15.7
0.02045
449.5
0.03001
469.7
2.396e+04
0.05279
77.54
10.54
3479
9536
490.8
0.05126
0.02047
43.75
0.1426
0.02164
192.1
161.3
15.37
0.02035
0.06403
0.07599
0.02651
298.4
34.96
0.02174
451.5
78.24
556.1
0.02566
0.02191
0.02163
0.04726
130.7
33.75
380.1
1.519e+04
9076
71.41
2.965e+04
1851
0.02264
1.294e+04
49.21
1303
8.706
0.1125
2.294
3082
427.6
1379
202.9
0.05065
17.98
253.9
92.5
15.03
0.1685
114.6
0.1388
257.2
0.03528
23.5
14.94
25.04
0.1917
438
2.817e+04
2421
0.02061
1.592e+04
25.18
0.01995
101.7
0.02181
768.5
45.13
0.1203
186.6
176.8
0.0223
0.9735
10.92
4198
0.02241
0.127
5099
5.248
0.02157
1216
24.02
0.02983
0.1204
27
151.5
1.935e+04
370
52
16.14
359.8
0.5488
0.02169
0.04033
280.7
88.6
48.33
0.02207
4.063e+04
192.4
32.69
92.03
20.92
55.56
0.02017
0.05398
229.7
87.88
0.04041
105.7
465
14.19
1.332
2.8
10.12
0.037
8.925
31.65
127.2
16.15
0.02205
556.7
0.1622
26.49
6.261
3.753
1874
36.73
1.033e+05
29.46
0.5037
0.2016
0.02119
6.658
24.88
1419
537.5
81.37
317
1400
69.42
0.3649
50.29
345.9
2743
44.34
0.03887
839.2
0.6239
653.8
14.42
11.25
23.49
195.9
0.02179
103.1
0.1868
0.02164
0.6939
825.4
1.317
7.036e+05
434
371.2
0.02165
74.76
93.01
0.04782
33.5
49.72
1151
171.9
1175
0.02188
75.87
0.02066
3.745
143.4
118.2
5.733
364
5.25e+05
0.02151
0.02174
43.32
94.84
719.2
1.304
96.68
452.1
44.56
12.85
0.02182
218.2
993.1
0.0692
20.88
0.02156
79.53
0.04901
83.52
300.3
54.53
0.331
710.2
204
0.02558
227.6
74.79
0.229
0.02147
0.02272
319.3
1817
23.56
9.284
37.31
15.89
149.9
22.22
0.0194
0.1652
0.5678
2.869e+04
1038
819.2
0.02134
361.6
122.7
885.2
641.6
7432
2.055
57.73
93.53
61.86
425.6
1565
25.43
0.0715
10.51
0.03056
5.274e+04
0.02247
12.8
338
33.14
12.9
422.7
35.89
4390
11.21
218.9
82.89
5.203
188.5
2.777e+04
21.04
1.555e+04
1.073e+04
0.02175
1.721e+04
86.25
823.5
1114
69.75
43.01
118.3
74.63
15.3
0.03682
21.63
13.95
48.32
23.11
34.17
0.4015
1.876
25.76
1.778e+04
35.65
3313
89.12
365
0.02027
338
41.88
1574
11.67
6895
162.1
240.3
0.07216
1360
0.06381
18.38
22.4
0.0634
0.5437
15.19
24.42
67.42
135.4
16.76
158.5
25.57
6933
21.7
9.517e+04
0.03595
66.06
93.35
11.52
0.04282
386.9
0.02174
0.02203
0.02174
31.11
131.6
313.1
10.24
0.08123
27.74
0.0381
9.416e+04
1153
1.696e+04
199.6
0.06236
450.5
1703
0.06933
736
0.02187
72.97
8.499
291.8
42.49
0.02129
0.0214
61.34
9.47
0.03624
1.818e+04
141.4
0.02095
0.0218
55.98
0.0305
427.4
3529
0.02956
3.759
265.2
623.5
185.8
1.901e+04
6.342
0.1286
39.13
235.7
0.141
163.9
25.56
0.9367
441.1
52.74
5.517e+05
0.02568
72.18
2839
1308
0.02184
23.01
0.02176
25.18
62.08
35.74
67.18
232.8
31.1
0.1484
712.1
804.8
345.7
653.6
456.5
30.84
12.01
64.53
145.4
19.53
286.3
0.022
1.614e+04
6281
791.5
36.48
8.299
1144
364.5
0.2432
0.1457
2.238e+04
67.75
0.05383
0.0316
0.05176
272.2
436.9
43.95
1867
99.27
0.0369
105.8
57.84
60.6
315.3
9.811e+04
478
54.2
342.1
26.06
43.26
1203
33.62
35.55
10.1
822
22.84
0.2179
31.82
393.9
0.0921
150.9
0.2927
30.32
1.878e+04
363.4
0.02204
274.9
30
8823
487.9
0.02139
0.09029
439
0.02938
23.72
1000
297.5
10.12
0.02174
0.1616
12.8
12.87
0.0731
287.4
0.02077
363.5
20.46
201.1
153.1
49.85
50.76
291.6
259.7
0.1663
82.69
0.02182
2.535e+04
0.03549
0.03059
155.3
0.02182
12.21
10.69
3.372e+05
0.02196
115.5
67.68
317.1
277.4
0.1925
32.44
23.82
258.4
1266
25.71
0.07876
0.02203
153.9
247
21.57
39.07
545
1150
0.7668
0.02114
32.25
180.4
3.903e+04
46.26
37.33
0.6648
180
0.0215
14.93
2461
687.6
0.02197
0.1764
478.7
0.01981
71.44
840.2
71.82
0.02195
0.022
8.386
0.02332
0.02013
0.02173
8.921
313
739.1
0.2858
129.1
8.65
16.61
0.02225
13.65
59.41
0.04074
0.7918
669.5
15.35
0.02551
849.3
31.81
8.598
1.615e+04
2.011e+04
0.02525
54.58
31.1
223.5
33.38
1809
0.02194
160.6
1.768e+04
2.579
147.3
0.3651
1076
28.98
158.3
12.91
9086
0.0562
5747
37
0.02525
0.02915
0.02006
122.9
16.8
1381
117.6
2.874e+04
0.08102
0.01942
106.7
318.6
0.0776
0.02185
515.6
10.23
660.1
31.26
774.3
149.2
47.88
5.439
208.4
0.01973
9084
84.75
33.27
12.8
0.07051
0.02197
20.61
11.88
294
2026
35.1
0.03973
69.79
15.96
0.05947
0.02188
786.7
167.1
2535
108
22.18
0.8171
36.94
16.18
5.993
74.66
0.3457
0.1224
0.02192
41.66
7239
29.79
0.3789
2256
0.4886
0.02168
35.28
0.02738
0.02203
16.98
0.01938
0.01932
2.012
0.02011
24.56
2.431e+04
320.3
22.04
0.1264
0.02113
0.02197
70.95
178.6
12.1
1.736e+04
14.34
0.03028
9.734
63.35
1311
0.415
0.02198
3.101
37.55
0.02203
0.02136
44.84
188.1
0.04962
0.02877
52.99
0.0213
1.401
0.02151
9.808e+04
0.7009
459.4
9.542
0.02757
0.1526
11.68
19.56
433
18.07
69.92
21.38
0.02214
1.209e+04
14.16
331.1
0.02191
204.4
133.7
55.33
317.9
0.2035
183
10.63
0.129
1470
0.02205
2.156e+05
12.93
9695
0.02197
161
0.02175
0.07941
2.782
3275
12.93
119.1
26.25
0.1108
1584
0.1254
814.7
1910
10.37
0.09374
0.05258
475.7
0.02162
3.073
19.33
73.47
12.59
0.02179
4994
0.03224
112.1
340.6
103.6
575.4
4404
25.47
529.4
89.88
1.457
15.16
0.5028
0.02173
0.02181
384.8
11.3
6299
39.54
24.91
0.02179
56.79
0.02179
0.02171
0.03001
140.8
0.1014
30.04
0.03452
26.83
0.1723
52.14
215.6
1161
0.02533
169.9
101.1
80.5
0.1552
19.35
0.02187
83.84
0.39
45.4
3.147
0.0324
201.2
3.748e+04
157.4
1032
18.01
1.122e+04
888.3
3
17.83
747
79.59
4.423e+04
242.2
19.38
50.69
64.48
25.54
542.2
357.2
0.03893
40.04
0.08685
350.9
1.035e+04
70.27
691.1
333.2
12.75
166.6
0.03324
196.2
22.96
2.085e+04
11.12
0.02245
17.25
47.02
130.3
0.05815
102.1
139.3
18.91
0.5024
140.5
14.39
4235
130.2
71.77
26.85
17.32
473.3
0.0246
280.2
3.588
0.02381
45.82
46.82
194.3
349.1
122.5
0.02202
396.3
12.5
0.08793
1.479
279.4
6.267e+04
105.1
0.02085
0.02438
0.4372
171.9
52.98
0.02151
2.936
197.4
417.7
5845
0.02103
208.7
2522
36.88
4.817e+04
56.46
75.63
185.9
23.42
82.64
0.02341
40
2237
43.4
235.3
1.31
22.27
0.02168
0.06821
205.7
100.8
19.01
694
52.87
0.02173
2225
59.45
0.2023
283.2
5488
6815
0.04123
0.1266
0.02453
75.87
1826
361.4
982.3
195.1
207.9
0.02181
51.82
4.605
9.079
2846
0.3761
1.739e+04
101.1
1521
0.03328
136.5
1255
0.0217
129.4
70.25
79.62
9.941
0.0219
0.02171
0.03857
22.24
0.02173
14.21
6111
0.1093
14.44
215.8
0.03774
59.49
11.17
0.2617
1565
89
6187
43.98
0.02176
156.9
1695
0.0217
4019
17.97
46.99
30.94
188.1
51.46
161.1
13.41
11.21
0.02194
11.38
0.02178
0.05319
1131
115.4
45.32
36.68
0.7456
107.3
0.02176
0.01965
0.05819
74.97
31.55
69.79
1.741e+04
24.69
0.5656
215.7
0.5521
18.8
0.02136
491
459.3
16.82
12.47
90.61
100.6
42.13
17.43
0.9432
0.02232
114.7
17.2
110.5
1324
1.603e+04
446.1
0.02149
49.64
17.96
17.63
8.115e+04
0.02166
60.94
21.48
22.61
53.35
18.09
5.008e+04
51.54
20.19
459.5
2658
12.96
74.4
2428
1.915
0.02168
261.5
16.48
42.1
69.76
15.72
1.711
0.04373
614
240
867.1
25.48
732.1
197
0.02172
146.7
74.79
48.58
23.24
0.01935
269.6
33.42
26.21
6.741
0.02133
205.5
11.73
5.792
45.03
323.1
85.8
29.91
401.4
381.7
0.01992
78.9
35.58
64.46
440
143.2
34.36
18.54
28.42
8.516
124.5
441.9
1.649e+04
638.7
572.2
9595
56.14
0.0757
2.264e+06
340.5
1492
0.03536
1681
1247
257.6
29.16
0.02192
1.903
0.02179
13.72
65.66
4.56
0.7285
13.82
621.4
22.09
2.111e+05
12.21
256.2
700.2
1.552e+04
427.4
216.8
15.68
0.09027
76.2
14.17
1.92e+04
62.74
0.3297
0.8473
1499
1.161
0.022
0.02171
32.48
49.21
0.03996
0.02017
0.0219
485.9
182
9884
0.02155
0.03006
59.13
0.01976
0.0199
301.9
0.05373
124.9
564.6
0.0506
1287
8.399
48.6
9.352
29.33
0.05365
55.27
18.61
6.401e+05
26.36
339.4
946.8
1218
16.14
0.02999
9.666
638.1
0.02172
16.53
126.7
575.4
1.301e+04
120
28.67
666.2
0.02481
110.2
2349
222.4
83.59
52.2
0.071
32.06
17.64
1759
131.1
174.8
0.04674
841.3
259.9
0.03565
18.19
0.06651
46.19
0.02647
1700
1.662e+04
0.02813
457.2
126.9
0.1358
567.8
69.11
0.02244
5807
58.62
191.5
551
0.03516
7.525
5.076e+04
78.52
390.8
26.76
17.69
3.064
15.11
162.3
0.05801
1.655
54.92
60.21
24.25
14.66
66.25
6.257
64.03
503.6
43.21
6.207
2.159
0.0218
0.09215
618.1
18.78
0.01937
3.109
35.89
3.41
166.8
70.51
28.48
0.09672
539.1
85.87
0.1083
37.37
112.2
0.07936
602
0.04191
782.9
9.203
0.1835
0.06393
10.12
684.1
55.7
0.02095
61.14
156.3
105.3
0.1613
0.02194
11.68
343
651.2
63.39
59.79
11.74
499.5
19.11
39.11
2.24e+04
15.22
1.987
4.54e+04
356.8
14.37
13.47
0.02204
1.223e+05
0.0221
21.99
108.2
99.49
130.1
119.1
1.959e+04
10.91
11.75
15.89
3.099e+04
459.6
12.71
4.243e+04
6603
470
120.1
0.1842
0.6493
6.769
23.35
0.02187
380.3
2.057e+04
0.04412
63.34
6.563
14.93
255
408.5
4.049e+04
1599
204.6
0.01954
0.01931
0.02178
508.4
2232
0.4509
0.02158
0.1508
2618
5.847
4.475e+04
75.97
0.02212
3.879e+04
0.0194
1.815
11.11
0.03948
15.58
0.3114
1.416
0.06318
370.8
18.41
57.1
115.5
2.327e+04
11.65
166.6
196.4
10.41
0.02213
9589
429.3
427.8
89.43
918.8
206
172.5
0.06021
25.57
246.4
38.26
382.7
0.02907
1017
32.4
675.5
14.35
0.1291
0.1506
0.02185
238.6
28.1
108.2
183.7
12.06
750.3
72.3
20.07
11.45
134.6
0.1545
885.3
323.8
269.2
44.87
0.06154
10.42
0.09571
62.36
28.89
105.4
3.479
406.3
19.43
15.34
374.6
0.2165
1983
29.68
0.5242
0.08477
3.568e+04
289.2
215.6
30.43
5566
0.02204
6268
521.8
68.12
56.07
63.24
74.82
81.28
14.15
64.16
70.73
183.7
3719
0.06828
0.02186
0.02178
110.9
191.7
1.917
2.473e+04
135.1
9242
900.7
95.32
1830
1.836e+04
11.28
421.3
752.8
71.05
1.914e+04
0.02167
75.86
609
618.7
0.02157
590.9
76.98
209.8
292.1
398
0.02171
5.23
234
971.8
0.02089
167.1
12.88
0.1749
3.08e+05
0.03316
10.75
11.52
239.2
314.3
0.2738
61.59
2.432
183.3
723.9
143.5
0.01941
14.36
6.576e+05
0.02549
0.02276
1946
939.9
42.92
408.1
0.05911
50.96
64.58
50.98
34.21
178
0.01999
63.58
14.62
0.1549
0.02194
42.45
0.02122
8.174e+04
59.2
1.683
9.249
1.364e+04
0.0217
146.8
0.02
0.02216
534.6
0.3103
1268
9.973
0.04239
39.85
347
20.28
20.91
26.19
378.8
137.8
459.3
487.5
519.2
5344
837.6
57.81
362.6
181.6
184.6
0.2379
0.02113
0.02118
3710
30.35
292.4
4.274e+04
0.02183
324.2
0.4509
0.02038
17.23
4.703e+04
11.22
409.4
2610
0.02206
536.3
44.8
16.4
9.671
43.21
2024
114.3
0.02174
4.644e+04
1328
0.06077
0.02358
1152
185.4
551.2
517.5
130.1
281
0.0217
247.2
0.02118
328
500
4.12e+04
0.01956
0.01933
0.139
253.7
0.03087
17.15
2.043
9.049
20.75
53.15
256.1
0.04899
0.02706
1.784e+04
2.125e+04
24.88
770.5
0.04379
293.1
0.02213
135.9
1300
444.8
2199
246.9
428.7
356
0.3176
43.17
27.84
0.02526
0.0218
0.02175
12.58
197.7
698.8
3.036e+04
284.8
0.02479
368.6
818
423.8
3.353e+04
103.5
501.2
333.1
86
0.05376
2.317
32.64
0.9705
0.07815
914.2
24.55
41.43
68.36
595.5
0.334
0.01974
1.739e+04
13.74
10.88
33.23
2.111e+04
30.31
0.02082
111.8
22.73
187.9
7.45
272.4
334.1
1.819
106.2
16.43
0.06407
181.6
0.04328
0.07572
0.5256
1188
21.06
991.4
18.03
50.14
42.74
0.02917
89.82
349.3
0.2346
42.81
3.582
1.889e+04
0.0308
0.02393
90.53
71.24
168.4
25.06
4.559
2268
0.06034
0.02183
25.55
1844
0.02482
0.5724
40.13
0.02161
1.852e+04
0.05222
38.5
82.72
39.09
0.5553
386.9
2075
6.25
0.05557
0.02175
15.89
52.65
83.32
16.01
0.02135
0.02019
0.02173
85.39
197.6
226.4
0.05296
744
35.81
440.1
50.84
808.8
0.3399
0.03045
4098
0.02191
824.6
38.06
0.03091
119.3
75.9
265.3
122.5
119.9
13.59
6.459
0.06748
2354
1231
2164
0.1551
0.5287
0.02171
1.872e+04
0.0216
162.6
1803
0.02222
24.33
152.7
355.7
0.08118
14.98
1.307e+04
21.06
0.02166
17.51
450.9
85.83
153.3
14.79
28.1
1.516e+04
19.52
0.02071
0.02247
1.143e+04
23.99
392.1
12.58
53.15
0.02117
0.02193
1.917
6.816e+04
1802
485.4
357.5
0.8353
310.5
1534
124.9
198
0.02189
667.7
10.76
273.1
15.92
15.55
0.0216
600.8
12.65
1.542e+04
1.949e+04
13.81
15.48
1.62
1011
0.02617
9.778
1.701e+04
422.7
147.9
1852
7209
130.1
195.6
0.113
964.7
259.8
1574
38.34
0.02658
1202
6974
0.02173
329.2
3454
332
915.4
45.36
14.82
171.5
43.82
0.03276
63.46
0.02211
108.1
0.1037
1.41e+04
0.1237
4094
46.57
261.7
23.27
13.06
450.8
19.96
125.4
815.8
76.86
33.23
9.112
67.9
163.7
558.4
106.2
0.02469
22.73
21.58
58.12
111.5
67.25
312.9
48.99
0.02507
40.87
2.214e+04
17.11
11.52
149.1
0.03821
41.15
0.02158
43.69
5.685e+05
8.644e+04
479.7
22.54
42.03
0.02102
0.05165
17.9
24.47
46.74
6.052
0.02184
48.58
79.08
66.23
91.18
0.02168
849.8
1338
5.848e+04
9.931
26.92
61.78
576
0.03775
188.7
9.941e+04
0.8248
31.08
0.2513
310.9
5.204e+04
23.16
13.62
20.81
27.47
0.02495
143.6
0.01988
1.647e+04
104.6
14.91
1302
6.844
154
35.89
2.99
0.05187
0.02199
0.02152
51.27
18.49
39.57
8.511
25.97
58.65
1.957e+04
0.766
288.4
0.2107
0.02182
989.8
0.02191
12.21
648.6
4.871
24.29
23.15
4.809e+04
240.8
21.66
273.5
126.6
64.35
0.1247