/*--------------------------------*- C++ -*----------------------------------*\
  =========                 |
  \\      /  F ield         | OpenFOAM: The Open Source CFD Toolbox
   \\    /   O peration     | Website:  https://openfoam.org
    \\  /    A nd           | Version:  8
     \\/     M anipulation  |
\*---------------------------------------------------------------------------*/
FoamFile
{
    version     2.0;
    format      ascii;
    class       surfaceScalarField;
    location    "25";
    object      phi;
}
// * * * * * * * * * * * * * * * * * * * * * * * * * * * * * * * * * * * * * //

dimensions      [0 3 -1 0 0 0 0];

internalField   nonuniform List<scalar> 
189008
(
6.666e-08
-6.666e-08
1.557e-08
-1.557e-08
1.123e-08
-1.123e-08
1.616e-08
-1.616e-08
-3.997e-07
3.997e-07
1.65e-08
-1.65e-08
6.842e-06
-6.842e-06
-1.538e-06
1.538e-06
-8.885e-07
8.884e-07
1.373e-06
-1.373e-06
1.074e-05
-1.074e-05
-2.949e-06
2.949e-06
-6.157e-09
6.157e-09
-1.817e-08
1.817e-08
-5.355e-05
3.42e-05
1.936e-05
6.01e-06
-6.842e-06
8.325e-07
-5.368e-08
5.368e-08
0.009597
-0.006555
-0.003042
-0.0007012
0.0003192
0.0003819
-5.003e-06
5.73e-06
-7.261e-07
0.0005842
-0.0005016
-8.251e-05
2.914e-07
-1.679e-07
-1.235e-07
-0.003306
0.01019
-0.006883
2.072e-05
0.0004978
-0.0005185
1.73e-07
1.184e-07
-0.0002692
0.0001511
0.000118
-1.974e-05
2.177e-05
-2.033e-06
-2.18e-05
2.064e-06
0.0001873
-0.0001456
-4.179e-05
0.0111
-0.0223
0.01121
-4.455e-05
-0.0002019
0.0002465
-7.279e-05
-0.0001964
-4.339e-06
1.86e-06
2.48e-06
-0.0001426
8.354e-05
5.903e-05
0.0109
0.01095
-0.02184
-3.026e-06
-1.314e-06
3.387e-05
0.0002305
-0.0002643
-0.00178
0.002442
-0.0006627
-4.656e-05
0.0005921
-0.0005455
-4.887e-05
5.655e-05
-7.683e-06
-0.0005405
-0.0001606
0.002107
-0.003921
0.001814
0.0006663
-0.004719
0.004053
1.774e-08
-1.774e-08
0.001926
0.00767
-7.784e-05
-6.473e-05
0.0001234
6.397e-05
-0.0003734
0.0003849
-1.158e-05
-0.0008213
0.000991
-0.0001697
-2.919e-05
0.0004729
-0.0004437
2.093e-06
3.917e-06
-0.01441
-0.02987
0.04427
-5.189e-05
-5.937e-05
0.0001113
-0.01352
0.01184
0.001682
1.082
-0.1283
-0.9541
0.0009654
-0.0007754
-0.00019
-0.1463
1.229
0.01189
-0.007377
-0.004509
-0.3128
0.0189
0.2939
-0.006042
-0.007483
-0.002416
0.0003284
0.002088
-0.000216
0.0004658
-0.0002498
-0.0002231
0.001853
-0.00163
-0.8101
0.9551
-0.145
-6.581e-05
0.0001595
-9.367e-05
-0.0003852
-0.003053
0.003438
-0.0295
0.02345
0.006048
0.002262
-0.001873
-0.0003884
0.0006262
0.001635
-1.279
0.4807
0.7978
-6.838e-05
-0.0003036
0.000372
8.873e-06
1.29e-05
-0.0008866
-0.0003171
0.001204
-0.116
-0.1968
-0.2738
0.5162
-0.2424
-9.161e-06
-1.264e-05
-0.05165
0.09217
-0.04052
-0.0004077
0.0003827
2.507e-05
0.0005093
0.000456
0.16
-0.6342
0.4741
-0.0001839
0.0001401
4.387e-05
-1.641e-06
-3.363e-06
0.000119
0.0001482
-0.0002672
1.012e-05
4.468e-05
-5.48e-05
9.283e-05
-0.0002718
0.000179
-0.000216
0.0003484
-0.0001325
-0.000683
0.001302
-0.0006188
2.322e-05
-6.838e-06
-1.638e-05
-0.003085
0.0027
-0.0004395
0.0007869
-0.0003474
0.1846
-0.02063
-0.164
-0.00644
-0.005482
0.01192
-0.0002966
0.0009912
-0.0006946
0.0003221
0.000262
0.0003992
-0.0004094
1.025e-05
0.02704
0.01503
-0.04207
0.003457
-0.00135
0.0002526
-0.0002554
2.815e-06
-0.0002725
-5.345e-05
0.0003259
-0.0194
-0.0101
0.6863
-0.5263
-7.908e-06
-0.0008134
-7.898e-05
-0.0002749
0.0003538
0.004272
-0.005205
0.0009328
7.763e-05
-0.0002936
-0.0003627
9.019e-05
-0.001144
0.001642
-0.0004985
-1.001
-0.2775
-0.001165
0.0005971
0.0005683
-1.154
0.876
0.278
-5.543e-06
-4.801e-05
1.674e-05
6.486e-06
-0.0005162
8.196e-05
0.0004342
0.0008404
-0.001216
0.0003755
-0.2122
0.09642
0.1158
0.0005787
0.002499
-0.003078
-0.1071
0.05885
0.04823
0.1657
-0.4395
0.02346
-0.07512
3.754e-07
-2.998e-07
-7.56e-08
-1.253
0.09861
6.153e-05
0.0001199
-0.0001814
-0.0004114
-0.0007333
0.001145
0.01371
-0.01174
-0.001963
-0.0001215
-6.245e-05
0.0001934
-0.000179
-1.438e-05
-0.0003223
-0.0001593
0.0004815
0.08784
-0.1033
0.01546
-0.0003242
0.0001139
0.0002103
-0.0006533
0.0005282
0.0001251
0.0003254
-0.0001035
-0.0002219
0.0003475
-0.000133
-0.0002145
-0.0003892
-0.001369
0.001758
-0.0001659
-0.0002418
1.277e-07
-9.754e-08
-3.014e-08
0.0003446
-1.92e-05
-0.00525
0.03614
-0.03089
-0.0002017
0.0003788
-0.0001771
-0.0001681
0.0001939
-2.576e-05
0.03321
-0.05509
0.02188
0.008892
0.000372
-0.009264
-0.04846
-0.04182
0.09028
-0.0001361
0.0001909
-5.483e-05
-0.0003527
0.0001952
0.0001575
-0.0001177
6.58e-05
0.001558
-0.0006574
-0.0009008
-5.508e-05
-2.183e-05
7.691e-05
-0.0278
-0.7823
0.0004333
-8.582e-05
0.000246
-0.0003622
0.0001162
0.002543
-0.003765
0.001222
0.001142
-0.0003122
-0.0008294
0.003266
-0.004388
0.001121
-0.008956
0.0004934
0.008463
0.0001013
-0.0002728
0.0001715
0.0002596
-0.0001667
0.007867
0.004019
0.0006462
-0.0005284
-0.0001178
-7.005e-05
-0.0003033
0.000113
-0.0002151
0.0001021
-0.00027
0.0004975
-0.0002275
-3.379e-05
3.379e-05
0.1912
-0.006623
0.0004135
-0.0001296
-0.0002838
0.0001331
-0.0002823
0.0001493
5.947e-05
-0.0001253
-0.0002569
2.628e-05
0.0002306
3.356e-05
0.001609
-0.001643
-5.562e-05
5.598e-05
-3.644e-07
-0.04241
0.03381
0.008601
2.723e-06
7.858e-06
-1.058e-05
-0.0001856
-0.000167
-0.004511
0.001919
0.002593
-0.0027
0.0008783
0.001822
1.022
-1.196
0.1735
-8.299e-05
5.698e-05
2.601e-05
-0.0008263
0.000449
0.0003773
-0.0001574
-0.0001668
-0.0004285
0.0008367
-0.0004082
0.1202
-0.148
0.02774
-0.00177
-0.00093
-0.121
-0.003195
0.1242
-3.385e-05
5.449e-05
-2.065e-05
-5.374e-05
-2.925e-05
-0.0002725
-0.0003808
0.0002196
-0.0004356
0.0009078
-0.007465
0.006557
-0.0001239
0.0009643
0.0005144
-0.0004937
-0.005073
0.08603
-0.08095
-9.419e-06
0.0001494
-0.00014
-0.0001511
-3.964e-05
0.0001907
-0.04373
0.03848
0.0008958
-0.001056
0.0001599
7.4e-08
9.372e-05
0.0004001
-0.0004938
-1.471
1.2
0.2713
-1.462
1.192
0.27
1.365e-06
5.174e-08
-1.417e-06
-0.167
0.1326
0.03442
0.2048
-0.03806
-0.1667
-0.05857
0.04856
0.01001
0.02707
-0.06996
0.04288
0.0002244
-0.0001906
-4.503e-08
4.502e-08
0.0003335
-0.001137
0.0008032
0.02559
-0.0074
-0.01819
0.002778
-0.0006391
-0.002139
0.03792
-0.02682
-0.2086
-0.003604
0.001578
-0.02083
0.01926
-0.0002927
0.0002188
7.395e-05
-0.05943
0.2021
-0.1427
-2.386e-05
-3.176e-05
2.493e-06
-0.0001765
0.0001741
1.317e-06
-1.649e-06
3.312e-07
-1.24e-05
1.123e-05
1.165e-06
0.003522
-0.002119
-0.001403
-9.421e-05
0.0003179
-0.0002237
0.02182
0.003773
-0.0007325
0.000302
0.0004305
-0.471
0.2218
0.2493
0.001005
0.0001362
9.565e-05
-9.586e-05
2.098e-07
0.0001048
5.923e-05
-0.000164
-2.218e-05
1.824e-05
3.943e-06
-0.000234
0.000367
0.0004511
-0.002231
6.023e-05
-6.189e-05
1.651e-06
0.0003555
-0.0003204
-3.506e-05
-0.0005406
0.0001555
0.0003851
-0.04634
-0.07471
-0.001233
0.0003467
-4.194e-07
5.105e-07
-9.113e-08
-0.0003254
-0.0002152
-0.02332
0.01837
0.004947
0.0001368
0.0002766
4.897e-07
-4.897e-07
0.2262
-0.02143
-0.0002496
5.141e-05
0.0001982
-0.0002734
0.0001223
-8.263e-05
0.000183
-0.0001004
0.0002849
-0.0001993
-8.563e-05
0.0003241
0.0003221
0.0003034
6.902e-05
-0.0003724
2.423e-07
1.331e-07
0.000985
0.0004523
-0.001437
2.296e-05
-2.08e-05
-2.16e-06
3.026e-06
-3.026e-06
0.1971
-0.9682
0.7711
-0.0003079
-0.002003
0.002311
-6.851e-05
0.0001688
-0.0001003
0.002283
-0.001076
-0.001207
-0.0005612
0.0001762
0.0003851
-0.0001664
0.0007565
-0.0005902
0.0006569
-0.0003952
-0.0002617
0.1169
-0.02909
8.26e-05
-0.0002134
0.0001308
-0.0002269
0.001419
-0.001192
-0.009093
-0.001204
0.0103
0.0006296
-0.0003335
-0.0002961
-0.06408
0.09647
-0.03239
-0.01469
0.008247
-0.08846
0.04
5.921e-05
-0.0001324
7.322e-05
-1.161e-05
-0.0001251
0.0001367
9.293e-05
-0.0001897
9.672e-05
6.215e-05
-0.0002064
0.0001443
-0.001101
-0.0005956
0.001696
0.003046
-0.006214
0.003168
-0.0003611
-8.255e-06
0.0003693
0.858
0.1645
0.0003566
-0.0004521
9.544e-05
-0.0002647
1.51e-05
0.001304
-0.002224
0.0009204
0.0001706
-0.00018
-0.0002813
-0.0002348
0.001101
-0.001283
0.0001813
-0.378
-0.4354
0.8133
0.0007163
0.001268
-0.001985
-0.5424
-0.3506
0.8931
0.04357
-0.01652
0.004337
-6.493e-05
-0.09101
-0.1653
0.2564
0.04565
0.1209
-0.1665
1.746e-07
-5.368e-08
-1.21e-07
-0.000364
0.0002928
7.122e-05
-0.0754
-0.1018
0.1772
0.001349
-0.0009939
-0.0003548
0.1735
-0.0533
-0.0002691
0.003535
-0.002461
0.005345
-0.002884
-0.01082
-0.0125
0.0009417
0.00137
-0.002312
-0.2055
0.2366
-0.03107
-0.0005162
0.0008362
-0.00032
-0.0001917
-0.0001296
0.0003213
-6.497e-07
8.487e-06
-7.838e-06
0.0001145
0.0001705
0.004249
-0.001203
-0.0001477
-0.0002441
0.0003918
-0.0038
0.001043
0.002757
-0.001244
-0.001671
0.002915
0.003608
-0.00303
-8.655e-05
0.0001457
-5.918e-05
0.0004713
0.0001244
-0.0005958
0.002552
0.0002259
-0.1826
0.1232
-0.0005214
0.0003358
0.0001856
-0.003382
0.003415
-3.362e-05
0.001295
0.0001185
-0.001413
-2.61e-06
5.11e-06
-2.5e-06
-0.0006439
0.0004287
0.0002152
-0.8561
0.3137
-0.2571
0.1334
0.1237
0.0003243
0.0001653
-0.0004895
0.0009982
-0.001068
6.96e-05
-0.000119
-0.0001913
0.0003103
0.01857
-0.009852
-0.008721
0.1981
-0.1883
-0.00983
0.008782
-0.01209
-0.0003419
-2.141e-05
0.0003633
0.09577
-0.05302
-0.04275
0.00159
0.0006932
0.000536
-0.0002117
-4.894e-05
0.0003723
-0.0003234
-0.01714
0.03198
-0.01484
-1.644e-06
-2.131e-05
2.295e-05
0.0006069
-0.0002147
-0.0003922
-0.001789
0.0005208
0.001268
-0.0007039
0.000401
0.0003029
0.1943
-0.1486
-0.006344
0.01724
-0.5009
-0.97
-0.4978
-0.9646
-0.01062
0.001668
-0.0009571
0.0007642
0.0001929
-0.004282
-0.0002294
-0.0002583
-0.0004456
-3.18e-05
-0.0002691
0.0003009
-0.01338
0.04659
0.002384
0.001138
0.0001163
-6.364e-05
-5.262e-05
-2.943e-05
-8.065e-05
0.0001101
-0.000334
-0.0001153
0.0004493
0.0003776
0.0009712
-0.0002803
0.0001113
0.0001691
0.0003086
-0.0003911
8.255e-05
0.0004977
-0.0003535
-0.0001442
7.314e-05
-0.0002778
0.0002047
-0.0006769
0.0005408
0.0001361
5.997e-05
4.405e-06
-6.437e-05
-1.442e-06
6.855e-05
-6.711e-05
0.0001412
-0.002367
-0.02707
0.02943
-0.0003338
0.0002935
4.028e-05
-0.0004429
-0.0001184
-9.124e-05
-0.00126
0.001351
0.3003
-0.4091
0.1088
0.0005486
5.835e-05
0.0002034
-0.0003921
0.0001887
-0.002095
0.001872
-0.00558
-0.00581
0.01139
0.000891
-0.0009295
3.851e-05
-8.667e-05
0.0006806
-0.0005939
0.3811
0.1361
-0.5172
-0.1183
-0.04871
-0.173
0.2414
-0.06841
-0.0001712
0.0002047
-3.349e-05
0.4321
-0.8101
-0.001536
0.001391
0.0001453
0.06092
0.03485
0.0001619
-0.0002304
6.656e-05
-0.0005398
0.0004733
0.1165
-0.1215
0.03111
-0.01325
-0.01786
-0.0001453
0.000643
-0.0004977
2.456e-07
1.986e-07
-4.442e-07
-0.0002343
0.0004241
-0.0001898
0.9254
-0.6941
-0.2313
0.001604
0.00472
-0.006324
4.379e-05
0.0001496
-0.000696
0.0005055
0.0001905
0.006145
-0.004742
-0.001404
-0.08663
-0.02045
1.19e-05
1.581e-06
-1.348e-05
0.01694
-0.02094
0.004004
3.858e-06
-5.272e-05
-0.0003771
0.0005031
-0.000126
-0.0002771
-0.001484
0.001761
0.2459
-0.2557
0.009826
0.005615
-0.004922
-0.0006936
9.1e-06
-3.763e-05
2.853e-05
0.0002191
0.0005536
-0.0007727
-0.0006753
0.0007445
-6.918e-05
-0.0001257
0.0002559
-0.0001302
0.003604
0.002011
-0.0002927
0.0002481
-0.02336
0.02099
0.009576
-0.07366
5.78e-05
-9.465e-05
3.685e-05
-0.5082
0.0372
-0.0005769
-1.855e-05
0.0005955
-6.961e-05
3.577e-05
-5.482e-05
0.01699
-0.004558
0.003602
0.0009562
-0.0001136
0.0004057
-0.0002922
-0.002495
0.002469
2.623e-05
0.1109
0.4878
-0.5987
0.0004455
-0.000874
-0.0002487
-0.0001937
0.0004425
-0.0005972
-1.108e-05
0.0006083
0.001072
0.00782
-3.207e-05
-0.0002519
0.000284
-0.001088
0.0006764
0.0001298
0.0002694
-0.0004777
0.0004124
6.522e-05
-0.0004289
6.784e-05
-0.0003345
0.002427
-0.002092
-0.0008441
0.0001555
0.0006886
-0.0002918
3.495e-05
-2.997e-05
2.777e-05
2.199e-06
-0.0002412
0.0002583
-1.704e-05
-0.6755
0.8726
0.0004802
-0.0001248
0.008847
-0.01134
0.002489
-0.003727
0.004393
-0.01201
0.0007998
0.01121
-0.000126
4.339e-05
-0.01095
-0.006937
0.01789
-1.275
1.437
-0.1617
0.0003142
-0.0003188
4.616e-06
-6.892e-05
-3.702e-05
0.0001059
0.005685
0.01159
-0.01728
0.002762
-0.002645
-0.0001179
0.5729
-0.1918
0.001051
-0.002129
0.001078
-6.055e-05
0.000263
-0.0002025
-0.05989
0.04548
-0.02514
-0.1804
0.7005
-0.6547
-0.04575
0.0006758
-0.000705
0.06561
-0.02947
-0.0003508
-9.487e-05
0.0004456
0.05158
-0.05515
0.003574
3.371e-05
0.0002189
-0.0107
-0.1336
0.1443
0.0004096
-0.0003043
-0.0001053
0.05435
-0.2274
-0.0001505
-0.0001422
0.0004017
-0.0004242
2.251e-05
-0.0007344
0.0004264
0.0003081
-0.001374
0.003062
-0.001688
-0.0001022
0.0002013
-9.912e-05
-0.01934
0.007298
0.01204
0.0003515
-0.0001857
-0.0001658
0.0003096
9.929e-05
-0.0004089
0.0001626
-2.089e-05
-0.0001417
0.0003817
-9.114e-05
-0.0002905
0.0004229
0.008171
-0.008594
-0.002822
0.002433
-0.0001123
-5.142e-05
0.0001638
0.0001911
-0.0002895
9.835e-05
0.002242
-0.001865
-0.000377
4.729e-05
-0.0001596
0.3533
-0.9436
0.5903
0.1197
-0.0007047
-0.119
-0.0005197
0.0002252
0.0002945
0.0002062
-0.0002197
1.341e-05
-1.538
0.1226
1.415
0.000517
-0.0003179
-0.000199
-0.00324
0.0127
-0.009459
0.004954
0.008753
-4.571e-05
0.001044
0.03067
-0.01681
-0.01387
1.413
-0.2684
-1.144
-3.332e-05
-0.0001295
0.0001628
-0.01206
0.008817
9.927e-05
-8.725e-05
-1.201e-05
-6.755e-05
6.211e-05
5.448e-06
0.0001582
-0.000112
-4.627e-05
0.000313
-1.286e-05
-0.0003001
-0.0002572
3.98e-05
0.0002174
-0.0003693
-0.0002746
-0.0006575
5.465e-05
0.0006029
0.0009128
0.00185
0.0002692
-0.0001092
-0.00016
-0.1256
0.2556
-0.13
-0.0001805
0.0002935
-0.1018
0.08401
0.01783
0.0007738
-0.0006218
-0.000152
0.0006488
-0.001332
0.0001911
-0.0001406
-5.049e-05
0.0003388
-0.001564
0.001225
-1.106e-08
-3.396e-08
-0.0003788
0.0001903
0.0001885
-0.0001539
0.0007792
-0.0006253
0.02993
-0.01791
-0.01203
0.001978
-0.002493
0.0005142
-0.2867
0.2309
0.05582
0.0001149
4.336e-05
0.1169
0.002779
0.0001482
2.299e-05
-0.0001712
0.0004164
-0.0003227
-1.002e-07
1.002e-07
1.333e-07
-1.517e-07
1.841e-08
1.019e-07
-9.426e-08
-7.625e-09
1.196
-0.8183
-0.3778
-0.0001629
-0.0001709
6.539e-05
7.411e-05
-0.0001395
-0.1452
-0.1119
-0.0004595
5.273e-06
0.0004542
-0.0003077
0.0009232
-0.0006155
-0.0002362
0.0002574
-2.119e-05
0.003383
-0.0003144
-0.003068
8.022e-06
0.0003937
-0.0006281
-0.0001063
0.0003282
0.0001888
8.427e-05
-7.829e-05
-5.98e-06
-0.4369
0.7903
-0.0002405
0.000143
9.754e-05
1.55e-07
-1.491e-07
-5.899e-09
0.0005468
-0.0006257
7.889e-05
0.0003645
-8.319e-05
-0.0002813
1.502e-05
-1.23e-05
0.06312
-0.1791
0.003392
-0.0008491
-0.05103
0.07811
0.0004537
-0.0002626
0.04353
0.2457
-0.2892
-0.0002798
6.71e-05
0.0002127
-5.253e-05
-8.408e-05
0.0001366
7.061e-05
-6.668e-05
-3.932e-06
1.524
-0.9011
-0.6233
-0.0004119
-0.0001079
0.009221
0.003919
-0.01314
1.509e-06
-2.525e-06
1.016e-06
-0.000614
-9.486e-06
0.0006235
7.775e-05
-9.079e-06
-6.867e-05
-0.0006064
4.102e-05
0.0005654
-0.1076
0.1022
0.005342
2.8e-05
-0.0001306
0.0001026
0.0008421
0.0007018
-0.001544
-0.8027
-0.7353
0.002345
-0.005018
0.0001451
0.004873
-0.0003893
0.0001976
0.0003039
0.0005871
3.087e-06
0.0002032
0.0001062
-1.687e-05
-8.936e-05
-0.0004362
5.909e-05
-0.003288
0.003909
-0.0006209
0.0008363
6.499e-06
-0.0008428
0.000144
-0.0003021
0.0001581
7.896e-05
0.0002352
0.1125
0.05565
-0.1682
-7.277e-05
5.461e-05
1.816e-05
3.62e-05
-0.0002453
0.0002091
0.0004524
-0.0005019
4.956e-05
0.001129
-0.002435
0.001306
0.0001117
-0.0002125
0.0001008
-0.7908
0.1139
0.6769
-0.7884
0.6296
0.1588
0.002822
-0.01192
-0.0002624
-1.792e-05
-0.0005525
-0.001347
0.001899
0.1375
-0.2081
0.0706
1.473
-0.6492
-0.8238
-0.001421
0.002268
-0.0008475
0.0002596
-0.0003839
0.0001242
-0.0004894
0.0001991
0.0002902
-0.0006523
-5.174e-06
7.272e-05
6.361e-06
-7.908e-05
-3.842e-05
3.559e-05
2.829e-06
-0.003035
0.002868
0.0001677
-0.1422
0.1007
0.04151
1.4
-1.277
-0.1226
-8.036e-05
3.961e-05
4.076e-05
-0.0001119
-0.0002111
0.000323
0.0005232
-0.001671
0.001147
0.314
0.5218
-0.8358
7.684e-06
1.527e-05
0.002596
-0.003042
0.0004455
-0.0002454
0.0002391
6.364e-06
0.4901
-0.000318
0.0003642
-4.621e-05
-0.02783
0.1654
0.0001793
-0.0002929
-0.0001215
4.14e-05
8.015e-05
0.002178
-0.00232
0.0001421
0.9781
0.1617
-1.14
-2.777e-05
-0.0001056
0.0001334
0.0004639
0.0001657
-7.716e-05
4.337e-05
0.3912
1.021
0.0004441
-0.001588
-9.157e-06
-3.239e-06
0.3946
0.3059
-0.001739
-0.002819
-0.1651
0.005665
0.1594
-0.0003751
-0.0004445
0.0008197
0.0003162
-0.0001219
-0.0001943
-0.2802
0.1891
0.0002336
-0.0002126
-2.103e-05
0.0002548
0.0004734
-0.0007282
-3.197e-06
7.86e-06
-4.663e-06
-0.0001447
-0.0001291
0.0002737
-8.908e-05
3.894e-05
5.014e-05
-0.0001948
-0.000482
-0.0002269
-0.0004691
-9.822e-05
0.0002184
-0.0001201
0.0006933
-0.0007399
0.0006648
-0.0009615
0.0005909
-0.0009117
0.0003208
8.382e-05
-9.646e-05
1.263e-05
0.0001459
-6.956e-05
-7.637e-05
0.0002999
-0.0002229
-7.708e-05
-0.5998
0.9138
0.0007734
-0.0005349
-0.0002385
0.1075
-0.1938
0.08632
-0.0005295
0.0001955
-0.1252
0.03523
0.08993
6.444e-05
-0.0002005
-0.3424
-0.9329
-0.1527
0.07725
-0.002502
-0.004965
0.007467
-0.0004098
-0.0004343
-0.0002648
-0.0001909
0.0004557
-1.04
0.1282
0.9123
1.107
-0.8989
-0.2076
9.341e-05
-3.318e-05
-2.032e-05
-1.609e-05
3.641e-05
-0.0001163
0.0002352
-0.0004687
0.0001752
0.0002935
0.0005917
-0.0001901
-0.0004016
0.0002591
-0.0006098
-0.0003373
0.0004875
-0.0001501
-0.0006628
0.0004141
-0.0001756
9.499e-05
-6.698e-05
0.0001804
-0.0001135
-5.944e-05
-1.823e-05
7.767e-05
-1.16
0.12
5.308e-05
0.0001184
-0.0001715
2.66e-05
-0.0001545
0.0001279
-8.329e-05
-0.004845
0.004928
0.01006
-0.005952
-0.004103
0.1783
-0.2386
0.06031
1.03
0.4431
0.0005499
-0.0005989
-9.752e-06
-0.0001584
7.734e-05
0.0001919
8.938e-06
-5.951e-06
-2.987e-06
-0.077
-0.04816
-0.9856
-0.4036
1.389
-0.0001298
-9.471e-05
0.0002245
-0.0002367
-6.026e-06
0.0002427
-0.05066
-0.007912
6.839e-05
6.994e-05
-0.0001383
0.01406
-0.002061
-0.012
-0.03341
0.08687
-0.05346
-0.0002471
9.273e-05
0.0001544
0.00222
-0.002759
0.0005395
-0.0001383
0.0001649
0.004099
-0.008783
0.004683
-3.085e-08
3.085e-08
-2.803e-05
5.844e-06
5.089e-05
0.0003308
0.0002533
9.823e-05
-0.0001871
-0.0001769
0.0002154
9.761e-05
-0.000313
-0.0003066
-1.143e-05
-0.0001699
0.0003052
-0.0001352
0.05506
0.0075
-0.06256
0.000279
-0.0001173
-0.0001617
1.295e-05
-4.148e-06
-8.799e-06
-0.0001374
-0.0004396
0.7438
-1.068
0.3242
0.001326
-0.0002252
-0.004447
0.003976
0.0004709
0.0007709
-0.002693
0.001922
1.075
0.4493
-0.02541
0.7692
1.938e-07
-7.682e-07
5.744e-07
0.02282
0.007117
0.0003744
-0.0006598
0.0002854
0.000159
-0.000164
5.032e-06
-0.0003167
0.0005428
-0.0002261
-0.0003942
-0.0001272
0.004445
0.0031
-0.007545
0.0002308
-0.000126
0.00287
-0.006307
0.003437
0.0009824
-0.0008366
-0.0001458
-0.1495
-0.1996
0.3492
1.05
-0.04467
-1.006
-0.002217
-0.000602
0.00282
-0.0005999
0.009446
5.505e-05
-0.0002262
-0.00208
0.00285
0.000332
-0.0003692
3.72e-05
0.0006585
-0.000213
-0.0004456
0.0002901
0.0001784
-0.0004685
-0.02098
0.02256
0.005293
-0.01087
-1.124
-0.3858
1.51
-0.0001133
0.0002134
-0.0001001
0.02223
0.008445
-0.001088
0.000816
0.000272
7.448e-08
-0.002448
0.0006938
0.001754
-0.0002173
0.0002765
0.0001389
-0.0003732
1.257
-0.2786
-0.001873
0.002127
-0.0002541
-0.0003418
-0.0005345
0.0008762
-1.78e-05
1.842e-05
-6.193e-07
-0.0003727
0.0006101
-0.0002373
0.0001278
1.592e-05
-0.0001437
-0.0001252
-5.041e-05
-0.0001187
0.0003647
-0.0002279
-0.0002498
0.0001104
-0.0004017
0.0002913
0.0002994
0.0001703
-0.0004697
0.0005985
-0.0007649
0.001415
-0.002442
0.001027
-0.003596
0.0002145
3.061e-05
-0.0003529
0.002957
-0.005779
0.002822
-1.409e-07
1.409e-07
-0.0008663
-0.003581
-0.0664
0.02399
0.0001693
-0.001409
0.001239
0.0001582
0.0003133
-0.0004715
2.073e-06
0.001128
-0.00113
0.1014
0.3724
-0.4739
-4.412e-05
2.245e-05
2.167e-05
0.0001493
-8.93e-05
-0.0004384
-5.099e-05
-1.511
0.5254
2.339e-06
6.599e-06
-0.0002927
5.148e-05
0.0003159
-0.0003613
4.539e-05
-0.3878
-0.6371
1.025
2.191e-05
-0.0001918
0.000108
-0.0001327
2.475e-05
9.09e-05
-0.0002963
0.0002054
7.895e-05
-0.0002548
0.0001758
-1.197
0.8095
-0.0004204
0.0002464
0.000174
5.978e-06
-3.9e-06
-2.078e-06
0.0001492
-0.0002346
8.545e-05
-0.0004695
0.0004545
1.495e-05
-0.1581
0.06343
0.09466
7.263e-05
4.363e-05
0.0002052
-0.000229
2.384e-05
-0.1622
0.1683
-0.006019
0.00271
0.000537
-0.003247
-0.003762
0.003647
0.000115
0.00026
-4.454e-05
-0.0002565
-0.0001223
-0.002604
0.003646
-0.002786
0.000338
-9.652e-06
-0.0002136
0.0002233
-7.074e-05
0.0001637
0.2816
0.5864
-0.868
-0.0002972
-0.0001232
-0.0002591
0.0004766
-0.0002175
9.968e-05
-0.0001009
1.206e-06
-0.0001209
-0.0004763
-0.01451
0.01246
0.002051
-0.0005599
0.0001004
2.368e-05
8.254e-05
1.027
-0.7454
3.087e-05
-0.0002671
-0.0001046
-0.0001425
1.533e-05
-4.554e-05
3.02e-05
2.04e-07
-6.233e-07
6.011e-05
-4.478e-05
3.01e-05
4.052e-05
0.0003414
7.302e-05
-0.0004144
0.0002311
-0.0001514
-7.969e-05
-0.004412
0.001166
0.003247
0.1727
1.023
-2.177e-09
2.177e-09
0.0001008
0.0001512
-0.000252
0.0001252
-0.0002699
5.985e-05
-5.436e-05
-5.498e-06
-9.903e-05
0.0002603
-0.0001612
2.584e-05
-0.0001453
0.0001194
-0.0002405
4.024e-05
0.0002003
-0.0004966
0.0004282
0.5588
0.8408
-4.06e-05
-5.338e-05
9.398e-05
-0.004348
0.001239
0.003108
-1.503
0.3786
-0.0001406
0.0002436
-0.0001031
0.0001821
0.0005917
0.002089
-0.0007941
0.0008715
0.0002987
-0.00117
0.1375
-1.018
0.8802
7.039e-05
-0.0004077
8.203e-05
-1.644e-05
-6.559e-05
-0.2751
-0.7149
0.8524
0.007075
0.00298
-0.0004626
0.0006292
-0.0001665
0.0003195
0.0002721
-0.0001574
-7.762e-06
0.0001652
-0.0004293
0.0003732
5.61e-05
5.208e-06
-4.388e-07
-4.769e-06
-0.004026
0.001005
0.00302
-0.003935
0.005084
-0.001149
-0.7989
-0.2691
-0.0003393
9.225e-05
0.000247
-0.0003229
0.0001546
0.0001683
0.0003764
-0.0003108
-6.562e-05
9.305e-05
-0.0001796
0.001747
-0.001713
1.085
0.08568
-1.171
0.2752
-0.2121
0.07658
-0.134
0.05739
-1.695e-05
4.341e-06
1.26e-05
0.04515
-0.844
0.0325
-0.01887
-0.01363
-0.0001084
0.0002269
-0.0001185
-0.0008955
-0.001087
0.001983
0.0001356
5.961e-05
-0.0001952
-0.2161
0.8471
-0.631
-0.0001637
0.0001165
4.718e-05
-0.0004057
0.002307
-0.001901
-0.2392
-0.01691
0.2561
0.0002514
0.0002463
0.691
0.4732
-1.164
-0.000366
-0.0002345
0.0006005
2.599e-05
6.85e-06
-3.284e-05
0.0003203
-0.000161
-0.0001593
-0.0003235
-0.0005568
0.0008803
2.099e-05
1.334e-05
-3.433e-05
0.1845
-0.04902
-0.1354
0.000132
0.0001117
-0.0002436
-0.008794
0.008673
0.0001212
-0.0002185
-6.131e-05
-6.318e-07
5.306e-06
-4.674e-06
-0.0002157
-0.0002034
0.0004192
0.0003333
0.0001066
-0.0004399
-0.007859
-0.006652
0.005177
-0.005769
0.0005916
0.001781
-0.0003882
-0.001393
7.164e-05
-7.164e-05
-0.3406
0.1969
0.1437
-0.002888
0.005101
-0.002213
0.0007928
-0.0005057
-0.0002871
-8.555e-05
0.0001627
-7.718e-05
6.375e-06
6.572e-06
0.0001271
-0.000115
-1.209e-05
-0.1176
1.202
0.04543
-0.02769
-0.01774
-5.637e-05
-2.399e-05
-0.0002197
1.174e-05
0.0002079
-1.052e-05
1.47e-05
-4.179e-06
-0.0002794
0.0007549
-0.0004754
7.373e-07
-7.372e-07
-5.374e-05
6.394e-05
-1.02e-05
1.098e-05
-1.098e-05
-0.0004953
0.0001755
0.0003198
4.185e-05
2.545e-05
-6.73e-05
-0.0001746
0.000134
4.034e-05
-2.853e-05
-1.181e-05
0.09868
-0.07387
-0.02482
0.001877
-0.001422
-0.0004549
1.092
-1.517
0.4242
1.317
-1.74
0.4226
-7.807e-05
-0.0002555
0.0003336
-0.04395
0.09322
-0.04928
0.000218
-1.255e-05
-0.0002055
-0.002995
0.001575
0.00142
-0.001283
6.755e-05
-0.007556
0.008541
-0.0009848
0.04569
-0.1006
0.05494
-0.0007012
2.198e-05
0.0006793
0.0006564
0.000991
-0.001647
0.2523
-0.00641
-0.00284
0.002836
3.803e-06
0.0001878
-0.0003317
0.0001439
0.09315
-0.04747
0.0002477
-0.0001275
-0.0001202
1.412e-05
-1.412e-05
-0.0001122
2.32e-05
8.902e-05
0.0008914
-0.002819
0.001927
1.075e-05
-4.003e-05
2.928e-05
0.0001055
-4.354e-05
-6.195e-05
-0.000156
0.0001489
7.135e-06
-0.3374
0.1227
0.2147
0.0001996
-8.486e-06
-0.0005249
-0.0005631
-0.05034
0.3506
0.0002385
-0.000177
0.0003578
-3.007e-05
-0.0003277
0.0002674
-0.0004833
0.000216
-0.4769
-0.5489
1.026
0.219
-0.000108
-0.2189
0.005425
-0.003456
-0.001968
1.421e-06
6.589e-07
-2.08e-06
9.568e-05
-0.002059
0.001964
-1.394e-05
1.394e-05
0.0005239
-0.0002644
-0.0002595
0.0006964
-0.0001932
-0.0005033
-0.001962
0.001802
0.0001609
4.446e-06
2.832e-06
-7.278e-06
0.0001973
5.095e-05
-0.0002482
-0.4115
1.372
-0.9602
-0.0001444
0.0002001
-5.574e-05
0.005795
-0.0003146
-0.00548
-0.3004
1.333
-1.033
-0.0005976
-0.0007537
0.001351
-2.146e-07
1.181e-07
9.655e-08
0.001511
0.002857
-0.004368
9.4e-05
-3.228e-05
-6.172e-05
0.006586
-0.003757
-0.002829
0.001189
0.00308
-0.004269
-1.045e-06
-1.763e-06
2.808e-06
2.427e-05
-2.427e-05
0.0005557
0.0002441
-0.0007999
-0.08834
-0.05387
-0.4602
0.223
0.2372
0.002828
-0.001072
-0.001756
-0.001294
0.0009675
0.0003263
-7.07e-05
-0.0001312
0.0002019
0.0003258
-0.0001802
-0.0001456
-0.0006107
-0.0002282
0.0008389
0.0003036
-0.0001433
-0.0001602
-0.002319
0.002088
0.0002308
-0.01026
0.01823
-0.007976
0.0001209
0.0001827
-0.03282
-0.0142
0.04702
5.109e-05
2.894e-06
-5.398e-05
0.1367
-0.5758
0.4392
-0.0001827
-0.0002678
0.0004505
-1.012e-06
8.114e-06
-7.103e-06
0.0003363
-0.00044
0.0001037
-0.000363
0.0002939
6.909e-05
0.0004205
-0.0002007
-0.0002197
-0.3821
0.09759
0.2845
-0.1883
0.05499
0.1333
4.622e-05
-7.749e-05
3.127e-05
0.007637
-0.008543
0.0009058
-0.0001053
0.0002013
-9.6e-05
0.0004504
-0.0007676
0.0003172
6.669e-05
-0.0001277
6.097e-05
-0.0004173
0.0004048
1.248e-05
0.000456
-0.0001277
-0.0003283
0.0001279
-7.81e-05
-4.975e-05
-4.056e-05
0.0001946
-0.000154
8.782e-05
-8.782e-05
-8.752e-06
-0.0001108
0.0001196
-3.494e-05
0.0002491
-0.0002142
-0.0002376
0.0001941
4.354e-05
-0.002768
0.004155
-0.001388
-0.0002536
0.0005536
-0.0003
0.0001422
0.0007536
0.0001929
-0.0002014
8.501e-06
-4.77e-07
-4.338e-06
4.815e-06
2.269e-07
-9.654e-08
-1.303e-07
0.0005108
-0.0002352
-0.0002756
-0.3198
0.4213
0.5904
0.217
-0.8074
0.0003219
-0.0004277
0.0001057
-7.373e-05
-0.0002228
0.0002965
0.004728
-0.0009031
-0.003825
-0.1887
1.181
-0.9922
0.0002349
0.0005829
-0.0008178
0.0004392
4.824e-05
-0.002471
-0.005613
0.008084
-8.125e-05
-4.953e-05
0.0001308
0.001168
-0.000884
-0.0002836
3.158e-05
-0.0001433
0.0001117
0.002917
-0.003394
0.0004769
0.7871
-0.6762
-0.008169
0.002678
0.005491
0.012
0.0005215
-0.01252
0.0001317
-1.582e-05
-0.0001159
4.479e-05
7.414e-05
-0.0001189
0.0001319
-9.99e-05
-3.203e-05
-0.004203
0.001748
0.002455
0.001209
-0.005357
0.004148
-0.0001066
0.0002603
-0.0001537
-0.0006199
0.0009315
-0.0003116
-0.002253
-0.001539
0.003793
-0.0007412
0.0002947
0.0004465
-0.0006584
-0.0001333
0.0007917
0.001786
-0.001462
-0.0003247
-0.0003183
0.0002697
4.865e-05
0.0002435
-0.0001749
-6.856e-05
0.2597
-0.3214
0.06171
3.539e-05
-2.039e-05
-1.499e-05
7.762e-07
2.98e-06
-3.756e-06
-0.0004265
0.0001674
8.557e-06
-0.0003347
0.0003261
2.409e-05
1.011e-05
0.02131
-0.1185
0.09715
5.894e-05
-5.894e-05
-9.388e-05
9.388e-05
-0.1665
-1.047
1.213
1.258
0.2308
-1.489
0.0002496
-0.0001573
-9.222e-05
-0.0001077
0.0005997
-0.000492
-4.562e-08
4.849e-08
-2.868e-09
-5.302e-06
-4.448e-06
9.749e-06
-0.000207
0.002084
-0.0004626
0.0006064
-0.0001438
-0.0001313
-1.366e-05
0.0001449
-0.001143
-0.004026
0.005169
0.003496
0.005093
-0.008589
-0.1886
0.0617
0.1269
-0.0001413
9.289e-05
4.841e-05
2.389e-05
0.000453
-0.0004769
9.864e-05
-0.0002055
0.0001069
-0.004547
0.001026
0.003521
1.59e-06
-2.966e-06
1.375e-06
-0.0002494
0.0003433
-9.391e-05
0.8158
-1.147
0.331
-0.0001096
0.0001096
-0.0001776
0.0001125
6.51e-05
0.1661
0.5625
-0.7286
-0.0002782
2.098e-05
-1.286
1.12
0.2417
-0.4256
0.1839
-0.003145
0.002177
0.0009683
-0.01103
-0.001971
0.013
-2.398e-05
1.476e-05
9.212e-06
0.78
-0.9453
0.1653
0.0005429
-0.0002853
-0.0002576
0.4764
-0.1363
-0.3401
0.0005301
-0.0009707
0.0004405
-0.01646
0.00554
0.01092
0.00325
-0.002848
-0.0004019
0.006104
-0.003203
-0.002901
-0.0001331
-0.0005515
0.0006845
-0.0005809
-0.0002366
0.0008175
-0.0001257
-4.073e-05
0.0001665
0.001864
0.0003898
-0.002253
0.1504
0.65
-0.8004
0.009379
0.06141
-0.07079
0.0004579
-0.0002594
-0.0001985
-0.000166
-0.0008509
0.001017
-5.652e-05
0.0001812
-0.0001247
-0.0001726
0.0001002
7.245e-05
4.7e-05
-2.813e-05
-1.887e-05
9.536e-05
2.521e-05
-0.0001206
2.57e-05
-2.57e-05
0.0001745
-0.0003035
0.001129
-0.0008182
-0.0003113
4.885e-05
-0.0001167
6.786e-05
-0.0007138
0.0004597
0.000254
0.0001141
5.39e-05
-0.000168
0.005964
-0.006664
0.0007002
0.0009941
-0.0004357
-0.0005584
0.495
-0.3661
-0.1289
0.0003317
-0.0003631
3.138e-05
1.14e-05
-3.065e-05
1.925e-05
-0.0003256
2.37e-06
0.0003232
0.4959
-1.094
0.5978
-0.0004133
0.0001522
0.0002611
-0.0006161
0.0003104
0.0003056
-0.002348
0.0006043
0.001743
0.001489
-0.0006672
-0.0008222
5.284e-05
-0.0002158
0.0001629
0.001427
0.006583
-0.00801
-0.0002169
0.0002503
-3.342e-05
0.0001104
0.0002047
-0.000315
-0.001171
-0.001176
3.292e-05
6.393e-05
-9.685e-05
-0.000472
-7.289e-05
0.0005449
-5.081e-06
4.449e-06
-1.18
0.5415
0.6387
0.002341
-0.004598
0.002257
0.0003015
-0.0001146
-0.0001869
0.1286
0.05654
-0.1852
0.0003144
-9.184e-05
-0.0002225
-0.0001391
-4.243e-05
0.0001815
-1.246
1.246
0.001508
0.00225
-0.003758
2.293e-05
-3.33e-05
1.037e-05
0.06713
-0.05178
-0.01536
0.006849
-0.0008856
-0.0003658
0.0004521
-8.626e-05
4.798e-05
-1.993e-05
-2.805e-05
0.01198
-0.009306
-0.002675
-1.27
0.524
0.7462
-0.0002269
0.0003699
-0.0001429
8.943e-05
-0.0002258
0.0001364
0.4037
-0.2564
-0.1473
-0.00884
0.006378
0.002462
0.0009032
-0.03176
0.03086
0.0003438
0.0001583
-0.0005022
0.0002063
7.997e-05
-0.0002863
-0.001519
-0.0007422
0.002261
-0.05336
-0.05473
0.1081
7.297e-08
5.861e-06
-5.934e-06
3.325e-08
8.905e-07
-9.238e-07
0.000193
0.0005803
0.0003499
-0.001205
0.0008551
0.0003657
-0.0005879
0.0002223
2.732e-05
1.301e-05
-0.3925
1.24
-0.8474
0.0002357
-0.001162
0.0009265
0.3505
-0.007234
-0.3432
-0.0002156
0.000304
-8.841e-05
-0.0009035
0.0008611
4.242e-05
-0.000178
-0.0002109
0.0003888
0.0004144
0.001075
-4.375e-07
2.223e-06
-1.785e-06
-8.57e-05
9.321e-05
-7.509e-06
-0.5586
0.2189
0.3397
-2.219e-06
2.219e-06
0.0001105
-8.237e-05
-2.809e-05
-3.999e-05
0.0001623
-0.0001223
-0.001814
-0.0002163
0.00203
-0.0001574
0.00024
0.0002203
0.0002313
-0.0004516
0.001042
-0.001185
0.000143
-0.0001923
0.0001591
3.319e-05
0.002109
-0.001463
-0.0006463
-0.008759
0.02452
-0.01576
5.125e-06
-5.125e-06
0.0002021
-0.0002519
4.98e-05
-0.0007306
0.0003221
0.0004085
0.000291
0.0001394
-0.0004304
0.001408
-0.001171
-0.0002377
0.0001665
0.0003268
-0.0004933
1.761e-05