/*--------------------------------*- C++ -*----------------------------------*\
  =========                 |
  \\      /  F ield         | OpenFOAM: The Open Source CFD Toolbox
   \\    /   O peration     | Website:  https://openfoam.org
    \\  /    A nd           | Version:  8
     \\/     M anipulation  |
\*---------------------------------------------------------------------------*/
FoamFile
{
    version     2.0;
    format      ascii;
    class       volVectorField;
    location    "25";
    object      U;
}
// * * * * * * * * * * * * * * * * * * * * * * * * * * * * * * * * * * * * * //

dimensions      [0 1 -1 0 0 0 0];

internalField   nonuniform List<vector> 
127143
(
(0.0018 -7.898e-05 0)
(-9.104e-05 -0.0004276 -4.602e-24)
(-6.562e-05 -0.000322 8.376e-24)
(-8.495e-05 -0.0003879 -1.398e-27)
(0.001946 0.0005936 -2.093e-22)
(-7.172e-05 -0.0003991 4.81e-27)
(0.02525 0.01558 0)
(0.007636 0.00363 -3.058e-22)
(0.006103 0.002925 1.011e-21)
(-0.003829 -0.0001476 0)
(0.03645 0.05018 1.532e-21)
(0.0165 0.01096 1.188e-21)
(0.0002024 -7.664e-05 -1.709e-24)
(-0.0001103 -0.000436 0)
(0.008254 0.06297 1.599e-20)
(0.04093 -0.003787 0)
(-0.0002248 -0.001031 -1.358e-23)
(0.2108 -0.09242 1.475e-20)
(-0.08991 -0.005904 0)
(0.05023 0.008423 0)
(-0.1894 0.04495 7.501e-21)
(-0.001863 0.0005611 0)
(0.9675 -0.1322 0)
(0.6171 -0.05969 0)
(-0.001873 0.000632 -1.612e-22)
(0.2363 -0.03645 0)
(-0.03257 0.0006039 2.284e-20)
(-0.03274 -0.001039 -3.439e-22)
(0.2312 -0.1031 0)
(0.5738 -0.09054 4.033e-21)
(0.4819 -0.02871 0)
(0.2296 -0.03382 -1.062e-21)
(-0.01029 -0.001838 4.078e-21)
(-0.1125 0.02883 -1.529e-20)
(0.8628 -0.05555 2.642e-20)
(-0.01165 -0.0006036 -4.553e-24)
(-0.1964 0.06877 4.576e-21)
(0.4815 0.003324 -6.819e-21)
(0.7343 -0.06644 -1.203e-21)
(0.2103 -0.009664 3.153e-25)
(-0.09053 -0.006991 0)
(1.117 0.502 -8.955e-21)
(1.098 0.4905 6.887e-21)
(0.0004241 -0.0001452 0)
(0.1866 -0.08716 -1.11e-20)
(-0.1161 0.02721 4.97e-21)
(0.234 -0.1085 0)
(-0.1837 0.06598 -6.521e-22)
(0.7406 -0.1297 1.07e-22)
(0.6932 -0.05578 -8.652e-22)
(0.04857 -0.003504 -1.494e-22)
(0.967 -0.02626 5.554e-20)
(-0.1218 0.03664 0)
(1.246 0.1399 -1.247e-20)
(1.001 -0.001225 2.931e-20)
(0.5698 -0.1411 4.66e-22)
(1.001 -0.001218 -2.634e-20)
(1.083 -0.07868 0)
(1.011 -0.01002 -1.682e-20)
(1.244 0.1423 -2.424e-20)
(0.4934 -0.01014 -7.605e-20)
(-0.102 0.04264 -1.116e-21)
(1.067 -0.07535 3.498e-21)
(1.001 0.0005165 6.978e-20)
(-0.1658 0.01836 0)
(0.8474 -0.2146 -9.814e-21)
(1.12 0.149 4.349e-20)
(1.029 -0.0779 0)
(1.037 -0.07753 9.19e-22)
(0.9916 -1.239e-05 0)
(0.5504 -0.04116 0)
(-0.03516 0.0007539 -1.08e-20)
(-0.1598 -0.04163 -6.12e-21)
(1.011 -0.009881 -9.244e-21)
(1.004 0.003024 -3.311e-22)
(-0.03556 -0.0006926 1.079e-20)
(1.016 0.03882 -3.617e-20)
(-0.1773 0.05953 0)
(0.5896 -0.1521 -8.422e-22)
(1 0.0007955 0)
(0.2265 -0.1023 1.667e-23)
(0.05627 0.007125 3.426e-23)
(-0.1839 0.04332 6.941e-21)
(0.2602 -0.01842 0)
(-0.1423 -0.007115 1.146e-21)
(-0.1781 0.06125 0)
(0.8383 -0.08393 -2.134e-21)
(-0.03707 -0.003192 5.968e-21)
(0.8467 -0.2119 0)
(1.258 0.773 0)
(0.9959 -0.008853 0)
(1.212 -0.02673 0)
(1.251 0.7671 0)
(-0.1888 0.04456 -7.728e-21)
(-0.2497 0.05089 0)
(1.024 0.03416 7.076e-21)
(1.118 0.4942 1.957e-20)
(0.3541 -0.02658 0)
(-0.1647 0.04833 2.413e-21)
(1.116 0.1505 0)
(1 0.0007713 0)
(0.7693 -0.1378 0)
(0.9693 0.9091 -1.571e-21)
(1.063 -0.1178 0)
(-0.1775 0.06122 -1.339e-21)
(-0.1659 0.04875 3.457e-21)
(1.001 -0.1553 -1.11e-21)
(0.9908 5.413e-05 0)
(0.6692 -0.2372 0)
(1.002 -0.0009467 4.212e-20)
(0.01728 0.05899 -5.219e-21)
(-0.03667 -0.00244 1.148e-20)
(-0.2185 0.04893 -7.952e-21)
(0.2667 0.614 0)
(0.9967 0.01173 1.243e-20)
(1.01 -0.1576 -1.416e-22)
(0.9943 0.04569 -3.635e-21)
(1.004 0.003166 -4.173e-20)
(1.016 0.03774 2.862e-20)
(-0.0009848 -0.004154 0)
(1.002 -0.001008 -5.892e-20)
(-0.1836 0.04765 -2.05e-21)
(0.7866 -0.2782 0)
(1.061 -0.08499 9.93e-21)
(0.2395 -0.1066 7.992e-22)
(0.1629 -0.0217 -4.664e-21)
(-0.1327 0.03932 0)
(1.037 0.002206 1.141e-19)
(-0.1819 0.03168 -2.831e-21)
(0.5681 -0.1646 -9.764e-22)
(-0.1847 0.05364 0)
(-0.2424 0.05542 -5.807e-21)
(1.108 -0.09615 -7.487e-21)
(-0.1772 0.05965 0)
(-0.0003353 -0.001822 -7.466e-23)
(-0.1844 0.05332 -2.301e-21)
(1.073 -0.05437 0)
(-0.1656 0.03898 2.01e-21)
(0.2668 -0.1509 -6.469e-21)
(1.105 -0.0216 9.397e-21)
(0.9361 -0.1587 1.29e-20)
(0.9895 0.0331 3.708e-20)
(-0.08533 0.02176 4.609e-22)
(-0.07286 0.0234 -7.587e-21)
(-0.1157 0.03589 -1.523e-21)
(1.26 0.5178 5.238e-21)
(-0.06528 0.3554 1.492e-21)
(1.001 0.0004491 -6.315e-20)
(-0.2436 0.05595 5.112e-21)
(0.8587 0.7436 -8.578e-22)
(1.076 -0.1116 -2.568e-21)
(0.8037 -0.1598 0)
(0.7322 0.0169 2.308e-20)
(0.823 -0.1145 0)
(0.2582 -0.1401 0)
(-0.1435 -0.007009 0)
(1.084 -0.07785 -3.854e-21)
(0.5366 -0.1861 0)
(-0.1831 0.06575 -1.222e-21)
(0.3146 -0.02834 1.394e-21)
(0.5877 -0.03739 0)
(0.06165 -0.03129 8.561e-21)
(0.9961 -0.00881 5.561e-22)
(-0.1841 0.0536 -6.025e-21)
(0.3517 -0.09396 0)
(-0.1819 0.02137 1.431e-20)
(-0.1915 0.06685 -3.175e-21)
(0.6573 -0.1956 2.178e-20)
(0.06908 0.03927 -1.025e-20)
(0.9455 0.06063 -6.027e-21)
(-0.04183 0.01285 0)
(-0.07479 0.02461 3.527e-21)
(1.002 -0.1675 -2.142e-22)
(0.8855 -0.2461 -3.333e-21)
(0.9801 -0.001066 3.462e-20)
(-0.08804 0.005437 3.167e-23)
(1.243 0.5685 -1.022e-21)
(-0.1825 0.03299 -2.744e-21)
(0.6907 -0.06991 0)
(1.007 -0.02013 6.526e-21)
(0.8846 -0.2465 -1.121e-21)
(1.001 -0.00578 0)
(-0.07166 -0.009214 4.793e-22)
(-0.08777 0.004545 -3.21e-23)
(0.5806 -0.1712 2.08e-21)
(-0.09833 0.04156 1.99e-21)
(1.057 0.3282 -9.016e-21)
(0.2841 0.6314 -4.177e-21)
(0.6462 -0.06338 -2.624e-21)
(1.025 -0.02933 4.319e-20)
(-0.2012 0.03322 8.786e-22)
(-0.2539 0.04146 -7.125e-21)
(1.072 -0.0535 6.423e-20)
(0.4215 0.9973 6.265e-22)
(-0.0002062 -0.001918 1.245e-22)
(-0.1362 0.03364 0)
(1.004 1.111e-06 0)
(0.998 -1.405e-07 3.709e-22)
(0.02045 0.007582 0)
(0.9919 0.01707 4.102e-21)
(1.013 0.007271 3.704e-20)
(0.9293 0.0181 1.103e-19)
(0.9904 -0.04262 6.375e-21)
(-0.1966 0.06885 -2.146e-21)
(-0.0001504 -0.0008323 1.826e-24)
(0.9451 -0.05988 4.03e-21)
(0.9949 -0.08712 1.087e-21)
(1.01 -0.1728 9.346e-23)
(0.6925 -0.1104 -3.893e-21)
(0.9967 0.01138 -6.332e-21)
(1.145 -0.06711 1.794e-20)
(-0.1305 -0.001611 7.083e-22)
(0.9919 -0.003814 1.366e-20)
(0.08554 0.0435 -1.092e-20)
(-0.1879 0.05465 -2.467e-24)
(0.03105 0.001428 0)
(-0.03657 0.01248 -1.267e-21)
(0.9923 -0.1867 1.342e-22)
(-0.2192 0.05407 -6.477e-21)
(0.9964 -0.0861 1.58e-22)
(1.235 0.5645 -2.155e-21)
(1.002 0.005579 4.063e-21)
(0.7918 -0.1545 -1.743e-23)
(-0.07697 0.03764 1.757e-21)
(0.2905 -0.02703 0)
(-0.05585 0.01897 0)
(0.4338 -0.1121 -1.079e-21)
(0.5393 0.009539 7.582e-21)
(-0.1211 0.04178 2.855e-21)
(-0.1511 0.04603 3.595e-21)
(-0.1952 0.04607 4.763e-21)
(1.002 -0.006292 2.059e-21)
(-0.16 -0.04154 1.214e-20)
(-0.0001398 -0.009527 0)
(-0.1942 0.04586 0)
(1.049 -0.07182 9.415e-21)
(-0.1843 0.05354 2.886e-21)
(0.004697 -0.0007236 7.802e-23)
(1.013 0.007046 -3.44e-20)
(-0.1804 0.02873 4.421e-21)
(-0.2497 0.04105 6.15e-21)
(-0.1766 0.0166 -2.13e-20)
(-0.1583 0.03985 -3.164e-22)
(0.5561 -0.1945 1.324e-24)
(0.3922 0.03809 0)
(-0.0007956 -0.004291 2.297e-26)
(0.9127 -0.1821 1.392e-22)
(-0.03352 0.0005681 0)
(-0.008139 0.002247 1.857e-21)
(1.001 -5.556e-05 -1.249e-21)
(1.235 0.4407 -2.134e-20)
(0.2283 -0.02526 4.064e-21)
(0.9521 -0.2155 0)
(-0.1596 0.03582 0)
(0.7228 -0.1743 9.014e-22)
(0.6878 -0.2425 0)
(1.036 0.001693 -8.946e-20)
(0.4724 0.1865 0)
(0.9223 -0.2222 0)
(0.8828 0.2529 9.562e-21)
(-0.135 0.03392 -3.774e-21)
(1.001 -0.01638 -6.889e-22)
(1.21 -0.02479 3.674e-22)
(0.9887 0.03217 -3.055e-20)
(0.07028 0.03381 0)
(-0.175 0.0176 -7.048e-21)
(-0.1402 0.04446 1.015e-20)
(0.2293 -0.1389 0)
(0.5322 -0.1353 5.191e-20)
(1.316 0.1675 -8.365e-21)
(0.3871 -0.0708 0)
(0.9762 -0.001695 -4.171e-20)
(-0.1769 0.0615 -9.557e-22)
(-0.1838 0.02852 -4.519e-21)
(1.129 -0.07437 5.996e-21)
(-0.1954 0.033 -4.236e-21)
(-0.2172 0.04863 0)
(0.8274 -0.1313 1.476e-21)
(0.9592 -0.002984 -1.04e-21)
(0.8676 -0.242 3.348e-21)
(1.002 -0.0004847 7.717e-22)
(1.021 0.03676 1.77e-21)
(1.062 -0.1173 -7.235e-24)
(0.9944 0.004385 0)
(1.004 0.01139 7.676e-21)
(-0.0008378 -0.002022 -1.804e-23)
(-0.2072 0.0573 0)
(0.9971 0.0127 6.411e-21)
(0.7829 -0.1116 1.367e-21)
(1.006 -0.02017 9.088e-21)
(0.784 0.01062 -3.118e-20)
(0.9573 -0.168 0)
(1.048 -0.07259 -9.221e-21)
(0.9857 -0.1816 0)
(0.9938 -0.007056 -9.875e-21)
(0.655 -0.2505 -5.845e-22)
(0.4665 -0.03545 2.406e-21)
(-0.009585 -0.01982 -6.368e-22)
(-0.1587 0.04024 1.22e-21)
(1.315 0.1669 6.065e-21)
(0.3686 -0.04349 -1.114e-21)
(0.8977 -0.2013 -1.402e-21)
(0.766 -0.1996 -1.36e-20)
(1.01 -0.1571 1.334e-21)
(0.2754 -0.01985 0)
(0.4512 -0.2343 5.141e-23)
(1.009 -0.1724 3.282e-23)
(0.9916 -0.003901 0)
(0.06883 -0.007521 -1.393e-23)
(1.086 -0.1123 -3.05e-21)
(0.9805 -0.1506 -1.5e-21)
(0.002996 -0.02813 -2.151e-22)
(0.5402 -0.1292 0)
(1.002 -0.0005953 1.128e-21)
(0.9913 0.005577 -2.282e-20)
(1.283 0.5867 9.317e-22)
(0.2483 0.01004 3.711e-21)
(0.3477 -0.03931 3.024e-21)
(1.21 0.004115 2.936e-20)
(0.9281 -0.01653 1.568e-21)
(0.9662 -0.131 0)
(0.5215 -0.03602 -4.178e-21)
(1.067 0.006099 2.556e-20)
(0.9529 -0.2153 5.269e-22)
(1.28 0.5834 0)
(0.1881 0.01353 -8.178e-21)
(0.9046 -0.02447 5.418e-20)
(0.02471 -0.0109 -5.268e-24)
(0.5573 -0.02168 1.979e-21)
(1.215 0.6205 8.241e-21)
(-0.1371 0.05174 0)
(1.004 0.01123 -7.329e-21)
(0.8679 -0.05731 -1.012e-19)
(1.004 9.041e-06 0)
(0.9979 1.675e-06 0)
(0.823 -0.1107 0)
(0.6812 -0.2395 -3.836e-21)
(1.001 -0.1675 -1.802e-22)
(-0.1374 0.05221 -1.4e-21)
(-0.215 0.05839 -1.959e-20)
(1.102 -0.02265 -4.207e-20)
(0.9928 -0.1864 0)
(-0.08104 0.03363 1.46e-21)
(-0.1871 0.03286 7.058e-22)
(0.1787 0.2014 -4.805e-22)
(0.7715 -0.107 -8.738e-22)
(-0.2275 0.05435 -6.206e-21)
(-0.2332 0.0473 3.079e-21)
(0.4074 -0.04989 -1.751e-21)
(-0.1804 0.026 0)
(0.4327 -0.04744 1.377e-21)
(0.007031 0.01176 5.054e-21)
(-0.1102 0.02166 -6.318e-22)
(-0.1922 0.03295 3.088e-21)
(0.9247 0.06498 0)
(-0.2296 0.05641 -1.512e-20)
(-0.1615 0.03656 -3.125e-21)
(1.26 0.4921 -5.073e-21)
(1.004 -0.007184 7.092e-21)
(0.5387 -0.02066 0)
(-0.1673 0.05402 -1.568e-21)
(1.088 -0.07652 1.027e-21)
(0.7313 -0.1067 -2.872e-20)
(0.7103 -0.05175 0)
(0.7046 -0.05971 -2.389e-21)
(1.002 0.002628 2.864e-22)
(0.9922 0.01669 -1.24e-20)
(0.8965 -0.003325 0)
(-0.2099 0.03868 4.643e-21)
(0.9622 -0.00238 0)
(0.3692 0.01664 7.027e-20)
(1.067 0.003842 -5.382e-20)
(0.2788 -0.03029 -3.414e-21)
(0.6794 -0.04974 3.4e-21)
(1.025 -0.02804 0)
(1.173 0.01786 -7.072e-22)
(0.5165 -0.0488 1.994e-21)
(0.007703 -0.01171 2.243e-26)
(-0.161 0.05037 -6.524e-21)
(0.9658 -0.005555 3.283e-21)
(0.6665 -0.0649 -4.536e-20)
(0.1905 -0.02198 4.612e-21)
(0.4576 -0.05598 0)
(0.8955 -0.2034 -5.572e-21)
(0.9946 0.04402 0)
(0.09049 -0.006865 0)
(0.9752 0.1721 0)
(0.2232 -0.01115 0)
(-0.1403 0.03497 -1.015e-21)
(0.4124 -0.02626 -2.832e-20)
(1.012 -0.00787 -4.813e-20)
(0.7359 -0.1689 0)
(-0.0846 0.02839 2.47e-21)
(0.7245 -0.1854 9.945e-22)
(0.6436 -0.05737 4.097e-21)
(0.4623 -0.0306 3.043e-21)
(0.7403 -0.1715 -1.08e-20)
(0.5171 -0.02999 0)
(0.9229 0.0633 0)
(1.001 -0.01645 0)
(0.2345 -0.01967 -1.332e-21)
(1.002 0.005305 -1.595e-21)
(-0.1863 0.04242 0)
(-0.07406 -0.009038 0)
(0.9815 0.1738 0)
(1.064 -0.1255 1.748e-21)
(-0.1753 0.06077 -7.056e-21)
(1.098 -0.1023 4.987e-21)
(1 0.0007243 -7.47e-20)
(0.7349 -0.07669 0)
(0.6695 -0.2745 0)
(0.4194 -0.05785 -1.519e-21)
(0.9374 -0.1577 -1.343e-20)
(-0.1759 0.06468 0)
(0.7852 -0.276 0)
(-0.2482 0.05046 -4.495e-21)
(-0.1885 0.05085 -5.677e-21)
(0.3399 -0.06865 0)
(0.8825 0.04803 6.02e-21)
(0.7141 -0.2831 -1.762e-21)
(-0.1923 0.06737 0)
(-0.03599 0.01261 -4.792e-21)
(-0.1907 0.05474 0)
(1.003 0.0001308 2.576e-23)
(-0.1525 0.04649 -4.465e-21)
(0.9433 0.2961 -1.283e-21)
(1.092 0.4785 4.095e-22)
(0.9057 -0.1442 -1.207e-20)
(-0.1854 0.01914 2.292e-20)
(0.9762 -0.1059 -2.541e-21)
(1.003 -0.0002494 0)
(-0.1869 0.05424 0)
(-0.1082 0.02259 0)
(1.148 -0.08109 1.054e-19)
(0.809 0.1549 1.089e-21)
(1.002 0.002566 -9.081e-21)
(1.033 -0.1536 1.406e-21)
(-0.2414 0.05429 -1.188e-20)
(0.9679 -0.02528 -2.088e-20)
(0.9936 -0.006833 0)
(0.9973 -0.0004937 -5.332e-21)
(0.7299 -0.05968 1.238e-21)
(1.071 -0.05873 -2.204e-20)
(0.6815 -0.2457 6.778e-21)
(0.964 0.04261 0)
(0.3745 -0.02718 -1.813e-22)
(0.9887 0.005299 5.356e-20)
(0.3604 -0.2275 0)
(0.8835 -0.006453 -2.759e-21)
(-0.1303 -0.002909 6.942e-22)
(-0.1834 0.0479 0)
(0.5249 -0.06829 -2.333e-23)
(1.063 -0.1244 -5.075e-21)
(-0.2096 0.03718 2.841e-20)
(0.865 0.1087 -3.06e-22)
(-0.1953 0.06725 -6.728e-22)
(0.3527 -0.04183 -1.021e-21)
(-0.1818 0.01618 0)
(-0.1955 0.06868 0)
(1.184 0.07834 5.212e-21)
(1.11 -0.09625 2.399e-21)
(-0.1043 0.03547 4.55e-21)
(0.05893 0.0009237 0)
(0.3339 0.5709 -1.741e-20)
(-0.1166 0.03595 2.81e-24)
(0.994 -0.001148 0)
(1.008 0.02699 0)
(-0.1757 0.03459 0)
(-0.1995 0.0525 7.016e-21)
(0.9985 -0.0001674 0)
(-0.1582 0.04581 2.763e-21)
(1.225 -0.003918 2.231e-20)
(1.062 -0.08365 -1.505e-20)
(0.2892 0.00637 -1.318e-21)
(0.9999 -0.07298 5.688e-22)
(1.004 -0.0001219 0)
(0.1939 -0.06567 -4.044e-20)
(1.223 -0.002859 -2.318e-20)
(-0.1298 0.04527 -1.954e-21)
(0.05561 0.03389 3.673e-22)
(0.2159 -0.1148 5.911e-22)
(0.3438 -0.2158 -3.923e-21)
(-0.2833 0.04179 3.236e-21)
(0.5382 -0.1292 0)
(0.6706 -0.267 0)
(0.8567 0.1605 -1.084e-21)
(0.1929 0.02607 -2.734e-22)
(1.011 0.00136 4.179e-20)
(0.3601 -0.03259 -2.356e-21)
(0.9725 0.01628 4.09e-20)
(1.278 0.592 3.069e-22)
(0.8771 -0.08801 1.848e-21)
(-0.1436 0.03929 0)
(1.262 0.5069 2.321e-21)
(-0.0002539 -0.001402 0)
(-0.1815 0.05368 7.709e-21)
(0.2678 0.3969 7.6e-21)
(1.069 -0.03195 -2.486e-22)
(1.041 0.7427 8.884e-21)
(0.9923 -0.001376 -7.837e-20)
(0.2123 -0.1174 0)
(1.008 0.02697 3.572e-23)
(-0.1569 0.04343 0)
(-0.1314 0.03218 -3.791e-21)
(-0.0001968 -0.001119 0)
(0.0005526 -0.002897 1.037e-22)
(0.001593 -0.0005871 -3.441e-23)
(1 -0.0002737 -3.715e-20)
(-0.2311 0.05705 0)
(0.1347 0.05984 0)
(0.9917 0.005668 4.399e-20)
(-0.1538 0.05582 2.423e-21)
(0.7867 -0.2801 6.849e-21)
(-0.1742 0.05608 6.824e-21)
(1.034 -0.1437 0)
(-0.1853 0.04848 0)
(0.5161 -0.06353 -1.209e-21)
(-0.158 0.04542 -2.819e-21)
(-0.08649 0.01581 1.757e-21)
(0.9988 -0.0008656 0)
(-0.1122 -0.01172 -9.358e-22)
(-0.001164 0.0003828 0)
(0.6803 -0.2744 1.182e-21)
(0.3854 -0.03852 8.282e-22)
(-0.04522 0.01345 1.02e-21)
(1.011 -0.009352 -1.467e-20)
(1.076 -0.1114 -2.807e-21)
(0.9925 -0.04325 -2.143e-21)
(0.08714 -0.003203 9.88e-21)
(0.9996 -0.006724 0)
(0.3201 -0.024 0)
(0.418 0.2054 0)
(-0.1034 0.03499 -3.705e-21)
(0.9976 3.405e-05 0)
(-0.1762 0.0357 -2.557e-21)
(1.035 -0.09306 -6.032e-21)
(-0.01206 0.001337 5.309e-26)
(0.6393 -0.2682 3.045e-21)
(0.132 0.05068 1.952e-21)
(0.09407 -0.006866 -3.441e-21)
(0.969 0.00912 2.797e-21)
(-0.1695 0.05918 -2.107e-21)
(0.759 -0.2686 -3.869e-21)
(0.9984 -0.0001685 4.261e-21)
(0.8968 -0.2031 7.452e-21)
(0.9909 0.05458 -3.18e-20)
(0.5078 -0.0423 -1.916e-21)
(0.7264 -0.05059 1.791e-21)
(-0.1911 0.0505 -7.376e-21)
(-0.09037 0.03064 1.715e-21)
(-0.1375 0.03396 1.826e-21)
(1.195 0.1811 0)
(0.7415 -0.2867 1.664e-21)
(-0.182 0.06203 0)
(-0.189 0.05476 2.114e-22)
(1.019 -0.004319 -7.497e-21)
(0.2463 -0.01199 4.718e-22)
(-0.1983 0.05468 -3.01e-21)
(0.4 -0.06305 2.127e-21)
(1.079 -0.1149 -4.17e-21)
(-0.1741 0.04944 1.269e-21)
(1 0.001479 0)
(0.9998 0.001902 1.26e-20)
(0.8894 0.2428 -1.548e-20)
(-0.2234 0.05353 -3.098e-21)
(1.024 0.7778 0)
(0.9903 0.006721 -3.02e-20)
(1.004 2.133e-05 -5.55e-22)
(0.7693 -0.2597 0)
(0.5829 -0.2543 0)
(-0.1783 0.0625 2.276e-21)
(0.6692 -0.2674 0)
(-0.08681 0.02962 6.181e-21)
(-0.03785 0.01236 0)
(0.953 -0.1998 -7.27e-22)
(1.014 0.03388 0)
(0.9998 -0.0004675 7.217e-21)
(-0.1141 0.04005 3.196e-21)
(-0.1684 0.04662 -2.104e-21)
(0.9584 -0.2186 1.365e-21)
(1.003 -0.001281 1.214e-20)
(-0.03721 0.0003605 5.277e-21)
(1.094 -0.1076 0)
(-0.219 0.05901 7.665e-21)
(0.9662 -0.004427 8.616e-21)
(0.2689 -0.03333 2.245e-22)
(0.9901 0.006461 5.574e-20)
(-0.1739 0.06051 -1.135e-21)
(-0.0776 -0.01343 0)
(0.3305 -0.02054 5.37e-22)
(0.9999 2.94e-05 2.094e-22)
(-0.1384 0.04585 -1.053e-20)
(-0.1343 0.03311 -9.017e-22)
(0.1025 -0.06 -9.96e-21)
(1.004 -0.000111 -1.747e-21)
(1.01 -0.1576 1.145e-21)
(-0.03709 0.01247 5.919e-22)
(0.9974 -0.0006048 0)
(1.064 -0.1255 0)
(0.9932 0.01181 -8.524e-22)
(0.8651 -0.05797 2.484e-21)
(0.1364 0.01651 0)
(0.9944 0.004153 3.087e-20)
(-0.1956 0.04833 1.666e-20)
(0.5892 -0.08015 1.004e-21)
(0.001979 -0.02869 0)
(-0.2488 0.03972 -6.463e-21)
(-0.03468 0.01858 -1.023e-21)
(0.4539 -0.04997 -4.131e-21)
(0.4712 -0.05731 -1.154e-21)
(0.164 0.0442 -4.753e-20)
(0.7639 -0.07179 -9.932e-22)
(1.245 0.7635 1.172e-21)
(0.7588 -0.03764 -2.104e-21)
(-0.1252 0.0323 -7.165e-22)
(-0.0636 0.03738 -1.951e-21)
(0.314 -0.0286 1.067e-21)
(1.003 -0.001241 0)
(0.5701 -0.1198 -2.782e-22)
(0.9931 0.004968 -1.266e-20)
(0.1968 0.2189 -2.506e-20)
(1.041 0.01787 4.735e-20)
(-0.07497 0.0209 6.766e-21)
(1.003 -0.0002949 0)
(0.9968 0.01254 1.757e-20)
(1.087 -0.07795 1.871e-20)
(0.7171 -0.2848 8.983e-22)
(-0.2085 0.04985 3.533e-21)
(1.003 -0.0006321 1.072e-20)
(1.002 -0.001624 -1.661e-20)
(-0.126 0.0429 -2.454e-21)
(-0.0646 -0.006801 0)
(-0.2056 0.04811 7.404e-21)
(0.3758 -0.03095 -3.113e-21)
(-0.1534 0.01815 0)
(0.6811 -0.2447 -5.73e-21)
(-0.182 0.04776 -4.844e-22)
(0.6693 -0.2756 0)
(-0.1833 0.03237 -9.772e-23)
(-0.176 0.0515 -2.796e-20)
(-0.1386 0.01242 0)
(1.003 -0.0006671 -1.897e-21)
(-0.1791 0.01566 1.552e-20)
(-0.1757 0.03005 3.47e-22)
(1.007 -0.1511 -2.905e-22)
(1.279 0.06974 0)
(0.9965 -0.00837 -2.851e-20)
(1.004 2.292e-05 5.349e-23)
(0.2431 0.01464 -7.757e-21)
(0.3021 -0.1707 3.044e-24)
(0.1931 0.02619 1.375e-21)
(-0.01986 0.006142 1.048e-21)
(1.04 0.01889 0)
(1.004 -4.507e-06 4.085e-23)
(-0.1736 0.05318 0)
(-0.233 0.03112 0)
(0.9325 0.01787 -8.77e-20)
(-0.2098 0.03153 -6.654e-21)
(1.003 -0.1269 0)
(0.9937 -0.004826 -2.486e-20)
(-0.1411 0.04248 1.008e-20)
(0.939 -0.2141 -5.369e-22)
(-0.1692 0.02975 2.253e-21)
(0.8182 -0.1406 -4.163e-20)
(0.0004027 -0.0001302 0)
(-0.05896 0.01957 0)
(-0.1952 0.06864 -6.004e-22)
(-0.1954 0.06728 1.251e-21)
(-0.2069 0.05719 0)
(-0.269 0.0397 6.416e-21)
(0.3075 -0.04358 -5.22e-22)
(-0.2785 0.04338 0)
(0.9613 -0.01746 -1.18e-20)
(-0.185 0.03817 1.05e-20)
(-0.03103 -0.01034 0)
(-0.1841 0.042 -4.112e-21)
(1.001 -0.001186 3.813e-20)
(0.8571 -0.1334 -1.036e-21)
(0.8278 -0.2054 0)
(0.5431 0.06695 -3.506e-20)
(0.9976 1.594e-05 2.497e-23)
(1.001 -0.001225 -5.081e-20)
(0.0003838 -0.0116 0)
(1.069 -0.02998 -4.979e-21)
(0.6272 -0.1168 8.787e-23)
(-0.2601 0.03779 -4.021e-22)
(0.5129 -0.2717 0)
(0.06626 -0.008335 1.44e-20)
(1.273 0.218 0)
(0.3284 -0.028 1.378e-21)
(0.6746 0.03458 4.984e-20)
(0.7252 -0.1959 0)
(1.01 0.001153 -1.509e-20)
(1.003 -0.0007247 0)
(1.236 0.4637 0)
(0.9534 0.2977 0)
(-0.2243 0.04288 1.069e-21)
(0.5495 0.0534 0)
(0.4195 -0.1724 3.652e-21)
(-0.1517 0.03736 0)
(0.657 -0.2701 -2.969e-21)
(1.143 -0.06599 1.136e-19)
(0.7877 -0.1085 4.086e-20)
(1.001 6.809e-05 -8.226e-23)
(0.4104 -0.02705 -9.464e-22)
(1.002 -0.0724 -1.37e-23)
(0.6863 -0.1601 -4.628e-22)
(-0.0004882 -0.002268 1.762e-23)
(1.034 -0.158 3.984e-22)
(0.1114 0.03975 -1.292e-20)
(-0.1595 0.04989 6.59e-21)
(1 4.017e-05 -1.962e-22)
(1.055 -0.1133 7.387e-23)
(0.6916 -0.05967 -2.743e-21)
(-0.0329 0.01132 0)
(0.04074 -0.03746 7.967e-21)
(-0.04293 0.01815 5.429e-21)
(-0.1831 0.03238 -1.48e-21)
(0.9255 0.7918 0)
(-0.1888 0.05108 5.435e-21)
(0.5448 -0.2849 5.235e-21)
(-0.0943 0.03047 -1.406e-21)
(0.7718 -0.1891 2.156e-22)
(1.024 -0.1098 2.108e-21)
(1.085 -0.1121 1.439e-21)
(-0.1307 0.0386 2.98e-21)
(0.9801 -0.1601 1.073e-21)
(0.002406 -0.000144 0)
(0.825 -0.2064 0)
(0.9453 0.05663 3.038e-20)
(0.9482 -0.2133 -3.035e-22)
(0.6951 -0.2896 4.975e-21)
(0.8882 -0.09248 -5.51e-22)
(1.006 -0.0009699 0)
(-0.05433 -0.008659 -3.68e-22)
(0.01559 0.0114 -1.016e-20)
(-0.178 0.06268 -2.108e-21)
(1.004 5.902e-06 -8.853e-23)
(-0.01943 0.007204 0)
(-0.1925 0.0555 0)
(0.2715 -0.037 3.971e-21)
(1.002 7.502e-05 4.851e-22)
(-0.2758 0.04348 8.401e-21)
(-0.1516 0.04531 0)
(-0.2631 0.0498 1.134e-20)
(-0.2381 0.04136 -6.311e-21)
(1.001 2.274e-05 -4.156e-22)
(-0.1674 0.05898 -3.669e-21)
(-0.02233 0.001459 0)
(-0.1756 0.04805 1.286e-20)
(-0.1644 0.03663 0)
(0.9908 0.01833 -4.746e-21)
(-0.07753 0.03385 1.321e-21)
(0.0185 0.2114 0)
(1.02 0.0009778 -1.541e-20)
(1.001 -0.18 -1.177e-22)
(0.9611 -0.187 0)
(-0.2666 0.0396 -6.238e-21)
(-0.1814 0.05366 0)
(0.8979 -0.1998 -4.492e-21)
(1.034 -0.1582 0)
(0.2013 -0.02371 6.353e-22)
(-0.1485 0.04616 0)
(0.9982 4.689e-06 -4.785e-22)
(-0.1679 0.05921 3.472e-21)
(-0.1211 0.05116 5.032e-22)
(0.2223 -0.01816 0)
(0.456 -0.06593 1.179e-21)
(1.249 0.1287 0)
(-0.1523 0.0552 0)
(-0.09537 0.03234 4.355e-22)
(0.9979 2.701e-05 1.603e-22)
(-0.1747 0.05638 -6.431e-21)
(-0.1413 0.04229 0)
(0.04069 0.03044 0)
(0.0005048 -0.01126 -1.967e-23)
(0.05311 0.03193 -1.393e-21)
(-0.1048 0.03587 5.686e-21)
(-0.2105 0.04283 -8.641e-22)
(-0.1484 0.03072 0)
(0.9459 -0.2058 0)
(1 -0.0002712 1.823e-20)
(3.316e-05 -1.433e-05 -1.299e-23)
(-0.1947 0.05453 7.002e-21)
(-0.2447 0.03856 5.76e-21)
(-0.08815 0.03152 1.968e-21)
(-0.1912 0.06814 -4.149e-21)
(-0.1721 0.0598 8.085e-21)
(-0.167 0.05309 -3.075e-21)
(0.5902 -0.04577 0)
(0.9997 -0.000435 0)
(0.01742 -0.004667 0)
(1.056 -0.124 -1.248e-23)
(1.001 3.59e-05 0)
(-0.1641 0.05028 -1.131e-20)
(1.277 0.5905 0)
(0.9941 -0.1516 1.051e-21)
(0.8008 -0.2748 -2.072e-21)
(1.004 -6.34e-05 -7.067e-21)
(-0.1798 0.04689 0)
(-0.08919 0.008854 0)
(1.011 0.001428 -4.878e-20)
(1.004 -7.098e-05 0)
(1.277 0.06693 0)
(-0.1075 0.04543 4.167e-21)
(-0.1535 0.01898 -1.662e-21)
(-0.1748 0.06104 3.519e-21)
(-0.175 0.06145 3.166e-21)
(0.05475 -0.0009352 1.783e-23)
(1.05 -0.133 0)
(0.6753 -0.1225 -3.002e-20)
(1.001 -0.001244 0)
(-0.1709 0.05215 -3.214e-21)
(-0.195 0.06829 0)
(0.4965 -0.03065 -2.239e-21)
(0.3066 -0.02522 0)
(0.6599 -0.1934 -2.056e-20)
(1.004 -0.0003774 0)
(1.011 -0.008951 1.983e-21)
(1.003 -0.01062 2.231e-20)
(-0.03319 3.426e-06 5.675e-21)
(1.001 -0.001172 6.689e-21)
(1.132 -0.07136 -4.197e-20)
(0.3278 -0.1976 1.14e-21)
(1.045 -0.1317 2.737e-21)
(0.2271 -0.03486 -2.063e-21)
(1.001 -0.001511 0)
(-0.1126 0.001127 -1.056e-21)
(1.046 -0.1256 -1.749e-21)
(1.001 0.006751 0)
(0.4141 -0.0504 1.71e-21)
(0.9987 -0.0002087 0)
(0.588 -0.2863 7.365e-21)
(-0.04331 0.08655 -5.795e-21)
(-0.2821 0.0414 -1.434e-22)
(0.4059 0.04853 0)
(0.1728 -0.008113 5.773e-22)
(0.9954 -0.008872 1.281e-21)
(-0.1821 0.04847 0)
(0.8095 -0.1497 -1.085e-20)
(0.3281 -0.02571 0)
(-0.01748 -0.01289 -9.668e-22)
(0.3223 -0.04093 7.744e-22)
(0.6973 0.9706 -2.457e-21)
(1.248 0.1319 -1.127e-20)
(0.9833 -0.1692 -4.3e-22)
(0.7271 -0.2367 5.458e-23)
(0.06388 -0.005878 0)
(1 0.008279 0)
(0.7661 -0.008438 1.834e-20)
(0.6283 -0.2028 0)
(0.1983 0.06807 8.397e-22)
(-0.03072 -0.009751 2.6e-22)
(0.132 -0.02751 0)
(1.003 -0.0003551 0)
(1.06 -0.1039 2.895e-20)
(-0.113 0.03906 -1.556e-21)
(0.2443 -0.05573 -2.501e-21)
(-0.02739 0.0007377 2.29e-20)
(0.4928 0.1499 0)
(0.001981 -0.001858 -1.426e-21)
(0.05255 0.02116 -4.838e-21)
(-0.01656 -0.001522 5.253e-21)
(-0.235 0.0574 -4.396e-21)
(-0.0956 0.03341 3.974e-21)
(0.02912 -0.005067 5.084e-21)
(0.09947 -0.007233 1.867e-21)
(1.008 0.04158 -2.823e-21)
(0.9639 -0.1402 0)
(1.004 3.845e-05 0)
(0.9999 2.432e-05 0)
(-0.1322 0.02593 3.2e-21)
(1.049 0.03833 1.902e-21)
(-0.2348 0.03899 5.201e-21)
(-0.1621 -0.05315 -1.836e-20)
(0.2607 0.5822 0)
(1.075 -0.09825 -1.164e-20)
(1.042 -0.04005 -2.343e-20)
(1.255 0.5894 2.935e-21)
(0.9354 -0.2137 6.163e-22)
(1.011 -0.00775 3.377e-20)
(0.2505 -0.02779 2.57e-22)
(-0.1887 0.06593 -1.235e-21)
(1.041 -0.03813 3.271e-20)
(-0.1952 0.04613 -1.828e-20)
(-0.01438 0.005167 -2.196e-21)
(-0.06424 -0.01688 0)
(0.9789 -0.1955 0)
(0.0291 0.03884 -1.775e-20)
(0.01226 0.01362 0)
(-0.1591 0.05549 0)
(0.9938 -2.074e-05 2.939e-20)
(-0.1362 0.03968 3.057e-21)
(0.6965 -0.163 4.928e-22)
(1.004 -0.006981 0)
(-0.201 0.0507 8.521e-21)
(-0.1952 0.05439 0)
(-0.08837 0.03625 -2.1e-21)
(0.9986 -0.0001486 2.051e-21)
(0.8667 -0.006564 4.157e-21)
(0.4818 -0.05963 0)
(0.03955 -3.18e-05 3.602e-23)
(0.805 -0.2545 -4.898e-21)
(-0.01421 0.004748 0)
(-0.161 0.04419 2.823e-21)
(0.6783 -0.2808 0)
(0.9598 -0.2113 -1.052e-22)
(-0.02636 0.009075 0)
(-0.2011 0.0213 4.116e-21)
(0.9997 2.791e-05 -7.891e-23)
(0.2772 -0.1625 0)
(1.184 0.3757 -1.37e-20)
(1.004 3.649e-05 0)
(0.7125 -0.2539 1.615e-22)
(0.002005 -0.0008513 1.539e-22)
(0.5985 -0.05214 -5.913e-21)
(-0.1029 -0.002301 -1.737e-20)
(1.138 -0.05515 5.619e-21)
(1.019 -0.1531 3.237e-22)
(-0.01347 0.004468 5.758e-26)
(0.03264 -0.003505 -3.705e-22)
(0.6136 -0.06685 0)
(1.013 0.03369 -1.15e-20)
(0.9972 0.004248 6.424e-21)
(0.9905 -0.1869 0)
(0.6316 -0.2566 -1.679e-21)
(-0.1771 0.05982 -1.155e-20)
(-0.208 0.04883 0)
(0.3117 0.8057 -3.556e-21)
(0.3647 -0.1515 -2.169e-21)
(0.5124 0.003896 -1.877e-22)
(1.183 0.1257 -2.553e-20)
(0.3583 -0.1484 -2.127e-21)
(1.112 -0.02353 4.644e-20)
(-0.06275 0.004942 0)
(1.006 -0.000124 0)
(-0.1819 0.06618 3.311e-22)
(0.004258 -0.03195 -6.44e-23)
(-0.1322 0.03014 -7.989e-21)
(-0.208 0.05799 0)
(-0.1677 0.04697 0)
(0.9954 0.002818 -2.175e-20)
(0.9817 0.002649 1.534e-20)
(-0.103 0.03585 0)
(0.9181 -0.1721 1.004e-20)
(-0.1755 0.06051 0)
(0.677 -0.0861 0)
(-0.148 0.05299 -5.034e-21)
(-0.1726 0.05127 -1.511e-21)
(0.3557 0.02803 -1.097e-21)
(-0.08389 0.0156 -3.356e-21)
(-0.2225 0.0275 -1.641e-20)
(0.05982 -0.01081 -1.456e-21)
(-0.1269 0.03062 -2.833e-21)
(0.4309 -0.02997 1.673e-21)
(-0.1458 0.0428 1.046e-20)
(1.06 -0.1271 -3.649e-21)
(-0.164 0.05961 4.057e-21)
(0.4392 0.9951 -7.316e-22)
(-0.1734 0.06035 -2.196e-22)
(0.004821 -0.03311 3.056e-22)
(-0.001315 0.0003011 0)
(-0.1686 0.04744 0)
(1.005 -0.0009256 0)
(1.004 -0.002567 2.418e-20)
(-0.1613 0.0571 2.618e-21)
(-0.1898 0.06259 0)
(1.006 -0.1543 1.824e-21)
(1.003 2.193e-05 0)
(0.635 -0.2743 -4.98e-21)
(-0.1826 0.0479 2.516e-21)
(1.094 -0.07201 -1.561e-20)
(-0.1578 0.05444 0)
(0.339 0.01776 -1.318e-20)
(-0.1487 0.04567 -1.261e-20)
(1.119 0.626 -1.327e-20)
(0.9999 0.0007113 -4.86e-20)
(0.9846 -0.1577 0)
(1.11 -0.03824 -9.73e-21)
(0.2394 -0.09474 0)
(0.28 -0.02101 0)
(-0.1335 0.03655 3.898e-22)
(0.6973 -0.1741 1.649e-20)
(0.7889 -0.01199 3.389e-20)
(-0.2237 0.04079 0)
(0.6232 -0.05543 -8.657e-22)
(1.124 -0.08648 0)
(-0.1384 0.04012 0)
(0.6456 -0.2837 5.485e-21)
(0.8809 -0.1021 1.992e-21)
(-0.1923 0.06724 0)
(0.3493 -0.1512 -2.689e-21)
(1.006 -0.009973 -1.188e-21)
(-0.02893 0.009818 0)
(-0.01549 0.005054 0)
(-0.1182 0.05022 0)
(-0.2441 0.03753 8.701e-21)
(0.001907 0.06871 -2.418e-20)
(1.003 0.01578 5.758e-23)
(-0.03386 0.008838 5.776e-21)
(0.0654 -0.0148 0)
(1 -0.0001718 0)
(0.9991 -6.583e-05 -1.441e-20)
(-0.166 0.04007 -2.548e-25)
(-0.2031 0.04847 1.083e-20)
(0.0003653 -0.000217 -1.552e-22)
(-0.02074 -0.017 2.99e-22)
(0.9766 -0.1418 -3.046e-22)
(0.6713 -0.2482 0)
(-0.1209 0.03954 -1.184e-20)
(0.9927 -0.1544 0)
(1.034 -0.1264 0)
(0.9964 -0.00974 -1.087e-20)
(-0.1104 0.03621 -1.832e-20)
(-0.1239 -0.0305 0)
(-0.1449 0.04833 -1.085e-20)
(0.9691 -0.1914 0)
(-0.01665 0.004093 6.565e-22)
(-0.1866 0.06555 -6.113e-21)
(1.001 -0.0009528 -8.03e-22)
(0.06383 -0.01014 0)
(-0.1555 0.05015 -2.766e-21)
(0.9998 -0.0007394 -5.902e-20)
(-0.2831 0.04193 -4.946e-21)
(1 -0.0001812 -5.876e-21)
(0.9947 -0.001718 2.463e-20)
(1.051 -0.1407 9.667e-22)
(0.9749 -0.1338 0)
(-0.03118 0.004431 -3.181e-20)
(0.9993 -0.001594 5.714e-21)
(0.4194 -0.04948 -2.03e-22)
(1.004 0.004762 0)
(1.281 0.6109 0)
(0.985 -0.1215 -2.404e-21)
(0.2407 -0.03229 5.519e-21)
(1.065 -0.118 -2.792e-21)
(0.5543 -0.1093 1.306e-23)
(0.6034 -0.08648 0)
(-0.131 0.03875 2.508e-20)
(1.078 -0.1188 4.084e-21)
(1.002 -0.00288 5.832e-21)
(1.005 -0.005005 2.224e-21)
(-0.1249 0.02923 4.135e-21)
(0.8624 -0.1586 7.409e-23)
(-0.1715 0.0596 -9.303e-22)
(-0.1321 0.04226 0)
(0.1488 -0.009534 1.877e-25)
(-0.11 0.03579 -6.865e-21)
(-0.01819 0.005968 -1.926e-20)
(-0.2537 0.04024 8.668e-21)
(0.7074 -0.1988 0)
(-0.1171 0.002644 -3.648e-20)
(0.5376 -0.05801 -4.186e-22)
(0.2024 -0.02689 0)
(0.8512 0.4288 1.087e-21)
(0.07341 -0.005675 0)
(1.002 -0.007279 4.928e-21)
(-0.2451 0.04937 2.319e-20)
(-0.05776 0.002022 5.619e-22)
(0.3263 -0.05386 0)
(0.9973 5.366e-05 3.371e-21)
(0.3764 -0.241 6.565e-21)
(-0.1547 0.03904 0)
(0.9963 -0.09445 3.386e-22)
(0.8945 -0.2461 4.129e-22)
(-0.2039 0.03472 -4.436e-22)
(1.046 -0.1231 -3.121e-21)
(-0.1761 0.03922 0)
(-0.0852 0.02061 3.436e-21)
(1.001 -0.09529 1.009e-21)
(-0.1275 0.0406 -7.118e-23)
(0.5315 -0.1462 -2.145e-21)
(-0.01626 -0.01369 1.055e-21)
(1 -0.0004222 0)
(1.135 -0.07702 -3.735e-21)
(-0.2513 0.04666 0)
(0.9945 -0.008641 0)
(-0.2547 0.05436 0)
(-0.2014 0.0266 2.816e-21)
(0.9986 -9.122e-06 2.36e-21)
(0.9572 -0.1971 1.567e-21)
(-0.06292 0.01284 0)
(1.013 -0.02187 0)
(0.8708 0.4299 -5.815e-21)
(0.08897 0.005964 0)
(0.02155 -0.01275 0)
(1.005 -0.1325 -1.766e-21)
(1.004 2.799e-05 -1.509e-22)
(-0.241 0.05793 -2.412e-22)
(-0.1909 0.05432 -5.506e-22)
(1.011 -0.003006 2.887e-20)
(0.9284 0.3859 -4.434e-22)
(1.061 0.08414 9.287e-21)
(-0.1811 0.04747 3.756e-21)
(-0.2161 0.05691 -9.806e-21)
(1.008 -0.1707 -3.879e-22)
(1.043 -0.03481 0)
(-0.02795 0.005987 -5.044e-22)
(-0.004675 0.001616 5.632e-22)
(0.5913 -0.1255 -9.087e-23)
(0.7333 -0.1169 -7.339e-22)
(-0.1464 0.04519 -1.865e-21)
(0.09896 -0.007898 0)
(0.9931 1.468e-05 -3.334e-21)
(0.8203 -0.08785 2.346e-21)
(1.005 0.006167 3.576e-22)
(-0.1752 0.05129 0)
(0.5733 -0.2527 -5.269e-21)
(-0.2649 0.0481 0)
(0.8944 -0.2455 3.705e-21)
(-0.001099 -0.01202 -5.572e-22)
(-0.1061 0.01605 0)
(0.9993 0.002917 -1.168e-20)
(-0.004647 0.001715 0)
(-0.08945 0.02872 0)
(-0.1308 0.03843 7.091e-21)
(1.079 -0.09138 3.524e-21)
(0.571 0.2149 0)
(-0.1066 0.02564 -2.736e-21)
(0.08304 -0.03766 8.01e-21)
(0.2553 -0.01862 0)
(1.023 -0.142 0)
(0.8795 0.02411 -8.481e-20)
(0.0155 -0.0008002 5.431e-22)
(-0.1901 0.06351 1.274e-21)
(0.639 -0.0446 0)
(0.4508 -0.09556 -5.289e-22)
(0.8264 -0.1264 0)
(0.4409 -0.2525 -1.074e-20)
(-0.001191 -0.0128 2.549e-21)
(-0.06379 0.02222 2.974e-22)
(0.9847 -0.167 -1.347e-22)
(-0.1731 0.0569 0)
(0.3779 0.05351 0)
(0.5169 -0.06292 1.733e-21)
(0.5799 -0.05967 -1.462e-21)
(0.5117 -0.05066 0)
(-0.01402 0.005031 0)
(1.061 -0.06141 6.213e-21)