/*--------------------------------*- C++ -*----------------------------------*\
| =========                 |                                                 |
| \\      /  F ield         | OpenFOAM: The Open Source CFD Toolbox           |
|  \\    /   O peration     | Version:  v2012                                 |
|   \\  /    A nd           | Website:  www.openfoam.com                      |
|    \\/     M anipulation  |                                                 |
\*---------------------------------------------------------------------------*/
FoamFile
{
    version     2.0;
    format      ascii;
    class       volScalarField;
    location    "5";
    object      epsilon;
}
// * * * * * * * * * * * * * * * * * * * * * * * * * * * * * * * * * * * * * //

dimensions      [0 2 -3 0 0 0 0];


internalField   nonuniform List<scalar> 
100503
(
100
49.43
1430
1181
55.81
129.9
580.9
359.4
840.6
104.3
111.1
974.9
378.1
333.9
386
214.3
217.6
119.8
294.3
369.3
79.42
71.96
119.7
94.74
563.5
58.65
63.97
2.465
1.485
41.33
75.69
5.365
5.188
4.752
0.6722
0.7019
4.662
0.1824
0.001048
1.41
2.813
0.01829
41.62
0.7439
3.175
0.1716
0.09377
3.209
1.538
2.491
5.072
2.556
0.3578
3.173
0.7283
7.138
1.047
0.1642
1.822
3.893
0.01658
1.083
2.181
5.104
66.21
0.7382
0.01308
0.2803
310.4
3.628
0.7446
0.5586
0.3768
2.387
0.4709
3.001
0.525
0.007582
0.007588
4.913
5.637
1.077
0.4473
0.01783
0.2973
0.001035
0.2164
0.9842
5.353
22.97
0.6948
0.204
0.4101
0.01875
0.01792
4.348
0.4582
1.03
0.008427
0.008426
0.2656
42.91
1.253
3.716
0.351
0.01807
0.6775
18.4
0.2104
2.712
5.275
0.6657
4.068
0.925
0.2415
2.011
0.1666
0.9955
2.897
0.05952
0.1876
0.5556
2.218
3.965
4.256
5.451
0.4667
0.3289
2.353
6.41
1.528
0.6439
0.01174
0.03343
1.551
0.8039
3.244
0.7656
0.4888
0.6005
0.01891
0.4417
1.701
0.3414
0.5985
4.169
0.1027
1.4
3.543
0.01784
10.59
1.257
0.01419
0.001351
2.012
152.3
0.04434
0.2887
0.08573
7.393
4.53
8.555
8.246
0.5602
0.007921
0.3345
3.188
0.01409
0.01997
0.1802
0.7253
1.012
0.7163
5.564
0.02096
32.98
1.498
0.002831
0.3476
0.01993
1.26
0.4137
0.7178
1.394
0.3467
1.395
0.01261
3.105
2.87
17.94
0.2506
1.378
0.2526
0.01813
0.9214
0.437
0.03282
21.13
0.0657
7.242
3.948
5.086
4.943
0.6811
2.469
0.5919
1.339
3.46
1.478
1.968
0.7691
3.954
54.73
0.1641
0.4084
0.5091
0.9536
0.01812
2.069
3.943
0.5765
0.5366
0.001339
1.304
9.877
63.32
14.62
17.76
0.8647
0.1133
1.261
2.708
21.32
0.1959
0.4635
1.216
1.01
0.01627
28.94
0.9354
12.22
0.6879
3.312
0.1974
0.04068
0.003407
0.3513
0.01585
26.06
5.647
0.0185
23.62
0.02471
0.257
0.01782
0.2403
1.147
10.79
0.2365
0.64
12.6
8.068
0.0013
1.065
1.354
1.276
3.208
0.1165
0.007742
0.17
5.473
0.2361
1.964
0.8073
3.411
14.71
1.063
0.02473
2.05
10.21
3.629
1.941
0.007678
0.5332
1.529
0.01858
3.542
0.007747
0.009448
3.344
0.261
0.07216
0.01954
1.014
5.644
9.555
0.1318
0.003339
3.22
0.3704
1.942
1.044
0.04314
0.2705
0.9584
1.129
3.089
2.2
0.12
0.01861
1.274
2.201
57.46
8.594
0.07021
1.289
0.5546
0.04262
0.003285
0.2071
0.01932
0.8388
3.391
0.421
1.675
0.01852
0.4746
2.979
0.2832
9.156
0.2016
3.461
0.9655
0.001991
5.798
0.1476
0.08181
0.01764
0.09779
0.4114
0.0008749
0.007645
4.786
0.5688
1.406
0.01992
0.1812
0.6099
61.16
3.039
1.606
0.5828
0.9242
3.716
2.082
0.002357
0.001057
0.01862
2.615
1.629
0.03762
3.226
0.2765
4.64
0.4802
0.05947
4.886
4.304
0.05692
0.04938
0.8567
0.6718
1.3
0.01699
1.039
36.24
0.8922
0.02076
0.3182
1.331
0.03467
0.2935
0.03937
0.3437
20.27
0.02665
1.433
0.3732
1.364
3.402
0.02516
0.3734
3.769
2.499
1.001
0.7626
1.092
0.0494
38.8
0.09556
0.7479
30.61
0.8157
0.355
1.234
4.205
0.02221
0.3329
1.842
0.05928
9.854
25.19
0.1593
0.4269
5.672
0.00762
15.9
4.209
0.0009432
0.2978
0.2421
5.619
0.1715
0.6361
6.703
0.1037
0.1204
0.04529
2.689
1.99
16.63
1.276
2.86
0.01768
6.449
0.2738
0.5483
0.2894
0.07398
111.6
0.1688
0.3898
0.3746
27.75
0.5518
253.5
0.9405
2.681
0.009489
1.035
8.06
122.1
0.1151
0.08188
21.3
1.444
0.007429
0.8907
0.6209
2.261
2.773
0.05233
43.99
5.679
0.005238
6.366
1.796
0.2874
0.8415
0.3501
0.3059
1.039
0.2161
0.1936
0.002274
5.825
0.3174
0.6436
1.001
1.22
0.1458
0.6186
0.8511
0.2777
0.003947
0.4785
0.03335
0.03764
0.0186
1.4
2.024
0.4135
0.02119
0.04273
0.5519
0.6927
0.1581
3.029
0.1158
0.01847
0.2484
0.02021
0.4048
4.75
0.1849
0.106
0.1586
1.912
0.0446
0.2553
0.000858
0.9957
13.06
4.095
0.001345
0.01785
1.288
0.7895
1.744
0.2048
0.2393
0.9047
0.3462
0.6399
0.03955
0.2692
0.6109
0.02356
0.1314
0.4049
4.128
1.698
0.3579
0.004273
0.05628
0.4743
0.9819
0.04759
1.801
0.1989
12.01
1.432
0.16
0.551
0.3964
0.5292
0.002232
1.243
3.316
5.454
6.672
32
0.01298
1.361
0.8201
0.8269
0.424
0.8333
3.067
0.2349
0.3681
2.614
0.7593
0.454
0.2373
1.032
3.088
2.825
0.01874
0.003858
0.01992
0.5427
3.008
0.01507
7.282
0.2078
0.0187
1.462
0.3711
0.01265
0.6874
0.002278
0.05814
0.8056
0.02137
0.534
1.365
0.0953
0.02174
1.653
0.373
1.032
0.3703
10
11.5
1.239
0.7977
0.4684
0.01578
0.7702
0.01031
1.103
1.658
0.3339
0.9591
1.437
2.507
0.01402
0.02707
2.475
0.5427
0.004128
5.532
0.06939
0.6534
0.04214
2.336
1.88
4.413
0.04191
2.276
10.61
0.3767
0.2696
0.001007
0.5591
0.4226
0.1612
0.3412
0.8378
18.58
0.0125
0.253
0.4423
0.6496
0.01582
11.53
0.03313
1.128
0.2345
0.01487
0.4801
0.8376
0.9742
6.661
2.562
0.5074
1.454
0.05861
1.017
1.382
0.5852
0.01833
0.1666
0.5313
0.009928
0.5499
0.01521
0.1079
0.4092
0.01502
0.004855
0.4763
1.281
0.01495
0.07482
0.8542
0.06885
0.1196
4.541
15.01
2.495
0.01544
1.068
0.002172
1.576
14.04
0.1195
9.303
0.03858
0.01494
0.3461
0.5938
2.141
0.9078
0.605
2.939
0.9594
0.7751
0.4097
0.05135
0.9554
1.437
5.772
1.148
1.553
5.639
0.03152
0.01658
1.317
1.258
12.07
0.02401
1.451
1.06
12.83
23.68
0.01726
16.67
0.4249
0.5072
0.2196
1.164
0.002409
2.045
0.5896
10.77
0.1133
1.404
0.01384
7.168
0.9731
0.1039
0.003783
0.02314
3.998
0.6461
1.77
0.1736
0.8982
3.308
1.277
2.191
2.411
0.01354
0.009264
0.01309
192.2
0.002715
0.7135
0.2209
0.4912
2.551
1.136
5.089
5.244
0.7368
20.16
8.89
0.0112
1.369
1.898
0.004313
4.156
0.2207
3.927
0.4764
0.01555
2.241
0.5437
0.9629
1.215
3.022
17.37
7.989
0.1931
1.213
0.4039
3.637
1.569
0.6103
0.1988
1.418
0.2013
1.029
0.002101
0.02012
0.01028
1.287
8.705
0.1483
0.3948
0.2698
0.6159
0.7543
1.578
3.681
0.4577
0.01485
0.1848
4.999
3.654
0.06033
0.3499
2.446
0.02094
1.707
5.416
7.711
0.02102
25.62
36.48
0.7833
0.39
49.73
2.47
1.184
0.01212
1.256
0.4505
0.01771
19.76
0.0221
0.1594
0.8236
0.199
0.3378
0.2996
0.0836
0.0007115
0.3697
1.926
0.03659
1.502
0.3369
0.01273
2.462
1.654
99.88
0.03445
0.1604
132.5
0.03429
6.847
0.6228
0.2449
0.1092
3.113
0.9527
0.4659
4.379
10.89
0.7951
14.65
61.41
0.5704
8.141
0.02958
0.112
1.354
1.287
0.03057
0.6878
0.01341
7.085
3.775
0.4063
1.076
0.001229
0.3558
1.946
1.011
11.13
0.1269
11.07
3.402
0.3708
0.02136
0.6672
2.93
0.001324
0.001336
0.5614
0.8132
0.6134
0.789
0.4367
0.4964
0.001541
0.02004
2.373
1.394
9.083
0.06924
0.2531
0.01437
0.002331
0.01822
1.175
0.607
0.5152
3.189
0.3142
3.029
0.02657
4.046
0.5295
0.1158
8.498
0.01593
2.266
0.02416
13.33
0.000653
0.03611
9.451
4.268
34.36
1.115
2.266
2.175
0.6901
0.16
0.7233
0.07256
0.03648
2.301
1.935
0.7323
4.537
0.502
5.508
35.3
0.0009236
0.1308
2.95
0.1745
2.306
16.51
0.8033
1.267
2.218
0.006894
9.222
0.2033
0.408
0.04319
0.3595
0.3798
2.156
1.299
0.7468
0.2155
6.552
1.054
10.29
0.7053
0.1466
5.137
0.01751
0.0168
0.01111
0.2356
0.5908
0.1932
0.6324
0.1498
1.032
0.2725
0.9181
0.4893
0.1085
1.028
0.8231
0.2842
3.652
15.57
0.02436
0.336
0.01807
0.4592
1.485
0.6646
0.4901
0.8377
0.4539
0.1784
0.2466
0.1153
7.16
0.02775
0.9109
1.061
2.742
1.426
6.699
0.2174
1.214
0.1133
0.04463
20.32
0.336
0.02544
0.2846
1.162
0.2466
0.0006801
0.0006756
0.06212
2.138
0.7727
0.6243
7.821
0.4576
0.3518
0.1926
0.1619
4.236
0.8527
4.537
2.19
0.01718
3.776
0.496
22.09
0.01522
0.2908
1.235
2.58
3.191
0.04119
0.01916
1.945
0.0695
1.339
2.515
0.6438
0.2322
0.3497
2.704
0.04775
1.441
1.615
0.002135
0.01947
2.098
0.09747
0.4265
0.6279
0.6861
38.44
1.13
0.2854
0.07243
0.6753
2.121
0.7877
1.931
2.994
0.6391
0.282
0.2579
0.1107
0.00418
0.007806
1.849
10.56
24.35
0.07508
0.2282
0.03904
1.455
0.07623
0.5836
1.331
1.897
0.02079
0.08324
0.1226
0.07364
1.334
0.157
2.629
1.188
0.09316
0.4195
0.5332
0.3304
27.8
0.02021
0.9594
0.5059
27.68
2.051
0.0908
0.7131
0.2827
0.6425
0.309
0.4427
0.09997
0.1688
3.853
1.478
0.1454
0.2534
0.4352
0.6613
0.5775
0.3797
0.09335
1.882
0.2135
0.31
22.07
0.4969
38.75
0.1547
0.001061
17.29
0.02045
0.02083
20.07
0.7282
28
0.04244
1.901
0.3654
0.006172
0.2882
0.4884
0.01678
0.03567
16.8
3.365
7.147
0.6425
3.449
0.000874
23.32
0.2224
0.2392
0.2256
0.5785
0.04412
0.4471
0.05763
10.76
0.0747
3.048
10.89
1.217
0.01569
0.02436
4.031
0.3679
7.088
3.772
0.04156
3.613
0.005189
0.9222
0.0211
0.3484
2.932
20.23
0.01174
0.7351
26.66
0.1172
0.8435
0.002022
0.04221
0.001228
0.6604
0.2594
1.325
1.224
0.05497
8.619
0.04559
3.844
0.3946
0.8877
0.1416
1.465
0.02398
0.02012
2.444
0.8901
0.5272
9.012
0.0605
10.26
1.159
1.565
0.4178
0.005036
3.507
0.1179
0.01561
0.6608
0.08287
0.001985
17.6
0.7673
0.05345
0.1641
0.2826
0.6034
0.5324
5.231
0.01316
8.132
5.01
0.2392
0.3056
0.2874
2.909
1.161
5.423
0.1271
0.4497
0.2386
0.3823
1.066
0.01166
2.525
0.5371
1.275
0.5528
0.1428
0.09785
2.053
0.1952
0.3766
10.31
0.821
0.03627
0.1037
0.2554
0.6096
0.02386
36.11
0.5016
0.1086
10.12
0.9251
0.6634
0.3224
0.08072
3.836
38.76
0.02762
6.72
2.623
3.796
0.02587
0.8053
0.5216
0.01457
1.36
0.01795
5.001
0.9703
1.788
0.001507
4.106
3.959
0.03399
0.00351
0.001369
0.01615
0.6755
8.506
25.12
12.82
0.5138
6.198
0.176
1.087
1.887
3.313
0.4239
9.303
0.4391
0.3834
0.9901
1.608
0.008998
0.1746
1.437
0.6036
0.674
5.357
1.115
0.264
0.01431
0.0515
2.067
6.525
0.615
4.022
0.3995
1.813
0.2378
0.008498
16.11
0.5868
1.515
0.002354
9.947
5.11
0.04263
8.819
14.18
1.092
5.217
2.266
0.01844
2.265
0.6257
2.332
2.29
0.3972
4.536
2.011
0.002028
0.5508
5.739
0.0006648
0.6874
0.4235
0.01377
1.353
0.002904
0.2465
2.067
0.1273
1.328
0.03456
0.0009015
0.01269
56.64
0.314
0.9767
0.2702
2.229
21.58
1.161
11.56
0.2426
0.7952
0.5744
1.006
0.03376
0.3642
1.73
0.2711
63.15
0.003823
0.08115
3.087
2.359
1.065
3.735
0.1534
0.009518
0.8928
0.001933
18.6
8.767
0.02236
1.349
2.018
0.291
0.2986
2.329
0.5975
4.581
1.327
0.522
3.646
1.512
9.633
20.15
0.2982
1.099
0.2291
2.769
1.126
0.3581
2.739
1.866
0.0102
2.712
0.4289
0.8132
0.1219
0.3217
1.102
68.01
0.04481
0.1857
0.8757
9.86
0.001382
1.883
1.531
10.89
0.983
2.574
1.921
0.6933
1.438
1.048
2.679
6.725
1.218
32.91
2.008
0.7483
35.71
3.101
8.997
0.02226
6.594
0.7645
3.053
0.5539
0.01078
0.749
1.902
0.8675
0.3647
0.7291
0.5797
2.722
2.871
0.3808
9.967
2.664
0.01712
0.3129
1.311
2.127
0.1083
0.006024
0.008335
0.1983
6.912
0.005491
2.222
1.611
0.7518
0.8339
1.359
9.09
3.278
0.8602
0.9542
11.36
0.39
1.849
1.373
0.0175
0.02791
1.187
0.06419
2.182
1.021
2.089
12.74
2.577
0.000864
1.685
0.05083
26.61
0.5428
2.83
0.01614
1.049
0.1263
1.635
0.6857
0.1078
0.6359
0.4644
2.317
9.475
0.02785
0.01794
0.8193
3.06
3.182
0.05729
0.669
0.4063
0.01369
0.814
0.5653
0.001044
0.9719
3.892
0.7166
2.091
0.006601
0.5161
0.02602
0.3966
0.1105
0.2915
1.577
3.565
0.01746
2.555
4.098
4.095
0.9876
3.059
0.5591
18.15
30.97
1.515
0.005726
1.904
0.2846
1.594
8.552
0.01595
0.05726
2.154
30.15
0.007884
0.2058
1.215
0.1533
0.2402
2.738
0.6318
1.117
0.6101
2.151
18.84
0.3911
2.361
0.2685
0.3973
34.5
0.01779
0.1159
0.5734
1.178
1.188
0.02502
0.002179
0.1936
0.02108
0.9454
0.001234
0.6339
0.1461
1.108
3.659
0.02487
0.004052
0.249
4.831
8.637
6.491
0.6065
0.377
0.2059
0.1609
0.2117
1.589
3.78
0.2543
17.85
0.3786
1.231
6.412
3.235
0.4137
2.022
0.2163
0.3665
0.181
40.86
1.722
0.7992
0.3261
32.92
0.64
2.091
1.619
0.6515
3.376
0.1901
0.6924
0.4301
0.3818
0.4101
0.5494
1.343
22.13
1.254
12.5
0.01578
0.01774
1.773
8.789
3.44
0.01231
2.836
0.1556
0.03851
0.5084
1.092
4.071
1.052
0.4576
2.139
1.935
0.06638
0.0518
4.637
0.3471
0.6107
0.04012
6.26
0.6362
2.116
0.01416
0.01273
0.04822
1.415
1.252
0.09945
1.558
1.403
0.00183
0.8475
0.02684
0.03151
0.06
0.01997
0.01793
0.5384
0.6076
0.5271
0.1459
0.5152
0.3896
0.3786
1.489
79.46
0.6006
2.534
0.9694
6.062
0.1742
0.7563
0.04229
0.1183
5.489
4.386
0.2107
3.892
3.182
0.01194
0.5101
13.97
0.5807
15.02
0.03285
0.4722
0.2224
0.2978
23.35
1.209
6.306
0.0423
0.02426
0.3543
3.016
0.8446
0.3869
1.535
0.03358
0.05863
2.215
1.842
3.926
3.609
0.6424
0.311
0.01657
23.88
0.4856
17.68
0.01724
0.1638
0.07253
0.02008
0.02723
1.009
0.02601
1.695
0.4962
13.27
2.258
0.645
4.782
1.259
0.6909
9.387
0.1363
0.216
0.5931
4.099
0.4203
17.05
9.286
0.1553
0.021
0.2864
4.814
0.3564
0.4378
1.561
0.6131
2.038
0.8824
4.772
0.04016
1.688
5.813
1.206
0.8756
3.344
0.1969
0.1393
3.134
1.162
17.68
0.7743
0.346
2.799
0.6074
3.981
0.9952
0.006916
4.631
2.164
15.68
13.12
0.9724
8.485
1.656
0.08552
9.365
0.7821
0.0008615
0.5844
0.1114
0.03262
3.66
0.01245
0.2511
0.02546
1.387
3.295
18.61
0.2033
0.01485
1.501
3.956
6.383
6.697
0.4889
1.997
0.02748
0.4485
0.001329
0.4002
0.3011
2.621
0.286
0.001525
1.03
1.104
0.316
1.338
0.9552
0.3545
18.34
0.7385
0.2332
1.834
1.39
0.9719
3.278
0.5493
0.06192
0.0008912
40.95
3.258
0.01772
0.43
2.486
2.589
0.2498
0.1865
4.711
0.04207
2.452
0.3182
19.48
1.656
0.0008235
0.354
0.2991
2.141
0.046
7.178
0.06949
0.4724
0.6217
0.0783
1.62
6.744
0.4584
6.847
0.04308
1.347
1.436
12.33
0.4923
0.0006305
1.598
0.0009759
0.002929
11.66
0.01731
12.56
5.824
0.1649
2.007
0.01984
0.02392
6.992
2.826
5.315
7.228
5.955
0.01799
21.59
0.0332
0.3235
0.2754
28.01
0.03601
0.1894
0.5783
0.07704
0.01817
0.1672
0.06869
0.01132
1.097
0.05094
0.08645
0.2004
0.5012
0.5288
0.7231
4.691
1.616
9.007
0.002169
1.404
0.7696
0.04715
19.59
0.1432
4.636
3.808
1.298
0.001329
0.001294
0.01813
7.465
0.6955
0.03236
0.2554
0.9198
0.7534
2.772
0.6617
0.3605
0.0009701
1.44
1.444
11.61
0.6919
0.01899
3.261
0.1265
0.5965
0.09005
0.9966
2.068
0.2421
0.2389
3.047
1.711
0.4873
5.761
0.003628
0.1646
0.2163
3.733
4.292
0.03662
16.64
7.216
0.01073
6.707
0.1368
2.902
0.2036
0.1148
1.765
1.089
1.858
0.003946
0.5963
0.4576
0.08261
0.1367
120
0.194
1.998
0.3753
0.833
8.669
0.01313
2.124
2.006
6.824
0.01468
0.05406
0.6268
0.7641
3.107
0.06262
4.564
0.511
0.2393
0.9207
0.4262
0.002545
25.18
0.1794
0.9869
0.1372
2.851
0.282
2.526
0.01809
0.0309
28.82
25.76
0.3868
1.574
2.166
12.13
0.6082
8.132
0.01933
0.4781
0.0007973
0.03102
2.67
0.1679
0.194
0.8757
0.0008067
1.08
18.39
1.072
1.367
0.001729
0.4684
0.1971
4.525
0.4562
2.693
0.5661
9.321
3.338
9.372
0.6729
2.922
0.7652
0.5148
1.176
3.523
0.0006537
29.14
0.6604
2.917
1.065
0.3155
0.2773
0.08206
0.5008
0.01596
0.001431
0.3611
0.07867
0.001425
0.02995
0.9958
18
0.0008459
0.01503
0.1687
0.02043
0.9569
0.8528
12.45
16.46
22.03
1.317
0.3796
0.7097
0.1507
1.89
0.03649
29.49
0.04377
2.569
0.708
2.069
0.03058
0.7759
0.6994
1.655
0.1675
2.785
1.973
2.01
2.142
0.01641
5.077
0.02017
1.263
0.662
0.1576
0.2109
0.8975
0.0951
0.1362
0.294
1.819
0.161
2.337
3.434
5.39
0.01009
0.05349
34.31
0.0007945
0.05272
0.2355
0.8468
0.2317
7.055
16.09
0.03271
0.02981
0.8714
1.861
8.653
0.02343
1.295
0.002222
0.1496
15.02
1.684
0.03618
0.2971
2.082
0.02326
24.36
8.592
0.01864
0.4053
1.72
1.06
0.7205
27.66
2.418
9.558
3.283
0.03224
0.1719
0.988
0.1813
0.6026
0.3054
22.71
0.4065
2.769
0.0186
0.3884
0.2134
0.1756
0.7375
1.028
2.743
0.004735
1.728
0.002066
0.01703
0.02698
2.898
22.37
20.83
0.7013
0.05551
2.643
0.5153
0.3066
3.782
0.9675
25.32
0.006843
0.2879
1.09
0.6964
0.4407
0.1682
0.03995
3.257
4.36
2.913
22.91
88.59
0.616
0.2044
0.7892
0.08609
0.5915
0.01528
1.609
0.3705
1.2
9.079
3.769
18.48
6.902
2.111
2.805
16.2
1.888
1.601
0.7129
0.7432
0.1914
5.066
0.6634
0.003598
0.9744
0.05789
1.645
0.159
0.1475
4.619
1.618
0.8092
2.203
1.876
1.755
0.01778
0.2701
0.01663
48.21
0.3442
2.249
1.544
1.698
1.112
29.41
0.9232
0.3272
0.001741
10.7
0.3306
0.8625
0.2834
0.3569
0.5074
1.463
3.469
0.4281
0.9866
0.015
0.02438
0.01968
1.767
0.01141
0.02536
1.342
1.96
0.1059
3.628
47.19
1.1
0.05795
0.7639
0.2882
2.75
0.1687
3.018
1.154
0.03626
2.152
0.2642
0.04217
6.617
0.001315
0.02704
2.814
7.91
1.472
2.551
0.005716
1.122
0.5847
0.8489
0.1733
2.433
2.073
0.2072
0.1821
0.001451
0.05195
1.442
1.86
0.001358
0.0076
0.007653
0.101
0.3405
2.597
2.285
1.267
0.1758
2.88
1.474
0.007005
0.6163
24.45
0.2004
0.0159
2.306
11.43
1.835
0.001913
0.1749
8.765
0.9079
0.5814
0.8848
0.6378
0.4379
0.5426
1.49
0.01146
0.5753
0.01885
0.8802
1.607
0.5003
0.7244
99.98
20.84
0.008158
0.03401
1.362
3.74
0.006877
1.496
0.03125
0.001871
0.02479
11.89
0.3183
0.05062
0.2029
0.04366
18.68
0.1631
0.3123
0.04737
0.1823
1.2
0.001386
12.79
1.07
0.1612
1.393
1.787
11.61
0.4945
10.61
0.4584
0.8946
1.72
17.56
2.968
1.063
10.4
0.161
0.01642
0.0009718
34.4
0.008409
0.1169
2.691
25.99
1.257
0.2787
0.3427
0.2289
0.01677
3.851
1.175
1.416
0.8292
0.1963
0.3468
1.25
0.7912
4.289
1.167
0.3671
31.77
1.526
0.1825
20.93
1.662
0.8946
3.659
9.862
0.3458
1.724
0.002486
2.702
0.0227
0.001248
0.8743
0.2543
19.44
0.1596
14.32
1.361
0.1771
0.4465
0.3089
3.126
0.7544
4.18
0.5379
0.1053
0.3902
0.01714
0.2439
0.0615
3.831
0.3974
37.33
1.522
2.113
0.05084
0.03394
2.51
9.366
3.478
1.74
0.3607
0.001648
0.8141
3.846
0.1568
1.648
0.8745
0.9114
8.327
2.351
0.8585
0.01295
2.034
7.695
0.2419
1.866
1.841
0.144
0.4361
0.1925
24.45
0.4482
0.005105
0.06681
0.02461
15.13
1.891
0.3939
2.842
0.3052
1.104
0.02116
0.08471
0.02101
2.236
0.003941
0.1419
28.85
4.69
0.6271
0.04749
0.08684
6.604
0.5665
0.001706
2.57
0.959
3.25
0.7263
4.862
2.075
1.065
6.902
1.212
0.003583
0.1127
0.4318
3.222
0.01098
2.855
0.9361
6.888
1.179
0.767
0.04572
0.1893
0.4783
3.011
2.131
0.2699
2.058
0.4402
2.946
0.007138
0.9174
2.64
0.08616
0.002964
0.8943
0.02301
0.02401
1.42
1.771
1.211
2.601
2.241
11.6
0.8316
0.03007
0.3027
0.06134
0.6595
1.496
22.33
0.4315
0.0151
0.7161
8.329
1.157
1.756
13.08
0.7919
4.025
0.01007
11.9
0.002042
0.009682
0.08961
0.2223
2.084
1.735
360.6
3.754
7.958
0.4676
30.77
1.348
0.1514
5.24
2.295
1.425
0.1653
0.00181
0.03507
0.001272
13.16
0.01955
2.433
19.08
1.412
2.868
13.8
0.667
2.72
3.163
3.045
0.06142
3.441
0.1847
0.04288
0.04056
0.1153
24.7
0.6881
1.535
0.5788
0.6494
0.5275
1.469
0.97
6.532
0.02638
1.506
0.001345
0.0009418
0.2443
0.3674
0.2207
0.01422
0.5701
1.389
0.5273
0.3807
0.03135
0.01622
0.4847
2.121
3.253
0.07025
2.077
5.307
80.18
1.862
0.0009016
2.926
0.5889
1.484
0.02156
1.781
1.037
8.409
0.8151
2.278
0.2317
0.02799
0.9571
0.9565
0.3323
61.72
0.006598
0.7533
0.06344
0.01959
1.242
2
1.302
1.986
0.2353
4.581
0.1865
0.9363
96.04
0.3181
1.279
0.8261
0.04938
0.02564
0.9682
0.9412
6.102
2.035
1.328
0.2615
247.7
0.1692
0.08532
3.219
0.2707
0.4125
11.6
0.575
0.3823
0.1874
0.3665
3.53
0.1546
1.775
11.65
0.4601
16.78
0.05825
0.01614
0.4972
0.1365
0.8124
1.336
0.02486
0.1278
0.5496
20.33
1.908
0.001622
0.0257
0.009036
3.311
0.2485
0.04802
0.009888
4.02
0.8768
3.01
2.555
0.6958
1.548
2.118
1.668
2.012
18.72
2.986
0.3121
0.1144
0.5165
0.0322
1.7
10.16
0.2688
40.51
10.06
1.357
0.814
1.299
0.4239
0.6089
0.8016
0.02191
0.0505
1.017
1.576
3.82
11.78
2.918
0.7117
0.006213
3.306
5.534
0.002193
1.174
1.426
0.8218
0.0188
0.05551
1.858
5.611
0.2642
0.01731
0.16
0.1075
0.1028
20.18
1.515
0.2758
0.359
0.3791
14.5
0.9388
137.1
8.619
0.4402
0.03291
0.5535
0.02153
1.499
0.002261
1.073
17.18
0.1016
0.02217
1.082
15.32
3.928
0.1583
8.82
0.08303
1.159
5.039
0.3767
0.02059
2.63
1.362
0.4002
6.903
7.541
26.55
0.02314
0.2651
30.77
0.8992
0.0402
0.2214
0.008477
17.17
0.3391
3.569
0.6237
0.1959
0.2747
0.02806
11.99
0.8652
1.746
0.02374
0.07585
5.972
3.292
0.9024
15.76
1.262
0.228
10.46
0.1552
30.64
0.2677
39.67
4.948
0.02734
1.229
0.1427
0.005275
1.084
0.3397
0.3312
0.2634
9.596
1.495
0.3318
12.1
0.2185
1.299
9.597
0.2551
0.3464
1.378
10.35
0.2784
0.8721
0.04594
3.688
0.01528
7.202
1.323
0.0361
6.748
0.4805
0.9684
52.24
0.5811
0.135
0.9987
1.38
0.005406
0.6711
1.235
1.831
2.021
0.4021
0.7737
0.4595
0.5916
0.4805
0.01778
3.379
1.314
1.659
1.884
5.922
0.1891
14.25
1.023
1.511
53.35
2.394
1.859
0.4974
1.903
1.76
0.3721
2.546
0.003191
1.139
1.483
0.451
0.1111
1.651
8.222
1.343
3.01
23.87
1.373
1.14
0.5758
0.4147
13.56
0.1098
0.6219
4.021
0.01999
14.81
0.01789
5.216
3.981
18
0.667
5.382
1.021
2.099
5.269
0.5286
0.6168
3.572
18.34
0.1849
26.05
4.519
4.247
0.3214
1.391
2.347
0.3406
1.711
55.63
16.17
0.04253
1.255
0.07168
3.963
0.5171
0.01765
2.861
1.26
0.02526
0.09211
0.01728
0.3068
0.02773
0.3844
1.211
2.11
0.8142
10.54
0.01646
0.2043
0.8524
2.475
0.6205
2.557
1.971
0.4273
1.864
0.01751
0.02893
0.2632
1.259
0.00119
1.229
2.637
0.1961
0.1904
3.347
1.707
2.535
3.599
0.1427
0.0006574
3.053
0.5454
0.3482
1.294
0.01617
0.03593
0.001637
1.098
4.58
0.4494
1.262
0.7246
1.843
1.654
0.03088
0.5512
0.3963
3.613
4.682
0.4604
2.322
6.975
0.2126
0.06003
0.09146
0.778
0.312
1.854
5.121
0.2048
37.45
13.83
0.02751
5.896
0.7645
1.098
0.06908
0.04707
0.1122
0.2189
2.259
3.949
0.7901
0.2615
0.5776
1.78
0.02857
3.559
1.441
1.642
0.01661
0.3436
0.1306
1.651
3.913
1.274
1.136
1.373
3.227
0.2233
0.7375
4.102
0.2343
0.03173
1.251
0.2878
1.017
0.001623
12.98
0.0005852
1.817
7.162
0.1316
0.2703
184.1
4.638
0.01759
0.1077
6.254
0.03314
0.02064
0.03353
4.447
2.046
19.03
0.9453
0.02616
0.04544
0.3761
1.558
1.463
1.114
2.199
1.176
4.2
7.965
5.008
0.06301
2.338
0.557
0.04952
0.9382
0.7414
3.885
0.3289
1.834
0.05987
2.427
2.125
0.03476
0.888
1.423
2.347
0.01309
2.485
23.46
0.09283
7.386
9.109
11.7
1.221
0.9522
1.543
13.09
0.03765
0.028
0.01801
0.2914
3.399
1.016
40.9
0.02521
0.4503
1.623
0.001222
0.04333
0.622
0.9933
0.08345
0.05622
12.51
0.3045
0.4178
0.07887
0.9397
2.872
8.775
0.8574
1.233
0.1433
0.1049
4.352
0.4004
0.005951
1.54
0.7066
0.04022
0.2058
0.2368
1.869
1.567
12.43
5.814
0.1449
0.02803
0.7193
1.188
0.01644
12.11
4.57
0.1042
3.905
0.9986
0.5038
0.2209
0.04889
3.719
0.5092
0.2057
0.005851
0.4246
0.008824
12.05
0.01795
0.01796
0.7102
1.656
17.23
0.01363
0.04013
0.444
60.69
1.257
1.382
0.04626
0.278
3.792
1.306
1.005
72.18
7.336
8.573
13.71
1.408
0.9381
3.629
1.83
0.6682
48.39
0.2103
0.696
0.1142
0.03092
0.8166
0.02102
0.9002
1.457
3.222
0.02457
0.01852
0.2885
0.03172
0.552
3.209
2.876
1.374
0.008333
0.03159
0.4197
1.137
0.1566
2.489
0.01947
0.0205
0.3816
0.016
0.2243
0.02478
3.039
0.001676
14.11
1.665
0.02092
0.001605
1.772
0.2151
3.432
1.578
0.01183
1.444
0.1964
2.127
1.269
1.045
72.63
0.5123
0.07351
0.01544
18.53
0.4294
0.8036
0.6355
0.02187
1.523
1.844
0.3621
1.434
0.4962
4.542
1.391
12.83
0.2408
0.3712
0.5941
0.9906
0.2116
10.26
0.009445
2.17
0.04515
4.949
5.4
0.03247
0.008119
9.109
6.971
0.01758
0.7746
33.28
1.021
0.4004
0.004513
0.1369
4.573
1.421
4.537
0.3075
0.3848
0.5439
19.5
0.06313
1.175
0.7125
1.173
1.14
0.03426
0.3488
0.01096
0.2255
0.009238
0.3571
0.5855
0.7799
0.5882
0.05933
0.07602
0.39
11.48
19.91
0.1683
0.002257
0.002536
1.508
0.8039
0.02478
1.208
7.307
1.38
31.06
4.572
0.01043
1.897
0.923
1.359
3.852
1.433
0.1817
1.638
0.3539
0.2063
2.971
12.92
2.645
0.3136
2.151
1.865
0.557
1.727
0.03577
0.05156
0.3483
0.018
0.0731
0.8178
0.2672
0.8911
13.51
0.1556
0.1147
0.2429
0.1594
1.646
0.02105
0.5721
0.1736
0.3431
2.044
28.08
0.4089
15.5
4.609
0.1096
1.475
0.01792
0.4509
0.8198
0.8713
0.2696
0.2264
0.9998
0.01605
2.217
0.5933
5.082
0.5597
0.008229
0.8261
66.12
0.4262
0.1595
0.01831
0.8606
0.02806
17.03
0.8677
1.201
1.518
0.06434
2.912
2.689
4.21
51.32
8.101
3.628
0.004119
3.693
2.02
0.659
0.02573
1.44
0.2075
6.555
0.2943
0.07717
0.734
0.7549
0.1908
10.5
35
0.7653
0.01936
0.1365
1.817
3.281
0.3555
3.478
2.12
4.092
0.1959
1.167
0.5929
0.1278
19.65
3.673
0.1994
0.0333
1.829
1.073
0.08964
8.372
0.5763
0.05337
0.4296
0.9915
2.514
1.205
1.256
1.22
0.6996
0.2814
0.7142
0.3999
0.6302
2.587
4.364
0.02339
10.6
0.5259
1.733
0.9721
2.509
0.9974
1.141
0.0006177
14.74
3.234
831.3
2.578
27.99
1.068
0.1539
14.12
0.1691
2.551
1.345
0.05718
1.185
2.126
18.53
0.5405
1.687
0.1174
0.01828
1.292
1.384
0.1195
0.7073
12.85
0.5703
21.24
0.3006
0.02525
0.1305
0.4057
4.284
0.2991
0.9317
2.113
9.375
32.19
0.2498
1.135
0.0005949
0.5205
1.13
0.4918
0.04031
0.1763
35.9
0.03011
0.0528
12.35
11.98
1.325
5.09
0.1933
0.6829
0.02574
0.02498
12.97
6.944
20.49
28.36
0.807
0.08101
0.05928
0.4825
0.2614
0.009807
0.4672
3.305
0.01731
0.4456
0.001425
2.961
4.965
0.02688
0.01314
0.6767
0.4294
3.097
0.06921
12.63
2.108
0.04245
0.009539
0.489
0.2897
3.498
1.105
2.57
11.65
17.99
0.7631
1.144
0.03574
18.5
1.826
0.01598
0.02454
0.03957
0.02821
1.425
0.01447
0.0006851
1.495
1.195
0.8288
7.137
0.1189
0.5971
0.06727
0.2614
0.4902
0.2283
0.9588
2.624
9.412
1.076
0.463
0.002155
0.01193
0.327
0.8731
2.509
2.325
4.175
0.5154
0.1746
62.14
0.1381
0.06862
0.3831
3.81
26.68
0.02521
2.116
1.178
1.253
1.94
23.41
5.331
0.001936
1.208
2.398
0.6985
7.747
0.3294
0.6898
1.279
0.3889
3.216
2.802
1.435
25.53
3.456
0.1118
0.1483
0.3309
0.3268
3.283
1.457
0.748
11.62
0.02882
2.894
3.521
0.08771
0.04379
1.17
0.003479
0.1696
1.61
10.82
31.58
2.662
2.359
2.349
0.3324
0.7661
2.441
0.2777
0.006891
1.142
0.5421
0.1265
0.1596
0.4843
0.9184
0.001359
0.0044
0.4095
1.189
0.2307
0.04112
3.997
0.2142
0.914
1.738
36.3
0.02105
1.089
2.438
0.1636
0.5461
4.455
0.168
0.1066
0.1647
26.43
16.01
6.466
0.1168
1.774
0.04296
3.442
0.2033
1.256
0.2865
0.7121
10.32
0.4249
1.657
1.618
4.123
0.1896
0.9147
2.986
1.078
0.7901
0.2809
27.07
1.815
0.8994
6.233
0.005446
0.7435
1.293
0.282
5.75
0.4717
2.226
0.107
0.01522
0.175
3.14
3.255
0.01884
3.692
0.2545
4.03
0.7044
1.208
2.2
0.2428
4.688
1.335
0.02216
0.17
1.427
22.69
4.334
0.299
1.595
0.4264
0.1439
15.17
14.59
0.4387
0.8237
0.003677
0.0421
0.5048
10.64
0.6965
0.3455
0.5833
0.02011
0.2527
1.002
0.0006688
11.99
16.43
2.411
3.109
0.6431
11.85
18.29
3.898
0.4787
0.003666
2.541
0.9111
0.5509
1.336
0.0348
0.7823
1.61
0.3255
0.05071
0.2805
0.08069
4.18
17.55
4.33
11.41
3.405
0.9732
14.95
4.377
0.8501
4.172
0.8239
0.4539
1.158
24.98
0.9381
22.88
0.5394
1.777
20.33
0.001588
73.87
0.03292
0.05889
0.009148
77.21
20.01
0.02886
22.24
19.91
0.01632
1.41
2.509
3.014
0.9326
0.01615
0.1251
0.6444
0.3106
0.009283
97.82
0.138
2.189
10.35
0.2048
0.6648
0.2849
1.198
0.5163
11.2
1.156
0.1202
4.903
0.2359
2.632
0.8424
2.193
0.02623
0.09297
0.002769
0.1871
0.41
0.02971
0.8965
2.758
0.07396
0.1435
0.08256
0.01347
2.383
1.056
0.01531
1.338
0.4178
4.74
0.5239
30.46
10.31
0.03398
16.49
2.506
0.04882
0.5414
1.767
1.804
2.679
0.1767
8.016
10.37
0.04973
0.04019
0.001123
0.008205
0.4368
0.5575
0.4011
0.02962
14.62
3.954
0.294
0.1571
1.15
0.01823
13.15
0.06215
1.415
14.97
0.4023
8.42
0.4724
0.4222
1.099
0.01469
0.3457
0.001206
0.1479
0.3586
8.851
0.1595
0.1754
0.001151
0.702
2.165
1.067
0.04529
0.6632
0.5412
0.05459
0.02262
0.7582
0.02114
0.4871
2.459
0.2454
0.3495
1.176
11.39
0.3391
0.02269
1.2
1.237
0.2951
10.87
3.242
0.0329
4.244
17.48
4.409
2.07
0.1612
0.9692
2.409
0.001271
0.3571
6.043
4.106
0.625
0.1684
2.478
0.2111
7.7
0.2743
0.5743
1.641
61.53
0.04326
2.07
0.3002
0.7986
0.2605
2.541
14.98
0.001111
1.81
10.64
0.2822
0.5543
0.9396
0.01808
0.0301
0.557
1.989
1.568
1.171
0.016
4.536
13.85
0.3681
0.2814
1.732
1.022
1.538
0.02521
0.9198
0.6171
0.5063
0.9166
30.08
0.001845
12.91
0.4029
1.452
0.07164
0.03425
0.7139
0.03033
14.42
0.5208
0.5348
0.1576
0.03966
1.049
1.982
0.2863
3.506
7.698
0.8312
0.9527
0.1646
0.036
0.01671
1.385
0.8393
0.03004
0.6048
0.737
3.233
0.1769
0.3931
5.054
0.2243
0.445
5.555
1.206
0.1188
1.322
1.122
2.182
0.7293
9.709
14.55
0.05538
1.724
0.6941
0.5167
1.979
0.01865
5.925
0.2879
0.6648
0.06287
0.03409
0.1103
0.01786
5.322
1.084
6.264
3.486
16.37
0.6242
1.499
3.089
0.5751
7.928
0.5234
1.212
0.9766
12
0.3335
0.02869
0.306
31.36
1.899
0.5723
0.01779
3.552
0.02389
0.03962
45.39
19.87
0.136
1.357
5.016
0.3673
2.386
184.7
0.1724
0.5401
0.5214
1.721
0.2722
2.54
2.172
26.35
25.55
0.8648
4.112
1.305
2.056
0.5019
0.9824
2.775
0.9648
1.681
0.5806
0.02798
13.29
0.4543
0.3489
0.6919
0.006455
1.445
0.6787
0.3959
1.018
1.501
1.395
1.013
0.5105
0.3295
0.2334
0.3721
7.94
3.689
0.5454
1.14
0.01836
1.294
1.113
7.301
0.3799
13.38
1.303
0.05635
0.00126
0.2695
0.0005465
1.129
3.252
1.649
0.7221
8.294
0.8483
0.6164
0.02405
3.63
0.2106
1.482
0.03401
0.01773
0.01283
0.1426
0.5036
0.6883
1.431
1.208
2.797
0.01735
0.005238
0.9926
0.009414
16.81
0.7595
0.0575
0.04017
0.0008238
0.3714
0.1466
0.3189
1.188
3.614
0.6403
3.452
3.416
0.03047
0.01815
0.0321
5.353
1.034
4.296
1.477
0.005921
0.04187
0.1556
0.209
2.846
1.536
1.207
0.2565
0.004821
0.173
0.7046
0.03577
425.6
0.7512
0.04504
0.9818
0.6187
0.2952
0.3373
23.39
0.7527
1.475
0.126
0.8024
0.6679
0.6256
0.1953
1.359
0.2154
0.3492
0.4484
1.566
0.484
2.449
1.595
2.852
0.2188
1.02
2.012
0.6523
5.754
12.08
0.2357
1.974
0.1223
4.06
0.005284
2.771
0.07127
0.1936
0.01006
0.8927
0.08567
14.67
0.0008113
0.02509
0.1924
0.09451
7.148
0.01775
4.066
0.4669
17.68
0.374
4.018
0.6669
2.742
0.04523
0.94
3.405
0.169
0.334
3.596
0.01341
0.01469
0.263
0.1246
1.52
0.0223
3.642
0.2363
0.0907
4.524
0.1125
4.168
22.53
1.215
0.0321
0.4876
1.163
12.57
0.01622
0.1258
1.983
57.35
0.8721
0.2933
1.128
0.1098
2.833
3.812
17.41
4.146
0.1405
0.01869
0.2864
0.003472
0.003498
5.905
254.4
6.693
3.426
1.593
0.1308
0.9521
0.0868
0.4033
0.4623
3.246
0.2398
0.9005
1.082
5.135
0.4754
13.49
0.01111
2.286
0.801
0.3618
1.264
18.91
1.292
1.719
0.5433
0.0265
0.05378
0.8569
0.002123
26.81
0.1147
0.5968
0.2398
2.663
10.1
0.0019
0.4008
0.006338
0.04506
0.005627
0.4336
0.6036
10.68
3.412
0.3571
0.02703
0.7483
10.03
0.4723
14.81
0.3763
0.004842
1.089
0.1396
0.159
0.004414
0.007344
3.645
7.935
1.452
1.917
0.5102
1.472
0.05847
0.3031
0.02103
5.283
1.066
0.1076
2.153
6.098
1.123
0.7861
0.1278
0.3523
5.167
1.019
0.6209
1.043
2.93
0.02927
0.03686
0.3193
0.006959
20.02
6.764
41.98
2.002
1.539
0.2145
0.2563
4.103
3.644
0.5539
0.07783
0.02191
0.01193
1.085
0.01911
7.762
0.1721
0.4664
4.538
5.202
1.237
0.3255
1.27
0.01432
1.057
2.055
0.01265
20.92
0.02045
2.61
0.01808
0.05263
0.05353
3.179
3.414
0.3527
0.7157
0.02233
6.8
2.263
1.237
0.2165
0.8776
1.205
1.044
18.09
1.987
0.2759
0.02746
0.04216
0.1394
0.1733
2.011
1.225
2.135
4.113
0.2454
1.189
0.2881
0.2206
0.447
0.03461
3.319
0.03387
0.6968
3.012
1.605
2.169
0.02066
0.8559
0.02685
4.518
4.487
0.004482
3.383
2.789
0.6446
0.8219
0.01523
0.01164
1.15
0.001322
1.597
0.3448
0.5075
1.476
1.338
8.082
0.4951
1.23
0.07686
0.3617
0.4213
0.4085
0.009929
7.294
1.485
0.02346
0.167
0.1
0.03795
2.346