/*--------------------------------*- C++ -*----------------------------------*\
| =========                 |                                                 |
| \\      /  F ield         | OpenFOAM: The Open Source CFD Toolbox           |
|  \\    /   O peration     | Version:  v2012                                 |
|   \\  /    A nd           | Website:  www.openfoam.com                      |
|    \\/     M anipulation  |                                                 |
\*---------------------------------------------------------------------------*/
FoamFile
{
    version     2.0;
    format      ascii;
    class       volScalarField;
    location    "5";
    object      epsilon;
}
// * * * * * * * * * * * * * * * * * * * * * * * * * * * * * * * * * * * * * //

dimensions      [0 2 -3 0 0 0 0];


internalField   nonuniform List<scalar> 
100503
(
2.034
6.529
40.79
40.41
5.177
0.9785
19.06
138.7
489.7
2.753
29.98
596.3
119.1
116.7
168
138.1
92.7
35.4
21.95
125.4
21.95
19.93
1.076
24.72
22.97
16.87
19.27
1.165
0.05097
1.31
2.918
0.4817
0.4699
0.2614
0.1191
0.03363
0.2526
0.02526
2.128e-06
0.04883
0.08816
1.738e-06
1.717
0.02696
1.453
0.01044
4.284e-05
1.445
0.02631
1.18
0.6371
0.1334
0.004354
0.2505
0.02654
3.044
0.007683
0.01072
0.081
0.08331
1.784e-06
0.5259
0.1418
0.3435
17.52
0.02383
1.654e-06
0.1221
118.8
0.2471
0.01807
0.05783
0.02077
1.138
0.005803
0.06711
0.03166
2.136e-06
2.121e-06
0.3399
2.714
0.07928
0.004324
1.729e-06
0.01126
2.128e-06
0.01136
0.0553
0.3813
3.058
0.03607
0.0196
0.09499
1.738e-06
1.915e-06
0.1496
0.02199
0.007619
2.135e-06
2.119e-06
0.03956
1.365
0.02595
0.07125
0.004048
1.932e-06
0.07634
0.8679
0.001336
0.08053
0.3694
0.122
0.3676
0.00879
0.01042
0.1493
0.01035
0.02815
0.2756
4.609e-06
0.009582
0.02362
0.1484
0.3616
0.4458
0.3061
0.005797
0.006141
0.08363
0.3054
0.08157
0.103
1.409e-06
2.114e-06
0.5591
0.005674
0.08235
0.005321
0.0221
0.005859
1.904e-06
0.01011
0.02423
0.002771
0.04329
0.1478
0.001038
0.01289
0.1181
1.901e-06
4.049
0.6216
1.725e-06
2.13e-06
0.08899
5.385
2.985e-06
0.03255
3.349e-05
0.3313
0.2094
1.935
0.119
0.01578
1.555e-05
0.2736
0.2572
1.717e-06
1.932e-06
0.02722
0.01775
0.2074
0.02331
0.4473
2.05e-06
2.038
0.02635
2.136e-06
0.007679
4.33e-05
0.05507
0.01598
0.02075
0.0461
0.007608
0.01286
1.432e-06
0.2093
0.06694
0.8597
0.001227
0.04448
0.1668
1.931e-06
0.049
0.004251
2.114e-06
5.092
6.481e-06
2.368
0.1036
0.3448
0.333
0.03229
1.185
0.04291
0.08285
0.1194
0.07443
0.08983
0.04895
0.1449
12.96
0.01038
0.01576
0.006417
0.05037
1.939e-06
0.06698
0.1539
0.02141
0.006955
2.126e-06
0.09376
0.5617
18.2
2.12
0.9494
0.0105
3.463e-06
0.03383
0.08923
8.08
0.01669
0.004435
0.02579
0.07545
1.775e-06
11.95
0.04544
0.7374
0.05348
0.1968
0.00289
0.0003233
2.136e-06
0.01277
1.825e-06
6.172
1.357
1.953e-06
1.048
2.19e-06
0.001905
1.924e-06
0.009733
0.007718
4.707
0.01027
0.02655
0.7715
0.1194
2.131e-06
0.009862
0.1001
0.1782
0.06879
0.02608
1.477e-05
0.0003341
0.4416
0.001953
0.0785
0.005686
0.2544
2.11
0.0191
2.073e-06
0.1027
3.962
0.07063
0.05593
1.312e-06
0.006954
0.5673
1.926e-06
0.2605
1.277e-06
1.411e-06
0.1136
0.04165
7.737e-06
1.928e-06
0.05016
0.2027
0.5186
9.045e-05
2.999e-06
0.1146
0.02625
0.02774
0.03818
2.65e-06
0.003495
0.02698
0.4467
0.2503
0.04232
3.507e-06
1.734e-06
0.05549
0.08432
15.15
3.953
3.226e-05
0.03956
0.01574
2.785e-06
2.847e-06
0.01794
4.186e-05
0.1544
0.2326
0.01073
0.1119
1.956e-06
0.02138
0.2373
0.004224
0.443
0.01987
0.4918
0.221
2.135e-06
0.2728
0.0001917
0.003545
1.881e-06
3.347e-06
0.00385
2.135e-06
1.242e-06
0.3165
0.06805
0.008994
2.127e-06
0.01284
0.007695
15.38
0.07707
0.02002
0.005755
0.6454
0.1763
0.06689
2.135e-06
2.129e-06
1.963e-06
0.1268
0.06583
2.703e-06
0.1926
0.1315
0.1756
0.01182
9.1e-06
0.1802
0.1051
8.749e-06
2.675e-06
0.05224
0.03356
0.5663
1.874e-06
0.007568
15.82
0.008568
2.035e-06
0.005495
0.1765
4.404e-06
0.01119
0.0003125
0.00489
4.882
1.793e-06
0.09559
0.00846
0.00863
0.255
2.201e-06
0.0294
0.1433
0.05433
0.04965
0.004792
0.4773
1.922e-06
16.93
0.003576
0.005263
2.486
0.0589
0.03079
0.01233
0.1855
2.115e-06
0.002724
0.1292
9.527e-06
0.5133
0.3135
0.0001978
0.09603
2.689
1.278e-06
0.6581
0.2559
2.129e-06
0.01162
4.116e-06
1.848
0.001587
0.02652
2.275
2.753e-05
0.02122
0.01887
0.06573
0.6024
2.807
0.167
0.06903
1.911e-06
0.3313
4.213e-06
0.04806
0.03306
2.64e-06
3.338
0.0003289
0.007447
0.01331
1.751
0.01319
135.9
0.1898
0.06402
1.399e-06
0.03651
0.63
56.91
0.02657
2.7e-06
0.9336
0.07356
1.256e-06
0.01611
0.1045
0.0425
0.05428
2.728e-06
19.96
0.2756
3.553e-06
0.3243
0.04027
0.01099
0.0196
0.07967
0.03044
0.009565
0.01576
0.0005977
2.414e-06
0.2539
0.1693
0.01474
0.07479
0.01232
0.000188
0.1034
0.01048
0.003076
1.61e-06
0.01683
3.704e-06
2.104e-06
1.96e-06
0.01172
0.06761
0.01062
2.063e-06
2.607e-06
0.004437
0.005327
0.00029
0.05954
0.03158
1.88e-06
0.001672
1.779e-06
0.003807
0.5269
0.009686
2.8e-05
0.0002964
0.07832
2.67e-06
0.01173
2.135e-06
0.03639
5.618
0.2524
2.127e-06
1.922e-06
0.03703
0.06371
0.1189
0.001141
0.0009973
0.7378
0.0126
0.006191
1.348e-06
0.003424
0.006746
1.814e-06
0.0003507
0.1009
0.3592
0.07476
0.02049
1.676e-06
0.0079
0.09668
0.03386
2.563e-06
0.07372
0.000732
0.6195
0.01607
0.01063
0.02142
0.007546
0.05245
2.38e-06
0.04846
0.1001
2.604
0.3909
13.69
1.651e-06
0.05522
0.1589
0.3755
0.02103
0.04982
0.1053
0.001914
0.07338
0.1329
0.004783
0.02761
0.009693
0.01896
0.07809
0.04638
1.967e-06
1.752e-06
1.781e-06
0.04786
0.1107
1.688e-06
1.765
0.0111
1.96e-06
0.07855
0.02991
1.404e-06
0.01985
2.143e-06
4.388e-06
0.3159
2.127e-06
0.07592
0.09983
0.01615
1.825e-06
0.06021
0.02926
0.4774
0.01317
0.5429
0.9453
0.1772
0.005224
0.01153
1.366e-06
0.1362
1.445e-06
0.00723
0.11
0.005429
0.03548
0.03671
0.131
1.44e-06
1.764e-06
0.02474
0.004412
1.747e-06
0.69
0.001584
0.01781
7.707e-05
0.04921
0.4746
0.1774
1.331e-06
0.109
4.631
0.005581
0.003983
2.136e-06
0.01887
0.01442
0.009549
0.004878
0.3786
2.537
1.599e-06
0.01168
0.01552
0.0769
1.82e-06
5.01
2.03e-06
0.03236
0.009626
1.77e-06
0.04502
0.007409
0.007729
2.605
0.1292
0.006425
0.009474
0.0002936
0.007517
0.5903
0.007739
1.919e-06
0.0002984
0.007736
1.431e-06
0.02052
1.789e-06
6.118e-05
0.01923
1.779e-06
2.039e-05
0.01674
0.5715
1.67e-06
2.773e-06
0.07435
3.235e-05
0.0005501
0.2086
6.513
0.04479
0.0005847
0.009894
2.142e-06
0.07937
3.496
5.896e-05
1.083
2.403e-06
1.557e-06
0.01708
0.00757
0.03504
0.04068
0.02232
0.209
0.01641
0.05186
0.04795
2.77e-06
0.04573
0.068
0.3094
0.5211
0.05938
0.2805
2.062e-06
1.836e-06
0.1376
0.0801
0.9631
2.35e-06
0.05467
0.006072
4.622
8.377
1.896e-06
6.62
0.0144
0.005564
0.04127
0.2459
2.142e-06
0.0873
0.03583
2.79
3.416e-06
0.008964
1.674e-06
0.6033
0.07019
3.385e-06
6.099e-06
1.791e-06
0.1919
0.03858
0.07069
0.0002437
0.005904
0.1179
0.03828
0.1447
0.1227
1.45e-06
1.376e-06
1.642e-06
60.11
2.128e-06
0.005951
0.0006427
0.01191
0.1024
0.01225
0.3511
0.3656
0.02579
1.172
2.422
2.064e-06
0.04267
0.06676
1.141e-06
1.071
0.04485
0.2527
0.0604
1.774e-06
0.131
0.01657
0.006863
0.007042
0.4944
1.133
1.842
0.0003654
0.6145
0.003322
0.1406
0.05081
0.02039
0.02134
0.06775
0.0007286
0.006425
2.146e-06
2.021e-06
1.543e-06
0.04153
0.6035
0.1115
0.007349
0.003972
0.008359
0.04231
0.0507
0.141
0.02766
1.563e-06
2.218e-06
0.09052
0.1419
2.081e-06
0.3761
0.05702
2.015e-06
0.02605
0.3577
0.6508
1.792e-06
0.2345
2.646
0.1894
0.01099
13.86
0.1244
0.05236
1.366e-06
0.03789
0.01274
1.913e-06
2.169
2.09e-06
3.425e-06
0.01198
0.01261
0.01361
0.04532
1.043e-05
2.137e-06
0.02121
0.02324
2.26e-06
0.1478
0.005487
1.58e-06
0.08107
0.08309
58.25
0.00827
3.274e-06
4.246
2.432e-06
0.9227
0.02079
0.001586
0.03147
0.1092
0.494
0.01619
0.2416
4.551
0.01439
6.43
14.27
0.01982
1.712
2.33e-06
0.02736
0.03538
0.0104
0.002027
0.3704
1.679e-06
0.3892
0.2272
0.01779
0.006814
2.123e-06
0.002907
0.08015
0.1556
0.8537
0.01161
0.7074
0.4831
0.003223
2.045e-06
0.0105
0.06909
2.131e-06
2.132e-06
0.008263
0.01904
0.005016
0.2581
0.01547
0.01418
2.146e-06
1.914e-06
0.03825
0.0097
0.7008
6.184e-06
0.003256
1.832e-06
2.143e-06
1.943e-06
0.08102
0.03549
0.04604
0.1253
0.006401
0.0586
2.193e-06
0.4603
0.1001
4.357e-05
0.6456
1.752e-06
0.08119
2.123e-06
0.4792
2.136e-06
2.494e-06
0.8266
0.2755
1.117
0.0323
0.1167
0.06765
0.04801
0.01123
0.03844
2.104e-05
2.26e-06
0.1145
0.07281
0.007037
0.2711
0.005889
0.256
6.531
2.136e-06
0.0001585
0.163
1.73e-06
0.07778
0.467
0.01326
0.04568
0.03205
1.127e-06
0.5413
0.04057
0.01517
1.602e-06
0.1278
0.00474
0.3221
0.08763
0.01378
0.01152
0.395
0.006423
1.079
0.00548
0.0001015
0.1788
1.909e-06
1.856e-06
1.474e-06
0.1159
0.03588
0.009264
0.004305
0.01931
0.03621
0.002411
0.1912
0.01687
2.912e-05
0.03895
0.03619
0.01086
0.2305
0.7759
2.037e-06
0.007696
1.936e-06
0.03207
0.6615
0.01436
0.04316
0.005094
0.01607
0.0006442
0.01201
0.01444
0.55
2.272e-06
0.01458
0.009058
0.07578
0.01414
0.4648
0.01102
0.008715
0.02419
2.673e-06
2.241
0.01196
1.964e-06
0.01093
0.04342
0.01179
2.13e-06
2.135e-06
2.143e-06
0.1861
0.05139
0.02871
1.806
0.01053
0.003007
0.01706
0.0002671
0.2804
0.007631
0.1775
0.3315
1.811e-06
0.2387
0.00885
7.243
1.767e-06
0.3814
0.009814
0.1685
0.1343
2.273e-06
1.959e-06
0.7643
7.53e-06
0.01292
0.0836
0.01764
0.002412
0.2154
0.6534
2.638e-06
0.02188
0.06057
2.13e-06
1.803e-06
0.04825
0.003852
0.02375
0.02729
0.01381
1.725
0.03643
0.01333
1.886e-05
0.02362
0.0785
0.005272
0.09417
0.1886
0.3192
0.01237
0.01502
3.376e-06
1.135e-06
1.486e-06
0.02588
3.93
9.636
0.0056
0.001708
2.537e-06
0.04367
0.001405
0.0122
0.03047
0.09293
2.024e-06
0.000124
6.062e-05
1.052e-05
0.04188
0.0002493
0.07608
0.009253
0.0008487
0.01604
0.004692
0.01231
9.014
1.982e-06
0.04026
0.217
1.76
0.06856
0.06926
0.005944
0.02705
0.02385
0.006042
0.01306
3.32e-06
0.002284
0.2431
0.01844
3.532e-06
0.002332
0.02612
0.02934
0.007816
0.02047
4.945e-05
0.05635
0.00116
0.00318
9.471
0.05125
9.81
0.0002184
2.139e-06
5.935
2.024e-06
1.878e-06
0.2431
0.03957
1.05
2.61e-06
0.1457
0.002855
1.69e-06
0.01166
0.0104
1.382e-06
2.329e-06
0.1168
0.1126
0.7176
0.004558
0.1112
2.134e-06
7.501
0.01533
0.01116
0.01376
0.02278
2.42e-06
0.02629
4.898e-06
0.7462
7.772e-06
0.1436
3.177
0.12
1.774e-06
1.927e-06
0.1252
0.009165
0.3687
0.1504
2.78e-06
0.1144
2.093e-06
0.04894
2.056e-06
0.004127
0.9656
0.4898
1.541e-06
0.006479
0.2596
0.002276
0.3922
2.154e-06
2.395e-06
2.139e-06
0.02309
0.01069
0.01001
0.01174
5.668e-06
1.828
2.706e-06
0.1255
0.003568
0.03683
0.01087
0.01442
2.129e-06
2.268e-05
0.05409
0.2777
0.02315
0.4886
2.878e-06
0.607
0.01337
0.07975
0.03319
2.096e-06
0.1375
0.0004279
1.813e-06
0.05186
1.045e-05
2.163e-06
7.267
0.04544
5.39e-06
1.75e-06
0.004265
0.005395
0.0128
0.4135
1.619e-06
0.5958
0.3975
0.009755
0.01159
0.002109
1.035
0.008968
0.3685
6.167e-05
0.009177
0.01024
0.03411
0.02733
1.508e-06
1.175
0.0186
0.01462
0.0145
0.00137
0.001037
0.3026
0.0009621
0.005553
0.882
0.006785
2.129e-06
3.29e-06
0.1745
0.004815
2.118e-06
1.425
0.02076
6.189e-05
0.1555
0.05173
0.005511
0.005491
5.915e-05
0.9661
3.058
2.274e-06
0.7057
0.1856
0.2362
2.173e-06
0.1007
0.009577
1.746e-06
0.06685
1.88e-06
0.3732
0.02186
0.1087
2.134e-06
0.2361
0.4223
2.445e-06
2.111e-06
2.138e-06
1.723e-06
0.01593
0.6364
1.515
0.487
0.02617
0.3833
0.01185
0.006602
0.02645
0.1229
0.01716
1.011
0.02648
0.01015
0.01655
0.1371
1.382e-06
2.171e-06
0.01101
0.0484
0.03862
0.3625
0.05227
0.01299
1.692e-06
3.008e-05
0.1144
0.2745
0.2108
0.5314
0.006629
0.07407
0.01395
2.077e-06
0.4575
0.02507
0.01142
2.13e-06
1.036
1.247
2.626e-06
0.5837
0.5811
0.0328
0.3553
0.07143
1.925e-06
0.07593
0.01584
0.1084
0.07717
0.015
0.1764
0.3271
2.147e-06
0.006731
0.4027
2.132e-06
0.006445
0.04027
1.401e-06
0.03276
2.131e-06
0.002983
0.02782
7.615e-05
0.02028
2.454e-06
2.131e-06
1.578e-06
26.53
0.006356
0.01182
0.02449
0.02865
1.514
0.08256
1.099
0.00146
0.02535
0.0522
0.06811
2.405e-06
0.01294
0.03969
0.004032
6.361
3.57e-06
1.116e-05
0.3558
0.02296
0.07404
0.1796
0.09737
1.381e-06
0.04539
2.161e-06
0.5595
1.862
1.909e-06
0.01174
0.1449
0.01544
0.00394
0.3325
0.02018
0.5189
0.01202
0.01091
0.2175
0.05944
0.1105
7.786
0.01442
0.07653
0.001994
0.04632
0.03533
0.01292
0.1425
0.09035
1.471e-06
1.14
0.005944
0.0484
5.817e-05
0.1618
0.006923
28.33
2.653e-06
1.842e-06
0.05024
0.4929
2.127e-06
0.1935
0.01087
0.4457
0.05873
0.06006
0.07997
0.008007
0.04424
0.4383
1.121
0.4451
0.603
12.21
0.1449
0.008847
9.096
0.1279
0.5401
2.1e-06
0.962
0.06866
0.3173
0.0688
1.791e-06
0.01224
0.06838
0.07424
0.03981
0.01137
0.01363
0.0947
0.2352
0.00785
2.671
0.1008
1.879e-06
0.006396
0.654
0.07014
0.02469
1.104e-06
1.337e-06
0.002611
0.3589
2.147e-06
1.017
0.1825
0.006004
0.04472
0.02205
0.4362
0.4229
0.007248
0.01034
0.6721
0.01438
0.4725
0.09802
1.741e-06
2.286e-06
0.007781
0.003039
0.0725
0.03579
0.08544
1.304
0.04992
2.136e-06
0.1304
3.339e-06
0.1117
0.004569
0.06925
1.667e-06
0.04721
5.396e-05
0.05714
0.04301
2.803e-05
0.009551
0.007767
0.1382
0.1826
5.935e-05
1.92e-06
0.03726
0.2828
0.1216
4.154e-06
0.02291
0.006657
1.666e-06
0.09046
0.006862
2.135e-06
0.02418
0.1027
0.01614
0.03007
1.185e-06
0.01747
2.223e-06
0.01127
0.02769
0.03332
0.04912
0.08169
1.905e-06
1.019
0.08791
0.0863
0.02511
0.1686
0.01871
1.366
0.1174
0.06401
2.105e-06
0.05824
0.00466
0.0745
2.633
0.0002085
8.237e-06
0.02
1.055
1.254e-06
0.001271
0.01781
3.603e-06
0.01544
0.7838
0.02977
0.03115
0.004956
0.01671
8.107
0.007516
0.06077
0.01173
0.01083
7.596
1.909e-06
3.482e-06
0.009146
0.06856
0.02266
2.2e-06
2.142e-06
0.001002
1.944e-06
0.0377
2.135e-06
0.004937
0.05551
0.03325
0.2225
2.052e-06
3.943e-06
0.003111
0.537
3.904
0.4996
0.00581
0.01488
0.001289
0.05468
0.001041
0.02013
0.3413
0.01499
1.861
0.00794
0.03764
2.151
0.07016
0.0321
0.02647
0.001192
0.02978
0.01501
3.716
0.02106
0.01323
0.005001
13.98
0.04837
0.04646
0.2191
0.009611
0.1221
0.009169
0.1047
0.04478
0.01348
0.005935
0.02234
0.008385
6.918
0.1646
1.531
0.0002465
1.907e-06
0.06855
0.4257
0.2009
1.56e-06
0.06134
0.01977
2.533e-06
0.003984
0.00641
0.09506
0.03834
0.02521
0.1364
0.6028
1.702e-06
3.357e-06
1.044
0.00826
0.005021
2.691e-06
1.049
0.2454
0.0679
1.731e-06
1.594e-06
2.535e-06
0.01419
0.05332
0.000921
0.01772
0.01312
2.15e-06
0.1983
0.00304
2.396e-06
2.179e-06
1.981e-06
1.925e-06
0.2824
0.03511
0.02663
0.0001691
0.02442
0.09254
0.009432
0.05192
35.69
0.006718
0.05846
0.00821
0.3872
0.0002777
0.05957
4.062e-06
0.0005789
0.6905
1.067
0.01479
1.732
0.1087
1.595e-06
0.03276
1.198
0.02379
3.134
2.362e-06
0.004895
0.009826
0.01344
9.991
0.08193
0.7391
7.666e-05
2.134e-06
0.03364
0.3124
0.02004
0.008017
0.009799
0.0002596
5.602e-06
0.1445
0.04863
1.719
0.219
0.006143
0.002947
1.789e-06
8.812
0.02782
2.389
1.891e-06
0.1087
6.937e-06
2.012e-06
2.278e-06
0.04699
2.027e-06
0.5736
0.02541
1.207
0.1149
0.007719
0.3979
0.08431
0.02446
0.6574
0.08255
0.01161
0.03984
0.1512
0.007288
0.8585
0.6266
0.0002859
2.052e-06
0.0044
0.3219
0.008309
0.01332
0.05493
0.01829
0.0762
0.006852
0.3728
2.547e-06
0.08143
0.3647
0.5761
0.006333
0.4697
0.05385
0.001366
1.178
0.04365
0.918
0.0264
0.0298
0.1089
0.03873
0.1712
0.01012
2.094e-06
1.228
0.07764
0.1013
5.781
0.06545
1.917
0.581
0.03567
0.5187
0.024
2.136e-06
0.02497
3.295e-06
0.007782
0.6753
1.607e-06
0.05862
2.212e-06
0.09294
0.08774
7.754
0.01446
1.769e-06
0.6638
0.911
0.3865
0.9633
0.005035
0.06931
2.221e-06
0.01151
2.132e-06
0.004648
0.005187
0.06471
0.02025
2.146e-06
0.01117
0.05561
0.00299
0.0119
0.008215
0.004835
3.76
0.01681
0.01617
0.789
0.2258
0.00781
0.1202
0.004776
4.827e-06
2.131e-06
11.83
1.5
1.918e-06
0.01933
0.05639
1.033
0.17
0.0007693
0.1605
2.618e-06
0.1761
0.01219
2.735
0.05777
2.131e-06
0.02067
0.056
0.03878
2.503e-06
0.4533
1.757e-06
0.004719
0.004516
3.1e-06
0.7066
0.4592
0.01256
0.4781
2.132e-06
0.05332
0.1399
0.4839
0.1407
2.131e-06
0.01147
2.135e-06
2.131e-06
1.388
4.527e-06
0.4641
0.4399
0.01229
0.03426
1.998e-06
2.022e-06
0.3722
0.1117
0.3634
0.5037
0.381
1.936e-06
9.018
2.427e-06
0.1099
0.004115
0.9104
2.488e-06
0.02151
0.02158
2.012e-06
1.942e-06
2.648e-06
2.009e-06
1.522e-06
0.03875
2.572e-06
0.000133
0.01395
0.006204
0.01824
0.004786
0.1817
0.07484
0.6887
2.118e-06
0.1715
0.007556
2.59e-06
1.067
3.664e-06
0.1257
0.2531
0.6248
2.128e-06
2.129e-06
1.937e-06
0.5207
0.03945
1.927e-06
0.02508
0.03964
0.004935
0.1038
0.02234
0.007613
2.131e-06
0.02521
0.03647
3.581
0.007997
2.161e-06
0.07151
0.001706
0.02104
1.415e-05
0.0691
0.04591
4.073e-06
0.001126
0.7991
0.1327
0.00695
1.297
2.16e-06
0.01883
0.01744
0.204
0.5548
2.204e-06
4.185
2.348
1.523e-06
0.3743
0.0001157
0.1659
0.01511
0.01431
0.4284
0.03095
0.0706
3.679e-06
0.02829
0.01768
1.65e-06
0.0001131
5.361
0.009113
0.0235
0.009497
0.009116
0.8192
1.652e-06
0.8955
0.1636
0.528
1.748e-06
2.076e-06
0.0145
0.01015
0.07756
5.573e-06
0.3966
0.01217
0.009744
0.006158
0.08323
2.281e-06
0.6365
3.808e-06
0.01406
3.597e-06
0.189
0.001884
0.1231
1.936e-06
0.002702
9.016
7.528
0.01469
0.01284
0.55
1.583
0.2094
3.766
1.987e-06
0.004721
2.135e-06
2.842e-06
0.1431
0.09272
0.01015
0.01761
2.135e-06
0.07764
1.92
0.005978
0.009668
2.141e-06
0.0341
0.0009436
1.632
0.02422
0.105
0.02449
0.4398
0.1178
0.5307
0.05332
0.08278
0.02639
0.01756
0.01169
0.1182
2.136e-06
8.902
0.02269
0.1646
0.01036
0.006061
0.03281
0.008524
0.003923
1.728e-06
2.133e-06
0.004845
9.477e-06
2.138e-06
2.073e-06
0.01081
3.065
2.134e-06
1.766e-06
0.0004021
2.001e-06
0.04942
0.05029
1.446
6.598
2.885
0.05366
0.009242
0.03993
0.01994
0.1955
2.426e-06
7.038
0.0001746
0.139
0.03341
0.03716
2.339e-06
0.3993
0.03256
0.1108
0.00125
0.2663
0.0514
0.1904
0.114
1.82e-06
0.3541
1.967e-06
0.03874
0.009957
0.000272
0.001573
0.0185
3.234e-06
0.0001176
0.003393
0.08818
0.01506
0.1215
0.1961
0.4011
1.429e-06
5.078e-06
1.706
2.136e-06
2.787e-06
0.001527
0.005108
0.01006
0.5151
0.5079
2.35e-06
2.336e-06
0.01377
0.01637
0.4721
2.116e-06
0.06913
2.117e-06
0.0002005
0.4392
0.04198
3.369e-06
0.1888
0.03412
1.453e-06
0.8672
0.4479
1.952e-06
0.01446
0.495
0.0683
0.03808
0.8502
0.09216
0.4913
0.08788
2.398e-06
0.009289
0.1664
0.01757
0.01235
0.05198
0.8733
0.009679
0.09091
1.88e-06
0.003783
0.0009677
0.01515
0.01375
0.04782
0.1306
1.948e-05
0.0753
2.13e-06
1.874e-06
2.208e-06
0.1568
1.288
0.1016
0.01234
4.604e-06
0.03832
0.01448
0.006128
0.1437
0.04192
1.13
2.084e-06
0.03196
0.02225
0.02498
0.01228
0.009496
2.129e-06
0.1464
0.2921
0.1964
9.911
43.87
0.02302
0.02002
0.04858
1.15e-05
0.3274
1.73e-06
0.181
0.00906
0.5989
0.4716
0.2442
1.839
1.504
0.04392
0.1418
5.8
0.07312
0.2219
0.01339
0.008297
0.0008036
0.2233
0.005513
9.495e-06
0.05803
5.398e-06
0.0396
0.0003823
0.0001773
0.1193
0.01754
0.01968
0.1172
0.05206
0.0195
1.885e-06
0.01363
1.865e-06
22.3
0.01425
0.1545
0.0508
0.1116
0.04304
1.258
0.009092
0.1615
2.138e-06
1.233
0.0192
0.02842
0.1038
0.03156
0.004888
0.6274
0.1272
0.007678
0.06836
1.781e-06
2.086e-06
0.000104
0.5598
2.131e-06
1.368e-06
0.0111
0.1529
2.761e-05
0.1615
2.419
0.03839
2.761e-06
0.005288
0.1024
0.2515
0.01173
0.06916
0.04783
2.131e-06
0.1434
0.04886
2.797e-06
1.922
2.122e-06
2.229e-06
0.1497
1.092
0.01045
0.06258
1.082e-06
0.0291
0.02438
0.4013
2.169e-06
0.1821
0.07547
2.16e-06
0.1448
2.139e-06
1.615e-06
0.3981
0.01713
2.121e-06
2.152e-06
2.133e-06
3.354e-06
0.002763
0.06799
0.1057
0.03938
0.01836
0.05367
0.08687
1.11e-06
0.005219
8.547
0.01691
1.82e-06
0.0756
0.1277
0.1331
2.191e-06
0.02711
1.749
0.03099
0.1407
0.04933
0.01186
0.00467
0.01036
0.01403
1.552e-06
0.0104
1.962e-06
0.06074
0.01741
0.01326
0.0292
1.319
0.8755
2.133e-06
2.338e-06
0.06659
0.386
1.214e-06
0.05934
2.027e-06
2.179e-06
4.576e-06
2.63
0.015
4.251e-06
0.01216
0.0006244
1.083
3.367e-06
0.01308
2.5e-06
0.0006334
0.00784
2.127e-06
2.6
0.04725
0.01174
0.09493
0.13
0.4761
0.01079
0.9568
0.01311
0.06452
0.01816
5.426
0.114
0.007515
3.681
0.0001915
1.843e-06
2.139e-06
5.554
1.335e-06
0.006942
0.1344
0.8784
0.02021
0.02227
0.006381
0.002345
1.842e-06
0.5443
0.06286
0.1579
0.01308
2.068e-06
0.4681
0.02516
0.008524
0.1507
0.03508
0.03201
1.151
0.03343
0.0005095
1.163
0.05271
0.04018
0.1807
0.4995
0.003363
0.1298
2.122e-06
0.8151
1.902e-06
2.129e-06
0.05163
0.01479
0.6337
0.0003284
5.096
0.05005
0.009551
0.0215
0.02875
0.09527
0.03785
0.276
0.0631
6.851e-05
0.02775
0.0008287
0.01105
2.127e-06
0.1732
0.00504
16.4
0.009726
0.03925
3.367e-06
2.425e-06
0.07548
1.63
0.07033
0.0759
0.02101
2.145e-06
0.1058
0.1674
0.0002496
0.01799
0.01034
0.03033
0.3966
0.3945
0.01548
1.665e-06
0.09295
0.2436
0.001605
0.5898
0.1279
3.649e-06
0.03258
0.0009094
4.575
0.02101
3.467e-06
2.883e-06
2.101e-06
0.7759
0.1457
0.003615
0.2674
0.03334
0.07695
2.071e-06
1.146e-05
2.054e-06
0.8469
4.282e-06
0.01079
0.867
0.8682
0.008328
2.979e-06
3.235e-06
0.4954
0.04659
2.164e-06
0.4122
0.01758
0.1935
0.01327
0.4019
0.6026
0.007401
0.4148
0.3402
2.324e-06
3.123e-05
0.03554
0.3106
1.526e-06
0.09246
0.03131
0.5214
0.03427
0.2995
3.544e-06
3.908e-06
0.009732
0.08846
0.1116
0.1253
0.0872
0.02131
0.09523
1.126e-06
0.04689
0.09673
1.2e-05
2.115e-06
0.03781
2.104e-06
1.67e-06
0.6522
0.07142
0.2606
0.08764
0.1319
0.4753
0.05397
2.344e-06
0.002359
2.128e-06
0.01429
0.009709
1.6
0.0211
1.695e-06
0.01792
0.1156
0.08974
0.01535
0.4609
0.06575
0.255
1.31e-05
1.21
2.141e-06
2.154e-06
1.372e-05
0.001082
0.5971
0.01931
166.1
0.198
0.5284
0.01266
9.949
0.01117
0.01233
0.3201
0.02311
0.01148
0.009833
2.127e-06
2.46e-06
2.13e-06
1.741
1.999e-06
0.1513
3.27
0.01139
0.2809
3.934
0.02668
0.06516
0.1447
0.05977
2.016e-06
0.1604
0.01851
4.872e-06
2.01e-06
4.336e-05
10.07
0.03514
0.1278
0.01952
0.01666
0.01013
0.01839
0.03682
0.5468
2.215e-06
0.05078
2.136e-06
2.131e-06
0.002891
0.01436
0.01711
1.728e-06
0.06894
0.5849
0.01893
0.09921
2.262e-06
1.839e-06
0.2121
0.0947
0.0854
9.698e-06
0.6528
0.2296
35.37
0.03798
2.131e-06
0.1366
0.01994
0.0452
2.068e-06
0.47
0.01983
1.057
0.01062
0.06497
0.01767
2.251e-06
0.03718
0.02463
0.02657
21.17
2.087e-06
0.2657
7.532e-05
1.967e-06
0.01209
0.07469
0.04309
0.04517
0.001732
0.08955
0.0004925
0.06633
40.14
0.0156
0.0795
0.009499
3.371e-06
2.049e-06
0.0116
0.4546
0.4171
0.1242
0.5734
0.01287
10
2.15e-06
2.88e-06
0.264
0.01293
0.01827
0.4624
0.01808
0.2336
0.0006673
0.008157
0.2152
0.01863
0.4671
0.6338
0.01368
0.4809
5.561e-06
1.791e-06
0.03896
0.0001067
0.04495
0.01282
1.878e-06
0.0002758
0.004335
7.34
0.7729
2.12e-06
2.216e-06
1.387e-06
0.342
4.114e-06
3.65e-06
2.126e-06
0.2694
0.00602
0.06841
0.03673
0.05674
0.01937
0.02104
0.4335
0.02714
0.542
0.4954
0.01835
0.002245
0.01807
2.387e-06
0.05803
3.054
0.01338
18.15
0.5671
0.0755
0.112
0.02027
0.02427
0.3376
0.08453
1.731e-06
2.773e-06
0.05071
0.01356
0.2447
0.536
0.1567
0.009671
3.921e-05
0.666
0.3751
2.134e-06
0.01348
0.03293
0.01194
1.962e-06
2.856e-06
0.0736
0.292
0.01211
1.9e-06
0.009519
3.319e-06
3.283e-05
1.362
0.08107
0.003906
0.0265
0.2124
1.531
0.4117
52.49
1.48
0.0254
2.407e-06
0.03863
1.919e-06
0.06093
2.115e-06
0.07713
0.8645
2.152e-05
2.052e-06
0.03392
0.5039
0.3303
0.0002801
0.3999
1.015e-05
0.06357
1.854
0.007924
2.02e-06
0.09457
0.319
0.008619
0.5611
0.5158
2.1
2.12e-06
0.02483
1.353
0.05855
2.557e-06
0.001157
1.249e-06
2.95
0.01753
0.1185
0.04092
0.0129
0.001785
2.278e-06
0.5453
0.4046
0.01612
2.127e-06
2.125e-06
0.4121
0.2447
0.01128
1.642
0.6256
0.001706
0.9645
2.207e-06
11.9
0.01174
1.906
0.08915
1.653e-06
0.3418
3.287e-06
1.083e-06
0.06093
0.01702
0.02467
0.01025
0.1133
0.7332
0.02329
0.4983
0.03165
0.04245
0.9733
0.0117
0.02006
0.01599
3.011
0.003019
0.03332
2.684e-06
0.1312
1.735e-06
0.5338
0.04268
2.46e-06
0.4706
0.01679
0.4779
22.14
0.02221
0.02552
0.03386
0.01302
2.133e-06
0.005247
0.04008
0.08355
0.06884
0.01897
0.007559
0.004829
0.0286
0.2524
1.906e-06
0.1456
0.05351
0.06684
0.05174
0.5875
0.0005825
0.5755
0.528
0.1216
14.57
0.2584
0.088
0.02753
0.0778
0.06657
0.009299
0.1388
2.289e-06
0.01077
0.02611
0.04022
3.47e-05
0.01786
0.6511
0.04101
0.09363
9.99
0.06831
0.009353
0.01071
0.007212
0.8069
2.94e-05
0.01583
0.2437
1.954e-06
4.432
1.857e-06
0.1012
0.1927
0.1915
0.0134
0.4157
0.3058
0.02504
0.3456
0.006636
0.01872
0.07879
1.519
0.01667
1.256
0.1861
0.4895
0.04068
0.03299
1.166
0.01764
0.01424
14.73
0.5368
1.626e-06
0.08609
6.787e-06
0.1409
0.01751
1.909e-06
0.07093
0.03828
2.325e-06
0.003409
1.886e-06
0.01136
2.201e-06
0.004389
0.06143
0.08728
0.006403
4.21
0.0007648
0.001104
0.3921
0.1104
0.02489
0.7842
0.07289
0.03003
0.09928
1.892e-06
2.302e-06
4.151e-06
0.03824
2.138e-06
0.09007
0.1698
0.01429
0.0006025
0.4836
0.01421
0.1317
0.3825
3.347e-06
2.136e-06
0.9215
0.01335
0.03462
0.0409
1.662e-06
2.614e-06
2.141e-06
0.03819
0.492
0.01048
0.03928
0.02094
0.2003
0.1155
2.659e-06
0.004295
0.004884
0.2745
0.2744
0.03884
0.1179
0.6288
0.02253
2.9e-06
1.449e-05
0.01307
0.01362
0.01479
0.4078
0.001113
1.965
0.464
2.259e-06
0.4273
0.05741
0.07596
2.872e-06
2.456e-06
0.02328
0.001813
0.13
0.2751
0.008532
0.01098
0.01191
0.03315
1.523e-06
0.1608
0.0499
0.01599
1.597e-06
0.02575
9.658e-05
0.05783
0.1395
0.04793
0.5757
0.0677
0.2692
0.04617
0.01337
0.2358
0.0183
2.074e-06
0.07869
0.05198
0.005836
2.123e-06
0.7579
2.134e-06
0.02647
0.3603
0.0125
0.00273
9.13
0.7865
1.912e-06
0.01763
0.2091
2.215e-06
2.08e-06
2.311e-06
1.107
0.02994
1.031
0.01003
2.233e-06
2.656e-06
0.007045
0.05372
0.03219
0.5691
0.06615
0.05465
0.1895
3.267
0.2899
2.133e-06
0.3043
0.0622
3.273e-06
0.01174
0.05099
0.158
0.05219
0.744
4.535e-06
0.1003
0.08637
3.104e-06
0.005643
0.04729
0.04716
1.665e-06
0.04246
1.241
0.07006
0.5187
4.114
0.4622
0.04214
0.0593
0.1495
0.8848
3.604e-06
2.268e-06
1.929e-06
0.002771
0.08812
0.06511
16.85
2.04e-06
0.01135
0.03145
2.128e-06
0.008229
0.006116
0.008993
2.411e-06
8.589e-06
0.6943
0.005906
0.003334
9.178e-06
0.01031
1.022
2.89
0.04941
0.07863
3.663e-06
2.188e-06
0.3399
0.007132
1.104e-06
0.07906
0.03373
2.488e-06
0.01342
0.01342
0.09378
0.1101
0.6323
0.403
0.0001674
2.29e-06
0.03189
0.08385
1.849e-06
0.4458
0.316
3.349e-05
0.2665
0.06888
0.008759
0.03388
2.135e-06
0.2785
0.02252
0.01406
1.09e-06
0.02481
1.36e-06
0.6213
2.159e-06
1.912e-06
0.007158
0.01127
1.169
2.817e-05
2.967e-06
0.01078
28.4
0.05187
0.007891
2.707e-06
0.01068
0.31
0.04304
0.0231
28.19
1.025
0.4546
1.239
0.01177
0.007574
0.223
0.01996
0.009207
22.28
0.0213
0.03607
0.0002048
2.039e-06
0.04403
1.71e-06
0.007833
0.01257
0.1058
1.828e-06
1.956e-06
0.01224
2.208e-06
0.01837
0.1879
0.06082
0.04922
1.288e-06
2.202e-06
0.2269
0.03304
0.04222
0.1066
1.992e-06
1.67e-06
0.01478
3.36e-06
0.01928
2.142e-06
0.1815
2.124e-06
0.578
0.01345
2.008e-06
2.121e-06
0.5412
0.001186
0.1557
0.01783
1.577e-06
0.05442
0.01228
0.08925
0.1095
0.07097
28.03
0.01883
2.105e-06
1.8e-06
0.6404
0.03224
0.01696
0.008806
1.27e-06
0.07086
0.08377
0.03477
0.01426
0.01749
0.3738
0.4305
0.5623
0.01523
0.01458
0.02619
0.06466
0.00057
4.123
2.138e-06
0.1654
2.455e-06
0.3113
0.2855
2.338e-06
1.422e-06
0.4723
1.771
1.914e-06
0.006802
2.367
0.02034
0.01678
1.34e-06
0.0001987
0.4951
0.6477
1.286
0.01741
0.02759
0.04674
1.14
2.982e-06
0.03059
0.006928
0.2271
0.03732
2.46e-06
0.03148
1.501e-06
0.002163
1.411e-06
0.04048
0.04311
0.03372
0.005438
2.74e-06
2.098e-06
0.01705
0.5342
0.9104
0.02516
2.114e-06
2.112e-06
0.0617
0.04697
2.146e-06
0.5664
0.6064
0.5725
1.387
0.5915
2.102e-06
0.02323
0.03009
0.3865
0.1149
0.09507
0.009647
0.4405
0.01871
0.009211
0.06889
1.109
0.06594
0.04306
0.07904
0.5736
0.01345
0.08558
3.841e-06
3.61e-06
0.02071
1.895e-06
0.02252
0.04184
0.001672
0.04546
0.6971
3.718e-06
0.0005649
0.02053
0.01032
0.0457
1.955e-06
0.02024
0.009357
0.04846
0.109
5.474
0.007593
0.4657
0.7871
0.01855
0.7221
1.891e-06
0.01345
0.04555
0.08514
0.00259
0.00219
0.06386
1.833e-06
0.04103
0.02103
0.3781
0.01967
1.506e-05
0.04062
33.01
0.01635
3.392e-06
0.0002607
0.01192
2.276e-06
0.4576
0.006182
0.04473
0.07428
2.082e-06
0.16
0.1018
0.1924
22.66
1.172
0.161
2.127e-06
0.1643
0.08779
0.03285
2.214e-06
0.0102
0.01615
1.326
0.02692
1.547e-06
0.0122
0.01636
3.873e-06
0.2055
13.85
0.08404
3.746e-06
0.0001061
0.8304
0.1284
0.002921
0.3512
0.1645
0.1752
0.0007177
0.01051
0.02102
0.01542
0.674
0.2233
0.01277
2.262e-06
0.01311
0.09606
0.06338
0.394
0.0205
3.797e-06
0.01316
0.04962
1.236
0.0323
0.04314
0.1054
0.03646
0.01135
0.02316
0.01986
0.004511
0.0379
0.1918
1.701e-06
1.271
0.09719
0.6793
0.04121
0.1194
0.2114
0.3479
2.134e-06
3.125
0.1365
16.36
0.07679
1.156
0.05907
0.0001184
0.6222
0.01538
0.05994
0.06718
2.87e-06
0.009092
0.07716
2.136
0.02195
0.09936
0.08993
1.783e-06
0.4909
0.01119
5.289e-05
0.005969
0.6002
0.2414
6.68
0.002804
2.643e-06
0.0153
0.004545
0.6028
0.1925
0.04485
0.1252
0.6852
6.905
0.001144
0.03127
2.134e-06
0.006333
0.04398
0.01786
1.944e-06
0.0004807
0.1325
2.704e-06
7.171e-06
4.192
0.4858
0.07077
0.4492
0.00104
0.01088
1.346e-06
2.162e-06
0.4797
0.7385
6.411
4.344
0.05656
4.41e-05
2.832e-06
0.01309
0.001944
2.065e-06
0.004283
0.09002
1.87e-06
0.004263
2.134e-06
0.1919
0.3323
2.188e-06
1.668e-06
0.02247
0.1853
0.1146
2.126e-06
0.5761
0.08937
2.646e-06
1.481e-06
0.006428
0.05634
1.229
0.00777
0.09685
0.7057
0.09843
0.005075
0.02621
2.43e-06
2.836
0.02828
1.807e-06
1.796e-06
2.148e-06
2.146e-06
0.09285
1.739e-06
2.136e-06
0.01563
0.09521
0.1539
0.4368
5.728e-05
0.01392
1.248e-05
0.001531
0.01358
0.001749
0.02475
0.03968
4.193
0.05012
0.101
2.138e-06
1.576e-06
0.1328
0.4049
0.1018
0.1231
0.5491
0.005253
0.002413
28.4
0.0001264
3.001e-06
0.01806
0.2336
6.359
2.159e-06
0.09011
0.01845
0.1747
0.6806
1.277
0.2754
2.134e-06
0.04269
0.08443
0.03614
0.3572
0.007353
0.04656
0.06648
0.003214
0.09567
0.9526
0.02361
3.748
0.0775
3.726e-05
0.0001537
0.0285
0.0254
0.1167
0.01428
0.03902
0.6575
3.112e-06
0.08703
0.2816
2.125e-06
2.638e-06
0.07768
2.113e-06
3.784e-06
0.05737
1.191
1.356
0.3138
0.094
0.1187
0.01211
0.01336
0.1651
0.03351
2.138e-06
0.008597
0.01704
0.01187
0.0002633
0.02916
0.0462
2.134e-06
1.467e-06
0.008419
0.01291
0.001417
2.571e-06
0.1596
0.1519
0.1587
0.05748
8.578
2.055e-06
0.03471
0.1403
1.672e-06
0.03721
0.3068
0.01677
1.554e-06
0.04261
2.175
0.09868
0.3623
4.563e-05
0.0726
2.483e-06
0.06987
0.04665
0.1039
0.01082
0.01
0.109
0.00452
0.1168
0.05583
0.4644
0.0006369
0.007048
0.1899
0.4897
0.01292
0.01372
0.9948
0.02071
0.0233
0.1549
3.496e-05
0.03862
0.06373
0.01458
0.3376
0.007505
0.1452
3.359e-05
1.789e-06
0.01056
0.1079
0.1791
1.932e-06
0.1814
0.02782
0.1747