/*--------------------------------*- C++ -*----------------------------------*\
| =========                 |                                                 |
| \\      /  F ield         | OpenFOAM: The Open Source CFD Toolbox           |
|  \\    /   O peration     | Version:  v2012                                 |
|   \\  /    A nd           | Website:  www.openfoam.com                      |
|    \\/     M anipulation  |                                                 |
\*---------------------------------------------------------------------------*/
FoamFile
{
    version     2.0;
    format      ascii;
    class       volScalarField;
    location    "5";
    object      nut;
}
// * * * * * * * * * * * * * * * * * * * * * * * * * * * * * * * * * * * * * //

dimensions      [0 2 -1 0 0 0 0];


internalField   nonuniform List<scalar> 
100503
(
2.054e-07
9.662e-08
2.351e-07
3.814e-07
1.075e-07
2.583e-07
4.302e-07
2.186e-06
1.849e-06
2.703e-07
3.713e-06
1.807e-06
7.936e-06
7.613e-06
2.485e-06
1.767e-05
1.924e-05
3.653e-06
7.578e-07
9.076e-06
1.116e-05
1.08e-05
2.774e-07
2.914e-06
2.575e-07
1.381e-05
1.589e-05
0.003423
0.001591
1.191e-05
1.653e-07
0.001051
0.001129
0.0001695
0.002484
0.01058
0.0001739
0.01162
0.4111
0.001768
0.0006235
0.4361
4.465e-07
0.006762
0.002741
0.005802
0.1361
0.00258
0.00174
0.003477
0.000513
0.0005427
0.03972
0.001858
0.007027
0.001373
0.004962
0.006385
0.001541
0.000209
0.4741
0.009526
4.13e-05
0.0001494
1.184e-05
0.006263
0.5438
0.01221
9.732e-06
0.001012
0.005311
0.009253
0.00201
0.003586
0.01558
0.0007621
0.0005578
0.3091
0.3084
0.0001598
0.003574
0.0002023
0.01814
0.4466
0.001844
0.4109
0.003438
0.0003885
0.0001579
0.000224
0.01438
0.008269
0.00556
0.4219
0.5701
0.0004993
0.001225
0.005108
0.3174
0.3168
0.007286
1.129e-05
0.001995
0.001009
0.04081
0.5714
0.001628
5.295e-05
0.04325
0.0006397
0.0001585
0.002588
0.00164
0.005501
0.002819
3.682e-05
0.006228
0.003203
0.003012
0.1504
0.006003
0.009672
4.044e-05
0.001741
0.00205
0.0001891
0.01574
0.02877
0.0006009
0.0002447
0.00307
0.02335
0.5395
0.2572
0.002308
0.008025
0.0008445
0.008754
0.0006157
0.01166
0.4598
0.04195
0.00183
0.02525
0.0005108
0.0004382
0.05235
0.002882
0.000471
0.5687
0.0005675
0.004982
0.545
0.295
0.000713
6.59e-07
0.2234
0.005498
0.1466
0.0002894
0.0002824
0.0001411
7.57e-05
0.009336
0.3378
0.01063
0.001925
0.541
0.4334
0.01231
0.005589
0.001747
0.006627
0.0007384
0.5748
9.019e-06
0.001829
0.3002
0.02588
0.2292
0.003238
0.0008797
0.006064
0.001644
0.02612
0.002901
0.5358
3.718e-05
0.0008319
5.569e-05
0.04912
0.00183
0.01804
0.5701
0.0004035
0.0187
0.2635
0.00082
0.1218
0.0004512
0.0003194
0.0001449
0.0001494
0.01114
0.003663
0.0005236
0.00486
0.0004962
0.002929
0.0007518
0.001046
0.0004885
7.104e-06
0.006451
0.0009046
0.0135
0.006784
0.5716
0.0008013
0.0003975
0.000616
0.01213
0.4098
0.0001466
8.465e-06
0.0001041
0.0005716
1.282e-06
0.00517
0.6271
0.00188
0.0006757
0.0001411
0.008192
0.01733
0.002116
0.01359
0.4787
0.0001219
0.0003694
5.241e-05
0.0004406
0.0005787
0.0295
0.1105
0.2973
0.001312
0.5666
0.0004687
0.004559
0.5727
7.803e-07
0.5791
0.03531
0.5714
0.003208
0.004558
0.003072
0.002958
0.01024
5.071e-05
7.864e-05
0.2965
0.004413
0.0003565
0.0008459
0.000958
0.02461
0.331
0.06019
0.0007692
0.03956
0.0007337
0.007965
0.001436
0.0005609
0.002808
0.4062
0.001425
0.0006326
0.00105
0.0009746
0.398
0.01223
0.002442
0.52
0.001312
0.4176
0.547
0.000473
0.007753
0.1413
0.4448
0.005557
0.0004651
9.567e-06
0.07635
0.4129
0.0004929
0.002639
0.001539
0.0001568
0.5947
0.03358
0.003462
0.003363
0.00204
0.001202
0.6299
0.4212
0.00317
0.0006921
1.277e-05
0.002431
0.1284
0.001931
0.00952
0.2316
0.4167
0.007622
0.235
0.001968
0.001173
0.01495
7.001e-05
0.5725
0.0006557
0.002097
0.03087
0.0002148
0.008526
0.004412
0.002064
0.3022
0.0002255
0.06422
0.08596
0.5685
0.6225
0.02029
0.3587
0.5334
0.0005089
0.02609
0.00364
0.3796
0.005032
0.009777
6.781e-06
0.0008284
0.002046
0.0122
0.003665
0.000331
0.0007937
0.2988
0.2996
0.5727
0.0005318
0.001664
0.275
0.0006082
0.01303
0.0004521
0.01176
0.1761
0.0003891
0.0007809
0.1842
0.5946
0.0009919
0.01507
0.003589
0.5684
0.005019
0.0001148
0.005854
0.5736
0.03009
0.000748
0.2137
0.001893
0.1131
0.02255
0.0008757
0.5393
0.004874
0.02649
0.003821
0.001454
0.5796
0.001277
0.0003859
0.000975
0.005675
0.009091
0.004012
0.5367
0.0001217
0.0501
0.009078
1.533e-05
0.0002984
0.003372
0.003338
0.0002502
0.444
0.026
4.435e-05
0.1754
2.199e-05
3.58e-06
0.09027
0.02444
0.004461
0.5249
1.428e-05
0.0005211
0.3104
0.002194
0.6629
0.0005869
0.0357
0.01041
0.0005524
0.09429
0.02162
0.09477
0.0008416
0.0137
0.0006199
0.01916
0.0007902
0.5649
0.0002309
0.6679
0.001739
0.005528
0.5905
1.344e-06
0.06049
0.01701
0.001226
1.335e-05
0.009187
6.798e-06
0.001875
0.0009014
0.5478
0.0001645
3.546e-05
5.621e-05
0.0252
0.5957
4.116e-05
0.003081
0.5165
0.003917
0.002619
0.001175
0.0009802
0.5962
0.0001626
0.000236
0.3997
0.0002374
0.001255
0.001988
0.004185
0.006592
0.004655
0.004602
0.003471
0.04593
0.3922
0.0002949
0.01046
0.006926
0.0002329
0.003407
0.06515
0.002615
0.00531
0.03076
0.4206
0.0159
0.2256
0.5612
0.5728
0.00307
0.0008435
0.01543
0.575
0.1863
0.01398
0.009953
0.05995
0.0009587
0.02731
0.4689
0.03667
0.4138
0.02071
0.0005283
0.006276
0.09215
0.05958
0.001012
0.596
0.002433
0.3591
0.004082
0.001197
0.0005591
0.41
0.5714
0.001801
0.0004473
6.589e-05
0.04493
0.05171
0.003915
0.001357
0.01054
0.4919
0.03398
0.01062
0.2518
0.0523
0.005914
8.09e-05
0.001784
0.002279
0.4892
0.07477
0.004283
0.00391
0.5887
0.0008876
0.04648
0.0001087
0.002514
0.006807
0.0198
0.01655
0.00206
0.3935
0.002871
0.0005663
0.004547
0.0001
0.000642
0.5454
9.501e-05
0.002124
0.005106
0.001463
0.0002097
0.0005637
0.03776
0.02697
0.0004184
0.009111
0.0007527
0.003317
0.002973
0.0008006
0.001185
0.573
0.4221
0.4217
0.001777
0.0005699
0.5581
0.0002098
0.003762
0.573
0.00334
0.001311
0.533
0.006585
0.3215
0.1702
0.01392
0.3896
0.002803
0.0001462
0.04814
0.2428
0.001078
0.001275
0.01029
0.00126
6.343e-05
7.49e-06
0.0009069
0.008567
0.01228
0.5022
0.002096
0.5511
0.004873
4.636e-05
0.02216
0.004408
0.001518
0.0009053
0.5283
0.5375
0.001785
0.01431
0.4847
0.001946
0.1
0.007007
0.1571
0.001004
0.001135
0.0003159
0.4957
0.0006968
0.003191
0.01971
0.02923
0.3055
0.0005234
0.0009368
0.007046
0.02273
0.005017
0.0003407
0.5226
0.002479
0.0008972
0.001813
0.5665
0.001173
0.5584
0.002529
0.003217
0.5643
0.002269
0.006816
0.005454
0.00578
0.0004324
0.01353
0.003485
0.08483
0.005207
0.00334
0.01024
0.5279
0.05454
0.01151
0.5488
0.0006848
0.5651
0.07142
0.001482
0.5647
0.3392
0.0161
0.003779
0.5578
0.5969
0.0008797
0.1298
0.05161
0.0002922
0.001831
0.001097
0.1935
0.004384
0.3233
5.41e-05
0.001621
0.06985
0.0008084
0.2166
0.3508
0.002129
0.01022
0.001375
0.005934
0.0003945
7.874e-05
0.003513
0.0002862
0.003434
0.5984
0.005913
0.002788
0.0001656
0.004166
0.001606
0.0001491
0.275
0.5663
0.01387
0.005647
0.0001095
0.1987
0.001834
0.005892
0.002795
0.001176
0.5673
0.002082
0.0009291
0.01468
0.01196
0.003857
0.4296
0.0007075
0.001052
0.002402
0.6278
0.003661
0.5296
0.0005216
0.01417
0.6255
0.3873
0.3406
0.0003182
0.0003722
0.0009423
0.08123
0.006805
0.000498
0.001851
4.793e-05
0.001043
0.4502
0.5453
0.5349
6.575e-06
0.4239
0.009207
0.0594
0.01129
0.0004875
0.003636
1.634e-05
0.0002248
0.006677
1.186e-05
0.0001795
0.3905
9.234e-05
0.0008335
0.4351
0.0004785
0.01231
0.0001701
0.002975
0.5237
0.001863
0.01028
0.005835
0.004775
0.006289
2.173e-05
0.0001458
0.0646
0.007093
0.02068
0.0004008
0.001183
0.0003995
0.006942
0.0006496
0.04474
0.005639
0.4247
0.5743
0.3593
0.001893
0.0001143
0.03267
0.04576
0.02919
0.009167
0.01421
0.001182
1.222e-05
0.001592
0.3627
0.6162
0.0001712
1.209e-05
0.4793
0.01278
0.0009631
0.4796
0.001708
4.529e-06
1.751e-05
0.3981
6.897e-05
1.189e-05
0.002752
0.0192
0.0001629
0.0005302
8.798e-05
0.4601
0.00194
0.02407
0.5663
0.0002078
0.5753
0.6297
0.00504
0.004091
0.03961
0.007856
0.1245
0.3829
0.002163
0.001771
0.2283
0.009108
0.02195
0.4237
1.723e-05
0.002325
9.504e-05
0.1142
0.6319
1.37e-06
0.5868
0.001662
0.0004565
0.06639
0.02901
0.0005493
0.007705
0.0007851
1.035e-05
0.0009356
0.004846
0.001702
7.834e-06
0.02543
0.0001071
0.5837
0.02658
0.001591
0.003448
0.1422
0.009391
0.5605
0.0001461
0.000228
0.0009009
0.005247
0.4063
0.02394
0.001149
0.02143
4.199e-06
0.01425
0.000257
0.0002105
0.01859
0.4691
0.007171
0.0008274
0.4124
0.4118
0.01033
0.004471
0.01189
0.003626
0.0009339
0.02629
0.4097
0.5655
0.001327
0.003451
0.000222
0.1473
0.03197
0.4223
0.4276
0.572
0.0001388
0.0004061
0.001951
1.116e-05
0.02432
0.0009464
0.5772
0.0001167
0.003523
0.08389
0.000229
0.5629
0.0007689
0.5758
2.433e-05
0.3684
0.2851
1.217e-05
6.01e-06
1.94e-05
0.002598
0.001186
0.0007856
0.0003746
0.009555
0.01625
0.158
0.2267
0.0005352
0.0007725
0.008312
1.589e-05
0.01444
0.0002103
0.0001509
0.3134
0.1038
0.0008058
0.6065
0.0007237
1.591e-05
0.004906
0.002471
0.001325
0.5184
7.849e-05
0.01337
0.001142
0.5124
0.008396
0.02109
0.0004625
0.0001167
0.005401
0.005158
0.0001005
0.005612
1.657e-05
0.009631
0.0824
6.025e-05
0.5696
0.5678
0.4527
0.01555
0.0004471
0.004778
0.01128
0.01451
0.003645
0.03282
0.001992
0.0007003
0.1136
0.0001511
0.0003805
0.002289
7.33e-06
1.621e-05
0.4105
0.02236
0.5716
0.0008011
0.003495
0.006526
0.0009271
0.007837
0.0007434
0.08117
0.003841
0.01691
0.000363
0.5825
0.003975
0.004613
0.0002713
0.002716
0.0002369
0.004865
0.004037
0.02497
0.596
0.0001986
0.00149
0.368
0.00203
0.003127
0.002604
0.3307
0.3321
0.5594
0.0002196
0.0002886
0.01758
0.0001504
0.01272
0.01998
0.008575
0.05502
0.000137
0.006543
0.0004074
0.0004592
0.5209
0.0007663
0.01169
8.001e-05
0.55
0.0137
0.003747
0.001734
9.479e-06
0.5742
0.5711
0.002287
0.162
0.003029
0.0006141
0.007199
0.03596
0.01598
0.0006852
0.5919
0.002076
7.204e-05
0.284
0.4504
0.001133
0.07568
0.0008357
0.0003615
0.006238
1.085e-05
0.002824
0.002892
0.1593
0.0003587
0.0007085
0.008604
0.001554
0.001236
0.006897
0.00197
0.002349
0.6232
0.4284
0.478
0.001694
0.0004482
0.0001655
0.08578
0.04131
0.5907
0.001386
0.09615
0.008359
0.001806
0.001676
0.449
0.0735
0.07857
0.1652
0.00193
0.05986
0.0006843
0.003911
0.09002
0.0008541
0.01443
0.001714
0.0008434
0.5702
0.005001
0.006944
1.556e-05
0.0007774
0.05277
0.009223
0.004035
0.0004343
0.02462
0.01477
0.6217
0.06173
0.0007351
0.002291
0.6333
0.0347
0.0008121
0.0005445
0.01
0.001941
0.1231
0.0009755
0.04319
0.02072
0.0009464
0.002339
0.0002255
0.06451
0.3365
0.0001421
0.5731
0.4479
5.923e-06
0.01503
2.457e-05
0.2044
0.003938
0.02225
0.468
0.002428
0.01146
0.5048
0.2624
7.841e-05
1.187e-05
0.0004536
0.01166
0.0005273
0.3859
7.055e-05
0.04285
0.003876
0.003114
0.01177
0.5806
0.0007669
0.1878
5.066e-06
0.1318
0.0003798
0.0001874
0.01521
0.564
0.3821
0.0005768
0.02441
0.0001953
0.0004369
0.2405
0.0005443
0.3696
0.007253
0.5752
0.04782
0.00116
1.366e-05
0.555
0.008577
6.378e-05
0.07297
0.01135
0.4305
0.5822
0.3222
0.008095
0.002432
0.00346
0.003486
0.1229
0.0001138
0.5963
0.0004322
0.01665
0.0002992
0.009209
0.002577
0.3899
0.236
0.0009903
0.01556
0.0005306
0.0001235
0.6034
7.731e-05
0.003372
0.002694
0.001054
0.3678
0.000451
0.05363
0.566
0.0004779
0.1187
0.421
0.0003916
0.000641
0.217
0.6045
0.02736
0.01189
0.009795
0.0007888
0.3825
2.773e-06
0.0008575
0.00303
0.002015
0.04393
0.001392
0.004141
0.0001309
0.07961
0.03793
0.002911
0.001355
0.002648
0.5532
0.007227
0.0006125
0.00301
0.00934
0.04137
0.05352
0.00957
0.04643
0.01976
0.0002662
0.007235
0.4319
0.6218
0.01956
0.01209
0.5758
1.385e-05
0.03722
0.07009
3.084e-05
0.007879
0.01043
0.05203
0.1178
0.0004913
1.186e-05
0.5818
0.001038
9.77e-05
0.0002376
0.3971
0.02487
0.01062
0.5576
0.000334
0.5373
0.0007096
0.003151
0.002968
0.3765
0.0001854
0.002348
0.5875
0.4206
0.3646
0.4911
0.006353
2.488e-06
7.265e-06
2.248e-05
0.001051
6.908e-05
0.00822
0.005338
0.001709
0.0004885
0.001222
1.143e-05
0.0007977
0.01824
0.003307
0.006189
0.5423
0.6104
0.003114
0.000568
0.0003244
0.0002055
0.004389
0.002238
0.5252
0.105
0.001867
0.00035
0.004801
0.003268
0.01726
0.0009142
0.004768
0.3714
1.565e-05
0.01325
0.003066
0.3179
1.131e-05
0.0003162
0.5939
0.0001288
2.186e-05
0.00286
0.0002255
0.0006952
0.5348
0.0007013
0.007403
0.0008125
0.0006822
0.001246
0.000408
0.0005739
0.432
0.01202
0.0004253
0.3518
0.009435
0.002768
0.4533
0.001714
0.3104
0.03314
0.00154
0.07616
0.002338
0.5867
0.4064
0.4066
0.0002465
0.02489
0.004238
0.005209
0.001599
1.885e-06
0.0002694
0.0002294
0.06678
0.0002448
0.002924
0.009676
0.5866
0.001322
0.001232
0.02909
9.945e-06
0.4002
0.1022
0.0007552
0.001783
0.0004772
7.571e-06
0.02697
0.5457
0.007205
0.4193
1.442e-05
0.0001147
0.229
0.003168
0.003203
0.003112
0.02709
0.0003874
0.0004314
0.002125
0.003138
0.01023
0.0006691
0.001932
8.211e-05
0.001596
0.002764
0.00846
0.0381
0.001225
0.002817
0.001393
0.0003911
0.001638
0.5255
0.002207
0.01689
0.0002209
0.0801
0.01173
0.005032
0.0002014
0.5944
0.6195
0.0004746
5.059e-05
0.4106
0.006535
0.00316
2.037e-05
0.007858
0.0009366
0.001181
0.008134
0.001419
0.01151
0.002195
0.0004863
0.005046
0.0007332
0.003264
0.006974
0.000325
1.94e-05
0.0001025
0.5765
0.001997
0.002338
0.003245
0.002384
0.3727
0.005629
0.0008917
0.0008418
0.003851
0.006073
0.008398
1.589e-05
0.002347
0.02904
0.002747
0.0005597
0.5514
0.02439
0.007519
0.000802
0.0252
0.5091
0.4776
0.05726
0.0001247
0.3132
0.003185
0.01016
0.008542
0.0004812
0.002163
0.0001941
0.0002073
0.006619
0.004809
6.513e-05
0.001245
0.001177
0.0003336
0.4648
0.5825
0.004481
0.09743
0.0007487
0.0001379
0.0006696
0.0002098
0.001013
0.3799
0.004842
0.1679
2.325e-05
0.01418
0.0008067
0.4418
0.004655
0.0874
0.001217
0.000827
0.09593
0.008061
0.01349
0.001824
2.974e-05
0.1903
0.5692
0.0003902
0.002633
1.025e-05
0.1558
0.000347
0.01687
0.5318
0.001216
0.01152
0.3383
0.003167
0.0006838
0.005662
0.001436
0.4352
0.01237
0.5803
0.01875
0.02724
0.006497
0.001167
0.0002333
0.5706
0.002003
0.0002446
0.0002313
0.00309
0.0006258
0.0004932
1.491e-05
1.746e-05
0.0001091
0.3391
0.0009529
0.02947
9.593e-05
0.003783
0.2303
0.1757
0.001998
2.466e-05
0.5347
0.04352
0.002643
0.6351
0.004994
0.0009407
0.0006455
0.002464
0.01202
0.002206
0.001153
0.01688
0.0008444
0.002989
0.01718
0.0002294
0.5585
0.6265
0.009461
0.005449
0.002281
0.5793
0.2867
0.04607
0.5666
0.0001478
0.3219
0.01144
0.02295
0.002751
8.926e-06
0.4009
0.3814
0.03291
0.001902
0.001895
3.665e-06
0.01154
0.001439
0.04338
0.01972
0.04688
0.002132
0.001826
0.002419
0.0002116
0.0175
0.00218
0.0005509
0.0008928
0.03145
0.001557
0.03458
0.001349
0.005133
2.245e-05
0.001942
0.004962
0.02323
0.0005896
0.000482
0.001115
0.01293
0.007742
9.764e-06
0.005028
0.002071
0.002915
0.001186
0.01763
0.01491
0.003956
8.508e-05
0.01957
0.0005549
0.2208
0.5606
0.0009727
0.0001481
0.0006672
0.4463
0.0009234
0.03204
0.5896
0.01334
0.005514
0.0008496
0.003662
0.001424
0.002334
0.00151
0.5026
0.163
0.00529
0.02125
0.01195
0.2521
0.000103
0.005199
0.0007289
0.5603
0.5571
0.5894
0.002728
0.0001436
0.05451
0.002293
0.003641
0.4245
0.01829
0.1303
0.3315
0.5582
0.5708
0.5703
0.008204
0.0004043
0.0009872
0.06531
0.0009608
0.005978
0.01806
7.409e-05
0.0001397
0.01089
0.0008515
0.005378
0.0002601
0.06319
0.000511
0.2685
0.05127
0.002
0.0003945
0.003638
0.002236
0.0005303
0.5531
0.001435
0.0001752
0.0004202
0.001074
0.5825
0.01661
0.003421
0.00174
0.0007645
0.0001211
0.001437
0.1534
0.5763
0.003627
0.003283
0.004153
0.02869
0.003337
0.1537
0.1943
3.042e-05
0.001048
0.002101
0.0005376
0.01051
0.02834
0.4812
0.0001078
0.0006424
1.135e-05
0.5688
0.02615
0.1384
0.5727
0.3829
0.0002973
0.4222
0.001949
0.001119
0.0002023
0.0005779
0.00908
0.001047
0.0001246
0.0002989
2.451e-06
0.02661
0.00516
0.001151
0.0003496
0.01561
1.783e-05
1.838e-05
0.06106
0.5753
0.02689
0.000336
0.01957
0.02212
0.00135
0.008219
0.0007197
0.006532
0.000105
0.5909
0.002058
0.0001428
0.004525
0.006817
0.0007365
0.01425
0.04206
0.001494
0.0001519
1.368e-06
0.0002532
0.001554
1.399e-05
0.0004288
1.483e-05
0.004675
0.3837
0.0004459
0.0007303
1.573e-05
0.001709
0.0001769
0.0001344
0.002103
0.04408
3.978e-06
0.005445
0.3775
0.01327
0.6251
0.1222
0.005673
0.5289
0.009969
0.5798
0.005162
0.0008015
0.0007266
0.006943
0.564
0.003421
0.006486
4.147e-06
0.001912
0.01582
0.0003056
0.5787
0.01334
0.4109
0.02024
0.02836
0.0007923
0.003991
0.4085
0.004237
0.004899
0.02779
0.00316
0.005507
0.03686
0.0007373
0.005356
0.005521
0.002904
0.0008905
0.005441
1.009e-05
0.01384
0.1485
0.4059
2.245e-05
0.002796
0.5682
0.0008067
0.0009328
0.001992
0.01908
0.0412
7.061e-05
0.5943
2.647e-05
0.001566
1.197e-05
0.00107
0.332
0.001228
0.007134
0.001273
0.5856
3.751e-06
0.5103
0.01674
0.01032
0.6115
0.003194
3.82e-06
0.01318
0.0001872
0.4524
0.002474
0.009807
2.526e-05
0.02068
0.3426
0.003026
0.3406
0.3103
1.261e-05
0.2415
1.793e-05
0.0005567
0.009591
0.001489
0.5726
0.4142
7.359e-05
1.88e-05
9.091e-05
0.0001896
4.003e-06
0.5717
0.000604
0.5869
0.009143
0.02837
1.512e-06
0.5897
0.008433
0.0005552
0.5154
0.5719
0.6186
0.5038
0.5535
0.003292
0.5894
0.07065
0.006984
0.01403
0.01204
0.009988
0.0002998
0.002144
0.0002226
0.4054
0.0006402
0.007477
0.5927
3.841e-05
0.6377
0.0007099
0.000178
0.004501
0.36
0.3601
0.5718
0.0001784
0.0003045
0.4432
0.004497
0.005592
0.009439
2.012e-05
0.0003454
0.01892
0.3136
0.001891
0.001524
0.002692
0.008183
0.3776
0.0009049
0.07137
0.02662
0.1043
0.0005275
0.001139
0.6625
0.04895
0.009936
0.004759
0.01355
0.0002314
0.4468
0.009249
0.006835
1.344e-05
0.002903
0.5712
0.001297
0.0004449
0.4508
0.0001628
0.07026
0.0003323
0.007122
0.01717
0.001144
0.002631
0.001014
0.4043
0.0007312
0.0009291
0.5303
0.06779
1.604e-06
0.005008
0.001717
0.02381
0.006066
1.386e-05
0.5398
0.002554
0.004012
0.000427
0.5631
0.4682
0.007274
0.006161
0.0006786
0.1281
0.001246
0.01054
0.003275
0.006355
0.004741
0.4256
6.633e-05
0.6494
0.003719
0.6375
8.727e-05
0.04557
0.0004595
0.5714
0.1344
4.466e-05
0.0007991
0.001319
0.002694
0.0009869
0.0006886
0.004868
0.002505
0.5734
0.01648
0.3871
0.3262
0.0003878
0.02308
0.004459
0.003903
0.3974
0.0001775
0.0002022
0.005808
0.00356
0.4164
0.0008001
0.0472
0.007979
0.001357
0.0004743
0.0007411
0.0001882
1.097e-05
2.147e-05
0.0004694
0.0006853
0.006198
0.02254
0.00355
0.0004862
0.3663
4.445e-05
0.000356
0.0003735
0.004262
0.02786
0.005989
0.05685
0.01383
0.4991
0.3827
0.02177
0.1372
0.4106
0.4178
0.004502
0.0005378
0.3885
0.5396
0.04878
0.5719
0.006512
0.0104
0.0005034
0.002115
5.495e-07
0.002694
0.02485
0.0002943
0.01456
0.006579
0.5841
0.0004224
0.1064
0.0004306
0.0005397
0.001348
0.5837
0.006632
0.0005461
0.0002127
0.03756
0.003223
0.001015
0.005165
0.00142
0.5496
0.0005911
0.4602
0.002067
0.007458
0.06128
0.04094
0.003714
0.6172
0.07042
0.02891
0.001766
0.01129
0.0005163
0.0005104
4.245e-06
0.4712
0.2153
1.353e-05
0.3969
0.6008
0.03884
0.008058
0.003118
1.786e-05
1.52e-05
0.5815
0.584
0.004309
0.002338
7.799e-05
0.5752
8.445e-05
0.4022
0.06388
1.741e-05
0.001207
0.3044
0.01545
0.001385
0.4992
8.912e-06
2.838e-05
0.5717
0.0009628
0.001507
0.007803
0.01652
9.303e-06
0.0005539
0.0001711
0.000654
0.586
0.006201
0.001468
0.009799
0.00791
0.006561
9.8e-06
0.04547
0.000647
0.5167
0.02175
0.04285
0.009618
0.005522
0.005024
1.277e-05
0.3424
0.001646
0.283
0.553
0.5785
0.0005802
1.495e-05
2.626e-05
0.006214
0.1942
0.001302
0.01084
0.02533
9.081e-06
0.0001418
6.696e-06
0.3689
0.0063
0.002564
0.0003953
0.0246
0.006364
0.4481
0.0003253
0.0006215
4.052e-05
0.0008325
6.829e-05
0.0276
0.008331
0.0002468
0.1093
0.01053
0.5615
0.01001
0.02495
0.005223
0.0001158
0.0001873
0.0001398
0.0001541
0.00118
1.218e-05
0.002089
0.000817
0.01364
0.005871
0.007295
0.04829
0.00027
0.01041
0.365
0.007917
0.1971
0.001335
0.08605
0.06446
0.0006793
0.002296
0.004525
0.001345
0.001109
0.00202
0.5681
0.003422
0.5668
0.0002412
0.001784
3.205e-05
0.00124
6.074e-05
0.0001714
6.499e-06
0.005402
0.01139
0.4174
1.719e-05
0.00141
0.004815
0.01098
0.003397
0.0152
0.00325
1.523e-05
0.015
0.0001997
0.5645
0.5728
0.1913
0.001696
0.3369
0.4813
0.003258
0.003872
0.09237
0.0003601
3.776e-06
0.0001095
0.5974
0.00802
0.01061
0.003041
0.008896
0.0007804
9.417e-05
0.4374
4.824e-05
0.008284
0.2362
0.000348
0.4002
0.58
0.0007014
0.001422
0.003271
0.0009093
0.5103
0.002368
0.01973
0.005359
0.6073
6.469e-05
0.0002407
0.6366
0.02435
0.411
0.509
0.01465
0.002237
0.3966
0.3214
0.3192
0.6239
0.02527
0.00079
0.0007119
0.002109
0.01063
0.001057
6.533e-05
0.5132
0.0117
0.001109
0.004186
0.5663
0.0006712
2.837e-05
0.003791
0.4157
0.01338
8.715e-05
0.0002179
0.003815
0.008558
0.007288
0.01393
0.00976
0.002686
0.5262
0.008923
0.5717
0.000608
0.002329
0.02917
0.007898
2.395e-07
9.865e-06
0.317
0.5803
0.003223
0.0001169
0.5013
0.001983
0.2446
0.4167
0.238
0.001666
0.002393
0.1385
0.006175
0.1016
1.41e-05
0.6345
0.002193
0.5842
0.05225
0.004389
0.2856
6.358e-05
0.0002371
0.006596
0.0001021
0.003963
1.85e-05
0.01118
0.0002821
0.01344
0.0002524
0.002148
0.001596
0.0004854
0.004948
0.0003857
0.08687
0.5671
0.3407
2.914e-07
0.5315
0.0653
0.0003751
8.187e-06
0.002338
0.002186
0.02056
0.03667
0.5664
0.0001655
9.727e-05
0.01295
0.004725
0.6327
0.01217
0.002079
0.00674
0.0004587
0.002286
0.001419
7.285e-06
0.001527
0.05138
1.442e-05
0.001086
0.006081
7.368e-06
9.518e-06
0.02498
0.0001088
0.3873
0.001045
0.4119
0.4119
0.0005066
0.002419
1.196e-05
0.05898
0.0002188
0.00222
0.005616
0.0007367
0.003809
0.0006371
0.009805
0.0003721
0.002359
0.123
0.002446
0.1909
0.002706
0.4805
7.957e-06
0.01975
0.00012
0.003355
0.001305
0.163
0.5867
0.0007132
0.00162
0.0009562
0.001627
0.002291
0.4178
0.02431
1.63e-05
0.05986
0.002132
0.005219
0.0001845
0.0002438
0.0004692
0.004204
0.5559
0.0006991
3.463e-05
0.04345
0.001604
4.922e-05
0.6374
0.0009301
0.04758
0.000349
0.0007324
0.3987
0.6034
0.574
8.78e-05
0.004012
0.02144
0.0001585
0.004981
0.0001642
0.3007
0.1214
0.5753
0.00193
0.3775
0.009186
8.208e-06
0.0001928
0.008977
0.1917
0.6184
3.473e-06
0.001555
0.4084
0.007652
0.003409
0.0005802
0.005734
0.001005
0.001261
0.004998
0.000463
0.002059
0.4168
0.09556
0.002227
0.0001337
0.5287
1.619e-05
0.004218
8.429e-05
0.002321
0.01462
0.1508
0.649
0.01199
0.0006367
0.001419
0.01315
8.847e-05
0.000759
0.0005487
0.516
0.0001587
1.866e-05
0.1146
0.4354
0.0001679
0.5763
0.5312
0.003827
9.963e-05
0.003586
1.399e-05
0.001885
1.946e-05
0.0002363
0.5844
0.02909
0.4843
0.006621
0.003438
2.396e-05
0.001393
0.5022
0.005768
8.517e-05
0.0004701
0.002362
1.739e-05
0.0009475
0.0003225
0.3204
0.0003672
0.2847
0.3336
0.1182
0.04094
0.001229
0.002028
5.426e-06
7.003e-06
0.0001558
0.01264
0.0007002
0.00329
0.007667
1.503e-05
0.001764
0.00303
0.008015
0.2799
0.5881
0.4119
1.316e-05
0.5737
0.0007263
0.0004905
0.003065
0.0001475
0.0001197
0.009073
0.0008229
0.000349
0.001053
0.5481
8.911e-06
0.005474
0.247
0.4627
0.08423
0.0001685
0.01425
0.006404
0.0004639
0.006956
0.01025
0.002268
0.0001448
0.0006051
0.3914
0.001422
0.2885
0.3899
0.03353
0.001508
0.006472
0.5567
0.002238
0.003242
0.0005325
0.006516
0.5776
0.5674
0.007372
0.000717
0.0008287
0.1723
0.001438
0.0002449
0.0001056
0.001402
0.3964
0.0003709
0.0004911
0.00133
0.4551
0.001281
0.002876
0.001093
0.005499
0.0007943
0.003053
0.5806
0.0001445
0.003331
0.00347
0.0001158
0.3667
0.004076
0.08834
0.5703
0.004146
0.0007502
0.00221
0.001107
0.03844
0.0001701
0.05642
0.01717
9.897e-05
0.002471
0.005307
0.005855
0.2017
0.3847
0.004329
0.005249
0.0001442
0.002392
0.003487
0.002285
4.786e-07
0.6005
0.6021
0.001954
0.002127
0.001381
1.799e-05
0.009525
0.01461
0.05107
0.027
0.0008145
0.0135
0.001279
1.329e-05
0.01365
1.526e-05
0.1929
0.5643
0.001804
0.07283
0.009987
0.003072
0.4366
0.05493
0.01415
0.0001472
0.002471
0.3951
0.5798
0.52
0.002858
0.6653
0.2206
0.3526
8.58e-06
0.006979
0.000945
0.001365
0.0005645
0.002171
0.001884
0.001338
0.001579
1.325e-05
0.006496
0.002978
0.07394
0.01286
0.5846
0.001056
0.0002247
0.003406
0.000158
0.0002317
0.004042
0.001528
0.002321
0.0008502
0.009877
0.001187
0.2967
0.6004
0.005572
0.00264
0.000234
1.746e-05
0.0003416
0.006897
0.3159
0.0003932
0.0001959
0.2953
0.003343
0.001593
0.005066
0.4151
0.6035
0.0008203
0.0001665
0.00323
0.5681
0.007205
0.6237
0.08023
1.055e-05
0.0002024
0.03214
0.002878
0.0161
0.0002958
0.01179
2.33e-05
0.001771
0.001588
0.5851
0.001349
0.4478
0.001997
0.3467
0.009752
7.73e-05
0.1135
0.573
0.002971
1.662e-05
8.722e-05
0.0614
1.41e-05
0.1191
0.005138
0.00726
0.01764
0.5731
1.566e-05
0.001468
0.016
1.421e-05
0.0001783
1.527e-05
0.5764
0.005477
6.319e-06
0.01257
0.5917
0.03507
0.5328
0.0005938
0.002307
0.0004564
0.0004253
0.00696
0.04642
0.5806
1.736e-05
0.005201
0.002274
0.5761
0.5049
1.581e-05
0.001524
0.004741
0.0002199
0.005039
0.04112
0.0003531
0.5942
0.0008199
0.002214
4.671e-06
0.0001877
0.5178
0.002007
0.623
0.5089
0.005986
0.002236
0.003277
0.002456
6.162e-05
0.002638
0.001488
1.964e-05
0.009301
0.002117
0.000534
0.003425
0.001281
0.002704
0.002896
0.03648
0.0002603
0.595
0.0004117
0.5267
1.535e-05
0.002036
0.5858
0.0002508
0.01509
0.009388
0.0002759
0.0004195
0.0194
0.0001413
0.002891
0.3006
0.01044
0.002353
0.001572
0.0007627
0.001543
0.007439
0.01723
0.0004191
0.009709
0.5692
1.281e-05
0.002719
0.001599
0.001115
0.001113
0.0469
1.949e-05
0.007548
0.0003396
1.035e-05
0.004896
0.0008543
0.0006089
0.000821
8.048e-05
0.02383
0.00118
0.4529
0.003945
0.001829
0.001129
0.08733
0.002182
1.486e-05
0.001648
0.0006094
0.000469
0.0007331
0.0041
0.008816
0.01596
2.405e-05
0.09794
0.007495
0.0006084
0.4985
0.001942
0.5258
0.0001355
0.0003286
4.182e-06
0.006571
1.629e-05
0.002622
0.001768
1.503e-05
0.01266
0.008235
0.000861
6.228e-05
0.009169
9.003e-07
0.000382
0.002438
0.005106
0.001678
0.004916
0.002291
0.002492
8.542e-06
1.353e-05
0.5097
0.006389
0.1372
0.0005011
0.0005903
0.5645
0.0007547
0.002052
0.4078
0.08075
0.5688
0.001765
0.5774
0.0214
0.0006977
0.000653
0.007023
0.0007235
0.1995
0.04457
0.005074
2.812e-05
0.000555
0.00114
0.0007703
0.002103
0.002115
0.5496
0.5819
0.667
0.002058
0.3617
0.0001675
0.001626
0.00743
0.05376
0.00472
0.002511
0.0008855
0.0001223
0.6265
0.3859
0.0009258
0.009412
0.003849
0.002083
0.4358
0.2891
0.4191
0.0001421
0.001925
0.01312
0.002123
0.005995
0.0003578
0.00415
0.2699
0.01172
0.02007
0.001356
0.0001467
0.002189
0.0005488
1.229e-05
0.006591
0.6054
0.1069
0.005204
0.002297
0.002429
0.0008312
0.04436
4.529e-06
1.766e-05
0.5808
3.673e-06
0.0003499
0.008381
0.6024
0.5838
0.02319
0.03962
0.001762
0.0001652
0.006743
0.002993
0.008536
0.001449
0.4997
7.384e-06
8.451e-05
0.002353
0.3309
0.003117
0.1066
0.001123
0.0005258
0.0001105
0.005658
0.003231
0.0001016
0.0108
0.005565
1.216e-05
0.005919
0.4208
0.00558
0.007337
0.006253
0.4006
1.929e-05
0.3654
0.001669
0.0001909
0.01441
0.0606
1.148e-06
0.000184
0.5708
0.02268
4.625e-05
0.2838
0.3928
0.5802
0.0004069
0.001498
2.787e-05
0.004946
0.5803
0.5937
0.01583
0.001456
0.00159
0.006005
0.0008713
0.003948
0.000258
0.001047
1.556e-05
0.4876
0.0003373
0.002151
0.1846
0.004409
0.0008331
2.191e-05
0.00572
0.002548
0.1545
0.0005443
0.0006255
0.3155
0.007221
0.001767
0.001097
0.5554
0.001194
9.471e-06
0.05109
0.0001861
0.001845
1.914e-05
0.0001067
0.001216
0.0004059
2.287e-05
0.1537
0.5817
0.5706
0.0395
0.0007146
0.0004371
0.0002647
0.3913
0.0132
0.001537
0.4117
0.104
0.011
0.004983
0.5743
0.183
7.018e-05
0.02522
0.01955
0.1336
0.004936
0.001408
0.0003356
0.0004967
0.005822
0.6379
0.5469
0.0001574
0.01662
0.5167
0.002795
0.02449
0.1926
0.00643
0.002802
0.000113
0.004588
0.0001026
4.579e-06
0.06584
0.5822
0.0004741
0.007478
0.5677
1.899e-05
0.0001648
0.07836
0.0001628
0.0001949
0.01154
0.009432
0.4591
0.001244
0.0005716
0.006651
0.5061
0.001719
0.5405
0.0001306
0.3738
0.5698
0.008565
0.002996
1.908e-05
0.2928
0.1621
0.01345
0.0001186
0.002983
0.00406
0.5968
0.00216
0.001497
0.002193
0.002951
0.0001337
0.001613
8.493e-05
0.0001653
0.003034
0.005786
0.0002534
0.001961
0.007795
0.0002997
0.004574
0.01378
0.08948
0.2382
0.0005032
0.3109
0.006072
0.002842
1.158e-05
0.2574
0.5726
0.002556
0.3031
0.0005059
0.0008732
0.0009249
0.00212
0.4893
0.3054
0.0152
0.004181
0.03054
0.0005036
0.5737
0.538
0.001389
0.2554
0.003384
0.5764
0.0002873
0.4151
2.346e-05
0.00272
0.4486
0.3968
0.001606
0.03525
1.332e-05
0.002269
0.5558
9.21e-05
0.006685
0.0006426
0.0004629
0.0001619
0.0001339
0.01956
0.507
0.5646
1.216e-05
0.0009614
0.004561
0.008493
0.4612
4.949e-05
0.001542
0.003536
0.00267
0.0006144
0.001125
0.002027
1.582e-05
0.00492
0.001105
0.01438
0.0004591
0.06156
0.0007536
0.3248
0.003186
0.5866
0.0003759
0.0001544
0.5824
0.4819
0.0001119
0.003839
0.5694
0.007844
1.349e-05
0.002916
0.0009331
0.4804
0.05539
0.001958
0.003758
0.0005325
0.002971
0.002521
0.0008363
2.526e-05
0.6064
0.002165
0.0087
0.0197
0.00287
0.3011
0.003572
0.5037
0.03763
0.5333
0.004077
0.001302
0.000235
0.01227
0.5982
0.5067
0.0009807
1.708e-05
5.404e-05
0.01338
0.3486
0.3448
0.002026
0.01706
0.4134
0.009531
0.0004762
0.003171
6.184e-06
0.002675
0.3545
0.001791
0.0001819
0.01505
0.0006117
6.747e-05
0.006483
0.001432
0.002178
0.004286
0.0008077
0.0001605
0.0008203
0.005571
0.0007089
0.01419
0.009035
4.711e-05
0.2196
0.1954
0.002479
0.5106
0.07562
0.0004991
0.03272
0.007276
0.0001107
0.6427
0.05318
0.002887
0.006924
0.001153
0.3703
0.0005476
0.00599
0.005019
0.001766
1.413e-05
0.03224
1.521e-05
0.0001887
0.02333
0.004719
0.543
0.02306
0.0005232
0.0009691
0.02409
0.03756
0.004885
0.566
0.001273
0.02647
4.352e-06
0.01096
0.3137
0.007943
0.0002117
0.0008269
0.6345
0.1887
0.004767
0.5811
1.52e-05
0.006987
0.00289
0.002659
0.4924
0.0003474
0.0005211
0.0002889
0.0003272
0.001499
1.26e-05
0.3146
1.205e-05
0.0007067
0.0006317
0.5802
0.003362
0.003817
0.0001525
0.002156
0.5295
0.005837
0.005131
0.6518
2.299e-05
0.0001161
0.001326
0.2603
0.07305
0.003451
9.19e-06
0.02405
0.002562
0.003389
0.0003698
0.04717
0.003827
0.0005039
0.01327
1.155e-05
0.0007521
0.006647
0.2928
0.002615
0.01833
0.04958
0.0001984
0.0004419
0.1537
0.02089
0.005831
0.005852
0.002056
7.913e-05
0.01107
0.01586
0.002029
0.006645
0.000939
0.01024
0.001357
0.000326
0.5337
0.0006912
0.003491
0.002462
0.0001398
0.0006602
0.00184
0.002404
0.3726
0.001124
1.794e-05
4.918e-07
0.0007091
7.023e-06
0.0003211
0.08311
1.688e-05
0.01041
0.000929
0.003423
0.6031
0.004005
0.0006719
0.0002509
0.01543
0.003064
0.04222
0.4706
0.002878
0.003163
0.08178