/*--------------------------------*- C++ -*----------------------------------*\
| =========                 |                                                 |
| \\      /  F ield         | OpenFOAM: The Open Source CFD Toolbox           |
|  \\    /   O peration     | Version:  v2012                                 |
|   \\  /    A nd           | Website:  www.openfoam.com                      |
|    \\/     M anipulation  |                                                 |
\*---------------------------------------------------------------------------*/
FoamFile
{
    version     2.0;
    format      ascii;
    class       volScalarField;
    location    "5";
    object      nut;
}
// * * * * * * * * * * * * * * * * * * * * * * * * * * * * * * * * * * * * * //

dimensions      [0 2 -1 0 0 0 0];


internalField   nonuniform List<scalar> 
100503
(
5.615e-08
4.939e-08
7.185e-08
1.239e-07
4.884e-08
5.071e-08
1.378e-07
1.591e-06
1.544e-06
8.053e-08
2.4e-06
1.534e-06
5.399e-06
5.364e-06
1.884e-06
4.897e-06
9.22e-06
2.433e-06
3.19e-07
6.332e-06
7.271e-06
7.041e-06
5.776e-08
1.862e-06
6.184e-08
8.387e-06
9.435e-06
0.0008679
0.0001093
5.808e-07
5.595e-08
0.0003804
0.0004072
5.584e-06
0.0007839
0.001215
5.635e-06
0.002314
63.43
0.0001199
6.133e-06
0.0004548
1.544e-07
0.0007053
0.0007597
0.001595
0.00139
0.0007304
2.455e-05
0.0008858
2.939e-05
2.527e-05
0.002679
0.0005269
0.000721
0.0004724
0.0001564
0.00175
0.0001859
0.0001067
0.0004574
0.001383
2.016e-05
1.171e-05
7.602e-06
0.000616
0.0004504
0.001942
6.507e-06
0.000248
0.0004002
4.174e-05
0.0007125
0.0008883
0.0007018
5.704e-06
0.0001885
92.08
94.04
1.161e-05
0.001186
9.102e-05
0.0007432
0.000454
0.0005482
63.85
0.0009957
0.0002206
1.371e-05
0.0001282
0.001666
0.001928
0.001308
0.0004552
0.000453
4.788e-06
0.0004704
0.0001597
92.37
94.34
0.001699
5.72e-07
6.058e-05
6.783e-06
0.002704
0.000454
0.0006314
1.889e-06
0.001323
6.978e-06
1.375e-05
0.0008029
0.0005468
0.0001906
0.0008039
1.05e-05
0.001696
0.0002567
0.0008933
0.0006529
0.001587
5.406e-05
1.981e-05
0.0005774
0.0007379
4.554e-06
0.0007064
0.001596
8.853e-06
3.708e-06
0.0005302
0.001759
0.0004461
0.0004901
0.0006363
0.0003231
5.79e-06
0.0003671
0.0001823
0.0005203
0.0004643
0.003458
1.797e-05
0.0008725
0.0002003
4.432e-06
0.0004618
4.542e-05
4.815e-06
0.0004527
0.000211
0.001006
0.000452
91.77
1.993e-05
6.294e-08
0.0005552
0.001454
0.001277
4.287e-06
4.648e-06
7.359e-05
1.899e-05
0.0007481
0.0001695
0.0006158
0.0005562
0.000452
0.0004675
0.002373
0.0004221
0.0005892
0.0006413
0.0002418
0.0004544
9.481e-07
2.476e-05
82.98
0.001524
0.0001202
0.0004403
0.0002565
0.000528
8.751e-05
0.00153
4.531e-05
0.0004462
2.094e-05
5.696e-06
1.912e-06
0.002169
0.0001396
0.002035
0.0004532
0.0002138
0.0007531
0.0004898
0.0004323
0.000717
0.0001747
0.0001071
1.109e-05
1.117e-05
0.001251
0.0009123
0.0002055
0.0008741
4.801e-06
0.0004758
2.004e-05
0.0003681
4.464e-06
4.395e-06
0.001749
0.0002638
0.000637
0.000962
0.0004539
9.743e-06
4.819e-06
0.0002425
0.0005864
53.93
6.812e-05
2.122e-06
3.617e-05
0.0003034
8.066e-07
0.0002127
0.000465
7.697e-05
6.124e-06
5.414e-05
0.001941
0.0007134
6.213e-05
0.002105
0.0004574
4.922e-05
0.0002072
2.488e-06
0.000181
6.705e-05
0.0005113
0.0001804
83.2
0.0003893
0.0004521
0.0002161
0.00187
0.000454
4.369e-07
0.0004557
0.0009623
0.0004535
0.000932
0.0001193
0.00137
0.0008408
0.001059
2.476e-06
2.031e-05
91.5
0.0001218
0.0002348
0.0003757
6.486e-06
0.003647
0.0001692
0.001462
0.0002527
0.001442
1.618e-05
0.0003222
0.000398
0.0003002
0.0001098
0.0004779
0.0001955
0.0002319
6.799e-06
9.758e-06
0.0004275
0.00059
0.0006594
0.0004605
0.0003625
0.000442
0.0004467
5.463e-06
0.001752
0.0007863
0.0004668
0.0007901
5.069e-06
2.311e-06
0.001274
2.483
5.583e-06
0.000889
1.265e-05
6.601e-05
0.0004595
0.001457
0.0002857
0.0008125
0.0005822
8.176e-06
0.0004653
0.0004552
0.0004368
8.844e-06
8.206e-06
0.0009366
0.0007338
0.0001232
0.0007575
0.0005411
3.441
0.001844
0.00012
0.0006573
0.0002875
0.0009859
3.257e-05
0.0004539
0.0001952
0.0005883
0.001417
3.731e-06
0.001964
0.001496
0.00065
84.95
3.689e-06
0.001052
0.0005538
0.0004525
0.0004643
0.0007942
86.37
0.0004441
0.0001103
0.001724
7.155e-05
84.26
0.00147
0.0004745
4.28e-06
5.533e-06
2.447e-05
0.0005405
0.0001324
5.482e-06
1.015e-05
84.83
92.91
0.0004539
2.836e-05
0.0001718
0.0005321
6.841e-05
0.001971
4.624e-06
0.0007928
0.0008114
4.438e-06
6.071e-06
0.0007981
0.0004594
0.0003426
0.001701
0.0008332
0.0004526
0.000164
4.351e-05
0.0002074
0.0004542
0.001597
0.0003452
0.0005525
0.0005594
0.0001805
0.0009294
0.0004617
0.0004501
0.0009278
0.001697
7.929e-05
0.0004036
0.0004558
0.000459
4.836e-06
6.463e-06
0.0007967
0.0003949
0.0008966
0.0004505
4.128e-05
0.0003035
0.0003787
6.066e-06
0.0001264
0.001058
7.059e-05
5.446e-06
0.0004794
0.0008768
1.378e-05
0.0008251
7.166e-06
2.656e-07
0.002217
0.001358
0.001516
0.000445
4.028e-06
9.605e-05
92.73
0.0006919
0.0004688
0.0002168
0.0006781
0.001069
0.0002056
0.001025
0.003506
0.003475
5.949e-06
0.002707
0.0003196
0.003213
5.653e-06
0.0004547
3.555e-06
0.0004693
0.0006678
0.001457
0.000458
8.667e-08
0.001454
0.0008822
0.0003828
1.025e-06
0.0006497
4.591e-06
0.0006239
5.857e-06
0.0004465
7.15e-05
5.546e-06
2.003e-05
0.003691
0.0004585
1.571e-06
0.0004955
0.0004448
0.000188
0.0008259
7.88e-06
6.575e-06
0.0004598
5.276e-05
3.673e-06
0.0002041
3.567e-06
1.334e-05
0.0005879
0.0002866
0.001481
0.001308
0.0001333
0.001082
0.0008894
17.01
4.041e-06
0.0007397
0.0004882
0.0001031
7.142e-05
0.001046
0.0008277
0.0002161
0.001006
0.1461
0.001298
0.0005693
0.0004534
0.0004539
4.711e-05
1.017e-05
0.000998
0.0004545
0.0005327
0.0006068
0.0004313
0.001225
6.723e-06
0.00459
0.0004622
0.0009654
0.0004572
0.000798
3.319e-05
0.001645
0.001034
0.001225
5.916e-05
0.0004596
0.0007064
86.76
0.0004653
0.0004862
0.0001011
53.05
0.0004534
6.623e-05
0.0001877
3.118e-05
0.001334
0.002182
0.0001427
0.000402
0.000465
0.000443
0.00146
0.0004941
0.0004716
0.0007178
0.001345
6.064e-05
0.0002247
0.0007837
4.692
0.0007654
0.00112
0.000404
0.0004582
1.736e-05
0.0009383
2.92e-06
3.961e-05
0.001843
0.001868
0.0008766
0.0007504
18.1
0.0003425
5.214e-06
0.001519
4.921e-06
0.0002894
0.0004503
2.953e-05
0.0006886
0.001035
0.0005458
6.747e-05
5.545e-06
0.001033
0.001288
9.625e-06
0.0003955
0.0002565
0.000961
0.0001133
5.52e-06
7.8e-06
0.000454
0.6103
0.0004572
0.0006792
5.6e-06
0.0004499
0.0001006
0.001082
0.000454
0.00057
0.0004703
0.0004458
0.0005835
74.83
0.0006414
0.001522
84.73
0.0008896
6.848e-05
0.0004959
0.0004747
2.001e-05
0.000458
0.001433
0.000394
3.09e-06
3.297e-06
0.0003967
0.0003526
0.0008156
0.0004446
0.0006961
0.0004471
0.0001426
1.062e-05
0.0009757
0.0005012
2.994e-05
0.000104
0.0004461
0.0004498
1.284e-05
0.0006113
4.931
0.0008119
0.000417
0.0005809
0.0002186
7.669e-06
0.0003997
4.481e-06
0.0004467
3.496e-05
0.001415
0.0008698
0.00115
91.94
0.0001805
0.0002999
0.001833
0.0009326
0.001026
0.0001866
0.0004498
0.00072
0.0002959
0.0006772
0.000452
0.0004395
0.0004527
0.000195
0.0009203
0.0004515
0.0008039
0.0002674
0.0001818
0.00234
9.653e-06
0.0006393
6.3e-05
0.0002918
0.0001685
0.0007983
0.0005069
0.0004596
0.0008906
0.0005873
0.0004469
0.0002692
0.0004517
0.000801
0.0005462
0.0004516
0.000415
0.001307
0.0008589
0.0004497
0.0004594
0.0004219
0.0007321
0.0006314
4.444e-06
0.0008324
7.32e-06
0.001132
0.0001214
74.25
1.886e-05
0.0008611
0.000886
0.000398
0.0005154
0.0004521
0.0007229
0.0004932
9.233e-06
0.0007502
0.0001089
6.348e-05
0.0001388
0.0001118
0.001048
0.0004603
0.0007991
0.0004194
4.476e-06
0.0009099
0.0001283
4.487e-06
0.0004852
0.000452
0.002555
0.0009953
3.054e-05
0.0004842
0.0001525
0.0001986
0.001425
0.000622
0.0004539
0.001059
0.0003011
0.0006476
0.001781
2.071e-05
31.7
1.197e-05
0.0004464
0.001222
0.0004647
7.18e-05
0.0004509
0.0001899
0.002133
0.0004646
0.0002512
0.0004616
4.826e-06
0.0001311
3.137e-05
0.002316
0.0002635
5.266e-06
8.683e-05
2.499e-05
0.0001413
4.556
0.0004462
0.0004503
4.463e-06
33.64
0.0003958
0.002338
0.0007652
8.201e-06
8.988e-05
9.416e-06
2.415e-05
0.0006791
2.364e-06
8.279e-05
33
4.17e-05
1.358e-05
0.0004508
0.0001997
0.001742
9.279e-06
0.0009455
0.0004545
0.0003846
0.0008493
0.0001991
0.0001309
0.001959
6.477e-06
7.544e-05
0.002079
0.001219
0.0007995
4.717e-06
3.084e-05
0.0001295
0.001721
0.0002298
0.0008988
0.00019
34.52
0.0004543
0.0004104
0.0001047
2.009e-05
0.002593
0.003453
0.001148
0.0004565
0.001763
3.601e-05
4.122e-06
0.0006105
0.0004521
33.22
8.315e-05
4.096e-06
57.37
0.0003488
6.657e-06
0.0004693
1.857e-05
1.832e-06
1.447e-05
0.0004589
8.113e-06
4.961e-06
0.0007913
0.001255
5.777e-05
1.954e-05
2.017e-05
2.704
0.000106
0.001889
0.0004546
0.0001336
0.0004548
0.0004636
0.0002279
0.001217
0.001526
0.001199
0.0008815
86.77
0.0007584
1.383e-05
0.0005034
0.001877
0.0009626
0.0004545
5.935e-06
0.0003686
2.44e-05
0.002838
0.0004624
1.255e-07
0.0004577
0.0007589
0.0001741
0.003086
0.00388
5.537e-06
0.001222
0.00026
3.939e-06
0.000342
0.0002583
0.0007491
4.816e-06
0.002518
5.885e-05
0.0004569
0.003793
5.264e-05
6.784e-05
0.0008669
0.00129
0.0004504
3.319e-06
1.116e-05
0.0002675
0.0001598
59.86
0.0008524
0.0001062
0.00254
8.326e-07
0.003052
1.362e-05
0.00012
0.0006906
0.0004722
0.0003874
5.722e-06
48.95
48.08
0.000537
0.0003076
0.0005192
0.0009001
0.0003118
0.002291
40.5
0.0004524
8.369e-06
6.275e-05
6.144e-05
0.0007302
0.001169
14.58
32.83
0.0004539
5.914e-05
0.0001336
0.0007258
3.795e-06
0.001234
6.686e-06
0.0004554
8.069e-05
0.0009916
0.001055
6.251e-05
0.0004508
7.601e-06
0.0004549
4.675e-06
90.66
0.0005164
9.48e-06
2.412e-06
7.389e-07
0.0001985
0.0001569
8.663e-06
0.0001481
0.00222
0.001957
0.001072
0.0005037
1.471e-05
1.978e-05
0.0003567
6.214e-06
0.0006528
3.325e-06
6.662e-05
91.84
0.002006
0.000121
15.44
7.966e-06
4.851e-06
0.0002528
0.0002453
9.87e-06
0.0004419
2.932e-06
0.001986
0.0003894
0.0004466
0.001585
0.0008559
0.0002316
5.266e-05
0.0003151
0.001428
4.851e-06
0.0001824
1.114e-05
0.0004129
0.001684
3.384e-05
0.0004537
0.0004524
5.032
0.002201
0.0001589
0.001302
0.0005164
0.002734
0.0003972
0.000972
0.0006493
0.000235
0.001258
5.267e-05
0.0001916
0.0006984
2.825e-06
5.968e-06
0.0004749
0.001226
0.0004537
0.0002943
0.0008241
0.0004483
0.0003437
0.000313
0.0002267
0.002484
0.001141
0.00358
0.0001018
0.0004564
0.0001668
0.0001288
0.0001384
4.005e-05
4.654e-05
0.001366
9.262e-05
0.003751
0.0004597
0.000128
0.0004583
0.0004721
0.0005993
0.0003578
0.000754
93.15
92.54
0.000453
0.0001543
0.0001144
0.001854
7.761e-05
0.0008184
0.0007289
0.001996
0.0008777
7.483e-06
0.0002548
4.296e-06
0.0002272
0.0004544
0.0001648
0.0006612
3.924e-05
0.000452
0.0006721
7.803e-05
0.0003958
3.299e-06
0.0004553
0.0004534
0.0006315
0.0007797
5.127e-05
7.713e-06
0.0005888
0.001161
0.001589
0.0002718
0.000459
3.167e-05
4.462e-05
91.41
0.0004569
8.932e-06
0.0006093
0.0002736
0.0001053
0.0003913
7.861e-07
0.0002623
0.0009125
0.001034
0.0001282
1.047e-05
0.0003532
0.0002124
0.0002779
0.001217
0.0005742
0.000734
0.0004643
0.001044
4.887
1.376e-05
0.0001694
6.326e-05
0.0006386
0.001434
0.0004585
3.969e-05
0.0004577
0.0005483
3.775e-05
0.0002466
0.0004729
0.0005848
0.001019
0.0008776
0.0001541
0.0009182
6.931e-06
9.784e-05
0.0005345
0.0002505
0.0006182
0.0005471
0.0004496
0.0004534
0.0006207
0.001311
6.213e-06
1.141e-05
0.003442
0.0003947
0.001073
0.0001686
0.001217
0.001069
0.000464
0.0009514
0.0001597
3.183e-05
0.0004651
0.00102
0.0002754
0.0002336
0.0001739
0.0006897
0.001344
1.173e-05
0.000986
0.0006281
0.0004216
0.0008151
8.871e-05
0.001331
86.19
6.241e-05
0.0004541
0.0004617
4.46e-07
0.001811
1.066e-06
0.0005313
0.0008997
0.0008266
8.17
0.0007624
0.0007105
0.0004449
0.0005061
1.874e-05
3.826e-06
6.102e-06
0.0005137
4.92e-06
79.99
3.444e-05
0.001017
0.001141
0.0009536
0.00112
0.0004568
0.0002577
0.0006664
9.832e-07
0.0007866
6.477e-06
8.371e-05
0.002639
0.0004512
0.0004684
5.062e-06
0.001523
3.409e-06
4.84e-06
0.00054
4.652e-06
43.63
0.001011
0.0004545
0.003297
0.0003921
3.956e-06
0.0004484
0.000364
6.783e-06
0.0006469
0.001404
32.46
0.0004567
86.24
0.000794
0.0006978
6.589e-05
7.334e-05
0.0006568
6.318e-05
0.0004599
4.707e-06
0.0006024
0.0001476
0.002359
3.864e-05
82.24
0.0001297
6.592e-06
0.001679
0.0001592
3.064e-06
0.000461
2.663e-06
7.994e-05
0.000448
0.000387
44.72
4.869e-06
0.0006624
0.000452
0.000195
0.0008612
32.28
0.0001426
0.0003128
0.0006867
16.57
0.001106
0.0005227
0.0006913
0.0002508
0.000459
1.161e-06
0.0002692
0.0008719
0.0006332
0.002273
0.0004464
0.0001009
1.053e-05
0.00126
0.003228
0.0008275
0.000477
0.000157
0.0004478
0.001672
0.0002186
5.344e-05
0.0007161
0.0005838
0.0004267
0.002351
0.001052
0.0008696
9.807e-05
0.000289
81.96
0.0004638
0.001923
0.0005342
0.0004548
7.975e-07
0.002956
0.0008018
4.781e-06
0.001124
0.0004566
0.003019
0.00076
0.0002065
5.088e-06
0.0004564
0.0004392
8.664e-05
1.209e-05
0.0004861
0.002441
0.0006075
0.0004515
0.0001701
0.0004563
0.0002046
0.0001589
0.000605
65.3
6.268e-06
0.000824
0.0004578
30.27
71.98
0.0004525
0.0004737
1.049e-06
1.998e-06
5.179e-06
0.0004213
7.42e-06
0.001992
0.0001683
1.263e-05
5.234e-06
0.0004396
5.452e-06
0.0002704
0.001148
0.0001342
0.001325
0.0004465
59.81
5.001e-05
0.0002261
0.0001088
2.227e-05
0.0006171
0.0006656
0.0004512
0.0004259
0.0003443
4.553e-06
0.001083
0.001193
0.0008293
2.709e-05
0.001351
40.71
4.78e-06
0.001313
4.317e-05
77.12
5.323e-06
0.0001451
0.0004592
2.676e-05
4.833e-06
0.000265
2.432e-05
8.838e-06
0.0004591
8.144e-06
0.0005736
6.426e-05
8.695e-06
0.0004296
4.318e-06
0.0002658
33.38
0.0005672
3.449e-05
92.36
0.0004079
0.0009192
3.369
3.684e-05
78.06
0.001143
1.13e-05
0.001144
3.949e-05
0.0004579
72.39
0.0004556
8.901e-05
0.001275
0.0001427
0.001428
1.082e-05
8.31e-07
0.0001259
4.39e-06
0.00308
9.145e-05
0.0005687
0.001504
0.0004574
0.000423
1.472e-05
0.001172
4.628e-06
0.0002373
0.0008123
5.561e-05
1.37e-05
0.000276
2.754e-06
0.002886
0.0004461
0.0009726
33.35
4.487e-06
6.379e-05
0.0004809
5.225e-05
0.0007353
0.0009737
0.001004
0.0002029
0.000138
0.0008046
5.499e-05
0.0006409
0.0001195
0.000212
2.135e-05
0.0008301
0.0008816
0.001399
0.001056
7.808e-06
0.0002722
0.0004486
8.406e-06
0.0002199
0.0004479
0.0006252
0.000769
7.115e-05
0.001146
0.00179
0.0001529
8.393e-05
0.0004594
14.04
0.0002515
4.122e-06
52.05
0.001561
4.657e-05
7.024e-06
0.001182
6.301e-06
0.0001086
0.0003754
3.673e-05
0.001552
0.0006231
5.009e-06
0.001011
0.0003738
0.0007505
0.0003042
0.000149
1.3e-05
2.882e-06
0.0004549
0.0009012
0.000404
0.001008
0.0008099
0.0003914
0.0003035
1.186e-05
0.0004096
0.001141
0.0003178
0.0005955
8.029e-06
0.0006604
0.001911
0.001369
6.876e-06
0.0004554
0.001229
0.00129
8.632e-06
0.004562
0.0004419
0.0004463
0.001187
3.463e-06
76.82
0.0008072
0.002178
0.0003622
0.0002423
3.551e-05
3.716e-06
0.0001256
0.0002552
0.00016
2.42e-06
0.0004158
0.0004101
0.0002321
0.0004539
0.0004565
0.0001105
0.0005035
8.851e-06
5.012e-05
1.193e-05
5.366e-06
6.794e-06
81.9
0.001043
0.0005819
4.65e-06
0.0006143
5.634e-06
0.0004522
0.0006245
0.001373
6.184e-05
0.0003785
0.001143
0.0004243
0.0007108
0.0003831
4.795e-06
0.0001345
0.000453
0.0001885
0.0007937
3.453e-06
0.0006294
0.0001076
0.0008219
0.0004508
0.0005132
0.0005462
86.73
0.0002028
5.628e-06
0.000394
1.076e-05
0.0004426
0.001045
0.000456
0.001254
0.003851
0.001296
2.882e-05
0.0001169
0.0004532
0.0005814
0.0001104
0.0001085
0.0002017
6.823e-05
0.0001528
4.977e-06
3.355e-06
6.476e-05
60.14
1.155e-05
0.001348
4.515e-05
0.001773
0.0003445
0.0007837
1.615e-05
9.073e-07
0.0004442
0.001274
5.883e-05
0.0004655
0.001397
0.0003379
0.0002706
0.0001481
0.0005242
2.053e-05
0.0005122
0.0008839
8.337e-06
0.0009243
0.001112
9.686e-05
0.0004555
0.0004651
0.0005203
0.0008977
6.893e-05
0.0004558
89.72
0.001202
0.0004527
4.039e-05
86.85
0.0004997
0.003065
0.000239
3.608e-06
0.0004767
0.0002112
0.0012
0.000732
0.000705
1.56e-06
0.0005116
0.0004915
0.001271
0.002835
0.001515
2.399e-05
0.0005917
0.0007561
0.0001245
0.000954
0.0001598
0.0002072
6.306e-06
0.001474
1.236e-05
0.0008416
0.0004821
0.001508
1.342e-05
1.823e-05
0.0002517
0.0009852
0.0002638
0.0001956
9.411e-06
0.002686
0.0004119
3.231e-06
0.001362
0.000716
0.0009515
0.0003782
0.0008104
0.001404
8.47e-05
4.242e-05
0.003231
0.0003023
0.000428
0.0004553
2.99e-05
3.265e-06
0.0001106
0.0004523
6.117e-06
0.0002683
0.0004585
0.0005445
0.000175
6.226e-06
0.0004122
0.0005464
0.0005085
0.0004788
15.28
0.0005838
0.001995
0.001208
0.0005209
0.0005329
6.24e-05
0.001106
1.137e-05
0.0004511
0.0004489
0.0004579
4.126e-05
6.774e-05
0.000461
2.608e-05
3.417e-05
35.19
0.001807
0.001884
0.0005064
0.0004533
0.0004535
0.0004542
0.001338
0.0001355
0.0003948
0.001007
0.0003837
0.001372
0.001107
2.737e-05
4.624e-05
0.0005036
6.749e-06
0.0001773
4.715e-05
0.001664
0.0002136
0.000617
0.0006191
0.0008335
0.0001737
0.001123
0.0006604
5.105e-06
0.0004494
0.0005696
4.321e-06
0.0001163
0.0005504
0.0004569
0.0007051
0.0009643
0.0005149
0.0003253
4.869e-05
0.0006218
0.0002184
0.000455
0.001105
0.001013
0.000291
0.001929
5.721e-05
0.0001892
0.000699
1.229e-05
1.385e-05
0.0006342
6.898e-05
0.0004611
0.0009272
0.0004572
4.487e-05
0.0002161
5.823e-06
0.0004534
0.002713
0.00076
0.000454
0.0004947
0.0001764
28.31
0.0005688
0.0004385
5.876e-06
1.788e-05
0.0004344
0.0003467
5.667e-05
8.919e-05
1.011e-06
0.002109
0.001432
0.0004847
5.042e-06
0.000803
6.585e-06
6.068e-06
0.001209
0.0004545
0.001091
4.446e-05
0.001107
0.00167
7.461e-05
0.0007115
1.309e-05
0.0002475
7.712e-06
0.0004586
0.0003006
1.496e-05
0.0009506
0.0002607
4.591e-05
0.002404
0.0005789
0.000472
8.245e-05
8.676e-07
8.859e-05
0.0005441
4.722e-06
0.000151
1.677e-05
0.0001427
35.03
0.0001887
8.887e-06
2.183e-06
0.0007312
6.836e-05
7.028e-05
0.0005983
0.005032
2.2e-06
0.0005201
82.69
0.001307
0.0004637
0.002809
0.001942
0.0004498
0.001948
0.0004559
0.0009616
5.598e-06
0.0002961
0.001757
0.0004515
0.0008144
0.002249
2.532e-06
0.0008675
0.0006784
0.00016
0.0004557
0.0008944
48.25
0.0008192
0.00141
6.643e-06
0.001199
40.33
0.0001242
0.0007305
0.0009278
5.251e-05
0.0001799
0.002335
0.0003719
0.0003793
0.001496
0.0007399
0.0003707
0.0001834
3.354e-06
0.0006011
0.0006641
73.11
1.356e-05
0.0007784
0.0004543
0.0002459
6.659e-06
0.0005782
0.002002
0.0008257
3.951e-05
0.0004592
1.064e-05
0.0004603
6.221e-06
3.509e-05
91.93
0.0004051
0.001617
8.748e-06
0.0004576
1.495e-06
16.28
0.0007033
0.0004035
0.0004626
0.0007827
1.561e-06
0.0009368
3.062e-05
53.72
0.0002936
0.001956
4.458e-06
0.001417
93.05
4.112e-05
87.65
77.4
6.205e-06
0.0002304
5.976e-06
0.0001643
0.002203
9.307e-06
0.0004538
0.0004737
5.454e-06
7.273e-06
6.379e-06
3.476e-05
2.432e-06
0.0004536
0.0002443
0.0004577
0.001702
0.001113
2.27e-07
0.0004582
0.001987
0.0002006
22.65
0.0004539
0.0004572
24.41
0.0004481
0.0003602
0.0004583
0.000592
0.001767
0.0006469
0.00104
0.0004332
3.796e-06
0.0002997
6.152e-05
46.82
0.000316
0.000318
0.0004587
1.65e-06
0.0004662
5.837e-06
7.812e-06
0.0009506
74.62
75.31
0.0004539
3.296e-05
0.0001031
20.63
0.001194
0.0007096
0.0004021
9.274e-06
0.0001099
0.00101
92.01
2.889e-05
2.933e-05
0.001376
0.0003744
74.04
6.328e-06
0.0007066
0.002779
0.0009109
0.0002969
9.422e-06
0.0004686
0.001997
0.002856
0.001038
0.0006645
0.000114
3.424
0.002226
0.001722
5.099e-06
0.001092
0.0004547
0.0006966
0.0001726
6.118
3.339e-06
0.001173
1.097e-05
0.001783
0.003602
0.0004061
0.0001916
5.639e-05
0.0002193
0.0003022
0.0003232
14.93
0.0009103
4.414e-07
0.001362
1.344e-05
0.001528
0.0002371
6.311e-06
0.0004504
0.0006883
0.0009576
0.0001299
0.0004511
68.73
0.0005046
0.0002832
5.31e-06
0.000685
0.0004209
0.0007275
0.0009539
0.0001731
0.001211
18
3.277e-06
0.0004671
0.000128
0.0004658
8.381e-05
0.002336
1.5e-05
0.0004541
0.001181
2.415e-05
0.0004259
0.0004526
3.544e-05
0.0003588
0.0003698
0.001093
0.0009439
0.000454
0.0006989
82.65
0.0005388
1.083e-05
0.002761
0.001244
0.0002204
79.81
7.838e-05
0.0001199
0.0001959
6.364e-05
40.39
0.0002981
0.001335
0.002713
0.0005136
7.067e-06
0.000307
3.704e-06
3.6e-06
6.736e-06
0.0001911
5.329e-06
0.0006402
0.001995
8.752e-05
5.094e-06
90.87
2.395e-05
0.0001103
1.432e-05
0.0001204
0.001456
0.001533
0.0004166
0.0005688
0.0004525
64.88
0.0008885
0.0008462
43.89
70.83
0.0001364
0.0002744
80.29
0.0004532
0.0008249
0.0004537
0.0009164
0.00142
0.0002719
0.001068
2.372e-07
0.0003323
0.001622
9.739e-05
0.002729
0.001576
0.0004574
0.0002055
0.0001978
1.044e-05
0.0002466
9.312e-06
0.0004569
0.001155
0.0002522
0.0001586
0.0007411
0.0009404
1.024e-05
0.001273
0.0002041
0.0004533
0.0001601
0.0004676
0.0001469
0.0003899
0.001275
0.001167
0.0002007
0.0004634
0.001036
0.0009823
0.0002502
0.002402
1.355e-05
5.755e-05
1.787e-06
0.0004477
0.0006735
1.053e-06
80.55
0.0004604
0.0009751
0.000335
0.0008819
1.573e-05
4.808e-06
0.0004567
0.000457
0.0001987
2.178e-05
3.094e-06
0.0004548
2.485e-05
47.68
0.00122
5.367e-06
1.717e-05
0.0005746
0.001847
9.288e-06
0.0004454
2.934e-06
7.811e-06
0.0004536
0.0002867
0.0004827
0.001248
0.001978
2.916e-06
8.488e-06
3.467e-06
5.131e-06
0.0004575
0.001629
0.0005428
0.002163
0.0005037
0.001553
3.31e-06
0.003349
6.07e-06
0.0004578
0.000827
0.0009295
0.002165
0.0003208
0.0006855
4.1e-06
0.0004141
0.0001878
91.74
0.0004551
0.0004556
4.61e-05
5.773e-06
5.265e-06
0.0003504
0.0006501
8.728e-06
0.0008391
0.001246
3.054e-06
3.604e-05
2.376e-06
42.56
0.001307
0.0001077
0.0001658
0.001878
0.001683
56
6.19e-06
0.0001331
2.23e-05
0.0003537
2.346e-05
0.002959
0.001932
8.821e-05
0.0008743
0.001342
0.0004506
0.002145
0.001574
0.00103
2.981e-06
6.677e-06
7.194e-05
8.094e-05
8.875e-06
3.994e-06
0.001105
1.995e-05
0.002787
0.0003523
0.0003266
0.001011
3.784e-06
0.0004592
0.0003439
0.001181
0.0006892
1.665e-05
0.00224
0.0009718
5.86e-06
2.299e-05
0.0003251
0.0001938
1.046e-05
1.864e-05
0.0004525
0.001053
0.0004533
8.767e-05
0.0005881
1.393e-05
4.243e-05
2.546e-05
8.53e-05
2.274e-06
0.0001878
0.001766
41.04
1.153e-05
0.0004583
0.0004889
0.001896
0.001061
0.0006578
0.0007876
5.062e-06
0.0007846
8.565e-05
0.0004516
0.0004543
0.0001598
0.0005193
82.46
0.0004438
5.623e-05
0.0009026
0.001031
5.384e-06
1.404e-06
3.309e-05
0.0004599
0.0002613
0.001863
0.0008721
0.002102
5.726e-06
2.97e-05
56.7
2.433e-05
0.001791
0.0005415
0.0001443
61.15
0.000456
7.505e-05
0.0006819
5.137e-05
6.156e-06
0.0004415
0.0001226
0.001962
0.00105
48.03
3.328e-05
0.0001321
49.47
0.0006877
43.31
0.0004465
0.002247
2.083e-05
61.81
87.28
89.67
0.0004643
0.0008711
6.394e-06
3.95e-05
0.0001663
0.002267
7.067e-06
2.233e-05
0.0004415
0.0005101
0.0005934
0.00127
0.000452
8.697e-06
4.131e-06
0.0008373
29.26
0.002567
5.194e-05
8.558e-05
0.0009999
0.001189
0.00044
0.0003963
0.0005833
3.477e-05
0.0004497
0.0005236
0.0004536
0.0003146
2.313e-05
0.002612
0.0008666
5.668e-08
3.432e-06
82.65
0.0004565
0.0004957
8.836e-05
0.0004442
0.0002213
0.0004851
30.87
0.0004094
0.0008436
0.0007842
0.0006213
0.001631
0.0002164
5.46e-06
0.0004632
0.0007113
0.0004575
0.001334
0.0001086
93.29
3.739e-05
0.0001405
0.00183
4.766e-05
0.000862
6.382e-06
0.0007135
0.0001145
0.0009762
0.0001095
2.057e-05
0.000863
6.287e-06
0.0001492
0.0001479
0.002179
0.0004522
87.07
1.591e-07
0.0004458
0.0007057
1.022e-05
2.649e-06
5.23e-05
0.0007329
0.001008
0.001154
0.0004521
9.785e-05
2.315e-05
0.002504
0.0002299
22.15
0.0004561
5.239e-05
0.0002763
4.566e-06
0.0001431
0.0005007
2.412e-06
2.443e-05
0.0009635
5.503e-06
1.994e-05
0.0007605
2.705e-06
1.553e-06
0.0008964
5.348e-05
49.66
0.0003642
0.000465
52.31
0.0002698
0.0007525
3.823e-06
0.001006
8.86e-05
0.0002345
0.00151
0.0002213
0.001011
5.276e-06
0.001195
3.972e-05
0.0008122
0.001603
0.0008424
0.001165
0.0007722
89.03
2.836e-06
0.0008216
4.165e-05
5.801e-05
8.74e-06
0.0005848
0.0004576
7.146e-06
0.0007969
6.65e-06
0.0001866
0.0007948
38.8
0.002406
1.705e-05
0.0009179
2.331e-05
0.0002025
5.948e-05
3.991e-06
0.0002185
0.0002089
0.0004503
1.851e-05
1.835e-05
0.001693
0.0004993
1.86e-05
0.0004661
0.0003442
0.001277
0.0001765
0.0002238
0.0002039
0.0004609
0.0004545
2.402e-06
0.0009154
0.0008195
0.000117
0.001365
7.352e-05
0.0004912
0.0009024
0.0004545
0.0005633
0.0002183
0.002352
2.553e-06
0.0001024
0.0004447
0.0005578
0.0004636
1.466e-06
0.0006181
34.95
0.002163
0.0001475
6.064e-05
0.0003284
0.0003331
0.0004224
0.0001483
4.704e-06
0.0006173
1.851
0.001221
0.0006585
9.492e-05
0.0004491
8.207e-06
0.0004383
9.688e-06
0.000173
0.001509
0.0005874
0.0004676
0.0007206
5.482e-06
0.0002056
0.002003
9.021e-05
0.0002275
6.15e-06
0.0004418
4.252e-05
9.594e-06
0.0008921
30.27
4.783e-05
0.0004549
0.0004487
0.0008694
7.241e-05
2.06e-05
6.343e-06
0.0003909
6.712e-06
8.914e-05
0.000457
0.0009089
89.31
0.0004502
5.857e-05
7.647e-06
0.0005205
0.0004517
0.0004498
2.309e-05
0.0002788
2.469e-05
5.704e-06
0.0004439
2.637e-05
0.0001292
0.0001788
90.06
74.86
0.0009596
0.0009294
0.0004152
1.925e-05
4.19e-06
2.628e-06
3.139e-05
0.0008959
0.0003638
5.293e-05
0.002075
5.92e-06
1.38e-05
4.808e-05
0.001977
92.91
0.0004579
50.98
6.706e-06
0.0004541
0.0001108
0.0002508
4.943e-05
0.0001041
5.718e-05
0.0009456
5.962e-06
6.017e-06
6.882e-06
0.0004513
3.209e-06
0.001514
0.00066
25.19
0.001054
6.58e-05
0.001643
0.00133
0.0001474
0.0005514
0.0006074
3.367e-05
4.274e-05
0.000214
0.0004895
7.516e-05
92.08
76.34
0.001159
0.0005107
0.001662
0.0004512
0.0007778
0.0007846
0.0001561
0.001428
0.0004558
0.0004524
0.001355
2.762e-05
5.693e-06
0.0008499
0.0004615
3.779e-06
3.064e-05
1.139e-05
76.07
6.919e-06
0.000177
3.593e-05
0.000475
0.000435
0.0001248
0.0005295
0.0002451
8.412e-06
0.0009764
0.000456
4.068e-05
0.0002476
0.001083
3.302e-05
43.55
0.0009586
0.0004799
0.0004534
4.361e-05
1.312e-05
0.0002043
1.077e-05
0.001009
8.558e-05
0.001563
0.002499
4.092e-05
0.0008036
0.0009409
0.0002453
0.0005815
0.0004772
0.0001482
0.00103
1.772e-05
0.0005043
0.0008195
0.0006773
1.643e-07
48.09
0.0004602
0.0005677
0.0006273
0.0005014
6.15e-06
0.0008226
0.001543
0.001367
0.001688
0.000162
0.002626
0.0004349
5.039e-06
0.001002
4.673e-06
0.0006956
0.0004514
0.0006774
0.001277
0.0013
4.87e-05
16.53
0.000725
0.0006129
5.878e-05
0.0006648
57.37
0.0004559
0.0004467
0.0009209
0.0004688
0.0005965
54.95
3.247e-06
0.0002689
6.155e-06
8.909e-06
0.0002298
2.707e-05
1.537e-05
0.0004508
1.189e-05
4.071e-06
0.002007
0.0009662
0.0006446
0.0011
0.0004572
4.031e-05
9.639e-05
0.001046
5.227e-05
3.583e-06
0.0007008
0.0005827
4.514e-05
0.0002831
0.001324
0.000513
0.0004615
0.0004604
0.0007954
3.295e-05
1.203e-05
6.238e-06
1.197e-05
0.0003417
0.0004878
0.0001804
2.201e-05
86.78
7.57e-05
3.118e-05
0.0002281
21.99
0.000461
1.59e-05
4.349e-06
0.0009897
0.0004538
0.001864
0.0004639
0.0008805
1.991e-06
0.0001634
0.001422
0.0009478
0.001492
0.0001618
0.001486
5.971e-06
0.0008553
0.0005955
0.0004574
0.0005459
0.0004642
0.0002174
67.31
0.001595
2.044e-06
0.001124
0.0004541
0.0002647
5.329e-06
6.763e-05
0.001293
2.841e-06
0.0008606
0.0008225
0.002604
0.0009601
0.000454
8.371e-06
0.0004995
0.0009144
6.158e-06
3.348e-05
5.662e-06
0.000455
0.001477
2.232e-06
0.0018
0.0004587
0.0008565
0.0004439
0.0003022
0.0007859
4.989e-06
0.0001597
0.001773
0.002294
0.0004564
6.199e-06
0.001035
2.329e-05
0.0004549
68.07
6.484e-06
0.0004198
0.0001785
0.0001143
0.001013
0.001429
0.0001516
68.45
0.0004168
0.0006359
1.699e-06
8.991e-05
0.000448
0.0006069
0.0004627
0.148
0.0009378
0.000754
0.001036
0.0007216
1.35e-05
3.668e-05
0.0005156
6.787e-06
0.001999
0.0001777
0.0002444
0.001037
0.0004178
4.045e-05
0.001452
0.00167
0.0001129
0.0004596
9.501e-05
0.000452
6.449e-06
0.0001728
0.0004578
5.237e-05
0.001222
0.001335
0.0001062
0.000127
0.003148
4.55e-05
4.73e-05
87.17
0.0004532
0.0002051
0.0001932
1.277e-05
0.0005667
0.000312
0.0007221
0.0001303
0.0001261
0.0004529
4.492e-06
0.0003388
0.0001592
1.028e-05
0.0004395
0.0008836
6.69e-06
0.001221
0.0002196
6.584e-06
0.001349
2.213e-05
0.0002
2.14e-05
6.91e-05
0.001515
0.0002019
9.702
9.347e-05
2.546e-05
0.0004066
0.001035
2.304e-05
1.159e-05
5.744e-05
5.55e-06
0.0001777
0.0002415
0.0001082
0.0005292
0.0008075
7.097e-06
0.001196
0.0005801
0.0001192
0.0004634
0.001047
0.0004562
6.395e-05
4.791e-06
2.712e-07
0.000418
8.4e-06
0.0007266
1.252e-05
6.061e-06
0.0006054
0.0007259
6.317e-06
2.131e-05
0.002085
3.28e-07
4.184e-06
0.0008984
0.001362
3.155e-05
0.001151
0.0007815
2.825e-05
5.487e-06
4.353e-06
0.0004469
0.00114
0.0007504
4.588e-06
0.0001882
0.0004548
5.807e-06
0.000141
0.0004972
0.0005851
0.0004527
0.0005278
0.0004554
0.0008453
0.0002585
1.611e-05
0.0001668
0.0002689
0.001158
0.001032
0.00103
1.159e-05
0.0002309
0.0003898
1.318e-05
0.0007558
0.0003704
0.0004559
0.0004566
0.000469
0.0001431
76.87
7.652e-05
0.0003682
0.001841
0.001514
0.001573
2.82e-05
0.0001045
9.032e-05
0.0004636
88.53
0.0003329
0.0006856
0.00115
0.0001719
0.0004521
0.000525
39.69
6.651e-05
0.0007183
0.0008305
0.0001654
0.0005344
0.00021
0.0008542
0.0005304
0.0004507
0.0008261
0.0003856
6.201e-06
0.0007818
1.775e-05
5.51e-06
0.001629
0.0004613
0.0009346
0.0002669
0.0007491
2.539e-05
0.0002633
0.001036
1.697e-06
5.698e-06
0.0004562
1.532e-06
0.0001464
0.001386
0.0004607
0.0004571
0.004383
0.001239
0.0003567
8.851e-06
0.0002771
0.0009102
0.0005484
1.447e-05
0.0004461
2.632e-06
5.666e-05
2.53e-05
0.000454
0.001001
0.001809
4.114e-05
4.634e-06
4.152e-05
0.001069
0.0005047
8.712e-05
0.002096
0.0003245
6.906e-06
0.001565
72.35
0.0009747
0.001658
0.0002246
54.41
6.259e-06
92.32
1.42e-05
3.416e-06
0.002963
0.003084
4.219e-07
0.000102
0.0004533
0.004062
2.594e-05
0.000496
70.22
0.0004563
0.0001768
1.08e-05
1.894e-06
0.0001677
0.0004561
0.0004593
0.0002563
0.0001016
2.72e-05
0.001103
8.349e-06
0.0005562
5.398e-06
0.0003693
6.02e-06
53.71
0.0001931
0.0007676
0.0005773
0.0001594
0.0003964
1.949e-05
0.001429
0.0006802
0.00065
8.261e-06
1.041e-05
0.0005565
0.0002784
0.0001422
7.096e-06
0.0004503
7.722e-06
2.359e-06
0.003426
3.398e-05
0.0006938
6.521e-06
3.973e-05
0.0003411
0.0002411
5.652e-06
0.0005631
0.0004563
0.0004533
0.001978
5.472e-06
0.0002586
0.0001042
0.0004762
0.0008767
1.915e-05
58.37
0.001795
0.0004853
0.0001586
0.000455
0.0007905
2.333e-06
0.001223
0.0007798
0.0008381
0.0001627
0.000449
0.0001339
0.000263
0.00101
0.0004662
80.47
9.805e-06
0.0008516
0.0004418
0.0004628
0.002894
0.0005236
0.001674
0.000848
9.75e-05
0.0009257
2.857e-06
1.882e-06
0.001004
0.0004565
0.0002079
0.001299
0.0004525
6.321e-06
1.128e-05
0.0008811
8.882e-06
8.394e-05