/*--------------------------------*- C++ -*----------------------------------*\
| =========                 |                                                 |
| \\      /  F ield         | OpenFOAM: The Open Source CFD Toolbox           |
|  \\    /   O peration     | Version:  v2012                                 |
|   \\  /    A nd           | Website:  www.openfoam.com                      |
|    \\/     M anipulation  |                                                 |
\*---------------------------------------------------------------------------*/
FoamFile
{
    version     2.0;
    format      ascii;
    class       volScalarField;
    location    "5";
    object      p;
}
// * * * * * * * * * * * * * * * * * * * * * * * * * * * * * * * * * * * * * //

dimensions      [0 2 -2 0 0 0 0];


internalField   nonuniform List<scalar> 
100503
(
-0.1816
-0.181
-0.1814
-0.1801
-0.1812
-0.1819
-0.1808
-1.499
-2.122
-0.1724
-1.227
-1.445
-1.422
-1.903
-1.862
-1.379
-1.803
-1.298
-0.1688
-1.687
-1.404
-1.491
-0.1817
-1.03
-0.1797
-1.422
-1.425
-0.7523
0.1112
-0.1829
-0.1814
0.4756
0.4765
-0.03154
-0.2968
0.2021
-0.02926
-0.2064
-0.0003653
0.111
-0.04524
0.01056
-0.1724
0.1283
-0.8281
-0.1896
-0.01756
-0.8286
-0.01949
-0.7386
-0.1776
0.1298
0.3089
0.4066
0.1281
-1.184
-0.08539
-0.1892
0.1875
-0.1805
-0.0396
-0.5357
-0.174
0.1712
-1.176
0.1079
0.009101
-0.2375
-1.709
0.3546
0.06066
-0.1633
-0.219
-0.7394
-0.03557
-0.1205
-0.1827
-4.598e-05
4.89e-05
0.1692
-1.24
-0.1734
-0.07721
0.01097
-0.1964
-0.0002486
-0.1904
-0.2459
0.1859
0.5884
0.269
-0.2099
-0.2572
0.009543
0.01459
-0.1519
-0.2176
-0.08551
-1.909e-05
1.994e-05
-0.2259
-0.1816
0.02399
-0.1746
0.3118
0.002122
-0.277
-0.1831
0.074
-0.03215
0.1873
-0.2979
0.4604
-0.04784
-0.1937
-0.1795
-0.1901
0.08624
0.4503
-0.02331
-0.1977
-0.1643
-0.1736
0.462
0.5026
-0.09129
-0.03487
0.1516
0.009277
-0.1562
0.2462
-0.5336
-0.004663
-0.002286
-0.5077
-0.1066
-0.148
-0.1162
-0.1909
-0.05934
-0.0608
0.3031
-0.05568
-0.1051
-0.1761
-0.1343
-0.0324
-0.07802
-0.08439
-0.01077
-1.239
-0.5078
-0.02287
3.941e-05
0.07258
-0.1831
0.02577
-0.2259
-0.006338
-0.1795
-0.09256
-0.7829
-0.1813
0.07606
-0.001461
-0.1707
0.412
-0.0225
-0.06817
-0.206
0.06104
-0.3546
0.1076
0.4389
0.01406
-0.1685
-0.01987
-3.872e-05
0.1414
-0.004887
0.1858
-0.1945
0.08663
0.08918
0.143
-0.07862
-0.004659
-0.1729
-0.1195
-0.1826
0.2273
0.1083
-0.2276
0.01425
-0.2395
-0.07749
-0.001161
0.2389
-0.02846
-0.9495
-0.1808
0.1505
0.1553
0.2017
-0.7475
-0.1759
0.2834
-0.08323
0.2273
0.06899
-0.1812
-0.1327
-1.013
-0.1897
-0.1945
-0.02975
0.2243
0.00134
0.00154
-0.1013
-0.2094
-0.02485
1.725e-06
-0.1732
-0.1811
0.3045
0.5742
-0.1725
-0.01859
-0.0002678
0.05516
-0.04044
-1.328
-0.2069
-0.07993
0.02396
0.3904
-0.03765
-1.512
-0.2355
-0.1399
-0.1744
0.2393
-0.1007
0.005567
-2.542e-05
-0.1973
0.01334
0.3782
0.4045
0.01571
-0.1725
0.005859
-0.06192
0.02369
-0.1984
-0.1174
-1.494
-0.1938
0.1579
-0.1392
-0.1813
4.295e-06
-0.05456
-0.2852
-0.3482
-0.1625
-0.1937
-0.001386
0.1019
0.4401
0.1024
0.05176
-0.106
0.3917
0.5764
0.01882
0.07836
0.22
-1.239
-0.1769
-0.007766
0.001446
-0.02452
-0.5082
-0.01524
0.39
0.001722
-0.005454
-0.05016
-0.2237
0.03217
-0.06659
0.2079
-0.1795
-0.181
0.0667
-0.004402
-0.05633
-0.2263
-0.07833
-0.2091
0.003522
0.1107
0.08666
-0.4453
0.4116
-0.08236
-0.0001787
0.00912
0.1861
0.01003
-1.185
-1.453
-0.171
0.08932
0.0767
0.02561
-0.002274
-0.2092
-0.004778
-0.3235
0.3554
0.06358
-0.1741
-0.003153
-0.1909
0.4057
0.1045
-0.1819
-0.2097
0.525
-0.3579
-4.943e-06
-0.134
-0.005155
-0.1621
-0.01061
0.00348
-0.08511
-8.748e-05
0.003478
0.3387
-0.5005
-0.1439
6.076e-05
-0.1854
-0.02285
-1.097
-0.1352
-0.05501
-0.05952
-0.1819
-0.04584
0.002849
-4.047e-05
4.645e-05
-0.002002
0.1338
0.1604
0.07462
0.2398
-0.2352
-0.1551
0.05232
-0.1702
-0.1504
-0.1757
-0.1646
-0.004202
-0.1815
0.2682
-0.4875
0.01354
-0.08478
-1.683
-0.04749
0.0135
0.1512
-0.3474
-0.0753
-0.1962
0.006197
-0.01386
0.2401
0.005896
0.306
0.1801
-0.143
0.3924
0.005736
-0.1776
-0.07187
-0.08924
0.2074
-0.1518
-0.438
0.005831
-1.757
-0.02395
-0.1166
0.4563
-0.1743
-0.2301
-0.05303
-0.04452
-0.01958
-0.1035
-0.1794
-0.1675
0.03113
-0.1819
0.2768
-0.3659
-1.271
-0.003904
-0.09105
0.2987
5.208e-05
-0.2023
0.004512
-0.8851
-0.08717
0.1587
-0.9549
-0.00931
-0.1953
-0.004774
-0.09115
-0.6599
0.5507
0.2971
-0.1075
0.007745
-0.1543
0.00447
-0.251
-0.2261
0.007217
-0.1822
0.09988
0.01835
-0.2002
-0.1679
0.05106
-1.993
-0.3467
-0.1093
-0.005383
-0.2092
0.04243
-1.132
-0.1943
0.007288
-0.1835
0.2278
-0.003774
0.02218
-0.2862
-0.0893
-0.1319
-0.004181
-1.874
-0.1338
-0.001758
-0.1544
-0.01908
-0.1962
0.05583
-0.2503
-0.2259
-0.0539
-0.183
-0.08515
0.000465
-0.1571
-0.1705
0.04857
-0.1735
-0.05272
-0.006167
-0.2878
-0.01822
-0.02249
0.00103
0.1444
-0.07712
-0.005974
0.01596
-0.1023
-0.0001341
0.06443
0.01373
-0.01076
-0.112
-0.09738
0.04655
-0.148
-0.1433
-0.05767
-0.06172
0.01201
-0.0856
-0.1808
-0.198
-0.009808
0.04457
0.1272
0.003572
-0.1921
-7.022e-05
0.1406
-1.574
0.2995
0.0002318
0.02319
0.05691
-0.1764
-0.1736
0.07495
0.2259
-0.1862
-0.1973
-0.05714
-0.003573
0.1127
-0.03939
0.004792
-0.06538
-0.2584
-0.3759
0.188
-0.2188
-0.002738
0.003815
-0.2714
0.1261
-0.005422
0.04807
-0.0642
-0.178
-0.05215
-0.1886
0.2624
0.01843
-0.2552
0.0006254
0.158
-0.0892
-1.244
-0.04753
-1.883
0.008863
-0.2118
-0.3242
-0.3812
-0.2175
-0.184
-0.05181
-0.02123
-0.334
0.04323
-0.1524
-0.1826
-0.1984
0.01903
-0.1332
-0.1592
0.0135
0.0001091
0.01304
-0.251
-0.05804
0.006478
-0.7847
-0.1904
0.01303
0.2461
-0.1771
-0.004479
0.08665
-3.569e-05
0.009457
-0.4848
8.35e-05
-0.2685
-0.1739
-0.02018
0.004807
0.04153
-0.1775
-0.5315
-0.2002
-0.1236
-0.1756
-0.3485
-0.1314
0.05227
0.004546
-0.3129
-0.005513
-0.1174
-0.1865
0.00597
0.1408
0.0235
0.2166
-0.00452
0.005803
-0.1735
-0.1121
-0.002591
0.5424
-0.1431
0.07505
-0.06489
-0.05806
-0.5034
-0.09289
-0.003544
0.1295
-1.484
-0.01275
0.03477
-5.292e-05
-0.2011
-0.1995
-0.192
-0.0132
-0.3827
0.5858
0.007493
-0.1921
-0.2019
-0.2762
0.01295
-1.492
-0.005976
0.08929
-0.1967
0.01167
-0.2476
-0.05741
-0.07275
-0.5656
0.04474
-0.0292
-0.1462
0.001332
-0.08454
-0.4978
-0.01851
-0.01245
-0.07256
-0.01112
-0.005407
-0.2094
0.01238
-0.05633
-0.2148
0.01159
0.0004614
0.1456
-0.4926
0.006342
-0.005527
-0.2739
-0.1679
-0.05224
-0.09995
-1.711
-0.1187
0.004121
-0.05443
-8.656e-05
-0.1874
0.2267
-0.06618
0.5654
-0.007695
0.004779
-0.2128
-0.02295
-0.1025
0.1791
-0.1965
-0.312
0.01314
-0.1773
-0.2449
0.007039
0.1973
0.2089
-0.09061
-0.4629
0.1335
-0.05608
0.001411
0.009883
0.4614
0.2871
0.4236
0.004517
0.1328
-0.1517
-0.5971
-0.8239
-0.01618
-1.292
-0.1995
-0.04996
-0.1733
-0.1748
0.001327
0.03777
-0.2358
0.2029
-0.001554
-0.1448
0.01
0.4688
0.3894
0.0034
-0.004165
0.005023
-0.06668
-0.1821
0.08134
0.283
-0.1157
-0.06533
0.07151
-0.1731
0.2242
0.003592
0.004434
0.008827
-1.604
0.00124
-0.0763
0.2504
0.05056
0.01368
-0.04092
-0.1729
0.2403
0.1214
-0.1182
-0.8849
-0.001495
-0.2068
0.02854
0.0007133
-0.6889
-0.1734
0.08225
-0.2576
-0.03523
0.2929
0.08961
-0.09414
-0.1512
0.4993
0.3021
-0.7735
0.2177
-0.5264
-0.1158
-0.06105
0.05221
-0.197
-0.1823
-0.1817
-0.08236
-0.1257
0.001004
0.01112
0.002481
0.08617
0.3074
-0.2004
0.2914
0.03366
-0.01425
0.2971
0.05783
-0.2101
-0.2281
0.004995
0.001166
-0.1808
-0.2103
0.0005003
-0.1728
-0.08243
0.04809
-0.04381
-0.1808
-0.3865
0.0114
-0.1807
0.4104
-0.3321
0.1074
0.3108
0.1017
-0.1941
0.003758
0.07956
0.2326
0.008463
0.5836
-0.006404
0.007435
-0.0007963
-0.1868
-0.4058
-0.1788
0.05513
5.575e-05
-0.2201
-0.1151
-0.006238
0.4357
0.003909
-0.008894
-0.1994
0.2277
-1.488
0.002144
0.007346
-0.1802
-0.002658
0.5607
-0.2042
0.2126
-0.1913
-0.05811
-0.4589
-0.2015
-0.2345
-1.397
0.02271
-1.697
-1.002
0.3493
-0.7168
0.007071
-0.1899
0.04619
-0.08886
0.001761
-0.3698
-0.01153
-0.1344
0.1165
-0.1917
-0.1265
0.0002012
-0.1106
0.1594
-0.5445
-0.1812
-0.1914
-0.1795
-0.4715
-0.1371
0.02879
0.005259
-0.123
6.727e-05
-2.944e-05
-0.007746
0.05568
-0.09497
-0.3506
-0.2024
0.3021
0.0005699
0.007685
-0.1347
-0.1309
0.4078
0.03219
0.03501
0.002506
0.001501
-0.004129
-0.1748
-0.1841
-0.2491
-0.1966
0.07236
-0.1469
-0.006589
-0.4368
-0.2773
-0.01181
0.4058
-0.007588
-0.01605
-0.007157
-0.06259
-5.669e-05
0.07337
-0.4098
-0.1869
-0.1854
0.08972
0.2236
-0.01226
-0.1762
-0.1971
0.3119
-0.1402
-0.006287
0.07522
0.06015
-0.05063
-0.25
-0.04013
-0.1151
0.5508
-4.313e-05
-0.05631
0.2497
0.0003534
-0.01862
-0.06296
0.01418
0.1359
-0.1114
0.003362
-0.128
-0.1699
-0.2046
0.005019
-0.2565
-0.03475
-0.424
-0.1743
0.02526
-0.2031
-0.05143
-0.1347
-0.4756
-0.09298
0.1867
-0.1796
0.02853
-0.01276
0.003345
-0.2212
-0.1817
-0.1947
-0.1485
-0.1981
0.1324
-0.04946
-0.3457
-0.2014
0.1988
-0.2075
-0.2242
-0.2002
-0.183
0.1702
0.07623
0.07988
-0.009481
-0.1782
-0.5342
0.04251
-0.1765
-0.1572
-0.1962
-0.08695
-0.2048
-0.1867
0.4114
0.006063
0.008338
-0.06553
-0.1808
-0.07171
0.3379
-0.2025
-0.1082
-0.192
0.001007
0.5842
-0.1983
0.03054
-0.1962
0.1476
-0.1915
4.06e-05
-4.226e-05
-0.005624
-0.3338
-0.1771
0.2796
-0.7657
0.04355
-0.1346
-0.2068
-0.07776
0.05321
-0.0548
-0.144
-0.4283
0.02892
0.3274
0.01151
-1.189
0.01665
-0.1619
-0.09109
0.3309
-0.1951
0.007255
-0.01055
-0.5891
0.1267
-0.06829
-0.01269
0.0747
0.02999
-0.2619
-0.5714
0.008
-0.02569
-0.2195
1.178e-05
0.02135
-0.04893
-0.1768
-0.1854
-0.1918
0.03389
-0.1745
0.1151
-0.2073
-0.1306
-0.2037
0.01335
-0.1263
0.2144
0.3255
-0.3358
-0.1926
-0.1866
-0.003035
0.0006933
-0.003294
-0.07994
-1.179
-1.475
-0.1475
0.1007
-0.001905
0.05193
-0.1579
0.03464
0.01703
0.2201
-0.0601
-0.02293
-0.0255
0.1973
0.1057
-0.05259
-0.03839
-0.0807
-0.1817
-0.1946
-0.09006
-0.2018
-0.5047
0.009626
0.1669
-0.2983
0.3666
0.007431
-0.1744
-0.07666
-0.1823
-0.2081
0.0655
0.09154
0.006449
-0.2707
0.328
-0.0476
-0.004332
-0.02577
-0.1831
-0.219
-0.1595
-0.2181
-0.2052
0.0007533
-0.04343
-0.1321
-1.859
-0.2534
0.3781
0.08
-3.26e-05
-1.193
0.01372
0.04027
-0.182
0.2981
-0.1831
-0.01026
0.3622
-0.1242
0.001995
-0.203
0.03256
0.004639
0.00987
-0.1813
-0.1975
-0.1791
-0.1335
-0.09889
0.0001302
-1.199
-0.2716
-0.2034
-0.1865
0.15
0.007584
-0.1836
0.09294
-0.181
-0.004167
-0.003588
-0.9813
0.4531
-0.0089
0.03038
-0.1532
0.1494
-0.1565
-0.09749
0.03582
-0.1315
-0.0007158
0.2254
-0.002813
0.3458
-0.6799
-0.08274
0.005802
-0.06422
-0.1809
-0.2016
-0.4667
-0.0002622
-0.005907
2.277e-05
0.1187
-0.1947
-0.1083
-0.05842
-0.01115
-0.7449
0.001203
-0.103
-0.1417
-0.2204
-0.1885
-0.07192
6.75e-05
-0.005854
-0.08845
-0.5607
-0.1911
-0.1569
0.007216
-0.1395
-0.03499
0.2326
-0.1763
-0.000814
-0.07266
-0.05205
0.0128
-0.1745
-0.006318
0.001015
-1.5
-0.2421
0.167
-0.001718
0.02414
-0.07588
0.0513
0.4303
-0.007028
-0.1744
0.4305
-0.1962
-0.2013
0.2458
-0.6953
-0.08682
0.1501
0.06696
0.3759
-0.1941
-0.1776
0.06384
-0.005837
-0.9012
-0.2038
-0.04551
0.06531
-0.06812
-0.02779
0.4818
-0.01002
-0.01344
0.4763
-0.06944
9.628e-05
0.007288
-0.2395
-0.1043
-0.007285
-0.1793
-0.2557
-0.05592
-0.1816
0.2424
-0.08268
-0.13
-0.1918
-0.6601
0.4571
0.008358
0.5312
-0.3116
0.1274
0.09322
-0.4925
0.01542
0.01333
-0.1797
0.04822
0.4035
0.04415
0.2953
-5.793e-05
0.01099
0.5004
0.006752
0.001145
-9.786e-05
0.01243
0.05492
-0.1739
-0.1322
-0.06328
-0.2226
0.03605
-0.2007
-0.1346
-0.09495
-0.07133
-0.2097
-0.3847
-0.1831
0.08284
0.01285
0.388
-0.005169
4.556e-05
-0.1217
-0.1751
-0.1844
0.2431
0.1974
-0.1904
0.01082
0.0002905
0.2668
-0.1805
-0.3136
0.5332
-0.0006512
0.07357
-0.2074
-0.001104
-0.06419
0.1821
-0.1357
0.0001467
-0.3868
-0.713
-0.0003049
0.3277
-0.07698
0.1042
0.2458
-0.007664
0.02195
-0.008855
0.06278
0.1672
-0.003487
-0.2055
-0.1383
-0.4326
-6.729e-05
-0.031
-0.1797
-2.186e-05
-0.05809
-0.2409
0.004031
0.0245
6.289e-05
0.02625
-0.1136
0.02078
-0.02045
0.008216
-8.974e-05
-0.00751
-1.508
0.08105
-0.02179
-0.2201
-0.1422
-0.1735
-0.1766
-0.1796
0.2226
-0.201
-0.183
0.3157
-0.00287
-0.2006
-0.007985
0.03973
0.547
-0.003659
-0.04121
-0.1815
-0.169
-0.2682
-0.1916
-0.1988
0.004509
0.2115
0.001037
-0.07608
-0.752
0.004725
-0.08915
0.3477
-0.2111
-0.01055
-0.4263
-0.1991
0.522
-0.07428
0.0311
0.2898
0.1583
-0.1814
-1.261
-0.2095
0.3162
-0.008311
-0.1589
0.1134
-0.2012
0.03402
0.2107
0.005078
-0.7293
-0.02199
-0.1839
0.02273
-0.249
-0.1262
-1.853
-0.001982
0.002178
-0.2435
-0.08769
0.000194
0.4415
-0.144
0.09047
0.2636
-0.09626
0.16
-0.02885
0.04865
-0.5571
-0.7204
-0.1781
-0.4981
-1.16
0.3493
-0.02493
0.2548
-0.2311
-0.1399
0.007704
0.5544
-0.1832
0.4728
-0.2658
-0.003606
0.01255
0.01432
-0.2741
-0.2378
0.006204
0.04972
-0.209
0.411
0.2206
0.2073
-0.01474
-0.02623
0.07114
-0.5725
-0.006521
-0.1747
0.002531
-0.003897
-0.307
-0.1083
-4.022e-05
-0.6851
0.4622
-0.08016
-0.2374
-0.01721
-0.1805
-0.4476
-0.06453
-0.03416
-0.1446
-0.2037
-0.4999
-0.2839
0.01313
0.005757
-0.1282
-0.1208
-0.007477
-0.2037
0.03592
-0.1749
-0.1191
-1.871e-05
0.36
-0.01835
-0.182
-0.0994
-0.1063
0.007937
0.1864
0.1221
0.09457
-0.2422
0.06727
-0.001699
0.002122
0.3007
-0.1815
-0.01096
0.01254
-0.2251
0.4465
-0.1977
-0.02217
-0.2002
-0.001545
0.009852
-0.2881
-0.0308
3.057e-05
0.06267
-0.165
0.04878
-0.09921
0.001481
0.1146
-0.0006208
0.1077
-0.1911
-0.1824
0.04446
-0.1811
0.02274
-0.6889
-0.1804
-0.181
0.06566
0.2221
-0.1979
0.3074
-0.182
-0.229
0.0003095
0.005445
0.08966
-0.229
0.008682
-0.0009966
-0.1723
-0.1656
-0.1843
0.003587
0.06035
-0.01486
-0.004175
-0.2099
-0.6173
-0.2215
0.07402
-0.09725
-0.1711
-1.802
0.01921
-0.03501
-0.2043
0.08223
0.4569
0.023
-0.001406
0.002371
0.2592
0.01653
0.001341
1.743e-05
0.04031
0.007661
-0.1948
-2.609e-05
-0.1044
-0.2007
0.1014
-0.1809
0.07219
-0.001139
0.04383
0.5213
-1.388
-0.1758
-0.06193
-0.2066
0.05834
-0.2054
0.1137
-0.05894
0.4551
-0.1864
0.5717
0.03374
0.09573
-0.9324
-0.1558
-0.4325
-0.1035
-0.1059
-0.177
-0.1826
0.5462
-0.07973
0.01383
0.0007162
-1.966
-0.1746
-0.03923
0.4665
-0.002107
-0.1992
-0.195
-0.2918
-0.2456
-0.2005
-0.01624
0.1851
-0.1452
-1.159
0.273
0.5792
-0.005255
0.0273
0.07484
-0.167
0.2737
-0.009212
-0.1298
-0.08143
0.007873
-0.1481
-0.1444
-0.1772
0.1405
-0.2241
0.3161
-0.5428
-0.004069
-0.01934
0.4521
0.08024
-0.09416
0.04791
-0.5839
-0.3262
0.008084
0.0114
-0.006727
-0.005507
-0.06834
-0.2217
-0.0298
-0.07194
-0.1707
-0.0002925
-0.5804
-0.0008158
0.09755
-0.00567
-0.009164
0.0175
-0.3039
-0.184
-0.2225
-0.02393
-0.2189
-0.257
0.07014
-0.2072
-1.173
-0.03878
-0.05936
-0.06317
0.3078
0.1421
-0.1771
0.1353
-0.04985
0.5418
-0.6779
-0.1837
-0.9109
-0.05767
0.007127
-0.2343
-0.177
-0.1935
0.4217
-0.005554
-0.06226
-0.1947
-0.1918
-1.864
-0.1762
0.5443
-0.06036
-0.007013
-0.2319
0.4705
0.0584
0.2233
-0.1558
-0.01088
0.1441
-0.1783
0.001191
-0.9037
0.2545
-0.05907
-0.06283
-0.04145
-1.337
-0.1843
-0.5585
0.02804
-0.199
0.01404
0.01407
0.1004
-0.2345
0.001248
-0.524
-0.222
-0.1757
0.08949
-0.02664
0.4464
-0.1743
-0.1956
-0.1735
-0.1055
-0.2037
-0.2414
-0.07522
0.005614
0.2345
0.03909
0.04394
0.004977
0.02151
0.2786
0.06177
0.1962
0.09911
0.08846
0.03167
-0.07714
0.03899
0.00796
0.2144
0.2036
-0.4779
-0.09246
-0.1802
-0.2126
-0.06537
-0.7395
-0.2171
-0.1725
-0.2013
-0.1769
-0.1928
-0.1807
-0.2526
-0.04242
0.001106
-0.726
0.0007436
-0.1821
-1.637
-0.1774
-0.7847
-0.5242
-0.05745
-0.1725
0.1007
-1.606e-05
0.1811
-0.00369
-0.006027
0.5135
0.007624
-0.227
0.001624
0.3057
-0.1465
-1.71
-0.2055
0.01229
-0.5404
0.4019
-0.1735
0.5545
-0.06221
-0.1805
0.00931
0.05975
8.169e-05
-0.04543
0.1054
-0.06247
-0.217
0.0002333
-0.03606
0.2155
-0.06194
-0.08238
-0.06251
0.2784
0.4507
0.05133
-0.209
-0.5977
-0.3764
-0.07032
-0.1954
-0.09006
-0.02305
-6.321e-05
-1.18
-0.8552
0.002732
-0.1907
-0.07914
-0.698
-0.2348
-0.09485
-0.1799
0.003226
-0.1756
-0.1952
-0.5636
0.06706
3.3e-05
-0.1847
-0.2351
-0.08127
0.007764
-0.1809
-0.003719
-0.06991
-0.155
-0.002767
-0.558
-0.1771
0.0718
0.3067
-0.0005094
0.1619
0.4377
-0.06157
-0.3798
4.206e-05
-0.1495
4.373e-06
0.0001887
-0.4743
0.003401
0.05425
0.4115
-0.1996
-0.09131
0.01442
0.06995
-0.03198
-0.2146
0.03306
0.3306
-0.1739
0.02351
-1.795
0.006974
-0.2437
0.02473
-0.1815
0.00248
-0.1825
-0.2071
0.001476
0.02021
0.006615
0.001696
0.005644
0.1354
0.007704
-0.02565
-0.2056
-0.03312
0.1185
-0.1415
-0.1163
0.2036
0.4086
-0.000485
-0.3422
-0.04539
0.007948
-0.1767
0.005144
-0.1742
0.06158
-0.5019
7.702e-05
0.0001111
0.02097
0.3312
-0.1843
-0.002887
-0.1821
0.1724
-0.1394
-0.215
-0.1991
0.03895
-1.079e-07
-0.01514
0.0213
-0.1099
-0.02919
-0.0001791
-0.1577
-0.2153
0.3796
-0.03697
-0.2657
-0.03988
0.006924
0.1965
0.1742
0.3609
-0.016
-0.7013
-0.002892
-0.1824
-0.2094
-0.2311
0.5339
0.007218
0.1811
-0.949
0.003186
-0.1338
0.0259
0.06945
-0.2055
-0.1858
-0.4806
0.08392
0.1135
-0.003491
-0.2213
-0.2072
-0.004016
-0.05819
-0.176
-0.1963
-0.123
0.1508
-0.03244
-0.3531
0.009063
-0.6393
0.3842
0.4254
0.008876
0.0001654
0.04852
-0.0111
-0.1093
-0.02672
0.4587
0.04964
-0.1985
-0.164
-0.2616
0.001224
-0.1795
-0.001213
-0.006922
0.005288
-0.3123
0.2535
0.07973
0.01472
-0.002064
-1.189
-0.1462
-0.2054
-0.1254
-0.5296
0.5812
-0.3135
-1.398
-0.004344
-0.07052
1.203e-05
-0.06706
0.05981
-0.2059
-0.1917
0.03626
-3.35e-05
-0.1741
0.5723
-0.1596
-0.1306
0.000536
-0.1771
0.07369
-0.2454
-0.2218
-0.001128
-0.2163
-0.1818
-0.203
0.0457
-0.1746
-0.08351
0.1205
0.2702
-0.04774
-0.09382
-5.03e-05
-1.193
-0.2003
0.104
-0.04738
0.1224
-0.2242
-0.01549
-0.1468
0.0127
9.073e-05
-0.02415
0.08809
-6.383e-05
2.714e-05
-0.03586
0.5436
7.987e-05
-0.02953
-0.08621
-0.009058
0.2178
0.2711
0.5742
-1.315
-0.181
0.1684
0.1686
-0.1847
-0.198
0.443
-0.005527
0.3167
0.005483
0.05492
-0.225
-0.07978
0.009038
-0.3883
-0.2243
-0.2826
-0.08491
0.4511
-0.01628
0.427
0.235
0.02717
0.3804
-0.05899
0.0949
-0.0003072
0.06116
0.02944
0.03756
0.007343
-0.01689
-0.02633
0.2148
-0.1995
0.07153
0.2344
-0.1795
0.003965
0.1604
-0.1727
1.25e-05
-0.0005744
-0.05339
-0.1509
-0.1943
-0.3527
-0.03272
0.008509
0.006493
0.00923
-0.1507
-0.102
0.01061
-0.1873
-0.000418
0.04355
-0.03957
0.004189
0.09319
-0.2485
-0.08957
0.004832
-0.1028
0.04216
-0.01161
-0.1974
-0.5063
0.2902
0.3153
-0.1029
0.009899
-0.1813
-0.1236
-0.0001612
-0.1929
-0.336
-0.2047
0.03241
-0.2352
-0.09286
0.06829
-0.04734
0.05276
-0.07577
-0.07355
-0.2021
0.02571
0.1935
-0.1908
-0.001778
0.1792
-3.524e-05
-0.02689
0.009458
0.1855
0.305
-0.1819
0.01827
0.09197
-0.1572
0.07598
0.0738
-0.193
-0.1938
-0.1058
-0.0008829
-0.182
0.03246
-0.2089
0.2296
-0.1925
-0.0007691
-0.008918
0.3391
-0.1729
-1.876
-2.018
0.3948
-0.208
-0.1812
-0.03352
-0.3439
-0.007627
0.4561
0.1597
-0.4918
-0.149
0.023
0.549
-0.7144
-0.05258
-0.1892
-0.7726
0.05961
0.4447
0.02667
-0.0303
-0.02428
-0.1251
-0.08221
-0.009242
0.2621
0.1466
-0.004539
-0.1695
-0.0362
-0.1748
-0.09527
0.06087
0.2354
-0.01705
-0.1025
-0.01011
-0.2083
-0.02165
-1.977
-0.2068
-0.1757
0.06721
-0.1763
-0.2174
-0.1226
-0.04394
-0.2461
0.0004629
-0.4818
-0.1853
0.1155
-0.2365
-0.2308
-0.07203
-0.5156
-0.2073
0.009282
-0.1748
0.01218
-0.007076
0.004288
-0.5255
7.222e-05
0.004685
-0.09573
0.3707
-0.008636
-0.04268
-0.1492
-0.1956
-0.004726
-0.1606
-0.2383
0.4378
-0.1994
-0.1242
-0.1921
-0.0006072
-0.1732
-0.2275
0.03254
-0.8465
0.000113
-0.004799
0.2151
0.5648
-0.1383
-0.08477
-0.002464
0.06001
0.2814
-0.3921
-0.001334
-0.1741
-0.1802
-0.002631
-0.1023
-0.0002278
-0.00436
-0.7395
-0.1433
3.633e-05
2.086e-05
-1.821e-05
0.000414
-0.1056
-0.05431
0.1323
0.1032
-0.2046
-0.1493
-0.1832
0.003553
-0.08599
-0.8436
-0.1809
0.01163
-0.00548
-0.1817
0.3451
7.481e-05
-0.1746
-0.7217
-0.2069
-0.2936
0.2435
0.02293
-0.1496
0.0212
-0.09554
-0.01005
0.01663
-0.0116
-0.258
-0.09514
0.3419
0.1504
-0.1864
-0.09341
6.388e-06
0.008213
0.2161
-0.4123
-0.003228
0.1606
-0.00126
6.314e-06
-0.01808
0.3887
-0.2103
-0.009661
-0.2037
0.005015
0.2713
0.007413
-0.2061
-0.005807
0.07511
-0.1278
5.011e-05
-0.8005
-0.2306
-0.1866
-0.174
0.3445
0.0676
0.03615
0.5025
0.08007
-0.1741
-0.1099
-0.249
-0.03053
-0.09692
-1.128
0.2776
0.01155
2.974e-05
-0.1808
0.003744
-0.1928
0.05892
-0.1126
-0.008362
-0.1792
0.02478
0.0287
0.009698
-0.4847
-0.1897
0.4644
0.009218
0.000913
-0.1652
0.01359
-0.03485
-0.1419
0.08385
-0.1765
-0.0959
-0.0002272
-0.04546
0.2707
0.02984
0.1781
-0.1908
-0.1813
-0.06541
-0.1741
0.0006009
-0.6324
0.03617
5.524e-05
-0.2463
-0.1867
-0.08541
-0.01649
-1.186
0.1438
-0.1925
-0.1894
-0.1814
-0.09014
0.2118
0.2452
-0.2617
-0.04539
-0.2285
-0.004889
-0.1927
-9.571e-05
-0.1916
-0.0333
-1.707
-0.154
-0.08304
-0.0185
0.008178
-0.03612
0.5314
-0.1731
0.1797
-0.2199
3.741e-05
-0.5294
-0.249
-0.05324
-0.08237
-0.02285
-0.2002
-0.1805
-0.4587
0.02219
0.008697
0.07685
-0.1802
0.1522
-0.5388
-0.1762
-0.001392
-0.1772
0.06101
0.5262
-0.1898
-0.00181
0.007692
-0.007132
-0.1829
0.3635
-0.08775
-0.3657
-0.2288
-0.1741
-0.02159
0.04348
0.004262
-0.6258
-0.001963
-0.1891
-0.1129
-0.5844
-0.01599
-0.01118
0.004533
-0.1758
-0.2496
0.0005819
0.5014
0.02137
0.2339
0.02327
0.4454
-0.5476
-0.1027
-0.1759
-0.4214
-0.0003239
0.09838
-0.1815
-0.3793
-0.00889
-0.2079
0.1208
0.2016
0.09
-0.4782
-0.006485
-0.001059
0.02664
-0.07907
0.2333
-0.2321
-0.2528
-0.1895
-0.03763
0.003552
-0.1895
-0.2128
-0.002703
-0.001047
-0.1922
-0.006269
0.005534
-0.5215
-0.2362
-0.1734
-0.2025
0.2948
0.04031
-0.1787
0.003341
-0.09356
-2.824e-05
0.04225
-0.1533
0.37
-0.2171
0.01078
0.0646
-0.1812
-0.2805
-0.1358
-0.00387
-0.2675
0.2067
-0.002223
0.547
4.003e-05
-0.0001497
0.07354
-0.07732
-0.5473
-0.09672
-1.458
-0.1891
0.3336
0.06859
-0.4757
-0.1023
-0.1856
-0.2619
-0.1641
-0.1085
-0.1965
2.296e-05
-0.001056
3.297e-05
-0.4817
-0.003501
-0.1814
0.5477
-0.1063
-0.3686
-1.007
0.1476
-0.09191
-0.008552
-0.1623
0.005864
-0.1927
-0.181
-0.08841
-0.002226
-0.01422
-1.486
0.2621
0.3799
-0.199
0.06626
0.02106
-0.04305
-0.1943
0.4631
0.09566
0.09214
-3.996e-05
2.231e-06
0.03032
-0.2059
-0.2094
0.01214
-0.268
-0.4987
-0.1958
-0.2572
0.008196
-0.0161
-0.2925
0.09962
-0.148
0.1933
-0.5624
-0.1294
-0.1976
-0.04086
-1.797e-05
0.006871
-0.2031
0.04868
-0.02019
-0.4938
0.02635
0.5688
-0.01181
-0.01974
-0.1811
-0.005321
-0.1945
0.07231
-0.2261
0.2238
-0.0008477
-0.3452
-0.005694
-0.009228
-0.1712
0.03428
0.1221
-0.02436
-0.03457
-0.1808
0.1263
0.4135
-1.77
-0.2111
0.2828
-0.02495
0.0225
0.06147
-0.02259
-0.4142
0.2441
0.3027
-0.4851
-0.1904
-0.1748
0.001886
-0.005473
0.4195
-0.1909
-0.2125
0.05543
0.09629
-0.276
0.08127
0.1789
0.3103
-0.1999
-0.4945
0.05604
0.08712
-0.03564
0.1307
-0.008673
-0.2415
0.06044
0.2444
-0.07228
0.002226
-0.06438
-0.1185
-1.311
-0.6
0.0001409
-0.001844
0.004049
0.4824
0.003094
0.08038
-0.0004929
-0.1779
-0.1056
-0.1469
-0.1544
-0.1771
-0.05412
-0.1526
-0.4759
-0.1049
-0.06045
0.5056
-0.2157
-0.1979
0.1246
-0.003628
0.07683
-0.9814
-0.2078
-1.889
-0.1783
0.2541
-0.3024
-0.01512
-0.1846
-0.3489
-0.2837
0.00503
0.003324
0.2099
-0.1218
0.1237
0.07715
0.07958
-0.009178
-0.000888
-0.5551
0.2361
-7.302e-05
-0.03703
0.01447
-0.001123
-0.002695
0.00354
0.0454
-0.08846
-0.2054
-0.01538
-0.1918
-0.003191
-0.0564
-0.1127
-0.2632
0.1048
-0.2267
-0.2767
0.567
-0.5123
0.1958
0.5435
-0.2248
-0.003433
-0.2405
0.05583
0.1629
0.0001842
0.3372
-0.1795
0.1454
-0.007994
0.1077
-0.04558
-0.3656
0.06644
-0.1813
-0.001405
0.2415
-0.2496
0.0345
-0.009066
-0.2086
-0.4179
0.03584
-0.3094
0.3314
0.4272
-0.006113
-0.2202
-0.1316
0.3327
-0.001752
-0.1049
0.003823
0.5435
-0.2144
-0.0938
-0.1787
-0.2037
0.2488
0.009722
0.07917
-0.3956
-0.128
-0.007146
-0.0006235
-0.28
0.3896
-0.01729
0.5598
-0.5061
0.09857
0.5128
-9.174e-05
-1.373
-0.1929
-0.1383
-0.1808
0.005361
-0.422
0.007395
-0.00157
0.2469
-0.2128
-0.2229
-0.1966
-0.1816
-0.1717
-0.1799
0.03803
-0.2127
0.1137
0.5401
-0.2047
-0.1851
-0.05208
0.03694
0.155
-0.2128
-0.001771
-0.1815
0.01414
-0.308
0.1133
-0.004582
0.3469
0.1335
-0.4879
-0.8797
-0.1939
-0.1968
-0.1971
-0.07237
-2.144e-05
-0.09648
0.1144
0.1932
0.02676
-0.2148
-0.0462
-0.06108
-0.1885
-0.1816
0.01291
-0.213
0.1691
0.1582
-0.01733
0.5109
-0.08535
0.158
-0.4814
-0.3007
-1.183
0.4605
0.08211
-0.1854
0.06304
-0.2324
0.1481
0.2613
-0.001425
-0.05706
-0.01773
-0.1772
-0.01781
-0.09149
-0.3807
0.06027
-0.06633
-1.796
-0.1811
-0.07102
0.02011
0.005389
0.2315
0.09594
0.06322
0.3079
0.05958
-0.16
0.04285
-0.1808
-0.07307
-0.1823
0.03321
-0.1733
-0.3933
-0.1415
-0.2673
-0.02862
0.09152
-0.1699
0.4572
-0.2046
-0.1725
-0.1346
0.5185
-0.2332
0.01428
-0.7797
-0.2143
-0.137
-1.198
-0.04859
0.005076
0.3103
-0.003371
-0.1343
-0.1991
0.005581
-0.08967
0.09231
0.04279
-0.1737
0.01339
-0.1972
-0.006518
-0.04719
-0.1817
0.05878
-0.1645
-1.29
-0.005385
-0.02131
-0.385
-0.2221
-0.2135
-0.6184
0.03268
-0.2314
0.2514
-0.01618
0.0094
0.00687
0.09269
2.717e-05
-0.1734
0.3284
-0.2048
0.115
0.5242
-0.1376
0.2168
-0.4111
0.007506
-2.345e-05
-0.6589
0.05467
-0.2327
0.1088
0.00764
0.08267
0.0001178
-0.2092
0.5111
0.0445
0.1029
0.08754
-0.3526
0.3273
-0.09742
-0.1534
-0.03755
0.4001
-0.003182
-0.2414
0.08477
-0.3202
-0.1824
0.005456
-0.01344
0.01452
-0.2075
-0.1555
0.4317
-0.01975
-0.1412
-0.009422
0.009722
-0.1788
-0.1744
0.3148
0.007694
0.007601
-0.1759
0.05192
0.2873
0.08615
-0.03461
-0.2019
0.03257
-0.03204
0.004907
-0.1931
-0.2159
-0.1108
0.005119
-0.2253
0.2528
0.07712
-0.1365
-0.2117
-0.4806
0.2189
-0.3564
-0.216
0.0235
-0.174
-0.2129
0.0003368
0.2844
-0.2306
-0.151
0.0003464
0.1657
-1.228e-05
-0.06738
-0.1531
-0.1929
-0.0314
-0.1778
-0.5587
0.02262
-0.1865
-0.1798
0.01673
-4.679e-05
0.008182
-0.6888
-0.09924
-0.155
-0.03588
-0.0009298
-0.003131
-0.1453
0.1129
0.004949
-0.4822
-0.02311
0.1971
-0.03941
-1.197
-0.2537
-0.0004043
-0.4109
-0.2632
-0.0121
-0.01724
-0.2517
-0.2502
-0.2375
-0.5798
-0.0201
0.009925
0.02794
0.1198
-0.1293
0.1146
-0.09446
0.009117
-0.1343
-0.1322
-0.1779
0.3297
-1.417
0.04755
-0.2059
-0.1813
-0.3242
0.2094
0.00261
-0.003085
-0.01371
0.2073
-0.1427
-0.2594
-2.029
0.06304
0.05699
-0.01864
5.549e-05
-0.005041
-0.05642
-0.05388
0.006642
-0.164
-0.1628
0.06666
-0.1255
0.06514
-0.03381
-0.6976
-1.011
-0.2435
0.2866
0.001142
-0.0002807
0.1323
0.009422
-0.002517
0.2333
0.4109
-0.008164
-0.205
-0.188
-0.2584
0.3261
-0.1805
-0.1778
-0.02581
0.008072
-0.2204
0.3227
-0.0155
0.02925
0.1511
-0.05672
0.08553
-0.1747
0.008045
-0.2179
-5.021e-05
0.398
-0.1913
-0.205
0.002501
-0.2241
0.004137
-0.1818
-5.871e-05
-0.01228
-0.04568
-0.1595
0.2854
-0.002188
-0.00123
0.05123
-2.091
0.1698
-0.1616
0.004736
-0.1963
0.4279
0.1216
0.04279
-0.4108
0.5626
-0.1066
0.5029
-0.102
-0.07047
0.1376
-0.116
-0.01083
-1.889
-0.1794
0.2565
-0.2345
-0.0006699
-0.2374
0.005304
-0.0604
-0.1006
-0.2068
0.004411
-0.001118
-0.2048
0.02921
-0.1979
0.2897
-0.1353
0.1389
-0.002876
0.03146
-0.289
-0.1759
-0.0785
0.01468
-0.002885
0.005662
-0.206
0.003625
-0.1795
-0.006963
0.03691
-0.000358
-0.07361
-0.1432
-0.05853
0.0003381
-0.5211
-0.1051
-0.2149
-0.07474
0.00643
-0.2195
-0.203
0.05813
-0.2954
-0.1757
-0.4222
0.2257
-0.002182
0.01582
-0.06637
-0.1769
0.04109
-0.01075
0.004692
-0.1924
0.1924
-0.2334
-0.06878
-0.1962
0.441
-0.461
-0.01279
-0.2091
-0.194
0.2065
-0.2581
0.2449
-1.293
2.863e-05
0.3726
-0.005686
0.3009
-0.05345
-0.005671
-0.002854
-0.1524
0.323
-0.01036
-0.06209
0.4291
0.03408
-0.1927
0.001761
-0.07392
0.5118
-0.519
-0.7446
-0.2143
-0.2286
-0.1781
-0.1557
0.004806
0.05549
-0.05087
-0.5166
0.1209
0.07986
-0.2316
0.005371
0.04173
-0.005633
-0.2375
-0.2453
-0.1912
-0.07122
-0.00479
-0.000499
-0.1919
0.02691
-0.1819
-0.2043
0.0002122
0.0003949
0.1671
0.3694
0.09169
-0.5791
0.4628
-0.4968
-0.1292
0.5375
0.0004681
-0.1091
-0.2
-0.7196
-0.1504
-0.1831
-0.1978
-0.4798
-0.2161
-0.1962
-0.1313
0.4751
-0.08243
-0.2335
0.01023
-0.6512
0.05215
-0.1893
-0.09338
0.03011
-0.219
-0.04705
-0.1408
-0.2353
-0.1003
0.2126
-0.18
0.001216
-0.0476
-0.1799
-0.1895
0.02606
-0.05537
-0.2049
-0.1931
-0.2386
0.2525
-0.8383
0.2915
-0.03344
-0.5596
-0.1901
-0.558
0.04706
0.2207
-0.2398
-0.2838
-0.1228
0.04564
-0.1749
0.01955
-0.09848
0.3741
-0.1804
0.1197
0.0003534
0.2022
-1.446
-0.1941
-0.005243
0.0008189
-0.005548
0.00958
-0.03514
-0.09812
0.1455
0.2202
0.0004733
0.07803
-0.0153
-0.06199
-1.449
0.5638
-0.2167
0.0001862
-0.2169
0.04159
-0.2261
0.006893
-0.1363
-0.1822
-0.6829
-0.1781
0.004907
0.01281
0.04488
-0.0002122
-0.1816
-1.612
-0.282
-0.00689
0.06272
-0.6098
-0.1953
-0.1087
0.4813
0.3731
-0.09246
-0.06502
-0.06024
-0.2049
-0.184
-0.07677
0.3111
-0.204
0.03438
-0.1645
0.4363
-0.1707
-0.1767
-0.1959
-0.02008
0.1722
0.2091
-0.8474
0.05728
-0.1958
0.4051
0.2945
-0.1947
0.1068
-0.1888
-0.1558
-0.1567
-0.09829
0.00567
0.5707
-0.2743
-0.5595
-0.1935
0.1523
-0.3559
-0.4171
-1.042e-05
0.4278
-0.2254
-0.1841
-0.04097
-0.1154
-0.2474
0.2274
0.121
-0.2029
-0.09409
0.2215
0.005623
-0.08854
0.0215
0.5852
0.1863
0.2815
-0.1888
0.01942
-0.4687
-0.1043
0.01863
-0.07432
0.1215
-0.3093
-1.151
-0.1294
-0.0285
-0.1841
-0.0512
0.5405
-0.2381
0.1967
0.2942
0.4
0.5121
0.3173
0.07367
-3.298e-05
-0.03384
-0.2147
0.1505
-0.003115
0.07597
-0.1819
-0.1015
-0.1638
-1.136
0.03966
0.2403
0.4683
0.02177
0.00804
0.004708
-5.657e-05
0.03861
0.537
-1.162
0.5851
-0.2563
-0.02732
-0.003935
0.06815
-0.06199
-0.001645
-0.08881
-0.1489
0.03992
-0.07938
0.0004195
-0.1729
0.2196
-0.006578
-0.01115
-0.197
-0.2768
-0.2024
0.0008787
0.1136
0.1401
-0.00348
0.001957
-0.02589
-0.2317
-0.7577
-0.09976
-0.01366
0.2008
-0.1822
-0.1319
0.03901
-0.004737
-0.6023
-0.05651
-0.03758
0.003309
-0.0005475
-0.0002654
-0.1804
0.01291
5.934e-05
-0.0735
-0.2858
-0.3233
-0.1725
-0.06501
0.04992
0.1421
0.2288
0.3054
-0.02018
0.0702
-0.1654
-1.409
0.1936
-0.2704
1.712e-05
0.006362
-0.2452
-0.1811
-0.01681
0.2166
-0.4718
-0.06008
-0.08905
-1.895
0.0173
0.006695
-0.1899
0.2381
0.315
-0.006574
0.1031
-0.007953
-0.3464
-0.1794
-0.13
-0.04348
0.0006013
0.1346
-0.1976
0.2575
-0.1738
0.09032
-0.1771
0.2297
-0.1146
-0.1814
-0.6738
-0.01849
0.5865
-0.1707
-0.00757
0.2692
-0.1774
-0.2251
-0.1979
-0.0822
0.2297
-0.1438
0.004764
-0.03993
0.4145
0.001795
0.006864
0.2983
0.001566
-0.00263
0.09448
-0.4094
-0.1269
-0.4034
-0.1953
0.2231
-0.1967
0.01832
-0.3036
-0.2245
-3.129e-05
-0.08583
0.3464
-0.1915
-0.0477
-0.1827
0.2093
0.0002191
0.001259
0.02742
-0.03908
0.1819
0.007971
-0.2534
-0.2273
-0.3299
0.04037
-0.9889
-0.002104
0.1131
0.2858
-0.003753
-0.239
-0.1759
-0.1821
0.004887
-0.2062
0.4159
-0.1821
-0.1015
0.038
0.07424
0.007898