/*--------------------------------*- C++ -*----------------------------------*\
| =========                 |                                                 |
| \\      /  F ield         | OpenFOAM: The Open Source CFD Toolbox           |
|  \\    /   O peration     | Version:  v2012                                 |
|   \\  /    A nd           | Website:  www.openfoam.com                      |
|    \\/     M anipulation  |                                                 |
\*---------------------------------------------------------------------------*/
FoamFile
{
    version     2.0;
    format      ascii;
    class       volScalarField;
    location    "5";
    object      p;
}
// * * * * * * * * * * * * * * * * * * * * * * * * * * * * * * * * * * * * * //

dimensions      [0 2 -2 0 0 0 0];


internalField   nonuniform List<scalar> 
100503
(
-0.2928
-0.3098
-0.1401
-0.1261
-0.3074
-0.334
-0.1333
-1.021
-0.5306
-0.21
-0.99
0.6404
0.6119
0.3377
-0.7341
0.6657
0.4017
-1.066
-0.04696
0.4211
-1.038
-1.245
-0.3115
-0.9555
-0.125
-1.094
-1.068
-0.8199
0.4126
-0.1552
-0.2962
1.146
1.148
0.1686
-0.5765
0.5803
0.1694
-0.3381
0.0008853
0.4122
0.1426
0.05181
-0.212
0.4439
-0.863
-0.2351
0.06026
-0.8664
0.1856
-0.8279
-0.1353
0.4416
0.7103
0.9875
0.4435
-0.9519
0.0744
-0.2328
0.5512
-0.196
-0.056
-0.7037
-0.2042
0.5221
-1.018
0.4071
0.02762
-0.4443
0.4123
0.8757
0.3259
-0.08101
-0.3987
-0.8203
0.1625
0.03471
-0.2226
4.482e-05
6.631e-05
0.519
-0.8224
-0.1999
0.08125
0.0533
-0.2809
0.001049
-0.2432
-0.4871
0.552
1.625
0.7084
-0.3521
-0.5059
0.04231
0.04232
-0.01133
-0.3942
0.07697
-4.179e-05
0.0001243
-0.4155
-0.1482
0.262
-0.106
0.7264
0.02191
-0.5486
-0.1613
0.3411
0.1587
0.5506
-0.578
1.113
0.1389
-0.2602
-0.2132
-0.236
0.3691
1.091
0.05972
-0.2892
-0.08228
-0.2032
1.115
1.223
0.07129
0.1656
0.4847
0.2313
-0.02039
0.6637
-0.5836
-0.00376
0.04632
-0.7513
0.04805
-0.00615
0.03281
-0.2456
0.1178
-0.08522
0.877
0.1224
0.02343
-0.2057
0.01719
-0.04625
0.08994
0.08262
-0.009148
-0.9936
-0.7263
-0.0314
0.0001611
0.3443
-0.1575
0.1734
-0.4181
0.06156
-0.1588
0.07001
-0.8921
-0.2863
0.3543
-0.001194
-0.105
1
-0.03064
-0.09132
-0.3359
0.3265
-0.6457
0.4071
1.058
0.03977
-0.04603
0.1856
0.0003314
0.4569
-0.02707
0.5487
-0.2666
0.3689
0.3744
0.4589
0.08782
-0.003587
-0.207
0.03512
-0.1606
0.6059
0.4071
-0.4221
0.04174
-0.4696
0.08315
0.04943
1.82
0.01904
-0.9384
-0.1657
0.4862
0.4903
0.579
-0.8256
-0.206
0.735
0.0822
0.6249
0.3432
-0.1712
0.01792
-0.9846
-0.2334
-0.2666
0.1712
0.6182
0.02251
0.2252
0.06275
-0.3596
0.1844
0.001079
-0.1996
-0.3013
1.892
1.629
-0.2145
0.1914
0.01149
0.3147
0.143
-0.997
-0.3388
0.0832
0.2617
0.9565
-0.05244
-0.987
-0.457
0.002702
-0.2005
0.6494
-0.06614
-0.01807
0.0002488
-0.2872
0.03902
1.86
1.601
0.03764
-0.2014
0.02474
0.0968
0.05802
-0.2946
0.03732
-0.2861
-0.2609
0.4949
-0.001326
-0.2867
0.0001504
0.1255
-0.5648
-0.6432
-0.03612
-0.2366
0.0004294
0.3735
1.06
0.3944
0.3086
0.0517
0.9552
1.629
0.2532
0.1629
0.6126
-0.991
-0.1061
0.2038
0.005327
0.1863
-0.7499
-0.01623
0.9509
0.006436
-0.005847
0.125
-0.4124
0.2288
-0.09658
0.5893
-0.1363
-0.2991
0.328
0.0009282
0.124
-0.4251
0.08697
-0.3589
0.01925
0.4045
0.3694
-0.705
1.001
0.08426
0.01166
0.03857
0.5481
0.2316
-1.036
-0.8421
-0.2556
0.3742
0.3545
0.1698
0.0008833
-0.3522
-0.03027
-0.6128
0.8776
0.333
-0.2045
0.00403
-0.2463
0.9853
0.3945
-0.172
-0.3527
1.342
-0.6481
0.000543
0.01747
0.1924
-0.2238
-0.008922
0.01915
0.06803
0.0004479
0.009758
0.8441
-0.5247
-0.002721
0.0004329
-0.2182
0.1782
-0.9586
0.01756
0.1224
0.118
-0.1281
0.1471
0.2274
0.0005485
0.0001057
0.01104
0.4544
0.5011
0.2455
0.6503
-0.4404
-0.01758
0.3112
-0.2539
-0.008477
-0.1235
-0.2518
0.003405
-0.1709
0.7039
-0.7312
0.04033
0.08802
-0.9648
0.1382
0.03872
0.481
-0.6429
-0.09776
-0.2787
-0.01486
0.2023
1.806
0.01712
0.7799
0.5266
0.0004512
0.9558
0.02506
-0.2039
0.0884
0.06804
0.5903
-0.05223
-0.6997
0.01704
-0.9427
-0.04517
0.03101
1.09
-0.2027
-0.4368
0.128
0.1487
-0.01955
0.02358
-0.2139
-0.2354
0.2632
-0.3219
0.6616
-0.5554
-0.6736
-0.003355
0.063
0.7652
4.491e-05
-0.3203
0.0211
-0.9224
-0.05474
0.4951
-0.9392
0.1693
-0.2501
-0.0479
0.06748
-0.05046
1.732
1.034
0.05006
0.02042
-0.01499
0.02113
-0.4957
-0.4197
0.02328
-0.1559
0.366
0.253
-0.307
-0.04378
0.309
-0.06771
-0.6366
0.04943
-0.005707
-0.3625
0.296
1.092
-0.2368
0.02355
-0.1797
0.6264
-0.003587
0.2586
-0.5611
0.07119
0.02071
0.00346
-0.7926
0.01636
0.0002124
-0.01354
0.1873
-0.2791
0.3158
-0.4812
-0.4227
0.1265
-0.2135
0.02049
0.002295
-0.02076
-0.09944
0.3045
-0.2002
0.1297
0.1917
-0.5622
0.1915
0.1798
0.004219
0.4685
-0.09398
-0.003794
0.04076
0.05468
0.2262
0.334
0.04017
0.0273
0.02728
0.06334
0.2866
-0.007243
-0.1164
-0.07666
0.1001
0.05257
0.06617
-0.147
-0.2907
0.158
0.2827
0.4397
0.01959
-0.251
0.0003915
0.4647
-0.8997
0.7662
0.00141
0.05534
0.317
-0.2
-0.2033
0.3432
0.5856
-0.1339
-0.2872
0.1232
-0.001629
0.4071
0.1545
0.006611
-0.02316
-0.5064
-0.688
0.5526
-0.3975
0.0009685
-0.02866
-0.5319
0.4383
0.0002678
0.3071
0.07767
-0.1175
0.1296
-0.2283
0.6854
0.257
-0.5043
0.00203
0.4962
0.06642
-0.687
0.1389
-0.208
0.0246
-0.3653
-0.613
-0.6482
-0.3935
-0.2263
0.1246
0.1815
-0.526
0.2941
-0.05314
-0.2222
-0.2945
0.2529
0.01795
-0.03038
0.0332
0.004364
0.05733
-0.4958
0.1226
0.01912
-0.8905
-0.2423
0.03288
0.6626
-0.2035
-0.003309
0.369
0.0005638
0.1564
-0.636
0.0002945
-0.5322
-0.1989
-0.0464
0.002073
0.2908
-0.2039
-0.6945
-0.3076
0.02658
-0.2635
-0.6431
0.007065
0.3102
0.01066
-0.5996
-0.005149
0.03434
-0.2298
0.236
0.4645
0.2605
0.6062
-0.003342
0.01691
-0.1067
0.02641
0.001312
1.377
-0.1908
0.3503
-0.08908
0.1136
-0.7544
0.0626
-0.001577
0.4429
-0.263
0.2008
0.2837
-8.203e-05
-0.3153
-0.3014
-0.245
0.2074
-0.6527
1.621
0.02171
-0.2509
-0.3178
-0.5469
0.03698
-0.9374
-0.00368
0.3745
-0.2827
0.03544
-0.4866
0.1169
0.09901
0.8083
0.2943
0.1746
-0.01199
-0.01428
0.08141
-0.7382
0.1925
-0.01282
0.04006
0.2027
-0.005349
-0.3594
0.03523
-0.004291
-0.3827
0.03608
0.002452
0.4702
-0.7323
0.01858
-0.000736
-0.5445
-0.2483
-0.0245
0.06397
-0.5041
0.03525
-0.003544
0.1254
0.000616
-0.2393
1.74
0.0005471
1.437
0.04325
0.008327
-0.3731
0.1813
0.05727
0.5362
-0.2815
-0.6004
0.2422
-0.2104
-0.4786
0.0255
0.5694
0.5914
0.07202
-0.7092
0.4527
0.1212
0.07043
0.03024
1.152
0.7405
1.025
-0.001934
0.4515
-0.04125
1.136
1.163
-0.01753
0.4419
-0.3031
0.1351
-0.1358
-0.09975
0.002559
0.2813
-0.4567
1.644
0.009045
-0.007912
0.03092
1.126
0.9554
0.0189
0.001844
0.03928
0.1085
-0.2217
0.3591
0.6625
0.03704
0.1017
0.3422
-0.1995
0.6209
0.006326
0.01264
0.02585
-1.015
0.002537
0.09329
0.6189
0.3102
0.2368
0.1488
-0.2161
0.6531
0.4304
0.03538
-0.9337
0.0009884
-0.3433
0.268
0.005844
-0.8483
-0.1395
0.3633
-0.5081
-0.05091
0.7512
0.376
0.06976
-0.02865
1.342
0.7667
-0.8987
0.5662
-0.7171
0.009377
0.1079
0.3081
-0.2847
-0.174
-0.1631
0.03837
0.02647
0.00229
0.03271
0.003269
0.3685
0.786
-0.305
0.8245
0.282
0.1956
0.7507
0.3184
-0.3643
-0.4314
0.009541
0.001603
-0.2133
-0.364
0.00138
-0.1008
0.08498
0.08584
0.1413
-0.2224
-0.6826
0.06628
-0.2357
0.9859
-0.6192
0.407
1.886
0.3944
-0.2643
0.006837
0.3568
0.6218
0.01847
1.519
0.0007516
0.02464
0.2211
-0.2276
-0.4782
-0.125
0.2598
0.0005142
-0.4023
0.04132
0.04225
1.053
0.2314
-0.02127
-0.3068
0.6283
0.6731
-0.03768
0.02411
-0.1302
0.00718
1.474
-0.3326
0.5828
-0.2205
0.1229
-0.6823
-0.3159
-0.4551
-0.9795
0.2605
-0.6019
-0.9237
0.8513
-0.8846
0.02685
-0.2209
0.2994
0.07949
-0.0346
-0.6181
-0.01397
0.01933
0.4145
-0.2509
0.02295
0.001266
0.004642
0.4987
-0.2202
-0.3062
-0.233
-0.1599
-0.7471
-0.06019
0.08153
0.2326
0.03017
0.001434
0.00153
0.2119
0.3152
0.06582
-0.6342
-0.3212
0.7309
0.00205
0.02367
0.01667
0.02443
0.9832
0.22
0.2822
0.004195
0.002838
0.00692
-0.2053
-0.225
-0.4909
-0.2852
0.3451
-0.004001
-0.001113
-0.7279
-0.5447
0.1622
0.982
-0.00646
0.1877
-0.002452
0.1053
-6.499e-05
0.2515
-0.6989
-0.235
-0.2576
0.3749
0.6198
0.1982
-0.208
-0.2847
0.7709
-0.1707
0.04212
0.3437
0.3208
0.1281
-0.5079
0.1459
0.03912
1.78
-7.436e-05
0.0408
0.6707
4.688e-05
0.1893
0.09454
0.2462
0.4567
0.04629
0.007611
0.02454
-0.118
-0.3347
0.01304
-0.495
0.1634
-0.7085
-0.2045
0.2655
-0.3226
0.1243
0.008562
-0.7613
0.06793
0.4976
-0.2439
0.06877
-0.01182
0.006048
-0.4027
-0.2208
-0.2661
-0.05642
-0.2886
0.45
0.1248
-0.6349
-0.3167
0.4844
-0.3504
-0.419
-0.3077
-0.2254
0.509
0.1863
0.3597
-0.003813
-0.2105
-0.747
0.2956
-0.1963
-0.06038
-0.2787
0.08658
-0.3341
-0.2008
0.9921
0.02428
0.2343
0.1095
-0.1929
0.09894
0.8449
-0.3195
0.05221
-0.2264
0.01427
1.52
-0.2949
0.1226
-0.2797
0.478
-0.2477
7.293e-05
-0.0001122
-0.003566
-0.627
-0.2111
0.7203
-0.8829
0.2991
-0.05183
-0.3384
0.02674
0.3198
0.1263
0.004143
-0.7129
0.08813
0.8224
0.2433
-1.002
0.04831
-0.09709
0.06973
0.829
-0.2748
0.023
-0.007079
-0.7869
0.3571
0.1052
0.1951
0.3499
0.2715
-0.4885
-0.7944
0.02667
0.1729
-0.4058
0.0001955
0.07766
0.1391
-0.2626
-0.2291
-0.2509
0.2749
-0.07322
0.4185
-0.3461
-0.1261
-0.3295
0.2463
0.01302
0.6021
0.8189
-0.606
-0.2545
-0.2293
0.005822
0.004641
-0.0003031
0.08671
-0.9815
-1.046
-0.1847
0.3852
0.0083
0.3088
-0.2051
0.2836
0.2486
0.6125
-0.07171
-0.01799
0.1392
0.4475
0.4027
0.08857
0.1521
0.08706
-0.2798
-0.268
0.0691
-0.3177
1.47
0.02955
0.514
-0.561
0.8897
0.2361
-0.1893
0.09112
-0.1715
-0.3537
0.3349
0.378
0.02438
-0.4411
0.8232
0.1372
0.002557
0.176
-0.2232
-0.3999
-0.08181
-0.3949
-0.2637
0.2241
0.1294
-0.05845
-0.5857
-0.5003
1.879
0.3423
0.0001431
-0.9956
0.04124
0.1228
-0.3239
0.7625
-0.1771
0.0549
0.8926
-0.02522
0.004978
-0.3241
0.2785
0.01104
0.1033
-0.2802
-0.2918
-0.1429
-0.01091
0.05943
0.0007959
-0.9984
-0.4461
-0.325
-0.2266
0.4808
0.02435
-0.2249
0.3015
-0.3038
0.142
0.2146
-0.9592
1.117
-0.008654
0.1183
-0.01299
0.4755
-0.01719
0.06376
0.17
0.02558
0.001093
0.6221
0.00766
0.8386
-0.836
0.06975
0.01671
0.1107
-0.2577
-0.3211
-0.6614
0.001546
-0.001666
0.0003561
0.4253
-0.2676
0.05056
0.1181
-0.001453
-0.8732
0.01464
0.05494
-0.07361
-0.4056
-0.2197
0.0988
0.0003123
-0.02321
0.07514
-0.6444
-0.2489
-0.01925
0.0258
0.007516
0.1578
0.6355
-0.2022
0.001153
0.08892
-0.02798
0.03718
-0.1998
0.1466
0.002485
-0.9811
-0.4752
0.364
0.000145
0.266
0.09652
0.3115
1.039
-0.01977
-0.2057
1.041
-0.2781
-0.3138
0.6272
-0.8423
0.07868
0.4935
0.3294
0.9222
-0.2635
-0.1952
0.3296
-0.005286
-0.7366
-0.3298
0.1404
0.3348
-0.04513
-0.03863
1.256
0.1972
0.2017
1.145
0.1075
0.0004185
0.02564
-0.4348
0.05761
-0.00285
-0.1094
0.03223
0.0009879
-0.3036
0.6534
0.07459
0.1805
-0.3145
-0.8356
1.092
0.02979
1.305
-0.605
0.4337
0.1986
-0.2183
0.2481
0.04026
-0.1983
0.1073
0.9785
0.2954
0.7562
0.0008357
0.2393
1.222
0.02585
0.002342
0.0006944
0.04952
0.317
-0.2052
0.01508
0.09822
-0.4132
0.2704
-0.3065
0.008208
0.06633
0.09942
-0.3603
-0.6824
-0.2226
0.3641
0.242
0.9484
-0.005494
0.001107
0.03379
-0.199
-0.2268
0.6507
0.5701
-0.2427
0.0356
-0.01607
0.7015
-0.1431
-0.5908
1.351
0.2238
0.347
-0.3455
0.001093
0.09658
0.5373
0.01031
0.00071
-0.6751
-0.8679
0.01216
0.8177
0.0806
0.4
0.6568
0.21
0.0504
0.2071
0.3299
0.5127
0.2146
-0.339
0.006327
-0.7159
0.001119
0.1615
-0.1354
0.0001554
0.1175
-0.4697
0.006718
0.2615
0.000516
0.2685
0.04396
0.2336
0.184
0.02817
0.0007293
-0.01876
0.5559
0.3589
0.1817
-0.3985
0.003291
-0.2435
-0.2051
-0.1769
0.5747
-0.3135
-0.1542
0.7976
0.006812
-0.3101
0.2041
0.2896
1.339
0.001866
0.01792
-0.1414
-0.08019
-0.5351
-0.2515
-0.307
0.01284
0.5962
0.002379
0.07997
-0.8865
0.00227
0.075
0.865
-0.3653
0.2075
-0.7099
-0.3013
1.287
0.09631
0.2776
0.7464
0.4975
-0.2842
0.5983
-0.3582
0.7929
0.2036
-0.03032
0.4164
-0.3143
0.2777
0.5958
0.0135
-0.842
0.1847
-0.2271
0.2344
-0.4731
0.02252
0.2141
0.008256
0.004042
-0.4792
0.06766
0.001238
1.071
-0.001698
0.3629
0.6934
0.06509
0.5001
0.1734
0.3031
-0.6838
-0.8381
-0.141
-0.7217
0.9145
0.8657
0.1784
1.871
-0.447
0.008307
0.02857
1.499
-0.1421
1.151
-0.5267
-0.009313
0.2433
0.246
-0.5446
-0.4589
0.234
0.3074
-0.361
0.9953
0.6085
1.671
0.1886
-0.02717
0.3441
-0.723
0.2081
-0.1587
0.007007
-0.004961
-0.4687
0.04721
0.000583
-0.8128
1.13
0.08971
-0.4619
0.1889
-0.1603
-0.7252
0.1136
0.1616
-0.002404
-0.3289
-0.7522
-0.5603
0.0568
0.02405
0.02116
-0.1499
0.2111
-0.3321
0.2817
-0.1522
0.03795
0.0005973
0.8906
0.04283
-0.3286
0.05952
0.05089
0.02447
0.5496
0.402
0.3828
-0.4748
0.3039
0.2218
0.2241
0.7691
-0.2968
-0.04092
0.03734
-0.423
1.083
-0.294
0.05205
-0.3088
0.2218
0.03118
-0.5664
0.1641
0.0003501
0.3277
-0.04023
0.3058
0.05862
0.005625
0.4193
0.01219
0.4065
-0.2201
-0.1516
0.2961
-0.1878
0.0604
-0.8299
-0.1848
-0.1825
0.3326
0.6181
-0.2916
0.7826
-0.3204
-0.4311
0.001048
0.2251
0.373
-0.4299
1.466
-0.01417
-0.2718
-0.06199
-0.2623
0.009906
0.3189
0.1943
0.003183
-0.3566
-0.8129
-0.4096
0.347
0.04904
-0.0979
-0.6369
0.2601
0.1589
-0.3315
0.3629
1.848
0.0524
0.0093
0.2259
0.6884
0.248
0.01522
0.0001529
0.2853
0.0237
-0.2679
0.000464
0.04874
-0.2968
0.3956
-0.2225
0.1777
0.004085
0.2972
1.284
-0.8963
-0.211
0.113
-0.3442
0.3169
-0.3221
0.4062
0.1186
1.102
-0.2272
1.436
0.2812
0.3845
-0.9289
-0.01991
-0.5615
0.05417
-0.03024
-0.2027
-0.2102
1.332
0.08597
0.243
0.2277
-0.379
-0.2023
0.1485
1.225
0.2195
-0.3077
-0.2685
-0.5712
-0.4808
-0.3095
0.2012
0.5439
-0.01055
-0.977
1.001
1.524
-0.00905
0.06117
0.3484
-0.0423
0.7163
-0.0196
0.02256
-0.06542
0.02749
-0.06333
-0.01788
-0.1226
0.4648
-0.4176
0.7979
-0.7721
5.417e-05
0.03743
1.543
0.3587
0.07044
0.1755
-0.797
-0.602
0.2355
0.03478
-0.006201
-0.0001838
0.1036
-0.4099
-0.03294
0.09803
-0.09134
0.001557
-0.5861
-0.01908
0.2369
-0.003258
-0.006898
0.03686
-0.5739
-0.2267
-0.4123
0.15
-0.3988
-0.5009
0.3439
-0.3515
1.041
0.159
0.1149
0.1077
0.785
0.4335
-0.1977
0.2481
-0.04337
1.378
-0.841
-0.2202
-0.8883
0.1096
0.02043
-0.4521
-0.1598
-0.261
1.774
0.00053
0.1126
-0.2671
-0.2511
-0.7015
-0.2095
1.369
-0.08466
-0.001857
-0.4421
1.146
0.3217
0.5946
-0.03263
-0.04827
0.3396
-0.2159
0.2197
-0.8911
0.6791
0.1187
0.09863
-0.05598
-0.9986
-0.2265
-0.8003
0.06723
-0.3185
0.1764
0.04192
0.1789
-0.4541
0.002755
-0.7606
-0.4111
-0.1594
0.3738
0.1771
1.075
-0.2049
-0.2753
-0.2032
-0.08383
-0.3255
-0.4727
0.09582
0.2359
0.6319
0.2833
0.2882
0.02305
0.2646
0.7267
0.3276
0.5627
0.3915
0.3733
0.2766
0.08554
0.2974
0.02739
0.6016
0.5801
-0.7199
0.0663
-0.1304
-0.3636
-0.03856
-0.8559
-0.3928
-0.2151
-0.3156
-0.2004
-0.2593
-0.2172
-0.505
0.1469
0.002222
-0.8648
0.2241
-0.3392
-0.717
-0.2127
-0.8968
-0.7591
-0.08397
-0.2024
0.3944
0.0005044
0.5383
0.004272
-0.03358
1.465
0.02109
-0.4136
0.01602
0.7796
-0.002362
-0.8921
-0.3349
0.03697
-0.7517
1.437
-0.2041
1.495
0.111
-0.1922
0.02961
0.3251
0.001457
0.1376
0.3989
0.1197
-0.389
0.001818
0.1585
0.6037
0.09441
0.08433
0.115
0.7143
1.804
0.3099
-0.3544
-0.7816
-0.6696
0.09808
-0.2753
0.07156
0.06702
0.0007761
-1.006
-0.8664
0.01581
-0.2474
0.08533
-0.8329
-0.4257
-0.02674
-0.2418
0.019
-0.208
-0.2722
-0.8084
0.3364
0.0001918
-0.2262
-0.4451
0.08477
0.0253
-0.2119
0.0002057
0.1077
-0.08296
0.006301
-0.7598
-0.2128
0.3458
0.7812
0.0009786
0.5042
1.066
0.1085
-0.572
2.64e-05
-0.01358
0.0003327
0.0005692
-0.7592
0.003602
0.3041
0.9944
-0.2982
0.07102
0.04103
0.185
0.1699
-0.3807
0.2885
0.8207
-0.2056
0.05688
-0.9037
0.02625
-0.4687
0.2668
-0.2931
0.01769
-0.1627
-0.3486
0.003041
0.04753
0.02092
0.00317
0.01637
0.4559
0.02511
-0.02994
-0.3343
0.1651
0.4255
-0.03009
0.03805
0.5805
0.9824
0.001226
-0.6359
0.1398
0.02648
-0.07735
0.02219
-0.1228
0.3264
-0.7294
0.0006815
0.0008168
0.04806
0.8337
-0.2278
0.0005888
-0.1713
0.5219
-0.01544
-0.3886
-0.3007
0.2907
0.0002523
0.1941
0.2564
1.482
0.1716
0.0006297
-0.02542
-0.3455
0.9051
0.07041
-0.53
0.1484
0.02512
0.5299
1.152
0.8884
0.1933
-0.86
0.001161
-0.1777
-0.3542
-0.4505
1.348
0.0225
1.776
-0.9369
0.005919
0.02072
0.2414
0.3384
-0.3343
-0.1918
-0.7436
0.3641
0.416
0.00195
-0.4086
-0.3484
8.593e-06
0.06567
-0.08121
-0.2787
0.03093
0.4789
0.1635
-0.6588
0.02663
-0.8058
0.9412
1.026
0.02657
0.0008155
0.3041
0.199
0.0474
0.01658
1.108
0.308
-0.2953
-0.08678
-0.5112
0.00255
-0.2107
0.009781
0.208
0.02238
-0.5997
0.6405
0.3554
0.0459
-0.02746
-0.9802
1.679
-0.3383
0.02735
-0.7691
1.562
-0.5892
-0.8291
0.007243
0.098
0.0005554
-0.09668
0.3249
-0.3323
-0.2471
0.2822
0.0006245
-0.2005
1.44
-0.06818
0.02238
0.001654
-0.2066
0.34
0.9932
-0.4099
0.2131
-0.3888
-0.1648
-0.3299
0.2964
-0.1986
0.07664
0.4288
0.6926
0.1353
0.06566
1.034e-05
-0.9953
-0.308
0.3968
0.1377
0.4326
-0.4126
-0.04076
-0.05681
0.04509
0.0007053
0.1824
0.3161
0.001723
0.0006523
0.1563
1.728
0.0007556
-0.03979
-0.008712
-0.005736
0.6084
0.706
1.478
0.4097
-0.32
0.516
0.4987
-0.2288
-0.2915
1.069
0.0002784
1.861
-0.0231
0.3205
-0.4231
0.08717
0.02966
-0.644
-0.4188
-0.5592
-0.04462
1.092
0.1882
1.036
0.6414
0.07301
0.928
-0.08546
0.3836
0.2216
0.312
0.271
0.2843
0.02566
0.1636
0.1734
0.6031
-0.2982
0.3415
0.6412
-0.2192
0.009683
0.3783
-0.06498
0.0005479
0.01138
0.1081
-0.05058
-0.2644
-0.663
0.1546
0.02729
0.02515
0.2349
-0.01412
0.05468
0.0328
-0.2371
0.001105
0.2829
0.137
0.226
0.2053
-0.4556
0.0721
0.01207
0.04363
0.2818
-0.006165
-0.288
-0.7535
0.745
0.7819
0.04677
0.2336
-0.1401
0.02956
0.01205
-0.2544
-0.6277
-0.3283
0.2774
-0.4468
0.06174
0.5077
0.1357
0.1161
0.08937
0.06093
-0.316
0.2669
0.5613
-0.2479
0.001249
0.5359
0.0003021
-0.02847
0.03
0.5489
0.7726
-0.3201
0.2534
0.3147
-0.02453
0.3529
0.347
-0.2589
-0.2607
0.04832
0.00107
-0.1536
0.2769
-0.3585
0.6181
-0.2501
0.0009774
0.2047
0.8453
-0.2054
-0.6607
-0.5501
0.9398
-0.3483
-0.2203
0.08637
-0.6023
-0.007078
1.107
0.4952
-0.7189
-0.01015
0.2687
1.344
-0.8807
0.1261
-0.2419
1.064
0.3204
1.207
0.2674
0.1687
0.1679
0.0289
0.09027
0.002024
0.692
0.3476
0.213
-0.08685
0.1232
-0.1187
0.06574
0.325
0.6417
0.1929
0.0554
-0.009004
-0.3512
-0.02451
-0.5259
-0.3459
-0.2074
0.3364
-0.2097
-0.397
0.02509
0.144
-0.4721
0.001381
-0.7769
-0.2269
0.42
-0.4436
-0.439
0.09607
-0.7498
-0.3571
0.2341
-0.2041
0.03619
-0.00375
-0.006925
-0.7635
0.0004008
0.01
0.06574
0.9127
0.1543
0.1439
-0.00927
-0.2765
0.002046
-0.07653
-0.4482
1.059
-0.2991
0.02948
-0.2559
0.0009455
-0.2005
-0.4209
0.1686
-0.9076
0.001128
0.003074
0.6037
1.517
0.008148
0.07985
-0.0005801
0.3234
0.7149
-0.6568
0.001579
-0.2137
-0.2001
0.001492
-0.06398
0.001392
-0.003231
-0.4909
0.001385
0.0009911
0.0001724
0.0003015
0.01324
0.009553
0.1238
0.4528
0.3978
-0.3244
-0.006994
-0.2265
0.007334
0.07221
1.119
-0.2077
0.03458
0.2137
-0.3148
0.862
0.001953
-0.1374
-0.8699
-0.3449
-0.5684
0.657
0.2612
-0.08679
0.2586
0.06656
-0.01512
0.2505
-0.009008
-0.5125
0.06539
0.8162
0.4826
-0.4171
0.05767
0.000289
0.02621
0.6047
-0.7012
-0.001653
0.5014
0.02515
0.001671
-0.04753
1.738
-0.3622
0.006314
-0.3257
-0.02524
0.7061
0.02442
-0.3413
-0.001277
0.3404
0.02039
9.827e-05
-0.936
-0.4424
-0.2202
-0.2037
0.8601
0.3259
0.2851
1.214
0.3612
-0.2028
0.04662
1.556
0.17
0.06137
-0.9904
0.6472
0.03368
0.0003547
-0.3211
0.01045
-0.3099
0.3182
0.03609
0.2065
-0.2062
0.2656
0.271
0.02902
-0.7522
-0.2412
1.168
0.2353
0.003161
-0.09787
0.2418
0.1642
0.005658
0.3638
-0.1985
0.07387
0.2194
0.1194
0.7063
0.2761
0.5348
-0.2484
-0.2989
0.09771
-0.2061
0.001664
-0.8187
0.1138
0.0013
-0.488
-0.2296
0.06853
0.1758
-0.9822
0.4706
-0.2506
-0.2419
-0.1714
0.06705
0.5937
0.6607
-0.5193
0.07341
-0.4321
-0.01169
-0.2538
0.0003359
-0.2515
0.1632
-0.949
-0.02852
0.08415
0.02932
0.02808
0.1612
1.65
-0.09727
0.5365
-0.401
0.001464
-0.2988
-0.5007
0.09178
0.08414
0.1814
-0.3073
-0.1798
-0.7314
0.2593
0.02446
0.3454
-0.2681
0.47
-0.7702
-0.211
0.009341
-0.2058
0.3177
1.79
-0.2428
0.0005541
0.02603
-0.00335
-0.2306
0.892
0.06601
-0.6639
-0.4286
-0.2025
-0.0409
0.2361
0.02052
-0.8082
0.004303
-0.2224
0.03577
-0.8031
0.1947
0.07894
0.02092
-0.2103
-0.4935
0.001923
1.341
0.2584
0.6385
0.2605
1.073
-0.7756
0.05867
-0.1283
-0.6981
0.002569
0.3599
-0.173
-0.6807
-0.01276
-0.3559
0.4296
0.5818
0.3753
-0.6355
0.005395
0.01
0.2688
0.08895
0.6379
-0.4335
-0.5062
-0.2412
0.1457
0.007529
-0.2428
-0.3808
0.1631
0.001139
-0.2537
0.001483
0.01558
-0.742
-0.4657
-0.09729
-0.326
0.7574
0.2735
-0.2144
0.01988
0.0379
0.0003326
0.2946
-0.02993
0.9044
-0.3917
0.03742
0.3321
-0.2799
-0.558
0.01174
0.2026
-0.5328
0.5877
-0.003265
1.346
0.0002119
0.0006101
0.2849
0.05529
-0.7752
0.06415
0.6566
-0.2433
0.8302
0.3393
1.502
0.0548
-0.213
-0.5377
-0.04862
0.04719
-0.2783
0.0001239
0.0106
0.001494
-0.7654
0.006592
-0.1456
1.747
0.05267
-0.6664
-0.9727
0.4784
0.0677
0.2098
-0.03564
0.01744
-0.2597
-0.196
-0.1095
0.0007622
0.1601
-1.002
0.6825
0.9301
-0.3007
0.3351
0.2585
0.1442
-0.2684
1.116
0.1952
0.378
3.247e-05
0.0006501
0.2742
-0.3408
-0.354
0.03595
-0.5307
-0.7397
-0.2758
-0.4978
0.02598
-0.01914
-0.5523
0.3941
-0.005094
0.4138
-0.7817
0.02736
1.747
0.1478
0.0005391
0.2352
-0.3253
0.3028
-0.02171
-0.7487
0.266
1.476
0.2038
0.1847
-0.2124
0.002086
-0.2698
0.3442
-0.4227
1.885
0.001138
-0.6255
-0.02274
-0.006687
-0.09275
0.2762
0.4315
0.1728
0.1463
-0.2135
0.4115
1.004
0.3938
-0.3657
0.7331
0.1782
0.1669
0.1559
0.1823
-0.6748
0.6605
0.7729
-0.7296
-0.2426
-0.2895
0.0009629
-0.0004821
1.018
-0.2454
-0.373
0.3029
0.3868
-0.513
0.3498
0.5256
0.7877
-0.2968
-0.7487
0.3129
0.3717
0.145
0.3434
-0.007979
-0.4723
0.3002
0.6579
0.09791
0.004104
-0.02355
0.01812
-1.015
-0.7893
0.0009848
0.01024
0.01138
1.169
0.01822
0.2664
0.001002
-0.2141
0.04517
-0.002749
-0.01756
-0.1986
0.1261
-0.01687
-0.74
0.05187
0.1059
1.357
-0.384
-0.3158
0.4363
0.005186
0.3503
-0.9587
-0.3484
-0.91
-0.1672
0.6766
-0.5863
0.1935
-0.2271
-0.5998
-0.5601
0.01279
0.01892
0.5933
0.03636
0.4351
0.3438
0.3566
0.2075
0.00184
-0.7859
0.6455
0.0004438
0.1563
0.2427
0.2184
0.0006842
0.01944
0.2984
0.07315
-0.337
-0.01265
-0.2444
0.005408
0.01095
0.04941
-0.5217
0.3945
-0.4258
-0.5065
1.423
-0.6602
1.888
1.634
-0.42
0.005355
-0.47
0.145
0.5057
0.0008871
0.832
-0.2298
0.4228
-0.004056
0.4057
0.1273
-0.6694
0.3221
-0.2981
0.1546
0.6544
1.01
0.2849
-0.003709
-0.3603
-0.699
0.2824
-0.6158
0.8288
1.027
0.001285
-0.398
0.01027
0.8219
0.008543
-0.03231
0.009805
1.732
-0.3799
0.07282
-0.2136
-0.3244
0.6392
0.03168
0.3489
-0.6604
0.02752
-0.001813
0.0008519
-0.5652
0.9506
0.1882
1.393
-0.7252
0.382
1.237
0.0006909
0.6212
-0.2554
0.004983
-0.2084
0.01486
-0.6987
0.02433
-6.072e-05
0.6664
-0.3729
-0.4135
-0.2818
-0.2983
-0.1051
-0.2137
0.2703
-0.3724
0.4169
1.324
-0.3328
-0.227
0.1288
1.542
0.4841
-0.3734
0.008761
-0.1661
0.04732
-0.6125
0.4161
0.002761
0.8606
0.4519
-0.6727
1.234
-0.2639
-0.2728
-0.2887
0.09855
0.0003245
0.06133
0.4175
0.5626
0.264
-0.3824
0.1381
0.1149
-0.2395
-0.1064
0.03788
-0.3787
0.5165
0.4969
0.1884
1.241
0.01978
0.4875
-0.6939
-0.5856
-0.9711
1.118
0.3606
-0.2294
0.3319
-0.4479
0.4715
0.6925
0.001522
0.1211
0.1884
-0.1954
0.1459
0.07108
-0.6826
0.3234
0.1015
-0.9234
-0.1615
0.1005
0.2574
0.2326
0.6289
0.3453
0.3307
0.7837
0.1112
1.527
0.09942
-0.2302
0.09764
-0.3479
0.2786
-0.2263
-0.6728
0.004331
-0.5408
0.1777
0.3788
-0.07144
1.096
-0.3286
-0.203
0.01372
1.283
-0.4447
0.2429
-0.8051
-0.38
0.01187
-0.9982
0.124
0.01308
0.7845
0.1427
0.01284
-0.3011
0.02557
0.06714
0.379
0.08885
-0.2609
0.04018
-0.2866
-0.001679
0.1384
-0.168
0.3216
-0.07818
-0.9803
-0.0107
0.1789
-0.6574
-0.3913
-0.3782
-0.8116
0.2756
-0.4424
0.6729
-0.006378
0.03098
0.02502
0.3795
0.0005461
-0.1995
0.8239
-0.3297
0.4018
1.343
0.008472
0.6055
-0.7073
0.02486
0.0002965
-0.8305
0.3177
-0.4444
0.4079
0.02393
0.2355
0.001446
-0.3579
1.252
0.2994
0.3977
0.3715
-0.6489
0.8226
-0.1424
-0.05662
0.1635
0.9726
0.2261
-0.4713
0.3703
-0.6249
-0.1706
0.02277
0.1375
0.2466
-0.3483
-0.02658
1.042
0.1728
-0.0001279
0.1917
0.03199
-0.2157
-0.2006
0.7901
0.02582
0.02442
-0.1663
0.3087
0.7423
0.3666
0.1637
-0.3178
0.2776
0.1616
0.0123
-0.2615
-0.3899
0.04603
0.007612
-0.4211
0.6132
0.3508
0.01065
-0.366
-0.7117
0.6117
-0.6556
-0.3836
0.2626
-0.2057
-0.3687
0.0008913
0.737
-0.433
-0.03992
0.001411
0.5032
5.249e-05
0.1041
-0.01537
-0.2487
0.2054
-0.09973
-0.7878
0.05496
-0.1934
-0.256
0.1253
0.0007523
0.02605
-0.8489
0.05933
-0.02578
0.156
0.01112
0.005774
-0.06701
0.4155
0.2289
-0.7052
0.1801
0.5694
0.1483
-0.963
-0.5191
0.0009837
-0.7008
-0.5214
0.08215
0.1907
-0.4998
-0.5016
-0.4561
-0.7809
0.0747
0.2362
0.273
0.1961
0.008581
0.4183
0.06843
0.0275
0.01776
0.01086
-0.1918
0.8261
-0.8867
0.2901
-0.337
-0.1561
-0.6176
0.5914
-0.002962
0.007009
-0.01316
0.5651
0.004627
-0.5175
-0.8
0.1618
0.3186
0.1873
0.001057
-0.05005
0.1258
0.1244
0.02062
-0.2334
-0.03261
0.3362
-0.01138
0.2732
0.1629
-0.8401
-0.9651
-0.4785
0.74
0.01438
0.0002249
0.4521
0.2435
-0.0007671
0.6371
1.001
0.02215
-0.3328
-0.2312
-0.5122
0.8183
-0.1238
-0.2158
0.1462
0.02884
-0.4054
0.8124
-0.0179
0.2604
0.4845
0.01096
0.3688
-0.2049
0.237
-0.3823
0.0005177
0.9671
-0.2482
-0.3331
0.006688
-0.4178
0.01167
-0.2066
0.0001426
-0.01019
0.1418
-0.04737
0.7317
-0.01227
-0.00224
0.3092
-0.8016
0.5182
-0.06224
0.02178
-0.2796
1.035
0.4309
0.293
1.622
1.51
0.05597
1.215
0.05835
0.09811
0.4575
0.04123
0.2033
-0.1037
-0.1958
0.6752
-0.3649
0.01797
-0.4613
0.01457
0.1182
0.0568
-0.3448
0.009314
0.01041
-0.3341
0.126
-0.2918
0.7462
0.01545
0.4618
-0.001001
0.1312
-0.5245
-0.09863
-0.06281
0.245
0.007704
0.0165
-0.3417
-0.002093
-0.2051
-0.001715
0.2768
0.001187
0.08956
-0.0006151
-0.07633
0.001173
-0.7613
-0.02902
-0.3907
0.09399
0.01888
-0.4017
-0.3216
0.3228
-0.5808
-0.2086
1.615
0.6106
0.001026
0.0462
0.09696
-0.2066
0.2921
0.2038
0.008425
-0.2528
0.5616
-0.447
0.1035
-0.2778
1.063
-0.7272
0.1877
-0.3539
-0.2635
0.5765
-0.5139
0.5996
-0.9815
0.0002297
0.915
-0.0007016
0.768
0.133
9.079e-05
-0.000444
-0.0106
1.589
-0.009347
0.1184
1.026
0.2785
-0.2544
0.004923
-0.01329
1.252
-0.7417
-0.8688
-0.3794
-0.4319
-0.1939
-0.0162
0.0217
0.3153
0.127
-0.07164
0.4293
0.2409
-0.4406
0.01362
0.2925
-0.00611
-0.4568
-0.4834
-0.2495
0.09485
0.001892
0.001043
-0.2513
0.2572
-0.2566
-0.3233
0.001046
0.001169
0.5129
0.8944
0.1977
-0.7082
1.114
-0.7392
0.01689
1.363
0.001053
0.04824
-0.3094
-0.4966
-0.009007
-0.2238
-0.2902
-0.7411
-0.3868
-0.2779
0.02514
1.139
0.0849
-0.4439
0.2343
-0.07741
0.3127
-0.2423
-0.1332
0.1915
-0.398
-0.06773
-0.1488
-0.4556
0.0149
0.5958
-0.2236
0.01459
-0.03905
-0.2029
-0.2327
0.2641
-0.08114
-0.3372
-0.2539
-0.4601
0.6757
-0.8934
0.7233
0.151
-0.7882
-0.211
-0.7471
0.09906
0.6046
-0.4707
-0.5604
-0.05037
0.2991
-0.09223
0.05766
0.06131
0.8827
-0.2209
0.4266
0.001562
0.5764
0.6717
-0.2645
0.0002265
-0.006352
0.2128
0.03094
0.1475
0.0582
0.4738
0.6138
0.0006379
0.3535
0.1904
0.1187
0.6298
1.545
-0.3931
0.0006857
-0.3935
0.2909
-0.4261
0.02603
0.01135
-0.2124
-0.8473
-0.1973
0.0109
0.2451
0.2997
0.01178
-0.2978
-1.01
-0.5573
-0.02526
0.3029
-0.7811
-0.2708
0.01497
1.164
0.9176
0.06278
0.07714
0.1177
-0.3366
-0.1896
0.07893
0.7882
-0.3267
0.1462
-0.06587
1.111
-0.1735
-0.09523
-0.2773
0.02506
0.5203
0.5912
-0.7936
0.3178
-0.2782
0.9761
0.748
-0.2681
0.4052
-0.239
-0.05683
-0.0255
0.059
0.01635
1.474
-0.5409
-0.7697
-0.2632
0.4877
-0.6465
-0.6932
0.0001911
1.789
-0.4188
-0.242
0.1526
0.03557
-0.4888
0.5656
0.423
-0.3162
0.06888
0.6155
0.02334
0.07746
0.2602
1.538
0.5429
0.7302
-0.2567
0.07227
-0.7238
0.05563
0.2314
0.09779
0.4233
-0.5833
-0.9734
-0.06187
-0.06103
-0.1922
0.1319
1.394
-0.4564
0.5679
0.7562
0.9686
1.812
0.7406
0.3466
-4.425e-05
0.1668
-0.3845
0.4808
0.0006298
0.3426
-0.3123
-0.1537
-0.2417
-1.003
0.2777
0.6517
1.129
0.2563
0.2366
0.01001
0.0001877
0.2756
1.322
-1.006
1.675
-0.5099
-0.01474
0.003952
0.3385
0.1037
0.0009969
0.07483
-0.006742
0.09796
0.07828
0.001753
-0.1995
0.6119
-0.001341
-0.01345
-0.2864
-0.5287
-0.3266
0.001786
0.4047
0.4668
0.07995
0.004456
0.1781
-0.4374
-0.867
0.05955
0.2021
0.5681
-0.3425
0.009552
0.286
0.002524
-0.8293
0.1215
-0.04959
0.02552
0.0008467
0.0008782
-0.2142
0.03677
0.0004085
0.09548
-0.5658
-0.6115
-0.1225
0.009154
0.3067
0.3488
0.606
0.7425
0.1863
0.3407
-0.04755
-0.9248
0.5639
-0.53
0.0002907
0.01865
-0.4736
-0.1072
0.1882
0.6058
-0.7458
0.116
-0.0536
0.008035
0.237
0.02496
-0.2429
0.6453
1.85
-0.0001527
0.3951
0.2066
-0.6417
-0.1139
0.01758
0.1381
0.001789
0.4544
-0.2875
0.673
-0.07496
0.3764
-0.2098
0.6314
0.01466
-0.1739
-0.8326
0.1872
1.668
-0.07047
0.1663
0.6217
-0.2008
-0.4182
-0.2902
0.08503
0.628
-0.001377
-0.002371
0.1475
1.004
0.002015
0.02557
0.7644
0.002666
0.006743
0.3832
-0.7028
0.02103
-0.6963
-0.2731
0.6187
-0.2821
0.2526
-0.5841
-0.4138
0.0003422
0.08171
0.844
-0.2317
0.1026
-0.2234
0.5921
0.001602
0.004791
0.2714
0.1509
0.5044
0.02726
-0.5165
-0.3975
-0.6211
0.2871
-0.8653
0.01059
0.4159
0.7397
-0.0009102
-0.4666
-0.2106
-0.1952
0.0109
-0.3237
1.008
-0.3354
0.05622
0.2641
0.3468
0.02561
-0.1019
-0.3704
0.9365
-0.2879
0.216
-0.2799
-0.08797
0.8287
-0.3929
-0.7303
-0.005233
0.09276
0.3384
-0.7001
0.2391
-0.3532
0.04013
0.05319
0.3395
-0.2744
0.001625
0.6249
-0.2479
-0.238
-0.5295
0.22
-0.2144
0.05269
-0.02299
-0.2338
0.154
0.5831
-0.06135
-0.4228
-0.3949
-0.4171
0.2658
-0.2083
-0.7185
0.5275
-0.4549
-0.6467
0.005009
-0.2746
0.5141
1.405
-0.4528
-0.459
0.04706
-0.3187
-0.1816
0.09135
0.005655
-0.3575
0.1313
0.002321
0.2133
0.4666
1.026
-0.4478
-0.4389
0.1688
0.0004186
0.6417
0.1455
0.0003162
0.2706
-0.8038
0.354
0.6194
0.7266
-0.7423
0.7817
0.4135
-0.328
0.0005196
-0.05646
0.1191
0.555
0.4706
0.02477
0.1468
-0.6731
0.2353
0.01863
-0.05576
0.2995
-0.6442
-0.8325
0.2896
-0.8037
-0.2289
0.7223
-0.2322
0.9465
0.0464
0.06318
0.3153
0.3471
0.1754
0.7261
0.1485
-0.02572
0.3163
0.05333
1.343
0.001568
-0.1659
0.02721
0.0008058
0.01035
-0.843
-1
0.03095
0.7269
-0.185
0.06535
0.05764
0.8234
0.0431
0.1113
-0.0008371
-0.1845
-0.2116
-0.2367
-0.005948
0.5941
0.6052
0.2243
-0.3039
0.02559
0.3177
-0.281
0.6584
-0.4046
-0.2012
0.1209
-0.1243
0.446
0.5464
0.03481
0.1904
-0.05861
-0.01476
0.4988
0.001068
0.3516
0.3062
0.03068
-0.5404
-0.003808
0.02291
-0.2037
0.001746
-0.01096
0.1142
0.1653
0.0554
0.126
0.2691
-0.05072
-0.2769
-0.3831
-0.8464
-0.04666
0.5664
0.7276
0.2261
0.3353
0.6395
-0.4536
0.2088
-0.2615
-0.07232
-0.2096
0.02554
0.01921
0.0003937
0.00925
-0.5579
0.2499
-0.2633
0.102
1.754
0.1537
-0.4449
-0.3019
0.1744
-0.01283
0.5671
0.01287
0.6481
0.1992
0.5755
0.04383
-0.4284
0.4157
-0.7022
0.02666
0.2314
0.001044
0.02391
0.06524
-0.1395
0.02104