/*--------------------------------*- C++ -*----------------------------------*\
| =========                 |                                                 |
| \\      /  F ield         | OpenFOAM: The Open Source CFD Toolbox           |
|  \\    /   O peration     | Version:  v2012                                 |
|   \\  /    A nd           | Website:  www.openfoam.com                      |
|    \\/     M anipulation  |                                                 |
\*---------------------------------------------------------------------------*/
FoamFile
{
    version     2.0;
    format      ascii;
    class       surfaceScalarField;
    location    "5";
    object      phi;
}
// * * * * * * * * * * * * * * * * * * * * * * * * * * * * * * * * * * * * * //

dimensions      [0 3 -1 0 0 0 0];
oriented        oriented;


internalField   nonuniform List<scalar> 
149048
(
-8.622e-08
8.622e-08
-8.011e-08
8.011e-08
-2.724e-07
2.724e-07
7.589e-07
-7.589e-07
8.162e-08
-8.162e-08
-9.328e-08
9.328e-08
-8.845e-07
8.845e-07
-5.441e-05
5.441e-05
-5.164e-05
5.164e-05
1.79e-08
-1.79e-08
8.127e-05
-8.127e-05
-5.909e-05
5.909e-05
0.0002941
-0.0002941
0.0002941
6.946e-05
-6.946e-05
-4.908e-05
-0.000245
0.0003593
-6.528e-05
-8.561e-05
8.561e-05
3.048e-06
-3.048e-06
0.0003593
0.0003128
-0.0003128
0.0003128
-9.1e-08
9.1e-08
5.598e-05
-5.598e-05
-6.361e-07
3.637e-07
6.058e-05
0.0002522
-4.697e-05
-0.0002658
-0.002497
0.002996
-0.0004989
0.001236
-0.001225
-1.195e-05
-1.493e-05
9.074e-06
5.852e-06
9.15e-08
-9.15e-08
-0.0003054
0.0002769
2.851e-05
-0.0001076
-0.0001978
0.0007143
-0.0003431
-0.0003711
-0.000273
0.0002638
9.239e-06
0.00103
0.0007146
-0.001744
0.0003896
0.0003246
0.000176
-2.046e-05
-0.0001555
0.7885
-1.188
0.3999
-5.678e-05
0.001293
-0.0009757
0.0008797
9.603e-05
0.01787
0.1104
-0.1283
6.175e-08
-6.175e-08
0.002222
-0.002274
5.177e-05
0.002368
-0.002175
-0.0001928
-7.728e-05
-0.0002694
0.0003467
-0.03674
0.02356
0.01317
0.002489
-0.0001208
-0.001363
0.001081
0.0002824
-0.002514
1.63e-05
8.354e-05
-4.215e-05
-4.139e-05
0.0003825
0.0004604
-0.0008429
-0.006963
0.004005
0.002958
8.093e-05
0.0002985
-0.0003794
0.0005243
0.001698
0.0006733
0.0005612
-0.001235
0.001815
-0.001439
-0.0003758
4.738e-05
0.0002907
-0.0003381
-0.0003942
0.0009554
-0.0005612
-1.323e-05
1.288e-05
3.544e-07
0.2185
-0.2705
0.05196
0.0006462
0.004474
-0.00512
-1.051e-06
1.218e-05
-1.113e-05
-0.0008004
0.0002189
0.0005814
0.0002845
-0.0002845
0.001726
6.489e-05
-0.001791
0.2675
-0.03946
-0.228
0.0005716
0.000966
-0.001538
0.0001912
0.0001681
-0.0005805
0.0007316
-0.0001511
-0.001769
-0.0003395
0.002108
-0.001875
0.005918
-0.004043
1.002e-05
-0.0001201
0.0001101
0.0006108
0.002385
-0.00415
0.003459
0.0006903
-0.0006427
0.0006231
1.962e-05
1.121e-07
-6.53e-05
6.519e-05
1.595
-0.6648
-0.9298
1.595
-0.6648
-0.9297
-0.0004297
-0.0003707
0.0002041
0.002265
-0.002469
-8.428e-06
1.21e-05
-3.668e-06
0.003721
-0.004433
0.000712
-0.08226
0.1001
-0.0002216
0.0002057
1.593e-05
-0.1787
0.9672
-6.076e-05
0.0003086
-0.0002479
2.995e-05
-5.087e-05
2.092e-05
0.0007464
-0.0004316
-0.0003148
-2.747e-06
3.257e-05
-2.982e-05
0.0009966
-0.001939
0.0009428
-0.0001722
0.0002057
-3.347e-05
-8.912e-05
0.0003372
-0.000248
0.1535
-0.04313
-0.09875
-0.1711
0.2699
-6.226e-05
-0.0002055
0.0002677
-3.108e-05
-7.474e-05
0.0001058
0.001457
0.0003577
1.729
-0.1343
1.729
-0.1343
0.0001034
-6.68e-05
-3.659e-05
-1.213e-05
-2.8e-06
-0.001246
0.001104
0.0001423
0.0005982
-0.0005381
-6.006e-05
-0.004177
-0.002787
-0.09106
-0.05924
0.1503
9.678e-05
-8.688e-05
-9.9e-06
3.952e-05
-3.064e-05
-8.884e-06
-0.004632
-0.003317
0.007949
0.0003503
0.0005541
-0.0009043
0.0004463
0.0003
-3.94e-05
-0.0002336
-0.0003595
0.0004076
-4.802e-05
-0.001382
0.002035
-0.0006525
0.0004223
-0.0003871
-3.526e-05
5.047e-05
-4.342e-05
-7.05e-06
-0.000472
0.0003947
-0.0009624
0.001552
-0.0005894
0.0002154
-0.000372
0.0001566
0.01563
-0.03064
0.01501
0.0004254
-0.0004388
1.34e-05
0.00275
-0.004625
-4.783e-07
-9.855e-06
1.033e-05
-0.0001788
-0.0001807
-3.085e-05
0.0002474
-0.0002165
0.0001193
-0.0003167
0.0001975
-0.002268
-0.001881
0.003773
-0.006148
0.002375
-0.001141
0.001016
0.0001254
-3.363e-06
0.0001295
-0.0001261
0.0007526
0.000376
-0.001129
-0.001382
0.01372
-0.01234
0.08433
0.5853
-0.6696
-0.09252
0.08136
0.01116
-0.0003878
0.0006077
-0.0002199
-0.002106
0.001069
0.001037
-7.476e-05
-0.0002703
0.000345
0.002067
-0.002462
0.0003951
0.0001898
-5.979e-05
-0.00013
0.002326
-0.003399
0.001073
0.06116
0.05994
-0.1211
-0.007425
0.005889
0.001537
-0.0007399
0.001351
-0.0006107
-0.006525
0.007288
-0.0007631
-6.524e-05
4.821e-05
1.703e-05
0.000377
-0.0003467
-3.035e-05
0.04387
-0.02988
-0.01398
0.001565
-0.00115
-0.0004148
-0.0008761
0.0006379
0.0002382
0.3802
-0.4877
0.1076
-0.0007735
0.0008818
-0.0001083
0.001019
-0.0006221
-0.000397
0.4292
-0.1923
-0.2369
-1.652
0.3931
1.259
-0.001365
0.0009434
0.0004218
2.832e-06
-3.168e-06
3.362e-07
0.001783
-0.0291
0.02731
0.0001097
-2.522e-05
-8.445e-05
-0.0165
-0.02024
-3.9e-05
0.0001056
-6.659e-05
-0.0002491
0.0003684
-0.0001926
0.0003902
-0.0001977
-4.241e-06
4.015e-06
2.255e-07
-0.003756
0.003117
0.0006389
0.7333
-0.6535
-0.07983
-0.0004128
0.001126
-0.0007134
0.0004781
-0.0005387
6.061e-05
0.3856
0.04362
-0.1689
0.1721
-0.003195
0.0001337
4.225e-05
-0.0001812
-0.001588
-0.0004129
0.0003886
2.43e-05
0.00237
-0.0006433
-0.0003629
0.000272
9.086e-05
-0.3105
0.2717
0.03881
3.567e-05
-3.744e-05
1.774e-06
-0.0004195
-0.0009437
0.6784
-1.154
0.4751
-0.007528
0.00537
0.002158
0.2838
-0.254
-0.02987
-0.001339
0.0008019
0.0005374
0.0002113
-0.0001236
-8.773e-05
0.0003526
-0.001788
0.001436
-6.893e-05
0.001057
-0.0009882
-0.004244
-0.003283
0.000981
0.0005837
0.6691
-0.5848
-7.472e-07
3.426e-07
4.046e-07
-0.0001059
-0.0005369
2.111e-05
1.841e-05
-0.004913
-0.001358
0.006271
-0.0003599
0.001057
-0.0006969
0.0001005
0.003494
-0.003595
-0.2833
0.1846
3.813e-05
-6.614e-05
2.802e-05
0.004463
-0.0007426
-0.04286
-0.04966
-0.0001905
4.783e-05
0.0001426
0.01979
0.02134
-0.04113
-0.0004577
0.0007596
-0.0003019
-1.92e-05
1.659e-05
2.612e-06
0.000762
-0.000411
-0.0003511
0.0004148
0.0003473
0.00236
-0.00133
0.0001449
-0.002658
-3.868e-05
-2.655e-05
-0.0001867
0.0009196
-0.0007329
-0.0004428
-0.0004333
-0.001283
0.0003326
0.0009508
-0.0005065
-0.0008587
-1.665e-05
-4.302e-05
5.968e-05
-8.177e-07
0.0003778
0.0001648
-0.0001648
-7.97e-07
-0.0004712
7.457e-05
0.0001368
-0.003776
0.001093
0.002683
-0.0009978
0.001753
-0.0007548
-0.1817
0.0906
0.0007136
0.000174
-0.0008876
0.0005769
-0.0004893
-8.759e-05
-0.0001519
0.0001747
-2.287e-05
-0.004215
0.003067
0.001148
-1.325
0.9359
0.3892
5.005e-07
5.642e-06
-6.143e-06
1.871e-06
-8.191e-07
-1.052e-06
-0.0001644
-2.01e-05
0.0001845
-9.891e-05
5.807e-05
4.084e-05
-2.024e-07
1.406e-07
6.186e-08
-0.002194
0.001951
0.0002431
-0.8706
0.6466
0.224
-0.0008687
-0.0004465
0.001315
-0.000428
-0.0005477
-0.00036
-9.385e-06
0.0003694
-0.0002844
0.0003371
-5.275e-05
-5.061e-05
0.003266
-0.003216
-0.0001855
-0.001061
0.0009901
-0.001615
0.0006249
-0.00811
0.2266
0.0002564
0.0001071
-0.0003635
-3.99e-05
7.457e-05
-3.467e-05
-0.0001927
0.000112
8.075e-05
-3.099e-05
4.067e-06
2.693e-05
0.000974
-0.0007262
-0.0002478
0.0201
-0.01111
-0.008988
0.1281
-0.05744
-0.0707
-0.4483
1.127
0.0002525
-5.565e-05
-0.0001968
0.1726
-0.2697
0.09701
0.0002409
-0.0001091
-0.0001318
-0.0005988
0.0007902
-0.0001914
-0.1445
-0.003699
0.1482
4.238e-07
-3.379e-07
-8.591e-08
-0.4471
0.1635
0.2836
0.002217
-0.006881
0.004664
-0.02736
0.1233
-0.09598
0.0003523
-0.0003162
-3.607e-05
0.0004809
0.000905
-0.001386
-0.003444
0.002584
0.0008607
0.0001332
0.0002891
-0.003175
0.001087
0.002088
-4.987e-05
-0.0001428
-9.769e-07
-3.264e-06
-1.753
0.1009
-0.001817
0.0009056
0.0009113
-1.6e-05
3.359e-05
-1.759e-05
0.0002683
-0.0002797
1.137e-05
0.0002498
-0.0004281
0.0001783
0.0009665
-0.0004808
-0.0004857
0.6949
0.03839
0.01545
-0.009375
-0.006072
-0.0002019
-0.000161
0.006338
0.0002077
-0.006545
0.001112
-0.001403
0.0002917
-0.0004558
-0.00165
-0.0005258
0.0003487
0.000177
-7.934e-05
-1.958e-05
-0.001616
0.001565
5.085e-05
0.008261
-0.04047
0.0322
-0.0003247
-0.0003893
0.000714
-0.0001575
-0.000616
0.0003509
0.0002473
0.0001558
0.0006558
-0.0008116
-0.2423
0.6433
-0.401
-0.002388
-0.001828
0.0003346
-0.0007224
-0.1551
0.1009
0.05423
-9.569e-05
-0.0002659
0.0003616
0.3785
-0.6208
0.5176
0.2603
-0.7778
-0.0006382
0.0006979
-5.97e-05
5.659e-05
4.68e-05
0.003085
-0.02265
0.01956
-0.1078
0.001633
-0.001518
-0.0001144
0.0001349
-0.0001578
2.296e-05
1.044e-06
8.27e-07
0.0008904
0.01165
-0.01254
1.202
-0.8254
-0.3766
0.0007917
-0.0007112
-8.051e-05
8.374e-05
-0.0001303
4.659e-05
0.000917
-0.0009181
1.123e-06
0.0001806
-5.568e-05
-0.0001249
-0.6171
0.3431
0.274
-0.008279
0.00235
0.005929
0.0002038
-0.001166
0.0008055
-0.001366
0.0005606
0.000113
0.0003652
0.000849
-0.0002666
-0.0005824
-0.3841
-0.4865
0.1256
0.0279
-0.001323
-1.61e-05
-7.997e-05
-0.001061
0.0001498
0.0001347
-0.003163
0.002247
0.0009154
0.06898
-0.0454
-0.02358
0.0008608
-0.0009297
-0.001821
-0.001935
-0.03746
0.03924
1.106
0.09626
-2.292e-05
-0.0001653
0.0001883
0.1113
0.1725
-0.0002678
0.0003613
-9.355e-05
-2.748e-05
-0.000553
-0.004881
0.000163
0.004718
-1.795e-05
1.69e-05
-0.1207
0.1729
-0.05227
0.0001537
3.605e-05
-0.0003528
0.0004337
-0.004396
-0.0008803
0.005276
0.0001191
-9.526e-05
-2.38e-05
-0.0002154
4.319e-05
-0.0002539
0.0001362
0.0001177
-0.000287
0.0003756
-8.863e-05
-0.5787
1.124
-0.5454
-0.0003473
0.0002626
8.475e-05
0.01655
-0.00332
-0.01323
0.01341
-0.03914
0.02574
-0.07249
0.4527
-0.968
0.4368
0.5311
0.005598
-0.0005377
-0.005061
1.645
-0.8923
-0.7529
0.07291
-0.641
0.568
-0.0003998
0.0004898
-8.998e-05
-0.01235
0.01097
-0.0009816
0.001527
-0.0005451
1.311
-0.4558
-0.8553
0.0003488
1.557e-05
-0.0003644
0.002182
-0.002522
0.0003402
0.0001614
-0.0001614
-0.0005395
0.0001986
0.000341
-0.0009443
0.0002044
-0.0009235
0.003249
0.001116
-0.0009668
-0.0001488
-0.0006859
5.145e-05
0.0006345
-0.001348
0.000928
0.0004199
0.6774
-1.256
-1.023
-0.5131
1.536
0.08705
-0.2077
0.0005847
0.0003408
-0.0009254
-0.0003932
-0.0006217
0.001015
-0.006644
-0.02608
0.03273
0.0004989
0.0004751
0.002222
-0.00165
-9.075e-05
0.0002605
-0.0001697
0.001888
-0.00275
0.0008627
-0.05397
0.0438
0.01017
-0.0001783
-5.025e-05
0.0002286
0.0001952
0.0001382
-0.0003335
-0.03079
-0.02318
-0.4076
0.6299
-0.2224
-5.538e-05
3.873e-05
0.002309
-0.001312
-0.0002648
-0.0007363
0.001001
-0.3032
0.3302
-0.02697
-0.001455
1.572e-05
-0.0002642
-8.902e-05
0.0003532
0.0004596
-0.001842
0.3058
-0.1079
-0.198
-0.00203
0.005803
0.000179
-0.0002096
3.063e-05
-0.1297
-0.03374
0.1635
0.0002629
-0.0002214
-4.155e-05
0.08058
0.04756
-0.005988
0.00138
0.004608
2.064e-05
-0.0002111
1.123
-0.8698
-0.2532
0.001245
-0.00144
0.0001946
0.004878
-0.0006099
-0.004268
-4.387e-05
-0.0009378
-0.0003047
-0.000221
-0.2897
-0.1574
0.0001146
-3.537e-05
-7.923e-05
-0.0005206
0.0005644
-4.38e-05
0.0004787
0.0001054
-0.0005841
0.00077
0.0008627
0.00346
-0.001824
-0.001637
-0.001352
0.002035
-0.0006832
-0.5431
0.9516
-0.4086
0.0003573
-0.0005968
0.0002395
-0.0009297
0.04104
-0.04011
-0.0003572
0.002424
-0.0001772
8.401e-05
9.319e-05
-2.05e-06
2.509e-05
-2.304e-05
9.108e-05
-0.0001037
1.263e-05
-0.002037
0.0005307
0.001506
-0.0008223
0.0001364
-0.04464
-0.0243
0.06893
-7.552e-05
-0.006449
1.615e-05
3.432e-05
0.02568
0.01812
0.0002894
-0.0005438
0.0002545
6.033e-07
-6.299e-07
2.652e-08
-0.0144
0.006872
0.007532
0.01813
-0.00263
-0.0155
0.005819
-0.003627
-0.002192
0.3691
-0.9893
0.6202
0.0001344
-0.0002518
0.0001174
-0.0007567
0.0006207
0.000136
-1.429
0.4058
-0.0001274
-5.424e-05
0.0001816
-1.304
0.6879
0.6156
8.344e-05
-0.0005704
0.0004869
-0.002945
0.01668
-0.01373
-0.001221
-0.001954
0.0001298
-0.0005874
-0.01759
0.003756
0.01384
0.0005321
-0.0003191
-0.0002131
-0.006393
0.05868
-0.05228
0.0008639
-0.0003851
0.008679
-0.008299
-0.0003806
0.0001391
-5.754e-05
-8.153e-05
0.001375
0.001252
-0.002628
0.000491
-0.000711
0.00022
-0.1774
0.05805
0.1193
0.0002692
-0.0001495
-0.0001196
-0.3372
-1.362e-05
1.518e-05
-1.565e-06
2.85e-05
8.116e-05
-0.9492
1.033
-0.08345
-5.196e-07
3.352e-06
0.01023
0.005214
-0.004065
0.0009767
0.003088
0.000244
-8.21e-05
-0.0001619
4.696e-06
3.097e-05
-0.0005983
-0.001715
0.002313
0.0001321
-0.0002234
9.131e-05
0.0003929
-3.785e-05
-0.000355
-0.0001006
0.0005916
-0.2755
0.793
9.659e-05
8.401e-05
-0.0002882
0.0005417
-0.0002535
0.0003713
-0.0003678
-3.491e-06
0.0008472
0.0001193
-0.4018
-0.5474
2.579e-05
-2.888e-05
3.095e-06
-0.001176
-0.0001069
0.8068
-0.4376
0.0009756
0.0005417
-0.001517
0.0003024
-0.0002067
-9.573e-05
0.0004201
-0.0007583
0.0003382
-0.0003878
0.0004332
-4.54e-05
-0.7921
0.3845
0.0004191
-0.0006499
0.0002308
-0.0001719
-0.0001754
1.267
-0.6516
-0.6155
0.000153
0.0001161
0.0005371
0.0006155
-0.001153
4.132e-05
0.0009105
0.0004482
-0.001359
0.0005409
-0.0001407
-0.0004002
9.543e-05
-0.0001057
1.027e-05
0.001103
-0.0002589
-0.0008442
0.0001701
-0.0002799
0.0001098
0.01575
-0.002656
-0.01309
1.157
-1.243
0.08612
0.0001319
-0.0001353
-0.000387
-2.576e-05
0.00224
0.0003361
-0.002576
-1.128e-05
2.852e-06
-0.0009378
-0.001099
0.003418
0.01313
0.0002417
6.073e-05
-0.0009943
-0.0012
-0.001955
-0.003629
0.005583
1.54
-0.6355
-0.9042
-0.004546
0.00131
0.003237
-0.01544
-0.1143
0.7841
0.2558
-1.04
-0.2182
0.07374
0.0009291
-0.001496
0.0005673
-0.0004308
-0.000917
-0.001158
-0.003724
-0.3466
0.03612
0.081
0.007703
-0.0887
0.004591
-0.004565
-2.681e-05
-0.001627
0.003433
-0.001806
0.0149
-0.005556
-0.009342
0.0004015
-0.0004763
0.002671
-0.002627
-4.321e-05
-0.09669
0.1566
-0.005695
0.007912
-0.1329
0.05194
0.08097
0.004835
0.0007635
9.342e-05
-9.883e-06
5.547e-05
0.00037
-0.02501
0.007422
0.01034
0.004556
-4.525e-05
0.0009608
-0.0009156
-0.5686
-0.04846
-0.0003761
0.0002928
8.336e-05
1.202
0.4428
-0.0009865
-0.0004383
0.001425
-0.001662
0.001658
4.373e-06
-0.0003921
-0.0003646
-1.249
-0.07567
0.177
-0.2043
-0.000502
-0.0005163
0.001018
-1.408e-05
4.506e-06
9.574e-06
-1.379e-05
1.331e-05
0.003388
-0.00802
0.003435
-0.008348
0.0006093
0.0005063
0.0001228
0.0001297
-0.002244
0.003196
-0.0009525
1.303
-0.4751
-0.8278
-0.003993
-0.004286
-0.002566
0.002676
-0.0001101
0.02568
0.102
-0.1277
-0.01823
0.0317
-0.01347
0.0003391
-0.0004283
-0.000118
0.0001446
-2.667e-05
0.0004898
-0.000884
0.0001394
-0.0001294
0.7536
0.1083
-0.8619
0.007757
0.07451
-0.08226
0.0002033
-0.0002968
9.352e-05
0.0005712
-0.001279
0.0007078
0.543
0.07432
-0.6173
0.001188
-7.598e-05
0.01285
-0.002291
-0.01056
5.758e-05
-3.474e-05
-2.284e-05
-0.001265
0.001266
-1.072e-06
0.0004234
-0.000376
-0.001801
-0.001208
0.003009
-0.004623
0.0005583
-1.718e-05
2.764e-05
-1.046e-05
0.9107
0.2463
-0.0008765
0.00126
-0.0003837
-0.0006361
0.0006721
-3.608e-05
0.003697
0.002122
-0.0005178
0.0002058
0.000312
0.0006019
0.0001276
-0.0007295
0.4363
-0.1688
0.0001149
-0.0001004
-1.451e-05
-0.0002966
2.879e-05
-0.002055
0.001071
0.0009842
-0.0001784
0.0001474
0.0001233
-9.581e-05
-2.748e-05
1.847e-05
-0.0006567
-0.005473
0.008258
-0.002785
0.0178
0.002219
-0.02002
0.001266
-0.0008014
-0.0004648
0.001891
0.001569
-2.262e-06
9.113e-05
-8.887e-05
0.0001477
0.0002046
-0.0003098
-0.001306
-0.0003875
-0.000152
-0.000647
0.0005415
0.0001055
0.0473
-0.1438
0.09652
0.6614
0.8783
-0.1128
-0.02013
4.668e-06
-1.828e-05
9.127e-05
0.0007005
0.8014
-0.2281
-0.5733
0.0001169
-0.0003095
-0.0003248
0.000264
-0.09925
0.1466
-0.0002804
0.001033
-0.0001161
7.837e-05
3.773e-05
-0.03714
0.7062
-0.001509
0.001861
-1.357
0.1794
1.177
-0.01887
-0.01345
0.03231
0.009667
-0.01108
0.001416
1.151
0.1605
0.0001051
-8.272e-06
-9.682e-05
5.471e-06
-5.914e-06
4.425e-07
0.03227
-0.0332
0.07703
0.06335
-0.1404
0.0002604
-0.001041
0.0007805
6.59e-05
4.87e-05
-0.005155
0.005801
0.0001088
0.0001352
-0.0001711
-3.045e-06
0.0001741
-1.267e-06
-4.901e-07
1.758e-06
0.0001358
0.0001324
0.0006389
0.001278
-0.001917
0.002765
-0.0008779
-1.219
0.3626
0.8568
0.0001973
3.013e-05
-0.0002274
0.9616
-1.186
0.2249
-0.001066
0.001547
7.843e-05
-6.794e-05
-1.049e-05
-0.001201
0.003736
-0.002535
0.0005884
-0.001575
-0.001091
0.001621
-0.0005302
-0.001083
0.0006556
0.0004278
-0.7304
0.6933
0.701
0.422
0.0005989
-0.0008014
0.0002024
0.001231
0.003361
0.9795
-0.226
-0.000127
8.024e-05
4.672e-05
0.06543
-0.04664
-0.01879
0.002815
-0.002209
-0.0006067
0.1328
-0.05635
-0.07646
-0.0004524
-0.0005385
0.0009909
0.0005972
-0.0003151
-0.0002821
-0.0004567
0.0004633
-6.614e-06
0.3136
0.9893
-0.0002934
0.0006759
-0.001893
-0.001552
0.006537
-0.00336
-0.003178
0.007588
-0.003857
-0.003732
-1.033
-0.2595
1.292
-5.648e-05
-7.413e-05
0.0001306
0.0002493
-0.0001604
-8.886e-05
0.000614
-0.0004758
-0.0001382
-0.003252
-0.002735
-0.001511
-0.0005434
-4.115e-05
3.84e-05
-0.06104
-0.2026
0.2636
-0.000198
-0.0001781
0.0002091
-0.0001589
-5.02e-05
0.0001191
-2.231e-05
0.3429
-0.1702
-0.00101
7.872e-05
0.0009318
-0.2823
1.066
-0.001675
0.0006001
0.001074
0.0002291
4.917e-05
-0.0002783
-0.2058
-0.1705
0.3763
-1.881e-07
-1.719e-05
1.738e-05
0.001592
-0.001965
0.0003737
-8.707e-05
0.001183
-0.001096
-3.073e-05
-0.002409
0.00244
0.0005697
0.0006965
-0.002462
-0.001314
0.0004493
0.0004347
-0.000884
0.05068
-0.07062
0.01994
-4.153e-05
-0.001413
0.0006699
-0.0007597
8.983e-05
-0.000837
0.001875
-0.001038
-0.07844
-0.07664
0.01187
-0.01279
0.000922
-0.002844
0.00328
-0.0004362
0.6861
-5.675e-05
-9.512e-05
0.3815
-0.2524
-0.1291
0.03877
-0.01735
-0.02143
-0.0001778
0.0001443
3.348e-05
-0.2834
0.07758
1.074
-0.4319
-0.6418
-0.002195
-0.002351
0.0005734
-0.0008382
0.7055
0.09594
-0.459
0.7905
-0.3315
4.025e-05
-2.583e-05
-1.442e-05
0.04208
0.0269
-0.01853
0.02941
-0.01088
0.0004162
-0.0004184
2.217e-06
-0.001005
0.00185
-0.0008449
-0.000285
0.0006942
-0.0004091
-0.02907
-0.1716
0.2006
-0.0007137
0.03313
-1.39
-8.96e-05
0.000105
-1.536e-05
0.0002097
2.383e-06
-0.0002121
3.401e-05
0.02541
-0.02544
-2.297e-06
-4.963e-05
5.192e-05
0.02875
-0.07225
0.0435
-0.2817
-0.02003
0.3017
0.0002124
-0.0002087
-3.735e-06
0.002842
-0.0006597
-0.0003506
-0.0003216
0.0006722
0.002113
-0.001343
-0.00077
0.0001119
-0.0001688
5.688e-05
-5.402e-05
5.372e-05
3.031e-07
0.001779
-0.001643
-0.0001352
-6.287e-05
4.734e-05
1.553e-05
-1.743e-05
4.136e-05
-2.393e-05
0.1517
-0.6482
0.4965
0.001808
-0.001612
-0.000196
-0.001161
0.00139
-0.0002286
-0.0003449
2.812e-05
0.001374
-0.002125
0.0007509
0.0008678
0.0001701
-0.001038
-0.0004801
-1.276e-05
0.0004929
0.009872
-0.05273
0.09219
0.2239
-0.3161
-0.001328
0.0004681
0.0008603
0.001567
-0.00145
-0.0001177
-0.0002221
2.661e-05
0.0001955
0.1417
0.01908
-0.1608
-0.001297
0.0008195
0.0004772
0.0002367
0.001346
-0.001583
-0.001196
0.001033
0.0001624
-0.0006095
0.0003232
0.0002863
-0.1857
0.2191
-0.03336
0.001684
-0.001111
-0.0005735
0.0001544
9.494e-05
-0.001416
0.003972
-0.002556
-0.002155
0.0006522
0.001503
-0.002074
-6.098e-06
0.002081
1.435
-1.168
-0.2672
0.001304
-0.0007367
-0.0005672
3.34e-05
4.463e-05
-7.803e-05
-0.0006561
0.0005203
0.0001358
-0.6304
-0.1708
0.8013
0.0007737
0.000753
0.1992
-0.2796
0.08045
-0.0002149
0.0001836
3.131e-05
-0.0004842
0.001474
-0.7632
-0.2048
0.01588
0.6762
-0.6921
-0.0522
0.1182
-0.06599
-4.798e-05
-0.0004911
0.000539
-0.0001141
0.0001033
1.077e-05
-0.0003595
-0.0007996
0.001159
-0.01233
0.00876
0.003569
-0.002167
0.002109
5.804e-05
-0.0003501
-0.0001857
0.0005358
0.0008454
-0.001577
0.0007315
3.681e-06
3.717e-06
-7.398e-06
0.0009636
3.25e-05
-0.0009961
0.7896
-1.307
0.5176
0.1049
0.7444
-0.8493
-0.2444
0.3253
-0.08085
-0.0001786
0.0001786
0.4572
0.8294
-1.287
0.003458
-0.002246
-0.001212
0.007434
-0.01047
0.003036
-0.0006431
0.00353
-0.002887
0.001042
-0.001194
0.0001528
0.001966
-0.001212
-0.0007539
5.698e-08
6.358e-07
-6.927e-07
0.0008292
-0.0004303
-0.0003989
0.00151
0.0007848
-0.002295
0.0001213
-2.419e-05
-9.715e-05
-2.564e-05
0.0004585
-0.0004328
-0.8958
1.071
-0.1751
2.883e-05
-0.0001137
8.492e-05
0.0006251
-0.001194
0.0005687
1.019
-0.9633
-0.05587
-0.0004358
-7.007e-06
0.0004428
-0.002086
-6.835e-05
0.0003851
0.000224
-0.0006091
3.756e-05
3.495e-05
-7.251e-05
-0.03317
0.2111
-0.1779
-0.0005783
-0.0001291
0.0007075
-0.001552
0.003297
-0.001745
0.002229
-0.0008728
-0.001356
0.0005495
0.0009444
-0.001494
-0.0001143
-0.0001423
0.0002566
-0.0003492
2.109e-05
0.0003281
0.0005273
-0.0003169
-0.0002105
-0.005474
0.008773
-0.003299
0.004485
-0.002468
-0.002017
-0.002955
0.004903
-0.001948
-0.0005695
-0.0002601
0.0008295
-0.001053
-0.0003955
0.001449
-6.388e-05
0.0001443
-8.043e-05
-0.0003772
-0.0002095
0.0005866
-1.185e-05
-2.4e-05
3.585e-05
-0.003152
-0.006739
0.009892
0.0002223
0.001246
-0.001468
0.709
-1.254
0.5454
-0.2986
0.05913
0.2395
0.6327
-0.2778
-0.3549
0.001573
-0.001559
-1.437e-05
0.0001138
0.000318
-0.0004318
0.01371
-0.00638
-0.007325
-0.003088
-0.004337
0.003906
0.003683
-0.002603
0.001329
0.001274
-0.0008658
-0.0009454
0.001811
0.0008789
0.0003145
-0.001193
-9.129e-05
9.129e-05
-3.164e-05
-8.623e-05
0.0001179
-0.0292
-0.2525
-1.159
0.2287
0.9299
-7.615e-06
1.023e-06
6.592e-06
9.008e-05
-9.008e-05
1.307
-0.5179
-0.7891
-0.003523
0.007392
-0.00387
0.001071
-0.0006226
-0.0004481
-0.08927
0.07641
0.01285
0.001093
0.0002432
-0.001336
3.56e-05
-3.56e-05
-9.215e-05
9.852e-05
-6.369e-06
-0.07245
0.1244
-8.348e-07
3.769e-06
-2.934e-06
-0.0002116
0.0002116
-0.0002297
-0.000264
0.0004936
-0.004347
0.001372
0.002975
-0.0001918
2.745e-05
-0.0006536
0.001142
-0.0004885
0.0001148
-8.634e-06
-0.0001062
0.823
0.03334
-0.8564
-0.0003337
-0.0009849
0.001319
0.005014
-0.0002448
-0.004769
-0.1206
-0.05675
-5.432e-06
-1.466e-06
6.898e-06
0.1935
-0.3874
0.1939
1.015
-0.3603
-0.6551
0.002605
-0.0007374
-0.001868
-0.0001182
-0.0002268
0.000345
-0.02245
0.02216
0.0002889
-0.001069
0.0001882
0.0008808
0.02007
-0.02863
0.008562
-1.181
-0.1825
1.363
-0.0002095
0.000151
5.849e-05
0.0007049
-8.099e-05
-0.0006239
0.08182
-0.05307
-0.0006907
0.001065
-0.0003746
0.004599
-0.005567
0.000968
0.3323
0.03855
-0.3708
-8.56e-05
8.809e-05
-2.493e-06
0.0005045
-0.001081
0.0005761
0.0001004
0.0001766
-0.000277
0.09887
-0.1494
0.05052
-0.7614
0.9646
-0.2032
-1.37e-06
-1.55e-06
2.92e-06
0.5042
-0.5564
0.05225
-5.832e-05
2.457e-05
3.374e-05
-2.77e-05
-8.454e-05
0.0001122
-0.001695
-0.005876
0.007572
-0.0009179
-0.001193
0.002111
2.598e-07
-0.0006499
0.0006497
0.002646
0.001265
-0.00391
-0.0001591
4.575e-05
0.0001134
-5.493e-05
5.493e-05
0.001337
-0.0004065
-0.0009309
0.0002822
-0.002073
0.001791
0.002131
-0.0005756
-0.001555
-0.000165
0.000165
0.00148
-0.003109
0.001629
0.0003129
-0.0003288
1.59e-05
-0.4072
0.4669
-0.05972
-0.0005714
0.001112
-0.0005404
-0.00155
-1.79e-05
0.001568
0.0004235
-0.001438
0.001015
0.126
-0.2124
0.08636
-0.007297
0.003804
0.003492
0.6765
-0.3664
-0.3101
0.0003246
-0.0002276
-9.698e-05
-0.001012
0.000608
0.0004036
-7.887e-06
0.0001645
-0.0001566
-0.001625
0.001847
1.366
-0.8553
-0.5109
0.005354
0.001502
-0.006856
-0.0009814
0.0003074
0.000674
0.01374
-0.01174
-0.002003
1.673e-06
-1.037e-06
-6.357e-07
0.0008413
-0.0002462
-0.0005951
1.733e-05
-3.616e-05
1.883e-05
-0.0001683
0.0002998
-0.0001314
0.006631
0.004027
-0.01066
-0.07488
0.02361
0.05127
0.002391
-0.0004017
-0.00199
0.0006128
-0.0004064
-0.0002064
-0.9634
1.508
-0.5448
0.03731
-1.001
-0.00137
0.002678
-0.001309
0.001474
-0.0005635
-0.00381
0.0013
0.002509
-2.896e-05
-0.0006902
0.0007191
0.0001067
3.712e-05
-0.0001439
-0.00516
0.001838
0.003322
-0.08703
1.281
-1.194
-0.4881
0.7024
-0.2143
-0.000457
-0.0001007
0.0005577
-0.001578
0.0004565
0.001121
-0.0002715
0.000484
-0.0002125
-0.02012
0.02321
0.004342
0.002999
-0.007341
1.599
-0.9739
-0.6246
1.039
0.3961
-0.2199
0.2171
0.002766
7.166e-06
-2.162e-05
1.445e-05
0.0001313
-9.998e-05
-3.127e-05
7.791e-06
-2.467e-05
1.688e-05
0.0001041
-0.0001041
0.007106
-0.005707
-0.001399
1.861e-05
-0.0004221
0.0004035
0.2435
-0.4861
0.2426
-0.0002174
8.909e-05
0.0001283
0.000304
-0.0002521
-5.187e-05
0.02552
-0.0143
-0.01122
-0.0002793
5.179e-07
0.0002788
1.003
-0.8661
-0.1365
-9.722e-05
-0.0005986
0.0006959
-0.0419
-0.4564
0.4983
0.0003783
-0.0003372
-4.109e-05
1.733
-0.529
-1.204
0.03005
-0.03669
8.105e-05
-7.989e-06
-7.306e-05
5.645e-05
-5.645e-05
1.17e-05
-1.686e-06
-1.002e-05
-0.001173
-0.0005017
0.001012
-4.866e-05
-0.001078
0.0006533
0.0004244
7.371e-06
3.646e-05
-4.383e-05
0.0002964
-0.0005702
0.0002738
-0.003879
0.002311
0.001568
-0.04049
0.03797
0.002523
0.03888
0.04294
-0.0009392
0.001402
-0.0004624
-0.001234
0.0009387
0.0002948
0.002046
-0.00209
4.421e-05
5.043e-05
-5.043e-05
-0.003715
0.003686
2.932e-05
-2.543e-06
-0.0002771
0.0002797
3.959e-05
-0.000101
6.145e-05
-1.493
0.4602
-0.02453
0.02412
0.0004065
-0.0007654
0.0007998
-3.443e-05
1.615
-0.9089
-0.7064
-0.0006738
0.001307
-0.000633
0.0003783
0.00229
-0.001982
-0.000308
0.0004601
-0.001409
0.0009493
0.0009327
-1.944e-05
-0.0009133
0.6311
-0.8915
0.2604
-0.000125
-8.744e-05
0.0002124
-0.000849
-0.001237
0.0001844
-0.0002009
1.648e-05
-1.375
0.844
0.5312
0.000709
0.0003372
-0.001046
-0.004625
0.003561
0.001064
-0.0002521
0.0003238
-7.168e-05
3.084e-05
-2.314e-05
-7.704e-06
-0.002701
0.002357
0.0003443
0.0004438
-0.0002736
-0.0001702
-0.0002104
-0.0003075
-0.001114
-0.000588
0.001702
0.000157
-0.0001527
-4.339e-06
0.002085
-0.003672
0.001587
-0.009878
-0.005466
0.01534
-2.454e-07
3.095e-06
-2.849e-06
0.09179
-0.2074
0.1156
0.2844
0.05906
-0.3435
1.42
-0.6305
-0.002181
0.003112
-0.0009311
0.0001032
-0.0001205
1.732e-05
-0.0003243
-2.168e-05
0.000346
-0.000334
0.004091
-0.003757
0.0003553
-0.0002556
-9.971e-05
-0.0009068
0.001656
-0.000749
-0.002041
-0.004992
0.007033
0.0003488
4.407e-05
-0.0001884
2.929e-05
-0.01957
0.01545
0.004122
-6.438e-05
-6.367e-05
0.000128
5.703e-05
5.967e-05
-0.0001167
-0.000194
0.0002995
-0.0001055
-3.343e-05
-2.334e-06
3.576e-05
0.0004504
-0.0004504
-0.04385
0.05211
-0.002195
0.005642
-0.003447
0.1724
-0.2719
0.09953
0.0001024
-0.0001014
-9.386e-07
-0.001157
0.001077
7.994e-05
0.002576
-0.0004567
-0.002119
-2.449e-06
-3.045e-05
3.29e-05
0.004507
-0.002394
-0.002113
0.0002157
-0.000121
-9.467e-05
0.0009097
0.01451
-0.01542
0.0001063
-0.0002525
0.0001462
0.000724
-0.001105
0.0003812
7.888e-05
-0.0003504
-0.1101
-0.2819
0.392
0.0004843
0.001522
-0.002007
-4.512e-05
0.001301
-0.001256
1.063e-05
-1.474e-05
4.108e-06
-0.001182
-8.633e-05
0.001269
-0.0004089
3.965e-05
0.0003692
-0.0003664
7.825e-07
0.0003656
-0.0008779
-0.0005872
0.001465
2.364e-05
-0.0005951
-0.4087
-0.138
0.5467
-6.122e-06
6.903e-07
-5.81e-05
0.0001988
-0.0001407
-0.01699
0.07559
-0.0586
-1.54e-05
-0.000206
-0.001693
0.0007128
0.0009806
0.0002732
-0.0002475
-2.565e-05
-1.076
-0.5903
-1.076
-0.5904
-1.154
0.9682
0.1856
-8.477e-05
0.0001314
-4.664e-05
-4.337e-05
-1.95e-05
-0.0009782
0.003416
-0.002438
0.000257
0.0002703
-0.0035
0.003515
-1.498e-05
0.01357
-0.006942
-0.0003532
6.884e-05
-0.002718
0.01581
-0.0131
8.386e-05
-0.0007349
0.000651
-0.001291
-0.0004027
0.001694
0.0004057
-0.0002445
-0.0001611
-0.0001899
0.0002903
-0.0001003
0.09203
-0.1536
0.06159
-0.0005284
0.0002503
0.0002781
-0.001211
0.003872
-0.00266
-0.00022
0.000415
-0.000195
-0.1935
0.2349
-0.04144
-0.0001623
0.003921
-0.003758
0.00101
-0.001499
0.0004888
-0.0004503
-0.0003256
0.0007759
9.175e-05
-9.175e-05
0.581
0.1751
-0.7561
0.3776
-0.07106
-0.3065
-0.0004269
0.0009301
-0.0005032
-0.009849
0.02598
-0.01613
-0.0009993
0.00168
-0.0006806
0.000756
0.0002288
-0.0009848
0.001989
0.0008264
0.008044
-0.006233
-0.001811
-0.005606
0.008891
-0.003286
0.0002166
-0.0003584
0.0001418
0.6471
-0.8853
0.2382
0.00103
0.0003398
-0.00137
-0.0001105
9.458e-05
1.595e-05
1.848
-0.2199
-1.628
0.09985
-0.1165
0.01661
0.00113
-0.0002063
-0.0009242
0.04007
0.01188
-0.05196
-2.578e-05
-9.96e-05
0.0001254
-0.0001147
-3.723e-05
0.0001519
0.001478
-0.001722
0.0002434
1.699e-05
1.058e-05
-2.757e-05
-0.0003989
0.001185
-0.0007863
0.0003022
-0.0001293
-0.000173
-0.009943
-0.03055
-8.216e-05
-6.794e-05
0.0001501
0.0009287
0.0003524
-0.001281
0.001712
-0.002516
0.0008041
-0.0005295
0.0008419
-0.0003124
-0.0006219
0.0003338
0.0002882
0.0001648
-0.001994
0.001829
-0.0002123
-7.464e-06
0.0002198
0.0002855
-0.0002304
-5.505e-05
0.857
-0.8922
0.03516
0.0439
0.9753
-1.342
0.7647
0.5777
0.00116
-0.0002432
-0.0009863
0.0002097
0.0007766
-0.0001651
-0.0003656
0.0005306
0.08504
-0.02141
-0.06363
0.01186
-0.005519
-0.6783
0.4296
0.2487
0.0002117
-0.001265
0.01471
0.03575
-0.05046
0.003286
-0.003267
-1.921e-05
0.001709
-0.001067
-0.0006423
0.0006201
-0.0009449
-0.001741
-0.09792
0.09966
-0.05963
0.06524
-0.00561
-0.005166
0.01531
-0.01014
-0.02698
0.01432
0.01267
-0.001722
0.001069
0.0006527
0.02063
-0.006402
-0.01423
-0.000901
0.0006265
0.0002744
-0.00167
0.0002036
0.001466
-0.05464
0.01659
0.03805
0.0002112
-0.0002128
1.529e-06
-0.002753
-0.0008518
0.003605
7.851e-05
-0.0002195
0.000141
-0.0003578
-0.00026
0.0006178
-0.4423
0.3607
0.08159
0.001017
0.0007816
-0.001799
0.001711
1.615e-05
-0.001728
-0.0003155
0.0003155
0.001115
-0.0004662
-0.0006491
-0.01988
0.007328
0.01255
0.001468
0.001989
2.202e-05
-0.0003313
0.0003093
-9.775e-05
0.0001319
-3.417e-05
-0.004974
0.005238
-0.0002639
-0.001027
-0.002601
0.003628
-0.2091
-0.6548
0.8639
-0.01476
0.02821
-0.01344
-9.438e-05
-0.0004341
-0.001287
0.001161
0.0001263
-0.9562
0.2065
0.7496
-0.004232
0.008422
-0.00419
-0.0001801
0.0001016
7.853e-05
0.0001237
-0.0001399
1.619e-05
-0.005371
0.006599
-0.001228
-0.0001742
5.474e-05
0.0001195
-0.02531
-0.004873
0.03019
0.001245
-0.0005313
-0.001195
-0.01077
0.01197
-0.004047
0.01192
-0.007871
0.000478
0.0006455
-0.001124
-2.359e-05
2.602e-05
-2.421e-06
-0.0001876
5.475e-06
0.0001822
-0.00672
0.01259
-0.005865
0.4158
-1.101
0.6854
-0.0001596
-0.0002724
0.0004319
0.3076
-0.001805
0.09137
-0.02678
-0.06459
7.336e-07
-1.302e-07
0.001371
-0.002237
-1.05e-05
1.737e-05
-6.861e-06
0.07184
-0.05349
-0.01835
-0.0012
0.000944
0.0002563
-0.006183
0.009084
-0.002901
1.113
-1.115
0.001611
-0.0003091
8.068e-05
0.0002284
-0.001513
-0.001433
0.002947
-1.184
-0.03547
-0.07872
0.03556
0.04315
3.245e-06
-3.844e-06
5.992e-07
0.0001058
-0.0001058
0.0002701
-0.0002356
-3.447e-05
0.003495
-0.003359
-0.0001355
-7.057e-05
-0.0005038
0.0005744
0.9944
-1.338
0.3433
0.0002055