/*--------------------------------*- C++ -*----------------------------------*\
| =========                 |                                                 |
| \\      /  F ield         | OpenFOAM: The Open Source CFD Toolbox           |
|  \\    /   O peration     | Version:  v2012                                 |
|   \\  /    A nd           | Website:  www.openfoam.com                      |
|    \\/     M anipulation  |                                                 |
\*---------------------------------------------------------------------------*/
FoamFile
{
    version     2.0;
    format      ascii;
    class       surfaceScalarField;
    location    "5";
    object      phi;
}
// * * * * * * * * * * * * * * * * * * * * * * * * * * * * * * * * * * * * * //

dimensions      [0 3 -1 0 0 0 0];
oriented        oriented;


internalField   nonuniform List<scalar> 
149048
(
-6.096e-07
6.096e-07
-1.319e-07
1.317e-07
-2.118e-06
2.118e-06
4.628e-06
-4.628e-06
1.499e-07
-1.5e-07
-1.403e-06
1.403e-06
-5.456e-06
5.456e-06
-8.762e-05
8.762e-05
-5.956e-05
5.956e-05
2.087e-06
-2.087e-06
0.0001569
-0.0001569
-4.814e-05
4.814e-05
0.0002321
-0.0002321
0.0002321
9.058e-05
-9.058e-05
-3.925e-05
-0.0001928
0.000282
-4.991e-05
-0.0001579
0.0001579
1.345e-05
-1.345e-05
0.000282
0.000487
-0.000487
0.000487
-1.296e-06
1.296e-06
0.0001232
-0.0001232
-4.323e-06
2.206e-06
8.404e-05
0.0004029
-7.31e-05
-0.0004139
-0.002927
0.003364
-0.0004376
0.001428
-0.00141
-1.768e-05
-4.402e-05
2.475e-05
1.926e-05
2.831e-07
-2.831e-07
-0.0006664
0.0006189
4.759e-05
-0.0002185
-0.000448
0.0008921
-0.0004035
-0.0004886
-0.001965
0.001745
0.0002203
0.001406
0.0008394
-0.002245
0.0004591
0.000433
-0.0003897
-0.002794
0.003183
0.7796
-1.176
0.396
-5.877e-05
0.001486
-0.0009445
0.0008496
9.497e-05
0.02591
0.1072
-0.1331
4.649e-06
-4.649e-06
0.002629
-0.002666
3.776e-05
0.002913
-0.002519
-0.0003938
0.0003053
0.000875
-0.00118
-0.03497
0.02007
0.0149
0.00296
-4.698e-05
-0.001231
0.0009769
0.0002539
-0.003118
0.0001909
0.0004536
-0.0002265
-0.0002272
0.0004598
0.0005617
-0.001021
-0.009035
0.005869
0.003165
0.0001738
0.0005073
-0.0006811
0.0006498
0.001979
0.0006665
0.0006827
-0.001349
0.001445
-0.001139
-0.000306
-0.0001466
-0.0009993
0.001146
-0.0004944
0.00121
-0.000716
5.127e-05
2.751e-05
-7.878e-05
0.2142
-0.2675
0.05335
-0.0003796
0.004916
-0.004536
3.769e-06
-6.189e-05
5.812e-05
-0.001096
0.0003172
0.0007788
0.000511
-0.000511
0.001992
4.813e-05
-0.00204
0.273
-0.04557
-0.2274
0.0005283
0.004151
-0.004679
0.0001451
0.0001369
-0.0009204
0.001168
-0.0002474
-0.00186
-0.0003734
0.002233
-0.001351
0.003926
-0.002575
-2.381e-06
0.000914
-0.0009116
0.0004257
0.002939
-0.003729
0.003168
0.0005605
-0.0005538
0.0005372
1.664e-05
-3.751e-06
0.0001908
-0.0001871
1.605
-0.6688
-0.9362
1.593
-0.6641
-0.9293
-0.0005702
-0.0005258
-0.0001216
0.002242
-0.00212
5.345e-05
-9.541e-05
4.197e-05
0.003348
-0.003886
0.0005387
-0.07702
0.1029
0.0008267
-0.0007484
-7.83e-05
-0.1779
0.9575
0.0002154
-0.0009612
0.0007458
-0.0004904
0.0008653
-0.0003749
0.001043
-0.000585
-0.0004585
-2.521e-05
-0.0001088
0.0001341
0.001579
-0.002713
0.001134
0.002861
-0.002747
-0.000114
-0.001248
0.002657
-0.001409
0.1551
-0.04796
-0.09562
-0.1705
0.2661
-5.685e-05
-0.0001966
0.0002534
0.0002468
0.0005092
-0.0007559
0.001145
0.0002992
1.741
-0.1355
1.728
-0.1343
0.001263
-0.003044
0.001781
-3.543e-05
-8.584e-06
-0.001225
0.001088
0.0001368
0.0004522
-0.0004337
-1.857e-05
-0.004529
-0.004505
-0.08549
-0.06407
0.1496
0.001293
-0.001385
9.269e-05
7.671e-05
-5.988e-05
-1.683e-05
-0.004359
-0.003974
0.008333
0.0003366
0.0005623
-0.0008989
0.0006066
0.0004368
-0.0004773
-0.001488
-0.000739
0.0008606
-0.0001215
-0.001156
0.00172
-0.0005646
-0.001408
0.001315
9.385e-05
-0.0001694
0.0001461
2.337e-05
0.001643
-0.001338
-0.001055
0.001714
-0.0006588
0.0005052
-0.000778
0.0002728
0.01845
-0.03172
0.01327
-0.001984
0.002197
-0.0002129
0.001792
-0.003143
1.046e-06
5.758e-05
-5.863e-05
-0.0003458
-0.0003932
2.553e-05
0.0005716
-0.0005972
0.0001392
-0.0003885
0.0002493
-0.001982
-0.001747
0.004803
-0.007374
0.002572
-0.001185
0.001055
0.0001304
-3.799e-06
0.0001489
-0.0001451
0.001041
0.0004988
-0.00154
-0.002837
0.01251
-0.009672
0.08447
0.5908
-0.6753
-0.09057
0.08307
0.00749
-0.0008151
0.001188
-0.0003733
-0.001669
0.0008663
0.0008024
-5.966e-05
-0.0002284
0.000288
0.001667
-0.001948
0.0002803
-0.000537
0.0001675
0.0003695
0.002037
-0.002914
0.0008775
0.06232
0.05688
-0.1192
-0.008311
0.004622
0.00369
-0.0006157
0.001135
-0.0005189
-0.005663
0.006472
-0.0008088
0.0002667
-0.0002043
-6.238e-05
0.0003643
-0.0003335
-3.081e-05
0.03857
-0.02547
-0.01311
0.001243
-0.0009101
-0.0003328
-0.0008503
0.0006072
0.0002431
0.3872
-0.4931
0.1058
-0.0009469
0.001067
-0.00012
0.001326
-0.000881
-0.0004454
0.4328
-0.1934
-0.2395
-1.645
0.3915
1.253
-0.001517
0.001042
0.0004748
1.383e-05
-1.552e-05
1.693e-06
0.005757
-0.03118
0.02542
-0.003413
0.00203
0.001383
-0.01349
-0.02149
-5.891e-05
0.0001275
-6.856e-05
-0.0002671
0.0004063
-0.0003942
0.0008056
-0.0004114
-8.992e-06
7.262e-06
1.73e-06
-0.00407
0.003405
0.0006645
0.6986
-0.6156
-0.083
-0.002309
0.005371
-0.003062
0.0008694
-0.0009617
9.231e-05
0.389
0.04382
-0.1676
0.1685
-0.0009147
-0.003982
0.003592
-0.0001735
-0.001686
-0.001803
0.00162
0.0001834
0.002703
-0.0007109
-0.0006982
0.0005309
0.0001673
-0.3052
0.2692
0.03605
8.923e-05
-9.696e-05
7.738e-06
-0.0003732
-0.0008576
0.6831
-1.163
0.4799
-0.008776
0.006427
0.002349
0.2528
-0.2298
-0.02301
-0.001693
0.001023
0.0006702
-0.0006759
0.0004005
0.0002755
0.0004302
-0.001998
0.001568
-7.228e-05
0.001174
-0.001102
-0.004773
-0.004003
0.0007832
0.0004597
0.6743
-0.5898
1.446e-05
1.45e-05
-2.896e-05
-8.706e-05
-0.0004668
3.797e-05
3.874e-05
-0.004769
-0.002568
0.007337
-0.0004079
0.00121
-0.0008022
-0.002027
0.007454
-0.005427
-0.2798
0.1842
-0.0004775
0.0008497
-0.0003722
0.003862
-0.0005144
-0.03867
-0.0519
-3.781e-05
2.097e-05
1.684e-05
0.02326
0.01909
-0.04235
-0.0007067
0.001168
-0.0004615
9.195e-05
4.021e-05
-0.0001322
0.001036
-0.000542
-0.0004943
0.0005448
0.0004915
0.00304
-0.001634
-0.0001097
-0.003008
0.0001481
0.0001186
-0.000217
0.001285
-0.001068
-0.0004442
-0.0004061
-0.001694
0.000429
0.001265
-0.0005525
-0.0009647
0.0004217
-0.0001311
-0.0002906
-5.968e-07
0.0003649
0.0003396
-0.0003396
5.649e-05
0.001587
-0.0002332
-0.0004427
-0.003422
0.0009444
0.002478
-0.001255
0.00228
-0.001025
-0.179
0.09353
0.0007119
0.0001785
-0.0008904
0.0005799
-0.0004902
-8.967e-05
0.0008454
-0.0009642
0.0001188
-0.003826
0.002817
0.001009
-1.318
0.932
0.3862
-1.691e-05
-4.92e-05
6.611e-05
5.482e-06
-2.457e-06
-3.024e-06
-1.654e-05
4.28e-07
1.611e-05
0.0002771
-0.0001864
-9.07e-05
-9.271e-06
6.761e-06
2.509e-06
-0.001967
0.001759
0.0002074
-0.8716
0.6466
0.225
-0.0009064
-0.0004731
0.001379
-0.0004035
-0.000541
-0.0004813
-1.934e-05
0.0005007
0.003505
-0.003522
1.714e-05
7.817e-05
0.002754
-0.002832
-0.0001773
-0.001048
0.002052
-0.002766
0.0007145
-0.01011
0.2243
0.0003051
0.0001392
-0.0004444
0.00047
-0.0008385
0.0003685
-0.0003142
0.0001713
0.0001429
0.0001759
-6.63e-06
-0.0001693
0.001326
-0.0009858
-0.0003404
0.01602
-0.009116
-0.006901
0.1183
-0.05326
-0.06502
-0.4534
1.136
-0.0009467
0.0001977
0.0007491
0.1743
-0.2676
0.09328
8.186e-06
-1.757e-05
9.381e-06
-0.0003473
2.876e-05
0.0003186
-0.1469
0.0008942
0.146
-9.345e-06
7.223e-06
2.123e-06
-0.4453
0.1603
0.2851
0.002505
-0.006698
0.004193
-0.0286
0.1215
-0.09288
-0.001495
0.00138
0.0001148
0.0003795
0.0006725
-0.001052
-0.002704
0.001883
0.0008215
-0.0004138
-0.0009946
-0.003821
0.001259
0.002562
-9.783e-05
-0.0002164
-2.594e-06
-6.398e-06
-1.745
0.1004
-0.001512
0.0007611
0.0007505
-0.0004568
0.0008669
-0.0004102
0.001466
-0.001563
9.76e-05
0.0002015
-0.0003474
0.000146
0.009981
-0.007924
-0.002058
0.6575
0.04108
0.01698
-0.009727
-0.007251
-0.0003805
-0.0003177
0.007502
-0.0002451
-0.007257
0.001185
-0.00151
0.0003248
-0.0003826
-0.001286
-0.0008991
0.0006084
0.0002907
0.0001904
8.669e-05
-0.001568
0.001523
4.51e-05
0.01005
-0.04016
0.03011
-0.0004223
-0.0005196
0.0009419
-0.0002086
-0.0007383
0.0002896
0.0001626
0.0001496
0.0006369
-0.0007865
-0.2391
0.6373
-0.3982
-0.002138
-0.001688
0.0005665
-0.001382
-0.1545
0.1016
0.05284
-0.0001494
-0.0004608
0.0006102
0.3796
-0.6187
0.5211
0.2639
-0.785
-0.0006382
0.000705
-6.685e-05
0.002891
-0.001627
0.006051
-0.02454
0.01849
-0.1053
0.002119
-0.001945
-0.000174
0.0001204
-0.0001552
3.475e-05
2.87e-06
2.611e-06
0.00232
0.01155
-0.01387
1.176
-0.8086
-0.3675
0.0007902
-0.0007084
-8.182e-05
-0.0008246
0.001484
-0.0006597
0.0007484
-0.0007483
-1.048e-07
-0.0009515
0.0002866
0.000665
-0.617
0.3446
0.2724
-0.009227
0.002351
0.006876
0.0002378
-0.001293
0.001318
-0.002607
0.001289
0.000224
0.0006454
0.0007119
-0.0002266
-0.0004853
-0.3854
-0.4862
0.1213
0.03376
-0.001664
-2.884e-05
-8.176e-05
-0.001103
0.0002586
0.0002524
-0.002947
0.001981
0.000966
0.05847
-0.04212
-0.01634
0.0009614
-0.001034
-0.001938
-0.002132
-0.03469
0.04045
1.084
0.09233
0.001032
0.00126
-0.002293
0.09594
0.1568
-0.001496
0.001909
-0.0004128
-3.378e-05
-0.0008866
-0.005172
9.152e-05
0.00508
8.92e-05
-8.543e-05
-0.1251
0.174
-0.04892
-0.0004369
-0.0001002
-0.0005949
0.0007686
-0.004599
-0.001242
0.005841
0.0001422
-0.0001234
-1.874e-05
0.002293
0.0005673
-0.0008641
-4.409e-05
0.0009082
-0.001191
0.00144
-0.0002498
-0.5772
1.12
-0.5431
-0.000398
0.0002945
0.0001034
0.01737
-0.004142
-0.01323
0.003882
-0.0266
0.02272
-0.06938
0.4566
-0.9674
0.4358
0.5316
0.004983
-0.0005758
-0.004408
1.634
-0.8862
-0.7479
0.07782
-0.6497
0.5719
-0.0006208
0.0007654
-0.0001446
-0.01038
0.007543
-0.0007166
0.001122
-0.0004052
1.32
-0.4587
-0.8609
-0.001206
1.942e-05
0.001187
0.002018
-0.002292
0.0002739
0.0003131
-0.0003131
-0.0004559
0.0001665
0.0002894
-0.0007908
0.0001751
-0.0007435
0.00278
0.002544
-0.002255
-0.0002889
-0.0007633
6.081e-05
0.0007025
-0.001354
0.000927
0.0004268
0.6755
-1.253
-1.018
-0.5108
1.529
0.08215
-0.2072
0.0007063
0.0004204
-0.001127
-0.0004777
-0.0007686
0.001246
-0.003267
-0.0282
0.03147
0.0006798
0.0006464
0.005759
-0.005231
-8.403e-05
0.0002525
-0.0001684
0.002044
-0.0029
0.0008567
-0.05052
0.03867
0.01185
-0.000174
-5.255e-05
0.0002266
0.0001377
0.0001442
-0.0002819
-0.03192
-0.01861
-0.4068
0.6315
-0.2247
0.0003805
4.116e-05
0.003137
-0.001558
-0.0005885
-0.001174
0.001763
-0.2985
0.3274
-0.0289
-0.001142
3.86e-06
-0.000296
-0.0001052
0.0004013
0.000408
-0.001564
0.3026
-0.1064
-0.1962
-0.002069
0.006872
0.0009977
-0.001221
0.000223
-0.1188
-0.02478
0.1435
-0.000953
0.0008202
0.0001328
0.07301
0.04527
-0.005715
0.001217
0.004498
-1.205e-05
-2.576e-05
1.13
-0.8743
-0.2561
0.001858
-0.002106
0.0002484
0.00605
-0.0009751
-0.005075
-2.594e-05
-0.0006907
-0.0005104
-0.0003887
-0.2859
-0.1594
-0.0004667
0.0001721
0.0002946
-0.0005381
0.0005878
-4.97e-05
0.0004145
8.883e-05
-0.0005034
0.001019
0.0011
0.002654
-0.001371
-0.001283
-0.00259
0.003615
-0.001024
-0.5451
0.9562
-0.4112
0.0003684
-0.0006382
0.0002697
-0.00291
0.03537
-0.03246
-0.0002415
0.001909
-0.0003858
0.0001797
0.0002061
-4.637e-06
-0.0001208
0.0001254
-0.0014
0.001895
-0.0004945
-0.001694
0.0004361
0.001258
-0.0009338
0.0001704
-0.04453
-0.02368
0.06821
0.0001119
-0.005775
-5.341e-05
-0.000116
0.01954
0.01913
0.0004251
-0.0008537
0.0004286
4.75e-06
-5.253e-06
5.03e-07
-0.0158
0.009317
0.006479
0.0132
-2.443e-05
-0.01318
0.004834
-0.003287
-0.001547
0.3739
-0.9936
0.6197
0.0002164
-0.0004447
0.0002283
-0.001118
0.0009183
0.0001993
-1.422
0.4035
0.0006475
0.0002409
-0.0008884
-1.303
0.688
0.6154
0.0001045
-0.0008908
0.0007863
-0.001605
0.01341
-0.0118
-0.00142
-0.002401
0.0001724
-0.0008792
-0.01919
0.005322
0.01387
0.005232
0.002731
-0.007963
-0.004664
0.0606
-0.05594
0.0007622
-0.0003477
0.005566
-0.006339
0.000773
-0.0001164
1.391e-05
0.0001025
-0.001234
0.002212
-0.000978
0.0004224
-0.0006186
0.0001963
-0.178
0.06103
0.1169
0.0003086
-0.000166
-0.0001426
-0.3371
0.001688
-0.001281
-0.0004075
-0.001743
-0.00167
-0.9503
1.034
-0.08404
-1.909e-06
1.573e-05
0.01072
0.006257
-0.004123
0.001081
0.003041
-0.001042
0.0003384
0.0007038
1.073e-05
7.85e-05
-0.0005723
-0.001832
0.002404
0.000114
-0.0002049
9.085e-05
0.001643
-5.465e-05
-0.001588
-8.353e-05
0.0005059
-0.279
0.8001
-0.0005105
-0.000441
-0.0004155
0.0008507
-0.0004353
0.0002294
-0.0002281
-1.351e-06
0.00326
0.006721
-0.4019
-0.5483
5.366e-05
-6.333e-05
9.671e-06
-0.001567
-0.0001273
0.8082
-0.4343
0.0009682
0.0005233
-0.001492
0.002393
-0.001751
-0.0006418
0.0003497
-0.0006344
0.0002847
-0.0003131
0.0003522
-3.918e-05
-0.7941
0.3872
0.0003832
-0.0006095
0.0002264
-0.0002078
-0.0001901
1.228
-0.6268
-0.6013
0.0001795
0.0001291
0.0004972
0.0005746
-0.001072
-0.0001264
0.00097
0.0004584
-0.001428
0.003671
-0.0004889
-0.003182
-0.001335
0.002065
-0.0007297
0.0009124
-0.0002028
-0.0007096
-0.000612
0.0009149
-0.000303
0.01528
-0.00312
-0.01216
1.135
-1.219
0.08358
0.0001417
-0.0001455
0.00307
-0.005379
0.002354
0.0003253
-0.002679
9.399e-05
-4.055e-05
-0.0007757
-0.0009179
0.004473
0.01289
0.001709
0.0006836
-0.0008788
-0.001088
-0.001563
-0.003725
0.005288
1.529
-0.6318
-0.897
-0.005358
0.001459
0.003899
-0.01781
-0.1009
0.7878
0.2574
-1.045
-0.2161
0.06919
0.0007183
-0.001146
0.0004277
-0.0004215
-0.0009323
-0.001156
-0.004016
-0.3429
0.03771
0.08546
0.003315
-0.08877
0.003858
-0.003781
-7.724e-05
-0.001293
0.002774
-0.001481
0.01544
-0.006332
-0.009105
0.0003237
-0.0003834
-0.01262
0.004007
0.008615
-0.09677
0.1536
-0.005009
0.007514
-0.1306
0.04777
0.08285
0.004182
0.0008013
0.000415
3.862e-05
-5.478e-05
-0.001929
-0.02582
0.006636
0.01129
0.004145
-5.007e-05
0.001135
-0.001085
-0.5666
-0.05038
0.001167
-0.0008991
-0.0002684
1.194
0.4396
-0.001159
-0.0005413
0.001701
-0.001619
0.001568
5.071e-05
-0.0005842
-0.0005334
-1.245
-0.07373
0.1722
-0.2008
-0.0005225
-0.000549
0.001071
2.486e-05
9.74e-05
-0.0001223
7.636e-05
-7.532e-05
0.004254
-0.008613
0.004667
-0.009436
0.00186
0.0006839
-0.000452
-0.0004948
-0.00189
0.002741
-0.0008509
1.308
-0.4766
-0.8309
-0.004158
-0.005069
-0.002241
0.00237
-0.0001297
0.02993
0.1
-0.1299
-0.01526
0.02827
-0.01301
0.001444
-0.002692
-0.0007187
0.0008843
-0.0001657
0.0006294
-0.001124
-0.001092
0.001089
0.7546
0.1057
-0.8604
0.00413
0.06659
-0.07072
0.0009238
-0.002135
0.001211
0.0006849
-0.001504
0.0008186
0.5465
0.07325
-0.6197
0.001264
-7.845e-05
0.01276
-0.002774
-0.009989
8.886e-05
-5.419e-05
-3.466e-05
-0.001053
0.001057
-4.316e-06
-0.001467
0.00132
-0.001976
-0.001929
0.003905
-0.004598
0.0004749
-0.001605
0.001234
0.0003704
0.8932
0.2418
-0.001061
0.001537
-0.000476
-0.0005898
0.0006268
-3.702e-05
0.003337
0.001497
-0.0006945
0.0002967
0.0003978
0.0004419
0.0001181
-0.00056
0.4381
-0.1652
-0.0006342
0.0005563
7.794e-05
-0.001498
1.258e-06
-0.00382
0.002235
0.001585
0.001306
-0.00106
-0.0003521
0.0002727
7.939e-05
1.604e-05
-0.0006542
-0.005069
0.008066
-0.002997
0.01248
0.004209
-0.01669
0.001421
-0.0008809
-0.0005396
0.001463
0.001191
7.96e-07
-0.000263
0.0002622
-0.000573
-0.0009219
-0.0002935
-0.001275
-0.0003243
-0.0001316
-0.0005015
0.0004197
8.184e-05
0.05191
-0.1452
0.0933
0.6622
0.8665
-0.1154
-0.0152
0.00094
0.0007481
9.006e-05
0.0007001
0.8081
-0.2332
-0.5749
0.0002183
-0.0006125
0.001027
-0.0008117
-0.09398
0.1459
-0.0003567
0.001398
0.0004708
-0.000354
-0.0001168
-0.03789
0.7122
-0.001642
0.002072
-1.352
0.1785
1.173
-0.01573
-0.01565
0.03138
0.007433
-0.009451
0.002018
1.158
0.1613
0.001758
-0.0006128
-0.001145
-8.505e-05
7.913e-05
5.914e-06
0.02489
-0.0278
0.07395
0.06513
-0.1391
0.0002722
-0.001084
0.000812
-0.0003012
-0.0001655
-0.005131
0.004752
-0.000457
-0.0005851
-0.000263
-6.102e-06
0.0002691
-6.604e-06
-8.723e-06
1.533e-05
0.0008025
0.0006631
0.0005323
0.0009753
-0.001508
0.002914
-0.00087
-1.231
0.3649
0.8659
0.001345
-3.378e-05
-0.001311
0.9716
-1.198
0.2268
-0.0008029
0.001182
-0.0002295
0.0001989
3.061e-05
-0.00102
0.003605
-0.002584
0.000714
-0.001873
-0.001076
0.001605
-0.0005296
-0.00143
0.0008664
0.0005639
-0.7363
0.6984
0.7045
0.4258
0.0003877
-0.0005666
0.0001789
0.001102
0.002756
0.9777
-0.223
-0.0006133
0.0002466
0.0003667
0.0466
-0.03687
-0.00973
0.00307
-0.002388
-0.0006829
0.1102
-0.04988
-0.06034
-0.0003946
-0.0004877
0.0008823
0.001484
-0.0007955
-0.0006883
-0.0004802
0.0004892
-8.944e-06
0.3142
0.9933
-0.0003487
0.0008085
-0.001646
-0.001058
0.006246
-0.00313
-0.003116
0.007901
-0.004234
-0.003668
-1.034
-0.2618
1.296
0.0002516
0.0003178
-0.0005694
-0.001025
0.0006518
0.0003731
-0.002272
0.001888
0.0003842
-0.003009
-0.002706
-0.003051
-0.0007688
0.0001463
-0.0001715
-0.05472
-0.2085
0.2633
0.0006301
0.0005374
-0.0009441
0.0007237
0.0002204
0.001841
-0.0005486
0.3406
-0.1664
-0.0009671
-5.815e-07
0.0009677
-0.2846
1.072
-0.001861
0.0006605
0.0012
-0.0008599
-0.0002405
0.0011
-0.1998
-0.1723
0.372
0.001528
0.0001633
-0.001691
0.001353
-0.001649
0.000296
-5.086e-05
0.0009445
-0.0008937
0.0003131
-0.001679
0.001366
0.0006568
0.0007637
-0.00219
-0.001232
0.0003366
0.0003141
-0.0006507
0.04479
-0.06431
0.01953
-1.794e-05
-0.001125
0.001196
-0.001263
6.698e-05
-0.0007159
0.001692
-0.0009763
-0.0763
-0.07818
0.0121
-0.01239
0.000296
-0.002629
0.003071
-0.0004424
0.6926
0.0003274
0.000518
0.3778
-0.2528
-0.125
0.0365
-0.01528
-0.02122
0.001221
-0.0009765
-0.0002444
-0.2813
0.08152
1.075
-0.4398
-0.6352
-0.002495
-0.002863
0.000821
-0.00141
0.7087
0.09938
-0.4594
0.7925
-0.3331
0.001251
-0.0007174
-0.0005333
0.03916
0.01931
-0.01546
0.02589
-0.01043
0.0004502
-0.0004529
2.7e-06
-0.0009012
0.001539
-0.0006374
-0.0002265
0.0005617
-0.0003352
-0.03394
-0.1789
0.2128
-0.0005992
0.03329
-1.385
0.0002567
-0.0003033
4.664e-05
8.6e-06
2.461e-05
-3.321e-05
-0.001837
0.02543
-0.02359
-0.0001499
-0.0002856
0.0004354
0.0337
-0.07514
0.04143
-0.2793
-0.02345
0.3028
-0.001441
0.001441
1.327e-07
0.002577
-0.0005591
-0.0002769
-0.0002627
0.0005397
0.002651
-0.001659
-0.0009924
-0.0003877
0.0005889
-0.0002012
-0.0007405
0.0007339
6.568e-06
0.001703
-0.001584
-0.0001194
0.0002238
-0.0001719
-5.192e-05
-0.002694
0.002682
1.184e-05
0.1524
-0.6476
0.4952
0.00232
-0.002045
-0.0002746
-0.0015
0.001806
-0.0003058
-0.0004218
3.335e-05
0.001942
-0.003389
0.001447
0.001032
0.000198
-0.00123
-0.0005899
-1.819e-05
0.000608
0.016
-0.05466
0.09616
0.2203
-0.3164
-0.001639
-0.0005862
0.002225
0.002248
-0.002043
-0.0002051
-0.0004208
5.135e-05
0.0003694
0.1391
0.01721
-0.1563
-0.001536
0.0009656
0.0005702
0.0001744
0.001016
-0.00119
-0.0005978
0.0006509
-5.305e-05
-0.0003294
0.0001411
0.0001883
-0.1839
0.2205
-0.03659
0.001091
-0.0007703
-0.0003211
-0.0006396
-0.0003853
-0.001181
0.003482
-0.0023
0.009679
-0.005242
-0.004437
-0.001372
-0.000103
0.001475
1.444
-1.173
-0.2708
0.001383
-0.0007929
-0.0005901
-0.0003794
-0.0006288
0.001008
-0.0001064
2.444e-05
8.198e-05
-0.632
-0.1699
0.8019
0.0005605
0.0005614
0.204
-0.2797
0.0757
-0.0004478
0.0003903
5.748e-05
-0.0004056
0.002458
-0.7637
-0.2037
0.01511
0.651
-0.6661
-0.04521
0.116
-0.0708
-4.805e-05
-0.0005484
0.0005965
0.0003341
-0.0003041
-2.996e-05
-0.0004007
-0.0008828
0.001284
-0.01311
0.01091
0.002204
-0.001668
0.001649
1.874e-05
-0.0003409
-0.0001913
0.0005322
0.0009168
-0.001702
0.0007856
-3.11e-05
-2.679e-05
5.789e-05
0.001284
4.064e-05
-0.001325
0.7989
-1.325
0.5258
0.1109
0.7482
-0.8591
-0.2391
0.3257
-0.0866
-0.0002552
0.0002552
0.4606
0.8384
-1.299
0.002858
-0.001836
-0.001022
0.009908
-0.01238
0.002476
-0.0006062
0.003671
-0.003065
0.001118
-0.001287
0.0001692
0.001679
-0.001041
-0.0006377
-6.47e-06
1.916e-05
-1.269e-05
0.00118
-0.0006241
-0.0005564
0.001729
0.0009444
-0.002673
0.0002524
-4.233e-05
-0.00021
-4.309e-05
0.0008341
-0.000791
-0.8976
1.074
-0.1759
-0.0001394
0.000569
-0.0004297
0.0006395
-0.001237
0.0005972
1.012
-0.9588
-0.05311
-0.0008703
-3.299e-05
0.0009033
0.006198
0.003481
0.0004775
0.0002981
-0.0007756
0.001484
0.000131
-0.001615
-0.03312
0.2117
-0.1785
-0.0008283
-0.0001963
0.001025
-0.001678
0.003648
-0.00197
0.00175
-0.0006723
-0.001078
0.0004116
0.0007001
-0.001112
-0.001078
0.0007925
0.0002858
-0.0005954
3.519e-05
0.0005602
0.001114
-0.000652
-0.0004616
-0.004985
0.009763
-0.004778
0.004936
-0.00308
-0.001855
-0.002425
0.004209
-0.001785
-0.0005717
-0.0002824
0.000854
-0.001105
-0.0004187
0.001524
0.0002249
-0.0005167
0.0002918
0.002106
-0.0004688
-0.001638
-0.000333
0.0003944
-6.146e-05
-0.002428
-0.006754
0.009182
0.0001527
0.0009605
-0.001113
0.7121
-1.258
0.5457
-0.2943
0.05338
0.2409
0.6273
-0.276
-0.3513
0.00174
-0.001729
-1.115e-05
0.000179
0.0005026
-0.0006816
0.01789
-0.006094
-0.0118
-0.005724
-0.002588
0.00427
0.003632
-0.002403
0.001195
0.001207
-0.0009791
-0.001484
0.002463
0.0009374
0.0003324
-0.00127
0.0004707
-0.0004707
0.0004265
0.0008287
-0.001255
-0.02477
-0.2546
-1.16
0.2292
0.9307
-5.066e-05
4.72e-05
3.464e-06
-0.0004712
0.0004712
1.314
-0.5209
-0.7931
-0.003987
0.006985
-0.002998
0.0009353
-0.0005524
-0.0003829
-0.0882
0.07457
0.01363
0.0009416
0.0002092
-0.001151
-0.0001248
0.0001248
-0.0005486
0.0005905
-4.198e-05
-0.07723
0.125
-4.677e-05
2.625e-05
2.052e-05
-0.000416
0.000416
-0.0007761
-0.001237
0.002013
-0.005052
0.001753
0.003299
-1.386e-05
-2.683e-06
-0.0007556
0.001336
-0.00058
-0.0003632
2.893e-05
0.0003343
0.8353
0.03219
-0.8675
-0.0003594
-0.001081
0.00144
0.006558
-0.0006538
-0.005904
-0.1179
-0.06009
-0.0003306
0.0001537
0.000177
0.1917
-0.3892
0.1975
1.016
-0.3606
-0.6552
0.002438
-0.0007003
-0.001737
0.0003464
0.0007112
-0.001058
-0.01758
0.01934
-0.001764
0.002212
0.00127
-0.003482
0.02163
-0.02855
0.006912
-1.178
-0.1802
1.358
0.001796
-0.00126
-0.0005359
0.0005393
-5.829e-05
-0.000481
0.08396
-0.05026
-0.0009427
0.002
-0.001058
0.004371
-0.005532
0.001161
0.3273
0.02996
-0.3572
0.0003545
-0.0003646
1.012e-05
0.0006847
-0.001446
0.000761
6.117e-05
0.0001198
-0.0001809
0.09824
-0.1545
0.0563
-0.7619
0.9651
-0.2032
-6.168e-06
-8.218e-06
1.439e-05
0.5086
-0.558
0.04947
5.612e-05
-0.0003954
0.0003393
0.0001374
0.0003996
-0.000537
0.00114
-0.007718
0.006579
-0.002629
-0.009359
0.01199
3.768e-06
-0.0006536
0.0006499
0.002234
0.001963
-0.004197
0.0007017
-0.0001945
-0.0005072
0.0004581
-0.0004581
0.001385
-0.0003934
-0.0009916
0.0002962
-0.002049
0.001753
0.001732
-0.00041
-0.001322
-0.0003383
0.0003383
0.003046
-0.0048
0.001754
0.0007186
-0.0007592
4.054e-05
-0.404
0.4653
-0.06129
-0.001327
0.009269
-0.007942
-0.001602
-2.017e-05
0.001622
0.0003218
-0.001117
0.0007952
0.1079
-0.1768
0.06891
-0.008472
0.003484
0.004988
0.6849
-0.3695
-0.3153
0.0004079
-0.0002763
-0.0001316
-0.001296
0.0007997
0.0004967
2.984e-05
-0.0004812
0.0004513
-0.001241
0.001393
1.361
-0.8501
-0.5112
0.004583
0.001509
-0.006092
-0.00121
0.0003783
0.0008318
0.009845
-0.009646
-0.000199
4.862e-06
-3.122e-06
-1.74e-06
-0.004963
0.000677
0.004286
0.0001376
-0.0001722
3.461e-05
-0.0005948
0.00106
-0.0004653
0.005355
0.003178
-0.008533
-0.07363
0.02293
0.0507
0.002281
-0.0004015
-0.00188
0.0005217
-0.0003488
-0.0001729
-0.951
1.488
-0.5374
0.03608
-0.9871
-0.001236
0.002494
-0.001259
0.00155
-0.0005801
-0.00313
0.001025
0.002104
-0.0003545
-0.001877
0.002232
-0.0004857
-0.0001776
0.0006633
-0.00691
0.002046
0.004865
-0.08459
1.268
-1.183
-0.4863
0.7033
-0.2171
-0.0003585
-7.432e-05
0.0004328
-0.001162
0.0003287
0.0008336
-0.0004868
0.0008779
-0.0003911
-0.01852
0.02457
0.004788
0.002886
-0.007674
1.621
-0.987
-0.6342
1.044
0.3997
-0.2175
0.2199
-0.002433
-3.63e-05
9.979e-05
-6.348e-05
-0.0003734
0.0002833
9.013e-05
0.0005761
0.0008623
-0.001438
-0.000388
0.000388
0.007757
-0.006042
-0.001715
1.295e-05
-0.0003391
0.0003262
0.2481
-0.4905
0.2424
-0.0009217
0.0003985
0.0005232
0.002252
-0.002149
-0.0001036
0.02633
-0.01383
-0.01249
-0.0004971
-1.479e-06
0.0004985
1.012
-0.8756
-0.1361
-9.361e-05
-0.0005959
0.0006896
-0.04476
-0.4567
0.5014
0.0005994
-0.0005399
-5.953e-05
1.727
-0.5261
-1.201
0.03096
-0.03422
0.0004233
-4.455e-05
-0.0003788
-0.0001813
0.0001813
3.335e-05
-1.546e-06
-3.18e-05
-0.00131
-0.0005504
0.001344
-5.961e-05
-0.001065
0.0006367
0.0004279
-3.93e-05
-0.0001354
0.0001747
-0.002249
0.003499
-0.00125
-0.005478
0.003472
0.002007
-0.03519
0.03568
-0.000494
0.04348
0.04048
-0.001056
0.001599
-0.0005433
-0.001339
0.001016
0.000323
0.001773
-0.001783
1.039e-05
-0.000709
0.000709
-0.003307
0.003337
-3.048e-05
-4.884e-06
-0.0003315
0.0003364
-2.795e-05
8.614e-05
-5.819e-05
-1.496
0.4621
-0.02386
0.02069
0.003165
-0.001052
0.001103
-5.04e-05
1.617
-0.9095
-0.7071
-0.000682
0.001296
-0.0006144
0.0005994
0.002213
-0.001902
-0.0003112
0.0005557
-0.001679
0.001123
0.0007409
-1.73e-05
-0.0007236
0.6408
-0.901
0.2602
-0.000174
-0.0001426
0.0003166
0.006444
-0.0002458
-0.0009169
0.00101
-9.296e-05
-1.384
0.8496
0.5349
0.001591
0.002339
-0.003929
-0.00423
0.00335
0.00088
-0.0009752
0.001264
-0.0002893
-0.0001507
0.0001109
3.98e-05
-0.002672
0.002347
0.0003257
-0.002718
0.001547
0.001171
-0.0003146
-0.0003799
-0.0008541
-0.0004309
0.001285
0.0006364
-0.0006142
-2.218e-05
0.001733
-0.002992
0.001259
-0.009663
-0.007059
0.01672
1.814e-05
8.694e-06
-2.683e-05
0.08793
-0.2023
0.1143
0.2906
0.05658
-0.3472
1.44
-0.6411
-0.007538
0.009117
-0.001579
-0.0003074
0.000356
-4.864e-05
0.001335
-1.772e-05
-0.001317
-0.0002182
0.003188
-0.00297
-0.006459
0.001629
0.00483
-0.001056
0.001949
-0.0008938
-0.001546
-0.004891
0.006437
0.001567
7.582e-05
0.000837
-0.0001353
-0.0203
0.01734
0.002963
0.0003244
0.0003228
-0.0006471
-0.0004329
-0.0004611
0.0008939
0.0008415
-0.001352
0.0005102
0.0001143
6.663e-06
-0.0001209
0.0007234
-0.0007234
-0.04028
0.05033
-0.002564
0.006248
-0.003684
0.1775
-0.274
0.0965
-0.0003655
0.0003492
1.633e-05
-0.001715
0.001679
3.559e-05
0.002647
-0.0004875
-0.00216
-0.0001022
0.000288
-0.0001858
0.003373
-0.00185
-0.001523
-0.000749
0.0004268
0.0003222
-0.003026
0.01452
-0.01149
-0.0005464
0.00146
-0.0009139
-0.004705
0.0057
-0.000995
0.0001487
-0.0006355
-0.1058
-0.2839
0.3897
0.0004741
0.001439
-0.001913
-2.374e-05
0.001053
-0.00103
-8.748e-05
-3.567e-05
0.0001232
-0.0009548
-6.464e-05
0.001019
-0.0006453
6.116e-05
0.0005841
0.002009
0.0001433
-0.002153
-0.0006601
-0.0004552
0.001115
0.006943
-0.00827
-0.4116
-0.1355
0.5471
-0.000197
-0.0001336
0.0002521
-0.0007989
0.0005468
-0.01236
0.07235
-0.05999
7.828e-05
0.0007419
-0.002042
0.0008509
0.001191
-0.0008213
0.0007643
5.705e-05
-1.071
-0.5868
-1.074
-0.5921
-1.158
0.9721
0.1863
-0.0007151
0.001102
-0.000387
0.0001508
7.304e-05
-0.0009637
0.004536
-0.003573
0.0005217
0.0005919
-0.003589
0.003667
-7.817e-05
0.01099
-0.005633
0.003365
0.0001404
-0.0017
0.0148
-0.0131
0.0001028
-0.0009689
0.0008661
-0.001065
-0.0003573
0.001423
0.0004038
-0.0002485
-0.0001552
-0.0007359
0.001111
-0.0003747
0.08637
-0.1497
0.06329
-0.0008123
0.0003874
0.0004249
-0.001238
0.003777
-0.002539
-0.0003617
0.0006607
-0.0002989
-0.1876
0.2323
-0.04471
-0.0008022
0.007064
-0.006262
0.0007951
-0.00117
0.0003746
-0.0006745
-0.0005093
0.001184
-0.0003243
0.0003243
0.5813
0.1765
-0.7578
0.3835
-0.07485
-0.3087
-0.0008293
0.0016
-0.0007707
-0.007984
0.02622
-0.01824
-0.0008126
0.001357
-0.0005449
0.000757
0.0002368
-0.0009938
0.002145
0.0009258
0.008614
-0.006311
-0.002303
-0.007812
0.01083
-0.003016
0.0004769
-0.0008351
0.0003583
0.647
-0.8846
0.2376
0.0009146
0.0002991
-0.001214
0.0007122
-0.0006085
-0.0001038
1.843
-0.2196
-1.623
0.1016
-0.1139
0.01233
0.001009
-0.000187
-0.0008218
0.02521
0.01471
-0.03991
6.992e-05
0.0002805
-0.0003504
0.0003331
0.0001052
-0.0004382
0.001517
-0.001743
0.0002265
4.308e-05
3.234e-05
-7.542e-05
-0.0004504
0.001365
-0.0009142
-0.001809
0.0007253
0.001084
-0.005974
-0.02922
0.0003886
0.0003127
-0.0007013
0.0009457
0.0003708
-0.001316
0.001378
-0.001979
0.0006005
-0.0006889
0.001103
-0.0004136
-0.0009482
0.0005045
0.0004437
-0.0003734
-0.003216
0.003589
0.0006632
9.015e-06
-0.0006722
-0.0008362
0.0006707
0.0001654
0.8589
-0.8929
0.03401
0.04041
0.9715
-1.352
0.7685
0.5831
0.0009424
-0.000194
-0.001276
0.0002879
0.0009886
-0.0002077
-0.0004524
0.0006601
0.05789
-0.01014
-0.04775
0.01322
-0.005719
-0.6805
0.429
0.2515
0.0002259
-0.001331
0.006958
0.03214
-0.0391
0.003352
-0.003307
-4.501e-05
0.001665
-0.001036
-0.0006283
0.000822
-0.001244
-0.00313
-0.09581
0.09894
-0.0564
0.0598
-0.003391
-0.003675
0.015
-0.01133
-0.028
0.01347
0.01453
-0.001967
0.001224
0.0007431
0.02047
-0.00693
-0.01354
-0.0008746
0.000601
0.0002736
-0.001319
0.0001531
0.001166
-0.04194
0.00817
0.03377
-0.0006785
0.0006888
-1.026e-05
-0.002392
-0.0006384
0.003031
-0.0003467
0.001017
-0.0006704
-0.0001492
-0.0001672
0.0003165
-0.4407
0.3617
0.07895
0.001281
0.0009459
-0.002227
0.003692
0.0006472
-0.00434
-0.0005715
0.0005715
0.001134
-0.0004862
-0.0006482
-0.0216
0.004315
0.01729
0.001189
0.001669
-0.001047
0.001753
-0.0007058
0.0005187
-0.0006948
0.0001761
-0.005213
0.00566
-0.0004472
-0.001266
-0.002788
0.004054
-0.2083
-0.6549
0.8632
-0.01583
0.025
-0.009175
-0.0001482
-0.0006641
-0.001085
0.000983
0.0001022
-0.9573
0.2071
0.7502
-0.003722
0.008052
-0.00433
0.0005212
-0.0002884
-0.0002328
-0.0008432
0.000959
-0.0001158
-0.003848
0.004624
-0.0007759
0.001318
-0.000376
-0.000942
-0.02007
-0.008296
0.02836
0.001227
-0.000515
-0.0005273
-0.01093
0.01146
-0.003086
0.009232
-0.006145
0.0004447
0.0004916
-0.0009362
-0.001484
0.000167
0.001317
-7.094e-06
4.36e-06
2.734e-06
-0.006285
0.0133
-0.007018
0.4155
-1.103
0.6878
-0.0002409
-0.0003966
0.0006375
0.3044
-0.001786
0.08724
-0.02265
-0.06459
5.707e-06
-9.577e-07
0.002167
-0.003146
-2.757e-05
4.524e-05
-1.767e-05
0.07383
-0.05155
-0.02227
-0.001923
0.001544
0.000379
-0.005273
0.007841
-0.002568
1.13
-1.13
-0.0002294
0.001577
-0.000428
-0.001149
-0.001481
-0.001507
0.002988
-1.196
-0.03486
-0.07948
0.03985
0.03962
9.119e-06
6.071e-07
-9.726e-06
-0.0004057
0.0004057
0.0002845
-0.0002711
-1.343e-05
0.002846
-0.002707
-0.0001392
-7.082e-05
-0.0004713
0.0005421
0.9926
-1.334
0.3413
0.0003399
-0.0005808
0.02219
-0.02478
0.002585
0.001653
0.0002625
-0.001916
-0.0003628
0.001189
-0.0008267
-0.001336
-0.002011
0.003348
-0.9452
0.2765
0.6687
-6.086e-05
-0.0002446
0.0003055
0.01506
-0.03119
0.01613
2.404e-06
0.01421
0.01901
-0.03322
-0.0005173
-0.0005959