/*--------------------------------*- C++ -*----------------------------------*\
| =========                 |                                                 |
| \\      /  F ield         | OpenFOAM: The Open Source CFD Toolbox           |
|  \\    /   O peration     | Version:  v2012                                 |
|   \\  /    A nd           | Website:  www.openfoam.com                      |
|    \\/     M anipulation  |                                                 |
\*---------------------------------------------------------------------------*/
FoamFile
{
    version     2.0;
    format      ascii;
    class       volVectorField;
    location    "5";
    object      U;
}
// * * * * * * * * * * * * * * * * * * * * * * * * * * * * * * * * * * * * * //

dimensions      [0 1 -1 0 0 0 0];


internalField   nonuniform List<vector> 
100503
(
(-0.0005608 -0.002079 2.134e-22)
(-0.0008389 -0.002868 1.627e-22)
(0.01109 -0.001718 9.531e-23)
(0.01799 -0.003384 -4.27e-22)
(-0.0008931 -0.002641 1.719e-22)
(-0.0005828 -0.002012 0)
(0.01823 -0.0023 5.198e-22)
(0.419 0.08973 0)
(0.4511 0.3315 1.634e-20)
(0.0003016 -0.0001893 -4.656e-23)
(0.3209 0.02387 3.381e-21)
(0.3011 0.6043 1.296e-21)
(0.5004 0.9786 3.683e-21)
(0.5407 0.9959 -3.329e-21)
(0.4116 0.2065 -1.473e-20)
(0.6091 1.185 -4.259e-21)
(0.7856 1.453 1.017e-20)
(0.3562 0.02919 -1.027e-20)
(0.0396 -0.007643 -2.973e-22)
(0.5124 0.9467 -7.416e-21)
(0.6342 0.1344 1.814e-20)
(0.5898 0.09943 2.121e-20)
(-0.0005609 -0.002087 2.45e-22)
(0.2527 0.009456 -8.952e-22)
(0.03027 -0.007838 2.942e-22)
(0.8074 0.08732 -1.743e-20)
(0.793 0.1384 -8.329e-21)
(1.059 0.003968 0)
(0.8323 -0.2473 0)
(0.2303 -0.04246 0)
(-0.0008647 -0.002378 1.023e-22)
(0.303 -0.1765 -1.733e-21)
(0.3019 -0.1745 8.543e-22)
(0.6664 -0.1432 4.296e-23)
(0.1294 -0.02444 5.082e-21)
(0.7312 -0.2404 -1.018e-22)
(0.6652 -0.144 -1.469e-21)
(-0.01053 0.02165 -8.484e-21)
(1 9.483e-05 -2.844e-23)
(0.8336 -0.2472 -6.253e-23)
(0.8591 -0.1764 4.249e-22)
(0.9929 -0.0183 6.242e-21)
(0.0009348 -0.0005127 -2.634e-22)
(0.8201 -0.2444 -2.787e-21)
(1.084 0.03037 0)
(-0.1259 0.0575 1.554e-21)
(0.9687 0.3122 1.708e-21)
(1.06 0.02154 5.605e-22)
(0.9632 -0.2078 0)
(1.073 0.009394 0)
(0.09646 -0.01881 0)
(0.7863 -0.2464 -1.806e-21)
(0.5984 -0.08371 -1.614e-20)
(0.4303 -0.2196 -2.121e-21)
(0.8207 -0.2439 3.199e-21)
(1.234 0.1682 0)
(1.05 -0.197 0)
(-0.1241 0.05422 -2.858e-21)
(0.7401 -0.2622 0)
(-0.01074 -0.03149 7.303e-22)
(1.041 -0.008283 1.27e-19)
(1.233 0.02017 0)
(-0.05453 0.02544 0)
(0.6669 -0.2284 2.728e-21)
(0.4633 0.0169 -9.223e-21)
(0.8444 -0.2409 -1.715e-21)
(0.9951 -0.007829 -8.619e-20)
(0.2502 -0.02164 -6.33e-21)
(0.6832 1.292 1.197e-21)
(0.5085 -0.2498 -2.796e-21)
(0.8987 -0.2298 4.964e-22)
(1.153 -0.1005 7.89e-21)
(-0.07592 0.03305 3.536e-21)
(1.063 0.005699 -3.34e-21)
(1.008 -0.1985 -3.121e-22)
(0.8861 -0.1608 0)
(-0.1218 0.05579 0)
(1 3.607e-06 -3.06e-24)
(1 3.633e-06 3.225e-24)
(0.6786 -0.2357 -8.99e-22)
(1.48 0.4197 9.439e-21)
(-0.03622 0.01186 6.509e-22)
(1.052 -0.1831 0)
(0.9925 -0.0178 -7.964e-21)
(-0.1236 0.05778 4.224e-21)
(1 9.442e-05 2.847e-23)
(-0.1338 0.06236 4.645e-21)
(-0.03937 0.01591 1.867e-21)
(0.6538 -0.2397 -3.144e-21)
(-0.06473 0.09055 -8.593e-22)
(0.6437 -0.2136 3.907e-22)
(-0.04223 0.02878 0)
(0.1215 -0.01362 1.006e-20)
(0.9939 -0.01831 1.805e-20)
(0.9897 -0.0009503 9.427e-23)
(0.7977 -0.1403 0)
(-0.08394 0.03513 0)
(1.05 -0.1967 0)
(1 3.279e-06 -2.37e-25)
(1 3.304e-06 -2.387e-25)
(0.01247 0.01276 9.977e-21)
(0.2254 -0.04135 6.42e-23)
(0.9321 -0.2209 1.381e-22)
(0.9467 -0.1438 -1.96e-23)
(0.5967 -0.07602 -2.233e-22)
(1 0.03195 5.008e-21)
(0.04997 -0.007624 -4.774e-21)
(0.3877 -0.0633 4.954e-22)
(0.9002 -0.1912 -1.357e-20)
(0.8566 -0.1828 7.65e-22)
(0.6581 -0.2397 0)
(0.1346 -0.02484 -4.367e-21)
(0.3299 -0.1824 0)
(1.014 -0.2036 0)
(-0.1286 0.06132 0)
(-0.08791 0.04162 0)
(-0.1243 0.05672 0)
(0.8667 -0.2391 1.258e-22)
(0.3487 -0.1728 -2.237e-21)
(1.025 -0.05438 0)
(-0.09838 0.04945 2.894e-21)
(1.14 -0.1026 9.753e-21)
(-0.04758 0.02221 -1.472e-21)
(0.3287 -0.1797 0)
(0.2456 -0.1276 1.972e-21)
(0.6447 -0.1202 -1.195e-21)
(1.007 -0.1984 3.196e-22)
(0.8024 -0.2074 -1.626e-20)
(0.8493 -0.1923 5.175e-23)
(0.651 -0.1168 -3.26e-21)
(0.6666 -0.2598 -4.287e-21)
(1.412 0.2361 -5.367e-20)
(1.003 -0.001686 1.842e-19)
(1.005 -0.03461 0)
(0.564 -0.06656 -2.403e-21)
(1.075 -0.1882 1.097e-21)
(0.914 -0.1608 -1.776e-21)
(1.085 -0.1838 0)
(-0.1375 0.06406 -5.152e-21)
(1.03 -0.1962 -1.424e-21)
(1.062 0.01449 0)
(0.5334 0.3429 -6.245e-21)
(0.9885 -0.1987 -1.744e-21)
(1.084 -0.1512 4.81e-24)
(-0.07903 0.032 -3.105e-22)
(0.7758 -0.1391 -1.417e-21)
(1.031 0.01041 -1.286e-20)
(1.033 -0.1988 9.865e-22)
(0.8192 -0.1583 0)
(1.011 0.002988 -6.549e-20)
(1.12 0.134 -3.334e-22)
(0.8397 -0.0534 6.772e-22)
(1.024 -0.003712 -1.275e-19)
(1 7.417e-06 1.057e-24)
(0.8498 -0.2294 9.057e-22)
(0.07557 -0.01988 0)
(0.9745 -0.07822 0)
(-0.01565 0.01843 0)
(0.9615 0.2967 0)
(0.6638 -0.1011 0)
(0.6978 -0.1303 2.962e-23)
(0.568 -0.04479 0)
(-0.007697 -0.03449 3.713e-22)
(0.8832 -0.2296 0)
(1.006 -0.005522 -1.88e-20)
(0.09072 -0.01549 0)
(0.4185 -0.216 1.054e-21)
(1.024 -0.004772 1.111e-19)
(1.068 0.01324 2.356e-19)
(-0.001067 0.02014 -1.172e-20)
(0.8985 -0.2297 5.575e-22)
(0.2272 -0.04388 0)
(0.8449 -0.2404 1.33e-21)
(0.3715 -0.2102 0)
(0.9895 0.008212 -2.806e-20)
(0.2213 -0.0445 -1.848e-21)
(0.9648 -0.2085 0)
(1 1.81e-05 -3.501e-25)
(0.8111 -0.2129 -2.342e-21)
(1.006 -0.02425 -2.062e-20)
(0.7459 -0.2587 -2.8e-21)
(-0.132 0.06117 -4.476e-21)
(0.8697 -0.2357 1.174e-21)
(0.8594 -0.2413 2.033e-21)
(0.8098 -0.2123 0)
(1.034 -0.1989 -1.574e-21)
(1.003 -0.001577 8.62e-20)
(-0.003514 -0.002231 0)
(0.9036 -0.1642 -8.046e-22)
(0.3916 -0.06439 -3.269e-22)
(0.7216 -0.1457 -1.612e-21)
(0.837 -0.2469 -1.709e-21)
(0.5068 -0.03425 0)
(0.9902 -0.0008221 1.196e-19)
(-0.05101 0.02039 7.428e-21)
(1.052 -0.1822 0)
(1.004 -0.03539 8.91e-23)
(-0.2183 0.7453 1.643e-22)
(1.031 -0.02848 0)
(0.8264 -0.0009515 2.34e-21)
(-0.008114 -0.02863 1.316e-21)
(0.6795 -0.2277 -2.563e-21)
(0.6835 -0.2287 1.702e-21)
(0.7316 -0.2394 9.236e-23)
(1.092 0.01933 2.076e-21)
(-0.07881 0.03156 1.132e-21)
(0.619 -0.248 5.09e-21)
(0.8244 -0.1593 0)
(0.6911 -0.2614 0)
(0.8528 -0.2297 8.856e-22)
(-0.05226 -0.02353 4.016e-21)
(0.797 -0.1447 1.506e-21)
(0.3595 -0.008878 0)
(-0.1236 0.05591 -5.083e-21)
(-0.1319 0.06116 4.213e-21)
(1.001 -0.2016 2.982e-22)
(0.6993 -0.2494 -4.515e-21)
(1.001 0.03167 0)
(0.8788 -0.2028 0)
(0.7736 -0.15 -3.218e-22)
(-0.09812 0.04193 0)
(0.9951 -0.2038 -4.496e-22)
(1 0.0001413 0)
(-0.03055 0.01022 2.587e-22)
(-0.007499 -0.031 0)
(-0.2962 0.6604 -4.379e-22)
(-0.07821 0.126 -1.263e-21)
(0.003498 -0.002276 -1.058e-22)
(0.9842 -0.2102 1.011e-22)
(1.001 0.00148 6.203e-22)
(0.8983 -0.2307 1.305e-21)
(0.8679 -0.181 -7.099e-22)
(1.014 0.1455 0)
(-0.05387 0.03208 5.194e-21)
(1.054 -0.1829 4.159e-23)
(0.9326 -0.2213 -2.688e-22)
(0.4568 -0.1268 -4.163e-21)
(1.039 -0.009258 -2.487e-19)
(1.092 0.2496 -1.359e-21)
(-0.05853 0.02321 1.049e-21)
(0.4422 -0.07896 1.497e-21)
(-0.05174 0.01621 -3.666e-22)
(0.6673 -0.2666 -1.986e-22)
(1.089 -0.01727 5.177e-21)
(1 -0.008903 3.449e-21)
(1 1.72e-05 4.34e-24)
(-0.1212 0.05559 -2.266e-21)
(0.9911 -0.004262 -4.372e-20)
(-0.2536 0.5898 -4.243e-22)
(-0.04375 0.5154 -1.178e-21)
(0.9868 0.02396 -1.594e-20)
(-0.004656 0.001839 1.645e-21)
(0.997 0.01117 1.648e-20)
(1.044 -0.1656 6.017e-21)
(0.9795 0.007857 -3.059e-20)
(-0.1113 0.05252 1.322e-21)
(1.08 -0.1908 1.043e-21)
(1.334 1.099 -5.173e-21)
(-0.1281 0.06128 6.139e-22)
(0.7851 -0.2415 0)
(0.4279 -0.07302 0)
(-0.007616 -0.03489 -3.771e-22)
(1 7.949e-06 0)
(1.019 -0.2029 1.225e-21)
(0.03286 -0.007854 -5.305e-21)
(0.1624 -0.03742 -2.381e-21)
(0.9485 -0.161 7.974e-22)
(0.05 0.01536 -2.259e-20)
(1.005 -0.006319 1.961e-20)
(0.8737 -0.1753 4.969e-21)
(0.3702 -0.2094 0)
(0.8653 -0.1963 -1.185e-20)
(0.8684 -0.2249 -6.491e-22)
(1.074 -0.1884 -1.052e-21)
(0.4519 -0.2315 1.366e-21)
(-0.07597 0.1229 1.214e-21)
(0.941 -0.2198 -7.417e-23)
(0.9213 -0.01544 -1.035e-19)
(0.6989 -0.265 -4.294e-21)
(1.14 0.1428 0)
(0.9563 -0.1445 0)
(0.9146 -0.2029 1.956e-22)
(1.003 -0.004006 -1.192e-20)
(0.9948 -0.2038 4.294e-22)
(0.5778 -0.06583 4.357e-21)
(1.015 0.06748 -2.986e-20)
(0.4553 -0.2338 0)
(1.002 -0.003856 1.234e-20)
(1.006 -0.003285 -3.316e-20)
(0.8091 -0.1628 1.455e-21)
(0.02032 0.01122 -4.908e-21)
(0.9642 -0.1162 -1.271e-20)
(1.066 0.01499 -1.797e-19)
(0.719 -0.2538 3.109e-21)
(0.7632 -0.12 -7.966e-22)
(-0.007534 -0.03092 0)
(0.9193 -0.1619 -1.565e-20)
(1 -0.003034 1.862e-21)
(0.809 -0.1659 -1.413e-22)
(-0.05264 0.02546 -3.009e-21)
(0.991 -0.1918 -7.22e-22)
(-0.09845 0.042 1.533e-21)
(0.9994 0.00487 0)
(0.8524 -0.2032 1.185e-20)
(0.8667 -0.2389 5.478e-22)
(0.5347 -0.06377 -2.5e-21)
(0.4203 -0.2153 0)
(0.9565 -0.1858 -1.699e-21)
(1.001 0.001382 0)
(0.9942 -0.01767 -2.609e-20)
(0.7451 -0.2589 2.227e-21)
(0.8653 -0.1992 0)
(0.6201 0.03487 1.173e-20)
(1.486 0.5375 7.383e-23)
(1.162 0.006105 4.423e-20)
(0.8604 -0.2413 2.691e-22)
(0.8827 -0.2295 -6.367e-22)
(0.9744 -0.07608 0)
(0.9999 -0.002282 -3.076e-21)
(-0.05097 0.03104 1.374e-21)
(1.006 -0.02343 2.063e-20)
(0.1703 -0.03376 0)
(0.5082 -0.2484 1.416e-21)
(0.9001 -0.2206 0)
(-0.05678 0.02622 0)
(1.005 0.02653 -3.031e-21)
(-0.1376 0.06415 4.319e-21)
(0.4314 -0.2184 3.93e-21)
(0.8595 -0.2061 -6.305e-22)
(0.5847 -0.09151 6.796e-22)
(-0.04093 0.02851 1.552e-20)
(0.139 0.01949 2.283e-21)
(0.2505 -0.04689 5.196e-21)
(1 1.725e-05 0)
(0.6499 -0.1167 -2.052e-22)
(0.9929 -0.1604 1.164e-21)
(1.155 -0.05612 7.327e-20)
(1.011 0.002611 8.632e-20)
(0.9998 0.001748 -1.663e-20)
(1.061 -0.1766 0)
(1 1.837e-05 0)
(1.002 -0.00149 -3.903e-20)
(0.5279 -0.2531 1.313e-21)
(1.394 0.2365 2.121e-22)
(1.099 -0.1851 0)
(1 8.956e-06 0)
(-0.1253 0.04766 5.673e-21)
(0.9921 -0.206 0)
(0.3755 -0.008035 2.556e-20)
(0.9081 -0.1643 5.335e-22)
(0.9988 -0.2 1.411e-21)
(1.031 -0.1956 1.664e-21)
(0.2307 -0.0389 2.828e-20)
(0.7617 -0.1544 0)
(0.8825 -0.1987 2.424e-24)
(1 1.673e-05 0)
(1 5.94e-06 3.84e-24)
(1.004 0.02618 5.929e-21)
(0.7789 -0.2463 2.257e-21)
(0.7737 -0.2587 2.77e-21)
(0.9242 -0.0633 0)
(0.6697 -0.2672 0)
(0.2838 -0.02518 0)
(0.7791 -0.133 -6.113e-22)
(0.9119 -0.2213 5.132e-22)
(1.153 0.128 0)
(0.7483 -0.1313 -1.673e-22)
(0.887 -0.1362 0)
(1.147 0.1321 0)
(1.003 0.002257 0)
(-0.05062 -0.02412 -2.848e-21)
(0.6456 -0.2121 2.915e-21)
(0.6607 -0.06296 7.654e-22)
(0.991 -0.002496 1.254e-20)
(1.05 -0.1968 9.734e-22)
(1.197 0.3851 0)
(1.014 -0.2035 -2.507e-22)
(0.9907 0.002688 5.243e-20)
(0.8037 -0.2059 5.792e-21)
(0.1538 -0.03498 0)
(1.074 -0.05082 3.255e-20)
(-0.1239 0.05801 0)
(0.9986 -0.008172 3.949e-21)
(0.9876 -0.1973 0)
(-0.2164 0.7412 -2.594e-23)
(1.001 -0.0009424 0)
(0.5847 -0.2423 -4.919e-21)
(0.7638 -0.207 4.786e-22)
(1.1 -0.1847 -4.779e-22)
(0.4502 -0.231 -1.38e-21)
(0.9972 0.01086 0)
(-0.08724 0.02846 0)
(0.7574 -0.1466 0)
(0.923 -0.1767 -1.676e-22)
(0.7201 -0.2534 -3.076e-21)
(1.121 -0.1475 -2.004e-21)
(0.6022 -0.06598 0)
(1.001 -0.0005607 -1.19e-19)
(1.289 0.4551 0)
(1.028 0.0143 1.993e-20)
(1.085 -0.183 1.885e-21)
(0.2886 -0.1818 4.458e-21)
(-0.06131 0.02443 -9.758e-22)
(-0.03253 0.02031 2.897e-21)
(1.013 -0.2032 -3.957e-22)
(0.7239 -0.1522 0)
(1.017 0.1006 8.971e-21)
(1.083 -0.1509 1.264e-21)
(-0.09038 0.0429 -6.535e-22)
(1.154 0.1183 -3.924e-21)
(0.5002 -0.1358 -1.103e-21)
(-0.003747 -0.01164 0)
(0.6612 0.1218 -2.306e-20)
(1.301 0.03379 6.447e-20)
(1.515 0.6153 1.256e-20)
(1.005 -0.003606 0)
(0.3818 -0.08234 2.882e-21)
(0.5832 -0.2621 0)
(1 6.241e-06 -3.632e-24)
(-0.1045 0.047 3.557e-21)
(0.9999 0.0001983 6.791e-20)
(0.7925 -0.02086 4.301e-21)
(1.08 -0.01443 0)
(0.7841 -0.2413 2.463e-21)
(0.8556 0.002662 0)
(1.004 -0.1309 3.809e-21)
(0.01463 0.02523 -2.274e-21)
(0.7884 -0.06417 -1.185e-21)
(0.8952 -0.1698 0)
(1.231 0.864 0)
(-0.1475 0.2563 -9.773e-22)
(0.3561 0.5241 8.33e-21)
(0.8974 -0.1658 -1.338e-21)
(0.994 0.04256 2.654e-20)
(0.6402 -0.1143 1.774e-21)
(1 8.202e-05 3.199e-20)
(-0.006091 0.00813 0)
(-0.0143 0.01804 -4.036e-21)
(1 -0.0003251 6.74e-20)
(0.1023 -0.01681 0)
(0.8758 -0.175 9.437e-21)
(0.9516 -0.209 0)
(-0.1123 0.05072 -6.292e-21)
(0.2627 -0.04649 1.624e-21)
(0.9123 -0.2236 -1.18e-21)
(0.7831 0.9763 2.151e-21)
(0.2113 -0.04112 -3.237e-21)
(0.9215 -0.1719 1.593e-21)
(1.005 -0.003139 0)
(-0.09892 0.04192 -9.352e-21)
(0.519 -0.126 0)
(0.3144 1.501 6.493e-22)
(0.05361 0.0149 -2.066e-20)
(1 -0.0002539 7.386e-20)
(0.3478 -0.05754 1.738e-23)
(0.6906 -0.2608 1.908e-21)
(1.005 -0.00372 -4.385e-20)
(0.9398 -0.2202 1.572e-22)
(0.1099 -0.02044 0)
(0.9557 -0.1814 0)
(0.9449 -0.1682 -4.885e-22)
(1.003 0.002104 2.62e-20)
(1.404 0.7206 -4.517e-21)
(0.6554 -0.1156 -1.414e-21)
(1.004 -0.003613 6.827e-21)
(0.6443 -0.1139 -1.201e-21)
(0.9383 -0.2049 0)
(-0.1234 0.05785 -4.08e-21)
(0.9032 -0.2297 1.321e-21)
(0.1016 -0.008129 -1.073e-20)
(-0.02654 0.01987 4.279e-21)
(1.019 -0.2029 -5.404e-22)
(-0.1212 0.04383 2.145e-21)
(1.075 -0.1159 1.942e-20)
(0.9998 0.0005077 -6.77e-23)
(0.6781 -0.1206 1.068e-21)
(0.002204 -0.02103 0)
(0.9135 -0.2251 -1.267e-21)
(-0.0366 0.01148 -6.051e-22)
(1.013 -0.2032 7.851e-22)
(0.9946 -0.159 -3.65e-22)
(0.1086 -0.01977 0)
(0.984 -0.2101 0)
(1 -0.1869 6.011e-22)
(1.004 0.00453 -6.189e-21)
(0.804 -0.2299 0)
(1.076 -0.04662 -1.13e-20)
(1.003 -0.0002715 -5.538e-20)
(0.9868 0.02265 1.057e-20)
(1.057 -0.1947 1.043e-21)
(0.8887 -0.1999 -1.874e-23)
(0.8995 -0.2202 0)
(0.9899 0.008618 0)
(1.014 -0.02418 -2.212e-21)
(1.084 -0.1747 -4.007e-21)
(1.067 -0.188 -7.649e-23)
(0.9362 -0.1744 7.631e-23)
(0.9417 -0.1655 1.975e-21)
(-0.08578 -0.04788 -9.253e-20)
(1.058 0.0139 2.185e-19)
(1.044 -0.1642 0)
(0.9911 -0.02392 -6.972e-21)
(1.061 -0.1756 0)
(0.08389 -0.02334 -4.235e-21)
(-0.09674 0.04907 -1.444e-21)
(1.004 -0.1324 -2.008e-21)
(0.9379 -0.1746 -7.727e-23)
(0.8074 -0.2498 1.766e-21)
(0.9994 0.004685 0)
(-0.1349 0.06363 0)
(1 1.755e-05 5.939e-26)
(0.803 -0.2509 -1.213e-21)
(1.455 0.518 3.269e-21)
(0.5834 -0.262 -1.915e-21)
(1 0.0001475 2.056e-24)
(0.9801 0.007334 -1.471e-20)
(0.8959 -0.2304 -1.098e-21)
(-0.02635 -0.01006 -8.101e-23)
(-0.04987 0.02298 9.257e-22)
(0.8992 -0.1902 1.241e-20)
(0.7225 -0.1416 0)
(0.2678 -0.04189 -3.481e-20)
(-0.121 0.05554 3.612e-21)
(1.027 -0.1978 -7.379e-22)
(1 -6.944e-05 -9.258e-23)
(0.8505 -0.2025 0)
(1.009 -0.2019 1.351e-22)
(0.9986 -0.01166 -5.341e-21)
(1.064 -0.01798 0)
(0.1343 -0.01464 1.008e-20)
(0.1419 -0.03609 3.405e-21)
(0.7403 -0.2619 0)
(-0.07416 0.03264 -3.425e-21)
(1 -0.001273 2.656e-22)
(0.9585 -0.001878 -1.714e-21)
(0.1142 -0.01376 4.521e-21)
(0.8206 -0.2482 0)
(1.003 0.001137 -5.266e-21)
(0.88 -0.2275 7.087e-22)
(1.051 -0.1465 0)
(0.5 -0.08294 -6.26e-22)
(1.004 -0.2022 -1.618e-22)
(-0.1226 0.05338 6.855e-22)
(0.6574 -0.1977 0)
(0.9511 -0.2094 0)
(0.008545 0.005071 0)
(0.9999 0.0005156 0)
(0.78 -0.2559 1.766e-21)
(0.835 -0.1549 1.166e-21)
(1.517 0.5928 -1.283e-20)
(0.5925 -0.114 0)
(1.257 1.291 -5.063e-21)
(0.9954 -0.007583 7.391e-20)
(-0.09296 0.03867 0)
(0.1793 -0.03418 1.897e-22)
(0.5427 -0.06027 9.515e-22)
(-0.08246 0.03468 1.23e-21)
(-0.121 0.05651 -7.073e-22)
(0.8318 -0.1698 -9.906e-22)
(1.001 -0.1805 -1.729e-21)
(1.281 0.02151 0)
(0.822 -0.2044 0)
(1.122 -0.1465 0)
(-0.1221 0.05517 -5.608e-22)
(-0.1106 0.05228 0)
(0.9412 -0.2199 0)
(0.9014 -0.1633 0)
(0.9955 -0.1694 -5.231e-22)
(0.989 0.02357 0)
(1.003 0.004541 -7.482e-22)
(0.9902 -0.02393 6.955e-21)
(-0.00618 0.008626 -4.549e-21)
(0.83 -0.1699 0)
(0.9997 -0.00216 3.976e-20)
(0.5989 -0.04631 2.163e-21)
(-0.1329 0.06193 -4.17e-21)
(0.9895 0.02411 -1.366e-20)
(0.6676 -0.2589 5.148e-22)
(-0.0836 0.02538 1.177e-21)
(1.003 -0.00155 0)
(0.8699 -0.2355 -1.151e-21)
(1 3.53e-05 0)
(0.9898 -0.09137 0)
(1.318 0.04695 0)
(1 8.022e-06 4.072e-24)
(0.06391 -0.007487 -3.24e-21)
(-0.02257 0.004996 4.356e-22)
(1.032 0.02163 -1.196e-20)
(0.9986 -0.01111 -2.564e-21)
(0.8995 -0.2235 -5.049e-22)
(-0.08765 0.02895 -5.433e-22)
(1.257 0.0254 1.108e-20)
(-0.1121 0.05068 4.938e-21)
(0.4483 -0.0779 7.3e-22)
(0.01697 -0.02804 0)
(0.1648 -0.03721 0)
(1.099 -0.1772 -1.174e-21)
(0.9123 -0.2209 0)
(1.002 -0.0004656 3.582e-20)
(0.1489 -0.02841 2.763e-21)
(1.005 -0.002784 -9.246e-20)
(1.08 -0.1905 0)
(-0.1112 0.05213 1.415e-20)
(0.9669 -0.2017 0)
(0.8028 -0.2504 2.875e-22)
(0.9244 -0.22 0)
(0.7004 -0.2651 0)
(1.003 -0.001356 1.219e-19)
(1.001 -0.0008968 0)
(1.072 -0.1627 -6.294e-24)
(1.085 -0.1737 4.029e-21)
(1 -0.001282 -4.072e-22)
(0.1132 -0.02963 0)
(1.137 -0.06865 4.09e-20)
(0.8833 -0.232 -1.749e-21)
(1.064 -0.07448 -7.086e-20)
(0.9255 -0.1872 -5.305e-22)
(0.4221 -0.06581 0)
(0.7251 -0.1375 1.947e-21)
(0.9999 2.722e-05 1.565e-21)
(0.7957 -0.2486 -6.806e-22)
(1.308 1.128 0)
(0.9854 -0.2002 -3.083e-22)
(0.9376 -0.2009 -1.473e-21)
(1 5.857e-06 6.183e-25)
(-0.1107 0.04885 6.927e-22)
(-0.1148 0.05168 0)
(-0.1167 0.05781 2.603e-21)
(0.987 -0.1973 -1.557e-22)
(0.5408 -0.06266 6.234e-21)
(-0.06418 0.09548 6.74e-22)
(0.9967 -0.007899 -3.447e-20)
(-0.1348 0.06369 -7.159e-22)
(-0.1088 0.04797 0)
(0.05315 -0.008196 4.411e-21)
(0.9915 -0.004238 2.368e-20)
(1.409 0.402 2.001e-23)
(1.003 -0.0003228 -1.34e-20)
(0.8619 -0.2407 1.367e-21)
(-0.1171 0.05584 1.293e-21)
(0.9928 -0.005097 0)
(-0.006892 0.009378 0)
(1.025 -0.2009 -6.054e-22)
(1.039 -0.1987 1.096e-21)
(0.5498 1.233 -1.26e-21)
(0.8269 -0.2062 -5.937e-22)
(1 -0.2017 2.953e-22)
(1.1 -0.1843 0)
(1.001 -0.002235 3.119e-22)
(1.05 -0.1968 -1.247e-21)
(0.6618 -0.06345 0)
(0.9881 -0.2065 4.252e-22)
(1.013 0.06441 0)
(1.065 -0.1165 1.215e-21)
(0.9805 -0.2074 -1.142e-22)
(1.005 -0.002877 0)
(-0.09801 0.04191 4.486e-21)
(0.9921 -0.004977 -1.946e-20)
(1.057 -0.03221 0)
(-0.08577 0.03651 2.439e-21)
(0.993 -0.004856 0)
(0.9571 -0.005856 2.797e-20)
(0.8028 -0.2295 1.792e-21)
(0.6789 -0.06232 2.425e-21)
(0.9998 -0.002141 -9.804e-21)
(1.002 0.0004042 1.347e-19)
(0.0276 -0.004362 2.134e-21)
(1.159 0.003315 4.404e-20)
(1.051 -0.001929 -7.336e-21)
(0.7085 -0.1376 -2.652e-22)
(1.411 1.012 2.194e-21)
(0.9577 -0.1745 -1.858e-22)
(0.8483 -0.005828 -4.91e-21)
(1.019 -0.203 0)
(1 3.763e-05 -4.255e-25)
(-0.1192 0.05613 0)
(-0.1661 0.7591 -1.077e-25)
(1.065 -0.05723 -5.232e-21)
(0.07259 -0.02876 3.268e-21)
(1.011 -0.03126 -1.545e-20)
(0.9988 -0.009459 1.95e-20)
(-0.08416 0.03667 8.323e-22)
(0.9924 -0.2057 0)
(0.9852 -0.183 -1.449e-21)
(0.7567 -0.2521 -3.841e-21)
(-0.1236 0.05608 -4.333e-21)
(0.05658 -0.01618 -6.714e-21)
(0.9488 -0.2181 0)
(-0.09109 0.04111 0)
(0.01014 0.006948 2.574e-21)
(0.998 0.00201 -5.33e-20)
(0.7331 -0.253 0)
(0.7154 -0.2615 1.951e-21)
(0.612 -0.1164 -2.932e-25)
(0.6619 -0.06278 -4.494e-21)
(0.806 -0.2531 -1.398e-21)
(0.6151 -0.129 -2.732e-22)
(1.001 -0.03466 5.438e-22)
(0.9953 -0.002867 -7.52e-20)
(0.3018 0.05113 -4.262e-21)
(0.6112 -0.2437 0)
(0.3842 -0.2192 0)
(0.9987 -0.0113 8.4e-21)
(0.808 -0.2527 1.279e-21)
(1.116 -0.1711 -2.102e-21)
(0.3489 1.313 0)
(0.3519 1.419 -7.021e-22)
(1.018 0.03048 4.312e-20)
(0.8557 1.417 7.598e-22)
(-0.1148 0.05162 -8.541e-22)
(1.022 -0.1957 2.404e-22)
(-0.1252 -0.04085 7.208e-20)
(1.063 -0.1215 2.948e-21)
(1 0.0003194 1.781e-22)
(0.8709 -0.2135 0)
(-0.04984 0.02131 3.375e-21)
(-0.1244 0.7516 -5.756e-23)
(1.001 0.001309 -4.891e-21)
(1.1 -0.1848 -2.729e-21)
(0.994 -0.00963 4.822e-20)
(0.3186 -0.1918 -1.686e-21)
(0.4629 -0.1253 0)
(0.9998 0.001634 8.397e-22)
(1.012 -0.005378 -3.447e-21)
(0.9983 -0.02025 -2.931e-22)
(0.7427 -0.1502 -4.987e-22)
(-0.1177 0.05439 9.213e-22)
(0.8555 -0.2364 0)
(0.6576 0.02577 7.751e-20)
(1.082 -0.1878 1.74e-21)
(0.8171 -0.1596 -2.111e-21)
(0.8812 -0.2357 -1.287e-21)
(-0.03476 0.01538 -1.24e-21)
(0.6917 -0.2662 -4.642e-21)
(1.002 0.0009506 -5.017e-21)
(1.001 -0.002432 0)
(0.9954 -0.008187 0)
(0.5582 0.1242 -1.701e-20)
(1 0.0002807 0)
(1.046 -0.1947 -9.394e-22)
(0.6928 -0.1034 3.791e-20)
(0.9136 -0.2215 2.586e-21)
(0.8215 -0.1877 5.347e-23)
(1.003 -0.2062 -6.057e-22)
(0.005108 -0.006776 -2.024e-25)
(0.6327 -0.2598 0)
(0.8285 -0.2432 -1.484e-21)
(0.3306 -0.06042 2.875e-21)
(0.6491 -0.02863 1.079e-21)
(0.9996 0.0001208 1.657e-22)
(-0.09942 0.0428 -9.895e-21)
(0.8852 -0.2148 -6.05e-22)
(1.003 0.002687 1.47e-21)
(0.568 -0.05746 7.742e-21)
(-0.1216 -0.04174 -8.446e-21)
(0.7237 -0.1924 4.791e-23)
(0.0349 0.0001541 -4.492e-21)
(1.037 2.913e-05 -2.013e-19)
(0.6009 -0.2587 -9.271e-22)
(0.868 -0.2314 0)
(1.06 -0.1939 -2.582e-22)
(1.112 -0.1773 -3.114e-21)
(0.1135 0.1265 -1.568e-21)
(0.4794 -0.2177 0)
(0.5408 -0.04818 0)
(0.7382 -0.1242 0)
(1.079 -0.01939 0)
(1.093 -0.152 0)
(0.7843 -0.1571 0)
(0.8906 -0.2273 0)
(-0.1223 0.05565 8.028e-21)
(-0.12 -0.02384 -2.874e-21)
(-0.03495 -0.02536 -1.091e-21)
(1.071 -0.126 -6.815e-21)
(1.09 -0.1868 9.81e-22)
(1 0.0002918 -1.056e-22)
(0.9919 0.01757 -6.76e-20)
(1.001 -0.006421 1.851e-20)
(0.8641 -0.2405 0)
(0.5399 -0.2497 0)
(0.5891 -0.04383 0)
(0.5508 0.3371 1.957e-22)
(0.9388 -0.2007 1.455e-21)
(0.9828 -0.2084 2.046e-22)
(0.604 -0.2012 0)
(0.8867 -0.2286 7.409e-22)
(-0.06487 0.02651 0)
(-0.06057 0.02674 -2.337e-21)
(0.9986 -0.009495 -2.631e-20)
(1 2.562e-05 3.272e-23)
(-0.007962 -0.03348 1.881e-22)
(-0.0644 0.02614 -3.125e-20)
(1 2.969e-05 -1.054e-22)
(0.719 -0.02148 6.272e-20)
(0.9219 -0.1781 -6.824e-22)
(0.9507 0.07185 0)
(0.9785 -0.2003 -2.876e-22)
(-0.05599 0.02706 7.375e-21)
(0.1355 -0.03235 8.106e-21)
(0.992 -0.02479 0)
(0.01595 -0.02283 -3.58e-25)
(0.2495 -0.1423 -7.714e-21)
(0.2294 -0.03984 -2.45e-21)
(0.8513 -0.2222 1.302e-21)
(-0.2898 0.6625 3.195e-22)
(0.813 -0.2358 0)
(-0.1216 0.05556 3.698e-21)
(1.002 0.0009976 2.916e-22)
(0.8721 -0.2384 1.505e-21)
(0.6957 -0.1973 4.38e-21)
(0.9935 0.04115 -1.362e-20)
(0.01476 -0.0001427 -2.248e-22)
(1.008 0.01054 4.724e-22)
(1 -7.376e-05 7.103e-20)
(0.9657 -0.2142 -1.388e-23)
(-0.1299 0.05487 -2.907e-21)
(1.335 0.2006 -7.086e-20)
(-0.1153 -0.03819 1.943e-20)
(0.9371 -0.1297 0)
(1 1.811e-05 0)
(-0.07282 0.03196 -3.349e-21)
(1.028 -0.1877 -2.651e-21)
(1.009 -0.0305 7.018e-22)
(0.3758 -0.1108 -5.291e-21)
(0.9687 -0.2016 -1.128e-22)
(1.011 -0.01328 -1.47e-20)
(-0.1009 0.04587 3.809e-22)
(0.6907 -0.2632 -2.34e-21)
(0.7205 1.567 0)
(0.7941 -0.04152 0)
(1 -8.668e-05 -1.295e-19)
(0.0888 -0.01731 1.374e-22)
(1.004 0.005684 0)
(0.04158 0.03368 -1.701e-21)
(-0.1054 0.0456 -4.098e-22)
(0.6706 0.343 0)
(0.09447 0.001501 -5.482e-20)
(0.8368 -0.1681 3.797e-22)
(0.972 -0.03951 0)
(-0.1099 0.04864 2.357e-21)
(-0.04798 0.01769 2.314e-20)
(1.312 0.275 7.76e-21)
(0.9404 -0.2199 1.179e-22)
(1.458 0.8905 0)
(0.3412 0.002845 3.515e-22)
(0.5302 -0.09632 5.887e-21)
(0.4739 -0.05281 1.051e-20)
(0.9965 0.006826 2.668e-20)
(0.06273 0.009371 0)
(0.9031 -0.2268 0)
(1.048 -0.1967 0)
(1.015 -0.03478 3.663e-23)
(0.8823 -0.04842 0)
(1.012 -0.002432 8.163e-20)
(0.5866 -0.105 4.331e-22)
(0.7429 -0.2265 -4.885e-22)
(-0.1377 0.06419 1.995e-21)
(1.09 -0.1874 -8.311e-22)
(1 0.0001081 -3.754e-24)
(1.09 -0.1475 0)
(0.7712 -0.2592 -2.321e-21)
(1.266 0.6699 -5.852e-21)
(-0.006728 -0.02607 -4.65e-22)
(-0.07474 0.04398 0)
(0.09619 -0.02403 -7.845e-22)
(0.2814 -0.05594 4.041e-21)
(1.118 -0.08789 5.559e-21)
(0.971 0.08804 2.709e-20)
(0.961 -0.2142 0)
(0.905 -0.1641 -8.743e-22)
(1 0.0001813 -2.085e-26)
(1 0.0001882 -1.531e-25)
(0.9767 -0.2089 -9.683e-23)
(0.9036 -0.2294 -3.684e-24)
(1.066 -0.1858 -2.117e-21)
(0.3342 -0.04996 4.659e-21)
(-0.1077 0.04733 9.578e-22)
(0.6004 -0.1457 -4.753e-21)
(1 0.00025 0)
(0.9985 -0.00164 1.593e-19)
(0.9969 -0.1761 -6.322e-23)
(1.086 -0.1891 -2.471e-21)
(0.4152 -0.23 -2.215e-21)
(0.9645 -0.1141 1.38e-21)
(0.9388 -0.1981 0)
(1.001 0.0005774 -6.21e-22)
(1 0.0003076 -4.907e-25)
(1.006 0.02809 0)
(-0.06708 0.02989 1.079e-21)
(-0.1245 0.05777 -1.324e-21)
(-0.008111 0.009264 1.678e-21)
(-0.07404 0.0332 0)
(0.8936 -0.2114 2.958e-21)
(0.9397 -0.1642 0)
(1.006 0.003107 0)
(0.2226 -0.04888 -9.073e-21)
(0.1116 -0.01653 -7.228e-21)
(1.005 -0.1395 0)
(0.4201 -0.2272 1.514e-21)
(1.007 -0.0008501 -7.459e-20)
(0.8836 -0.1915 0)
(1.007 0.004335 -8.603e-20)
(0.5018 -0.1066 -6.404e-22)
(1 9.829e-06 1.119e-24)
(0.9259 -0.06158 0)
(0.1436 -0.03338 -2.435e-20)
(-0.06852 0.03086 3.389e-22)
(0.2425 -0.03703 -1.693e-23)
(0.8615 -0.2408 -1.515e-22)
(0.693 -0.2659 2.095e-21)
(0.8854 -0.1947 0)
(-0.08381 0.03612 -2.576e-21)
(-0.07789 0.04477 0)
(0.5788 -0.1815 5.724e-21)
(1.111 0.2294 0)
(1.009 -0.02929 5.622e-21)
(0.8232 -0.2204 -9.401e-22)
(0.8634 -0.2227 0)
(1.02 -0.2012 0)
(-0.03402 0.01245 -2.564e-21)
(1.012 -0.1984 0)
(0.6497 -0.1218 -1.692e-21)
(-0.174 0.2615 -2.596e-21)
(1 6.169e-06 0)
(0.9936 0.3675 0)
(0.6552 -0.2679 1.489e-21)
(0.9994 -4.662e-05 1.376e-21)
(0.8711 -0.19 -4.306e-22)
(0.324 -0.07151 0)
(0.9497 -0.2176 0)
(0.8062 -0.2524 3.355e-21)
(0.9865 -0.183 1.553e-21)
(1.002 0.0001318 7.518e-20)
(0.4792 -0.08761 9.189e-22)
(-0.1299 -0.04172 0)
(-0.1036 0.04532 0)
(1.002 -0.0003165 3.497e-20)
(0.2132 -0.0213 0)
(1.009 -0.1936 5.653e-22)
(0.2522 -0.05272 -4.592e-21)
(-0.06125 0.02758 7.828e-26)
(0.9381 -0.2203 -8.183e-22)
(-0.08764 0.0418 -6.265e-24)
(0.5888 -0.1095 -3.166e-22)
(1.098 -0.1838 0)
(0.2228 -0.04583 -1.709e-20)
(1.063 -0.1897 -1.122e-21)
(0.7832 -0.1225 -3.667e-20)
(-0.004121 -0.03669 -3.008e-22)
(0.9746 0.01134 0)
(1.014 0.003553 -2.304e-20)
(1.002 0.001048 2.264e-21)
(0.2794 -0.0254 -3.269e-20)
(-0.1169 0.05354 -1.939e-21)
(-0.1194 0.05909 6.436e-21)
(1.121 -0.1365 7.775e-22)
(-0.02097 0.02935 1.572e-20)
(0.8125 -0.2501 7.653e-23)
(1.029 -0.1752 -4.447e-21)
(0.2157 -0.04116 -3.421e-21)
(-0.11 0.04867 -4.758e-21)
(0.7759 -0.07421 5.102e-22)
(-0.09967 0.04217 2.061e-21)
(-0.0789 0.0318 0)
(-0.1091 0.05018 -3.52e-21)
(-0.08681 0.04115 0)
(0.3597 -0.1284 0)
(0.9242 -0.01675 2.673e-20)
(0.884 -0.2151 1.907e-21)
(1.011 0.02514 -3.052e-20)
(-0.09873 0.04128 0)
(0.7343 -0.06039 1.082e-21)
(0.92 -0.2238 -6.058e-22)
(-0.0493 -0.0001437 -6.135e-22)
(1.125 -0.1434 0)
(-0.126 0.05774 0)
(1.011 0.4176 1.982e-20)
(-0.09075 0.04163 0)
(-0.08853 0.004761 -1.256e-20)
(0.4187 -0.2301 1.942e-21)
(0.9971 0.008504 -1.83e-20)
(0.9547 -0.2171 1.953e-22)
(1.03 -0.201 1.719e-21)
(-0.01576 -0.02926 -2.524e-22)
(1.024 -0.1992 2.2e-21)
(0.5162 -0.249 2.333e-21)
(-0.09117 0.04349 0)
(1.069 -0.1933 2.559e-22)
(0.03954 0.01432 0)
(1.001 0.00488 -9.768e-21)
(0.01204 0.001386 -5.352e-23)
(-0.1174 0.05387 5.204e-21)
(0.9716 -0.04263 -1.481e-20)
(-0.1237 0.05806 -2.109e-21)
(0.7929 -0.2539 2.863e-21)
(-0.1353 0.06369 -3.046e-21)
(1 5.229e-06 0)
(1 5.248e-06 0)
(1.002 -0.0002762 0)
(0.1031 -0.02627 -1.132e-20)
(-0.09078 0.04085 0)
(0.6322 -0.1972 6.834e-22)
(0.5417 -0.04725 -7.356e-21)
(0.922 -0.2185 -8.157e-22)
(1.116 -0.08677 -8.953e-21)
(-0.05173 0.03187 -9.987e-21)
(1.071 -0.1033 -9.088e-21)
(0.7183 -0.1885 -6.79e-22)
(1.022 -0.2016 0)
(0.7562 -0.1344 -7.556e-22)
(0.259 -0.05324 4.865e-21)
(0.9742 -0.01612 -1.433e-20)
(0.5458 -0.257 5.048e-22)
(0.9567 -0.2121 4.501e-22)
(0.7916 0.06423 -8.529e-21)
(0.9871 -0.01035 3.206e-20)
(0.3358 0.002009 5.323e-20)
(1.052 -0.1963 8.507e-22)
(0.5461 -0.2517 2.506e-22)
(-0.07378 0.03342 0)
(0.9998 -0.0006314 0)
(1.011 0.005994 6.783e-20)
(0.7001 -0.05808 -2.293e-21)
(0.8626 -0.09237 0)
(1.025 -0.2004 0)
(0.8551 -0.1864 -1.382e-22)
(0.8838 -0.2316 1.789e-21)
(0.9458 -0.1936 -6.394e-22)
(0.7735 -0.04334 0)
(0.4639 -0.0647 -3.926e-21)
(0.9984 0.0003601 -4.865e-20)
(0.9764 -0.2078 9.586e-24)
(-0.08592 0.03503 0)
(1 7.313e-06 -5.242e-25)
(0.9816 -0.02607 -1.029e-20)
(0.9404 -0.1946 -1.127e-23)
(1.169 -0.03913 0)
(-0.1313 0.06027 0)
(-0.1351 0.06273 0)
(0.9296 -0.2218 0)
(0.2216 -0.04001 -6.224e-22)
(0.832 -0.2471 0)
(-0.09106 0.04081 3.375e-22)
(1.102 0.2349 -1.227e-20)
(-0.106 0.04608 -9.293e-21)
(0.8779 -0.2069 1.785e-22)
(1.094 -0.1798 2.003e-21)
(0.7062 -0.2646 -1.06e-21)
(0.5512 -0.256 0)
(0.5461 -0.05752 0)
(-0.1353 0.06368 -4.571e-21)
(-0.1332 0.05904 3.212e-21)
(1.001 0.001048 0)
(1.004 0.003029 6.883e-21)
(1 -0.0005438 0)
(0.9988 -0.1938 -5.9e-22)
(1.034 0.09907 0)
(1.145 0.227 -1.089e-20)
(1.143 -0.07734 -1.272e-19)
(0.8674 -0.1945 1.71e-20)
(1.003 0.005027 -7.055e-21)
(0.8952 -0.2278 -3.184e-22)
(1.151 -0.05072 -1.426e-20)
(0.9298 -0.2203 -2.768e-22)
(0.9358 -0.2191 -3.347e-22)
(0.6992 -0.2646 3.455e-21)
(1.06 0.05952 -2.232e-19)
(1.025 -0.0004767 -9.15e-21)
(1.018 -0.1353 -5.459e-21)
(0.7837 -0.003606 -5.635e-20)
(0.8404 -0.2459 0)
(1.043 -0.1366 1.726e-22)
(0.8668 -0.1806 1.132e-21)
(1.042 -0.1986 0)
(1.173 -0.01547 0)
(-0.1315 0.06096 -4.142e-21)
(1.063 -0.1837 0)
(-0.107 0.04777 -1.035e-21)
(0.07871 1.312 1.019e-21)
(0.9958 -0.001379 2.627e-20)
(0.7717 -0.2528 0)
(0.3617 -0.0417 -1.89e-20)
(0.29 -0.1528 -4.807e-21)
(0.8865 -0.2046 0)
(0.6032 -0.0737 0)
(1.046 -0.1945 9.745e-22)
(-0.1023 -0.02263 0)
(-0.1001 0.04254 0)
(0.9013 -0.2103 8.01e-22)
(0.8681 -0.226 -4.846e-21)
(0.9992 0.0009156 -1.443e-19)
(1.245 0.05504 3.781e-20)
(0.5445 -0.2566 -5.199e-22)
(0.9976 -0.2028 6.055e-22)
(1.001 0.0004583 -4.433e-20)
(1.005 -0.1823 2.014e-21)
(-0.1241 0.05619 -2.442e-22)
(-0.08612 0.03541 0)
(1.13 -0.106 6.244e-21)
(-0.07768 0.03352 -1.081e-21)
(1.176 0.1977 4.929e-20)
(0.9015 -0.2056 1.896e-23)
(1.027 -0.166 0)
(1.114 -0.06423 9.942e-21)
(1.436 0.9884 4.644e-21)
(0.008391 0.005851 0)
(-0.2732 0.5843 6.624e-22)
(0.9009 -0.1722 -1.932e-20)
(1 1.653e-05 9.012e-25)
(0.873 0.06984 -8.864e-22)
(0.9906 0.002374 5.485e-20)
(0.9621 -0.02854 -3.211e-20)
(-0.004678 -0.01368 1.373e-22)
(0.6034 -0.198 0)
(0.2847 -0.04691 -2.617e-23)
(1.013 -0.03961 -4.733e-21)
(0.4987 -0.2254 -9.634e-22)
(1.104 -0.1263 7.863e-21)
(1.001 0.001279 -9.033e-22)
(-0.1017 0.04575 3.092e-21)
(0.9338 -0.2171 -7.067e-22)
(1.002 -0.0005034 0)
(0.9915 -0.05571 3.78e-21)
(-0.002093 -0.0305 4.685e-22)
(-0.07338 0.03289 3.025e-20)
(0.5324 -0.07648 2.461e-21)
(1.104 -0.1654 -7.563e-22)
(0.8197 -0.153 0)
(1 3.387e-05 8.341e-24)
(0.7891 0.06432 0)
(1.247 0.01577 5.69e-22)
(-0.0946 0.04371 -3.268e-21)
(-0.1316 0.05681 -4.48e-21)
(0.7967 -0.2381 0)
(0.9994 -0.0004687 0)
(-0.1259 0.05734 1.052e-21)
(0.9008 -0.09228 -2.707e-20)
(-0.006604 -0.02604 0)
(1.001 -0.1061 0)
(0.8041 -0.1823 -2.918e-23)
(0.7576 -0.003098 8.273e-24)
(0.3113 0.06551 -6.21e-21)
(1.009 -0.000458 -2.296e-21)
(0.9716 -0.04008 1.334e-20)
(0.8297 -0.1465 0)
(0.8014 -0.2151 6.157e-21)
(0.6127 -0.1104 0)
(0.791 -0.1511 -3.62e-22)