/*--------------------------------*- C++ -*----------------------------------*\
| =========                 |                                                 |
| \\      /  F ield         | OpenFOAM: The Open Source CFD Toolbox           |
|  \\    /   O peration     | Version:  v2012                                 |
|   \\  /    A nd           | Website:  www.openfoam.com                      |
|    \\/     M anipulation  |                                                 |
\*---------------------------------------------------------------------------*/
FoamFile
{
    version     2.0;
    format      ascii;
    class       volVectorField;
    location    "5";
    object      U;
}
// * * * * * * * * * * * * * * * * * * * * * * * * * * * * * * * * * * * * * //

dimensions      [0 1 -1 0 0 0 0];


internalField   nonuniform List<vector> 
100503
(
(-0.004581 -0.01618 3.111e-22)
(-0.001217 -0.004851 2.725e-22)
(0.08072 -0.01329 6.786e-23)
(0.1309 -0.02497 -2.436e-22)
(-0.002037 -0.005382 2.835e-22)
(-0.01054 -0.03447 0)
(0.1276 -0.02106 2.818e-22)
(0.6842 0.1505 0)
(0.5432 0.4114 3.575e-21)
(0.04048 -0.02063 -4.838e-23)
(0.6475 0.05496 1.532e-21)
(0.2517 0.5115 -6.068e-22)
(0.3926 0.7807 -1.909e-21)
(0.4334 0.8027 7.171e-22)
(0.5688 0.2916 -4.517e-21)
(0.4695 0.9186 1.774e-21)
(0.594 1.1 -2.208e-21)
(0.6726 0.05225 -4.868e-21)
(0.1994 -0.04177 -5.233e-23)
(0.4117 0.7405 2.08e-21)
(0.9903 0.194 8.724e-21)
(0.9294 0.1429 1.111e-20)
(-0.009772 -0.03219 3.545e-22)
(0.5755 0.02356 -4.403e-22)
(0.1982 -0.03995 1.402e-22)
(1.262 0.1328 -8.796e-21)
(1.209 0.1987 -3.866e-21)
(1.236 -0.07324 0)
(0.9575 -0.2879 0)
(0.6839 -0.107 0)
(-0.002855 -0.007769 1.558e-22)
(0.6531 -0.4118 -1.552e-21)
(0.6516 -0.4108 7.633e-22)
(0.8298 -0.1791 3.641e-23)
(0.8563 -0.2521 2.915e-21)
(0.9197 -0.329 -4.005e-23)
(0.8306 -0.1772 3.286e-21)
(0.6279 -0.2283 -2.677e-21)
(0.9896 0.0005982 9.674e-21)
(0.958 -0.2878 -4e-23)
(0.8358 -0.1739 -2.924e-22)
(0.988 -0.05846 1.362e-21)
(0.07504 -0.03375 -2.102e-22)
(0.9569 -0.2975 -1.421e-21)
(1.271 -0.03423 0)
(0.4283 -0.184 5.299e-22)
(0.9343 0.1679 -9.958e-22)
(1.267 -0.03908 2.165e-22)
(0.8706 -0.1908 0)
(1.24 -0.06786 0)
(0.4946 -0.0121 0)
(0.9489 -0.298 -1.492e-21)
(0.7586 -0.2275 -3.528e-21)
(0.7487 -0.4062 -1.545e-21)
(0.957 -0.2972 1.616e-21)
(1.365 0.1351 0)
(0.8299 -0.1632 0)
(0.4257 -0.1813 -9.633e-22)
(0.9385 -0.3368 0)
(0.1777 -0.1086 3.946e-22)
(1.031 -0.01674 1.575e-20)
(1.158 -0.1101 0)
(0.2767 -0.1334 0)
(0.92 -0.3126 3.84e-21)
(0.8311 0.03281 -4.531e-21)
(0.9604 -0.2847 -9.127e-22)
(0.9956 -0.02651 -2.042e-20)
(0.792 -0.2414 -2.033e-21)
(0.5543 1.016 -3.499e-22)
(0.8098 -0.406 -2.087e-21)
(0.9502 -0.2516 3.514e-22)
(0.75 -0.0487 4.251e-22)
(0.6136 -0.2398 2.179e-21)
(1.234 -0.07412 -1.258e-21)
(0.9088 -0.2004 1.249e-22)
(0.7707 -0.1421 0)
(0.3509 -0.1646 0)
(1.007 0.0003929 7.681e-22)
(0.9993 -5.043e-05 1.093e-21)
(0.9217 -0.3231 -1.18e-21)
(1.363 0.2821 2.532e-21)
(0.289 -0.1386 3.234e-22)
(0.9141 -0.1838 0)
(0.9873 -0.05716 -1.461e-21)
(0.454 -0.1997 1.779e-21)
(0.99 0.0007605 -8.676e-21)
(0.4161 -0.1843 1.725e-21)
(0.6934 -0.251 1.542e-21)
(0.914 -0.3366 -3.96e-21)
(0.3038 -0.3176 -1.277e-21)
(0.8585 -0.3336 1.445e-22)
(0.6157 -0.2316 0)
(0.8067 -0.2527 4.476e-21)
(0.9911 -0.0593 5.739e-21)
(0.9783 -0.005238 1.078e-22)
(0.7507 -0.1344 0)
(0.5967 -0.237 0)
(0.8303 -0.1633 0)
(1.007 0.0003411 -1.479e-23)
(0.9994 -6.076e-05 -1.654e-22)
(0.6974 -0.2457 4.038e-21)
(0.6732 -0.1094 1.159e-23)
(0.9182 -0.221 1.872e-22)
(0.7461 -0.05318 -1.208e-24)
(0.756 -0.2215 -1.184e-22)
(0.9983 0.05605 1.496e-21)
(0.8006 -0.2559 -3.335e-21)
(0.7655 -0.09921 6.334e-23)
(0.9605 -0.2569 -3.645e-21)
(0.8468 -0.1805 -7.743e-22)
(0.9174 -0.3326 0)
(0.8585 -0.2517 -2.469e-21)
(0.6702 -0.4072 0)
(0.8571 -0.1803 0)
(0.4413 -0.1945 0)
(0.2967 -0.1408 0)
(0.4309 -0.1841 0)
(0.9576 -0.2697 7.848e-23)
(0.6781 -0.3936 -1.648e-21)
(1.027 -0.1228 0)
(0.5107 -0.2106 1.109e-21)
(0.7645 -0.05139 4.446e-22)
(0.2706 -0.1306 -7.593e-22)
(0.6687 -0.4056 0)
(0.5978 -0.3897 1.74e-21)
(0.772 -0.1475 2.092e-22)
(0.9096 -0.2009 -1.306e-22)
(0.9289 -0.286 -4.358e-21)
(0.8889 -0.2041 4.463e-22)
(0.7361 -0.1312 -3.629e-23)
(0.9027 -0.3629 -2.504e-21)
(1.181 0.05073 -9.543e-21)
(1.012 -0.002131 2.218e-20)
(1.005 -0.09667 0)
(1.082 -0.1867 -1.055e-21)
(0.8476 -0.1619 -4.795e-23)
(0.7612 -0.1366 -5.781e-24)
(0.8558 -0.1599 0)
(0.391 -0.1798 -2.026e-21)
(0.8808 -0.1844 2.673e-22)
(1.049 0.002962 0)
(0.6426 0.06945 -1.934e-21)
(0.8313 -0.17 4.751e-22)
(0.9631 -0.1618 -7.514e-26)
(0.3196 -0.1512 -1.388e-22)
(0.756 -0.1372 2.669e-23)
(0.8897 -0.02766 -2.45e-21)
(0.8192 -0.1618 -1.147e-22)
(0.796 -0.154 0)
(1.022 0.009776 -6.768e-21)
(1.363 0.1345 -1.28e-22)
(1.109 -0.1677 2.193e-22)
(1.034 -0.001543 -1.978e-20)
(0.9958 -4.633e-05 1.051e-21)
(0.9439 -0.2553 1.172e-21)
(0.3697 -0.09648 0)
(0.9659 -0.1474 0)
(0.685 -0.247 0)
(0.9319 0.1614 0)
(0.7806 -0.05533 0)
(0.7773 -0.1489 2.38e-25)
(1.163 -0.101 0)
(-0.02623 -0.06505 1.578e-22)
(0.9586 -0.2641 0)
(0.9519 -0.01375 -1.13e-21)
(0.6173 -0.04442 0)
(0.7394 -0.4074 7.96e-22)
(1.033 -0.003816 1.698e-20)
(1.046 -0.004764 1.979e-20)
(0.6326 -0.228 -3.547e-21)
(0.9506 -0.252 3.778e-22)
(0.9318 -0.2389 0)
(0.9604 -0.2846 7.48e-22)
(0.7092 -0.4163 0)
(0.9784 0.01512 -6.29e-21)
(0.5952 -0.1046 -1.588e-22)
(0.8711 -0.1911 0)
(1.009 0.0008764 3.27e-21)
(0.9366 -0.2876 -7.342e-22)
(0.9013 -0.04007 -2.306e-20)
(0.9384 -0.334 -1.613e-21)
(0.4248 -0.191 -1.811e-21)
(0.9591 -0.2703 6.244e-22)
(0.9561 -0.271 1.244e-21)
(0.9358 -0.2879 0)
(0.8192 -0.1618 1.721e-22)
(1.011 -0.001953 1.061e-20)
(0.2585 -0.1352 0)
(0.772 -0.1426 2.808e-23)
(0.7687 -0.0967 -3.999e-23)
(0.8425 -0.2492 -2.64e-22)
(0.9593 -0.2863 -1.101e-21)
(0.8227 -0.2283 0)
(0.9793 -0.005077 2.536e-20)
(0.6709 -0.2493 5.847e-21)
(0.917 -0.1839 0)
(1.003 -0.0971 2.593e-21)
(0.0214 0.1274 6.95e-22)
(1.025 -0.08858 0)
(1.264 -0.02124 1.069e-21)
(0.2942 -0.06004 3.916e-22)
(0.9245 -0.3093 -3.689e-21)
(0.9265 -0.3066 2.423e-21)
(0.9189 -0.3283 3.726e-23)
(1.244 -0.06296 7.298e-22)
(0.3197 -0.151 5.076e-22)
(0.8688 -0.3698 2.709e-21)
(0.7967 -0.154 0)
(0.9155 -0.3558 0)
(0.9446 -0.2553 1.053e-21)
(0.3192 -0.1067 1.285e-21)
(0.7572 -0.1376 -2.443e-23)
(0.7552 -0.009223 0)
(0.4311 -0.1836 -1.697e-21)
(0.4253 -0.1911 1.705e-21)
(0.9041 -0.2009 -1.562e-22)
(0.9107 -0.3454 -2.21e-21)
(0.9998 0.05547 0)
(0.8876 -0.2039 0)
(0.7829 -0.148 4.148e-23)
(0.5437 -0.2251 0)
(0.9025 -0.2019 3.108e-22)
(0.9957 0.001596 0)
(0.2816 -0.1366 1.315e-22)
(-0.01943 -0.09322 0)
(-0.01423 0.06148 -1.667e-21)
(0.2882 -0.2916 -1.86e-21)
(0.1672 -0.0841 -7.303e-23)
(0.8834 -0.1961 -1.098e-22)
(1.001 0.002954 2.369e-22)
(0.9427 -0.2451 1.072e-21)
(0.8365 -0.1742 5.133e-22)
(1.336 0.186 0)
(0.5969 -0.2281 1.932e-21)
(0.9099 -0.1819 3.523e-24)
(0.9187 -0.2213 -3.35e-22)
(0.7177 -0.3173 -1.709e-21)
(1.03 -0.01626 -2.543e-20)
(1.346 0.2987 -5.044e-22)
(0.6576 -0.2458 8.5e-22)
(0.713 -0.1279 -1.685e-23)
(0.305 -0.1444 -1.673e-22)
(0.9077 -0.3646 -1.517e-22)
(0.8625 -0.04046 3.977e-22)
(0.9214 -0.01648 -1.76e-21)
(1.009 0.0008548 7.697e-22)
(0.4586 -0.2013 -9.688e-22)
(0.9817 -0.0145 -1.03e-20)
(0.03132 0.01779 -1.154e-21)
(0.2407 -0.002458 -1.998e-21)
(0.9746 0.04404 -1.586e-21)
(0.1033 -0.04046 1.067e-21)
(0.9936 0.02136 7.904e-21)
(0.9801 -0.197 -5.884e-22)
(0.9584 0.01517 -3.254e-21)
(0.4882 -0.2082 5.629e-22)
(0.8157 -0.1534 -2.648e-23)
(1.093 0.7523 -5.853e-22)
(0.4426 -0.1945 2.373e-22)
(0.9443 -0.3113 0)
(0.7048 -0.1301 0)
(-0.0246 -0.06678 -1.638e-22)
(0.9955 -1.68e-05 0)
(0.8459 -0.1748 -2.741e-22)
(0.7904 -0.2515 -4.815e-21)
(0.9042 -0.2426 -1.701e-21)
(0.7695 -0.1324 1.473e-23)
(0.5794 -0.191 -4.034e-21)
(0.9505 -0.01309 1.103e-21)
(0.9362 -0.2495 1.129e-21)
(0.7083 -0.4161 0)
(0.9482 -0.2656 -2.814e-21)
(0.9349 -0.2406 -8.998e-22)
(0.8469 -0.162 4.35e-23)
(0.7661 -0.4088 1.031e-21)
(0.2912 -0.2934 1.799e-21)
(0.9152 -0.2179 -1.148e-22)
(0.8875 -0.04006 -4.069e-21)
(0.9222 -0.3544 -2.395e-21)
(1.366 0.1392 0)
(0.7457 -0.05399 0)
(0.8797 -0.1961 -6.005e-22)
(0.9952 -0.005713 -9.954e-21)
(0.9029 -0.202 -3.074e-22)
(1.084 -0.1858 1.892e-21)
(1.014 0.08143 -1.443e-21)
(0.7692 -0.4097 0)
(0.9987 -0.00643 9.031e-21)
(1.015 -0.004796 -7.082e-21)
(0.8171 -0.1663 -7.733e-22)
(0.7002 -0.2453 -1.944e-21)
(0.9702 -0.192 -2.67e-21)
(1.048 -0.0004084 -1.405e-20)
(0.9232 -0.3413 1.596e-21)
(0.7715 -0.05662 -4.258e-23)
(-0.01821 -0.08974 0)
(0.955 -0.2358 -3.128e-21)
(0.979 -0.003946 -9.964e-22)
(0.8182 -0.1664 7.914e-23)
(0.6585 -0.247 -1.792e-21)
(0.8093 -0.1587 7.937e-23)
(0.5218 -0.2169 8.435e-22)
(0.9985 0.00934 0)
(0.9474 -0.2719 3.598e-21)
(0.9579 -0.27 3.038e-22)
(1.041 -0.2056 -1.087e-21)
(0.7403 -0.4062 0)
(0.8045 -0.1574 2.137e-22)
(1.001 0.002757 0)
(0.9923 -0.05819 -7.252e-21)
(0.9382 -0.3344 1.259e-21)
(0.8907 -0.2044 0)
(1.128 0.05692 5.835e-21)
(1.369 0.406 -1.162e-23)
(0.9996 -0.09639 6.544e-21)
(0.9567 -0.2713 1.619e-22)
(0.9588 -0.2645 -3.775e-22)
(0.9649 -0.1445 0)
(0.9799 -0.004005 4.858e-21)
(0.6076 -0.2309 5.394e-22)
(0.904 -0.03854 2.256e-20)
(0.8926 -0.2474 0)
(0.809 -0.405 1.019e-21)
(0.9594 -0.2577 0)
(0.284 -0.1369 0)
(1.007 0.04763 3.097e-22)
(0.3915 -0.18 1.704e-21)
(0.7485 -0.4048 2.842e-21)
(0.9524 -0.272 -1.786e-22)
(0.7681 -0.02418 5.874e-23)
(0.6158 -0.2311 5.782e-21)
(0.4833 -0.3063 1.973e-21)
(0.9396 -0.2379 2.906e-21)
(0.9966 -0.0001805 0)
(0.7457 -0.1349 5.604e-24)
(0.9995 -0.2257 -2.282e-21)
(0.8558 -0.147 7.587e-21)
(1.022 0.009061 8.915e-21)
(0.9995 0.003325 -1.992e-20)
(0.9269 -0.1812 0)
(0.9932 0.0001085 0)
(1.012 -0.005339 -1.787e-20)
(0.8244 -0.4001 9.697e-22)
(1.171 0.05317 3.147e-23)
(0.8068 -0.1427 0)
(1.007 0.0002831 0)
(0.3987 -0.1736 1.961e-21)
(0.8952 -0.1998 0)
(0.7451 -0.007158 1.24e-20)
(0.7644 -0.1395 -7.922e-24)
(0.8328 -0.1705 -2.722e-22)
(0.8838 -0.185 -3.086e-22)
(0.6052 -0.04308 1.625e-21)
(0.8311 -0.1719 0)
(0.8876 -0.2025 8.51e-23)
(0.9971 -0.0001303 0)
(0.9952 3.085e-05 8.872e-22)
(1.005 0.04771 -2.444e-21)
(0.9458 -0.2996 2.021e-21)
(0.9504 -0.3212 1.623e-21)
(0.9033 -0.1152 0)
(0.9087 -0.3645 0)
(0.7972 -0.2398 0)
(0.749 -0.1334 -7.268e-24)
(0.9537 -0.2494 3.113e-22)
(1.069 0.03198 0)
(0.7468 -0.134 -1.116e-24)
(0.7529 -0.05229 0)
(1.068 0.04008 0)
(1.006 0.005079 0)
(0.3239 -0.1009 -8.9e-22)
(0.8581 -0.3318 1.02e-21)
(1.082 -0.1851 2.946e-22)
(0.9813 -0.009668 3.592e-21)
(0.8303 -0.1634 -7.715e-23)
(1.359 0.4392 0)
(0.8589 -0.181 6.325e-23)
(0.9806 0.003441 1.368e-20)
(0.9278 -0.285 1.52e-21)
(0.899 -0.2428 0)
(0.9375 -0.08265 4.722e-21)
(0.4534 -0.1993 0)
(0.922 -0.01635 -1.765e-21)
(0.9418 -0.219 0)
(0.02558 0.125 -1.122e-22)
(1.007 -0.002446 0)
(0.8465 -0.3762 -2.805e-21)
(0.9104 -0.2953 1.312e-22)
(0.809 -0.1431 -3.487e-25)
(0.7647 -0.4089 -1.045e-21)
(0.9938 0.02065 0)
(0.3342 -0.1546 0)
(0.7903 -0.1526 0)
(0.7922 -0.1513 1.218e-23)
(0.9236 -0.3406 -1.564e-21)
(0.8637 -0.1038 -7.493e-23)
(1.05 -0.2011 0)
(1.006 -0.001031 -8.937e-20)
(1.377 0.4717 0)
(0.8439 -0.02357 5.311e-21)
(0.8586 -0.1601 -4.326e-23)
(0.6278 -0.3947 4.753e-21)
(0.3048 -0.1451 -4.659e-22)
(0.6842 -0.2495 1.596e-21)
(0.842 -0.1737 1.011e-22)
(0.8275 -0.1701 0)
(1.008 0.0936 2.682e-22)
(0.9655 -0.163 -2.037e-23)
(0.3004 -0.1431 -2.532e-22)
(1.069 0.02385 -4.097e-22)
(0.8072 -0.2046 -4.748e-21)
(-0.03523 -0.09974 0)
(0.7338 -0.02367 -2.539e-21)
(1.081 -0.1202 1.569e-20)
(1.319 0.4075 3.228e-21)
(1.007 -0.007416 0)
(0.6969 -0.1358 -1.026e-21)
(0.8615 -0.3918 0)
(0.9949 8.128e-05 -5.466e-22)
(0.5133 -0.2166 1.736e-21)
(0.9999 0.0003542 7.005e-20)
(1.245 -0.05403 1.908e-21)
(0.9009 -0.04523 0)
(0.9438 -0.3117 1.112e-21)
(1.271 -0.01921 0)
(1.012 -0.2038 -2.662e-21)
(0.5668 -0.194 -4.464e-22)
(0.7769 -0.05405 -1.457e-21)
(0.7904 -0.1506 0)
(1.028 0.4608 0)
(0.2035 -0.2165 -1.657e-21)
(0.5111 0.1189 5.599e-21)
(0.781 -0.1462 8.902e-23)
(0.9877 0.06871 3.986e-21)
(0.7358 -0.1313 2.719e-23)
(1 0.0001705 3.027e-20)
(0.7377 -0.2555 0)
(0.6864 -0.247 -1.806e-21)
(1.002 -0.000798 5.148e-20)
(0.4581 -0.08601 0)
(0.9373 -0.2487 2.094e-21)
(0.9448 -0.2321 0)
(0.4844 -0.2093 -2.935e-21)
(0.6277 -0.1118 1.138e-22)
(0.9504 -0.2471 -7.624e-22)
(0.7467 0.8991 4.559e-23)
(0.9201 -0.2422 -1.913e-21)
(0.7826 -0.1466 -8.761e-23)
(1.015 -0.004466 0)
(0.5234 -0.2174 -5.073e-21)
(0.8033 -0.1996 0)
(0.2026 0.9364 -5.393e-22)
(0.5792 -0.1891 -3.578e-21)
(1.001 -0.0006721 5.103e-20)
(0.7698 -0.08947 2.438e-24)
(0.9151 -0.3557 1.099e-21)
(1.005 -0.008159 -8.2e-21)
(0.9213 -0.222 2.063e-22)
(0.8391 -0.254 0)
(0.7971 -0.1527 0)
(0.7678 -0.1403 5.925e-24)
(1.006 0.004742 -3.689e-21)
(1.327 0.6623 -1.186e-21)
(0.7468 -0.1346 3.848e-23)
(0.9727 -0.008742 -4.989e-22)
(0.7361 -0.1317 -1.974e-23)
(0.8683 -0.1905 0)
(0.4549 -0.1998 -1.715e-21)
(0.9466 -0.2474 8.603e-22)
(0.7784 -0.2518 -4.527e-21)
(0.6799 -0.2477 2.123e-21)
(0.8474 -0.1754 8.78e-23)
(0.3773 -0.168 7.838e-22)
(1.018 -0.1512 -3.931e-22)
(0.98 7.527e-05 -6.792e-21)
(0.7396 -0.1318 1.189e-23)
(0.5943 -0.04636 0)
(0.9465 -0.2439 -9.62e-22)
(0.2908 -0.1396 -2.974e-22)
(0.8424 -0.1737 -2.116e-22)
(1.001 -0.2246 1.104e-21)
(0.838 -0.254 0)
(0.8839 -0.1964 0)
(0.9606 -0.2193 -2.778e-22)
(0.9957 0.0003977 -2.138e-20)
(0.9451 -0.2991 0)
(0.9478 -0.07754 -1.465e-21)
(1.008 0.0001982 -7.437e-21)
(0.9745 0.04217 1.764e-21)
(0.8068 -0.1542 -5.135e-23)
(0.8886 -0.2023 -7.512e-22)
(0.9598 -0.2583 0)
(0.9792 0.01589 0)
(1.019 -0.08199 4.266e-22)
(0.8973 -0.1644 8.923e-23)
(0.8627 -0.1671 4.841e-24)
(0.9708 -0.2436 2.868e-23)
(0.7637 -0.1371 8.45e-24)
(0.568 -0.08387 -1.301e-20)
(1.048 0.003735 1.216e-20)
(0.9836 -0.197 0)
(0.9817 -0.06927 -1.827e-21)
(0.9289 -0.181 0)
(0.4881 -0.01612 -2.907e-22)
(0.5134 -0.2108 -5.54e-22)
(1.011 -0.2056 1.878e-21)
(0.9717 -0.2434 -2.978e-23)
(0.953 -0.2971 1.175e-21)
(0.9985 0.008873 0)
(0.4207 -0.1879 0)
(0.9932 0.0001412 8.101e-22)
(0.9551 -0.3063 -6.42e-22)
(1.393 0.4371 9.606e-22)
(0.8613 -0.3913 -1.469e-21)
(0.995 0.001545 9.475e-22)
(0.9596 0.01391 -1.942e-21)
(0.943 -0.246 -7.228e-22)
(0.2895 -0.1475 -3.748e-23)
(0.2787 -0.1348 4.772e-22)
(0.9595 -0.2563 3.296e-21)
(0.8397 -0.2445 0)
(0.6151 -0.04336 -1.775e-21)
(0.4594 -0.2015 1.546e-21)
(0.8757 -0.1836 1.627e-22)
(1.004 -0.0004673 4.638e-22)
(0.9463 -0.272 0)
(0.8863 -0.192 -4.634e-23)
(0.9995 -0.03396 -6.28e-22)
(0.9667 -0.05965 0)
(0.8103 -0.252 4.389e-21)
(0.8693 -0.23 2.379e-21)
(0.9384 -0.3369 0)
(0.616 -0.2401 -2.052e-21)
(0.9992 -0.003674 -5.183e-22)
(0.8495 -0.01876 1.998e-21)
(0.8193 -0.2537 2.229e-21)
(0.9576 -0.297 0)
(1.007 0.003009 3.504e-23)
(0.9365 -0.2409 9.116e-22)
(1.009 -0.1887 0)
(0.7603 -0.1111 -4.704e-23)
(0.8384 -0.1723 3.606e-23)
(0.4285 -0.1816 2.266e-22)
(0.8537 -0.3166 0)
(0.9442 -0.2319 0)
(0.7526 -0.2555 0)
(0.981 0.0003353 0)
(0.9508 -0.3183 9.935e-22)
(0.7852 -0.1489 -1.509e-22)
(1.326 0.3876 -3.277e-21)
(0.7921 -0.1577 0)
(1.009 0.977 -2.998e-22)
(0.9961 -0.02555 2.463e-20)
(0.5134 -0.2124 0)
(0.8958 -0.2469 1.108e-22)
(1.003 -0.2183 3.97e-22)
(0.5998 -0.2378 7.606e-22)
(0.3448 -0.1624 -2.908e-22)
(0.8189 -0.1665 4.229e-22)
(0.9757 -0.2223 9.69e-22)
(1.058 -0.1331 0)
(0.9227 -0.2317 0)
(0.8629 -0.1027 0)
(0.3539 -0.1656 -2.335e-22)
(0.4899 -0.2085 0)
(0.9158 -0.2184 0)
(0.764 -0.1393 0)
(0.7738 -0.1339 -8.579e-24)
(0.9786 0.04352 0)
(0.9961 0.0003092 1.926e-20)
(0.9797 -0.06863 1.579e-21)
(0.7374 -0.2552 -2.977e-21)
(0.8199 -0.1667 0)
(1.004 -0.006815 2.129e-20)
(1.177 -0.1016 1.21e-21)
(0.4182 -0.1846 -1.54e-21)
(0.9797 0.0443 -1.445e-21)
(0.9025 -0.3621 2.9e-22)
(0.3325 -0.1536 4.767e-22)
(1.011 -0.001921 0)
(0.9593 -0.2704 -6.179e-22)
(0.9968 -0.0002085 0)
(0.9903 -0.1666 0)
(1.144 -0.09836 0)
(1.006 0.0002285 1.441e-21)
(0.8004 -0.2556 -1.896e-21)
(0.2797 -0.1373 2.205e-22)
(0.8241 -0.02325 -2.936e-21)
(0.9903 -0.02494 -6.991e-23)
(0.9305 -0.2334 -5.412e-22)
(0.3343 -0.1549 -2.222e-22)
(1.158 -0.1073 3.075e-21)
(0.4851 -0.2096 2.304e-21)
(0.7203 -0.1272 -5.218e-23)
(0.2486 -0.2264 0)
(0.9051 -0.2426 0)
(0.8584 -0.1508 6.611e-24)
(0.954 -0.2495 0)
(1.012 -0.001798 2.468e-20)
(0.8763 -0.2496 1.668e-21)
(1.015 -0.00327 -2.337e-20)
(0.8188 -0.1538 0)
(0.328 -0.1535 5.269e-21)
(0.949 -0.2289 0)
(0.9548 -0.3064 1.545e-22)
(0.916 -0.2199 0)
(0.923 -0.3516 0)
(1.01 -0.001717 1.723e-20)
(1.007 -0.002231 0)
(0.7752 -0.07491 -6.663e-24)
(0.8996 -0.164 -8.987e-23)
(0.9979 -0.003849 1.395e-21)
(0.4779 -0.3531 0)
(0.8496 -0.1356 5.72e-21)
(0.9569 -0.2623 -1.133e-21)
(0.8692 -0.0951 -1.257e-20)
(0.8217 -0.1662 1.385e-22)
(1.053 -0.1968 0)
(0.7772 -0.1476 -2.874e-22)
(1.004 -0.0004155 -2.335e-23)
(0.9509 -0.2979 -4.422e-22)
(1.066 0.7658 0)
(0.9339 -0.2168 4.42e-22)
(0.9658 -0.2464 -1.02e-21)
(1.003 0.0008865 -1.094e-23)
(0.4818 -0.209 3.555e-22)
(0.4743 -0.2061 0)
(0.4536 -0.1911 8.684e-22)
(0.9423 -0.2194 2.025e-22)
(1.004 -0.2183 2.587e-21)
(0.306 -0.314 9.827e-22)
(1.001 -0.02618 -7.91e-21)
(0.4208 -0.1876 -2.739e-22)
(0.4956 -0.2129 0)
(0.8021 -0.256 2.892e-21)
(0.9827 -0.01432 6.846e-21)
(1.401 0.3436 5.444e-24)
(1.009 0.0002748 -1.87e-21)
(0.9576 -0.2717 1.003e-21)
(0.4718 -0.2034 5.281e-22)
(0.9868 -0.01733 0)
(0.7317 -0.2548 0)
(0.8563 -0.178 1.068e-22)
(0.8389 -0.1687 -9.629e-23)
(0.4966 0.6253 7.649e-22)
(0.923 -0.232 -1.299e-21)
(0.9045 -0.2011 -1.612e-22)
(0.8059 -0.1412 0)
(0.9158 -0.02263 -1.014e-21)
(0.8315 -0.1641 9.546e-23)
(1.09 -0.1817 0)
(0.8999 -0.2026 -3.328e-22)
(1.012 0.08068 0)
(1.028 -0.1613 -4.139e-23)
(0.9108 -0.209 2.117e-22)
(1.015 -0.003804 0)
(0.5448 -0.2255 2.725e-21)
(0.9845 -0.01678 -6.063e-21)
(1.011 -0.08309 0)
(0.5867 -0.2356 1.484e-21)
(0.987 -0.01656 0)
(0.9614 -0.004393 -1.273e-20)
(0.9444 -0.2995 7.093e-22)
(1.084 -0.1842 8.959e-22)
(1.005 -0.006537 -5.566e-21)
(1.005 0.001136 2.581e-21)
(0.783 -0.255 1.649e-21)
(0.9962 -0.09793 6.059e-21)
(0.9336 -0.04207 -3.55e-22)
(0.7756 -0.1491 3.661e-23)
(1.191 0.7564 3.252e-22)
(0.7758 -0.1435 6.019e-24)
(0.9143 -0.01266 9.969e-22)
(0.846 -0.1748 0)
(0.9964 -0.0001929 2.519e-22)
(0.3473 -0.1602 0)
(0.06642 0.1484 -1.015e-24)
(1.026 -0.1084 9.116e-24)
(0.4493 -0.3648 3.84e-21)
(1.015 -0.09266 5.148e-21)
(1 -0.02266 4.588e-21)
(0.586 -0.2351 4.702e-22)
(0.8965 -0.2003 0)
(0.7904 -0.1498 7.042e-23)
(0.9389 -0.3268 -1.965e-21)
(0.4331 -0.1936 -1.747e-21)
(0.77 -0.2325 -4.758e-21)
(0.9107 -0.2142 0)
(0.3205 -0.1527 0)
(0.7393 -0.2544 1.387e-21)
(0.9963 0.00328 -3.241e-20)
(0.9287 -0.336 0)
(0.9272 -0.3471 1.151e-21)
(0.7673 -0.147 4.996e-24)
(1.068 -0.1923 -1.854e-21)
(0.9547 -0.3024 -8.026e-22)
(0.7923 -0.1633 1.699e-22)
(1 -0.09589 -1.795e-21)
(0.9924 -0.0102 -1.874e-20)
(0.5734 -0.2273 -2.048e-21)
(0.8613 -0.3688 0)
(0.7185 -0.4117 0)
(0.973 -0.01935 -4.114e-22)
(0.9554 -0.3021 7.945e-22)
(0.8408 -0.1267 -4.922e-23)
(0.3131 0.6731 0)
(0.2655 0.7928 5.604e-22)
(1.026 0.05157 2.267e-21)
(0.6602 0.9037 -1.776e-22)
(0.4744 -0.2065 -4.044e-22)
(0.8982 -0.192 -5.643e-23)
(0.5242 -0.0691 8.533e-21)
(0.6982 -0.04809 1.661e-22)
(1.006 0.00167 1.787e-20)
(0.9225 -0.2268 0)
(0.6752 -0.2496 2.449e-21)
(0.1076 0.1505 -2.527e-22)
(1.002 0.002617 4.585e-21)
(0.8074 -0.1425 -1.109e-23)
(0.9927 -0.03287 1.287e-20)
(0.6683 -0.4171 -1.539e-21)
(0.7207 -0.3147 0)
(0.9996 0.003065 2.206e-22)
(0.972 -0.004665 4.08e-22)
(1.001 -0.06798 -3.222e-22)
(0.8032 -0.162 2.15e-22)
(0.3441 -0.1623 3.972e-22)
(0.9486 -0.2627 0)
(0.7449 -0.1031 9.614e-21)
(0.8375 -0.1578 -5.259e-23)
(0.8028 -0.1582 5.171e-22)
(0.9502 -0.257 -1.079e-21)
(0.2653 -0.1284 -6.689e-22)
(0.9195 -0.3573 -3.15e-21)
(1.015 -0.0001736 -6.194e-20)
(1.01 -0.007499 0)
(0.9967 -0.02826 0)
(0.8002 0.1742 -7.355e-21)
(1.01 0.00162 0)
(0.8615 -0.1734 1.153e-22)
(0.8047 -0.2138 6.336e-21)
(0.9525 -0.2481 1.817e-21)
(0.8934 -0.2082 5.327e-22)
(0.8558 -0.1811 2.376e-22)
(0.2525 -0.1413 -1.558e-24)
(0.8996 -0.3696 0)
(0.9585 -0.2934 -8.052e-22)
(0.6694 -0.1228 -3.227e-22)
(1.199 -0.06308 5.713e-22)
(1.002 -0.0002557 -5.953e-21)
(0.5014 -0.2129 -5.377e-21)
(0.9144 -0.222 -1.259e-21)
(0.9992 -0.0005657 1.557e-21)
(1.146 -0.1356 4.132e-21)
(0.531 -0.06727 -1e-21)
(0.9196 -0.2473 1.562e-23)
(0.7707 -0.2557 -2.6e-21)
(1.04 0.0003254 -1.721e-20)
(0.8673 -0.3835 -5.906e-22)
(0.9607 -0.2731 0)
(0.8319 -0.1613 1.82e-23)
(0.8268 -0.1334 -4.82e-23)
(0.4396 -0.2331 -1.303e-21)
(0.8066 -0.3681 0)
(1.142 -0.1036 0)
(0.8346 -0.2217 0)
(1.145 -0.1346 0)
(0.9448 -0.1519 0)
(0.8134 -0.1609 0)
(0.938 -0.2413 0)
(0.4386 -0.1965 3.703e-21)
(0.3946 -0.1259 -6.858e-22)
(0.3215 -0.08764 -3.317e-22)
(1.016 -0.1624 2.033e-22)
(0.8264 -0.1525 -1.629e-23)
(1.003 0.001791 -1.246e-20)
(0.9836 0.03315 -1.582e-20)
(0.9919 -0.009265 7.107e-21)
(0.9562 -0.2689 0)
(0.8373 -0.3892 0)
(0.7553 -0.2055 0)
(0.6532 0.07385 1.549e-22)
(0.9658 -0.246 9.909e-22)
(0.9004 -0.2042 -2.728e-22)
(0.8307 -0.3355 0)
(0.9414 -0.2464 7.185e-22)
(0.3258 -0.1369 0)
(0.6516 -0.2468 -1.54e-21)
(1.002 -0.02399 -5.596e-21)
(1.002 4.736e-05 6.856e-21)
(0.1301 -0.1125 1.073e-22)
(0.3285 -0.1384 -1.222e-20)
(1.006 0.000205 -1.94e-20)
(0.7026 -0.0395 4.088e-21)
(0.8022 -0.157 1.192e-22)
(0.9318 0.08023 0)
(0.8437 -0.1756 1.222e-22)
(0.1925 -0.09856 3.223e-21)
(0.8149 -0.196 4.2e-21)
(0.9842 -0.07218 0)
(0.3316 0.0855 -4.048e-24)
(0.496 -0.2838 -9.209e-21)
(0.9148 -0.2435 -1.292e-21)
(0.9572 -0.2801 4.858e-22)
(-0.007389 0.06006 1.099e-21)
(0.9521 -0.2763 0)
(0.3866 -0.1768 1.396e-21)
(1.015 -0.0004146 2.425e-21)
(0.9533 -0.2634 1.044e-21)
(0.8708 -0.305 1.283e-21)
(0.9872 0.06703 -1.715e-21)
(0.3874 -0.3605 -2.954e-22)
(1.013 0.02173 1.398e-22)
(1 -0.0001913 5.198e-20)
(0.9014 -0.2073 3.716e-22)
(0.4001 -0.1765 -1.056e-21)
(1.137 0.03193 -1.074e-20)
(0.4951 -0.07044 2.187e-21)
(0.9503 -0.2051 0)
(0.9961 0.0009355 0)
(0.6199 -0.2413 -1.976e-21)
(0.7875 -0.1473 6.394e-23)
(1.013 -0.09166 -3.468e-23)
(0.6691 -0.3326 -2.802e-21)
(0.9476 -0.2278 -4.921e-22)
(0.9843 -0.02583 -4.644e-21)
(0.4219 -0.1876 1.607e-22)
(0.9168 -0.357 -1.351e-21)
(0.4784 1.019 0)
(0.8223 -0.03664 0)
(1.001 -0.0001753 -9.043e-20)
(0.4244 -0.08282 3.606e-23)
(1.006 0.01172 0)
(0.4095 -0.3273 -1.983e-21)
(0.5042 -0.2148 -2.337e-22)
(0.7263 0.1159 0)
(0.5874 -0.1828 -8.612e-21)
(0.8191 -0.1678 -1.507e-22)
(1.092 -0.17 0)
(0.4898 -0.2116 1.175e-21)
(0.3749 -0.1427 8.121e-21)
(1.399 0.2506 2.665e-21)
(0.9237 -0.2235 1.63e-22)
(1.263 0.6823 0)
(0.7028 0.002974 1.677e-22)
(0.7382 -0.2638 1.675e-21)
(1.108 -0.1254 6.254e-21)
(0.9926 0.0126 1.212e-20)
(0.5782 -0.1861 0)
(0.9349 -0.2365 0)
(0.8166 -0.1588 0)
(0.8366 -0.04479 1.045e-20)
(1.03 -0.1975 0)
(1.025 0.0008141 1.616e-20)
(0.7431 -0.135 -1.883e-23)
(0.9451 -0.2865 -7.213e-22)
(0.4013 -0.1828 7.854e-22)
(0.8223 -0.1517 1.434e-23)
(0.9965 0.001536 -1.898e-22)
(0.9598 -0.154 0)
(0.9503 -0.321 -1.473e-21)
(1.072 0.3395 -4.387e-22)
(-0.0201 -0.07632 -3.181e-22)
(0.4968 -0.1897 0)
(0.4656 0.02266 -5.309e-23)
(0.989 -0.2105 2.807e-21)
(0.8927 -0.07207 2.858e-22)
(0.958 0.09409 2.189e-21)
(0.9129 -0.2138 0)
(0.7681 -0.1409 2.309e-23)
(0.9868 0.0004265 4.524e-22)
(0.9869 0.0005524 1.713e-20)
(0.9101 -0.2096 2.437e-22)
(0.9469 -0.2475 5.11e-25)
(0.877 -0.1704 1.462e-22)
(0.9504 -0.2354 2.153e-21)
(0.5007 -0.2143 4.937e-22)
(0.7937 -0.2861 -1.321e-21)
(0.9891 0.001242 0)
(1 -0.005575 8.928e-20)
(0.773 -0.1414 6.968e-25)
(0.8018 -0.1476 3.372e-23)
(0.7513 -0.4211 -2.085e-21)
(0.9691 -0.1895 2.945e-22)
(0.968 -0.2468 0)
(1.015 0.0003311 -1.955e-20)
(1.006 0.001689 -9.95e-23)
(1.009 0.05062 0)
(0.299 -0.1429 5.178e-22)
(0.3523 -0.1656 -5.449e-22)
(0.7332 -0.2549 1.094e-21)
(0.2767 -0.1251 0)
(0.9631 -0.263 1.392e-21)
(0.7635 -0.1374 0)
(1.013 0.007903 0)
(0.9467 -0.2165 -6.384e-21)
(0.8285 -0.2538 -3.788e-21)
(1.011 -0.2103 0)
(0.7497 -0.4105 1.295e-21)
(1.017 0.001298 -1.474e-20)
(0.8664 -0.1885 0)
(1.014 0.01061 -3.343e-21)
(0.7687 -0.1617 6.384e-22)
(0.9971 0.0008311 -1.41e-22)
(0.9038 -0.1124 0)
(0.7529 -0.1791 -1.243e-20)
(0.219 -0.1053 1.513e-22)
(0.7929 -0.04596 -3.765e-24)
(0.9577 -0.272 -1.123e-22)
(0.92 -0.357 1.372e-21)
(0.8736 -0.1928 0)
(0.3187 -0.1517 -1.175e-21)
(0.5331 -0.2108 0)
(0.8062 -0.3254 2.135e-21)
(1.042 0.1112 0)
(1.013 -0.08897 -2.429e-21)
(0.9415 -0.2537 -1.313e-21)
(0.9381 -0.2454 0)
(0.8682 -0.1832 0)
(0.4372 -0.1518 -7.343e-22)
(0.9017 -0.1967 0)
(0.7585 -0.1378 1.097e-22)
(0.1594 -0.2068 -4.305e-21)
(1.002 0.0008711 0)
(0.9442 0.1883 0)
(0.9022 -0.3724 9.988e-22)
(1 3.267e-05 2.779e-22)
(0.8671 -0.1891 1.228e-21)
(0.5316 -0.1103 0)
(0.9155 -0.2168 0)
(0.9558 -0.3038 1.948e-21)
(0.7851 -0.1473 -6.969e-23)
(1.014 -0.002582 3.791e-20)
(0.7287 -0.1355 -6.158e-23)
(0.5287 -0.07141 0)
(0.5188 -0.2193 0)
(1.009 -0.0005933 2.461e-20)
(0.8193 -0.2474 0)
(0.929 -0.2065 -2.031e-22)
(0.9722 -0.2213 -3.243e-21)
(0.2937 -0.141 -1.852e-26)
(0.9275 -0.226 -1.122e-21)
(0.5489 -0.2221 -8.815e-24)
(0.7859 -0.1596 5.805e-22)
(0.8283 -0.1488 0)
(0.8958 -0.1911 -8.881e-21)
(0.8608 -0.1682 8.705e-23)
(0.8513 -0.2078 -4.876e-21)
(0.133 -0.1933 -2.201e-22)
(0.9505 0.02115 0)
(1.026 0.01165 -2.321e-21)
(1.016 -0.0002611 3.007e-20)
(0.7714 -0.2356 -9.523e-21)
(0.3445 -0.1625 -8.341e-22)
(0.4607 -0.1976 2.392e-21)
(0.8785 -0.09964 3.095e-23)
(0.5866 -0.2145 4.127e-21)
(0.9567 -0.3015 4.453e-23)
(0.9684 -0.2051 7.229e-22)
(0.9206 -0.2421 -1.977e-21)
(0.4877 -0.2112 -2.375e-21)
(0.8221 -0.156 3.224e-23)
(0.5045 -0.2122 1.029e-21)
(0.6091 -0.2393 0)
(0.4966 -0.2117 -1.604e-21)
(0.2906 -0.1388 0)
(0.5911 -0.2071 0)
(0.8905 -0.04135 1.291e-21)
(0.9621 -0.2668 8.096e-22)
(1.017 0.04575 -1.077e-21)
(0.3358 -0.1577 0)
(1.114 -0.1694 4.076e-22)
(0.9421 -0.2391 -5.288e-22)
(0.3107 -0.1453 -2.433e-22)
(0.8428 -0.09049 0)
(0.4386 -0.1956 0)
(0.9492 0.2082 -1.217e-21)
(0.5507 -0.2245 0)
(0.4677 -0.1646 -2.801e-21)
(0.7512 -0.4202 1.625e-21)
(0.9936 0.01598 -7.471e-21)
(0.9074 -0.2118 6.58e-22)
(0.8387 -0.1706 -2.087e-22)
(0.2205 -0.1106 -1.297e-22)
(0.8227 -0.1645 -2.802e-22)
(0.8175 -0.3978 1.976e-21)
(0.5404 -0.2201 0)
(0.8131 -0.1546 -1.039e-23)
(0.5685 -0.1871 0)
(1.001 0.009522 -1.764e-20)
(0.3844 -0.3591 -7.105e-23)
(0.4699 -0.2045 2.333e-21)
(0.9489 -0.09273 -2.296e-21)
(0.4543 -0.1994 -8.8e-22)
(0.9539 -0.3117 1.718e-21)
(0.4174 -0.1864 -1.152e-21)
(0.9946 0.0002539 0)
(0.9996 0.0007958 0)
(1.006 -0.0001552 0)
(0.8508 -0.2387 -9.377e-21)
(0.3206 -0.1526 0)
(0.8423 -0.3236 2.316e-22)
(1.144 -0.1048 -4.202e-21)
(0.9513 -0.2443 -6.169e-22)
(0.905 -0.07502 -5.079e-22)
(0.5978 -0.2274 -3.645e-21)
(1.029 -0.1462 1.642e-22)
(0.9161 -0.2382 -1.564e-21)
(0.8565 -0.1783 0)
(0.75 -0.1351 3.309e-24)
(0.9756 -0.22 3.458e-21)
(0.9468 -0.04055 -2.189e-21)
(0.8346 -0.3985 3.607e-22)
(0.9293 -0.2227 9.938e-22)
(1.25 0.1014 -4.076e-21)
(0.9724 -0.03191 6.647e-21)
(0.6659 -0.03948 3.051e-21)
(0.8173 -0.1588 -5.366e-23)
(0.8317 -0.3954 1.72e-22)
(0.2627 -0.12 0)
(1.002 -0.001844 0)
(1.021 0.01498 4.884e-21)
(1.138 -0.155 -9.376e-22)
(0.8735 -0.1577 0)
(0.8275 -0.1661 0)
(0.8695 -0.1906 3.952e-22)
(0.9568 -0.2622 1.175e-21)
(0.9711 -0.2451 -3.938e-22)
(0.9101 -0.2211 0)
(1.087 -0.177 -2.196e-21)
(0.9975 -0.0002194 -3.11e-20)
(0.8644 -0.1863 -7.754e-24)
(0.551 -0.2231 0)
(0.9972 -9.524e-05 1.383e-21)
(0.9619 -0.06684 -1.667e-21)
(0.8406 -0.1746 5.136e-24)
(0.8833 -0.155 0)
(0.3672 -0.1706 0)
(0.3909 -0.1789 0)
(0.9352 -0.2327 0)
(0.6149 -0.1076 -7.369e-23)
(0.9591 -0.29 0)
(0.559 -0.2272 1.707e-22)
(1.035 0.1179 -5.644e-22)
(0.4954 -0.2123 -4.888e-21)
(0.901 -0.2117 7.755e-22)
(0.8569 -0.1548 -1.844e-23)
(0.9241 -0.351 -6.445e-22)
(0.8366 -0.3969 0)
(0.9674 -0.2265 0)
(0.42 -0.1883 -1.777e-21)
(0.3867 -0.1752 1.242e-21)
(1.002 0.002263 0)
(0.9974 2.337e-05 1.267e-20)
(1.006 -0.001684 0)
(0.8102 -0.159 7.349e-23)
(1.338 0.1069 0)
(1.399 0.2612 -4.271e-21)
(0.8107 -0.1442 -2.221e-20)
(0.9478 -0.2643 5.053e-21)
(1.005 0.01026 4.802e-21)
(0.9393 -0.2419 -3.204e-22)
(0.8766 -0.1398 -1.936e-21)
(0.9398 -0.2354 -2.642e-22)
(0.9108 -0.2148 -7.409e-22)
(0.922 -0.3542 2.065e-21)
(1.051 0.0474 -1.043e-20)
(0.9557 -0.04018 -6.206e-22)
(1.02 -0.2031 1.385e-21)
(0.8058 -0.07682 -3.875e-21)
(0.9596 -0.2837 0)
(1.023 -0.1906 1.038e-23)
(0.8428 -0.1777 -9.554e-22)
(0.8247 -0.163 0)
(0.9506 -0.1321 0)
(0.4258 -0.1913 -1.689e-21)
(0.8938 -0.1751 0)
(0.5052 -0.2151 -5.079e-22)
(0.09504 0.6431 -1.823e-21)
(0.9931 -0.005759 9.885e-21)
(0.9459 -0.3211 0)
(0.9003 -0.2413 -7.494e-21)
(0.531 -0.2804 -6.211e-21)
(0.8978 -0.2086 0)
(0.6878 -0.1599 0)
(0.8614 -0.1736 -1.153e-22)
(0.3694 -0.1197 0)
(0.527 -0.2213 0)
(0.9637 -0.2599 3.423e-22)
(0.961 -0.2737 -2.108e-21)
(0.9986 0.001516 -1.023e-19)
(1.059 -0.08185 5.524e-21)
(0.8339 -0.3984 -3.741e-22)
(0.843 -0.1749 -1.896e-22)
(1.002 0.001015 5.598e-21)
(0.9696 -0.2191 -9.202e-22)
(0.3565 -0.1667 -1.012e-22)
(0.5899 -0.2346 0)
(0.7947 -0.0567 3.77e-22)
(0.6096 -0.2391 -6.455e-22)
(1.074 0.07213 3.17e-21)
(0.8895 -0.2041 5.751e-22)
(0.992 -0.2091 0)
(0.872 -0.05812 3.512e-22)
(1.234 0.7859 8.26e-22)
(0.7501 -0.2554 0)
(0.01283 0.01757 1.732e-21)
(0.9497 -0.2449 -4.536e-21)
(1.003 0.001066 3.643e-21)
(1.289 0.09678 -4.044e-22)
(0.9803 0.002492 1.584e-20)
(0.9314 -0.06289 -3.86e-21)
(-0.0371 -0.1036 5.878e-23)
(0.8279 -0.3326 0)
(0.7418 -0.0961 -4.134e-24)
(1.016 -0.1049 1.956e-21)
(0.7897 -0.3888 -6.087e-22)
(0.9527 -0.1227 1.495e-22)
(1.016 -3.725e-05 -2.743e-20)
(0.5223 -0.2187 1.496e-21)
(0.9433 -0.2364 -6.258e-22)
(1.012 -0.001723 0)
(0.9825 -0.1209 2.037e-21)
(0.09908 0.01822 1.824e-22)
(0.2822 -0.1247 1.253e-20)
(0.6244 -0.002183 2.155e-22)
(0.8889 -0.1433 -7.25e-24)
(0.7819 -0.1472 0)
(0.9971 0.001098 8.178e-21)
(1.248 0.09454 0)
(1.023 -0.1349 1.184e-22)
(0.5374 -0.2211 -1.489e-21)
(0.3919 -0.1754 -1.672e-21)
(0.9468 -0.3055 0)
(1 -0.001687 0)
(0.3583 -0.1675 4.343e-22)
(0.8987 -0.155 -2.11e-21)
(-0.01895 -0.07375 0)
(1.007 -0.1814 0)
(0.8805 -0.1994 5.545e-22)
(1.255 -0.0186 3.195e-24)
(0.5744 -0.212 -2.804e-21)
(1.019 0.002805 -5.733e-22)
(0.948 -0.08825 2.085e-21)
(0.7535 -0.135 0)
(0.9342 -0.2914 1.882e-21)
(0.732 -0.1308 0)
(0.7834 -0.1481 4.235e-23)
(0.9509 -0.1422 -3.463e-21)
(0.7623 -0.1397 0)
(1 -0.0004215 -3.291e-21)
(0.9093 -0.3446 1.725e-21)
(1.007 0.03082 6.727e-22)
(0.6668 -0.06359 0)
(1.165 -0.1325 2.442e-22)
(0.5118 -0.1004 -8.162e-22)
(1.006 -0.00904 1.287e-21)