/*--------------------------------*- C++ -*----------------------------------*\
| =========                 |                                                 |
| \\      /  F ield         | OpenFOAM: The Open Source CFD Toolbox           |
|  \\    /   O peration     | Version:  v2012                                 |
|   \\  /    A nd           | Website:  www.openfoam.com                      |
|    \\/     M anipulation  |                                                 |
\*---------------------------------------------------------------------------*/
FoamFile
{
    version     2.0;
    format      ascii;
    class       volScalarField;
    location    "5";
    object      epsilon;
}
// * * * * * * * * * * * * * * * * * * * * * * * * * * * * * * * * * * * * * //

dimensions      [0 2 -3 0 0 0 0];


internalField   nonuniform List<scalar> 
118995
(
153.4
1111
341.4
246.6
482.7
118.7
414.9
245.8
471.7
604.9
599
115.7
728.9
350
655.5
636.8
73.24
592.6
369.5
134.5
450.4
86.94
106.3
138.2
160.2
20.08
55.28
1.821
2.29
48.06
0.8221
26.62
0.01546
1.944
43.08
5.239
7.162
0.5808
2.625
0.6065
2.438
1.024
0.01821
4.064
0.9198
4.409
3.67
2.667
1.014
1.749
4.17
4.213
0.7791
1.989
0.3151
3.631
0.0593
1.91
2.312
64.21
4.324
0.3404
0.6982
9.574
0.02146
4.51
108.4
0.5156
4.662
2.616
4.326
1.124
0.1515
74.29
29.01
1.831
28.41
2.267
10.24
5.409
0.9469
0.5947
0.1493
8.23
0.05441
0.02686
4.101
0.2473
4.512
0.9073
0.01826
2.801
0.02554
3.121
0.03577
4.965
8.193
0.02055
2.739
0.8463
0.01701
1.087
0.6143
5.861
19.11
0.1932
6.563
0.3523
0.2117
0.01797
0.05454
4.917
1.213
0.834
1.183
8.943
3.026
2.92
0.2454
0.004494
0.036
36.83
0.4989
1.023
0.04818
0.4571
0.01553
0.002232
0.002212
5.267
0.02543
0.002015
1.227
1.475
0.002076
0.002065
0.799
1.725
0.1987
0.005835
4.133
0.01509
1.016
3.891
0.125
41.33
0.7443
1.807
0.8829
0.01436
0.5053
186.6
74.24
5.229
0.6833
3.418
0.6703
1.933
0.08605
4.462
1.197
268.3
1.028
1.635
0.06997
0.03024
1.76
5.641
7.821
1.212
2.623
2.629
6.934
0.3356
0.01736
0.07936
0.3177
0.3255
2.023
4.603
24.63
2.2
0.5655
15.68
3.313
0.7051
31.61
0.02431
0.7141
0.01811
1.205
0.02053
0.7214
3.706
1.188
97.16
1.343
0.01296
5.106
67.56
0.6923
3.615
0.2453
1.378
1.015
0.5689
1.98
0.03446
9.589
1.319
9.207
0.677
0.01963
0.3858
2.598
396.7
0.01373
0.6227
0.3831
6.514
15.92
1.158
0.02518
1.985
0.957
5.249
3.391
2.049
0.02803
4.127
1.268
0.01537
0.5863
1.142
0.1749
9.208
0.4582
2.165
2.509
7.277
3.966
4.437
3.941
1.317
1.927
0.1265
0.02589
0.1223
1.175
0.1116
0.9357
0.469
0.3934
0.8781
0.7812
9.607
0.02537
0.01621
4.844
0.013
2.02
0.005843
0.9055
1.442
0.9121
11.18
2.187
2.517
1.159
2.978
5.802
12.18
0.1901
0.6027
5.098
3.424
3.392
2.347
2.003
10.07
0.9913
57
5.246
1.162
0.73
58.76
30.29
0.008217
0.5792
1.134
0.01707
0.01992
2.484
1.315
0.847
1.001
0.7567
0.8
3.305
2.721
1.084
1.764
43.27
4.079
1.17
56.74
0.01634
0.1754
0.5038
65.96
2.776
0.9644
0.01902
0.01876
1.742
4.282
0.7124
0.01937
0.01918
8.504
0.3164
0.01737
0.3255
0.00202
9.931
2.525
0.05251
2.479
1.026
0.9776
0.006803
1.412
0.06728
1.094
0.02842
0.6053
50.97
1.1
0.4173
0.6742
1.559
0.6292
2.151
34.02
3.058
3.939
0.1987
0.002372
0.006018
10.66
7.293
7.892
0.9845
1.461
1.237
1.099
0.3969
0.7967
0.6873
0.03434
0.07001
0.01279
0.04857
4.622
5.123
1.39
0.7236
5.133
2.119
0.001788
0.5532
0.6133
0.4831
0.665
0.7338
0.0165
2.185
0.1221
0.6572
2.135
2.102
4.252
0.9328
3.563
3.513
2.889
2.223
1.087
0.3519
2.545
0.1199
4.468
0.8071
0.03156
9.521
0.6242
9.404
1.407
1.142
0.02188
8.996
0.03599
2.748
10.56
0.01053
6.442
2.177
2.656
7.598
2.094
0.03956
0.00227
0.07018
1.486
0.6066
0.9631
1.36
3.77
2.112
0.0007955
1.837
0.02404
1.64
1.279
63.37
0.06542
12.82
0.5796
3
0.03538
1.713
0.03576
1.392
0.4099
0.7665
0.03409
1.584
1.004
0.01464
5.193
3.043
0.03408
0.7082
34.22
0.011
1.54
2.702
2.198
5.633
5.238
5.141
2.1
0.001817
0.04645
0.01557
0.8389
0.3999
3.224
0.02086
2.636
4.084
365.8
0.4547
1.642
2.034
1.189
2.251
0.02053
0.01796
0.009353
9.167
1.117
0.5661
0.7569
0.03207
2.769
2.682
0.02884
23.3
1.117
2.106
5.206
2.131
1.449
2.484
0.01931
1.383
0.08105
8.106
1.622
6.525
0.0007594
1.147
0.36
0.04373
0.9229
0.01681
1.398
8.843
1.903
1.548
1.279
0.2985
0.621
4.108
3.353
0.01805
0.9655
0.9788
6.988
7.039
0.5721
5.498
2.943
12.89
0.02183
0.001478
0.0008947
0.9257
0.3364
17.86
0.0009033
0.08501
3.285
2.788
0.5493
1.806
1.672
0.03796
5.485
1.122
0.01872
8.335
0.9146
1.945
0.2945
1.229
0.3421
0.001543
0.4343
0.001507
0.7248
16.51
40.3
0.7695
22.72
0.4154
1.273
1.533
1.41
0.3126
0.009767
0.02418
1.068
0.008146
1.331
5.898
0.7942
1.185
1.925
26.38
12.98
0.01369
0.01381
1.791
0.001599
4.974
0.7512
3.111
43.57
3.263
52.76
1.034
82.07
0.1047
2.163
0.02901
1.322
0.03445
0.7817
0.01816
0.06444
2.218
2.418
0.9298
0.7306
1.274
1.227
9.82
0.01467
0.4079
2.053
0.3184
2.087
0.01967
62.41
3.803
4.579
1.42
0.5549
1.838
3.803
1.525
1.72
33.53
0.4836
2.09
5.439
15.9
0.001453
2.289
0.7158
6.749
0.1915
9.284
0.5134
1.004
0.897
0.3716
0.2298
0.0136
0.4033
1.503
1.382
0.5019
3.259
0.002231
0.01341
0.002126
0.1376
0.5715
0.4488
7.989
8.905
5.772
4.4
2.794
1.033
0.05381
0.4102
1.55
2.892
0.06701
2.091
0.001479
0.6483
0.4162
9.116
6.771
0.4935
0.01761
1.063
62.25
3.02
3.977
0.0007299
1.566
0.00888
1.325
7.384
0.0265
3.741
1.214
19.93
0.6519
2.938
4.519
0.5652
0.01765
2.679
3.759
1.584
4.061
1.603
1.283
0.1336
12.73
0.2816
3.268
9.267
0.6193
4.518
0.8418
1.694
8.729
0.9518
1.354
0.7647
0.3716
4.871
0.02925
0.9447
3.13
4.357
118.5
0.0007215
2.012
0.638
0.01422
0.7337
1.227
0.4952
0.8299
2.242
13.2
8.82
1.635
4.153
1.231
2.231
0.4684
0.0008431
0.04388
3.052
0.8386
0.07811
0.1067
3.197
4.076
0.03301
0.6255
1.483
1.645
0.0738
2.109
0.2804
2.621
0.0706
4.059
4.963
7.213
1.72
0.01423
0.5697
0.9539
7.682
0.001122
0.001039
0.001043
1.79
6.296
0.4476
2.118
5.46
0.02749
5.285
8.816
47.45
0.9188
0.02867
0.8012
5.265
0.02089
5.717
6.511
16.49
4.26
0.3956
4.032
1.631
0.5419
0.01741
1.871
0.0007176
0.027
5.882
1.366
0.02285
0.07419
10.43
5.196
1.783
0.7065
7.915
0.4451
0.7577
7.25
0.01356
0.4379
0.8206
0.5017
2.955
1.195
3.318
2.875
0.319
0.71
11.54
0.4559
4.115
1.789
1.538
0.6425
0.02032
3.934
0.037
0.2006
0.001118
64.31
3.975
1.591
6.885
47.17
0.03025
1.37
2.273
1.405
1.47
7.197
1.281
1.486
47.84
3.526
1.532
1.371
1.074
1.793
0.01016
1.721
1.664
8.365
0.3354
1.523
0.5844
0.6222
32.85
0.0006313
30.49
5.345
0.01471
4.101
1.798
1.557
37.02
33.74
2.165
4.806
1.564
1.483
9.108
2.445
6.713
2.576
0.01808
2.809
1.319
1.925
0.7555
0.7558
0.7243
0.3337
0.026
0.8697
4.125
0.01861
3.999
0.07325
1.702
9.049
0.01581
3.079
1.662
0.0223
0.03693
3.236
7.662
0.01659
0.01642
0.604
4.401
10.17
9.485
29.37
0.2268
2.472
10.4
2.014
33.65
0.9425
7.481
4.294
0.3568
0.6718
0.3953
0.02019
0.001291
0.0009484
0.000947
6.713
15.42
0.09017
1.446
5.336
1.347
1.165
0.06239
0.03287
3.684
2.643
32.14
2.715
6.974
0.1584
2.141
1.582
4.035
0.07838
3.65
2.085
1.34
0.857
0.01509
7.647
3.088
3.32
0.01676
1.622
0.0007115
2.609
13.11
0.193
2.824
1.013
38.69
0.3837
2.025
0.06698
0.02819
0.8216
0.8922
2.763
0.8895
1.922
1.509
7.391
0.1805
4.309
0.9535
0.02397
0.01731
0.6687
2.241
1.206
2.323
30.13
9.088
1.498
8.897
8.473
32.67
0.4055
0.772
0.7754
92.41
0.01222
1.517
4.59
0.3279
1.834
0.8631
0.02846
0.305
1.081
11.12
0.02739
0.01511
4.742
5.307
4.127
5.078
0.4376
0.1177
0.003691
5.267
1.025
2.376
0.3247
2.456
0.06869
0.8578
0.07215
1.36
0.622
1.187
2.564
0.2331
1.371
11.3
1.96
0.02886
3.273
0.7624
3.286
0.6902
0.001861
0.3799
19.18
0.04972
2.154
1.111
20.59
1.095
3.236
0.02971
0.01838
0.5623
0.9955
2.956
0.336
1.398
3.36
0.01916
0.6625
1.187
4.986
6.535
0.2471
4.169
2.133
0.005273
0.03517
4.97
1.126
1.458
4.768
30.79
4.222
1.261
0.03264
0.9343
1.675
0.03831
5.166
0.6609
0.01555
4.13
0.02321
2.858
1.644
1.241
4.536
1.654
0.4164
0.6173
0.02115
25.88
2.315
0.01677
11.36
3.196
1.382
2.272
0.02053
0.03736
1.555
0.8755
13.28
0.4903
9.179
0.7924
2.063
13.08
3.256
1.074
1.908
2.898
1.691
0.8023
3.909
0.009508
1.844
0.7251
1.881
17.15
0.2508
1.808
6.003
26.68
1.473
10.89
10.97
0.01171
2.965
2.231
2.992
1.942
1.23
10.93
3.295
0.01828
2.517
11.04
0.3781
2.536
0.0009007
0.01813
0.5088
7.547
19.76
2.832
3.978
0.6433
0.003485
0.4939
0.02049
1.695
0.07635
7.512
0.3902
0.6321
27.93
0.005348
3.396
0.001158
0.7045
6.072
0.7169
6.346
43.69
5.639
1.566
0.9155
0.8454
0.3128
0.138
8.352
60.01
0.07056
0.003972
4.631
1.561
6.221
12.62
0.7225
55.29
1.537
1.061
0.5821
0.5163
1.469
3.693
0.5053
6.974
8.69
2.262
57.68
5.344
1.57
5.578
2.364
9.817
6.974
7.369
0.7495
0.746
0.6093
1.122
0.9183
0.8845
0.1901
36.71
0.03001
5.781
0.6307
3.154
1.164
4.028
0.03196
0.0172
0.09177
4.521
0.03699
3.881
0.3027
0.4257
0.006811
22.84
1.027
3.356
0.002093
2.014
15.55
4.312
2.439
20.91
0.0006891
0.0006935
1.34
0.02016
2.976
0.5922
0.08486
8.85
0.3285
2.625
0.6791
2.581
22.63
0.0009031
1.571
0.1072
18.18
1.562
2.512
0.5631
6.921
1.512
1.388
0.1775
17.45
2.867
4.259
2.109
42.29
1.389
41.46
0.00159
0.7298
0.4916
2.924
2.69
0.03066
0.4542
4.347
1.567
0.93
5.54
10.11
0.5567
0.8701
5.109
0.3343
2.268
0.02219
2.341
2.415
0.5092
0.8257
4.112
1.329
16.52
0.8008
0.7581
4.612
0.01747
1.221
0.01973
3.889
0.5834
5.761
17.52
1.147
6.758
0.3315
7.285
0.02017
0.1715
3.225
2.424
1.385
0.05374
0.05374
0.04644
8.948
0.8119
6.171
6.051
3.173
0.9553
0.01283
0.01055
10.52
1.74
0.001538
6.874
0.5328
3.157
0.07043
2.995
0.07522
0.07218
1.357
0.02469
1.514
0.3705
218.7
0.4861
0.2602
3.426
0.01776
2.119
1.366
2.574
58.01
0.6641
3.173
0.01686
2.998
0.006519
1.07
0.8311
1.47
0.08358
11.8
0.02096
1.942
24.76
0.6185
20.89
6.582
1.619
0.02142
0.8186
0.9488
0.1894
1.409
1.343
1.783
1.876
10.06
8.344
17.87
0.3966
0.2076
0.9666
5.497
0.04427
18.41
0.5234
2.706
2.664
11.14
0.4516
8.708
4.922
23.09
1.424
1.048
0.07102
2.637
0.002507
0.7453
2.021
3.48
7.631
0.2367
0.6354
0.126
1.048
1.482
0.6937
2.087
0.2747
0.538
0.02447
0.01694
0.6513
0.01382
0.03115
2.187
1.508
0.02179
0.3272
0.1157
1.78
0.5305
1.086
12.48
1.648
0.003088
0.03644
0.05594
0.008193
1.109
0.5152
3.351
29.86
187.1
0.01558
1.634
0.031
1.497
0.02506
1.858
0.3371
0.01893
1.069
0.3708
1.009
0.01586
0.008717
1.17
0.01662
0.377
0.6536
4.709
2.382
3.192
2.573
4.842
0.3636
0.2714
0.1781
1.723
0.4194
0.1735
0.01797
0.4772
0.7375
2.202
0.008015
3.437
5.554
2.931
0.03604
0.04645
7.687
0.02231
9.912
1.444
0.5106
0.1731
9.785
0.7623
1.238
27.93
6.781
0.9005
1.16
0.02966
2.158
0.3976
0.651
2.112
0.9983
0.01647
1.778
2.947
3.989
8.321
1.59
3.727
26.96
3.105
0.3444
0.212
1.063
0.01067
16.28
53.04
0.3823
2.97
1.157
0.5825
1.664
3.372
0.01195
0.1014
1.434
3.256
1.347
1.907
0.0194
4.945
0.727
3.626
23.69
6.185
1.747
0.0009056
4.303
1.772
7.491
1.428
57.63
3.019
0.4751
0.313
3.263
7.1
0.7465
298.8
1.071
1.61
3.782
1.011
0.03107
0.9189
2.264
0.9606
0.09346
16.95
5.077
3.105
5.721
0.9601
2.355
11.95
1.849
0.6858
1.088
9.097
4.433
0.4072
0.02961
0.9274
1.305
1.209
0.004386
19.26
0.701
0.001647
0.6315
3.422
5.548
7.897
0.3408
0.8195
1.804
3.771
0.01484
3.853
17.16
0.3389
34.97
0.02425
12.29
2.656
1.18
0.5141
2.559
0.03989
0.2582
0.5727
0.5872
1.832
0.8924
0.001652
4.795
1.914
2.366
1.356
0.4117
0.01958
0.459
0.7162
2.889
4.619
5.14
4.127
1.605
0.01279
13.52
0.8909
0.1603
2.003
3.457
1.747
1.234
4.389
0.5016
0.6301
1.327
0.09774
2.327
0.2556
0.001787
3.375
1.291
0.3439
2.836
0.09767
0.01729
0.8924
2.5
0.9743
3.54
0.7111
4.553
3.941
2.478
3.042
3.489
18.68
4.087
11.58
0.362
4.022
0.04412
0.002981
2.736
4.322
1.904
1.863
2.698
0.8441
5.858
2.863
1.31
7.81
5.199
0.0188
0.044
0.02775
8.598
6.063
1.611
23.98
0.01803
0.8614
2.102
0.02162
3.007
0.4955
9.893
0.631
0.6088
1.29
3.846
2.034
3.02
0.01634
3.546
0.5357
7.452
0.03311
0.01881
0.02026
8.175
1.077
9.243
7.878
6.116
0.5872
2.277
0.02133
0.02093
7.187
2.146
114.1
3.305
0.8783
0.3037
0.02676
0.0273
2.616
2.056
0.08354
0.2344
2.454
3.972
0.6572
0.6959
0.03734
1.072
0.7799
8.894
29.6
1.39
1.186
7.323
0.7386
2.22
0.9447
4.22
19.05
0.8217
8.83
2.972
1.624
18.51
5.708
0.7856
0.9545
17.06
0.6123
0.8942
0.2528
0.0182
0.2223
7.153
26.21
0.7886
4.111
3.59
2.356
9.894
0.04602
0.2264
5.169
1.236
1.046
0.001173
2.538
4.112
1.196
30.56
0.9753
0.9609
5.375
0.001155
2.646
0.7026
0.7282
0.03221
5.558
10.12
13.07
3.387
2.635
2.457
4.305
0.04745
12.62
2.306
1.272
1.145
10.57
5.574
0.2945
0.08484
0.6451
0.0153
0.343
4.939
2.179
11.26
1.384
1.728
0.00745
0.007426
67.78
1.37
6.516
3.868
1.438
0.04017
0.02028
0.04201
3.441
0.009102
0.0008493
37.79
0.04482
9.54
0.4666
0.4639
0.4665
2.654
1.114
0.00281
17.58
1.25
0.7675
0.02593
0.82
1.464
5.062
3.82
1.023
0.5675
0.2082
1.159
4.959
2.784
0.1376
0.6188
0.4163
1.735
1.523
3.877
3.868
19.62
21.75
0.9499
6.388
0.06021
0.04073
8.454
1.838
5.233
1.001
1.595
23.66
4.425
0.02132
1.778
0.4256
3.72
3.962
8.13
0.03159
0.02338
1.075
0.237
1.412
0.4739
2.966
0.003078
0.04828
0.01477
1.477
0.03628
0.5679
305.8
1.434
9.761
4.587
51.23
3.289
35.92
3.416
30.87
0.5758
2.673
0.2349
0.2116
1.469
0.0601
0.1354
3.214
0.03856
1.51
0.01853
1.152
2.735
11.05
15.2
44.21
3.214
2.092
2.154
0.001508
222
1.713
6.324
0.0241
2.09
2.881
8.77
0.01858
5.855
13.87
0.03142
3.368
5.202
4.583
3.328
2.353
0.1468
2.625
0.003719
0.6472
1.82
3.144
3.867
0.8265
1.688
4.867
0.7336
387
0.325
4.744
0.0316
0.0219
1.736
2.051
0.01851
1.399
1.355
3.476
7.565
1.619
0.4052
0.02915
1.552
1.296
28.16
0.006076
0.1282
1.661
0.5561
2.187
1.412
10.06
0.004438
0.9489
0.5144
3.561
1.974
19.47
124.9
1.045
0.01522
1.969
0.2335
0.7014
0.2597
0.08492
1.744
0.5976
15.74
16.05
8.873
0.08501
0.2701
5.705
1.802
0.7162
0.02504
26.07
1.092
2.029
19.57
2.062
12.01
5.599
0.01137
75.66
1.344
2.16
0.5118
2.325
0.0008622
0.01712
4.3
0.5654
0.2842
0.003802
27.64
2.422
72.56
0.187
1.356
0.374
10.96
2.389
2.749
1.562
1.266
2.563
0.08754
10.17
3.923
29.04
2.368
4.033
5.075
0.1941
0.1941
1.221
10.89
0.4388
3.778
5.202
3.476
1.774
0.3304
99.19
0.018
0.9553
0.02478
1.408
1.853
0.06277
0.03995
0.5562
1.645
0.5193
3.761
7.046
5.338
0.8201
8.974
1.061
4.454
3.586
3.788
1.357
4.617
0.003546
11.33
2.11
0.5232
1.778
0.03184
1.381
0.02427
0.07015
1.477
40.36
5.305
7.918
0.5283
28.54
0.2687
2.334
0.03606
2.868
2.051
1.614
1.488
0.9944
0.01819
0.4727
0.4319
1.486
1.086
0.01031
8.106
1.201
2.168
3.493
8.818
1.163
0.6301
1.53
0.001057
18.61
0.01426
0.5127
2.507
1.495
0.5728
0.9734
0.03031
7.097
2.895
4.995
0.02093
10.01
2.803
1.993
9.379
12.28
5.226
5.582
0.1832
7.488
0.8588
0.03868
84.37
2.262
0.03701
2.314
2.47
23.44
0.4372
0.03741
1.56
6.14
0.6943
0.5557
1.934
10.52
0.3016
0.6832
0.005312
2.49
1.085
13.02
1.558
3.801
0.01825
6.19
0.163
0.6927
1.77
4.578
2.142
3.384
0.8034
3.948
0.6349
1.962
0.2227
6.798
0.03157
5.265
0.7707
6.47
33.56
10.12
2.682
2.609
10.57
4.101
18.89
0.3704
1.089
8.942
0.002495
2.301
19.26
4.755
2.988
10.18
2.508
9.822
0.005885
69.77
1.204
0.5478
3.315
5.795
0.02331
65.41
0.5014
4.634
9.299
1.287
11.12
3.914
0.03448
0.3509
0.7829
0.02237
0.00072
1.697
0.3892
16.17
9.655
3.773
10.47
5.265
4.019
1.777
0.6018
2.152
0.6434
0.962
11.73
0.002865
0.01833
2.149
14.02
1.295
15.24
0.9891
1.948
0.7435
0.01904
3.663
0.002971
9.705
3.534
0.4403
1.512
17.33
7.165
0.393
6.602
0.5545
2.436
0.8931
0.006374
0.1244
4.91
0.01819
7.034
0.1349
3.58
0.1385
1.2
188.6
39.68
4.976
4.987
0.208
7.778
0.8835
0.549
1.505
16.41
0.03293
2.437
10.53
0.01785
22.61
0.8506
0.1097
3.298
0.1722
37.52
10.75
0.05119
1.489
1.22
0.8267
0.3761
0.1105
2.055
2.72
0.001343
0.5162
2.663
2.737
11.82
0.1938
22.14
1.46
0.02746
18.96
3.001
1.858
0.05121
0.05133
0.0006404
0.8032
1.433
9.829
1.955
0.03817
0.04071
17.21
5.268
0.5852
0.7369
0.02355
0.03352
0.9914
8.966
0.6073
0.3741
0.7512
0.01516
0.5101
30.47
0.03901
46.1
0.02033
0.02982
0.01712
0.9106
0.01172
0.9458
0.0195
32.19
4.537
1.728
6.584
0.4941
0.9607
23.5
1.051
6.464
1.468
0.3013
9.054
3.871
3.636
24.44
1.147
49.85
0.3483
1.49
2.225
0.3547
0.7534
4.586
0.5019
0.7968
13.04
11.04
0.007247
0.4174
0.1348
0.05903
1.365
3.112
0.1991
36.21
1.322
0.0891
1.931
0.9001
40.79
2.078
3.859
13.24
8.458
0.02232
0.9563
1.535
1.326
1.108
2.531
1.016
1.782
0.6585
4.355
9.646
5.571
6.919
2.255
0.7945
15.87
2.438
1.511
4.531
4.438
2.383
5.6
0.3251
2.875
0.02535
1.557
0.05513
0.01436
1.589
3.807
2.484
0.02116
1.213
0.5072
11.68
0.07533
0.07533
4
3.092
69.88
4.013
3.516
3.216
4.465
11.22
0.08738
0.4837
1.737
0.02745
10.63
41.06
0.3687
0.3327
0.1293
2.231
4.235
0.0006759
0.002034
1.944
7.963
0.01507
0.01506
3.848
7.27
3.796
0.7019
0.4216
0.01502
0.903
27.4
1.444
2.989
7.843
21.5
2.661
18.84
2.581
1.211
14.98
1.2
1.225
0.01701
3.54
24.41
5.463
2.258
0.7408
0.1021
27.1
8.676
0.6477
11.53
2.818
1.262
0.01097
4.123
32.84
7.872
0.5996
6.734
3.332
32.33
2.563
3.516
0.5772
0.03828
6.212
0.00369
1.09
2.219
8.632
0.1557
1.097
3.057
0.4013
0.2525
6.61
15.34
2.611
0.06997
2.171
0.01595
1.405
1.722
8.744
1.187
3.687
5.222
2.167
0.07308
0.03589
12.11
2.388
1.346
11.25
7.619
0.2548
1.509
1.036
0.8339
4.424
0.9983
7.986
3.358
6.543
1.748
0.002386
58.26
0.002097
6.59
5.681
5.892
0.00467
0.3805
1.66
44.68
2.684
3.829
0.9022
2.315
1.619
29.31
12.96
2.27
5.299
10.04
1.629
2.77
69.04
2.368
0.6521
1.105
0.01924
0.005374
1.052
2.329
0.02026
52.61
31.09
0.03159
2.765
1.007
18.62
0.8445
2.891
2.023
0.1143
2.07
5.159
1.101
0.01594
1.654
2.845
2.27
2.568
1.281
2.655
5.474
11.63
0.5278
1.662
11.93
0.002854
0.001037
1.262
1.733
0.02113
1.333
3.563
0.7799
3.31
2.76
1.562
0.002923
0.06017
0.01912
0.01399
2.058
0.01487
15.79
31.04
0.06518
0.6706
3.638
2.927
6.583
2.557
2.472
0.02333
19.5
0.03119
61.24
3.214
22.86
1.475
3.938
7.424
2.264
0.0206
0.6983
1.749
0.4453
32.66
0.7778
1.379
0.8804
4.42
1.164
6.239
2.175
2.725
0.001025
4.56
0.02204
0.001295
0.2606
0.01471
0.2123
0.6758
189.6
0.006724
1.294
2.831
0.01749
0.01939
0.8342
0.3285
1.218
2.431
4.424
0.4705
0.9853
0.006757
3.349
1.419
2.518
0.02266
1.349
67.55
4.247
0.6906
0.03973
0.03956
0.01724
106.8
2.132
1.471
0.0306
5.363
0.01538
1.041
0.07315
0.01872
0.8758
1
1.256
0.5749
3.578
6.399
1.584
9.537
0.01693
4.713
1.161
0.000993
1.064
0.5724
0.842
6.324
6.565
7.673
5.607
3.533
5.276
2.261
2.254
0.3697
6.935
0.8243
1.066
1.126
0.2867
4.07
3.036
0.02133
1.372
10.59
1.914
5.7
1.452
2.64
2.635
0.8096
2.229
0.01525
34.38
0.7893
30.03
1.477
5.619
1.536
0.2958
1.751
1.038
4.498
1.223
4.321
3.44
0.9592
0.03849
0.03838
0.1051
0.3579
0.2489
1.676
3.301
4.88
5.829
0.8101
1
19.63
0.6586
0.9503
0.04459
3.362
3.421
0.2377
7.58
0.9909
30
28.89
0.6426
1.606
0.08731
5.221
0.9993
0.8164
3.128
0.00919
8.165
22.31
0.00189
12.37
4.044
5.091
4.103
0.6829
0.09893
13.45
0.6963
3.792
1.578
1.408
1.736
32.94
3.857
2.344
0.01746
3.672
44.7
71.48
11.87
0.4239
1.065
0.02248
0.0776
0.03334
0.01755
0.05336
0.1796
4.247
12.83
0.7214
0.684
1.507
1.991
3.196
5.051
0.7069
0.6224
1.11
0.8738
8.678
0.07295
0.02099
0.06643
0.004999
0.01935
1.855
15.15
0.05621
21.71
0.06822
2.183
0.07745
2.412
2.457
4.534
3.694
0.003911
0.4939
0.0327
1.446
3.118
1.018
0.03068
6.376
0.1593
0.01615
2.123
3.305
0.06422
0.1843
0.4129
2.215
0.2462
0.04085
0.01932
1.617
0.02319
3.994
2.107
1.535
1.532
0.3893
1.272
43.51
0.8103
0.9006
0.8051
0.7019
2.583
0.008584
1.042
0.001694
2.421
1.648
0.4055
4.316
1.859
0.3295
13.22
3.41
0.01939
0.194
15.99
0.02584
3.529
0.08228
4.75
0.9285
2.74
4.724
2.301
3.355
3.435
23.26
1.203
2.802
0.03559
4.367
0.7927
0.05126
1.418
2.11
1.545
6.483
0.6577
3.834
1.23
0.361
0.02862
0.8204
6.041
3.284
0.01593
0.7951
47.96
1.998
0.006005
1.501
19.23
0.4166
1.773
1.807
0.02515
1.476
1.009
0.01855
10.51
1.607
0.6354
0.3456
0.02311
4.264
2.347
9.491
14.65
8.969
6.445
1.054
0.1545
3.783
18.93
2.674
0.8955
3.291
4.241
2.12
71.04
0.9416
2.735
4.01
3.105
5.54
0.4639
0.01788
0.03516
2.815
5.703
1.457
1.163
0.1898
6.526
0.8898
2.005
0.1944
0.984
34.72
1.341
0.04727
15.9
0.08088
0.973
0.8224
4.831
5.109
0.02066
2.329
4.893
2.312
2.216
0.9121
1.483
2.8
2.801
1.45
0.03592
4.007
0.424
0.1171
1.329
0.04865
16.17
0.7039
1.967
1.3
152
1.633
3.322
0.4852
1.314
2.07
2
0.02197
4.161
19.35
34.4
5.166
4.717
2.43
0.6427
2.75
5.359
7.536
0.1006
0.02623
4.934
1.208
4.504
0.09299
28.72
0.9357
0.2928
0.04733
0.2153
1.514
4.264
1.218
13.96
3.819
0.01461
0.3076
3.371
1.723
14.51
0.6877
2.539
0.6638
9.915
0.3849
0.0187
6.996
2.156
0.8441
25.82
16.14
2.992
1.022
0.1863
1.211
0.5815
1.743
1.116
4.25
0.5614
0.2856
2.233
3.264
0.8102
2.916
0.001405
0.001402
1.081
2.824
4.293
1.702
8.995
6.493
1.977
3.549
1.639
1.056
2.866
5.86
0.09199
12.72
0.5747
4.792
1.031
0.01415
1.379
0.9116
39.16
0.02626
41.81
79.51
0.02113
1.19
8.055
0.8467
0.8219
0.3177
1.493
5.44
0.3272
1.488
3.37
21.34
18.38
0.6692
12.46
15.99
0.0645
2.068
2.396
0.02564
0.01603
0.1315
1.112
0.4685
1.356
1.489
37.81
1.34
2.228
0.3589
0.01491
2.134
0.008445
124.6
3.622
0.392
1.115
2.051
8.165
70.38
0.7429
1.024
1.751
0.1538
1.163
4
0.1483
0.02414
0.6782
0.7764
0.6304
3.083
1.264
2.585
4.117
8.566
0.00163
2.284
3.974
1.472
0.01648
7.848
0.6633
0.6307
3.237
4.857
2.835
27.51
0.01976
3.391
5.197
1.334
0.7625
0.005482
1.093
33.92
0.6163
0.7406
2.856
3.562
1.536
0.7486
8.705
0.6542
36.61
0.05602
8.058
2.767
12.55
0.02978
0.5093
0.04518
0.3195
0.01862
0.03022
0.01169
3.826
2.098
0.8055
3.264
0.006142
0.01922
7.667
0.01916
0.8174
0.02222
40.8
21.37
42.8
3.475
0.0006276
5.505
0.1586
3.696
12.85
0.01599
0.3576
0.02362
0.001282
2.236
0.03337
6.633
3.233
0.005556
1.085
2.997
5.099
2.217
0.01688
0.8367
1.015
1.548
6.132
3.067
2.014
29.69
11.42
0.355
0.7756
1.855
1.735
0.7934
0.6273
1.602
1.857
1.751
0.7591
8.89
1.289
0.479
3.419
4.42
0.001721
2.929
0.009538
0.009573
0.04018
78.89
1.068
0.7454
2.961
0.01267
0.02472
13.63
2.561
7.524
2.036
0.6041
0.06819
1.734
0.7498
2.148
2.048
1.764
3.839
0.01721
0.4055
0.5005
0.5078
1.157
0.1934
12.83
0.4095
1.551
28.22
2.073
3.371
1.394
206.4
1.426
0.3205
28.36
0.5395
0.4661
4.371
0.5563
2.083
43.18
0.03837
0.0161
1.995
3.634
3.898
2.475
0.997
9.255
2.182
0.5707
10.43
3.147
1.72
7.695
0.08591
6.335
0.7132
1.171
3.649
558
0.8507
0.003827
1.031
4.1
0.03213
0.6265
2.342
1.602
1.675
0.2571
0.9721
0.3183
32.72
3.245
38.02
1.177
89.96
0.02987
1.513
1.48
0.4613
0.2204
0.002
63.34
0.6169
0.001533
2.589
1.424
14.9
83.28
7.321
0.03032
3.494
0.009217
0.3172
0.0356
0.7102
1.532
1.528
5.471
0.1149
10.96
0.02174
0.06164
0.01512
6.496
1.173
1.448
0.01941
1.799
1.608
17.6
0.6082
0.0121
5.35
1.057
5.941
28.7
8.254
0.02725
0.1724
1.077
4.159
0.03936
1.649
6.272
5.388
2.886
0.6712
9.342
0.7797
0.4238
0.636
15.7
0.02716
6.066
4.277
5.467
0.3879
2.631
1.005
0.8443
5.54
0.01363
37.36
9.355
7.648
0.0228
3.64
2.766
5.153
11.21
4.75
0.1075
3.705
28.79
17.29
0.5767
4.153
0.9138
0.05968
1.127
0.09116
0.01958
5.12
0.3134
0.001462
2.281
4.166
0.0237
2.628
0.0154
0.3086
2.306
0.7298
17.67
0.001482
0.7742
0.7968
0.927
7.493
0.04476
2.012
0.1965
0.106
2.482
0.9826
0.02115
0.00409
1.003
3.021
13.8
34.25
3.362
0.4434
0.01285
3.68
0.2934
2.14
1.411
0.02047
0.36
0.5498
0.01689
0.01795
13.79
0.1928
0.001798
32.93
1.479
0.9898
3.11
0.005502
0.01633
3.146
0.3661
17.27
1.591
0.0899
3.282
2.509
1.751
1.22
1.048
1.503
8.926
8.708
2.873
6.04
5.357
2.638
3.853
5.877
0.7514
1.205
103
3.563
1.247
7.378
0.9046
0.01298
1.917
7.643
0.08714
7.339
11.29
2.76
1.322
6.943
1.92
0.4224
0.03294
2.688
0.003416
4.016
1.505
0.007488
0.007537
2.003
0.6185
31.91
21.93
0.4915
2.811
1.861
6.44
1.055
3.865
0.04585
1.938
32.91
3.538
0.02575
3.012
0.4508
2.725
0.009609
6.403
1.426
2.601
1.795
29.16
31.44
0.09114
3.132
2.04
2.584
6.305
4.531
29.38
4.649
0.1021
0.01872
10.03
0.01898
0.8103
2.559
1.64
4.598
3.081
1.613
0.01961
2.124
1.118
1.141
7.875
0.5573
2.091
0.6915
0.005068
0.9483
0.5715
6.682
5.993
1.738
4.144
5.748
4.372
0.0864
3.597
5.868
0.1007
2.062
0.8916
2.374
0.7008
1.245
0.08122
0.01034
1.881
6.336
0.01671
5.828
0.541
3.003
1.445
0.4483
19.04
5.464
5.007
0.5451
35.79
0.4352
0.03279
0.003735
2.638
3.488
0.7425
4.826
0.1208
2.113
7.012
10.44
4.188
0.0007085
1.558
1.9
0.6349
6.371
0.7388
0.9545
2.162
0.001054
2.429
0.0168
2.753
3.527
3.965
0.02208
2.227
0.663
2.904
0.01636
0.02801
0.9377
0.01757
14
1.561
8.885
20.81
0.0005984
1.707
18.4
4.692
0.147
1.278
2.4
0.01191
4.278
0.5896
4.003
2.878
324.1
1.091
0.3279
9.774
0.7376
5.056
0.5964
5.335
65.38
0.8995
2.677
4.019
6.559
7.318
0.01628
0.8147
0.4543
5.651
1.346
9.679
31.31
3.162
0.1585
0.3825
0.7991
31.63
0.2703
2.939
12.73
1.28
0.0452
0.5775
0.01571
0.9226
1.94
0.3495
2.068
7.609
3.752
1.89
1.879
1.452
0.2723
0.2863
1.573
0.03545
2.732
11.12
7.712
1.409
0.7424
0.01826
0.005947
18.66
0.7176
3.531
0.02199
0.9279
1.552
2.798
0.7607
5.19
0.01084
0.9915
77.83
1.049
0.002956
0.4031
1.668
0.4986
7.37
0.02389
0.3874
0.3655
1.48
6.338
0.009116
0.01783
1.408
1.691
0.1066
0.01886
2.418
3.634
0.0179
3.252
0.02364
0.7723
0.004222
0.1492
3.029
9.142
0.006545
26.34
0.5017
1.303
7.889
0.2729
0.48
0.7669
0.01608
2.561
0.01594
0.02605
0.1171
3.316
0.5199
4.071
4.768
0.8884
0.02691
0.1761
2.051
1.377
3.128
0.6934
1.76
0.6009
7.837
2.043
43.81
0.9951
0.02789
0.3645
5.725
14.34
17.78
2.067
1.198
6.328
0.4034
1.286
0.01547
18.57
0.1778
43.68
4.082
0.8364
0.00889
1.068
0.2204
0.7689
0.691
6.723
8.049
0.0252
0.5649
0.02525
0.2174
0.0009783
2.334
7.006
0.03881
1.325
16.1
5.813
1.422
0.06134
3.285
0.001066
0.6715
0.8722
1.792
12.82
1.334
11.45
10.71
0.4221
2.143
1.386
0.6915
0.02161
0.5793
3.806
1.623
1.304
0.4859
0.6757
0.5565
1.49
0.6506
3.737
25.74
3.986
2.346
1.547
3.623
0.2863
1.822
2.564
14.23
1.276
4.138
1.848
1.04
40.68
9.252
1.281
1.33
1.01
2.501
9.915
1.372
8.27
3.757
1.324
0.5809
0.08296
0.08287
0.3866
0.8652
4.223
4.567
12.7
3.046
0.7115
1.043
0.001187
4.712
2.427
0.1798
4.097
6.735
1.722
21.43
2.555
0.3779
0.0097
0.01566
38.12
0.02762
0.8001
14.71
3.979
8.884
30.43
0.4937
1.989
2.71
0.04655
3.123
0.9274
0.1029
0.8489
1.619
1.617
0.5565
0.01677
0.08175
3.474
0.01618
34.09
1.597
7.664
0.8828
1.599
0.05072
0.01855
4.883
1.863
0.581
6.06
1.962
3.121
1.752
0.0476
1.59
15.16
2.812
0.6978
0.006111
0.04409
0.07963
1.664
4.556
0.7423
7.971
1.128
0.6442
1.765
0.01808
0.9314
0.04463
1.996
8.995
0.03751
0.02289
6.256
0.4595
0.2794
5.339
4.38
3.52
1.332
2.944
44.04
0.01602
0.02103
1.941
6.295
0.0008855
5.974
0.9889
2.336
10.38
1.787
2.023
9.44
0.4482
1.046
1.295
14.86
15.78
0.3247
6.703
0.03751
12.83
4.55
0.9888
0.03591
0.8091
2.661
1.302
5.643
2.606
73.73
1.453
6.765
0.02891
2.824
4.686
0.05043
4.733
2.352
0.7864
2.26
9.631
2.684
0.03635
4.522
1.794
3.522
0.8668
13.99
0.838
10.15
2.52
2.249
0.02243
0.01448
0.3061
40.16
0.05244
0.0344
2.197
0.6582
10.37
0.5488
2.779
5.509
0.441
39.51
0.07762
1.124
5.493
0.002835
13.36
6.32
9.326
2.6
0.04528
0.5086
2.947
2.271
1.469
2.156
20.04
2.038
2.41
0.472
1.291
2.935
2.457
37.11
14.54
0.001397
0.01956
3.166
0.3854
1.277
1.123
5.454
0.2108
0.4039
3.855
0.1104
0.008511
13.02
2.037
1.316
0.06384
8.432
12.03
0.003201
0.3931
4.154
0.4178
1.19
4.121
0.5569
5.041
1.446
6.559
0.4547
3.423
0.3325
1.31
4.604
4.393
2.424
5.379
53.87
0.05846
58.33
6.444
0.5062
1.512
7.104
0.7451
0.04816
1.36
1.501
4.953
0.01882
0.0008603
1.221
0.001003
3.033
3.148
2.585
0.009178
2.52
4.17
4.6
0.1834
0.1386
3.426
2.123
1.455
2.039
1.164
1.91
0.9877
0.7714
0.9404
4.929
0.566
2.042
32.26
0.5015
10.23
2.502
0.602
0.1499
0.01889
0.4889
0.01767
12.99
2.688
2.124
0.05368
0.4957
1.073
0.1799
3.849
0.0127
5.37
193
1.33
0.7001
3.344
1.407
0.03715
0.006721
0.02354
0.05517
3.743
1.315
2.169
0.01863
0.02618
0.003494
5.793
3.014
2
0.07667
12.4
0.009925
0.05598
0.02913
3.55
0.4167
0.0006084
0.8144
0.8605
0.01452
0.01439
13.52
39.16
4.979
0.7996
2.032
1.957
0.4947
3.594
2.416
0.03343
2.458
1.987
3.532
1.713
5.703
23.49
0.2761
4.91
2.519
3.497
2.755
0.89
5.279
0.9751
2.403
0.04335
0.1554
0.4035
34.32
5.091
1.196
6.409
25.27
2.538
0.8619
0.4071
23
1.394
0.4201
3.651
2.625
0.2826
1.349
0.0964
2.71
1.153
38.13
14.08
32.68
0.08718
6.887
2.113
0.7306
0.05246
0.01604
0.7591
0.6654
1.603
2.075
0.01871
0.01684
0.001164
18.96
19.86
2.411
0.02602
1.975
0.6459
0.4922
2.428
1.059
11.25
0.01297
22.74
8.752
2.059
0.00149
0.06586
78.21
0.5961
0.1534
0.128
1.544
2.51
0.8383
0.0169
0.003277
0.9753
1.519
1.919
1.444
12.42
2.002
5.258
50.41
0.658
2.67
5.171
0.003532
1.168
3.062
0.6532
2.456
0.4519
0.001071
0.001041
2.715
1.078
3.656
22.62
1.662
0.4288
1.302
0.03317
2.001
7.47
1.149
9.718
0.5594
67.97
6.69
0.02177
0.01482
0.06643
38.05
1.686
0.08323
2.389
12.29
0.256
0.9975
0.01083
0.376
0.09085
0.01249
3.003
0.1071
2.838
0.01544
1.077
4.78
4.504
1.604
0.2986
4.127
0.1428
3.058
0.1132
0.8863
56.48
1.674
0.01879
2.602
2.744
0.03389
16.41
27.68
18.97
0.8509
1.464
5.098
1.961
0.02445
1.287
1.292
0.01994
1.784
0.9295
0.6297
0.1294
0.01133
0.6793
0.2794
1.394
0.004677
7.725
2.326
0.1963
1.03
1.156
52.89
1.978
14.18
0.4088
0.001546
0.01724
9.84
34.39
1.275
1.8
1.808
7.206
0.8374
2.024
0.07332
0.6972
2.335
0.6939
0.01371
6.901
0.01504
6.416
8.07
3.219
0.01915
1.834
1.055
0.001257
1.533
27.68
0.01229
1.755
19.11
28.8
0.6735
2.494
6.875
0.07842
9.322
0.01414
18.38
5.642
2.111
4.689
1.275
0.01855
0.02578
2.643
0.7006
3.135
0.2599
1.835
4.023
0.4758
102.8
0.001303
6.266
0.7672
1.868
1.349
1.838
7.527
0.1211
0.1622
1.242
1.385
2.514
5.868
0.9226
2.56
62.73
0.03126
2.891
3.304
1.302
9.117
1.689
0.5534
1.098
8.381
5.532
0.3617
6.14
0.5662
0.8409
16.21
3.685
16.35
2.394
4.587
1.294
1.202
0.02148
4.772
2.145
8.286
1.495
1.206
4.638
1.238
5.347
0.733
11.55
0.003506
4.96
16.84
0.0181
0.8382
23.17
0.1782
13.69
0.5915
0.4131
0.8272
0.9125
1.335
3.551
2.899
0.2581
1.057
0.141
0.04285
1.97
0.007544
13.18
0.01908
0.01767
1.362
40.1
0.09486
7.738
6.206
0.04054
18.58
1.054
3.127
4.914
0.4467
5.421
0.2303
1.705
14.53
1.382
0.3334
2.312
2.005
0.001882
2.99
2.266
26.19
0.2232
1.38
3.373
0.07871
64.13
19.04
1.819
30.95
1.406
0.03378
1.277
0.02352
2.135
0.01111
2.042
27.69
69.18
0.02667
0.8565
0.8351
0.05714
0.6457
5.825
0.7537
0.7513
13.18
7.479
63.41
5.268
0.9421
17.16
0.929
0.9845
0.4022
40.6
5.093
2.475
2.484
2.12
1.99
1.78
2.087
0.1091
0.02387
0.6271
3.031
1.341
3.644
6.145
4.294
1.818
5.185
2.485
7.143
1.811
1.287
0.5084
0.06546
0.0255
1.313
1.002
1.411
1.719
0.01187
0.3463
1.161
0.3811
4.171
1.802
61.53
5.51
13.7
1.678
8.067
14.25
4.029
0.5084
0.04363
3.201
3.998
2.731
0.7692
0.8529
2.374
0.7338
0.02148
1.333
3.631
1.091
0.02608
7.451
5.397
0.7914
1.676
1.887
2.072
0.951
3.925
0.1857
0.801
1.672
47.49
0.383
2.065
0.2562
15.43
0.8199
0.0645
0.9835
5.221
0.01818
0.891
3.67
19.69
0.001051