/*--------------------------------*- C++ -*----------------------------------*\
| =========                 |                                                 |
| \\      /  F ield         | OpenFOAM: The Open Source CFD Toolbox           |
|  \\    /   O peration     | Version:  v2012                                 |
|   \\  /    A nd           | Website:  www.openfoam.com                      |
|    \\/     M anipulation  |                                                 |
\*---------------------------------------------------------------------------*/
FoamFile
{
    version     2.0;
    format      ascii;
    class       volScalarField;
    location    "5";
    object      k;
}
// * * * * * * * * * * * * * * * * * * * * * * * * * * * * * * * * * * * * * //

dimensions      [0 2 -2 0 0 0 0];


internalField   nonuniform List<scalar> 
118995
(
0.01783
0.115
0.09583
0.08773
0.0807
0.06321
0.1031
0.04206
0.11
0.1104
0.09554
0.07943
0.1205
0.08313
0.09074
0.08896
0.0199
0.1201
0.04393
0.02275
0.09888
0.02687
0.03073
0.01603
0.02556
0.3286
0.02237
0.2281
0.09621
0.04514
0.213
0.4016
0.3114
0.1192
0.04928
0.2428
0.1533
0.5066
0.3415
0.3725
0.2088
0.4937
0.3441
0.09669
0.2059
0.09756
0.09928
0.3356
0.4956
0.3906
0.09754
0.09516
0.6008
0.3773
0.4773
0.0996
0.5785
0.5634
0.3617
0.02346
0.09602
0.3034
0.2646
0.3274
0.37
0.112
0.03183
0.5769
0.4378
0.3383
0.0974
0.6089
0.4774
0.3957
0.1918
0.1188
0.1907
0.2178
0.2327
0.2779
0.2224
0.3735
0.4751
0.1159
0.4568
0.3749
0.5124
0.4041
0.1109
0.2555
0.3444
0.4316
0.4055
0.3112
0.3691
0.2863
0.1173
0.3621
0.6174
0.5205
0.3329
0.1418
0.5791
0.2614
0.3403
0.5508
0.2074
0.302
0.4664
0.3445
0.4572
0.2013
0.4775
0.5221
0.1251
0.3389
0.1606
0.3135
0.2887
0.1374
0.3594
0.1834
0.5111
0.5046
0.4488
0.3984
0.3044
0.08539
0.08512
0.2768
0.4047
0.08394
0.1802
0.4288
0.08241
0.08231
0.4937
0.2348
0.5455
0.1542
0.2793
0.3074
0.5058
0.1821
0.3137
0.04799
0.2444
0.5641
0.2592
0.2621
0.5777
0.07811
0.3925
0.2808
0.2671
0.6129
0.1669
0.3823
0.7177
0.08946
0.5601
0.0302
0.5006
0.4351
0.4745
0.4024
0.3853
0.2806
0.2597
0.1817
0.6194
0.1368
0.3541
0.3053
0.334
0.733
0.4716
0.33
0.139
0.2836
0.4192
0.151
0.5588
0.3565
0.2188
0.4757
0.224
0.3947
0.1721
0.3481
0.5588
0.3618
0.2957
0.1875
0.4809
0.02622
0.1657
0.2864
0.2827
0.3916
0.4759
0.2917
0.4056
0.1236
0.5052
0.5085
0.1053
0.3573
0.1986
0.213
0.1747
0.5844
0.3479
0.5664
0.3427
0.1648
0.2905
0.5628
0.5024
0.6799
0.3549
0.4434
0.4022
0.1404
0.3503
0.461
0.2283
0.1352
0.3313
0.4703
0.491
0.3022
0.2768
0.488
0.5332
0.3113
0.5787
0.1525
0.3318
0.201
0.4293
0.4465
0.394
0.4634
0.3734
0.308
0.3719
0.2991
0.4413
0.8798
0.2621
0.586
0.5793
0.2105
0.1796
0.2352
0.4037
0.3189
0.05933
0.2872
0.3943
0.1605
0.2273
0.4328
0.5185
0.251
0.3563
0.3483
0.3924
0.1605
0.2179
0.5356
0.5499
0.2733
0.238
0.29
0.354
0.3524
0.1443
0.2481
0.2277
0.2075
0.1662
0.1851
0.5982
0.4034
0.08734
0.1752
0.3499
0.4479
0.3331
0.3562
0.595
0.4624
0.2215
0.5072
0.2246
0.2155
0.3049
0.3354
0.1347
0.3995
0.04635
0.4712
0.2151
0.1011
0.3203
0.534
0.2579
0.07569
0.3211
0.1618
0.2831
0.281
0.3314
0.317
0.2979
0.2867
0.2852
0.5877
0.2706
0.3341
0.3305
0.08402
0.1764
0.3309
0.4083
0.1396
0.6028
0.5127
0.1585
0.4706
0.4713
0.4217
0.3676
0.5646
0.3492
0.3523
0.2817
0.5849
0.4328
0.2718
0.1388
0.1903
0.3147
0.5185
0.4632
0.09308
0.1624
0.161
0.2195
0.1898
0.5368
0.4312
0.4729
0.4242
0.5789
0.3345
0.574
0.3673
0.3362
0.1941
0.445
0.2585
0.4661
0.4561
0.2795
0.2373
0.3606
0.08849
0.5603
0.2512
0.5085
0.2256
0.2354
0.3278
0.3856
0.9237
0.3517
0.5152
0.09541
0.2962
0.4695
0.5249
0.2864
0.1631
0.3683
0.166
0.4479
0.3469
0.3129
0.2132
0.5075
0.3891
0.3064
0.2231
0.2374
0.6071
0.4793
0.3738
0.1803
0.4828
0.3336
0.1652
0.2542
0.216
0.1113
0.3232
0.1967
0.4009
0.3456
0.09123
0.69
0.4066
0.4571
0.1618
0.5385
0.2939
0.3991
0.05759
0.403
0.3925
0.4006
0.1257
0.0494
0.6609
0.6324
0.3507
0.3103
0.4785
0.4047
0.4189
0.4557
0.3332
0.1815
0.4718
0.1593
0.5043
0.2989
0.3297
0.144
0.4717
0.5554
0.1363
0.239
0.4317
0.438
0.6327
0.2212
0.3276
0.4895
0.1289
0.08936
0.4457
0.2741
0.4739
0.218
0.3088
0.3649
0.3243
0.09486
0.1492
0.2593
0.1091
0.4077
0.525
0.3481
0.3561
0.3445
0.1953
0.2608
0.4829
0.5738
0.372
0.4568
0.3626
0.338
0.4315
0.1087
0.4918
0.2236
0.2407
0.09956
0.128
0.351
0.3467
0.4743
0.4753
0.2281
0.435
0.2496
0.05667
0.1472
0.5629
0.5375
0.2636
0.329
0.4564
0.5199
0.3953
0.433
0.1774
0.3324
0.2989
0.407
0.303
0.3475
0.5146
0.2294
0.217
0.2577
0.2637
0.265
0.146
0.1594
0.3731
0.07423
0.06355
0.3551
0.2573
0.2357
0.06366
0.7611
0.272
0.33
0.2928
0.3924
0.3921
0.3454
0.2465
0.3972
0.3424
0.2008
0.4714
0.1224
0.4898
0.1889
0.3046
0.08014
0.5818
0.07918
0.2889
0.6134
0.1501
0.2227
0.345
0.5815
0.2172
0.4352
0.6191
0.273
0.2002
0.3763
0.4973
0.1699
0.4606
0.2204
0.1555
0.465
0.1405
0.2504
0.1326
0.2517
0.2935
0.4782
0.07643
0.6044
0.4941
0.3145
0.3769
0.2933
0.2106
0.5033
0.07507
0.4642
0.3631
0.4307
0.4632
0.4542
0.299
0.3358
0.6593
0.3503
0.1434
0.3328
0.548
0.4906
0.4743
0.1637
0.3001
0.2746
0.1311
0.2782
0.3175
0.3542
0.4242
0.2715
0.253
0.4122
0.221
0.126
0.437
0.4332
0.3882
0.3841
0.5792
0.1139
0.2931
0.2524
0.08231
0.4012
0.1858
0.2592
0.5437
0.1754
0.568
0.4654
0.5234
0.5741
0.2868
0.2886
0.582
0.408
0.2647
0.285
0.3978
0.09908
0.2891
0.09674
0.5259
0.5679
0.2458
0.2292
0.2058
0.1839
0.06989
0.1146
0.5049
0.599
0.5749
0.4099
0.3239
0.6691
0.5176
0.08309
0.5672
0.5813
0.6619
0.2205
0.381
0.3312
0.4799
0.3375
0.3461
0.3935
0.05681
0.4198
0.179
0.5799
0.1968
0.3199
0.1607
0.4768
0.3121
0.5643
0.1639
0.2534
0.2815
0.3309
0.1565
0.4025
0.4408
0.2822
0.4044
0.4002
0.3789
0.1573
0.5744
0.6102
0.1832
0.274
0.2735
0.4756
0.3959
0.1779
0.441
0.4476
0.5456
0.5731
0.3449
0.3993
0.3668
0.3679
0.2602
0.09727
0.05644
0.3681
0.563
0.2856
0.2562
0.1746
0.2591
0.5361
0.3502
0.5806
0.3159
0.1421
0.3212
0.4617
0.3522
0.5883
0.062
0.4145
0.2292
0.2169
0.3313
0.4931
0.3106
0.409
0.4637
0.2984
0.493
0.4323
0.7083
0.1422
0.5742
0.3447
0.6892
0.3902
0.6651
0.04872
0.2061
0.2569
0.283
0.5403
0.1982
0.06993
0.05952
0.05965
0.4077
0.2122
0.5792
0.3912
0.2663
0.3198
0.2336
0.5239
0.4372
0.3355
0.3662
0.1849
0.292
0.3651
0.5062
0.365
0.1427
0.2665
0.5769
0.2607
0.4162
0.2949
0.3347
0.3781
0.05619
0.3307
0.4109
0.1776
0.3813
0.4656
0.2609
0.458
0.1112
0.1868
0.2454
0.5462
0.3892
0.1983
0.2784
0.563
0.2249
0.2847
0.3077
0.4795
0.07338
0.3167
0.5543
0.2391
0.3689
0.5854
0.5248
0.5266
0.4187
0.2293
0.3544
0.2947
0.4726
0.3544
0.06999
0.4167
0.3283
0.2557
0.2003
0.4402
0.443
0.4601
0.356
0.3171
0.1138
0.2562
0.4682
0.4409
0.2258
0.5277
0.1677
0.6072
0.1861
0.4001
0.2507
0.1533
0.12
0.05023
0.234
0.1436
0.5465
0.2763
0.1185
0.05199
0.5441
0.4639
0.3041
0.2656
0.5539
0.405
0.09263
0.08155
0.3725
0.1254
0.4377
0.4408
0.1782
0.3524
0.4609
0.08536
0.3431
0.3447
0.4283
0.1546
0.5917
0.2436
0.549
0.5621
0.3449
0.1629
0.2739
0.3402
0.1916
0.7027
0.394
0.1786
0.3163
0.3158
0.5964
0.3211
0.492
0.0744
0.3637
0.2587
0.2572
0.2285
0.284
0.1684
0.175
0.3483
0.5482
0.4029
0.5418
0.1396
0.07587
0.4866
0.2896
0.2563
0.3193
0.2552
0.2403
0.3586
0.07765
0.05776
0.05775
0.406
0.1378
0.283
0.4442
0.1411
0.4598
0.1854
0.4404
0.4628
0.3564
0.217
0.08819
0.3274
0.2086
0.3587
0.3559
0.1524
0.1551
0.3849
0.1768
0.3817
0.434
0.5318
0.3087
0.2479
0.3391
0.3391
0.2588
0.4122
0.05588
0.3337
0.1652
0.5162
0.3634
0.1897
0.07357
0.3117
0.4455
0.4086
0.4243
0.18
0.5216
0.09031
0.363
0.2607
0.4975
0.2011
0.376
0.4263
0.5489
0.3673
0.3396
0.2355
0.1502
0.1908
0.3982
0.08211
0.1767
0.1765
0.1768
0.2718
0.08455
0.2845
0.2452
0.1552
0.05892
0.192
0.343
0.06529
0.3051
0.3979
0.5304
0.3641
0.3054
0.2429
0.2653
0.3949
0.25
0.2462
0.2389
0.07332
0.2399
0.4076
0.41
0.1359
0.3146
0.3135
0.1015
0.2974
0.3434
0.6821
0.1642
0.6371
0.2523
0.2003
0.4817
0.0858
0.4591
0.3472
0.4651
0.4928
0.3903
0.1017
0.504
0.3061
0.2687
0.07801
0.5778
0.2319
0.4044
0.1444
0.1291
0.4306
0.5382
0.4829
0.3433
0.3487
0.267
0.4504
0.3197
0.4483
0.4767
0.3186
0.3489
0.5302
0.4798
0.4911
0.6377
0.2641
0.09667
0.1348
0.1694
0.2721
0.2687
0.2195
0.1556
0.176
0.08959
0.06673
0.502
0.4609
0.2161
0.1079
0.4203
0.4923
0.5647
0.3147
0.359
0.3797
0.3483
0.4238
0.3429
0.06442
0.3985
0.3153
0.4064
0.3676
0.3268
0.112
0.3311
0.05114
0.296
0.1807
0.5853
0.3623
0.425
0.1701
0.5614
0.5508
0.4084
0.1722
0.2718
0.3692
0.07455
0.3096
0.2523
0.3808
0.118
0.3354
0.3874
0.08697
0.175
0.1779
0.2476
0.3771
0.1549
0.3609
0.1809
0.6375
0.5146
0.4266
0.04195
0.1656
0.2473
0.348
0.1032
0.3179
0.4013
0.4437
0.04191
0.08097
0.3479
0.3322
0.2573
0.577
0.334
0.06183
0.3435
0.5836
0.1893
0.1671
0.3271
0.3943
0.4128
0.1276
0.325
0.3613
0.2475
0.284
0.2087
0.3772
0.1812
0.04203
0.1474
0.2924
0.07328
0.2073
0.2146
0.5499
0.262
0.4867
0.2517
0.3339
0.1624
0.533
0.2522
0.4245
0.3784
0.1099
0.3342
0.143
0.2486
0.228
0.2109
0.03737
0.1918
0.06402
0.3934
0.1393
0.2689
0.5727
0.4119
0.3477
0.5775
0.3585
0.2208
0.3531
0.3056
0.2788
0.415
0.1873
0.3677
0.1719
0.6691
0.1211
0.2211
0.3749
0.1749
0.1488
0.4796
0.2534
0.3417
0.1176
0.2506
0.2474
0.1993
0.3964
0.4492
0.07232
0.4554
0.334
0.4993
0.2517
0.3187
0.07102
0.5736
0.582
0.2004
0.1109
0.4685
0.3033
0.08732
0.3701
0.1858
0.2582
0.1177
0.2471
0.05084
0.05093
0.4609
0.3636
0.3067
0.5661
0.4897
0.1994
0.2645
0.09722
0.269
0.47
0.09451
0.0642
0.415
0.8569
0.2032
0.2041
0.3397
0.5686
0.05925
0.3939
0.1639
0.5401
0.02565
0.1034
0.1504
0.2879
0.1008
0.1506
0.1022
0.07278
0.5093
0.3202
0.1285
0.3853
0.4434
0.5783
0.2719
0.4719
0.2167
0.2302
0.3728
0.2787
0.2561
0.06105
0.2636
0.3642
0.3463
0.3616
0.3503
0.5387
0.534
0.3272
0.2092
0.02856
0.508
0.265
0.2475
0.3352
0.4758
0.3555
0.3316
0.2008
0.226
0.1823
0.451
0.2052
0.576
0.3703
0.3352
0.5436
0.3012
0.3383
0.4634
0.5322
0.5322
0.5551
0.1828
0.1737
0.2226
0.2365
0.2376
0.297
0.283
0.2547
0.4764
0.1158
0.08458
0.268
0.2562
0.2171
0.6266
0.1202
0.4767
0.6393
0.4646
0.3984
0.5801
0.5801
0.1549
0.3093
0.5632
0.2897
0.3352
0.1026
0.4551
0.3437
0.3059
0.2483
0.2817
0.314
0.3108
0.1659
0.1774
0.2256
0.1328
0.2848
0.1615
0.3661
0.4034
0.1591
0.5145
0.2473
0.6287
0.3246
0.3702
0.4767
0.6068
1.17
0.4704
0.1805
0.2284
0.3009
0.1897
0.05658
0.0611
0.2601
0.5518
0.502
0.2266
0.5408
0.113
0.3333
0.3515
0.2012
0.04715
0.2151
0.1962
0.3315
0.0911
0.4792
0.5973
0.399
0.3397
0.09553
0.3569
0.3647
0.3663
0.1884
0.2674
0.5126
0.5194
0.2578
0.4721
0.5992
0.3595
0.3336
0.2007
0.3528
0.3042
0.4805
0.1956
0.45
0.3539
0.4373
0.3439
0.3328
0.4109
0.4784
0.2553
0.4946
0.2642
0.1827
0.1052
0.4883
0.4597
0.2194
0.4507
0.5766
0.4163
0.3744
0.1158
0.3014
0.1779
0.4079
0.1767
0.3782
0.3982
0.2739
0.3487
0.1929
0.324
0.1838
0.3158
0.1701
0.535
0.33
0.3725
0.567
0.3129
0.515
0.3012
0.1605
0.4149
0.3308
0.3687
0.431
0.1578
0.3436
0.5451
0.3399
0.5899
0.2416
0.5887
0.2044
0.07434
0.2834
0.321
0.4854
0.5552
0.1929
0.3774
0.1742
0.409
0.542
1.116
0.1617
0.5421
0.4591
0.1133
0.048
0.5315
0.4836
0.438
0.09955
0.2589
0.5635
0.3594
0.325
0.3271
0.5289
0.2227
0.4888
0.4245
0.2554
0.491
0.3957
0.3054
0.5784
0.5534
0.1779
0.2304
0.4409
0.2539
0.2406
0.08301
0.2281
0.5953
0.3927
0.3783
0.2723
0.3654
0.1596
0.5246
0.4142
0.1792
0.3561
0.4619
0.5491
0.5194
0.41
0.5263
0.402
0.06191
0.3969
0.178
0.1954
0.1581
0.2009
0.2993
0.5798
0.5584
0.2987
0.2476
0.2186
0.1408
0.4944
0.4186
0.4703
0.1357
0.3801
0.5535
0.4477
0.2136
0.4215
0.6308
0.4823
0.312
0.4294
0.5266
0.3886
0.1821
0.2265
0.509
0.4953
0.2066
0.507
0.403
0.3775
0.2108
0.5802
0.4773
0.1488
0.6212
0.5565
0.08758
0.5098
0.3569
0.437
0.3876
0.3307
0.3813
0.1632
0.3047
0.3048
0.1845
0.3004
0.3297
0.08448
0.3758
0.3279
0.1626
0.1938
0.2071
0.3464
0.5123
0.5664
0.2017
0.4203
0.2368
0.5591
0.08699
0.2415
0.5048
0.5975
0.4269
0.3159
0.3534
0.5777
0.5426
0.3107
0.2916
0.3185
0.2798
0.1438
0.226
0.05446
0.2159
0.4683
0.3872
0.2851
0.1566
0.19
0.3016
0.5702
0.5553
0.2019
0.4242
0.3824
0.4465
0.09198
0.3023
0.4655
0.3307
0.3284
0.3735
0.3308
0.3401
0.4539
0.5136
0.2954
0.1616
0.06322
0.2773
0.3504
0.303
0.3168
0.1082
0.08139
0.3378
0.5787
0.2651
0.5404
0.1225
0.3918
0.3605
0.3893
0.2366
0.3209
0.5995
0.5059
0.3418
0.4805
0.413
0.2609
0.3488
0.3767
0.4236
0.1824
0.228
0.1992
0.5064
0.3434
0.5289
0.3682
0.3715
0.5453
0.5856
0.2208
0.1898
0.1748
0.5487
0.2704
0.4342
0.3192
0.3206
0.2861
0.2755
0.1612
0.46
0.3512
0.3591
0.3021
0.3562
0.2558
0.2819
0.2137
0.5691
0.3841
0.3693
0.3658
0.428
0.3571
0.09974
0.3583
0.4038
0.4926
0.4151
0.3766
0.343
0.3828
0.732
0.3298
0.1224
0.2704
0.589
0.5993
0.4253
0.4975
0.1944
0.2004
0.2696
0.1813
0.4806
0.2557
0.5695
0.1016
0.217
0.06573
0.2987
0.5118
0.3135
0.07873
0.2589
0.1075
0.227
0.5431
0.4864
0.2516
0.5641
0.5242
0.4855
0.3332
0.5617
0.6907
0.194
0.5403
0.3266
0.07019
0.3501
0.4052
0.4404
0.4593
0.2352
0.5417
0.195
0.07395
0.3301
0.275
0.4791
0.545
0.1752
0.466
0.2523
0.07338
0.3267
0.4814
0.2574
0.4078
0.1213
0.196
0.3014
0.3005
0.5285
0.5322
0.2966
0.5613
0.658
0.3631
0.4258
0.1934
0.3125
0.05923
0.259
0.4892
0.2407
0.3119
0.273
0.239
0.1497
0.1524
0.1533
0.4135
0.1594
0.1589
0.2172
0.1732
0.1517
0.2829
0.4451
0.5143
0.3644
0.436
0.2855
0.1976
0.06226
0.3803
0.5425
0.2269
0.2753
0.5839
0.2843
0.3665
0.6023
0.1156
0.2414
0.4577
0.2457
0.4089
0.5124
0.454
0.2377
0.2715
0.154
0.5484
0.3051
0.2452
0.1596
0.33
0.9764
0.457
0.4658
0.2564
0.4701
0.2735
0.2737
0.1242
0.2127
0.5499
0.2253
0.3963
0.3495
0.1875
0.5454
0.2527
0.5075
0.4286
0.06978
0.2525
0.3691
0.413
0.5456
0.6291
0.2666
0.4025
0.4105
0.386
0.141
1.32
0.416
0.2564
0.3908
0.1252
0.5355
0.3043
0.4088
0.2615
0.1858
0.1574
0.1691
0.2856
0.2579
0.09045
0.5536
0.01859
0.1683
0.5008
0.4193
0.4084
1.311
0.5424
0.1659
0.2998
0.9765
0.296
0.3985
0.4932
0.3342
0.4856
0.3454
0.5033
0.1685
0.374
0.3091
0.44
0.3566
0.08384
0.2227
0.4021
0.2233
0.3362
0.3785
0.3246
0.2659
0.3415
0.1663
0.158
0.4514
0.09361
0.06169
0.2806
0.2998
0.3453
0.4959
0.2089
0.1353
0.5272
0.1348
0.3086
0.469
0.6037
0.4291
0.2436
0.4209
0.1427
0.3083
0.4052
0.368
0.3744
0.5187
0.3817
0.3301
0.4286
0.4494
0.4211
0.3386
0.316
0.4639
0.3436
0.4054
0.4655
0.08782
0.1537
0.5217
0.4205
0.3039
0.3393
0.5029
0.1995
0.1439
0.4603
0.5284
0.3127
0.4134
0.3319
0.05682
0.2563
0.3101
0.4045
0.3475
0.5097
1.387
0.4938
0.192
0.2539
0.03063
0.1716
0.2054
0.7629
0.5712
0.4433
0.382
0.2257
0.4013
0.3679
0.2087
0.1453
0.4175
0.1426
0.1581
0.2318
0.2209
0.3997
0.5582
0.1357
0.3803
0.1565
0.06085
0.3355
0.2645
0.2067
0.5699
0.1269
0.08354
0.3541
0.09331
0.552
0.1281
0.3102
0.5223
0.0877
0.3212
0.4316
0.1922
0.33
0.776
0.5512
0.4695
0.3839
0.3537
0.3006
0.265
1.165
1.165
0.1653
0.1555
0.5623
0.4247
0.2638
0.2409
0.41
0.561
0.1132
0.3425
0.5269
0.3992
0.4163
0.4019
0.6473
0.5088
0.5693
0.1898
0.2789
0.4031
0.2085
0.2565
0.5407
0.0381
0.5018
0.2515
0.539
0.09647
0.4336
0.2791
0.1349
0.165
0.3929
0.3324
0.124
0.4028
0.4156
0.3845
0.3224
0.2195
0.05542
0.3612
0.4522
0.375
0.5553
0.5677
0.3565
0.4214
0.3302
0.4333
0.1764
0.4415
0.2
0.3476
0.2047
0.5766
0.4248
0.3068
0.2157
0.1839
0.3166
0.2479
0.2925
0.2818
0.5229
0.2744
0.4525
0.06421
0.2001
0.2722
0.28
0.3393
0.4406
0.4595
0.5142
0.4435
0.06153
0.327
0.158
0.3679
0.1346
0.1513
0.4584
0.2949
0.6709
0.2337
0.1091
1.147
0.2764
0.5293
0.2621
0.3451
0.3644
0.4928
0.3579
0.2947
0.08731
0.4595
0.4914
0.1647
0.2219
0.344
0.3894
0.3928
0.3308
0.3039
0.1716
0.1716
0.3836
0.474
0.05163
0.1463
0.2837
0.3483
0.2202
0.3859
0.5577
0.1172
0.2604
0.3744
0.3001
0.5406
0.2672
0.2456
0.1094
0.5544
0.2908
0.3144
0.2399
0.3391
0.2067
0.08932
0.16
0.1264
0.5766
0.2864
0.2562
0.1778
0.5037
0.4196
0.05964
0.09098
0.2599
0.06142
0.2455
0.4575
0.2919
0.3446
0.5122
0.1442
0.3141
0.2089
0.2357
0.07366
0.221
0.386
0.09241
0.5691
0.2489
0.06281
0.2172
0.506
0.2679
0.4155
0.3205
0.2461
0.3725
0.05299
0.4166
0.5529
0.05831
0.1755
0.291
0.1579
0.2801
0.2682
0.1148
0.572
0.3788
0.355
0.5385
0.03153
0.1192
0.3461
0.1405
0.0534
0.4667
0.05429
0.5337
0.3772
0.2488
0.3486
0.2852
0.1222
0.1931
0.2212
0.586
0.1689
0.3986
0.06174
0.5819
0.4626
0.5459
0.3827
0.4676
0.1756
0.5188
0.2698
0.3459
0.05288
0.9753
0.2929
0.9769
0.224
0.1222
0.1583
0.357
0.2464
0.5548
0.2224
0.2139
0.2726
0.3579
0.02667
0.3753
0.0902
0.619
0.341
0.06649
0.5177
0.5126
0.107
0.377
0.3408
0.3754
0.3131
0.4201
0.4768
0.2104
0.5769
0.5112
0.1029
0.3194
0.07922
0.5729
0.3375
0.392
0.1435
1.185
0.08974
0.4974
0.3532
0.06089
0.5444
0.6388
0.5097
0.5105
0.04989
0.5359
0.4096
0.2358
0.3732
0.3765
0.518
0.6399
0.1994
0.2551
0.5241
0.3473
0.4675
0.4674
0.06019
0.2721
0.3646
0.2446
0.3076
0.5431
0.08769
0.4226
0.07466
0.3347
0.4388
0.2961
0.5219
0.2405
0.2077
0.3495
0.06722
0.2535
0.1722
0.3703
0.3802
0.4719
0.1738
0.4752
0.2476
0.4425
0.4229
0.2576
0.2799
0.162
0.06392
0.1938
0.2854
0.4266
0.2827
0.4215
0.5595
0.5214
0.2562
0.4838
0.5196
0.5901
0.1473
0.1603
0.4444
0.4685
0.3102
0.5256
0.3132
1.187
0.07161
0.4612
0.7837
0.4588
0.3819
0.3234
0.3822
0.2819
0.1748
0.2031
0.3215
0.3759
0.4123
0.4627
0.2045
0.1382
0.5432
0.4314
0.5897
0.6607
0.1666
0.1257
0.2778
0.3684
0.1898
0.06606
0.5126
0.4384
0.2575
0.2829
0.4075
0.3203
0.32
0.3122
0.4041
0.4326
0.5932
0.2965
0.1116
0.2719
0.3342
0.3637
0.5201
0.2908
0.04421
0.6504
0.6504
0.5151
0.3008
0.06333
0.3034
0.2872
0.3263
0.2944
0.5565
0.7704
0.3176
0.4029
0.4211
0.1898
0.488
0.5776
0.2385
0.3795
0.585
0.4318
0.05193
0.09839
0.3774
0.478
0.2491
0.2487
0.2706
0.2476
0.2852
0.5335
0.3636
0.2865
0.5237
0.08835
0.1728
0.399
0.1669
0.201
0.3401
0.3202
0.3405
0.189
0.1551
0.1646
0.4392
0.329
0.07461
0.06623
0.3763
0.3535
0.5633
0.3793
0.08368
0.1892
0.5682
0.1643
0.3187
0.1909
0.2229
0.2715
0.07919
0.232
0.5656
0.2291
0.2904
0.09483
0.4744
0.2825
0.5676
0.5011
0.1169
0.1392
0.5605
0.09833
0.2389
0.5392
0.4743
0.3152
0.3359
0.3736
0.2932
0.05645
0.1637
0.3883
0.3543
0.3225
0.4503
0.1713
0.2066
0.198
0.2884
0.3648
0.3732
0.3551
0.3944
0.0548
0.3449
0.1287
0.1716
0.3208
0.3448
0.4377
0.1786
0.601
0.2626
0.4577
0.1838
0.1028
0.2061
0.4127
0.1001
0.4214
0.09492
0.3956
0.2198
0.2386
0.1478
0.5689
0.4729
0.09249
0.3284
0.2751
0.2135
0.3635
0.4265
0.08016
0.2477
0.1122
0.2313
0.1622
0.3561
0.3241
0.3148
0.3435
0.1789
0.4525
0.2895
0.1351
0.4748
0.4469
0.3458
0.2404
0.08407
0.4504
0.3309
0.5074
0.5327
0.308
0.3195
0.4284
0.4219
0.3703
0.2374
0.5107
0.317
0.1864
0.3172
0.446
0.1319
0.2058
0.3263
0.1658
0.04343
0.2092
0.154
0.0461
0.1114
0.06938
0.4678
0.4211
0.3671
0.4822
0.4202
0.2199
0.08097
0.1454
0.5119
0.1215
0.4652
0.2875
0.2398
0.108
0.3099
0.05484
0.08007
0.6641
0.5027
0.3838
0.3138
0.2746
0.3357
0.2254
0.3869
0.3966
0.4089
0.09797
0.5045
0.348
0.4725
0.07928
0.2142
0.4208
0.3629
0.2035
0.4144
0.2621
0.1019
0.283
0.4568
0.5259
0.2556
0.1327
0.4621
0.2536
0.3235
0.06892
0.2586
0.3495
0.07693
0.5703
0.304
0.2823
0.5569
0.0513
0.1715
0.322
0.1634
0.3325
0.3513
0.3891
0.4255
0.4756
0.3899
0.2559
0.2123
0.507
0.1996
0.3019
0.5629
0.3423
0.3771
0.18
0.1029
0.1736
0.2471
0.4424
0.442
0.338
0.3037
0.1004
0.3728
0.4064
0.1222
0.2404
0.5038
0.2785
0.3535
0.5284
0.2092
0.2403
0.2908
0.07909
0.2526
0.4308
0.2747
0.2742
0.2442
0.4834
0.06779
0.4624
0.5668
0.2127
0.2122
0.5645
0.2857
0.2287
0.4419
0.2599
0.3675
0.3517
0.5514
0.2148
0.1878
0.1899
0.253
0.5714
0.4623
0.4139
0.3689
0.3202
0.03411
0.3948
0.2272
0.4519
0.1702
0.339
0.2205
0.3596
0.3145
0.5297
0.4611
0.0851
0.4411
0.2319
0.4353
0.3685
0.4122
0.4842
0.5059
0.3108
0.2658
0.616
0.5013
0.4287
0.4281
0.4038
0.3256
0.5593
0.4183
0.3024
0.2835
0.2236
0.5196
0.5076
0.1324
0.1847
0.5168
0.5432
0.3034
0.2989
1.323
0.181
0.5097
0.07946
0.4241
0.59
0.1404
0.772
0.507
0.1374
0.5381
0.3044
0.2349
0.2068
0.1757
0.08399
0.6709
0.373
0.2354
0.2973
0.5575
0.8093
0.5137
0.2081
0.2726
0.2708
0.1677
0.4136
0.07148
0.2827
0.1863
0.2118
0.4744
0.09503
0.06014
0.04962
0.5833
0.5055
0.3129
0.7261
0.4106
0.3349
0.5964
0.5466
0.133
0.04099
0.2041
0.2716
0.1572
0.1078
0.4839
0.05831
0.4323
0.2436
0.596
0.5282
0.3116
0.6457
0.3653
0.4479
0.167
0.3514
0.3932
0.148
0.4611
0.5197
0.4749
0.09262
0.4848
0.08728
0.3532
0.2581
0.2755
0.1168
0.5477
0.4134
0.3772
0.305
0.5064
0.3494
0.2114
1.031
0.3256
0.426
0.5366
0.591
0.5264
0.2574
0.1371
0.5159
0.5189
0.352
0.4268
0.3857
0.4201
0.1415
0.5559
0.2662
0.5722
0.469
0.09644
0.5373
0.5169
0.5749
0.2833
0.3421
0.1712
0.5012
0.08898
0.4273
0.2071
0.5786
0.07085
0.4013
0.5087
0.2114
0.5233
0.3476
1.165
0.2843
0.4081
0.1796
0.7476
0.06713
0.3702
0.4416
0.6384
0.3674
0.6162
0.1047
0.09063
0.1831
0.1854
0.4093
0.2575
0.2595
0.4181
0.4739
0.1383
0.2145
0.2097
0.2718
0.4447
0.441
0.5673
0.2761
0.2795
0.241
0.07745
0.3172
0.5739
0.0783
0.3864
0.1493
0.4336
0.1615
0.276
0.1776
0.4059
0.4023
0.4465
0.5072
0.3454
0.1792
0.1639
0.5574
0.3811
0.385
0.2844
0.1389
0.06147
0.1665
0.05881
0.2115
0.5051
0.3858
0.1786
0.358
0.244
0.2721
0.5036
0.2596
0.3759
0.05795
0.208
0.1528
0.3638
0.3004
0.1747
0.5835
0.3356
0.4794
0.325
0.5581
0.222
0.5314
0.4309
0.2169
0.2216
0.3866
1.168
0.5098
0.08029
0.4571
0.3608
0.5406
0.7438
0.275
0.5345
0.2434
0.235
0.3633
0.1418
0.2469
0.3564
0.1372
0.5148
0.5089
0.3303
0.2924
0.125
0.3568
0.226
0.4522
0.4713
0.4342
0.4301
0.5417
0.2856
0.3671
0.4822
0.1143
0.4193
0.3171
0.2545
0.2414
0.1251
0.1043
0.3639
0.2599
0.5146
0.4349
0.2792
0.3149
0.3533
0.5623
0.5123
0.4538
0.1949
0.3802
0.386
0.2584
0.469
0.06896
0.3731
0.08664
0.5171
0.3335
0.4292
1.24
0.2181
0.3192
0.4159
0.3895
0.06811
0.3026
0.2897
0.1482
0.5205
0.4129
0.5994
0.588
0.5637
0.3943
0.5768
0.3455
0.2067
0.1397
0.5316
0.3666
0.2092
0.3429
0.1387
0.5517
0.4281
0.2485
0.3919
0.5057
0.2606
0.2389
0.3408
0.3678
0.3062
0.1882
0.3258
0.06696
0.06697
0.4665
0.358
0.2624
0.2458
0.278
0.1692
0.1464
0.1853
0.22
0.1963
0.1101
0.2186
0.7964
0.06849
0.4571
0.2442
0.5029
0.2874
0.1179
0.5228
0.07677
0.4102
0.06837
0.102
0.3671
0.5292
0.2719
0.1959
0.2565
0.5138
0.135
0.2312
0.2865
0.4919
0.6585
0.09687
0.494
0.2597
0.0657
0.4673
0.5914
0.2005
0.1264
0.4064
0.3148
0.5224
0.4612
0.3494
0.4354
0.4401
0.3066
0.4412
0.3507
0.5784
0.258
0.164
0.1804
0.109
0.0886
0.2275
0.1288
0.3847
0.05882
0.05697
0.4603
0.5328
0.6041
0.3603
0.2019
0.2755
0.5343
0.3268
0.1806
0.2824
0.2523
0.3161
0.2083
0.3352
0.2744
0.1784
0.0876
0.3471
0.06782
0.2001
0.3241
0.4786
0.2522
0.275
0.5404
0.2869
0.1094
0.08169
0.3557
0.4494
0.6252
0.1705
0.1921
0.1444
0.5163
0.4682
0.2004
0.5507
0.3176
0.1383
0.1314
0.5692
0.3429
0.2509
0.131
0.6116
0.1835
0.127
0.04984
0.3261
0.5265
0.5448
0.4569
0.3448
0.4057
0.2691
0.2712
0.3681
0.2077
0.3057
0.1596
0.355
0.2289
0.3508
0.5181
0.3767
0.06807
0.09256
0.106
0.2969
0.05185
0.2739
0.5294
0.3815
0.2673
0.2658
0.2286
0.2341
0.07734
0.1408
0.2705
0.3172
0.1577
0.1451
0.2102
0.3063
0.2494
0.3696
0.3188
0.4866
0.2081
0.4333
0.2379
0.3163
0.2414
0.1176
0.2646
0.5817
0.5443
0.3037
0.4414
0.5061
0.2248
0.188
0.3787
0.1878
0.3027
0.2113
0.1751
0.3757
0.2222
0.2806
0.08957
0.338
0.1846
0.1852
0.4295
0.105
0.5836
0.5524
0.3293
0.2503
0.3984
0.2169
0.3412
0.5533
0.3658
0.2267
0.6767
0.4161
0.2563
0.3583
0.3823
0.4239
0.2701
0.3274
0.4361
0.5737
0.3166
0.4689
0.2969
0.4759
0.5693
0.4894
0.519
0.1475
0.3178
0.2897
0.04618
0.508
0.3292
0.08109
0.5227
0.5763
0.2577
0.2897
0.3614
0.0642
0.5021
0.258
0.3765
0.2782
0.269
0.3503
0.5093
0.3015
0.1613
0.2713
0.1599
0.3113
0.5604
0.2987
0.7109
0.2197
0.5507
0.3891
0.2894
0.06363
0.5288
0.13
0.156
0.6021
0.4571
0.5114
0.5802
0.1075
0.4192
0.2859
0.3467
0.2792
0.3881
0.3085
0.07799
0.4828
0.2578
0.3619
0.4137
0.4249
0.5096
0.5609
0.09407
0.216
0.2596
0.08311
0.2413
0.4356
0.09053
0.3724
0.2091
0.3346
0.3027
0.2369
0.2537
0.4822
0.292
0.2667
0.4333
0.2413
0.4734
0.6118
0.3456
0.441
0.3131
0.2645
0.2104
0.4467
0.3527
0.395
0.2599
0.5239
0.3153
0.1973
0.3628
0.4467
0.2332
0.08433
0.5032
0.3
0.4269
0.5275
0.2706
0.3849
0.4016
0.2535
0.2357
0.1619
0.2744
0.1811
0.2331
0.5869
0.2665
0.2047
0.2303
0.2199
0.1956
0.1238
0.3802
0.1371
0.3249
0.5328
0.1669
0.2908
0.4039
0.3116
0.2232
0.3105
0.2895
0.4655
0.2338
0.4355
0.2603
0.2909
0.5918
0.08477
0.06044
0.257
0.2891
0.5443
0.3407
0.2075
0.7318
0.3542
0.2435
0.3285
0.08244
0.3468
0.262
0.3901
0.3402
0.3072
0.2906
0.2744
0.2603
0.4353
0.08297
0.1948
0.1692
0.5185
0.1955
0.5443
0.3862
0.3816
0.8587
0.4467
0.5072
0.3688
0.1231
0.508
0.3167
0.0371
0.08067
0.5416
0.4769
0.281
0.2902
0.3806
0.2566
0.4503
0.3643
0.5665
0.2113
0.3284
0.3388
0.169
0.4654
0.0924
0.08091
0.2213
0.2129
0.3207
0.1448
0.3215
0.09913
0.3402
0.1938
0.529
0.4977
0.298
0.3324
0.3862
0.4537
0.502
0.4612
0.1812
0.1871
0.3545
0.2152
0.6877
0.3411
0.2745
0.4356
0.2671
0.48
0.1193
0.07575
0.2154
0.2962
0.2618
0.2846
0.3267
0.1874
0.7676
0.1923
0.1123
0.3186
0.5466
0.3604
0.1
0.5768
0.3776
0.1239
0.1305
0.3155
0.4385
0.1604
0.1612
0.4257
0.5066
0.07904
0.3586
0.2177
0.3794
0.3992
0.6311
0.4993
0.1961
0.3555
0.3728
0.07291
0.2218
0.4071
0.3103
0.3572
0.3337
0.1957
0.4802
0.4361
0.08467
0.3824
0.0875
0.08759
0.7928
0.4053
0.6312
0.3339
0.2203
0.2665
0.08072
0.185
0.8392
0.3445
0.3632
0.3494
0.4885
0.09648
0.4223
0.2546
0.3075
0.4273
0.2707
0.2769
0.1983
0.4887
0.2464
0.2667
0.3762
0.1702
0.1306
0.5169
0.5677
0.2067
0.221
0.3931
0.3368
0.4343
0.3973
0.7671
0.4114
0.2176
0.4968
0.3626
0.471
0.3031
0.2369
0.1227
0.4904
0.25
0.3759
0.2005
0.3252
0.2299
0.1901
0.3756
0.1725
0.3589
0.3035
0.2735
0.2531
0.2792
0.1947
0.5773
0.4142
0.1268
0.547
0.4211
0.6009
0.2418
0.4214
0.2932
0.1949
0.1919
0.344
0.05551
0.5187
0.3846
0.5658
0.2276
0.2508
0.5156
0.3726
0.06998
0.2963
0.2055
0.2389
0.2976
0.2662
0.3609
0.3669
0.5635
0.1666
0.3215
0.3693
0.3898
0.209
0.1956
0.5913
0.6709
0.1045
0.04978
0.3894
0.1663
0.2437
0.4987
0.2183
0.2289
0.2552
0.2641
0.3125
0.1831
0.3163
0.1582
0.4038
0.304
0.2445
0.3176
0.2375
0.2064
0.2362
0.1185
0.2252
0.3362
0.4465
0.2524
0.2114
0.3207
0.5393
0.2555
0.06073
0.1913
0.06125
0.08585
0.2991
0.5301
0.4037
0.1722
0.08563
0.5625
0.3333
0.1857
0.2411
0.2581
0.3233
0.3156
0.1696
0.1594
0.5574
0.3765
0.5422
0.09012
0.3854
0.3948
0.4001
0.3351
0.2752
0.4209
0.4107
0.5119
0.3078
0.2213
0.4171
0.5577
0.3441
0.1822
0.1977
0.5503
0.3211
0.375
0.4788
0.4271
0.3165
0.3387
0.3755
0.2586
0.2978
0.05285
0.169
0.118
0.265
0.1547
0.2984
0.1904
0.3621
0.5766
0.5768
0.1853
0.22
0.2325
0.3398
0.1483
0.397
0.3104
0.3463
0.355
0.4808
0.2739
0.0737
0.3484
0.473
0.1362
1.031
0.3173
0.04116
0.16
0.4821
0.5645
0.4268
0.05473
0.4859
0.5803
0.5433
0.306
0.3458
0.3164
0.2951
0.3964
0.1029
0.2778
0.08603
0.2749
0.6023
0.2302
1.096
0.256
0.4559
0.3099
0.2725
0.1835
0.5078
0.1946
0.3221
0.1076
0.2646
0.4248
0.2832
0.3239
0.07724
0.2083
0.1564
0.1292
0.2087
0.2218
0.466
0.2978
0.2409
0.3909
0.0774
0.2629
0.3282
0.233
0.4908
0.3495
0.2349
0.2648
0.2551
0.1903
0.3884
0.5681
0.2318
0.2735
0.06728
0.09603
0.3913
0.5047
0.2617
0.06121
0.2201
0.5203
0.4662
0.1165
0.06222
0.251
0.2759
0.3825
0.05598
0.4705
0.05156
0.2739
0.4572
0.3588
0.4563
0.5856
0.3692
0.5716
0.2802
0.4633
0.5605
0.3209
0.2486
0.2856
0.4178
0.2704
0.4201
0.4076
0.2688
0.3614
0.2484
0.3068
0.3247
0.3899
0.3712
0.1598
0.4677
0.3008
0.4081
0.4831
0.1363
0.2842
0.1283
0.424
0.5084
0.3318
0.2825
0.4491
0.182
0.07493
0.4264
0.5915
0.6914
0.6915
0.5721
0.5303
0.1348
0.2483
0.03438
0.3181
0.3111
0.5031
0.0743
0.2723
0.1732
0.2911
0.4043
0.2133
0.242
0.06158
0.3439
0.243
0.2416
0.3146
0.07571
0.4224
0.2992
0.297
0.3694
0.3742
0.5053
0.5793
0.3713
0.4287
0.4417
0.3126
0.3798
0.5077
0.5294
0.1262
0.5175
0.5944
0.3267
0.6845
0.2844
0.3191
0.09394
0.3819
0.2243
0.1474
0.4129
0.3544
0.3427
0.2781
0.4001
0.2616
0.266
0.391
0.3133
0.471
0.5613
0.1762
0.1485
0.328
0.424
0.1502
0.4131
0.3148
0.4132
0.2562
0.5498
0.2137
0.1976
0.5609
0.4512
0.34
0.3971
0.5405
0.389
0.06137
0.4213
0.3454
0.232
0.5704
0.2995
0.4066
0.2573
0.424
0.6023
0.3473
0.07122
0.3164
0.3657
0.159
0.2502
0.0637
0.5501
0.5478
0.1339
0.3256
0.3982
0.1491
0.3711
0.567
0.1607
0.191
0.2413
0.4434
0.3096
0.0493
0.4961
0.04735
0.2525
0.5386
0.4216
0.5395
0.08476
0.212
0.2337
0.143
0.06179
0.1536
0.2704
0.38
0.3149
0.2487
0.4148
0.2488
0.3439
0.5432
0.1566
0.2888
0.3633
0.2961
0.384
0.5553
0.2966
0.2157
0.05437
0.1821
0.1672
0.1002
0.1411
0.2688
0.2415
0.3388
0.094
0.4411
0.2913
0.1591
0.5762
0.1638
0.5746
0.3254
0.2262
0.5774
0.1055
0.7279
0.1342
0.1887
0.1127
0.05132
0.222
0.1707
0.3315
0.5475
0.5299
0.3236
0.3476
0.2381
0.3765
0.4693
0.1229
0.3546
0.3989
0.43
0.3096
0.3834
0.07314
0.05395
0.07869
0.3533
0.1873
0.4019
0.5023
0.2166
0.07717
0.5593
0.3818
0.1593
0.8717
0.2102
0.3493
0.2217
0.4524
0.6533
0.1806
0.05105
0.1229
0.3137
0.3622
0.3546
0.2365
0.3012
0.2655
0.2656
0.4099
0.2499
0.2138
0.4376
0.4275
0.2322
0.3547
0.346
0.3472
0.2568
0.1019
0.3029
0.4301
0.5105
0.2133
0.5967
0.3269
0.4064
0.4468
0.1825
0.548
0.398
0.3315
0.06269
0.475
0.06297
0.3056
0.2795
0.09119
0.1729
0.1288
0.198
0.2651
0.3744
0.984
0.2863
0.3579
0.4285
0.4543
0.4846
0.1093
0.2123
0.5141
0.5538
0.3463
0.5179
0.1438
0.3319
0.5505
0.1802
0.3524
0.2448
0.4445
0.2966
0.5543
0.3007
0.215
0.3659
0.3767
0.5991
0.5702
0.4838
0.5493
0.3188
0.2806
0.2289
0.05117
0.1723
0.5839
0.3144
0.1671
0.4932
0.1596
0.3246
0.6034
0.2865
0.1495
0.519
0.3461
0.3772
0.128
0.4987
0.3102
0.3877
0.4825
0.04962
0.2455
0.6126
0.4335
0.4401
0.3203
0.04991
0.3834
0.3224
0.2375
0.2363
0.05222
0.09553
0.06536
0.5946
0.3831
0.3907
0.5712
0.3119
0.09066
0.3726
0.3347
0.3903
0.1714
0.5681
0.221
0.2917
0.5696
0.2384
0.4767
0.07861
0.5447
0.5973
0.2352
0.5111
0.3555
0.3336
0.3061
0.5339
0.07306
0.2348
0.3162
0.2138
0.07325
0.4138
0.1911
0.5795
0.1074
0.4427
0.269
0.07494
0.3418
0.3265
0.1603
0.8135
0.5746
0.1327
0.0908
0.1572
0.0706
0.4081
0.3804
0.09328
0.3082
0.5868
0.3186
0.2474
0.5985
0.2471
0.3823
0.3535
0.3267
0.0699
0.2332
0.1014
0.3763
0.3731
0.2319
0.5662
0.3162
0.3369
0.4985
0.3455
0.2844
0.0909
0.05608
0.3718
0.08079
0.6643
0.3754
0.2792
0.5267
0.4361
0.4243
0.3509
0.3873
0.3269
0.1235
0.4831
0.4364
0.3841
0.4263
0.04503
0.3864
0.2431
0.03544
0.2496
0.1938
0.4828
0.1303
0.4844
0.3171
0.5258
0.3404
0.3069
0.07022
0.06931
0.09103
0.5178
0.2923
0.1507
0.1707
0.2858
0.2636
0.3944
0.3889
0.2462
0.4871
0.166
0.2399
0.3796
0.2041
0.373
0.3097
0.4729
0.1279
0.5367
0.4924
0.1333
0.445
0.5677
0.317
0.2229
0.3791
0.7882
0.2329
0.2247
0.42
0.3274
0.3123
0.1778
0.4029
0.3204
0.401
0.369
0.2712
0.3894
0.3156
0.5053
0.3653
0.09759
0.4185
0.3471
0.3448
0.3157
0.4702