/*--------------------------------*- C++ -*----------------------------------*\
| =========                 |                                                 |
| \\      /  F ield         | OpenFOAM: The Open Source CFD Toolbox           |
|  \\    /   O peration     | Version:  v2012                                 |
|   \\  /    A nd           | Website:  www.openfoam.com                      |
|    \\/     M anipulation  |                                                 |
\*---------------------------------------------------------------------------*/
FoamFile
{
    version     2.0;
    format      ascii;
    class       volScalarField;
    location    "5";
    object      nut;
}
// * * * * * * * * * * * * * * * * * * * * * * * * * * * * * * * * * * * * * //

dimensions      [0 2 -1 0 0 0 0];


internalField   nonuniform List<scalar> 
118995
(
1.864e-07
1.071e-06
2.421e-06
2.809e-06
1.214e-06
3.029e-06
2.308e-06
6.477e-07
2.31e-06
1.812e-06
1.371e-06
4.908e-06
1.793e-06
1.777e-06
1.13e-06
1.118e-06
4.866e-07
2.191e-06
4.7e-07
3.463e-07
1.954e-06
7.475e-07
7.993e-07
1.674e-07
3.671e-07
0.0004838
8.144e-07
0.002571
0.0003637
3.816e-06
0.004967
0.0005455
0.5643
0.0006584
5.075e-06
0.001013
0.0002954
0.03977
0.003998
0.02059
0.001609
0.02141
0.5854
0.0002071
0.004149
0.0001943
0.0002417
0.003801
0.0218
0.007851
0.0002053
0.0001935
0.04169
0.006442
0.06507
0.0002459
0.5079
0.01496
0.005094
7.712e-07
0.0001919
0.02433
0.009023
0.001008
0.574
0.0002503
8.409e-07
0.05811
0.0037
0.003938
0.0001974
0.02967
0.1354
0.0001897
0.0001142
0.0006944
0.0001152
0.001883
0.0004756
0.001285
0.004701
0.02111
0.1361
0.0001468
0.3452
0.4709
0.005762
0.05943
0.0002453
0.006475
0.5847
0.005984
0.5796
0.002793
0.3428
0.001486
0.0001511
0.5741
0.01252
0.02881
0.5862
0.001664
0.04913
0.001049
0.0005457
0.1413
0.0005899
0.0233
0.09249
0.5946
0.345
0.0007415
0.01692
0.02941
0.00119
0.001156
0.0007672
0.003029
0.03056
0.3784
0.3229
8.221e-05
0.04713
0.0224
0.3763
0.03125
0.5368
0.294
0.2948
0.001309
0.5795
0.3147
0.002382
0.01122
0.2945
0.2954
0.02745
0.002877
0.1348
0.3667
0.001699
0.5639
0.02267
0.000767
0.07087
5.016e-06
0.007224
0.01585
0.006848
0.4306
0.05945
2.943e-06
0.0001867
0.001357
0.009399
0.009892
0.003738
0.006805
0.5387
0.0001614
0.02358
3.06e-07
0.02194
0.01042
0.2897
0.4819
0.007594
0.001256
0.0007763
0.002452
0.01317
0.0006411
0.001628
0.025
0.5785
0.6093
0.063
0.03011
0.0008591
0.001573
0.000642
0.0009329
0.04969
0.0007299
0.0013
0.02889
0.0001429
0.5767
0.003732
0.6022
0.02332
0.574
0.01091
0.0008535
0.01752
6.369e-07
0.00184
0.5694
0.001408
0.0002043
0.02944
0.002118
0.06035
0.0009978
0.02263
0.0409
0.0005041
0.3333
0.0003703
0.003097
0.0002983
0.04541
0.5549
0.07484
0.004067
6.16e-06
0.5532
0.04578
0.0593
0.006387
0.0007124
0.01528
0.5781
0.0008941
0.01154
0.003643
0.001383
0.0008034
0.3523
0.004823
0.01711
0.5347
0.01176
0.01876
0.1463
0.0009474
0.06577
0.0009671
0.00395
0.0004995
0.004183
0.004044
0.003546
0.01468
0.00651
0.06749
0.4809
0.06585
0.01491
0.6243
0.006605
0.06589
0.07678
0.004541
0.003716
0.0005185
0.5782
0.5648
6.541e-05
0.5708
0.00693
0.3966
0.005137
0.01169
0.02653
0.0005072
0.005224
0.004337
0.01195
0.0007789
0.0007366
0.002119
0.1432
0.01116
0.0009998
0.00221
0.003326
0.004762
0.0009352
0.0005501
0.004708
6.798e-05
0.0004736
0.002654
0.04412
0.0002492
2.267e-05
0.336
0.01902
0.01592
0.5849
0.5732
0.01283
0.01463
0.005211
0.02312
0.006002
0.005225
0.002531
0.00372
0.001506
0.008141
4.468e-06
0.0049
0.003559
1.621e-05
0.565
0.1463
0.01188
7.818e-06
0.003343
0.002445
0.3791
0.3787
0.005673
0.002111
0.01121
0.382
0.3816
0.003655
0.02083
0.5786
0.0302
0.3145
0.0002821
0.003902
0.2857
0.0007072
0.03188
0.0242
0.3324
0.01412
0.2971
0.01463
0.4279
0.0474
0.0002153
0.01016
0.01711
0.04567
0.01081
0.01057
0.0008055
9.583e-05
0.002916
0.006143
0.09718
0.3287
0.3945
0.0002189
0.0005948
0.000411
0.02635
0.01145
0.01627
0.01474
0.076
0.01264
0.04315
0.3537
0.1453
0.2652
0.367
0.001301
0.003817
0.01347
0.009719
0.0009872
0.005525
0.3942
0.05107
0.009263
0.04817
0.006886
0.006797
0.586
0.006125
0.6287
0.01694
0.01119
0.0003898
0.001857
0.02127
0.006961
0.002101
0.0008293
0.005491
0.002282
0.05132
0.004256
0.0735
0.0009155
0.02872
0.4317
0.0008875
0.007179
0.0005394
0.02358
0.01811
0.5745
0.0003253
0.5829
0.003644
0.0002324
0.552
0.0006518
0.000512
0.003539
0.0004583
0.006908
0.2717
0.3299
0.6105
0.01001
0.031
0.002445
0.01918
0.002061
0.006785
0.3752
0.007957
0.5766
0.008811
0.001111
3.466e-06
0.6008
0.002809
0.0191
0.002888
0.5825
0.008606
0.4416
0.01342
0.02438
0.003866
0.5877
0.001442
0.02278
0.5491
0.001884
0.0006137
0.5877
0.0392
4.888e-05
0.4672
0.01089
0.006392
0.01639
0.0007821
0.001844
0.004196
0.0007123
0.3956
0.3848
0.4345
0.02409
0.0107
0.002662
0.5744
0.003591
0.0001983
5.474e-06
0.01331
0.000652
0.007357
0.02086
0.004844
0.5558
0.5947
0.3671
0.0006676
0.01879
0.05235
0.01646
0.5857
0.004274
0.003835
0.581
4.567e-05
0.01949
0.002136
0.001002
0.0004187
0.001018
0.004463
0.56
0.01464
0.2508
0.0005775
0.0105
0.0008593
0.3807
0.001699
0.07922
0.5946
0.006775
0.5795
0.01341
0.002751
0.007394
0.0109
0.002215
0.03332
0.01294
0.00363
0.002464
0.6022
0.02468
0.004838
0.0006062
0.0008489
0.01094
0.001149
0.0006515
0.0001774
0.574
0.3355
0.4062
0.01226
0.01772
0.00028
0.4038
0.6134
0.002028
0.003514
0.01405
0.007671
0.008275
0.2828
0.0009974
0.01266
0.5639
0.0004354
0.02187
0.0006936
0.07331
0.002613
0.0244
0.3746
0.07014
0.3743
0.01037
0.002051
5.028e-05
0.005798
0.0004715
0.07326
0.003336
0.01112
0.02448
0.02147
0.3692
0.5271
0.02085
0.3189
0.01434
0.000741
0.002741
0.01642
0.0009224
0.0002139
0.0001219
0.4165
0.5613
0.01149
0.3287
0.00661
0.02925
0.002863
0.0002934
0.002372
7.568e-05
0.02205
6.181e-06
0.1852
0.005486
0.5756
0.01461
0.5389
0.0103
0.5587
0.607
0.00498
0.0007655
0.01072
0.037
0.017
0.01651
0.0002457
0.5524
0.01664
0.0007531
0.02188
0.004349
0.5741
0.0002595
0.001745
0.001258
0.01077
0.007919
0.0007777
0.00452
0.01107
0.007884
0.000396
0.06243
0.0005588
0.001422
0.0003605
0.4196
0.006329
0.00434
0.0008958
0.1389
0.0002982
0.05657
0.01941
0.02749
0.07981
0.03221
0.551
0.07559
0.009964
0.004561
0.01457
0.00437
0.396
0.5608
0.3963
0.181
0.05078
0.01212
0.0005919
0.0004282
0.0005271
9.989e-05
0.0004233
0.02221
0.6001
0.07251
0.009757
0.003264
0.6013
0.01153
0.4201
0.04466
0.07307
0.004326
0.0006465
0.02647
0.5606
0.0195
0.0001647
0.00357
0.003503
0.3979
0.01013
0.3247
0.02284
0.000472
0.3475
0.0006209
0.01685
0.00044
0.04397
0.0008226
0.001279
0.01262
0.5582
0.0008228
0.00388
0.01104
0.001765
0.009178
0.01124
0.0967
0.0001749
0.1055
0.01025
0.0003259
0.01091
0.00149
0.02418
0.008328
0.0003264
0.01839
0.01332
0.03503
0.07955
0.002198
0.4906
0.01282
0.003892
0.001399
7.183e-06
0.3974
0.00606
0.04471
0.5162
0.008054
0.002236
0.0122
0.03117
0.004924
0.002298
0.001018
0.001112
0.002236
0.01558
0.005004
0.06649
0.4103
0.3524
0.001549
0.005048
0.1265
0.2051
0.002716
0.003694
0.5864
0.01281
0.01475
0.01023
0.6118
0.0008631
0.1058
0.004079
0.6055
0.003377
0.008022
2.962e-05
0.002223
0.4175
0.01265
0.02755
0.0004601
0.3924
0.307
0.307
0.00836
0.0006435
0.06746
0.006505
0.001169
0.3348
0.0009292
0.002802
0.0003626
0.01103
0.4211
0.00384
0.001458
0.5744
0.004033
0.001842
0.0001112
0.001501
0.07572
0.001517
0.009561
0.01444
0.5788
0.006878
0.396
0.3646
0.002583
0.002078
0.5727
0.263
0.0005872
0.003633
0.0006237
0.004445
0.0006846
0.06032
0.01799
0.000488
0.5146
0.06516
0.005548
0.01454
0.002883
0.01731
0.000146
0.00314
0.08667
0.007249
0.001062
0.06766
0.006022
0.01395
0.01026
0.007362
0.5564
0.001987
0.5432
0.05634
0.3943
0.000243
0.002441
0.0037
0.0005247
0.0003697
0.5838
0.0139
0.005017
0.006439
0.0007926
0.0008206
0.0154
0.01178
9.592e-05
0.007108
0.001653
0.0242
0.002902
0.008035
0.5567
0.001229
0.0007788
2.715e-05
0.01469
0.001219
0.046
0.01105
3.85e-05
0.3854
0.0008738
0.003623
0.5658
0.001548
0.01535
0.009483
2.086e-05
1.774e-05
0.005768
0.0002946
0.01102
0.01179
0.0003136
0.004571
0.002848
0.0002545
0.586
0.003807
0.01252
0.001118
0.04171
0.007069
0.03746
0.08522
0.4116
0.002746
0.001636
0.5597
0.0008259
0.6067
0.008208
0.0003173
0.5694
0.002915
0.01926
0.4161
0.59
0.000154
0.001553
0.3631
0.3626
0.007778
0.001649
0.0002509
0.0002905
0.0003718
0.1192
0.005912
0.00254
0.0008707
1.54e-05
0.02261
0.001009
0.001377
0.02572
0.008725
0.01315
0.5734
0.4202
0.3165
0.3169
0.00221
0.0001109
0.07995
0.01228
0.000336
0.01412
0.002654
0.2797
0.5865
0.003103
0.001603
2.178e-05
0.003552
0.0005615
0.07311
0.005325
0.001321
0.0005365
0.1701
0.0007704
0.006289
0.01265
0.0297
0.5685
0.0007233
0.003351
0.003116
0.3596
0.009426
0.3949
0.00384
0.0001873
0.1243
0.004209
0.003198
1.259e-05
0.02278
0.008819
0.2244
0.5747
0.003551
0.02744
0.0002657
0.01333
0.003183
0.01477
0.0004927
0.07048
0.003795
0.02844
0.5067
0.5997
0.007467
0.0009065
0.002717
0.006145
2.014e-05
0.0003093
0.001872
0.0003161
0.0007848
1.969e-05
0.01796
0.007011
0.002797
3.381e-06
0.2715
0.006981
8.357e-05
0.02555
0.00777
0.02933
0.4192
0.02752
0.004911
0.0005696
0.5123
0.3721
0.001151
0.0009677
0.0001172
0.00102
0.03417
0.1286
0.4505
0.001692
0.008628
0.0003902
0.02452
0.004322
0.6096
0.00283
0.5064
0.004211
0.005804
0.01759
0.0002585
0.08137
0.007914
0.001724
0.01115
0.4751
0.0002842
0.02998
0.002565
0.009416
0.2943
0.07909
0.0002523
0.2961
0.0008707
0.001351
0.0008104
0.0238
0.006486
0.357
0.5955
0.01141
0.01834
0.003112
0.05383
0.01462
0.002719
0.5718
0.03819
0.01745
0.004355
0.0056
0.0254
0.0002017
0.0007664
0.49
0.1894
0.001307
0.003851
0.001493
0.0005848
2.346e-05
9.492e-05
0.01799
0.5856
0.004499
0.000625
0.415
0.004223
0.04342
0.5734
0.002808
0.5592
0.00382
0.00983
0.008529
8.235e-05
0.00864
0.02148
0.02408
0.575
0.0003713
0.0004873
0.5885
2.073e-05
0.002467
0.002126
0.01357
0.5755
0.4351
0.001674
0.0324
0.002055
0.03062
0.0002909
0.00839
0.005947
3.825e-05
0.00265
0.005334
0.006837
0.0004322
0.00599
0.01683
0.0001741
0.2898
0.001544
0.007607
0.006804
0.0001259
0.04674
0.001629
0.006092
0.0008931
0.01111
1.454e-05
0.0002249
0.4701
0.003675
0.0004298
0.00304
0.00746
0.01441
1.447e-05
0.0001791
0.5959
0.003947
0.0005396
0.07926
0.003959
0.382
0.586
0.06025
0.0004273
0.0001272
0.003399
0.003517
0.02384
0.4203
0.01925
0.5733
0.003254
0.0951
0.0005216
0.03281
0.004677
5.692e-06
0.3655
0.002265
0.4175
0.005488
0.0006829
0.03796
0.0009735
0.0004879
0.001011
0.006405
0.002593
0.03024
0.01831
0.1175
0.001543
1.811e-05
0.1425
0.4633
0.001201
0.002997
0.0006437
9.957e-06
0.00458
6.67e-06
0.009063
0.001647
0.01118
0.05717
0.01039
0.002947
0.05941
0.001659
0.0005047
0.004961
0.0001457
0.001309
0.009877
0.0005658
0.005148
0.000271
0.005778
0.0001791
0.005871
0.01696
0.004519
0.001776
0.02254
0.006536
0.05528
3.388e-05
0.1883
0.0009532
0.005668
0.004483
0.01561
0.0001169
0.5841
0.5838
0.2444
0.001262
0.2471
0.000117
0.09785
0.07162
0.5304
4.847e-05
0.01924
0.002467
0.3279
0.006118
0.0001999
0.001391
0.0005109
0.0002627
0.3376
0.3366
0.01427
0.5903
0.002844
0.0487
0.2544
0.0004044
0.01916
0.0003241
0.00959
0.007703
3.553e-05
0.4107
0.009869
0.6162
0.0002044
0.002401
0.004135
0.05168
4.565e-05
0.009234
0.001742
0.1479
3.394e-06
0.0003359
0.0004779
0.003536
2.164e-05
0.00147
2.266e-05
0.2998
0.03198
0.01877
0.0005081
0.004968
0.5771
0.06627
0.001531
0.01279
0.004545
0.0008611
0.001238
0.01256
0.006783
6.566e-05
0.01871
0.005261
0.4863
0.005027
0.004571
0.0513
0.03108
0.002344
0.002965
4.444e-06
0.02901
0.008337
0.001196
0.579
0.01669
0.5763
0.002545
0.006219
0.0007978
0.0001707
0.01596
0.0005607
0.09006
0.001694
0.5014
0.1551
0.002531
0.00425
0.01395
0.4743
0.4744
0.597
0.0003361
0.003344
0.0007228
0.0008318
0.001601
0.008308
0.5616
0.5531
0.001941
0.0006933
0.4186
0.0009405
0.01109
0.001344
0.5018
0.0004345
0.2718
0.5097
0.01432
0.5785
0.02001
0.08176
9.866e-06
0.01771
0.1097
0.002204
0.5692
0.0004475
0.01364
0.004131
0.0001452
0.008359
0.002251
0.5263
0.002899
0.38
0.002647
0.005514
0.00108
0.08732
0.0001991
0.5755
0.007539
9.195e-05
0.03852
0.0002634
0.005404
0.005859
0.5756
0.02499
0.03492
0.6504
0.01413
0.002184
0.002634
0.004343
0.0003221
3.453e-05
1.88e-05
0.01536
0.132
0.02346
0.0008407
0.5946
6.238e-05
0.0191
0.004109
0.001368
1.796e-05
0.009223
0.0003979
0.002009
3.234e-05
0.01452
0.03065
0.2017
0.00394
0.3276
0.01538
0.005922
0.00347
0.0004186
0.0272
0.03721
0.1927
0.005711
0.01353
0.04658
0.005574
0.03647
0.00674
0.4576
0.4916
0.0319
0.2491
0.5851
0.005154
0.01142
0.4885
0.03047
0.1313
0.01158
0.01106
0.02028
0.0005037
0.001823
0.3223
0.589
0.34
0.5289
0.01649
0.05807
0.004656
0.0004225
6.449e-06
0.5247
0.001743
0.483
0.001877
0.5135
0.00768
0.02002
0.578
0.003131
0.02549
0.003013
0.5662
0.2987
0.02201
0.5895
0.03313
0.04427
0.001871
0.01002
0.002558
0.0009012
0.0032
0.02709
0.04508
0.09388
0.0013
0.02533
0.1542
0.5785
0.06564
0.007121
0.01417
0.4693
0.0001447
0.001301
0.003164
0.5883
0.5973
0.0004355
0.5746
0.0002756
0.01042
0.05179
0.6473
0.0002405
0.03469
0.01532
4.135e-05
3.059e-05
0.02823
0.01814
0.5821
0.0004133
0.01517
0.0439
0.005505
0.009525
0.5848
0.01416
0.001514
0.005391
0.001949
0.003693
0.005823
0.0005226
0.002703
0.08743
0.13
0.002681
0.4477
0.001074
0.0001094
0.01363
0.0002088
0.004045
0.05476
0.008341
0.00382
0.5582
0.1185
0.001599
0.007608
0.01147
0.001515
0.5883
0.003883
0.03732
0.006696
0.0006387
0.004031
0.008327
0.381
0.003295
0.001609
0.0004585
0.001575
6.307e-05
0.00267
0.06369
0.08966
0.002462
0.000777
0.005761
5.967e-06
0.02054
0.009798
0.005263
0.00164
0.4186
0.03001
0.007965
0.004275
0.1711
0.002113
0.004123
0.002822
0.002901
0.026
0.005771
0.0002497
0.002496
0.03399
0.0203
0.0004225
0.005218
0.0359
0.4331
0.004314
0.02322
0.01695
0.4546
0.001804
0.03976
0.419
0.03704
0.00335
0.003099
0.001712
0.02888
0.01597
0.00133
0.002216
0.5637
0.0007953
0.0004732
0.02887
1.837e-05
0.5241
0.0007871
0.0008957
0.002867
0.007507
0.00422
0.5923
0.1118
0.006396
0.02708
0.002755
0.03153
0.4124
0.001095
0.01198
0.01358
0.01209
0.02182
0.574
0.06545
0.03699
0.003007
0.001656
0.001776
0.001707
0.00116
0.3593
1.975e-05
0.004708
0.1231
0.006737
0.002116
0.001263
0.002632
0.001866
0.05833
0.04405
0.002764
0.1657
0.005655
0.07021
0.426
0.002437
0.0151
0.02862
0.003422
0.1286
0.5695
0.01167
0.007418
0.02437
0.002219
0.003306
7.901e-05
0.001756
0.004459
0.002716
0.00259
5.644e-05
0.0001459
0.000887
0.08328
0.001572
0.5956
0.4529
0.00505
0.002707
0.007165
0.002704
0.003435
0.03832
0.003932
0.003672
0.01586
0.001965
0.001178
0.5826
0.2903
0.582
0.0003482
0.0007718
0.002217
0.0009622
0.5888
0.02923
0.005803
0.5747
0.0089
0.06228
0.0004436
0.005139
0.004515
0.021
0.001711
0.008344
0.003037
0.5664
0.002077
0.01275
0.0003137
0.5752
0.5901
0.5731
0.001005
0.0106
0.0006371
0.0009081
0.0006718
0.04965
0.005831
0.5756
0.5752
0.002293
0.00535
7.844e-06
0.003497
0.0167
0.07189
0.5795
0.4677
0.004046
0.006411
0.5772
0.04174
0.0005499
0.001657
0.04751
0.04645
0.4359
0.02078
0.004359
0.0004065
0.0002211
0.002128
0.01753
0.0008034
0.03952
0.0004183
0.004487
9.216e-05
0.0004217
0.02869
0.001002
0.0001877
0.003713
5.619e-05
0.0008123
0.0338
0.02231
0.0003339
0.04676
0.02766
0.08392
0.549
0.1277
0.006002
0.0001292
0.03331
0.002335
0.0001235
0.004681
0.001494
0.3794
0.08386
0.0009631
0.02137
0.003271
0.4194
0.003863
0.001655
0.01728
0.0008745
0.002833
0.02034
0.001066
0.4196
0.00363
0.02968
0.00819
0.4646
0.0002385
0.0003418
0.0006257
0.0024
0.00954
0.01037
0.001838
0.5977
0.003089
0.005144
0.01283
0.00294
0.0008313
5.664e-05
0.02051
0.2538
0.008085
0.5721
0.01955
0.001041
0.000925
0.0001855
0.001529
0.008908
0.3069
0.3062
6.267e-05
0.001972
0.0003179
0.001862
0.01239
0.5926
0.5891
0.4071
0.002132
0.386
0.4107
0.0003445
0.5909
0.0004857
0.01462
0.06615
0.0156
0.004555
0.0293
0.4283
0.0002984
0.01509
0.007078
0.5802
0.02882
0.01267
0.001004
0.001737
0.002087
0.0477
0.04023
0.004669
0.0004623
0.00352
0.6235
0.03038
0.04691
0.003411
0.01306
0.001736
0.001744
7.076e-05
0.0001871
0.02865
0.0007149
0.2347
0.2699
0.0003743
0.01456
0.001098
0.02317
0.01036
1.852e-05
0.001297
0.5751
0.008634
0.06296
0.009575
0.001615
0.001794
0.4801
0.5734
0.001664
0.662
0.01103
0.01249
0.004635
0.4586
0.5346
0.5643
0.01019
0.1696
0.00547
7.289e-06
0.001796
0.0007519
0.001305
1.437e-05
0.008387
8.658e-07
0.0007459
0.0007311
0.02748
0.005616
0.658
0.1251
0.001686
0.1346
0.634
0.002454
0.3707
0.0145
0.5424
0.01842
0.003925
0.002062
0.0001681
0.0002848
0.002675
0.00833
0.005312
0.4195
2.011e-05
0.008495
0.0007097
0.422
0.00617
0.003292
0.0007257
0.5647
0.0004249
0.000162
0.5838
0.0002342
6.583e-05
0.001546
0.002431
0.00456
0.1507
0.001496
0.4433
0.03865
0.000898
0.002726
0.005119
0.03969
0.009814
0.001097
0.02173
4.736e-06
0.02633
0.003115
0.3858
0.5761
0.01395
0.006394
0.5299
0.01182
0.01341
0.004592
0.001364
0.00555
0.04779
0.3644
0.009529
0.01505
2.465e-05
0.3499
0.191
0.009582
0.01495
0.004738
0.01612
0.0003559
0.4202
0.0201
0.04884
0.002472
0.007791
0.0005093
2.327e-06
0.005656
0.5689
0.007481
0.04654
0.03334
0.6668
0.2584
0.001902
0.00971
5.367e-06
0.0001651
0.000428
0.6163
0.1087
0.0031
0.00729
0.006401
0.5788
0.0004671
0.00359
0.0009364
0.0008016
0.000888
0.0001874
0.0008635
0.3865
0.0001901
0.02086
0.0007667
0.02543
0.0009479
0.3866
0.5919
0.001464
0.006803
0.1029
0.3813
2.272e-05
0.004659
1.08e-05
0.1467
0.00109
0.02316
0.002239
0.0002897
0.003376
0.01073
0.002626
0.003823
0.6192
0.00269
0.005058
0.0004567
0.004754
0.002016
0.001246
0.6289
0.6289
0.002014
0.0001997
0.06484
0.004297
0.001204
0.001502
0.008529
0.08573
1.163e-05
0.5866
0.02615
0.5789
0.01108
0.007847
0.6008
0.5832
0.05244
0.00197
0.01348
0.003889
0.0005552
0.001109
0.03208
1.456e-05
0.02136
0.001278
0.00729
0.0002211
0.01247
0.001519
0.462
0.0002162
0.006586
0.019
0.0007789
0.4586
0.01126
0.5481
0.1334
0.002936
6.848e-06
0.002213
0.002325
0.02396
0.0009723
0.1079
0.004899
0.4432
0.00342
0.008238
0.001736
0.01179
0.003619
0.5977
0.007977
0.06929
0.01093
0.0078
0.4061
0.0003754
0.007512
0.00255
0.002205
0.0008105
0.02116
0.01076
0.01205
0.3511
0.0001937
0.4678
0.01376
0.004133
0.01168
0.03317
0.02445
0.5839
4.801e-05
0.003325
0.0004499
0.5819
0.0001629
0.0007353
0.009489
0.0008344
0.003297
0.0009409
0.0001918
0.6468
0.0009179
0.02936
0.1598
0.000127
0.005284
0.5905
0.004982
0.003164
2.927e-05
0.04345
0.5808
0.001565
0.000722
0.01534
0.02455
0.00718
0.0009356
0.02756
0.003879
0.4988
0.00532
0.01863
1.842e-05
0.001236
0.001906
0.5981
0.0007049
0.08221
0.04041
0.0006985
0.001333
0.005888
0.002395
0.03274
0.001628
0.008548
0.0005486
0.1242
0.00112
0.2817
0.0009836
0.01343
0.0005943
2.14e-05
0.0002275
0.000536
0.01147
0.0006982
0.001441
0.0001506
0.06165
0.01455
3.58e-05
0.2985
0.002642
1.762e-05
0.001141
0.006304
0.0007528
0.004261
0.002404
0.318
0.0001273
0.003264
0.00913
0.0001473
0.0007584
0.5754
1.175e-05
0.05815
0.001203
3.818e-05
0.0033
0.002071
0.001651
0.4505
0.02634
0.006962
0.5583
0.3511
0.009202
0.07068
1.892e-05
0.0002871
0.00202
0.0002145
0.001341
0.001611
0.0006672
0.04894
0.006
0.01763
0.02713
7.627e-06
0.4464
0.5884
0.0008271
1.83e-05
0.01514
1.74e-05
0.02592
0.006572
0.007496
0.5744
0.001999
0.4526
0.0003456
0.001247
0.07018
0.001697
0.000825
4.789e-05
0.07756
0.002917
0.04836
0.00541
0.02204
0.4355
0.1947
0.001335
0.5918
3.578e-05
0.6347
0.002157
0.6204
0.003765
7.129e-06
5.687e-05
0.002306
0.001096
0.1332
0.0005724
0.00466
0.01218
0.007659
3.901e-06
0.385
0.0003005
0.003275
0.5862
1.76e-05
0.02835
0.2155
0.0003123
0.07428
0.0002786
0.00118
0.1723
0.01067
0.01676
0.004819
0.07963
0.2129
0.000464
0.003376
0.4205
0.05723
0.003849
0.005052
0.0001567
0.6525
3.273e-05
0.01525
0.4088
1.76e-05
0.008887
0.01977
0.4565
0.4569
0.3498
0.03217
0.01054
0.000509
0.006413
0.3343
0.5931
0.002141
0.0006792
0.01001
0.03355
0.4609
0.5868
0.01983
3.637e-05
0.01097
0.03197
0.007168
0.5617
0.05204
2.272e-05
0.412
1.088e-05
0.4961
0.581
0.461
0.02692
0.4442
0.004104
0.5638
1.263e-05
0.001275
0.001544
0.001874
0.02633
0.02086
0.0001157
0.01935
0.0008535
0.012
0.05343
0.0006594
0.001821
0.0006495
1.505e-05
0.002948
0.0001471
0.04703
0.00483
0.007186
0.07942
0.03247
0.001288
0.04198
0.03049
0.002403
0.000177
0.319
0.04259
0.1466
0.1468
0.01821
0.002836
0.637
1.275e-05
0.01448
0.6205
0.009807
0.01459
0.0002307
0.006326
0.001853
0.0002076
0.0004391
0.4169
0.0133
0.009966
0.01453
0.003398
0.0006793
0.02614
0.009399
0.04753
0.009021
0.0002591
0.0002554
0.001004
0.005415
0.00408
2.475e-05
0.009702
0.01145
0.001317
0.001623
0.006273
0.001649
0.02835
0.00305
0.5797
0.01081
0.5744
0.5511
0.0007053
0.001748
0.004048
0.5628
0.02007
0.01501
1.506e-05
0.5054
0.5054
0.00597
0.002633
5.166e-06
0.002064
0.002112
0.002979
0.001747
0.002485
0.6113
0.01876
0.008413
0.5814
0.0003051
0.0005219
0.08143
0.01538
0.1003
0.01381
0.003963
0.3591
0.4283
0.006592
0.002582
0.3708
0.3697
0.001713
0.0007591
0.001929
0.03649
0.02823
0.4919
0.02734
2.564e-05
0.001861
0.004794
0.0003195
0.000169
0.003912
0.0004896
0.004044
0.002656
0.0001444
0.002031
0.01417
0.5729
0.0001416
1.617e-05
0.002333
0.004981
0.03855
0.1268
2.326e-05
0.0003715
0.04487
0.0002106
0.003245
0.002598
0.4077
0.001609
1.718e-05
0.0006151
0.04802
0.0007012
0.002277
2.504e-05
0.007902
0.002043
0.05025
0.5905
0.000198
0.4724
0.02595
0.0003921
0.0005951
0.168
0.01846
0.002925
0.0253
0.04975
0.00117
1.87e-05
0.0009238
0.1939
0.005204
0.5867
0.01299
0.001534
0.0004392
0.002973
0.002029
0.002293
0.005783
0.1553
0.39
2.232e-05
0.004482
0.001108
0.0002356
0.001215
0.04199
0.01143
0.002771
0.03898
0.001404
0.01889
0.0003809
0.0002833
0.0005844
0.008772
0.3777
0.0002743
0.3867
0.002137
0.0007656
0.0008699
0.4212
0.07655
0.01213
1.723e-05
0.003617
0.001779
0.004548
0.005137
0.01012
1.973e-05
0.000426
0.0004993
0.0009084
0.0002358
0.007004
0.003413
0.0001292
0.004483
0.004418
0.01669
0.3921
0.3057
0.01928
0.007717
0.531
9.887e-05
2.046e-05
0.5779
0.003565
0.02302
0.001372
0.01011
0.003178
0.008166
0.1402
0.005964
0.000983
0.02131
0.5677
0.001891
0.003183
0.007887
0.0006095
0.002974
0.003609
0.000452
1.459e-05
0.007463
0.001284
1.603e-05
0.3911
0.4178
0.0156
0.00921
0.5741
0.01569
0.00446
0.005582
0.0001783
0.0006892
0.0151
0.4541
0.3237
0.3889
0.37
0.0005101
0.5815
1.714e-05
1.859e-05
0.609
0.03392
0.003644
0.003027
0.001031
0.003967
0.00185
0.5775
0.000726
0.4825
1.411e-05
0.007127
0.0004767
0.01362
0.0001436
0.000556
0.007037
0.5754
0.005335
0.008839
0.01388
2.861e-05
0.009269
0.01362
0.02827
0.00133
0.001361
0.00308
0.00266
0.003456
0.4173
0.00132
0.4987
0.4113
0.1123
0.5652
0.03379
0.0413
1.249e-06
0.3935
0.007212
0.000849
0.5691
0.5729
0.01633
0.0496
0.01671
0.005629
0.001332
0.00862
0.02348
0.5304
0.00245
0.02009
0.004187
0.5648
0.002163
1.411e-05
0.0006389
0.00796
0.4434
0.4445
0.5962
7.771e-05
0.0004258
0.008499
0.4857
0.0002506
0.3381
0.02194
0.09542
0.6008
0.02869
0.003937
0.004138
0.01324
0.0001573
0.000897
0.01055
0.0007121
0.3997
0.001139
0.01811
0.4165
0.01809
0.05052
0.004834
0.000641
0.004369
0.0009571
0.0008397
0.004976
0.001153
0.005377
0.004938
0.07402
0.000599
0.003852
0.003047
0.005117
0.1025
0.004726
0.005079
0.5744
0.006727
9.892e-06
0.007328
0.000815
0.01266
0.0009879
0.003924
0.005405
0.005221
0.5841
0.0007345
0.02425
2.171e-05
0.01185
0.0008612
0.0111
0.04131
0.008731
0.02033
0.005121
0.007108
0.001471
0.009929
0.02358
0.4298
0.4297
0.1396
0.02666
0.1131
0.009395
0.002493
0.001482
0.0007717
0.03
0.02318
8.038e-05
0.004663
0.0253
0.5955
0.002463
0.002351
0.6625
0.000389
0.02359
1.894e-05
0.0005603
0.04875
0.001104
0.6144
0.004431
0.0017
0.03192
0.002667
0.5404
0.0004716
0.0001245
0.3359
0.003275
0.003096
0.0009795
0.001939
0.04097
0.5958
0.001765
0.005595
0.001763
0.004183
0.001797
0.008868
1.396e-05
0.001864
0.001333
0.2311
0.005517
1.818e-05
4.554e-06
1.867e-05
0.07225
0.02159
0.392
0.6114
0.4551
0.5753
0.6
0.1497
0.0003747
1.179e-05
0.005196
0.009704
0.001475
0.0005254
0.006594
6.057e-05
0.02379
0.008584
0.0288
0.02874
0.001007
0.5144
0.5721
0.2718
0.5019
0.5744
0.007499
0.0001301
0.3404
0.00112
0.2975
0.0003537
0.2731
0.0002842
0.004569
0.001322
0.001849
0.3142
0.05466
0.4703
0.008857
0.002686
0.02268
0.3581
0.000631
0.6009
0.5909
0.007691
0.007839
0.4895
0.1353
0.01444
0.0007638
0.09729
0.5932
0.5773
0.01014
0.5773
0.003978
0.0008558
0.01812
0.004162
0.0757
0.01556
1.924e-05
0.03207
0.0267
0.03694
0.01029
0.004079
0.3073
0.0217
0.4206
0.006788
0.002343
0.07429
0.0001047
0.007799
0.07067
0.0003044
0.007227
0.561
0.6299
0.0004547
0.5799
0.0008226
0.6113
8.538e-05
0.01329
0.006406
0.007763
0.005278
0.01019
0.0002874
3.179e-05
0.002507
0.001104
0.4237
0.001367
0.007646
0.3069
0.01426
0.0008165
0.002679
0.0006103
0.01011
0.004642
0.01423
0.08023
0.2397
0.00857
0.0008649
0.0001644
0.5685
0.03729
1.151e-05
0.006724
0.334
0.01127
0.000122
0.01645
0.0016
0.008202
0.5792
0.01216
0.02295
0.5787
0.0002748
0.001504
0.04401
0.03783
0.5774
0.001708
0.0007398
3.583e-05
0.0001703
3.471e-05
0.0006249
0.02179
0.08668
0.0007592
0.0006092
0.002003
0.00744
0.006937
0.00143
0.005999
4.255e-06
0.004137
0.0007687
0.00297
0.002616
0.0004958
0.06607
0.5666
0.5884
0.003376
0.004915
0.003043
0.02186
0.08804
0.0006487
0.004966
0.006708
0.6312
0.02377
1.671e-05
0.01402
0.2479
0.001654
0.6156
0.006997
0.03126
0.001104
0.0009727
0.5749
0.000777
0.001121
0.004945
0.0007646
0.02615
0.01572
0.003505
0.002747
0.0009695
0.319
0.001147
0.0434
0.1707
0.01277
0.3423
0.001633
0.01043
0.006165
0.0161
7.734e-06
0.009691
0.002724
0.01202
0.003989
0.0006807
0.0004891
0.5425
0.001461
0.001232
0.0004949
0.001358
0.001892
0.004622
0.04428
0.008589
0.003459
0.0004539
0.1293
0.5113
0.001218
0.01639
9.501e-05
0.1348
2.352e-05
0.02572
0.03417
0.3502
0.6428
0.002827
0.002151
0.01278
0.0009778
0.0001093
0.5644
0.02456
0.0005866
0.01415
0.001058
0.04701
0.01225
0.04309
0.001411
0.07778
0.5745
0.0005496
0.0008149
0.03013
0.0004685
0.0002441
0.003538
0.001695
0.147
0.01362
0.009561
0.00793
0.02062
0.001439
0.009147
0.03662
0.005451
0.002586
0.003934
0.003276
0.2872
0.2879
0.01813
0.004085
0.001444
0.003193
0.0007733
0.000397
0.0009754
0.0008709
0.002657
0.003284
0.0003811
0.0007343
0.6205
3.319e-05
0.03272
0.00112
0.02207
0.5253
0.0009069
0.02698
1.355e-05
0.5766
1.006e-05
1.177e-05
0.5741
0.02118
0.0008263
0.004079
0.007205
0.07477
0.001099
0.0008845
0.02257
0.01463
0.01158
3.957e-05
0.001195
0.00907
3.118e-05
0.001229
0.488
0.00175
0.0006001
0.5798
0.5562
0.1868
0.01722
0.02345
0.01258
0.01171
0.0002238
0.01307
0.004967
0.08389
0.4018
0.001134
0.347
8.581e-06
0.0001951
0.01188
0.00134
0.006495
3.814e-05
4.151e-06
0.02567
0.02495
0.01876
0.07597
0.003156
0.001708
0.1732
0.3982
0.004326
0.009246
0.00909
0.002916
0.003089
0.00391
0.001645
0.0003342
0.4237
0.004746
0.0001042
0.002449
0.5737
0.002626
0.008627
0.01079
0.008122
0.001525
0.00038
2.183e-05
0.5763
0.005361
0.006769
0.001962
0.004358
0.3423
0.02194
0.0005817
0.005862
0.03686
0.003178
0.0004835
0.001012
0.03895
0.001216
0.008657
4.218e-05
0.601
0.0003762
0.0005246
1.781e-05
0.3213
0.04898
0.5912
0.0588
0.5748
0.49
0.5573
0.00173
0.005814
0.004821
0.002576
0.3731
0.5899
0.0006152
0.578
0.02955
0.575
1.022e-05
3.608e-05
2.363e-05
0.002282
0.3855
0.001227
0.1591
0.003544
0.0005004
0.3975
0.01315
0.2088
0.42
0.0007974
0.1974
0.001365
0.0006922
0.3409
0.003666
0.002818
0.001098
0.005545
0.5419
0.02547
0.003842
0.01091
0.0008306
0.002936
0.002604
4.19e-05
0.0005521
0.08577
0.03438
0.004476
0.01011
0.02906
0.007253
0.001985
0.006951
0.001813
0.01086
0.000452
0.00214
0.02653
0.0013
0.001603
0.4195
0.00351
0.3216
0.3225
0.4131
1.259e-05
0.0287
0.03684
0.003297
0.445
0.5779
0.0003107
0.004092
0.003663
0.005915
0.007658
0.6044
0.008988
0.007885
0.005377
0.006425
0.009168
0.001711
0.5605
0.04221
0.05918
0.01776
0.01711
0.04102
0.001589
0.07123
0.0139
0.000859
0.0009442
0.002696
0.005415
9.299e-07
0.01629
0.03043
2.086e-05
0.04558
0.06414
0.001367
0.01358
0.005642
8.592e-06
0.5912
0.3722
0.006396
0.001917
0.001671
0.004463
0.02341
0.0008841
0.001073
0.01161
0.0002207
0.002772
0.01643
0.001044
0.5294
0.0006856
0.03827
0.01164
0.002066
6.53e-07
0.02959
0.3972
0.002123
0.007958
0.5854
0.03757
0.01294
0.0006494
0.009444
0.02862
0.01113
0.02205
0.0004144
0.00264
1.44e-05
0.01783
6.651e-05
0.3947
0.01018
0.01098
0.05067
0.1285
0.3982
6.632e-05
0.009833
0.4055
0.002024
0.01199
4.952e-05
0.0001499
0.0005377
0.3323
0.00236
0.5482
0.01826
0.5877
0.0108
0.004178
0.01106
0.0009576
0.1755
0.003074
0.4943
0.2839
0.5835
0.0009689
0.003396
0.01241
0.5769
0.007806
0.003779
0.001404
0.01471
0.2895
0.002214
0.01699
0.0008241
2.23e-05
0.002761
0.2972
0.09514
0.02325
0.001584
0.3387
0.008801
0.0009222
0.0009276
0.0008176
0.0101
0.0003159
0.006274
0.07316
0.01005
0.0002402
0.1757
0.0007171
0.0008053
0.0002521
0.03354
0.0006428
0.009453
0.03027
0.0004523
0.5584
0.000393
0.0009341
0.0005863
0.3806
0.002073
0.007052
0.0009549
0.001524
0.001284
0.07084
0.008508
2.246e-05
1.902e-05
0.01031
0.001811
0.02918
0.1751
0.003439
0.5288
0.5766
0.001042
0.03099
0.4185
0.004745
0.001483
0.5779
0.003964
0.5515
0.02462
0.002939
0.008358
0.0009651
0.4182
0.004409
0.003235
0.0261
0.0004591
0.5957
0.006674
0.06671
0.6262
0.007237
0.02356
0.5789
0.3333
0.02316
0.002988
8.98e-06
1.71e-05
0.007854
0.04615
0.553
0.002059
0.04443
0.002768
0.01293
0.5833
0.08021
0.007311
0.5747
0.5757
0.0001865
0.1011
0.4274
1.789e-05
0.002982
0.004121
0.002975
0.343
0.5695
0.0002811
0.02846
0.0001958
0.01582
0.248
0.002435
0.003963
0.007664
0.01518
0.02164
0.01273
0.000331
0.0003618
0.003937
0.00069
0.007946
0.00397
0.00176
0.002905
0.008542
0.01721
1.243e-05
0.0001449
0.003349
0.00107
0.00682
0.5618
0.005013
0.0004136
0.6085
0.0004535
0.0001005
0.00331
0.02034
0.001684
0.0004689
0.07088
0.3896
0.0005139
0.449
0.002231
0.0115
0.3094
0.3104
0.008142
0.03735
1.762e-05
0.0005279
0.008675
0.004608
0.00771
0.005566
0.02127
0.0008957
0.2481
0.006454
1.453e-05
0.001251
0.5793
0.002877
0.02548
0.003677
0.3588
0.003242
0.012
0.0002481
0.007333
2.363e-05
2.196e-05
0.6207
0.004721
0.01757
0.003883
0.0006927
0.00141
1.996e-05
0.0006625
0.6211
0.5708
0.001184
0.5787
0.02651
0.0003274
0.009789
0.001269
0.002762
0.01019
0.3363
0.003248
0.003163
0.01884
0.0006938
0.01149
0.006093
0.003771
0.3027
0.02536
0.05075
0.0005754
0.0007338
0.008004
0.002463
0.002954
0.00325
0.6129
0.004235