/*--------------------------------*- C++ -*----------------------------------*\
| =========                 |                                                 |
| \\      /  F ield         | OpenFOAM: The Open Source CFD Toolbox           |
|  \\    /   O peration     | Version:  v2012                                 |
|   \\  /    A nd           | Website:  www.openfoam.com                      |
|    \\/     M anipulation  |                                                 |
\*---------------------------------------------------------------------------*/
FoamFile
{
    version     2.0;
    format      ascii;
    class       surfaceScalarField;
    location    "5";
    object      phi;
}
// * * * * * * * * * * * * * * * * * * * * * * * * * * * * * * * * * * * * * //

dimensions      [0 3 -1 0 0 0 0];
oriented        oriented;


internalField   nonuniform List<scalar> 
176786
(
4.8e-07
-4.801e-07
2.454e-05
-2.454e-05
8.775e-05
-8.775e-05
-0.0001138
0.0001138
-4.628e-05
4.628e-05
-0.0001242
0.0001242
-8.08e-05
8.08e-05
1.216e-05
-1.216e-05
3.435e-05
-3.435e-05
-5.266e-05
5.266e-05
-3.72e-05
3.72e-05
0.0002008
-0.0002008
-3.995e-05
3.995e-05
-5.737e-05
5.737e-05
-7.015e-06
7.015e-06
6.119e-06
-6.119e-06
1.166e-05
-1.166e-05
3.53e-05
-3.53e-05
7.728e-06
-7.728e-06
5.955e-06
-5.955e-06
6.085e-05
-6.085e-05
-2.038e-06
2.038e-06
-2.038e-06
1.26e-06
-1.26e-06
-5.955e-06
5.955e-06
-0.0003866
0.0004596
-7.305e-05
-1.97e-05
1.197e-05
7.731e-06
0.0006751
-0.001358
0.0006831
6.639e-06
0.000102
-0.0001086
1.675e-06
3.628e-07
0.001144
-0.001159
1.525e-05
-0.000248
0.0003827
-0.0001347
0.6279
-0.2244
-0.4035
-0.000342
0.0003461
-4.138e-06
-2.952e-06
9.137e-07
-0.0001443
-0.0003121
0.0004564
5.99e-05
1.626e-05
-7.616e-05
-0.001885
-0.001699
0.003584
0.0001816
-0.0006018
0.0004203
0.004881
-0.004634
-0.0002467
0.0002089
0.0006761
-0.000885
-0.002875
0.0004268
0.002448
-0.09423
-0.008256
0.1025
-0.0008561
0.0004363
0.0004198
-0.0002376
0.0008676
-0.00063
0.0009895
-0.0003496
-0.0006399
0.0008277
-0.0004172
-0.0004105
-0.0003861
-4.464e-05
0.0004308
-0.0009898
-0.001885
7.498e-05
-0.0006942
0.0006193
-0.0008824
0.0004495
0.0004328
-0.0003119
-0.0005442
-0.0042
0.0006312
0.003569
-0.0005691
0.0008876
-0.0003186
0.01931
-0.007653
-0.01166
0.0004398
0.0003879
0.2701
0.665
-0.9351
-0.002947
0.003781
-0.0008339
-0.0002002
0.0006736
-0.0004735
-1.97e-05
-0.0003211
-0.0005613
-0.004474
0.005302
-0.0008281
0.00252
-0.002862
0.0003418
0.0003843
0.0002223
-0.0006066
-0.4054
0.1266
0.2788
0.001176
-0.0006815
-0.0004943
5.924e-07
-5.926e-07
-0.004302
0.005751
-0.001449
-8.364e-05
0.0006765
-0.0005929
-4.918e-06
-0.0003812
0.0006254
0.0003641
-0.003418
0.002604
0.000814
0.005794
-0.01238
0.006589
1.795e-07
-1.206e-05
1.188e-05
-0.0005264
0.0002261
0.0003003
-0.0001766
-0.0001654
-0.0002268
-0.0002996
0.001171
-0.0009625
0.0001222
-4.391e-05
-7.829e-05
3.777e-06
-9.72e-05
9.342e-05
0.0005709
-0.001447
0.0008762
0.004152
0.0007287
-0.005945
0.01174
-0.001097
0.0003675
0.000729
0.03036
-0.03011
-0.0002495
-0.0418
0.05534
-0.01355
-0.001607
0.002059
-0.0004519
-0.01733
0.006638
0.01069
0.0007622
0.0004135
-0.001521
0.002192
-0.0006705
-0.121
0.02676
-0.001147
0.002084
-0.0009364
0.1216
-0.3336
0.2119
0.001247
-0.001168
-7.947e-05
-0.04355
0.0003538
0.0432
0.0005384
-0.0009437
0.0004053
-0.000706
-0.0003905
0.08951
-0.2497
0.1602
-0.001545
0.001595
-4.991e-05
0.002308
-0.002653
0.0003453
-0.1151
-0.00884
0.1239
0.0005114
-0.0005075
-3.916e-06
-0.006354
0.005615
0.0007384
2.969e-05
0.000668
-0.0006977
4.38e-07
-0.000387
0.01849
-0.01835
-0.0001387
0.0005112
0.0001675
-0.0006787
8.986e-05
-0.003572
0.003482
0.0005993
-0.009495
0.008895
-0.006322
-0.0666
0.07292
0.03379
-0.003426
0.0003585
-0.0007778
0.0004193
0.00179
0.000592
-0.002382
0.0002295
0.002078
0.0002382
-0.0004838
0.0002455
0.0008145
-0.0004302
-0.001086
0.00092
0.0001657
-0.0001745
0.0005865
-0.000412
0.01478
-0.01951
0.004725
0.09572
-1.023
0.9275
0.0003426
-0.03899
0.03864
0.0004852
-0.0004466
-3.864e-05
0.004597
-0.006355
0.001758
-0.002459
0.002334
0.0001252
-0.04206
0.01641
0.02566
0.002537
-0.01048
0.00794
0.3537
-0.2197
-0.134
-1.37
0.1566
1.213
-1.441
0.1658
1.275
0.0005681
-0.2119
0.3336
1.675
-1.407
-0.2684
0.0002023
-0.000694
0.0004918
-0.0009274
-0.0004293
0.001357
0.1461
-1.516
-1.529
0.08851
-0.003634
0.005387
-0.001753
-0.000519
0.001194
-0.008821
0.01853
-0.009706
-0.9677
1.063
0.0009831
-0.0009228
-6.031e-05
0.5157
0.1123
-0.001298
-0.001161
-0.001311
0.001201
0.0001099
-0.03423
0.07366
-0.03944
2.952e-05
6.953e-06
-3.647e-05
-0.0009019
0.001398
-0.0004958
-0.0006133
-0.002334
7.73e-05
-0.001599
-1.036
0.928
0.1083
-0.006047
0.001745
0.0001191
-0.0001191
-8.457e-05
0.0001186
-3.399e-05
-9.773e-05
0.0001015
0.0005945
0.001926
0.001288
-0.00159
0.0003013
0.0003575
-0.001075
0.000717
0.0001891
-0.0007582
1.317
-1.047
-0.0006268
6.538e-05
0.0005615
0.003967
-0.001863
-0.002104
7.889e-07
-7.898e-07
0.0003156
0.001533
-0.001848
0.0004353
0.0008848
-0.00132
-0.02004
-0.01562
0.03566
-0.04061
0.04051
0.0001
0.0004014
0.0002291
-0.0006305
-0.0003878
-0.0004981
0.0008859
0.0001692
0.0004617
-0.0006309
0.0008407
-0.0008929
5.224e-05
-0.0003596
-0.001185
0.0008115
-0.0009016
9.007e-05
-2.799e-05
0.0005374
-0.0005094
-0.003921
-0.0005527
-0.1408
0.002457
0.1383
-0.9952
0.4243
0.5708
0.02225
-0.002942
-0.008645
0.002868
0.005777
0.0009379
-0.0007142
-0.0002237
-0.0002804
0.0007993
-0.0005188
0.0001792
-0.0004272
0.001184
-0.0009012
-0.0002824
-0.003419
0.005463
-0.002044
-0.0005397
0.0002844
0.0002553
-0.0002813
0.000976
-0.0006947
0.003383
-0.003553
0.0001703
0.0002212
0.0001439
-0.0003651
0.3869
0.03978
-0.4267
-0.0006126
-0.000543
0.001156
0.0155
0.05233
-0.06783
0.003211
0.0007557
0.2291
-0.1396
-0.002752
0.00266
9.231e-05
-0.0004049
-0.0009064
2.4e-05
0.001766
1.892e-06
-1.892e-06
0.0003379
-0.0006676
0.0003298
-0.2488
0.3671
-0.1183
-0.0008164
-0.0001273
8.129e-05
-0.0001096
2.831e-05
0.0005082
0.002874
-0.0003538
0.0008419
-0.0004881
-0.01337
-0.003953
-0.0001395
0.0003922
-0.0002527
-0.002799
0.002886
-8.706e-05
-0.003985
0.0021
0.0001347
0.0001802
-0.0003149
0.05596
-0.05561
6.796e-06
-8.32e-05
7.641e-05
-0.001174
0.001459
-0.0002844
0.0001507
6.15e-05
-0.0002122
-0.005948
0.00416
0.001788
-0.1328
0.03959
0.09319
-0.004379
-0.0005412
0.00492
0.000223
-0.0005836
0.0003606
8.24e-05
-8.24e-05
0.3598
-0.1615
-0.1983
0.0008298
-0.004057
0.003227
0.002258
0.006383
-0.008641
-0.0006585
-0.0002355
0.000894
-0.0003381
-0.0002016
0.001405
-0.00144
3.522e-05
-0.339
0.01987
0.3192
0.0004754
0.0004624
-0.000217
0.002828
-0.002612
-0.001008
0.0008874
0.0001209
-0.0003144
0.0008669
-0.0005525
0.0007797
-6.774e-05
-0.000712
-0.08057
-0.003424
0.084
0.001444
-0.00072
-0.0007236
-0.003322
0.001978
0.001344
0.3335
0.02016
0.001353
0.0005519
-0.001904
0.0008332
-0.001888
0.001055
0.01034
-0.0105
0.0001585
-0.0006761
0.0002099
0.0004663
-0.002691
-0.004145
0.006835
0.0006011
0.0005825
0.0007162
-0.0002995
-0.0004167
-0.0003229
0.0001277
0.0001952
4.978e-05
-0.0008142
0.0007644
-0.0008698
0.0007862
-0.0003442
-0.0004176
0.0007617
0.0003604
0.001084
-0.001445
-0.0002747
-0.0003024
0.0005771
0.0004388
-0.03467
0.01954
-0.06134
0.04815
-0.04771
0.0001494
0.001255
-0.9555
0.8013
0.1542
0.002467
-0.0003273
-0.00214
0.005376
-0.007357
0.001981
0.01159
-0.00626
-0.005332
0.0008848
-0.001122
-0.001243
0.001222
2.075e-05
0.001054
-0.0007725
-0.000282
-0.4739
0.1348
-0.5835
-0.09228
0.6757
1.433e-05
7.796e-05
-9.229e-05
-0.3175
0.06862
0.0003326
-0.001235
0.0009023
1.299
-1.167
-0.1327
0.001324
-0.0007531
0.000137
-0.001064
0.001849
-0.002677
0.0008277
0.0005831
-2.532e-05
-0.0005578
0.0002141
-0.000655
0.000441
-0.0004294
0.000611
-0.001408
0.00396
-0.002553
0.001279
-0.0009533
-0.0003259
0.0004117
-0.0002487
-0.000163
0.0004819
-0.0007653
0.0002834
0.00385
0.01464
0.002965
-0.001612
-0.0006509
0.0003217
0.0003291
-0.0003968
7.803e-05
0.0003187
0.001225
-0.001122
-0.0001035
-0.0001808
-0.0002503
0.0004311
0.0007002
-0.0001096
-0.0005906
-0.0008178
0.0008899
-7.213e-05
-0.00198
0.001593
0.0003874
-0.0003399
0.000372
-3.207e-05
0.0007532
-0.0008507
9.759e-05
-0.0005099
0.0007121
-0.004776
0.0005759
-3.889e-05
-1.776e-05
5.664e-05
-0.0005201
0.0005201
-0.7793
1.13
-0.3505
-0.005102
0.004426
0.0006767
0.001115
0.0002415
-0.001356
-0.1634
0.04828
-0.2687
0.2765
-0.007763
0.0002636
-0.001474
0.00121
0.00138
-0.001649
0.0002689
-0.001051
-2.992e-05
0.001081
-0.0005985
-0.0022
0.001646
-0.0005291
-0.001117
-4.484e-05
0.001188
0.001062
-0.0001738
-0.0008885
-0.001133
0.0007645
0.0003685
0.000144
-0.000507
0.000363
-0.0005524
-0.0002482
0.0008006
-1.06e-06
0.0003808
0.001063
-0.001112
0.001526
-0.0004137
-1.515e-05
2.954e-08
1.512e-05
-0.122
-0.4614
0.001571
0.00877
0.002532
-0.0002735
-0.002258
0.0003384
-0.0003384
0.000316
-0.0004905
0.001034
-0.0005919
-0.0004426
1.537
-0.8142
-0.723
1.48
-0.7562
-0.724
0.001711
-0.002004
0.0002932
0.001165
-0.001192
2.687e-05
-0.002237
-0.0005156
0.6697
0.8675
0.6402
0.84
-0.001022
6.406e-05
0.0009581
-0.004662
0.005226
-0.0005641
-0.1506
0.009864
-0.004367
-0.004278
0.9077
0.7677
0.0001881
-0.0001717
-1.636e-05
0.0004583
0.0002579
0.04233
0.03515
-0.07748
-0.0004671
-0.0002848
0.0007519
-0.0009344
-0.002484
-0.003445
0.00087
0.002575
-1.159
0.3797
-0.001529
0.002208
-0.0006791
-0.03096
0.01093
0.00209
-0.001168
-0.0009215
0.1537
-0.1102
-0.04346
-0.004137
0.004967
8.838e-05
0.0002662
-0.0003546
-0.001462
0.002459
-0.0009977
0.0008335
-0.00271
0.001876
-0.003387
-0.002561
-8.138e-05
-0.001142
0.001223
-0.002838
0.0002619
0.002576
0.0008394
-0.0001392
0.0002031
0.0002822
0.0006648
0.0005822
-0.001785
0.0001784
-0.00896
0.00956
-1.222
1.248
-0.02582
0.4419
0.8574
0.0002151
-6.443e-05
-0.0004504
0.0005932
-0.0001428
0.0002638
-0.0002353
-2.847e-05
0.001281
-0.003832
0.002552
-0.0009042
-7.775e-05
0.0009819
-0.002507
0.001967
0.0005403
-0.0005943
-0.002647
0.003241
0.01006
0.001537
-0.0005128
-0.001933
0.002445
-0.001265
-0.004559
0.005824
0.01622
-0.05977
0.06962
-0.01631
-0.05331
0.6372
-0.4484
-0.1887
-0.02424
-0.00552
0.02976
-0.0006092
0.0004649
-0.0008893
-0.000119
0.002309
-0.001517
-0.0007915
0.0008736
-0.001913
0.00104
-0.0003745
-0.0002763
-0.0002181
0.0004322
-1.635
0.721
0.9145
-0.005328
0.001909
0.001291
-0.001731
0.0004403
-0.001045
0.005642
-0.0003689
0.001183
-0.0008141
-0.001204
-0.0007292
0.001933
0.04972
0.1362
-0.186
-0.001214
0.001332
-0.0001178
-0.3677
-0.5878
-0.003048
0.00475
-0.001703
0.001825
-0.001857
3.19e-05
-0.0001524
-7.781e-05
0.0002302
0.0004893
-0.0007698
0.001617
6.674e-05
-0.001684
-0.00147
0.0002231
0.001247
-0.0003857
-1.111e-05
0.0007622
0.000517
0.0005201
-0.0007203
0.0007568
-0.0008079
5.116e-05
-0.007562
0.01123
-0.00367
0.000989
-0.0009227
-6.636e-05
0.05234
0.02132
-0.0005208
0.0008793
0.003363
-0.002221
-0.001142
-0.02997
-0.01363
0.04359
-0.0005246
-0.0001515
-0.0006895
0.001647
-0.0009572
0.000535
0.0005194
-0.003024
0.0003826
0.002642
0.001049
0.0004364
-0.001486
-0.3923
-0.01315
0.0006238
0.000148
-0.0007718
0.7282
-0.6145
-0.1137
-0.0005202
-0.0006128
-0.0007421
0.0008775
-0.0001354
0.2899
0.1957
-0.4856
0.000787
-0.0001449
-0.0006421
0.0006743
-0.0006646
-9.682e-06
-0.0006803
0.0005213
0.000159
-0.0002629
-6.004e-05
0.001887
-0.000996
-0.0008906
-0.06901
0.08728
-0.01827
-1.019
-0.2032
-0.848
0.8421
0.005957
7.796e-05
-0.0006058
0.0005278
0.004139
-0.00789
0.00375
0.0006139
0.0004206
-0.001418
-0.001567
0.002985
0.0004425
-0.000159
-0.0002834
0.001553
0.000334
0.8092
0.5017
-1.311
0.001077
-0.001109
3.123e-05
0.04486
0.3421
-0.0007182
0.00118
-0.0004619
0.0003888
-0.0005378
0.000149
3.148e-07
2.775e-07
-0.8362
0.5756
0.2607
-0.0002592
0.0001479
0.0001113
-0.003673
-0.001429
0.0004451
-0.0006079
0.0001628
0.5039
0.2242
-0.001158
0.0006056
-0.02584
-0.02109
0.04693
0.001721
0.0005872
-0.003094
0.004766
-0.001672
-0.0007671
-0.0004759
0.04473
-0.3611
0.3164
-0.0004951
0.0009364
-0.0004413
0.001508
-0.001192
-0.2622
0.0736
0.1886
0.001268
-0.0007594
-0.000509
0.0009584
4.341e-05
-0.001002
-0.2777
0.3224
-0.0008816
-0.002063
0.002944
0.0004205
-0.0004161
-4.387e-06
-1.061
0.4249
0.6357
0.0015
-0.001232
-0.0002674
-0.001898
0.0007502
-0.0001412
-0.001409
0.001551
0.0001096
0.0003021
0.0009687
0.0002997
0.001321
-0.001322
1.03e-06
-0.0007132
0.0005252
0.000188
-1.311
-0.3249
-0.04175
-0.0003139
-0.1275
-0.9088
-0.001628
0.002993
-0.001366
0.003143
-0.0006606
-0.002483
0.0006565
0.0004059
0.02813
0.1837
-0.2119
-0.0003575
-0.0003227
-0.000126
-0.0005008
-0.000173
0.000173
-0.0024
0.00315
-0.0007499
-0.0003616
0.0001767
0.0001849
-0.0008952
0.001348
-0.0004523
0.005262
-0.0009343
-0.004328
0.0007444
-0.0003001
-0.0004443
0.1155
-0.1005
-0.01495
-0.07995
0.07363
-1.594
0.946
0.6484
-0.000178
-0.0006398
0.001911
-0.0008612
-0.003421
-0.002933
-0.004103
0.003733
0.0003707
-0.4953
0.3641
0.1311
0.001828
-0.00211
0.0002821
-0.0004191
0.0009175
-0.0004984
-0.5572
0.3794
0.1778
-0.0004118
-0.0001082
-0.0006174
0.001451
-0.0003461
0.001182
-0.0008354
0.0003485
0.0003206
-0.0006692
-0.000134
0.0001406
0.0003233
-0.0005341
0.0002108
0.0002279
0.0007612
-0.1432
0.01044
-0.001575
4.569e-05
0.04144
-0.01676
-0.02469
0.0009713
-0.0007087
-0.0002626
0.002053
-0.0008002
-0.001253
-1.701e-05
-7.08e-05
8.781e-05
1.361
-0.5518
0.0007085
-9.986e-05
-0.0006086
-0.006792
0.002414
-0.2637
-0.2102
0.4739
0.001054
0.001413
0.02777
-0.1163
0.08849
-0.001827
0.002249
-0.0004221
-0.001409
0.0009751
0.000434
0.001036
-0.0001017
-0.0009346
0.001177
-0.00141
0.0002327
0.0005235
-0.00109
0.0005666
0.006422
0.000415
-0.006837
-0.003804
0.001983
0.001821
-0.001266
0.0002683
0.0009977
0.0003027
0.08408
-0.06858
-0.0002042
-0.003241
-0.001132
-0.0008487
0.0001985
-2.122e-05
-0.0001773
0.0001014
-9.228e-05
-9.081e-06
-0.0008995
0.002061
-0.001162
0.0001748
-0.0001252
-4.968e-05
-0.001002
1.354e-05
0.0009886
-0.0008028
0.0003606
0.0004422
-0.5194
0.4653
0.05404
0.8813
0.2006
-1.082
1.039
0.004989
-1.043
0.002449
-0.002666
-0.003547
0.00342
0.0001267
0.0004728
-0.0005847
0.0001119
-0.3276
1.366
-0.9289
-0.06627
-0.0007837
0.001227
-0.000443
0.000386
-0.0007401
0.0003541
-0.003233
0.0006136
0.002619
-0.0004869
-0.0003937
0.0008806
-0.0009814
0.0002152
0.0007662
-0.06314
-0.005867
0.0009819
-0.0009886
6.683e-06
-0.002859
0.001451
0.3389
-0.8069
0.468
-0.0007509
0.0003005
0.002404
-0.000787
-0.0005517
0.0001423
0.0004094
-0.004993
-0.003106
0.008099
0.001349
-0.001143
-0.0002054
-0.003832
1.323
-0.8947
-0.4279
0.006249
0.000242
-0.006491
0.912
0.4105
-0.001623
0.002235
-0.0006117
-3.859e-05
-5.808e-05
9.667e-05
-6.155e-06
-1.227e-05
1.843e-05
0.001532
0.0001145
-1.9e-05
0.0004369
-0.0004179
0.0102
-0.007147
-0.003048
-2.601e-05
-0.001148
-0.0004335
-0.0008369
0.00127
-0.000803
0.002075
-0.001272
-0.0008261
-0.003836
-0.6753
-0.919
0.004778
-0.045
0.04022
-0.001501
0.002447
-0.0009462
-1.561
0.1519
1.409
-0.000976
-0.001033
0.002009
0.001059
-0.0005478
0.0008541
-0.0001154
-0.0007388
-0.0001051
-0.0009782
0.001083
3.159e-05
0.0007482
0.0004823
-0.0002611
0.0003542
-0.0003267
-2.752e-05
1.349
-1.244
-0.1057
0.5804
-0.03875
-0.5416
0.002334
-0.001577
-0.0007565
1.283
-0.4021
-0.0004725
0.0009784
-0.0005059
-0.00717
0.003536
0.0009941
-0.0006914
0.0001024
0.000176
-0.0002785
0.0001368
0.0002896
-0.0004264
-0.0001423
0.0003385
-0.0001962
0.0004383
0.001716
-0.002154
0.0002559
-0.0002559
0.002885
0.03824
-0.04112
0.0001898
-0.0004801
0.0002903
0.7257
-0.4471
-0.2785
-0.001205
0.0017
-0.0004947
-1.292
1.149
0.1433
0.002011
-0.002791
0.0007795
0.07611
0.01151
-0.08762
-0.8099
0.8123
-0.002367
0.0006917
5.273e-05
4.581e-05
0.0007657
-0.002996
0.003317
-0.0003217
0.003055
0.0006807
-0.003736
-0.002487
-0.0008346
-0.001492
-0.001015
0.0001845
0.0001089
-0.0002935
-0.05902
-0.2032
-0.0004714
0.002806
-0.002334
-0.0004302
-0.000283
-0.006143
0.002821
0.003322
-0.001546
0.001696
-0.0001505
0.1524
0.04248
-0.1949
-1.71e-05
1.728e-05
-6.182e-05
-0.0002141
0.000276
-0.0005048
1.751e-05
0.0004873
0.0001455
0.000834
-0.0009795
-0.0006621
-0.001048
0.00171
-0.0006235
7.186e-05
0.0007552
-0.0007054
0.0006635
0.0008362
-0.0002511
0.0006526
0.0001976
-0.0001986
9.922e-07
-0.006229
0.00057
0.005659
0.0003413
0.000333
0.0008092
7.391e-05
-0.0008831
0.0004621
1.07e-05
-0.4122
-0.5173
0.9295
0.001261
-4.12e-05
-0.00122
0.001238
-0.001279
4.188e-05
0.0008142
-8.802e-05
-0.0007262
0.01177
-0.0206
-0.000785
0.0005393
0.0002457
-0.002794
0.006398
-0.003604
-0.002155
0.002264
-0.0001086
-0.00327
-0.0001693
0.003439
-0.008315
0.005326
0.002989
-0.001716
0.0165
0.1558
0.204
-0.001659
0.006283
-0.004624
0.0002069
-0.0006587
0.0004518
-0.001031
-0.0003638
0.001395
0.003981
-0.002978
-0.001003
-0.000615
-0.0003473
0.0009623
1.254
-1.423
0.169
0.6328
-0.05238
1.135
0.1189
0.004825
0.02119
-0.02602
-0.005748
0.0007249
0.005023
-0.001765
0.002662
-0.0008969
0.0005415
0.0004298
-7.886e-05
8.565e-05
0.001073
-0.0008867
-0.0001863
0.0003603
-0.0003032
-5.713e-05
-0.0004935
0.0006564
-0.0001629
-0.001034
-0.0008191
0.001853
-0.1995
0.497
-0.2975
-0.001913
-0.002941
0.004854
6.093e-05
0.001011
-0.001072
-0.0001771
0.0006819
-0.0005048
-0.709
-0.1273
0.0003108
0.001514
0.8621
-1.274
-0.006443
0.003246
0.003198
0.007139
0.003057
-0.0003442
0.0001584
0.0001858
0.0001403
5.815e-05
0.00827
-0.00326
-0.00501
0.1695
-0.04588
-0.1237
0.001101
-0.001693
0.0005917
-8.092e-05
2.511e-05
5.58e-05
0.0007482
0.0005486
-0.001297
-0.001
0.0003606
0.0006394
1.504
-0.5631
-0.9405
0.0001379
-0.0008646
0.0007267
-0.5792
-0.9816
0.002695
-0.002477
-0.0002174
4.202e-05
0.0002218
0.07625
-0.1181
0.04186
0.0003308
-0.0008115
0.0004807
-0.001601
0.00188
-0.0002784
0.0001248
0.0003994
-0.0005242
0.00225
-0.004325
0.002074
-0.0004992
-0.0005865
0.0003461
-0.0002536
-9.258e-05
-0.001998
0.002256
-0.0002574
0.07623
0.0933
-0.001239
0.0003203
0.0009185
-0.001072
0.0007281
0.001603
-0.001167
0.0005915
0.0003916
-0.0006573
0.001762
-0.001349
-0.0004131
-0.01673
-0.00529
0.02202
-0.0002906
-0.0005122
-0.01518
0.0107
0.00448
0.001687
-0.0003985
2.946e-05
0.0001586
-0.002418
-0.0004203
2.578e-05
0.0001596
-0.0001853
0.001425
0.001148
-0.002572
-0.000689
0.000764
-0.0004573
-0.0003277
0.001772
-0.001927
0.0001554
-0.000143
-0.0007723
0.0009153
-0.001527
0.002742
-0.001214
0.001328
-0.009643
-0.0007084
-0.0001259
0.0008343
-0.02029
-0.02032
-0.002817
0.003458
-0.0006411
-0.0003467
-0.0005416
0.0008883
-0.0005402
3.541e-05
-0.0002529
0.0002529
0.8052
0.6984
0.0004296
0.000324
-0.0007536
-0.005433
0.005984
-0.0005509
1.136
-0.4363
-0.6998
-0.002337
0.001517
0.0008202
0.0008409
-0.0009812
0.0001403
0.0005417
0.00199
0.0003822
-0.003232
0.00285
-0.0003454
-0.0002846
0.00063
-0.0003574
6.5e-05
0.0002924
-3.447e-05
0.0005169
-0.0004824
0.0003988
0.0003775
-0.0007763
0.0002121
0.0009525
-8.817e-05
0.001091
-0.001003
0.0003225
0.0003167
-0.0006392
-0.007527
0.002423
0.005104
-1.24
1.017
0.2229
0.09681
-0.06997
-0.02684
0.0006575
-0.0009389
0.0003554
-0.001059
0.0007036
0.01064
-0.04924
0.0386
0.04343
-0.04348
4.933e-05
-0.0007125
0.0006524
6.013e-05
-0.0005433
-0.0007228
-0.5594
0.06414
-0.002851
-0.0009526
0.002876
-0.001548
-0.001328
0.001985
6.749e-05
-0.7706
-0.07745
0.0009388
-0.0002078
-0.000731
-0.008449
-0.006735
0.0003908
0.0005125
-0.0009033
-0.8918
0.3708
0.521
-0.001029
2.883e-05
-0.0004776
0.0009992
-0.0005216
-9.824e-05
5.937e-05
3.887e-05
0.001105
-0.0009791
-0.0001261
0.5741
0.7754
0.002429
0.0001902
-0.002619
0.003071
-0.001791
0.0007039
-8.012e-05
-1.289
1.144
0.1445
-1.101
-0.2936
1.394
-1.002
-0.297
1.299
0.00122
-0.000143
0.0001382
-0.0003386
0.0002004
0.003221
-0.005911
0.0002433
-0.001457
7.754e-05
9.73e-05
-0.01754
0.09379
0.0003009
0.000181
-0.000482
-0.0007903
-0.0006188
-0.0002495
0.0001686
8.094e-05
-0.000948
-0.002048
0.08983
0.06386
-0.0003854
0.0009985
-0.0006131
-0.0009415
0.0005537
-0.2216
-0.001133
0.0007844
0.0003489
0.0004648
-0.0004928
0.0006556
-0.0006041
-5.151e-05
0.000829
5.047e-07
-0.0008295
-0.006644
-0.00322
0.009864
0.0001006
0.0008121
-0.0009127
-0.000981
0.0008317
0.0001493
-0.003162
-7.063e-05
-0.1714
0.02074
-0.0007477
0.000473
1.569
-0.5938
-0.9754
-0.1172
0.03662
0.0006215
-0.0008643
0.0002428
0.0003478
-0.0007927
0.000445
-0.6506
0.3574
0.2933
0.01487
0.02271
-0.03757
8.744e-05
0.0004957
-0.0007181
0.0002563
0.0004618
0.0003749
-0.0002402
0.00074
0.0004976
-7.852e-05
0.0001067
-2.818e-05
-0.006731
0.006353
0.0003773
0.002743
0.002251
-0.004994
0.0001558
-0.0006089
0.0004531
0.984
0.1521
0.008719
-0.004933
-0.003786
-0.001642
0.0005911
0.002584
0.001397
-0.000632
0.0002622
0.0003698
-0.001621
1.966e-05
0.0001725
-8.897e-05
-8.352e-05
-0.0001135
0.0005586
0.005353
0.003228
-0.008581
0.0003623
-0.001566
-0.0002597
0.0004988
-0.0002391
-0.0009447
0.006321
-0.000536
0.001285
-0.0007487
-0.003979
0.001158
0.002822
0.0009875
-0.0001102
-0.0008773
0.001091
-0.001459
0.1415
-0.02602
-0.0008521
-0.000236
0.001088
-0.5815
-0.7107
-0.008581
0.01205
-0.003472
-0.3766
-0.9122
2.933e-05
-0.0001139
0.001258
-0.0003997
-0.0008586
0.001802
-0.001422
-0.0003802
0.0003271
-4.201e-05
-0.0002851
-0.0001561
-9.342e-05
-0.1072
-0.2688
0.376
-0.0001623
-0.001665
0.000323
-0.0005038
0.001925
-0.002292
0.0003666
-2.888e-05
-0.0002097
0.0002386
1.531e-05
8.604e-05
0.001739
-0.001379
0.001199
-0.001632
-4.429e-05
-0.0002956
-0.0007338
-0.0007365
0.001136
-0.000678
-0.0004581
-0.0003095
-0.002715
-0.0008183
0.00105
-0.0002321
-0.0008587
0.001241
-0.0003826
-0.5185
0.8411
-0.3226
0.0008437
-0.0008594
1.565e-05
8.414e-05
-0.0005484
0.0004642
-0.0004367
1.439e-05
0.0004223
0.003845
0.000813
-0.004658
-0.0001626
-0.0003642
0.0005268
0.001599
0.003804
-0.005403
0.00264
-0.002958
0.000318
-3.657e-05
6.486e-07
3.592e-05
0.1605
0.8837
-1.044
-5.376e-06
-2.142e-05
2.679e-05
0.0002964
0.0004638
-0.0007602
-0.2263
0.4749
-0.2487
0.0001141
-0.0003827
0.0002686
-0.002884
0.001902
0.0009821
0.001181
-0.0008897
-0.0002913
0.0006173
-0.0006173
0.0003492
-0.0003492
0.0014
-0.001138
-0.0002614
0.0001542
-9.393e-05
-6.029e-05
0.0002583
-0.001797
0.001539
0.001149
0.000153
-0.001302
-0.0003333
0.0001559
0.0001774
0.0004525
0.0005341
-0.0009866
0.0008622
-9.513e-05
-0.0007671
-0.0003198
0.0002483
7.143e-05
-0.0272
-0.0922
0.1194
-0.0006554
0.001162
-0.0005062
-0.001032
-0.0002995
0.001331
-8.137e-05
-0.0007153
0.0007967
0.003799
-0.005428
0.001628
-0.001826
0.001836
-9.77e-06
-0.004251
0.005599
-0.001348
0.01399
-0.004239
-0.00975
-1.39
0.9893
0.4004
-0.0008625
0.0009291
-6.655e-05
0.0008543
-0.0005348
-0.0003194
-0.1128
0.1595
-0.04672
-0.001159
0.0001294
0.00103
-0.685
-0.2068
0.0008369
-0.0009991
0.0001622
-0.0001736
-0.0001598
0.3307
-0.4012
0.07052
-0.0007402
0.0001303
0.0006098
0.002555
-0.003518
0.0009628
-0.1258
0.215
-0.08918
-0.5548
0.1477
0.4071
-0.0001293
8.469e-05
4.457e-05
-0.0006704
0.0008924
-0.0002219
1.037
0.361
-1.399
1.039
0.3603
-1.399
-0.000735
-0.001023
0.001758
0.0009124
0.0001843
-0.001097
9.281e-05
0.0001311
-0.0002239
0.0002345
-0.0006316
0.0003971
-0.0002692
-5.571e-06
0.0002748
0.006558
0.0117
-0.01826
-0.0008479
0.001539
-0.000691
0.0004964
-0.0004279
-6.854e-05
-0.0008144
0.0001056
0.0007088
0.0003173
-0.0003173
-0.001488
-0.0002621
0.00175
-0.000887
0.001022
-0.0001351
0.0002979
0.0001638
-0.0004618
0.005197
-0.00106
-0.004136
0.001892
-0.002556
0.0006638
0.001517
-0.002938
0.001422
-0.03959
-0.1417
-0.9568
1.098
-1.446
0.3454
-1.462
0.4603
-0.0005952
-7.864e-05
0.0006739
-7.777e-05
0.0001515
-7.371e-05
-0.01073
-0.04568
0.05641
0.001597
-0.001344
-0.0002529
-0.0004011
-0.0004836
0.0008847
-0.001642
0.001817
-0.0001757
-4.63e-06
0.0008453
-0.007428
-0.0147
0.02213
-0.357
-0.005127
0.3621
0.0003915
0.0005789
-0.0009704
0.0004712
-0.0008784
0.0004072
-0.0006451
0.0006451
-2.754e-05
-0.0005659
0.0005934
-0.0008197
0.0008085
1.124e-05
-0.01512
-0.007905
0.02302
-0.0002026
-0.0003862
0.0005888
-0.0007504
0.0009966
-0.0002462
-0.001159
0.0003414
0.000818
-0.01238
0.03869
-0.02631
0.001193
-0.0006685
-0.0005244
-0.001333
0.0009982
0.0003351
0.00103
-3.319e-05
-0.0009969
-0.00285
0.003233
-0.2726
0.295
-0.02238
-7.963e-05
1.108e-06
-0.0005167
0.0009259
-0.0004093
-0.0003873
0.00129
-0.0009025
0.2425
0.03954
-0.2821
0.0003967
-0.001017
0.0006202
0.6979
0.8714
-0.0003877
0.0008914
-0.0005037
-9.621e-05
-1.693e-05
0.0001131
0.008153
-0.02401
0.01586
0.0009743
0.0004424
-0.001417
-0.001072
0.001175
-0.0001028
-0.0002539
0.0002539
0.003495
0.0007408
-0.004236
-0.000913
-0.000278
0.001191
-0.02054
0.03784
-0.0173
0.2628
0.4629
-0.0008894
-0.0002203
0.00111
0.002728
-0.0008791
1.214e-05
-0.0003612
0.0003491
-0.004818
0.003985
0.0008329
-0.001698
0.000351
0.001347
0.002274
-0.002571
0.0002971
5.946e-05
-0.000271
0.0002116
-0.00254
0.01974
-0.0172
-0.001641
0.001254
0.0003866
-0.004449
0.003341
0.001108
1.184
-0.2162
-0.9678
0.136
-0.1298
-0.006245
0.0007173
0.0008318
-0.001549
0.0004059
-0.0008772
0.0004714
0.0006302
0.0007186
0.0003908
0.0008699
-0.000417
0.000417
0.001013
-0.0005906
-0.0004222
-0.00123
0.0004234
0.0008069
0.0006018
0.000411
-0.0002485
-0.0004697
0.0007182
0.0004024
-0.0004024
0.003221
-0.002387
0.002112
-0.001292
-0.0008203
-0.0007638
0.0002796
0.0004842
-4.476e-05
2.221e-05
2.256e-05
0.1802
0.457
0.0009447
-0.002334
0.001389
-2.096e-05
-7.077e-05
9.174e-05
0.007173
-0.004053
-0.003119
0.0003421
0.0006115
-0.0009536
0.002049
0.0002411
-0.00229
-1.191
-0.1985
0.008093
-0.005547
-0.002546
-0.001888
0.001558
0.0003296
0.0004011
-0.0007283
0.0003272
-0.0386
-0.03076
0.06936
0.9787
0.09286
-1.072
-0.0004758
0.0003038
0.0001721
-0.0003286
0.0002703
5.829e-05
-0.0004044
0.0001003
0.0003041
-0.0003212
0.0002084
0.0001127
0.01041
-0.007877
-0.03612
0.01194
0.02418
-0.8762
1.314
-0.4377
0.001169
-0.000999
-0.0001696
0.002215
-0.002153
-6.167e-05
-0.0003332
0.0003859
-5.268e-05
0.004398
0.001849
-0.006247
0.001024
-0.0002305
-0.0007933
-0.591
-0.219
-0.0005755
-0.0002871
1.137
-0.008354
-1.129
0.0008463
0.001086
-0.001933
-0.001715
0.0009595
0.000755
0.00045
-0.002349
0.001899
-0.0002265
-9.327e-05
-0.0151
0.01165
0.003449
0.0013
-0.002521
0.001222
0.0002528
-0.0005821
0.0003293
0.0002268
0.001509
-0.001736
0.02061
-0.05296
0.03235
0.0007543
-0.0004325
-0.0003218
0.0002966
0.001903
-0.0022
-0.000524
-0.0002654
0.0007895
-0.00221
-0.0001221
0.002333
0.4564
0.7299
-1.186
-0.003541
-0.004304
0.007846
-0.0004456
0.0005711
-0.0001256
0.08852
-0.04619
0.0009834
-0.0002092
-0.0007742
-0.0004148
0.0002801
0.0001347
0.0003387
-0.0006109
0.0002722
-0.001129
-0.002406
0.003534
0.001359
-0.001405
4.666e-05
-0.09429
0.06903
0.02527
-0.1065
0.0697
0.03682
-0.002771
0.00139
0.001381
0.002488
-0.00435
0.001861
0.001024
-0.0004001
-0.0006242
0.001956
-0.009518
0.001834
-0.001888
5.364e-05
0.001213
-0.0006057
-0.0006076
-0.1154
0.275
-0.1595
-0.0006644
-0.003302
0.003966
-0.00157
0.002551
-0.0009812
0.001107
0.0002144
0.0001214
0.0003695
-0.0004909
-0.00645
0.00945
-0.003001
0.0002062
-0.0005941
0.0003879
0.0006945
4.385e-05
-0.0007384
0.5072
0.5719
-1.079
0.1892
-0.06199
-0.1272
-0.001067
0.0008872
0.0001803
0.0001253
-0.001238
0.0008916
-0.0007648
-0.0001268
-0.0001566
0.0009098
-0.000548
0.000548
-4.46e-06
-7.57e-05
8.016e-05
-0.001848
0.002649
-0.000801
-0.0878
0.4782
-0.3904
-0.001621
0.001415
0.0002054
-3.431e-05
-0.0003272
0.02876
0.009094
-0.03785
-0.001339
1.66e-05
-0.004401
-0.0001356
0.004537
-0.2576
-0.09897
0.3566
0.001173
-6.63e-05
-0.001107
-0.01985
0.06141
-0.04156
-0.001401
0.0007327
0.0006683
-0.001276
0.001365
-8.941e-05
0.002348
0.0002044
-0.002552
5.725e-05
-9.958e-05
4.233e-05
-0.0002674
0.001104
0.005746
-0.004891
-0.0008552
-0.005095
0.007298
-0.002203
-0.2346
0.2482
-0.01358
-0.0003678
4.148e-05
0.0003263
0.0005819
-0.0004396
0.1715
-0.2226
0.05109
0.0006374
-0.0006374
0.0002017
-0.0005139
0.0003121
-0.001173
0.001016
0.0001567
-0.001953
0.002176
-0.0002232
-0.04245
0.1941
-0.1517
0.2055
0.8993
-1.105
-0.0001886
0.0007167
-0.0005281
0.004057
-0.004583
0.0005261
0.0003118
-0.0002946
-1.725e-05
0.005475
-0.009245
0.003771
0.0005113
-0.0006965
0.0001853
0.001656
0.0003273
-0.001983
-0.001058
0.0007844
0.0002739
3.901e-06
-4.652e-06
7.516e-07
0.0008938
-3.007e-05
-0.0008638
-0.001671
0.001978
-0.0003062
0.0008529
-0.0001579
-0.000695
-0.0008291
0.0007808
4.838e-05
-0.0003201
0.002031
-0.00401
0.002819
0.001191
0.0001265
-0.0003852
0.0002586
0.7626
-0.4815
-0.2811
-0.001361
0.001107
0.0002532
0.000644
-0.001546
0.0008048
-0.0006835
-0.0001213
-0.0001616
0.0004703
-0.0003087
0.01399
-0.00786
-0.006134
0.001249
-0.001232
-1.693e-05
0.0006915
-0.0006365
-5.497e-05
-0.0003801
-0.0001178
0.0004979
0.001108
-0.0001246
-0.0009838
0.0004958
-0.0004958
9.445e-05
-0.0001991
0.0001046
-1.317
0.2564
0.001069
-0.0001366
-0.0009326
-0.0003248
0.0003944
-6.963e-05
0.0006184
0.0008504
-0.001469
-0.0008174
0.00115
-0.004705
0.003307
0.001398
0.000482
-0.000482
-0.0004907
0.0002648
0.000226
-0.1008
-0.005722
0.0007559
-0.0006837
-7.218e-05
4.463e-05
-0.0006199
0.0005752
-0.01014
0.005376
0.00476
-0.0001195
-0.0004634
0.0005828
1.575
-0.7848
-0.79
-0.1087
-0.01366
0.1224
0.00297
-0.008676
0.005705
-0.0004079
0.0002217
0.0001862
8.882e-06
-4.402e-05
3.514e-05
0.001244
-0.0005787
-0.0007006
-0.0003282
0.007826
-0.005365
-0.002461
-0.4248
1.512
-1.087
0.006417
-0.003817
-0.002601
0.3671
-0.3449
-0.02217
0.0007246
0.0003834
-0.001108
-0.06788
-0.02388
0.09177
-0.0001635
0.000151
1.243e-05
0.006726
-0.01033
0.003601
-0.001292
5.433e-05
0.001237
4.559e-06
-2.212e-05
1.756e-05
0.8996
0.0288
-0.9284
0.0003398
0.0003738
-0.0007136
0.7937
-1.263
0.4695
0.001673
-0.0005688
-0.001104
0.0003693
-0.0002152
-0.0001541
-0.000528
0.003583
0.000376
0.0004815
-0.0008575
-1.852e-05
2.522e-05
-6.697e-06
0.0005371
0.0003316
-0.0008687
-0.001665
-9.417e-05
0.001759
0.0004235
0.0005843
-0.001008
0.002338
0.001558
-0.003896
0.01032
-0.003841
-0.006476
0.008755
0.01164
-0.0204
0.0005264
0.0002612
-0.0007876
-0.000568
0.000568
0.02761
0.04201
0.7023
-1.345
0.6425
0.0006212
-0.0007026
8.146e-05
0.0004867
-0.001723
0.001237
-0.0003951
4.865e-05
0.0003464
0.0002831
-0.0002831
0.001487
-0.001388
-9.922e-05
-0.0001321
0.0001321
0.001187
-0.0004798
-0.0007072
-2.252e-06
-0.0004122
0.0004145
-0.002295