/*--------------------------------*- C++ -*----------------------------------*\
| =========                 |                                                 |
| \\      /  F ield         | OpenFOAM: The Open Source CFD Toolbox           |
|  \\    /   O peration     | Version:  v2012                                 |
|   \\  /    A nd           | Website:  www.openfoam.com                      |
|    \\/     M anipulation  |                                                 |
\*---------------------------------------------------------------------------*/
FoamFile
{
    version     2.0;
    format      ascii;
    class       volVectorField;
    location    "5";
    object      U;
}
// * * * * * * * * * * * * * * * * * * * * * * * * * * * * * * * * * * * * * //

dimensions      [0 1 -1 0 0 0 0];


internalField   nonuniform List<vector> 
118995
(
(-0.001896 -0.02033 0)
(0.1092 0.4539 0)
(0.5299 0.4277 4.428e-21)
(0.6103 0.3818 0)
(0.5636 0.326 -3.466e-22)
(0.5712 0.1838 -6.254e-22)
(0.5386 0.4309 4.847e-21)
(0.2305 0.004532 -3.852e-22)
(0.07143 0.3219 4.722e-21)
(0.3985 0.4473 0)
(0.2377 0.4373 3.599e-21)
(0.67 0.1926 -7.241e-23)
(0.2387 0.4286 0)
(0.3741 0.4304 -7.791e-21)
(0.03593 -0.1197 -1.586e-20)
(0.02974 -0.1047 -8.021e-21)
(0.1755 -0.04681 -5.856e-22)
(0.09826 0.3371 0)
(0.1965 0.003808 0)
(0.1831 -0.03691 3.595e-22)
(0.3853 0.4528 -2.212e-22)
(-0.00536 -0.03539 8.37e-22)
(-0.002916 -0.0336 -2.463e-22)
(0.006047 0.04994 0)
(0.1774 -0.0532 0)
(1.038 0.4755 5.962e-23)
(0.3153 -0.07743 0)
(0.9032 -0.06868 -3.343e-22)
(0.4457 -0.1215 -1.586e-22)
(-0.001501 -0.03063 -4.524e-22)
(0.606 -0.1216 6.331e-22)
(0.851 0.6375 7.84e-23)
(1.007 -0.01006 9.995e-21)
(0.4257 -0.1329 9.044e-23)
(-0.002557 -0.03307 -6.602e-22)
(0.5822 -0.007516 -1.357e-22)
(0.2378 -0.1108 -4.87e-22)
(0.6835 0.008752 -2.105e-22)
(0.5886 -0.01028 1.707e-23)
(0.9516 -0.04289 -1.947e-23)
(0.9351 -0.05179 0)
(0.6274 -0.0136 -1.122e-22)
(0.9654 0.01131 -5.944e-22)
(0.6468 -0.1213 -1.204e-21)
(0.6091 -0.1214 3.887e-22)
(0.6697 -0.1143 1.152e-21)
(0.6268 -0.1183 -3.206e-21)
(0.4778 0.01284 1.378e-23)
(0.6291 -0.01397 4.711e-23)
(0.5383 0.003153 -7.73e-23)
(0.6649 -0.1213 -1.784e-21)
(0.6451 -0.1166 0)
(0.7053 -0.1508 -1.741e-21)
(0.5582 -0.00271 -1.269e-22)
(0.7694 0.0101 -1.855e-21)
(0.6264 -0.1196 1.039e-21)
(1.009 0.0002358 -1.532e-20)
(0.9465 0.3013 1.119e-22)
(0.584 -0.00913 2.928e-23)
(0.2262 -0.06421 0)
(0.663 -0.1166 6.44e-22)
(0.6997 -0.1186 0)
(0.7413 -0.1151 6.045e-22)
(1.108 0.2977 0)
(1.009 0.01417 3.6e-21)
(0.8012 -0.09557 0)
(0.002866 -0.01439 -2.611e-22)
(0.8102 -0.07158 -2.334e-22)
(0.8687 -0.2892 -2.525e-22)
(0.4794 0.01274 0)
(0.6683 -0.1164 -1.134e-21)
(0.6273 0.08981 2.843e-21)
(0.8527 0.09636 -5.849e-22)
(0.02119 0.08098 -3.13e-21)
(0.8266 -0.3434 0)
(0.4308 -0.1303 0)
(0.821 -0.3447 7.651e-22)
(0.9365 -0.05136 0)
(0.4199 0.0465 0)
(0.4488 0.01959 4.443e-23)
(0.6986 -0.1195 2.961e-22)
(0.9513 -0.04285 -8.843e-22)
(0.8586 0.09809 6.126e-22)
(0.9408 -0.03015 7.881e-22)
(0.872 -0.05408 1.142e-22)
(0.9408 0.05558 -7.433e-22)
(1.035 0.3319 1.274e-22)
(0.9707 -0.02446 2.424e-21)
(0.8004 -0.09838 2.086e-21)
(0.7914 -0.107 0)
(0.9663 0.01216 0)
(1.081 0.179 0)
(1.001 0.0135 -1.156e-23)
(0.6939 -0.0393 0)
(1.001 0.04479 0)
(0.8361 -0.1198 2.152e-22)
(0.9361 -0.02394 -6.648e-22)
(1.007 0.01877 4.149e-21)
(0.6441 -0.2776 -4.853e-22)
(0.6562 -0.0175 -2.382e-23)
(0.9768 -0.01931 0)
(0.4549 -0.1131 0)
(0.6772 0.002925 2.653e-21)
(0.8349 -0.1185 -1.239e-22)
(1.037 0.4751 0)
(0.8976 -0.1429 0)
(1.068 0.08209 0)
(0.6971 -0.1184 -9.446e-22)
(0.9553 0.1208 -9.898e-23)
(0.9562 0.01643 -3.52e-22)
(0.8725 -0.05563 -4.007e-22)
(1.03 0.03452 4.881e-22)
(0.7456 -0.06077 -4.611e-23)
(0.6578 -0.01746 0)
(0.4651 -0.1118 -1.866e-22)
(1.106 0.2968 0)
(0.8653 -0.08326 0)
(0.5341 0.001389 0)
(0.6467 -0.04358 0)
(1.011 0.001267 -1.249e-20)
(1.007 0.0216 1.212e-21)
(1.042 0.4016 0)
(0.9383 0.1797 1.233e-22)
(0.6567 -0.0243 3.431e-23)
(0.8984 -0.07437 6.4e-22)
(0.6514 0.001687 -1.228e-21)
(1.001 -0.02099 -2.515e-21)
(1.001 -0.0004493 -1.035e-21)
(1.004 0.0007094 0)
(0.8354 -0.1187 -7.442e-22)
(1.001 0.01353 0)
(1.001 -0.0006494 2.622e-21)
(0.608 -0.1219 -2.662e-22)
(0.5768 -0.005168 -7.399e-23)
(1.001 -0.0004342 0)
(1.004 0.0007004 1.611e-22)
(1.02 0.148 0)
(0.9041 -0.06846 6.122e-22)
(0.9169 -0.06569 0)
(1.012 0.001158 0)
(0.7561 -0.06469 0)
(1.008 -0.01027 -1.051e-20)
(0.6579 -0.02463 0)
(0.9723 -0.02421 2.178e-21)
(0.7618 -0.01172 -1.369e-20)
(0.3403 -0.3571 -3.418e-22)
(0.6917 -0.1195 7.141e-22)
(0.9404 0.2975 0)
(0.7936 -0.1064 -2.583e-22)
(1.015 0.0005928 2.139e-20)
(0.8135 -0.07313 2.096e-22)
(0.6287 0.2363 3.062e-22)
(0.1962 0.5883 -7.591e-22)
(0.4497 0.01931 -1.015e-23)
(0.7419 -0.1146 2.427e-22)
(0.8169 0.3946 2.889e-22)
(0.489 -0.1097 1.434e-21)
(0.5596 -0.003036 1.158e-22)
(1.007 0.0001098 1.238e-20)
(0.5765 -0.1174 0)
(0.8745 -0.192 -7.163e-22)
(-0.0275 0.04372 -4.963e-22)
(0.6465 -0.02052 -6.51e-23)
(0.773 -0.07582 7.647e-23)
(0.9494 -0.09517 -1.691e-21)
(0.8969 -0.002688 -9.872e-22)
(0.5145 0.01115 1.101e-22)
(1.094 0.1427 2.585e-22)
(0.8798 -0.1787 -1.765e-23)
(0.6148 -0.1222 -6.368e-23)
(0.6412 -0.2699 0)
(0.7209 -0.1176 0)
(0.8837 -0.2813 -2.606e-22)
(0.7035 -0.118 0)
(1 0.04228 -3.523e-22)
(1.003 0.002394 -1.409e-20)
(0.7639 0.01093 1.836e-21)
(0.7743 -0.1082 0)
(0.6089 -0.122 -6.912e-25)
(0.8155 -0.102 -2.89e-22)
(0.8486 0.633 0)
(0.7271 -0.1153 7.809e-22)
(0.7359 -0.02743 0)
(0.7384 -0.4245 3.753e-22)
(0.9984 -0.001689 0)
(0.6374 0.01405 -2.155e-22)
(1.092 0.4265 0)
(1.008 0.01069 0)
(0.5146 -0.1176 -2.805e-22)
(0.9478 -0.01092 -3.529e-21)
(0.8745 -0.1909 0)
(1.007 0.0185 -2.052e-21)
(0.8325 -0.09676 -8.782e-22)
(0.9735 -0.023 -1.336e-21)
(0.7466 -0.06119 9.773e-23)
(-0.002552 -0.03348 0)
(0.5857 -0.121 0)
(1.008 -0.01706 1.185e-20)
(0.8362 -0.1202 -2.173e-22)
(0.14 0.4636 0)
(0.6398 0.01394 3.623e-22)
(0.6087 -0.0145 1.318e-22)
(0.9734 -0.02158 -6.18e-22)
(0.4887 -0.1158 0)
(0.7469 -0.05974 8.881e-23)
(0.6875 0.007838 2.235e-22)
(0.4889 -0.1161 -7.715e-22)
(1.007 0.02149 -2.299e-21)
(0.4407 0.0142 -7.47e-23)
(0.7832 -0.1085 -2.605e-22)
(0.4671 0.01277 1.546e-22)
(0.8763 -0.1782 9.982e-23)
(0.9846 -0.0425 0)
(0.7365 -0.08057 0)
(0.5859 -0.009831 3.674e-23)
(0.08625 0.3509 1.89e-21)
(1.022 0.007106 0)
(0.8313 -0.0981 0)
(0.7547 0.009365 -3.48e-22)
(0.4845 0.3663 1.714e-21)
(0.736 -0.4262 -6.012e-23)
(0.5642 0.0076 1.246e-23)
(0.9964 -0.00514 -2.084e-21)
(0.6093 -0.122 7.283e-22)
(0.9732 -0.02694 -3.609e-23)
(0.8328 -0.3329 0)
(1.014 0.01127 -3.144e-22)
(0.5987 -0.1214 -4.113e-22)
(1 -0.005197 -2.097e-22)
(0.8583 -0.2975 -1.791e-22)
(0.8171 -0.1032 0)
(1.002 -0.02005 2.03e-21)
(0.7252 -0.1163 2.849e-22)
(0.6477 -0.02323 0)
(0.803 -0.08282 3.325e-22)
(0.8798 -0.2897 1.692e-22)
(0.8032 -0.05401 -1.141e-24)
(0.7275 -0.1154 -1.511e-21)
(0.5142 0.006319 0)
(0.4703 0.01235 -8.678e-23)
(0.8827 -0.2496 -3.091e-22)
(0.8676 -0.2887 4.617e-22)
(0.8836 -0.2063 -3.75e-22)
(0.7387 -0.05812 -5.722e-23)
(0.526 0.005288 0)
(0.7525 -0.01704 -7.143e-22)
(0.9443 0.05598 4.571e-22)
(0.7484 -0.01984 0)
(0.5621 0.007717 -8.802e-23)
(1.001 0.001813 2.607e-20)
(0.817 -0.101 0)
(0.8766 -0.173 9.084e-22)
(0.83 -0.05866 -1.435e-23)
(0.6111 -0.1215 -7.062e-23)
(0.5428 -0.1204 0)
(1.109 0.1797 4.383e-22)
(0.9961 -0.00499 0)
(1.015 0.005748 0)
(0.4345 -0.1057 0)
(1.008 -0.01714 -8.298e-21)
(0.7572 -0.06693 0)
(1.008 -0.0008834 -1.146e-20)
(0.7001 -0.1195 0)
(0.5788 -0.005648 5.074e-24)
(0.6638 -0.02362 0)
(0.8912 -0.2434 1.498e-21)
(0.4982 0.01124 6.622e-23)
(0.5896 -0.01048 -4.804e-23)
(1.027 0.03267 -1.014e-21)
(0.8614 -0.08443 0)
(0.4887 0.009497 -1.064e-22)
(0.8569 0.5659 0)
(0.8993 -0.1418 -1.236e-21)
(0.7223 -0.1169 0)
(0.5254 0.002391 -3.001e-23)
(0.4855 0.01132 1.241e-22)
(0.8465 -0.1332 0)
(0.4911 0.01184 8.109e-23)
(0.6363 -0.1207 0)
(0.8853 -0.2112 -2.079e-22)
(0.7356 -0.1161 -1.069e-21)
(1.01 0.5672 0)
(0.9899 -0.003747 1.949e-22)
(0.6094 -0.122 3.652e-22)
(0.7067 -0.1447 1.722e-21)
(0.1243 -0.2186 -1.447e-21)
(0.4201 -0.005518 0)
(1.009 0.0007497 -1.558e-20)
(0.9064 -0.06923 0)
(0.5683 0.006432 1.767e-22)
(0.9773 -0.01876 -3.044e-21)
(1.008 0.01933 2.092e-21)
(0.7324 -0.2984 7.938e-22)
(0.7103 -0.04609 1.882e-23)
(0.6462 -0.1219 7.402e-22)
(0.7485 -0.06071 -1.316e-22)
(0.6168 -0.1216 0)
(0.6067 -0.1217 -2.768e-22)
(0.6107 -0.01475 0)
(0.6275 -0.01861 -4.175e-23)
(0.4855 -0.1151 -1.736e-22)
(0.5711 -0.005107 2.697e-23)
(-0.002941 -0.03639 -3.636e-22)
(0.8589 -0.2964 8.918e-23)
(0.7493 -0.1147 -4.211e-22)
(0.3988 0.01555 3.128e-24)
(1.015 0.006115 -2.237e-21)
(0.8039 -0.08478 0)
(0.6321 -0.1218 -4.848e-22)
(0.7204 0.163 2.113e-21)
(0.5354 0.001166 0)
(0.5341 -0.12 -2.3e-22)
(1.006 0.0002585 -1.791e-21)
(1.004 -0.0001602 2.081e-21)
(1.023 0.02116 -1.457e-22)
(1.087 0.1337 3.506e-22)
(0.8348 -0.09607 1.013e-21)
(1.006 0.0002799 1.694e-21)
(1.004 -0.0001675 -2.207e-21)
(0.8197 0.5258 -2.321e-22)
(0.6363 -0.121 -4.201e-22)
(1 0.04153 0)
(0.7757 -0.1083 0)
(1.001 -0.0005841 -1.515e-21)
(0.4534 0.01327 3.787e-23)
(0.5139 0.006345 0)
(0.9695 -0.0347 0)
(0.7097 -0.1181 5.287e-22)
(0.6374 0.09295 -2.884e-21)
(0.776 -0.07381 1.427e-24)
(1.009 0.0008049 1.455e-20)
(0.8058 -0.09574 0)
(0.9491 -0.09434 1.764e-21)
(0.563 0.01375 -6.145e-23)
(0.9853 -0.03795 0)
(0.8342 -0.09905 2.725e-22)
(0.8096 0.7022 0)
(0.9914 -0.01107 -5.392e-22)
(0.663 -0.1208 3.439e-22)
(0.876 -0.1794 -8.978e-23)
(0.7237 -0.05209 -9.68e-23)
(0.7313 -0.1162 1.324e-22)
(0.6349 -0.1204 -4.27e-22)
(1.066 0.4005 0)
(0.6939 -0.03925 -4.11e-23)
(1.029 0.3314 -4.507e-23)
(0.9561 0.1186 -1.806e-22)
(1.002 -0.0006409 -4.396e-21)
(1.008 -0.0008364 1.147e-20)
(0.4644 0.01269 1.969e-22)
(0.817 -0.1108 -4.167e-22)
(0.4692 0.01198 1.01e-22)
(0.852 -0.1309 -3.937e-22)
(0.5797 -0.005949 -6.803e-23)
(0.6942 -0.03956 -3.839e-23)
(1.04 0.06268 0)
(0.8284 -0.05767 1.247e-22)
(0.9257 -0.05899 5.941e-26)
(0.8762 -0.1585 6.178e-22)
(1.001 0.04497 0)
(0.9096 -0.05499 1.002e-20)
(0.9261 -0.001241 1.171e-21)
(0.8698 -0.02999 1.619e-21)
(0.5836 -0.007923 0)
(0.8314 -0.3326 5.616e-22)
(0.7513 -0.06415 0)
(0.7939 -0.1063 3.351e-22)
(0.5254 0.002498 2.967e-23)
(0.5004 0.0113 7.254e-23)
(1 0.001565 1.718e-20)
(0.7406 -0.02855 0)
(0.6446 -0.121 -3.489e-23)
(0.9429 0.176 -3.269e-23)
(0.6025 -0.1222 0)
(0.6473 -0.1217 0)
(0.9829 -0.02313 -6.733e-21)
(0.7724 -0.07508 0)
(1.001 0.00159 -3.625e-20)
(0.9266 -0.05853 7.411e-22)
(0.8765 -0.226 1.147e-22)
(0.4682 -0.1137 1.425e-22)
(0.8162 -0.1027 0)
(0.5968 0.007462 0)
(0.8173 -0.3185 0)
(0.485 0.01134 -1.712e-22)
(0.8616 -0.08431 9.165e-22)
(0.5853 -0.009317 2.86e-23)
(0.5601 -0.1208 8.644e-22)
(1.011 0.05897 -5.961e-22)
(0.6157 -0.01615 1.837e-23)
(0.7656 -0.01133 -4.598e-21)
(1.031 0.03456 0)
(0.6364 -0.003838 1.669e-22)
(0.9214 0.05091 -6.807e-22)
(0.8793 -0.2901 2.364e-22)
(0.5936 -0.122 -7.08e-22)
(1.108 0.1781 3.834e-24)
(0.697 0.2323 0)
(0.622 -0.0147 2.956e-23)
(1.009 0.01376 -3.981e-21)
(0.7149 -0.04983 0)
(1.007 0.004476 0)
(0.6276 -0.0186 3.46e-23)
(0.7352 -0.06127 1.56e-21)
(1.018 0.0007648 1.698e-22)
(1.068 0.09211 -6.445e-23)
(0.5353 -0.12 -4.947e-22)
(0.5128 0.006334 -8.745e-23)
(0.4699 0.01257 0)
(0.7933 -0.08801 6.081e-23)
(0.9899 -0.01253 -4e-22)
(1.002 -0.0006491 4.345e-21)
(0.9989 0.00085 -1.106e-19)
(0.5311 0.01126 -6.459e-23)
(1.026 0.0756 1.077e-21)
(0.5338 -0.1198 4.231e-25)
(0.9825 0.2435 0)
(0.4428 0.01324 4.925e-23)
(0.7927 -0.0875 1.136e-22)
(0.9951 0.0006877 -3.058e-21)
(0.6031 -0.01365 -6.716e-23)
(1.008 0.01053 -3.371e-21)
(0.541 0.003342 1.09e-24)
(0.4542 -0.1161 -4.745e-23)
(0.005658 0.002282 0)
(1.001 -0.001508 5.275e-20)
(0.2393 -0.1315 9.714e-22)
(0.9079 -0.06849 0)
(0.5381 0.0009885 0)
(1.007 0.00437 -5.848e-21)
(0.573 -0.005555 0)
(0.9418 -0.0734 1.311e-21)
(0.7507 -0.06382 0)
(0.8165 -0.1005 -9.672e-22)
(0.5439 -0.1204 1.428e-22)
(0.9962 0.005573 1.522e-20)
(0.6171 -0.1223 0)
(0.6495 -0.02077 0)
(1.022 0.009959 -1.222e-21)
(0.8797 -0.1844 1.098e-22)
(0.8143 -0.09863 0)
(0.996 0.005403 1.598e-20)
(0.7362 -0.04591 6.206e-24)
(1.11 0.2868 -4.813e-22)
(1.016 0.0002954 2.555e-20)
(0.6024 -0.01245 4.184e-23)
(1.08 0.18 4.164e-24)
(0.5987 -0.2039 1.573e-21)
(0.4889 0.009183 -1.047e-22)
(0.8796 -0.184 -3.5e-22)
(1.047 0.3458 0)
(0.573 -0.1204 9.614e-22)
(1 0.001606 -6.891e-21)
(0.8983 -0.07163 1.166e-21)
(1.015 0.0005847 -1.985e-20)
(0.6122 0.01059 2.383e-22)
(0.5504 -0.1138 0)
(0.6107 -0.01496 2.823e-23)
(1.006 0.01885 -6.851e-22)
(0.5133 0.006318 0)
(0.5814 -0.1182 -2.719e-22)
(0.582 0.4084 0)
(0.6286 -0.1223 -9.684e-22)
(0.4764 -0.1144 -2.012e-22)
(0.797 -0.09065 -6.621e-23)
(0.9997 0.2147 6.168e-25)
(0.5137 0.006911 -6.37e-23)
(0.9774 -0.04672 8.663e-22)
(0.956 0.01523 2.993e-21)
(1.007 -0.0005109 1.79e-20)
(0.8847 -0.2099 -3.856e-22)
(0.6243 -0.01488 0)
(0.6848 0.01192 -3.976e-21)
(0.973 -0.02664 2.039e-22)
(1 0.009199 1.204e-20)
(1.074 0.1099 6.415e-22)
(0.7147 -0.04754 5.38e-23)
(0.9973 -0.003749 1.782e-20)
(0.5819 -0.01064 -1.021e-22)
(0.6497 -0.02332 2.18e-23)
(0.9295 -0.05438 -3.993e-22)
(0.7326 -0.05513 0)
(0.4459 -0.1215 2.745e-22)
(0.5129 -0.1184 0)
(0.616 -0.0163 0)
(0.9843 -0.04204 0)
(0.8073 -0.09676 0)
(0.9626 -0.07177 0)
(1.094 0.1391 1.159e-22)
(0.7684 -0.07305 6.359e-23)
(0.4464 0.01388 3.197e-23)
(0.9945 0.0007123 0)
(0.5263 -0.1194 -3.371e-22)
(0.7409 -0.07807 0)
(0.9973 0.0009493 3.556e-20)
(0.8169 -0.1006 4.345e-22)
(0.9914 -0.03474 -2.396e-21)
(0.7584 -0.06778 -1.57e-22)
(0.956 0.4862 -2.8e-22)
(0.5937 -0.01126 -1.072e-23)
(0.6962 -0.04106 -5.405e-23)
(0.6149 -0.1225 -1.399e-22)
(0.7734 -0.1085 1.306e-21)
(0.8058 -0.1036 -2.01e-25)
(0.8864 -0.2322 -2.367e-22)
(0.6099 -0.01479 -9.885e-23)
(0.9488 -0.01184 0)
(0.7777 -0.07481 8.817e-23)
(0.7366 -0.1159 1.226e-21)
(0.4535 0.01371 -5.912e-23)
(0.4386 0.02742 -3.534e-23)
(0.6702 -0.1201 -1.045e-21)
(0.4512 0.01336 0)
(0.8133 -0.09915 -7.008e-23)
(0.8008 -0.1044 1.923e-21)
(1.01 0.01236 1.152e-20)
(1.001 0.0009209 2.623e-21)
(0.9919 0.0006207 -5.958e-22)
(0.9747 -0.02564 1.234e-21)
(0.6131 -0.1206 1.032e-21)
(0.8608 -0.3175 -1.355e-21)
(0.9924 0.0007337 2.05e-21)
(1.003 0.002207 0)
(1.046 0.04934 3.913e-22)
(0.6544 -0.02636 1.412e-24)
(0.7592 -0.1122 -2.115e-22)
(0.5565 -0.001785 0)
(0.5201 0.0106 0)
(0.993 -0.009546 -4.217e-22)
(1.074 0.09847 0)
(1.028 0.03421 0)
(1.013 0.002963 0)
(0.8135 -0.1107 -1.945e-24)
(0.5996 0.007899 0)
(0.5457 -0.1195 4.415e-22)
(0.9247 0.1494 0)
(0.6636 -0.1216 -2.476e-22)
(0.7018 -0.1181 0)
(0.9976 -0.0008617 -6.793e-21)
(0.8393 -0.08164 1.213e-22)
(0.9974 -0.0008334 0)
(0.8176 -0.1009 -3.627e-22)
(0.1783 -0.0871 1.435e-21)
(0.1787 0.1294 3.374e-25)
(0.6153 -0.1217 2.36e-22)
(1.021 0.5344 0)
(0.8839 -0.1618 -7.452e-22)
(0.7847 -0.1081 3.246e-23)
(0.7192 -0.05023 0)
(0.6604 -0.193 -1.875e-21)
(0.6408 -0.1208 1.035e-21)
(1.007 -0.0004902 -1.692e-20)
(0.9209 0.02878 -2.56e-21)
(0.732 -0.0537 3.112e-23)
(1.007 0.0005032 -2.973e-21)
(0.668 -0.03092 0)
(1.068 0.08182 0)
(0.4935 -0.1148 4.286e-25)
(0.5956 -0.007022 5.76e-23)
(0.5999 -0.1215 6.971e-22)
(1.091 0.4269 3.237e-23)
(0.4933 0.009119 -6.978e-22)
(1.014 0.0006543 9.246e-21)
(1.01 -0.008519 -3.4e-20)
(0.8601 -0.1523 -1.416e-22)
(1.002 0.0009809 0)
(0.5805 -0.3236 -1.451e-22)
(1.016 0.1471 3.199e-22)
(0.611 -0.01496 0)
(0.7791 0.7133 0)
(0.5091 0.006492 1.92e-22)
(0.9867 0.5737 -3.453e-22)
(0.7589 -0.06601 0)
(0.7724 0.2625 0)
(0.9411 -0.0318 -1.048e-21)
(0.5527 -0.001561 7.205e-23)
(1.004 -0.004273 3.252e-20)
(0.6554 -0.02677 3.226e-24)
(1.009 -0.001391 -1.488e-20)
(0.8583 -0.08859 3.688e-22)
(1.004 0.04698 0)
(0.9987 0.001298 4.331e-22)
(0.5142 0.006842 -1.654e-23)
(0.7221 -0.1175 0)
(0.9469 -0.0459 -6.252e-22)
(0.7065 -0.03236 0)
(0.8175 -0.1034 0)
(0.6954 -0.03993 4.133e-23)
(0.4976 0.003979 -1.208e-22)
(1.023 0.01111 0)
(0.6498 -0.1215 1.065e-23)
(0.5738 -0.1207 -8.258e-22)
(0.6504 -0.1209 0)
(1.032 0.03145 0)
(1.002 0.0242 1.837e-21)
(0.02663 0.08426 1.693e-21)
(0.4956 0.008846 -2.699e-23)
(0.5607 -0.004868 0)
(0.5361 0.01119 0)
(0.5808 -0.1221 -5.338e-22)
(0.547 -0.1196 -1.074e-21)
(0.8819 -0.2495 3.123e-22)
(0.6024 -0.01271 0)
(0.5163 0.0113 -8.996e-23)
(0.3861 -0.4235 3.926e-22)
(0.8005 -0.05801 0)
(0.5357 -0.1197 -1.821e-24)
(1.096 0.1526 0)
(0.8623 -0.3183 -5.68e-22)
(0.984 -0.0004202 -1.336e-20)
(0.8217 -0.1092 -2.008e-22)
(0.544 -0.1203 -6.033e-23)
(0.8565 -0.1417 -7.416e-22)
(0.9206 -0.06762 4.362e-23)
(0.671 -0.03523 1.245e-22)
(0.7643 -0.03622 4.272e-23)
(0.5875 0.005204 0)
(0.7485 -0.05853 2.415e-23)
(0.7723 -0.1321 1.748e-21)
(0.6532 -0.04701 0)
(1.021 0.006075 5.058e-22)
(0.852 -0.08727 -2.847e-22)
(0.5333 0.008216 -7.231e-23)
(0.9118 -0.06512 -2.186e-22)
(0.7074 -0.1179 1.944e-22)
(0.8728 -0.1735 -4.639e-22)
(1 -0.001072 -1.98e-20)
(1.011 -0.00865 3.855e-20)
(0.9998 -0.001148 2.224e-20)
(0.9441 -0.08953 4.764e-23)
(0.8181 -0.08367 5.109e-22)
(0.6066 -0.1226 4.063e-22)
(1.094 0.1379 -2.524e-22)
(0.442 0.01412 -1.081e-25)
(1.027 0.03768 -1.729e-21)
(0.4903 -0.1156 4.781e-22)
(0.5908 -0.121 -7.389e-22)
(0.6817 -0.03304 5.11e-25)
(1.003 0.004571 0)
(0.7514 -0.117 0)
(0.5457 0.002797 0)
(0.6989 -0.04138 -2.648e-23)
(1.001 -0.001466 0)
(0.8765 -0.2254 0)
(0.9845 -0.000499 1.353e-21)
(0.8652 -0.133 0)
(0.8843 -0.1609 0)
(0.289 -0.09707 1.449e-22)
(0.4539 0.01361 7.698e-23)
(0.6309 -0.003008 0)
(1.011 0.04185 -2.274e-22)
(0.6057 -0.006842 4.447e-23)
(0.2428 -0.3708 7.187e-22)
(0.8066 -0.09616 1.191e-22)
(0.8838 -0.2076 -5.764e-22)
(0.9926 0.0003904 0)
(0.5769 -0.005919 -8.245e-23)
(1.007 0.0004597 7.608e-23)
(0.8545 -0.2349 -7.463e-22)
(0.4699 0.01186 8.407e-23)
(0.9919 -0.01319 0)
(0.9169 -0.05699 0)
(0.7388 -0.05775 1.198e-22)
(1.06 0.4631 -8.356e-23)
(0.8576 -0.1237 -2.05e-22)
(0.8661 -0.08292 -4.312e-22)
(0.4802 0.01177 0)
(0.7301 -0.1162 -8.281e-22)
(1.012 0.04097 -3.501e-22)
(0.8202 -0.09777 -1.747e-21)
(0.8833 -0.2066 3.214e-22)
(0.7742 -0.07642 -6.735e-23)
(0.7559 -0.06485 0)
(0.5428 0.003059 7.252e-23)
(0.5406 0.01178 1.558e-22)
(0.9429 -0.04812 -2.512e-21)
(0.7927 -0.1071 0)
(0.8954 -0.1002 1.243e-23)
(0.8261 0.3906 0)
(0.4543 0.01318 6.538e-23)
(0.7335 -0.1157 1.613e-23)
(0.46 0.01278 -1.78e-23)
(0.6123 0.009389 -2.772e-22)
(0.5405 0.002928 0)
(0.6731 -0.03914 4.952e-22)
(0.5846 0.01444 0)
(0.5958 -0.009472 0)
(0.7373 -0.04907 -4.318e-23)
(0.7694 -0.1285 -1.783e-21)
(0.8822 -0.1909 -2.654e-23)
(0.899 -0.001679 -7.199e-22)
(0.9897 -0.01224 0)
(0.8463 -0.1336 -1.788e-22)
(0.5616 -0.004886 -6.401e-23)
(0.7457 0.2363 0)
(0.9926 0.0003659 0)
(0.5321 0.003564 1.113e-22)
(0.8457 -0.1104 -2.741e-24)
(1.013 -0.0003847 -1.672e-20)
(0.73 -0.1163 9.661e-22)
(0.5904 -0.1216 -1.051e-26)
(0.6327 -0.1215 8.811e-22)
(0.719 -0.04309 -4.799e-24)
(0.5239 0.00485 6.367e-23)
(0.3454 -0.302 -8.15e-22)
(0.8823 -0.2881 -7.925e-22)
(0.5653 -0.1208 -2.836e-22)
(1.087 0.1331 -2.724e-22)
(0.5991 -0.009244 1.353e-23)
(0.5352 0.002377 1.356e-23)
(0.7953 -0.171 -1.627e-21)
(0.9907 0.0002925 -8.204e-21)
(0.9755 -0.05492 1.007e-21)
(0.9996 -0.001258 -5.879e-22)
(0.6194 -0.1215 2.555e-22)
(0.8875 -0.06057 -4.891e-21)
(0.9544 -0.06257 -8.586e-23)
(0.5994 -0.01195 0)
(0.8863 -0.233 4.351e-23)
(1.001 0.00886 0)
(0.8061 -0.1039 -9.096e-22)
(0.8519 -0.1385 0)
(0.7674 -0.07253 0)
(0.999 0.0009319 1.097e-19)
(0.6612 -0.1218 -3.95e-22)
(0.8959 -0.1013 3.84e-23)
(0.7304 -0.05397 -1.941e-22)
(1.003 0.002572 -1.428e-20)
(0.884 -0.208 1.787e-22)
(0.591 0.3887 4.586e-22)
(0.4163 -0.1041 -1.687e-22)
(0.8397 -0.0939 7.863e-22)
(1.014 0.0006502 -9.424e-21)
(0.7378 -0.1149 -9.78e-22)
(0.8535 -0.1319 2.07e-22)
(0.7179 -0.04902 0)
(0.9955 0.001123 1.511e-21)
(0.9978 -0.0003803 -1.896e-22)
(0.9999 0.0006976 -1.596e-22)
(0.6039 -0.01392 8.137e-23)
(0.5018 0.008369 0)
(0.8077 -0.05534 0)
(0.7734 -0.07583 -1.242e-23)
(0.4513 0.01335 0)
(0.9885 -0.01524 -8.341e-22)
(0.5637 -0.004211 -9.038e-23)
(0.9506 0.4907 4.464e-22)
(0.3861 0.6442 3.13e-22)
(0.9487 -0.04449 6.715e-22)
(0.9853 -0.03628 5.511e-22)
(0.5571 -0.1212 -3.001e-22)
(1.093 0.1436 -2.04e-24)
(1.006 0.01849 7.082e-22)
(0.7479 -0.3698 3.364e-22)
(0.8828 -0.2807 2.457e-22)
(0.8159 -0.1138 1.912e-22)
(0.7092 -0.04458 -1.86e-22)
(0.8833 -0.1274 -3.665e-24)
(1.057 0.06823 -2.513e-22)
(0.5863 -0.008573 -4.009e-23)
(0.7614 -0.1116 -1.03e-22)
(0.9996 0.04051 0)
(0.5277 0.00503 4.209e-23)
(0.9924 4.267e-05 -7.536e-23)
(1.002 -0.003022 0)
(0.8644 -0.3076 -3.841e-22)
(0.6526 -0.1222 3.605e-22)
(1.011 0.006892 0)
(0.9652 -0.06806 2.764e-22)
(0.8908 -0.2433 -1.059e-21)
(0.8383 -0.3276 0)
(0.4904 -0.1163 4.582e-22)
(0.5444 -0.1203 -5.351e-22)
(0.4405 0.0242 -1.072e-23)
(0.7616 -0.01218 0)
(0.9936 -0.007573 6.255e-22)
(0.6865 -0.03757 1.191e-22)
(1.013 -0.0004563 5.393e-21)
(0.7829 -0.02854 -1.825e-22)
(0.6479 -0.1216 -1.151e-21)
(0.7061 -0.1178 7.183e-22)
(0.5117 0.006187 -1.031e-22)
(0.7406 -0.05867 -1.133e-22)
(0.4407 -0.1092 -1.668e-22)
(0.539 0.0009456 -9.857e-24)
(0.8369 -0.02912 0)
(0.6497 -0.1215 -2.115e-22)
(1.072 0.3916 0)
(0.877 -0.1722 -2.285e-22)
(0.7893 -0.3385 0)
(1.018 0.2421 2.904e-24)
(0.5651 -0.002503 -1.46e-22)
(0.605 -0.1222 3.724e-22)
(0.9788 -0.04588 -3.477e-22)
(1.073 0.09903 8.777e-23)
(1.009 -0.001327 0)
(0.8426 -0.09245 0)
(0.9951 0.001106 0)
(0.1999 0.5772 -3.147e-22)
(0.8475 -0.134 -2.892e-22)
(0.9268 -0.05681 -1.184e-22)
(0.4798 0.01007 0)
(0.3826 0.6408 -1.044e-21)
(1.002 0.01014 -1.37e-20)
(0.7602 -0.06868 1.821e-22)
(0.4932 0.01173 -7.906e-23)
(0.9865 -0.01617 0)
(0.4707 -0.1136 -1.614e-22)
(0.4373 0.02854 4.357e-23)
(0.7408 -0.05877 -1.086e-22)
(0.7214 -0.05099 0)
(1.012 0.5703 5.658e-22)
(0.8152 -0.319 -3.126e-22)
(0.6547 -0.1224 -5.362e-23)
(0.6916 0.224 0)
(0.5929 -0.1216 -6.383e-22)
(0.5833 -0.008113 0)
(1.013 -0.007003 1.079e-20)
(0.6265 -0.1221 1.841e-21)
(0.5129 -0.1181 0)
(0.5324 -0.1153 0)
(0.5669 -0.1016 0)
(0.5596 -0.1209 3.655e-23)
(0.7139 -0.01711 1.56e-22)
(0.743 -0.1144 0)
(0.4115 0.0145 5.497e-23)
(0.9936 0.0002641 -2.627e-21)
(0.0792 0.0568 0)
(0.8261 -0.338 1.056e-24)
(1.02 0.01019 2.791e-22)
(0.4821 0.01142 5.476e-23)
(0.8624 -0.245 0)
(0.536 0.005864 3.331e-23)
(0.5512 -0.07237 -4.144e-21)
(0.3576 0.003656 0)
(0.6808 -0.03514 1.793e-23)
(0.3251 -0.1585 -1.224e-22)
(0.7569 -0.06735 1.026e-22)
(0.68 -0.03535 1.248e-23)
(0.4698 0.01183 -1.546e-23)
(0.6342 -0.02088 1.264e-23)
(0.7819 -0.3711 -9.36e-22)
(0.4647 -0.1129 5.143e-23)
(0.9647 0.004855 5.035e-21)
(0.7796 -0.07832 -9.214e-23)
(0.5499 0.00655 0)
(0.6932 -0.1193 -1.371e-21)
(0.8636 -0.2001 4.703e-22)
(0.6951 -0.1196 0)
(0.8002 -0.0813 0)
(0.8372 -0.03727 3.335e-22)
(1.01 0.0004214 -2.15e-20)
(0.5193 -0.1188 0)
(0.6017 -0.01254 0)
(0.9889 -0.03891 -2.204e-21)
(0.9909 -0.007502 -4.763e-22)
(1.003 0.002541 -2.157e-20)
(0.537 0.003793 -1.931e-22)
(0.4697 0.01214 1.557e-23)
(1.02 0.01748 3.306e-23)
(0.5789 -0.007964 -1.116e-22)
(0.7969 0.3015 0)
(0.9863 -0.01665 0)
(0.9961 0.003268 -9.54e-23)
(0.4412 -0.1092 3.25e-22)
(0.8695 -0.3115 2.458e-24)
(1.006 0.0002846 0)
(1.003 -0.0001826 6.447e-21)
(0.5986 -0.122 -5.559e-22)
(1.077 0.1037 -4.195e-22)
(0.4622 0.01282 1.584e-22)
(0.7365 -0.06147 4.061e-22)
(0.5266 -0.4598 -1.307e-21)
(0.8978 -0.05206 1.75e-22)
(0.8406 -0.1273 5.446e-22)
(0.5178 -0.3877 -8.401e-22)
(0.612 -0.122 0)
(0.3592 0.006893 0)
(0.6083 -0.001539 -6.064e-24)
(0.8899 -0.2104 -1.193e-22)
(0.4903 0.009691 -2.161e-22)
(0.7496 -0.1128 1.708e-21)
(0.6946 -0.1191 0)
(0.5892 -0.1207 -3.159e-22)
(1.008 0.01876 3.472e-21)
(0.9863 0.0007287 0)
(0.9972 -0.0003328 0)
(0.9992 0.0006638 3.39e-22)
(0.8525 -0.3275 4.518e-22)
(0.4473 0.0106 3.417e-22)
(0.7809 -0.04172 1.939e-20)
(0.6123 -0.01509 4.297e-23)
(0.9342 -0.04618 -2.351e-24)
(0.6416 -0.02286 -1.015e-23)
(0.6154 -0.1222 0)
(0.8677 0.03908 -1.034e-21)
(0.9954 0.004953 -2.541e-20)
(0.8609 -0.1515 4.104e-22)
(0.9612 -0.03379 -7.483e-22)
(0.5454 -0.04855 0)
(0.5537 -0.002324 0)
(0.7711 -0.07546 5.366e-22)
(0.8713 -0.08274 -8.201e-22)
(0.5097 0.008313 9.554e-23)
(0.5825 -0.1211 0)
(0.9237 -0.05521 -7.074e-22)
(0.9934 0.003249 -1.087e-23)
(0.9477 -0.04141 1e-21)
(0.611 -0.01511 5.458e-23)
(0.5602 0.001325 1.061e-22)
(0.7136 -0.04171 4.607e-24)
(1.022 0.01677 1.553e-21)
(0.4413 0.02323 2.771e-24)
(0.8 -0.09183 2.934e-22)
(0.8238 -0.1103 -2.506e-22)
(0.9722 -0.01659 0)
(0.5682 -0.003906 0)
(0.9925 3.302e-05 0)
(0.5573 -0.002791 5.139e-23)
(0.439 0.01486 -6.093e-23)
(0.8955 -0.02632 3.384e-23)
(0.8188 -0.1062 0)
(0.5918 -0.1217 0)
(0.3466 0.01228 1.533e-21)
(0.7363 -0.1143 -1.885e-21)
(0.8495 -0.1382 0)
(0.9732 0.07481 -6.34e-24)
(1.004 -0.004379 -6.277e-21)
(0.551 -0.1212 -8.788e-22)
(0.6667 -0.02386 0)
(0.5046 -0.1156 -4.789e-24)
(0.9797 -0.02161 9.587e-22)
(0.9687 -0.02986 0)
(0.8579 -0.147 0)
(0.4677 0.01292 -4.08e-23)
(0.9135 -0.06499 0)
(1.089 0.245 -1.719e-22)
(0.8651 -0.1479 2.164e-22)
(1.011 -0.0002722 0)
(0.9643 -0.02508 4.318e-21)
(0.6209 -0.1215 3.325e-22)
(0.7248 -0.1171 -8.382e-22)
(0.6638 -0.1214 -4.894e-22)
(0.821 -0.1085 1.819e-22)
(0.3762 0.0004663 1.022e-22)
(0.7536 -0.0689 0)
(0.6881 -0.1209 0)
(0.7529 -0.06867 0)
(0.8894 -0.2143 0)
(0.3725 0.00154 0)
(0.6667 -0.1208 0)
(0.7076 -0.1188 -4.435e-22)
(0.4884 -0.1132 0)
(0.3799 0.02221 -6.841e-22)
(0.9289 -0.0006518 -8.303e-22)
(1.017 0.01513 6.408e-22)
(0.4299 -0.1077 -8.056e-23)
(0.7024 -0.1184 -1.544e-21)
(0.5857 -0.009162 0)
(0.7166 -0.04342 0)
(1.009 0.0003651 1.394e-20)
(0.7029 -0.1187 -1.736e-21)
(0.8077 -0.1033 6.241e-22)
(0.8874 -0.2689 0)
(0.9406 -0.05888 -3.516e-21)
(1.005 -0.0002542 7.857e-22)
(0.4855 0.01024 0)
(0.4689 0.01289 1.728e-22)
(0.5062 -0.1158 7.906e-22)
(0.4766 0.01179 0)
(0.6632 0.00393 -3.098e-21)
(0.9983 0.02855 -5.281e-24)
(0.993 0.002581 1.216e-21)
(0.874 -0.1719 1.237e-22)
(0.9339 -0.0539 -1.062e-22)
(0.5175 -0.118 7.153e-22)
(0.687 -0.1195 0)
(0.5581 -0.002969 -9.329e-23)
(0.9988 0.0012 -1.415e-20)
(0.5204 -0.1188 0)
(1.003 -0.0001179 0)
(0.8867 -0.07741 8.765e-22)
(0.5558 -0.1207 0)
(0.7525 -0.06381 -2.901e-23)
(0.465 -0.113 4.041e-22)
(0.9852 0.1011 -2.928e-22)
(1.01 0.007773 4.325e-22)
(0.6377 -0.4214 -2.508e-22)
(0.8739 -0.183 3.451e-22)
(0.9094 0.02951 -3.776e-22)
(0.5694 -0.1194 0)
(0.6398 0.0002888 -1.179e-22)
(0.7167 -0.04719 0)
(0.7501 -0.1139 1.247e-21)
(1.003 0.0007497 5.679e-22)
(0.8344 -0.05771 0)
(0.8667 -0.3299 -2.495e-21)
(0.9708 -0.03471 4.645e-22)
(0.6793 -0.1212 -7.934e-22)
(0.4663 -0.112 -2.047e-22)
(0.9183 0.5968 9.178e-23)
(0.864 -0.1506 1.471e-22)
(0.8706 -0.2668 5.542e-22)
(1.007 0.008262 1.959e-21)
(0.9495 0.02455 -1.281e-21)
(0.6771 -0.1197 -1.578e-21)
(1.042 0.08759 -5.608e-22)
(0.6627 -0.02875 -1.775e-23)
(1.01 0.06047 1.486e-22)
(0.8156 -0.103 7.163e-23)
(0.785 -0.08158 7.888e-23)
(1.012 0.01643 1.623e-21)
(0.6786 -0.008806 -5.727e-23)
(0.7032 -0.04268 1.853e-23)
(1.048 0.3431 0)
(0.4341 -0.2513 8.69e-22)
(0.6236 -0.08887 -1.856e-21)
(0.6504 -0.1203 1.335e-21)
(0.5942 -0.1213 -1.579e-21)
(1.002 -0.004 1.497e-21)
(0.9012 -0.03185 0)
(0.8077 -0.1 -5.523e-22)
(0.7512 -0.1142 -1.576e-22)
(0.5788 -0.1215 -5.882e-26)
(0.9916 -0.003828 0)
(0.4353 -0.005019 -1.822e-23)
(0.4316 -0.1073 2.696e-22)
(0.8365 -0.1197 -1.034e-22)
(1.002 0.008954 0)
(0.6673 -0.1213 6.54e-22)
(0.4761 -0.1144 -4.236e-22)
(0.8828 0.0006656 9.049e-22)
(1.045 0.3505 -1.955e-23)
(0.8598 -0.1272 0)
(0.9995 -0.01837 -3.718e-21)
(0.8758 -0.1758 0)
(0.9235 -0.0286 0)
(0.7926 -0.08698 0)
(0.631 -0.02028 0)
(0.9962 -0.006919 2.022e-22)
(0.4301 -0.1069 -2.019e-22)
(0.5386 0.00376 1.351e-22)
(0.764 -0.1105 0)
(0.9972 -0.0001319 1.896e-21)
(0.9868 -0.00351 2.449e-20)
(1.003 0.5538 -5.146e-23)
(0.5429 -0.1192 0)
(0.9778 -0.02233 3.265e-21)
(0.4263 -0.08155 -1.1e-20)
(0.5023 0.008154 6.597e-23)
(0.6771 -0.1208 7.206e-22)
(0.7757 -0.2948 -1.547e-21)
(0.9902 0.02112 -2.414e-21)
(1.006 0.0002322 7.924e-21)
(0.6747 -0.1208 3.268e-23)
(0.8717 -0.1583 3.819e-22)
(0.4097 -0.3575 0)
(0.9883 -0.009055 0)
(0.6096 -0.0184 1.408e-22)
(0.7971 -0.1057 2.003e-22)
(0.5472 -0.000348 -7.436e-23)
(-0.006772 -0.0465 0)
(0.7322 -0.05416 1.679e-22)
(0.8314 -0.09681 -7.218e-22)
(0.5486 -0.0001686 0)
(0.6326 -0.1208 -2.515e-21)
(1.023 0.02125 -1.719e-22)
(0.5801 0.001553 7.477e-22)
(0.5443 -0.1173 0)
(0.9337 -0.005051 -4.405e-22)
(0.7755 -0.109 4.978e-22)
(0.694 -0.1192 5.824e-22)
(0.5082 0.0117 1.164e-22)
(1.08 0.1563 0)
(0.8583 -0.08776 1.664e-21)
(0.7781 -0.1088 9.861e-22)
(0.4539 -0.2553 -3.059e-21)
(0.5912 0.6597 -3.833e-22)
(0.5697 -0.003246 0)
(0.486 -0.07784 0)
(0.4555 0.01433 -1.821e-22)
(1.016 0.0002185 -1.884e-20)
(0.804 -0.09437 -5.228e-25)
(0.5112 -0.1177 6.411e-22)
(1.064 0.07982 -4.719e-22)
(0.7582 -0.06753 -1.329e-22)
(1.05 0.09499 0)
(0.4749 -0.07864 2.371e-21)
(0.4947 -0.1156 1.161e-21)
(0.9506 0.02374 2.683e-21)
(0.5214 0.004878 0)
(0.8948 -0.2527 0)
(0.8833 -0.1227 -4.809e-22)
(0.5362 0.001492 0)
(0.9937 -0.0004177 0)
(0.9647 0.007632 0)
(0.8809 -0.1663 1.125e-21)
(0.487 0.009339 -1.817e-22)
(0.4283 0.01897 -5.594e-23)
(0.6949 -0.03952 -3.867e-23)
(0.884 -0.2085 0)
(1.006 0.01064 9.27e-22)
(0.9825 0.002453 0)
(0.8253 -0.09907 -7.354e-23)
(1.009 0.01695 0)
(0.9263 -0.05693 3.141e-23)
(0.8094 -0.04465 2.504e-20)
(0.4531 0.01368 4.847e-23)
(0.9231 -0.06063 0)
(0.5202 -0.1177 -4.705e-22)
(0.4796 -0.1663 1.601e-22)
(0.9628 0.001108 7.885e-23)
(0.5383 0.0008301 -1.999e-22)
(0.9893 0.0008362 1.079e-20)
(0.5802 -0.1219 1.155e-22)
(0.4869 0.00987 1.283e-22)
(0.709 -0.03264 -2.082e-23)
(0.8482 -0.1355 0)
(0.0494 0.05988 -8.508e-22)
(0.8133 -0.1005 -3.159e-23)
(1.014 0.01089 0)
(0.5266 -0.1194 -4.013e-22)
(0.799 -0.08478 -2.404e-23)
(0.5888 -0.07674 0)
(0.9975 0.05267 -7.321e-22)
(1.092 0.327 0)
(0.6202 -0.1873 -8.653e-22)
(0.9067 -0.05584 -1.048e-20)
(1.006 -0.001818 2.088e-20)
(0.5315 0.0006474 0)
(0.8706 -0.08352 2.937e-22)
(0.5307 0.001437 4.548e-23)
(0.3347 -0.07812 1.313e-21)
(0.557 -0.1213 -5.051e-22)
(0.3191 0.01103 -8.441e-22)
(0.5253 0.01278 -1.883e-22)
(0.493 -0.116 0)
(0.6944 -0.1192 -2.412e-22)
(0.8565 -0.1111 0)
(0.5373 0.007424 0)
(0.8529 -0.1404 0)
(0.8151 -0.07444 2.37e-23)
(0.8786 -0.2881 0)
(1.095 0.1443 6.771e-22)
(0.542 0.0003483 -5.112e-23)
(0.3509 -0.4072 -4.791e-24)
(0.4406 0.02463 2.34e-23)
(0.5631 -0.002028 -1.273e-23)
(1.028 0.03714 1.163e-21)
(0.7581 -0.06719 -1.243e-22)