/*--------------------------------*- C++ -*----------------------------------*\
  =========                 |
  \\      /  F ield         | OpenFOAM: The Open Source CFD Toolbox
   \\    /   O peration     | Website:  https://openfoam.org
    \\  /    A nd           | Version:  8
     \\/     M anipulation  |
\*---------------------------------------------------------------------------*/
FoamFile
{
    version     2.0;
    format      ascii;
    class       volScalarField;
    location    "20";
    object      epsilon;
}
// * * * * * * * * * * * * * * * * * * * * * * * * * * * * * * * * * * * * * //

dimensions      [0 2 -3 0 0 0 0];

internalField   nonuniform List<scalar> 
63564
(
38.1
7.678
12.34
8.116
8.075
40.8
31.43
7.219
10.52
10.09
0.07712
0.1103
10.75
0.378
3.078
3.136
11.12
12.61
0.8873
2.223
0.2809
0.3638
2.099
0.11
15.52
0.07779
2.162
0.1929
0.5882
10.04
0.8284
0.229
0.2273
0.15
0.3358
2.634
0.06471
0.3602
0.3541
0.7405
10.41
0.1298
11.53
0.2691
9.571
1.335
1.706
0.1591
0.247
17.21
0.145
0.3769
0.7465
1.122
0.2491
0.06315
0.2411
0.2531
17.21
0.5122
1.485
1.129
0.1887
1.3
0.3687
0.6448
0.2655
3.274
0.3621
0.0362
0.355
0.03804
0.6068
0.3709
0.8204
0.6592
0.3582
0.1573
0.1908
1.339
0.7192
0.3675
2.413
0.3193
0.6826
0.3695
0.2721
1.292
0.2834
0.2704
0.1483
0.864
1.131
0.03515
4.043
0.2236
22.08
0.2697
4.975
0.4151
0.07631
0.1799
0.4575
17.03
1.047
0.4793
0.8183
1.435
0.7291
0.3604
0.5257
0.2089
0.3992
0.126
3.926
0.3962
0.3674
35.65
0.7717
1.107
2.471
0.2177
0.6154
1.473
11.04
5.845
1.733
0.399
0.2445
0.1423
0.8883
2.421
0.5256
0.5483
0.1728
0.7759
0.2826
0.852
0.5068
3.553
0.4459
0.3498
0.8787
0.8212
0.2176
0.5323
1.542
0.1556
0.9253
0.4129
0.1275
0.7997
0.533
1.623
0.7549
0.1676
0.1675
0.485
0.03681
0.7619
0.8404
0.9188
0.6463
1.566
0.1111
0.2743
0.8489
0.8142
0.3999
0.7793
0.1571
0.3198
0.08301
0.5747
0.5829
1.622
0.5929
0.0761
3.993
0.2247
0.1229
5.079
1.968
0.2298
0.2232
0.591
0.9033
0.8146
1.924
0.4154
0.2761
0.2313
0.1844
0.7344
0.3307
0.4591
0.3102
2.122
0.5278
0.2118
2.326
0.5118
0.2883
0.08556
1.144
0.9106
0.5518
0.03693
1.07
0.1798
0.3221
1.867
0.2546
2.269
0.2407
0.4111
1.065
0.2345
1.082
0.5394
0.8551
0.2317
0.1594
0.4051
0.1554
0.5956
0.6884
1.307
1.119
0.6266
1.157
0.8945
2.741
0.3905
0.2433
0.2203
7.362
1.364
6.462
0.8007
2.175
0.1519
0.3249
0.3274
0.2313
3.802
0.1992
3.845
0.6379
0.2309
1.233
0.605
0.5396
0.8142
0.188
0.4564
0.4272
0.8065
0.5594
0.8975
0.7815
0.2265
0.759
0.299
0.4961
1.766
0.3898
0.2051
0.9409
0.23
0.864
2.139
0.6373
0.2643
10.84
0.5564
0.2249
0.2662
0.1992
0.5062
0.2449
1.039
0.4593
0.5882
1.097
1.237
0.8777
0.5776
0.5523
0.2897
0.9329
0.5967
0.4373
0.5011
11.02
1.142
0.1382
0.3164
0.8324
0.5808
3.007
2.069
0.7889
0.3149
0.5255
0.6249
1.834
0.3704
1.707
2.279
0.7378
0.78
20.56
0.6918
0.2375
0.2554
0.4411
1.05
1.273
1.172
0.4432
0.4094
1.81
1.068
0.1567
0.4684
1.263
2.05
1.493
0.1396
0.07404
0.0823
1.044
3.228
0.8726
0.2201
1.821
0.09524
0.2833
0.8294
0.3326
0.1224
0.1865
43.24
0.3374
0.1107
0.2274
1.881
0.5031
1.324
0.2889
1.068
1.316
0.2068
0.6127
0.9197
0.4176
0.7615
1.024
0.3865
0.4838
0.2075
0.1423
2.027
0.2307
0.1503
0.7479
0.3157
0.7249
0.6737
5.261
0.6706
0.5895
0.5597
0.2088
16.5
0.3946
0.858
0.8154
0.2234
0.4249
0.3925
0.6791
0.1045
0.4476
0.3101
0.2807
0.3126
0.1499
0.1383
0.4205
0.2222
9.469
0.2739
0.2972
0.8639
1.336
11.51
0.06757
0.211
1.254
0.7024
2.656
0.9259
1.183
0.5296
0.2303
0.2685
0.4466
0.05149
0.6447
14.13
2.869
4.722
52.33
0.5909
0.7568
0.1039
4.701
0.6081
1.026
0.1203
0.1032
0.2844
1.222
5.856
0.31
0.3234
0.497
0.8893
0.9619
0.3804
0.149
0.1052
13.13
7.17
0.2446
1.138
2.043
0.6623
3.933
0.1592
4.343
0.1997
1.432
12.71
0.3461
1.152
0.8403
0.1045
0.04125
5.884
0.1982
1.678
0.4536
0.565
0.2621
0.7044
0.3811
0.531
0.1624
0.5922
2.146
1.689
0.7524
0.992
0.819
0.1613
0.4172
1.751
2.8
0.2646
0.1963
0.2227
0.3181
0.49
0.5257
0.5687
0.1336
1.593
0.2938
0.2433
1.67
0.2637
0.135
0.3163
2.726
1.177
0.1409
0.8821
4.911
0.9414
0.4176
3.804
0.5286
0.5952
0.6704
0.1816
0.481
0.8792
0.2578
0.333
1.273
11.83
0.09753
0.744
0.4601
0.4324
0.5578
2.907
0.6442
3.803
0.899
3.677
0.1043
1.176
0.3574
0.2503
0.895
1.693
0.2099
0.3944
0.5401
0.2451
1.209
0.8625
2.239
0.4189
0.3237
1.255
0.7383
0.5405
0.309
0.698
0.6533
2.248
0.1984
4.481
0.303
0.9498
0.6961
3.951
3.294
0.9717
1.033
0.201
0.09475
1.675
9.31
0.2481
0.6527
0.8408
1.277
0.3437
0.7202
0.1586
4.735
0.4676
4.593
0.2072
6.573
0.6805
12.4
0.6105
1.269
0.3051
11
0.1036
1.866
0.186
4.591
1.345
1.193
0.07401
0.5591
0.4336
0.3884
0.1435
1.404
0.1791
0.1602
0.4232
4.825
10.27
1.451
0.3372
0.3031
0.166
0.9408
0.4231
1.029
1.677
0.6706
0.4903
1.202
0.122
0.5754
0.5972
0.3209
16.59
0.8422
0.3078
25.02
0.2544
0.4683
0.2071
0.1219
0.07477
0.3446
0.1726
2.411
0.3276
0.4778
0.8738
0.2033
0.4261
0.1707
0.3577
0.3158
0.5204
0.1167
0.4515
0.1493
0.1842
0.123
0.6167
0.2971
12.42
0.5635
0.6991
0.5447
0.3224
1.071
2.446
2.983
0.3564
2.124
0.1219
1.198
0.143
0.3395
0.447
0.1393
0.1397
4.498
0.3719
0.7555
6.196
0.4782
0.5113
68.08
0.426
0.4447
0.6559
0.4404
0.1713
0.2923
0.2005
0.1521
2.819
0.3244
0.5928
0.1005
1
0.3907
7.597
1.52
1.304
0.3601
0.09169
2.24
0.2114
0.7691
1.997
0.8999
0.9424
0.1157
58.55
0.4229
0.3407
0.06706
0.1213
0.1635
1.651
0.3393
2.534
0.9272
0.2111
0.3532
0.3677
0.7519
0.2819
3.021
0.07092
0.207
0.3958
0.9555
0.07404
0.8441
11.61
0.07991
5.289
0.3112
1.802
3.107
0.1984
0.3436
0.5395
1.324
0.3079
1.163
1.832
1.254
51.42
0.4514
0.1811
1.988
0.9704
0.1267
0.2625
4.564
0.8317
0.6742
0.2448
1.124
0.6476
0.2468
1.579
1.087
1.94
0.6934
0.8302
0.2767
0.2062
1.083
1.093
0.1061
0.9054
4.121
0.4134
0.9214
0.8816
0.2961
0.6
0.6908
0.5356
0.1488
0.7615
2.942
0.1416
1.621
1.161
2.868
0.412
0.1341
0.1257
0.3154
0.113
0.681
0.2697
0.2657
0.7482
1.455
0.04472
0.1962
0.3141
0.8453
0.1048
0.7606
0.3427
0.2884
0.6136
0.2127
0.2575
6.001
0.2949
0.9783
0.188
0.2439
0.9189
7.497
4.496
0.4843
3.373
0.1624
3.635
0.1513
4.543
0.3232
2.094
0.1977
2.307
1.003
1.781
15.95
0.4601
0.3354
0.8474
0.1774
0.209
1.231
0.4416
0.4472
3.279
0.2737
0.326
0.4026
0.04736
0.4465
0.1164
0.4986
1.664
0.248
0.8041
1.358
0.4383
12.42
0.2025
0.1581
1.244
0.1646
0.1513
1.316
0.2061
0.1343
0.03631
0.1014
0.1852
13.67
0.2893
0.3234
1.287
0.3866
0.4374
3.353
1.966
8.642
0.1649
0.912
0.1033
0.3082
19.91
0.2042
0.03706
2.525
0.3141
0.2123
0.1682
5.538
0.1374
0.3339
0.1603
0.8156
0.4837
1.03
2.802
0.1212
0.07799
2.621
0.4414
1.234
0.8507
0.1664
0.2877
0.2538
1.429
0.3433
0.628
0.3695
0.1025
0.2726
0.09621
4.158
0.3421
0.2377
0.2807
0.1453
0.4444
0.0788
4.191
0.8104
0.1831
0.198
0.5561
0.7816
0.1389
2.793
0.6511
0.2642
0.8945
0.1208
1.766
0.5048
5.893
0.1529
0.7667
0.1721
0.1618
50.79
0.229
0.7836
0.686
0.8518
0.2693
0.1823
0.2407
0.06042
0.5386
0.554
0.9284
0.4171
1.198
0.5833
2.699
1.447
0.567
0.3702
3.383
1.141
0.3601
0.21
0.5448
0.8371
0.5943
0.266
0.1763
0.4797
0.367
0.3335
0.556
0.6375
1.441
0.1694
0.1348
0.5532
1.475
1.451
0.5511
1.19
8.001
0.2146
0.261
16.04
0.4202
0.2842
0.1066
0.4641
0.7046
0.1455
0.08379
5.162
0.5367
0.1766
0.1247
7.735
0.7505
0.6162
0.2551
0.5514
1.221
0.1249
1.016
0.6947
3.845
0.238
1.373
0.1034
0.07129
3.814
0.149
0.7348
0.194
0.4611
4.448
0.3856
0.4315
0.1669
4.237
0.3855
0.3885
9.269
0.229
2.157
3.475
1.078
0.2597
1.04
1.014
0.2793
0.4022
0.1076
0.2491
0.5016
1.081
0.8673
4.637
0.2107
1.243
0.3399
0.1682
0.4525
0.4838
0.5863
0.3744
0.4418
2.444
1.448
2.161
1.194
0.1776
1.702
0.2754
0.7189
1.87
0.1625
0.03743
0.8373
0.237
0.9452
40.41
0.2685
0.562
3.892
0.4217
3.859
0.7073
0.8574
0.4001
0.5467
1.579
0.6437
1.061
0.1208
0.238
0.2221
0.4226
0.4299
3.85
0.5712
0.2555
0.8538
2.575
0.9401
0.3978
0.627
0.4583
2.269
0.3969
0.2812
2.303
1.109
0.3281
0.3132
0.3288
2.156
0.04677
0.7499
0.5166
0.473
0.181
0.1677
0.5382
1.076
0.3142
1.394
0.1941
0.1384
0.229
0.3066
14.34
0.1411
0.2061
1.391
0.2265
0.4557
0.1558
5.138
9.027
4.993
9.193
0.1736
0.3088
0.1556
5.072
3.652
0.405
7.672
0.6408
6.054
0.3435
0.2972
4.491
0.1288
0.921
0.1045
0.3636
0.7892
1.575
0.1191
1.151
1.092
0.1672
0.6328
0.452
0.2882
0.8522
0.871
0.5921
0.8098
4.376
15.43
10.51
0.4485
6.244
1.632
1.207
0.5593
1.202
0.1651
0.3273
2.004
0.2196
0.349
9.229
0.2831
0.3773
0.3118
0.2313
0.1151
0.4415
0.07914
1.651
1.438
3.606
7.313
0.2216
0.1255
0.6164
0.6074
0.2511
6.158
3.608
0.313
1.22
0.148
0.1697
5.982
0.1699
1.352
0.4841
0.2134
0.3466
0.6052
0.06702
0.379
2.971
1.407
0.1345
6.153
0.1422
0.041
4.092
0.5588
1.901
0.1687
0.523
0.4792
0.1718
2.063
0.1666
13.96
0.9969
0.3394
0.3474
1.805
0.6725
0.1212
2.035
0.1207
0.4532
0.2196
0.6008
0.1577
0.2505
0.5706
1.039
1.474
0.2992
0.9668
1.511
1.673
1.659
0.8099
0.1917
1.353
0.2463
0.9505
1.572
0.7817
0.7877
0.6511
0.09938
0.6328
3.881
0.5323
0.801
0.6457
0.5183
0.9401
0.298
0.8728
0.234
0.3
11.19
2.791
2.374
0.2684
0.3657
6.27
0.2518
0.4936
0.1409
0.3693
0.4499
0.4461
0.3589
5.877
0.5204
17.18
0.2056
1.919
1.276
0.9896
2.99
2.471
0.3756
0.5363
0.4799
0.1167
0.4256
0.2016
0.486
27.77
0.09262
0.902
2.998
0.1732
0.2066
4.768
1.971
0.3824
3.695
0.2219
0.7586
0.526
0.09532
0.3613
0.3744
0.1258
0.2417
0.7558
0.1297
0.9849
4.165
1.53
0.07076
5.367
0.5869
1.066
0.1159
4.318
0.264
0.06709
1.071
0.8244
0.3781
0.2059
1.523
0.2452
0.4036
0.7461
0.1253
0.6252
0.4615
1.342
5.858
0.2405
0.5701
0.8053
0.05399
0.3063
4.941
0.8424
0.1411
1.031
0.4538
0.3945
1.062
0.2973
1.61
0.3439
0.1931
1.022
1.791
0.615
0.8557
1.561
3.596
0.1852
0.06716
0.3119
0.6134
0.5644
0.1569
4.286
3.332
0.9636
1.049
0.1245
0.4374
1.105
2.096
0.5376
0.313
0.3615
0.9169
0.391
0.157
0.4228
0.5449
0.4382
2.287
10.41
4.678
0.4411
0.9455
0.6744
1.986
0.1293
3.219
1.82
0.2227
0.1573
11.8
0.9149
0.2216
0.5449
0.5582
6.084
0.2729
0.3602
0.2962
1.132
0.6165
0.5547
0.1497
0.1542
0.1325
0.7513
0.9352
0.233
0.1692
1.015
0.4208
4.428
0.2701
0.3603
2.077
4.709
0.3827
0.7704
0.9228
0.8256
0.8489
0.03873
0.1959
0.208
0.3762
0.08064
8.128
0.5691
0.6984
0.8017
0.6022
0.9434
0.7741
0.4754
1.013
1.375
0.168
1.102
0.8309
6.044
1.569
0.2539
0.1609
1.644
0.1243
0.2199
0.9522
0.4746
0.8505
0.6069
1.234
0.07837
0.1119
0.3224
0.4192
7.062
1.379
0.4125
0.7706
0.7725
0.7611
2.177
0.1001
0.1025
14.71
0.1538
0.1609
0.6359
0.1898
0.4904
1.833
0.2104
5.15
5.322
2.727
0.8131
0.1671
0.4014
0.3573
0.1883
0.2839
0.207
0.3082
0.1106
4.084
0.6661
1.485
0.531
2.394
0.227
1.108
0.6072
4.576
0.3687
0.3924
0.2639
0.3224
0.4324
0.2237
0.2287
3.481
0.2984
0.3703
0.1663
0.04136
0.2514
0.5183
0.06245
0.2297
3.078
4.019
0.5503
0.06472
0.945
0.6203
0.119
0.5457
0.1742
0.7253
0.1407
3.18
0.5684
4.765
2.063
0.2882
0.2309
1.227
0.3494
6.605
1.208
0.2317
0.2706
0.2479
0.7897
0.6038
1.358
0.7594
0.2925
0.2659
1.206
0.1942
4.479
0.2737
0.7882
0.3451
0.196
0.5419
0.3518
73.16
2.556
0.3001
0.2315
0.4045
0.2629
0.3861
0.1597
0.2162
0.2473
0.1976
0.752
0.1873
3.889
0.5878
5.156
0.2544
0.6469
0.2394
2.885
0.1575
0.2489
0.25
0.4034
0.5149
0.4224
0.9673
0.937
5.018
0.3519
0.4238
0.1503
4.93
1.31
0.3224
0.7615
0.3418
0.2122
1.868
0.472
0.06886
0.4364
1.243
0.2618
0.7337
0.7419
0.2404
5.752
0.3389
0.2223
1.318
0.636
0.6904
0.1171
0.1318
0.1389
0.1965
0.07253
0.2215
1.329
0.08094
0.7996
0.5191
0.1167
3.983
6.16
0.2979
0.2931
0.7177
0.4323
1.27
0.8194
3.453
0.3186
0.06321
19.06
0.7085
0.4093
0.2729
3.277
2.801
2.794
0.07827
1.468
0.1715
1.961
0.5168
0.5421
1.568
0.5875
0.2865
0.0564
0.2026
0.2353
6.672
1.584
0.07047
0.4745
1.117
1.045
0.4228
0.2652
0.1793
0.1928
0.2812
12.5
0.1151
0.2098
0.2827
1.267
0.7743
0.1621
0.3119
0.2872
0.1334
0.9332
1.88
0.07935
0.2782
0.9282
2.947
0.05584
0.6702
0.1388
0.05916
0.1561
0.1926
0.1833
0.3426
0.2825
1.486
0.4603
0.4115
0.5487
0.5419
0.5045
0.8014
3.6
0.04456
1.04
0.1545
0.424
0.1402
0.6981
0.127
0.22
0.6038
0.3829
1.263
0.6672
0.7245
0.4857
0.2067
2.339
0.162
2.34
0.3158
2.766
0.1898
0.2881
0.9521
0.5675
0.879
0.1906
0.3507
0.2876
19.72
0.4308
0.2473
0.5112
5.752
0.7159
2.634
0.7001
0.2432
0.9324
0.3458
0.3961
0.6032
0.8253
0.6842
0.7234
0.1978
0.4425
0.3119
30.11
0.1679
0.2227
0.5579
0.6914
0.2731
0.2673
3.403
0.4662
0.8467
0.5279
0.1795
0.6183
2.809
0.2811
0.2905
0.5572
1.224
1.774
0.0788
2.289
1.422
0.8282
0.4653
0.5055
2.901
0.27
18.34
0.5581
0.6688
0.8307
0.2094
0.6549
0.354
0.4049
0.2171
0.5417
0.4423
0.2479
1.093
0.3032
1.042
1.082
0.1635
1.48
1.013
1.204
1.895
2.253
0.9456
0.1325
0.9587
4.012
0.6323
0.328
0.135
0.3225
0.2617
1.291
0.2426
0.5782
0.1514
2.442
1.142
0.5558
1.419
2.078
3.317
0.1733
0.3121
0.1535
0.171
0.1917
0.4154
0.5786
0.07067
0.3373
0.2589
9.678
0.1124
1.703
0.1169
0.7215
0.1787
0.1541
1.46
0.8201
0.3081
1.446
0.1886
0.4133
0.9544
0.2939
0.2945
0.172
1.082
0.4163
0.2116
0.3036
0.3084
0.3433
0.2572
0.639
0.2061
0.8241
0.7767
0.1717
0.7368
0.9446
2.237
0.9639
0.9612
0.6266
0.1242
0.6611
0.3218
0.4611
0.1768
0.2791
1.387
1.366
0.2627
0.3435
0.2638
0.3326
0.2324
0.1143
0.889
5.738
0.3786
13.67
1.981
6.991
0.258
0.156
0.2438
4.224
0.2354
0.7509
5.842
0.299
0.1525
7.736
0.3149
0.267
0.6178
2.231
1.118
0.4157
1.004
0.9997
0.1276
0.5521
0.06398
0.4702
0.205
6.097
0.2917
0.55
0.9223
1.857
0.09008
0.1365
0.1179
0.5493
0.4277
0.4075
0.3855
0.952
0.368
0.3319
1.004
0.5034
0.2412
0.9186
0.6324
6.978
1.279
1.668
0.3074
2.387
0.08294
9.638
0.3442
0.6471
0.1562
0.3256
1.011
0.3101
0.2669
0.2026
1.327
0.3159
0.3569
0.194
0.478
0.7408
0.3541
0.2555
2.155
0.03991
1.458
0.1342
0.1435
1.133
0.499
0.4018
0.2247
2.005
0.3545
0.3111
0.1553
0.7238
0.1022
0.1579
0.158
0.1481
7.055
0.7397
0.2826
0.2202
0.3049
0.3688
0.4262
0.3912
2.121
0.1806
0.09301
0.1981
0.08628
0.2907
0.908
11.17
0.5329
0.7468
13.45
0.2558
8.916
0.3417
0.1695
0.03508
0.3067
0.06362
2.567
0.2095
0.195
1.471
0.143
5.013
0.3616
0.7876
3.114
0.09848
0.2162
0.6132
0.263
5.55
0.2133
0.05871
0.3171
0.4198
0.4483
0.2311
3.49
0.7038
0.1929
0.1179
1.732
0.9798
1.535
1.285
0.1835
0.1298
0.6855
0.3215
0.2314
6.88
0.2343
3.478
2.769
0.3104
0.3175
1.015
0.2579
0.4271
0.3326
0.8525
4.746
2.213
4.502
1.748
2.291
4.152
0.6895
0.5035
2.197
0.07083
2.887
0.5809
0.0942
0.4821
0.199
0.1373
0.5718
0.8064
0.9478
0.1656
3.188
3.758
0.5162
0.5684
0.5566
1.244
0.7512
0.1725
0.1646
0.8263
0.7549
0.1289
13.87
1.426
4.558
0.1536
0.5555
0.5606
0.244
0.2814
2.186
0.7589
2.269
0.712
0.848
0.4684
0.5485
11.51
2.227
0.184
0.1271
0.9347
1.139
0.8381
0.2125
0.1355
0.507
2.391
7.782
0.8433
1.692
0.7412
0.8434
3.665
12.3
1.181
0.1786
0.2695
0.2958
2.476
0.5265
9.535
0.5713
1.311
4.103
0.5638
0.4886
0.1709
0.9912
7.985
0.565
0.9745
8.706
0.5978
0.5944
2.068
0.2281
0.2184
0.7764
3.952
0.2736
0.1439
0.3018
10
0.4806
0.4026
0.3832
1.723
0.5318
0.09026
0.4969
0.06687
0.2395
1.667
0.322
0.772
1.624
0.278
1.981
1.987
0.3506
0.2245
0.1251
1.238
2.197
4.512
0.03645
0.2672
0.8984
0.4501
0.2511
0.3209
0.3857
0.1842
0.3638
0.5239
1.314
0.257
0.14
3.155
0.7294
0.3367
0.9816
0.7535
0.5251
0.2121
12.54
0.887
0.4321
2.149
0.1566
0.6166
0.905
0.1745
0.2014
0.3496
0.3181
0.1767
0.4104
2.513
0.2314
0.1237
45.13
2.98
0.6316
0.1253
0.7116
0.2688
0.2214
1.302
0.2314
5.604
0.2164
0.7311
0.1483
8.449
0.6555
0.6727
0.9715
6.703
0.4085
1.749
0.2867
3.599
3.418
1.169
0.6819
0.9648
0.2193
0.3258
5.452
17.06
1.02
0.4119
0.1877
0.8384
0.2058
4.743
0.334
0.2458
0.133
0.2964
0.4741
0.9828
0.6643
0.4084
0.4218
2.578
1.007
0.5242
5.01
0.2016
0.1686
1.608
0.7388
0.2967
4.852
1.992
0.2589
0.2478
0.2175
0.7602
1.422
0.6116
1.395
1.352
0.7744
1.305
0.1038
0.2608
0.3132
1.472
55.86
0.2506
0.7778
2.685
0.1558
0.1612
0.6538
0.3745
0.4606
4.166
1.331
0.2156
0.7728
0.9628
0.2789
0.07129
0.1976
0.622
0.1239
0.2348
0.3083
6.314
0.5442
0.2183
0.2461
0.2063
11.85
0.841
0.2141
0.4855
5.16
2.981
0.5613
0.5914
0.2866
5.261
0.1549
0.2302
4.632
0.2693
0.5734
0.3796
0.09293
0.455
1.625
0.4493
0.2575
0.1918
0.7241
2.97
0.5435
0.1433
1.023
0.1497
0.184
0.3859
1.714
0.345
0.5304
0.5435
6.782
3.441
1.036
0.6929
0.8013
2.316
0.2658
0.6797
1.297
0.6505
0.2831
0.3846
0.7097
0.05279
5.084
0.679
1.612
1.111
1.417
2.91
0.309
5.977
0.101
0.1882
0.3596
1.944
3.99
5.998
1.066
3.312
0.5821
0.7712
0.1675
0.2177
0.9078
1.223
13.85
0.5157
0.1241
0.3946
0.2048
0.1153
0.627
0.7656
0.224
0.1188
0.6803
1.425
3.931
0.6821
1.237
0.3175
13.24
2.072
1.187
0.06472
0.206
0.2802
0.6829
0.8783
0.3379
0.7721
1.166
0.3082
0.07542
0.1661
2.98
1.834
4.239
1.681
0.4745
1.244
0.1703
4.441
0.1236
0.2377
0.2741
0.3168
1.402
0.6265
0.3405
0.2709
1.726
3.196
0.3269
0.5668
0.664
0.306
0.3033
0.5573
1.35
2.264
0.6196
0.7222
1.248
0.1831
0.2038
1.039
0.3969
0.8776
0.5891
0.456
0.7698
1.544
3.375
0.599
2.756
1.617
1.247
0.7247
0.1497
0.5289
0.711
0.4915
3.219
1.292
0.1961
0.233
4.426
0.3358
54.1
0.218
0.7017
4.098
11.59
26.75
0.07334
0.2793
3.601
0.2784
8.109
1.333
0.07915
1.231
0.5238
0.2539
0.1223
0.3864
1.304
0.1518
1.151
11.52
10.47
0.3783
2.812
1.968
0.8507
0.1553
0.1839
0.4275
0.4035
0.3505
0.1789
2.624
0.2862
0.2608
0.2839
0.08495
0.2878
0.8337
1.104
0.2256
3.54
1.023
0.7687
0.3636
0.2879
9.883
2.21
0.8379
0.5698
0.7751
1.147
0.296
0.8509
15.25
0.4566
0.8098
0.3776
1.318
1.077
0.5929
0.1777
0.6063
0.2902
0.1653
0.1856
0.5028
0.3678
0.5338
0.2405
0.694
1.469
0.7609
0.2859
1.24
11.98
0.9344
6.467
0.2765
0.2657
0.5814
0.3981
0.4095
1.791
0.5222
0.6957
0.2017
10.33
2.214
0.3656
0.7859
0.275
0.782
0.5468
0.5914
0.7182
0.2556
1.324
0.2426
0.4247
1.568
2.296
1.391
1.405
0.09148
0.1132
0.08934
3.92
0.158
0.3365
0.2184
0.2304
4.812
0.7943
0.8086
0.6408
0.8922
1.767
0.341
0.2649
0.3115
0.3212
0.1469
1.27
0.4902
0.5092
0.2473
0.3299
0.3434
0.6255
4.821
0.06821
3.112
1.215
0.3394
0.9196
0.1248
0.4143
1.275
0.3492
0.5364
0.1606
0.2067
0.5852
0.2702
1.794
2.125
1.278
0.4486
1.375
0.2782
4.998
0.1579
0.8701
2.07
0.3167
0.3497
0.799
1.071
0.3425
0.4651
0.1074
0.4686
0.1402
0.9637
22.73
0.2039
2.624
1.322
0.6063
0.1996
1.29
0.6245
0.4524
0.1795
0.6624
1.604
0.2752
0.3047
1.33
0.1653
0.5717
0.5771
0.2656
1.707
1.515
0.1839
1.291
48.88
0.8439
0.3727
4.38
2.276
1.083
1.458
0.4095
4.614
2.342
0.4513
3.154
0.4897
0.3156
2.163
3.944
4.728
0.7273
2.208
0.5132
2.374
2.943
0.2774
6.491
1.06
5.961
0.8226
0.4492
0.8432
0.1703
1.064
0.4435
0.3242
0.1728
0.7451
1.409
0.3277
0.1639
0.1956
0.8534
3.904
6.339
0.5911
0.5654
0.9456
4.286
1.932
0.8427
0.5249
0.3344
3.824
1.209
0.1699
0.0553
0.1707
1.298
3.342
3.945
0.6933
1.06
0.8702
0.3081
1.503
0.8816
0.7689
0.8705
0.1749
0.04081
0.7249
1.481
0.1901
4.643
0.07018
1.343
0.3717
0.3783
0.188
0.1325
0.4533
0.2779
0.3252
0.1076
3.736
3.408
0.9051
0.234
1.432
4.401
0.572
0.09891
2.524
2.574
0.8285
0.03723
0.344
0.8559
4.808
0.05691
27.02
0.7939
2.931
0.8238
0.2213
18.41
2.273
0.2475
0.6496
0.2253
9.787
4.18
0.2322
0.1739
2.212
0.1913
7.76
0.4432
0.9064
0.6378
0.3166
0.2038
0.5965
0.2415
0.207
0.413
2.093
0.566
0.2578
2.579
2.211
4.888
0.382
0.9758
0.8078
0.7003
0.1773
0.5044
0.261
3.216
0.2092
0.3315
0.6026
0.2761
0.7703
0.4382
0.6553
0.2174
0.5702
0.7277
20.08
1.907
0.8638
0.3277
3.2
11.29
1.192
0.4614
0.1937
0.04027
0.5818
54.56
0.3686
1.617
0.3558
1.001
1.478
0.1756
0.4052
0.1099
0.6656
0.2771
0.4091
2.275
0.5556
0.08719
4.754
0.1143
0.6685
0.2988
1.049
1.049
0.3934
0.246
0.8251
0.8027
0.9807
1.415
0.153
1.74
0.2745
0.7343
4.198
0.9228
1.508
1.143
1.817
0.5103
0.7267
0.327
0.3228
0.1216
0.283
0.4136
0.1278
0.4569
0.7699
0.9995
0.1991
0.8993
0.3866
0.09539
5.61
0.2889
0.605
2.891
0.1253
1.041
0.5075
0.7415
0.2288
1.308
0.6407
0.2447
0.1873
0.3185
0.3522
0.3714
0.2174
1.282
7.056
5.676
7.662
3.117
1.574
0.8446
0.1464
0.2349
0.06709
0.1177
0.04338
2.585
0.7954
11.99
1.215
0.9579
1.103
0.3093
3.156
0.4946
0.3855
0.2034
1.386
4.005
0.5431
0.1382
0.2184
0.351
0.6472
0.6901
0.1675
21.86
0.1337
4.008
0.4366
0.06105
0.7637
0.1873
2.884
1.627
0.3094
1.464
0.4687
0.1314
1.722
0.3649
0.5251
2.076
0.667
1.402
0.7863
1.004
1.433
0.3008
0.3057
1.502
1.4
0.5103
0.2514
0.8649
2.137
0.722
7.687
0.3418
0.4212
2.697
1.151
0.1767
0.1844
0.3933
0.2665
0.7258
0.2971
0.1269
0.8463
12.21
0.07615
0.2565
0.2353
4.15
0.1168
0.758
0.9162
0.4487
2.31
0.151
0.1821
3.093
0.2506
0.1321
11.63
1.556
1.449
0.1836
0.8012
0.6998
1.634
0.1632
1.615
0.1945
1.133
0.379
0.753
0.6809
9.871
1.228
0.3248
13.37
0.1897
0.7449
0.7805
0.2096
0.2646
0.1148
2.178
0.1511
0.4426
0.6685
1.735
0.9745
0.7731
0.23
0.4248
0.2703
0.3886
0.1473
0.2883
0.7807
0.5802
0.7136
0.5169
2.203
0.2828
0.7853
0.7225
3.004
0.5867
0.5799
0.2757
3.522
0.3558
0.5752
0.4843
0.1453
0.3133
1.24
2.095
0.3314
0.2782
0.3976
1.227
0.1087
0.6614
0.1339
0.4354
0.3676
0.7668
0.7199
0.2604
1.231
0.1018
0.1827
6.503
0.1569
0.2736
0.4079
5.764
1.679
0.1175
11.19
0.1516
0.6985
1.503
0.2009
12.5
1.546
0.3647
3.317
1.402
0.6937
0.2677
0.1798
2.501
0.3409
0.2073
1.397
2.316
0.4453
0.07298
0.3447
0.374
0.4597
1.483
0.2782
1.343
0.9494
0.6053
0.3932
0.3147
0.191
0.9492
1.751
0.2196
0.3093
1.156
0.1815
0.1373
4.859
0.5157
0.6578
1.863
1.33
21.6
0.1177
0.7452
0.5038
1.601
0.8935
0.4012
0.5896
0.2371
0.876
0.6901
6.687
0.1475
0.6648
23.58
5.548
0.2337
4.192
0.2116
7.016
0.4275
0.5335
0.284
0.2192
1.079
4.283
0.6321
0.4188
0.2794
0.5204
0.215
2.567
0.3645
4.072
0.06653
0.182
0.8107
1.729
0.2163
0.2511
0.2596
1.83
1.158
3.871
0.2076
0.4072
0.09442
0.3248
0.1534
2.45
2.29
0.2757
1.608
2.164
0.07494
1.732
0.2509
0.3662
0.1561
0.4489
0.2707
0.1492
0.3364
1.084
0.1468
0.9109
0.2008
0.5911
0.2949
0.06485
0.208
1.986
2.923
0.2832
0.9138
0.815
0.6965
5.17
1.62
0.7525
0.3843
7.746
0.1369
0.8322
0.5373
0.3456
1.166
0.2161
1.571
2.111
3.547
1.14
0.4298
0.2046
1.611
2.303
0.3565
0.1847
0.8796
0.5932
0.1417
0.134
0.8067
0.4511
0.6103
0.6998
0.276
0.8476
1.634
0.2275
0.4528
7.127
0.6384
0.233
0.7693
0.3486
5.102
0.199
0.5105
1.213
0.1789
0.2381
0.8025
3.716
0.2589
0.07462
0.2774
19.38
0.7412
0.2532
1.219
0.8575
0.1579
0.669
2.244
2.054
2.082
0.07545
21.28
4.928
0.6867
0.2227
4.994
0.5079
0.173
0.1384
0.2536
0.4987
0.6291
0.3852
0.4783
0.6826
0.7751
0.165
0.5766
1.055
0.8501
2.647
4.474
4.719
0.2691
0.3505
0.901
0.1849
0.1015
2.519
0.1157
1.023
3.798
1.219
0.6891
0.09398
0.3566
0.6265
0.1681
0.1048
1.303
1.867
0.9012
0.6891
4.488
3.409
3.154
0.7683
1.071
1.56
0.4681
4.825
0.3524
0.875
5.717
0.2341
2.466
0.6912
1.426
0.9635
0.1881
0.7766
0.922
0.3204
0.4931
1.201
0.3072
0.187
2.862
6.908
1.785
2.047
0.5537
0.2613
0.6631
0.8301
0.4336
1.458
0.1766
2.097
10.6
0.5931
0.3601
3.107
0.908
1.005
1.218
15.27
0.1643
0.2553
2.188
14.21
0.7806
0.1034
3.304
1.949
0.4591
0.613
0.2419
0.2972
4.668
0.3908
1.467
0.5267
1.164
2.217
0.2473
0.5855
0.1256
0.1555
1.024
0.3912
2.238
0.08374
2.802
0.3402
0.8677
0.8535
3.693
0.3244
0.05623
0.9222
0.4613
3.379
3.155
0.492
0.1698
0.5062
11.84
0.1278
0.2112
0.3669
3.393
0.524
0.6852
0.3533
0.3182
0.5555
0.34
9.546
0.3296
1.145
0.6369
0.2696
0.6884
0.4847
0.3277
0.9182
2.195
0.5786
0.2593
5.968
0.6391
1.431
0.1864
0.1719
1.778
3.451
0.4076
10.94
0.1198
1.004
5.621
0.3421
0.2914
1.229
0.2114
0.8646
0.2628
0.6033
0.6664
0.7661
0.2937
0.3059
0.7467
0.6311
1.528
0.506
0.856
0.7683
0.4668
1.323
0.1418
0.3523
0.2066
0.138
0.296
0.564
0.9732
0.1314
0.215
0.09723
0.8724
1.506
0.5437
0.5036
3.59
0.1561
3.872
0.2352
0.2077
0.449
0.1943
4.371
0.1023
0.5751
4.792
0.2461
0.1447
0.2448
0.2859
0.7632
0.7062
4.133
1.742
0.5862
0.2555
0.2687
3.845
0.05063
0.1267
0.6892
0.4397
3.364
0.6922
0.349
1.067
0.2828
0.4412
0.3576
0.1718
0.7016
0.4287
2.397
1.191
2.73
0.132
5.308
1.523
2.676
1.123
0.2822
0.1258
0.9705
1.624
0.3028
0.4041
0.4923
0.1258
0.7782
0.3574
0.1074
0.1456
9.165
0.265
9.103
4.735
0.7524
0.4701
0.5368
0.3853
0.3603
0.7183
0.3814
1.302
1.682
1.101
0.3707
0.3344
56.63
0.4213
0.3519
3.977
0.292
0.3978
0.924
0.2615
1.702
0.1026
0.03678
1.487
1.806
0.1511
2.999
4.314
4.587
0.811
4.993
0.3747
0.6622
0.3307
0.3424
0.2656
50.48
0.4351
0.117
0.3117
2.13
1.737
0.134
5.661
9.529
2.912
4.629
0.1705
1.105
0.4178
0.5843
1.128
0.728
0.2203
2.814
0.1399
0.4002
0.1517
0.2263
0.3509
0.2061
0.3775
0.7244
0.4816
0.8458
1.382
0.3266
0.3215
0.4514
0.3731
0.3525
4.948
0.8188
0.6503
0.2397
0.866
0.3126
0.6765
10.05
3.496
0.1114
0.763
0.7332
3.631
0.8255
0.3175
4.076
0.1318
1.982
0.5143
2.242
1.744
0.3365
0.8336
0.3658
0.6884
0.6524
5.176
1.175
0.5335
0.2618
0.2987
1.47
1.152
0.08643
2.08
0.5193
0.2334
2.119
1.22
0.2247
5.555
0.4179
0.3596
0.1613
0.7553
1.724
0.2957
1.541
0.4917
0.6562
0.5196
3.207
4.388
0.2045
0.2932
0.8161
0.6569
1.221
0.3272
1.365
4.82
0.1214
0.8846
0.2599
16.2
1.126
0.1086
0.6377
1.69
0.2607
8.573
0.3989
0.4714
2.629
0.6951
0.9394
2.113
0.2544
1.258
3.245
1.193
0.6881
0.302
1.712
0.7917
0.5105
0.1538
0.6825
0.1675
0.5161
0.11
0.3186
1.516
0.113
1.553
0.1399
4.428
0.695
0.6213
0.4189
3.003
0.09471
0.4126
4.308
1.094
0.5614
0.1219
1.106
0.1259
0.08874
8.174
1.09
0.5228
0.2672
0.4852
0.5546
11.42
0.2637
0.8957
0.1811
9.553
13.52
0.0759
0.1474
0.9325
3.057
0.1126
0.1158
0.05775
6.297
0.3436
1.068
0.4331
1.758
1.798
0.368
0.6295
1.247
0.7251
0.2122
0.0965
0.5638
0.3921
0.1961
0.1389
0.1464
1.17
1.349
7.042
0.4376
0.8042
0.1524
0.9038
0.3468
1.195
0.1272
3.023
1.415
0.207
1.303
0.09737
1.081
0.9624
2.379
0.4192
0.8408
1.414
0.162
0.1891
0.4962
2.491
0.3095
1.362
1.695
0.2656
0.6946
1.185
0.5347
0.3129
4.634
0.1111
0.2727
0.1648
0.7954
0.6233
3.245
1.464
0.2392
1.355
0.1589
0.3042
2.153
0.1179
0.5573
17.32
3.852
0.2796
0.0812
0.6219
0.213
0.7452
0.366
0.2053
1.331
3.278
0.1381
4.566
0.2107
0.4285
0.2988
0.5871
0.5358
0.1377
0.1955
3.077
0.3678
0.2625
1.67
0.2234
0.1088
0.666
0.4217
3.384
0.1806
0.6111
1.842
0.1381
1.856
0.2778
10.4
0.653
1.022
0.1981
0.5913
1.093
0.1351
1.188
0.2169
5.495
0.1689
0.6726
0.404
0.3852
0.3835
0.7728
0.1534
0.3687
0.6594
0.2995
1.896
0.229
0.03513
0.2472
5.43
0.701
0.4662
0.3213
0.2858
0.9524
5.189
7.27
0.8355
0.5879
8.325
1.354
0.257
12.73
0.1675
0.6644
0.6642
0.3352
0.1596
4.217
0.1711
0.3292
42.44
0.8528
1.425
0.1443
0.3443
1.306
0.3219
0.1447
0.8095
0.04515
0.1693
0.4971
0.4312
0.1418
0.2594
0.2257
0.1209
0.9572
3.46
1.662
1.216
0.366
0.1863
0.6147
0.1876
0.2593
15.62
0.4397
3.99
0.1537
2.739
1.137
0.187
1.716
0.2358
2.069
0.2578
0.4039
1.135
0.6192
2.368
0.2674
0.2101
0.5357
0.8191
1.434
33.58
0.2562
1.03
0.0459
2.419
0.273
1.102
0.8988
0.6801
1.047
0.5158
0.5384
0.3667
0.3066
0.4246
1.083
1.666
0.4132
1.926
0.6555
0.8269
1.809
0.3639
0.1309
0.1127
0.1212
1.132
0.4468
0.8571
1.206
0.4291
0.5832
0.1816
2.185
0.3836
1.06
0.7978
0.5581
0.2554
3.334
0.8389
0.1382
1.53
0.1478
2.131
0.1733
2.258
0.4046
0.217
0.1214
0.4875
1.949
10.2
0.4386
0.2727
0.5336
1.126
1.387
1.716
0.5258
1.057
0.5898
2.179
0.5848
0.6584
0.5414
0.2001
3.82
1.849
0.395
0.1817
6.865
0.8089
3.63
0.178
2.509
0.7757
1.046
0.5791
0.5838
1.43
0.5746
0.8773
0.6388
2.873
0.1044
0.7361
4.697
0.2934
0.695
0.4269
0.1547
0.2564
2.436
1.684
4.138
0.07253
1.84
0.1087
3.633
0.1937
1.156
0.1231
0.6476
0.2972
15.07
0.2081
0.3917
6.047
2.939
1.665
0.6622
5.007
0.5773
0.7047
0.4138
1.331
2.478
3.384
0.1346
0.5382
0.2243
1.362
0.1841
0.2526
0.1356
0.8744
0.3968
12.08
1.681
0.4226
0.1504
0.3015
0.9614
2.017
0.36
1.44
0.1735
0.8449
0.3527
1.043
0.1304
0.249
1.12
0.2775
0.3198
0.1338
3.387
0.2258
0.5932
0.1118
1.107
0.7632
0.03978
0.5286
0.1729
2.695
0.5875
0.7641
0.6889
0.06757
0.8453
0.3964
2.668
0.7572
2.108
1.862
0.1746
0.734
0.1261
0.526
0.4376
1.196
0.8171
0.2169
0.7364
0.1909
1.412
0.2124
0.3173
0.09224
0.0653
16.52
0.2388
0.2868
0.07917
0.5687
0.4729
0.2032
0.1334
1.028
0.1532
1.642
0.3263
0.2512
0.4238
0.175
1.435
0.7941
0.5543
0.2556
1.339
3.044
1.141
0.5511
0.8222
1.279
0.6862
0.08836
0.1099
0.535
0.4078
0.07514
0.5935
0.1909
1.278
3.863
1.332
0.7842
0.3042
1.303
0.4157
0.1936
0.277
0.5497
0.2807
2.76
0.156
1.077
3.552
0.2629
1.372
2.048
0.4294
5.341
0.8252
0.4263
0.6342
0.3411
0.1358
0.8106
4.73
0.1887
2.522
0.07302
0.2619
1.034
0.5096
0.652
0.9006
0.1241
0.8108
0.2329
1.287
2.254
0.1537
0.434
1.086
0.2171
2.888
0.3173
0.2908
0.1653
0.4328
1.949
0.8604
1.197
17.47
0.2763
1.378
0.5425
0.2893
0.4918
0.2699
0.962
0.1356
2.379
0.94
0.2933
5.665
0.4727
0.2775
1.608
0.3521
0.4107
0.6283
4.694
0.3582
0.2128
0.8033
0.1101
0.3338
0.9961
1.75
7.597
0.4558
0.4508
0.1754
0.4446
0.9792
1.224
2.344
0.2242
7.494
0.9285
0.608
0.1695
0.1373
1.636
1.893
0.422
0.5926
1.677
0.3194
0.3173
0.6247
0.1796
1.111
0.174
0.4304
0.9833
1.112
0.1934
0.7603
0.6
0.1063
6.703
1.134
0.6829
0.2023
0.2517
0.3262
0.4855
1.164
0.2202
1.57
27.38
0.1217
1.539
0.7917
3.229
0.2999
0.1711
0.3638
0.1275
2.216
0.3055
3.002
0.7224
2.882
0.2426
0.9709
0.1887
0.1233
0.05519
0.03443
0.1657
0.6762
1.546
0.9589
0.2376
0.3253
3.832
1.374
1.271
1.786
0.6134
0.18
0.711
0.3767
1.211
0.09678
2.368
0.3484
1.732
0.0841
0.6213
0.7604
1.333
0.2152
2.452
0.1156
0.601
1.129
0.6886
1.317
5.027
0.1744
3.05
0.9948
0.1329
0.2575
1.399
0.36
1.443
0.1523
0.1943
0.6215
1.74
0.03823
0.05229
0.2731
4.374
0.1956
3.846
0.2326
0.8687
0.5143
0.8813
0.2443
0.06125
0.1838
0.2265
6.158
0.841
1.122
5.16
0.7431
3.624
0.5429
0.8141
1.076
4.076
3.804
0.1089
6.895
0.346
0.3937
0.2382
0.1754
0.1892
0.2528
0.8517
4.311
0.7207
0.1468
0.161
1.684
0.9433
4.318
0.5513
0.6369
0.6558
0.1467
0.1841
0.1037
12.85
1.221
0.4386
0.2872
2.79
0.7387
0.09303
1.292
0.3882
7.033
0.3592
2.608
0.266
0.4307
0.847
0.2553
0.5221
0.5528
0.105
0.1871
0.6395
2.713
0.124
0.3901
0.5281
0.3261
0.6126
0.3696
5.595
8.967
1.328
1.292
1.043
11.67
2.365
3.32
0.9884
2.21
8.665
0.2891
0.1979
1.515
1.858
1.517
0.6045
0.4998
0.3151
0.2579
0.2061
0.4249
21.6
0.2511
0.3293
0.2328
0.7583
0.07948
0.6576
1.37
0.3315
0.2498
0.2179
0.3039
0.4215
0.2197
0.9593
0.3421
4.473
0.2637
0.2554
0.41
6.922
1.179
0.7536
1.698
2.026
2.061
0.2064
0.5917
1.18
0.1911
1.119
0.04299
0.4216
2.581
4.26
0.5906
0.3009
0.761
0.7534
0.2581
1.699
1.943
0.2768
1.307
1.194
7.141
1.855
6.355
0.2839
0.2868
0.2252
0.7124
0.9094
1.566
0.149
0.805
0.2262
1.598
7.107
0.04542
0.2011
1.414
0.5833
8.895
1.277
0.2041
0.07416
0.176
0.5596
1.127
0.202
1.799
0.09607
0.8669
0.8264
11.78
5.501
0.1498
2.594
1.003
0.2078
0.216
0.7209
0.08892
0.1426
0.184
0.4187
0.9321
1.103
1.593
0.4691
0.5053
0.1957
0.3565
0.8642
0.44
0.7448
1.429
0.5429
4.138
0.2747
0.4364
0.5982
0.1996
6.111
1.375
0.2505
0.4426
7.732
0.8847
2.815
0.128
0.204
3.8
1.465
0.258
0.2563
0.1043
1.569
0.5813
0.1271
3.374
0.257
4.706
0.8151
0.2418
0.2144
1.404
0.3556
1.325
0.5977
0.03897
1.219
6.017
0.1308
0.2324
1.038
0.4081
0.7569
0.5819
0.3197
0.7418
1.227
32.11
0.6243
2.316
0.3725