/*--------------------------------*- C++ -*----------------------------------*\
  =========                 |
  \\      /  F ield         | OpenFOAM: The Open Source CFD Toolbox
   \\    /   O peration     | Website:  https://openfoam.org
    \\  /    A nd           | Version:  8
     \\/     M anipulation  |
\*---------------------------------------------------------------------------*/
FoamFile
{
    version     2.0;
    format      ascii;
    class       volVectorField;
    location    "20";
    object      U;
}
// * * * * * * * * * * * * * * * * * * * * * * * * * * * * * * * * * * * * * //

dimensions      [0 1 -1 0 0 0 0];

internalField   nonuniform List<vector> 
63564
(
(0.07764 -0.00223 1.386e-22)
(-0.002297 -0.01082 -1.091e-22)
(0.001739 0.008602 1.061e-22)
(0.002336 0.01055 0)
(0.002096 0.01041 0)
(0.6657 0.02745 3.232e-21)
(0.03599 -0.01383 3.092e-23)
(0.003084 0.01128 0)
(0.7119 -0.05125 3.85e-23)
(-0.004617 -0.01813 1.433e-22)
(0.7583 -0.06932 0)
(0.6679 -0.1478 -7.378e-22)
(0.7891 -0.005899 9.829e-23)
(0.9383 -0.2245 0)
(0.2955 -0.1071 1.172e-22)
(0.2928 -0.1067 3.506e-22)
(1.167 -0.01134 8.164e-23)
(1.165 0.01542 -5.956e-21)
(1.098 -0.07635 7.452e-24)
(0.889 -0.2185 -1.171e-21)
(0.6405 -0.2115 -8.855e-22)
(1.049 -0.1668 6.447e-22)
(1.062 -0.04989 6.542e-23)
(0.6674 -0.1461 -2.49e-22)
(0.0729 -0.02408 -3.222e-22)
(0.7605 -0.06525 0)
(0.8962 -0.2187 1.136e-21)
(0.6685 -0.2113 -3.51e-22)
(1.116 -0.09284 -3.005e-23)
(0.7647 -0.0557 4.769e-23)
(1.145 -0.1383 -3.304e-22)
(1.094 -0.06296 -7.478e-24)
(1.095 -0.05948 9.209e-22)
(0.7494 -0.2108 0)
(1.126 -0.08911 3.013e-23)
(1.177 -0.1131 3.526e-21)
(1.063 0.02107 1.056e-21)
(1.125 -0.09099 0)
(1.125 -0.09095 0)
(1.11 -0.09278 3.754e-23)
(1.193 -0.001803 -2.318e-21)
(0.6193 -0.1043 2.581e-22)
(1.199 0.0132 5.119e-21)
(0.7127 -0.2246 4.196e-22)
(0.8319 -0.01196 -2.21e-22)
(0.9353 -0.2202 2.475e-21)
(1.062 -0.07075 -3.512e-23)
(0.5666 -0.1407 0)
(0.7082 -0.2229 -7.878e-22)
(1.252 0.1017 7.057e-22)
(0.9569 -0.1618 -2.398e-21)
(0.9392 -0.2241 -4.226e-22)
(1.022 -0.2061 1.833e-21)
(1.085 -0.08495 6.979e-23)
(0.7777 -0.2302 6.404e-22)
(1.062 0.02546 0)
(0.7088 -0.2227 7.299e-22)
(0.7764 -0.2304 0)
(1.241 0.1096 6.423e-22)
(0.9793 -0.2177 7.716e-22)
(0.01024 0.05306 1.214e-22)
(0.9017 -0.2259 1.232e-21)
(0.7874 -0.2234 0)
(1.194 -0.1071 -2.861e-22)
(0.7889 -0.2333 1.843e-21)
(0.9634 -0.2209 0)
(0.7128 -0.2243 -2.058e-22)
(-0.007383 -0.02566 -5.815e-22)
(0.79 -0.2334 -1.938e-21)
(0.949 -0.07737 -1.659e-21)
(0.9548 -0.2186 -2.145e-21)
(0.9896 -0.07459 -3.912e-21)
(1.1 -0.1618 0)
(1.007 -0.1983 -1.09e-21)
(1.144 -0.1381 4.901e-22)
(0.9627 -0.2209 -8.542e-23)
(1.056 -0.1589 0)
(0.5689 -0.1409 0)
(0.6686 -0.2109 -4.684e-25)
(1.087 -0.09144 1.596e-22)
(1.105 -0.07983 -4.356e-25)
(0.788 -0.2332 0)
(1.18 -0.1133 -7.195e-22)
(0.6532 -0.2151 -1.023e-21)
(0.4449 -0.1556 1.589e-22)
(1.006 -0.1989 0)
(0.4965 -0.153 4.545e-24)
(1.193 -0.1078 -2.778e-22)
(0.4753 -0.1361 2.957e-23)
(0.4962 -0.1522 -4.642e-24)
(0.7499 -0.2101 0)
(1.131 -0.152 1.272e-22)
(1.141 -0.1487 -1.176e-22)
(0.953 -0.07587 0)
(-0.004821 -0.02951 5.259e-22)
(0.8507 -0.2256 -2.428e-21)
(0.4406 0.01369 2.311e-24)
(0.6421 -0.2116 9.221e-26)
(0.003797 0.01871 5.565e-22)
(1.123 -0.08191 2.74e-24)
(0.9021 -0.1335 1.83e-21)
(0.5473 -0.1466 -1.039e-22)
(0.79 -0.2339 0)
(0.6521 -0.01975 3.262e-23)
(0.4456 -0.1571 -9.277e-23)
(0.9206 -0.2295 0)
(1.149 -0.1326 0)
(1.077 -0.08883 -5.117e-23)
(0.4646 -0.1633 -9.039e-23)
(1.05 -0.1652 0)
(0.5281 -0.1836 -1.667e-22)
(0.7717 -0.2265 4.504e-22)
(0.9462 -0.2234 1.278e-21)
(0.6243 -0.1056 0)
(0.039 -0.02793 -3.733e-22)
(0.9457 -0.2234 -2.908e-22)
(0.7882 -0.2332 -1.084e-21)
(0.1904 -0.01566 1.554e-22)
(1.121 -0.1563 -4.24e-23)
(1.141 -0.1485 0)
(1.214 -0.08649 9.454e-22)
(0.571 -0.1834 -1.762e-22)
(1.131 -0.1278 0)
(0.01012 0.0529 -2.365e-22)
(1.165 -0.02142 0)
(0.3377 -0.1026 -6.198e-22)
(1.245 0.2049 0)
(0.9898 -0.2099 0)
(0.8815 -0.2242 5.936e-24)
(0.9594 -0.1597 6.428e-23)
(1.175 -0.1067 -1.497e-21)
(1.197 -0.09974 6.386e-22)
(0.7176 -0.2261 9.25e-22)
(1.143 -0.08999 -7.39e-22)
(0.6612 -0.206 0)
(1.12 -0.157 0)
(1.128 -0.08699 0)
(1.131 -0.1516 0)
(0.9789 -0.2178 -7.657e-22)
(-0.01622 -0.0344 4.199e-22)
(0.8463 -0.2349 -5.415e-22)
(1.055 -0.1578 -1.652e-22)
(1.106 -0.09371 0)
(0.3398 -0.1254 -6.167e-23)
(0.5714 -0.1838 3.409e-22)
(1.141 -0.08892 0)
(1.067 -0.08349 -1.325e-22)
(0.8448 -0.2046 4.248e-24)
(0.3391 -0.169 -7.211e-23)
(1.061 -0.1678 3.378e-22)
(0.9917 -0.1352 -2.719e-22)
(1.098 -0.08267 -4.197e-24)
(1.1 -0.1508 0)
(0.4246 -0.04539 -7.125e-23)
(1.099 -0.03678 -1.996e-22)
(0.7352 -0.2168 5.322e-22)
(0.7343 -0.2166 -2.581e-22)
(0.8617 -0.2344 2.004e-25)
(0.9898 -0.07274 5.223e-21)
(1.138 -0.1398 2.85e-22)
(1.132 -0.1506 0)
(0.9401 -0.2254 -1.64e-21)
(1.025 -0.2049 -6.883e-25)
(1.217 -0.08589 0)
(0.722 -0.1726 5.887e-22)
(0.5169 -0.1668 9.775e-23)
(1.132 -0.151 0)
(0.9252 -0.226 -2.557e-21)
(0.9887 -0.2106 6.321e-22)
(1.094 -0.03477 1.228e-22)
(0.6546 -0.199 1.864e-22)
(1.126 -0.08921 0)
(0.7836 -0.131 7.653e-22)
(1.112 -0.08506 0)
(1.118 -0.09564 2.71e-23)
(1.024 -0.1957 3.687e-21)
(1.112 -0.08711 0)
(1.01 -0.09699 -1.376e-22)
(0.311 -0.1968 -7.932e-23)
(0.7563 -0.2271 0)
(0.8538 -0.1815 -1.203e-21)
(0.9061 -0.06621 8.142e-24)
(1.067 -0.05076 -7.9e-23)
(0.8531 -0.2263 2.277e-22)
(0.9559 -0.1923 0)
(0.4917 -0.1715 2.43e-22)
(1.094 -0.08355 -3.383e-23)
(1.102 -0.07638 1.179e-23)
(1.047 -0.07978 4.198e-23)
(0.9747 -0.2165 0)
(0.4783 -0.136 0)
(0.7119 -0.2226 0)
(0.6821 -0.2126 0)
(1.023 -0.2056 -1.365e-21)
(0.8466 -0.2339 6.919e-23)
(1.1 -0.1346 1.888e-21)
(0.6538 -0.215 6.824e-22)
(0.5503 -0.19 3.972e-21)
(0.8011 -0.2342 0)
(0.7714 -0.2269 0)
(1.215 -0.08673 0)
(0.7936 -0.2337 0)
(0.5141 -0.1671 0)
(0.8697 -0.1449 -3.156e-21)
(1.224 -0.04043 2.491e-23)
(0.9679 -0.2185 -1.414e-21)
(1.118 -0.09308 0)
(0.9437 -0.07901 6.126e-22)
(1.088 -0.08537 -5.157e-23)
(0.5471 -0.1449 -9.765e-23)
(0.8817 -0.231 0)
(1.048 -0.1888 3.109e-21)
(0.6283 -0.207 -4.07e-22)
(1.227 -0.07369 1.665e-21)
(0.6503 -0.2118 0)
(1.093 -0.1314 2.997e-21)
(1.186 -0.1072 8.536e-22)
(0.9356 -0.2052 0)
(1.186 -0.1081 0)
(1.048 -0.1922 9.873e-22)
(0.879 -0.2302 1.821e-21)
(0.7875 -0.2294 0)
(0.9847 -0.1528 0)
(1.059 -0.167 0)
(0.9867 -0.1505 0)
(0.5633 -0.1955 -5.972e-22)
(1.134 -0.1356 0)
(1.11 -0.1656 3.704e-22)
(1.223 -0.04001 -5.263e-22)
(1.126 -0.1366 -1.38e-22)
(1.094 -0.09225 -1.75e-22)
(1.152 -0.1356 5.72e-22)
(0.005411 0.02928 -5.061e-22)
(0.7743 -0.2328 4.618e-22)
(0.5647 -0.1853 -2.299e-22)
(0.8524 -0.2249 -8.242e-22)
(-0.00499 -0.02328 0)
(-0.0163 -0.075 2.05e-22)
(0.203 -0.06799 1.132e-22)
(0.9257 -0.2262 8.073e-23)
(1.289 0.02714 0)
(0.6779 -0.2029 4.798e-22)
(0.7198 -0.2263 1.688e-22)
(0.8817 -0.2313 0)
(0.7883 -0.2294 0)
(0.9211 -0.1781 -4.861e-22)
(0.5257 -0.13 0)
(0.2549 -0.09153 -4.87e-22)
(0.4483 -0.1562 0)
(0.9361 -0.2042 0)
(1.083 -0.08846 0)
(0.5148 -0.1796 1.219e-22)
(1.048 -0.1928 6.147e-22)
(0.4086 -0.1465 -4.638e-23)
(0.8928 -0.2061 0)
(0.604 -0.2049 0)
(1.092 -0.1367 3.161e-21)
(1.109 -0.09418 0)
(1.113 -0.08504 6.118e-24)
(0.876 -0.2299 -2.006e-21)
(0.6666 -0.2179 1.128e-22)
(0.8531 -0.2258 0)
(1.178 -0.07332 -2.423e-21)
(0.6927 -0.2222 3.031e-22)
(0.7952 -0.2338 0)
(1.074 -0.05282 3.639e-23)
(0.8352 -0.2349 0)
(0.5951 -0.1916 0)
(0.9382 -0.2257 2.9e-21)
(0.7041 -0.2215 1.006e-21)
(0.6127 -0.2052 2.977e-22)
(0.6369 -0.2088 -2.867e-21)
(0.5351 -0.1858 -1.442e-22)
(0.8098 -0.2319 4.221e-22)
(1.186 -0.02184 0)
(0.8683 -0.234 0)
(0.713 -0.2224 0)
(0.4831 -0.1231 4.32e-23)
(0.9278 -0.1974 -2.621e-21)
(0.6732 -0.2196 1.283e-21)
(0.8824 -0.2241 -7.059e-24)
(0.4462 -0.1574 -1.853e-22)
(1.119 -0.08638 2.245e-23)
(1.113 -0.1458 0)
(0.9174 -0.2253 2.03e-21)
(0.2841 -0.1548 2.597e-24)
(1.097 -0.174 2.852e-22)
(1.098 -0.1601 -8.768e-22)
(1.122 -0.06169 0)
(0.5289 -0.1748 -1.639e-22)
(1.171 -0.1163 0)
(1.099 -0.1615 2.53e-23)
(0.9425 -0.2253 0)
(0.5307 -0.1839 9.303e-25)
(1.316 0.167 1.651e-21)
(0.941 -0.2213 2.237e-21)
(0.619 -0.1689 0)
(0.8767 -0.2313 0)
(1.132 -0.1505 -2.17e-22)
(0.7853 -0.2331 5.525e-22)
(1.192 -0.09929 -1.951e-21)
(1.238 -0.0635 7.828e-25)
(1.126 -0.1533 0)
(1.066 -0.1361 -4.55e-22)
(1.1 -0.1499 0)
(1.125 -0.1369 5.908e-23)
(0.4105 -0.1449 -4.539e-22)
(0.7457 -0.23 -1.025e-21)
(1.184 -0.1164 -1.495e-22)
(1.141 -0.1381 0)
(0.7578 -0.2307 -1.32e-24)
(1.126 -0.1528 -3.537e-22)
(0.07457 -0.02516 0)
(0.4668 -0.1637 0)
(0.6513 -0.2118 -9.088e-23)
(0.6283 -0.2073 3.738e-22)
(0.8461 -0.2347 0)
(1.107 -0.1683 4.251e-22)
(1.094 -0.1728 7.561e-22)
(1.179 -0.119 -5.839e-22)
(0.4253 -0.148 0)
(0.9744 -0.2161 -1.88e-24)
(-0.04278 -0.05252 7.947e-23)
(1.129 -0.1562 5.103e-23)
(0.8459 -0.205 -3.253e-21)
(1.153 -0.02896 -2.088e-21)
(1.084 -0.08889 6.973e-23)
(1.253 0.2342 1.6e-22)
(1.027 -0.1966 -2.529e-21)
(0.6459 -0.1858 6.36e-22)
(0.9058 -0.1311 0)
(0.7884 -0.1308 0)
(1.087 -0.07761 1.429e-23)
(-0.01098 -0.03884 -1.271e-22)
(1.174 -0.1057 9.204e-22)
(0.757 -0.2268 0)
(0.4918 -0.1709 -6.702e-22)
(0.7081 -0.1266 -4.779e-22)
(0.9581 -0.2076 1.438e-24)
(1.131 -0.1507 0)
(0.8456 -0.234 -1.039e-21)
(0.6863 -0.1815 9.325e-22)
(0.7876 -0.2229 6.103e-22)
(0.1036 -0.004153 -4.826e-23)
(0.4541 -0.1412 -4.385e-23)
(0.725 -0.1722 6.389e-22)
(0.704 -0.2212 3.079e-22)
(0.4077 -0.1458 6.277e-22)
(0.802 -0.2343 7.26e-25)
(1.092 -0.1733 0)
(0.554 -0.1854 -6.391e-23)
(1.037 -0.1979 2.717e-21)
(1.168 -0.1301 2.141e-22)
(0.7196 -0.2218 4.415e-22)
(0.4253 -0.1503 0)
(0.8505 -0.2322 0)
(0.9974 -0.2085 -7.786e-22)
(1.138 -0.1392 1.279e-22)
(1.108 -0.1678 -8.277e-22)
(0.7742 -0.2326 4.186e-22)
(0.7205 -0.2265 8.576e-22)
(0.7187 -0.2218 -5.628e-22)
(0.7063 -0.2033 0)
(1.037 -0.07848 0)
(1.089 -0.07293 0)
(0.678 -0.2022 0)
(0.6692 -0.2184 2.631e-22)
(0.7204 -0.2263 0)
(0.7575 -0.2309 -1.316e-25)
(1.13 -0.1388 5.183e-23)
(0.07175 -0.07139 3.69e-22)
(1.13 -0.1383 -1.03e-22)
(0.5156 -0.1798 -5.672e-23)
(1.025 -0.2039 -6.876e-22)
(0.5619 -0.1766 0)
(0.04138 -0.01733 2.793e-22)
(0.8181 -0.2346 4.725e-22)
(1.097 -0.1739 0)
(0.5324 -0.1864 0)
(0.6654 -0.2138 0)
(0.6318 -0.2112 3.386e-22)
(0.72 -0.2268 -1.367e-22)
(1.112 -0.09302 -3.402e-23)
(0.7109 -0.1561 0)
(0.7385 -0.2291 1.069e-21)
(0.877 -0.2309 0)
(0.4972 -0.1559 7.758e-23)
(1.064 -0.138 4.631e-22)
(0.7418 -0.2106 -8.668e-22)
(0.6197 -0.1698 -2.816e-22)
(0.6191 -0.2084 0)
(0.7092 -0.2217 0)
(0.8278 -0.03204 1.4e-23)
(0.755 -0.2296 0)
(0.6469 -0.213 0)
(1.096 -0.08084 -1.217e-24)
(1.075 -0.0847 8.793e-23)
(1.203 0.007613 -1.35e-21)
(0.9022 -0.1241 0)
(0.5245 -0.1491 8.04e-23)
(1.125 -0.1572 -5.149e-22)
(1.151 -0.1133 0)
(1.043 -0.04838 8.396e-23)
(0.8677 -0.2307 9.634e-22)
(1.085 -0.08861 0)
(0.4083 -0.1533 6.611e-23)
(1.091 -0.06945 0)
(1.009 -0.1737 3.722e-21)
(0.4256 -0.1487 0)
(0.8667 -0.09142 0)
(0.5347 -0.1854 2.834e-22)
(1.009 -0.06156 -7.763e-21)
(1.316 0.0897 0)
(1.341 0.1453 -1.366e-21)
(0.8396 0.05793 -3.074e-21)
(0.9339 -0.2273 1.819e-21)
(0.5418 -0.1886 0)
(0.7143 -0.1558 -4.313e-22)
(0.9369 -0.07506 -9.795e-24)
(1.09 -0.1699 4.978e-22)
(1.14 -0.1488 6.318e-22)
(0.6661 -0.08009 1.42e-21)
(0.7679 -0.1655 0)
(0.6765 -0.2189 -1.469e-22)
(0.9402 -0.217 -2.368e-21)
(0.3517 -0.1354 4.09e-21)
(0.4782 -0.1022 -4.136e-22)
(0.9943 -0.1975 -1.616e-24)
(0.6112 -0.2064 0)
(1.153 -0.1346 -7.088e-22)
(0.9073 -0.2265 0)
(0.8266 -0.2348 0)
(0.763 -0.2103 -7.506e-22)
(0.8022 -0.1701 0)
(0.7358 -0.03053 0)
(0.3536 -0.1334 0)
(0.8135 -0.2306 -6.049e-22)
(0.4255 -0.1518 0)
(1.212 -0.09245 0)
(1.16 0.1493 8.324e-22)
(0.2836 -0.1044 -8.109e-23)
(0.9017 -0.1905 1.095e-21)
(1.316 0.06717 -1.493e-21)
(1.125 -0.0792 0)
(0.3928 -0.1398 -3.01e-22)
(0.5792 -0.03462 0)
(0.6858 -0.2216 -8.387e-22)
(0.9428 -0.2208 2.286e-21)
(0.946 -0.02766 0)
(1.071 -0.03091 0)
(0.9852 -0.0807 2.27e-21)
(1.188 -0.07225 -2.597e-21)
(0.6796 -0.2142 0)
(0.234 -0.1608 -1.183e-22)
(1.032 -0.195 0)
(0.8384 -0.2344 9.664e-22)
(0.8052 -0.2317 -3.354e-22)
(0.5488 -0.1918 0)
(0.5858 -0.1995 -2.285e-22)
(0.5891 -0.2023 0)
(0.6379 -0.1959 0)
(1.123 -0.1338 0)
(1.275 -0.008846 1.758e-22)
(1.196 -0.1055 6.639e-22)
(1.13 -0.1476 -3.275e-22)
(1.089 -0.08189 -6.671e-24)
(0.7815 -0.2316 0)
(0.6755 -0.2057 0)
(0.6408 -0.2138 -1.93e-23)
(0.2477 -0.1771 -5.472e-23)
(0.315 -0.1129 -1.75e-22)
(0.8024 -0.2318 0)
(0.7254 -0.2213 -4.382e-22)
(0.6194 -0.2024 0)
(0.8772 -0.2314 0)
(0.618 -0.2087 -4.181e-22)
(1.104 -0.1449 6.007e-22)
(0.7423 -0.2286 1.289e-24)
(1.109 -0.08129 -5.243e-23)
(1.067 -0.08242 2.252e-23)
(0.5362 -0.1783 0)
(0.9928 -0.1774 0)
(1.049 -0.1888 -1.359e-21)
(1.129 -0.09502 -2.249e-23)
(0.664 -0.1886 2.892e-22)
(0.6498 -0.2143 5.25e-22)
(0.5775 -0.216 3.822e-22)
(0.4002 -0.1437 -5.18e-23)
(0.7068 -0.2026 5.07e-23)
(1.104 -0.17 -9.836e-22)
(0.5285 -0.1365 -4.056e-21)
(1.154 -0.1356 0)
(0.9427 -0.2247 -3.39e-21)
(0.2619 -0.09728 -1.672e-22)
(0.3957 -0.1456 -2.733e-23)
(0.6772 -0.2198 -1.203e-21)
(0.6866 -0.2213 -2.1e-21)
(0.5596 -0.1014 0)
(0.6875 -0.2219 -1.944e-22)
(0.4103 -0.1457 0)
(0.6855 -0.2197 -7.782e-22)
(0.5555 -0.1884 -1.828e-22)
(1.111 -0.1657 6.48e-22)
(0.9377 -0.1 6.394e-21)
(0.7519 -0.1527 0)
(0.7467 -0.2277 -5.035e-23)
(1.038 -0.1925 0)
(0.6246 -0.2101 0)
(0.7037 -0.224 0)
(0.9884 -0.07255 -1.055e-23)
(0.6901 -0.2218 1.448e-21)
(0.4237 -0.1351 -4.109e-21)
(1.096 -0.1746 -1.639e-21)
(1.289 0.01512 1.919e-21)
(0.73 -0.162 -4.125e-22)
(1.018 -0.2044 -3.356e-21)
(0.4631 -0.1509 -6.167e-23)
(0.8577 -0.2286 4.819e-22)
(1.135 -0.15 6.402e-23)
(0.9681 -0.2094 -3.137e-21)
(0.8748 -0.2185 0)
(0.5262 -0.18 0)
(0.4053 -0.1539 -6.312e-23)
(1.128 -0.08956 0)
(1.033 -0.1975 0)
(0.9967 -0.2118 -2.404e-21)
(1.162 -0.1248 -2.175e-21)
(0.4666 -0.1571 -2.519e-23)
(1.004 -0.1914 1.309e-21)
(0.4625 -0.04969 0)
(0.9415 -0.2259 4.701e-22)
(0.8026 -0.2338 -8.861e-22)
(0.8688 -0.2318 2.01e-22)
(0.8794 -0.232 0)
(0.4294 -0.1505 -3.152e-23)
(0.337 -0.1219 4.242e-22)
(0.7695 -0.225 7.082e-22)
(0.9419 -0.07388 6.298e-25)
(0.7807 -0.2322 0)
(1.059 -0.1911 -9.551e-22)
(0.3987 -0.1596 1.83e-23)
(1.012 -0.1679 0)
(0.2356 -0.0836 0)
(0.7182 -0.2256 0)
(0.7877 -0.2302 0)
(0.8492 -0.221 -1.623e-21)
(0.7166 -0.1312 0)
(1.067 -0.08296 0)
(0.4463 -0.03189 -1.185e-22)
(0.6122 -0.2024 -2.055e-22)
(1.108 -0.08283 1.235e-23)
(0.4307 -0.06541 7.342e-23)
(0.5637 -0.1924 -5.994e-23)
(0.7079 -0.2252 0)
(1.155 -0.1116 1.466e-21)
(0.8943 -0.1927 0)
(0.3652 -0.1409 0)
(1.081 -0.1593 1.113e-21)
(0.911 -0.06333 0)
(0.6926 -0.2178 6.497e-23)
(0.5884 -0.1271 0)
(0.5882 -0.2018 -3.549e-22)
(1.339 0.1893 3.55e-22)
(1.13 -0.1275 1.669e-22)
(-0.01083 0.02717 9.127e-23)
(0.6216 -0.2072 -1.212e-22)
(0.09848 -0.03225 -1.475e-22)
(0.7703 -0.1664 9.039e-22)
(0.566 -0.1946 -2.357e-21)
(0.7516 -0.2221 -1.063e-21)
(1.123 -0.1147 -2.227e-21)
(1.086 -0.09332 0)
(1.081 -0.179 2.51e-21)
(0.7871 -0.11 0)
(1.144 -0.08946 0)
(0.779 -0.2329 0)
(1.123 -0.08767 0)
(0.642 -0.1869 0)
(0.3731 -0.136 0)
(0.6425 -0.2024 1.941e-22)
(0.5975 -0.1758 0)
(1.142 -0.04074 9.276e-22)
(0.3687 -0.1397 3.909e-21)
(1.266 0.03984 0)
(0.7529 -0.2244 0)
(0.6382 -0.2121 -2.149e-22)
(0.7141 -0.2254 -2.842e-22)
(0.7378 -0.2165 0)
(1.138 -0.1487 1.649e-23)
(1.136 -0.05809 -4.352e-21)
(0.5987 -0.2009 -1.27e-21)
(1.083 -0.09149 0)
(0.4412 -0.154 1.138e-22)
(0.9745 -0.2187 -2.593e-22)
(1.214 -0.07544 1.308e-21)
(0.7637 -0.1901 5.899e-24)
(0.5868 -0.2015 -3.687e-23)
(0.5612 -0.195 0)
(0.6759 -0.2194 -3.761e-22)
(1.346 0.2034 1.376e-22)
(1.03 -0.203 -1.754e-21)
(0.9149 -0.2251 -1.206e-21)
(0.7655 0.005369 -4.42e-21)
(0.6606 -0.2147 4.523e-22)
(0.497 -0.1711 0)
(0.5209 -0.1215 4.758e-23)
(0.6915 -0.1823 0)
(1.009 -0.09716 -8.33e-22)
(0.8439 -0.2343 -1.671e-21)
(0.8603 -0.209 0)
(1.265 -0.0273 1.103e-21)
(0.5854 -0.1982 0)
(0.7156 -0.2264 -9.577e-22)
(1.098 -0.07757 -2.574e-23)
(0.7896 -0.2263 -3.838e-22)
(1.094 -0.1346 -2.327e-21)
(0.816 -0.2166 2.362e-21)
(0.7274 -0.2275 9.366e-22)
(1.127 -0.09019 -7.476e-24)
(1.021 -0.2043 -9.281e-22)
(0.8454 -0.1782 -3.383e-21)
(0.9113 -0.2307 0)
(0.649 -0.1935 2.642e-24)
(0.8385 -0.218 0)
(1.028 -0.1056 3.403e-21)
(0.4199 -0.1511 7.648e-24)
(0.6752 -0.2189 0)
(0.6534 -0.05335 0)
(1.113 -0.08521 2.779e-23)
(0.7376 -0.2285 5.387e-21)
(0.4776 -0.1659 4.972e-23)
(0.7251 -0.2271 -6.777e-22)
(1.084 -0.1792 -1.886e-21)
(-0.07078 -0.03213 -1.181e-22)
(1.316 0.08134 7.365e-22)
(0.7739 -0.2326 -2.13e-22)
(1.276 -0.005186 -6.974e-22)
(0.7611 -0.1901 8.171e-22)
(1.081 -0.085 5.08e-23)
(0.707 -0.2039 -1.952e-22)
(0.7509 -0.2305 -8.075e-22)
(0.6886 -0.2224 -3.403e-22)
(0.647 -0.1857 -5.844e-22)
(0.633 -0.1793 0)
(0.9481 -0.06333 -1.119e-22)
(0.6558 -0.216 -4.839e-22)
(1.141 -0.1361 0)
(1.345 0.1738 0)
(0.9713 -0.2193 7.262e-22)
(1.12 -0.0941 0)
(0.8047 0.09988 -7.022e-22)
(0.8426 -0.2348 5.189e-22)
(0.7523 -0.2307 0)
(1.123 -0.1447 -5.383e-23)
(0.9769 -0.2169 -1.32e-21)
(0.6627 -0.2058 -8.832e-23)
(0.5368 -0.1786 0)
(0.7897 -0.2257 0)
(0.5854 -0.1577 0)
(1.304 0.04025 8.743e-22)
(0.612 -0.2053 2.623e-22)
(0.3824 -0.1489 0)
(0.9712 -0.133 0)
(0.7791 -0.2293 0)
(0.8909 -0.2323 3.289e-22)
(0.1741 -0.06096 -2.586e-22)
(0.7068 -0.2242 2.477e-23)
(0.01139 0.04684 -1.552e-25)
(0.4529 -0.1065 1.082e-22)
(0.9087 -0.1471 -2.43e-21)
(1.019 -0.07403 2.55e-23)
(0.5236 -0.1479 -3.801e-23)
(0.6294 -0.211 3.201e-24)
(1.149 -0.1376 0)
(1.124 -0.1583 5.107e-22)
(1.175 -0.1129 -1.581e-21)
(0.6989 -0.1746 3.593e-22)
(0.7874 0.09766 3.499e-21)
(0.8827 -0.2333 -4.09e-22)
(0.5647 -0.1919 3.565e-22)
(0.8188 -0.1077 0)
(0.8611 -0.1793 -2.465e-21)
(0.7538 -0.2164 -5.324e-22)
(1.271 0.06209 6.605e-23)
(0.8769 -0.2321 -2.586e-22)
(1.157 -0.127 9.531e-23)
(0.8286 -0.2303 0)
(0.7495 -0.2254 1.718e-21)
(0.461 -0.1493 0)
(0.4875 -0.1627 -4.371e-23)
(1.134 -0.1426 0)
(0.515 -0.1669 0)
(1.167 -0.1175 -1.767e-21)
(0.778 -0.09463 2.138e-21)
(0.6305 -0.2037 0)
(0.822 -0.2349 0)
(0.7212 -0.2255 -1.573e-22)
(0.9288 -0.1284 -4.21e-21)
(0.8897 -0.231 0)
(0.7551 -0.03982 -7.784e-23)
(1.069 0.006398 1.848e-21)
(0.3486 -0.1352 2.74e-21)
(0.5894 -0.1989 1.666e-22)
(1.221 -0.08222 -1.255e-22)
(0.055 -0.08591 -9.139e-23)
(0.8291 -0.2231 0)
(0.9564 -0.2172 6.262e-22)
(0.4941 -0.1716 2.102e-22)
(1.213 -0.08495 9.864e-22)
(0.6458 -0.04963 8.663e-22)
(0.8185 -0.228 -2.654e-21)
(1.267 0.1609 0)
(1.076 -0.08156 9.337e-24)
(0.799 0.09265 3.623e-21)
(0.6246 -0.2099 0)
(0.6559 -0.2065 2.078e-22)
(1.287 0.06225 -1.491e-21)
(1.09 -0.08366 -1.617e-23)
(0.9895 -0.1363 -4.005e-21)
(0.8189 -0.2317 -7.736e-22)
(0.7658 -0.2019 -4.973e-21)
(1.031 -0.2027 1.602e-21)
(0.6781 -0.2189 1.352e-21)
(0.8143 -0.2306 0)
(0.3545 -0.1821 0)
(0.4332 -0.1518 0)
(0.7363 -0.2266 7.337e-22)
(0.5213 -0.1869 0)
(0.4151 -0.1472 0)
(1.041 -0.07623 3e-24)
(1.102 -0.1666 1.175e-21)
(1.172 -0.1031 9.038e-22)
(0.8948 -0.2259 2.918e-22)
(0.6934 -0.2178 -2.402e-22)
(0.9189 -0.2255 -2.115e-21)
(0.4858 -0.04915 -1.547e-22)
(1.076 0.04065 -5.103e-22)
(1.146 -0.141 5.801e-22)
(0.5495 -0.1865 -3.964e-21)
(0.7287 -0.228 0)
(1.102 -0.09147 0)
(1.135 -0.1492 -5.856e-28)
(0.472 -0.1145 1.843e-22)
(0.8742 -0.2334 -8.73e-22)
(1.135 -0.1353 1.127e-22)
(0.6671 -0.2187 0)
(0.7999 -0.2082 0)
(1.141 -0.136 0)
(0.06074 -0.08075 -1.646e-22)
(1.043 -0.09817 0)
(1.233 -0.06571 0)
(1.201 -0.09382 0)
(0.1665 -0.07558 3.076e-22)
(0.7136 -0.226 -1.739e-21)
(0.7773 -0.2005 -2.628e-21)
(1.106 -0.0814 0)
(0.9253 -0.2235 0)
(0.6716 -0.1582 0)
(1.153 -0.1065 3.352e-22)
(0.5185 -0.1667 -4.27e-23)
(0.566 -0.1884 -9.796e-23)
(1.062 -0.1907 -1.095e-21)
(1.186 -0.1151 -9.849e-22)
(0.9155 -0.08991 -1.015e-21)
(1.088 -0.05739 3.209e-21)
(0.8579 -0.2328 -1.533e-23)
(0.4288 -0.1507 0)
(0.7994 -0.1694 2.367e-22)
(1.173 -0.086 0)
(0.6686 -0.2184 2.026e-22)
(0.6563 -0.2149 5.725e-22)
(1.112 -0.1504 -3.876e-22)
(0.8582 -0.2225 -6.566e-22)
(0.8659 -0.2284 5.355e-22)
(1.324 0.08706 0)
(0.503 -0.1622 -2.506e-23)
(1.182 -0.1055 7.136e-24)
(0.5646 -0.1703 0)
(1.056 -0.1248 4.8e-21)
(1.115 -0.1643 -6.425e-22)
(1.355 0.2141 8.209e-22)
(0.4785 -0.138 4.416e-21)
(0.6446 -0.2138 -2.15e-22)
(0.981 -0.07615 2.638e-24)
(0.8495 -0.2069 1.969e-23)
(1.304 0.03689 -1.562e-21)
(0.7097 -0.2082 -2.372e-22)
(0.4823 -0.135 -8.559e-21)
(0.5035 -0.1666 -1.634e-23)
(1.094 -0.1663 3.579e-22)
(0.5958 -0.1903 1.112e-22)
(1.025 -0.07938 2.714e-23)
(1.057 -0.1916 -2.1e-21)
(1.214 -0.09063 -2.086e-21)
(0.6024 -0.03506 0)
(0.412 -0.1231 -6.572e-24)
(0.5016 -0.1665 -3.597e-23)
(1.001 -0.2117 9.789e-22)
(0.6462 -0.2032 3.076e-24)
(0.5624 -0.1771 0)
(0.8176 -0.2301 1.393e-21)
(0.5048 -0.1735 -3.48e-23)
(0.4397 -0.1513 4.906e-23)
(0.5792 -0.1855 -7.276e-21)
(0.7987 -0.2322 0)
(0.8082 -0.2339 1.495e-25)
(1.131 0.1139 -4.364e-22)
(1.057 0.01095 -1.702e-21)
(0.4143 -0.1262 5.086e-23)
(0.7478 -0.1837 3.442e-22)
(1.105 -0.1377 1.029e-21)
(1.147 -0.1411 0)
(0.8253 -0.2305 1.147e-21)
(0.9539 -0.2207 -2.222e-21)
(0.4065 -0.1436 0)
(0.9781 -0.2163 1.56e-21)
(1.336 0.1767 4.421e-22)
(0.6686 -0.2124 4.742e-22)
(0.6799 -0.2058 -1.223e-22)
(1.081 -0.1783 2.65e-21)
(0.5584 -0.1318 2.896e-22)
(0.5977 -0.1689 -1.726e-22)
(1.086 -0.06606 -5.06e-23)
(0.6302 -0.2033 2.272e-22)
(0.6438 -0.1793 1.565e-22)
(1.05 -0.006057 -1.108e-21)
(0.6786 -0.1206 7.352e-22)
(0.6139 -0.1942 -2.406e-22)
(0.5761 -0.03132 -1.344e-22)
(0.6423 -0.2119 -2.849e-22)
(1.054 -0.1518 5.038e-22)
(1.204 -0.09492 5.36e-22)
(0.5577 -0.1908 -2.235e-22)
(1.063 -0.1706 9.512e-22)
(0.4269 -0.1346 4.113e-21)
(0.3606 -0.1308 -2.73e-22)
(0.6017 -0.04312 2.598e-23)
(0.7539 -0.2171 1.023e-21)
(0.461 -0.1628 -3.334e-23)
(0.744 -0.1628 0)
(1.075 -0.05177 -3.126e-22)
(0.4857 -0.02771 4.956e-23)
(1.094 -0.06149 1.071e-21)
(0.9394 -0.07836 7.616e-22)
(1.002 6.957e-05 0)
(0.6265 -0.2088 0)
(0.8003 -0.2274 8.907e-22)
(0.5714 -0.1619 1.61e-22)
(0.9319 -0.06612 0)
(0.6418 -0.1817 0)
(0.5928 -0.2006 0)
(1.003 -0.1415 1.537e-21)
(1.144 -0.1384 -2.444e-22)
(0.8731 -0.2339 -1.52e-21)
(1.122 -0.1607 -3.797e-22)
(0.08308 -0.1005 -1.527e-22)
(0.6474 -0.1607 -8.287e-22)
(0.7745 -0.1144 0)
(0.8791 -0.2023 2.2e-21)
(1.071 -0.164 0)
(0.8179 -0.2306 -4.233e-21)
(0.4223 -0.1495 1.108e-22)
(0.7212 -0.215 -2.742e-22)
(0.7074 -0.2242 0)
(0.7499 -0.2282 0)
(1.01 -0.202 0)
(0.5807 -0.1974 1.726e-22)
(0.6647 -0.2176 1.388e-21)
(0.5476 -0.1868 1.082e-22)
(0.7438 -0.1611 4.221e-22)
(0.9554 -0.2064 0)
(1.027 -0.09401 0)
(1.084 -0.1467 -4.287e-21)
(0.6124 -0.2059 1.11e-22)
(0.4982 -0.1273 1.363e-22)
(0.5708 -0.1912 -2.455e-22)
(0.6137 -0.174 -3.353e-22)
(1.027 -0.1969 6.791e-22)
(0.9056 -0.1359 3.497e-21)
(0.4438 -0.1363 0)
(0.6171 -0.2066 0)
(0.626 -0.1982 9.055e-23)
(0.8173 -0.2242 0)
(1.114 -0.08659 6.679e-23)
(0.4524 -0.1597 7.948e-23)
(0.6133 -0.1658 -3.367e-22)
(1.294 0.0196 0)
(1.126 -0.1396 0)
(0.5659 -0.1879 4.042e-22)
(1.104 -0.09562 6.001e-23)
(0.8563 -0.1798 -3.61e-21)
(1.276 0.05438 2.178e-21)
(1.107 -0.1373 -5.227e-22)
(0.8741 -0.06285 8.702e-23)
(0.7648 -0.2124 -3.926e-22)
(1.106 -0.09061 0)
(0.7911 -0.219 2.384e-22)
(1.106 -0.07084 -1.457e-22)
(0.8161 0.1044 5.572e-21)
(0.9062 -0.2148 3.289e-22)
(0.6489 -0.2144 1.724e-21)
(0.7395 -0.2288 -1.547e-21)
(1.059 -0.1924 1.294e-21)
(0.534 -0.1746 -1.809e-22)
(0.9216 -0.1936 2.271e-21)
(0.542 -0.1736 -1.503e-22)
(0.8303 -0.09745 0)
(0.9226 -0.2292 -1.199e-21)
(0.4951 -0.1724 3.165e-22)
(1.138 -0.1483 -3.032e-22)
(1.123 -0.09215 0)
(1.034 -0.1976 -8.731e-22)
(0.9337 -0.2271 -5.916e-22)
(1.31 0.1554 1.49e-21)
(0.556 -0.1784 0)
(0.6884 -0.2221 1.675e-21)
(0.5934 -0.2014 -4.73e-22)
(0.9858 -0.07641 -3.281e-23)
(1.125 -0.1578 -3.769e-22)
(0.8896 -0.2316 -1.179e-21)
(0.5851 -0.1884 -1.199e-22)
(0.8946 -0.2321 -6.414e-22)
(1.099 -0.1724 8.545e-22)
(1.035 -0.2007 1.369e-21)
(0.6929 -0.2215 0)
(0.7441 -0.2195 3.5e-22)
(0.9177 -0.2297 1.99e-21)
(0.4924 -0.165 -4.518e-23)
(0.5578 -0.1892 -2.66e-22)
(0.5189 -0.1803 5.484e-23)
(0.6374 -0.213 7.737e-22)
(1.169 -0.129 2.412e-22)
(0.6251 -0.1938 3.001e-22)
(0.7219 -0.2 -7.312e-23)
(0.7835 -0.2332 -1.777e-21)
(0.763 -0.2227 0)
(1.069 -0.0834 1.735e-23)
(1.026 -0.2032 0)
(1.087 -0.08711 3.195e-23)
(1.271 0.0493 -1.338e-21)
(0.5834 -0.1885 2.867e-22)
(1.128 -0.08177 4.496e-23)
(0.6892 -0.06678 5.213e-21)
(0.7799 -0.233 0)
(0.725 -0.2264 -3.296e-22)
(1.095 -0.08014 3.494e-22)
(1.046 -0.1875 -2.254e-21)
(0.3994 -0.159 1.853e-23)
(0.6026 -0.1657 -3.181e-22)
(1.009 -0.1015 3.874e-21)
(1.213 -0.05806 -1.313e-21)
(1.097 -0.1554 0)
(0.5545 -0.1096 -2.923e-22)
(0.6657 -0.1776 0)
(0.5597 -0.1166 0)
(0.563 -0.1953 0)
(1.079 -0.05169 1.374e-22)
(0.6511 -0.2126 -2.909e-22)
(1.039 -0.04132 -8.741e-23)
(0.5177 -0.1818 -1.752e-21)
(0.7321 -0.1923 0)
(1.14 -0.1482 -4.358e-22)
(1.124 -0.1473 -4.795e-22)
(1.089 -0.144 -2.113e-23)
(1.066 -0.1112 0)
(0.389 -0.1396 -1.291e-22)
(0.73 -0.1599 4.088e-22)
(1.005 -0.0972 1.774e-21)
(0.3952 -0.1362 0)
(0.9573 -0.1632 -1.451e-21)
(0.5861 -0.2015 -1.053e-22)
(0.9853 -0.1654 0)
(1.039 -0.1917 3.972e-22)
(1.13 -0.1199 -3.536e-21)
(0.7382 -0.2297 5.123e-22)
(0.7916 -0.234 0)
(0.573 -0.1622 -2.156e-22)
(0.3216 -0.0929 -1.636e-22)
(0.9037 -0.2307 5.815e-22)
(0.7762 -0.2329 0)
(0.3477 -0.1259 -8.494e-22)
(0.856 -0.2258 0)
(0.5558 -0.1854 3.969e-21)
(1.012 -0.04383 1.14e-22)
(0.7621 -0.2277 0)
(0.8679 -0.2283 -1.066e-21)
(0.4263 -0.1511 0)
(0.6851 -0.2169 0)
(0.8232 -0.2326 -2.093e-21)
(0.9067 -0.2306 9.992e-22)
(0.6929 -0.1561 0)
(0.857 -0.2284 -1.012e-21)
(0.4618 -0.1587 3.95e-23)
(1.225 -0.01844 2.957e-21)
(1.162 -0.1226 8.93e-22)
(0.9204 -0.07134 0)
(0.7858 -0.2272 1.08e-22)
(1.055 -0.191 0)
(0.8212 -0.2344 -1.62e-22)
(0.886 -0.2 3.455e-21)
(0.9329 -0.2274 -1.422e-21)
(0.6573 -0.2169 1.059e-22)
(0.4694 -0.1637 -1.455e-22)
(0.7726 -0.2324 8.613e-22)
(0.6409 -0.2139 1.069e-21)
(0.3228 -0.1055 -1.056e-21)
(1.126 -0.1545 1.923e-22)
(1.283 0.009256 1.179e-21)
(1.029 -0.1995 0)
(0.6453 -0.2028 3.498e-22)
(0.9699 -0.214 1.63e-21)
(1.021 -0.1665 8.77e-22)
(1.068 -0.1877 -8.435e-22)
(0.2769 -0.1916 -8.244e-23)
(0.7794 -0.2161 0)
(1.049 -0.01089 1.124e-21)
(0.971 -0.2187 -1.246e-21)
(0.8349 -0.229 -6.497e-22)
(1.114 -0.1649 1.101e-21)
(0.7891 0.03277 -5.089e-21)
(0.7415 -0.228 4.662e-22)
(1.116 -0.1372 -1.529e-22)
(1.304 0.03632 -9.083e-22)
(1.125 -0.09717 0)
(1.086 -0.1467 -6.184e-21)
(1.105 -0.1654 -6.327e-22)
(1.144 -0.141 3.872e-22)
(1.091 -0.1309 -1.171e-21)
(1.119 -0.09584 2.765e-23)
(0.4628 -0.1708 1.243e-21)
(1.108 -0.08536 2.175e-23)
(0.6836 -0.2214 0)
(0.8783 -0.1752 -2.225e-21)
(0.5664 -0.1851 1.413e-22)
(0.5127 -0.1423 0)
(0.5517 -0.1895 0)
(0.9529 -0.2227 -5.867e-22)
(1.227 -0.05623 -3.804e-21)
(0.941 -0.2259 0)
(0.645 -0.2115 2.522e-22)
(0.4046 -0.1458 -2.089e-25)
(1.133 -0.1377 -2.927e-21)
(0.4163 -0.1478 2.494e-25)
(0.4436 -0.1485 -2.137e-23)
(1.085 -0.175 1.346e-21)
(1.123 -0.09453 1.281e-22)
(0.3525 -0.1213 0)
(0.8026 -0.2342 0)
(0.6328 -0.2096 7.648e-23)
(1.133 -0.1442 0)
(1.128 -0.1564 -1.075e-21)
(0.6867 -0.2217 0)
(0.9247 -0.2233 1.118e-21)
(0.5439 -0.184 2.048e-23)
(-0.07151 -0.0314 0)
(1.056 0.01502 0)
(0.7046 -0.2217 -1.704e-21)
(1.063 -0.04732 0)
(0.6577 -0.217 7.41e-22)
(0.6831 -0.2124 0)
(1.046 -0.1055 0)
(0.4318 -0.1514 4.472e-23)
(0.7625 -0.2283 0)
(0.9056 -0.2274 -1.408e-21)
(1.174 -0.1252 0)
(0.8913 -0.2091 7.716e-22)
(0.6604 -0.19 6.005e-22)
(0.5048 -0.1243 -6.925e-23)
(0.7251 -0.2268 -9.037e-25)
(0.8601 -0.07803 3.074e-23)
(1.002 -0.1345 0)
(0.7626 -0.2257 1.227e-22)
(1.078 -0.08864 -1.007e-22)
(0.7008 -0.2208 -2.619e-22)
(0.5176 -0.1785 -8.345e-23)
(0.6244 -0.1871 4.643e-22)
(1.123 -0.111 1.819e-21)
(1.19 -0.01533 0)
(1.087 -0.1395 3.817e-21)
(0.6801 -0.04805 0)
(0.8613 -0.2092 1.348e-21)
(0.9731 -0.2056 0)
(0.8395 -0.2059 8.049e-23)
(0.1939 -0.07285 0)
(1.14 -0.1331 2.496e-21)
(1.123 -0.09183 -4.223e-23)
(0.815 -0.06513 3.404e-23)
(1.138 -0.1213 -3.515e-22)
(0.8654 -0.06615 -1.105e-23)
(0.7106 -0.2252 -4.22e-22)
(0.8927 -0.228 0)
(1.287 0.01774 -1.504e-24)
(0.7597 -0.1969 1.218e-21)
(0.894 -0.2285 -1.526e-21)
(0.9678 -0.137 0)
(0.4453 -0.1428 -4.046e-24)
(1.101 -0.08529 1.33e-23)
(0.935 -0.2187 1.876e-21)
(0.7777 -0.1869 6.225e-22)
(0.4101 -0.1463 0)
(1.132 -0.154 7.603e-22)
(0.7294 -0.2162 6.229e-22)
(1.087 -0.1742 1.024e-21)
(0.5512 -0.1895 1.642e-22)
(0.6942 -0.2221 -3.042e-22)
(1.155 -0.1296 -6.361e-22)
(1.144 -0.1416 -7.546e-22)
(0.6944 -0.2224 -1.137e-21)
(1.108 -0.09395 -2.291e-23)
(0.3725 -0.1347 0)
(0.706 -0.04666 0)
(0.4421 -0.02866 1.374e-23)
(0.6942 -0.2233 1.475e-22)
(0.8627 -0.2034 3.681e-21)
(1.074 -0.06395 -5.029e-23)
(0.4182 -0.05345 2.671e-22)
(0.6018 -0.2037 6.561e-22)
(1.227 -0.04526 1.984e-21)
(0.7372 -0.2162 0)
(0.5612 -0.1901 -1.511e-22)
(0.3506 -0.1229 -1.941e-21)
(0.8493 -0.2251 7.531e-22)
(0.9549 -0.2181 6.942e-22)
(1.188 -0.02544 0)
(0.7008 -0.2229 5.378e-22)
(0.4866 -0.1631 8.836e-23)
(1.128 -0.09589 6.578e-23)
(0.5692 -0.1852 -1.621e-22)
(0.6425 -0.1086 0)
(0.6472 -0.2146 -2.069e-23)
(0.9807 -0.1158 0)
(1.052 -0.1889 -4.091e-21)
(1.121 -0.1571 0)
(0.3886 -0.1339 3.049e-21)
(1.29 0.05736 -1.3e-21)
(0.6514 -0.2107 0)
(0.733 -0.1929 0)
(0.744 -0.2295 2.454e-21)
(0.9015 -0.2317 0)
(0.565 -0.1861 1.496e-22)
(0.9314 -0.00724 6.917e-23)
(0.3839 -0.1269 0)
(0.6498 -0.214 8.41e-22)
(1.133 -0.1531 4.834e-22)
(0.8328 -0.2031 0)
(0.8153 -0.2162 0)
(0.7817 -0.1927 1.068e-20)
(0.6806 -0.2094 1.676e-22)
(0.532 -0.1876 1.225e-22)
(1.106 -0.05043 0)
(0.5174 -0.1398 1.738e-24)
(1.126 -0.09153 3.81e-23)
(1.071 -0.1827 0)
(0.8991 -0.1231 -1.277e-21)
(0.8095 -0.2345 -1.719e-21)
(1.317 0.1643 0)
(0.35 -0.1243 4.782e-22)
(0.6228 -0.1666 0)
(0.2422 -0.0972 0)
(0.996 -0.1394 5.438e-21)
(0.971 -0.08403 4.964e-21)
(0.422 -0.1268 7.717e-21)
(0.6658 -0.2189 1.207e-21)
(0.657 -0.2142 0)
(0.9281 -0.1849 0)
(1.09 -0.1603 0)
(0.8768 -0.2337 1.079e-21)
(0.7283 -0.2173 7.68e-22)
(1.146 -0.1378 6.377e-22)
(0.5762 -0.1652 0)
(1.32 0.1562 -1.213e-21)
(1.066 -0.1887 -5.008e-22)
(0.5926 -0.2007 0)
(1.127 -0.06862 0)
(1.213 -0.09201 2.07e-21)
(0.899 -0.2311 1.14e-22)
(0.8982 -0.1706 2.195e-21)
(0.2731 -0.1948 0)
(1.105 -0.08912 -4.411e-22)
(0.747 -0.2302 -3.645e-22)
(0.9572 -0.1908 -1.594e-21)
(0.8735 -0.2333 0)
(0.8218 -0.21 0)
(0.7905 -0.2308 2.307e-23)
(0.7026 -0.2238 0)
(1.089 -0.07671 -1.91e-23)
(0.8283 -0.2286 3.733e-21)
(0.6817 -0.2202 -4.062e-22)
(0.8494 -0.2307 0)
(1.217 -0.08489 0)