# Force coefficients
# dragDir   : (1.0000e+00 0.0000e+00 0.0000e+00)
# sideDir   : (0.0000e+00 0.0000e+00 -1.0000e+00)
# liftDir   : (0.0000e+00 1.0000e+00 0.0000e+00)
# rollAxis  : (1.0000e+00 0.0000e+00 0.0000e+00)
# pitchAxis : (0.0000e+00 0.0000e+00 -1.0000e+00)
# yawAxis   : (0.0000e+00 1.0000e+00 0.0000e+00)
# magUInf   : 1.0000e+00
# lRef      : 1.0000e+00
# Aref      : 1.0000e+00
# CofR      : (0.0000e+00 0.0000e+00 0.0000e+00)
#
# Time      	Cd          	Cs          	Cl          	CmRoll      	CmPitch     	CmYaw       	Cd(f)       	Cd(r)       	Cs(f)       	Cs(r)       	Cl(f)       	Cl(r)       
0.001       	1.7506e-02	-2.2002e-23	3.8477e-02	-1.9239e-02	-2.1111e-02	8.7530e-03	-1.0486e-02	2.7992e-02	8.7530e-03	-8.7530e-03	-1.8724e-03	4.0349e-02
0.002       	8.3962e-01	-7.3916e-21	1.2831e+00	-6.4154e-01	-6.7535e-01	4.1981e-01	-2.2173e-01	1.0613e+00	4.1981e-01	-4.1981e-01	-3.3808e-02	1.3169e+00
0.003       	1.1210e+00	-6.6570e-21	2.4382e+00	-1.2191e+00	-1.3265e+00	5.6048e-01	-6.5861e-01	1.7796e+00	5.6048e-01	-5.6048e-01	-1.0739e-01	2.5456e+00
0.004       	2.2466e-01	9.9283e-22	7.5439e-01	-3.7719e-01	-3.6752e-01	1.1233e-01	-2.6486e-01	4.8952e-01	1.1233e-01	-1.1233e-01	9.6756e-03	7.4471e-01
0.005       	-5.2018e-01	5.7655e-21	-8.8188e-01	4.4094e-01	5.4442e-01	-2.6009e-01	1.8085e-01	-7.0103e-01	-2.6009e-01	2.6009e-01	1.0348e-01	-9.8536e-01
0.006       	-7.3914e-01	4.6097e-21	-1.8818e+00	9.4092e-01	1.1300e+00	-3.6957e-01	5.7136e-01	-1.3105e+00	-3.6957e-01	3.6957e-01	1.8907e-01	-2.0709e+00
0.007       	-1.9407e-01	-6.6652e-22	-7.7088e-01	3.8544e-01	4.2626e-01	-9.7034e-02	2.8841e-01	-4.8248e-01	-9.7034e-02	9.7034e-02	4.0823e-02	-8.1171e-01
0.008       	3.6218e-01	-3.6952e-21	8.0259e-01	-4.0129e-01	-4.8787e-01	1.8109e-01	-2.2020e-01	5.8239e-01	1.8109e-01	-1.8109e-01	-8.6581e-02	8.8917e-01
0.009       	6.9244e-01	-2.7946e-21	2.0888e+00	-1.0444e+00	-1.1656e+00	3.4622e-01	-6.9819e-01	1.3906e+00	3.4622e-01	-3.4622e-01	-1.2114e-01	2.2100e+00
0.01        	3.5252e-01	7.4895e-22	1.3120e+00	-6.5599e-01	-6.6609e-01	1.7626e-01	-4.7973e-01	8.3225e-01	1.7626e-01	-1.7626e-01	-1.0107e-02	1.3221e+00
0.011       	-9.6038e-02	2.7381e-21	-1.4454e-01	7.2272e-02	1.7733e-01	-4.8019e-02	2.4253e-02	-1.2029e-01	-4.8019e-02	4.8019e-02	1.0506e-01	-2.4960e-01
0.012       	-4.7451e-01	2.1517e-21	-1.6087e+00	8.0436e-01	9.5651e-01	-2.3726e-01	5.6710e-01	-1.0416e+00	-2.3726e-01	2.3726e-01	1.5215e-01	-1.7609e+00
0.013       	-3.1653e-01	-3.5766e-22	-1.2240e+00	6.1200e-01	6.6368e-01	-1.5827e-01	4.5373e-01	-7.7026e-01	-1.5827e-01	1.5827e-01	5.1680e-02	-1.2757e+00
0.014       	1.8827e-01	-1.4252e-21	4.4067e-01	-2.2033e-01	-2.4655e-01	9.4136e-02	-1.2620e-01	3.1447e-01	9.4136e-02	-9.4136e-02	-2.6215e-02	4.6688e-01
0.015       	6.0649e-01	-1.0657e-21	1.9629e+00	-9.8145e-01	-1.0367e+00	3.0325e-01	-6.7820e-01	1.2847e+00	3.0325e-01	-3.0325e-01	-5.5213e-02	2.0181e+00
0.016       	4.6682e-01	2.2291e-22	1.6445e+00	-8.2226e-01	-8.2297e-01	2.3341e-01	-5.8885e-01	1.0557e+00	2.3341e-01	-2.3341e-01	-7.0414e-04	1.6452e+00
0.017       	2.4556e-02	9.7672e-22	1.1256e-01	-5.6278e-02	3.3350e-02	1.2278e-02	-4.4000e-02	6.8556e-02	1.2278e-02	-1.2278e-02	8.9629e-02	2.2928e-02
0.018       	-2.8973e-01	8.8587e-22	-1.0744e+00	5.3721e-01	6.6592e-01	-1.4487e-01	3.9234e-01	-6.8207e-01	-1.4487e-01	1.4487e-01	1.2872e-01	-1.2031e+00
0.019       	-1.9511e-01	3.0995e-23	-8.5115e-01	4.2557e-01	4.9580e-01	-9.7555e-02	3.2802e-01	-5.2313e-01	-9.7555e-02	9.7555e-02	7.0229e-02	-9.2138e-01
0.02        	1.6993e-01	-5.0551e-22	4.0469e-01	-2.0234e-01	-2.0827e-01	8.4964e-02	-1.1738e-01	2.8731e-01	8.4964e-02	-8.4964e-02	-5.9265e-03	4.1062e-01
0.021       	2.8214e-01	-5.0972e-22	8.3408e-01	-4.1704e-01	-4.3567e-01	1.4107e-01	-2.7597e-01	5.5811e-01	1.4107e-01	-1.4107e-01	-1.8632e-02	8.5271e-01
0.022       	3.8834e-01	5.7702e-23	1.3203e+00	-6.6013e-01	-6.4608e-01	1.9417e-01	-4.6596e-01	8.5430e-01	1.9417e-01	-1.9417e-01	1.4042e-02	1.3062e+00
0.023       	2.1456e-01	4.9607e-22	7.3556e-01	-3.6778e-01	-2.9316e-01	1.0728e-01	-2.6050e-01	4.7506e-01	1.0728e-01	-1.0728e-01	7.4616e-02	6.6095e-01
0.024       	1.2840e-01	4.7608e-22	4.0481e-01	-2.0241e-01	-1.1946e-01	6.4202e-02	-1.3820e-01	2.6661e-01	6.4202e-02	-6.4202e-02	8.2942e-02	3.2187e-01
0.025       	-1.0047e-01	1.2131e-22	-5.6312e-01	2.8156e-01	3.7384e-01	-5.0236e-02	2.3132e-01	-3.3179e-01	-5.0236e-02	5.0236e-02	9.2282e-02	-6.5540e-01
0.026       	-5.8058e-02	-1.7369e-22	-4.4235e-01	2.2118e-01	2.6841e-01	-2.9029e-02	1.9215e-01	-2.5021e-01	-2.9029e-02	2.9029e-02	4.7239e-02	-4.8959e-01
0.027       	8.0826e-03	-1.5917e-22	-1.7994e-01	8.9970e-02	1.2784e-01	4.0413e-03	9.4012e-02	-8.5929e-02	4.0413e-03	-4.0413e-03	3.7870e-02	-2.1781e-01
0.028       	3.3443e-01	2.4411e-23	1.1189e+00	-5.5943e-01	-5.4029e-01	1.6722e-01	-3.9221e-01	7.2664e-01	1.6722e-01	-1.6722e-01	1.9134e-02	1.0997e+00
0.029       	3.7578e-01	2.2430e-22	1.3362e+00	-6.6809e-01	-6.3933e-01	1.8789e-01	-4.8020e-01	8.5598e-01	1.8789e-01	-1.8789e-01	2.8764e-02	1.3074e+00
0.03        	3.1811e-01	2.1654e-22	1.1031e+00	-5.5157e-01	-5.1794e-01	1.5905e-01	-3.9251e-01	7.1062e-01	1.5905e-01	-1.5905e-01	3.3629e-02	1.0695e+00
0.031       	-2.1274e-02	1.5912e-22	-3.0696e-01	1.5348e-01	2.4484e-01	-1.0637e-02	1.4285e-01	-1.6412e-01	-1.0637e-02	1.0637e-02	9.1360e-02	-3.9832e-01
0.032       	-1.2208e-01	2.8801e-23	-7.4313e-01	3.7157e-01	4.5948e-01	-6.1042e-02	3.1052e-01	-4.3261e-01	-6.1042e-02	6.1042e-02	8.7911e-02	-8.3104e-01
0.033       	-5.9576e-02	1.6632e-23	-4.8318e-01	2.4159e-01	3.2164e-01	-2.9788e-02	2.1180e-01	-2.7138e-01	-2.9788e-02	2.9788e-02	8.0052e-02	-5.6323e-01
0.034       	2.4044e-01	1.0893e-23	7.4347e-01	-3.7173e-01	-3.3873e-01	1.2022e-01	-2.5152e-01	4.9195e-01	1.2022e-01	-1.2022e-01	3.3003e-02	7.1047e-01
0.035       	4.2030e-01	8.3788e-23	1.5118e+00	-7.5588e-01	-7.5424e-01	2.1015e-01	-5.4573e-01	9.6603e-01	2.1015e-01	-2.1015e-01	1.6421e-03	1.5101e+00
0.036       	3.5010e-01	1.1454e-22	1.2311e+00	-6.1557e-01	-6.0874e-01	1.7505e-01	-4.4052e-01	7.9062e-01	1.7505e-01	-1.7505e-01	6.8339e-03	1.2243e+00
0.037       	1.4581e-01	1.6519e-22	3.3723e-01	-1.6861e-01	-1.1807e-01	7.2907e-02	-9.5706e-02	2.4152e-01	7.2907e-02	-7.2907e-02	5.0548e-02	2.8668e-01
0.038       	3.6885e-02	1.6825e-22	-1.4608e-01	7.3040e-02	1.5131e-01	1.8443e-02	9.1482e-02	-5.4597e-02	1.8443e-02	-1.8443e-02	7.8268e-02	-2.2435e-01
0.039       	-2.6465e-02	1.0348e-22	-4.1286e-01	2.0643e-01	3.0773e-01	-1.3233e-02	1.9320e-01	-2.1966e-01	-1.3233e-02	1.3233e-02	1.0129e-01	-5.1416e-01
0.04        	4.0157e-02	8.7048e-23	-1.2808e-01	6.4042e-02	1.5875e-01	2.0078e-02	8.4121e-02	-4.3964e-02	2.0078e-02	-2.0078e-02	9.4713e-02	-2.2280e-01
0.041       	1.5767e-01	6.6321e-23	3.9497e-01	-1.9748e-01	-1.3232e-01	7.8833e-02	-1.1865e-01	2.7632e-01	7.8833e-02	-7.8833e-02	6.5160e-02	3.2981e-01
0.042       	2.5031e-01	5.6459e-23	8.0977e-01	-4.0488e-01	-3.7368e-01	1.2516e-01	-2.7973e-01	5.3004e-01	1.2516e-01	-1.2516e-01	3.1202e-02	7.7857e-01
0.043       	3.0377e-01	6.3859e-23	1.0229e+00	-5.1147e-01	-5.0784e-01	1.5188e-01	-3.5959e-01	6.6335e-01	1.5188e-01	-1.5188e-01	3.6293e-03	1.0193e+00
0.044       	2.7676e-01	1.0110e-22	8.7575e-01	-4.3788e-01	-4.3041e-01	1.3838e-01	-2.9950e-01	5.7626e-01	1.3838e-01	-1.3838e-01	7.4658e-03	8.6829e-01
0.045       	2.0755e-01	1.3008e-22	5.3550e-01	-2.6775e-01	-2.3209e-01	1.0378e-01	-1.6398e-01	3.7153e-01	1.0378e-01	-1.0378e-01	3.5657e-02	4.9985e-01
0.046       	1.5593e-01	1.3501e-22	2.9423e-01	-1.4711e-01	-8.6735e-02	7.7964e-02	-6.9149e-02	2.2508e-01	7.7964e-02	-7.7964e-02	6.0378e-02	2.3385e-01
0.047       	1.1913e-01	1.4241e-22	1.4461e-01	-7.2307e-02	5.2912e-03	5.9564e-02	-1.2743e-02	1.3187e-01	5.9564e-02	-5.9564e-02	7.7598e-02	6.7016e-02
0.048       	7.3160e-02	1.1440e-22	3.0092e-03	-1.5046e-03	9.0682e-02	3.6580e-02	3.5075e-02	3.8085e-02	3.6580e-02	-3.6580e-02	9.2187e-02	-8.9178e-02
0.049       	9.1282e-02	9.0126e-23	1.2039e-01	-6.0193e-02	2.1202e-02	4.5641e-02	-1.4552e-02	1.0583e-01	4.5641e-02	-4.5641e-02	8.1395e-02	3.8990e-02
0.05        	1.3272e-01	8.1363e-23	3.0349e-01	-1.5174e-01	-8.8137e-02	6.6359e-02	-8.5384e-02	2.1810e-01	6.6359e-02	-6.6359e-02	6.3606e-02	2.3988e-01
0.051       	1.5898e-01	7.9587e-23	4.0900e-01	-2.0450e-01	-1.5294e-01	7.9488e-02	-1.2501e-01	2.8399e-01	7.9488e-02	-7.9488e-02	5.1557e-02	3.5744e-01
0.052       	2.1982e-01	8.0480e-23	6.2105e-01	-3.1053e-01	-2.8336e-01	1.0991e-01	-2.0062e-01	4.2044e-01	1.0991e-01	-1.0991e-01	2.7166e-02	5.9389e-01
0.053       	2.5835e-01	9.2739e-23	7.2602e-01	-3.6301e-01	-3.4744e-01	1.2917e-01	-2.3383e-01	4.9218e-01	1.2917e-01	-1.2917e-01	1.5569e-02	7.1045e-01
0.054       	2.3091e-01	1.0746e-22	5.9884e-01	-2.9942e-01	-2.7096e-01	1.1545e-01	-1.8397e-01	4.1487e-01	1.1545e-01	-1.1545e-01	2.8457e-02	5.7038e-01
0.055       	2.0137e-01	1.1197e-22	4.8293e-01	-2.4147e-01	-1.9886e-01	1.0069e-01	-1.4078e-01	3.4215e-01	1.0069e-01	-1.0069e-01	4.2602e-02	4.4033e-01
0.056       	1.6077e-01	1.1492e-22	3.3586e-01	-1.6793e-01	-1.0544e-01	8.0385e-02	-8.7546e-02	2.4832e-01	8.0385e-02	-8.0385e-02	6.2488e-02	2.7337e-01
0.057       	8.7425e-02	1.1115e-22	8.8070e-02	-4.4035e-02	4.8442e-02	4.3712e-02	-3.2278e-04	8.7747e-02	4.3712e-02	-4.3712e-02	9.2477e-02	-4.4067e-03
0.058       	4.9330e-02	9.8821e-23	-2.5953e-02	1.2976e-02	1.1745e-01	2.4665e-02	3.7641e-02	1.1689e-02	2.4665e-02	-2.4665e-02	1.0448e-01	-1.3043e-01
0.059       	7.3311e-02	9.3751e-23	7.2301e-02	-3.6151e-02	5.8253e-02	3.6655e-02	5.0472e-04	7.2806e-02	3.6655e-02	-3.6655e-02	9.4403e-02	-2.2102e-02
0.06        	1.0353e-01	9.1747e-23	1.8334e-01	-9.1669e-02	-1.1732e-02	5.1767e-02	-3.9902e-02	1.4344e-01	5.1767e-02	-5.1767e-02	7.9937e-02	1.0340e-01
0.061       	1.4671e-01	9.0282e-23	3.3402e-01	-1.6701e-01	-1.0822e-01	7.3356e-02	-9.3656e-02	2.4037e-01	7.3356e-02	-7.3356e-02	5.8796e-02	2.7523e-01
0.062       	1.9476e-01	9.1877e-23	4.9305e-01	-2.4653e-01	-2.0872e-01	9.7380e-02	-1.4915e-01	3.4390e-01	9.7380e-02	-9.7380e-02	3.7804e-02	4.5525e-01
0.063       	2.2263e-01	9.5938e-23	5.7464e-01	-2.8732e-01	-2.5841e-01	1.1132e-01	-1.7600e-01	3.9864e-01	1.1132e-01	-1.1132e-01	2.8912e-02	5.4573e-01
0.064       	2.1175e-01	1.0044e-22	5.2131e-01	-2.6065e-01	-2.2369e-01	1.0587e-01	-1.5478e-01	3.6653e-01	1.0587e-01	-1.0587e-01	3.6963e-02	4.8434e-01
0.065       	1.8133e-01	1.0091e-22	4.0678e-01	-2.0339e-01	-1.4966e-01	9.0664e-02	-1.1273e-01	2.9405e-01	9.0664e-02	-9.0664e-02	5.3734e-02	3.5305e-01
0.066       	1.4828e-01	1.0544e-22	2.9019e-01	-1.4509e-01	-7.3194e-02	7.4140e-02	-7.0954e-02	2.1923e-01	7.4140e-02	-7.4140e-02	7.1899e-02	2.1829e-01
0.067       	1.1532e-01	1.0899e-22	1.7946e-01	-8.9731e-02	-1.1176e-03	5.7661e-02	-3.2071e-02	1.4739e-01	5.7661e-02	-5.7661e-02	8.8614e-02	9.0849e-02
0.068       	9.1790e-02	1.1089e-22	1.0505e-01	-5.2524e-02	4.5781e-02	4.5895e-02	-6.6287e-03	9.8419e-02	4.5895e-02	-4.5895e-02	9.8304e-02	6.7430e-03
0.069       	7.2406e-02	1.0811e-22	4.9764e-02	-2.4882e-02	7.6552e-02	3.6203e-02	1.1321e-02	6.1085e-02	3.6203e-02	-3.6203e-02	1.0143e-01	-5.1670e-02
0.07        	7.0532e-02	1.0149e-22	5.8937e-02	-2.9469e-02	6.2300e-02	3.5266e-02	5.7977e-03	6.4735e-02	3.5266e-02	-3.5266e-02	9.1768e-02	-3.2831e-02
0.071       	9.0342e-02	9.5117e-23	1.3536e-01	-6.7681e-02	8.5143e-03	4.5171e-02	-2.2511e-02	1.1285e-01	4.5171e-02	-4.5171e-02	7.6196e-02	5.9167e-02
0.072       	1.0925e-01	9.1988e-23	2.0133e-01	-1.0067e-01	-3.4841e-02	5.4625e-02	-4.6041e-02	1.5529e-01	5.4625e-02	-5.4625e-02	6.5826e-02	1.3551e-01
0.073       	1.2242e-01	9.1555e-23	2.4531e-01	-1.2266e-01	-6.1946e-02	6.1212e-02	-6.1444e-02	1.8387e-01	6.1212e-02	-6.1212e-02	6.0711e-02	1.8460e-01
0.074       	1.3371e-01	9.1902e-23	2.8170e-01	-1.4085e-01	-8.2849e-02	6.6855e-02	-7.3998e-02	2.0771e-01	6.6855e-02	-6.6855e-02	5.8003e-02	2.2370e-01
0.075       	1.4671e-01	9.2984e-23	3.2156e-01	-1.6078e-01	-1.0411e-01	7.3357e-02	-8.7422e-02	2.3413e-01	7.3357e-02	-7.3357e-02	5.6665e-02	2.6489e-01
0.076       	1.6291e-01	9.5747e-23	3.6921e-01	-1.8461e-01	-1.2733e-01	8.1456e-02	-1.0315e-01	2.6606e-01	8.1456e-02	-8.1456e-02	5.7278e-02	3.1194e-01
0.077       	1.7940e-01	1.0194e-22	4.1638e-01	-2.0819e-01	-1.4673e-01	8.9699e-02	-1.1849e-01	2.9789e-01	8.9699e-02	-8.9699e-02	6.1458e-02	3.5492e-01
0.078       	1.8615e-01	1.0825e-22	4.3299e-01	-2.1650e-01	-1.4953e-01	9.3074e-02	-1.2342e-01	3.0957e-01	9.3074e-02	-9.3074e-02	6.6966e-02	3.6603e-01
0.079       	1.8372e-01	1.1274e-22	4.2171e-01	-2.1086e-01	-1.4037e-01	9.1861e-02	-1.1900e-01	3.0272e-01	9.1861e-02	-9.1861e-02	7.0488e-02	3.5123e-01
0.08        	1.7871e-01	1.1551e-22	4.0341e-01	-2.0171e-01	-1.2991e-01	8.9356e-02	-1.1235e-01	2.9106e-01	8.9356e-02	-8.9356e-02	7.1791e-02	3.3162e-01
0.081       	1.7435e-01	1.1902e-22	3.8730e-01	-1.9365e-01	-1.2224e-01	8.7177e-02	-1.0647e-01	2.8083e-01	8.7177e-02	-8.7177e-02	7.1414e-02	3.1589e-01
0.082       	1.6996e-01	1.1980e-22	3.7019e-01	-1.8509e-01	-1.1552e-01	8.4981e-02	-1.0011e-01	2.7008e-01	8.4981e-02	-8.4981e-02	6.9570e-02	3.0062e-01
0.083       	1.6468e-01	1.1697e-22	3.4899e-01	-1.7450e-01	-1.0852e-01	8.2338e-02	-9.2157e-02	2.5683e-01	8.2338e-02	-8.2338e-02	6.5971e-02	2.8302e-01
0.084       	1.5978e-01	1.2717e-22	3.2734e-01	-1.6367e-01	-1.0331e-01	7.9888e-02	-8.3784e-02	2.4356e-01	7.9888e-02	-7.9888e-02	6.0367e-02	2.6698e-01
0.085       	1.5817e-01	1.2595e-22	3.1552e-01	-1.5776e-01	-1.0317e-01	7.9087e-02	-7.8675e-02	2.3685e-01	7.9087e-02	-7.9087e-02	5.4596e-02	2.6093e-01
0.086       	1.6143e-01	1.1220e-22	3.1958e-01	-1.5979e-01	-1.0975e-01	8.0714e-02	-7.9074e-02	2.4050e-01	8.0714e-02	-8.0714e-02	5.0040e-02	2.6954e-01
0.087       	1.6709e-01	1.1765e-22	3.3490e-01	-1.6745e-01	-1.1870e-01	8.3543e-02	-8.3905e-02	2.5099e-01	8.3543e-02	-8.3543e-02	4.8749e-02	2.8615e-01
0.088       	1.7300e-01	1.1857e-22	3.5363e-01	-1.7681e-01	-1.2737e-01	8.6501e-02	-9.0312e-02	2.6331e-01	8.6501e-02	-8.6501e-02	4.9446e-02	3.0418e-01
0.089       	1.7942e-01	1.1880e-22	3.7634e-01	-1.8817e-01	-1.3657e-01	8.9711e-02	-9.8460e-02	2.7788e-01	8.9711e-02	-8.9711e-02	5.1602e-02	3.2474e-01
0.09        	1.8661e-01	1.1880e-22	4.0395e-01	-2.0198e-01	-1.4714e-01	9.3306e-02	-1.0867e-01	2.9528e-01	9.3306e-02	-9.3306e-02	5.4835e-02	3.4912e-01
0.091       	1.9285e-01	1.1842e-22	4.3063e-01	-2.1532e-01	-1.5690e-01	9.6425e-02	-1.1889e-01	3.1174e-01	9.6425e-02	-9.6425e-02	5.8412e-02	3.7222e-01
0.092       	1.9634e-01	1.2157e-22	4.5144e-01	-2.2572e-01	-1.6389e-01	9.8171e-02	-1.2755e-01	3.2389e-01	9.8171e-02	-9.8171e-02	6.1830e-02	3.8961e-01
0.093       	1.9482e-01	1.2318e-22	4.5729e-01	-2.2865e-01	-1.6437e-01	9.7411e-02	-1.3124e-01	3.2606e-01	9.7411e-02	-9.7411e-02	6.4275e-02	3.9302e-01
0.094       	1.8854e-01	1.2140e-22	4.4884e-01	-2.2442e-01	-1.5848e-01	9.4271e-02	-1.3015e-01	3.1869e-01	9.4271e-02	-9.4271e-02	6.5942e-02	3.8290e-01
0.095       	1.8078e-01	1.2212e-22	4.3326e-01	-2.1663e-01	-1.4944e-01	9.0389e-02	-1.2624e-01	3.0702e-01	9.0389e-02	-9.0389e-02	6.7190e-02	3.6607e-01
0.096       	1.7127e-01	1.3089e-22	4.1230e-01	-2.0615e-01	-1.3631e-01	8.5633e-02	-1.2052e-01	2.9178e-01	8.5633e-02	-8.5633e-02	6.9845e-02	3.4246e-01
0.097       	1.6168e-01	1.3944e-22	3.9016e-01	-1.9508e-01	-1.2008e-01	8.0839e-02	-1.1424e-01	2.7592e-01	8.0839e-02	-8.0839e-02	7.4999e-02	3.1516e-01
0.098       	1.5588e-01	1.4635e-22	3.7530e-01	-1.8765e-01	-1.0852e-01	7.7942e-02	-1.0971e-01	2.6559e-01	7.7942e-02	-7.7942e-02	7.9134e-02	2.9616e-01
0.099       	1.5151e-01	1.4342e-22	3.6247e-01	-1.8123e-01	-9.9026e-02	7.5755e-02	-1.0548e-01	2.5699e-01	7.5755e-02	-7.5755e-02	8.2208e-02	2.8026e-01
0.1         	1.4951e-01	1.4066e-22	3.5407e-01	-1.7703e-01	-9.2900e-02	7.4755e-02	-1.0228e-01	2.5179e-01	7.4755e-02	-7.4755e-02	8.4132e-02	2.6993e-01
0.101       	1.5075e-01	1.3744e-22	3.5245e-01	-1.7623e-01	-9.1576e-02	7.5377e-02	-1.0085e-01	2.5160e-01	7.5377e-02	-7.5377e-02	8.4650e-02	2.6780e-01
0.102       	1.5591e-01	1.4293e-22	3.5982e-01	-1.7991e-01	-9.6711e-02	7.7956e-02	-1.0196e-01	2.5787e-01	7.7956e-02	-7.7956e-02	8.3200e-02	2.7662e-01
0.103       	1.6327e-01	1.3627e-22	3.7390e-01	-1.8695e-01	-1.0575e-01	8.1634e-02	-1.0532e-01	2.6858e-01	8.1634e-02	-8.1634e-02	8.1204e-02	2.9270e-01
0.104       	1.7038e-01	1.3317e-22	3.8838e-01	-1.9419e-01	-1.1474e-01	8.5188e-02	-1.0900e-01	2.7938e-01	8.5188e-02	-8.5188e-02	7.9447e-02	3.0894e-01
0.105       	1.7589e-01	1.2977e-22	3.9990e-01	-1.9995e-01	-1.2103e-01	8.7945e-02	-1.1201e-01	2.8790e-01	8.7945e-02	-8.7945e-02	7.8921e-02	3.2098e-01
0.106       	1.7982e-01	1.2395e-22	4.0816e-01	-2.0408e-01	-1.2418e-01	8.9909e-02	-1.1417e-01	2.9399e-01	8.9909e-02	-8.9909e-02	7.9898e-02	3.2826e-01
0.107       	1.8146e-01	1.2182e-22	4.1141e-01	-2.0571e-01	-1.2297e-01	9.0732e-02	-1.1497e-01	2.9644e-01	9.0732e-02	-9.0732e-02	8.2736e-02	3.2868e-01
0.108       	1.8029e-01	1.2146e-22	4.0800e-01	-2.0400e-01	-1.1702e-01	9.0144e-02	-1.1386e-01	2.9414e-01	9.0144e-02	-9.0144e-02	8.6976e-02	3.2103e-01
0.109       	1.7652e-01	1.2556e-22	3.9906e-01	-1.9953e-01	-1.0725e-01	8.8262e-02	-1.1127e-01	2.8779e-01	8.8262e-02	-8.8262e-02	9.2278e-02	3.0679e-01
0.11        	1.7162e-01	1.2824e-22	3.8843e-01	-1.9421e-01	-9.7402e-02	8.5808e-02	-1.0841e-01	2.8002e-01	8.5808e-02	-8.5808e-02	9.6812e-02	2.9162e-01
0.111       	1.6712e-01	1.3030e-22	3.8046e-01	-1.9023e-01	-9.0545e-02	8.3562e-02	-1.0667e-01	2.7379e-01	8.3562e-02	-8.3562e-02	9.9686e-02	2.8077e-01
0.112       	1.6340e-01	1.2794e-22	3.7599e-01	-1.8799e-01	-8.7464e-02	8.1702e-02	-1.0629e-01	2.6970e-01	8.1702e-02	-8.1702e-02	1.0053e-01	2.7546e-01
0.113       	1.6126e-01	1.2694e-22	3.7684e-01	-1.8842e-01	-8.9362e-02	8.0630e-02	-1.0779e-01	2.6905e-01	8.0630e-02	-8.0630e-02	9.9059e-02	2.7778e-01
0.114       	1.6120e-01	1.2572e-22	3.8357e-01	-1.9179e-01	-9.6650e-02	8.0598e-02	-1.1119e-01	2.7238e-01	8.0598e-02	-8.0598e-02	9.5136e-02	2.8844e-01
0.115       	1.6370e-01	1.2506e-22	3.9619e-01	-1.9809e-01	-1.0892e-01	8.1851e-02	-1.1624e-01	2.7995e-01	8.1851e-02	-8.1851e-02	8.9175e-02	3.0701e-01
0.116       	1.6960e-01	1.2550e-22	4.1709e-01	-2.0855e-01	-1.2812e-01	8.4801e-02	-1.2375e-01	2.9335e-01	8.4801e-02	-8.4801e-02	8.0428e-02	3.3667e-01
0.117       	1.7898e-01	1.2878e-22	4.4596e-01	-2.2298e-01	-1.5326e-01	8.9489e-02	-1.3349e-01	3.1247e-01	8.9489e-02	-8.9489e-02	6.9722e-02	3.7624e-01
0.118       	1.8994e-01	1.2874e-22	4.7668e-01	-2.3834e-01	-1.7921e-01	9.4972e-02	-1.4337e-01	3.3331e-01	9.4972e-02	-9.4972e-02	5.9133e-02	4.1755e-01
0.119       	2.0028e-01	1.3456e-22	5.0369e-01	-2.5184e-01	-2.0126e-01	1.0014e-01	-1.5170e-01	3.5198e-01	1.0014e-01	-1.0014e-01	5.0583e-02	4.5310e-01
0.12        	2.0968e-01	1.3626e-22	5.2685e-01	-2.6343e-01	-2.1947e-01	1.0484e-01	-1.5858e-01	3.6827e-01	1.0484e-01	-1.0484e-01	4.3951e-02	4.8290e-01
0.121       	2.2070e-01	1.3699e-22	5.5285e-01	-2.7643e-01	-2.3866e-01	1.1035e-01	-1.6608e-01	3.8677e-01	1.1035e-01	-1.1035e-01	3.7767e-02	5.1508e-01
0.122       	2.3784e-01	1.3626e-22	5.9273e-01	-2.9637e-01	-2.6571e-01	1.1892e-01	-1.7745e-01	4.1529e-01	1.1892e-01	-1.1892e-01	3.0657e-02	5.6208e-01
0.123       	2.5584e-01	1.4204e-22	6.3411e-01	-3.1706e-01	-2.9192e-01	1.2792e-01	-1.8914e-01	4.4498e-01	1.2792e-01	-1.2792e-01	2.5136e-02	6.0898e-01
0.124       	2.7396e-01	1.5038e-22	6.7691e-01	-3.3846e-01	-3.1683e-01	1.3698e-01	-2.0148e-01	4.7544e-01	1.3698e-01	-1.3698e-01	2.1622e-02	6.5529e-01
0.125       	2.8753e-01	1.5267e-22	7.0986e-01	-3.5493e-01	-3.3470e-01	1.4377e-01	-2.1116e-01	4.9870e-01	1.4377e-01	-1.4377e-01	2.0229e-02	6.8963e-01
0.126       	2.9839e-01	1.6018e-22	7.3749e-01	-3.6875e-01	-3.4858e-01	1.4920e-01	-2.1955e-01	5.1794e-01	1.4920e-01	-1.4920e-01	2.0163e-02	7.1733e-01
0.127       	3.0740e-01	1.6180e-22	7.6111e-01	-3.8056e-01	-3.5997e-01	1.5370e-01	-2.2685e-01	5.3426e-01	1.5370e-01	-1.5370e-01	2.0584e-02	7.4053e-01
0.128       	3.1321e-01	1.6299e-22	7.7699e-01	-3.8849e-01	-3.6707e-01	1.5660e-01	-2.3189e-01	5.4510e-01	1.5660e-01	-1.5660e-01	2.1430e-02	7.5556e-01
0.129       	3.1619e-01	1.5908e-22	7.8649e-01	-3.9325e-01	-3.7060e-01	1.5810e-01	-2.3515e-01	5.5134e-01	1.5810e-01	-1.5810e-01	2.2650e-02	7.6384e-01
0.13        	3.1531e-01	1.5588e-22	7.8624e-01	-3.9312e-01	-3.6921e-01	1.5765e-01	-2.3547e-01	5.5077e-01	1.5765e-01	-1.5765e-01	2.3908e-02	7.6233e-01
0.131       	3.1193e-01	1.5236e-22	7.8043e-01	-3.9021e-01	-3.6486e-01	1.5597e-01	-2.3425e-01	5.4618e-01	1.5597e-01	-1.5597e-01	2.5351e-02	7.5507e-01
0.132       	3.0596e-01	1.4784e-22	7.6805e-01	-3.8403e-01	-3.5746e-01	1.5298e-01	-2.3105e-01	5.3700e-01	1.5298e-01	-1.5298e-01	2.6561e-02	7.4149e-01
0.133       	2.9743e-01	1.4686e-22	7.5027e-01	-3.7514e-01	-3.4768e-01	1.4872e-01	-2.2642e-01	5.2385e-01	1.4872e-01	-1.4872e-01	2.7454e-02	7.2282e-01
0.134       	2.8974e-01	1.3870e-22	7.3371e-01	-3.6686e-01	-3.3941e-01	1.4487e-01	-2.2199e-01	5.1173e-01	1.4487e-01	-1.4487e-01	2.7445e-02	7.0627e-01
0.135       	2.8599e-01	1.4601e-22	7.2581e-01	-3.6290e-01	-3.3589e-01	1.4299e-01	-2.1991e-01	5.0590e-01	1.4299e-01	-1.4299e-01	2.7011e-02	6.9880e-01
0.136       	2.8533e-01	1.4559e-22	7.2385e-01	-3.6192e-01	-3.3552e-01	1.4267e-01	-2.1926e-01	5.0459e-01	1.4267e-01	-1.4267e-01	2.6401e-02	6.9745e-01
0.137       	2.8628e-01	1.4560e-22	7.2465e-01	-3.6232e-01	-3.3644e-01	1.4314e-01	-2.1919e-01	5.0546e-01	1.4314e-01	-1.4314e-01	2.5887e-02	6.9876e-01
0.138       	2.8817e-01	1.4808e-22	7.2598e-01	-3.6299e-01	-3.3716e-01	1.4409e-01	-2.1890e-01	5.0708e-01	1.4409e-01	-1.4409e-01	2.5834e-02	7.0015e-01
0.139       	2.8962e-01	1.4669e-22	7.2458e-01	-3.6229e-01	-3.3565e-01	1.4481e-01	-2.1748e-01	5.0710e-01	1.4481e-01	-1.4481e-01	2.6646e-02	6.9794e-01
0.14        	2.8935e-01	1.4345e-22	7.2207e-01	-3.6103e-01	-3.3385e-01	1.4467e-01	-2.1636e-01	5.0571e-01	1.4467e-01	-1.4467e-01	2.7184e-02	6.9488e-01
0.141       	2.8662e-01	1.4521e-22	7.0814e-01	-3.5407e-01	-3.2454e-01	1.4331e-01	-2.1076e-01	4.9738e-01	1.4331e-01	-1.4331e-01	2.9529e-02	6.7861e-01
0.142       	2.8210e-01	1.4326e-22	6.8906e-01	-3.4453e-01	-3.1192e-01	1.4105e-01	-2.0348e-01	4.8558e-01	1.4105e-01	-1.4105e-01	3.2612e-02	6.5645e-01
0.143       	2.7602e-01	1.4339e-22	6.6557e-01	-3.3278e-01	-2.9663e-01	1.3801e-01	-1.9477e-01	4.7079e-01	1.3801e-01	-1.3801e-01	3.6156e-02	6.2941e-01
0.144       	2.7343e-01	1.4031e-22	6.5692e-01	-3.2846e-01	-2.9137e-01	1.3672e-01	-1.9174e-01	4.6518e-01	1.3672e-01	-1.3672e-01	3.7092e-02	6.1983e-01
0.145       	2.6359e-01	1.3993e-22	6.2675e-01	-3.1337e-01	-2.7215e-01	1.3180e-01	-1.8158e-01	4.4517e-01	1.3180e-01	-1.3180e-01	4.1219e-02	5.8553e-01
0.146       	2.5437e-01	1.3744e-22	6.0002e-01	-3.0001e-01	-2.5428e-01	1.2719e-01	-1.7282e-01	4.2720e-01	1.2719e-01	-1.2719e-01	4.5728e-02	5.5429e-01
0.147       	2.4678e-01	1.3584e-22	5.7762e-01	-2.8881e-01	-2.3885e-01	1.2339e-01	-1.6542e-01	4.1220e-01	1.2339e-01	-1.2339e-01	4.9963e-02	5.2766e-01
0.148       	2.4539e-01	1.3649e-22	5.7347e-01	-2.8674e-01	-2.3561e-01	1.2270e-01	-1.6404e-01	4.0943e-01	1.2270e-01	-1.2270e-01	5.1127e-02	5.2235e-01
0.149       	2.3931e-01	1.4139e-22	5.5405e-01	-2.7703e-01	-2.2169e-01	1.1965e-01	-1.5737e-01	3.9668e-01	1.1965e-01	-1.1965e-01	5.5336e-02	4.9872e-01
0.15        	2.3092e-01	1.4390e-22	5.2644e-01	-2.6322e-01	-2.0260e-01	1.1546e-01	-1.4776e-01	3.7868e-01	1.1546e-01	-1.1546e-01	6.0618e-02	4.6582e-01
0.151       	2.1961e-01	1.4464e-22	4.8799e-01	-2.4400e-01	-1.7803e-01	1.0981e-01	-1.3419e-01	3.5380e-01	1.0981e-01	-1.0981e-01	6.5965e-02	4.2203e-01
0.152       	2.0470e-01	1.4268e-22	4.3833e-01	-2.1916e-01	-1.4672e-01	1.0235e-01	-1.1681e-01	3.2151e-01	1.0235e-01	-1.0235e-01	7.2447e-02	3.6588e-01
0.153       	2.0060e-01	1.4353e-22	4.2481e-01	-2.1240e-01	-1.3833e-01	1.0030e-01	-1.1211e-01	3.1270e-01	1.0030e-01	-1.0030e-01	7.4069e-02	3.5074e-01
0.154       	1.8203e-01	1.4174e-22	3.6560e-01	-1.8280e-01	-1.0206e-01	9.1015e-02	-9.1788e-02	2.7382e-01	9.1015e-02	-9.1015e-02	8.0744e-02	2.8486e-01
0.155       	1.6240e-01	1.3541e-22	3.0512e-01	-1.5256e-01	-6.5075e-02	8.1201e-02	-7.1360e-02	2.3376e-01	8.1201e-02	-8.1201e-02	8.7487e-02	2.1764e-01
0.156       	1.4715e-01	1.3534e-22	2.6114e-01	-1.3057e-01	-3.7180e-02	7.3573e-02	-5.6998e-02	2.0414e-01	7.3573e-02	-7.3573e-02	9.3390e-02	1.6775e-01
0.157       	1.3729e-01	1.3181e-22	2.3448e-01	-1.1724e-01	-1.9231e-02	6.8647e-02	-4.8596e-02	1.8589e-01	6.8647e-02	-6.8647e-02	9.8012e-02	1.3647e-01
0.158       	1.3241e-01	1.3451e-22	2.2327e-01	-1.1164e-01	-9.9740e-03	6.6206e-02	-4.5431e-02	1.7784e-01	6.6206e-02	-6.6206e-02	1.0166e-01	1.2161e-01
0.159       	1.3032e-01	1.3357e-22	2.1998e-01	-1.0999e-01	-5.3897e-03	6.5160e-02	-4.4831e-02	1.7515e-01	6.5160e-02	-6.5160e-02	1.0460e-01	1.1538e-01
0.16        	1.2951e-01	1.3839e-22	2.2131e-01	-1.1065e-01	-2.6737e-03	6.4755e-02	-4.5899e-02	1.7541e-01	6.4755e-02	-6.4755e-02	1.0798e-01	1.1333e-01
0.161       	1.2814e-01	1.3910e-22	2.2159e-01	-1.1080e-01	1.1825e-03	6.4072e-02	-4.6724e-02	1.7487e-01	6.4072e-02	-6.4072e-02	1.1198e-01	1.0961e-01
0.162       	1.2541e-01	1.4138e-22	2.1916e-01	-1.0958e-01	7.4730e-03	6.2703e-02	-4.6875e-02	1.7228e-01	6.2703e-02	-6.2703e-02	1.1705e-01	1.0210e-01
0.163       	1.2115e-01	1.4525e-22	2.1079e-01	-1.0540e-01	1.6135e-02	6.0575e-02	-4.4821e-02	1.6597e-01	6.0575e-02	-6.0575e-02	1.2153e-01	8.9261e-02
0.164       	1.1674e-01	1.5137e-22	2.0117e-01	-1.0059e-01	2.4977e-02	5.8370e-02	-4.2216e-02	1.5895e-01	5.8370e-02	-5.8370e-02	1.2556e-01	7.5608e-02
0.165       	1.1362e-01	1.5605e-22	1.9296e-01	-9.6482e-02	3.1101e-02	5.6808e-02	-3.9675e-02	1.5329e-01	5.6808e-02	-5.6808e-02	1.2758e-01	6.5381e-02
0.166       	1.1105e-01	1.5709e-22	1.8564e-01	-9.2818e-02	3.6018e-02	5.5524e-02	-3.7294e-02	1.4834e-01	5.5524e-02	-5.5524e-02	1.2884e-01	5.6799e-02
0.167       	1.0787e-01	1.6015e-22	1.7696e-01	-8.8481e-02	4.1312e-02	5.3934e-02	-3.4547e-02	1.4242e-01	5.3934e-02	-5.3934e-02	1.2979e-01	4.7169e-02
0.168       	1.0465e-01	1.5912e-22	1.6861e-01	-8.4306e-02	4.5942e-02	5.2326e-02	-3.1981e-02	1.3663e-01	5.2326e-02	-5.2326e-02	1.3025e-01	3.8364e-02
0.169       	1.0125e-01	1.5935e-22	1.5970e-01	-7.9850e-02	4.9605e-02	5.0626e-02	-2.9223e-02	1.3048e-01	5.0626e-02	-5.0626e-02	1.2945e-01	3.0245e-02
0.17        	9.9837e-02	1.5573e-22	1.5656e-01	-7.8278e-02	4.9622e-02	4.9919e-02	-2.8359e-02	1.2820e-01	4.9919e-02	-4.9919e-02	1.2790e-01	2.8656e-02
0.171       	9.9849e-02	1.5441e-22	1.5783e-01	-7.8913e-02	4.6499e-02	4.9925e-02	-2.8988e-02	1.2884e-01	4.9925e-02	-4.9925e-02	1.2541e-01	3.2414e-02
0.172       	1.0183e-01	1.5044e-22	1.6576e-01	-8.2878e-02	3.9269e-02	5.0914e-02	-3.1964e-02	1.3379e-01	5.0914e-02	-5.0914e-02	1.2215e-01	4.3608e-02
0.173       	1.0509e-01	1.5128e-22	1.7845e-01	-8.9225e-02	2.9571e-02	5.2545e-02	-3.6680e-02	1.4177e-01	5.2545e-02	-5.2545e-02	1.1880e-01	5.9654e-02
0.174       	1.0856e-01	1.5448e-22	1.9247e-01	-9.6237e-02	1.9938e-02	5.4278e-02	-4.1959e-02	1.5051e-01	5.4278e-02	-5.4278e-02	1.1617e-01	7.6299e-02
0.175       	1.1169e-01	1.5743e-22	2.0582e-01	-1.0291e-01	1.1463e-02	5.5844e-02	-4.7068e-02	1.5876e-01	5.5844e-02	-5.5844e-02	1.1437e-01	9.1449e-02
0.176       	1.1469e-01	1.5800e-22	2.1882e-01	-1.0941e-01	3.8323e-03	5.7345e-02	-5.2065e-02	1.6675e-01	5.7345e-02	-5.7345e-02	1.1324e-01	1.0558e-01
0.177       	1.1986e-01	1.5749e-22	2.3928e-01	-1.1964e-01	-7.7386e-03	5.9931e-02	-5.9711e-02	1.7957e-01	5.9931e-02	-5.9931e-02	1.1190e-01	1.2738e-01
0.178       	1.2770e-01	1.5955e-22	2.6724e-01	-1.3362e-01	-2.3441e-02	6.3850e-02	-6.9769e-02	1.9747e-01	6.3850e-02	-6.3850e-02	1.1018e-01	1.5706e-01
0.179       	1.3886e-01	1.5814e-22	3.0403e-01	-1.5201e-01	-4.4666e-02	6.9429e-02	-8.2585e-02	2.2144e-01	6.9429e-02	-6.9429e-02	1.0735e-01	1.9668e-01
0.18        	1.5196e-01	1.5823e-22	3.4458e-01	-1.7229e-01	-6.8629e-02	7.5982e-02	-9.6307e-02	2.4827e-01	7.5982e-02	-7.5982e-02	1.0366e-01	2.4092e-01
0.181       	1.6643e-01	1.6414e-22	3.8767e-01	-1.9384e-01	-9.4791e-02	8.3213e-02	-1.1062e-01	2.7705e-01	8.3213e-02	-8.3213e-02	9.9045e-02	2.8863e-01
0.182       	1.7949e-01	1.6534e-22	4.2558e-01	-2.1279e-01	-1.1837e-01	8.9743e-02	-1.2305e-01	3.0253e-01	8.9743e-02	-8.9743e-02	9.4418e-02	3.3116e-01
0.183       	1.8985e-01	1.6734e-22	4.5518e-01	-2.2759e-01	-1.3764e-01	9.4927e-02	-1.3266e-01	3.2252e-01	9.4927e-02	-9.4927e-02	8.9949e-02	3.6523e-01
0.184       	1.9642e-01	1.6427e-22	4.7424e-01	-2.3712e-01	-1.5059e-01	9.8208e-02	-1.3891e-01	3.3533e-01	9.8208e-02	-9.8208e-02	8.6528e-02	3.8771e-01
0.185       	1.9834e-01	1.6340e-22	4.8072e-01	-2.4036e-01	-1.5567e-01	9.9172e-02	-1.4119e-01	3.3953e-01	9.9172e-02	-9.9172e-02	8.4695e-02	3.9603e-01
0.186       	1.9685e-01	1.6611e-22	4.7805e-01	-2.3903e-01	-1.5444e-01	9.8427e-02	-1.4060e-01	3.3745e-01	9.8427e-02	-9.8427e-02	8.4581e-02	3.9347e-01
0.187       	1.9323e-01	1.6281e-22	4.6990e-01	-2.3495e-01	-1.4936e-01	9.6614e-02	-1.3834e-01	3.3156e-01	9.6614e-02	-9.6614e-02	8.5591e-02	3.8431e-01
0.188       	1.8841e-01	1.6285e-22	4.5918e-01	-2.2959e-01	-1.4187e-01	9.4204e-02	-1.3538e-01	3.2379e-01	9.4204e-02	-9.4204e-02	8.7718e-02	3.7146e-01
0.189       	1.8398e-01	1.5994e-22	4.5030e-01	-2.2515e-01	-1.3466e-01	9.1990e-02	-1.3316e-01	3.1714e-01	9.1990e-02	-9.1990e-02	9.0492e-02	3.5981e-01
0.19        	1.8288e-01	1.6082e-22	4.5106e-01	-2.2553e-01	-1.3257e-01	9.1440e-02	-1.3409e-01	3.1697e-01	9.1440e-02	-9.1440e-02	9.2959e-02	3.5810e-01
0.191       	1.8682e-01	1.6090e-22	4.6519e-01	-2.3259e-01	-1.3897e-01	9.3410e-02	-1.3918e-01	3.2600e-01	9.3410e-02	-9.3410e-02	9.3619e-02	3.7157e-01
0.192       	1.9525e-01	1.6446e-22	4.9087e-01	-2.4544e-01	-1.5324e-01	9.7623e-02	-1.4781e-01	3.4306e-01	9.7623e-02	-9.7623e-02	9.2196e-02	3.9868e-01
0.193       	2.0796e-01	1.6418e-22	5.2769e-01	-2.6385e-01	-1.7541e-01	1.0398e-01	-1.5986e-01	3.6783e-01	1.0398e-01	-1.0398e-01	8.8438e-02	4.3925e-01
0.194       	2.2458e-01	1.6473e-22	5.7489e-01	-2.8745e-01	-2.0502e-01	1.1229e-01	-1.7516e-01	3.9974e-01	1.1229e-01	-1.1229e-01	8.2431e-02	4.9246e-01
0.195       	2.4105e-01	1.6959e-22	6.2098e-01	-3.1049e-01	-2.3499e-01	1.2053e-01	-1.8996e-01	4.3101e-01	1.2053e-01	-1.2053e-01	7.5501e-02	5.4547e-01
0.196       	2.5281e-01	1.6876e-22	6.5363e-01	-3.2681e-01	-2.5671e-01	1.2640e-01	-2.0041e-01	4.5322e-01	1.2640e-01	-1.2640e-01	7.0102e-02	5.8352e-01
0.197       	2.5706e-01	1.6745e-22	6.6550e-01	-3.3275e-01	-2.6477e-01	1.2853e-01	-2.0422e-01	4.6128e-01	1.2853e-01	-1.2853e-01	6.7985e-02	5.9752e-01