/*--------------------------------*- C++ -*----------------------------------*\
  =========                 |
  \\      /  F ield         | OpenFOAM: The Open Source CFD Toolbox
   \\    /   O peration     | Website:  https://openfoam.org
    \\  /    A nd           | Version:  8
     \\/     M anipulation  |
\*---------------------------------------------------------------------------*/
FoamFile
{
    version     2.0;
    format      ascii;
    class       volScalarField;
    location    "30";
    object      nut;
}
// * * * * * * * * * * * * * * * * * * * * * * * * * * * * * * * * * * * * * //

dimensions      [0 2 -1 0 0 0 0];

internalField   nonuniform List<scalar> 
127143
(
5.342e-13
1.001e-13
5.248e-14
2.462e-13
1.99e-10
2.491e-13
1.759e-09
5.552e-10
2.436e-10
2.648e-09
1.235e-09
4.143e-10
6.869e-14
3.497e-13
0.0006886
1.581e-07
2.254e-12
0.03824
0.0178
8.287e-07
0.004048
7.312e-08
0.059
0.0006356
6.817e-08
7.14e-05
2.046e-05
1.71e-05
4.052e-05
0.05293
0.000314
6.578e-05
1.424e-05
8.132e-05
0.1515
1.372e-05
0.001582
0.01318
0.0009076
4.538e-05
0.01785
0.01457
0.01714
1.587e-12
0.03709
8.878e-05
4.337e-05
0.004087
0.0008039
0.0007639
3.367e-07
0.4015
0.00406
0.03838
0.5089
0.0003933
0.5052
0.02487
0.4775
0.03896
0.01756
0.01156
0.002358
0.6153
0.0003511
0.01704
0.1436
0.002053
0.00213
0.4003
0.0004982
3.26e-05
0.01067
0.4836
0.5791
2.788e-05
0.5376
0.002278
0.0004107
0.6344
3.807e-05
1.013e-06
0.0002967
7.932e-05
0.005584
0.002714
0.001252
2.274e-05
0.0181
0.001037
0.4384
0.04028
0.00163
0.004113
0.001493
0.03978
0.01531
0.000211
0.003786
0.1475
0.6353
0.000887
0.0003357
0.01006
0.002875
0.003617
0.002257
0.4012
0.008626
0.5106
0.0007855
2.453e-05
0.002613
0.005158
0.5746
0.01181
0.5325
0.5792
0.5405
6.589e-09
0.5133
0.0003112
0.002743
0.0378
4.446e-05
2.914e-05
0.008015
0.4915
0.002104
0.000371
0.001656
0.001351
0.003909
0.002352
2.57e-10
0.001736
0.189
0.005519
8.351e-05
0.1997
0.04098
0.5556
0.005653
0.008184
0.004169
0.003789
2.756e-05
0.6205
0.00128
0.0002043
0.007795
0.0009586
0.0146
0.06908
0.001999
0.00576
0.0249
0.0003306
0.0042
0.0001792
0.0004823
4.611e-08
0.4275
0.001659
0.0001303
0.0004317
0.001253
0.01411
0.0003487
0.4173
9.162e-05
0.008159
0.01001
0.004141
0.366
0.001369
0.004135
0.002117
0.0008216
0.2895
0.004163
0.2004
0.001353
0.001394
0.0003999
0.01199
0.05486
0.005384
0.0007308
0.315
0.002915
0.001576
0.1963
0.002367
1.202e-10
0.008061
0.5573
0.5572
4.103e-08
0.5712
0.5686
0.4038
0.1079
0.001737
2.042e-12
0.001436
0.119
0.005293
0.05772
0.5747
0.07875
0.003995
0.563
0.0003634
0.001063
3.618e-08
1.917e-05
0.005015
0.002008
0.1201
0.004615
0.5835
0.0009028
0.004538
0.0001407
8.127e-05
0.0002089
0.0136
0.0002809
0.005586
0.003752
0.2086
0.01148
2.102e-08
0.003808
0.06465
0.001665
1.9e-11
0.5685
0.003578
0.001666
0.0005585
0.002442
0.0003505
0.008424
7.849e-09
0.001451
1.971e-05
2.216e-09
0.4157
0.008479
9.652e-05
0.004196
0.005565
0.0006729
0.008313
0.4935
0.0004989
0.006535
0.1002
0.008075
0.3094
0.0418
0.5564
0.005223
0.0004971
0.0005476
0.001426
0.0125
0.01321
0.0001931
0.3667
0.005219
0.003486
0.003463
0.003043
0.002672
0.001107
0.3151
0.006706
0.4265
0.03615
0.01054
0.576
0.5742
1.647e-10
0.001506
0.5742
0.001026
0.2778
0.01521
0.02717
0.06572
0.00865
0.5321
0.006402
0.0003855
0.0002848
0.002446
0.01381
0.0002526
0.01888
0.02036
0.01249
0.0001221
0.002749
0.005477
0.5627
0.01976
0.005257
0.001981
7.582e-05
0.0003353
0.4316
0.5729
0.001597
0.01072
0.0002358
0.05421
0.1597
0.06209
0.0004037
0.372
0.004151
0.001532
0.00845
0.268
0.0004946
0.0004633
0.004535
0.007924
0.5742
0.1553
0.5386
0.5385
0.07263
0.008618
0.01026
0.007886
0.001349
0.2064
0.004987
0.004802
0.003209
0.005349
0.0009811
0.0005933
0.002144
0.0002946
0.001751
0.0003341
0.02204
0.001327
0.003104
0.3576
0.0006734
0.005463
0.004371
0.4005
0.000446
0.006518
0.002638
0.04809
0.0007471
0.0008073
0.5907
0.5714
0.209
0.000308
0.3129
0.009836
0.3687
0.0001537
0.0007071
0.3296
0.1024
0.0004747
4.811e-08
0.004259
0.3107
0.03384
4.758e-05
0.0003686
0.01817
0.5364
3.229e-06
0.2094
5.458e-05
0.00762
0.01873
0.5166
0.02643
0.0001755
0.0006657
0.0007114
0.0003231
0.02622
0.0003674
0.3582
0.3203
8.008e-05
0.5842
0.004296
0.001442
0.2069
0.006094
0.003202
0.003807
0.6365
0.0009303
0.003819
0.000287
0.04204
0.004804
0.00302
0.001565
0.002941
0.0001483
0.01258
0.001062
0.001338
5.932e-06
0.000839
0.4158
0.005386
0.08205
0.01859
0.05844
0.0006477
0.09624
0.4991
0.0008537
0.001171
0.06226
0.005881
0.5906
0.005166
0.0006864
0.4094
0.5369
0.5732
0.0008657
0.183
0.007743
0.4974
0.0002354
0.5712
0.001241
0.2065
0.004012
0.003935
0.0004729
0.006763
0.0002672
0.1994
0.001919
0.0002247
0.0007868
0.002296
0.01506
0.004248
0.003471
0.01422
0.007081
0.003291
0.3787
0.5641
0.004298
0.0004732
0.4411
0.004767
0.03925
0.03843
0.01114
0.1455
0.383
0.002233
0.04097
0.0002275
0.006282
4.244e-05
0.001366
0.0008197
0.0003452
0.004762
0.006095
0.007435
0.5661
0.0002331
0.5489
0.002148
0.001402
0.003541
0.003779
5.13e-11
0.001394
0.007588
0.05853
0.006457
0.5683
4.03e-05
0.5636
0.001868
0.00849
6.865e-12
1.476e-08
1.341e-09
0.5882
0.0007002
0.002663
0.5732
0.007754
0.002289
0.001559
0.009041
0.003777
0.0004541
0.004812
2.413e-05
0.3862
0.003243
1.537e-08
0.000864
0.0002698
0.0001156
0.4928
0.008214
0.1154
0.01486
0.3729
0.0001784
0.0001444
0.0001842
0.4457
0.004249
0.05822
4.19e-05
0.004109
0.000208
0.01755
0.5397
0.0005184
0.004786
0.4488
0.01822
0.01373
0.0004437
0.0007892
0.0004179
0.0002
0.007916
0.009188
0.001301
0.001657
0.000925
0.5364
6.944e-05
0.001901
0.0002484
0.003411
0.002906
0.6171
0.6087
0.1079
0.0005578
0.005824
0.5724
0.3413
0.006235
0.0005325
0.003131
0.004657
0.0001137
1.296e-05
0.009588
0.5502
0.4921
0.0001896
0.003968
0.002888
0.4342
3.29e-05
0.004233
0.001047
0.3148
0.0001406
0.5723
0.003431
0.001725
0.01969
0.3017
0.0004966
0.008112
1.788e-06
0.3826
0.002429
2.032e-05
0.5728
0.006244
0.5732
0.001175
0.007534
0.5761
0.0003655
0.000569
0.0001067
0.001858
0.006453
0.0003654
0.0003944
0.003322
0.001019
0.001816
0.0007777
0.001178
0.0042
0.0001767
0.4449
0.000389
0.5743
0.005868
0.4952
0.005875
0.4887
0.5742
0.02267
0.001105
0.002897
0.4647
0.5347
0.0003224
9.758e-05
0.0004094
0.0002567
0.008394
0.007895
0.003958
0.003655
0.003292
0.0006343
0.0003095
0.4637
0.001115
0.00357
0.0184
0.02049
0.4072
0.3395
0.008805
0.000126
0.00745
1.609e-06
0.4993
0.3015
0.00132
0.0009343
0.415
0.000356
0.04457
0.102
0.000377
0.006716
0.00371
0.05081
3.234e-12
9.85e-05
0.002375
0.001905
0.001544
0.001323
0.0001843
0.0007458
0.4391
0.002309
0.0004129
0.004458
0.5248
0.001223
0.0209
0.02617
0.4513
0.5247
1.65e-06
0.05781
0.0005417
0.001566
0.001742
0.0196
0.02024
0.0001803
0.05492
0.0006952
0.5661
0.4792
0.007422
0.08268
0.000373
0.02676
0.0001998
0.008697
0.0007522
0.08243
0.04955
0.3033
0.0002346
0.1434
0.0006092
3.106e-10
0.004029
0.005514
0.004499
0.3044
0.002817
0.0008234
2.52e-06
0.02799
0.01061
0.003306
0.0002611
0.002883
0.0009868
0.01455
0.0008243
0.002335
0.005537
0.008278
0.02477
1.574e-12
0.02049
0.4235
0.001971
0.002135
0.001452
0.5626
0.0008639
0.02258
0.003213
0.3116
1.439e-06
0.0009364
0.0001317
0.3581
0.00067
0.001241
0.0007601
0.001462
0.3484
0.004313
0.0001285
0.0003464
0.005264
0.5703
0.004845
0.001916
0.5529
0.005055
0.01359
0.001419
0.001421
0.01986
0.003868
6.204e-05
0.000658
0.3798
0.00426
0.01051
6.716e-05
0.0003324
0.03715
0.007985
0.0002311
0.4006
0.001665
0.0003839
0.006297
3.913e-08
0.006406
0.0002011
0.00308
0.002678
0.008689
0.5903
1.252e-12
0.001685
0.001978
7.819e-05
0.002867
0.0006219
0.00105
0.0005823
0.4972
0.02409
0.009687
0.3124
0.0008591
0.002193
0.002158
0.002794
0.4264
0.004177
0.001254
0.5663
0.4103
0.02045
0.01108
0.008391
0.0006121
0.003472
4.058e-07
0.007943
0.02898
0.5279
0.002673
0.00143
0.0003523
0.0001574
0.01493
0.4251
0.5005
0.08042
2.842e-05
0.5269
0.09054
0.0002128
0.002848
6.985e-05
0.4514
0.00264
0.002767
0.581
0.0003055
0.5156
0.001783
0.0001087
0.001018
0.007685
2.555e-05
0.461
0.0003777
0.04399
0.0001954
0.0002435
0.0001815
0.0002061
0.03755
0.01654
0.01022
2.049e-07
0.5785
0.01855
0.0004996
0.0007337
0.0003989
5.196e-06
0.428
0.1048
0.0001839
5.826e-05
2.202e-06
0.002303
1.298e-08
0.001001
1.117e-07
0.001368
0.0001043
0.02477
5.712e-06
0.5395
0.001814
0.2916
0.2936
0.004941
0.4511
0.002006
0.01455
0.005329
0.01687
0.2645
0.001214
0.001767
0.518
0.0318
0.001739
0.2757
0.0003311
3.059e-08
0.001539
0.005102
0.000762
0.01047
0.0004317
0.571
0.003642
0.0006337
0.411
0.0004279
0.001907
0.01281
0.4259
0.1496
0.03571
1.115e-07
0.006658
3.03e-08
0.004902
0.003132
0.002236
1.127e-05
0.00083
0.2928
9.984e-05
0.02018
0.2918
0.007097
3.026e-08
0.02656
0.0006552
0.007844
0.01057
3.713e-06
2.662e-08
0.0006474
0.5518
0.5823
0.005342
0.005283
0.001169
0.0004109
0.003717
0.000133
0.001761
0.08634
0.0001279
0.183
8.196e-05
0.5659
0.003991
6.308e-05
0.005942
0.000893
0.003929
0.5775
0.5634
0.0001227
0.03409
0.0007058
0.0007336
0.0003332
0.005684
0.008484
0.001934
0.001081
3.408e-07
0.004396
0.0002782
0.0003237
0.006557
0.00656
0.002515
0.0006755
3.15e-05
1.564e-07
0.003775
0.5625
0.5521
0.005032
0.002537
0.01636
0.6139
0.003445
0.003922
0.02105
0.0004341
0.009269
0.0005318
0.007978
0.6368
0.02471
0.02075
3.952e-05
0.0001244
0.001156
0.02109
0.02027
0.000343
0.0006692
0.00442
0.01016
0.002618
0.001395
0.001262
0.0001181
0.4157
4.123e-06
8.134e-06
0.01084
0.001988
0.0006812
0.5726
4.234e-07
3.633e-07
0.4231
0.6045
0.003122
0.003252
2.292e-08
0.0003249
0.001935
0.0006891
0.000377
0.02314
0.02146
0.4031
0.0003083
0.004754
0.000596
0.009076
3.051e-05
0.002226
0.4506
4.955e-07
0.000908
0.5685
0.0008729
0.4301
0.5679
0.004893
0.05431
2.483e-06
0.5623
0.0003088
0.5805
0.00193
0.06534
0.03306
0.008725
0.0004073
0.0005694
0.0003254
0.003581
0.3846
0.1825
0.006076
0.001175
0.0005875
0.0004776
1.979e-05
0.0003186
1.385e-07
0.001727
0.0006422
0.0006201
0.0005245
6.657e-05
0.03511
0.02642
0.3386
0.0005619
0.0006768
0.000165
0.3795
0.0008012
0.006305
0.002017
0.001885
0.002771
0.01593
0.0002134
0.01155
0.002054
0.0005701
0.000345
0.0002323
0.4575
0.004985
0.0005765
0.4933
0.0009047
0.0004242
0.6385
0.009798
0.0004294
0.2113
0.03507
0.01153
0.0006281
0.03644
0.5476
0.0009157
0.0008043
0.5562
0.04575
0.3342
0.003967
0.0007058
0.006563
0.2917
0.0001026
2.8e-07
0.0004187
0.000812
0.006283
5.648e-06
0.3978
0.001179
0.577
0.002462
0.004296
0.00114
0.001846
8.136e-05
4.124e-05
0.5959
2.277e-09
0.0001425
0.0002162
0.002819
0.0005813
0.01058
0.0294
0.0001029
0.0025
0.2603
1.449e-09
0.001947
0.0005877
0.0002481
0.001108
0.001623
0.0006369
3.295e-05
0.002046
0.001313
0.007463
0.0004634
0.0005878
0.02567
4.425e-08
0.0571
0.001651
0.06036
0.0003465
0.5488
0.567
0.009629
3.626e-06
0.003785
0.1709
4.227e-07
0.0001945
0.5796
0.0001219
0.001878
0.008567
2.01e-07
0.008633
0.001273
1.571e-11
0.03193
1.328e-05
0.006624
0.00227
8.244e-05
0.0006993
0.000178
0.004634
0.000797
0.0799
0.05474
0.01294
0.001115
0.005805
0.001685
0.007978
3.802e-06
0.004506
0.02729
0.005425
0.01455
0.02177
0.006092
4.742e-08
0.2105
6.327e-05
8.872e-05
0.001054
0.001756
0.5802
0.008235
0.0025
0.02066
5.565e-05
0.0002745
0.0001287
0.5166
0.0005326
9.629e-05
0.002793
5.935e-07
0.003844
0.02165
0.000272
0.5547
0.0002167
0.001327
6.323e-05
0.001203
0.1102
0.005749
0.4809
1.588e-07
6.554e-07
0.002101
0.01716
0.00609
0.4249
0.4564
0.0003351
0.003079
0.01508
0.1039
0.3334
0.3317
0.006669
0.002629
0.01706
0.001151
0.0008024
3.601e-07
0.01281
0.0001709
0.0009846
0.0006892
0.4785
0.0003288
0.006718
0.00249
2.926e-07
0.01401
0.01277
0.001286
0.002742
0.00361
1.591e-07
0.03579
0.00216
0.007319
0.01231
0.01055
0.000944
1.525e-07
0.06308
0.0001257
0.5367
0.0006136
0.000766
0.4915
0.0005172
0.003782
0.001572
0.0004857
0.5532
0.01277
3.155e-08
0.5725
0.000777
0.000334
0.002004
8.589e-05
0.01555
0.01053
0.0002098
0.000112
0.001618
0.001025
0.1093
0.001985
9.772e-06
0.0001353
0.001962
0.001673
0.5714
0.002066
0.02139
0.0001862
0.002123
0.01042
0.001632
0.4737
0.01108
0.0007029
0.3566
0.008805
0.4337
0.0002435
0.008393
5.443e-06
0.0008825
0.005147
0.0006075
0.002891
0.001023
0.000633
6.957e-08
0.00164
0.0009283
0.006163
0.003756
0.005361
0.6148
0.001171
0.5609
0.006969
0.5992
0.006224
0.5558
0.001571
0.001095
0.6118
0.5643
0.0002545
0.06812
0.0002198
0.05714
0.6317
0.004859
0.002631
0.2816
5.107e-10
5.165e-05
5.206e-08
0.001224
0.003697
0.000676
0.001281
0.001119
0.06393
4.088e-05
0.002632
0.0001404
0.0004885
0.00235
0.004295
0.0179
0.56
6.825e-08
0.002075
9.157e-05
0.5793
3.305e-07
0.001198
0.0006179
0.0008642
0.3841
0.3788
0.06925
0.03574
0.06533
0.009425
0.002636
0.01381
0.01135
0.1434
0.01043
0.0001612
0.005792
0.03577
0.003341
0.0104
0.0003205
0.000292
0.002236
0.0006177
0.004766
0.5546
0.0007062
0.0006174
7.942e-06
0.004746
0.2044
0.002447
0.1975
0.001408
0.00124
0.0002494
0.05304
0.5657
0.003089
0.003003
1.737e-07
7.141e-05
0.01596
0.001712
0.0001598
0.08742
0.3427
0.0008217
0.0005131
1.783e-07
0.1163
4.339e-08
0.001117
0.5616
0.001275
7.028e-05
0.009414
0.04624
0.006123
0.0002288
0.002849
0.002719
0.00407
0.0003089
0.1608
0.001023
0.0001798
0.0002678
0.3986
0.3984
0.0004869
0.007132
5.476e-07
0.003069
0.0002191
0.0001841
6.443e-08
0.2104
0.0005395
0.4743
0.5688
0.5596
0.004562
0.4632
3.739e-07
0.5741
0.0001027
0.02349
0.002988
0.004175
0.0002815
0.4123
5.332e-05
0.05414
0.001603
0.004279
7.362e-06
0.4237
0.001248
0.0002837
0.004925
1.253e-05
0.0001054
0.003067
0.0008429
0.0005542
0.1382
0.4126
1.069e-05
0.3809
0.6319
0.02324
1.41e-05
0.4341
7.247e-05
0.5838
0.003845
0.006241
0.006464
0.002245
0.4956
0.003846
0.0003802
0.0007408
0.0926
0.006792
0.03288
0.5745
0.542
0.003147
1.618e-07
0.003938
0.002144
0.4803
8.77e-07
0.02247
0.06946
0.3732
0.00947
0.0009449
0.00033
0.4596
0.001185
0.5511
0.002914
0.6259
0.02033
0.001572
0.001489
0.005888
0.0002848
0.000933
0.5364
0.006262
0.0001025
0.0004284
4.048e-07
0.000178
0.01634
0.2218
0.006607
3.53e-05
0.005069
0.001081
2.138e-06
0.4075
0.05618
0.5648
0.002051
0.001152
0.003343
0.5806
0.0001398
0.5731
0.03409
0.0009201
0.5104
0.01849
0.02379
0.003033
0.005892
0.2124
0.0005866
0.5892
0.0006963
0.0001128
0.009125
0.01699
0.001227
0.2461
0.008593
0.001385
0.0002621
0.0022
0.00153
0.0002935
0.002038
0.00141
0.0001228
0.1414
0.04522
0.002015
0.2185
0.0008653
0.003555
0.05532
0.002238
0.492
0.3165
4.031e-05
0.03554
0.008409
0.001135
4.204e-07
0.001577
3.548e-06
0.01561
0.4172
3.731e-06
0.001509
0.05908
0.0005757
0.3209
0.006532
0.6394
0.009746
2.604e-05
0.006217
0.004289
0.002612
0.001468
0.5855
0.002608
0.02113
0.005028
0.0003374
0.4208
0.00185
0.0001021
0.5656
0.454
0.0011
0.3948
0.004321
0.008435
0.009975
0.003326
0.01677
0.003489
0.4177
0.02919
0.001993
0.4603
0.03228
0.0004787
2.222e-07
0.6051
0.0005124
1.57e-05
0.01839
0.0007871
0.009066
0.001226
2.281e-07
0.3662
0.4141
0.0008723
0.4313
0.0002925
0.004024
0.003178
5.113e-05
0.0009983
0.4392
0.001192
3.06e-08
6.324e-09
0.0006127
0.0007945
0.0009738
0.01801
0.00466
0.007147
0.002674
0.0001779
0.0004015
0.0003638
0.001267
1.408e-06
0.00341
0.01338
0.571
0.0009507
0.01415
0.002412
0.03019
0.1907
0.001583
0.0006179
0.0223
0.6088
0.0005451
0.0001777
0.01084
0.0006878
0.005133
3.664e-07
0.0008153
0.416
0.0007957
5.331e-06
0.003848
0.001843
1.114e-07
0.3694
0.0001058
0.0006612
0.001246
0.3
0.003641
0.007033
0.0002258
0.0007305
0.005203
0.0001586
0.4436
0.007042
0.001144
0.116
0.00634
0.5545
0.0004203
0.0001871
0.001253
0.0001349
5.293e-05
0.003118
2.969e-06
0.4163
0.0009318
0.005259
0.009641
0.241
0.02173
0.004463
0.003863
0.001608
0.4168
0.002047
2.645e-08
1.558e-05
0.001488
0.01779
0.01515
0.01275
0.5684
0.4412
0.002551
0.02264
0.4911
0.002377
0.001457
0.0007385
0.0006432
0.005628
0.001178
0.009396
0.0005712
1.5e-07
7.484e-07
0.0643
0.002044
4.151e-08
0.009218
3.448e-05
0.02865
0.006356
0.00489
5.554e-09
0.008821
0.006408
0.3332
0.1794
0.000154
0.001202
0.5736
0.5933
0.006434
0.0001742
0.004695
0.001862
3.777e-06
0.00447
0.3717
0.0001946
0.008981
0.0009572
6.909e-05
0.0419
0.07771
0.004203
0.001453
0.01602
0.001586
0.5881
7.534e-05
0.01302
0.0002217
0.04908
0.0009348
4.015e-05
0.009214
0.0001866
0.01001
0.0001746
0.001315
3.624e-05
0.05831
0.007483
0.001928
0.003085
0.0003751
0.0008709
0.0002108
0.0002939
0.5618
0.0007058
0.02907
0.0003009
0.002645
0.3687
0.01148
0.08274
6.41e-05
0.3664
0.0009794
0.002162
0.001352
0.007235
0.005993
0.07652
1.793e-07
0.03138
0.4792
0.0001459
0.4629
0.004091
0.2867
0.0151
0.008684
0.5434
0.02593
0.0007998
5.804e-05
0.577
0.5102
0.008219
0.005436
0.001319
0.1211
0.006674
0.001551
0.0002706
0.0003624
0.03531
0.004958
0.01068
0.06866
0.001786
1.66e-06
0.01208
0.0002914
0.000447
0.01049
4.535e-07
0.5732
0.4255
0.01025
0.01286
5.094e-08
0.5796
0.01184
0.0001739
3.923e-07
0.0003589
0.0003682
0.3058
0.3058
0.0005215
0.001445
0.001414
0.002234
0.2648
0.02281
0.01333
0.6351
0.000195
0.001342
0.002299
0.001866
5.558e-05
0.07905
0.007845
0.561
0.006975
0.001295
0.0002734
0.0006188
0.001568
5.77e-05
0.0002133
0.002606
0.00151
0.0005913
0.001406
0.08124
0.00386
1.161e-05
0.2921
0.2932
0.0004316
0.0007594
1.632e-05
0.009304
0.0005545
0.001281
0.3828
0.5742
0.005077
0.6143
0.003171
3.144e-06
0.004599
0.04534
0.002493
0.1372
4.349e-05
0.001457
0.4017
0.006255
0.006696
0.002085
0.002702
0.002227
0.001287
0.002163
0.002871
0.002138
0.005873
0.007294
0.0002488
0.001721
0.001968
0.0006249
0.0001109
0.0009068
0.0002398
0.0002324
0.006827
0.008724
0.004861
4.382e-06
0.02138
0.001181
0.5409
0.004943
0.6194
0.001439
0.01324
3.226e-06
0.0007053
0.06023
8.954e-05
1.119e-07
0.0001344
0.003246
0.002638
0.0002005
0.00013
0.3699
0.002561
0.004101
1.427e-07
0.001201
0.002132
0.03322
0.0246
0.5751
0.006536
0.0001674
0.008725
7.651e-05
0.007103
0.092
0.0001292
0.5626
0.007903
0.0198
0.004769
0.0003215
0.03527
0.008827
0.01276
0.205
0.001218
0.004784
2.387e-07
0.0001181
0.00158
0.5264
0.002025
0.002394
1.726e-05
0.0006721
0.003962
0.01717
0.00208
0.5712
0.0008057
0.0005536
0.005851
0.003355
0.005267
8.08e-05
0.000273
0.0007847
0.003753
0.03182
0.008935
4.032e-06
0.02691
0.1085
7.615e-08
0.3759
0.03874
0.5728
0.599
0.003853
0.5555
0.0001624
0.002565
0.02929
0.006127
0.000285
8.895e-05
0.001147
0.0006367
0.001203
0.004797
2.885e-09
0.002977
0.001411
0.1655
1.406e-08
0.007873
6.631e-06
1.188e-05
0.3301
0.0001684
0.0002859
0.009465
0.006169
1.496e-05
0.001587
0.0001069
0.003785
0.002742
0.423
0.02089
0.6067
0.01461
0.00635
0.0002539
0.007463
0.004559
4.42e-06
0.00597
0.5257
0.0006418
0.002376
0.0216
0.003213
0.002481
0.002229
0.0003697
0.0002428
4.854e-06
0.00053
0.0008278
0.0001622
0.001498
0.0005993
0.07444
9.404e-09
0.0007517
0.002313
0.009286
0.4143
0.00229
0.000574
0.004635
0.00957
3.658e-06
0.0002314
0.002517
0.01928
0.002378
0.0003087
0.4346
9.61e-06
0.01128
0.233
0.003402
0.000577
0.5624
0.0008263
0.006156
0.004734
5.294e-05
0.004919
0.001836
1.098e-07
0.002585
0.0009937
0.6276
0.6276
0.0009595
0.00896
0.007154
0.0006606
0.00156
0.549
7.184e-05
0.0002733
0.003745
0.5122
0.5218
0.003586
0.01561
0.0009126
2.337e-08
0.0004372
0.4218
0.0003307
3.097e-07
0.06256
0.0004432
0.0006016
0.4165
0.01485
9.838e-05
0.03882
0.001971
0.3893
0.3364
0.3552
0.2942
0.0828
0.002366
0.004746
0.0006167
0.008231
0.0005216
0.003282
0.0002562
0.2938
0.001547
0.001976
3.459e-05
0.0002584
2.389e-05
0.000525
0.002912
0.0007429
0.004213
0.001283
0.1321
0.00211
5.224e-08
0.001212
4.108e-05
0.01921
0.001608
0.5742
1.324e-08
0.001526
0.0007681
0.008949
0.2741
2.321e-06
0.579
0.001541
0.0003262
0.4211
0.001412
0.00131
0.005959
0.0009073
7.761e-06
0.1937
0.0002443
0.4581
0.007017
0.002443
0.0005579
0.005051
0.002289
0.5446
0.5649
0.04648
0.0002007
0.000165
0.04546
0.005045
0.001353
0.009812
0.0002336
0.000674
0.01602
0.009346
0.002393
0.001806
0.03957
2.658e-07
0.02062
0.5742
3.857e-05
0.5719
0.4215
0.04936
0.4159
0.0001146
0.005466
0.0001516
0.003187
0.0007706
0.586
0.07034
0.0003907
0.001248
0.00612
0.4285
0.02846
2.367e-05
6.253e-05
0.6183
4.022e-05
4.894e-05
3.937e-08
0.4025
0.01697
0.00967
0.0699
0.5134
0.01903
0.002866
2.491e-05
0.06738
0.0003357
2.443e-09
0.5752
0.0006799
0.0001404
0.001601
0.5787
0.0002841
8.852e-06
1.689e-07
3.34e-07
0.02227
0.008368
1.181e-06
0.2041
0.001327
0.561
0.005265
0.000399
0.01848
0.0004532
3.429e-07
0.06438
0.0007105
0.00219
0.6424
0.2406
0.0004148
0.0002009
0.02469
1.032e-05
0.001542
0.01461
0.007718
0.00418
0.000447
0.001808
0.5756
0.004312
0.003423
0.001281
0.000398
0.001542
0.00043
0.001496
6.557e-08
2.09e-07
1.305e-09
0.0003994
0.1378
0.0004415
0.457
0.0002167
0.0002911
0.5759
1.487e-07
0.6349
0.0007112
7.088e-06
8.65e-05
0.0005298
0.002652
0.0003392
0.001093
0.3711
3.832e-08
0.005143
0.355
0.00834
0.0009494
1.318e-06
3.093e-06
1.395e-08
0.008372
0.000603
0.0004395
0.005787
0.07357
0.002382
3.506e-05
0.4717
0.001941
0.002946
0.0005759
0.003006
0.002115
0.01457
4.686e-05
0.001849
0.00168
4.496e-06
0.2742
7.546e-05
0.06221
0.003261
0.0006256
0.3421
0.09177
0.003685
0.0003527
0.000726
6.96e-08
0.3453
0.5547
0.0098
0.001104
0.000145
0.002786
0.01711
0.3049
0.3638
0.0002376
0.3044
0.0004583
0.0007654
0.08437
0.001058
0.00174
6.776e-06
6.185e-08
2.923e-07
0.2454
0.0003475
0.001293
0.001189
0.0205
0.01288
2.552e-06
0.005866
0.0002953
0.001004
1.439e-05
0.001156
0.009881
2.198e-06
0.002635
0.002249
0.003972
0.3524
0.00322
0.09058
0.5695
0.004692
0.001771
0.001748
0.003383
0.003615
2.026e-08
5.919e-08
0.00914
3.383e-09
0.3654
0.04777
0.2798
0.1783
0.003327
0.6338
0.001038
9.624e-08
0.0003823
2.596e-05
0.02755
0.007806
0.001426
0.001513
0.007155
0.0004426
0.004817
8.555e-05
0.001067
0.3268
0.0009198
0.002107
0.6046
0.2762
0.0001248
0.5848
0.001132
0.0008499
0.001045
0.007002
7.905e-05
0.4127
0.04179
0.2119
0.0003852
6.741e-06
0.0005672
0.002989
0.551
0.0008059
0.5558
0.02816
0.0008719
0.01957
3.372e-07
0.0009209
0.0003656
0.01634
0.0002378
0.01565
0.3758
0.004016
0.0004485
0.4735
0.008478
0.5845
0.0002346
0.000117
0.002639
0.00158
0.4543
0.0003099
0.0005944
0.001951
1.773e-06
0.001004
7.575e-05
0.5355
0.0295
0.009583
0.009111
0.0007215
0.004758
0.07594
0.01183
0.04775
0.002928
0.002244
0.4601
0.6026
0.5477
0.2819
0.03443
5.008e-05
0.0003541
0.5706
0.001061
0.003727
0.001517
0.5928
0.001362
0.09318
0.0001228
0.4184
6.536e-08
0.008622
0.000109
0.3388
0.0699
1.828e-07
0.3461
0.00154
0.001469
0.001104
0.0006024
0.001633
0.5813
0.0008892
0.0003547
0.004414
0.001419
0.003212
0.008271
0.003118
0.002631
0.0007394
0.5591
0.005157
0.00363
9.682e-05
0.04535
0.614
0.000816
0.0001788
0.004087
0.004421
0.006397
0.0006541
0.2168
0.004467
0.0002655
0.008125
0.0006153
0.01316
0.3263
0.005146
3.601e-07
0.003784
0.0006652
6.119e-05
0.00906
0.006212
0.5701
0.3633
0.05231
0.3659
1.469e-05
0.001081
0.5933
0.5427
0.002156
1.872e-08
0.5935
0.003793
5.862e-06
0.001647
0.006937
0.001082
0.0005907
0.001625
0.004825
0.0003335
1.714e-07
0.0001134
0.569
0.001973
0.007761
0.001275
0.5095
0.02788
0.000829
0.003037
0.0004697
7.997e-06
9.161e-05
0.03808
0.000289
1.606e-07
0.0144
0.0006821
0.004042
0.01083
0.01476
0.0001848
4.573e-06
0.5612
0.0009229
0.001703
0.5923
4.247e-05
0.005285
0.008225
0.08873
0.00537
0.0003838
0.0005918
0.002841
0.5561
0.5717
0.03423
0.0006542
0.608
0.01814
0.4564
0.0002796
0.011
0.00535
0.0004589
0.000145
0.02775
0.004309
0.5201
1.269e-07
0.007503
0.0004261
0.0004729
0.1087
0.0009857
0.01232
0.0008723
5.028e-07
0.0176
2.6e-07
0.5469
0.5513
0.00304
0.1376
0.5291
2.014e-07
0.001091
0.001001
4.788e-05
0.008474
0.002573
0.3158
1.949e-07
0.1696
0.002424
0.6043
0.05057
0.0006296
0.002328
0.002126
0.005322
0.01199
0.0001963
0.4032
0.002201
3.405e-05
0.0002863
5.264e-05
0.05063
0.001856
0.005829
0.6201
0.0002052
0.0005708
0.1006
0.2219
0.0009987
2.748e-07
0.304
0.5473
0.00542
6.519e-05
0.008124
0.0004123
0.6189
2.29e-05
0.001168
0.001599
0.6107
0.08218
0.0002517
0.001287
9.831e-05
0.003785
0.003194
0.5403
0.000574
0.3377
0.000251
2.644e-07
0.127
0.0008351
0.008358
1.403e-05
1.991e-06
0.0001639
0.1074
0.3974
0.002377
0.03723
0.5677
0.0006267
0.002992
0.01343
0.5976
0.08458
0.1105
0.4123
0.0009567
0.001751
0.574
0.001342
0.002423
0.0001405
0.3703
0.589
0.5663
0.1284
0.009656
0.02361
0.0003917
3.787e-07
5.898e-06
0.002536
1.83e-07
8.649e-05
0.4017
6.162e-07
0.00194
5.152e-05
0.01211
0.04443
0.01921
1.383e-05
0.0003146
0.0001685
0.0004231
0.1925
0.003201
0.001004
0.00199
0.01013
0.03428
0.0006147
0.05333
0.001006
0.3537
0.002816
0.005001
0.01414
0.02809
0.0003246
1.483e-07
4.581e-05
0.4129
3.636e-05
0.002665
0.6082
0.002772
0.5803
0.0001046
0.001688
0.3491
0.0006609
0.001198
0.6543
0.01073
0.01849
1.782e-05
0.5435
0.0364
4.594e-06
0.01025
0.5639
8.874e-05
0.002811
0.2501
0.0389
0.02122
0.001281
5.474e-07
0.0004227
0.001781
0.01081
0.0001949
0.01349
0.5714
0.2303
0.0009336
0.00226
0.001438
0.6098
2.649e-08
0.001037
0.00396
0.0006507
0.002599
0.001843
0.4375
0.1055
0.0003798
0.0009314
0.1863
0.001895
0.0004199
0.01713
0.008597
0.006283
0.01016
0.1943
0.01274
0.004366
0.009472
0.005432
0.6069
0.0001491
0.391
0.002542
0.007389
0.01211
3.307e-05
0.001725
9.702e-09
0.01137
0.02454
0.2773
0.5305
0.008728
0.004952
7.101e-05
0.0002857
0.0009137
0.000646
0.0002357
0.004891
0.01784
0.001869
0.0003832
2.964e-05
0.003209
0.2213
0.0001904
0.01403
0.0001821
0.006481
0.009738
0.002685
0.0009854
0.5728
0.0006489
0.03633
0.567
0.07102
0.0001878
0.196
6.508e-10
0.000476
0.0002285
0.5688
0.005604
0.0009254
0.3694
0.003975
0.003132
6.106e-05
0.0004805
6.573e-05
0.5879
0.001522
0.5652
0.01226
0.0007343
0.001271
0.007403
0.0003458
3.226e-10
0.4476
0.5749
0.003329
0.002031
0.0002348
0.01483
0.002598
0.0003524
0.01476
0.005826
0.5685
0.002052
0.0001126
0.08036
0.003311
0.561
0.002152
0.116
0.004313
0.0006271
0.001311
0.2429
0.0004927
0.007992
0.4492
0.0003618
0.00126
0.07628
0.5502
0.422
0.0006566
0.0005052
0.005056
0.02071
0.001616
0.03691
0.001353
0.00495
0.3516
0.02939
0.02221
9.311e-08
0.0001704
0.0001082
0.5412
0.0004044
0.001543
8.945e-05
0.0001347
2.474e-06
0.007467
0.004489
0.002164
0.002835
0.0003551
6.273e-05
0.04078
0.4067
0.02083
0.2894
3.355e-08
0.5524
0.006024
0.0004652
0.004237
0.005793
0.001542
0.002252
8.335e-05
0.007115
0.001361
0.008961
0.0107
0.0006461
9.583e-08
0.003268
2.382e-07
4.591e-06
0.5754
1.969e-07
0.002706
0.0002362
9.653e-05
0.004656
0.02766
0.0006273
0.002537
0.005732
0.2136
0.006573
0.005487
0.00124
0.002746
0.001779
0.01651
0.01456
0.04257
1.424e-07
0.002429
0.0002543
0.002145
0.0003889
0.3873
0.0003524
0.001629
5.532e-05
0.007291
2.547e-06
0.0006535
0.0006714
0.07121
9.336e-05
0.08084
0.0046
0.002848
0.09472
0.0178
0.003818
0.004795
0.0008979
0.0005837
0.006096
0.001372
0.002633
2.618e-06
0.005143
4.109e-08
0.2088
0.01482
0.0007869
0.01317
0.1962
0.001545
0.5734
0.536
0.5749
0.002165
0.001551
0.0002284
0.06651
0.05828
0.002355
0.1762
6.435e-09
0.0001325
1.521e-07
0.000901
0.1219
0.0003008
0.0003576
0.08497
0.0001087
0.5864
0.006307
0.01408
0.0002963
0.02388
0.541
0.4526
0.001272
0.01118
0.188
3.441e-07
0.001495
0.4889
0.58
0.003021
0.2647
0.000586
1.893e-05
0.4365
0.006961
0.000324
0.001659
0.0006691
3.36e-07
0.00447
0.04389
0.003719
0.0008031
0.0424
0.0006585
0.003649
0.01032
0.0003935
0.001261
2.982e-10
0.2597
0.002511
1.759e-05
0.0004542
0.5784
0.002937
0.5766
0.0105
0.0193
0.003094
0.004693
0.0006769
0.002669
0.03688
0.0001528
0.0004562
0.0002508
0.0004023
0.0002778
0.001978
0.02499
0.002678
0.0007339
0.003406
0.0008186
0.456
1.977e-07
3.298e-06
0.0001461
0.003737
0.006473
0.0001885
0.0003902
0.02384
0.1172
2.079e-05
0.001051
0.3588
0.2855
0.4265
0.0006032
0.001438
0.02035
0.0004992
0.01224
0.3125
0.001946
0.003007
0.003848
0.0005589
6.026e-08
0.0002992
0.001223
0.001648
0.00259
0.001413
0.0002732
0.001965
0.008107
0.01147
0.0001385
0.002981
0.0254
0.002084
0.0003347
0.05512
0.007253
0.01793
0.01798
1.316e-07
0.0002425
0.6032
0.0005257
0.01233
3.106e-06
0.0001702
0.5014
0.05614
0.0003414
0.3565
0.002814
0.0002792
0.0004138
0.01198
0.3914
0.0341
0.006975
0.005044
0.0886
0.0006442
0.4389
0.0003922
0.003584
0.000422
0.0004205
0.001902
0.001856
0.0007475
0.0005577
0.02836
0.00208
0.5816
1.888e-07
0.2295
0.2864
0.000437
0.5704
0.005124
0.00817
6.77e-10
0.5956
0.003486
0.0008832
0.000443
0.0007012
0.03881
0.001717
0.002713
0.0008745
8.439e-05
0.002824
0.1065
0.5578
0.0005414
0.0004438
0.02929
0.001637
0.000155
6.16e-05
0.01087
0.5336
0.001897
0.001302
2.883e-08
0.003334
0.001588
0.0124
0.001101
0.5446
0.006333
0.0003238
0.0001638
0.5974
0.03191
0.0001816
0.539
0.002504
0.0001562
0.005562
0.5939
0.6003
0.01563
0.4229
0.3757
0.5736
0.01331
0.001149
0.0001481
0.04975
0.001486
0.008695
0.05064
0.6432
0.004759
0.002807
0.1554
0.1105
0.0001656
0.03629
0.4322
9.985e-05
0.00225
0.01765
1.905e-07
1.259e-06
0.4481
0.001076
0.0106
0.0004617
0.001906
3.385e-05
0.6258
0.006737
1.367e-07
0.00851
0.001268
0.02227
9.611e-05
0.001936
0.001375
0.006917
3.409e-06
0.1313
3.318e-05
0.00271
0.3736
0.331
0.3307
0.0006156
0.003317
8.346e-05
0.0009995
1.45e-07
0.09757
0.336
0.00184
0.004351
0.06517
0.5679
0.0002604
0.009786
0.0001732
0.00229
0.0004888
0.0014
0.002573
0.004833
0.0008372
0.5413
2.662e-06
0.0009376
0.001916
0.006478
0.1242
0.558
0.003253
0.006341
0.0007951
7.381e-05
0.003904
0.2429
0.006124
0.05276
0.08929
0.569
0.000317
0.001096
2.158e-05
0.0008496
0.00317
0.01404
0.001819
0.004294
0.009761
0.002525
0.02165
0.04201
0.5907
0.001307
1.606e-05
0.03652
0.01702
9.141e-05
0.3194
0.5704
0.01672
0.2509
0.6039
0.004567
0.4881
0.4877
0.007716
0.3755
0.002332
4.233e-07
0.0004261
0.01877
0.04063
0.4744
0.5948
0.01471
0.001098
0.003623
2.184e-07
0.005148
0.4297
0.009339
0.008695
7.834e-05
0.07339
0.5969
0.07769
0.004045
0.6069
0.5294
0.00128
0.001187
0.1135
0.3547
0.001722
0.5371
0.1784
0.5022
5.59e-09
0.09071
0.0001926
0.009832
0.3591
0.09659
0.01455
0.003347
0.0003983
0.003851
0.002581
0.006956
0.6238
6.463e-07
0.004862
0.004419
0.5902
0.0003533
0.0005836
0.001289
0.0002578
0.0275
0.0004729
0.007147
0.04016
4.562e-05
0.6064
1.897e-07
0.005306
3.674e-06
0.6022
0.003045
0.5734
0.1335
0.009433
1.419e-05
0.005941
0.0004537
0.02424
0.4155
0.000515
0.4137
9.265e-05
0.0004703
0.01836
0.04858
0.4302
0.001582
0.5664
0.01225
0.003555
0.0118
0.005346
0.5618
7.503e-05
0.2093
0.0005812
0.0003041
0.00684
0.0001583
6.079e-05
0.004277
0.00115
0.002066
0.1964
0.004619