/*--------------------------------*- C++ -*----------------------------------*\
  =========                 |
  \\      /  F ield         | OpenFOAM: The Open Source CFD Toolbox
   \\    /   O peration     | Website:  https://openfoam.org
    \\  /    A nd           | Version:  8
     \\/     M anipulation  |
\*---------------------------------------------------------------------------*/
FoamFile
{
    version     2.0;
    format      ascii;
    class       volScalarField;
    location    "20";
    object      k;
}
// * * * * * * * * * * * * * * * * * * * * * * * * * * * * * * * * * * * * * //

dimensions      [0 2 -2 0 0 0 0];

internalField   nonuniform List<scalar> 
127143
(
2.476e-13
7.679e-13
1.507e-11
7.77e-11
2.054e-11
8.236e-11
9.595e-10
1.484e-10
7.349e-11
8.269e-10
1.993e-09
2.544e-10
9.424e-11
1.35e-10
0.0001705
4.716e-09
5.47e-11
0.07361
0.03684
4.47e-08
0.0142
1.776e-06
0.0001547
3.08e-05
1.596e-06
1.85e-06
1.111e-06
1.284e-06
1.355e-06
0.06537
2.329e-05
1.944e-06
1.736e-07
7.234e-05
0.0001515
1.67e-07
0.008159
0.05308
4.147e-05
1.818e-06
0.03719
0.0001541
0.0001535
7.087e-10
0.07164
8.199e-05
1.228e-06
0.01446
2.599e-05
4.187e-05
1.095e-08
0.0001498
0.01831
0.000156
0.0001397
1.676e-05
0.0001396
0.0001681
0.000148
0.0001559
0.0001537
0.02418
5.012e-05
0.0001482
0.000451
0.0001591
0.0001518
5.07e-05
5.058e-05
0.0002074
2.91e-05
2.327e-06
0.03912
0.000148
0.0001459
2.651e-06
0.000148
0.008162
1.661e-05
0.000149
1.215e-06
4.524e-08
0.0004643
3.672e-06
0.02784
0.009566
4.336e-05
1.048e-06
0.000158
0.0001222
0.0001467
0.02619
0.0001851
0.01435
0.006138
0.0001736
0.000154
1.135e-05
0.0112
0.0001518
0.0001489
2.729e-05
4.682e-05
0.0001478
0.009969
0.01084
4.585e-05
0.0002083
0.0001641
0.0001424
0.0001994
9.065e-07
0.01033
0.0001618
0.0001456
0.0001688
0.000148
0.0001459
0.0001479
1.571e-07
0.0001425
0.0005894
0.0001522
0.0001631
1.403e-06
6.361e-07
0.01892
0.0001495
0.006812
1.476e-05
0.005261
0.004968
5.654e-05
0.008359
1.789e-09
0.005511
0.0001569
0.01836
3.782e-06
0.0001544
0.0001553
0.0001472
0.02422
0.02743
0.01879
0.0001959
5.61e-06
0.0001483
0.004629
2.531e-05
0.0001208
3.202e-05
0.06261
0.0001524
0.0002316
0.02796
0.0001682
1.48e-05
0.01468
6.46e-06
3.716e-05
8.382e-09
0.0001468
0.005302
2.967e-06
0.000666
0.006131
0.0001564
9.795e-06
0.0001494
0.001554
0.02727
0.0001678
0.0001576
0.0006068
0.01788
0.0001953
0.006897
3.443e-05
0.0001575
0.0001579
0.0001551
0.01942
0.01807
1.533e-05
0.02479
0.0001521
0.0001619
3.424e-05
0.0001562
0.01418
0.00714
0.0001563
0.0002248
9.283e-10
0.02073
0.0001294
0.0001285
4.793e-09
0.0001459
0.0001455
0.0001495
0.004158
0.008841
6.03e-10
5.495e-05
0.0001536
0.0001228
0.05563
0.0001456
0.00075
0.02494
0.0001449
1.123e-05
0.002923
1.813e-09
0.0001904
0.000128
0.007608
0.0001537
0.000188
0.0001462
3.184e-05
0.01969
6.236e-06
0.001036
6.317e-06
0.0558
0.002809
0.01475
0.0135
0.0001549
0.03952
1.78e-06
0.01366
0.000158
0.005285
6.64e-12
0.0001455
0.01689
0.00761
0.0008449
0.01676
1.476e-05
0.03999
1.857e-07
4.275e-05
1.418e-06
7.65e-08
0.0002551
0.0001671
2.002e-06
0.0001307
0.0194
2.438e-05
0.0001658
0.0001495
2.733e-05
0.0001722
0.0001513
0.02203
0.0001516
0.01708
0.0001471
0.02176
0.0006724
0.00119
0.0002276
0.0001559
0.02626
4.749e-06
0.0005993
0.01698
0.01647
5.281e-05
0.01479
0.01053
3.22e-05
0.001137
0.0001776
0.000218
0.0001849
0.0001482
0.0001456
0.0001456
8.243e-10
0.005379
0.0001457
3.101e-05
0.000158
0.06459
0.0001586
0.0001579
0.0001669
0.0001453
0.000174
2.204e-05
0.01083
0.0167
0.02217
8.803e-06
0.0001601
0.0001556
0.0001691
4.89e-06
0.0002096
0.0001229
0.000145
0.04268
8.575e-05
4.308e-05
0.004225
1.206e-05
0.0001929
0.0001454
0.000114
0.04281
8.985e-06
0.0002559
0.005615
0.0001545
2.937e-05
0.000152
0.0001303
0.0001081
0.03753
0.0001506
0.01349
3.225e-05
0.0001841
0.01894
0.0001456
0.0001515
0.0001294
0.0001286
0.0001524
0.0001644
0.0001678
0.01891
0.004602
0.0001544
0.0001277
0.02191
0.01556
0.0001676
3.089e-05
0.001486
0.008976
9.775e-06
0.004753
1.318e-05
0.03918
0.01585
0.01507
0.0001498
0.001754
0.0191
0.0001915
0.0001497
3.165e-05
0.01955
5.006e-05
0.06991
4.641e-05
4.202e-05
0.0001468
0.0001459
0.003471
0.0006088
0.001145
0.0001558
0.0001521
3.843e-06
4.282e-05
0.0001556
0.0001547
2.156e-05
6.593e-06
0.01228
0.001187
0.07379
8.525e-07
1.462e-05
0.0001599
0.0001479
9.732e-08
0.0001508
2.246e-06
0.02004
0.05549
0.0001467
0.0001541
0.002155
2.727e-05
3.409e-05
2.126e-05
0.0001542
2.994e-05
0.0001498
0.0001514
2.876e-06
0.0001462
0.0155
0.01982
0.0001508
0.0001059
0.01074
5.87e-05
0.000149
3.78e-05
0.0001924
9.395e-06
0.0001553
0.01529
0.0001669
0.006366
0.01006
4.413e-06
0.06105
6.726e-05
0.006445
1.073e-05
0.002312
0.0002165
0.0144
0.0001515
0.0001534
0.0001536
0.001095
0.0001537
0.0001413
0.002263
0.01497
0.01611
0.02956
0.0001468
0.000108
0.001998
0.0001497
0.0001452
0.0001454
4.539e-05
0.000157
0.0001679
0.0001485
1.21e-05
0.0001455
0.0001695
0.003745
0.02513
0.01335
1.808e-05
0.0001139
0.0004761
0.0001507
0.01038
7.819e-06
0.001304
0.01052
0.06123
6.237e-05
0.01264
0.03849
0.0001566
0.0119
0.0004702
0.0001466
0.01718
0.0009823
0.0001386
0.01329
0.009107
0.0001632
0.04485
0.0001534
0.0001347
0.0002352
0.005793
0.001281
0.02847
1.685e-06
0.0001851
0.002966
1.247e-05
0.0001873
0.03044
0.0349
0.0001449
1.051e-05
0.0001471
0.000166
4.467e-05
0.01546
0.0001917
5.805e-09
0.004507
0.000157
0.0001608
0.0001585
0.0001449
1.406e-06
0.0001467
0.01484
0.02157
2.959e-11
7.687e-09
9.473e-08
0.000147
0.001831
0.00542
0.0001455
0.02029
0.0001298
0.005478
0.0001514
0.01298
1.802e-05
0.01339
1.464e-05
0.0004097
0.02572
4.13e-07
5.305e-05
1.015e-05
0.002086
0.0001476
0.0001246
0.002434
0.04025
0.0001457
8.605e-06
7.635e-06
0.001805
0.0001305
0.01701
0.0001576
0.0009634
0.000191
5.719e-06
0.04291
0.0001472
0.002811
0.0001863
0.0001388
0.00016
0.06436
2.633e-05
4.664e-05
0.0008828
0.0002889
0.02056
0.04226
8.391e-05
0.006367
0.002395
0.0001469
3.156e-06
0.006669
7.269e-06
5.416e-05
0.01623
0.0001483
0.0001479
0.0001512
0.001423
0.0001612
0.0001455
0.0001406
0.0001793
2.965e-05
0.01079
0.0001873
0.0002548
1.107e-05
0.0001727
0.0001475
0.0001426
0.00138
0.01191
8.938e-05
0.0001567
3.048e-06
6.283e-05
0.003573
0.001167
3.506e-06
0.0001455
0.01125
0.02208
0.05343
0.0001338
0.001315
0.02215
9.447e-08
0.0001346
4.752e-05
0.000213
0.0001453
0.0001062
0.0001457
5.399e-05
0.03442
0.0001456
0.0007114
1.963e-05
0.005205
0.008473
0.02746
1.376e-05
1.509e-05
0.0002026
4.376e-05
0.0002056
4.937e-05
0.01375
0.01654
6.492e-06
0.0001485
1.525e-05
0.0001455
0.0001626
0.0001495
0.02504
0.0001413
0.0001457
0.0001685
6.842e-05
0.0109
0.0001384
0.0001412
0.003303
2.74e-06
0.0008505
1.236e-05
0.02598
0.0001673
0.01335
0.0001928
0.01594
0.001448
0.0003059
0.0001385
0.002165
0.01706
0.0001666
0.03895
0.0001469
0.0001404
0.03953
5.483e-06
0.03499
1.665e-05
0.0001494
0.0001423
0.004216
0.002506
0.0001494
0.0006043
0.0001574
0.0001647
0.0007107
0.0001704
0.01768
0.000153
1.189e-09
0.001283
0.01072
0.0103
0.005497
0.005727
4.5e-06
0.00255
0.0001492
0.008165
0.0123
0.01595
0.0001417
3.309e-05
0.0001568
0.0001528
0.0001304
0.0001415
3.484e-06
0.0001609
1.808e-05
0.007304
0.0001745
0.04245
0.0001639
8.914e-06
0.000152
2.742e-05
0.0001448
0.0001393
0.0001691
0.0001516
0.0007752
0.0001528
7.451e-06
0.02353
4.129e-05
0.0003101
0.06875
0.0001407
1.579e-05
0.0001535
2.173e-05
1.726e-09
7.961e-05
0.02342
0.01275
0.0001353
4.804e-05
3.995e-05
9.594e-06
0.05255
0.03092
0.01599
3.199e-05
0.009894
8.318e-05
0.02916
3.148e-05
4.525e-05
8.635e-05
0.01933
0.0001608
4.873e-13
0.0001567
0.0001493
5.918e-05
0.0001539
4.333e-05
0.0001441
0.01661
0.04004
0.01095
0.0001455
1.357e-05
0.002533
3.735e-06
0.0001575
0.002196
0.01213
0.002446
0.005108
0.0001486
0.013
0.003667
0.0006824
0.01884
0.000146
0.02204
0.0002542
0.0001464
0.0001247
0.0001683
0.006191
0.004574
0.0001591
7.952e-05
1.627e-06
0.001609
0.0001279
0.01292
0.02326
2.328e-06
1.012e-05
0.0001571
0.02061
0.0003309
0.0001284
0.005765
0.0007439
0.02898
3.414e-06
0.02946
0.001929
0.01258
0.01847
0.0001733
0.0001469
4.647e-10
0.005686
0.009107
0.0004084
0.01161
0.002772
0.003385
3.625e-05
0.0001424
0.04283
0.000149
0.0001431
0.002487
0.0001662
4.496e-05
0.0001485
0.0001364
0.01387
0.01699
0.0001449
0.000136
0.04051
0.02354
0.02582
0.003322
0.01144
1.391e-08
0.0001381
0.0001533
0.0001418
0.008596
0.007142
2.607e-05
6.849e-06
0.000156
0.0001914
0.0001472
0.002354
1.847e-06
0.0001419
0.0002245
1.369e-05
5.079e-05
1.31e-06
0.0001484
0.02213
4.762e-05
0.0001459
9.805e-06
0.0001416
0.0001564
1.42e-05
0.004006
0.03741
8.97e-07
0.0001463
0.0008313
0.0001532
9.159e-06
0.009295
5.299e-06
3.251e-05
0.0001569
0.0001665
0.0001622
1.588e-08
0.0001458
0.06682
2.128e-05
5.51e-05
0.01203
2.033e-07
0.0001874
0.0003903
0.001364
1.612e-06
1.091e-06
0.002699
5.916e-09
0.0002609
5.324e-09
0.00494
0.0004886
0.04382
2.019e-07
0.0001479
4.055e-05
0.0001332
0.0001324
0.02088
0.0001502
0.009426
0.04936
0.0001608
0.0001656
0.0001562
9.326e-05
5.768e-05
0.0001467
0.05812
0.007416
0.0001561
0.000673
3.322e-07
0.02342
0.0001408
0.0001904
0.03332
0.00219
0.0001451
0.0158
2.216e-05
0.0001493
0.0008899
0.006575
0.02606
0.0001379
0.006248
0.06912
4.475e-09
0.0001791
3.02e-07
0.01387
0.0001901
6.616e-05
0.0001316
0.001671
0.0001302
4.939e-06
0.0001542
0.0001309
0.0001726
1.402e-06
0.06832
0.0002706
0.0001101
0.0001652
5.631e-05
2.882e-09
2.97e-05
0.0001474
0.0001461
0.0001351
0.0001809
0.004431
0.0009344
0.0001785
5.12e-06
0.008765
0.000153
4.714e-06
0.0001546
1.646e-05
0.0001445
0.01373
0.002852
0.02197
0.002565
0.01177
0.0001457
0.000146
0.0005597
0.0001557
0.005482
2.734e-05
0.001767
0.01925
0.04059
0.003584
0.002843
2.152e-08
0.02071
1.736e-05
0.0005509
0.0001115
0.01861
0.0002256
0.002981
0.001514
4.348e-06
0.01138
0.0001441
0.000143
0.01427
0.01322
0.0001678
0.0001395
0.0001942
0.01325
0.000169
0.001868
0.04287
0.001129
0.0001572
0.000149
0.0001613
0.0001712
8.403e-07
5.013e-06
0.01299
0.0001545
0.06938
0.000789
3.272e-05
6.389e-05
0.02435
0.0001837
4.13e-05
0.006213
3.972e-06
0.0001498
5.834e-06
0.0001294
0.02368
0.009359
0.0001663
0.0001457
1.195e-06
2.576e-08
0.0001364
0.0001441
0.01355
0.01192
6.786e-07
0.01158
4.109e-05
3.623e-05
0.0008575
0.0001627
0.0001662
0.0001477
0.0006923
0.03322
0.001685
0.0001715
0.0005936
0.008818
0.0001508
2.967e-08
0.009364
0.0001453
0.003174
0.0001416
0.0001447
9.251e-05
0.0001552
1.156e-06
0.0001443
1.084e-05
0.000146
0.0001598
0.0001549
0.05876
0.0001347
1.36e-05
1.884e-05
0.0006045
5.636e-05
0.000198
0.0001558
0.0226
3.323e-05
0.002898
0.0009642
5.527e-07
0.0005902
5.687e-07
0.007741
2.554e-05
0.0003211
2.377e-05
1.488e-06
0.0001521
0.04639
0.0001721
0.001643
0.01406
4.643e-06
0.0001785
9.846e-05
0.01779
4.659e-05
7.637e-05
0.01346
0.0001674
0.0003725
0.02844
4.666e-05
0.007577
1.232e-05
0.009105
0.0001373
7.131e-05
0.001616
0.000146
0.003052
0.0007405
0.0001381
0.0001724
0.00963
0.0001541
0.0001522
0.03777
0.01661
0.0001588
0.0001321
0.002948
0.002003
0.0001452
0.000152
0.0001508
0.01317
0.001949
0.0001454
0.0001555
0.002386
5.364e-06
1.515e-05
2.48e-05
0.01591
1.909e-07
0.0001997
4.231e-05
0.0001456
0.00802
0.0001876
0.004604
7.571e-05
0.003377
2.636e-05
0.0001471
1.008e-07
0.0001989
0.0003063
4.933e-05
3.591e-05
0.02511
0.0534
4.514e-06
4.728e-05
0.0001505
1.968e-10
0.01154
3.989e-05
8.438e-06
3.26e-05
0.000181
0.01729
8.153e-05
4.745e-05
0.00452
0.03604
1.844e-05
2.649e-05
0.06502
3.506e-07
0.0001596
4.97e-05
0.0001574
1.168e-05
0.0001311
0.0001448
0.04073
1.159e-07
0.01273
0.002464
9.28e-07
0.0007808
0.0001459
1.998e-06
4.127e-05
0.04085
2.753e-06
0.0001743
0.007628
3.737e-09
0.05872
2.2e-05
0.01659
4.572e-05
4.357e-05
2.182e-05
5.963e-06
0.0001885
0.002707
0.0001587
0.0603
0.02595
0.003397
0.0001665
5.33e-05
0.02275
9.388e-05
0.01668
0.0001626
0.02241
0.0001538
0.0001625
0.0001307
3.322e-07
0.000151
4.419e-06
0.000107
0.005484
0.006285
0.0001459
0.01937
0.01206
0.0001689
9.044e-05
8.962e-06
5.165e-06
0.0001427
1.936e-05
0.001792
0.01076
3.862e-08
0.01342
0.03992
0.001383
0.0001466
0.001193
0.005509
5.221e-07
0.004741
0.000162
0.01801
0.0001454
2.196e-08
6.811e-08
0.009342
0.0001664
0.0001704
0.0001354
0.0001316
0.005408
0.02645
0.02968
0.0001548
0.0001536
0.0001548
0.0001588
0.009142
0.03849
0.001647
2.905e-05
2.846e-08
0.0001664
4.158e-06
0.007828
0.001885
0.0001319
2.391e-05
0.01685
8.806e-05
1.771e-08
0.06443
0.02743
0.004216
5.026e-05
0.01431
3.558e-08
0.07498
0.008128
0.02117
0.02761
0.0001412
2.88e-05
1.632e-08
0.0001567
0.003932
0.0001414
3.273e-05
9.415e-05
0.0001355
0.0001191
8.501e-05
0.006764
1.765e-05
0.0001429
0.0001645
1.644e-09
0.0001458
4.66e-05
0.0006208
4.694e-05
7.471e-06
0.0001673
0.0001464
0.003561
2.809e-06
0.005534
0.004075
0.0001512
7.032e-05
4.881e-05
2.437e-05
0.002394
0.005522
0.0001452
0.003903
0.03933
9.108e-06
0.0002323
0.02311
0.005256
0.0001457
0.0001646
0.002213
0.0001456
0.02356
0.000138
2.349e-05
0.02422
1.693e-07
0.003771
0.02298
5.914e-05
0.01108
4.866e-05
2.67e-05
3.457e-09
0.00574
0.00266
0.02843
0.01399
0.01716
0.0001482
0.01304
0.0001469
0.01725
0.0001474
0.02591
0.0001435
0.001877
0.007042
0.0001381
0.0001445
0.01028
0.0001663
0.0002706
0.000155
0.0001343
0.0001865
0.009729
0.0001503
5.771e-08
3.49e-05
1.501e-06
3.394e-05
5.88e-05
2.613e-05
3.422e-05
0.0205
0.003699
1.252e-06
0.02222
0.0002333
0.001042
0.01137
0.01682
0.0334
0.0001441
3.422e-09
0.007602
2.967e-06
0.0001458
2.123e-08
7.236e-05
2.276e-05
0.008319
0.000131
0.0001309
0.02171
0.07636
0.01243
0.02101
4.834e-05
0.0001684
0.0001567
0.006629
0.0001559
5.274e-06
0.0002079
0.0001875
0.01174
0.0001403
0.0004714
0.0004924
5.78e-05
2.252e-05
0.01331
0.0001466
0.01458
0.01129
2.427e-07
0.02202
0.0001542
8.495e-05
0.002946
4.061e-05
0.0154
0.0002336
0.06217
0.0001455
0.01414
0.0001562
1.78e-08
5.793e-06
0.0001679
0.005785
0.0002094
0.0001732
0.0001305
0.0001661
0.001208
6.283e-09
0.0001522
4.036e-07
0.008597
0.000144
0.00306
0.001578
0.02219
0.0001523
0.01989
0.003226
5.541e-05
0.008568
0.04814
2.049e-05
0.0001527
0.0001201
0.0002694
1.279e-05
0.0001786
0.0001781
2.199e-05
0.0001794
8.627e-09
0.0001985
8.553e-06
1.035e-05
3.817e-09
0.003614
0.002627
0.0001496
0.0001459
0.0001438
0.01601
0.0001435
5.465e-08
0.0001454
2.635e-06
0.0001583
0.0001983
0.002004
1.789e-05
0.0002331
5.377e-06
0.0002585
0.0002568
0.01279
1.284e-05
0.0001449
0.004909
0.0005805
0.01394
0.0008003
0.002308
0.009828
0.0001569
0.0001454
0.0001543
0.0001372
4.278e-05
0.0001824
0.0001331
0.0001598
0.0002012
0.0001372
2.632e-06
0.0001462
0.01707
0.02853
0.0192
0.0002281
0.0001393
0.01282
0.0006995
0.01873
0.0001521
0.0001189
0.0001553
0.0001455
0.0001417
0.01439
3.119e-08
0.000148
4.307e-05
0.0001501
2.567e-06
0.0001639
0.0001534
0.0001722
0.0001703
0.002795
1.896e-05
0.0001507
7.471e-05
0.000147
0.01415
0.0001486
0.0001529
9.51e-05
0.0219
0.0001587
8.817e-06
0.002811
0.0001416
0.02832
2.563e-06
0.001213
2.781e-08
4.721e-06
0.03292
0.0001535
0.000177
4.556e-06
0.0226
8.259e-05
7.635e-05
0.0002045
0.0001566
0.0001445
0.005393
3.659e-05
0.01153
0.0001459
0.004044
0.0001456
0.0001635
0.002775
0.0001433
0.03531
0.0001714
0.0001896
0.01863
0.002265
2.641e-05
0.0001467
2.563e-05
5.423e-06
0.0001652
0.03442
3.388e-05
0.0001595
0.04562
0.01611
2.538e-05
0.0001606
0.01299
1.039e-05
0.008982
0.004198
1.396e-05
0.0001594
0.0001552
0.0001362
0.0001522
2.913e-05
0.01197
0.000152
4.542e-05
0.0001486
0.0007656
0.0006309
0.06858
0.04677
0.004798
2.679e-08
0.007446
1.704e-07
0.0001677
0.0001377
1.765e-07
4.027e-05
0.000158
2.181e-05
0.0001513
0.02928
0.0001491
0.0241
5.09e-07
0.01788
0.0001892
6.426e-05
3.835e-05
0.0001464
4.947e-05
0.0001539
0.0001854
6.29e-05
0.0001496
4.865e-05
2.638e-06
0.0001444
0.0001492
0.01531
0.0001942
0.01668
0.000174
0.0001726
0.0001989
0.0001678
0.02092
0.0002221
0.00238
0.009347
0.0001374
0.0001545
1.954e-05
7.496e-07
0.0001399
0.00203
5.072e-07
0.04019
0.00048
0.02119
4.274e-05
7.089e-07
0.00017
0.0002703
0.01312
0.0001518
0.000473
0.0001939
0.017
1.77e-06
0.003853
0.0001492
0.002839
1.132e-09
1.409e-08
0.01561
0.01244
0.003502
0.0001674
0.01676
0.0001082
0.01839
0.0002437
0.006182
0.01045
9.512e-05
2.978e-06
0.01056
0.0001639
0.0001454
0.0001777
0.0001616
0.008023
0.0001532
0.0001517
4.373e-05
0.01556
0.04028
0.000136
2.103e-05
4.971e-06
0.05299
0.002014
0.01459
2.086e-08
2.788e-05
0.0001496
0.002395
7.543e-05
0.01424
4.127e-05
1.255e-08
0.0001282
1.633e-06
0.0001609
3.821e-05
0.0001346
0.01343
0.01915
1.021e-05
0.002324
0.02872
5.02e-06
0.0001572
0.0001663
3.178e-05
0.0001538
0.02439
0.0001457
1.981e-05
1.058e-05
4.892e-05
7.88e-06
8.547e-06
0.01428
1.165e-07
0.0002655
0.0002162
0.0001831
0.02521
0.0001517
0.04645
6.318e-05
0.01732
4.724e-05
0.0001964
5.634e-05
3.238e-09
1.387e-07
0.007649
0.06725
0.0001638
0.0001598
0.0001463
0.0001493
0.008171
0.0001639
0.0001451
4.562e-05
4.657e-05
3.004e-05
0.006534
0.0001458
4.846e-05
0.03684
0.0001435
5.736e-07
1.305e-05
0.000157
4.724e-05
4.302e-09
0.02069
0.0003586
0.05075
0.0001103
0.0002836
2.357e-10
0.000113
9.975e-05
0.0001494
0.0001574
3.606e-05
0.006893
0.0001456
0.0001471
0.01646
5.181e-06
0.02374
4.508e-05
1.158e-07
0.0001729
0.0001493
6.119e-06
0.02437
0.007245
1.309e-06
0.001387
0.02679
0.01898
0.005059
0.000168
0.007298
0.0001465
0.001971
0.03067
5.257e-06
0.06781
3.008e-05
2.922e-05
0.0001716
6.352e-06
0.04104
0.0002583
4.75e-05
0.0006067
0.000152
0.01853
0.007001
0.009693
0.0008485
0.007231
4.383e-05
0.0007193
0.0001454
0.007901
0.05146
7.744e-06
6.17e-05
0.0005883
0.03298
0.0001549
4.442e-05
0.0001618
0.006192
0.02317
0.01155
0.02432
0.02194
0.0007374
6.708e-07
0.0001628
0.0001491
0.0003191
0.0001395
0.01691
0.0001502
0.0001676
0.02055
0.0001439
0.0001646
4.687e-05
0.0007531
0.0001457
0.0001489
0.02638
8.509e-05
0.001465
0.0001956
0.03098
0.01313
1.136e-05
1.947e-05
0.07563
0.001028
0.05235
0.0001597
4.418e-05
5.114e-08
0.02498
2.195e-05
2.654e-05
0.02294
2.912e-08
0.0001455
0.0001373
0.000164
0.0001543
6.676e-09
0.0001459
0.03078
0.0003035
2.344e-08
0.0006258
1.31e-05
0.0001247
0.0001244
2.389e-05
0.006055
0.01496
0.000226
0.0001503
0.06199
0.0001639
0.000149
6.791e-06
4.599e-05
4.696e-05
0.01685
1.236e-06
0.008905
0.0001758
0.0001322
0.0001177
5.262e-05
7.741e-06
2.499e-05
0.005702
3.383e-06
0.002872
0.01258
5.206e-05
0.001653
0.005047
0.0001549
0.0001245
2.351e-05
0.0001338
0.0001322
0.001077
0.005543
4.729e-07
0.0001629
3.477e-05
0.005582
0.0003568
0.0001455
0.0001843
0.0001482
0.01131
9.627e-08
0.0001842
0.0001574
8.773e-05
0.0001531
2.642e-06
8.828e-05
0.0001934
0.0001083
0.0001295
4.333e-05
0.01644
0.0001325
0.004516
0.009972
0.01199
0.008258
9.491e-05
0.0178
8.994e-06
5.08e-05
0.007404
0.01103
1.839e-05
0.009133
0.00252
0.0005356
0.0001572
0.0001643
0.0001235
1.125e-07
0.0001663
0.003842
0.0001476
0.01882
0.0001484
3.889e-05
0.02668
1.206e-07
0.00169
0.0001535
9.787e-05
1.673e-08
6.202e-06
0.01314
5.007e-05
1.107e-05
1.287e-05
0.0005905
0.0161
6.002e-05
1.204e-07
0.00365
0.007398
0.0001683
0.0001612
0.0001456
0.02453
3.216e-05
0.000151
0.003081
0.02549
0.0001552
4.286e-05
0.0001312
0.03403
0.0001666
0.03167
1.879e-05
0.0001648
0.0001732
0.02797
0.000151
7.488e-05
7.762e-05
7.275e-07
0.0004245
0.0002586
0.000143
0.009575
0.001435
6.579e-05
4.435e-05
5.898e-05
0.03212
0.009765
0.0001455
2.919e-05
3.656e-05
0.0001789
0.000199
0.0244
5.031e-05
1.013e-05
4.097e-05
0.0002006
0.0002519
0.000156
6.594e-05
0.04722
0.0001548
4.86e-07
0.0001815
0.03359
0.0001457
0.0001473
0.0001955
0.0001466
0.0005978
0.0001005
0.05692
0.02283
1.022e-05
5.583e-05
0.003624
0.0001027
0.003617
0.02378
1.119e-07
0.01083
0.004479
0.005512
2.82e-07
0.02059
1.448e-05
3.919e-07
0.0001491
0.0001978
1.168e-05
0.0001548
0.01785
0.0001868
0.0002063
0.0001098
0.01174
0.01013
0.0001495
0.03868
0.0001478
0.0001669
0.01784
0.005559
0.007085
0.0187
1.283e-07
0.01549
0.0001469
0.002018
0.008083
0.05248
5.297e-05
0.00936
0.000244
1.141e-05
8.132e-06
1.619e-07
0.001975
4.291e-05
0.002705
0.004781
0.002523
0.0001521
2.111e-07
0.002421
4.563e-05
0.0001633
0.0001442
0.004333
0.001521
0.01678
0.0001568
1.451e-07
0.0003834
0.0001202
0.0706
0.01052
2.3e-05
0.0001448
0.0005663
0.02398
0.0001518
0.0001399
2.187e-05
0.0001454
0.002701
0.01675
0.0001638
9.377e-07
0.0001784
0.008485
1.45e-08
0.008476
3.69e-05
0.0001315
0.0001305
4.469e-05
0.04276
0.0001766
0.0003285
5.102e-05
0.0001438
4.299e-05
7.489e-06
0.01683
0.0001457
0.0001469
0.01651
0.0613
4.618e-05
8.486e-10
1.787e-05
0.0001531
1.736e-05
2.14e-06
0.0001549
1.486e-05
3.966e-05
0.0002703
0.0001687
9.306e-05
0.075
0.01518
0.0001303
0.0001284
0.0001287
0.0001265
0.0001592
0.02219
0.0001231
3.439e-05
0.0001385
0.005202
0.01219
0.0001322
0.0001271
0.005678
0.009655
0.0008269
0.0003481
0.000387
0.01323
4.865e-05
2.651e-05
0.01791
5.133e-05
0.0001665
4.501e-05
1.355e-08
4.639e-05
7.737e-07
0.0001535
0.0001469
0.0001455
2.58e-07
0.005114
2.787e-05
0.0001287
0.0001507
1.103e-07
0.0001459
0.008406
0.0005724
0.0001735
0.006321
0.005163
0.01874
0.01022
3.975e-05
0.0001516
0.0003598
0.0001369
0.00017
0.00101
0.002044
0.01572
0.0001624
0.0001437
0.0001457
0.0001599
0.006064
0.0002032
0.0001698
0.01633
0.004449
0.0001623
3.13e-05
2.618e-05
0.03911
0.02341
0.02421
0.006172
0.0001619
1.818e-08
0.0001529
0.0001454
7.563e-07
0.0001454
0.0001449
0.0003369
0.0002644
9.681e-06
0.01454
7.62e-06
0.01103
2.701e-05
0.0001464
0.0001583
0.005264
3.407e-05
0.02112
0.0001882
0.0001581
2.247e-06
2.854e-05
0.0001483
3.86e-06
2.534e-05
2.64e-09
0.0001968
0.03841
0.02945
0.0001554
0.0001489
0.04057
0.0001748
1.412e-06
0.0001516
1.287e-05
7.255e-08
0.0001456
2.211e-05
0.0001212
5.204e-05
0.0001458
9.86e-06
2.548e-07
9.443e-09
3.281e-08
0.0001672
0.04025
3.897e-08
0.0001578
0.004598
0.000144
0.01662
0.0001275
0.03467
0.0009895
3.131e-08
0.000225
0.01545
0.0001486
0.0001492
0.0001528
2.662e-05
0.0002983
0.04613
0.0001467
0.007139
0.000166
0.01872
0.01785
0.004305
0.006932
0.0001456
0.01826
0.0158
3.408e-05
0.0008039
0.0001292
2.588e-05
0.0002712
3.945e-07
1.188e-07
1.973e-10
2.012e-05
0.0001544
2.308e-05
0.000149
7.708e-06
1.248e-05
0.0001456
2.966e-08
0.0001489
0.002237
9.911e-06
4.089e-06
0.01493
0.0002225
0.001576
0.0001237
0.0001302
1.577e-08
0.02372
0.0001635
0.01953
0.009226
1.475e-07
1.48e-07
2.063e-07
0.0212
2.308e-05
0.0001034
0.01901
0.0001522
4.629e-05
3.897e-06
0.0001392
0.007317
4.984e-05
0.01074
5.03e-05
0.01559
0.04142
8.157e-07
4.097e-05
5.499e-05
2.064e-07
0.0001857
1.753e-06
0.000153
6.585e-05
0.002674
0.0001484
0.0001563
7.075e-05
0.0007679
0.002269
4.286e-07
0.0001587
0.0001456
0.0001438
3.184e-05
1.438e-05
0.012
0.03206
0.0001261
0.0001515
5.458e-06
0.0001265
0.0009368
3e-05
0.0001546
0.003645
0.01421
2.808e-07
3.235e-07
2.099e-08
0.0001507
1.736e-05
0.006359
0.004908
0.04315
0.02758
3.439e-06
0.01724
9.807e-06
2.976e-05
3.988e-05
5.296e-05
0.0001727
1.222e-07
0.0231
5.015e-05
0.01669
0.0001599
6.007e-05
0.0002268
0.0001462
9.513e-05
0.0002529
0.005797
0.0001235
5.506e-05
2.824e-07
8.702e-09
0.02694
2.455e-07
0.0006105
0.0005569
0.0001505
0.0001552
0.0001527
0.0001489
0.0001033
2.997e-07
0.001013
2.119e-05
0.07415
0.03276
7.705e-05
0.005416
0.01785
0.0008568
0.0234
2.652e-06
0.004323
0.0001358
0.007
5.147e-05
0.0001477
0.0001562
4.488e-06
0.0001463
0.002703
0.002438
3.102e-05
0.0001559
1.507e-06
0.0002362
0.06205
0.0001509
1.537e-05
0.0004146
2.752e-05
5.738e-05
0.0001433
4.493e-05
0.0001444
0.000169
0.002463
0.05881
2.661e-08
0.002803
1.321e-05
0.03405
7.279e-06
0.0001602
0.0004754
0.01184
0.0009378
0.000139
0.0001579
0.0001463
1.488e-05
0.0001254
0.0001834
0.006467
0.0001431
0.0004965
2.796e-05
0.005552
0.0001442
0.002713
0.0005185
0.000148
0.05701
0.0001595
0.0001722
0.002554
6.758e-05
0.0001566
0.0001686
0.0001576
0.0002085
0.006086
0.000137
0.0001352
0.0001471
0.0001544
0.0001523
0.001175
0.0006001
0.000146
3.548e-05
0.0001934
4.278e-05
0.0001469
0.000132
0.0001526
4.001e-06
0.000253
1.978e-08
0.04206
2.867e-06
0.0001507
0.0001596
5.275e-07
0.0001506
4.513e-05
4.83e-05
4.639e-05
0.001543
0.00693
0.000146
4.97e-05
0.001821
0.01739
0.007141
0.01524
0.000125
0.01054
7.291e-05
4.805e-05
0.0001438
0.01642
7.315e-05
6.218e-06
0.0001521
0.0001481
0.0008644
0.0002528
0.01236
0.0152
0.0001106
5.255e-05
0.0001543
6.422e-05
0.006042
0.02414
0.01087
0.0627
0.0001358
0.0001818
2.791e-08
0.04398
0.01118
1.967e-05
0.0001675
0.0001621
0.000145
0.0001502
0.0001612
0.000159
4.831e-07
0.003515
0.000147
0.0001477
4.939e-05
2.14e-09
0.0001469
0.0129
3.056e-05
4.304e-05
0.0001704
0.004339
6.196e-05
0.007395
0.0001847
1.194e-05
2.311e-06
0.0001324
0.0001462
0.006756
0.03308
0.004215
0.0001429
0.0001706
0.002425
0.01652
0.001519
5.883e-08
3.258e-06
0.0673
0.0004533
1.941e-06
0.03134
4.341e-05
0.01285
0.0001717
0.0001688
5.043e-06
1.41e-07
0.0001443
0.001904
5.4e-05
0.0001469
3.018e-05
0.01427
0.000168
0.0001559
0.02351
1.246e-05
0.001614
0.0001516
0.0001457
0.0001459
0.06063
0.01101
0.0001341
0.02852
0.0001491
1.257e-05
0.03327
0.01491
2.917e-05
3.372e-06
0.05956
0.0166
0.0001429
4.736e-07
0.0001749
7.003e-05
2.047e-05
0.0001549
0.000138
0.02962
0.003191
3.25e-08
0.03307
8.055e-07
0.0001385
0.000142
0.009477
0.000152
0.000143
3.177e-08
4.692e-05
4.213e-05
6.708e-05
0.04052
0.009447
0.0001357
2.525e-08
0.0001564
7.135e-05
0.0001351
0.0001529
0.01579
0.009878
0.0079
0.02371
0.02825
0.001577
0.0001362
0.008324
0.0001684
5.316e-05
1.474e-05
0.0001615
0.01762
9.552e-05
0.0001471
0.002661
0.001417
0.0004947
0.0001547
0.01539
7.384e-07
0.0001303
0.0001437
7.998e-05
0.0003887
0.02403
2.332e-05
0.0001478
0.0001819
0.003704
5.416e-05
0.000148
0.0001537
8.154e-06
5.128e-05
8.778e-05
0.01227
0.0002022
0.0001367
2.242e-05
0.0001404
0.0004854
2.753e-08
0.0001603
0.009088
0.0197
0.0005276
7.844e-06
0.001905
0.000153
0.0001363
0.01128
0.0001589
0.0001448
0.001695
0.0001195
0.03048
0.0001364
0.0001557
0.0001557
0.0001495
6.862e-05
0.005903
0.0001456
0.0001218
7.41e-05
0.00219
0.0001505
0.0001467
0.0001448
0.0001584
0.04749
0.05637
1.603e-05
2.709e-08
1.87e-07
7.302e-05
1.445e-06
2.175e-06
0.0001481
5.104e-08
0.009259
0.0001174
0.02881
0.0001563
0.0002493
0.0001842
0.0005093
5.824e-06
0.001073
0.0001579
0.01071
5.284e-05
5.142e-05
0.0001924
0.0001649
0.006904
0.0001555
3.973e-05
0.000147
0.01044
0.0001423
0.007249
0.0001534
0.0005918
1.708e-07
2.76e-05
0.0001373
1.046e-05
0.009962
0.000133
0.0001898
0.000146
0.0002126
0.006873
0.0003127
0.001395
0.0001062
0.0001495
0.0001704
0.03473
4.767e-07
0.0001471
0.0001533
1.917e-07
0.0001413
0.0001443
3.081e-06
0.01181
0.0001531
0.0001531
0.04781
4.247e-05
3.883e-08
1.639e-05
0.00813
0.02751
0.006393
0.0001555
0.0001451
0.0001545
5.352e-05
4.474e-05
0.005256
0.0001479
3.477e-07
4.269e-05
5.899e-05
0.01177
0.008386
0.007794
0.0001343
0.0001563
0.0007161
0.002638
0.0001511
4.186e-05
1.495e-05
0.03484
0.000164
0.0001751
0.02221
0.000151
0.02622
6.444e-05
0.03903
0.000135
0.0001477
0.0001909
0.0003913
0.01093
0.0001591
0.0001487
0.0001519
0.006176
1.176e-09
0.03241
0.0001626
0.000473
0.0001415
0.0001401
7.32e-05
2.711e-06
7.793e-05
0.003363
2.107e-05
1.382e-05
0.02189
0.0001591
0.008657
2.683e-05
6.551e-07
0.01553
0.0001522
4.282e-06
0.0001682
6.446e-06
9.936e-05
0.02273
0.02079
3.992e-05
0.0001459
0.008114
0.0001676
0.0001448
0.003255
4.089e-06
0.002964
4.945e-08
1.663e-05
0.002114
0.0001449
0.02588
0.003117
0.0001623
0.01663
0.01354
0.0007806
0.002373
0.0001052
0.0001465
0.00489
0.0001382
0.0001488
0.002352
0.0002027
0.0001608
2.79e-05
2.852e-08
0.0001421
0.0001455
9.022e-05
7.754e-05
5.953e-06
0.0001646
0.007042
1.194e-05
0.04334
0.01951
0.000146
0.0001647
5.032e-06
0.0001522
0.01156
0.0001442
9.037e-05
0.0001522
0.0169
2.132e-05
0.004296
0.000628
7.791e-05
0.04408
0.0001503
0.000839
0.005323
0.0007548
0.0001437
0.0001491
2.136e-05
9.695e-05
9.244e-05
0.03719
0.005566
0.0496
4.142e-05
0.000116
0.0001282
0.000153
0.0001622
8.57e-09
2.153e-05
0.0001419
0.0001426
1.823e-05
5.187e-05
0.0006852
0.0005975
7.803e-08
0.000176
0.02105
4.882e-05
5.462e-05
1.337e-05
2.132e-06
0.07504
0.0002019
0.04596
0.0001503
4.315e-09
0.0001473
0.02519
1.972e-05
7.475e-05
0.0196
9.682e-05
0.00939
6.426e-06
0.01732
0.0002597
0.03809
0.0001408
0.001675
8.574e-09
0.01277
6.2e-07
1.959e-07
0.0001456
6.11e-07
0.0002177
7.458e-06
9.711e-05
0.02011
0.07423
0.004863
4.574e-05
0.0001321
0.0001508
0.02156
0.0152
0.01408
0.01836
0.006115
0.0001579
0.0001609
0.07105
4.706e-07
0.01051
5.975e-05
4.622e-05
1.755e-05
0.0001348
0.0007185
0.006049
5.55e-05
0.01904
1.29e-07
0.001981
4.298e-05
0.0001549
5.153e-05
0.0001537
0.01581
0.01048
0.0001588
0.0001676
0.0115
9.459e-05
0.01218
0.002925
8.745e-05
3.641e-05
0.01135
1.251e-07
0.0001043
1.095e-06
0.0001506
0.05187
0.005277
0.02788
0.0001532
0.0001187
0.0001455
0.0001471
0.0001455
0.009512
4.359e-05
0.005443
0.03163
0.0001517
0.0127
0.0001512
1.511e-07
3.14e-06
5.232e-07
4.525e-05
0.0001542
1.223e-05
8.418e-05
0.0001582
0.0002058
0.0001464
0.02821
0.03116
0.001847
0.06382
0.0001422
0.0001429
0.004774
0.02401
0.0001519
2.155e-08
4.124e-05
0.0001398
0.0001459
4.861e-05
0.0001515
2.244e-05
4.202e-07
0.0001562
0.0001735
0.001474
0.0001537
0.001299
3.27e-08
0.0001892
0.000162
5.584e-05
3.336e-05
0.0001539
0.002066
0.0001472
0.0001653
1.24e-05
0.004397
2.83e-08
0.0001512
8.559e-05
0.001117
2.504e-05
0.0001462
0.0106
0.0001457
0.02977
0.06555
0.0001328
0.02086
4.535e-05
0.0002204
0.0001609
7.191e-06
6.758e-05
0.0004145
1.303e-05
1.245e-05
0.006881
0.01991
4.941e-05
0.002432
0.01656
3.42e-05
0.0001388
6.349e-07
1.344e-07
5.465e-06
5.65e-05
0.0001575
5.138e-06
2.819e-05
0.0001612
0.00024
5.485e-06
0.004815
0.0001635
0.0001354
0.0001892
2.901e-05
0.0001225
0.05541
0.0001007
0.05408
0.0001429
5.049e-05
5.71e-05
0.0001896
2.177e-05
9.031e-10
0.000404
0.008937
0.0001285
0.01102
0.004437
2.037e-05
0.008795
0.02786
0.02421
3.865e-06
0.01239
0.0001599
0.01044
1.717e-05
0.0001524
0.0357
0.0001529
0.04424
4.163e-07
0.001337
0.0001476
0.0001484
0.03417
1.408e-07
0.001207
0.0001433
0.0001572
1.324e-05
0.0001523
0.009999
1.191e-05
0.0004627
0.02501
0.000145
0.0001624
0.01945
0.01444
0.0001621
2.358e-05
0.0001384
1.814e-05
0.01303
0.001613
0.00879
0.009042
0.008596
2.677e-05
0.0001674
0.0001529
5.114e-05
0.000146
1.87e-08
0.0001507
0.0001347