/*--------------------------------*- C++ -*----------------------------------*\
  =========                 |
  \\      /  F ield         | OpenFOAM: The Open Source CFD Toolbox
   \\    /   O peration     | Website:  https://openfoam.org
    \\  /    A nd           | Version:  8
     \\/     M anipulation  |
\*---------------------------------------------------------------------------*/
FoamFile
{
    version     2.0;
    format      ascii;
    class       volScalarField;
    location    "20";
    object      nut;
}
// * * * * * * * * * * * * * * * * * * * * * * * * * * * * * * * * * * * * * //

dimensions      [0 2 -1 0 0 0 0];

internalField   nonuniform List<scalar> 
127143
(
6.482e-21
1.069e-20
1.839e-19
2.224e-18
7.002e-18
2.328e-18
8.28e-16
7.328e-17
2.272e-17
1.752e-15
1.17e-15
9.558e-17
9.774e-19
4.563e-18
4.155e-07
5.946e-14
5.528e-18
0.005134
0.003659
1.368e-12
0.0006883
2.488e-11
7.028e-05
1.188e-07
2.076e-11
1.156e-09
1.887e-10
2.241e-10
2.658e-10
0.004981
5.709e-08
1.105e-09
2.751e-11
7.092e-08
5.056e-05
2.475e-11
0.0001946
0.001041
1.943e-07
8.492e-10
0.003667
4.838e-06
5.153e-06
5.163e-17
0.005139
8.291e-08
2.682e-10
0.000897
9.895e-08
1.533e-07
2.164e-13
0.0004616
0.000433
3.188e-05
0.006672
3.077e-08
0.006672
0.0001018
0.004996
2.969e-05
4.076e-06
0.002498
7.212e-07
0.006702
1.401e-06
2.307e-05
5.354e-05
5.976e-07
6.004e-07
0.002542
8.254e-08
5.831e-10
0.00254
0.004361
0.006693
6.53e-10
0.0006947
0.0002882
3.099e-08
0.006705
2.556e-10
1.552e-12
1.299e-06
2.734e-09
0.001778
0.0004022
2.836e-07
2.333e-10
2.379e-05
1.859e-07
0.006653
0.0007737
5.925e-07
0.0007
0.0001134
0.0001101
5.347e-06
2.074e-08
0.0006415
4.57e-05
0.006705
1.128e-07
1.725e-08
3.363e-05
0.0004419
0.0005998
5.375e-07
0.002543
9.29e-06
0.00668
6.567e-07
1.764e-10
0.0003415
7.43e-07
0.006257
9.676e-05
0.0005169
0.006694
0.0007491
5.452e-13
0.006681
1.754e-06
3.869e-06
0.0001195
2.999e-10
2.315e-10
0.001709
0.0008162
0.0001386
2.444e-08
0.0001172
8.172e-05
1.578e-06
0.0003027
1.599e-15
0.0001288
0.0001586
0.00101
1.066e-09
0.0001264
5.428e-05
0.0008896
0.000767
0.001291
0.0004411
3.174e-06
3.111e-10
0.006702
7.113e-05
7.022e-09
1.301e-05
1.397e-07
0.0009597
2.884e-05
2.644e-06
0.001822
8.024e-05
1.945e-08
0.00093
9.739e-09
1.293e-07
8.973e-14
0.00665
0.000119
2.166e-09
2.701e-06
0.0001144
8.737e-06
1.339e-08
0.0001799
1.878e-06
0.001294
7.46e-05
8.636e-06
0.00228
0.0004627
4.227e-06
0.0001404
1.429e-07
0.001984
8.689e-06
0.00084
0.0005178
0.0004764
2.574e-08
0.002572
1.331e-05
8.078e-07
1.278e-07
0.0007316
0.0003616
0.0001176
0.0001733
6.775e-07
4.525e-16
0.001695
0.006659
0.006638
2.155e-14
0.002505
0.006699
0.0001924
0.001379
0.000239
5.436e-17
4.407e-07
0.0001318
7.062e-06
0.004338
0.006463
0.0003131
0.001381
0.006693
1.56e-08
3.529e-05
7.922e-15
7.166e-08
6.922e-06
0.0002034
0.0001298
3.573e-06
0.006694
1.266e-07
0.0004469
7.895e-09
1.119e-06
6.598e-09
0.0008756
9.271e-06
0.001131
0.0006157
0.001016
0.002681
9.038e-12
0.0006296
0.0001107
0.0001187
1.481e-18
0.005327
0.0004808
0.0001317
4.543e-06
0.0006991
1.987e-08
0.0004769
8.131e-13
2.927e-07
2.481e-10
4.491e-13
0.002573
7.246e-06
1.708e-09
5.389e-06
0.0009729
6.679e-08
7.756e-06
0.0009834
2.284e-08
3.506e-05
1.517e-05
0.001656
0.001077
0.000593
0.0008599
0.0003383
2.996e-06
6.728e-06
2.36e-06
5.284e-06
0.0001992
5.335e-09
0.002277
0.001277
0.0004701
1.337e-06
0.0003813
0.0003542
1.71e-07
0.002287
2.797e-05
0.003202
0.0001077
3.437e-05
0.006691
0.006695
4.359e-16
0.0001059
0.006309
1.507e-07
0.002082
0.0008102
4.911e-05
0.0001119
4.814e-05
0.006701
7.819e-06
5.398e-08
9.686e-05
0.000696
0.0001815
1.688e-08
3.537e-05
1.43e-05
0.0001151
5.347e-09
4.165e-06
7.124e-06
0.006694
0.002802
4.529e-06
4.525e-07
5.97e-06
1.939e-08
0.003607
0.006693
2.536e-07
0.001041
1.685e-08
0.000131
0.002653
8.831e-05
8.287e-08
0.0003344
5.349e-06
2.25e-07
0.000665
0.0001072
0.0001013
9.297e-08
3.005e-06
0.001758
0.006067
5.559e-05
0.006659
0.006638
3.171e-05
9.505e-06
7.492e-05
0.001753
7.617e-05
0.0001441
6.904e-06
0.0004926
0.0004019
1.08e-06
1.497e-07
8.673e-06
0.0002367
2.01e-08
8.746e-05
3.077e-08
0.00382
0.0003849
0.0003881
0.0001278
1.176e-05
0.0009571
3.544e-06
0.006254
9.247e-08
0.001723
8.818e-07
0.003419
2.112e-07
1.749e-07
0.006697
0.002841
0.002479
1.681e-06
0.002279
2.495e-06
0.0003091
4.924e-09
1.386e-07
0.0008857
7.831e-05
6.702e-08
4.267e-11
0.0007781
0.002303
0.00222
4.214e-10
3.761e-08
2.889e-05
0.0005731
7.645e-12
4.017e-05
1.209e-09
0.001609
0.001534
0.006219
1.374e-05
4.582e-06
7.554e-08
1.43e-07
5.058e-08
1.406e-05
7.767e-08
0.0001239
0.0008146
2.22e-09
0.006695
0.0007284
0.0005527
3.909e-05
7.227e-06
0.0005283
1.765e-06
0.006705
1.596e-07
1.071e-05
1.809e-08
4.856e-05
0.001066
6.358e-06
0.0001212
0.0004324
4.443e-09
0.0005657
3.142e-07
0.0001272
2.274e-09
2.234e-05
0.002882
0.00108
1.243e-05
5.009e-06
3.998e-05
7.093e-06
0.0001015
0.006678
2.165e-05
0.0003203
0.0009857
0.0001481
0.006697
5.634e-06
1.389e-05
0.0004849
0.0067
0.006691
2.133e-07
0.0001218
8.599e-06
0.0003041
2.314e-08
0.005344
1.087e-06
0.002517
0.001385
0.0007034
5.268e-08
9.185e-06
1.09e-06
3.565e-05
0.0003163
1.329e-08
1.031e-05
0.0003797
0.000614
2.144e-06
0.0002788
0.001925
8.066e-07
0.0002655
0.002354
0.001257
0.0006763
4.301e-06
0.006668
0.0009159
0.0003723
0.0001048
0.0009787
0.0001479
0.006645
2.129e-06
0.0003068
3.227e-06
0.0005157
3.119e-10
1.454e-06
2.466e-05
1.992e-08
8.774e-06
0.0001499
0.0005385
0.006694
1.979e-08
0.0008303
7.004e-07
3.24e-07
0.0003689
2.636e-06
1.678e-15
8.736e-05
1.213e-06
0.0001036
1.483e-06
0.006689
2.613e-10
0.001265
0.0004793
0.001773
5.868e-18
3.04e-14
1.157e-13
0.006697
1.241e-05
4.029e-05
0.006693
0.001959
2.062e-06
0.0001232
2.944e-05
0.0006644
5.195e-08
0.0009297
4.409e-09
0.00242
0.001146
2.482e-12
1.868e-07
2.039e-08
3.138e-06
0.005214
1.473e-05
0.001214
0.001997
0.006626
1.358e-08
2.35e-09
3.896e-06
0.006642
0.0006696
0.0001287
6.167e-07
8.35e-06
4.469e-09
0.002404
0.0008317
1.652e-05
1.591e-05
0.006669
3.706e-05
0.0007176
7.048e-08
2.182e-07
3.636e-06
5.792e-07
0.001666
0.0002327
5.539e-07
0.0001518
2.41e-05
0.002921
2.115e-09
0.0001789
1.27e-08
1.246e-06
0.0007783
0.006702
0.006701
1.638e-05
7.984e-06
1.3e-06
0.00659
0.00483
1.301e-05
5.451e-08
0.0005202
1.123e-05
3.251e-07
3.647e-09
5.286e-05
0.001007
0.006682
2.961e-06
0.0007001
1.608e-06
0.004948
7.96e-10
2.043e-06
4.597e-05
0.0023
4.115e-09
0.006053
0.0005873
0.0006722
0.002066
0.005037
6.485e-06
0.001661
4.644e-12
0.006645
5.983e-07
8.337e-08
0.006691
7.262e-06
0.004537
3.01e-07
0.0006932
0.006691
2.637e-06
6.284e-08
1.351e-05
0.0001816
0.0008169
3.246e-08
3.901e-08
1.38e-06
2.411e-07
9.272e-07
2.391e-07
0.0002876
0.0003656
9.656e-09
0.005549
2.962e-08
0.006692
1.178e-06
0.0007171
0.0007862
0.006677
0.00473
7.999e-05
3.241e-07
0.0004084
0.006475
0.006677
1.259e-05
1.34e-09
3.276e-06
2.592e-08
0.002439
9.435e-06
0.0007156
1.014e-05
0.0004138
9.617e-06
7.779e-07
0.006475
2.576e-05
0.0004677
0.0001077
0.0004968
0.006633
0.004831
0.0006871
2.041e-09
0.0005427
1.513e-09
0.0006682
0.003761
7.583e-05
2.618e-05
0.0001868
1.94e-06
0.000101
0.0008106
2.866e-06
3.495e-05
0.0004839
2.359e-05
1.374e-16
1.613e-06
0.000398
0.0003109
0.0001102
8.506e-05
6.246e-09
1.905e-05
0.0004156
0.0001684
0.0001042
0.0007636
0.006678
1.847e-07
1.888e-05
4.633e-06
0.006642
0.006678
3.103e-10
0.0001007
4.616e-08
0.0001243
2.187e-06
0.002791
2.03e-05
1.399e-08
1.005e-05
7.815e-08
0.006693
0.006668
7.089e-06
1.344e-05
2.589e-06
5.047e-06
5.756e-09
0.002396
1.116e-07
0.000153
0.002752
0.003953
3.048e-08
0.0001622
5.769e-08
1.423e-15
2.32e-06
0.0003748
0.0008409
0.00484
8.128e-07
1.806e-07
1.088e-09
0.004224
0.001693
0.0004169
1.035e-08
0.0004177
2.96e-07
0.003308
1.055e-07
6.006e-07
4.59e-06
0.001763
6.139e-05
2.609e-20
2.255e-05
0.0001673
5.666e-07
2.749e-06
3.206e-07
0.006688
0.0003073
0.003833
0.000535
0.003586
1.167e-09
2.648e-05
4.292e-09
0.003531
1.452e-05
0.0002552
1.902e-05
7.549e-05
0.003977
0.0008193
6.342e-06
2.381e-06
0.0009117
0.002223
0.000492
1.143e-06
0.002934
6.898e-06
6.019e-05
9.769e-05
8.957e-05
3.742e-05
2.303e-06
1.076e-09
1.111e-05
0.006613
0.0008077
0.0025
1.55e-09
2.022e-08
3.164e-05
0.002019
7.369e-07
0.006625
0.0001364
2.998e-06
0.0005343
2.493e-11
0.0005311
4.434e-06
0.0004431
0.0008391
6.678e-05
0.006697
3.327e-17
0.0001337
0.0002079
4.006e-07
0.0005236
2.006e-05
4.598e-05
1.088e-07
0.006681
0.003949
3.351e-05
0.00381
2.524e-05
7.093e-07
5.134e-07
3.699e-06
0.00666
0.0007722
0.0004024
0.006693
0.006657
0.0005168
0.002445
0.002435
2.608e-05
0.0006033
2.824e-13
1.895e-05
8.471e-06
0.006679
0.0003549
0.0001516
6.731e-08
9.418e-09
8.561e-06
0.00348
0.005379
0.001114
4.069e-10
0.006679
0.0001046
7.963e-09
8.672e-07
8.46e-10
0.005764
0.0009561
7.509e-07
0.006693
2.064e-08
0.00668
1.863e-06
3.054e-09
4.161e-05
0.0004545
2.658e-10
0.006679
3.216e-06
2.02e-05
1.495e-08
4.095e-05
6.944e-09
7.427e-09
3.292e-05
7.109e-05
1.232e-05
7.941e-13
0.006693
0.001128
4.192e-08
1.212e-07
9.641e-05
3.999e-11
0.003547
0.0002871
2.856e-06
7.458e-10
9.809e-11
8.576e-06
1.703e-14
1.308e-06
8.327e-14
8.223e-05
5.956e-07
0.003961
2.274e-11
0.0007125
3.613e-07
0.004917
0.005112
0.0007239
0.0003856
0.0001898
0.002781
7.421e-07
0.0001043
0.000343
1.499e-07
5.125e-07
0.005424
0.00368
0.0001954
0.000399
2.074e-06
8.778e-12
0.000601
9.676e-06
5.993e-07
0.001498
1.125e-05
0.006689
0.0003764
5.878e-08
0.006298
3.478e-06
0.000178
0.002648
0.006665
0.002626
0.003279
3.958e-14
1.848e-05
7.894e-12
0.0009587
1.014e-05
7.69e-07
3.458e-08
1.46e-05
0.005606
1.585e-09
9.658e-06
0.005414
9.636e-06
1.156e-11
0.002017
1.418e-06
1.147e-05
6.976e-05
7.594e-09
4.941e-14
9.683e-08
0.0007651
0.006694
8.669e-06
8.372e-06
6.762e-05
3.856e-06
6.424e-07
2.531e-09
4.753e-05
4.146e-05
2.377e-09
0.0001187
8.67e-09
0.006689
0.0008283
4.062e-06
0.0009679
2.472e-05
0.0006928
0.006692
0.002148
7.854e-07
4.299e-05
5.22e-05
7.74e-08
6.428e-06
0.001562
0.0005558
5.406e-05
3.452e-05
1.398e-12
0.0005243
3.81e-08
1.928e-06
8.3e-06
0.001628
6.544e-07
2.436e-05
1.032e-06
9.734e-11
0.0006484
0.006688
0.006684
0.00101
0.0005485
9.951e-05
0.006702
8.076e-06
0.0007036
7.112e-05
8.633e-06
0.0007395
6.053e-06
2.678e-06
0.006705
7.642e-05
5.608e-05
1.821e-10
5.45e-09
0.0002624
1.141e-05
0.001322
2.382e-06
1.325e-07
2.354e-06
0.002648
5.811e-06
2.857e-07
0.0001153
1.67e-09
0.006374
1.165e-09
2.854e-08
0.002567
0.0002136
3.871e-07
0.003855
1.041e-10
1.465e-12
0.006286
0.00669
0.0003191
0.0004873
4.178e-12
9e-05
3.81e-07
9.126e-08
3.374e-06
8.391e-05
0.0001194
0.006472
2.248e-06
0.001444
1.1e-05
7.363e-05
3.053e-07
0.0003032
0.005395
2.573e-12
0.0001342
0.006691
2.793e-05
0.005673
0.006687
4.051e-06
8.149e-05
9.759e-11
0.006687
2.29e-08
0.006694
5.775e-07
9.559e-05
0.003853
1.947e-05
2.952e-08
5.901e-08
2.052e-06
1.405e-06
0.003583
0.0007223
0.0009718
1.67e-07
2.007e-05
4.585e-06
1.417e-10
1.913e-06
3.233e-11
0.0001539
6.764e-08
1.686e-06
7.831e-08
9.507e-10
5.648e-06
0.003934
0.003956
9.259e-06
0.0001822
5.58e-09
0.002801
2.663e-07
0.001324
5.237e-07
7.244e-07
0.00033
0.0001584
7.488e-07
0.002156
5.242e-07
6.323e-05
1.935e-08
3.833e-05
0.006535
3.229e-06
8.728e-06
0.006694
2.911e-05
2.922e-06
0.006681
5.402e-05
6.782e-05
0.0003598
5.626e-06
0.001452
0.0001627
0.0001102
0.006674
2.986e-05
1.721e-05
0.006704
7.543e-06
0.0001335
0.0007146
1.446e-05
1.582e-05
0.0003611
3.271e-06
1.539e-10
3.027e-08
9.563e-08
0.001301
2.153e-11
0.002641
2.299e-07
0.006693
0.0003057
6.158e-06
6.019e-05
7.187e-07
3.856e-06
1.044e-08
0.006698
6.052e-13
3.079e-07
6.45e-07
9.103e-07
2.566e-08
0.002106
0.004177
4.338e-09
6.535e-07
6.318e-05
5.866e-16
0.0003652
1.544e-07
1.178e-08
1.766e-07
1.906e-06
0.0002094
4.055e-08
5.006e-07
7.786e-05
0.0004591
5.337e-08
9.303e-08
0.002175
1.134e-11
9.971e-05
4.069e-07
0.000127
2.417e-08
0.006652
0.00669
0.0009138
1.025e-11
0.0007265
0.002002
7.062e-11
1.736e-06
0.006693
1.153e-09
3.833e-07
0.0005378
7.137e-11
3.041e-05
0.0001446
1.108e-15
0.003524
7.048e-09
0.001398
5.678e-07
3.27e-08
7.62e-08
8.861e-09
9.867e-06
2.139e-05
0.0001186
0.003328
0.0001955
4.769e-05
2.361e-05
4.916e-07
0.002234
1.241e-08
0.001133
8.964e-05
0.001712
4.521e-06
2.299e-05
1.048e-05
1.128e-11
5.293e-05
1.668e-09
1.155e-07
7.946e-05
0.0001623
0.006694
0.001826
0.0002797
2.394e-05
6.371e-08
1.254e-08
5.787e-09
0.006681
5.312e-08
2.284e-06
0.0003726
3.441e-12
0.0002165
0.0035
4.066e-06
0.002152
2.816e-06
0.0001019
1.473e-10
6.647e-05
0.0007021
0.00111
0.006697
5.327e-13
5.222e-12
0.0003052
7.824e-05
2.897e-05
0.006489
0.006653
2.461e-05
0.001081
0.00336
6.328e-05
0.003091
0.003003
1.669e-06
0.0003529
0.002621
1.929e-05
1.221e-07
2.126e-12
3.344e-05
5.326e-09
0.000113
1.471e-05
0.006655
5.99e-08
0.001422
1.276e-06
1.067e-12
0.0006577
0.002459
7.24e-05
8.911e-07
0.0005578
6.873e-13
0.00262
0.0002353
0.002002
0.002349
3.166e-05
1.285e-07
3.799e-13
4.904e-05
6.686e-06
0.006675
1.267e-07
9.245e-08
0.006669
8.469e-08
2.29e-06
0.0001571
4.806e-08
0.006683
2.409e-05
1.486e-14
0.003853
2.067e-07
2.171e-06
5.108e-07
1.556e-09
6.184e-05
3.384e-05
9.713e-06
1.919e-09
0.0001295
4.609e-05
1.793e-05
7.574e-07
1.562e-08
3.826e-09
1.307e-05
0.0001358
0.006691
5.609e-05
0.003507
1.477e-08
1.225e-06
0.002476
0.0001213
0.006681
8.019e-05
1.797e-05
0.00661
0.002414
0.006169
8.102e-09
0.002387
1.786e-11
4.093e-05
0.0004922
2.057e-07
0.000398
2.714e-07
6.866e-08
4.059e-14
0.0001246
3.031e-05
0.00061
0.0006064
0.001313
0.006702
0.0002665
0.001116
0.001477
0.006699
0.00197
0.006685
2.169e-05
0.0001111
0.00668
0.006687
6.175e-05
6.233e-05
6.096e-07
7.862e-05
0.006694
1.113e-05
0.0003529
6.146e-05
6.643e-14
2.284e-08
1.661e-11
1.93e-07
1.572e-06
8.225e-08
1.911e-07
0.0004625
0.0004165
5.527e-10
0.0009559
3.392e-07
4.778e-06
0.0002739
0.0003598
0.003625
0.006686
4.051e-14
0.0002105
1.278e-09
0.006693
1.403e-12
3.911e-07
6.979e-08
0.0001105
0.006638
0.006638
0.001645
0.002169
0.002115
0.002056
7.461e-07
6.156e-05
4.851e-06
0.002646
4.359e-05
3.913e-09
1.315e-06
0.0001091
0.0005444
3.091e-05
1.314e-06
1.267e-06
7.111e-07
7.523e-08
0.0009113
0.002247
0.0002018
0.0001205
4.342e-11
0.000508
0.0003764
1.204e-06
0.002316
2.725e-07
0.0003496
4.639e-07
0.003788
0.006692
0.0007013
5.344e-06
8.327e-13
1.227e-09
0.0001044
0.0001374
3.536e-07
7.127e-05
0.006618
2.07e-07
6.171e-06
8.02e-14
4.535e-05
1.289e-11
0.0001458
0.006687
4.408e-05
2.802e-06
0.001958
1.308e-05
0.001127
9.179e-06
9.887e-07
0.000182
0.0007846
1.735e-08
0.0001381
5.365e-07
4.725e-07
2.686e-08
0.003267
0.003264
6.861e-08
7.703e-06
1.147e-13
2.065e-06
1.511e-08
1.641e-08
4.495e-14
0.002542
1.671e-05
0.0003349
0.003198
0.006686
0.001089
0.006276
2.309e-12
0.006692
8.277e-10
4.253e-05
7.154e-06
5.093e-06
4.074e-08
0.002542
6.768e-10
9.616e-05
6.094e-07
0.0007996
2.926e-09
0.006688
7.104e-05
1.687e-06
0.0009672
2.127e-07
3.217e-06
0.0004669
1.921e-07
1.118e-07
0.0001873
0.006662
1.099e-08
0.002556
0.006665
6.021e-05
6.182e-08
0.006662
1.816e-09
0.006694
0.0005508
0.0003828
0.001313
6.541e-07
0.006659
0.0007398
2.606e-06
0.0001975
2.846e-05
9.426e-06
3.761e-05
0.006694
0.006681
0.0003456
2.021e-13
6.277e-06
4.719e-07
0.0007315
2.387e-10
8.318e-05
4.91e-05
0.002928
2.034e-05
3.209e-05
4.799e-08
0.0005351
3.788e-07
0.001009
0.0003515
0.006703
4.378e-06
7.734e-07
0.0005944
7.354e-07
1.268e-08
2.842e-05
0.006679
0.000515
2.417e-09
5.548e-06
2.011e-12
6.401e-09
0.002885
0.0003628
1.469e-05
2.715e-10
0.0004885
9.185e-08
7.952e-09
0.002822
4.119e-05
0.00669
0.0001047
1.911e-07
0.0002419
0.006693
1.487e-05
0.006693
0.0001107
3.113e-05
0.006694
0.003198
5.901e-05
9.88e-06
0.00113
0.002315
9.291e-08
0.006696
6.943e-08
2.068e-09
5.18e-05
0.003586
1.995e-07
0.0009068
0.0003928
0.000408
1.736e-08
3.115e-06
0.0003398
2.195e-08
0.0002194
6.325e-05
4.061e-09
0.0001318
3.007e-05
1.907e-06
0.0002219
1.074e-07
0.0006083
1.019e-05
5.642e-07
0.0003003
0.002284
3.941e-07
0.003226
0.0003292
7.18e-05
1.846e-12
0.0001773
3.068e-11
0.0001261
0.006664
3.134e-11
3.008e-07
0.0001059
7.196e-08
0.0004702
0.0007176
0.006705
0.001971
1.624e-10
0.001297
7.653e-06
9.55e-07
2.665e-07
0.006695
7.924e-07
7.65e-06
1.097e-05
1.315e-07
0.0004653
4.972e-07
2.338e-09
0.006689
0.0002214
0.0003123
0.00273
0.0003312
4.056e-05
4.471e-05
6.163e-06
0.0001225
0.001164
0.003154
0.000124
0.0002046
0.006538
2.716e-05
4.364e-08
5.069e-11
0.006699
1.166e-05
1.116e-10
0.002735
3.357e-06
0.002144
2.569e-07
4.926e-11
0.002972
0.002468
0.0002053
0.0008489
1.163e-06
5.7e-06
0.0008851
9.451e-10
4.313e-05
0.000482
3.736e-05
5.089e-15
1.693e-14
0.0002512
0.0001745
3.813e-05
8.64e-05
0.001167
9.31e-06
0.0008345
4.441e-07
3.429e-05
6.564e-05
5.514e-07
3.86e-10
0.0005549
0.0001063
0.005972
2.731e-07
9.737e-05
0.0002918
1.523e-05
6.371e-05
3.115e-07
0.0002494
0.003665
0.006675
4.627e-08
6.616e-09
0.0006946
1.329e-05
0.001026
1.332e-12
9.913e-08
0.0001688
1.994e-05
1.292e-08
0.0006223
3.833e-07
4.88e-13
0.006614
7.675e-10
3.746e-07
2.365e-07
0.004913
0.0007521
0.001745
1.955e-08
1.607e-05
0.001655
6.742e-09
0.004948
5.636e-06
1.646e-07
0.0001417
0.001986
0.005089
5.766e-08
4.276e-09
3.243e-07
9.656e-09
7.323e-10
0.0007167
1.791e-11
0.002548
3.976e-07
2.034e-05
0.00263
9.609e-05
0.004037
2.084e-06
0.001053
3.992e-07
0.003142
5.875e-07
5.514e-14
8.797e-12
0.00017
0.000895
3.601e-05
1.292e-05
0.001717
0.0001879
0.0001773
8.691e-05
0.006698
5.935e-07
3.553e-07
1.271e-07
6.087e-05
1.232e-05
2.489e-07
0.00104
1.112e-07
3.432e-11
7.145e-10
0.0001158
4.987e-07
9.387e-14
0.002012
1.996e-07
0.003883
7.637e-06
7.379e-06
4.052e-16
1.127e-05
7.385e-06
0.003556
0.0001728
4.384e-08
0.0001203
0.005899
0.006698
0.00135
6.957e-09
0.001567
4.278e-07
1.117e-11
1.638e-06
0.001796
9.894e-09
0.002492
0.0001016
8.373e-10
0.0001632
0.003835
0.0004452
9.134e-05
0.0001198
0.0001277
0.006696
3.803e-06
0.003176
7.951e-09
0.003644
1.369e-07
1.429e-08
5.781e-05
9.721e-09
0.0009732
4.671e-07
3.318e-07
3.557e-07
1.933e-05
0.001687
0.0002002
0.0004603
2.982e-06
9.02e-05
1.233e-08
2.237e-06
0.006422
8.398e-05
0.00389
1.448e-08
9.659e-07
0.002289
0.001764
5.846e-05
2.631e-08
0.003453
8.408e-05
0.0008149
0.0002598
0.002176
0.0009841
0.0003144
4.175e-11
0.0001249
0.0003073
4.786e-07
0.006671
0.001075
6.432e-05
0.0001393
0.001831
0.006687
0.000108
2.158e-07
6.193e-07
0.006693
0.0008662
0.002409
4.55e-06
1.81e-05
0.001191
0.0005511
0.0003482
1.549e-08
5.262e-08
0.002629
3.717e-06
0.0006753
0.0001061
4.143e-07
2.997e-12
0.002526
1.006e-08
8.157e-08
0.002185
2.043e-12
0.005873
0.006662
1.379e-05
5.314e-05
7.226e-14
0.006693
0.002052
5.511e-07
2.756e-13
2.242e-06
2.746e-08
0.006298
0.006393
7.528e-08
0.0001031
0.0003782
2.318e-06
5.319e-05
0.001927
0.0001058
0.006705
1.106e-08
2.807e-07
6.013e-07
0.0005583
7.35e-10
0.001092
2.533e-05
0.006675
1.011e-05
2.797e-07
1.219e-08
6.069e-08
0.0001109
6.39e-10
7.614e-06
0.000297
4.403e-07
9.198e-06
8.53e-05
0.0001161
5.995e-07
6.892e-09
0.004818
0.005104
4.8e-06
5.645e-05
1.212e-10
9.634e-06
6.498e-08
7.652e-05
0.002543
0.006694
8.096e-06
0.006702
0.0004844
8.397e-12
2.783e-06
9.809e-05
1.273e-06
0.0001316
3.91e-10
1.512e-07
0.002985
7.652e-06
1.104e-05
4.75e-07
0.0007459
2.083e-06
7.149e-05
0.000243
0.0003966
0.000272
5.529e-06
0.001581
7.323e-09
4.336e-07
0.0001924
0.000119
2.678e-09
0.0001296
6.985e-06
1.304e-06
1.014e-06
8.185e-06
5.938e-06
1.721e-11
0.0001307
4.714e-05
0.001315
0.001388
0.006703
2.721e-07
0.002941
1.841e-11
1.285e-05
4.347e-05
1.002e-07
3.114e-13
7.601e-09
0.0004752
8.064e-07
2.004e-08
9.236e-09
0.002275
0.000696
2.042e-06
3.504e-12
5.541e-05
0.0002409
6.999e-05
8.19e-05
0.006403
0.001007
5.957e-09
2.9e-05
3.282e-06
0.00217
6.469e-05
3.893e-08
0.006653
0.0008328
0.000128
0.001479
1.788e-08
7.793e-05
4.579e-05
0.003118
4.981e-05
3.857e-07
3.158e-06
4.097e-11
5.621e-07
1.645e-06
0.006677
0.0003059
1.155e-05
2.182e-08
4.086e-08
1.78e-06
0.003403
0.0002009
0.005735
1.026e-07
6.55e-08
8.928e-06
6.905e-06
0.0005936
3.608e-08
2.064e-08
1.206e-07
4.081e-06
7.596e-05
1.561e-06
9.543e-09
0.003947
7.696e-05
2.104e-11
0.002725
0.0008893
0.0044
0.006699
3.176e-06
0.002473
1.075e-06
1.591e-06
0.001103
0.0009773
2.125e-08
4.477e-08
5.572e-05
2.129e-07
5.379e-05
0.001594
7.544e-13
0.0004305
8.547e-05
0.002655
4.873e-12
0.001654
2.949e-09
6.683e-11
0.003556
3.395e-07
2.527e-08
3.779e-05
0.001285
5.983e-08
7.714e-07
1.215e-07
0.0006578
0.000372
0.0001765
0.003842
0.006701
5.228e-05
0.001332
1.988e-05
3.331e-05
0.0004153
1.294e-11
0.001232
0.004407
1.295e-05
0.0002881
0.002493
1.174e-06
0.0003058
1.082e-06
2.583e-08
6.834e-09
3.153e-11
1.237e-05
1.75e-07
5.618e-06
9.862e-05
1.787e-05
2.184e-05
2.917e-12
1.721e-05
5.688e-07
9.555e-06
0.006681
5.183e-05
8.175e-06
0.001166
4.057e-05
2.639e-11
8.264e-07
4.249e-07
0.0009834
0.0002894
1.042e-08
0.006692
1.419e-07
0.002346
0.0001045
4.738e-06
4.766e-08
0.006558
2.453e-05
0.001287
1.365e-05
1.648e-10
2.315e-05
0.0001727
2.495e-13
0.0003392
1.904e-07
0.006676
0.006649
2.037e-07
0.0006259
2.695e-05
1.788e-06
4.417e-07
0.006686
2.687e-08
1.108e-08
0.0005341
0.006699
0.003661
0.0004004
0.0006202
1.963e-07
4.323e-15
3.701e-08
0.005532
4.363e-08
1.133e-10
9.131e-05
3.335e-08
1.21e-07
0.002729
0.0001164
1.043e-07
0.002429
0.0005168
0.006634
0.006592
0.006616
0.006301
0.0001415
0.0008736
5.913e-06
7.189e-08
1.91e-05
3.557e-05
0.0004976
2.477e-07
0.006123
0.0001071
0.0002997
4.602e-07
7.809e-07
1.701e-07
0.0001373
8.093e-07
1.02e-07
0.0006252
3.339e-07
0.0001687
5.07e-07
1.232e-13
2.604e-07
3.761e-10
4.003e-06
1.47e-06
0.006694
4.277e-12
0.0001105
9.745e-08
1.894e-05
0.0001326
5.76e-12
0.006693
0.0001995
1.684e-06
0.004334
9.53e-05
9.389e-05
0.001143
0.0001507
1.084e-08
6.775e-05
9.186e-07
0.006624
8.305e-06
8.323e-06
1.308e-05
0.001141
3.501e-06
0.006681
0.00437
4.206e-05
1.745e-05
3.379e-07
0.0001125
0.0009676
6.298e-05
5.703e-05
1.682e-08
9.848e-08
0.002383
0.002476
0.0008893
0.0001621
0.0001167
6.209e-13
3.984e-06
0.006692
1.582e-10
0.006696
0.006687
0.000139
0.002546
2.82e-09
0.001099
1.043e-08
0.0005393
8.475e-08
0.006695
0.000102
2.718e-05
1.996e-07
0.00179
0.003589
6.676e-05
1.301e-10
1.604e-08
0.006702
1.135e-09
1.125e-08
2.78e-14
0.002924
0.002608
0.001556
9.546e-05
0.0005534
0.002814
1.188e-06
1.014e-10
9.932e-06
3.06e-08
1.139e-13
0.006694
7.17e-08
1.449e-07
4.663e-07
0.006693
1.913e-08
1.093e-11
2.442e-13
1.67e-12
0.0001187
0.0004619
1.911e-12
0.0002543
8.214e-05
0.006687
0.00104
3.706e-07
0.003329
4.283e-06
1.645e-12
8.05e-05
0.0002378
2.618e-06
0.006706
0.005489
7.888e-08
5.736e-07
0.003476
3.662e-08
0.0001184
0.0001405
0.001723
0.0006196
2.424e-05
0.0001836
0.006694
0.0004204
0.0003842
1.966e-07
3.181e-06
1.126e-06
8.068e-08
1.353e-06
1.573e-11
4.129e-12
5.533e-16
5.696e-08
0.0001653
3.173e-08
0.0003384
1.339e-08
1.207e-08
0.006693
1.545e-13
0.006705
1.868e-05
1.977e-09
3.308e-09
0.0001466
1.647e-06
5.833e-06
5.727e-07
0.006632
9.634e-14
0.0001628
0.002914
0.001851
0.0001364
4.665e-12
2.43e-11
3.596e-12
0.001752
6.5e-08
5.498e-08
0.001063
2.545e-05
6.024e-07
1.148e-09
0.006668
0.0002138
8.844e-07
0.0001054
1.065e-06
0.0005698
0.003194
4.325e-10
3.791e-07
4.399e-07
3.494e-11
0.002897
1.259e-09
4.054e-05
1.415e-06
2.056e-05
0.006458
7.402e-05
1.767e-06
2.504e-06
1.534e-05
1.779e-11
0.002932
0.004413
2.886e-05
1.632e-07
1.155e-08
0.0005252
0.003389
0.006449
0.0002424
7.616e-09
0.006343
4.445e-06
9.638e-08
9.473e-05
4.688e-05
0.0004279
3.525e-11
1.26e-11
1.39e-12
8.487e-05
4.638e-08
0.0001203
5.931e-05
0.002872
0.002475
5.228e-10
0.001393
1.276e-08
1.431e-07
1.203e-08
3.247e-07
5.188e-05
8.354e-12
0.0009671
6.743e-07
0.0006004
0.003225
1.207e-06
0.0001079
0.001978
3.874e-06
6.471e-07
0.0001435
4.528e-07
1.444e-06
6.006e-12
1.181e-13
0.002584
4.507e-13
0.002296
0.0001519
0.0001129
0.0001317
5.758e-06
0.006704
4.041e-07
1.391e-11
4.061e-06
1.009e-08
0.002037
0.0008842
5.368e-07
0.0001053
0.001577
3.428e-06
0.001594
1.178e-09
5.184e-05
0.005284
9.425e-05
6.745e-07
0.0067
0.0003837
5.058e-09
0.006695
3.407e-05
2.174e-05
1.526e-07
2.169e-05
1.179e-09
0.002528
0.001864
4.785e-05
3.103e-08
7.994e-08
5.048e-08
1.064e-06
0.006684
1.402e-07
0.006695
7.893e-05
2.573e-05
0.001719
1.859e-12
2.791e-05
3.209e-08
0.00277
6.273e-09
2.551e-05
0.002357
0.0007211
4.325e-06
0.00667
3.335e-05
0.006694
2.79e-08
1.536e-07
1.2e-06
0.0001491
0.006622
1.427e-06
9.877e-08
0.0001095
1.004e-08
2.996e-05
4.894e-07
0.0005461
0.001116
4.702e-05
6.246e-05
1.917e-05
2.762e-06
0.0001169
1.448e-05
0.0001104
4.118e-06
0.0001199
0.006623
0.006672
0.001766
0.0002587
5.513e-06
8.616e-07
2.165e-06
0.002264
1.911e-07
8.315e-06
3.375e-07
0.006698
7.142e-07
4.114e-05
4.356e-09
0.002908
1.823e-13
0.0005202
2.942e-09
0.003604
0.0001162
3.452e-11
0.0003178
3.649e-07
3.236e-07
2.175e-07
1.03e-05
0.0001339
0.006694
2.303e-07
6.712e-06
0.0003614
0.0001509
0.0003746
1.577e-05
0.0005079
1.057e-06
4.623e-08
0.006688
0.001017
1.736e-06
3.302e-09
7.003e-06
0.006701
6.853e-06
3.92e-07
0.0007399
0.000777
7.66e-06
1.683e-07
0.0001494
2.44e-06
2.295e-05
0.002339
0.0001149
0.0006719
0.005307
5.47e-06
1.765e-12
0.0004052
0.0001278
1.021e-08
1.517e-05
2.347e-05
0.006691
0.0003109
8.871e-05
0.003592
3.17e-11
4.508e-05
0.006697
0.0009314
6.055e-07
2.817e-14
0.006697
0.0007392
5.41e-09
3.483e-07
3.533e-05
4.765e-05
4.248e-08
0.0001347
3.713e-06
2.712e-08
7.854e-11
1.399e-07
0.00188
0.0001877
0.0008473
6.334e-05
0.006683
6.069e-05
2.282e-05
0.0008253
7.462e-06
3.13e-12
1.323e-09
0.00302
1.158e-06
6.357e-11
0.002556
9.786e-08
0.0007721
4.22e-05
0.0001103
5.455e-09
1.352e-11
0.006688
1.837e-05
5.329e-07
0.006697
1.398e-08
0.001054
1.112e-05
0.000143
0.0004896
2.939e-08
1.127e-05
4.125e-06
0.006369
0.002746
0.003226
0.0001227
0.006693
0.000324
0.0003642
1.184e-08
0.002814
0.001082
9.467e-08
4.1e-09
0.00299
0.0003261
0.006677
2.587e-11
7.836e-06
3.754e-08
5.556e-08
7.045e-05
3.748e-07
0.0002069
2.959e-05
2.262e-12
0.003605
6.002e-11
0.006673
0.006685
0.0004451
4.715e-05
0.006683
9.049e-13
2.774e-07
1.611e-07
4.332e-08
0.0002104
0.0003398
0.004983
7.417e-13
0.0006222
9.749e-07
0.006672
2.165e-05
0.0001235
0.0003625
0.0002335
0.0004973
0.003036
3.712e-06
0.006656
0.0002451
9.103e-08
3.443e-08
6.089e-09
9.415e-05
0.0005849
6.399e-06
0.006699
6.745e-06
8.154e-06
0.0003685
0.000171
0.0002894
4.997e-11
0.005965
0.006681
3.888e-06
3.283e-07
0.002333
1.683e-08
0.006701
7.574e-08
5.634e-05
4.947e-07
0.006701
7.238e-05
1.519e-08
2.724e-07
9.253e-08
0.0006724
2.745e-06
0.006682
5.089e-08
0.004735
1.127e-06
1.149e-12
0.001186
0.0001195
0.001776
1.52e-07
8.17e-10
3.775e-06
9.053e-05
0.006657
0.0002838
9.222e-05
0.006691
9.509e-06
4.851e-07
0.002423
0.006699
0.0001219
7.046e-05
0.0001668
2.288e-07
0.0001473
0.006695
2.451e-07
9.711e-07
3.868e-06
0.0005977
0.006696
0.006692
0.0004742
0.0005732
0.002577
4.267e-08
1.784e-12
2.058e-11
1.051e-06
4.851e-11
1.187e-09
0.004121
3.944e-12
0.0001942
8.892e-08
0.003057
7.296e-05
2.253e-05
5.924e-08
1.419e-06
4.284e-09
4.603e-06
0.0002342
0.0005104
2.103e-07
5.864e-07
4.39e-06
0.0001032
5.939e-05
3.785e-05
1.574e-07
0.004226
0.0003852
9.848e-06
8.367e-05
1.185e-05
1.711e-06
6.063e-12
1.29e-08
0.006662
6.644e-10
0.0003458
0.006664
1.452e-06
0.006694
2.553e-07
0.0001453
0.002634
9.353e-06
5.927e-07
0.006707
3.837e-05
0.003317
1.127e-10
0.00089
1.62e-05
3.775e-11
2.919e-05
0.006688
2.503e-09
0.0005245
0.0004799
1.731e-05
0.002711
2.902e-07
1.996e-12
4.503e-08
0.0001645
0.002044
1.814e-05
5.168e-06
0.006689
0.0001622
1.924e-07
5.27e-07
9.495e-05
0.006701
8.559e-12
2.283e-07
1.918e-06
0.0001341
0.0003373
0.0001425
0.006656
0.0001602
2.675e-06
2.568e-05
4.263e-05
4.081e-07
3.29e-08
0.002897
8.666e-06
8.897e-06
0.002261
5.33e-05
0.002949
2.147e-06
0.0002102
8.688e-06
0.0067
3.183e-07
0.002429
0.0004374
2.621e-05
4.418e-05
7.907e-08
0.000141
1.139e-14
0.001777
2.495e-05
0.002167
0.006679
2.251e-05
3.12e-06
1.889e-09
1.534e-07
3.731e-05
6.824e-08
9.91e-09
0.0004828
2.483e-05
0.0001816
7.418e-08
2.395e-10
0.0003947
0.0001037
5.177e-09
5.906e-05
9.789e-09
7.388e-06
0.002011
0.0009341
1.8e-07
0.006693
7.871e-05
6.837e-05
0.00669
0.0004965
5.026e-09
0.002313
7.027e-14
3.924e-08
5.48e-06
0.006691
0.0005473
3.2e-05
0.003452
0.000599
0.000319
6.672e-07
1.291e-05
8.505e-08
0.006695
7.752e-05
0.006685
4.43e-05
1.702e-05
1.604e-06
2.888e-05
7.636e-08
5.433e-14
0.00661
0.006692
2.154e-06
8.341e-07
8.408e-09
0.000126
0.0001282
2.683e-08
0.001729
0.001608
0.002467
6.456e-07
5.008e-09
2.86e-05
0.0005848
0.006686
1.158e-06
6.225e-05
0.0003534
7.283e-08
6.595e-05
0.001955
1.069e-07
0.0002409
0.0003449
3.201e-06
6.909e-05
0.0003138
0.006689
0.006455
6.868e-08
5.459e-08
4.129e-06
0.003784
0.0001305
0.003073
2.859e-07
5.447e-06
0.006608
8.733e-06
2.251e-05
2.987e-13
2.165e-08
1.662e-07
0.006681
5.069e-08
4.416e-07
7.595e-07
8.922e-07
1.053e-11
2.993e-05
0.0005049
5.372e-07
9.126e-07
3.171e-08
1.346e-09
0.003173
0.002864
0.003971
8.735e-05
8.181e-14
0.0007437
0.001921
5.915e-08
2.359e-06
0.001609
1.882e-07
0.0002562
1.45e-09
0.001506
6.318e-07
0.0008932
2.94e-05
1.093e-05
3.087e-13
0.0006508
3.988e-11
1.837e-11
0.006692
3.551e-11
2.116e-06
9.218e-09
9.555e-08
0.000452
0.001954
4.014e-05
6.397e-07
9.01e-06
4.547e-05
0.001172
0.001147
0.0003103
0.0008514
0.0001582
1.677e-05
8.203e-05
0.002436
2.647e-11
0.0003013
1.847e-08
5.423e-07
4.826e-08
0.00665
2.299e-06
0.0001254
3.66e-08
0.001544
1.865e-11
1.276e-05
1.601e-07
9.361e-05
4.274e-08
8.358e-05
0.0008187
0.0004035
0.0001791
0.0001161
0.0006615
4.067e-06
0.0001898
2.048e-05
5.654e-06
2.375e-07
0.0004716
1.799e-11
5.047e-06
1.15e-11
3.873e-05
0.001378
5.543e-05
0.00252
0.0001087
2.666e-07
0.006694
0.002704
0.006693
0.0003194
3.438e-07
1.737e-05
0.002393
8.356e-06
0.0004874
5.698e-05
1.605e-12
2.759e-09
3.085e-11
2.024e-07
7.453e-05
2.723e-08
5.105e-08
0.0001276
2.572e-07
0.006695
0.0007187
0.003303
6.029e-06
0.002034
0.00668
0.006679
7.32e-05
0.002608
0.0001472
1.186e-12
3.022e-07
0.006673
0.006693
9.118e-07
0.0002662
5.349e-08
1.183e-10
0.005223
4.54e-05
5.262e-06
2.236e-07
8.621e-06
1.72e-12
1.033e-05
9.956e-05
1.51e-06
1.276e-07
2.71e-05
1.331e-05
5.841e-06
1.458e-05
2.869e-08
7.32e-05
5.13e-14
0.005842
1.215e-06
4.042e-07
2.312e-08
0.006695
0.0004805
0.006693
0.001753
0.001281
3.777e-06
0.0004685
1.984e-07
1.411e-06
0.0001166
1.001e-08