/*--------------------------------*- C++ -*----------------------------------*\
  =========                 |
  \\      /  F ield         | OpenFOAM: The Open Source CFD Toolbox
   \\    /   O peration     | Website:  https://openfoam.org
    \\  /    A nd           | Version:  8
     \\/     M anipulation  |
\*---------------------------------------------------------------------------*/
FoamFile
{
    version     2.0;
    format      ascii;
    class       volScalarField;
    location    "20";
    object      omega;
}
// * * * * * * * * * * * * * * * * * * * * * * * * * * * * * * * * * * * * * //

dimensions      [0 0 -1 0 0 0 0];

internalField   nonuniform List<scalar> 
127143
(
3.821e+07
7.184e+07
8.194e+07
3.494e+07
2.933e+06
3.537e+07
1.159e+06
2.025e+06
3.234e+06
4.719e+05
1.704e+06
2.662e+06
9.642e+07
2.958e+07
410.3
7.931e+04
9.896e+06
14.34
10.07
3.267e+04
20.63
7.14e+04
0.08599
259.2
7.685e+04
1600
5889
5727
5099
13.12
407.9
1759
6312
1020
0.0432
6749
41.93
48.77
199
2141
10.14
0.4517
0.3215
1.373e+07
13.94
988.8
4577
16.12
256.6
224.6
5.06e+04
0.02543
42.29
0.2287
0.02093
544.7
0.02092
0.3184
0.02241
0.2265
0.3116
9.676
69.49
0.02211
321.9
0.4178
0.0491
84.83
84.25
0.08158
300.2
3991
15.4
0.0224
0.02179
4060
0.02309
28.33
536.1
0.02222
4755
2.916e+04
357.6
1343
15.66
23.79
152.9
4491
0.3522
657.2
0.02206
33.85
312.4
20.5
54.15
0.256
0.4165
547.3
17.46
0.04849
0.02221
241.9
2715
4.395
22.56
18.08
85.32
0.0819
1.415
0.02132
303.6
5140
30.23
5.68
0.02175
1.439
0.02325
0.02179
0.02297
2.882e+05
0.02134
336
39.34
0.1592
4679
2748
11.07
0.02397
49.16
603.7
44.91
60.79
35.83
27.62
1.119e+06
42.8
0.06112
18.18
3546
0.05063
0.1232
0.02244
31.58
21.25
42.59
61.71
1.803e+04
0.02213
65.09
3604
9.284
229.2
62.3
0.07095
39.89
15.34
0.3188
760.8
15.79
663.3
287.3
9.342e+04
0.02207
44.54
1370
246.6
53.6
0.5106
731.5
0.02638
827.7
21.08
2.249
18.25
0.2662
38.64
29.8
49.13
225.2
0.03538
18.18
0.03252
37.52
37.93
595.6
9.638
0.08813
5.838
239.1
0.03458
39.22
60.72
0.05512
70.38
2.051e+06
12.23
0.01943
0.01936
2.224e+05
0.02181
0.02172
0.02638
3.016
37
1.109e+07
124.3
0.04916
17.39
12.82
0.02175
2.395
18.05
0.02165
719.9
82.85
2.288e+05
2656
18.49
37.4
0.04942
18.83
0.02184
231.2
44.05
789.8
925.2
957.5
51.91
303
13.05
21.93
0.03234
14.74
1.97e+05
21.69
0.08723
44.51
4.482e+06
0.02171
35.14
57.77
186
23.98
743.1
74.79
2.284e+05
146.1
5714
1.703e+05
0.09913
3.608
1172
24.26
19.94
365
1.528
0.02392
1079
4.912
0.05455
13.3
0.02627
28.8
0.02236
58.45
224.5
176.8
91.24
0.6201
131.8
890.2
0.2631
13.3
35.04
39.48
38.78
29.74
188.3
0.4971
3.001
0.06809
0.4574
4.312
0.02175
0.02174
1.891e+06
50.78
0.02175
205.7
0.03715
64.32
0.2133
0.08679
3.468
0.02168
2.861
357.2
111.8
23.99
122.2
521.3
0.3737
0.2891
1.204
914.6
20.51
17.26
0.02166
15.23
18.93
95.22
707.7
622
0.05348
0.02173
449.5
41.13
533.2
1.408
2.116
0.08083
327.9
0.02983
24.35
480.4
47.52
0.03155
120.4
339
16.06
10.77
0.02174
0.04275
0.01944
0.01937
0.06956
1.398
2.24
10.78
60.42
0.0497
18.5
44.48
38.72
7.409
206.4
171.3
37.92
486.3
54.35
428.2
10.26
41.18
38.83
0.02837
149.2
19.96
54.03
0.02394
342.3
11.35
56.77
19.73
215.7
218.5
0.02192
0.0218
1.4
362.3
0.5026
0.8935
0.03002
780.3
234.4
0.0326
0.08547
321.8
1.545e+05
15.78
0.5153
26.1
2023
388.9
0.3708
0.02315
1.273e+04
0.03713
1858
12.45
30.53
0.02196
0.1959
470.2
361.1
238.4
395.6
0.1995
346.1
0.02827
0.02592
1296
0.02184
21.28
35.87
0.03817
14.66
20.33
33.25
0.02222
204.3
11.02
519.2
0.124
14.34
26.25
52.52
23.27
993.3
87.82
214.1
50.65
4719
103.5
0.07512
13.34
0.06215
0.2865
0.08368
154.3
0.05763
0.02115
104.5
46.74
16.34
199.6
0.02192
19.17
143.8
0.02511
0.02168
0.02172
199.9
0.0622
1.811
0.0241
522.9
0.02173
156
1.488
18.15
18.98
343.3
12.4
436.7
0.03714
32.83
588.4
126.5
27.72
99.73
29.09
45.33
19.31
2.095
44.82
0.1997
0.02206
25.4
228.4
0.02078
14.51
24.46
0.1598
43.04
0.04352
0.02028
36.13
18.88
396.9
55.2
5401
127.3
120.3
625.9
5.952
203.1
64.81
0.02165
531
0.02241
236.9
137.9
41.91
72.71
3.46e+06
51.6
1.988
0.1069
2.835
0.02167
5381
0.02209
30.96
12.16
5.043e+06
2.529e+05
8.19e+05
0.02194
147.6
134.5
0.02173
10.36
62.95
44.45
5.144
19.53
346.9
14.4
3320
0.1693
22.45
1.664e+05
284
497.6
664.8
0.02224
8.457
2.005
20.15
0.022
633.5
3250
463.3
0.01965
25.41
0.09318
1562
8.4
1280
17.85
0.0225
170.2
5.961
0.02081
0.3725
89.69
315.6
213.8
242.8
498.8
12.35
181.6
151.5
41.93
99.37
0.02205
1492
37.27
572.3
43.47
20.85
0.02212
0.02207
0.05212
178.2
4.651
0.02173
0.02911
3.091
543.9
20.75
5.999
783.7
3035
1.585
0.0226
0.02134
465.9
17.01
55.59
0.03167
3830
30.75
77.72
0.5075
852
0.02173
19.15
32.84
25.45
0.02656
202.8
13.33
2.034e+04
0.02026
79.42
2555
0.02171
14.63
0.02175
152.3
49.66
0.02176
269.7
312.4
385.3
46.66
33.62
424.1
386.8
21.69
181.5
221.8
206.4
47.82
45.23
672.3
0.02676
514.6
0.02174
4.601
0.02424
31.84
0.02116
0.02175
0.4374
211.1
26.69
0.02137
0.02115
262.4
2044
259.6
476.8
10.65
1.738
18.66
12.38
38.52
150.6
393.2
0.02139
84.06
36.48
0.4338
78.4
0.02214
0.02906
50.18
2686
64.46
1.101e+04
0.02417
0.03784
55.61
95.73
0.02612
311.5
0.1204
0.07975
248
4.875
36.54
0.0958
8.656e+06
795.7
26.92
33.12
49.9
67.34
720.4
133.8
0.02455
48.48
118.1
20.89
0.02121
179.2
0.3001
0.1888
0.01964
0.02119
1.123e+04
0.1075
391.7
58.78
79.78
15.21
1.344
637
0.08426
350.9
0.02164
0.02089
4.648
0.06435
299.4
0.1847
1294
9.82
370.1
0.9249
20.05
0.03559
517.9
0.04375
376.6
1.213e+06
34.31
62.48
15.16
0.02795
59.11
212.6
8818
12.44
18.27
38.35
3092
23.69
281
8.816
285.6
75.35
18.81
10.97
0.2455
1.868e+07
0.2975
0.02615
104.4
56.01
135.2
0.02155
54.04
10.45
20.46
0.04057
1.163e+04
95.65
870.3
0.0446
151.2
47.56
128.6
67.66
0.03737
15.86
578.3
286.7
20.66
0.02184
44.79
58.44
0.02191
18.08
0.6705
63.38
51.07
0.3263
34.53
1513
144.8
0.01934
15.99
9.303
1502
500.4
0.277
10.21
449.1
0.01938
42.26
248.2
54.23
1.369e+05
55.47
435.1
28.4
22.01
2.01
0.02193
1.397e+07
42.51
43.8
1019
22.18
138.1
73.62
257.7
0.02132
10.85
4.447
0.03755
98.53
234.2
87.57
40.16
0.02048
17.96
42.23
0.02164
0.02043
78.38
9.627
10.6
127.4
18.97
4.926e+04
7.288
0.1656
0.02123
24.22
47.1
370.9
727.3
0.4501
0.055
0.02211
2.114
4538
0.02125
0.5191
1719
58.57
1548
0.02575
23.15
63.42
0.0218
475.2
0.0212
83.93
4650
96.28
79.2
3374
0.0219
258.5
0.1061
612.6
227
763.2
4378
0.2738
0.4784
0.9721
2e+04
0.02178
49.75
507.6
454.8
124.8
5083
0.05283
0.7721
477.6
2162
1.112e+04
314.7
3.474e+05
199.4
6.393e+04
60.08
820.4
11.06
8879
0.023
112.3
0.0271
0.0259
28.85
0.02623
49.67
17.75
4.831
1.02
0.0418
622
112.5
0.02196
15.79
37.95
0.04
324.5
3.784e+04
38.96
14.55
317.8
22.24
194.7
0.02169
41.99
377
0.0237
255.9
36.94
9.844
0.02069
2.379
20.63
1.131e+05
2.87
3.826e+04
14.47
18.56
86.03
3806
114.5
0.02322
3116
0.3151
0.02418
2.215
1.212e+05
29.35
190.9
9.593
2.368
7415
5.832e+04
259.2
0.02256
0.02183
15.58
4.374
65.53
242.3
20.11
2023
184.4
0.07759
1983
0.05383
1898
0.0216
16.58
702.1
22.7
103.8
16.99
0.02177
0.02184
712.6
0.154
105
256.3
274.9
12.32
73.04
66.29
82.36
1.54e+04
39.49
455.7
285.8
13.43
11.43
70.89
122.4
1468
4.466e+04
17.56
0.02155
0.0214
14.13
24.11
0.5443
0.02082
14.64
18.83
0.5018
216.3
57.97
186.5
1.703
0.02223
0.252
0.5454
4614
920
49.53
0.2558
47.3
331.2
246.9
27.14
9.195
31.62
144.6
53.91
2378
0.0235
5006
4536
9.224
43.82
429.6
0.02176
1.148e+04
1.758e+04
0.0217
0.02154
42.46
24.46
1.624e+05
128.7
107.9
397
254.2
0.2829
0.3504
0.02247
308
23
153.2
2.126
1944
29.08
0.02795
1.153e+04
69.8
0.02172
113.6
0.02497
0.02164
22.83
0.09269
1.184e+04
0.02157
473.3
0.02181
276.8
0.07894
15.25
6.917
460.9
319.3
294.6
40.11
0.05525
0.03597
23.25
199
144.4
210.3
3900
308.5
1.759e+04
50.29
377.7
190.5
303.5
1565
0.1224
11.79
0.04352
177.5
77.18
832
0.06375
369.7
13.44
88.98
105.4
40.79
0.7694
497.4
13.19
89
119.8
636.8
237.5
0.02101
22.08
185.1
0.0218
104.8
253.4
0.02068
1.513
142
0.0345
0.1278
26.01
102.1
0.1505
0.01979
98.74
116.4
0.02166
0.09667
0.03088
18.42
134.8
9.19
0.03762
729.2
3.485e+04
500.6
259.3
12.23
8870
0.07562
159.2
0.02176
26.24
6.529
76.49
105.3
875.9
2526
0.02196
1.665e+05
645.9
474.9
54.18
1110
11.92
12.78
1041
72.36
0.033
3.354e+05
31.58
258.4
716.3
184.6
94.94
82.54
2011
94.78
58.05
78.5
345.6
281
27.05
3.092e+04
0.102
122.2
0.0907
483
0.01971
0.02165
44.57
1.131e+04
17.52
1.231
1.314e+04
449.7
0.0218
1733
107.7
75.96
3.858e+04
1.708
52.75
3.373e+06
16.08
3122
11.87
80.53
1333
286.3
673
6.284
126.5
0.0778
17.97
132.7
71.23
7.054
108.4
10.18
7563
14.72
0.2262
13.09
0.4204
0.9792
12.47
2.944e+04
0.03806
2650
926.8
69.02
38.73
0.0218
10.61
43.1
2.709
1420
714.4
892.6
0.02135
364.3
784.7
28.87
1.122e+04
62
11.41
340.2
0.02201
423.8
54.06
3545
71.32
0.06574
16.22
0.02171
4.124e+04
1.304e+04
30.61
0.4747
5.882
0.02086
0.01978
219.7
24.46
8.833
0.08623
0.04968
0.05153
2.948
25.91
14.69
85.36
238
1.338e+04
0.7029
780.6
69.26
128.1
0.01982
399.1
11.85
69.01
1.659e+04
92.39
11.15
58.24
56.4
25.65
5.176e+04
25.81
34.54
10.57
11.75
4.46
224
4.295e+04
0.169
588
0.02118
254.6
1018
0.02032
1406
37.12
43.04
367.2
0.02138
0.7325
1.106e+05
0.02177
214.7
285.9
91.9
4802
0.5488
4.325
366.6
1464
42.73
88.42
0.05195
92.84
3125
6370
183.2
40.66
0.02169
69.58
11.21
616.7
123.2
9.336
43.32
0.02182
2.053
123.2
0.02203
9.761
0.02236
2900
10.14
9482
92.13
46.68
287.5
27.85
175.4
388.9
8.516e+04
46.05
87.76
46.61
23.08
13.07
0.02211
48.93
0.02219
11.68
0.022
13.15
0.02147
86.54
63.36
0.02067
0.02162
166.5
0.3193
443.9
0.09022
0.02006
5.387
27.57
0.03196
8.688e+05
1528
9.035e+04
175.9
37.41
274.1
179
44.33
8.882
2266
23.25
687.9
218
41.52
46.74
9.213
0.02156
8.447e+04
36.11
2321
0.02179
1.513e+04
185
286.5
75.25
0.01974
0.01972
13.2
27.86
5.877
10.22
64.79
0.6693
0.7304
2.506
3.575
1348
158
0.495
21.56
4.539
358.7
388.6
81.28
299.4
14.6
0.02201
72.27
93.7
5591
43.34
0.03469
70.56
1.272
149
44.05
503.5
16.41
0.02174
20.17
29.24
2.138e+04
4721
0.5483
42.1
592.2
0.26
0.01972
802.7
195.7
7.835e+04
0.05778
3.13e+04
58.96
0.02153
69.43
563.1
11.33
0.1046
17.66
351.5
56.04
47.07
54.36
1181
0.04087
223.8
570.1
476.1
0.05468
0.05455
320.5
12.06
7.523e+04
96.11
566.2
630.9
8.492e+04
1.422
157.2
0.0253
0.0218
0.0215
14.71
0.02286
2.367e+04
0.02173
3183
0.2548
19.89
393.5
439.2
0.09169
7945
1.438
155.2
15.99
4387
0.02167
69.09
344
14.42
3763
717.2
21.05
816.8
1301
0.04563
0.0206
3892
0.07136
0.01998
0.2592
3254
0.0206
1449
0.02184
31
74.46
14.62
69.91
0.02091
17.33
268.4
94.83
0.06438
12.62
0.1516
0.02174
0.02122
41.63
1.543e+05
23.58
91.27
0.02484
1.075e+04
0.2959
0.07425
0.05882
1.272
87.11
395.1
0.02581
197.2
0.02234
40.26
0.02217
0.2376
123
36.85
3.659
695.5
98.9
0.0212
54.99
1060
218.5
1.383e+04
737.6
11.41
0.03336
2.561
1.678e+04
46.26
899.2
9602
0.07246
0.1834
0.0216
51.53
191.4
47.69
0.0218
271.9
0.02175
0.1773
89.15
0.02141
11.04
0.3978
19.02
16.48
0.9782
282.3
0.0219
369.2
2622
3.19
9.598
169.9
0.04584
101.2
39.48
1462
51.54
38.22
473.4
40.95
66.38
3437
0.09226
0.1787
71.43
0.03398
228
19.68
0.08692
80.49
0.02429
0.3352
1601
20.3
142.1
66.82
1.451e+04
41.99
5554
0.7936
0.02066
5630
133.9
0.09363
303
0.02748
40.8
0.02223
12.23
3135
13.79
7.095
67.28
143.9
0.02187
62.44
0.2512
4.997
478.3
0.02497
97.84
1128
0.02159
0.02557
49.02
0.07113
50.37
2.018
1.375
15.22
0.5723
17.97
0.07043
19.2
45.68
0.02102
0.1525
447.7
1.479e+04
0.02088
174
4544
14.69
143
9.884
159.9
1.439e+04
0.05721
0.1095
63.9
0.02636
406.6
8.827
19.21
1873
89.33
0.02459
76
2.225e+05
8.321e+05
62.14
71.27
91.85
0.7589
14.36
11.62
22.04
548.7
180.3
159.2
172.5
7714
19.04
1.542
0.02172
650.9
1.659
27.5
0.1714
0.04236
140.4
62.37
10.99
0.02037
454.6
751.3
76.29
151.6
14.22
1.566e+04
281.3
0.02693
120.1
5836
22.88
107.7
2.572e+04
0.01939
2128
429.4
161.6
0.02739
17.86
10.97
522.2
144.5
17.36
744.6
0.03178
2.289
193.1
0.04975
12.28
0.02173
343.5
2473
150.8
816.1
1.167e+04
19.92
6504
0.1042
543.8
4.412
9.585
0.03793
11.51
30.32
16.45
118.3
0.06252
95.91
5.871e+04
1.577e+04
44.99
75.14
0.5144
0.6353
0.02192
0.02589
46.1
0.3002
0.02167
76.87
131.1
236.4
107.3
11.84
194.7
35.43
1291
1.671e+04
1.826e+04
0.08572
94.71
4.583e+04
10.29
1797
13.07
14.45
38.43
5.816e+05
10.03
13.51
0.04203
0.06348
822.5
57.3
0.02174
0.02196
12.19
744.6
15.15
105.4
1.037e+04
7.61
0.02351
618.4
9.78
71.32
1563
8.497
6.985
42.62
55.39
0.7226
57.15
0.02188
518.2
9.659
661.2
18.09
212
2046
2.107
653.5
42.17
553.1
143.2
1705
0.08064
10.99
34.98
21.06
284.5
80.16
3556
321.6
0.02169
94.08
13.23
535
63.87
0.2571
18.7
0.1032
1688
0.04685
73.65
28.43
44.46
11.17
22.29
2.345
1.607e+04
0.1873
0.02501
666.8
0.02091
15.74
0.03157
0.8437
11.23
0.02151
0.2532
209.2
1216
0.02177
0.02358
10.95
18.7
80.97
0.1643
56.21
37.7
733.4
370.1
27.07
276.6
76.43
0.08879
106.6
1.706e+04
9.891
2181
325.3
10.5
1.425e+04
0.02174
0.02061
0.9644
2.903
9.238e+04
0.0218
15
550.6
8.507e+04
279.1
476.9
0.0198
0.01945
305.2
58.73
39.56
31.79
0.03267
29.11
1.549
0.02222
613.7
163.8
78.09
30.18
1682
8.152
2.145
0.01981
11.64
188.1
634.9
411.8
51.41
5295
377.2
42.36
118.2
179.7
59.17
0.06733
207.7
3410
0.02777
0.02591
224.3
98.21
3903
1.211
535
72.95
0.1403
0.02174
5.098
0.02211
23.34
1.146e+04
16.48
0.1208
68.89
0.0445
6758
583.9
0.06481
14.16
11.74
91.22
22.04
63.62
63.17
41.05
30.24
30.36
17.17
11.26
1228
117.2
38.47
92.72
6867
70.45
360.7
410.9
2.445
1.385
20.8
6536
0.3497
81.5
0.02251
13.56
0.02214
142.9
9.071
6552
131.5
0.08288
977.1
5.372e+04
816
27.65
62.08
552.5
1393
0.2596
23.14
29.39
3.438e+04
65.88
30.71
0.2102
0.2514
0.02175
24.35
5398
5.208
938.5
11.74
0.09963
1101
0.01973
40.86
0.4002
21.42
1051
0.1765
1.996
8.971
0.03847
194.2
24.58
1.776e+04
755.1
157.2
0.02141
31.3
124.3
3015
1013
33.13
9.44
48.6
0.02173
259.2
558.2
3.647
15.24
41.11
1395
491.1
339.8
44.25
3.317
1.318
6909
11.96
0.0825
2.31e+04
0.06659
37.77
0.02175
0.02199
61.57
0.022
555.9
63.14
51.62
23.36
480.7
1247
65.04
482.3
67.24
14.92
1.484e+05
25.15
52.4
2.076
5.788e+04
12.45
4910
5863
0.04192
582.6
462.1
4.096
13.9
3122
267.4
904.3
17.85
27.23
0.02663
10.07
0.02206
0.5945
13.39
279.7
212.7
45.04
9918
12.57
0.02202
155.9
28.05
21.05
45.1
30.61
53.17
441.8
1190
5136
159.7
201.5
481.5
48.48
141.2
0.06753
7.239e+04
140.7
80.22
1.226
0.02158
83.61
186
14.4
3.866
5496
464
282.8
58.87
36.35
2208
0.02164
3990
10.22
0.03839
29.53
458.9
0.0217
110.1
13.01
12
5690
7.704
49.13
5.813e+04
24.99
193.8
0.0197
0.01963
186.5
68.32
2.462
183.7
115.5
0.02151
1600
675.9
31.51
0.02175
0.02203
41.24
98.84
189.4
1.963e+05
482.8
0.02767
397.9
1.889e+04
0.08212
445.5
257.4
0.09903
0.8244
892.3
30.88
29.37
0.01964
0.01948
0.01946
0.02008
0.07667
25.4
20.83
478.3
7.25
146.2
24.49
533.7
0.02076
53.03
32.22
1797
445.8
2276
96.4
60.11
260
28.65
140.3
0.1293
88.77
1.1e+05
178.1
2057
0.2839
99.89
0.02174
6.032e+04
46.27
285.9
6.798
0.03084
1.914e+04
0.02179
42.13
339.9
0.04004
66.33
54.98
16.4
67.83
3667
0.0419
391.6
0.02067
2.251
121.3
156.3
13.78
46.38
0.02151
0.02175
0.3392
347.6
601.4
0.1879
16.88
70.65
2.846
1861
263.9
16.41
9.458
27.22
38.08
0.1493
2.927e+04
0.2488
0.02174
4780
0.02172
0.02167
2.259
0.1038
3433
13.24
730.3
20.45
269.3
0.02187
0.08271
193.7
170.7
11.8
0.05245
0.1982
1.727e+04
1780
0.02213
3402
2253
9.496e+04
0.06731
14.73
18.93
0.07615
0.02384
14.42
147.2
1.394e+04
0.07156
420.7
6.37e+05
0.02175
301.4
836.1
111.6
0.02178
515.5
2.33e+04
3.867e+04
1.965e+04
0.3767
76.83
2.039e+04
0.0557
55.99
0.02154
15.98
344
10.41
231
1.904e+04
0.942
64.96
56.76
0.02225
0.02784
337.5
520
13.27
4005
60.29
1.182
10.87
28.8
177.5
37.76
0.02175
43.44
41.12
173.4
252.8
114.7
320.8
81.27
2.508e+04
2.877e+04
3.566e+05
353.3
0.04585
727.4
0.02469
575.7
1034
0.02176
1.919e+05
0.02221
119.8
5015
1236
101.9
79.88
270.2
216
0.01963
1.637e+05
145.7
0.0561
10.55
67.65
3.163e+04
6090
5.738e+04
12.1
355.1
1880
17.88
0.06877
76.85
3396
0.02088
34.23
56.35
101.9
47.22
27.37
12.97
1886
108.1
125
5908
0.06411
1393
0.07883
46.53
130.1
0.02298
0.1089
40.04
306.6
147.9
2.409e+04
0.05414
0.02174
4.983
195.1
1245
22.86
9.46
0.01956
0.03005
716.7
0.01994
210.8
311.2
0.06518
77.75
33.21
7966
2.567e+04
1.51e+04
0.03298
374.2
52.86
82.75
14.87
11.15
6578
12.38
768.5
208
3314
163.1
1.567
1.463e+04
23.89
74.37
27.8
0.04959
49.77
0.5365
0.02188
24.55
109.7
40.4
272.7
38.13
4.702e+04
7.37e+04
10.42
5.447e+05
0.2659
3.667
0.03088
0.05714
26.51
0.02221
255.7
2.155e+04
249.3
2100
36.4
37.06
143.5
51.45
11.31
249.9
14.68
2250
83.38
0.0257
74.27
76.3
0.02204
0.04023
887.2
0.02185
79.33
112.1
203.3
7.186
1278
0.09344
33.29
0.03782
495.4
5186
545.3
53.96
0.02143
320.6
0.02157
0.263
95.75
32.5
1.432e+04
100.4
411.6
12.29
1160
0.4613
0.2017
16.42
216.9
0.02084
4.734
0.02185
533.4
816.2
152.8
43.38
0.02162
347.9
283
50.7
1.436e+04
90.58
1059
0.02313
51.07
3.391
2.093
133.2
24.47
0.07461
3.861
0.1114
19.18
50.76
0.02069
0.02027
0.02223
0.03828
0.1325
1364
277.3
0.02182
185.7
11.53
126.8
0.02194
184.9
0.06946
918.4
0.087
1.085e+05
80.14
974.5
0.04182
0.08801
1.528e+04
0.02739
123.7
149.2
213.3
149.7
51.76
0.02181
215.8
271.3
48.12
47.32
40.69
7.924
20.75
68.97
1039
0.02151
16.14
42.14
1883
0.09831
0.02209
126.1
644.9
16.71
19.56
14.43
312.3
0.04625
26.32
263.3
10.32
94.66
93.32
0.02558
5.107
1.582e+04
108.6
87.49
1927
1.324
6.905
0.02167
0.02693
0.1149
0.04428
1.524e+04
77.96
0.02195
0.02267
81.57
7.597e+04
0.02194
17.45
5649
123.6
4.824
91.07
1458
54.9
15.8
440.1
2.942e+04
946.1
0.0219
35.99
39.05
66.55
0.02139
0.2973
106.3
20.01
203.6
1.879e+04
2463
17.74
391.5
3.054e+04
12.26
443.6
16.64
1.131
0.7271
924.6
1.043e+04
0.02158
103.6
101.3
0.02193
2159
13.53
1.598
0.06349
48.03
424.1
143.2
36.76
0.02173
0.02179
15.65
89.66
0.02004
88
0.02481
1062
11.83
13.78
308.1
822.4
19.92
50.92
0.0214
1.831e+04
22.32
1866
332.2
0.0834
368.1
143.1
107.8
1.437e+04
9.172
1.342e+04
0.02075
0.02124
21.29
0.05125
0.02139
3.511e+04
169.2
261.5
1548
192.6
27.8
0.02723
3.404e+04
0.03878
73.19
0.02025
0.1079
116.5
27.25
33.83
47.67
9.308
424.9
0.02047
33.96
1850
1544
2421
0.1178
30.12
14.93
0.02195
394.4
173.7
1.007
0.04628
53.17
1.478e+04
0.02184
0.02151
20.57
1184
10.3
1386
0.02206
2401
65.74
105.7
0.02208
0.06529
536.7
188.2
948.8
18.25
15.22
0.02045
440.6
0.02965
430.8
2.396e+04
0.05541
76.04
11.09
3471
9601
504.5
0.05249
0.02047
39.74
0.151
0.02164
178.2
246.3
12.58
0.02036
0.06656
0.09103
0.02673
299.9
40.07
0.02174
496.8
76.3
566.1
0.02579
0.02191
0.02164
0.04997
82.84
21.82
375.7
1.519e+04
9087
69.5
2.978e+04
1832
0.02264
1.294e+04
47.67
1320
9.422
0.1179
11.07
3109
358.9
1360
233.2
0.0606
20.98
251.3
87.7
43.83
0.1774
116.3
0.1619
252.3
0.03478
27.09
14.45
86.64
0.1903
345.9
2.817e+04
2139
0.02061
1.574e+04
28.81
0.01996
130.7
0.02181
832.7
47.31
0.1187
149.2
179.2
0.0223
1.04
10.47
4229
0.02243
0.1299
5077
4.84
0.02157
1231
22.51
0.03027
0.1229
17.64
146.3
1.946e+04
364
49.44
13.46
352.4
0.5443
0.02169
0.0448
278.2
84.9
55.35
0.02207
4.063e+04
187
30.75
87.79
24.87
54.68
0.02017
0.05629
267.7
102.7
0.04103
102.6
454.5
12.03
1.405
2.955
9.826
0.03743
8.891
30.02
185.7
15.53
0.02205
599.5
0.1611
24.98
6.069
3.366
1921
43.8
1.033e+05
18.24
0.9049
0.2183
0.02119
6.223
23.46
1435
507.9
90.13
308.8
1395
45.34
0.3869
47.66
347
2736
39.34
0.04084
827.1
0.6666
658.5
13.45
11.3
22.26
190.4
0.02179
103.1
0.1957
0.02164
6.556
813.6
1.282
7.037e+05
423.8
385.7
0.02165
47.28
97.4
0.04701
27.75
42.45
1170
183.8
1237
0.02188
63.09
0.02066
3.359
138.2
126.4
5.57
365.4
5.25e+05
0.0215
0.02174
41.88
92.95
708.1
1.245
54.91
444.9
24.37
12.13
0.02183
255.2
1005
0.07048
19.77
0.02156
78.06
0.04996
47.81
292.7
65.13
0.3212
728.5
183
0.02607
262.1
77.04
2.405
0.02148
0.02309
311
1776
22.39
9.83
42.65
16.14
144.8
21.3
0.0194
0.1646
0.9592
2.869e+04
994.6
854
0.02134
359.7
117.4
902.2
669.7
7412
2.176
41.69
90.88
59.85
421.6
1583
23.21
0.07047
11.57
0.03079
5.274e+04
0.02253
13.11
333.4
31.69
12.18
514.5
36.65
4431
11.5
209.5
42.65
4.789
153.2
2.777e+04
19.61
1.555e+04
1.066e+04
0.02175
1.721e+04
90.02
809.1
1016
44.5
35.95
121.1
71.5
14.66
0.03732
18.4
13.26
45.36
21.56
38.64
0.4217
1.72
29.17
1.778e+04
34.88
3235
85.23
363.5
0.02027
312.5
48.22
1517
12.33
6915
155.3
236.5
0.07484
1206
0.06576
19.31
25.98
0.06687
0.564
17.38
23.26
64.16
142.9
15.47
153.3
24.06
6956
20.67
9.525e+04
0.03631
37.63
95.19
11.07
0.04632
445.1
0.02174
0.02214
0.02174
29.78
126.8
313.3
13.22
0.08104
26.06
0.03857
9.416e+04
1138
1.696e+04
194.6
0.07057
449
1649
0.073
800.2
0.02187
39.26
9.434
306.3
28.97
0.02129
0.0214
65.22
9.207
0.03678
1.818e+04
136.5
0.02095
0.0218
53.31
0.03084
417.8
3553
0.0299
3.821
280
687.4
150.6
1.901e+04
6.712
0.1363
36.97
230.3
0.1486
155.2
25.21
1.014
432.3
60.07
5.517e+05
0.02588
70.44
2764
1083
0.02184
22.06
0.02176
16.98
43.69
35.14
44.52
228.5
30.63
0.1574
718.2
823.9
382.2
640.1
457.2
33.88
56.34
62.2
138.4
18.24
280
0.022
1.614e+04
6296
795.3
34.17
8.068
1127
365.3
0.2603
0.3794
2.204e+04
69.45
0.05282
0.0314
0.05155
268.1
482.9
26.4
1814
132.7
0.03662
103.1
55.91
54.47
308.8
9.811e+04
384.7
52.95
397
24.57
54.25
1205
32.36
22.38
10.12
825.8
21.35
0.2327
30.17
394.9
0.09255
83.85
0.2806
18.47
1.878e+04
380.7
0.02204
260.7
18.23
8767
501.1
0.02141
0.09463
434.1
0.03066
23.17
989.8
269.2
10.11
0.02173
0.1708
13.31
14.36
0.07848
280.3
0.02077
362.6
22.49
216.9
150.3
48.33
48.46
284
243.1
0.1678
78.05
0.02182
2.535e+04
0.03595
0.03011
155.4
0.02183
15.41
10.11
3.372e+05
0.02196
62.28
63.95
317.1
270.1
0.1986
39.46
22.25
251.4
1284
28.08
0.09545
0.0221
161.6
234.3
20.87
37.13
573.9
1154
0.7541
0.02114
30.05
176.5
3.903e+04
44.65
45.09
0.6427
174.2
0.02151
13.78
2397
697.1
0.02197
0.1866
498.6
0.01982
69.04
837.1
44.99
0.02195
0.022
9.173
0.02385
0.02013
0.02173
8.918
302.9
742.2
2.286
124.2
7.888
16.64
0.02225
14.55
57.67
0.04186
0.6797
675.1
14.71
0.02562
880.6
35.05
9.157
1.615e+04
2.018e+04
0.02538
51
19.14
244.3
39.62
1851
0.02194
90.4
1.768e+04
2.621
154.6
0.3762
1078
34.77
153.2
12.14
9022
0.06111
5692
33.99
0.02538
0.0294
0.02006
126.7
19.4
1299
102.9
2.896e+04
0.09465
0.01942
104.6
174.5
0.07756
0.02187
514.7
10.42
608.5
34.44
799.3
148.3
47.73
5.708
203.1
0.01974
9139
96.47
34.7
12.07
0.08804
0.02204
19.21
12.87
286.5
1947
33.46
0.04432
144.3
16.28
0.06005
0.0219
773.7
161
2587
106.8
24.73
0.8496
35.55
15.12
5.466
72.44
0.3626
0.1296
0.02192
39.21
7188
25.84
0.4024
2231
0.4874
0.02168
20.32
0.02782
0.02203
18.85
0.01939
0.01933
2.13
0.02011
27.74
2.431e+04
320.4
15.09
0.1336
0.02113
0.02197
41.87
173
12.66
1.736e+04
15.67
0.03019
10.44
155.8
1325
4.73
0.02198
2.742
54.12
0.02203
0.02136
41.58
182.3
0.05101
0.02909
50.45
0.02131
1.488
0.0215
9.808e+04
2.759
490.1
9.279
0.02773
0.7242
11.02
18.28
423.8
19.03
66.76
17.93
0.02214
1.209e+04
15.7
191.1
0.02191
207.7
138.1
64.25
329.5
0.2169
200.2
9.99
0.1362
1468
0.02205
2.153e+05
12.56
9620
0.02197
245.5
0.02175
0.1101
2.729
3287
13.26
109.6
18
0.1096
1565
0.1242
826.6
1856
10.13
0.09296
0.05226
600.8
0.02162
2.831
18.65
151.8
12.33
0.02178
5109
0.03319
110.6
329.2
60.38
610.3
4405
23.54
544.6
85.8
1.432
14.93
0.4784
0.02173
0.02181
300.2
10.66
6326
71.38
24.9
0.02179
53.56
0.02179
0.02171
0.03074
126
0.106
18.26
0.03396
30.31
0.1823
50.08
210.8
924.6
0.0263
175.4
104.3
77.92
0.1641
18.15
0.02187
79.44
0.3915
44.57
3.353
0.03554
195.9
3.748e+04
159.1
1032
19.47
1.126e+04
874.5
13.8
18.48
718.9
170
4.424e+04
277.6
20.41
48.27
67.96
30.04
536.3
358.6
0.03882
30.64
0.08653
342.9
1.028e+04
67.82
650.6
335.6
12.86
170.2
0.03304
190.3
27.44
2.07e+04
10.72
0.02274
17.33
28.95
125.8
0.05773
57.29
134.5
21.97
1.748
119.5
15.07
4245
146.4
72.72
26.25
16.74
493.4
0.02468
248.5
3.851
0.02393
44.23
45.76
226.3
333.2
97.79
0.02202
394
11.94
0.1078
1.613
277.8
6.267e+04
95.89
0.02085
0.02423
0.4403
184.4
50.89
0.02151
2.699
209.8
409
5806
0.02103
203.7
2542
35.74
4.817e+04
65.24
82.49
185.2
21.85
161.8
0.02347
48.63
2268
49.25
230.7
1.251
20.79
0.02177
0.06817
234.5
117.2
20.44
736.9
52.1
0.02173
2255
60.9
0.3424
276.9
5316
6884
0.0406
0.1339
0.02461
73.68
1846
354.1
968.8
327.4
101.7
0.02181
49.61
4.702
9.137
2840
0.403
1.739e+04
58.98
1485
0.03363
132.8
1268
0.02171
124.8
69.69
101
10.62
0.0219
0.02171
0.03845
26.92
0.02172
13.99
6116
0.1124
16.06
256.1
0.0384
57.3
10.6
0.2608
1469
97.26
6174
49.63
0.02176
154.3
1711
0.0217
4056
13.4
46.96
29.54
181.6
57.88
161.5
15.24
10.87
0.02194
11.67
0.02178
0.0551
1116
107.7
43.72
35.14
0.7986
123.6
0.02177
0.01966
0.06204
74.64
30.42
67.8
1.741e+04
19.08
0.6932
186.6
0.4843
26.14
0.02136
516.2
455.2
15.87
12.28
76.07
98.11
37.34
20.33
1.021
0.02231
61.35
15.99
102.9
1362
1.603e+04
435.7
0.02149
48.4
21.23
21.19
8.115e+04
0.02166
62.16
23.76
25.3
52.37
21.3
5.008e+04
57.45
18.95
460.2
2476
12.19
71.38
2404
2.021
0.02168
258.6
15.83
36.86
77.25
15.17
1.566
0.04313
665.8
239.5
871.1
71.28
721
166.8
0.02172
143.8
45.16
52.88
16.91
0.01936
267.2
39.92
25.57
7.102
0.02133
206
11.38
5.39
41.76
206.8
78.81
29.67
392.5
373
0.01992
76.95
34.23
59.57
435.2
149.9
32.8
21.35
26.69
9.559
120.3
492.3
1.649e+04
626.7
678.5
9383
29.63
0.07853
2.264e+06
331.6
1510
0.03511
1675
1218
250.8
27.9
0.02191
2.039
0.02179
15.51
65.19
4.429
0.7632
15.68
616.8
20.65
2.111e+05
13.45
249.3
736.5
1.556e+04
427.5
210.1
17.88
0.09248
73.5
17.04
1.92e+04
59.75
0.3523
0.7575
1496
1.089
0.022
0.02171
30.47
47.58
0.04466
0.02017
0.02192
501.1
153.1
9914
0.02155
0.02989
56.98
0.01976
0.0199
292.8
0.05272
119.3
621.7
0.05284
1325
8.166
48.55
9.454
30.47
0.05734
57.13
17.37
6.402e+05
30.38
354.3
1009
1231
14.8
0.02982
9.741
628.9
0.02172
13.49
151.8
567.4
1.301e+04
110.2
33.92
664.5
0.02579
110.1
2363
217.6
80.31
60.43
0.06987
30.64
17.19
1808
126.4
169.4
0.04622
837.6
265
0.03545
19.26
0.06556
41.9
0.0277
1644
1.662e+04
0.02837
472
122.9
0.1439
397.9
61.9
0.02262
5853
56.32
185.9
467.3
0.03563
19.09
5.077e+04
74.35
415.2
17.53
20.23
2.824
14.11
156.8
0.05759
1.623
54.32
58.53
26.12
14.38
47.47
5.902
62.58
492.9
52.45
5.735
2.016
0.0218
0.09455
608.8
17.49
0.01937
2.887
34.47
3.656
161.3
68.07
27.11
0.09875
566.1
80.51
0.1075
34.79
66.85
0.07898
606.1
0.04536
807.6
9.17
0.1895
0.06623
9.739
670.9
54.66
0.02095
72.87
171.5
111
0.1697
0.02202
12.23
336
602.1
33.41
55.64
11.09
526.4
16.04
28.09
2.24e+04
12.42
1.752
4.541e+04
393.3
14.92
14.36
0.02204
1.218e+05
0.0222
26.32
105.2
96.69
135.1
115.5
1.963e+04
10.95
11.59
24.66
3.069e+04
460.8
12.85
4.223e+04
6577
463.7
117.2
0.183
0.6244
19.41
24.23
0.02187
371
2.057e+04
0.04485
61.67
6.151
16.86
264
412.1
4.049e+04
1579
199.4
0.01954
0.01929
0.02178
541.9
2146
1.413
0.02158
0.159
2592
5.84
4.475e+04
74.7
0.02225
3.875e+04
0.0194
1.703
10.76
0.04283
16.16
0.3282
1.347
0.07203
305.2
17.36
55.16
110.6
2.331e+04
11.98
161.2
190.5
10.21
0.02213
9351
420
235.1
88.79
947.8
206.7
96.27
0.06132
23.93
240.8
28.32
374.1
0.02902
1052
31.28
388.7
12.99
0.2414
0.6993
0.0219
231.8
33.7
119.4
179.4
12.51
663.8
46.15
19.02
13.64
139.7
0.1633
945.7
169.9
148.3
30.27
0.06428
9.762
0.09531
60.37
20.55
116.2
3.667
513.2
16.96
14.43
367
0.2256
1999
27.66
0.5491
0.08861
3.568e+04
285
211.1
28.33
5585
0.02204
6458
516
65.65
54.95
58.99
72.85
79.64
16.03
79.55
69.27
182.4
3612
0.06828
0.02187
0.02184
106.8
199.7
1.961
2.473e+04
115.9
9297
853
92.2
1846
1.836e+04
10.43
419
750.2
44.43
1.914e+04
0.02167
71.93
596
605.9
0.02157
578.6
39.3
204
284.8
403.2
0.0217
12.89
229.6
801.7
0.02089
196.2
12.77
0.1725
3.08e+05
0.03295
11.26
13.73
233.7
308.9
0.291
33.46
2.557
193.7
710.4
140.6
0.01942
13.76
6.576e+05
0.02562
0.02287
1934
825.5
50.25
416.3
0.06153
29.93
58.16
49.6
34.84
172.4
0.02
43.75
12.19
0.1924
0.02193
36.9
0.02124
8.171e+04
42.08
1.826
9.341
1.327e+04
0.02168
143.9
0.02
0.02216
639.6
0.3313
1271
9.915
0.04278
44.37
364.2
21.06
20.02
28.94
374.2
117.8
516.6
487
458.5
5313
852.4
55.63
364.2
222.2
178.8
0.2462
0.02113
0.02118
3603
23.18
306.8
4.274e+04
0.02183
254.9
0.4456
0.02038
16.1
4.631e+04
10.62
412.2
2590
0.02206
541
41.44
16.1
9.901
26.89
1826
99.54
0.02174
4.644e+04
1289
0.06307
0.02407
1174
164.3
583.4
506.4
125.8
279.6
0.02171
256.6
0.02118
146.3
490.4
4.12e+04
0.01955
0.01931
0.147
146
0.0312
16.64
1.929
8.894
23.53
50.11
249.8
0.04938
0.02857
1.784e+04
2.146e+04
24.9
759
0.04578
304.2
0.02211
130.8
1266
446.5
2253
228.4
428.8
348.6
0.3044
28.12
30.65
0.02537
0.0218
0.02175
11.77
191.9
775.2
3.039e+04
281.6
0.02526
381.1
881.2
415.2
3.36e+04
56.56
509.7
275.3
86.44
0.05524
2.294
18.98
0.9583
0.08206
907.3
22.96
39.7
44.98
583.4
0.3329
0.01974
1.739e+04
14.6
10.99
36.72
2.111e+04
23.47
0.02083
116.9
26.58
182.3
7.201
351.3
340
1.978
127.2
15.02
0.06318
175.1
0.04425
0.0786
3.793
1108
19.61
1004
20.82
47.85
40.95
0.02979
70.44
340.5
0.2428
41.17
4.038
1.885e+04
0.03109
0.02452
73.93
73.14
163
23.51
27.46
2345
0.06421
0.02183
24.71
1840
0.02495
0.5618
39.38
0.02163
1.852e+04
0.0628
36.13
79.49
39.73
0.5738
382.2
2076
33.33
0.05828
0.02175
17.86
49.84
92.15
14.85
0.02139
0.02019
0.02173
79.34
192.3
222.5
0.05194
756
34.03
436.9
49.06
793.7
3.917
0.03071
4129
0.02193
820.1
34.51
0.03127
115.5
73.33
239.2
128.6
141.5
14.09
6.142
0.06674
2268
1268
2154
0.1642
0.5672
0.02173
1.872e+04
0.0216
158.4
1822
0.02233
16.31
102.2
366.2
0.08043
13.98
1.299e+04
23.53
0.02166
19.46
442
80.68
149.2
13.74
33.22
1.54e+04
14.67
0.02071
0.02247
1.125e+04
22.82
382.2
11.33
51.31
0.02118
0.02193
1.918
6.816e+04
1812
482.3
348.5
0.8449
307
1480
124
232.3
0.02189
655.8
10.38
315.4
18.35
16.05
0.0216
606
13.95
1.572e+04
1.913e+04
12.66
14.52
1.504
1022
0.02622
9.571
1.71e+04
455
167.4
1881
6891
124.1
190.3
0.1167
951.4
235.5
1545
38.65
0.02672
1066
7159
0.02173
324.5
3481
374.4
906.5
44.59
12.48
167.3
42.05
0.03226
63.59
0.02211
105.5
0.1032
1.411e+04
0.1248
4052
44.94
259.9
20.45
12.63
496.8
14.4
153.8
783.4
71.65
31.4
9.139
40.22
157.4
510.1
61.41
0.02481
23.07
20.56
62.82
119.4
81.86
271.4
49.08
0.02517
46.85
2.214e+04
16.05
10.97
126.1
0.03928
40.22
0.0216
43.48
5.684e+05
8.609e+04
442.5
24
40.21
0.02102
0.05081
19.5
22.88
61.25
5.855
0.02185
36.94
63.14
149.6
52.26
0.0217
862.7
1319
5.849e+04
10.72
25.27
58.77
564.1
0.04184
180.4
9.941e+04
0.8525
18.49
0.2656
309.7
5.202e+04
15.73
13.18
72.98
32.9
0.02545
158.4
0.01988
1.647e+04
57.47
12.98
1278
6.632
151.7
35.91
2.886
0.05355
0.02199
0.02155
49.59
17.17
28.71
8.995
30.02
56.97
1.966e+04
0.8187
298.4
0.2229
0.02183
976.5
0.02197
13.19
643.2
4.858
23.92
21.85
4.809e+04
251.7
20.23
266.3
125.7
78.26
0.1321
1.731e+04
0.02173