/*--------------------------------*- C++ -*----------------------------------*\
  =========                 |
  \\      /  F ield         | OpenFOAM: The Open Source CFD Toolbox
   \\    /   O peration     | Website:  https://openfoam.org
    \\  /    A nd           | Version:  8
     \\/     M anipulation  |
\*---------------------------------------------------------------------------*/
FoamFile
{
    version     2.0;
    format      ascii;
    class       volScalarField;
    location    "20";
    object      p;
}
// * * * * * * * * * * * * * * * * * * * * * * * * * * * * * * * * * * * * * //

dimensions      [0 2 -2 0 0 0 0];

internalField   nonuniform List<scalar> 
127143
(
-0.2049
-0.209
-0.2033
-0.2031
-0.409
-0.203
-0.52
-0.4634
-0.4602
-0.3236
-0.4617
-0.5289
-0.1985
-0.2031
0.5002
-0.2016
-0.2045
-0.0567
-0.2244
-0.2066
-0.318
-0.1981
0.01549
-0.1159
-0.1981
-0.03926
-0.3218
-0.3211
0.2273
0.007837
-0.1903
-0.03762
-0.3624
-0.3213
0.1233
-0.3624
-0.2492
-0.3176
-0.1157
-0.2031
-0.2242
-0.1576
-0.1362
-0.1984
-0.05173
-0.322
0.224
-0.254
-0.02358
-0.1401
-0.202
0.03069
-0.3239
-0.2463
-0.0009967
0.0425
-0.00093
-0.1035
-0.009876
-0.2439
0.3755
-0.2737
-0.1538
-0.002793
-0.3181
0.1089
-0.1124
-0.1501
-0.1492
-0.0001365
-0.1395
-0.3217
-0.208
-0.01029
-0.00396
-0.3213
-0.01201
-0.2737
0.03511
8.429e-05
0.2142
-0.2066
-0.3215
-0.1981
-0.2114
-0.2712
-0.1033
-0.3265
0.11
-0.4532
0.005807
-0.2929
-0.4193
-0.3177
-0.3255
-0.02225
-0.155
-0.1555
-0.2911
-0.1087
-1.85e-05
-0.0253
-0.5314
-0.07608
-0.271
-0.2911
-0.0409
3.698e-06
0.2363
0.002483
0.5003
-0.3266
-0.3219
0.3213
0.005701
-0.0281
0.01102
-0.003858
-0.0118
-0.2034
0.002525
-0.319
0.1457
-0.07969
0.2157
-0.05737
-0.2897
-0.03879
-0.3175
0.07225
-0.2981
-0.3218
-0.12
-0.2737
-0.2048
-0.2982
-0.09539
-0.3191
0.3092
-0.131
0.04113
0.01455
-0.3305
-0.3214
-0.3243
-0.3076
0.3438
-0.002753
-0.322
-0.5561
-0.08807
-0.009158
-0.3243
0.1494
0.4467
-0.2107
-0.1046
0.1281
-0.2537
-0.1377
-0.1812
0.2408
0.005694
-0.2979
0.04751
-0.318
-0.2556
0.255
-0.3452
0.05854
-0.1996
-0.3213
-0.02049
0.07343
0.0004719
-0.2038
-0.3057
-0.3177
-0.09967
-0.006148
0.0741
0.000924
-0.2039
-0.2029
0.07464
-0.273
-0.05623
0.3106
-0.119
-0.02719
-0.3277
-0.3242
-0.0928
0.02017
-0.2043
-0.3057
0.0001364
-6.884e-05
-0.2122
0.01096
-0.01155
0.07162
0.0127
-0.2493
-0.2026
-0.1774
-0.007166
-0.02427
0.007952
0.005713
-0.2229
-0.2089
0.009985
-0.3457
-0.2998
-0.2084
-0.2028
-0.009885
-0.318
-0.008693
-0.2953
-6.888e-05
-0.005982
-0.32
-0.1473
-0.2022
0.04856
-0.3202
-0.2149
-0.2871
-0.3189
-1.077e-06
-0.207
-0.2021
-0.319
-0.06528
-0.2979
-0.2008
-0.01173
-0.329
-0.324
-0.3186
-0.2178
0.1252
-0.3267
-0.2034
-0.008753
-0.3213
-0.2218
-3.49e-05
-0.257
-0.08777
0.02254
-0.3203
0.03155
0.2223
-0.03786
-0.3652
0.04518
0.1062
-0.3106
-0.003324
-0.2862
0.01504
-0.3137
-0.3187
-0.283
0.4548
0.3404
-0.3171
-0.0151
0.001594
-0.2484
-0.3295
-0.1594
-0.3277
-0.3221
-0.04168
0.002037
0.08738
-0.0001388
-0.01958
-0.07606
0.008135
-0.002022
-0.2061
-0.3101
0.005389
-0.051
-0.005165
-0.3314
0.02002
-0.06379
-0.006204
0.007882
0.243
-0.1347
-0.2035
-0.2179
-0.322
-0.08246
0.06866
0.1769
-0.02755
-0.1548
0.3585
-0.02439
0.01021
-0.2977
-0.09297
-0.0459
-0.2011
0.029
-0.0002363
0.01107
-0.3663
-0.3263
-0.09437
-0.2637
0.0004295
0.01658
-0.172
-0.07341
0.02199
-0.3671
-0.326
0.09017
-0.2028
-0.2004
-0.3012
-0.272
-0.002403
0.1196
0.0001069
-5.102e-05
0.1495
0.2275
-0.01986
-0.2724
-0.313
-0.1268
-0.01027
-0.3244
-0.3277
0.4698
-0.05021
-0.3214
-0.3251
-0.07576
-0.3185
-0.07947
-0.2455
-0.2051
-0.3273
0.07804
-0.3202
-0.3204
-0.2998
-0.00272
-0.2006
-0.2429
-0.1528
-0.2157
-0.1669
-0.1327
-0.001996
0.01075
-0.003143
-0.3272
-0.0005235
0.4295
-0.0745
-0.08823
-0.157
-0.0275
-0.207
-0.1084
-0.2
-0.2843
-0.001049
-0.289
-0.05692
-0.06745
0.06942
0.01041
-0.1991
0.03194
-0.2022
-0.3069
-0.3127
-0.01141
0.2048
-0.206
0.03674
-0.1186
-0.1639
0.2011
-0.1891
0.07933
-0.002464
-0.1693
-0.000165
-0.3211
-0.204
0.02655
-0.0731
-0.2715
-0.1108
0.002238
-0.0998
0.2277
-0.04736
0.04045
-0.2574
0.1467
-0.3255
-0.3084
-0.01368
-0.3241
0.1728
-0.2555
-0.2512
-0.3031
3.563e-05
-0.2876
0.04749
-0.1274
0.07145
-0.3185
0.0101
0.001392
-0.3018
-0.2044
-0.2431
-0.3198
-0.002126
-0.04372
-0.3229
0.02973
0.008087
0.006101
-0.1406
-0.09218
0.2266
0.04084
-0.1552
0.01352
0.396
-0.003327
-0.2104
-0.3131
-0.07545
-0.07286
-0.3292
0.131
-0.2429
-0.07588
-0.3195
-0.2506
-0.3201
-0.1199
-0.3167
-0.3169
0.3164
-0.3171
0.0006557
-0.004434
-0.3245
-0.317
-0.0005975
-0.2929
-0.2855
-0.08019
-0.3257
-0.01075
0.0002522
0.4731
-0.2845
-0.2298
-0.3265
0.2946
0.4055
-0.3286
0.03093
0.2284
-0.3215
-0.3267
-0.0103
-0.1369
0.02998
-0.3526
-0.1047
-0.3204
-0.308
-0.2027
-0.2949
0.4068
-0.0865
-0.2043
0.009944
0.2924
-0.005425
-0.2169
-0.3057
-0.2055
-0.2103
-0.1985
0.004525
-0.32
-0.3218
0.01076
-0.2512
0.1456
-0.278
-0.04812
-0.3133
-0.07147
-0.2932
-0.3282
0.0005374
-0.2061
-0.1983
0.1802
-0.1083
-0.1996
-0.01081
-0.08804
0.01078
-0.3139
0.003677
-0.1403
-0.4496
-0.2127
-3.842e-06
-0.3249
-0.05018
-0.1983
0.2482
-0.364
-0.3069
0.03299
-0.2406
0.1669
-0.0006796
0.06842
-0.3174
-0.1325
-0.1678
-0.317
-0.2712
-0.3063
-0.3117
0.1645
-0.2685
-0.3019
-0.01899
-0.204
-0.3076
-0.0518
-0.0914
-0.2255
0.001748
0.002224
0.1026
-0.3213
-0.2028
0.01204
3.955e-05
0.1606
0.2049
-0.269
0.229
-0.254
-0.2828
0.02045
-0.01048
-0.002052
-0.2198
-0.2994
0.0201
0.000512
-0.3213
-0.1018
-0.3143
-0.002528
-0.06532
0.01216
-0.2712
-0.2054
-0.3164
-3.232e-06
-0.2685
-0.3109
0.2402
0.0002477
-0.04071
-0.2022
0.006056
-0.0728
0.009295
-0.1609
-0.3316
0.008096
-0.3199
-0.0622
-0.2023
-0.3301
-0.3295
-0.07889
-0.0674
0.4845
-0.1174
-0.4107
-0.197
-0.2079
-0.3161
-0.1244
0.0005645
-0.001023
0.00936
0.4646
-0.04201
-0.3292
0.001446
0.005705
-0.107
0.175
-0.3193
0.0004663
-0.001957
-0.2152
-0.3309
-0.3217
-0.1268
-0.2235
0.2267
-0.3126
0.2274
-0.3279
-0.3005
-0.3185
0.000457
-0.3195
-0.3294
-0.02502
-0.3131
0.005879
3.065e-05
-0.3272
0.3082
-0.3294
-0.203
-0.04097
-1.977e-05
-0.2869
-0.318
0.06872
-0.3203
-0.02007
0.01383
-0.2956
0.03174
-0.3293
0.1478
-0.1984
-0.2025
-0.2508
-0.243
-0.3101
-0.3298
-0.06369
-0.3303
0.03726
-0.3176
-0.2006
-0.3217
-0.002164
-0.04194
0.1267
0.3482
-2.344e-05
-0.002134
-0.2055
-0.08588
-0.01646
-0.3268
0.3196
-0.296
-0.2628
-0.1478
0.2726
0.04293
-0.009737
0.001095
-0.2646
0.0398
-0.327
0.3464
0.1833
-0.2354
0.1821
-0.2185
-0.2233
2.057e-05
-0.1858
-0.01283
0.02026
-0.2057
-0.04203
-0.3129
-0.2842
-1.723e-05
-0.09158
-0.126
-0.2272
-0.2169
-0.318
-0.3283
-0.5575
-0.3082
0.2914
-0.2434
0.0307
-0.09257
-0.09252
-0.2889
-0.000705
-0.2019
0.1284
0.05933
0.01273
0.2079
-0.09378
-0.005632
-0.2023
-0.2484
-0.2687
6.203e-06
-0.2031
-0.3027
-0.07026
-1.009e-05
-0.3301
-0.2155
-0.3272
-0.3193
-3.344e-05
-0.2721
-0.1982
-0.3143
-0.3225
0.01222
-0.3246
0.489
-0.01939
-0.01693
0.01391
-0.3299
-0.295
0.06867
-0.04196
-0.06377
-0.2833
2.187e-05
-0.2718
-0.2591
-0.1744
-0.04489
-0.2525
-0.2509
-0.2716
1.369e-05
-0.2779
-0.2954
-0.3267
-0.2019
-0.3258
-0.213
-0.3242
-0.2143
0.02598
0.00448
-0.1981
-0.3046
-0.3302
-0.2238
-0.2551
-0.2515
-0.2798
-0.1388
-0.001998
-0.239
-0.06927
4.286e-05
-0.2867
-0.3512
-0.04633
0.1357
0.0003666
-0.3125
-0.2037
-0.009997
0.00036
-0.3042
-0.2714
-0.2241
-0.2467
-0.2702
-0.2074
-0.06173
0.2567
-0.002301
-0.2867
-0.2524
-0.1812
-0.1548
0.2541
0.0002219
-0.01065
0.01607
-0.3219
-0.002382
-0.2003
0.3399
-0.06869
-0.05198
-0.0005938
-0.2073
-0.07503
0.0003492
-0.07573
-0.001424
0.2753
0.4995
-0.327
-0.3167
-0.2053
0.006185
-0.3157
0.1528
-0.1411
-0.2004
-0.06302
-0.4558
-0.2505
-0.004811
0.1964
-0.04188
0.001792
-0.3137
0.1013
-0.3362
-0.2005
-0.0434
0.0002486
-0.08903
-0.2196
0.02495
-0.3189
-0.3236
0.4979
-0.3286
-0.3293
-0.3194
-0.2261
-0.2337
-0.1753
-0.00315
-0.05303
7.621e-06
2.405e-06
-0.3303
-0.04813
-0.3244
-0.1873
0.3379
-0.09215
-0.05002
-0.3853
0.01752
-0.01087
-0.2561
-0.2626
-0.04852
-0.3218
-0.244
-0.2076
0.0003135
0.4993
-0.324
-0.2449
0.008771
-0.3208
0.02007
-0.002803
-0.3199
-0.306
-0.2756
-0.0005758
0.001476
-0.2626
-0.2081
0.1345
-0.2444
-0.2993
0.2204
0.01012
-0.2009
-0.3187
-3.352e-06
0.3183
-0.1896
1.74e-05
0.2028
-0.1984
-0.3058
-0.3239
-0.1627
-0.03535
-0.199
-0.1473
-0.1021
-0.009496
0.005401
-0.008786
0.2556
-0.2681
-0.3217
0.2034
0.1893
-0.1952
-0.1817
0.1889
-0.1419
-0.3196
-0.005756
-0.2581
-0.2024
-0.3244
-0.3101
-0.2987
0.007328
0.01995
-0.2284
0.0557
-0.2316
-0.06534
-0.2367
-0.2376
-0.3266
-0.3206
-0.3182
-0.05748
-0.329
-0.1711
-0.3019
-0.07024
-0.2522
0.0196
-0.2548
-0.2021
-0.1981
-0.298
-0.005533
-0.004084
-0.2726
-0.2368
-0.0246
0.0003429
0.2496
-0.3119
-0.116
-0.2482
-0.3288
-0.2897
-0.2063
0.002355
-0.00496
-0.1363
0.1565
-0.1613
-0.21
0.232
-0.3157
-0.329
-0.1202
-0.1376
-0.2407
0.2412
-0.0848
-0.2544
0.204
-0.005366
-0.281
-0.1987
-0.2585
-0.3305
0.5
-5.814e-05
-0.3175
-0.008635
-0.0001458
-0.002303
-0.3199
-0.3188
-0.1982
-0.202
-0.0517
0.1539
-0.2705
-0.01206
-0.05102
0.004933
-0.2746
-0.2089
-0.2718
0.007171
-0.1983
-0.2645
-0.0003629
-0.06476
-0.2178
0.004519
-0.3286
-0.0001319
0.007943
-0.05816
0.007655
-0.3187
0.004595
-0.07487
-0.002776
-0.3641
-0.0009933
-0.2463
-0.07812
-0.00893
-0.05139
-0.2937
-0.0864
0.000953
-0.004423
-0.3237
-0.02063
-0.2493
-0.2783
-0.1862
-0.2768
-0.2884
-0.3299
0.05526
-0.3218
-0.0968
-0.06838
0.09091
-0.249
-0.001477
-0.3264
-0.2007
-0.02802
-0.0001325
0.382
-0.3082
-0.1127
0.05937
-0.3262
-0.06221
-0.3243
-0.308
-0.1124
-0.2103
0.05556
-0.2006
-0.0003159
-0.1498
-0.3275
0.006943
-0.3244
-0.3186
-0.0001833
0.01696
-0.1998
-0.01826
0.07773
-0.3216
-0.2064
-0.02291
-3.358e-05
-0.3208
-0.3038
-0.01096
0.04157
-0.05494
-0.3111
-0.316
-0.02378
-0.05009
-0.1983
-0.1982
0.003343
-0.04151
-0.2855
-0.1762
0.0001796
-0.1027
-0.003483
-0.2944
0.2911
-0.3282
0.05878
-0.1991
-0.3301
0.002912
-0.2016
-0.2887
-0.3053
-0.1257
-0.3635
-0.3037
-0.2228
-0.1513
-0.05865
0.116
-0.1888
-0.2357
-0.1772
0.00399
-0.05071
0.3584
-0.2047
-0.2414
-0.03165
-0.2749
-0.3178
-0.06919
-0.09986
-0.2992
-0.2543
-0.07886
0.005824
-0.05002
-0.03512
6.939e-06
-0.004357
-0.325
-0.1938
-0.2635
0.000811
-0.324
-0.24
0.006191
-0.3337
-0.06011
-0.3295
-0.2035
0.0782
-0.2427
-0.1985
-0.2529
-0.2515
-0.279
-0.0707
-0.3186
-0.05155
-0.1295
0.2162
-0.3296
-0.06361
-0.1771
-0.3153
-0.2969
0.03377
-0.1597
-0.2345
-0.1982
-0.2419
-0.03459
-0.2209
-0.1457
-0.2639
-0.03582
-0.2548
-0.02561
-0.3227
-0.3019
-0.2509
-0.2755
-0.002958
-0.2729
-0.3249
-0.2734
-0.2535
0.02018
-0.1338
0.002642
-0.01265
-0.1992
-0.3212
-0.0433
-0.3176
-0.2686
-0.237
-0.02121
-0.2293
-0.2638
-0.3354
-0.3264
0.0128
-0.3148
0.006179
-0.3219
0.00252
-0.2553
-0.005081
0.04339
0.000223
3.213e-05
-0.2049
-0.2088
-0.2459
-0.2064
-0.0002602
-0.0002887
-0.1998
-0.3082
-0.3029
-0.3205
-0.07198
-0.08274
0.06164
-0.07243
-0.2293
-0.2804
6.907e-05
-0.1872
-0.2922
0.03841
-0.05258
-0.321
-0.2937
-0.2816
-0.1509
-0.3238
0.281
-0.2859
-0.3171
-0.2391
-0.3004
-0.1176
-0.04232
0.1963
-0.2416
-0.1984
0.002135
-0.1256
-0.4884
0.0001525
-0.3282
-0.02688
-0.2627
-0.03466
-0.003598
0.09862
-0.1865
0.000219
-0.1665
-0.2907
-0.1113
0.4694
-0.001442
-0.08586
-0.2021
0.05001
-0.2795
-0.3297
0.1683
0.03207
-0.2041
-0.4348
-0.3239
-0.2941
-0.005025
-0.3205
-0.2657
-0.1537
-0.385
-0.2582
-0.2876
-0.003372
-0.0462
-0.2713
0.003043
-0.2359
-0.0001717
-0.5205
-0.2294
-0.1996
-0.2587
-0.3248
-0.3315
-0.3212
-0.1379
0.0953
-0.3307
-0.3093
-0.2907
-0.3293
-0.3212
-0.2486
-0.001485
-0.2104
-0.001222
-0.2914
0.004901
-0.2144
-0.003866
-0.3224
-0.2394
-0.0002609
0.008015
-0.2019
-0.2483
-0.3024
0.009898
-4.377e-05
0.2169
-0.3151
0.08053
-0.1984
-0.2926
-0.2032
-0.05848
-0.09133
-0.07606
-0.0228
-0.2056
-0.2515
-0.1875
-0.2066
-0.26
-0.3202
-0.329
-0.3159
-0.2442
0.004232
-0.3301
-0.3144
0.165
0.00433
-0.05814
0.1551
-0.06063
-0.2216
7.147e-05
7.619e-05
-0.1488
-0.2855
0.01931
-0.2779
-0.06797
0.01109
0.3281
0.001637
-0.05766
0.1035
-0.3051
-0.01234
-0.3126
-0.1228
-0.3191
-0.3121
-0.01129
-0.06307
-0.2814
-0.02147
-0.201
-0.2014
-0.0393
-0.3255
-0.01916
0.03337
0.004816
-0.07872
-0.2039
-0.3183
-0.1235
-0.003812
-0.2401
0.1201
-0.06031
0.4273
-0.02545
-0.3054
-0.2888
-0.2195
7.088e-05
-0.3958
-0.3175
-0.2044
-0.1361
-0.2408
-0.23
-0.005833
-0.3188
-0.2028
-0.3004
-0.09884
-0.3192
-0.2054
-0.05161
-0.3179
-0.2066
0.3195
0.01022
0.3419
-0.3117
-0.1277
-4.65e-05
4.449e-05
-0.0953
-0.2782
-0.3899
-0.3256
-0.1132
-0.1687
-0.3297
-0.001246
-0.2491
-0.03368
-0.01087
-0.004765
-0.2477
-0.000637
0.1262
-0.005073
-0.3944
0.05048
0.2783
-0.3275
-0.1628
-0.0002382
0.4999
-0.264
0.126
-0.3019
-0.3216
0.004647
-0.3262
-0.2714
-0.2999
-0.2003
-0.1985
-0.2798
-0.4613
0.1951
-0.03072
-0.0005124
-0.2307
-0.000244
4.126e-05
0.02248
-0.1992
-0.0005354
-0.1838
0.0003809
-0.3293
-0.3126
-0.3133
0.07123
0.0009739
-0.2635
-0.3209
-0.2054
-0.1234
-0.05951
0.07079
-0.003334
-0.00141
-0.3224
0.4999
0.06861
-0.05594
-0.04533
-0.2558
-0.02578
0.06218
-7.24e-05
0.1084
-0.284
-0.1393
-0.04949
0.1866
0.02899
-0.3268
0.002817
-0.03853
0.1493
-0.2058
0.267
0.01958
-0.3151
-0.002152
-0.326
-0.1155
-0.2668
-0.05809
-0.05941
-0.2879
-0.01643
0.1628
-0.2438
-0.3247
-0.345
-0.2027
0.0001256
-0.2434
-0.008294
-0.3192
-0.003003
-0.3173
0.006354
-0.2027
-0.004162
-0.07528
-0.2787
-0.002636
-0.2753
-0.1317
0.2193
-0.3165
-0.002785
-0.1024
-0.002567
0.05794
0.274
-0.02004
-0.2308
-0.03703
-0.01049
-0.3199
-0.2059
0.39
0.2184
-0.2189
-0.07714
-0.3274
-0.3179
0.4622
-0.1091
-0.234
0.1908
0.008204
-0.06115
-0.3099
0.2696
-0.07883
0.04245
-0.0008171
-0.1991
-0.2671
-0.3057
-0.262
-0.02208
-0.2554
-0.08327
-0.05609
-0.0005489
-0.08244
-0.02653
-0.05763
-0.08181
0.005767
-0.3315
0.001716
-0.3048
-0.04523
-0.3096
0.28
-0.0133
-0.02567
0.005366
-0.06611
0.2881
0.2165
-0.3249
0.03055
-0.119
-0.06873
-0.00625
0.02857
-0.2029
0.0001731
-0.3166
0.03989
0.03311
0.2839
-0.04383
-0.2139
0.0003574
-0.2937
-0.3297
-0.0003273
0.1157
-0.3358
-0.3107
7.61e-05
-0.2572
-0.1753
-0.2974
-0.3225
-0.2619
-0.1017
-0.3111
0.000123
-0.0003815
-0.2031
-0.04094
-0.329
0.298
-0.2249
-0.1742
-0.328
0.03562
-0.3187
-0.2055
-0.4202
-0.2046
-0.2028
-0.325
-0.111
-0.2431
-0.09779
-0.2146
-0.3114
-0.2061
-0.1994
0.2267
-0.2726
-0.2974
-0.06929
0.01247
-0.4434
-0.09743
-0.3012
-0.1677
-0.1043
-0.01034
-0.2049
-0.2599
-0.0002523
0.07231
-0.05716
-0.3262
-0.3214
-0.3021
-0.02327
0.00348
0.01337
-0.3219
-0.1994
-0.3207
-0.04615
-0.08787
1.381e-05
-0.3335
0.499
-0.07546
1.238e-05
-0.2547
-0.253
-0.1158
-0.3302
-0.2095
-0.1075
-0.0003384
0.3053
-0.03552
-0.01084
-0.2192
-0.01409
-0.1031
-0.4241
-0.1276
-0.1998
-0.5565
-0.2401
-0.06471
0.0002451
0.09181
0.1371
-0.2325
-0.1034
-0.2114
-0.1019
-0.2307
-0.1159
-3.904e-05
0.0003683
-0.1469
-0.386
-0.2504
-0.3205
0.0517
0.1687
0.01188
0.04489
-0.3177
-0.02324
0.00621
-0.0842
-0.1119
-0.08698
-0.221
-0.00353
0.06031
-0.326
0.189
-0.2888
-0.1989
-0.04685
-0.03165
-0.1503
-0.2776
-0.2039
-0.2486
-0.06532
-0.176
-0.2049
-0.1617
-0.107
-1.489e-05
-0.08824
-0.2026
-0.2453
-0.003065
0.005139
-0.2947
-0.04843
-0.2138
-0.02956
-0.1715
0.4731
0.002385
-0.1125
-0.2324
-0.2324
-0.07244
-0.2814
0.02043
-0.3222
-0.3142
-0.0484
-0.3284
-0.0008447
-0.2027
-0.2265
-0.06109
-0.1899
-0.05104
-0.3221
0.007757
-0.1094
-0.324
-0.3107
-0.1144
-0.1987
-0.05481
-0.2673
-0.2727
-0.2839
-0.3256
-0.2281
0.404
-0.2684
-0.01285
-0.2163
-0.2447
-0.0512
-0.02342
0.0003336
-0.3176
-0.2194
-0.3236
6.417e-06
-0.2404
-0.2068
-0.2213
-0.2235
-0.3239
-0.2287
-0.3002
-0.05876
0.002877
-0.2542
-0.0008372
-0.2361
0.07503
-0.05681
-0.2963
0.002508
-0.05469
-0.1601
-0.2014
-0.003882
-0.03729
-0.2206
-0.09885
-0.3216
0.01196
-0.3284
-0.2185
0.04087
-0.1313
-0.2913
-0.3283
-0.326
-0.07076
-0.09403
-0.1923
-0.2786
-0.4516
-0.1438
-0.288
-0.02316
0.01089
-0.0005325
0.1589
-0.1545
-0.3269
0.00666
-0.3139
-0.2653
-0.4352
-0.291
-0.01297
-5.291e-06
-7.115e-07
-0.09593
-0.3279
-0.2086
0.4454
0.09678
-0.3116
-0.06976
0.002535
-0.1063
0.01717
-0.05082
-0.2093
-0.1268
-0.1047
0.08032
-1.734e-05
-0.06972
0.07929
-0.01237
0.09115
-0.3187
0.3943
-0.206
-0.3256
-0.1447
-0.3272
-0.3195
-0.01859
-0.3113
-0.245
2.269e-05
-3.75e-06
-0.2738
-0.234
-0.1646
0.2284
0.2353
-0.3272
0.0005249
-0.003741
0.2397
-0.002973
-0.3145
0.0477
-0.2979
-0.0206
0.03835
0.005017
0.3721
-0.3603
3.551e-05
-0.0714
-0.04273
-0.05751
-0.2222
0.1611
-0.3168
-0.33
-0.3254
-0.2673
-0.08174
-0.2759
0.1755
0.001364
-0.3179
-0.2022
-0.5474
-0.2188
-0.2125
-0.2599
0.3003
0.2284
-0.008575
-0.04499
-0.05328
-0.3192
-0.02799
-0.2336
0.001706
-0.06223
-0.2606
-0.04548
-0.3003
0.07391
-0.3051
0.206
-0.1546
-0.3242
-0.06232
-0.1497
-0.3231
-0.0002231
-0.2217
-0.1681
-0.3182
-0.2967
-0.2781
-0.1155
-0.004032
0.005493
-0.3247
-0.008956
-0.04862
-0.1992
-0.2196
-0.216
-0.3197
5.785e-06
-0.3272
-0.04789
-0.2084
0.2679
-0.09456
0.02672
-0.2366
-0.02008
0.1874
-0.08214
-0.3239
-0.2345
-0.1984
0.003541
-0.2518
-0.1894
-0.2274
-0.3523
-0.1102
-0.2601
-0.3244
0.01339
-0.00199
0.2568
0.2337
0.2823
-0.3279
-0.3232
-0.1104
0.1585
-0.3144
-0.2806
0.4343
-0.1986
-0.2462
-0.2024
-0.2635
8.245e-05
-0.3002
0.01088
0.001961
-0.3071
-0.02136
-0.2406
0.05943
-0.3054
-0.3236
-0.08069
-0.3187
-0.2856
0.4281
-0.2999
-0.2138
-0.2148
-0.316
-0.2955
0.0005357
-0.2231
-0.3063
-0.2499
-0.2051
2.466e-05
-0.3008
-0.1148
-0.05234
-0.3093
-0.2005
-0.4282
-0.28
-0.3027
-0.3165
0.02745
-0.2349
0.004679
0.02189
-0.3081
-0.1996
-0.3221
-0.3177
-0.1791
-0.2907
-0.01442
-0.3283
-0.3042
-0.3052
-0.0847
-0.3184
0.4766
-0.04907
0.1814
-0.06453
-0.2617
-0.1277
-0.2017
-0.2942
-0.2552
0.1746
-0.2176
-0.3255
-0.07108
0.2222
0.002946
-0.3207
-0.3269
-0.243
-0.04777
-0.06406
-0.3243
-0.3292
-0.3136
-0.328
-0.4613
0.004771
-0.2017
-0.2842
-0.1092
0.06876
0.08271
-0.01366
-0.3228
-0.3036
0.06137
-0.3905
0.1015
-0.3296
-0.3239
-0.2824
-0.08944
-3.767e-05
2.985e-05
-0.1283
-0.3294
0.0877
-0.3225
-0.137
0.003571
-0.3234
-0.002072
-0.3306
0.007573
-0.0138
-0.3238
-0.3291
-0.1328
-0.3708
0.04703
-0.001064
-0.1289
-0.2359
0.002511
-0.02342
-0.1613
-1.732e-05
-0.03613
-0.2806
-0.2886
-0.2172
-2.437e-05
-1.22e-05
-7.488e-06
-1.684e-05
-0.04954
-0.2063
-0.009167
0.205
-0.06135
-0.22
-0.3198
-0.3198
1.676e-05
-0.3201
-0.2495
-0.1983
-0.3205
-0.1987
-0.2008
-0.07866
-0.06558
-0.3281
-0.1439
-0.04475
-0.07642
0.3831
0.03347
-0.09549
0.3695
0.276
-0.003841
-0.2245
-0.3016
0.01291
-0.1075
0.06935
0.2068
-0.003794
-0.2463
-0.3224
-0.0004983
-0.327
-0.2678
-0.316
-0.2136
-0.2041
-0.09846
-0.2829
0.0004629
0.2433
-0.1942
-0.2618
-0.2576
0.2082
0.005196
-0.01507
-0.2566
-0.1987
-0.3007
-0.01966
-0.3149
-0.3185
-0.04157
0.4585
-0.06526
-0.31
-0.2406
-0.2048
-0.279
-0.06979
-0.1704
-0.04972
0.009486
0.1772
-0.006949
0.004463
-0.2686
0.0004753
0.4322
-0.2851
-0.1447
-0.2677
-0.01948
0.005359
-0.07384
-0.2095
-0.04261
-0.2304
-7.677e-05
0.02108
-0.5582
-0.3182
0.004548
-0.3209
-0.3199
-0.189
0.0001492
-0.302
-0.3184
-0.01911
-0.03124
-0.2935
-0.3237
-0.5213
0.1399
-0.0796
-0.1982
-0.001969
-0.0278
-0.3196
-0.1484
-0.00396
-0.07508
-0.4592
-0.1678
0.01774
-0.08105
-0.3247
-0.1781
-0.05285
-0.2756
-0.004373
-0.3139
-0.322
-0.2701
-0.3183
0.01724
-0.2534
-0.2027
0.1906
0.004522
0.007062
-0.1593
-0.3223
-0.2703
-0.1993
-0.3261
-0.06291
-0.2709
-0.3286
-0.2207
-0.2686
0.000367
-0.3202
-0.3237
-0.03815
-0.2766
0.2513
-0.1378
0.4973
-0.2613
-0.319
-0.1886
-0.124
-0.03155
0.2374
0.05342
-0.06929
0.2168
0.006439
-0.5739
0.001402
-0.2733
-0.3285
-0.2023
-0.2035
-0.3674
-0.242
0.3434
-1.954e-05
0.4758
-0.3174
0.0001831
-0.2726
-0.2197
0.3827
-0.09372
-0.2302
-0.3037
0.01521
-0.05295
-0.3184
0.1715
-0.06753
-0.3207
0.001072
-0.2705
-0.07555
-0.2015
-0.1365
-0.2175
-0.2071
-0.08438
-0.04874
0.02061
0.0008232
-0.001703
-0.08038
0.1089
-0.03973
-0.2568
0.006003
-0.2203
-0.04666
-0.3289
-0.3268
-0.2618
-0.0001851
0.01221
-0.0803
-0.04122
-0.3241
-0.2497
-0.2607
2.342e-06
-0.07689
-0.02857
8.365e-06
-0.2907
0.03569
-0.01243
-0.3174
-0.2172
-0.2056
-0.27
-0.09339
0.09807
-0.1177
-0.2543
-0.3253
-0.2908
-0.2946
-0.3213
-0.255
0.0707
-0.03864
-0.2351
-0.1938
0.02155
0.1488
-0.2066
-0.1452
-0.3271
2.563e-05
-0.04949
-0.1975
0.004884
-0.04591
0.1931
-0.3026
-0.3215
-0.1157
-0.2362
0.2046
-0.2232
-0.1985
0.0002136
-0.2731
0.08667
-0.1347
0.09685
0.002431
0.3229
-0.2999
-0.2672
-0.283
-0.3047
-0.3289
0.1215
-0.3145
-0.2708
-0.3208
-0.216
-0.3294
-0.3287
3.926e-05
-0.2326
-0.188
0.0005749
-0.04592
-0.124
4.826e-05
-0.3187
-0.3177
-0.03706
-0.009814
-0.08927
-0.0002164
-0.2965
-0.01278
0.00806
-0.2016
0.198
-0.05071
-0.003538
0.1491
-0.008071
-0.1179
-0.2889
-0.3113
-0.0696
-0.3154
-0.0821
-0.2924
-0.3625
0.09905
0.000444
-0.2944
-0.2782
0.0006958
-0.03013
0.005773
-0.1899
-0.3141
-0.3353
-0.265
-0.001105
-0.3149
-0.1138
-0.3186
-0.2004
-0.3179
-0.2131
-0.004771
-0.2956
-0.04471
0.0157
-0.3295
-0.181
-0.0507
-0.2679
-0.03195
0.3571
-0.319
0.0004767
1.766e-05
-0.02525
-0.07799
0.3247
-0.1983
-0.302
0.01184
-0.07556
0.2498
-0.07694
-0.003608
-0.1953
-0.1631
-0.09778
-0.0004089
0.4251
-0.3215
-0.09177
-4.68e-06
-0.07129
-0.2927
0.0297
-0.1056
0.01418
0.07522
-0.2882
-0.3275
0.0005143
-0.2034
-0.2376
-0.3166
-0.2523
-0.3249
-0.09817
-0.2717
0.007253
-0.3528
-0.006119
-0.3144
-0.0349
-0.326
0.294
0.003999
-0.3206
-0.3296
-0.3019
-0.318
-0.06511
-0.333
-0.1183
-0.168
-0.1994
-0.2293
-0.202
-0.3257
3.561e-05
0.2969
-0.0335
-0.192
-0.2029
-0.3191
0.1635
0.012
-0.006226
0.03947
-0.09055
1.898e-05
-0.4421
-0.3116
0.005103
-0.02443
-0.1281
-0.1697
0.003337
-0.2618
-0.2199
-0.07775
0.03158
-0.3249
-0.4953
-0.3296
-0.2917
-0.07798
-0.2097
-0.3263
0.002616
-0.3061
-0.3278
-0.3105
-0.002637
-0.1245
-0.2767
-0.2256
-0.2599
-0.3326
0.1634
-0.2416
-0.3091
-0.2142
-0.2984
0.2425
-0.2676
0.03576
-0.02951
0.01774
-0.2014
-0.004225
-0.3188
-0.183
0.005184
-0.328
-0.2921
0.1959
-0.04983
-0.3245
-0.04227
-0.2867
0.1326
-0.01389
0.009881
-0.2418
-0.2031
-0.0001503
-0.3159
0.05235
0.2175
-0.2136
-0.3008
-0.1448
-0.07126
-0.2813
-0.3157
0.003463
-0.2899
-0.2873
-0.5197
-0.09189
-0.2013
-0.3316
-0.305
-0.3278
0.007625
-0.2432
-0.3098
-0.0004051
0.001342
-0.2882
-0.1214
-0.002967
0.1462
-0.1266
0.1004
-0.2591
-0.314
-0.3134
-1.387e-06
0.1443
-0.004066
0.007937
3.221e-06
-0.1692
-0.2059
-0.2572
-0.313
-0.3232
-0.2309
-0.218
0.0004187
-0.3179
-0.2226
0.4998
-0.3191
-0.09217
-0.2074
-0.1003
-0.003559
-0.2076
-0.317
-0.1073
-0.1101
-0.2022
-0.3194
2.655e-05
0.005319
-0.1043
-0.215
-0.2301
-0.3812
-0.003576
-0.2078
-0.303
-0.1764
0.002202
0.02814
-0.08702
0.06741
-0.2848
-0.3077
0.4202
0.0001153
0.06827
2.009e-06
-0.3238
0.06117
0.01094
-0.2163
-0.2925
-0.1988
-0.2272
-0.2077
0.03498
0.0004285
-0.33
-0.0236
-0.008193
-0.3256
-0.3216
-0.3013
0.0003631
-0.04117
-0.1999
0.04286
0.2543
-0.2796
-0.002901
-0.3978
0.01953
-0.2019
0.01141
-0.002251
-0.009431
-0.001679
-0.3226
-0.3052
-0.08516
-0.03408
-0.2045
0.007313
-0.2212
0.01864
0.00434
-0.003026
-0.3286
-0.2479
-0.2292
0.002246
-0.2812
-0.1999
-0.325
0.1106
-0.2673
-0.06419
-0.3069
0.1347
-0.1563
-0.2915
-0.09628
-0.2159
-0.2387
0.0728
-7.311e-06
-0.3179
0.004089
-0.3005
-0.1719
-0.3226
-0.3273
-0.3262
-0.0005575
0.219
-0.3184
0.0001011
-0.3312
-0.003818
-0.2632
-0.3244
0.0007071
-0.3181
0.2623
0.0007018
0.05322
-0.2685
-0.1862
0.03181
0.1979
-0.04378
-0.09925
-0.005102
-0.1635
-0.2522
-0.01158
0.1983
-0.2972
-0.09361
-0.158
-0.07294
-0.3301
-0.31
-0.1987
0.3378
0.008754
-0.1076
0.1803
-0.09776
-0.3184
0.002525
-0.2332
-0.1159
-0.1438
-0.2015
-0.2944
-0.3212
0.0001409
-0.05277
-0.2828
-0.3102
-0.01851
-0.0417
-0.02068
-0.2892
0.2381
0.2361
-0.2711
0.1271
-0.2552
-0.09974
-0.3078
-0.009102
-0.0008451
-0.2857
-0.0001843
-0.2532
-0.009091
-0.1478
-0.2242
-0.3104
-0.1395
-0.3168
-0.2652
-0.0006482
-0.00201
-0.07026
-0.1078
-0.1663
-0.3215
-0.2666
-0.02818
0.2672
-0.3244
0.09656
-0.3299
-0.1692
-0.03557
-0.3264
-0.1209
-0.02166
0.01479
-0.1252
-0.1082
-0.3003
-0.2082
-0.1047
0.004521
-0.2121
-0.109
-0.004288
-0.2339
-0.02553
0.002127
-0.1981
-0.0133
-0.2145
-0.007433
-0.3281
-0.3229
3.895e-05
-0.3268
-0.3202
-0.2016
-0.2448
-0.2537
0.001661
-0.3181
0.0003518
-0.1487
-0.3277
0.4365
-0.00736
-0.1913
-0.1984
0.001422
-0.004554
-0.006548
0.04935
-0.02929
-0.08049
-0.3189
-0.05806
-0.3166
-0.2371
0.01842
-0.3607
-0.1507
-0.1309
-0.265
0.004575
0.06072
0.08402
-0.3169
-0.05134
-0.3103
0.001992
0.4453
-0.3198
-0.05096
-0.2711
-0.3238
-0.2275
-0.005462
-0.004272
-0.02951
-0.4135
-0.06027
-0.2453
-0.2795
0.04246
-0.07717
-0.01958
4.097e-06
0.2893
-0.2616
-0.1163
-0.3238
-0.3029
0.002846
-0.1043
-0.1451
-0.2142
-0.2322
-0.05325
0.07891
-0.3278
-0.02858
-0.04707
-0.07953
-0.1663
-0.2618
-6.362e-05
-0.209
0.1027
-0.1462
0.01276
-0.2165
-0.08498
-0.06177
-0.2364
-0.3605
-0.3252
0.4335
-0.2853
0.1846
-0.3259
-0.104
-0.3195
-0.1158
-0.2533
-0.3164
0.1138
0.008331
-0.3166
-0.3642
0.01177
-0.3258
-0.3205
-0.3085
-0.2313
-0.09245
-0.01833
0.01159
-0.3194
-0.2712
-0.2084
-0.2149
-0.2789
0.1471
-0.1198
-0.287
-0.2964
-0.3264
0.2775
-0.1036
-0.1096
-0.0002207
-0.3259
-0.3187
-0.3208
-0.3044
-0.102
-0.3269
-0.1623
-0.006626
-0.3184
0.02527
-0.3191
-0.3162
-0.03295
-0.05562
-0.2982
-0.052
-0.2065
-0.2486
-0.1554
-0.05834
-0.2519
-0.1016
-0.04453
-0.1982
0.1261
-0.3175
-0.2376
-0.2908
-0.1422
-0.3732
0.01062
-0.02102
-0.003552
-0.2555
-0.09741
-0.1988
-0.08417
0.2349
-0.2367
0.1187
-0.2329
-0.00939
-0.2968
-0.136
-0.1906
-0.09581
0.4543
-0.0612
-0.2637
0.001125
-0.3298
-0.2294
-0.2298
-0.3083
-0.002687
0.002257
-0.3234
-0.2588
0.03783
0.01003
-0.07466
-0.0008267
0.006498
-0.1092
0.02102
0.04645
-0.1534
-0.0006257
0.04582
-0.2424
-0.3443
-0.3181
0.009453
0.2171
-0.08341
-0.1295
-0.09598
-0.2104
-0.3286
0.07221
0.1448
-0.04154
-0.2749
-0.1985
0.006311
0.03443
-0.201
-0.3616
-0.003841
-0.2658
0.002439
-0.3183
-0.3149
0.06801
-0.3232
-0.1787
0.4904
-0.05018
-0.1387
0.4382
-0.2865
0.05558
-0.115
-0.2776
-0.2993
-0.06667
-0.3298
-0.2302
0.03856
-0.000291
-0.3068
-0.0931
-0.1117
-0.1588
0.004654
0.07101
-0.2001
0.0003159
-0.03302
0.04044
-0.2584
2.118e-05
-6.159e-06
0.0003316
-0.1064
-0.3917
-0.3168
-0.2365
-0.3101
1.954e-05
-0.01285
-0.04633
-0.1879
-0.07028
-0.3365
-0.3201
-0.2319
-0.3718
-0.2534
-0.3004
0.3155
-0.2568
-0.3226
-0.2833
-0.1099
-0.2505
0.007345
-0.2465
-0.1292
-0.128
-0.3143
0.1603
-0.3086
-0.3017
-0.2301
0.004804
-0.325
-0.3189
0.03166
-0.221
-0.002467
-0.04125
-0.07241
-0.07739
-0.2685
0.1646
-0.319
-0.2825
0.003744
-0.06192
-0.3092
-0.3026
0.002734
-0.06659
0.0008094
-0.1185
-0.319
-0.2541
-0.2002
-0.3288
-0.3297
-0.008231
-0.325
0.3159
-0.1626
-0.001711
-0.001551
0.02338
-1.502e-05
-0.2041
0.01351
-0.2881
-0.2527
-0.1999
0.003634
-0.3188
-0.2042
-0.1709
-0.05477
-0.08458
-0.2909
-0.2284
-0.02097
-0.1728
-0.321
-0.2049
-0.02014
-0.238
-0.3253
0.0207
-0.2278
-0.2509
-0.1983
0.3632
-0.00191
-0.2128
0.03338
-0.2379
-0.02683
-0.286
-0.1881
-0.06707
-0.003464
-0.1486
0.3757
-0.1748
0.002349
-0.0575
-0.2223
-2.371e-06
-0.05563
-0.0729
-0.3274
0.005132
0.004467
-0.2351
-0.008533
-0.0001492
-0.004699
-0.256
0.04378
-0.1119
-0.2694
-0.105
-0.143
-0.1347
0.001774
-0.287
-0.001603
-0.02686
0.013
-0.1298
-0.1134
0.0628
-0.2388
-0.3211
-0.2452
-0.3089
-0.1933
0.05683
-0.2049
-0.3158
-0.3077
-0.3142
-0.2232
-0.003482
-0.3146
-0.2909
0.0154
0.3945
-0.08044
-0.0986
-0.2887
-0.05832
-0.06752
0.07467
-0.1762
-0.3348
-0.3282
0.009191
0.08838
7.038e-05
-0.2354
-0.2962
-0.3295
-0.321
-0.2157
-0.2123
2.299e-05
0.04508
-0.3161
-0.05233
-0.009314
-0.09538
-0.2857
-0.3238
-0.3213
0.4544
0.1636
0.1342
0.2449
-0.1785
-1.019e-06
-0.2012
-0.3147
-0.2716
-0.05696
-0.1786
-0.02101
-0.2399
-0.304
0.006235
-0.3202
-0.08608
-0.08516
-0.3071
-0.1012
0.2233
0.003403
0.104
-0.1646
-0.2281
-0.3279
-0.3192
-0.03026
-0.25
-0.2352
-0.1286
-0.03766
-0.06517
-0.04448
-0.002717
-0.2038
-0.3219
-0.28
0.09416
-0.3623
0.001771
-0.005033
-0.3134
0.00348
0.0006701
-0.2965
2.733e-05
-2.067e-05
0.07824
-0.0001371
-0.2837
-0.2035
-0.1641
-0.2985
-0.03232
0.001457
0.005058
-0.322
-0.09082
0.2361
-0.1017
-0.3118
0.0007669
-0.2223
-0.3047
-0.1627
-0.231
0.003109
0.01453
-0.3042
-0.003591
0.001988
-0.2033
-0.04814
-0.007889
0.01937
-0.3301
-0.002721
-0.001021
0.004361
-0.2156
-0.09397
-0.2487
-0.2467
0.07785
-0.1547
-0.2879
-0.2212
-0.03543
-0.2077
-0.1047
-0.3195
-0.001862
-0.02743
-0.3102
-0.3198
-0.0001144
-0.205
-0.2331
-0.317
-0.2132
-0.02262
-0.257
-0.06259
-0.02577
-0.1983
0.004733
-0.5608
0.01186
0.09697
0.004408
-0.3212
0.009296
-0.08426
-0.02081
-0.1982
-0.2163
-0.2011
-0.293
0.0001534
-0.5313
6.298e-05
-0.2018
-0.2313
-0.2668
0.05502
-0.0001166
-0.3484
0.005715
-0.1029
-0.2699
-0.3121
0.03033
0.01687
0.4802
-0.004997
-0.206
-0.3224
-0.3259
-0.253
0.3348
-0.323
-0.4469
-0.1137
0.002272
-0.2764
0.3491
0.01005
0.00391
-0.3192
-0.2654
0.3971
-0.2981
0.4216
0.006553
-0.1464
0.00614
0.01281
0.007413
-0.3207
-0.0005927
-0.3097
-1.635e-05
-0.2823
0.01254
-0.3297
-0.1624
-0.3554
-0.04149
-0.3184
0.2984
-0.04966
-0.06992
-0.2159
0.005523
-0.1508
0.001144
-0.2505
0.1225
-0.00328
-0.1099
-0.3194
-0.2088
-0.0872
-0.2843
-0.1174
-0.01307
-0.2835
0.2303
-0.3222
-0.3065
-0.1982
-0.293
-0.2799
-0.3299
-0.2622
-0.3144
-0.1986
-0.1821
0.0005554
-0.3306
-0.0002547
0.04339
0.09381
-0.06052
-0.2006
-0.4447
-0.282
-0.2137
1.92e-05
-0.07478
-0.2954
-0.3265
-0.2742
-0.00445
-0.277
-0.3277
-0.0699
-0.0001039
-0.3234
-0.07266
-0.2911
-0.2745
-0.3221
0.2451
0.3648
-0.2681
-0.3264
-0.324
-0.2125
-0.228
0.0357
-0.3193
0.2029
0.01419
-0.234
-0.2481
-0.2704
-0.322
-0.3183
0.004841
0.2198
-0.2758
-0.2181
0.1946
0.2133
-0.221
-0.3211
-0.000827
-2.838e-05
-0.2023
-0.2493
-0.07451
0.0053
-0.1903
-0.2457
0.06642
-0.004257
0.00152
-0.1202
-0.1424
-0.2546
-0.3192
-0.3167
-0.3203
-0.1939
-0.2224
-0.3108
0.04152
-0.2868
0.4313
-0.2061
-0.1158
-0.08131
-0.2544
-0.003398
-0.0001689
-0.2676
-0.2732
-0.2825
-0.2919
-0.2462
0.01191
-0.2075
-0.3269
-0.2559
0.04134
-0.5002
-0.2038
-2.082e-05
-0.03294
0.0294
-0.03258
-0.2135
-0.3184
-0.0009004
-0.3229
-0.3215
0.006061
-0.3298
0.008796
-0.239
-0.1988
0.007893
-0.2932
-0.3285
-0.007301
0.1004
-0.02697
-0.1295
-0.009984
-0.08635
-0.2281
-0.3272
-0.222
-0.002397
0.0125
0.0004293
-0.3012
0.01102
-0.3128
-0.1983
0.1225
-0.292
-0.276
0.02217
-0.06679
-0.244
0.001141