/*--------------------------------*- C++ -*----------------------------------*\
  =========                 |
  \\      /  F ield         | OpenFOAM: The Open Source CFD Toolbox
   \\    /   O peration     | Website:  https://openfoam.org
    \\  /    A nd           | Version:  8
     \\/     M anipulation  |
\*---------------------------------------------------------------------------*/
FoamFile
{
    version     2.0;
    format      ascii;
    class       surfaceScalarField;
    location    "20";
    object      phi;
}
// * * * * * * * * * * * * * * * * * * * * * * * * * * * * * * * * * * * * * //

dimensions      [0 3 -1 0 0 0 0];

internalField   nonuniform List<scalar> 
189008
(
7.457e-08
-7.457e-08
1.729e-08
-1.729e-08
1.292e-08
-1.292e-08
1.857e-08
-1.857e-08
-1.767e-07
1.766e-07
1.886e-08
-1.886e-08
5.936e-06
-5.936e-06
-1.167e-06
1.167e-06
-6.65e-07
6.65e-07
8.95e-07
-8.951e-07
9.988e-06
-9.989e-06
-2.578e-06
2.578e-06
-2.516e-09
2.516e-09
-2.062e-08
2.062e-08
-1.857e-05
1.094e-06
1.747e-05
6.671e-06
-7.597e-06
9.264e-07
-5.962e-08
5.962e-08
0.003992
-0.004458
0.0004659
-0.001536
0.0008239
0.0007125
-5.552e-06
6.364e-06
-8.123e-07
0.0007667
-0.0006478
-0.0001189
6.86e-07
-3.81e-07
-3.05e-07
-0.003284
0.01025
-0.006966
1.987e-05
0.0005018
-0.0005217
4.165e-07
2.695e-07
-0.0002622
0.0001472
0.000115
-1.185e-05
1.306e-05
-1.213e-06
-1.309e-05
1.242e-06
0.0001838
-0.0001428
-4.1e-05
0.007325
-0.01704
0.00972
-4.762e-05
-0.000213
0.0002607
-7.093e-05
-0.0001913
-6.598e-06
3.782e-06
2.816e-06
-0.0001073
6.386e-05
4.34e-05
0.01119
0.01086
-0.02205
-3.091e-06
-3.507e-06
3.718e-05
0.0002921
-0.0003293
-0.0002473
0.0005124
-0.000265
-4.733e-05
0.0005931
-0.0005458
-5.367e-05
6.206e-05
-8.388e-06
-0.001075
-0.0004614
0.002037
-0.003713
0.001676
0.0006797
-0.004477
0.003797
7.601e-09
-7.6e-09
0.001819
0.002173
-5.761e-05
-4.966e-05
0.000121
6.279e-05
-0.0004934
0.0004965
-3.062e-06
-0.0007955
0.0009597
-0.0001642
-3.038e-05
0.0004798
-0.0004494
2.319e-06
4.351e-06
-0.01428
-0.03009
0.04437
-7.398e-05
-7.628e-05
0.0001503
-0.01301
0.01188
0.001134
1.083
-0.1284
-0.9544
0.0009323
-0.0007488
-0.0001834
-0.1464
1.229
0.01194
-0.007389
-0.004556
-0.3132
0.01899
0.2942
-0.005361
-0.007649
-0.002354
0.0001932
0.002161
-0.000514
0.0009241
-0.0004101
-0.0002258
0.001839
-0.001613
-0.8101
0.9551
-0.1451
-3.76e-05
8.478e-05
-4.718e-05
-0.0003619
-0.003103
0.003465
-0.02887
0.02347
0.005407
0.002241
-0.001858
-0.0003838
0.0006172
0.001624
-1.278
0.4804
0.7975
-7.016e-05
-0.00031
0.0003801
5.307e-06
7.757e-06
-0.001202
-0.0004967
0.001699
-0.1161
-0.197
-0.2739
0.5163
-0.2424
-5.582e-06
-7.513e-06
-0.05125
0.09184
-0.04059
-0.0006018
0.0005615
4.031e-05
0.000492
0.0004403
0.16
-0.6342
0.4741
-0.0001805
0.0001374
4.306e-05
-1.81e-06
-3.742e-06
0.0001011
0.0001198
-0.0002209
1.08e-05
4.862e-05
-5.942e-05
0.0001346
-0.0003595
0.0002249
-0.0003199
0.0005042
-0.0001843
-0.0006763
0.001289
-0.0006126
1.64e-05
-4.757e-06
-1.165e-05
-0.003105
0.002743
-0.0004035
0.0007341
-0.0003306
0.1849
-0.02104
-0.1639
-0.005346
-0.005931
0.01128
-0.0002644
0.0009218
-0.0006574
0.0004369
0.0003298
0.0004009
-0.0004087
7.762e-06
0.02783
0.01406
-0.04189
0.003254
-0.001217
0.0002628
-0.0002658
3.035e-06
-0.0004367
-7.844e-05
0.0005151
-0.01862
-0.01026
0.6863
-0.5263
-7.851e-06
-0.0007876
-7.308e-05
-0.0002578
0.0003309
0.004238
-0.005166
0.0009272
0.0001007
-0.0004207
-0.0005726
0.0001359
-0.001112
0.001595
-0.0004836
-1
-0.2776
-0.001189
0.0006024
0.0005863
-1.154
0.8759
0.2779
2.274e-05
-4.131e-05
1.183e-05
4.573e-06
-0.0005925
8.648e-05
0.000506
0.0007101
-0.00108
0.0003696
-0.2121
0.09635
0.1158
0.0005812
0.002487
-0.003068
-0.1067
0.05865
0.048
0.1656
-0.4395
0.0237
-0.07495
4.28e-07
-3.415e-07
-8.653e-08
-1.253
0.09864
5.717e-05
0.0001038
-0.000161
-0.000407
-0.000731
0.001138
0.01379
-0.01183
-0.001957
-0.0001192
-6.13e-05
0.0001902
-0.000176
-1.412e-05
-0.0005508
-0.0002756
0.0008265
0.08838
-0.1036
0.0152
-0.0002835
0.0001059
0.0001776
-0.000631
0.0005103
0.0001208
0.0004931
-0.0001599
-0.0003331
0.0003659
-0.0001389
-0.000227
-0.0003869
-0.001339
0.001726
-0.0002482
-0.0003536
1.42e-07
-1.086e-07
-3.34e-08
0.0005168
-2.379e-05
-0.005593
0.03696
-0.03136
-0.0002487
0.0005002
-0.0002515
-0.000167
0.0001927
-2.562e-05
0.03435
-0.05628
0.02194
0.009001
0.0003462
-0.009347
-0.0483
-0.04174
0.09004
-0.000236
0.0003202
-8.418e-05
-0.000705
0.0004167
0.0002883
-0.0001641
9.016e-05
0.001491
-0.0006599
-0.0008311
-4.843e-05
-1.884e-05
6.727e-05
-0.02779
-0.7823
0.0004568
-9.09e-05
0.0002301
-0.0003376
0.0001075
0.002512
-0.003723
0.001211
0.001104
-0.0003021
-0.000802
0.0014
-0.001552
0.0001518
-0.008937
0.0003716
0.008565
0.0001293
-0.0003128
0.0001836
0.0003399
-0.0002053
0.007923
0.004022
0.0006264
-0.0005122
-0.0001142
-0.0001072
-0.0003862
0.0001163
-0.000222
0.0001057
-0.000282
0.000519
-0.000237
-3.314e-05
3.314e-05
0.1912
-0.00623
0.0006242
-0.000198
-0.0004261
0.0001284
-0.0002725
0.0001441
3.088e-05
-6.848e-05
-0.0003412
3.91e-05
0.0003021
7.919e-05
0.001621
-0.0017
-6.827e-06
1.253e-05
-5.696e-06
-0.042
0.03365
0.008353
4.192e-06
1.109e-05
-1.529e-05
-0.0004006
-0.0003044
-0.00449
0.001907
0.002583
-0.002678
0.0008685
0.001809
1.021
-1.194
0.1731
-0.0001058
7.423e-05
3.159e-05
-0.0007749
0.00043
0.0003449
-0.0001495
-0.000134
-0.0004268
0.0008333
-0.0004065
0.1207
-0.1483
0.0276
-0.001755
-0.000923
-0.1213
-0.002586
0.1239
-3.925e-05
6.979e-05
-3.054e-05
-6.661e-05
-3.922e-05
-0.0002633
-0.0003677
0.0003319
-0.0008459
0.0009774
-0.007209
0.006231
-0.0001635
0.0008736
0.0005158
-0.0004959
-0.005436
0.08657
-0.08114
-2.244e-06
0.0001526
-0.0001504
-0.0001239
-3.673e-05
0.0001606
-0.04463
0.03904
0.000811
-0.0009631
0.0001522
8.235e-08
0.0002061
0.0006234
-0.0008295
-1.471
1.2
0.2713
-1.462
1.192
0.2699
1.516e-06
5.456e-08
-1.571e-06
-0.1669
0.1324
0.03443
0.205
-0.03823
-0.1667
-0.05825
0.04857
0.009671
0.02679
-0.07014
0.04335
0.000279
-0.0002418
-5.055e-08
5.055e-08
0.0003307
-0.001145
0.0008148
0.02582
-0.007491
-0.01833
0.002742
-0.0006306
-0.002111
0.03051
-0.02319
-0.2086
-0.003573
0.002053
-0.02226
0.02021
-0.0003743
0.0002726
0.0001017
-0.05943
0.2023
-0.1428
-2.7e-06
-4.126e-06
8.51e-06
-0.0002553
0.0002468
1.469e-06
-1.836e-06
3.672e-07
-1.71e-05
1.551e-05
1.589e-06
0.003477
-0.002092
-0.001384
-0.0001072
0.0003831
-0.0002759
0.02199
0.003829
-0.0006968
0.0003007
0.0003961
-0.471
0.2217
0.2492
0.0009723
0.0001318
0.0001478
-0.0001609
1.314e-05
0.0001087
6.185e-05
-0.0001706
-2.985e-05
2.46e-05
5.251e-06
-0.0002258
0.0003543
0.0002872
-0.0005345
7.524e-05
-7.713e-05
1.883e-06
0.0005736
-0.0005181
-5.556e-05
-0.0006856
0.000183
0.0005025
-0.04695
-0.07438
-0.00177
0.0005674
-4.434e-07
5.226e-07
-7.925e-08
-0.0004207
-0.0002648
-0.02356
0.01852
0.005035
0.0002017
0.0004225
5.458e-07
-5.458e-07
0.2263
-0.02131
-0.0002816
6.782e-05
0.0002138
-0.0002334
0.0001095
-5.64e-05
0.0001201
-6.368e-05
0.0003472
-0.0002416
-0.0001056
0.0003139
0.0003125
0.0001135
-2.623e-05
-8.729e-05
2.756e-07
1.524e-07
0.0009546
0.0004381
-0.001393
1.385e-05
-1.255e-05
-1.306e-06
3.983e-06
-3.983e-06
0.1969
-0.9668
0.7699
-0.0001759
-0.001962
0.002138
-6.872e-05
0.0001694
-0.0001007
0.002254
-0.001062
-0.001192
-0.0007368
0.0002472
0.0004895
-0.0001608
0.000731
-0.0005701
0.0006664
-0.0003969
-0.0002695
0.1173
-0.02893
5.847e-05
-0.0001339
7.544e-05
-0.0002214
0.00141
-0.001189
-0.008929
-0.001017
0.009945
0.001013
-0.0005516
-0.0004612
-0.06467
0.09687
-0.0322
-0.01447
0.009121
-0.08823
0.03993
0.0001421
-4.919e-06
-0.0001372
-9.157e-06
-7.498e-05
8.414e-05
0.0001493
-0.000303
0.0001536
8.121e-05
-0.0002387
0.0001574
-0.001057
-0.000675
0.001732
0.00299
-0.005295
0.002304
-0.0003494
-8.021e-06
0.0003575
0.8568
0.1643
0.0004515
-0.0005889
0.0001373
-0.0002847
3.093e-06
0.001278
-0.002191
0.0009138
0.0001851
-0.0001873
-0.0003286
-0.0002639
0.001068
-0.001244
0.0001762
-0.3777
-0.4363
0.8141
0.0007225
0.001266
-0.001988
-0.5428
-0.3508
0.8936
0.04333
-0.0155
0.004306
-6.771e-05
-0.09091
-0.1654
0.2563
0.04574
0.1207
-0.1665
1.939e-07
-5.962e-08
-1.342e-07
-0.0004863
0.0003942
9.209e-05
-0.07533
-0.1018
0.1771
0.001314
-0.0009682
-0.0003459
0.1739
-0.05324
6.212e-05
0.001338
-0.002455
0.005369
-0.002913
-0.01097
-0.01258
0.0009413
0.001361
-0.002302
-0.2058
0.2367
-0.03088
-0.0005159
0.0008485
-0.0003326
-0.0001961
-0.0001325
0.0003286
-5.062e-06
1.277e-05
-7.709e-06
0.0001376
0.0002096
0.00377
-0.0007802
-0.0001473
-0.0002436
0.0003909
-0.003844
0.001074
0.00277
-0.001224
-0.001724
0.002948
0.003603
-0.003022
-9.068e-05
0.0001527
-6.201e-05
0.0004997
0.0001234
-0.0006231
0.002518
0.0002238
-0.1827
0.1233
0.0006205
-0.000199
-0.0004215
-0.003327
0.003357
-2.961e-05
0.001256
0.0001154
-0.001372
-5.06e-06
5.874e-06
-8.138e-07
-0.0006218
0.000414
0.0002078
-0.8566
0.3138
-0.2572
0.1335
0.1236
0.0002872
0.0001724
-0.0004596
0.000187
-4.634e-05
-0.0001406
-0.0001196
-0.0001924
0.000312
0.01921
-0.009618
-0.009588
0.1982
-0.1883
-0.009876
0.008894
-0.01218
-0.000356
-2.19e-05
0.0003779
0.09654
-0.05384
-0.0427
0.001571
0.0006827
0.000496
-0.0002088
0.0001309
-0.0001274
-3.488e-06
-0.01682
0.03195
-0.01513
-3.076e-06
-1.838e-05
2.145e-05
0.0006464
-0.0002299
-0.0004165
-0.001659
0.0004674
0.001192
-0.001135
0.0006216
0.0005135
0.1943
-0.1485
-0.006155
0.01735
-0.501
-0.9701
-0.4976
-0.9643
-0.01072
0.001786
-0.000972
0.0007817
0.0001903
-0.004265
-0.0002258
-0.0003738
-0.0007613
-3.494e-05
-0.0003443
0.0003793
-0.01313
0.04747
0.002355
0.001122
0.0001958
-9.454e-05
-0.0001012
-3.903e-05
-8.292e-05
0.0001219
-0.0004318
2.146e-05
0.0004104
0.0003684
0.0009458
-0.0002586
0.0001052
0.0001534
0.0003316
-0.0004143
8.271e-05
0.0004932
-0.0003502
-0.000143
4.989e-05
-0.0002181
0.0001683
-0.0006717
0.0005364
0.0001353
0.0007066
-0.000925
0.0002184
-2.952e-06
8.711e-05
-8.416e-05
0.000146
-0.00207
-0.02703
0.0291
-0.0003266
0.0002892
3.745e-05
-0.0005688
-0.000168
-6.057e-06
-0.001243
0.001249
0.3006
-0.4095
0.109
0.0005821
6.438e-05
0.0002576
-0.0005168
0.0002592
-0.002073
0.001847
-0.004274
-0.003574
0.007847
0.0009101
-0.0009505
4.036e-05
-8.833e-05
0.0006881
-0.0005998
0.3811
0.1361
-0.5172
-0.1182
-0.04862
-0.1729
0.2412
-0.06825
-0.0001226
0.0001458
-2.325e-05
0.4309
-0.8086
-0.00152
0.001481
3.912e-05
0.06104
0.0355
0.000162
-0.0002307
6.687e-05
-0.0005516
0.0004847
0.1167
-0.1221
0.03211
-0.01442
-0.01769
-0.0001462
0.0006472
-0.000501
1.601e-07
2.024e-07
-3.624e-07
-0.0003702
0.000667
-0.0002967
0.928
-0.6964
-0.2316
0.0009898
0.001895
-0.002885
4.301e-05
0.0001471
-0.0006864
0.0004983
0.0001881
0.006197
-0.004771
-0.001426
-0.08633
-0.02033
1.309e-05
1.746e-06
-1.484e-05
0.0166
-0.02053
0.003925
4.123e-06
-5.779e-05
-0.0005774
0.0008143
-0.0002368
0.0002266
-0.0004716
0.000245
0.2461
-0.256
0.009876
0.00573
-0.00497
-0.0007598
1.195e-05
-4.887e-05
3.693e-05
0.0002118
0.0005348
-0.0007467
-0.0006796
0.000749
-6.942e-05
-0.000131
0.0002666
-0.0001355
0.003729
0.002001
-0.0003083
0.0002607
-0.02307
0.021
0.009247
-0.07392
6.111e-05
-0.0001003
3.92e-05
-0.5082
0.03721
-0.0007115
-3.78e-05
0.0007493
-8.767e-05
4.841e-05
-2.114e-05
0.01662
-0.004491
0.003549
0.0009427
-0.0001763
0.0005929
-0.0004166
-0.002447
0.002418
2.842e-05
0.1109
0.4878
-0.5987
0.0004414
-0.0008683
-0.0002549
-0.0001938
0.0004487
-0.0005834
-1.076e-05
0.0005942
0.001123
0.007878
-7.355e-05
-0.0003196
0.0003932
-0.001083
0.0006756
0.0001349
0.000266
-0.0006938
0.0005902
0.0001036
-0.0004152
6.571e-05
1.371e-05
0.0009243
-0.000938
-0.0008307
0.0001521
0.0006786
-0.0003824
4.117e-05
-4.453e-05
4.12e-05
3.33e-06
-0.0003259
0.0003514
-2.549e-05
-0.6748
0.8718
0.0007756
-0.000202
0.008486
-0.01093
0.00244
-0.003489
0.004169
-0.01208
0.000758
0.01132
-8.376e-05
2.737e-05
-0.01097
-0.007052
0.01802
-1.275
1.437
-0.1617
0.0004387
-0.0004425
3.831e-06
-8.528e-05
-4.757e-05
0.0001329
0.006129
0.01185
-0.01798
0.001089
-0.001004
-8.476e-05
0.5729
-0.1917
0.001036
-0.002096
0.00106
-5.418e-05
0.0002362
-0.000182
-0.06
0.04573
-0.02537
-0.1805
0.7006
-0.6548
-0.04576
0.0006817
-0.000712
0.06682
-0.02986
-0.0003497
-0.0001018
0.0004514
0.05148
-0.05492
0.00344
3.488e-05
0.0002279
-0.01054
-0.1337
0.1442
0.0004345
-0.0003208
-0.0001137
0.05463
-0.2275
-0.0001875
-0.0001867
0.0005541
-0.0006028
4.875e-05
-0.0007241
0.0004199
0.0003043
-0.001359
0.003022
-0.001663
-6.899e-05
0.0001338
-6.481e-05
-0.01926
0.007495
0.01176
0.0004287
-0.0002282
-0.0002005
0.0003068
9.864e-05
-0.0004055
0.0001132
-1.399e-05
-9.922e-05
0.0004741
-0.0001073
-0.0003669
-9.177e-06
0.004778
-0.004769
-0.002774
0.002387
-0.0001006
-8.967e-05
0.0001902
7.886e-05
0.0003207
-0.0003996
0.002006
-0.001728
-0.0002782
7.817e-05
-0.0001787
0.3525
-0.9416
0.5891
0.1196
-0.0008418
-0.1188
-0.0006134
0.0002547
0.0003587
0.0002056
-0.0002209
1.536e-05
-1.538
0.1226
1.415
0.0008323
-0.000506
-0.0003263
-0.002255
0.01229
-0.01003
0.004956
0.008832
0.0001493
3.771e-05
0.03093
-0.01694
-0.01399
1.412
-0.2684
-1.144
-4.089e-06
-0.0001799
0.000184
-0.01259
0.01033
0.0001241
-0.0001091
-1.501e-05
9.242e-05
-2.025e-05
-7.217e-05
0.0001565
-0.0001107
-4.578e-05
0.0003391
-1.821e-05
-0.0003209
-0.0001821
2.283e-05
0.0001593
-0.0003566
-0.0002651
-0.0006706
5.962e-05
0.000611
0.0004203
0.0006684
-1.834e-05
-1.44e-05
3.274e-05
-0.1255
0.2557
-0.1302
-0.0001859
0.0003022
-0.1018
0.08385
0.01798
0.0007403
-0.0005844
-0.0001559
0.0006393
-0.001316
0.0002273
-0.0001695
-5.787e-05
0.0003747
-0.001509
0.001134
-1.268e-08
-3.786e-08
-0.0005746
0.0002853
0.0002894
-0.0002792
0.00077
-0.0004908
0.03029
-0.01828
-0.01201
0.001843
-0.002321
0.0004779
-0.2868
0.231
0.05582
0.0001137
4.282e-05
0.1167
0.002938
0.0001811
2.638e-05
-0.0002074
0.0007187
-0.0005126
-1.111e-07
1.111e-07
1.47e-07
-1.687e-07
2.164e-08
4.452e-08
-4.176e-08
-2.754e-09
1.196
-0.8183
-0.3778
-0.0001607
-0.0001659
3.93e-05
-2.963e-05
-9.674e-06
-0.1451
-0.112
-0.0006894
4.579e-05
0.0006437
-0.0003028
0.0009135
-0.0006108
-0.0003612
0.0003938
-3.266e-05
0.003355
-0.0003116
-0.003044
-3.158e-06
0.0005572
-0.0006192
-0.0001049
0.000519
0.0003134
5.088e-05
-4.736e-05
-3.522e-06
-0.4362
0.7887
-0.0003034
0.0001768
0.0001266
3.94e-07
-3.767e-07
-1.724e-08
0.0005379
-0.0006149
7.696e-05
0.0003685
-8.414e-05
-0.0002844
2.141e-05
-1.722e-05
0.06313
-0.1793
0.003357
-0.0008453
-0.05145
0.07824
-0.0002846
0.0003634
0.04316
0.2455
-0.2887
-0.0002901
6.969e-05
0.0002204
-4.043e-05
-6.895e-05
0.0001094
8.926e-05
-8.418e-05
-5.082e-06
1.524
-0.9008
-0.6232
-0.0004798
-0.0001336
0.009286
0.00396
-0.01325
3.81e-06
-5.468e-06
1.658e-06
-0.0006207
-1.344e-05
0.0006342
3.669e-05
-5.057e-06
-3.163e-05
0.0005858
-0.00025
-0.0003357
-0.1074
0.1022
0.005128
3.421e-05
-0.0001648
0.0001306
0.0008516
0.0006984
-0.00155
-0.8027
-0.7353
0.002353
-0.002203
-8.205e-05
0.002285
-0.0003974
0.0002013
0.0003091
0.000601
2.173e-06
0.0002034
0.0001774
-2.831e-05
-0.0001491
-0.0007305
0.0001531
-0.001766
0.002146
-0.0003795
0.0008257
5.466e-06
-0.0008311
0.0002005
-0.0004313
0.0002309
0.0001147
0.000324
0.1128
0.05566
-0.1685
-7.955e-05
5.958e-05
1.997e-05
5.894e-05
-0.000347
0.0002881
0.0004418
-0.0004903
4.851e-05
0.001101
-0.002379
0.001277
0.0001365
-0.0002582
0.0001217
-0.7908
0.1139
0.6769
-0.7884
0.6296
0.1588
0.002626
-0.01155
-0.0002418
-1.678e-05
-0.0005172
-0.001249
0.001766
0.1376
-0.2081
0.0705
1.473
-0.6491
-0.8237
-0.001423
0.00228
-0.0008569
0.0002554
-0.0003773
0.0001219
-0.0006959
0.0002917
0.0004041
-0.0006609
-9.77e-06
0.0001058
9.623e-06
-0.0001155
-5.971e-05
5.522e-05
4.49e-06
-0.00303
0.002866
0.0001631
-0.142
0.1004
0.04164
1.4
-1.277
-0.1226
-0.0001004
4.939e-05
5.102e-05
-0.0001608
-0.0003398
0.0005006
0.0005142
-0.001638
0.001124
0.3139
0.5214
-0.8353
4.732e-06
9.119e-06
0.002542
-0.002981
0.0004386
-0.0002973
0.0002919
5.45e-06
0.4917
-0.0003148
0.0003606
-4.582e-05
-0.0277
0.1653
0.0002464
-0.0004227
-0.0001531
4.902e-05
0.000104
0.0005489
-0.0003394
-0.0002094
0.9782
0.1617
-1.14
-4.405e-05
-0.0001669
0.000211
0.0007128
0.0003001
-7.57e-05
4.256e-05
0.3912
1.021
0.0004314
-0.001543
-1.257e-05
-4.529e-06
0.3946
0.3059
-0.001716
-0.002775
-0.1649
0.005605
0.1593
-0.0003807
-0.0004484
0.000829
-4.396e-05
-1.834e-05
6.23e-05
-0.2801
0.1892
0.0002071
-0.0001889
-1.822e-05
0.000249
0.0004639
-0.000713
-5.585e-06
8.582e-06
-2.997e-06
-0.0001264
-0.0001274
0.0002537
-0.0003208
0.0001521
0.0001687
-0.0001931
-0.0004786
-0.0002237
-0.0004628
-7.563e-06
0.0002052
-0.0001976
0.0006914
-0.0007387
0.0006297
-0.0008942
0.0006087
-0.0009438
0.0003352
0.0001049
-0.0001194
1.449e-05
0.0002432
-0.0001525
-9.067e-05
0.0003071
-0.0002281
-7.901e-05
-0.5995
0.9133
0.0007472
-0.0005167
-0.0002305
0.1076
-0.1938
0.08625
-0.0005183
8.645e-05
-0.1253
0.03496
0.09038
0.0001092
-0.0003452
-0.3424
-0.9328
-0.1526
0.07724
-0.002544
-0.004961
0.007505
-0.0004031
-0.0004275
-0.0003156
-0.0002458
0.0005614
-1.04
0.1282
0.912
1.107
-0.8991
-0.2076
0.0001163
-4.104e-05
-1.705e-05
-1.18e-05
2.885e-05
-0.0001019
0.000203
-0.0004797
0.0001797
0.0003
0.0008431
-0.0002874
-0.0005557
0.000268
-0.0006177
-0.0004665
0.0006895
-0.0002231
-0.0006723
0.0004174
-0.0001913
0.0001083
-8.877e-05
0.0002438
-0.0001551
-3.689e-05
-1.019e-05
4.708e-05
-1.16
0.1199
3.923e-05
8.858e-05
-0.0001278
3.848e-05
-0.0001739
0.0001354
-7.615e-05
-0.004855
0.004931
0.007831
-0.004825
-0.003006
0.1778
-0.2385
0.06069
1.03
0.4431
9.369e-05
3.718e-05
-9.548e-06
-0.0001575
-3.546e-05
1.711e-05
1.246e-05
-8.269e-06
-4.189e-06
-0.0768
-0.04855
-0.9854
-0.4035
1.389
-0.0001988
-0.0001498
0.0003486
-0.0001563
1.561e-06
0.0001547
-0.05068
-0.007568
2.801e-05
2.927e-05
-5.728e-05
0.01416
-0.00209
-0.01207
-0.03385
0.08636
-0.05252
-0.0003477
0.000128
0.0002196
0.002212
-0.002746
0.0005347
-0.0001523
0.0001907
0.00426
-0.008932
0.004672
-1.189e-08
1.189e-08
-3.779e-05
7.94e-06
5.712e-05
0.000417
0.0003058
0.0001229
-0.0002478
-0.0002385
0.0001934
7.417e-05
-0.0002676
-0.0003033
-1.145e-05
-0.0001277
0.0002271
-9.936e-05
0.05536
0.007319
-0.06268
0.0002489
-9.563e-05
-0.0001533
1.9e-05
-7.779e-06
-1.122e-05
-0.0001557
-0.0005557
0.7439
-1.068
0.3243
0.001286
-0.0002187
-0.004523
0.004019
0.0005035
0.001014
-0.002856
0.001842
1.075
0.4492
-0.02539
0.7693
2.191e-07
-8.537e-07
6.347e-07
0.02293
0.007359
0.0003621
-0.0006385
0.0002763
0.0001281
-0.0001391
1.107e-05
-0.0003212
0.0005551
-0.0002339
0.0005545
6.602e-05
0.004734
0.002602
-0.007335
0.0002394
-0.0001307
0.003124
-0.00639
0.003267
0.00095
-0.000809
-0.0001409
-0.1497
-0.1996
0.3493
1.05
-0.04466
-1.006
-0.002021
-0.0006441
0.002666
-0.0006169
0.009103
4.159e-05
-0.0001642
-0.001884
0.002898
0.0003248
-0.0003611
3.631e-05
0.000952
-0.0003084
-0.0006436
0.0002854
0.0001747
-0.0004601
-0.02186
0.02391
0.003228
-0.007502
-1.124
-0.3858
1.51
-0.0001204
0.0002266
-0.0001061
0.02242
0.008514
-0.001051
0.0007885
0.0002628
8.279e-08
-0.002397
0.0006799
0.001717
0.0001408
1.346e-06
0.0002181
-0.0005883
1.257
-0.2785
-0.00183
0.002076
-0.0002467
-0.0003441
-0.0005379
0.000882
-2.331e-05
2.413e-05
-8.143e-07
-0.0008518
-0.0001131
0.0009649
0.0004022
6.329e-05
-0.0004655
-0.0001405
-5.073e-05
-0.0001099
0.00034
-0.0003405
-0.0003534
0.0001132
-0.0004051
0.000292
0.0005707
0.0003767
-0.0009473
0.0005788
-0.0007397
0.001381
-0.002386
0.001006
-0.003535
0.0002082
6.041e-05
-0.0006112
0.002988
-0.005812
0.002824
-1.572e-07
1.572e-07
-0.0009069
-0.003616
-0.06603
0.02403
0.0001652
-0.001371
0.001206
0.0001602
0.0003124
-0.0004726
9.305e-07
0.001112
-0.001113
0.1015
0.3725
-0.474
-5.771e-05
2.713e-05
3.057e-05
-5.727e-05
0.0007639
-0.0006112
-8.471e-05
-1.511
0.5252
3.275e-06
9.183e-06
-0.0004015
7.559e-05
0.0003125
-0.0003576
4.503e-05
-0.3879
-0.6372
1.025
1.119e-05
-0.0001389
0.0001316
-0.0001611
2.944e-05
8.008e-05
-0.000248
0.0001679
5.408e-05
-0.0001877
0.0001336
-1.197
0.8095
-0.0006099
0.0003688
0.0002411
1.006e-05
-5.322e-06
-4.739e-06
0.0001583
-0.0002454
8.714e-05
-0.0005874
0.000589
-1.589e-06
-0.1579
0.06331
0.09461
0.0001329
6.29e-05
0.000147
-0.0001922
4.519e-05
-0.1623
0.1685
-0.006146
0.002677
0.0005286
-0.003205
-0.003762
0.003653
0.0001095
0.0002239
-3.047e-05
-0.0003917
-0.000183
-0.002602
0.003675
-0.002728
0.0003309
-9.563e-06
-0.0002112
0.0002207
-0.0001109
0.0002602
0.2815
0.5863
-0.8678
-0.0004441
-0.0001658
-0.0005071
0.0008148
-0.0003077
0.000106
-0.0001073
1.334e-06
-0.0001181
-0.0004653
-0.01409
0.01269
0.001397
-0.0008026
0.0001132
3.9e-05
0.0001384
1.027
-0.7453
4.645e-05
-0.0004076
-0.0001467
-0.000201
9.094e-05
-7.852e-06
-8.309e-05
1.696e-07
-6.13e-07
6.215e-06
8.473e-05
3.802e-05
5.123e-05
0.0003916
7.144e-05
-0.0004631
0.0002847
-0.0001841
-0.0001006
-0.004404
0.00116
0.003244
0.1727
1.023
8.929e-09
-8.927e-09
0.0001515
0.0002109
-0.0003625
0.0001242
-0.0002506
7.591e-05
-6.893e-05
-6.98e-06
-0.0001413
0.0003385
-0.0001972
3.223e-05
-0.0001929
0.0001606
-0.0003765
6.251e-05
0.000314
-0.0005055
0.0004354
0.5588
0.8408
0.0001367
0.0005217
-0.0006584
-0.004315
0.001231
0.003084
-1.503
0.3787
-0.0002165
0.0003787
-0.0001622
0.0001862
0.0005541
0.002029
-0.0007722
0.000863
0.0002999
-0.001163
0.1375
-1.018
0.8802
0.0001194
-0.0005859
0.000106
-2.279e-05
-8.323e-05
-0.2752
-0.7149
0.8523
0.005955
0.001876
-0.0009368
0.001156
-0.0002195
0.0004298
0.0004133
-0.0002044
-8.623e-06
0.000213
-0.000619
0.0005278
9.125e-05
5.8e-06
-4.914e-07
-5.309e-06
-0.003986
0.0009956
0.00299
-0.003948
0.005197
-0.001249
-0.799
-0.2692
-0.0005271
0.0001409
0.0003862
-0.0004133
0.0001952
0.0002181
0.0003933
-0.000325
-6.838e-05
9.699e-05
-0.0001877
0.001814
-0.001735
1.084
0.08556
-1.17
0.2755
-0.2124
0.07586
-0.132
0.05617
-1.045e-05
2.571e-06
7.875e-06
0.04514
-0.8441
0.0342
-0.01972
-0.01447
-0.0001087
0.0002279
-0.0001192
-0.0008738
-0.001058
0.001932
0.000133
5.849e-05
-0.0001915
-0.2163
0.8476
-0.6314
-0.0002078
0.0001443
6.35e-05
-0.0003972
0.002249
-0.001852
-0.2392
-0.01688
0.2561
0.0002488
0.0002444
0.6911
0.4732
-1.164
-0.0003728
-0.0002354
0.0006082
1.62e-05
1.019e-06
-1.722e-05
0.0002329
-0.0001199
-0.000113
-0.0001445
-6.146e-05
0.000206
2.309e-05
1.475e-05
-3.784e-05
0.1845
-0.04868
-0.1358
0.0001367
0.0001099
-0.0002466
-0.008862
0.008831
3.071e-05
-0.0002265
-6.353e-05
-4.872e-06
9.721e-06
-4.849e-06
-0.0002126
-0.0002007
0.0004133
0.0003117
9.961e-05
-0.0004114
-0.007122
-0.006965
0.005191
-0.005777
0.0005853
0.001798
-0.000377
-0.001421
6.982e-05
-6.982e-05
-0.3405
0.1969
0.1436
-0.0007889
0.001744
-0.0009553
0.0007676
-0.0004898
-0.0002778
-1.732e-05
3.77e-05
-2.039e-05
1.096e-05
8.045e-06
0.0001244
-0.0001125
-1.19e-05
-0.1175
1.202
0.04667
-0.0273
-0.01937
-7.029e-05
-3.013e-05
-0.0002121
1.131e-05
0.0002008
-6.03e-06
8.547e-06
-2.517e-06
-6.763e-05
0.0002
-0.0001324
2.297e-06
-2.297e-06
2.081e-05
-1.873e-05
-2.084e-06
7.084e-06
-7.085e-06
-0.0005529
0.0001895
0.0003634
5.288e-05
3.246e-05
-8.535e-05
0.000531
-0.0003943
4.343e-05
-3.07e-05
-1.274e-05
0.09834
-0.07345
-0.02488
0.001822
-0.001381
-0.0004413
1.092
-1.517
0.4243
1.317
-1.74
0.4225
-0.0001072
-0.0003224
0.0004296
-0.04321
0.09295
-0.04974
0.0002071
-1.744e-05
-0.0001897
-0.004317
0.002041
0.002276
-0.001185
0.0001055
-0.007545
0.008541
-0.0009963
0.04576
-0.1015
0.05573
-0.0006443
5.948e-06
0.0006383
0.0006376
0.0009646
-0.001602
0.2526
-0.00644
-0.0006525
0.0007763
-0.0001238
0.0002635
-0.0004528
0.0001893
0.09379
-0.04803
0.0002069
-0.0001047
-0.0001022
1.996e-05
-1.996e-05
-0.0001463
3.515e-05
0.0001111
0.0008798
-0.002787
0.001907
5.251e-05
-4.428e-05
-8.232e-06
-0.0002062
0.0003768
-0.0001707
-0.0002035
0.0001934
1.007e-05
-0.3376
0.1228
0.2147
0.0002421
-1.477e-05
-0.0005072
-0.000544
-0.05041
0.351
0.0002218
-0.0001646
0.0005143
-4.779e-05
-0.0004665
0.0004785
-0.0009746
0.0004961
-0.4769
-0.549
1.026
0.2187
5.979e-05
-0.2188
0.002247
-0.001466
-0.0007812
1.587e-06
7.314e-07
-2.318e-06
0.0001063
-0.002071
0.001965
-1.979e-05
1.979e-05
0.0008317
-0.0004331
-0.0003986
0.0007004
-0.000192
-0.0005085
-0.001913
0.001756
0.0001572
6.416e-06
4.027e-06
-1.044e-05
0.00013
3.641e-05
-0.0001664
-0.4114
1.372
-0.9602
-0.0001438
0.0001993
-5.552e-05
0.005416
-0.0001072
-0.005309
-0.3004
1.333
-1.033
-0.0005945
-0.000769
0.001364
-1.647e-09
1.341e-08
-1.175e-08
0.0008103
0.0007459
-0.001556
7.305e-05
-2.807e-05
-4.499e-05
0.006561
-0.003707
-0.002855
0.001186
0.003062
-0.004248
-1.603e-06
-2.849e-06
4.452e-06
2.563e-05
-2.563e-05
0.000553
0.000244
-0.000797
-0.08807
-0.05397
-0.4602
0.2231
0.2371
0.002795
-0.001059
-0.001736
-0.001315
0.0009904
0.0003248
-0.0001063
-0.0001899
0.0002962
0.0002815
-0.0001582
-0.0001233
-0.0005795
-0.0001856
0.0007651
0.0002972
-0.0001403
-0.0001569
-0.002529
0.002253
0.0002762
-0.009202
0.0176
-0.008401
0.0001183
0.0001789
-0.03318
-0.01515
0.04833
3.208e-05
1.723e-06
-3.38e-05
0.1368
-0.576
0.4392
-0.0002645
-0.000336
0.0006005
3.548e-07
7.045e-06
-7.399e-06
0.0004826
-0.0006055
0.0001229
-0.0004542
0.0003706
8.358e-05
0.0006546
-0.0003232
-0.0003314
-0.3821
0.09751
0.2846
-0.1884
0.05516
0.1333
5.836e-05
-9.822e-05
3.986e-05
0.007674
-0.008625
0.0009509
-0.0001284
0.0002457
-0.0001174
0.0004403
-0.0007512
0.0003109
8.524e-05
-0.0001618
7.654e-05
-0.0005446
0.0005236
2.1e-05
9.322e-05
-5.512e-05
-3.809e-05
0.0001439
-9.864e-05
-4.524e-05
-2.137e-05
0.0001303
-0.000109
8.665e-05
-8.665e-05
-1.073e-05
-0.0001489
0.0001597
-3.679e-05
0.000261
-0.0002242
-0.0003008
0.0002475
5.331e-05
-0.002733
0.004099
-0.001366
-0.0003855
0.0007739
-0.0003884
0.0001189
0.0006921
0.0002587
-0.0002725
1.373e-05
-1.431e-06
-3.714e-06
5.145e-06
7.562e-07
-3.766e-07
-3.795e-07
0.000801
-0.0003764
-0.0004246
-0.3199
0.4214
0.5906
0.217
-0.8077
0.0004587
-0.0006337
0.000175
-8.497e-05
-0.000273
0.000358
0.004727
-0.0008986
-0.003829
-0.1887
1.181
-0.9921
0.0002436
0.0005889
-0.0008325
0.000633
5.65e-05
-0.002448
-0.005675
0.008123
-0.0001077
-6.691e-05
0.0001746
0.0002171
-9.377e-05
-0.0001233
4.99e-05
-0.0002172
0.0001673
0.002746
-0.003172
0.0004258
0.7872
-0.6762
-0.008207
0.002703
0.005504
0.01202
0.0006204
-0.01264
0.000128
-1.532e-05
-0.0001126
4.696e-05
7.806e-05
-0.000125
0.0001623
-0.0001221
-4.015e-05
-0.004269
0.001729
0.002541
0.0001382
-0.002046
0.001908
-7.282e-05
0.0001815
-0.0001087
-0.0006238
0.0009378
-0.000314
-0.002225
-0.001509
0.003734
-0.001156
0.0004647
0.0006916
-0.0006644
-0.0001367
0.0008011
0.001751
-0.001433
-0.0003185
-0.0004153
0.0003483
6.699e-05
0.0002388
-0.0001716
-6.722e-05
0.2599
-0.3217
0.06184
5.717e-05
-3.269e-05
-2.448e-05
1.185e-06
4.817e-06
-6.002e-06
-0.0007189
0.0002118
-3.813e-07
-0.0003041
0.0003045
-1.414e-05
1.523e-05
0.02123
-0.1183
0.09712
4.604e-05
-4.604e-05
-9.106e-05
9.106e-05
-0.1664
-1.047
1.213
1.258
0.2308
-1.489
0.0002718
-0.0001693
-0.0001024
-0.0001191
0.0007449
-0.0006258
1.22e-07
-1.531e-07
3.116e-08
-3.178e-06
-9.719e-06
1.29e-05
-0.0002017
0.002024
-0.0004513
0.0005917
-0.0001404
-0.0002125
-2.241e-05
0.0002349
-0.001133
-0.004052
0.005185
0.003505
0.005098
-0.008603
-0.1887
0.06219
0.1265
-0.000234
0.0001532
8.071e-05
3.157e-05
0.000571
-0.0006026
0.0001545
-0.0003262
0.0001717
-0.004534
0.00102
0.003514
3.074e-06
-5.308e-06
2.234e-06
-0.0003509
0.0004733
-0.0001224
0.8163
-1.147
0.3311
-0.0001086
0.0001086
-0.0002158
0.0001368
7.898e-05
0.1661
0.5625
-0.7286
-0.0002044
2.231e-05
-1.286
1.12
0.2418
-0.4257
0.1839
-0.00309
0.002139
0.0009512
-0.01109
-0.002021
0.01311
-9.344e-06
5.806e-06
3.536e-06
0.7801
-0.9454
0.1653
0.0005381
-0.0002826
-0.0002554
0.4764
-0.1364
-0.3401
0.0005192
-0.0009154
0.0003961
-0.01658
0.005552
0.01102
0.0009357
-0.0008167
-0.0001189
0.006047
-0.003178
-0.002869
-0.0001287
-0.0005333
0.000662
-0.0005666
-0.0002308
0.0007974
-0.0001789
-5.848e-05
0.0002374
0.001822
0.0003791
-0.002201
0.1502
0.6493
-0.7994
0.01029
0.0606
-0.07089
0.0006521
-0.0003693
-0.0002828
-0.0001609
-0.0008234
0.0009844
-7.331e-05
0.0002382
-0.0001649
-0.000281
0.000163
0.0001179
5.1e-05
-3.054e-05
-2.046e-05
0.0001581
4.174e-05
-0.0001998
3.712e-05
-3.712e-05
0.0001542
-0.0002816
0.001093
-0.0007916
-0.0003009
3.235e-05
-8.102e-05
4.867e-05
-0.0007128
0.0004585
0.0002543
0.0001131
5.35e-05
-0.0001666
0.005608
-0.006364
0.0007568
-0.0007552
0.0003096
0.0004456
0.4957
-0.3666
-0.1291
0.0002718
-0.0002953
2.357e-05
1.793e-05
-4.264e-05
2.471e-05
-0.0003161
2.335e-06
0.0003138
0.4963
-1.095
0.5986
-0.0004304
0.0001564
0.000274
-0.0009538
0.0005087
0.0004451
-0.002309
0.0005966
0.001713
0.001456
-0.0006526
-0.0008031
6.15e-05
-0.0002252
0.0001637
0.001425
0.006573
-0.007998
-0.0001647
0.0001892
-2.448e-05
0.000157
0.0004997
-0.0006567
-0.001153
-0.001157
4.134e-05
7.929e-05
-0.0001206
-0.0004557
-7.035e-05
0.0005261
-8.843e-06
3.972e-06
-1.181
0.5417
0.6388
0.002299
-0.004534
0.002235
0.0002379
-8.91e-05
-0.0001488
0.1284
0.05682
-0.1853
0.0002909
-8.463e-05
-0.0002063
-7.018e-05
-1.712e-05
8.73e-05
-1.246
1.246
0.001501
0.002254
-0.003754
3.05e-05
-4.539e-05
1.489e-05
0.06771
-0.05197
-0.01574
0.006538
-0.0009304
0.0003106
-0.0002007
-0.0001099
4.362e-05
-2.008e-05
-2.354e-05
0.01206
-0.009356
-0.002705
-1.27
0.524
0.7462
-0.00023
0.0003732
-0.0001432
0.0001248
-0.0003041
0.0001794
0.404
-0.2565
-0.1475
-0.008463
0.00606
0.002403
0.001619
-0.03189
0.03027
0.0005133
0.0002086
-0.0007219
0.0002317
8.408e-05
-0.0003158
-0.001504
-0.0007354
0.002239
-0.05364
-0.05534
0.109
7.486e-07
8.943e-06
-9.692e-06
4.737e-08
1.645e-06
-1.692e-06
0.0001865
0.0005608
0.0003392
-0.001169
0.0008302
0.0005981
-0.000961
0.0003629
2.939e-05
1.405e-05
-0.3931
1.242
-0.8486
0.0002343
-0.001148
0.000914
0.3505
-0.007334
-0.3432
-0.0003286
0.0004702
-0.0001417
-0.0009214
0.0008866
3.485e-05
-0.0001594
-0.0001881
0.0003474
0.0004039
0.001052
2.096e-06
8.402e-07
-2.936e-06
-4.63e-05
5.026e-05
-3.965e-06
-0.5586
0.2189
0.3397
-3.186e-06
3.186e-06
0.0001659
-0.0001238
-4.208e-05
-4.67e-05
0.0001884
-0.0001417
-0.001784
-0.0002099
0.001994
-9.809e-05
0.0001566
0.0004984
0.0003662
-0.0008647
-0.0007765
0.0003498
0.0004267
-0.0002011
0.0001663
3.48e-05
0.002051
-0.001424
-0.0006277
-0.009135
0.02455
-0.01542
5.627e-06
-5.627e-06
0.0002411
-0.0003029
6.179e-05
-0.0007545
0.0003309
0.0004236
0.0002814
0.0001346
-0.0004161
0.001367
-0.001137