/*--------------------------------*- C++ -*----------------------------------*\
  =========                 |
  \\      /  F ield         | OpenFOAM: The Open Source CFD Toolbox
   \\    /   O peration     | Website:  https://openfoam.org
    \\  /    A nd           | Version:  8
     \\/     M anipulation  |
\*---------------------------------------------------------------------------*/
FoamFile
{
    version     2.0;
    format      ascii;
    class       volVectorField;
    location    "20";
    object      U;
}
// * * * * * * * * * * * * * * * * * * * * * * * * * * * * * * * * * * * * * //

dimensions      [0 1 -1 0 0 0 0];

internalField   nonuniform List<vector> 
127143
(
(0.002014 -8.839e-05 0)
(-0.0001011 -0.0004748 -5.703e-24)
(-7.56e-05 -0.000371 1.041e-23)
(-9.79e-05 -0.000446 -2.202e-27)
(0.0007799 0.000235 -1.488e-22)
(-8.288e-05 -0.0004565 6.614e-27)
(0.02187 0.01357 0)
(0.005759 0.002776 -2.209e-22)
(0.004555 0.002197 7.291e-22)
(-0.002495 -9.855e-05 0)
(0.03392 0.0467 1.113e-21)
(0.01441 0.009606 8.801e-22)
(8.253e-05 -3.124e-05 -2.128e-24)
(-0.0001263 -0.0004968 0)
(0.03961 0.01578 1.91e-20)
(0.04545 -0.004188 0)
(-0.0002494 -0.001146 -1.691e-23)
(0.06167 -0.08956 1.834e-20)
(-0.1918 0.01132 0)
(0.05584 0.009253 0)
(-0.2444 0.0655 8.472e-21)
(-0.004381 0.001442 0)
(0.9748 -0.1364 0)
(0.6209 -0.05961 0)
(-0.004342 0.001562 -2.006e-22)
(0.2302 -0.03552 0)
(-0.01956 0.0003556 1.793e-20)
(-0.01962 -0.0006786 -2.697e-22)
(0.2268 -0.1011 0)
(0.4501 -0.09298 9.108e-21)
(0.509 -0.02956 0)
(0.2237 -0.03294 -1.731e-21)
(-0.01503 -0.003301 2.875e-21)
(-0.08416 0.02214 -1.793e-20)
(0.8673 -0.06599 2.498e-20)
(-0.01576 -0.002662 -2.377e-24)
(-0.2473 0.08322 5.929e-21)
(0.1086 0.03175 -6.515e-21)
(0.7346 -0.066 -1.488e-21)
(0.2308 -0.01032 3.695e-25)
(-0.1925 0.009089 0)
(1.047 0.485 -5.959e-21)
(1.031 0.4731 4.433e-21)
(0.0001778 -6.396e-05 0)
(0.0482 -0.08094 -1.376e-20)
(-0.08767 0.02063 5.803e-21)
(0.2296 -0.1064 0)
(-0.2399 0.0777 -8.168e-22)
(0.7172 -0.1255 2.236e-22)
(0.7023 -0.05588 -1.055e-21)
(0.05392 -0.003875 -1.846e-22)
(0.9706 -0.02864 4.845e-20)
(-0.1636 0.04674 0)
(1.214 0.2048 -1.106e-20)
(1.001 -0.001258 2.881e-20)
(0.5503 -0.1362 3.66e-22)
(1.001 -0.001252 -2.592e-20)
(1.089 -0.07598 0)
(1.012 -0.0103 -1.717e-20)
(1.212 0.206 -2.143e-20)
(0.5047 -0.03956 -7.652e-20)
(-0.2009 0.06324 -1.363e-21)
(1.057 -0.07261 4.345e-21)
(1.001 0.0005303 6.756e-20)
(-0.08755 0.007527 0)
(0.8551 -0.2211 -8.652e-21)
(1.097 0.173 3.647e-20)
(1.021 -0.07554 0)
(1.028 -0.07515 1.145e-21)
(0.991 -6.457e-05 0)
(0.5618 -0.04175 0)
(-0.02116 0.0003972 -8.457e-21)
(-0.2277 -0.05224 -7.149e-21)
(1.012 -0.01015 -9.493e-21)
(1.004 0.003161 -3.749e-22)
(-0.02132 -0.0005002 8.455e-21)
(1.013 0.04164 -2.893e-20)
(-0.2614 0.08484 0)
(0.5693 -0.1469 -6.442e-22)
(1 0.000788 0)
(0.2223 -0.1004 1.632e-23)
(0.06257 0.0078 4.24e-23)
(-0.1519 0.03618 8.009e-21)
(0.2823 -0.01958 0)
(-0.1845 -0.004088 1.394e-21)
(-0.2575 0.08382 0)
(0.8296 -0.08252 -2.677e-21)
(-0.0261 -0.002407 4.609e-21)
(0.8547 -0.2186 0)
(1.172 0.7361 0)
(0.996 -0.006697 0)
(1.181 0.03476 0)
(1.166 0.7302 0)
(-0.2437 0.06515 -8.709e-21)
(-0.2483 0.05263 0)
(1.014 0.05725 9.317e-21)
(1.048 0.4783 1.306e-20)
(0.3688 -0.02753 0)
(-0.26 0.07967 2.865e-21)
(1.093 0.1732 0)
(1 0.0007645 0)
(0.7449 -0.1333 0)
(0.9067 0.8526 -1.223e-21)
(1.055 -0.1163 0)
(-0.2564 0.08334 -1.502e-21)
(-0.2612 0.08013 4.099e-21)
(0.9724 -0.1506 -1.737e-21)
(0.9904 -8.696e-06 0)
(0.6796 -0.2495 0)
(1.002 -0.0009084 4.077e-20)
(0.04913 0.01224 -5.537e-21)
(-0.02589 -0.001825 8.848e-21)
(-0.2511 0.06049 -8.905e-21)
(0.2648 0.5418 0)
(0.9962 0.01158 1.386e-20)
(1.007 -0.1579 -2.651e-22)
(0.9904 0.04612 -6.62e-21)
(1.004 0.003306 -4.033e-20)
(1.013 0.04052 2.283e-20)
(-0.001124 -0.004738 0)
(1.002 -0.0009661 -5.701e-20)
(-0.1628 0.04342 -2.331e-21)
(0.7816 -0.2781 0)
(1.069 -0.08355 1.296e-20)
(0.235 -0.1046 7.51e-22)
(0.1603 -0.02131 -6.328e-21)
(-0.228 0.06918 0)
(1.041 0.004838 1.212e-19)
(-0.1582 0.01899 -2.281e-21)
(0.5488 -0.1589 -8.4e-22)
(-0.2768 0.08391 0)
(-0.2572 0.0613 -6.458e-21)
(1.087 -0.09282 -9.439e-21)
(-0.261 0.08472 0)
(-0.0003717 -0.002028 -9.283e-23)
(-0.2768 0.08377 -2.839e-21)
(1.094 -0.05994 0)
(-0.2207 0.06018 2.119e-21)
(0.2651 -0.1501 -6.158e-21)
(1.128 -0.01049 1.093e-20)
(0.9432 -0.1639 9.84e-21)
(0.987 0.03274 4.583e-20)
(-0.1418 0.03488 3.204e-22)
(-0.1472 0.04562 -5.892e-21)
(-0.1604 0.0466 -1.041e-21)
(1.18 0.5252 3.889e-21)
(-0.0561 0.3103 1.859e-21)
(1.001 0.0004608 -6.112e-20)
(-0.2553 0.06099 5.619e-21)
(0.7981 0.6942 -6.759e-22)
(1.065 -0.1096 -3.294e-21)
(0.7773 -0.1545 0)
(0.2562 0.04261 2.543e-20)
(0.8306 -0.1259 0)
(0.2837 -0.1684 0)
(-0.1867 -0.003814 0)
(1.089 -0.07505 -4.878e-21)
(0.52 -0.1805 0)
(-0.2394 0.07737 -1.533e-21)
(0.3248 -0.02908 1.686e-21)
(0.6125 -0.03798 0)
(0.06045 -0.0307 8.043e-21)
(0.996 -0.006559 4.581e-22)
(-0.2767 0.08399 -7.221e-21)
(0.3396 -0.09064 0)
(-0.09851 0.009151 1.352e-20)
(-0.2525 0.0847 -3.92e-21)
(0.669 -0.2108 2.004e-20)
(0.004834 0.01296 -9.353e-21)
(0.9401 0.05594 -6.699e-21)
(-0.0596 0.01903 0)
(-0.1483 0.04645 2.751e-21)
(0.9976 -0.1674 -6.032e-22)
(0.878 -0.2451 -2.818e-21)
(0.9786 -0.001077 3.39e-20)
(-0.1123 0.009985 3.883e-23)
(1.156 0.5596 -7.524e-22)
(-0.1588 0.01957 -2.219e-21)
(0.6876 -0.06921 0)
(1.009 -0.02124 6.137e-21)
(0.8771 -0.2455 -9.498e-22)
(0.9993 0.001034 0)
(-0.09281 -0.007745 5.614e-22)
(-0.112 0.008917 -3.923e-23)
(0.5609 -0.1653 1.803e-21)
(-0.1983 0.06233 2.457e-21)
(1.01 0.3243 -5.009e-21)
(0.281 0.5586 -5.421e-21)
(0.6493 -0.06321 -3.225e-21)
(1.029 -0.032 4.713e-20)
(-0.2078 0.04276 7.067e-22)
(-0.2124 0.03919 -6.587e-21)
(1.091 -0.05882 7.728e-20)
(0.3962 0.9078 -1.621e-22)
(-0.0002278 -0.002133 1.549e-22)
(-0.2225 0.06688 0)
(1.004 -3.356e-06 0)
(0.9977 -5.065e-06 4.47e-22)
(0.02269 0.008352 0)
(0.9909 0.01664 4.546e-21)
(1.013 0.008092 3.681e-20)
(0.9282 0.01218 1.125e-19)
(0.9945 -0.04641 1.111e-20)
(-0.2471 0.08291 -2.788e-21)
(-0.0001724 -0.0009349 2.267e-24)
(0.9536 -0.0579 4.96e-21)
(1.003 -0.08917 -9.831e-22)
(0.996 -0.1707 2.236e-22)
(0.5626 -0.1161 -1.121e-20)
(0.9962 0.01122 -7.095e-21)
(1.212 -0.05659 2.239e-20)
(-0.1657 0.002452 8.554e-22)
(0.9926 -0.003635 1.238e-20)
(0.01315 0.01605 -1.047e-20)
(-0.2697 0.08147 5.216e-25)
(0.03455 0.001545 0)
(-0.05045 0.01736 -1.546e-21)
(0.9795 -0.1847 -3.987e-22)
(-0.2667 0.07022 -7.67e-21)
(1.005 -0.08802 -3.621e-22)
(1.149 0.5541 -1.56e-21)
(1.001 0.005626 1.154e-21)
(0.7657 -0.1494 7.883e-23)
(-0.1353 0.04834 1.08e-21)
(0.3021 -0.0279 0)
(-0.07539 0.02586 0)
(0.4188 -0.1081 -8.638e-22)
(0.1398 0.03519 7.382e-21)
(-0.151 0.05241 3.689e-21)
(-0.2448 0.07511 4.183e-21)
(-0.2463 0.06481 5.369e-21)
(1 0.00042 -7.712e-23)
(-0.2324 -0.0518 1.422e-20)
(-0.000458 -0.009611 0)
(-0.2457 0.06486 0)
(1.059 -0.06961 1.269e-20)
(-0.2768 0.08391 3.492e-21)
(0.005235 -0.0008061 9.673e-23)
(1.013 0.007859 -3.43e-20)
(-0.1953 0.03953 3.354e-21)
(-0.2134 0.03987 5.651e-21)
(-0.1153 0.008867 -1.92e-20)
(-0.1921 0.0501 -4.189e-22)
(0.5389 -0.1886 1.272e-24)
(0.08553 0.05038 0)
(-0.0009122 -0.004895 2.571e-26)
(0.8843 -0.1764 -3.299e-22)
(-0.02016 0.0003776 0)
(-0.01071 0.002958 2.372e-21)
(0.9997 -8.699e-05 -1.339e-21)
(1.158 0.45 -1.633e-20)
(0.229 -0.02529 5.105e-21)
(0.9399 -0.2134 0)
(-0.2072 0.05389 0)
(0.6985 -0.1684 6.473e-22)
(0.6969 -0.2535 0)
(1.04 0.004223 -9.492e-20)
(0.2887 0.1254 0)
(0.9185 -0.2228 0)
(0.8594 0.235 1.288e-20)
(-0.2147 0.06484 -4.087e-21)
(1.004 -0.0123 2.952e-21)
(1.23 0.04372 6.067e-23)
(0.9863 0.03172 -3.722e-20)
(-0.05736 0.03217 0)
(-0.1073 0.008726 -6.491e-21)
(-0.2233 0.07182 1.054e-20)
(0.2545 -0.1664 0)
(0.5468 -0.1573 4.915e-20)
(1.097 0.2126 -6.97e-21)
(0.3746 -0.0685 0)
(0.9753 -0.001728 -4.078e-20)
(-0.2324 0.07315 -1.229e-21)
(-0.197 0.0395 -3.557e-21)
(1.114 -0.07032 7.517e-21)
(-0.205 0.04255 -3.359e-21)
(-0.2506 0.06054 0)
(0.8025 -0.1272 2.256e-21)
(0.96 -0.003104 -1.277e-21)
(0.8674 -0.2439 2.84e-21)
(1.003 -0.0005443 6.257e-22)
(1.01 0.0607 2.172e-21)
(1.055 -0.1159 -9.414e-24)
(0.9944 0.004073 0)
(1.004 0.01176 5.903e-21)
(-0.0009286 -0.002245 -2.242e-23)
(-0.2771 0.07945 0)
(0.9965 0.01258 7.369e-21)
(0.7627 -0.1085 1.972e-21)
(1.008 -0.02124 8.072e-21)
(0.2942 0.03839 -3.231e-20)
(0.9628 -0.1717 0)
(1.058 -0.07053 -1.247e-20)
(0.9808 -0.1816 0)
(0.9944 -0.006078 -8.548e-21)
(0.6649 -0.2615 -5.411e-22)
(0.4771 -0.03608 2.927e-21)
(-0.01962 -0.01838 -7.104e-22)
(-0.1926 0.05055 1.618e-21)
(1.15 0.2199 4.645e-21)
(0.3677 -0.0433 -1.413e-21)
(0.9038 -0.2063 -1.151e-21)
(0.7762 -0.2106 -1.25e-20)
(1.007 -0.1575 2.574e-21)
(0.2885 -0.02066 0)
(0.4681 -0.2507 5.223e-23)
(0.9964 -0.1704 7.61e-23)
(0.9923 -0.003736 0)
(-0.07377 0.037 -8.52e-24)
(1.067 -0.1093 -3.908e-21)
(0.9518 -0.1459 -2.225e-21)
(-0.005538 -0.02621 -2.579e-22)
(0.5216 -0.1247 0)
(1.002 -0.0006701 1.059e-21)
(0.9913 0.005095 -2.263e-20)
(1.192 0.5838 6.949e-22)
(0.005627 0.03604 2.889e-21)
(0.3495 -0.0394 3.77e-21)
(1.247 0.07278 3.123e-20)
(0.9283 -0.01657 -1.478e-21)
(0.9737 -0.1353 0)
(0.5429 -0.03689 -5.028e-21)
(1.074 0.01362 2.748e-20)
(0.9404 -0.2132 3.295e-22)
(1.187 0.5789 0)
(-0.02182 0.03044 -5.266e-21)
(0.9072 -0.03217 5.228e-20)
(0.02062 -0.009855 -5.73e-24)
(0.5916 -0.02028 2.345e-21)
(1.128 0.5974 6.12e-21)
(-0.2246 0.07089 0)
(1.004 0.01159 -5.89e-21)
(0.8726 -0.06737 -9.621e-20)
(1.004 4.022e-06 0)
(0.9976 -3.65e-06 0)
(0.8304 -0.1222 0)
(0.691 -0.2513 -3.533e-21)
(0.9972 -0.1676 -5.725e-22)
(-0.2246 0.07111 -1.628e-21)
(-0.2739 0.07709 -2.31e-20)
(1.124 -0.0127 -4.905e-20)
(0.9798 -0.1844 0)
(-0.1428 0.04435 9.467e-22)
(-0.2013 0.04239 5.414e-22)
(0.1986 0.1526 -3.419e-22)
(0.7517 -0.104 -1.278e-21)
(-0.2102 0.05099 -6.779e-21)
(-0.2456 0.05305 3.327e-21)
(0.4038 -0.04934 -2.255e-21)
(-0.1474 0.01446 0)
(0.4296 -0.04706 1.769e-21)
(-0.119 0.03937 6.545e-21)
(-0.1376 0.02905 -8.194e-22)
(-0.2037 0.04249 2.412e-21)
(0.919 0.05811 0)
(-0.2236 0.05621 -1.631e-20)
(-0.2089 0.05443 -3.081e-21)
(1.182 0.5029 -3.921e-21)
(1.005 -0.00725 6.658e-21)
(0.5733 -0.01932 0)
(-0.2256 0.06734 -2.057e-21)
(1.076 -0.07348 1.284e-21)
(0.4858 -0.0948 -3.578e-20)
(0.7267 -0.05185 0)
(0.7113 -0.05968 -2.929e-21)
(1.002 0.00268 2.671e-22)
(0.9912 0.01629 -1.367e-20)
(0.8961 -0.003186 0)
(-0.149 0.0277 5.081e-21)
(0.9604 -0.002327 0)
(0.3852 -0.01866 6.993e-20)
(1.074 0.011 -5.864e-20)
(0.2792 -0.03032 -4.293e-21)
(0.6944 -0.05007 4.122e-21)
(1.029 -0.03047 0)
(1.194 0.06412 -7.907e-22)
(0.5196 -0.04896 2.465e-21)
(0.00575 -0.01043 1.731e-26)
(-0.2531 0.07871 -7.372e-21)
(0.9683 -0.005562 4.626e-21)
(0.3015 -0.01369 -5.912e-20)
(0.1872 -0.02163 6.257e-21)
(0.4514 -0.05512 0)
(0.9016 -0.2084 -4.626e-21)
(0.9909 0.04444 0)
(0.0996 -0.007533 0)
(0.9554 0.1687 0)
(0.2446 -0.01187 0)
(-0.2259 0.06772 -1.188e-21)
(0.08447 0.02902 -2.509e-20)
(1.013 -0.007989 -4.976e-20)
(0.7464 -0.1826 0)
(-0.1094 0.03708 3.095e-21)
(0.7001 -0.1792 7.505e-22)
(0.6474 -0.05735 5.046e-21)
(0.4812 -0.03156 3.659e-21)
(0.7508 -0.1849 -9.967e-21)
(0.5445 -0.03072 0)
(0.9175 0.05631 0)
(1.003 -0.0126 0)
(0.2486 -0.02067 -1.601e-21)
(1.001 0.005346 -5.18e-22)
(-0.2314 0.05915 0)
(-0.09557 -0.007602 0)
(0.9611 0.1711 0)
(1.048 -0.123 2.302e-21)
(-0.2543 0.08248 -7.829e-21)
(1.076 -0.09896 6.314e-21)
(1 0.0006991 -7.621e-20)
(0.7302 -0.07573 0)
(0.6762 -0.2812 0)
(0.4098 -0.05645 -2.255e-21)
(0.9445 -0.1628 -1.022e-20)
(-0.2385 0.07692 0)
(0.7813 -0.2765 0)
(-0.2485 0.0527 -4.838e-21)
(-0.2704 0.07844 -6.937e-21)
(0.329 -0.06639 0)
(0.3673 0.05475 5.757e-21)
(0.7023 -0.2793 -1.631e-21)
(-0.2528 0.08482 0)
(-0.05364 0.0188 -5.908e-21)
(-0.2582 0.07642 0)
(1.002 0.0001218 1.85e-23)
(-0.2461 0.0757 -5.167e-21)
(0.911 0.2817 -5.227e-21)
(1.027 0.462 3.384e-22)
(0.9135 -0.1512 -1.043e-20)
(-0.1225 0.01075 1.978e-20)
(0.9843 -0.1096 -1.067e-21)
(1.003 -0.0002489 0)
(-0.2582 0.07734 0)
(-0.1355 0.03011 0)
(1.2 -0.08011 1.207e-19)
(0.2999 0.07853 1.268e-21)
(1.002 0.002619 -8.535e-21)
(1.017 -0.1513 2.127e-21)
(-0.2188 0.05037 -1.281e-20)
(0.9714 -0.02757 -1.827e-20)
(0.9942 -0.005941 0)
(0.9975 -0.0004977 -5.083e-21)
(0.7377 -0.05964 1.514e-21)
(1.091 -0.0658 -2.679e-20)
(0.6906 -0.2565 6.222e-21)
(0.9604 0.03978 0)
(0.3895 -0.02812 -2.179e-22)
(0.9888 0.004651 5.282e-20)
(0.3789 -0.2443 0)
(0.8846 -0.006074 -1.719e-21)
(-0.1655 0.0006835 8.386e-22)
(-0.2578 0.0735 0)
(0.5177 -0.06717 -2.286e-23)
(1.049 -0.1221 -6.671e-21)
(-0.1397 0.02507 3.104e-20)
(0.8564 0.09543 -1.101e-22)
(-0.2393 0.07936 -8.908e-22)
(0.3499 -0.04144 -1.31e-21)
(-0.1274 0.01049 0)
(-0.2464 0.08184 0)
(0.6514 0.08815 5.389e-21)
(1.089 -0.09296 3.024e-21)
(-0.1307 0.02572 3.198e-21)
(-0.0812 0.04531 0)
(0.3302 0.5032 -2.203e-20)
(-0.1364 0.02578 1.925e-24)
(0.9917 -0.001203 0)
(1.006 0.02832 0)
(-0.2051 0.0466 0)
(-0.2016 0.05423 7.802e-21)
(0.9985 -0.0001852 0)
(-0.253 0.07715 3.277e-21)
(1.269 0.0745 2.301e-20)
(1.07 -0.08205 -1.963e-20)
(0.02254 0.03504 -9.932e-22)
(1.008 -0.07398 -2.342e-21)
(1.004 -0.0001513 0)
(0.2205 -0.1011 -3.727e-20)
(1.277 0.07933 -2.259e-20)
(-0.1626 0.05653 -2.359e-21)
(-0.07182 0.04449 2.366e-22)
(0.2135 -0.1136 5.628e-22)
(0.3639 -0.2347 -3.594e-21)
(-0.2026 0.03684 3.398e-21)
(0.5197 -0.1248 0)
(0.6782 -0.2749 0)
(0.3279 0.0803 -1.304e-21)
(-0.01499 0.03789 -1.961e-22)
(1.011 0.001739 4.214e-20)
(0.3708 -0.03333 -2.843e-21)
(0.9717 0.0142 4.207e-20)
(1.193 0.5889 2.258e-22)
(0.8663 -0.08632 2.322e-21)
(-0.1709 0.04524 0)
(1.185 0.517 1.721e-21)
(-0.0002881 -0.001563 0)
(-0.2747 0.08411 8.852e-21)
(0.2733 0.3372 8.113e-21)
(1.079 -0.02273 -3.02e-22)
(0.9695 0.6914 6.002e-21)
(0.9928 -0.001448 -7.319e-20)
(0.2098 -0.1162 0)
(1.007 0.02837 2.709e-23)
(-0.1895 0.05365 0)
(-0.2178 0.0657 -4.411e-21)
(-0.000218 -0.001242 0)
(0.000594 -0.003234 1.285e-22)
(0.0006764 -0.000277 -4.292e-23)
(1 -0.000266 -3.571e-20)
(-0.227 0.05736 0)
(-0.005522 0.02129 0)
(0.9917 0.005201 4.377e-20)
(-0.2236 0.06934 3.108e-21)
(0.7797 -0.2791 6.241e-21)
(-0.2665 0.08582 7.696e-21)
(1.026 -0.1426 0)
(-0.2593 0.07386 0)
(0.5089 -0.06255 -1.565e-21)
(-0.2528 0.07678 -3.344e-21)
(-0.05189 0.009411 1.86e-21)
(0.9966 -0.0008267 0)
(-0.1416 -0.01226 -1.105e-21)
(-0.002908 0.00101 0)
(0.6681 -0.2702 1.098e-21)
(0.3897 -0.03879 1.016e-21)
(-0.06386 0.01982 1.259e-21)
(1.012 -0.009585 -1.511e-20)
(1.065 -0.1093 -3.598e-21)
(0.9972 -0.04706 -2.634e-21)
(-0.06745 0.04328 7.443e-21)
(0.9981 -0.006039 0)
(0.3318 -0.02474 0)
(0.3371 0.1707 0)
(-0.1305 0.04446 -4.541e-21)
(0.9974 2.064e-05 0)
(-0.2057 0.0473 -2.427e-21)
(1.043 -0.09319 -8.638e-21)
(-0.02425 0.00561 1.251e-27)
(0.6488 -0.2773 2.809e-21)
(0.05799 0.02537 1.711e-21)
(-0.06206 0.04008 -3.1e-21)
(0.9689 0.006768 2.811e-21)
(-0.2145 0.07389 -2.694e-21)
(0.7604 -0.2723 -3.499e-21)
(0.9984 -0.0001847 4.203e-21)
(0.9029 -0.208 6.195e-21)
(0.4492 0.06068 -3.279e-20)
(0.5184 -0.04292 -2.332e-21)
(0.7425 -0.05067 2.172e-21)
(-0.1893 0.05105 -8.238e-21)
(-0.1512 0.05114 1.845e-21)
(-0.2233 0.06695 2.14e-21)
(0.6506 0.1269 0)
(0.7304 -0.2836 1.531e-21)
(-0.2619 0.08609 0)
(-0.263 0.07872 2.356e-22)
(1.021 -0.003901 -7.883e-21)
(0.2693 -0.01269 5.664e-22)
(-0.2777 0.0806 -3.831e-21)
(0.3908 -0.06153 2.984e-21)
(1.054 -0.1115 -5.365e-21)
(-0.2111 0.06051 1.704e-21)
(1 0.001443 0)
(0.9998 0.001849 1.298e-20)
(0.8664 0.2262 -2.089e-20)
(-0.2047 0.04978 -3.378e-21)
(0.9526 0.7221 0)
(0.9902 0.006149 -3.007e-20)
(1.003 -1.982e-05 -5.566e-22)
(0.7723 -0.2644 0)
(0.5727 -0.2501 0)
(-0.2539 0.08273 2.546e-21)
(0.6769 -0.2754 0)
(-0.1271 0.04296 7.052e-21)
(-0.05882 0.01932 0)
(0.9517 -0.2009 -4.285e-22)
(1.012 0.03615 0)
(0.9999 -0.0004754 7.14e-21)
(-0.1426 0.05005 3.884e-21)
(-0.2612 0.07851 -2.623e-21)
(0.9396 -0.2147 8.392e-22)
(1.002 -0.001282 1.224e-20)
(-0.02238 0.0003097 4.147e-21)
(1.072 -0.1044 0)
(-0.2651 0.07336 8.626e-21)
(0.9693 -0.004468 8.816e-21)
(0.2662 -0.03296 2.971e-22)
(0.9901 0.005885 5.545e-20)
(-0.2526 0.08183 -1.271e-21)
(-0.09911 -0.01381 0)
(0.04956 0.0322 4.743e-22)
(0.9999 -2.167e-05 3.522e-22)
(-0.2174 0.07154 -1.16e-20)
(-0.214 0.06413 -9.718e-22)
(0.1006 -0.05894 -9.387e-21)
(1.004 -0.0001392 -1.711e-21)
(0.9823 -0.153 1.791e-21)
(-0.05116 0.0174 7.238e-22)
(0.9975 -0.0005985 0)
(1.048 -0.1231 0)
(0.9927 0.01141 -9.11e-22)
(0.8739 -0.05737 3.042e-21)
(-0.04404 0.03084 0)
(0.9945 0.00385 3.056e-20)
(-0.1727 0.04312 1.882e-20)
(0.5769 -0.07833 1.34e-21)
(-0.004869 -0.02763 0)
(-0.2299 0.04216 -6.599e-21)
(-0.1176 0.03361 -6.537e-22)
(0.4503 -0.04954 -5.302e-21)
(0.4647 -0.0564 -1.523e-21)
(0.1843 -0.0003356 -4.88e-20)
(0.7631 -0.07113 -1.23e-21)
(1.158 0.7259 8.912e-22)
(0.7861 -0.03614 -2.533e-21)
(-0.1546 0.04124 -9.627e-22)
(-0.1164 0.03612 -1.232e-21)
(0.3216 -0.02919 1.295e-21)
(1.002 -0.001242 0)
(0.5509 -0.1157 -1.854e-23)
(0.9931 0.004574 -1.257e-20)
(0.2163 0.1695 -2.572e-20)
(1.043 0.02258 4.855e-20)
(-0.1366 0.03458 4.527e-21)
(1.003 -0.0002939 0)
(0.9963 0.0124 1.976e-20)
(1.092 -0.07501 2.348e-20)
(0.7057 -0.2813 8.326e-22)
(-0.2561 0.06657 4.074e-21)
(1.003 -0.000653 1.054e-20)
(1.002 -0.001643 -1.638e-20)
(-0.1566 0.05373 -3.136e-21)
(-0.05015 -0.006743 0)
(-0.1776 0.04186 8.29e-21)
(0.3847 -0.03158 -3.775e-21)
(-0.2147 0.03432 0)
(0.6903 -0.2556 -5.267e-21)
(-0.258 0.07389 -5.668e-22)
(0.6759 -0.2821 0)
(-0.1993 0.04206 -7.506e-23)
(-0.2397 0.07212 -3.133e-20)
(-0.08369 0.006472 0)
(1.003 -0.0006887 -1.843e-21)
(-0.1345 0.01115 1.317e-20)
(-0.1938 0.04006 2.631e-22)
(1.008 -0.1524 -6.471e-22)
(1.019 0.121 0)
(0.9958 -0.006193 -2.574e-20)
(1.003 -1.941e-05 5.714e-23)
(-0.0003172 0.03099 -5.36e-21)
(0.3004 -0.17 3.138e-24)
(-0.01515 0.03869 9.843e-22)
(-0.02769 0.008611 1.294e-21)
(1.042 0.02358 0)
(1.004 -3.713e-05 1.77e-22)
(-0.2697 0.0845 0)
(-0.1482 0.01433 0)
(0.9314 0.01213 -8.943e-20)
(-0.0878 0.0119 -7.038e-21)
(1.009 -0.1293 0)
(0.9844 0.001199 -3.374e-20)
(-0.1979 0.06068 1.069e-20)
(0.9345 -0.2142 -3.767e-22)
(-0.1904 0.03977 1.681e-21)
(0.8266 -0.1517 -3.826e-20)
(0.0001492 -5.276e-05 0)
(-0.07929 0.02663 0)
(-0.2463 0.08169 -7.656e-22)
(-0.2395 0.07944 1.661e-21)
(-0.2773 0.07945 0)
(-0.2274 0.04162 6.564e-21)
(0.3042 -0.04302 -6.848e-22)
(-0.2061 0.0364 0)
(0.9638 -0.02045 -1.092e-20)
(-0.1685 0.02639 8.808e-21)
(-0.04667 -0.007499 0)
(-0.2298 0.05911 -4.393e-21)
(1.001 -0.001201 3.769e-20)
(0.8313 -0.1292 -1.605e-21)
(0.8366 -0.2134 0)
(0.5489 0.03614 -3.313e-20)
(0.9973 1.279e-06 2.577e-23)
(1.001 -0.001241 -5.022e-20)
(0.0004559 -0.01285 0)
(1.079 -0.02032 -6.447e-21)
(0.607 -0.113 5.626e-22)
(-0.221 0.04246 -3.793e-22)
(0.5247 -0.2818 0)
(-0.07556 0.03646 1.454e-20)
(1.218 0.2724 0)
(0.3409 -0.0289 1.66e-21)
(0.6773 0.01123 4.889e-20)
(0.7011 -0.1894 0)
(1.011 0.001496 -1.522e-20)
(1.003 -0.0007244 0)
(1.156 0.47 0)
(0.9204 0.2838 0)
(-0.1631 0.03183 1.166e-21)
(0.5557 0.0234 0)
(0.4103 -0.1688 3.406e-21)
(-0.2182 0.05526 0)
(0.6446 -0.2657 -2.762e-21)
(1.208 -0.05602 1.442e-19)
(0.5418 -0.09863 5.281e-20)
(1.001 1.41e-05 -5.998e-23)
(0.4354 -0.02814 -1.132e-21)
(1.01 -0.07321 -4.356e-22)
(0.6631 -0.1546 -2.772e-22)
(-0.0005403 -0.002517 2.189e-23)
(1.013 -0.1546 6.134e-22)
(-0.04025 0.03469 -8.759e-21)
(-0.2515 0.07803 7.466e-21)
(1 -1.081e-05 -3.385e-22)
(1.03 -0.1098 9.514e-23)
(0.696 -0.05963 -3.377e-21)
(-0.04317 0.01483 0)
(-0.08778 -0.03133 9.027e-21)
(-0.1355 0.04935 4.32e-21)
(-0.1992 0.04201 -1.138e-21)
(0.8618 0.7406 0)
(-0.2708 0.07862 6.675e-21)
(0.5483 -0.2885 4.924e-21)
(-0.1927 0.05394 -1.885e-21)
(0.7462 -0.1828 1.522e-22)
(1.001 -0.1066 2.696e-21)
(1.067 -0.1093 1.844e-21)
(-0.226 0.06842 3.609e-21)
(0.9844 -0.1628 -1.767e-22)
(0.002684 -0.0001604 0)
(0.8339 -0.2145 0)
(0.9402 0.05195 3.347e-20)
(0.9231 -0.2078 -1.516e-22)
(0.6953 -0.2915 4.606e-21)
(0.8747 -0.0905 -7.007e-22)
(1.006 -0.0008999 0)
(-0.07308 -0.006438 -4.287e-22)
(-0.1121 0.03894 -1.312e-20)
(-0.2533 0.08261 -2.365e-21)
(1.004 -2.922e-05 -2.17e-22)
(-0.0271 0.01002 0)
(-0.2638 0.07913 0)
(0.2688 -0.03657 5.128e-21)
(1.002 8.612e-06 3.897e-22)
(-0.1987 0.03553 8.761e-21)
(-0.1836 0.05573 0)
(-0.2204 0.04328 1.189e-20)
(-0.1812 0.02641 -5.621e-21)
(1.001 -3.852e-05 -3.339e-22)
(-0.247 0.07962 -4.1e-21)
(-0.03778 0.006494 0)
(-0.1828 0.05093 1.445e-20)
(-0.2089 0.05336 0)
(0.9897 0.01783 -5.329e-21)
(-0.1407 0.04468 8.632e-22)
(0.04624 0.1562 0)
(1.021 0.001861 -1.602e-20)
(0.9876 -0.1779 -5.62e-22)
(0.9623 -0.1889 0)
(-0.2278 0.04179 -6.368e-21)
(-0.2747 0.08416 0)
(0.9042 -0.2048 -3.723e-21)
(1.012 -0.1547 0)
(0.1991 -0.02346 8.406e-22)
(-0.2356 0.07435 0)
(0.9979 -1.817e-05 -4.907e-22)
(-0.2473 0.07976 3.885e-21)
(-0.2091 0.06663 6.387e-22)
(0.2366 -0.01921 0)
(0.4453 -0.0643 1.739e-21)
(1.222 0.1979 0)
(-0.2228 0.06891 0)
(-0.1591 0.05377 4.671e-22)
(0.9977 8.991e-06 1.395e-22)
(-0.2666 0.08579 -7.234e-21)
(-0.1987 0.06054 0)
(-0.08101 0.03904 0)
(4.234e-05 -0.0112 -2.442e-23)
(-0.07493 0.04006 -8.748e-22)
(-0.1323 0.04545 7.031e-21)
(-0.2343 0.05225 -9.14e-22)
(-0.182 0.04045 0)
(0.9441 -0.2067 0)
(1 -0.000263 1.752e-20)
(-0.0001404 5.193e-05 -1.62e-23)
(-0.2781 0.08204 8.982e-21)
(-0.2288 0.04191 5.826e-21)
(-0.112 0.03996 2.355e-21)
(-0.2472 0.0814 -5.16e-21)
(-0.2296 0.07816 9.989e-21)
(-0.2617 0.08394 -3.334e-21)
(0.6011 -0.04631 0)
(0.9998 -0.000443 0)
(-0.107 0.0206 0)
(1.048 -0.1226 -1.456e-23)
(1.001 -1.985e-05 0)
(-0.2552 0.07977 -1.197e-20)
(1.193 0.5876 0)
(0.9656 -0.1469 1.559e-21)
(0.795 -0.2744 -1.871e-21)
(1.004 -7.916e-05 -6.945e-21)
(-0.2561 0.0733 0)
(-0.1137 0.01407 0)
(1.011 0.001796 -4.917e-20)
(1.004 -8.782e-05 0)
(0.9873 0.1152 0)
(-0.2043 0.06465 5.061e-21)
(-0.2148 0.03543 -2.123e-21)
(-0.2265 0.07756 4.426e-21)
(-0.2518 0.08178 3.539e-21)
(0.06096 -0.001082 2.205e-23)
(1.039 -0.1313 0)
(0.6853 -0.1404 -2.826e-20)
(1.001 -0.001259 0)
(-0.266 0.08285 -3.723e-21)
(-0.2505 0.08419 0)
(0.5197 -0.0316 -2.674e-21)
(0.3204 -0.02619 0)
(0.6716 -0.2088 -1.885e-20)
(1.003 -0.0004233 0)
(1.012 -0.009156 2.144e-21)
(0.9857 -0.005612 3.303e-20)
(-0.02064 -0.0001337 4.396e-21)
(1.001 -0.001185 6.62e-21)
(1.191 -0.06992 -5.427e-20)
(0.3292 -0.199 1.084e-21)
(1.018 -0.1278 3.657e-21)
(0.2228 -0.03422 -2.892e-21)
(1.002 -0.001549 0)
(-0.1417 0.005085 -1.275e-21)
(1.019 -0.1218 -2.305e-21)
(1.001 0.006802 0)
(0.4104 -0.04986 2.2e-21)
(0.9988 -0.0002159 0)
(0.5949 -0.2925 6.89e-21)
(-0.02032 0.05128 -6.382e-21)
(-0.2056 0.0379 -1.387e-22)
(0.09368 0.05111 0)
(0.1905 -0.00877 7.019e-22)
(0.9957 -0.006947 1.056e-21)
(-0.1832 0.04961 0)
(0.8182 -0.1608 -1.006e-20)
(0.3399 -0.02653 0)
(-0.03122 -0.009865 -1.135e-21)
(0.3178 -0.04031 1.034e-21)
(0.6522 0.9074 -1.867e-21)
(1.219 0.1999 -1.003e-20)
(0.9849 -0.1711 2.024e-22)
(0.7371 -0.2469 5.65e-23)
(0.06232 -0.005712 0)
(0.9999 0.008282 0)
(0.2792 0.03415 2.133e-20)
(0.6083 -0.1964 0)
(0.04797 0.02613 1.022e-21)
(-0.04636 -0.00678 3.056e-22)
(0.1291 -0.02682 0)
(1.003 -0.0003941 0)
(1.084 -0.1296 3.512e-20)
(-0.1411 0.04893 -1.895e-21)
(0.2359 -0.05383 -1.661e-21)
(-0.01584 0.0003741 1.794e-20)
(0.1395 0.05745 0)
(0.005315 -0.005363 -1.406e-21)
(-0.0306 0.002664 -4.402e-21)
(-0.01065 -0.001031 3.959e-21)
(-0.262 0.06647 -4.862e-21)
(-0.1214 0.04236 4.732e-21)
(-0.09756 0.02041 6.021e-21)
(0.1071 -0.007793 2.266e-21)
(1.004 0.04349 -1.461e-21)
(0.9361 -0.1358 0)
(1.004 2.334e-06 0)
(0.9998 -2.432e-05 0)
(-0.1682 0.03699 2.553e-21)
(1.048 0.04598 1.664e-21)
(-0.2154 0.04198 4.595e-21)
(-0.2375 -0.06019 -2.08e-20)
(0.2606 0.5113 0)
(1.074 -0.09683 -1.447e-20)
(1.051 -0.04429 -2.676e-20)
(1.148 0.5731 2.237e-21)
(0.9096 -0.2079 3.53e-22)
(1.012 -0.007873 3.493e-20)
(0.06165 0.005155 1.477e-22)
(-0.2582 0.08565 -1.44e-21)
(1.049 -0.04199 3.721e-20)
(-0.1636 0.03906 -2.076e-20)
(-0.02042 0.007358 -2.806e-21)
(-0.08206 -0.01871 0)
(0.9678 -0.1938 0)
(0.06071 -0.006481 -1.668e-20)
(-0.103 0.04336 0)
(-0.2076 0.07128 0)
(0.9941 -0.0001462 2.785e-20)
(-0.1662 0.0457 2.227e-21)
(0.673 -0.1575 3.053e-22)
(1.005 -0.007037 0)
(-0.185 0.0473 9.488e-21)
(-0.2777 0.08139 0)
(-0.1908 0.05965 -2.586e-21)
(0.9986 -0.000167 2.002e-21)
(0.8666 -0.006078 5.326e-21)
(0.2038 -0.01743 0)
(0.04404 -8.217e-05 4.469e-23)
(0.8075 -0.2583 -4.351e-21)
(-0.02024 0.006813 0)
(-0.2535 0.07634 3.442e-21)
(0.683 -0.2858 0)
(0.9359 -0.2062 -4.845e-23)
(-0.03772 0.01316 0)
(-0.1351 0.01114 3.664e-21)
(0.9996 -1.833e-05 -4.456e-23)
(0.2761 -0.1621 0)
(1.117 0.3847 -1.026e-20)
(1.004 1.838e-06 0)
(0.7191 -0.2621 1.477e-22)
(1.407e-05 -0.0001602 1.921e-22)
(0.2112 0.01067 -7.222e-21)
(-0.07921 -0.004768 -1.432e-20)
(1.134 -0.04843 7.051e-21)
(1.014 -0.1528 5.422e-22)
(-0.0213 0.007275 3.811e-26)
(0.0345 -0.003723 -4.507e-22)
(0.6115 -0.0663 0)
(1.011 0.03583 -8.98e-21)
(0.9971 0.004061 6.478e-21)
(0.9787 -0.185 0)
(0.6423 -0.2675 -1.557e-21)
(-0.2593 0.08552 -1.331e-20)
(-0.1799 0.043 0)
(0.3002 0.7228 -6.011e-21)
(0.3571 -0.1484 -2.026e-21)
(0.5617 0.01049 -2.122e-22)
(1.161 0.1696 -2.323e-20)
(0.3508 -0.1453 -1.985e-21)
(1.137 -0.01076 5.401e-20)
(-0.03923 0.003232 0)
(1.006 -2.442e-05 0)
(-0.2431 0.07903 4.024e-22)
(-0.0004654 -0.03154 -7.836e-23)
(-0.1803 0.04592 -6.938e-21)
(-0.2597 0.07453 0)
(-0.2613 0.07884 0)
(0.9955 0.002591 -2.127e-20)
(0.9822 0.001535 1.484e-20)
(-0.1305 0.04537 0)
(0.9252 -0.1776 8.102e-21)
(-0.2145 0.07339 0)
(0.6626 -0.08409 0)
(-0.1876 0.06636 -6.147e-21)
(-0.2244 0.06464 -1.977e-21)
(0.06124 0.04118 -8.812e-22)
(-0.09338 0.01079 -2.484e-21)
(-0.151 0.01341 -1.38e-20)
(0.05905 -0.01062 -1.977e-21)
(-0.1679 0.03919 -1.945e-21)
(0.4511 -0.031 2.002e-21)
(-0.1841 0.0552 1.164e-20)
(1.046 -0.1249 -4.836e-21)
(-0.2285 0.07185 5.147e-21)
(0.4128 0.906 1.903e-22)
(-0.2354 0.07998 -2.616e-22)
(0.0005267 -0.0327 3.768e-22)
(-0.004396 0.001367 0)
(-0.2626 0.07932 0)
(1.006 -0.0008584 0)
(1.004 -0.002568 2.408e-20)
(-0.2427 0.07764 2.947e-21)
(-0.2301 0.07354 0)
(1.006 -0.1554 4.094e-21)
(1.003 1.983e-05 0)
(0.6439 -0.2826 -4.594e-21)
(-0.2583 0.07382 2.941e-21)
(1.099 -0.06836 -1.958e-20)
(-0.2098 0.07135 0)
(0.04341 0.03229 -1.136e-20)
(-0.2246 0.07039 -1.363e-20)
(1.041 0.593 -9.184e-21)
(0.9999 0.0006861 -4.937e-20)
(0.9887 -0.1602 0)
(1.119 -0.02901 -1.225e-20)
(0.2326 -0.09208 0)
(0.2943 -0.02194 0)
(-0.1636 0.04604 5.291e-22)
(0.7085 -0.1892 1.539e-20)
(0.3035 0.03349 4.114e-20)
(-0.1549 0.02844 0)
(0.6274 -0.05547 -1.059e-21)
(1.107 -0.08289 0)
(-0.2149 0.05892 0)
(0.6515 -0.2894 5.103e-21)
(0.8631 -0.09965 2.524e-21)
(-0.2514 0.0846 0)
(0.3426 -0.1483 -2.523e-21)
(1.007 -0.0102 -1.161e-21)
(-0.04693 0.01558 0)
(-0.02483 0.008409 0)
(-0.2074 0.06604 0)
(-0.2268 0.0422 8.586e-21)
(0.03431 0.02182 -2.696e-20)
(1.002 0.01618 5.147e-22)
(-0.02594 0.006787 6.742e-21)
(0.0635 -0.01426 0)
(1 -0.0002278 0)
(0.9992 -6.771e-05 -1.426e-20)
(-0.1809 0.04318 -2.893e-24)
(-0.2527 0.0663 1.236e-20)
(-0.00144 0.0004562 -1.934e-22)
(-0.0341 -0.01496 3.365e-22)
(0.9486 -0.1374 -4.364e-22)
(0.655 -0.2426 0)
(-0.1963 0.06407 -1.247e-20)
(0.9963 -0.1566 0)
(1.036 -0.127 0)
(0.9966 -0.007008 -8.081e-21)
(-0.183 0.06016 -1.907e-20)
(-0.1567 -0.03835 0)
(-0.2302 0.07625 -1.138e-20)
(0.9662 -0.192 0)
(-0.02872 0.008316 8.079e-22)
(-0.257 0.08477 -7.085e-21)
(1.001 -0.001 -7.81e-22)
(0.06332 -0.01002 0)
(-0.1888 0.06128 -3.832e-21)
(0.9999 -0.0007033 -5.657e-20)
(-0.2061 0.03804 -5.142e-21)
(1.001 -0.0002413 -5.698e-21)
(0.9951 -0.00165 2.302e-20)
(1.032 -0.1378 1.333e-21)
(0.9822 -0.1376 0)
(-0.0122 0.001676 -2.632e-20)
(0.9994 -0.001488 5.463e-21)
(0.4156 -0.04894 -2.615e-22)
(1.004 0.004904 0)
(1.195 0.6036 0)
(0.9926 -0.1249 1.902e-22)
(0.06546 -0.007021 6.611e-21)
(1.056 -0.1163 -3.631e-21)
(0.536 -0.1057 -6.03e-23)
(0.5885 -0.08422 0)
(-0.1865 0.0561 2.739e-20)
(1.053 -0.1152 5.278e-21)
(1.001 -0.002796 6.002e-21)
(1.005 0.00309 7.517e-21)
(-0.1746 0.04519 3.501e-21)
(0.8348 -0.1534 2.393e-22)
(-0.2258 0.07708 -1.137e-21)
(-0.2146 0.06922 0)
(0.1614 -0.01026 3.365e-25)
(-0.1822 0.05968 -7.228e-21)
(-0.0261 0.008754 -2.464e-20)
(-0.2313 0.04212 8.895e-21)
(0.6841 -0.1923 0)
(-0.08223 -0.0002145 -3.187e-20)
(0.537 -0.0577 -5.233e-22)
(0.2007 -0.02667 0)
(0.8155 0.3957 3.337e-21)
(-0.06351 0.02143 0)
(1.004 -0.007304 4.471e-21)
(-0.1968 0.04016 2.49e-20)
(-0.07794 0.006385 6.872e-22)
(0.3169 -0.05226 0)
(0.9984 -2.174e-05 3.046e-21)
(0.3901 -0.2528 6.116e-21)
(-0.2384 0.07003 0)
(0.9803 -0.09202 4.252e-22)
(0.8745 -0.2408 3.432e-22)
(-0.2089 0.04341 -3.591e-22)
(1.045 -0.1228 -4.076e-21)
(-0.1322 0.02962 0)
(-0.1751 0.05645 3.502e-21)
(0.9844 -0.0928 1.268e-21)
(-0.1583 0.05109 -9.869e-23)
(0.5132 -0.1411 -1.778e-21)
(-0.02975 -0.01073 1.237e-21)
(1.001 -0.000476 0)
(1.121 -0.07294 -4.699e-21)
(-0.1975 0.03754 0)
(0.9951 -0.007096 0)
(-0.2362 0.05178 0)
(-0.09634 0.0102 2.907e-21)
(0.9985 -1.085e-05 2.315e-21)
(0.9559 -0.1982 8.385e-22)
(-0.08484 0.01932 0)
(1.018 -0.01615 0)
(0.8331 0.3981 -1.428e-20)
(-0.06522 0.03861 0)
(0.0173 -0.01206 0)
(1.011 -0.1348 -4.304e-21)
(1.004 2.428e-05 -1.282e-22)
(-0.2437 0.05986 -2.6e-22)
(-0.2559 0.07501 -6.26e-22)
(1.012 -0.002831 2.949e-20)
(0.889 0.3625 6.039e-21)
(1.053 0.09604 7.949e-21)
(-0.2594 0.07452 4.439e-21)
(-0.2369 0.06424 -1.06e-20)
(0.9973 -0.1692 -9.071e-22)
(1.052 -0.03778 0)
(-0.04396 0.01133 -6.259e-22)
(-0.008594 0.003068 7.005e-22)
(0.5713 -0.1212 -5.591e-23)
(0.7117 -0.1133 -1.142e-21)
(-0.2397 0.07337 -2.157e-21)
(0.1066 -0.008481 0)
(0.9945 -6.193e-05 -3.235e-21)
(0.8107 -0.08624 2.918e-21)
(1.005 0.006399 3.31e-22)
(-0.2714 0.08306 0)
(0.5872 -0.2657 -4.904e-21)
(-0.2354 0.04467 0)
(0.8739 -0.2401 3.065e-21)
(-0.01275 -0.008294 -6.889e-22)
(-0.0564 0.00866 0)
(0.9993 0.002832 -1.196e-20)
(-0.006685 0.002474 0)
(-0.1339 0.04349 0)
(-0.1528 0.04505 8.244e-21)
(1.06 -0.08841 4.44e-21)
(0.3652 0.1489 0)
(-0.1968 0.06121 -3.109e-21)
(-0.0508 -0.02653 9.63e-21)
(0.267 -0.01941 0)
(0.9953 -0.1377 0)
(0.8781 0.01389 -8.564e-20)
(0.01703 -0.0008776 6.702e-22)
(-0.2296 0.07478 1.728e-21)
(0.6603 -0.04498 0)
(0.4358 -0.09235 -1.279e-22)
(0.8024 -0.1224 0)
(0.4568 -0.2665 -9.944e-21)
(-0.009059 -0.01232 2.914e-21)
(-0.0869 0.03017 3.583e-22)
(0.9561 -0.162 -2.46e-22)
(-0.2637 0.0858 0)
(0.07984 0.05348 0)
(0.5098 -0.06194 2.277e-21)
(0.5798 -0.0594 -1.822e-21)