/*--------------------------------*- C++ -*----------------------------------*\
  =========                 |
  \\      /  F ield         | OpenFOAM: The Open Source CFD Toolbox
   \\    /   O peration     | Website:  https://openfoam.org
    \\  /    A nd           | Version:  8
     \\/     M anipulation  |
\*---------------------------------------------------------------------------*/
FoamFile
{
    version     2.0;
    format      ascii;
    class       volScalarField;
    location    "10";
    object      epsilon;
}
// * * * * * * * * * * * * * * * * * * * * * * * * * * * * * * * * * * * * * //

dimensions      [0 2 -3 0 0 0 0];

internalField   nonuniform List<scalar> 
127143
(
88.63
62.23
58.86
51.76
188.1
54.21
259.4
250
279.9
64.57
394.8
322.6
131.3
53.75
12.56
7.829
29.13
0.08823
0.1352
8.624
0.4557
6.337
0.1358
1.129
6.413
3.383
10.76
10.91
11.83
0.06885
1.593
3.475
27.61
2.227
0.06795
27.48
0.3897
0.3786
0.938
2.926
0.135
1.162
0.9677
61.48
0.08878
2.166
11.41
0.2542
1.499
1.006
6.867
0.022
0.9129
0.2345
0.005278
3.037
0.005091
0.1489
0.01311
0.2328
0.9441
0.1774
0.5223
0.09658
3.339
0.4878
0.06685
0.5697
0.5574
0.0008087
1.251
9.858
0.1795
0.01313
0.02705
9.879
0.01722
0.3484
2.974
0.1318
11.59
8.28
1.527
2.6
0.2337
0.3189
0.809
13.85
0.4682
10.73
0.01599
0.1511
8.361
0.4536
0.9499
0.08833
1.09
1.789
0.3099
0.06524
0.1332
1.427
23.69
0.2769
0.3107
0.3157
0.7889
0.0008154
1.142
0.01753
11.74
13.72
0.634
5.212
0.02067
0.3364
0.01773
0.02705
0.01715
6.788
0.01671
1.384
1.684
0.1253
10.96
3.471
0.2247
0.0166
1.518
3.508
0.472
0.8389
0.4072
0.3433
9.937
0.4627
0.037
0.4137
12.61
0.03869
0.2003
0.01738
0.6606
0.4074
0.9013
3.447
57.29
0.1068
0.8602
28.15
0.3029
1.535
0.3699
0.1578
5.282
0.2298
0.1483
4.532
0.2511
1.878
1.286
44.55
0.01619
0.4702
4.637
3.089
0.4345
0.8396
10.78
0.02286
1.348
0.4062
0.388
1.025
0.003691
0.4687
3.639
1.508
1.023
0.01871
1.025
0.02996
0.4994
0.4655
3.407
0.1749
0.2261
5.029
1.052
0.02121
1.002
1.401
0.03588
10.38
12.89
0.2613
0.112
0.112
19.59
0.01839
0.01691
0.02349
0.03828
0.3734
44.98
0.691
0.06753
0.5453
0.06603
0.02085
0.07965
0.2747
0.01555
10.66
0.5851
18.23
1.93
0.6149
0.608
0.06665
3.361
0.02937
1.581
0.8871
2.043
1.347
4.012
0.3744
0.8452
0.2555
0.4832
0.02938
0.1724
13.65
0.479
0.09063
0.4699
43.13
0.01682
0.8767
1.364
3.131
0.3283
4.414
0.6339
6.42
1.243
10.4
10.16
0.001441
1.637
2.376
0.8102
0.4582
2.254
1.125
0.01647
10.59
0.7
0.118
0.283
0.02385
0.1481
0.01738
0.9325
3.148
0.6841
6.474
1.148
0.5499
3.036
0.0036
0.227
0.8847
0.4136
0.9824
0.6263
1.173
0.006084
0.8204
0.002484
0.09249
0.2699
0.02255
0.02041
11.88
0.5691
0.0203
1.111
0.01905
0.361
0.2537
0.09014
0.4594
0.01445
1.409
1.41
1.206
0.3279
0.5339
1.802
0.3958
0.5153
0.3265
2.12
3.286
0.5346
0.01556
0.1717
0.3713
0.8323
1.827
3.055
0.002563
0.0198
6.605
0.4329
1.791
0.1318
0.02004
0.1305
1.4
0.02205
0.813
6.738
0.5578
0.03611
1.245
1.228
3.747
0.2039
0.02041
0.06582
0.1016
0.1016
0.1501
1.115
0.384
0.204
0.6285
0.03741
0.6154
0.8259
0.9619
4.001
1.136
1.152
0.8038
1.8
1.838
1.662
0.1287
0.4591
0.9759
0.02712
1.047
0.4603
2.948
0.01078
1.269
0.2053
0.4887
0.09131
1.015
0.9801
0.04063
0.0185
0.01305
2.026
0.006189
1.86
0.02214
2.106
1.047
0.02048
0.07824
1.312
19.39
0.2805
0.006492
0.1322
3.137
1.697
0.4095
0.01763
4.545
0.04843
2.798
0.2694
0.2369
0.01287
0.4416
1.033
2.36
1.065
1.54
0.4407
1.476
0.02706
0.0232
2.392
0.03011
0.4927
0.4836
0.04897
0.3731
0.2967
0.4225
0.1375
0.9578
1.824
2.122
0.1955
0.2384
1.602
0.9326
0.413
3.29
0.4688
3.052
0.4218
2.1
0.6707
0.001485
0.2596
0.1472
0.8751
0.1605
2.943
0.08653
0.05467
0.6529
0.4865
0.09036
1.142
0.04023
0.488
1.175
0.02153
0.01447
0.02275
0.9396
0.0378
1.19
0.019
1.723
0.01849
5.626
0.01328
0.2748
0.3946
1.492
0.3519
2.296
0.05284
0.357
1.984
2.873
0.3288
0.4184
0.3883
1.168
0.2546
3.74
1.195
0.003365
0.01718
0.6224
1.075
0.03248
0.2844
0.1652
0.1237
0.4239
0.05503
0.006099
5.604
0.161
0.8839
0.7262
14.08
5.518
1.709
3.031
1.612
1.116
0.6537
0.01562
1.719
0.01735
5.629
0.7598
0.999
3.358
24.81
0.4947
3.241
0.08562
3.459
0.01706
14.18
0.01713
0.3726
0.2563
22.53
9.489
17.57
0.0708
1.029
2.235
0.02001
0.1924
1.859
0.4222
0.3461
0.4023
1.52
0.2837
3.828
0.003352
0.3195
8.482
3.442
1.664
1.254
0.01304
0.2942
0.03702
0.25
0.01238
1.886
23.07
0.9891
0.04393
0.6238
0.1052
1.785
1.865
15.1
0.2051
0.01739
0.6393
1.321
0.0363
0.4067
0.4361
1.322
0.9849
1.129
0.9299
0.2649
0.758
2.676
0.3942
0.6313
0.01425
2.634
0.4951
2.249
0.478
0.2985
0.08465
0.06712
0.1078
1.179
3.93
0.01927
0.001688
1.111
4.725
0.2968
1.636
1.08
1.879
0.4987
0.01701
0.03759
0.9615
0.3267
0.9869
0.003969
9.392
0.4079
0.7266
0.006294
2.384
0.01916
0.2878
0.46
0.2132
0.001636
0.6658
0.2832
20.39
0.006378
0.7584
1.913
0.02218
0.3687
0.01966
0.7856
0.6172
0.02269
1.352
1.459
1.636
1.092
0.6205
1.602
1.65
4.986
0.8809
7.873
0.9364
0.4748
1.007
1.897
0.003996
2.52
0.02104
3.727
0.01726
0.6473
0.04643
0.02036
0.1553
3
0.5413
0.003499
0.007788
0.8014
13.14
1.361
1.686
0.1846
1.177
0.3879
1.869
0.9497
0.7358
3.847
0.003497
2.537
0.894
0.2626
0.3215
0.0161
0.001695
0.5481
11.13
0.6519
3.17
0.01719
0.001042
0.4773
2.175
0.0228
2.899
0.148
0.04048
0.8575
0.648
0.8795
0.2142
49.82
1.273
0.3238
0.3583
0.5623
1.337
2.206
1.686
0.02047
1.364
0.8736
0.4837
0.01073
1.112
0.4419
0.6214
0.04475
0.01006
2.739
0.08575
1.955
1.337
3.715
0.1729
0.47
1.889
0.2433
2.403
0.01566
0.007683
1.915
0.1452
1.887
0.599
6.514
0.1809
3.73
0.07716
0.09024
0.001033
1.804
0.05545
2.234
10.92
0.5683
0.9106
0.274
0.001493
0.5332
0.9794
2.625
0.1123
0.3112
0.946
25.38
0.4159
4.547
0.1484
2.038
0.5923
0.3612
0.2216
0.2463
62.07
0.4513
0.0225
1.183
2.361
0.7615
0.01482
0.6205
0.1278
0.2931
0.0009372
3.232
0.6393
2.422
0.0009836
1.765
0.4513
1.399
1.623
0.001081
0.2616
1.28
1.15
0.4809
0.01812
0.8244
8.41
0.01482
0.5859
0.3908
1.297
0.4899
0.3822
0.5815
3.002
0.6339
0.01876
0.2627
0.1733
2.484
1.998
0.2361
0.19
0.8857
0.02552
0.4097
0.8484
0.7123
12.86
0.7077
0.9594
0.6742
0.3176
0.5437
0.07265
49.92
0.5026
1.06
1.26
0.2985
0.5899
0.5082
1.158
0.04009
0.1217
0.2935
0.0009393
0.5752
5.544
0.7935
1.609
0.02828
0.3787
0.4854
0.01576
0.02037
0.3194
0.1783
0.1846
0.5949
0.2848
8.558
0.3428
0.4499
0.01081
0.3482
0.4085
1.501
1.972
0.8008
0.002226
0.0129
0.04247
10.34
0.01156
0.07037
10.18
0.5879
3.056
0.00434
0.3389
0.5773
0.02652
1.774
0.06851
3.205
27.2
1.63
0.7203
3.339
0.01558
1.152
0.2483
1.827
1.101
2.282
33.05
0.2357
0.3142
0.9076
9.104
0.02423
0.2797
3.451
7.125
0.8837
5.192
0.002217
0.05447
0.9722
5.295
10.66
2.879
173
5.091
49.95
0.7634
1.16
0.1206
3.998
0.01737
0.8451
0.001785
0.00174
0.676
0.01945
1.239
0.1546
4.999
0.1937
0.02634
7.916
1.276
0.01274
0.115
0.3793
0.02535
1.499
6.107
0.5285
0.6451
11.64
0.35
0.6851
0.01894
0.9892
2.197
0.01057
1.229
0.4836
0.1741
0.02613
0.02011
0.1151
12.25
0.9784
6.173
0.2985
1.995
1.089
2.233
2.578
0.00221
12.09
0.6694
0.002209
1.173
8.838
0.17
5.132
0.2529
0.3428
2.867
10.13
1.171
0.01702
0.02863
0.5968
1.648
0.4606
1.363
7.274
7.595
0.6866
0.1079
7.673
0.04202
6.252
0.01691
0.2588
1.851
0.5088
0.7142
0.3244
0.02427
0.01693
1.092
0.244
0.5648
1.279
0.7658
0.2177
0.612
2.352
2.129
8.975
0.8286
1.65
0.9644
0.3634
0.2065
9.937
0.5699
2.233
5.811
0.3284
0.01504
0.01056
0.2459
0.3146
0.2831
0.1799
2.071
0.3902
0.1581
0.6853
0.5451
0.7203
2.473
0.1382
0.242
0.1494
9.164
2.126
0.4744
0.5708
0.254
2.066
1.098
0.3683
0.1702
2.349
0.8223
0.4328
8.326
0.01267
2.318
2.475
0.1712
1.084
12.71
0.01904
6.193
12.46
0.002479
0.1533
1.067
0.5121
8.459
1.024
0.8149
3.534
0.7437
0.2436
0.2057
0.01745
0.8137
0.2809
0.6208
0.4812
1.895
0.3411
0.003406
7.325
0.517
0.02969
1.661
0.002219
0.01712
0.4599
0.1418
9.393
0.01725
1.765
0.02721
6.173
0.118
0.1096
0.2974
2.352
1.549
0.8949
0.4723
0.006189
0.03333
0.5136
1.321
0.6032
0.7025
3.249
0.8172
4.982
1.128
2.639
4.47
1.298
2.887
0.4459
0.1194
0.01094
1.517
0.6631
2.88
0.0007237
6.621
0.2973
0.6063
1.5
1.042
0.2302
1.908
0.2369
0.6005
0.6449
3.405
1.128
0.003165
0.3371
1.582
0.01509
1.128
2.884
0.2081
0.4837
0.7852
0.0338
0.4434
0.3463
1.083
0.1691
0.1056
0.95
0.6856
0.0134
0.3071
0.02717
0.3794
0.8968
0.484
0.02442
1.348
4.863
2.437
1.382
0.2414
4.002
0.0008084
0.8518
0.02348
0.3824
2.075
1.224
1.511
1.624
3.973
0.04514
11.69
1.135
1.157
0.4861
9.847
0.2304
0.1105
2.211
0.6779
0.03848
18.32
0.356
1.158
3.027
1.131
4.348
1.001
1.503
0.8906
0.4486
0.739
1.503
1.212
0.17
5.597
0.09361
1.237
0.1024
2.184
0.1056
0.02166
0.4892
4.457
0.2683
0.02221
7.996
0.9278
0.02574
13.02
0.7796
0.6282
3.302
0.6816
0.431
36.84
0.1153
1.789
0.2274
0.663
4.743
1.394
1.867
1.578
1.573
0.06801
0.0819
0.5605
0.5573
0.712
0.6356
0.1877
3.157
0.2415
0.1933
0.2252
1.213
0.426
0.468
5.428
0.04664
9.77
1.445
0.4685
0.395
0.02682
0.2014
1.108
0.4257
1.295
3.179
2.082
0.01804
1.986
1.336
0.6053
8.302
1.272
0.1383
0.8275
0.01535
0.8995
0.43
15.92
1.09
0.03906
0.3618
0.01403
29.56
12.36
0.3439
0.3064
0.7237
0.00285
0.04597
0.8234
0.3371
0.1468
0.07686
0.0006763
0.0006797
3.297
0.4328
0.191
2.869
1.159
7.182
0.5002
2.254
0.4888
0.6108
0.05512
1.557
0.2445
1.173
8.949
0.4345
0.1954
0.4693
0.4792
0.6175
47.17
0.1257
0.5709
0.195
0.2098
0.233
1.291
31.16
0.1267
1.309
0.0082
1.141
13.5
0.06452
23.84
0.6488
0.3972
1.822
0.01158
0.5743
9.768
0.01898
0.9932
0.8664
0.6077
20.93
0.3326
0.2585
0.9971
4.805
0.4185
1.401
0.108
1.286
2.069
40.05
3.064
0.453
0.02192
2.303
0.1385
1.864
8.485
0.1741
0.4361
0.009839
0.3119
0.5791
0.01174
0.18
0.002436
23.1
0.1838
4.282
0.5111
0.8111
6.915
0.5893
0.8568
3.002
55.22
0.5412
0.5709
0.6978
0.5287
0.2244
0.08411
0.4711
0.01719
0.2407
0.05474
0.2152
0.01472
3.069
0.4624
0.1778
0.01533
1.146
0.104
1.119
0.1372
0.1978
1.538
0.4901
0.03536
19.04
1.524
5.33
1.008
0.4568
1.247
1.188
0.6199
0.09592
2.866
0.3402
1.021
2.571
1.077
1.012
0.1374
0.0176
53.3
0.5392
7.935
0.0249
8.413
2.719
1.4
0.5249
0.01959
0.01812
0.07261
0.1301
0.04797
0.1954
0.6114
0.3812
1.204
0.02332
0.3008
5.41
1.578
0.09159
0.421
0.2321
3.159
1.154
0.9581
1.366
0.2631
0.01543
0.6553
0.661
4.84
0.8179
0.03455
1.156
0.01443
0.8281
0.4738
3.74
0.0796
0.03718
0.2869
1.464
8.822
19.06
0.2858
0.5038
1.095
0.07679
0.01023
17.53
1.062
9.109
0.08264
6.031
0.4616
0.01395
2.185
1.949
0.2308
0.2692
0.3963
0.9439
0.6537
1.47
0.3518
8.342
0.05304
5.199
1.361
1.658
0.001159
0.001128
1.343
1.719
56.45
4.332
1.804
1.915
50.85
0.01316
0.6247
0.0189
0.01722
0.01391
0.2406
0.004439
23.22
0.02292
21.68
0.3177
2.449
1.924
1.628
0.001034
30.35
0.1311
13.22
0.3223
3.67
0.01279
1.074
0.8272
0.2985
3.365
1.327
0.3154
16.22
22.7
0.05331
0.01024
1.963
0.0006133
0.1978
0.2865
2.184
0.006614
2.522
0.02967
0.7892
0.8567
0.3244
10.78
0.00495
0.2666
1.336
0.9864
0.1104
0.3794
0.2633
0.02073
0.09323
1.03
89.58
1.033
0.7483
0.01743
3.053
0.2309
0.1337
0.0007496
0.7211
0.5441
1.508
0.01804
3.014
0.01733
1.02
0.1056
0.8672
2.315
0.5146
4.666
3.129
0.7772
0.007648
0.7287
2.205
0.7038
8.598
2.343
0.1688
0.0336
1.078
61.5
0.8186
6.544
3.324
0.001064
0.1457
0.01516
1.845
1.437
1.265
0.02736
1.884
0.02856
0.1368
0.5344
0.008425
0.1525
0.1386
2.024
0.3689
0.01469
1.214
0.03857
2.531
10.58
0.4107
0.1378
1.096
0.02346
0.6922
0.4494
11
2.402
0.4071
1.8
0.9292
1.79
18.57
0.04623
0.2016
2.306
0.03875
1.186
0.3883
0.2397
0.6347
0.01921
0.00734
1.702
0.1147
0.7656
0.4588
9.824
0.3917
4.101
0.2413
0.01854
4.312
1.082
0.1006
1.309
0.02569
0.6529
0.1442
0.2445
3.917
0.3056
2.005
0.8732
1.08
0.03596
0.6265
0.6459
1.505
7.131
0.02101
0.6273
2.66
0.01644
0.02075
0.5081
0.0008343
1.045
0.5887
0.5168
2.351
0.2488
0.2817
0.003005
0.2495
1.125
0.003277
0.3013
8.427
5.46
0.1727
0.6414
3.297
0.1796
4.287
0.1854
0.8225
5.312
0.0007999
0.001331
0.5598
0.01773
2.544
2.193
0.2865
2.632
1.299
0.0204
2.183
11.84
481.8
0.8116
0.5838
1.103
0.1754
0.2379
0.307
0.3176
1.324
0.7609
0.8797
3.3
2.746
0.3416
0.2447
0.01847
15.34
0.2098
0.4119
0.4146
0.04861
1.186
0.7985
0.1328
0.1661
3.001
2.35
0.5116
2.159
0.3008
9.975
1.801
0.02257
1.06
2.648
0.5246
0.8573
8.205
0.01731
13.54
12.27
0.9069
0.00176
0.2679
0.201
1.755
1.643
0.2471
1.98
0.003289
1.592
1.179
0.06828
0.2105
0.0139
1.414
19.96
0.7757
2.206
53.78
0.2856
4.793
0.001424
17.87
1.134
0.1732
0.03701
0.1248
0.3958
0.26
0.6895
0.001408
1.073
10.2
31.62
0.4008
0.3321
0.4318
0.7196
0.01777
0.0215
1.452
0.2325
0.01383
0.608
0.7325
1.133
0.5977
0.5971
1.926
0.4626
22.46
4.875
3.946
0.09913
0.89
9.75
0.1974
1.692
0.117
0.3804
0.3543
16.97
0.2408
0.3172
0.0008549
0.03799
2.265
0.4419
0.01995
0.04583
0.2554
2.543
0.2461
0.9528
4.023
3.886
0.01976
1.874
0.1785
0.4934
2.733
0.1655
0.04292
0.8955
0.627
0.2488
1.291
0.03503
1.903
0.1531
2.148
0.08699
1.217
2.663
0.4788
1.896
0.4628
1.327
0.7686
1.761
0.2096
0.2047
0.374
0.3224
1.759
0.5173
29.11
0.817
0.01457
0.5792
0.116
2.086
0.8098
0.003539
0.2979
0.09908
4.353
0.001016
0.4856
0.401
0.4291
0.197
0.4989
0.08223
5.272
0.1555
0.01941
1.003
0.04253
0.2525
0.03461
0.2449
0.2325
0.08387
0.1793
0.9782
1.51
0.02387
0.01662
0.1869
0.3571
3.148
0.03235
0.6857
0.4047
3.518
1.449
0.1298
1.7
0.518
0.0743
0.6816
5.078
0.1791
18.1
1.317
0.2013
10.22
0.01992
0.007718
0.8065
0.1896
47.58
0.02608
0.2549
0.9605
77.22
0.8449
2.421
0.007589
0.007576
1.302
1.088
0.4357
4.95
0.03802
0.1944
0.2444
0.1344
1.865
1.477
0.7408
0.3818
2.464
0.06519
0.7283
0.116
0.352
1.984
2.79
3.025
0.6914
18.48
0.9653
1.087
0.6838
1.568
0.7525
0.09159
2.529
1.939
0.001622
0.001608
0.7147
0.5453
3.222
1.06
5.018
1.458
0.003935
0.0205
1.605
0.0994
0.4467
9.79
3.825
0.1456
1.17
0.06109
18.24
6.526
0.001192
0.3708
0.4242
0.7547
0.3104
1.986
0.7009
1.023
0.72
0.3501
0.3648
0.2148
5.993
1.189
0.6086
0.6529
41.67
0.5164
0.9021
0.8671
3.929
1.109
0.6306
5.203
0.2034
1.813
0.016
0.2319
0.09005
0.8669
0.1603
5.038
0.696
0.1568
1.481
35.74
2.079
0.6601
0.6316
1.815
8.76
0.003484
0.3185
0.3686
18.39
0.539
0.3673
0.1144
0.2442
0.02108
0.512
38.9
0.352
1.647
0.2001
0.08624
5.928
0.1162
0.5659
0.2197
0.2741
7.079
0.1239
0.5408
0.1548
0.04823
2.965
0.4087
8.247
1.092
0.7242
0.0101
0.3485
0.5653
1.783
8.824
0.4134
0.1456
1.221
0.0185
1.712
5.388
1.449
2.326
0.7511
4.259
1.658
3.383
3.907
0.2434
2.506
2.86
0.1183
0.07325
5.129
0.0007497
0.1553
0.01937
0.0495
3.382
0.0155
0.9872
1.263
0.2014
0.5139
1.774
4.636
0.5039
8.597
0.5539
0.2433
10.44
0.4782
0.4941
0.01938
7.322
0.2676
2.085
3.938
0.0008725
1.192
1.64
0.3286
0.3083
2.124
9.166
1.175
0.345
0.5014
0.02233
0.1278
0.06798
0.3886
0.2958
0.9577
1.059
0.9327
4.114
0.2556
0.01345
1.595
0.4289
0.1821
0.507
0.5681
8.061
1.915
6.08
4.329
0.6359
0.9741
1.101
0.4758
0.5992
0.1524
7.911
1.912
0.6558
1.043
0.01051
2.288
1.549
0.2385
0.3358
4.588
1.829
4.115
0.2853
0.878
17.81
0.01275
3.342
0.1901
0.03816
1.123
3.053
0.01479
1.086
0.2835
0.9032
25.4
1.035
1.168
40.58
0.3453
0.9608
0.1914
0.1914
0.9002
0.5806
0.7908
4.642
0.6796
0.01978
4.34
2.835
0.8064
0.01482
0.0134
0.9604
0.4072
0.9175
98.7
2.941
0.006361
1.522
3.694
0.1237
2.143
1.14
0.002185
0.2799
1.191
0.1285
0.3631
0.02067
0.01008
0.01435
0.004301
0.06349
0.3649
0.6372
4.413
0.3369
0.6543
0.5251
4.875
0.00431
0.7344
0.352
1.893
3.213
1.947
0.7632
0.5542
1.238
0.7126
0.7545
0.04401
0.6691
69.9
1.689
2.735
0.8538
3.39
0.02057
7.439
0.5067
1.862
0.2625
0.0344
17.47
0.02662
0.3946
2.832
0.004794
1.403
0.4372
0.3661
0.5218
2.057
0.04802
0.9328
0.00393
1.332
0.5557
0.6227
0.2333
2.276
0.01206
0.01576
0.1724
1.097
1.199
0.08179
0.3745
1.73
0.3438
14.58
1.299
0.2131
0.1761
0.3828
0.3975
0.127
6.705
0.8427
0.02091
9.918
0.01887
0.01259
0.1457
0.001399
16.84
0.2533
1.994
0.2931
1.664
0.03322
0.08005
0.7567
1.087
0.211
0.00209
0.2467
56.95
5.233
0.09195
8.588
4.899
9.671
0.001157
0.1921
0.3395
0.1043
0.01735
0.1725
4.16
44.34
0.1945
1.66
12.44
0.02128
1.636
3.996
0.6608
0.02629
1.827
42.13
6.778
14.3
0.1726
0.6576
5.235
0.03246
0.4484
0.01614
0.3546
5.479
0.1476
1.142
13.78
0.1082
0.6813
2.205
0.1686
0.02216
1.371
1.823
0.1334
2.341
1.365
0.241
0.2044
0.7193
0.6966
0.3792
0.02156
0.9268
0.9814
1.115
0.7495
3.209
1.337
8.816
5.26
18.89
18.65
1.399
0.05318
5.546
0.02037
2.048
6.287
0.0219
125.5
0.1308
0.5806
4.822
2.526
1.152
6.548
0.7548
5.064
0.01587
113.5
1.214
0.0006611
0.2001
0.5049
35.91
4.198
6.878
0.2559
2.175
26.67
0.4049
0.1536
0.6464
8.943
0.008274
0.3693
0.5561
0.6807
0.4618
0.3509
0.1519
2.746
0.8341
1.338
6.759
0.01524
2.571
0.1641
0.6502
0.5901
0.01781
0.08156
0.581
2.078
1.899
5.143
0.000628
0.01562
0.2759
1.203
8.973
0.3009
0.1461
0.005695
0.02334
2.545
0.005707
0.77
2.167
0.09082
0.7847
0.3846
4.672
5.02
7.422
0.03984
1.494
0.4281
1.56
0.1638
0.1942
4.19
0.2178
3.899
1.227
1.856
0.7617
0.4923
14.83
0.3469
0.5406
0.6971
0.0008215
0.6168
0.06985
0.01786
0.5085
12.25
0.4827
2.79
0.43
6.506
35.6
0.1779
16.25
0.003802
0.1469
0.03442
0.04182
1.269
0.127
4.874
5.12
0.7367
1.639
0.1784
0.5541
2.207
0.6198
0.211
2.668
0.2419
13.09
1.292
0.001933
0.5021
0.5285
0.0596
0.02514
2.082
0.0307
2.227
0.8671
1.246
0.5085
2.467
0.001039
0.128
0.04667
2.56
3.714
4.447
0.6416
0.01419
3.251
0.01255
0.1311
0.5805
0.2325
7.689
0.7802
1.606
0.1775
14.33
0.5019
0.003477
0.3102
0.7191
0.04477
0.402
0.03167
1.81
1.616
4.729
0.399
0.006045
1.203
1.178
1.749
6.307
2.102
1.309
0.01743
0.1992
0.3417
0.5017
1.766
0.3298
0.08498
0.9251
0.1329
3.156
1.767
0.003887
0.1642
0.01571
0.02674
0.4498
1.698
0.9311
0.01821
0.9888
1.981
0.7928
0.06912
0.7907
0.1028
2.209
0.00264
85.08
0.6482
2.288
0.0009139
0.07409
4.931
0.0255
0.7234
1.398
2.107
0.6738
1.017
0.02694
0.967
0.7469
1.006
0.4099
0.9938
0.2827
0.3004
0.9736
8.466
0.01272
0.3585
0.6312
10.75
0.3098
0.07641
3.431
2.88
0.3303
0.4375
0.3796
6.89
0.03541
0.3504
0.9457
0.1864
0.6568
0.4586
0.002053
1.892
10
0.4025
0.632
5.991
0.8887
0.6143
0.01923
0.02476
0.0939
0.001067
40.54
0.6738
0.04471
0.01655
0.5674
12.1
0.04135
0.2669
2.272
0.7565
0.6353
1.642
15.24
1.238
3.318
1.686
4.63
2.605
0.01774
0.4769
0.5668
0.6139
0.02328
0.1269
0.5541
0.2923
0.6675
20.04
7.949
0.1031
1.114
4.612
0.1953
4.663
0.2642
0.4974
0.2922
3.641
4.526
0.01853
2.467
0.6139
0.0432
3.376
0.2709
1.046
0.07433
0.8089
1.951
0.6724
1.578
0.01401
0.0186
0.1072
0.6361
0.1716
0.3799
0.02035
6.402
0.1681
0.2926
1.302
2.361
0.1415
1.051
0.009936
4.937
1.452
21.25
1.384
0.0727
5.655
0.5877
1.382
11.51
0.138
5.269
0.1012
0.1028
0.3331
0.06927
0.01789
27.51
0.8377
2.455
1.406
0.8222
0.4774
0.001551
25.02
0.03495
1.029
0.1632
0.2135
1.121
0.3291
0.5149
0.7982
0.1583
0.9542
0.008211
0.5829
1.568
17.88
6.13
0.09511
0.3874
0.3416
0.1648
0.9746
1.015
0.05708
0.03403
0.5392
6.638
0.00308
0.01223
0.3517
1.351
0.1864
12.69
0.1397
1.815
0.5796
0.6469
0.07035
0.1054
1.815
1.9
1.225
0.3662
3.713
0.09958
2.912
0.00147
1.811
16.83
0.03557
0.5382
0.2283
2.656
2.795
1.053
0.08328
0.01035
1.027
0.1661
0.0168
2.069
3.332
0.2086
0.1567
0.0808
0.06903
0.02307
4.124
0.4044
0.0202
7.982
1.087
1.154
0.02259
0.03844
0.01584
0.04136
0.5783
0.1698
1.561
9.695
4.461
0.9949
4.219
4.571
0.01799
11.45
1.18
1.382
0.1577
0.1634
0.4396
2.152
2.731
5.34
0.7074
0.03463
0.3894
2.764
0.577
0.8951
0.1254
0.6154
0.1615
2.193
0.001197
0.5256
0.6663
0.545
0.45
2.83
12.76
4.352
0.01038
60.72
0.5507
0.1716
4.591
0.0291
1.135
0.857
0.006672
2.565
3.777
0.2052
0.5392
0.148
3.219
0.01731
0.3229
4.823
0.2497
0.01655
2.318
0.3002
0.02968
0.3033
0.1721
0.8174
5.821
1.593
1.138
0.2505
1.126
1.071
0.01923
0.03303
3.311
0.5955
0.718
0.06825
6.456
0.8779
0.3892
0.6474
0.3732
1.371
0.03424
0.05878
0.7868
0.7009
0.0538
0.8663
2.197
0.1688
1.15
1.397
0.1846
0.05263
0.1596
0.4033
0.7493
0.5902
0.06472
1.11
0.003096
0.3145
0.495
0.2022
1.576
0.5369
11.57
0.2958
0.3646
0.01242
0.007275
0.3094
0.3665
2.453
5.849
0.5121
1.659
7.959
0.8316
0.4544
1.139
1.431
3.858
0.9703
0.03946
2.78
0.3851
1.881
0.3141
0.2274
0.3272
0.9241
0.03874
0.607
0.1082
0.02206
0.08456
2.782
0.01474
16.35
2.084
0.9118
0.0178
0.7475
1.035
0.001008
0.6939
1.069
1.489
0.656
1.247
0.03388
1.682
0.1178
0.2004
1.454
6.4
0.4991
1.512
17.5
0.006798
0.02524
0.7892
1.377
2.53
0.2184
1.713
1.868
0.2719
0.2153
0.01768
5.942
2.166
0.1294
0.2859
0.01651
1.398
0.08491
1.021
1.472
0.6074
0.01244
10.26
0.8501
0.01932
0.7578
1.56
0.08185
0.01101
0.01186
1.651
22.57
0.4462
0.1308
0.4184
0.07727
0.8354
0.5828
0.01343
0.4724
0.4222
8.551
8.575
1.371
0.01215
1.422
0.6748
1.234
1.057
5.232
0.7454
0.834
0.8801
0.6728
1.624
2.503
0.1086
0.001092
0.1272
0.03395
10.43
0.01738
0.2177
1.429
0.4885
0.2159
6.414
0.7879
18.78
0.229
14.31
0.5145
0.2399
2.361
8.247
0.2808
6.402
11.58
0.02175
6.483
6.002
3.327
2.66
0.8786
0.1768
0.5945
0.5652
0.5408
0.04687
0.4063
0.2353
0.4634
0.3128
0.3997
0.5602
0.1935
0.1179
5.158
0.8182
29.73
0.5947
1.435
0.006043
1.773
0.6818
2.316
0.2677
4.178
1.428
1.076
0.1072
4.685
0.1061
0.4384
0.4883
0.05614
0.2243
0.3272
0.4837
0.5407
0.6058
0.2974
0.9426
0.3092
4.343
0.4869
7.044
0.05007
0.3136
0.536
0.1903
0.04211
6.898
0.02008
0.01452
0.02114
0.3393
0.7349
1.008
0.06878
0.2372
0.3257
0.05769
8.493
3.413
5.016
0.9226
0.06638
1.645
21.17
0.06569
1.123
0.03231
0.6624
0.1483
0.804
0.1859
0.01097
0.008787
0.9269
0.1701
0.04808
12.61
0.816
0.05486
0.02652
0.4851
0.03286
2.628
2.999
0.004824
0.6769
0.7685
4.633
2.687
13.47
1.615
0.1116
0.412
1.052
0.2376
1.575
1.095
0.7724
1.935
0.4565
17.83
0.01918
1.143
3.008
11.1
0.04004
0.3023
0.02234
0.2993
0.2594
1.18
0.8553
1.072
5.853
0.1465
1.993
10.37
0.9365
3.222
1.648
0.3789
0.2722
0.6169
1.598
0.2758
2.128
0.00298
5.814
4.338
2.054
0.3953
0.5773
4.58
1.312
0.2542
0.04689
70.66
0.4727
0.0007701
0.001381
0.00304
1.172
7.65
0.2095
24.34
0.5464
0.001085
1.033
0.6506
0.4119
1.381
63.46
3.146
0.4422
6.65
0.3119
0.5189
8.625
0.3551
0.4226
0.1869
2.075
0.2919
0.252
0.3434
1.511
0.2063
0.7704
1.143
0.2039
5.294
0.8648
0.06156
5.989
0.278
8.375
0.9996
0.008236
0.1128
1.725
0.02281
0.3107
5.5
3.601
0.1838
0.01211
0.1454
0.2926
0.3035
0.05134
1.371
0.009865
1.419
0.4906
0.6912
0.7829
1.188
1.157
1.788
5.812
0.5187
0.559
0.02787
13.47
0.04348
0.001375
0.7444
0.01815
2.779
0.1888
14.67
0.04482
1.393
0.5525
1.339
1.351
0.09911
0.4371
0.307
1.509
2.367
0.5827
0.07083
0.01616
0.628
1.564
0.09279
0.3888
0.9941
1.611
1.372
0.007698
0.3736
1.631
6.326
0.6955
0.4375
1.364
0.9906
0.01993
0.2939
25.5
1.996
0.04671
0.155
0.9691
0.1026
0.6785
2.273
0.7408
0.04695
0.05297
0.1428
0.01393
0.01313
0.02444
0.1578
16.17
2.021
0.1434
0.738
0.2471
0.08176
0.1591
0.2735
0.8942
0.04808
0.03337
1.936
0.09431
0.02179
1.141
0.653
0.1385
5.588
5.32
0.02117
0.5071
0.3205
0.8974
0.5541
1.575
0.1633
0.8386
4.95
0.5215
5.534
0.1732
2.311
0.408
0.9403
0.3581
10.26
0.06483
17.51
0.8519
0.0222
0.02956
0.004155
0.5963
0.3414
3.425
3.324
4.589
0.08052
0.01054
1.43
1.477
0.1828
0.01721
1.739
0.2023
2.008
0.6492
10.63
2.573
1.675
1.68
0.9515
0.1028
2.965
0.7679
0.373
0.3957
0.05798
0.01599
0.2801
0.2807
1.834
7.016
0.4518
0.0303
1.515
0.0792
0.1349
0.01775
4.249
0.817
1.728
1.379
0.5195
0.2995
0.3656
0.2471
0.2376
0.7592
0.1893
0.1378
0.04201
0.4935
11.47
0.1239
0.4663
19.14
0.005863
0.02121
0.2269
0.02472
0.05712
3.399
0.06529
0.06519
0.7288
0.01295
0.364
3.082
1.358
0.1789
0.1496
0.03384
0.05188
0.3265
0.9037
1.931
7.339
0.3449
0.004786
0.1764
0.9172
2.383
0.08307
0.04714
0.04248
3.214
0.12
0.07078
0.4784
1.09
0.07045
0.02684
1.159
0.01189
0.01886
0.01128
8.715
0.05968
0.9272
0.1736
0.02648
0.06208
0.1782
0.281
1.975
0.2833
0.5391
0.3884
0.106
10.48
0.3416
1.489
0.03742
0.8057
0.6113
0.7059
0.8761
0.2057
0.6613
0.362
0.1555
1.823
0.06592
134.4
0.6724
11.21
0.103
3.327
0.01978
0.04641
0.4003
2.295
0.2193
0.8278
0.1535
0.001437
17.79
0.001423
1.31
24.99
0.1461
0.2857
0.00206
5.747
0.01777
0.2235
0.2817
0.6048
0.7336
0.0165
24.32
0.03052
0.6539
1.591
0.6984
0.9878
14.72
0.5668
10.21
0.5952
0.01432
0.2593
1.623
0.02041
0.08351
2.958
0.1992
20.29
2.175
4.288
0.02649
0.4766
0.02554
0.01606
0.02545
3.402
0.1474
0.2067
0.001145
0.3732
0.2302
1.18
1
12.12
0.01772
1.106
3.618
0.7292
0.1336
0.2821
0.03331
0.5519
0.00584
0.398
0.9814
0.01642
0.9342
21.51
0.7178
2.373
0.3132
4.7
3.07
0.511
2.038
6.82
0.7121
5.716
0.8465
0.3101
1.152
0.4635
0.5001
1.278
1.458
0.003764
0.7782
0.002586
2.303
10.83
0.6507
1.645
10.62
0.2435
0.7106
0.00124
1.023
0.3948
22.09
0.2038
0.01159
0.2819
0.6094
0.8164
0.001197
0.7244
0.824
0.3436
0.2725
3.979
2.103
15.39
0.618
1.095
0.63
0.2673
0.9538
0.02073
3.512
1.37
0.01836
0.4095
0.4059
0.6989
1.521
2.26
0.05826
4.312
4.326
0.08118
1.033
3.67
7.538
1.814
0.00478
0.001881
0.8272
0.6473
0.5383
0.01227
3.38
0.6921
2.723
6.394
0.007751
0.9479
2.825
0.3668
20.52
0.7186
0.869
0.6982
0.3089
0.6544
0.01831
0.4558
14.21
0.5825
1.05
0.2196
0.2898
0.00965
0.002929
0.7137
0.5709
0.3156
1.208
0.4271
0.01554
1.784
1.359
0.1681
2.155
30.45
2.734
0.001144
0.1478
0.02057
0.8118
1.593
1.403
3.293
1.826
2.355
0.02847
1.172
0.03183
0.167
2.462
0.3194
5.009
0.6629
24.96
0.04238
1.052
2.342
0.01754
0.7359
0.4935
4.403
0.1796
0.03782
0.01597
0.003865
0.4071
0.01534
0.3036
2.998
0.2403
0.3002
0.7322
0.04914
0.6108
0.1956
0.003606
2.502
1.105
4.786
0.7132
0.01707
1.865
2.659
0.02079
3.207
0.1933
1.76
0.4782
12.82
0.3476
3.177
0.2232
0.2076
0.04183
0.232
0.04363
0.06426
3.387
0.6286
0.6407
0.505
0.4633
0.7327
0.01902
0.06055
0.07264
0.5054
0.3452
0.8858
11.17
0.1233
0.02313
2.213
0.1273
2.81
0.01165
0.9388
1.739
0.2578
0.2137
1.828
1.09
0.973
0.3824
0.7654
0.01624
1.548
0.252
0.6162
1.332
8.978
2.105
0.07421
0.4169
0.368
0.2633
41.78
0.01598
1.363
0.5086
0.3466
0.4295
0.3844
31.5
0.4475
5.578
1.583
19.84
0.365
0.2539
5.665
1.295
0.02312
1.131
0.2609
0.9697
0.898
0.25
3.363
0.001287
1.013
3.512
2.123
0.9221
3.075
2.901
0.02046
1.266
1.041
0.8035
0.1368
0.05042
1.168
0.4162
0.8957
2.761
0.01016
0.8376
0.2159
0.2794
0.4815
1.385
1.716
0.3455
1.947
2.406
0.006701
0.5537
0.3612
10.03
1.746
5.444
0.4602
0.413
0.3304
0.1402
0.8349
1.039
7.051
2.657
4.752
28.62
0.4031
0.1168
30.36
1.794
2.556
0.001166
3.024
8.064
1.649
0.5253
0.01558
1.658
0.02492
0.3159
1.772
0.4468
0.9167
0.2285
2.099
0.3305
9.404
0.2848
1.248
1.066
4.497
1.561
1.18
0.367
0.2037
8.699
0.2248
9.167
0.5172
0.3745
0.02831
8.752
0.1819
0.0571
0.0187
0.3803
0.7484
0.0305
0.006631
0.01776
1.037
2.842
23.48
0.08113
0.001948
0.5937
0.00634
0.004802
1.393
0.0007562
0.6885
8.088
0.05113
1.346
0.5895
1.215
0.1487
0.6773
0.06568
0.7915
0.2661
14.61
0.3756
0.8791
1.202
2.321
0.1032
0.00195
0.1771
2.393
0.01908
0.1319
0.6897
2.231
9.149
0.837
0.5191
2.083
0.01543
0.6242
1.959
1.011
0.6236
0.4782
0.0006105
0.4917
0.3857
1.556
0.7856
0.9123
0.001487
2.356
0.8625
0.001271
0.3065
0.0005834
1.051
0.01832
15.53
11.4
0.02611
0.9736
0.9047
0.1099
7.735
1.563
0.01577
2.307
0.4841
0.9035
3
0.04199
0.08808
7.781
0.5352
0.881
0.1709
0.4029
0.2225
0.3223
0.8095
0.001193
0.3014
1.259
0.4748
0.3435
0.2533
1.525
0.3394
0.4832
2.343
0.4629
0.2571
2.765
0.03123
0.2051
4.028
0.2664
0.04387
0.2413
0.5704
1.344
0.7893
0.6613
5.905
0.2422
0.9918
0.553
0.003947
0.4103
2.357
0.2171
1.883
0.04061
1.435
0.1692
0.3654
0.08911
0.1822
3.209
1.371
0.231
0.6376
7.573
0.5491
0.008653
0.01417
0.2641
2.472
2.036
0.3748
0.4585
0.2022
0.9663
0.1138
0.1689
18.7
0.1776
0.1705
6.918
0.9346
0.3327
0.2715
0.06008
110.6
0.01528
0.3852
0.9396
0.6358
0.5998
0.7097
3.939
0.209
0.8346
0.09922
66.26
1.609
0.2437
56.79
5.129
1.852
1.178
0.00301
0.164
0.09152
3.609
0.04084
2.223
18.97
0.07174
1.038
0.3199
0.3549
6.428
1.619
9.068
5.214
0.9239
0.007539
0.007606
0.02473
0.9672
12.82
0.261
0.0161
0.07984
5.799
0.7181
9.774
0.5295
0.0146
76.84
0.05108
0.2199
0.2055
0.0356
0.3606
0.1891
0.2244
0.06525
3.239
0.2695
0.639
0.6637
52.78
0.2367
1.942
1.007
0.1877
0.09465
44.44
1.943
5.4
0.5664
1.213
3.563
3.369
0.1024
0.34
1.162
0.6913
2.43
0.002191
11.8
0.351
5.868
0.2731
0.03553
0.06148
0.01489
1.141
0.4058
0.5611
0.8594
0.271
4.099
0.7552
0.293
0.1571
1.518
0.12
1.18
1.546
1.298
0.1953
0.06505
0.3386
0.3118
0.6817
0.1414
0.8842
1.467
5.761
0.3663
0.3646
2.685
0.3923
2.717
0.3732
0.7982
0.1103
6.055
2.622
1.846
0.3629
3.785
0.06247
2.662
1.976
0.6235
0.4422
0.5624
1.018
1.325
0.3175
0.5475
0.5169
2.652
26.41
0.002998
0.03236
0.01247
0.7136
1.072
0.4574
5.206
2.788
4.174
1.92
0.7638
2.542
5.202
0.2847
1.622
2.135
0.7404
8.283
0.01727
9.127
3.155
3.305
0.08594
3.013
0.5308
0.9872
1.916
2.16
0.01556
0.07579
1.025
3.468
0.005176
0.7214
0.1105
0.4975
231.7
0.001282
0.2342
0.1919
1.107
1.352
0.2051
0.6137
1.376
1.023
3.167
1.242
0.04419
0.2342
22.93
0.02163
0.0173
8.561
4.053
0.661
1.023
0.0671
0.6043
1.508
1.009
2.208
0.8787
0.03661
0.816
0.1946
0.1693
0.01125
0.9625
0.006337
50.33
0.8251
1.177
0.1508
10.41
0.01347
1.879
0.005141
0.1048
4.388
0.2511
8.952
0.1799
0.07008
0.7066
0.8537
0.3118
0.5641
0.364
1.56
2.742
0.9464
1.73
2.767
5.73
1.296
0.5777
1.498
5.357
1.084
0.4464
0.1714
0.00856
29.32
0.5266
0.7949
9.304
0.01702
2.83
0.1546
0.008269
0.2566
61.72
0.1452
1.546
17.99
0.06423
1.33
1.026
0.2683
0.177
0.555
16.7
2.911
0.02228
9.486
21.96
0.07808
0.01636
1.376
2.182
0.9822
2.247
0.8465
3.731
0.01738
1.074
0.1588
3.867
2.08
9.593
0.008294
0.008379
0.1669
1.192
0.03475
0.266
0.2475
3.656
0.3421
0.4819
1.785
0.08801
0.01846
9.565
4.078
4.344
2.649
0.04209
0.8461
0.002814
0.7631
9.759
1.129
1.541
4.935
1.544
1.626
1.235
0.6211
0.6076
0.02158
0.01718
0.02
0.2135
1.247
1.127
6.388
1.206
0.018
0.9357
1.153
2.851
6.632
0.6244
1.121
2.623
2.669
0.08268
0.3919
0.2478
1.665
0.08015
2.555
0.306
0.4974
0.8394
2.907
0.004525
0.0152
4.911
0.3243
0.1941
0.3917
12.26
0.542
0.004913
0.5686
0.4791
0.8877
0.5088
1.685
0.9717
1.14
5.013
0.1031
0.0005935
0.8436
0.06044
0.116
0.0704
8.844
0.3249
2.223
0.3997
0.4723
0.9539
0.02538
2.014
2.042
0.4496
0.3961
1.857
18.6
0.03372
0.01662
2.403
0.4777
0.8577
0.3056
0.1307
1.543
0.04945
0.02923
0.7545
1.877
0.02006
1.307
1.157
0.01324
5.357
0.03731
0.461
0.636
2.301
0.2227
12.63
2.034
0.4524
0.03715
0.01546
0.313
0.4781
0.5162
0.2424
0.007333
0.007095
0.02052
0.6793
0.9026
2.15
0.0007059
2.078
0.3668
1.643
0.631
3.689
0.1448
0.03391
3.245
0.0177
6.059
0.8753
0.03173
0.8559
0.551
1.449
0.9726
0.6684
0.2624
0.3853
0.001573
13.32
1.358
9.198
0.1457
0.5462
0.01554
7.653
0.01432
0.8139
2.663
0.01585
0.172
0.6263
1.124
0.001092
0.2349
43.87
0.3252
0.01849
0.4225
2.964
0.3078
1.208
0.2315
0.5207
3.412
0.2585
0.004905
0.01742
37.4
0.4586
1.985
0.1403
0.6264
0.007329
0.04386
0.3815
44.69