/*--------------------------------*- C++ -*----------------------------------*\
  =========                 |
  \\      /  F ield         | OpenFOAM: The Open Source CFD Toolbox
   \\    /   O peration     | Website:  https://openfoam.org
    \\  /    A nd           | Version:  8
     \\/     M anipulation  |
\*---------------------------------------------------------------------------*/
FoamFile
{
    version     2.0;
    format      ascii;
    class       volScalarField;
    location    "10";
    object      k;
}
// * * * * * * * * * * * * * * * * * * * * * * * * * * * * * * * * * * * * * //

dimensions      [0 2 -2 0 0 0 0];

internalField   nonuniform List<scalar> 
127143
(
2.32e-05
8.663e-06
7.181e-06
1.481e-05
0.0006412
1.532e-05
0.002239
0.001235
0.0008654
0.001368
0.002316
0.001212
1.362e-05
1.817e-05
0.3094
0.003739
2.943e-05
0.1939
0.1686
0.009048
0.1442
0.003047
0.2984
0.0898
0.002959
0.05186
0.04917
0.04527
0.07288
0.2009
0.07501
0.05043
0.06573
0.04502
0.3382
0.06436
0.08893
0.235
0.09781
0.03871
0.1687
0.4339
0.4295
4.477e-05
0.1916
0.04642
0.07407
0.1139
0.1159
0.09299
0.005108
0.3133
0.2023
0.3159
0.1727
0.1153
0.169
0.203
0.2637
0.3172
0.4293
0.154
0.1177
0.8126
0.1139
0.3039
0.3266
0.1147
0.1155
0.05997
0.08371
0.05946
0.1505
0.2655
0.4172
0.05505
0.3207
0.0978
0.1166
0.9638
0.06992
0.009795
0.07146
0.04813
0.1298
0.1023
0.1066
0.05885
0.3069
0.3513
0.2791
0.2593
0.3887
0.145
0.126
0.1981
0.4308
0.06511
0.1169
0.327
0.9697
0.1188
0.2969
0.1763
0.1039
0.1154
0.1409
0.06028
0.3308
0.3154
0.3195
0.06085
0.1365
0.5462
0.3632
0.2103
0.3238
0.4172
0.3209
0.0008592
0.3087
0.06982
0.2265
0.2296
0.07347
0.03356
0.1439
0.301
0.1881
0.1203
0.09542
0.1131
0.1336
0.09864
0.0001841
0.0967
0.2782
0.16
0.108
0.2926
0.3021
0.3275
0.2033
0.1926
0.2037
0.3803
0.132
0.8583
0.1115
0.2523
0.1623
0.1281
0.2444
0.3482
0.3421
0.1306
0.2028
0.129
0.1147
0.06144
0.08357
0.004769
0.2773
0.09534
0.08196
0.1215
0.08308
0.3629
0.2038
0.3256
0.04549
0.192
0.2078
0.2172
0.1225
0.09606
0.4083
0.188
0.09711
0.245
0.2178
0.2583
0.09708
0.0965
0.1231
0.1556
0.3715
0.5482
0.09294
0.2721
0.1796
0.1562
0.2792
0.522
0.0001429
0.1545
0.8329
0.8329
0.003043
0.3416
0.3268
0.3246
0.2135
0.09115
4.054e-05
0.1057
0.2988
0.1793
0.2054
0.3649
0.2632
0.1209
0.3119
0.2069
0.08508
0.002744
0.0255
0.1853
0.1177
0.2983
0.4146
0.4364
0.1261
0.2108
0.05678
0.04238
0.09653
0.2373
0.05844
0.1288
0.1429
0.261
0.1528
0.002299
0.1433
0.2553
0.09548
9.623e-05
0.3259
0.1862
0.1585
0.1392
0.1045
0.1311
0.2428
0.0009093
0.1418
0.04744
0.0005961
0.08159
0.3926
0.05064
0.1945
0.1688
0.1299
0.3223
0.3004
0.2417
0.2255
0.3627
0.1605
0.2863
0.2616
0.3278
0.2321
0.1316
0.06676
0.3199
0.3993
0.2834
0.08081
0.1211
0.1216
0.1847
0.1268
0.1817
0.1372
0.1203
0.1459
0.2473
0.1085
0.1935
0.1781
0.3799
0.3609
0.0001597
0.09926
0.3599
0.1129
0.2421
0.2464
0.2768
0.2567
0.2102
0.2923
0.3165
0.07814
0.07185
0.1045
0.2856
0.07138
0.2882
0.3415
0.213
0.05389
0.3165
0.1806
0.3119
0.1947
0.1477
0.1356
0.04781
0.1068
0.1109
0.355
0.3417
0.2267
0.06877
0.2811
0.1882
0.3002
0.07974
0.3017
0.1937
0.338
0.2282
0.3279
0.09369
0.08071
0.4341
0.1377
0.3608
0.3371
0.7798
0.7797
0.3481
0.3267
0.2093
0.1375
0.09859
0.2925
0.1848
0.2092
0.1846
0.4874
0.1116
0.08789
0.1389
0.07703
0.1888
0.07883
0.1808
0.09372
0.1829
0.3282
0.08937
0.1677
0.3779
0.2189
0.08057
0.1292
0.1203
0.2216
0.0924
0.09434
0.5164
0.3427
0.1739
0.08337
0.1466
0.4508
0.301
0.06018
0.0913
0.2736
0.2979
0.08362
0.004264
0.1184
0.1496
0.2228
0.04079
0.08364
0.2876
0.3241
0.01285
0.3358
0.0415
0.1526
0.2218
0.2718
0.3602
0.05276
0.1322
0.09226
0.07478
0.3585
0.07811
0.3282
0.2873
0.04635
0.4421
0.1541
0.09845
0.3356
0.1593
0.107
0.1342
0.9862
0.1
0.2781
0.08242
0.3023
0.1187
0.2319
0.1278
0.118
0.07369
0.2552
0.1897
0.08459
0.01288
0.08081
0.08282
0.1275
0.3666
0.4254
0.3229
0.1453
0.3043
0.5506
0.08046
0.09091
0.2494
0.2728
0.5138
0.1676
0.09537
0.313
0.2938
0.3806
0.09567
0.2767
0.32
0.3241
0.06751
0.3426
0.2782
0.1743
0.1211
0.1329
0.08886
0.163
0.08247
0.3422
0.09448
0.07059
0.1582
0.098
0.2639
0.1359
0.2117
0.2007
0.5423
0.2086
0.119
0.3281
0.1726
0.07611
0.399
0.1253
0.2677
0.2299
0.2286
0.2983
0.1611
0.3725
0.27
0.05273
0.2244
0.08136
0.289
0.1245
0.1079
0.2919
0.2745
0.2316
0.3134
0.06705
0.3253
0.3659
0.1094
0.1977
0.375
0.0001511
0.08983
0.5226
0.2361
0.498
0.3282
0.07955
0.3276
0.09781
0.1569
4.468e-05
0.001291
0.0006956
0.6802
0.09035
0.2568
0.357
0.1349
0.2174
0.08883
0.1867
0.1315
0.08788
0.1257
0.03183
0.1199
0.1168
0.001617
0.1817
0.07096
0.0489
0.2671
0.1642
0.2171
0.2033
0.2265
0.06144
0.192
0.05191
0.4664
0.1718
0.261
0.03686
0.2917
0.1862
0.2002
0.3229
0.06625
0.2651
0.4255
0.287
0.2572
0.08118
0.09357
0.07325
0.04759
0.1541
0.2777
0.1966
0.08931
0.08238
0.2914
0.04541
0.1041
0.07895
0.1351
0.1075
0.7619
0.6738
0.3597
0.0862
0.5041
0.3501
0.08
0.2774
0.1671
0.1061
0.2909
0.0398
0.01696
0.2306
0.3224
0.4533
0.05116
0.1223
0.1781
0.1384
0.05831
0.139
0.09327
0.1483
0.06116
0.3491
0.109
0.1036
0.2158
0.07406
0.06372
0.1609
0.02009
0.1647
0.1434
0.02611
0.3757
0.1603
0.3539
0.1019
0.2266
0.3811
0.07472
0.09634
0.05229
0.15
0.2105
0.08095
0.08531
0.4286
0.1004
0.3981
0.09076
0.08957
0.2163
0.06131
0.1406
0.1045
0.3664
0.4927
0.3081
0.2051
0.5022
0.3604
0.198
0.1918
0.133
0.1344
0.2151
0.06086
0.1189
0.07931
0.06968
0.1395
0.3212
0.1322
0.2754
0.1858
0.07368
0.1148
0.1342
0.177
0.1878
0.2318
0.2699
0.2699
0.07995
0.2309
0.1246
0.2315
0.009603
0.3087
0.0591
0.08632
0.15
0.3242
0.1069
0.2708
0.2142
0.06148
0.22
0.1899
0.3479
5.754e-05
0.04513
0.09888
0.09426
0.09991
0.14
0.0674
0.118
0.316
0.1866
0.07361
0.1555
0.2501
0.1232
0.3205
0.4253
0.4737
0.2421
0.007593
0.2348
0.1086
0.1521
0.2679
0.1946
0.3248
0.06184
0.3856
0.1363
0.3139
0.2023
0.3972
0.3655
0.08859
0.4222
0.1202
0.1397
0.1765
0.2651
0.2235
0.05899
0.06896
0.2972
0.1231
0.0002096
0.1598
0.2356
0.1202
0.07106
0.1297
0.09521
0.01001
0.1897
0.1917
0.1859
0.2709
0.1173
0.223
0.1601
0.1367
0.1245
0.1495
0.1452
0.2604
3.323e-05
0.3206
0.3254
0.1611
0.2365
0.1114
0.3043
0.08765
0.1822
0.1068
0.05696
0.009176
0.08337
0.05967
0.06255
0.1144
0.08837
0.109
0.1621
0.06467
0.1161
0.05239
0.06743
0.1682
0.3388
0.2099
0.4226
0.3017
0.1816
0.243
0.1428
0.09026
0.2905
0.1584
0.04556
0.07045
0.2813
0.1157
0.1471
0.04326
0.08611
0.3118
0.136
0.04995
0.3371
0.09044
0.06173
0.2225
0.003047
0.2237
0.05332
0.1523
0.1079
0.2292
0.6903
3.573e-05
0.09897
0.1525
0.03783
0.1037
0.06862
0.07989
0.08705
0.4706
0.184
0.178
0.0571
0.07651
0.3669
0.1382
0.2234
0.366
0.1341
0.09388
0.3148
0.3048
0.2687
0.1515
0.1394
0.06879
0.1092
0.006289
0.1742
0.3808
0.2518
0.1047
0.08634
0.07713
0.05903
0.3646
0.1025
0.2677
0.1949
0.05685
0.2601
0.2654
0.1549
0.1368
0.04877
0.1475
0.1109
0.1337
0.4138
0.07787
0.6265
0.2517
0.1807
0.1354
0.2473
0.03104
0.2825
0.07041
0.3485
0.0633
0.06458
0.068
0.2747
0.3132
0.2404
0.321
0.004552
0.3946
0.2396
0.1384
0.2405
0.07288
0.01733
0.1027
0.2513
0.05069
0.05854
0.01605
0.271
0.00498
0.2375
0.007813
0.1088
0.04154
0.1855
0.016
0.3226
0.1309
0.07605
0.07533
0.1924
0.3121
0.1657
0.1611
0.5438
0.1908
0.2778
0.3263
0.1584
0.2707
0.203
0.09041
0.2783
0.07478
0.001613
0.1048
0.1914
0.3133
0.2017
0.06222
0.3466
0.1995
0.1245
0.2196
0.07718
0.1031
0.16
0.3517
0.1825
0.2142
0.003946
0.269
0.001613
0.1297
0.2634
0.1646
0.02144
0.1539
0.08478
0.1156
0.3875
0.08463
0.3042
0.002347
0.2237
0.1929
0.149
0.2008
0.0143
0.001737
0.0922
0.323
0.4304
0.1883
0.3109
0.08121
0.0795
0.5477
0.1059
0.1232
0.3216
0.1044
0.2918
0.07516
0.3261
0.113
0.04305
0.1834
0.08566
0.1213
0.3947
0.3256
0.04345
0.3041
0.07343
0.1024
0.05854
0.1252
0.2394
0.2245
0.1597
0.00583
0.2005
0.07184
0.06015
0.1631
0.129
0.5265
0.06999
0.03423
0.004281
0.1197
0.3065
0.2545
0.1213
0.1023
0.2269
1.108
0.2814
0.132
0.1925
0.0621
0.2363
0.06716
0.468
0.9888
0.2579
0.1859
0.06339
0.05447
0.08845
0.3658
0.2387
0.08871
0.09084
0.1351
0.1451
0.2612
0.1134
0.0833
0.1044
0.2418
0.01066
0.0196
0.1483
0.1545
0.3097
0.348
0.005394
0.007087
0.108
1.015
0.1919
0.137
0.001991
0.07066
0.1327
0.1645
0.05845
0.2503
0.2216
0.2796
0.05506
0.1288
0.06708
0.2204
0.03263
0.09663
0.1305
0.006354
0.08089
0.4331
0.1266
0.103
0.3286
0.1585
0.2926
0.01596
0.3283
0.07809
0.4189
0.3632
0.2928
0.2024
0.1701
0.1033
0.09924
0.0584
0.1376
0.1626
0.26
0.1863
0.1316
0.06763
0.06347
0.02687
0.05594
0.002832
0.147
0.1373
0.1752
0.08739
0.0463
0.4174
0.1899
0.2026
0.09765
0.08165
0.07275
0.05524
0.2424
0.1459
0.1172
0.1773
0.1786
0.2021
0.06753
0.1753
0.1176
0.07296
0.1143
0.06391
0.1268
0.1372
0.1009
0.2876
0.1071
0.1164
1.215
0.2296
0.07197
0.2818
0.416
0.2104
0.09848
0.2617
0.8015
0.0992
0.07997
0.2878
0.3955
0.3176
0.1309
0.08498
0.188
0.281
0.0484
0.005186
0.1066
0.1119
0.1327
0.01592
0.05977
0.1062
0.388
0.1048
0.3145
0.1247
0.1761
0.04768
0.04233
0.5467
0.0007019
0.0436
0.0537
0.124
0.2516
0.1659
0.1926
0.05052
0.1376
0.3336
0.000546
0.09569
0.08757
0.09144
0.1183
0.2797
0.09604
0.02616
0.1425
0.08431
0.2469
0.08827
0.08942
0.22
0.00181
0.2438
0.1508
0.2622
0.09184
0.8023
0.3694
0.2282
0.01348
0.1114
0.2048
0.006084
0.04919
0.4071
0.1323
0.1279
0.2437
0.003201
0.2557
0.08473
0.0001092
0.2036
0.01776
0.1327
0.1297
0.06566
0.1044
0.06106
0.2849
0.1179
0.2459
0.2235
0.2832
0.08517
0.2144
0.1098
0.1367
0.01551
0.1177
0.2422
0.126
0.4429
0.3207
0.1782
0.001844
0.3303
0.08255
0.03841
0.07956
0.09134
0.4158
0.1394
0.1749
0.3122
0.03066
0.09854
0.05481
0.3218
0.1086
0.04646
0.1379
0.007398
0.2327
0.1844
0.05504
0.3075
0.05197
0.08403
0.1053
0.1211
0.2187
0.1531
0.2738
0.007168
0.00948
0.09547
0.2418
0.2214
0.116
0.4828
0.06446
0.1163
0.1618
0.2974
0.05005
0.05005
0.4941
0.1143
0.1909
0.1912
0.102
0.005366
0.2669
0.0656
0.0807
0.07093
0.5413
0.07589
0.1376
0.1802
0.005393
0.2593
0.168
0.0848
0.1215
0.1578
0.009113
0.2234
0.1183
0.1334
0.1706
0.1656
0.1167
0.007255
0.2975
0.05243
0.2211
0.08869
0.3385
0.5936
0.3696
0.1653
0.08795
0.09936
0.2668
0.2855
0.00186
0.3474
0.09323
0.05829
0.1169
0.141
0.2398
0.1742
0.05712
0.07733
0.08996
0.1263
0.3623
0.1685
0.0165
0.2449
0.2581
0.09415
0.3731
0.2296
0.1834
0.06242
0.4469
0.1468
0.09167
0.2275
0.1961
0.0704
0.2157
0.1401
0.1083
0.2495
0.1388
0.01621
0.07527
0.2146
0.2156
0.1384
0.09928
0.1453
0.006484
0.101
0.07897
0.2179
0.1493
0.1224
0.758
0.08871
0.3273
0.139
0.6037
0.1316
0.3015
0.2311
0.08179
1.099
0.31
0.06662
0.2798
0.05334
0.2953
1.178
0.2881
0.1212
0.3326
0.0004475
0.0303
0.002172
0.1174
0.1375
0.09714
0.1303
0.09798
0.2602
0.03626
0.1109
0.04247
0.1179
0.1673
0.2193
0.1697
0.3309
0.00631
0.113
0.0898
0.4003
0.005559
0.1902
0.09836
0.07919
0.2891
0.2762
0.2363
0.227
0.1867
0.1461
0.1342
0.242
0.3897
0.1923
0.187
0.09843
0.3184
0.1916
0.1266
0.1641
0.1058
0.06208
0.1545
0.09715
0.1214
0.3084
0.08265
0.07821
0.02067
0.207
0.2801
0.1774
0.1778
0.1143
0.09223
0.1016
0.2167
0.4834
0.1072
0.221
0.004127
0.1227
0.2252
0.09981
0.0454
0.2723
0.1973
0.3996
0.07873
0.004299
0.3267
0.001926
0.0834
0.295
0.1756
0.04439
0.157
0.3721
0.1649
0.05734
0.1442
0.2103
0.1348
0.169
0.3079
0.2428
0.05286
0.07058
0.07162
0.07065
0.08564
0.3688
0.01842
0.3836
0.06657
0.06291
0.005989
0.1751
0.06596
0.3155
0.3299
0.2941
0.1175
0.1511
0.009809
0.3823
0.1567
0.2881
0.2849
0.2984
0.07177
0.0688
0.1337
0.2801
0.4848
0.1259
0.01732
0.2454
0.1225
0.05346
0.13
0.0282
0.04854
0.1072
0.3892
0.3733
0.2862
0.2167
0.01754
0.05094
1.179
0.2721
0.02392
0.1786
0.04528
0.4387
0.1834
0.2431
0.1538
0.5181
0.1651
0.1119
0.07577
0.1018
0.3371
0.1695
0.3103
0.3637
0.7493
0.1892
0.01265
0.2127
0.1339
0.3049
0.00593
0.2402
0.3213
0.05574
0.2755
0.07815
0.07477
0.3034
0.1991
0.3258
0.1811
0.8569
0.4428
0.2011
0.1019
0.5523
0.09958
0.09104
0.2135
0.2244
0.05031
0.06088
0.006219
0.06823
0.1766
0.2878
0.2814
0.1549
0.214
0.2797
0.011
0.06941
0.3011
0.3085
0.2047
0.1358
0.2163
0.4201
0.06142
0.4265
0.2277
0.07679
0.2186
0.1788
0.1917
0.261
0.1564
0.1859
0.0894
0.5025
0.14
0.115
0.2042
0.1666
0.1225
0.2528
0.2564
0.09465
0.1786
0.2421
0.09261
0.07689
0.1452
0.1671
0.1588
0.2689
0.318
0.2271
0.3068
0.1071
0.1256
0.3841
0.1261
0.324
0.1605
0.03489
0.2134
0.2669
0.08049
0.00677
0.08845
0.01274
0.2047
0.2932
0.0134
0.1349
0.2571
0.09187
0.3027
0.2171
1.012
0.164
0.03368
0.1468
0.309
0.1594
0.133
0.4837
0.1351
0.3895
0.2899
0.1631
0.3134
0.1141
0.05504
0.3214
0.3236
0.09031
0.06049
0.2234
0.235
0.2394
0.2946
0.2155
0.1153
0.1181
0.2838
0.1575
0.1295
0.3289
0.2112
0.003692
1.078
0.0645
0.02409
0.1922
0.1933
0.1414
0.1064
0.003691
0.05704
0.07825
0.08475
0.2913
0.09058
0.313
0.11
0.03885
0.1202
0.3155
0.1698
0.00203
0.00579
0.08452
0.08276
0.1098
0.1876
0.1186
0.1566
0.1078
0.0519
0.06741
0.07013
0.2153
0.006866
0.1161
0.1909
0.3423
0.4021
0.1819
0.1073
0.3731
0.3209
0.1446
0.08415
0.1838
1.06
0.1349
0.06826
0.2475
0.1282
0.133
0.006369
0.1279
0.323
0.09757
0.01633
0.1505
0.1328
0.003191
0.2666
0.1257
0.2997
0.1125
0.07659
0.1104
0.1314
0.06665
0.1153
0.1283
0.05931
0.1273
0.3529
0.1227
0.2967
0.1311
0.2927
0.08164
0.2033
0.1045
0.05785
0.1774
0.1075
0.01259
0.08116
0.4295
0.2573
0.1435
0.3147
0.177
0.1406
0.1144
0.1116
0.08075
0.1564
0.001737
0.07358
0.08739
0.2556
0.2697
0.3193
0.335
0.3246
0.2025
0.2419
0.2747
0.1272
0.1095
0.09684
0.07312
0.1934
0.1589
0.2194
0.377
0.002917
0.007567
0.2662
0.1424
0.002128
0.1453
0.03137
0.1951
0.1642
0.1416
0.001036
0.155
0.1507
0.05626
0.2747
0.06428
0.08312
0.3565
0.5497
0.1374
0.07028
0.1237
0.1406
0.01305
0.439
0.2857
0.06392
0.141
0.07972
0.0459
0.2769
0.1921
0.2038
0.1021
0.2106
0.1505
0.4785
0.04575
0.1554
0.07294
0.2185
0.1127
0.03448
0.2215
0.06296
0.2264
0.0515
0.1065
0.03389
0.3688
0.1347
0.09337
0.1083
0.0859
0.07822
0.2604
0.05425
0.3015
0.07579
0.1958
0.0837
0.1545
0.1204
0.1951
0.3013
0.05538
0.0643
0.07919
0.1079
0.08922
0.1345
0.1824
0.2636
0.003282
0.233
0.3214
0.04343
0.4677
0.1155
0.3321
0.2029
0.1516
0.7116
0.2275
0.09386
0.03847
0.3912
0.3069
0.1391
0.1473
0.2145
0.2086
0.2248
0.09298
0.1029
0.0768
0.2254
0.3057
0.2472
0.2382
0.1168
0.009734
0.1576
0.2417
0.08138
0.1553
0.007172
0.3561
0.191
0.3031
0.1652
0.00515
0.4099
0.1837
0.04549
0.01825
0.05969
0.09964
0.1606
0.1604
0.08726
0.1324
0.09363
0.3501
0.3345
0.2217
0.1905
0.9738
0.06383
0.1485
0.1379
0.1001
0.03915
0.2389
0.252
0.8503
0.1655
0.169
0.09218
0.1443
0.1109
0.1086
0.056
0.1769
0.1078
0.1017
0.1095
0.2876
0.3289
0.01756
0.07256
0.07236
0.0611
0.07458
0.02427
0.331
0.1756
0.1437
0.1294
0.3617
0.3008
0.8237
0.1269
0.01848
0.4418
0.2709
0.1801
0.3052
0.09369
0.3244
0.07295
0.1609
0.1779
0.1326
0.1062
0.2216
0.1014
0.1566
0.1519
0.09563
0.1547
0.1354
0.1286
0.151
0.1166
0.07813
0.226
0.08072
0.0563
0.05023
0.5457
0.3278
0.1847
0.01592
0.22
0.154
0.3101
0.1214
0.7872
0.1181
0.1575
0.01345
0.0756
0.3241
0.03902
0.006653
0.05599
0.1547
0.1364
0.06391
0.1121
0.1196
0.1048
0.1303
0.00535
0.08694
0.09678
0.2057
0.2584
0.367
0.1928
0.2685
0.185
0.04672
0.1346
0.2964
0.09198
0.8524
0.2224
0.22
0.1278
0.1588
0.2205
0.2304
0.1543
0.3315
0.2002
0.1478
0.004644
0.04221
0.1162
0.243
0.09476
0.1276
0.0214
0.256
0.1354
0.17
0.1675
0.3427
0.1239
0.1819
0.3068
0.2943
0.209
0.06152
0.07125
0.1717
0.403
0.2928
0.4987
0.01491
0.1908
0.2967
0.00222
0.05595
0.2578
0.3511
0.574
0.3799
0.3093
0.04642
0.1898
0.2554
0.1871
0.07521
0.06744
0.08275
0.2462
0.08803
0.1242
0.0007032
0.1272
0.09027
0.1883
0.001265
0.1545
0.01365
0.02302
0.05656
0.04821
0.07251
0.1861
0.1469
0.02409
0.4015
0.0387
0.1226
0.125
0.3239
0.1764
0.677
0.2513
0.1461
0.06187
0.296
0.2167
0.01428
0.1328
0.2802
0.1067
0.1085
0.2091
0.135
0.1263
0.4463
0.08889
0.128
0.0153
0.06476
0.09521
0.05328
0.09134
0.06757
0.3552
0.001093
0.1261
0.1302
0.328
0.2199
0.2409
0.09967
0.1184
0.1892
0.01368
0.0689
0.3386
0.2467
0.1524
0.2468
0.2481
0.0239
0.1567
0.3141
0.206
0.1399
0.304
0.1005
0.1411
0.218
0.1217
0.2379
0.154
0.00698
0.1028
0.1035
1.155
1.155
0.09854
0.2397
0.2507
0.1842
0.1092
0.3474
0.05853
0.09289
0.1829
0.2904
0.2786
0.195
0.2651
0.09704
0.005028
0.1196
0.1726
0.07516
0.004064
0.2934
0.1029
0.08788
0.1005
0.215
0.03735
0.2349
0.09908
0.299
0.1941
0.238
0.1186
0.2418
0.1088
0.1835
0.1738
0.1758
0.0691
0.1394
0.1175
0.1186
0.1134
0.0943
0.03476
0.0958
0.02926
0.07731
0.1344
0.1014
0.1825
0.1043
0.2535
0.1257
0.006354
0.1509
0.03543
0.427
0.2459
0.3623
0.001233
0.09474
0.1262
0.1619
0.3237
0.02119
0.4138
0.08867
0.1011
0.1497
0.148
0.08375
0.1567
0.08176
0.01471
0.3215
0.05201
0.1414
0.3222
0.1271
0.06577
0.1203
0.2405
0.2701
0.3145
0.2979
0.05956
0.04785
0.2037
0.1461
0.1609
0.1938
0.1941
0.09896
0.1951
0.142
0.1104
0.09263
0.2364
0.004468
0.4397
0.3653
0.06513
0.3463
0.2428
0.282
0.08041
0.1461
0.1271
0.05822
0.1065
0.1196
0.4651
0.2502
0.06582
0.1231
0.1283
0.09975
0.2794
0.122
0.06003
0.7948
0.06166
0.05135
0.002068
0.07194
0.1909
0.1912
0.2847
0.3145
0.1916
0.3633
0.1103
0.3819
0.07896
0.0007877
0.3687
0.1114
0.0787
0.1091
0.4112
0.0762
0.06407
0.003581
0.007278
0.2069
0.2465
0.008326
0.2708
0.08466
0.3172
0.1454
0.1555
0.1763
0.07669
0.007239
0.2775
0.08379
0.2316
1.097
0.2433
0.07999
0.06416
0.1927
0.02129
0.1526
0.198
0.1363
0.1826
0.06606
0.09146
0.3713
0.2101
0.1926
0.1262
0.05993
0.2343
0.08038
0.3823
0.002098
0.006565
0.0005229
0.07921
0.2855
0.1648
0.3216
0.07042
0.1425
0.3743
0.01434
0.9604
0.07074
0.01935
0.04956
0.09382
0.4388
0.05825
0.2477
0.2558
0.006932
0.263
0.05106
0.1398
0.08152
0.02288
0.01204
0.001198
0.1558
0.1208
0.3604
0.1621
0.3544
0.1312
0.05873
0.2083
0.09336
0.1354
0.07675
0.1248
0.1007
0.1608
0.03791
0.1312
0.1582
0.01838
0.2151
0.04655
0.3369
0.1537
0.06835
0.2602
0.2877
0.1545
0.09019
0.1234
0.002135
0.04908
0.3103
0.1736
0.1217
0.1199
0.1032
0.1699
0.1389
0.307
0.0821
0.1389
0.06437
0.1358
0.2919
0.09723
0.09596
0.01903
0.001955
0.004917
0.3296
0.07633
0.08387
0.1432
0.1938
0.1682
0.01092
0.1252
0.1131
0.1172
0.01967
0.1003
0.2326
0.01902
0.1114
0.1169
0.1754
0.05671
0.1489
0.2644
0.3362
0.1631
0.4904
0.09888
0.3234
0.132
0.001383
0.00483
0.1424
0.00106
0.1242
0.2786
0.3271
0.2873
0.2166
0.9459
0.2368
0.002376
0.05881
0.02246
0.2332
0.2187
0.187
0.1035
0.1335
0.1143
0.1241
0.1111
0.1238
0.08378
0.07883
0.1121
0.6327
0.2774
0.05395
0.4466
0.1671
0.09159
0.1205
0.199
0.04669
0.06903
0.2432
0.3315
0.1048
0.02118
0.1673
0.1463
0.2947
0.1706
0.2783
0.2027
0.07727
0.2246
0.00537
0.09062
0.08109
0.1806
0.194
0.2955
0.1205
0.1202
0.06222
0.4853
0.1948
0.4535
0.06909
0.04639
0.3716
0.08812
0.1746
0.0652
0.08869
0.1944
0.01476
0.1529
0.03889
0.322
0.2549
0.191
0.2254
0.1187
0.1329
0.2679
0.3485
0.2656
0.3202
0.2095
0.141
1.048
0.3092
0.2891
0.4151
0.03906
0.06187
0.3398
0.1084
0.2862
0.116
0.6748
0.1126
0.3262
0.05508
0.1108
0.007841
0.2484
0.05281
0.05865
0.24
0.003226
0.3132
0.1118
0.1512
0.1608
0.06924
0.1361
0.4171
0.09976
0.05966
0.2215
0.08617
0.1877
0.1615
0.1062
0.1689
0.2631
0.2811
0.1447
0.1598
0.1072
0.3954
0.722
0.1761
0.07533
0.1246
0.1476
0.1646
0.2233
0.2916
0.1325
0.06285
0.1378
0.07777
0.2582
0.08628
0.3288
0.006322
0.1384
0.07909
0.06356
0.2991
0.206
0.349
0.3162
0.2338
0.06585
0.08098
0.09146
0.5429
0.3159
0.1172
0.001593
0.5222
0.1114
0.01441
0.1181
0.2214
0.1402
0.3158
0.1492
0.4213
0.07934
0.003666
0.05734
0.3349
0.1042
0.2206
0.09488
0.363
0.1986
0.07435
0.1086
0.06267
0.04193
0.08989
0.2101
0.06076
0.003481
0.1778
0.1878
0.1136
0.2448
0.219
0.08651
0.01529
0.3399
0.1588
0.1086
0.5332
0.03975
0.1287
0.3092
0.2708
0.2189
0.09139
0.06863
0.2232
0.2942
0.3437
0.2037
0.07869
1.077
0.2761
0.3213
0.1409
0.1502
0.134
0.08195
0.06183
0.2091
0.2238
0.2396
0.002696
0.3476
0.3167
0.08566
0.2958
0.2484
0.283
0.1159
0.008014
0.1688
0.003926
0.7843
0.7937
0.109
0.3254
0.3243
0.007836
0.1014
0.1653
0.02923
0.2778
0.1184
0.07377
0.007351
0.2567
0.1666
1.047
0.3464
0.09965
0.098
0.1119
0.2165
0.1519
0.05193
0.1918
0.1206
0.02829
0.2379
0.0596
0.2315
0.1008
0.1492
1.066
0.055
0.08123
0.252
0.2893
0.0889
0.004492
0.102
0.2727
0.146
0.03652
0.1377
0.2406
0.9802
0.02629
0.08862
0.108
0.6909
0.3103
0.07151
0.1649
0.03772
0.126
0.3627
0.7732
0.1363
0.07426
0.07143
0.007024
0.224
0.07934
0.1477
0.02697
0.0092
0.05136
0.3153
0.2138
0.1644
0.2622
0.3256
0.1197
0.3323
0.1774
1.02
0.2757
0.2905
0.3251
0.2092
0.09196
0.3589
0.3446
0.1712
0.05092
0.3049
0.5016
0.3157
0.243
0.2483
0.2111
0.08274
0.006384
0.01727
0.1676
0.003487
0.0663
0.2834
0.008845
0.1591
0.03071
0.1523
0.2841
0.3059
0.02342
0.09742
0.09998
0.06067
0.2717
0.1196
0.1756
0.1136
0.3171
0.2187
0.07305
0.309
0.1566
0.06857
0.1294
0.1925
0.2921
0.3749
0.1008
0.004529
0.04675
0.2182
0.1561
0.1288
1.077
0.3753
0.4331
0.03846
0.1274
0.1608
0.137
0.224
1.221
0.2536
0.1766
0.02537
0.3233
0.3615
0.0157
0.169
0.322
0.04803
0.1033
0.2872
0.3622
0.2017
0.1084
0.005972
0.08678
0.1499
0.1744
0.05947
0.4008
0.3494
0.2903
0.1853
0.1228
0.1082
0.68
0.001589
0.1011
0.1315
0.07937
0.1064
0.1671
0.408
0.2626
0.05959
0.08669
0.3338
0.1354
0.1014
0.1805
0.3314
0.3122
0.1478
0.3371
0.155
0.1404
0.2803
0.1889
0.6606
0.04419
0.116
0.1005
0.2017
0.1653
0.02786
0.1031
0.00112
0.1935
0.3149
0.1954
0.2071
0.1735
0.1425
0.0442
0.136
0.07584
0.1093
0.1442
0.2118
0.3002
0.1535
0.07853
0.03566
0.1854
0.3113
0.07678
0.2451
0.06199
0.1508
0.1585
0.1102
0.1011
0.4966
0.07515
0.2092
0.3728
0.2576
0.07629
0.179
0.0004666
0.1052
0.05499
0.3354
0.215
0.1039
0.06431
0.175
0.1923
0.03912
0.06426
0.03265
0.4704
0.1683
0.8603
0.1656
0.1091
0.3002
0.2027
0.07672
0.0003332
0.1839
0.4016
0.171
0.1763
0.08137
0.19
0.222
0.08574
0.2111
0.126
0.3342
0.3675
0.0523
0.34
0.1075
0.3208
0.1829
0.3309
0.2206
0.1015
0.09569
0.1832
0.2366
0.2743
0.3104
0.05777
0.1474
0.2626
0.2594
0.2357
0.11
0.3554
0.1587
0.1772
0.08989
0.1788
0.1125
0.1792
0.2291
0.3929
0.3225
0.00298
0.1271
0.04139
0.2703
0.08032
0.1082
0.04078
0.04444
0.012
0.2487
0.2033
0.1457
0.1459
0.08035
0.04196
0.222
0.07024
0.1751
0.3304
0.001978
0.3266
0.1304
0.08629
0.152
0.126
0.3308
0.1409
0.1316
0.1373
0.4647
0.2258
0.1693
0.1299
0.00297
0.1074
0.004118
0.02429
0.3729
0.003768
0.4244
0.09351
0.05341
0.2125
0.2327
0.07106
0.1267
0.1858
0.3336
0.1727
0.1239
0.09069
0.1083
0.09222
0.3206
0.1772
0.2357
0.002901
0.1489
0.2893
0.1196
0.07912
0.1613
0.08358
0.1123
0.03787
0.149
0.0109
0.1022
0.09017
0.2914
0.06947
0.3089
0.1506
0.1257
0.2432
0.2108
0.1202
0.1608
0.08399
0.06759
0.1425
0.1202
0.1015
0.01127
0.1671
0.002409
0.3409
0.2269
0.07495
0.1685
0.3026
0.3436
0.3576
0.294
0.3674
0.09623
0.1131
0.06055
0.2252
0.3922
0.1003
0.3361
0.0009017
0.07095
0.002958
0.09669
0.2994
0.07447
0.2894
0.2492
0.03899
0.4589
0.2149
0.1585
0.05726
0.2219
0.2568
0.2102
0.1151
0.1498
0.317
0.006939
0.1169
0.5459
0.4134
0.1282
0.3109
0.1309
0.02522
0.1529
0.2289
0.0574
0.2917
0.1411
0.007084
0.2831
0.2335
0.1311
0.09736
0.3345
0.1074
0.2107
0.2976
0.09216
0.08334
0.0003232
0.2352
0.1787
0.03097
0.2361
0.5073
0.1041
0.3783
0.1872
0.2354
0.2014
0.2105
0.09041
0.4162
0.2451
0.05844
0.2289
0.05267
0.1201
0.07165
0.09473
0.2743
0.1359
0.1141
0.111
0.1392
0.1229
0.003601
0.01264
0.05795
0.1288
0.2039
0.09795
0.07624
0.2596
0.2464
0.1273
0.07904
0.0554
0.06619
0.12
0.08908
0.3491
0.2175
0.3669
0.2718
0.06137
0.1497
0.1477
0.1357
0.09295
0.006468
0.102
0.0852
0.3484
0.101
0.09231
0.1615
0.09369
0.1951
0.1567
0.05673
0.1049
0.2668
0.09602
0.07536
0.3556
0.2485
0.4773
0.202
0.002818
0.05382
0.6423
0.1867
0.1953
0.017
0.04935
0.2142
0.2653
0.08118
0.3004
0.103
0.1306
0.1284
0.1587
0.2294
0.2348
0.152
0.1325
0.2249
0.09938
0.2193
0.07905
0.1408
0.06105
0.07097
0.158
0.1541
0.122
0.1894
0.4045
0.1144
0.4244
0.005311
0.333
0.06616
0.06981
0.3391
0.3973
0.1368
0.0004349
0.5446
0.2318
0.08456
0.08169
0.1029
0.207
0.09387
0.1051
0.1213
0.04734
0.1361
0.2889
0.3165
0.06739
0.08817
0.1752
0.09252
0.0447
0.0419
0.4069
0.2136
0.09931
0.1537
0.00162
0.1607
0.09066
0.4336
0.1105
0.3473
0.1443
0.3023
0.0606
0.5568
0.2345
0.05014
0.7839
0.1378
0.06299
0.2133
0.5566
0.5944
0.1629
0.2557
0.2341
0.3947
0.1571
0.4537
0.05789
0.2809
0.1109
0.1549
0.2147
1.066
0.1232
0.1672
0.2882
0.2024
0.05995
0.1956
0.3235
0.03946
0.1287
0.1692
0.003461
0.008676
0.3246
0.08913
0.1944
0.0691
0.1098
0.02824
1.066
0.25
0.0028
0.2222
0.2788
0.2072
0.04984
0.09641
0.1202
0.1662
0.0197
0.3072
0.07993
0.1602
0.3036
0.3298
0.1236
0.07019
0.1146
0.05604
0.1918
0.003275
0.2949
0.1984
0.171
0.2668
0.3641
0.3295
0.07121
0.1508
0.06243
0.1295
0.2398
0.2
0.2188
0.3003
0.09474
0.7865
0.01211
0.09074
0.09309
0.1691
0.2822
0.3148
0.1087
0.1425
0.1274
0.07557
0.1404
0.2856
0.3207
0.2156
0.3661
0.335
0.1223
0.1004
0.02345
0.1143
0.1363
0.2163
0.09223
0.117
0.1609
0.1462
0.2136
0.2537
0.5251
0.09566
0.04496
0.2241
0.297
0.1389
0.1442
0.3667
0.2054
0.2626
0.6191
0.4147
0.5951
0.5944
0.25
0.2324
0.1002
0.004558
0.08069
0.1937
0.2599
0.4223
0.5856
0.2306
0.1055
0.2786
0.004227
0.1419
0.1512
0.1432
0.2973
0.04575
0.2595
0.5591
0.1916
0.3795
0.8996
0.6453
0.09414
0.1202
0.2982
0.3252
0.1487
0.2664
0.1929
0.2509
0.0008883
0.2448
0.04828
0.1438
0.325
0.2576
0.1713
0.112
0.09366
0.1203
0.1249
0.1738
0.8572
0.008669
0.1375
0.27
0.4954
0.0654
0.06941
0.1018
0.05734
0.2508
0.06298
0.1698
0.2635
0.03892
0.6665
0.01674
0.1992
0.02138
0.83
0.335
0.355
0.2618
0.205
0.02503
0.1301
0.075
0.2037
0.08145
0.3186
0.08086
0.04454
0.3609
0.1751
0.3931
0.09922
0.3171
0.3344
0.1747
0.1099
0.281
0.2088
0.3209
0.142
0.2665
0.07478
0.07375
0.2296
0.04496
0.09951
0.1645
0.3607
0.1175
0.1766
0.1191
0.4963
0.3606
0.7282
0.1122
0.1362
0.1017
0.3514
0.3445
0.4129
0.1222
0.4055
0.3168
0.2438
0.1759
0.2855
0.2012
0.06364
0.09797
0.2765
0.1526
0.09299
0.2109
0.2923
0.08244
0.2546
0.139
0.2334
0.1135
0.4657
0.1158
0.1457
0.08774
0.2591
0.2293
0.0985
0.00574
0.06865
0.05223
0.1103
0.008624
0.08113
0.3075
0.2686
0.1299
0.287
0.004292
0.05987
0.1084
0.1537
0.07996
0.1183
0.05376
0.07858
0.1324
0.1835
0.1099
0.1392
0.01898
0.1369
0.051
0.4063
0.128
0.06694
0.06522
0.1064
0.1038
0.02124
0.1386
0.2369
0.1133
0.2003
0.1215
0.0726
0.2292
0.1193
0.1092
0.3005
0.196
0.2764
0.113
0.06718
0.1216
0.1554
0.1189
0.04981
0.3152
0.1361
0.289
0.3231
0.0887
0.087
0.06138
0.07401
0.1542
0.6242
0.1837
0.4798
0.2891
0.3091
0.1956
0.001202
0.1454
0.1629
0.08591
0.3932
0.06442
0.1374
0.2739
0.5009
0.06186
0.1384
0.01812
0.21
0.09692
0.03063
0.09195
0.004261
0.1008
0.102
0.1224
0.1064
0.2818
0.3235
0.0888
0.1719
0.1112
0.09345
0.189
0.1054
0.2271
0.1173
0.06038
0.07163
0.1087
0.04154
0.08469
0.3096
0.02685
0.1508
0.2973
0.1405
0.1696
0.01398
0.06849
0.2599
0.313
0.1465
0.02917
0.06793
0.0771
0.3037
0.2482
0.4284
0.1525
0.1919
0.1468
0.02995
0.2517
0.002881
0.2279
0.3684
0.3305
0.1367
0.04731
0.3332
0.1164
0.0805
0.3824
0.142
0.4974
0.3158
0.1349
0.1079
0.3066
0.1592
0.01809
0.3371
0.1201
0.0606
0.3123
0.1358
0.1331
0.1212
0.04312
0.09552
0.01766
0.1143
0.3278
0.1191
0.04094
0.3636
0.02491
0.1849
0.2228
0.1522
0.4804
0.1361
0.219
0.1327
0.1379
0.5248
0.1359
0.5244
0.2752
0.07531
0.1087
0.1551
0.1514
0.2529
0.08012
0.3478
0.5701
0.3127
0.07911
0.0954
0.1587
0.006413
0.2093
0.2119
0.1195
0.1873
0.3826
0.2664
0.04801
0.07771
0.1175
0.1292
0.158
0.1572
0.1683
0.1208
0.297
0.264
0.2303
0.1144
0.1108
0.03231
0.005601
0.102
0.6627
0.08674
0.115
0.1307
0.005148
0.3168
0.1496
0.1389
0.1157
0.08506
0.1178
0.006291
0.08372
0.4992
0.0738
0.1756
0.1646
0.1527
0.06213
0.3259
0.3824
0.08845
0.116
0.1722
0.1012
0.1214
0.538
0.0748
0.04412
0.2073
0.05485
0.3133
0.08571
0.1393
0.3609
0.09895
0.2153
0.1195
0.2027
0.5101
0.08696
0.09313
0.1993
0.4249
0.249
0.06586
0.1345
0.1735
0.09413
0.2722
0.1531
0.09637
0.09593
0.1285
0.1599
0.07989
0.09284
0.5054
0.0802
0.2732
0.1459
0.1258
0.09959
0.1646
0.1234
0.0488
0.004275
0.09161
0.2978
0.09014
0.214
0.2943
0.0001341
0.1138
0.044
0.06298
0.04555
0.1123
0.1269
0.1608
0.2802
0.4104
0.4005
0.1275
0.2137
0.2022
0.3424
0.1316
0.07078
0.1405
0.001505
0.1344
0.1003
0.04281
0.009542
0.07442
0.1143
0.129
0.347
0.3888
0.1354
0.004774
0.08493
0.284
0.1997
0.1423
0.1845
0.6167
0.3447
0.1314
0.1628
0.2846
0.1647
0.335
0.05136
0.1448
0.07682
0.7011
0.09569
0.1392
0.151
0.131
0.07449
0.05492
0.107
0.3337
0.2592
0.03091
0.2025
0.1631
0.1687
0.1431
0.3122
0.08981
0.1116
0.0004802
0.09869
0.05647
0.03595
0.04707
0.2013
0.09556
0.1416
0.08007
0.3483
0.1937
0.07152
0.07951
0.007033
0.07481
0.1135
0.06371
0.26
0.07387
0.02884
0.09449
0.1271
0.08254
0.05081
0.1524
0.1607
0.02852
0.1166
0.1085
0.08275
0.06202
0.06088
0.06945
0.1103
0.04882
0.1867
0.2894
0.1647
0.006861
0.3271
0.05056
0.1294
0.2265
0.2222
0.1659
0.3044
0.01358
0.08515
0.1023
0.09035
0.332
0.2443
0.005671
0.1174
0.05165
0.2015
0.1273
0.1754
0.1491
0.1036
0.07235
0.2013
0.1529
0.08355
0.1012
0.1209
0.1953
0.1826
0.08249
0.1008
0.08737
0.1677
0.4812
0.4482
0.342
0.1402
0.1117
0.4646
0.1768
0.1599
0.2917
0.1034
0.1358
0.483
0.3598
0.0462
0.112
0.1315
0.09665
0.2256
0.3815
0.0637
0.3024
0.04205
0.1457
0.3358
0.288
0.1392
0.1106
0.1676
1.288
0.09057
0.3031
0.07177
0.1734
0.2909
0.1508
0.1451
0.06171
0.2201
0.1182
0.1304
0.04749
0.2039
0.2218
0.008349
0.1814
0.1736
0.005342
0.05213
0.1519
0.124
0.6351
0.02239
0.3038
0.1052
0.1417
0.07705
0.06917
0.07486
0.007395
0.1606
0.2137
0.2382
0.07747
0.07185
0.1282
0.02722
0.01433
0.08163
0.1519
0.1137
0.1896
0.2448
0.3263
0.5143
0.1194
0.009223
0.3297
0.1753
0.1767
0.1318
0.2626
0.07413
0.00224
0.08155
0.09602
0.1617
0.1623
0.3985
0.04535
0.1132
0.3011
0.3179
0.2074
0.06214
0.2226
0.002184
0.07947
0.2936
0.06056
0.5139
0.1854
0.1387
0.2992
0.1529
0.2182
0.188
0.2975
0.1127
0.1117
0.1457
0.1113
0.08265
0.134
0.1209
0.1073
0.1368
0.8069
0.1889
0.09448
0.2384
0.07691
0.03967
0.2123
0.2349
0.3362
0.1072
0.09644
0.1859
0.1275
0.1017
0.311
0.09447
0.2467
0.1428
0.238
0.2593
0.3029
0.1042
0.09715
0.07105
0.06861
0.1525
0.09286
0.2136
0.114
0.1587
0.0783
0.2236
0.03633
0.2663
0.2632
0.2236
0.2617
0.1657
0.4046
0.1486
0.2105
0.09019
0.306
0.3253
0.1708
0.1589
0.1407
0.3252
0.03754
0.1036
0.3474
0.2713
0.001697
0.1663
0.154
0.1008
0.0227
0.6482
0.008841
0.0782
0.1345
0.08396
0.08681
0.1671
0.1267
0.1245
0.08115
0.08096
0.1921
0.2251
0.1188
0.4592
0.2693
0.1197
0.07794
0.2212
0.002105
0.1617
0.0156
0.04043
0.133
0.03818
0.002832
0.1523
0.07705
0.06428
0.2129
0.004327
0.3303
0.4994
0.1166
0.1232
0.7244
0.117
0.2221
0.1018
0.1319
0.2843
0.3103
0.2418
0.09394
0.07456
0.1696