/*--------------------------------*- C++ -*----------------------------------*\
  =========                 |
  \\      /  F ield         | OpenFOAM: The Open Source CFD Toolbox
   \\    /   O peration     | Website:  https://openfoam.org
    \\  /    A nd           | Version:  8
     \\/     M anipulation  |
\*---------------------------------------------------------------------------*/
FoamFile
{
    version     2.0;
    format      ascii;
    class       surfaceScalarField;
    location    "10";
    object      phi;
}
// * * * * * * * * * * * * * * * * * * * * * * * * * * * * * * * * * * * * * //

dimensions      [0 3 -1 0 0 0 0];

internalField   nonuniform List<scalar> 
189008
(
1.843e-07
-1.843e-07
-2.122e-09
2.121e-09
1.148e-08
-1.148e-08
1.698e-08
-1.698e-08
-5.876e-06
5.876e-06
1.82e-08
-1.82e-08
1.348e-05
-1.348e-05
-6.692e-06
6.692e-06
-4.087e-06
4.087e-06
-1.538e-05
1.538e-05
8.686e-06
-8.686e-06
-5.803e-06
5.803e-06
-5.364e-08
5.364e-08
-2.129e-08
2.129e-08
0.0002072
-0.0002155
8.377e-06
1.336e-05
-1.524e-05
1.878e-06
-5.514e-08
5.514e-08
0.02805
-0.01172
-0.01633
0.004645
-0.002975
-0.00167
-2.154e-05
2.25e-05
-9.562e-07
-0.002229
0.001925
0.0003043
-4.287e-06
2.321e-06
1.966e-06
-0.002939
0.01056
-0.007618
1.723e-05
0.0005909
-0.0006081
-2.669e-06
-1.618e-06
-0.0004904
0.0002639
0.0002265
0.0002107
-0.0002332
2.253e-05
0.0002326
-2.186e-05
0.0003055
-0.0002342
-7.124e-05
0.01734
-0.03005
0.0127
-6.135e-05
-0.0002757
0.0003371
-0.0001434
-0.000347
0.0001698
-0.0001144
-5.537e-05
0.0004003
-0.0002331
-0.0001673
0.01215
0.01063
-0.02278
5.592e-05
0.0001139
-5.562e-05
-0.0004424
0.000498
-0.004283
0.00515
-0.0008668
-4.875e-05
0.0006265
-0.0005777
-0.0001122
0.0001237
-1.154e-05
0.002692
0.001953
0.001311
-0.003312
0.002002
-9.574e-05
-0.003876
0.003972
1.507e-07
-1.507e-07
0.0006167
0.02743
0.0002239
0.0001764
0.0001972
0.0001083
0.0009378
-0.0009391
1.355e-06
-0.0008779
0.001067
-0.0001894
-3e-05
0.0005132
-0.0004832
4.537e-06
8.819e-06
-0.01256
-0.03027
0.04283
0.0006335
0.0002777
-0.0009112
-0.01215
0.009556
0.002593
1.084
-0.1298
-0.9546
0.001194
-0.0009363
-0.0002574
-0.1446
1.229
0.01171
-0.007398
-0.004312
-0.3112
0.02009
0.2911
-0.00647
-0.00568
-0.002394
-0.0004929
0.002887
0.001658
-0.002797
0.001139
-0.0001823
0.001566
-0.001383
-0.8104
0.9562
-0.1458
0.0002707
-0.0006457
0.000375
-0.000235
-0.003704
0.003939
-0.02776
0.02023
0.007528
0.001938
-0.0016
-0.0003377
0.0005365
0.001401
-1.286
0.482
0.8037
-7.931e-05
-0.000385
0.0004643
-8.997e-05
-0.0001433
0.0005317
0.002617
-0.003148
-0.1163
-0.1949
-0.2766
0.5186
-0.242
9.627e-05
0.0001363
-0.05106
0.09196
-0.0409
0.001044
-0.0009708
-7.354e-05
0.0006004
0.0005934
0.1608
-0.6346
0.4738
-0.0002989
0.0002264
7.246e-05
-1.022e-05
-1.132e-05
-0.0002866
-0.0003727
0.0006592
1.446e-05
8.54e-05
-9.985e-05
-0.0006384
0.0009548
-0.0003164
0.0005815
-0.000899
0.0003175
-0.0006553
0.001266
-0.0006104
-0.0002546
7.706e-05
0.0001776
-0.003483
0.003248
-0.0003955
0.0006414
-0.000246
0.1818
-0.01649
-0.1653
-0.006916
-0.002698
0.009615
-0.0003262
0.0008487
-0.0005225
-0.001246
-0.0009837
-0.001128
0.00116
-3.138e-05
0.0235
0.01668
-0.04018
0.003169
-0.001859
0.000383
-0.0003872
4.166e-06
0.0008955
0.0001787
-0.001074
-0.0197
-0.008064
0.6868
-0.526
-1.308e-05
-0.0008648
-7.514e-05
-0.0001941
0.0002692
0.004163
-0.005036
0.000873
-0.0001731
0.0007546
0.001184
-0.0002882
-0.001047
0.001504
-0.0004567
-1.007
-0.2792
-0.001523
0.0007399
0.000783
-1.16
0.8801
0.2795
0.0002105
-3.344e-06
-0.0001832
-7.143e-05
0.001714
-0.0002687
-0.001446
8.186e-05
-0.0004896
0.0004078
-0.2125
0.09792
0.1146
0.0006604
0.002536
-0.003196
-0.1065
0.05899
0.04749
0.1642
-0.4408
0.02408
-0.07514
3.973e-07
-3.183e-07
-7.898e-08
-1.258
0.09853
-0.0001421
-0.0002923
0.0004345
-0.0004608
-0.0008464
0.001307
0.01402
-0.01182
-0.002202
-0.0001944
-0.0001045
0.0003956
-0.0003662
-2.939e-05
0.001535
0.0006994
-0.002234
0.08673
-0.1025
0.01573
0.001712
-0.0006615
-0.00105
-0.0008099
0.0006471
0.0001628
-0.0008727
0.0002757
0.0005971
-0.0009053
0.0003528
0.0005525
-0.0003209
-0.001171
0.001492
0.0004401
0.0006042
1.324e-07
-1.057e-07
-2.674e-08
-0.0009216
4.89e-05
-0.005782
0.03252
-0.02674
0.0009764
-0.001769
0.0007929
-0.0002721
0.0003166
-4.448e-05
0.02824
-0.04928
0.02105
0.009995
0.0001402
-0.01014
-0.04956
-0.04013
0.08969
0.001842
-0.002164
0.0003215
0.004058
-0.002215
-0.001843
0.001035
-0.000401
0.001347
-0.0004353
-0.0009112
-7.038e-06
-3.75e-07
7.413e-06
-0.02737
-0.783
-0.001121
0.0002153
0.0001931
-0.0002999
0.0001069
0.002408
-0.003528
0.001119
0.00119
-0.0003231
-0.0008668
0.003393
-0.005946
0.002553
-0.009116
-0.0001636
0.009279
0.0003349
-0.000633
0.000298
-0.0007824
0.0001439
0.007638
0.004072
0.0008111
-0.0006529
-0.0001582
0.0002099
0.0007279
0.0001784
-0.0003531
0.0001747
-0.0003223
0.0005992
-0.0002769
-5.354e-05
5.354e-05
0.1921
-0.01035
-0.001107
0.0003429
0.0007644
0.0001988
-0.0004443
0.0002456
-0.0002116
0.0004823
0.000506
-5.994e-05
-0.0004461
0.0003362
0.00192
-0.002256
-0.0006611
0.0004973
0.0001638
-0.04177
0.03362
0.008149
-1.611e-05
-3.114e-05
4.724e-05
0.002639
0.001419
-0.004661
0.001951
0.00271
-0.002961
0.0009468
0.002014
1.029
-1.202
0.1724
0.0002794
-0.0002379
-4.157e-05
-0.0007497
0.0003627
0.0003869
0.0009548
0.000757
-0.0004635
0.0009225
-0.000459
0.1165
-0.1404
0.0239
-0.001936
-0.001025
-0.1204
-0.006328
0.1267
-1.981e-05
-0.0001887
0.0002085
0.0001257
0.0001537
-0.0003271
-0.0004828
-0.0009058
0.002564
-0.0006448
-0.006071
0.006716
-0.0004315
0.0005134
0.0005714
-0.0005542
-0.006365
0.08269
-0.07633
7.648e-05
-0.0006817
0.0006052
0.0005335
0.0001027
-0.0006362
-0.03966
0.03387
0.0004534
-0.0005948
0.0001415
7.731e-08
-0.0005201
-0.001975
0.002495
-1.467
1.196
0.2706
-1.465
1.195
0.2705
5.071e-06
1.246e-06
-6.317e-06
-0.1658
0.1327
0.03306
0.2073
-0.03986
-0.1674
-0.05747
0.04805
0.009423
0.02285
-0.06012
0.03727
-0.0004331
0.0003775
-5.754e-08
5.754e-08
0.0002947
-0.001035
0.0007399
0.02651
-0.008327
-0.01818
0.002767
-0.0006411
-0.002126
0.04255
-0.0252
-0.2075
-0.005019
-0.0005024
-0.01559
0.0161
0.0009011
-0.0004866
-0.0004145
-0.06072
0.2008
-0.1401
-0.0002952
-0.000366
-9.54e-06
0.0004319
-0.0004224
4.225e-06
-5.608e-06
1.383e-06
4.12e-05
-3.765e-05
-3.553e-06
0.003556
-0.002141
-0.001415
0.0002738
-0.0009138
0.0006399
0.0219
0.004609
-0.0006106
0.000179
0.0004316
-0.4704
0.2198
0.2507
0.001044
0.0001459
-0.000773
0.001083
-0.0003104
0.0001701
0.000104
-0.0002741
6.724e-05
-5.634e-05
-1.09e-05
-0.0003204
0.0005192
2.415e-05
-0.004307
-0.0001188
0.000121
-2.157e-06
-0.001345
0.001189
0.0001559
0.002007
-0.0005672
-0.001439
-0.04323
-0.07713
0.003048
-0.002516
-7.717e-07
1.112e-06
-3.403e-07
0.001191
0.000816
-0.0234
0.01888
0.004516
-0.0003576
-0.0007497
1.095e-06
-1.095e-06
0.2276
-0.02027
0.001239
-0.0002294
-0.00101
0.0009325
-0.0003991
0.0003818
-0.0008169
0.000435
-0.0006703
0.0004452
0.0002251
0.0004183
0.0003928
0.0005698
0.0003866
-0.0009564
2.579e-07
1.394e-07
0.0009505
0.0004448
-0.001395
-0.0002322
0.0002088
2.34e-05
-6.756e-06
6.756e-06
0.1944
-0.9636
0.7692
-0.0008964
-0.001487
0.002383
-0.0001307
0.0003327
-0.000202
0.002368
-0.001119
-0.001249
0.002827
-0.0008877
-0.00194
-0.0001823
0.0008433
-0.000661
0.0008374
-0.000479
-0.0003584
0.1159
-0.02914
8.972e-05
-0.0004209
0.0003311
-0.0002126
0.001531
-0.001319
-0.009956
0.0004023
0.009554
-0.003379
0.001745
0.001634
-0.06037
0.0952
-0.03483
-0.01234
0.005421
-0.08852
0.03896
-0.0009786
-0.000913
0.001892
6.073e-05
0.0005226
-0.0005834
-0.0002366
0.0004907
-0.0002541
0.000223
-0.0005004
0.0002774
-0.0009776
-0.001236
0.002214
0.001548
-0.004654
0.003105
-0.0005588
-1.016e-05
0.000569
0.8632
0.1661
-0.0009045
0.001176
-0.0002718
0.001339
-9.947e-05
0.001097
-0.001864
0.0007671
-0.0007857
0.0008622
0.000913
0.0008013
0.001091
-0.001281
0.0001898
-0.3838
-0.4402
0.824
0.0008616
0.001424
-0.002285
-0.5368
-0.3449
0.8817
0.04073
-0.01723
0.004187
-2.395e-05
-0.09154
-0.1638
0.2553
0.04831
0.119
-0.1673
1.632e-07
-5.514e-08
-1.08e-07
0.0009437
-0.0007628
-0.0001809
-0.07737
-0.1005
0.1778
0.001398
-0.001033
-0.0003651
0.1646
-0.04813
-0.001031
0.004424
-0.002468
0.005739
-0.003272
-0.01035
-0.01305
0.00103
0.001407
-0.002438
-0.2022
0.2362
-0.03397
-0.0006163
0.001079
-0.0004623
-0.0002504
-0.0001832
0.0004336
8.664e-05
-6.89e-05
-1.774e-05
-0.000238
-0.0004324
0.003388
-0.00184
-0.000228
-0.0003945
0.0006225
-0.004435
0.001376
0.003059
-0.001225
-0.002195
0.00342
0.003794
-0.003134
-0.0001445
0.0002497
-0.0001052
0.0007809
0.0001465
-0.0009275
0.002531
0.0002359
-0.1819
0.1212
-0.005989
0.002966
0.003023
-0.00303
0.003071
-4.082e-05
0.001184
0.0001133
-0.001297
3.004e-05
5.314e-07
-3.057e-05
-0.0008286
0.0005437
0.0002849
-0.8464
0.3096
-0.2551
0.1316
0.1235
0.0003364
8.293e-05
-0.0004193
0.002978
-0.003993
0.001015
-0.0001905
-0.0003171
0.0005076
0.01503
-0.008916
-0.006115
0.1954
-0.1847
-0.01068
0.009747
-0.01269
-0.0004261
-2.974e-05
0.0004559
0.09175
-0.04968
-0.04207
0.00166
0.0007085
0.0004796
-0.0001432
-0.001005
0.002557
-0.001552
-0.01585
0.03145
-0.01561
0.0002006
-0.00033
0.0001294
0.0008187
-0.0003327
-0.0004859
-0.001676
0.0005862
0.001089
0.002818
-0.001533
-0.001285
0.1962
-0.1479
-0.00555
0.0177
-0.4995
-0.9674
-0.4989
-0.9665
-0.01146
0.002344
-0.001223
0.00101
0.0002128
-0.004461
-0.0002003
0.0008772
0.00194
8.243e-05
0.000668
-0.0007504
-0.01392
0.04216
0.002422
0.001135
-0.001213
0.0004382
0.0007752
9.756e-05
0.000433
-0.0005305
-0.00112
0.0009084
0.0002121
0.0004012
0.0009973
0.0006494
-0.0002574
-0.000392
-0.0009923
0.001256
-0.0002642
0.0007508
-0.0005222
-0.0002286
-0.0002734
0.001371
-0.001098
-0.000972
0.0007625
0.0002095
-0.003377
0.004723
-0.001346
3.117e-05
-0.0002248
0.0001936
-0.0006881
-0.001583
-0.02732
0.02891
0.0007708
-0.0006767
-9.406e-05
0.002285
0.0005422
-0.0004537
-0.0009355
0.001389
0.2901
-0.399
0.1089
0.0006729
0.0001458
-0.000559
0.001094
-0.0005349
-0.001752
0.00157
-0.006084
-0.005943
0.01203
0.0009387
-0.0009805
4.184e-05
-9.045e-05
0.0007322
-0.0006418
0.383
0.1352
-0.5181
-0.1161
-0.04966
-0.1853
0.2553
-0.06993
0.0004202
-0.0005064
8.62e-05
0.4348
-0.8185
-0.001689
0.002282
-0.0005928
0.05938
0.03238
0.0002782
-0.000409
7.424e-05
-0.0005951
0.0005209
0.1103
-0.1166
0.02597
-0.009604
-0.01637
-0.0001805
0.0008492
-0.0006687
1.484e-06
4.398e-07
-1.923e-06
0.0008027
-0.001407
0.0006042
0.9292
-0.6938
-0.2354
0.0006392
0.006916
-0.007555
8.588e-05
0.0003097
-0.0009819
0.000702
0.0002799
0.00702
-0.005325
-0.001694
-0.08672
-0.01976
2.425e-05
3.454e-06
-2.77e-05
0.01506
-0.02034
0.005286
3.469e-07
-0.0001125
0.001838
-0.002457
0.0006191
-0.001483
-0.002791
0.004274
0.2452
-0.256
0.01073
0.006839
-0.005662
-0.001177
-2.477e-05
9.444e-05
-6.967e-05
0.0002348
0.0006188
-0.0008536
-0.0007626
0.0008444
-8.173e-05
-0.0001655
0.0003467
-0.0001811
0.004708
0.002131
-0.0003799
0.0003185
-0.02285
0.02127
0.01276
-0.07312
0.0001003
-0.0001675
6.72e-05
-0.5092
0.03881
0.002416
5.4e-05
-0.00247
0.0001981
-0.0002179
-0.002028
0.01709
-0.004246
0.003368
0.0008775
0.0003414
-0.001104
0.0007629
-0.002134
0.002117
1.641e-05
0.1103
0.4882
-0.5985
0.0004573
-0.0009208
-0.0003376
-0.000233
0.0005706
-0.0008624
-1.669e-05
0.0008791
0.001544
0.008451
0.00016
0.0006245
-0.0007845
-0.001252
0.0007911
-0.0003707
-0.0007577
0.0015
-0.001288
-0.0002123
-0.0006809
0.0001221
-0.001121
0.003268
-0.002147
-0.0009424
0.0001745
0.0007679
0.000566
-5.995e-05
8.74e-05
-8.12e-05
-6.202e-06
0.00057
-0.0006122
4.211e-05
-0.6728
0.8672
-0.001786
0.0004408
0.006859
-0.01044
0.00358
-0.003817
0.003722
-0.01263
0.0004884
0.01214
0.0005471
-0.0001653
-0.01038
-0.007911
0.01829
-1.278
1.441
-0.1621
-0.0007528
0.0007618
-9.06e-06
0.0001675
0.0001287
-0.0002963
0.002701
0.009523
-0.01222
0.003265
-0.003543
0.0002786
0.5737
-0.1907
0.001023
-0.002047
0.001025
0.0001413
-0.000614
0.0004727
-0.05799
0.04544
-0.02177
-0.1804
0.6998
-0.6533
-0.04643
0.0006983
-0.0007283
0.05794
-0.02542
-0.0004104
-0.0001554
0.0005659
0.05091
-0.05466
0.003743
5.065e-05
0.0003324
-0.01167
-0.1317
0.1433
0.0006841
-0.0004943
-0.0001897
0.05821
-0.2435
0.0003131
0.000588
-0.001426
0.001503
-7.697e-05
-0.0009682
0.0005429
0.0004253
-0.001275
0.002868
-0.001593
0.0002561
-0.0005069
0.0002508
-0.0201
0.008628
0.01147
-0.0006799
0.0003638
0.0003161
0.0004865
0.0001726
-0.0006591
-0.0007328
7.772e-05
0.0006551
-0.0007789
0.0001716
0.0006073
0.001347
0.006349
-0.007696
-0.002415
0.002095
0.0005304
0.0008464
-0.001377
0.001236
-0.004011
0.002775
0.001046
-0.001302
0.0002562
-0.0007273
0.001258
0.3489
-0.9382
0.5893
0.1209
-0.001929
-0.119
0.002511
-0.001086
-0.001424
-0.0004811
0.0005126
-3.153e-05
-1.542
0.1228
1.419
-0.001874
0.001165
0.0007091
-0.004272
0.0113
-0.007031
0.005387
0.008638
-0.0008362
0.003814
0.03097
-0.01619
-0.01478
1.419
-0.269
-1.15
0.0001843
-0.0005447
0.0003604
-0.009598
0.005327
-0.000182
0.0001594
2.263e-05
-0.001274
0.0006216
0.0006525
0.0002661
-0.0001852
-8.085e-05
0.0005733
-5.311e-05
-0.0005202
0.000659
-0.0001009
-0.0005581
-0.0004591
-0.0003695
-0.0008732
9.723e-05
0.0007759
0.0006209
0.002644
0.001407
-0.0004499
-0.0009576
-0.1249
0.2569
-0.132
-0.0002737
0.0004522
-0.09998
0.08308
0.0169
0.000635
-0.0005497
-8.522e-05
0.0006045
-0.00126
-0.001123
0.001006
0.0001165
7.272e-05
-0.001308
0.001235
-1.097e-08
-4.657e-08
0.000977
-0.0004833
-0.0004937
-0.001091
0.0008988
0.0001925
0.02949
-0.01693
-0.01256
0.001557
-0.002198
0.0006409
-0.2838
0.2294
0.05442
0.000192
7.402e-05
0.1168
0.00413
-0.0003603
-2.374e-05
0.0003841
-0.002235
0.001715
-9.464e-08
9.463e-08
2.867e-07
2.557e-07
-5.424e-07
8.556e-07
-7.851e-07
-7.049e-08
1.197
-0.8187
-0.3783
0.0003779
0.0003928
-0.0002379
0.001136
-0.0008983
-0.1447
-0.1103
0.001572
-0.0001161
-0.001456
-0.0003363
0.001031
-0.0006946
0.0005902
-0.0006385
4.828e-05
0.003339
-0.0002861
-0.003053
-3.247e-05
-0.001393
-0.0008188
-0.0001494
-0.001177
-0.0006971
-0.0002453
0.0002255
1.979e-05
-0.4331
0.7821
0.0007216
-0.0002353
-0.0004863
-2.596e-06
2.47e-06
1.256e-07
0.0006191
-0.0007088
8.963e-05
0.0005573
-0.0001324
-0.0004249
-6.413e-05
4.802e-05
0.06149
-0.1778
0.003182
-0.0007738
-0.04454
0.06739
0.00411
-0.002875
0.04651
0.2448
-0.2913
-0.0004499
0.000109
0.0003409
-0.0001073
-0.0001533
0.0002606
-0.000149
0.0001398
9.249e-06
1.528
-0.9031
-0.6249
0.002038
0.0004729
0.00996
0.003537
-0.0135
-2.995e-05
3.703e-05
-7.081e-06
-0.0007812
-3.625e-05
0.0008175
0.0004088
-2.003e-05
-0.0003888
-0.005651
0.001141
0.004511
-0.1061
0.1004
0.005675
-4.644e-05
0.0002266
-0.0001801
0.001062
0.0008132
-0.001875
-0.8047
-0.737
0.002584
-0.00567
0.0008624
0.004808
-0.0005003
0.0002499
0.0003168
0.0006219
-7.395e-06
-0.0004737
-0.0003122
5.137e-05
0.0002608
0.002178
-0.0003397
-0.003619
0.003607
1.194e-05
0.0009308
5.19e-06
-0.000936
-0.0003145
0.0006789
-0.0003644
-0.0001938
-0.000559
0.1131
0.05561
-0.1687
-0.0001502
0.0001065
4.368e-05
-0.0001044
0.0006724
-0.000568
0.0006796
-0.0007658
8.616e-05
0.0009834
-0.002111
0.001127
-0.0002822
0.0004855
-0.0002033
-0.7902
0.113
0.6771
-0.7885
0.629
0.1595
0.001387
-0.01134
0.0006083
4.108e-05
-0.0007128
-0.0009421
0.001655
0.1354
-0.2062
0.07083
1.474
-0.6505
-0.8235
-0.001683
0.002746
-0.001063
0.0003111
-0.0004641
0.000153
0.001275
-0.0005352
-0.0007402
-0.0008377
-3.546e-05
-0.0001808
-1.796e-05
0.0001988
0.0001457
-0.0001355
-1.022e-05
-0.003263
0.003123
0.0001401
-0.1428
0.1005
0.04233
1.404
-1.281
-0.123
0.0001563
-7.655e-05
-7.979e-05
0.0003827
0.000729
-0.001112
0.0005307
-0.001672
0.001141
0.3123
0.5213
-0.8336
-7.694e-05
-0.0001553
0.00227
-0.002649
0.0003794
0.0005911
-0.0005763
-1.48e-05
0.489
-0.0005689
0.0006653
-9.641e-05
-0.02878
0.1641
-0.0004569
0.0007983
0.0003725
9.492e-06
-0.000382
0.004786
-0.005977
0.00119
0.9752
0.1613
-1.136
6.6e-05
0.0002555
-0.0003215
-0.002453
-0.0009258
-0.0001245
7.099e-05
0.3925
1.027
0.0004055
-0.001452
2.992e-05
1.128e-05
0.3951
0.3046
-0.001619
-0.002627
-0.1655
0.007017
0.1585
-0.0003472
-0.0004285
0.0007757
0.001924
-0.0005437
-0.00138
-0.2793
0.1877
-0.0005549
0.000504
5.095e-05
0.0003028
0.0006036
-0.0009064
3.357e-05
1.71e-06
-3.528e-05
0.000488
0.0004065
-0.0008946
0.00268
-0.001481
-0.001199
-0.0002585
-0.0007135
-0.0003039
-0.000678
0.0005661
0.000203
-0.0007692
0.0007032
-0.0007519
0.0004983
-0.0008245
0.0005945
-0.0009703
0.0003758
-0.0002325
0.0002405
-7.948e-06
-0.001944
0.001465
0.0004789
0.0004965
-0.0003627
-0.0001339
-0.6004
0.9127
0.0009559
-0.0006425
-0.0003134
0.1059
-0.1923
0.0864
-0.0005291
-0.0005914
-0.1242
0.03527
0.08894
-0.0004007
0.002243
-0.3431
-0.9353
-0.1525
0.07512
-0.002288
-0.004981
0.007269
-0.0004568
-0.0004856
0.0008942
0.000616
-0.00151
-1.043
0.1276
0.9153
1.111
-0.9033
-0.2077
-0.0001818
6.293e-05
0.0002039
0.0001508
-0.0003547
0.0002716
-0.0005582
-0.0007101
0.0002733
0.0004368
-0.001925
0.0007836
0.001141
0.0003626
-0.000773
0.00122
-0.001743
0.0005232
-0.0008553
0.0005177
0.0008919
-0.0004589
0.0001566
-0.0004295
0.0002729
0.0002861
8.534e-05
-0.0003714
-1.164
0.1214
-0.0002206
-0.0006369
0.0008575
-8.793e-05
0.0007856
-0.0006976
2.657e-05
-0.005164
0.005137
0.008205
-0.003877
-0.004329
0.1831
-0.24
0.05683
1.031
0.4429
0.001642
-0.002647
-1.538e-05
-0.0002567
0.0006047
0.0008027
-2.887e-05
1.923e-05
9.635e-06
-0.0767
-0.0475
-0.983
-0.404
1.387
0.0003307
0.0002402
-0.0005709
0.0008658
-8.103e-06
-0.0008577
-0.05008
-0.007387
-0.0001851
-0.0002294
0.0004145
0.01496
-0.002445
-0.01252
-0.03148
0.0855
-0.05401
0.0006365
-0.0002449
-0.0003916
0.002418
-0.002982
0.0005639
0.0008113
-0.0008992
0.005222
-0.01004
0.004819
-2.777e-07
2.777e-07
8.659e-05
-1.935e-05
-9.298e-05
-0.0006859
-0.0004884
-0.0001916
0.0004923
0.0004514
-0.0006351
-0.0002761
0.0009112
-0.0005407
-2.821e-05
0.000419
-0.0007581
0.0003391
0.05473
0.006439
-0.06117
-0.001362
0.0004647
0.0008975
-8.356e-05
6.292e-05
2.065e-05
0.0006113
0.001805
0.7478
-1.073
0.3256
0.001309
-0.0002184
-0.005364
0.004616
0.0007479
0.002334
-0.004048
0.001714
1.078
0.4504
-0.02509
0.7729
3.093e-06
-1.459e-07
-2.947e-06
0.02313
0.006352
0.0004306
-0.0007839
0.0003532
-0.0005123
0.0005242
-1.187e-05
-0.0004187
0.0007451
-0.0003264
-0.004553
-0.001436
0.002504
0.003845
-0.006349
0.0003659
-0.0001958
0.004419
-0.007288
0.002869
0.001065
-0.0009029
-0.000162
-0.152
-0.1995
0.3515
1.057
-0.04464
-1.012
-0.002424
-0.0001611
0.002585
-0.002177
0.009035
-0.0001325
0.0005526
-0.001199
0.003533
0.0004591
-0.0005135
5.439e-05
-0.002184
0.0007486
0.001435
0.0003329
0.0002062
-0.0005392
-0.01793
0.01743
0.004421
-0.0105
-1.119
-0.3844
1.504
-0.0001639
0.0003115
-0.0001477
0.02326
0.007709
-0.001227
0.0009091
0.0003182
6.852e-08
-0.002302
0.0006582
0.001644
-0.002598
0.00162
-0.0004562
0.001259
1.253
-0.2776
-0.001621
0.001842
-0.0002217
-0.0003593
-0.0005904
0.0009496
4.113e-05
-4.252e-05
1.388e-06
0.0007878
0.004762
-0.00555
-0.001901
-0.001008
0.002909
0.0005961
0.0002957
-0.0001038
0.0002969
0.0007079
0.0007921
0.0001501
-0.0005185
0.0003685
-0.001656
-0.0011
0.002756
0.0006234
-0.0008058
0.001232
-0.002133
0.0009006
-0.003237
0.0002066
-9.461e-05
0.001629
0.003383
-0.006292
0.002909
-3.239e-07
3.239e-07
-0.001239
-0.004124
-0.06583
0.02406
0.0001636
-0.001369
0.001205
0.0002002
0.0003697
-0.0005699
1.352e-06
0.001066
-0.001068
0.1032
0.3745
-0.4778
0.0001673
-2.303e-05
-0.0001443
0.000895
-0.004272
0.001107
0.0001679
-1.508
0.5248
-7.391e-06
-2.148e-05
0.0006975
-0.0001275
0.0005624
-0.0006568
9.441e-05
-0.3856
-0.6333
1.019
-5.204e-05
0.000471
-0.0002412
0.0002824
-4.121e-05
-0.0002229
0.0007187
-0.0004958
-0.0002128
0.000866
-0.0006532
-1.191
0.8056
0.001223
-0.0007463
-0.0004765
-5.009e-05
1.364e-05
3.645e-05
-0.0003518
0.0005592
-0.0002074
0.002401
-0.002282
-0.0001191
-0.1573
0.06452
0.09279
-0.0009775
-0.0002359
-0.0002185
3.24e-05
0.0001861
-0.1627
0.1693
-0.006601
0.002727
0.0005259
-0.003253
-0.004035
0.003968
6.768e-05
-0.0007723
0.0001373
0.0006581
0.0003189
-0.002758
0.004134
-0.002615
0.0003129
-2.492e-05
-0.0004152
0.0004401
0.0001747
-0.0004113
0.2821
0.5873
-0.8694
0.0009065
0.0003163
0.0014
-0.002159
0.0007589
0.000176
-0.0001789
2.911e-06
-0.0001674
-0.0006951
-0.01275
0.009692
0.003055
0.00182
-0.000248
-6.546e-05
-0.0002467
1.029
-0.747
-7.085e-05
0.0006611
0.0002781
0.0003584
-0.0006648
-0.000285
0.0009498
8.378e-07
-1.609e-06
0.00036
-0.001025
-6.421e-05
-8.483e-05
-0.001283
-0.0002784
0.001562
-0.0005811
0.0003398
0.0002414
-0.004783
0.001235
0.003548
0.173
1.024
-1.338e-07
1.338e-07
-0.0002774
-0.000396
0.0006734
-0.0004247
0.0009127
-0.0001248
0.000113
1.178e-05
0.000251
-0.0005865
0.0003355
-4.301e-05
0.0002664
-0.0002234
0.0005861
-9.923e-05
-0.0004868
-0.0005767
0.0004974
0.5604
0.8433
-0.001075
-0.002777
0.003852
-0.004211
0.001175
0.003036
-1.496
0.3766
0.0003458
-0.0006032
0.0002574
0.0001024
0.0005326
0.00191
-0.0007258
0.000973
0.0003561
-0.001329
0.1384
-1.02
0.8819
-0.0002598
0.00148
-0.0003099
0.0001033
0.0002065
-0.2769
-0.7171
0.8555
0.004984
0.003221
0.002801
-0.003341
0.0005402
-0.0008208
-0.001104
0.0002819
1.121e-05
-0.0002932
0.001175
-0.0009951
-0.0001799
1.563e-05
-8.568e-07
-1.478e-05
-0.003882
0.0009461
0.002936
-0.004389
0.006254
-0.001866
-0.8031
-0.2703
0.0009924
-0.0002678
-0.0007246
0.0006181
-0.0002926
-0.0003254
0.0004863
-0.000399
-8.725e-05
0.0001478
-0.0002923
0.002428
-0.002092
1.079
0.08702
-1.166
0.2734
-0.2119
0.07188
-0.1265
0.05464
0.0001902
-4.599e-05
-0.0001442
0.04517
-0.8483
0.02584
-0.01615
-0.009686
-0.0001644
0.0003544
-0.00019
-0.000791
-0.0009622
0.001753
0.0002469
0.0001158
-0.0003627
-0.2169
0.8393
-0.6224
0.0005432
-0.000279
-0.0002642
-0.0003546
0.002025
-0.00167
-0.2409
-0.01445
0.2553
0.000363
0.0003878
0.6927
0.4742
-1.167
-0.0004839
-0.0002911
0.000775
-5.367e-05
-4.19e-05
9.557e-05
-0.0008695
0.0004249
0.0004446
-0.0004927
-0.001777
0.00227
4.365e-05
3.65e-05
-8.015e-05
0.1844
-0.05284
-0.1315
-0.0003079
-0.0002688
0.0005767
-0.009641
0.01008
-0.000439
-0.0003563
-9.368e-05
7.729e-05
-6.578e-05
-1.151e-05
-0.0003511
-0.000372
0.000723
0.0002203
7.746e-05
-0.0002978
-0.008018
-0.004729
0.005594
-0.006145
0.0005511
0.002158
-0.0003696
-0.001789
0.0001453
-0.0001453
-0.341
0.1957
0.1453
-0.004574
0.006825
-0.002251
0.0009367
-0.0005857
-0.000351
-0.0004954
0.0008864
-0.000391
-7.559e-05
-7.968e-06
0.0002668
-0.0002346
-3.216e-05
-0.1192
1.198
0.03682
-0.02194
-0.01488
0.0001085
4.788e-05
-0.0003659
1.745e-05
0.0003485
7.373e-05
-0.0001065
3.279e-05
-0.0008811
0.001951
-0.00107
1.473e-05
-1.473e-05
-0.0008623
0.0009057
-4.342e-05
-9.797e-05
9.797e-05
0.001284
-0.0004441
-0.00084
-8.433e-05
-5.353e-05
0.0001379
-0.003604
0.002529
7.83e-05
-5.522e-05
-2.308e-05
0.09848
-0.07308
-0.02539
0.001724
-0.001303
-0.0004203
1.094
-1.517
0.424
1.314
-1.735
0.4216
0.000379
0.001964
-0.002343
-0.04459
0.09224
-0.04764
-0.0007844
1.539e-05
0.000769
0.009069
-0.002299
-0.006769
-0.0008417
0.0003521
-0.007424
0.008283
-0.0008586
0.0416
-0.09354
0.05193
-0.0006161
7.037e-05
0.0005457
0.0006421
0.0009648
-0.001607
0.2522
-0.007
-0.008349
0.007608
0.0007415
-0.0004158
0.0007125
-0.0002967
0.08685
-0.04525
-0.0006034
0.0003135
0.0002898
-3.621e-05
3.621e-05
0.0007049
-0.0004223
-0.0002827
0.0008998
-0.002884
0.001985
0.0003353
-8.218e-05
-0.0002531
0.002616
-0.003251
0.0006345
0.0002838
-0.000269
-1.474e-05
-0.3357
0.1226
0.2131
-0.001414
0.000291
-0.00058
-0.0006473
-0.05253
0.3426
-0.0005544
0.0004123
-0.000992
8.433e-05
0.0009077
-0.001443
0.003115
-0.001673
-0.4781
-0.5502
1.028
0.2346
7.557e-05
-0.2347
0.008943
-0.005276
-0.003667
3.998e-06
2.576e-06
-6.574e-06
0.0001875
-0.002475
0.002288
3.616e-05
-3.616e-05
-0.001961
0.0009834
0.0009781
0.0008615
-0.0002244
-0.0006372
-0.001907
0.00175
0.0001573
-1.841e-05
-1.073e-05
2.914e-05
-0.0007875
-0.0002348
0.001022
-0.4104
1.369
-0.9585
-0.0002293
0.0003225
-9.322e-05
0.005814
-0.001434
-0.004379
-0.2999
1.334
-1.034
-0.00069
-0.0009944
0.001684
-2.905e-06
1.447e-06
1.458e-06
0.001254
0.004942
-0.006196
-0.0008671
0.0003297
0.0005374
0.005846
-0.00331
-0.002536
0.001262
0.003111
-0.004373
5.484e-06
1.071e-05
-1.619e-05
4.911e-05
-4.911e-05
0.0006379
0.0003033
-0.0009412
-0.08799
-0.05479
-0.4589
0.2215
0.2374
0.002878
-0.001095
-0.001783
-0.001691
0.001308
0.0003829
0.0001639
0.0002792
-0.0004432
-0.0007731
0.0004233
0.0003499
-0.0005215
3.85e-05
0.000483
0.0004489
-0.000201
-0.0002478
-0.002823
0.002425
0.000398
-0.01147
0.01714
-0.005678
0.0001858
0.0002631
-0.03046
-0.0106
0.04106
-0.0003712
-2.209e-05
0.0003932
0.1391
-0.5801
0.441
0.000514
0.0006226
-0.001137
-2.317e-05
3.105e-05
-7.878e-06
-0.002208
0.002966
-0.000758
0.0008479
-0.0006895
-0.0001584
-0.001439
0.0006835
0.0007551
-0.381
0.09787
0.2831
-0.1854
0.05393
0.1314
-9.175e-05
0.0001562
-6.44e-05
0.0082
-0.009521
0.001321
0.0001805
-0.0003475
0.000167
0.0005009
-0.000874
0.0003731
-0.0001227
0.0002294
-0.0001067
0.001089
-0.001075
-1.479e-05
0.001241
-0.0002028
-0.001038
-0.001629
0.001278
0.0003514
0.0001183
-0.0007372
0.000619
0.000193
-0.000193
-5.585e-05
0.0009297
-0.0008739
-4.683e-05
0.00035
-0.0003032
0.0005951
-0.0004818
-0.0001133
-0.0026
0.003912
-0.001312
0.000845
-0.001664
0.0008189
-8.82e-06
0.0004622
-0.0003602
0.0003809
-2.061e-05
1.227e-05
-1.714e-05
4.876e-06
-6.104e-06
3.26e-06
2.844e-06
-0.001728
0.0007888
0.0009389
-0.321
0.4242
0.5944
0.2183
-0.8127
-0.0009561
0.001341
-0.0003844
0.0001513
0.0004589
-0.0006102
0.004928
-0.0008728
-0.004056
-0.1883
1.179
-0.9903
0.0003373
0.0007387
-0.001076
-0.001574
-0.0001692
-0.002531
-0.005306
0.007837
0.0001519
9.447e-05
-0.0002464
0.003079
-0.002709
-0.0003702
-7.944e-05
0.0003645
-0.0002851
0.002291
-0.00298
0.0006891
0.7867
-0.6764
-0.008792
0.003034
0.005759
0.01148
0.0003175
-0.0118
0.0002185
-2.558e-05
-0.000193
7.492e-05
0.0001273
-0.0002022
-0.0003119
0.0002237
8.826e-05
-0.005076
0.001811
0.003265
0.002592
-0.006487
0.003895
0.000264
-0.0006388
0.0003748
-0.0007028
0.001076
-0.0003729
-0.001916
-0.001316
0.003232
0.002763
-0.001071
-0.001693
-0.0008305
-0.0001811
0.001012
0.001705
-0.001403
-0.0003026
0.000612
-0.0005129
-9.91e-05
0.0003682
-0.0002704
-9.783e-05
0.2518
-0.3147
0.06286
-0.0001314
7.572e-05
5.573e-05
-3.923e-06
-1.913e-05
2.305e-05
0.001908
-0.000508
-3.379e-05
0.001154
-0.00112
-0.0002663
5.079e-05
0.01952
-0.1178
0.09827
-0.0001697
0.0001697
-0.0001936
0.0001936
-0.1649
-1.044
1.209
1.26
0.2312
-1.491
-0.001381
0.0007562
0.0006252
0.0003891
-0.002061
0.001672
-2.073e-06
2.481e-06
-4.073e-07
-6.05e-05
9.146e-05
-3.096e-05
-0.0001885
0.001912
-0.0005215
0.0006889
-0.0001673
0.0003364
3.665e-05
-0.0003731
-0.001033
-0.004436
0.005469
0.003715
0.005121
-0.008836
-0.1886
0.05759
0.131
0.0003927
-0.0002511
-0.0001415
-0.0008094
-0.00104
0.00185
-0.0002296
0.0004921
-0.0002625
-0.004853
0.001065
0.003788
-1.778e-05
2.71e-05
-9.323e-06
0.0005933
-0.0007907
0.0001973
0.8095
-1.136
0.3266
-0.000242
0.000242
0.0003478
-0.0002267
-0.000121
0.1674
0.5626
-0.7299
0.0007147
-5.571e-05
-1.279
1.114
0.2393
-0.4235
0.1842
-0.002938
0.002044
0.0008942
-0.01131
-0.002518
0.01383
0.0001299
-7.904e-05
-5.088e-05
0.7796
-0.9467
0.1671
0.0008163
-0.0004095
-0.0004068
0.4789
-0.1385
-0.3404
0.0003798
-0.0008298
0.0004501
-0.01708
0.00536
0.01172
0.008929
-0.008174
-0.0007551
0.005818
-0.00304
-0.002779
-0.0001805
-0.0006874
0.0008679
-0.000692
-0.0003058
0.0009978
0.0003264
0.0001124
-0.0004388
0.001618
0.0003449
-0.001963
0.1491
0.6446
-0.7937
0.004926
0.06629
-0.07122
-0.003192
0.001584
0.001608
-0.0001628
-0.0008549
0.001018
0.0001004
-0.0003288
0.0002284
0.0004537
-0.000268
-0.0001857
8.996e-05
-5.358e-05
-3.638e-05
-0.0002636
-7.408e-05
0.0003377
-8.814e-05
8.814e-05
-0.0005465
0.0009531
0.001249
-0.0009005
-0.0003488
-0.0003314
0.0008783
-0.000547
-0.0009094
0.0005715
0.0003379
0.0002226
0.0001116
-0.0003342
0.004623
-0.006336
0.001712
0.008308
-0.003428
-0.00488
0.4764
-0.3555
-0.1208
-0.0007937
0.0008701
-7.635e-05
-0.0001144
0.0001684
-5.403e-05
-0.0005244
1.946e-06
0.0005224
0.4949
-1.093
0.5976
-0.0006441
0.0002266
0.0004175
0.002684
-0.001393
-0.001291
-0.002053
0.0005325
0.001521
0.001514
-0.0006801
-0.0008342
-0.000201
0.0009361
-0.0007351
0.001369
0.006662
-0.008031
0.0005392
-0.0006242
8.493e-05
-0.000929
-0.001875
0.002804
-0.001016
-0.001038
-7.686e-05
-0.000131
0.0002079
-0.0005947
-9.692e-05
0.0006916
5.506e-05
2.223e-05
-1.177
0.5406
0.6365
0.002034
-0.003956
0.001923
-0.0007222
0.0002753
0.000447
0.1316
0.05355
-0.1852
-0.0007686
0.0002191
0.0005495
0.0004794
0.0001331
-0.0006124
-1.248
1.248
0.00158
0.002491
-0.004071
-7.84e-05
0.0001368
-5.842e-05
0.06549
-0.05249
-0.013
0.006676
-0.002053
-0.003795
0.003795
-3.024e-07
0.0004283
3.813e-05
-0.0004665
0.0128
-0.009721
-0.003076
-1.267
0.5226
0.7442
0.0005459
-0.0008795
0.0003335
-0.0002145
0.0005326
-0.0003182
0.4068
-0.2578
-0.149
-0.008532
0.005087
0.003445
-0.001463
-0.02962
0.03108
-0.001238
-0.0005498
0.001788
-0.0004756
-0.0001828
0.0006584
-0.001525
-0.0007631
0.002288
-0.04923
-0.05256
0.1018
-1.019e-05
-3.346e-05
4.366e-05
-1.129e-07
-7.8e-06
7.913e-06
0.0002268
0.0007291
0.000365
-0.00131
0.0009452
-0.001413
0.002289
-0.0008767
5.303e-05
2.527e-05
-0.3922
1.243
-0.851
0.0002429
-0.001142
0.0008989
0.3534
-0.009748
-0.3436
0.0006352
-0.0008934
0.0002583
-0.001204
0.001204
2.04e-07
0.000466
0.0005773
-0.001043
0.0004189
0.001095
-3.975e-05
2.634e-05
1.34e-05
0.0002436
-0.0002683
2.469e-05
-0.5586
0.2199
0.3387
7.744e-06
-7.744e-06
-0.000339
0.0002495
8.945e-05
0.0001001
-0.0004227
0.0003225
-0.001526
-0.0001889
0.001715
-0.0003068
0.0003965
-0.001569
-0.001459
0.003028
0.00836
-0.007744
-0.000615
-0.0003337
0.0002739
5.982e-05
0.001893
-0.001312
-0.0005806
-0.009947
0.02483
-0.01488
9.862e-06
-9.862e-06
-0.0003958
0.0004915
-9.571e-05
-0.0008331
0.0003597
0.0004733
0.0004246
0.0001833
-0.0006079
0.001405
-0.001163
-0.0002417
0.0002868
0.000473
-0.0007598
-8.235e-05
-0.000295
0.0003773
6.799e-05
3.873e-05
-0.0001067
0.002091
-0.001527
-0.0005642
0.0007167
-0.0001718
-0.0005449
0.0007923
-0.00272
0.001927
-0.0003542
-0.0004337
0.0007879
-0.001071
0.0005683
0.000503
-0.006124
-0.000178
0.006302