/*--------------------------------*- C++ -*----------------------------------*\
  =========                 |
  \\      /  F ield         | OpenFOAM: The Open Source CFD Toolbox
   \\    /   O peration     | Website:  https://openfoam.org
    \\  /    A nd           | Version:  8
     \\/     M anipulation  |
\*---------------------------------------------------------------------------*/
FoamFile
{
    version     2.0;
    format      ascii;
    class       volVectorField;
    location    "10";
    object      U;
}
// * * * * * * * * * * * * * * * * * * * * * * * * * * * * * * * * * * * * * //

dimensions      [0 1 -1 0 0 0 0];

internalField   nonuniform List<vector> 
127143
(
(0.004989 -0.0002038 0)
(2.057e-05 3.475e-05 -1.943e-24)
(-6.657e-05 -0.0003278 2.911e-24)
(-8.654e-05 -0.0004058 2.127e-27)
(0.03164 0.0099 -3.327e-23)
(-7.154e-05 -0.0004371 -1.276e-27)
(0.05066 0.03182 0)
(0.03437 0.01565 -2.224e-23)
(0.02809 0.0135 7.338e-23)
(0.04227 0.001435 0)
(0.03 0.04128 -5.711e-22)
(0.03269 0.02158 -9.624e-24)
(0.001765 -0.0006675 -4.846e-25)
(-0.0001194 -0.0004951 0)
(0.2549 -0.2879 2.249e-21)
(0.09131 -0.008048 0)
(-0.0002176 -0.001111 -4.88e-24)
(0.6925 -0.07234 2.721e-21)
(0.557 -0.14 0)
(0.1818 0.06874 0)
(0.7209 -0.17 1.791e-21)
(0.02733 -0.009628 0)
(1.02 -0.1761 0)
(0.7159 -0.06713 0)
(0.02672 -0.01018 -4.22e-23)
(0.4348 -0.0681 0)
(0.35 -0.005907 4.976e-21)
(0.3476 0.008655 -7.919e-23)
(0.3781 -0.1672 0)
(0.7536 -0.05672 -4.34e-21)
(0.6532 -0.03632 0)
(0.4182 -0.06421 1.786e-21)
(0.3798 0.08761 5.957e-22)
(0.3146 -0.08224 -3.867e-21)
(0.8841 -0.09941 1.65e-21)
(0.374 0.09657 -1.321e-23)
(0.3767 -0.1258 6.901e-22)
(0.9792 -0.14 -6.459e-22)
(0.7674 -0.07085 7.539e-24)
(0.4627 0.005842 5.652e-25)
(0.5565 -0.1388 0)
(1.079 0.3148 -2.866e-23)
(1.059 0.302 -1.107e-23)
(0.003644 -0.001214 0)
(0.6939 -0.06751 -2.794e-21)
(0.3247 -0.07768 1.202e-21)
(0.3872 -0.177 0)
(0.4541 -0.1443 -1.405e-22)
(0.7985 -0.1389 -2.371e-22)
(0.7442 -0.06142 -1.752e-23)
(0.1087 -0.007054 -3.198e-23)
(0.9497 -0.0451 3.009e-21)
(0.9753 -0.109 0)
(1.083 -0.03345 -8.749e-22)
(1.001 -0.002578 -1.926e-22)
(0.711 -0.181 6.584e-22)
(1.001 -0.00281 3.71e-22)
(1.065 -0.0956 0)
(1.002 -0.01603 -3.12e-21)
(1.084 -0.02999 -1.667e-21)
(0.6449 -0.2007 -5.157e-21)
(0.6074 -0.1683 -2.377e-22)
(0.9005 -0.06585 1.45e-22)
(1.002 0.001192 -4.737e-21)
(0.6661 -0.06075 0)
(0.9798 -0.2837 -1.198e-21)
(1.049 0.04006 1.821e-21)
(0.8814 -0.06841 0)
(0.8855 -0.06847 3.436e-23)
(0.9971 0.0006323 0)
(0.6783 -0.05483 0)
(0.3789 -0.003902 -2.064e-21)
(0.4764 -0.0983 -9.928e-22)
(1.004 -0.01523 -1.67e-21)
(1.008 0.006647 -2.834e-22)
(0.3797 0.009256 2.358e-21)
(1.016 0.04477 -9.873e-22)
(0.4515 -0.1424 0)
(0.7234 -0.1863 -1.268e-21)
(1.001 0.001454 0)
(0.3735 -0.1695 3.609e-23)
(0.1986 0.06387 1.206e-23)
(0.4503 -0.1067 1.263e-21)
(0.4773 -0.0245 0)
(0.3976 -0.1212 2.702e-22)
(0.4589 -0.1446 0)
(0.8131 -0.08103 7.066e-23)
(0.4037 0.03124 1.208e-21)
(0.978 -0.282 0)
(1.033 0.5474 0)
(0.998 -0.03041 0)
(0.94 -0.1377 0)
(1.059 0.5535 0)
(0.723 -0.1702 -1.849e-21)
(0.7026 -0.1401 0)
(0.9876 -0.02274 5.555e-22)
(1.079 0.3079 7.818e-23)
(0.543 -0.04063 0)
(0.5445 -0.1602 4.76e-22)
(1.047 0.04389 0)
(1.001 0.001415 0)
(0.8116 -0.1423 0)
(0.7342 0.6488 1.289e-22)
(1.025 -0.1209 0)
(0.463 -0.1458 -2.066e-22)
(0.5398 -0.1593 6.752e-22)
(0.9162 -0.1417 6.087e-22)
(0.997 0.0006303 0)
(0.8558 -0.3565 0)
(1.007 -0.001261 3.695e-20)
(0.2658 -0.2913 -6.512e-22)
(0.405 0.02775 2.33e-21)
(0.7211 -0.1579 -1.71e-21)
(0.3053 0.2203 0)
(0.9937 0.02058 2.507e-21)
(1.045 -0.1743 6.533e-23)
(0.9907 0.05381 -4.237e-22)
(1.007 0.006889 -3.022e-22)
(1.016 0.04408 6.148e-22)
(-0.001035 -0.004396 0)
(1.006 -0.001452 -5.337e-20)
(0.4399 -0.1115 -3.068e-22)
(0.8965 -0.3249 0)
(1.069 -0.1103 -3.838e-22)
(0.3879 -0.1721 7.091e-22)
(0.3387 -0.04316 2.458e-21)
(0.6159 -0.1717 0)
(1.028 -0.001066 4.938e-21)
(0.9536 -0.07945 -3.08e-22)
(0.7068 -0.2032 -1.022e-21)
(0.492 -0.1447 0)
(0.6352 -0.1447 -8.718e-22)
(0.9438 -0.08534 -2.951e-24)
(0.4531 -0.1424 0)
(-0.0003308 -0.00196 -2.762e-23)
(0.4962 -0.1461 -3.16e-22)
(0.952 -0.069 0)
(0.7723 -0.1725 4.761e-22)
(0.4345 -0.247 -4.507e-21)
(0.992 -0.05952 4.847e-22)
(1.014 -0.2078 2.332e-21)
(0.9843 0.04541 1.949e-21)
(0.9555 -0.1303 6.11e-23)
(0.8787 -0.164 -1.158e-21)
(0.9778 -0.1092 -1.717e-22)
(1.199 0.318 2.803e-22)
(0.001056 0.03077 2.89e-21)
(1.002 0.001003 4.122e-21)
(0.6283 -0.143 7.584e-22)
(0.7348 0.6023 6.541e-23)
(1.006 -0.1105 9.759e-23)
(0.8312 -0.161 0)
(0.9973 -0.1322 2.33e-21)
(0.8892 -0.1814 0)
(0.5044 -0.3834 0)
(0.4008 -0.1215 0)
(1.065 -0.09473 3.971e-23)
(0.6797 -0.2382 0)
(0.4553 -0.1445 -2.621e-22)
(0.5163 -0.04452 3.576e-23)
(0.7051 -0.04233 0)
(0.09726 -0.05177 7.252e-21)
(0.999 -0.03095 1.453e-22)
(0.4924 -0.1449 -8.435e-22)
(0.5571 -0.1433 0)
(0.6977 -0.0653 1.44e-21)
(0.3721 -0.123 -3.898e-22)
(0.8298 -0.3246 1.415e-21)
(0.9177 0.194 -6.042e-22)
(0.9386 0.05146 -1.396e-22)
(0.1752 -0.06441 0)
(0.877 -0.164 5.402e-22)
(1.039 -0.1834 3.462e-22)
(0.9688 -0.2769 -1.368e-21)
(0.9844 -0.0007875 2.193e-20)
(0.2978 -0.1065 8.122e-24)
(1.175 0.3825 -2e-23)
(0.9529 -0.07877 -2.973e-22)
(0.7583 -0.07679 0)
(0.9524 -0.03264 1.373e-21)
(0.9688 -0.2773 -4.763e-22)
(1.017 -0.04238 0)
(0.2854 -0.104 1.301e-22)
(0.2984 -0.1067 -8.301e-24)
(0.7162 -0.2083 1.99e-21)
(0.6106 -0.1686 4.222e-22)
(1.019 0.1696 -6.993e-23)
(0.3231 0.2378 -7.855e-22)
(0.7351 -0.06943 -4.012e-24)
(0.9755 -0.0393 3.708e-21)
(0.9146 -0.1173 1.368e-22)
(0.8452 -0.1071 -9.721e-22)
(0.956 -0.06738 3.379e-21)
(0.3316 0.5419 -7.02e-22)
(-0.0001472 -0.002035 4.611e-23)
(0.6868 -0.1776 0)
(1.001 2.028e-05 0)
(1 -3.896e-07 -1.385e-22)
(0.08461 0.05269 0)
(0.9861 0.02883 5.724e-22)
(1.019 0.01531 2.174e-21)
(0.9182 0.009911 5.327e-21)
(0.8533 -0.04135 -3.239e-21)
(0.3828 -0.1275 -3.288e-22)
(-0.0001605 -0.001067 6.53e-25)
(0.8588 -0.05109 2.164e-22)
(1.012 -0.1262 8.999e-22)
(1.002 -0.175 -1.152e-22)
(0.7611 -0.05995 5.951e-21)
(0.9937 0.02001 -1.274e-21)
(0.9009 -0.1184 9.668e-22)
(0.3692 -0.1191 1.857e-22)
(0.9838 -0.01071 2.596e-21)
(0.9271 0.195 -6.251e-22)
(0.4601 -0.1363 -7.401e-24)
(0.1088 0.01204 0)
(0.1211 -0.04327 -2.619e-22)
(1.001 -0.1925 8.045e-22)
(0.6335 -0.1565 -1.173e-21)
(1.013 -0.125 1.94e-22)
(1.173 0.3793 -2.934e-23)
(1.002 0.01031 -1.056e-20)
(0.8248 -0.1598 -2.436e-22)
(0.9959 -0.1048 1.66e-22)
(0.4862 -0.04325 0)
(0.1721 -0.06272 0)
(0.6209 -0.1599 -1.243e-21)
(0.9831 -0.1382 6.721e-22)
(0.2371 -0.08366 2.963e-22)
(0.5698 -0.1656 7.692e-22)
(0.7216 -0.168 1.14e-21)
(1.017 -0.04361 1.622e-21)
(0.484 -0.1007 1.983e-21)
(0.002856 -0.0222 0)
(0.7226 -0.168 0)
(1.062 -0.1066 -5.496e-22)
(0.4925 -0.1451 3.999e-22)
(0.01051 -0.001601 1.723e-23)
(1.019 0.01482 -2.3e-21)
(0.927 -0.122 6.75e-22)
(0.8532 -0.1079 8.892e-22)
(0.7767 -0.05067 -2.014e-21)
(0.3593 -0.1206 -8.09e-23)
(0.6912 -0.2425 -1.07e-24)
(1.041 -0.1007 0)
(-0.0008249 -0.004534 2.664e-26)
(0.886 -0.1758 1.007e-21)
(0.3404 -0.006415 0)
(0.01817 -0.005017 4.709e-22)
(0.9967 0.001022 -7.122e-21)
(1.194 0.2312 -8.873e-22)
(0.4438 -0.04851 -4.32e-22)
(0.9875 -0.2283 0)
(0.8147 -0.1673 0)
(0.7941 -0.191 9.886e-22)
(0.8709 -0.355 0)
(1.028 -0.001333 -4.542e-21)
(1.003 0.2715 0)
(1.007 -0.2538 0)
(0.8894 0.1334 5.261e-22)
(0.7227 -0.1787 -8.722e-22)
(1.001 -0.05255 -1.226e-21)
(0.944 -0.1355 1.424e-23)
(0.9831 0.04478 -1.606e-21)
(1.048 -0.08235 0)
(0.7393 -0.05927 -6.667e-22)
(0.3616 -0.1144 1.035e-21)
(0.4719 -0.3819 0)
(0.717 -0.3079 3.387e-21)
(1.097 -0.06241 -6.853e-22)
(0.5926 -0.1075 0)
(0.9836 -0.0009227 -2.526e-20)
(0.4638 -0.1461 -2.235e-22)
(0.9236 -0.1226 -7.164e-22)
(0.9453 -0.06366 2.144e-22)
(0.9203 -0.1173 -6.543e-22)
(0.7233 -0.1587 0)
(0.8322 -0.1291 -9.856e-22)
(0.9727 -0.003313 1.644e-21)
(0.9847 -0.2897 7.168e-22)
(0.9893 -0.001409 -3.312e-21)
(0.9726 -0.01809 1.374e-23)
(1.028 -0.121 3.999e-25)
(0.9893 0.00746 0)
(1.006 0.02025 -6.808e-22)
(-0.0007446 -0.00196 -6.752e-24)
(0.5369 -0.149 0)
(0.9943 0.02199 1.18e-21)
(0.8083 -0.1118 -6.519e-22)
(0.9488 -0.03359 3.043e-21)
(0.9983 -0.1315 -2.851e-21)
(1.04 -0.2109 0)
(1.061 -0.1078 5.425e-22)
(1.033 -0.1999 0)
(0.9892 -0.02146 -2.399e-21)
(0.8465 -0.3692 -4.498e-23)
(0.6341 -0.05328 3.917e-23)
(0.1804 -0.06363 -1.428e-22)
(0.3592 -0.1209 3.05e-22)
(1.098 -0.0613 3.939e-22)
(0.5813 -0.06343 1.145e-22)
(1.012 -0.2571 -2.079e-22)
(0.9092 -0.2937 -1.156e-21)
(1.047 -0.1747 -7.449e-22)
(0.4676 -0.03556 0)
(0.6754 -0.4043 5.394e-24)
(1.004 -0.1754 -4.013e-23)
(0.9831 -0.01087 0)
(0.7629 -0.1749 -7.249e-24)
(0.9725 -0.1039 1.283e-22)
(0.9007 -0.137 5.223e-22)
(0.1319 -0.09287 -3.551e-23)
(0.6939 -0.1681 0)
(0.99 -0.001421 -1.529e-21)
(0.9838 0.009885 -4.605e-21)
(1.143 0.3894 3.104e-23)
(0.9746 -0.1399 3.471e-22)
(0.5633 -0.05938 -2.165e-22)
(0.9855 -0.1101 2.199e-21)
(0.9202 -0.01519 6.717e-21)
(1.017 -0.1746 0)
(0.6602 -0.04644 -2.255e-22)
(1.026 -0.01469 1.308e-21)
(0.9869 -0.2277 3.497e-22)
(1.14 0.3868 0)
(1.001 -0.123 -5.953e-22)
(0.9018 -0.04994 2.382e-21)
(0.339 0.001522 -2.251e-23)
(0.7138 0.04412 2.807e-22)
(1.137 0.4381 1.692e-22)
(0.561 -0.1644 0)
(1.006 0.01997 5.995e-22)
(0.8879 -0.09921 -4.862e-21)
(1.001 1.563e-05 0)
(1 -2.144e-07 0)
(0.8862 -0.1757 0)
(0.8652 -0.3547 -2.281e-22)
(1.039 -0.184 3.573e-22)
(0.5599 -0.1641 -3.026e-22)
(0.5402 -0.1459 -2.623e-21)
(0.9922 -0.05806 -1.994e-21)
(1.001 -0.1923 0)
(0.9869 -0.1112 1.482e-22)
(0.9279 -0.117 1.052e-22)
(0.3576 -0.1451 8.034e-24)
(0.8048 -0.1115 4.626e-22)
(0.5255 -0.1259 -8.46e-22)
(0.749 -0.1476 5.963e-22)
(0.6168 -0.07361 3.646e-22)
(0.9552 -0.06158 0)
(0.6297 -0.07113 -2.499e-22)
(0.6331 -0.1551 7.471e-22)
(0.3044 -0.1069 -1.486e-22)
(0.9235 -0.1171 4.685e-22)
(0.9209 0.04679 0)
(0.5287 -0.1286 -1.959e-21)
(0.8119 -0.1673 -6.834e-22)
(1.207 0.2841 -2.235e-22)
(0.9793 -0.01521 2.908e-21)
(0.6992 0.04804 0)
(0.4737 -0.1468 -3.805e-22)
(0.9119 -0.06654 3.98e-23)
(0.7483 -0.1314 -1.958e-21)
(0.754 -0.05436 0)
(0.7496 -0.06385 -3.383e-23)
(1.004 0.005261 -7.454e-23)
(0.9865 0.02816 -1.799e-21)
(0.9533 -0.007117 0)
(0.5208 -0.09754 7.403e-22)
(0.9749 -0.002866 0)
(0.5505 -0.2321 5.194e-21)
(1.025 -0.01638 -2.844e-21)
(0.503 -0.05442 3.523e-22)
(0.7384 -0.05601 1.389e-22)
(0.9801 -0.03772 0)
(1.009 -0.07339 -1.319e-22)
(0.6727 -0.0633 -5.958e-23)
(0.03889 -0.04149 1.044e-25)
(0.5336 -0.1592 -1.264e-21)
(0.9701 -0.004555 7.56e-22)
(0.8147 -0.1605 -4.028e-21)
(0.3833 -0.04893 -2.2e-21)
(0.6504 -0.08205 0)
(1.011 -0.2597 -1.176e-21)
(0.9909 0.05291 0)
(0.1865 -0.01282 0)
(0.9654 0.09825 0)
(0.4784 0.004978 0)
(0.685 -0.1771 -2.52e-22)
(0.8932 -0.1649 -2.42e-21)
(1.011 -0.01058 -6.689e-21)
(0.8678 -0.2702 0)
(0.2072 -0.07384 2.713e-22)
(0.7931 -0.2008 1.019e-21)
(0.7303 -0.06742 -2.338e-24)
(0.619 -0.0439 1.392e-22)
(0.8722 -0.2713 -1.055e-21)
(0.6758 -0.03682 0)
(0.9194 0.04476 0)
(0.9994 -0.05167 0)
(0.4153 -0.03353 -1.214e-22)
(1.002 0.009889 4.44e-21)
(0.7691 -0.1667 0)
(0.2889 -0.1045 0)
(0.9697 0.0981 0)
(0.991 -0.1204 -1.935e-22)
(0.4729 -0.1481 -1.186e-21)
(0.9403 -0.09042 -6.172e-23)
(0.9999 0.001272 -5.558e-20)
(0.7752 -0.07893 0)
(0.8468 -0.3721 0)
(0.6209 -0.08684 1.226e-21)
(1.014 -0.2062 -2.352e-21)
(0.4755 -0.1488 0)
(0.9027 -0.327 0)
(0.7091 -0.1408 -7.614e-22)
(0.5917 -0.162 -1.225e-21)
(0.5483 -0.1024 0)
(1.04 -0.108 4.683e-22)
(0.797 -0.3167 -7.361e-22)
(0.3755 -0.1243 0)
(0.1049 -0.03694 -1.312e-21)
(0.4505 -0.1312 0)
(0.9977 0.001165 2.333e-21)
(0.5667 -0.165 -9.525e-22)
(0.9335 0.1602 -2.931e-22)
(1.054 0.291 8.047e-24)
(0.9723 -0.199 -1.293e-21)
(0.7978 -0.05577 1.887e-21)
(1.006 -0.1471 -6.829e-22)
(1.006 -2.175e-05 0)
(0.4454 -0.1312 0)
(0.298 -0.1048 0)
(0.8607 -0.1313 5.719e-21)
(1.131 -0.01821 9.584e-23)
(1.004 0.005178 1.902e-21)
(0.9922 -0.1509 -3.739e-22)
(0.5652 -0.1277 -1.496e-21)
(0.9505 -0.044 -1.59e-21)
(0.9884 -0.02053 0)
(0.9956 -0.002084 -2.675e-21)
(0.7607 -0.06293 3.112e-23)
(0.9464 -0.07118 -1.794e-21)
(0.8664 -0.3587 2.539e-22)
(0.9545 0.04662 0)
(0.5598 -0.04256 -8.987e-24)
(0.9789 0.00973 6.477e-21)
(0.5791 -0.4 0)
(0.9503 -0.007898 -9.729e-22)
(0.3692 -0.1182 1.662e-22)
(0.6557 -0.1695 0)
(0.6908 -0.0866 -6.958e-24)
(0.999 -0.121 4.067e-22)
(0.527 -0.09037 4.691e-21)
(0.8759 0.05285 7.062e-23)
(0.3799 -0.1261 -1.233e-22)
(0.5756 -0.06788 1.852e-22)
(0.8473 -0.04872 0)
(0.4049 -0.1326 0)
(1.046 -0.1044 5.898e-22)
(0.9512 -0.08616 -2.135e-24)
(1.01 -0.08145 4.471e-22)
(0.844 -0.1741 0)
(0.3781 0.2124 -3.997e-21)
(1.004 -0.08193 9.266e-25)
(0.9878 -0.0001728 0)
(1.009 0.03926 0)
(0.8574 -0.1523 0)
(0.4629 -0.1221 9.566e-22)
(1.001 -9.89e-05 0)
(0.5728 -0.1649 6.142e-22)
(0.9697 -0.1276 1.47e-21)
(1.07 -0.1094 5.686e-22)
(0.9766 -0.1395 -1.113e-22)
(1.008 -0.1118 1.13e-21)
(1.009 0.0005878 0)
(0.438 -0.3515 -2.662e-21)
(0.9732 -0.1253 -1.329e-21)
(0.2392 -0.08325 -2.361e-22)
(1.013 -0.108 2.806e-23)
(0.3631 -0.1946 4.77e-22)
(0.5701 -0.4008 -5.348e-22)
(0.7225 -0.1071 4.158e-22)
(0.694 -0.1665 0)
(0.8543 -0.3708 0)
(1.131 -0.01762 -9.898e-23)
(1.021 -0.1091 -1.98e-23)
(1.018 0.006463 3.918e-21)
(0.556 -0.04685 -8.171e-23)
(0.9577 0.02422 2.821e-21)
(1.159 0.3989 9.811e-24)
(0.8284 -0.08298 -6.025e-23)
(0.9682 -0.1058 0)
(1.202 0.3028 1.323e-22)
(-0.0002921 -0.001904 0)
(0.467 -0.1406 1.022e-21)
(0.3736 0.05136 5.618e-22)
(1.06 -0.0736 -2.729e-23)
(0.9496 0.5268 -4.808e-22)
(0.9848 -0.004533 -1.88e-20)
(0.359 -0.1994 0)
(1.01 0.03906 8.792e-25)
(0.342 -0.1168 0)
(0.6938 -0.1782 -9.163e-22)
(-0.0002011 -0.001156 0)
(0.008416 0.01178 4.505e-23)
(0.01361 -0.004695 -9.228e-24)
(1.001 -0.0005179 -2.776e-20)
(0.5338 -0.1302 0)
(1.121 0.03852 0)
(0.9843 0.01001 9.711e-21)
(0.5058 -0.1529 5.841e-22)
(0.884 -0.3215 1.602e-21)
(0.4316 -0.1356 7.618e-22)
(1.027 -0.1497 0)
(0.652 -0.1687 0)
(0.6849 -0.0847 2.653e-22)
(0.574 -0.1658 -6.306e-22)
(0.2507 -0.04809 5.221e-22)
(0.9896 0.0001189 0)
(0.3454 -0.1095 -2.453e-22)
(0.01885 -0.006831 0)
(0.7718 -0.3124 4.716e-22)
(0.59 -0.05808 -1.713e-23)
(0.1835 -0.06686 1.158e-22)
(1.006 -0.01395 -2.118e-21)
(1.009 -0.1103 9.751e-23)
(0.8592 -0.04244 -8.028e-22)
(0.8483 -0.1739 1.018e-21)
(1.002 -0.01267 0)
(0.5157 -0.04188 0)
(0.7667 0.3378 0)
(0.2167 -0.07654 -4.137e-22)
(1 -1.218e-05 0)
(0.8562 -0.1519 -5.376e-22)
(1.059 -0.1262 5.109e-22)
(0.15 -0.05835 6.187e-25)
(0.8284 -0.3798 2.985e-22)
(0.8359 0.2181 1.635e-22)
(0.8101 -0.1756 -3.991e-22)
(0.9521 0.01379 2.011e-22)
(0.2956 -0.101 -2.101e-22)
(0.9115 -0.3426 -7.302e-22)
(1.001 -9.159e-05 -6.82e-23)
(1.011 -0.2585 1.565e-21)
(1.038 -0.1101 -3.28e-21)
(0.6556 -0.05603 -3.339e-23)
(0.762 -0.05431 1.172e-22)
(0.4478 -0.1182 -1.036e-21)
(0.2702 -0.09052 2.372e-22)
(0.6882 -0.1776 4.515e-22)
(1.113 -0.04827 0)
(0.8213 -0.32 5.744e-22)
(0.4151 -0.1337 0)
(0.4524 -0.1329 2.477e-23)
(1.022 -0.003131 -5.697e-22)
(0.5038 0.00266 9.554e-23)
(0.5456 -0.1523 -4.895e-22)
(0.615 -0.09263 -1.201e-21)
(0.9337 -0.1009 1.926e-22)
(0.382 -0.1273 3.08e-22)
(1 0.002665 0)
(0.9996 0.00341 1.224e-20)
(0.8944 0.1292 -8.476e-22)
(0.5186 -0.124 -4.261e-22)
(0.9206 0.5546 0)
(0.9821 0.01212 -4.856e-21)
(1.004 0.0008156 -2.762e-21)
(0.926 -0.3377 0)
(0.7046 -0.306 0)
(0.4645 -0.1465 3.88e-22)
(0.8529 -0.3714 0)
(0.221 -0.07423 1.016e-21)
(0.1436 -0.04753 0)
(1.031 -0.2294 -3.267e-22)
(1.014 0.04271 0)
(1.003 -0.0004293 1.987e-21)
(0.221 -0.07847 3.859e-22)
(0.5801 -0.1644 -4.768e-22)
(0.9589 -0.2208 1.051e-21)
(1 -0.0002235 1.813e-20)
(0.3747 -0.006071 1.093e-21)
(0.9523 -0.09632 0)
(0.524 -0.1418 9.22e-22)
(0.9704 -0.004434 -3.098e-21)
(0.4979 -0.06109 -8.516e-23)
(0.9816 0.01156 7.681e-21)
(0.4787 -0.1496 -1.874e-22)
(0.2981 -0.0977 0)
(0.8627 -0.1697 4.895e-23)
(0.9971 -5.68e-06 -3.11e-21)
(0.3294 -0.1081 -9.23e-22)
(0.7242 -0.1793 -2.155e-22)
(0.1673 -0.1042 -9.273e-21)
(1.009 0.0005541 -3.222e-21)
(0.9239 -0.1435 -5.775e-22)
(0.1232 -0.04356 1.207e-22)
(0.9957 -0.002328 0)
(0.9924 -0.1207 0)
(0.9876 0.02077 -1.294e-22)
(0.8163 -0.05842 8.928e-23)
(1.005 -0.1177 0)
(0.9895 0.007058 7.657e-21)
(0.4657 -0.1149 2.7e-21)
(0.727 -0.09752 -2.819e-22)
(0.1152 -0.06815 0)
(0.814 -0.1244 -1.127e-21)
(0.9677 -0.1298 -1.132e-22)
(0.6443 -0.0726 6.962e-22)
(0.6582 -0.08028 3.395e-22)
(0.3825 -0.2826 -2.523e-21)
(0.7822 -0.07288 -4.741e-24)
(1.061 0.5541 7.156e-24)
(0.8116 -0.007235 -2.778e-22)
(0.3035 -0.1058 -1.524e-22)
(1.016 -0.09019 -1.753e-22)
(0.5212 -0.04702 3.959e-24)
(1.002 -0.0002422 0)
(0.7097 -0.1481 -1.102e-21)
(0.9868 0.008619 -2.335e-21)
(0.3666 -0.1243 -1.478e-21)
(1.033 0.01312 2.297e-21)
(0.9581 -0.1303 8.468e-22)
(1.006 -1.935e-05 0)
(0.9938 0.02175 3.003e-21)
(1.062 -0.09356 -8.458e-23)
(0.8002 -0.3189 3.721e-22)
(0.6915 -0.1635 7.86e-22)
(1.006 0.0004005 1.512e-20)
(1.006 -0.00254 -3.751e-21)
(0.2441 -0.08567 -2.795e-22)
(0.622 0.07621 0)
(0.4883 -0.115 1.099e-21)
(0.5707 -0.04891 -6.149e-23)
(0.4627 -0.1375 0)
(0.8661 -0.3581 -2.592e-22)
(0.6513 -0.1693 -1.163e-22)
(0.845 -0.3721 0)
(0.931 -0.1173 -1.465e-23)
(0.4189 -0.1246 -2.871e-21)
(0.6635 -0.05278 0)
(1.006 0.0003899 -2.29e-21)
(0.9168 -0.04367 1.147e-21)
(0.9338 -0.1199 5.235e-23)
(1.057 -0.1756 1.926e-22)
(1.033 -0.1093 0)
(1.002 -0.02856 -8.033e-21)
(1.004 0.0007719 2.973e-22)
(1.005 -0.1222 -5.856e-22)
(0.481 -0.2712 3.277e-26)
(1.02 -0.1091 1.006e-22)
(0.06406 -0.02022 2.718e-22)
(1.033 0.01464 0)
(1.002 0.0005573 3.079e-22)
(0.4412 -0.136 0)
(0.8226 -0.07724 0)
(0.9199 0.01048 -4.21e-21)
(0.6378 -0.07667 -7.864e-22)
(1.051 -0.1624 0)
(0.9887 -0.01865 3.215e-22)
(0.3627 -0.1103 1.453e-21)
(1.013 -0.2411 -2.54e-22)
(0.9386 -0.1197 3.317e-22)
(0.9015 -0.2125 -3.565e-21)
(0.003698 -0.001138 0)
(0.1791 -0.06492 0)
(0.407 -0.1332 -1.063e-22)
(0.379 -0.1268 2.205e-22)
(0.5378 -0.1485 0)
(0.7842 -0.1173 9.217e-22)
(0.5365 -0.071 1.59e-22)
(0.6912 -0.1079 0)
(0.9424 -0.03063 -7.232e-22)
(0.9463 -0.08904 1.235e-21)
(0.2254 -0.09866 0)
(0.7717 -0.1667 -9.711e-22)
(1.006 -0.001485 8.867e-21)
(0.8457 -0.1311 7.458e-22)
(0.9588 -0.2808 0)
(0.6544 -0.1076 -1.644e-21)
(1 -6.82e-06 8.645e-22)
(1.006 -0.001611 -9.732e-21)
(0.02294 0.01676 0)
(1.06 -0.07187 7.603e-23)
(0.748 -0.1403 -1.068e-21)
(0.8289 -0.1132 -5.686e-23)
(0.705 -0.3976 0)
(0.7634 -0.1755 1.77e-21)
(1.13 0.001057 0)
(0.5207 -0.04276 7.2e-23)
(0.7495 -0.08223 2.7e-21)
(0.7934 -0.2098 0)
(1.018 0.005994 -1.732e-21)
(1.01 -0.0004279 0)
(1.195 0.2584 0)
(0.9408 0.1589 0)
(0.5457 -0.1044 1.643e-22)
(0.661 -0.1153 0)
(0.5879 -0.2424 2.806e-21)
(0.487 -0.1458 0)
(0.7543 -0.3106 -1.02e-21)
(0.9055 -0.1161 5.987e-21)
(0.7554 -0.1307 2.751e-21)
(0.9967 6.972e-05 5.533e-22)
(0.5958 -0.03652 -7.46e-23)
(1.01 -0.1114 1.311e-22)
(0.7773 -0.1795 -8.616e-22)
(-0.0003763 -0.002081 6.675e-24)
(0.9725 -0.1503 -1.719e-22)
(1.053 -0.08069 -9.043e-22)
(0.538 -0.1603 1.293e-21)
(0.9969 -7.034e-06 3.456e-21)
(0.9135 -0.09877 -4.644e-24)
(0.7501 -0.06557 -1.445e-23)
(0.07564 -0.02591 0)
(0.6267 -0.1297 8.137e-22)
(0.8433 -0.1735 7.811e-22)
(0.9309 -0.1174 -2.243e-22)
(0.7657 0.6186 0)
(0.5895 -0.1614 1.151e-21)
(0.6958 -0.3729 1.245e-21)
(0.5625 -0.1534 -3.044e-22)
(0.8181 -0.1981 2.24e-22)
(0.8938 -0.09621 -1.375e-22)
(0.9768 -0.1045 -5.891e-23)
(0.6187 -0.1722 6.809e-22)
(1.052 -0.1954 7.342e-22)
(0.005522 -0.0003215 0)
(0.9574 -0.2826 0)
(0.9383 0.04933 1.237e-21)
(0.9223 -0.2061 -3.116e-22)
(0.8321 -0.3565 7.434e-22)
(0.8337 -0.08702 2.371e-23)
(1.012 0.0008728 0)
(0.2604 -0.1022 -9.629e-23)
(0.638 -0.1549 -1.487e-21)
(0.4658 -0.1465 -3.591e-22)
(1.002 0.0005476 -4.38e-22)
(0.06254 -0.02394 0)
(0.4578 -0.1341 0)
(0.5006 -0.06265 -8.643e-22)
(0.9956 6.857e-05 -1.909e-21)
(0.6751 -0.1071 9.883e-22)
(0.3166 -0.1096 0)
(0.6399 -0.121 1.463e-21)
(0.8677 -0.09275 -6.78e-22)
(0.9958 4.294e-05 1.798e-21)
(0.5002 -0.154 -6.791e-22)
(0.1911 -0.0749 0)
(0.418 -0.1152 2.037e-21)
(0.8182 -0.1655 0)
(0.9845 0.03058 -5.02e-22)
(0.9883 -0.1108 1.336e-22)
(0.2296 -0.1886 0)
(1.025 0.005237 -1.237e-21)
(1.001 -0.1838 5.636e-22)
(1.042 -0.2202 0)
(0.7923 -0.1167 -8.948e-22)
(0.468 -0.1401 0)
(1.011 -0.2559 -6.145e-22)
(0.9689 -0.1498 0)
(0.4047 -0.05209 -2.581e-22)
(0.3743 -0.1172 0)
(0.9998 -1.415e-05 -1.767e-21)
(0.4984 -0.1537 6.377e-22)
(0.5557 -0.16 1.161e-22)
(0.3974 -0.03093 0)
(0.646 -0.09264 -8.31e-22)
(1.078 -0.04359 0)
(0.5076 -0.1529 0)
(0.2788 -0.09211 5.518e-23)
(0.9999 -1.961e-05 1.495e-21)
(0.4361 -0.1372 -7.472e-22)
(0.3642 -0.1092 0)
(1.008 -0.1109 0)
(0.005871 -0.02778 -6.936e-24)
(1.01 -0.1103 -1.052e-22)
(0.2184 -0.07798 6.216e-22)
(0.7906 -0.1542 -1.897e-22)
(0.3589 -0.1201 0)
(1.026 -0.2355 0)
(1.001 -0.000466 1.373e-20)
(0.002084 -0.000798 -3.405e-24)
(0.5192 -0.1486 1.043e-21)
(0.8218 -0.1263 1.049e-21)
(0.1849 -0.0658 3.361e-22)
(0.4293 -0.1386 -7.619e-22)
(0.3185 -0.1069 7.715e-22)
(0.4063 -0.1277 -3.033e-22)
(0.6978 -0.05675 0)
(1.003 -0.0003942 0)
(0.6263 -0.1471 0)
(1.024 -0.1272 -7.159e-24)
(0.9965 0.0001017 0)
(0.4065 -0.1259 -1.173e-21)
(1.161 0.3977 0)
(0.9091 -0.137 -4.708e-22)
(0.9052 -0.3186 -4.955e-22)
(1.007 0.0002348 -7.435e-21)
(0.6561 -0.1704 0)
(0.2946 -0.1051 0)
(1.018 0.006475 -4.809e-21)
(1.008 0.0002433 0)
(1.031 -0.1112 0)
(0.5958 -0.1672 9.127e-22)
(0.4632 -0.1381 -4.134e-22)
(0.3119 -0.1061 3.625e-22)
(0.4761 -0.1491 5.493e-22)
(0.1694 0.006155 5.507e-24)
(1.014 -0.1339 0)
(0.8013 -0.2421 -2.406e-21)
(1.006 -0.001543 0)
(0.4979 -0.1512 -5.196e-22)
(0.3752 -0.1244 0)
(0.6472 -0.04124 -1.847e-22)
(0.5005 -0.04019 0)
(0.8294 -0.3204 -1.309e-21)
(0.9989 0.001025 0)
(1.007 -0.01316 5.478e-22)
(0.9426 -0.01047 -1.03e-21)
(0.3741 0.002172 1.193e-21)
(1.006 -0.001421 1.212e-21)
(0.9027 -0.1114 -2.931e-21)
(0.5074 -0.3084 5.859e-22)
(0.9247 -0.1172 -3.825e-22)
(0.4287 -0.06641 1.343e-21)
(0.9908 -0.003932 0)
(0.3376 -0.1145 -2.84e-22)
(0.918 -0.1106 2.178e-22)
(1.002 0.01227 0)
(0.623 -0.07384 -3.093e-22)
(1.001 -0.0001154 0)
(0.756 -0.3837 1.572e-21)
(0.1449 -0.1988 -2.777e-21)
(0.7665 -0.1046 -3.114e-23)
(1.06 -0.08764 0)
(0.4074 0.006222 1.396e-22)
(0.9955 -0.02976 3.495e-22)
(0.4306 -0.1145 0)
(0.9028 -0.2271 -1.022e-21)
(0.5247 -0.04113 0)
(0.2035 -0.09707 -1.455e-22)
(0.5531 -0.07095 -2.8e-22)
(0.488 0.6542 8.764e-22)
(1.079 -0.04005 -8.884e-22)
(1.052 -0.1986 -5.744e-22)
(0.8992 -0.3393 1.29e-23)
(0.1334 -0.01079 0)
(0.9997 0.01481 0)
(0.9568 -0.147 1.889e-21)
(0.7412 -0.2391 0)
(1.034 0.1858 4.383e-23)
(0.2251 -0.09865 4.926e-23)
(0.2726 -0.04847 0)
(0.9999 0.001033 0)
(0.8576 -0.09174 2.791e-21)
(0.2201 -0.07693 -1.852e-22)
(0.4179 -0.09823 -5.402e-21)
(0.1947 -0.003576 6.238e-21)
(1.142 0.09405 0)
(0.03216 -0.0325 -1.142e-21)
(1.059 0.1257 -1.603e-22)
(0.1458 0.01324 1.416e-21)
(0.6064 -0.1478 -6.797e-22)
(0.1964 -0.06924 6.125e-22)
(0.6319 -0.1469 5.765e-22)
(0.1929 -0.0141 2.129e-22)
(1.007 0.04937 -6.406e-23)
(0.8875 -0.1282 0)
(1.004 0.0005412 0)
(0.9973 -5.377e-06 0)
(0.9278 -0.136 5.321e-22)
(1.034 0.02402 -8.828e-24)
(0.8767 -0.1106 7.671e-22)
(0.5493 -0.07329 -2.33e-21)
(0.3104 0.1952 0)
(1.05 -0.1089 3.502e-22)
(0.9705 -0.0502 -2.279e-21)
(1.114 0.4014 1.505e-22)
(0.9113 -0.2074 7.91e-22)
(1.011 -0.01025 4.884e-21)
(0.712 -0.1528 3.724e-23)
(0.4068 -0.132 -1.708e-22)
(0.9737 -0.04829 2.882e-21)
(0.4751 -0.1096 -3.096e-21)
(0.03665 -0.01287 -6.149e-22)
(0.3064 -0.07262 0)
(1.002 -0.2051 0)
(0.2784 -0.3 -2.059e-21)
(0.8886 -0.1655 0)
(0.2899 -0.09879 0)
(0.988 -0.001484 7.739e-21)
(0.9727 -0.1051 3.726e-22)
(0.7831 -0.1788 8.944e-22)
(0.9812 -0.01515 0)
(0.471 -0.1167 1.186e-21)
(0.5374 -0.1517 0)
(0.6307 -0.1705 -4.386e-22)
(1.001 -0.0001134 -6.804e-22)
(0.9337 -0.009849 -1.567e-21)
(0.7589 -0.155 0)
(0.1299 0.007335 1.05e-23)
(0.9504 -0.3219 -8.371e-22)
(0.03686 -0.01187 0)
(0.6012 -0.1679 6.729e-22)
(0.844 -0.3684 0)
(0.9343 -0.2051 -1.471e-22)
(0.1042 -0.03813 0)
(0.8339 -0.06079 3.686e-22)
(0.9976 -2.915e-05 -1.414e-21)
(0.4466 -0.2628 0)
(1.131 0.1792 -6.223e-22)
(1.005 0.0005482 0)
(0.8893 -0.3542 1.666e-23)
(0.02715 -0.0097 4.139e-23)
(0.8539 -0.1652 -5.777e-22)
(0.9389 0.05248 -1.032e-21)
(1.011 -0.04618 2.742e-22)
(1.039 -0.1656 -1.429e-22)
(0.07718 -0.02791 -5.742e-25)
(0.06579 -0.006738 -5.718e-23)
(0.7222 -0.07576 0)
(1.014 0.04296 -3.834e-22)
(0.9946 0.007417 2.698e-21)
(1.005 -0.1943 0)
(0.8273 -0.3782 -2.026e-22)
(0.3886 -0.1256 -1.113e-21)
(0.4935 -0.1146 0)
(0.2979 0.3756 -1.744e-21)
(0.5373 -0.226 -1.752e-21)
(0.6653 0.0178 -4.046e-23)
(1.062 -0.005394 -1.223e-21)
(0.5331 -0.2219 -1.718e-21)
(0.9879 -0.06485 2.204e-21)
(0.4686 -0.0377 0)
(1.012 0.002267 0)
(0.4609 -0.1458 6.632e-23)
(0.08268 -0.06105 -1.183e-23)
(0.8739 -0.1577 -1.498e-21)
(0.4847 -0.1367 0)
(0.5749 -0.1635 0)
(0.9913 0.004571 -6.814e-21)
(0.9667 0.004463 1.966e-21)
(0.2065 -0.07265 0)
(1.008 -0.2253 1.986e-21)
(0.3033 -0.1037 0)
(0.7621 -0.09985 0)
(0.2664 -0.09303 -5.501e-22)
(0.4514 -0.1422 -3.839e-22)
(1.031 -0.1064 -8.176e-23)
(1.054 0.002792 -1.793e-22)
(0.8564 -0.07219 -1.433e-21)
(0.1315 -0.02058 9.048e-22)
(0.9646 -0.1169 -3.47e-22)
(0.5997 -0.04268 1.068e-22)
(0.3655 -0.1084 1.595e-21)
(0.9974 -0.1239 4.403e-22)
(0.4917 -0.1507 9.807e-22)
(0.3511 0.5475 7.455e-22)
(0.3289 -0.1103 -2.172e-23)
(0.06827 -0.07071 6.714e-23)
(0.03551 -0.01264 0)
(0.5685 -0.1625 0)
(1.012 0.0008824 0)
(1.011 -0.002749 5.732e-21)
(0.5167 -0.1572 5.036e-22)
(0.3894 -0.1293 0)
(1.054 -0.1771 -1.508e-21)
(1.001 1.915e-05 0)
(0.8197 -0.3811 -7.227e-22)
(0.651 -0.1694 5.877e-22)
(1.06 -0.08607 -1.575e-23)
(0.2937 -0.09893 0)
(1.016 -0.1178 -1.209e-21)
(0.3762 -0.1161 -1.25e-21)
(1.055 0.4375 2.029e-22)
(0.9998 0.001251 -4.154e-20)
(1.053 -0.1917 0)
(1.05 -0.05494 -1.843e-22)
(0.3979 -0.1549 0)
(0.473 -0.03593 0)
(0.3055 -0.1062 8.257e-23)
(0.8442 -0.2897 1.582e-21)
(0.9441 -0.1508 3.553e-21)
(0.5517 -0.09925 0)
(0.7198 -0.06349 -6.983e-24)
(0.9591 -0.07733 0)
(0.5137 -0.1502 0)
(0.8146 -0.3762 9.253e-22)
(0.8355 -0.09606 -1.947e-22)
(0.37 -0.1228 0)
(0.5261 -0.2282 -2.001e-21)
(0.9851 -0.01933 -3.572e-22)
(0.1053 -0.03879 0)
(0.09576 -0.03543 0)
(0.5585 -0.1603 0)
(0.8325 -0.1237 1.597e-21)
(0.2479 -0.2845 -3.115e-21)
(1.003 0.02684 1.634e-22)
(0.09721 -0.0239 1.962e-21)
(0.138 -0.02564 0)
(0.9965 -0.0006882 0)
(1.001 -5.656e-05 -3.495e-21)
(0.9544 -0.1047 -2.155e-24)
(0.7024 -0.1652 2.499e-21)
(0.02207 -0.008363 -4.079e-23)
(0.2005 -0.09577 5.904e-23)
(0.8938 -0.1294 1.291e-22)
(0.7625 -0.2843 0)
(0.3142 -0.1019 -1.286e-21)
(1.056 -0.186 0)
(1.061 -0.1462 0)
(0.999 -0.03493 -3.694e-21)
(0.308 -0.1002 -2.219e-21)
(0.3942 -0.08502 0)
(0.3476 -0.1137 -1.087e-21)
(1.033 -0.2154 0)
(0.1373 -0.05123 1.129e-22)
(0.4286 -0.1378 -9.014e-22)
(0.9916 -0.002538 5.05e-22)
(0.1422 -0.01936 0)
(0.302 -0.1055 -4.79e-22)
(1.001 -0.001677 -3.058e-20)
(0.7294 -0.1081 -6.329e-22)
(0.9955 -0.0006799 1.028e-20)
(0.9901 -0.005441 8.427e-21)
(0.9809 -0.1337 -2.097e-22)
(1.029 -0.1761 0)
(0.1739 -0.02257 -8.8e-21)
(1.001 -0.003874 3.535e-21)
(0.6241 -0.07427 4.2e-23)
(1.006 0.009368 0)
(1.147 0.4165 0)
(1.028 -0.1619 -1.393e-21)
(0.6946 -0.1461 4.613e-22)
(1.015 -0.1183 2.32e-22)
(0.7054 -0.1387 2.193e-22)
(0.7336 -0.1057 0)
(0.347 -0.1039 3.365e-21)
(0.9386 -0.1045 -2.707e-22)
(0.9946 -0.002149 4.984e-21)
(1.02 -0.04678 -2.28e-21)
(0.8831 -0.1562 7.421e-22)
(0.8582 -0.1592 -3.076e-22)
(0.312 -0.1053 -9.439e-23)
(0.3445 -0.1104 0)
(0.2844 -0.01801 2.425e-25)
(0.3106 -0.09973 -7.926e-22)
(0.06161 -0.01913 -6.132e-21)
(0.8033 -0.1241 1.441e-21)
(0.7895 -0.217 0)
(0.8912 0.01399 -2.529e-21)
(0.6873 -0.07256 2.732e-23)
(0.408 -0.05605 0)
(0.8482 0.2424 5.129e-22)
(0.6548 -0.1511 0)
(0.9654 -0.01569 2.874e-21)
(0.5858 -0.1173 3.573e-21)
(0.2581 -0.09861 1.156e-22)
(0.543 -0.09026 0)
(0.9957 0.0002687 -1.426e-21)
(0.5734 -0.3865 1.77e-21)
(0.6721 -0.1759 0)
(0.872 -0.08347 -4.801e-24)
(0.9106 -0.2508 2.488e-22)
(0.9135 -0.1154 -6.978e-23)
(1.051 -0.1358 4.284e-22)
(0.4433 -0.0965 0)
(0.7495 -0.1799 6.709e-22)
(0.8744 -0.08343 -1.491e-23)
(0.2689 -0.09459 -1.01e-23)
(0.6858 -0.1878 -2.276e-21)
(0.2007 -0.09731 1.573e-22)
(0.9972 -0.001218 0)
(0.9757 -0.06923 -1.386e-22)
(0.6009 -0.1131 0)
(0.9918 -0.02741 0)
(0.6229 -0.132 0)
(0.6795 -0.07324 3.187e-22)
(1 -5.148e-07 -1.808e-21)
(1.033 -0.2257 9.315e-22)
(0.2409 -0.0888 0)
(1.015 -0.06619 0)
(0.8644 0.2452 -2.031e-21)
(0.9099 -0.1614 0)
(0.3651 -0.002501 0)
(1.056 -0.1658 1.411e-21)
(1.001 2.593e-05 5.035e-22)
(0.5732 -0.1364 -3.146e-23)
(0.448 -0.13 -5.767e-23)
(1.019 -0.0006638 4.298e-21)
(0.9146 0.2174 9.643e-22)
(1.031 0.04022 1.66e-22)
(0.6421 -0.1693 9.068e-22)
(0.4957 -0.1308 -1.176e-21)
(1.016 -0.1774 3.901e-22)
(0.9807 -0.04539 0)
(0.1805 -0.06784 -5.9e-23)
(0.04018 -0.01514 1.44e-22)
(0.7209 -0.153 -1.554e-22)
(0.7921 -0.1247 6.783e-22)
(0.5764 -0.167 -3.898e-22)
(0.1929 -0.01594 0)
(0.9951 0.0003174 -2.768e-21)
(0.8083 -0.08434 -6.727e-23)
(1.007 0.01202 -1.507e-23)
(0.5152 -0.1519 0)
(0.7802 -0.3906 -6.164e-22)
(0.7083 -0.1267 0)
(0.9081 -0.2498 2.471e-21)
(0.1759 -0.08646 -7.765e-23)
(0.3112 -0.05077 0)
(0.9986 0.005139 -8.172e-21)
(0.01608 -0.005987 0)
(0.278 -0.08795 0)
(0.3365 -0.09716 1.192e-21)
(0.9102 -0.08024 1.49e-23)
(1.025 0.2766 0)
(0.7105 -0.1791 -5.991e-22)
(0.6412 -0.1334 7.926e-22)
(0.4457 -0.03329 0)
(0.9184 -0.1269 0)
(0.8826 -0.005103 -2.779e-21)
(0.02974 -0.001491 7.992e-23)
(0.3704 -0.1243 2.448e-22)
(0.7251 -0.04971 0)
(0.6318 -0.1336 -1.467e-21)
(0.83 -0.1246 0)
(0.6514 -0.4036 -1.872e-21)
(0.3234 -0.01586 3.979e-22)
(0.1551 -0.05346 6.543e-23)
(0.9141 -0.1539 1.768e-22)
(0.4109 -0.1318 0)
(1.061 -0.0857 0)
(0.6844 -0.08297 -3.755e-22)
(0.7062 -0.07165 7.627e-23)
(0.8428 -0.167 0)
(0.04082 -0.01435 0)
(1.066 -0.09515 -2.051e-22)
(0.9028 -0.192 -8.187e-22)
(1.058 -0.1254 0)
(0.6762 -0.1148 6.95e-22)
(1 -2.238e-06 0)
(1.008 0.00102 1.1e-20)
(0.99 -0.1317 -1.41e-21)
(0.1905 -0.01377 8.628e-23)
(0.4683 -0.1476 6.078e-22)
(0.9105 -0.02575 8.158e-21)
(0.1112 -0.02301 -2.277e-21)
(0.2406 -0.08289 4.215e-22)
(0.993 0.008551 -5.959e-21)
(0.6872 0.09566 0)
(0.8847 -0.1184 6.396e-23)
(1.042 -0.1004 0)
(-0.001838 -0.009494 0)
(0.9988 -0.2812 -7.816e-22)
(0.353 -0.1187 1.394e-22)
(0.005371 -0.001784 0)
(0.7149 -0.1534 -4.497e-24)
(0.1233 -0.04348 1.251e-21)
(0.563 -0.165 8.113e-22)
(0.9002 -0.1125 0)
(0.4427 -0.05022 3.184e-21)