/*--------------------------------*- C++ -*----------------------------------*\
  =========                 |
  \\      /  F ield         | OpenFOAM: The Open Source CFD Toolbox
   \\    /   O peration     | Website:  https://openfoam.org
    \\  /    A nd           | Version:  8
     \\/     M anipulation  |
\*---------------------------------------------------------------------------*/
FoamFile
{
    version     2.0;
    format      ascii;
    class       volScalarField;
    location    "45";
    object      nut;
}
// * * * * * * * * * * * * * * * * * * * * * * * * * * * * * * * * * * * * * //

dimensions      [0 2 -1 0 0 0 0];

internalField   nonuniform List<scalar> 
127143
(
7.666e-16
1.375e-17
9.449e-19
5.564e-18
6.225e-12
5.038e-18
7.593e-10
2.428e-11
2.402e-12
4.759e-08
2.944e-10
6.131e-11
4.166e-17
9.121e-18
1.234e-06
6.238e-09
5.171e-15
9.752e-05
5.379e-05
1.321e-08
4.369e-05
3.253e-10
7.18e-05
7.605e-06
3.123e-10
7.81e-06
1.101e-05
9.839e-06
2.513e-08
0.0001959
3.056e-06
6.344e-06
2.252e-06
1.437e-05
3.831e-05
2.415e-06
0.0001867
3.594e-05
8.042e-06
1.065e-06
5.385e-05
2.058e-06
2.252e-06
2.199e-15
9.727e-05
1.464e-05
2.506e-08
0.0002679
6.842e-06
5.509e-06
8.548e-09
0.0003348
7.892e-06
1.849e-05
0.006682
2.828e-07
0.006682
0.0002215
0.004248
2.13e-05
2.951e-06
4.673e-05
7.896e-06
0.006702
2.932e-05
1.986e-05
3.103e-05
7.618e-06
7.617e-06
0.001409
4.165e-06
1.18e-05
0.0003277
0.003583
0.006695
1.028e-05
0.0004565
0.0001783
2.827e-07
0.006705
2.538e-08
1.94e-08
3.171e-05
1.403e-06
0.0002713
0.0001932
8.143e-06
1.172e-05
1.866e-05
1.397e-06
0.002278
5.054e-05
2.715e-06
4.357e-05
5.378e-05
0.0002794
2.269e-06
2.437e-06
0.0001269
3.447e-05
0.006705
6.683e-06
1.784e-07
7.714e-05
0.0001411
0.0001287
7.017e-06
0.00141
6.732e-06
0.006683
1.365e-06
1.165e-05
5.269e-05
6.07e-07
0.003401
8.054e-05
0.0003786
0.006696
0.0005724
3.479e-12
0.006683
3.38e-05
1.386e-05
0.00022
2.547e-08
7.108e-06
6.7e-05
0.0006694
1.383e-05
2.377e-07
9.666e-05
5.531e-05
1.041e-05
0.0001798
1.437e-12
0.000111
0.0002301
2.212e-05
1.835e-07
0.0001463
4.461e-05
0.0005963
8.748e-06
1.344e-05
7.792e-06
5.868e-06
1.944e-08
0.006703
6.636e-05
8.643e-08
3.721e-05
4.091e-06
2.979e-05
2.156e-05
2.011e-06
0.0001985
0.0001793
2.573e-07
0.0002363
1.75e-06
4.052e-06
1.64e-09
0.002068
0.000116
1.443e-07
2.25e-05
0.0001577
6.519e-06
2.21e-06
0.0001026
4.046e-06
1.344e-05
6.772e-05
2.717e-05
0.0006979
0.0001071
5.877e-06
1.384e-05
8.076e-06
0.002194
2.407e-05
0.0009222
6.623e-05
0.000107
2.384e-07
4.453e-05
6.033e-06
7.33e-07
7.756e-06
0.0008992
1.377e-05
2.718e-05
0.0003284
1.079e-06
4.362e-13
3.008e-05
0.006717
0.006709
1.45e-10
0.001555
0.004712
0.0001324
0.0008025
0.0001944
1.087e-16
6.055e-06
0.0001401
2.668e-05
0.0002349
0.003758
8.877e-05
0.0003034
0.003697
2.192e-06
6.627e-05
5.323e-10
8.346e-07
2.645e-05
7.165e-05
0.0001471
5.238e-06
0.006697
4.097e-06
7.49e-06
1.918e-06
5.108e-06
1.645e-07
3.772e-05
9.41e-06
0.0001305
4.57e-05
0.0009704
0.0002869
2.821e-11
4.567e-05
0.0002358
0.0001156
3.507e-13
0.004153
1.041e-05
2.599e-05
2.877e-05
0.000219
2.572e-07
1.632e-05
6.153e-12
3.033e-06
1.032e-05
1.647e-10
0.001381
3.603e-06
6.228e-06
2.338e-05
1.689e-05
4.548e-07
6.217e-06
0.0008377
2.562e-07
3.118e-05
8.72e-06
2.293e-05
0.0007666
4.734e-05
0.0005637
7.838e-06
2.888e-05
7.853e-05
1.963e-06
3.7e-06
1.757e-05
7.584e-06
0.0006973
0.0002608
1.06e-05
9.46e-06
1.264e-05
5.266e-05
7.249e-06
0.0005144
2.233e-05
0.002831
0.0001589
7.831e-05
0.0067
0.004941
4.674e-13
9.859e-05
0.003355
7.639e-06
0.002123
3.141e-05
4.299e-05
0.0002252
6.22e-05
0.002857
6.744e-06
3.785e-06
3.7e-05
0.0002156
1.756e-05
8.419e-06
2.975e-05
9.958e-06
9.848e-05
1.534e-06
3.346e-06
2.681e-05
0.003361
4.917e-05
1.776e-05
7.085e-06
1.282e-05
3.318e-07
0.003541
0.003895
2.379e-06
2.448e-05
7.13e-06
3.662e-05
0.0003904
8.123e-05
3.621e-06
0.000297
2.33e-05
2.262e-06
1.592e-05
7.71e-05
3.466e-05
3.561e-06
4.09e-06
0.0001234
0.004094
4.125e-05
0.006717
0.006709
2.162e-05
6.8e-06
7.353e-05
0.0001245
7.803e-05
0.0001704
2.642e-05
7.667e-06
1.107e-05
1.084e-06
7.638e-06
5.09e-05
4.644e-05
7.755e-06
1.421e-05
8.245e-06
3.636e-05
0.0001486
1.248e-05
7.642e-05
5.819e-05
1.692e-05
6.686e-06
0.006206
3.572e-06
0.0001761
8.396e-06
8.29e-05
4.789e-06
6.032e-06
0.006698
0.001839
0.000336
2.952e-05
0.0004808
1.747e-06
0.0003149
8.062e-06
4.628e-06
0.001151
4.898e-05
8.082e-06
8.722e-10
0.0001257
0.0005496
6.344e-05
7.374e-06
8.702e-06
2.261e-05
0.0004
1.527e-07
2.401e-05
1.14e-06
3.123e-05
4.986e-05
0.005224
9.735e-06
1.381e-05
4.828e-07
7.428e-06
3.15e-06
9.989e-06
3.551e-06
7.408e-05
0.001074
1.119e-06
0.006697
2.837e-05
7.336e-05
2.533e-05
2.497e-05
0.0001961
1.097e-05
0.006705
8.161e-06
8.633e-06
7.809e-06
4.278e-05
0.0001688
1.259e-05
5.007e-05
0.0001007
7.584e-06
2.436e-05
5.303e-06
0.0001694
1.379e-06
3.589e-05
0.001885
0.0001355
7.883e-06
2.121e-06
3.509e-05
2.3e-05
0.0001086
0.00668
5.63e-05
0.000132
8.904e-05
1.022e-05
0.006698
2.182e-05
4.251e-05
0.0003651
0.003045
0.006694
5.944e-06
0.0001892
6.812e-06
0.0002291
2.46e-06
0.002848
3.053e-06
0.0003333
0.0003245
7.258e-05
8.7e-06
2.962e-05
3.066e-05
2.288e-05
0.0001937
7.476e-06
2.416e-05
0.0002285
1.985e-05
1.17e-05
7.001e-06
3.06e-05
5.193e-07
7.677e-06
0.0008728
0.0008988
1.518e-05
5.121e-05
0.006672
0.0001354
4.421e-05
0.0001974
2.556e-05
0.0001831
0.006651
1.73e-06
4.261e-05
1.815e-05
9.839e-06
6.078e-08
2.868e-06
3.422e-05
3.317e-07
7.161e-06
1.023e-05
1.324e-05
0.006709
2.279e-06
0.0005463
3.651e-06
8.158e-06
8.368e-06
5.848e-06
3.307e-15
0.0001252
9.032e-07
0.0004794
9.28e-07
0.004951
5.949e-08
0.0009351
0.000177
2.689e-05
7.715e-15
2.798e-11
4.669e-12
0.006698
5.84e-05
3.729e-06
0.003789
0.0002343
1.528e-05
0.0001398
7.171e-05
7.332e-05
8.694e-06
0.0001347
1.013e-05
0.001013
0.0002567
4.212e-11
3.645e-06
7.307e-06
5.96e-06
0.004291
4.076e-05
0.0009474
3.579e-05
0.006333
2.114e-06
6.143e-08
6.103e-06
0.006675
1.521e-05
0.0002007
1.057e-06
6.888e-06
8.306e-07
4.645e-05
0.0005059
5.588e-05
1.324e-05
0.006673
2.983e-05
2.487e-05
4.361e-06
4.795e-06
4.919e-05
1.974e-05
3.068e-05
2.216e-05
8.087e-06
0.0001476
5.73e-05
0.00252
1.395e-06
6.735e-05
8.332e-06
9.74e-06
0.0001869
0.006702
0.006701
9.953e-06
5.052e-05
1.099e-06
0.003345
0.004594
9.871e-06
1.474e-06
0.0001955
8.623e-06
1.649e-05
7.551e-06
4.307e-05
0.0007036
0.006683
3.54e-06
9.355e-05
8.771e-06
0.00476
1.05e-05
1.164e-05
6.379e-05
0.0005492
8.377e-06
0.003241
0.0001341
9.998e-05
5.066e-05
0.005117
4.517e-05
2.295e-05
5.489e-09
0.00665
7.072e-06
8.27e-07
0.006694
2.504e-05
0.002805
5.868e-06
1.324e-05
0.006699
4.111e-05
8.028e-06
1.3e-05
3.26e-05
1.013e-05
8.227e-06
8.689e-06
1.269e-06
8.054e-06
3.248e-06
4.736e-06
0.0001483
6.977e-06
2.575e-06
0.005461
2.927e-06
0.005932
8.641e-07
0.0005639
8.895e-06
0.006679
0.002878
0.0001505
5.349e-06
6.062e-05
0.006479
0.006683
1.032e-05
1.096e-05
3.714e-05
3.256e-06
0.000281
7.285e-06
7.267e-05
8.313e-06
1.081e-05
4.345e-05
1.627e-05
0.006478
1.937e-05
1.032e-05
0.0001014
2.314e-05
0.00237
0.004596
1.795e-05
2.564e-07
1.324e-05
5.824e-08
0.0006291
0.003206
0.0001142
2.915e-05
0.0001525
2.082e-05
9.652e-05
0.001155
5.861e-05
3.497e-05
9.359e-06
1.894e-05
6.658e-15
6.219e-06
0.0002314
0.0001938
7.856e-05
4.003e-05
8.452e-06
4.443e-05
0.0003091
1.328e-05
1.335e-05
2.83e-05
0.006682
7.204e-06
1.505e-05
2.877e-06
0.006675
0.006681
2.357e-07
0.0006351
7.085e-06
3.044e-05
5.108e-06
4.915e-05
1.184e-05
2.206e-06
6.601e-06
5.16e-07
0.006706
0.006673
3.729e-06
7.896e-06
3.149e-05
3.125e-06
1.562e-07
0.000246
2.241e-06
9.969e-05
9.537e-05
0.003713
2.452e-06
0.0001985
5.702e-07
1.641e-12
1.172e-05
8.572e-06
0.0001189
0.004884
8.732e-06
6.991e-06
4.15e-07
5.195e-05
1.838e-05
1.081e-05
1.157e-07
6.995e-05
6.79e-06
6.572e-05
6.581e-07
8.329e-06
1.787e-05
6.606e-05
5.852e-05
5.317e-15
1.796e-05
0.0001168
3.194e-06
1.019e-05
8.296e-06
0.006693
3.687e-05
3.814e-05
0.0002065
0.002965
6.07e-08
3.893e-05
8.364e-06
0.003133
3.231e-05
0.0001145
4.008e-05
2.423e-05
0.00379
0.0001411
3.598e-06
4.579e-05
1.714e-05
0.001372
7.664e-06
1.051e-06
0.002425
2.647e-05
4.866e-05
3.834e-05
0.0001266
2.965e-05
1.169e-05
7.977e-06
8.399e-05
0.006637
0.0001635
0.0001147
9.427e-07
7.801e-06
1.928e-05
0.000231
2.127e-05
0.006654
0.0001281
6.007e-05
9.982e-06
7.831e-11
1.015e-05
6.236e-06
3.19e-05
0.0002623
4.651e-05
0.006697
1.925e-15
6.629e-05
3.083e-05
2.073e-06
0.0002148
7.755e-05
0.0001116
5.018e-06
0.006683
3.944e-05
7.797e-05
0.003514
9.73e-05
3.655e-06
7.165e-06
1.8e-05
0.006666
7.046e-05
0.0001058
0.006707
0.006661
2.349e-05
5.836e-05
0.0002478
6.564e-05
0.0002071
1.805e-08
5.262e-05
6.264e-06
0.006682
0.0001353
0.0001764
3.385e-06
1.933e-06
5.682e-06
0.002792
0.004533
0.0002928
1.129e-05
0.006682
9.841e-05
1.502e-06
8.61e-06
8.166e-06
0.006167
0.0002374
8.466e-06
0.006698
7.771e-06
0.006683
6.42e-06
1.142e-07
4.042e-05
1.42e-05
6.687e-07
0.002215
4.421e-05
1.617e-05
2.109e-06
9.783e-06
8.181e-06
8.659e-08
1.994e-05
6.213e-05
9.99e-06
2.84e-06
0.006699
3.214e-05
3.877e-07
1.263e-06
1.265e-05
7.22e-06
0.002891
0.0002196
3.482e-06
5.802e-07
5.976e-06
3.154e-06
6.354e-10
2.251e-06
5.05e-06
6.281e-05
4.088e-06
4.624e-05
1.844e-07
0.0004276
7.352e-06
0.004699
0.005192
8.812e-06
0.0003115
2.151e-05
0.0002155
5.667e-07
0.000102
0.0005058
1.669e-06
2.992e-06
0.004356
8.067e-05
0.0001858
0.0005955
3.695e-05
4.991e-08
0.0001346
3.456e-05
1.277e-06
1.996e-05
4.93e-05
0.0067
8.346e-06
5.706e-07
0.006252
4.637e-05
9.188e-05
3.454e-05
0.006669
0.0003124
7.438e-05
3.222e-09
1.625e-05
3.27e-08
0.0001028
9.346e-06
4.275e-06
3.727e-07
2.696e-05
0.005721
2.363e-07
4.048e-06
0.005293
7.95e-06
3.942e-10
5.536e-05
1.362e-05
2.724e-05
8.364e-05
6.623e-08
2.914e-08
8.243e-06
0.000567
0.006697
3.124e-05
6.532e-06
0.0001163
3.998e-05
8.411e-07
7.773e-08
2.466e-05
3.043e-05
7.758e-08
0.0001364
1.665e-05
0.006693
0.0002592
4.132e-06
1.147e-05
8.864e-05
0.00011
0.006697
0.001295
7.007e-06
3.757e-05
7.044e-05
8.066e-06
2.72e-05
0.0002819
1.668e-05
5.693e-06
2.463e-05
2.752e-06
7.853e-06
2.712e-06
1.644e-05
2.769e-05
0.0002305
1.219e-06
9.839e-05
1.64e-06
1.167e-09
0.0001316
0.006692
0.006693
0.0001362
0.0002126
8.941e-05
0.006746
6.738e-06
7.229e-05
0.000142
4.435e-05
2e-05
8.8e-05
1.21e-06
0.006705
7.274e-05
0.0001511
1.628e-08
1.592e-06
0.0001437
7.973e-06
3.604e-05
2.948e-05
7.4e-06
1.193e-05
0.0001811
6.778e-06
8.078e-06
0.0001645
5.525e-08
0.006274
3.831e-06
1.81e-07
0.0001092
2.83e-05
1.53e-06
0.002461
4.078e-06
2.92e-06
0.00641
0.006694
1.004e-05
5.613e-05
2.175e-10
2.834e-05
7.363e-06
1.279e-06
4.103e-05
7.774e-05
0.0001289
0.001601
4.293e-05
0.0003642
7.389e-05
5.669e-05
7.635e-07
0.0001992
0.00583
2.843e-06
4.557e-05
0.006692
4.334e-05
0.005908
0.0067
1.702e-05
7.511e-05
4.744e-06
0.00669
7.762e-06
0.006696
3.267e-06
9.624e-05
7.683e-05
5.156e-05
6.309e-06
7.862e-06
6.499e-05
1.014e-05
0.003009
0.0009676
1.074e-05
5.361e-06
6.983e-05
6.322e-05
4.847e-07
4.705e-05
5.942e-07
3.471e-05
4.855e-07
1.852e-05
8.07e-06
8.22e-06
3.176e-06
5.558e-05
0.004964
3.74e-05
3.527e-05
8.553e-06
0.001921
4.13e-06
4.381e-05
8.239e-06
5.028e-06
1.445e-05
0.0001223
2.859e-05
1.95e-05
8.241e-06
5.421e-05
2.24e-07
1.041e-05
0.006598
1.348e-05
3.63e-05
0.002151
4.267e-05
2.731e-05
0.006738
4.548e-05
2.831e-05
0.0006413
2.851e-06
2.511e-05
4.598e-05
0.0001038
0.006727
5.219e-05
3.17e-05
0.005669
4.043e-06
9.62e-05
7.679e-05
6.594e-05
4.741e-05
0.0004701
2.996e-06
2.862e-09
2.922e-06
7.631e-06
0.0001166
1.858e-07
0.001629
8.304e-06
0.006697
0.0001375
4.932e-06
4.317e-05
5.019e-06
4.471e-06
1.225e-05
0.006699
1.258e-10
4.279e-05
8.324e-06
8.903e-06
3.128e-07
2.128e-05
6.478e-05
1.458e-06
7.871e-06
4.403e-05
1.588e-10
0.0001814
4.187e-06
4.409e-06
7.442e-06
4.012e-06
6.957e-05
4.997e-06
6.137e-06
0.0001383
1.32e-05
8.727e-06
7.921e-06
5.832e-05
8.284e-08
0.0003183
2.343e-06
0.0001792
8.261e-06
0.006714
0.006691
2.024e-05
2.002e-07
0.0002378
0.0008333
4.901e-06
2.967e-05
0.006697
9.864e-06
7.555e-06
1.661e-05
2.511e-09
2.52e-05
0.0001515
4.921e-14
7.492e-05
1.609e-06
0.0001243
8.034e-06
1.684e-05
7.808e-06
2.048e-06
7.994e-06
3.567e-05
0.0007062
0.0001256
1.359e-05
9.092e-05
3.808e-05
6.847e-06
0.0001909
1.234e-07
0.000231
9.943e-05
0.0002697
1.947e-06
1.165e-05
3.526e-05
7.19e-08
3.196e-05
1.409e-05
2.557e-06
0.0001441
0.0001577
0.006696
0.0001108
1.637e-05
1.328e-05
6.805e-06
6.454e-07
1.487e-06
0.006684
6.812e-06
4.174e-06
5.065e-05
2.861e-06
5.904e-06
3.934e-05
2.21e-05
0.001882
1.639e-05
0.0001543
1.178e-05
5.521e-05
0.001631
3.076e-05
0.003796
5.3e-06
3.028e-06
0.0002207
7.248e-05
3.547e-05
0.006492
0.006675
3.641e-05
0.0002381
5.744e-05
5.509e-05
0.002406
0.002138
1.035e-06
7.286e-05
3.615e-05
1.469e-05
8.431e-06
2.978e-06
2.86e-05
8.4e-06
8.239e-05
8.615e-05
0.006678
3.053e-06
9.25e-05
7.619e-06
3.049e-06
2.339e-05
2.325e-05
0.0001268
8.461e-06
2.714e-05
5.507e-09
6.985e-05
6.778e-05
0.0002719
2.116e-05
6.785e-05
7.384e-06
3.917e-09
3.983e-05
3.851e-06
0.006683
6.206e-06
7.873e-07
0.006689
7.134e-07
1.11e-05
0.0001765
7.957e-06
0.006687
2.053e-05
1.414e-09
0.002396
4.786e-06
7.028e-05
8.218e-06
1.51e-07
5.296e-05
7.617e-05
1.872e-05
1.429e-07
0.0001398
3.661e-05
9.698e-06
4.566e-06
7.231e-07
7.42e-08
2.73e-06
0.0001095
0.006693
5.057e-06
3.93e-05
2.197e-06
3.468e-06
0.0001145
0.0001352
0.006668
9.079e-05
8.369e-05
0.006309
0.0002445
0.006332
9.855e-08
0.0001606
2.136e-07
0.000121
7.817e-06
4.468e-06
5.052e-05
6.51e-06
6.154e-07
1.85e-06
7.021e-05
0.0001183
9.607e-06
3.437e-05
0.0001906
0.006702
0.0001451
0.0007726
8.959e-05
0.006699
0.0002504
0.006688
5.225e-06
0.0001321
0.006733
0.006569
2.73e-05
5.516e-05
7.965e-06
7.706e-05
0.006764
8.849e-06
6.769e-05
4.58e-05
2.172e-12
2.016e-05
4.138e-11
7.534e-06
1.055e-05
8.443e-06
5.959e-06
0.000103
7.571e-05
8.172e-07
0.0002341
2.187e-05
3.416e-05
1.915e-05
6.898e-06
3.659e-05
0.006689
1.719e-06
6.001e-05
5.146e-08
0.006699
2.829e-06
5.71e-06
8.082e-06
3.697e-05
0.00665
0.006649
0.0001403
6.581e-05
0.0003144
6.707e-05
8.338e-06
5.527e-05
3.208e-06
0.000399
8.735e-05
8.36e-08
1.031e-05
0.000159
8.329e-05
6.557e-05
2.503e-05
2.835e-05
4.48e-06
8.359e-06
0.00014
0.001832
3.484e-05
5.846e-05
6.81e-06
7.673e-06
0.0005879
7.016e-06
0.0003464
8.047e-06
0.0001387
1.941e-05
0.0001763
0.006693
0.000239
1.812e-05
3.354e-06
6.392e-07
9.332e-05
8.899e-05
4.532e-05
8.815e-05
0.006625
1.272e-06
5.418e-05
6.229e-09
2.605e-05
5.731e-08
9.789e-05
0.006694
1.903e-05
1.261e-06
2.879e-05
6.755e-06
1.948e-05
2.06e-05
8.397e-06
7.589e-06
0.0003606
1.747e-06
0.000161
5.238e-06
1.66e-05
3.253e-06
0.002744
0.002742
7.966e-06
7.414e-06
3.729e-08
4.916e-06
5.925e-06
2.093e-06
2.184e-06
0.0003723
5.795e-05
0.0002548
0.002272
0.006691
0.0002807
0.006477
1.002e-08
0.006694
2.092e-07
3.683e-05
6.079e-06
6.75e-06
2.902e-06
0.001433
8.936e-08
3.992e-05
9.094e-07
9.899e-05
4.005e-06
0.005803
5.12e-05
3.403e-05
0.0001022
2.078e-06
3.472e-06
0.000151
1.182e-06
7.616e-07
0.0002742
0.006665
2.06e-06
0.00148
0.006749
5.069e-05
2.804e-07
0.006666
9.749e-07
0.006697
1.088e-05
1.019e-05
3.036e-05
1e-06
0.006675
0.0002357
4.047e-05
5.059e-05
1.731e-05
3.122e-05
3.003e-05
0.004981
0.006686
1.055e-05
1.361e-10
2.475e-05
7.506e-06
0.0006052
7.757e-08
8.469e-05
4.421e-05
0.002141
1.693e-05
0.0001123
3.112e-06
0.0004528
6.521e-06
0.0006361
1.335e-05
0.006704
2.262e-06
8.748e-06
0.0001028
4.741e-07
6.467e-07
7.133e-05
0.006688
9.834e-06
3.058e-06
4.135e-05
2.78e-06
7.503e-06
2.687e-05
0.0005056
1.195e-05
1.21e-08
7.813e-06
8.369e-07
5.534e-09
0.001969
3.067e-05
0.0067
1.05e-05
2.355e-06
6.712e-06
0.006696
7.869e-06
0.006693
0.0001826
0.0001046
0.006712
3.049e-05
0.0002083
8.158e-06
2.637e-05
0.0006158
7.907e-06
0.006697
4.862e-07
1.981e-07
6.522e-05
5.224e-05
7.253e-06
0.001196
1.709e-05
0.0001552
3.905e-06
9.139e-06
0.0001109
7.786e-06
3.787e-05
2.26e-05
4.374e-07
0.0002133
1.997e-05
1.196e-05
0.0002248
7.861e-06
8.964e-05
6.552e-06
8.187e-06
0.0002051
0.001102
1.242e-06
7.725e-05
1.785e-05
0.0001468
3.139e-06
0.0001726
7.071e-06
0.000102
0.006666
7.059e-06
5.609e-06
0.0001964
8.475e-06
0.0004413
1.036e-05
0.006705
2.167e-05
7.237e-06
4.387e-05
6.123e-06
5.486e-06
6.073e-06
0.006696
8.369e-06
5.138e-06
8.272e-06
1.645e-05
0.0004073
8.17e-06
8.108e-06
0.006694
0.0001492
0.0001095
0.001795
6.74e-06
3.338e-05
3.623e-05
4.851e-06
0.0001061
0.0002946
0.0023
2.878e-05
2.558e-05
0.0066
2.102e-05
4.731e-06
2.256e-06
0.006738
8.064e-05
3.375e-07
4.309e-05
1.289e-05
0.0001454
8.168e-06
1.886e-06
0.002072
0.001214
9.637e-05
0.0009003
2.912e-05
4.541e-06
0.0001955
7.666e-07
3.412e-05
0.0003891
2.173e-05
4.644e-10
9.062e-10
6.285e-05
8.727e-05
4.751e-05
0.0001236
0.0002509
2.84e-05
0.0002609
3.566e-05
4.502e-05
1.381e-05
8.556e-06
4.496e-07
0.0001119
0.0001032
0.003199
1.564e-06
0.0001218
9.986e-05
5.762e-06
4.668e-05
3.051e-06
6.033e-05
4.147e-05
0.006744
3.642e-07
7.482e-06
2.655e-05
2.895e-05
8.828e-05
3.069e-06
1.235e-06
0.0001058
4.314e-05
1.147e-07
3.423e-05
7.154e-06
4.073e-06
0.006637
9.361e-06
1.445e-06
8.154e-06
0.004694
0.0002649
0.0002023
4.776e-06
3.3e-05
0.0003208
6.929e-06
0.005394
4.43e-06
7.153e-06
0.0001697
0.000274
0.004029
7.819e-06
8.522e-08
7.616e-06
2.095e-06
2.688e-08
0.0002388
6.927e-06
0.001432
1.334e-06
1.67e-05
0.0002272
7.648e-05
4.175e-05
1.171e-05
0.0002077
8.13e-06
0.002558
3.353e-06
2.76e-08
4.774e-07
0.0001801
2.528e-05
3.044e-05
1.038e-05
0.001105
0.0001148
9.098e-06
8.583e-05
0.003956
8.249e-06
8.131e-06
8.461e-06
2.357e-05
4.022e-05
1.767e-06
1.86e-05
7.674e-07
6.28e-07
9.878e-09
0.0001644
6.135e-06
3.311e-08
6.726e-05
2.161e-06
7.553e-05
2.638e-05
1.198e-05
5.328e-11
1.838e-05
2.366e-05
0.003144
0.0002868
1.165e-06
0.0001502
0.003811
0.006698
8.957e-05
7.645e-06
0.0003075
5.804e-06
8.891e-08
1.305e-06
0.001031
6.449e-06
0.0002388
9.719e-05
7.792e-06
3.518e-05
0.0002644
7.792e-06
8.173e-05
0.0001028
3.159e-05
0.006697
1.645e-06
0.0001365
8.035e-06
0.000108
7.659e-06
1.146e-05
4.463e-05
6.528e-06
2.083e-05
3.637e-05
8.138e-06
1.076e-06
8.553e-06
0.0001559
0.0001562
0.0001307
3.018e-05
6.829e-05
2.083e-07
2.437e-05
0.004937
3.471e-05
7.57e-05
8.322e-06
6.281e-06
0.0007579
1.987e-05
4.383e-05
1.424e-05
0.003023
0.0001238
0.0001372
7.171e-05
0.0002041
1.15e-05
8.78e-05
4.814e-07
0.0001774
0.0001929
2.108e-05
0.006676
0.0002607
4.028e-05
0.0001156
4.324e-05
0.006688
0.0001387
4.951e-06
3.053e-06
0.006697
0.0007298
0.0002527
1.766e-05
8.315e-06
0.0008191
1.088e-05
0.0001155
2.516e-07
3.882e-06
6.473e-05
8.401e-06
2.649e-05
0.0008002
8.231e-06
7.411e-08
3.735e-05
1.08e-07
3.652e-06
3.803e-05
2.998e-06
0.003326
0.006666
1.084e-05
7.223e-05
2.921e-06
0.006697
2.014e-05
1.51e-05
9.523e-09
6.554e-05
6.485e-06
0.006291
0.00645
8.059e-06
4.85e-05
0.000174
2.203e-06
3.879e-05
4.568e-05
0.0001199
0.006705
7.155e-06
1.615e-06
7.566e-06
0.0002172
1.177e-06
0.0001784
2.095e-05
0.006728
3.221e-05
2.23e-06
7.111e-06
5.379e-07
6.198e-05
2.067e-06
1.821e-05
1.551e-05
7.089e-06
4.276e-05
7.416e-05
0.0001297
6.363e-06
7.729e-07
0.004577
0.005183
5.818e-05
8.619e-05
3.97e-07
7.996e-06
2.289e-06
3.64e-05
0.001247
0.005475
6.605e-06
0.006702
7.639e-05
4.87e-08
4.234e-06
0.0001106
7.614e-06
0.000138
3.052e-07
2.013e-06
0.002059
2.611e-05
3.618e-05
7.553e-06
0.0001713
1.343e-05
7.653e-05
2.831e-05
3.192e-05
0.0001779
2.039e-05
0.0001218
1.459e-07
2.575e-06
7.994e-05
6.403e-05
5.213e-08
4.078e-05
8.059e-06
3.653e-05
6.219e-07
6.813e-06
2.371e-05
7.895e-06
0.0001381
2.843e-05
0.00107
0.000276
0.006703
7.714e-06
5.545e-05
6.873e-06
5.209e-05
4.331e-05
3.759e-06
3.087e-09
1.757e-06
3.054e-05
8.361e-06
2.411e-06
1.447e-05
0.0006969
0.0001654
1.08e-05
4.044e-06
9.519e-05
0.0001588
0.0003865
7.63e-05
0.004082
1.043e-05
1.028e-07
7.111e-05
4.263e-06
0.0002615
6.32e-05
1.919e-05
0.006714
1.403e-05
0.0001208
0.0003529
9.689e-07
0.0001764
3.68e-05
0.0001157
3.04e-05
6.554e-06
1.451e-05
4.334e-06
1.238e-05
5.403e-06
0.00671
0.000215
1.222e-05
1.539e-06
3.982e-07
1.098e-05
3.022e-05
2.14e-05
0.00326
3.544e-06
2.631e-06
7.171e-06
5.718e-06
8.054e-06
1.643e-05
7.329e-06
1.97e-06
5.531e-06
2.26e-05
1.026e-06
6.146e-08
5.569e-05
5.502e-05
2.565e-08
0.0017
4.68e-05
0.002562
0.006699
5.882e-06
0.002031
2.583e-05
1.038e-05
3.388e-05
1.073e-05
8.104e-06
1.706e-05
0.0001133
2.718e-06
7.859e-05
0.0002095
2.143e-10
7.778e-05
0.0001251
0.0003903
1.251e-09
3.068e-05
1.026e-06
3.517e-07
0.003145
1.094e-05
6.542e-06
8.42e-05
4.308e-05
5.734e-07
2.919e-06
2.184e-05
0.0001035
7.854e-05
0.0001191
3.357e-05
0.006701
4.845e-05
4.374e-05
1.665e-05
1.482e-05
7.235e-06
1.599e-07
0.0001115
0.003657
3.606e-05
8.169e-05
6.701e-05
9.562e-06
5.244e-05
9.795e-07
8.355e-06
1.575e-07
6.85e-06
8.413e-05
6.806e-06
1.309e-05
0.0001256
9.302e-05
1.82e-05
9.473e-10
3.737e-05
8.032e-06
8.119e-06
0.006598
3.993e-06
4.222e-05
0.0002704
7.553e-05
7.771e-06
2.726e-05
4.249e-06
3.538e-05
3.126e-05
1.082e-07
0.006613
4.032e-07
3.71e-05
7.396e-05
2.267e-05
3.891e-07
0.005196
4.917e-05
5.856e-05
3.216e-05
3.229e-07
2.132e-05
2.877e-05
2.795e-06
0.0001565
8.412e-06
0.006747
0.006735
7.075e-06
1.864e-05
2.136e-05
1.634e-05
7.727e-06
0.006688
1.636e-05
5.164e-06
1.124e-05
0.002501
0.003088
8.951e-06
2.357e-05
6.684e-06
1.912e-07
2.982e-07
0.006108
3.814e-06
4.355e-08
9.154e-05
7.279e-06
4.275e-06
0.001876
0.0001018
2.104e-05
6.441e-05
0.0001828
0.006652
0.006614
0.006636
0.006371
0.0008241
0.0001882
2.366e-05
1.821e-06
5.289e-05
1.607e-05
5.161e-05
1.828e-05
0.006096
5.752e-05
0.0002118
8.738e-07
2.407e-05
5.541e-07
2.079e-05
8.641e-06
8.245e-06
1.122e-05
7.1e-06
0.0003631
8.082e-06
7.478e-10
1.583e-06
5.543e-06
2.769e-06
6.879e-06
0.005717
1.514e-09
8.824e-05
1.177e-06
4.698e-05
0.0001129
3.66e-09
0.006696
0.0001795
2.965e-05
0.005008
3.401e-05
0.000129
2.633e-05
8.185e-05
6.911e-07
4.768e-05
4.675e-05
0.006633
5.961e-06
9.933e-06
8.781e-05
0.0002015
1.056e-05
0.006713
0.003207
2.407e-05
6.204e-06
1.107e-05
0.0004603
4.225e-05
2.494e-05
8.149e-05
1.644e-06
8.255e-06
3.654e-05
0.000215
0.0001623
0.0001471
0.0001891
1.265e-08
1.943e-06
0.00504
1.658e-08
0.004722
0.006582
4.024e-05
0.001431
1.339e-06
0.0001262
1.883e-06
0.0001914
5.855e-06
0.006697
0.0003441
3.441e-05
7.256e-06
0.0001975
0.003448
5.798e-05
1.078e-08
1.654e-05
0.006702
1.264e-05
1.499e-05
5.516e-10
0.001965
3.617e-05
1.645e-05
0.0001036
0.0004411
4.465e-05
4.857e-06
2.623e-08
5.132e-06
8.144e-06
6.167e-12
0.005239
6.994e-06
2.141e-05
7.182e-06
0.006696
7.598e-06
2.801e-08
7.955e-09
4.671e-07
0.0001697
1.592e-05
6.946e-08
0.000432
0.0001362
0.00669
4.439e-05
2.171e-05
2.962e-05
3.903e-05
5.515e-07
5.344e-05
2.972e-05
1.103e-05
0.006706
0.002139
3.484e-06
2.48e-05
6.188e-05
2.514e-07
2.964e-05
0.0001236
0.0001393
1.122e-05
1.22e-05
0.000136
0.005401
7.382e-06
9.691e-06
6.962e-06
5.391e-05
7.584e-06
3.991e-06
1.157e-06
4.042e-08
4.995e-06
6.823e-11
4.759e-06
0.0002828
1.112e-06
0.0002887
8.025e-06
3.511e-07
0.004812
5.737e-09
0.006705
9.049e-05
4.999e-06
1.521e-06
4.811e-05
4.067e-06
4.836e-05
5.017e-06
0.006647
1.564e-09
8.31e-06
0.002119
0.000111
4.027e-05
8.463e-09
5.979e-06
3.537e-09
2.851e-05
8.481e-07
5.154e-07
2.092e-05
1.834e-05
8.081e-06
1.206e-05
0.006672
0.0001445
8.767e-06
5.516e-05
9.161e-06
0.0001881
0.0001782
7.883e-06
7.361e-06
2.566e-06
6.873e-06
0.003827
7.416e-06
2.791e-05
8.885e-06
9.571e-05
0.002535
6.636e-05
1.027e-05
3.056e-05
3.291e-05
4.718e-08
0.002148
0.002168
6.876e-05
7.161e-06
1.606e-05
0.0002463
3.022e-05
0.006498
0.0002209
8.417e-06
0.006336
8.005e-05
5.894e-07
0.0001177
6.474e-05
0.0001524
9.466e-08
4.567e-08
2.593e-06
6.216e-05
6.655e-06
0.0001662
3.644e-05
5.148e-05
2.326e-05
2.699e-06
0.0002091
1.6e-07
7.424e-06
3.838e-06
5.007e-06
4.451e-05
8.531e-09
0.0002126
7.917e-06
1.423e-05
0.00264
8.849e-06
0.0001094
0.001305
1.651e-05
8.361e-07
7.08e-05
5.535e-06
1.017e-05
1.6e-08
2.084e-09
0.0002338
2.126e-11
0.0007657
4.009e-05
9.215e-05
0.0001413
2.16e-05
0.006705
5.905e-06
1.697e-07
3.493e-05
1.064e-05
4.287e-05
1.365e-05
5.92e-06
7.092e-05
0.0001482
2.546e-05
0.0002293
1.398e-05
3.678e-05
0.005142
9.548e-05
6.967e-06
0.0067
0.0005107
2.194e-06
0.006697
2.184e-05
5.834e-05
7.208e-06
4.6e-05
6.099e-06
0.001405
5.988e-05
3.004e-05
1.768e-06
2.188e-07
1.062e-06
8.518e-06
0.006687
1.941e-06
0.006713
0.0002385
9.665e-05
4.796e-05
2.854e-06
7.245e-05
8.171e-06
2.809e-05
8.291e-07
2.062e-05
0.0008734
0.0001141
6.132e-05
0.006674
6.796e-05
0.006696
2.404e-06
1.941e-05
4.453e-06
0.0001428
0.006656
4.449e-05
7.825e-06
1.199e-05
1.736e-07
2.905e-05
1.445e-06
0.0003876
3.945e-05
8.612e-05
4.859e-05
3.709e-05
1.15e-05
0.0001999
6.392e-06
0.000129
3.472e-06
7.412e-06
0.006631
0.006742
0.001448
0.0003208
3.911e-06
1.23e-06
1.732e-05
0.001506
8.269e-06
6.679e-06
8.034e-06
0.006698
4.524e-06
2.573e-05
6.085e-06
0.002299
2.216e-09
1.714e-05
6.603e-06
0.003227
0.0007348
7.77e-07
0.0002543
8.198e-06
1.856e-06
1.696e-06
8.644e-05
4.771e-05
0.006697
4.464e-06
4.092e-05
6.895e-06
0.0001755
1.102e-05
4.186e-05
0.0001781
5.753e-06
4.084e-07
0.006698
4.452e-05
9.55e-06
1.349e-05
4.713e-06
0.006702
1.904e-05
1.912e-05
0.0001015
4.043e-05
2.642e-05
2.65e-06
0.0001653
1.154e-05
1.646e-05
0.0002594
6.361e-05
2.277e-05
0.005169
4.507e-06
2.74e-06
0.0001515
7.258e-05
1.438e-05
1.178e-05
4.798e-05
0.006695
0.0002299
0.0003283
0.003239
6.206e-08
8.066e-05
0.006698
0.000715
8.252e-06
1.117e-08
0.006698
0.0002463
7.817e-08
8.026e-06
4.129e-05
3.636e-05
4.063e-07
3.333e-05
5.052e-06
8.352e-06
1.885e-09
1.756e-05
0.001268
7.621e-05
1.402e-05
9.837e-05
0.006684
0.000267
0.000101
0.0001953
7.426e-05
6.557e-06
5.136e-08
7.787e-05
3.885e-05
4.069e-09
2.435e-05
3.154e-06
0.000208
3.769e-05
9.833e-05
9.596e-07
1.762e-07
0.00669
2.578e-05
6.38e-06
0.006698
1.053e-05
0.0001252
8.2e-06
0.000265
8.107e-06
8.375e-06
9.058e-05
1.752e-05
0.004894
0.001688
8.688e-05
7.204e-05
0.006764
2.045e-05
0.0002116
3.509e-07
0.0002674
8.808e-05
3.822e-06
8.407e-06
6.889e-05
6.738e-06
0.00671
4.948e-07
7.941e-06
3.946e-07
8.442e-06
6.265e-05
1.284e-06
1.796e-05
3.364e-05
1.644e-06
3.778e-05
3.965e-06
0.006698
0.00669
0.0001642
3.081e-05
0.006685
6.768e-09
7.394e-06
1.463e-06
7.191e-06
1.827e-05
6.315e-05
0.00507
7.507e-09
0.0008514
5.389e-06
0.006745
1.139e-05
3.64e-05
0.0002289
7.608e-05
8.108e-06
0.0001481
3.995e-06
0.006661
6.122e-05
7.955e-07
9.156e-07
1.434e-05
0.0003757
0.0002106
2.194e-05
0.006699
1.553e-05
4.713e-05
0.0001732
0.0001965
8.359e-05
3.251e-06
0.005922
0.006713
1.583e-05
8.903e-07
0.0002712
1.657e-07
0.006701
7.514e-07
5.486e-05
6.447e-06
0.006701
7.103e-05
8.567e-06
1.987e-06
2.895e-05
8.639e-05
2.277e-06
0.006713
4.005e-07
0.004785
2.743e-05
6.136e-08
0.001136
4.683e-05
5.42e-05
1.155e-06
4.304e-07
1.035e-05
7.963e-05
0.006661
2.064e-05
0.0001004
0.0067
3.733e-05
5.065e-06
2.255e-05
0.006761
0.0001986
6.979e-05
0.0001029
6.531e-06
0.0001187
0.004236
2.051e-06
5.484e-06
1.085e-05
0.000456
0.006697
0.006705
0.0008397
2.19e-05
8.123e-05
8.309e-06
2.771e-06
2.672e-07
5.743e-06
7.22e-09
1.063e-06
0.001409
3.145e-06
2.559e-05
9.655e-06
0.0001498
7.06e-05
1.448e-05
3.481e-07
2.662e-05
8.349e-08
3.683e-05
0.0003485
7.913e-05
2.567e-06
7.382e-06
1.12e-05
0.000224
2.813e-05
2.992e-05
1.16e-06
0.004145
6.918e-05
3.505e-05
1.65e-05
4.937e-06
2.976e-05
3.138e-06
1.133e-05
0.006665
3.174e-08
6.697e-05
0.006749
4.632e-06
0.006696
1.938e-05
5.342e-05
0.001542
3.191e-05
7.279e-06
0.006707
3.019e-05
2.963e-05
3.483e-07
0.0006589
1.1e-05
7.176e-06
6.641e-05
0.006691
1.169e-06
0.0002477
0.0005671
1.287e-05
6.276e-05
8.334e-06
4.774e-08
8.726e-06
3.367e-05
1.832e-05
6.044e-06
3.536e-06
0.0067
0.0002742
3.668e-06
8.282e-06
5.882e-05
0.006701
2.042e-08
8.173e-06
1.096e-05
6.059e-05
0.0001176
2.155e-05
0.006668
0.0004802
6.188e-05
8.912e-05
2.636e-05
6.933e-06
7.286e-06
2.905e-05
6.516e-06
6.731e-06
7.265e-05
4.533e-05
7.115e-05
1.189e-05
2.16e-05
3.127e-05
0.006701
4.047e-05
0.001042
0.0002394
5.627e-05
7.882e-05
1.062e-06
0.0001028
1.432e-08
1.952e-05
1.366e-05
0.002208
0.006691
5.876e-05
1.403e-05
1.049e-06
1.695e-05
9.657e-05
7.48e-06
5.694e-07
7.631e-06
2.205e-05
2.927e-05
3.423e-06
7.93e-06
1.087e-05
7.877e-05
8.257e-06
5.286e-05
2.593e-06
2.367e-05
2.825e-05
0.0002701
8.135e-06
0.006694
5.611e-05
0.0005588
0.006691
8.047e-05
8.281e-06
0.0003465
3.531e-12
7.202e-06
5.884e-06
0.006697
8.56e-06
5.073e-05
0.00302
1.423e-05
1.004e-05
3.122e-06
5.196e-05
7.672e-06
0.006697
2.239e-05
0.006713
7.899e-05
3.797e-05
2.448e-06
5.404e-05
3.399e-06
1.791e-12
0.006612
0.006694
1.062e-05
5.535e-06
8.495e-06
0.000117
5.743e-06
8.213e-06
3.677e-05
0.0001945
0.001336
3.44e-06
1.449e-06
1.458e-05
0.0002004
0.00669
7.979e-06
4.991e-05
6.892e-06
7.823e-06
8.657e-05
0.0007195
2.648e-06
1.585e-05
0.0002874
4.376e-05
3.4e-05
8.424e-05
0.006705
0.006371
7.481e-06
5.076e-07
1.723e-05
3.256e-05
0.0001398
0.0003361
8.075e-06
2.196e-05
0.00663
5.056e-06
1.312e-05
5.803e-07
1.4e-05
2.743e-06
0.006684
7.95e-06
7.089e-06
1.631e-06
1.057e-05
7.067e-06
2.334e-05
7.725e-06
5.807e-06
8.006e-06
8.129e-06
8.782e-07
6.861e-05
0.002045
4.777e-05
5.879e-05
4.269e-08
0.0005047
0.0002515
8.62e-06
1.236e-05
0.0002212
2.27e-06
4.491e-05
6.089e-07
9.791e-05
9.347e-07
1.774e-05
6.615e-05
2.65e-05
5.774e-07
0.0002558
2.353e-06
2.081e-08
0.005125
1.706e-06
4.173e-06
9.326e-07
1.708e-05
7.492e-06
5.615e-05
6.352e-05
8.392e-06
3.236e-05
2.995e-05
1.544e-05
0.0001499
0.000155
0.000259
0.0001469
1.274e-05
0.0001131
6.948e-05
4.388e-07
3.536e-05
2.299e-07
8.325e-06
7.849e-06
0.006656
3.496e-05
7.179e-05
1.091e-05
3.855e-05
7.073e-06
3.954e-05
4.521e-06
0.0001032
1.815e-05
7.585e-05
3.47e-05
7.837e-05
0.0006619
0.0001123
0.0001282
1.712e-05
0.0001122
5.945e-05
1.786e-05
7.509e-06
0.0002274
5.727e-06
1.993e-05
1.412e-10
2.687e-05
4.054e-05
9.778e-05
2.349e-05
9.574e-05
2.363e-06
0.004191
0.002262
0.005635
0.0002232
8.279e-06
1.143e-05
0.000217
4.884e-06
0.0002043
4.846e-05
1.49e-09
7.532e-06
4.345e-07
6.374e-06
7.16e-05
7.392e-06
6.073e-07
0.0006841
1.922e-05
0.006697
9.908e-06
0.0001032
2.405e-05
5.119e-05
0.006684
0.006685
4.551e-05
9.005e-05
0.0001112
1.172e-06
8.066e-06
0.006678
0.006697
9e-06
0.0002173
3.796e-07
4.546e-07
0.005793
4.174e-05
3.719e-05
1.843e-06
2.71e-05
1.285e-06
8.286e-06
0.0002165