/*--------------------------------*- C++ -*----------------------------------*\
  =========                 |
  \\      /  F ield         | OpenFOAM: The Open Source CFD Toolbox
   \\    /   O peration     | Website:  https://openfoam.org
    \\  /    A nd           | Version:  8
     \\/     M anipulation  |
\*---------------------------------------------------------------------------*/
FoamFile
{
    version     2.0;
    format      ascii;
    class       volScalarField;
    location    "45";
    object      omega;
}
// * * * * * * * * * * * * * * * * * * * * * * * * * * * * * * * * * * * * * //

dimensions      [0 0 -1 0 0 0 0];

internalField   nonuniform List<scalar> 
127143
(
2.183e+06
4.105e+06
4.682e+06
1.997e+06
1.676e+05
2.021e+06
6.622e+04
1.157e+05
1.848e+05
2.697e+04
9.739e+04
1.521e+05
5.509e+06
1.69e+06
120.7
5890
5.655e+05
2.065
12.77
4165
63.73
4449
0.127
150.6
4888
626
1811
1995
1270
0.9907
243.7
639.5
4345
460.8
0.05753
4240
53.7
5.451
103.9
734.9
12.74
2.146
1.341
7.844e+05
2.072
451.1
1211
69.38
130.6
117.9
5001
0.02848
52.24
0.3985
0.02096
251.5
0.02095
0.403
0.02286
0.3942
0.9069
19.39
35.52
0.02211
641.7
0.965
0.07082
42.3
42.15
0.06875
177.4
1790
40.6
0.02286
0.0218
1930
0.02441
76.64
248.3
0.02222
1053
3710
321.3
598.4
46.45
77.13
77
2422
0.7949
426.3
0.02369
0.6039
237.7
63.76
190.8
0.6593
1.896
316.9
92.9
0.06954
0.02221
122.1
1890
2.364
78.54
94.58
41.24
0.06897
4.02
0.02133
118.1
2450
109.9
31.97
0.02182
1.326
0.02473
0.0218
0.02422
1.65e+04
0.02134
281.8
12.96
0.2199
1073
757.9
34.1
0.0253
139.6
241.5
113.4
200.5
19.62
76.61
6.387e+04
112.9
0.06585
37.66
541.6
0.05899
0.2082
0.02348
29.88
17.22
50.28
65.13
5894
0.02213
201.5
2653
4.658
109.7
4.435
0.1127
41.13
47.48
0.4028
273.6
69.5
426.8
155.9
5338
0.02376
113.9
554.7
601.3
68.72
1.477
1596
0.02986
141.1
17.21
1.739
7.339
0.2073
29.05
56.94
139.2
125.4
0.03595
7.326
0.03705
34.22
29.04
243.1
18.46
0.1838
34.19
138
0.03569
87.53
188.6
0.05926
130.5
1.172e+05
25.1
0.01953
0.01948
1.644e+04
0.02203
0.02181
0.02987
0.2157
53.62
6.339e+05
59.16
0.06237
6.975
0.8108
0.02182
0.234
35.85
0.02183
1605
115.3
1.438e+04
344.1
7.217
148.2
0.0627
45.95
0.02184
109.6
42.74
414.4
151.1
428.6
5.283
108.8
63.08
70.36
0.03677
36.68
1.257e+04
70.12
0.1126
114.1
2.561e+05
0.02181
63.58
178
568.5
32.58
270.4
13.89
1.343e+04
65.47
1750
9734
0.08264
11.74
611.3
8.673
36.55
173.2
4.118
0.02522
1155
3.568
0.08893
23.46
0.03017
0.5657
0.02331
35.08
588.1
104.1
53.53
1.837
4.902
455.7
0.2055
67.89
64.31
22.12
81.06
109.4
93.6
0.3528
3.694
0.04812
2.004
2.329
0.02178
0.0218
1.081e+05
145.9
0.02184
105.2
0.03747
4.198
0.3927
0.1124
2.362
0.02216
6.669
216
88.73
32.94
4.261
325.4
0.7858
0.6729
1.214
492.4
25.88
6.941
0.02185
3.953
9.656
45.63
122.5
311.6
0.03882
0.0218
244.4
8.546
318.9
0.3109
0.7752
0.1182
188.6
0.03285
8.697
254.7
13.94
0.03818
96.95
201.9
47.59
42.32
0.0218
0.05641
0.01955
0.01949
0.1097
3.898
1.737
42.45
155.4
0.05717
7.221
39.12
72.3
26.56
104.9
261.4
135.4
314.3
180.4
274.2
5.616
27.59
80.44
0.03327
240.3
36.55
49.67
0.02437
201.7
61.9
29.87
0.7659
110.8
115.4
0.02192
0.02201
1.061
420.4
0.3877
4.503
0.03305
448.4
124.8
0.0338
0.1184
198.7
1.05e+04
80.2
0.3332
1.191
729.9
237.8
0.7773
0.02459
1802
0.04904
703.1
26.27
3.2
0.02226
0.4169
95.98
159.4
136.5
234.3
0.4323
196.4
0.03297
0.02968
606.1
0.02185
53.78
33.09
0.05082
6.992
81.29
17.85
0.02222
108.4
11.56
304.3
0.2103
73.23
11.19
189.1
95.61
468.8
5.487
44.92
67.33
593.9
128.7
0.06355
63.93
0.1076
1.121
0.1294
524.1
0.07688
0.02116
122.4
28.41
0.3749
26.17
0.02192
8.229
277.3
0.02805
0.02213
0.02173
102.1
0.06684
4.693
0.02619
313.9
0.02187
48.5
1.089
35.88
74.9
206.9
5.932
458.5
0.04904
44.82
360.1
430.1
56.76
3.858
16.01
63.03
6.503
12.57
72.92
0.1607
0.02257
51.75
231.1
0.02079
75.38
0.587
0.2198
8.148
0.05317
0.02029
45.98
0.5405
78.67
24.96
928.4
46.13
361.1
314.2
9.351
26.12
17.48
0.0217
340.6
0.02358
157.5
68.24
60.91
66.98
1.989e+05
117.1
10.33
0.1269
19.52
0.02175
895.7
0.02263
32.74
22.88
2.882e+05
1.491e+04
4.809e+04
0.02194
238.7
103.4
0.0218
55.54
16.51
80.77
2.633
75.96
208.7
75.48
783.6
0.1378
30.87
9485
61.21
317.5
115.8
0.02264
4.273
0.1807
5.544
0.02383
362.6
3303
131.7
0.01971
51.72
0.1283
213.6
11.22
2441
4.243
0.02379
59.96
7.5
0.02082
0.7813
4.484
185.8
110.2
234.2
125.2
25.74
9.653
31.05
70.78
122.1
0.02239
607.1
118
322.3
22.44
41.88
0.02213
0.02207
0.08196
261
28.28
0.02183
0.02709
5.32
125.8
78.82
9.329
211.4
373.5
1.939
0.02364
0.02134
119.9
93.06
20.04
0.02977
1757
16.31
170.2
0.3301
453.3
0.02184
82.36
33.91
2.949
0.02378
84.62
23.5
2149
0.02027
38.35
340.7
0.02172
6.981
0.02186
72.47
17.27
0.02178
283
179.3
148.5
158.9
23.47
275.2
238.4
39.89
94.2
196.2
105.3
28.39
49.31
406.4
0.02584
253.7
0.02178
22.06
0.0258
28.89
0.02116
0.02184
0.4988
44.72
97.9
0.02131
0.02117
105.5
2500
294.3
293
50.91
4.619
72.65
12.16
70.58
130.6
755
0.02134
318.4
64.65
0.6749
1.967
0.02407
0.02705
12.23
448.4
17.47
998.8
0.02569
0.03408
103
334.7
0.02946
591.3
0.1854
0.1431
141
3.367
58.58
0.1689
4.946e+05
136.9
57.27
45.04
145.3
238.7
419.7
365.2
0.02716
120.6
64.63
53.53
0.02122
89.05
0.6666
0.5371
0.0197
0.0212
469
0.1271
220.6
194.3
29.4
3.956
1.468
353.3
0.1541
151.1
0.02168
0.0209
15.67
0.1131
403.2
0.4619
404.9
48.15
87.9
0.1953
0.7149
0.03037
312
0.05343
183.2
6.936e+04
15.34
30.69
76.62
0.02474
30.3
115.1
565
3.793
11.44
70.49
2302
95.74
41.08
17.46
124.5
38
9.603
33.59
0.4342
1.067e+06
0.6553
0.02945
41.93
17.77
67.7
0.02156
44.22
5.249
78.66
0.03629
1071
127
443.2
0.03663
373.2
37.16
315.9
206.4
0.03126
80.16
124.1
226.4
39.15
0.02212
39.15
79.24
0.02218
7.12
1.115
223.6
116.8
0.6683
15.39
537.1
99.43
0.01935
80.26
32.38
659.3
301.3
0.4394
54.48
122.9
0.01941
80.98
139.1
24.38
9645
23.89
131.4
85.31
30.39
2.226
0.02193
7.981e+05
111.9
148.3
195.1
65.06
84.43
85.33
140.2
0.02132
5.1
2.361
0.03182
107.9
157.2
42.05
12.82
0.02049
69.83
29.26
0.02169
0.02043
1.972
22.06
50.97
72.97
81.23
3728
3.485
0.3604
0.02124
98.1
60.32
212.6
405.6
1.2
0.04766
0.02247
3.152
1869
0.02126
0.1804
181.4
28.72
583.1
0.02309
28.66
31.49
0.02182
310.2
0.02121
25.78
1470
313.2
16.54
958.6
0.02315
246.2
0.1891
363.1
76.83
430.3
3109
0.4341
0.795
2.658
1379
0.0218
2.698
202
684.2
64.57
921.9
0.04597
0.1691
120.4
612.7
1842
131.9
1.985e+04
401.6
3653
185.5
159.3
4.238
1620
0.02432
54.29
0.02543
0.02336
38.63
0.02871
142.8
23.99
29.78
0.8703
0.04394
332
43.98
0.02225
1.846
74.02
0.04195
304.8
2163
32.69
5.754
122.3
10.33
89.82
0.02173
60.89
184.5
0.02413
253.1
110.9
15.61
0.0207
1.804
1.301
7175
4.656
2186
71.27
13.58
33.81
451.1
402.6
0.0216
500
1.101
0.02312
5.061
7620
1.719
682.8
5.98
1.672
699.5
3333
146.7
0.02356
0.02184
6.205
8.675
72.21
292.7
68.7
618.1
193.7
0.1234
605.6
0.0629
1167
0.02161
72.17
262.4
29.45
164.5
95.45
0.02179
0.02229
132.1
0.2821
37.66
133.3
75.52
61.55
13.47
165
280.5
1089
45.2
276.6
186.3
6.357
64.75
133
86.52
377
2982
97.06
0.02156
0.02142
73.8
44.3
0.7974
0.02092
13.91
72.51
0.5435
98.36
10.88
127.4
11.89
0.02223
0.4423
0.5748
1292
475.5
29.51
0.6187
2.377
427.2
142.4
15.39
38.52
16.95
73.27
66.19
791.5
0.02415
404
480.1
30.76
144.2
133.7
0.02188
656.1
1185
0.02097
0.02155
75.78
87.64
9367
80.97
52.38
119
88.87
0.483
0.5131
0.02477
108.9
38.58
73.35
2.023
252
73.95
0.02408
852.7
57.99
0.02172
354.7
0.02274
0.02169
10.54
0.1387
2316
0.02158
305.2
0.02182
182.6
0.113
1.847
3.466
250.9
184.9
139.4
20.43
0.04976
0.03996
27.74
100.2
81.87
101.3
1059
111.7
1005
171
154.6
632.8
182.4
601.5
0.2972
3.511
0.03117
333.9
43.04
398.1
0.05245
53.3
36.8
43.93
34.95
93.29
0.7944
387
12.16
44.02
49.1
284.9
77.54
0.02076
12.88
345.1
0.02272
261.2
557.3
0.02081
1.853
50.26
0.03907
0.3222
8.123
78.27
0.2408
0.0199
231.6
130.5
0.02177
0.2089
0.03655
73.86
206.6
4.083
0.03978
140.9
2150
250.7
137.8
51.78
1585
0.0618
79.6
0.02178
110
12.1
253.6
34.89
102.1
817.8
0.02197
9517
173.3
232.4
28.48
914.4
16.03
3.06
508.7
35.12
0.04047
1.917e+04
39.02
142.1
358.7
89.92
36.47
53.5
335.9
44.83
71.92
18.03
206
166.9
1.814
1767
0.1294
51.46
0.124
254.2
0.01983
0.02166
10.59
1664
75.37
0.2224
750.9
119.5
0.02181
2552
52.31
13.61
2337
2.763
43.61
1.927e+05
1.844
596.4
48.52
39.09
922
161.4
418.6
9.232
339.7
0.08699
0.6367
4.899
118.3
3.991
51.87
53.06
575.6
61.85
0.3621
50.96
1.941
1.185
5.301
1682
0.05053
1710
361.7
63.02
75.97
0.02181
38.64
106.9
1.507
312.5
344
500.3
0.02136
194.6
132.6
99.75
867.6
58.31
4.957
91.07
0.02235
82.02
77.25
2903
231.6
0.0937
38.66
0.02253
2356
970
62.86
0.7887
3.833
0.02079
0.01983
54.76
30.21
16.11
0.1197
0.04169
0.04526
20.35
102
5.421
320
129.9
938.2
1.391
434
35.28
92.2
0.01986
242.9
47.45
23.72
1131
4.48
12.7
86.88
29.72
70.81
2958
1.086
135.7
56.65
12.69
2.569
113.8
2454
0.218
116.9
0.0212
146.4
669.9
0.02036
774
15.47
74.88
201.1
0.02139
1.596
1.052e+04
0.02189
110.9
140.8
45.27
984.6
0.892
2.365
74.75
563.7
84.02
282.2
0.07975
34.27
287.3
3385
157.7
115.4
0.0217
153.6
4.958
354.7
164.1
32.42
103.3
0.02208
1.478
69.17
0.02391
48.12
0.02133
2203
51.54
1596
81.88
35.88
758
96.9
87.14
146.4
4866
136
115.9
25.43
66
68.11
0.02211
29.49
0.02289
45.83
0.02201
48.46
0.02148
239
39.59
0.02079
0.02171
87.76
0.2197
240.7
0.1347
0.0202
8.751
107.6
0.03922
5.316e+04
248.7
5252
87.51
19.29
157
90.32
39.44
0.3134
782.9
28.64
170.1
530.7
112.9
46.81
10.59
0.02156
4827
128.1
674.6
0.02181
1024
40.72
158.9
50.55
0.01976
0.01974
0.3745
1.056
5.728
27.33
31.59
1.101
2.326
0.7138
2.025
512.9
26.49
2.684
88.26
2.644
611.1
240.4
34.34
170.6
72.84
0.02235
43
37.82
1010
40.21
0.0392
24.97
1.076
74.45
28.04
713.9
0.7794
0.02174
51.4
10.63
1448
434.5
0.7999
111.6
169.6
0.1639
0.01973
489.8
233.3
5457
0.08793
1789
34.42
0.02155
256
370.5
20.88
0.2369
33.08
76.85
26.85
96.09
40.34
155
0.05045
41.05
283.1
294.7
0.04333
0.04325
195
18.71
7725
94.18
340.3
366.9
4853
0.8056
86.62
0.02753
0.02198
0.02151
66.38
0.02188
1353
0.02173
4056
0.4985
17.74
50.03
262
0.07366
1665
0.3142
177.2
81.2
874.9
0.02265
231.6
105.1
71.31
200.1
134.7
88.81
524.4
626.4
0.05443
0.02061
388.2
0.06065
0.02014
0.4831
432.6
0.02061
663.4
0.02185
57.5
24.78
33.23
130.3
0.02097
75.69
283.7
76.28
0.1065
5.753
0.2788
0.02178
0.02123
75.56
2.046e+04
8.458
44.14
0.02654
1358
0.486
0.1095
0.04834
2.537
94.74
245.1
0.02769
39.36
0.02345
87.35
0.02217
0.8519
28.04
36.35
21.76
339.9
185.6
0.02122
24.98
548.4
91.51
951.9
436.1
7.763
0.03812
4.853
8389
35.95
448.4
1050
0.05719
0.2547
0.02163
162.7
86.03
72.5
0.02181
183.6
0.02176
0.2512
84.02
0.02151
6.632
0.4535
13.63
36.29
0.3422
167.9
0.0219
153.1
491.3
2.11
13.13
83.41
0.04546
13.34
27.36
77.21
18.05
40.62
302.7
139.8
223.9
547.5
0.09511
0.3172
18.81
0.0404
117.4
83.87
0.1593
39.08
0.02649
0.1507
236.5
1.302
12.72
78.64
1079
64.77
911.8
0.8355
0.02066
992.6
63.65
0.1261
186.7
0.03124
22.92
0.02223
17.76
835.5
38.91
11.92
28.06
70.19
0.02187
30.57
0.6911
8.447
1194
0.02782
47.82
520.7
0.02161
0.02843
29.54
0.0577
47.48
2.408
1.922
16.32
0.7348
34.4
0.06012
0.8917
140.7
0.02077
0.2793
1188
845
0.02097
99.13
1144
4.52
498.8
41.78
81.32
822.4
0.04969
0.09042
31.38
0.02789
544.2
14.25
43.53
755.8
280.4
0.02722
281.7
1.435e+04
4.755e+04
59.99
32.72
251.5
0.7143
63.33
5.97
30.49
279.7
49.96
64.39
30.55
776.6
102.5
1.162
0.02182
414.9
1.192
112.7
0.4726
0.05643
63.07
61.18
4.687
0.02052
188
442.4
7.917
419.4
63.78
1109
131.1
0.03064
251.1
618
65.93
51.45
1469
0.01939
2557
119.5
80.89
0.02568
68.49
61.09
303
359.1
43.24
414.4
0.02601
6.991
95.82
0.0631
52.27
0.02189
210.7
2507
74.96
410.8
5460
51.08
1072
0.0808
326.4
5.794
43.26
0.04703
8.427
16.14
50.74
57.44
0.04818
39.6
3355
5553
55.8
2.705
1.021
1.648
0.02234
0.02903
104.9
0.4955
0.02236
37.91
64.17
135.9
60.87
4.939
72.26
11.49
628.1
955
1484
0.1166
44.74
2619
27.46
231.5
2.605
6.711
33.28
3.383e+04
8.949
7.118
0.03515
0.06769
764.1
48.71
0.0218
0.02196
50.6
390
42.62
50.26
1977
27.59
0.02668
369.6
46.66
34.8
614.5
0.4952
1.948
50.18
153.9
0.8215
189.5
0.02189
354.3
26.46
394.9
0.7825
106.1
548.7
2.018
387.3
10.21
278.6
69.04
240.9
0.1585
50.01
70.92
92.98
370.8
36.87
1339
102.4
0.0218
66.1
2.602
315
27.71
0.188
10.37
0.1456
853.8
0.03815
41.78
30.5
44.81
55.11
28.33
0.2321
918
0.2781
0.02746
189
0.02091
55.14
0.03863
0.8607
27.78
0.02152
0.3811
107.2
186
0.02178
0.0249
51.55
9.688
285.7
0.224
21.91
39.84
327.9
228.2
1.068
35.99
7.933
0.09967
53.36
2369
17.21
1913
195.8
20.9
1030
0.02181
0.02061
2.324
2.367
5279
0.02181
10.4
138.3
1.465e+04
139.8
251.7
0.0196
0.01917
183.5
207.4
27.46
39.05
0.04081
2.18
1.165
0.02222
366.1
69.33
37.66
27.22
684.4
0.3054
3.12
0.01991
5.494
65.6
342.4
157.1
170.9
171
83.23
102.3
57.5
344.7
184.1
0.09048
57.89
634.3
0.02596
0.02335
89.85
37.48
1081
3.447
98.64
245.1
0.1167
0.02178
8.852
0.02211
92.53
1958
49.66
0.1859
23.7
0.056
542.6
271.4
0.05558
6.713
5.123
43.98
40.45
17
182.4
136.9
92.03
74.17
8.482
44.77
427
49.16
152.5
37.01
3884
58.91
120.6
137.4
14.1
3.866
7.991
1117
0.507
262.4
0.02322
58.15
0.02214
68.25
18.55
947.9
124.8
0.1278
324.2
3069
435.1
82.46
30.25
315.2
1537
0.2034
39.98
17.27
1964
118.1
83.88
0.2588
0.4416
0.02181
24.79
2557
2.654
104.1
53.15
0.1346
1080
0.01984
15.98
0.5694
38.73
199.1
0.2364
2.222
25.34
0.05146
39.14
12.34
1015
129.1
114.9
0.02155
57.42
103.3
321.9
766.2
17.83
9.609
142.7
0.02185
124.8
95.99
7.638
16.45
33.98
825.3
315
89.55
67.49
0.6838
6.007
682.6
3.506
0.1098
1320
0.05725
0.696
0.02188
0.02199
65.12
0.02233
132.8
19.43
1.058
27.77
309.2
902
98.87
68.34
111.8
43.29
8480
102.2
116.7
0.7696
3307
26.05
743.6
1227
0.03508
228.1
292.4
2.237
38.66
363.8
225.5
175.1
86.08
108.4
0.03016
7.352
0.02206
1.048
36.66
68.1
16.01
43.66
1704
56.53
0.02233
346.9
107.2
2.729
22.69
113.3
82.19
256.3
394.6
922.9
94.62
105.2
88.24
116
91.22
0.1071
4137
389.3
38.98
3.379
0.02248
123.9
348
62.95
2.164
961.6
393
120.3
2.509
116.1
1937
0.02249
682.4
18.92
0.04777
9.757
187.3
0.02181
258.2
41.67
5.63
4739
5.778
159.1
3322
92.52
103.1
0.01983
0.01978
97.38
11.84
3.383
642.8
56.25
0.02151
811.2
342.1
61.08
0.02248
0.02235
61.9
3.858
94.27
1.122e+04
210.4
0.02404
244.6
2162
0.1191
250.4
140.7
0.07015
0.9507
180.6
0.8639
32.85
0.01966
0.01944
0.01946
0.01962
0.08291
28.27
8.001
108.9
3.471
72.53
85.97
878.1
0.02041
180.2
54.26
230
630.2
313.9
54.1
30
141.3
51.33
67.99
0.109
42.97
6286
71.15
698.8
0.8145
27.2
0.02177
3447
113.4
131.8
3.661
0.03673
2854
0.0218
48.75
589.7
0.02904
225.1
72.43
36.17
42.1
282.5
0.05568
136.3
0.02068
5.832
97.7
93.43
72.77
16.79
0.02164
0.02189
0.3236
94.9
224
0.3789
48.99
226.8
1.816
222.8
142.9
5.398
44.72
30.07
83.94
0.21
3393
0.9088
0.02178
1190
0.02178
0.02264
0.3551
0.08055
259.4
63.5
404.4
77.45
136.8
0.02188
0.1001
61.42
83.72
59.21
0.0389
0.3616
9933
968.3
0.02213
1592
964.3
9192
0.05757
5.422
13.19
0.1055
0.02541
4.344
99.78
7243
0.1308
273.7
3.643e+04
0.02179
155.5
780.9
54.13
0.02179
327.5
8917
4828
1123
0.4792
14.36
2476
0.05735
74.19
0.02154
47.07
960.9
7.062
246.9
1088
0.2513
49.55
17.01
0.02225
0.03292
199.9
383.2
3.152
446.7
192.8
1.009
46.46
51.47
76.07
71.27
0.0218
48.93
68.34
84.99
105
26.09
190.9
81.42
1433
1644
2.038e+04
218.3
0.0546
159.8
0.02735
345.9
300
0.0218
2.214e+04
0.02221
72.71
1232
556.9
72.25
128.1
89.61
40.66
0.01965
9355
33.81
0.0467
38.62
55.99
2479
853.3
3279
23.68
169.3
919.6
35.32
0.1108
37.35
1588
0.02089
69.49
28.12
38.92
25.34
33.34
25.84
662.2
52.31
49.38
962.9
0.04173
621.6
0.125
21.16
91.23
0.02608
0.1388
18.58
429.9
389
1376
0.04533
0.02215
2.627
96.43
1598
58.04
9.627
0.01931
0.03374
392.8
0.01976
131.8
137
0.08746
195.9
34.97
2125
1467
862.6
0.04057
230.4
65.55
268.3
3.768
12.69
988.2
69.26
307.9
104.5
327.3
84.74
1.933
1888
28.9
37.65
58.15
0.04087
23.71
0.182
0.0222
10.83
152.1
116.3
73.63
20.55
2687
4211
47.04
3.153e+04
0.1905
0.3645
0.03698
0.06525
9.537
0.02221
39.5
1231
94.89
307.9
1.474
16.38
36.21
154.8
49.95
533.9
43.86
2399
275.7
0.02439
35.01
38.68
0.02204
0.04208
481.3
0.02186
281.7
211
101.3
3.506
617.7
0.0751
0.6723
0.05023
242.2
897.2
150.2
25.77
0.02144
89.84
0.02164
0.3312
114.5
2.8
975.9
184.8
270.4
7.131
2404
1.064
0.162
90.54
102.1
0.02084
2.569
0.02185
324.4
344.2
116.7
75.58
0.02165
236.9
170.9
154.4
799.7
330.9
222.2
0.02451
1.061
2.002
2.102
379.9
15.44
0.09663
4.97
0.1647
23.89
123.1
0.02071
0.02042
0.02274
0.04173
0.2871
200.8
182.2
0.02208
94.42
12.66
61.96
0.02194
129.8
0.1112
456.5
0.05959
6200
13.2
510.9
0.03484
0.09944
873.3
0.03131
60.42
62.88
77.18
121.2
192.1
0.02182
121.5
71.45
46.91
60.11
75.72
4.123
81.4
26.73
741
0.02154
47.29
18.66
1967
0.196
0.02209
454.8
595.8
83.3
58.58
6.705
705.4
0.0525
15.67
66.97
51.94
37.22
4.908
0.0243
10.41
1074
105.6
35.43
1105
3.083
3.641
0.02168
0.03063
0.1414
0.03617
6941
173.7
0.02195
0.02362
40.54
4341
0.02194
74.31
716.7
60.85
3.356
290.1
1027
190.1
43.36
280.5
2452
539.7
0.02225
111
15.97
154.7
0.02139
0.3566
80.86
42.64
102.5
3338
691.9
1.379
229.1
2175
8.658
80.12
80.06
1.766
0.9218
425.7
1641
0.02158
371.1
49.24
0.02193
778.1
66.46
3.86
0.07917
33.16
243.5
115.9
12.16
0.02189
0.022
1.842
35.63
0.02018
2.401
0.02759
303.9
40.83
61.67
181.6
447.1
1.832
47.59
0.02154
1046
15.41
1143
206.5
0.1111
428.9
5.534
311.2
820.9
10.85
766.9
0.02081
0.02125
98.8
0.07462
0.0214
2006
85.95
92.64
259.8
12.31
111.4
0.0242
1945
0.04297
28.22
0.02041
0.2235
101.9
66.17
131.3
33.21
29.29
121.6
0.02048
135
307.7
393.9
1088
0.1452
26.88
7.691
0.02195
92.2
231
0.179
0.05169
31.66
844.4
0.02132
0.02164
10.95
249.4
52.08
1473
0.02206
347.5
120.4
50.67
0.02208
0.09132
334.9
68.56
192.5
70.84
25.54
0.02052
178.7
0.02584
383.1
1369
0.07305
57.9
31.2
220.1
537.2
113.7
0.07045
0.02048
112.3
0.2413
0.02167
431.3
88.27
9.575
0.02049
0.08569
0.1137
0.03033
46.19
84.76
0.0218
291.3
28.72
98.49
0.02922
0.02191
0.02168
0.05366
9.892
2.372
239.5
1045
1449
26.82
1845
642.5
0.0251
974.3
150.8
250
29.27
0.1866
1.988
442.8
559.7
521
93.62
0.06262
85.49
70.49
43.14
8.088
0.2372
72.56
0.2498
96.74
0.02932
106.6
5.716
4.055
0.566
584.3
1610
903
0.02062
4644
107.1
0.02012
108.1
0.02182
137.2
175.8
0.1023
467
31.09
0.0223
1.788
7.069
1160
0.02364
0.2475
855.1
2.661
0.02158
595
61.22
0.03442
0.2349
3.105
74.11
2715
221.8
174.3
13.88
93.71
1.666
0.02173
0.05023
60.74
42.91
177.9
0.02207
2322
97.87
17.37
36.98
109.6
159.9
0.0202
0.064
112.7
163
0.05655
49.4
253.3
6.897
3.986
6.695
26.09
0.04809
20.89
15.86
9.634
6.197
0.02205
172.6
0.1316
61.07
3.163
2.2
295.6
142.2
5902
10.57
0.9702
0.0738
0.02123
3.095
12.61
637.6
1041
77.23
166.1
283.3
39.47
0.8565
157
203.7
734.4
71.76
0.05084
415.7
1.112
401.7
7.095
20.36
29.06
98.94
0.02179
49.81
0.2379
0.02164
0.2758
411.6
1.086
4.198e+04
235
125.2
0.02167
30.12
253.2
0.03826
57.95
75.87
185.7
84.57
289.4
0.02188
210
0.02073
2.195
327.1
50.62
3.018
210.4
3e+04
0.02185
0.02175
15.96
31.42
366.1
0.997
99.39
267
5.42
61.53
0.02217
170.6
510
0.1216
75.68
0.02157
24.25
0.06842
47.04
163.9
155.9
0.283
79.83
14.77
0.02833
93.38
258
0.2337
0.02153
0.02367
167.1
1003
10.4
6.829
83.63
9.88
73.03
8.375
0.01939
0.3898
1.169
1639
1596
345.9
0.02135
226.2
57.28
201.1
122.4
1103
3.131
44.03
42.94
28.61
275.2
705.8
0.909
0.05557
9.333
0.03744
3013
0.02364
48.41
206.8
15.21
61.07
248.4
130
453.7
43.31
194.2
12.27
2.659
448.3
1587
65.47
888.4
1556
0.02179
983.3
123.9
390.5
577.4
41.35
1.475
39.22
36.31
5.908
0.04935
28.02
70.25
28.09
31.17
83.56
1.048
1.242
0.7311
1016
115.7
1405
42.57
230.5
0.02027
380.3
167.2
489.1
29.94
970.8
328.7
125.6
0.105
916.1
0.09215
53.72
104
0.07188
0.6862
97.15
10.46
30.94
81.48
9.248
75.61
59.97
1077
8.989
6039
0.04728
4.931
40.68
12.37
0.05679
249.4
0.02181
0.02253
0.02177
63.18
63.89
78.06
0.4643
0.1554
42.73
0.04983
5381
511.8
968.9
99.91
0.09174
277.4
607.3
0.0816
138.4
0.02187
24.26
21.66
65.63
2.021
0.0213
0.02184
213
26.6
0.04526
1039
67.14
0.02096
0.02182
27.94
0.03623
182
1063
0.02486
3.213
91.61
245.1
460.5
1087
9.483
0.1819
20.34
126.6
0.3042
345.5
8.844
2.378
244.9
71.48
3.152e+04
0.03071
24.97
210.2
1168
0.02184
75.69
0.0218
12.23
2.695
11.09
41.13
120
53.26
0.2352
398.9
81.78
148.8
285.7
280.6
82.28
1.293
30.49
342.2
46.69
119.6
0.02124
922.5
992.5
423.3
19.5
3.883
441.7
221
0.462
0.1414
7758
77.21
0.04352
0.02886
0.04513
156.6
283.6
2.842
968
5.477
0.03308
44.87
26.7
41.28
182.2
5606
636.6
34.08
225.6
61.59
111.1
144.2
65.32
17.41
18.29
436.3
60.52
0.4209
50.33
243.2
0.1903
19.11
1.02
4.237
1073
76.8
0.02204
832.7
8.238
1176
130.9
0.02153
0.1336
271.2
0.03378
76.74
340.4
669.1
16.74
0.02296
0.2499
31.11
63.93
0.09201
154.3
0.02078
227.4
74.65
107.7
48.27
150.7
158.4
139.2
822.8
0.3952
38.85
0.02182
1449
0.04671
0.02634
45.26
0.02211
32.96
52.52
1.927e+04
0.02196
67.87
31.04
184.8
150.5
0.2425
109.5
40.94
131.1
627.3
102.3
0.1183
0.02255
51.65
340.2
13.67
35.08
166.4
174.4
2.807
0.02115
28.57
71.32
2230
19
99.17
3.485
85.31
0.02151
8.099
956.7
394.4
0.02198
0.2775
133.6
0.01992
33.43
439.6
30.56
0.02195
0.02201
16.06
0.0246
0.02014
0.02174
19.01
238.8
392.6
0.3595
60.66
4.668
0.8279
0.02225
72.84
22.45
0.04913
1.015
386
2.191
0.02877
159.9
130.6
10.64
922.6
2518
0.0283
29.11
11.43
153.3
139.7
307.9
0.02194
21.22
1010
2.344
46.5
0.4789
533.3
105.3
75.41
5.686
1170
0.08315
2927
96.01
0.02858
0.03476
0.02
42.86
102.7
700.8
379.1
2667
0.1275
0.01941
36.46
45.22
0.15
0.02215
308.5
24.85
433.1
130.4
88.77
30.83
14.01
9.527
103.5
0.01985
828
177.6
69.45
5.444
0.101
0.02242
51.73
41.43
132.6
1357
17.03
0.0487
24.35
0.7798
0.09522
0.02224
306.8
76.39
322.3
302.5
88.28
0.9942
54.6
55.77
3.159
34.19
0.4963
0.1921
0.02192
31.83
1891
1.086
0.8931
3705
0.348
0.02169
4.368
0.03234
0.02203
45.9
0.01948
0.01943
3.088
0.02012
93.75
1536
186.7
4.516
0.2047
0.02113
0.02197
4.802
88.5
12.61
992.1
46.3
0.0288
46.87
11.08
611.2
0.2599
0.02198
3.463
56.35
0.02203
0.02136
28.82
89.27
0.06515
0.03426
175.7
0.02131
0.4253
0.02183
5604
0.2202
148.4
39.38
0.03218
0.1794
10.7
41.84
236
34.42
34.22
26.76
0.02215
979.2
56.35
45.43
0.02191
53.51
41.37
184.7
114.9
0.3589
103.4
4.634
0.2127
155.5
0.02205
2.763e+04
5.19
1373
0.02197
88.31
0.02185
0.1053
1.911
342.5
48.07
60.45
2.581
0.0852
1051
0.09872
134.7
972.2
7.447
0.1979
0.0388
242.9
0.02163
1.741
81.19
6.234
5.259
0.02218
1398
0.03745
38.66
322.3
20.78
170.5
645.6
53.45
361.1
42.61
1.1
75.55
1.674
0.02178
0.02181
588.4
48.57
244.3
35.8
30.93
0.0218
28.25
0.02181
0.02197
0.03596
451
0.1622
4.246
0.02899
90.75
0.3249
159.6
107.1
1697
0.02783
240.4
28.73
37.68
0.2338
35.83
0.02187
39.83
0.2498
56.03
4.742
0.03527
103.3
2142
52.34
512.6
91.17
1849
436.6
2.369
14.05
1233
7.915
2920
137.4
89
158.1
78.87
116.4
109.6
206.1
0.03517
57.29
0.05934
149.8
1256
33.11
96.6
267.7
58.78
79.49
0.03019
97.8
111.5
3581
40.44
0.02324
82.91
28.61
59.4
0.04991
22.6
65.17
104.5
0.7171
434.4
13.72
334.6
79.97
240.6
72.76
37.13
95.33
0.02739
635.2
7.168
0.02581
35.11
51.98
84.71
306.5
345.9
0.02202
75.68
45.2
0.1374
3.907
50.16
3581
306.8
0.02088
0.02229
1.805
90.31
25.52
0.02161
18.88
91.84
174.1
959.9
0.02104
108.6
881.1
62.02
2753
185.1
210.5
191
40.78
7.104
0.02527
101.9
203.6
31.83
129.1
0.9995
65.58
0.02202
0.04635
93.48
72.82
90.55
181
49.32
0.02214
360.4
195.8
0.3283
115.2
3943
763.5
0.03338
0.2049
0.02737
33.96
321.2
284
439.1
42.79
130.5
0.02182
159
1.514
35.84
185.8
0.7163
993.5
19.59
695.1
0.04155
63.63
604.8
0.02178
62.81
35.86
96.86
48.33
0.0219
0.02198
0.03506
112.6
0.02215
26.65
437.4
0.1999
85.99
98.38
0.04712
27.95
58.89
0.191
498.3
69.7
1108
168.6
0.02206
397.5
692.1
0.02172
1104
6.326
14.09
14.16
208.9
41.28
29.45
48.53
40.64
0.02194
44.92
0.02178
0.06671
509.6
55.48
19.69
16.91
1.416
132.3
0.0219
0.01974
0.0892
35.7
70.45
28.16
994.8
1.601
0.1199
464.1
0.6956
39
0.02137
129.6
284.7
43.86
54.17
245.4
40.48
101.3
84.86
2.394
0.02458
80.21
65.07
53.55
215.6
1074
245.1
0.0215
40.29
107.6
41.51
4637
0.02181
205.1
81.51
29.91
41.94
89.07
2862
66.69
62.59
294.5
3447
5.705
60.11
802.2
5.535
0.02169
142.3
80.12
92.62
52.91
42.16
10.03
0.0348
187.3
41.83
466.4
8.983
362.1
511
0.02175
288.5
52.93
185.4
2.258
0.01943
147.8
96.68
8.842
26.61
0.02135
52.8
46.89
2.802
29.05
38.25
250.2
74.29
207.3
169.1
0.01993
39.16
57.43
112.8
270.1
46.59
16.32
92.68
42.07
15.68
58.25
161
942.4
347.1
227.9
5623
10.12
0.1124
1.294e+05
179.1
668.7
0.03186
648.8
1408
121.3
12.46
0.02317
9.598
0.02181
78.67
17.21
2.572
2.216
47.99
369.8
11.8
1.236e+04
61.43
131.2
141.9
2245
273.1
105.3
74.68
0.156
83.53
48.18
1097
30.74
0.7211
0.9529
275
0.9045
0.022
0.02177
17.39
19.58
0.04896
0.02018
0.02231
114.9
507.7
407.5
0.02155
0.02565
27.9
0.01974
0.01985
289.6
0.04345
56.66
354.7
0.05808
315.9
3.913
148.4
9.98
102.5
0.07944
48.63
74.1
3.804e+04
94.75
117.7
277.9
567.9
1.871
0.0256
46.36
344.4
0.02178
3.146
127
323.7
937.8
61.02
128.9
389.2
0.02675
51.33
318.8
119
39.13
82.6
0.059
14.6
33.99
295
62.02
87.95
0.0365
446.3
67.68
0.03214
88.84
0.05644
82.97
0.02926
2905
1124
0.0332
129.2
58.7
0.1869
867.1
187.8
0.02332
504.7
39.29
96.52
593.7
0.04614
0.4152
3902
37.69
113.8
3.104
86.07
1.737
7.469
78.21
0.04981
1.305
179.5
41.65
86.94
73.12
125.9
2.914
40.16
275.7
98.62
3.066
14.34
0.0218
0.1594
219.5
55.42
0.01945
1.74
15.38
7.088
81.24
33.1
74.93
0.1742
130.8
39.95
0.0905
27.1
165.6
0.1597
350.8
0.05501
327
38.23
0.3884
0.08846
49.24
313.5
160.1
0.02105
138.5
63.07
81.65
0.06588
0.02235
28.48
139.1
440
7.369
30.04
60.99
128.2
1.844
1.802
1280
7.132
1.388
3590
139.4
34.94
72.62
0.02204
2.451e+04
0.02266
110.7
50.32
36.34
53.47
41.27
1588
17.62
5.328
0.5198
1.113e+04
281.3
58.67
8312
1193
280.3
49.31
0.1474
0.6277
0.411
29.36
0.02187
178
1175
0.05956
22.35
3.026
65.5
52.31
247.7
2313
563.5
100.6
0.01943
0.01914
0.02179
173.7
2358
0.6693
0.0216
0.2293
824.6
3.825
2557
60.29
0.02269
6802
0.01948
1.21
40.44
0.0502
38.6
0.4698
1.047
0.09314
633.5
77.91
26.49
53.57
8089
51
409.1
98.07
52.32
0.02213
5249
234
470
63.9
191.7
34.74
244.9
0.1
28.28
138.9
47.19
167.8
0.02718
657.9
70.77
456.1
8.455
0.1068
0.1783
0.02217
119.5
105.9
85.89
59.09
26.3
805.5
32.09
32.59
28.58
91.42
0.2179
174.7
50.77
38.24
2.116
0.07515
4.685
0.1958
28.65
1.83
210.7
7.618
226.3
25.66
6.962
145.9
0.4571
728.4
27.07
1.482
0.1248
2039
95.62
83.5
28.66
1219
0.02204
662.2
303.3
31.97
39.35
32.75
28.15
269.2
86.79
115
57.32
40.53
2718
0.0464
0.02187
0.02209
52.41
232.7
1.886
1413
427.3
1639
298.7
44.56
727.9
1049
5.73
262.1
424.4
30.55
1094
0.02175
137.6
282.2
267.3
0.02157
268.5
14.27
108.9
131.9
69.05
0.02202
0.342
129.7
693
0.02093
125.1
3.184
0.509
1.76e+04
0.03012
27.83
48.04
134.8
188.9
0.4529
23.42
6.347
224.7
343.8
287.8
0.01949
50.04
3.931e+04
0.02873
0.0241
478.1
791
172.8
83.04
0.07408
26.13
174.6
17.34
16.02
88.68
0.02004
40.24
8.654
0.272
0.02358
84.87
0.02134
6332
42.26
4.68
11.78
2449
0.0226
388.3
0.02
0.02216
194.8
0.5498
141.7
17.25
0.06123
159
81.19
86.73
7.94
88.26
230.7
407.9
140.4
291.4
571.3
955.4
143.2
27.28
206.7
148.9
88.68
0.5407
0.0212
0.02119
1593
32.56
83.11
2442
0.02225
554.4
0.5019
0.02039
52.59
8433
6.434
247.2
3567
0.02206
259.9
136.6
80.36
46.1
24.92
2222
349.9
0.02176
2654
559.6
0.08039
0.02526
228.7
440.2
173.5
289.7
61.41
50.18
0.02178
219
0.02124
259.6
284.8
2354
0.01945
0.01916
0.2352
33.74
0.03716
37.37
1.33
34.91
97.53
29.14
114.7
0.07523
0.02985
1019
1399
32.66
396.4
0.04924
108.1
0.02153
63.39
1853
95.67
412.1
789.6
274.4
200.5
1.113
30.75
116.4
0.02836
0.02214
0.02183
64.23
93.56
172.6
2922
167.4
0.02712
100.2
166.2
173
4201
16.53
93.33
536.8
21.03
0.07333
1.758
5.86
3.264
0.09992
440.7
46.95
19.68
39.55
282.4
0.2447
0.01976
993.9
39.63
54.79
81.64
1207
36.78
0.02085
67.93
106.6
93.76
3.511
44.12
72.01
4.71
116.7
1.867
0.05458
87.15
0.05567
0.1121
0.2381
737.6
11.4
520.8
88.96
25.09
135.2
0.03451
264.3
164.8
0.5271
38.89
14.99
3498
0.03792
0.02586
257.4
73.66
83
57.42
0.5083
449.6
0.0683
0.02184
8.959
271.6
0.02756
1.93
12.29
0.02173
1058
0.06727
29.48
38.76
16.72
0.6835
298
207.7
2.394
0.0781
0.02222
94.22
26.41
77.46
69.27
0.02152
0.0202
0.02178
45.2
97.01
80.49
0.04313
425.8
39.41
278.3
23.23
351.4
0.3687
0.03675
1085
0.02237
173.2
97.28
0.03809
55.91
34.38
119.3
235
116.4
70.12
3.002
0.05044
2358
244.2
473.2
0.2423
1.32
0.02185
1331
0.02173
52.74
708.9
0.02293
3.54
10.44
239.6
0.06796
62.17
6283
30.76
0.02169
63.73
177.2
80
69.92
69.49
123.8
1639
11.72
0.02073
0.02473
6736
10.53
214.6
4.974
24.48
0.02121
0.02193
1.618
3895
672
307.6
169.1
0.8611
182.8
692.8
25.89
133.5
0.0219
335.1
6.426
142.2
100.9
80.02
0.02161
367.6
74.14
2108
7548
16.26
7.272
1.116
160.7
0.02328
21.93
2449
140.7
138.6
309.1
1195
52.25
99.51
0.2058
436.1
487.7
1169
74.69
0.03054
780.5
514
0.02178
203.8
432.7
111.7
288.4
117.8
11.65
72
20.79
0.0277
50
0.02211
43.37
0.2104
1835
0.2526
2887
20.56
259.9
39.01
61.56
145.1
8.638
122.9
1057
37.08
36.44
36.07
4.824
76.69
126.9
20.46
0.02733
11.33
8.956
50.12
87.67
105.5
633.7
148.9
0.02803
163
1265
78.29
46.61
377.3
0.04468
139.1
0.02168
73.28
3.511e+04
1.968e+04
521.7
87.83
20.29
0.02111
0.04098
91.48
45.35
72.02
3.067
0.02221
53.69
214
6.163
84.23
0.02181
450.6
112
3545
5.527
14.33
30.51
248.1
0.03451
419.9
5681
0.9612
8.035
0.3963
184.8
3174
3.771
51.25
5.2
112.2
0.02735
93.95
0.01989
941.1
70.61
14.18
111.1
3.358
291.8
74.57
1.856
0.0793
0.02199
0.02169
20.31
67.21
45.63
25.16
28.82
51.23
2871
1.359
94.12
0.3384
0.02206
472.7
0.02229
64.47
372
3.362
75.99
29.47
2748
213.5
66.34
144.5
26.03
113.7
0.1764
989.1
0.02177
4584
874.7
34.8
56.08
0.02224
83.04
80.87
147.3
1.19
100.5
770
1029
0.02176
48
0.02193
0.02177
643.3
0.02907
62.99
8.016
1407
98.13
86.02
59.7
114.8
1.426
89.65
1.692
4.06
8.766
0.02517
58.49
0.07387
1411
49.43
30.78
0.3961
14.03
178.1
705.2
164.9
32.41
7.508
0.4124
131.6
49.65
312
98.49
0.6112
65.88
84.96
35.92
33.3
4.616
58.35
6.929
159.8
3243
32.84
0.2003
0.03868
598.8
29.75
0.02179
357.1
0.4369
1239
174.2
0.01967
103.4
216.1
215.9
356.1
337.8
28.15
145.4
0.03867
555.5
270.9
54.9
147
36.73
93.18
0.02228
0.02386
0.02224
139.8
0.2695
0.02197
0.1136
2.108e+04
0.02194
154.1
439.2
1.073
273.8
196.2
205.5
867
24.29
86.39
88.53
2.595e+04
0.02174
231
12.25
34.41
1.994
5.148
3.401
1.492
1358
0.04436
0.02887
1.305
1128
1195
286.4
479.4
0.04844
4997
0.02171
111.2
144.7
58.36
0.02179
0.7566
39.05
263.3
203.5
251.5
2.615
365.1
1876
10.54
31.59
0.02773
4.638
5.816
0.5215
1.121
10.47
185.8
20.46
0.3308
137.3
262.5
0.6555
1.92