/*--------------------------------*- C++ -*----------------------------------*\
  =========                 |
  \\      /  F ield         | OpenFOAM: The Open Source CFD Toolbox
   \\    /   O peration     | Website:  https://openfoam.org
    \\  /    A nd           | Version:  8
     \\/     M anipulation  |
\*---------------------------------------------------------------------------*/
FoamFile
{
    version     2.0;
    format      ascii;
    class       volScalarField;
    location    "45";
    object      p;
}
// * * * * * * * * * * * * * * * * * * * * * * * * * * * * * * * * * * * * * //

dimensions      [0 2 -2 0 0 0 0];

internalField   nonuniform List<scalar> 
127143
(
0.01876
0.01971
0.01965
0.0196
-2.277
0.01957
-2.664
-2.477
-2.484
-1.318
-3.008
-2.762
0.01971
0.01954
0.2452
0.01979
0.02009
0.01657
0.0107
0.01976
-0.3437
0.02127
0.1288
0.03461
0.02125
0.08329
-1.15
-1.178
0.401
0.008129
0.02122
0.08847
-2.085
-0.4007
0.1914
-2.087
-0.05851
-0.465
0.03452
0.02066
0.01169
-1.021
-0.9457
0.01999
0.01735
-0.3987
0.399
-0.0739
0.1031
0.02736
0.01931
0.07621
-0.6825
-0.4926
-0.001914
0.1871
-0.001794
0.04149
-0.01457
-0.4955
0.4073
-0.08203
0.02637
-0.007279
-0.8366
0.2535
-0.3037
0.02672
0.02681
-2.284e-05
0.02667
-1.158
0.03121
-0.01509
-0.00979
-1.172
-0.0473
-0.07456
0.1868
-0.00314
0.3912
0.01984
-0.3993
0.02058
0.02665
-0.06904
0.0393
-1.426
0.2538
-2.341
0.02512
-0.2494
-2.207
-0.344
-0.4927
0.03172
-1.002
0.02328
-0.1656
-0.3053
-0.003307
0.1033
-2.786
0.05431
-0.06865
-0.1669
0.08594
1.41e-05
0.3931
0.004833
0.2554
-1.443
-0.4151
-0.4309
-0.0001798
0.09793
-0.02333
-0.009724
-0.0457
0.01969
0.004923
-0.3588
0.3125
0.05093
0.3901
0.06479
-0.1478
-0.05207
-0.8105
0.2287
-0.1865
-0.409
0.03355
-0.07577
0.0201
-0.1884
-0.05958
-0.3584
0.4693
-0.1097
0.1625
-0.0065
-0.5868
-0.4191
-0.6812
-1.604
-0.8048
-0.007223
-0.4072
-2.864
0.04721
0.1248
-0.471
0.2526
0.4739
0.02605
0.04114
0.2941
-0.07269
0.02584
0.02318
0.4144
0.02465
-0.1876
0.1984
-0.8416
-0.07659
0.3973
-1.883
0.02376
0.02208
-0.4174
0.1072
0.226
0.0002506
0.02248
-1.659
-0.8084
0.04106
-0.01107
0.2268
0.0277
0.02271
0.0225
0.2288
-0.08234
-0.4933
-0.4558
0.03331
-0.02834
-0.6657
-0.7026
-0.05966
-1.485
0.02009
-0.1903
0.0002006
-0.0001819
0.01904
0.002985
-0.02251
0.07825
-0.002208
-0.05863
0.01937
0.02346
0.09144
0.1048
0.00555
0.0001065
-0.1105
0.02442
0.02367
-1.909
-0.1847
0.01856
0.02272
0.1225
-0.339
0.0898
-1.61
-0.005085
0.1245
-0.6888
0.02406
0.02264
0.1973
-0.4653
0.02176
-0.1374
-0.3582
0.02882
0.03011
0.01907
-0.3557
0.05516
-0.1871
0.01993
-0.02254
-0.6407
-0.7034
-0.9104
0.02378
0.2944
-0.6333
0.01967
0.1274
-1.108
0.0178
6.653e-05
-1.211
0.04609
0.1631
-0.4075
0.1738
0.3816
-0.05042
-2.013
0.1889
-0.1206
-0.2437
0.04209
-0.2495
-0.005062
-0.7419
-0.8728
-0.1096
0.4663
0.4467
-0.6457
0.1191
0.0004382
-0.05356
-0.6399
0.02682
-0.6642
-0.4157
0.08714
0.000174
0.2398
-0.0002994
0.03122
0.0543
0.01026
-0.01159
0.02006
-0.2589
-0.001381
0.07148
-0.01017
-0.4673
0.1461
0.05598
0.1249
0.02489
0.4037
0.02885
0.02135
0.02384
-0.6426
0.05073
0.2066
0.3196
0.09828
0.02473
0.4885
0.1045
0.02425
-0.1645
0.04451
0.08254
0.02063
0.173
-0.0003745
0.0142
-1.977
-0.4924
0.04271
-0.2718
-0.0008057
0.129
0.02338
-0.08828
0.1625
-1.984
-0.5747
0.1349
0.02151
0.02294
-1.682
-0.07505
-0.01201
0.1879
0.0001551
-0.0001399
0.2508
0.3856
0.1078
-0.07501
-0.2548
-0.1064
0.1222
-0.6643
-0.6645
0.2241
0.07138
-0.3908
-0.4877
0.05292
-0.8777
0.05061
-0.03571
0.02279
-0.6651
0.04323
-0.3725
-0.4063
-1.513
-0.005045
0.02321
-0.02901
0.02656
-0.02764
0.02346
0.0292
-0.006799
0.003121
0.0007931
-0.5499
-0.0001912
0.4157
-0.08717
0.04616
0.02529
-0.02901
-0.2306
0.03689
0.01868
-0.1179
-0.0005892
-0.1373
0.06577
0.06133
0.2081
-0.02287
0.01922
-0.1305
0.02149
-0.1945
-0.3047
-0.01673
0.3361
0.02316
0.1844
0.03344
0.02428
0.3331
0.02183
0.04762
0.04239
0.02133
-0.005143
-0.3934
0.02261
-0.1408
0.05631
-0.06985
0.03704
0.0007925
0.04119
0.3953
0.07991
0.1614
-0.08051
0.3131
-0.4957
-0.221
0.1208
-0.5598
0.3458
-0.07593
-0.06646
-0.1703
9.531e-05
-0.1394
-0.2611
-0.9037
0.1872
-0.9149
0.1132
0.002689
-0.1771
0.02279
-0.09837
-0.8738
-0.00697
0.083
-0.435
0.07453
0.02496
0.01115
0.02716
-0.05563
0.3865
0.01859
0.02436
0.01839
0.4996
9.5e-05
0.02488
-0.2616
0.05458
0.05645
-0.5828
0.06856
-0.03621
0.05303
-0.929
-0.06211
-0.5353
0.03366
-0.7794
-0.2914
-0.3621
-0.7803
0.0004368
-0.02667
-0.5057
-0.3213
-0.001176
-0.1708
-0.2917
0.05065
-0.4892
0.08239
0.0004598
0.4281
-0.29
0.004096
-0.6483
0.4586
0.4991
-0.6731
0.1733
0.3942
-0.8692
-0.6272
-0.01801
0.02648
0.03039
-1.9
0.03939
-0.7015
-1.585
0.01936
-0.1862
-0.01231
0.04392
-1.495
0.02005
0.4576
-0.02801
0.02312
-0.1918
0.02006
0.01958
0.01983
0.008087
-0.3733
-1.121
0.01363
-0.06127
0.313
-0.08844
0.07744
-0.2623
0.05707
-0.1775
-0.5463
0.0005123
0.02298
0.0213
0.3529
0.03753
0.02209
-0.01579
0.04723
-0.003458
-0.2904
0.007331
0.02993
-2.427
0.02293
-1.826e-05
-0.5038
0.06685
0.02116
0.4133
-2.11
-0.2215
0.04115
-0.02875
0.3325
-0.001306
0.2068
-0.5412
0.03004
0.02329
-0.3221
-0.07109
-0.1941
-0.7409
0.3362
-0.06758
-0.1769
-0.02688
0.01907
-0.2081
0.07444
0.04529
0.0183
-0.0003057
0.0004722
-0.1157
-0.3917
-1.54
0.01476
4.955e-05
0.3233
0.3813
-0.06918
0.3949
-0.07083
-0.1143
0.1566
-0.04064
-0.003961
0.01837
-0.1855
0.1613
0.00102
-1.113
0.0407
-0.2819
-0.0006789
0.06782
0.01521
-0.06856
0.02245
-0.2616
-1.185e-05
-0.07119
-0.2446
0.4168
0.0004523
0.08616
0.02261
0.01115
0.05653
0.005293
0.02514
-0.6031
0.01038
-0.3807
0.06586
0.02079
-0.615
-0.5802
0.05095
0.06108
0.3493
0.03392
-2.176
0.02206
0.02305
-0.7385
0.02899
0.001085
0.1403
0.01198
0.2161
-0.0655
-0.584
0.002781
-0.0006547
0.04032
0.3467
-0.3624
0.0008898
-0.003684
0.02181
-1.609
-0.3995
0.02974
0.0259
0.3863
-0.2583
0.3954
-0.6629
-0.1823
-0.8954
0.0008779
-0.9572
-0.6494
0.09903
-0.4715
0.02074
6.651e-05
-0.5735
0.4698
-0.6265
0.0227
-0.06529
-7.753e-06
-0.14
-0.8266
0.07489
-0.7623
0.09634
0.01604
-0.1852
0.1723
-0.6486
0.2641
0.01999
0.02263
-0.06271
-0.03652
-0.2578
-0.6428
0.07119
-0.6389
0.07354
-0.775
0.02226
-0.3918
-0.004109
0.08735
0.2686
0.335
-6.054e-05
-0.004044
0.01988
0.0438
0.1151
-0.6816
0.4726
-0.1661
-0.6762
0.02364
0.2891
0.1978
-0.01712
0.002099
-1.293
-0.2733
-0.5484
0.3417
0.3587
0.005429
0.3572
-0.1095
-0.03024
7.479e-06
0.02263
0.08081
0.1609
0.02008
0.08524
-0.7398
-0.1187
-3.308e-05
0.04532
0.03023
0.009203
0.004714
-0.3375
-0.6619
-2.851
-0.2157
0.4554
-0.02567
0.174
0.04486
0.04478
-0.1474
0.1236
0.01931
0.2708
0.02751
0.1546
0.3799
0.04234
-0.01032
0.02257
-0.03729
-0.06731
-5.587e-06
0.02262
-0.1712
0.05879
-4.562e-06
-0.6398
0.02252
-0.535
-0.7625
-2.444e-05
-0.07124
0.02122
-0.2821
-0.42
0.003647
-0.6646
0.1084
-0.02941
0.1135
0.1463
-0.639
-0.1852
0.2061
0.08523
0.06126
-0.1095
2.094e-05
-0.06939
-0.07074
0.02068
0.08201
-0.4822
-0.05982
-0.07115
4.948e-06
-0.08716
-0.1856
-0.6406
0.01911
-0.6404
0.02286
-0.4793
0.02384
0.164
0.008061
0.02053
-0.1701
-0.6161
0.01422
-0.07671
-0.06509
-0.09538
0.02709
-0.003857
-0.01466
0.05905
1.998e-05
-0.1384
-1.893
0.08261
0.3009
0.0006931
-0.2586
0.02242
-0.01762
0.0006802
-0.4674
-0.07821
0.02447
-0.04999
-0.06902
0.01842
0.0654
0.367
-0.004348
-0.1377
-0.06792
0.01981
0.02528
0.3949
0.0002977
-0.01565
0.01103
-1.177
-0.004503
-0.09253
0.487
0.06043
0.08129
-0.001168
0.02357
0.05507
-0.005079
0.05366
-0.002727
0.4413
0.1369
-0.6871
-0.6793
0.01829
0.02609
-0.3076
0.2736
0.02871
0.02174
0.06296
-2.841
-0.4874
0.1226
0.3538
0.05821
-0.003767
-0.383
0.2638
-1.722
0.0222
0.07825
0.0003277
-0.02818
0.01859
0.1672
-0.9121
-1.272
0.3244
-1.469
-1.55
-0.3696
0.0111
-0.0159
0.02136
-0.03828
0.07627
1.625e-05
-1.08e-05
-0.5736
-0.09037
-0.6957
0.03543
-0.3743
0.04571
-0.04139
-2.059
0.1586
-0.01611
-0.0525
-0.07904
-0.04131
-0.4078
-0.04122
0.02187
0.1349
0.2811
-0.3895
-0.04546
0.01615
-0.7014
0.1613
-0.005143
-0.3552
-0.1794
-0.09094
-0.001113
0.002659
-0.0784
0.01844
0.294
-0.04237
-0.1838
0.3901
0.1505
0.02236
-0.8867
-1.449e-05
0.4748
-0.8656
2.77e-05
0.3655
0.02029
-0.2085
-1.32
0.02949
0.09038
0.0219
0.02688
0.03943
-0.03901
0.005271
0.1238
0.4171
-0.07016
-0.4032
-0.9007
0.3635
0.03588
-0.3739
0.364
-0.117
-0.9803
-0.01088
-0.0797
0.02047
-0.4688
-0.2567
-0.1931
0.0102
0.03137
0.007208
0.1826
-9.955e-05
0.06455
-0.01834
-0.01294
-0.6184
-1.062
-0.8386
0.0675
-0.6506
0.02281
-0.1752
0.05848
-0.06515
-1.47
-0.07271
0.02011
0.02097
-0.1856
-0.01019
-0.007301
-0.06986
-0.01511
0.1002
0.000622
0.4159
-0.2554
0.03784
-0.05574
-0.5786
-0.1641
-1.353
0.001031
0.1189
0.03682
0.3287
0.02417
0.02324
0.3662
-0.3529
-0.5726
0.0323
0.02961
-0.0181
0.4102
0.05025
-0.07315
0.3792
-0.00895
-0.1008
0.0218
-0.07017
-0.6285
0.2364
-0.0119
-0.3337
0.1264
-0.0002841
-0.004563
-0.7097
-0.3552
0.02048
0.02161
0.07617
0.3217
-0.07104
0.1116
0.07256
0.02788
-0.078
0.02471
-0.07244
0.1407
0.02157
-0.07718
-0.0007542
0.0602
0.02067
0.008395
-0.6751
-0.0002482
0.01648
0.06872
0.1223
-0.8135
0.009104
0.0536
-0.008834
-1.956
0.1104
-0.03164
0.05295
0.1222
0.07412
-0.1813
0.0477
0.001675
0.03147
-0.4778
0.1151
-0.05767
-0.08859
0.02133
-0.08332
-0.1527
-0.6132
0.2143
-1.192
0.04173
0.06687
-0.3728
-0.02877
-0.003347
-0.5084
0.02197
0.1007
-2.831e-05
0.4992
-0.2115
0.03621
0.2122
-0.6747
0.064
-0.4536
-0.2167
0.0363
0.02342
0.2071
0.02166
-0.0006268
0.02831
-0.5418
0.02691
-0.4729
-0.8001
-0.000364
0.1523
0.02193
0.04717
-0.3979
-0.4004
0.02092
0.09572
-4.316e-05
-0.3903
-0.1688
-0.01724
-0.399
-0.1457
-0.2568
-0.3071
0.1048
-0.0437
0.02158
0.02156
0.1405
0.08764
-0.1263
0.02172
2.519e-05
0.04072
-0.01062
-0.1862
0.4473
-0.5575
0.2113
0.02078
-0.6223
0.001402
0.02258
-0.1533
-0.1727
0.03118
-2.005
-0.1865
-9.075e-05
0.02443
0.07023
0.1239
0.0209
-0.01164
0.0217
0.1431
0.08082
0.4915
0.02127
-0.03097
0.09818
-0.07843
-0.687
0.05904
0.04212
-0.202
-0.07274
0.04888
0.1422
0.06658
0.0962
2.904e-05
-0.008703
-0.5328
0.0225
-0.07698
-0.002768
-0.4615
-0.02649
0.006267
-1.688
0.06713
-0.6318
0.01975
0.2268
-0.03599
0.02015
-0.05511
-0.06615
-0.09043
0.05931
-0.8039
0.07462
0.03041
0.383
-0.6201
0.04381
-0.01347
-0.6504
-0.1889
0.1756
0.02532
-0.002074
0.02066
-0.02941
0.0865
0.02467
-1.029
-0.6413
0.09131
-0.07339
-0.2023
-1.266
-0.1727
-0.06379
-0.07932
-0.00911
-0.076
-0.6846
-0.625
-0.07047
0.1608
0.02833
0.005142
0.1162
0.02197
-0.4033
0.07775
-0.8487
-0.0762
-0.01828
-0.03377
0.004791
-0.07618
-1.704
-0.509
0.01682
-0.3032
0.01922
-1.196
0.1377
-0.07454
0.122
0.187
0.0004107
6.233e-05
0.02294
0.02359
-0.02877
-0.2251
-5.267e-05
-9.129e-05
-1.462
-0.2182
-0.1847
-1.05
0.05744
0.04474
0.2036
0.05553
0.005374
-0.09743
0.0001233
0.02194
-0.1648
0.1845
0.07422
-0.5428
-0.1598
-0.1023
0.02702
-0.469
0.4481
-0.1237
-0.331
-0.01454
-0.179
0.03572
0.08897
0.3705
-0.3174
0.02104
0.004204
0.02988
-2.487
0.0002729
-2.593
0.1026
-0.0788
0.0923
-0.006663
0.2463
0.02117
-0.01177
0.02336
-0.1677
0.03606
0.443
0.1271
0.04848
0.02261
0.1996
-0.09268
-0.6099
0.03856
0.1762
0.01971
-2.853
-1.271
-0.184
-0.01028
-1.067
-0.07466
0.0252
-2.198
-0.0709
-0.1445
-0.005901
0.07889
-0.07134
0.005734
0.0006674
-0.0003458
-2.662
0.01519
0.01958
-0.07826
-0.6671
-1.594
-0.3989
0.02755
0.2527
-1.6
-0.2416
-0.1664
-0.6275
-0.401
-0.0548
-0.005635
0.02327
-0.02587
-0.1613
0.007029
0.02652
-0.007317
-1.195
-0.02525
-0.0005385
0.01857
0.02162
-0.2176
-0.1747
0.1236
-7.395e-05
0.3833
-0.2945
0.001771
0.02015
-0.1751
0.01964
0.07084
0.04538
0.05393
0.1052
0.02141
-0.141
0.02006
0.02324
-0.07814
-0.7657
-0.6581
-0.7463
-0.02502
0.008294
-1.588
-0.2813
0.3371
0.001155
0.06893
0.3269
0.06624
0.01707
0.000121
0.0001254
-0.02302
-0.1414
0.01571
-0.08884
0.05957
0.1426
0.4473
-0.0004098
0.06856
0.2688
-1.08
0.03216
-0.254
0.03435
-0.7871
-0.2584
0.122
0.06309
-0.1006
-0.03433
0.02208
0.0223
0.07901
-0.6577
0.04635
0.1782
0.002539
0.0524
0.02284
-0.8305
-0.0009446
-0.007777
-0.02444
0.2828
0.04201
0.4928
0.09942
-0.1737
-0.1541
-0.1331
0.0001146
-2.559
-0.3299
0.01908
-0.3421
-0.02924
0.003756
-0.01049
-0.8998
0.02103
-0.1803
-0.5762
-0.3566
0.02313
0.07571
-0.8537
0.03594
0.4762
0.09947
0.4861
-0.2585
0.02774
-2.414e-05
-2.06e-05
0.04205
-1.203
-2.238
-1.75
0.03587
0.02368
-1.571
-0.0001931
-0.0594
-0.08186
-0.02613
-0.008781
-0.05062
-0.001262
0.2931
-0.01096
-2.178
0.1826
0.4408
-1.134
0.02483
-6.625e-05
0.2838
-0.267
-1.315
-0.1843
-0.4003
0.01047
-0.5127
-0.0732
-0.1887
0.01998
0.02171
-0.09241
-2.63
-1.253
0.06426
-0.001004
0.001005
-7.426e-05
7.998e-05
0.1508
0.02202
-0.001045
0.01969
-0.004408
-0.6034
-0.7313
-0.2668
-1.388
0.001856
-0.07628
-0.3759
0.0215
-0.4021
0.06745
0.1997
-0.0125
-0.002723
-0.694
0.2843
0.2203
0.07227
-0.06421
-0.07518
0.09695
0.1731
-2.688e-05
0.2611
-0.115
0.02709
-0.06687
0.3607
0.02859
-0.6732
0.001936
-0.756
0.3201
0.02193
-0.5524
0.1642
-0.2931
-0.003994
-0.6496
0.03421
-0.07175
0.06958
0.06616
-0.124
0.05288
0.3252
-2.47
-0.6688
-1.821
0.01968
-5.827e-06
-0.3551
-0.01458
-0.918
0.1321
-0.8156
0.009524
0.02226
-0.008712
0.05365
-0.08859
-0.004721
-0.09357
0.0378
0.3893
-0.3166
-0.001612
0.03941
-0.00754
0.2139
0.4445
0.108
0.004865
0.08459
-0.01535
-0.6798
0.02282
0.501
0.3901
0.02137
0.05183
-0.5496
-0.8123
0.4584
-0.05158
-0.4688
0.3627
0.08604
0.06643
-0.2481
0.2945
0.05156
0.02
-0.0008896
0.02195
-0.07562
-0.7278
-0.07853
0.1079
-0.07613
0.04527
0.06911
-0.001071
0.04718
0.1039
0.06131
0.04962
0.06514
-0.6065
-0.0002251
-0.1972
0.08013
-0.2304
0.4389
0.1203
0.1001
0.008871
0.06256
0.4012
0.3825
-1.398
0.07354
0.03287
0.05918
-0.01163
-0.02343
0.02249
3.586e-05
-0.7631
0.1808
0.1716
0.4441
0.08008
0.02408
0.0005533
-0.4324
-0.6459
-0.0006528
0.2475
-1.697
-0.2623
0.0002216
-0.07765
0.02269
-0.1728
-1.221
-0.0761
0.03984
-0.2631
4.506e-05
-3.947e-05
0.02256
-0.04619
-0.661
0.4527
0.01929
0.02251
-0.561
0.0729
-0.885
0.01865
-3.434
0.02164
0.02258
-0.4698
0.03876
-0.03329
0.04261
0.02382
-0.263
0.02309
0.02174
0.4011
-0.07403
-0.1868
0.05876
0.01919
-2.593
0.04325
-0.1815
-0.7149
-0.2475
0.1275
0.02172
-0.06146
-0.0005841
0.2315
0.07169
-0.5751
-0.7446
-0.1788
0.1082
0.1433
-0.05901
-0.4083
0.02203
-0.402
0.08102
0.02298
6.392e-06
-1.64
0.2896
0.05543
2.629e-05
-0.07418
-0.0674
0.03522
-0.6131
0.02456
0.03617
-0.0006846
0.4494
0.09198
0.08883
0.02552
-0.02144
0.03842
-2.318
0.03013
0.02045
-3.264
-0.02651
0.06213
-1.243e-05
-1.487
0.2989
0.008773
-0.1947
0.01686
0.04073
0.006901
0.03586
-5.454e-05
0.1364
0.02691
-2.23
-0.06177
-0.4569
0.1899
0.3223
-0.000597
0.002457
-0.8311
0.09954
0.01899
0.05043
0.0365
0.04751
0.01752
0.13
0.2122
-0.5015
-1.28
-0.1549
0.02189
0.06845
0.09795
0.02674
-0.08896
0.02297
-0.03737
0.06263
0.04389
0.01887
0.04415
0.03872
-8.498e-06
-0.05147
0.02262
-0.04599
-0.01338
0.007683
-0.1779
0.07926
0.02558
0.1013
0.02157
0.3868
0.03603
0.03395
0.009828
-0.002654
0.05208
-0.3148
0.003663
-0.6794
-0.2768
0.07587
-0.6665
-0.005571
0.02119
0.01594
0.06474
-0.01112
0.07727
-0.4183
0.1414
0.03601
-0.5121
-0.2645
0.03487
0.0218
-0.478
-0.06949
-0.07259
-0.1157
-0.5135
0.007509
-0.5188
-0.07133
-0.02075
0.02142
-0.03488
0.07473
0.1071
2.598e-05
-0.3301
-0.2846
-0.7271
-8.355e-06
-0.02831
0.02303
0.01864
0.02705
-0.4601
-0.1177
-0.1825
0.06476
-0.05199
-0.07099
-0.00161
-0.008393
-0.006035
0.06858
-0.1793
0.004863
0.06878
0.02427
0.02248
-0.01076
-0.05652
0.02547
0.04197
-1.157
0.01049
-0.6322
0.02148
0.1873
0.02844
-0.1368
-1.088
-0.5783
0.043
0.04273
0.02116
-0.09382
-2.423
0.02568
-0.1385
0.1083
0.01215
-0.001043
0.3155
0.03961
-1.408
0.008438
-0.2593
-0.07389
-2.436
-0.1677
0.1227
-5.299e-06
2.654e-06
0.04075
-0.5504
0.0231
0.475
0.0285
-0.2455
0.05857
0.0014
0.03831
0.1578
0.07644
0.02311
0.02823
-0.01857
0.2302
-2.704e-05
0.05893
0.2361
0.1185
0.2527
-0.341
0.5017
0.02318
-0.6831
0.02653
-0.5389
-0.3713
0.08899
-1.339
-0.04249
3.386e-05
-3.158e-05
-0.07606
-0.007493
0.02507
0.3848
0.4087
-0.6818
0.0006626
-0.01308
0.4036
-0.007457
-0.282
0.198
-1.686
0.09558
0.1839
0.0991
0.4983
-1.941
4.03e-05
0.05762
0.08351
0.07121
0.02201
0.3305
-0.32
-0.6168
-0.498
-0.07009
0.05069
-0.08161
0.3493
0.1381
-0.3342
0.02246
-3.14
0.01983
0.02288
-0.07829
-0.4196
0.3863
0.1245
0.08299
0.07064
-0.7738
-0.04617
0.0004989
-0.0003611
0.06196
-0.06906
0.07763
-0.1834
0.1889
-0.1682
0.3786
0.02891
-0.4792
0.06424
0.02541
-1.266
0.0002038
0.02216
0.0265
-0.8399
-0.1899
-0.0884
0.04073
0.12
0.0001227
-0.4888
-1.909
0.07699
0.02075
0.02872
-0.2416
-0.9963
1.129e-05
-0.5698
0.07567
0.02403
0.4394
0.0446
0.1648
-0.004968
-0.2006
0.3598
0.0504
-0.457
-0.006507
0.02503
0.007605
-0.06644
0.03511
0.008692
-1.944
0.03726
-0.06401
-0.6946
0.01862
0.1294
0.4284
0.3966
0.4428
-0.6354
-0.7314
0.03557
0.3293
-1.704
-0.4444
0.1908
0.02177
-0.0267
-0.214
-0.07633
3.189e-05
-0.2524
0.008543
-0.0003496
-1.595
-0.03455
-0.02721
0.211
-0.3161
-0.4792
0.05008
-0.7986
-0.1256
0.492
-0.1843
0.02602
0.02298
-0.3106
-0.1863
0.0001113
0.01507
-0.1983
-0.06042
0.01897
2.855e-07
-0.182
0.03469
0.07343
-0.2363
0.02238
-2.274
-0.09418
-0.1703
-0.3176
-0.03621
-0.005423
0.006524
0.1551
-0.2087
0.02205
-0.8815
-0.7149
0.02106
-0.1594
-0.02057
-0.5753
-0.1698
-0.202
0.04902
-0.3484
0.02798
0.07757
0.3576
0.06257
-0.07744
0.02957
0.02246
-0.184
-0.07399
0.265
0.02025
-0.7012
0.05919
0.3796
0.005907
-1.092
-0.5302
-0.03425
0.07773
0.06031
-0.4531
-1.659
-0.4001
-0.559
-2.424
0.01101
0.01985
-0.1153
-0.199
0.2213
0.2448
-0.02204
-0.433
-0.1778
0.2108
-2.261
0.2586
-0.6466
-1.325
-0.1054
0.04644
-6.321e-05
6.189e-05
0.02926
-0.6028
0.2397
-1.229
0.02884
0.006925
-0.7269
0.1351
-0.6085
0.02695
-0.01976
-0.6844
-0.5303
0.02931
-2.164
0.1917
-0.001884
0.0283
-0.0139
0.1143
0.1128
0.02467
-0.0001514
0.08826
-0.09706
-0.1529
0.02298
-6.348e-05
-3.247e-05
-2.586e-05
-3.381e-05
0.04076
0.02333
0.1238
0.3812
0.06567
0.0181
-0.3723
-1.008
3.177e-05
-0.3779
-0.05898
0.02095
-0.7655
0.0218
0.02211
0.05342
0.06217
-0.5708
0.02696
-0.02287
0.05413
0.5007
0.1781
0.04228
0.4008
0.4423
-0.01305
0.01354
-0.1808
0.1435
0.03887
0.1246
0.3778
-0.009787
-0.04894
-0.7353
-0.001101
-0.682
-0.06995
-0.3152
0.02293
0.0197
-0.2434
-0.1121
0.0008862
0.4027
0.03519
-0.07744
-0.08018
0.3799
0.01236
-0.02609
-0.377
0.0214
-0.1824
0.03207
-0.2929
-0.7819
0.08395
0.4632
0.0623
-0.2233
-0.01674
0.0227
-0.09029
0.05632
0.02381
-0.7727
0.01236
0.3507
-0.01748
0.009892
-0.2981
5.243e-05
0.49
-0.1222
0.02244
-0.07139
0.1167
0.006628
0.04828
0.02339
0.08473
0.008225
-0.0002263
0.1466
-2.975
-0.8271
0.006303
-1.079
-0.7742
0.02053
6.787e-05
-0.186
-0.3631
0.09139
-0.06544
-0.1616
-1.705
-2.787
-0.1235
0.05087
0.02059
-0.01064
0.1047
-0.7796
0.02633
-0.009957
0.05377
-2.479
0.02444
0.1583
0.05114
-0.65
0.0218
-0.03649
-0.08158
-0.008327
-0.2694
-1.201
-0.07964
-0.3359
0.1591
-0.2195
0.0226
0.3621
0.006389
0.0157
0.02356
-0.4221
-0.08046
0.02201
-0.6875
0.06364
-0.07424
-0.5734
0.01746
-0.06797
-0.007587
-0.7011
-0.6856
0.09279
-0.08362
0.4214
0.02749
0.2269
-0.0777
-0.9165
0.02062
0.03114
0.06348
0.4085
0.06966
0.06013
0.3927
0.003211
-3.109
-0.0008329
-0.07514
-0.5684
0.01797
0.02155
-2.039
-0.03391
0.4867
-5.444e-05
0.4233
-0.8845
3.446e-05
-0.0762
0.01913
0.5006
0.04031
0.003016
-0.1885
0.1532
-1.993
-0.3571
0.2639
0.0594
-1.085
0.002058
-0.06992
0.0548
0.02229
0.02918
0.02265
0.0299
0.05271
0.07592
0.1635
0.1332
-0.004703
0.04732
0.2216
0.08816
-0.07788
0.01868
-0.1968
0.08041
-0.5857
-0.6876
-0.07746
-2.523e-05
0.0308
0.05159
0.09175
-1.299
-0.05979
-0.06491
-5.387e-06
-0.1101
0.1012
7.894e-06
-0.1702
0.181
0.09444
-0.3349
0.02221
0.02012
-0.07048
0.04079
0.1458
0.03277
-0.07346
-0.6983
-0.1505
-0.1582
-0.3974
-0.07382
0.2295
0.08613
-0.006698
0.02544
0.1577
0.3193
0.02344
0.02708
-0.5469
-9.973e-07
0.07746
-0.08864
-0.01054
0.08073
-1.112
-0.1694
-1.374
0.03515
-0.01432
0.373
0.02618
0.01957
-0.0001619
-0.2928
0.1299
-0.09728
0.255
0.00117
0.4761
-0.1842
-0.07161
-0.1138
-0.2389
-0.5577
0.2873
-0.2812
-0.07228
-0.756
0.02588
-1.577
-0.5786
4.972e-05
-0.00304
0.02434
-0.002621
-0.03934
0.02902
-0.004751
-0.8822
-0.3283
0.09296
0.1214
0.04277
-4.841e-05
-0.17
-0.1877
0.1414
0.01984
0.3723
0.07699
-0.006691
0.3197
-0.01323
0.03882
-0.1564
-0.3037
0.06105
-0.2941
0.04919
-0.1518
-2.079
0.2439
0.0004773
-0.1838
-0.08867
0.001336
0.09676
0.008251
0.02019
-0.2782
-1.801
-0.07404
-0.002031
-0.2849
0.03531
-0.876
0.01952
-0.8259
0.02278
-0.04146
-0.3123
0.08073
0.1512
-0.658
0.02892
0.06297
-0.9242
0.08443
0.4876
-0.9155
0.0009076
2.763e-05
-0.04084
-0.06715
0.2798
0.0212
-0.1761
0.003652
0.05548
0.4153
0.05226
-0.007883
0.02854
-0.3756
0.03968
-0.000349
0.4949
-0.6483
0.04197
2.34e-06
0.04346
-0.1779
0.08418
0.03973
0.1563
0.2299
-0.1511
-0.5469
-0.004747
0.02258
-0.01731
-0.748
-0.06747
-0.6802
0.04253
-0.07084
0.1454
-1.941
-0.01065
-0.2724
0.09343
-1.429
0.3007
0.004583
-1.075
-0.6408
-0.1747
-0.3426
0.06272
-1.615
-0.09754
0.02676
0.02198
0.01947
0.02251
-0.5565
4.936e-05
0.4489
0.09238
0.05164
0.02254
-0.9052
0.322
0.1486
-0.01236
0.08923
0.04438
-6.148e-06
-2.445
-0.2656
0.007401
-0.05
0.03048
0.02554
0.002123
-0.07846
0.01767
0.05188
0.1719
-0.7051
-2.529
-0.6508
-1.603
0.05206
0.02373
-0.5175
-0.01425
-0.181
-0.5674
-0.2612
-0.005055
0.03918
-0.08323
0.01774
-0.07809
-1.641
0.3342
-0.03168
-0.2311
0.02291
-0.1733
0.4145
-0.06857
0.1741
0.0954
0.1597
0.02091
-0.008172
-0.8838
0.02357
0.007744
-0.5494
-0.1689
0.3565
0.06037
-0.6737
0.08537
-0.1384
0.2974
-0.02133
0.001912
-0.0271
0.02247
-0.0002362
-0.5299
0.07006
0.3931
0.02588
-0.182
0.0258
0.05511
-0.1312
-0.7653
0.007422
-0.1617
-1.096
-2.76
0.04462
-0.2088
-1.59
-0.6678
-0.5685
0.1451
-0.02233
-0.249
-0.0007781
0.0026
-0.1479
-0.3108
-0.005684
0.3163
0.03015
0.2627
-0.07826
-0.7684
-0.2623
-1.47e-05
0.3153
0.03079
0.1476
1.809e-05
-0.5463
0.02102
-0.07758
-0.2582
-0.6658
0.01027
0.0194
0.0007876
-0.3343
0.01495
0.2686
-0.9016
0.04385
0.02296
0.04142
-0.007289
0.02331
-0.3298
-0.03132
-0.08627
0.02224
-0.3642
4.441e-05
0.01266
0.03977
0.02132
0.01843
-2.144
-0.007743
0.02334
-0.1705
0.02366
0.0004693
0.1347
0.04445
0.222
-0.1217
-0.2077
0.4881
0.0002351
0.2298
-1.057e-05
-0.457
0.2134
0.01657
0.02155
-0.1686
0.02023
0.0108
0.02329
0.1346
0.0008123
-0.6376
0.09481
-0.01513
-0.7031
-1.503
-0.185
0.0005708
0.06871
-0.1784
-0.01469
0.4254
-0.09337
-0.0129
-2.095
0.1614
0.02249
0.06325
-0.007196
-0.01675
0.0282
-0.6131
-0.186
0.0471
0.09151
0.01924
0.1457
0.01777
0.1605
0.03138
0.1311
-0.6649
-0.05562
0.01322
0.1197
-0.6197
0.02219
-0.7114
0.2739
-0.07133
-0.04113
-0.1954
0.3024
0.02589
-0.8586
0.04399
0.0214
-0.4006
0.2273
-1.815e-05
-0.34
0.1396
-0.6612
-0.7404
-0.7358
-0.687
-0.6984
-0.001077
-1.31
-0.345
0.0002253
-1.78
-0.009323
-0.07642
-0.4673
0.001409
-0.8296
0.4319
-0.002052
0.1952
-0.08047
0.02004
0.03948
0.3185
0.07748
0.0422
-0.009653
0.02132
-0.06791
0.04902
0.3161
-0.1749
0.0425
0.02671
0.05611
-0.6273
-0.2343
0.02131
0.4429
0.01583
-0.0874
0.3525
0.04286
-0.3426
0.001094
-0.004614
0.03476
0.02843
0.02221
-0.1866
-0.7261
0.0002577
0.04776
-0.1055
-0.2554
-0.2116
0.08527
0.1132
-0.1338
0.3949
0.3979
-0.07786
0.1709
-0.05877
0.04159
-0.7404
0.1233
-0.004801
-0.1341
0.0002153
-0.06963
0.1221
0.0319
0.01375
-0.2603
0.02951
-0.3252
-0.5913
-0.002397
-0.003722
0.05834
0.03835
0.02247
-1.149
-0.0715
0.1004
0.4388
-0.6703
0.2392
-0.6394
0.0232
0.1011
-0.6689
-0.1928
0.1096
0.1471
0.02898
0.03832
-0.1798
0.02338
0.03876
0.008278
0.02323
0.04148
-0.008563
-0.1056
0.1042
0.001965
0.02047
0.1162
0.02195
-0.01424
-0.6438
-0.4359
1.153e-05
-0.5454
-0.7109
0.02244
-0.04532
-0.07049
-0.001731
-0.7922
0.0006404
0.03209
-0.5476
0.485
0.1243
0.02221
0.02172
0.002769
-0.009715
0.1275
0.1989
0.09857
0.05158
-0.9339
0.06807
-0.3289
-0.01087
0.02058
-1.939
0.0236
-0.4362
-0.07641
0.009126
0.2125
0.1773
-0.7514
0.07515
-0.2606
0.002678
0.4781
-0.7753
-0.0882
-0.07312
-0.7112
-0.1135
-0.00933
-0.00739
0.09993
-2.644
0.06699
-0.02935
-0.09253
0.01543
0.05072
0.1104
-6.199e-06
0.379
-0.6442
0.03526
-1.336
-0.1714
0.005627
0.0396
0.02658
0.02234
-0.002132
0.07088
0.2291
-0.6574
0.1019
0.08042
0.05115
0.02417
-0.07822
-3.751e-05
0.0193
0.1194
0.02722
-0.01155
0.02725
0.04808
0.06571
-0.006362
-1.939
-0.4882
0.4876
-0.123
-1.184
-0.5454
0.04044
-0.7801
0.03418
-0.07025
-0.3166
0.2735
0.008164
-0.319
-1.991
0.152
-0.5125
-0.6887
-0.2351
0.0002607
0.04497
0.1116
-0.1563
-0.3807
-0.07085
0.02304
0.02362
-0.0905
0.2948
0.03581
-0.1319
-0.187
-0.5241
-0.9948
0.03894
0.03602
-0.0004461
-0.5046
-0.3481
-0.39
-0.1827
0.03858
-0.5145
0.02512
0.103
-0.819
0.1321
-0.3508
-0.3132
0.03767
0.06923
-0.1894
0.07449
0.02294
-0.0571
0.02843
0.06943
-0.06681
0.03808
0.08208
0.02128
0.06158
-0.3958
-0.01847
-0.1524
-0.1641
-1.996
0.01189
-0.0296
-0.01234
-0.07547
0.04176
0.02187
-0.005868
0.07957
-0.0145
0.1794
0.0002559
0.1262
-0.1872
0.02753
-0.2109
0.04291
-0.2247
0.04429
-0.07624
-0.002831
-0.6075
0.009846
0.003686
-0.2313
-0.005068
0.004547
-0.4478
-0.07082
0.1185
0.1482
0.05482
-0.001584
0.008061
0.0378
0.09019
0.1996
0.02512
-0.001258
0.1894
-0.03416
-1.611
-0.8571
0.1501
0.3843
0.0486
0.03092
0.04198
-0.5453
-0.5689
0.2252
0.3003
0.08535
-0.0782
0.02176
0.01197
0.1788
0.02008
-2.03
-0.008256
-0.07289
-0.003832
-0.317
-0.3539
0.2207
-0.6764
0.02267
0.3292
0.0707
0.02866
0.4844
-0.1393
0.2108
0.03385
-0.08497
-0.436
0.06244
-0.5928
0.008852
0.1849
-0.0005775
-0.1924
0.04281
0.0375
0.0269
0.1393
0.2286
0.02273
0.1253
-0.01702
-1.801
-0.07838
-3.442e-06
6.763e-06
0.0005932
0.03846
-2.075
-0.2594
-2.354
-0.6288
-2.906e-05
0.1217
0.08029
0.03675
0.05855
-1.76
-0.7731
-0.001032
-1.986
-0.07049
-0.1817
0.4736
-0.07711
-0.4348
-0.1075
0.03896
-0.06148
0.1325
-0.0495
0.02919
-0.5283
-0.7028
-0.4132
-0.2227
-0.1772
0.003834
0.00686
-1.382
-0.3092
0.1767
0.01707
-0.004431
0.07448
0.05461
-0.08902
-0.06916
0.3369
-0.9091
-0.1076
0.007612
0.06213
-0.2303
-0.1789
0.0257
0.0634
0.001549
0.03253
-0.3572
-0.07192
0.02216
-0.6623
-0.6456
0.1309
-1.37
0.3787
0.02543
-0.007547
0.1465
-0.1297
-8.642e-06
0.02281
0.00698
-1.493
-0.06475
0.02224
0.002974
-0.8776
0.02265
0.02421
0.07061
0.04159
-0.1695
0.01021
0.111
0.02254
-0.3921
-0.1764
-0.0382
-0.01987
-0.4906
0.02763
0.009137
-0.06573
0.02109
0.4571
-0.003599
0.02337
0.1788
-0.01974
0.1025
-0.1318
-1.122
0.05922
-0.006684
0.02907
-0.6449
0.0214
0.0003041
0.06569
0.01597
7.472e-07
0.07058
0.05691
-0.6381
0.007967
0.005485
-0.002836
-0.01294
-0.0003095
-0.009923
-0.06229
-1.599
0.03643
-0.2926
0.03968
0.03065
-2.457e-05
-0.0001001
-0.1386
0.1345
0.06353
0.009863
0.03276
0.01571
0.0705
-0.02109
-0.3944
-0.02838
-0.2332
0.01952
0.03663
0.02257
-0.3506
-0.194
-0.2739
0.01501
-0.007222
-0.7334
-0.1685
0.1512
0.4996
0.05144
0.0364
-0.1544
0.06933
0.06066
0.2277
-0.2428
-1.694
-0.5707
0.06011
0.05408
0.0001101
-0.01174
-0.1891
-0.6247
-1.112
0.02115
-0.2244
3.779e-05
0.1941
-0.9681
-0.4508
-0.02722
0.04184
-0.1224
-0.4571
-0.4015
0.4684
0.3358
0.2997
0.4087
0.02144
-3.432e-06
0.0225
-0.2862
-0.07004
0.06963
-0.1191
-0.0374
-0.02634
-0.1792
0.1445
-1.027
0.04835
-0.06482
-1.067
0.001471
0.2386
-0.01338
0.2708
0.02443
0.00746
-0.5594
-0.3628
0.0948
-0.06098
-0.005133
0.03298
0.09032
0.06116
0.07448
-0.007586
0.02258
-1.174
-0.1204
0.2373
-2.079
0.0004105
-0.01022
-0.2623
0.02583
-0.002484
-1.616
4.905e-05
-4.204e-05
0.2279
-0.0002866
-0.1146
0.0197
0.02443
-0.1738
0.08566
0.002811
0.008114
-0.413
0.04475
0.4035
0.0381
-0.2553
0.001368
0.02331
-0.8365
0.02226
-0.1079
0.001884
0.007967
-1.566
-0.007745
0.003862
0.02244
0.08104
0.09231
-0.07332
-0.6317
-0.005142
-0.001013
0.009973
0.02125
-0.02276
-0.05472
-0.03964
0.1018
-0.05137
-0.1325
0.02255
0.09151
0.02344
0.04005
-0.3701
-0.00611
0.103
-0.2441
-0.9769
-0.004359
0.02295
-0.004397
-0.3235
0.0226
0.09868
-0.07676
0.06483
0.09191
0.02054
0.0067
-3.08
0.149
0.2575
0.007924
-1.509
0.00568
-0.03657
0.1071
0.02128
0.02733
0.02215
-0.1466
-1.911e-05
-2.654
-7.221e-06
0.02256
-2.336
-0.07497
-0.3601
-0.0002289
-1.84
0.01144
0.04082
-0.06919
-0.672
0.1717
0.0321
0.4099
0.03361
0.02302
-0.4216
-0.6445
-0.06516
0.4843
-0.4605
-2.319
0.03538
0.002233
-0.08181
-0.00511
0.01362
0.007333
-0.7806
-0.07056
0.5016
-1.292
0.4894
0.01003
0.02747
0.005991
0.02829
0.01804
-1.065
0.1148
-0.2261
-2.975e-05
-0.1079
0.1364
-0.646
0.02389
-1.963
-0.04736
-0.348
0.4591
0.07663
0.05656
0.02379
0.007338
0.02656
3.08e-05
-0.06224
0.281
-0.007154
0.03682
-0.949
0.02342
0.04674
-0.1194
0.03474
0.1243
-0.6685
0.3992
-1.198
-0.7335
0.0215
-0.1751
-0.0928
-0.6423
-0.07705
-0.2823
0.0211
0.02246
0.000869
-0.599
-0.0003611
0.1975
0.2534
0.06673
0.0209
-2.39
-0.1017
0.02264
2.671e-06
0.05426
-0.1873
-1.412
-0.07941
-0.007598
-0.08313
-0.5564
0.06235
-3.818e-06
-0.6548
0.05927
-0.1688
-0.4904
-1.202
0.4124
0.497
-0.07109
-0.5174
-0.4687
0.02365
0.007766
0.07481
-0.9321
0.3687
-0.02597
-0.007139
-0.05491
-0.07102
-0.4061
-0.8407
0.006887
0.395
-1.716
-0.2007
0.355
0.3872
0.01706
-0.7434
-0.001602
-5.887e-05
-0.9354
-0.05703
0.05522
0.01247
-1.462
-0.04696
0.2221
0.1272
0.00294
0.03241
0.02847
-0.07351
-0.9074
-0.323
-0.3755
0.03626
0.02116
-0.6995
0.0384
-0.1406
0.4903
0.02257
0.03471
0.05102
-0.07316
-0.005931
-0.0004457
-0.07137
-0.07541
-0.1058
-0.1757
-0.04857
0.03007
0.02311
-0.6801
-0.3704
0.1891
-2.575
0.02299
-2.185e-05
0.08494
0.0716
0.09629
0.0224
-0.3488
0.1332
-1.121
-1.121
0.009778
-0.6439
0.0005005
-0.01076
0.02028
0.1367
-0.1793
-0.6268
-1.847
0.1507
0.1043
0.02811
-0.02052
0.04825
0.007608
-1.761
0.02645
-0.007381
0.02814
0.000892
-0.1865
0.02971
-0.2606
0.02042
0.2467
-0.171
-0.08109
0.1069
0.06183
-0.03555
0.0002591
-0.4096
0.0212
0.05866
-0.3716
0.02797
-0.6762
0.02456
-0.01237
0.02273
-0.1798
0.3133
0.0646
-2.099
0.03656
0.4003
0.02601
-0.08072
-0.005756
-0.1238
-0.007642
0.05925
0.1325
0.02457
0.08857
0.06712
0.1764
-0.1969
-0.01066
-5.265e-05
-0.2798
0.00563
-0.08065
0.1208
-0.6347
-0.08964
-0.003934
-0.7175
0.04285
-1.49
0.006107
-0.03164
0.05049
0.02566
0.02647
-0.7863
0.1393
-0.6322
-0.1938
0.2987
0.01901
-0.9141
-0.0533
0.02603
-0.02143
0.07681
0.1113
0.004623
-0.02793
-0.1846
0.02355
0.4114
0.02312
-0.6783
-0.3613
0.02265
-0.03236
-0.1726
0.3777
-0.07377
-1.808
0.03408
-2.197
0.06031
0.04635
0.196
0.403
0.009404
0.02426