/*--------------------------------*- C++ -*----------------------------------*\
  =========                 |
  \\      /  F ield         | OpenFOAM: The Open Source CFD Toolbox
   \\    /   O peration     | Website:  https://openfoam.org
    \\  /    A nd           | Version:  8
     \\/     M anipulation  |
\*---------------------------------------------------------------------------*/
FoamFile
{
    version     2.0;
    format      ascii;
    class       volVectorField;
    location    "45";
    object      U;
}
// * * * * * * * * * * * * * * * * * * * * * * * * * * * * * * * * * * * * * //

dimensions      [0 1 -1 0 0 0 0];

internalField   nonuniform List<vector> 
127143
(
(0.005484 -0.0002402 0)
(-0.0002156 -0.0009924 9.238e-24)
(0.0001151 0.0005628 -1.759e-23)
(0.0001503 0.0007304 7.005e-27)
(0.06922 0.0103 -1.039e-20)
(0.0001361 0.0007919 -2.692e-26)
(0.2989 0.1782 0)
(0.1315 0.05974 -9.733e-21)
(0.09131 0.04413 4.547e-20)
(0.08494 0.001514 0)
(0.4362 0.6177 1.383e-20)
(0.2071 0.1352 2.942e-20)
(0.003222 -0.001225 3.636e-24)
(0.0002239 0.0009216 0)
(-0.3522 0.6219 3.522e-21)
(0.124 -0.009877 0)
(-0.0001327 1.492e-05 2.95e-23)
(0.9666 -0.103 -4.187e-21)
(0.9659 -0.1981 0)
(0.1213 -0.005235 0)
(1.272 -0.2854 1.209e-20)
(0.0252 -0.009133 0)
(0.8585 -0.09425 0)
(0.8879 -0.08496 0)
(0.02509 -0.009443 2.544e-22)
(0.6821 -0.1107 0)
(0.5614 -0.01465 2.43e-20)
(0.5524 0.005966 -3.858e-22)
(0.3563 -0.1595 0)
(0.9856 -0.08038 6.471e-21)
(0.7736 -0.05232 0)
(0.6599 -0.106 2.108e-21)
(0.4665 0.1163 1.104e-20)
(0.3268 -0.08014 -1.105e-20)
(0.7852 0.04245 4.641e-20)
(0.399 0.1069 -4.124e-23)
(0.1386 -0.05522 1.771e-21)
(1.376 -0.2026 -9.265e-21)
(0.9279 -0.08742 3.937e-22)
(0.4742 -0.02872 1.156e-24)
(0.9655 -0.1965 0)
(1.615 0.666 -2.742e-20)
(1.569 0.6586 2.196e-20)
(0.006723 -0.00224 0)
(0.9655 -0.1008 3.866e-21)
(0.3334 -0.08091 3.613e-21)
(0.3676 -0.1674 0)
(0.3805 -0.115 -6.005e-22)
(0.886 -0.1515 -7.741e-22)
(0.9101 -0.07655 1.899e-22)
(0.1438 -0.009991 1.073e-22)
(0.9221 0.002679 1.279e-19)
(1.505 -0.1659 0)
(1.41 -0.03902 -1.855e-20)
(0.999 -0.00226 5.553e-20)
(0.7831 -0.1974 1.323e-21)
(0.999 -0.002244 -4.995e-20)
(0.957 -0.07943 0)
(1.013 -0.01675 -2.57e-20)
(1.411 -0.03461 -3.671e-20)
(0.316 0.2914 -7.578e-20)
(1.056 -0.2498 -1.181e-21)
(0.976 -0.07602 -8.349e-22)
(1.001 0.0005897 1.761e-19)
(1.044 -0.0929 0)
(0.6899 -0.137 -2.548e-20)
(1.265 0.1004 8.493e-20)
(0.974 -0.07818 0)
(0.9744 -0.07806 -2.267e-22)
(0.9983 -0.0001812 0)
(0.8498 -0.07011 0)
(0.5908 0.0004515 -1.151e-20)
(0.7063 -0.1374 2.756e-21)
(1.014 -0.01662 -1.396e-20)
(1.007 0.003574 -4.967e-23)
(0.5902 0.0112 1.218e-20)
(1.045 0.04693 -1.102e-19)
(0.3459 -0.1043 0)
(0.7918 -0.2004 -2.601e-21)
(1.001 0.001301 0)
(0.3838 -0.1683 -4.483e-24)
(0.142 -0.009042 -3.508e-23)
(0.4668 -0.1079 4.281e-21)
(0.5531 -0.03888 0)
(0.2745 -0.0653 -8.228e-22)
(0.3632 -0.09907 0)
(0.9468 -0.09548 9.518e-22)
(0.6057 0.03765 7.193e-21)
(0.6904 -0.134 0)
(2.079 1.176 0)
(0.9762 -0.01921 0)
(1.209 -0.1931 0)
(2.027 1.148 0)
(1.275 -0.2852 -1.214e-20)
(1.181 -0.2266 0)
(0.9692 -0.06118 -1.49e-20)
(1.611 0.6499 5.94e-20)
(0.7061 -0.0557 0)
(0.7582 -0.2157 2.91e-21)
(1.263 0.1071 0)
(1.001 0.001257 0)
(0.8878 -0.152 0)
(1.906 1.742 -4.488e-21)
(0.9448 -0.1038 0)
(0.3809 -0.1036 -7.895e-22)
(0.7286 -0.2099 4.025e-21)
(0.9045 -0.1366 4.157e-21)
(0.9981 -0.0001666 0)
(0.4549 -0.094 0)
(1.001 -0.001713 7.941e-20)
(-0.3459 0.6069 -1.183e-21)
(0.6297 0.04267 1.441e-20)
(1.273 -0.2664 -9.161e-21)
(0.2849 1.337 0)
(1 0.02193 -1.096e-22)
(0.8873 -0.1303 1.125e-21)
(1.021 0.0714 1.741e-20)
(1.007 0.003797 -1.005e-19)
(1.044 0.04549 8.802e-20)
(0.001719 0.006758 0)
(1.001 -0.001823 -1.112e-19)
(0.4381 -0.1159 -1.275e-21)
(0.5822 -0.1862 0)
(0.9463 -0.08187 -8.915e-21)
(0.3841 -0.1699 1.463e-21)
(0.589 -0.08194 3.434e-21)
(1.103 -0.2931 0)
(1.05 -0.0111 1.612e-19)
(1.584 -0.1252 -2.551e-21)
(0.7307 -0.2069 -2.497e-21)
(0.4485 -0.1058 0)
(0.9534 -0.2106 -4.557e-21)
(0.9644 -0.08765 3.115e-21)
(0.3502 -0.1049 0)
(-0.0002324 0.0004864 1.592e-22)
(0.4643 -0.1082 -1.73e-21)
(1.054 -0.07898 0)
(1.277 -0.2762 4.345e-21)
(0.22 -0.1166 -1.935e-20)
(1.102 -0.0771 9.568e-21)
(0.8161 -0.1093 4.64e-20)
(1.005 0.0578 -2.048e-20)
(1.44 -0.1972 8.212e-22)
(1.313 -0.2448 -1.014e-20)
(1.505 -0.1656 -3.833e-21)
(1.968 0.5867 1.451e-20)
(-0.3245 1.598 -2.668e-21)
(1.001 0.0005146 -1.598e-19)
(0.9324 -0.2039 3.664e-21)
(2.057 1.714 -1.957e-21)
(0.9545 -0.09948 1.954e-21)
(0.8688 -0.1658 0)
(1.384 -0.1909 3.083e-20)
(0.7061 -0.007391 0)
(-0.07762 0.2188 0)
(0.2924 -0.06688 0)
(0.9574 -0.07902 2.124e-21)
(0.623 -0.2127 0)
(0.3885 -0.1189 -1.216e-21)
(0.6892 -0.06004 -2.524e-22)
(0.8442 -0.05999 0)
(0.1801 -0.08792 3.217e-20)
(0.9768 -0.01984 2.357e-21)
(0.4476 -0.1025 -4.099e-21)
(0.6926 -0.181 0)
(1.122 -0.1041 8.353e-21)
(0.119 -0.03679 -1.198e-21)
(0.4541 -0.03463 4.515e-20)
(2.093 0.4676 -5.711e-21)
(0.9675 0.1276 -2.735e-21)
(0.1232 -0.0425 0)
(1.311 -0.2453 4.998e-21)
(0.8755 -0.1376 3.61e-21)
(0.7163 -0.1837 -1.07e-20)
(0.9943 -0.002478 1.2e-20)
(0.1004 -0.03397 -1.76e-23)
(1.948 0.727 -2.956e-21)
(1.582 -0.1261 -2.55e-21)
(0.9162 -0.09312 0)
(1.01 -0.02863 1.058e-20)
(0.7151 -0.1838 -3.604e-21)
(0.9731 -0.03837 0)
(0.1006 -0.01291 -4.353e-22)
(0.1001 -0.03323 1.813e-23)
(0.7304 -0.2082 5.032e-21)
(1.056 -0.2487 2.61e-21)
(1.351 0.415 -3.164e-20)
(0.3171 1.355 4.352e-21)
(0.8973 -0.08671 8.075e-22)
(1.027 -0.03954 4.771e-20)
(1.485 -0.1855 2.594e-21)
(1.525 -0.1811 -1.004e-20)
(1.054 -0.07833 5.081e-20)
(0.6951 1.877 6.888e-21)
(-0.0003582 0.0001854 -2.659e-22)
(1.143 -0.2714 0)
(1.006 -9.978e-06 0)
(0.9945 -6.679e-06 1.131e-21)
(0.03575 0.0002225 0)
(0.9968 0.03346 1.31e-21)
(1.021 0.006298 7.412e-20)
(0.9157 0.08481 1.184e-19)
(1.002 -0.04881 -2.853e-21)
(0.1492 -0.05868 -8.898e-22)
(0.0003488 0.001962 -3.765e-24)
(0.967 -0.06956 -7.187e-22)
(0.9032 -0.06546 1.835e-20)
(0.8809 -0.1439 -1.135e-21)
(0.9896 -0.0807 -3.698e-21)
(1 0.02138 2.567e-22)
(1.094 -0.1537 1.25e-20)
(0.1629 -0.04625 -3.945e-22)
(0.9784 -0.0003199 3.247e-20)
(2.114 0.4776 -5.771e-21)
(0.3887 -0.08964 -6.856e-24)
(0.07378 -0.003972 0)
(0.1067 -0.03832 5.468e-22)
(0.8572 -0.1533 5.674e-21)
(0.9999 -0.2327 -6.908e-21)
(0.905 -0.06521 4.447e-21)
(1.926 0.7201 -6.804e-21)
(1.004 0.008939 6.049e-20)
(0.8694 -0.1658 -8.951e-22)
(1.518 -0.1572 3.761e-21)
(0.6526 -0.05629 0)
(0.1179 -0.04273 0)
(0.7342 -0.1914 -2.937e-21)
(1.377 -0.2003 1.105e-20)
(0.1532 -0.04807 -7.531e-22)
(0.9454 -0.2712 5.094e-21)
(1.278 -0.2848 6.942e-21)
(0.972 -0.038 3.629e-20)
(0.7572 -0.1471 -5.543e-21)
(0.007069 -0.001559 0)
(1.28 -0.2855 0)
(0.9423 -0.07327 -1.174e-20)
(0.4486 -0.1019 2.038e-21)
(0.01499 -0.002398 -1.477e-22)
(1.021 0.005979 -6.794e-20)
(1.467 -0.1906 1.165e-20)
(1.531 -0.1814 7.349e-21)
(1.367 -0.08651 -1.052e-20)
(0.1597 -0.03073 1.313e-22)
(0.6266 -0.2128 -9.713e-24)
(1.499 -0.1477 0)
(0.001594 0.007023 -1.986e-26)
(0.8569 -0.165 5.156e-21)
(0.5523 -0.002061 0)
(0.01424 -0.004701 -2.267e-21)
(1 -0.0002019 -2.597e-21)
(1.802 0.4195 -4.993e-20)
(0.6509 -0.07195 -1.575e-21)
(0.8031 -0.1709 0)
(1.304 -0.2612 0)
(0.8128 -0.1929 3.649e-21)
(0.4768 -0.1084 0)
(1.049 -0.01149 -1.267e-19)
(2.21 0.6461 0)
(0.7695 -0.1706 0)
(1.023 0.4411 -1.048e-20)
(1.181 -0.2837 -6.394e-21)
(0.9586 -0.03083 -3.341e-20)
(1.209 -0.1899 7.085e-22)
(1.003 0.05717 1.241e-20)
(1.568 -0.12 0)
(1.268 -0.09146 -3.557e-21)
(0.1914 -0.06671 2.78e-21)
(-0.1216 0.2342 0)
(0.314 0.1012 8.726e-20)
(1.515 -0.08962 -1.472e-20)
(0.762 -0.1421 0)
(0.9939 -0.002565 -1.413e-20)
(0.4678 -0.1471 -8.284e-22)
(1.466 -0.1913 -1.078e-20)
(0.9751 -0.07318 -1.483e-21)
(1.483 -0.1846 -1.053e-20)
(1.28 -0.2683 0)
(0.9045 -0.1397 -4.555e-21)
(0.9926 -0.005872 -1.425e-21)
(0.6999 -0.1745 1.055e-20)
(0.9998 -0.0009494 2.861e-21)
(0.9687 -0.06089 -1.263e-22)
(0.9445 -0.1035 7.153e-24)
(0.9913 0.01199 0)
(1.011 0.01662 3.633e-20)
(-0.0006639 -0.0006504 3.83e-23)
(0.6626 -0.1978 0)
(1.001 0.02326 -2.456e-21)
(0.9174 -0.1263 -2.416e-21)
(1.01 -0.02868 1.594e-20)
(1.381 -0.1907 -4.694e-20)
(0.8324 -0.1261 0)
(0.9415 -0.07343 1.194e-20)
(0.853 -0.1472 0)
(0.9769 -0.009609 -2.983e-20)
(0.427 -0.1044 -1.576e-21)
(0.8041 -0.06739 -5.287e-22)
(0.06642 -0.02992 2.059e-22)
(0.1598 -0.03091 -5.23e-22)
(1.512 -0.08809 9.945e-21)
(0.7724 -0.08946 5.36e-22)
(0.7543 -0.1409 -4.668e-21)
(0.5952 -0.08585 -2.985e-20)
(0.887 -0.1299 -1.093e-20)
(0.6209 -0.04588 0)
(0.1548 0.00172 1.366e-23)
(0.881 -0.1435 -3.756e-22)
(0.9777 -9.969e-05 0)
(1.118 -0.2455 2.027e-23)
(0.9546 -0.09871 2.116e-21)
(0.908 -0.1344 4.5e-21)
(0.08663 -0.06504 4.905e-23)
(0.8014 -0.1921 0)
(0.9995 -0.001026 2.123e-21)
(0.9871 0.01641 -3.13e-20)
(2.089 0.7785 2.872e-21)
(1.392 -0.2041 4.687e-21)
(0.7566 -0.0835 -1.074e-21)
(1.234 -0.1541 3.424e-20)
(1.002 -0.02307 1.235e-21)
(0.8582 -0.09272 0)
(0.8122 -0.06051 6.354e-22)
(1.084 -0.02354 3.359e-20)
(0.804 -0.1708 2.913e-21)
(2.092 0.7772 0)
(1.449 -0.181 -1.113e-20)
(0.8546 0.05133 8.146e-20)
(0.066 -0.01605 3.803e-24)
(0.8062 -0.04926 -2.342e-22)
(1.903 0.8565 2.196e-20)
(0.9768 -0.2348 0)
(1.011 0.01629 -3.164e-20)
(0.791 0.03689 -1.69e-19)
(1.006 -1.363e-06 0)
(0.9942 5.854e-07 0)
(0.7088 -0.002849 0)
(0.4698 -0.1021 -1.013e-20)
(0.8747 -0.1375 3.642e-21)
(0.9738 -0.2331 -9.839e-22)
(0.6438 -0.1619 -1.403e-20)
(1.098 -0.0755 -4.223e-20)
(0.8579 -0.1532 0)
(1.5 -0.1675 3.244e-21)
(1.481 -0.1834 2.948e-21)
(-0.03623 0.7437 -7.342e-22)
(0.9167 -0.1253 1.61e-21)
(0.596 -0.1345 -3.666e-21)
(1.332 -0.2501 3.631e-21)
(0.8072 -0.09777 9.594e-22)
(1.631 -0.09734 0)
(0.8165 -0.09397 -7.159e-22)
(0.9898 -0.2184 2.871e-21)
(0.1002 -0.04094 2.371e-22)
(1.482 -0.1838 9.478e-21)
(0.9445 0.1495 0)
(0.6051 -0.144 -8.393e-21)
(1.305 -0.2619 -5.66e-21)
(1.941 0.5173 -1.242e-20)
(1.004 -0.01238 1.272e-20)
(0.7938 -0.04863 0)
(0.5764 -0.1806 -1.053e-21)
(0.9756 -0.0759 -2.558e-22)
(1.013 -0.1606 -8.174e-21)
(0.908 -0.06944 0)
(0.9149 -0.08 5.798e-22)
(1.004 0.003698 9.23e-22)
(0.9969 0.03264 -4.558e-21)
(0.9744 -0.01342 0)
(0.6379 -0.1173 3.154e-21)
(0.9891 -0.005551 0)
(0.1453 0.3868 7.645e-20)
(1.083 -0.02583 -6.782e-20)
(0.7057 -0.07976 1.372e-21)
(0.9004 -0.07023 -5.942e-22)
(1.027 -0.03849 0)
(1.205 -0.1014 -6.915e-22)
(0.8467 -0.08397 -6.18e-22)
(0.06503 -0.04288 9.499e-26)
(0.7532 -0.2229 -6.268e-21)
(0.9966 -0.006567 1.682e-21)
(1.108 -0.2175 -4.548e-20)
(0.6304 -0.08212 -3.326e-21)
(0.833 -0.1038 0)
(0.7509 -0.1423 -1.753e-20)
(1.02 0.06893 0)
(0.2574 -0.02072 0)
(1.093 0.2552 0)
(0.4938 -0.03131 0)
(1.147 -0.2775 -1.692e-21)
(1.246 -0.2374 -4.128e-20)
(1.015 -0.01414 -7.455e-20)
(0.5716 -0.03434 0)
(0.113 -0.0401 -5.454e-22)
(0.7966 -0.1977 3.928e-21)
(0.8945 -0.08353 -1.158e-21)
(0.7854 -0.05781 -4.794e-22)
(0.5766 -0.04002 -2.396e-20)
(0.7976 -0.05356 0)
(0.9395 0.1481 0)
(0.9582 -0.02978 0)
(0.5543 -0.04398 1.894e-22)
(1.004 0.008513 -2.264e-20)
(1.32 -0.2749 0)
(0.1004 -0.01253 0)
(1.104 0.2535 0)
(0.9431 -0.1096 -1.985e-21)
(0.4306 -0.1172 -3.813e-21)
(0.96 -0.09168 -2.456e-21)
(1 0.001406 -2.635e-20)
(0.928 -0.09506 0)
(0.4367 -0.1401 0)
(0.8086 -0.1146 2.51e-21)
(0.8182 -0.1086 -4.963e-20)
(0.5026 -0.1324 0)
(0.5817 -0.1835 0)
(1.206 -0.23 -4.19e-21)
(0.9313 -0.2732 -5.607e-21)
(0.7346 -0.1402 0)
(1.451 -0.1562 8.807e-21)
(0.5205 -0.1911 -4.945e-21)
(0.1258 -0.03997 0)
(-0.1071 0.03537 -3.101e-21)
(0.4545 -0.1026 0)
(1.001 -0.000115 8.971e-22)
(0.9274 -0.2649 -5.334e-21)
(1.147 0.4584 2.231e-20)
(1.549 0.6413 9.478e-22)
(0.7892 -0.08079 -3.052e-20)
(1.421 -0.1044 1.32e-20)
(0.8785 -0.07302 -1.576e-20)
(1.005 -0.0004715 0)
(0.403 -0.09234 0)
(0.1013 -0.04143 0)
(1.079 -0.1702 7.36e-20)
(1.662 -0.02114 1.543e-21)
(1.004 0.003565 -2.776e-20)
(0.9105 -0.1307 -4.594e-21)
(0.7132 -0.157 -7.824e-21)
(0.9242 0.003027 -4.732e-20)
(0.9768 -0.008787 0)
(0.9928 0.00114 -9.343e-21)
(0.9213 -0.07809 -2.725e-22)
(1.051 -0.08189 -1.655e-20)
(0.4662 -0.1096 1.987e-20)
(0.9787 0.09038 0)
(0.7234 -0.05653 2.736e-23)
(0.9827 0.01839 7.682e-20)
(0.03621 0.05145 0)
(0.9768 -0.01353 6.769e-22)
(0.1632 -0.0451 -4.183e-22)
(1.146 -0.28 0)
(0.8665 -0.1075 -1.016e-23)
(0.9433 -0.1089 5.753e-21)
(0.6576 -0.1127 1.971e-20)
(0.8961 0.251 -1.985e-21)
(0.1591 -0.06985 -2.274e-22)
(0.7721 -0.09258 5.195e-22)
(1.575 -0.08316 0)
(0.1942 -0.07055 0)
(1.435 -0.1504 7.472e-21)
(0.9645 -0.08753 -9.868e-22)
(1.575 -0.1237 6.608e-21)
(1.224 -0.2554 0)
(0.361 1.245 1.123e-20)
(1.572 -0.1251 -9.932e-24)
(0.9968 -0.002179 0)
(1.026 0.03663 0)
(1.378 -0.2384 0)
(0.449 -0.1175 3.894e-21)
(0.9949 -0.0003088 0)
(0.9277 -0.2493 3.394e-21)
(1.246 -0.1802 2.308e-20)
(0.9467 -0.08119 1.33e-20)
(1.391 -0.2033 -1.618e-21)
(0.9142 -0.0572 2.381e-20)
(1.005 -0.0002476 0)
(-0.142 0.3487 -2.443e-20)
(1.245 -0.1777 -2.707e-20)
(0.131 -0.05763 5.575e-23)
(1.5 -0.1603 7.703e-22)
(0.239 -0.1255 1.433e-21)
(0.01811 0.0771 -1.891e-20)
(1.191 -0.1672 2.439e-21)
(0.7991 -0.1921 0)
(0.4413 -0.1317 0)
(1.659 -0.02123 -1.651e-21)
(1.488 -0.161 -6.747e-22)
(1.016 -0.001217 7.37e-20)
(0.7315 -0.06455 3.901e-22)
(0.9688 0.04836 4.346e-20)
(2.052 0.7805 9.281e-22)
(0.9514 -0.09586 -8.492e-22)
(1.513 -0.1618 0)
(1.967 0.5544 6.552e-21)
(0.0005134 0.003225 0)
(0.3585 -0.09089 4.696e-21)
(0.1926 0.9953 -3.233e-22)
(0.9553 -0.06243 4.072e-25)
(1.616 1.172 2.817e-20)
(0.9822 0.00382 -1.53e-19)
(0.2441 -0.1286 0)
(1.027 0.03621 1.313e-22)
(0.1387 -0.02653 0)
(1.141 -0.2701 -7.524e-21)
(-0.0002457 -0.0006628 0)
(-0.002575 -0.0103 -2.005e-22)
(0.02314 -0.008039 6.496e-23)
(0.9991 -0.0002035 -6.39e-20)
(0.6155 -0.1487 0)
(1.794 0.07077 0)
(0.9877 0.01628 5.828e-20)
(0.7835 -0.2194 2.338e-21)
(0.5806 -0.1882 1.826e-20)
(0.3066 -0.09354 2.411e-21)
(0.9143 -0.1221 0)
(1.134 -0.2772 0)
(0.8605 -0.1056 8.145e-22)
(0.9336 -0.2523 -3.391e-21)
(0.3346 -0.06156 1.68e-21)
(0.9982 -0.001941 0)
(0.1301 -0.02567 4.948e-22)
(0.01807 -0.006414 0)
(0.5064 -0.1912 3.357e-21)
(0.7678 -0.07573 -2.203e-22)
(0.1246 -0.04291 -3.083e-22)
(1.014 -0.01595 -2.29e-20)
(0.9545 -0.09929 2.132e-21)
(1.003 -0.04855 -1.517e-21)
(1.225 -0.2544 1.403e-20)
(0.9943 -0.0142 0)
(0.6876 -0.05477 0)
(2.088 0.9561 0)
(0.1396 -0.0443 9.544e-22)
(0.9932 5.149e-05 0)
(1.378 -0.2389 -4.498e-21)
(0.929 -0.08293 1.223e-20)
(0.09801 -0.03503 9.073e-25)
(0.4003 -0.1208 8.468e-21)
(1.951 0.5603 1.813e-21)
(1.167 -0.252 -3.885e-21)
(0.9584 0.04165 3.432e-21)
(0.08327 -0.03858 -3.417e-22)
(0.5544 -0.1665 -1.051e-20)
(0.9948 -0.00031 8.125e-21)
(0.7527 -0.1425 2.334e-20)
(1.437 -0.1591 -4.264e-20)
(0.8301 -0.07268 4.125e-22)
(0.914 -0.06898 -2.878e-22)
(0.4207 -0.1092 -4.132e-21)
(0.1533 -0.05444 5.435e-22)
(1.145 -0.2751 3.824e-21)
(1.577 -0.06658 0)
(0.5386 -0.1919 4.72e-21)
(0.236 -0.04931 0)
(0.4161 -0.09289 1.019e-22)
(1.026 -0.01136 -1.129e-20)
(0.5284 -0.03257 -6.345e-23)
(0.7144 -0.2221 -2.925e-21)
(0.8032 -0.1202 -2.613e-21)
(0.9501 -0.1008 3.034e-21)
(0.1824 -0.06524 -5.079e-22)
(1 0.002731 0)
(1 0.003627 2.76e-21)
(1.027 0.422 1.743e-20)
(0.5805 -0.1323 -1.821e-21)
(1.6 1.242 0)
(0.9864 0.01919 -4.033e-20)
(1.003 -4.79e-05 -8.315e-22)
(0.573 -0.1603 0)
(0.4501 -0.1842 0)
(0.3978 -0.09269 1.154e-21)
(0.4394 -0.1317 0)
(-0.05669 0.02032 3.489e-21)
(0.0328 -0.0121 0)
(0.813 -0.1564 -4.016e-21)
(1.039 0.04225 0)
(0.9975 -0.0009022 1.379e-20)
(0.1864 -0.06898 -5.28e-22)
(0.9228 -0.2039 -3.079e-21)
(0.8073 -0.1745 8.234e-21)
(1.001 -0.002334 2.453e-20)
(0.5885 0.003771 5.862e-21)
(0.9564 -0.09507 0)
(0.5995 -0.1735 5.004e-21)
(0.9976 -0.006199 3.53e-21)
(0.7044 -0.0895 -1.549e-22)
(0.9858 0.0189 7.509e-20)
(0.4625 -0.1259 -7.705e-22)
(0.1024 -0.008761 0)
(1.209 -0.2434 5.587e-22)
(0.997 -2.529e-05 7.666e-22)
(0.1465 -0.03627 -2.831e-21)
(1.181 -0.2827 -1.635e-21)
(0.2354 -0.1244 -2.24e-20)
(1.005 -0.0002232 -3.16e-21)
(0.9045 -0.1366 -4.338e-21)
(0.1078 -0.03847 -2.666e-22)
(0.9928 0.0008962 0)
(0.9429 -0.1097 0)
(0.995 0.02471 -5.159e-22)
(0.9527 -0.07213 -4.895e-22)
(1.467 -0.1742 0)
(0.9912 0.01153 3.912e-20)
(0.4752 -0.1155 1.007e-20)
(0.8825 -0.1182 -1.039e-21)
(0.07819 -0.05922 0)
(1.465 -0.2156 -1.088e-20)
(1.44 -0.1947 -1.325e-21)
(0.8275 -0.09607 2.157e-21)
(0.839 -0.1048 8.575e-22)
(-0.1388 0.5246 -1.21e-20)
(0.9345 -0.08908 3.291e-22)
(2.014 1.141 3.141e-21)
(0.913 -0.059 2.69e-22)
(0.1042 -0.03747 2.173e-22)
(1.554 -0.1343 -2.256e-21)
(0.7029 -0.06589 -2.064e-22)
(1.001 -0.002275 0)
(0.8335 -0.1741 -2.269e-21)
(0.9895 0.01409 -1.642e-20)
(-0.01325 0.7605 -6.496e-21)
(1.063 0.005245 7.443e-20)
(1.44 -0.1968 1.255e-20)
(1.004 -0.0005622 0)
(1.001 0.02315 -8.482e-22)
(0.9588 -0.07911 -9.579e-21)
(0.5191 -0.1904 2.476e-21)
(1.212 -0.2753 4.511e-21)
(1.002 -0.001155 2.018e-20)
(1 -0.003067 -3.092e-20)
(0.1492 -0.04574 5.759e-22)
(0.9748 0.1225 0)
(0.5269 -0.1201 4.536e-21)
(0.7499 -0.0662 5.479e-22)
(0.6172 -0.1538 0)
(0.4664 -0.1084 -1.59e-20)
(1.142 -0.273 -6.79e-22)
(0.4359 -0.1414 0)
(1.481 -0.1831 -2.585e-22)
(0.3366 -0.08022 -1.369e-20)
(1.047 -0.0727 0)
(1.002 -0.001223 -3.508e-21)
(1.684 -0.06893 1.039e-20)
(1.472 -0.1865 1.153e-21)
(0.8868 -0.1237 3.005e-21)
(1.387 -0.1573 0)
(0.9807 -0.02049 -9.982e-20)
(1.003 -5.443e-05 9.302e-23)
(1.45 -0.1798 -1.067e-20)
(0.2239 -0.1168 -5.346e-24)
(1.488 -0.1613 3.376e-21)
(0.07328 -0.02609 -6.037e-22)
(1.063 0.006913 0)
(1.003 -6.748e-05 1.836e-22)
(0.3103 -0.1036 0)
(1.498 -0.1297 0)
(0.9197 0.08278 -9.452e-20)
(0.9506 -0.1188 -4.697e-21)
(0.8943 -0.1014 0)
(0.9841 -0.04168 -4.056e-20)
(0.1713 -0.04292 5.239e-21)
(0.7914 -0.1667 -2.522e-21)
(1.473 -0.186 7.132e-21)
(0.6857 -0.03533 -8.989e-20)
(0.006566 -0.002148 0)
(0.1182 -0.04303 0)
(0.1998 -0.07186 -3.254e-22)
(0.1576 -0.07046 4.21e-22)
(0.6678 -0.1992 0)
(1.401 -0.2012 6.344e-21)
(0.7409 -0.09588 3.533e-22)
(1.079 -0.1625 0)
(0.9247 0.0173 -2.211e-20)
(1.557 -0.1415 1.239e-20)
(0.1053 -0.04371 0)
(1.318 -0.2745 -6.727e-21)
(0.9995 -0.002291 7.16e-20)
(0.9045 -0.1393 3.341e-21)
(0.671 -0.1188 0)
(0.4276 0.3817 -3.631e-20)
(0.9931 2.109e-05 -3.405e-23)
(0.9995 -0.002356 -9.545e-20)
(-0.016 -0.00233 0)
(0.9556 -0.0621 3.487e-21)
(0.8604 -0.1577 -3.376e-21)
(1.5 -0.1911 -6.969e-22)
(0.2243 -0.07247 0)
(1.12 -0.2455 1.642e-20)
(1.534 0.01283 0)
(0.693 -0.05928 -2.214e-22)
(0.594 0.2662 6.886e-20)
(0.7737 -0.2002 0)
(1.015 -0.001345 -2.65e-20)
(1.003 -0.001351 0)
(1.835 0.4712 0)
(1.161 0.4558 0)
(0.688 -0.127 7.164e-22)
(0.4297 0.3562 0)
(0.4977 -0.2006 7.576e-21)
(0.7279 -0.2067 0)
(0.4974 -0.1911 -8.91e-21)
(1.093 -0.1507 8.14e-20)
(1.015 -0.1597 1.19e-20)
(0.9978 -1.914e-05 -1.177e-22)
(0.721 -0.05176 1.351e-22)
(0.9159 -0.05769 3.315e-21)
(0.8328 -0.1885 -2.246e-21)
(-0.0006531 -0.001035 -3.709e-23)
(0.9086 -0.1342 -1.421e-21)
(1.569 -0.1181 -1.406e-20)
(0.7826 -0.2328 6.822e-21)
(0.9972 -1.384e-05 -7.474e-22)
(0.95 -0.1014 -5.337e-23)
(0.9112 -0.08263 7.113e-22)
(0.026 -0.009767 0)
(0.9596 -0.168 -5.473e-22)
(1.251 -0.2581 1.128e-20)
(1.48 -0.1833 -3.878e-21)
(2.036 1.692 0)
(0.9213 -0.27 5.608e-21)
(0.276 -0.1174 1.812e-20)
(0.9978 -0.2455 -6.811e-22)
(0.8059 -0.1912 1.012e-21)
(0.9512 -0.1016 -1.43e-21)
(0.9549 -0.09881 -1.013e-21)
(1.107 -0.2923 6.621e-21)
(0.8587 -0.1256 1.356e-20)
(0.007953 -0.0004796 0)
(0.6672 -0.1191 0)
(0.9651 0.1225 1.577e-20)
(0.8174 -0.1751 -2.312e-21)
(0.4617 -0.1672 1.449e-20)
(0.9511 -0.09888 3.051e-22)
(1.007 -0.003006 0)
(0.1037 -0.02159 3.3e-22)
(0.9917 -0.2182 -5.957e-21)
(0.4036 -0.09276 -1.094e-21)
(1.003 -9.058e-05 -1.802e-22)
(0.07186 -0.02723 0)
(0.4633 -0.1041 0)
(0.7108 -0.09047 -2.141e-21)
(0.9986 -2.254e-05 2.582e-22)
(1.031 -0.159 6.417e-21)
(0.1212 -0.02411 0)
(0.936 -0.1721 7.75e-21)
(1.564 -0.1579 -6.215e-21)
(0.9982 -3.619e-05 -2.21e-22)
(0.6025 -0.1544 -2.38e-21)
(0.1192 -0.04292 0)
(0.4 -0.1189 6.45e-21)
(1.315 -0.2598 0)
(0.9961 0.03622 -1.08e-21)
(1.501 -0.1668 3.245e-21)
(-0.2749 0.8383 0)
(1.028 -0.004812 -2.441e-20)
(0.8693 -0.1491 4.238e-21)
(0.8282 -0.1463 0)
(1.425 -0.1988 -7.336e-21)
(0.3599 -0.09087 0)
(0.7556 -0.1392 -1.412e-20)
(0.9084 -0.1344 0)
(0.6462 -0.08096 -3.909e-22)
(0.2073 -0.07066 0)
(0.9939 -5.773e-06 -4.882e-22)
(0.5898 -0.1503 2.276e-21)
(1.02 -0.2476 5.696e-22)
(0.5237 -0.04187 0)
(0.8297 -0.1196 -1.899e-21)
(1.402 -0.05606 0)
(0.7976 -0.2239 0)
(0.1566 -0.05468 1.284e-22)
(0.9935 3.101e-05 -1.378e-22)
(0.3175 -0.097 -2.471e-21)
(0.1707 -0.0404 0)
(1.493 -0.1652 0)
(0.01187 -0.007633 3.639e-23)
(1.493 -0.1643 -3.735e-21)
(0.1394 -0.04372 -1.484e-21)
(1.386 -0.2589 -1.504e-21)
(0.1526 -0.03568 0)
(0.8029 -0.1603 0)
(0.9992 -0.0002267 3.149e-20)
(0.001947 -0.0007659 2.909e-23)
(0.6109 -0.1683 5.401e-21)
(1.473 -0.217 9.394e-21)
(0.1544 -0.05891 -2.611e-22)
(0.2629 -0.08004 -3.246e-21)
(0.04479 -0.01821 2.382e-21)
(0.2588 -0.08242 -8.704e-22)
(0.87 -0.07299 0)
(0.9973 -0.0008348 0)
(0.9709 -0.2007 0)
(0.9385 -0.1084 -1.008e-23)
(0.9981 -5.156e-05 0)
(0.2335 -0.07926 -4.187e-21)
(2.05 0.7769 0)
(0.9081 -0.1342 -3.122e-21)
(0.601 -0.1872 -5.735e-21)
(1.006 -0.0001317 -1.31e-20)
(1.157 -0.2775 0)
(0.1019 -0.03722 0)
(1.016 -0.001034 -8.608e-20)
(1.006 -0.0001464 0)
(1.384 -0.1594 0)
(1.053 -0.2461 3.761e-21)
(0.6185 -0.1556 8.53e-22)
(0.06056 -0.02679 9.346e-22)
(0.4515 -0.1142 1.718e-21)
(0.1483 -0.008382 -1.403e-23)
(0.9311 -0.115 0)
(0.5134 0.0544 -6.08e-20)
(0.9997 -0.002407 0)
(0.5187 -0.163 -2.75e-21)
(0.1303 -0.04793 0)
(0.7943 -0.05631 2.6e-22)
(0.6583 -0.05435 0)
(0.4597 -0.0323 -4.471e-20)
(1.002 -0.000687 0)
(1.014 -0.01543 2.626e-21)
(0.9853 -0.04354 2.129e-20)
(0.5989 0.005443 6.987e-21)
(0.9997 -0.00228 1.256e-20)
(1.079 -0.1409 -2.853e-20)
(0.1492 -0.07524 4.68e-21)
(0.9331 -0.1152 -3.664e-21)
(0.676 -0.09335 2.378e-21)
(0.9998 -0.002717 0)
(0.1082 -0.03425 5.487e-22)
(0.9387 -0.1109 1.91e-21)
(1.004 0.01098 0)
(0.8137 -0.09847 -9.424e-22)
(0.9956 -0.0003792 0)
(0.3221 -0.1218 2.278e-20)
(-0.4513 0.7421 -9.898e-22)
(1.344 -0.1742 -1.484e-22)
(1.532 -0.1272 0)
(0.4172 -0.02631 -1.144e-22)
(0.9755 -0.01725 4.999e-21)
(0.399 -0.1038 0)
(0.6717 -0.04301 -2.133e-20)
(0.6941 -0.05899 0)
(0.09949 -0.05485 4.497e-22)
(0.7525 -0.09897 -5.612e-22)
(1.544 2.141 -6.8e-21)
(1.405 -0.05119 -1.693e-20)
(0.8583 -0.1352 -6.744e-21)
(0.529 -0.1166 3.017e-23)
(0.3566 -0.06653 0)
(1.004 0.01416 0)
(1.313 -0.2117 2.385e-20)
(0.6712 -0.2104 0)
(2.082 0.3894 5.525e-22)
(0.1064 -0.04477 -2.044e-22)
(0.5683 -0.09312 0)
(1.002 -0.0006441 0)
(1.022 -0.0994 1.232e-20)
(0.1863 -0.06908 2.619e-22)
(0.6046 -0.1392 -7.393e-21)
(0.381 -0.02033 3.11e-20)
(1.873 0.1664 0)
(-0.1775 0.2061 -1.989e-21)
(1.954 0.2359 -2.022e-21)
(0.1736 0.02931 2.408e-20)
(0.8736 -0.2071 -3.042e-21)
(0.1434 -0.05756 -3.893e-22)
(0.9735 -0.2004 1.707e-21)
(0.3008 -0.02295 -3.952e-22)
(1.036 0.05618 -1.451e-20)
(0.9152 -0.1302 0)
(1.004 -4.201e-05 0)
(0.9969 -2.041e-05 0)
(1.424 -0.2076 5.837e-21)
(1.086 0.02441 3.823e-21)
(1.53 -0.1831 9.707e-21)
(0.893 -0.1423 5.406e-21)
(0.2577 1.295 0)
(0.9524 -0.09027 8.102e-21)
(1.039 -0.05421 -2.189e-20)
(2.108 0.8287 8.032e-21)
(0.8118 -0.1775 4.052e-21)
(1.015 -0.0139 5.229e-20)
(1.024 -0.2039 -1.953e-22)
(0.1989 -0.03945 -5.298e-22)
(1.038 -0.0522 3.191e-20)
(0.5041 -0.116 -1.115e-20)
(-0.06857 0.02292 -1.329e-21)
(0.08881 -0.02057 0)
(0.8403 -0.1585 0)
(-0.3403 0.5702 -3.988e-21)
(1.3 -0.244 0)
(0.03871 -0.0172 0)
(0.9863 0.004857 5.178e-20)
(1.515 -0.1604 5.736e-21)
(0.8325 -0.1892 2.273e-21)
(1.004 -0.01207 0)
(0.4866 -0.1234 4.897e-21)
(0.6836 -0.1977 0)
(1.057 -0.2535 -2.551e-21)
(0.995 -0.0002814 4.067e-21)
(0.9651 -0.0208 3.074e-21)
(1.053 -0.2052 0)
(0.1018 -0.007451 -4.531e-23)
(0.6198 -0.1674 -1.336e-20)
(-0.06713 0.02233 0)
(1.044 -0.2311 3.472e-21)
(0.4446 -0.1508 0)
(0.8228 -0.1731 -8.168e-22)
(0.09898 -0.03552 0)
(1.527 -0.103 2.01e-21)
(0.9965 -1.667e-05 1.13e-22)
(0.2 -0.1089 0)
(1.614 0.3584 -3.162e-20)
(1.004 -3.792e-05 0)
(0.503 -0.1319 4.154e-22)
(0.03331 -0.01311 -2.411e-22)
(1.168 -0.2305 -7.104e-21)
(1.871 0.1178 -6.761e-21)
(0.976 -0.06652 -1.515e-21)
(0.8968 -0.128 -1.588e-21)
(0.07243 -0.02478 -1.973e-25)
(0.1247 -0.0179 1.511e-22)
(0.894 -0.09389 0)
(1.037 0.04263 -3.783e-20)
(0.9962 0.009568 6.306e-21)
(0.8555 -0.1531 0)
(0.3948 -0.1031 -4.463e-21)
(0.1875 -0.03435 -3.251e-21)
(0.5342 -0.1216 0)
(0.4373 1.624 1.612e-20)
(0.4753 -0.1965 -4.136e-21)
(0.6503 -0.02071 -2.77e-22)
(1.322 0.01129 -4.012e-20)
(0.4805 -0.1968 -4.099e-21)
(1.107 -0.08445 4.787e-20)
(0.7043 -0.04795 0)
(1.007 -0.00174 0)
(0.4087 -0.1074 2.91e-22)
(0.08441 -0.07183 2.111e-23)
(1.345 -0.2407 -1.407e-20)
(0.4948 -0.1505 0)
(0.8907 -0.2056 0)
(0.9919 0.008508 -3.01e-20)
(0.9694 0.02118 2.413e-20)
(0.127 -0.05389 0)
(0.7887 -0.116 3.264e-20)
(0.1382 -0.06576 0)
(0.9082 -0.1173 0)
(0.07824 -0.03848 -6.397e-22)
(0.4374 -0.1476 -3.906e-22)
(1.486 -0.156 -3.035e-21)
(1.743 0.01245 -1.802e-21)
(1.57 -0.1234 -1.052e-20)
(0.3353 -0.05087 1.282e-21)
(1.482 -0.1789 -8.149e-21)
(0.7541 -0.05625 -2.337e-22)
(0.3288 -0.08044 4.991e-21)
(0.9406 -0.111 4.519e-21)
(0.6615 -0.1877 4.048e-21)
(0.7212 1.866 -7.891e-21)
(0.04922 -0.0159 -6.635e-23)
(0.09096 -0.07746 -1.53e-22)
(0.02988 -0.01042 0)
(0.8514 -0.2017 0)
(1.007 -0.002881 0)
(1.004 -0.005122 4.297e-20)
(0.7165 -0.1817 1.987e-21)
(0.1811 -0.08341 0)
(0.8851 -0.1265 -1.935e-20)
(1.006 3.05e-05 0)
(0.392 -0.1266 -1.495e-20)
(1.139 -0.2737 3.377e-21)
(0.9622 -0.07623 7.031e-21)
(0.02612 -0.0103 0)
(1.457 -0.1724 -1.892e-20)
(0.1632 -0.04986 -4.697e-21)
(1.703 0.912 -3.914e-20)
(0.9999 0.00139 -2.314e-20)
(0.864 -0.1244 0)
(0.9663 -0.06413 3.717e-21)
(0.4625 -0.1803 0)
(0.6199 -0.04705 0)
(0.1073 -0.03337 -1.126e-22)
(0.5183 -0.02341 3.417e-20)
(1.29 -0.2167 4.586e-20)
(0.702 -0.1254 0)
(0.8875 -0.08287 2.221e-22)
(0.97 -0.08022 0)
(0.8776 -0.2401 0)
(0.4015 -0.1412 1.641e-20)
(0.9424 -0.1083 -1.405e-21)
(0.1175 -0.03951 0)
(0.4439 -0.1909 -5.41e-21)
(1.008 -0.01639 -1.937e-21)
(0.02456 -0.01186 0)
(0.08305 -0.02901 0)
(1.026 -0.2494 0)
(1.491 -0.2119 1.288e-20)
(-0.3596 0.631 -4.464e-21)
(1.012 0.0241 -5.429e-21)
(0.1114 -0.02526 7.425e-21)
(0.3296 -0.06465 0)
(0.9977 -0.0003019 0)
(0.997 -9.467e-05 -2.794e-20)
(1.513 -0.1622 2.046e-24)
(1.243 -0.2802 1.322e-20)
(0.01968 -0.007729 2.769e-22)
(0.08443 -0.03836 -1.115e-22)
(0.9152 -0.13 7e-22)
(0.5649 -0.201 0)
(0.1691 -0.05821 -3.003e-21)
(0.8729 -0.1234 0)
(0.9183 -0.1074 0)
(0.9733 -0.02219 -5.498e-20)
(0.1582 -0.05448 -4.616e-21)
(0.2149 -0.05134 0)
(0.1863 -0.06523 -2.316e-21)
(0.8329 -0.1525 0)
(0.09705 -0.03352 -4.085e-22)
(0.2675 -0.05183 -3.147e-21)
(0.9994 -0.001679 -1.595e-21)
(0.3467 -0.04778 0)
(0.1303 -0.02876 9.638e-22)
(0.9977 -0.0008147 -1.059e-19)
(1.218 -0.173 -3.834e-21)
(0.998 -0.0003267 -1.092e-20)
(0.9864 0.0007898 4.802e-20)
(0.9285 -0.1208 -1.767e-21)
(0.8656 -0.09841 0)
(0.3335 -0.03183 -3.891e-20)
(0.9959 -0.002216 1.074e-20)
(0.8133 -0.09718 1.093e-22)
(1.007 0.006593 0)
(2.062 0.8249 0)
(0.8798 -0.09038 -2.571e-20)
(1.004 -0.1911 1.349e-21)
(0.947 -0.1041 2.727e-21)
(0.8431 -0.1633 5.303e-22)
(0.8837 -0.1275 0)
(0.1337 -0.03209 1.188e-20)
(0.9477 -0.103 -3.333e-21)
(0.9998 -0.005359 1.071e-20)
(0.9691 -0.04154 -6.415e-20)
(1.352 -0.2371 7.116e-21)
(0.8757 -0.1599 -1.486e-21)
(0.04666 -0.01914 -2.757e-22)
(0.1836 -0.05969 0)
(0.3898 -0.02843 -3.591e-24)
(0.1563 -0.05132 -1.734e-21)
(-0.0327 0.009573 -6.456e-20)
(1.451 -0.2139 1.18e-20)
(0.7503 -0.2046 0)
(1.737 0.03228 -1.525e-20)
(0.8643 -0.09137 1.597e-22)
(0.6514 -0.07968 0)
(1.098 0.734 -1.37e-20)
(0.9894 -0.2049 0)
(1.003 -0.01253 9.291e-21)
(0.7688 -0.1483 1.374e-20)
(0.1188 -0.03749 -3.345e-22)
(0.7464 -0.126 0)
(0.9987 -9.723e-05 6.031e-22)
(0.05983 0.004858 6.627e-20)
(1.159 -0.2959 0)
(0.962 -0.09283 -1.45e-22)
(0.7354 -0.1915 1.554e-21)
(1.493 -0.1829 -9.676e-22)
(0.9289 -0.1063 4.824e-21)
(0.4868 -0.1054 0)
(1.142 -0.2678 7.339e-21)
(0.9618 -0.09295 -4.382e-22)
(0.109 -0.03144 1.699e-23)
(0.7571 -0.2023 -5.668e-21)
(0.09728 -0.056 -4.66e-22)
(0.998 -0.000772 0)
(0.9728 -0.07483 1.039e-21)
(0.8153 -0.1521 0)
(0.9746 -0.01432 0)
(0.8889 -0.1803 0)
(1.073 -0.1115 1.614e-21)
(0.9966 -5.927e-06 4.445e-21)
(0.8185 -0.155 9.726e-21)
(0.1255 -0.04301 0)
(0.9528 -0.04197 0)
(1.131 0.7228 5.037e-20)
(1.315 -0.2368 0)
(0.06789 -0.02093 0)
(0.8947 -0.1071 2.017e-20)
(1.007 4.078e-05 -1.57e-22)
(0.7321 -0.1639 -1.542e-22)
(0.4579 -0.1091 -2.753e-22)
(1.016 -0.007524 4.683e-20)
(1.19 0.6125 -4.189e-20)
(1.135 0.07131 2.003e-20)
(1.134 -0.2798 5.318e-21)
(0.5197 -0.1323 -5.323e-21)
(0.8797 -0.1417 4.383e-21)
(1.041 -0.05035 0)
(0.1192 -0.03973 2.231e-22)
(0.03697 -0.01341 -7.627e-22)
(0.8435 -0.1761 -2.643e-22)
(0.8997 -0.1403 2.094e-21)
(0.9838 -0.2763 -1.93e-21)
(0.2942 -0.02596 0)
(0.9984 -0.0001164 -5.447e-22)
(0.9433 -0.09785 -1.082e-21)
(1.009 0.008338 1.022e-21)
(0.5495 -0.1423 0)
(0.3197 -0.07419 -1.431e-20)
(1.179 -0.2035 0)
(0.7367 -0.1916 1.396e-20)
(0.09967 -0.06152 2.099e-22)
(0.4033 -0.06682 0)
(0.9994 0.005768 -5.96e-21)
(0.02141 -0.007683 0)
(0.07107 -0.02356 0)
(0.3923 -0.1212 2.865e-21)
(0.9681 -0.08599 -1.254e-21)
(2.171 0.6383 0)
(1.128 -0.2571 -5.607e-21)
(0.9667 -0.1718 9.554e-23)
(0.603 -0.04698 0)
(0.9219 -0.1242 0)
(0.8581 0.129 -9.778e-20)
(0.0519 -0.001305 -4.631e-22)
(0.1549 -0.07632 1.769e-22)
(0.8737 -0.06487 0)
(0.7891 -0.1635 -3.229e-21)
(0.9101 -0.1348 0)
(0.1353 -0.01868 -6.295e-20)
(0.06386 -0.01913 -8.48e-22)
(-0.04789 0.01413 1.307e-22)
(0.8904 -0.1455 8.745e-22)
(0.2588 -0.08456 0)
(1.537 -0.1251 0)
(0.8606 -0.1044 -1.301e-21)
(0.8795 -0.08983 5.425e-22)
(1.161 -0.2324 0)
(-0.06777 0.02296 0)
(0.9494 -0.07052 -5.507e-21)
(0.835 -0.1709 -4.565e-21)
(0.9294 -0.08217 0)
(0.835 -0.1415 1.485e-21)
(0.9939 4.097e-05 0)
(1.004 -0.001192 1.534e-19)
(1.422 -0.1927 -1.579e-20)
(0.2722 -0.01798 -1.352e-22)
(0.4397 -0.09882 2.268e-21)
(1.003 -0.02749 6.54e-21)
(0.1586 -0.031 -7.849e-21)
(0.02346 -0.01339 6.423e-22)
(0.9951 0.01132 -1.906e-20)
(1.181 0.1618 0)
(0.9256 -0.1223 3.981e-22)
(1.498 -0.1469 0)
(0.004819 0.01655 0)
(0.72 -0.168 -1.171e-20)
(0.1252 -0.05739 2.406e-22)
(0.008014 -0.002668 0)
(1.027 -0.2041 -1.71e-22)
(-0.1057 0.03426 2.915e-21)
(0.95 -0.2536 3.557e-21)
(0.9342 -0.1149 0)
(0.6201 -0.06622 9.801e-21)
(0.8956 -0.128 5.811e-22)