/*--------------------------------*- C++ -*----------------------------------*\
  =========                 |
  \\      /  F ield         | OpenFOAM: The Open Source CFD Toolbox
   \\    /   O peration     | Website:  https://openfoam.org
    \\  /    A nd           | Version:  8
     \\/     M anipulation  |
\*---------------------------------------------------------------------------*/
FoamFile
{
    version     2.0;
    format      ascii;
    class       volScalarField;
    location    "15";
    object      epsilon;
}
// * * * * * * * * * * * * * * * * * * * * * * * * * * * * * * * * * * * * * //

dimensions      [0 2 -3 0 0 0 0];

internalField   nonuniform List<scalar> 
127143
(
33.77
6.971
9.446
4.472
95.67
4.384
313.6
81.48
123.2
62.49
349.4
119.1
46.21
3.901
13.46
9.82
10.33
0.07694
0.1095
8.29
0.3769
3.033
0.1318
0.6662
3.143
3.278
11.09
12.17
12.33
0.06248
0.7951
3.386
34.98
2.196
0.06431
34.75
0.2727
0.3641
0.5594
1.802
0.1092
1.158
0.9503
11.9
0.07763
2.131
11.87
0.1902
1.036
0.5689
9.282
0.02157
0.83
0.2285
0.005275
2.241
0.005087
0.1364
0.01309
0.2268
0.8981
0.1494
0.3294
0.09658
2.588
0.48
0.06455
0.3535
0.3477
0.0008089
0.7099
10.53
0.128
0.01311
0.02705
11.18
0.01719
0.2658
2.198
0.1318
10.39
7.2
1.322
1.473
0.1553
0.2442
0.5081
16.81
0.4606
12.18
0.01588
0.1449
9.713
0.3758
0.7437
0.0837
1.082
1.036
0.2474
0.06299
0.1332
0.9943
26.2
0.2354
0.2384
0.2513
0.5816
0.0008156
1.147
0.01752
12.63
16.88
0.5104
5.357
0.02068
0.3073
0.01767
0.02706
0.01712
1.183
0.0167
1.112
1.549
0.1192
10.12
3.868
0.1879
0.01658
1.302
2.687
0.3653
0.64
0.2879
0.2623
3.028
0.3588
0.03615
0.3544
11.2
0.03799
0.1949
0.01736
0.6078
0.371
0.822
3.838
49.67
0.1068
0.6541
29.4
0.2458
1.097
0.3585
0.1492
5.631
0.1535
0.1359
3.508
0.1881
1.241
0.6551
42.7
0.01607
0.3641
3.851
2.378
0.3111
0.8289
9.746
0.02244
0.649
0.3696
0.3521
0.9276
0.003699
0.2609
4.078
1.294
0.6303
0.01842
0.9291
0.0295
0.2717
0.2594
2.609
0.1477
0.2134
5.154
0.6211
0.02095
0.8647
1.129
0.0351
11.46
3.647
0.223
0.112
0.112
23.4
0.0184
0.01692
0.02298
0.03646
0.2622
2.651
0.397
0.06532
0.4607
0.06003
0.02086
0.07618
0.1746
0.01554
9.696
0.4524
14.12
0.9946
0.5243
0.4767
0.06448
3.743
0.02938
1.126
0.8201
1.307
0.6909
3.149
0.3607
0.4813
0.2078
0.398
0.02893
0.1244
3.16
0.3951
0.08777
0.3639
42.89
0.01683
0.7728
1.106
2.46
0.2091
3.431
0.6167
1.205
0.9241
10.39
6.494
0.001442
1.731
2.083
0.7039
0.3987
1.685
1.129
0.01645
10.16
0.6453
0.1105
0.244
0.02344
0.1421
0.01736
0.8908
2.407
0.5162
6.901
1.129
0.5488
2.457
0.003608
0.1704
0.7769
0.2783
0.8529
0.5051
0.8116
0.006092
0.78
0.002486
0.08755
0.2308
0.02255
0.02042
3.297
0.4426
0.02031
0.752
0.01874
0.3501
0.2472
0.08734
0.4166
0.01441
1.421
0.8345
0.7605
0.2091
0.5327
1.285
0.3876
0.5045
0.2998
1.383
3.41
0.4534
0.01556
0.1553
0.2832
0.6012
0.8372
2.361
0.002565
0.01981
7.32
0.4134
1.262
0.1273
0.01976
0.1266
0.7246
0.0219
0.7052
7.44
0.534
0.03471
1.59
0.6948
4.191
0.1666
0.02042
0.06235
0.1016
0.1016
0.1417
1.119
0.3494
0.1665
0.4812
0.03676
0.5241
0.7635
0.8414
4.089
0.7663
0.9055
0.6447
1.283
1.569
1.176
0.1107
0.2617
0.8498
0.02639
0.8075
0.3995
3.252
0.01074
0.7161
0.155
0.3144
0.08282
0.5427
0.5671
0.04063
0.01851
0.01299
1.605
0.006197
1.83
0.02198
1.607
0.5647
0.02026
0.07595
0.8214
3.686
0.2232
0.006499
0.1227
3.532
1.125
0.401
0.01757
4.384
0.04649
1.697
0.2292
0.2231
0.01287
0.4258
0.5516
1.744
0.6257
0.8239
0.4254
0.7352
0.02634
0.02281
1.659
0.03012
0.4146
0.2649
0.04701
0.2986
0.2289
0.3014
0.1375
0.5926
1.81
1.497
0.1903
0.1823
1.487
0.7318
0.329
2.676
0.4596
2.631
0.3024
1.884
0.5222
0.001485
0.2106
0.1379
0.8545
0.1545
2.318
0.08358
0.05465
0.5049
0.2747
0.08542
1.147
0.04023
0.3983
0.9028
0.02114
0.01444
0.02275
0.5352
0.03688
1.196
0.01883
0.9898
0.0185
5.829
0.01321
0.1745
0.3208
0.9933
0.2855
1.842
0.05019
0.2468
1.509
2.262
0.2353
0.4114
0.2783
1.068
0.2344
3.745
1.084
0.003371
0.01719
0.5393
0.8446
0.03247
0.2303
0.1593
0.1177
0.4055
0.05326
0.006091
6.019
0.1552
0.5645
0.69
13.25
5.759
1.302
2.339
1.612
1.122
0.6279
0.01563
1.081
0.0173
6.346
0.4818
0.8961
3.728
1.508
0.3862
3.217
0.08238
3.694
0.01706
13.2
0.01714
0.2322
0.2198
7
1.172
6.909
0.07079
0.7942
2.178
0.02002
0.1504
1.682
0.3208
0.3004
0.326
1.012
0.23
3.738
0.003357
0.1929
3.61
2.949
1.124
0.6061
0.01302
0.2404
0.0353
0.2308
0.01234
1.155
21.75
0.5577
0.04393
0.5394
0.102
0.7592
1.871
14.22
0.1878
0.01731
0.4299
1.283
0.03629
0.3982
0.4276
0.7711
0.5291
0.8865
0.7501
0.226
0.7604
2.327
0.2945
0.4896
0.01426
1.532
0.3871
1.583
0.3435
0.1989
0.08465
0.06712
0.1011
0.9263
4.236
0.01928
0.001686
1.089
4.071
0.2275
1.636
0.8348
2.024
0.4667
0.01699
0.03758
0.5746
0.2628
0.8212
0.003967
10.2
0.2981
0.5513
0.006302
1.843
0.01917
0.2227
0.2554
0.1991
0.001634
0.4931
0.2444
22.85
0.006371
0.5647
0.984
0.02218
0.2961
0.01967
0.4417
0.5894
0.02269
1.087
0.9783
1.128
0.8762
0.5786
1.137
1.096
5.271
0.5292
9.171
0.5152
0.2749
0.9352
1.32
0.003993
1.91
0.02104
3.781
0.01723
0.5977
0.04642
0.02037
0.1409
2.597
0.4355
0.003494
0.007784
0.4601
12.12
1.13
1.024
0.1361
1.182
0.3151
1.852
0.8334
0.5723
2.978
0.003492
2.069
0.79
0.2484
0.3149
0.01599
0.001693
0.5264
10.03
0.6262
1.673
0.01716
0.001042
0.3668
1.698
0.02233
2.239
0.1438
0.03957
0.7273
0.5936
0.7812
0.2039
18.95
0.6553
0.2324
0.2476
0.4379
1.047
1.653
1.265
0.02014
1.173
0.4194
0.4086
0.01072
0.7757
0.4338
0.5783
0.04474
0.01005
1.833
0.08245
1.392
1.067
3.738
0.1564
0.4678
1.159
0.2249
1.809
0.01567
0.007672
2.048
0.1362
1.478
0.5575
5.441
0.1379
3.18
0.07392
0.08212
0.001032
0.9222
0.05368
1.659
2.988
0.4508
0.875
0.2187
0.001491
0.3732
0.5743
1.619
0.09482
0.2832
0.8304
27.04
0.3308
4.281
0.1216
1.53
0.4035
0.2778
0.1857
0.2385
74.38
0.4431
0.02209
0.9348
2.237
0.4885
0.01482
0.3221
0.1103
0.2249
0.0009365
1.699
0.4978
1.879
0.0009827
1.315
0.273
1.061
1.315
0.001079
0.205
0.5769
0.908
0.4173
0.01813
0.7631
9.067
0.01483
0.496
0.3723
1.022
0.3823
0.3743
0.459
2.59
0.4759
0.01875
0.2057
0.1414
1.672
1.416
0.2303
0.1489
0.7216
0.02551
0.3117
0.7148
0.6752
5.526
0.6721
0.5433
0.559
0.2008
0.5071
0.07265
17.13
0.3913
0.8568
0.7717
0.2196
0.4081
0.3866
0.6536
0.04009
0.1041
0.2503
0.0009383
0.4424
6.253
0.5788
1.472
0.02827
0.3089
0.2689
0.01577
0.02036
0.3126
0.1492
0.1362
0.4019
0.2199
7.195
0.2883
0.4273
0.01081
0.2718
0.2894
0.7715
1.213
0.7884
0.002226
0.01289
0.04143
11.31
0.01156
0.06746
9.542
0.429
2.791
0.00434
0.2035
0.415
0.02653
1.256
0.0685
3.124
26.52
1.25
0.704
2.23
0.01548
0.9142
0.2371
1.115
0.4974
1.885
35.4
0.2299
0.2992
0.9054
7.067
0.02423
0.2686
2.641
6.585
0.4227
6.437
0.002217
0.0514
0.5807
4.228
13.25
2.874
152.3
4.715
44.23
0.5871
0.6912
0.1034
3.61
0.01733
0.5993
0.001783
0.001738
0.6088
0.01934
1.025
0.1195
5.12
0.1721
0.02593
8.646
1.003
0.01273
0.103
0.2793
0.02499
1.199
3.806
0.2961
0.5583
12.52
0.3234
0.4709
0.01894
0.8909
1.636
0.01053
0.9488
0.3775
0.1485
0.02612
0.01989
0.105
9.977
0.9517
4.232
0.2434
1.955
0.8645
1.056
2.039
0.002207
11.28
0.66
0.002207
1.173
3.438
0.1591
4.32
0.1979
0.3076
1.428
7.808
0.721
0.01701
0.02864
0.5132
1.665
0.3399
1.137
7.716
6.835
0.8349
0.1042
6.816
0.04119
5.875
0.01692
0.1957
1.593
0.4538
0.5598
0.2606
0.02428
0.01692
0.6686
0.2379
0.3616
0.8418
0.4976
0.1597
0.5933
2.149
1.686
7.329
0.7538
0.8891
0.8024
0.2948
0.1595
10.95
0.403
1.631
2.442
0.263
0.01504
0.01056
0.1948
0.2163
0.2659
0.1799
2.066
0.3168
0.1419
0.4676
0.5266
0.5617
2.603
0.1382
0.2341
0.1333
9.65
1.347
0.2779
0.5538
0.2432
1.653
0.6456
0.2618
0.1337
2.303
0.5492
0.308
7.739
0.01261
2.642
1.152
0.14
0.8812
13.63
0.01905
4.825
9.653
0.002476
0.1533
0.9428
0.4161
3.611
0.494
0.582
2.919
0.5752
0.2344
0.1926
0.01729
0.6516
0.1771
0.4722
0.4437
0.8239
0.254
0.003406
5.68
0.3122
0.02968
1.268
0.002217
0.01712
0.3655
0.1379
11.69
0.01724
1.246
0.02722
6.964
0.1146
0.09727
0.248
1.646
1.047
0.7247
0.3453
0.006187
0.03276
0.4603
0.9481
0.4123
0.5461
2.622
0.6277
3.705
0.8972
2
3.648
0.816
2.495
0.4153
0.1039
0.01088
1.166
0.3417
2.116
0.0007236
6.705
0.2496
0.3955
1.235
0.8956
0.2086
1.668
0.2095
0.3928
0.3685
2.555
0.5067
0.003162
0.2429
1.199
0.01501
0.8553
2.221
0.2081
0.4522
0.3993
0.03305
0.4135
0.3238
1.228
0.1639
0.1056
0.7312
0.5367
0.01341
0.2867
0.02673
0.3077
0.6903
0.4192
0.02412
0.6182
2.144
1.838
0.9497
0.1974
3.552
0.0008085
0.5343
0.02349
0.3004
2.112
0.9453
1.241
0.6466
3.858
0.04514
6.588
0.9573
1.003
0.3246
9.562
0.2006
0.09437
1.487
0.4956
0.03688
17.82
0.24
0.6012
2.206
0.7786
4.45
0.8003
1.145
0.6601
0.3384
0.7219
1.006
0.7487
0.1584
3.557
0.09023
0.9495
0.09935
1.521
0.1056
0.02166
0.4683
4.083
0.2049
0.02174
6.463
0.6206
0.02574
12.18
0.5494
0.6117
1.182
0.6547
0.2937
9.497
0.1034
1.677
0.185
0.4688
4.472
0.9444
1.274
1.57
1.184
0.06598
0.07383
0.5596
0.4282
0.6444
0.378
0.1416
1.264
0.1758
0.1851
0.1566
1.204
0.4227
0.3956
3.567
0.04505
9.81
1.382
0.3255
0.2991
0.02682
0.1651
0.9412
0.4228
1.037
2.444
1.525
0.01803
1.373
0.6384
0.4886
6.966
1.206
0.1216
0.5377
0.01536
0.5697
0.3149
15.76
0.8383
0.03823
0.3071
0.01397
24.77
9.648
0.2493
0.2922
0.6623
0.002845
0.04596
0.4394
0.2003
0.1211
0.07463
0.0006758
0.0006794
3.512
0.3426
0.1724
2.41
0.7542
5.492
0.4854
1.739
0.3133
0.4693
0.05511
0.7827
0.2023
0.9703
7.059
0.4265
0.1703
0.3527
0.3109
0.5199
42.39
0.1165
0.449
0.1474
0.1838
0.1921
0.905
26.64
0.1227
0.578
0.008189
0.6653
15.24
0.06451
26.92
0.5241
0.2916
1.306
0.01158
0.5635
8.901
0.01899
0.5331
0.6899
0.3953
20.27
0.3163
0.2187
0.5155
4.032
0.3184
1.065
0.1008
1.037
2.477
44.08
2.987
0.3528
0.02193
2.127
0.1215
1.105
9.991
0.1421
0.3365
0.009824
0.2774
0.4391
0.0117
0.1376
0.002434
23.73
0.1378
3.9
0.3626
0.7572
6.151
0.4765
0.4978
2.356
50.14
0.4229
0.4397
0.6573
0.4394
0.169
0.08411
0.2766
0.01719
0.1996
0.05474
0.1488
0.01472
2.815
0.3102
0.1778
0.01533
0.5503
0.1003
0.9726
0.1333
0.1978
1.533
0.3886
0.03412
7.262
1.494
0.9117
0.6868
0.3321
0.8227
0.8613
0.3418
0.09154
1.937
0.204
0.7606
1.977
0.9002
0.9449
0.1151
0.01759
48.12
0.4202
6.641
0.02491
6.754
2.339
0.914
0.3211
0.01958
0.01812
0.06692
0.1212
0.04654
0.1627
0.4407
0.3629
1.194
0.02288
0.2623
4.597
1.653
0.08684
0.3377
0.1904
2.507
0.9148
0.7399
0.924
0.2097
0.01544
0.3376
0.3501
5.213
0.7534
0.03379
0.9535
0.01436
0.5547
0.2687
2.949
0.07074
0.03718
0.2019
1.335
6.828
18.34
0.2678
0.3925
0.9421
0.07392
0.01022
20.38
0.8336
9.163
0.0797
3.51
0.2981
0.01395
1.802
3.427
0.1979
0.2556
0.3431
0.5044
0.4888
1.328
0.308
7.754
0.05116
5.164
1.145
1.01
0.001158
0.001128
0.8453
1.832
78.77
4.884
1.2
1.104
46.3
0.01309
0.4282
0.0188
0.01723
0.01391
0.1782
0.004438
19.47
0.02292
20.32
0.3107
2.456
1.993
0.882
0.001034
29.31
0.1265
14.56
0.2611
4.466
0.01274
0.828
0.6608
0.2436
1.02
0.6162
0.2446
19.06
24.08
0.05179
0.01023
1.638
0.0006133
0.1978
0.2788
1.041
0.006607
1.671
0.02967
0.6941
0.8324
0.276
11.86
0.004942
0.2039
1.073
1.074
0.1058
0.3137
0.2567
0.02074
0.09323
0.9065
89.18
0.9267
0.5394
0.01739
3.016
0.2205
0.1285
0.0007493
0.7046
0.408
0.8745
0.01798
2.665
0.01729
0.8824
0.1056
0.8311
2.033
0.2829
4.761
2.395
0.5939
0.007646
0.6923
1.723
0.5165
6.696
1.921
0.1485
0.0328
1.06
59.58
0.7632
6.649
2.707
0.001065
0.1413
0.01517
1.624
1.05
1.164
0.02736
2.925
0.02856
0.1296
0.4056
0.008421
0.1337
0.1255
1.978
0.3147
0.01456
0.7516
0.03857
1.929
9.709
0.3697
0.1122
0.7529
0.02294
0.6824
0.2574
10.9
2.299
0.2527
1.264
0.7463
1.452
17.92
0.04465
0.1958
2.14
0.0375
0.7928
0.3126
0.2217
0.4434
0.01903
0.007339
0.8066
0.1046
0.7622
0.3348
7.894
0.2817
4.829
0.2195
0.01853
5.066
0.7904
0.09745
0.8717
0.02511
0.6148
0.1442
0.2123
4.166
0.2567
2.034
0.6843
0.7765
0.03596
0.4553
0.6197
1.502
5.928
0.02065
0.3977
2.142
0.01644
0.0205
0.2816
0.0008343
0.9811
0.5521
0.4885
2.374
0.2303
0.1818
0.003006
0.2437
0.9185
0.003274
0.2926
7.384
4.393
0.1727
0.4649
2.751
0.1621
3.599
0.1503
0.5164
4.44
0.0007996
0.001333
0.3074
0.01766
2.068
2.236
0.192
1.942
0.9981
0.02007
1.78
14.79
426.7
0.4321
0.3188
0.8412
0.1552
0.1743
0.2433
0.201
1.214
0.4147
0.4248
3.061
3.067
0.2719
0.2165
0.01847
18.06
0.1821
0.3234
0.401
0.04727
0.8889
0.4199
0.1161
0.1661
2.299
1.938
0.4993
1.648
0.2469
8.065
1.32
0.02224
0.795
1.294
0.4373
0.6141
5.936
0.0173
12.32
13.16
0.6007
0.001758
0.1995
0.1565
1.124
1.234
0.1605
1.501
0.00329
1.618
0.8386
0.0661
0.1482
0.01391
0.8834
18.51
0.4656
1.16
52.88
0.2011
5.879
0.001426
19.65
1.09
0.1327
0.03625
0.1008
0.2915
0.1808
0.4377
0.001409
0.8364
7.896
31.31
0.2809
0.3235
0.4197
0.7136
0.01778
0.02117
1.29
0.2224
0.01378
0.426
0.4635
0.7268
0.3605
0.5199
1.519
0.4379
23.87
3.259
2.086
0.09622
0.6593
6.582
0.1641
0.8837
0.103
0.3096
0.3037
19.04
0.2021
0.2453
0.0008541
0.03701
2.085
0.3027
0.01996
0.04583
0.2113
1.892
0.1636
0.7042
4.849
4.04
0.01952
1.276
0.1357
0.3194
2.628
0.1601
0.04118
0.8172
0.4799
0.2285
1.029
0.03504
3.087
0.12
1.61
0.07778
0.8192
2.522
0.4423
1.333
0.442
1.217
0.4751
0.8208
0.1979
0.1653
0.2839
0.2519
1.417
0.3274
28.6
0.6085
0.01458
0.3448
0.1022
1.464
0.6332
0.003547
0.2725
0.09602
4.087
0.001015
0.3266
0.2289
0.267
0.1428
0.4444
0.07867
4.113
0.148
0.01925
0.7701
0.04251
0.1791
0.03343
0.222
0.1974
0.08386
0.1694
0.5305
0.757
0.02387
0.0166
0.1366
0.2716
2.785
0.03178
0.6525
0.2512
2.661
0.8597
0.1207
1.77
0.5056
0.0718
0.4472
5.161
0.1523
17.99
0.7329
0.1715
8.166
0.01992
0.007711
0.7993
0.1607
47.2
0.02609
0.2288
0.7668
104.9
0.6771
1.721
0.007586
0.007571
0.8197
0.8487
0.2561
5.272
0.03655
0.1822
0.216
0.1344
1.323
1.128
0.5396
0.2299
2.084
0.06029
0.6966
0.116
0.288
1.608
1.997
2.373
0.535
18.87
0.518
0.9289
0.4081
1.189
0.5795
0.0889
2.703
1.58
0.001621
0.001606
0.5524
0.354
3.035
1.062
4.428
1.139
0.003939
0.02052
1.613
0.0994
0.3584
11.03
4.276
0.1415
0.9675
0.05895
17.01
7.083
0.001192
0.2984
0.3583
0.5413
0.2029
1.81
0.5404
0.8364
0.5934
0.2623
0.2875
0.1753
4.835
0.9119
0.477
0.3489
42.33
0.3127
0.5125
0.6204
3.95
1.113
0.5367
5.581
0.1901
1.438
0.016
0.1661
0.09005
0.5942
0.1341
6.47
0.5465
0.1508
1.439
30.62
1.274
0.5504
0.4596
1.085
7.614
0.003491
0.2071
0.2566
15.14
0.4152
0.281
0.1065
0.2362
0.02109
0.4644
39.54
0.3042
0.6541
0.1428
0.08363
5.058
0.1162
0.5376
0.2051
0.172
6.417
0.1167
0.5052
0.1236
0.04651
2.626
0.3132
7.627
0.6962
0.5941
0.01008
0.2493
0.5404
1.147
8.642
0.2967
0.1244
1.015
0.01851
1.22
4.85
1.457
2.347
0.6961
3.909
1.112
2.819
4.398
0.2378
2.458
1.351
0.1031
0.07116
3.274
0.0007496
0.1488
0.01938
0.0495
3.761
0.01551
0.6639
1.075
0.1939
0.4613
1.25
4.338
0.3811
8.853
0.4268
0.1624
6.464
0.3837
0.384
0.01912
3.718
0.2284
1.664
2.811
0.0008716
1.062
1.046
0.2853
0.2589
0.9482
10.77
0.9875
0.2778
0.4003
0.02199
0.1071
0.06798
0.3731
0.2483
0.4763
1.082
0.8694
4.515
0.2097
0.01345
1.234
0.3375
0.168
0.367
0.4503
8.652
1.323
5.075
5.087
0.4657
0.5622
0.556
0.3706
0.4267
0.143
4.212
1.442
0.4645
1.045
0.01048
2.163
1.185
0.1744
0.2934
5.567
1.685
4.502
0.2754
0.7175
17.84
0.0127
1.734
0.162
0.03737
0.9924
2.364
0.0148
0.8311
0.2362
0.8198
23.8
0.9713
0.9445
32.84
0.2661
0.6117
0.1914
0.1914
0.5265
0.563
0.7551
3.843
0.4149
0.01977
3.908
2.13
0.7081
0.01476
0.01339
0.8588
0.4004
0.5331
88.24
2.134
0.006358
0.9038
3.332
0.1202
1.55
0.6053
0.002188
0.2586
1.055
0.1206
0.2275
0.02066
0.01007
0.01434
0.004297
0.06165
0.2142
0.5405
3.826
0.2847
0.391
0.4284
3.799
0.004307
0.5676
0.249
0.7899
2.514
0.9117
0.3787
0.4
0.8313
0.6274
0.4481
0.04189
0.4653
59.47
1.303
2.61
0.8085
3.284
0.02058
3.731
0.3929
1.358
0.213
0.03316
23.35
0.02663
0.2724
2.272
0.004796
1.108
0.3224
0.3126
0.3084
2.205
0.04668
0.7322
0.003924
1.343
0.5046
0.4557
0.179
2.167
0.01204
0.01577
0.1674
0.5089
1.06
0.07786
0.3133
1.391
0.3038
14.45
0.8712
0.194
0.137
0.2208
0.3029
0.1214
7.625
0.808
0.02092
9.17
0.01889
0.01254
0.1409
0.001401
16.7
0.2049
1.265
0.224
1.147
0.03322
0.07751
0.425
0.749
0.1531
0.002091
0.2405
70.22
5.082
0.09195
9.103
4.784
13.63
0.001157
0.1734
0.3088
0.1013
0.01731
0.1554
4.637
42.18
0.1805
1.152
5.561
0.02129
1.148
3.623
0.3965
0.0263
1.347
48.49
8.663
12.14
0.1586
0.6421
6.189
0.03165
0.3383
0.01614
0.2963
4.431
0.1284
0.9093
11.34
0.1043
0.3464
2.06
0.1686
0.02193
0.7348
1.555
0.1188
1.1
1.09
0.2164
0.1662
0.6332
0.4166
0.2841
0.02157
0.8541
0.8723
0.7959
0.5786
3.06
0.7717
9.552
3.584
15.01
15.11
0.8393
0.05167
4.86
0.02006
1.46
5.396
0.02191
185.6
0.1308
0.44
6.16
1.419
1.161
7.619
0.524
5.053
0.01586
104.6
1.206
0.0006608
0.1642
0.3076
41.52
4.976
3.543
0.219
1.572
28.81
0.3484
0.1443
0.4599
9.221
0.008263
0.2795
0.4028
0.3591
0.3087
0.2215
0.114
2.673
0.593
1.055
8.218
0.01506
2.549
0.1566
0.5058
0.4254
0.01767
0.079
0.452
1.63
1.432
3.183
0.0006276
0.0156
0.2328
0.8536
7.445
0.217
0.125
0.00569
0.02314
1.911
0.005703
0.6084
1.627
0.08808
0.6019
0.2394
4.578
3.368
5.682
0.03818
0.9109
0.3048
1.216
0.1477
0.1693
5.458
0.168
2.999
0.8343
1.171
0.4582
0.462
18.6
0.206
0.3408
0.6052
0.0008208
0.469
0.06691
0.01788
0.4085
13.37
0.3757
2.975
0.3023
3.922
34.37
0.1326
5.417
0.003811
0.142
0.03314
0.04094
1.147
0.127
4.789
3.998
0.5394
1.809
0.1686
0.5239
1.88
0.4754
0.1707
2.037
0.1622
12.82
0.9905
0.001931
0.3246
0.3345
0.0596
0.02478
1.585
0.0307
1.804
0.6654
0.8786
0.4498
2.143
0.00104
0.121
0.04502
1.889
1.912
3.765
0.4831
0.01419
2.705
0.01255
0.1207
0.4484
0.2196
6.612
0.5946
1.107
0.1574
13.5
0.4935
0.003484
0.2489
0.5582
0.04475
0.3549
0.03167
0.9196
1.448
5.322
0.2941
0.006043
0.9538
0.7093
1.514
1.509
1.651
0.7496
0.01739
0.1916
0.2999
0.4659
1.344
0.2415
0.08253
0.9499
0.129
3.275
1.576
0.00388
0.1642
0.01572
0.02643
0.4152
0.7306
0.7724
0.01822
0.6488
1.981
0.534
0.06912
0.6233
0.09911
1.724
0.002644
79.33
0.6341
1.859
0.000913
0.07164
3.81
0.02487
0.463
1.075
1.673
0.5263
0.7984
0.02694
0.6065
0.4862
0.9426
0.2901
0.8738
0.2287
0.2315
0.7851
8.384
0.01272
0.2991
0.5011
10.77
0.2862
0.07641
2.783
2.338
0.267
0.3647
0.3094
6.22
0.03483
0.248
0.4694
0.1389
0.351
0.4504
0.002051
1.93
8.73
0.4495
0.3409
5.718
0.8809
0.5493
0.01923
0.02416
0.09003
0.001066
37.94
0.5158
0.04471
0.01655
0.3637
8.138
0.04135
0.2032
1.696
0.5129
0.5835
1.272
16.76
0.9885
3.688
1.178
1.806
2.436
0.01775
0.3728
0.5372
0.4761
0.02328
0.1165
0.418
0.1957
0.472
26.02
6.682
0.09238
0.8894
3.375
0.1729
4.178
0.2046
0.4733
0.2714
2.77
3.935
0.01853
1.968
0.3664
0.0432
3.639
0.2207
1.045
0.07222
0.7604
1.314
0.5187
1.443
0.01402
0.01861
0.09505
0.3431
0.1716
0.3745
0.02005
5.502
0.1241
0.2406
0.719
1.814
0.1295
0.9877
0.00992
4.084
1.531
23.92
0.8823
0.07063
5.341
0.5875
1.06
9.4
0.1153
4.184
0.1012
0.1028
0.262
0.06693
0.01788
25.37
0.4955
1.971
1.031
0.8261
0.376
0.001549
22.39
0.03434
0.8222
0.1632
0.2052
1.517
0.2408
0.4012
0.7478
0.124
0.5659
0.008202
0.4591
0.9833
18.52
5.7
0.09105
0.2301
0.2622
0.1648
0.5342
0.7958
0.05389
0.03347
0.2928
4.814
0.003077
0.01221
0.2661
0.7559
0.139
12.11
0.1397
0.9985
0.449
0.3787
0.07035
0.1016
1.29
1.515
1.045
0.2959
3.915
0.09957
2.228
0.001468
1.587
14.72
0.03491
0.322
0.1923
0.9259
1.64
0.5771
0.08001
0.01034
0.8557
0.161
0.01681
1.552
3.598
0.1849
0.1567
0.0785
0.06704
0.02266
3.816
0.3081
0.02021
8.901
0.8867
0.5808
0.02215
0.03845
0.01585
0.04054
0.5655
0.1567
1.043
8.049
3.385
0.7988
2.946
3.885
0.01781
9.03
0.9633
0.9796
0.1232
0.1591
0.4372
1.062
2.075
4.622
0.5204
0.03373
0.3113
2.309
0.3534
0.9175
0.1179
0.3639
0.1566
1.726
0.001196
0.421
0.5777
0.5452
0.4366
2.258
10.19
4.638
0.01037
53.86
0.4392
0.1716
5.17
0.0291
0.8897
0.6716
0.006671
1.968
3.578
0.2052
0.5172
0.1289
2.806
0.01724
0.3076
6.064
0.2077
0.01656
1.6
0.2185
0.02904
0.2881
0.1571
0.5198
6.982
1.043
0.9135
0.2213
0.5135
1.048
0.01923
0.03252
2.852
0.4019
0.5543
0.06825
3.803
0.5339
0.2703
0.3431
0.2937
1.131
0.03423
0.05724
0.6003
0.5497
0.05173
0.624
1.59
0.1494
1.156
1.406
0.1535
0.04998
0.1317
0.2967
0.7526
0.5083
0.06472
0.9127
0.003101
0.2285
0.4406
0.1686
0.9877
0.4178
10.6
0.27
0.3599
0.01233
0.007272
0.2603
0.2726
1.77
4.699
0.3742
1.131
7.229
0.7721
0.4466
0.9219
0.7551
4.112
0.8499
0.03867
2.214
0.3677
1.3
0.2431
0.1954
0.2004
0.5714
0.03873
0.3512
0.1013
0.02206
0.08051
2.211
0.01466
6.792
1.489
0.5188
0.0178
0.6999
0.7961
0.001007
0.6022
0.9448
0.7481
0.4511
1.021
0.03388
1.373
0.1178
0.1674
1.094
6.765
0.4452
0.7496
3.835
0.00679
0.02525
0.6441
1.13
1.864
0.1933
1.573
1.296
0.2538
0.1582
0.01768
6.717
1.455
0.1239
0.2173
0.0165
1.168
0.08079
0.9548
0.9949
0.4709
0.0124
10.6
0.8523
0.01922
0.5948
1.231
0.07824
0.01101
0.01181
1.127
25.73
0.3549
0.1114
0.3183
0.07306
0.5558
0.4913
0.01343
0.4451
0.4186
6.389
7.116
1.319
0.01214
0.9022
0.4037
0.703
0.6994
6.297
0.7103
0.7625
0.6631
0.506
1.135
1.907
0.09989
0.001092
0.1018
0.03269
7.988
0.01736
0.1504
0.9421
0.3787
0.1581
7.016
0.6344
18.82
0.1888
15.64
0.4911
0.2
1.823
5.722
0.2069
5.06
14.08
0.02175
5.219
6.944
2.615
2.692
0.815
0.1669
0.3798
0.3893
0.4641
0.04511
0.357
0.1869
0.2695
0.1992
0.3045
0.5525
0.1663
0.1105
3.981
0.6648
30.44
0.3944
0.903
0.006036
1.473
0.5275
2.354
0.2263
5.194
1.1
0.5716
0.1041
4.53
0.1025
0.3678
0.3906
0.05469
0.2065
0.2623
0.3864
0.3052
0.4132
0.2218
0.6476
0.2242
5.55
0.3966
3.351
0.04765
0.2985
0.3523
0.1658
0.04129
7.665
0.02008
0.01452
0.02115
0.2465
0.4751
0.4944
0.06231
0.2186
0.2228
0.05475
5.648
2.933
3.867
0.536
0.06459
1.109
22.15
0.06382
0.8849
0.03232
0.6215
0.118
0.5166
0.174
0.01096
0.008771
0.7205
0.1399
0.04621
9.312
0.5493
0.05484
0.02653
0.3353
0.03185
1.978
2.952
0.004825
0.6278
0.5321
4.755
2.056
10.62
1.605
0.1067
0.2863
0.6543
0.2303
1.219
0.9776
0.7635
1.328
0.3439
3.915
0.01902
0.9454
1.088
10.57
0.04004
0.2289
0.02235
0.2705
0.2479
1.032
0.7914
0.5585
6.247
0.1409
1.259
10.6
0.7441
2.52
1.043
0.2891
0.2658
0.4496
1.195
0.1892
1.585
0.002978
4.171
5.183
1.498
0.2698
0.5148
3.644
0.7216
0.2461
0.04425
63.95
0.3366
0.0007696
0.00138
0.00304
0.7197
8.565
0.1959
26.86
0.5425
0.001084
0.7852
0.4929
0.3452
0.9092
58.97
2.539
0.288
7.419
0.2271
0.4002
7.93
0.2577
0.3863
0.1591
1.519
0.212
0.2448
0.2407
0.9002
0.1968
0.7539
1.081
0.1871
3.55
0.5561
0.06156
5.106
0.2543
10.39
0.5856
0.008231
0.1094
1.176
0.02264
0.2366
4.424
2.868
0.1569
0.01206
0.1387
0.2483
0.2489
0.04996
0.8983
0.009854
0.8613
0.4021
0.4929
0.4016
0.967
0.9363
1.269
4.973
0.4861
0.3431
0.02788
12.17
0.04189
0.001374
0.3996
0.01815
3.059
0.1489
2.93
0.04482
1.314
0.3062
0.6939
0.8987
0.09312
0.3384
0.2059
1.098
1.548
0.4702
0.06874
0.01617
0.4119
1.234
0.08772
0.2521
0.7049
0.6926
1.357
0.007695
0.2294
1.265
3.711
0.5534
0.3356
1.382
0.6524
0.01993
0.2207
25.63
1.127
0.04671
0.1477
0.5919
0.1026
0.4965
1.749
0.6918
0.04695
0.05297
0.1162
0.01386
0.01312
0.02445
0.1311
17.96
1.446
0.1386
0.471
0.1957
0.07233
0.1591
0.2201
0.7206
0.04672
0.03275
1.285
0.08068
0.02139
0.7576
0.5166
0.1161
3.878
5.353
0.02084
0.2837
0.293
0.708
0.4294
0.9816
0.1633
0.8216
3.358
0.4816
5.737
0.1592
1.961
0.3159
0.6463
0.2937
12.07
0.06308
18.59
0.7076
0.02178
0.02866
0.00415
0.3898
0.271
3.164
2.799
3.031
0.07812
0.01053
1.152
1.472
0.1726
0.01723
1.212
0.1709
1.937
0.5143
10.9
2.252
1.519
1.691
0.5075
0.1028
1.618
0.5817
0.2828
0.3265
0.05631
0.016
0.1977
0.2345
1.34
6.644
0.3351
0.02984
1.587
0.07028
0.1253
0.01776
3.402
0.4547
1.091
1.039
0.4213
0.277
0.2582
0.1755
0.1925
0.5762
0.1755
0.1331
0.04201
0.2699
11.6
0.1149
0.4582
19.34
0.005872
0.02122
0.2097
0.0244
0.05712
3.788
0.06529
0.06519
0.6955
0.01294
0.2802
1.076
0.7151
0.1618
0.1449
0.03383
0.05188
0.312
0.5697
1.919
5.86
0.2863
0.004783
0.1316
0.9346
1.661
0.07922
0.04714
0.0414
3.565
0.12
0.07077
0.2664
0.7536
0.06816
0.02626
0.9267
0.01189
0.01858
0.01126
3.93
0.05574
0.6368
0.1376
0.02575
0.05906
0.1557
0.1868
1.443
0.1778
0.3669
0.3423
0.106
7.614
0.2814
1.49
0.03743
0.4319
0.3916
0.5445
0.4982
0.1983
0.4843
0.3001
0.1508
0.7399
0.06592
75.82
0.5915
14.29
0.103
3.602
0.01979
0.04449
0.361
0.9713
0.1511
0.4023
0.14
0.001439
20.17
0.001425
0.6586
27.46
0.1266
0.2664
0.002061
6.169
0.01776
0.1898
0.2177
0.6046
0.6571
0.01649
25.31
0.03002
0.3607
1.246
0.6687
0.6943
14.42
0.4854
11.69
0.3878
0.01425
0.2051
1.545
0.02041
0.0835
2.317
0.1609
18.45
2.343
4.541
0.02649
0.3115
0.02555
0.01605
0.02514
2.759
0.1434
0.1896
0.001144
0.2852
0.2243
0.9513
0.5403
11.33
0.01766
0.8694
3.553
0.5331
0.1274
0.1844
0.03331
0.344
0.005848
0.2794
0.9456
0.0162
0.5653
19.32
0.4029
1.992
0.2455
5.188
2.475
0.5111
2.009
5.656
0.7169
2.395
0.6886
0.2411
0.9316
0.3378
0.3938
0.5657
0.743
0.003764
0.6849
0.002589
1.74
13.47
0.4742
0.6677
12.58
0.1967
0.409
0.001238
0.672
0.3091
26.46
0.167
0.01155
0.2208
0.5586
0.5651
0.001196
0.693
0.5584
0.271
0.267
3.373
2.089
14.3
0.455
0.8428
0.5273
0.174
0.5813
0.02038
2.787
1.363
0.01826
0.2708
0.2813
0.54
1.2
1.77
0.05825
3.825
4.801
0.07866
1.031
3.28
3.672
1.417
0.004777
0.001878
0.8255
0.4427
0.3933
0.01225
3.589
0.4782
2.065
7.738
0.00774
0.5604
2.519
0.264
17.15
0.5536
0.6638
0.8226
0.2024
0.6558
0.01818
0.3507
14.2
0.3912
0.6292
0.1939
0.2135
0.009637
0.002932
0.5251
0.4337
0.2459
1.075
0.2928
0.01552
1.013
1.081
0.1632
1.603
29.74
1.715
0.001143
0.1432
0.02023
0.6111
0.9343
1.19
2.722
1.9
2.255
0.02847
0.9447
0.03094
0.1312
0.8727
0.3072
3.927
0.6336
27.08
0.04054
0.7737
1.917
0.01755
0.4922
0.3133
4.965
0.133
0.03783
0.01596
0.003865
0.32
0.01532
0.2611
1.172
0.2311
0.241
0.5642
0.04732
0.445
0.1495
0.003615
2.339
1.1
5.193
0.5524
0.01707
1.414
1.784
0.02079
3.084
0.173
1.608
0.3712
14.71
0.3126
2.962
0.1501
0.17
0.04183
0.1907
0.04363
0.06247
2.919
0.3974
0.5011
0.3905
0.4447
0.5722
0.01903
0.06054
0.07051
0.3223
0.2543
0.6927
9.281
0.1122
0.02258
1.689
0.1165
3.094
0.01164
0.665
1.224
0.1737
0.151
1.456
0.852
0.8204
0.3065
0.7563
0.01612
1.451
0.1855
0.3962
0.9038
7.587
1.567
0.0742
0.2825
0.2925
0.1679
36.74
0.01598
1.081
0.4149
0.2045
0.2918
0.3067
25.27
0.338
6.254
1.029
18.38
0.2977
0.2582
5.458
1.305
0.02312
0.5964
0.2043
0.8247
0.7469
0.1669
3.34
0.001286
0.6938
3.223
1.601
0.9454
2.231
2.227
0.02046
0.9535
0.9636
0.6231
0.124
0.05041
0.6217
0.3187
0.7812
3.018
0.01015
0.4369
0.1758
0.2357
0.2673
1.391
1.363
0.2591
1.358
1.807
0.006694
0.3221
0.2575
10.82
1.2
5.622
0.3487
0.3311
0.2253
0.1135
0.5757
0.8758
5.619
1.988
4.936
28.88
0.3789
0.1133
8.211
1.269
1.706
0.001165
3.048
6.809
1.18
0.4184
0.01548
1.741
0.02492
0.2566
1.593
0.3994
0.9139
0.1524
1.537
0.2424
4.399
0.2343
0.8354
0.7085
5.567
1
0.7967
0.2978
0.1937
9.419
0.1492
7.423
0.2977
0.3662
0.02788
7.555
0.1596
0.05709
0.01872
0.2639
0.5993
0.03002
0.006623
0.01777
0.5811
2.224
25.28
0.08112
0.001947
0.4375
0.006334
0.004797
1.103
0.0007558
0.4045
8.909
0.04991
0.9798
0.5239
0.9992
0.1271
0.5506
0.06384
0.4423
0.2025
7.998
0.2891
0.5034
0.8946
1.583
0.08978
0.001949
0.1348
1.744
0.0191
0.1176
0.5409
1.57
7.259
0.4056
0.4049
1.531
0.01533
0.3597
0.9244
0.5979
0.4374
0.3628
0.0006105
0.3817
0.3313
0.9848
0.5299
0.6
0.001487
1.846
0.4721
0.00127
0.2393
0.0005833
0.9196
0.01824
14.17
9.984
0.0255
0.5726
0.64
0.1045
6.893
1.278
0.01577
1.49
0.2894
0.561
2.343
0.04052
0.08279
7.655
0.3385
0.5928
0.156
0.3241
0.1893
0.2476
0.4884
0.001192
0.2712
1.01
0.2949
0.2641
0.2011
1.33
0.2919
0.3004
1.565
0.3532
0.2129
2.917
0.03123
0.1959
3.205
0.1897
0.04386
0.206
0.4527
1.339
0.4687
0.4798
6.72
0.2289
0.6734
0.341
0.003949
0.2435
2.158
0.2026
1.195
0.03985
1.42
0.1329
0.3553
0.08648
0.142
2.415
1.132
0.231
0.4947
8.058
0.3886
0.008637
0.01417
0.224
1.886
1.979
0.3548
0.3018
0.1533
0.6536
0.1019
0.1577
15.83
0.1577
0.1475
7.773
0.7273
0.2819
0.2189
0.06008
78.87
0.01528
0.3022
0.6973
0.3483
0.4028
0.3722
2.248
0.1801
0.7514
0.09286
74.94
1.014
0.1969
84.14
6.163
1.329
0.9062
0.003015
0.1461
0.08614
3.776
0.04084
1.593
14.38
0.06829
0.8573
0.2713
0.2895
6.603
0.8117
7.223
4.3
0.5121
0.007535
0.007601
0.02473
0.7241
12.43
0.2555
0.0161
0.07613
5.623
0.6586
7.134
0.3199
0.0146
64.21
0.05107
0.1924
0.1686
0.03503
0.306
0.1764
0.1976
0.0635
2.53
0.2073
0.4804
0.4138
48.22
0.194
1.465
0.6622
0.141
0.09464
50.3
1.418
4.998
0.3377
0.7464
3.289
3.114
0.09818
0.2077
0.7497
0.6137
1.827
0.002189
12.72
0.2582
5.519
0.2103
0.03393
0.05861
0.01491
0.7482
0.3143
0.4104
0.4279
0.2305
3.381
0.7053
0.1863
0.1167
1.667
0.1136
0.9169
1.539
1.289
0.1834
0.06325
0.2774
0.287
0.5172
0.1296
0.6782
1.476
6.25
0.3212
0.2916
2.056
0.3836
2.404
0.222
0.7911
0.1072
4.23
2.174
1.423
0.2239
2.931
0.06248
2.626
1.437
0.4516
0.2975
0.3033
0.815
1.008
0.2565
0.4224
0.3118
2.29
26.76
0.003001
0.03236
0.01247
0.4855
0.842
0.4227
3.871
2.208
3.94
1.666
0.5492
1.998
4.048
0.2218
1.075
1.726
0.6909
6.015
0.01727
10.47
2.377
2.473
0.08593
2.242
0.5043
0.6159
1.411
2.202
0.01554
0.0707
0.6045
2.853
0.005167
0.574
0.0938
0.4801
237.3
0.001281
0.1984
0.1349
0.7114
0.9024
0.1943
0.5727
1.388
0.7963
2.435
0.9377
0.04418
0.1617
2.192
0.02127
0.01727
7.564
3.725
0.5127
0.5365
0.06524
0.5574
1.243
0.8468
2.133
0.556
0.0366
0.7528
0.1722
0.1643
0.01122
0.8271
0.006333
68.27
0.7564
1.182
0.1284
12.61
0.01342
1.42
0.005135
0.1048
4.552
0.2399
8.372
0.153
0.06622
0.5521
0.5207
0.2417
0.4753
0.2784
1.066
2.18
0.731
1.15
2.256
6.544
0.6852
0.4219
0.7623
6.034
0.741
0.4363
0.1713
0.008549
29.89
0.4685
0.5149
7.449
0.01701
2.209
0.1395
0.00826
0.1798
88.17
0.1267
0.8676
17.14
0.06423
1.123
0.8373
0.2107
0.1338
0.5074
16.12
2.391
0.02229
6.361
23.44
0.07585
0.01633
0.783
1.678
0.7092
1.72
0.5907
3.33
0.01739
0.8327
0.1587
3.663
1.528
7.812
0.00829
0.008373
0.1619
1.185
0.03356
0.1732
0.2171
4.039
0.2674
0.2802
1.327
0.0833
0.01834
7.35
3.729
4.603
1.98
0.04125
0.4818
0.002811
0.4846
9.238
0.5455
1.406
4.039
0.9921
1.109
1.173
0.5644
0.4865
0.0212
0.01717
0.02002
0.1696
0.8687
0.966
6.082
0.7227
0.01794
0.5242
0.9076
2.145
8.2
0.599
0.5652
2.047
2.511
0.0798
0.3557
0.2279
1.65
0.07763
2.111
0.2125
0.3736
0.7781
2.18
0.004534
0.01519
3.558
0.2728
0.1415
0.2981
9.562
0.4807
0.004909
0.3853
0.3812
0.5531
0.4496
1.727
0.5033
1.141
5.688
0.08996
0.0005934
0.4664
0.0583
0.1126
0.06676
8.771
0.2377
1.443
0.3205
0.3343
0.7701
0.02503
1.623
1.491
0.4392
0.2677
1.979
22.17
0.03256
0.01658
1.988
0.3408
0.5489
0.2198
0.1249
1.362
0.04826
0.02924
0.6447
2.26
0.01982
1.272
1.004
0.01325
3.859
0.0364
0.2566
0.445
2.215
0.2043
14.96
0.8251
0.4501
0.03642
0.01543
0.2494
0.3178
0.3771
0.1816
0.007328
0.007087
0.02053
0.3476
0.5061
1.722
0.0007055
1.143
0.2483
1.124
0.4793
2.915
0.1399
0.03268
2.727
0.01771
5.303