/*--------------------------------*- C++ -*----------------------------------*\
  =========                 |
  \\      /  F ield         | OpenFOAM: The Open Source CFD Toolbox
   \\    /   O peration     | Website:  https://openfoam.org
    \\  /    A nd           | Version:  8
     \\/     M anipulation  |
\*---------------------------------------------------------------------------*/
FoamFile
{
    version     2.0;
    format      ascii;
    class       volScalarField;
    location    "15";
    object      nut;
}
// * * * * * * * * * * * * * * * * * * * * * * * * * * * * * * * * * * * * * //

dimensions      [0 2 -1 0 0 0 0];

internalField   nonuniform List<scalar> 
127143
(
8.327e-09
4.863e-10
5.064e-10
1.319e-09
4.003e-06
1.261e-09
2.978e-06
7.155e-06
4.24e-06
3.165e-06
2.387e-06
6.051e-06
1.789e-09
1.605e-09
0.0009178
6.86e-06
3.796e-08
0.03941
0.01939
5.703e-06
0.004948
8.452e-06
0.06143
0.0009128
8.149e-06
9.069e-05
6.149e-05
5.181e-05
8.532e-05
0.05419
0.000508
8.795e-05
4.459e-05
0.0001012
0.1566
4.496e-05
0.001906
0.01466
0.001329
9.831e-05
0.01943
0.01482
0.0175
2.273e-08
0.03801
0.0001059
8.886e-05
0.00479
0.00111
0.001146
7.223e-06
0.4062
0.004842
0.04041
0.5091
0.0005479
0.5054
0.02797
0.4797
0.041
0.01804
0.01325
0.003492
0.6153
0.0004596
0.01801
0.149
0.003062
0.00317
0.4001
0.0007217
6.576e-05
0.01122
0.4857
0.5791
5.868e-05
0.539
0.002736
0.0005683
0.6344
9.781e-05
7.039e-06
0.0003249
0.0001446
0.006029
0.003236
0.001814
5.127e-05
0.01908
0.001289
0.4404
0.04355
0.001861
0.005023
0.001894
0.03947
0.01559
0.0003062
0.004533
0.1529
0.6353
0.001224
0.0005293
0.01227
0.003424
0.004335
0.003077
0.401
0.009074
0.5105
0.001014
5.171e-05
0.003257
0.005266
0.5746
0.01367
0.534
0.5792
0.5418
3.528e-06
0.5133
0.0003729
0.003292
0.04093
0.0001024
5.15e-05
0.00937
0.4942
0.002637
0.0005246
0.002015
0.001712
0.005414
0.00282
1.137e-06
0.002108
0.1955
0.006631
0.0001925
0.2063
0.04283
0.5562
0.006626
0.009517
0.00496
0.004018
0.0001772
0.6205
0.001625
0.000384
0.009842
0.001328
0.0161
0.07168
0.002216
0.006222
0.028
0.000499
0.004917
0.0002222
0.0007719
8.208e-06
0.4296
0.002016
0.0001781
0.0005645
0.001517
0.01459
0.0005286
0.4223
0.0002049
0.009493
0.01169
0.00495
0.3655
0.001559
0.004308
0.002651
0.001169
0.2939
0.00497
0.2027
0.001491
0.001582
0.0005625
0.01372
0.05724
0.00549
0.00106
0.3204
0.003597
0.002024
0.2027
0.00254
6.991e-07
0.009481
0.5573
0.5572
1.132e-06
0.5712
0.5687
0.409
0.1103
0.002087
7.755e-09
0.002232
0.1227
0.0066
0.0594
0.5748
0.08394
0.004345
0.5631
0.0005455
0.001286
2.452e-06
8.283e-05
0.006226
0.002503
0.1238
0.00477
0.5835
0.001253
0.005347
0.0001964
0.0001818
0.0002822
0.0151
0.0004219
0.006606
0.004602
0.211
0.0121
1.303e-06
0.004667
0.06785
0.002024
7.686e-07
0.5686
0.004347
0.002134
0.0007283
0.00283
0.0005233
0.009419
3.749e-06
0.001981
5.597e-05
2.936e-06
0.4154
0.008679
9.912e-05
0.005164
0.006664
0.0009123
0.00879
0.4961
0.0007227
0.00761
0.1046
0.009506
0.3132
0.04512
0.557
0.006012
0.000662
0.0006856
0.001649
0.01283
0.01421
0.0002259
0.3663
0.006052
0.004245
0.004942
0.003741
0.003329
0.001538
0.3149
0.007596
0.4265
0.03537
0.01279
0.5761
0.5743
6.377e-07
0.001852
0.5742
0.001424
0.2821
0.01675
0.02892
0.06893
0.01015
0.5329
0.006829
0.0005333
0.000299
0.002835
0.01483
0.0002983
0.0201
0.02115
0.01438
0.0001683
0.003016
0.006808
0.5627
0.02223
0.006942
0.002731
0.0001522
0.0004387
0.4317
0.5729
0.001876
0.01206
0.0002853
0.05783
0.1603
0.06457
0.0006319
0.3773
0.005115
0.001813
0.009556
0.2744
0.0001822
0.0006798
0.004659
0.009206
0.5743
0.1605
0.5386
0.5385
0.07536
0.009084
0.01195
0.009161
0.00168
0.2129
0.006197
0.005645
0.003925
0.005472
0.001362
0.0007143
0.002702
0.0003422
0.002214
0.0003927
0.02439
0.001556
0.003809
0.3637
0.000825
0.00655
0.004601
0.4027
0.0006403
0.007475
0.003863
0.05174
0.001175
0.001197
0.5907
0.5715
0.2086
0.0003784
0.3125
0.01003
0.374
0.0001725
0.001098
0.3348
0.1075
0.0006332
6.046e-06
0.005072
0.3108
0.03722
5.849e-05
0.0004797
0.01937
0.5378
2.029e-05
0.2158
0.0001109
0.00899
0.02088
0.518
0.02735
0.0002977
0.0009254
0.001032
0.0004919
0.02714
0.0005975
0.3643
0.3242
0.0001137
0.5842
0.005236
0.001584
0.2133
0.007814
0.003808
0.005244
0.6365
0.001334
0.00426
0.0003637
0.04392
0.005618
0.003587
0.001984
0.003592
0.0001873
0.0138
0.001402
0.001615
2.894e-05
0.001005
0.4155
0.006376
0.08568
0.01902
0.06063
0.0008459
0.09952
0.499
0.00103
0.001388
0.06693
0.006522
0.5906
0.006586
0.0008379
0.4139
0.5376
0.5732
0.001304
0.1895
0.008209
0.5002
0.0003383
0.5712
0.001485
0.2063
0.004357
0.004799
0.0006239
0.008582
0.0003385
0.2059
0.002285
0.0002509
0.00105
0.002733
0.01638
0.00583
0.004152
0.01615
0.007184
0.00396
0.3782
0.5644
0.005218
0.000574
0.4411
0.005682
0.04227
0.04157
0.0125
0.1496
0.3829
0.002426
0.04405
0.0003317
0.007205
0.0001164
0.001606
0.001071
0.0004508
0.005211
0.00674
0.008421
0.5661
0.000301
0.5497
0.002408
0.002033
0.004271
0.004018
8.056e-08
0.001674
0.007707
0.06158
0.006495
0.5683
0.0001147
0.564
0.002197
0.009962
9.907e-08
2.292e-06
1.106e-06
0.5882
0.0008546
0.003142
0.5732
0.008897
0.0028
0.001886
0.01093
0.004615
0.0006003
0.005735
5.858e-05
0.3856
0.003468
5.691e-06
0.001162
0.0003226
0.0002361
0.4947
0.01031
0.1181
0.01683
0.3732
0.0002503
0.0002855
0.0003069
0.4457
0.005163
0.06126
0.000142
0.004522
0.000342
0.0198
0.5408
0.000657
0.00538
0.4487
0.01943
0.01502
0.0006277
0.001241
0.0005141
0.0002544
0.009321
0.009994
0.001684
0.001992
0.001112
0.5375
0.0001351
0.002328
0.0003176
0.004685
0.003368
0.6171
0.6087
0.1125
0.0006734
0.005866
0.5724
0.3413
0.00687
0.0007462
0.00372
0.005104
0.0001724
3.811e-05
0.01093
0.5511
0.4921
0.0003028
0.004777
0.003683
0.4338
5.988e-05
0.005754
0.001307
0.3148
0.0001678
0.5723
0.004076
0.001853
0.02199
0.3017
0.0006151
0.009548
1.989e-05
0.3825
0.003294
8.441e-05
0.5728
0.007986
0.5732
0.001829
0.008563
0.5761
0.0004367
0.0007565
0.0001351
0.00238
0.007477
0.0004269
0.0005107
0.003483
0.001496
0.002037
0.001246
0.001413
0.004951
0.0002087
0.4445
0.0004998
0.5743
0.005988
0.4979
0.006865
0.4887
0.5742
0.02574
0.001451
0.003591
0.4645
0.5348
0.0004671
0.0001644
0.0004638
0.0003439
0.009328
0.008361
0.004826
0.004093
0.004019
0.0007613
0.0004112
0.4634
0.001461
0.004333
0.02047
0.02214
0.4092
0.3394
0.009923
0.0002482
0.008437
2.627e-05
0.5018
0.3015
0.001591
0.00123
0.42
0.0004599
0.04706
0.1013
0.0004224
0.00786
0.004486
0.05269
9.107e-08
0.0002035
0.002823
0.00227
0.001896
0.001714
0.0002115
0.0009791
0.4432
0.002879
0.0005418
0.005422
0.5248
0.001698
0.02187
0.02709
0.4513
0.5247
1.452e-05
0.06083
0.0007273
0.00202
0.002035
0.02206
0.02122
0.000252
0.05729
0.0009543
0.5662
0.4791
0.0076
0.08633
0.0004575
0.02771
0.0003215
0.009807
0.001025
0.0877
0.05329
0.3033
0.0003742
0.1474
0.000818
8.68e-07
0.005249
0.006312
0.00535
0.3044
0.003926
0.001205
2.942e-05
0.0301
0.01222
0.004034
0.0004539
0.003523
0.00127
0.01626
0.001122
0.003296
0.007273
0.009664
0.02668
7.676e-08
0.02144
0.4284
0.002602
0.002546
0.002091
0.5626
0.0009935
0.02498
0.003815
0.3116
2.601e-05
0.001121
0.0001621
0.3581
0.0008838
0.001499
0.0009703
0.001883
0.3485
0.005102
0.0002552
0.0004264
0.006323
0.5703
0.00569
0.002114
0.5535
0.006306
0.01512
0.001835
0.001708
0.0211
0.005057
9.189e-05
0.0008203
0.3798
0.005041
0.012
0.0001056
0.0004134
0.03918
0.009151
0.0002808
0.4006
0.002012
0.0004329
0.007231
1.307e-06
0.007345
0.0003253
0.00382
0.003066
0.009955
0.5903
3.162e-08
0.002055
0.002524
0.0001656
0.003396
0.0007835
0.001278
0.0008582
0.4972
0.02638
0.0118
0.3124
0.001029
0.002451
0.002961
0.003362
0.4263
0.005081
0.001447
0.5664
0.4102
0.02211
0.01271
0.009332
0.0007848
0.004118
6.957e-06
0.009825
0.02998
0.5279
0.003213
0.001722
0.0005523
0.0002209
0.01543
0.4247
0.5023
0.07869
5.655e-05
0.5269
0.09603
0.0003645
0.003889
9.302e-05
0.4518
0.002898
0.003806
0.581
0.0003567
0.5156
0.002124
0.0002901
0.001333
0.008594
6.474e-05
0.4629
0.0004503
0.04561
0.0002698
0.0003716
0.0001929
0.0003858
0.03958
0.01832
0.01078
1.259e-05
0.5785
0.02045
0.0007111
0.001005
0.0005292
2.253e-05
0.4276
0.1101
0.0002959
0.0001102
1.414e-05
0.002717
5.224e-06
0.00131
1.069e-05
0.001712
0.0002026
0.02712
2.364e-05
0.5408
0.002517
0.2916
0.2936
0.005881
0.4549
0.002541
0.01475
0.005437
0.01965
0.2706
0.001493
0.002343
0.5193
0.0349
0.002091
0.2817
0.0004027
6.697e-06
0.001594
0.006265
0.0009876
0.01199
0.0005598
0.571
0.00438
0.0008505
0.4131
0.0005286
0.002334
0.01465
0.4259
0.149
0.03916
4.146e-06
0.007379
6.888e-06
0.005864
0.003569
0.002941
6.913e-05
0.001091
0.2928
0.0002066
0.02076
0.2918
0.007615
5.88e-06
0.02937
0.0008959
0.01002
0.01244
4.296e-05
6.378e-06
0.0009036
0.5526
0.5823
0.006585
0.005685
0.001418
0.0004676
0.003849
0.0002119
0.0008859
0.09031
0.0002095
0.1895
0.0001212
0.5659
0.004696
7.814e-05
0.00705
0.00108
0.004728
0.5776
0.5635
0.0002167
0.03569
0.0008882
0.001011
0.0004567
0.006513
0.009508
0.002391
0.001418
1.518e-05
0.005226
0.0004173
0.0003738
0.008331
0.00757
0.002682
0.0008417
5.326e-05
1.246e-05
0.004545
0.5625
0.5522
0.005933
0.002983
0.01836
0.6139
0.003848
0.004784
0.02409
0.000569
0.01039
0.0006392
0.008029
0.6368
0.02667
0.02357
7.372e-05
0.0001767
0.001394
0.02179
0.02234
0.0004256
0.0009669
0.00609
0.01146
0.003016
0.001949
0.001529
0.0001889
0.4185
2.042e-05
6.235e-05
0.01236
0.002531
0.0009115
0.5726
1.605e-05
1.522e-05
0.4232
0.6045
0.003807
0.004013
5.606e-06
0.0004299
0.002677
0.0009516
0.0004597
0.02516
0.02397
0.4056
0.0003769
0.004955
0.0007243
0.01049
0.000121
0.002667
0.4508
1.69e-05
0.001126
0.5685
0.001138
0.4301
0.5679
0.00634
0.05669
1.713e-05
0.5623
0.0003629
0.5805
0.002192
0.06801
0.03605
0.01081
0.0005556
0.0007675
0.0003875
0.004867
0.384
0.185
0.007191
0.001629
0.0007498
0.0005793
4.473e-05
0.0004075
1.106e-05
0.002222
0.0008956
0.0008467
0.000709
9.275e-05
0.03651
0.02901
0.3406
0.0007042
0.0008275
0.0002253
0.3795
0.001028
0.00751
0.002908
0.002453
0.003431
0.01838
0.0002518
0.01334
0.002958
0.0007449
0.0004796
0.0003596
0.4577
0.006804
0.0007328
0.4948
0.001145
0.0005568
0.6385
0.01117
0.0005814
0.2152
0.03647
0.01309
0.0002577
0.03884
0.5476
0.001129
0.000959
0.5565
0.04772
0.3402
0.004835
0.0008613
0.00801
0.2976
0.0002227
1.808e-05
0.0005384
0.001115
0.0074
2.374e-05
0.3977
0.001701
0.577
0.00297
0.00464
0.001461
0.002406
0.0002003
7.205e-05
0.5959
3.032e-06
0.0001857
0.0002446
0.004036
0.0008221
0.01227
0.0317
0.0001448
0.003417
0.267
2.778e-06
0.002311
0.000932
0.0003322
0.001542
0.001891
0.0003919
7.378e-05
0.002792
0.001592
0.008359
0.0006069
0.0008122
0.02845
7.491e-06
0.06031
0.00222
0.06343
0.0004657
0.5488
0.567
0.01085
2.205e-05
0.004472
0.173
1.617e-05
0.0002872
0.5796
0.0002012
0.002605
0.009568
1.359e-05
0.009619
0.001538
3.006e-07
0.03506
3.58e-05
0.007775
0.003149
0.0001119
0.0009529
0.0002187
0.005104
0.001038
0.08279
0.05832
0.01392
0.001359
0.006883
0.00257
0.009017
4.905e-05
0.005221
0.0297
0.006097
0.01479
0.02287
0.007572
7.749e-06
0.2168
0.0001036
0.0001152
0.00129
0.002126
0.5802
0.009558
0.003119
0.0218
0.0001025
0.0003555
0.0001507
0.5165
0.0007402
0.0002122
0.003479
1.842e-05
0.004501
0.02419
0.0003856
0.5553
0.0003212
0.001611
0.0001242
0.001539
0.1098
0.006891
0.4822
1.181e-05
1.858e-05
0.002512
0.01897
0.007147
0.4247
0.4563
0.0004845
0.003274
0.01686
0.1091
0.3335
0.3317
0.006707
0.003217
0.01932
0.001503
0.001117
1.513e-05
0.01398
0.0001917
0.001203
0.0008424
0.4785
0.0005271
0.007913
0.003208
1.426e-05
0.0153
0.01466
0.001581
0.003997
0.004438
1.214e-05
0.03928
0.002686
0.008332
0.01417
0.01305
0.001288
1.177e-05
0.06672
0.0002528
0.5366
0.0008813
0.001001
0.4915
0.0007482
0.004882
0.001895
0.0006348
0.5532
0.01373
6.909e-06
0.5725
0.001222
0.0004055
0.002893
0.0002231
0.01727
0.01286
0.0003403
0.0001622
0.001963
0.001338
0.114
0.002604
2.299e-05
0.0002903
0.002367
0.002017
0.5714
0.002534
0.0239
0.0002671
0.002296
0.0119
0.001969
0.4751
0.01309
0.0008468
0.3566
0.00993
0.4338
0.0004207
0.009418
2.482e-05
0.001098
0.006005
0.0008491
0.003597
0.001537
0.0008759
9.211e-06
0.002003
0.00112
0.007109
0.004612
0.006213
0.6148
0.001411
0.5614
0.008196
0.5992
0.006848
0.5558
0.00197
0.001329
0.6118
0.5643
0.000353
0.07249
0.0002535
0.05956
0.6317
0.00533
0.003249
0.2883
6.069e-07
8.217e-05
5.962e-06
0.00171
0.005041
0.0009065
0.001752
0.001166
0.06856
7.863e-05
0.002886
0.0002122
0.0006314
0.002955
0.005046
0.01987
0.56
9.135e-06
0.002577
0.0001718
0.5793
1.494e-05
0.001568
0.0008465
0.001081
0.3841
0.3787
0.07355
0.03921
0.06346
0.01091
0.003622
0.01537
0.01167
0.1441
0.01252
0.0002293
0.006224
0.03472
0.004101
0.0129
0.000409
0.000366
0.002985
0.0008207
0.005659
0.5552
0.0008537
0.0007873
2.773e-05
0.005592
0.2081
0.003157
0.1968
0.001974
0.001461
0.0003307
0.05609
0.5658
0.003616
0.003611
1.191e-05
0.0001896
0.01796
0.00209
0.0001954
0.09275
0.3426
0.00104
0.0006181
4.721e-06
0.121
7.398e-06
0.001354
0.5616
0.001647
5.943e-05
0.01097
0.04818
0.007308
0.0003605
0.003851
0.003305
0.002966
0.0004776
0.1652
0.00128
0.000225
0.0003557
0.3986
0.3983
0.0006539
0.007397
1.073e-05
0.003298
0.0002686
0.0002677
8.987e-06
0.2104
0.0006916
0.4776
0.5689
0.5596
0.005309
0.4636
1.578e-05
0.5742
0.0002072
0.02492
0.003352
0.004625
0.0004261
0.4121
0.000191
0.05778
0.001815
0.005144
2.674e-05
0.4245
0.001596
0.0003471
0.00589
8.101e-05
0.0002255
0.003688
0.001067
0.0008023
0.142
0.4126
3.517e-05
0.3808
0.6319
0.02489
7.834e-05
0.4341
0.0001099
0.5838
0.004663
0.007061
0.0077
0.002427
0.4954
0.004543
0.0004527
0.0003212
0.09656
0.00853
0.03437
0.5745
0.542
0.003842
1.146e-05
0.004747
0.002949
0.4833
1.034e-05
0.02465
0.07199
0.3732
0.01033
0.001166
0.0004606
0.4631
0.00153
0.5518
0.003592
0.626
0.02086
0.002
0.001585
0.005986
0.0003677
0.001151
0.5366
0.007183
0.0001219
0.0005496
1.582e-05
0.0001947
0.01854
0.226
0.007243
0.0001593
0.005921
0.001373
7.922e-06
0.4074
0.0594
0.5648
0.002556
0.001583
0.003993
0.5806
8.087e-05
0.5731
0.03714
0.00112
0.5111
0.02083
0.02664
0.003468
0.007056
0.2134
0.0008086
0.5892
0.0009653
0.0002203
0.01075
0.01866
0.00172
0.2513
0.00951
0.001619
0.0004282
0.002602
0.001824
0.0003485
0.002589
0.001821
0.0002757
0.1476
0.04758
0.002443
0.2236
0.001192
0.004337
0.05771
0.003108
0.4949
0.3171
0.0001316
0.03897
0.009241
0.001378
1.618e-05
0.001897
1.772e-05
0.01797
0.4172
1.834e-05
0.002062
0.06219
0.000746
0.3258
0.007523
0.6394
0.01136
5.04e-05
0.007416
0.004652
0.003454
0.002031
0.5855
0.003569
0.02178
0.005501
0.000479
0.4251
0.002706
0.0001252
0.5656
0.4581
0.001301
0.3947
0.005058
0.009623
0.01125
0.003683
0.01903
0.003931
0.4172
0.03121
0.002537
0.4604
0.03357
0.0007002
1.314e-05
0.6051
0.0006428
3.719e-05
0.02076
0.001063
0.01042
0.001776
1.343e-05
0.3661
0.4137
0.001066
0.4352
0.0003575
0.00436
0.003669
8.131e-05
0.001275
0.4432
0.001545
2.154e-06
4.116e-06
0.0006779
0.000981
0.001231
0.02094
0.005402
0.009172
0.003063
0.0002073
0.0005569
0.0005035
0.001591
1.202e-05
0.004115
0.01577
0.571
0.001173
0.01682
0.002931
0.0313
0.1968
0.002153
0.0006925
0.02481
0.6088
0.0007612
0.0001946
0.01199
0.0008981
0.006137
1.549e-05
0.001115
0.4209
0.001007
5.029e-05
0.004717
0.002548
1.005e-05
0.3694
0.0001903
0.0008853
0.001757
0.3
0.004284
0.008105
0.0002969
0.0009523
0.00557
0.000178
0.4439
0.007351
0.001575
0.1196
0.00706
0.555
0.0005656
0.0003615
0.001862
0.0002346
0.0001835
0.003646
1.655e-05
0.4161
0.001168
0.00594
0.0108
0.2474
0.02326
0.006037
0.004452
0.002338
0.4167
0.002725
6.373e-06
7.2e-05
0.001797
0.01942
0.01643
0.01342
0.5685
0.4456
0.003129
0.02479
0.4923
0.003298
0.002113
0.001017
0.0008321
0.006868
0.00159
0.01067
0.0008187
1.097e-05
2.023e-05
0.06737
0.002791
7.076e-06
0.01068
0.0001115
0.03144
0.008068
0.004471
1.365e-06
0.0093
0.00836
0.3333
0.1858
9.162e-05
0.001462
0.5736
0.5933
0.007604
0.0002204
0.005202
0.002541
1.4e-05
0.004615
0.375
0.0002344
0.01009
0.001175
7.869e-05
0.04489
0.07767
0.004997
0.001812
0.01831
0.002047
0.5882
6.573e-05
0.01434
0.0002507
0.05242
0.001303
7.766e-05
0.01063
0.0002164
0.01129
0.0002032
0.001922
0.0001259
0.06086
0.008687
0.002315
0.003704
0.0004456
0.001078
0.0004474
0.0003847
0.562
0.0008969
0.03188
0.000379
0.003494
0.3685
0.01316
0.08709
9.419e-05
0.3664
0.001195
0.002319
0.00163
0.008088
0.007111
0.08162
1.217e-05
0.0342
0.4825
0.0002066
0.4629
0.004727
0.2934
0.01745
0.01015
0.5434
0.0286
0.001248
0.0001518
0.577
0.5124
0.009106
0.00719
0.001691
0.1201
0.007632
0.001847
0.0003752
0.0005025
0.03876
0.005412
0.01183
0.07146
0.002561
1.429e-05
0.01385
0.0004768
0.0006573
0.01213
1.656e-05
0.5732
0.4255
0.01094
0.01465
8.55e-06
0.5797
0.01363
0.000231
9.839e-06
0.0004271
0.0005044
0.3058
0.3058
0.000705
0.001854
0.00167
0.002446
0.2717
0.02532
0.01573
0.6351
0.000231
0.001806
0.003151
0.002162
7.337e-05
0.08351
0.008799
0.561
0.008803
0.001715
0.0003642
0.0008551
0.001958
0.0001502
0.0003423
0.00324
0.00228
0.000751
0.001759
0.08433
0.004213
4.265e-05
0.2921
0.2932
0.0005286
0.0009465
3.465e-05
0.009775
0.0007818
0.001667
0.3822
0.5742
0.005508
0.6143
0.003895
1.835e-05
0.004711
0.04785
0.003212
0.1412
0.0001305
0.001749
0.4015
0.007991
0.008307
0.002875
0.003134
0.002717
0.001597
0.002743
0.003581
0.002563
0.007597
0.008518
0.0003901
0.002312
0.002451
0.0007971
0.0002783
0.001127
0.0003696
0.0003332
0.006926
0.009189
0.006047
2.05e-05
0.02391
0.001537
0.5421
0.005665
0.6194
0.002007
0.01501
1.73e-05
0.0008426
0.06246
0.0001167
1.063e-05
0.0001961
0.004015
0.00361
0.0002853
0.000203
0.3695
0.002977
0.005728
1.131e-05
0.001458
0.002573
0.03603
0.02654
0.5751
0.007677
0.0003694
0.01058
0.0001945
0.007877
0.09682
0.0001804
0.5626
0.008999
0.02222
0.005029
0.0004908
0.03845
0.01009
0.01424
0.2113
0.001568
0.006312
1.398e-05
0.000209
0.001291
0.5266
0.002417
0.001672
6.509e-05
0.0009197
0.005439
0.01929
0.002628
0.5712
0.001119
0.0007725
0.006295
0.003715
0.006164
0.0001121
0.0003287
0.001073
0.003941
0.03387
0.009084
4.466e-05
0.02952
0.1138
8.853e-06
0.3758
0.04193
0.5728
0.5991
0.004081
0.5561
0.0002478
0.003245
0.03183
0.007244
0.0003311
0.0001161
0.0014
0.0008534
0.001464
0.005317
3.213e-06
0.003668
0.001704
0.1661
5.006e-06
0.009275
3.71e-05
4.081e-05
0.3301
0.0002007
0.0003599
0.01142
0.007364
8.634e-05
0.001802
0.0001554
0.004571
0.003388
0.4278
0.02289
0.6067
0.0161
0.00756
0.0003949
0.008064
0.005347
1.774e-05
0.007058
0.527
0.0008109
0.002895
0.02414
0.004391
0.003092
0.002418
0.0004748
0.0003744
2.119e-05
0.0006643
0.001232
0.0002878
0.001802
0.000748
0.07735
4.496e-06
0.0009913
0.003206
0.009771
0.4144
0.002764
0.000721
0.005371
0.01149
1.854e-05
0.0002451
0.002818
0.02115
0.003001
0.0004973
0.4354
3.492e-05
0.01299
0.2393
0.004159
0.0007967
0.5626
0.001023
0.00732
0.005627
0.0001355
0.005687
0.002348
1.032e-05
0.003124
0.001405
0.6276
0.6276
0.001426
0.01002
0.008056
0.0009034
0.002325
0.549
0.0001088
0.0003637
0.004549
0.5134
0.5232
0.004329
0.01696
0.001361
6.372e-06
0.0006243
0.4227
0.0004549
6.742e-06
0.06515
0.0005806
0.0009393
0.4164
0.01693
0.0001407
0.04242
0.002311
0.3893
0.3364
0.3552
0.2942
0.08534
0.002577
0.005919
0.0008495
0.01014
0.0006929
0.00405
0.0003557
0.2937
0.001938
0.002363
0.00013
0.0003359
0.0001015
0.0006621
0.003993
0.001009
0.005092
0.001926
0.1376
0.002943
8.221e-06
0.001638
6.011e-05
0.01977
0.001941
0.5742
4.876e-06
0.001851
0.001054
0.01125
0.2803
1.685e-05
0.579
0.001864
0.0004
0.4216
0.00183
0.00159
0.007131
0.001125
2.315e-05
0.1998
0.0003198
0.4579
0.007445
0.001836
0.0006952
0.005899
0.002709
0.5448
0.5651
0.04928
0.0003355
0.0001992
0.0455
0.006085
0.001751
0.01169
0.0004142
0.0009129
0.01816
0.01057
0.002556
0.002186
0.04263
5.941e-06
0.02117
0.5742
8.843e-05
0.572
0.4222
0.05268
0.4157
0.0002523
0.006463
0.000211
0.003785
0.001085
0.586
0.07352
0.0005434
0.001747
0.006945
0.4285
0.03021
8.838e-05
9.673e-05
0.6183
7.075e-05
7.944e-05
2.871e-06
0.4023
0.01922
0.01118
0.07279
0.5156
0.02145
0.003129
0.0001052
0.07046
0.0003997
2.137e-06
0.5752
0.0009192
0.0001671
0.002416
0.5788
0.0003204
4.66e-05
4.895e-06
1.526e-05
0.02516
0.009335
1.091e-05
0.2103
0.001609
0.5611
0.006337
0.0005547
0.02078
0.000537
1.524e-05
0.06864
0.0008392
0.002631
0.6424
0.2416
0.0006298
0.0002339
0.02746
7e-05
0.001989
0.01701
0.008964
0.005054
0.0006062
0.00217
0.5756
0.005098
0.004149
0.001768
0.0004897
0.00188
0.0006106
0.001708
8.637e-06
1.27e-05
2.367e-06
0.000543
0.1416
0.0006426
0.4608
0.0002662
0.0004363
0.5759
6.408e-06
0.6349
0.0008646
2.298e-05
0.0001576
0.0002491
0.002814
0.0004385
0.001353
0.3711
7.607e-06
0.005785
0.355
0.009672
0.001175
1.628e-05
1.642e-05
4.955e-06
0.009828
0.0008244
0.0006745
0.006932
0.07643
0.003294
6.949e-05
0.4716
0.002322
0.004035
0.0007437
0.004304
0.002471
0.01542
6.465e-05
0.002562
0.002228
2.209e-05
0.2771
8.055e-05
0.0645
0.004309
0.0007771
0.3439
0.09684
0.004862
0.0004457
0.0009525
8.527e-06
0.3453
0.555
0.01201
0.00152
0.000231
0.003293
0.01923
0.3049
0.3693
0.0002875
0.3043
0.0005489
0.001053
0.08748
0.001315
0.002054
1.524e-05
8.329e-06
1.413e-05
0.2517
0.0004702
0.001563
0.00155
0.02303
0.01478
1.446e-05
0.006809
0.0004219
0.001403
6.397e-05
0.001628
0.01123
1.563e-05
0.002855
0.003326
0.004838
0.3524
0.004309
0.09607
0.5696
0.006049
0.00198
0.002126
0.003739
0.005025
5.853e-06
8.943e-06
0.01013
2.352e-06
0.3652
0.05108
0.2862
0.1849
0.004007
0.6338
0.001297
9.909e-06
0.0004978
4.643e-05
0.03032
0.00892
0.001848
0.001884
0.008333
0.0005789
0.005358
0.0001368
0.001385
0.3267
0.001133
0.003135
0.6046
0.2821
0.0001454
0.5848
0.001473
0.001049
0.001443
0.008409
8.92e-05
0.4124
0.04547
0.2183
0.0005178
2.817e-05
0.000797
0.004024
0.5511
0.001097
0.556
0.03125
0.001049
0.02176
1.539e-05
0.00114
0.0004356
0.01855
0.0003801
0.01665
0.3753
0.004816
0.000549
0.4735
0.01015
0.5845
0.0003756
0.0001502
0.00289
0.001909
0.4551
0.0003844
0.0008278
0.002446
3.506e-05
0.001317
0.0001659
0.5369
0.03206
0.01148
0.01047
0.0009349
0.006251
0.07916
0.01228
0.05044
0.003195
0.002771
0.46
0.6026
0.5486
0.2881
0.03581
0.0001543
0.000404
0.5707
0.001491
0.004134
0.002125
0.5928
0.001145
0.09728
0.000142
0.4185
9.132e-06
0.009595
0.000131
0.3388
0.07277
1.226e-05
0.3514
0.002229
0.001969
0.001487
0.0007215
0.002091
0.5813
0.001017
0.0004802
0.005168
0.001709
0.00392
0.01044
0.003712
0.003428
0.0009971
0.5592
0.006213
0.004744
0.0001418
0.04727
0.614
0.001093
0.0002303
0.004922
0.005379
0.008112
0.0009097
0.2234
0.00617
0.0004076
0.009115
0.0007868
0.01439
0.3262
0.005478
1.58e-05
0.002259
0.0008422
9.247e-05
0.009716
0.007418
0.5701
0.3686
0.05545
0.3659
7.61e-05
0.00134
0.5933
0.5439
0.003149
5.415e-06
0.5936
0.004478
3e-05
0.002304
0.008096
0.001412
0.0008199
0.002091
0.004964
0.0003985
1.434e-05
0.0001334
0.5691
0.002413
0.008856
0.001568
0.5095
0.03076
0.001011
0.003515
0.0006128
2.913e-05
0.0001709
0.04133
0.0003503
7.727e-06
0.01645
0.0009312
0.004774
0.01212
0.01677
0.0002463
2.263e-05
0.5612
0.001208
0.002612
0.5923
6.283e-05
0.006277
0.008769
0.09207
0.006232
0.0005101
0.0007123
0.003418
0.5565
0.5717
0.03723
0.0008308
0.608
0.01954
0.4602
0.0004221
0.01186
0.006385
0.0006828
0.0001707
0.03077
0.005043
0.5202
1.112e-05
0.007854
0.0006304
0.000628
0.1141
0.001294
0.01327
0.001106
1.727e-05
0.01954
1.38e-05
0.5469
0.5513
0.003651
0.1428
0.5292
1.325e-05
0.001624
0.00135
0.0001085
0.009237
0.003184
0.3158
1.297e-05
0.1719
0.003177
0.6043
0.05281
0.0002199
0.002781
0.002638
0.00619
0.01331
0.0003119
0.4031
0.002742
9.685e-05
0.0004943
9.039e-05
0.05375
0.002135
0.007658
0.6201
0.0003282
0.0006848
0.1058
0.2285
0.001182
1.356e-05
0.304
0.5474
0.007191
0.0001543
0.00912
0.0006229
0.619
8.529e-05
0.001414
0.002466
0.6107
0.0851
0.0002968
0.00172
0.00015
0.004595
0.0034
0.5403
0.0007985
0.3378
0.0002807
1.426e-05
0.1269
0.001043
0.009773
9.07e-05
3.147e-05
0.0002777
0.1109
0.3973
0.00299
0.03964
0.5678
0.000825
0.003316
0.01539
0.5976
0.08785
0.116
0.4173
0.001238
0.002122
0.574
0.001614
0.003136
0.000262
0.3748
0.589
0.5664
0.13
0.01071
0.02631
0.0004855
1.58e-05
2.847e-05
0.003313
8.463e-06
0.0001232
0.4045
1.827e-05
0.002473
0.0001148
0.01341
0.04666
0.02034
7.503e-05
0.0004123
0.0002342
0.0005386
0.1989
0.003899
0.001341
0.002992
0.01071
0.03746
0.000794
0.05624
0.001363
0.3537
0.00349
0.006136
0.01512
0.02909
0.0004012
1.132e-05
6.793e-05
0.4129
0.0001878
0.003314
0.6082
0.003016
0.5803
0.0001639
0.002135
0.3484
0.0008732
0.001501
0.6543
0.01191
0.0208
3.795e-05
0.5445
0.03771
2.123e-05
0.01264
0.5639
0.0001248
0.003325
0.2542
0.04032
0.02378
0.001844
8.071e-06
0.000559
0.002282
0.01253
0.0003283
0.01385
0.5714
0.2369
0.001244
0.00321
0.001793
0.6098
6.386e-06
0.001508
0.005539
0.0008226
0.003134
0.002344
0.4374
0.1087
0.0004905
0.001124
0.1924
0.002614
0.0005507
0.0194
0.009041
0.006724
0.0117
0.2004
0.01441
0.005907
0.01028
0.006688
0.6069
0.0001967
0.3905
0.003019
0.008821
0.01472
9.701e-05
0.002128
4.824e-06
0.01305
0.02585
0.2792
0.5307
0.01076
0.006644
0.0001021
0.0004012
0.001122
0.0008977
0.0003797
0.005733
0.01889
0.002387
0.0005885
5.758e-05
0.003924
0.2276
0.0002284
0.01556
0.0002143
0.00845
0.01133
0.003006
0.00142
0.5728
0.0008348
0.0391
0.567
0.07598
0.0002259
0.1952
8.649e-07
0.0006343
0.0003575
0.5688
0.006508
0.001145
0.3694
0.004842
0.003819
0.0001557
0.0006136
0.0001093
0.5879
0.001957
0.5652
0.01486
0.0009446
0.001502
0.008825
0.0005695
5.01e-06
0.4473
0.5749
0.004286
0.002637
0.0003
0.01741
0.003148
0.000445
0.01665
0.006666
0.5686
0.00231
0.0001531
0.08388
0.003928
0.561
0.002766
0.1199
0.00506
0.0008519
0.001614
0.242
0.0007006
0.00875
0.4531
0.0004395
0.001633
0.08138
0.5504
0.4245
0.0009101
0.0007163
0.006543
0.02292
0.001959
0.03512
0.001891
0.006194
0.3516
0.03041
0.02332
9.573e-06
0.000256
0.0001271
0.5412
0.0005289
0.00233
0.0001864
0.0002159
1.589e-05
0.008416
0.005319
0.002923
0.003822
0.0004182
8.775e-05
0.0445
0.4066
0.02226
0.296
6.873e-06
0.5531
0.006656
0.0005991
0.005582
0.006624
0.001831
0.002834
0.0002065
0.008343
0.001587
0.01014
0.01317
0.0008403
9.43e-06
0.003854
1.333e-05
2.287e-05
0.5754
1.258e-05
0.002884
0.0002969
0.0001127
0.005471
0.03045
0.000798
0.003565
0.007066
0.2201
0.007797
0.006443
0.00148
0.003146
0.002154
0.01731
0.01736
0.0464
1.125e-05
0.003063
0.0004857
0.003074
0.0005091
0.3873
0.0004056
0.002039
7.379e-05
0.008611
1.49e-05
0.0008139
0.001054
0.07404
0.0001217
0.08373
0.005585
0.003514
0.097
0.02024
0.004596
0.006197
0.001102
0.0007458
0.008109
0.001916
0.00312
1.53e-05
0.006564
6.626e-06
0.2154
0.01655
0.0009794
0.0151
0.2026
0.001822
0.5734
0.5371
0.5749
0.002586
0.002232
0.0003647
0.07004
0.06095
0.002774
0.1819
4.16e-06
0.0001644
1.15e-05
0.001343
0.1274
0.0003757
0.0005959
0.08791
0.0001665
0.5864
0.007288
0.01553
0.0004072
0.02649
0.541
0.4526
0.001601
0.01275
0.1931
1.471e-05
0.002103
0.4889
0.58
0.004243
0.2702
0.0008028
3.6e-05
0.4371
0.008052
0.0004244
0.001999
0.0008887
1.492e-05
0.004937
0.04708
0.005203
0.001132
0.04439
0.0008291
0.00442
0.01105
0.0005227
0.001531
4.631e-06
0.2602
0.003232
7.778e-05
0.0006702
0.5784
0.003497
0.5766
0.01213
0.02133
0.003821
0.00552
0.001081
0.002847
0.03965
0.0002083
0.0006646
0.000314
0.0005459
0.0003588
0.002388
0.02689
0.003661
0.0009574
0.003939
0.001135
0.4562
1.218e-05
1.728e-05
0.000172
0.005284
0.007742
0.0002734
0.0006204
0.02572
0.1223
0.0001366
0.001296
0.3588
0.2855
0.426
0.0008374
0.001708
0.0227
0.0007313
0.01328
0.3125
0.002623
0.004035
0.003509
0.0007518
8.847e-06
0.0003711
0.001478
0.001923
0.003074
0.00172
0.0004385
0.002358
0.009417
0.01319
0.0001622
0.003521
0.02723
0.002488
0.0004588
0.05752
0.008122
0.01839
0.02025
1.044e-05
0.0003458
0.6032
0.0007207
0.0141
1.749e-05
0.0002884
0.5022
0.05906
0.0004261
0.362
0.003351
0.0004272
0.0005321
0.01375
0.3917
0.037
0.008274
0.006036
0.08917
0.0008832
0.4388
0.0005318
0.004406
0.0005394
0.0005757
0.002428
0.002372
0.001035
0.0007608
0.02936
0.003126
0.5816
1.288e-05
0.236
0.2864
0.0005964
0.5704
0.005306
0.009369
9.275e-06
0.5956
0.00411
0.001081
0.0006933
0.0009628
0.04076
0.002073
0.003159
0.001174
0.0001255
0.003511
0.112
0.5584
0.0006938
0.0005352
0.02717
0.001949
0.0002321
0.0001722
0.01114
0.5337
0.002214
0.001755
6.506e-06
0.004352
0.001916
0.01258
0.001548
0.5446
0.008385
0.000576
0.0002473
0.5974
0.03472
0.0002893
0.539
0.003419
0.0001784
0.00647
0.5939
0.6003
0.01729
0.426
0.3757
0.5736
0.01505
0.001376
0.0001809
0.05312
0.002151
0.01106
0.05358
0.6432
0.005655
0.00365
0.1594
0.1092
0.0002148
0.03795
0.4368
0.0001801
0.002823
0.01963
1.189e-05
1.389e-05
0.4523
0.001285
0.01219
0.00056
0.002369
9.794e-05
0.6258
0.007559
1.067e-05
0.009839
0.001511
0.02515
0.0001091
0.002338
0.001921
0.00872
1.924e-05
0.1368
7.835e-05
0.003398
0.3781
0.3375
0.3306
0.0007771
0.004002
0.0001137
0.001317
5.54e-06
0.1026
0.336
0.002421
0.004924
0.06804
0.5681
0.0003171
0.01134
0.0001846
0.002872
0.0006995
0.001797
0.003126
0.005254
0.00133
0.5413
3.099e-05
0.001169
0.002296
0.008155
0.1302
0.5585
0.003797
0.007531
0.00109
0.0001061
0.005259
0.2494
0.006556
0.05571
0.09312
0.5691
0.0004439
0.001713
7.094e-05
0.001096
0.003916
0.01603
0.002179
0.00495
0.01222
0.003392
0.02435
0.04478
0.5907
0.001464
5.253e-05
0.04006
0.01806
0.000166
0.3192
0.5704
0.01885
0.2533
0.6039
0.004722
0.4881
0.4878
0.008677
0.3754
0.002817
1.435e-05
0.0006593
0.02116
0.04321
0.4743
0.5948
0.01638
0.001577
0.004048
1.3e-05
0.006206
0.4293
0.01033
0.009345
0.0001149
0.07842
0.5969
0.07593
0.004274
0.6069
0.5294
0.00148
0.001653
0.1171
0.3607
0.002209
0.5371
0.1797
0.5026
3.588e-06
0.09554
0.0002888
0.01116
0.365
0.102
0.01659
0.003842
0.0005068
0.004161
0.003657
0.008227
0.6238
1.806e-05
0.005868
0.004985
0.5902
0.0005038
0.000749
0.0016
0.0003922
0.02973
0.0005888
0.008945
0.04265
0.0001481
0.6064
2.616e-05
0.006435
1.969e-05
0.6022
0.003365
0.5734
0.1394
0.01109
8.548e-05
0.006561
0.000586
0.02703
0.4152
0.0007352
0.4134
0.0001999
0.0007005
0.02063
0.0507
0.4302
0.001885
0.5664
0.01483
0.004213
0.01274
0.006404
0.5619
0.000196
0.2121
0.0007565
0.0003799
0.007785
0.0002404
0.000144
0.005203
0.001398
0.002982
0.1959
0.005473
0.01394
0.5736
0.5716
0.0004924
0.009077
0.0001508
0.005425
0.002713
0.5793
0.00405
0.5795
0.5627
0.2113
0.0011
0.05212
0.01984
0.3184
0.002628
0.03171
0.002285
0.001199
0.0004981