/*--------------------------------*- C++ -*----------------------------------*\
  =========                 |
  \\      /  F ield         | OpenFOAM: The Open Source CFD Toolbox
   \\    /   O peration     | Website:  https://openfoam.org
    \\  /    A nd           | Version:  8
     \\/     M anipulation  |
\*---------------------------------------------------------------------------*/
FoamFile
{
    version     2.0;
    format      ascii;
    class       volVectorField;
    location    "15";
    object      U;
}
// * * * * * * * * * * * * * * * * * * * * * * * * * * * * * * * * * * * * * //

dimensions      [0 1 -1 0 0 0 0];

internalField   nonuniform List<vector> 
127143
(
(0.1923 -0.009403 0)
(-0.003543 -0.01697 -1.386e-22)
(0.003873 0.01847 2.763e-22)
(0.004442 0.01889 7.234e-25)
(0.7427 0.2417 -7.049e-22)
(0.003726 0.01727 -1.051e-24)
(0.6818 0.4135 0)
(0.7389 0.3472 -4.289e-22)
(0.7242 0.3248 1.786e-21)
(0.6305 0.02893 0)
(0.3777 0.5567 -4.211e-21)
(0.6731 0.4203 6.383e-22)
(0.08358 -0.03123 -3.033e-23)
(0.0049 0.01775 0)
(0.3196 -0.327 1.883e-21)
(0.8834 -0.06121 0)
(-0.006514 -0.01939 -2.811e-22)
(0.7592 -0.06906 1.886e-21)
(0.6687 -0.1482 0)
(0.9499 -0.0284 0)
(0.9435 -0.2257 1.623e-21)
(0.377 -0.1348 0)
(1.03 -0.1617 0)
(1.127 -0.1039 0)
(0.3748 -0.1338 -9.603e-23)
(1.109 -0.1788 0)
(1.2 -0.01266 5.012e-21)
(1.203 0.01509 -8.042e-23)
(0.9362 -0.435 0)
(0.8035 -0.05399 -3.122e-21)
(1.121 -0.07591 0)
(1.085 -0.1806 1.387e-21)
(1.303 0.3265 7.851e-22)
(0.9104 -0.2203 -3.489e-21)
(0.8951 -0.08332 1.498e-21)
(1.316 0.3285 2.166e-25)
(0.6476 -0.2143 5.808e-22)
(1.051 -0.1672 -6.453e-22)
(1.131 -0.1042 3.823e-23)
(1.113 -0.05927 1.858e-25)
(0.6682 -0.1464 0)
(1.121 0.2878 -2.103e-22)
(1.099 0.2757 1.55e-22)
(0.1427 -0.04744 0)
(0.7615 -0.06499 -1.963e-21)
(0.9179 -0.2221 1.084e-21)
(0.9483 -0.4333 0)
(0.6727 -0.2131 -1.166e-22)
(1.151 -0.1977 -1.84e-22)
(1.127 -0.09313 1.367e-23)
(0.9171 -0.06547 -2.626e-23)
(0.9504 -0.03518 2.877e-21)
(1.15 -0.139 0)
(1.094 -0.06356 -9.67e-22)
(0.9997 -0.002554 5.138e-21)
(1.125 -0.285 5.081e-22)
(0.9991 -0.002744 -4.852e-21)
(1.113 -0.1023 0)
(1.001 -0.01862 -3.215e-21)
(1.095 -0.06009 -1.851e-21)
(0.6769 -0.1802 -4.844e-21)
(0.7519 -0.2116 -2.054e-22)
(1.133 -0.08829 -4.297e-23)
(1.002 0.001071 9.536e-21)
(1.194 -0.1145 0)
(1.014 -0.2757 -1.11e-21)
(1.063 0.02046 2.184e-21)
(1.133 -0.09047 0)
(1.133 -0.09039 -1.561e-23)
(0.9984 0.0006426 0)
(1.123 -0.09335 0)
(1.224 -0.0006257 -2.156e-21)
(0.6215 -0.1038 -5.338e-22)
(1.002 -0.01792 -1.722e-21)
(1.008 0.006006 -2.419e-22)
(1.241 0.01211 2.412e-21)
(1.023 0.04245 -1.741e-21)
(0.7182 -0.2264 0)
(1.126 -0.2848 -1.004e-21)
(1.001 0.00147 0)
(0.9456 -0.4225 -6.593e-23)
(0.984 -0.03183 2.773e-23)
(0.9483 -0.2234 1.225e-21)
(1.104 -0.07294 0)
(0.5693 -0.141 1.397e-22)
(0.7134 -0.2247 0)
(1.135 -0.1129 1.237e-22)
(1.286 0.1 1.34e-21)
(1.011 -0.2731 0)
(1.229 0.6145 0)
(0.9952 -0.02953 0)
(0.9572 -0.1621 0)
(1.21 0.5921 0)
(0.9443 -0.2253 -1.675e-21)
(1.03 -0.2077 0)
(1.052 -0.04419 -1.089e-21)
(1.12 0.2807 3.985e-22)
(1.108 -0.08598 0)
(0.7824 -0.2316 4.252e-22)
(1.062 0.02485 0)
(1.001 0.001427 0)
(1.151 -0.1979 0)
(0.9848 0.8445 5.769e-23)
(1.133 -0.1304 0)
(0.7139 -0.2244 -1.815e-22)
(0.7812 -0.2318 5.996e-22)
(1.149 -0.1757 4.701e-22)
(0.9983 0.0006451 0)
(0.9021 -0.3531 0)
(1.005 -0.001303 3.53e-20)
(0.3284 -0.3276 -5.57e-22)
(1.273 0.1063 2.526e-21)
(0.9858 -0.2192 -1.54e-21)
(0.3552 0.2433 0)
(0.9957 0.022 1.633e-21)
(1.127 -0.1804 5.863e-23)
(0.9987 0.05466 -1.463e-22)
(1.008 0.006251 -4.865e-21)
(1.023 0.04175 1.143e-21)
(0.01979 0.08441 0)
(1.005 -0.001489 -5.102e-20)
(0.914 -0.229 -3.049e-22)
(1.031 -0.3643 0)
(1.097 -0.1107 -6.026e-22)
(0.9424 -0.4289 6.086e-22)
(1.041 -0.1383 2.435e-21)
(0.7906 -0.2243 0)
(1.03 -0.007897 5.53e-21)
(1.202 -0.1077 -2.852e-22)
(1.107 -0.3163 -8.207e-22)
(0.7955 -0.2353 0)
(0.9716 -0.2228 -7.801e-22)
(1.135 -0.1029 1.434e-22)
(0.7183 -0.2261 0)
(-0.009214 -0.02134 -5.834e-22)
(0.7965 -0.2354 -2.887e-22)
(0.9489 -0.07744 0)
(0.9592 -0.2196 4.289e-22)
(0.8517 -0.4699 -3.573e-21)
(0.9894 -0.0748 4.978e-22)
(1.029 -0.1937 2.191e-21)
(0.9905 0.04755 1.194e-21)
(1.104 -0.1624 5.828e-23)
(1.011 -0.199 -1.091e-21)
(1.149 -0.1387 -1.629e-22)
(1.298 0.3092 3.699e-22)
(0.008302 0.08183 2.064e-21)
(1.002 0.000901 -7.856e-21)
(0.9711 -0.2229 6.778e-22)
(1.072 0.8458 4.908e-24)
(1.135 -0.1218 1.305e-22)
(1.149 -0.2205 0)
(1.058 -0.1593 2.298e-21)
(0.9023 -0.1616 0)
(0.5732 -0.4082 0)
(0.5715 -0.1413 0)
(1.113 -0.1015 1.525e-22)
(1.059 -0.3654 0)
(0.6727 -0.2128 -2.203e-22)
(1.107 -0.09236 -4.818e-23)
(1.123 -0.07851 0)
(0.6573 -0.3236 1.631e-20)
(0.9966 -0.03041 1.728e-22)
(0.7945 -0.2352 -7.556e-22)
(1.116 -0.2928 0)
(1.196 -0.1147 1.412e-21)
(0.6607 -0.218 -3.365e-22)
(0.8609 -0.3099 1.333e-21)
(1.379 0.2743 -6.288e-22)
(0.9498 0.05613 -1.088e-22)
(0.4721 -0.1658 0)
(1.009 -0.1996 5.054e-22)
(1.13 -0.192 2.873e-22)
(1.091 -0.3031 -1.17e-21)
(0.9898 -0.001099 1.709e-20)
(0.5058 -0.1557 4.239e-24)
(1.266 0.3722 -3.086e-23)
(1.201 -0.1086 -2.813e-22)
(1.132 -0.1142 0)
(0.9559 -0.03351 1.276e-21)
(1.09 -0.3039 -4e-22)
(1.023 -0.04815 0)
(0.4854 -0.1373 5.362e-23)
(0.5055 -0.1548 -4.331e-24)
(1.107 -0.3177 1.561e-21)
(0.7522 -0.2108 3.658e-22)
(1.047 0.15 -1.962e-22)
(0.3738 0.2604 -7.433e-22)
(1.129 -0.1041 7.5e-23)
(0.9747 -0.04356 3.575e-21)
(1.138 -0.1529 1.269e-22)
(1.15 -0.1498 -8.802e-22)
(0.9529 -0.07595 3.246e-21)
(0.3982 0.5877 -6.266e-22)
(-0.007696 -0.02649 1.328e-21)
(0.8541 -0.2265 0)
(1.001 1.816e-05 0)
(0.9998 3.712e-06 -5.339e-23)
(0.5896 -0.008267 0)
(0.9894 0.03121 4.23e-22)
(1.021 0.01305 3.088e-21)
(0.9265 0.01838 4.706e-21)
(0.8784 -0.03938 -2.562e-21)
(0.6489 -0.2142 -2.803e-22)
(0.004907 0.02559 4.954e-23)
(1.132 -0.08034 -1.637e-23)
(1.012 -0.1133 8.903e-22)
(1.143 -0.1949 -9.706e-23)
(0.8074 -0.05651 4.384e-21)
(0.9957 0.02143 -7.818e-22)
(0.9021 -0.1336 9.065e-22)
(0.551 -0.1474 9.929e-23)
(0.9814 -0.007148 2.554e-21)
(1.38 0.2779 -6.479e-22)
(0.7976 -0.2361 -1.155e-24)
(0.8313 -0.03849 0)
(0.4817 -0.1712 -1.848e-22)
(1.139 -0.214 6.61e-22)
(0.9275 -0.2313 -1.06e-21)
(1.013 -0.1123 1.936e-22)
(1.257 0.366 -4.68e-23)
(1.003 0.01039 -4.809e-21)
(1.149 -0.2202 -1.909e-22)
(1.154 -0.1331 1.606e-22)
(1.101 -0.08984 0)
(0.493 -0.1745 0)
(1.12 -0.2944 -1.084e-21)
(1.052 -0.1656 6.668e-22)
(0.5482 -0.1917 2.143e-22)
(0.7756 -0.2277 6.76e-22)
(0.9516 -0.2247 1.021e-21)
(1.021 -0.04877 2.52e-21)
(0.6263 -0.1051 1.069e-21)
(0.02728 0.01998 0)
(0.951 -0.2247 0)
(1.07 -0.1046 -7.58e-22)
(0.7948 -0.2352 3.57e-22)
(0.3894 -0.02054 9.306e-25)
(1.021 0.01254 -3.231e-21)
(1.127 -0.157 6.381e-22)
(1.15 -0.1496 8.036e-22)
(1.229 -0.08754 -1.875e-21)
(0.5771 -0.1867 -5.815e-23)
(1.06 -0.3652 -8.892e-25)
(1.133 -0.1282 0)
(0.01926 0.08455 2.692e-25)
(1.149 -0.2241 8.064e-22)
(1.199 -0.02177 0)
(0.3427 -0.112 1.879e-21)
(0.9988 0.0008982 -5.039e-21)
(1.246 0.2037 -1.175e-21)
(1.098 -0.1186 -6.886e-22)
(1.127 -0.254 0)
(0.9941 -0.2108 0)
(1.135 -0.2741 7.854e-22)
(0.9202 -0.3538 0)
(1.029 -0.008031 -5.093e-21)
(1.365 0.3536 0)
(1.104 -0.2692 0)
(0.9165 0.1309 3.896e-22)
(0.8849 -0.225 -7.928e-22)
(0.998 -0.05044 -1.478e-21)
(0.9596 -0.16 4.155e-24)
(0.9892 0.04708 -9.512e-22)
(1.179 -0.1071 0)
(1.211 -0.1009 -6.328e-22)
(0.7262 -0.2289 9.159e-22)
(0.5506 -0.4201 0)
(0.7496 -0.2903 3.211e-21)
(1.144 -0.09039 -7.284e-22)
(1.135 -0.2133 0)
(0.989 -0.001144 -1.97e-20)
(0.6648 -0.2077 -1.842e-22)
(1.126 -0.1578 -6.763e-22)
(1.133 -0.08581 -5.271e-23)
(1.138 -0.1524 -6.1e-22)
(0.9853 -0.2192 0)
(1.149 -0.1771 -8.154e-22)
(0.981 -0.003695 1.312e-21)
(1.069 -0.3029 6.321e-22)
(0.9909 -0.001097 -1.959e-21)
(1.044 -0.03986 -6.433e-23)
(1.133 -0.1302 4.841e-25)
(0.9896 0.009571 0)
(1.008 0.01997 1.835e-22)
(-0.0164 -0.03417 -1.693e-22)
(0.8534 -0.2368 0)
(0.9966 0.02333 7.316e-22)
(1.146 -0.157 -5.149e-22)
(0.953 -0.03412 2.802e-21)
(1.056 -0.1582 -2.819e-21)
(1.069 -0.2025 0)
(1.069 -0.1053 7.405e-22)
(1.127 -0.2108 0)
(0.9858 -0.01861 -2.541e-21)
(0.9042 -0.3736 -4.138e-23)
(1.121 -0.09451 -5.852e-23)
(0.365 -0.1303 -5.057e-23)
(0.5775 -0.1871 2.23e-22)
(1.142 -0.08932 4.213e-22)
(1.121 -0.1236 1.68e-22)
(1.047 -0.2499 -1.931e-22)
(0.9345 -0.2784 -1.075e-21)
(1.125 -0.1801 -6.876e-22)
(1.097 -0.08518 0)
(0.753 -0.4279 3.927e-24)
(1.142 -0.1945 -3.322e-23)
(0.9808 -0.007197 0)
(0.8464 -0.205 -3.819e-24)
(1.138 -0.1196 1.724e-22)
(1.149 -0.1713 4.548e-22)
(0.376 -0.1811 -1.66e-23)
(1.134 -0.2747 0)
(0.9913 -0.001135 -8.153e-22)
(0.9845 0.01283 -4.004e-21)
(1.318 0.4185 4.136e-23)
(1.063 -0.1683 3.381e-22)
(1.117 -0.117 -3.208e-22)
(0.9917 -0.1355 2.276e-21)
(0.9401 -0.01528 4.854e-21)
(1.026 -0.1599 0)
(1.119 -0.08157 2.794e-23)
(1.028 -0.02572 1.43e-21)
(1.127 -0.2536 2.913e-22)
(1.32 0.4185 0)
(1.103 -0.1512 -5.841e-22)
(0.9101 -0.03734 2.172e-21)
(0.438 -0.04813 -3.087e-23)
(1.12 -0.04226 3.279e-23)
(1.22 0.4271 3.375e-22)
(0.7383 -0.2178 0)
(1.008 0.01965 -2.221e-22)
(0.8985 -0.08319 -4.412e-21)
(1.001 1.401e-05 0)
(0.9998 2.901e-06 0)
(0.8993 -0.156 0)
(0.9123 -0.3521 -2.117e-22)
(1.129 -0.1924 3.141e-22)
(0.7373 -0.2176 -2.578e-22)
(0.8693 -0.2364 -2.386e-21)
(0.9896 -0.07294 -2.048e-21)
(1.139 -0.2135 0)
(1.143 -0.1404 1.427e-22)
(1.138 -0.1514 9.725e-23)
(0.4001 -0.1282 5.507e-24)
(1.145 -0.1567 3.572e-22)
(0.9509 -0.2279 -8.142e-22)
(1.032 -0.2063 5.409e-22)
(1.13 -0.1351 4.096e-22)
(1.226 -0.08643 0)
(1.132 -0.1303 -2.81e-22)
(0.7231 -0.1731 5.936e-22)
(0.5264 -0.1708 -9.298e-23)
(1.138 -0.1518 4.377e-22)
(0.9335 0.05241 0)
(0.9352 -0.2285 -1.847e-21)
(0.9931 -0.2115 -6.319e-22)
(1.297 0.2702 -2.834e-22)
(0.981 -0.01556 2.942e-21)
(1.116 -0.04032 0)
(0.6576 -0.2006 -3.099e-22)
(1.133 -0.08836 -1.333e-23)
(0.7839 -0.131 -1.523e-21)
(1.126 -0.08431 0)
(1.128 -0.09597 5.157e-23)
(1.004 0.005021 3.036e-24)
(0.9897 0.03047 -1.354e-21)
(0.969 -0.008195 0)
(1.038 -0.1985 7.312e-22)
(0.9833 -0.003436 0)
(0.588 -0.2137 4.962e-21)
(1.026 -0.02736 -3.059e-21)
(1.112 -0.1216 5.536e-22)
(1.125 -0.08696 -3.116e-23)
(0.9791 -0.04217 0)
(1.01 -0.09737 -1.374e-22)
(1.127 -0.1094 -1.28e-22)
(0.3815 -0.2013 -5.22e-25)
(0.7606 -0.2285 -1.103e-21)
(0.9782 -0.004682 -8.76e-23)
(0.8545 -0.1817 -3.681e-21)
(1.072 -0.14 -2.18e-21)
(1.128 -0.1407 0)
(1.047 -0.2531 -1.076e-21)
(0.9987 0.05379 0)
(1.005 -0.07056 0)
(0.9851 0.0938 0)
(1.115 -0.05958 0)
(0.8566 -0.2272 -2.275e-22)
(0.9573 -0.1927 -2.324e-21)
(1.01 -0.01348 -7.176e-21)
(0.889 -0.2509 0)
(0.5158 -0.1814 1.765e-22)
(1.129 -0.2822 8.145e-22)
(1.127 -0.1028 -1.704e-22)
(1.116 -0.08413 -2.78e-23)
(0.8934 -0.2521 -9.832e-22)
(1.123 -0.07587 0)
(0.9317 0.0506 0)
(0.9963 -0.0493 0)
(1.094 -0.08175 1.57e-23)
(1.003 0.009963 1.945e-21)
(0.9797 -0.2176 0)
(0.488 -0.1371 0)
(0.9894 0.0931 0)
(1.14 -0.1359 -1.94e-22)
(0.7167 -0.2242 -1.021e-21)
(1.137 -0.1083 -1.815e-22)
(0.9999 0.001388 -3.973e-20)
(1.133 -0.1143 0)
(0.9348 -0.3951 0)
(1.138 -0.1624 1.039e-21)
(1.029 -0.1921 -2.211e-21)
(0.6859 -0.2143 0)
(1.029 -0.3629 0)
(1.031 -0.2073 -6.819e-22)
(0.8522 -0.2354 -1.1e-21)
(1.129 -0.2119 0)
(1.102 -0.135 4.701e-22)
(1.011 -0.3946 -5.944e-22)
(0.6611 -0.2178 0)
(0.574 -0.1981 -1.424e-21)
(0.8095 -0.2366 0)
(0.9996 0.001011 1.62e-21)
(0.7753 -0.2281 -8.36e-22)
(0.9618 0.1516 -1.378e-22)
(1.093 0.2649 1.027e-23)
(0.9829 -0.1812 -1.183e-21)
(1.229 -0.08761 1.759e-21)
(1.009 -0.1321 -6.543e-22)
(1.005 -4.866e-05 0)
(0.8019 -0.2362 0)
(0.5243 -0.1715 0)
(0.8699 -0.145 5.221e-21)
(1.228 -0.0407 1.007e-22)
(1.004 0.004918 -4.196e-22)
(1.144 -0.1695 -3.125e-22)
(0.9783 -0.2207 -1.406e-21)
(0.9511 -0.03423 -1.515e-21)
(0.985 -0.01757 0)
(0.9943 -0.0008114 -2.474e-21)
(1.128 -0.09329 -2.198e-23)
(0.9436 -0.07907 -1.702e-21)
(0.918 -0.3591 2.341e-22)
(0.9629 0.05112 0)
(1.11 -0.08626 2.994e-24)
(0.9796 0.01338 5.686e-21)
(0.689 -0.4561 0)
(0.9661 -0.008835 -5.331e-22)
(0.5509 -0.1457 8.395e-23)
(0.8868 -0.2323 0)
(1.136 -0.1376 2.517e-25)
(1.139 -0.1355 3.844e-22)
(1.062 -0.1916 4.607e-21)
(0.8945 0.0588 5.973e-23)
(0.6351 -0.2098 -1.011e-22)
(1.127 -0.1336 2.435e-22)
(1.239 -0.07431 0)
(0.6561 -0.2142 0)
(1.094 -0.1318 6.075e-22)
(1.135 -0.103 -6.311e-23)
(1.192 -0.1078 4.293e-22)
(0.9376 -0.2057 0)
(0.4278 0.2311 -3.775e-21)
(1.192 -0.1086 -8.787e-25)
(0.9926 -0.0005546 0)
(1.014 0.03849 0)
(1.053 -0.1931 0)
(0.8895 -0.2328 9.011e-22)
(0.9995 -6.668e-05 0)
(0.7918 -0.2306 5.406e-22)
(0.9849 -0.1531 1.493e-21)
(1.096 -0.11 8.986e-22)
(1.062 -0.1675 -1.091e-22)
(1.007 -0.1003 1.146e-21)
(1.008 0.0004544 0)
(0.4954 -0.3649 -2.498e-21)
(0.9868 -0.1508 -1.353e-21)
(0.5823 -0.2022 -1.884e-22)
(1.138 -0.1361 2.749e-23)
(0.8532 -0.4688 3.831e-22)
(0.6707 -0.4515 -4.744e-22)
(1.122 -0.1673 3.678e-22)
(1.134 -0.275 0)
(0.9296 -0.3859 0)
(1.226 -0.04028 -1.051e-22)
(1.129 -0.1371 -1.951e-23)
(1.018 0.00425 5.111e-21)
(1.112 -0.09305 7.738e-23)
(0.962 0.02982 2.443e-21)
(1.302 0.4141 1.379e-23)
(1.136 -0.113 -1.063e-22)
(1.158 -0.1362 0)
(1.303 0.2935 1.724e-22)
(0.007915 0.04029 0)
(0.7812 -0.2349 9.197e-22)
(0.4191 0.07022 5.37e-22)
(1.077 -0.08509 -3.823e-24)
(1.019 0.5178 -2.26e-22)
(0.9833 -0.001339 -1.785e-20)
(0.857 -0.4651 0)
(1.015 0.03814 2.352e-24)
(0.5723 -0.1891 0)
(0.8557 -0.2257 -8.234e-22)
(-0.008316 -0.0275 0)
(-0.01525 -0.07553 5.177e-22)
(0.2923 -0.09665 -1.048e-22)
(1 -0.0003623 -2.535e-20)
(0.9356 -0.2287 0)
(1.295 0.02735 0)
(0.985 0.01286 8.358e-21)
(0.6806 -0.2043 4.79e-22)
(1.034 -0.367 1.33e-21)
(0.7261 -0.2284 6.702e-22)
(1.136 -0.1605 0)
(0.8869 -0.2326 0)
(1.136 -0.1375 2.739e-22)
(0.7925 -0.2307 -5.545e-22)
(0.9419 -0.1824 4.791e-22)
(0.9941 -0.0003473 0)
(0.5309 -0.1299 -1.093e-22)
(0.347 -0.1238 0)
(1.006 -0.4012 3.782e-22)
(1.12 -0.1088 -6.34e-23)
(0.4742 -0.166 6.283e-23)
(1.005 -0.0167 -2.212e-21)
(1.135 -0.1218 1.215e-22)
(0.8819 -0.04056 -6.34e-22)
(0.938 -0.2047 9.791e-22)
(1.006 -0.01505 0)
(1.106 -0.09035 0)
(1.309 0.5717 0)
(0.5373 -0.1887 -2.928e-22)
(0.9994 4.247e-06 0)
(1.053 -0.1938 -4.913e-22)
(1.07 -0.1198 5.788e-22)
(0.4413 -0.1566 -1.569e-26)
(0.908 -0.3982 2.682e-22)
(1.371 0.3508 1.803e-22)
(0.8945 -0.2065 -3.745e-22)
(0.9556 0.0203 1.814e-22)
(0.6163 -0.2095 -1.778e-22)
(0.999 -0.3616 -6.48e-22)
(0.9995 -6.67e-05 1.116e-21)
(1.048 -0.2517 1.43e-21)
(1.094 -0.1371 -3.362e-21)
(1.122 -0.09487 4.9e-23)
(1.126 -0.08424 -1.593e-23)
(0.8868 -0.2326 -9.928e-22)
(0.679 -0.2224 2.217e-22)
(0.8565 -0.2267 4.072e-22)
(1.18 -0.07367 0)
(1.018 -0.3881 4.799e-22)
(0.699 -0.2243 0)
(0.8033 -0.2362 2.275e-23)
(1.022 -0.00724 -6.352e-22)
(1.118 -0.06099 2.71e-23)
(0.8417 -0.2368 -4.43e-22)
(1.137 -0.1713 -1.256e-21)
(1.14 -0.1217 2.774e-22)
(0.6005 -0.1945 2.376e-22)
(1 0.002842 0)
(0.9997 0.003686 8.616e-21)
(0.9208 0.1268 -6.146e-22)
(0.9492 -0.2283 -4.116e-22)
(0.9935 0.55 0)
(0.9832 0.01528 -4.218e-21)
(1.005 0.0007125 -1.896e-21)
(0.9987 -0.3493 0)
(0.9796 -0.4204 0)
(0.709 -0.2232 3.327e-22)
(0.9288 -0.387 0)
(0.6308 -0.2111 8.952e-22)
(0.6576 -0.2131 0)
(1.11 -0.2377 -2.821e-22)
(1.021 0.04082 0)
(1.001 -0.0004435 3.209e-21)
(0.5566 -0.1942 2.818e-22)
(0.8146 -0.2332 -4.214e-22)
(1.133 -0.2553 8.452e-22)
(1.002 -0.0009016 1.533e-20)
(1.221 -0.02168 1.148e-21)
(1.138 -0.1139 0)
(0.8767 -0.2362 8.399e-22)
(0.9784 -0.00456 -2.41e-21)
(1.103 -0.1365 -7.892e-23)
(0.9826 0.01477 6.664e-21)
(0.7177 -0.224 -1.655e-22)
(0.4922 -0.1231 0)
(0.9292 -0.1978 4.666e-23)
(0.9965 0.000107 -2.242e-21)
(0.6825 -0.2227 -8.426e-22)
(0.8858 -0.2249 -1.94e-22)
(0.8186 -0.4263 -1.071e-20)
(1.008 0.0004331 -2.638e-21)
(1.149 -0.1758 -4.471e-22)
(0.4821 -0.1714 8.483e-23)
(0.9944 -0.001069 0)
(1.14 -0.1361 0)
(0.9898 0.02301 -9.937e-23)
(1.129 -0.08558 -1.93e-23)
(1.116 -0.1463 0)
(0.9897 0.009154 6.511e-21)
(0.9296 -0.2284 2.59e-21)
(1.143 -0.1526 -2.71e-22)
(0.323 -0.1693 0)
(1.105 -0.1753 -9.964e-22)
(1.102 -0.1607 -1.089e-22)
(1.133 -0.131 7.858e-22)
(1.129 -0.1403 3.297e-22)
(0.4283 -0.278 -2.406e-21)
(1.131 -0.1044 3.118e-23)
(1.203 0.5868 3.474e-23)
(1.134 -0.06405 -2.223e-23)
(0.5394 -0.1796 -1.044e-22)
(1.176 -0.1168 -1.71e-22)
(1.11 -0.09961 -5.919e-23)
(1.003 -0.0009129 0)
(1.144 -0.24 -9.335e-22)
(0.9873 0.01111 -2.001e-21)
(0.4091 -0.1067 -1.42e-21)
(1.037 0.006188 2.627e-21)
(1.103 -0.1621 8.055e-22)
(1.005 -6.152e-05 0)
(0.996 0.02314 2.116e-21)
(1.115 -0.1011 -5.011e-22)
(1.01 -0.3948 2.999e-22)
(0.9486 -0.2267 7.034e-22)
(1.006 -1.885e-05 1.318e-20)
(1.004 -0.002822 -5.857e-21)
(0.5498 -0.1918 -1.966e-22)
(1.353 0.1745 0)
(0.9527 -0.2243 1.11e-21)
(1.115 -0.09748 1.295e-22)
(0.6207 -0.1702 0)
(0.917 -0.3579 -2.393e-22)
(0.8817 -0.2326 -1.042e-22)
(0.9358 -0.3963 0)
(1.138 -0.1512 -1.356e-23)
(0.7942 -0.2357 -2.733e-21)
(1.21 -0.1006 0)
(1.006 -5.063e-05 -2.114e-21)
(1.249 -0.06398 1.075e-21)
(1.131 -0.1541 4.88e-23)
(1.112 -0.1755 1.806e-22)
(1.066 -0.1365 0)
(1.001 -0.02905 -9.699e-21)
(1.005 0.0006767 2.057e-22)
(1.103 -0.1504 -5.827e-22)
(0.8505 -0.4723 -5.381e-24)
(1.128 -0.1373 9.879e-23)
(0.4587 -0.1649 2.976e-22)
(1.037 0.007895 0)
(1.003 0.0005159 4.438e-22)
(0.7525 -0.2321 0)
(1.196 -0.1175 0)
(0.928 0.01883 -3.724e-21)
(1.157 -0.14 -7.786e-22)
(1.069 -0.1527 0)
(1.02 -0.02914 -2.443e-21)
(0.7678 -0.2337 1.382e-21)
(1.112 -0.2559 -2.185e-22)
(1.132 -0.1536 3.091e-22)
(0.9158 -0.1925 -3.277e-21)
(0.1418 -0.05288 0)
(0.4943 -0.1745 0)
(0.6569 -0.2141 -8.997e-23)
(0.6351 -0.2101 1.853e-22)
(0.8532 -0.2367 0)
(1.116 -0.1697 8.495e-22)
(1.113 -0.1381 1.58e-22)
(1.106 -0.1746 0)
(0.9444 -0.02108 -6.809e-22)
(1.187 -0.1198 1.163e-21)
(0.4443 -0.1521 0)
(0.9794 -0.2172 -8.814e-22)
(1.004 -0.0017 1.384e-20)
(1.15 -0.1771 6.067e-22)
(0.9856 -0.2683 0)
(0.6862 -0.08912 -1.514e-21)
(0.9994 1.782e-05 6.103e-22)
(1.004 -0.001831 -1.519e-20)
(-0.05297 -0.04211 0)
(1.077 -0.08423 2.291e-22)
(1.148 -0.2131 -8.748e-22)
(1.138 -0.1573 -5.086e-23)
(0.8204 -0.4463 0)
(0.8475 -0.2054 1.632e-21)
(1.153 -0.02963 0)
(1.106 -0.08986 -3.189e-23)
(0.7745 -0.06569 2.441e-21)
(1.124 -0.2932 0)
(1.018 0.003883 -2.248e-21)
(1.008 -0.0006252 0)
(1.253 0.233 0)
(0.9689 0.1498 0)
(1.041 -0.1992 1.568e-22)
(0.6922 -0.09664 0)
(0.9996 -0.4107 2.279e-21)
(0.648 -0.1872 0)
(1.002 -0.4049 -8.243e-22)
(0.9058 -0.1313 5.695e-21)
(0.7887 -0.1308 2.154e-21)
(0.9965 0.000176 4.617e-22)
(1.115 -0.07715 -7.399e-25)
(1.009 -0.1001 1.345e-22)
(1.138 -0.2597 -6.976e-22)
(-0.01422 -0.03886 1.476e-22)
(1.147 -0.1733 -1.456e-22)
(1.178 -0.1061 -9.136e-22)
(0.7612 -0.2282 1.129e-21)
(0.9964 0.0001121 2.498e-21)
(1.14 -0.122 -5.612e-24)
(1.129 -0.1002 9.25e-23)
(0.5216 -0.1829 0)
(0.7087 -0.1265 5.518e-22)
(0.9607 -0.2083 7.343e-22)
(1.137 -0.1515 -2.071e-22)
(1.074 0.8362 0)
(0.8513 -0.2356 1.038e-21)
(0.8643 -0.4516 1.045e-21)
(0.6878 -0.1824 -2.34e-22)
(1.134 -0.2738 1.805e-22)
(1.139 -0.1216 -1.722e-22)
(1.138 -0.1199 -8.47e-23)
(0.7907 -0.2238 6.099e-22)
(1.087 -0.1897 6.831e-22)
(0.2662 -0.01224 0)
(0.9846 -0.2704 0)
(0.9491 0.05426 1.001e-21)
(1.139 -0.2512 -2.518e-22)
(0.9671 -0.4035 6.343e-22)
(1.137 -0.1177 3.197e-23)
(1.011 -0.0003357 0)
(0.4674 -0.1434 -4.133e-23)
(0.726 -0.1727 -1.174e-21)
(0.7088 -0.2229 -3.089e-22)
(1.002 0.0005138 -4.693e-22)
(0.457 -0.1645 0)
(0.8102 -0.2366 0)
(1.104 -0.1341 -1.184e-21)
(0.9958 0.0002074 -1.401e-21)
(1.104 -0.1752 9.086e-22)
(0.564 -0.1901 0)
(1.048 -0.2 1.351e-21)
(1.177 -0.1311 -6.371e-22)
(0.9958 0.0001827 1.32e-21)
(0.7239 -0.2233 -5.877e-22)
(0.4511 -0.1579 0)
(0.8616 -0.2352 1.899e-21)
(1.002 -0.2095 0)
(0.9881 0.03313 -3.594e-22)
(1.143 -0.1398 1.279e-22)
(0.2727 -0.1847 0)
(1.026 0.00132 -1.435e-21)
(1.142 -0.2047 4.682e-22)
(1.103 -0.2226 0)
(1.117 -0.1692 -8.259e-22)
(0.781 -0.2347 0)
(1.044 -0.2482 -5.66e-22)
(1.147 -0.1735 0)
(1.083 -0.1378 -2.253e-22)
(0.7287 -0.2292 0)
(0.999 2.76e-05 -1.211e-21)
(0.723 -0.2232 5.526e-22)
(0.7087 -0.2044 9.499e-23)
(1.086 -0.07853 0)
(1.141 -0.1642 -7.085e-22)
(1.089 -0.0735 0)
(0.6807 -0.2035 0)
(0.6813 -0.2227 5.172e-23)
(0.9991 4.627e-06 9.874e-22)
(0.7266 -0.2283 -6.554e-22)
(0.7674 -0.234 0)
(1.133 -0.1393 0)
(0.06434 -0.02474 -1.319e-22)
(1.134 -0.1387 -1.033e-22)
(0.5379 -0.1888 4.384e-22)
(1.031 -0.2051 -1.713e-22)
(0.5674 -0.1797 0)
(1.109 -0.2457 0)
(1 -0.0003393 1.257e-20)
(0.1079 -0.04203 -1.226e-22)
(0.8248 -0.2365 9.419e-22)
(1.105 -0.1751 9.285e-22)
(0.5595 -0.1953 2.479e-22)
(0.6705 -0.216 -6.466e-22)
(0.6425 -0.2152 6.626e-22)
(0.7272 -0.2292 -2.71e-22)
(1.125 -0.09351 0)
(1.001 -0.0003873 0)
(0.7117 -0.1564 0)
(1.135 -0.1372 -6.655e-25)
(0.9965 0.0002015 0)
(0.7462 -0.2315 -1.063e-21)
(1.302 0.4121 0)
(1.149 -0.1713 -4.109e-22)
(1.042 -0.3569 -4.173e-22)
(1.006 0.0001972 -6.274e-21)
(0.882 -0.2322 0)
(0.507 -0.1591 0)
(1.018 0.004326 -6.303e-21)
(1.007 0.000201 0)
(1.065 -0.1384 0)
(0.7443 -0.2115 7.696e-22)
(0.6215 -0.171 -2.78e-22)
(0.6303 -0.2124 3.056e-22)
(0.7139 -0.2233 4.716e-22)
(0.9782 -0.05052 1.23e-23)
(1.138 -0.1463 0)
(0.8238 -0.221 -2.228e-21)
(1.004 -0.00179 0)
(0.7603 -0.2313 -4.52e-22)
(0.6541 -0.2159 0)
(1.118 -0.07995 6.692e-24)
(1.102 -0.08596 0)
(0.8594 -0.3049 -1.234e-21)
(1.001 0.0007088 0)
(1.006 -0.01591 5.665e-22)
(0.9843 -0.01821 2.408e-21)
(1.236 0.006721 1.345e-21)
(1.004 -0.001652 1.852e-21)
(0.9021 -0.1242 -2.76e-21)
(0.7943 -0.4773 4.644e-22)
(1.144 -0.1427 -3.529e-22)
(1.098 -0.1506 1.531e-21)
(0.9914 -0.003668 0)
(0.5301 -0.1505 -1.491e-22)
(1.143 -0.1361 2.072e-22)
(1.003 0.01247 0)
(1.131 -0.1348 -3.596e-22)
(0.9999 -9.878e-05 0)
(0.8843 -0.4345 1.347e-21)
(0.2343 -0.3062 -1.963e-21)
(1.135 -0.1586 -1.591e-23)
(1.154 -0.1137 0)
(1.104 -0.05896 5.999e-23)
(0.9923 -0.02821 3.967e-22)
(0.8791 -0.2334 0)
(0.9181 -0.2072 -9.401e-22)
(1.107 -0.09039 0)
(0.4317 -0.1589 -6.011e-23)
(1.126 -0.149 -2.855e-22)
(0.7024 0.9139 5.451e-22)
(1.091 -0.07003 -9.82e-22)
(1.107 -0.1988 -5.167e-22)
(0.9433 -0.3351 1.902e-23)
(0.7095 -0.134 0)
(1.001 0.01533 0)
(1.01 -0.1741 1.869e-21)
(1.081 -0.3453 0)
(1.368 0.2349 4.591e-23)
(0.4447 -0.153 2.048e-23)
(1.044 -0.1723 0)
(1.002 0.0007144 0)
(0.8668 -0.09135 2.326e-21)
(0.5563 -0.1939 -1.376e-22)
(1.094 -0.2515 -4.124e-21)
(1.038 -0.06335 7.687e-21)
(1.323 0.08992 0)
(0.2583 -0.2977 -5.789e-21)
(1.354 0.1469 -1.601e-22)
(0.8542 0.08881 2.578e-21)
(0.9419 -0.2293 -6.025e-22)
(0.5648 -0.1976 4.453e-22)
(0.7151 -0.1561 4.295e-22)
(1.005 -0.07677 -3.314e-23)
(1.014 0.04836 -1.903e-22)
(1.149 -0.1647 0)
(1.004 0.0004848 0)
(0.9967 0.0001002 0)
(1.095 -0.1706 4.98e-22)
(1.04 0.01614 -3.661e-23)
(1.148 -0.1498 7.091e-22)
(0.668 -0.07972 -1.398e-21)
(0.3594 0.2176 0)
(1.123 -0.1146 5.804e-22)
(0.9687 -0.0564 -2.201e-21)
(1.318 0.447 2.043e-22)
(1.138 -0.2556 6.304e-22)
(1.01 -0.01306 5.243e-21)
(0.7687 -0.1657 1.793e-23)
(0.6828 -0.2212 -1.458e-22)
(0.972 -0.05453 2.81e-21)
(0.9528 -0.2198 -2.926e-21)
(0.3566 -0.1251 -1.139e-21)
(0.4888 -0.1017 0)
(1.135 -0.2263 0)
(0.3455 -0.341 -1.742e-21)
(0.9969 -0.1981 0)
(0.6238 -0.2111 0)
(0.9869 0.001061 7.147e-21)
(1.158 -0.1353 3.531e-22)
(1.138 -0.2599 7.163e-22)
(0.9826 -0.01551 0)
(0.9187 -0.2294 1.161e-21)
(0.8331 -0.2367 0)
(0.7653 -0.211 -3.821e-22)
(0.9994 -6.972e-05 2.109e-22)
(0.9563 -0.01131 -7.913e-22)
(0.8029 -0.1703 0)
(0.9083 -0.04862 4.39e-23)
(1.025 -0.333 -7.645e-22)
(0.3588 -0.1203 0)
(0.8178 -0.2318 6.038e-22)
(0.9467 -0.3993 0)
(1.14 -0.2472 -1.167e-22)
(0.4661 -0.1673 0)
(1.225 -0.09325 3.438e-22)
(0.9969 8.004e-05 -1.07e-21)
(0.8301 -0.4837 0)
(1.16 0.148 -8.351e-22)
(1.005 0.0004852 0)
(0.9481 -0.3588 1.516e-23)
(0.3601 -0.1323 1.42e-22)
(0.9026 -0.1907 -5.524e-22)
(1.332 0.06776 -9.855e-22)
(1.127 -0.07887 -7.266e-23)
(1.132 -0.1735 -1.302e-22)
(0.4397 -0.1562 -5.5e-26)
(0.5804 -0.05041 -9.816e-23)
(1.13 -0.1164 0)
(1.02 0.0413 -7.501e-22)
(0.995 0.008659 2.167e-21)
(1.138 -0.2145 0)
(0.8921 -0.3874 -1.839e-22)
(0.6929 -0.224 -9.818e-22)
(0.9547 -0.2237 0)
(0.3532 0.4065 -1.624e-21)
(0.9958 -0.4147 -1.448e-21)
(0.9685 -0.03061 -1.062e-22)
(1.071 -0.03154 -1.386e-21)
(0.9973 -0.4153 -1.446e-21)
(0.985 -0.08091 2.267e-21)
(1.214 -0.07391 0)
(1.011 0.001112 0)
(0.6838 -0.216 5.654e-23)
(0.282 -0.1831 -8.332e-24)
(1.036 -0.1958 -1.391e-21)
(0.8468 -0.2367 0)
(0.81 -0.2331 0)
(0.9911 0.006393 -5.9e-21)
(0.9675 0.009894 1.805e-21)
(0.5721 -0.2005 0)
(1.027 -0.2119 1.846e-21)
(0.5976 -0.2042 0)
(1.142 -0.1492 0)
(0.6036 -0.2073 -4.46e-22)
(0.6411 -0.1977 -3.019e-22)
(1.126 -0.1342 -8.177e-23)
(1.283 -0.00873 -1.751e-22)
(1.207 -0.1065 -1.322e-21)
(0.6581 -0.09611 8.097e-22)
(1.135 -0.1482 -3.276e-22)
(1.115 -0.0816 -1.193e-23)
(0.7921 -0.2352 1.534e-21)
(1.139 -0.1383 4.381e-22)
(0.6785 -0.2072 7.996e-22)
(0.4183 0.5915 6.676e-22)
(0.6508 -0.2173 -1.895e-23)
(0.3056 -0.204 5.979e-23)
(0.3853 -0.1386 0)
(0.8072 -0.2332 0)
(1.011 -0.0002773 0)
(1.009 -0.003758 7.338e-21)
(0.7294 -0.2226 4.374e-22)
(0.6253 -0.2051 0)
(1.116 -0.1786 -1.374e-21)
(1.001 1.716e-05 0)
(0.9095 -0.4061 -6.473e-22)
(0.8823 -0.2327 5.376e-22)
(1.116 -0.09667 3.336e-22)
(0.6302 -0.2132 0)
(1.107 -0.1453 -1.197e-21)
(0.7511 -0.2313 -1.166e-21)
(1.115 0.4175 -1.636e-22)
(0.9999 0.00137 -3.023e-20)
(1.09 -0.1863 0)
(1.111 -0.0813 2.21e-22)
(1.014 -0.3948 0)
(1.099 -0.08413 0)
(0.5467 -0.1832 5.708e-23)
(0.8685 -0.2711 1.478e-21)
(0.9939 -0.1777 3.522e-21)
(1.063 -0.1912 0)
(1.127 -0.1026 3.824e-23)
(1.134 -0.09456 0)
(0.666 -0.1899 0)
(0.9239 -0.4127 8.155e-22)
(1.141 -0.1304 -2.52e-22)
(0.6574 -0.2172 0)
(0.9856 -0.4271 -1.709e-21)
(0.9855 -0.02048 -3.542e-22)
(0.5933 -0.2218 0)
(0.4432 -0.1581 0)
(0.7091 -0.2037 0)
(1.112 -0.1712 1.402e-21)
(0.3112 -0.3242 -2.575e-21)
(1.006 0.02698 3.346e-23)
(0.5422 -0.14 1.999e-21)
(0.6849 -0.1308 0)
(0.9956 -0.0004272 0)
(1 -3.572e-05 -5.742e-21)
(1.16 -0.1363 -1.492e-24)
(0.9484 -0.2261 2.254e-21)
(0.3503 -0.1251 -1.475e-22)
(0.4174 -0.1505 2.096e-23)
(1.149 -0.1645 1.079e-22)
(1.037 -0.3824 0)
(0.6875 -0.2234 -1.191e-21)
(1.097 -0.1823 0)
(1.114 -0.1461 0)
(0.9965 -0.03421 -4.419e-21)
(0.6971 -0.2244 -2.051e-21)
(0.5643 -0.1007 0)
(0.6963 -0.2249 -9.655e-22)
(1.119 -0.2251 0)
(0.4448 -0.1576 5.817e-23)
(0.6911 -0.2217 -7.737e-22)
(0.9921 -0.002237 1.416e-22)
(0.6757 -0.08916 0)
(0.5673 -0.1937 -3.519e-22)
(0.9997 -0.001334 -2.844e-20)
(1.122 -0.1673 -5.65e-22)
(0.995 -0.0004203 5.873e-21)
(0.9882 -0.003109 8.083e-21)
(1.144 -0.1526 -1.884e-22)
(1.04 -0.1628 0)
(0.9633 -0.1018 -9.322e-21)
(0.9988 -0.003295 3.366e-21)
(1.13 -0.1345 4.602e-23)
(1.007 0.008941 0)
(1.299 0.4376 0)
(1.036 -0.1483 -1.322e-21)
(0.7525 -0.1529 3.555e-22)
(1.135 -0.1298 2.526e-22)
(1.147 -0.2222 1.792e-22)
(1.146 -0.1652 0)
(0.7572 -0.2309 3.227e-21)
(1.14 -0.1249 -2.604e-22)
(0.9992 -0.003389 4.724e-21)
(1.026 -0.0528 -3.768e-21)
(1.042 -0.1932 6.968e-22)
(1.15 -0.2121 -2.434e-22)
(0.6357 -0.2142 -8.07e-23)
(0.7128 -0.2269 0)
(1.059 -0.07534 4.287e-24)
(0.7006 -0.225 -7.127e-22)
(0.4346 -0.1386 -7.964e-21)
(1.104 -0.1759 1.309e-21)
(1.116 -0.3061 0)
(1.305 0.01573 -2.363e-21)
(1.129 -0.1174 4.101e-23)
(1.084 -0.1336 0)
(0.8867 0.2349 3.801e-22)
(0.7308 -0.1623 0)
(0.9703 -0.01538 2.874e-21)
(1.029 -0.2067 3.336e-21)
(0.4775 -0.1546 5.686e-23)
(1.125 -0.1927 0)
(0.9964 0.0003662 -1.192e-21)
(0.7173 -0.4673 1.503e-21)
(0.8617 -0.2297 0)
(1.136 -0.1079 -1.797e-23)
(1.111 -0.3004 1.972e-22)
(1.142 -0.1508 -6.393e-23)
(1.124 -0.1396 4.259e-22)
(0.9825 -0.2124 0)
(0.8774 -0.2191 6.004e-22)
(1.136 -0.108 -5.309e-23)
(0.5416 -0.1866 -7.061e-24)
(1.114 -0.3016 -1.86e-21)
(0.4291 -0.1597 6.493e-23)
(0.9961 -0.0009767 0)
(1.133 -0.08862 5.806e-23)
(1.045 -0.1997 0)
(0.9883 -0.02502 0)
(1.006 -0.2138 0)
(1.177 -0.1262 3.074e-22)
(0.9999 2.672e-06 -9.692e-22)
(1.112 -0.2337 7.945e-22)
(0.4838 -0.1629 0)
(1.013 -0.06523 0)
(0.9028 0.2364 -1.528e-21)
(1.007 -0.1919 0)
(0.4757 -0.05201 0)
(1.081 -0.1581 1.395e-21)
(1.001 2.284e-05 1.909e-22)
(0.9508 -0.2281 -2.914e-23)
(0.8111 -0.2363 -5.501e-23)
(1.018 -0.003345 4.992e-21)
(0.9489 0.2062 5.855e-22)
(1.043 0.03014 2.111e-22)
(0.8738 -0.2331 8.091e-22)
(0.8888 -0.2346 -1.114e-21)
(1.139 -0.1933 3.31e-22)
(0.9788 -0.05228 0)
(0.4566 -0.1594 -2.903e-23)
(0.4005 -0.144 2.32e-22)
(1.145 -0.2402 -1.069e-22)
(1.149 -0.1777 5.451e-22)
(0.7732 -0.2261 -3.491e-22)
(1.013 -0.07553 0)
(0.9961 0.0004226 -1.844e-21)
(1.135 -0.1166 -1.432e-22)
(1.008 0.01143 2.484e-23)
(0.7863 -0.2338 0)
(0.849 -0.4037 -5.623e-22)
(1.068 -0.1928 0)
(1.111 -0.2997 1.962e-21)
(0.4288 -0.167 -3.308e-23)
(1.034 -0.1721 0)
(0.9988 0.005655 -5.993e-21)
(0.291 -0.1135 0)
(0.73 -0.2292 0)
(0.7998 -0.2335 1.162e-21)
(1.135 -0.1 -9.12e-23)
(1.364 0.3531 0)
(0.8519 -0.2217 -5.376e-22)
(0.7173 -0.1312 5.508e-22)
(1.097 -0.08458 0)
(1.147 -0.1564 0)
(0.8953 0.005051 -2.471e-21)
(0.5462 -0.02856 4.673e-23)
(0.6191 -0.2055 2.019e-22)
(1.124 -0.08144 0)
(1.134 -0.2366 -1.224e-21)
(1.148 -0.1698 0)
(0.758 -0.4512 -1.658e-21)
(0.446 -0.06727 1.263e-22)
(0.5877 -0.2026 5.986e-23)
(1.151 -0.1907 1.375e-22)
(0.7147 -0.2273 0)
(1.157 -0.112 0)
(1.135 -0.1372 -3.892e-22)
(1.128 -0.114 1.276e-22)
(0.8953 -0.193 0)
(0.3735 -0.1304 0)
(1.079 -0.0976 -3.748e-22)
(1.144 -0.2397 -6.232e-22)
(1.069 -0.119 0)
(1.143 -0.1908 5.848e-22)
(0.9997 3.705e-06 0)
(1.007 0.0003996 1.901e-20)
(1.083 -0.1597 -1.392e-21)
(1.013 -0.0669 1.59e-23)
(0.6971 -0.2195 5.242e-22)
(0.9271 -0.02472 6.356e-21)
(0.6038 -0.1304 -2.285e-21)
(0.6048 -0.2081 3.455e-22)
(0.9935 0.01006 -4.823e-21)
(1.368 0.1926 0)
(1.147 -0.1526 5.495e-23)
(1.133 -0.1278 0)
(-0.00698 0.05908 0)
(1.07 -0.2887 -6.985e-22)
(0.63 -0.2104 1.187e-22)
(0.1714 -0.05985 0)
(0.771 -0.1666 -5.328e-24)
(0.5896 -0.2039 1.196e-21)
(0.755 -0.2232 7.095e-22)
(1.144 -0.1412 0)
(1.146 -0.1165 2.924e-21)
(1.147 -0.1638 1.314e-22)
(1.105 -0.09461 -2.116e-22)
(0.9442 -0.3833 -2.194e-22)
(1.092 -0.1808 0)
(1.062 -0.07818 0)
(0.7875 -0.1099 -1.252e-21)
(1.145 -0.08986 1.6e-21)
(0.7864 -0.2351 6.513e-22)
(1.114 -0.2612 -4.677e-22)
(1.131 -0.08683 7.901e-24)
(0.6443 -0.1884 9.044e-23)
(0.4187 -0.1513 -5.839e-23)
(0.6464 -0.2043 1.927e-22)
(1.1 -0.1559 0)
(0.6003 -0.1777 3.487e-22)
(1.092 0.3139 -4.72e-22)
(1.142 -0.04137 -1.845e-21)
(1.142 -0.1789 -1.918e-22)
(0.3786 -0.127 -2.124e-21)
(1.027 0.07193 0)
(1.299 0.03867 0)
(0.7672 -0.2288 0)
(0.6467 -0.2153 2.109e-22)
(0.7201 -0.2273 1.131e-21)