/*--------------------------------*- C++ -*----------------------------------*\
  =========                 |
  \\      /  F ield         | OpenFOAM: The Open Source CFD Toolbox
   \\    /   O peration     | Website:  https://openfoam.org
    \\  /    A nd           | Version:  8
     \\/     M anipulation  |
\*---------------------------------------------------------------------------*/
FoamFile
{
    version     2.0;
    format      ascii;
    class       volVectorField;
    location    "35";
    object      U;
}
// * * * * * * * * * * * * * * * * * * * * * * * * * * * * * * * * * * * * * //

dimensions      [0 1 -1 0 0 0 0];

internalField   nonuniform List<vector> 
127143
(
(0.07763 -0.00223 1.385e-22)
(-0.002297 -0.01083 -1.091e-22)
(0.001741 0.008609 1.061e-22)
(0.002338 0.01055 0)
(0.6785 0.2274 0)
(0.002098 0.01041 0)
(0.6811 0.4109 6.268e-22)
(0.6961 0.3183 0)
(0.6089 0.2765 1.812e-21)
(0.6656 0.02744 3.233e-21)
(0.3765 0.5465 0)
(0.6241 0.3854 8.629e-23)
(0.03601 -0.01384 3.09e-23)
(0.003086 0.01129 0)
(0.317 -0.3251 0)
(0.7118 -0.05125 3.845e-23)
(-0.00462 -0.01814 1.432e-22)
(0.7583 -0.06932 0)
(0.6679 -0.1479 -7.376e-22)
(0.7891 -0.005884 9.823e-23)
(0.9384 -0.2245 0)
(0.2957 -0.1071 1.171e-22)
(1.03 -0.1619 6.633e-22)
(1.117 -0.1031 8.475e-23)
(0.293 -0.1068 3.502e-22)
(1.093 -0.1759 0)
(1.167 -0.01134 8.165e-23)
(1.165 0.01542 -5.956e-21)
(0.9187 -0.4238 0)
(0.8027 -0.0542 5.422e-21)
(1.098 -0.07634 7.407e-24)
(1.069 -0.1775 9.489e-22)
(1.247 0.3175 7.887e-22)
(0.889 -0.2186 -1.171e-21)
(0.8946 -0.08353 6.14e-23)
(1.261 0.3234 7.729e-22)
(0.6407 -0.2116 -8.852e-22)
(1.049 -0.1668 6.447e-22)
(1.122 -0.1035 3.97e-23)
(1.062 -0.04988 6.535e-23)
(0.6675 -0.1461 -2.489e-22)
(1.121 0.2896 0)
(1.098 0.2774 5.539e-22)
(0.07295 -0.0241 -3.219e-22)
(0.7605 -0.06525 0)
(0.8962 -0.2187 1.136e-21)
(0.9301 -0.4257 0)
(0.6687 -0.2113 -3.51e-22)
(1.144 -0.1965 -2.33e-23)
(1.116 -0.09284 -3.019e-23)
(0.7647 -0.05569 4.763e-23)
(0.9502 -0.03536 2.886e-21)
(1.145 -0.1383 -3.304e-22)
(1.094 -0.06297 -7.481e-24)
(0.9998 -0.002556 -6.003e-21)
(1.117 -0.283 -2.051e-21)
(0.9992 -0.002747 5.731e-21)
(1.111 -0.1027 -1.389e-22)
(1.001 -0.01859 4.177e-22)
(1.095 -0.05948 9.211e-22)
(0.676 -0.1805 -6.736e-22)
(0.7495 -0.2108 0)
(1.126 -0.08911 3.021e-23)
(1.002 0.001075 0)
(1.177 -0.1131 3.527e-21)
(1.013 -0.2756 -5.499e-22)
(1.063 0.02107 1.056e-21)
(1.125 -0.09099 0)
(1.125 -0.09095 0)
(0.9984 0.0006422 3.128e-21)
(1.11 -0.09277 3.774e-23)
(1.193 -0.001807 -2.319e-21)
(0.6194 -0.1043 2.579e-22)
(1.002 -0.01788 0)
(1.008 0.006027 8.965e-21)
(1.199 0.0132 5.119e-21)
(1.023 0.04262 0)
(0.7128 -0.2246 4.196e-22)
(1.118 -0.2829 1.023e-21)
(1.001 0.001472 -4.261e-21)
(0.9328 -0.4182 -2.539e-21)
(0.8318 -0.01195 -2.209e-22)
(0.9354 -0.2202 2.475e-21)
(1.062 -0.07074 -3.505e-23)
(0.5667 -0.1407 0)
(0.7083 -0.2229 -7.878e-22)
(1.128 -0.1123 -1.261e-22)
(1.252 0.1017 7.062e-22)
(1.01 -0.2731 0)
(1.22 0.6132 0)
(0.9952 -0.0296 -6.465e-21)
(0.9569 -0.1619 -2.399e-21)
(1.203 0.5922 0)
(0.9392 -0.2242 -4.226e-22)
(1.022 -0.2061 1.833e-21)
(1.05 -0.04369 1.047e-21)
(1.12 0.2825 0)
(1.085 -0.08495 6.983e-23)
(0.7777 -0.2302 6.404e-22)
(1.062 0.02547 0)
(1.001 0.001429 7.814e-21)
(1.145 -0.1968 -1.896e-22)
(0.9739 0.8357 0)
(1.131 -0.1302 1.258e-22)
(0.7089 -0.2228 7.299e-22)
(0.7765 -0.2304 0)
(1.145 -0.175 -1.185e-22)
(0.9982 0.0006445 -2.34e-21)
(0.9007 -0.3529 -2.575e-22)
(1.005 -0.001304 3.538e-20)
(0.3258 -0.3258 -3.4e-21)
(1.241 0.1096 6.428e-22)
(0.9794 -0.2177 7.716e-22)
(0.3533 0.2432 9.16e-22)
(0.9957 0.02201 -1.652e-21)
(1.125 -0.1803 1.174e-22)
(0.9985 0.05481 0)
(1.008 0.006273 -4.715e-21)
(1.023 0.04193 -2.728e-22)
(0.01025 0.0531 1.212e-22)
(1.005 -0.00149 -2.951e-20)
(0.9017 -0.226 1.233e-21)
(1.028 -0.3632 -5.117e-22)
(1.096 -0.1109 -7.259e-23)
(0.9304 -0.4269 4.809e-21)
(1.023 -0.1359 7.618e-23)
(0.7875 -0.2234 0)
(1.03 -0.007746 0)
(1.194 -0.1071 -2.861e-22)
(1.099 -0.3141 0)
(0.789 -0.2334 1.843e-21)
(0.9634 -0.2209 0)
(1.13 -0.103 -7.338e-23)
(0.7129 -0.2243 -2.058e-22)
(-0.007387 -0.02568 -5.809e-22)
(0.79 -0.2334 -1.938e-21)
(0.949 -0.07738 -1.659e-21)
(0.9549 -0.2186 -2.145e-21)
(0.8405 -0.4641 2.419e-21)
(0.9896 -0.0746 -3.912e-21)
(1.029 -0.194 -2.609e-22)
(0.9904 0.04765 -7.602e-22)
(1.1 -0.1618 0)
(1.007 -0.1983 -1.09e-21)
(1.144 -0.1381 4.901e-22)
(1.296 0.3097 4.511e-22)
(0.008278 0.08026 -2e-21)
(1.002 0.0009042 -1.938e-23)
(0.9628 -0.2209 -8.542e-23)
(1.057 0.8336 -6.501e-24)
(1.132 -0.1217 -1.317e-22)
(1.143 -0.2194 3.498e-22)
(1.056 -0.1589 0)
(0.9018 -0.1619 0)
(0.5711 -0.4072 -8.828e-22)
(0.5691 -0.141 0)
(1.111 -0.1019 -1.328e-22)
(1.052 -0.3629 0)
(0.6687 -0.211 -4.672e-25)
(1.087 -0.09143 1.605e-22)
(1.105 -0.07983 -6.232e-25)
(0.6436 -0.3181 2.034e-21)
(0.9966 -0.03047 5.848e-21)
(0.788 -0.2333 0)
(1.104 -0.2897 -3.836e-22)
(1.18 -0.1133 -7.195e-22)
(0.6534 -0.2151 -1.022e-21)
(0.8599 -0.3099 2.64e-21)
(1.356 0.2691 -8.073e-23)
(0.9495 0.05626 2.601e-22)
(0.4452 -0.1557 1.588e-22)
(1.006 -0.1989 0)
(1.127 -0.1918 -5.809e-22)
(1.088 -0.3024 7.811e-22)
(0.9897 -0.001097 0)
(0.4967 -0.1531 4.541e-24)
(1.264 0.3736 -3.077e-23)
(1.193 -0.1078 -2.779e-22)
(1.124 -0.1134 -2.071e-22)
(0.9558 -0.03353 0)
(1.087 -0.3032 -8.03e-22)
(1.022 -0.0481 5.142e-21)
(0.4755 -0.1362 2.952e-23)
(0.4965 -0.1523 -4.638e-24)
(1.099 -0.3155 -7.891e-22)
(0.75 -0.2101 0)
(1.046 0.151 0)
(0.3719 0.2603 0)
(1.119 -0.1033 0)
(0.9748 -0.04352 2.123e-22)
(1.131 -0.152 1.272e-22)
(1.141 -0.1487 -1.176e-22)
(0.953 -0.07588 0)
(0.3952 0.5876 -3.11e-22)
(-0.004823 -0.02953 5.255e-22)
(0.8508 -0.2256 -2.428e-21)
(1.001 1.821e-05 -2.165e-22)
(0.9998 3.628e-06 -5.117e-23)
(0.4406 0.0137 2.311e-24)
(0.9893 0.03124 4.265e-22)
(1.021 0.01312 -1.853e-21)
(0.9262 0.01837 8.861e-22)
(0.8779 -0.0395 2.576e-21)
(0.6422 -0.2116 9.025e-26)
(0.003799 0.01872 5.562e-22)
(1.123 -0.08191 2.739e-24)
(1.012 -0.1136 -8.935e-22)
(1.139 -0.1944 -6.477e-22)
(0.8067 -0.05672 -1.297e-20)
(0.9957 0.02144 7.922e-22)
(0.9021 -0.1335 1.831e-21)
(0.5475 -0.1467 -1.038e-22)
(0.9814 -0.00722 -1.305e-20)
(1.357 0.2725 8.306e-23)
(0.7901 -0.2339 0)
(0.652 -0.01974 3.261e-23)
(0.4458 -0.1572 -9.273e-23)
(1.136 -0.2135 3.326e-22)
(0.9206 -0.2296 0)
(1.013 -0.1126 -6.287e-22)
(1.255 0.3675 -2.118e-23)
(1.003 0.0104 0)
(1.143 -0.2191 -3.876e-22)
(1.149 -0.1326 0)
(1.077 -0.08882 -5.134e-23)
(0.4648 -0.1634 -9.035e-23)
(1.109 -0.2917 2.765e-22)
(1.05 -0.1652 0)
(0.5283 -0.1836 -1.666e-22)
(0.7718 -0.2265 4.504e-22)
(0.9462 -0.2234 1.278e-21)
(1.021 -0.04875 -2.289e-21)
(0.6244 -0.1056 0)
(0.03901 -0.02791 -3.73e-22)
(0.9457 -0.2234 -2.909e-22)
(1.07 -0.1049 3.903e-22)
(0.7883 -0.2333 -1.084e-21)
(0.1904 -0.01566 1.551e-22)
(1.021 0.01261 2.873e-21)
(1.121 -0.1563 -4.239e-23)
(1.141 -0.1485 0)
(1.214 -0.08649 9.454e-22)
(0.5712 -0.1835 -1.761e-22)
(1.052 -0.3627 -5.163e-22)
(1.131 -0.1278 0)
(0.01012 0.05293 -2.363e-22)
(1.143 -0.2231 0)
(1.165 -0.02142 0)
(0.3379 -0.1027 -6.194e-22)
(0.9987 0.0009007 -2.111e-21)
(1.245 0.2049 0)
(1.079 -0.1159 0)
(1.124 -0.2534 0)
(0.9898 -0.2099 0)
(1.128 -0.2725 7.907e-22)
(0.9187 -0.3535 -1.146e-22)
(1.029 -0.007884 0)
(1.347 0.3474 -9.209e-22)
(1.101 -0.2688 4.719e-22)
(0.9158 0.1314 -3.935e-22)
(0.8815 -0.2242 5.936e-24)
(0.998 -0.05059 1.478e-21)
(0.9594 -0.1598 6.428e-23)
(0.9891 0.04717 0)
(1.175 -0.1067 -1.497e-21)
(1.197 -0.09974 6.387e-22)
(0.7177 -0.2262 9.25e-22)
(0.548 -0.4187 0)
(0.7486 -0.2905 0)
(1.143 -0.09 -7.39e-22)
(1.124 -0.2111 -9.096e-23)
(0.9889 -0.001144 0)
(0.6613 -0.206 0)
(1.12 -0.157 0)
(1.127 -0.08699 0)
(1.131 -0.1516 0)
(0.9789 -0.2178 -7.657e-22)
(1.143 -0.1761 1.401e-24)
(0.9808 -0.003698 -5.091e-21)
(1.067 -0.3024 -6.34e-22)
(0.9909 -0.001105 0)
(1.041 -0.03934 0)
(1.13 -0.1301 0)
(0.9896 0.00955 -6.783e-21)
(1.008 0.02002 -1.671e-22)
(-0.01623 -0.03442 4.195e-22)
(0.8463 -0.2349 -5.415e-22)
(0.9965 0.02335 9.067e-22)
(1.139 -0.1561 -1.233e-24)
(0.953 -0.03415 1.475e-21)
(1.055 -0.1578 -1.652e-22)
(1.068 -0.2026 0)
(1.069 -0.1057 -7.475e-22)
(1.125 -0.2105 0)
(0.9858 -0.01869 1.349e-21)
(0.9025 -0.3731 -2.092e-23)
(1.106 -0.0937 0)
(0.34 -0.1254 -6.15e-23)
(0.5716 -0.1838 3.408e-22)
(1.141 -0.08892 0)
(1.11 -0.1223 -3.482e-22)
(1.046 -0.2499 1.565e-21)
(0.9337 -0.2785 1.443e-21)
(1.123 -0.1799 1.258e-22)
(1.067 -0.08349 -1.326e-22)
(0.7506 -0.4267 -1.059e-21)
(1.139 -0.194 5.367e-22)
(0.9808 -0.007271 8e-21)
(0.8448 -0.2046 4.247e-24)
(1.134 -0.1194 -8.79e-25)
(1.144 -0.1706 0)
(0.3393 -0.169 -7.199e-23)
(1.125 -0.2726 -7.055e-22)
(0.9912 -0.001143 -1.585e-21)
(0.9844 0.0128 0)
(1.311 0.4182 4.158e-23)
(1.061 -0.1678 3.378e-22)
(1.104 -0.1159 5.052e-22)
(0.9918 -0.1352 -2.719e-22)
(0.9397 -0.01533 2.378e-21)
(1.026 -0.1602 1.538e-22)
(1.098 -0.08267 -4.231e-24)
(1.028 -0.0255 2.773e-21)
(1.124 -0.253 2.927e-22)
(1.313 0.4181 0)
(1.1 -0.1508 0)
(0.9098 -0.03748 -4.493e-21)
(0.4247 -0.04542 -7.063e-23)
(1.099 -0.03678 -1.989e-22)
(1.218 0.429 1.657e-22)
(0.7353 -0.2168 5.322e-22)
(1.008 0.01969 1.06e-21)
(0.8981 -0.0834 -1.861e-22)
(1.001 1.405e-05 0)
(0.9998 2.838e-06 0)
(0.8988 -0.1563 0)
(0.9109 -0.3518 0)
(1.127 -0.1922 0)
(0.7343 -0.2166 -2.581e-22)
(0.8617 -0.2344 2.008e-25)
(0.9898 -0.07275 5.224e-21)
(1.136 -0.213 -6.223e-22)
(1.138 -0.1398 2.85e-22)
(1.132 -0.1506 0)
(0.3986 -0.1285 1.38e-21)
(1.138 -0.1559 3.595e-22)
(0.9401 -0.2254 -1.64e-21)
(1.025 -0.2049 -6.883e-25)
(1.119 -0.1338 -4.148e-22)
(1.217 -0.08589 0)
(1.121 -0.1289 0)
(0.7221 -0.1726 5.887e-22)
(0.5171 -0.1669 9.769e-23)
(1.132 -0.151 0)
(0.9332 0.05252 0)
(0.9252 -0.226 -2.557e-21)
(0.9888 -0.2106 6.321e-22)
(1.295 0.2707 -5.662e-22)
(0.981 -0.01557 1.259e-21)
(1.094 -0.03477 1.223e-22)
(0.6547 -0.1991 1.863e-22)
(1.126 -0.08921 0)
(0.7836 -0.1311 7.652e-22)
(1.112 -0.08506 0)
(1.118 -0.09563 2.728e-23)
(1.004 0.005033 1.109e-22)
(0.9897 0.0305 4.969e-22)
(0.9687 -0.008199 -1.331e-21)
(1.024 -0.1958 3.687e-21)
(0.9831 -0.003435 -1.332e-22)
(0.5868 -0.2141 9.83e-22)
(1.026 -0.02714 -4.249e-21)
(1.098 -0.1199 4.306e-24)
(1.112 -0.08711 0)
(0.9792 -0.04214 -8.835e-21)
(1.01 -0.09701 -1.376e-22)
(1.117 -0.1084 -1.305e-22)
(0.3111 -0.1969 -7.925e-23)
(0.7563 -0.2271 0)
(0.978 -0.004692 -8.124e-22)
(0.8538 -0.1815 -1.203e-21)
(1.054 -0.1377 0)
(1.118 -0.1395 1.71e-22)
(1.046 -0.2531 1.98e-21)
(0.9986 0.05394 0)
(0.9061 -0.0662 8.126e-24)
(0.9847 0.09422 -5.415e-24)
(1.067 -0.05075 -7.892e-23)
(0.8531 -0.2263 2.278e-22)
(0.9559 -0.1923 0)
(1.01 -0.01344 3.874e-21)
(0.8883 -0.2511 0)
(0.4919 -0.1716 2.43e-22)
(1.123 -0.2807 -3.068e-22)
(1.117 -0.1021 0)
(1.094 -0.08355 -3.403e-23)
(0.8927 -0.2523 -1.977e-21)
(1.102 -0.07637 1.17e-23)
(0.9314 0.05071 5.174e-22)
(0.9963 -0.04945 -3.992e-22)
(1.047 -0.07977 4.231e-23)
(1.003 0.009978 -2.14e-22)
(0.9747 -0.2165 0)
(0.4785 -0.1361 0)
(0.9891 0.09354 0)
(1.136 -0.1356 -2.928e-22)
(0.712 -0.2226 0)
(1.132 -0.1081 -6.915e-23)
(0.9999 0.001387 -4.534e-21)
(1.125 -0.1135 9.244e-23)
(0.9323 -0.3941 0)
(1.127 -0.1608 -2.642e-22)
(1.029 -0.1923 0)
(0.6822 -0.2127 0)
(1.026 -0.3619 -5.115e-22)
(1.023 -0.2057 -1.365e-21)
(0.8466 -0.2339 6.919e-23)
(1.117 -0.2096 -1.796e-22)
(1.1 -0.1346 1.888e-21)
(1.006 -0.3927 6e-22)
(0.6539 -0.2151 6.815e-22)
(0.5504 -0.1901 3.969e-21)
(0.8011 -0.2342 0)
(0.9995 0.001014 0)
(0.7714 -0.2269 0)
(0.9612 0.1523 5.11e-22)
(1.093 0.2666 -3.308e-22)
(0.9824 -0.1815 0)
(1.215 -0.08673 0)
(1.009 -0.1324 -6.566e-22)
(1.005 -4.805e-05 4.775e-21)
(0.7937 -0.2337 0)
(0.5143 -0.1672 0)
(0.8697 -0.1449 -3.157e-21)
(1.224 -0.04043 2.491e-23)
(1.004 0.004931 0)
(1.141 -0.1691 1.055e-22)
(0.9679 -0.2185 -1.414e-21)
(0.9509 -0.0344 -1.52e-21)
(0.985 -0.01765 1.397e-21)
(0.9943 -0.0008372 -1.923e-20)
(1.118 -0.09308 0)
(0.9437 -0.07903 6.127e-22)
(0.9165 -0.3588 2.349e-22)
(0.9627 0.05121 -1.243e-21)
(1.088 -0.08536 -5.16e-23)
(0.9796 0.01335 -1.873e-22)
(0.6855 -0.4536 -2.821e-22)
(0.9658 -0.008842 -5.43e-22)
(0.5473 -0.145 -9.757e-23)
(0.8818 -0.2311 0)
(1.127 -0.1365 6.303e-26)
(1.135 -0.1352 -9.807e-23)
(1.048 -0.1889 3.109e-21)
(0.894 0.05894 8.514e-22)
(0.6285 -0.2071 -4.069e-22)
(1.115 -0.1323 -2.478e-22)
(1.227 -0.07369 1.665e-21)
(0.6505 -0.2118 0)
(1.093 -0.1314 2.997e-21)
(1.13 -0.103 0)
(1.186 -0.1072 8.537e-22)
(0.9356 -0.2052 0)
(0.426 0.231 -1.62e-21)
(1.186 -0.1081 0)
(0.9925 -0.00055 4.078e-21)
(1.014 0.03861 -2.065e-23)
(1.048 -0.1922 9.873e-22)
(0.8791 -0.2302 1.821e-21)
(0.9995 -6.725e-05 0)
(0.7876 -0.2294 0)
(0.9847 -0.1528 0)
(1.095 -0.1103 2.905e-22)
(1.06 -0.167 0)
(1.007 -0.1006 0)
(1.008 0.0004581 1.126e-20)
(0.4934 -0.3643 0)
(0.9867 -0.1505 0)
(0.5635 -0.1956 -6.064e-22)
(1.134 -0.1356 0)
(0.8347 -0.4566 3.046e-21)
(0.6675 -0.4492 4.831e-22)
(1.11 -0.1656 3.703e-22)
(1.125 -0.2728 -6.247e-22)
(0.9274 -0.3852 -3.915e-22)
(1.223 -0.04001 -5.263e-22)
(1.126 -0.1367 -1.38e-22)
(1.019 0.004303 0)
(1.094 -0.09224 -1.76e-22)
(0.9618 0.02983 0)
(1.298 0.4145 2.717e-23)
(1.129 -0.1124 1.704e-22)
(1.152 -0.1356 5.72e-22)
(1.301 0.2939 -5.157e-22)
(0.005414 0.0293 -5.059e-22)
(0.7744 -0.2328 4.618e-22)
(0.4175 0.07007 4.101e-21)
(1.076 -0.08524 -1.296e-21)
(1.017 0.5196 -2.385e-22)
(0.9833 -0.001396 0)
(0.8382 -0.4541 -3.057e-21)
(1.015 0.03826 2.327e-24)
(0.5649 -0.1854 -2.298e-22)
(0.8525 -0.2249 -8.242e-22)
(-0.004993 -0.02329 0)
(-0.0163 -0.07501 2.049e-22)
(0.2031 -0.06802 1.131e-22)
(1 -0.000366 0)
(0.9257 -0.2262 8.073e-23)
(1.289 0.02714 0)
(0.985 0.01283 4.278e-23)
(0.678 -0.203 4.797e-22)
(1.03 -0.3658 2.643e-22)
(0.7199 -0.2263 1.688e-22)
(1.133 -0.1602 0)
(0.8818 -0.2313 0)
(1.126 -0.1364 2.778e-22)
(0.7883 -0.2295 0)
(0.9212 -0.1781 -4.861e-22)
(0.994 -0.0003406 -4.081e-21)
(0.5259 -0.13 0)
(0.2551 -0.09159 -4.863e-22)
(1.001 -0.3991 -7.622e-22)
(1.107 -0.1076 3.295e-23)
(0.4485 -0.1563 0)
(1.005 -0.01666 0)
(1.132 -0.1216 -1.533e-22)
(0.8815 -0.04068 3.193e-21)
(0.9362 -0.2043 0)
(1.006 -0.01501 1.667e-21)
(1.083 -0.08845 0)
(1.28 0.5602 0)
(0.515 -0.1797 1.219e-22)
(0.9994 3.939e-06 -1.053e-21)
(1.048 -0.1929 6.147e-22)
(1.07 -0.1201 1.232e-21)
(0.4089 -0.1466 -4.632e-23)
(0.9056 -0.3973 5.396e-22)
(1.341 0.3407 -2.474e-22)
(0.8928 -0.2061 0)
(0.9555 0.02028 1.382e-22)
(0.6042 -0.205 0)
(0.9966 -0.3609 -6.504e-22)
(0.9995 -6.715e-05 0)
(1.047 -0.2517 -2.9e-21)
(1.092 -0.1367 3.161e-21)
(1.109 -0.09418 0)
(1.113 -0.08504 6.145e-24)
(0.8761 -0.2299 -2.006e-21)
(0.6667 -0.218 1.128e-22)
(0.8531 -0.2258 0)
(1.178 -0.07332 -2.424e-21)
(1.014 -0.3864 9.676e-22)
(0.6928 -0.2222 3.031e-22)
(0.7953 -0.2338 0)
(1.022 -0.007159 6.347e-22)
(1.074 -0.05281 3.635e-23)
(0.8352 -0.2349 0)
(1.126 -0.1695 -3.245e-22)
(1.135 -0.1213 1.407e-22)
(0.5953 -0.1917 0)
(1 0.002843 0)
(0.9997 0.003686 0)
(0.9201 0.1273 -1.974e-23)
(0.9382 -0.2257 2.9e-21)
(0.9912 0.5517 0)
(0.9831 0.01526 2.148e-21)
(1.005 0.000715 -2.204e-22)
(0.9967 -0.3487 0)
(0.9733 -0.4176 0)
(0.7042 -0.2216 1.006e-21)
(0.9266 -0.3862 4.985e-22)
(0.6129 -0.2052 2.97e-22)
(0.637 -0.2089 -2.866e-21)
(1.108 -0.2374 0)
(1.021 0.04098 0)
(1.001 -0.0004438 3.189e-21)
(0.5353 -0.1859 -1.441e-22)
(0.8099 -0.2319 4.221e-22)
(1.129 -0.2545 0)
(1.002 -0.0008883 0)
(1.186 -0.02184 0)
(1.133 -0.1136 0)
(0.8684 -0.234 0)
(0.9782 -0.004569 1.539e-21)
(1.089 -0.1349 1.338e-21)
(0.9826 0.01475 1.128e-21)
(0.7131 -0.2225 0)
(0.4833 -0.1231 4.312e-23)
(0.9279 -0.1974 -2.621e-21)
(0.9965 0.0001046 2.7e-22)
(0.6733 -0.2197 1.283e-21)
(0.8824 -0.2241 -7.057e-24)
(0.803 -0.4183 -1.62e-22)
(1.008 0.0004365 -1.117e-20)
(1.145 -0.1751 0)
(0.4464 -0.1575 -1.853e-22)
(0.9944 -0.001095 1.868e-20)
(1.136 -0.1358 2.096e-22)
(0.9898 0.02302 1.124e-22)
(1.119 -0.08638 2.253e-23)
(1.113 -0.1458 0)
(0.9897 0.009133 6.543e-21)
(0.9174 -0.2253 2.031e-21)
(1.134 -0.1515 4.096e-22)
(0.2843 -0.1548 2.598e-24)
(1.097 -0.174 2.852e-22)
(1.098 -0.1601 -8.768e-22)
(1.123 -0.1298 0)
(1.12 -0.1391 0)
(0.4267 -0.278 -2.128e-21)
(1.123 -0.1037 -3.283e-23)
(1.198 0.5872 -8.103e-24)
(1.122 -0.0617 0)
(0.5292 -0.1749 -1.639e-22)
(1.171 -0.1163 0)
(1.092 -0.09864 0)
(1.003 -0.0008995 -6.414e-21)
(1.136 -0.2382 -9.449e-22)
(0.9873 0.01109 3.897e-21)
(0.4076 -0.1069 0)
(1.037 0.00638 2.625e-21)
(1.099 -0.1615 2.53e-23)
(1.005 -6.058e-05 0)
(0.9959 0.02316 -1.648e-21)
(1.113 -0.1015 0)
(1.005 -0.393 3.026e-22)
(0.9426 -0.2253 0)
(1.006 -9.278e-06 5.301e-21)
(1.004 -0.002819 -2.901e-21)
(0.5309 -0.184 9.296e-25)
(1.316 0.1671 1.529e-21)
(0.941 -0.2213 2.237e-21)
(1.099 -0.09646 -6.663e-23)
(0.6191 -0.169 0)
(0.9154 -0.3576 -2.539e-22)
(0.8767 -0.2313 0)
(0.9332 -0.3954 1.262e-22)
(1.132 -0.1505 -2.17e-22)
(0.7854 -0.2331 5.525e-22)
(1.192 -0.09929 -1.951e-21)
(1.006 -4.073e-05 2.395e-21)
(1.238 -0.0635 7.828e-25)
(1.126 -0.1533 0)
(1.11 -0.1754 0)
(1.066 -0.1361 -4.55e-22)
(1.001 -0.02908 -9.679e-21)
(1.005 0.0006791 2.076e-22)
(1.1 -0.1499 0)
(0.8406 -0.4671 -4.121e-21)
(1.125 -0.1369 5.908e-23)
(0.4107 -0.145 -4.537e-22)
(1.037 0.008087 -3.865e-21)
(1.003 0.0005169 -5.294e-22)
(0.7458 -0.23 -1.025e-21)
(1.184 -0.1164 -1.495e-22)
(0.9277 0.01883 -3.951e-22)
(1.141 -0.1381 0)
(1.068 -0.1529 8.531e-22)
(1.019 -0.02893 -1.623e-21)
(0.7579 -0.2308 -1.319e-24)
(1.11 -0.2555 2.193e-22)
(1.126 -0.1528 -3.537e-22)
(0.9152 -0.1928 0)
(0.07462 -0.02518 0)
(0.4671 -0.1638 0)
(0.6514 -0.2118 -9.086e-23)
(0.6285 -0.2074 3.738e-22)
(0.8462 -0.2347 0)
(1.107 -0.1683 4.25e-22)
(1.1 -0.1367 -1.345e-21)
(1.094 -0.1728 7.56e-22)
(0.9442 -0.02121 -2.464e-21)
(1.179 -0.119 -5.84e-22)
(0.4255 -0.148 0)
(0.9744 -0.2161 -1.879e-24)
(1.004 -0.001698 -1.722e-20)
(1.144 -0.1762 -8.178e-22)
(0.9848 -0.2684 -2.293e-21)
(0.6852 -0.08935 3.035e-21)
(0.9994 1.734e-05 2.87e-22)
(1.004 -0.001829 1.462e-20)
(-0.04277 -0.05252 7.939e-23)
(1.077 -0.08435 4.992e-22)
(1.14 -0.2117 0)
(1.129 -0.1562 5.103e-23)
(0.8168 -0.4446 1.313e-21)
(0.846 -0.2051 -3.253e-21)
(1.153 -0.02896 -2.088e-21)
(1.084 -0.08889 6.997e-23)
(0.7737 -0.06585 0)
(1.117 -0.2915 0)
(1.018 0.003932 8.949e-21)
(1.008 -0.000621 1.788e-20)
(1.253 0.2342 1.6e-22)
(0.9683 0.1505 0)
(1.027 -0.1966 -2.529e-21)
(0.6912 -0.09687 -5.603e-21)
(0.9903 -0.4071 3.464e-21)
(0.646 -0.1858 6.359e-22)
(0.9965 -0.4027 8.846e-22)
(0.9059 -0.1312 0)
(0.7884 -0.1308 0)
(0.9965 0.0001737 0)
(1.087 -0.0776 1.411e-23)
(1.009 -0.1005 0)
(1.131 -0.2581 -7.051e-22)
(-0.01099 -0.03886 -1.27e-22)
(1.143 -0.1728 2.943e-22)
(1.174 -0.1057 9.205e-22)
(0.7571 -0.2269 0)
(0.9964 0.0001095 -2.478e-22)
(1.135 -0.1215 -1.819e-22)
(1.119 -0.09974 6.559e-23)
(0.492 -0.171 -6.695e-22)
(0.7081 -0.1266 -4.778e-22)
(0.9581 -0.2076 1.438e-24)
(1.131 -0.1508 0)
(1.06 0.8253 2.891e-23)
(0.8457 -0.234 -1.039e-21)
(0.8595 -0.4492 0)
(0.6864 -0.1816 9.324e-22)
(1.128 -0.2723 0)
(1.134 -0.1211 8.729e-23)
(1.134 -0.1196 8.39e-23)
(0.7876 -0.223 6.103e-22)
(1.086 -0.1898 3.481e-22)
(0.1036 -0.004152 -4.821e-23)
(0.9837 -0.2704 2.061e-21)
(0.9488 0.05438 -2.644e-22)
(1.135 -0.2503 2.534e-22)
(0.9635 -0.4021 4.25e-22)
(1.13 -0.1171 0)
(1.011 -0.0003127 2.007e-20)
(0.4544 -0.1413 -4.378e-23)
(0.725 -0.1723 6.388e-22)
(0.7041 -0.2212 3.08e-22)
(1.002 0.0005145 4.11e-22)
(0.4079 -0.1459 6.274e-22)
(0.8021 -0.2343 7.255e-25)
(1.09 -0.1326 8.839e-22)
(0.9958 0.0002043 -1.309e-21)
(1.092 -0.1733 0)
(0.5542 -0.1854 -6.389e-23)
(1.037 -0.1979 2.717e-21)
(1.168 -0.1301 2.141e-22)
(0.9958 0.0001796 -1.249e-21)
(0.7197 -0.2219 4.415e-22)
(0.4255 -0.1504 0)
(0.8506 -0.2322 0)
(0.9974 -0.2085 -7.786e-22)
(0.988 0.03317 4.03e-22)
(1.138 -0.1392 1.279e-22)
(0.2711 -0.1844 3.312e-21)
(1.026 0.001412 0)
(1.138 -0.2042 0)
(1.101 -0.2224 5.277e-22)
(1.108 -0.1678 -8.276e-22)
(0.7743 -0.2326 4.186e-22)
(1.043 -0.2482 1.487e-21)
(1.143 -0.173 -2.783e-22)
(1.066 -0.1355 7.969e-22)
(0.7205 -0.2265 8.576e-22)
(0.999 2.676e-05 -8.079e-22)
(0.7188 -0.2218 -5.628e-22)
(0.7064 -0.2034 0)
(1.037 -0.07848 0)
(1.131 -0.1627 2.367e-22)
(1.089 -0.07294 0)
(0.6781 -0.2022 0)
(0.6693 -0.2184 2.629e-22)
(0.9991 4.157e-06 9.982e-22)
(0.7205 -0.2263 0)
(0.7576 -0.2309 -1.31e-25)
(1.13 -0.1388 5.183e-23)
(0.07177 -0.07137 3.687e-22)
(1.13 -0.1383 -1.03e-22)
(0.5158 -0.1799 -5.669e-23)
(1.025 -0.2039 -6.876e-22)
(0.5621 -0.1767 0)
(1.107 -0.2454 1.313e-22)
(1 -0.0003423 0)
(0.04141 -0.01734 2.79e-22)
(0.8181 -0.2347 4.725e-22)
(1.097 -0.1739 0)
(0.5326 -0.1864 0)
(0.6655 -0.2139 0)
(0.632 -0.2113 3.384e-22)
(0.7201 -0.2268 -1.367e-22)
(1.112 -0.09302 -3.42e-23)
(1.001 -0.0003878 -5.448e-21)
(0.7109 -0.1561 0)
(1.132 -0.137 1.775e-22)
(0.9965 0.0001993 -9.532e-23)
(0.7386 -0.2291 1.069e-21)
(1.298 0.4125 -1.454e-23)
(1.144 -0.1706 -2.073e-22)
(1.038 -0.3559 -4.192e-22)
(1.006 0.0001984 -1.544e-21)
(0.8771 -0.2309 0)
(0.4974 -0.156 7.751e-23)
(1.018 0.004377 0)
(1.007 0.0002023 -1.359e-20)
(1.064 -0.138 4.632e-22)
(0.7419 -0.2107 -8.669e-22)
(0.6198 -0.1698 -2.815e-22)
(0.6193 -0.2085 0)
(0.7093 -0.2218 0)
(0.8278 -0.03203 1.399e-23)
(1.135 -0.146 1.972e-22)
(0.8231 -0.2213 2.235e-21)
(1.004 -0.001787 1.819e-20)
(0.7551 -0.2297 0)
(0.647 -0.2131 0)
(1.096 -0.08083 -1.259e-24)
(1.075 -0.08469 8.797e-23)
(0.8585 -0.305 -3.023e-23)
(1.001 0.0007154 -6.422e-22)
(1.006 -0.01587 0)
(0.9831 -0.01809 -2.322e-21)
(1.203 0.007611 -1.35e-21)
(1.004 -0.001649 -1.637e-20)
(0.9022 -0.1241 0)
(0.7863 -0.473 0)
(1.14 -0.1421 -1.189e-22)
(1.082 -0.1486 1.366e-23)
(0.9914 -0.003677 -7.599e-22)
(0.5246 -0.1492 8.033e-23)
(1.138 -0.1356 -2.093e-22)
(1.003 0.01248 3.155e-22)
(1.12 -0.1335 3.653e-22)
(1 -9.919e-05 4.343e-21)
(0.8808 -0.4327 3.38e-22)
(0.2308 -0.301 1.075e-21)
(1.125 -0.1572 -5.148e-22)
(1.151 -0.1134 0)
(1.043 -0.04836 8.388e-23)
(0.9923 -0.02829 -6.34e-21)
(0.8677 -0.2307 9.634e-22)
(0.9175 -0.2075 -2.776e-21)
(1.085 -0.08861 0)
(0.4085 -0.1534 6.6e-23)
(1.113 -0.1473 0)
(0.6929 0.9007 2.795e-22)
(1.091 -0.06945 0)
(1.105 -0.1987 1.043e-21)
(0.942 -0.3349 7.285e-22)
(0.6941 -0.1308 6.31e-22)
(1.001 0.01535 -2.067e-21)
(1.009 -0.1737 3.722e-21)
(1.074 -0.3431 5.561e-22)
(1.352 0.2316 0)
(0.4258 -0.1488 0)
(1.023 -0.169 -1.442e-21)
(1.002 0.0007212 0)
(0.8667 -0.09143 0)
(0.5349 -0.1854 2.832e-22)
(1.078 -0.248 -1.683e-21)
(1.009 -0.06156 -7.763e-21)
(1.316 0.0897 0)
(0.2476 -0.3041 0)
(1.341 0.1453 -1.368e-21)
(0.8391 0.05848 -3.08e-21)
(0.9339 -0.2273 1.82e-21)
(0.542 -0.1887 0)
(0.7143 -0.1558 -4.312e-22)
(0.9368 -0.07505 -9.997e-24)
(1.014 0.04852 0)
(1.144 -0.164 -6.167e-22)
(1.004 0.0004862 -1.202e-21)
(0.9967 9.797e-05 -1.82e-21)
(1.09 -0.1699 4.978e-22)
(1.04 0.0164 -7.387e-21)
(1.14 -0.1488 6.318e-22)
(0.6662 -0.0801 1.419e-21)
(0.3576 0.2174 -8.176e-22)
(1.121 -0.1147 3.391e-22)
(0.9688 -0.05635 3.743e-21)
(1.309 0.446 3.095e-22)
(1.133 -0.2546 -6.347e-22)
(1.01 -0.01302 0)
(0.768 -0.1655 0)
(0.6766 -0.219 -1.47e-22)
(0.9721 -0.05448 -5.897e-21)
(0.9403 -0.217 -2.368e-21)
(0.3517 -0.1355 4.085e-21)
(0.4785 -0.1023 -4.126e-22)
(1.132 -0.2258 0)
(0.3428 -0.3391 6e-22)
(0.9944 -0.1975 -1.616e-24)
(0.6113 -0.2065 0)
(0.9869 0.001017 7.17e-21)
(1.153 -0.1346 -7.089e-22)
(1.131 -0.2583 0)
(0.9826 -0.01552 -4.131e-22)
(0.9074 -0.2265 0)
(0.8267 -0.2348 0)
(0.763 -0.2104 -7.506e-22)
(0.9995 -7.05e-05 0)
(0.9558 -0.01132 7.05e-21)
(0.8022 -0.1701 0)
(0.7357 -0.03052 0)
(1.023 -0.3325 0)
(0.3536 -0.1335 0)
(0.8136 -0.2306 -6.049e-22)
(0.9439 -0.3982 -1.38e-22)
(1.135 -0.2463 0)
(0.4257 -0.1519 0)
(1.212 -0.09245 0)
(0.9969 7.775e-05 -9.602e-22)
(0.82 -0.4789 2.344e-21)
(1.16 0.1493 8.326e-22)
(1.005 0.0004867 -3.743e-22)
(0.9464 -0.3584 0)
(0.2838 -0.1045 -8.097e-23)
(0.9017 -0.1905 1.095e-21)
(1.316 0.06716 -1.495e-21)
(1.125 -0.07921 0)
(1.129 -0.1733 -3.93e-22)
(0.393 -0.1399 -3.007e-22)
(0.5792 -0.03461 0)
(1.122 -0.1155 -4.003e-22)
(1.02 0.04145 7.951e-22)
(0.9949 0.00865 0)
(1.135 -0.214 -3.564e-22)
(0.8902 -0.3867 -7.493e-22)
(0.6859 -0.2216 -8.387e-22)
(0.9428 -0.2208 2.286e-21)
(0.3509 0.4064 0)
(0.9852 -0.4102 -1.462e-21)
(0.9459 -0.0277 0)
(1.071 -0.03091 0)
(0.9867 -0.4106 1.47e-21)
(0.9852 -0.08071 2.27e-21)
(1.188 -0.07225 -2.597e-21)
(1.011 0.001136 -1.01e-20)
(0.6797 -0.2143 0)
(0.2341 -0.1608 -1.18e-22)
(1.032 -0.195 0)
(0.8385 -0.2344 9.664e-22)
(0.8053 -0.2317 -3.354e-22)
(0.9911 0.006371 -1.173e-20)
(0.9675 0.009841 1.802e-21)
(0.549 -0.1919 0)
(1.026 -0.2121 0)
(0.5859 -0.1996 -2.284e-22)
(1.134 -0.1483 0)
(0.5893 -0.2023 0)
(0.638 -0.196 0)
(1.123 -0.1338 0)
(1.275 -0.008845 1.759e-22)
(1.196 -0.1055 6.64e-22)
(0.6445 -0.09433 8.303e-22)
(1.13 -0.1476 -3.274e-22)
(1.089 -0.08189 -6.742e-24)
(0.7816 -0.2316 0)
(1.136 -0.138 -3.315e-22)
(0.6756 -0.2057 0)
(0.4154 0.5915 0)
(0.641 -0.2139 -1.926e-23)
(0.2478 -0.1771 -5.464e-23)
(0.3152 -0.1129 -1.748e-22)
(0.8024 -0.2318 0)
(1.011 -0.0002552 -5.222e-21)
(1.009 -0.003743 7.102e-21)
(0.7255 -0.2213 -4.382e-22)
(0.6196 -0.2025 0)
(1.114 -0.1785 0)
(1.001 1.722e-05 4.956e-21)
(0.9069 -0.405 1.138e-21)
(0.8773 -0.2314 0)
(1.115 -0.09715 3.373e-22)
(0.6182 -0.2088 -4.18e-22)
(1.104 -0.1449 6.007e-22)
(0.7424 -0.2286 1.29e-24)
(1.114 0.4197 -9.612e-23)
(0.9999 0.001369 4.202e-21)
(1.089 -0.1864 -6.836e-22)
(1.109 -0.08131 -5.251e-23)
(1 -0.3893 2.283e-21)
(1.067 -0.0824 2.265e-23)
(0.5364 -0.1784 0)
(0.8678 -0.2713 -1.482e-21)
(0.9928 -0.1774 0)
(1.049 -0.1888 -1.359e-21)
(1.117 -0.1017 -1.565e-22)
(1.129 -0.09502 -2.256e-23)
(0.6641 -0.1887 2.892e-22)
(0.9208 -0.4114 -9.132e-23)
(1.135 -0.1297 4.249e-22)
(0.65 -0.2144 5.242e-22)
(0.9753 -0.4226 1.76e-21)
(0.9855 -0.02048 0)
(0.5776 -0.2161 3.823e-22)
(0.4004 -0.1437 -5.175e-23)
(0.7069 -0.2027 5.07e-23)
(1.105 -0.1701 -9.834e-22)
(0.3086 -0.3222 -2.63e-21)
(1.006 0.02703 -2.249e-22)
(0.5285 -0.1365 -4.056e-21)
(0.6708 -0.1281 0)
(0.9956 -0.0004328 4.733e-21)
(1 -3.616e-05 0)
(1.154 -0.1356 0)
(0.9427 -0.2247 -3.39e-21)
(0.262 -0.09734 -1.67e-22)
(0.396 -0.1456 -2.728e-23)
(1.144 -0.1638 4.339e-22)
(1.031 -0.3802 0)
(0.6773 -0.2198 -1.203e-21)
(1.095 -0.1823 0)
(1.112 -0.1461 -1.993e-22)
(0.9965 -0.03428 0)
(0.6867 -0.2213 -2.1e-21)
(0.5598 -0.1014 0)
(0.6876 -0.222 -1.944e-22)
(1.117 -0.2248 7.724e-22)
(0.4105 -0.1458 0)
(0.6856 -0.2197 -7.784e-22)
(0.9921 -0.002245 2.025e-21)
(0.6616 -0.08738 -5.849e-22)
(0.5557 -0.1885 -1.828e-22)
(0.9997 -0.001343 -2.852e-20)
(1.111 -0.1657 6.479e-22)
(0.995 -0.0004259 -9.46e-22)
(0.9883 -0.003157 1.493e-20)
(1.14 -0.1522 0)
(1.04 -0.1631 6.335e-22)
(0.9377 -0.1 6.395e-21)
(0.9988 -0.003312 -3.521e-21)
(1.119 -0.1332 3.819e-22)
(1.007 0.008963 0)
(1.294 0.4379 -1.276e-22)
(1.036 -0.1486 -1.347e-21)
(0.7519 -0.1527 0)
(1.132 -0.1295 -1.282e-22)
(1.138 -0.2205 1.265e-21)
(1.138 -0.164 5.745e-22)
(0.7468 -0.2277 -5.035e-23)
(1.136 -0.1245 0)
(0.9991 -0.003367 1.504e-20)
(1.026 -0.05277 -4.548e-22)
(1.038 -0.1925 0)
(1.144 -0.211 6.549e-22)
(0.6248 -0.2102 0)
(0.7038 -0.224 0)
(0.9883 -0.07255 -1.043e-23)
(0.6902 -0.2218 1.448e-21)
(0.4238 -0.1351 -4.109e-21)
(1.096 -0.1746 -1.639e-21)
(1.109 -0.3043 0)
(1.289 0.01512 1.92e-21)
(1.119 -0.1166 0)
(1.067 -0.1317 -1.301e-21)
(0.8856 0.2357 0)
(0.73 -0.162 -4.125e-22)
(0.9702 -0.0154 2.936e-21)
(1.018 -0.2044 -3.356e-21)
(0.4634 -0.151 -6.159e-23)
(1.113 -0.1904 1.332e-21)
(0.9964 0.0003639 0)
(0.7126 -0.4644 1.519e-21)
(0.8578 -0.2287 4.819e-22)
(1.13 -0.1074 -1.837e-23)
(1.106 -0.2993 0)
(1.135 -0.15 6.402e-23)
(1.122 -0.1395 5.161e-25)
(0.9682 -0.2094 -3.137e-21)
(0.8749 -0.2185 0)
(1.13 -0.1076 1.804e-23)
(0.5265 -0.1801 0)
(1.106 -0.2993 0)
(0.4055 -0.154 -6.301e-23)
(0.9962 -0.0009822 -1.034e-21)
(1.128 -0.08956 0)
(1.033 -0.1975 0)
(0.9883 -0.0251 1.476e-21)
(0.9967 -0.2118 -2.404e-21)
(1.162 -0.1248 -2.175e-21)
(0.9999 2.613e-06 -9.867e-22)
(1.11 -0.2334 0)
(0.4668 -0.1572 -2.517e-23)
(1.013 -0.06541 0)
(0.9017 0.2373 -7.654e-22)
(1.004 -0.1914 1.309e-21)
(0.4627 -0.04973 0)
(1.08 -0.1583 0)
(1.001 2.293e-05 0)
(0.9416 -0.2259 4.701e-22)
(0.8026 -0.2338 -8.861e-22)
(1.018 -0.003292 -2.547e-22)
(0.9481 0.2071 -4.527e-22)
(1.043 0.03051 0)
(0.8688 -0.2318 2.01e-22)
(0.8794 -0.2321 0)
(1.136 -0.1929 5.341e-22)
(0.9789 -0.05221 4.916e-21)
(0.4296 -0.1506 -3.148e-23)
(0.3372 -0.1219 4.238e-22)
(1.136 -0.2385 7.969e-22)
(1.142 -0.1767 -5.517e-22)
(0.7696 -0.225 7.082e-22)
(0.9418 -0.07387 6.686e-25)
(0.9961 0.0004201 1.257e-21)
(1.128 -0.1159 1.452e-22)
(1.008 0.01146 -2.731e-21)
(0.7808 -0.2322 0)
(0.847 -0.4031 0)
(1.059 -0.1911 -9.55e-22)
(1.107 -0.2987 1.756e-21)
(0.3989 -0.1597 1.827e-23)
(1.012 -0.1679 0)
(0.9988 0.005654 -7.998e-23)
(0.2357 -0.08365 0)
(0.7183 -0.2256 0)
(0.7877 -0.2302 0)
(1.129 -0.1 -9.236e-23)
(1.347 0.3473 -5.777e-22)
(0.8492 -0.2211 -1.623e-21)
(0.7167 -0.1312 0)
(1.067 -0.08295 0)
(1.142 -0.1558 1.782e-22)
(0.8948 0.005032 1.171e-21)
(0.4463 -0.03189 -1.179e-22)
(0.6124 -0.2025 -2.052e-22)
(1.108 -0.08283 1.254e-23)
(1.124 -0.2345 1.282e-21)
(1.141 -0.1689 4.861e-23)
(0.7547 -0.4492 0)
(0.431 -0.06544 7.302e-23)
(0.5639 -0.1926 -5.997e-23)
(1.146 -0.19 -2.776e-22)
(0.708 -0.2252 0)
(1.155 -0.1116 1.466e-21)
(1.126 -0.136 -3.18e-22)
(1.119 -0.1131 -1.996e-24)
(0.8943 -0.1927 0)
(0.3653 -0.141 0)
(1.078 -0.09795 1.423e-21)
(1.139 -0.2387 -5.912e-22)
(1.068 -0.1193 -6.312e-22)
(1.133 -0.1893 -1.777e-21)
(0.9997 3.587e-06 -1.06e-21)
(1.007 0.0004119 0)
(1.081 -0.1593 1.113e-21)
(0.9109 -0.06332 0)
(0.6927 -0.2178 6.498e-23)
(0.9267 -0.02479 -6.042e-21)
(0.5884 -0.1271 0)
(0.5884 -0.2019 -3.558e-22)
(0.9934 0.01005 -1.478e-20)
(1.339 0.1893 3.544e-22)
(1.141 -0.1519 2.778e-22)
(1.13 -0.1275 1.669e-22)
(-0.01084 0.02719 9.117e-23)
(1.068 -0.2884 2.318e-22)
(0.6218 -0.2072 -1.212e-22)
(0.09854 -0.03227 -1.473e-22)
(0.7703 -0.1664 9.039e-22)
(0.5661 -0.1947 -2.355e-21)
(0.7516 -0.2221 -1.063e-21)
(1.139 -0.1407 -3.456e-23)
(1.123 -0.1147 -2.228e-21)
(1.139 -0.1628 0)
(1.086 -0.09332 0)
(0.9419 -0.3825 0)
(1.081 -0.179 2.51e-21)
(1.061 -0.07821 -8.461e-22)
(0.7871 -0.11 0)
(1.144 -0.08946 0)
(0.7791 -0.2329 0)
(1.111 -0.2607 -9.377e-22)
(1.123 -0.08767 0)
(0.6421 -0.1869 0)
(0.3733 -0.136 0)
(0.6426 -0.2024 1.94e-22)
(1.099 -0.156 3.941e-22)
(0.5976 -0.1759 0)
(1.091 0.3158 3.024e-22)
(1.142 -0.04075 9.277e-22)
(1.139 -0.1785 1.929e-22)
(0.3687 -0.1397 3.903e-21)
(1.027 0.07244 3.428e-22)
(1.266 0.03984 0)
(0.753 -0.2244 0)
(0.6383 -0.2121 -2.148e-22)
(0.7142 -0.2254 -2.842e-22)
(1.007 0.008857 3.395e-22)
(0.7379 -0.2165 0)