/*--------------------------------*- C++ -*----------------------------------*\
  =========                 |
  \\      /  F ield         | OpenFOAM: The Open Source CFD Toolbox
   \\    /   O peration     | Website:  https://openfoam.org
    \\  /    A nd           | Version:  8
     \\/     M anipulation  |
\*---------------------------------------------------------------------------*/
FoamFile
{
    version     2.0;
    format      ascii;
    class       volScalarField;
    location    "55";
    object      k;
}
// * * * * * * * * * * * * * * * * * * * * * * * * * * * * * * * * * * * * * //

dimensions      [0 2 -2 0 0 0 0];

internalField   nonuniform List<scalar> 
127143
(
9.567e-15
9.121e-14
6.739e-13
3.443e-12
2.636e-12
3.636e-12
5.728e-11
1.391e-11
6.636e-12
4.284e-12
1.418e-10
1.742e-11
4.279e-12
5.94e-12
2.451e-05
1.52e-10
3.412e-12
0.07139
0.03404
1.435e-08
0.002312
8.673e-08
0.0001541
5.599e-06
7.824e-08
1.234e-07
2.615e-09
2.702e-09
1.122e-07
0.07001
1.972e-06
1.191e-07
3.476e-08
6.272e-07
0.000151
3.406e-08
0.002294
0.007455
1.118e-05
7.155e-08
0.03436
0.0001534
0.0001529
3.212e-11
0.06957
7.72e-07
1.149e-07
0.008954
7.406e-06
9.005e-06
3.55e-10
0.0001495
0.0003998
0.0001545
0.0001396
2.746e-06
0.0001395
0.000165
0.0001473
0.0001544
0.0001531
0.01754
4.466e-05
0.0001482
6.118e-07
0.0001589
0.0001513
3.907e-05
3.954e-05
0.0002167
4.046e-06
5.728e-09
0.0353
0.0001473
0.0001458
5.75e-09
0.0001476
0.002242
2.724e-06
0.000149
8.982e-08
1.373e-08
5.08e-06
1.588e-07
0.02435
0.003271
1.861e-05
1.499e-08
0.0001576
4.076e-05
0.0001467
0.00171
7.898e-05
0.002333
7.776e-05
0.0001725
0.0001533
7.303e-07
0.004335
0.0001512
0.0001489
8.544e-06
7.915e-06
0.000111
0.003595
0.004064
3.347e-05
0.0002177
0.0001678
0.0001424
3.226e-05
1.344e-08
0.0005676
0.0001691
0.0001455
0.0001502
0.0001476
0.0001459
0.0001475
7.057e-09
0.0001425
8.254e-06
7.066e-05
0.0001626
1.054e-07
3.234e-08
0.01142
0.0001488
3.821e-05
2.281e-06
0.0008203
0.000131
5.778e-05
0.00236
1.098e-10
0.0009017
0.0001557
0.003191
3.089e-07
0.0001536
0.0001546
0.0001468
0.0006464
0.002721
0.0004199
0.0001548
4.059e-07
0.0001483
0.0001126
3.257e-06
8.455e-05
1.059e-05
0.007919
0.0001519
0.000119
0.02453
0.0001651
1.881e-06
0.009225
5.386e-07
4.799e-06
4.783e-10
0.0001468
0.0008345
3.032e-07
9.951e-07
0.001165
0.0001561
1.917e-06
0.000149
8.985e-05
0.002754
0.0001416
9.395e-05
0.0006494
0.01038
0.0001796
3.963e-05
8.835e-06
0.0001565
9.476e-05
0.000155
0.01248
0.0107
2.636e-06
0.0181
0.0001515
0.0001682
7.42e-06
0.0001553
0.0001797
5.314e-05
0.0001553
0.0001932
5.855e-11
0.01014
0.000129
0.0001282
1.373e-09
0.0001457
0.0001453
0.0001491
0.005624
0.002822
2.637e-11
2.817e-05
0.0001531
7.82e-05
0.06136
0.0001455
0.0002011
0.02108
0.0001448
2.149e-06
0.0003008
3.351e-10
1e-05
8.115e-05
0.000608
0.0001532
0.0001845
0.0001462
9.928e-06
0.0004402
3.529e-07
5.724e-05
7e-07
0.008164
0.0002262
0.007743
0.001862
0.0001549
0.03576
7.707e-08
0.001927
0.0001573
0.0008277
2.096e-13
0.0001453
0.0002352
6.02e-05
9.907e-07
0.01144
2.026e-06
0.001499
8.383e-09
2.029e-05
2.439e-09
3.628e-09
0.0002671
0.0001677
1.589e-07
7.693e-05
0.002087
6.026e-06
0.0001697
0.0001488
5.096e-06
0.0001331
0.0001508
0.009034
0.0001516
0.0006706
0.0001467
0.000413
8.845e-07
7.888e-05
7.157e-05
0.0001555
0.0001389
5.376e-07
0.0006413
0.01227
0.0002228
5.696e-05
0.0001971
0.0006029
1.28e-05
0.001237
0.0001531
0.0002297
0.0001842
0.0001118
0.0001455
0.0001455
5.395e-11
0.0005998
0.0001455
1.118e-05
0.000157
0.008372
0.000158
0.0001572
0.0001331
0.0001451
0.0001757
2.468e-06
0.002094
0.01137
0.000138
8.731e-07
0.0001599
0.0001551
0.0001539
2.73e-07
0.0001373
7.864e-05
0.0001448
0.02403
6.703e-05
3.006e-05
0.0002543
1.718e-06
0.0002012
0.0001453
5.476e-05
0.003769
7.636e-07
0.0001594
0.006457
0.0001539
3.047e-06
0.0001514
7.624e-05
5.142e-05
0.00183
0.0001502
0.004792
4.337e-06
0.0001867
0.01267
0.0001455
0.000151
0.0001291
0.0001283
0.0001519
0.000168
0.0001419
0.01267
0.0003848
0.0001536
8.069e-05
0.0005499
0.0002256
0.0001767
1.059e-05
2.211e-05
0.0001853
1.188e-06
1.508e-05
1.527e-06
0.03338
0.007975
0.0002083
0.0001494
3.571e-05
0.002074
0.0001621
0.0001489
4.316e-06
0.01562
4.948e-05
0.06502
1.003e-05
9.967e-06
0.0001468
0.0001457
0.003742
1.62e-06
0.00123
0.0001557
0.0001515
3.354e-07
8.824e-06
0.0001546
0.0001537
3.055e-06
2.824e-07
0.005478
0.001309
0.05054
7.43e-08
1.741e-06
0.0001597
0.0001475
3.375e-09
0.0001503
9.317e-08
0.009527
0.01678
0.0001462
0.0001535
0.0001483
6.281e-06
7.268e-06
1.915e-06
0.0001536
2.747e-06
0.0001494
0.0001513
1.552e-07
0.0001462
0.001689
0.01314
0.0001504
7.367e-05
0.004273
5.81e-05
0.000149
1.1e-05
0.0001362
1e-06
0.0001547
0.00971
8.332e-05
8.579e-05
0.002424
3.236e-07
0.002472
1.755e-05
0.001311
4.029e-07
0.0001769
0.0002245
0.007407
0.000151
0.0001527
0.000153
1.405e-06
0.0001532
0.0001412
0.0001808
0.006573
0.00649
0.0001574
0.0001468
7.165e-05
2.206e-05
0.0001493
0.0001451
0.0001453
1.158e-05
0.0001558
0.000172
0.0001482
9.067e-07
0.0001454
4.62e-05
0.004052
0.02125
0.003533
2.931e-06
7.892e-05
9.42e-07
0.0001502
0.004148
7.316e-07
1.857e-06
0.004364
0.0007239
6.061e-05
0.0001347
0.01048
0.0001572
0.0001204
0.0004978
0.0001463
0.0006236
2.669e-05
0.0001386
0.006139
0.0002437
0.0001627
0.004318
0.0001529
0.0001347
0.0001483
0.0002014
9.176e-05
0.0008676
1.278e-07
5.484e-05
8.547e-06
1.87e-06
0.0001619
0.0001573
0.001243
0.0001447
9.038e-07
0.0001468
8.764e-05
2.176e-05
0.0002828
0.000148
2.538e-10
0.0005982
0.0001572
0.0001601
0.0001611
0.0001448
1.175e-07
0.0001464
0.00843
0.01062
2.051e-12
1.106e-09
4.29e-09
0.000147
4.033e-05
5.246e-05
0.0001454
0.01592
5.394e-05
0.0009228
0.0001118
0.003323
2.809e-06
0.006222
2.343e-08
0.0004312
0.02104
2.013e-08
1.176e-05
1.023e-06
0.0001237
0.000147
8.788e-05
0.003301
0.01098
0.0001457
5.332e-07
9.59e-07
0.0001199
0.0001304
0.0006223
0.0001569
5.042e-05
0.0001531
9.787e-07
0.0176
0.000147
0.0002967
0.000147
0.0001387
0.0001599
0.002
3.248e-06
1.071e-05
1.982e-05
1.501e-05
0.009892
0.000174
2.449e-05
0.001274
0.0002143
0.0001464
1.305e-07
0.001022
7.406e-07
5.268e-05
0.01131
0.0001483
0.0001479
0.0001508
1.906e-05
0.0001674
0.0001454
0.0001418
0.0001664
5.015e-06
0.004374
0.0001611
1.172e-05
2.992e-07
0.0001567
0.0001471
0.0001426
9.837e-05
0.004524
5.003e-05
0.0001574
5.415e-09
5.934e-05
0.0002013
0.001286
2.562e-07
0.0001454
0.004747
0.01598
0.01846
0.000135
9.82e-05
0.009029
7.325e-09
0.0001346
3.557e-05
1.101e-05
0.0001453
7.402e-05
0.0001455
2.091e-05
0.001226
0.0001455
9.195e-06
3.631e-06
0.0003781
5.901e-05
0.0008767
1.854e-06
2.005e-06
0.0002027
1.388e-05
9.572e-05
1.137e-05
0.005558
0.000261
4.744e-07
0.0001488
2.152e-06
0.0001454
0.0001683
0.0001488
0.0007006
0.0001413
0.0001455
0.0001626
1.867e-05
0.001147
0.0001383
0.0001412
0.0002902
1.237e-07
1.002e-05
1.052e-06
0.02345
0.0001714
0.003706
0.0001305
0.0002363
9.981e-05
2.985e-07
0.0001385
4.214e-06
0.0002476
0.0001646
0.0003468
0.000147
0.0001416
0.002064
6.016e-07
0.00125
8.264e-07
0.0001487
0.0001449
0.0005463
6.439e-06
0.000149
1.368e-06
0.0001567
0.0001639
3.571e-05
0.00013
0.0002696
0.0001525
5.419e-11
7.507e-05
0.004542
0.004062
0.0006359
2.505e-05
4.424e-07
6.611e-06
0.0001488
6.655e-05
0.002271
0.001802
0.0001417
1.436e-05
0.0001562
0.0001522
0.0001303
0.0001415
2.709e-07
0.0001602
3.834e-06
4.597e-05
6.317e-05
0.02371
0.0001595
5.586e-07
0.0001515
6.568e-06
0.0001447
0.0001393
0.000171
0.0001511
2.46e-06
0.0001523
8.069e-07
0.0206
8.866e-06
0.000169
0.06424
0.0001432
1.118e-06
0.000153
4.992e-06
1.174e-10
5.713e-05
0.0004674
0.005911
0.0001367
4.566e-05
1.009e-05
4.197e-07
0.04773
0.00634
0.0002352
4.807e-06
0.002354
1.951e-05
0.0257
8.979e-06
3.883e-05
6.738e-05
0.01179
0.0001605
1.553e-14
0.0001561
0.0001489
3.137e-05
6.076e-05
2.17e-05
0.000144
0.00749
0.0339
0.00449
0.0001485
6.924e-07
0.0002234
2.443e-07
0.0001616
5.154e-06
0.004524
1.18e-05
3.027e-05
0.0001516
0.006475
0.0002257
1.784e-05
0.001755
0.0001458
0.0005578
0.0001617
0.000146
7.843e-05
0.0001656
2.946e-05
0.0006219
0.0001588
5.673e-05
9.143e-08
0.000119
0.0001278
0.006408
0.01824
1.16e-07
1.336e-06
0.0001551
0.01629
2.001e-05
0.0001283
0.001034
3.785e-05
0.0008912
1.479e-07
0.0009208
0.0001383
0.0004398
0.01362
0.0001527
0.0001469
2.244e-11
0.0008195
6.89e-05
2.238e-05
0.005513
0.0002825
0.0003683
5.696e-06
0.0001424
0.03809
0.0001109
0.0001459
0.0002162
8.882e-05
3.26e-05
7.029e-05
0.0001364
0.004015
0.008955
0.0001447
0.000136
0.0003552
0.0172
0.0233
0.0003422
0.00498
1.209e-09
9.625e-05
0.0001527
0.0001418
0.002461
0.001663
2.418e-06
4.233e-07
0.0001556
0.0001957
0.0001467
0.002251
5.189e-09
0.0001419
0.0001641
1.512e-06
4.494e-05
1.04e-07
0.0001497
0.01739
4.305e-05
0.0001459
1.256e-06
0.0001416
5.741e-05
1.256e-06
1.688e-05
0.001017
3.592e-08
0.0001462
1.725e-05
0.0001526
6.299e-07
0.0009807
5.15e-07
4.501e-06
0.000155
0.0001651
0.000164
7.735e-10
0.0001457
0.0187
3.815e-06
8.262e-06
0.002097
1.442e-08
0.0001914
0.0003142
9.385e-05
8.67e-08
8.409e-10
4.821e-05
4.305e-10
1.097e-05
1.398e-10
0.0001977
2.953e-05
0.03878
5.373e-09
0.0001475
2.687e-05
0.0001343
0.0001335
0.0005263
0.0001497
9.049e-05
0.04394
0.0001663
0.0001494
0.0001553
3.779e-05
2.867e-05
0.0001462
0.04586
0.001827
0.0001552
6.112e-06
1.307e-08
0.01658
8.906e-05
2.921e-05
0.004293
0.0001825
0.000145
0.0002934
5.397e-06
0.0001486
1.477e-05
0.001063
0.01872
0.0001379
0.006728
0.05311
5.547e-10
0.0001637
1.239e-08
0.006158
0.0001089
3.665e-05
6.718e-06
2.507e-06
0.0001308
4.768e-07
0.0001533
0.0001316
0.0001745
6.587e-08
0.03544
2.526e-06
8.006e-05
0.0001366
2.823e-06
8.589e-11
5.503e-06
0.000147
0.0001461
8.684e-05
0.0001746
0.0006197
1.01e-05
0.0001971
5.128e-07
0.004396
0.0001523
4.47e-07
0.0001537
1.491e-08
0.0001444
0.007861
0.0001645
0.001326
0.0001741
0.004504
0.0001457
0.0001458
3.55e-05
0.0001551
0.0008087
6.684e-06
0.0001419
0.01553
0.001604
2.091e-05
7.078e-06
7.753e-10
0.0004126
1.405e-06
2.336e-05
7.677e-05
0.01395
0.0001954
0.0002964
7.609e-05
2.129e-07
0.004226
0.000144
0.0001429
0.007785
0.007512
0.000164
0.0001392
0.0001298
0.003626
0.0001614
0.0001606
0.002271
7.084e-05
0.0001578
0.000149
0.0001609
0.0001627
8.068e-08
3.13e-07
0.004912
0.0001539
0.02308
1.575e-06
6.45e-06
6.225e-05
0.02116
9.213e-05
2.083e-05
0.001201
4.296e-07
0.000149
1.68e-07
6.469e-06
0.01868
6.824e-05
2.377e-05
0.0001456
6.812e-09
9.534e-10
0.0001367
0.0001441
0.0002166
0.001428
3.271e-08
0.001956
2.824e-05
7.867e-06
5.143e-05
0.0001624
0.0001641
0.0001478
3.226e-05
0.02822
0.0001306
0.0001479
3.075e-05
0.002744
0.0001528
9.987e-10
0.002238
0.0001453
9.887e-06
0.0001427
0.0001447
6.569e-05
0.0001546
1.47e-09
0.0001442
1.339e-06
0.000146
7.837e-05
0.0001543
0.04904
9.585e-05
2.17e-06
4.079e-06
2.863e-05
5.385e-05
0.0001997
0.0001555
0.001267
1.363e-05
0.0002881
6.6e-05
2.355e-08
3.052e-05
1.012e-08
4.909e-05
5.984e-06
1.272e-06
3.649e-06
9.287e-08
0.0001516
0.0395
0.0001784
6.946e-06
0.003943
3.626e-07
0.0001854
1.898e-05
0.007653
3.513e-05
3.536e-05
0.0001744
0.0001562
1.794e-06
0.01295
3.548e-05
0.001119
1.85e-06
0.0009313
0.0001373
6.474e-05
6.097e-06
0.0001458
3.013e-05
1.395e-06
0.0001379
0.0001569
0.00131
0.0001536
0.0001516
0.004629
0.00714
0.0001582
0.0001317
6.36e-05
0.0001505
0.0001449
0.0001514
0.0001503
0.003834
6.554e-05
9.833e-05
0.0001547
0.0001386
2.64e-07
2.287e-06
7.063e-06
0.008898
5.273e-09
0.0002086
1.657e-05
0.0001456
0.002006
0.0001719
2.591e-05
3.481e-05
0.0001906
3.139e-08
0.0001471
4.663e-09
6.837e-06
1.094e-05
4.957e-05
7.054e-06
0.01315
0.04836
2.042e-07
3.861e-05
0.0001501
6.987e-12
0.005252
6.231e-06
8.306e-07
1.289e-05
6.044e-05
0.008166
3.82e-06
3.124e-05
0.0006465
0.0009299
2.898e-06
4.696e-06
0.0332
1.078e-08
0.0001589
2.54e-05
0.0001568
1.421e-06
0.0001309
0.0001448
0.002857
3.661e-09
0.0065
0.003065
2.169e-09
4.992e-05
0.0001458
1.882e-07
2.86e-05
0.001535
1.288e-07
0.0001644
0.001893
1.737e-10
0.04608
9.943e-07
0.009894
3.706e-05
6.657e-08
5.601e-06
5.223e-07
0.0001569
8.212e-06
0.0001581
0.0608
0.0001392
0.000349
0.0001182
3.192e-05
0.01974
4.616e-06
0.01216
0.0001622
0.01934
0.0001532
0.0001586
8.613e-05
1.061e-08
0.0001505
1.887e-08
2.73e-06
0.0009364
0.001232
0.0001459
0.01307
0.0001465
0.0001613
4.168e-06
1.215e-06
3.3e-07
0.0001427
3.75e-06
0.0001015
0.0006814
1.246e-09
0.0001365
0.03028
9.906e-05
0.0001463
8.613e-05
0.0009468
6.955e-08
4.054e-05
0.0001615
0.004898
0.0001452
6.212e-11
1.311e-09
0.003223
0.0001651
0.0001267
0.0001354
0.0001315
0.0005011
0.02139
0.02598
0.0001538
0.0001581
0.0001594
0.0001614
0.001968
0.01963
4.434e-06
7.782e-06
7.77e-10
0.0001664
4.152e-07
0.001742
0.0001441
0.0001317
2.167e-06
0.009468
4.586e-05
6.928e-10
0.001828
0.01701
0.0005543
4.993e-05
0.0006432
1.046e-09
0.05387
0.0007906
0.01774
0.01549
0.0001055
9.702e-06
7.339e-10
0.0001549
0.0002412
0.0001413
6.012e-06
2.656e-05
0.0001353
2.284e-05
5.665e-05
0.001487
3.182e-06
0.0001428
0.0001653
6.495e-11
0.0001456
1.06e-05
2.859e-05
3.472e-05
6.815e-07
0.0001651
0.0001109
0.0002464
2.093e-07
0.0009415
1.512e-05
0.0001507
3.513e-05
3.157e-06
2.708e-06
3.567e-05
0.0008979
0.0001451
2.574e-05
0.03003
5.7e-07
0.0001421
0.01805
0.0008446
0.0001452
0.0001382
0.0001899
0.0001456
0.02062
0.0001384
3.47e-06
0.02152
5.613e-09
0.0004598
0.0006011
4.276e-06
0.0007777
1.556e-05
5.891e-06
1.235e-10
0.0007059
0.0002398
0.0007815
0.001284
0.01246
0.0001482
0.004984
0.0001465
0.009821
0.0001474
0.02297
0.0001435
1.726e-05
0.001522
0.0001379
0.0001445
0.001364
0.0001576
1.133e-05
0.0001544
0.0001338
0.0001625
0.00151
0.0001498
2.691e-09
1.61e-06
6.688e-08
1.481e-05
5.556e-05
5.941e-06
1.531e-05
0.01316
0.0004319
5.769e-08
0.01747
1.224e-05
2.663e-06
0.0001011
0.0002599
0.02947
0.0001441
1.118e-10
0.0009037
2.349e-07
0.0001458
7.704e-10
2.071e-05
4.609e-06
0.001775
0.000131
0.0001308
0.02125
0.05315
0.01297
0.01431
4.226e-05
0.0001656
0.0001565
0.007764
0.0001206
4.519e-07
0.0001194
0.0001879
0.002728
0.0001045
8.275e-07
1.479e-05
3.525e-05
4.874e-06
0.006515
0.0001463
0.004482
0.002268
1.286e-08
0.0005315
0.0001537
4.457e-05
0.003107
1.996e-05
0.007228
3.127e-07
0.06486
0.0001455
0.00882
7.954e-05
5.798e-10
4.7e-07
0.0001639
0.0008296
8.484e-06
0.0001584
0.0001305
4.278e-05
2.945e-05
3.619e-10
0.0001516
1.446e-08
0.002222
0.0001439
6.476e-06
0.0001053
0.01245
0.0001517
0.003607
0.0002398
4.451e-05
5.083e-05
0.03541
2.775e-06
0.0001523
2.697e-05
6.386e-06
1.166e-06
0.0001849
0.0001843
3.191e-06
0.0001748
1.091e-09
0.0001351
7.107e-07
6.31e-07
1.059e-10
0.004011
0.0002408
0.0001491
0.0001457
0.0001437
0.01111
0.0001438
1.497e-09
0.0001454
3.455e-07
0.0001578
0.000121
8.74e-05
1.447e-06
0.000245
4.225e-07
0.0001596
0.0001348
0.005098
5.008e-08
0.0001448
4.406e-05
3.294e-05
0.006201
3.677e-05
0.0001351
0.003414
4.215e-05
2.541e-05
0.0001538
0.0001372
2.039e-06
0.00019
0.0001328
0.0001594
1.03e-05
0.0001372
1.374e-07
0.0001462
0.0002837
0.0006033
0.006561
0.0001935
0.0001392
0.006576
9.822e-06
0.00878
0.0001515
8.027e-05
0.0001547
0.0001454
0.0001417
0.0002434
2.437e-09
8.446e-05
3.264e-05
0.0001493
9.789e-08
0.0001634
0.0001529
0.0001784
0.0001691
0.0002684
1.755e-06
0.00015
2.077e-05
0.0001467
0.0001969
0.0001486
0.0001523
3.226e-05
0.01531
0.0001619
1.217e-06
0.0001322
0.0001415
0.0008577
1.881e-07
7.673e-05
8.045e-10
4.574e-07
0.02197
0.000153
0.0001698
5.07e-07
0.0005836
1.984e-05
3.453e-06
0.0002137
0.0001548
0.0001444
2.075e-05
1.401e-05
0.0001049
0.0001459
0.0003955
0.0001456
0.0001631
0.0002699
0.000143
0.02548
0.0001665
0.0001064
0.004667
0.002658
4.746e-06
0.0001466
6.443e-06
5.184e-07
0.000132
0.03169
1.503e-05
0.0001583
0.0008584
0.008429
2.85e-06
6.552e-05
0.005931
1.173e-06
0.0001053
1.69e-05
1.167e-06
0.0001575
0.0001539
5.148e-05
0.0001518
8.589e-06
0.003362
0.0001515
3.673e-05
0.0001483
0.0008762
3.332e-05
0.05281
0.0003635
0.0007296
9.291e-10
0.001837
9.345e-09
0.0001564
0.0001376
9.655e-09
2.116e-05
0.0001573
4.171e-06
0.000151
0.000836
0.0001491
0.01189
1.995e-08
0.007294
0.0001669
4.079e-05
2.02e-05
0.0001464
4.295e-05
0.0001534
0.0001651
6.06e-07
0.0001492
3.361e-05
2.007e-07
0.0001444
0.0001488
0.006611
0.0002025
0.0002395
0.0001549
0.0001612
0.0001365
0.0001618
0.01695
0.0002279
0.0001596
6.543e-05
0.0001374
0.000154
3.063e-06
1.107e-08
0.0001396
0.0001604
1.654e-08
0.02187
2.788e-06
0.01581
1.771e-05
1.009e-08
0.0001755
0.0002844
0.004015
0.0001509
8.636e-07
0.0001647
0.01242
7.089e-08
1.905e-05
0.0001489
6.046e-06
4.99e-11
5.196e-10
0.006487
0.003342
3.317e-05
0.0001547
0.01223
7.785e-05
0.01352
7.34e-06
0.0006689
0.001394
2.661e-05
1.07e-07
0.003635
0.0001417
0.0001452
5.093e-05
0.0001374
0.001858
0.0001525
0.0001512
2.197e-05
0.006339
0.03195
0.0001357
4.35e-06
4.693e-07
0.002732
6.773e-06
0.006434
9.008e-10
7.922e-06
0.0001492
3.809e-05
3.82e-06
0.001307
2.721e-05
4.021e-10
0.0001282
1.358e-07
2.165e-05
1.705e-05
0.0001357
0.007649
0.01448
7.437e-07
6.509e-06
0.02484
3.693e-07
0.0001603
0.0001727
1.291e-05
0.0001533
0.02157
0.0001453
2.439e-06
1.351e-06
2.03e-05
3.834e-07
8.189e-07
0.009005
7.368e-09
0.0002808
5.874e-05
0.0001499
0.02256
0.0001512
0.04224
5.974e-05
0.01308
2.668e-05
0.0002047
3.17e-05
9.268e-11
1.905e-08
0.001973
0.003783
0.0001641
0.0001601
0.000146
0.0001489
4.97e-05
0.0001634
0.000145
3.843e-05
2.399e-05
7.3e-06
0.0009819
9.539e-05
1.775e-05
0.002457
2.562e-05
1.045e-08
6.468e-07
0.0001563
3.098e-05
1.124e-10
0.014
1.871e-05
0.0419
7.553e-05
0.0002606
1.244e-11
8.387e-05
7.408e-05
0.000153
0.0001561
2.184e-05
0.001508
0.0001454
0.000147
0.00885
3.865e-07
0.0204
2.803e-05
4.07e-09
0.0001898
0.0001493
5.68e-07
0.02163
0.001496
9.422e-08
0.0001636
0.02963
0.000427
0.0004154
0.0001588
4.141e-05
0.0001465
0.0001315
0.02826
6.191e-07
0.0664
1.005e-05
1.532e-07
0.0001484
5.23e-07
0.003163
7.642e-06
2.067e-05
3.148e-05
0.0001514
0.01256
0.001565
0.003237
3.246e-06
0.001429
4.462e-06
3.513e-05
0.0001451
0.00139
0.04265
1.087e-06
4.138e-05
0.0006362
0.007032
0.0001538
9.142e-08
0.0001663
0.001155
0.01767
0.004396
0.02164
0.001429
0.0001981
1.14e-08
0.0001623
0.0001487
1.793e-05
0.0001395
0.01257
0.0001498
0.0001553
0.01178
0.0001439
0.0001637
1.129e-05
4.07e-05
0.0001456
0.0001483
0.02383
6.755e-05
9.239e-06
0.0001925
0.0009931
0.006097
1.322e-06
2.187e-06
0.0527
9.918e-05
0.002649
0.000159
2.943e-05
1.909e-09
0.01768
3.351e-06
3.282e-06
0.01483
9.458e-10
0.0001454
0.0001372
0.0001661
0.0001226
8.112e-11
0.0001459
0.011
1.499e-05
2.171e-09
3.192e-05
1.869e-06
0.0001247
0.0001244
3.712e-06
4.635e-05
0.007384
0.0001369
0.0001499
0.02616
0.0001414
0.000149
5.393e-07
1.969e-05
3.607e-05
0.01053
7.217e-08
0.008789
0.0001605
0.0001319
8.035e-05
1.964e-05
9.77e-07
5.411e-06
0.000319
3.447e-07
0.0002071
0.0001618
2.873e-05
6.45e-06
0.0002126
0.0001543
0.0001048
1.368e-06
0.0001349
0.0001333
6.525e-05
0.0008424
1.951e-08
0.0001655
6.133e-06
2.778e-05
0.0003713
0.0001454
0.0001692
0.0001482
0.002216
5.708e-09
0.0001873
0.0001567
4.562e-05
0.0001526
1.868e-07
4.28e-05
0.0002
7.473e-05
8.616e-05
3.236e-05
0.01139
5.297e-05
0.0002601
8.361e-05
0.0003295
0.002329
6.986e-05
0.01129
1.254e-06
2.652e-05
0.0005918
0.002192
1.975e-06
0.002132
0.0001929
2.775e-05
0.000158
0.0001677
7.742e-05
7.672e-09
0.0001641
1.716e-05
0.0001471
0.01508
0.0001484
2.047e-05
0.02116
7.164e-09
0.0001175
0.000153
2.693e-06
7.273e-10
3.37e-07
0.0004792
4.282e-05
6.466e-07
6.407e-08
0.0006317
0.01087
6.131e-05
1.182e-10
0.0004075
0.001777
0.000168
0.0001609
0.0001455
0.00128
3.927e-06
0.0001108
0.0001711
0.0228
0.0001541
4.307e-08
0.000131
0.001507
0.0001637
0.02694
2.488e-06
0.0001643
0.0001532
0.02519
0.0001505
2.129e-05
6.279e-05
1.74e-09
2.596e-05
0.0002048
0.0001429
0.003443
0.0009993
3.123e-06
8.95e-06
5.831e-05
0.02588
9.848e-05
0.0001453
8.235e-06
6.634e-06
0.0001748
0.0001361
0.0005562
1.144e-07
1.047e-06
9.417e-06
0.00017
0.0001605
0.0001559
3.284e-06
0.04029
0.0001537
1.148e-08
0.0001884
0.002512
0.0001455
0.0001473
0.0001547
0.0001462
3.701e-05
5.02e-05
0.006251
0.001266
1.109e-06
8.352e-08
0.0004046
1.506e-05
0.0004026
0.02048
4.77e-09
0.001738
0.0005927
0.006336
1.134e-08
0.009731
5.493e-07
1.642e-08
0.0001526
7.944e-06
1.179e-06
0.0001173
0.007176
9.643e-06
8.692e-05
4.122e-06
0.004129
0.001435
0.0001491
0.03516
0.0001478
0.0001657
0.007723
0.0004479
0.0001137
0.0003537
4.399e-09
0.008252
0.0001464
6.376e-06
0.001746
0.02418
5.073e-05
0.0008804
0.0001871
1.658e-06
1.126e-06
1.118e-08
0.0001462
1.098e-05
0.0001702
0.0006864
0.0002268
0.0001516
1.033e-08
8.754e-06
3.717e-05
0.000166
0.000144
3.686e-05
6.463e-06
0.01227
0.0001199
1.069e-08
2.059e-06
8.148e-05
0.01518
0.0001428
3.814e-06
0.0001446
2.579e-05
0.01618
0.0001513
7.576e-05
4.789e-06
0.0001451
3.309e-05
0.007911
0.0001067
1.167e-07
0.0001262
5.382e-05
8.054e-11
0.002404
1.189e-05
0.0001311
0.0001302
1.39e-05
0.001897
0.000158
1.851e-06
2.886e-05
0.0001438
9.048e-08
1.086e-06
0.0002656
0.0001456
0.0001464
0.0003216
0.0007333
1.275e-05
1.558e-10
2.847e-06
0.0001548
1.791e-06
9.1e-08
0.0001543
2.595e-06
6.799e-06
0.0002879
0.0001587
3.808e-06
0.05082
0.008981
0.0001302
0.0001284
0.0001287
0.0001267
0.0001585
0.01712
7.685e-05
6.597e-06
9.695e-05
0.0006459
0.001307
1.414e-07
0.0001273
0.0002495
0.00352
4.27e-05
7.434e-07
1.988e-05
0.002973
4.473e-05
6.618e-06
0.0003976
2.257e-05
0.0001621
3.45e-05
8.529e-10
1.771e-05
4.55e-08
0.0001529
4.944e-05
0.0001454
1.041e-08
0.0007148
7.446e-06
9.262e-05
0.0001503
6.733e-09
0.0001458
0.002437
1.404e-06
0.0001796
3.589e-05
0.0008161
0.004748
0.002583
2.479e-06
0.0001511
1.583e-05
0.0001369
0.000174
0.0006748
0.0001619
0.01023
6.797e-05
0.0001436
0.0001454
0.0001562
0.000459
7.941e-06
0.0001692
0.00443
2.162e-05
0.00013
2.967e-06
5.958e-06
0.01606
0.02016
0.01884
0.001192
0.0001613
6.131e-10
0.0001523
0.0001454
7.834e-08
0.0001453
0.0001447
0.0001598
0.0002796
9.123e-07
0.00764
4.07e-07
0.004625
7.142e-06
0.0001464
0.0001576
0.0005341
1.527e-05
0.01794
0.0001958
0.0001575
2.676e-07
3.609e-08
0.0001483
6.067e-09
4.223e-08
8.965e-11
0.0002037
0.01944
0.004921
0.0001548
0.0001483
0.02334
0.0001115
1.287e-07
0.0001511
1.499e-06
3.505e-09
0.0001455
5.06e-06
2.005e-07
3.044e-05
0.0001458
1.14e-06
2.551e-08
3.806e-10
1.005e-09
0.0001632
0.001364
1.345e-09
0.0001566
0.000658
0.000144
0.005134
4.882e-07
0.02626
2.079e-05
1.058e-09
0.0001597
0.005609
5.943e-05
0.0001492
0.0001531
3.081e-06
2.13e-06
0.03399
7.385e-06
4.648e-05
0.0001486
0.01258
0.0003863
0.0004669
0.001545
0.0001455
0.0003673
0.0002928
1.541e-05
4.742e-05
4.145e-05
3.097e-06
0.0001048
1.123e-08
7.964e-11
6.301e-12
2.402e-06
0.0001539
3.87e-06
0.0001486
6.494e-07
1.671e-06
0.0001456
2.547e-09
0.0001489
0.0001833
1.068e-08
1.809e-07
0.005915
0.0001593
0.0001293
2.969e-05
0.0001302
1.077e-09
0.0001827
0.000169
0.01324
0.002243
1.163e-08
8.471e-09
9.362e-09
0.01056
5.04e-06
1.759e-05
0.0034
0.0001517
3.846e-05
5.632e-09
0.0001392
0.001747
4.588e-05
0.001955
5.273e-05
0.009702
0.03766
5.629e-08
2.768e-05
2.649e-05
1.426e-08
0.0001969
1.399e-07
0.0001524
4.854e-05
0.0002392
0.0001486
0.0001549
5.346e-05
1.675e-06
7.677e-06
1.194e-08
0.0001639
0.0001454
0.0001064
1.259e-05
9.213e-08
0.006008
0.02574
0.0001262
0.0001509
7.224e-07
0.0001266
5.144e-05
7.861e-06
0.0001541
0.0001498
0.007543
1.114e-07
8.046e-09
6.533e-10
0.0001503
1.705e-06
0.001274
2.601e-05
0.02586
0.01718
2.685e-08
0.01214
1.477e-06
1.053e-05
2.007e-06
1.932e-05
0.0001572
8.879e-09
0.01828
4.277e-05
0.0004125
0.0001647
4.809e-05
0.0001647
0.000146
6.545e-05
0.0001564
0.0008962
9.093e-05
5.633e-05
1.092e-08
5.087e-10
0.02447
1.087e-08
0.0006622
0.0001611
0.0001501
0.0001543
8.128e-05
0.0001489
2.429e-05
7.49e-09
6.106e-05
7.137e-07
0.03784
0.001469
2.627e-05
0.0004457
0.01165
2.086e-06
0.02014
8.725e-08
2.045e-05
0.0001366
0.001373
4.229e-05
0.0001477
0.0001553
2.557e-07
0.0001463
5.404e-06
8.631e-05
1.174e-05
0.0001104
1.036e-07
0.0002484
0.03077
0.0001504
2.202e-06
1.867e-05
5.234e-06
4.593e-05
0.0001432
1.033e-05
0.0001441
0.0001673
0.0002122
0.01922
7.054e-10
0.000129
1.771e-06
0.02098
1.251e-06
0.0001602
0.0005034
0.004799
5.916e-05
0.000139
0.0001177
0.0001463
1.107e-06
2.946e-06
0.0001097
0.001327
0.0001428
1.299e-05
4.968e-06
2.011e-05
6.3e-06
7.741e-06
3.182e-05
0.0001476
0.006266
0.0001245
0.00015
6.236e-06
6.342e-05
0.0001559
0.0001645
0.0001569
0.0001426
2.652e-05
0.000137
0.000135
0.0001467
0.0001537
0.0001518
6.239e-05
2.882e-05
0.0001458
1.301e-05
0.0001404
2.404e-05
0.0001469
0.0001429
0.000152
2.439e-07
0.0002693
1.101e-09
0.001383
1.922e-07
0.0001543
0.0001589
1.094e-08
0.0001502
2.454e-05
2.21e-05
1.594e-05
9.651e-05
6.469e-05
0.000146
2.289e-05
0.0001565
0.0002739
0.001665
0.0002569
8.909e-05
0.004105
4.212e-05
1.05e-05
0.0001437
0.005005
5.198e-05
8.363e-08
0.0001516
0.0001481
1.903e-06
3.888e-07
0.0047
0.002686
7.583e-05
5.327e-06
0.0001536
6.285e-05
0.0005056
0.02146
0.002103
0.001678
0.0001365
0.0001792
9.465e-10
0.02783
0.002351
1.758e-08
0.0001694
0.0001148
0.0001449
0.0001499
0.0001605
0.0001632
4.78e-08
0.0002594
0.000147
0.0001472
3.986e-05
5.756e-11
0.0001469
0.006737
1.525e-06
2.558e-05
0.0001306
2.129e-05
1.567e-05
4.086e-05
0.000185
1.442e-06
1.127e-07
3.767e-07
0.000146
0.001125
0.001424
0.0003917
0.0001429
0.0001683
0.0002188
0.01175
0.0001106
3.638e-09
2.599e-07
0.05741
1.711e-05
8.39e-08
0.01785
8.93e-06
0.006492
0.0001643
0.000161
5.227e-07
4.763e-09
0.0001443
3.218e-06
3.467e-05
0.0001469
5.857e-08
0.007064
0.0001712
0.0001554
0.0006037
1.674e-06
9.849e-05
7.39e-05
0.0001453
0.0001457
0.05145
0.002247
0.0001337
0.000166
0.0001487
1.618e-06
0.03039
0.006835
3.639e-06
2.729e-07
0.03806
0.0002347
0.0001428
9.245e-09
0.000169
1.207e-05
2.983e-06
0.0001538
1.296e-05
0.0001413
1.415e-05
1.362e-09
0.0293
1.04e-08
0.0001384
0.0001419
0.003045
0.0001514
0.000143
1.125e-09
1.669e-05
1.282e-05
2.413e-06
0.0001705
0.00161
0.000137
9.496e-10
0.0001561
4.048e-05
0.0001349
0.0001522
0.006349
0.003678
0.001105
0.000633
0.02577
0.0001117
0.0001362
0.0007448
8.649e-06
5.093e-06
1.205e-08
0.0001608
0.01135
7.134e-05
0.0001471
0.0001838
3.859e-05
0.0003733
0.0001539
0.006307
4.082e-09
0.0001306
0.0001436
6.658e-05
2.427e-05
0.02133
4.105e-06
0.0001478
9.226e-06
0.0003702
3.295e-05
0.000148
0.0001531
9.159e-07
1.96e-05
3.33e-06
0.003909
0.0001806
0.0001365
4.889e-06
0.0001422
2.698e-06
1.007e-09
0.00016
0.001985
0.01168
2.525e-05
3.617e-07
0.0001262
0.0001525
0.0001363
9.849e-05
0.0001582
0.0001447
5.867e-06
9.211e-05
0.01608
0.000136
0.0001551
0.0001545
0.0001491
1.756e-05
0.001085
0.0001454
4.949e-05
4.093e-05
0.0001338
0.0001502
0.0001467
0.0001447
0.000158
0.001908
0.02877
2.101e-06
1.075e-09
7.177e-09
4.183e-05
6.863e-08
1.821e-07
0.0001481
1.366e-09
6.641e-05
5.302e-06
0.02637
0.0001556
0.0001618
9.65e-06
1.318e-06
5.188e-07
7.36e-05
0.0001566
0.002998
1.401e-05
3.822e-05
0.0001545
0.0001644
0.00104
0.0001541
1.308e-05
0.0001496
0.001226
8.987e-05
0.0001383
0.0001527
1.385e-06
3.202e-10
5.517e-08
0.0001373
6.747e-07
0.001013
0.0001327
0.0001182
0.000146
8.253e-06
0.0001282
0.0003192
2.628e-06
2.897e-05
0.0001495
0.0001662
0.0262
2.165e-08
0.0001469
0.0001527
1.335e-08
0.0001055
0.0001443
1.767e-07
0.005783
0.0001527
0.0001526
0.02529
1.922e-05
1.266e-09
2.272e-06
5.204e-05
0.01161
0.0004885
0.000155
0.0001451
0.0001537
1.281e-05
3.641e-05
0.0002649
0.0001479
1.373e-08
1.358e-05
6.041e-05
0.002563
0.002213
6.957e-05
0.0001342
0.0001558
3.648e-05
0.000191
0.0001506
2.768e-05
2.489e-06
0.02255
0.0001676
0.0001756
0.01593
0.0001505
0.02151
5.984e-05
0.0001549
8.688e-05
0.0001477
7.143e-06
0.0004116
0.004777
0.0001152
0.0001156
7.803e-06
0.0007887
3.976e-11
0.007218
0.0001585
0.0005551
0.0001414
9.967e-05
6.429e-05
1.271e-07
2.017e-07
0.0003805
4.975e-06
1.529e-06
0.0005538
0.0001588
5.645e-05
2.752e-06
2.782e-08
0.0002361
0.0001516
5.672e-07
0.0001657
5.02e-07
7.381e-05
0.01284
0.01609
1.257e-05
0.0001459
0.001359
0.0001674
0.0001448
0.0007969
5.325e-07
0.003123
2.379e-09
3.135e-06
0.0001606
0.0001448
0.0007031
4.367e-05
0.0001669
0.0004158
0.0002155
4.322e-05
0.0002249
5.378e-06
0.0001465
2.443e-05
0.000138
0.0001156
1.009e-05
5.541e-05
0.0001182
2.405e-06
1.397e-09
0.0001419
0.0001455
5.493e-05
3.756e-05
6.995e-07
0.0001455
4.156e-05
1.593e-06
0.009348
0.01586
0.0001458
8.429e-05
2.451e-07
0.0001516
0.005203
0.0001441
4.327e-05
0.0001517
0.0002563
4.808e-06
0.0004106
0.0006341
9.622e-06
0.0002105
0.0001497
5.162e-05
3.146e-05
0.0002005
0.0001435
0.0001483
5.229e-06
1.901e-05
6.585e-05
0.0323
0.000956
0.05398
2.041e-05
7.308e-05
0.0001281
0.0001525
0.0001584
2.654e-10
1.424e-07
4.222e-06
0.0001426
2.306e-06
2.892e-05
3.743e-05
3.786e-05
5.997e-09
0.0001596
0.0004691
3.249e-05
4.305e-05
1.702e-06
1.045e-07
0.06071
0.0002107
0.04174
0.0001499
1.254e-10
0.0001469
0.02225
3.118e-06
5.838e-05
0.016
4.803e-05
0.0002051
5.872e-07
0.01027
0.0001102
0.00226
0.0001052
4.389e-06
2.587e-10
0.006891
5.807e-09
1.271e-08
0.0001455
5.147e-09
0.0001495
9.146e-07
2.614e-07
0.0004528
0.03827
0.0006378
4.087e-05
8.466e-05
0.0001504
0.00315
0.00887
0.00602
0.01357
0.001174
0.0001575
0.0001361
0.05054
9.618e-09
0.0001865
6.858e-06
3.665e-05
2.085e-06
0.0001348
2.932e-06
0.0003479
3.478e-07
0.009361
6.166e-09
1.023e-05
8.133e-06
0.0001543
7.555e-08
0.0001532
0.002674
0.001614
0.0001582
0.0001608
0.004302
6.599e-05
0.003543
0.0002933
6.977e-05
1.852e-05
0.005243
6.576e-09
7.015e-05
5.346e-08
0.0001502
0.009618
0.0008064
0.01768
0.0001525
5.445e-05
0.0001454
0.0001466
0.0001454
0.003354
2.421e-05
0.0004207
0.0354
0.0001512
0.006776
0.0001508
6.021e-09
2.963e-07
1.006e-08
1.262e-05
0.0001533
1.22e-06
9.478e-06
0.0001576
8.607e-06
0.0001464
0.0007643
0.02868
0.0001506
0.02909
0.0001422
0.0001427
7.916e-05
0.01881
0.0001515
1.162e-09
2.263e-05
0.0001398
0.0001459
4.894e-05
0.0001511
4.775e-06
1.955e-08
0.0001588
0.0001408
0.0001147
3.698e-05
2.163e-06
1.141e-09
0.0001541
0.0001614
5.778e-05
8.018e-06
0.000153
6.936e-06
8.279e-05
0.000167
1.844e-06
0.0006072
1.387e-09
0.0001515
4.529e-05
5.251e-05
4.358e-06
0.0001462
0.004241
0.0001456
0.007271
0.02082
6.996e-05
0.0005055
9.034e-06
0.0001942
0.0001604
3.882e-07
8.217e-06
1.774e-05
2.486e-06
1.152e-06
0.001505
0.0002011
4.317e-05
7.127e-06
0.01199
9.537e-06
0.0001391