/*--------------------------------*- C++ -*----------------------------------*\
  =========                 |
  \\      /  F ield         | OpenFOAM: The Open Source CFD Toolbox
   \\    /   O peration     | Website:  https://openfoam.org
    \\  /    A nd           | Version:  8
     \\/     M anipulation  |
\*---------------------------------------------------------------------------*/
FoamFile
{
    version     2.0;
    format      ascii;
    class       volScalarField;
    location    "55";
    object      nut;
}
// * * * * * * * * * * * * * * * * * * * * * * * * * * * * * * * * * * * * * //

dimensions      [0 2 -1 0 0 0 0];

internalField   nonuniform List<scalar> 
127143
(
6.26e-23
3.174e-22
2.056e-21
2.464e-20
2.247e-19
2.57e-20
1.236e-17
1.718e-18
5.13e-19
2.269e-18
2.079e-17
1.636e-18
1.11e-20
5.02e-20
1.038e-08
4.822e-16
8.621e-20
0.005236
0.003917
1.142e-13
9.432e-05
3.04e-13
6.666e-05
1.491e-08
2.546e-13
2.771e-11
1.132e-13
1.185e-13
7.235e-12
0.005289
2.18e-09
2.371e-11
1.393e-12
1.817e-10
5.016e-05
1.401e-12
2.239e-05
0.0001163
4.393e-08
8.935e-12
0.003929
4.203e-06
4.56e-06
5.849e-19
0.005259
2.981e-10
8.008e-12
0.0003733
1.923e-08
2.973e-08
1.791e-15
0.0004448
1.168e-05
4.552e-05
0.006671
2.439e-09
0.00667
9.233e-05
0.005559
4.307e-05
4.024e-06
0.001904
3.908e-07
0.006702
5.252e-10
2.242e-05
6.35e-05
3.271e-07
3.355e-07
0.002602
8.079e-09
3.684e-13
0.002749
0.004896
0.006693
3.641e-13
0.0007873
3.881e-05
2.548e-09
0.006705
5.728e-12
1.228e-13
5.247e-09
3.517e-11
0.001591
7.244e-05
9.762e-08
9.216e-13
2.31e-05
3.084e-08
0.006651
0.0001307
1.077e-07
9.663e-05
6.836e-07
0.000106
4.564e-06
5.002e-10
0.0001634
5.458e-05
0.006705
2.418e-08
1.318e-09
8.89e-06
8.615e-05
0.000145
2.414e-07
0.002603
9.124e-06
0.00668
1.687e-08
6.706e-13
1.219e-05
7.786e-07
0.006693
2.863e-05
0.0005659
0.006693
0.0008263
6.126e-15
0.006681
8.678e-09
5.284e-07
0.0001101
7.06e-12
3.558e-12
0.0009971
0.0009433
4.635e-07
1.68e-09
8.611e-06
1.014e-06
6.893e-07
4.228e-05
2.454e-17
1.012e-05
0.0001778
0.0001906
2.372e-11
0.0001507
5.237e-05
0.0009743
2.593e-05
0.0001741
1.227e-05
1.331e-06
6.05e-12
0.006702
7.977e-07
3.495e-10
3.733e-06
3.041e-08
8.453e-05
2.812e-05
4.256e-07
0.001639
7.314e-05
1.039e-09
0.0003975
3.095e-10
9.46e-09
1.28e-15
0.006648
8.873e-06
7.886e-11
1.137e-09
8.277e-06
8.389e-06
7.983e-10
0.0001923
2.736e-08
0.0001776
1.678e-05
1.508e-06
0.002391
0.0001165
2.455e-06
4.863e-07
2.992e-08
0.002074
1.531e-06
0.0006821
0.000172
0.000125
2.071e-09
0.002002
1.33e-05
8.151e-07
2.316e-08
0.0007895
4.19e-06
4.673e-07
0.0001847
5.999e-07
7.135e-18
0.0009079
0.006649
0.00663
1.555e-15
0.002775
0.006696
0.0001974
0.001719
3.243e-05
5.944e-19
1.585e-07
0.0001255
1.796e-06
0.004675
0.006693
0.0001032
0.001067
0.006689
9.302e-10
1.665e-06
3.666e-16
9.682e-10
1.727e-06
8.643e-06
0.0001234
2.796e-06
0.006694
2.754e-08
1.136e-05
1.546e-10
1.585e-08
2.915e-10
0.0001141
2.118e-07
0.0004771
6.865e-05
0.0008385
0.002903
9.79e-14
7.245e-05
0.0001035
8.806e-06
1.169e-20
0.006025
7.251e-06
5.795e-07
1.581e-09
0.0002771
1.198e-09
1.298e-05
9.184e-15
8.817e-08
1.091e-13
5.324e-15
0.00265
6.397e-06
4.619e-11
1.207e-06
0.0001225
1.018e-08
8.331e-06
0.001117
2.765e-09
6.423e-06
1.535e-05
0.0007875
0.0008995
8.214e-05
0.0009406
4.505e-06
1.19e-09
1.704e-07
1.222e-07
5.104e-06
3.354e-06
2.584e-10
0.002388
0.0007082
6.702e-06
6.279e-07
4.889e-06
1.338e-05
4.918e-08
0.002418
1.072e-05
0.003199
0.0001401
9.183e-06
0.00669
0.006692
7.136e-18
5.605e-06
0.006694
4.176e-08
0.002163
8.805e-05
4.705e-05
0.0001045
1.023e-05
0.006698
7.737e-06
3.571e-09
4.513e-06
0.0002743
3.797e-06
7.432e-10
3.375e-05
1.41e-05
3.607e-05
9.975e-11
1.109e-06
1.837e-06
0.006691
0.001806
1.574e-06
1.851e-07
7.46e-08
1.367e-09
0.003576
0.006691
8.126e-08
8.793e-05
6.03e-10
0.0001049
0.002914
8.403e-05
4.802e-09
0.0003819
1.186e-06
7.3e-08
3.619e-05
0.0001077
3.162e-05
7.512e-09
2.32e-06
0.001055
0.006693
5.513e-05
0.006649
0.006631
3.111e-05
9.817e-06
1.693e-05
0.001051
2.997e-06
0.0001707
1.715e-06
1.614e-05
5.985e-06
1.182e-06
3.878e-08
5.073e-08
2.857e-06
1.163e-09
1.251e-07
1.777e-09
0.004039
7.648e-05
5.291e-06
0.0001338
1.001e-07
0.0001201
1.918e-06
0.006396
7.42e-09
0.001172
4.532e-07
0.003117
3.348e-08
3.485e-08
0.006697
0.003142
0.002607
1.458e-09
0.002399
2.504e-06
0.000352
1.556e-10
2.709e-08
0.0009374
0.0001046
5.611e-09
4.565e-13
0.0002392
0.002448
0.001625
1.321e-11
2.204e-09
2.87e-05
0.0006275
6.767e-14
4.283e-05
1.386e-11
0.0008203
0.0004896
0.006696
1.341e-05
8.398e-08
1.002e-08
2.197e-08
2.234e-09
1.386e-05
3.776e-09
0.0001306
0.0006755
3.675e-11
0.006694
7.469e-05
0.0002024
4.186e-05
2.154e-06
0.0001206
7.183e-07
0.006705
4.242e-08
2.29e-06
8.382e-10
4.687e-05
0.0004861
7.819e-07
8.08e-07
6.255e-05
1.137e-10
2.042e-05
3.417e-08
1.01e-05
2.136e-11
7.163e-07
0.002952
0.0004393
1.269e-05
4.447e-06
3.894e-05
2.758e-09
9.557e-05
0.006677
7.344e-07
5.023e-05
0.0006598
8.799e-07
0.006697
1.575e-06
6.286e-08
0.0004741
0.006698
0.006691
4.465e-08
0.0001425
8.782e-06
0.0003223
7.092e-10
0.005892
6.916e-08
0.002654
0.001081
0.0001418
5.024e-09
2.672e-06
6.838e-10
3.654e-05
5.63e-05
5.209e-10
4.682e-09
7.61e-05
1.042e-05
1.027e-06
2.356e-06
0.0006184
8.293e-07
2.14e-06
0.002457
0.001408
2.66e-05
4.815e-08
0.006668
0.0003206
5.033e-05
9.566e-05
9.126e-05
0.0001395
0.006645
6.949e-07
5.97e-05
6.908e-08
1.641e-05
6.903e-12
9.284e-08
2.767e-08
1.513e-09
5.558e-06
8.925e-07
1.759e-05
0.006691
7.084e-10
0.00088
2.047e-07
1.255e-07
7.471e-06
1.17e-06
1.834e-17
5.111e-06
1.156e-06
9.865e-05
1.358e-06
0.006687
6.092e-12
0.001419
0.0001296
0.0009808
1.016e-19
1.095e-15
1.31e-15
0.006697
1.206e-07
1.495e-07
0.006691
0.001375
2.952e-07
9.135e-06
7.233e-06
0.0001268
4.639e-09
0.0003296
1.878e-12
0.002518
0.0009024
3.025e-14
1.753e-08
9.547e-10
4.625e-08
0.005872
4.226e-06
0.001518
0.0006057
0.00662
3.001e-10
9.908e-11
7.105e-08
0.006639
2.63e-05
0.000117
7.938e-09
3.44e-06
2.22e-10
0.001089
0.0008823
5.931e-07
4.677e-06
0.006668
3.608e-05
1.908e-05
5.682e-09
3.719e-08
2.948e-08
9.627e-09
0.0008736
1.795e-06
6.352e-08
1.312e-05
9.692e-07
0.003297
2.434e-11
1.345e-05
5.293e-10
5.731e-07
0.0003332
0.006702
0.006701
1.666e-05
3.981e-08
1.243e-06
0.006693
0.00485
1.217e-05
3.828e-09
0.0001191
5.342e-06
4.306e-09
2.475e-11
2.504e-05
0.001126
0.006682
6.054e-08
0.0001857
4.313e-07
0.004982
3.655e-13
9.551e-07
1.086e-06
0.002444
9.889e-11
0.006693
0.0001472
0.0003778
0.0006878
0.004969
1.9e-07
0.0007884
9.043e-14
0.006644
2.627e-07
1.11e-09
0.00669
2.179e-06
0.005047
1.068e-07
2.374e-05
0.00669
1.158e-08
7.321e-09
2.055e-07
6.945e-07
3.225e-05
2.383e-09
2.738e-09
1.464e-06
6.154e-08
1.628e-07
3.879e-08
4.122e-05
5.03e-06
2.68e-10
0.005573
2.233e-09
0.00669
1.206e-06
0.00081
2.8e-05
0.006677
0.005444
7.056e-05
3.758e-08
2.863e-05
0.00648
0.006676
3.201e-07
1.627e-11
1.502e-08
9.17e-10
0.002165
9.292e-06
0.000151
1.952e-06
6.474e-06
2.731e-07
2.076e-10
0.006479
1.734e-08
7.54e-06
9.228e-05
1.172e-05
0.006631
0.004851
3.593e-05
7.172e-11
1.782e-05
1.921e-11
0.0007459
0.003789
4.184e-06
2.322e-08
0.0001906
1.252e-09
9.528e-05
0.0007015
5.113e-08
6.435e-06
8.531e-06
2.338e-05
1.565e-18
2.475e-08
8.259e-05
5.443e-05
6.139e-06
1.703e-07
2.458e-10
1.835e-08
0.000412
9.61e-07
3.652e-06
8.319e-05
0.006678
5.896e-08
1.871e-05
4.539e-06
0.006639
0.006677
6.098e-12
9.667e-05
6.28e-09
4.04e-07
1.883e-07
0.001785
2.839e-05
3.239e-10
9.995e-06
1.078e-08
0.00669
0.006668
5.721e-06
1.368e-05
2.906e-09
4.981e-06
2.181e-10
0.001994
1.078e-08
9.084e-05
0.002534
0.003912
8.513e-10
0.0001523
8.049e-09
2.421e-17
8.07e-07
4.927e-06
0.0002763
0.004773
4.522e-07
3.584e-08
1.194e-11
0.004614
0.0004478
6.48e-06
6.479e-10
5.897e-05
2.519e-08
0.003189
1.931e-08
3.067e-07
1.611e-06
0.001052
5.735e-05
2.078e-22
2.15e-05
0.0001756
1.707e-07
2.941e-07
1.268e-07
0.006686
4.309e-05
0.004051
0.0001242
0.003618
1.505e-11
1.057e-06
9.154e-11
0.003501
1.206e-08
3.433e-05
3.661e-08
2.251e-07
0.003925
0.0002734
8.972e-08
2.189e-08
9.828e-05
0.002464
1.611e-05
5.155e-07
0.003308
1.714e-06
5.441e-05
2.227e-07
5.406e-06
3.543e-05
7.9e-07
1.702e-11
3.261e-07
0.006609
0.0002671
0.001947
2.36e-11
1.341e-09
4.62e-05
0.001442
1.543e-08
0.006621
1.104e-05
5.522e-08
1.871e-05
2.705e-13
1.839e-05
9.002e-08
1.198e-05
0.0003953
1.816e-05
0.006697
4.016e-19
9.051e-06
9.038e-07
6.065e-09
0.0001352
7.19e-07
2.036e-06
1.416e-08
0.006681
0.00433
8.563e-06
0.003773
8.902e-07
2.123e-07
2.324e-07
5.411e-07
0.00666
0.0001756
8.35e-05
0.00669
0.006657
1.195e-05
0.001837
0.002154
8.784e-07
0.000157
6.146e-15
4.854e-06
8.459e-06
0.006678
5.514e-05
1.403e-05
3.133e-09
2.05e-10
8.485e-06
0.003545
0.006042
0.001049
2.929e-13
0.006679
9.615e-05
2.923e-10
3.899e-07
2.102e-11
0.005725
0.0005635
4.076e-07
0.006693
1.287e-09
0.006679
1.877e-07
6.75e-11
7.526e-08
7.599e-06
2.809e-12
0.006679
2.291e-08
2.008e-05
3.991e-10
7.793e-07
2.851e-10
3.996e-10
4.836e-05
6.437e-05
1.167e-05
9.668e-15
0.006692
0.0002583
3.651e-09
8.337e-09
3.168e-06
9.455e-13
0.003611
0.000203
5.571e-08
1.05e-11
1.935e-14
1.14e-07
3.098e-16
1.811e-08
5.467e-16
1.568e-06
9.922e-09
0.004343
1.567e-13
0.0008015
1.641e-07
0.004928
0.005046
2.325e-05
0.0004369
1.163e-06
0.003098
7.555e-07
4.86e-05
0.0003683
4.07e-08
1.423e-07
0.006167
0.003406
2.079e-05
0.0004282
6.96e-09
8.636e-14
0.0003965
2.125e-06
1.496e-08
0.0002423
3.003e-07
0.006688
7.803e-06
8.916e-09
0.00643
2.236e-08
1.408e-05
0.002111
0.006665
0.002749
0.002543
1.228e-15
1.359e-05
8.098e-14
0.0003386
1.131e-06
2.314e-07
4.462e-10
6.926e-09
0.005545
4.746e-11
9.608e-06
0.00542
9.826e-06
1.358e-13
0.001061
3.579e-09
3.753e-06
1.598e-05
9.6e-11
3.682e-16
1.446e-08
0.0008638
0.006693
2.093e-06
8.031e-06
3.857e-06
1.508e-08
6.856e-07
9.535e-11
3.343e-05
5.42e-05
8.07e-11
0.0001448
1.98e-12
0.006688
0.0003086
5.43e-08
7.76e-05
7.521e-07
0.0001837
0.006691
0.002286
1.409e-08
4.143e-05
2.471e-06
1.828e-08
1.667e-07
0.001037
1.614e-05
1.06e-07
3.064e-08
1.259e-14
1.388e-05
1.349e-09
2.714e-08
2.427e-06
0.001024
5.597e-07
8.568e-07
1.252e-08
1.194e-12
0.000162
0.006687
0.006682
0.0004004
0.000167
8.581e-05
0.006692
1.669e-06
0.0001458
6.396e-05
2.593e-07
3.008e-05
1.538e-07
2.247e-06
0.006705
7.044e-05
5.238e-05
5.573e-12
1.153e-10
3.453e-05
1.12e-05
0.000345
1.546e-09
1.821e-08
1.135e-06
0.002271
6.344e-07
1.123e-07
8.51e-06
6.943e-11
0.006497
9.608e-12
3.571e-10
0.002033
9.092e-07
9.864e-09
0.004393
1.483e-13
1.356e-14
0.006246
0.00669
5.118e-06
4.187e-05
5.035e-14
2.753e-06
1.795e-07
9.326e-09
6.963e-08
7.471e-05
0.0001053
0.003728
3.508e-08
0.00145
3.268e-07
1.696e-05
3.939e-09
4.482e-05
0.005335
2.166e-14
1.02e-05
0.006691
3.544e-08
0.005597
0.006686
1.301e-06
7.7e-05
3.161e-14
0.006687
1.385e-09
0.006693
1.525e-07
9.056e-05
0.003829
5.363e-06
2.377e-09
8.093e-09
3.431e-08
6.872e-07
0.003625
0.0005924
7.319e-05
4.83e-08
6.912e-07
1.224e-07
1.597e-12
3.459e-08
1.438e-13
5.1e-07
8.594e-09
1.862e-09
7.498e-09
1.798e-11
5.404e-06
0.00421
0.00404
1.425e-08
1.26e-05
1.482e-10
0.002825
1.51e-08
0.0005614
2.784e-07
1.691e-07
3.754e-06
6.563e-05
1.281e-09
0.001246
2.821e-07
2.603e-06
1.34e-09
7.033e-07
0.006521
1.413e-06
1.264e-08
0.006693
1.267e-07
1.61e-09
0.006674
2.644e-05
2.112e-06
0.000315
5.391e-06
0.0002082
6.117e-05
0.0001033
0.006665
2.779e-07
5.494e-07
0.006699
7.347e-06
0.000153
0.0001558
1.984e-07
3.64e-06
0.0003997
4.578e-08
1.894e-12
2.572e-09
1.939e-08
0.0006135
1.533e-13
0.002678
8.19e-08
0.006692
4.009e-05
5.625e-06
1.453e-07
1.654e-07
4.799e-08
3.197e-12
0.006698
6.999e-15
3.44e-09
7.945e-09
4.875e-07
4.457e-09
0.001333
0.004564
6.499e-11
3.218e-07
6.473e-05
5.207e-18
7.561e-05
1.554e-08
4.989e-10
5.059e-08
1.437e-07
7.934e-05
5.116e-10
2.032e-07
4.817e-06
7.049e-06
4.807e-09
1.108e-08
0.001117
8.717e-14
9.418e-05
1.226e-07
0.0001186
1.432e-09
0.006646
0.00669
6.097e-05
8.251e-14
0.0002314
0.002311
4.125e-14
3.287e-08
0.006692
2.847e-11
1.862e-07
1.299e-05
8.347e-13
2.589e-05
1.351e-05
1.288e-17
0.003267
8.727e-11
0.0007024
2.974e-07
1.306e-11
1.37e-08
3.129e-10
4.882e-06
2.588e-08
0.0001117
0.003196
3.322e-06
2.095e-06
4.225e-06
2.256e-07
0.0018
1.525e-10
0.0006022
8.223e-05
0.001282
3.911e-06
3.258e-05
2.635e-06
9.008e-14
5.826e-05
1.798e-12
8.849e-10
5.049e-06
1.432e-05
0.006693
0.001123
2.687e-06
3.182e-05
8.234e-10
8.012e-10
1.319e-10
0.006681
6.106e-09
3.201e-08
1.591e-05
2.776e-14
1.111e-06
0.003376
9.164e-08
0.002436
6.054e-08
7.072e-06
5.002e-12
2.542e-07
0.0006942
0.0003093
0.006697
3.766e-16
2.513e-14
4.821e-05
7.027e-05
5.192e-06
0.006493
0.006649
5.836e-07
0.0008817
0.003257
8.29e-05
0.003096
0.003048
1.496e-06
4.288e-05
0.001582
1.693e-08
2.413e-08
1.451e-14
3.225e-05
2.138e-10
8.576e-06
4.376e-07
0.006651
2.56e-09
0.0007232
3.198e-07
1.044e-14
1.766e-05
0.001846
4.047e-06
4.279e-07
2.219e-05
5.051e-15
0.001926
1.249e-05
0.001502
0.001617
9.188e-06
3.109e-08
4.272e-15
6.887e-05
9.226e-08
0.006674
1.559e-08
1.308e-08
0.006665
4.875e-09
7.31e-07
1.449e-05
5.067e-09
0.006682
2.351e-05
1.493e-16
0.00441
3.647e-08
3.496e-08
2.646e-07
3.835e-11
5.678e-05
9.395e-06
1.674e-07
4.593e-11
9.715e-06
7.004e-08
1.809e-05
1.959e-07
2.613e-10
1.537e-10
9.396e-08
9.965e-06
0.006691
1.217e-07
0.003407
3.363e-10
3.326e-07
0.001915
8.799e-06
0.006697
1.908e-05
5.928e-07
0.006601
0.002013
0.006121
5.203e-10
0.002025
1.527e-13
1.892e-06
1.538e-05
4.165e-09
1.923e-05
7.102e-08
7.684e-09
3.626e-16
7.281e-06
1.122e-06
2.005e-05
4.741e-05
0.0007385
0.006702
3.574e-05
0.001247
0.0007712
0.006699
0.00168
0.006685
5.697e-08
8.66e-06
0.006674
0.006685
1.437e-06
8.57e-05
8.366e-09
7.466e-05
0.006681
6.173e-06
3.252e-05
6.388e-05
7.742e-16
3.125e-10
1.854e-13
6.532e-08
6.205e-07
1.518e-08
6.13e-08
0.0002245
0.0002014
6.886e-12
0.0005671
5.485e-09
3.856e-09
1.715e-06
4.623e-06
0.003722
0.006686
3.31e-16
1.314e-05
3.405e-11
0.006692
1.273e-14
4.785e-08
1.033e-08
7.426e-06
0.006637
0.006636
0.001661
0.001716
0.002122
0.001367
3.445e-07
5.587e-05
4.865e-06
0.002945
1.085e-05
1.262e-10
1.291e-06
0.0001564
8.622e-05
9.002e-06
6.441e-10
1.454e-08
2.277e-07
1.113e-08
0.0003214
0.002545
1.557e-05
6.113e-06
7.122e-13
1.652e-05
0.0003291
3.101e-07
0.002396
1.062e-07
6.13e-05
1.684e-10
0.003871
0.006692
0.0002619
7.694e-07
6.781e-15
2.696e-11
8.842e-05
9.309e-06
4.902e-09
8.59e-05
0.006617
1.735e-08
5.96e-08
1.157e-15
5.476e-05
1.155e-13
1.328e-05
0.006686
3.42e-08
5.223e-08
0.00123
1.364e-05
0.0002373
1.819e-07
4.329e-07
6.415e-07
0.0007573
8.435e-10
0.0001304
3.458e-08
3.797e-09
1.062e-09
0.003244
0.003242
5.919e-09
8.054e-06
3.614e-15
6.816e-07
5.108e-10
3.643e-10
3.116e-16
0.002724
5.203e-07
0.0003805
0.003629
0.006685
0.0005449
0.006255
1.582e-14
0.006691
2.927e-11
4.08e-05
1.12e-06
4.086e-07
1.417e-09
0.002587
1.306e-11
7.679e-05
1.748e-07
0.000239
3.276e-12
0.006687
2.942e-07
3.479e-08
0.0003439
2.333e-09
4.581e-08
9.294e-05
1.854e-08
5.078e-09
0.0001737
0.006661
1.408e-10
0.002608
0.006656
5.635e-05
8.054e-10
0.006661
2.882e-11
0.006694
9.813e-06
4.889e-06
0.000476
5.555e-07
0.006658
0.0002381
1.28e-08
8.596e-05
3.327e-05
2.619e-06
3.665e-05
0.006692
0.00668
6.007e-06
3.962e-15
1.166e-06
2.061e-07
0.0008223
2.441e-12
7.644e-05
4.785e-05
0.002942
1.974e-05
1.25e-06
2.101e-09
0.0006156
4.39e-08
0.001065
4.572e-06
0.006703
4.052e-06
1.06e-07
0.0003344
7.658e-07
8.458e-10
5.96e-07
0.006677
1.617e-05
6.046e-11
1.242e-07
1.455e-14
2.547e-10
0.002404
0.0003221
1.36e-05
9.391e-12
1.509e-05
2.349e-08
9.086e-11
0.002836
5.823e-05
0.006688
1.841e-07
4.77e-08
1.496e-06
0.006693
4.686e-07
0.006692
9.967e-05
1.208e-06
0.00669
0.002893
5.609e-05
1.062e-06
0.0003028
0.002556
1.107e-08
0.006696
9.93e-09
6.562e-11
1.123e-05
0.003779
6.459e-08
0.0009341
5.693e-06
8.735e-05
5.943e-10
3.29e-07
6.375e-05
1.153e-09
1.49e-06
1.15e-07
9.383e-11
0.0001452
4.179e-05
2.282e-07
0.0002087
2.774e-08
0.0001173
1.019e-05
2.771e-07
0.0003206
0.002454
5.255e-09
0.002553
2.524e-06
4.359e-06
1.601e-14
1.787e-05
5.208e-13
6.268e-05
0.006663
5.361e-13
1.033e-07
9.785e-05
9.215e-09
0.0004267
2.307e-05
0.006705
0.001165
1.806e-12
0.0005229
4.789e-06
3.289e-07
9.615e-08
0.006695
3.882e-07
7.638e-06
7.045e-06
3.231e-10
0.0004482
2.345e-07
5.894e-11
0.006688
0.0002376
4.651e-05
0.002757
3.615e-06
1.812e-05
3.164e-05
1.639e-06
0.0001028
0.0007171
0.003226
5.162e-05
8.522e-07
0.006525
2.631e-05
2.024e-09
1.871e-13
0.006691
3.259e-07
9.783e-13
0.001738
5.121e-09
0.001506
8.97e-08
1.752e-13
0.003023
0.002544
1.846e-05
0.0009335
6.858e-10
3.808e-06
0.0004229
1.06e-11
8.697e-08
0.0004612
2.909e-08
5.619e-17
1.561e-16
3.668e-05
1.316e-05
1.532e-07
7.088e-05
0.000629
2.881e-06
0.000391
4.515e-09
9.758e-07
1.767e-06
5.626e-08
3.825e-12
0.0001216
2.81e-05
0.006692
2.627e-08
2.744e-05
3.641e-05
1.55e-05
7.585e-05
1.007e-07
3.356e-05
0.003706
0.006667
4.955e-09
2.628e-10
2.31e-05
1.605e-08
0.0003769
1.438e-14
1.796e-08
0.0001852
1.357e-07
1.651e-10
4.941e-05
1.685e-07
3.909e-15
0.006609
1.655e-11
8.967e-09
8.199e-08
0.004925
0.0002677
0.001136
5.56e-10
1.786e-08
0.001514
1.851e-10
0.004886
5.792e-06
4.921e-08
0.0001332
0.001629
0.005784
3.897e-09
2.029e-10
1.086e-07
1.488e-10
2.205e-11
0.0002728
3.419e-13
0.002593
2.588e-08
6.401e-06
0.00232
0.0001147
0.004369
9.816e-07
0.0005612
1.694e-07
0.003127
1.878e-07
3.947e-16
3.033e-13
1.765e-05
4.892e-05
3.442e-05
1.283e-05
0.001906
0.0002034
6.749e-07
7.932e-05
0.006697
3.243e-07
1.441e-07
2.208e-08
2.687e-06
2.708e-06
5.092e-08
7.804e-05
5.252e-09
1.563e-13
8.911e-12
0.0001088
2.011e-07
6.133e-16
0.001317
2.696e-09
0.003993
2.232e-06
4.489e-06
5.349e-18
4.076e-06
2.381e-06
0.003531
0.000185
1.865e-08
9.928e-06
0.006693
0.006698
0.0006525
1.929e-10
0.001187
1.682e-07
1.056e-13
1.724e-06
0.001364
3.564e-10
0.002136
7.096e-06
1.887e-11
7.356e-05
0.004137
1.257e-05
3.576e-06
7.211e-05
3.691e-07
0.006696
6.908e-08
0.00318
4.256e-10
0.003453
3.405e-08
1.91e-11
1.726e-05
3.165e-10
7.39e-05
4.753e-09
1.156e-07
4.601e-09
1.958e-05
0.0009968
2.038e-05
8.843e-05
4.04e-09
5.888e-06
3.342e-10
3.557e-08
0.006699
4.376e-06
0.004005
9.626e-10
3.453e-07
0.002399
0.0004717
7.987e-05
1.376e-11
0.003425
5.576e-06
0.000518
3.746e-05
0.001819
8.485e-05
0.0001113
1.775e-13
0.0001124
0.000339
8.575e-09
0.006671
0.000569
6.758e-05
5.762e-05
0.001111
0.006687
9.693e-05
4.019e-08
8.64e-09
0.006692
0.0009812
0.002152
1.609e-06
3.256e-08
0.00119
1.93e-05
6.692e-05
7.574e-10
3.04e-09
0.001768
6.672e-07
2.232e-05
0.0001003
1.969e-07
2.881e-14
0.001945
7.471e-10
5.697e-09
0.00153
1.659e-14
0.006684
0.006661
1.371e-05
1.708e-05
2.195e-16
0.006692
0.0009368
8.951e-09
6.473e-15
4.238e-08
1.864e-09
0.006297
0.006373
7.583e-09
3.731e-07
7.546e-05
6.469e-07
5.485e-05
0.0007939
2.787e-05
0.006705
3.439e-10
7.353e-08
2.804e-07
0.0001759
1.22e-11
0.001202
1.781e-05
0.006666
2.843e-06
5.737e-08
6.735e-10
6.82e-09
3.094e-06
2.005e-11
1.436e-07
3.17e-06
1.887e-07
1.397e-08
1.754e-06
0.0001098
6.091e-07
1.139e-10
0.00483
0.005038
1.068e-07
2.857e-06
1.412e-12
9.465e-06
4.562e-09
1.761e-07
0.002631
0.006692
7.584e-06
0.006702
6.25e-05
1.476e-13
2.227e-06
9.24e-05
3.186e-07
0.0001253
7.667e-12
5.901e-08
0.003046
2.247e-06
2.84e-06
2.296e-07
0.0003111
2.737e-07
1.895e-06
1.269e-06
8.064e-06
3.602e-05
1.806e-06
0.0008741
4.252e-10
1.338e-07
8.189e-06
6.012e-06
9.542e-11
9.654e-06
1.513e-07
2.049e-08
1.007e-06
8.449e-06
1.51e-06
3.65e-13
0.0001117
9.054e-08
0.001487
0.0008769
0.006703
1.097e-07
0.002527
3.35e-13
3.68e-07
4.149e-05
8.767e-10
3.385e-15
1.356e-10
1.401e-05
3.703e-07
4.138e-10
1.199e-11
0.002386
0.0002733
1.047e-06
8.594e-16
2.717e-06
2.793e-05
6.791e-05
7.569e-05
0.006692
7.244e-05
2.297e-10
7.046e-06
4.078e-08
0.001864
8.568e-05
1.045e-11
0.006646
4.032e-05
0.0001075
0.001444
9.046e-10
7.244e-05
1.846e-05
0.002968
5.468e-05
4.641e-08
1.195e-06
2.45e-14
9.942e-09
1.292e-06
0.006675
5.024e-05
8.302e-06
2.659e-10
6.939e-09
8.555e-07
0.003267
1.341e-06
0.006147
1.983e-08
4.716e-09
8.378e-06
1.644e-06
1.786e-05
2.181e-11
9.896e-10
1.302e-08
1.616e-06
5.446e-05
1.489e-06
1.195e-10
0.004225
0.0001019
1.243e-13
0.002782
0.0001477
0.004939
0.006699
1.348e-06
0.002779
2.006e-08
3.49e-07
0.0001621
7.318e-05
1.081e-09
1.836e-11
2.503e-06
8.018e-09
2.676e-06
0.001213
8.037e-15
4.466e-05
5.042e-06
0.002916
4.9e-14
0.0008544
2.93e-11
7.189e-13
0.003531
4.643e-09
1.162e-09
9.119e-06
0.0005102
7.854e-10
1.16e-07
1.401e-09
0.0001612
3.264e-05
0.0001905
0.004171
0.0067
4.813e-05
0.0005689
3.767e-07
1.327e-06
7.271e-06
1.16e-13
0.0005573
0.004963
1.535e-08
3.321e-05
0.001158
4.769e-07
1.711e-05
8.631e-07
1.892e-09
3.726e-10
6.938e-13
3.087e-07
4.041e-08
8.856e-08
6.318e-06
5.61e-07
2.156e-05
3.567e-14
2.417e-08
2.998e-07
9.388e-06
0.006678
1.48e-07
1.353e-08
0.000629
9.582e-06
6.139e-13
1.484e-09
2.448e-07
0.0001784
2.604e-06
8.855e-10
0.006691
1.592e-09
0.00172
0.0001253
8.705e-07
5.587e-09
0.006699
1.217e-07
0.0005685
2.396e-06
5.137e-12
3.473e-06
6.121e-07
3.464e-16
5.072e-05
4.847e-08
0.006663
0.006639
5.865e-08
1.996e-05
1.421e-05
2.736e-09
1.924e-07
0.006685
1.514e-11
7.431e-10
8.911e-06
0.006698
0.004124
9.083e-06
1.063e-05
5.17e-08
1.984e-16
2.842e-09
0.005524
2.176e-09
1.268e-12
8.625e-05
3.416e-09
1.744e-08
0.002765
6.057e-05
1.214e-09
0.001437
0.0001513
0.006632
0.006586
0.006612
0.006272
0.0001301
0.0005014
1.492e-06
5.948e-09
4.944e-06
1.308e-06
3.93e-05
7.129e-11
0.006124
2.377e-06
4.92e-05
5.856e-09
4.642e-10
2.195e-09
6.527e-06
4.141e-07
1.837e-08
1.59e-05
1.277e-07
0.0001714
2.226e-07
1.939e-15
5.768e-08
6.653e-12
4.021e-06
1.399e-07
0.006691
4.315e-14
6.986e-06
1.615e-08
5.515e-06
0.0001303
1.021e-13
0.006693
2.344e-05
1.249e-09
0.004309
2.654e-07
6.059e-06
0.0003097
1.186e-05
1.73e-10
8.011e-05
1.277e-08
0.006625
8.361e-06
5.591e-06
3.645e-07
0.000549
3.74e-07
0.006679
0.00503
6.137e-05
2.862e-07
4.634e-09
0.0001012
0.0002449
1.407e-07
1.307e-05
4.418e-10
1.537e-08
0.001139
0.002051
0.0006232
1.431e-05
0.0001055
5.532e-15
3.685e-06
0.00669
5.096e-12
0.006693
0.006687
7.307e-05
0.002592
7.539e-11
0.0004535
1.871e-10
0.0001286
1.71e-08
0.006695
9.584e-05
7.449e-07
6.537e-08
0.001315
0.003549
6.265e-05
5.162e-12
5.088e-12
0.006702
4.549e-13
4.798e-12
2.41e-16
0.002985
0.001564
0.0003434
9.176e-05
0.0006285
0.00191
4.603e-07
2.728e-12
9.756e-06
1.778e-09
1.376e-15
0.006692
1.075e-08
6.395e-11
2.087e-07
0.006693
1.066e-09
2.854e-13
2.589e-15
1.279e-14
0.0001049
1.08e-05
1.691e-14
0.0002664
5.017e-06
0.006686
0.0003011
3.861e-10
0.003137
3.498e-08
1.389e-14
8.03e-05
2.229e-05
3.041e-07
0.006706
0.004607
4.919e-09
1.319e-09
0.003156
4.652e-10
3.965e-07
3.833e-05
0.001023
1.531e-05
7.699e-07
1.811e-05
0.006692
9.135e-06
7.967e-06
6.468e-08
7.131e-08
1.124e-07
5.265e-09
1.787e-07
1.119e-13
6.921e-16
4.417e-18
3.646e-09
0.0001533
2.168e-09
0.0003381
4.691e-10
6.347e-10
0.006691
3.437e-15
0.006705
5.852e-07
5.989e-13
4.317e-11
4.474e-05
6.187e-07
1.571e-07
4.044e-08
0.006629
1.645e-15
8.923e-07
0.00293
0.001148
1.08e-05
1.018e-13
4.244e-13
4.079e-14
0.000968
8.126e-09
2.738e-09
0.0002128
2.534e-05
2.884e-07
4.327e-13
0.006667
2.321e-05
4.264e-07
4.748e-06
6.103e-07
0.0001851
0.003448
9.165e-12
1.739e-07
1.216e-07
7.821e-13
0.003033
3.534e-11
4.025e-05
5.309e-07
6.388e-07
0.006439
9.781e-05
6.718e-07
1.745e-09
2.037e-08
1.239e-13
0.002946
0.004492
7.864e-06
4.677e-08
1.938e-11
0.0001414
0.003244
0.00643
0.0002797
4.724e-10
0.006343
9.023e-08
1.511e-08
8.927e-05
8.266e-07
0.0001025
4.077e-12
7.837e-14
1.082e-14
8.509e-05
2.182e-09
9.315e-06
1.452e-07
0.002017
0.001868
1.135e-12
0.0007788
8.333e-10
3.677e-08
1.636e-10
9.102e-08
2.576e-05
1.807e-13
0.0006184
3.882e-07
1.603e-05
0.003217
4.811e-07
9.358e-05
0.002206
1.198e-06
2.804e-07
1.044e-05
4.017e-07
6.813e-07
5.808e-14
1.726e-15
0.002364
4.988e-15
0.00241
7.373e-05
0.0001129
0.0001598
9.088e-07
0.006704
3.137e-08
8.689e-14
8.537e-08
9.515e-11
0.0008387
4.64e-05
8.199e-08
4.081e-06
0.0008802
2.521e-09
0.001199
1.009e-11
1.03e-07
0.005297
6.173e-06
3.735e-07
0.0067
0.0004172
9.743e-11
0.006694
2.392e-08
3.43e-07
4.169e-08
4.725e-06
2.504e-11
0.002574
0.0009194
5.243e-05
2.177e-09
8.926e-10
4.372e-09
4.61e-07
0.006684
1.507e-08
0.00669
7.345e-05
9.026e-07
0.0005047
1.232e-14
5.673e-07
2.295e-09
0.002138
3.346e-10
2.467e-05
0.00246
0.0002027
1.021e-07
0.006669
7.507e-06
0.006694
8.407e-10
1.135e-09
3.86e-07
1.284e-05
0.006631
1.341e-08
1.192e-08
1.91e-07
1.084e-10
3.146e-08
8.335e-09
0.0006103
0.0001639
1.093e-05
1.747e-05
1.713e-08
1.314e-06
0.0001088
1.758e-05
0.0001017
1.289e-06
2.469e-07
0.006623
0.006664
0.001993
0.0002925
5.398e-06
1.122e-08
3.785e-08
0.002484
5.406e-08
2.264e-06
1.419e-07
0.006697
7.862e-07
5.091e-05
9.311e-11
0.002935
2.537e-15
1.033e-05
6.262e-11
0.003575
0.0001102
1.789e-13
0.0003064
1.53e-07
9.003e-08
4.115e-08
2.522e-07
6.366e-07
0.006693
8.764e-08
1.97e-07
4.588e-06
1.395e-05
6.644e-06
4.594e-06
0.0001127
3.191e-07
8.663e-09
0.006685
0.0002887
6.196e-07
1.151e-11
7.053e-06
0.006701
4.504e-09
1.781e-10
0.0002042
0.0001233
2.248e-06
5.351e-09
0.0001777
1.189e-06
4.448e-07
0.001974
5.627e-06
1.574e-05
0.00532
5.48e-06
1.496e-14
0.0003683
7.027e-06
2.417e-12
1.476e-05
4.533e-06
0.00669
0.0003015
8.448e-05
0.003555
8.164e-13
1.485e-06
0.006697
0.00106
3.385e-07
1.894e-16
0.006697
0.0002415
7.066e-11
1.492e-07
6.595e-06
1.026e-07
5.825e-09
3.829e-07
2.819e-06
1.672e-09
9.856e-13
1.192e-10
0.002102
1.551e-05
4.146e-05
2.794e-06
0.006683
5.841e-05
8.474e-07
0.0003714
1.92e-07
4.858e-14
3.588e-11
0.002636
1.726e-08
7.007e-13
0.001818
8.318e-09
0.0002525
3.871e-05
7.303e-05
2.133e-10
1.145e-13
0.006688
1.043e-08
2.182e-07
0.006697
7.823e-12
0.0004175
1.144e-05
0.0001327
1.317e-05
2.012e-09
2.45e-07
6.061e-07
0.006703
0.003098
0.00317
6.526e-06
0.00668
6.679e-06
0.0003769
5.838e-10
0.002869
0.0004204
6.653e-09
1.157e-10
0.001967
3.465e-06
0.006674
1.262e-13
8.831e-06
2.661e-09
5.301e-09
9.212e-05
1.825e-08
2.901e-06
5.323e-08
2.37e-14
0.003695
1.938e-13
0.006671
0.006684
8.308e-05
5.66e-05
0.006683
8.007e-15
7.963e-08
2.687e-08
3.993e-10
1.517e-06
3.369e-05
0.00491
6.974e-15
0.0005302
2.877e-07
0.006664
2.573e-05
4.993e-05
6.506e-05
1.736e-05
1.541e-05
0.002908
7.608e-08
0.006656
1.214e-05
1.293e-09
7.522e-10
1.313e-12
8.921e-05
0.0001945
2.04e-06
0.006699
1.228e-07
9.023e-08
0.0002442
0.0001987
3.838e-05
6.905e-14
0.005969
0.006679
1.51e-06
5.782e-09
0.001964
1.619e-09
0.006701
1.018e-09
2.395e-06
2.085e-07
0.006701
6.984e-05
8.045e-10
5.85e-08
1.017e-09
0.0001522
2.543e-06
0.006675
5.818e-09
0.004662
2.374e-09
1.051e-14
0.0009995
8.015e-06
0.001068
1.78e-09
9.662e-12
6.734e-08
8.758e-05
0.006656
1.716e-06
8.59e-05
0.006689
1.251e-08
3.652e-07
0.001603
0.006687
0.0001133
9.027e-05
0.0001792
2.399e-08
1.226e-05
0.006693
5.744e-08
2.801e-07
6.011e-08
0.0005433
0.006696
0.006689
0.0003884
1.455e-05
0.001307
2.961e-09
1.77e-14
1.995e-13
3.12e-07
5.857e-13
3.593e-11
0.002768
2.639e-14
8.254e-07
1.031e-09
0.002961
6.903e-05
3.434e-05
7.927e-10
1.101e-09
1.506e-10
1.179e-07
0.000251
9.053e-05
2.717e-08
3.126e-07
7.671e-06
9.375e-05
2.644e-06
5.374e-05
2.952e-08
0.004162
2.896e-05
2.123e-06
5.667e-06
1.209e-05
1.201e-09
2.842e-15
6.806e-12
0.006662
1.146e-11
2.188e-05
0.006655
4.681e-07
0.006694
3.046e-09
1.379e-06
0.002691
5.497e-09
5.441e-08
0.006707
3.579e-05
0.003117
1.394e-12
0.0009187
1.609e-05
8.418e-13
8.357e-06
0.006687
4.658e-11
0.0001395
0.0004223
1.698e-05
0.001535
1.036e-07
1.78e-14
3.37e-09
5.728e-07
0.001091
2.92e-07
5.071e-06
0.006688
0.0001809
2.023e-08
2.969e-07
2.285e-06
0.006701
8.451e-14
5.959e-08
8.703e-07
7.49e-06
4.775e-05
7.755e-07
0.006654
0.0001485
4.878e-08
8.689e-07
4.682e-05
1.756e-07
3.087e-09
0.002347
8.66e-06
8.882e-06
0.00161
5.287e-05
0.002563
8.96e-07
1.74e-06
2.107e-06
0.0067
3.564e-09
0.002526
9.754e-05
5.561e-06
1.35e-05
1.128e-09
8.866e-06
9.624e-17
0.0005007
3.544e-05
0.002359
0.006677
5.884e-06
1.3e-06
2.705e-11
1.072e-10
1.68e-06
1.018e-08
4e-10
1.503e-05
2.397e-05
6.693e-07
4.013e-09
2.687e-12
6.225e-06
0.0001263
2.96e-10
5.282e-05
2.948e-10
2.388e-06
0.001287
0.0005051
5.267e-08
0.006693
3.783e-06
6.628e-05
0.006689
0.0003558
2.788e-10
0.002391
8.455e-16
4.36e-09
1.202e-07
0.006689
1.91e-05
1.921e-07
0.003424
1.608e-05
5.099e-06
9.574e-09
4.228e-07
1.262e-09
0.006695
1.899e-07
0.00668
1.357e-05
2.955e-08
7.857e-08
6.04e-06
3.046e-09
6.652e-16
0.006608
0.006692
6.161e-07
2.022e-07
4.553e-10
3.692e-05
3.463e-07
1.811e-09
0.0004053
0.001086
0.002747
1.787e-07
8.48e-11
3.287e-05
0.0001519
0.006686
2.527e-07
6.119e-05
4.335e-06
1.074e-08
3.048e-06
0.001973
3.336e-09
1.53e-06
0.0003943
7.122e-08
1.938e-07
0.0001152
0.006685
0.006556
1.07e-08
4.085e-09
1.339e-06
0.003994
9.882e-06
0.003274
1.093e-07
1.435e-06
0.006603
8.702e-06
3.157e-05
2.313e-15
3.834e-11
1.893e-09
0.00668
3.487e-09
1.924e-07
1.106e-08
1.714e-08
2.412e-13
1.692e-05
1.518e-05
2.189e-07
3.896e-07
2.124e-09
1.959e-11
0.00251
0.002874
0.004287
8.947e-05
5.944e-16
0.0008156
0.001596
5.452e-09
8.994e-07
0.00109
7.018e-08
3.397e-06
3.796e-11
0.0007971
1.013e-07
5.42e-05
8.537e-06
9.351e-09
2.329e-15
0.0002072
9.339e-14
3.768e-13
0.006691
7.478e-14
5.674e-07
5.187e-10
7.657e-11
1.128e-05
0.0008642
1.655e-06
3.097e-07
2.198e-06
4.891e-05
0.0002138
0.0005086
4.869e-05
0.0004048
1.382e-05
1.634e-05
2.775e-05
0.001561
1.352e-13
3.516e-06
5.956e-10
2.991e-07
3.049e-09
0.006649
3.311e-09
3.601e-06
6.419e-11
0.0007828
2.666e-13
2.699e-08
2.396e-08
8.882e-05
1.697e-11
8.042e-05
0.0001305
3.926e-05
0.0001647
9.995e-05
0.000168
1.273e-06
1.672e-05
7.04e-07
2.1e-06
9.173e-08
0.0001137
2.892e-13
1.476e-06
1.405e-13
3.952e-05
0.0002242
2.866e-06
0.001936
0.0001336
7.705e-08
0.006692
0.003058
0.006691
5.214e-05
1.497e-07
3.107e-07
0.002579
8.282e-06
0.0001323
5.614e-05
1.598e-14
9.232e-11
1.483e-13
5.028e-08
9.664e-05
1.289e-09
1.37e-09
0.0001189
3.347e-09
0.006695
2.258e-05
0.003341
1.519e-07
0.0008871
0.00668
0.006676
5.512e-07
0.002076
0.0001451
1.598e-14
1.28e-07
0.006673
0.006692
4.775e-07
0.0002558
6.382e-09
1.548e-12
0.005184
8.528e-06
1.32e-07
6.167e-08
4.573e-09
1.5e-14
4.359e-06
9.172e-05
7.258e-07
2.632e-08
3.393e-05
1.753e-08
1.063e-06
1.479e-05
2.235e-09
4.294e-06
6.287e-16
0.005776
3.181e-07
4.506e-09
2.166e-09
0.006695
0.0001045
0.006692
0.0005555