/*--------------------------------*- C++ -*----------------------------------*\
  =========                 |
  \\      /  F ield         | OpenFOAM: The Open Source CFD Toolbox
   \\    /   O peration     | Website:  https://openfoam.org
    \\  /    A nd           | Version:  8
     \\/     M anipulation  |
\*---------------------------------------------------------------------------*/
FoamFile
{
    version     2.0;
    format      ascii;
    class       volScalarField;
    location    "55";
    object      omega;
}
// * * * * * * * * * * * * * * * * * * * * * * * * * * * * * * * * * * * * * //

dimensions      [0 0 -1 0 0 0 0];

internalField   nonuniform List<scalar> 
127143
(
1.528e+08
2.873e+08
3.278e+08
1.398e+08
1.173e+07
1.415e+08
4.635e+06
8.099e+06
1.294e+07
1.888e+06
6.817e+06
1.065e+07
3.857e+08
1.183e+08
2361
3.152e+05
3.958e+07
13.63
8.691
1.257e+05
24.51
2.853e+05
0.08329
375.5
3.073e+05
4453
2.31e+04
2.281e+04
1.551e+04
13.24
904.6
5021
2.494e+04
3452
0.04215
2.431e+04
102.5
64.12
254.6
8008
8.744
0.4531
0.3201
5.491e+07
13.23
2590
1.435e+04
23.98
385.1
302.9
1.983e+05
0.0253
34.25
0.1577
0.02092
1126
0.02091
0.6522
0.02216
0.1568
0.3114
9.212
105.5
0.02211
1165
0.4382
0.04452
119.5
117.9
0.08329
500.8
1.555e+04
12.84
0.02216
0.02179
1.579e+04
0.0228
57.78
1069
0.02222
1.568e+04
1.118e+05
968.1
4517
15.31
45.16
190.6
1.626e+04
0.3582
1322
0.02206
13.08
733.5
24.14
113.7
0.3711
0.413
1460
26.53
0.04408
0.02221
353.4
6007
12.48
41.72
28.02
137.5
0.08363
2.217
0.02132
1912
2.004e+04
46.55
11.06
0.02174
5.246
0.023
0.02179
0.0227
1.152e+06
0.02134
951.1
133.7
0.1742
1.493e+04
9091
11.46
0.02343
82.44
1358
95.26
129.2
68.27
55.82
4.474e+06
89.08
0.05027
16.74
1.302e+04
0.04369
0.1193
0.02229
24.93
15.63
34.21
116.3
6.71e+04
0.02213
141.1
9319
22.65
348.2
93.69
0.06882
279.6
14.96
0.6512
1810
23.21
1740
507.3
3.737e+05
0.02208
94.04
3845
875
140.7
0.5302
2402
0.02594
3284
15.5
8.44
62.29
0.2716
89.11
73.14
81.49
295.3
0.03225
61.88
0.03308
72.54
85.58
1273
9.043
0.08176
10.57
320.3
0.03192
42.88
113.7
0.04657
265
8.206e+06
11.17
0.0194
0.01934
8.832e+05
0.02178
0.0217
0.02604
3.271
87.01
4.437e+07
159.4
0.04827
43.55
13.13
0.02174
0.5119
19.75
0.02164
2310
180.6
9.14e+05
1.033e+04
46.99
70.35
0.04852
45.48
0.02184
360.5
38.76
2283
3612
2402
71.53
1068
16.23
27.12
0.03288
12.32
7.872e+05
26.6
0.08696
94
1.793e+07
0.02169
32.44
103.9
626.5
41.3
1691
115.5
9.128e+05
230.1
2.235e+04
6.814e+05
0.1008
4.67
3439
63.73
17.04
592.2
2.561
0.02339
1843
20.73
0.05187
11.47
0.02655
8.165
0.02223
82.99
743
462.8
585.7
0.6468
41.41
2081
0.2685
17.33
33.24
72.81
40.32
45.05
260.3
0.5115
14.28
0.07179
0.7392
12.17
0.02175
0.02173
7.561e+06
107
0.02174
267.8
0.03363
95.09
0.2149
0.08644
13.01
0.02166
7.982
691
464.1
41.45
36.35
1175
0.4043
0.2865
4.265
2737
123.9
42.81
0.02165
13.3
42.6
150
3409
1256
0.05628
0.02172
674
42.87
1266
0.2864
2.216
0.07833
634.6
0.02839
64.26
704.4
50.57
0.03103
151.5
577.4
40.98
12.02
0.02173
0.04176
0.01941
0.01936
0.06738
2.175
8.386
12.05
128.4
0.04307
47.06
34.07
37.69
11.95
273.2
435.8
64.87
1021
120.5
859.5
8.264
104.3
39.37
0.02778
356.7
17.27
84.51
0.02329
581.7
13.33
93.32
20.06
299.5
286
0.02192
0.02177
1.435
1111
0.5126
1.057
0.02855
2156
325.8
0.03032
0.06683
544.4
6.186e+05
22.9
0.5346
28.38
5624
790.1
0.4032
0.02291
4.988e+04
0.03554
6720
11.61
34.27
0.02184
0.1904
1766
627.1
330.8
857.2
0.1941
727.4
0.02771
0.02618
4222
0.02184
22.61
64.94
0.03643
34.2
35.43
67.09
0.02222
259.3
59.47
1193
0.1199
19.97
106.6
106.2
38.75
2847
121.1
513.7
129.7
1.886e+04
246.9
0.07605
16.86
0.05876
0.2787
0.08095
509.3
0.05631
0.02115
246.2
130.8
9.836
178.9
0.02192
45.51
350.9
0.02498
0.02166
0.02172
259.4
0.05101
3.462
0.02383
1278
0.02172
668
1.527
19.67
24.91
583.3
29.54
1378
0.03596
73.68
1405
396.6
57.34
69.48
59
57.17
16.95
2.815
56.26
0.2026
0.02197
23.44
554.4
0.02078
19.15
4.843
0.1747
47.32
0.04289
0.02028
213.4
3.374
1328
52.87
1.851e+04
590.7
308.9
1236
29.13
176.2
70.67
0.02163
1276
0.0223
428.2
173.4
37.86
126.4
1.384e+07
117
2.473
0.1087
4.717
0.02166
1.929e+04
0.022
65.03
10.83
2.017e+07
1.01e+06
3.276e+06
0.02194
334.4
300.2
0.02172
11.57
182.7
101
15.46
26.2
605.5
18.88
1.248e+04
0.1713
23.32
6.654e+05
670.7
1071
2675
0.02204
20.8
2.174
18.13
0.02201
1777
9679
1687
0.01964
23.66
0.09247
6352
44.51
4408
16.17
0.0224
500.2
31.44
0.02081
0.4058
104.8
571.6
287.9
672.5
1559
11.32
96.93
385.6
97.07
221.1
0.02193
5364
76.03
1399
81.7
33.94
0.02212
0.02207
0.04966
478.9
9.169
0.02172
0.02925
12.86
1310
36.73
30.16
2723
1.209e+04
6.258
0.0224
0.02134
1625
24.36
116
0.03159
1.482e+04
62.13
185.4
0.5263
2591
0.02172
32.24
42.3
26.84
0.02717
516.9
11.45
8.1e+04
0.02026
130.5
9921
0.02171
33.96
0.02174
191.1
51.64
0.02175
794.3
495.9
1840
84.97
27.19
777.9
732.5
54.68
225.6
588
293.1
134.9
51.89
1770
0.0267
963.8
0.02174
7.559
0.02368
25.03
0.02116
0.02174
1.068
496.9
40.07
0.02135
0.02115
906.6
7604
667.1
1147
10.83
3.189
24.55
66.85
36.5
365.5
1438
0.02137
243.1
32.84
0.8767
29.58
0.02216
0.02919
57.44
8388
70.15
4.301e+04
0.02362
0.03825
130.6
277.3
0.02579
1092
0.1188
0.08094
698.4
20.2
31.61
0.09239
3.463e+07
3033
54.99
74.63
103.6
147.1
1800
360.2
0.02439
69.25
621.8
21.66
0.02121
243.6
0.2965
0.1819
0.01963
0.02119
4.442e+04
0.1094
610.4
113.8
335.5
13.28
0.7175
1725
0.08119
609.2
0.02163
0.02089
6.999
0.06058
846.8
0.1796
3699
10.33
822.1
0.2365
20.59
0.0366
1313
0.04312
620.2
4.85e+06
70.8
94.86
21.39
0.02864
99.1
281.5
3.515e+04
10.34
14.16
36.3
7419
39.92
774.6
8.058
464.9
116.1
41.83
11.21
0.2668
7.471e+07
0.2954
0.02573
183.8
206.6
171.2
0.02154
173.8
8.369
36.14
0.04104
4.601e+04
211.3
2668
0.04616
427.4
131.8
322.3
134.5
0.03863
23.68
2516
815.2
17.86
0.0218
34.62
313.7
0.02183
45.77
1.582
132.3
115
0.3412
71.81
5371
364.8
0.01934
23.99
9.367
4914
996.7
0.1773
11.29
1296
0.01938
93.66
685.5
47.62
5.467e+05
50.06
1537
36.69
34.45
8.412
0.02193
5.587e+07
90.54
76.24
3689
40.77
392.9
180.9
402.4
0.02132
8.796
12.96
0.03866
242.8
418.3
140.3
129.9
0.02048
22.87
107.2
0.02163
0.02042
29.72
9.363
10.82
389.6
31.72
1.967e+05
19.83
0.1616
0.02123
44.64
118.6
771.9
2065
0.4657
0.0552
0.02195
2.146
1.771e+04
0.02125
0.1691
5174
102.1
4949
0.02614
30.86
105.6
0.0218
975.8
0.0212
305.8
1.861e+04
224.3
133.8
1.279e+04
0.0219
753
0.1028
1578
1258
1807
1.126e+04
0.1761
0.9106
1.272
8e+04
0.02178
72.38
1045
991
661.9
1.525e+04
0.05301
0.4738
1685
8258
4.346e+04
379
1.39e+06
605.6
2.557e+05
126.1
2976
8.928
3.43e+04
0.02274
163.7
0.02725
0.02645
22.63
0.02549
77.8
14.18
8.877
3.074
0.03739
928.5
201.5
0.02183
13.46
87.88
0.03609
878.2
1.514e+05
41.81
41.91
1953
17.71
607.7
0.02169
37.6
605.3
0.0231
660.7
75.48
8.867
0.02069
2.447
20.13
4.518e+05
12.05
1.531e+05
18.19
96.36
158.3
1.506e+04
361.9
0.02359
1.005e+04
0.2826
0.02428
5.406
4.851e+05
33.4
705.9
21.33
8.549
2.941e+04
2.333e+05
380.7
0.02237
0.02183
41.5
16.65
160.7
669.4
48.23
5378
131.5
0.06516
5539
0.04587
7532
0.0216
25.47
3030
17.09
231.4
24.52
0.02177
0.02181
2519
0.1492
327.2
365.6
851.6
14.98
99.41
197.3
231
6.158e+04
29.73
1041
860.8
31.63
13.63
245.4
346
6080
1.783e+05
26.08
0.02154
0.02139
19.44
44.99
1.35
0.0208
77.76
24.87
1.289
619.4
75.49
460.6
2.329
0.02223
0.2789
1.366
1.448e+04
2715
142.2
0.2538
66.91
1019
354.2
54.83
9.318
145.2
185.5
141.2
6188
0.02293
1.748e+04
1.811e+04
9.189
75.05
2410
0.02174
4.593e+04
7.034e+04
0.02189
0.02154
42.33
34.11
6.497e+05
710.5
157.3
843.6
738.6
0.3468
0.6824
0.02252
919.5
19.46
399.7
8.721
7807
61.22
0.02864
4.612e+04
219.4
0.02172
279
0.0255
0.02164
50.48
0.08987
4.65e+04
0.02157
966.7
0.02181
513.9
0.07658
12.81
17.87
913.2
504
834.3
78.35
0.05508
0.03646
17.32
282.2
416.8
539.3
1.474e+04
882.5
7.036e+04
96.25
696.3
683.2
486.6
5165
0.1169
9.382
0.04417
487.4
312.9
2447
0.06564
1257
13.63
126.2
209.1
46.47
2.38
1401
10.4
125.8
429.8
1381
1324
0.02106
45.81
482.2
0.02179
237.9
866.6
0.02067
5.932
620.1
0.0345
0.1218
22.23
116.7
0.1518
0.01977
228.9
274
0.02162
0.09149
0.02957
24.61
330.4
27.01
0.03434
3027
1.393e+05
889.1
364.3
14.5
3.439e+04
0.0779
202.3
0.02176
50.04
30.57
178.3
210.5
3973
9818
0.02196
6.662e+05
1988
1377
91.07
1583
9.87
10.59
3141
120
0.03225
1.342e+06
69.46
401
1665
254.8
420.6
102.9
7467
153.8
134.2
131.9
602.8
423.8
29.71
1.237e+05
0.1031
207.1
0.08987
992.2
0.0197
0.02165
46.86
4.437e+04
28.1
1.326
5.257e+04
1519
0.02179
6611
153.6
118.2
1.543e+05
6.348
140.1
1.349e+07
13.82
1.139e+04
14.09
124.6
5096
408.9
1670
32.14
317.3
0.07805
18.53
41.9
166.6
27.97
141.5
10.97
3.028e+04
20.18
0.2647
15.08
0.4256
0.5384
32.69
1.178e+05
0.03597
1.049e+04
3085
185.5
86
0.0218
11.64
54.53
1.075
5062
1517
2502
0.02135
614.1
3173
42.84
4.489e+04
108.5
8.97
1081
0.02191
1423
133.9
1.39e+04
159.4
0.06681
15.83
0.02169
1.649e+05
5.217e+04
66.84
0.8905
24.4
0.02085
0.01977
858.6
24.26
7.974
0.06724
0.05109
0.0523
4.815
45.88
12.41
261.9
322.5
5.354e+04
1.218
1942
203.2
329.2
0.0198
846.8
13.09
143.4
6.637e+04
103.5
9.213
137
92.62
28.99
2.07e+05
27.97
63.28
11.82
9.576
11.48
312.1
1.718e+05
0.1125
2614
0.02118
385.6
2030
0.02031
4684
77.5
102.6
627.9
0.02138
1.081
4.349e+05
0.02175
290.7
817.7
128.3
1.777e+04
1.188
11.81
1472
4556
96.92
215.8
0.0497
179.4
1.208e+04
1.762e+04
379.6
90.1
0.02169
207.7
8.813
1695
427.2
9.428
95.99
0.02168
7.241
320.3
0.02205
10.24
0.02261
6670
10.63
3.676e+04
243
39.09
1027
40.43
219.1
766.7
3.406e+05
96.96
213.6
38.99
27.08
16.87
0.02211
139.5
0.02208
12.73
0.022
13.67
0.02147
303
175.7
0.02066
0.02161
949.2
0.1399
1354
0.08734
0.02003
26.33
46.44
0.03105
3.475e+06
5152
3.608e+05
226.8
73.6
391.5
249.8
58.63
2.145
8378
30.81
2232
690.7
58.93
56.22
7.919
0.02155
3.379e+05
68.79
6899
0.02178
6.054e+04
432.8
446.1
239.1
0.01973
0.01971
12.79
30.97
6.11
10.47
109.8
1.606
0.792
2.636
11.12
3582
92.48
0.7849
31.64
11.61
1285
1017
145.3
438
20.27
0.02191
287.8
371.1
1.805e+04
32.17
0.03472
143.7
1.296
187.9
117.9
1857
16.75
0.02174
33.68
103.4
8.551e+04
1.743e+04
1.38
89.12
1731
0.1188
0.01972
2466
494.1
3.128e+05
0.05128
1.252e+05
167.2
0.02152
189.4
2016
10.12
0.096
15.2
1319
102.8
79.23
37.98
3290
0.04027
780.1
1682
1097
0.057
0.05686
539
16.5
3.019e+05
198.3
1391
1732
3.397e+05
1.473
462.8
0.02472
0.02176
0.0215
20.39
0.02298
9.468e+04
0.02173
1.18e+04
0.2568
108
213.9
1021
0.09472
3.235e+04
0.2888
771
21.33
1.529e+04
0.02165
149.8
946.8
18.03
1.576e+04
2949
36.74
2274
5005
0.04506
0.0206
1.448e+04
0.07287
0.01996
0.2721
1.279e+04
0.0206
4768
0.02184
28.9
123.4
13.78
273.1
0.02091
27.62
767.2
102.1
0.05758
30.64
0.1473
0.02173
0.02122
40.52
6.151e+05
72.42
140.3
0.02415
4.01e+04
0.4075
0.072
0.06063
3.094
214.8
835.2
0.02501
473.1
0.02224
43.08
0.02217
0.2314
304.5
45.8
6.281
1439
221.8
0.02119
53.03
3111
617.8
5.53e+04
1796
9.141
0.0333
9.586
5.398e+04
38.66
844.9
3.8e+04
0.07535
0.1218
0.02159
112.8
293.7
70.1
0.0218
844
0.02175
0.2034
223.4
0.02137
8.809
0.8613
100.2
15.42
1.04
428.8
0.0219
648.8
7900
11.75
8.386
232.7
0.04035
150.8
96.5
4796
199.1
93.03
1017
70.69
147
1.244e+04
0.069
0.1305
225.6
0.03364
309.7
28.66
0.08358
123
0.024
0.3571
6341
19.63
144.1
167.4
5.805e+04
102.8
1.794e+04
2.495
0.02066
1.801e+04
204.8
0.09324
452.6
0.0274
36.24
0.02223
10.21
1.105e+04
13.95
34.85
124
210
0.02187
107.9
0.2512
23.44
1876
0.02483
133.5
3404
0.02159
0.02512
142.1
0.07344
66.27
8.55
5.094
83.26
1.573
23.64
0.07064
3.091
76.78
0.02106
0.1488
1513
5.915e+04
0.02087
492.3
1.69e+04
12.58
544.5
10.5
197.5
5.757e+04
0.05805
0.1118
217.5
0.0253
1259
43.26
29.37
6686
219
0.02444
207.8
8.88e+05
3.328e+06
176.9
254.1
216.5
2.182
19.44
27.02
34.59
1626
685.5
788.9
473
2.797e+04
29.88
5.043
0.02171
1939
5.008
51.04
0.1531
0.03894
218.2
188.9
8.621
0.02036
878
1786
118.3
421.9
17.07
6.264e+04
441.2
0.0263
280.7
2.314e+04
26.45
161.5
1.029e+05
0.01939
8204
2415
208
0.02755
28.57
12.75
1338
364.5
16.41
1995
0.03281
4.51
262.3
0.04887
13.24
0.02168
625.9
6659
186.9
2577
3.714e+04
33.01
2.155e+04
0.1083
2269
23.43
9.723
0.03513
9.668
60.86
23.31
153.1
0.06546
168.8
2.349e+05
6.28e+04
111.8
77.32
0.7051
0.7121
0.02187
0.02545
73.64
0.4146
0.02165
118.5
166.4
330.6
365.4
35.23
348.6
31.48
4878
6.685e+04
7.259e+04
0.08456
154.1
1.833e+05
10.62
6939
10.49
33.84
58.06
2.326e+06
20.58
31.12
0.04332
0.0518
1171
151.9
0.02173
0.02196
13.56
2004
17.19
166.7
3.853e+04
18.36
0.02365
1594
10.12
210.8
4992
1.209
7.162
33.97
116.2
2.202
112.2
0.02188
1904
8.887
1455
18.24
295
8019
8.595
1652
42.8
1608
178.9
6842
0.07462
12.6
76.8
36.6
803.4
242.7
1.335e+04
987.5
0.02166
317.8
10.65
1129
119.9
0.2652
14.91
0.07834
6645
0.04857
207.1
34.11
117.4
11.9
16.84
0.5018
6.426e+04
0.2141
0.02457
2091
0.02091
22.09
0.03067
2.696
10.61
0.02151
0.3653
280.9
4711
0.02176
0.02313
11.07
41.98
283.7
0.1618
51.45
91.12
1745
719.2
29.8
148.7
118.7
0.08962
143.8
6.627e+04
9.093
4486
576.2
9.689
5.701e+04
0.02173
0.0206
1.466
7.178
3.695e+05
0.0218
11.74
1675
3.354e+05
753.3
1003
0.01981
0.01952
489.4
124.3
97.85
211.6
0.03173
32.95
5.075
0.02222
1568
267.8
128.6
59.87
5913
7.312
9.009
0.01978
28.26
342.4
1451
793.3
103.1
1.719e+04
1442
51.06
152.3
461.9
121.2
0.06571
172
1.201e+04
0.02794
0.02646
610.8
294.8
1.382e+04
1.69
1344
157.8
0.1411
0.02173
22.22
0.02211
35.46
3.866e+04
41.32
0.119
143.2
0.04377
2.437e+04
725.3
0.06565
33.26
30.34
140.9
36.62
193.6
137.2
65.89
40.86
64.66
38.68
12.92
2949
198.1
72.27
364.6
2.07e+04
220.9
1275
1354
3.352
2.12
51.28
2.102e+04
0.6901
189.5
0.0223
17.2
0.02214
186.6
8.376
2.139e+04
319.4
0.08017
3072
2.149e+05
2486
34.21
108.5
1563
5343
0.2648
39.76
57.67
1.375e+05
150
63.63
0.2794
0.2783
0.02174
17.66
1.71e+04
15.72
4196
12.23
0.07533
4123
0.01971
37.37
0.8762
18.66
2750
0.2087
8.295
8.488
0.03641
458.8
52.53
7.103e+04
2611
158.5
0.0214
68.55
120.4
1.174e+04
1290
66.13
7.923
73.43
0.02172
415.2
1407
12.59
82.78
31.15
5246
1058
723.3
105.2
0.7164
1.512
2.747e+04
9.537
0.0647
9.239e+04
0.06773
17.01
0.02174
0.02199
114.8
0.0219
1845
143.8
38.56
17.3
1026
4549
161.6
1878
150.5
16.88
5.936e+05
38.9
117.6
2.173
2.315e+05
11.39
1.874e+04
2.283e+04
0.04321
1711
1015
12.86
14.06
1.228e+04
749.4
2942
25.62
43.98
0.02608
8.429
0.02206
1.162
13.57
1189
85.67
48.64
3.794e+04
14.81
0.02189
415.4
52.57
20.88
86.43
51.45
211.4
876.5
3023
1.612e+04
473.6
271.7
1922
108.6
404.4
0.06538
2.896e+05
362.2
124
1.737
0.02156
249.1
477.8
19.5
12.51
1.741e+04
1387
332.9
85.1
54.84
4306
0.02162
1.62e+04
9.405
0.03548
87.04
857.2
0.02167
271.8
13.92
44.54
2.271e+04
36.35
87.93
2.325e+05
47.4
245.3
0.01967
0.01961
237
95.05
11.12
676.3
150
0.02151
5974
1461
29.81
0.02173
0.0219
35.4
68.97
246.7
7.852e+05
1002
0.02802
823.1
7.176e+04
0.07968
759.6
389.8
0.1041
2.62
3138
35.38
59.36
0.01964
0.01949
0.01946
0.02019
0.07707
34.13
51.52
1109
19.61
493.8
33.26
1984
0.02079
105
71.55
7292
1602
9059
455.4
101.1
360.2
25.01
176.8
0.09054
131.6
4.4e+05
307
6839
0.2789
353.3
0.02173
2.413e+05
102.3
461
16.79
0.03041
6.593e+04
0.02179
104
1124
0.04168
135.3
134.7
15.33
217.8
1.433e+04
0.0386
1240
0.02066
5.137
120.7
444.1
18.63
181.7
0.0215
0.02171
0.1747
1604
1714
0.2343
18.09
153.7
9.945
6716
387.6
14.1
9.828
30.23
83.26
0.1587
1.108e+05
0.2413
0.02173
1.537e+04
0.02171
0.02165
0.3942
0.1079
1.21e+04
16.85
2176
35.97
417.7
0.02187
0.08282
717
233.6
13.64
0.05517
0.1974
5.183e+04
7093
0.02213
1.334e+04
8802
3.72e+05
0.06824
12.43
14.33
0.07422
0.02341
12.22
242.1
4.717e+04
0.06809
842.9
2.548e+06
0.02174
470.7
3136
145.8
0.02178
1070
8.94e+04
1.47e+05
7.861e+04
0.8591
126.4
7.954e+04
0.04714
131.2
0.02154
17.05
1264
8.372
594.3
7.615e+04
0.2186
251.6
195.4
0.02225
0.0283
626.4
1615
10.77
1.587e+04
117.2
3.878
12.29
25.23
606.5
85.32
0.02175
40.21
36.75
238.3
664.9
368.6
588.2
586.7
1.003e+05
1.151e+05
1.426e+06
658.8
0.04529
1785
0.02446
1384
2632
0.02175
7.411e+05
0.02221
313.3
1.784e+04
4190
132.2
257.4
823.4
734.3
0.01963
6.548e+05
204.7
0.0577
11.53
207.7
1.142e+05
1.996e+04
2.295e+05
10.91
620.2
6424
15.98
0.06654
120.9
1.302e+04
0.02088
75.27
97.94
411.8
83.79
52.42
10.92
6142
159.2
217.9
1.824e+04
0.06492
3960
0.07641
91.42
374.4
0.02308
0.07932
79.57
960
376.8
9.635e+04
0.05564
0.02172
13.53
269.2
4754
42.49
7.934
0.01962
0.02861
1529
0.01995
570
520.3
0.06361
181.2
73.61
2.732e+04
1.027e+05
6.038e+04
0.03238
781.7
136.8
179.2
12.82
9.198
2.366e+04
15.58
1772
286.5
1.227e+04
212.3
6.104
4.914e+04
29.57
110.2
25.74
0.05119
93.98
0.1725
0.02184
54.64
557.8
85.85
226.4
73.07
1.881e+05
2.948e+05
10.35
2.179e+06
0.2748
0.5585
0.03039
0.04796
89.44
0.02221
774.2
8.62e+04
715.3
7501
45.12
31.65
320.4
109.2
13.24
827.4
16.79
8646
198.6
0.02579
222.5
113.2
0.02204
0.03626
2624
0.02185
226
251.6
281.7
23.37
4138
0.0965
33.47
0.03586
1011
2.092e+04
1197
99.63
0.02143
685.7
0.02155
0.4406
235.1
38.07
5.727e+04
227.4
771.7
9.815
3740
0.5077
0.2047
23.67
579.3
0.02083
15.68
0.02185
1317
2596
284.2
103.3
0.02153
968.9
416.9
105.3
5.813e+04
246.1
3818
0.02285
38.22
11.39
8.587
364
48.27
0.07363
2.871
0.1107
110.6
107.4
0.02068
0.02026
0.02208
0.0349
0.1276
5562
761.3
0.02179
240.8
62.02
169.4
0.02194
181.8
0.06004
2620
0.09178
4.34e+05
133.8
3069
0.04316
0.08877
6.113e+04
0.02718
160.4
245.5
387.4
382.7
101.6
0.02181
261.1
794.5
59.7
119.4
38.66
19.39
36.43
132
1213
0.0215
17.34
83.89
7266
0.09493
0.02209
422.5
2183
23.01
21.79
33.73
995.4
0.04066
52.39
1137
10.87
373.8
106.6
0.02567
17.05
6.327e+04
75.55
334.6
7273
2.432
25.34
0.02166
0.0267
0.1178
0.04593
5.855e+04
174.7
0.02195
0.02243
117.8
3.039e+05
0.02194
27.9
2.158e+04
162.6
19.8
207.4
2690
106.7
37.79
862.5
1.143e+05
3159
0.02185
72.53
34.34
140.2
0.02139
0.5288
258.2
31.64
576.3
7.489e+04
7242
16.22
991.1
1.197e+05
9.82
1074
25.71
3.703
2.205
2450
4.161e+04
0.02157
308.6
137.1
0.02193
7487
16.92
2.962
0.06267
45.85
831.8
402
121.9
0.02168
0.02177
13.32
344.3
0.02001
24.85
0.02457
2771
10.59
16.26
547
2359
19.35
67.73
0.02139
7.324e+04
19.14
4536
562.8
0.06521
709.8
48.69
265.9
5.746e+04
7.93
5.368e+04
0.02075
0.02124
36.65
0.04608
0.02139
1.404e+05
209.5
477.1
6042
112.4
47.77
0.0279
1.362e+05
0.03927
140.7
0.02024
0.09306
127.2
56.53
63.67
41.07
8.86
1468
0.02046
61.36
6687
6770
9173
0.1213
58.33
34.96
0.02195
1497
427.6
0.5814
0.04067
164.4
5.911e+04
0.02188
0.02151
44.11
4198
10.86
2535
0.02206
9059
154.6
142.5
0.02208
0.06342
1138
335
3275
25.68
67.07
0.02044
840.3
0.03051
1137
9.584e+04
0.0562
247.7
10.93
1.418e+04
3.744e+04
1875
0.05129
0.02047
57.4
0.1521
0.02163
469
252.2
10.03
0.02033
0.06542
0.06914
0.02619
732
88.54
0.02173
861.7
146.1
2227
0.02573
0.02191
0.02163
0.05061
131.2
22.01
709.5
6.074e+04
3.597e+04
134.1
1.172e+05
5068
0.0227
5.176e+04
80.46
5143
8.905
0.1149
3.109
1.217e+04
1197
3444
624.4
0.05028
33.12
515.5
122.3
20.14
0.2108
393.3
0.1152
443.3
0.03595
42.34
42.34
24.4
0.1712
1153
1.127e+05
8107
0.02061
5.887e+04
46.31
0.01994
252.4
0.02181
2710
92.96
0.1186
478.1
532.5
0.0223
2.995
8.405
1.554e+04
0.02233
0.126
1.586e+04
12.62
0.02157
3794
41.45
0.03031
0.1188
16.47
185.6
7.113e+04
674.1
90.85
10.64
1673
0.5565
0.02169
0.03965
633.3
122.6
115.9
0.02207
1.625e+05
227.8
61.31
342.2
46.34
89.72
0.02017
0.05594
747.8
219.8
0.03868
157.6
806.2
9.608
2.201
8.747
9.893
0.03657
8.394
60.62
89.03
41.23
0.02205
2004
0.1629
48.98
20.71
8.562
6921
88.96
4.131e+05
14.42
0.4677
0.2353
0.02118
16.94
49.45
4700
1882
226.5
488.5
3821
36.84
0.4045
84.34
685.8
1.036e+04
37.92
0.03726
1916
1.547
1703
30.91
9.98
31.86
238.8
0.02179
359.3
0.2465
0.02164
2.24
1910
1.306
2.814e+06
718.9
1336
0.02165
36.81
227.3
0.04875
25.85
42.27
4515
531.9
4262
0.02188
128.6
0.02065
8.517
341.3
705.2
19.56
789.4
2.1e+06
0.02148
0.02174
89.16
185.7
1536
3.94
120
879.6
23.07
14.6
0.02179
471.8
2890
0.06271
34.25
0.02156
171.3
0.04878
59.11
447.8
134.7
0.3214
2885
137.6
0.02534
724.9
162.3
0.5166
0.02146
0.02262
488.8
4655
49.16
8.086
96.74
16.49
186.7
50.91
0.0194
0.1597
0.5257
1.148e+05
3715
2230
0.02134
661.5
150.3
3383
2209
2.486e+04
9.432
30.91
148.4
107.3
801.1
5336
24.18
0.07332
9.736
0.0302
2.109e+05
0.02237
13.94
571.8
64.91
14.67
684.4
60.38
1.547e+04
12.88
1087
41.69
12.33
469.3
1.111e+05
33.25
6.219e+04
3.374e+04
0.02175
6.883e+04
263.5
1763
3414
40.13
44.28
385.3
111.2
38.51
0.03557
14.73
17.44
123.6
33.51
84.92
0.4295
4.906
32.38
7.111e+04
53.06
1.151e+04
122.5
683.8
0.02027
885.6
96.63
5418
11.96
2.313e+04
378.9
339.4
0.07273
4451
0.06389
20.49
41.1
0.06718
1.565
25.6
51.85
211.9
416.6
33.22
201.9
46.12
2.274e+04
47.52
3.805e+05
0.03518
42.89
281.4
9.132
0.04105
706.7
0.02173
0.022
0.02173
64.33
161.7
1354
13.73
0.07744
51.22
0.03777
3.767e+05
3210
6.782e+04
251
0.05737
946.4
6920
0.07304
2572
0.02187
33.84
8.584
991.1
32.79
0.02128
0.02138
143.6
9.062
0.03624
7.271e+04
176.7
0.02095
0.0218
91.37
0.03055
748.2
1.264e+04
0.03063
16.51
869.5
565.8
473
7.606e+04
35.34
0.1433
69.3
304.6
0.1188
395.6
77.86
1.634
824.9
141.4
2.207e+06
0.02623
142.4
1.165e+04
2012
0.02183
40.59
0.02176
13.09
59.13
98.77
36.66
333.8
108.7
0.1653
2109
3055
1190
1209
1014
72.41
14.32
107.5
358.7
27.53
486.6
0.02216
6.457e+04
2.052e+04
2327
65.26
27.11
2843
724.4
0.2877
0.2818
7.411e+04
186.8
0.05448
0.03166
0.05162
399.8
817.6
28.45
5248
73.92
0.03699
171.4
101.4
76.98
481.9
3.924e+05
1345
145.7
646.5
47.81
117.9
3749
72.49
16.39
9.329
2314
37.92
0.2431
64.95
806.4
0.08301
140.1
0.2765
17.05
7.513e+04
1244
0.02204
999.8
14.88
2.847e+04
1826
0.02137
0.09364
843.4
0.02906
43.66
2451
950.5
9.159
0.02172
0.187
12.6
17.34
0.07991
423.5
0.02077
681.6
28.78
629.5
637.2
83.35
86.05
459.1
915.3
0.164
114.3
0.02182
1.014e+05
0.0344
0.03088
610.8
0.0218
30.88
11.11
1.349e+06
0.02196
116.7
215.5
566.4
389.3
0.2503
87.06
38.35
366.1
3925
41.83
0.07165
0.02199
471.3
695.8
21.61
89.32
1982
4768
0.8191
0.02113
60.73
297.3
1.561e+05
89.87
100.9
0.6654
230.5
0.0215
30.23
9013
1960
0.02197
0.2127
1686
0.01979
117.2
2273
34.61
0.02195
0.022
8.207
0.02323
0.02013
0.02173
8.276
1459
2160
0.3968
162.2
18.21
16.85
0.02225
19.69
114.3
0.04146
0.6719
1850
13.67
0.02532
3104
59.56
7.885
6.458e+04
7.793e+04
0.02503
151.8
14.87
584
77.49
6729
0.02194
147.8
7.071e+04
10.96
651.9
0.8569
3304
73.39
201.7
29.07
2.849e+04
0.05162
2.21e+04
45.71
0.02536
0.02876
0.02006
387.6
31.13
4846
337.6
1.124e+05
0.07206
0.01942
204.1
233.7
0.07162
0.02182
1107
10.1
1845
57.73
2942
366.4
145.8
26.21
267.7
0.01972
3.592e+04
221.8
76.38
30.37
0.06683
0.02194
31.12
13.53
456.2
7351
68.5
0.03918
82.79
16.61
0.05779
0.02185
1788
203.5
9539
279.9
34.77
2.746
82.28
20.64
13.57
125.6
0.7766
0.1311
0.02192
87.75
2.853e+04
28
0.4275
8347
0.5012
0.02168
19.12
0.02831
0.02203
46.34
0.01937
0.01932
9.106
0.02011
54.72
9.701e+04
593.1
13.12
0.1341
0.02113
0.02197
50.99
217.7
68.27
6.945e+04
17.36
0.03011
10.28
59.43
4334
1.281
0.02198
2.787
96.6
0.02203
0.02136
104.4
245.2
0.05002
0.02825
95.55
0.0213
1.579
0.02148
3.923e+05
2.044
1563
9.545
0.02734
0.2907
8.999
26.43
801.2
20.32
105.5
14.18
0.02214
4.835e+04
18.42
235
0.02191
803
424.4
136.3
1176
0.2394
556.3
25.45
0.1362
6120
0.02205
8.498e+05
38.73
2.972e+04
0.02197
249.1
0.02174
0.0792
10.11
1.316e+04
14.09
554.5
16.88
0.1138
3480
0.128
3231
5493
8.208
0.08786
0.05498
639
0.02162
7.968
31
55.94
40.1
0.02176
1.9e+04
0.03363
414.8
1073
66.55
2011
1.393e+04
22.85
1168
122.9
1.467
21.18
0.4894
0.02172
0.02181
984.2
11.99
2.22e+04
74.11
154.5
0.02179
90.34
0.02179
0.02169
0.0313
418.5
0.103
16.73
0.03497
62.14
0.1823
91.81
290.8
2670
0.02526
465
378.3
127.3
0.1791
25.13
0.02187
114.6
0.4072
110.2
16.14
0.03261
249.4
1.499e+05
594.1
3119
32.15
3.968e+04
1916
4.149
94.78
2732
61.58
1.769e+05
751.6
35.18
86.08
172.5
52.94
2422
707.6
0.03875
28.17
0.09128
568.7
3.331e+04
113.6
3226
963.9
16.18
612.6
0.03332
252
53.39
8.165e+04
11.86
0.02236
27.07
21.67
169.4
0.05841
66.71
175.8
38.49
0.5401
454
82.71
1.465e+04
404.6
157.8
31.01
20.46
1679
0.02454
797.8
16.33
0.02363
114
115.6
599.6
931.1
281.8
0.02202
938.9
29.09
0.07887
2.977
668.5
2.507e+05
219.9
0.02084
0.02472
0.4077
525.3
91.87
0.0215
4.318
635.1
729.3
1.797e+04
0.02103
261.7
8570
82.9
1.927e+05
143.1
184
136.6
36.14
62.18
0.02328
111.4
7468
45.45
316.1
3.963
36.55
0.02164
0.07201
644.7
297.1
34.98
2462
136.2
0.02171
8636
120.5
0.1755
485.9
1.651e+04
2.663e+04
0.04212
0.1344
0.02449
130.7
7124
1028
2685
178.1
281.4
0.02181
90.76
4.865
9.135
1.168e+04
0.58
6.954e+04
58.59
5355
0.03304
200
3519
0.02169
161
206.7
208.3
10.53
0.0219
0.02169
0.03836
49.51
0.0217
12.34
2.457e+04
0.109
22.9
645.7
0.03785
103.4
11.96
0.2688
5003
121.1
2.089e+04
97.95
0.02174
403
6122
0.0217
1.388e+04
10.9
150.9
61.65
782.5
40.11
437.5
14.45
12.1
0.02194
13.27
0.02178
0.05441
3005
148
87.35
70.14
1.896
290.9
0.02175
0.01965
0.05283
225
66.33
125.8
6.964e+04
17.88
0.7556
529.1
1.022
50.35
0.02135
1694
953.2
20.68
13.68
178.9
171.8
49.17
31.48
1.649
0.02234
125.7
23.44
142.1
4944
6.412e+04
755.8
0.02149
126
34.73
18.06
3.246e+05
0.02165
124.6
32.02
24.89
139.1
34.24
2.003e+05
136.9
51.39
931.9
8632
29.4
62.01
7224
4.113
0.02168
383.9
23.55
45.1
85.26
18.17
1.99
0.04495
1952
576.6
2479
30
1875
562.9
0.02172
352
52.26
103.8
15.3
0.01935
415.2
86.37
69.9
14.3
0.02133
847.1
13.21
14.43
105
217.6
171.9
62.7
740.3
650.7
0.01992
258.3
77.99
233.4
877
652.4
67.05
31.61
53.08
8.428
166.6
1427
6.597e+04
1370
564
3.752e+04
24.82
0.07617
9.055e+06
502.4
5162
0.03545
4855
4719
391.3
60.32
0.0219
2.653
0.02179
20.27
178.4
15.62
0.855
14.89
1487
43.21
8.445e+05
15.75
358.5
2419
6.051e+04
879
284.4
24.26
0.08943
521.8
14.95
7.68e+04
189.3
0.3776
0.7545
4456
3.171
0.022
0.0217
60.04
95.71
0.03943
0.02017
0.02187
1847
495.7
3.604e+04
0.02155
0.03088
100.9
0.01976
0.0199
882.8
0.05437
154.2
948.6
0.05271
4911
27.56
78.07
7.983
44.9
0.04936
106.4
27.69
2.56e+06
61.81
1208
3279
4015
12.76
0.03081
10.02
1476
0.02171
11
369.4
1348
5.204e+04
563.5
63.45
1796
0.02469
392
9371
290.7
121.8
149.8
0.07147
63.46
15.47
6427
168.2
215.6
0.04834
2304
1032
0.03574
31.86
0.06678
42.81
0.02641
6250
6.649e+04
0.0277
1681
177.3
0.1537
1226
116.5
0.02238
2.269e+04
168.9
229.6
1690
0.03407
15.49
2.027e+05
109.8
1285
16.35
28.85
7.936
32.4
194.1
0.05827
5.728
102.4
172.9
50.88
19.9
80.49
16.89
186.9
943.5
121.6
14.59
2.908
0.0218
0.09155
1337
26.65
0.01936
8.382
71.11
14.45
194.4
115.2
80.53
0.09563
1841
117.2
0.1079
77.67
201.4
0.07439
1630
0.04032
2188
9.252
0.1841
0.06469
10.4
1362
89.34
0.02093
167.7
946.1
310.8
0.1832
0.02191
11.63
584.2
1855
31.67
91.12
12.85
1708
13.79
31.33
8.96e+04
9.938
4.579
1.813e+05
1246
14.4
19.24
0.02204
4.659e+05
0.02206
50.22
165.1
365
406.2
474.7
7.811e+04
9.521
41.6
24.86
1.098e+05
1004
16.15
1.68e+05
2.169e+04
933.2
196.7
0.1858
1.704
14.94
141.6
0.02187
658.3
8.228e+04
0.04391
126.3
17.21
21.64
993.5
941.6
1.619e+05
4108
254.9
0.01954
0.01933
0.02178
1828
7995
0.4645
0.02158
0.1791
7371
24.09
1.79e+05
239
0.02208
1.55e+05
0.01938
5.253
11.89
0.03834
15.79
0.6283
4.288
0.05819
1066
27.58
100.7
145.2
9.505e+04
13.98
412
248.9
10.95
0.02213
2.539e+04
776.7
662
295.9
3300
551.6
349.9
0.0552
37.73
344
23.35
665.9
0.02902
1756
68.87
750.3
27.77
0.2144
0.2783
0.02182
309.1
70.39
313.2
809.2
11.7
2438
35.35
25.54
11.41
316.9
0.1841
3152
242.7
214.7
35
0.06381
24.34
0.09123
108.1
20.27
270.4
12.99
614.3
13.69
33.61
679.8
0.2215
6087
48.55
0.5752
0.087
1.427e+05
525.6
354.4
54.48
2.169e+04
0.02204
2.361e+04
1120
111.1
149.3
195.4
139.5
193.6
21.87
187.2
217.8
418.6
9372
0.07207
0.02186
0.02175
147.4
516.1
7.801
9.893e+04
351.5
3.483e+04
3609
141.6
6270
7.345e+04
24.32
890.2
1881
34.17
7.657e+04
0.02166
256.5
1198
1168
0.02157
1105
35.26
262
450.4
284.5
0.02169
11
307.2
2849
0.02089
504.6
10.64
0.1602
1.232e+06
0.03323
10.78
12.33
318.9
485.2
0.4465
26.82
6.448
520.9
1631
324.9
0.0194
16.47
2.629e+06
0.02526
0.02264
5444
3148
101.8
1627
0.06086
22.59
102.7
109.1
151.8
212.7
0.01999
32.61
9.763
0.129
0.02194
41.68
0.0212
3.276e+05
31.09
3.579
8.01
5.194e+04
0.02166
359.1
0.02
0.02216
516.7
0.4896
3787
9.115
0.04101
86.28
1182
36.87
48.43
58.83
695
362.1
1536
1158
1593
1.636e+04
3277
98.92
756.6
392.2
240.3
0.2412
0.02113
0.02118
1.22e+04
17.73
986.3
1.71e+05
0.0218
843.8
1.097
0.02038
22.67
1.821e+05
8.472
888.6
1.004e+04
0.02206
1690
67.51
24.13
10.08
19.83
4799
305.2
0.02174
1.858e+05
5049
0.06203
0.0235
4406
465.9
1966
923.5
171.8
681.5
0.02169
666.6
0.02118
437.9
940.8
1.648e+05
0.01956
0.01935
0.1475
202.6
0.03086
20.14
6.214
20.83
42.9
145.2
393.2
0.04672
0.02702
7.134e+04
8.266e+04
156.8
1762
0.04604
1068
0.02215
170.7
4820
1891
8492
845.2
854
599.1
0.3027
21.11
48.77
0.02508
0.02177
0.02174
14.31
274.1
2391
1.206e+05
433.6
0.0246
1397
2878
785.7
1.311e+05
61.79
2021
896.1
280
0.054
8.616
16.69
1.128
0.08212
2515
41.7
77.4
36.53
1206
0.3419
0.01974
6.957e+04
14.77
11.62
80.55
8.446e+04
18.28
0.02082
339.6
43.69
226
23.45
205
1353
4.289
277
12.98
0.06431
230.7
0.04354
0.0763
1.657
1293
41.4
3119
31.64
85.19
68.2
0.02858
183.5
548.7
0.2382
102.3
5.903
6.932e+04
0.03027
0.02385
208.4
197
202.4
44.27
9.958
8610
0.06477
0.02183
62.2
7139
0.02459
0.5849
104.4
0.0216
7.408e+04
0.0514
75.32
121.9
169.4
1.612
1212
8482
8.149
0.05912
0.02173
27.51
87.1
233.2
20.9
0.02133
0.02019
0.02173
330.6
244.7
400.2
0.05349
2135
77.64
873.6
93.38
1796
0.5742
0.03025
1.51e+04
0.02187
2111
46.36
0.03025
166.7
248
1226
279.7
392
18.89
18.52
0.07003
8439
4471
6869
0.1762
0.7025
0.02169
7.487e+04
0.02159
698.7
6358
0.02216
14.75
143.3
924.9
0.08182
18.51
5.017e+04
23.1
0.02166
23.41
866.5
72.67
229.2
18.36
61.01
5.851e+04
11.44
0.02071
0.02251
4.209e+04
50.28
625
8.935
95.61
0.02117
0.02193
7.218
2.727e+05
6441
1098
552.2
2.7
503
5837
328.1
597.6
0.02189
1540
8.313
821.1
28.23
23.74
0.0216
1589
17.62
5.914e+04
6.215e+04
10.3
33.32
4.42
4064
0.02679
9.206
6.201e+04
1388
447.5
7140
2.528e+04
562.9
239.2
0.1127
2525
699.1
2491
89.52
0.02637
4120
2.556e+04
0.02172
511.9
1.36e+04
1107
2375
60.42
24.17
267.1
80.68
0.03322
171.2
0.02211
185.5
0.09883
5.583e+04
0.1205
1.571e+04
89.48
688.1
17.38
15.94
1627
11.43
309.5
2920
107.4
68.53
9.16
48.47
201.7
2510
70.71
0.02449
100.7
46.94
436.2
328.4
201.1
956.2
79.91
0.025
91.72
8.855e+04
24.19
12.49
335.1
0.03914
67.6
0.02157
105.6
2.271e+06
3.325e+05
1489
44.97
76.74
0.021
0.05276
32.32
41.28
127.5
19.72
0.02181
29.75
132.1
51.56
97.95
0.02166
2617
5778