/*--------------------------------*- C++ -*----------------------------------*\
  =========                 |
  \\      /  F ield         | OpenFOAM: The Open Source CFD Toolbox
   \\    /   O peration     | Website:  https://openfoam.org
    \\  /    A nd           | Version:  8
     \\/     M anipulation  |
\*---------------------------------------------------------------------------*/
FoamFile
{
    version     2.0;
    format      ascii;
    class       surfaceScalarField;
    location    "55";
    object      phi;
}
// * * * * * * * * * * * * * * * * * * * * * * * * * * * * * * * * * * * * * //

dimensions      [0 3 -1 0 0 0 0];

internalField   nonuniform List<scalar> 
189008
(
3.471e-08
-3.471e-08
4.472e-09
-4.472e-09
8.81e-09
-8.81e-09
1.271e-08
-1.271e-08
-1.08e-06
1.08e-06
1.295e-08
-1.295e-08
4.506e-06
-4.506e-06
-1.687e-06
1.687e-06
-1.018e-06
1.018e-06
6.333e-07
-6.333e-07
5.374e-06
-5.374e-06
-1.995e-06
1.995e-06
-3.45e-09
3.45e-09
-1.421e-08
1.421e-08
3.46e-06
-1.439e-05
1.093e-05
3.065e-06
-3.486e-06
4.216e-07
-2.892e-08
2.892e-08
0.001898
-0.003362
0.001464
-0.001446
0.0007747
0.0006711
-3.639e-06
3.909e-06
-2.694e-07
0.0003917
-0.0003258
-6.595e-05
8.882e-08
-5.267e-08
-3.615e-08
-0.00323
0.01037
-0.007136
1.233e-05
0.0002845
-0.0002968
5.124e-08
3.758e-08
-0.0001329
7.542e-05
5.751e-05
-9.952e-06
1.095e-05
-9.995e-07
-1.097e-05
1.021e-06
0.0001014
-7.951e-05
-2.186e-05
0.005583
-0.01434
0.008755
-2.608e-05
-0.0001189
0.000145
-3.549e-05
-9.743e-05
2.211e-05
-1.532e-05
-6.792e-06
-1.28e-05
7.783e-06
5.013e-06
0.01156
0.01081
-0.02237
6.3e-06
1.581e-05
3.253e-05
0.0002145
-0.000247
-0.0003816
0.0006193
-0.0002377
-2.806e-05
0.0003536
-0.0003255
-2.756e-05
3.135e-05
-3.789e-06
-0.001014
-0.0004323
0.001921
-0.003705
0.001783
0.0005345
-0.004438
0.003904
9.948e-09
-9.948e-09
0.001711
0.0001868
-6.71e-06
-6.087e-06
6.738e-05
3.4e-05
-0.0004525
0.0004623
-9.817e-06
-0.0004802
0.0005763
-9.611e-05
-1.854e-05
0.0002847
-0.0002662
1.066e-06
1.999e-06
-0.014
-0.03053
0.04453
-4.35e-05
-2.348e-05
6.698e-05
-0.01264
0.01132
0.001316
1.083
-0.1282
-0.9545
0.0005436
-0.0004398
-0.0001038
-0.1466
1.229
0.01217
-0.007542
-0.004629
-0.3125
0.01859
0.2939
-0.005419
-0.007223
-0.0023
8.648e-05
0.002213
-0.0004057
0.000803
-0.0003973
-0.000178
0.001384
-0.001206
-0.81
0.955
-0.145
-1.614e-05
3.636e-05
-2.021e-05
-0.000307
-0.003212
0.003519
-0.02845
0.02277
0.005682
0.001635
-0.001361
-0.0002739
0.0004568
0.001178
-1.277
0.4802
0.797
-4.061e-05
-0.0001758
0.0002164
4.247e-06
6.704e-06
-0.0009234
-0.0005178
0.001441
-0.1156
-0.1969
-0.2735
0.5158
-0.2423
-4.552e-06
-6.421e-06
-0.05144
0.09157
-0.04013
-0.0004503
0.0004239
2.641e-05
0.0002932
0.0002505
0.1599
-0.6341
0.4742
-9.866e-05
7.675e-05
2.191e-05
-1.577e-06
-2.062e-06
1.324e-05
1.485e-05
-2.809e-05
5.471e-06
2.457e-05
-3.004e-05
0.0001212
-0.0003139
0.0001927
-0.0002544
0.0004059
-0.0001515
-0.0004297
0.0008072
-0.0003775
3.636e-06
-1.491e-06
-2.145e-06
-0.003138
0.002831
-0.000346
0.0006077
-0.0002617
0.186
-0.02141
-0.1646
-0.005085
-0.006638
0.01172
-0.0002669
0.0008846
-0.0006177
0.0002342
0.0001576
8.185e-05
-8.376e-05
1.912e-06
0.02874
0.01413
-0.04287
0.0033
-0.001379
0.0001414
-0.000143
1.605e-06
-0.0003456
-5.5e-05
0.0004006
-0.01863
-0.009828
0.6862
-0.5263
-2.914e-06
-0.0004773
-5.053e-05
-0.0001628
0.0002133
0.004347
-0.005279
0.0009322
9.182e-05
-0.0003463
-0.0004438
9.814e-05
-0.000852
0.001213
-0.0003613
-0.9999
-0.2773
-0.001225
0.0006097
0.0006155
-1.154
0.876
0.2778
3.039e-05
-2.693e-05
2.458e-06
1.177e-06
-0.0001925
2.444e-05
0.0001681
0.0006883
-0.001037
0.0003485
-0.2118
0.09587
0.116
0.0006265
0.00251
-0.003137
-0.1066
0.05823
0.04833
0.1657
-0.4392
0.02318
-0.07462
2.923e-07
-2.331e-07
-5.917e-08
-1.253
0.09887
8.494e-06
1.446e-05
-2.295e-05
-0.0003878
-0.0007187
0.001107
0.01405
-0.01203
-0.002014
-6.588e-05
-3.277e-05
9.473e-05
-8.81e-05
-6.624e-06
-0.0004372
-0.0002471
0.0006844
0.08805
-0.103
0.01497
-0.0001362
5.441e-05
8.176e-05
-0.0003717
0.0003019
6.986e-05
0.000263
-8.388e-05
-0.0001791
7.405e-05
-2.843e-05
-4.562e-05
-0.000343
-0.001156
0.001499
-0.0001863
-0.000264
7.099e-08
-5.56e-08
-1.538e-08
0.000274
-1.099e-05
-0.004876
0.03645
-0.03157
-0.0001212
0.0002691
-0.0001478
-9.766e-05
0.0001121
-1.44e-05
0.03427
-0.05548
0.02121
0.009226
0.0002913
-0.009517
-0.04769
-0.04229
0.08998
-0.0001369
0.0001689
-3.199e-05
-0.0004492
0.0002712
0.000178
-7.444e-05
3.095e-05
0.001503
-0.0006056
-0.0008973
-2.578e-05
-9.531e-06
3.531e-05
-0.02782
-0.7822
9.17e-05
-1.765e-05
0.0001429
-0.0002079
6.502e-05
0.002558
-0.003768
0.001209
0.0006912
-0.0001935
-0.0004978
0.001997
-0.002311
0.0003148
-0.00894
0.0002303
0.00871
0.0001585
-0.0003332
0.0001748
0.0002961
-0.0001749
0.008064
0.004107
0.000375
-0.000308
-6.699e-05
-9.039e-05
-0.0003621
6.142e-05
-0.0001169
5.546e-05
-0.0001649
0.0003014
-0.0001365
-1.579e-05
1.579e-05
0.1919
-0.005986
0.0003326
-0.0001024
-0.0002302
6.972e-05
-0.0001484
7.873e-05
1.274e-05
-2.888e-05
-0.0002222
2.333e-05
0.0001989
0.0001404
0.001629
-0.001769
-0.0001491
0.0001215
2.764e-05
-0.04164
0.03374
0.007899
1.174e-06
3.637e-06
-4.81e-06
-0.000258
-0.0001912
-0.004568
0.001921
0.002648
-0.002694
0.0008537
0.00184
1.021
-1.193
0.1729
-7.657e-05
5.4e-05
2.257e-05
-0.0008052
0.00043
0.0003751
-7.583e-05
-6.035e-05
-0.0002536
0.0004898
-0.0002362
0.1199
-0.148
0.02803
-0.001761
-0.0009332
-0.1226
-0.002238
0.1248
-3.231e-05
4.868e-05
-1.638e-05
-4.868e-05
-2.788e-05
-0.0001586
-0.0002131
0.0003494
-0.0007551
0.0006745
-0.00702
0.006345
-0.0001526
0.000841
0.000303
-0.0002907
-0.004868
0.08606
-0.08119
-7.48e-06
6.097e-05
-5.349e-05
-4.294e-05
-7.567e-06
5.05e-05
-0.04403
0.03915
0.00081
-0.000947
0.000137
4.206e-08
0.0001962
0.0004456
-0.0006418
-1.47
1.199
0.2712
-1.463
1.193
0.2701
8.947e-07
1.568e-07
-1.052e-06
-0.1669
0.1321
0.03476
0.2045
-0.03805
-0.1664
-0.05809
0.04886
0.009232
0.02698
-0.06974
0.04276
0.0002207
-0.0001881
-3.503e-08
3.503e-08
0.0002255
-0.0007762
0.0005507
0.02621
-0.007685
-0.01853
0.00274
-0.0006382
-0.002102
0.02688
-0.0213
-0.2086
-0.003203
0.002753
-0.02205
0.0193
-0.000319
0.0002303
8.869e-05
-0.05978
0.2028
-0.1431
-6.732e-05
-8.182e-05
5.368e-06
-0.000103
9.767e-05
7.657e-07
-1.002e-06
2.358e-07
-5.813e-06
5.268e-06
5.451e-07
0.003457
-0.002081
-0.001376
-3.33e-05
0.0001268
-9.353e-05
0.02224
0.003969
-0.0007028
0.0002776
0.0004252
-0.4709
0.222
0.2489
0.00061
8.124e-05
5.005e-05
-6.535e-05
1.531e-05
5.708e-05
3.208e-05
-8.916e-05
-1.082e-05
8.929e-06
1.89e-06
-0.0001261
0.0001958
0.0002918
-0.0006734
3.435e-05
-3.532e-05
9.665e-07
0.0004677
-0.0004365
-3.119e-05
-0.0003221
7.561e-05
0.0002465
-0.04771
-0.07486
-0.001494
0.0005704
-3.217e-07
3.867e-07
-6.502e-08
-0.0002009
-0.0001213
-0.0239
0.01882
0.005078
0.0001012
0.0002314
2.462e-07
-2.462e-07
0.2258
-0.02134
-0.0001095
1.919e-05
9.03e-05
-7.501e-05
3.207e-05
-2.673e-05
5.521e-05
-2.849e-05
0.0003032
-0.000209
-9.413e-05
0.0001832
0.0001918
0.0001773
2.089e-05
-0.0001982
1.889e-07
1.034e-07
0.0006864
0.0002995
-0.0009859
1.125e-05
-1.018e-05
-1.066e-06
1.407e-06
-1.407e-06
0.1969
-0.9672
0.7703
-0.0004115
-0.001843
0.002255
-3.545e-05
8.692e-05
-5.147e-05
0.002224
-0.001052
-0.001172
-0.0003781
0.0001349
0.0002432
-0.0001003
0.0004471
-0.0003468
0.0006838
-0.0003998
-0.000284
0.1167
-0.02866
5.211e-05
-0.0001712
0.0001191
-0.0001974
0.001425
-0.001228
-0.009077
-0.000777
0.009854
0.000728
-0.0004147
-0.0003132
-0.06526
0.09769
-0.03242
-0.01413
0.009045
-0.08792
0.04023
1.152e-05
-7.558e-05
6.406e-05
-4.258e-06
-3.321e-05
3.746e-05
5.722e-05
-0.0001119
5.464e-05
9.797e-05
-0.0002433
0.0001453
-0.0009991
-0.0007575
0.001757
0.002984
-0.005775
0.00279
-0.0001825
-5.487e-06
0.000188
0.8561
0.1645
0.0004335
-0.0005544
0.000121
-0.0001199
1.042e-05
0.001087
-0.001854
0.0007668
6.964e-05
-7.712e-05
-0.0001063
-8.62e-05
0.0006777
-0.0007849
0.0001071
-0.3775
-0.4336
0.811
0.0007686
0.001284
-0.002052
-0.5428
-0.3511
0.8938
0.04441
-0.01567
0.004396
-4.913e-05
-0.09051
-0.1659
0.2564
0.04522
0.121
-0.1662
9.206e-08
-2.892e-08
-6.314e-08
-0.0001995
0.0001645
3.495e-05
-0.07475
-0.102
0.1767
0.0007921
-0.0005809
-0.0002112
0.1735
-0.05352
2.38e-05
0.001973
-0.002441
0.005441
-0.003
-0.0111
-0.0128
0.0009923
0.001367
-0.00236
-0.2065
0.2375
-0.03093
-0.0005119
0.0008692
-0.0003573
-0.0001094
-7.387e-05
0.0001833
7.705e-06
4.132e-06
-1.184e-05
0.0001169
0.0001863
0.003937
-0.0009524
-7.744e-05
-0.0001264
0.0002039
-0.003961
0.001156
0.002805
-0.001189
-0.001804
0.002993
0.003702
-0.003075
-4.762e-05
8.022e-05
-3.259e-05
0.0005342
0.0001107
-0.0006448
0.002502
0.0002384
-0.1833
0.1235
0.0006252
-0.0001786
-0.0004466
-0.003181
0.003214
-3.335e-05
0.0009259
7.502e-05
-0.001001
-1.211e-06
4.942e-06
-3.73e-06
-0.0003524
0.0002378
0.0001146
-0.8568
0.314
-0.2575
0.1341
0.1234
0.0002779
0.000128
-0.0004059
0.0001575
-8.499e-05
-7.248e-05
-6.275e-05
-0.0001004
0.0001632
0.01838
-0.009176
-0.009205
0.1947
-0.1846
-0.01006
0.009117
-0.01235
-0.0002033
-1.248e-05
0.0002158
0.09565
-0.05346
-0.0422
0.001567
0.0006567
0.0004398
-0.0001618
5.471e-05
-9.921e-06
-4.479e-05
-0.01649
0.03203
-0.01554
8.195e-06
-4.048e-05
3.228e-05
0.0003738
-0.0001414
-0.0002323
-0.001741
0.0005179
0.001223
-0.001026
0.0005799
0.0004463
0.1937
-0.1485
-0.00597
0.01753
-0.5006
-0.9695
-0.4981
-0.9651
-0.01087
0.001929
-0.0009965
0.0008112
0.0001853
-0.004362
-0.0002059
-0.0003606
-0.0006656
-8.939e-06
-0.0001181
0.000127
-0.01247
0.04674
0.002364
0.001093
7.908e-05
-3.261e-05
-4.647e-05
-8.106e-06
-3.875e-05
4.685e-05
-0.0004586
8.735e-05
0.0003712
0.0002191
0.000573
-3.778e-05
1.608e-05
2.17e-05
8.675e-05
-0.0001079
2.114e-05
0.0002641
-0.0001885
-7.562e-05
2.255e-05
-0.0001041
8.159e-05
-0.0003605
0.0002887
7.176e-05
0.0007023
-0.0008907
0.0001884
-3.318e-06
6.696e-05
-6.365e-05
6.154e-05
-0.001596
-0.02732
0.02891
-5.4e-05
4.825e-05
5.755e-06
-0.0002873
-9.072e-05
-0.0001715
-0.001175
0.001347
0.3009
-0.4093
0.1084
0.00033
4.377e-05
0.0002517
-0.000491
0.0002393
-0.00163
0.001452
-0.003464
-0.003385
0.006848
0.000555
-0.0005789
2.394e-05
-5.234e-05
0.0004078
-0.0003555
0.3808
0.1362
-0.517
-0.1186
-0.04826
-0.1716
0.2403
-0.06877
-1.614e-05
1.904e-05
-2.9e-06
0.4304
-0.8079
-0.001479
0.00152
-4.152e-05
0.06031
0.03534
8.39e-05
-0.0001193
3.956e-05
-0.0003294
0.0002898
0.1168
-0.1217
0.03115
-0.01402
-0.01713
-8.393e-05
0.000358
-0.0002741
1.611e-07
1.521e-07
-3.132e-07
-0.0002972
0.0005507
-0.0002534
0.923
-0.692
-0.231
0.001162
0.001638
-0.0028
2.197e-05
7.276e-05
-0.0003736
0.0002741
9.949e-05
0.006337
-0.004849
-0.001488
-0.08587
-0.02069
6.121e-06
8.368e-07
-6.958e-06
0.01618
-0.02039
0.004213
1.557e-06
-2.912e-05
-0.0004047
0.0006093
-0.0002047
0.0002476
-0.0003987
0.0001511
0.246
-0.2555
0.009415
0.005872
-0.005028
-0.0008441
4.816e-06
-1.963e-05
1.481e-05
0.0001337
0.0003255
-0.0004592
-0.0003973
0.000437
-3.966e-05
-7.334e-05
0.0001474
-7.408e-05
0.003887
0.001985
-0.0001746
0.0001485
-0.02284
0.02125
0.009251
-0.07451
3.159e-05
-5.158e-05
1.999e-05
-0.5078
0.03691
-0.0003259
-2.395e-05
0.0003498
-6.454e-05
3.224e-05
-0.0004701
0.01665
-0.00443
0.003516
0.0009136
-0.0001413
0.0004945
-0.0003532
-0.002125
0.0021
2.489e-05
0.1111
0.4877
-0.5988
0.0002665
-0.0005201
-0.0002727
-0.0001913
0.000464
-0.0003107
-3.373e-06
0.0003141
0.001225
0.008
-5.292e-05
-0.0003068
0.0003597
-0.001069
0.0006812
2.82e-05
5.365e-05
-0.0004253
0.0003543
7.097e-05
-0.000217
3.443e-05
-5.15e-05
0.001741
-0.001689
-0.0006378
0.0001109
0.0005269
-0.0002533
3.11e-05
-1.628e-05
1.512e-05
1.163e-06
-0.0001159
0.000125
-9.103e-06
-0.6751
0.8721
0.0006461
-0.0001784
0.008218
-0.01084
0.002622
-0.003611
0.004146
-0.0122
0.0006904
0.01151
-3.839e-05
1.166e-05
-0.01098
-0.007266
0.01824
-1.275
1.436
-0.1617
0.0001622
-0.0001632
1.002e-06
-6.15e-05
-3.476e-05
9.626e-05
0.006922
0.01149
-0.01841
0.002781
-0.002654
-0.0001271
0.5727
-0.1918
0.001036
-0.002053
0.001018
-7.493e-06
3.269e-05
-2.52e-05
-0.06021
0.04621
-0.02549
-0.1811
0.7013
-0.6553
-0.04596
0.0004155
-0.0004341
0.06657
-0.03012
-0.000347
-0.000115
0.000462
0.05177
-0.05485
0.003074
1.883e-05
0.0001225
-0.009967
-0.1342
0.1441
0.0004053
-0.0002976
-0.0001076
0.05461
-0.2262
-0.0001588
-0.0001602
0.0003236
-0.0003711
4.744e-05
-0.0003982
0.0002336
0.0001646
-0.001348
0.003012
-0.001665
-1.008e-05
1.889e-05
-8.814e-06
-0.01945
0.007834
0.01162
0.0003554
-0.0001893
-0.0001661
0.0001626
5.155e-05
-0.0002141
5.287e-05
-5.414e-06
-4.746e-05
0.0004078
-9.512e-05
-0.0003127
3.552e-05
0.007487
-0.007522
-0.002491
0.002148
-3.79e-05
-3.582e-05
7.373e-05
0.0001067
0.000264
-0.0003707
0.001927
-0.001668
-0.0002592
3.883e-05
-7.673e-05
0.3525
-0.942
0.5896
0.119
-0.0004851
-0.1185
-0.0002569
0.0001081
0.0001488
3.616e-05
-3.948e-05
3.319e-06
-1.539
0.1227
1.416
0.0006697
-0.0004006
-0.0002691
-0.002086
0.01174
-0.009649
0.005078
0.008968
8.143e-05
7.604e-05
0.03131
-0.01707
-0.01425
1.412
-0.2683
-1.144
3.095e-05
-0.000215
0.0001841
-0.01189
0.009807
5.413e-05
-4.775e-05
-6.38e-06
1.269e-05
4.324e-06
-1.701e-05
8.748e-05
-6.251e-05
-2.497e-05
0.0003365
-2.671e-05
-0.0003098
-4.015e-05
6.18e-06
3.397e-05
-0.0002047
-0.0001476
-0.0007037
7.337e-05
0.0006303
0.0008863
0.001895
6.475e-05
-3.146e-05
-3.33e-05
-0.1252
0.2552
-0.13
-0.0001007
0.0001622
-0.1022
0.08378
0.01844
0.0007115
-0.0005796
-0.0001319
0.0004159
-0.0008455
8.852e-05
-7.795e-05
-1.057e-05
0.0002772
-0.001496
0.001219
-8.732e-09
-2.63e-08
-0.0002857
0.0001364
0.0001492
-0.0003087
0.0007478
-0.0004391
0.03075
-0.01854
-0.01221
0.001872
-0.002366
0.0004943
-0.2872
0.2315
0.05563
6.47e-05
2.278e-05
0.1165
0.002562
0.0001563
1.853e-05
-0.0001748
0.0005629
-0.0003667
-5.112e-08
5.112e-08
7.739e-08
-2.126e-08
-5.613e-08
5.899e-08
-5.473e-08
-4.26e-09
1.196
-0.8184
-0.3779
-2.703e-05
-2.697e-05
4.702e-05
0.0003226
-0.0003696
-0.145
-0.1125
-0.000637
2.697e-05
0.00061
-0.0002715
0.0008414
-0.0005699
-0.0002167
0.0002366
-1.986e-05
0.003406
-0.0002981
-0.003108
-1.598e-05
0.0003396
-0.0003413
-5.69e-05
0.0004066
0.0002631
6.243e-06
-5.792e-06
-4.511e-07
-0.4368
0.7893
-0.0002519
0.0001444
0.0001075
4.392e-08
-4.254e-08
-1.385e-09
0.0003943
-0.0004473
5.302e-05
0.0001987
-4.467e-05
-0.000154
6.958e-06
-5.785e-06
0.06351
-0.1791
0.003405
-0.0008469
-0.0512
0.07818
-0.0002647
0.0003714
0.04249
0.2463
-0.2887
-0.0001539
3.615e-05
0.0001177
-3.728e-05
-5.667e-05
9.395e-05
3.795e-05
-3.59e-05
-2.052e-06
1.525
-0.9017
-0.6238
-0.0002062
-5.069e-05
0.009486
0.003968
-0.01345
1.016e-07
-4.872e-07
3.856e-07
-0.0006288
-2.509e-05
0.0006539
0.0001035
-7.631e-06
-9.588e-05
0.0006334
-0.0002895
-0.0003439
-0.1072
0.1025
0.004681
1.784e-05
-8.1e-05
6.316e-05
0.0009008
0.000696
-0.001597
-0.8033
-0.7358
0.002376
-0.003943
-8.986e-05
0.004032
-0.0002225
0.0001131
0.0001897
0.0003653
5.432e-08
3.611e-05
6.23e-05
-9.798e-06
-5.25e-05
-0.0005647
0.0001601
-0.002878
0.003506
-0.0006274
0.0006761
4.014e-07
-0.0006765
0.0001396
-0.0002868
0.0001472
4.51e-05
0.0001171
0.1128
0.05528
-0.168
-4.062e-05
3.019e-05
1.043e-05
3.515e-05
-0.0001725
0.0001374
0.0002358
-0.0002605
2.472e-05
0.0009333
-0.001981
0.001048
0.0001276
-0.0002332
0.0001056
-0.7909
0.1141
0.6768
-0.7883
0.6297
0.1586
0.002403
-0.01148
-3.531e-05
-2.467e-06
-0.000529
-0.001269
0.001798
0.1382
-0.2085
0.07023
1.473
-0.649
-0.8236
-0.001442
0.002343
-0.0009002
0.0001715
-0.0002503
7.873e-05
-0.0005907
0.0002393
0.0003514
-0.0006799
-2.374e-05
4.022e-05
3.5e-06
-4.372e-05
-1.815e-05
1.69e-05
1.241e-06
-0.003074
0.002935
0.0001394
-0.1413
0.1002
0.04115
1.4
-1.277
-0.1228
-4.265e-05
2.128e-05
2.137e-05
-0.0001105
-0.0002585
0.000369
0.0004848
-0.001489
0.001004
0.3136
0.5219
-0.8355
3.78e-06
7.467e-06
0.002291
-0.002671
0.0003808
-8.419e-05
8.395e-05
2.41e-07
0.4894
-0.0001663
0.00019
-2.374e-05
-0.02719
0.1654
0.0002216
-0.0003629
-0.000118
4.052e-05
7.746e-05
0.0004657
-0.0002092
-0.0002565
0.9787
0.1618
-1.14
-1.798e-05
-6.598e-05
8.396e-05
0.0004821
0.0002459
-3.799e-05
2.219e-05
0.391
1.021
0.0003483
-0.0012
-4.309e-06
-1.504e-06
0.3952
0.3061
-0.001696
-0.002734
-0.1645
0.005206
0.1593
-0.0002501
-0.0002871
0.0005373
3.145e-05
-2.348e-05
-7.963e-06
-0.2801
0.1896
2.945e-05
-2.677e-05
-2.673e-06
0.0001416
0.0002567
-0.0003983
-1.741e-06
8.403e-06
-6.663e-06
-4.011e-05
-3.054e-05
7.065e-05
-0.0001768
9.248e-05
8.427e-05
-0.0001051
-0.0002554
-0.0001237
-0.0002499
5.819e-05
0.0001806
-0.0002388
0.0004238
-0.0004518
0.0006219
-0.0008888
0.0003796
-0.0005876
0.000208
7.971e-05
-8.864e-05
8.93e-06
8.033e-05
-5.346e-05
-2.687e-05
0.000162
-0.0001207
-4.134e-05
-0.5998
0.9134
0.0004177
-0.0002904
-0.0001273
0.1081
-0.1941
0.08604
-0.0004928
3.416e-05
-0.1245
0.03477
0.08977
4.226e-05
-0.0001791
-0.3422
-0.9326
-0.1524
0.07769
-0.002577
-0.005068
0.007646
-0.0003145
-0.0003233
-0.0001237
-0.0001017
0.0002254
-1.04
0.128
0.9121
1.107
-0.8991
-0.2079
5.412e-05
-1.977e-05
8.212e-06
2.608e-06
-1.082e-05
-1.37e-05
2.694e-05
-0.0002559
9.427e-05
0.0001616
0.0007639
-0.0002573
-0.0005066
0.0002845
-0.0006314
-0.0002774
0.0004247
-0.0001473
-0.0006948
0.0004221
-7.902e-05
4.027e-05
-2.929e-05
8.051e-05
-5.121e-05
-1.671e-05
-4.666e-06
2.138e-05
-1.16
0.1201
1.601e-05
4.56e-05
-6.161e-05
6.71e-06
-6.916e-05
6.245e-05
-3.589e-05
-0.004974
0.00501
0.009391
-0.00596
-0.003431
0.1781
-0.2394
0.06132
1.03
0.443
0.0001439
-8.923e-05
-5.854e-06
-9.18e-05
8.351e-06
5.64e-05
4.099e-06
-2.741e-06
-1.358e-06
-0.07636
-0.04817
-0.9853
-0.4034
1.389
-0.0001028
-7.583e-05
0.0001787
-6.504e-05
1.428e-06
6.361e-05
-0.05099
-0.007097
9.268e-06
1.136e-05
-2.063e-05
0.01443
-0.002178
-0.01225
-0.03491
0.08729
-0.05238
-0.0001113
3.952e-05
7.182e-05
0.002273
-0.002803
0.0005301
-7.146e-05
7.817e-05
0.004469
-0.009134
0.004665
-1.73e-08
1.73e-08
-1.373e-05
2.914e-06
5.419e-05
0.0003537
0.0002584
9.705e-05
-0.0001033
-9.614e-05
4.55e-05
1.947e-05
-6.497e-05
-0.0001599
-6.335e-06
-2.268e-05
4.244e-05
-1.976e-05
0.05597
0.007016
-0.06299
0.0001116
-3.738e-05
-7.424e-05
4.32e-06
1.978e-06
-6.298e-06
-6.483e-05
-0.0002611
0.7437
-1.068
0.3245
0.0008222
-0.0001445
-0.004659
0.004095
0.0005642
0.001188
-0.002978
0.00179
1.076
0.4496
-0.0257
0.7694
4.734e-07
-4.693e-07
-4.101e-09
0.0233
0.007454
0.0002128
-0.0003699
0.0001571
4.047e-05
-4.125e-05
7.82e-07
-0.0002983
0.0005243
-0.000226
0.0006057
1.955e-05
0.004239
0.002798
-0.007037
0.0001269
-6.978e-05
0.003343
-0.006497
0.003154
0.0006008
-0.000513
-8.777e-05
-0.1495
-0.1992
0.3488
1.05
-0.04448
-1.006
-0.002202
-0.0004977
0.002699
-0.0008764
0.009094
5.423e-06
-2.156e-05
-0.00175
0.002938
0.0001911
-0.0002119
2.078e-05
0.0008834
-0.0002869
-0.0005965
0.000204
0.000118
-0.000322
-0.02083
0.02359
0.003411
-0.006875
-1.125
-0.386
1.511
-6.548e-05
0.0001226
-5.714e-05
0.02277
0.00854
-0.0006371
0.0004827
0.0001544
4.094e-08
-0.002211
0.0006404
0.00157
-0.0001852
0.0001967
0.0001931
-0.0004904
1.257
-0.2787
-0.00144
0.00163
-0.0001906
-0.0002073
-0.0003161
0.0005234
-8.751e-06
9.044e-06
-2.933e-07
-0.0006719
-0.0003965
0.001068
0.000326
1.471e-05
-0.0003407
-5.251e-05
-2.651e-05
-7.067e-05
0.0002136
-0.0002118
-0.0002135
9.834e-05
-0.0003264
0.000228
0.0005301
0.0003431
-0.0008732
0.0003749
-0.0004752
0.001033
-0.001757
0.0007245
-0.003389
0.000209
8.682e-05
-0.0005241
0.0031
-0.005937
0.002837
-7.142e-08
7.142e-08
-0.0009852
-0.003674
-0.06604
0.0244
0.0001395
-0.001088
0.0009486
0.0001623
0.0002898
-0.0004521
1.685e-06
0.0007128
-0.0007144
0.1017
0.3722
-0.4738
-3.357e-05
1.988e-05
1.369e-05
-2.652e-05
0.0007288
-0.0005252
-6.552e-05
-1.511
0.5252
1.062e-06
3.038e-06
-0.0001467
3.079e-05
0.0001649
-0.0001887
2.382e-05
-0.3881
-0.6375
1.026
2.97e-06
-2.565e-05
0.000102
-0.0001225
2.05e-05
1.171e-05
-3.674e-05
2.503e-05
1.546e-05
-6.762e-05
5.216e-05
-1.198
0.8099
-0.000544
0.0003199
0.0002241
1.698e-06
-1.804e-06
1.058e-07
3.279e-05
-4.94e-05
1.661e-05
-0.0002861
0.0002935
-7.38e-06
-0.1578
0.06287
0.09497
5.997e-05
1.911e-05
0.0001158
-0.0001565
4.067e-05
-0.1618
0.168
-0.006207
0.002682
0.0005051
-0.003187
-0.003813
0.003728
8.439e-05
5.636e-05
-1.086e-05
-0.000191
-9.465e-05
-0.002595
0.003751
-0.0025
0.0002897
-5.601e-06
-0.0001091
0.0001147
-4.392e-05
0.0001011
0.2818
0.5868
-0.8686
-0.0003881
-0.0001559
-0.0004472
0.000751
-0.0003037
5.427e-05
-5.505e-05
7.798e-07
-6.421e-05
-0.0002465
-0.01361
0.01203
0.001585
-0.0007566
0.0001197
1.415e-05
4.815e-05
1.028
-0.746
3.238e-05
-0.0002491
-4.516e-05
-6.618e-05
2.654e-05
-4.959e-06
-2.158e-05
1.447e-07
-4.664e-07
9.65e-06
1.689e-05
1.645e-05
2.15e-05
0.0001333
2.363e-05
-0.0001569
0.0002472
-0.0001578
-8.948e-05
-0.004488
0.001164
0.003324
0.1728
1.024
-2.299e-09
2.299e-09
7.971e-05
9.839e-05
-0.0001781
3.419e-05
-7.43e-05
3.044e-05
-2.769e-05
-2.758e-06
-0.0001165
0.0002959
-0.0001794
1.702e-05
-9.343e-05
7.641e-05
-0.0001819
2.853e-05
0.0001534
-0.0002922
0.0002516
0.5592
0.8411
0.0001578
0.0005222
-0.0006801
-0.004395
0.001238
0.003157
-1.504
0.3788
-9.276e-05
0.0001586
-6.586e-05
0.0001608
0.0005507
0.001517
-0.0005908
0.0008204
0.0003126
-0.001133
0.1374
-1.017
0.8797
9.537e-05
-0.0003727
7.545e-05
-1.599e-05
-5.945e-05
-0.2748
-0.7145
0.8519
0.006981
0.00241
-0.0008039
0.001042
-0.0002377
0.0003932
0.0003707
-0.0001047
-4.745e-06
0.0001094
-0.0005336
0.0004625
7.104e-05
2.947e-06
-1.856e-07
-2.761e-06
-0.004035
0.0009885
0.003047
-0.003966
0.00532
-0.001354
-0.7988
-0.2694
-0.0003827
9.759e-05
0.0002851
-0.0002915
0.0001413
0.0001502
0.0002205
-0.0001826
-3.794e-05
5.175e-05
-9.937e-05
0.001897
-0.001757
1.084
0.08574
-1.17
0.2754
-0.2119
0.07726
-0.1332
0.05598
-8.866e-06
2.189e-06
6.677e-06
0.04538
-0.8442
0.03363
-0.01885
-0.01478
-6.937e-05
0.000142
-7.267e-05
-0.0007007
-0.0008311
0.001532
6.677e-05
2.751e-05
-9.427e-05
-0.2159
0.8475
-0.6316
-0.0001708
0.0001172
5.352e-05
-0.0003135
0.001742
-0.001428
-0.2387
-0.01736
0.2561
0.0001337
0.0001304
0.6915
0.4734
-1.165
-0.0003541
-0.0002156
0.0005697
6.177e-06
-1.071e-06
-5.106e-06
5.825e-05
-2.755e-05
-3.07e-05
-0.0002387
-0.0003918
0.0006305
1.109e-05
7.722e-06
-1.882e-05
0.1853
-0.04869
-0.1366
2.586e-05
1.921e-05
-4.506e-05
-0.008961
0.009049
-8.739e-05
-0.0001195
-3.435e-05
6.404e-06
-1.055e-06
-5.349e-06
-0.0001138
-0.0001033
0.0002171
0.0001992
5.895e-05
-0.0002582
-0.007097
-0.006517
0.00531
-0.005872
0.0005617
0.001823
-0.000353
-0.00147
3.257e-05
-3.257e-05
-0.3402
0.197
0.1432
-0.001046
0.002113
-0.001067
0.000478
-0.0003095
-0.0001686
-0.0001485
0.0002737
-0.0001252
-9.286e-07
5.249e-06
6.024e-05
-5.286e-05
-7.377e-06
-0.1176
1.202
0.04672
-0.0283
-0.01841
-3.02e-05
-1.245e-05
-0.0001079
4.259e-06
0.0001036
-2.902e-06
4.185e-06
-1.283e-06
-0.0003637
0.0009724
-0.0006087
1.706e-06
-1.706e-06
-0.0002293
0.0002592
-2.988e-05
7.375e-07
-7.375e-07
-0.0001306
4.071e-05
8.99e-05
2.173e-05
1.3e-05
-3.474e-05
0.0005672
-0.0004094
2.127e-05
-1.503e-05
-6.245e-06
0.09806
-0.07367
-0.0244
0.001292
-0.0009854
-0.0003066
1.092
-1.516
0.4241
1.318
-1.741
0.4228
-3.813e-05
-0.0001738
0.0002119
-0.04314
0.09225
-0.04911
6.6e-05
-8.603e-07
-6.514e-05
-0.003751
0.001639
0.002111
-0.001135
9.818e-05
-0.007709
0.008704
-0.0009952
0.04614
-0.1012
0.05507
-0.0005345
2.738e-05
0.0005071
0.0004813
0.0007663
-0.001248
0.2521
-0.006066
-0.0003034
0.0005297
-0.0002263
0.0001819
-0.0003242
0.0001424
0.09364
-0.0475
2.648e-05
-1.312e-05
-1.336e-05
7.305e-06
-7.305e-06
-0.00011
2.771e-05
8.231e-05
0.0008619
-0.002785
0.001923
6.034e-05
-3.543e-05
-2.491e-05
-0.0001622
0.0002938
-0.0001316
-9.472e-05
9.028e-05
4.442e-06
-0.3382
0.1233
0.2149
0.0001082
-1.968e-05
-0.0003136
-0.0003235
-0.04989
0.3508
3.366e-05
-2.517e-05
0.0002679
-2.618e-05
-0.0002418
0.0004766
-0.0008785
0.0004019
-0.4773
-0.5493
1.027
0.2178
0.0007162
-0.2185
0.001825
-0.001328
-0.0004971
7.549e-07
4.477e-07
-1.203e-06
0.0001469
-0.002143
0.001996
-7.216e-06
7.216e-06
0.0006388
-0.0003423
-0.0002965
0.0007019
-0.0001832
-0.0005187
-0.001572
0.001435
0.0001366
2.017e-06
1.292e-06
-3.309e-06
5.838e-05
1.716e-05
-7.554e-05
-0.4117
1.372
-0.9608
-8.53e-05
0.0001171
-3.182e-05
0.005556
-0.0004475
-0.005109
-0.3003
1.333
-1.032
-0.0005886
-0.0008073
0.001396
-1.327e-07
7.06e-08
6.205e-08
0.0008598
0.0006219
-0.001482
-2.192e-05
1.751e-05
4.407e-06
0.006598
-0.00371
-0.002888
0.001239
0.003108
-0.004347
-4.499e-07
-7.362e-07
1.186e-06
1.252e-05
-1.252e-05
0.0003146
0.0001363
-0.000451
-0.08793
-0.05339
-0.4604
0.2235
0.2369
0.002806
-0.001069
-0.001737
-0.001347
0.001031
0.0003162
-6.02e-05
-0.0001042
0.0001644
3.753e-05
-2.172e-05
-1.581e-05
-0.0005492
-0.0001921
0.0007413
0.0001701
-8.11e-05
-8.899e-05
-0.001603
0.001432
0.0001705
-0.00935
0.01728
-0.00793
6.597e-05
0.0001041
-0.03236
-0.0154
0.04776
1.811e-05
1.072e-06
-1.918e-05
0.1368
-0.5756
0.4388
-0.0002317
-0.0003176
0.0005493
-1.529e-06
8.7e-06
-7.171e-06
0.0002511
-0.0003169
6.586e-05
-0.000141
0.0001175
2.353e-05
0.0004861
-0.0002464
-0.0002397
-0.3822
0.09717
0.285
-0.189
0.05572
0.1333
2.433e-05
-4.037e-05
1.604e-05
0.007751
-0.008796
0.001044
-7.309e-05
0.0001432
-7.014e-05
0.0002526
-0.0004306
0.000178
3.744e-05
-7.32e-05
3.576e-05
-0.0005057
0.0004923
1.344e-05
0.000197
-6.576e-05
-0.0001313
-0.0001014
0.0001074
-5.978e-06
-8.03e-06
5.716e-05
-4.913e-05
4.314e-05
-4.314e-05
3.657e-06
-7.232e-05
6.866e-05
-2.054e-05
0.000143
-0.0001224
-8.76e-05
7.276e-05
1.483e-05
-0.002725
0.004091
-0.001366
-0.0003476
0.0007239
-0.0003763
0.0001338
0.0006762
0.0001308
-0.0001365
5.625e-06
-2.737e-07
-4.007e-06
4.281e-06
3.53e-08
-7.764e-09
-2.753e-08
0.0005973
-0.0002841
-0.0003131
-0.3195
0.4212
0.59
0.2174
-0.8075
0.0004269
-0.0005703
0.0001434
-8.098e-05
-0.0002388
0.0003198
0.004806
-0.000885
-0.003921
-0.1886
1.18
-0.9917
0.0002657
0.0005917
-0.0008574
0.0004023
2.239e-05
-0.002505
-0.005772
0.008278
-4.748e-05
-3.064e-05
7.813e-05
0.0004053
-0.000275
-0.0001303
1.892e-05
-7.622e-05
5.731e-05
0.002757
-0.00324
0.0004833
0.7873
-0.6762
-0.008363
0.002798
0.005565
0.01225
0.0006195
-0.01287
6.777e-05
-7.858e-06
-5.991e-05
2.446e-05
4.104e-05
-6.55e-05
0.0001205
-9.033e-05
-3.017e-05
-0.004344
0.001699
0.002645
0.0001847
-0.00243
0.002245
-9.922e-06
2.554e-05
-1.561e-05
-0.0003628
0.0005403
-0.0001775
-0.002044
-0.001345
0.003389
-0.001072
0.0004274
0.0006448
-0.0006604
-0.0001437
0.0008041
0.001118
-0.0009085
-0.0002092
-0.0002739
0.0002332
4.07e-05
0.000136
-9.72e-05
-3.877e-05
0.2601
-0.3214
0.06133
1.659e-05
-9.474e-06
-7.116e-06
3.361e-07
1.235e-06
-1.571e-06
-0.0006688
0.0002215
3.624e-06
-9.551e-05
9.189e-05
-2.682e-05
1.243e-05
0.02158
-0.1183
0.09676
6.412e-06
-6.412e-06
-4.699e-05
4.699e-05
-0.1666
-1.047
1.214
1.259
0.2309
-1.49
0.0001137
-6.278e-05
-5.089e-05
-4.457e-05
0.0003171
-0.0002725
-4.354e-08
4.91e-08
-5.564e-09
-1.217e-05
5.05e-06
7.116e-06
-0.0001474
0.001439
-0.0003085
0.0004006
-9.214e-05
-8.073e-05
-8.202e-06
8.893e-05
-0.001097
-0.00417
0.005268
0.003605
0.005164
-0.00877
-0.1896
0.0628
0.1268
-8.363e-05
5.597e-05
2.765e-05
6.676e-05
0.0004559
-0.0005226
6.609e-05
-0.0001337
6.76e-05
-0.004627
0.001021
0.003605
4.954e-07
-1.042e-06
5.468e-07
-0.0002731
0.0003716
-9.847e-05
0.8161
-1.147
0.3314
-5.507e-05
5.507e-05
-0.0001454
9.473e-05
5.07e-05
0.1661
0.5628
-0.7288
-4.356e-05
3.404e-06
-1.287
1.12
0.242
-0.4264
0.1844
-0.002957
0.002065
0.0008914
-0.01119
-0.002136
0.01333
-4.713e-06
2.896e-06
1.817e-06
0.7807
-0.946
0.1653
0.0002892
-0.0001535
-0.0001357
0.4759
-0.136
-0.3399
0.0004729
-0.0008774
0.0004046
-0.0168
0.005559
0.01124
0.0005356
-0.0003808
-0.0001549
0.006153
-0.003223
-0.00293
-7.109e-05
-0.0002992
0.0003703
-0.0003204
-0.0001278
0.0004482
-5.767e-05
-1.749e-05
7.516e-05
0.00153
0.0003354
-0.001865
0.1497
0.6502
-0.7998
0.01084
0.06077
-0.07161
0.0003402
-0.0001837
-0.0001565
-0.0001073
-0.0005399
0.0006472
-3.514e-05
0.000117
-8.185e-05
-0.0001048
5.927e-05
4.55e-05
2.49e-05
-1.492e-05
-9.979e-06
5.605e-05
1.442e-05
-7.047e-05
1.032e-05
-1.032e-05
4.195e-05
-7.249e-05
0.000693
-0.0005082
-0.0001848
1.422e-05
-3.287e-05
1.865e-05
-0.0003955
0.0002566
0.0001389
5.852e-05
2.645e-05
-8.497e-05
0.005516
-0.006375
0.000859
-0.0008579
0.0003179
0.00054
0.4955
-0.366
-0.1295
3.723e-05
-4.048e-05
3.249e-06
5.567e-06
-1.865e-05
1.309e-05
-0.0001655
1.141e-06
0.0001644
0.4961
-1.094
0.5982
-0.000352
0.0001197
0.0002323
-0.0006902
0.0003915
0.0002987
-0.001633
0.000412
0.001221
0.001202
-0.0005488
-0.0006531
1.753e-05
-8.286e-05
6.533e-05
0.001428
0.006718
-0.008147
-1.897e-05
2.161e-05
-2.64e-06
6.37e-05
0.0004448
-0.0005085
-0.0008286
-0.000804
2.406e-05
4.346e-05
-6.752e-05
-0.0002646
-3.972e-05
0.0003043
3.8e-07
6.024e-06
-1.181
0.5418
0.6391
0.002175
-0.004248
0.002074
3.346e-05
-1.191e-05
-2.155e-05
0.1288
0.05716
-0.186
4.455e-05
-1.236e-05
-3.219e-05
-2.763e-05
-6.813e-06
3.444e-05
-1.246
1.246
0.001502
0.002334
-0.003836
1.327e-05
-1.919e-05
5.92e-06
0.06845
-0.05252
-0.01593
0.006581
-0.001065
0.0002788
-0.0002
-7.878e-05
6.677e-05
-1.394e-05
-5.284e-05
0.01231
-0.009498
-0.002808
-1.269
0.5237
0.7457
-4.079e-05
6.51e-05
-2.431e-05
4.458e-05
-0.000104
5.944e-05
0.4035
-0.256
-0.1475
-0.008498
0.005945
0.002553
0.001107
-0.03128
0.03018
0.0003465
0.0001145
-0.0004611
5.12e-05
1.649e-05
-6.769e-05
-0.001513
-0.0007634
0.002276
-0.05384
-0.05466
0.1085
-2.478e-07
2.379e-06
-2.131e-06
1.449e-08
3.364e-07
-3.509e-07
0.0001076
0.0003101
0.000205
-0.000687
0.0004821
0.0005296
-0.0008252
0.0002956
1.449e-05
6.783e-06
-0.3928
1.24
-0.8476
0.0001416
-0.000711
0.0005693
0.3499
-0.006992
-0.3429
-0.0002183
0.0003132
-9.491e-05
-0.0009351
0.0009209
1.421e-05
-2.798e-05
-3.791e-05
6.589e-05
0.0003186
0.0008833
-2.236e-06
2.909e-06
-6.735e-07
-7.097e-06
7.678e-06
-5.809e-07
-0.5585
0.2186
0.3399
-9.89e-07
9.89e-07
5.042e-05
-3.788e-05
-1.254e-05
-1.242e-05
4.825e-05
-3.583e-05
-0.001413
-0.0001587
0.001571
-0.0001286
0.0001807
0.0004541
0.0002428
-0.0006969
-0.00105
0.000701
0.0003487
-0.0001044
8.651e-05
1.789e-05
0.001589
-0.00111
-0.0004787
-0.009632
0.02476
-0.01513
2.635e-06
-2.635e-06
0.0002081
-0.000257
4.887e-05
-0.0004468
0.0001993
0.0002476
0.0001486
7.433e-05
-0.0002229
0.0008557
-0.0007129
-0.0001428
0.0001882