/*--------------------------------*- C++ -*----------------------------------*\
  =========                 |
  \\      /  F ield         | OpenFOAM: The Open Source CFD Toolbox
   \\    /   O peration     | Website:  https://openfoam.org
    \\  /    A nd           | Version:  8
     \\/     M anipulation  |
\*---------------------------------------------------------------------------*/
FoamFile
{
    version     2.0;
    format      ascii;
    class       volVectorField;
    location    "55";
    object      U;
}
// * * * * * * * * * * * * * * * * * * * * * * * * * * * * * * * * * * * * * //

dimensions      [0 1 -1 0 0 0 0];

internalField   nonuniform List<vector> 
127143
(
(0.000938 -4.031e-05 0)
(-2.502e-05 -0.0001242 -1.544e-24)
(-5.15e-05 -0.0002528 2.733e-24)
(-6.69e-05 -0.0003051 -1.232e-27)
(0.005725 0.001789 -4.704e-23)
(-5.651e-05 -0.0003132 3.978e-27)
(0.01681 0.01073 0)
(0.008605 0.003961 -6.49e-23)
(0.007012 0.003388 2.142e-22)
(-0.001778 -6.453e-05 0)
(0.0184 0.02544 2.472e-22)
(0.01124 0.007489 2.365e-22)
(0.0001134 -4.289e-05 -5.439e-25)
(-8.656e-05 -0.0003414 0)
(0.04241 -0.0108 5.301e-21)
(0.02085 -0.001946 0)
(-0.0001163 -0.000571 -4.435e-24)
(0.01179 -0.0788 2.677e-20)
(-0.1805 0.0102 0)
(0.03245 0.00994 0)
(-0.122 0.03745 2.17e-20)
(-0.0005687 0.0001564 0)
(0.9891 -0.1452 0)
(0.3531 -0.03429 0)
(-0.000581 0.000183 -5.162e-23)
(0.1169 -0.01883 0)
(-0.0165 0.0001754 4.159e-21)
(-0.01651 -0.0004673 -6.234e-23)
(0.1245 -0.05399 0)
(0.3834 -0.09151 -1.859e-21)
(0.284 -0.01754 0)
(0.1124 -0.01671 -1.499e-21)
(0.04876 0.01208 9.062e-22)
(-0.009992 0.002751 -5.959e-21)
(0.8758 -0.0777 2.252e-20)
(0.04732 0.01402 -2.276e-24)
(-0.1854 0.06496 9.388e-21)
(0.1291 0.02288 -1.806e-20)
(0.4388 -0.03961 -1.416e-21)
(0.1165 -0.003208 1.225e-25)
(-0.1812 0.008507 0)
(1.075 0.4583 -6.078e-21)
(1.055 0.447 4.652e-21)
(0.000237 -8.177e-05 0)
(-0.0008491 -0.072 -2.284e-20)
(-0.01043 0.002377 1.886e-21)
(0.1272 -0.05829 0)
(-0.2214 0.07664 -1.39e-21)
(0.4301 -0.07578 3.447e-22)
(0.4181 -0.03322 -8.817e-22)
(0.02483 -0.001761 -4.981e-23)
(0.9774 -0.03337 3.782e-20)
(-0.0723 0.0107 0)
(1.172 0.1676 -8.703e-21)
(1.001 -0.0009895 2.27e-20)
(0.3204 -0.07945 2.064e-22)
(1.001 -0.000984 -2.042e-20)
(1.109 -0.07909 0)
(1.01 -0.008585 -1.458e-20)
(1.171 0.1687 -1.693e-20)
(0.5125 -0.06274 -6.563e-20)
(-0.1758 0.06611 -1.536e-21)
(0.8003 -0.05294 4.943e-21)
(1.001 0.0004846 4.639e-20)
(-0.03746 0.003063 0)
(0.8711 -0.2359 -6.58e-21)
(1.08 0.1514 2.971e-20)
(0.7422 -0.05472 0)
(0.7532 -0.05416 1.354e-21)
(0.9906 -4.216e-05 0)
(0.3199 -0.02376 0)
(-0.01777 0.0001797 -1.958e-21)
(-0.1961 -0.03292 -6.646e-21)
(1.011 -0.008448 -8.079e-21)
(1.004 0.002851 -3.871e-22)
(-0.01781 -0.0003752 1.948e-21)
(1.009 0.03707 -1.805e-20)
(-0.1947 0.06563 0)
(0.3314 -0.08722 -3.662e-22)
(1 0.0006626 0)
(0.1213 -0.05602 7.207e-24)
(0.03572 0.009181 1.144e-23)
(-0.0193 0.004677 3.858e-21)
(0.1432 -0.009853 0)
(-0.16 -0.001893 1.504e-21)
(-0.2074 0.07087 0)
(0.5204 -0.05093 -3.208e-21)
(-0.006115 5.386e-05 1.264e-21)
(0.8704 -0.2334 0)
(0.9745 0.5968 0)
(1 -0.005269 0)
(1.221 0.05941 0)
(1.125 0.6935 0)
(-0.1221 0.03757 -2.23e-20)
(-0.05022 0.01026 0)
(1.036 0.0647 1.651e-20)
(1.076 0.4505 1.277e-20)
(0.1977 -0.01408 0)
(-0.2022 0.06548 5.53e-21)
(1.077 0.1518 0)
(1 0.0006435 0)
(0.4544 -0.08229 0)
(0.5918 0.5505 -6.822e-22)
(1.077 -0.1227 0)
(-0.2102 0.07211 -3.003e-21)
(-0.2014 0.06513 7.933e-21)
(0.7402 -0.1155 -2.33e-21)
(0.9898 2.248e-05 0)
(0.6953 -0.27 0)
(1.002 -0.0007276 3.213e-20)
(0.05162 -0.01443 -1.693e-21)
(-0.005955 -7.41e-05 2.422e-21)
(-0.08101 0.02089 -2.197e-20)
(0.2493 0.5212 0)
(0.996 0.009327 1.473e-20)
(1.027 -0.1674 -4.119e-22)
(0.9881 0.03976 -8.414e-21)
(1.003 0.002974 -2.859e-20)
(1.009 0.03609 1.414e-20)
(-0.0007586 -0.003237 0)
(1.002 -0.0007744 -4.493e-20)
(-0.02328 0.006279 -9.563e-22)
(0.757 -0.2784 0)
(1.087 -0.08744 1.486e-20)
(0.1274 -0.05641 3.318e-22)
(0.08003 -0.01028 -3.929e-21)
(-0.1891 0.06504 0)
(1.035 0.006107 1.037e-19)
(-0.07587 0.005436 -3.099e-21)
(0.3219 -0.09281 -5.566e-22)
(-0.1453 0.0453 0)
(-0.05301 0.01336 -7.586e-21)
(0.9497 -0.07964 -9.747e-21)
(-0.1965 0.06618 0)
(-0.0001736 -0.001034 -2.464e-23)
(-0.149 0.04665 -3.751e-21)
(1.088 -0.04716 0)
(-0.1203 0.03868 5.41e-21)
(0.1534 -0.08679 -2.812e-21)
(1.112 -0.0002608 9.537e-21)
(0.958 -0.1746 6.087e-21)
(0.9859 0.02742 4.944e-20)
(-0.07505 0.0132 1.317e-21)
(-0.09384 0.0295 -1.842e-20)
(-0.07088 0.01066 -3.179e-21)
(1.239 0.4718 3.719e-21)
(-0.02871 0.161 6.891e-22)
(1.001 0.0004208 -4.19e-20)
(-0.05068 0.01262 6.364e-21)
(0.4905 0.428 -4.264e-22)
(1.077 -0.1142 -3.548e-21)
(0.4903 -0.0973 0)
(0.3766 0.04715 4.031e-20)
(0.8417 -0.1397 0)
(0.2847 -0.1915 0)
(-0.1622 -0.001732 0)
(1.11 -0.07808 -5.402e-21)
(0.3106 -0.1089 0)
(-0.2213 0.07649 -2.589e-21)
(0.1716 -0.01538 9.719e-22)
(0.3563 -0.0217 0)
(0.02853 -0.01504 2.179e-21)
(1 -0.005001 1.447e-22)
(-0.147 0.04589 -9.251e-21)
(0.188 -0.0484 0)
(-0.04152 0.003594 4.151e-21)
(-0.1637 0.0564 -4.85e-21)
(0.6821 -0.2308 1.518e-20)
(0.2026 0.05711 -2.453e-21)
(0.9408 0.04608 -6.643e-21)
(-0.01925 0.005725 0)
(-0.09426 0.02995 8.614e-21)
(1.018 -0.1776 -1.039e-21)
(0.8815 -0.2546 -1.848e-21)
(0.9781 -0.0007171 3.615e-20)
(-0.08113 0.007185 8.598e-23)
(1.219 0.5321 -6.217e-22)
(-0.07593 0.00558 -3.065e-21)
(0.4051 -0.04087 0)
(1.007 -0.01857 5.16e-21)
(0.8805 -0.255 -6.352e-22)
(1.007 0.005217 0)
(-0.06412 -0.01011 1.12e-21)
(-0.08113 0.006322 -8.595e-23)
(0.3327 -0.09727 1.172e-21)
(-0.1733 0.06542 2.724e-21)
(1.015 0.296 -4.647e-21)
(0.2679 0.5373 -4.025e-21)
(0.3806 -0.03728 -2.583e-21)
(1.027 -0.02788 4.36e-20)
(-0.08169 0.009758 1.933e-21)
(-0.06693 0.00796 -7.997e-21)
(1.085 -0.0462 7.243e-20)
(0.3695 0.8972 -2.043e-22)
(-9.207e-05 -0.001069 4.11e-23)
(-0.1672 0.0597 0)
(1.003 -1.227e-06 0)
(0.9985 -3.356e-06 2.802e-22)
(0.0144 0.007844 0)
(0.9908 0.01326 4.63e-21)
(1.011 0.007551 2.898e-20)
(0.9319 0.003511 1.07e-19)
(0.9885 -0.04394 1.111e-20)
(-0.1918 0.06717 -4.745e-21)
(-0.000118 -0.000647 5.952e-25)
(0.6508 -0.03935 4.957e-21)
(1.016 -0.09489 -3.049e-21)
(0.989 -0.1752 3.341e-22)
(0.4981 -0.1149 -1.208e-21)
(0.996 0.00902 -7.591e-21)
(1.185 -0.02724 2.031e-20)
(-0.141 0.003267 1.036e-21)
(0.9952 -0.004352 9.181e-21)
(0.2136 0.05836 -2.63e-21)
(-0.1097 0.03436 5.907e-24)
(0.01929 0.001852 0)
(-0.01714 0.005838 -4.364e-22)
(0.9717 -0.1895 -9.368e-22)
(-0.09043 0.02579 -1.374e-20)
(1.018 -0.09364 -8.761e-22)
(1.209 0.5264 -1.23e-21)
(1.001 0.004745 -7.679e-21)
(0.4779 -0.09379 1.908e-22)
(-0.05815 0.01044 3.423e-21)
(0.1583 -0.01502 0)
(-0.02716 0.009279 0)
(0.2328 -0.05923 -3.734e-22)
(0.1722 0.03009 1.84e-20)
(-0.06832 0.02346 1.642e-21)
(-0.2042 0.06824 6.986e-21)
(-0.1144 0.03419 1.414e-20)
(1.008 0.004363 -7.958e-21)
(-0.2011 -0.03264 1.326e-20)
(-0.0001924 -0.007178 0)
(-0.1154 0.03453 0)
(1.075 -0.07297 1.507e-20)
(-0.1468 0.04609 4.459e-21)
(0.002362 -0.0003629 2.528e-23)
(1.011 0.007346 -2.696e-20)
(-0.08282 0.009978 1.127e-20)
(-0.06869 0.008206 7.559e-21)
(-0.05262 0.002988 -6.99e-21)
(-0.1666 0.0461 -7.536e-22)
(0.3219 -0.1141 4.074e-25)
(0.2042 0.03486 0)
(-0.0006077 -0.003341 1.794e-26)
(0.6246 -0.1269 -9.236e-22)
(-0.01648 0.0002938 0)
(-0.003789 0.001046 5.906e-22)
(1 -4.025e-05 -1.046e-21)
(1.19 0.3867 -1.419e-20)
(0.1177 -0.01313 2.827e-21)
(0.9273 -0.2181 0)
(-0.1055 0.03074 0)
(0.4306 -0.1039 2.641e-22)
(0.7132 -0.2738 0)
(1.034 0.005542 -8.131e-20)
(0.396 0.1316 0)
(0.9368 -0.2363 0)
(0.8619 0.2173 1.265e-20)
(-0.1521 0.05698 -6.079e-21)
(1.013 -0.01161 8.497e-21)
(1.218 0.05992 -8.484e-24)
(0.9853 0.02644 -3.99e-20)
(0.05328 0.01448 0)
(-0.04775 0.003655 -2.196e-21)
(-0.08249 0.02696 6.462e-21)
(0.2447 -0.1794 0)
(0.558 -0.1805 3.811e-20)
(1.204 0.1915 -5.533e-21)
(0.1992 -0.0353 0)
(0.9741 -0.001408 -4.355e-20)
(-0.2176 0.07301 -1.795e-21)
(-0.08278 0.009994 -1.157e-20)
(0.9464 -0.05882 7.956e-21)
(-0.08214 0.009791 -9.425e-21)
(-0.08244 0.02153 0)
(0.5009 -0.07931 3.045e-21)
(0.956 -0.002206 -8.372e-22)
(0.8859 -0.2591 1.96e-21)
(1.003 -0.0003943 2.952e-22)
(1.033 0.06875 2.642e-21)
(1.077 -0.1223 -1.069e-23)
(0.9952 0.002609 0)
(1.002 0.01015 1.671e-21)
(-0.00042 -0.001074 -5.965e-24)
(-0.1138 0.03421 0)
(0.9961 0.01021 8.074e-21)
(0.4597 -0.06507 2.747e-21)
(1.007 -0.01858 6.595e-21)
(0.4331 0.0427 -5.217e-20)
(0.9789 -0.1823 0)
(1.074 -0.07396 -1.486e-20)
(1 -0.1926 0)
(0.9977 -0.005851 -5.133e-21)
(0.6815 -0.283 -3.524e-22)
(0.2657 -0.02096 2.044e-21)
(0.005601 -0.03188 -8.475e-22)
(-0.167 0.04655 2.911e-21)
(1.209 0.1917 3.928e-21)
(0.1926 -0.02114 -1.12e-21)
(0.92 -0.2195 -7.765e-22)
(0.7904 -0.2275 -1.017e-20)
(1.027 -0.1671 3.978e-21)
(0.1509 -0.01095 0)
(0.4756 -0.2732 3.567e-23)
(0.9934 -0.1755 1.12e-22)
(0.995 -0.004511 0)
(-0.0727 0.04412 -1.099e-23)
(1.015 -0.1058 -4.328e-21)
(0.6906 -0.1088 -2.898e-21)
(0.008556 -0.03128 -8.414e-23)
(0.2948 -0.07188 0)
(1.002 -0.000517 8.644e-22)
(0.9924 0.003061 -2.054e-20)
(1.074 0.4659 5.336e-22)
(0.01424 0.01977 1.105e-20)
(0.1836 -0.02003 2.646e-21)
(1.193 0.0736 2.529e-20)
(0.9101 -0.01456 -1.567e-21)
(0.9878 -0.144 0)
(0.3088 -0.02105 -3.471e-21)
(1.063 0.01587 2.362e-20)
(0.9263 -0.2172 5.37e-23)
(1.053 0.4523 0)
(0.01673 0.01609 -2.077e-20)
(0.914 -0.04164 4.777e-20)
(0.0457 -0.01316 -6.819e-24)
(0.3402 -0.00297 2.025e-21)
(1.183 0.5884 5.81e-21)
(-0.2009 0.07167 0)
(1.003 0.01002 -2.165e-21)
(0.8811 -0.07878 -8.691e-20)
(1.003 5.637e-06 0)
(0.9984 -3.004e-06 0)
(0.8413 -0.1359 0)
(0.707 -0.2715 -2.317e-21)
(1.017 -0.1778 -1.013e-21)
(-0.2012 0.07195 -2.187e-21)
(-0.09463 0.02825 -2.552e-20)
(1.109 -0.002496 -4.303e-20)
(0.9719 -0.1897 0)
(-0.06213 0.01138 3.082e-21)
(-0.08243 0.009869 1.617e-21)
(0.1995 0.1202 -1.346e-22)
(0.4507 -0.0627 -1.792e-21)
(-0.03066 0.007817 -4.061e-21)
(-0.06382 0.01339 6.976e-21)
(0.216 -0.02565 -2.161e-21)
(-0.07083 0.006005 0)
(0.2291 -0.025 1.79e-21)
(-0.1131 0.041 5.794e-21)
(-0.103 0.02371 -1.847e-21)
(-0.08228 0.009843 6.99e-21)
(0.9206 0.04715 0)
(-0.03658 0.009354 -1.054e-20)
(-0.1056 0.03072 -9.295e-21)
(1.235 0.4404 -3.305e-21)
(1.004 -0.005937 5.324e-21)
(0.3259 -0.0022 0)
(-0.2114 0.06641 -2.648e-21)
(0.8382 -0.05543 1.446e-21)
(0.4406 -0.06631 -3.818e-20)
(0.4412 -0.03113 0)
(0.4233 -0.03547 -2.764e-21)
(1.002 0.002338 1.498e-22)
(0.9911 0.01298 -1.385e-20)
(0.8931 -0.001366 0)
(-0.01938 0.003478 1.946e-21)
(0.9595 -0.001592 0)
(0.3901 -0.04461 5.407e-20)
(1.064 0.01362 -5.069e-20)
(0.1446 -0.01581 -2.713e-21)
(0.4171 -0.02955 3.348e-21)
(1.027 -0.02643 0)
(1.157 0.06465 -5.919e-22)
(0.2884 -0.02506 2.326e-21)
(0.00526 -0.008518 1.884e-26)
(-0.2095 0.06961 -1.379e-20)
(0.963 -0.004987 3.958e-21)
(0.288 0.001058 -6.769e-20)
(0.09298 -0.01198 3.957e-21)
(0.2449 -0.03106 0)
(0.9179 -0.2217 -3.277e-21)
(0.9887 0.03828 0)
(0.04677 -0.003391 0)
(0.9534 0.152 0)
(0.1237 -0.003967 0)
(-0.1681 0.0597 -1.699e-21)
(0.0644 0.03119 -5.336e-20)
(1.011 -0.006512 -4.203e-20)
(0.7592 -0.1998 0)
(-0.04439 0.01484 1.137e-21)
(0.4326 -0.1109 3.566e-22)
(0.3777 -0.03397 5.209e-21)
(0.2655 -0.01685 2.222e-21)
(0.7637 -0.202 -8.491e-21)
(0.3083 -0.01869 0)
(0.9194 0.04538 0)
(1.011 -0.01201 0)
(0.1282 -0.01089 -6.716e-22)
(1.001 0.004506 2.794e-21)
(-0.1061 0.03032 0)
(-0.06754 -0.009551 0)
(0.9587 0.1541 0)
(1.034 -0.1245 2.632e-21)
(-0.214 0.07345 -1.518e-20)
(0.928 -0.08515 7.133e-21)
(1 0.0005526 -8.01e-20)
(0.4367 -0.04515 0)
(0.6901 -0.3005 0)
(0.2162 -0.02843 -2.405e-21)
(0.9593 -0.1734 -6.282e-21)
(-0.221 0.07682 0)
(0.7711 -0.2826 0)
(-0.05169 0.01057 -6.96e-21)
(-0.1636 0.05135 -1.392e-20)
(0.1711 -0.03293 0)
(0.6809 0.08168 7.939e-21)
(0.5346 -0.2154 -1.185e-21)
(-0.1682 0.05849 0)
(-0.01951 0.006803 -1.739e-21)
(-0.0906 0.02735 0)
(1.003 0.0001655 -1.063e-22)
(-0.2048 0.06836 -8.663e-21)
(0.9144 0.2619 -5.214e-21)
(1.049 0.4352 3.666e-22)
(0.9268 -0.1624 -8.227e-21)
(-0.05573 0.003781 7.087e-21)
(0.9975 -0.117 5.03e-22)
(1.003 -0.0001926 0)
(-0.09378 0.02847 0)
(-0.0981 0.02334 0)
(1.2 -0.04291 1.106e-19)
(0.8243 0.1584 6.903e-22)
(1.002 0.002292 -5.05e-21)
(0.9949 -0.1537 2.52e-21)
(-0.0308 0.007302 -7.515e-21)
(0.9781 -0.03222 -1.436e-20)
(0.9975 -0.005805 0)
(0.9984 -0.0007951 -4.177e-21)
(0.4472 -0.03564 1.426e-21)
(1.086 -0.05225 -2.525e-20)
(0.7069 -0.277 3.328e-21)
(0.9608 0.03199 0)
(0.2104 -0.01521 -1.345e-22)
(0.9902 0.002283 4.693e-20)
(0.3452 -0.2334 0)
(0.878 -0.004746 -1.953e-21)
(-0.1408 0.001719 1.008e-21)
(-0.1561 0.05083 0)
(0.2851 -0.03711 -8.886e-24)
(1.05 -0.1255 -7.314e-21)
(-0.01963 0.003295 1.094e-20)
(0.859 0.08121 -5.148e-23)
(-0.1979 0.06784 -1.618e-21)
(0.1847 -0.02238 -1.137e-21)
(-0.06132 0.003344 0)
(-0.2087 0.07261 0)
(1.04 0.1305 4.407e-21)
(0.9738 -0.08312 3.271e-21)
(-0.05278 0.008848 7.445e-21)
(-0.07218 0.04622 0)
(0.3196 0.4831 -1.922e-20)
(-0.05905 0.00864 -8.589e-25)
(0.9924 -0.000888 0)
(1.003 0.02483 0)
(-0.08703 0.01739 0)
(-0.0363 0.01016 4.164e-21)
(0.9992 -0.0001431 0)
(-0.2019 0.06599 5.73e-21)
(1.211 0.07774 2.097e-20)
(1.088 -0.08587 -2.25e-20)
(0.03126 0.02002 -3.619e-21)
(1.021 -0.07873 -5.229e-21)
(1.004 -0.0001074 0)
(0.2229 -0.1298 -1.54e-20)
(1.207 0.07738 -2.024e-20)
(-0.07066 0.02452 -1.041e-21)
(-0.009532 0.01464 8.402e-22)
(0.1193 -0.06294 2.418e-22)
(0.3403 -0.2328 -1.791e-21)
(-0.04354 0.006235 1.985e-21)
(0.2957 -0.06968 0)
(0.6952 -0.2959 0)
(0.8556 0.1629 -6.839e-22)
(0.04594 0.01769 -6.663e-22)
(1.01 0.001941 3.437e-20)
(0.1987 -0.01699 -1.916e-21)
(0.9734 0.008978 3.969e-20)
(1.191 0.5296 1.89e-22)
(0.5575 -0.05519 2.823e-21)
(-0.07577 0.009442 0)
(1.241 0.4576 1.65e-21)
(-0.0001987 -0.001087 0)
(-0.1358 0.04265 1.034e-20)
(0.2694 0.3118 5.645e-21)
(1.096 -0.02428 -3.012e-22)
(0.9905 0.6999 5.808e-21)
(0.9948 -0.002423 -5.884e-20)
(0.1166 -0.06552 0)
(1.004 0.02491 1.303e-23)
(-0.1584 0.0476 0)
(-0.1641 0.05934 -5.96e-21)
(-9.627e-05 -0.0005831 0)
(0.001141 0.0003555 3.489e-23)
(0.000918 -0.0003421 -1.094e-23)
(1 -0.0002706 -2.941e-20)
(-0.03779 0.009724 0)
(0.3982 0.08859 0)
(0.9927 0.003203 3.999e-20)
(-0.2092 0.06974 3.874e-21)
(0.7276 -0.2687 4.087e-21)
(-0.1593 0.05237 9.756e-21)
(1.046 -0.1508 0)
(-0.1547 0.05007 0)
(0.2795 -0.0344 -1.693e-21)
(-0.2016 0.06596 -5.813e-21)
(-0.00633 0.001187 4.644e-22)
(0.9976 -0.0005737 0)
(-0.1176 -0.008606 -1.311e-21)
(-0.0003374 0.000104 0)
(0.482 -0.197 7.487e-22)
(0.2099 -0.02046 8.167e-22)
(-0.02108 0.006041 4.026e-22)
(1.011 -0.007944 -1.27e-20)
(1.08 -0.1137 -3.846e-21)
(0.994 -0.04432 -2.892e-21)
(-0.06352 0.04498 1.57e-20)
(0.9996 -0.004439 0)
(0.1754 -0.01362 0)
(0.283 0.1333 0)
(-0.05534 0.01877 -1.829e-21)
(0.9983 1.851e-05 0)
(-0.08692 0.01738 -8.735e-21)
(1.059 -0.09809 -1.068e-20)
(-0.002987 -0.0006409 6.684e-26)
(0.6641 -0.2987 1.758e-21)
(0.1983 0.0593 5.7e-22)
(-0.06115 0.04719 -4.96e-21)
(0.9715 0.001693 2.608e-21)
(-0.1061 0.03695 -1.589e-21)
(0.7775 -0.2909 -2.559e-21)
(0.9991 -0.0001433 3.308e-21)
(0.9192 -0.2213 4.402e-21)
(0.8022 0.09697 -3.277e-20)
(0.2894 -0.02395 -1.857e-21)
(0.4545 -0.03063 2.183e-21)
(-0.03295 0.009205 -4.094e-21)
(-0.05283 0.01803 8.165e-22)
(-0.1668 0.05953 3.004e-21)
(1.071 0.1829 0)
(0.5859 -0.2331 1.043e-21)
(-0.174 0.05921 0)
(-0.09818 0.02979 1.937e-22)
(1.018 -0.002647 -6.683e-21)
(0.137 -0.004906 2.209e-22)
(-0.1376 0.04257 -5.876e-21)
(0.2079 -0.03314 2.894e-21)
(0.8802 -0.09443 -6.448e-21)
(-0.1884 0.05691 2.957e-21)
(1 0.001163 0)
(0.9998 0.001471 1.39e-20)
(0.8686 0.2086 -2.057e-20)
(-0.02961 0.007392 -1.939e-21)
(0.9691 0.7337 0)
(0.9913 0.003832 -2.726e-20)
(1.003 -3.817e-06 -4.806e-22)
(0.7908 -0.2833 0)
(0.3796 -0.1669 0)
(-0.2149 0.07409 4.808e-21)
(0.6937 -0.2964 0)
(-0.04794 0.01637 2.862e-21)
(-0.01777 0.005872 0)
(0.9704 -0.2132 -7.731e-23)
(1.008 0.03208 0)
(1 -0.0003719 5.626e-21)
(-0.0605 0.02144 1.607e-21)
(-0.193 0.0622 -5.084e-21)
(0.8542 -0.2005 1.182e-22)
(1.002 -0.0009937 9.482e-21)
(-0.01807 0.0003522 9.461e-22)
(0.9588 -0.0944 0)
(-0.07418 0.02173 7.271e-21)
(0.9633 -0.003798 9.031e-21)
(0.1404 -0.01661 2.314e-22)
(0.9912 0.003579 5.004e-20)
(-0.2158 0.07428 -2.543e-21)
(-0.07493 -0.01331 0)
(0.03126 0.03921 9.442e-22)
(1 -7.517e-06 2.418e-22)
(-0.08798 0.02914 -6.059e-21)
(-0.1515 0.05665 -1.447e-21)
(0.051 -0.03153 -3.08e-21)
(1.004 -9.911e-05 -1.369e-21)
(0.7659 -0.1218 2.352e-21)
(-0.01739 0.005823 2.03e-22)
(0.9984 -0.0008702 0)
(1.036 -0.1258 0)
(0.9929 0.008797 -8.996e-22)
(0.567 -0.03609 2.864e-21)
(0.003299 0.01413 0)
(0.9953 0.002431 2.78e-20)
(-0.02436 0.006329 9.179e-21)
(0.3235 -0.04453 1.41e-21)
(0.007707 -0.0341 0)
(-0.06442 0.009103 -1.094e-20)
(-0.06446 0.01363 -2.675e-21)
(0.2422 -0.02552 -5.36e-21)
(0.2531 -0.02959 -1.653e-21)
(0.1862 -0.03168 -2.067e-20)
(0.4654 -0.04338 -1.223e-21)
(1.145 0.7092 7.499e-22)
(0.4895 -0.02051 -2.529e-21)
(-0.1138 0.03229 -2.04e-21)
(-0.04126 0.008006 -3.559e-21)
(0.1694 -0.01518 9.265e-22)
(1.002 -0.0009625 0)
(0.3078 -0.06368 2.399e-22)
(0.994 0.002842 -1.145e-20)
(0.215 0.1381 -1.59e-20)
(1.036 0.02183 4.059e-20)
(-0.0734 0.01338 1.879e-20)
(1.003 -0.0002267 0)
(0.9959 0.01004 2.085e-20)
(1.112 -0.07802 2.56e-20)
(0.5436 -0.2197 6.141e-22)
(-0.1026 0.02949 9.962e-21)
(1.003 -0.0004997 8.3e-21)
(1.002 -0.001295 -1.303e-20)
(-0.07322 0.02478 -1.659e-21)
(0.01764 0.003989 0)
(-0.02358 0.005663 4.018e-21)
(0.2045 -0.01673 -3.173e-21)
(-0.1951 0.02963 0)
(0.7066 -0.276 -3.059e-21)
(-0.1597 0.05207 -1.214e-21)
(0.6884 -0.3009 0)
(-0.08251 0.009889 -2.235e-22)
(-0.08013 0.02472 -1.805e-20)
(-0.03792 0.002947 0)
(1.003 -0.0005268 -1.462e-21)
(-0.06536 0.003283 7.045e-21)
(-0.08266 0.009783 8.702e-22)
(1.026 -0.1615 -9.904e-22)
(1.202 0.1381 0)
(0.9996 -0.004278 -1.214e-20)
(1.003 -2.312e-06 4.688e-23)
(0.04033 0.01705 -1.929e-20)
(0.1781 -0.1008 2.455e-24)
(0.0455 0.01893 3.355e-21)
(-0.009097 0.002801 3.48e-22)
(1.035 0.02265 0)
(1.004 -3.136e-05 8.682e-23)
(-0.1379 0.04424 0)
(-0.06075 0.004824 0)
(0.9349 0.003619 -8.5e-20)
(-0.03199 0.003574 -1.983e-21)
(1.025 -0.137 0)
(0.9907 0.008335 -2.399e-20)
(-0.06305 0.01939 6.681e-21)
(0.9527 -0.2269 -1.586e-22)
(-0.08237 0.009789 5.654e-21)
(0.8385 -0.1659 -3.306e-20)
(0.0002244 -7.176e-05 0)
(-0.02892 0.009675 0)
(-0.2098 0.07299 -1.437e-21)
(-0.1972 0.06825 3.042e-21)
(-0.1147 0.03416 0)
(-0.05615 0.008139 6.934e-21)
(0.1594 -0.02229 -5.161e-22)
(-0.03873 0.005648 0)
(0.9695 -0.02573 -9.3e-21)
(-0.07828 0.006397 1.38e-20)
(-0.008133 -0.01858 0)
(-0.1072 0.03106 -1.293e-20)
(1.002 -0.0009397 2.988e-20)
(0.5338 -0.08279 -2.284e-21)
(0.8517 -0.2285 0)
(0.5547 0.01501 -2.772e-20)
(0.9983 2.55e-06 3.358e-23)
(1.002 -0.0009722 -3.98e-20)
(0.00295 -0.004865 0)
(1.096 -0.02184 -7.367e-21)
(0.35 -0.06685 9.432e-22)
(-0.06512 0.008591 -4.694e-22)
(0.4971 -0.2785 0)
(-0.07403 0.04365 1.819e-20)
(1.183 0.2164 0)
(0.1793 -0.0147 9.355e-22)
(0.6838 -0.006899 4.465e-20)
(0.4391 -0.1197 0)
(1.009 0.00171 -1.243e-20)
(1.003 -0.000562 0)
(1.196 0.4106 0)
(0.9236 0.2635 0)
(-0.02155 0.004071 4.787e-22)
(0.5617 0.002492 0)
(0.2395 -0.09831 2.075e-21)
(-0.2023 0.05146 0)
(0.4504 -0.1883 -1.652e-21)
(1.181 -0.02737 1.282e-19)
(0.4997 -0.06969 5.564e-20)
(1.001 3.017e-05 -7.63e-23)
(0.2359 -0.01507 -6.203e-22)
(1.023 -0.07787 -8.484e-22)
(0.4001 -0.09341 -5.444e-23)
(-0.0002269 -0.001181 5.842e-24)
(0.935 -0.1468 8.045e-22)
(0.08454 0.02192 -2.131e-20)
(-0.2096 0.06977 1.381e-20)
(1.001 2.647e-06 -2.301e-22)
(0.8037 -0.08598 1.172e-22)
(0.4131 -0.03498 -3.615e-21)
(-0.01611 0.005516 0)
(-0.1052 -0.01461 8.074e-21)
(-0.09889 0.04206 1.003e-20)
(-0.08253 0.009857 -3.409e-21)
(0.5423 0.4656 0)
(-0.1632 0.05108 1.335e-20)
(0.4411 -0.2385 2.86e-21)
(-0.1774 0.05042 -1.828e-21)
(0.475 -0.1166 5.618e-23)
(0.7368 -0.07841 3.45e-21)
(1.026 -0.1072 2.054e-21)
(-0.1877 0.06465 4.786e-21)
(1.001 -0.1725 -1.488e-21)
(0.001218 -7.264e-05 0)
(0.849 -0.2297 0)
(0.9411 0.04232 3.298e-20)
(0.7368 -0.1687 5.132e-23)
(0.6587 -0.2851 2.653e-21)
(0.5638 -0.05862 -8.021e-22)
(1.005 -0.0005413 0)
(-0.03833 -0.01306 -9.975e-22)
(-0.1073 0.04106 -1.16e-20)
(-0.2156 0.07437 -4.513e-21)
(1.004 -1.938e-05 -1.424e-22)
(-0.0089 0.003331 0)
(-0.09594 0.02986 0)
(0.141 -0.01847 3.922e-21)
(1.002 3.227e-05 4.595e-22)
(-0.03617 0.005474 4.141e-21)
(-0.1388 0.04413 0)
(-0.03327 0.00616 7.543e-21)
(-0.0692 0.006222 -5.31e-21)
(1.002 -2.11e-05 -3.938e-22)
(-0.2177 0.07525 -7.43e-21)
(-0.006076 -0.001933 0)
(-0.03648 0.01089 7.469e-21)
(-0.1022 0.02837 0)
(0.9896 0.0142 -5.466e-21)
(-0.06096 0.01143 2.824e-21)
(0.04302 0.1226 0)
(1.018 0.002453 -1.343e-20)
(0.9796 -0.1827 -1.01e-21)
(0.9807 -0.2005 0)
(-0.0579 0.008024 -7.127e-21)
(-0.1372 0.04269 0)
(0.9203 -0.218 -2.567e-21)
(0.9241 -0.1454 0)
(0.1026 -0.01294 5.659e-22)
(-0.09101 0.02901 0)
(0.9988 -1.272e-05 -4.568e-22)
(-0.2178 0.07527 7.112e-21)
(-0.1921 0.06832 7.259e-22)
(0.1215 -0.009584 0)
(0.2364 -0.03296 1.823e-21)
(1.177 0.1619 0)
(-0.2084 0.06922 0)
(-0.05597 0.01909 2.11e-22)
(0.9986 9.817e-06 1.832e-22)
(-0.1643 0.05459 -9.76e-21)
(-0.06373 0.01883 0)
(-0.01974 0.01346 0)
(0.0002557 -0.008457 -6.394e-24)
(-0.01412 0.01443 -3.097e-21)
(-0.05618 0.01953 2.86e-21)
(-0.07884 0.01726 -2.743e-21)
(-0.1572 0.03747 0)
(0.9628 -0.2193 0)
(1 -0.0002629 1.441e-20)
(3.517e-05 -1.417e-05 -4.151e-24)
(-0.1357 0.0423 1.189e-20)
(-0.06643 0.009652 1.065e-20)
(-0.04476 0.01599 8.438e-22)
(-0.2177 0.07576 -1.021e-20)
(-0.112 0.03878 6.371e-21)
(-0.1255 0.04089 -2.997e-21)
(0.3457 -0.02613 0)
(1 -0.0003471 0)
(-0.1099 0.02264 0)
(1.069 -0.1297 -1.911e-23)
(1.002 -3.71e-06 0)
(-0.1073 0.03387 -9.637e-21)
(1.195 0.5295 0)
(0.7221 -0.1105 2.213e-21)
(0.7711 -0.2756 -1.25e-21)
(1.004 -5.577e-05 -5.499e-21)
(-0.1608 0.05279 0)
(-0.08066 0.01015 0)
(1.009 0.00198 -4.007e-20)
(1.004 -6.211e-05 0)
(1.197 0.1354 0)
(-0.1805 0.06743 5.781e-21)
(-0.1954 0.03068 -2.277e-21)
(-0.1141 0.03967 3.009e-21)
(-0.217 0.07479 6.769e-21)
(0.0316 0.0006434 5.897e-24)
(1.054 -0.1378 0)
(0.6963 -0.1592 -2.466e-20)
(1.002 -0.0009849 0)
(-0.1932 0.06265 -6.949e-21)
(-0.1766 0.06136 0)
(0.2913 -0.01729 -1.864e-21)
(0.1696 -0.01363 0)
(0.6845 -0.2284 -1.432e-20)
(1.003 -0.0003112 0)
(1.011 -0.007564 1.88e-21)
(0.9921 0.00179 2.956e-20)
(-0.01736 -4.784e-05 1.014e-21)
(1.002 -0.0009257 5.249e-21)
(1.17 -0.04132 -4.88e-20)
(0.2061 -0.1238 5.547e-22)
(0.8111 -0.104 4.442e-21)
(0.1091 -0.01806 -1.907e-21)
(1.002 -0.001221 0)
(-0.1162 0.005314 -1.88e-21)
(0.7966 -0.09642 -2.884e-21)
(1.001 0.005712 0)
(0.2206 -0.02601 1.997e-21)
(0.9993 -0.0001714 0)
(0.5563 -0.2836 4.534e-21)
(-0.004842 0.01883 -1.761e-21)
(-0.05142 0.006534 -1.003e-22)
(0.2922 0.04402 0)
(0.09502 -0.002224 2.268e-22)
(0.9999 -0.005873 4.248e-22)
(-0.03317 0.009262 0)
(0.8304 -0.1755 -8.7e-21)
(0.1811 -0.01306 0)
(0.002479 -0.02046 -7.72e-22)
(0.1675 -0.01996 8.838e-22)
(0.4037 0.5628 -1.12e-21)
(1.175 0.1635 -7.955e-21)
(1.003 -0.1814 8.805e-22)
(0.7525 -0.2656 5.26e-23)
(0.03009 -0.002113 0)
(0.9995 0.006857 0)
(0.342 0.03479 3.494e-20)
(0.3799 -0.1225 0)
(0.3221 0.08061 2.511e-22)
(-0.007768 -0.01777 3.73e-22)
(0.06188 -0.01116 0)
(1.003 -0.00029 0)
(1.089 -0.1113 3.725e-20)
(-0.05998 0.02054 -7.725e-22)
(0.1187 -0.02897 -3.376e-22)
(-0.007652 0.0001503 3.799e-21)
(0.5967 0.1396 0)
(0.003827 -0.00387 -3.538e-22)
(0.2696 0.06117 -9.426e-22)
(-0.001331 -4.435e-05 1.074e-21)
(-0.06119 0.01645 -5.962e-21)
(-0.04928 0.0172 1.799e-21)
(-0.1022 0.02294 5.203e-21)
(0.05222 -0.003874 7.719e-22)
(1.001 0.03824 -4.142e-23)
(0.6592 -0.09578 0)
(1.003 1.253e-05 0)
(1 -1.263e-05 0)
(-0.084 0.01361 9.939e-21)
(1.04 0.04259 1.319e-21)
(-0.07409 0.00888 7.889e-21)
(-0.209 -0.03993 -1.987e-20)
(0.2482 0.4901 0)
(1.096 -0.1014 -1.681e-20)
(1.048 -0.03746 -2.528e-20)
(0.9511 0.4204 1.993e-21)
(0.7051 -0.1636 1.762e-24)
(1.011 -0.00642 2.947e-20)
(0.03634 0.0194 1.53e-22)
(-0.1848 0.06361 -2.219e-21)
(1.046 -0.0355 3.476e-20)
(-0.02101 0.004967 -9.854e-21)
(-0.00742 0.002649 -7.302e-22)
(-0.06157 -0.01373 0)
(0.9688 -0.2007 0)
(0.06104 -0.02902 -5.196e-21)
(-0.08054 0.03399 0)
(-0.09566 0.03327 0)
(0.9956 -0.001053 2.301e-20)
(-0.0742 0.009486 6.099e-21)
(0.4092 -0.09377 6.625e-23)
(1.004 -0.005756 0)
(-0.02787 0.007125 4.603e-21)
(-0.1421 0.04363 0)
(-0.1643 0.06282 -2.777e-21)
(0.9993 -0.0001271 1.547e-21)
(0.8636 -0.003599 4.797e-21)
(0.1728 0.0002398 0)
(0.02354 0.001004 1.165e-23)
(0.8261 -0.2759 -3.141e-21)
(-0.007357 0.002404 0)
(-0.1933 0.06329 5.977e-21)
(0.6879 -0.3004 0)
(0.7762 -0.1731 2.584e-23)
(-0.01201 0.004097 0)
(-0.06144 0.004276 1.775e-21)
(1 -6.18e-06 -7.454e-23)
(0.1623 -0.09509 0)
(1.129 0.3342 -9.227e-21)
(1.003 1.198e-05 0)
(0.7364 -0.282 1.043e-22)
(0.00124 -0.0005075 4.917e-23)
(0.1999 0.01963 -1.004e-20)
(0.02265 0.007994 -5.222e-21)
(1.14 -0.04778 7.304e-21)
(1.035 -0.1621 7.639e-22)
(-0.0057 0.001856 4.581e-26)
(0.01678 -0.001648 -1.454e-22)
(0.3459 -0.03787 0)
(1.007 0.03173 -5.108e-21)
(0.9974 0.002978 6.168e-21)
(0.9789 -0.1908 0)
(0.6589 -0.2897 -1.099e-21)
(-0.1451 0.04835 -1.314e-20)
(-0.02394 0.005542 0)
(0.2808 0.7056 -4.477e-21)
(0.2042 -0.08589 -1.134e-21)
(0.3554 0.005337 -1.112e-22)
(1.132 0.1453 -1.86e-20)
(0.1998 -0.08347 -1.094e-21)
(1.119 0.0005 4.675e-20)
(-0.02247 0.001693 0)
(1.005 0.0002072 0)
(-0.2222 0.07734 7.126e-22)
(0.006359 -0.03239 -2.413e-23)
(-0.09359 0.02255 -2.51e-20)
(-0.07998 0.02448 0)
(-0.1946 0.06264 0)
(0.9963 0.0015 -1.894e-20)
(0.9847 -0.001594 1.303e-20)
(-0.05364 0.01885 0)
(0.94 -0.1893 5.627e-21)
(-0.1245 0.0428 0)
(0.3796 -0.0481 0)
(-0.08447 0.03058 -3.005e-21)
(-0.2091 0.06279 -2.599e-21)
(0.1483 0.02736 -2.664e-21)
(0.06279 0.01979 -1.836e-21)
(-0.06663 0.004629 -8.381e-21)
(0.02921 -0.004367 -8.785e-22)
(-0.07607 0.0101 -6.706e-21)
(0.248 -0.017 1.258e-21)
(-0.05309 0.0161 6.21e-21)
(1.042 -0.1285 -5.521e-21)
(-0.2142 0.07244 6.905e-21)
(0.3882 0.8971 2.333e-22)
(-0.1161 0.04016 -1.841e-22)
(0.00497 -0.03009 1.044e-22)
(-0.0002027 -6.442e-06 0)
(-0.1946 0.06247 0)
(1.005 -0.0005141 0)
(1.004 -0.002 1.951e-20)
(-0.2158 0.07483 5.092e-21)
(-0.2037 0.06844 0)
(1.025 -0.1647 6.32e-21)
(1.003 1.801e-05 0)
(0.6554 -0.3019 -3.099e-21)
(-0.159 0.05169 6.322e-21)
(1.12 -0.07086 -2.107e-20)
(-0.09474 0.03209 0)
(0.1045 0.02288 -3.302e-20)
(-0.0785 0.02516 -7.307e-21)
(1.076 0.5864 -9.388e-21)
(0.9999 0.0005408 -5.095e-20)
(1.006 -0.1698 0)
(1.139 -0.03078 -1.303e-20)
(0.1257 -0.04922 0)
(0.1553 -0.01134 0)
(-0.1205 0.03555 1.065e-21)
(0.7214 -0.2078 1.308e-20)
(0.3513 0.03794 5.971e-20)
(-0.02176 0.003814 0)
(0.361 -0.03025 -1.124e-21)
(1.005 -0.07425 0)
(-0.1995 0.05582 0)
(0.6466 -0.2991 3.329e-21)
(0.5543 -0.06357 3.322e-21)
(-0.1646 0.05701 0)
(0.1968 -0.08544 -1.283e-21)
(1.006 -0.00853 -9.674e-22)
(-0.0134 0.004804 0)
(-0.006468 0.002051 0)
(-0.1904 0.06772 0)
(-0.06801 0.009335 1.597e-20)
(0.03808 -0.006184 -7.201e-21)
(1.001 0.01384 1.189e-21)
(-0.003598 0.000922 1.666e-21)
(0.03352 -0.006069 0)
(1.001 -0.0001692 0)
(0.9996 -5.815e-05 -1.118e-20)
(-0.07863 0.008762 2.926e-25)
(-0.1088 0.03171 3.15e-20)
(0.0004037 -0.000189 -4.96e-23)
(-0.0007507 -0.02857 3.86e-22)
(0.6815 -0.09893 -6.186e-22)
(0.4422 -0.1646 0)
(-0.0738 0.02413 -6.627e-21)
(1.014 -0.166 0)
(1.055 -0.1342 0)
(1.002 -0.005432 -5.753e-22)
(-0.06504 0.02171 -9.916e-21)
(-0.1316 -0.02212 0)
(-0.0943 0.03178 -7.538e-21)
(0.9854 -0.2037 0)
(-0.006133 0.001179 2.171e-22)
(-0.2014 0.06976 -1.302e-20)
(1.002 -0.0007879 -6.012e-22)
(0.03182 -0.004291 0)
(-0.1268 0.04256 -5.41e-21)
(1 -0.0006708 -4.578e-20)
(-0.0448 0.006416 -3.221e-21)
(1.001 -0.0001775 -4.501e-21)
(0.9967 -0.002126 1.813e-20)
(0.9867 -0.1351 1.597e-21)
(0.9969 -0.1462 0)
(-0.006162 0.0008781 -5.506e-21)
(1 -0.00134 4.328e-21)
(0.2231 -0.0259 -2.565e-22)
(1.003 0.004287 0)
(1.167 0.5372 0)
(1.007 -0.1327 2.907e-21)
(0.03319 0.007728 6.375e-21)
(1.074 -0.1222 -4.117e-21)
(0.2978 -0.05917 -1.202e-22)
(0.3295 -0.04713 0)
(-0.059 0.0172 1.383e-20)
(0.8939 -0.09976 5.948e-21)
(1.002 -0.002163 4.721e-21)
(1.014 0.007112 2.31e-20)
(-0.0919 0.02163 1.293e-20)
(0.5514 -0.1027 4.009e-22)
(-0.11 0.03806 -7.552e-22)
(-0.08008 0.02616 0)
(0.07878 -0.004995 2.434e-25)
(-0.06419 0.0208 -3.571e-21)
(-0.007198 0.002339 -6.392e-21)
(-0.06186 0.008982 1.362e-20)
(0.4336 -0.1207 0)
(-0.03127 0.002528 -1.088e-20)
(0.2982 -0.03196 -5.49e-22)
(0.1018 -0.01461 0)
(0.821 0.3801 3.114e-21)
(-0.07145 0.02682 0)
(1.003 -0.00597 3.473e-21)
(-0.02654 0.005214 1.537e-20)
(-0.03714 -0.001509 1.29e-21)
(0.1646 -0.02677 0)
(0.998 4.021e-06 3.495e-21)
(0.3151 -0.2099 3.633e-21)
(-0.1716 0.05895 0)
(0.6904 -0.06484 5.483e-22)
(0.7254 -0.2016 2.275e-22)
(-0.08111 0.009856 -9.145e-22)
(1.065 -0.1298 -5.12e-21)
(-0.01504 0.003263 0)
(-0.1343 0.05575 4.58e-21)
(0.6981 -0.0658 1.644e-21)
(-0.08907 0.029 -9.349e-23)
(0.2949 -0.08153 -9.7e-22)
(0.00324 -0.02137 8.061e-22)
(1.001 -0.0003625 0)
(1.052 -0.0678 -5.058e-21)
(-0.02771 0.004985 0)
(0.9991 -0.006462 0)
(-0.03621 0.007901 0)
(-0.03792 0.00383 9.286e-22)
(0.999 -1.018e-05 1.826e-21)
(0.9747 -0.2103 -2.196e-23)
(-0.03667 0.006904 0)
(1.029 -0.0159 0)
(0.8396 0.3822 -1.332e-20)
(-0.05985 0.03011 0)
(0.04002 -0.0108 0)
(1.028 -0.1427 -6.74e-21)
(1.004 2.074e-05 -1.1e-22)
(-0.04264 0.01079 -2.085e-22)
(-0.08773 0.02632 -4.217e-22)
(1.011 -0.001999 2.475e-20)
(0.8957 0.3438 5.661e-21)
(1.041 0.08626 6.245e-21)
(-0.1644 0.0534 9.318e-21)
(-0.05003 0.01413 -6.903e-21)
(1.01 -0.1776 -1.332e-21)
(1.048 -0.03142 0)
(-0.01073 0.001497 -1.912e-22)
(-0.001774 0.0005989 1.809e-22)
(0.3197 -0.06816 -4.055e-24)
(0.4193 -0.06715 -1.625e-21)
(-0.2022 0.06821 -3.318e-21)
(0.05232 -0.004372 0)
(0.9935 -3.48e-05 -3.585e-21)
(0.5016 -0.05377 3.33e-21)
(1.004 0.005617 2.087e-22)
(-0.1812 0.05713 0)
(0.6018 -0.2892 -3.33e-21)
(-0.04456 0.007576 0)
(0.718 -0.1995 1.983e-21)
(0.007801 -0.01332 -2.063e-22)
(-0.008638 0.001289 0)
(0.9993 0.002217 -1.226e-20)
(-0.002064 0.0007601 0)
(-0.04077 0.01311 0)
(-0.03919 0.01142 3.641e-21)
(0.8334 -0.06905 5.11e-21)
(0.4447 0.145 0)
(-0.1533 0.05827 -3.817e-21)
(-0.07446 -0.01089 8.499e-21)
(0.1383 -0.009961 0)
(0.7685 -0.1078 0)
(0.8828 0.002352 -8.059e-20)
(0.007954 -0.0003989 1.827e-22)
(-0.1932 0.06581 3.32e-21)
(0.3912 -0.02783 0)
(0.2323 -0.05067 2.528e-22)