/*--------------------------------*- C++ -*----------------------------------*\
  =========                 |
  \\      /  F ield         | OpenFOAM: The Open Source CFD Toolbox
   \\    /   O peration     | Website:  https://openfoam.org
    \\  /    A nd           | Version:  8
     \\/     M anipulation  |
\*---------------------------------------------------------------------------*/
FoamFile
{
    version     2.0;
    format      ascii;
    class       volScalarField;
    location    "15";
    object      k;
}
// * * * * * * * * * * * * * * * * * * * * * * * * * * * * * * * * * * * * * //

dimensions      [0 2 -2 0 0 0 0];

internalField   nonuniform List<scalar> 
127143
(
2.521e-13
9.884e-13
1.749e-11
9.019e-11
4.055e-11
9.564e-11
1.238e-09
2.25e-10
1.132e-10
1.791e-10
1.918e-09
3.101e-10
1.353e-10
1.569e-10
0.0001507
4.916e-09
6.693e-11
0.06417
0.03641
5.541e-08
0.01095
2.705e-06
0.0001534
3.894e-05
2.44e-06
2.036e-06
4.882e-07
5.722e-07
1.266e-06
0.06848
2.666e-05
2.139e-06
4.812e-07
5.247e-05
0.0001506
4.668e-07
0.008982
0.05113
5.287e-05
1.914e-06
0.03659
0.0001523
0.000152
1.016e-09
0.06274
6.012e-05
1.143e-06
0.01513
2.77e-05
5.208e-05
1.142e-08
0.0001492
0.01759
0.0001533
0.0001395
1.641e-05
0.0001394
0.0001661
0.0001467
0.0001532
0.0001522
0.02134
6.152e-05
0.0001482
0.0004511
0.0001562
0.0001508
6.327e-05
6.311e-05
0.000255
3.587e-05
1.017e-06
0.03541
0.0001467
0.0001458
1.175e-06
0.0001471
0.006789
1.629e-05
0.000149
1.137e-06
5.398e-08
0.0003556
3.998e-06
0.03198
0.008157
5.553e-05
2.003e-07
0.0001555
0.0001303
0.0001469
0.004458
0.0001837
0.01109
0.004922
0.0001711
0.0001523
1.346e-05
0.009208
0.0001507
0.0001489
2.901e-05
4.756e-05
0.0001427
0.008537
0.008896
4.61e-05
0.0002561
0.000159
0.0001424
0.000171
1.759e-07
0.00817
0.0001572
0.0001454
0.0001653
0.0001472
0.0001459
0.000147
1.818e-07
0.0001425
0.0004118
0.0001383
0.0001606
1.307e-06
7.287e-07
0.01607
0.0001481
0.007332
1.41e-05
0.004552
0.004213
5.99e-05
0.006967
2.183e-09
0.004754
0.0001549
0.01439
3.471e-06
0.0001529
0.0001537
0.0001465
0.01807
0.02304
0.01815
0.0001842
5.008e-06
0.0001483
0.003934
2.566e-05
0.0001148
3.24e-05
0.04729
0.0001514
0.0002124
0.03207
0.0001661
1.382e-05
0.01539
7.879e-06
4.36e-05
8.032e-09
0.0001469
0.004573
2.954e-06
0.0006763
0.006217
0.0001542
1.968e-05
0.0001486
0.002503
0.02284
0.0001636
0.0001478
0.0007805
0.02359
0.0001776
0.007447
4.395e-05
0.0001554
0.0001481
0.0001548
0.02442
0.02379
1.461e-05
0.02186
0.0001509
0.0001569
4.34e-05
0.0001543
0.009831
0.006401
0.0001545
0.0002008
1.137e-09
0.01712
0.0001287
0.000128
6.196e-09
0.0001456
0.0001451
0.0001488
0.009989
0.009697
7.049e-10
6.817e-05
0.0001526
0.0001151
0.0654
0.0001454
0.0003041
0.03047
0.0001447
2.083e-05
0.002795
1.973e-09
0.0003142
0.0001203
0.005954
0.0001527
0.0001714
0.0001462
3.225e-05
0.02067
7.452e-06
0.0017
6.263e-06
0.05154
0.004491
0.01238
0.01045
0.0001546
0.0357
2.122e-06
0.01058
0.0001563
0.004567
6.895e-12
0.0001451
0.01098
0.006739
0.0005683
0.02214
1.378e-05
0.04407
2.15e-07
4.179e-05
6.636e-07
1.206e-07
0.0003105
0.0001574
2.476e-06
0.000122
0.01531
2.388e-05
0.00016
0.0001481
3.494e-05
0.0001664
0.0001503
0.01771
0.0001514
0.002055
0.0001464
0.02524
0.0005128
0.001078
0.0002003
0.0001538
0.000246
4.98e-06
0.0007708
0.01867
0.01052
5.881e-05
0.01038
0.008336
3.518e-05
0.001512
0.0001716
0.0002603
0.0001934
0.0001431
0.0001455
0.0001454
1.013e-09
0.004333
0.0001454
3.602e-05
0.000156
0.0463
0.0001562
0.0001562
0.000162
0.0001451
0.0001667
2.719e-05
0.01332
0.02205
0.0002222
1.093e-05
0.000157
0.0001537
0.0001659
5.755e-06
0.0001934
0.0001152
0.0001448
0.03414
8.172e-05
4.454e-05
0.005182
1.206e-05
0.0002228
0.0001453
0.0001415
0.04388
1.124e-05
0.0001572
0.008195
0.0001532
3.455e-05
0.0001508
0.0001216
0.0001363
0.03882
0.0001498
0.01516
3.68e-05
0.0001693
0.01687
0.0001454
0.0001506
0.0001288
0.0001281
0.0001513
0.0001592
0.0001637
0.01687
0.003797
0.000153
0.00012
0.0209
0.01123
0.0001597
3.592e-05
0.001241
0.007104
1.197e-05
0.004127
1.628e-05
0.03535
0.02137
0.01075
0.000149
0.001471
0.01505
0.0001792
0.0001483
3.603e-05
0.02228
5.97e-05
0.05981
5.632e-05
5.266e-05
0.0001468
0.0001456
0.004562
0.000393
0.00149
0.0001538
0.0001509
4.762e-06
5.213e-05
0.0001536
0.0001529
2.726e-05
8.386e-06
0.01017
0.001613
0.05787
9.846e-07
1.77e-05
0.0001568
0.0001472
1.035e-07
0.0001499
2.379e-06
0.01647
0.05056
0.0001457
0.0001526
0.003558
2.631e-05
4.315e-05
2.509e-05
0.0001526
3.454e-05
0.000149
0.0001512
3.309e-06
0.0001462
0.01211
0.02484
0.0001499
9.969e-05
0.009229
6.071e-05
0.000149
4.834e-05
0.0001813
1.076e-05
0.0001538
0.01535
0.0001536
0.00514
0.007862
4.63e-06
0.03237
5.858e-05
0.006549
1.02e-05
0.00217
0.0002541
0.01206
0.0001505
0.0001519
0.0001523
0.0007572
0.0001526
0.0001412
0.002157
0.02028
0.01168
0.0009746
0.0001468
0.0001009
0.001654
0.000149
0.0001451
0.0001453
5.675e-05
0.000155
0.0001615
0.0001478
1.438e-05
0.0001453
0.0001467
0.004945
0.03055
0.01021
2.205e-05
0.0001075
0.000245
0.0001498
0.01217
9.544e-06
0.0008569
0.01136
0.006521
6.352e-05
0.01336
0.03239
0.0001539
0.01256
0.0005894
0.000146
0.01338
0.0007876
0.0001386
0.01104
0.0006213
0.0001607
0.04572
0.0001524
0.0001347
0.0002177
0.0004062
0.001933
0.03089
1.574e-06
0.0001607
0.001182
1.245e-05
0.0001784
0.0009557
0.03936
0.0001446
1.285e-05
0.0001465
0.0001809
5.716e-05
0.01539
0.0001849
6.784e-09
0.003907
0.0001543
0.0001588
0.0001548
0.0001448
1.314e-06
0.0001461
0.01977
0.01782
3.654e-11
9.989e-09
1.357e-07
0.000147
0.001559
0.0009149
0.0001453
0.02157
0.000116
0.004491
0.0001457
0.009896
2.196e-05
0.01113
7.939e-06
0.0005052
0.02982
6.275e-07
4.634e-05
1.274e-05
0.003327
0.0001464
0.0001186
0.005968
0.03407
0.0001459
1.037e-05
9.707e-06
0.002954
0.0001303
0.01324
0.0001559
0.001477
0.000181
1.152e-05
0.03515
0.0001467
0.003673
0.0001773
0.0001387
0.0001569
0.02193
3.256e-05
5.661e-05
0.0006715
0.0002361
0.01695
0.0007266
7.321e-05
0.00546
0.002331
0.000146
3.358e-06
0.005354
8.298e-06
5.707e-05
0.02087
0.0001483
0.0001479
0.0001503
0.001161
0.0001561
0.0001453
0.0001472
0.0001718
2.629e-05
0.00946
0.0001784
0.0002579
6.684e-06
0.0001683
0.0001467
0.0001426
0.002253
0.009757
8.173e-05
0.0001614
1.416e-06
6.321e-05
0.002906
0.001584
4.199e-06
0.0001453
0.009712
0.02613
0.04657
0.0001406
0.001197
0.0178
8.827e-08
0.0001346
4.729e-05
0.0003504
0.0001453
9.997e-05
0.0001454
6.704e-05
0.035
0.0001455
0.0005489
2.322e-05
0.006241
0.004813
0.02232
1.703e-05
1.827e-05
0.0001858
5.596e-05
0.0001973
5.865e-05
0.01873
0.01823
8.005e-06
0.0001509
1.558e-05
0.0001454
0.0001577
0.0001481
0.01919
0.0001413
0.0001454
0.0001665
5.95e-05
0.00846
0.0001386
0.0001411
0.005223
1.2e-06
0.0006768
1.526e-05
0.0307
0.000161
0.01025
0.0001812
0.01155
0.001414
0.0002137
0.0001387
0.001536
0.01173
0.0001637
0.002034
0.0001472
0.000147
0.04302
4.932e-06
0.03931
2.711e-05
0.0001481
0.0001569
0.003601
0.002991
0.0001487
0.0009725
0.0001555
0.000163
0.00065
0.0001647
0.01237
0.0001518
1.711e-09
0.002121
0.01155
0.01205
0.00444
0.002679
5.404e-06
0.001052
0.0001485
0.009194
0.01613
0.01248
0.0001416
3.606e-05
0.0001546
0.0001515
0.0001302
0.0001415
4.289e-06
0.0001589
1.899e-05
0.004474
0.0001545
0.03399
0.0001557
1.068e-05
0.0001509
2.619e-05
0.0001446
0.0001393
0.0001586
0.0001506
0.0005235
0.0001516
6.892e-06
0.02743
3.622e-05
0.0001975
0.05982
0.0001554
1.796e-05
0.0001525
2.153e-05
2.128e-09
7.406e-05
0.02729
0.01059
0.0001432
5.399e-05
5.053e-05
1.411e-05
0.04666
0.0257
0.01152
3.263e-05
0.007727
7.173e-05
0.03012
3.049e-05
5.351e-05
8.227e-05
0.01644
0.000158
5.032e-13
0.0001545
0.0001485
5.497e-05
0.000138
5.506e-05
0.000144
0.02133
0.03571
0.009624
0.0001622
2.229e-05
0.002426
4.466e-06
0.0001792
0.0008748
0.01648
0.001848
0.00679
0.0001644
0.01131
0.005433
0.0005175
0.01481
0.0001457
0.02128
0.0002317
0.0001457
0.000117
0.0001645
0.002957
0.003965
0.0001564
7.4e-05
1.922e-06
0.00146
0.0001278
0.01125
0.02279
2.651e-06
1.159e-05
0.0001537
0.02193
0.0002907
0.0001282
0.00473
0.0006902
0.02958
4.074e-06
0.03067
0.003177
0.009825
0.02442
0.0001686
0.0001469
7.013e-10
0.004723
0.005239
0.0006398
0.01191
0.003113
0.002887
4.493e-05
0.0001424
0.03917
0.0001436
0.0001594
0.00222
0.000181
4.585e-05
0.0001351
0.0001363
0.01068
0.02261
0.0001446
0.0001359
0.00212
0.02104
0.03055
0.003928
0.009996
1.431e-08
0.0001317
0.000152
0.0001417
0.006983
0.007574
3.037e-05
8.088e-06
0.0001539
0.0002122
0.0001461
0.002365
7.796e-07
0.0001419
0.0001781
1.236e-05
5.286e-05
1.505e-06
0.0001526
0.02818
5.16e-05
0.0001459
1.201e-05
0.0001416
0.000139
1.407e-05
0.002314
0.03477
9.381e-07
0.0001463
0.000588
0.000152
1.106e-05
0.01225
6.291e-06
3.197e-05
0.0001536
0.0001632
0.0001579
1.741e-08
0.0001457
0.05211
1.982e-05
5.237e-05
0.01582
2.281e-07
0.0002069
0.0006889
0.002221
1.653e-06
7.207e-07
0.0001574
6.471e-09
9.966e-05
1.565e-09
0.004092
0.0007609
0.03964
2.231e-07
0.000147
4.374e-05
0.0001392
0.0001386
0.0151
0.0001491
0.007727
0.0418
0.0001565
0.0001632
0.0001545
0.0001159
5.365e-05
0.0001457
0.04427
0.00682
0.0001544
0.0005094
3.754e-07
0.0258
0.0001332
0.0001638
0.02918
0.002688
0.000145
0.01592
2.194e-05
0.0001479
0.0006705
0.005332
0.02253
0.0001379
0.008143
0.0516
4.676e-09
0.0001722
3.397e-07
0.01146
0.0001767
6.111e-05
0.0002147
0.001282
0.000134
4.49e-06
0.0001523
0.0001346
0.0001653
2.067e-06
0.05611
6.237e-05
0.0001046
0.0001611
8.898e-05
3.344e-09
3.772e-05
0.0001466
0.0001461
0.0001275
0.0001728
0.003865
0.0007461
0.0001653
4.746e-06
0.01079
0.0001517
4.386e-06
0.0001531
9.469e-06
0.0001444
0.01367
0.003329
0.01772
0.002253
0.009663
0.0001457
0.0001457
0.0008617
0.000154
0.007447
3.256e-05
0.002436
0.02293
0.0468
0.002583
0.002981
2.457e-08
0.01658
2.027e-05
0.0004807
0.000105
0.01973
0.0002016
0.003147
0.001749
6.608e-06
0.009344
0.000144
0.0001429
0.01245
0.01612
0.0001649
0.000139
0.0001819
0.01016
0.0001669
0.002219
0.04778
0.001035
0.000154
0.000149
0.0001584
0.0001687
7.894e-07
5.848e-06
0.01774
0.0001528
0.05333
0.0004335
4.139e-05
6.514e-05
0.02712
0.0001685
5.09e-05
0.006426
3.663e-06
0.0001481
3.619e-06
0.0002027
0.02319
0.005055
0.0001576
0.0001454
5.21e-07
2.699e-08
0.0001377
0.0001441
0.01355
0.009245
1.022e-06
0.01476
4.406e-05
3.23e-05
0.0007399
0.0001598
0.0001638
0.0001479
0.0005521
0.0323
0.001477
0.0001672
0.0009215
0.007983
0.0001575
3.467e-08
0.01297
0.0001453
0.001301
0.0001459
0.0001447
8.66e-05
0.0001537
1.384e-06
0.0001442
1.329e-05
0.000146
0.0001751
0.0001535
0.04634
0.0001287
1.413e-05
2.168e-05
0.0005339
5.791e-05
0.0002108
0.0001551
0.01833
3.393e-05
0.003343
0.0008801
6.027e-07
0.000487
2.506e-07
0.004374
2.414e-05
0.0001329
3.007e-05
1.778e-06
0.000151
0.03984
0.0001902
0.001212
0.01873
5.022e-06
0.0002156
8.451e-05
0.01438
5.853e-05
6.901e-05
0.009911
0.0001651
0.0002501
0.02321
5.857e-05
0.01099
1.199e-05
0.01196
0.0001376
7.088e-05
0.001156
0.0001459
0.002513
0.0009997
0.0001378
0.0001681
0.01348
0.0001532
0.0001511
0.03479
0.01799
0.0001566
0.0001314
0.002512
0.001914
0.0001445
0.0001509
0.0001498
0.01017
0.001574
0.0001386
0.000154
0.003664
8.243e-06
1.549e-05
2.742e-05
0.01345
2.108e-07
0.0002451
5.406e-05
0.0001456
0.006585
0.0001784
0.003382
6.843e-05
0.00466
8.414e-06
0.0001471
1.591e-07
0.0001404
0.0002478
5.76e-05
4.285e-05
0.02087
0.0471
5.332e-06
4.898e-05
0.0001497
2.125e-10
0.01426
4.746e-05
8.741e-06
3.633e-05
0.0001591
0.01901
0.0001015
4.678e-05
0.003809
0.03403
2.25e-05
3.364e-05
0.05342
2.952e-07
0.0001577
4.721e-05
0.0001558
1.271e-05
0.0001307
0.0001448
0.04242
1.228e-07
0.01192
0.004329
5.027e-07
0.001044
0.0001458
1.974e-06
4.608e-05
0.044
3.202e-06
0.0001692
0.009063
5.476e-09
0.04449
2.232e-05
0.01423
5.059e-05
5.939e-05
2.511e-05
7.309e-06
0.0001793
0.001397
0.0001572
0.05994
0.0002461
0.003069
0.0001601
6.695e-05
0.02683
0.0001422
0.0194
0.0001599
0.02822
0.0001522
0.0001552
0.0001233
2.801e-07
0.00015
1.251e-06
7.179e-05
0.005998
0.005161
0.0001459
0.01721
0.009363
0.0001574
9.333e-05
9.059e-06
6.293e-06
0.0001427
2.027e-05
0.002829
0.008518
4.282e-08
0.01477
0.03298
0.001904
0.0001459
0.001809
0.00499
7.989e-07
0.003783
0.0001607
0.01397
0.0001453
8.723e-09
7.147e-08
0.009511
0.0001632
0.0001643
0.0001356
0.0001313
0.008214
0.0296
0.03018
0.000153
0.0001802
0.0001808
0.000155
0.007151
0.03104
0.0009908
3.546e-05
3.445e-08
0.000162
4.989e-06
0.01044
0.00167
0.0001316
2.747e-05
0.01422
8.008e-05
2.004e-08
0.01998
0.02298
0.003544
5.975e-05
0.0112
3.669e-08
0.0586
0.006265
0.02461
0.02303
0.0001362
3.149e-05
1.59e-08
0.0001538
0.005706
0.0001413
4.115e-05
0.0001004
0.0001352
0.0001158
7.869e-05
0.006204
1.932e-05
0.0001428
0.00016
1.779e-09
0.0001455
5.661e-05
0.0005286
5.917e-05
6.304e-06
0.0001639
0.0001414
0.005593
2.801e-06
0.004538
0.002254
0.0001503
6.42e-05
5.824e-05
2.379e-05
0.0002483
0.004649
0.0001451
0.002931
0.03271
1.079e-05
0.0002098
0.02259
0.004407
0.0001446
0.0001609
0.001943
0.0001458
0.02738
0.0001398
2.505e-05
0.02874
1.781e-07
0.0037
0.02368
4.422e-05
0.00874
6.13e-05
2.474e-05
1.304e-09
0.004648
0.002393
0.0257
0.01092
0.0188
0.0001482
0.0178
0.0001462
0.01459
0.0001474
0.03134
0.0001435
0.0007292
0.008695
0.0001377
0.0001444
0.01303
0.0001559
0.0002352
0.0001536
0.0001334
0.0001778
0.007367
0.0001494
8.461e-08
3.217e-05
1.733e-06
3.938e-05
6.009e-05
3.211e-05
3.552e-05
0.02353
0.0009802
1.379e-06
0.02822
0.0002118
0.001657
0.006668
0.01867
0.03278
0.0001441
1.158e-09
0.005862
2.799e-06
0.0001458
2.437e-08
6.33e-05
2.705e-05
0.01148
0.0001309
0.0001308
0.03231
0.05978
0.01434
0.01833
5.153e-05
0.0001647
0.0001543
0.0101
0.000151
5.09e-06
0.0001566
0.000198
0.008937
0.0001353
0.0006897
0.0003665
5.437e-05
2.701e-05
0.01115
0.0001459
0.01929
0.01564
2.662e-07
0.01976
0.0001533
7.739e-05
0.003707
4.998e-05
0.02081
0.0002417
0.064
0.0001455
0.01679
0.000144
2.038e-08
5.251e-06
0.000165
0.004775
0.0001617
0.0001584
0.0001305
0.000159
0.000962
6.411e-09
0.0001511
4.733e-07
0.0113
0.0001439
0.002423
0.001851
0.0187
0.0001512
0.01568
0.00517
5.414e-05
0.008166
0.04136
1.813e-05
0.0001518
0.0001039
0.0001788
1.582e-05
0.0002081
0.0002074
2.78e-05
0.0001645
2.495e-08
0.0001909
1.069e-05
1.203e-05
1.153e-09
0.004944
0.003018
0.0001486
0.0001455
0.0001437
0.01778
0.0001448
5.458e-08
0.0001454
4.582e-06
0.0001558
0.0001841
0.0001174
2.107e-05
0.0002895
5.585e-06
0.0001574
0.0002325
0.01043
7.359e-06
0.0001449
0.003945
0.0004921
0.01152
0.001021
0.003575
0.008057
0.0001516
0.0001407
0.0001533
0.0001372
6.238e-05
0.0002242
0.0001326
0.000157
0.0003214
0.0001372
2.95e-06
0.0001462
0.0109
0.03032
0.01508
0.0002039
0.0001392
0.01198
0.0005451
0.01976
0.000151
0.000112
0.0001536
0.0001454
0.0001417
0.01324
3.135e-08
0.0001378
4.612e-05
0.0001486
2.295e-06
0.0001611
0.0001522
0.0002055
0.000165
0.002453
2.319e-05
0.0001493
6.47e-05
0.0001465
0.0106
0.0001486
0.0001515
8.362e-05
0.02529
0.0001552
8.919e-06
0.002335
0.0001414
0.03087
3.184e-06
0.001063
3.176e-08
5.521e-06
0.02705
0.0001526
0.0001699
4.442e-06
0.02323
6.608e-05
8.713e-05
0.0002477
0.0001537
0.0001443
0.00475
3.631e-05
0.0123
0.0001459
0.004893
0.0001456
0.0001611
0.002412
0.0001427
0.02922
0.0001689
0.0001762
0.01447
0.003453
3.354e-05
0.0001466
2.423e-05
5.044e-06
0.0001605
0.03486
3.707e-05
0.0001574
0.02463
0.02169
2.234e-05
0.0001444
0.01738
1.274e-05
0.006721
0.00507
1.268e-05
0.0001565
0.0001529
0.0001207
0.0001514
3.444e-05
0.009284
0.000151
5.27e-05
0.0001479
0.001105
0.001007
0.05111
0.006103
0.004477
2.869e-08
0.007559
2.098e-07
0.0001653
0.0001376
2.169e-07
4.082e-05
0.0001562
2.703e-05
0.0001506
0.02539
0.0001491
0.01988
5.647e-07
0.01434
0.0001797
5.982e-05
3.935e-05
0.0001464
5.169e-05
0.0001524
0.0001769
1.071e-05
0.0001489
6.168e-05
3.15e-06
0.0001444
0.0001484
0.02065
0.0002366
0.0187
0.0001692
0.0001681
0.000186
0.0001653
0.02726
0.0002505
0.0001662
0.004884
0.0001377
0.000153
2.836e-05
3.763e-07
0.0001394
0.002056
5.665e-07
0.03237
0.0001542
0.02034
5.469e-05
3.701e-07
0.0001988
0.000335
0.01797
0.0001499
0.0001445
0.0001833
0.02184
1.997e-06
0.002808
0.0001486
0.002376
1.154e-09
1.277e-08
0.01911
0.01712
0.002848
0.0001652
0.0193
0.0001028
0.02431
0.0001885
0.00926
0.01413
8.263e-05
2.088e-06
0.008645
0.0001609
0.0001452
0.00017
0.0001584
0.006553
0.0001517
0.0001506
4.264e-05
0.01917
0.03403
0.0001355
1.987e-05
5.813e-06
0.04682
0.003024
0.01198
2.234e-08
2.782e-05
0.0001488
0.002067
0.0001212
0.01113
4.366e-05
1.522e-08
0.0001282
1.368e-06
0.0001441
4.651e-05
0.0001406
0.0139
0.02007
1.27e-05
0.001133
0.03188
6.273e-06
0.0001676
0.0001608
3.426e-05
0.0001527
0.03003
0.000145
2.503e-05
1.383e-05
6.238e-05
8.616e-06
8.289e-06
0.01698
1.38e-07
0.0003319
0.0002052
0.0001751
0.02915
0.0001507
0.04179
6.344e-05
0.02164
6.038e-05
0.0002321
5.283e-05
3.756e-09
4.04e-07
0.008325
0.02239
0.0001598
0.0001566
0.0001458
0.0001485
0.008226
0.000161
0.0001451
5.284e-05
5.95e-05
3.763e-05
0.009292
0.0001386
4.441e-05
0.03581
0.0001388
2.67e-07
2.048e-05
0.0001554
4.662e-05
4.976e-09
0.01803
0.0005913
0.04147
0.0001037
0.0004474
2.396e-10
0.0001057
9.512e-05
0.0001694
0.0001553
5.106e-05
0.007999
0.0001453
0.000147
0.01387
5.923e-06
0.02994
4.466e-05
1.308e-07
0.0001651
0.0001493
7.651e-06
0.02848
0.009507
1.579e-06
0.0001781
0.0336
0.01824
0.004093
0.0001656
0.003835
0.0001465
0.002311
0.03296
6.202e-06
0.06198
3.418e-05
1.971e-05
0.0001672
7.948e-06
0.04181
0.0001999
6.097e-05
0.0009551
0.0001509
0.01697
0.005824
0.007895
0.0005977
0.009778
4.077e-05
0.000595
0.0001448
0.0112
0.042
8.852e-06
5.801e-05
0.0007702
0.02775
0.0001529
5.346e-05
0.0001852
0.007648
0.02753
0.01547
0.02954
0.01769
0.0002951
3.248e-07
0.0001604
0.0001483
0.0003393
0.0001394
0.02057
0.0001494
0.0001652
0.01741
0.0001439
0.0001622
5.731e-05
0.001234
0.0001456
0.0001477
0.03112
8.139e-05
0.0007317
0.0001917
0.03179
0.01757
1.122e-05
2.409e-05
0.05932
0.0001352
0.04684
0.000158
5.513e-05
5.47e-08
0.02158
2.51e-05
3.244e-05
0.01949
3.114e-08
0.0001453
0.0001372
0.0001593
0.0001478
1.296e-09
0.0001458
0.02479
0.0002572
4.016e-08
0.0005487
1.363e-05
0.0001253
0.000125
3.023e-05
0.004572
0.02023
0.0002089
0.0001495
0.05331
0.0001608
0.000149
8.498e-06
4.366e-05
4.797e-05
0.02257
1.511e-06
0.01697
0.0001704
0.0001316
0.0001111
4.75e-05
8.084e-06
2.327e-05
0.004642
2.99e-06
0.004643
0.009833
6.577e-05
0.001189
0.004194
0.0001537
0.0001607
2.91e-05
0.0001403
0.0001385
0.0009187
0.007344
5.388e-07
0.0001582
3.057e-05
0.00317
0.0004263
0.0001453
0.0001758
0.0001482
0.008567
9.671e-08
0.0001693
0.0001556
7.977e-05
0.0001521
2.484e-06
0.000117
0.0002252
0.0001019
0.0001223
4.648e-05
0.02141
0.000118
0.003649
0.005751
0.009339
0.007218
8.971e-05
0.01551
8.257e-06
4.821e-05
0.00581
0.01534
1.798e-05
0.01264
0.004093
0.0004831
0.0001543
0.0001591
0.0001157
1.268e-07
0.0001639
0.005391
0.0001466
0.02306
0.0001484
4.611e-05
0.0251
1.36e-07
0.001623
0.0001523
6.704e-05
1.63e-08
7.275e-06
0.01027
5.178e-05
1.323e-05
3.135e-06
0.0007593
0.02102
6.27e-05
1.281e-07
0.003299
0.006014
0.0001656
0.0001583
0.0001454
0.02034
3.091e-05
0.0001452
0.004291
0.03077
0.0001532
2.404e-05
0.0001308
0.03258
0.0001642
0.0319
1.695e-05
0.0001622
0.0001686
0.03037
0.00015
6.479e-05
7.428e-05
3.946e-07
0.0006115
0.0003979
0.0001428
0.01019
0.002176
9.813e-05
4.843e-05
6.089e-05
0.02909
0.008113
0.0001453
2.952e-05
3.204e-05
0.0001712
0.000186
0.02014
6.441e-05
1.273e-05
3.624e-05
0.0001826
0.0001574
0.0001538
0.0001033
0.04044
0.000153
2.909e-07
0.000218
0.006313
0.0001454
0.0001473
0.0001842
0.0001459
0.0007966
9.103e-05
0.01514
0.01857
1.262e-05
7.637e-05
0.003108
8.704e-05
0.003289
0.02997
1.795e-07
0.008202
0.003907
0.008042
4.249e-07
0.01692
1.48e-05
4.055e-07
0.000169
0.0001669
1.464e-05
0.0001496
0.01428
0.000305
0.0001971
7.797e-05
0.009487
0.007697
0.0001487
0.03716
0.0001478
0.000163
0.01444
0.008296
0.0001394
0.0209
1.414e-07
0.01301
0.0001459
0.001313
0.006505
0.04264
5.548e-05
0.007266
0.000224
1.303e-05
7.464e-06
1.92e-07
0.001853
5.42e-05
0.004308
0.004127
0.002658
0.0001511
3.4e-07
0.001816
5.053e-05
0.0001585
0.0001441
0.002203
0.001116
0.01938
0.0001517
1.723e-07
0.0002704
0.0001625
0.04318
0.00774
2.612e-05
0.0001448
0.0006647
0.02044
0.0001508
0.0001294
2.049e-05
0.0001449
0.002247
0.01381
0.0001555
2.189e-06
0.0001699
0.004344
3.033e-09
0.006864
4.654e-05
0.0001307
0.0001299
5.668e-05
0.04877
0.0001709
0.0001024
6.501e-05
0.0001438
5.627e-05
7.774e-06
0.01057
0.0001456
0.0001459
0.01502
0.006516
5.819e-05
2.3e-09
1.751e-05
0.0001584
2.149e-05
2.834e-06
0.0001536
1.565e-05
4.787e-05
0.0003372
0.000166
7.164e-05
0.05592
0.02018
0.0001302
0.0001285
0.0001287
0.0001275
0.0001577
0.02784
0.0001153
3.025e-05
0.000132
0.007689
0.009488
7.41e-05
0.0001283
0.004713
0.01055
0.001261
0.0005645
0.0006106
0.01747
5.255e-05
3.183e-05
0.01271
6.516e-05
0.0001669
5.216e-05
1.314e-08
4.347e-05
9.577e-07
0.0001521
0.0001299
0.0001453
3.811e-07
0.004359
2.777e-05
0.0001233
0.0001499
1.055e-07
0.0001458
0.009556
0.0007932
0.0001923
0.003856
0.00447
0.01457
0.01418
4.734e-05
0.0001506
0.0002887
0.0001369
0.0001632
0.00152
0.001936
0.01579
0.0001464
0.0001436
0.0001452
0.0001545
0.008665
0.0001706
0.0001673
0.01256
0.005902
0.0001579
2.748e-05
3.141e-05
0.03194
0.02638
0.02816
0.005042
0.0001595
2.051e-08
0.0001516
0.0001453
7.071e-07
0.0001452
0.0001449
0.000158
0.0003305
8.438e-06
0.01222
9.161e-06
0.009808
2.794e-05
0.0001464
0.0001567
0.007985
3.727e-05
0.02587
0.0002168
0.0001558
2.252e-06
3.518e-05
0.0001483
1.888e-06
4.574e-05
2.854e-09
0.0002306
0.03097
0.02453
0.000154
0.0001478
0.03254
0.0001873
1.666e-06
0.0001506
1.592e-05
1.095e-07
0.0001454
2.361e-05
0.0001888
6.576e-05
0.0001458
1.206e-05
3.459e-07
1.068e-08
3.395e-08
0.0001652
0.0397
4.295e-08
0.0001558
0.00385
0.000144
0.01287
4.723e-05
0.02933
0.0007839
3.246e-08
0.0001579
0.01998
0.0001329
0.0001492
0.0001532
3.183e-05
0.0002242
0.03652
0.0002327
0.004871
0.0001633
0.01685
0.01255
0.006475
0.005943
0.0001455
0.01953
0.01425
3.646e-05
0.0006968
0.0001136
3.189e-05
0.0002427
2.667e-07
7.436e-08
2.121e-10
2.507e-05
0.0001533
2.046e-05
0.0001483
9.379e-06
1.128e-05
0.0001455
2.999e-08
0.0001489
0.001934
4.44e-06
4.408e-06
0.01666
0.0002008
0.002057
0.0001069
0.0001301
1.518e-08
0.00487
0.000195
0.01738
0.01272
1.374e-07
1.836e-07
2.974e-07
0.01756
2.302e-05
0.0001005
0.01494
0.0001511
5.079e-05
1.902e-06
0.0001392
0.006183
5.276e-05
0.01496
5.775e-05
0.02066
0.0372
1.003e-06
4.401e-05
5.119e-05
2.159e-07
0.000218
2.143e-06
0.0001518
6.181e-05
0.002699
0.0001489
0.0001539
6.651e-05
0.0004131
0.001268
2.88e-07
0.0001889
0.0001453
0.0001384
3.431e-05
2.896e-06
0.01309
0.02895
0.0001266
0.0001504
5.889e-06
0.0001271
0.0008336
2.89e-05
0.0001534
0.002955
0.01896
3.52e-07
1.725e-07
2.559e-08
0.0001499
2.177e-05
0.006589
0.00385
0.03427
0.0231
2.311e-06
0.01774
9.442e-06
3.289e-05
5.592e-05
6.411e-05
0.0001683
1.17e-07
0.02855
6.195e-05
0.01246
0.0001859
5.775e-05
0.0001796
0.0001458
8.863e-05
0.0002275
0.004868
0.000151
5.888e-05
3.663e-07
8.359e-09
0.03124
3.457e-07
0.000803
0.0001628
0.0001498
0.0001536
0.0001412
0.0001489
8.902e-05
1.957e-07
0.0008844
1.484e-05
0.05665
0.03081
6.811e-05
0.004298
0.016
0.001367
0.02964
8.422e-07
0.002978
0.0001401
0.009191
6.35e-05
0.0001477
0.0001546
5.517e-06
0.0001463
0.002254
0.002053
3.341e-05
0.0001496
1.859e-06
0.0002937
0.03759
0.00015
1.566e-05
0.0004857
2.438e-05
5.567e-05
0.0001432
3.988e-05
0.0001439
0.0001666
0.002206
0.05391
3.118e-08
0.00231
1.635e-05
0.02781
1.274e-05
0.0001569
0.0005959
0.009763
0.0008377
0.0001389
0.0001523
0.0001462
1.691e-05
9.306e-05
0.0001897
0.00576
0.0001425
0.0003746
3.539e-05
0.004857
0.0001843
0.003297
0.0008752
0.0001472
0.01513
0.0001547
0.0001677
0.0009587
6.781e-05
0.0001551
0.0001579
0.0001558
0.0001928
0.005477
0.000137
0.0001348
0.0001463
0.000153
0.0001512
0.001805
0.000551
0.0001456
4.34e-05
0.0001822
5.208e-05
0.0001469
0.0002065
0.0001514
4.984e-06
0.0003118
1.964e-08
0.03807
3.554e-06
0.0001704
0.0001579
2.713e-07
0.0001499
5.75e-05
4.563e-05
4.222e-05
0.001354
0.005323
0.000146
5.934e-05
0.002522
0.01943
0.007586
0.0127
0.0001193
0.009029
6.702e-05
5.04e-05
0.0001436
0.01269
6.806e-05
1.187e-06
0.000151
0.0001481
0.0004725
8.373e-05
0.01006
0.01175
0.0001039
4.714e-05
0.0001529
6.564e-05
0.008901
0.02881
0.01514
0.02076
0.0001399
0.0001735
3.029e-08
0.04286
0.01555
1.294e-05
0.0001617
0.0001559
0.0001449
0.0001495
0.0001591
0.0001804
7.001e-07
0.002979
0.000147
0.0001468
6.161e-05
2.381e-09
0.0001469
0.01229
4.886e-05
5.242e-05
0.0001648
0.003671
6.755e-05
0.003666
0.0001692
1.47e-05
3.769e-06
8.661e-05
0.0001458
0.005481
0.03104
0.003522
0.0001429
0.0001681
0.002127
0.02119
0.001469
3.671e-08
3.064e-06
0.05203
0.0003729
3.122e-06
0.02587
3.786e-05
0.01156
0.0001673
0.0001659
5.148e-06
1.468e-07
0.0001443
0.001472
6.723e-05
0.0001469
1.733e-05
0.01192
0.0001616
0.0001547
0.02573
1.4e-05
0.001403
0.0001386
0.000145
0.0001456
0.04808
0.01533
0.0001332
0.0003855
0.0001484
1.136e-05
0.03402
0.01232
3.568e-05
4.039e-06
0.04604
0.01857
0.0001427
2.25e-07
0.0001652
7.022e-05
2.577e-05
0.000153
7.977e-05
0.0002753
0.002284
3.357e-08
0.0327
3.514e-07
0.0001384
0.0001419
0.007722
0.0001509
0.000143
3.16e-08
5.967e-05
3.799e-05
5.374e-05
0.0006731
0.007178
0.0001429
2.505e-08
0.0001557
6.565e-05
0.0001346
0.0001516
0.0171
0.009821
0.006071
0.02482
0.03127
0.002575
0.0001362
0.006463
0.0002659
4.936e-05
9.806e-06
0.0001593
0.02351
9.085e-05
0.0001471
0.004285
0.001151
0.0008578
0.0001532
0.02067
3.719e-07
0.000132
0.0001436
7.721e-05
0.0006547
0.02867
2.95e-05
0.0001478
0.000301
0.003246
6.744e-05
0.000148
0.0001525
1.011e-05
4.666e-05
6.583e-05
0.009657
0.0001872
0.0001363
2.112e-05
0.0001496
0.0003412
2.781e-08
0.0001594
0.01267
0.01673
0.000752
1.177e-05
0.003148
0.0001519
0.0001363
0.006151
0.0001567
0.0001446
0.001275
0.0001624
0.02508
0.0001356
0.0001544
0.0001536
0.0001487
5.911e-05
0.004841
0.0001453
0.0001407
6.783e-05
0.003537
0.0001499
0.0001467
0.0001446
0.0001575
0.04369
0.04512
1.988e-05
2.948e-08
1.928e-07
6.715e-05
2.279e-06
2.227e-06
0.0001481
5.362e-08
0.005208
0.0001287
0.03175
0.0001546
0.0001598
0.0003007
0.0003872
5.599e-06
0.0009669
0.0001558
0.008424
4.694e-05
6.435e-05
0.0001628
0.0001623
0.01001
0.0001531
3.647e-05
0.0001605
0.008052
0.0001347
0.0001645
0.0001519
0.00081
6.796e-08
1.409e-05
0.0001373
9.247e-06
0.007729
0.0001324
0.0001912
0.000146
0.0001683
0.005562
0.0003542
0.001526
9.258e-05
0.0001495
0.0001658
0.02931
5.244e-07
0.0001466
0.000152
2.163e-07
0.0001362
0.0001442
3.579e-06
0.01253
0.0001523
0.0001519
0.03814
5.399e-05
4.465e-08
1.992e-05
0.004332
0.02235
0.008998
0.0001535
0.000145
0.000153
4.668e-05
5.441e-05
0.004264
0.0001479
4.656e-07
5.459e-05
6.188e-05
0.01624
0.006881
0.008555
0.0001342
0.0001551
0.0006028
0.002341
0.0001501
4.332e-05
1.573e-05
0.02839
0.000159
0.0001677
0.01987
0.0001501
0.02589
6.44e-05
0.0004343
0.0001274
0.0001477
0.0001416
0.0004816
0.01144
0.0001531
0.0001437
0.0002352
0.004913
1.388e-09
0.02707
0.0001553
0.0007125
0.0001413
0.000134
7.166e-05
3.118e-06
3.434e-05
0.003007
2.264e-05
1.261e-05
0.02211
0.0001562
0.004477
3.167e-05
7.182e-07
0.01163
0.0001511
4.605e-06
0.0001644
7.949e-06
9.473e-05
0.01916
0.02712
5.111e-05
0.0001459
0.01164
0.0001649
0.0001447
0.001739
4.398e-06
0.003717
7.444e-08
1.747e-05
0.003454
0.0001448
0.02401
0.00264
0.0001859
0.01246
0.01361
0.001286
0.002935
0.0001114
0.0001465
0.006106
0.0001378
0.0001437
0.001723
0.0001762
0.0001551
3.2e-05
4.393e-08
0.000142
0.0001455
8.31e-05
7.021e-05
6.495e-06
0.0001619
0.006945
1.391e-05
0.03894
0.02327
0.0001456
0.0001789
5.961e-06
0.0001511
0.01059
0.0001441
8.168e-05
0.0001512
0.01872
2.452e-05
0.003605
0.000707
6.567e-05
0.001327
0.0001492
0.0007214
0.005172
0.0003024
0.0001433
0.0001475
2.294e-05
9.509e-05
8.656e-05
0.03469
0.004562
0.05929
5.111e-05
0.0001082
0.0001281
0.0001517
0.0001551
1.04e-08
4.403e-06
0.0001055
0.0001425
2.302e-05
6.552e-05
0.00113
0.000878
8.979e-08
0.0001706
0.018
4.758e-05
5.321e-05
1.654e-05
2.448e-06
0.05841
0.0002435
0.04119
0.0001495
5.02e-09
0.0001466
0.03088
2.457e-05
7.083e-05
0.02351
0.0001283
0.007436
5.64e-06
0.01472
0.000239
0.03883
0.0001357
0.002549
1.045e-08
0.01338
3.124e-07
1.907e-07
0.0001455
2.989e-07
0.0001985
7.587e-06
6.062e-05
0.02139
0.05709
0.006691
5.356e-05
0.0001244
0.0001499
0.01715
0.01349
0.01914
0.02422
0.004995
0.0001553
0.0001576
0.05382
2.566e-07
0.008091
5.706e-05
5.712e-05
2.212e-05
0.0001347
0.0005106
0.004877
3.53e-05
0.01576
1.603e-07
0.00151
5.193e-05
0.0001536
5.933e-05
0.0001526
0.01227
0.007926
0.0001574
0.0001653
0.009439
8.824e-05
0.01679
0.003399
8.429e-05
4.188e-05
0.01206
1.556e-07
9.736e-05
1.667e-06
0.0001498
0.05075
0.006803
0.02333
0.0001519
0.0001437
0.0001453
0.0001462
0.0001454
0.009666
5.515e-05
0.008062
0.04663
0.0001507
0.01553
0.0001503
2.119e-07
3.284e-06
2.84e-07
5.696e-05
0.0001526
1.534e-05
7.805e-05
0.0001568
0.0001648
0.0001464
0.02377
0.03306
0.002762
0.05396
0.0001422
0.0001427
0.003986
0.02315
0.000151
2.215e-08
4.983e-05
0.0001398
0.0001459
5.554e-05
0.0001508
2.162e-05
4.911e-07
0.0001645
0.000168
0.001915
8.406e-05
0.001199
3.368e-08
0.0001799
0.0001596
6.002e-05
4.245e-05
0.0001522
0.001363
0.0001369
0.0001603
1.381e-05
0.003701
4.377e-08
0.0001517
7.797e-05
0.001365
3.375e-05
0.0001462
0.009555
0.0001455
0.0243
0.05522
0.0001222
0.02117
5.418e-05
0.0002029
0.0001585
8.687e-06
5.727e-05
0.0003418
1.255e-05
1.56e-05
0.005601
0.0006355
5.166e-05
0.001353
0.02084
3.255e-05
0.0001401
3.108e-07
1.661e-07
6.805e-06
6.076e-05
0.0001509
4.989e-06
3.193e-05
0.0001583
0.0004001
4.935e-06
0.004701
0.0001921
0.000145
0.0002063
3.683e-05
0.0001426
0.04823
9.854e-05
0.001873
0.0001562
4.84e-05
5.518e-05
0.0002935
2.659e-05
1.543e-09
0.0006207
0.01156
0.0001528
0.01152
0.003913
1.822e-05
0.008771
0.02366
0.0207
4.818e-06
0.01338
0.0001572
0.01179
2.124e-05
0.0001512
0.03129
0.0001516
0.03635
2.244e-07
0.002027
0.0001476
2.976e-05
0.02844
1.414e-07
0.001939
0.0001427
0.0001555
1.619e-05
0.0001511
0.008748
1.097e-05
0.0002917
0.02135
0.000145
0.0001599
0.01567
0.01184
0.0001606
2.806e-05
0.0001384
2.278e-05
0.01006
0.001735
0.01251
0.005005
0.004405
2.716e-05