/*--------------------------------*- C++ -*----------------------------------*\
  =========                 |
  \\      /  F ield         | OpenFOAM: The Open Source CFD Toolbox
   \\    /   O peration     | Website:  https://openfoam.org
    \\  /    A nd           | Version:  8
     \\/     M anipulation  |
\*---------------------------------------------------------------------------*/
FoamFile
{
    version     2.0;
    format      ascii;
    class       volScalarField;
    location    "15";
    object      nut;
}
// * * * * * * * * * * * * * * * * * * * * * * * * * * * * * * * * * * * * * //

dimensions      [0 2 -1 0 0 0 0];

internalField   nonuniform List<scalar> 
127143
(
6.599e-21
1.376e-20
2.134e-19
2.581e-18
1.382e-17
2.704e-18
1.068e-15
1.111e-16
3.501e-17
3.796e-16
1.126e-15
1.165e-16
1.403e-18
5.305e-18
3.254e-07
6.202e-14
6.764e-18
0.005425
0.004174
1.702e-12
0.0006325
3.793e-11
6.75e-05
1.508e-07
3.176e-11
1.277e-09
8.262e-11
9.978e-11
2.436e-10
0.005824
6.579e-08
1.22e-09
6.191e-11
5.575e-08
5.292e-05
6.723e-11
0.0002006
0.0006579
2.458e-07
8.98e-10
0.004182
4.797e-06
5.111e-06
7.403e-17
0.005369
6.989e-08
2.448e-10
0.0008948
9.982e-08
1.902e-07
2.262e-13
0.000448
0.0004101
5.297e-05
0.006668
2.92e-08
0.006667
9.573e-05
0.006199
5.244e-05
4.334e-06
0.002352
8.534e-07
0.006702
1.314e-06
2.2e-05
7.158e-05
7.244e-07
7.275e-07
0.002987
1.024e-07
2.537e-10
0.002695
0.005623
0.006693
2.877e-10
0.0009132
0.0002292
2.943e-08
0.006705
2.359e-10
1.858e-12
1.171e-06
3.006e-09
0.001993
0.0003243
3.569e-07
4.336e-11
2.276e-05
2.576e-07
0.004422
0.0002612
8.503e-07
0.0006448
0.0001153
0.0001182
5.177e-06
2.48e-08
0.0005312
6.131e-05
0.006705
1.15e-07
1.904e-08
2.948e-05
0.0003581
0.0004958
5.028e-07
0.002987
9.041e-06
0.00668
4.745e-07
3.39e-11
0.0003421
7.753e-07
0.006691
6.15e-05
0.0006292
0.006693
0.0009177
6.309e-13
0.006681
1.444e-06
3.058e-06
0.0001132
2.752e-10
2.664e-10
0.001512
0.001135
0.0001449
2.253e-08
0.0001182
9.171e-05
1.586e-06
0.000241
1.951e-15
0.0001294
0.0002062
0.0009306
9.582e-10
0.0001929
5.388e-05
0.001081
0.0004723
0.001041
0.0004124
5.365e-06
2.867e-10
0.006702
7.981e-05
7.49e-09
1.144e-05
1.341e-07
0.0005748
2.947e-05
2.506e-06
0.002042
7.617e-05
1.747e-08
0.0009305
1.199e-08
1.52e-07
8.598e-14
0.004951
0.0001194
2.131e-09
2.582e-06
0.0001084
8.901e-06
1.722e-08
0.0002148
3.095e-06
0.001049
6.327e-05
7.105e-06
0.002782
0.000563
3.376e-06
0.0001481
1.805e-07
0.00222
7.15e-06
0.0006411
0.0005984
0.0005777
2.364e-08
0.002437
1.476e-05
8.408e-07
1.615e-07
0.0008803
0.0003141
0.0001605
0.0002031
6.448e-07
5.541e-16
0.00152
0.006639
0.006623
2.788e-14
0.003079
0.006693
0.0002098
0.002094
0.0002445
6.354e-17
5.316e-07
0.0001299
5.896e-06
0.005425
0.006691
0.0002399
0.001574
0.006689
1.795e-08
4.37e-05
8.625e-15
1.197e-07
5.779e-06
0.0002027
0.0001278
3.424e-06
0.006694
1.194e-07
0.0003716
9.501e-09
1.875e-06
6.421e-09
0.0005912
1.527e-05
0.0009501
0.0005745
0.000804
0.002845
1.076e-11
0.0005868
0.0001073
0.0001194
1.538e-18
0.006693
0.0003703
0.000175
2.992e-06
0.0008715
1.781e-08
0.0002833
9.416e-13
2.671e-07
1.157e-10
7.083e-13
0.003007
7.713e-06
2.128e-09
4.448e-06
0.0008979
6.251e-08
6.88e-06
0.001303
2.559e-08
2.664e-05
1.661e-05
0.001485
0.0008198
0.0001814
0.001042
0.000157
2.189e-06
7.57e-06
1.84e-06
5.377e-06
1.042e-05
5.57e-09
0.00278
0.001348
0.0003561
1.419e-06
0.0003329
0.0003553
1.786e-07
0.002827
2.262e-05
0.003386
0.000135
3.008e-05
0.00669
0.006691
5.356e-16
0.0001059
0.006692
1.698e-07
0.0022
0.0005657
4.649e-05
0.0001077
4.197e-05
0.006698
6.951e-06
6.711e-08
0.0001068
0.0008678
1.127e-05
2.116e-08
3.35e-05
1.476e-05
7.719e-05
6.347e-09
3.978e-06
5.945e-06
0.00669
0.00288
4.049e-06
4.363e-07
6.729e-06
1.894e-08
0.003693
0.00669
5.378e-07
0.0006342
2.128e-08
0.0001992
0.003336
8.628e-05
9.796e-08
0.0004475
4.417e-06
4.84e-07
0.0003445
0.0001141
0.0001349
1.056e-07
2.542e-06
0.001577
0.006691
5.798e-05
0.006639
0.006624
3.279e-05
9.122e-06
6.718e-05
0.001574
8.215e-05
0.0002166
5.764e-06
0.0004547
0.0003592
1.087e-06
1.689e-07
9.133e-06
0.0002366
2.482e-08
6.661e-05
3.833e-08
0.004311
0.0004882
0.000344
0.0001456
1.294e-05
0.0008842
6.832e-06
0.006375
1.051e-07
0.001867
1.008e-06
0.003015
2.563e-07
2.184e-07
0.006697
0.003486
0.003111
1.191e-06
0.002825
2.613e-06
0.0004126
6.155e-09
1.684e-07
0.001003
0.0001507
8.53e-08
5.424e-11
0.0006364
0.002839
0.00175
4.902e-10
4.57e-08
2.832e-05
0.0006972
8.145e-12
4.746e-05
1.289e-09
0.001427
0.0009676
0.0067
1.421e-05
7.814e-06
6.945e-08
1.814e-07
6.019e-08
1.473e-05
9.016e-08
0.0001443
0.0006135
2.576e-09
0.006694
0.0006876
0.0006379
4.593e-05
6.265e-06
0.0004311
1.726e-06
0.006705
2.013e-07
9.797e-06
2.075e-08
4.857e-05
0.001028
5.091e-06
0.0001251
0.0003721
4.646e-09
0.0002881
2.494e-07
0.0001207
2.167e-09
2.709e-05
0.003264
0.0009039
1.355e-05
4.985e-06
4.014e-05
4.803e-06
9.824e-05
0.006677
2.66e-05
0.0004103
0.000759
6.164e-06
0.006697
4.761e-06
1.447e-05
0.0004834
0.006697
0.00669
2.652e-07
0.0001797
7.662e-06
0.0003496
2.774e-08
0.00632
7.927e-07
0.003161
0.001576
0.0006017
6.433e-08
7.961e-06
6.074e-07
3.961e-05
0.0003491
1.637e-08
6.826e-06
0.0003833
0.0001033
2.071e-06
0.0001996
0.001523
8.74e-07
0.0002018
0.002831
0.001597
0.0006074
4.475e-06
0.006667
0.0007659
0.0001151
9.669e-05
0.0005262
0.0001438
0.006645
2.067e-06
0.0001166
4.988e-06
0.0004459
2.866e-10
1.045e-06
1.274e-05
1.942e-08
8.348e-06
6.118e-06
0.0004199
0.006688
2.441e-08
0.0009449
1.473e-06
4.055e-07
0.0003686
5.977e-06
1.961e-15
8.699e-05
1.122e-06
0.0001024
1.436e-06
0.006687
2.408e-10
0.001616
0.0006085
0.001606
7.246e-18
3.951e-14
1.656e-13
0.006697
1.406e-05
2.289e-06
0.00669
0.002016
1.621e-06
0.0001028
2.519e-05
0.0005677
6.341e-08
0.0007783
2.429e-09
0.002875
0.001297
3.772e-12
1.499e-07
2.585e-08
5.124e-06
0.006681
1.296e-05
0.001736
0.001536
0.006603
1.649e-08
2.822e-09
6.551e-06
0.006636
0.000603
0.0001181
9.552e-07
7.587e-06
6.404e-09
0.002199
0.0009477
2.18e-05
1.371e-05
0.006668
3.565e-05
0.0002275
8.779e-08
2.647e-07
3.443e-06
5.471e-07
0.001489
1.055e-05
4.368e-07
0.0001242
3.076e-05
0.00379
2.265e-09
0.0001678
1.454e-08
1.232e-06
0.0009493
0.006702
0.006701
1.78e-05
8.077e-06
1.259e-06
0.006691
0.004979
1.24e-05
4.522e-08
0.0004299
1.04e-05
3.469e-07
2.216e-09
4.279e-05
0.001274
0.006682
4.966e-06
0.0005917
1.332e-06
0.005068
3.677e-10
1.939e-06
4.829e-05
0.002835
4.964e-09
0.006691
0.0004828
0.0007633
0.001395
0.005037
6.878e-06
0.001492
4.332e-12
0.006644
5.531e-07
1.39e-07
0.00669
6.292e-06
0.005586
3.686e-07
0.0004366
0.00669
2.4e-06
7.343e-08
1.432e-05
0.0001213
0.0004893
4.047e-08
4.742e-08
1.416e-06
3.06e-07
1.325e-06
2.819e-07
0.0003737
0.0002509
1.201e-08
0.005626
2.96e-08
0.006689
1.289e-06
0.0009306
0.0004764
0.006677
0.006383
7.064e-05
2.565e-07
0.0003917
0.006487
0.006675
2.054e-05
5.854e-10
3.162e-06
3.227e-08
0.002699
8.545e-06
0.0006084
9.07e-06
0.0003696
1.228e-05
5.269e-07
0.006487
1.781e-05
0.000387
8.195e-05
8.118e-05
0.005905
0.00498
0.0003617
1.769e-09
0.0003986
2.484e-09
0.0008432
0.004041
7.193e-05
3.191e-05
0.000202
3.06e-06
9.666e-05
0.0006879
3.292e-06
3.049e-05
0.0004047
2.442e-05
1.977e-16
2.743e-06
0.0004013
0.0003426
0.0001109
4.883e-05
7.568e-09
9.325e-06
0.000423
0.0002108
0.0001259
0.0007203
0.006677
1.918e-07
1.882e-05
4.858e-06
0.006635
0.006677
3.824e-10
0.0001042
4.734e-08
0.0001067
1.673e-06
0.002812
2.821e-05
1.689e-08
1.068e-05
7.077e-08
0.006687
0.006667
6.95e-06
1.477e-05
1.971e-06
5.359e-06
5.163e-09
0.002613
9.054e-08
0.0001713
0.002477
0.004105
3.501e-08
0.0001567
5.494e-08
1.755e-15
1.977e-06
0.0002078
0.0006911
0.00486
8.61e-07
2.275e-07
1.602e-09
0.004885
0.00145
0.0003699
1.125e-08
0.0003596
2.303e-07
0.003554
9.299e-08
6.74e-07
4.101e-06
0.001568
5.529e-05
2.694e-20
2.213e-05
0.0001896
4.847e-07
2.126e-06
3.971e-07
0.006686
0.0003592
0.004337
0.0004433
0.003889
1.924e-09
3.349e-05
5.166e-09
0.003735
6.771e-06
0.000334
1.745e-05
0.000138
0.004101
0.0006876
9.545e-06
2.198e-06
0.0008415
0.00274
0.0004506
1.085e-06
0.00378
5.75e-06
4.932e-05
5.75e-05
8.928e-05
3.501e-05
1.963e-06
1.276e-09
1.244e-05
0.006606
0.0006775
0.002473
1.78e-09
2.319e-08
5.593e-05
0.002081
7.735e-07
0.006618
0.0001138
3.538e-06
0.0003787
2.972e-11
0.0003762
7.537e-06
0.0004274
0.001033
4.877e-05
0.006697
5.021e-17
0.0001295
0.0001406
6.391e-07
0.0005024
2.272e-05
4.304e-05
1.354e-07
0.006681
0.004613
2.913e-05
0.003984
2.708e-05
1.495e-06
4.877e-07
2.939e-06
0.006659
0.0006564
0.0004967
0.006688
0.006656
8.299e-05
0.002298
0.002694
3.042e-05
0.0005006
2.905e-13
1.626e-05
8.948e-06
0.006678
0.0002917
0.0001504
7.926e-08
1.122e-08
9.051e-06
0.003765
0.006691
0.001146
1.707e-10
0.006678
0.0001422
6.821e-09
8.42e-07
9.763e-10
0.005584
0.001117
7.628e-07
0.006692
2.55e-08
0.006679
1.444e-06
3.098e-09
3.571e-05
0.0002276
2.792e-10
0.004654
2.726e-06
2.106e-05
1.82e-08
5.083e-05
8.313e-09
7.735e-09
5.957e-05
5.84e-05
1.121e-05
8.703e-13
0.006691
0.0008121
3.717e-08
6.109e-08
0.0001173
4.508e-11
0.003823
0.0004441
4.772e-06
7.631e-10
6.452e-11
4.234e-07
1.862e-14
1.531e-07
2.447e-14
9.057e-05
9.444e-07
0.00464
2.519e-11
0.0009169
3.663e-07
0.005062
0.005111
0.000492
0.000502
0.0002192
0.002798
7.823e-07
7.782e-05
0.0004069
2.903e-07
4.393e-07
0.0067
0.004235
0.0001672
0.0004753
1.819e-06
9.919e-12
0.0006754
8.064e-06
4.283e-07
0.001133
1.405e-05
0.006687
0.0003652
5.588e-08
0.006412
3.244e-06
0.0001668
0.002536
0.006664
0.003261
0.003173
4.135e-14
1.491e-05
8.878e-12
0.0008113
8.423e-06
6.516e-07
5.677e-08
1.08e-05
0.005574
1.395e-09
1.049e-05
0.005511
8.923e-06
1.704e-11
0.001442
2.474e-07
1.029e-05
6.167e-05
1.207e-08
5.734e-14
1.225e-07
0.0009978
0.006693
7.244e-06
7.842e-06
5.882e-05
3.689e-06
6.281e-07
2.287e-09
6.032e-05
6.416e-05
2.159e-09
0.0001935
4.982e-09
0.006687
0.0007831
4.328e-06
0.00083
2.924e-05
0.0005835
0.006691
0.002413
1.234e-06
4.232e-05
7.004e-05
9.01e-08
9.092e-06
0.001749
0.0003787
1.631e-05
3.558e-05
1.596e-12
0.0004774
4.487e-08
2.066e-06
7.17e-06
0.001669
6.158e-07
2.565e-05
1.119e-06
1.482e-10
0.0005464
0.006686
0.006681
0.0008581
0.0006351
7.64e-05
0.006688
7.242e-06
0.0005986
6.611e-05
1.064e-05
0.0004519
7.223e-06
2.509e-06
0.006705
6.753e-05
5.755e-05
1.687e-10
6.413e-09
0.0003436
1.206e-05
0.0009589
1.423e-06
1.681e-07
2.287e-06
0.002829
4.661e-06
3.415e-07
0.0001117
1.497e-09
0.006527
8.011e-10
4.483e-08
0.002547
0.0001362
3.565e-07
0.005052
4.538e-11
1.535e-12
0.006226
0.00669
0.0003497
0.0004629
6.293e-12
0.0001022
3.837e-07
7.614e-08
3.386e-06
6.901e-05
9.791e-05
0.002771
2.131e-06
0.00157
1.098e-05
5.331e-05
4.782e-07
0.0002548
0.00523
3.007e-12
0.0001819
0.006691
1.501e-05
0.00558
0.006685
3.484e-06
7.877e-05
1.147e-10
0.006686
2.832e-08
0.006693
1.116e-06
9.283e-05
0.004536
1.698e-05
3.008e-08
6.684e-08
2.275e-06
1.352e-06
0.003795
0.0005468
0.0008124
1.615e-07
2.333e-05
5.219e-06
1.552e-10
1.921e-06
1.425e-11
0.0001025
6.066e-08
6.849e-07
9.951e-08
1.142e-09
5.819e-06
0.004606
0.003574
8.058e-06
0.0002266
6.031e-09
0.003174
2.049e-07
0.001139
6.335e-07
5.987e-07
0.0003091
9.897e-05
5.583e-07
0.002072
6.336e-07
9.219e-05
1.826e-08
4.725e-05
0.006501
3.06e-06
7.316e-06
0.005041
3.059e-05
3.665e-06
0.006671
4.246e-05
9.319e-05
0.0003015
5.841e-06
0.00105
0.0001896
0.0001042
0.006657
3.369e-05
2.155e-05
0.006693
8.002e-06
0.0001752
0.0006033
1.525e-05
1.33e-05
0.000461
5.116e-06
2.366e-10
3.023e-08
1.028e-07
0.001107
2.382e-11
0.003046
2.874e-07
0.006691
0.0002634
5.972e-06
5.381e-05
5.944e-07
5.291e-06
3.371e-09
0.006698
9.553e-13
2.628e-07
6.475e-07
1.015e-06
3.087e-08
0.001997
0.004896
5.165e-09
6.305e-07
6.964e-05
6.336e-16
0.0004288
1.84e-07
1.205e-08
1.883e-07
1.44e-06
0.0002416
5.159e-08
4.583e-07
6.806e-05
0.0002219
6.522e-08
1.182e-07
0.001476
9.546e-12
0.0001002
3.573e-07
0.000123
2.609e-08
0.00664
0.006689
0.0005868
1.088e-11
0.0006435
0.002485
3.825e-11
2.39e-06
0.006692
1.139e-09
4.037e-07
0.0003491
8.299e-11
2.633e-05
0.0001627
1.623e-15
0.003475
7.421e-09
0.0012
5.907e-07
4.176e-08
8.632e-08
1.096e-08
9.066e-06
1.296e-05
0.0001175
0.003179
1.043e-05
5.245e-05
2.013e-05
6.05e-07
0.002452
1.884e-08
0.001257
7.783e-05
0.001959
4.449e-06
3.25e-05
8.807e-06
9.515e-12
6.484e-05
4.702e-10
8.892e-08
8.308e-05
0.0001315
0.006693
0.001642
0.0002844
3.477e-05
6.902e-08
1.246e-08
7.111e-09
0.006681
5.417e-08
3.676e-06
0.0003743
3.816e-12
0.0001051
0.003362
5.759e-06
0.002816
4.369e-06
8.807e-05
2.277e-10
6.662e-05
0.0008754
0.0009819
0.006696
2.115e-13
5.48e-12
0.0002878
6.51e-05
2.509e-05
0.0065
0.006646
3.82e-05
0.001218
0.003603
0.0001211
0.003413
0.003391
1.63e-06
0.0003075
0.002635
1.06e-05
1.47e-07
2.574e-12
3.004e-05
6.445e-09
0.0001471
1.555e-05
0.006647
6.931e-08
0.001227
1.053e-06
1.207e-12
0.0002107
0.002424
6.597e-05
1.015e-06
0.0005328
7.088e-13
0.002124
0.0002273
0.002186
0.002299
2.843e-05
1.354e-07
3.701e-13
0.000102
9.778e-06
0.006674
1.596e-07
1.192e-07
0.006662
9.183e-08
1.93e-06
0.000135
5.186e-08
0.006681
2.274e-05
1.61e-14
0.005104
2.503e-07
2.32e-06
6.208e-07
1.246e-09
5.157e-05
2.989e-05
1.565e-05
1.894e-09
0.0001083
2.983e-05
1.976e-05
6.334e-07
1.866e-08
3.91e-09
5.442e-07
0.0001259
0.00669
1.489e-05
0.003565
1.764e-08
1.159e-06
0.002443
0.0001103
0.006691
7.134e-05
1.746e-05
0.006586
0.002628
0.006092
9.094e-09
0.002628
1.884e-11
3.957e-05
0.0004253
6.47e-08
0.0003955
3.39e-07
6.01e-08
1.531e-14
0.0001229
3.273e-05
0.0004704
0.0005797
0.001382
0.006702
0.000349
0.001417
0.001282
0.006699
0.002208
0.006684
2.361e-06
0.0001313
0.00667
0.006684
6.957e-05
0.0001613
6.324e-07
7.672e-05
0.006669
1.009e-05
0.0003189
6.877e-05
9.735e-14
2.39e-08
1.918e-11
2.154e-07
1.507e-06
9.931e-08
1.873e-07
0.0005233
0.0002131
6.12e-10
0.001115
3.389e-07
7.914e-06
0.0002011
0.0002307
0.003998
0.006686
1.371e-14
0.0002006
1.184e-09
0.006691
1.61e-12
3.121e-07
8.196e-08
0.0001494
0.006636
0.006635
0.002133
0.001757
0.002322
0.001863
7.43e-07
5.133e-05
5.155e-06
0.003377
3.779e-05
3.689e-09
5.008e-06
0.0001355
0.000469
2.778e-05
1.764e-06
1.202e-06
6.155e-07
8.945e-08
0.000752
0.002934
0.0002476
0.0001616
4.775e-11
0.000479
0.0003234
9.978e-07
0.002838
3.251e-07
0.0004457
4.511e-07
0.004113
0.006692
0.0007926
4.318e-06
9.535e-13
1.075e-09
7.36e-05
0.0001328
3.39e-07
0.0001437
0.006617
2.306e-07
6.272e-06
8.184e-14
6.182e-05
1.512e-11
0.0001858
0.006685
3.285e-05
3.141e-06
0.001809
1.459e-05
0.001036
1.525e-05
8.949e-07
0.0001109
0.0007952
1.446e-08
0.0001337
4.133e-07
3.767e-07
3.349e-08
0.003505
0.003503
8.723e-08
1.082e-05
3.254e-13
4.532e-06
1.905e-08
1.924e-08
1.358e-14
0.003181
1.941e-05
0.0004401
0.004164
0.006685
0.001159
0.006172
2.306e-12
0.006691
1.273e-09
4.059e-05
6.293e-06
9.895e-07
4.833e-08
0.00296
6.974e-10
0.0001497
5.939e-07
0.0006734
1.754e-09
0.006685
7.226e-05
1.741e-06
0.0008189
2.671e-07
5.084e-06
0.0003734
2.188e-07
1.204e-07
0.0001779
0.006661
1.627e-08
0.003
0.006648
5.507e-05
9.995e-08
0.00666
2.056e-09
0.006694
0.0003849
0.0001944
0.001149
6.156e-07
0.006657
0.0006547
2.401e-06
0.0002249
3.625e-05
8.047e-06
3.786e-05
0.00669
0.00668
0.0003721
2.014e-13
5.129e-06
4.722e-07
0.0009383
2.209e-10
7.219e-05
4.956e-05
0.003272
1.875e-05
3.262e-05
5.914e-08
0.0007302
2.963e-07
0.001134
0.0003316
0.006703
4.384e-06
6.126e-07
0.0006717
7.712e-07
1.259e-08
3.174e-05
0.006675
0.0004192
3.024e-09
5.488e-06
2.297e-12
7.543e-09
0.002971
0.0003153
1.249e-05
2.719e-10
0.0004211
1.025e-07
9.011e-09
0.003165
7.5e-05
0.006686
6.275e-05
1.783e-07
0.0001471
0.006692
1.718e-05
0.006692
9.794e-05
3.011e-05
0.006683
0.002915
5.929e-05
8.28e-06
0.001011
0.002848
1.179e-07
0.006696
6.217e-08
1.867e-09
4.526e-05
0.004066
2.077e-07
0.0009838
0.0001503
0.0005164
1.437e-08
2.412e-06
0.0004361
2.713e-08
0.0002029
8.325e-05
3.489e-09
0.000164
4.859e-05
1.465e-06
0.0002127
1.234e-07
0.0005126
1.091e-05
6.18e-07
0.0003515
0.002711
6.378e-07
0.003159
4.48e-05
6.514e-05
1.977e-12
0.0001668
3.797e-11
8.571e-05
0.006663
3.874e-11
2.849e-07
0.0001009
8.935e-08
0.0004171
0.0004931
0.006705
0.001837
1.806e-10
0.001117
7.225e-06
8.156e-07
2.568e-07
0.006695
7.715e-07
8.138e-06
1.036e-05
2.089e-08
0.0004512
6.112e-07
2.811e-09
0.006687
0.0002599
0.0003962
0.003111
0.0002006
3.219e-05
3.851e-05
5.79e-06
8.58e-05
0.001384
0.003472
8.996e-05
0.0001307
0.006505
2.748e-05
2.907e-08
2.545e-11
0.006687
1.235e-05
1.253e-10
0.002794
8.603e-07
0.002064
3.218e-07
2.571e-11
0.003357
0.002921
0.0002683
0.001046
4.026e-07
5.466e-06
0.001073
1.073e-09
3.789e-05
0.0004593
2.975e-05
5.187e-15
1.534e-14
0.0002827
0.0002306
3.935e-05
7.853e-05
0.001283
8.272e-06
0.001028
4.16e-07
5.241e-05
8.548e-05
4.285e-07
2.906e-10
0.0004677
9.603e-05
0.00669
3.143e-07
8.844e-05
0.0002602
1.708e-05
8.765e-05
2.83e-07
0.0002809
0.003962
0.006662
4.159e-08
7.798e-09
0.0004036
2.642e-05
0.0008704
1.426e-12
9.432e-08
0.0002073
2.231e-05
2.089e-08
0.000596
3.794e-07
5.918e-13
0.006607
6.369e-10
3.002e-07
2.794e-07
0.005058
0.0007376
0.001773
2.451e-08
9.254e-06
0.001854
8.497e-09
0.00481
5.73e-06
1.694e-07
0.0001367
0.002232
0.0067
7.337e-08
5.237e-09
4.088e-07
1.066e-08
7.201e-10
0.0008115
2.132e-11
0.002952
4.494e-07
1.735e-05
0.002871
0.0001365
0.004485
1.973e-06
0.001241
4.974e-07
0.003393
5.077e-07
6.397e-14
2.583e-11
0.0001732
0.0003318
3.225e-05
1.292e-05
0.002139
0.0002296
0.0001335
7.51e-05
0.006697
6.487e-07
4.439e-07
1.584e-07
8.591e-05
1.03e-05
2.119e-07
0.0005845
1.196e-07
1.598e-11
1.126e-09
0.0001124
4.571e-07
1.086e-13
0.001814
3.343e-07
0.004428
6.562e-06
1.018e-05
4.119e-16
9.087e-06
6.63e-06
0.003772
0.0002032
6.518e-08
0.0001324
0.006691
0.006697
0.001165
7.991e-09
0.001795
3.944e-07
1.267e-11
1.591e-06
0.001164
1.248e-08
0.002724
0.0001293
1.016e-09
0.0001566
0.004718
0.000417
9.598e-05
8.514e-05
8.819e-05
0.006695
4.21e-06
0.00354
9.453e-09
0.003622
1.507e-07
9.708e-09
4.692e-05
1.227e-08
0.000534
4.434e-07
4.185e-07
5.645e-07
2.139e-05
0.001539
0.0001601
0.0003726
2.39e-06
0.0001198
1.223e-08
2.115e-06
0.006694
0.0001178
0.004577
1.658e-08
8.345e-07
0.002774
0.001478
0.0001137
3.106e-08
0.003667
0.0001
0.0009276
0.000335
0.002426
0.0008534
0.0002467
2.022e-11
0.0001087
0.0003791
5.495e-07
0.006671
0.001239
7.427e-05
9.592e-05
0.001662
0.006687
9.053e-05
2.629e-07
1.035e-06
0.006691
0.001135
0.002669
4.092e-06
4.599e-06
0.001258
0.0003581
0.0004469
1.499e-08
6.559e-08
0.002078
1.901e-06
0.0004005
0.0001052
4.983e-07
3.214e-12
0.002388
1.194e-08
1.004e-07
0.002034
2.185e-12
0.006691
0.00666
1.288e-05
4.553e-05
1.403e-14
0.006692
0.001911
5.377e-07
4.516e-13
2.515e-06
2.808e-08
0.006319
0.006372
9.559e-08
9.672e-05
0.0004853
2.251e-06
5.856e-05
0.001325
9.555e-05
0.006705
1.397e-08
2.482e-07
5.719e-07
0.0007027
9.023e-10
0.001485
2.205e-05
0.006657
8.717e-06
2.335e-07
1.261e-08
5.345e-08
0.0001202
5.396e-10
1.27e-05
0.0003005
5.466e-07
7.811e-06
9.497e-05
0.0001137
2.833e-06
8.866e-09
0.004973
0.005104
4.903e-06
7.344e-05
1.389e-10
9.3e-06
5.316e-08
6.213e-05
0.002958
0.00669
7.398e-06
0.006702
0.0004275
8.408e-12
2.432e-06
9.471e-05
1.051e-06
0.0001292
3.603e-10
3.602e-07
0.003358
6.616e-06
9.311e-06
4.769e-07
0.0009189
1.621e-06
7.62e-05
0.0001651
0.0003821
0.0002221
4.862e-06
0.001383
6.484e-09
3.808e-07
0.0001937
0.0001599
2.691e-09
0.0001757
1.175e-05
1.275e-06
1.063e-06
7.59e-06
4.945e-06
1.948e-11
9.987e-05
8.597e-05
0.001713
0.001593
0.006703
3.091e-07
0.002934
2.082e-11
1.61e-05
4.213e-05
8.028e-08
3.034e-13
8.988e-09
0.0004578
7.768e-07
2.411e-08
2.225e-09
0.002778
0.0008607
2.03e-06
3.726e-12
6.079e-05
0.0001924
7.168e-05
7.418e-05
0.006691
0.0007811
6.049e-09
2.48e-05
4.567e-06
0.002419
0.000129
2.173e-08
0.006641
0.0004635
9.248e-05
0.001627
1.53e-08
7.393e-05
3.839e-05
0.00339
6.067e-05
3.011e-07
2.823e-06
2.222e-11
8.317e-07
2.442e-06
0.006674
0.0003034
1.648e-05
3.274e-08
4.341e-08
1.737e-06
0.00355
0.0002336
0.006392
9.63e-08
5.329e-08
8.352e-06
6.371e-06
0.0005112
4.353e-08
2.616e-08
9.904e-08
3.447e-06
7.301e-05
1.495e-06
1.502e-08
0.004634
0.0001512
1.259e-11
0.003149
0.0003002
0.005506
0.006698
5.632e-06
0.003154
1.484e-06
1.3e-06
0.0004145
0.0008093
2.649e-08
5.54e-08
5.313e-05
1.607e-07
6.054e-05
0.001824
1.209e-12
0.0003892
8.675e-05
0.003346
7.342e-12
0.001476
3.076e-09
6.933e-11
0.003773
3.537e-07
3.196e-08
3.261e-05
0.001105
9.866e-08
1.039e-06
1.001e-07
0.000556
0.0003432
0.0002096
0.004429
0.0067
4.378e-05
0.001148
3.017e-05
3.209e-06
0.0002822
1.431e-11
0.001046
0.005685
9.846e-06
0.0002555
0.002053
1.151e-06
0.0002964
1.095e-06
2.944e-08
6.051e-09
3.76e-11
1.217e-05
2.2e-07
9.174e-06
9.713e-05
1.911e-05
2.241e-05
4.697e-12
1.899e-05
5.922e-07
8.595e-06
0.006676
6.878e-06
7.129e-06
0.001285
3.499e-05
3.151e-11
6.406e-07
1.469e-06
0.0006563
0.0002613
1.235e-08
0.00669
1.617e-07
0.002196
0.0001507
3.865e-06
4.244e-08
0.006695
2.578e-05
0.001108
1.14e-05
3.681e-10
1.963e-05
0.0001088
5.217e-14
0.0002729
2.369e-07
0.006651
0.006631
2.559e-07
0.0003846
2.006e-05
5.007e-07
5.509e-07
0.006685
3.292e-08
1.137e-08
0.0003711
0.005953
0.004714
0.0004035
0.000104
2.456e-07
1.171e-14
3.493e-08
0.005252
5.443e-08
1.521e-10
8.848e-05
3.451e-08
1.465e-07
0.00305
8.032e-05
8.874e-08
0.001938
0.0006538
0.00663
0.006583
0.00661
0.006271
0.0001329
0.001012
4.925e-06
5.877e-08
1.638e-05
5.328e-05
0.0004762
1.383e-07
0.006159
0.0001196
0.0003058
7.087e-07
1.177e-06
2.708e-07
0.0001684
8.198e-07
1.21e-07
0.0004725
4.176e-07
0.0001922
5.553e-07
1.195e-13
2.272e-07
4.676e-10
4.301e-06
1.14e-06
0.00669
6.317e-12
0.0001096
9.269e-08
1.691e-05
0.0001352
5.454e-12
0.006693
0.0002126
2.375e-06
0.004156
8.377e-05
7.89e-05
0.001022
0.0002043
1.292e-08
9.206e-05
8.734e-07
0.006626
8.212e-06
1.178e-05
1.304e-05
0.001103
2.715e-06
0.006678
0.005921
8.096e-05
2.509e-05
3.556e-07
0.0001044
0.0008421
0.0001046
4.98e-05
1.376e-08
1.167e-07
0.002234
0.002652
0.001008
0.0001336
0.0001059
7.03e-13
3.996e-06
0.006689
1.461e-10
0.006691
0.006684
0.0001336
0.002951
2.338e-09
0.0009198
1.264e-08
0.0004511
8.247e-08
0.006695
0.0001003
4.204e-05
2.077e-07
0.002023
0.003699
6.366e-05
1.309e-10
1.939e-08
0.006702
5.541e-10
1.922e-08
3.011e-14
0.003307
0.002616
0.001305
9.508e-05
0.0007288
0.002929
3.336e-06
1.157e-10
1.056e-05
3.815e-08
1.719e-13
0.00669
7.274e-08
2.072e-07
5.777e-07
0.006693
2.36e-08
1.414e-11
2.77e-13
1.727e-12
0.0001029
0.0002848
2.11e-12
0.0002865
7.106e-05
0.006686
0.0008955
1.353e-07
0.003363
4.287e-06
1.705e-12
0.0001589
0.0002798
2.021e-06
0.006706
0.00397
9.489e-08
4.772e-07
0.003888
5.851e-08
0.0001168
0.0001061
0.001553
0.0004629
3.713e-05
0.0001491
0.006691
0.0003395
0.0003947
1.996e-07
3.438e-06
8.737e-07
1e-07
1.24e-06
1.063e-11
2.585e-12
5.949e-16
7.149e-08
0.0001575
2.64e-08
0.0003493
1.643e-08
1.039e-08
0.00669
1.56e-13
0.006705
1.802e-05
9.146e-10
3.599e-09
0.0001731
1.488e-06
7.833e-06
4.377e-07
0.006627
9.273e-14
1.975e-05
0.003269
0.001669
0.0001842
4.265e-12
3.03e-11
5.184e-12
0.001582
6.076e-08
5.849e-08
0.0009784
2.686e-05
6.204e-07
5.58e-10
0.006667
0.0001715
8.765e-07
0.0001426
1.165e-06
0.0007167
0.0034
5.343e-10
3.824e-07
3.779e-07
3.652e-11
0.002557
1.551e-09
4.294e-05
1.222e-06
2.089e-05
0.005943
0.0001617
1.53e-06
1.478e-06
1.229e-05
1.196e-11
0.003287
0.004284
2.531e-05
1.679e-07
2.286e-09
0.0005394
0.003529
0.006427
0.0003306
8.198e-09
0.006362
5.04e-06
8.811e-08
9.139e-05
4.994e-05
0.0005454
4.473e-11
6.722e-12
1.695e-12
9.015e-05
5.864e-08
0.0001168
7.314e-05
0.002503
0.002444
3.651e-10
0.001386
1.193e-08
1.52e-07
1.717e-08
3.847e-07
4.062e-05
7.926e-12
0.001113
8.048e-07
0.0005059
0.003501
1.072e-06
0.0001371
0.002481
3.29e-06
6.262e-07
0.000139
1.776e-06
1.462e-06
7.79e-12
1.134e-13
0.002855
6.346e-13
0.002778
0.0001586
0.0001194
0.0002109
4.672e-06
0.006704
3.111e-07
9.083e-12
4.046e-06
7.7e-09
0.001501
0.0004991
4.329e-07
0.0001067
0.001408
5.546e-06
0.001828
3.689e-10
4.301e-05
0.00539
0.0001199
7.995e-07
0.0067
0.00047
6.265e-09
0.006694
2.698e-05
2.462e-05
1.572e-07
1.833e-05
1.463e-09
0.002949
0.001232
5.794e-05
3.087e-08
9.122e-08
4.173e-08
9.542e-07
0.006683
1.157e-07
0.006686
7.692e-05
2.767e-05
0.001074
2.178e-12
3.077e-05
4.004e-08
0.002871
7.509e-09
2.429e-05
0.002832
0.0006004
4.771e-06
0.006669
2.85e-05
0.006694
3.202e-08
1.305e-07
2.791e-06
0.0001249
0.006602
1.318e-06
1.256e-07
7.885e-05
1.277e-08
3.788e-05
8.458e-07
0.0006945
0.000417
4.08e-05
4.571e-05
8.832e-06
2.601e-06
0.0001126
1.979e-05
0.0001004
3.888e-06
6.707e-05
0.006624
0.006659
0.002284
0.0003446
5.739e-06
1.342e-06
2.544e-06
0.002734
2.284e-07
7.73e-06
3.952e-07
0.006697
1.084e-06
5.713e-05
5.47e-09
0.003161
1.81e-13
0.0002643
3.673e-09
0.003806
0.0001163
1.775e-11
0.0003116
4.524e-07
2.842e-07
1.839e-07
1.125e-05
0.0001291
0.006693
2.705e-07
9.576e-06
0.0002263
0.00015
0.0003804
1.4e-05
0.0004134
8.877e-07
5.408e-08
0.006684
0.0008744
1.48e-06
6.229e-10
7.436e-06
0.006701
3.802e-06
1.399e-07
0.0006254
0.000711
6.58e-06
6.203e-08
0.0002253
2.372e-06
3.422e-05
0.002582
0.0001548
0.0002069
0.005411
5.344e-06
1.915e-12
0.0004242
0.0001719
6.653e-09
1.413e-05
1.996e-05
0.006689
0.0003063
8.788e-05
0.003777
4.34e-11
5.047e-05
0.006697
0.001236
7.286e-07
3.134e-14
0.006697
0.0006664
8.731e-09
4.076e-07
3.081e-05
6.376e-05
5.384e-08
8.317e-05
3.314e-06
3.367e-08
1.291e-10
9.652e-08
0.002375
0.0001763
0.0005135
6.895e-05
0.006683
6.22e-05
2.29e-05
0.001002
7.76e-06
1.953e-12
1.223e-09
0.003131
1.247e-06
1.027e-10
0.002582
7.873e-08
0.0006613
3.683e-05
7.322e-05
5.508e-09
1.408e-11
0.006687
1.367e-05
6.451e-07
0.006697
8.335e-09
0.0008867
1.098e-05
0.0001386
0.0003873
3.285e-08
1.179e-05
3.299e-06
0.006699
0.003526
0.003476
0.0001656
0.006669
2.482e-05
0.0004013
1.021e-08
0.003121
0.0009206
1.165e-07
4.949e-09
0.002781
0.0001961
0.006674
1.229e-11
1.724e-05
4.148e-08
7.027e-08
0.0001366
1.083e-07
9.681e-06
2.536e-05
2.337e-12
0.003977
2.618e-11
0.006669
0.006684
0.000366
6.427e-05
0.006683
8.999e-13
3.501e-07
1.351e-07
3.55e-08
8.278e-06
0.0003039
0.004981
7.359e-13
0.0005178
8.203e-07
0.006659
2.717e-05
0.0001599
0.0003336
0.0002164
0.0004044
0.003337
6.234e-06
0.006655
0.0002396
1.464e-07
2.906e-08
4.011e-09
9.368e-05
0.000729
5.715e-06
0.006699
1.117e-05
8.59e-06
0.0004485
0.0002425
0.0003641
2.516e-11
0.006014
0.006678
3.535e-06
5.665e-07
0.002575
2.041e-08
0.006701
1.275e-07
5.965e-05
5.958e-07
0.006701
7.232e-05
1.902e-08
2.297e-07
7.773e-08
0.0005627
2.658e-06
0.006672
4.564e-08
0.004755
8.933e-07
1.161e-12
0.0009121
0.0001633
0.001594
2.166e-07
1.233e-09
6.428e-06
9.14e-05
0.006656
0.0001853
8.649e-05
0.006687
9.994e-06
1.994e-06
0.002404
0.006679
0.000117
0.0001362
0.000199
1.787e-07
0.0001232
0.006691
4.308e-07
8.114e-07
6.419e-06
0.0005292
0.006696
0.006687
0.0003568
0.0003344
0.002116
5.324e-08
1.941e-12
2.124e-11
8.829e-07
7.681e-11
1.21e-09
0.0022
4.144e-12
0.0001407
9.882e-08
0.003374
6.932e-05
3.908e-05
9.79e-08
1.177e-06
4.02e-09
4.802e-06
0.0002743
0.0004314
1.727e-07
7.136e-07
2.475e-05
9.383e-05
8.683e-05
6.773e-05
1.349e-07
0.004307
0.0003669
8.203e-06
1.531e-05
1.321e-05
2.381e-06
2.412e-12
6.494e-09
0.006661
6.014e-10
0.0003338
0.006648
3.384e-06
0.006694
2.253e-07
0.0001498
0.002956
9.779e-06
4.622e-07
0.006707
3.301e-05
0.003468
1.247e-10
0.0009623
1.728e-05
4.279e-11
2.599e-05
0.006687
2.934e-09
0.0005226
0.0004094
1.791e-05
0.002645
3.609e-07
2.305e-12
5.486e-08
0.0001047
0.00193
2.553e-05
5.402e-06
0.006687
0.0002108
1.539e-07
6.121e-07
0.0001018
0.006701
1.146e-11
2.9e-07
1.917e-06
0.0001784
0.000289
0.0002276
0.006653
0.0001535
2.817e-06
3.107e-05
5.135e-05
3.946e-07
3.403e-08
0.003006
8.232e-06
8.365e-06
0.002098
5.53e-05
0.003001
2.022e-06
7.199e-06
7.258e-06
0.0067
2.709e-07
0.002881
0.0004278
2.225e-05
3.977e-05
1.248e-07
0.0001374
1.344e-14
0.001515
3.538e-05
0.002363
0.006675
1.948e-05
2.883e-06
2.191e-09
6.777e-08
3.447e-05
7.143e-08
8.639e-09
0.0004244
2.326e-05
0.0001134
8.817e-08
2.629e-10
0.0003663
0.0001558
5.561e-09
4.774e-05
1.217e-08
6.636e-06
0.001871
0.001115
2.27e-07
0.006693
0.0001129
6.808e-05
0.006689
0.0003348
5.4e-09
0.002827
1.058e-13
4.008e-08
9.249e-06
0.006688
0.0004162
3.49e-05
0.003667
0.0005082
0.0003475
1.123e-06
1.634e-05
9.555e-08
0.006695
0.0001133
0.006677
3.988e-05
1.505e-05
1.155e-06
2.461e-05
8.794e-08
8.368e-14
0.00661
0.006692
1.797e-06
6.895e-07
9.16e-09
0.0001015
5.933e-05
3.134e-08
0.001183
0.0018
0.003046
1.284e-06
5.984e-09
3.525e-05
0.000503
0.006686
9.495e-07
6.44e-05
0.0002232
8.255e-08
7.244e-05
0.002213
8.205e-08
1.193e-05
0.0004603
3.268e-06
0.0001076
0.0002424
0.006682
0.006576
7.184e-08
5.913e-08
3.555e-06
0.004249
0.000109
0.003405
3.422e-07
4.538e-06
0.006601
9.448e-06
3.145e-05
3.626e-13
4.34e-09
1.604e-07
0.00668
6.451e-08
5.482e-07
1.274e-06
1.35e-06
1.216e-11
2.163e-05
0.0004769
4.853e-07
8.228e-07
3.956e-08
1.56e-09
0.002736
0.003196
0.004367
9.603e-05
9.519e-14
0.0009067
0.002159
7.402e-08
2.068e-06
0.001808
4.497e-07
0.0002568
1.215e-09
0.001303
6.29e-07
0.0004927
2.625e-05
1.825e-05
3.763e-13
0.0006438
2.009e-11
1.773e-11
0.00669
1.737e-11
1.884e-06
9.251e-09
6.283e-08
0.000367
0.001524
5.485e-05
7.097e-07
7.5e-06
5.348e-05
0.001067
0.0009942
0.0004022
0.001048
0.0001304
1.685e-05
7.306e-05
0.001997
1.443e-11
0.0002872
1.891e-08
6.43e-07
6.135e-08
0.006647
1.84e-06
0.000133
2.434e-08
0.00136
2.329e-11
1.179e-05
1.936e-07
9.111e-05
4.591e-08
8.332e-05
0.0007523
0.0003648
0.0001714
8.701e-05
0.0005575
3.468e-06
0.0002521
2.391e-05
5.185e-06
2.613e-07
0.0004695
2.248e-11
4.272e-06
1.752e-11
4.215e-05
0.0008522
6.988e-05
0.002495
0.0001742
5.348e-07
0.00669
0.003538
0.00669
0.0003007
4.228e-07
2.615e-05
0.003291
8.961e-06
0.0005661
5.854e-05
2.25e-12
2.876e-09
1.675e-11
2.534e-07
0.0001376
3.449e-08
5.141e-08
0.0001231
2.304e-07
0.006695
0.0004469
0.003686
9.242e-06
0.001414
0.006679
0.006675
7.881e-05
0.002571
0.0001535
1.219e-12
3.515e-07
0.006672
0.006692
9.87e-07
0.0002629
4.721e-08
1.389e-10
0.00501
3.43e-05
7.026e-06
2.135e-07
7.577e-06
1.771e-12
9.213e-06
9.384e-05
1.545e-06
1.604e-07
3.51e-05
1.031e-05
4.779e-06
1.43e-05
3.177e-08
6.39e-05
7.934e-14
0.005676
1.006e-06
4.775e-07
2.727e-08
0.006695
0.0004051
0.006691
0.001558
0.0009629
3.084e-06
0.0004087
2.369e-07
1.338e-06
0.0001029
1.218e-08
6.33e-08
1.063e-06