/*--------------------------------*- C++ -*----------------------------------*\
  =========                 |
  \\      /  F ield         | OpenFOAM: The Open Source CFD Toolbox
   \\    /   O peration     | Website:  https://openfoam.org
    \\  /    A nd           | Version:  8
     \\/     M anipulation  |
\*---------------------------------------------------------------------------*/
FoamFile
{
    version     2.0;
    format      ascii;
    class       volScalarField;
    location    "15";
    object      omega;
}
// * * * * * * * * * * * * * * * * * * * * * * * * * * * * * * * * * * * * * //

dimensions      [0 0 -1 0 0 0 0];

internalField   nonuniform List<scalar> 
127143
(
3.821e+07
7.184e+07
8.194e+07
3.494e+07
2.933e+06
3.537e+07
1.159e+06
2.025e+06
3.234e+06
4.719e+05
1.704e+06
2.662e+06
9.642e+07
2.958e+07
463.3
7.926e+04
9.896e+06
11.83
8.723
3.256e+04
17.31
7.131e+04
0.07672
258.3
7.682e+04
1594
5909
5735
5195
11.76
405.3
1753
7772
941.2
0.04013
6944
44.77
71.77
199.8
2131
8.751
0.3087
0.2318
1.373e+07
11.69
860.2
4667
16.9
266.6
224.4
5.05e+04
0.02508
42.89
0.1251
0.02092
561.9
0.0209
0.3049
0.02201
0.1245
0.2375
9.072
72.09
0.02211
343.2
0.3183
0.04104
87.33
86.75
0.08537
298.5
4009
13.14
0.02201
0.02179
4084
0.02251
29.63
553.4
0.02222
4818
2.905e+04
303.6
1330
16.05
25.16
155.6
4619
0.2714
505.9
0.02215
17.06
216
17.2
42.69
0.2623
0.2837
543
17.33
0.04067
0.02221
252.2
2498
4.839
23.84
17.94
91.69
0.08572
0.9587
0.02132
360.3
5189
23.88
3.498
0.02173
1.508
0.02272
0.02179
0.02244
2.882e+05
0.02134
285.1
45.24
0.1428
4748
2735
10.63
0.02295
50.62
625.6
38.52
45.93
37.77
28.91
1.119e+06
36.74
0.04624
15.46
3623
0.03977
0.106
0.02215
38.26
22.13
44
21.02
1.746e+04
0.02213
49.29
3426
10.03
241.6
82.28
0.06301
42.95
15.71
0.3053
791.2
16.54
657.3
286.9
9.342e+04
0.02216
38.31
1386
262
57.38
0.3795
1143
0.0254
808.8
21.78
2.446
20.8
0.2806
41.9
12.67
50.28
225.9
0.03132
20.72
0.0336
40.81
41.19
618.2
8.969
0.07147
3.37
238.7
0.03058
31.3
39.89
0.04294
49.28
2.051e+06
11.27
0.01938
0.01933
2.222e+05
0.02175
0.02168
0.02558
4.77
39.65
1.109e+07
126.5
0.04645
19.52
12.06
0.02174
1.268
19.36
0.02163
1161
63.97
2.288e+05
2625
20.82
29.38
0.0467
8.108
0.02184
243.6
55.62
784.3
906.8
975.4
74.59
294.1
13.03
18.2
0.03338
12.55
1.971e+05
18.03
0.08026
38.26
4.482e+06
0.02168
29.65
38.51
189.9
25.4
773.7
124.3
2.284e+05
156.5
5735
1.703e+05
0.1032
1.289
1163
27.43
17.05
382
1.029
0.02292
1217
5.41
0.04767
11.92
0.0268
11.33
0.0221
118.1
234.2
142.3
108.9
0.4449
23.61
894.1
0.2773
13.85
29.55
41.44
31.16
23.46
197.1
0.5347
2.926
0.07689
0.5785
4.755
0.02175
0.02173
1.891e+06
40.9
0.02173
212.1
0.03274
81.84
0.1759
0.07986
3.86
0.02166
2.106
354.7
124.7
25.41
19.71
516.4
0.2896
0.2253
1.233
906.7
19.88
19.38
0.02164
11.85
20.18
102.1
770.2
636.8
0.06031
0.02172
263.1
64.23
528.3
0.1877
2.457
0.07247
326.4
0.02723
27.52
281.5
76.14
0.03017
112.3
339.5
7.886
10.69
0.02173
0.03982
0.01939
0.01935
0.06185
0.945
2.436
10.72
46.22
0.0393
20.82
45.97
31.27
3.915
212.7
135.9
30.03
482.1
61.95
424.8
8.201
43.76
31.24
0.02706
113.7
17.02
14.89
0.02325
342.7
11.93
59.22
15.9
215.8
218.4
0.02192
0.02175
1.466
330.1
0.5272
0.6934
0.02736
773.8
234
0.02909
0.0578
319.6
1.546e+05
15.98
0.5683
23
2008
387.3
0.2874
0.02265
1.271e+04
0.03368
1845
11.54
36.38
0.02175
0.157
455.3
378.9
237.9
393
0.1596
344.8
0.027
0.02644
1285
0.02184
17.61
38.94
0.03445
15.91
21.41
35.18
0.02222
205.7
11.44
518.4
0.1067
14.94
30.18
41.08
21.13
996.5
112.4
234.8
54.26
4707
80.1
0.07785
13.34
0.05324
0.2054
0.07387
157.7
0.0535
0.02115
81.07
49.44
15.38
158.1
0.02192
21.19
114.3
0.02477
0.02166
0.02172
200.1
0.04688
1.227
0.02351
518.4
0.02171
185.1
1.564
19.38
16.97
342.7
13.51
403.4
0.03428
34.85
583.1
125.5
29.65
63.13
30.67
66.95
19.66
1.278
62.23
0.2082
0.02189
22.03
176
0.02078
14.42
5.399
0.1434
66.66
0.04162
0.02028
35.43
3.483
387.5
69.27
5493
153.8
92.83
641.1
5.349
156.2
81.28
0.02162
526.4
0.02218
122.8
140.9
41.75
23.71
3.46e+06
44.92
1.373
0.0984
1.616
0.02165
5457
0.02191
32.5
11.1
5.043e+06
2.528e+05
8.191e+05
0.02194
110.8
399.8
0.02172
10.7
71.57
43.71
5.786
17.43
346.3
14.3
3268
0.1757
22.99
1.663e+05
309.1
493
649.3
0.02192
9.155
3.439
20.82
0.02209
628.7
3440
451
0.01964
21.96
0.08458
1546
8.023
1799
15.99
0.02228
168.5
5.85
0.02081
0.2887
96.39
313.6
213.8
195
431.6
11.38
68.86
167.6
43.96
75.76
0.02183
1483
31.91
570.9
46.31
21.98
0.02212
0.02207
0.04591
143.7
2.469
0.02171
0.02956
2.606
581.4
22.01
5.398
743.4
3016
1.532
0.02221
0.02134
453.7
16.49
61.37
0.03185
3849
32.61
60.18
0.5587
845.7
0.02171
20.12
34.23
27.85
0.0279
174.1
11.93
2.037e+04
0.02026
85.49
2521
0.02171
15.89
0.02173
153.8
69.72
0.02175
228.7
314.1
435.9
39.66
45.61
420.7
385.3
15.33
182.9
148.9
208.1
50.12
72.67
666.8
0.02683
526.3
0.02173
2.816
0.02315
40.28
0.02116
0.02173
0.4362
232
21.6
0.02136
0.02114
254.3
2049
214
473
11.37
1.175
16.85
13.08
31.24
115.1
405.6
0.02139
86.27
30.32
0.3806
25.06
0.02228
0.02951
83.46
2788
80.76
1.091e+04
0.0231
0.03882
50.06
93.75
0.02535
317.8
0.1057
0.07665
197.5
5.401
30.57
0.0828
8.656e+06
773.1
28.77
35.17
40.03
54.86
714.1
112.9
0.02418
43.63
128
17.33
0.02121
188
0.2335
0.148
0.01962
0.02119
1.121e+04
0.09896
401.1
41.94
92.35
11.88
0.3488
632.4
0.07219
370.1
0.02162
0.02089
1.709
0.05478
265.6
0.1489
1335
10.5
400.1
0.4905
16.52
0.03786
513.1
0.04184
391.9
1.213e+06
37.47
131.4
15.33
0.02947
62.7
212.7
8807
9.552
17.73
31.15
2901
21.49
311.4
8.475
302.1
79.39
20.06
10.48
0.2023
1.868e+07
0.2317
0.02522
113.4
64.9
138.6
0.02154
59.4
8.235
21.71
0.0417
1.158e+04
72.43
864.5
0.04796
129.2
49.34
105.9
49.2
0.04008
16.45
569.2
235.5
17.61
0.02177
47.22
49.7
0.02176
20.34
0.5665
51.43
44.41
0.2558
37.7
1507
117.4
0.01935
16.61
9.215
1489
499.8
0.1367
10.54
375.8
0.01938
41.58
195.1
60.13
1.371e+05
63.17
421.5
22.99
23.63
2.006
0.02193
1.397e+07
36.46
37.25
1001
23.7
137
67.07
256.8
0.02132
8.491
4.932
0.04002
81.97
121.1
94.03
45.98
0.02048
16.28
45.51
0.02162
0.02042
25.55
9.157
11.34
129.2
19.97
4.925e+04
8.098
0.1345
0.02123
23.94
50.36
369
720.9
0.3418
0.05638
0.02184
2.063
4568
0.02125
0.3106
1812
62.78
1541
0.02733
25.23
67.65
0.0218
471.1
0.0212
96.26
4543
64.8
152.7
3360
0.02194
215.7
0.09099
607.5
241
756.7
4133
0.1359
0.4046
0.6782
2e+04
0.02178
60.79
533.2
857.2
134.8
5060
0.05411
1.551
465.4
2166
1.117e+04
371.8
3.474e+05
650.9
6.393e+04
45.18
805.7
8.543
8856
0.02248
119.4
0.0275
0.02713
30.68
0.02478
35.25
14.94
2.942
1.082
0.03541
399.1
122.1
0.02175
10.45
40.78
0.03426
279.9
3.784e+04
38.2
16.51
382.3
25.77
191.4
0.02168
43.59
392.5
0.02306
206.7
31.96
8.883
0.02069
2.497
15.1
1.131e+05
2.503
3.826e+04
14.13
20.76
93.78
3782
118.7
0.02404
3219
0.2022
0.02443
1.57
1.213e+05
29.4
252.1
10.17
2.612
7372
5.832e+04
259.1
0.02218
0.02183
17.61
3.496
65.72
202.2
10.75
2075
178.9
0.05752
2032
0.04146
1901
0.0216
17.45
769.1
21.34
77.04
16.56
0.02177
0.02178
698.5
0.1295
106.3
260.3
268
13.11
105.9
158.4
83.78
1.54e+04
34.73
451.9
232.7
14.64
11.82
49.92
122.7
1562
4.458e+04
17.1
0.02154
0.02138
14.51
25.38
0.4897
0.02078
15.46
16.97
0.5075
208.6
94.68
143.3
0.9883
0.02223
0.2081
0.5612
4679
911.9
51.64
0.2007
55.62
304.7
246.2
28.49
9.584
36.15
149.1
57.54
2446
0.0227
4517
4521
9.106
37.11
442.1
0.02173
1.148e+04
1.758e+04
0.02212
0.02154
38.74
19.97
1.624e+05
144.3
114.8
424.2
218.5
0.2364
0.3161
0.02267
259.1
20.57
134.5
2.202
1927
31.32
0.03011
1.153e+04
71.29
0.02172
86.67
0.02615
0.02164
24.86
0.08231
1.207e+04
0.02157
469.4
0.02181
156.9
0.07127
10.22
7.579
469.9
322.6
234.7
42.84
0.05555
0.03673
22.56
210.1
143.3
168.6
3883
253.5
1.759e+04
42.67
398
194.1
302.2
1557
0.09954
8.648
0.0532
150.4
82.65
832.6
0.06793
412.4
12.62
92.39
115.3
32.06
0.7813
447.9
11.2
92.44
119.3
656.5
253.1
0.02116
23.16
158
0.02181
82.15
272.8
0.02065
1.459
144.6
0.03441
0.1033
33.13
94.92
0.1298
0.01975
74.58
88.84
0.0216
0.07932
0.02836
16.85
103.2
10.42
0.03264
716.1
3.483e+04
512.4
266.8
12.15
8850
0.08047
162.2
0.02176
25
5.394
62.86
115.1
880.7
2496
0.02196
1.665e+05
534.3
382.7
56.76
1089
10.45
9.62
1032
77.68
0.03116
3.354e+05
33.26
257.9
725.2
192.9
110.5
78.69
1967
102.1
55.97
153.4
345
280
26.32
3.092e+04
0.09321
132.1
0.0825
487.2
0.01968
0.02165
72.3
1.129e+04
18.52
1.742
1.314e+04
436.6
0.02179
1732
114.1
126
3.858e+04
1.493
55.71
3.373e+06
10.65
3008
11.86
85.64
1422
290.9
666.9
5.815
107.8
0.07365
15.72
23.59
58.51
7.954
110.7
10.94
7551
15.43
0.1938
14.41
0.2942
0.2898
14
2.944e+04
0.03394
2660
807.4
72.19
39.26
0.0218
10.48
32.92
0.4251
1352
727.1
884.9
0.02135
374.2
769.5
22.76
1.122e+04
140.4
8.63
330.6
0.02182
414
56.66
3509
56.79
0.06472
14.23
0.02171
4.124e+04
1.304e+04
33.05
0.4018
6.549
0.02087
0.01976
215
24.3
8.377
0.05807
0.05279
0.0533
1.682
23.25
11.78
93.45
241.2
1.338e+04
0.5444
774.2
70.96
107.4
0.0198
396.3
11.59
76.02
1.659e+04
94.87
9.479
53.73
58.86
21.02
5.176e+04
22.51
27.57
11.26
10.02
4.792
232.6
4.295e+04
0.09202
583.6
0.02118
253.6
842
0.0203
1261
40.78
45.95
372.5
0.02137
0.546
1.105e+05
0.02173
214.8
227.8
95.31
5060
0.4695
4.729
357.4
1479
41.89
75.56
0.04609
101.4
3121
6085
456.3
36.93
0.02169
196.8
8.557
611.7
83.6
9.247
39.96
0.02162
2.255
111.3
0.02213
10.42
0.02295
2754
10.93
9455
93.49
55.67
683.5
22.1
176.3
411.7
8.516e+04
37.82
73.1
49.08
18.84
13.6
0.02211
51
0.02197
11.38
0.022
14.19
0.02147
308.9
66.24
0.02065
0.02161
187.3
0.1079
372
0.08023
0.02
4.76
23.1
0.02993
8.692e+05
1346
9.035e+04
182.8
39.87
275.5
189.6
44.96
4.6
2253
25.32
625
209.4
33.16
80.04
8.201
0.02155
8.447e+04
29.23
2363
0.02178
1.513e+04
202.8
289.1
76.86
0.01973
0.01971
15.14
25.29
6.178
9.839
69.35
0.5682
0.5178
2.99
3.994
1380
31.27
0.6444
19.05
4.869
391
305
88.32
301.2
14.83
0.02182
77.93
96.82
5575
41.25
0.03463
77.56
1.306
153.7
46.7
535.7
14.46
0.02174
21.19
33.34
2.138e+04
4883
0.4934
35.95
477
0.1182
0.01972
689.7
153.4
7.833e+04
0.04657
3.13e+04
60.86
0.02152
73.77
589.2
10.34
0.08245
15.13
339.1
60.5
73.63
47.51
1254
0.03901
251.5
474.6
472.2
0.05937
0.05922
318.7
3.062
7.669e+04
40.45
561.3
624.9
8.492e+04
1.554
155.5
0.02414
0.02173
0.02149
15.34
0.02345
2.367e+04
0.02172
3600
0.2049
21.3
118.6
436
0.0978
8008
0.1903
120.7
15.49
4196
0.02168
54.6
282.7
14.07
3821
703.2
21.57
692.9
1168
0.04391
0.0206
3833
0.07474
0.01994
0.2101
3216
0.0206
1435
0.02184
28.32
155.9
13.12
50.17
0.02091
18.3
227.1
87.83
0.05181
13.91
0.1273
0.02173
0.02122
35.59
1.557e+05
26.86
97.66
0.02351
1.039e+04
0.2523
0.06641
0.06281
0.9867
75.18
392.1
0.02423
218.3
0.02213
31.97
0.02217
0.1775
136.5
37.65
2.2
708.4
73.57
0.02118
70
1053
193.7
1.383e+04
732
9.105
0.03312
2.032
1.634e+04
55.17
644.7
9669
0.07827
0.09892
0.02159
75.69
203.6
83.62
0.0218
284.7
0.02175
0.1587
80.11
0.02135
8.73
0.3982
21.28
14.32
1.213
281.2
0.0219
389.7
2702
3.546
8.574
178.5
0.03888
163.8
42
1554
59.86
39.86
469.5
33.12
60.9
3634
0.06264
0.1067
82.39
0.03303
233.2
18.11
0.07438
85.28
0.02366
0.4078
1579
14.7
136.2
68.72
1.451e+04
45.31
5525
0.8047
0.02066
5599
143.3
0.08524
302.5
0.02726
51.5
0.02223
10.82
3127
12.84
6.096
73.35
153.3
0.02187
67
0.2017
4.333
512.7
0.02463
100.9
1121
0.02159
0.02462
52.12
0.07604
93.22
1.969
1.264
15.57
0.5428
19.69
0.07217
1.338
37.37
0.02117
0.1274
844.8
1.479e+04
0.02085
166.4
4522
11.59
179.2
9.858
162.6
1.439e+04
0.05923
0.1147
66.98
0.02444
358.9
7.67
20.36
1860
74.11
0.02424
79.85
2.224e+05
8.321e+05
67.59
74.25
72.38
0.7882
15.04
12.43
23.65
453
176.7
165.3
192.8
7186
18.48
1.675
0.0217
540.8
1.791
25.18
0.1223
0.03627
150.7
68.25
8.378
0.02034
477.8
745.5
116
114.5
13.77
1.566e+04
294.9
0.02562
92.66
5803
18.68
115.1
2.572e+04
0.0194
2148
480.2
166.5
0.02779
18.84
11.32
518.2
122.5
17.2
738.2
0.03484
1.613
202.3
0.04701
13.46
0.02165
341.1
2640
152.6
808.4
1.151e+04
20.93
6475
0.1124
456.7
4.195
10.16
0.03296
9.318
32.16
17.44
121.4
0.06842
104.1
5.871e+04
1.564e+04
48.06
67.49
0.3969
0.4668
0.02182
0.02493
61.62
0.2554
0.02166
81.45
134
237.7
108.2
13.46
209.6
53.06
1161
1.671e+04
1.819e+04
0.07821
102
4.583e+04
9.936
1769
9.102
15.8
43.96
5.816e+05
11.63
14.35
0.0449
0.04769
783.4
60.43
0.02172
0.02196
11.91
741.3
16.68
113.2
1.032e+04
5.381
0.02387
613.1
10.46
73.55
1554
0.8128
7.122
43.73
42.64
0.7147
43.49
0.02188
549
9.313
656.1
14.92
219.4
2030
2.181
647.7
65.96
450.9
145.7
1692
0.06545
11.02
36.37
21.19
250.1
81.61
3334
281.4
0.02163
95.08
9.175
533.8
69.52
0.2776
18.78
0.06682
1721
0.05051
76.44
29.68
46.16
12.18
20.72
1.196
1.607e+04
0.165
0.02408
617.5
0.0209
16.6
0.02957
0.862
10.47
0.02151
0.2242
209.3
1192
0.02176
0.02273
11.66
19.89
159.1
0.1524
62.65
39.31
748.7
367.2
24.3
71.13
116.9
0.08331
110.6
1.702e+04
9.037
2101
323.3
9.581
1.425e+04
0.02172
0.0206
0.6889
3.246
9.238e+04
0.02179
12.97
478.3
8.894e+04
218.2
485.4
0.01984
0.01961
303.9
47.27
41.69
32.86
0.03055
31.39
1.683
0.02222
608.2
175.9
83.87
32.12
1675
11.43
1.969
0.01976
12.74
203.5
641.3
435.3
38.63
5541
365.7
32.72
120.3
152.2
44.17
0.06215
56.72
3282
0.0282
0.02714
187.4
100
3879
0.8241
575.1
51.02
0.1441
0.02172
4.358
0.02211
20.04
1.15e+04
8.241
0.1061
75.88
0.04224
6893
324.8
0.06707
15.41
13.13
97.48
23.3
72.81
47.88
34.83
24.44
32.49
18.45
11.21
1274
126.6
29.99
95.88
6680
71.92
348.4
378.9
1.515
0.9381
23.39
6511
0.3168
62.71
0.02212
14.48
0.02214
149.2
8.554
6529
100.8
0.07321
835
5.372e+04
809.4
22.44
66.66
548.6
1409
0.2734
24.42
30.89
3.438e+04
54.27
31.25
0.1947
0.2075
0.02174
26.04
5110
5.857
939.6
12.72
0.0641
1106
0.0197
63.69
0.3656
19.61
1108
0.16
1.991
8.959
0.03435
215.2
26.31
1.776e+04
735.3
163
0.0214
33.61
132
2997
965.5
35.05
8.194
34.74
0.02171
271.7
601.2
2.859
15.6
39.39
1480
486.5
365.9
18.54
0.3145
0.9325
6875
8.728
0.05607
2.31e+04
0.06923
21.03
0.02173
0.02199
20.94
0.02182
537
70.03
36.52
22.94
476.4
1378
58.49
541.7
54.33
16.43
1.484e+05
21.08
45.04
2.403
5.788e+04
11.46
4811
5849
0.04479
471.9
458.1
4.588
12.92
3091
189.8
778.8
17.06
22.42
0.02546
8.39
0.02206
0.4876
12.58
275
43.46
71.34
9886
12.44
0.02179
133.4
25.46
19.01
48.21
24.51
43.91
442.7
1234
5106
152.3
201.9
469.6
42.49
139.1
0.06001
7.239e+04
95.61
85.33
0.8346
0.02158
320.3
156.6
15.09
4.337
5466
422
110.7
65.78
29.63
2115
0.02164
4110
9.308
0.03324
33.47
482.9
0.02164
87.14
12.47
13.64
5947
8.417
39.92
5.813e+04
25.15
196.5
0.01965
0.0196
187.3
105.6
2.306
204.5
118
0.02151
1710
683.8
28.49
0.02174
0.0218
37.23
62.65
190
1.963e+05
501.3
0.03016
394.8
1.864e+04
0.07381
453.4
256.8
0.1106
0.8129
807.3
28.85
30.87
0.01964
0.01951
0.01947
0.02033
0.07314
27.5
23.41
514.7
8.063
144.3
19.92
536
0.02084
39.42
34.5
1780
479.6
2255
103.8
64.1
263.1
26.9
142.1
0.1214
93.94
1.1e+05
191.3
2048
0.2175
113.9
0.02172
6.032e+04
39.76
299.6
7.291
0.02969
1.933e+04
0.02179
44.95
334
0.04627
46.03
56.65
14.25
69.42
3664
0.03599
330.6
0.02066
1.573
129
148.4
14.31
53.93
0.0215
0.02168
0.1287
345.4
479.6
0.1833
14.91
56.43
3.171
1997
266.9
14.3
9.946
27.94
37.75
0.1332
2.917e+04
0.1845
0.02173
4840
0.0217
0.02167
0.24
0.112
3610
13.28
724.8
21.74
280.9
0.02187
0.07711
189.9
179.4
12.79
0.05861
0.1645
1.721e+04
1814
0.02213
3408
2380
9.479e+04
0.06973
11.84
18.8
0.06945
0.02296
11.11
56.13
1.439e+04
0.06128
417.2
6.369e+05
0.02174
310.9
911.3
113.8
0.02178
511
2.447e+04
3.855e+04
1.965e+04
0.36
139.4
2.035e+04
0.04405
54.17
0.02153
14.37
349.2
8.429
182.8
1.904e+04
0.1682
71.41
65.77
0.02225
0.02895
335.5
469.8
9.394
3977
41.69
1.261
10.85
27.11
174.4
39.85
0.02174
57.54
36.12
182.7
202.7
130
318.7
71.13
2.508e+04
2.877e+04
3.566e+05
350.6
0.04412
774.7
0.02416
570.9
1085
0.02175
1.923e+05
0.02221
107.3
4854
1225
96.23
49.73
262.6
244.2
0.01964
1.637e+05
246.6
0.05966
10.42
69.07
3.22e+04
6061
5.738e+04
11.1
369.9
1719
15.27
0.06099
81.87
3409
0.02088
36.06
60.2
104.9
49.56
28.83
10.94
1876
115.1
135.5
5911
0.08525
1382
0.06963
50.56
129.2
0.02335
0.06673
43.48
279.6
103.2
2.409e+04
0.05747
0.02171
5.47
204.3
1267
24.26
8.202
0.0197
0.02744
718.3
0.01997
165.4
328
0.06024
59.16
34.77
7869
2.567e+04
1.51e+04
0.03139
371.3
56.43
52.64
11.27
9.452
6330
12.8
791.5
216.4
3258
166.6
1.514
1.476e+04
25.66
76.98
24.63
0.05311
53.88
0.3258
0.02179
26.94
83.68
35.02
85
40.26
4.702e+04
7.37e+04
10.94
5.447e+05
0.289
0.3678
0.0296
0.04337
30.22
0.02221
286.1
2.155e+04
218.6
1927
37.75
57.85
157.3
40.29
11.36
246.5
16.21
2283
69.24
0.02599
76.68
79.43
0.02204
0.03442
880.6
0.02185
83.54
83.37
212.5
8.16
1271
0.09961
30.52
0.03388
507.3
5324
584.3
58.34
0.02143
344.6
0.02153
0.2494
79.72
39.65
1.432e+04
75.07
408.3
9.686
1697
0.3491
0.2104
16.26
175.6
0.02083
5.344
0.02185
528
713.2
67.98
46.11
0.02159
284.2
281.7
61.6
1.443e+04
87.03
1035
0.02258
36.28
3.792
2.149
108.5
26.07
0.06922
0.8382
0.09901
18.53
81.67
0.02069
0.02024
0.02195
0.03284
0.1089
1345
216.6
0.02176
190
11.73
131.8
0.02194
190.4
0.05359
911.2
0.09865
1.085e+05
144
967.5
0.04477
0.08259
1.528e+04
0.02685
127.1
160.6
229.6
120.4
41.24
0.02181
219.4
263.3
85.87
50.59
33.38
8.524
21.84
75.5
931.8
0.02149
14.51
45.98
1906
0.083
0.02209
124.3
598.6
16.08
16.52
15.79
759.9
0.03742
27.67
260.2
11.16
97.78
100.3
0.02586
4.022
1.582e+04
101
90.45
1945
0.9406
7.814
0.02166
0.02636
0.105
0.04775
1.613e+04
59.04
0.02195
0.02222
84.56
7.597e+04
0.02194
18.44
5596
128.6
5.348
57.58
1254
44.08
7.054
436.5
2.919e+04
897.3
0.0218
31.09
60.44
51.08
0.02139
0.2876
92.86
21.14
189.3
1.879e+04
2505
12.29
299.2
3.039e+04
10.02
480.9
17.48
0.9895
0.6926
934.6
1.042e+04
0.02157
107.7
104.2
0.02193
2080
13.44
1.092
0.05977
66.44
426.2
119
42.02
0.02165
0.02175
10.56
92.53
0.01998
15.53
0.02426
1112
10.9
13.38
306.3
816.2
15.57
94.72
0.02139
1.831e+04
3.488
1693
330.2
0.05639
736.4
28.44
90.06
1.437e+04
8.224
1.342e+04
0.02074
0.02123
21.1
0.0423
0.02139
3.511e+04
170.4
281.2
1514
81.31
23.62
0.0287
3.404e+04
0.03946
80.03
0.02022
0.07969
107
29.44
28.05
58.69
9.371
413.1
0.02046
26.98
1816
1699
2445
0.1077
32.26
15.9
0.02195
383.8
134
1.913
0.03755
56.76
1.478e+04
0.02196
0.0215
21.84
1156
11.13
1445
0.02206
2362
54.42
108.3
0.02208
0.05957
531.5
203.2
846.9
17.16
11.66
0.02043
462.8
0.03146
381.9
2.396e+04
0.05525
77.59
10.49
3473
9546
489.7
0.04876
0.02047
33.19
0.1302
0.02163
127.6
81.42
10.43
0.0203
0.06212
0.05913
0.02558
330.7
39.29
0.02172
326.5
83.6
551
0.0256
0.02191
0.02162
0.0503
130.7
19.23
373.3
1.519e+04
9077
76.06
2.967e+04
1841
0.02286
1.294e+04
37.03
1302
9.411
0.1028
0.9316
3072
328.8
1393
201.3
0.04685
19.53
271.8
90.18
5.126
0.1609
115.3
0.0949
270.3
0.03726
21.95
16.42
10.75
0.1353
340.2
2.817e+04
2169
0.02061
1.538e+04
23.15
0.01992
56.5
0.02181
747.3
37.13
0.1198
156.1
200.3
0.0223
0.8696
8.451
4204
0.02223
0.1085
5056
5.241
0.02157
1220
23.98
0.03032
0.1031
14.42
149.6
1.937e+04
363.1
41.4
11.58
352.4
0.3924
0.02169
0.03667
303.4
88.89
41.88
0.02207
4.063e+04
188.3
32.28
91.07
23.81
37.6
0.02016
0.05419
214
75.34
0.0363
109.8
462.3
9.403
0.9539
2.204
9.473
0.0351
8.63
31.86
60.32
17.56
0.02205
522.8
0.1672
26.75
6.883
3.613
1884
35.76
1.033e+05
17.87
0.2607
0.3015
0.02117
6.88
24.85
1423
506.7
87.24
316.9
1459
52.09
0.2974
39.46
345
2731
31.76
0.03465
828.1
0.5629
653
14.28
10.24
24.32
192.2
0.02179
103.1
0.1809
0.02164
5.194
814.5
1.315
7.037e+05
432.4
373.4
0.02165
47.13
75.64
0.05069
24.51
39.15
1145
179.6
1166
0.02188
53.9
0.02064
3.604
114.5
152.5
6.302
363.9
5.25e+05
0.02148
0.02174
46.25
101.8
709.1
1.334
117.1
443.9
28.54
12.93
0.02177
139.4
996.1
0.05594
21.06
0.02156
86.02
0.04618
83.89
297
49.76
0.3194
800.3
111.2
0.02463
220.7
48.06
1.247
0.02145
0.02243
319.3
1608
24.35
8.164
41.86
17.41
149.4
23.84
0.01941
0.1324
0.287
2.869e+04
1015
658.2
0.02134
356.9
119.5
886.5
650.3
7386
2.002
37.74
98.04
64.66
418.2
1570
18.71
0.07619
9.432
0.02933
5.274e+04
0.02221
14.3
331.9
34.24
13
285.4
28.95
4641
11.3
166.8
69.04
5.171
139.7
2.777e+04
20.78
1.555e+04
1.076e+04
0.02174
1.721e+04
52.56
820.1
964.8
58.29
37.27
122
75.46
16.58
0.03369
16.07
13.57
47.58
23.12
38.29
0.3201
1.85
26.95
1.778e+04
28.17
3018
88.84
360.6
0.02027
277.5
36.67
1450
11.59
6883
128.1
236.2
0.06807
1292
0.05999
16.31
21.73
0.06483
0.5469
16.93
25.45
66.59
142.1
16.25
160.3
25.68
6920
22.79
9.512e+04
0.03362
51.98
97.35
9.353
0.03752
268.6
0.02172
0.02188
0.02173
32.14
130.4
308.3
14.17
0.06876
27.43
0.03621
9.416e+04
1142
1.696e+04
195
0.05038
444.9
1518
0.06934
715
0.02186
48.64
8.969
298.9
30.46
0.02128
0.02138
50.57
9.006
0.03515
1.818e+04
141.7
0.02095
0.0218
56.27
0.03005
438.2
3534
0.03282
4.095
272.6
393.6
158.2
1.901e+04
6.303
0.123
38.86
231.2
0.09873
132.2
28.64
0.7304
434.8
57.91
5.517e+05
0.02672
77.47
2860
1237
0.02183
23.59
0.02175
15.6
53.69
39.63
51.8
228.7
24.41
0.138
713
904.7
321.5
661.9
453.3
34.29
10.7
66.76
119.2
19.26
296.3
0.02244
1.614e+04
6263
789.3
35.88
9.19
1150
364.7
0.2139
0.8216
2.147e+04
72.96
0.05649
0.03204
0.0526
267.3
312.5
28.88
1633
56.4
0.03753
111.5
60.46
60.59
309.5
9.811e+04
413.4
55.02
232.6
26.29
44.97
1268
35.04
24.18
9.235
819.5
22.64
0.1913
32.19
391.8
0.07213
163.9
0.2103
16.83
1.878e+04
371
0.02204
334
17.88
8796
491.9
0.02135
0.08545
431.2
0.0278
24.67
1028
271.7
9.129
0.02176
0.151
12.26
13.9
0.07637
283.2
0.02077
359.7
18.65
207.5
151.3
37.65
39.65
296.5
319.9
0.1379
80.66
0.02181
2.535e+04
0.0327
0.03183
154
0.02177
5.289
10.39
3.372e+05
0.02196
145
66.8
315.6
274.2
0.1876
36.63
23.38
262.3
1270
22.36
0.06096
0.02188
160.3
204
22.46
38.77
546.5
1141
0.5337
0.02113
31.7
189.7
3.903e+04
48.83
41.72
0.4064
179.5
0.0215
14.48
2208
690.5
0.02197
0.1643
485.2
0.01977
74.18
830.6
43.66
0.02195
0.022
8.555
0.02291
0.02013
0.02173
8.527
246
736.8
0.2427
127.5
8.365
14.34
0.02225
14.61
63.26
0.04058
0.6282
669.6
11.77
0.02492
855.7
27.07
8.186
1.615e+04
2.012e+04
0.0246
53.84
19.6
181.3
31.74
1818
0.02194
179.9
1.768e+04
2.768
183.3
0.3594
1071
32.91
160.1
13.3
9083
0.04621
5659
28.29
0.02529
0.02795
0.02007
127.8
18.9
1261
113.5
2.877e+04
0.06155
0.01942
114.2
255.8
0.06327
0.02177
509.9
9.747
560.3
26.59
890
164.3
54.41
4.968
203.7
0.01971
9068
72.97
36.36
13.34
0.05769
0.02185
20.16
12.29
300.2
1950
35.73
0.03656
27.19
14.38
0.0531
0.0218
802.6
162.2
2545
89.27
20.21
0.832
38.13
16
5.837
78.21
0.3362
0.1144
0.02192
42.86
7205
22.56
0.3084
2693
0.5233
0.02168
20.61
0.02892
0.02203
8.148
0.01935
0.01931
1.956
0.02011
27.56
2.432e+04
318.8
11.97
0.1169
0.02113
0.02197
58.13
176.2
13.26
1.736e+04
14.38
0.03028
10.88
26.46
1315
3.23
0.02198
2.726
16.88
0.02203
0.02136
44.75
190.6
0.04805
0.02734
42.33
0.0213
1.865
0.02148
9.808e+04
5.232
463.7
9.57
0.02679
1
9.122
19.56
427.7
20.09
70.27
15.7
0.02214
1.209e+04
14.67
250.6
0.02191
203
138.3
48.31
319.2
0.1832
189.1
11.04
0.1187
1462
0.02205
2.157e+05
14.33
9704
0.02197
80.7
0.02173
0.07727
3.01
3264
14.46
118.2
13.99
0.118
1380
0.1321
809.4
1672
8.333
0.07652
0.05839
305.7
0.02162
3.067
19.63
34.23
14.11
0.02174
5485
0.03396
111.4
296.8
85.67
576.4
4555
19.69
415.5
89.14
1.495
15.33
0.3406
0.02172
0.02181
329.8
10.69
6503
15.39
23.69
0.02179
55.96
0.02179
0.02168
0.03199
124.2
0.0934
16.63
0.03619
30.14
0.1526
40.85
211
1347
0.0244
140.5
119.8
83.7
0.1462
19.67
0.02187
81.97
0.4362
47.58
3.094
0.03275
197
3.748e+04
157.2
1024
19.7
1.122e+04
879.3
1.156
20.51
726.5
35.57
4.423e+04
216
20.9
39.76
69.85
24.9
533.2
356.8
0.0393
28.21
0.09808
362.1
1.036e+04
72.72
683.6
253.3
12.93
167.4
0.03374
194.3
25.96
2.084e+04
10.61
0.0222
17.88
35.68
132.3
0.05963
89.85
140.3
21.49
0.266
155
16.02
4361
134.5
57.36
21.43
18.45
480.9
0.02433
247
3.154
0.02328
46.31
48.82
191.2
291.2
99.69
0.02202
427.4
5.883
0.0664
1.102
305.2
6.267e+04
64.56
0.02084
0.02523
0.2716
179.2
54.46
0.0215
1.546
205
430.1
5809
0.02103
204.2
2526
38.57
4.817e+04
49.46
61.2
181.6
23.11
38.14
0.02305
44.54
2424
45.28
230.7
1.34
22.15
0.02158
0.07814
204.1
104.5
20.74
639.4
55.25
0.0217
2224
43.04
0.1293
293.9
5525
6805
0.04377
0.1172
0.02431
79.69
1827
305
974
91.09
380.1
0.02181
40.74
5.056
9.5
2836
0.3287
1.739e+04
69.39
1338
0.032
142.2
1257
0.02168
129.3
71.45
43
11.14
0.0219
0.02168
0.03884
24.67
0.0217
12.5
6115
0.09627
15.97
204.3
0.03672
61.53
11.14
0.2813
1379
91.78
6150
37.4
0.02173
116.6
1699
0.0217
4026
10.78
53.86
31.93
138.9
50.77
181.3
15.22
10.76
0.02194
11.51
0.02178
0.05253
1121
112.3
47.58
37.96
0.6548
94.53
0.02173
0.01964
0.04744
76.5
32.99
73.9
1.741e+04
13.71
1.113
140.3
0.5308
8.135
0.02135
497.8
451.6
17.23
13.5
64.3
106.5
31.42
18.98
0.7351
0.0225
145.5
16.73
107.6
1330
1.603e+04
443.7
0.02149
51.08
20.05
18.97
8.115e+04
0.02164
44.34
19.49
24.97
55.24
19.94
5.008e+04
56.86
10.09
456
2834
13.34
71.47
2422
1.386
0.02168
258
16.44
30.76
72.52
16.75
0.9977
0.04681
617
265.6
864.4
9.19
726.3
173.4
0.02171
116
71.75
39.77
12.34
0.01934
266.3
37.61
28.96
2.974
0.02133
203.4
11.36
5.919
44.99
209.8
54.66
31.79
397.4
390
0.01992
78.47
36.81
42.97
432.3
176.2
35.19
19.02
28.12
8.658
126.7
391
1.649e+04
632.8
353.8
1.037e+04
41.35
0.07091
2.264e+06
342
1497
0.03594
1663
1231
263.3
30.52
0.02195
0.9112
0.02178
15.04
73.76
4.987
0.5437
15.67
611.6
21.66
2.111e+05
13.1
252.7
708.9
1.552e+04
423.7
217.6
16.66
0.08041
62.48
15.6
1.92e+04
61.99
0.2751
0.7141
1555
1.157
0.022
0.02169
31.96
52.15
0.03677
0.02017
0.02182
485.6
158.7
1.014e+04
0.02155
0.032
61.21
0.01977
0.01991
250.7
0.05638
121.3
414.1
0.05155
1287
9.293
35.63
8.246
24.27
0.04459
59.37
18.36
6.402e+05
29.76
342.1
949
1221
10.77
0.03192
10.39
628.8
0.0217
9.491
117.1
566.1
1.301e+04
119.3
27.82
658.8
0.02416
110.3
2339
217.8
85.07
57.68
0.07344
33.14
14.75
1770
131.5
173.3
0.05051
831
259
0.03625
19.64
0.06832
34.82
0.02539
1961
1.662e+04
0.02693
461.7
130.7
0.1304
842.4
45.88
0.02217
5815
58.09
187.9
449.2
0.03239
19.21
5.076e+04
76.98
399.5
14.32
18.23
3.061
14.97
158.7
0.05948
1.753
41.44
60.52
26.7
14.72
55.8
6.617
64.57
500.6
47.76
6.2
1.17
0.0218
0.08224
638.7
18.34
0.01936
3.148
37.66
2.941
162.7
73.01
15.07
0.08493
546.4
83.47
0.11
36.84
168
0.06588
601.4
0.03695
637.7
9.549
0.1535
0.06127
10.18
687.3
37.69
0.02091
57.46
210.2
112.3
0.2255
0.02181
11.43
356
556.2
47.57
58.45
11.66
506.8
10.61
27.65
2.24e+04
9.771
1.911
4.54e+04
335
13.4
14.39
0.02204
1.222e+05
0.02193
24.91
113.1
98.59
136.2
117.8
1.957e+04
9.731
13.18
23.13
3.095e+04
456.9
12.91
4.312e+04
6558
461.2
126.6
0.191
0.643
19.09
24.31
0.02187
385.7
2.057e+04
0.04184
67.91
6.841
15.79
304.8
409.4
4.049e+04
1599
199.7
0.01955
0.01939
0.02178
506.9
2188
0.2435
0.02158
0.1497
2612
6.502
4.475e+04
76.31
0.02194
3.869e+04
0.01937
1.845
10.64
0.03541
14.19
0.2989
1.449
0.05091
330.8
18.31
59.57
113.4
2.328e+04
11.87
114.7
194.5
11.01
0.02213
9148
424
683.9
89.73
927
229.7
388.3
0.0499
25.93
242.1
27.71
390.9
0.02934
818.4
33.92
758.4
13.82
0.4743
0.9365
0.02176
235.8
31.95
114.3
181.4
11.6
706.1
45.4
20.82
11.53
139.7
0.1476
866.8
275.1
259
33.06
0.06111
10.69
0.0797
65.3
16.25
87.59
2.878
265.7
14.7
15.63
387.8
0.1807
1986
29.86
0.4077
0.08019
3.568e+04
306.1
226.7
29.97
5569
0.02204
6023
512.6
70.31
57.87
62.63
79.66
67.82
15.61
66.7
70.79
200.1
3528
0.07825
0.02186
0.02168
111.6
157.8
2.027
2.473e+04
115.1
9249
924.8
98.55
1834
1.836e+04
11.06
415.4
743.2
43.14
1.914e+04
0.02166
48.06
615.9
629.1
0.02157
596.7
62.73
206.3
300.1
203.1
0.02168
15.25
229.4
804.1
0.02089
155
9.705
0.1272
3.08e+05
0.03366
10.56
12.81
235
308.3
0.2545
46.34
1.829
153.4
722.6
112.1
0.01939
15.08
6.577e+05
0.02481
0.02241
2002
888.9
38.2
404.9
0.05835
39
43.47
54.98
40.48
175.6
0.01999
42.28
9.962
0.1037
0.022
30.37
0.02119
8.248e+04
38.57
1.233
8.279
1.346e+04
0.02169
99.27
0.02
0.02216
321
0.2809
1346
9.056
0.03857
33.93
354.1
21.7
22.42
29.21
372.1
117.8
441.6
482.8
420.9
5302
833.7
59.64
362.4
110.7
186.7
0.1942
0.02112
0.02118
3323
21.71
299.7
4.274e+04
0.02177
272
0.4445
0.02038
17.05
4.935e+04
8.459
409.2
2846
0.02206
459.9
35.2
16.65
10.55
31.42
2061
102.8
0.02174
4.644e+04
1148
0.05911
0.02301
1154
122.6
551.6
512.8
132.6
307
0.02168
201.7
0.02117
530.1
492.6
4.12e+04
0.01957
0.0194
0.127
243.8
0.03023
18.34
2.112
4.121
23.28
52.38
264
0.04322
0.02601
1.784e+04
2.128e+04
23.7
760.1
0.04572
294.9
0.02223
134.1
1281
438.6
2185
239.4
424.9
350.3
0.2281
32.26
24.14
0.0247
0.02175
0.02173
11.97
202
647.1
3.037e+04
280.3
0.02393
368.8
799.1
436.1
3.354e+04
76.84
496
250.5
99.17
0.0514
2.495
18.99
0.7106
0.07651
901.3
24.15
42.64
51.56
597.5
0.3569
0.01973
1.739e+04
13.36
11.94
36.99
2.111e+04
21.85
0.02082
118.2
22.29
184.5
8.175
135.3
330.5
1.367
61.55
10.84
0.06574
176.9
0.04202
0.07105
4.728
924.8
20.59
995.1
19.04
50.73
33.59
0.02747
72.07
355.5
0.1919
43.53
1.549
1.899e+04
0.02925
0.02327
78.8
76.6
166.6
24.98
14.89
2245
0.06302
0.02183
27.86
1862
0.02417
0.4074
44.26
0.02158
1.852e+04
0.04724
39.43
84.25
46.12
0.5601
302.2
2070
2.629
0.05787
0.02172
17.73
52.23
89.18
15.49
0.02131
0.02019
0.02172
85.15
192.8
239.6
0.05539
747.6
35.93
433.1
53.11
813.9
0.3934
0.02949
4104
0.02183
868.9
29
0.02913
122.6
75.3
273.2
94.74
117.3
14.21
6.938
0.07347
2273
1240
2209
0.1446
0.4229
0.02167
1.872e+04
0.02159
160.7
1808
0.02201
13.01
148.4
282
0.08372
14.69
1.314e+04
23.35
0.02166
16.76
464.2
84.01
159.5
14.31
27.09
1.514e+04
12.64
0.0207
0.02265
1.169e+04
24.86
392.2
8.638
55.52
0.02116
0.02193
2.05
6.816e+04
1804
478
364.2
0.8632
305.3
1466
139.4
177.5
0.02189
663
8.363
238.8
17.82
16.36
0.0216
600.9
13.79
1.539e+04
1.852e+04
11.05
15.58
1.619
1004
0.02788
9.06
1.703e+04
427.6
130.7
1852
6738
128.9
191.5
0.1001
958
189.8
1345
41.33
0.02588
1087
6577
0.02172
323.1
3449
321
942.9
33.43
14.6
179.3
45.19
0.03436
66.72
0.02211
114.4
0.08611
1.41e+04
0.104
4011
48.78
214.1
17.52
12.81
429
12.14
72.81
781.1
74.91
32.9
9.505
54.95
159
566.7
90.34
0.02411
26.61
22.67
73.56
118
70.19
283.3
35.84
0.02475
35.7
2.214e+04
16.83
10.96
96.77
0.03874
32.42
0.02155
46.8
5.687e+05
8.666e+04
407
24.62
43
0.02098
0.05487
19.65
24.06
23.31
6.638
0.02178
31.5
57.99
30.32
103.3
0.02164
853.3
1324
5.848e+04
8.566
26.53
61.02
584.8
0.0478
146.3
9.941e+04
0.8464
18.47
0.2364
307.8
5.204e+04
12.4
14.49
8.344
28.78
0.02407
149.6
0.01988
1.647e+04
126.3
11.17
1289
7.52
121.6
38.47
3.212
0.04383
0.02199
0.02148
54.35
18.06
28.61
8.938
28.01
58.61
1.958e+04
0.6932
292.3
0.1957
0.02176
980.3
0.0218
13.08
637.8
5.382
25.44
23.83
4.809e+04
197
21.51
269.9
141.1
61.42
0.1192
1.731e+04