/*--------------------------------*- C++ -*----------------------------------*\
  =========                 |
  \\      /  F ield         | OpenFOAM: The Open Source CFD Toolbox
   \\    /   O peration     | Website:  https://openfoam.org
    \\  /    A nd           | Version:  8
     \\/     M anipulation  |
\*---------------------------------------------------------------------------*/
FoamFile
{
    version     2.0;
    format      ascii;
    class       surfaceScalarField;
    location    "15";
    object      phi;
}
// * * * * * * * * * * * * * * * * * * * * * * * * * * * * * * * * * * * * * //

dimensions      [0 3 -1 0 0 0 0];

internalField   nonuniform List<scalar> 
189008
(
6.778e-08
-6.778e-08
1.593e-08
-1.593e-08
1.187e-08
-1.187e-08
1.735e-08
-1.735e-08
-1.573e-06
1.573e-06
1.786e-08
-1.786e-08
8.462e-06
-8.462e-06
-2.735e-06
2.735e-06
-1.628e-06
1.628e-06
1.206e-06
-1.206e-06
9.579e-06
-9.579e-06
-3.612e-06
3.612e-06
-9.887e-09
9.887e-09
-1.985e-08
1.985e-08
5.28e-05
-6.814e-05
1.534e-05
6.089e-06
-6.933e-06
8.438e-07
-5.44e-08
5.44e-08
0.0003681
-0.00242
0.002052
-0.001225
0.0005514
0.0006737
-5.075e-06
5.816e-06
-7.416e-07
0.0004031
-0.0003428
-6.027e-05
4.299e-08
-3.778e-08
-5.217e-09
-0.003306
0.01051
-0.007208
1.98e-05
0.0004935
-0.0005133
2.02e-08
2.279e-08
-0.0002592
0.0001457
0.0001135
-1.379e-05
1.517e-05
-1.384e-06
-1.524e-05
1.45e-06
0.0001994
-0.0001551
-4.437e-05
0.003144
-0.009834
0.00669
-4.491e-05
-0.0002042
0.0002491
-7e-05
-0.0001892
2.799e-05
-2.003e-05
-7.958e-06
-6.432e-05
3.816e-05
2.615e-05
0.0119
0.0109
-0.0228
6.865e-06
2.113e-05
4.22e-05
0.000266
-0.0003082
-0.00138
0.001992
-0.0006115
-4.661e-05
0.0005853
-0.0005387
-4.946e-05
5.723e-05
-7.773e-06
-0.000985
-0.00024
0.001731
-0.003501
0.001771
0.0003839
-0.004183
0.003799
2.821e-08
-2.821e-08
0.001619
-0.001251
-3.462e-05
-2.969e-05
0.0001316
6.78e-05
-0.0004616
0.0004795
-1.791e-05
-0.0008073
0.0009737
-0.0001664
-2.96e-05
0.0004718
-0.0004422
2.12e-06
3.97e-06
-0.01381
-0.03089
0.04471
-4.612e-05
2.041e-06
4.408e-05
-0.01236
0.01092
0.001442
1.083
-0.1279
-0.9548
0.0009671
-0.0007776
-0.0001895
-0.1469
1.23
0.01226
-0.007611
-0.004647
-0.3118
0.01817
0.2937
-0.005445
-0.006914
-0.002367
-3.296e-05
0.0024
-0.0002625
0.0006467
-0.0003843
-0.0002229
0.001837
-0.001614
-0.81
0.9549
-0.145
-4.097e-05
0.0001021
-6.118e-05
-0.0003458
-0.003283
0.003629
-0.02796
0.02212
0.005845
0.002238
-0.001855
-0.0003836
0.000619
0.001619
-1.276
0.4798
0.7959
-6.87e-05
-0.000304
0.0003727
5.866e-06
9.307e-06
-0.001083
-0.0003091
0.001392
-0.1151
-0.1968
-0.2732
0.5155
-0.2423
-6.461e-06
-8.777e-06
-0.05161
0.09126
-0.03965
-0.0004534
0.0004299
2.35e-05
0.0005119
0.0004552
0.1598
-0.634
0.4743
-0.0001944
0.0001482
4.616e-05
-1.657e-06
-3.418e-06
5.729e-05
7.002e-05
-0.0001273
1.024e-05
4.525e-05
-5.549e-05
7.745e-05
-0.0002911
0.0002136
-0.0002428
0.0004005
-0.0001577
-0.0006719
0.001279
-0.0006074
1.946e-05
-6.073e-06
-1.339e-05
-0.003241
0.002895
-0.0004177
0.0007224
-0.0003047
0.1869
-0.0216
-0.1653
-0.004809
-0.006194
0.011
-0.0003016
0.0009135
-0.0006119
0.0002268
0.0001762
0.0002235
-0.0002284
4.907e-06
0.029
0.0148
-0.0438
0.003168
-0.001438
0.0002552
-0.0002581
2.872e-06
-0.0002988
-4.645e-05
0.0003452
-0.01852
-0.009445
0.6861
-0.5264
-7.084e-06
-0.0008002
-7.691e-05
-0.0002423
0.0003192
0.004403
-0.00536
0.0009565
9.927e-05
-0.0003421
-0.0003838
8.505e-05
-0.001149
0.00165
-0.0005004
-0.9989
-0.2768
-0.001292
0.0006487
0.0006435
-1.154
0.8763
0.2777
8.421e-05
-3.14e-05
1.364e-05
5.821e-06
-0.0003174
4.91e-05
0.0002683
0.0005106
-0.0008957
0.0003851
-0.2115
0.09539
0.1161
0.0006147
0.002577
-0.003192
-0.1064
0.05776
0.04867
0.1657
-0.4389
0.02266
-0.07427
3.971e-07
-3.168e-07
-8.024e-08
-1.253
0.09908
2.901e-05
5.459e-05
-8.36e-05
-0.0004381
-0.0007966
0.001235
0.01415
-0.01212
-0.002034
-0.0001285
-6.589e-05
0.000186
-0.0001722
-1.376e-05
-0.0003413
-0.0002083
0.0005497
0.08777
-0.1024
0.01466
-0.0001555
5.523e-05
0.0001003
-0.0006622
0.0005358
0.0001263
0.0002769
-8.868e-05
-0.0001882
0.0001999
-7.72e-05
-0.0001227
-0.0003935
-0.001372
0.001765
-0.0001818
-0.0002716
1.294e-07
-9.877e-08
-3.06e-08
0.0002902
-1.332e-05
-0.004008
0.03582
-0.03182
-0.0001273
0.0002527
-0.0001254
-0.0001888
0.0002178
-2.904e-05
0.03415
-0.05457
0.02042
0.009353
0.0003215
-0.009674
-0.04704
-0.04287
0.08991
3.55e-05
3.168e-05
-6.717e-05
-0.0002118
0.0001306
8.129e-05
-4.854e-05
2.421e-06
0.001398
-0.0005439
-0.0008538
-3.537e-05
-1.291e-05
4.828e-05
-0.02784
-0.7821
0.0002482
-4.834e-05
0.0002228
-0.0003325
0.0001098
0.002612
-0.003863
0.001251
0.001134
-0.0003103
-0.0008239
0.002974
-0.003812
0.000838
-0.009118
0.0001934
0.008924
0.0001926
-0.0004144
0.0002217
0.000289
-0.0002116
0.008111
0.004148
0.000669
-0.0005474
-0.0001217
-8.269e-05
-0.0003789
0.0001135
-0.0002164
0.0001029
-0.000272
0.0005015
-0.0002295
-3.602e-05
3.602e-05
0.1928
-0.005917
0.0003509
-0.0001095
-0.0002414
0.0001326
-0.0002807
0.0001481
3.738e-05
-7.834e-05
-0.0002876
2.68e-05
0.0002608
0.0001408
0.001719
-0.00186
-0.0002468
0.0002046
4.224e-05
-0.04124
0.03386
0.007378
2.381e-06
7.539e-06
-9.919e-06
-9.75e-05
-0.0001143
-0.004673
0.001979
0.002694
-0.002856
0.0009237
0.001933
1.019
-1.191
0.1727
-8.906e-05
5.984e-05
2.923e-05
-0.0007562
0.0003948
0.0003614
-7.366e-05
-8.188e-05
-0.0004214
0.0008221
-0.0004007
0.1193
-0.1478
0.02848
-0.001867
-0.0009889
-0.1237
-0.002203
0.1259
-3.895e-05
5.669e-05
-1.774e-05
-5.931e-05
-2.975e-05
-0.0002766
-0.0003855
0.0003723
-0.0006348
0.0003977
-0.006695
0.006298
-0.0002497
0.0007603
0.0005084
-0.0004886
-0.004183
0.08555
-0.08136
-7.374e-06
5.26e-05
-4.523e-05
-7.048e-05
-3.319e-06
7.38e-05
-0.04331
0.03931
0.0007012
-0.000851
0.0001497
7.496e-08
0.0001381
0.0003418
-0.0004799
-1.469
1.198
0.271
-1.464
1.194
0.2703
1.388e-06
5.028e-08
-1.439e-06
-0.1669
0.1318
0.03509
0.204
-0.03789
-0.1661
-0.05801
0.04922
0.008791
0.02694
-0.06846
0.04152
0.0002637
-0.0002215
-4.977e-08
4.977e-08
0.0003307
-0.001129
0.0007984
0.02643
-0.007749
-0.01868
0.002876
-0.0006659
-0.00221
0.01944
-0.01629
-0.2087
-0.002834
0.003488
-0.02168
0.0182
-0.0003184
0.0002494
6.896e-05
-0.06018
0.2034
-0.1432
-0.0001097
-0.0001372
4.261e-06
-0.0001272
0.000123
1.341e-06
-1.678e-06
3.365e-07
-1.209e-05
1.093e-05
1.157e-06
0.003654
-0.002195
-0.001459
-5.936e-05
0.0002031
-0.0001437
0.02243
0.004006
-0.0006504
0.0002425
0.0004079
-0.4709
0.2223
0.2486
0.0009994
0.0001348
-1.813e-06
-1.567e-05
1.748e-05
0.0001058
5.988e-05
-0.0001656
-2.251e-05
1.843e-05
4.079e-06
-0.0002336
0.0003661
0.0004708
-0.001851
6.639e-05
-6.834e-05
1.947e-06
0.0003902
-0.000371
-1.913e-05
-0.0003621
0.0001004
0.0002617
-0.04818
-0.07555
-0.001459
0.0003763
-4.817e-07
5.979e-07
-1.162e-07
-0.0002202
-0.0001418
-0.02403
0.01895
0.005085
0.0001113
0.0002396
4.959e-07
-4.959e-07
0.2253
-0.02135
-9.395e-05
3.133e-05
6.263e-05
-0.0001075
3.699e-05
-4.8e-05
0.0001079
-5.99e-05
0.0003319
-0.0002334
-9.844e-05
0.0003343
0.0003347
0.0003076
8.75e-05
-0.0003951
2.573e-07
1.397e-07
0.0009956
0.0004538
-0.001449
1.54e-05
-1.394e-05
-1.46e-06
3.181e-06
-3.181e-06
0.197
-0.9678
0.7708
-0.0004478
-0.001727
0.002175
-6.705e-05
0.0001652
-9.812e-05
0.002384
-0.001127
-0.001257
-0.0003552
0.0001169
0.0002383
-0.000167
0.0007597
-0.0005927
0.0007215
-0.0004258
-0.0002957
0.1161
-0.02833
9.85e-05
-0.0003166
0.0002181
-0.0002258
0.001483
-0.001257
-0.009256
-0.0003686
0.009625
0.0005351
-0.0003015
-0.0002336
-0.06557
0.0983
-0.03274
-0.01333
0.008518
-0.08759
0.04055
-5.68e-05
-0.0001978
0.0002546
-5.975e-06
-7.675e-05
8.272e-05
7.087e-05
-0.0001379
6.704e-05
0.0001271
-0.000326
0.0001989
-0.001046
-0.0008388
0.001885
0.002719
-0.005529
0.00281
-0.0003516
-8.076e-06
0.0003597
0.8545
0.1643
0.0004574
-0.0005752
0.0001178
-8.485e-05
-9.107e-06
0.001302
-0.00222
0.0009185
5.525e-05
-6.263e-05
-0.0001738
-0.0001436
0.001085
-0.001262
0.0001773
-0.3763
-0.4289
0.8051
0.0007748
0.001338
-0.002113
-0.5428
-0.3514
0.8942
0.04547
-0.01648
0.004465
-6.163e-05
-0.0901
-0.1664
0.2565
0.04472
0.1212
-0.1659
1.771e-07
-5.44e-08
-1.227e-07
-0.0002546
0.0002064
4.82e-05
-0.07417
-0.1022
0.1764
0.001315
-0.0009691
-0.0003463
0.1731
-0.05383
-9.27e-05
0.003067
-0.002514
0.005546
-0.003032
-0.01114
-0.0129
0.0009922
0.001415
-0.002408
-0.2072
0.2383
-0.0311
-0.0005536
0.0009244
-0.0003708
-0.0001921
-0.0001298
0.0003219
1.738e-06
6.705e-06
-8.443e-06
0.0001345
0.0001973
0.003773
-0.001054
-0.0001442
-0.0002382
0.0003823
-0.004033
0.00115
0.002883
-0.001246
-0.001859
0.003105
0.003752
-0.003137
-8.762e-05
0.0001475
-5.991e-05
0.0005893
0.0001334
-0.0007227
0.002638
0.0002386
-0.1839
0.1237
1.491e-06
0.0001377
-0.0001392
-0.003443
0.003477
-3.43e-05
0.001296
0.0001164
-0.001412
-1.523e-06
5.344e-06
-3.821e-06
-0.0006407
0.0004269
0.0002138
-0.8571
0.3143
-0.2578
0.1346
0.1232
0.0003229
0.0001273
-0.0004502
0.0009054
-0.000936
3.062e-05
-0.0001169
-0.0001879
0.0003049
0.01757
-0.008823
-0.008752
0.1872
-0.1772
-0.01005
0.009205
-0.01251
-0.000345
-2.163e-05
0.0003666
0.09471
-0.05308
-0.04164
0.001665
0.0007197
0.0005025
-0.0001796
-4.125e-06
0.0003353
-0.0003312
-0.01631
0.03225
-0.01594
1.007e-06
-2.75e-05
2.649e-05
0.0006104
-0.0002151
-0.0003953
-0.00166
0.0005201
0.00114
-0.0009263
0.0005469
0.0003794
0.1932
-0.1485
-0.005908
0.01781
-0.5003
-0.969
-0.4985
-0.9659
-0.01113
0.002011
-0.001052
0.000851
0.0002008
-0.004446
-0.0002273
-0.0003576
-0.0005687
-1.943e-05
-0.0001736
0.0001931
-0.01175
0.0459
0.002478
0.001176
1.296e-05
4.171e-06
-1.713e-05
-4.036e-06
-3.098e-05
3.502e-05
-0.0006466
0.0002926
0.0003541
0.0003678
0.0009476
-0.0001426
5.713e-05
8.549e-05
0.0001786
-0.0002243
4.563e-05
0.0004829
-0.000343
-0.0001399
3.933e-05
-0.0001405
0.0001012
-0.0006586
0.0005261
0.0001325
0.0004784
-0.0005582
7.976e-05
-7.076e-07
7.499e-05
-7.428e-05
5.122e-05
-0.001034
-0.02768
0.02871
-0.0001738
0.0001531
2.075e-05
-0.0002747
-8.055e-05
-0.0002022
-0.001078
0.00128
0.3012
-0.4092
0.1079
0.0005524
5.807e-05
0.0002649
-0.0005089
0.000244
-0.002081
0.001858
-0.002705
-0.003176
0.005881
0.000892
-0.0009308
3.881e-05
-8.675e-05
0.0006774
-0.0005907
0.3805
0.1363
-0.5168
-0.119
-0.04789
-0.1697
0.2391
-0.06936
-7.922e-05
9.487e-05
-1.565e-05
0.4296
-0.8059
-0.001573
0.001723
-0.0001502
0.05951
0.0352
0.0001582
-0.0002253
6.629e-05
-0.0005409
0.0004746
0.1172
-0.1213
0.03015
-0.01355
-0.01661
-0.0001438
0.0006353
-0.0004916
3.443e-07
2.337e-07
-5.78e-07
-0.0002516
0.0004781
-0.0002265
0.9139
-0.6845
-0.2294
0.001389
0.001963
-0.003352
4.21e-05
0.0001439
-0.0006739
0.0004895
0.0001844
0.00648
-0.004975
-0.001505
-0.08536
-0.02108
1.206e-05
1.603e-06
-1.366e-05
0.01561
-0.02015
0.004539
3.905e-06
-5.337e-05
-0.000314
0.0004639
-0.0001499
1.209e-05
-0.000932
0.0009199
0.2461
-0.255
0.008911
0.006095
-0.005218
-0.0008772
9.506e-06
-3.982e-05
3.031e-05
0.0002223
0.0005575
-0.0007798
-0.0006692
0.0007376
-6.832e-05
-0.000127
0.0002586
-0.0001316
0.004032
0.002063
-0.0002954
0.0002505
-0.0226
0.02157
0.009421
-0.07499
5.86e-05
-9.598e-05
3.738e-05
-0.5075
0.03662
-0.000368
-1.555e-05
0.0003836
-7.351e-05
3.457e-05
-0.0009896
0.0166
-0.004668
0.003691
0.0009766
-0.000125
0.0004711
-0.0003461
-0.002508
0.00248
2.757e-05
0.1112
0.4876
-0.5988
0.0004369
-0.0008583
-0.0002841
-0.0002098
0.0004939
-0.0005764
-1.057e-05
0.000587
0.001214
0.008138
-3.193e-05
-0.0003222
0.0003542
-0.001173
0.0007345
7.42e-05
0.0001493
-0.0004
0.0003393
6.073e-05
-0.0004174
6.581e-05
-0.0002053
0.002368
-0.002163
-0.0009103
0.0001656
0.0007447
-0.0003301
4.248e-05
-2.744e-05
2.546e-05
1.988e-06
-0.0001565
0.000168
-1.15e-05
-0.6757
0.8727
0.0005462
-0.000156
0.007722
-0.01057
0.002844
-0.003551
0.003935
-0.01243
0.000717
0.01172
-7.325e-05
2.525e-05
-0.01111
-0.007326
0.01844
-1.274
1.436
-0.1617
0.0002112
-0.0002132
1.991e-06
-7.717e-05
-4.012e-05
0.0001173
0.007415
0.01024
-0.01766
0.003598
-0.003455
-0.0001428
0.5725
-0.1919
0.001088
-0.002192
0.001104
-3.195e-05
0.0001374
-0.0001054
-0.06043
0.04662
-0.02549
-0.1817
0.702
-0.6558
-0.04619
0.0006719
-0.0007015
0.06627
-0.03044
-0.0003732
-0.0001158
0.000489
0.0521
-0.05478
0.002675
3.401e-05
0.0002212
-0.009383
-0.1347
0.144
0.0005288
-0.0003859
-0.000143
0.05405
-0.2238
-0.0001731
-0.0001453
0.0003095
-0.0003382
2.877e-05
-0.0007119
0.0004134
0.0002985
-0.001406
0.003139
-0.001733
-4.136e-05
8.251e-05
-4.116e-05
-0.01976
0.008328
0.01143
0.0004157
-0.0002193
-0.0001964
0.0003003
9.633e-05
-0.0003966
9.291e-05
-1.187e-05
-8.104e-05
0.0004562
-0.0001113
-0.0003449
0.000197
0.007836
-0.008033
-0.002845
0.002452
-4.724e-05
5.534e-06
4.171e-05
0.0001735
-0.0001186
-5.491e-05
0.001686
-0.001577
-0.0001091
3.653e-06
-5.089e-05
0.3525
-0.9426
0.59
0.1184
-0.0001283
-0.1182
-0.0002897
0.0001195
0.0001702
9.879e-05
-0.0001054
6.574e-06
-1.54
0.1227
1.418
0.0005624
-0.0003353
-0.0002271
-0.002094
0.01119
-0.009094
0.005125
0.009024
1.392e-05
0.0008915
0.03154
-0.01718
-0.01437
1.412
-0.2682
-1.143
5.143e-05
-0.0002903
0.0002389
-0.01129
0.009196
0.0001098
-9.653e-05
-1.328e-05
-9.294e-05
4.836e-05
4.457e-05
0.000175
-0.0001239
-5.102e-05
0.000423
-3.042e-05
-0.0003925
-8.976e-05
1.429e-05
7.547e-05
-0.0003679
-0.0002727
-0.0007397
7.028e-05
0.0006694
0.001078
0.00252
0.0002455
-8.85e-05
-0.000157
-0.1249
0.2548
-0.1299
-0.0001814
0.000295
-0.1026
0.08371
0.0189
0.0006917
-0.0005715
-0.0001201
0.0006371
-0.001309
5.399e-05
-6.658e-05
1.258e-05
0.0002292
-0.001387
0.001158
-1.189e-08
-3.788e-08
-0.0003146
0.0001539
0.0001607
-0.000537
0.0008099
-0.0002729
0.03091
-0.01851
-0.01239
0.001727
-0.002266
0.0005389
-0.2874
0.232
0.05538
0.0001272
4.774e-05
0.1162
0.002188
0.0001705
2.774e-05
-0.0001982
0.0004096
-0.0002715
-1.016e-07
1.016e-07
1.356e-07
-1.556e-07
2.004e-08
1.6e-07
-1.474e-07
-1.254e-08
1.197
-0.8186
-0.378
-8.622e-05
-8.761e-05
7.602e-05
0.0004872
-0.0005632
-0.1449
-0.1129
-0.0006183
3.635e-06
0.0006146
-0.0003254
0.0009913
-0.0006658
-0.0002357
0.0002601
-2.441e-05
0.003486
-0.0003174
-0.003168
-2.363e-06
0.0003118
-0.0006089
-0.000103
0.000342
0.0002204
3.631e-05
-3.37e-05
-2.603e-06
-0.4377
0.7902
-0.0002547
0.0001609
9.372e-05
-2.606e-09
6.654e-10
1.932e-09
0.0005903
-0.0006738
8.354e-05
0.0003608
-8.233e-05
-0.0002785
1.439e-05
-1.201e-05
0.06395
-0.179
0.003482
-0.0008699
-0.05093
0.07787
0.00018
-6.499e-06
0.0419
0.2471
-0.289
-0.0002822
6.772e-05
0.0002145
-6.969e-05
-0.0001029
0.0001726
7.681e-05
-7.261e-05
-4.196e-06
1.527
-0.9027
-0.6244
-0.0002235
-6.628e-05
0.00955
0.004005
-0.01355
4.067e-07
-1.201e-06
7.943e-07
-0.0006793
-1.927e-05
0.0006986
0.000186
-1.623e-05
-0.0001698
-4.733e-05
-0.0001144
0.0001617
-0.1071
0.1028
0.004241
3.187e-05
-0.0001453
0.0001134
0.0009292
0.0007501
-0.001679
-0.8039
-0.7363
0.002447
-0.004807
1.594e-05
0.004791
-0.0003896
0.0001975
0.0003038
0.0005882
1.496e-06
9.73e-05
8.026e-05
-1.267e-05
-6.759e-05
-0.0004234
0.0001094
-0.003166
0.003807
-0.0006414
0.0009052
4.742e-06
-0.0009099
0.0001637
-0.0003323
0.0001686
5.631e-05
0.0001549
0.1128
0.05486
-0.1677
-7.364e-05
5.526e-05
1.838e-05
3.254e-05
-0.0001894
0.0001568
0.0004363
-0.000484
4.769e-05
0.001134
-0.002441
0.001308
0.0001318
-0.0002524
0.0001206
-0.791
0.1143
0.6767
-0.7882
0.6298
0.1584
0.002032
-0.01129
-0.000134
-8.649e-06
-0.0005894
-0.001132
0.001722
0.1388
-0.2088
0.06995
1.473
-0.649
-0.8236
-0.001523
0.002453
-0.0009297
0.0002816
-0.0004149
0.0001332
-0.0005766
0.0002277
0.0003489
-0.0007235
-1.616e-05
6.964e-05
5.777e-06
-7.542e-05
-1.771e-05
1.649e-05
1.223e-06
-0.003163
0.003
0.0001625
-0.1405
0.09989
0.04064
1.401
-1.278
-0.123
-8.856e-05
4.369e-05
4.487e-05
-9.729e-05
-0.0002173
0.0003146
0.0005493
-0.00174
0.00119
0.3134
0.5225
-0.8359
5.179e-06
1.022e-05
0.002621
-0.00307
0.0004489
-0.000148
0.0001444
3.579e-06
0.485
-0.0003075
0.0003522
-4.465e-05
-0.02668
0.1655
0.0002225
-0.0003475
-0.0001256
4.675e-05
7.886e-05
0.00119
-0.00113
-5.979e-05
0.9793
0.1619
-1.141
-2.381e-05
-9.386e-05
0.0001177
0.0003674
0.0001677
-8.223e-05
4.621e-05
0.3909
1.021
0.0004504
-0.0016
-8.998e-06
-3.089e-06
0.3957
0.3063
-0.00178
-0.002888
-0.1642
0.004803
0.1594
-0.0003736
-0.0004422
0.0008158
0.0003067
-0.0001309
-0.0001758
-0.2801
0.19
0.0001122
-0.0001026
-9.6e-06
0.000247
0.0004583
-0.0007052
-1.839e-06
8.102e-06
-6.263e-06
-5.003e-05
-7.109e-05
0.0001211
5.578e-05
-7.689e-05
2.111e-05
-0.0001897
-0.0004689
-0.0002199
-0.000454
0.0001594
0.0002098
-0.0003692
0.0006837
-0.0007303
0.0005815
-0.0008831
0.0005917
-0.0009128
0.0003211
9.325e-05
-0.0001083
1.505e-05
-1.506e-05
3.017e-05
-1.511e-05
0.0003001
-0.0002229
-7.713e-05
-0.6003
0.9137
0.0007636
-0.0005287
-0.0002349
0.1086
-0.1944
0.08581
-0.0005238
-0.0001228
-0.1237
0.03452
0.08915
9.548e-05
-5.998e-05
-0.3421
-0.9324
-0.1523
0.07814
-0.002576
-0.005122
0.007698
-0.0004411
-0.0004692
-0.0001717
-0.0001264
0.0002982
-1.04
0.1279
0.9124
1.107
-0.8992
-0.2082
0.0001033
-3.691e-05
-2.999e-06
-6.418e-06
9.417e-06
-5.846e-05
0.0001158
-0.0004692
0.0001756
0.0002936
0.000737
-0.0002206
-0.0005164
0.0002953
-0.0006685
-0.0002621
0.0003888
-0.0001267
-0.0007408
0.0004567
-5.929e-05
2.831e-05
-4.05e-05
0.000109
-6.849e-05
-3.617e-05
-1.19e-05
4.807e-05
-1.161
0.1203
2.914e-05
6.49e-05
-9.404e-05
1.367e-05
-5.125e-05
3.758e-05
-6.316e-05
-0.005035
0.005098
0.009096
-0.005649
-0.003447
0.1786
-0.2404
0.06182
1.03
0.4429
0.0005306
-0.0005347
-1.03e-05
-0.0001785
8.141e-05
0.0001641
8.54e-06
-5.719e-06
-2.82e-06
-0.07587
-0.0478
-0.9855
-0.4035
1.389
-0.0001128
-8.535e-05
0.0001981
-0.0001287
-4.161e-06
0.0001329
-0.05138
-0.006633
3.58e-05
4.34e-05
-7.919e-05
0.01457
-0.002177
-0.0124
-0.03591
0.08856
-0.05266
-0.0001397
4.935e-05
9.034e-05
0.00233
-0.002889
0.0005585
-3.832e-05
5.199e-05
0.004603
-0.009384
0.004781
-5.022e-08
5.021e-08
-2.835e-05
5.834e-06
6.37e-05
0.0003925
0.0003013
0.0001145
-0.0001318
-0.0001228
8.964e-05
3.413e-05
-0.0001238
-0.0002965
-1.106e-05
-6.474e-05
0.000114
-4.927e-05
0.05652
0.006777
-0.0633
0.0001329
-5.426e-05
-7.864e-05
1.23e-05
-3.188e-06
-9.114e-06
-8.327e-05
-0.0002848
0.7437
-1.068
0.3248
0.001307
-0.0002223
-0.004779
0.004217
0.000562
0.001502
-0.003289
0.001788
1.077
0.4501
-0.02602
0.7697
1.925e-07
-7.812e-07
5.887e-07
0.02353
0.007374
0.0003682
-0.0006474
0.0002792
5.936e-05
-5.8e-05
-1.352e-06
-0.0003615
0.0006328
-0.0002713
0.0001337
-0.0001322
0.003967
0.002867
-0.006834
0.0002329
-0.0001271
0.003697
-0.006774
0.003077
0.0009978
-0.0008497
-0.0001481
-0.1494
-0.1989
0.3482
1.05
-0.04431
-1.006
-0.002135
-0.0004335
0.002569
-0.001219
0.00894
2.674e-05
-0.000106
-0.001619
0.00312
0.0003499
-0.0003888
3.89e-05
0.0008701
-0.0002739
-0.0005962
0.0003136
0.0001904
-0.000504
-0.01961
0.0231
0.003389
-0.006094
-1.126
-0.3863
1.512
-0.0001146
0.0002159
-0.0001013
0.02296
0.008585
-0.001088
0.0008168
0.000271
7.552e-08
-0.002508
0.0007139
0.001794
-0.0004918
0.000435
0.0001733
-0.0004249
1.258
-0.2789
-0.001866
0.002118
-0.0002519
-0.0003393
-0.0005299
0.0008692
-1.886e-05
1.951e-05
-6.499e-07
-0.0009071
8.141e-06
0.000899
0.0001371
-1.471e-05
-0.0001224
-3.901e-05
-2.028e-05
-0.0001116
0.0003344
-0.000196
-0.0002041
0.0001316
-0.0004621
0.0003306
0.0004622
0.0003074
-0.0007696
0.000606
-0.0007729
0.001401
-0.002417
0.001015
-0.003662
0.0002194
8.755e-05
-0.0004289
0.003113
-0.006018
0.002905
-1.427e-07
1.427e-07
-0.0009907
-0.003788
-0.06607
0.02484
0.0001774
-0.001449
0.001272
0.0001795
0.0003422
-0.0005217
1.195e-06
0.001108
-0.001109
0.1019
0.3719
-0.4737
-4.524e-05
2.431e-05
2.093e-05
6.833e-05
0.0004101
-0.0005232
-5.344e-05
-1.511
0.5254
2.223e-06
6.316e-06
-0.0001944
3.787e-05
0.0003054
-0.0003493
4.389e-05
-0.3883
-0.638
1.026
5.317e-06
-7.006e-05
0.0001232
-0.000152
2.879e-05
4.808e-05
-0.0001503
0.0001022
2.944e-05
-0.0001198
9.034e-05
-1.199
0.8105
-0.000514
0.0002925
0.0002214
4.907e-06
-3.831e-06
-1.076e-06
7.127e-05
-0.0001099
3.865e-05
-0.0002833
0.0002827
6.405e-07
-0.1577
0.06241
0.09534
2.286e-05
-9.898e-06
3.804e-05
-0.0001248
8.676e-05
-0.1613
0.1676
-0.006309
0.002813
0.0005506
-0.003363
-0.003911
0.003806
0.000105
0.0001018
-1.215e-05
-0.0002122
-0.0001024
-0.002686
0.003836
-0.002851
0.000343
-9.317e-06
-0.0002061
0.0002154
-5.448e-05
0.0001254
0.2821
0.5874
-0.8695
-0.0003556
-0.0001584
-0.000377
0.0006962
-0.0003192
0.0001011
-0.0001023
1.225e-06
-0.0001168
-0.0004596
-0.01326
0.01154
0.001726
-0.0007572
0.0001389
1.914e-05
6.112e-05
1.029
-0.7468
3.789e-05
-0.0002736
-5.587e-05
-8.381e-05
-4.086e-05
-1.694e-05
5.779e-05
2.648e-07
-7.465e-07
3.271e-05
-7.357e-05
3.271e-05
4.41e-05
0.0002029
3.861e-05
-0.0002415
0.0002664
-0.0001767
-8.978e-05
-0.004611
0.00121
0.003401
0.1728
1.024
-1.144e-08
1.144e-08
8.367e-05
0.0001134
-0.0001971
6.512e-05
-0.0001152
6.519e-05
-5.924e-05
-5.957e-06
-0.0001137
0.0003113
-0.0001977
2.945e-05
-0.000157
0.0001276
-0.0002175
3.411e-05
0.0001833
-0.0004964
0.0004277
0.5596
0.8414
1.892e-06
0.0004137
-0.0004156
-0.004476
0.001272
0.003204
-1.505
0.3791
-0.0001109
0.000191
-8.009e-05
0.000144
0.0005477
0.002093
-0.000797
0.0009316
0.000329
-0.001261
0.1374
-1.017
0.8793
6.968e-05
-0.0003318
8.743e-05
-1.638e-05
-7.105e-05
-0.2743
-0.7142
0.8516
0.006611
0.002485
-0.0006346
0.0009044
-0.0002698
0.0004154
0.0003216
-0.0001729
-9.42e-06
0.0001823
-0.0005092
0.0004499
5.927e-05
5.294e-06
-4.467e-07
-4.847e-06
-0.00414
0.001028
0.003112
-0.004121
0.00557
-0.001449
-0.7987
-0.2697
-0.0003508
8.914e-05
0.0002617
-0.0003706
0.0001793
0.0001913
0.0003803
-0.0003139
-6.635e-05
9.409e-05
-0.0001817
0.00199
-0.001849
1.085
0.08595
-1.171
0.2754
-0.2114
0.07918
-0.1352
0.05607
-1.269e-05
2.99e-06
9.703e-06
0.04562
-0.8444
0.03288
-0.01781
-0.01507
-0.0001255
0.000264
-0.0001384
-0.0008978
-0.001088
0.001986
0.0001305
5.719e-05
-0.0001877
-0.2155
0.8473
-0.6318
-0.0001756
0.0001301
4.558e-05
-0.0004056
0.002301
-0.001896
-0.2383
-0.01781
0.2561
0.0002439
0.000239
0.6921
0.4737
-1.166
-0.0004225
-0.0002606
0.0006832
-4.29e-06
-1.191e-05
1.62e-05
0.0001119
-5.284e-05
-5.901e-05
-0.000368
-0.0007346
0.001103
2.125e-05
1.352e-05
-3.477e-05
0.1861
-0.04886
-0.1372
6.315e-05
5.098e-05
-0.0001141
-0.009204
0.0093
-9.513e-05
-0.0002204
-6.185e-05
1.201e-06
4.074e-06
-5.274e-06
-0.0002084
-0.0001963
0.0004047
0.0002859
9.424e-05
-0.0003802
-0.007074
-0.006188
0.005392
-0.005988
0.0005954
0.001915
-0.0003847
-0.00153
6.873e-05
-6.873e-05
-0.3399
0.1972
0.1427
-0.001984
0.003812
-0.001828
0.0008159
-0.0005209
-0.0002949
-0.0002554
0.0004813
-0.0002258
5.353e-06
6.95e-06
0.0001217
-0.0001102
-1.158e-05
-0.1178
1.203
0.04666
-0.02953
-0.01713
-6.225e-05
-2.631e-05
-0.0002161
1.155e-05
0.0002045
-6.959e-06
9.703e-06
-2.744e-06
-0.0005377
0.001522
-0.0009839
5.97e-06
-5.97e-06
-0.0003734
0.0004307
-5.731e-05
7.838e-06
-7.837e-06
-0.0002921
0.0001022
0.0001899
4.579e-05
2.76e-05
-7.339e-05
0.0002907
-0.0002888
4.089e-05
-2.892e-05
-1.197e-05
0.09774
-0.07385
-0.02389
0.001866
-0.001414
-0.0004513
1.092
-1.516
0.424
1.319
-1.742
0.4231
-8.037e-05
-5.794e-05
0.0001383
-0.043
0.09147
-0.04847
7.011e-05
8.518e-06
-7.863e-05
-0.003519
0.001784
0.001734
-0.001081
0.0001856
-0.00779
0.008799
-0.001009
0.04667
-0.101
0.05429
-0.0006612
4.258e-05
0.0006186
0.0006708
0.001021
-0.001692
0.2517
-0.005656
-0.0009549
0.001268
-0.0003134
0.0002077
-0.0003753
0.0001677
0.09356
-0.04689
0.0001208
-6.106e-05
-5.979e-05
1.373e-05
-1.373e-05
-0.0001016
1.305e-05
8.853e-05
0.0009207
-0.002927
0.002007
0.0001458
-5.826e-05
-8.759e-05
8.595e-05
-2.045e-05
-6.55e-05
-0.0001692
0.0001619
7.295e-06
-0.3389
0.1238
0.2151
8.525e-05
-3.126e-05
-0.0005255
-0.0005623
-0.0494
0.3506
0.0001151
-8.612e-05
0.0002845
-2.598e-05
-0.0002585
0.0004553
-0.0007272
0.000272
-0.4777
-0.5497
1.027
0.2169
0.001475
-0.2183
0.002274
-0.001827
-0.0004471
1.447e-06
6.697e-07
-2.116e-06
0.000127
-0.002222
0.002095
-1.353e-05
1.353e-05
0.0005288
-0.000281
-0.0002478
0.0007675
-0.0002067
-0.0005608
-0.002022
0.001854
0.0001688
4.064e-06
2.628e-06
-6.692e-06
0.0001126
2.848e-05
-0.0001411
-0.412
1.373
-0.9615
-0.0001636
0.0002267
-6.311e-05
0.005432
-0.0005616
-0.00487
-0.3003
1.333
-1.032
-0.0006334
-0.0008405
0.001474
-4.096e-07
2.167e-07
1.929e-07
0.001104
0.001264
-0.002368
2.534e-05
-1.678e-06
-2.366e-05
0.006732
-0.003841
-0.002891
0.001242
0.00318
-0.004422
-8.585e-07
-1.333e-06
2.192e-06
2.456e-05
-2.456e-05
0.0005447
0.0002399
-0.0007846
-0.08775
-0.05278
-0.4605
0.2238
0.2367
0.002936
-0.001117
-0.001819
-0.001442
0.001093
0.0003487
-7.116e-05
-0.0001379
0.0002091
0.0001613
-9.086e-05
-7.048e-05
-0.0005612
-0.0001159
0.0006771
0.0003192
-0.0001511
-0.0001681
-0.00228
0.002056
0.0002237
-0.009416
0.01697
-0.007556
0.0001267
0.0001925
-0.03146
-0.01564
0.0471
3.278e-05
1.813e-06
-3.46e-05
0.137
-0.5754
0.4384
-0.0002194
-0.0003362
0.0005556
-2.325e-06
1.002e-05
-7.691e-06
0.0001993
-0.0002444
4.51e-05
-0.0002177
0.0001781
3.96e-05
0.0004147
-0.000208
-0.0002066
-0.3822
0.09681
0.2854
-0.1896
0.05627
0.1333
5.064e-05
-8.461e-05
3.396e-05
0.007924
-0.008957
0.001033
-0.00012
0.0002294
-0.0001094
0.0004373
-0.000745
0.0003077
7.286e-05
-0.0001405
6.762e-05
-0.0005293
0.0005127
1.663e-05
0.000435
-0.0001158
-0.0003192
-5.647e-05
7.304e-05
-1.657e-05
-2.351e-05
0.0001065
-8.303e-05
8.443e-05
-8.443e-05
1.039e-06
-2.986e-05
2.882e-05
-3.533e-05
0.000252
-0.0002167
-0.0001212
0.0001007
2.057e-05
-0.002838
0.004263
-0.001425
-0.0003289
0.0007243
-0.0003954
7.904e-05
0.0006222
0.0002082
-0.0002155
7.389e-06
2.207e-07
-5.471e-06
5.25e-06
-1.345e-07
1.027e-07
3.179e-08
0.0005103
-0.0002418
-0.0002685
-0.3192
0.421
0.5895
0.2178
-0.8074
0.0004129
-0.00053
0.0001171
-8.951e-05
-0.0002661
0.0003556
0.004894
-0.0009198
-0.003974
-0.1885
1.18
-0.9913
0.0002748
0.0006463
-0.0009211
0.0003577
3.117e-05
-0.00255
-0.005785
0.008334
-8.68e-05
-5.226e-05
0.0001391
0.0011
-0.0008118
-0.0002881
2.314e-05
-9.389e-05
7.075e-05
0.00254
-0.003069
0.0005296
0.7874
-0.6762
-0.008486
0.002813
0.005674
0.01238
0.0005286
-0.01291
0.0001356
-1.628e-05
-0.0001194
4.537e-05
7.512e-05
-0.0001205
0.000149
-0.0001134
-3.561e-05
-0.004541
0.001778
0.002763
0.0006457
-0.003957
0.003311
-4.653e-05
0.0001132
-6.666e-05
-0.0006143
0.0009231
-0.0003088
-0.002275
-0.001546
0.003821
-0.00104
0.0004193
0.0006212
-0.0007327
-0.0001545
0.0008873
0.00175
-0.001431
-0.0003191
-0.0003601
0.0003076
5.257e-05
0.0002576
-0.0001851
-7.258e-05
0.2603
-0.3212
0.06085
1.614e-05
-8.921e-06
-7.22e-06
6.493e-07
2.295e-06
-2.944e-06
-0.00063
0.000253
-6.78e-06
-0.0001282
0.000135
-9.558e-05
2.744e-05
0.02192
-0.1183
0.09639
2.29e-05
-2.29e-05
-9.093e-05
9.093e-05
-0.1668
-1.048
1.215
1.259
0.231
-1.49
0.0001032
-4.775e-05
-5.543e-05
-6.775e-05
0.0003962
-0.0003285
-1.796e-07
2.094e-07
-2.98e-08
-6.851e-06
-2.679e-06
9.53e-06
-0.0002061
0.002072
-0.0004888
0.0006412
-0.0001524
-0.0001083
-1.15e-05
0.0001198
-0.001148
-0.004206
0.005354
0.00363
0.005247
-0.008877
-0.1906
0.0632
0.1274
-0.0001058
7.173e-05
3.409e-05
-7.253e-06
0.0004736
-0.0004663
9.035e-05
-0.0001807
9.04e-05
-0.004738
0.001061
0.003677
9.669e-07
-2.039e-06
1.072e-06
-0.000284
0.0003957
-0.0001117
0.816
-1.148
0.3316
-0.0001057
0.0001057
-0.0002024
0.0001281
7.43e-05
0.1662
0.563
-0.7292
-9.719e-05
7.427e-06
-1.288
1.121
0.2422
-0.4271
0.1848
-0.00322
0.002232
0.0009875
-0.01136
-0.00213
0.01349
-1.816e-05
1.11e-05
7.053e-06
0.7814
-0.9467
0.1654
0.0005269
-0.000277
-0.0002499
0.4754
-0.1357
-0.3397
0.0004531
-0.0008855
0.0004324
-0.01699
0.005647
0.01135
0.001165
-0.0009082
-0.0002567
0.006275
-0.003291
-0.002985
-0.0001303
-0.0005411
0.0006714
-0.0005633
-0.0002288
0.0007921
-7.101e-05
-2.096e-05
9.196e-05
0.001872
0.0003933
-0.002266
0.1492
0.6513
-0.8005
0.0109
0.06139
-0.07228
0.0002559
-0.000159
-9.691e-05
-0.0001652
-0.0008477
0.001013
-6.188e-05
0.0001971
-0.0001353
-0.0001309
7.317e-05
5.776e-05
4.762e-05
-2.851e-05
-1.911e-05
6.993e-05
1.722e-05
-8.715e-05
1.038e-05
-1.038e-05
7.106e-05
-0.0001421
0.001151
-0.0008343
-0.0003168
2.575e-05
-6.758e-05
4.183e-05
-0.0007001
0.0004506
0.0002495
0.0001103
5.203e-05
-0.0001623
0.005159
-0.006254
0.001095
-0.0002325
6.463e-05
0.0001679
0.4952
-0.3654
-0.1298
0.0001674
-0.0001825
1.513e-05
1.04e-05
-3.077e-05
2.037e-05
-0.0003148
2.306e-06
0.0003125
0.4959
-1.093
0.5975
-0.0005184
0.0001854
0.000333
-0.0005528
0.0003015
0.0002513
-0.002316
0.0005966
0.00172
0.001555
-0.0006951
-0.0008601
9.538e-06
-7.228e-05
6.274e-05
0.001463
0.006802
-0.008265
-0.0001039
0.0001195
-1.552e-05
3.423e-05
0.0002584
-0.0002926
-0.001158
-0.001159
3.629e-05
7.123e-05
-0.0001075
-0.0004743
-7.325e-05
0.0005475
-4.105e-06
5.306e-06
-1.181
0.5419
0.6395
0.002369
-0.004647
0.002279
0.0001477
-5.612e-05
-9.162e-05
0.1294
0.05739
-0.1867
0.0001691
-4.89e-05
-0.0001202
-8.535e-05
-2.701e-05
0.0001124
-1.247
1.247
0.00156
0.002365
-0.003926
2.393e-05
-3.424e-05
1.031e-05
0.06886
-0.05294
-0.01592
0.006489
-0.001329
-0.0002216
0.000312
-9.045e-05
5.764e-05
-2.063e-05
-3.701e-05
0.01243
-0.00962
-0.002811
-1.269
0.5233
0.7453
-0.0001257
0.0002017
-7.606e-05
5.903e-05
-0.0001421
8.308e-05
0.403
-0.2554
-0.1476
-0.008359
0.005607
0.002751
0.0006376
-0.03065
0.03002
0.000296
0.0001172
-0.0004132
0.0001114
4.096e-05
-0.0001524
-0.001568
-0.0007751
0.002343
-0.05415
-0.05387
0.108
-2.506e-07
5.208e-06
-4.957e-06
3.006e-08
4.927e-07
-5.228e-07
0.0001913
0.0005724
0.0003428
-0.001177
0.0008338
0.000459
-0.0007026
0.0002437
2.77e-05
1.319e-05
-0.3922
1.238
-0.846
0.0002318
-0.00114
0.0009082
0.3494
-0.006682
-0.3427
-0.0002029
0.0002912
-8.836e-05
-0.001017
0.0009891
2.791e-05
-9.388e-05
-0.0001051
0.000199
0.0004291
0.001126
-1.921e-06
3.364e-06
-1.443e-06
-2.633e-05
2.87e-05
-2.377e-06
-0.5584
0.2183
0.3401
-1.995e-06
1.995e-06
5.702e-05
-4.301e-05
-1.402e-05
-1.885e-05
7.14e-05
-5.255e-05
-0.001804
-0.0002127
0.002017
-0.0002293
0.0003278
0.0003058
0.0001617
-0.0004675
-0.00077
0.0002896
0.0004804
-0.0001945
0.0001609
3.359e-05
0.002114
-0.001467
-0.0006469
-0.01021
0.02508
-0.01487
5.181e-06
-5.181e-06
0.0002401
-0.0002982
5.807e-05
-0.0007348
0.0003235
0.0004113
0.0002853
0.0001372
-0.0004225
0.001382
-0.001149
-0.000233
0.0002176
0.0003905
-0.0006081