/*--------------------------------*- C++ -*----------------------------------*\
  =========                 |
  \\      /  F ield         | OpenFOAM: The Open Source CFD Toolbox
   \\    /   O peration     | Website:  https://openfoam.org
    \\  /    A nd           | Version:  8
     \\/     M anipulation  |
\*---------------------------------------------------------------------------*/
FoamFile
{
    version     2.0;
    format      ascii;
    class       volVectorField;
    location    "15";
    object      U;
}
// * * * * * * * * * * * * * * * * * * * * * * * * * * * * * * * * * * * * * //

dimensions      [0 1 -1 0 0 0 0];

internalField   nonuniform List<vector> 
127143
(
(0.001831 -7.998e-05 0)
(-9.319e-05 -0.0004375 -5.598e-24)
(-6.932e-05 -0.0003404 1.027e-23)
(-9.055e-05 -0.0004162 -1.036e-27)
(0.00829 0.002583 -1.559e-22)
(-7.66e-05 -0.0004319 4.621e-27)
(0.03154 0.01943 0)
(0.01385 0.006405 -2.212e-22)
(0.01118 0.005346 7.326e-22)
(-0.003376 -0.0001384 0)
(0.03277 0.04496 7.725e-22)
(0.02026 0.01335 8.207e-22)
(0.0003252 -0.000123 -2.09e-24)
(-0.0001193 -0.0004749 0)
(0.1096 -0.08073 1.479e-20)
(0.04147 -0.003832 0)
(-0.000228 -0.001044 -1.665e-23)
(-0.02457 -0.06991 3.223e-20)
(-0.1582 -0.01533 0)
(0.05102 0.008475 0)
(-0.1294 0.03317 5.875e-21)
(-0.0002772 -1.517e-05 0)
(1.002 -0.1448 0)
(0.611 -0.05877 0)
(-0.0003244 3.651e-05 -1.958e-22)
(0.2274 -0.03511 0)
(-0.02284 0.0002085 1.437e-20)
(-0.02284 -0.0007924 -2.161e-22)
(0.2461 -0.11 0)
(0.2683 -0.07739 -1.825e-20)
(0.487 -0.02909 0)
(0.2211 -0.03253 -2.975e-21)
(0.062 0.01576 2.563e-21)
(-0.05056 0.01319 -1.327e-20)
(0.8899 -0.08593 2.001e-20)
(0.05802 0.01847 -6.027e-24)
(-0.2279 0.08159 4.879e-21)
(0.3986 0.01861 -4.696e-21)
(0.7252 -0.06521 -1.704e-21)
(0.2129 -0.009769 3.055e-25)
(-0.1589 -0.0173 0)
(1.041 0.4129 -5.119e-21)
(1.024 0.4026 3.738e-21)
(0.0006778 -0.0002293 0)
(-0.03344 -0.06407 -2.875e-20)
(-0.05246 0.01209 4.265e-21)
(0.2487 -0.1156 0)
(-0.2277 0.08434 -6.679e-22)
(0.7276 -0.1277 4.434e-22)
(0.691 -0.05522 -1.16e-21)
(0.04922 -0.003543 -1.835e-22)
(0.9835 -0.03696 2.938e-20)
(-0.04686 -0.01039 0)
(1.141 0.1413 -7.725e-21)
(1.002 -0.0007227 1.691e-20)
(0.5706 -0.1413 7.644e-23)
(1.002 -0.0007182 -1.521e-20)
(1.117 -0.08154 0)
(1.009 -0.006755 -1.255e-20)
(1.14 0.1426 -1.502e-20)
(0.5508 -0.09284 -6.971e-20)
(-0.1433 0.07032 -1.061e-21)
(1.057 -0.07395 4.612e-21)
(1.001 0.0004533 2.372e-20)
(-0.1063 0.01246 0)
(0.8971 -0.2377 -5.714e-21)
(1.061 0.1345 2.38e-20)
(1.019 -0.07646 0)
(1.026 -0.07604 1.226e-21)
(0.9896 -4.217e-06 0)
(0.5511 -0.04105 0)
(-0.02475 0.0001706 -6.784e-21)
(-0.1829 -0.05395 -6.894e-21)
(1.009 -0.006617 -6.947e-21)
(1.003 0.002607 -4.176e-22)
(-0.02463 -0.0006599 6.775e-21)
(1.004 0.03251 -6.362e-21)
(-0.1972 0.06975 0)
(0.5905 -0.1526 -5.785e-23)
(1 0.0005462 0)
(0.239 -0.1082 1.734e-23)
(0.05716 0.007158 4.176e-23)
(-0.08778 0.02047 6.577e-21)
(0.2635 -0.01864 0)
(-0.1598 -0.01799 1.234e-21)
(-0.2047 0.07435 0)
(0.8236 -0.082 -3.141e-21)
(-0.03114 -0.002649 3.831e-21)
(0.896 -0.2351 0)
(1.157 0.6765 0)
(1.005 -0.004792 0)
(1.146 0.05408 0)
(1.148 0.665 0)
(-0.1289 0.03293 -6.045e-21)
(-0.139 0.02904 0)
(1.061 0.05629 2.313e-20)
(1.042 0.4061 1.08e-20)
(0.358 -0.02683 0)
(-0.174 0.05666 2.309e-21)
(1.058 0.1348 0)
(1 0.0005314 0)
(0.7572 -0.1361 0)
(0.874 0.8048 -1.048e-21)
(1.094 -0.1223 0)
(-0.2054 0.07498 -1.351e-21)
(-0.1743 0.05661 3.31e-21)
(1.006 -0.1567 -2.698e-21)
(0.9886 7.474e-05 0)
(0.7358 -0.2785 0)
(1.002 -0.0005634 2.391e-20)
(0.1206 -0.08414 -4.527e-21)
(-0.03111 -0.002268 7.369e-21)
(-0.1343 0.03078 -6.102e-21)
(0.2795 0.4418 0)
(0.9956 0.007073 1.626e-20)
(1.047 -0.1661 -5.136e-22)
(0.9855 0.03304 -1.051e-20)
(1.003 0.002708 -1.608e-20)
(1.004 0.03167 4.809e-21)
(-0.001024 -0.004397 0)
(1.002 -0.0006006 -3.344e-20)
(-0.08489 0.02211 -1.874e-21)
(0.8474 -0.3039 0)
(1.095 -0.08867 1.531e-20)
(0.2531 -0.1129 5.65e-22)
(0.1567 -0.02079 -9.014e-21)
(-0.152 0.05595 0)
(1.029 0.007949 8.655e-20)
(-0.08738 0.01572 -1.908e-21)
(0.5757 -0.167 -3.777e-22)
(-0.1549 0.04698 0)
(-0.1399 0.0319 -4.537e-21)
(1.113 -0.0958 -1.039e-20)
(-0.1979 0.07019 0)
(-0.00034 -0.001845 -9.131e-23)
(-0.1564 0.04749 -2.138e-21)
(1.081 -0.03166 0)
(-0.1113 0.02938 1.446e-21)
(0.2998 -0.1702 -4.845e-21)
(1.093 0.01072 8.147e-21)
(0.9747 -0.1744 3.342e-21)
(0.9846 0.02186 5.404e-20)
(-0.01452 0.02926 3.533e-22)
(-0.04217 0.01923 -4.774e-21)
(-0.04325 -0.01093 -8.207e-22)
(1.168 0.4198 3.84e-21)
(-0.03754 0.2214 2.436e-21)
(1.001 0.0003934 -2.13e-20)
(-0.1394 0.03188 4.033e-21)
(0.7968 0.6785 -5.959e-22)
(1.104 -0.1151 -3.856e-21)
(0.7993 -0.1596 0)
(0.634 0.03875 1.576e-20)
(0.8618 -0.1465 0)
(0.3548 -0.2358 0)
(-0.1619 -0.01804 0)
(1.118 -0.08067 -5.449e-21)
(0.555 -0.1929 0)
(-0.2275 0.08422 -1.254e-21)
(0.3165 -0.02843 1.87e-21)
(0.5923 -0.03775 0)
(0.0657 -0.03323 6.428e-21)
(1.005 -0.004417 -1.695e-22)
(-0.1556 0.04726 -5.565e-21)
(0.3494 -0.09352 0)
(-0.1141 0.01408 1.012e-20)
(-0.2152 0.07726 -3.408e-21)
(0.7184 -0.2409 1.565e-20)
(0.3339 0.1036 -3.805e-21)
(0.942 0.03475 -6.664e-21)
(-0.03986 0.01175 0)
(-0.04362 0.02006 2.211e-21)
(1.039 -0.1765 -1.327e-21)
(0.9358 -0.2636 -1.373e-21)
(0.9766 -0.0003266 4.086e-20)
(-0.09447 0.003258 3.157e-23)
(1.154 0.4723 -7.335e-22)
(-0.08772 0.01659 -1.837e-21)
(0.6785 -0.06835 0)
(1.007 -0.01594 4.861e-21)
(0.935 -0.2641 -4.638e-22)
(1.016 0.005948 0)
(-0.07344 -0.01327 4.83e-22)
(-0.09406 0.002164 -3.199e-23)
(0.5888 -0.174 8.863e-22)
(-0.1398 0.06969 1.899e-21)
(0.9965 0.265 -3.008e-21)
(0.294 0.4579 -7.069e-21)
(0.6395 -0.06235 -3.683e-21)
(1.025 -0.02291 4.18e-20)
(-0.06948 0.007035 5.766e-22)
(-0.09966 0.002395 -4.065e-21)
(1.078 -0.03093 6.821e-20)
(0.3778 0.7966 -1.019e-21)
(-0.0002097 -0.001943 1.523e-22)
(-0.1257 0.04291 0)
(1.003 1.582e-06 0)
(0.9993 -1.183e-06 8.959e-23)
(0.02078 0.007657 0)
(0.9905 0.009826 4.806e-21)
(1.008 0.007186 2.106e-20)
(0.937 -0.005312 1.008e-19)
(0.9702 -0.04206 9.459e-21)
(-0.2294 0.08217 -2.289e-21)
(-0.0001634 -0.0009214 2.24e-24)
(0.9386 -0.05926 5.154e-21)
(1.025 -0.09571 -4.2e-21)
(1.044 -0.1807 4.519e-22)
(0.362 -0.09658 1.611e-20)
(0.9957 0.006819 -8.409e-21)
(1.147 0.004563 1.683e-20)
(-0.144 -0.00935 7.407e-22)
(0.9977 -0.005305 6.418e-21)
(0.3569 0.1085 -3.969e-21)
(-0.1357 0.04102 3.557e-24)
(0.03159 0.001437 0)
(-0.03567 0.012 -1.507e-21)
(1.029 -0.1959 -1.464e-21)
(-0.1407 0.03545 -5.242e-21)
(1.026 -0.0945 -1.155e-21)
(1.147 0.4689 -1.556e-21)
(1 0.003907 -1.815e-20)
(0.7867 -0.1541 2.854e-22)
(-0.01751 -0.009192 9.782e-22)
(0.2933 -0.02723 0)
(-0.0564 0.01882 0)
(0.4326 -0.1119 -2.2e-22)
(0.4502 0.02588 5.194e-21)
(-0.1336 0.04587 3.074e-21)
(-0.1722 0.06015 3.355e-21)
(-0.1303 0.03258 3.715e-21)
(1.017 0.004878 -1.606e-20)
(-0.1869 -0.05405 1.371e-20)
(4.781e-05 -0.01126 0)
(-0.13 0.03261 0)
(1.081 -0.07503 1.563e-20)
(-0.1555 0.04728 2.668e-21)
(0.004756 -0.0007326 9.582e-23)
(1.009 0.007012 -1.96e-20)
(-0.05686 0.01943 3.007e-21)
(-0.0983 0.001859 3.641e-21)
(-0.1041 0.01004 -1.638e-20)
(-0.1849 0.04513 -3.159e-22)
(0.5755 -0.2018 1.923e-24)
(0.4158 0.0262 0)
(-0.0008174 -0.004537 2.495e-26)
(0.9199 -0.1845 -1.339e-21)
(-0.02252 0.0004111 0)
(-0.008555 0.002357 2.14e-21)
(1.001 1.738e-05 -7.52e-22)
(1.141 0.3538 -1.373e-20)
(0.2233 -0.02468 6.3e-21)
(0.994 -0.2277 0)
(-0.09986 0.02536 0)
(0.7268 -0.1757 -5.132e-23)
(0.7535 -0.2815 0)
(1.029 0.007436 -6.786e-20)
(0.7255 0.2457 0)
(0.9678 -0.2371 0)
(0.8597 0.1864 1.428e-20)
(-0.1127 0.03849 -2.822e-21)
(1.019 -0.01296 1.261e-20)
(1.146 0.05482 1.274e-23)
(0.9842 0.02092 -4.333e-20)
(0.169 0.01806 0)
(-0.106 0.01168 -5.248e-21)
(-0.1017 0.03331 1.067e-20)
(0.3279 -0.2376 0)
(0.6001 -0.2006 4.063e-20)
(1.167 0.152 -5.481e-21)
(0.3771 -0.06896 0)
(0.9716 -0.001094 -4.932e-20)
(-0.2245 0.07978 -9.789e-22)
(-0.05884 0.01959 -3.242e-21)
(1.127 -0.07393 7.818e-21)
(-0.06707 0.00674 -2.747e-21)
(-0.1339 0.03076 0)
(0.8131 -0.1293 3.558e-21)
(0.9486 -0.001141 -2.693e-22)
(0.9187 -0.2615 1.619e-21)
(1.004 -0.0002351 -1.502e-23)
(1.06 0.06004 2.615e-21)
(1.094 -0.1218 -1.149e-23)
(0.9959 0.001117 0)
(1.001 0.008606 -3.042e-21)
(-0.0008507 -0.00205 -2.205e-23)
(-0.145 0.04094 0)
(0.9956 0.007849 9.109e-21)
(0.7637 -0.109 2.836e-21)
(1.006 -0.01599 6.284e-21)
(0.6799 0.03554 -2.122e-20)
(0.9959 -0.1812 0)
(1.08 -0.07591 -1.544e-20)
(1.024 -0.1918 0)
(1.001 -0.006133 -2.049e-21)
(0.7246 -0.2924 -4.168e-22)
(0.4674 -0.0354 3.255e-21)
(-0.004778 -0.0219 -6.503e-22)
(-0.1855 0.04566 1.218e-21)
(1.167 0.1518 3.945e-21)
(0.3596 -0.04234 -1.767e-21)
(0.9428 -0.2197 -5.73e-22)
(0.8196 -0.2327 -9.53e-21)
(1.046 -0.1657 4.924e-21)
(0.2788 -0.02007 0)
(0.5373 -0.2993 5.356e-23)
(1.044 -0.1803 1.523e-22)
(0.9976 -0.005523 0)
(0.006976 0.02701 -1.708e-23)
(1.105 -0.1143 -4.52e-21)
(0.9789 -0.1511 -3.333e-21)
(0.008414 -0.03301 -2.482e-22)
(0.5374 -0.1286 0)
(1.003 -0.0003575 7.147e-22)
(0.9934 0.0009951 -1.898e-20)
(1.198 0.4921 7.031e-22)
(0.2171 0.0179 2.578e-21)
(0.3416 -0.03852 4.565e-21)
(1.141 0.06488 2.01e-20)
(0.8734 -0.01289 -7.658e-22)
(1.001 -0.1437 0)
(0.5264 -0.03632 -5.302e-21)
(1.052 0.01882 1.977e-20)
(0.9947 -0.2274 -1.425e-22)
(1.197 0.4905 0)
(0.1775 0.02328 -5.537e-21)
(0.9235 -0.04926 4.303e-20)
(0.0318 -0.01213 -5.181e-24)
(0.5608 -0.02262 2.42e-21)
(1.127 0.5231 5.737e-21)
(-0.1784 0.07501 0)
(1.001 0.008514 1.95e-21)
(0.8949 -0.0866 -7.802e-20)
(1.003 8.156e-06 0)
(0.9993 -2.181e-06 0)
(0.8612 -0.143 0)
(0.747 -0.2794 -2.723e-21)
(1.039 -0.1767 -1.296e-21)
(-0.179 0.07553 -1.331e-21)
(-0.1397 0.03862 -1.648e-20)
(1.091 0.008569 -3.706e-20)
(1.029 -0.1956 0)
(-0.01899 -0.01041 7.467e-22)
(-0.06406 0.005375 4.267e-22)
(0.2503 0.06386 -6.833e-23)
(0.752 -0.1043 -1.851e-21)
(-0.1162 0.02745 -5.588e-21)
(-0.1332 0.02829 2.366e-21)
(0.3953 -0.04834 -2.918e-21)
(-0.08888 0.01518 0)
(0.421 -0.04605 2.254e-21)
(-0.06726 0.03234 5.097e-21)
(-0.1223 0.02249 -6.296e-22)
(-0.06622 0.005745 1.939e-21)
(0.9233 0.03413 0)
(-0.1191 0.02896 -1.345e-20)
(-0.1013 0.02577 -2.163e-21)
(1.165 0.3948 -3.46e-21)
(1.004 -0.004673 4.374e-21)
(0.5423 -0.02164 0)
(-0.2172 0.0703 -1.633e-21)
(1.08 -0.07524 1.355e-21)
(0.3921 -0.04231 -3.806e-20)
(0.7115 -0.05157 0)
(0.7007 -0.05898 -3.256e-21)
(1.001 0.002037 1.924e-23)
(0.9909 0.00963 -1.431e-20)
(0.8881 0.0005978 0)
(-0.09709 0.01836 4.037e-21)
(0.9573 -0.0008032 0)
(0.4353 -0.08288 5.893e-20)
(1.053 0.01698 -4.272e-20)
(0.2726 -0.02958 -5.304e-21)
(0.6806 -0.04958 4.414e-21)
(1.025 -0.02156 0)
(1.121 0.06143 -4.424e-22)
(0.5102 -0.04801 2.892e-21)
(0.01035 -0.0147 2.901e-26)
(-0.1821 0.06318 -6.175e-21)
(0.9534 -0.00454 2.686e-21)
(0.3393 0.002528 -4.361e-20)
(0.1832 -0.02111 8.914e-21)
(0.443 -0.05416 0)
(0.941 -0.2219 -2.383e-21)
(0.9861 0.03177 0)
(0.09167 -0.006945 0)
(0.947 0.1315 0)
(0.2259 -0.01128 0)
(-0.1282 0.04315 -8.369e-22)
(0.2311 0.005219 -2.031e-20)
(1.01 -0.004883 -3.569e-20)
(0.7881 -0.2078 0)
(-0.08996 0.02986 2.752e-21)
(0.7313 -0.1876 3.749e-23)
(0.6376 -0.05652 5.761e-21)
(0.4671 -0.03089 3.897e-21)
(0.7925 -0.2096 -7.765e-21)
(0.5221 -0.0304 0)
(0.9224 0.03245 0)
(1.018 -0.01332 0)
(0.2378 -0.01992 -1.691e-21)
(1.001 0.003709 6.724e-21)
(-0.1194 0.02889 0)
(-0.07606 -0.01319 0)
(0.9517 0.1336 0)
(1.09 -0.1292 2.841e-21)
(-0.2052 0.07543 -7.011e-21)
(1.103 -0.1022 7.077e-21)
(1 0.0004102 -8.876e-20)
(0.7217 -0.07494 0)
(0.7409 -0.3132 0)
(0.4047 -0.05573 -3.466e-21)
(0.9758 -0.1732 -3.458e-21)
(-0.2212 0.08447 0)
(0.8463 -0.3021 0)
(-0.1386 0.02897 -3.544e-21)
(-0.1557 0.04554 -5.222e-21)
(0.3306 -0.06687 0)
(0.8834 0.07562 4.123e-21)
(0.7692 -0.3072 -1.132e-21)
(-0.2172 0.0784 0)
(-0.03282 0.01156 -5.296e-21)
(-0.1227 0.03618 0)
(1.004 0.0002266 -2.506e-22)
(-0.1731 0.06021 -4.16e-21)
(0.906 0.2298 -7.166e-21)
(1.02 0.3919 3.544e-22)
(0.9437 -0.164 -6.471e-21)
(-0.1079 0.01126 1.718e-20)
(1.008 -0.1174 1.518e-21)
(1.003 -0.0001376 0)
(-0.1234 0.03675 0)
(-0.12 0.02366 0)
(1.13 -0.001951 9.441e-20)
(1.086 0.1933 5.969e-22)
(1.002 0.002006 -1.195e-21)
(1.063 -0.1597 3.169e-21)
(-0.1267 0.02859 -1.001e-20)
(0.9841 -0.03579 -1.118e-20)
(1.001 -0.006147 0)
(0.9993 -0.001165 -3.4e-21)
(0.7266 -0.05899 1.662e-21)
(1.08 -0.03578 -2.377e-20)
(0.7481 -0.2851 4.859e-21)
(0.9614 0.0235 0)
(0.3784 -0.02742 -2.354e-22)
(0.9915 -0.0001198 4.251e-20)
(0.455 -0.3028 0)
(0.8667 -0.003568 -2.38e-21)
(-0.1437 -0.01099 7.29e-22)
(-0.1443 0.0416 0)
(0.5089 -0.06613 -2.248e-23)
(1.09 -0.1284 -8.255e-21)
(-0.08629 0.0162 2.517e-20)
(0.8645 0.06123 6.085e-23)
(-0.2306 0.08054 -7.041e-22)
(0.3421 -0.04052 -1.694e-21)
(-0.1041 0.009111 0)
(-0.2319 0.08355 0)
(1.118 0.1137 3.43e-21)
(1.118 -0.09641 3.315e-21)
(-0.02205 0.01832 3.588e-21)
(0.01543 0.01813 0)
(0.3444 0.4062 -2.888e-20)
(-0.03386 0.01846 1.693e-24)
(0.9934 -0.0005477 0)
(1 0.02134 0)
(-0.09622 0.02332 0)
(-0.09693 0.0255 6.724e-21)
(1 -0.0001003 0)
(-0.1695 0.05568 2.587e-21)
(1.146 0.06487 1.66e-20)
(1.096 -0.08723 -2.315e-20)
(0.2499 0.016 -9.057e-22)
(1.028 -0.08013 -6.756e-21)
(1.003 -5.866e-05 0)
(0.2876 -0.1764 -2.699e-20)
(1.145 0.06502 -1.616e-20)
(-0.1434 0.0501 -2.114e-21)
(0.07379 -0.009088 1.983e-22)
(0.2386 -0.1272 4.453e-22)
(0.4395 -0.2945 -2.777e-21)
(-0.09831 0.01396 3.525e-21)
(0.5356 -0.1287 0)
(0.7412 -0.3063 0)
(1.11 0.1985 -5.942e-22)
(0.1769 0.006765 -1.737e-22)
(1.008 0.0023 2.665e-20)
(0.3619 -0.03263 -3.154e-21)
(0.9752 0.003686 3.758e-20)
(1.186 0.4946 2.341e-22)
(0.862 -0.08598 2.718e-21)
(-0.06204 -0.007128 0)
(1.17 0.4085 1.707e-21)
(-0.0002774 -0.001561 0)
(-0.1502 0.04603 7.2e-21)
(0.3042 0.2494 8.141e-21)
(1.103 -0.03141 -2.438e-22)
(0.9591 0.6271 4.847e-21)
(0.9967 -0.003542 -4.663e-20)
(0.2343 -0.1298 0)
(1.001 0.02147 -2.232e-24)
(-0.182 0.04945 0)
(-0.1209 0.04202 -3.04e-21)
(-0.0001997 -0.001135 0)
(0.000546 -0.002986 1.261e-22)
(0.002521 -0.0009036 -4.205e-23)
(1.001 -0.0002913 -2.389e-20)
(-0.1207 0.02949 0)
(0.6118 0.1369 0)
(0.9936 0.001173 3.722e-20)
(-0.2071 0.07621 2.519e-21)
(0.847 -0.3053 4.209e-21)
(-0.1755 0.05956 6.757e-21)
(1.067 -0.1502 0)
(-0.145 0.04164 0)
(0.5003 -0.06152 -2.048e-21)
(-0.1691 0.05542 -2.641e-21)
(-0.03707 0.006899 1.307e-21)
(0.9989 -0.0003174 0)
(-0.1184 -0.01961 -9.752e-22)
(-1.431e-05 -3.905e-05 0)
(0.7315 -0.297 7.739e-22)
(0.3816 -0.03801 1.19e-21)
(-0.0437 0.01242 1.18e-21)
(1.01 -0.006176 -1.072e-20)
(1.104 -0.1148 -4.219e-21)
(0.9873 -0.0419 -3.691e-21)
(0.03023 0.0163 5.665e-21)
(1.002 -0.002968 0)
(0.3228 -0.02414 0)
(0.5199 0.2427 0)
(-0.1125 0.03785 -4.098e-21)
(0.9994 1.783e-05 0)
(-0.09672 0.02392 -1.837e-21)
(1.067 -0.09838 -1.149e-20)
(-0.006826 -0.0009698 1.677e-25)
(0.7129 -0.3106 2.146e-21)
(0.3462 0.1116 9.716e-22)
(0.02762 0.01917 -2.078e-21)
(0.9742 -0.003307 2.42e-21)
(-0.1881 0.06634 -2.238e-21)
(0.8219 -0.2981 -2.493e-21)
(1 -0.0001014 2.452e-21)
(0.9421 -0.2214 3.214e-21)
(0.9693 0.08631 -2.079e-20)
(0.5082 -0.04216 -2.594e-21)
(0.7272 -0.05043 2.303e-21)
(-0.09053 0.0239 -7.047e-21)
(-0.0673 0.0234 1.913e-21)
(-0.1258 0.04264 1.488e-21)
(1.167 0.1729 0)
(0.799 -0.3117 1.048e-21)
(-0.1986 0.07062 0)
(-0.1278 0.03798 1.982e-22)
(1.016 -0.001072 -5.562e-21)
(0.2493 -0.01215 5.75e-22)
(-0.152 0.04415 -2.745e-21)
(0.3856 -0.06084 4.423e-21)
(1.082 -0.1152 -6.314e-21)
(-0.2075 0.05823 1.276e-21)
(1 0.0008934 0)
(0.9998 0.001102 1.564e-20)
(0.8662 0.1787 -2.296e-20)
(-0.1134 0.02679 -2.789e-21)
(0.9387 0.6572 0)
(0.9923 0.001483 -2.534e-20)
(1.003 2.054e-05 -4.087e-22)
(0.8302 -0.2887 0)
(0.6288 -0.2759 0)
(-0.2097 0.07751 2.278e-21)
(0.7401 -0.3068 0)
(-0.08244 0.02839 6.81e-21)
(-0.01717 0.00569 0)
(0.9951 -0.2126 2.025e-22)
(1.004 0.02801 0)
(1.001 -0.0002672 4.157e-21)
(-0.1259 0.04405 3.505e-21)
(-0.1644 0.05124 -1.996e-21)
(0.9968 -0.2294 -4.535e-22)
(1.003 -0.0007072 6.714e-21)
(-0.02483 0.0003876 3.323e-21)
(1.104 -0.1084 0)
(-0.131 0.03561 6.406e-21)
(0.9528 -0.003162 9.682e-21)
(0.26 -0.0322 4.009e-22)
(0.9923 0.001242 4.657e-20)
(-0.2053 0.07584 -1.128e-21)
(-0.0784 -0.01812 0)
(0.1618 0.01078 3.749e-22)
(1.001 1.339e-05 1.167e-22)
(-0.1238 0.04212 -1.113e-20)
(-0.1119 0.03779 -6.701e-22)
(0.109 -0.06352 -7.377e-21)
(1.003 -5.434e-05 -1.039e-21)
(1.018 -0.1597 2.776e-21)
(-0.03619 0.01195 7.041e-22)
(0.9993 -0.001217 0)
(1.09 -0.1294 0)
(0.9929 0.006158 -9.102e-22)
(0.8607 -0.05739 3.231e-21)
(0.1284 0.02291 0)
(0.996 0.0009826 2.588e-20)
(-0.09372 0.02292 1.566e-20)
(0.5707 -0.07763 1.841e-21)
(0.006997 -0.03218 0)
(-0.1091 0.0263 -6.526e-21)
(0.01736 0.02823 -7.425e-22)
(0.4416 -0.04849 -6.757e-21)
(0.4563 -0.05541 -2.036e-21)
(0.2465 -0.08242 -3.254e-20)
(0.7541 -0.0704 -1.405e-21)
(1.142 0.6614 8.48e-22)
(0.7597 -0.03817 -2.593e-21)
(-0.1409 0.0353 -7.19e-22)
(0.01173 0.01165 -1.487e-21)
(0.3141 -0.02854 1.471e-21)
(1.003 -0.0006855 0)
(0.5628 -0.1183 6.11e-22)
(0.9948 0.001081 -1.065e-20)
(0.2645 0.08033 -2.14e-20)
(1.029 0.02152 3.251e-20)
(-0.008254 0.0291 5.041e-21)
(1.003 -0.000161 0)
(0.9955 0.007678 2.263e-20)
(1.12 -0.0807 2.62e-20)
(0.7733 -0.3096 5.824e-22)
(-0.1364 0.0336 2.801e-21)
(1.003 -0.0003437 6.093e-21)
(1.002 -0.0009465 -9.859e-21)
(-0.1394 0.04721 -2.616e-21)
(-0.01792 -0.0003159 0)
(-0.1013 0.02329 6.718e-21)
(0.3762 -0.03091 -4.257e-21)
(-0.1942 0.01553 0)
(0.7476 -0.2842 -4.092e-21)
(-0.1456 0.04227 -4.159e-22)
(0.7408 -0.3142 0)
(-0.06216 0.005396 -6.001e-23)
(-0.108 0.03251 -2.683e-20)
(-0.0859 0.008424 0)
(1.003 -0.000362 -1.095e-21)
(-0.09758 0.008818 1.295e-20)
(-0.0546 0.01348 2.207e-22)
(1.043 -0.16 -1.272e-21)
(1.159 0.1075 0)
(1.004 -0.003235 2.044e-21)
(1.003 2.346e-05 3.628e-23)
(0.2241 0.02364 -5.272e-21)
(0.3401 -0.1933 4.475e-24)
(0.1765 0.007477 8.774e-22)
(-0.01896 0.005802 1.247e-21)
(1.028 0.02215 0)
(1.004 -1.961e-05 -5.09e-24)
(-0.1532 0.04912 0)
(-0.1277 0.01761 0)
(0.9398 -0.005019 -8.004e-20)
(-0.1216 0.01518 -4.641e-21)
(1.037 -0.1359 0)
(1.002 0.01364 -5.896e-21)
(-0.07914 0.02401 1.14e-20)
(0.9826 -0.2276 4.21e-24)
(-0.05138 0.01312 1.399e-21)
(0.8604 -0.1717 -2.922e-20)
(0.0006624 -0.0002103 0)
(-0.05988 0.01947 0)
(-0.2319 0.08368 -6.302e-22)
(-0.2305 0.0807 1.312e-21)
(-0.1453 0.04095 0)
(-0.1046 0.01989 7.209e-21)
(0.2973 -0.04213 -9.176e-22)
(-0.1034 0.01888 0)
(0.9752 -0.03005 -7.889e-21)
(-0.08953 0.01614 6.222e-21)
(-0.02898 -0.01322 0)
(-0.1182 0.02886 -3.028e-21)
(1.002 -0.0006753 2.241e-20)
(0.8448 -0.1317 -2.544e-21)
(0.8772 -0.2311 0)
(0.5858 -0.01767 -2.737e-20)
(0.9994 5.043e-06 4.123e-23)
(1.002 -0.000701 -2.985e-20)
(0.0003539 -0.01182 0)
(1.103 -0.02927 -7.544e-21)
(0.6153 -0.1148 1.537e-21)
(-0.09163 0.008504 -3.2e-22)
(0.5979 -0.3271 0)
(0.005795 0.02633 9.359e-21)
(1.156 0.1882 0)
(0.3315 -0.0282 1.812e-21)
(0.707 -0.03098 4.26e-20)
(0.7354 -0.1994 0)
(1.008 0.002073 -9.658e-21)
(1.003 -0.0004022 0)
(1.144 0.3737 0)
(0.9146 0.2316 0)
(-0.105 0.02073 9.399e-22)
(0.5929 -0.02919 0)
(0.4415 -0.1818 2.444e-21)
(-0.2022 0.04652 0)
(0.7055 -0.2918 -1.964e-21)
(1.145 0.003656 1.075e-19)
(0.4445 -0.04328 5.619e-20)
(1.002 5.64e-05 -1.119e-22)
(0.4153 -0.02742 -1.177e-21)
(1.03 -0.07928 -1.062e-21)
(0.6858 -0.1604 2.141e-22)
(-0.0004962 -0.002301 2.152e-23)
(1.059 -0.1632 9.296e-22)
(0.2169 0.0275 -9.392e-21)
(-0.1816 0.06327 6.222e-21)
(1.001 2.362e-05 -1.063e-22)
(1.05 -0.1124 1.126e-22)
(0.6859 -0.05882 -3.81e-21)
(-0.0348 0.01198 0)
(-0.07966 -0.03748 7.624e-21)
(-0.03603 0.02049 3.102e-21)
(-0.06168 0.006098 -9.146e-22)
(0.8526 0.717 0)
(-0.1559 0.04556 4.999e-21)
(0.6229 -0.3307 3.742e-21)
(-0.1568 0.04384 -1.557e-21)
(0.7791 -0.1913 -2.345e-23)
(1.014 -0.1083 3.208e-21)
(1.105 -0.1144 2.136e-21)
(-0.1502 0.05559 2.696e-21)
(1.017 -0.1711 -2.498e-21)
(0.002437 -0.0001459 0)
(0.8748 -0.2323 0)
(0.9425 0.03133 3.259e-20)
(0.9748 -0.2208 2.212e-22)
(0.7647 -0.324 3.383e-21)
(0.8719 -0.09033 -8.356e-22)
(1.005 -0.000118 0)
(-0.05456 -0.01176 -3.665e-22)
(-0.0596 0.03297 -1.015e-20)
(-0.21 0.07789 -2.115e-21)
(1.004 -1.779e-06 -6.862e-23)
(-0.01855 0.006868 0)
(-0.1276 0.0385 0)
(0.2625 -0.03574 6.782e-21)
(1.003 6.905e-05 5.989e-22)
(-0.1004 0.01834 8.547e-21)
(-0.1738 0.05128 0)
(-0.133 0.0262 9.795e-21)
(-0.1186 0.01317 -3.087e-21)
(1.002 4.354e-06 -5.134e-22)
(-0.2021 0.07615 -3.554e-21)
(-0.01829 -0.0007951 0)
(-0.08178 0.02272 1.306e-20)
(-0.1011 0.0255 0)
(0.9893 0.01049 -5.701e-21)
(-0.01737 -0.01105 6.852e-22)
(0.09991 0.05276 0)
(1.015 0.003349 -1.091e-20)
(1.036 -0.1885 -1.39e-21)
(1.002 -0.1995 0)
(-0.1035 0.02013 -6.901e-21)
(-0.1509 0.04609 0)
(0.9427 -0.2181 -1.93e-21)
(1.058 -0.1632 0)
(0.1942 -0.02288 1.145e-21)
(-0.1128 0.0358 0)
(0.9999 -5.415e-06 -4.292e-22)
(-0.2027 0.0763 3.369e-21)
(-0.177 0.07603 5.197e-22)
(0.2255 -0.01841 0)
(0.4402 -0.06361 2.661e-21)
(1.143 0.1352 0)
(-0.2059 0.07551 0)
(-0.07181 0.02513 4.854e-22)
(0.9997 1.248e-05 2.402e-22)
(-0.1783 0.06089 -6.373e-21)
(-0.08009 0.02366 0)
(0.06237 -0.004888 0)
(0.0009055 -0.0134 -2.412e-23)
(0.07137 -0.004487 -8.088e-22)
(-0.1142 0.03884 6.268e-21)
(-0.1224 0.02685 -6.418e-22)
(-0.1718 0.0333 0)
(0.9886 -0.219 0)
(1.001 -0.000278 1.166e-20)
(0.0001789 -6.999e-05 -1.581e-23)
(-0.1511 0.04495 6.493e-21)
(-0.1076 0.02626 5.774e-21)
(-0.09593 0.03431 2.197e-21)
(-0.2295 0.08454 -4.35e-21)
(-0.1853 0.06559 8.582e-21)
(-0.1505 0.04968 -2.996e-21)
(0.5901 -0.04557 0)
(1.001 -0.0002505 0)
(-0.0707 0.003662 0)
(1.087 -0.1289 -1.376e-23)
(1.002 2.041e-05 0)
(-0.1291 0.04081 -1.1e-20)
(1.186 0.493 0)
(0.9958 -0.1524 2.329e-21)
(0.8602 -0.2992 -1.238e-21)
(1.003 -2.992e-05 -4.094e-21)
(-0.1447 0.04212 0)
(-0.09623 0.007421 0)
(1.008 0.002317 -3.103e-20)
(1.003 -3.369e-05 0)
(1.158 0.1059 0)
(-0.1514 0.07295 4.003e-21)
(-0.1946 0.01686 -1.813e-21)
(-0.192 0.06802 3.731e-21)
(-0.2077 0.07717 3.144e-21)
(0.05566 -0.0009576 2.175e-23)
(1.08 -0.1382 0)
(0.7271 -0.1728 -2.306e-20)
(1.002 -0.0007075 0)
(-0.1778 0.05854 -3.106e-21)
(-0.2234 0.08025 0)
(0.5017 -0.03103 -2.801e-21)
(0.3102 -0.02548 0)
(0.7204 -0.2387 -1.468e-20)
(1.004 -0.0001899 0)
(1.01 -0.005843 1.652e-21)
(1.004 0.009321 1.879e-20)
(-0.02512 -0.0002827 3.529e-21)
(1.002 -0.0006621 3.935e-21)
(1.142 -0.009048 -4.273e-20)
(0.3813 -0.232 8.488e-22)
(1.047 -0.1324 4.679e-21)
(0.2182 -0.03362 -4.239e-21)
(1.002 -0.0009004 0)
(-0.1225 -0.003882 -1.077e-21)
(1.044 -0.1255 -2.876e-21)
(1 0.004666 0)
(0.4018 -0.04883 2.845e-21)
(1 -0.0001277 0)
(0.667 -0.3322 5.219e-21)
(0.02899 -0.02281 -6.424e-21)
(-0.09857 0.009448 -1.31e-22)
(0.5112 0.04167 0)
(0.175 -0.008179 7.043e-22)
(1.004 -0.00568 -1.811e-22)
(-0.08487 0.02256 0)
(0.8532 -0.1811 -7.714e-21)
(0.3309 -0.02586 0)
(-0.0138 -0.01614 -9.822e-22)
(0.3112 -0.03946 1.421e-21)
(0.6085 0.8366 -1.44e-21)
(1.143 0.137 -7.013e-21)
(1.022 -0.18 1.409e-21)
(0.7873 -0.2712 6.101e-23)
(0.06135 -0.005598 0)
(0.9989 0.005466 0)
(0.5869 0.02284 1.305e-20)
(0.6467 -0.2092 0)
(0.5701 0.1564 2.818e-22)
(-0.02862 -0.01261 2.582e-22)
(0.1265 -0.02639 0)
(1.003 -0.000178 0)
(1.092 -0.08728 3.835e-20)
(-0.1245 0.04292 -1.708e-21)
(0.2401 -0.05477 5.688e-22)
(-0.01798 0.0005049 1.408e-20)
(0.9293 0.2283 0)
(0.01328 -0.01348 -1.335e-21)
(0.4305 0.1135 -1.156e-21)
(-0.01207 -0.0009436 3.43e-21)
(-0.1382 0.03352 -3.537e-21)
(-0.1042 0.03645 4.401e-21)
(-0.0616 0.004566 4.696e-21)
(0.1008 -0.007338 2.362e-21)
(0.9969 0.03284 1.532e-21)
(0.9572 -0.1395 0)
(1.003 3.068e-05 0)
(1.001 4.877e-06 0)
(-0.0514 0.02743 2.569e-21)
(1.03 0.03957 9.634e-22)
(-0.09112 0.0007211 3.151e-21)
(-0.1898 -0.06043 -2.257e-20)
(0.2785 0.412 0)
(1.108 -0.102 -1.702e-20)
(1.045 -0.02884 -2.431e-20)
(1.19 0.507 2.203e-21)
(0.9601 -0.2206 -3.096e-22)
(1.01 -0.004828 2.502e-20)
(0.1005 0.02281 1.826e-22)
(-0.2133 0.0772 -1.296e-21)
(1.043 -0.02735 3.297e-20)
(-0.09544 0.0222 -1.686e-20)
(-0.0139 0.005016 -2.448e-21)
(-0.06103 -0.02036 0)
(1.017 -0.2057 0)
(0.1335 -0.1013 -1.124e-20)
(0.005432 0.01585 0)
(-0.1724 0.06078 0)
(0.9971 -0.002062 1.894e-20)
(-0.05765 -0.006797 1.776e-21)
(0.6966 -0.1634 -1.903e-22)
(1.004 -0.004522 0)
(-0.09663 0.02404 7.904e-21)
(-0.1532 0.04485 0)
(-0.1248 0.06451 -1.929e-21)
(1 -8.602e-05 1.11e-21)
(0.8595 -0.0009835 3.395e-21)
(0.2184 0.01257 0)
(0.04023 -4.478e-05 4.4e-23)
(0.8624 -0.2799 -2.985e-21)
(-0.0137 0.004569 0)
(-0.1605 0.05102 2.626e-21)
(0.7492 -0.318 0)
(0.989 -0.2192 8.736e-23)
(-0.02434 0.008221 0)
(-0.1143 0.01314 3.282e-21)
(1.001 1.17e-05 -1.166e-22)
(0.3139 -0.1848 0)
(1.097 0.3052 -8.123e-21)
(1.003 2.973e-05 0)
(0.7774 -0.2894 1.108e-22)
(0.003829 -0.001506 1.877e-22)
(0.3201 0.002787 -5.213e-21)
(-0.02804 0.002666 -1.599e-20)
(1.163 -0.05711 7.172e-21)
(1.054 -0.1609 8.893e-22)
(-0.01057 0.003355 1.903e-25)
(0.03303 -0.003553 -4.836e-22)
(0.6019 -0.06531 0)
(1.003 0.02764 -8.97e-22)
(0.9977 0.00189 6.083e-21)
(1.027 -0.1963 0)
(0.7047 -0.3008 -1.194e-21)
(-0.184 0.06415 -1.195e-20)
(-0.1031 0.0238 0)
(0.3 0.6138 -8.999e-21)
(0.3837 -0.1595 -1.479e-21)
(0.5043 0.002427 -2.005e-22)
(1.105 0.127 -1.568e-20)
(0.3764 -0.156 -1.443e-21)
(1.098 0.01231 3.963e-20)
(-0.04039 0.003316 0)
(1.004 0.0005097 0)
(-0.2243 0.08472 3.378e-22)
(0.008829 -0.03609 -7.539e-23)
(-0.07356 0.02139 -5.385e-21)
(-0.1241 0.03536 0)
(-0.1658 0.05185 0)
(0.997 0.000373 -1.721e-20)
(0.9871 -0.0047 1.15e-20)
(-0.1125 0.03919 0)
(0.9585 -0.1893 3.754e-21)
(-0.1997 0.06916 0)
(0.6572 -0.0835 0)
(-0.1627 0.05877 -5.379e-21)
(-0.2186 0.06451 -1.557e-21)
(0.3405 0.02207 -7.576e-22)
(0.03266 0.01967 -3.861e-21)
(-0.1216 0.01602 -1.126e-20)
(0.0575 -0.01033 -2.793e-21)
(-0.03302 0.00484 -1.498e-21)
(0.4359 -0.03031 2.12e-21)
(-0.07359 0.02204 1.149e-20)
(1.088 -0.1313 -6.041e-21)
(-0.2149 0.07978 4.165e-21)
(0.3938 0.7964 1.217e-21)
(-0.1849 0.06578 -2.317e-22)
(0.009 -0.03828 3.689e-22)
(0.0007883 -0.0004632 0)
(-0.1668 0.05214 0)
(1.004 -0.0001081 0)
(1.004 -0.001406 1.524e-20)
(-0.1974 0.07553 2.518e-21)
(-0.227 0.07566 0)
(1.042 -0.1632 8.1e-21)
(1.002 1.69e-05 0)
(0.7091 -0.3165 -3.479e-21)
(-0.1456 0.04208 2.16e-21)
(1.128 -0.07449 -2.142e-20)
(-0.1685 0.05885 0)
(0.3133 0.02519 -9.042e-21)
(-0.0971 0.0309 -1.277e-20)
(1.038 0.5253 -8.099e-21)
(0.9999 0.0003993 -5.54e-20)
(1.022 -0.1684 0)
(1.145 -0.04027 -1.293e-20)
(0.2466 -0.09773 0)
(0.2836 -0.02128 0)
(-0.1511 0.04047 3.932e-22)
(0.7539 -0.2173 1.224e-20)
(0.5849 0.02302 2.391e-20)
(-0.0964 0.01855 0)
(0.6175 -0.05462 -1.207e-21)
(1.133 -0.08658 0)
(-0.1937 0.05328 0)
(0.7192 -0.3239 3.836e-21)
(0.8633 -0.09978 3.118e-21)
(-0.217 0.07795 0)
(0.3698 -0.1603 -1.871e-21)
(1.006 -0.006882 -8.327e-22)
(-0.01309 0.004651 0)
(-0.01205 0.00369 0)
(-0.1744 0.07523 0)
(-0.1009 0.02477 8.977e-21)
(0.1055 -0.07517 -1.81e-20)
(0.999 0.01154 1.936e-21)
(-0.01301 0.003332 4.523e-21)
(0.0633 -0.01429 0)
(1.001 -0.0001045 0)
(1 -5.009e-05 -8.154e-21)
(-0.07549 -0.004555 1.976e-24)
(-0.1345 0.03347 8.611e-21)
(0.001806 -0.0007635 -1.888e-22)
(-0.0174 -0.01988 3.004e-22)
(0.972 -0.1414 -6.259e-22)
(0.7096 -0.2635 0)
(-0.09895 0.03319 -1.289e-20)
(1.029 -0.1645 0)
(1.069 -0.133 0)
(1.007 -0.005117 7.192e-21)
(-0.082 0.02754 -2.031e-20)
(-0.1252 -0.03854 0)
(-0.1267 0.0437 -1.136e-20)
(1.01 -0.2029 0)
(-0.01209 0.002236 7.958e-22)
(-0.2151 0.07864 -6.392e-21)
(1.002 -0.0005797 -4.285e-22)
(0.06153 -0.009705 0)
(-0.1773 0.05682 -2.834e-21)
(1.001 -0.000675 -3.613e-20)
(-0.09907 0.01444 -5.433e-21)
(1.001 -0.0001067 -3.393e-21)
(0.9984 -0.002751 1.386e-20)
(1.075 -0.1451 1.774e-21)
(1.01 -0.1456 0)
(-0.02362 0.003454 -1.937e-20)
(1.001 -0.001261 3.288e-21)
(0.4071 -0.04795 -3.383e-22)
(1.002 0.003733 0)
(1.189 0.5139 0)
(1.018 -0.1322 4.62e-21)
(0.08157 0.003798 5.082e-21)
(1.095 -0.1222 -4.394e-21)
(0.5436 -0.1074 -2.229e-22)
(0.5847 -0.08377 0)
(-0.07214 0.02091 2.756e-20)
(1.084 -0.1195 6.258e-21)
(1.003 -0.001534 3.337e-21)
(1.024 0.006727 3.845e-20)
(-0.06751 0.0211 2.798e-21)
(0.8597 -0.1585 5.753e-22)
(-0.1861 0.06557 -9.836e-22)
(-0.1001 0.03307 0)
(0.1507 -0.009652 1.104e-25)
(-0.07886 0.02596 -7.562e-21)
(-0.007106 0.002362 -1.869e-20)
(-0.1116 0.02604 8.849e-21)
(0.7203 -0.2031 0)
(-0.06776 -9.66e-05 -2.833e-20)
(0.5273 -0.0567 -6.314e-22)
(0.1955 -0.02605 0)
(0.8144 0.3337 4.393e-21)
(-0.0218 0.01497 0)
(1.002 -0.004719 2.795e-21)
(-0.1224 0.02491 2.119e-20)
(-0.05924 0.0002481 5.578e-22)
(0.3153 -0.05203 0)
(0.9971 4.253e-05 4.25e-21)
(0.4664 -0.308 4.699e-21)
(-0.1379 0.04353 0)
(0.9829 -0.09257 4.85e-22)
(0.9346 -0.2588 1.279e-22)
(-0.07417 0.002416 -2.848e-22)
(1.08 -0.1289 -5.438e-21)
(-0.08386 0.01851 0)
(-0.07758 0.03334 2.256e-21)
(0.9878 -0.09343 1.449e-21)
(-0.1418 0.04466 -7.348e-23)
(0.5336 -0.1471 -6.502e-22)
(-0.01247 -0.017 1.075e-21)
(1.001 -0.0002441 0)
(1.148 -0.07759 -4.887e-21)
(-0.1228 0.02349 0)
(1.003 -0.00657 0)
(-0.1371 0.0294 0)
(-0.1247 0.01633 2.001e-21)
(0.9994 -1.006e-05 1.374e-21)
(0.9989 -0.2096 -7.15e-22)
(-0.06516 0.01232 0)
(1.037 -0.01859 0)
(0.8314 0.3365 -1.804e-20)
(0.05815 0.01259 0)
(0.02901 -0.01388 0)
(1.04 -0.1414 -8.209e-21)
(1.003 1.809e-05 -1.051e-22)
(-0.1316 0.03115 -1.995e-22)
(-0.1203 0.03512 -5.114e-22)
(1.009 -0.001007 2.032e-20)
(0.885 0.3035 8.951e-21)
(1.029 0.07717 4.551e-21)
(-0.1482 0.0434 3.284e-21)
(-0.1143 0.03037 -8.853e-21)
(1.043 -0.1789 -1.826e-21)
(1.044 -0.02349 0)
(-0.02428 0.004231 -5.839e-22)
(-0.002601 0.0008208 6.829e-22)
(0.584 -0.124 1.829e-23)
(0.7162 -0.1143 -1.841e-21)
(-0.1701 0.06098 -1.722e-21)
(0.1003 -0.00801 0)
(0.9918 4.064e-06 -4.172e-21)
(0.8047 -0.08576 3.454e-21)
(1.003 0.004913 7.49e-23)
(-0.1683 0.05245 0)
(0.6513 -0.3034 -3.826e-21)
(-0.1346 0.02704 0)
(0.9337 -0.258 1.128e-21)
(0.005196 -0.01604 -6.427e-22)
(-0.03249 0.005121 0)
(0.9993 0.001611 -1.318e-20)
(-0.004157 0.001529 0)
(-0.04577 0.01504 0)
(-0.0582 0.01668 7.677e-21)
(1.072 -0.09004 4.879e-21)
(0.8074 0.2682 0)
(-0.1022 0.03984 -2.063e-21)
(-0.04749 -0.03277 7.877e-21)
(0.2583 -0.01882 0)
(1.025 -0.1428 0)
(0.8913 -0.01014 -7.564e-20)
(0.01566 -0.0008092 6.775e-22)
(-0.2247 0.07577 1.315e-21)
(0.6426 -0.04474 0)
(0.4426 -0.09386 8.178e-22)
(0.8103 -0.1241 0)
(0.5312 -0.3177 -7.682e-21)
(0.005881 -0.01412 2.532e-21)
(-0.06531 0.02284 3.305e-22)
(0.9923 -0.1693 -4.375e-22)
(-0.1728 0.05937 0)
(0.488 0.04731 0)
(0.5011 -0.0609 3.007e-21)
(0.5702 -0.05844 -2.168e-21)
(0.2519 0.003247 0)