/*--------------------------------*- C++ -*----------------------------------*\
  =========                 |
  \\      /  F ield         | OpenFOAM: The Open Source CFD Toolbox
   \\    /   O peration     | Website:  https://openfoam.org
    \\  /    A nd           | Version:  8
     \\/     M anipulation  |
\*---------------------------------------------------------------------------*/
FoamFile
{
    version     2.0;
    format      ascii;
    class       volScalarField;
    location    "15";
    object      k;
}
// * * * * * * * * * * * * * * * * * * * * * * * * * * * * * * * * * * * * * //

dimensions      [0 2 -2 0 0 0 0];

internalField   nonuniform List<scalar> 
127143
(
1.047e-14
1.057e-13
7.43e-13
3.793e-12
2.821e-12
4.004e-12
5.926e-11
1.46e-11
6.975e-12
5.357e-12
1.436e-10
1.799e-11
5.356e-12
6.538e-12
2.44e-05
1.632e-10
3.873e-12
0.06292
0.0268
1.647e-08
0.002565
1.068e-07
0.000154
6.366e-06
9.641e-08
1.326e-07
3.229e-09
3.327e-09
1.114e-07
0.06224
2.159e-06
1.279e-07
3.816e-08
7.923e-07
0.0001509
3.74e-08
0.002565
0.01423
1.273e-05
7.725e-08
0.02704
0.0001531
0.0001526
4.018e-11
0.06111
9.616e-07
1.141e-07
0.009252
7.849e-06
1.021e-05
3.814e-10
0.0001494
0.0006664
0.000154
0.0001395
2.81e-06
0.0001394
0.0001657
0.0001472
0.0001539
0.0001529
0.01443
5.09e-05
0.0001482
6.089e-07
0.0001585
0.0001511
4.458e-05
4.512e-05
0.0002157
4.571e-06
7.08e-09
0.02678
0.0001472
0.0001458
7.071e-09
0.0001475
0.001866
2.787e-06
0.000149
8.931e-08
1.574e-08
6.413e-06
1.718e-07
0.02021
0.002854
2.113e-05
1.785e-08
0.0001573
4.172e-05
0.0001468
0.000472
8.014e-05
0.002623
0.0002243
0.0001722
0.000153
8.162e-07
0.002871
0.0001511
0.0001489
9.045e-06
8.056e-06
0.0001123
0.003151
0.002685
3.538e-05
0.0002165
0.000167
0.0001424
3.212e-05
1.6e-08
0.001002
0.0001675
0.0001455
0.0001516
0.0001476
0.0001459
0.0001474
7.744e-09
0.0001425
7.189e-06
7.029e-05
0.0001625
1.048e-07
3.544e-08
0.008411
0.0001486
4.038e-05
2.317e-06
0.0004575
0.0001918
6.423e-05
0.001977
1.243e-10
0.0005053
0.0001553
0.004723
3.05e-07
0.0001533
0.0001544
0.0001468
0.003293
0.008288
0.0007091
0.0001556
4.086e-07
0.0001483
0.0001657
3.324e-06
8.652e-05
1.105e-05
0.008251
0.0001518
0.0001175
0.02034
0.0001658
1.899e-06
0.009522
6.071e-07
5.308e-06
4.752e-10
0.0001468
0.0004668
3.1e-07
9.911e-07
0.001206
0.0001557
2.12e-06
0.0001489
0.0001118
0.008268
0.0001428
9.369e-05
0.0006245
0.0106
0.0001788
4.191e-05
1.003e-05
0.000156
9.451e-05
0.0001549
0.01121
0.01084
2.674e-06
0.01492
0.0001513
0.0001668
8.44e-06
0.0001549
0.000514
7.316e-05
0.0001549
0.0001921
6.643e-11
0.008281
0.0001289
0.0001282
1.59e-09
0.0001457
0.0001452
0.0001491
0.003423
0.003137
2.909e-11
3.197e-05
0.000153
7.86e-05
0.05297
0.0001455
0.000164
0.01881
0.0001448
2.37e-06
0.0001609
3.87e-10
1.309e-05
8.134e-05
0.0005069
0.0001531
0.000183
0.0001462
1.037e-05
0.0006955
3.961e-07
7.407e-05
7.158e-07
0.01392
0.0002983
0.005558
0.00222
0.0001547
0.02727
8.578e-08
0.002288
0.0001571
0.0004627
2.25e-13
0.0001452
0.001092
8.439e-05
9.774e-07
0.01298
2.043e-06
0.0016
9.203e-09
2.1e-05
2.885e-09
4.761e-09
0.0002632
0.000166
1.791e-07
7.681e-05
0.004699
6.169e-06
0.000169
0.0001486
5.509e-06
0.0001338
0.0001507
0.00849
0.0001515
0.0002304
0.0001467
0.0004265
8.378e-07
5.294e-05
7.05e-05
0.0001551
0.0001239
5.655e-07
0.0006168
0.01262
0.001049
6.433e-05
0.0005716
0.001056
1.373e-05
0.001165
0.0001538
0.0002206
0.0001852
0.0001131
0.0001455
0.0001454
6.131e-11
0.0003184
0.0001455
1.223e-05
0.0001565
0.008328
0.0001578
0.0001571
0.0001341
0.0001451
0.000175
2.787e-06
0.001822
0.01291
0.0001275
9.82e-07
0.0001596
0.0001547
0.0001552
3.048e-07
0.0001359
7.903e-05
0.0001448
0.0271
7.105e-05
3.199e-05
0.0002538
1.766e-06
0.0001945
0.0001453
5.682e-05
0.01068
8.637e-07
0.000158
0.005642
0.0001537
3.378e-06
0.0001512
7.612e-05
5.344e-05
0.00613
0.0001501
0.003587
4.741e-06
0.000185
0.01062
0.0001454
0.0001509
0.000129
0.0001283
0.0001517
0.0001673
0.0001431
0.01065
0.0002168
0.0001534
8.088e-05
0.001121
0.0006297
0.000175
1.159e-05
2.641e-05
0.0005484
1.324e-06
1.497e-05
1.709e-06
0.02755
0.008981
0.0005846
0.0001493
3.506e-05
0.004576
0.0001623
0.0001486
4.709e-06
0.01565
5.627e-05
0.05629
1.127e-05
1.132e-05
0.0001468
0.0001457
0.003599
5.913e-06
0.00118
0.0001553
0.0001513
3.781e-07
9.943e-06
0.0001542
0.0001534
3.468e-06
3.259e-07
0.004018
0.001211
0.05521
8.143e-08
1.932e-06
0.0001595
0.0001475
3.634e-09
0.0001502
1.006e-07
0.007704
0.03306
0.0001461
0.0001533
0.0001935
6.413e-06
8.265e-06
2.131e-06
0.0001533
3.009e-06
0.0001493
0.0001513
1.715e-07
0.0001462
0.002958
0.01177
0.0001503
7.585e-05
0.003736
6.419e-05
0.000149
1.249e-05
0.0001355
1.089e-06
0.0001545
0.009658
8.296e-05
0.0002477
0.001395
3.408e-07
0.001069
1.75e-05
0.001369
4.241e-07
9.126e-05
0.0002223
0.005297
0.0001509
0.0001525
0.0001528
1.385e-06
0.000153
0.0001412
9.392e-05
0.007521
0.001955
0.0001214
0.0001468
7.276e-05
3.896e-05
0.0001493
0.0001451
0.0001453
1.315e-05
0.0001554
0.0001713
0.0001481
1.015e-06
0.0001454
4.541e-05
0.003861
0.01882
0.002544
3.257e-06
8.079e-05
4.076e-06
0.0001501
0.00479
8.147e-07
1.898e-06
0.004787
0.0002187
6.684e-05
0.0001485
0.01926
0.0001566
0.0001332
0.0004843
0.0001463
0.002481
1.837e-05
0.0001386
0.004109
0.0001631
0.0001626
0.0113
0.0001528
0.0001347
0.000147
0.0001601
0.000116
0.001776
1.264e-07
5.393e-05
2.886e-05
1.922e-06
0.0001615
0.0001208
0.002706
0.0001447
1.019e-06
0.0001468
8.991e-05
2.47e-05
0.0004049
0.0001491
2.798e-10
0.0003402
0.0001567
0.0001599
0.0001599
0.0001448
1.162e-07
0.0001463
0.009929
0.008901
2.335e-12
1.279e-09
5.359e-09
0.000147
3.931e-05
5.471e-05
0.0001454
0.01524
5.364e-05
0.0006985
0.0001127
0.002372
3.121e-06
0.004163
8.727e-08
0.0004215
0.01741
2.48e-08
1.172e-05
1.16e-06
0.0001534
0.0001468
8.97e-05
0.001972
0.02066
0.0001457
5.985e-07
1.007e-06
0.0001597
0.0001304
0.002446
0.0001567
5.99e-05
0.0001525
1.071e-06
0.0254
0.0001469
0.0003517
0.0001471
0.0001387
0.0001596
0.0006261
3.671e-06
1.205e-05
1.378e-05
1.201e-05
0.008107
0.000122
2.443e-05
0.001122
0.000112
0.0001463
1.407e-07
0.0005419
8.055e-07
5.789e-05
0.01274
0.0001483
0.0001479
0.0001506
2.276e-05
0.0001657
0.0001454
0.0001419
0.0001665
4.974e-06
0.003951
0.0001607
1.206e-05
1.926e-07
0.0001579
0.000147
0.0001426
0.0001292
0.002813
5.023e-05
0.0001574
6.415e-09
6.49e-05
0.0001172
0.00119
2.842e-07
0.0001454
0.004159
0.01323
0.03401
0.0001346
8.331e-05
0.008552
7.271e-09
0.0001346
3.751e-05
1.439e-05
0.0001453
7.616e-05
0.0001455
2.371e-05
0.004361
0.0001455
9.363e-06
3.994e-06
0.0003577
0.0002938
0.004144
2.076e-06
2.225e-06
0.0002011
1.581e-05
9.676e-05
1.261e-05
0.006617
0.0003169
5.369e-07
0.0001488
2.241e-06
0.0001454
0.000167
0.0001486
0.003519
0.0001413
0.0001455
0.0001636
1.86e-05
0.001255
0.0001384
0.0001412
0.0003823
1.434e-07
1.283e-05
1.188e-06
0.02066
0.0001707
0.002607
0.0001299
0.0006752
5.227e-05
2.846e-07
0.0001385
4.443e-06
0.0009778
0.0001651
0.0001565
0.000147
0.0001417
0.006239
5.93e-07
0.002759
1.086e-06
0.0001485
0.0001456
0.0003537
6.446e-06
0.000149
1.284e-06
0.0001565
0.000164
1.945e-05
0.0001307
0.001058
0.0001523
6.767e-11
9.7e-05
0.004979
0.004689
0.0003382
0.0001088
4.91e-07
2.927e-05
0.0001488
7.171e-05
0.002264
0.003166
0.0001417
1.539e-05
0.0001559
0.000152
0.0001303
0.0001415
3.006e-07
0.0001601
4.039e-06
0.0001059
6.226e-05
0.02688
0.0001582
6.273e-07
0.0001513
6.683e-06
0.0001446
0.0001393
0.0001692
0.0001509
8.938e-06
0.0001521
8.069e-07
0.01909
8.831e-06
0.0001602
0.05494
0.000143
1.222e-06
0.0001529
5.142e-06
1.336e-10
5.878e-05
0.0004515
0.004348
0.0001363
5.066e-05
1.147e-05
5.368e-07
0.03993
0.01257
0.0006925
4.906e-06
0.001352
1.92e-05
0.02149
9.181e-06
4.34e-05
7.13e-05
0.008738
0.0001603
1.666e-14
0.0001558
0.0001488
3.187e-05
6.01e-05
2.456e-05
0.000144
0.006951
0.0281
0.004074
0.0001492
9.098e-07
0.0001159
2.709e-07
0.0001604
2.281e-05
0.005602
4.197e-05
3.083e-05
0.0001506
0.005605
0.0002591
1.011e-05
0.004292
0.0001458
0.001118
0.0001615
0.0001459
7.869e-05
0.0001662
0.0001281
0.0003551
0.0001585
5.839e-05
1.011e-07
7.986e-05
0.0001278
0.005562
0.01623
1.277e-07
1.455e-06
0.0001545
0.01552
1.611e-05
0.0001283
0.0007927
2.059e-05
0.002139
1.646e-07
0.002159
0.0001845
0.001334
0.01492
0.0001539
0.0001469
2.807e-11
0.0004316
0.0003466
2.898e-05
0.005778
0.0003049
0.0002625
6.436e-06
0.0001424
0.031
0.0001121
0.0001457
0.0001371
9.108e-05
3.46e-05
6.991e-05
0.0001364
0.002877
0.009405
0.0001447
0.000136
0.0001576
0.01432
0.02059
0.0003853
0.004439
1.374e-09
9.727e-05
0.0001525
0.0001418
0.001697
0.001803
2.673e-06
4.729e-07
0.0001552
0.0001946
0.0001465
0.00239
6.477e-09
0.0001419
0.0001599
1.488e-06
4.863e-05
1.138e-07
0.0001481
0.01652
4.713e-05
0.0001459
1.4e-06
0.0001416
5.662e-05
1.258e-06
3.527e-05
0.0007418
3.891e-08
0.0001463
1.106e-05
0.0001525
7.078e-07
0.001008
5.685e-07
4.56e-06
0.0001544
0.0001655
0.0001634
8.313e-10
0.0001457
0.02261
3.85e-06
9.074e-06
0.002106
1.563e-08
0.0001904
0.0001998
0.0001232
8.965e-08
8.199e-10
5.065e-05
4.265e-10
1.239e-05
1.656e-10
0.0001941
3.807e-05
0.03169
5.876e-09
0.0001474
2.889e-05
0.0001346
0.0001332
0.002672
0.0001495
0.0001432
0.03481
0.000165
0.000151
0.000155
3.942e-05
2.916e-05
0.0001461
0.0422
0.001758
0.0001549
8.402e-06
1.487e-08
0.01266
8.914e-05
2.904e-05
0.01215
0.0002062
0.000145
0.0004212
5.555e-06
0.0001482
1.293e-05
0.0005656
0.01531
0.0001379
0.006524
0.05367
6.363e-10
0.0001641
1.406e-08
0.004026
0.0001082
3.715e-05
8.618e-06
2.411e-06
0.0001306
4.703e-07
0.000153
0.0001317
0.000174
8.274e-08
0.04789
3.102e-06
8.317e-05
0.0001378
3.548e-06
9.577e-11
6.232e-06
0.0001469
0.0001461
8.702e-05
0.0001739
0.0005382
1.351e-05
0.0001952
5.123e-07
0.002942
0.0001521
4.466e-07
0.0001535
1.554e-08
0.0001444
0.007908
0.0001598
0.004705
9.01e-05
0.002802
0.0001457
0.0001458
4.523e-05
0.0001548
0.001005
7.366e-06
0.0001719
0.01589
0.00248
2.442e-05
7.092e-06
8.524e-10
0.001316
1.557e-06
1.19e-05
7.862e-05
0.01372
0.0001942
0.000308
7.661e-05
2.624e-07
0.002614
0.000144
0.0001429
0.006629
0.008581
0.0001648
0.0001392
0.000129
0.002545
0.0001625
0.0001789
0.005309
4.314e-05
0.000157
0.000149
0.0001608
0.0001635
8.138e-08
3.486e-07
0.005986
0.0001537
0.02767
6.724e-06
7.333e-06
6.89e-05
0.01907
9.124e-05
2.329e-05
0.001268
4.271e-07
0.0001487
1.119e-07
8.04e-06
0.01654
0.0003385
2.367e-05
0.0001456
5.14e-09
1.003e-09
0.0001364
0.0001441
0.000289
0.001575
4.085e-08
0.001838
3.032e-05
7.89e-06
4.131e-05
0.0001624
0.0001648
0.0001478
2.405e-05
0.02088
0.0001041
0.0001491
3.718e-05
0.002607
0.0001508
1.103e-09
0.002839
0.0001453
3.395e-05
0.0001417
0.0001447
6.781e-05
0.0001544
1.427e-09
0.0001442
1.493e-06
0.000146
8.048e-05
0.0001541
0.04339
9.722e-05
2.275e-06
4.443e-06
1.606e-05
5.882e-05
0.0002
0.0001554
0.004734
1.426e-05
0.0003169
4.837e-05
2.56e-08
2.245e-05
6.074e-09
0.0002417
6.067e-06
1.619e-06
4.13e-06
1.03e-07
0.0001514
0.03311
0.000171
2.168e-05
0.004071
3.863e-07
0.0001847
1.864e-05
0.005857
3.989e-05
3.54e-05
0.0003944
0.0001576
3.736e-06
0.0137
4.027e-05
0.001448
1.885e-06
0.0009548
0.0001372
7.105e-05
2.201e-05
0.0001459
7.098e-05
1.344e-06
0.0001379
0.000158
0.001519
0.0001535
0.0001515
0.01423
0.005176
0.000158
0.0001317
7.388e-05
7.763e-05
0.0001448
0.0001513
0.0001502
0.00259
4.232e-05
9.876e-05
0.0001544
0.000164
3.261e-07
2.379e-06
7.59e-06
0.006519
5.77e-09
0.0002067
1.878e-05
0.0001456
0.001221
0.000171
0.0001085
3.487e-05
0.0002129
1.408e-07
0.0001471
6.058e-09
4.16e-06
5.52e-06
5.602e-05
7.624e-06
0.01179
0.04058
2.282e-07
4.142e-05
0.00015
7.56e-12
0.006171
6.942e-06
8.665e-07
1.392e-05
5.951e-05
0.006035
4.467e-06
3.268e-05
0.0005092
0.0006932
3.22e-06
5.326e-06
0.04664
1.094e-08
0.0001588
2.603e-05
0.0001566
1.515e-06
0.0001309
0.0001448
0.007937
3.945e-09
0.006255
0.002423
4.801e-09
5.9e-05
0.0001458
2.141e-07
3.108e-05
0.001552
1.412e-07
0.0001651
0.002207
2.177e-10
0.04271
1.053e-06
0.007738
4.049e-05
6.351e-08
6.101e-06
5.91e-07
0.0001566
3.849e-05
0.000158
0.05033
0.0001244
0.0001928
0.0001186
3.639e-05
0.01869
5.651e-06
0.01294
0.0001622
0.01896
0.0001529
0.0001574
8.668e-05
1.071e-08
0.0001504
2.394e-08
1.387e-06
0.001021
0.0009714
0.0001459
0.01088
0.0002727
0.0001598
4.275e-06
1.255e-06
3.713e-07
0.0001427
3.949e-06
0.0001247
0.001112
1.35e-09
0.0001326
0.02657
0.0001197
0.0001462
0.0001091
0.000883
7.938e-08
0.0001287
0.0001612
0.004981
0.0001453
7.776e-11
1.373e-09
0.003401
0.0001655
0.0001272
0.0001354
0.0001315
0.0006404
0.01701
0.02167
0.0001534
0.0001585
0.0001606
0.0001602
0.001101
0.02281
5.22e-06
8.639e-06
8.705e-10
0.0001664
4.609e-07
0.002173
0.0001003
0.0001317
2.377e-06
0.006726
4.594e-05
7.573e-10
0.0005666
0.01454
0.0003901
5.674e-05
0.001923
1.038e-09
0.05621
0.0006135
0.01728
0.01423
0.0001071
1.04e-05
7.336e-10
0.0001544
0.0002754
0.0001413
6.822e-06
2.716e-05
0.0001353
2.306e-05
5.769e-05
0.001419
3.407e-06
0.0001428
0.0001651
7.043e-11
0.0001456
1.192e-05
1.694e-05
3.943e-05
6.703e-07
0.0001657
0.0001123
0.0003138
2.144e-07
0.0006967
7.168e-05
0.0001506
3.542e-05
3.368e-06
2.742e-06
3.887e-05
0.0005239
0.0001451
2.931e-05
0.02615
6.371e-07
0.0001421
0.01607
0.0005528
0.000145
0.0001395
0.0001534
0.0001456
0.01907
0.0001379
3.57e-06
0.01973
6.037e-09
0.0004557
0.001124
4.883e-06
0.001223
1.769e-05
5.934e-06
1.453e-10
0.0003739
0.0001455
0.002733
0.002256
0.01276
0.0001482
0.00608
0.0001465
0.007016
0.0001474
0.02046
0.0001435
2.04e-05
0.001811
0.0001379
0.0001445
0.00129
0.0001567
5.782e-06
0.0001542
0.0001338
0.0001622
0.001037
0.0001498
3.373e-09
9.165e-07
7.308e-08
1.618e-05
6.069e-05
6.617e-06
1.612e-05
0.01035
0.0001892
6.267e-08
0.0165
1.165e-05
2.517e-06
0.0003706
0.0003021
0.02404
0.0001441
1.316e-10
0.0005667
2.367e-07
0.0001458
8.469e-10
2.068e-05
5.07e-06
0.002252
0.000131
0.0001308
0.01224
0.05447
0.01329
0.01148
4.593e-05
0.0001661
0.000156
0.006641
0.0001218
4.565e-07
0.0001243
0.0001898
0.001817
0.0001061
7.905e-07
7.737e-06
3.615e-05
5.386e-06
0.004976
0.0001462
0.004529
0.002654
1.382e-08
0.001252
0.0001536
4.472e-05
0.003083
2.227e-05
0.008206
3.097e-07
0.05487
0.0001455
0.009855
7.917e-05
6.364e-10
4.616e-07
0.0001647
0.0004367
5.187e-06
0.0001573
0.0001305
4.312e-05
2.131e-05
4.059e-10
0.0001514
1.69e-08
0.002748
0.0001439
6.527e-06
0.0001015
0.01003
0.0001516
0.005612
0.00031
4.703e-05
5.206e-05
0.02656
2.731e-06
0.0001521
2.653e-05
3.336e-06
1.318e-06
0.0001819
0.0001814
3.611e-06
0.000173
1.187e-09
0.0001368
8.05e-07
6.977e-07
1.247e-10
0.003664
0.0002638
0.000149
0.0001456
0.0001437
0.01168
0.0001431
1.524e-09
0.0001454
3.718e-07
0.0001575
0.00012
8.769e-05
1.609e-06
0.0002404
4.19e-07
0.0001581
0.0001346
0.003241
6.983e-08
0.0001448
0.0001409
2.576e-05
0.004058
4.045e-05
0.0001615
0.002632
4.256e-05
2.557e-05
0.0001537
0.0001372
2.541e-06
0.0001905
0.0001328
0.0001591
1.294e-05
0.0001372
1.505e-07
0.0001462
0.001559
0.0005003
0.006154
0.0001924
0.0001392
0.006313
9.967e-06
0.006248
0.0001514
8.155e-05
0.0001544
0.0001454
0.0001417
0.0003675
2.417e-09
8.414e-05
3.514e-05
0.0001491
9.828e-08
0.0001636
0.0001527
0.0001777
0.0001693
0.0001799
1.977e-06
0.0001498
2.062e-05
0.0001467
0.0004438
0.0001486
0.0001521
3.216e-05
0.01224
0.0001609
1.257e-06
8.053e-05
0.0001415
0.001735
2.13e-07
6.516e-05
8.846e-10
5.03e-07
0.01957
0.0001529
0.0001699
5.128e-07
0.001075
2.114e-05
3.673e-06
0.0002097
0.0001543
0.0001444
2.271e-05
1.453e-05
0.0001098
0.0001459
0.0003601
0.0001456
0.0001631
0.0001988
0.0001429
0.02239
0.000167
0.0001056
0.005243
0.002283
5.383e-06
0.0001466
6.525e-06
5.119e-07
0.000133
0.02513
1.614e-05
0.0001579
0.0004707
0.009457
2.799e-06
6.478e-05
0.007197
1.308e-06
0.0004521
1.715e-05
1.147e-06
0.000157
0.0001535
5.1e-05
0.0001517
9.433e-06
0.0021
0.0001514
4.07e-05
0.0001482
0.0007772
4.144e-05
0.05314
0.0001971
0.0006986
9.878e-10
0.001932
1.049e-08
0.0001578
0.0001376
1.083e-08
2.221e-05
0.0001571
4.671e-06
0.0001509
0.003817
0.0001491
0.01072
2.159e-08
0.005749
0.000166
4.166e-05
2.127e-05
0.0001464
4.641e-05
0.0001531
0.0001649
7.494e-07
0.0001492
3.826e-05
2.223e-07
0.0001444
0.0001487
0.007343
0.0002005
0.0002579
0.000156
0.0001621
0.0001355
0.0001628
0.01749
0.0002263
0.0001572
0.0002861
0.0001373
0.0001537
3.415e-06
5.696e-09
0.0001396
0.0001588
1.811e-08
0.02479
3.642e-06
0.01419
2.01e-05
5.226e-09
0.0001758
0.0002794
0.0047
0.0001506
2.827e-06
0.0001637
0.01379
7.786e-08
7.876e-05
0.0001489
5.829e-06
5.512e-11
5.267e-10
0.005442
0.003954
8.202e-05
0.0001561
0.01293
8.062e-05
0.01484
3.773e-06
0.000855
0.001478
2.627e-05
8.042e-08
0.002221
0.0001432
0.0001452
5.136e-05
0.000139
0.001041
0.0001523
0.000151
2.27e-05
0.005383
0.02726
0.0001357
4.402e-06
5.161e-07
0.002381
6.669e-06
0.004294
9.583e-10
8.199e-06
0.0001491
5.374e-05
4.869e-06
0.002337
2.91e-05
4.515e-10
0.0001282
1.556e-07
2.15e-05
1.893e-05
0.0001359
0.007942
0.01402
8.423e-07
3.035e-05
0.0199
4.183e-07
0.0001574
0.0001717
1.377e-05
0.0001531
0.02002
0.0001453
2.764e-06
1.428e-06
2.314e-05
4.149e-07
8.31e-07
0.01005
8.143e-09
0.0002724
5.897e-05
0.0001503
0.02009
0.000151
0.03441
6.528e-05
0.01417
3.037e-05
0.0001998
3.24e-05
1.034e-10
2.072e-08
0.002179
0.001683
0.000164
0.0001596
0.000146
0.0001488
5.045e-05
0.0001635
0.000145
4.262e-05
2.727e-05
8.209e-06
0.001258
9.558e-05
1.79e-05
0.008652
2.577e-05
6.217e-09
8.122e-07
0.0001562
3.243e-05
1.251e-10
0.01121
2.443e-05
0.03632
7.725e-05
0.0002225
1.393e-11
8.572e-05
7.764e-05
0.0001526
0.0001557
2.192e-05
0.001733
0.0001454
0.000147
0.006152
4.212e-07
0.01941
2.933e-05
4.474e-09
0.0001877
0.0001493
6.441e-07
0.01967
0.00184
1.047e-07
0.0001589
0.02707
0.000734
0.0002448
0.0001601
0.0001345
0.0001465
0.000126
0.02277
6.816e-07
0.05679
1.09e-05
2.366e-07
0.0001496
5.928e-07
0.009147
3.932e-06
2.355e-05
3.877e-05
0.0001513
0.01102
0.001306
0.002342
9.366e-06
0.001796
4.491e-06
2.899e-05
0.000145
0.001791
0.03696
1.182e-06
4.261e-05
0.0006024
0.01418
0.0001534
9.666e-08
0.0001648
0.001367
0.01484
0.00542
0.01996
0.004868
0.0001635
5.873e-09
0.0001624
0.0001486
1.857e-05
0.0001395
0.01357
0.0001497
0.0001568
0.00898
0.0001439
0.0001641
1.273e-05
5.207e-05
0.0001456
0.0001481
0.02081
7.186e-05
1.145e-05
0.0001956
0.002578
0.007386
1.356e-06
2.472e-06
0.0551
0.0001017
0.002324
0.0001589
3.317e-05
2.065e-09
0.01435
3.501e-06
3.702e-06
0.01155
1.007e-09
0.0001454
0.0001372
0.0001657
0.0001229
9.611e-11
0.0001459
0.01443
1.306e-05
2.3e-09
1.906e-05
1.961e-06
0.0001248
0.0001244
4.201e-06
0.0001908
0.008617
0.0001353
0.0001498
0.04187
0.0001429
0.000149
6.11e-07
2.013e-05
3.844e-05
0.01186
8.151e-08
0.004246
0.0001613
0.0001318
8.195e-05
1.971e-05
1.025e-06
5.45e-06
0.0002715
3.383e-07
0.0002691
0.0003028
3.276e-05
2.336e-05
0.0002062
0.0001542
0.0001083
1.559e-06
0.0001352
0.000133
4.954e-05
0.001033
2.157e-08
0.0001648
6.064e-06
6.604e-05
0.0003665
0.0001454
0.0001686
0.0001482
0.001569
5.852e-09
0.0001856
0.0001566
4.571e-05
0.0001525
1.841e-07
4.476e-05
0.0001989
7.675e-05
8.685e-05
3.489e-05
0.01286
5.264e-05
0.0001807
0.0004241
0.001098
0.002118
7.291e-05
0.009134
1.255e-06
2.719e-05
0.0004808
0.002611
2.005e-06
0.002718
0.0002564
2.632e-05
0.0001574
0.000167
7.758e-05
8.336e-09
0.0001648
1.71e-05
0.000147
0.01575
0.0001484
2.254e-05
0.01806
7.778e-09
6.222e-05
0.0001528
1.36e-06
7.253e-10
3.754e-07
0.001476
4.612e-05
7.235e-07
8.024e-08
0.0006079
0.01235
6.857e-05
1.175e-10
0.0002271
0.001373
0.0001681
0.0001607
0.0001455
0.005151
3.965e-06
0.0001117
0.0001926
0.02047
0.0001537
4.541e-08
0.000131
0.005811
0.0001645
0.02018
2.453e-06
0.0001643
0.0001543
0.02122
0.0001504
2.113e-05
6.673e-05
3.651e-09
3.2e-05
0.0001673
0.0001429
0.003748
0.0007204
3.986e-06
9.67e-06
6.436e-05
0.02165
0.0001545
0.0001453
8.583e-06
6.548e-06
0.0001742
0.0001351
0.00208
1.153e-07
1.188e-06
9.427e-06
0.00017
0.0001591
0.0001554
4.09e-06
0.03385
0.0001534
1.002e-08
0.0001887
0.0006885
0.0001455
0.0001473
0.0001554
0.0001461
4.365e-05
5.008e-05
0.002136
0.004783
1.243e-06
7.975e-08
0.0002652
1.479e-05
0.0002153
0.01948
6.363e-09
0.001311
0.0003368
0.005544
1.471e-08
0.008052
5.906e-07
1.792e-08
0.0001523
4.114e-06
1.337e-06
0.0001183
0.005694
1.233e-05
8.78e-05
2.838e-06
0.002533
0.001101
0.000149
0.0281
0.0001478
0.000166
0.005904
0.0005433
0.0001133
0.0004784
4.818e-09
0.005776
0.0001463
2.684e-05
0.000963
0.03511
5.559e-05
0.0008333
0.0001866
1.802e-06
1.125e-06
1.237e-08
0.0001347
1.247e-05
0.0002159
0.0003991
0.0002337
0.0001515
1.375e-08
1.321e-05
4.062e-05
0.0001653
0.000144
4.087e-05
2.191e-05
0.01299
0.0001209
1.182e-08
4.198e-06
8.408e-05
0.01182
0.0006421
3.978e-06
0.0001447
2.71e-05
0.01285
0.0001511
7.543e-05
4.831e-06
0.0001451
5.906e-05
0.005641
0.0001067
1.264e-07
0.0001263
0.0002314
1.002e-10
0.001761
1.34e-05
0.000131
0.0001302
1.582e-05
0.003175
0.0001588
2.417e-06
3.292e-05
0.0001438
9.201e-08
1.13e-06
0.001467
0.0001456
0.0001463
0.000536
0.0002181
1.449e-05
1.7e-10
2.909e-06
0.0001525
2.027e-06
1.102e-07
0.0001542
2.736e-06
7.624e-06
0.0002751
0.00016
2.596e-06
0.04402
0.0105
0.0001302
0.0001284
0.0001287
0.0001266
0.0001584
0.01572
7.702e-05
6.539e-06
9.796e-05
0.000837
0.001643
1.496e-07
0.0001274
0.0002656
0.003906
5.092e-05
6.954e-07
2.457e-05
0.002991
4.901e-05
7.314e-06
0.002035
2.571e-05
0.0001611
3.812e-05
8.393e-10
1.8e-05
5.145e-08
0.0001527
4.874e-05
0.0001454
1.344e-08
0.00038
7.709e-06
9.454e-05
0.0001502
6.697e-09
0.0001458
0.002773
1.389e-06
0.0001737
8.005e-05
0.0007125
0.005314
0.003289
2.656e-06
0.000151
1.041e-05
0.0001369
0.0001733
0.000493
0.0001503
0.01011
6.727e-05
0.0001436
0.0001454
0.0001554
0.0005153
4.115e-06
0.0001691
0.004031
2.182e-05
0.0001312
2.916e-06
6.582e-06
0.02211
0.01857
0.01548
0.000899
0.0001612
6.74e-10
0.0001521
0.0001454
7.851e-08
0.0001453
0.0001448
0.0001582
0.0002714
8.956e-07
0.005632
4.56e-07
0.004251
7.503e-06
0.0001464
0.0001575
0.0006963
1.639e-05
0.01786
0.00019
0.0001572
2.719e-07
3.509e-08
0.0001483
6.971e-09
3.922e-08
9.696e-11
0.0002026
0.02268
0.01092
0.0001546
0.0001482
0.02535
0.0001139
1.329e-07
0.0001509
1.679e-06
4.373e-09
0.0001455
5.367e-06
1.881e-07
3.473e-05
0.0001458
1.27e-06
2.677e-08
4.194e-10
1.045e-09
0.0001642
0.001106
1.473e-09
0.0001562
0.0005101
0.000144
0.004395
6.151e-07
0.02243
1.604e-05
1.099e-09
0.0001582
0.0053
5.889e-05
0.0001492
0.0001529
3.452e-06
3.427e-06
0.03152
9.282e-06
9.039e-05
0.0001501
0.01073
0.001992
0.0006047
0.001367
0.0001455
0.0005421
0.0004809
1.641e-05
3.504e-05
4.088e-05
3.496e-06
0.0001045
1.016e-08
8.018e-11
6.81e-12
2.723e-06
0.0001537
3.825e-06
0.0001486
7.225e-07
1.655e-06
0.0001455
2.591e-09
0.0001489
0.0001419
4.577e-08
1.953e-07
0.004417
0.0001591
0.0001506
2.92e-05
0.0001301
1.061e-09
0.0001445
0.0001692
0.01105
0.002854
1.144e-08
9.563e-09
1.182e-08
0.008681
5.208e-06
1.773e-05
0.005109
0.0001515
4.196e-05
6.463e-09
0.0001392
0.00151
5.006e-05
0.002303
5.959e-05
0.01124
0.02935
6.33e-08
2.976e-05
2.693e-05
1.49e-08
0.0001837
1.565e-07
0.0001523
5.034e-05
0.0002382
0.0001486
0.0001544
5.553e-05
7.259e-06
1.489e-05
1.069e-08
0.0001644
0.0001454
0.0001077
1.343e-05
1.151e-07
0.006574
0.02154
0.0001261
0.0001508
7.689e-07
0.0001266
3.052e-05
8.024e-06
0.0001539
0.0001113
0.008981
1.255e-07
6.43e-09
7.363e-10
0.0001502
1.933e-06
0.001351
4.099e-05
0.02773
0.01469
3.213e-08
0.01196
1.498e-06
1.133e-05
2.472e-06
2.157e-05
0.0001583
8.967e-09
0.01641
4.876e-05
0.001987
0.000164
5.05e-05
0.0001601
0.0001459
6.693e-05
0.000156
0.0004801
9.389e-05
6.266e-05
1.32e-08
5.061e-10
0.02102
1.358e-08
0.0006243
0.0001587
0.0001501
0.000154
8.088e-05
0.0001489
2.387e-05
3.86e-09
5.154e-05
4.632e-07
0.04334
0.005711
2.623e-05
0.0002687
0.009966
1.967e-06
0.0194
1.025e-07
9.026e-05
0.0001367
0.001687
4.818e-05
0.0001477
0.000155
2.893e-07
0.0001463
5.181e-06
6.323e-05
1.252e-05
0.0001109
1.167e-07
0.0002436
0.01561
0.0001503
2.29e-06
1.976e-05
5.198e-06
4.836e-05
0.0001432
1.036e-05
0.0001441
0.0001676
0.0001319
0.03563
7.833e-10
7.851e-05
1.986e-06
0.01997
1.364e-06
0.0001599
0.0004895
0.003089
4.294e-05
0.000139
0.0001185
0.0001463
1.21e-06
1.654e-06
0.000112
0.001227
0.0001426
7.486e-06
5.646e-06
2.015e-05
7.156e-06
7.753e-06
4.253e-05
0.0001475
0.002117
0.0001256
0.0001512
2.478e-05
7.029e-05
0.0001558
0.000163
0.0001567
0.0001412
2.901e-05
0.000137
0.000135
0.0001466
0.0001534
0.0001516
7.381e-05
1.473e-05
0.0001458
1.447e-05
0.0001397
2.679e-05
0.0001469
0.0001225
0.0001518
2.757e-07
0.0002566
1.082e-09
0.0009738
2.169e-07
0.0001537
0.0001588
6.162e-09
0.0001501
2.782e-05
2.257e-05
1.604e-05
5.982e-05
0.0002606
0.000146
2.355e-05
0.0001903
0.0003104
0.001805
0.0004715
9.107e-05
0.003573
4.26e-05
1.129e-05
0.0001437
0.004278
5.346e-05
9.969e-08
0.0001514
0.0001481
2.221e-06
1.693e-06
0.002944
0.003081
7.754e-05
5.997e-06
0.0001533
6.983e-05
0.0006071
0.01973
0.002515
0.000554
0.0001366
0.0001782
1.014e-09
0.02148
0.002822
1.704e-08
0.0001691
0.0001153
0.0001449
0.0001498
0.0001604
0.0001617
5.048e-08
0.0001387
0.000147
0.0001471
4.536e-05
6.319e-11
0.0001469
0.006588
2.002e-06
2.851e-05
0.0001313
3.075e-05
1.607e-05
0.0001696
0.0001833
1.613e-06
1.509e-07
1.165e-06
0.000146
0.0006001
0.005622
0.0002061
0.0001429
0.0001686
0.0001642
0.01315
0.0001069
4.197e-09
2.62e-07
0.05221
8.644e-06
1.119e-07
0.01737
8.817e-06
0.00594
0.0001651
0.0001622
5.414e-07
5.116e-09
0.0001443
3.108e-06
3.941e-05
0.0001469
2.183e-07
0.004823
0.0001707
0.0001552
0.001033
1.81e-06
6.091e-05
7.354e-05
0.0001453
0.0001457
0.04542
0.002706
0.0001336
0.0001328
0.0001487
1.604e-06
0.02351
0.004588
4.098e-06
3.029e-07
0.04414
0.0002491
0.0001428
5.467e-09
0.0001684
1.228e-05
3.373e-06
0.0001535
1.432e-05
0.000122
5.823e-05
1.422e-09
0.02388
5.309e-09
0.0001384
0.0001419
0.002064
0.0001512
0.000143
1.14e-09
1.901e-05
1.286e-05
2.268e-06
0.0001203
0.001003
0.0001365
9.621e-10
0.000156
4.097e-05
0.0001348
0.000152
0.004578
0.003807
0.0006526
0.00119
0.02154
0.0001473
0.0001362
0.0006287
1.124e-05
5.056e-06
1.165e-08
0.0001607
0.01244
7.507e-05
0.0001471
0.0002403
2.769e-05
0.0002138
0.0001536
0.006831
3.761e-09
0.0001307
0.0001436
7.129e-05
3.229e-05
0.01966
4.407e-06
0.0001478
1.221e-05
0.0001925
3.746e-05
0.000148
0.000153
1.031e-06
1.97e-05
2.108e-06
0.002433
0.000179
0.0001365
4.947e-06
0.0001414
5.584e-06
1.03e-09
0.0001597
0.002537
0.008614
3.008e-05
4.65e-07
0.0001656
0.0001523
0.0001363
0.0004705
0.000158
0.0001447
8.64e-06
9.493e-05
0.01616
0.0001359
0.000155
0.0001541
0.000149
1.731e-05
0.0008137
0.0001454
5.111e-05
4.128e-05
0.0001707
0.0001502
0.0001467
0.0001447
0.0001579
0.001385
0.03927
2.355e-06
1.153e-09
7.811e-09
4.231e-05
9.002e-08
1.887e-07
0.0001481
1.434e-09
0.0002217
5.82e-06
0.02183
0.0001554
0.0001607
1.232e-05
1.742e-06
5.244e-07
6.278e-05
0.0001562
0.001764
1.403e-05
4.362e-05
0.0001563
0.0001644
0.001351
0.0001537
1.318e-05
0.0001486
0.001113
8.993e-05
0.0001388
0.0001524
1.383e-06
6.208e-10
8.951e-08
0.0001373
6.809e-07
0.0009772
0.0001327
0.0001203
0.000146
7.345e-06
0.0003205
0.0003194
2.623e-06
2.857e-05
0.0001495
0.0001667
0.02241
2.361e-08
0.0001468
0.0001525
1.448e-08
0.000107
0.0001443
1.964e-07
0.006205
0.0001526
0.0001524
0.03132
2.175e-05
1.405e-09
2.523e-06
0.0002514
0.01267
0.0005427
0.0001546
0.0001451
0.0001534
1.276e-05
4.09e-05
0.000224
0.0001479
1.69e-08
1.546e-05
6.746e-05
0.002973
0.001356
7.874e-05
0.0001342
0.0001556
2.453e-05
9.895e-05
0.0001505
2.945e-05
2.625e-06
0.02097
0.0001669
0.000175
0.01327
0.0001504
0.01864
6.521e-05
0.0001167
8.705e-05
0.0001477
4.436e-06
0.0004028
0.005113
0.0001158
0.0001169
1.01e-05
0.0004256
4.453e-11
0.01396
0.0001573
0.0004753
0.0001414
0.0001008
6.951e-05
1.407e-07
2.489e-07
0.0003329
5.285e-06
1.51e-06
0.001019
0.0001585
0.0002621
3.058e-06
2.992e-08
0.0005807
0.0001514
6.022e-07
0.0001662
5.685e-07
7.74e-05
0.01046
0.0163
1.428e-05
0.0001459
0.001767
0.0001675
0.0001448
0.0002683
5.654e-07
0.003097
2.985e-09
3.303e-06
0.0002127
0.0001448
0.001885
7.869e-05
0.0001654
0.001988
0.0002866
5.542e-05
0.000256
5.546e-06
0.0001465
2.481e-05
0.000138
0.0001169
3.862e-05
5.451e-05
0.0001188
2.629e-06
1.74e-09
0.000142
0.0001455
5.539e-05
3.765e-05
7.458e-07
0.000147
4.631e-05
1.747e-06
0.02171
0.01615
0.0001458
8.646e-05
2.74e-07
0.0001515
0.004945
0.0001442
4.325e-05
0.0001516
0.0002892
5.238e-06
0.0002167
0.0006434
9.45e-06
0.0001347
0.0001496
4.054e-05
4.02e-05
0.0001638
0.0001434
0.000148
5.552e-06
1.922e-05
6.804e-05
0.0264
0.000708
0.052
2.283e-05
7.344e-05
0.0001281
0.0001523
0.0001572
3e-10
1.785e-07
2.149e-06
0.0001426
2.616e-06
3.299e-05
4.97e-05
4.719e-05
6.558e-09
0.0001604
0.001186
3.385e-05
4.53e-05
1.907e-06
1.154e-07
0.05762
0.0002068
0.03389
0.0001498
1.4e-10
0.0001469
0.02027
3.501e-06
6.124e-05
0.01632
5.01e-05
0.0006113
5.763e-07
0.007624
0.0001102
0.007071
0.0001068
4.217e-06
2.919e-10
0.007267
3.921e-09
1.291e-08
0.0001455
3.539e-09
0.0001498
9.474e-07
7.679e-07
0.0007151
0.04415
0.0007938
4.56e-05
8.491e-05
0.0001502
0.006192
0.007695
0.007139
0.01489
0.0008846
0.0001571
0.0001377
0.0396
5.106e-09
0.0007146
6.909e-06
4.142e-05
2.365e-06
0.0001347
8.194e-06
0.0003024
4.005e-07
0.007167
6.971e-09
3.188e-05
9.126e-06
0.0001542
7.322e-08
0.000153
0.003382
0.001214
0.0001581
0.000162
0.002662
6.776e-05
0.004303
0.0003244
7.481e-05
2.02e-05
0.005657
7.439e-09
7.136e-05
6.58e-08
0.0001501
0.02246
0.0009743
0.01503
0.0001523
5.641e-05
0.0001454
0.0001465
0.0001454
0.003541
2.736e-05
0.0004998
0.02606
0.0001511
0.007813
0.0001507
7.481e-09
3.11e-07
5.317e-09
1.435e-05
0.000153
1.38e-06
9.551e-06
0.0001575
7.704e-06
0.0001464
0.00362
0.02308
0.0001901
0.04386
0.0001422
0.0001427
0.0001627
0.01649
0.0001514
1.21e-09
2.511e-05
0.0001398
0.0001459
5.487e-05
0.0001511
4.861e-06
2.18e-08
0.000156
0.0001416
0.0001335
3.888e-05
2.115e-06
1.19e-09
0.0001537
0.0001613
6.45e-05
9.083e-06
0.0001527
2.901e-05
8.247e-05
0.0001667
1.987e-06
0.0004754
1.735e-09
0.0001513
4.541e-05
5.57e-05
4.731e-06
0.0001462
0.003982
0.0001456
0.01238
0.03004
6.966e-05
0.0008765
1.008e-05
0.000193
0.0001602
4.358e-07
8.067e-06
1.082e-05
2.524e-06
1.306e-06
0.001166
0.0001457
4.666e-05
3.251e-05
0.01324
9.721e-06
0.0001387
4.756e-09
8.618e-09
3.843e-07
6.651e-05
0.0001096
6.799e-07
3.195e-06