/*--------------------------------*- C++ -*----------------------------------*\
  =========                 |
  \\      /  F ield         | OpenFOAM: The Open Source CFD Toolbox
   \\    /   O peration     | Website:  https://openfoam.org
    \\  /    A nd           | Version:  8
     \\/     M anipulation  |
\*---------------------------------------------------------------------------*/
FoamFile
{
    version     2.0;
    format      ascii;
    class       volScalarField;
    location    "15";
    object      nut;
}
// * * * * * * * * * * * * * * * * * * * * * * * * * * * * * * * * * * * * * //

dimensions      [0 2 -1 0 0 0 0];

internalField   nonuniform List<scalar> 
127143
(
6.849e-23
3.678e-22
2.267e-21
2.714e-20
2.404e-19
2.83e-20
1.278e-17
1.803e-18
5.391e-19
2.838e-18
2.106e-17
1.69e-18
1.389e-20
5.525e-20
1.031e-08
5.179e-16
9.784e-20
0.004811
0.00308
1.311e-13
0.0001077
3.743e-13
6.609e-05
1.697e-08
3.137e-13
2.978e-11
1.398e-13
1.459e-13
7.178e-12
0.004618
2.388e-09
2.548e-11
1.514e-12
2.291e-10
5.026e-05
1.529e-12
2.499e-05
0.0001803
5.005e-08
9.646e-12
0.003089
4.025e-06
4.362e-06
7.318e-19
0.004818
3.652e-10
7.941e-12
0.0003809
2.036e-08
3.371e-08
1.924e-15
0.0004493
1.938e-05
4.548e-05
0.00667
2.492e-09
0.006669
8.994e-05
0.005603
4.487e-05
3.976e-06
0.001558
4.381e-07
0.006702
5.218e-10
2.177e-05
6.311e-05
3.734e-07
3.831e-07
0.002594
9.136e-09
4.553e-13
0.002058
0.004946
0.006693
4.477e-13
0.0007997
3.211e-05
2.602e-09
0.006705
5.692e-12
1.408e-13
6.568e-09
3.805e-11
0.001316
6.246e-05
1.109e-07
1.103e-12
2.224e-05
3.207e-08
0.006212
4.159e-05
1.119e-07
0.0001118
1.978e-06
0.0001191
4.363e-06
5.595e-10
0.0001073
5.529e-05
0.006705
2.557e-08
1.345e-09
8.988e-06
7.462e-05
9.493e-05
2.499e-07
0.002594
8.721e-06
0.00668
1.676e-08
7.994e-13
2.215e-05
7.611e-07
0.006693
2.88e-05
0.0005752
0.006693
0.0008543
6.722e-15
0.006681
7.49e-09
5.211e-07
0.0001108
7.016e-12
3.898e-12
0.000733
0.000984
4.838e-07
1.703e-09
4.969e-06
1.494e-06
7.401e-07
3.53e-05
2.778e-17
5.88e-06
0.0002069
0.0002915
2.342e-11
0.0001709
5.168e-05
0.0009868
0.0001204
0.0005007
2.059e-05
1.333e-06
6.09e-12
0.006702
1.18e-06
3.571e-10
3.815e-06
3.165e-08
8.431e-05
2.805e-05
4.109e-07
0.001355
7.214e-05
1.047e-09
0.0004055
3.492e-10
1.046e-08
1.272e-15
0.006641
5.131e-06
8.054e-11
1.131e-09
8.549e-06
8.301e-06
8.751e-10
0.0001909
3.409e-08
0.0005049
1.686e-05
1.494e-06
0.002294
0.0001189
2.544e-06
5.079e-07
3.401e-08
0.002063
1.517e-06
0.0007395
0.0001537
0.0001266
2.096e-09
0.001641
1.277e-05
7.971e-07
2.638e-08
0.0008327
1.207e-05
6.508e-07
0.0002143
5.979e-07
8.095e-18
0.0007509
0.006648
0.006629
1.801e-15
0.002801
0.006697
0.0001983
0.001001
3.578e-05
6.557e-19
1.796e-07
0.0001271
1.795e-06
0.003891
0.006693
0.0001213
0.0009478
0.006691
1.016e-09
9.213e-07
4.234e-16
1.268e-09
1.721e-06
7.431e-06
0.0001252
2.894e-06
0.006694
2.871e-08
1.516e-05
1.738e-10
2.052e-08
2.977e-10
0.0001624
2.799e-07
0.0003403
8.455e-05
0.0009197
0.00218
1.09e-13
8.879e-05
0.000106
5.09e-06
1.255e-20
0.006195
3.365e-05
8.218e-07
1.56e-09
0.0003132
1.204e-09
1.283e-05
1.008e-14
9.089e-08
1.29e-13
6.988e-15
0.002613
6.12e-06
5.211e-11
1.198e-06
0.0002842
1.038e-08
7.576e-06
0.00117
2.966e-09
6.429e-06
1.507e-05
0.0007548
0.0009127
3.156e-05
0.0009502
3.994e-06
1.125e-09
1.167e-07
1.185e-07
5.046e-06
3.251e-06
2.716e-10
0.002292
0.0007225
3.151e-05
6.851e-07
1.428e-05
2.409e-05
5.271e-08
0.002262
1.066e-05
0.003035
0.000184
9.28e-06
0.006691
0.006693
8.108e-18
3.08e-06
0.006694
4.572e-08
0.002103
8.518e-05
4.523e-05
0.0001064
1.026e-05
0.006701
7.138e-06
4.038e-09
3.898e-06
0.0003105
3.841e-06
8.367e-10
3.258e-05
1.39e-05
3.626e-05
1.115e-10
1.073e-06
1.836e-06
0.006692
0.002106
1.636e-06
1.934e-07
7.428e-08
1.404e-09
0.00341
0.006692
8.625e-08
0.0001912
6.826e-10
0.0001167
0.002459
8.359e-05
5.323e-09
0.0004117
1.177e-06
7.76e-08
9.642e-05
0.0001081
2.382e-05
8.24e-09
2.294e-06
0.0008769
0.006693
5.523e-05
0.006648
0.006629
3.101e-05
9.257e-06
1.701e-05
0.0008766
1.737e-06
0.0001952
1.709e-06
3.241e-05
1.682e-05
1.158e-06
4.247e-08
6.017e-08
8.51e-06
1.298e-09
1.223e-07
1.991e-09
0.003373
8.639e-05
1.496e-05
0.0001338
9.805e-08
0.000273
1.96e-06
0.006374
8.13e-09
0.001168
5.055e-07
0.002893
3.76e-08
3.959e-08
0.006697
0.003169
0.002514
5.293e-09
0.002305
2.468e-06
0.0003806
1.755e-10
3.053e-08
0.0009847
0.0001071
6.38e-09
5.269e-13
0.0001735
0.002235
0.001506
1.448e-11
2.447e-09
2.772e-05
0.0006384
7.286e-14
4.224e-05
1.497e-11
0.0006727
0.0006722
0.006704
1.332e-05
1.097e-07
1.019e-08
2.501e-08
2.488e-09
1.375e-05
4.136e-09
0.0001295
0.0006898
4.066e-11
0.006694
0.0001356
0.00018
4.149e-05
2.21e-06
0.000104
7.686e-07
0.006705
4.821e-08
2.266e-06
9.128e-10
4.643e-05
0.000479
7.72e-07
2.329e-06
3.651e-05
1.197e-10
9.911e-06
3.389e-08
1.055e-05
2.248e-11
3.779e-07
0.002921
0.000312
1.247e-05
4.244e-06
3.861e-05
2.721e-09
9.578e-05
0.006678
3.912e-07
5.775e-05
0.0002061
7.557e-07
0.006697
1.59e-06
1.103e-07
0.0004767
0.0067
0.006691
5.069e-08
0.0001634
7.99e-06
0.0003255
7.95e-10
0.005889
6.717e-08
0.002526
0.0009523
0.0001037
5.591e-09
2.727e-06
2.942e-09
3.633e-05
6.464e-05
5.805e-10
4.769e-09
8.268e-05
3.762e-06
1.129e-06
2.314e-06
0.000982
8.111e-07
2.161e-06
0.002391
0.001438
0.0001078
3.294e-08
0.006668
0.0002134
3.771e-05
9.526e-05
0.0001874
0.0001421
0.006645
6.722e-07
5.039e-05
8.75e-08
3.169e-05
6.825e-12
8.997e-08
9.36e-08
1.553e-09
5.503e-06
7.64e-07
3.719e-05
0.006691
7.993e-10
0.0008845
2.155e-07
1.425e-07
1.067e-05
1.181e-06
2.022e-17
2.991e-06
1.145e-06
0.0001035
1.32e-06
0.006688
6.02e-12
0.001449
0.0001526
0.0008334
1.157e-19
1.266e-15
1.636e-15
0.006697
1.168e-07
1.498e-07
0.006692
0.001308
2.91e-07
7.004e-06
7.279e-06
9.215e-05
5.16e-09
0.0002194
6.981e-12
0.002463
0.0007414
3.727e-14
1.741e-08
1.084e-09
5.739e-08
0.005965
4.309e-06
0.0008705
0.0009919
0.006602
3.371e-10
1.039e-10
9.485e-08
0.006639
0.0001051
0.000116
9.432e-09
3.379e-06
2.41e-10
0.001561
0.000881
7.063e-07
4.654e-06
0.006668
3.481e-05
7.249e-06
6.426e-09
4.185e-08
2.049e-08
7.766e-09
0.000726
1.463e-06
6.294e-08
1.163e-05
5.21e-07
0.003409
2.624e-11
7.361e-06
5.76e-10
6.118e-07
0.0003744
0.006702
0.006701
1.643e-05
4.735e-08
1.209e-06
0.006694
0.004843
1.149e-05
3.783e-09
0.0001061
5.287e-06
4.447e-09
1.593e-11
2.511e-05
0.001156
0.006682
7.969e-08
0.0001153
4.297e-07
0.00499
4.329e-13
1.036e-06
6.453e-07
0.002232
1.097e-10
0.006694
0.0001272
0.0003091
0.0009063
0.004956
1.643e-07
0.0007618
8.976e-14
0.006644
2.709e-07
1.451e-09
0.00669
2.234e-06
0.005092
1.215e-07
7.472e-05
0.006691
1.174e-08
8.063e-09
1.936e-07
3.437e-06
0.0001279
2.673e-09
3.041e-09
1.433e-06
7.013e-08
1.69e-07
4.301e-08
4.927e-05
5.27e-06
3.037e-10
0.00558
2.323e-09
0.006691
1.176e-06
0.0008464
0.0001237
0.006677
0.00548
6.536e-05
3.723e-08
3.245e-05
0.00648
0.006676
4.23e-07
1.878e-11
1.905e-08
1.037e-09
0.001899
8.545e-06
0.0001079
1.932e-06
1.863e-05
1.459e-07
1.978e-10
0.00648
1.809e-08
2.983e-05
7.995e-05
5.864e-06
0.006617
0.004845
8.578e-05
7.063e-11
3.813e-05
2.525e-11
0.0007873
0.003806
2.786e-06
2.326e-08
0.0001918
1.174e-09
9.365e-05
0.0008207
2.819e-08
6.444e-06
3.349e-05
2.331e-05
1.954e-18
3.203e-08
8.984e-05
6.247e-05
3.383e-06
7.375e-07
2.729e-10
8.087e-08
0.000414
1.029e-06
3.646e-06
0.0001513
0.006678
6.312e-08
1.832e-05
4.502e-06
0.006638
0.006677
6.768e-12
0.0001034
6.612e-09
9.401e-07
1.832e-07
0.002083
2.897e-05
3.643e-10
9.92e-06
1.093e-08
0.00669
0.006668
5.523e-06
1.336e-05
1.048e-08
4.932e-06
2.179e-10
0.00184
1.069e-08
0.0001212
0.002365
0.003899
9.306e-10
0.0001558
8.273e-09
2.754e-17
8.241e-07
3.693e-06
0.0002011
0.004759
4.913e-07
4.079e-08
1.527e-11
0.0039
0.0008503
1.919e-05
6.622e-10
3.443e-05
2.46e-08
0.002663
1.968e-08
3.37e-07
1.698e-06
0.0007787
5.436e-05
2.23e-22
2.102e-05
0.0001765
1.723e-07
2.896e-07
1.435e-07
0.006687
3.996e-05
0.003407
0.0001114
0.003634
1.978e-11
5.639e-07
1.016e-10
0.003483
5.316e-08
4.269e-05
1.29e-07
2.29e-07
0.003908
0.000234
1.03e-07
1.238e-08
0.0002467
0.002484
3.173e-05
5.18e-07
0.00342
1.71e-06
4.708e-05
9.64e-07
3.181e-06
3.383e-05
8.07e-07
1.882e-11
2.24e-07
0.006608
0.0002291
0.001723
2.6e-11
1.46e-09
4.668e-05
0.001365
1.258e-08
0.006621
8.617e-06
3.04e-08
3.218e-05
3.01e-13
3.249e-05
1.204e-07
3.701e-05
0.0004313
1.821e-05
0.006697
5.023e-19
4.917e-06
4.526e-06
7.869e-09
0.0001398
7.809e-07
1.48e-06
1.6e-08
0.006681
0.00355
8.648e-06
0.003761
5.791e-07
2.234e-07
2.457e-07
5.33e-07
0.00666
0.0001276
8.786e-05
0.006691
0.006657
5.877e-06
0.00152
0.001896
9.914e-07
0.0001379
6.984e-15
4.899e-06
8.408e-06
0.006678
3.803e-05
1.516e-05
3.464e-09
2.292e-10
8.418e-06
0.00352
0.006164
0.001103
3.657e-13
0.006679
0.0001267
2.871e-10
4.115e-07
2.3e-11
0.005587
0.000532
4.363e-07
0.006693
1.437e-09
0.006679
1.832e-07
6.765e-11
1.582e-07
5.08e-06
3.042e-12
0.006536
1.464e-08
1.999e-05
4.491e-10
8.014e-07
3.149e-10
4.056e-10
4.991e-05
5.72e-05
1.096e-05
1.039e-14
0.006692
0.0002965
3.673e-09
9.036e-09
3.185e-06
1.025e-12
0.003586
0.0001915
7.329e-08
1.086e-11
1.886e-14
1.219e-07
3.069e-16
1.988e-08
6.474e-16
1.562e-06
1.281e-08
0.003585
1.714e-13
0.0008133
1.761e-07
0.004936
0.005034
0.0001111
0.000458
1.863e-06
0.002529
7.385e-07
4.907e-05
0.0004025
4.337e-08
1.438e-07
0.006298
0.003359
1.995e-05
0.0004659
9.432e-09
9.823e-14
0.0003008
2.115e-06
1.482e-08
0.0006081
3.397e-07
0.006688
1.114e-05
9.153e-09
0.00641
1.939e-08
7.734e-06
0.001723
0.006665
0.002655
0.00224
1.409e-15
1.341e-05
9.186e-14
0.0002215
1.119e-06
2.329e-07
5.725e-10
6.663e-09
0.005537
4.677e-11
9.078e-06
0.005425
9.185e-06
1.706e-13
0.001202
4.318e-09
3.873e-06
1.609e-05
1.207e-10
4.105e-16
1.639e-08
0.0008804
0.006693
2.085e-06
7.465e-06
3.401e-06
2.003e-08
6.731e-07
9.511e-11
2.273e-05
5.516e-05
8.053e-11
0.0001635
2.063e-12
0.006688
0.000307
5.26e-08
0.0002734
3.979e-07
0.0001138
0.006691
0.00227
1.8e-08
4.072e-05
3.079e-06
2.017e-08
2.025e-07
0.001054
2.416e-05
1.096e-07
3.058e-08
1.384e-14
4.416e-05
1.498e-09
1.39e-08
2.477e-06
0.0009993
5.552e-07
8.973e-07
1.258e-08
1.472e-12
9.981e-05
0.006687
0.006683
0.0003374
0.0001893
7.317e-05
0.006695
1.639e-06
0.0001039
6.116e-05
2.909e-07
5.829e-05
9.574e-08
2.175e-06
0.006705
6.628e-05
5.265e-05
5.617e-12
1.286e-10
4.228e-05
1.11e-05
0.0003961
6.552e-09
2.072e-08
1.248e-06
0.002037
6.229e-07
1.256e-07
8.972e-06
6.891e-11
0.006512
6.427e-12
4.439e-10
0.00179
4.502e-06
9.803e-09
0.004475
1.119e-13
1.427e-14
0.006223
0.00669
6.855e-06
4.762e-05
6.287e-14
2.581e-06
1.923e-07
9.312e-09
5.648e-08
6.765e-05
9.39e-05
0.00377
2.643e-08
0.001074
2.662e-07
1.701e-05
4.764e-09
4.218e-05
0.005187
2.393e-14
1.298e-05
0.006691
1.218e-07
0.005545
0.006686
1.336e-06
7.581e-05
3.067e-14
0.006687
1.546e-09
0.006693
1.612e-07
9.01e-05
0.003586
5.434e-06
2.49e-09
8.823e-09
1.948e-08
7.293e-07
0.003661
0.0006262
0.0002701
5.04e-08
7.637e-07
9.163e-08
1.737e-12
2.577e-08
8.633e-14
2.494e-06
8.683e-09
2.361e-09
8.499e-09
1.995e-11
5.274e-06
0.00363
0.003732
4.439e-08
1.304e-05
1.579e-10
0.002816
1.473e-08
0.0004348
3.162e-07
1.68e-07
8.563e-06
6.609e-05
2.632e-09
0.001351
3.202e-07
3.378e-06
1.364e-09
7.213e-07
0.006503
1.545e-06
4.522e-08
0.006422
2.956e-07
1.549e-09
0.006675
2.651e-05
2.453e-06
0.0003225
5.241e-06
0.0005329
4.491e-05
9.988e-05
0.006666
3.237e-07
2.894e-07
0.0067
7.141e-06
0.000156
0.0001067
1.287e-07
3.643e-06
0.0004351
5.42e-08
2.34e-12
2.673e-09
2.084e-08
0.0004472
1.678e-13
0.002661
9.287e-08
0.006692
2.473e-05
5.47e-06
6.035e-07
1.644e-07
5.359e-08
1.433e-11
0.006698
9.094e-15
2.108e-09
4.018e-09
5.395e-07
4.793e-09
0.001213
0.003895
7.274e-11
3.438e-07
6.463e-05
5.634e-18
8.841e-05
1.732e-08
5.201e-10
5.463e-08
1.397e-07
5.892e-05
5.99e-10
2.116e-07
3.881e-06
4.763e-06
5.348e-09
1.259e-08
0.001109
8.846e-14
9.866e-05
1.235e-07
0.0001192
1.527e-09
0.006645
0.00669
0.0001245
8.893e-14
0.0002198
0.00173
9.134e-14
3.892e-08
0.006692
3.22e-11
2.02e-07
1.222e-05
9.152e-13
2.411e-05
1.573e-05
1.613e-17
0.002689
9.264e-11
0.0005453
3.241e-07
1.245e-11
1.493e-08
3.546e-10
4.865e-06
1.204e-07
0.0001198
0.002734
3.257e-06
1.192e-06
4.221e-06
2.572e-07
0.001697
1.866e-10
0.0006369
7.595e-05
0.001251
3.754e-06
3.297e-05
2.64e-06
9.092e-14
5.767e-05
2.283e-12
4.505e-10
5.516e-06
1.139e-05
0.006693
0.0009273
5.058e-06
3.367e-05
8.467e-10
8.267e-10
1.486e-10
0.006681
6.427e-09
3.933e-08
2.672e-05
3.008e-14
8.387e-07
0.003057
1.111e-07
0.002538
7.691e-08
6.647e-06
5.699e-12
8.039e-07
0.0008941
0.0003219
0.006698
4.714e-16
2.631e-14
5.04e-05
6.363e-05
5.193e-06
0.006492
0.00665
7.473e-07
0.0006951
0.002714
8.915e-05
0.003094
0.003068
1.451e-06
2.447e-05
0.001878
1.945e-08
2.682e-08
1.626e-14
2.962e-05
2.376e-10
1.072e-05
3.104e-07
0.006652
2.808e-09
0.000513
3.18e-07
1.141e-14
6.657e-06
0.001598
2.909e-06
4.765e-07
6.763e-05
5.013e-15
0.001857
1.002e-05
0.001454
0.001516
9.328e-06
3.33e-08
4.27e-15
7.417e-05
1.054e-07
0.006675
1.77e-08
1.352e-08
0.006666
4.946e-09
7.393e-07
1.384e-05
5.427e-09
0.006682
2.226e-05
1.619e-16
0.004489
4.102e-08
2.095e-08
2.972e-07
3.77e-11
5.059e-05
9.512e-06
2.134e-07
4.703e-11
7.309e-06
3.306e-07
1.782e-05
1.962e-07
2.787e-10
1.557e-10
1.01e-07
5.958e-06
0.006691
1.095e-07
0.003053
3.762e-10
3.429e-07
0.001694
5.93e-06
0.006699
1.924e-05
4.873e-07
0.006583
0.001854
0.006085
5.357e-10
0.001849
1.643e-13
1.9e-06
2.539e-05
4.654e-09
3.128e-05
8.078e-08
7.712e-09
4.265e-16
4.007e-06
7.002e-07
5.347e-05
8.656e-05
0.0007502
0.006702
4.381e-05
0.001273
0.0005502
0.006699
0.001491
0.006685
6.226e-08
1.031e-05
0.006674
0.006686
1.355e-06
9.704e-05
4.286e-09
7.43e-05
0.006681
6.152e-06
2.313e-05
6.396e-05
9.705e-16
1.785e-10
2.025e-13
7.137e-08
6.566e-07
1.693e-08
6.438e-08
0.0001746
9.314e-05
7.482e-12
0.0005321
5.251e-09
3.634e-09
6.317e-06
4.008e-06
0.003038
0.006686
3.896e-16
8.526e-06
3.427e-11
0.006692
1.399e-14
4.747e-08
1.138e-08
9.433e-06
0.006637
0.006636
0.0008689
0.001677
0.002127
0.00109
3.66e-07
4.974e-05
4.798e-06
0.002416
1.094e-05
1.273e-10
1.512e-06
0.0002015
5.846e-05
9.137e-06
6.142e-10
7.606e-09
2.289e-07
1.231e-08
0.0002433
0.002644
1.577e-05
7.172e-06
7.653e-13
3.864e-05
0.000346
3.089e-07
0.002404
1.186e-07
6.989e-05
1.665e-10
0.003324
0.006692
0.0002903
7.59e-07
7.442e-15
2.647e-11
7.143e-05
5.057e-06
3.025e-09
0.0001121
0.006617
1.766e-08
4.293e-08
1.298e-15
5.403e-05
1.35e-13
1.647e-05
0.006686
3.437e-08
5.024e-08
0.0009989
1.312e-05
0.0003811
2.355e-07
4.549e-07
5.793e-07
0.0006397
8.279e-10
0.0001329
3.373e-08
1.979e-09
1.203e-09
0.003208
0.003206
6.709e-09
8.317e-06
3.931e-15
6.956e-07
5.793e-10
4.032e-10
3.671e-16
0.00245
5.724e-07
0.0003909
0.003727
0.006685
0.0005684
0.006185
1.609e-14
0.006691
3.145e-11
3.958e-05
1.095e-06
4.546e-07
1.577e-09
0.00255
1.295e-11
8.52e-05
1.773e-07
0.000152
4.544e-12
0.006686
9.343e-07
2.763e-08
0.0002253
2.565e-09
5.479e-08
7.074e-05
1.892e-08
5.127e-09
0.0001788
0.006661
1.757e-10
0.002614
0.006655
5.338e-05
1.012e-09
0.006661
3.159e-11
0.006694
5.384e-05
3.432e-06
0.0004569
5.543e-07
0.006658
0.0002258
1.289e-08
6.233e-05
3.26e-05
2.653e-06
3.606e-05
0.006692
0.00668
9.141e-06
3.928e-15
1.154e-06
2.174e-07
0.0008663
2.455e-12
7.101e-05
4.77e-05
0.002932
1.822e-05
8.578e-07
2.369e-09
0.0006431
4.332e-08
0.001072
1.038e-05
0.006703
3.93e-06
1.048e-07
0.0002641
7.482e-07
8.724e-10
3.677e-07
0.006677
2.805e-05
6.855e-11
1.067e-07
1.599e-14
2.802e-10
0.00219
0.0003324
1.208e-05
9.499e-12
2.563e-05
2.515e-08
9.661e-11
0.002799
5.771e-05
0.006688
1.852e-07
4.932e-08
1.316e-06
0.006693
4.253e-07
0.006692
9.6e-05
9.115e-07
0.00669
0.002596
5.634e-05
1.051e-06
0.0003491
0.002113
1.257e-08
0.006696
1.002e-08
6.47e-11
1.129e-05
0.002996
6.932e-08
0.000952
3.279e-06
9.829e-05
5.825e-10
3.236e-07
7.749e-05
1.287e-09
6.425e-06
1.167e-07
9.216e-11
0.0001728
4.188e-05
2.247e-07
0.0002128
3.049e-08
7.385e-05
1.011e-05
3.023e-07
0.0003215
0.002096
6.54e-09
0.002214
1.58e-06
4.223e-06
1.702e-14
1.874e-05
5.851e-13
6.31e-05
0.006663
6.019e-13
1.081e-07
9.891e-05
1.034e-08
0.0004351
7.693e-05
0.006705
0.001067
1.955e-12
0.0004174
4.668e-06
3.336e-07
1.01e-07
0.006695
4.107e-07
7.583e-06
7.025e-06
4.006e-10
0.0004538
2.65e-07
6.532e-11
0.006688
0.0002405
5.191e-05
0.002739
2.917e-06
1.818e-05
3.171e-05
1.6e-06
8.297e-05
0.0007355
0.003205
5.414e-05
3.72e-06
0.006507
2.598e-05
2.226e-09
9.63e-14
0.006694
3.258e-07
1.072e-12
0.002016
6.634e-09
0.001342
1.019e-07
9.078e-14
0.003028
0.002504
2.17e-05
0.0009876
2.235e-09
3.703e-06
0.0004673
1.165e-11
3.566e-07
0.000468
2.802e-08
6.208e-17
1.582e-16
3.049e-05
1.563e-05
3.768e-07
6.851e-05
0.0006608
2.978e-06
0.0004274
2.317e-09
1.25e-06
1.875e-06
5.513e-08
2.883e-12
7.412e-05
2.838e-05
0.006693
2.682e-08
2.778e-05
2.074e-05
1.455e-05
7.664e-05
1.036e-07
2.829e-05
0.003247
0.006668
4.999e-09
2.891e-10
1.911e-05
1.58e-08
0.0002521
1.53e-14
1.854e-08
0.0001862
1.901e-07
2.105e-10
9.164e-05
1.798e-07
4.39e-15
0.006609
1.894e-11
8.866e-09
9.11e-08
0.004931
0.0002747
0.001091
6.302e-10
8.263e-08
0.001208
2.098e-10
0.004718
5.645e-06
5.244e-08
0.0001349
0.001505
0.00592
4.422e-09
2.139e-10
1.238e-07
1.61e-10
2.237e-11
0.0003021
3.78e-13
0.002525
2.624e-08
6.338e-06
0.002058
0.0001185
0.00353
1.068e-06
0.000604
1.917e-07
0.003064
1.907e-07
4.402e-16
3.3e-13
1.943e-05
2.629e-05
3.211e-05
1.242e-05
0.001924
0.0002025
6.384e-07
7.341e-05
0.006699
3.589e-07
1.64e-07
2.487e-08
3.445e-06
2.699e-06
5.105e-08
0.00021
5.3e-09
9.3e-14
1.119e-11
0.0001095
2.095e-07
6.825e-16
0.001048
3.522e-09
0.00336
2.274e-06
3.699e-06
5.99e-18
3.968e-06
2.487e-06
0.003519
0.0002137
1.881e-08
1.14e-05
0.006694
0.006698
0.0004534
2.102e-10
0.001124
1.753e-07
1.162e-13
1.686e-06
0.001387
4.045e-10
0.001934
8.737e-06
2.098e-11
7.658e-05
0.003632
2.147e-05
2.165e-06
7.246e-05
1.207e-06
0.006696
6.602e-08
0.002557
4.689e-10
0.003167
3.698e-08
2.949e-11
1.731e-05
3.591e-10
0.0001627
2.441e-09
1.317e-07
5.668e-09
1.887e-05
0.000867
1.715e-05
6.36e-05
1.156e-08
7.414e-06
3.366e-10
2.959e-08
0.0067
5.645e-06
0.003629
1.047e-09
3.532e-07
0.002254
0.0008915
8.385e-05
1.454e-11
0.003404
6.604e-06
0.0004307
4.628e-05
0.001671
0.000288
0.0001349
9.14e-14
0.0001056
0.0003434
8.956e-09
0.006671
0.0006109
6.719e-05
5.803e-05
0.0008512
0.006687
8.779e-05
4.533e-08
1.107e-08
0.006692
0.001027
0.001872
1.68e-06
3.779e-08
0.001199
4.286e-05
8.128e-05
7.764e-10
3.441e-09
0.001854
7.621e-07
1.859e-05
0.0001076
2.199e-07
3.116e-14
0.001574
7.803e-10
6.435e-09
0.001192
1.766e-14
0.006683
0.006661
1.28e-05
1.666e-05
2.601e-16
0.006692
0.001244
7.866e-09
6.855e-15
2.57e-08
1.954e-09
0.0063
0.006369
8.594e-09
1.529e-06
8.836e-05
6.251e-07
5.503e-05
0.0009755
2.814e-05
0.006705
3.899e-10
7.478e-08
2.977e-07
0.0001981
1.379e-11
0.0005005
1.772e-05
0.006667
2.891e-06
5.717e-08
7.062e-10
6.844e-09
2.677e-06
1.966e-11
1.868e-07
5.993e-06
2.153e-07
5.014e-08
1.724e-06
0.0001107
6.76e-07
1.302e-10
0.004839
0.005026
8.231e-08
3.507e-06
1.562e-12
9.134e-06
4.492e-09
4.22e-07
0.002607
0.006692
6.954e-06
0.006702
4.547e-05
1.513e-13
2.201e-06
9.223e-05
3.169e-07
0.0001268
7.553e-12
6.264e-08
0.003028
2.299e-06
2.852e-06
2.468e-07
0.0003498
2.698e-07
1.343e-06
6.391e-06
2.725e-05
3.248e-05
1.878e-06
0.0007014
4.246e-10
1.365e-07
6.844e-06
7.175e-06
9.686e-11
1.234e-05
2.016e-07
1.951e-08
9.853e-07
8.014e-06
1.503e-06
3.967e-13
9.553e-05
9.01e-08
0.001546
0.0009102
0.006703
1.208e-07
0.002147
3.637e-13
1.991e-07
4.126e-05
4.433e-10
3.376e-15
1.511e-10
4.383e-05
3.902e-07
4.632e-10
1.504e-11
0.002291
0.0003093
1.112e-06
8.542e-16
1.566e-06
2.161e-05
7.106e-05
7.199e-05
0.006693
0.0002765
2.321e-10
7.091e-06
4.593e-08
0.001667
9.579e-05
1.1e-11
0.006646
0.0001169
8.898e-05
0.001079
8.894e-10
7.317e-05
1.852e-05
0.002493
5.423e-05
4.578e-08
1.264e-06
5.14e-14
1.228e-08
1.058e-06
0.006676
5.413e-05
5.99e-06
3.395e-10
7.468e-09
9.106e-07
0.002737
2.129e-06
0.006142
2.063e-08
4.635e-09
7.879e-06
1.605e-06
6.636e-05
2.193e-11
1.124e-09
1.297e-08
1.678e-06
5.689e-05
1.475e-06
1.489e-10
0.00365
0.0001085
1.085e-13
0.002786
4.653e-05
0.004953
0.006699
1.35e-06
0.002896
2.374e-08
3.455e-07
6.834e-05
0.0002717
1.212e-09
1.749e-11
1.674e-06
7.832e-09
1.48e-06
0.001149
1.072e-14
3.465e-05
2.958e-06
0.002465
6.354e-14
0.000718
3.155e-11
7.85e-13
0.00352
2.416e-09
1.319e-09
9.19e-06
0.0004103
1.005e-09
1.199e-07
9.709e-10
9.884e-05
2.586e-05
0.0001918
0.003338
0.0067
4.353e-05
0.0004402
4.573e-07
1.486e-06
7.196e-06
1.27e-13
0.0003889
0.005079
6.423e-08
1.866e-05
0.001398
5.087e-07
1.674e-05
8.555e-07
2.057e-09
3.714e-10
7.677e-13
2.861e-07
4.592e-08
1.124e-07
3.792e-06
5.819e-07
2.158e-05
4.747e-14
3.656e-08
3.267e-07
8.866e-06
0.006676
1.486e-07
4.546e-08
0.0006611
9.65e-06
6.792e-13
2.991e-09
2.587e-07
0.0001483
1.177e-05
9.232e-10
0.006691
1.671e-09
0.001364
0.0001286
8.609e-07
5.615e-09
0.006701
2.167e-07
0.0004079
2.383e-06
5.566e-12
3.442e-06
2.627e-06
4.308e-16
3.71e-05
5.471e-08
0.006662
0.006638
6.679e-08
3.024e-05
1.412e-05
3.565e-09
2.195e-07
0.006685
1.537e-11
7.731e-10
4.912e-05
0.0067
0.004222
1.519e-05
3.79e-06
5.876e-08
2.165e-16
2.898e-09
0.005317
2.466e-09
1.538e-12
8.579e-05
3.599e-09
1.956e-08
0.002621
6.085e-05
8.297e-10
0.001226
0.0001769
0.006632
0.006585
0.006612
0.006269
0.0001386
0.0004572
1.486e-06
5.871e-09
4.988e-06
1.699e-06
5.114e-05
7.53e-11
0.006127
2.564e-06
5.411e-05
6.982e-09
4.334e-10
2.713e-09
6.575e-06
4.424e-07
2.033e-08
7.991e-05
1.454e-07
0.0001922
2.42e-07
1.908e-15
5.836e-08
7.527e-12
3.974e-06
1.366e-07
0.006692
5.571e-14
3.823e-06
1.669e-08
5.626e-06
0.0001313
1.015e-13
0.006693
2.65e-05
1.231e-09
0.004037
5.967e-07
5.348e-06
0.0003559
1.516e-05
1.854e-10
8.145e-05
8.449e-09
0.006625
8.007e-06
4.081e-06
3.416e-07
0.0005375
3.685e-07
0.00668
0.005183
6.089e-05
3.213e-07
2.414e-09
0.0001091
0.0002275
1.418e-07
1.317e-05
4.335e-10
1.7e-08
0.001557
0.00188
0.0005071
1.096e-05
0.0001041
6.084e-15
3.553e-06
0.00669
5.104e-12
0.006693
0.006685
7.866e-05
0.002524
7.394e-11
0.0003317
2.097e-10
0.0001164
1.794e-08
0.006695
0.0001004
9.735e-07
7.01e-08
0.001302
0.003418
6.085e-05
5.243e-12
4.947e-12
0.006702
5.226e-13
4.452e-12
2.607e-16
0.002968
0.001862
0.0007215
9.203e-05
0.0006493
0.002138
4.712e-07
2.815e-12
9.556e-06
1.994e-09
1.716e-15
0.006692
1.139e-08
5.989e-11
2.382e-07
0.006693
1.189e-09
2.992e-13
2.854e-15
1.329e-14
9.601e-05
7.97e-06
1.852e-14
0.0002947
3.966e-06
0.006687
0.0002628
4.863e-10
0.002717
2.682e-08
1.444e-14
9.325e-05
2.109e-05
2.997e-07
0.006706
0.00529
5.516e-09
2.108e-09
0.003076
5.85e-10
7.794e-07
3.868e-05
0.0008662
7.738e-05
9.997e-07
1.609e-05
0.006692
1.216e-05
1.316e-05
6.876e-08
5.366e-08
1.099e-07
5.948e-09
1.777e-07
1.013e-13
6.968e-16
4.775e-18
4.137e-09
0.0001586
2.135e-09
0.0003422
5.224e-10
6.274e-10
0.006692
3.495e-15
0.006705
4.609e-07
2.558e-12
4.663e-11
3.359e-05
6.414e-07
1.839e-07
3.942e-08
0.006629
1.62e-15
7.279e-07
0.002927
0.0009502
1.379e-05
1.001e-13
4.794e-13
5.148e-14
0.0008053
8.382e-09
2.77e-09
0.0003301
2.529e-05
3.084e-07
4.962e-13
0.006668
2.008e-05
4.536e-07
5.605e-06
6.733e-07
0.0002139
0.00263
1.031e-11
1.866e-07
1.228e-07
8.167e-13
0.002759
3.955e-11
4.006e-05
5.464e-07
6.418e-07
0.006394
0.0001136
6.933e-07
7.529e-09
3.956e-08
1.109e-13
0.002947
0.004364
7.958e-06
4.985e-08
2.425e-11
0.0001534
0.002719
0.006428
0.0002981
5.026e-10
0.006345
5.43e-08
1.537e-08
8.968e-05
6.233e-07
0.0001221
4.597e-12
6.263e-14
1.219e-14
8.529e-05
2.475e-09
9.876e-06
2.306e-07
0.002055
0.001617
1.353e-12
0.0007608
8.433e-10
3.953e-08
2.017e-10
1.013e-07
2.583e-05
1.824e-13
0.0005511
4.426e-07
7.754e-05
0.003205
4.918e-07
0.0001229
0.002241
1.218e-06
2.844e-07
5.761e-06
4.432e-07
7.334e-07
7.016e-14
1.717e-15
0.002023
6.232e-15
0.00225
8.399e-05
0.0001134
0.0001828
8.976e-07
0.006704
3.058e-08
4.477e-14
7.285e-08
6.194e-11
0.00094
0.0001326
8.124e-08
2.532e-06
0.0007465
2.372e-09
0.001151
1.181e-11
4.525e-07
0.005292
7.584e-06
4.244e-07
0.0067
0.0004509
1.103e-10
0.006694
2.29e-08
2.521e-07
4.442e-08
4.727e-06
2.822e-11
0.002537
0.0004887
5.198e-05
2.263e-09
9.438e-10
4.324e-09
4.826e-07
0.006684
1.503e-08
0.006691
7.38e-05
5.749e-07
0.0008328
1.368e-14
3.493e-07
2.577e-09
0.002094
3.609e-10
2.361e-05
0.002392
0.0001296
7.535e-08
0.00667
7.54e-06
0.006694
9.202e-10
6.348e-10
3.977e-07
1.191e-05
0.006614
7.697e-09
1.356e-08
1.852e-07
1.231e-10
3.151e-08
1.116e-08
0.0006213
6.824e-05
1.101e-05
1.752e-05
6.796e-08
1.437e-06
0.0001111
1.758e-05
9.944e-05
1.248e-06
2.41e-07
0.006623
0.006665
0.002077
0.000324
5.355e-06
1.327e-08
1.948e-08
0.002513
6.015e-08
2.224e-06
1.582e-07
0.006698
6.767e-07
4.978e-05
1.053e-10
0.002755
2.493e-15
6.861e-06
7.07e-11
0.003561
0.0001181
1.008e-13
0.0003097
1.735e-07
9.145e-08
4.118e-08
1.602e-07
2.554e-06
0.006693
9.054e-08
2.409e-07
3.746e-06
1.508e-05
1.23e-05
4.693e-06
9.657e-05
3.203e-07
9.275e-09
0.006686
0.0002517
6.322e-07
1.376e-11
6.989e-06
0.006701
5.203e-09
7.727e-10
0.0001279
0.0001455
2.29e-06
5.907e-09
0.0002009
1.245e-06
5.345e-07
0.001808
6.739e-06
6.179e-06
0.005315
5.278e-06
1.603e-14
0.0002936
8.456e-06
2.341e-12
1.387e-05
4.529e-06
0.00669
0.0003051
8.797e-05
0.003534
8.616e-13
8.127e-07
0.006697
0.001093
3.851e-07
2.08e-16
0.006697
0.0002332
9.287e-11
1.646e-07
6.603e-06
1.493e-07
6.015e-09
1.59e-06
2.817e-06
1.872e-09
1.32e-12
3.67e-10
0.002139
8.54e-06
0.0001219
1.517e-06
0.006683
6.026e-05
6.505e-07
0.0004139
1.875e-07
5.602e-14
3.613e-11
0.002204
8.73e-09
9.346e-13
0.001815
8.169e-09
0.0002277
3.426e-05
7.094e-05
2.208e-10
1.229e-13
0.006688
1.007e-08
2.461e-07
0.006697
2.905e-11
0.0002837
1.099e-05
0.0001374
1.737e-05
2.177e-09
1.532e-07
5.973e-07
0.006706
0.003114
0.002464
7.88e-06
0.006681
5.681e-06
0.0003764
5.775e-10
0.002219
0.0002829
7.497e-09
1.285e-10
0.001992
2.901e-06
0.006676
7.465e-14
9.998e-06
2.721e-09
6.002e-09
0.0001008
1.987e-08
2.798e-06
2.167e-07
2.475e-14
0.003013
9.89e-14
0.006671
0.006684
5.601e-05
5.637e-05
0.006683
8.118e-15
9.076e-08
2.679e-08
3.753e-10
1.247e-06
2.157e-05
0.004898
7.066e-15
0.000577
2.891e-07
0.006664
2.492e-05
3.665e-05
6.652e-05
1.06e-05
2.015e-05
0.002424
1.005e-07
0.006656
1.059e-05
1.684e-09
7.452e-10
1.27e-12
9.323e-05
0.0002128
2.14e-06
0.006699
1.608e-07
6.447e-08
0.0002448
0.0002259
4.173e-05
6.363e-14
0.005969
0.00668
1.609e-06
7.707e-09
0.001803
1.734e-09
0.006701
1.35e-09
1.284e-06
2.364e-07
0.006701
6.983e-05
9.065e-10
5.844e-08
6.461e-10
9.542e-05
2.458e-06
0.006677
5.868e-09
0.004648
4.823e-09
1.075e-14
0.001134
1.026e-05
0.0007888
2.121e-09
1.243e-11
8.849e-08
8.787e-05
0.006656
8.178e-06
8.402e-05
0.006689
1.841e-08
3.938e-07
0.001655
0.00669
0.0001156
0.0001046
0.0001795
2.347e-08
9.393e-06
0.006693
6.071e-08
2.803e-07
7.673e-08
0.0005559
0.006696
0.00669
0.000407
1.031e-05
0.001412
3.323e-09
1.898e-14
2.171e-13
3.133e-07
7.684e-13
3.721e-11
0.002811
2.771e-14
2.773e-06
1.132e-09
0.002445
6.77e-05
3.689e-05
1.012e-09
1.452e-09
1.52e-10
1.022e-07
0.0002833
5.389e-05
2.705e-08
3.568e-07
9.037e-06
9.23e-05
3.446e-06
5.463e-05
2.957e-08
0.004144
2.71e-05
2.112e-06
6.21e-06
1.142e-05
1.196e-09
5.509e-15
1.102e-11
0.006662
1.157e-11
2.175e-05
0.006654
4.809e-07
0.006694
2.73e-09
3.459e-06
0.002722
5.48e-09
5.321e-08
0.006707
3.043e-05
0.002705
1.52e-12
0.0009252
1.597e-05
9.128e-13
8.479e-06
0.006687
5.182e-11
0.0001478
0.0004367
1.692e-05
0.001966
1.173e-07
1.977e-14
3.747e-09
2.747e-06
0.001221
3.244e-07
5.006e-06
0.006688
0.0002065
2.004e-08
3.333e-07
1.968e-06
0.006701
1.04e-13
6.793e-08
9.322e-07
8.714e-06
2.961e-05
8.847e-07
0.006655
0.0001572
3.318e-08
4.6e-07
4.647e-05
1.862e-07
3.254e-09
0.002246
8.218e-06
8.248e-06
0.001333
5.315e-05
0.002212
9.408e-07
1.513e-06
2.1e-06
0.0067
2.224e-09
0.002473
0.0001031
5.568e-06
1.362e-05
1.462e-09
4.958e-06
1.078e-16
0.0009166
3.495e-05
0.001918
0.006677
5.945e-06
1.4e-06
2.995e-11
1.323e-10
1.496e-06
1.081e-08
3.942e-10
2.355e-05
2.312e-05
3.093e-06
4.46e-09
2.889e-12
1.542e-05
0.0001306
3.142e-10
4.66e-05
3.344e-10
2.496e-06
0.001057
0.0005083
5.985e-08
0.006693
4.937e-06
6.949e-05
0.006689
0.0001253
2.96e-10
0.002396
1.06e-15
4.59e-09
1.597e-07
0.006689
3.585e-05
3.442e-07
0.003403
7.723e-05
6.8e-06
1.229e-08
4.833e-07
1.307e-09
0.006695
1.928e-07
0.006682
1.369e-05
1.122e-07
7.638e-08
6.049e-06
3.331e-09
8.286e-16
0.006611
0.006692
6.166e-07
2.012e-07
4.853e-10
3.731e-05
3.21e-07
1.988e-09
0.0006802
0.001099
0.002738
1.889e-07
9.498e-11
3.17e-05
0.0001424
0.006686
2.506e-07
6.123e-05
3.947e-06
1.171e-08
1.66e-06
0.002041
3.266e-09
1.141e-06
0.0004123
5.679e-08
2.495e-07
0.0001317
0.006686
0.006565
1.135e-08
4.153e-09
1.377e-06
0.003283
7.436e-06
0.003097
1.224e-07
1.434e-06
0.006603
8.619e-06
3.206e-05
2.614e-15
4.822e-11
9.676e-10
0.00668
3.96e-09
2.196e-07
1.471e-08
2.144e-08
2.638e-13
1.685e-05
3.829e-05
2.27e-07
4.003e-07
2.383e-09
2.164e-11
0.002413
0.002836
0.003443
8.938e-05
6.639e-16
0.0008259
0.001449
6.13e-09
9.377e-07
0.001106
7.442e-08
1.016e-05
3.723e-11
0.0005895
1.025e-07
0.0001227
8.666e-06
8.967e-09
2.628e-15
0.0002159
6.305e-14
3.823e-13
0.006691
5.142e-14
5.905e-07
5.366e-10
2.241e-10
1.518e-05
0.0009731
2.064e-06
3.388e-07
2.194e-06
4.862e-05
0.0004308
0.0004366
5.803e-05
0.0004423
1.057e-05
1.598e-05
2.803e-05
0.001197
7.181e-14
1.364e-05
6.008e-10
3.38e-07
3.463e-09
0.006648
9.166e-09
3.193e-06
7.364e-11
0.0006045
3.015e-13
8.32e-08
2.689e-08
8.848e-05
1.642e-11
8.029e-05
0.0001705
3.05e-05
0.0001793
8.348e-05
0.0001035
1.3e-06
2.04e-05
7.812e-07
2.241e-06
1.001e-07
0.0001212
3.273e-13
1.493e-06
1.729e-13
3.955e-05
0.0004404
3.467e-06
0.001664
0.0001443
8.187e-08
0.006692
0.003169
0.006692
5.459e-05
1.692e-07
3.694e-07
0.001759
8.16e-06
0.0001517
5.641e-05
1.986e-14
9.687e-11
7.839e-14
5.717e-08
0.0001054
1.46e-09
1.382e-09
0.0001265
3.019e-09
0.006695
7.107e-05
0.002684
1.924e-07
0.001084
0.00668
0.006677
1.13e-06
0.00181
0.0001456
1.664e-14
1.421e-07
0.006673
0.006693
5.226e-07
0.0002583
6.478e-09
1.726e-12
0.004986
8.545e-06
1.544e-07
6.674e-08
4.457e-09
1.565e-14
4.341e-06
9.287e-05
7.85e-07
2.986e-08
3.266e-05
7.257e-08
1.052e-06
1.413e-05
2.41e-09
3.43e-06
7.861e-16
0.005662
3.167e-07
4.774e-09
2.335e-09
0.006695
9.666e-05
0.006692
0.0009346
0.0004714
7.005e-07