/*--------------------------------*- C++ -*----------------------------------*\
  =========                 |
  \\      /  F ield         | OpenFOAM: The Open Source CFD Toolbox
   \\    /   O peration     | Website:  https://openfoam.org
    \\  /    A nd           | Version:  8
     \\/     M anipulation  |
\*---------------------------------------------------------------------------*/
FoamFile
{
    version     2.0;
    format      ascii;
    class       volScalarField;
    location    "15";
    object      omega;
}
// * * * * * * * * * * * * * * * * * * * * * * * * * * * * * * * * * * * * * //

dimensions      [0 0 -1 0 0 0 0];

internalField   nonuniform List<scalar> 
127143
(
1.528e+08
2.873e+08
3.278e+08
1.398e+08
1.173e+07
1.415e+08
4.635e+06
8.099e+06
1.294e+07
1.888e+06
6.817e+06
1.065e+07
3.857e+08
1.183e+08
2366
3.152e+05
3.958e+07
13.08
8.7
1.256e+05
23.81
2.853e+05
0.08387
375.1
3.073e+05
4453
2.31e+04
2.281e+04
1.552e+04
13.48
903.8
5021
2.52e+04
3459
0.04148
2.446e+04
102.7
78.91
254.4
8008
8.754
0.4217
0.302
5.491e+07
12.68
2633
1.436e+04
24.29
385.4
302.8
1.982e+05
0.02519
34.38
0.1462
0.02092
1128
0.02091
0.6535
0.02208
0.1452
0.2961
9.262
105.6
0.02211
1167
0.4504
0.04315
119.4
117.8
0.08314
500.3
1.555e+04
13.01
0.02208
0.02179
1.579e+04
0.02268
58.1
1071
0.02222
1.569e+04
1.118e+05
976.3
4514
15.36
45.69
190.5
1.618e+04
0.3644
1301
0.02209
11.35
716.2
23.46
113.4
0.3944
0.3854
1459
26.76
0.04274
0.02221
353.8
5988
12.49
42.23
28.28
138.2
0.08347
2.289
0.02132
1916
2.002e+04
45.22
10.15
0.02174
5.262
0.02289
0.02179
0.02259
1.152e+06
0.02134
959.8
134.9
0.1733
1.494e+04
9090
11.47
0.02318
83.47
1360
92.07
128.4
68.43
56
4.474e+06
85.94
0.04848
16.2
1.303e+04
0.04169
0.1203
0.02224
27.35
16.55
34.44
116.7
6.709e+04
0.02213
140.3
9309
22.68
349
97.86
0.06736
285.9
15.01
0.6524
1814
23.48
1738
507.5
3.737e+05
0.02211
90.96
3849
876.1
141.1
0.5065
2422
0.02571
3280
16.38
8.468
62.69
0.2722
89.1
70.27
82.51
294.9
0.0321
62.29
0.03359
72.95
85.61
1276
9.087
0.07911
9.738
320
0.0312
42.57
112.4
0.04476
257.2
8.206e+06
11.03
0.01939
0.01934
8.832e+05
0.02177
0.02169
0.02585
3.421
87.69
4.437e+07
159.4
0.04821
43.78
13.61
0.02174
0.5575
19.85
0.02164
2334
174.6
9.14e+05
1.032e+04
47.26
68.22
0.04846
43.13
0.02184
361.2
40
2279
3610
2404
85.68
1066
16.33
26.26
0.03335
12.51
7.872e+05
25.77
0.08797
90.91
1.793e+07
0.02169
32.45
102.7
626.5
41.44
1696
124.7
9.128e+05
231.1
2.236e+04
6.814e+05
0.1007
4.26
3437
64.14
16.53
594
2.637
0.02314
1858
20.81
0.05074
11.25
0.02666
7.299
0.02218
106.8
744.4
453.7
594.8
0.605
38.11
2082
0.2691
17.47
33.28
72.95
40.03
43.82
260.5
0.5148
14.42
0.07268
0.8256
12.18
0.02175
0.02173
7.561e+06
103.4
0.02174
267.6
0.03356
97.77
0.2205
0.0875
13.07
0.02166
8.177
690.3
467.2
41.58
33.19
1174
0.4174
0.2785
4.28
2734
126.7
43.04
0.02164
12.87
42.77
150.5
3417
1258
0.05704
0.02172
658.7
55.85
1265
0.2726
2.294
0.07865
634.6
0.02775
64.66
688.7
63.58
0.0307
150.6
575.3
38.23
12.11
0.02173
0.04111
0.01941
0.01935
0.06593
2.254
8.416
12.15
124.8
0.04111
47.34
34.58
37.44
11.31
272.9
438.9
64.44
1020
122.4
858.5
8.17
104
39.09
0.02749
357.6
16.76
82.82
0.02331
579.2
13.4
93.4
19.17
299.6
285.8
0.02192
0.02176
1.432
1117
0.5121
0.9825
0.02789
2154
325.7
0.02963
0.06329
543.6
6.186e+05
23.16
0.5419
28.2
5622
789.5
0.4161
0.02281
4.988e+04
0.03489
6719
11.45
37.88
0.02179
0.1828
1764
629.1
330.5
856.5
0.1864
727.6
0.02743
0.02629
4218
0.02184
21.82
65.38
0.03575
34.33
35.93
67.31
0.02222
259
59.81
1193
0.1209
20.16
107.5
106.4
38.2
2848
107.8
516.4
129.7
1.886e+04
241.5
0.07611
16.98
0.05729
0.2639
0.08001
509.1
0.05616
0.02115
240.1
130.2
9.489
160.6
0.02192
45.77
353.3
0.02487
0.02166
0.02172
259.4
0.04921
3.557
0.0237
1277
0.02172
676
1.528
19.76
24.53
582.6
29.63
1386
0.03537
74.11
1403
398
57.89
58.13
59.19
64.18
17.84
2.581
61.65
0.2025
0.02193
23.02
557.6
0.02078
19.26
4.325
0.1738
60.27
0.04277
0.02028
218.6
3.176
1325
56.04
1.852e+04
599.4
308.3
1238
29.35
158.1
72.75
0.02163
1274
0.02225
417.2
173.3
37.95
126.2
1.384e+07
113.8
2.299
0.1085
4.203
0.02166
1.929e+04
0.02196
65.04
10.68
2.017e+07
1.01e+06
3.276e+06
0.02194
336.5
309.8
0.02172
11.66
184.3
99.72
15.48
25.74
604.8
18.98
1.25e+04
0.1711
23.48
6.654e+05
673.6
1070
2672
0.02197
20.82
2.266
19.24
0.02207
1776
9688
1684
0.01964
23.27
0.09383
6351
45.13
4445
16.27
0.02235
498
31.61
0.02081
0.4189
86.38
571.2
287.8
672.8
1547
11.17
83.41
388.1
96.41
214.9
0.02187
5363
73.61
1399
82
34.04
0.02212
0.02207
0.04861
480.6
8.271
0.02172
0.02929
12.95
1315
37.25
30.39
2713
1.209e+04
6.287
0.02232
0.02134
1621
24.4
116.9
0.03154
1.482e+04
62.35
181.6
0.5333
2591
0.02172
32.68
42.81
29.85
0.02716
507
11.23
8.1e+04
0.02026
131.3
9914
0.02171
34.09
0.02173
191.1
58.36
0.02175
797.7
495.4
1848
85.48
32.41
776.7
731.7
54.69
225.4
572.7
293.3
134.3
60.14
1768
0.02667
964.9
0.02173
7.066
0.02341
28.45
0.02116
0.02174
1.073
499.7
38.66
0.02135
0.02115
903.8
7636
673.3
1146
10.88
3.285
24.17
67.23
36.25
358.2
1439
0.02137
245.7
32.77
0.8773
26.69
0.02221
0.02924
72.73
8397
72.37
4.298e+04
0.02336
0.03826
127
277.2
0.02561
1094
0.1211
0.08271
690
20.28
31.59
0.09031
3.463e+07
3029
55.41
75.07
99.99
147.5
1799
361.9
0.02429
69.68
621.1
20.92
0.02121
243.9
0.2964
0.1752
0.01963
0.02119
4.442e+04
0.1091
610.9
112.7
339.8
12.9
0.6321
1722
0.07896
611.2
0.02162
0.02089
6.441
0.05907
852.8
0.1725
3703
10.37
825.8
0.2553
19.87
0.03668
1313
0.04301
621.5
4.85e+06
71.33
122.3
21.62
0.02863
99.35
281.3
3.515e+04
10.24
14.78
36.08
7408
39.27
780.4
8.072
466.5
116.3
41.99
11.22
0.2699
7.471e+07
0.2947
0.02552
185
207.6
171.1
0.02154
173.9
8.249
36.56
0.04106
4.6e+04
205.5
2667
0.04606
429.1
131.3
325.4
134.6
0.03855
23.95
2516
816.3
17.4
0.02179
35.23
311.7
0.02179
46.01
1.584
132.9
111.6
0.3519
72.35
5371
356.6
0.01934
24.28
9.421
4910
996.2
0.1641
11.37
1280
0.01937
91.99
677.3
50.06
5.467e+05
52.83
1533
36.03
34.59
8.448
0.02193
5.587e+07
87.78
76.58
3683
41.35
390.4
177.3
402.2
0.02132
8.732
12.96
0.03873
236.7
407.8
140.9
131.2
0.02048
22.54
107
0.02163
0.02042
26.81
9.422
10.86
388.7
32.19
1.967e+05
19.85
0.1553
0.02123
44.62
118.9
771.6
2063
0.4443
0.05529
0.02189
2.167
1.771e+04
0.02125
0.1851
5183
102.6
4948
0.02651
31.05
106
0.0218
974.7
0.0212
309
1.86e+04
222.9
146
1.279e+04
0.02191
755
0.1003
1576
1258
1805
1.124e+04
0.1626
0.9112
1.304
8e+04
0.02178
76.25
1048
1004
661.2
1.525e+04
0.0531
0.5531
1682
8257
4.348e+04
370.5
1.39e+06
623.5
2.557e+05
124.2
2972
8.84
3.429e+04
0.02263
164
0.02726
0.02645
24.06
0.02514
76.84
13.76
8.156
3.076
0.03636
908.8
202.8
0.02179
12.56
88.14
0.03511
890.8
1.514e+05
42.08
42.15
1960
19.99
607.1
0.02168
37.82
606.9
0.02313
666.8
73.13
8.887
0.02069
2.457
19.09
4.518e+05
12.24
1.531e+05
18.18
96.67
159.5
1.505e+04
361.9
0.02358
1.006e+04
0.2628
0.02428
5.394
4.851e+05
34.18
718.4
21.48
8.565
2.94e+04
2.333e+05
380.2
0.02229
0.02183
41.73
17.02
158.2
674.5
46.12
5386
129.4
0.06206
5546
0.04368
7532
0.0216
25.76
3039
17.21
226.5
24.62
0.02177
0.0218
2513
0.1504
326.5
365.2
849
15.08
102.7
222.9
231.9
6.158e+04
29.8
1039
856.5
31.74
13.73
238.2
343.2
6092
1.783e+05
26.19
0.02154
0.02139
19.65
45.33
1.352
0.02079
78.68
24.49
1.293
614.9
91.08
450.6
2.081
0.02223
0.2814
1.378
1.449e+04
2712
141.6
0.2429
69.85
1026
353.9
54.96
9.362
146.5
185.4
141.3
6198
0.02284
1.741e+04
1.811e+04
9.239
75.19
2414
0.02174
4.593e+04
7.034e+04
0.02191
0.02154
42.16
33.06
6.497e+05
712.2
157.7
847.3
731.5
0.3478
0.6818
0.02258
909.9
19.44
391.1
8.764
7805
61.82
0.02906
4.612e+04
218.7
0.02172
278.8
0.02556
0.02164
50.74
0.09091
4.652e+04
0.02157
965.6
0.02181
499.1
0.07732
12.1
17.89
913.8
503.6
824.4
78.71
0.05465
0.03689
17.53
283
415
527.9
1.474e+04
871.2
7.036e+04
96.91
698.7
685.8
486
5164
0.1132
9.12
0.04581
488.4
312.2
2446
0.0656
1265
13.47
126.2
210.7
46.06
2.385
1419
10.14
125.8
428.5
1383
1324
0.02109
45.97
486.8
0.02179
240.1
868.1
0.02066
5.96
619.1
0.0347
0.118
26.69
115.2
0.1538
0.01976
228.2
268.3
0.02161
0.08876
0.02903
24.28
328.8
27.11
0.03339
3026
1.393e+05
890.3
364.3
14.58
3.439e+04
0.07766
202.2
0.02176
49.37
31.26
179.7
212.1
3972
9824
0.02196
6.662e+05
1974
1374
91.11
1591
9.722
10.42
3138
120.5
0.03184
1.342e+06
69.8
400.9
1666
254.8
426.1
102.4
7456
154.5
131.2
145.5
602.1
423.2
30.77
1.237e+05
0.1032
208.3
0.09123
992.2
0.01969
0.02165
63.73
4.436e+04
28.46
1.401
5.257e+04
1516
0.02179
6649
153.9
127
1.543e+05
6.416
140.3
1.349e+07
12.91
1.137e+04
14.19
124.9
5101
408.6
1667
32.19
319.7
0.0789
18.41
38.2
161.8
28.09
141.5
11.02
3.028e+04
20.32
0.264
15.16
0.3976
0.4804
32.84
1.178e+05
0.03519
1.049e+04
3080
185.1
85.32
0.0218
11.73
53.93
0.9473
5049
1518
2499
0.02135
614.5
3171
41.62
4.489e+04
137.3
8.691
1078
0.02187
1419
132.8
1.393e+04
160.1
0.06795
15.47
0.02169
1.649e+05
5.217e+04
67.49
0.8914
24.5
0.02086
0.01977
857
24.47
7.984
0.06367
0.05122
0.05235
4.295
44.99
12.14
268.3
322.1
5.354e+04
1.235
1940
202.6
323.2
0.0198
846.3
13.11
144.5
6.637e+04
85.12
9.102
134.1
92.7
28.44
2.07e+05
27.7
61.21
11.88
9.386
11.48
312.2
1.718e+05
0.1049
2614
0.02118
385.4
2009
0.0203
4662
78.04
102.5
627.9
0.02138
1.115
4.349e+05
0.02174
290.7
808.3
128.4
1.778e+04
1.191
11.81
1470
4558
95.32
216.8
0.04864
180.6
1.209e+04
1.761e+04
384.8
87.92
0.02169
235.5
8.565
1694
414.4
9.482
93.22
0.02165
7.251
314.7
0.02212
10.29
0.02266
6664
10.67
3.675e+04
239.8
40.43
1049
39.1
219
769.5
3.406e+05
93.31
207.7
40.52
26.06
17.01
0.02211
138.8
0.02204
12.75
0.022
13.72
0.02147
327.7
175.7
0.02066
0.02161
952.1
0.1338
1349
0.08819
0.02002
26.37
44.81
0.03062
3.475e+06
5135
3.608e+05
226.7
73.92
390.9
250.4
59.27
2.032
8377
31
2219
692.6
58.66
68.15
7.912
0.02155
3.379e+05
66.47
6906
0.02178
6.054e+04
435.6
445.6
238.8
0.01973
0.01971
14.09
30.83
6.246
10.53
110.2
1.608
0.7414
2.749
11.13
3586
82.19
0.8793
31.07
11.62
1287
1017
146.2
437.4
20.46
0.02186
287.1
370.1
1.805e+04
32.41
0.03492
144.8
1.282
187.8
117.4
1860
16.51
0.02174
33.95
104.3
8.551e+04
1.744e+04
1.381
86.34
1714
0.1166
0.01972
2442
496.3
3.128e+05
0.04947
1.252e+05
166.9
0.02152
189.9
2019
10.04
0.09242
14.73
1316
103.4
89.87
35.73
3298
0.03996
786.6
1686
1096
0.0567
0.05656
538.3
15.21
3.02e+05
196.7
1390
1730
3.397e+05
1.496
460.9
0.02444
0.02175
0.0215
20.55
0.02314
9.468e+04
0.02172
1.182e+04
0.2643
109.6
192.9
1021
0.09425
3.236e+04
0.2756
759.1
21.32
1.537e+04
0.02166
150.8
932.2
18.02
1.577e+04
2948
37.2
2249
4989
0.04525
0.0206
1.446e+04
0.07289
0.01996
0.2785
1.278e+04
0.0206
4764
0.02184
28.96
145.8
13.47
265.4
0.02091
27.96
773.1
100.2
0.05552
30.74
0.1472
0.02173
0.02122
40.2
6.151e+05
72.9
140.8
0.02382
4.003e+04
0.4068
0.07105
0.0606
3.166
209.7
834.4
0.02461
476
0.0222
42.74
0.02217
0.2211
306.8
46.36
5.72
1441
219
0.02119
56.4
3108
610.4
5.53e+04
1795
8.937
0.03338
9.635
5.399e+04
39.91
840.7
3.801e+04
0.07494
0.1133
0.02159
122.6
294.6
83.41
0.0218
846.8
0.02175
0.2028
218.1
0.02136
8.625
0.8715
100.5
15.02
1.081
428.2
0.0219
651.5
7912
11.79
8.39
232.9
0.0401
143.5
96.22
4805
200.2
92.87
1016
70.37
147
1.245e+04
0.06704
0.1213
227
0.03347
309.4
28.44
0.08127
123.2
0.02386
0.3709
6337
18.61
124.8
165.4
5.805e+04
103.1
1.793e+04
2.501
0.02066
1.8e+04
205.5
0.09441
451.8
0.02734
39.49
0.02223
10.05
1.105e+04
13.77
35.57
124.9
210.6
0.02187
108.4
0.2397
23.47
1871
0.02473
133.4
3403
0.02159
0.0249
141.5
0.0732
84.15
8.579
5.114
84.66
1.577
23.78
0.0706
2.904
76.89
0.02109
0.1462
1534
5.915e+04
0.02086
487.3
1.69e+04
12.3
548.9
10.57
197.3
5.757e+04
0.05806
0.1116
216.6
0.0248
1265
44.21
29.51
6683
220.9
0.02434
208.1
8.88e+05
3.328e+06
178.5
252.9
217.7
2.186
19.57
27.07
34.73
1628
683.9
788.5
476.5
2.789e+04
29.97
5.047
0.0217
1915
5.005
50.21
0.1455
0.03781
219.2
190.3
8.395
0.02035
880.5
1785
124.6
422.2
17.03
6.264e+04
442.3
0.02601
282.7
2.313e+04
25.5
161.9
1.029e+05
0.01939
8215
2425
207.9
0.02756
28.91
12.85
1337
367.3
16.47
1993
0.03336
4.575
262.5
0.04882
13.3
0.02166
625.1
6676
186.8
2576
3.714e+04
33.27
2.154e+04
0.1079
2248
23.71
9.761
0.03413
9.749
61.09
23.46
153
0.06521
169.9
2.349e+05
6.279e+04
112.1
63.99
0.7174
0.7253
0.02185
0.02523
79.03
0.4141
0.02165
118.7
166.3
330.1
365.2
35.42
350.6
40.59
4863
6.685e+04
7.257e+04
0.08594
154.8
1.833e+05
10.69
6934
10.04
33.97
60.14
2.326e+06
21.6
31.21
0.04336
0.05009
1165
152.1
0.02173
0.02196
13.57
2004
17.27
167.3
3.851e+04
17.67
0.02374
1592
10.17
210.6
4991
1.15
7.453
34.19
113.1
2.209
111.4
0.02188
1908
8.906
1454
17.46
294.8
8023
8.64
1650
56.21
1611
178.8
6840
0.07227
12.71
76.2
36.83
810
242.2
1.334e+04
979.8
0.02164
317.2
10.18
1129
120.6
0.2672
15.91
0.07362
6649
0.04842
206.9
34.46
117.1
11.95
16.9
0.5409
6.426e+04
0.2133
0.02436
2074
0.0209
22.22
0.03025
2.702
10.55
0.02151
0.3648
280.9
4706
0.02176
0.02293
11.12
42.15
303.1
0.1632
54.25
90.88
1747
718.5
29.72
133.5
125
0.09014
143.9
6.626e+04
9.116
4487
575.3
9.687
5.701e+04
0.02173
0.0206
1.504
7.372
3.695e+05
0.02179
11.6
1660
3.356e+05
741.6
1003
0.01981
0.01953
488.8
124.8
97.52
216.5
0.03128
35.21
5.079
0.02222
1567
269.2
129.1
59.89
5911
8.483
9.101
0.01977
28.34
344.7
1451
796.4
101.4
1.72e+04
1440
50.52
152.2
465.9
119.6
0.06639
160.2
1.197e+04
0.02795
0.02646
601.8
294.5
1.381e+04
1.743
1350
156.5
0.1405
0.02173
22.55
0.02211
34.51
3.868e+04
38.64
0.1214
144.2
0.04351
2.438e+04
714.5
0.06569
33.39
30.46
141.3
36.78
195.1
134.5
66.36
40.3
65.2
38.83
13.02
2955
199.2
70.26
364
2.07e+04
220.2
1272
1349
3.06
2.196
51.61
2.101e+04
0.6897
189.8
0.02221
17.31
0.02214
186.6
8.409
2.139e+04
312.4
0.07915
3069
2.149e+05
2485
33.68
109
1562
5336
0.2654
39.94
57.9
1.375e+05
145
63.54
0.2798
0.2811
0.02174
18.63
1.708e+04
15.75
4194
12.28
0.07079
4128
0.01971
49.72
0.8762
18.71
2759
0.2082
8.331
8.511
0.03562
461.7
52.78
7.103e+04
2605
158.2
0.0214
69.23
120.3
1.174e+04
1295
66.36
7.91
72.56
0.02171
416
1413
12.79
84.16
31.34
5255
1057
726.8
101.3
0.6485
1.411
2.746e+04
9.274
0.06128
9.239e+04
0.06771
14.8
0.02173
0.02199
115.1
0.02186
1839
145
31.25
17.61
1025
4561
158.4
1888
145.5
16.95
5.936e+05
37.82
113.9
2.249
2.315e+05
11.21
1.872e+04
2.283e+04
0.04326
1703
1014
12.88
13.88
1.227e+04
732.1
2923
25.63
42.56
0.02582
8.419
0.02206
1.164
13.41
1188
76.22
55.46
3.793e+04
14.85
0.02184
417.9
51.6
21.17
86.8
49.78
209.4
876.1
3029
1.611e+04
470.9
271.6
1921
105.2
401.6
0.06391
2.896e+05
361.2
124.3
1.792
0.02157
275.1
482.1
19.64
12.53
1.74e+04
1403
325
79.7
54.56
4309
0.02162
1.622e+04
9.415
0.03446
87.62
860.5
0.02165
272.5
13.83
44.78
2.272e+04
36.7
88.09
2.325e+05
47.46
245
0.01967
0.01961
236.8
105
11.24
678.1
150
0.02151
5988
1462
29.86
0.02173
0.02184
35.28
57.55
246.7
7.852e+05
1004
0.02868
821.9
7.169e+04
0.08038
760.1
389.7
0.1049
2.63
3128
35.91
59.39
0.01963
0.01949
0.01946
0.02019
0.07795
34.37
51.84
1114
19.64
492.6
32.14
1986
0.02079
103.6
72.18
7292
1605
9055
454.9
101.5
359.8
25.47
176.8
0.09606
131.8
4.4e+05
308.5
6836
0.2659
356.8
0.02173
2.413e+05
99.39
462
16.8
0.03012
6.596e+04
0.02179
104.6
1128
0.04304
134.2
133.2
14.93
216.9
1.433e+04
0.03751
1232
0.02066
5.282
120.8
439.9
18.82
182.5
0.0215
0.0217
0.1614
1604
1705
0.2432
17.72
153.8
9.961
6727
387.2
14.2
9.878
30.53
82.06
0.158
1.108e+05
0.2307
0.02173
1.538e+04
0.02171
0.02166
0.374
0.1075
1.211e+04
16.98
2174
36.53
418.3
0.02187
0.08368
715.2
233.9
13.72
0.05557
0.2026
5.185e+04
7093
0.02213
1.334e+04
8810
3.719e+05
0.06826
12.18
15.13
0.0752
0.02321
11.86
241.7
4.721e+04
0.06645
842
2.548e+06
0.02174
471
3142
145.8
0.02178
1068
8.945e+04
1.47e+05
7.861e+04
0.8602
138.8
7.952e+04
0.04573
128.6
0.02153
16.73
1265
8.256
597.9
7.615e+04
0.2098
251.3
196.5
0.02225
0.02891
625.8
1626
10.25
1.587e+04
116
3.882
12.39
25.74
604.9
84.94
0.02175
42.07
36.56
238.6
653
371.9
587.7
588.2
1.003e+05
1.151e+05
1.426e+06
658.1
0.04548
1792
0.02433
1383
2638
0.02175
7.412e+05
0.02221
307.8
1.789e+04
4188
131.5
248
818.8
740.9
0.01963
6.548e+05
198.5
0.05779
11.62
207
1.142e+05
1.995e+04
2.295e+05
10.78
621.2
6402
15.48
0.06505
121.3
1.302e+04
0.02088
75.19
98.32
411
83.88
52.56
11.16
6139
159.5
219.2
1.825e+04
0.06657
3957
0.07495
92.13
371.2
0.02324
0.07465
80.1
964
376.5
9.635e+04
0.05578
0.02171
13.53
269.4
4746
42.85
7.922
0.01962
0.02799
1530
0.01995
562.1
522.1
0.0641
178.6
73.53
2.73e+04
1.027e+05
6.038e+04
0.03201
780.9
136.8
177.8
12.28
9.088
2.375e+04
15.72
1776
286.6
1.225e+04
212.8
6.131
4.917e+04
29.77
110.1
25.63
0.05119
94.56
0.1884
0.02182
54.97
548.6
83.34
211.8
73.26
1.881e+05
2.948e+05
10.39
2.179e+06
0.2775
0.5223
0.03009
0.04569
90.11
0.02221
780.8
8.62e+04
707.5
7478
46.1
43.08
322.9
106.1
13.35
829.3
16.86
8676
199.4
0.02582
222.5
113.5
0.02204
0.03528
2622
0.02185
226.2
250.8
281.9
23.46
4136
0.09603
31.95
0.0351
1012
2.094e+04
1202
100.2
0.02143
689.1
0.02154
0.443
229.4
42.13
5.727e+04
224.7
770.7
9.539
3778
0.5252
0.2046
23.83
569.9
0.02083
15.72
0.02185
1315
2606
281.6
103
0.02156
972.6
416.3
108.8
5.814e+04
246.1
3810
0.02274
31.02
11.41
8.629
364.7
48.93
0.07483
2.484
0.1126
113.1
120.4
0.02068
0.02025
0.02202
0.03373
0.1232
5562
755.9
0.02178
240.5
62.81
169.4
0.02194
181
0.05751
2618
0.09314
4.34e+05
141.9
3068
0.04315
0.08935
6.113e+04
0.02703
160.4
246.8
389.6
373.4
102
0.02181
260.1
789.8
74.65
119.7
38.33
19.4
37
133
1217
0.0215
17
84.56
7242
0.0921
0.02209
426.8
2191
23.02
21.18
33.87
1015
0.03893
52.66
1136
10.91
373.2
89.65
0.0257
17.51
6.327e+04
73.16
333.8
7279
2.474
25.45
0.02166
0.02655
0.1174
0.04577
5.859e+04
170.6
0.02195
0.02234
117.8
3.039e+05
0.02194
28.25
2.156e+04
162.6
19.88
205.9
2672
106.7
35.35
861.4
1.143e+05
3175
0.02183
70.27
46.14
135.9
0.02139
0.5345
252.4
31.78
570.3
7.491e+04
7251
15.2
990.1
1.197e+05
9.57
1079
26.09
3.714
2.215
2452
4.161e+04
0.02157
308.6
137.2
0.02193
7516
17
2.988
0.06359
48.56
831.5
397.4
123.1
0.02166
0.02176
12.58
343.5
0.02
23.37
0.02444
2777
10.6
16.22
546.6
2358
19
85.88
0.02139
7.324e+04
16.84
4513
562
0.06175
721
43.59
268.7
5.746e+04
7.925
5.368e+04
0.02075
0.02124
36.84
0.0446
0.02139
1.404e+05
209.4
480
6043
96.5
46.49
0.02787
1.362e+05
0.0398
141.7
0.02023
0.08866
124.9
57.23
61.56
42.81
8.886
1466
0.02046
59.36
6675
6784
9180
0.1209
58.45
35.09
0.02195
1495
429.5
0.6965
0.03898
163.7
5.911e+04
0.02189
0.0215
44.31
4189
10.91
2541
0.02206
9048
150
142.6
0.02208
0.06317
1137
337.1
3263
25.5
68.84
0.02044
843.1
0.03043
1158
9.584e+04
0.05735
247.2
10.92
1.418e+04
3.742e+04
1871
0.05083
0.02047
57.53
0.1541
0.02163
469.4
241.1
9.76
0.02032
0.06635
0.06523
0.02593
737.4
86.63
0.02173
841.9
147.3
2224
0.02565
0.02191
0.02162
0.05151
134.4
22.16
708.7
6.074e+04
3.597e+04
135.1
1.171e+05
5073
0.02276
5.176e+04
79.97
5143
8.93
0.1171
2.737
1.216e+04
1199
3450
614.1
0.04883
32.74
518.8
122.3
17.29
0.2103
391.9
0.1071
445.7
0.03584
41.06
42.59
22.35
0.1625
1157
1.127e+05
8120
0.02061
5.887e+04
44.92
0.01993
250.2
0.02181
2690
92.66
0.1173
478.7
536.8
0.0223
3.008
8.285
1.553e+04
0.02229
0.122
1.586e+04
12.62
0.02157
3790
41.99
0.03042
0.1152
15.93
185.5
7.109e+04
673.3
91.52
10.37
1673
0.5223
0.02169
0.03802
636.5
122.7
113.8
0.02207
1.625e+05
227.6
61.45
341.2
45.81
89.01
0.02017
0.05671
739.3
215.1
0.03782
158.1
806.7
9.335
2.268
8.926
9.961
0.03605
8.425
60.83
77.17
41.46
0.02205
1994
0.1628
49.62
20.79
8.589
6908
85.84
4.131e+05
15.23
0.4183
0.2478
0.02118
16.96
49.66
4696
1881
222.5
488.7
3830
37.78
0.4161
84.74
685.6
1.036e+04
37.66
0.03604
1917
1.55
1700
31
9.89
32.07
238.5
0.02179
357.9
0.2469
0.02164
2.14
1910
1.293
2.814e+06
719.5
1332
0.02165
37.7
228.6
0.04859
25.74
42.15
4510
529.7
4245
0.02188
128.7
0.02065
8.543
344.3
713.7
19.64
789.4
2.1e+06
0.02147
0.02174
89.83
187.2
1537
3.941
144.3
878.9
26.34
14.69
0.02178
457.7
2885
0.06034
34.73
0.02156
172.5
0.04804
73.25
447.4
130.5
0.3153
2893
118
0.02498
713.8
161.1
0.5518
0.02145
0.02255
489
4627
49.41
8.04
95.21
16.79
186.6
51.2
0.0194
0.1536
0.4668
1.148e+05
3703
2221
0.02134
660.5
150.3
3379
2201
2.486e+04
9.523
30.98
149.1
108
800
5333
23.28
0.07293
9.842
0.02987
2.109e+05
0.02231
13.99
571
65.31
14.75
673.3
60.18
1.548e+04
12.93
1075
57.6
12.33
470.3
1.111e+05
33.66
6.219e+04
3.377e+04
0.02174
6.883e+04
253.6
1765
3426
41.79
45.37
384.5
111.4
38.7
0.03487
14.37
17.62
123
33.66
83.71
0.4333
4.911
33.08
7.111e+04
52.38
1.15e+04
122.6
683
0.02027
893.9
94.71
5439
11.86
2.312e+04
383.2
339.4
0.07343
4459
0.06367
19.84
39.8
0.06823
1.57
25.72
52.14
210.9
415.2
33.38
201.9
46.66
2.273e+04
47.8
3.805e+05
0.03463
50.99
281
9.032
0.03935
689.1
0.02173
0.02193
0.02173
64.86
161.7
1353
14.81
0.07547
51.51
0.03723
3.767e+05
3210
6.782e+04
250.9
0.0544
945.5
6910
0.07395
2551
0.02186
36.47
8.599
988.2
34.74
0.02128
0.02138
143.9
9.112
0.03588
7.271e+04
176.7
0.02095
0.0218
91.54
0.03036
750.4
1.263e+04
0.03129
16.58
864.5
552.9
474.6
7.606e+04
35.42
0.1425
69.42
304.2
0.1115
399.8
78.38
1.678
824.7
138.6
2.207e+06
0.02672
143.4
1.167e+04
2026
0.02183
41.2
0.02176
13.25
63.72
99.45
37.48
333.9
108.8
0.1651
2107
3066
1180
1213
1013
71.89
13.39
107.9
361.3
27.7
488.4
0.02223
6.457e+04
2.051e+04
2326
65.43
27.24
2847
724.1
0.2911
0.3131
7.412e+04
185.5
0.05449
0.03167
0.05161
399.3
798.2
31.32
5225
63.13
0.03701
172.3
102
78.83
481.3
3.924e+05
1349
145.6
629.7
48.38
114
3755
73.26
17.61
9.343
2312
38.38
0.2477
65.54
805.1
0.07974
151.1
0.2641
17.26
7.513e+04
1240
0.02204
1014
15.59
2.848e+04
1824
0.02136
0.09519
842.3
0.02835
44.18
2455
951.3
9.165
0.02175
0.1864
12.41
17.3
0.08085
423
0.02077
680.5
27.83
623.3
636.1
82.88
86.32
459.9
931.2
0.1575
114.4
0.02181
1.014e+05
0.03377
0.03093
609.3
0.02178
29.75
11.19
1.349e+06
0.02196
146.5
214.6
566.2
388.9
0.2546
85.14
38.54
366.6
3920
40.5
0.06751
0.02194
468.7
697.8
22.29
89.29
1977
4768
0.7637
0.02113
60.7
298.9
1.561e+05
90.49
98.08
0.6081
230.3
0.0215
30.34
9001
1958
0.02197
0.212
1682
0.01979
117.7
2271
35.16
0.02195
0.022
8.215
0.02307
0.02013
0.02173
8.304
1439
2158
0.3774
162.2
18.26
16.35
0.02225
19.86
115.2
0.04154
0.6702
1849
12.98
0.02515
3098
58.22
7.878
6.458e+04
7.791e+04
0.02485
151.1
16.02
577.8
75.03
6718
0.02194
158.4
7.071e+04
11.02
659.6
0.8582
3303
71.89
201.7
29.16
2.851e+04
0.04934
2.213e+04
45.58
0.02532
0.02844
0.02006
387.1
31.17
4852
343.9
1.124e+05
0.06791
0.01942
205.5
223.7
0.06942
0.0218
1106
10.12
1866
56.49
2952
369
147.2
26.64
267.6
0.01972
3.59e+04
218.8
76.2
30.46
0.0631
0.02189
31.32
13.44
457.3
7357
68.82
0.03778
73.23
16.38
0.05652
0.02183
1792
203.5
9525
281.1
33.61
2.757
82.8
20.76
13.57
126.4
0.7764
0.132
0.02192
87.92
2.853e+04
27.68
0.4407
8400
0.5043
0.02168
20.22
0.02873
0.02203
43.81
0.01936
0.01932
9.193
0.02011
54.63
9.702e+04
593
12.83
0.1359
0.02113
0.02197
59.57
217.5
68.87
6.945e+04
17.09
0.03004
10.31
52.69
4331
1.252
0.02198
2.82
95.96
0.02203
0.02136
104.2
245.2
0.05
0.02787
95.95
0.0213
1.65
0.02148
3.923e+05
2.404
1555
9.599
0.02712
0.3543
8.886
26.58
801
20.42
105.6
13.81
0.02214
4.835e+04
18.24
223.7
0.02191
801.1
423.5
133.9
1173
0.2399
549.1
25.51
0.1383
6121
0.02205
8.498e+05
38.94
2.975e+04
0.02197
238.4
0.02173
0.07909
10.15
1.316e+04
14.15
553.6
16.23
0.1134
3460
0.1277
3229
5468
8.128
0.08532
0.05537
628.1
0.02162
7.966
31.41
49.75
40.32
0.02175
1.901e+04
0.03401
413.4
1075
71.11
2000
1.395e+04
22.4
1148
122.9
1.462
21.44
0.4638
0.02172
0.02181
987.7
12.09
2.221e+04
68.99
158.5
0.02179
90.36
0.02179
0.02169
0.03199
422.9
0.1048
16.93
0.03497
61.75
0.1866
91.96
290.8
2685
0.02476
466.6
382.3
127.8
0.1783
25.27
0.02187
114.6
0.4139
110.4
16.39
0.03278
249.1
1.499e+05
592.9
3117
32.55
3.967e+04
1918
3.551
95.37
2730
54.62
1.769e+05
741.7
35.52
86.4
170.7
51.26
2421
707.2
0.03868
28.28
0.09262
571
3.333e+04
114.1
3228
944.5
16.3
611.1
0.03334
251.7
52.67
8.16e+04
11.95
0.0223
27.46
24.76
169.5
0.05848
73.53
175.9
38.41
0.4835
463.1
83.57
1.466e+04
399.3
159.2
30.38
20.56
1676
0.02444
799.9
16.27
0.02348
114.1
116.1
589.5
942.7
282.9
0.02202
943.7
27.21
0.07411
3.005
672.4
2.507e+05
219.9
0.02084
0.02467
0.3756
521.7
92.28
0.0215
3.846
632.3
732.1
1.798e+04
0.02103
261.4
8564
83.42
1.927e+05
140.4
182.8
134.4
36.3
54.74
0.02319
108.5
7480
44.75
315.8
3.964
37.12
0.02162
0.07346
634.5
290.7
35.32
2454
136.5
0.0217
8630
119.3
0.1624
487.6
1.652e+04
2.661e+04
0.04196
0.1361
0.0244
131.5
7120
1038
2685
160.4
301.9
0.02181
90.97
5.054
9.174
1.168e+04
0.5823
6.954e+04
61.73
5330
0.03265
200.7
3513
0.02169
161.1
206.4
206.2
10.57
0.0219
0.02169
0.03828
48.67
0.0217
12.05
2.457e+04
0.1067
23.08
630.4
0.03751
103.8
12.02
0.2709
5026
120.2
2.089e+04
96.06
0.02173
402.8
6121
0.0217
1.386e+04
10.65
152.2
62.04
767.6
37.54
440.9
14.48
12.19
0.02194
13.33
0.02178
0.055
3006
149.1
88.05
70.56
1.9
285.2
0.02174
0.01965
0.05063
224.8
66.89
126.7
6.964e+04
16.9
0.7903
529.6
1.09
49.18
0.02135
1687
952.2
20.79
13.74
178.9
173
49.48
31.22
1.694
0.02242
154.7
23.64
143.3
4936
6.412e+04
756.1
0.02149
126.2
34.53
18.06
3.246e+05
0.02165
123.5
30.95
25.11
139.3
34.1
2.003e+05
134.2
48.46
930.3
8641
29.49
62.1
7229
4.237
0.02168
383.7
23.84
45.21
84.16
18.25
1.833
0.04473
1935
580.8
2477
25.8
1876
563.6
0.02171
354.6
60.7
104
14.52
0.01935
415
84.33
70.36
13.22
0.02133
846.3
13.32
14.44
104.8
201.7
171.7
63.15
740.2
652.5
0.01992
257.4
78.64
228.5
876
659
67.41
31.05
53.46
8.434
166.7
1414
6.597e+04
1370
549.5
3.759e+04
31.58
0.07683
9.055e+06
502.9
5160
0.03546
4853
4718
392.2
60.7
0.02191
2.39
0.02178
20.27
180.1
15.68
0.8441
14.93
1486
43.31
8.445e+05
15.72
358.1
2411
6.05e+04
877.9
284.3
24.1
0.08741
523.1
15.01
7.68e+04
188.5
0.3897
0.7439
4464
3.18
0.022
0.0217
60.18
96.39
0.03801
0.02017
0.02185
1844
495.9
3.605e+04
0.02155
0.03091
101.4
0.01976
0.01991
884.6
0.05439
154.2
929
0.05348
4906
27.69
77.28
7.977
44.11
0.04735
107.4
28.03
2.56e+06
61.02
1204
3266
4012
12.25
0.03084
10.06
1476
0.02171
10.48
360.3
1348
5.204e+04
562.9
61.49
1795
0.02442
390.9
9366
290.4
122
147.5
0.07151
63.84
15.02
6413
168.2
215.4
0.04819
2303
1031
0.03578
32.28
0.06684
42.39
0.02581
6275
6.649e+04
0.02739
1678
177.7
0.1529
1242
116.6
0.02227
2.268e+04
168.2
229.4
1692
0.03344
16.13
2.027e+05
109.8
1279
15.87
28.33
7.936
32.5
194
0.05833
5.737
101.8
172.8
51.03
20.12
83.52
16.91
186.6
944.2
118.3
14.58
2.593
0.0218
0.08962
1341
26.83
0.01936
8.378
71.66
14.41
194.3
115.7
76.38
0.09307
1834
117.4
0.1074
77.54
227.8
0.07239
1628
0.03866
2185
9.296
0.1798
0.06532
10.46
1365
88.67
0.02093
162.8
956.6
308.5
0.1929
0.02186
11.52
586.7
1873
40.31
91.44
12.92
1701
12.84
32.25
8.96e+04
9.661
4.642
1.813e+05
1235
14.07
19.4
0.02204
4.659e+05
0.02199
49.44
165.8
363.9
405.4
473.7
7.809e+04
9.454
41.81
25.71
1.099e+05
1002
16.26
1.68e+05
2.169e+04
932.3
197.8
0.1859
1.71
14.93
145
0.02187
659.4
8.228e+04
0.04327
127.3
17.23
21.49
1003
941.7
1.619e+05
4114
254.9
0.01954
0.01933
0.02178
1823
8019
0.4179
0.02158
0.1811
7379
24.18
1.79e+05
238.6
0.02201
1.549e+05
0.01938
5.253
11.98
0.03682
15.42
0.6283
4.289
0.05511
1068
28
101.3
145.1
9.504e+04
14.05
411.9
248.6
11
0.02213
2.538e+04
776.7
680.9
295.1
3292
555.6
372.9
0.05332
37.92
343.5
24.09
667.6
0.02909
1739
69.59
761.6
28.14
0.2293
0.3397
0.02179
308.7
69.12
308.4
808.4
11.53
2442
36.1
25.69
11.65
318.1
0.1833
3132
235.8
208.4
37.23
0.06474
24.39
0.0888
108.8
19.91
269.5
13.2
604.8
13.28
33.73
682.3
0.2186
6079
48.72
0.56
0.08858
1.427e+05
528.8
356.3
54.55
2.168e+04
0.02204
2.356e+04
1119
111.6
149.7
194.5
140.5
194.5
21.91
181.1
217.2
421.5
9371
0.07356
0.02186
0.02171
147.5
518.3
7.841
9.893e+04
353.1
3.482e+04
3618
142.1
6265
7.345e+04
24.36
889.3
1880
34.64
7.657e+04
0.02166
247.6
1200
1171
0.02157
1108
49.18
261.6
451.7
262.7
0.02168
12.14
306.9
2857
0.02089
493.5
10.48
0.1526
1.232e+06
0.03325
10.72
12.34
318.5
484.4
0.4455
32.76
6.622
520.9
1632
329
0.0194
16.56
2.629e+06
0.02507
0.02254
5453
3152
99.58
1624
0.06174
26.79
102.7
109.9
152.4
212.4
0.01999
32.92
9.518
0.1192
0.02199
41.68
0.0212
3.277e+05
31.23
3.644
8.015
5.196e+04
0.02167
358.9
0.02
0.02216
500.3
0.4893
3795
9.134
0.04025
84.32
1178
37.32
48.71
58.67
694
363.2
1518
1157
1595
1.637e+04
3274
99.38
756.6
383.8
240.4
0.2353
0.02113
0.02118
1.219e+04
17.76
983.2
1.71e+05
0.02179
846.2
1.099
0.02038
22.83
1.822e+05
8.319
887.5
1.008e+04
0.02206
1691
67.98
24.46
10.12
21.43
4809
308.3
0.02174
1.858e+05
5030
0.06281
0.02323
4401
466.6
1958
923.9
172
685.4
0.02169
667.9
0.02118
453.8
940.7
1.648e+05
0.01956
0.01935
0.1497
196.2
0.0306
20.25
6.216
19.31
42.8
144.7
394.6
0.04564
0.02642
7.134e+04
8.261e+04
160.6
1763
0.04674
1066
0.02216
170.6
4811
1890
8480
845.1
852.6
598.5
0.2888
23
47.42
0.02492
0.02176
0.02174
14.44
274.4
2371
1.206e+05
433.1
0.02427
1395
2858
788.1
1.31e+05
68.2
2019
898.4
281.7
0.05376
8.647
17.56
1.048
0.08302
2514
41.99
77.84
37.4
1207
0.3441
0.01973
6.957e+04
14.51
11.67
79.9
8.446e+04
18.33
0.02082
338.3
42.32
225.7
23.54
185.8
1352
4.295
268.3
12.42
0.06437
230.8
0.04326
0.07709
1.894
1295
41.56
3116
31.3
85.41
68.36
0.02806
184.6
550.1
0.2318
102.8
5.42
6.933e+04
0.02987
0.02353
212
196
202.2
44.74
8.586
8590
0.06587
0.02183
62.62
7141
0.02442
0.549
105.1
0.02159
7.408e+04
0.04959
75.5
122.1
170.1
1.617
1192
8484
7.194
0.06027
0.02172
27.75
87.12
229.1
21.08
0.02132
0.02019
0.02172
329.7
244.7
402.6
0.05358
2133
78.07
872.6
93.97
1799
0.5379
0.02995
1.509e+04
0.02185
2118
46.48
0.0298
166.9
247
1232
281.3
386.5
19.06
18.56
0.06992
8461
4461
6876
0.1756
0.7276
0.02168
7.487e+04
0.02159
698
6355
0.02209
14.3
130.1
925.4
0.08174
18.63
5.017e+04
23.28
0.02166
22.78
869
73.41
230
18.53
58.98
5.844e+04
11.21
0.0207
0.02257
4.211e+04
50.54
625.6
8.66
96.19
0.02117
0.02193
7.246
2.727e+05
6439
1097
553.6
2.706
502.3
5837
330.2
587.4
0.02189
1541
8.193
809.1
28.3
24.03
0.0216
1587
17.69
5.906e+04
6.216e+04
10.09
33.42
4.424
4061
0.02709
9.262
6.198e+04
1379
442.4
7133
2.535e+04
562.3
239
0.1112
2527
699.9
2489
89.55
0.02617
4123
2.552e+04
0.02172
511
1.36e+04
1094
2379
59.74
25.42
268.4
81.12
0.03319
171.2
0.02211
186.6
0.09606
5.582e+04
0.1165
1.575e+04
90.14
695.6
16.92
16.1
1618
11.32
301.5
2922
107.8
68.67
9.2
55.89
201.8
2518
75.7
0.02433
101.4
47.21
443.9
325.1
195.7
957.5
79.06
0.02488
89.74
8.855e+04
24.52
12.6
335.5
0.03941
67.42
0.02156
105.8
2.271e+06
3.325e+05
1493
45.33
77.09
0.021
0.05254
32.64
41.56
128
19.79
0.0218
29.74
132.2