/*--------------------------------*- C++ -*----------------------------------*\
  =========                 |
  \\      /  F ield         | OpenFOAM: The Open Source CFD Toolbox
   \\    /   O peration     | Website:  https://openfoam.org
    \\  /    A nd           | Version:  8
     \\/     M anipulation  |
\*---------------------------------------------------------------------------*/
FoamFile
{
    version     2.0;
    format      ascii;
    class       surfaceScalarField;
    location    "15";
    object      phi;
}
// * * * * * * * * * * * * * * * * * * * * * * * * * * * * * * * * * * * * * //

dimensions      [0 3 -1 0 0 0 0];

internalField   nonuniform List<scalar> 
189008
(
3.291e-08
-3.291e-08
4.215e-09
-4.215e-09
8.45e-09
-8.45e-09
1.224e-08
-1.224e-08
-1.148e-06
1.148e-06
1.251e-08
-1.251e-08
4.599e-06
-4.599e-06
-1.746e-06
1.746e-06
-1.056e-06
1.056e-06
5.59e-07
-5.59e-07
5.423e-06
-5.423e-06
-2.034e-06
2.034e-06
-4.579e-09
4.579e-09
-1.379e-08
1.379e-08
1.187e-06
-1.239e-05
1.12e-05
2.901e-06
-3.3e-06
3.991e-07
-2.742e-08
2.742e-08
0.003254
-0.003744
0.0004899
-0.001164
0.0006235
0.0005406
-3.457e-06
3.712e-06
-2.55e-07
0.000457
-0.0003853
-7.163e-05
-3.608e-08
1.509e-08
2.099e-08
-0.003235
0.01035
-0.007114
1.234e-05
0.0002801
-0.0002924
-2.618e-08
-9.899e-09
-0.0001331
7.553e-05
5.757e-05
-9.87e-06
1.086e-05
-9.888e-07
-1.088e-05
1.005e-06
0.000103
-8.079e-05
-2.22e-05
0.006291
-0.01503
0.008739
-2.479e-05
-0.0001141
0.0001389
-3.553e-05
-9.757e-05
2.489e-05
-1.723e-05
-7.664e-06
-2.526e-05
1.524e-05
1.002e-05
0.01148
0.01084
-0.02232
7.174e-06
1.772e-05
2.945e-05
0.0001772
-0.0002067
-0.0009881
0.001439
-0.0004506
-2.75e-05
0.0003488
-0.0003213
-2.61e-05
2.969e-05
-3.588e-06
-0.0008086
-0.0003555
0.001939
-0.003764
0.001824
0.000528
-0.004506
0.003978
1.31e-08
-1.31e-08
0.001732
0.001522
-1.337e-05
-1.189e-05
6.847e-05
3.453e-05
-0.0003804
0.000394
-1.364e-05
-0.0004831
0.0005798
-9.671e-05
-1.795e-05
0.0002791
-0.0002611
1.009e-06
1.892e-06
-0.01401
-0.03048
0.04449
-3.029e-05
-2.464e-05
5.494e-05
-0.01277
0.0113
0.001471
1.083
-0.1281
-0.9544
0.0005512
-0.000446
-0.0001052
-0.1466
1.229
0.01216
-0.007553
-0.004607
-0.3123
0.01857
0.2938
-0.005607
-0.007162
-0.00232
0.00012
0.0022
-0.0003027
0.0006353
-0.0003327
-0.0001736
0.001366
-0.001192
-0.81
0.955
-0.145
-1.795e-05
4.083e-05
-2.288e-05
-0.0003141
-0.003204
0.003518
-0.02863
0.02275
0.005881
0.001615
-0.001344
-0.0002712
0.0004528
0.001162
-1.277
0.4804
0.7971
-3.963e-05
-0.000172
0.0002117
4.166e-06
6.693e-06
-0.0008116
-0.0004795
0.001291
-0.1156
-0.1968
-0.2735
0.5158
-0.2424
-4.438e-06
-6.437e-06
-0.05157
0.09166
-0.04009
-0.0003346
0.0003159
1.867e-05
0.0002974
0.0002539
0.1599
-0.6341
0.4742
-0.0001001
7.788e-05
2.222e-05
-1.5e-06
-1.958e-06
2.465e-05
2.85e-05
-5.315e-05
5.233e-06
2.334e-05
-2.857e-05
0.0001047
-0.0002763
0.0001716
-0.0001926
0.0003101
-0.0001175
-0.0004258
0.0008
-0.0003742
6.078e-07
-7.018e-07
9.402e-08
-0.003138
0.002824
-0.0003514
0.0006153
-0.0002639
0.1859
-0.02126
-0.1647
-0.005434
-0.006152
0.01159
-0.0002727
0.000896
-0.0006233
0.0002638
0.0001931
0.000137
-0.0001391
2.068e-06
0.02849
0.01466
-0.04314
0.003359
-0.001419
0.0001372
-0.0001388
1.526e-06
-0.0002675
-4.888e-05
0.0003164
-0.01886
-0.00977
0.6862
-0.5263
-2.801e-06
-0.0004803
-5.111e-05
-0.000164
0.0002151
0.00438
-0.005317
0.0009369
7.451e-05
-0.0002671
-0.000349
8.158e-05
-0.000858
0.001222
-0.0003641
-1
-0.2773
-0.001224
0.0006114
0.0006126
-1.154
0.8761
0.2778
2.892e-05
-2.773e-05
2.076e-07
4.003e-07
-0.0002879
3.949e-05
0.0002484
0.0007177
-0.001067
0.0003497
-0.2119
0.09588
0.116
0.0006303
0.002522
-0.003152
-0.1067
0.05827
0.04841
0.1657
-0.4392
0.02309
-0.07466
2.811e-07
-2.242e-07
-5.69e-08
-1.253
0.09886
1.444e-05
2.567e-05
-4.012e-05
-0.0003936
-0.0007293
0.001123
0.01403
-0.012
-0.002025
-6.686e-05
-3.325e-05
9.433e-05
-8.773e-05
-6.597e-06
-0.0003694
-0.0001926
0.000562
0.08787
-0.1029
0.01504
-0.0001303
5.21e-05
7.818e-05
-0.0003778
0.0003068
7.099e-05
0.0002099
-6.547e-05
-0.0001445
0.0001253
-4.85e-05
-7.676e-05
-0.0003407
-0.001156
0.001497
-0.0001382
-0.0001964
6.733e-08
-5.274e-08
-1.459e-08
0.0002212
-1.122e-05
-0.004703
0.03612
-0.03142
-0.0001425
0.0002977
-0.0001552
-9.94e-05
0.0001141
-1.466e-05
0.03385
-0.05503
0.02118
0.0092
0.0002984
-0.009499
-0.04772
-0.04233
0.09005
-8.224e-05
0.000119
-3.675e-05
-0.0003642
0.0002263
0.0001379
-5.896e-05
2.867e-05
0.001516
-0.0006018
-0.0009139
-2.611e-05
-9.672e-06
3.578e-05
-0.02782
-0.7822
0.000155
-2.971e-05
0.0001441
-0.0002098
6.57e-05
0.002582
-0.003799
0.001217
0.0006977
-0.0001952
-0.0005025
0.003038
-0.003747
0.0007085
-0.008952
0.0002659
0.008686
0.0001552
-0.0003302
0.0001749
0.0002613
-0.0001566
0.008045
0.004115
0.000382
-0.0003138
-6.825e-05
-6.957e-05
-0.0003108
5.998e-05
-0.000114
5.407e-05
-0.0001588
0.0002906
-0.0001318
-1.605e-05
1.605e-05
0.1921
-0.006137
0.000266
-8.066e-05
-0.0001853
7.071e-05
-0.0001505
7.981e-05
1.435e-05
-3.229e-05
-0.0001756
1.712e-05
0.0001585
0.0001263
0.001631
-0.001758
-0.0001686
0.0001364
3.221e-05
-0.04175
0.03379
0.007958
5.985e-07
2.527e-06
-3.126e-06
-0.0001913
-0.0001729
-0.004594
0.001931
0.002662
-0.002727
0.0008648
0.001862
1.021
-1.194
0.1731
-6.305e-05
4.315e-05
1.99e-05
-0.0008171
0.0004343
0.0003829
-7.053e-05
-5.975e-05
-0.0002509
0.0004846
-0.0002337
0.1198
-0.1479
0.02804
-0.001781
-0.0009457
-0.1226
-0.00247
0.1251
-3.061e-05
3.989e-05
-9.279e-06
-4.177e-05
-2.128e-05
-0.0001612
-0.0002166
0.0003009
-0.0006036
0.0006438
-0.007087
0.006444
-0.0001436
0.0008614
0.0002989
-0.0002865
-0.004747
0.08589
-0.08114
-2.911e-06
6.477e-05
-6.186e-05
-4.77e-05
-9.86e-06
5.756e-05
-0.04368
0.03897
0.0008268
-0.0009651
0.0001383
3.991e-08
0.0001338
0.0004143
-0.000548
-1.47
1.199
0.2711
-1.463
1.193
0.2701
8.505e-07
1.498e-07
-1e-06
-0.1669
0.1322
0.03476
0.2044
-0.03799
-0.1664
-0.05817
0.04886
0.009317
0.02699
-0.06991
0.04292
0.0001855
-0.000156
-3.422e-08
3.422e-08
0.0002229
-0.0007591
0.0005362
0.02614
-0.007665
-0.01848
0.002773
-0.0006468
-0.002126
0.02822
-0.02193
-0.2087
-0.003202
0.002527
-0.02145
0.01892
-0.0002786
0.0002035
7.507e-05
-0.05982
0.2028
-0.143
-7.648e-05
-9.212e-05
2.738e-06
-8.537e-05
8.264e-05
7.274e-07
-9.516e-07
2.243e-07
-4.431e-06
4.005e-06
4.261e-07
0.003498
-0.002104
-0.001394
-4.871e-05
0.0001726
-0.0001239
0.02218
0.003962
-0.0007115
0.0002778
0.0004338
-0.4709
0.2221
0.2489
0.0006158
8.193e-05
3.753e-05
-4.18e-05
4.271e-06
5.555e-05
3.115e-05
-8.67e-05
-8.347e-06
6.846e-06
1.501e-06
-0.0001279
0.0001986
0.0004404
-0.001429
2.909e-05
-2.998e-05
8.872e-07
0.0003806
-0.0003483
-3.23e-05
-0.0003969
0.0001023
0.0002946
-0.04754
-0.07509
-0.001331
0.0005192
-3.229e-07
3.935e-07
-7.06e-08
-0.0002437
-0.0001532
-0.02381
0.01878
0.005031
8.267e-05
0.0001833
2.329e-07
-2.329e-07
0.2258
-0.02138
-0.0001241
2.957e-05
9.451e-05
-8.506e-05
3.736e-05
-2.826e-05
5.857e-05
-3.031e-05
0.0002646
-0.0001832
-8.14e-05
0.0001866
0.0001954
0.0003022
5.547e-05
-0.0003576
1.82e-07
9.913e-08
0.0006944
0.0003026
-0.000997
1.133e-05
-1.025e-05
-1.08e-06
1.181e-06
-1.181e-06
0.1971
-0.9679
0.7708
-0.0004584
-0.00185
0.002309
-3.501e-05
8.584e-05
-5.083e-05
0.002253
-0.001067
-0.001187
-0.000417
0.0001448
0.0002722
-0.0001016
0.0004531
-0.0003515
0.0006846
-0.0004016
-0.0002829
0.1166
-0.0287
5.385e-05
-0.0001825
0.0001286
-0.0001993
0.001437
-0.001238
-0.00913
-0.000821
0.009951
0.0006575
-0.0003608
-0.0002968
-0.06504
0.09759
-0.03255
-0.01405
0.008616
-0.08798
0.04026
-2.873e-05
-0.0001755
0.0002042
-4.359e-06
-3.575e-05
4.011e-05
3.982e-05
-7.829e-05
3.847e-05
9.653e-05
-0.0002421
0.0001456
-0.001014
-0.0007388
0.001753
0.00287
-0.005752
0.002882
-0.0001838
-5.514e-06
0.0001893
0.8565
0.1645
0.0003803
-0.000478
9.769e-05
-0.0001267
2.584e-06
0.001084
-0.001841
0.0007571
7.722e-05
-8.013e-05
-0.0001583
-0.0001296
0.0006808
-0.0007881
0.0001073
-0.3774
-0.433
0.8104
0.0007725
0.001292
-0.002065
-0.5426
-0.351
0.8936
0.04474
-0.01625
0.004426
-4.584e-05
-0.09052
-0.1659
0.2564
0.04518
0.121
-0.1662
8.731e-08
-2.742e-08
-5.989e-08
-0.0002031
0.000166
3.708e-05
-0.07476
-0.102
0.1768
0.0007917
-0.0005806
-0.000211
0.1733
-0.05349
-3.994e-05
0.003078
-0.002444
0.00544
-0.002996
-0.01102
-0.01278
0.0009992
0.001376
-0.002376
-0.2065
0.2375
-0.03103
-0.0005154
0.0008709
-0.0003556
-0.000107
-7.233e-05
0.0001794
1e-05
2.28e-06
-1.228e-05
0.0001027
0.0001618
0.003928
-0.001058
-7.661e-05
-0.0001251
0.0002017
-0.003955
0.001149
0.002806
-0.001198
-0.00179
0.002988
0.003718
-0.003088
-4.613e-05
7.771e-05
-3.158e-05
0.0005332
0.000112
-0.0006453
0.002531
0.000242
-0.1833
0.1235
0.0002519
-3.711e-05
-0.0002148
-0.0032
0.003235
-3.538e-05
0.000932
7.498e-05
-0.001007
-2.765e-07
4.767e-06
-4.491e-06
-0.0003568
0.0002408
0.000116
-0.8566
0.314
-0.2575
0.134
0.1234
0.0002863
0.0001265
-0.0004129
0.0005322
-0.000505
-2.719e-05
-6.191e-05
-9.909e-05
0.000161
0.0182
-0.009277
-0.008925
0.1944
-0.1844
-0.009976
0.009088
-0.01232
-0.0001965
-1.221e-05
0.0002087
0.09537
-0.05318
-0.0422
0.001588
0.0006652
0.000449
-0.0001626
1.489e-05
0.0001896
-0.0002045
-0.01658
0.03204
-0.01546
6.575e-06
-4.141e-05
3.484e-05
0.000355
-0.0001336
-0.0002214
-0.001773
0.0005308
0.001242
-0.0008377
0.0004815
0.0003562
0.1937
-0.1485
-0.006023
0.0175
-0.5006
-0.9694
-0.4981
-0.9652
-0.01085
0.001895
-0.000997
0.0008096
0.0001874
-0.004388
-0.0002062
-0.0003049
-0.0005328
-1.396e-05
-0.0001301
0.0001441
-0.01254
0.0464
0.002392
0.001106
5.705e-05
-3.07e-05
-2.635e-05
-1.457e-05
-3.624e-05
5.081e-05
-0.0004399
5.88e-05
0.0003811
0.0002188
0.0005729
-6.743e-05
2.823e-05
3.92e-05
0.0001384
-0.0001704
3.202e-05
0.000262
-0.000187
-7.5e-05
2.136e-05
-9.486e-05
7.35e-05
-0.0003573
0.0002862
7.107e-05
0.0004865
-0.0005605
7.396e-05
-1.897e-06
5.529e-05
-5.339e-05
6.265e-05
-0.001669
-0.02734
0.029
-9.074e-05
8.075e-05
9.989e-06
-0.0003169
-0.0001001
-0.0001986
-0.001175
0.001373
0.3008
-0.4091
0.1084
0.0003144
4.065e-05
0.0002265
-0.0004292
0.0002027
-0.001612
0.001438
-0.003759
-0.004065
0.007825
0.0005409
-0.0005639
2.299e-05
-5.116e-05
0.0004004
-0.0003493
0.3808
0.1362
-0.517
-0.1187
-0.04828
-0.1712
0.24
-0.06881
-2.75e-05
3.261e-05
-5.106e-06
0.4308
-0.8082
-0.001488
0.001505
-1.72e-05
0.06025
0.03512
8.292e-05
-0.0001179
3.899e-05
-0.0003215
0.0002825
0.1168
-0.1215
0.03082
-0.01363
-0.01719
-8.274e-05
0.0003529
-0.0002702
1.912e-07
1.555e-07
-3.468e-07
-0.0002364
0.0004311
-0.0001947
0.9216
-0.6909
-0.2307
0.001309
0.002618
-0.003927
2.189e-05
7.244e-05
-0.0003713
0.0002724
9.881e-05
0.006332
-0.004848
-0.001485
-0.08594
-0.02074
5.808e-06
7.934e-07
-6.601e-06
0.01626
-0.02051
0.004246
1.481e-06
-2.758e-05
-0.0003837
0.0005388
-0.000155
8.04e-05
-0.0008124
0.000732
0.2459
-0.2554
0.009407
0.005847
-0.005022
-0.0008252
3.791e-06
-1.584e-05
1.204e-05
0.0001357
0.0003302
-0.0004659
-0.0003913
0.0004304
-3.912e-05
-7.097e-05
0.0001428
-7.182e-05
0.003855
0.001992
-0.0001674
0.0001426
-0.02292
0.02125
0.00942
-0.07446
3.046e-05
-4.969e-05
1.924e-05
-0.5078
0.0369
-0.0004025
-2.494e-05
0.0004274
-5.46e-05
2.399e-05
-0.0004959
0.01676
-0.00447
0.003549
0.0009204
-0.0001062
0.0003819
-0.0002757
-0.002126
0.002102
2.381e-05
0.1111
0.4877
-0.5988
0.0002641
-0.0005149
-0.000274
-0.000193
0.000467
-0.0003103
-3.372e-06
0.0003137
0.001212
0.007988
-3.166e-05
-0.000266
0.0002977
-0.001084
0.0006903
4.832e-05
8.868e-05
-0.0003972
0.0003373
5.993e-05
-0.0002184
3.465e-05
-0.0001551
0.002403
-0.002248
-0.0006491
0.000113
0.0005361
-0.000202
2.643e-05
-1.245e-05
1.156e-05
8.854e-07
-0.000105
0.0001122
-7.217e-06
-0.6755
0.8725
0.0005181
-0.0001376
0.008311
-0.01095
0.002643
-0.003681
0.004209
-0.01219
0.0007027
0.01148
-4.035e-05
1.209e-05
-0.01096
-0.007237
0.0182
-1.275
1.436
-0.1617
0.0001398
-0.0001413
1.556e-06
-5.235e-05
-2.811e-05
8.046e-05
0.006638
0.01132
-0.01796
0.003147
-0.003032
-0.0001153
0.5727
-0.1919
0.001049
-0.002077
0.001028
-1.403e-05
6.118e-05
-4.715e-05
-0.06016
0.04615
-0.02539
-0.1811
0.7013
-0.6553
-0.04597
0.0004081
-0.0004261
0.06613
-0.03001
-0.0003496
-0.0001134
0.0004629
0.05181
-0.05491
0.003103
1.834e-05
0.0001189
-0.009987
-0.1342
0.1441
0.0004081
-0.0002998
-0.0001083
0.05432
-0.2255
-0.0001407
-0.0001379
0.0003429
-0.0003761
3.317e-05
-0.0003957
0.0002322
0.0001635
-0.001357
0.003039
-0.001682
-1.597e-05
3.04e-05
-1.443e-05
-0.01948
0.007789
0.01169
0.000305
-0.0001618
-0.0001432
0.0001613
5.109e-05
-0.0002124
5.414e-05
-5.915e-06
-4.823e-05
0.0003457
-8.305e-05
-0.0002626
0.0001621
0.008016
-0.008178
-0.002492
0.002151
-3.421e-05
-6.397e-06
4.061e-05
0.0001258
7.801e-05
-0.0002038
0.001982
-0.0017
-0.0002815
1.782e-05
-5.203e-05
0.3528
-0.943
0.5901
0.119
-0.0004326
-0.1186
-0.0003024
0.0001247
0.0001777
5.411e-05
-5.837e-05
4.26e-06
-1.539
0.1226
1.416
0.0005399
-0.00033
-0.0002099
-0.002429
0.01185
-0.009422
0.005093
0.008937
5.468e-05
0.0004775
0.03122
-0.01701
-0.01422
1.412
-0.2683
-1.144
2.609e-05
-0.0002083
0.0001822
-0.01176
0.009334
4.594e-05
-4.051e-05
-5.429e-06
-6.291e-05
5.025e-05
1.267e-05
8.907e-05
-6.365e-05
-2.542e-05
0.0003376
-2.644e-05
-0.0003112
-5.262e-05
7.427e-06
4.519e-05
-0.0002073
-0.0001495
-0.0007058
7.264e-05
0.0006332
0.0009543
0.002193
0.000202
-8.388e-05
-0.0001182
-0.1253
0.2552
-0.13
-9.837e-05
0.0001583
-0.1022
0.08382
0.01841
0.0007182
-0.0005875
-0.0001307
0.0004129
-0.0008387
8.257e-05
-6.894e-05
-1.363e-05
0.0002646
-0.001505
0.001241
-8.422e-09
-2.58e-08
-0.0002216
0.0001067
0.0001148
-0.0002813
0.00075
-0.0004688
0.03062
-0.01836
-0.01226
0.001907
-0.002409
0.0005024
-0.2871
0.2315
0.0556
6.587e-05
2.32e-05
0.1165
0.002502
0.0001353
1.693e-05
-0.0001522
0.0004726
-0.0003389
-4.845e-08
4.845e-08
7.354e-08
-1.977e-08
-5.378e-08
7.703e-08
-7.127e-08
-5.765e-09
1.196
-0.8184
-0.3779
-4.532e-05
-4.542e-05
3.792e-05
0.0004233
-0.0004612
-0.145
-0.1125
-0.0005305
6.594e-06
0.0005239
-0.0002762
0.0008553
-0.0005792
-0.0001543
0.000168
-1.361e-05
0.003432
-0.0002987
-0.003133
-3.803e-06
0.0003467
-0.0003392
-5.654e-05
0.0003351
0.0002048
1.101e-05
-1.021e-05
-8.002e-07
-0.4372
0.79
-0.0002197
0.0001285
9.123e-05
-3.131e-08
2.911e-08
2.202e-09
0.0004011
-0.0004551
5.403e-05
0.0001956
-4.397e-05
-0.0001517
4.589e-06
-3.991e-06
0.06349
-0.179
0.003432
-0.0008501
-0.05113
0.07812
-2.995e-05
0.0001557
0.04259
0.2464
-0.289
-0.0001498
3.517e-05
0.0001146
-3.868e-05
-5.828e-05
9.696e-05
3.183e-05
-3.014e-05
-1.689e-06
1.526
-0.9018
-0.6238
-0.000236
-6.635e-05
0.009477
0.003944
-0.01342
-7.828e-07
6.25e-07
1.578e-07
-0.0006324
-2.429e-05
0.0006567
0.0001127
-7.983e-06
-0.0001048
0.0002034
-0.0001448
-5.865e-05
-0.1073
0.1025
0.004728
1.52e-05
-6.752e-05
5.232e-05
0.0009062
0.0007033
-0.00161
-0.8033
-0.7358
0.002377
-0.004906
-4.149e-05
0.004947
-0.0002179
0.0001108
0.0001853
0.0003557
4.13e-07
5.369e-05
4.263e-05
-6.701e-06
-3.593e-05
-0.0004824
9.866e-05
-0.003107
0.00373
-0.0006224
0.000688
5.783e-07
-0.0006886
0.0001053
-0.0002128
0.0001075
3.756e-05
0.0001022
0.1127
0.05527
-0.1679
-3.849e-05
2.862e-05
9.875e-06
2.834e-05
-0.000161
0.0001326
0.0002356
-0.0002602
2.466e-05
0.0009367
-0.001985
0.001049
0.000112
-0.0002045
9.25e-05
-0.7909
0.1141
0.6768
-0.7883
0.6297
0.1586
0.002451
-0.01158
-6.311e-05
-4.312e-06
-0.0005366
-0.001294
0.001831
0.1382
-0.2085
0.07025
1.473
-0.649
-0.8237
-0.001451
0.002356
-0.0009044
0.0001745
-0.0002545
8.003e-05
-0.0004633
0.0001838
0.0002795
-0.000683
-2.279e-05
3.063e-05
2.616e-06
-3.325e-05
-1.302e-05
1.213e-05
8.934e-07
-0.003088
0.002948
0.0001402
-0.1413
0.1002
0.04109
1.4
-1.277
-0.1228
-3.631e-05
1.812e-05
1.818e-05
-0.0001036
-0.0002095
0.0003131
0.0004925
-0.001512
0.001019
0.3137
0.5221
-0.8357
3.814e-06
7.52e-06
0.002299
-0.00268
0.0003804
-0.0001016
0.0001002
1.439e-06
0.4886
-0.0001651
0.0001886
-2.355e-05
-0.02721
0.1654
0.0001781
-0.0002843
-0.0001008
3.817e-05
6.268e-05
0.001033
-0.0009179
-0.0001152
0.9786
0.1618
-1.14
-1.237e-05
-4.617e-05
5.854e-05
0.00046
0.0001975
-3.861e-05
2.257e-05
0.391
1.021
0.0003518
-0.00121
-3.301e-06
-1.13e-06
0.3952
0.3061
-0.00171
-0.00276
-0.1646
0.005211
0.1594
-0.000244
-0.0002814
0.0005254
0.0002074
-8.795e-05
-0.0001194
-0.2801
0.1896
5.221e-05
-4.75e-05
-4.71e-06
0.0001413
0.0002558
-0.0003971
-8.394e-07
8.289e-06
-7.449e-06
-5.187e-05
-4.487e-05
9.673e-05
-7.787e-05
3.088e-05
4.699e-05
-0.0001041
-0.0002531
-0.0001229
-0.0002483
4.119e-05
0.0001829
-0.0002241
0.0004187
-0.0004462
0.0006276
-0.0009003
0.0003668
-0.0005659
0.0001991
6.683e-05
-7.526e-05
8.426e-06
1.839e-05
2.172e-06
-2.057e-05
0.0001587
-0.0001182
-4.048e-05
-0.6
0.9137
0.000422
-0.0002934
-0.0001286
0.1081
-0.1941
0.08605
-0.0004972
5.725e-05
-0.1244
0.03484
0.0896
4.848e-05
-0.0001307
-0.3422
-0.9326
-0.1525
0.07771
-0.002554
-0.005083
0.007637
-0.0003202
-0.0003289
-0.0001688
-0.0001297
0.0002985
-1.04
0.128
0.9122
1.107
-0.899
-0.2079
4.599e-05
-1.689e-05
1.232e-05
5.131e-06
-1.745e-05
-2.541e-05
5.006e-05
-0.0002505
9.222e-05
0.0001583
0.0006643
-0.0002226
-0.0004418
0.0002831
-0.0006326
-0.0002926
0.0004323
-0.0001397
-0.0006996
0.0004256
-8.112e-05
4.488e-05
-2.615e-05
6.997e-05
-4.381e-05
-1.804e-05
-5.067e-06
2.311e-05
-1.16
0.1202
1.635e-05
4.136e-05
-5.772e-05
1.647e-05
-7.535e-05
5.888e-05
-3.564e-05
-0.004983
0.005019
0.009475
-0.00588
-0.003595
0.1783
-0.2395
0.06122
1.03
0.443
0.0003663
-0.0003514
-5.963e-06
-9.344e-05
5.426e-05
0.0001478
3.142e-06
-2.105e-06
-1.036e-06
-0.07641
-0.04804
-0.9855
-0.4035
1.389
-7.583e-05
-5.399e-05
0.0001298
-7.056e-05
1.352e-06
6.921e-05
-0.05099
-0.007184
1.105e-05
1.326e-05
-2.43e-05
0.01441
-0.002174
-0.01223
-0.03492
0.08767
-0.05275
-8.954e-05
3.221e-05
5.732e-05
0.002291
-0.002825
0.0005343
-6.515e-05
8.162e-05
0.004425
-0.009097
0.004672
-2.318e-08
2.318e-08
-1.052e-05
2.178e-06
4.879e-05
0.0002969
0.0002233
8.175e-05
-0.0001069
-9.619e-05
6.333e-05
2.494e-05
-8.827e-05
-0.0001588
-6.276e-06
-3.309e-05
6.085e-05
-2.776e-05
0.0559
0.00705
-0.06295
0.0001101
-3.897e-05
-7.114e-05
1.072e-06
4.137e-06
-5.21e-06
-8.399e-05
-0.0003185
0.7437
-1.068
0.3245
0.0008258
-0.000145
-0.004643
0.004088
0.0005553
0.00113
-0.002943
0.001813
1.076
0.4497
-0.02571
0.7694
4.52e-07
-4.492e-07
-2.782e-09
0.02329
0.007324
0.0002144
-0.0003725
0.0001581
4.682e-05
-4.907e-05
2.251e-06
-0.0003016
0.0005297
-0.0002281
0.0002521
-2.072e-07
0.004126
0.002943
-0.00707
0.0001234
-6.789e-05
0.003281
-0.006483
0.003202
0.0006101
-0.0005209
-8.916e-05
-0.1495
-0.1993
0.3487
1.05
-0.04447
-1.006
-0.002263
-0.0004811
0.002744
-0.000881
0.009192
9.389e-06
-3.689e-05
-0.001801
0.002931
0.0001941
-0.0002152
2.112e-05
0.0007621
-0.0002504
-0.0005118
0.0002074
0.0001201
-0.0003275
-0.02049
0.02302
0.004038
-0.007797
-1.125
-0.386
1.511
-6.269e-05
0.0001175
-5.481e-05
0.02272
0.008502
-0.0006451
0.0004888
0.0001563
3.886e-08
-0.002235
0.0006482
0.001587
-0.000419
0.0003903
0.000149
-0.0003854
1.257
-0.2787
-0.00144
0.001631
-0.000191
-0.0002039
-0.0003112
0.0005151
-7.348e-06
7.594e-06
-2.458e-07
-0.0004581
-0.0001279
0.0005859
0.000246
4.157e-06
-0.0002501
-5.866e-05
-2.246e-05
-7.145e-05
0.0002156
-0.0001904
-0.0002068
9.969e-05
-0.0003315
0.0002318
0.0004485
0.0002588
-0.0007073
0.0003802
-0.0004819
0.001032
-0.001754
0.0007224
-0.003412
0.0002124
5.17e-05
-0.0004211
0.003097
-0.005936
0.002839
-6.756e-08
6.756e-08
-0.0009747
-0.003668
-0.06615
0.0244
0.0001419
-0.001104
0.000962
0.0001646
0.0002941
-0.0004586
1.944e-06
0.0007077
-0.0007097
0.1016
0.3721
-0.4738
-2.587e-05
1.788e-05
7.989e-06
6.843e-05
0.0004181
-0.0004158
-4.751e-05
-1.511
0.5254
8.141e-07
2.328e-06
-0.0001309
2.59e-05
0.0001637
-0.0001873
2.363e-05
-0.388
-0.6375
1.026
3.705e-06
-3.679e-05
8.808e-05
-0.0001062
1.812e-05
2.012e-05
-6.182e-05
4.17e-05
1.807e-05
-7.472e-05
5.665e-05
-1.198
0.8099
-0.0004346
0.0002514
0.0001832
-1.294e-08
-1.257e-06
1.27e-06
4.254e-05
-6.483e-05
2.229e-05
-0.0003204
0.0003284
-7.978e-06
-0.1579
0.06289
0.095
3.644e-05
2.062e-05
0.0001252
-0.0001632
3.805e-05
-0.1618
0.1679
-0.006168
0.002714
0.0005103
-0.003225
-0.003822
0.003737
8.511e-05
7.572e-05
-1.238e-05
-0.000147
-7.459e-05
-0.002599
0.003748
-0.002527
0.000292
-5.565e-06
-0.0001084
0.000114
-3.1e-05
7.082e-05
0.2819
0.5868
-0.8687
-0.0003065
-0.0001282
-0.0003469
0.0006171
-0.0002702
5.218e-05
-5.292e-05
7.429e-07
-6.411e-05
-0.0002462
-0.01371
0.01195
0.001768
-0.0006465
0.0001159
9.713e-06
3.291e-05
1.028
-0.7461
2.272e-05
-0.0001771
-3.629e-05
-5.325e-05
4.25e-06
-3.259e-05
2.834e-05
1.595e-07
-4.824e-07
4.481e-05
-4.056e-05
1.377e-05
1.806e-05
0.0001926
3.062e-05
-0.0002232
0.0002152
-0.0001386
-7.661e-05
-0.004512
0.001171
0.003341
0.1728
1.024
-5.775e-09
5.775e-09
6.772e-05
9.041e-05
-0.0001581
4.803e-05
-9.99e-05
2.582e-05
-2.348e-05
-2.338e-06
-9.14e-05
0.0002453
-0.0001539
1.406e-05
-7.408e-05
6.002e-05
-0.000127
2.009e-05
0.000107
-0.0002862
0.0002465
0.5592
0.8411
0.0001278
0.0002806
-0.0004085
-0.004426
0.001245
0.003181
-1.504
0.3788
-6.762e-05
0.0001146
-4.696e-05
0.0001593
0.0005589
0.001527
-0.0005946
0.000833
0.0003169
-0.00115
0.1374
-1.017
0.8797
7.846e-05
-0.0003711
6.062e-05
-1.149e-05
-4.914e-05
-0.2747
-0.7145
0.852
0.006888
0.002586
-0.0006285
0.0008421
-0.0002136
0.0003436
0.0003208
-8.479e-05
-4.257e-06
8.904e-05
-0.0004196
0.0003675
5.211e-05
2.796e-06
-1.755e-07
-2.62e-06
-0.004069
0.0009951
0.003074
-0.00397
0.005297
-0.001328
-0.7988
-0.2694
-0.0002888
7.518e-05
0.0002136
-0.0002378
0.0001164
0.0001215
0.0002128
-0.0001761
-3.668e-05
5.022e-05
-9.634e-05
0.001882
-0.001756
1.085
0.0858
-1.17
0.2753
-0.2118
0.07784
-0.1343
0.05642
-8.706e-06
2.185e-06
6.521e-06
0.04538
-0.8442
0.03292
-0.0185
-0.01442
-7.057e-05
0.0001445
-7.394e-05
-0.0007031
-0.0008345
0.001538
6.654e-05
2.74e-05
-9.394e-05
-0.2158
0.8472
-0.6314
-0.0001461
0.0001023
4.378e-05
-0.0003137
0.001745
-0.001431
-0.2387
-0.01737
0.2561
0.0001327
0.0001293
0.6915
0.4734
-1.165
-0.0003583
-0.0002185
0.0005768
6.488e-06
-9.102e-07
-5.578e-06
7.161e-05
-3.475e-05
-3.686e-05
-0.0003749
-0.0006464
0.001021
1.05e-05
7.316e-06
-1.782e-05
0.1853
-0.04884
-0.1365
3.591e-05
2.812e-05
-6.403e-05
-0.008949
0.00901
-6.035e-05
-0.0001164
-3.344e-05
8.761e-06
-3.279e-06
-5.482e-06
-0.0001131
-0.0001027
0.0002158
0.0002008
5.94e-05
-0.0002602
-0.007298
-0.006417
0.005318
-0.005882
0.0005633
0.001825
-0.000358
-0.001467
3.26e-05
-3.26e-05
-0.3402
0.1971
0.1432
-0.001895
0.003593
-0.001698
0.0004866
-0.000315
-0.0001716
-0.0001694
0.0003099
-0.0001405
-3.605e-06
4.677e-06
6.014e-05
-5.278e-05
-7.36e-06
-0.1177
1.202
0.04624
-0.02858
-0.01767
-2.574e-05
-1.057e-05
-0.0001091
4.31e-06
0.0001048
-3.255e-06
4.7e-06
-1.445e-06
-0.0004296
0.001123
-0.000693
1.698e-06
-1.698e-06
-0.0002749
0.0003081
-3.323e-05
-4.53e-07
4.529e-07
-0.0002004
6.472e-05
0.0001357
1.845e-05
1.099e-05
-2.944e-05
0.0003216
-0.0001938
2.037e-05
-1.439e-05
-5.979e-06
0.09816
-0.07379
-0.02436
0.001298
-0.0009898
-0.0003081
1.092
-1.516
0.4241
1.318
-1.741
0.4228
-4.891e-05
-0.0001447
0.0001937
-0.04337
0.09231
-0.04894
7.545e-05
-2.778e-06
-7.267e-05
-0.003349
0.001486
0.001863
-0.001157
8.989e-05
-0.007732
0.00872
-0.0009879
0.04615
-0.1009
0.05478
-0.0005458
3.047e-05
0.0005153
0.000488
0.0007778
-0.001266
0.252
-0.006063
-0.0009947
0.001188
-0.0001935
0.0001381
-0.0002509
0.0001128
0.09344
-0.0473
5.036e-05
-2.51e-05
-2.527e-05
5.823e-06
-5.823e-06
-8.683e-05
1.488e-05
7.195e-05
0.0008712
-0.002817
0.001945
5.836e-05
-3.55e-05
-2.286e-05
-3.34e-05
0.0001464
-0.000113
-7.684e-05
7.344e-05
3.406e-06
-0.3382
0.1233
0.2149
9.518e-05
-1.261e-05
-0.0003176
-0.0003275
-0.04987
0.3506
5.734e-05
-4.29e-05
0.0002429
-2.123e-05
-0.0002216
0.0003877
-0.0006964
0.0003087
-0.4773
-0.5493
1.027
0.2173
0.0006495
-0.2179
0.002781
-0.001894
-0.0008866
7.162e-07
4.257e-07
-1.142e-06
0.0001454
-0.002154
0.002009
-5.74e-06
5.74e-06
0.0005408
-0.000278
-0.0002628
0.0007091
-0.0001853
-0.0005238
-0.001595
0.001456
0.000139
1.42e-06
9.42e-07
-2.362e-06
6.018e-05
1.796e-05
-7.814e-05
-0.4117
1.373
-0.9608
-8.681e-05
0.0001192
-3.238e-05
0.005673
-0.0005226
-0.00515
-0.3003
1.333
-1.032
-0.0005934
-0.000808
0.001401
-1.999e-07
1.035e-07
9.645e-08
0.001096
0.001407
-0.002503
-4.853e-05
2.97e-05
1.883e-05
0.006604
-0.003736
-0.002867
0.001248
0.003126
-0.004374
-2.77e-07
-4.004e-07
6.774e-07
1.212e-05
-1.212e-05
0.0003114
0.0001347
-0.0004461
-0.088
-0.05334
-0.4604
0.2234
0.2369
0.002838
-0.001082
-0.001756
-0.00135
0.001031
0.000319
-4.282e-05
-7.576e-05
0.0001186
6.984e-05
-4.015e-05
-2.969e-05
-0.0005558
-0.0002014
0.0007572
0.0001727
-8.236e-05
-9.03e-05
-0.001509
0.001363
0.0001459
-0.009665
0.01746
-0.007794
6.696e-05
0.0001057
-0.03221
-0.01506
0.04727
1.961e-05
1.161e-06
-2.077e-05
0.1368
-0.5756
0.4388
-0.0001847
-0.0002732
0.0004579
-2.067e-06
9.267e-06
-7.199e-06
0.0002551
-0.0003052
5.006e-05
-0.0001495
0.0001236
2.594e-05
0.0004075
-0.0001977
-0.0002098
-0.3822
0.09718
0.285
-0.189
0.05569
0.1333
2.063e-05
-3.416e-05
1.353e-05
0.007747
-0.008779
0.001033
-6.287e-05
0.0001231
-6.021e-05
0.0002519
-0.0004292
0.0001773
3.112e-05
-6.113e-05
3.001e-05
-0.000438
0.0004304
7.582e-06
0.0003875
-0.0001164
-0.0002711
-0.0001932
0.0001888
4.437e-06
-9.493e-06
6.09e-05
-5.14e-05
4.29e-05
-4.29e-05
-6.369e-06
-5.5e-05
6.137e-05
-1.976e-05
0.0001381
-0.0001183
-7.976e-05
6.595e-05
1.381e-05
-0.002749
0.004129
-0.001381
-0.0002818
0.0006131
-0.0003313
0.0001388
0.0006881
0.0001023
-0.0001062
3.876e-06
6.931e-08
-4.322e-06
4.253e-06
-1.353e-07
8.231e-08
5.297e-08
0.0004929
-0.0002279
-0.000265
-0.3195
0.4211
0.59
0.2174
-0.8074
0.0003496
-0.0004592
0.0001096
-7.274e-05
-0.0002062
0.000279
0.004817
-0.0008866
-0.003931
-0.1886
1.18
-0.9917
0.0002661
0.0005962
-0.0008623
0.000399
3.332e-05
-0.002528
-0.005743
0.00827
-3.805e-05
-2.412e-05
6.217e-05
0.0008672
-0.0006303
-0.0002369
1.365e-05
-5.694e-05
4.329e-05
0.002804
-0.0033
0.0004962
0.7873
-0.6762
-0.008363
0.002796
0.005567
0.01226
0.000553
-0.01281
6.897e-05
-8.009e-06
-6.096e-05
2.369e-05
3.965e-05
-6.334e-05
0.000103
-7.772e-05
-2.524e-05
-0.004334
0.00171
0.002625
0.0005592
-0.003878
0.003319
-1.635e-05
4.152e-05
-2.517e-05
-0.0003573
0.0005321
-0.0001747
-0.002039
-0.001345
0.003383
-0.0009044
0.0003525
0.0005519
-0.0006671
-0.0001451
0.0008122
0.001113
-0.0009048
-0.0002084
-0.0002194
0.000188
3.143e-05
0.000138
-9.863e-05
-3.936e-05
0.26
-0.3213
0.0613
1.176e-05
-6.718e-06
-5.045e-06
2.11e-07
6.387e-07
-8.497e-07
-0.0005553
0.0002085
2.172e-06
-0.0001235
0.0001214
-2.468e-05
1.229e-05
0.02161
-0.1184
0.09676
1.137e-05
-1.137e-05
-4.729e-05
4.729e-05
-0.1666
-1.047
1.214
1.259
0.2309
-1.49
0.0001106
-6.339e-05
-4.718e-05
-6.553e-05
0.0004102
-0.0003447
-9.686e-08
1.132e-07
-1.632e-08
-1.373e-05
7.995e-06
5.737e-06
-0.0001478
0.001446
-0.0003143
0.0004081
-9.38e-05
-5.562e-05
-5.654e-06
6.127e-05
-0.001099
-0.004171
0.00527
0.003612
0.005169
-0.008781
-0.1897
0.06264
0.1271
-5.7e-05
3.82e-05
1.881e-05
5.664e-05
0.00041
-0.0004667
4.596e-05
-9.24e-05
4.644e-05
-0.004651
0.001027
0.003624
-4.465e-08
-2.066e-07
2.512e-07
-0.0002106
0.0002896
-7.896e-05
0.8159
-1.147
0.3313
-5.465e-05
5.465e-05
-0.000126
8.198e-05
4.4e-05
0.1661
0.5628
-0.7289
-5.809e-05
5.468e-06
-1.287
1.12
0.242
-0.4264
0.1844
-0.002985
0.002087
0.0008988
-0.01117
-0.002124
0.0133
-5.5e-06
3.372e-06
2.128e-06
0.7807
-0.946
0.1653
0.0002869
-0.0001523
-0.0001346
0.4759
-0.136
-0.3399
0.0004745
-0.0008889
0.0004143
-0.01676
0.005553
0.01121
0.001308
-0.001042
-0.0002666
0.006202
-0.003246
-0.002957
-7.166e-05
-0.0003016
0.0003732
-0.0003202
-0.0001277
0.0004478
-4.573e-05
-1.378e-05
5.951e-05
0.001534
0.0003378
-0.001872
0.1498
0.6505
-0.8003
0.01048
0.06118
-0.07167
0.000328
-0.000197
-0.0001309
-0.0001081
-0.0005448
0.0006529
-2.849e-05
9.369e-05
-6.52e-05
-7.182e-05
4.077e-05
3.105e-05
2.374e-05
-1.423e-05
-9.516e-06
3.812e-05
9.816e-06
-4.794e-05
7.924e-06
-7.924e-06
5.715e-05
-0.000102
0.0007043
-0.0005164
-0.0001879
9.365e-06
-1.865e-05
9.279e-06
-0.0003911
0.0002538
0.0001372
5.807e-05
2.624e-05
-8.43e-05
0.00561
-0.006457
0.0008472
-0.0002026
1.791e-05
0.0001847
0.4951
-0.3657
-0.1294
6.475e-05
-7.022e-05
5.476e-06
1.107e-06
-1.148e-05
1.037e-05
-0.0001661
1.14e-06
0.000165
0.4959
-1.094
0.5978
-0.0003562
0.0001214
0.0002347
-0.0006307
0.0003356
0.000295
-0.001622
0.0004087
0.001214
0.001222
-0.0005576
-0.0006643
2.274e-05
-9.156e-05
6.883e-05
0.001431
0.006741
-0.008172
-3.745e-05
4.282e-05
-5.371e-06
9.439e-05
0.0003177
-0.0004121
-0.0008234
-0.0007989
2.008e-05
3.689e-05
-5.697e-05
-0.0002686
-4.032e-05
0.0003089
2.269e-06
6.492e-06
-1.181
0.5417
0.6391
0.002181
-0.004245
0.002064
5.646e-05
-2.044e-05
-3.602e-05
0.129
0.05707
-0.186
8.054e-05
-2.298e-05
-5.756e-05
-3.129e-05
-7.903e-06
3.919e-05
-1.247
1.247
0.001509
0.002344
-0.003853
9.735e-06
-1.313e-05
3.397e-06
0.06826
-0.0525
-0.01575
0.006668
-0.001058
2.969e-05
6.563e-05
-9.532e-05
7.271e-05
-1.728e-05
-5.543e-05
0.01229
-0.009488
-0.002804
-1.269
0.5236
0.7457
-6.951e-05
0.0001106
-4.11e-05
3.889e-05
-9.375e-05
5.486e-05
0.4033
-0.2559
-0.1474
-0.008605
0.00603
0.002575
0.0008704
-0.03122
0.03035
0.0003259
0.0001293
-0.0004551
6.82e-05
2.353e-05
-9.173e-05
-0.001527
-0.0007725
0.002299
-0.05377
-0.05443
0.1082
-5.626e-07
1.209e-06
-6.464e-07
1.044e-08
9.926e-08
-1.097e-07
0.0001088
0.0003132
0.0002058
-0.0006892
0.0004834
0.0004188
-0.0006608
0.000242
1.388e-05
6.487e-06
-0.3925
1.24
-0.8471
0.0001402
-0.0007053
0.0005651
0.3499
-0.006956
-0.343
-0.0001741
0.0002453
-7.122e-05
-0.0009376
0.0009212
1.637e-05
-4.533e-05
-5.833e-05
0.0001037
0.0003237
0.0008982
-3.363e-06
3.581e-06
-2.174e-07
-1.103e-05
1.196e-05
-9.297e-07
-0.5585
0.2186
0.3399
-7.281e-07
7.281e-07
3.78e-05
-2.843e-05
-9.37e-06
-1.26e-05
4.841e-05
-3.581e-05
-0.001405
-0.0001587
0.001563
-0.0001382
0.0001921
0.0003218
0.0002397
-0.0005615
-0.0003293
0.0001111
0.0002182
-0.0001013
8.392e-05
1.733e-05
0.001597
-0.001116
-0.0004814
-0.009535
0.02475
-0.01522
2.505e-06
-2.505e-06
0.0001822
-0.0002237
4.154e-05
-0.0004331
0.0001937
0.0002395
0.0001499
7.506e-05
-0.000225
0.0008582
-0.0007149
-0.0001433
0.0001888
0.0003156
-0.0005044