/*--------------------------------*- C++ -*----------------------------------*\
  =========                 |
  \\      /  F ield         | OpenFOAM: The Open Source CFD Toolbox
   \\    /   O peration     | Website:  https://openfoam.org
    \\  /    A nd           | Version:  8
     \\/     M anipulation  |
\*---------------------------------------------------------------------------*/
FoamFile
{
    version     2.0;
    format      ascii;
    class       volVectorField;
    location    "15";
    object      U;
}
// * * * * * * * * * * * * * * * * * * * * * * * * * * * * * * * * * * * * * //

dimensions      [0 1 -1 0 0 0 0];

internalField   nonuniform List<vector> 
127143
(
(0.0008894 -3.812e-05 0)
(-2.357e-05 -0.0001171 -1.397e-24)
(-4.936e-05 -0.0002424 2.471e-24)
(-6.427e-05 -0.0002938 -9.834e-28)
(0.006091 0.001903 -5.149e-23)
(-5.427e-05 -0.0003026 3.515e-27)
(0.01716 0.01095 0)
(0.008911 0.004098 -7.061e-23)
(0.007269 0.003511 2.331e-22)
(-0.001575 -5.659e-05 0)
(0.01857 0.02568 2.698e-22)
(0.01145 0.007632 2.558e-22)
(0.0001505 -5.694e-05 -4.897e-25)
(-8.36e-05 -0.0003308 0)
(0.04091 -0.007829 5.32e-21)
(0.01974 -0.001842 0)
(-0.0001102 -0.0005414 -4e-24)
(0.05015 -0.07582 2.868e-20)
(-0.1452 0.008979 0)
(0.03081 0.009458 0)
(-0.1449 0.04 1.993e-20)
(0.0002278 -0.0001218 0)
(0.9872 -0.1441 0)
(0.3478 -0.03387 0)
(0.0001991 -0.0001119 -4.649e-23)
(0.117 -0.01886 0)
(-0.01638 0.0001461 4.592e-21)
(-0.0164 -0.0004088 -6.886e-23)
(0.1265 -0.05486 0)
(0.3972 -0.08789 -8.758e-21)
(0.2723 -0.01708 0)
(0.1126 -0.01673 -1.359e-21)
(0.05493 0.01348 9.969e-22)
(-0.01977 0.005363 -5.948e-21)
(0.8747 -0.07479 2.293e-20)
(0.05341 0.0156 -2.469e-24)
(-0.154 0.05544 8.435e-21)
(0.2913 0.02224 -1.16e-20)
(0.433 -0.03922 -1.315e-21)
(0.1103 -0.003042 1.109e-25)
(-0.1458 0.007677 0)
(1.096 0.4627 -6.93e-21)
(1.075 0.4515 5.36e-21)
(0.0003133 -0.0001071 0)
(0.0333 -0.07149 -2.451e-20)
(-0.02058 0.004681 1.886e-21)
(0.1293 -0.05923 0)
(-0.1873 0.06864 -1.218e-21)
(0.4327 -0.0763 3.054e-22)
(0.41 -0.03276 -8.153e-22)
(0.0235 -0.001667 -4.499e-23)
(0.9762 -0.03301 4.026e-20)
(-0.05993 0.01361 0)
(1.18 0.1486 -9.108e-21)
(1.001 -0.0009711 2.271e-20)
(0.3249 -0.08058 2.362e-22)
(1.001 -0.0009657 -2.042e-20)
(1.108 -0.08123 0)
(1.01 -0.008543 -1.454e-20)
(1.178 0.15 -1.773e-20)
(0.511 -0.05562 -6.544e-20)
(-0.1395 0.05705 -1.604e-21)
(0.7904 -0.05324 4.566e-21)
(1.001 0.0004812 4.668e-20)
(-0.04213 0.003588 0)
(0.8704 -0.2345 -6.876e-21)
(1.086 0.1436 3.181e-20)
(0.7328 -0.05479 0)
(0.7439 -0.05424 1.25e-21)
(0.9909 -1.628e-05 0)
(0.3131 -0.02334 0)
(-0.0176 0.0001605 -2.161e-21)
(-0.1762 -0.02786 -7.781e-21)
(1.01 -0.008405 -8.039e-21)
(1.004 0.002807 -3.761e-22)
(-0.01767 -0.0003168 2.152e-21)
(1.009 0.03606 -2.004e-20)
(-0.1446 0.04948 0)
(0.3361 -0.08847 -4.261e-22)
(1 0.0006641 0)
(0.1231 -0.05685 7.304e-24)
(0.03391 0.008738 1.033e-23)
(-0.03655 0.008741 3.775e-21)
(0.1362 -0.009438 0)
(-0.1415 -0.002612 1.602e-21)
(-0.1585 0.05561 0)
(0.5158 -0.0506 -2.987e-21)
(-0.001358 0.0005597 1.422e-21)
(0.8695 -0.2319 0)
(0.9868 0.6017 0)
(1.001 -0.006093 0)
(1.195 0.03005 0)
(1.139 0.6989 0)
(-0.1448 0.03994 -2.034e-20)
(-0.08358 0.0181 0)
(1.046 0.05376 1.725e-20)
(1.096 0.4546 1.458e-20)
(0.1919 -0.01371 0)
(-0.1602 0.04906 6.202e-21)
(1.083 0.1444 0)
(1 0.0006449 0)
(0.4573 -0.0829 0)
(0.5968 0.5547 -7.353e-22)
(1.084 -0.1242 0)
(-0.1616 0.05708 -2.891e-21)
(-0.1588 0.04873 8.824e-21)
(0.7457 -0.1166 -2.106e-21)
(0.99 5.332e-05 0)
(0.6957 -0.2672 0)
(1.002 -0.0007349 3.236e-20)
(0.04994 -0.0113 -1.698e-21)
(-0.001234 0.0002632 2.723e-21)
(-0.1214 0.02996 -1.908e-20)
(0.2498 0.5374 0)
(0.9961 0.00931 1.44e-20)
(1.032 -0.1684 -3.634e-22)
(0.9892 0.03944 -7.566e-21)
(1.003 0.002928 -2.881e-20)
(1.01 0.0351 1.573e-20)
(-0.0007262 -0.003114 0)
(1.002 -0.0007826 -4.525e-20)
(-0.04073 0.0108 -9.338e-22)
(0.7683 -0.2824 0)
(1.085 -0.08886 1.361e-20)
(0.1293 -0.05726 3.374e-22)
(0.07969 -0.01024 -3.636e-21)
(-0.1551 0.04915 0)
(1.034 0.00532 1.013e-19)
(-0.07269 0.006153 -3.374e-21)
(0.3271 -0.09434 -5.922e-22)
(-0.1172 0.035 0)
(-0.08916 0.02169 -7.126e-21)
(0.9494 -0.08025 -8.993e-21)
(-0.1463 0.05002 0)
(-0.0001646 -0.0009811 -2.225e-23)
(-0.1203 0.036 -3.676e-21)
(1.08 -0.04427 0)
(-0.132 0.03837 4.175e-21)
(0.1561 -0.08834 -2.838e-21)
(1.103 -0.003997 8.978e-21)
(0.9565 -0.1733 7.036e-21)
(0.9866 0.02737 4.701e-20)
(-0.05324 0.01525 9.004e-22)
(-0.07445 0.02868 -1.011e-20)
(-0.05713 0.01347 -3.264e-21)
(1.257 0.4672 4.125e-21)
(-0.02915 0.1632 6.701e-22)
(1.001 0.000418 -4.216e-20)
(-0.08599 0.02083 5.966e-21)
(0.4952 0.4317 -4.585e-22)
(1.085 -0.1159 -3.259e-21)
(0.4949 -0.09834 0)
(0.6199 0.05172 2.959e-20)
(0.84 -0.1364 0)
(0.2836 -0.1888 0)
(-0.1435 -0.002434 0)
(1.108 -0.08028 -4.96e-21)
(0.3163 -0.111 0)
(-0.1874 0.06863 -2.269e-21)
(0.1675 -0.01504 8.973e-22)
(0.3436 -0.02125 0)
(0.02899 -0.01528 2.213e-21)
(1.001 -0.005845 1.538e-22)
(-0.1181 0.03534 -9.106e-21)
(0.1906 -0.04908 0)
(-0.04648 0.004185 4.46e-21)
(-0.1298 0.04582 -4.437e-21)
(0.6807 -0.2268 1.547e-20)
(0.2294 0.06272 -2.662e-21)
(0.9424 0.04717 -6.449e-21)
(-0.01295 0.003426 0)
(-0.07546 0.02925 4.7e-21)
(1.023 -0.1789 -9.015e-22)
(0.8924 -0.2579 -1.969e-21)
(0.9786 -0.0007032 3.683e-20)
(-0.06673 0.003313 7.721e-23)
(1.239 0.5334 -6.849e-22)
(-0.07288 0.00637 -3.336e-21)
(0.4008 -0.04052 0)
(1.007 -0.01842 5.374e-21)
(0.8914 -0.2583 -6.747e-22)
(1.009 0.002658 0)
(-0.05157 -0.01236 1.084e-21)
(-0.06676 0.00255 -7.747e-23)
(0.3381 -0.09889 1.244e-21)
(-0.1369 0.05643 2.836e-21)
(1.028 0.2961 -5.819e-21)
(0.2686 0.5538 -3.833e-21)
(0.3751 -0.03684 -2.398e-21)
(1.025 -0.027 4.295e-20)
(-0.08786 0.01587 1.923e-21)
(-0.07625 0.01044 -8.459e-21)
(1.078 -0.0434 6.794e-20)
(0.3742 0.9148 -6.829e-23)
(-8.724e-05 -0.001014 3.711e-23)
(-0.1473 0.04364 0)
(1.003 1.076e-06 0)
(0.9986 -9.907e-07 2.399e-22)
(0.0137 0.007474 0)
(0.991 0.01328 4.517e-21)
(1.011 0.007284 2.894e-20)
(0.9322 0.005011 1.065e-19)
(0.9908 -0.04381 9.203e-21)
(-0.16 0.05762 -4.222e-21)
(-0.000114 -0.0006322 5.389e-25)
(0.6358 -0.03958 4.559e-21)
(1.013 -0.09472 -2.3e-21)
(1 -0.1776 2.922e-22)
(0.5193 -0.1115 5.768e-21)
(0.9961 0.009006 -7.419e-21)
(1.157 -0.03274 1.814e-20)
(-0.1235 0.001185 1.035e-21)
(0.9951 -0.004531 9.52e-21)
(0.2411 0.06387 -2.849e-21)
(-0.09181 0.0277 3.583e-24)
(0.01833 0.001767 0)
(-0.01308 0.004392 -3.923e-22)
(0.9833 -0.192 -7.654e-22)
(-0.1215 0.03233 -1.294e-20)
(1.015 -0.09353 -6.871e-22)
(1.23 0.5288 -1.36e-21)
(1.001 0.004715 -7.097e-21)
(0.4824 -0.09476 1.586e-22)
(-0.03453 0.01286 3.668e-21)
(0.1539 -0.01465 0)
(-0.02087 0.006976 0)
(0.2361 -0.06008 -4.17e-22)
(0.3526 0.03197 1.245e-20)
(-0.058 0.01979 1.473e-21)
(-0.1642 0.05222 7.963e-21)
(-0.1421 0.03852 1.262e-20)
(1.01 0.001787 -8.273e-21)
(-0.1799 -0.02753 1.55e-20)
(-9.596e-05 -0.007348 0)
(-0.1424 0.03857 0)
(1.072 -0.07483 1.375e-20)
(-0.118 0.03555 4.379e-21)
(0.002234 -0.0003432 2.284e-23)
(1.011 0.007082 -2.69e-20)
(-0.08642 0.01708 9.737e-21)
(-0.07785 0.01078 7.963e-21)
(-0.05576 0.003113 -7.548e-21)
(-0.1457 0.03949 -6.269e-22)
(0.3279 -0.1163 4.439e-25)
(0.373 0.0465 0)
(-0.0005788 -0.003213 1.747e-26)
(0.6316 -0.1285 -7.656e-22)
(-0.01663 0.0003178 0)
(-0.003181 0.0008778 5.241e-22)
(1.001 -2.4e-05 -9.954e-22)
(1.213 0.3816 -1.567e-20)
(0.1162 -0.01297 2.628e-21)
(0.9394 -0.2211 0)
(-0.1163 0.03297 0)
(0.4365 -0.1054 3.358e-22)
(0.7144 -0.2715 0)
(1.033 0.004789 -7.944e-20)
(0.4244 0.138 0)
(0.9441 -0.2381 0)
(0.8687 0.2217 1.171e-20)
(-0.1392 0.04322 -6.048e-21)
(1.012 -0.0136 7.532e-21)
(1.192 0.03105 1.691e-22)
(0.986 0.02642 -3.804e-20)
(0.141 0.0203 0)
(-0.05114 0.004092 -2.367e-21)
(-0.05786 0.01873 5.914e-21)
(0.2445 -0.178 0)
(0.556 -0.1752 3.85e-20)
(1.211 0.1672 -5.9e-21)
(0.2005 -0.03555 0)
(0.9744 -0.001391 -4.44e-20)
(-0.1866 0.06631 -1.566e-21)
(-0.08759 0.01688 -1.023e-20)
(0.9387 -0.06011 7.306e-21)
(-0.08708 0.01608 -9.309e-21)
(-0.1226 0.03055 0)
(0.5029 -0.07974 2.774e-21)
(0.9553 -0.002146 -6.449e-22)
(0.8915 -0.2605 2.067e-21)
(1.003 -0.0003656 3.404e-22)
(1.043 0.0575 2.532e-21)
(1.085 -0.1238 -9.811e-24)
(0.9952 0.002644 0)
(1.002 0.01 2.097e-21)
(-0.0003983 -0.001018 -5.387e-24)
(-0.1157 0.03316 0)
(0.9963 0.01019 7.847e-21)
(0.4596 -0.06514 2.526e-21)
(1.006 -0.01845 7.039e-21)
(0.6779 0.04878 -4.029e-20)
(0.9783 -0.1816 0)
(1.07 -0.07573 -1.356e-20)
(1.007 -0.194 0)
(0.9978 -0.006298 -5.415e-21)
(0.6827 -0.2812 -3.583e-22)
(0.26 -0.02059 1.89e-21)
(0.01046 -0.03356 -7.668e-22)
(-0.1461 0.03992 2.418e-21)
(1.212 0.167 4.194e-21)
(0.1906 -0.02092 -1.043e-21)
(0.9197 -0.2185 -8.438e-22)
(0.7887 -0.2245 -1.042e-20)
(1.031 -0.1679 3.505e-21)
(0.1462 -0.01064 0)
(0.4767 -0.2724 3.552e-23)
(1.005 -0.1779 9.777e-23)
(0.9949 -0.004692 0)
(-0.02806 0.02212 -9.939e-24)
(1.021 -0.107 -3.988e-21)
(0.6947 -0.1097 -2.658e-21)
(0.01212 -0.03282 -7.583e-23)
(0.2985 -0.0728 0)
(1.002 -0.0004819 8.863e-22)
(0.9924 0.003119 -2.066e-20)
(1.095 0.467 5.829e-22)
(0.1134 0.0201 6.469e-21)
(0.1812 -0.01979 2.459e-21)
(1.183 0.04993 2.484e-20)
(0.9086 -0.01474 -5.4e-22)
(0.9858 -0.143 0)
(0.2986 -0.02055 -3.184e-21)
(1.061 0.01349 2.292e-20)
(0.9385 -0.2203 1.082e-22)
(1.074 0.4537 0)
(0.1089 0.01853 -1.387e-20)
(0.9133 -0.03958 4.839e-20)
(0.04803 -0.01552 -6.298e-24)
(0.3238 -0.003956 1.861e-21)
(1.204 0.5942 6.356e-21)
(-0.1631 0.06191 0)
(1.003 0.009872 -2.508e-21)
(0.8799 -0.07598 -8.832e-20)
(1.003 8.196e-06 0)
(0.9986 -4.918e-07 0)
(0.8397 -0.1326 0)
(0.7076 -0.2688 -2.365e-21)
(1.023 -0.179 -8.733e-22)
(-0.1633 0.0623 -2.237e-21)
(-0.1059 0.02979 -2.417e-20)
(1.1 -0.00578 -4.048e-20)
(0.9835 -0.1923 0)
(-0.04034 0.01585 3.027e-21)
(-0.08531 0.01612 1.571e-21)
(0.1961 0.131 -1.551e-22)
(0.4505 -0.06275 -1.645e-21)
(-0.05479 0.01368 -3.926e-21)
(-0.1004 0.02252 6.368e-21)
(0.2143 -0.02545 -2.011e-21)
(-0.06306 0.006325 0)
(0.227 -0.0248 1.666e-21)
(-0.06721 0.03347 6.056e-21)
(-0.08678 0.01843 -1.59e-21)
(-0.08638 0.01604 6.827e-21)
(0.9223 0.04884 0)
(-0.06167 0.01554 -1.007e-20)
(-0.1174 0.03319 -6.083e-21)
(1.254 0.4345 -3.646e-21)
(1.004 -0.005936 5.411e-21)
(0.3099 -0.003241 0)
(-0.182 0.06031 -2.342e-21)
(0.829 -0.05589 1.333e-21)
(0.5109 -0.06649 -3.398e-20)
(0.4297 -0.03068 0)
(0.4159 -0.03502 -2.561e-21)
(1.002 0.00232 1.53e-22)
(0.9913 0.013 -1.353e-20)
(0.8913 -0.001249 0)
(-0.03322 0.006104 1.996e-21)
(0.96 -0.001588 0)
(0.3878 -0.03661 5.463e-20)
(1.061 0.01138 -4.896e-20)
(0.1429 -0.01563 -2.523e-21)
(0.407 -0.02909 3.087e-21)
(1.026 -0.02563 0)
(1.15 0.04875 -5.855e-22)
(0.2844 -0.02472 2.164e-21)
(0.005994 -0.009151 2.111e-26)
(-0.1639 0.05305 -1.502e-20)
(0.9616 -0.005011 3.504e-21)
(0.4095 -0.02093 -5.375e-20)
(0.0926 -0.01194 3.662e-21)
(0.2434 -0.03089 0)
(0.9177 -0.2207 -3.539e-21)
(0.9897 0.03796 0)
(0.04438 -0.00322 0)
(0.9592 0.1524 0)
(0.1172 -0.003776 0)
(-0.1496 0.04427 -1.869e-21)
(0.1928 0.01317 -3.516e-20)
(1.011 -0.006502 -4.171e-20)
(0.7573 -0.1959 0)
(-0.03602 0.01184 1.024e-21)
(0.4389 -0.1126 4.242e-22)
(0.3721 -0.03357 4.842e-21)
(0.2573 -0.01643 2.039e-21)
(0.7618 -0.1982 -8.682e-21)
(0.2959 -0.01825 0)
(0.921 0.04711 0)
(1.011 -0.01389 0)
(0.1235 -0.01052 -6.146e-22)
(1.001 0.004479 2.58e-21)
(-0.1312 0.03525 0)
(-0.05483 -0.01178 0)
(0.9647 0.1543 0)
(1.043 -0.1262 2.418e-21)
(-0.166 0.0588 -1.489e-20)
(0.9285 -0.08572 6.595e-21)
(1 0.0005581 -8.017e-20)
(0.4324 -0.04479 0)
(0.695 -0.3019 0)
(0.2158 -0.0284 -2.203e-21)
(0.9578 -0.1721 -7.266e-21)
(-0.1852 0.06898 0)
(0.7819 -0.2863 0)
(-0.08547 0.01856 -6.612e-21)
(-0.1554 0.0447 -1.5e-20)
(0.1722 -0.03316 0)
(0.9072 0.08988 6.626e-21)
(0.5441 -0.219 -1.208e-21)
(-0.1339 0.04779 0)
(-0.01491 0.005209 -1.526e-21)
(-0.08153 0.02379 0)
(1.003 0.0001716 -1.073e-22)
(-0.1643 0.05222 -9.864e-21)
(0.9237 0.2653 -4.092e-21)
(1.069 0.4394 3.893e-22)
(0.9249 -0.1605 -8.727e-21)
(-0.0586 0.003836 7.666e-21)
(0.9949 -0.1161 -1.275e-23)
(1.003 -0.0001902 0)
(-0.08147 0.02399 0)
(-0.08218 0.0181 0)
(1.168 -0.04473 1.102e-19)
(0.9492 0.1638 6.773e-22)
(1.002 0.002273 -5.138e-21)
(1.006 -0.1559 2.28e-21)
(-0.05741 0.0135 -7.381e-21)
(0.977 -0.03188 -1.526e-20)
(0.9975 -0.006223 0)
(0.9983 -0.0008218 -4.243e-21)
(0.4389 -0.03518 1.32e-21)
(1.079 -0.04869 -2.361e-20)
(0.7083 -0.2749 3.403e-21)
(0.9619 0.03259 0)
(0.2043 -0.01483 -1.238e-22)
(0.9902 0.002367 4.726e-20)
(0.348 -0.2348 0)
(0.875 -0.004872 -2.376e-21)
(-0.1234 -0.0001699 1.012e-21)
(-0.161 0.04677 0)
(0.2833 -0.03691 -8.775e-24)
(1.06 -0.1273 -6.716e-21)
(-0.03165 0.005474 1.134e-20)
(0.8617 0.08458 -1.065e-22)
(-0.1693 0.05943 -1.417e-21)
(0.1832 -0.02222 -1.059e-21)
(-0.0622 0.003963 0)
(-0.1752 0.06303 0)
(1.141 0.1206 4.303e-21)
(0.9743 -0.08393 3.014e-21)
(-0.02644 0.01154 8.485e-21)
(-0.02762 0.02949 0)
(0.3207 0.4987 -1.832e-20)
(-0.03719 0.0111 -9.706e-25)
(0.9935 -0.0008553 0)
(1.004 0.02432 0)
(-0.101 0.02347 0)
(-0.05373 0.01459 3.971e-21)
(0.9992 -0.0001343 0)
(-0.1641 0.04985 6.701e-21)
(1.195 0.04981 2.048e-20)
(1.086 -0.08737 -2.061e-20)
(0.1401 0.01969 -2.182e-21)
(1.018 -0.07903 -4.166e-21)
(1.004 -9.222e-05 0)
(0.2202 -0.1248 -1.56e-20)
(1.193 0.05008 -2.011e-20)
(-0.05991 0.02085 -9.313e-22)
(0.0512 0.02057 7.676e-22)
(0.1215 -0.06407 2.443e-22)
(0.3424 -0.2336 -1.805e-21)
(-0.05762 0.009255 2.07e-21)
(0.2995 -0.07059 0)
(0.6987 -0.2961 0)
(0.9761 0.1676 -6.73e-22)
(0.1447 0.02351 -5.411e-22)
(1.01 0.001822 3.421e-20)
(0.194 -0.01662 -1.772e-21)
(0.9736 0.009414 3.944e-20)
(1.21 0.5291 2.072e-22)
(0.5531 -0.05489 2.628e-21)
(-0.06834 0.01149 0)
(1.258 0.452 1.833e-21)
(-0.000193 -0.001066 0)
(-0.1056 0.03218 1.005e-20)
(0.2683 0.3251 5.572e-21)
(1.092 -0.03008 -2.637e-22)
(1.008 0.7134 6.527e-21)
(0.9947 -0.002499 -6.033e-20)
(0.1187 -0.0667 0)
(1.005 0.02438 1.533e-23)
(-0.1383 0.04088 0)
(-0.1437 0.04282 -6.396e-21)
(-9.116e-05 -0.0005525 0)
(0.001089 0.0003508 3.157e-23)
(0.001206 -0.0004401 -9.836e-24)
(1 -0.0002756 -2.976e-20)
(-0.06338 0.01605 0)
(0.5057 0.1004 0)
(0.9927 0.003259 4.017e-20)
(-0.177 0.06403 3.563e-21)
(0.7395 -0.2729 4.188e-21)
(-0.1131 0.03682 9.28e-21)
(1.054 -0.1525 0)
(-0.1604 0.04646 0)
(0.2777 -0.0342 -1.575e-21)
(-0.1642 0.04991 -6.805e-21)
(-0.01117 0.002107 4.839e-22)
(0.9986 -0.000583 0)
(-0.1024 -0.00947 -1.397e-21)
(0.0002104 -9.331e-05 0)
(0.4904 -0.2003 7.632e-22)
(0.2067 -0.02016 7.597e-22)
(-0.01431 0.003607 3.633e-22)
(1.01 -0.007909 -1.261e-20)
(1.088 -0.1154 -3.535e-21)
(0.9936 -0.04434 -2.701e-21)
(-0.01375 0.02764 1.072e-20)
(1 -0.004604 0)
(0.1708 -0.0133 0)
(0.2918 0.1368 0)
(-0.04647 0.01566 -1.644e-21)
(0.9985 2.475e-05 0)
(-0.1012 0.02389 -6.032e-21)
(1.056 -0.09872 -9.667e-21)
(0.001573 -0.002306 8.917e-26)
(0.6673 -0.2988 1.78e-21)
(0.2172 0.0639 6.216e-22)
(-0.01281 0.02336 -3.562e-21)
(0.9715 0.002195 2.61e-21)
(-0.08819 0.03104 -1.422e-21)
(0.7841 -0.2926 -2.621e-21)
(0.9992 -0.0001353 3.309e-21)
(0.9189 -0.2203 4.751e-21)
(0.9971 0.09972 -2.922e-20)
(0.2834 -0.02353 -1.719e-21)
(0.4428 -0.03022 2.016e-21)
(-0.04943 0.01344 -3.911e-21)
(-0.03613 0.01235 7.28e-22)
(-0.1477 0.04372 3.274e-21)
(1.142 0.1732 0)
(0.5964 -0.2371 1.065e-21)
(-0.1285 0.04468 0)
(-0.08515 0.02499 1.819e-22)
(1.017 -0.002774 -6.569e-21)
(0.1298 -0.004694 2.002e-22)
(-0.1303 0.03789 -5.81e-21)
(0.2076 -0.03312 2.669e-21)
(0.8821 -0.095 -5.979e-21)
(-0.1652 0.04996 2.434e-21)
(1 0.00117 0)
(0.9998 0.00148 1.388e-20)
(0.8753 0.2127 -1.904e-20)
(-0.05308 0.01304 -1.878e-21)
(0.9864 0.748 0)
(0.9913 0.003908 -2.736e-20)
(1.003 1.708e-05 -4.765e-22)
(0.7954 -0.2841 0)
(0.386 -0.1698 0)
(-0.1683 0.06018 4.664e-21)
(0.6973 -0.2968 0)
(-0.03642 0.01252 2.538e-21)
(-0.01277 0.004207 0)
(0.9749 -0.2141 -1.632e-22)
(1.008 0.03126 0)
(1 -0.0003671 5.628e-21)
(-0.05151 0.01823 1.441e-21)
(-0.1635 0.0482 -5.946e-21)
(0.8668 -0.2037 2.66e-22)
(1.003 -0.000983 9.371e-21)
(-0.01814 0.0004119 1.042e-21)
(0.9617 -0.09521 0)
(-0.08931 0.02514 6.874e-21)
(0.9617 -0.003795 9.033e-21)
(0.1394 -0.01648 2.142e-22)
(0.9912 0.003655 5.023e-20)
(-0.1685 0.06 -2.469e-21)
(-0.06242 -0.0149 0)
(0.1306 0.01815 6.716e-22)
(1 1.64e-05 1.666e-22)
(-0.06152 0.02052 -5.435e-21)
(-0.1386 0.04273 -1.436e-21)
(0.05183 -0.03204 -3.126e-21)
(1.004 -8.458e-05 -1.375e-21)
(0.772 -0.123 2.125e-21)
(-0.01326 0.004368 1.824e-22)
(0.9984 -0.0008998 0)
(1.046 -0.1275 0)
(0.993 0.008833 -8.859e-22)
(0.5548 -0.03584 2.64e-21)
(0.08451 0.01726 0)
(0.9952 0.002465 2.797e-20)
(-0.04332 0.01109 8.917e-21)
(0.3224 -0.04444 1.308e-21)
(0.01053 -0.03518 0)
(-0.08806 0.01424 -1.093e-20)
(-0.02951 0.01478 -1.959e-21)
(0.2401 -0.0253 -4.989e-21)
(0.2516 -0.02942 -1.534e-21)
(0.1824 -0.02343 -2.107e-20)
(0.4596 -0.04298 -1.137e-21)
(1.16 0.7149 8.13e-22)
(0.4712 -0.02095 -2.329e-21)
(-0.09694 0.02648 -1.759e-21)
(-0.006461 0.01181 -4.216e-21)
(0.166 -0.01489 8.589e-22)
(1.003 -0.0009519 0)
(0.3109 -0.06436 1.596e-22)
(0.994 0.002889 -1.151e-20)
(0.2119 0.1492 -1.581e-20)
(1.035 0.02032 4.007e-20)
(-0.04883 0.0152 1.291e-20)
(1.003 -0.000224 0)
(0.996 0.01001 2.033e-20)
(1.112 -0.0803 2.356e-20)
(0.5532 -0.2234 6.258e-22)
(-0.1362 0.03621 9.117e-21)
(1.003 -0.0004848 8.313e-21)
(1.002 -0.001283 -1.305e-20)
(-0.06227 0.02093 -1.496e-21)
(0.02914 0.005551 0)
(-0.04381 0.01037 3.937e-21)
(0.2002 -0.01641 -2.943e-21)
(-0.17 0.02521 0)
(0.7078 -0.2739 -3.126e-21)
(-0.1619 0.04705 -1.338e-21)
(0.6936 -0.3025 0)
(-0.08456 0.01622 -2.166e-22)
(-0.06922 0.02072 -1.661e-20)
(-0.04102 0.003191 0)
(1.003 -0.0005113 -1.476e-21)
(-0.06018 0.004191 7.717e-21)
(-0.08391 0.01713 7.771e-22)
(1.028 -0.1618 -8.754e-22)
(1.208 0.1119 0)
(1 -0.005022 -1.196e-20)
(1.003 1.924e-05 4.473e-23)
(0.1452 0.01927 -1.315e-20)
(0.1813 -0.1026 2.534e-24)
(0.1442 0.02508 2.713e-21)
(-0.006971 0.002131 3.124e-22)
(1.035 0.02114 0)
(1.004 -1.443e-05 1.783e-23)
(-0.1002 0.03139 0)
(-0.06618 0.005472 0)
(0.9353 0.00507 -8.459e-20)
(-0.03757 0.004371 -2.121e-21)
(1.024 -0.1366 0)
(0.9958 0.007106 -1.869e-20)
(-0.05084 0.0154 6.143e-21)
(0.9602 -0.2288 -2.04e-22)
(-0.08176 0.01713 4.99e-21)
(0.8367 -0.1628 -3.392e-20)
(0.0003028 -9.559e-05 0)
(-0.02226 0.007257 0)
(-0.1763 0.06347 -1.269e-21)
(-0.1686 0.0598 2.656e-21)
(-0.1163 0.03297 0)
(-0.07556 0.01265 7.093e-21)
(0.1582 -0.02214 -4.785e-22)
(-0.0554 0.008784 0)
(0.9687 -0.02513 -9.606e-21)
(-0.07666 0.008056 1.49e-20)
(0.000436 -0.02113 0)
(-0.1309 0.03554 -9.838e-21)
(1.001 -0.0009308 2.99e-20)
(0.5362 -0.08327 -2.079e-21)
(0.8503 -0.2264 0)
(0.5542 0.02257 -2.798e-20)
(0.9985 9.412e-06 3.371e-23)
(1.001 -0.0009629 -3.984e-20)
(0.002816 -0.004667 0)
(1.092 -0.02789 -6.782e-21)
(0.3524 -0.06736 8.098e-22)
(-0.07759 0.01224 -4.932e-22)
(0.5022 -0.2808 0)
(-0.02949 0.02142 1.446e-20)
(1.194 0.198 0)
(0.1744 -0.01435 8.624e-22)
(0.6838 -0.0008906 4.477e-20)
(0.4459 -0.1216 0)
(1.009 0.001603 -1.237e-20)
(1.003 -0.0005551 0)
(1.22 0.4069 0)
(0.9332 0.2667 0)
(-0.03677 0.007113 4.896e-22)
(0.5612 0.00989 0)
(0.2432 -0.09982 2.119e-21)
(-0.1738 0.04552 0)
(0.4581 -0.1914 -1.686e-21)
(1.154 -0.03247 1.149e-19)
(0.5667 -0.06901 4.932e-20)
(1.001 5.539e-05 -8.975e-23)
(0.2261 -0.01459 -5.658e-22)
(1.02 -0.07825 -6.938e-22)
(0.4051 -0.09463 -1.143e-22)
(-0.000215 -0.001119 5.277e-24)
(0.945 -0.1488 7.293e-22)
(0.1863 0.03181 -1.828e-20)
(-0.1647 0.05343 1.51e-20)
(1.001 2.641e-05 -1.552e-22)
(0.8037 -0.08624 1.087e-22)
(0.4066 -0.03454 -3.357e-21)
(-0.01352 0.00463 0)
(-0.05419 -0.01547 8.613e-21)
(-0.0729 0.03294 6.147e-21)
(-0.08459 0.01634 -3.288e-21)
(0.5475 0.4695 0)
(-0.1547 0.04449 1.433e-20)
(0.4481 -0.2421 2.88e-21)
(-0.1424 0.04452 -1.909e-21)
(0.4816 -0.1183 7.393e-23)
(0.7354 -0.07848 3.208e-21)
(1.033 -0.1085 1.892e-21)
(-0.1539 0.04881 5.493e-21)
(1.001 -0.1722 -1.087e-21)
(0.001152 -6.873e-05 0)
(0.8476 -0.2276 0)
(0.9426 0.04341 3.209e-20)
(0.7474 -0.1713 6.529e-24)
(0.6682 -0.2892 2.693e-21)
(0.5601 -0.05837 -7.46e-22)
(1.005 -0.0005617 0)
(-0.02717 -0.0157 -9.247e-22)
(-0.06055 0.03348 -1.202e-20)
(-0.1693 0.06064 -4.364e-21)
(1.004 -1.001e-06 -7.841e-23)
(-0.006822 0.002544 0)
(-0.0858 0.02567 0)
(0.1399 -0.01834 3.649e-21)
(1.002 6.3e-05 5.075e-22)
(-0.05207 0.008462 4.31e-21)
(-0.1205 0.0378 0)
(-0.05555 0.01066 7.591e-21)
(-0.07543 0.007704 -5.656e-21)
(1.001 7.232e-06 -4.349e-22)
(-0.1727 0.062 -7.364e-21)
(0.00046 -0.00425 0)
(-0.04806 0.01399 7.056e-21)
(-0.1155 0.03201 0)
(0.9898 0.01423 -5.314e-21)
(-0.0384 0.01576 2.77e-21)
(0.03925 0.1316 0)
(1.018 0.002181 -1.323e-20)
(0.9911 -0.1852 -8.659e-22)
(0.983 -0.2008 0)
(-0.07742 0.01265 -7.314e-21)
(-0.1066 0.03212 0)
(0.9198 -0.2169 -2.776e-21)
(0.9338 -0.1474 0)
(0.1019 -0.01285 5.245e-22)
(-0.06381 0.02015 0)
(0.999 -1.939e-06 -4.516e-22)
(-0.1728 0.06205 7.025e-21)
(-0.1572 0.06314 7.084e-22)
(0.1168 -0.009231 0)
(0.2361 -0.03294 1.67e-21)
(1.183 0.142 0)
(-0.1762 0.06358 0)
(-0.03829 0.01308 1.882e-22)
(0.9988 1.829e-05 1.952e-22)
(-0.1171 0.03866 -9.347e-21)
(-0.05129 0.01493 0)
(0.03617 0.01935 0)
(0.0004096 -0.008708 -5.785e-24)
(0.04565 0.02073 -2.89e-21)
(-0.0472 0.01631 2.571e-21)
(-0.1124 0.0266 -2.265e-21)
(-0.1372 0.03135 0)
(0.9678 -0.2204 0)
(1 -0.0002677 1.458e-20)
(8.938e-05 -3.485e-05 -3.738e-24)
(-0.1215 0.03582 1.157e-20)
(-0.09009 0.01489 1.054e-20)
(-0.03794 0.01356 7.535e-22)
(-0.1813 0.06595 -9.001e-21)
(-0.08842 0.03107 5.715e-21)
(-0.08758 0.02827 -2.819e-21)
(0.3385 -0.02569 0)
(1 -0.0003425 0)
(-0.06331 0.01712 0)
(1.077 -0.1313 -1.829e-23)
(1.002 2.235e-05 0)
(-0.07746 0.02395 -9.016e-21)
(1.214 0.529 0)
(0.7268 -0.1115 2.028e-21)
(0.7826 -0.2796 -1.284e-21)
(1.004 -4.769e-05 -5.504e-21)
(-0.1623 0.0472 0)
(-0.0661 0.005922 0)
(1.009 0.001865 -3.99e-20)
(1.004 -5.346e-05 0)
(1.207 0.1101 0)
(-0.1441 0.05927 5.965e-21)
(-0.1701 0.02615 -2.287e-21)
(-0.09258 0.03263 2.706e-21)
(-0.1706 0.06107 6.584e-21)
(0.02999 0.0006224 5.322e-24)
(1.063 -0.1396 0)
(0.6948 -0.1543 -2.5e-20)
(1.002 -0.0009761 0)
(-0.1451 0.04568 -7.14e-21)
(-0.1438 0.05125 0)
(0.281 -0.01683 -1.71e-21)
(0.1644 -0.01326 0)
(0.6832 -0.2243 -1.461e-20)
(1.004 -0.0002868 0)
(1.01 -0.007535 1.843e-21)
(1 0.001281 2.469e-20)
(-0.01693 1.729e-05 1.122e-21)
(1.002 -0.0009176 5.251e-21)
(1.145 -0.04223 -4.377e-20)
(0.2096 -0.126 5.588e-22)
(0.8144 -0.1047 4.102e-21)
(0.1087 -0.018 -1.758e-21)
(1.001 -0.0012 0)
(-0.1001 0.002391 -1.78e-21)
(0.7986 -0.09692 -2.669e-21)
(1.001 0.005675 0)
(0.2188 -0.02581 1.857e-21)
(0.9993 -0.0001676 0)
(0.5632 -0.2867 4.565e-21)
(-0.005535 0.01998 -1.757e-21)
(-0.06326 0.00916 -1.052e-22)
(0.4737 0.05911 0)
(0.08997 -0.002086 2.05e-22)
(1 -0.006646 4.596e-22)
(-0.04746 0.01281 0)
(0.8286 -0.1723 -8.929e-21)
(0.1764 -0.01274 0)
(0.009415 -0.0228 -6.924e-22)
(0.1665 -0.01984 8.189e-22)
(0.4068 0.5671 -1.22e-21)
(1.182 0.1439 -8.318e-21)
(1.005 -0.1816 6.785e-22)
(0.752 -0.2633 5.233e-23)
(0.03011 -0.002117 0)
(0.9995 0.006824 0)
(0.5633 0.02917 2.527e-20)
(0.3868 -0.1247 0)
(0.3641 0.08782 2.694e-22)
(0.0007691 -0.02036 3.362e-22)
(0.06179 -0.01114 0)
(1.003 -0.000269 0)
(1.08 -0.09906 3.538e-20)
(-0.05106 0.01745 -6.925e-22)
(0.12 -0.02929 -4.893e-22)
(-0.008575 0.0001645 4.117e-21)
(0.6843 0.148 0)
(0.003813 -0.003848 -3.546e-22)
(0.3249 0.06915 -9.981e-22)
(0.0004048 0.0001225 1.204e-21)
(-0.09413 0.02428 -5.511e-21)
(-0.04174 0.01459 1.607e-21)
(-0.05457 0.01731 5.552e-21)
(0.05 -0.003717 7.031e-22)
(1.002 0.03749 -4.23e-22)
(0.662 -0.09635 0)
(1.003 3.106e-05 0)
(1 1.023e-05 0)
(-0.07624 0.01674 6.865e-21)
(1.04 0.04006 1.389e-21)
(-0.08257 0.01192 8.285e-21)
(-0.1867 -0.03649 -2.165e-20)
(0.2483 0.506 0)
(1.099 -0.1028 -1.545e-20)
(1.045 -0.03563 -2.445e-20)
(0.9721 0.4236 2.167e-21)
(0.7153 -0.1661 8.658e-23)
(1.01 -0.006408 2.922e-20)
(0.09676 0.00952 1.901e-22)
(-0.1428 0.05066 -2.085e-21)
(1.043 -0.03385 3.359e-20)
(-0.0399 0.00935 -9.669e-21)
(-0.00591 0.002112 -6.41e-22)
(-0.051 -0.01548 0)
(0.98 -0.2034 0)
(0.0596 -0.02628 -5.217e-21)
(-0.04017 0.02855 0)
(-0.07763 0.02728 0)
(0.9956 -0.001086 2.346e-20)
(-0.06501 0.01159 6.491e-21)
(0.4143 -0.09501 1.278e-22)
(1.004 -0.005757 0)
(-0.04778 0.01206 4.458e-21)
(-0.1303 0.03774 0)
(-0.1281 0.05202 -2.91e-21)
(0.9993 -0.0001181 1.555e-21)
(0.8609 -0.003564 4.51e-21)
(0.2553 -0.0153 0)
(0.02236 0.0009623 1.05e-23)
(0.8306 -0.2767 -3.251e-21)
(-0.005847 0.001911 0)
(-0.1652 0.04861 7.131e-21)
(0.6948 -0.3031 0)
(0.7873 -0.1758 7.605e-24)
(-0.008621 0.002867 0)
(-0.06362 0.004415 1.917e-21)
(1 1.547e-05 -9.162e-23)
(0.1651 -0.09678 0)
(1.149 0.3294 -1.025e-20)
(1.004 2.978e-05 0)
(0.7392 -0.2813 1.068e-22)
(0.001869 -0.0007254 4.426e-23)
(0.341 -0.006154 -7.369e-21)
(0.0514 0.01098 -5.548e-21)
(1.141 -0.05244 6.633e-21)
(1.041 -0.1634 6.831e-22)
(-0.003275 0.0009828 3.366e-26)
(0.01623 -0.001594 -1.338e-22)
(0.3422 -0.03751 0)
(1.007 0.03095 -5.791e-21)
(0.9974 0.003001 6.176e-21)
(0.9902 -0.1933 0)
(0.6603 -0.2885 -1.115e-21)
(-0.1049 0.03546 -1.209e-20)
(-0.04459 0.01023 0)
(0.2832 0.7236 -4.094e-21)
(0.2073 -0.08717 -1.158e-21)
(0.3356 0.0005157 -1.057e-22)
(1.137 0.1318 -1.933e-20)
(0.2029 -0.08471 -1.117e-21)
(1.109 -0.003939 4.399e-20)
(-0.02437 0.001861 0)
(1.005 0.000178 0)
(-0.1851 0.06839 6.391e-22)
(0.008245 -0.03317 -2.173e-23)
(-0.091 0.02764 -1.422e-20)
(-0.08491 0.02499 0)
(-0.163 0.04823 0)
(0.9962 0.001521 -1.912e-20)
(0.9846 -0.00143 1.321e-20)
(-0.04537 0.01598 0)
(0.9387 -0.1879 6.207e-21)
(-0.1069 0.03694 0)
(0.3784 -0.048 0)
(-0.07053 0.02572 -2.689e-21)
(-0.1816 0.05633 -2.275e-21)
(0.2981 0.03581 -2.223e-21)
(0.1216 0.02655 -1.794e-21)
(-0.07064 0.005803 -9.005e-21)
(0.02905 -0.004343 -8.111e-22)
(-0.06415 0.01727 -5.868e-21)
(0.2396 -0.01653 1.154e-21)
(-0.04844 0.01446 5.706e-21)
(1.052 -0.1302 -5.063e-21)
(-0.1818 0.06635 6.222e-21)
(0.3932 0.9149 7.794e-23)
(-0.09016 0.03164 -1.67e-22)
(0.006642 -0.03089 9.414e-23)
(0.00079 -0.0003518 0)
(-0.1617 0.04795 0)
(1.005 -0.0005336 0)
(1.004 -0.001999 1.951e-20)
(-0.1726 0.06228 5.105e-21)
(-0.1771 0.06079 0)
(1.028 -0.1652 5.589e-21)
(1.003 1.887e-05 0)
(0.6596 -0.3029 -3.135e-21)
(-0.1618 0.04698 6.94e-21)
(1.119 -0.07362 -1.935e-20)
(-0.07556 0.02586 0)
(0.2406 0.02734 -2.235e-20)
(-0.05889 0.01853 -6.643e-21)
(1.096 0.5956 -1.049e-20)
(0.9999 0.0005463 -5.102e-20)
(1.006 -0.1695 0)
(1.136 -0.0372 -1.191e-20)
(0.1279 -0.05008 0)
(0.1502 -0.011 0)
(-0.1033 0.02961 9.23e-22)
(0.7196 -0.2036 1.331e-20)
(0.5649 0.02951 4.373e-20)
(-0.03535 0.00637 0)
(0.3555 -0.02984 -1.046e-21)
(1.003 -0.07537 0)
(-0.1686 0.05001 0)
(0.6534 -0.3019 3.363e-21)
(0.5522 -0.06342 3.101e-21)
(-0.1316 0.04665 0)
(0.1998 -0.08671 -1.306e-21)
(1.006 -0.008512 -9.768e-22)
(-0.009491 0.003384 0)
(-0.003477 0.0009572 0)
(-0.1554 0.06255 0)
(-0.09 0.01475 1.585e-20)
(0.03645 -0.003246 -7.224e-21)
(1.001 0.01366 1.075e-21)
(-0.006461 0.001654 1.641e-21)
(0.03374 -0.006109 0)
(1.001 -0.0001433 0)
(0.9996 -5.745e-05 -1.118e-20)
(-0.07592 0.0106 6.747e-25)
(-0.14 0.03744 2.851e-20)
(0.0009766 -0.0004025 -4.467e-23)
(0.006228 -0.03064 3.472e-22)
(0.6846 -0.09957 -5.682e-22)
(0.4505 -0.1676 0)
(-0.0508 0.01664 -5.981e-21)
(1.014 -0.1659 0)
(1.056 -0.1346 0)
(1.002 -0.006515 -9.355e-22)
(-0.04431 0.01481 -8.939e-21)
(-0.1178 -0.02073 0)
(-0.06513 0.02207 -6.914e-21)
(0.9908 -0.2049 0)
(-0.001853 -0.00036 1.957e-22)
(-0.157 0.05636 -1.216e-20)
(1.001 -0.0007636 -6.035e-22)
(0.03157 -0.004259 0)
(-0.1099 0.03669 -4.84e-21)
(1 -0.0006868 -4.635e-20)
(-0.05924 0.009594 -3.352e-21)
(1.001 -0.0001496 -4.55e-21)
(0.9967 -0.002212 1.855e-20)
(0.9963 -0.1368 1.462e-21)
(0.995 -0.1453 0)
(-0.007196 0.001025 -5.937e-21)
(1 -0.001379 4.382e-21)
(0.2213 -0.0257 -2.386e-22)
(1.003 0.004235 0)
(1.186 0.538 0)
(1.005 -0.1319 2e-21)
(0.09158 0.0007842 5.975e-21)
(1.082 -0.1239 -3.78e-21)
(0.3002 -0.05967 -9.952e-23)
(0.3292 -0.04712 0)
(-0.04675 0.0135 1.256e-20)
(0.8967 -0.1005 5.488e-21)
(1.002 -0.002176 4.65e-21)
(1.016 0.003802 2.34e-20)
(-0.08613 0.02648 7.264e-21)
(0.5564 -0.1038 3.455e-22)
(-0.08799 0.03086 -6.811e-22)
(-0.05498 0.01781 0)
(0.07514 -0.004772 1.995e-25)
(-0.04369 0.01414 -3.212e-21)
(-0.005547 0.001791 -5.634e-21)
(-0.08555 0.01401 1.359e-20)
(0.4406 -0.1227 0)
(-0.01592 0.003934 -1.233e-20)
(0.2948 -0.03164 -5.115e-22)
(0.101 -0.0145 0)
(0.831 0.3887 2.512e-21)
(-0.02066 0.01946 0)
(1.002 -0.005977 3.576e-21)
(-0.04618 0.009332 1.53e-20)
(-0.02564 -0.004999 1.169e-21)
(0.1652 -0.02687 0)
(0.9974 3.759e-05 3.657e-21)
(0.3191 -0.2122 3.652e-21)
(-0.1577 0.04597 0)
(0.6859 -0.06469 5.097e-22)
(0.7375 -0.2051 2.455e-22)
(-0.08681 0.01487 -9.286e-22)
(1.069 -0.1307 -4.688e-21)
(-0.02987 0.006587 0)
(-0.1098 0.03646 4.05e-21)
(0.6938 -0.06567 1.529e-21)
(-0.0754 0.02416 -8.425e-23)
(0.2994 -0.08277 -1.061e-21)
(0.01001 -0.02367 7.232e-22)
(1.001 -0.0003367 0)
(1.051 -0.06969 -4.628e-21)
(-0.04675 0.008646 0)
(0.9992 -0.007125 0)
(-0.06546 0.01464 0)
(-0.04319 0.004486 9.94e-22)
(0.999 -9.433e-06 1.831e-21)
(0.979 -0.2112 1.906e-22)
(-0.02588 0.003163 0)
(1.028 -0.01895 0)
(0.8502 0.3903 -1.107e-20)
(-0.0004072 0.02383 0)
(0.04323 -0.01334 0)
(1.027 -0.1424 -5.843e-21)
(1.003 2.239e-05 -1.201e-22)
(-0.07238 0.01784 -1.985e-22)
(-0.07975 0.02309 -3.923e-22)
(1.01 -0.00206 2.458e-20)
(0.907 0.3497 3.866e-21)
(1.044 0.08229 6.629e-21)
(-0.1632 0.04718 1.043e-20)
(-0.06829 0.01857 -6.534e-21)
(1.02 -0.1798 -1.164e-21)
(1.045 -0.03007 0)
(-0.004476 -0.000728 -1.724e-22)
(-0.0005482 0.0001415 1.629e-22)
(0.3229 -0.06888 -1.464e-23)
(0.4206 -0.06743 -1.478e-21)
(-0.1632 0.05273 -3.758e-21)
(0.05009 -0.004197 0)
(0.9928 -1.029e-06 -3.635e-21)
(0.4976 -0.05345 3.107e-21)
(1.004 0.005533 2.142e-22)
(-0.1416 0.04254 0)
(0.6029 -0.288 -3.369e-21)
(-0.06998 0.01271 0)
(0.73 -0.203 2.15e-21)
(0.01291 -0.01535 -1.856e-22)
(-0.01349 0.002045 0)
(0.9993 0.002229 -1.225e-20)
(-0.001519 0.0005573 0)
(-0.03064 0.009722 0)
(-0.03916 0.01127 3.347e-21)
(0.829 -0.06924 4.723e-21)
(0.4746 0.1516 0)
(-0.1279 0.03954 -3.835e-21)
(-0.02202 -0.01329 9.032e-21)
(0.1342 -0.009676 0)
(0.7724 -0.1086 0)
(0.8833 0.00505 -8.033e-20)
(0.00756 -0.0003793 1.655e-22)
(-0.1677 0.05811 2.832e-21)
(0.379 -0.02735 0)
(0.2345 -0.05116 1.608e-22)
(0.4994 -0.07669 0)
(0.4382 -0.2677 -6.029e-21)
(0.02015 -0.01471 3.848e-21)