/*--------------------------------*- C++ -*----------------------------------*\
  =========                 |
  \\      /  F ield         | OpenFOAM: The Open Source CFD Toolbox
   \\    /   O peration     | Website:  https://openfoam.org
    \\  /    A nd           | Version:  8
     \\/     M anipulation  |
\*---------------------------------------------------------------------------*/
FoamFile
{
    version     2.0;
    format      ascii;
    class       volScalarField;
    location    "10";
    object      nut;
}
// * * * * * * * * * * * * * * * * * * * * * * * * * * * * * * * * * * * * * //

dimensions      [0 2 -1 0 0 0 0];

internalField   nonuniform List<scalar> 
127143
(
4.622e-14
6.799e-16
2.319e-15
2.435e-14
6.939e-07
2.53e-14
8.003e-07
8.89e-07
6.396e-07
1.276e-06
1.137e-06
8.542e-07
1.149e-14
4.629e-14
1.307e-06
7.178e-08
1.55e-13
0.0001038
2.04e-05
7.892e-08
1.297e-05
1.195e-07
7.118e-05
5.144e-06
1.112e-07
4.831e-06
5.085e-06
4.979e-06
5.757e-07
0.0002015
4.815e-06
2.855e-06
3.217e-06
1.215e-05
3.701e-05
3.779e-06
9.963e-05
3.625e-05
5.104e-06
1.708e-06
2.04e-05
2.016e-06
2.204e-06
5.972e-13
0.0001036
1.231e-05
5.751e-07
0.0001014
4.461e-06
5.092e-06
7.49e-08
0.0003159
6.551e-06
1.794e-05
0.006685
3.603e-06
0.006685
0.0003055
0.003945
2.064e-05
2.861e-06
1.566e-05
5.956e-06
0.006702
1.392e-05
1.962e-05
2.982e-05
5.623e-06
5.623e-06
0.001377
5.11e-06
7.729e-06
9.373e-05
0.003342
0.006696
6.562e-06
0.0004323
8.214e-05
3.598e-06
0.006705
1.161e-06
1.006e-07
1.9e-05
2.388e-06
0.0001995
8.519e-05
5.218e-06
5.043e-06
1.822e-05
3.432e-06
0.002066
4.87e-05
3.778e-06
1.297e-05
1.852e-05
0.0002383
2.229e-06
5.07e-06
4.447e-05
3.325e-05
0.006705
4.443e-06
3.229e-06
8.249e-05
6.501e-05
4.656e-05
6.188e-06
0.001377
6.856e-06
0.006683
1.381e-06
5.411e-06
1.57e-05
6.465e-07
0.003155
8.565e-05
0.00036
0.006696
0.0005417
6.451e-09
0.006684
1.696e-05
1.377e-05
0.0002445
1.147e-06
2.907e-06
1.564e-05
0.0006358
6.472e-06
3.326e-06
4.06e-05
2.558e-05
9.151e-06
8.835e-05
4.156e-11
5.212e-05
0.0002217
9.442e-06
6.792e-07
0.0001404
4.376e-05
0.0005639
8.69e-06
1.305e-05
6.649e-06
5.982e-06
2.4e-06
0.006703
2.558e-05
3.383e-06
4.138e-05
4.31e-06
2.962e-05
2.086e-05
2.039e-06
0.0001486
0.0002445
2.954e-06
0.0001104
4.778e-06
5.328e-06
2.051e-07
0.001878
5.472e-05
3.533e-06
1.393e-05
9.383e-05
6.337e-06
4.524e-06
9.768e-05
3.437e-05
1.305e-05
7.444e-05
2.731e-05
0.0006174
0.0001897
5.913e-06
6.472e-06
5.248e-06
0.002068
2.388e-05
0.0007945
0.0002015
0.0001916
3.328e-06
1.586e-05
5.839e-06
7.887e-07
5.116e-06
0.0008564
6.527e-06
9.583e-06
0.0003167
1.122e-06
1.228e-11
1.22e-05
0.006729
0.006725
1.594e-09
0.001457
0.004398
0.0001263
0.0007939
9.4e-05
4.826e-13
5.205e-06
0.0001383
3.009e-05
0.0002401
0.00349
8.492e-05
0.0002187
0.003408
4.525e-06
3.028e-05
1.115e-08
1.247e-05
2.97e-05
2.675e-05
0.0001462
5.581e-06
0.006698
4.308e-06
7.195e-06
4.944e-06
3.09e-05
3.458e-06
3.73e-05
6.83e-05
3.02e-05
1.348e-05
0.0008479
7.084e-05
6.186e-08
1.348e-05
0.0002582
5.213e-05
4.493e-11
0.003896
6.362e-06
9.267e-06
1.208e-05
0.0001959
2.951e-06
1.647e-05
8.628e-09
4.855e-06
6.119e-06
6.897e-09
0.001334
3.88e-06
4.752e-06
2.625e-05
8.729e-06
3.64e-06
6.192e-06
0.0007956
3.881e-06
3.067e-05
8.411e-06
1.164e-05
0.0006991
4.536e-05
0.0005324
8.273e-06
1.3e-05
4.467e-05
2.003e-06
3.581e-06
1.781e-05
4.414e-06
0.000617
0.0001108
6.367e-06
7.85e-06
6.407e-06
1.569e-05
4.915e-06
0.0004249
2.185e-05
0.00288
0.0001381
8.382e-05
0.006702
0.00461
1.287e-11
3.971e-05
0.003108
4.914e-06
0.001967
3.146e-05
4.218e-05
0.0002454
6.718e-05
0.002615
6.738e-06
5.107e-06
9.541e-05
0.0001955
1.763e-05
5.226e-06
2.925e-05
9.681e-06
0.0001017
4.586e-06
3.454e-06
3.022e-05
0.003105
5.138e-05
1.917e-05
5.861e-06
5.157e-05
3.486e-06
0.003608
0.003611
3.94e-06
2.43e-05
5.365e-06
3.514e-05
0.0003132
7.953e-05
5.286e-06
0.0002832
2.617e-05
3.906e-06
1.599e-05
7.411e-05
3.838e-05
4.756e-06
4.245e-06
2.464e-05
0.003829
3.981e-05
0.006729
0.006725
2.093e-05
6.832e-06
7.544e-05
2.467e-05
3.888e-05
0.0001633
2.967e-05
7.487e-06
6.289e-06
1.107e-06
4.912e-06
2.506e-05
1.443e-05
5.05e-06
6.514e-06
5.157e-06
3.898e-05
0.0001793
6.395e-06
7.269e-05
2.518e-05
8.729e-06
6.746e-06
0.006149
4.761e-06
9.549e-05
6.494e-06
8.529e-05
5.196e-06
5.082e-06
0.006698
0.001727
0.000219
1.491e-05
0.0003821
1.7e-06
0.0003008
5.411e-06
5.188e-06
0.001095
4.693e-05
5.204e-06
3.244e-07
4.772e-05
0.0004701
6.045e-05
4.654e-06
5.245e-06
2.207e-05
0.0003789
4.804e-07
2.312e-05
1.81e-06
1.219e-05
4.968e-05
0.004875
9.558e-06
5.047e-05
3.7e-06
5.131e-06
5.216e-06
9.767e-06
5.096e-06
7.078e-05
0.0009552
4.145e-06
0.006698
9.861e-06
0.0002067
2.441e-05
2.788e-05
8.698e-05
1.005e-05
0.006705
5.208e-06
8.477e-06
4.938e-06
4.226e-05
8.566e-05
1.246e-05
1.84e-05
3.247e-05
4.414e-06
2.473e-05
7.631e-06
0.0001019
6.039e-06
2.999e-05
0.001849
3.034e-05
7.648e-06
2.075e-06
3.47e-05
1.168e-05
0.0001079
0.006681
3.758e-05
0.0001685
8.513e-05
1.051e-05
0.006698
2.489e-05
2.235e-05
0.0003475
0.002777
0.006695
5.074e-06
0.000183
6.808e-06
0.0002193
5.08e-06
0.002644
3.419e-06
0.0002171
0.0002429
1.948e-05
5.185e-06
3.304e-05
1.636e-05
2.199e-05
0.0001378
4.978e-06
9.722e-06
0.000109
2.004e-05
1.1e-05
6.132e-06
3.088e-05
5.152e-07
5.927e-06
0.0007954
0.000849
7.437e-06
2.25e-05
0.006674
3.062e-05
4.28e-05
0.0002185
2.536e-05
0.0001842
0.006652
1.7e-06
4.142e-05
5.658e-05
1.021e-05
2.36e-07
3.381e-06
1.674e-05
3.488e-06
6.952e-06
1.052e-05
1.346e-05
0.006412
4.89e-06
0.0005166
4.42e-06
5.247e-06
6.269e-06
5.978e-06
1.419e-11
5.576e-05
8.863e-07
0.0006152
9.774e-07
0.004568
2.339e-07
0.0008848
0.0001611
1.225e-05
2.358e-13
1.553e-09
1.315e-09
0.006698
2.811e-05
4.994e-06
0.00352
4.88e-05
1.581e-05
7.023e-05
7.552e-05
1.966e-05
5.188e-06
3.057e-05
7.844e-06
0.0009382
0.0002526
1.52e-08
5.805e-06
5.091e-06
3.966e-05
0.004003
4.524e-05
0.0009314
3.594e-05
0.006238
5.021e-06
3.95e-06
5.248e-05
0.006684
7.437e-06
0.0002078
2.515e-05
6.801e-06
4.448e-06
4.662e-05
0.0004777
8.186e-05
1.328e-05
0.006674
2.917e-05
2.508e-05
5.15e-06
5.193e-06
2.092e-05
3.058e-05
1.219e-05
2.194e-05
1.045e-05
7.467e-05
3.635e-05
0.00237
2.169e-06
3.996e-05
5.062e-06
8.56e-06
0.0001252
0.006703
0.006701
9.591e-06
2.349e-05
1.183e-06
0.003095
0.004604
9.802e-06
2.989e-06
8.16e-05
8.361e-06
2.781e-05
7.447e-06
4.19e-05
0.0006647
0.006684
5.253e-05
3.117e-05
1.189e-05
0.004728
7.665e-06
1.111e-05
2.952e-05
0.0004699
5.213e-06
0.003012
6.554e-05
0.0002314
5.092e-05
0.005132
4.672e-05
1.164e-05
6.263e-07
0.006651
6.443e-06
1.304e-05
0.006695
2.795e-05
0.002619
5.13e-06
1.343e-05
0.006701
2.186e-05
4.888e-06
5.768e-05
1.059e-05
1.036e-05
5.148e-06
5.241e-06
1.226e-06
5.117e-06
3.931e-06
5.267e-06
0.0001649
6.737e-06
4.798e-06
0.005439
4.047e-06
0.005496
8.946e-07
0.0005353
8.889e-06
0.00668
0.002688
0.0002569
7.681e-06
1.747e-05
0.006477
0.006685
7.442e-05
7.025e-06
1.807e-05
5.036e-06
0.0001058
7.385e-06
1.898e-05
8.173e-06
6.283e-06
2.76e-05
1.024e-05
0.006476
7.89e-06
6.335e-06
0.0001001
2.276e-05
0.002136
0.004606
1.795e-05
8.96e-07
1.346e-05
1.845e-06
0.0005978
0.003214
4.481e-05
1.1e-05
0.0001472
1.185e-05
9.529e-05
0.0009338
3.015e-05
3.469e-05
6.387e-06
1.833e-05
1.6e-12
3.499e-05
0.0001139
0.0001311
3.642e-05
1.313e-05
5.26e-06
1.809e-05
0.0002945
6.37e-06
0.0001098
9.855e-06
0.006683
4.936e-06
1.475e-05
2.739e-06
0.006683
0.006682
1.862e-06
0.0008492
4.371e-06
1.028e-05
4.91e-06
5.136e-05
1.157e-05
5.027e-06
6.378e-06
3.625e-06
0.00671
0.006674
4.047e-06
7.65e-06
1.683e-05
3.026e-06
2.195e-06
6.426e-05
4.132e-06
9.527e-05
9.853e-05
0.00372
4.397e-06
0.0001973
3.666e-06
3.936e-11
1.35e-05
9.077e-06
4.508e-05
0.004899
6.892e-06
5.111e-06
4.843e-06
5.689e-05
1.847e-05
6.282e-06
3.356e-06
3.257e-05
6.759e-06
1.832e-05
3.836e-06
6.074e-06
1.93e-05
1.558e-05
5.79e-05
6.694e-13
1.751e-05
0.0001117
6.3e-06
9.929e-06
5.23e-06
0.006694
0.0001628
4.154e-05
9.239e-05
0.002971
1.784e-06
3.579e-05
5.207e-06
0.003137
1.83e-05
0.0001604
2.174e-05
9.054e-06
0.003803
6.902e-05
4.795e-05
2.47e-05
8.532e-06
0.001287
7.488e-06
1.019e-06
0.002282
2.98e-05
4.625e-05
1.238e-05
5.6e-05
2.896e-05
1.347e-05
3.433e-06
4.707e-05
0.006642
6.938e-05
2.108e-05
3.954e-06
4.925e-06
1.873e-05
4.783e-05
3.166e-05
0.00666
5.677e-05
3.035e-05
1.034e-05
1.452e-07
1.051e-05
5.542e-05
1.041e-05
0.0002073
4.538e-05
0.006697
3.387e-13
3.882e-05
1.01e-05
3.139e-05
8.845e-05
7.884e-05
6.609e-05
5.114e-06
0.006683
4.25e-05
8.294e-05
0.003519
4.34e-05
4.424e-06
6.114e-06
1.84e-05
0.006667
1.845e-05
0.0001806
0.006511
0.006662
2.307e-05
1.612e-05
0.0001052
8.416e-05
8.611e-05
1.073e-07
5.715e-05
6.055e-06
0.006683
5.893e-05
0.000111
5.223e-06
4.865e-06
5.472e-06
0.00276
0.004225
0.0001841
7.383e-06
0.006683
9.475e-05
4.219e-06
7.445e-06
3.808e-06
0.006202
0.0002344
6.892e-06
0.006699
5.055e-06
0.006683
6.328e-06
3.741e-07
1.428e-05
1.446e-05
1.188e-06
0.002002
2.135e-05
1.58e-05
5.015e-06
8.338e-05
5.136e-06
3.056e-06
1.932e-05
5.994e-05
9.776e-06
1.107e-06
0.006701
3.167e-05
3.217e-06
4.023e-06
0.000107
2.693e-06
0.00286
0.0002124
5.158e-05
2.179e-06
4.51e-06
4.67e-06
3.096e-08
4.099e-06
1.92e-06
2.868e-05
3.652e-05
5.074e-05
1.825e-06
0.0004034
5.516e-06
0.004716
0.005206
7.448e-06
0.0002961
8.103e-06
4.474e-05
6.03e-07
0.0001818
0.000486
3.699e-06
6.095e-06
0.004062
9.191e-05
9.411e-05
0.0005714
1.991e-05
5.307e-07
0.0002363
3.736e-05
1.295e-06
2.016e-05
6.968e-05
0.006703
6.27e-06
3.668e-06
0.006199
2.159e-05
4.485e-05
1.659e-05
0.00667
0.0001883
7.445e-05
4.099e-08
1.598e-05
5.432e-07
2.328e-05
9.304e-06
7.386e-06
9.627e-06
1.041e-05
0.005733
8.475e-07
3.987e-06
0.005308
7.944e-06
8.544e-08
5.158e-05
6.147e-06
2.939e-05
9.724e-05
4.886e-06
1.169e-06
5.255e-06
0.0005381
0.006698
3.44e-05
6.438e-06
7.763e-05
2.253e-05
8.964e-07
2.266e-06
3.458e-05
2.935e-05
2.263e-06
0.0001312
9.242e-06
0.006694
0.0001074
4.305e-05
8.96e-06
3.824e-05
3.34e-05
0.006698
0.001218
3.99e-05
3.676e-05
0.0001073
4.927e-06
6.593e-05
0.0001323
1.675e-05
4.797e-06
9.251e-06
1.037e-06
6.913e-06
5.005e-06
2.668e-05
3.093e-05
7.038e-05
1.275e-06
7.981e-05
3.212e-05
3.232e-07
3.538e-05
0.006693
0.006696
5.501e-05
0.0001333
8.786e-05
0.006759
6.593e-06
1.897e-05
0.0002743
6.705e-05
1.993e-05
3.399e-05
1.225e-06
0.006705
7.169e-05
0.0003029
2.708e-06
4.515e-06
0.000161
7.698e-06
3.564e-05
1.49e-05
5.138e-06
1.116e-05
3.303e-05
6.627e-06
5.184e-06
0.0001046
1.413e-06
0.006215
5.166e-06
8.745e-06
2.052e-05
9.412e-06
1.584e-06
0.002301
2.657e-06
1.028e-06
0.006423
0.006695
6.142e-06
1.616e-05
3.317e-08
0.0001046
5.585e-06
3.545e-06
4.557e-05
7.697e-05
0.0001341
0.001443
3.743e-05
0.0002286
5.55e-05
5.593e-05
1.996e-05
8.484e-05
0.005881
1.268e-06
0.0001353
0.006693
1.663e-05
0.00594
0.006703
1.898e-05
7.395e-05
4.795e-06
0.006691
5.05e-06
0.006697
4.217e-06
9.528e-05
9.696e-05
5.655e-05
4.333e-06
4.904e-06
2.917e-05
9.294e-06
0.002941
0.0008274
9.169e-06
4.487e-06
7.94e-05
4.532e-05
1.474e-06
3.748e-05
2.375e-06
1.115e-05
3.538e-06
7.606e-06
5.304e-06
3.981e-06
3.066e-06
6.048e-05
0.004932
1.82e-05
0.0001322
4.92e-06
0.001902
3.987e-06
1.326e-05
5.657e-06
7.916e-06
6.627e-06
0.0001557
1.742e-05
1.783e-05
5.659e-06
0.0001075
3.416e-06
8.199e-05
0.006605
1.312e-05
1.873e-05
0.001963
2.296e-05
1.495e-05
0.006754
4.432e-05
9.51e-05
0.0005957
2.747e-06
2.511e-05
5.44e-05
0.0001027
0.006741
2.748e-05
3.115e-05
0.005293
3.912e-06
9.206e-05
2.007e-05
2.847e-05
5.052e-05
0.0004507
3.981e-05
5.467e-07
4.042e-06
4.864e-06
2.46e-05
1.849e-06
0.001604
5.179e-06
0.006699
5.581e-05
4.942e-06
1.817e-05
7.902e-06
4.543e-05
8.286e-06
0.006699
9.607e-09
1.936e-05
1.993e-05
6.864e-06
3.741e-06
1.465e-05
6.975e-05
4.609e-06
6.677e-06
4.25e-05
2.387e-08
0.0001335
5.292e-06
4.186e-06
4.978e-06
4.271e-06
8.071e-05
1.692e-05
5.92e-06
6.992e-05
1.349e-05
5.195e-06
5.329e-06
5.403e-05
1.002e-06
0.0003913
5.35e-06
0.0001845
4.978e-06
0.006729
0.006692
2.018e-05
5.995e-07
9.673e-05
0.000868
2.702e-06
4.667e-05
0.006699
6.662e-06
5.538e-06
1.675e-05
6.172e-07
2.473e-05
0.0001221
1.286e-11
8.675e-05
7.971e-06
2.615e-05
6.199e-06
1.099e-05
4.878e-06
4.852e-06
7.877e-06
1.884e-05
0.0005627
0.000126
1.368e-05
3.655e-05
3.817e-05
5.289e-06
8.417e-05
6.867e-06
0.0001128
9.865e-05
0.0001911
1.896e-06
1.135e-05
3.895e-05
1.123e-06
3.074e-05
7.706e-06
1.359e-05
0.0001021
6.851e-05
0.006697
2.207e-05
6.946e-06
1.297e-05
1.836e-05
3.705e-06
4.613e-06
0.006684
4.357e-06
3.613e-05
1.504e-05
1.161e-06
6.266e-06
4.365e-05
5.856e-05
0.001773
5.501e-05
8.006e-05
6.575e-06
1.996e-05
0.001257
1.087e-05
0.003437
2.172e-06
1.016e-06
9.83e-05
7.018e-05
3.491e-05
0.006492
0.006681
7.67e-05
0.0002268
1.824e-05
5.281e-05
0.002396
0.002128
1.11e-06
3.537e-05
3.771e-05
6.655e-06
5.072e-06
1.207e-06
2.791e-05
5.23e-06
0.0001285
5.303e-05
0.006685
4.864e-06
1.928e-05
1.064e-05
1.09e-06
2.377e-05
1.845e-05
6.419e-05
6.544e-06
9.378e-06
3.357e-08
6.732e-05
2.621e-05
8.523e-05
1.789e-05
7.41e-05
4.852e-06
9.118e-07
3.845e-05
4.919e-05
0.006685
5.12e-06
3.284e-06
0.006695
2.217e-06
1.369e-05
9.473e-05
4.94e-06
0.006689
2.017e-05
4.964e-08
0.002239
5.195e-06
3.028e-05
5.614e-06
3.804e-07
5.101e-05
8.203e-05
5.673e-05
3.527e-06
6.659e-05
1.686e-05
9.278e-06
7.637e-06
7.576e-06
3.004e-06
4.43e-06
4.304e-05
0.006694
4.738e-06
4.361e-05
4.989e-06
3.567e-06
2.107e-05
5.298e-05
0.006657
0.0001234
6.128e-05
0.006211
6.388e-05
0.00635
3.491e-06
9.027e-05
5.465e-07
7.701e-05
7.912e-06
4.584e-06
1.493e-05
5.078e-06
3.42e-06
1.811e-06
3.712e-05
5.247e-05
9.929e-06
1.097e-05
0.0001076
0.006702
0.0001618
0.0007297
1.884e-05
0.0067
0.0001711
0.006689
4.593e-06
9.486e-05
0.006748
0.00604
9.283e-05
5.258e-05
2.092e-05
7.608e-05
0.006782
8.594e-06
2.503e-05
4.425e-05
6.094e-10
1.189e-05
1.3e-07
4.967e-06
9.757e-06
5.079e-06
4.567e-06
0.000206
7.15e-05
2.109e-06
0.0002299
2.948e-05
1.544e-05
7.432e-06
6.914e-06
2.225e-05
0.00669
1.817e-06
3.08e-05
2.654e-06
0.0067
1.078e-06
8.037e-06
4.924e-06
0.0001288
0.006653
0.006652
0.0001364
6.155e-05
0.0001742
1.626e-05
6.949e-06
5.343e-05
3.132e-06
0.0003379
9.626e-05
3.059e-06
1.034e-05
0.0001353
2.263e-05
7.173e-05
1.279e-05
1.977e-05
6.953e-06
5.029e-06
4.556e-05
0.001725
0.0001372
0.0001178
3.252e-06
7.348e-06
0.000515
1.007e-05
0.0002258
5.141e-06
0.0001735
1.089e-05
0.0001849
0.006693
0.000137
1.848e-05
1.142e-06
1.057e-06
9.179e-05
4.652e-05
1.954e-05
8.415e-05
0.006627
2.95e-06
2.383e-05
5.236e-08
2.509e-05
9.506e-07
0.0001351
0.006696
7.772e-06
2.686e-05
1.327e-05
6.578e-06
9.509e-06
5.994e-05
8.122e-06
5.549e-06
0.0003401
3.998e-06
0.0001597
5.21e-06
1.744e-05
5.033e-06
0.002751
0.002748
5.34e-06
7.941e-06
2.712e-06
5.168e-06
5.059e-06
4.72e-06
1.756e-06
0.0002722
7.535e-05
0.0002428
0.002133
0.006692
0.0001256
0.006493
8.563e-07
0.006695
4.583e-06
3.607e-05
6.071e-06
7.138e-06
5.143e-06
0.001401
2.721e-07
3.84e-05
9.114e-07
2.653e-05
6.178e-06
0.005253
1.991e-05
3.648e-05
2.328e-05
2.223e-05
3.966e-05
6.441e-05
3.061e-06
1.475e-06
0.0002757
0.006666
1.061e-05
0.001452
0.006771
4.918e-05
1.129e-05
0.006667
2.888e-06
0.006698
6.587e-06
1.063e-05
1.123e-05
1.039e-06
0.006678
9.61e-05
1.955e-05
6.392e-05
1.674e-05
3.485e-05
2.921e-05
0.004647
0.006687
6.197e-06
4.229e-08
2.531e-05
5.913e-06
0.0005748
1.994e-06
8.476e-05
4.341e-05
0.002126
1.665e-05
5.536e-05
5.07e-06
0.0004311
8.941e-06
0.0005984
6.474e-06
0.006704
2.189e-06
1.103e-05
0.0002282
4.876e-07
3.703e-06
3.22e-05
0.00669
1.021e-05
4.704e-06
5.277e-05
1.101e-06
4.82e-06
2.811e-05
0.0004673
1.154e-05
2.899e-06
7.91e-06
3.66e-06
6.3e-06
0.001955
2.963e-05
0.006703
5.72e-06
4.374e-06
5.82e-06
0.006697
3.021e-05
0.006694
0.0001909
6.239e-05
0.006716
3.286e-05
0.000377
8.045e-06
1.026e-05
0.0005839
5.329e-06
0.006697
3.537e-06
5.871e-07
7.484e-05
1.985e-05
4.99e-06
0.001126
1.723e-05
0.0001827
4.604e-06
8.952e-06
0.0001695
5.059e-06
1.203e-05
8.695e-06
8.884e-07
0.0002066
1.934e-05
1.188e-05
0.0002168
4.897e-06
2.484e-05
6.351e-06
6.063e-06
0.0001961
0.001124
2.157e-05
7.862e-05
1.788e-05
8.031e-05
1.099e-06
8.536e-05
2.853e-06
0.0001187
0.006667
2.602e-06
5.018e-06
0.0002106
5.113e-06
0.0004134
1.066e-05
0.006705
1.362e-05
2.989e-06
1.308e-05
5.909e-06
8.125e-06
4.891e-06
0.006696
7.165e-06
5.125e-06
7.894e-06
7.277e-06
0.0003889
5.525e-06
5.143e-06
0.006695
0.0001418
0.0001658
0.001774
6.885e-06
3.279e-05
3.527e-05
4.891e-06
0.0001121
0.0002185
0.002251
2.809e-05
8.852e-06
0.006607
2.045e-05
4.755e-06
2.61e-06
0.006749
6.485e-05
2.673e-06
4.523e-05
6.012e-06
2.575e-05
5.207e-06
2.653e-06
0.002058
0.001166
0.0001439
0.0008574
1.579e-05
4.651e-06
0.0001345
3.652e-06
1.937e-05
0.0003666
8.52e-06
5.803e-09
7.336e-07
0.0001511
0.0001361
2.363e-05
0.000249
0.0001191
3.154e-05
0.0002067
1.914e-05
8.647e-05
9.319e-05
9.11e-06
3.298e-06
4.036e-05
0.0001546
0.002979
3.073e-06
0.000158
4.707e-05
5.613e-06
4.491e-05
4.924e-06
0.0001514
4.612e-05
0.006763
3.36e-06
4.801e-06
2.628e-05
1.491e-05
2.136e-05
1.098e-06
3.943e-06
0.0001008
2.39e-05
5.878e-06
1.096e-05
5.592e-06
1.039e-06
0.006641
6.173e-06
1.483e-06
5.133e-06
0.004711
0.00012
5.546e-05
5.188e-06
1.903e-05
0.0002245
4.979e-06
0.005462
4.406e-06
4.841e-06
0.0001688
0.0001812
0.003772
5.376e-06
3.904e-06
5.152e-06
3.374e-06
3.411e-06
0.0001439
2.427e-06
0.001402
1.369e-06
1.611e-05
5.578e-05
7.337e-05
2.725e-05
1.121e-05
0.0001093
5.348e-06
0.002568
6.331e-06
1.214e-06
4.094e-06
0.0001161
2.512e-05
2.968e-05
1.027e-05
0.00104
0.0001095
5.702e-06
8.566e-05
0.003573
6.147e-06
5.294e-06
5.049e-06
0.0001102
4.285e-05
4.711e-06
1.864e-05
1.433e-06
2.056e-06
1.28e-06
0.0001695
5.916e-06
1.143e-06
1.627e-05
1.802e-05
7.952e-05
2.952e-05
1.383e-05
1.358e-09
1.836e-05
2.599e-05
0.003145
0.0002766
1.498e-06
0.0001026
0.003557
0.006698
1.87e-05
5.01e-06
0.0002254
5.566e-06
2.95e-06
1.261e-06
0.0009264
5.065e-06
6.546e-05
0.0001231
4.873e-06
3.411e-05
0.0001802
6.65e-06
3.665e-05
0.0001119
1.049e-05
0.006698
3.079e-05
2.539e-05
5.117e-06
0.0001117
4.922e-06
9.963e-06
4.343e-05
5.04e-06
2.077e-05
1.914e-05
5.212e-06
2.073e-05
8.23e-06
2.98e-05
6.231e-05
6.478e-05
1.543e-05
0.0001229
1.645e-06
3.992e-05
0.004615
0.000119
7.966e-05
5.053e-06
8.147e-06
0.0006903
2.013e-05
4.212e-05
1.041e-05
0.003027
0.0001138
0.000241
0.0001587
0.0001336
9.158e-06
8.316e-05
2.432e-06
0.0001782
0.0001829
3.159e-05
0.006677
0.0001637
3.864e-05
0.0001356
1.334e-05
0.006689
0.0001405
5.16e-06
2.573e-05
0.006698
0.0006929
0.0001182
1.895e-05
5.109e-06
0.0007668
1.121e-05
0.0001704
3.658e-06
5.109e-06
6.131e-05
8.593e-06
2.624e-05
0.0005891
5.426e-06
3.715e-07
1.578e-05
3.685e-06
5.168e-06
1.429e-05
1.104e-06
0.003097
0.006667
1.066e-05
7.621e-05
1.664e-06
0.006698
2.014e-05
3.042e-05
2.605e-06
2.787e-05
4.356e-06
0.006299
0.006456
5.305e-06
1.616e-05
0.0001789
2.248e-06
3.73e-05
4.413e-05
0.0001591
0.006705
5.031e-06
4.708e-06
6.489e-06
0.0001705
4.145e-06
0.0001758
2.058e-05
0.006741
3.592e-05
5.024e-06
4.487e-06
3.359e-06
2.912e-05
2.268e-06
5.721e-05
6.792e-06
5.26e-06
2.136e-05
2.866e-05
0.0001295
6.623e-06
9.35e-06
0.004594
0.005197
4.188e-05
0.0001081
3.504e-06
8.212e-06
4.197e-06
1.214e-05
0.001171
0.005105
6.542e-06
0.006702
2.238e-05
2.089e-06
4.36e-06
0.0001111
1.063e-05
0.0001359
2.683e-06
3.868e-06
0.002034
2.918e-05
3.999e-05
5.94e-06
0.0001716
1.355e-05
3.384e-05
9.441e-06
1.038e-05
8.267e-05
2.245e-05
2.467e-05
2.329e-06
5.514e-06
2.771e-05
0.0001179
3.31e-06
0.0001344
6.189e-05
4.215e-05
6.146e-07
6.927e-06
2.697e-05
2.483e-06
0.0001465
1.045e-05
0.001014
0.0001417
0.006703
5.14e-06
1.692e-05
2.453e-06
3.228e-05
4.295e-05
1.442e-05
7.614e-07
4.663e-06
1.011e-05
7.264e-06
5.028e-06
8.095e-06
0.0006167
0.0001525
9.594e-06
2.204e-06
3.945e-05
6.81e-05
0.0006335
7.505e-05
0.003808
9.813e-06
2.677e-06
7.494e-05
4.347e-05
0.0001554
6.055e-05
1.088e-05
0.00673
1.418e-05
0.0001268
0.0002325
2.216e-06
0.0002099
3.602e-05
2.245e-05
2.922e-05
8.973e-06
1.526e-05
2.544e-06
3.783e-05
6.235e-06
0.006716
0.0001172
1.59e-05
1.359e-05
3.701e-06
1.007e-05
2.408e-05
8.096e-06
0.003029
4.193e-06
4.743e-06
6.866e-06
5.754e-06
8.073e-06
1.115e-05
5.099e-06
4.098e-06
5.627e-06
2.208e-05
9.918e-07
5.525e-06
6.058e-05
5.262e-05
2.745e-06
0.001678
4.546e-05
0.002391
0.0067
5.995e-06
0.001912
4.189e-05
1.313e-05
3.306e-05
9.17e-06
5.132e-06
1.114e-05
4.508e-05
2.936e-06
3.245e-05
0.0001631
7.787e-09
2.22e-05
5.532e-05
0.0003131
1.283e-07
1.217e-05
6.961e-06
8.157e-07
0.003147
1.909e-05
5.114e-06
8.771e-05
1.294e-05
1.116e-05
3.71e-06
1.957e-05
2.953e-05
2.251e-05
0.0001136
2.99e-05
0.006701
4.677e-05
1.326e-05
6.621e-05
1.476e-05
7.15e-06
1.577e-06
2.304e-05
0.003427
1.944e-05
4.328e-05
5.77e-05
8.508e-06
2.008e-05
9.517e-07
5.024e-06
2.19e-06
2.733e-06
6.396e-05
5.092e-06
4.853e-05
5.235e-05
7.405e-05
1.764e-05
8.119e-08
1.578e-05
6.198e-06
8.249e-06
0.006559
4.79e-06
2.113e-05
0.0001192
9.045e-05
2.795e-06
1.674e-05
4.935e-06
3.493e-05
1.02e-05
3.686e-06
0.006427
1.902e-05
1.493e-05
7.088e-05
2.445e-05
3.297e-06
0.004859
2.51e-05
1.548e-05
3.181e-05
4.364e-06
2.045e-05
9.605e-06
1.826e-06
6.507e-05
5.054e-06
0.006761
0.006754
5.103e-06
1.862e-05
2.082e-05
6.827e-06
5.305e-06
0.006688
1.129e-05
4.186e-06
6.517e-06
0.002282
0.002892
6.291e-06
2.424e-05
5.076e-06
1.201e-06
3.466e-06
0.006123
5.101e-06
1.331e-06
9.054e-05
4.39e-06
5.252e-06
0.001881
0.0001054
1.856e-05
5.93e-05
0.0001872
0.006656
0.006617
0.00664
0.006376
0.000557
0.0002347
2.692e-05
3.485e-06
5.744e-05
9.784e-05
1.505e-05
1.104e-05
0.006105
2.731e-05
0.0001126
2.319e-05
1.254e-05
1.639e-05
0.0001195
7.088e-06
4.982e-06
6.878e-06
5.152e-06
0.0003517
5.887e-06
1.395e-08
4.678e-06
4.552e-06
2.772e-06
6.869e-06
0.005329
1.185e-07
4.186e-05
3.933e-06
5.203e-05
0.0001094
1.973e-06
0.006696
0.0001235
1.53e-05
0.005097
1.138e-05
8.394e-05
1.025e-05
0.000139
7.036e-06
4.576e-05
2.975e-05
0.006634
5.754e-06
1.27e-05
6.523e-05
9.02e-05
1.033e-05
0.006718
0.003008
2.331e-05
6.303e-05
1.914e-05
0.0003947
1.263e-05
9.313e-06
0.0001054
2.615e-06
4.988e-06
3.718e-05
4.467e-05
0.0002481
6.568e-05
0.0001994
2.432e-06
1.888e-06
0.004664
2.468e-06
0.004407
0.006538
3.878e-05
0.001402
1.95e-06
3.353e-05
4.901e-06
8.086e-05
4.352e-06
0.006697
0.0004172
8.469e-05
4.992e-06
0.0001372
0.003503
5.604e-05
3.453e-06
8.166e-06
0.006703
7.537e-06
9.381e-06
2.838e-08
0.001939
3.771e-05
1.633e-05
0.0001037
0.0004193
4.713e-05
5.195e-06
4.02e-06
4.917e-06
5.122e-06
1.044e-09
0.004884
4.391e-06
1.229e-05
5.3e-06
0.006696
5.001e-06
3.958e-06
2.464e-06
8.693e-07
0.0002079
1.612e-05
1.257e-06
0.0004176
5.954e-05
0.00669
1.311e-05
9.039e-06
3.12e-05
1.841e-05
8.751e-07
5.102e-05
0.0001472
1.093e-05
0.006706
0.00191
5.27e-06
1.501e-05
6.58e-05
9.347e-06
1.014e-05
0.0001637
2.75e-05
6.879e-06
8.877e-05
6.487e-05
0.005033
6.728e-06
6.208e-06
4.874e-06
4.059e-05
7.638e-06
5.095e-06
1.144e-06
2.385e-06
2.265e-06
1.815e-08
5.092e-06
0.0002886
2.449e-06
0.0002764
5.152e-06
1.159e-06
0.00447
2.258e-06
0.006705
6.183e-05
5.361e-06
2.44e-06
5.13e-05
4.222e-06
6.225e-05
5.063e-06
0.006651
1.826e-08
8.796e-06
0.002104
2.207e-05
0.0001365
1.614e-07
2.992e-06
1.789e-07
1.229e-05
3.764e-06
1.959e-06
9.473e-06
1.769e-05
6.339e-06
6.298e-06
0.006674
6.27e-05
7.426e-06
0.0001125
7.289e-06
0.0001731
3.442e-05
4.729e-06
5.582e-06
5.672e-06
2.484e-06
0.003759
4.685e-06
2.725e-05
1.004e-05
7.353e-05
0.002287
6.325e-05
1.124e-05
1.582e-05
1.634e-05
2.394e-06
0.002134
0.002011
7.427e-05
4.843e-06
7.754e-06
0.0001195
2.407e-05
0.006502
0.0002109
5.009e-06
0.006342
3.567e-05
3.792e-06
0.0001193
2.82e-05
0.0001653
2.828e-07
2.695e-06
1.215e-06
5.994e-05
5.165e-06
0.0001053
1.249e-05
5.427e-05
1.844e-05
4.955e-06
7.749e-05
3.275e-06
4.89e-06
1.32e-05
5.204e-06
4.324e-05
2.296e-06
0.0002407
5.864e-06
7.052e-06
0.002635
8.992e-06
0.0001053
0.001227
1.891e-05
8.414e-07
4.093e-05
5.958e-06
8.844e-06
3.132e-07
7.644e-07
8.345e-05
5.175e-09
0.0007
3.866e-05
8.951e-05
0.0001359
2.206e-05
0.006705
5.857e-06
1.84e-06
4.908e-05
8.102e-06
4.154e-05
1.383e-05
8.344e-06
3.462e-05
2.936e-05
1.378e-05
0.0001822
7.185e-06
1.831e-05
0.005153
0.0001208
5.653e-06
0.006701
0.0004892
4.66e-06
0.006698
8.528e-06
2.593e-05
4.82e-06
5.414e-05
4.834e-06
0.001373
5.531e-05
2.891e-05
3.939e-06
1.581e-05
2.507e-06
8.41e-06
0.006688
4.205e-06
0.006717
0.0003903
3.993e-05
4.855e-05
1.153e-06
2.992e-05
5.126e-06
3.011e-05
4.439e-06
2.02e-05
0.0007958
3.664e-05
4.482e-05
0.006675
7.721e-05
0.006697
4.308e-06
1.269e-05
4.874e-06
7.131e-05
0.006654
2.405e-05
5.148e-06
6.046e-06
8.154e-06
1.097e-05
3.088e-05
0.0003679
3.852e-05
9.683e-05
4.727e-05
1.773e-05
1.051e-05
0.0002107
6.439e-06
0.0001296
3.637e-06
5.255e-06
0.006633
0.006761
0.001368
0.0003076
3.763e-06
2.772e-05
2.696e-05
0.001416
5.079e-06
6.493e-06
5.307e-06
0.006698
5.057e-06
2.486e-05
5.19e-06
0.002332
3.061e-08
1.729e-05
5.03e-06
0.00323
0.0005898
2.691e-06
0.0002428
5.297e-06
4.946e-06
4.542e-06
3.925e-05
1.548e-05
0.006698
5.103e-06
6.83e-05
6.916e-06
0.000111
6.248e-06
4.644e-05
7.616e-05
8.87e-06
3.677e-06
0.006701
1.312e-05
1.133e-05
7.252e-06
4.628e-06
0.006702
7.857e-06
1.061e-05
2.763e-05
1.229e-05
2.957e-05
4.297e-06
0.0001585
1.054e-05
6.867e-05
9.551e-05
0.0001166
2.314e-05
0.00518
4.438e-06
1.083e-06
0.0001769
0.000122
9.518e-06
1.15e-05
5.156e-05
0.006696
0.0002176
0.0004316
0.003248
4.209e-06
3.651e-05
0.006698
0.0006778
5.79e-06
1.151e-06
0.006699
0.000101
6.963e-06
5.32e-06
4.101e-05
1.301e-05
3.32e-06
1.085e-05
5.344e-06
5.174e-06
2.247e-07
1.051e-05
0.001194
4.463e-05
1.417e-05
4.159e-05
0.006685
0.0004708
5.782e-05
0.0001428
6.009e-05
4.143e-06
2.656e-06
9.446e-05
2.223e-05
2.223e-07
2.505e-05
5.358e-06
8.246e-05
3.679e-05
9.868e-05
3.826e-06
4.611e-07
0.00669
9.812e-06
5.331e-06
0.006698
9.308e-06
2.667e-05
8.227e-06
0.0002765
8.371e-06
5.099e-06
4.38e-05
1.739e-05
0.004579
0.001585
0.0001095
0.0001206
0.006782
2.031e-05
0.0001999
1.158e-06
7.502e-05
2.056e-05
5.174e-06
5.241e-06
7.175e-05
6.885e-06
0.006716
2.354e-06
8.338e-06
3.123e-06
5.358e-06
5.996e-05
3.918e-06
1.82e-05
2.031e-05
9.664e-07
2.19e-05
2.676e-06
0.006704
0.006692
5.927e-05
2.968e-05
0.006686
9.35e-07
5.115e-06
4.176e-06
1.753e-05
1.82e-05
2.833e-05
0.005086
9.067e-07
0.0007239
8.505e-06
0.006765
1.106e-05
4.553e-05
0.0001021
3.347e-05
8.331e-06
2.721e-05
5.411e-05
0.006662
2.478e-05
2.007e-05
1.077e-06
9.54e-06
0.0005275
0.0002025
2.411e-05
0.006699
5.618e-05
2.168e-05
0.0001671
0.0001886
0.0001598
2.238e-06
0.005931
0.006718
1.657e-05
2.88e-05
9.518e-05
3.846e-06
0.006701
1.497e-05
3.751e-05
5.315e-06
0.006701
7.038e-05
5.216e-06
4.869e-06
1.861e-05
2.381e-05
2.306e-06
0.006723
3.4e-06
0.004804
1.499e-05
7.88e-07
0.0009802
0.0001306
1.421e-05
1.848e-05
4.54e-06
4.882e-05
7.789e-05
0.006662
7.702e-06
9.989e-05
0.006702
1.656e-05
5.529e-06
2.252e-05
0.00678
0.0002076
6.655e-05
9.8e-05
6.825e-06
5.047e-05
0.003944
3.757e-06
8.61e-06
4.41e-05
0.0004236
0.006698
0.006454
0.0007043
2.184e-05
7.026e-05
5.138e-06
1.106e-06
6.088e-07
8.857e-06
3.213e-07
3.677e-06
0.001269
1.08e-06
8.942e-06
2.024e-05
2.726e-05
6.975e-05
1.416e-05
1.094e-05
1.365e-05
3.059e-06
5.007e-05
0.0003366
3.076e-05
4.952e-06
5.537e-06
1.16e-05
0.0002658
0.0001101
2.891e-05
4.056e-06
0.004163
1.979e-05
3.771e-05
1.657e-05
4.837e-06
1.535e-05
1.924e-06
9.458e-06
0.006666
2.616e-06
1.914e-05
0.006771
4.98e-06
0.006696
2.557e-05
1.891e-05
0.001457
1.295e-05
7.214e-06
0.006707
2.941e-05
3.12e-05
1.432e-06
0.0006259
1.069e-05
2.923e-06
7.238e-05
0.006692
4.237e-06
0.000112
0.00052
1.261e-05
6.325e-05
5.199e-06
2.736e-06
5.226e-06
1.09e-05
1.587e-05
6.442e-05
3.433e-06
0.006703
0.0002638
5.83e-06
5.764e-06
2.976e-05
0.006701
4.659e-07
5.129e-06
9.837e-06
0.000122
5.565e-05
8.224e-06
0.006671
0.000442
3.985e-05
3.341e-05
2.536e-05
5.657e-06
4.394e-06
3.124e-05
6.587e-06
6.532e-06
1.71e-05
4.408e-05
1.758e-05
1.147e-05
2.194e-05
3.444e-05
0.006701
2.022e-05
0.0009687
0.0001269
6.383e-05
8.491e-05
1.985e-05
4.122e-05
1.088e-06
1.976e-05
1.333e-05
0.002319
0.006694
6.372e-05
1.421e-05
4.093e-06
1.01e-05
7.637e-05
4.625e-06
1.434e-06
7.472e-06
2.172e-05
9.685e-06
5.237e-06
3.226e-06
6.281e-06
7.554e-05
4.776e-06
5.068e-05
4.811e-06
2.6e-05
1.342e-05
0.0002255
5.2e-06
0.006694
0.0001158
0.0006862
0.006692
7.616e-05
4.79e-06
0.000226
5.299e-10
4.397e-06
6.007e-05
0.006699
8.82e-06
2.593e-05
0.003025
7.051e-06
6.142e-06
2.658e-05
7.354e-05
1.951e-05
0.006698
8.629e-06
0.006722
8.509e-05
2.126e-05
2.53e-06
5.972e-05
4.956e-06
6.093e-10
0.006601
0.006694
1.375e-05
8.485e-06
5.192e-06
0.0001825
5.243e-06
5.064e-06
3.659e-05
0.0001323
0.001249
4.301e-06
4.597e-06
1.41e-05
8.057e-05
0.006691
1.077e-05
4.854e-05
6.915e-06
4.887e-06
3.68e-05
0.0006157
2.839e-06
1.589e-05
0.0002739
3.384e-05
1.181e-05
8.039e-05
0.00671
0.006321
4.627e-06
2.92e-06
1.916e-05
3.232e-05
7.544e-05
0.0001611
5.182e-06
2.527e-05
0.006634
4.873e-06
1.28e-05
9.738e-07
8.821e-06
1.387e-05
0.006685
5.26e-06
5.258e-06
3.383e-05
4.097e-05
2.499e-06
2.27e-05
7.007e-06
6.047e-06
7.798e-06
5.116e-06
3.946e-06
6.741e-05
0.002034
2.566e-05
5.647e-05
1.219e-06
0.0004775
0.0001763
5.14e-06
1.309e-05
0.0001357
3.942e-06
1.393e-05
1.041e-06
2.066e-05
9.294e-07
1.778e-05
7.219e-05
1.425e-05
1.02e-06
9.342e-05
2.3e-06
2.032e-06
0.004749
2.094e-06
4.399e-06
3.756e-06
1.224e-05
7.326e-06
5.402e-05
0.0001009
6.21e-06
3.571e-05
2.886e-05
9.743e-06
5.073e-05
0.0001688
0.0001881
6.653e-05
1.245e-05
0.0001522
6.565e-05
2.322e-06
1.129e-05
2.156e-06
5.76e-06
5.171e-06
0.006657
1.736e-05
2.858e-05
1.024e-05
1.272e-05
2.511e-06
2.179e-05
5.231e-06
0.0001034
1.102e-05
7.436e-05
1.109e-05
2.238e-05
0.0004826
0.0001237
3.531e-05
1.937e-05
0.0001434
7.948e-05
1.852e-05
5.079e-06
9.316e-05
2.364e-06
2.28e-05
4.726e-08
2.578e-05
3.993e-05
0.0001059
1.887e-05
9.169e-05
3.912e-06
0.0039
0.002133
0.005247
9.851e-05
5.271e-06
6.313e-05
0.0002217
4.71e-06
0.0001343
4.721e-05
7.106e-08
4.474e-06
2.328e-06
5.082e-06
6.858e-05
5.372e-06
1.295e-06
0.0005867
2.564e-05
0.006698
1.02e-05
2.133e-05
6.578e-05
4.91e-05
0.006685
0.006674
2.342e-05
1.859e-05
0.0001078
1.006e-06
5.247e-06
0.006679
0.006698
7.07e-06
0.0002087
3.509e-06
3.643e-06
0.005848
4.086e-05
6.099e-05
3.985e-06
1.206e-05
9.407e-07
8.101e-06