/*--------------------------------*- C++ -*----------------------------------*\
  =========                 |
  \\      /  F ield         | OpenFOAM: The Open Source CFD Toolbox
   \\    /   O peration     | Website:  https://openfoam.org
    \\  /    A nd           | Version:  8
     \\/     M anipulation  |
\*---------------------------------------------------------------------------*/
FoamFile
{
    version     2.0;
    format      ascii;
    class       volScalarField;
    location    "10";
    object      omega;
}
// * * * * * * * * * * * * * * * * * * * * * * * * * * * * * * * * * * * * * //

dimensions      [0 0 -1 0 0 0 0];

internalField   nonuniform List<scalar> 
127143
(
7.642e+05
1.437e+06
1.639e+06
6.988e+05
5.866e+04
7.075e+05
2.741e+04
4.049e+04
6.469e+04
9438
3.409e+04
5.324e+04
1.928e+06
5.916e+05
115.6
4371
1.979e+05
1.866
8.722
3941
44.84
1735
0.135
132.1
1692
510.9
1969
2117
716
0.9432
225.9
517
4494
546.3
0.06031
4481
93.87
5.644
89.79
656.7
8.707
2.469
1.531
2.745e+05
1.866
539.8
695.6
81.04
112.5
104.8
4168
0.02911
49.41
0.4343
0.02097
211.2
0.02096
0.4209
0.02305
0.4297
0.9943
12.99
31.59
0.02211
608.1
1.056
0.07475
37.56
37.44
0.06773
160.6
1932
28.28
0.02304
0.0218
2089
0.0247
109.6
208.9
0.02222
608.5
3532
387.2
532.7
72.97
101.4
68.35
2631
0.8724
403.8
0.0241
0.6343
234.1
44.92
138.3
0.7942
2.174
287.7
58.57
0.07338
0.02221
105.3
1728
2.222
98.88
61.72
36.3
0.06795
4.242
0.02133
113.7
2623
75.59
35.48
0.02184
1.389
0.02503
0.0218
0.02449
6027
0.02134
347.7
13.02
0.2314
612.1
594.6
19.99
0.02574
119.1
200.3
127.1
161.9
17.21
109
2.265e+04
126.4
0.06898
29.47
277.3
0.06177
0.2227
0.0237
29.64
16.75
47.8
64.97
4018
0.02213
162.7
2432
4.223
95.13
4.586
0.1199
44.79
73.13
0.4204
216.7
80.42
383.7
141.7
1868
0.02418
129.5
431
550.6
101.2
1.653
1152
0.03052
84.78
16.74
1.803
7.391
0.2014
42.85
58.12
118.7
111.5
0.03707
7.38
0.03909
40.04
42.82
200.8
12.48
0.1997
37.69
120.9
0.03679
73.79
144.3
0.06192
136.3
4.088e+04
18.97
0.01956
0.0195
1.157e+04
0.02209
0.02184
0.03055
0.2187
96.78
2.219e+05
53.42
0.06521
6.553
0.7848
0.02183
0.2485
68.47
0.02187
1161
174.4
7525
150
6.839
107.4
0.06556
47.31
0.02185
95.02
41.58
373.6
90.02
341.4
5.468
64.35
35.51
49.03
0.03874
22.43
4213
48.93
0.1173
129.7
8.964e+04
0.02184
56.4
137.5
488.3
65.48
214.8
14.25
4852
58.73
1918
3407
0.08133
12.51
508.4
8.24
30.22
148.5
4.317
0.02565
914.5
3.749
0.09488
18.58
0.03126
0.5964
0.02352
34.86
509.9
164
58.01
2.131
5.097
369.2
0.1997
65.21
56.81
19.61
69.41
75.29
82.6
0.3363
3.933
0.04658
2.321
2.187
0.02179
0.02181
3.857e+04
139.2
0.02186
92.71
0.03865
4.336
0.4263
0.1171
2.436
0.02227
7.413
196.4
50.75
65.8
4.438
287.3
0.8554
0.7408
1.278
446.1
27.41
6.522
0.0219
3.864
8.546
40.19
71.63
253.1
0.03774
0.02182
227.7
8.889
285.7
0.3332
0.6684
0.1256
171.3
0.03372
8.26
235.9
14.54
0.03947
191
182.3
49.48
22.94
0.02181
0.05906
0.01957
0.01952
0.1166
4.108
1.801
22.91
154.7
0.05978
6.843
38.36
63.24
28.65
92.39
284.9
95.34
276
153.3
240.1
4.733
45.58
69.07
0.03418
256.3
30.18
49.62
0.02469
181.9
49.94
26.49
0.7798
99.21
102.4
0.02193
0.02206
1.005
468
0.3741
4.85
0.03394
394.4
111.7
0.03479
0.1261
174
2667
53.43
0.3131
1.216
582.6
208.7
0.8461
0.02488
1745
0.05117
627.3
19.74
3.296
0.02236
0.454
70.3
138
120
212.9
0.472
180.8
0.03386
0.03072
553.5
0.02185
40.4
40.43
0.05306
6.29
88.51
15.66
0.02222
96.07
12.21
259.1
0.2251
66.49
11.57
137.4
71.53
377.2
5.659
36.38
101.3
290.9
187
0.06271
35.72
0.1156
1.274
0.1375
441.4
0.08071
0.02116
182
45.19
0.3952
26.37
0.02192
7.515
288.7
0.02865
0.02224
0.02173
90.6
0.07005
4.917
0.0266
284.9
0.0219
47.3
1.024
68.35
49.09
181.6
5.361
504
0.0512
88.9
313.2
346.9
100.3
3.997
14.03
59.68
6.59
14.89
67.68
0.1573
0.02269
43.16
280.2
0.0208
40.32
0.6221
0.2312
8.466
0.05532
0.02029
47.4
0.5739
76.89
25.39
504.3
46.64
286.8
254.8
10.14
26.32
18.07
0.02172
309.3
0.02381
152.9
60.57
56.45
66.6
7.036e+04
145.5
12.12
0.1317
21.81
0.02177
491
0.02277
59.2
17.71
1.009e+05
5312
1.641e+04
0.02194
255.1
99.35
0.02182
30.24
15.85
130.7
2.523
49.75
183.1
40.37
857.6
0.1354
57.55
3678
47.58
283.3
78.22
0.02279
3.883
0.1846
5.656
0.02434
327.8
2663
71.48
0.01973
43.1
0.1347
106.3
11.96
1694
4.3
0.02404
76.97
7.871
0.02082
0.8505
4.636
168.3
98.76
283.6
165.1
19.4
9.886
26.6
120.3
181.2
0.0225
541.2
118.9
275.9
19.72
79.23
0.02213
0.02207
0.08714
285.1
30.93
0.02185
0.02692
5.563
86.53
91.19
10.12
137.8
383.2
2.074
0.02388
0.02134
75.03
49.63
18.43
0.02987
1907
14.34
188.1
0.3103
393.9
0.02186
82.22
41.53
3.032
0.02366
132.3
18.6
945.6
0.02028
33.75
146.5
0.02172
6.279
0.02188
64.82
17.97
0.02179
331.4
155.2
65.13
116
23.91
241.3
209.5
39.72
81.88
196.8
95.21
47.5
47.77
365.3
0.02592
214.9
0.02179
24.68
0.0262
28.75
0.02117
0.02186
0.5129
36.19
65.64
0.02134
0.02117
62.02
2175
346.2
268.6
41.92
4.849
46.29
12.81
62.12
204.6
719.7
0.02136
263
57.46
0.7244
2.055
0.02456
0.02688
12.74
232
18.07
419.3
0.02609
0.03369
143.3
266.6
0.03011
580.4
0.197
0.1557
219.4
3.522
53.17
0.1829
1.731e+05
83.99
100.4
89.13
139
171.8
368.2
309.6
0.02769
103.3
45.64
40.28
0.02123
78.64
0.7306
0.607
0.01971
0.0212
308
0.132
186.2
144.5
31.15
3.866
1.608
320.1
0.1681
130
0.0217
0.0209
16.58
0.1216
439.6
0.512
294
31.57
66.31
0.2078
0.7293
0.03012
289.5
0.0556
157.7
2.469e+04
13.73
30.75
49.61
0.0246
26.72
101.2
277.9
3.344
11.15
62.04
2114
71.44
38.11
11.03
109.7
33.58
8.504
19.83
0.469
3.736e+05
0.7174
0.03008
38.07
17.7
59.96
0.02156
39.78
4.484
90.53
0.03586
404.9
182.9
384.9
0.03621
319.4
52.83
283.8
164.7
0.03096
61.3
72.08
295.7
32.26
0.02218
38.38
79.95
0.02226
6.721
1.201
159.9
144.6
0.7271
13.78
455.7
159.6
0.01935
61.37
16.76
601.9
257.4
0.4787
29.62
164.2
0.01942
129.6
217.2
24.86
3008
24.39
69.68
63.14
64.2
2.376
0.02193
2.793e+05
131.2
109.1
98.97
100.5
91.19
142.7
125.5
0.02132
4.348
2.232
0.03153
161.9
152.7
37.04
12.77
0.02049
44.65
43.01
0.02171
0.02044
2.059
13.99
41.92
83.47
81.4
3368
3.248
0.3975
0.02124
94.31
97.38
194.7
367.1
1.324
0.04731
0.02261
3.174
2030
0.02126
0.1917
91.37
25.33
485.1
0.02299
53.32
27.79
0.02182
272.9
0.02121
25.2
926.9
236.8
16.81
875.1
0.02346
301.2
0.2053
328
53.04
368
2756
0.473
0.8573
2.93
813.8
0.02181
2.778
166.1
553.2
46.26
643.3
0.04565
0.1777
75.61
469.3
1929
125
6949
342
3335
153
93.29
3.738
1495
0.0246
47.87
0.02526
0.02325
36.49
0.02929
113.9
13.24
33.26
0.8644
0.04554
302.8
39.93
0.02236
1.824
112.6
0.04342
365.5
756.9
42.4
5.549
116.8
10.49
85.31
0.02174
56.5
158.6
0.02443
302.6
113.2
11.14
0.0207
1.688
1.317
4672
4.906
765.3
36.76
14.15
30.88
174
324.6
0.02154
251.7
1.236
0.02302
5.259
2714
1.758
539.4
5.388
1.703
260.4
1630
129.3
0.02379
0.02184
5.92
9.478
122.9
341.8
73.1
422.3
192.2
0.132
416.7
0.06596
1269
0.02162
79.81
77.58
27.01
192.7
51.84
0.02179
0.0224
89.82
0.3068
64.79
116.5
78.64
65.19
13.94
148.9
223.3
667.6
43.19
254
244.9
5.74
42.73
138.9
96.62
96.08
1200
54.2
0.02156
0.02143
47.98
87.71
0.8545
0.02095
14.48
46.39
0.5567
89.97
11.3
186.7
13.46
0.02223
0.4775
0.5846
795.9
434.7
48.83
0.6905
2.448
455.8
125.2
13.52
20.13
17.04
64.93
98.99
506.8
0.02447
452.3
187.1
16.17
107.1
124.4
0.02191
686.8
727.8
0.02093
0.02156
67.85
59.41
3350
46.49
46.2
96.99
144.3
0.5204
0.5453
0.02536
161
66.84
137.4
2.144
118.9
109.8
0.02387
596.7
53.91
0.02172
281
0.02262
0.0217
9.428
0.1475
1884
0.02158
269.5
0.02182
176.8
0.1197
1.81
3.191
208.8
160.6
214.7
17.95
0.05009
0.04215
26.02
86.61
87.38
159.3
960.8
164.9
593
123.3
132.2
509.7
162.1
507.7
0.3291
3.211
0.03149
331.6
43.4
343.4
0.05176
51.58
26.18
38.97
31.47
78.15
0.8244
458.7
10.79
39.05
52.3
232.4
53.58
0.02075
11.37
332
0.02294
227.4
499.8
0.02084
1.983
50.13
0.04072
0.3578
8.392
144.2
0.2567
0.01992
218.2
193.7
0.0218
0.2281
0.03769
46.16
233.3
3.931
0.04111
78.96
827
212.7
121.2
28.64
1448
0.06089
70.27
0.02178
94.39
12.71
191.6
31.45
78.43
906.7
0.02197
3331
240.1
294.5
25.04
735
13.05
2.794
461
30.95
0.04187
6709
80.43
128.3
292.4
79.15
34.37
88.31
152.8
39.26
132.4
18.32
180.5
148.7
1.852
618.5
0.1346
46.97
0.1301
219.8
0.01986
0.02166
11.02
1583
79.13
0.1982
854.9
92.5
0.02181
2040
46.3
13.96
807.4
2.97
80.52
6.745e+04
1.822
252
27.07
34.53
1052
140.9
376.1
10.01
280.2
0.09037
0.6495
5.093
157.7
4.121
46.37
39.73
244.4
80.5
0.3873
75.9
2.235
1.301
4.963
588.8
0.05279
1816
352
90.48
123.9
0.02181
21.21
87.85
1.637
165.3
281.8
446.7
0.02136
164.1
82.28
68.87
577.8
56.64
4.378
82.21
0.02245
77.74
116.2
2573
176
0.1031
28.66
0.02273
2331
597.5
104.6
0.8505
4.003
0.0208
0.01984
57.1
55.43
10.46
0.1275
0.04123
0.04465
22.65
80.07
5.246
269.4
114.3
635.1
1.505
379.3
62.75
152.2
0.01988
225.1
25.58
21.64
707.2
4.631
9.995
139.5
26.32
53.74
1035
1.109
94.79
42.47
10.45
2.366
100.1
1140
0.2343
71.8
0.0212
130.2
624.1
0.02038
732.9
14.15
113.6
174.6
0.0214
1.74
6595
0.02193
99.35
206.1
40.12
625.2
0.9611
2.208
65.1
437.3
130.6
212.3
0.0846
30.99
173
3035
147.4
130
0.0217
140
4.378
321.5
168.7
16.79
131.7
0.02218
1.497
133.6
0.02444
31.52
0.02128
2006
39.82
1551
104.9
35.55
593.4
66.76
77.04
124.5
3884
136.6
161.6
25.91
47.96
63.33
0.02211
48.98
0.02306
24.96
0.02201
69.95
0.02148
210.1
74.95
0.02083
0.02173
49.56
0.2348
277.1
0.1432
0.02023
9.549
73.16
0.04057
1.837e+04
329.8
1977
77.32
16.95
137.1
78.27
40.45
0.3327
706.9
53.03
146.1
485.5
89.69
45.68
7.727
0.02156
3806
96.61
477.9
0.02181
666.5
34.5
138.5
56.72
0.01977
0.01975
0.3884
1.082
5.351
16.71
27.86
1.186
2.738
0.6065
1.954
379.9
26.77
3.051
57.14
2.432
589.9
291.2
31.38
149.5
47.07
0.02245
42.65
46.99
703
39.26
0.04089
22.76
1.042
65.88
45.31
712.2
0.7821
0.02174
92.01
10.69
840.8
305
0.8569
129.6
241.8
0.1746
0.01973
478.7
275.6
4280
0.09339
626
64.19
0.02155
211.7
107.2
15.33
0.2586
26.71
64.32
23.66
87.95
60.46
88.48
0.0525
39.32
338.4
269.9
0.04264
0.04256
173.6
19.41
8346
93.49
308.4
337.5
3772
0.7319
88.76
0.02803
0.02203
0.02152
76.48
0.02186
812.4
0.02174
2813
0.5433
17.32
49.55
238.6
0.07233
1034
0.3368
180.1
43.78
846.5
0.02289
176.2
157.2
36.85
134.8
78.78
82.82
509.3
556.6
0.05659
0.02061
186.2
0.05983
0.02018
0.5242
161.2
0.02061
610.4
0.02185
50.68
25
24.98
136.3
0.02099
78.94
332.1
137.1
0.1137
5.247
0.3037
0.02179
0.02123
67.04
1.023e+04
8.366
38.94
0.027
486.8
0.5219
0.1165
0.04774
2.737
151.4
222.9
0.02822
31.89
0.02368
74.18
0.02217
0.9692
24.8
40.43
25.12
278.6
200.2
0.02123
25.4
484.4
129.4
631.6
364
6.653
0.03958
5.093
6565
35.59
383.4
286.8
0.05617
0.2749
0.02164
142
77.11
68.22
0.02181
119.3
0.02176
0.2654
142.8
0.02155
5.692
0.4667
14.2
27.54
0.3005
149.7
0.0219
131
282.1
2.157
8.971
73.64
0.0471
13.55
45.84
68.58
18.01
57.21
267.2
100.2
181.9
368.5
0.1002
0.3449
18.27
0.04187
102.9
54.82
0.1719
34.54
0.02693
0.1365
110.5
1.319
12.93
112.7
656.7
103.6
671.6
0.8699
0.02066
707
55.3
0.132
164.8
0.03213
23.51
0.02223
14.42
636.8
27.38
12.72
25.75
61.16
0.02187
26.96
0.7842
9.22
922.8
0.02842
42.02
444.1
0.02161
0.02899
44.05
0.05685
46.4
2.574
2.062
16.05
0.7782
71.65
0.05969
0.9526
107.2
0.02076
0.3047
876.2
712.3
0.021
104.8
1032
4.385
403.7
20.55
72.13
710.1
0.04901
0.08885
45.34
0.02852
579.6
14.24
81.08
693.4
222.9
0.02776
229
8522
2.36e+04
40.58
45.83
210.1
0.7196
76.76
5.351
64.48
335.9
54.74
49.89
27.02
474.4
62.47
1.159
0.02185
409.1
1.149
92.32
0.5226
0.05914
56.62
40.23
4.138
0.02056
157.7
367.9
8.169
349.6
36.13
684.3
116.8
0.03135
248
231.4
48.04
45.35
892.3
0.0194
2012
113.9
71.45
0.02551
89.53
34.72
276.9
305.5
71.73
367.9
0.02566
7.894
84.49
0.06599
67.36
0.02194
187.4
2027
65.49
367.5
4735
91.8
745
0.07891
310.1
6.062
26.84
0.04896
6.246
14.19
86.41
50.77
0.04719
36.42
1660
4883
94.3
2.8
1.104
1.829
0.02243
0.02963
94.13
0.5325
0.02253
33.52
56.69
119.8
57.29
4.796
63.57
11.94
559.5
532.7
527.3
0.1223
39.2
1397
16.75
122.4
2.487
6.068
31.47
1.439e+04
8.4
6.327
0.03481
0.07096
760.7
83.05
0.02182
0.02196
26.65
328
76.23
44
1485
27.56
0.02752
335.6
30.88
65.59
524.1
0.5295
1.55
47.72
144.9
0.8626
139.7
0.02189
97.85
14.67
345.5
0.7927
92.83
624.9
2.139
348.9
10.62
334
60.35
113.6
0.1719
25.21
119.8
81.76
404.8
61.6
1047
142.6
0.02183
53.84
2.483
270.9
24.96
0.1809
10.21
0.1557
967.3
0.03768
74.83
45.35
58.19
52.57
26.05
0.2468
641
0.2954
0.02795
130.4
0.02092
86.31
0.03992
0.8943
18
0.02152
0.4054
95.93
99.81
0.02178
0.02528
44.98
8.555
244.6
0.2321
22.49
57.16
268.8
208.3
1.093
36.01
8.179
0.1036
47.24
2200
12.07
1642
177.2
14.18
645.2
0.02183
0.02062
2.533
2.235
3819
0.02181
9.823
154.3
1.022e+04
206.8
208.2
0.01958
0.01916
163.1
150.8
48.61
42.65
0.0423
2.238
1.162
0.02222
325.3
62.13
33.15
52.16
594.5
0.3179
3.341
0.01994
4.987
57.5
281.3
133.1
134.9
169.6
66.09
84.92
50.97
332.1
152
0.09507
57.05
221.1
0.02578
0.02325
149.2
67.01
948.5
3.672
66.46
179.4
0.1154
0.02179
9.649
0.02211
61.79
1143
51.66
0.1974
21.62
0.05847
143.4
247.2
0.05484
6.047
4.764
38.75
73.92
16.48
167.7
102.1
67.92
112.4
7.558
24.69
312.2
45
112.6
47.3
3484
54.65
66.32
125.4
16.55
4.074
7.548
816.8
0.5382
207.3
0.02343
77.66
0.02214
60.43
11.82
744.3
193.9
0.1359
351
1074
398.7
61.52
26.64
288.8
1497
0.1977
72.12
15.36
1787
157
115.4
0.2715
0.4767
0.02183
24.01
2190
2.541
80.64
56.96
0.1437
1138
0.01988
16.64
0.6047
67.98
119.6
0.248
2.372
14.28
0.05379
31.76
10.91
1005
95.59
104.4
0.02158
101.4
97.12
160
622.1
15.65
7.307
114
0.02188
108.4
64.57
8.464
16.21
33.73
931.4
281.3
73.07
68.18
0.7391
7.14
243.5
3.205
0.1167
461.9
0.05643
0.7301
0.02191
0.02199
64.96
0.02243
97.39
17.95
1.103
26.06
272.2
1034
146.9
69.49
150.7
76.72
2968
67.77
141.4
0.6638
1158
19.7
263.7
1164
0.03474
286.9
264.5
2.161
27.23
161.2
226
223.5
51.27
71.36
0.03084
5.829
0.02207
1.131
26.12
59.62
16.32
42.61
1435
29.84
0.02245
315.4
91.86
2.782
19.94
74.67
82.98
221.6
288
682
114.2
92.57
70.43
139.7
98.54
0.1144
1448
316
34.44
3.608
0.02272
116.5
350.1
76.99
2.108
666.1
465
115.6
2.587
85.47
1657
0.0227
146.1
13.11
0.04975
9.515
156
0.02185
248.8
27.32
5.751
3633
6.04
118.4
2830
98.53
90.83
0.01986
0.01981
85.59
12.27
3.612
509.4
49.36
0.02152
919.4
277.8
53.37
0.02266
0.02247
56.73
3.997
82.9
7121
180.1
0.02405
223.7
509.5
0.1263
209.7
126.4
0.06774
1.005
229.7
0.8902
60.33
0.01967
0.01944
0.01946
0.0196
0.08654
48.95
7.556
75.61
3.234
58.61
58.76
828.7
0.02037
141.3
98.55
112.9
647.5
130.2
44.27
26.48
123.7
45.28
59.95
0.1144
38
2200
63.45
585.7
0.8915
26.77
0.02178
1206
138
117.5
3.328
0.03791
1225
0.0218
89.23
602.8
0.02851
166
121.4
27.48
51.22
178.6
0.05834
196
0.02069
6.429
91.4
113.5
61.15
16.9
0.02167
0.02193
0.3492
61.55
284.7
0.4486
34.6
181
1.817
168.9
124.9
5.382
25.09
47.59
125.9
0.2214
1956
1.034
0.02179
756.6
0.0218
0.02289
0.381
0.07869
198.7
36.96
366.1
91.54
116.8
0.02188
0.1037
56.58
73.89
64.04
0.03792
0.3923
7702
1096
0.02213
1706
1105
5249
0.05679
5.247
12.81
0.1112
0.02578
4.199
97.9
6018
0.1411
240.4
1.285e+04
0.0218
132.6
864.2
48.01
0.02179
285.8
7804
2511
732.6
0.501
14.65
1899
0.05984
133.8
0.02155
33.15
795.2
5.895
296.5
718.4
0.2682
40.66
16.88
0.02225
0.03472
181
468.5
3.001
179.8
144.8
1.027
24.58
45.41
60.79
118.8
0.02181
47.05
61.61
74.86
160.9
24.93
173.4
81.62
501.5
1689
7132
197.5
0.05676
100.6
0.02787
300.3
196.6
0.02181
1.458e+04
0.02221
138.2
1144
498.6
133.3
132
84.77
38.88
0.01965
3274
33.85
0.04615
21.17
55.36
689
724.2
1148
18.07
147.9
841.2
28.02
0.1186
32.99
1716
0.02089
118.7
24.8
47.74
22.28
62.18
13.89
564.1
46.12
44.63
641.1
0.04265
509.4
0.1328
18.81
102.5
0.02694
0.1481
16.48
455.4
318.5
481.7
0.04481
0.02224
2.448
84.94
1442
98.29
7.319
0.01931
0.03468
335.9
0.01975
191.9
119.6
0.09189
184.4
58
2252
513.3
694.9
0.04204
207.1
98.67
200.4
3.65
9.983
946.5
49.97
248.9
92.15
165.7
76.59
2.068
1048
51.46
33.34
48.9
0.04041
20.92
0.1934
0.02228
9.756
156.2
126.4
71.98
18.03
940.4
1474
34.04
1.081e+04
0.1827
0.3912
0.03817
0.06844
9.541
0.02221
38.35
682.4
132.3
361.2
1.512
17.04
32.13
141.4
26.03
486.8
76.94
2274
210.9
0.02428
65.66
35.21
0.02204
0.04357
426.2
0.02186
228.3
218.9
89.26
3.47
516.2
0.07373
0.6996
0.05247
206.6
168.3
106.4
22.72
0.02144
74.24
0.02166
0.3462
164.2
2.885
653.7
200
237.8
6.341
1673
1.162
0.1586
50.96
159.1
0.02085
2.535
0.02185
299.5
403.4
114.9
117.2
0.02171
303.6
150
133.5
290.6
264.3
94.65
0.0248
1.106
1.974
2.234
318
13.85
0.1009
5.334
0.1743
24.31
111
0.02072
0.02046
0.02289
0.04321
0.3168
100
242.2
0.02215
83.08
13.33
54.78
0.02194
116
0.1188
408.2
0.05737
2170
13.46
433.7
0.03449
0.1034
599.3
0.03213
53.53
56.49
67.33
177.5
138.1
0.02183
108.3
77.51
45.76
96.93
66.63
3.741
89.08
24.57
605.3
0.02155
33.24
16.75
1901
0.2125
0.02209
374.8
663.9
46.17
41.7
6.061
564.7
0.05478
13.94
58.44
41.28
47.51
5.071
0.02419
11.29
697.4
104.4
47.06
1247
3.339
3.7
0.02168
0.03139
0.147
0.03574
6066
171.8
0.02195
0.02388
35.62
1983
0.02194
81.22
226.9
53.89
3.511
217.9
938.9
137.8
44.91
247.7
1073
642.4
0.02234
112.8
16.63
157.8
0.02139
0.3706
141.3
80.49
110.5
3827
487.2
1.379
276.7
1055
7.598
56.07
69.3
1.899
0.9808
343.8
1640
0.02158
296
44.77
0.02194
851.2
34.74
4.088
0.08243
33.06
211.2
173.5
12.14
0.02194
0.02205
1.803
47.26
0.02022
2.513
0.02813
198.3
27.14
33.78
164.2
389.9
1.852
46.48
0.02157
616.7
15.99
1080
183.3
0.1182
366
5.739
262.4
626.6
7.862
670.1
0.02082
0.02125
81.76
0.07888
0.0214
1066
75.24
78.74
185.6
12.56
78
0.02407
1016
0.04552
25.9
0.02045
0.2431
196.1
105
99.17
33.09
15.98
73.21
0.02048
93.65
125.4
288.6
1232
0.1512
49.99
6.828
0.02195
67.43
273.7
0.1882
0.05389
43.15
763.7
0.02127
0.02167
9.64
99.67
41.35
1177
0.02206
138
159.6
45.8
0.02208
0.09646
296.2
60.26
242.3
48.06
30.22
0.02055
150.6
0.02566
455.6
799.3
0.08015
53.1
18.9
144.7
286.9
72.25
0.074
0.02049
88.04
0.2572
0.02168
372.6
85.84
8.471
0.02053
0.08956
0.1207
0.03102
37.75
128.5
0.02181
272.4
26.18
74.14
0.02997
0.02191
0.02169
0.05714
10.16
2.416
210.8
682.7
1405
24.66
940.8
500.9
0.02573
613.2
115.5
150.6
15.88
0.1987
2.129
161.9
573
384.2
132.1
0.06539
62.84
59.91
38.5
8.456
0.2489
54.57
0.2702
83.66
0.02905
69.73
5.53
4.244
0.6276
598.2
1407
999.7
0.02062
3522
70.73
0.02017
106.9
0.02182
163.2
126.1
0.1024
388
29.18
0.0223
1.927
5.901
1065
0.02388
0.2699
613.3
2.457
0.02159
541.3
99.42
0.0357
0.2556
3.12
65.57
1695
194.8
126.6
12.21
61.2
1.929
0.02174
0.05233
47.29
37.96
146.8
0.02207
812.6
85.11
15.28
46.37
92.07
128.7
0.0202
0.06648
171.2
192.1
0.05928
43.52
211.7
6.079
4.207
7.372
15.65
0.05015
12.48
13.94
9.867
5.911
0.02205
237.1
0.1294
100.9
3.164
2.045
126.7
126.1
2066
10.37
1.063
0.06904
0.02124
2.881
11.09
583.9
903.7
121.3
143.9
163.6
38.69
0.9356
116.1
185.5
592.1
63.13
0.05306
347
1.198
361.9
6.309
14.98
57.17
87.67
0.02179
51.9
0.2493
0.02165
0.2922
344
1.052
1.529e+04
197.4
68.18
0.02168
30.28
238.7
0.03779
48.74
67.94
98.02
84.02
163.2
0.02188
170.5
0.02075
2.04
295
58.51
3.038
193.8
1.05e+04
0.02196
0.02175
14.87
28.4
321
0.9947
92.68
233.4
5.591
64.72
0.02225
165.3
462
0.1304
89.85
0.02157
22.2
0.07205
45.86
142.7
158
0.2832
83.21
15.01
0.02889
151.3
195.6
0.2485
0.02155
0.02394
144.7
942.6
9.298
5.532
130.2
7.817
64.72
7.855
0.01939
0.4338
1.285
948.2
1433
345.5
0.02135
199.2
50.81
90.66
91.61
746.5
3.353
42.41
37.77
25.22
241.8
640.6
0.9288
0.05458
6.682
0.0387
1584
0.02386
71.5
182.4
13.49
65.71
228.7
91.77
316.2
24.45
193.1
12.76
2.451
372.1
947.8
95.2
757.6
873.3
0.02181
786.4
126.1
318.1
661.5
40.4
1.513
65.31
32.09
5.604
0.0515
23.99
42.49
47.73
66.09
125.8
1.166
1.178
0.756
639.9
84.11
1170
37.77
203.5
0.02028
418.7
130.4
581.1
21.52
757.3
322.6
112.6
0.1109
1035
0.09737
39.08
68.69
0.07568
0.7207
54.25
9.388
46.93
87.03
8.215
66.86
100.3
785.5
8.163
2376
0.04927
5.112
70.83
9.712
0.05946
233.4
0.02183
0.02266
0.02178
104.6
56.65
60.92
0.4748
0.1683
86.22
0.05199
1883
412.1
625.1
88.41
0.09727
249.4
439.5
0.0847
163.4
0.02187
24.77
12.68
72.76
2.07
0.0213
0.02196
169.6
14.73
0.04701
746.8
59.45
0.02097
0.02182
24.61
0.03739
155.4
929.3
0.02465
3.398
85.53
221.2
371.6
744.1
10.26
0.1904
17.87
111.5
0.3319
314
8.726
2.587
212.1
132.4
1.103e+04
0.03229
22.74
117.1
922.7
0.02184
97.3
0.02181
11.71
2.773
10.68
40.14
108.1
53.3
0.2495
360
82.93
208.1
232.2
254.1
119.3
1.363
26.9
289.8
85.2
104.5
0.02121
672.8
774.8
379.7
17.27
3.882
340.4
200.9
0.4994
0.1481
5748
105.2
0.04301
0.02859
0.04494
136.7
265.2
2.919
889.6
5.666
0.03272
40.52
23.55
38.14
160.1
4337
651.6
66.87
212.6
101.3
142.7
83.51
106.4
17.1
12.74
392.9
97.81
0.4556
95.45
222.6
0.2065
19.4
1.166
4.294
628.1
76.07
0.02204
638.6
8.194
774.8
77.8
0.02157
0.1407
237
0.03471
99.02
260.2
600.7
11.88
0.02329
0.2649
22.95
36.26
0.1004
134.6
0.02078
204.6
51.44
100.7
51.27
115.3
117.7
120.3
633.4
0.4433
34.77
0.02183
860.3
0.04863
0.02617
52.69
0.02218
33.91
26.74
6744
0.02196
65.44
45.81
167.7
132.4
0.2579
128.8
80.17
112
573.6
69.61
0.1257
0.02268
73.06
365.3
11.28
67.48
120.7
93.1
3.21
0.02116
55.58
63.45
780.6
17.27
133.5
4.005
75.16
0.02151
7.192
776.8
362
0.02198
0.2948
77.34
0.01995
29.44
386.3
30.68
0.02195
0.02201
10.39
0.02498
0.02014
0.02174
11.8
235.8
353.4
0.3858
53.72
4.208
0.8295
0.02225
42.2
20.79
0.05105
1.037
347.4
2.001
0.02938
107.3
89.17
7.757
659.8
2268
0.02886
44.98
11.24
233.3
116.7
125.8
0.02194
21.47
556.6
2.479
45.11
0.5008
462.7
118.4
66.7
5.163
816.2
0.08803
2984
73.37
0.02929
0.03577
0.02
69.34
65.43
789.8
313.5
903.6
0.136
0.01941
32.83
44.97
0.1623
0.02222
278.5
16.02
511.3
89.37
89.48
26.46
13.73
10.3
93.05
0.01988
324.4
198.2
118.1
4.99
0.107
0.02253
91.65
27.37
118
1451
14.99
0.05067
24.68
0.7823
0.1015
0.02233
242.5
68.3
149.5
255.3
59.73
1.054
97.7
84.45
2.883
30.05
0.5235
0.2032
0.02192
40.99
2071
1.109
0.9748
2758
0.332
0.02169
4.482
0.03388
0.02203
47.26
0.0195
0.01945
3.308
0.02012
105.9
569.1
169.4
4.38
0.2172
0.02113
0.02197
4.976
77.96
13.27
717.1
31.68
0.02893
33.92
11.41
556.9
0.2758
0.02198
3.427
56.27
0.02203
0.02136
43.4
78.68
0.06817
0.03523
127.3
0.02132
0.3665
0.02191
1962
0.2304
106
19.78
0.03304
0.1894
8.582
78.7
203.3
66.17
30.27
22.98
0.02215
622.6
36.74
45.13
0.02191
56.27
67.23
167.6
65.14
0.3847
106
4.255
0.2261
99.95
0.02205
1.779e+04
5.092
854.5
0.02197
85.86
0.02187
0.1108
1.963
153.5
71.67
45.07
2.58
0.0832
978.4
0.09655
85.7
891.9
6.099
0.2159
0.03782
221
0.02164
1.638
80.96
6.448
5.251
0.02227
858.4
0.0394
50
379.6
21.28
119.3
311.5
42.45
348.6
37.7
1.047
50.88
1.924
0.0218
0.02181
553.4
24
245.2
36
36.84
0.0218
24.91
0.02181
0.02204
0.03808
372
0.1725
4.302
0.02876
111.7
0.3511
118.2
95.69
1228
0.02846
283
29.03
33.18
0.247
75.01
0.02187
35.41
0.235
94.86
4.99
0.03629
89.75
2007
54.35
450
74.93
1103
354.2
2.531
14.61
1121
8.169
1014
207.9
81.63
117
112.9
83.82
69.5
189.4
0.03523
50.47
0.05715
128.9
826.4
29.19
69.32
268.8
33.79
56.77
0.0299
85.96
96.96
3495
22.16
0.02347
66.79
28.19
52.68
0.04929
23.03
57.84
84.49
0.7775
356.2
14.32
113.6
128.9
185.9
54.73
73.33
80.16
0.02794
551
7.654
0.02619
71.42
90.43
141.4
367.2
273.9
0.02202
53.63
47.77
0.1466
4.141
38.53
1253
239.1
0.02089
0.0222
2.035
89.09
22.5
0.02164
21.15
86.99
146.6
656.4
0.02104
94.5
769
103.9
2198
168.4
186.5
189.3
74.29
7.345
0.02562
138.2
168
52.6
112.2
0.9976
97.44
0.02211
0.04471
133.3
138.6
80.4
264.3
85.64
0.02224
134.8
145.2
0.3543
101
3249
276.7
0.033
0.2175
0.02793
29.89
123
354.5
348.8
42.58
122.7
0.02182
117.6
1.262
18.91
130.5
0.7742
631.8
20.23
640.9
0.04309
55.33
525.4
0.0218
55.81
61.79
96.08
37.15
0.0219
0.02205
0.03513
91.98
0.02225
20.86
208.1
0.2172
49.29
154.7
0.04895
24.64
41.52
0.1838
581.1
124.5
750.5
128.5
0.02213
335.5
635.5
0.02172
962.3
5.965
13.95
12.57
214.1
59.87
26.3
69.99
22.57
0.02194
25.08
0.02178
0.06942
402.1
50.4
17.56
14.97
1.527
203.2
0.02193
0.01977
0.09465
62.39
108.5
25.84
1105
1.612
0.1163
407.7
0.746
39.56
0.02137
96.7
250.9
80.34
69.66
194.5
37.14
80.7
62.48
2.605
0.02518
76.54
85.08
48.65
125.7
680.5
203.6
0.0215
78.84
74.36
67.96
1623
0.02185
151.6
55.61
54.03
79.45
64.92
1290
130.5
66.04
266.2
2347
5.181
54.65
591.3
6.098
0.02169
128.1
61
75.4
90.12
77.83
12.14
0.03432
113.1
33.65
418.8
9.346
294.8
424.3
0.02176
281.2
50.87
137.5
2.246
0.01945
132.9
125
8.472
28.08
0.02136
55.74
25.67
2.603
43.14
38.19
194.9
112
180.3
145.5
0.01993
50.34
100.9
117.6
235.6
46.79
14.38
58.69
85.45
10.16
51.61
238.2
840.6
284.1
206.7
4801
10.5
0.119
4.528e+04
151.8
615.7
0.03153
542.8
1349
105.7
11.17
0.02349
10.46
0.02181
42.34
16.34
2.595
2.481
71.14
322.9
10.38
4362
32.53
114.5
101.1
2043
245.5
92.21
49.5
0.1679
83.71
65.16
1051
47.92
0.7833
0.9655
160.5
0.8857
0.022
0.02178
15.34
17.97
0.05095
0.02019
0.02241
72.47
424
275.4
0.02155
0.02539
24.59
0.01974
0.01985
342.4
0.04294
50.44
323.6
0.0607
141
3.911
116.2
7.549
72.44
0.08406
42.31
81.05
1.397e+04
113.7
66.49
129.3
516.4
1.808
0.02534
30.75
296.2
0.02179
2.995
188.7
277.4
605.6
45.07
100.3
340
0.02732
52.33
132
103.5
34.59
139.1
0.05822
12.96
26.75
124.9
54.85
77.9
0.03587
387.2
60.71
0.03183
75.67
0.05567
72.28
0.02996
2027
674.4
0.0341
76.18
51.73
0.1952
679.1
151.7
0.02355
229.1
51.75
85.57
625.2
0.04803
0.4356
3618
33.38
89.65
3.121
53.64
1.635
6.628
67.97
0.04919
1.339
133.8
58.46
103.5
47.99
109.8
2.76
59.07
229.1
139.9
2.815
16.18
0.0218
0.1713
176.4
90.13
0.01947
1.649
13.77
7.58
71.41
29.17
78.44
0.1888
97.2
36.26
0.08979
49.76
149.5
0.1737
319.4
0.05753
353.6
20.07
0.4245
0.09289
27.31
257.9
128.9
0.02108
169.9
68.09
93.98
0.0612
0.02246
20.78
118.7
516.8
7.659
27.2
46.44
96.4
1.821
1.842
802.8
6.344
1.316
2784
196.4
25.98
42.15
0.02204
1.738e+04
0.02281
94.59
44.05
48.62
75.63
48.82
552.2
12.97
5.411
0.5426
9129
255.3
33.82
6939
829.1
244.8
45.1
0.1444
0.6351
0.432
29.71
0.02187
155.1
784.5
0.06241
20.49
2.834
42.84
51.2
229.6
1274
421.6
89.68
0.01942
0.01914
0.0218
127.6
2240
0.7261
0.0216
0.2585
602.3
3.996
1355
54.83
0.02285
4636
0.01949
1.177
22.51
0.05233
28.6
0.4973
1.042
0.09878
603.6
77.37
23.36
46.91
6645
28.43
348.6
86.22
39.55
0.02213
4438
201.6
392.6
53.49
95.56
30
216.2
0.1067
56.01
122.5
42.49
144.8
0.02712
592.2
108.9
386.5
7.601
0.1114
0.1882
0.02225
104.5
113.9
116.1
52.6
19.78
857.5
32.08
67.7
15.78
108.3
0.2285
162.1
50.29
38.2
2.172
0.07792
4.272
0.2143
25.24
1.849
218.5
8.438
208.6
21.73
6.253
124.7
0.4982
614.6
50.47
1.645
0.1317
713.6
80.86
73.31
56.92
1147
0.02204
490.2
265.6
28.21
76.24
43.57
25.85
202.9
44.69
161
53.74
34.38
2464
0.04475
0.02187
0.02217
46.41
275.3
1.997
494.6
347.4
1565
81.83
39.29
652.6
652.9
5.113
231.6
366.9
30.67
770.6
0.02177
143.5
233.9
219.3
0.02157
224.5
14.86
95.57
116.1
67.63
0.0221
0.3568
113.6
769.7
0.02094
183.5
2.88
0.5654
1.084e+04
0.02984
17.98
48.39
119
166.4
0.4837
23.87
7.074
268.6
281.9
280.2
0.01951
78.81
1.37e+04
0.02932
0.02437
272.7
873.9
139.1
67.85
0.07693
26.1
142
15.99
16.3
78.19
0.02005
39.28
7.593
0.2941
0.02404
70.79
0.02137
8806
40.92
4.889
8.58
1983
0.02282
318.7
0.02
0.02216
179
0.5918
81.35
12.09
0.0645
113.7
73.42
84.35
7.442
110.8
202.5
329.1
159.3
260.1
605.6
668.8
86.49
24.05
189.9
144.9
78.19
0.594
0.02122
0.0212
1292
29.43
80.47
1278
0.02235
507.4
0.5171
0.02039
86.37
6712
5.439
225.2
2661
0.02206
334.6
101.8
61.78
31.22
24.63
1688
291.3
0.02177
1342
485.8
0.08401
0.0257
99.85
372.6
122.3
239.8
54.36
38.52
0.0218
282.8
0.02125
231
245.8
1288
0.01944
0.01916
0.2507
33.8
0.03842
73.31
1.305
36.93
92.79
48.08
101.3
0.07964
0.03063
781.9
538.2
38.33
342.7
0.05205
64.28
0.02148
56.03
1694
67.77
220.9
623.8
246.6
174.8
1.273
29.86
79.3
0.02894
0.02222
0.02185
33.81
81.66
223.8
2798
147.1
0.02761
67.04
161.8
146.2
3024
17.21
71.36
520.9
20.24
0.07695
1.822
5.957
3.773
0.1036
375.9
90.45
17.34
38.76
234
0.2352
0.01976
532
28.22
51.26
122.9
1232
32.79
0.02086
82.84
72.68
83.03
3.475
43.87
63.44
4.901
115.9
1.805
0.05383
78.93
0.05812
0.1187
0.2511
607.8
10.05
478.1
58.2
22.11
98.06
0.0355
215.2
144
0.5781
78.7
15.92
1780
0.03918
0.02636
216.3
99.26
73.35
98.28
0.5357
215.5
0.0727
0.02184
8.459
128.4
0.02806
2.227
11.68
0.02176
667.9
0.07052
42.3
34.28
16.91
0.7165
299.8
118.1
2.539
0.08578
0.02234
61.47
23.23
120.9
74
0.02157
0.0202
0.02179
43.33
86.42
70.04
0.04264
393
81.02
245.2
20.51
279.1
0.3957
0.03794
988.8
0.02247
107.7
75.08
0.03936
49.35
49.06
57.43
244.9
174.2
42.47
2.882
0.04925
2180
107.8
270.4
0.257
1.445
0.02189
772.5
0.02176
51.48
652.5
0.0231
3.509
10.65
290.2
0.06695
76.3
5255
57.78
0.02169
43.13
149.8
75.17
61.12
64.76
91.51
502.3
10.84
0.02074
0.02531
5459
9.422
180.3
4.399
21.6
0.02122
0.02193
1.689
3275
571.7
270.7
147
0.8945
163.1
788.7
22.92
196.1
0.0219
274.5
5.397
211.4
59.48
56.75
0.02162
333.2
38.03
500.7
5637
13.65
6.491
1.075
92.77
0.02312
13.95
1527
105
222.1
123
1112
47.97
86.47
0.2224
350.8
462.8
1001
115.7
0.03127
882.4
587.6
0.02179
180.1
173.8
155.3
224.4
95.44
11.12
65.38
18.34
0.02749
82.13
0.02211
39.7
0.2297
1828
0.2769
2852
18.25
320
32.17
35.48
196.2
8.174
121.4
1038
33.77
73.87
18.96
4.994
69.2
66.48
20.96
0.02782
11.82
8.135
54.36
104.8
157.4
565.4
116.5
0.0286
125.3
851.5
68.9
24.67
301.8
0.04655
99.81
0.02171
111
1.239e+04
1.454e+04
560.1
97.08
17.88
0.02113
0.04043
73.73
88.11
71.98
3.058
0.02229
49.66
174.8
6.38
79.24
0.02185
407
90.17
1240
4.624
12.58
47.77
204.2
0.03533
383.6
4410
1.014
8
0.4212
167.5
932.5
3.704
76.31
5.438
100.6
0.02785
111.3
0.01989
630.5
67.71
12.28
88.65
3.35
293.4
115
1.867
0.08397
0.02199
0.02173
18.7
87.98
41.58
14.23
53.46
55.92
2525
1.463
67.85
0.3603
0.02212
379.9
0.02238
33.86
325.8
3.518
103
58.94
1446
279.8
97.08
125.7
23.02
172.6
0.1846
780.7
0.02178
1818
658.7
31.8
50.57
0.02224
70.77
67.16
142.8
1.149
101.7
734.6
704
0.02176
71.49
0.02197
0.0218
450.5
0.0298
101.2
8.847
665.3
87.66
68.5
57.18
95.39
1.421
115.3
1.825
3.846
9.482
0.02551
53.01
0.07807
1169
93.94
18.75
0.4332
14.58
160.9
276.5
184.6
16.92
6.777
0.4442
106.7
66.59
279.2
87.01
0.6843
80
142.2
35.95
47.25
4.229
46.88
7.243
117.2
2346
29.6
0.219
0.03997
458.4
26.23
0.02182
292.9
0.4658
1199
253.2
0.01967
65.14
177.3
161.3
293.7
261.8
50.73
131.6
0.03978
210.5
247
48.55
132
53.29
146.5
0.02237
0.02435
0.02224
87.54
0.2886
0.02197
0.1201
7379
0.02194
138.4
381.7
1.197
201.2
173.2
78.59
502.6
21.35
76.42
78.23
8464
0.02174
202.6
7.83
71.89
1.967
4.752
3.514
1.515
536.4
0.04603
0.03018
1.133
639.1
929.3
216.2
423
0.05047
1804
0.02173
67.55
94.66
77.1
0.02182
0.7345
23.05
124.2
204.4
198.9
2.436
193.2
1705
10.94
17.24
0.02825
4.793
5.218
0.5485
1.321
10.67
168.6
21.39
0.3454
197.4
208
0.672
1.953
121.7