/*--------------------------------*- C++ -*----------------------------------*\
  =========                 |
  \\      /  F ield         | OpenFOAM: The Open Source CFD Toolbox
   \\    /   O peration     | Website:  https://openfoam.org
    \\  /    A nd           | Version:  8
     \\/     M anipulation  |
\*---------------------------------------------------------------------------*/
FoamFile
{
    version     2.0;
    format      ascii;
    class       volScalarField;
    location    "10";
    object      p;
}
// * * * * * * * * * * * * * * * * * * * * * * * * * * * * * * * * * * * * * //

dimensions      [0 2 -2 0 0 0 0];

internalField   nonuniform List<scalar> 
127143
(
0.024
0.02353
0.02363
0.02364
-2.433
0.02365
-2.883
-2.62
-2.611
-1.376
-3.309
-2.955
0.02398
0.02365
0.1936
0.02681
0.02361
0.01588
0.006703
0.02415
-0.3637
0.02267
0.1396
0.04736
0.02266
0.09355
-1.207
-1.276
0.413
0.006985
0.03236
0.09903
-2.162
-0.4257
0.1981
-2.117
-0.02458
-0.4897
0.04721
0.02664
0.007795
-1.091
-1.012
0.02397
0.0165
-0.4221
0.4114
-0.03548
0.1139
0.04241
0.02554
0.08121
-0.7184
-0.5192
-0.002098
0.2008
-0.001968
0.05408
-0.01577
-0.5223
0.4028
-0.08341
0.04163
-0.007981
-0.8854
0.2666
-0.3221
0.04216
0.04212
-1.948e-05
0.04168
-1.226
0.0455
-0.01632
-0.01069
-1.265
-0.05117
-0.08363
0.2015
-0.00356
0.4044
0.02488
-0.4229
0.02901
0.02768
-0.07454
0.0509
-1.499
0.2668
-2.542
0.02766
-0.2633
-2.39
-0.365
-0.5225
0.03412
-1.071
0.03932
-0.1471
-0.324
-0.00374
0.1144
-3.042
0.06568
-0.0739
-0.1476
0.09752
1.324e-05
0.4045
0.005273
0.2054
-1.529
-0.4382
-0.5323
-0.0006785
0.1094
-0.0264
-0.01062
-0.04945
0.02363
0.005373
-0.3815
0.3266
0.06245
0.4032
0.07345
-0.1391
-0.05549
-0.8546
0.2425
-0.1797
-0.432
0.04724
-0.08471
0.0236
-0.1836
-0.06289
-0.378
0.4776
-0.1155
0.174
-0.008249
-0.6159
-0.4422
-0.7168
-1.673
-0.9581
-0.007921
-0.4321
-3.168
0.05897
0.1366
-0.4959
0.262
0.4627
0.02668
0.05378
0.3086
-0.03391
0.04141
0.03604
0.4266
0.02716
-0.1799
0.212
-0.8897
-0.03779
0.4071
-1.931
0.02134
0.02078
-0.4401
0.1188
0.2399
0.0002638
0.02195
-1.747
-0.8526
0.05241
-0.01209
0.2407
0.03082
0.02393
0.02158
0.2426
-0.08297
-0.5298
-0.558
0.04689
-0.03042
-0.7
-0.741
-0.06301
-1.674
0.02361
-0.2198
0.0002058
-0.0001958
0.02304
0.002427
-0.02429
0.07972
-0.003014
-0.02457
0.02367
0.03802
0.1009
0.1165
0.004494
-0.0003615
-0.1145
0.02308
0.02553
-1.942
-0.1938
0.02271
0.01835
0.1346
-0.3592
0.0992
-1.698
-0.005704
0.136
-0.7256
0.04007
0.01835
0.2103
-0.4899
0.0106
-0.1314
-0.3779
0.03211
0.04351
0.0237
-0.3765
0.06595
-0.18
0.02782
-0.02431
-0.6734
-0.7388
-0.9597
0.01151
0.3088
-0.6662
0.02363
0.1395
-1.161
0.00644
7.816e-05
-1.273
0.05764
0.1764
-0.4295
0.1873
0.3935
-0.05374
-2.065
0.2024
-0.1416
-0.2607
0.04685
-0.2633
-0.006708
-0.7819
-0.922
-0.1154
0.4527
0.4507
-0.6801
0.131
0.0003651
-0.02219
-0.6726
0.04168
-0.6986
-0.4365
0.09892
0.000182
0.2536
-0.000347
0.03332
0.06569
0.01073
-0.01275
0.02357
-0.2621
-0.001983
0.08201
-0.01112
-0.492
0.1579
0.06673
0.1369
0.02714
0.4151
0.04313
0.02416
0.01174
-0.6769
0.06122
0.2195
0.3316
0.1098
0.04109
0.4917
0.1162
0.02615
-0.168
0.05646
0.0941
0.02366
0.1864
-0.0004118
0.01485
-2.074
-0.5183
0.05458
-0.2865
-0.0006039
0.1396
0.03864
-0.09353
0.1758
-2.08
-0.6034
0.1398
0.02903
0.02859
-1.791
-0.07987
-0.0132
0.1946
0.0001572
-0.0001497
0.2599
0.3973
0.1194
-0.07889
-0.2856
-0.112
0.1342
-0.6988
-0.6988
0.1799
0.08179
-0.4121
-0.5166
0.06446
-0.9243
0.0618
-0.03027
0.01899
-0.6994
0.04086
-0.3915
-0.4283
-1.579
-0.005527
0.0287
-0.01249
0.04174
-0.0277
0.03895
0.04327
-0.007491
0.002594
0.001071
-0.5829
8.653e-05
0.4022
-0.09233
0.05831
0.04047
-0.03112
-0.2429
0.04847
0.02391
-0.1199
-0.0004348
-0.1406
0.07472
0.07244
0.221
-0.02586
0.02753
-0.1444
0.02759
-0.2249
-0.3219
-0.01806
0.3467
0.01621
0.1985
0.04665
0.03936
0.3438
0.03296
0.04552
0.04712
0.03684
-0.005764
-0.4148
0.02416
-0.1551
0.06781
-0.07621
0.04957
0.0006723
0.05262
0.4076
0.09175
0.1728
-0.04124
0.3272
-0.5231
-0.2454
0.1327
-0.5882
0.36
-0.03677
-0.03018
-0.2124
0.0001036
-0.1319
-0.2887
-0.9678
0.1981
-0.9616
0.1231
0.00294
-0.2005
0.01823
-0.101
-0.9202
-0.007672
0.09451
-0.4617
0.07946
0.0272
0.01198
0.04233
-0.05875
0.3984
0.01718
0.04023
0.01927
0.4968
0.0004884
0.02427
-0.2856
0.06693
0.06793
-0.6138
0.06321
-0.01465
0.06494
-0.9855
-0.02508
-0.5629
0.04733
-0.8216
-0.3083
-0.4527
-0.8222
0.000438
-0.02913
-0.5328
-0.3364
-0.001292
-0.1543
-0.3077
0.06218
-0.5149
0.09133
0.0005029
0.4071
-0.3058
-0.001053
-0.6819
0.4678
0.4949
-0.7029
0.1864
0.4063
-0.9154
-0.6587
-0.01945
0.04181
0.03104
-1.998
0.05118
-0.7389
-1.652
0.02366
-0.1681
-0.07368
0.05495
-1.628
0.0215
0.467
-0.03054
0.01191
-0.22
0.02359
0.02349
0.02398
0.008716
-0.3928
-1.18
0.01423
-0.02806
0.3272
-0.09908
0.08887
-0.2869
0.06824
-0.1561
-0.5724
0.0005073
0.02521
0.02272
0.367
0.04908
0.0208
-0.01706
0.059
-0.004333
-0.3073
0.008146
0.04472
-2.604
0.01248
-2.231e-05
-0.531
0.07749
0.02288
0.4247
-2.11
-0.238
0.0426
-0.01292
0.3463
-0.001433
0.2197
-0.5688
0.04406
0.03886
-0.3368
-0.07399
-0.2236
-0.7806
0.3504
-0.06496
-0.2006
-0.02884
0.02543
-0.2417
0.08658
0.05723
0.006188
-0.0005179
0.0003145
-0.1357
-0.414
-1.682
0.01538
4.919e-05
0.337
0.3946
-0.07165
0.407
-0.03278
-0.1186
0.1694
-0.04403
-0.004328
0.007365
-0.1882
0.1747
0.001125
-1.173
0.05271
-0.3058
-0.0005341
0.08008
0.01585
-0.0748
0.02549
-0.2777
-8.233e-06
-0.06624
-0.262
0.4298
0.0004942
0.09774
0.01831
0.01199
0.06802
0.005101
0.04013
-0.6325
0.01087
-0.4015
0.07793
0.02375
-0.6482
-0.6092
0.0618
0.072
0.3164
0.04706
-2.356
0.03125
0.0167
-0.7784
0.04302
0.001198
0.1544
0.01253
0.1723
-0.06979
-0.6132
0.003041
-0.001203
0.05308
0.3609
-0.3802
0.0009761
-0.004028
0.01061
-1.662
-0.4224
0.04367
0.01104
0.3982
-0.2782
0.4076
-0.6972
-0.1971
-0.9432
0.0009624
-1.008
-0.6827
0.1104
-0.4963
0.02286
6.488e-05
-0.602
0.478
-0.6578
0.01794
-0.06959
-1.64e-05
-0.1325
-0.8647
0.07631
-0.8081
0.1072
0.01736
-0.1687
0.1855
-0.6819
0.2745
0.02395
0.01847
-0.02552
-0.01449
-0.261
-0.6788
0.08419
-0.6725
0.0777
-0.8168
0.02343
-0.4135
-0.004491
0.09902
0.2812
0.3273
-6.749e-05
-0.00442
0.02359
0.05472
0.1268
-0.7145
0.4798
-0.1702
-0.713
0.03974
0.288
0.2122
-0.01849
0.002302
-1.358
-0.3011
-0.582
0.335
0.3732
-0.002792
0.3712
-0.1136
-0.03035
1.377e-05
0.03434
0.08977
0.175
0.02358
0.09681
-0.7797
-0.1206
-2.956e-05
0.0572
0.04458
0.0009582
0.005825
-0.3559
-0.696
-3.141
-0.2431
0.4648
-0.01901
0.1876
0.05683
0.05668
-0.1387
0.1352
0.02603
0.2834
0.02538
0.1679
0.393
0.05399
-0.01121
0.02355
-0.03181
-0.0665
-1.292e-05
0.01793
-0.2152
0.07006
-1.556e-06
-0.6737
0.01145
-0.5666
-0.8071
-2.161e-05
-0.07863
0.02281
-0.3046
-0.4436
0.00306
-0.6992
0.04269
-0.03155
0.1254
0.1586
-0.6783
-0.1662
0.2189
0.09682
0.07198
-0.1151
2.223e-05
-0.07635
-0.04429
0.03658
0.09331
-0.5082
-0.0277
-0.07412
4.993e-06
-0.09727
-0.1696
-0.6732
0.02372
-0.6731
0.01253
-0.5054
0.01433
0.177
0.008693
0.02336
-0.2214
-0.6464
0.004054
-0.03758
-0.02901
-0.1049
0.04198
-0.004215
-0.01442
0.07044
2.104e-05
-0.1313
-1.99
0.09418
0.3151
0.0007572
-0.2777
0.02153
-0.01903
0.0007432
-0.492
-0.07642
0.008971
-0.02113
-0.07343
0.02232
0.07671
0.3745
-0.00475
-0.1317
-0.02944
0.03496
0.04147
0.4047
0.0003304
-0.01692
0.01207
-1.24
-0.004919
-0.09601
0.4921
0.0718
0.09473
-0.00128
0.0229
0.06663
-0.005724
0.06552
-0.002984
0.4515
0.07304
-0.7214
-0.7155
0.02398
0.02867
-0.3239
0.2843
0.04386
0.02362
0.07293
-3.111
-0.5138
0.1343
0.3664
0.06393
-0.004366
-0.4036
0.2784
-1.773
0.02339
0.08983
0.0003558
-0.02997
0.007378
0.1788
-0.9782
-1.335
0.2837
-1.541
-1.638
-0.3902
0.002184
-0.01553
0.03665
-0.04183
0.0881
1.105e-05
-7.409e-06
-0.6026
-0.09628
-0.7308
0.04673
-0.4715
0.05758
-0.04408
-2.171
0.172
-0.0174
-0.04937
-0.05241
-0.04401
-0.4326
-0.01734
0.02968
0.1472
0.2348
-0.4103
-0.01962
0.01728
-0.7386
0.1755
-0.005637
-0.3754
-0.2265
-0.09384
-0.001223
0.002562
-0.07696
0.02253
0.3079
-0.01787
-0.1873
0.4027
0.1637
0.01968
-0.9368
-1.199e-05
0.4823
-0.9161
2.317e-05
0.3783
0.02377
-0.2212
-1.38
0.04378
0.1018
0.02128
0.04186
0.05306
-0.0423
0.005411
0.1358
0.4281
-0.06636
-0.4278
-1.044
0.3778
0.06041
-0.3948
0.3778
-0.123
-1.051
-0.01182
-0.04079
0.02364
-0.4946
-0.261
-0.1835
0.01074
0.03303
0.0002216
0.1946
-0.00238
0.07645
-0.009271
-0.008369
-0.6494
-1.118
-0.8865
0.08065
-0.6838
0.03819
-0.2038
0.06994
-0.02936
-1.657
-0.0339
0.02361
0.02297
-0.1797
-0.01107
-0.007952
-0.07967
-0.007647
0.1117
0.0006786
0.4273
-0.2791
0.05104
-0.02419
-0.6073
-0.146
-1.455
0.0009308
0.1304
0.05108
0.3428
0.03988
0.01489
0.3763
-0.372
-0.6013
0.04605
0.04429
-0.0125
0.422
0.06231
-0.0337
0.3928
-0.009745
-0.1078
0.02152
-0.04406
-0.6586
0.1839
-0.01321
-0.3505
0.1394
-0.0003173
-0.004986
-0.7481
-0.3774
0.0234
0.0238
0.08796
0.3361
-0.07436
0.123
0.0837
0.03075
-0.0856
0.03966
-0.07797
0.153
0.02232
-0.05609
-0.0008285
0.07195
0.009068
0.009071
-0.7045
-0.00028
0.01775
0.08013
0.1331
-0.8563
0.009878
0.0648
-0.009692
-2.066
0.1209
-0.03035
0.0644
0.134
0.08642
-0.1618
0.05936
0.001848
0.03519
-0.5039
0.1276
-0.02481
-0.09762
0.03293
-0.092
-0.1386
-0.6488
0.2284
-1.247
0.05417
0.08065
-0.4189
-0.02651
-0.003701
-0.539
0.02273
0.1107
-2.21e-06
0.4988
-0.2379
0.04876
0.2262
-0.7097
0.07525
-0.4769
-0.2369
0.04884
0.01378
0.2208
0.02364
-0.0006911
0.04316
-0.5708
0.02947
-0.4985
-0.8437
-0.0004037
0.1649
0.02139
0.05343
-0.4447
-0.4219
0.0294
0.1067
-5.448e-05
-0.4111
-0.2119
-0.0186
-0.4399
-0.1554
-0.2679
-0.322
0.1164
-0.04653
0.02222
0.02213
0.153
0.09952
-0.1255
0.03642
-1.948e-06
0.05373
-0.01162
-0.1635
0.4564
-0.5904
0.2253
0.02353
-0.6533
0.001298
0.01898
-0.139
-0.2213
0.04542
-2.055
-0.2066
0.0006307
0.03984
0.08191
0.1253
0.0325
-0.004751
0.03718
0.1549
0.09309
0.4946
0.02925
-0.01396
0.1098
-0.08539
-0.7237
0.06908
0.05375
-0.2143
-0.0343
0.06009
0.1551
0.07719
0.1091
3.38e-05
-0.009477
-0.5601
0.03326
-0.05117
-0.003159
-0.4883
-0.01221
0.006451
-1.767
0.0786
-0.6645
0.02362
0.2404
-0.01489
0.02385
-0.05192
-0.03003
-0.1028
0.07067
-0.8557
0.08661
0.04505
0.3956
-0.6534
0.05266
-0.01366
-0.6851
-0.179
0.1889
0.04085
-0.004662
0.0232
-0.01128
0.09762
0.009786
-1.104
-0.6761
0.1029
-0.035
-0.2178
-1.354
-0.2103
-0.02787
-0.08814
-0.009987
-0.08164
-0.7198
-0.6587
-0.03236
0.1749
0.04222
0.005608
0.1269
0.02119
-0.4289
0.08963
-0.8937
-0.07059
-0.009326
-0.0362
-0.0008714
-0.05397
-1.827
-0.5405
0.01829
-0.319
0.02111
-1.26
0.1498
-0.03422
0.1337
0.2005
0.0004475
6.372e-05
0.01734
0.0297
-0.02146
-0.2371
-5.763e-06
-7.328e-05
-1.59
-0.2451
-0.1959
-1.103
0.06891
0.0555
0.2169
0.06653
-0.0001996
-0.1067
0.0001293
0.03363
-0.1479
0.1983
0.08641
-0.5706
-0.1554
-0.1106
0.04217
-0.4942
0.4574
-0.126
-0.3454
-0.008294
-0.1862
0.04917
0.1014
0.3823
-0.3345
0.0231
0.004607
0.04424
-2.707
0.0002962
-2.884
0.1142
-0.05298
0.1039
-0.007263
0.2597
0.03311
-0.01309
0.03893
-0.1492
0.04846
0.4241
0.1389
0.06018
0.01854
0.2123
-0.1028
-0.6416
0.02581
0.1899
0.02361
-3.129
-1.334
-0.1625
-0.01118
-1.124
-0.06854
0.04084
-2.403
-0.04485
-0.1329
-0.006452
0.0903
-0.07574
0.006391
-0.004288
-0.0003809
-2.88
0.002556
0.02668
-0.04257
-0.702
-1.645
-0.4229
0.04239
0.2668
-1.666
-0.2552
-0.1474
-0.6587
-0.4231
-0.02252
-0.006233
0.01508
-0.02843
-0.1467
0.00745
0.01898
-0.007972
-1.256
-0.01121
-0.0005966
0.02009
0.02381
-0.229
-0.2068
0.1344
-8.851e-05
0.3959
-0.3103
-0.004645
0.02384
-0.1534
0.02363
0.08253
0.05729
0.0664
0.1168
0.02694
-0.1467
0.03203
0.02234
-0.04615
-0.8121
-0.6921
-0.787
-0.02075
0.009003
-1.647
-0.3037
0.35
0.0009083
0.08211
0.3412
0.07741
0.005395
0.0001273
0.0001315
-0.02388
-0.1453
0.01444
-0.09488
0.07098
0.1548
0.4527
-0.0006554
0.07981
0.2846
-1.137
0.03357
-0.2836
0.04816
-0.8354
-0.2722
0.1341
0.07383
-0.1097
-0.0368
0.02286
0.02007
0.08926
-0.6918
0.05257
0.1918
0.002298
0.064
0.01815
-0.8809
-0.001159
-0.008479
-0.008926
0.297
0.04734
0.4842
0.1109
-0.2226
-0.1392
-0.1389
0.00012
-2.822
-0.3467
0.02405
-0.3622
-0.01312
-0.001011
-0.01139
-0.9475
0.02373
-0.1854
-0.615
-0.3765
0.01643
0.08735
-0.8989
0.06762
0.4833
0.1082
0.4911
-0.2738
0.04207
-2.9e-05
-3.158e-05
0.05371
-1.263
-2.483
-1.834
0.04843
0.03889
-1.637
8.698e-06
-0.02612
-0.08761
-0.02824
-0.009552
-0.01899
-0.001386
0.3037
-0.01193
-2.292
0.195
0.4508
-1.192
0.03987
-3.792e-05
0.2379
-0.2814
-1.504
-0.1988
-0.41
0.01157
-0.5434
-0.07944
-0.1885
0.02369
0.02201
-0.1036
-2.895
-1.454
0.07316
-0.001105
-0.002613
-4.377e-05
8.908e-05
0.1628
0.021
-0.001151
0.03357
-0.004985
-0.634
-0.7708
-0.2874
-1.574
0.00204
-0.05202
-0.3925
0.03183
-0.4267
0.07873
0.2118
-0.01369
-0.00298
-0.7307
0.2376
0.2342
0.08378
-0.06834
-0.03668
0.1082
0.1837
-1.254e-05
0.2747
-0.1174
0.04191
-0.07111
0.3745
0.02914
-0.7085
0.001907
-0.8234
0.3344
0.02654
-0.6594
0.1781
-0.3079
-0.004366
-0.6833
0.04711
-0.06305
0.08301
0.07844
-0.1243
0.05959
0.3388
-2.685
-0.7039
-1.87
0.02364
-2.461e-05
-0.3743
-0.01578
-0.9678
0.1443
-0.8592
0.0101
0.02403
-0.009494
0.06505
-0.09748
-0.00516
-0.0932
0.05192
0.402
-0.3332
-0.001465
0.05168
-0.008279
0.228
0.4549
0.1197
3.513e-05
0.09571
-0.01671
-0.7161
0.01923
0.4989
0.4029
0.008926
0.06381
-0.5815
-0.8523
0.4428
-0.05432
-0.4944
0.3763
0.09377
0.0782
-0.2566
0.2943
0.06291
0.01859
-0.0009198
0.02113
-0.07397
-0.7668
-0.05088
0.1208
-0.03682
0.05572
0.08034
-0.001178
0.05842
0.1157
0.07206
0.06213
0.07126
-0.6362
-0.0004256
-0.2219
0.09014
-0.2492
0.4487
0.1324
0.1116
0.009488
0.07388
0.408
0.3951
-1.461
0.07831
0.04656
0.06985
-0.01263
-0.02772
0.01997
1.263e-05
-0.8038
0.1941
0.1847
0.4537
0.09135
0.01613
0.0006066
-0.4554
-0.6793
-0.0007226
0.2595
-1.77
-0.2661
0.000245
-0.04036
0.03902
-0.1788
-1.295
-0.05131
0.05176
-0.268
3.257e-05
-2.855e-05
0.01927
-0.04921
-0.6973
0.4613
0.005794
0.03816
-0.5933
0.07716
-0.931
0.02348
-3.918
0.02474
0.01902
-0.5004
0.05172
-0.01274
0.05459
0.01417
-0.2675
0.01653
0.02299
0.4135
-0.08073
-0.1768
0.07012
0.02026
-2.857
0.05534
-0.1993
-0.7576
-0.2625
0.1397
0.02478
-0.05322
-0.0006483
0.2457
0.0845
-0.604
-0.7867
-0.2016
0.1214
0.156
-0.06534
-0.4328
0.02055
-0.4243
0.09264
0.02742
5.081e-06
-1.736
0.2444
0.06748
2.112e-05
-0.03459
-0.03159
0.04771
-0.647
0.02717
0.0473
-0.0007488
0.4572
0.1038
0.09831
0.01246
-0.02308
0.05035
-2.525
0.04456
0.02826
-3.651
-0.01383
0.07357
-2.706e-05
-1.692
0.3129
-0.00138
-0.2062
0.01996
0.05272
0.0005209
0.04877
-7.322e-05
0.1488
0.04174
-2.342
-0.02591
-0.4811
0.2029
0.3352
-0.001585
-0.0007667
-0.8759
0.1108
0.02084
0.06192
0.04906
0.05977
0.006277
0.1421
0.2264
-0.5278
-1.482
-0.1403
0.02137
0.07898
0.1095
0.03956
-0.09564
0.01747
-0.03449
0.07395
0.06759
0.02362
0.06324
0.0512
2.081e-06
-0.05442
0.02481
-0.01946
-0.01467
0.008163
-0.1625
0.0918
0.01908
0.1129
0.03583
0.361
0.03983
0.04584
-0.0003287
-0.003676
0.06088
-0.3318
0.003325
-0.7153
-0.3015
0.08714
-0.7018
-0.006196
0.02377
0.005774
0.07629
-0.01099
0.08976
-0.4429
0.1537
0.04695
-0.5389
-0.2701
0.04762
0.02152
-0.5134
-0.067
-0.07901
-0.1184
-0.5469
0.0002667
-0.6603
-0.06644
-0.02235
0.009555
-0.03261
0.08654
0.1188
6.541e-06
-0.348
-0.3
-0.7721
-1.429e-05
-0.01251
0.02603
0.006968
0.01066
-0.4855
-0.1221
-0.1948
0.07586
-0.05706
-0.03287
-0.001766
-0.006213
-0.01266
0.07979
-0.1738
0.005301
0.07989
0.03984
0.01923
-0.01176
-0.06027
0.01185
0.05399
-1.217
0.01138
-0.6641
0.009248
0.201
0.043
-0.1402
-1.145
-0.6072
0.0522
0.05494
0.03306
-0.09773
-2.571
0.04113
-0.1343
0.1218
0.01258
-0.001148
0.3288
0.05724
-1.441
0.008839
-0.2769
-0.05916
-2.812
-0.1473
0.1357
-1.001e-05
6.441e-06
0.05262
-0.5844
0.01625
0.4644
0.02298
-0.2608
0.06984
0.001329
0.04923
0.1713
0.08817
0.01618
0.04285
-0.01976
0.2439
-3.679e-05
0.07033
0.2503
0.131
0.2664
-0.3643
0.4984
0.01611
-0.719
0.04199
-0.5684
-0.3904
0.0991
-1.402
-0.01817
2.875e-05
-2.892e-05
-0.08308
-0.005554
0.03877
0.3964
0.4209
-0.7156
0.0007086
-0.01431
0.4153
-0.008167
-0.3025
0.2111
-1.802
0.1064
0.1977
0.1082
0.4994
-2.018
4.211e-05
0.06907
0.09505
0.08286
0.008472
0.3446
-0.3355
-0.6468
-0.5239
-0.06312
0.06218
-0.09181
0.3636
0.1505
-0.3542
0.01925
-3.49
0.008318
0.01216
-0.04632
-0.5145
0.398
0.1365
0.09498
0.08179
-0.8181
-0.04937
-0.003402
-0.0005764
0.07287
-0.05113
0.08872
-0.1899
0.1998
-0.2162
0.3901
0.04383
-0.5059
0.07556
0.04059
-1.338
0.0002069
0.009004
0.04069
-0.8886
-0.1813
-0.1002
0.05368
0.1315
-0.0003263
-0.5152
-2.16
0.08845
0.02354
0.01703
-0.2545
-1.058
1.266e-05
-0.5982
0.08685
0.03546
0.4501
0.05675
0.1778
-0.007708
-0.2164
0.3737
0.06185
-0.485
-0.005206
0.04306
0.008372
-0.02858
0.05842
0.0007682
-1.988
0.04973
-0.05056
-0.7307
0.01954
0.1413
0.4397
0.4084
0.4525
-0.6675
-0.7794
0.04766
0.3436
-1.795
-0.468
0.1502
0.02152
-0.02499
-0.2254
-0.05435
2.115e-05
-0.2664
0.008572
-0.0005835
-1.663
-0.03704
-0.0124
0.2249
-0.3334
-0.5055
0.06122
-0.8433
-0.1214
0.4838
-0.1929
0.01996
0.01134
-0.3245
-0.1683
-0.0002301
0.004395
-0.2274
-0.02662
0.02433
1.52e-06
-0.1959
0.04769
0.08476
-0.2527
0.02004
-2.474
-0.1034
-0.2075
-0.3307
-0.04156
-0.007012
0.006903
0.1676
-0.2368
0.02073
-0.9287
-0.7533
0.03439
-0.1464
-0.02215
-0.6089
-0.2187
-0.2154
0.06053
-0.372
-0.0455
0.08914
0.3723
0.07432
-0.04985
0.04366
0.01917
-0.1631
-0.03532
0.2729
0.008518
-0.7384
0.07057
0.3914
0.00656
-1.15
-0.5612
-0.01441
0.08911
0.0714
-0.4814
-1.718
-0.4215
-0.586
-2.564
0.01215
0.02363
-0.1176
-0.2107
0.2352
0.2593
-0.02373
-0.4602
-0.2088
0.2246
-2.339
0.2726
-0.6806
-1.379
-0.1117
0.0586
-7.186e-05
7.008e-05
0.04383
-0.6325
0.2535
-1.299
0.04413
0.007527
-0.7707
0.1475
-0.6396
0.02944
-0.02128
-0.7202
-0.5577
0.04341
-2.47
0.2054
-0.002075
0.04261
-0.007772
0.1249
0.1271
0.03978
-0.0001955
0.09963
-0.1062
-0.1584
0.0115
-7.29e-05
-3.642e-05
-2.935e-05
-3.157e-05
0.04779
0.02341
0.1359
0.3945
0.07699
0.00728
-0.3911
-1.068
2.615e-05
-0.3952
-0.02392
0.023
-0.8104
0.02152
0.02325
0.06491
0.0735
-0.5999
0.04305
-0.02476
0.06579
0.4997
0.1919
0.05451
0.3966
0.4524
-0.01427
0.003379
-0.2049
0.1555
0.05146
0.1305
0.3881
-0.01069
-0.02013
-0.7825
-0.00122
-0.7175
-0.06476
-0.3318
0.01194
0.02361
-0.2584
-0.1173
0.0009681
0.414
0.05955
-0.04945
-0.04091
0.393
0.01354
-0.02806
-0.3973
0.02291
-0.1961
0.03475
-0.3104
-0.8218
0.09538
0.4484
0.07356
-0.2401
-0.0119
0.02524
-0.1001
0.06754
0.03414
-0.8396
0.01294
0.3651
-0.01898
0.01093
-0.3142
8.021e-06
0.4808
-0.1217
0.03827
-0.06658
0.1291
0.006941
0.05895
0.01448
0.09645
-0.002299
-0.0002545
0.1584
-3.282
-0.8847
0.006667
-1.142
-0.8242
0.03221
6.422e-05
-0.1977
-0.3826
0.1017
-0.07002
-0.1641
-1.774
-3.082
-0.1494
0.06196
0.02335
-0.01173
0.1167
-0.8272
0.04216
-0.01087
0.06549
-2.601
0.04081
0.1697
0.06268
-0.6842
0.03687
-0.03893
-0.09036
-0.009064
-0.2915
-1.265
-0.07452
-0.3539
0.1708
-0.231
0.02365
0.3758
0.006769
0.01733
0.03903
-0.4469
-0.07673
0.02104
-0.7223
0.07488
-0.0745
-0.6034
0.006538
-0.0656
-0.008493
-0.7385
-0.7214
0.1047
-0.09249
0.4328
0.04246
0.1748
-0.04901
-0.9673
0.03233
0.04531
0.07236
0.4206
0.07199
0.07143
0.4054
0.003024
-3.425
-0.001081
-0.08226
-0.5825
0.02546
0.02938
-2.212
-0.01496
0.4916
-6.319e-05
0.3988
-0.9315
1.277e-05
-0.08077
0.007439
0.4997
0.0512
-0.00164
-0.2166
0.1663
-2.254
-0.3766
0.272
0.07072
-1.147
0.002255
-0.07562
0.06636
0.02007
0.044
0.01002
0.0383
0.0654
0.08761
0.1771
0.1442
-0.005157
0.05778
0.2321
0.09974
-0.04037
0.02063
-0.2069
0.09209
-0.6183
-0.7245
-0.0499
1.116e-05
0.03318
0.06311
0.1044
-1.366
-0.0244
-0.05197
-2.564e-06
-0.1167
0.113
2.109e-07
-0.1503
0.1946
0.1045
-0.3512
0.009919
0.02504
-0.07162
0.05212
0.1509
0.04618
-0.03459
-0.7352
-0.1516
-0.1541
-0.4221
-0.03461
0.2446
0.09709
-0.005429
0.03401
0.1705
0.3317
0.02365
0.04217
-0.5756
1.321e-06
0.08917
-0.09195
-0.01202
0.09235
-1.285
-0.2045
-1.438
0.04831
-0.007854
0.3816
0.01054
0.02404
-0.0001369
-0.3087
0.1347
-0.1022
0.2691
0.00108
0.483
-0.1919
-0.06356
-0.1183
-0.2533
-0.5858
0.3016
-0.3022
-0.07548
-0.8015
0.01839
-1.659
-0.6061
4.706e-05
-0.003511
0.03612
-0.003015
-0.04196
0.04319
-0.005343
-0.9306
-0.3431
0.1051
0.1334
0.05409
-2.907e-05
-0.1776
-0.2028
0.1536
0.02365
0.386
0.08874
-0.007293
0.334
-0.01432
0.05193
-0.1421
-0.3208
0.07412
-0.3102
0.06105
-0.1506
-2.093
0.2571
0.0004433
-0.1633
-0.09852
0.001463
0.1083
0.008727
0.03176
-0.3023
-1.884
-0.05699
-0.002224
-0.3052
0.048
-0.9223
0.02378
-0.8639
0.01194
-0.0452
-0.3295
0.09213
0.1638
-0.6898
0.04384
0.07333
-0.9738
0.09517
0.491
-0.965
0.0009939
2.724e-05
-0.04371
-0.07106
0.2702
0.02286
-0.2046
0.003096
0.06743
0.4267
0.06353
-0.008605
0.04338
-0.3971
0.05198
-0.0003814
0.4865
-0.6824
0.05285
1.066e-05
0.05285
-0.1568
0.08997
0.05193
0.1697
0.2441
-0.1382
-0.5768
-0.005368
0.03365
-0.008444
-0.7882
-0.02949
-0.7156
0.05453
-0.0785
0.1583
-1.986
-0.01156
-0.293
0.1051
-1.514
0.2978
0.004777
-1.128
-0.6813
-0.2016
-0.3621
0.07408
-1.677
-0.1027
0.04088
0.02103
0.005212
0.01908
-0.5848
4.695e-05
0.4576
0.1047
0.08346
0.01895
-0.9711
0.3353
0.1614
-0.01342
0.09463
0.05594
-1.2e-05
-2.718
-0.2715
0.007847
-0.0536
0.045
0.03945
0.002069
-0.0475
0.006636
0.06324
0.1851
-0.7407
-2.753
-0.6839
-1.694
0.06389
0.01379
-0.5495
-0.01595
-0.2274
-0.5958
-0.2641
-0.005517
0.05284
-0.09206
0.005211
-0.04479
-1.741
0.3489
-0.03098
-0.2488
0.01129
-0.1768
0.4264
-0.06373
0.1871
0.1068
0.1723
0.02849
-0.008899
-0.9344
0.0364
0.008227
-0.5787
-0.1516
0.3694
0.0704
-0.7091
0.09669
-0.1315
0.3116
-0.02297
0.001324
-0.02631
0.01915
-0.0002621
-0.5574
0.07252
0.4062
0.02453
-0.1959
0.04115
0.066
-0.1331
-0.8064
0.008176
-0.1437
-1.153
-3.017
0.05674
-0.2198
-1.654
-0.7035
-0.598
0.1568
-0.01898
-0.2568
-0.0008568
0.002845
-0.1358
-0.3294
-0.006201
0.3285
0.04426
0.277
-0.04548
-0.8095
-0.2909
-1.488e-05
0.328
0.03441
0.1606
1.874e-05
-0.5781
0.03022
-0.03746
-0.2875
-0.7008
0.0002589
0.007809
0.0008623
-0.3572
0.004567
0.2196
-0.9631
0.05546
0.01727
0.0534
-0.00795
0.01522
-0.3462
-0.03308
-0.09091
0.02121
-0.3851
3.973e-05
0.01385
0.05182
0.0104
0.004194
-2.228
-0.008452
0.01511
-0.2112
0.03807
0.0003126
0.1449
0.05616
0.236
-0.1217
-0.2392
0.4831
0.0002555
0.2442
-1.454e-05
-0.4845
0.2241
0.01811
0.00971
-0.1563
0.02364
0.001718
0.01534
0.1443
0.0008893
-0.6705
0.1058
-0.01638
-0.7395
-1.565
-0.1984
0.0006141
0.07882
-0.1875
-0.0193
0.4367
-0.1035
-0.01415
-2.235
0.1748
0.01908
0.06875
-0.007915
-0.0181
0.03133
-0.6441
-0.1962
0.05963
0.1036
0.02449
0.1586
0.006394
0.1739
0.03461
0.1435
-0.6979
-0.02424
0.002394
0.1307
-0.653
0.0204
-0.7521
0.2876
-0.06363
-0.04374
-0.2347
0.3168
0.04137
-0.9047
0.05622
0.01016
-0.4222
0.2414
-2.109e-05
-0.3592
0.152
-0.6966
-0.7843
-0.7817
-0.7234
-0.736
-0.001183
-1.526
-0.3709
0.0002489
-1.863
-0.01018
-0.05411
-0.496
0.001594
-0.8756
0.4428
-0.002391
0.2085
-0.07583
0.03146
0.04087
0.3285
0.08843
0.05431
-0.01049
0.03727
-0.02896
0.05499
0.3258
-0.1823
0.05428
0.03963
0.06842
-0.6613
-0.2526
0.02306
0.4469
0.01691
-0.09213
0.3666
0.05503
-0.3661
0.0009857
-0.004604
0.04789
0.04338
0.02048
-0.164
-0.7653
0.0002798
0.05657
-0.1121
-0.2605
-0.2283
0.09694
0.1267
-0.1331
0.4062
0.4096
-0.07791
0.1754
-0.03768
0.05349
-0.78
0.1353
-0.005346
-0.1293
0.0003181
-0.02942
0.1341
0.04619
0.003639
-0.2628
0.04988
-0.3433
-0.6233
-0.002696
-0.00407
0.06975
0.05064
0.0374
-1.217
-0.06287
0.1118
0.4498
-0.7054
0.2522
-0.671
0.03845
0.1145
-0.7035
-0.2039
0.122
0.1594
0.04301
0.05082
-0.1843
0.01889
0.05092
0.008935
0.01328
0.0538
-0.009325
-0.109
0.1169
0.002128
0.02343
0.1277
0.01071
-0.01543
-0.6767
-0.4614
4.632e-06
-0.5736
-0.7494
0.01921
-0.01953
-0.03257
-0.002101
-0.8354
0.0006988
0.04631
-0.5772
0.4759
0.1362
0.03206
0.02188
0.003064
-0.01058
0.1397
0.2128
0.1085
0.06309
-0.9841
0.07967
-0.3469
-0.007142
0.02124
-2.048
0.03897
-0.4627
-0.05811
0.009906
0.2266
0.1863
-0.7914
0.08726
-0.2629
0.002987
0.4665
-0.8167
-0.09388
-0.07931
-0.7466
-0.1176
-0.01014
-0.008062
0.1117
-2.912
0.07835
-0.0249
-0.1024
0.01537
0.06151
0.1221
-7.75e-06
0.3838
-0.6792
0.04757
-1.401
-0.2069
0.006146
0.05082
0.04203
0.01128
-0.003554
0.08175
0.2428
-0.6913
0.1135
0.09215
0.06221
0.03924
-0.07764
-3.875e-05
0.0235
0.1217
0.04065
-0.01365
0.01913
0.06024
0.07703
-0.003836
-2.02
-0.5175
0.4778
-0.1241
-1.367
-0.5733
0.0528
-0.8253
0.04584
-0.02955
-0.3319
0.2824
0.008375
-0.3352
-2.147
0.1676
-0.5452
-0.7254
-0.2493
-0.002522
0.05692
0.1233
-0.1707
-0.4017
-0.07536
0.01658
0.01304
-0.1005
0.3076
0.04942
-0.1356
-0.1742
-0.5534
-1.167
0.05063
0.04779
-0.0004961
-0.5359
-0.3698
-0.4114
-0.213
0.04988
-0.5448
0.03982
0.1134
-0.8745
0.1423
-0.3704
-0.3256
0.04321
0.08043
-0.1816
0.086
0.01707
-0.02459
0.04298
0.0814
-0.02859
0.04937
0.09364
0.0227
0.05612
-0.417
-0.008988
-0.148
-0.1731
-2.103
0.01231
-0.03174
-0.01351
-0.03537
0.05439
0.02145
-0.00685
0.06175
-0.006422
0.1854
-0.002785
0.1379
-0.176
0.04258
-0.2221
0.05537
-0.3265
0.05308
-0.054
-0.003285
-0.6374
0.001779
-0.00138
-0.246
-0.005532
0.005045
-0.4748
-0.04775
0.1265
0.1607
0.06657
-0.001737
0.008432
0.04994
0.09724
0.2133
0.03942
-0.001385
0.2029
-0.01479
-1.67
-0.9017
0.1633
0.3969
0.0602
0.04524
0.05403
-0.5758
-0.5982
0.2391
0.3138
0.09623
-0.08597
0.02179
0.01322
0.1925
0.02363
-2.082
-0.009006
-0.05855
-0.004482
-0.3345
-0.3731
0.2347
-0.712
0.03673
0.2926
0.08166
0.04305
0.4742
-0.132
0.2255
0.04659
-0.0943
-0.4591
0.07382
-0.6296
0.001963
0.1987
-0.0006404
-0.2352
0.05484
0.05001
0.04176
0.1517
0.2439
0.0291
0.1369
-0.01871
-2.022
-0.04171
-8.769e-06
3.882e-06
0.0006587
0.04954
-2.212
-0.2753
-2.612
-0.6619
-3.663e-05
0.1338
0.09195
0.06145
0.06927
-1.819
-0.8192
-0.003219
-2.093
-0.02992
-0.1939
0.4811
-0.03739
-0.4585
-0.1114
0.05141
-0.02392
0.1442
-0.02056
0.04352
-0.5611
-0.7403
-0.4782
-0.2389
-0.2022
-0.001055
0.00727
-1.446
-0.3262
0.188
0.006207
-0.004846
0.08509
0.06519
-0.09425
-0.0695
0.3518
-0.9643
-0.1111
0.00845
0.07324
-0.2495
-0.2026
0.02814
0.07617
0.001695
0.04605
-0.3766
-0.0337
0.02045
-0.698
-0.6775
0.1431
-1.442
0.3802
0.04059
-0.00833
0.1628
-0.1429
-3.687e-06
0.01774
0.006631
-1.563
-0.03147
0.0203
0.002998
-0.9238
0.01868
0.03931
0.08162
0.04996
-0.1486
0.00118
0.1238
0.03837
-0.4118
-0.1854
-0.041
-0.009448
-0.5225
0.02401
0.001661
-0.02969
0.02296
0.4587
-0.003937
0.01363
0.1926
-0.009798
0.1142
-0.1272
-1.194
0.07018
-0.007287
0.04372
-0.7978
0.03727
0.0001166
0.07676
0.005355
-7.186e-06
0.08218
0.06871
-0.6703
0.008488
0.005747
-0.006471
-0.01402
-0.0003441
-0.0108
-0.04164
-1.813
0.04848
-0.3085
0.05199
0.0451
-6.499e-05
-0.0002903
-0.1322
0.1467
0.07205
0.01037
0.04658
0.01628
0.07206
-0.01022
-0.4191
-0.02286
-0.252
0.02814
0.03555
0.01935
-0.3699
-0.2312
-0.2986
0.004539
-0.007879
-0.7727
-0.1488
0.1638
0.4971
0.06299
0.04799
-0.1411
0.08115
0.07206
0.2386
-0.2561
-1.791
-0.6001
0.06551
0.05173
0.0001166
-0.007078
-0.1717
-0.6603
-1.171
0.009945
-0.2364
3.046e-05
0.2081
-1.02
-0.4841
-0.02949
0.05376
-0.1229
-0.4867
-0.4213
0.4549
0.35
0.3139
0.4202
0.03665
-3.309e-06
0.01948
-0.307
-0.07578
0.08101
-0.1247
-0.04011
-0.01461
-0.2095
0.157
-1.088
0.06
-0.06853
-1.122
0.001125
0.2388
-0.01505
0.2857
0.03976
9.543e-05
-0.5901
-0.3789
0.1062
-0.02604
-0.003732
0.04704
0.102
0.07239
0.08533
-0.008323
0.02327
-1.235
-0.1226
0.2504
-2.117
0.00028
-0.01111
-0.2789
0.02865
-0.002869
-1.704
4.545e-05
-4.118e-05
0.2416
-0.0003191
-0.1183
0.02362
0.03948
-0.1803
0.09654
0.003075
0.008667
-0.435
0.05655
0.4154
0.04992
-0.2735
0.001511
0.01046
-0.8813
0.03762
-0.1116
0.001821
0.009964
-1.634
-0.008453
0.004217
0.02105
0.09287
0.1019
-0.08132
-0.6626
-0.005613
-0.001184
0.01099
0.01001
-0.02425
-0.02348
-0.02177
0.1048
-0.05345
-0.1313
0.006585
0.103
0.02304
0.05196
-0.3901
-0.006738
0.1168
-0.2564
-1.028
-0.004898
0.01726
-0.004363
-0.3371
0.01197
0.1099
-0.0389
0.07611
0.1028
0.02334
0.007096
-3.331
0.1618
0.2685
0.008546
-1.571
0.005532
-0.0388
0.1187
0.02272
0.0201
0.02352
-0.1488
-2.863e-05
-2.91
-2.016e-05
0.01869
-2.59
-0.06751
-0.3989
-0.0002586
-1.898
0.01237
0.05325
-0.07219
-0.708
0.185
0.03413
0.383
0.03761
0.01688
-0.4457
-0.6779
-0.02888
0.4899
-0.4852
-2.518
0.0482
0.002001
-0.09214
-0.05351
0.0143
0.007943
-0.8249
-0.06101
0.4973
-1.353
0.4836
0.01064
0.04263
0.006147
0.03034
0.0199
-1.122
0.1256
-0.2423
-2.72e-05
-0.1174
0.148
-0.6795
0.03985
-2.026
-0.05044
-0.3715
0.468
0.08833
0.0678
0.01174
0.007723
0.04186
-6.667e-05
-0.02595
0.295
-0.007841
0.04829
-1.002
0.0146
0.05855
-0.1211
0.04814
0.1377
-0.7045
0.4114
-1.267
-0.7729
0.02232
-0.1537
-0.1036
-0.6753
-0.04873
-0.3039
0.02321
0.03553
0.0009364
-0.6294
-0.000385
0.2118
0.2649
0.07809
0.02365
-2.612
-0.1097
0.01178
-3.882e-06
0.06626
-0.1683
-1.446
-0.08373
-0.008287
-0.09441
-0.5851
0.0739
1.078e-05
-0.6892
0.07079
-0.1481
-0.5165
-1.261
0.424
0.4988
-0.06696
-0.5472
-0.4935
0.01639
0.0004703
0.07923
-0.9819
0.3816
-0.02948
-0.004904
-0.02316
-0.07415
-0.4281
-0.8892
0.007296
0.4077
-1.861
-0.2111
0.3679
0.4002
0.006057
-0.7873
-0.001763
-6.673e-05
-0.9889
-0.0244
0.06681
0.01363
-1.594
-0.02007
0.2362
0.1385
0.003223
0.04586
0.04368
-0.03368
-0.9676
-0.3378
-0.3937
0.06014
0.006189
-0.737
0.03882
-0.1342
0.4812
0.03599
0.04787
0.06261
-0.03184
-0.006484
-0.0004979
-0.06447
-0.08253
-0.1135
-0.1546
-0.02035
0.03241
0.01499
-0.716
-0.3903
0.2037
-2.813
0.01762
-2.57e-05
0.0958
0.0763
0.1079
0.01122
-0.3724
0.1444
-1.179
-1.18
0.01042
-0.6774
0.0007673
-0.009815
0.02363
0.1487
-0.158
-0.658
-2.091
0.156
0.116
0.04199
-0.02217
0.05992
0.0008246
-1.846
0.01207
-0.008112
0.03021
0.0009809
-0.2018
0.03211
-0.2799
0.02342
0.258
-0.1515
-0.0893
0.1153
0.07311
-0.01666
0.0001872
-0.4313
0.02911
0.068
-0.3908
0.02956
-0.7108
0.03778
-0.01344
0.03538
-0.1887
0.3275
0.07592
-2.332
0.0663
0.4127
0.02745
-0.08782
-0.006381
-0.1234
-0.008333
0.06891
0.1448
0.03758
0.1002
0.07849
0.1894
-0.2349
-0.01192
-5.642e-05
-0.2953
-7.545e-06
-0.0463
0.1329
-0.6706
-0.08856
-0.004414
-0.7589
0.05077
-1.556
0.00667
-0.01395
0.06105
0.01089
0.01159
-0.8305
0.1518
-0.664
-0.2333
0.3121
0.02098
-0.9626
-0.02241
0.03878
-0.01042
0.08978
0.1244
0.005041
-0.01163
-0.1989
0.03706
0.4249
0.02488
-0.714
-0.3806
0.02792
-0.01411
-0.2216
0.3907
-0.08094
-1.978
0.04662
-2.302
0.07174
0.05647
0.2081
0.4142
0.01016