/*--------------------------------*- C++ -*----------------------------------*\
  =========                 |
  \\      /  F ield         | OpenFOAM: The Open Source CFD Toolbox
   \\    /   O peration     | Website:  https://openfoam.org
    \\  /    A nd           | Version:  8
     \\/     M anipulation  |
\*---------------------------------------------------------------------------*/
FoamFile
{
    version     2.0;
    format      ascii;
    class       volVectorField;
    location    "10";
    object      U;
}
// * * * * * * * * * * * * * * * * * * * * * * * * * * * * * * * * * * * * * //

dimensions      [0 1 -1 0 0 0 0];

internalField   nonuniform List<vector> 
127143
(
(0.01652 -0.0005613 0)
(-0.0001732 -0.0008034 3.166e-23)
(-9.8e-05 -0.000482 -6.035e-23)
(-0.0001299 -0.0006045 -3.889e-27)
(0.6845 0.2061 -4.074e-21)
(-0.000113 -0.0006256 1.272e-26)
(0.725 0.4297 0)
(0.6519 0.3036 -3.813e-21)
(0.5908 0.2642 1.969e-20)
(0.344 0.01264 0)
(0.6063 0.8643 1.182e-20)
(0.5964 0.367 1.65e-20)
(-0.0004825 0.0001833 1.281e-23)
(-0.0001742 -0.0006895 0)
(-0.39 0.6813 2.582e-21)
(0.2664 -0.01977 0)
(-0.0002684 -0.001231 9.777e-23)
(0.978 -0.1073 -4.025e-21)
(0.9703 -0.2041 0)
(0.2586 -0.01504 0)
(1.276 -0.2968 1.342e-20)
(-0.01378 0.005011 0)
(0.8457 -0.08978 0)
(0.9454 -0.08756 0)
(-0.014 0.005114 5.609e-22)
(0.7507 -0.1215 0)
(0.9723 -0.02005 1.676e-20)
(0.9551 0.01151 -2.671e-22)
(0.3688 -0.1655 0)
(0.9889 -0.08495 5.621e-21)
(0.8647 -0.06157 0)
(0.7236 -0.1161 2.235e-21)
(1.529 0.3635 3.489e-21)
(0.5644 -0.1375 -7.498e-21)
(0.7754 0.05361 4.902e-20)
(1.533 0.3744 -4.196e-23)
(0.2762 -0.0812 9.927e-22)
(1.39 -0.2131 -9.65e-21)
(0.9579 -0.08828 5.36e-22)
(0.6495 -0.04172 1.009e-24)
(0.9693 -0.2033 0)
(1.652 0.679 -2.871e-20)
(1.605 0.6729 2.304e-20)
(-0.0009798 0.0002929 0)
(0.9774 -0.1052 3.652e-21)
(0.5743 -0.1396 2.476e-21)
(0.3804 -0.1724 0)
(0.7432 -0.2005 -2.882e-22)
(0.8824 -0.1505 -8.773e-22)
(0.9542 -0.07936 2.84e-22)
(0.2981 -0.02181 9.299e-23)
(0.916 0.006352 1.372e-19)
(1.548 -0.1761 0)
(1.428 -0.04382 -1.93e-20)
(0.9987 -0.002527 6.089e-20)
(0.7722 -0.1948 1.424e-21)
(0.9987 -0.002514 -5.476e-20)
(0.9422 -0.07895 0)
(1.015 -0.01804 -2.792e-20)
(1.43 -0.03923 -3.82e-20)
(0.2993 0.3253 -7.385e-20)
(1.044 -0.2671 -1.263e-21)
(0.9558 -0.07508 -1.361e-21)
(1.001 0.0006271 1.931e-19)
(1.407 -0.1264 0)
(0.6722 -0.1285 -2.749e-20)
(1.279 0.1029 8.911e-20)
(0.9568 -0.07679 0)
(0.9564 -0.07669 -3.649e-22)
(0.9994 -5.485e-06 0)
(0.9242 -0.0762 0)
(1.014 0.00374 -7.949e-21)
(0.911 -0.187 4.005e-21)
(1.015 -0.01789 -1.514e-20)
(1.007 0.003834 -4.022e-23)
(1.019 0.01938 8.572e-21)
(1.048 0.04964 -1.191e-19)
(0.6737 -0.1935 0)
(0.7747 -0.1952 -2.823e-21)
(1.001 0.001399 0)
(0.4004 -0.1749 -2.221e-23)
(0.2967 -0.01999 -3.438e-23)
(0.7564 -0.1765 3.249e-21)
(0.7066 -0.05016 0)
(0.4829 -0.1222 -8.282e-22)
(0.7213 -0.2042 0)
(0.9529 -0.09491 1.244e-21)
(1.226 0.09699 4.323e-21)
(0.6727 -0.1254 0)
(2.163 1.186 0)
(0.9732 -0.0204 0)
(1.218 -0.2039 0)
(2.103 1.157 0)
(1.277 -0.2964 -1.343e-20)
(1.382 -0.2713 0)
(0.9631 -0.07066 -1.632e-20)
(1.647 0.6625 6.219e-20)
(0.8237 -0.06476 0)
(1.057 -0.2937 2.377e-21)
(1.278 0.1098 0)
(1.001 0.001352 0)
(0.8793 -0.1495 0)
(1.974 1.784 -4.658e-21)
(0.927 -0.1007 0)
(0.7471 -0.2119 -8.311e-22)
(1.045 -0.2914 3.225e-21)
(0.8867 -0.1325 4.84e-21)
(0.9993 3.718e-06 0)
(0.4326 -0.07821 0)
(1.001 -0.001871 8.666e-20)
(-0.384 0.6655 -8.722e-22)
(1.245 0.09909 8.75e-21)
(1.339 -0.2899 -9.933e-21)
(0.2859 1.411 0)
(1.001 0.02372 -1.366e-21)
(0.8752 -0.1276 1.26e-21)
(1.024 0.07593 1.956e-20)
(1.007 0.004075 -1.097e-19)
(1.047 0.04813 9.513e-20)
(-0.001386 -0.005985 0)
(1.001 -0.001991 -1.213e-19)
(0.7129 -0.182 -1.08e-21)
(0.562 -0.1774 0)
(0.9331 -0.08122 -1.097e-20)
(0.3973 -0.1761 1.457e-21)
(0.658 -0.09243 3.632e-21)
(1.089 -0.2901 0)
(1.054 -0.0118 1.716e-19)
(1.634 -0.1338 -2.656e-21)
(0.712 -0.2003 -2.687e-21)
(0.8425 -0.2416 0)
(1.244 -0.2794 -4.189e-21)
(0.9475 -0.08466 4.49e-21)
(0.6818 -0.1964 0)
(-0.0004041 -0.002197 5.107e-22)
(0.86 -0.2445 -1.337e-21)
(1.057 -0.08293 0)
(1.29 -0.2885 4.656e-21)
(0.1922 -0.09787 -2.297e-20)
(1.107 -0.08124 1.003e-20)
(0.8026 -0.1038 5.064e-20)
(1.007 0.06184 -2.603e-20)
(1.477 -0.208 8.426e-22)
(1.346 -0.2588 -1.043e-20)
(1.547 -0.1757 -3.959e-21)
(2 0.5805 1.501e-20)
(-0.346 1.736 -2.886e-21)
(1.001 0.0005472 -1.752e-19)
(1.23 -0.2755 3.4e-21)
(2.139 1.763 -2.066e-21)
(0.9345 -0.096 2.477e-21)
(0.8469 -0.1606 0)
(1.397 -0.2009 3.216e-20)
(0.6926 0.004654 0)
(-0.1089 0.2577 0)
(0.5098 -0.126 0)
(0.9425 -0.07861 2.701e-21)
(0.5999 -0.2038 0)
(0.7543 -0.2044 -5.571e-22)
(0.8159 -0.0692 -3.296e-22)
(0.9142 -0.06777 0)
(0.216 -0.1047 2.982e-20)
(0.9738 -0.02113 2.62e-21)
(0.8436 -0.2381 -3.015e-21)
(0.7342 -0.1901 0)
(1.466 -0.135 7.49e-21)
(0.2786 -0.08227 -6.902e-22)
(0.4312 -0.01706 4.798e-20)
(2.222 0.4834 -5.474e-21)
(0.9686 0.1364 -2.478e-21)
(-0.0002757 5.839e-05 0)
(1.345 -0.2594 5.137e-21)
(0.8633 -0.1347 4.018e-21)
(0.6998 -0.178 -1.164e-20)
(0.9968 -0.002973 1.1e-20)
(0.06366 -0.02035 -1.049e-23)
(1.991 0.7217 -3.07e-21)
(1.633 -0.1347 -2.654e-21)
(0.9522 -0.09608 0)
(1.011 -0.03087 1.16e-20)
(0.6985 -0.178 -3.92e-21)
(0.9689 -0.04188 0)
(0.05296 -0.02404 -1.758e-22)
(0.06452 -0.02064 1.077e-23)
(0.7095 -0.2005 5.399e-21)
(1.044 -0.2659 2.741e-21)
(1.373 0.4279 -3.325e-20)
(0.3199 1.429 4.985e-21)
(0.9488 -0.08846 1.126e-21)
(1.029 -0.04202 5.113e-20)
(1.532 -0.1963 2.748e-21)
(1.57 -0.1955 -1.114e-20)
(1.058 -0.08226 5.344e-20)
(0.7241 1.963 7.449e-21)
(-0.0002438 -0.00228 -8.599e-22)
(1.159 -0.2969 0)
(1.006 -3.585e-06 0)
(0.994 -2.134e-06 1.21e-21)
(0.08032 -0.003568 0)
(0.9971 0.03614 1.079e-21)
(1.023 0.006725 8.039e-20)
(0.9129 0.09302 1.203e-19)
(1.002 -0.05256 -3.699e-21)
(0.3007 -0.08797 -5.042e-22)
(-0.0002383 -0.001361 -1.298e-23)
(0.9661 -0.0714 -1.154e-21)
(0.892 -0.06268 2.049e-20)
(0.8646 -0.1401 -1.275e-21)
(0.9914 -0.08512 -2.876e-21)
(1 0.02312 9.183e-22)
(1.097 -0.1613 1.285e-20)
(0.2804 -0.07582 -4.126e-22)
(0.9764 0.000268 3.539e-20)
(2.223 0.4895 -5.524e-21)
(0.7068 -0.2061 -3.435e-23)
(0.1671 -0.01164 0)
(-0.005644 0.002406 2.991e-22)
(0.8418 -0.1496 6.315e-21)
(1.234 -0.2991 -6.927e-21)
(0.8939 -0.06252 4.978e-21)
(1.969 0.7169 -7.118e-21)
(1.005 0.00964 6.783e-20)
(0.8485 -0.1613 -1.01e-21)
(1.554 -0.1672 3.882e-21)
(0.7887 -0.06582 0)
(0.001949 -0.0002492 0)
(0.7516 -0.1953 -3.004e-21)
(1.391 -0.2107 1.145e-20)
(0.0314 -0.009732 -1.219e-22)
(1.08 -0.295 5.284e-21)
(1.287 -0.2957 7.667e-21)
(0.9676 -0.0414 4.098e-20)
(0.925 -0.1875 -8.275e-21)
(-0.0004893 -0.01121 0)
(1.286 -0.2956 0)
(0.9296 -0.07323 -1.413e-20)
(0.8434 -0.2367 1.503e-21)
(0.03769 -0.004818 -3.483e-22)
(1.023 0.006384 -7.363e-20)
(1.514 -0.2015 1.202e-20)
(1.566 -0.1943 8.003e-21)
(1.652 -0.1086 -9.8e-21)
(0.1948 -0.05353 6.709e-23)
(0.6001 -0.2029 -7.309e-24)
(1.517 -0.1581 0)
(-0.001171 -0.006152 3.63e-26)
(0.8342 -0.1596 5.779e-21)
(0.945 -0.0134 0)
(-0.008752 0.003558 -1.942e-21)
(1.001 -0.0002575 -2.708e-21)
(1.833 0.4225 -5.162e-20)
(0.7508 -0.08088 -1.779e-21)
(0.7874 -0.1668 0)
(1.332 -0.2757 0)
(0.7825 -0.1855 4.013e-21)
(0.4543 -0.09348 0)
(1.052 -0.01222 -1.349e-19)
(2.193 0.6089 0)
(0.7541 -0.1658 0)
(1.034 0.462 -1.217e-20)
(1.195 -0.2958 -6.843e-21)
(0.9528 -0.03228 -3.767e-20)
(1.218 -0.2005 7.455e-22)
(1.005 0.06121 1.643e-20)
(1.593 -0.1288 0)
(1.583 -0.1181 -3.247e-21)
(0.3656 -0.1117 2.831e-21)
(-0.1528 0.273 0)
(0.2893 0.1252 8.715e-20)
(1.534 -0.09784 -1.537e-20)
(0.8212 -0.1539 0)
(0.9964 -0.00299 -1.292e-20)
(0.8252 -0.215 -3.193e-22)
(1.514 -0.2023 -1.116e-20)
(0.9543 -0.07283 -2.376e-21)
(1.531 -0.1954 -1.103e-20)
(1.338 -0.2901 0)
(0.8954 -0.1371 -5.308e-21)
(0.9951 -0.006551 -9.878e-22)
(0.6822 -0.1679 1.151e-20)
(0.999 -0.001173 3.408e-21)
(0.9626 -0.07045 -3.52e-22)
(0.9271 -0.1003 8.702e-24)
(0.9907 0.0132 0)
(1.012 0.01784 4.035e-20)
(-0.0009985 -0.002423 1.216e-22)
(0.9869 -0.2685 0)
(1.002 0.02513 -3.403e-21)
(0.9192 -0.1251 -2.807e-21)
(1.01 -0.03095 1.75e-20)
(1.394 -0.2007 -4.902e-20)
(0.8186 -0.1217 0)
(0.9288 -0.0733 1.435e-20)
(0.8404 -0.1442 0)
(0.9743 -0.009822 -3.281e-20)
(0.4041 -0.08848 -1.721e-21)
(0.8955 -0.07458 -7.061e-22)
(-0.001397 -0.02323 1.076e-22)
(0.1946 -0.05369 -2.737e-22)
(1.531 -0.09624 1.037e-20)
(0.8704 -0.1001 6.117e-22)
(0.7382 -0.1344 -5.109e-21)
(0.5761 -0.0732 -3.195e-20)
(0.875 -0.1271 -1.231e-20)
(0.7631 -0.05767 0)
(0.1239 0.02602 -1.861e-23)
(0.865 -0.1397 -4.226e-22)
(0.9756 0.0005323 0)
(1.125 -0.2634 3.325e-23)
(0.9369 -0.09563 2.736e-21)
(0.8912 -0.1304 5.28e-21)
(-0.0008709 -0.01482 1.843e-23)
(0.8001 -0.1922 0)
(0.9988 -0.001224 2.389e-21)
(0.9863 0.01809 -3.297e-20)
(2.136 0.7581 2.953e-21)
(1.41 -0.2146 4.88e-21)
(0.8591 -0.0934 -1.247e-21)
(1.244 -0.1628 3.582e-20)
(1.001 -0.02535 1.26e-21)
(0.8454 -0.0882 0)
(0.8929 -0.06771 9.414e-22)
(1.089 -0.02501 3.548e-20)
(0.7882 -0.1668 3.193e-21)
(2.139 0.7564 0)
(1.471 -0.1911 -1.147e-20)
(0.8478 0.06024 8.478e-20)
(0.01111 -0.01584 -2.332e-23)
(0.8904 -0.05242 -2.676e-22)
(1.956 0.8585 2.279e-20)
(1.037 -0.275 0)
(1.012 0.01749 -3.502e-20)
(0.7813 0.04765 -1.775e-19)
(1.007 6.557e-06 0)
(0.9937 6.784e-06 0)
(0.6956 0.009284 0)
(0.4471 -0.0868 -1.103e-20)
(0.8626 -0.1346 4.066e-21)
(1.037 -0.2747 -1.09e-21)
(0.9908 -0.2606 -1.329e-20)
(1.104 -0.07954 -4.427e-20)
(0.8424 -0.1495 0)
(1.536 -0.1772 3.338e-21)
(1.532 -0.1941 3.107e-21)
(-0.05942 0.7982 -7.205e-22)
(0.9203 -0.1251 1.866e-21)
(0.9365 -0.2176 -3.002e-21)
(1.402 -0.2719 3.95e-21)
(0.8914 -0.1072 1.087e-21)
(1.679 -0.105 0)
(0.9016 -0.1043 -8.087e-22)
(1.005 -0.2191 2.403e-21)
(0.07133 -0.02097 1.721e-22)
(1.532 -0.1946 9.928e-21)
(0.945 0.1601 0)
(0.942 -0.224 -7.063e-21)
(1.331 -0.2765 -5.91e-21)
(1.97 0.5147 -1.277e-20)
(1.005 -0.01356 1.396e-20)
(0.8816 -0.05153 0)
(0.8951 -0.2254 -4.689e-22)
(0.9548 -0.07495 -4.151e-22)
(1.013 -0.1659 -8.14e-21)
(0.9515 -0.07332 0)
(0.9559 -0.08208 8.289e-22)
(1.004 0.003973 1.017e-21)
(0.9972 0.03526 -3.93e-21)
(0.9845 -0.01546 0)
(0.9699 -0.1788 2.584e-21)
(0.9933 -0.006434 0)
(0.1221 0.4259 7.45e-20)
(1.088 -0.02742 -7.157e-20)
(0.8139 -0.09124 1.559e-21)
(0.9493 -0.07464 -9.223e-22)
(1.029 -0.04089 0)
(1.215 -0.1075 -7.233e-22)
(0.9242 -0.09035 -7.506e-22)
(0.003045 -0.009089 -3.862e-26)
(1.035 -0.2873 -5.878e-21)
(0.9974 -0.007233 7.809e-22)
(1.108 -0.2294 -4.683e-20)
(0.7068 -0.0927 -3.502e-21)
(0.9051 -0.1123 0)
(0.7347 -0.1357 -1.909e-20)
(1.023 0.07333 0)
(0.4537 -0.03471 0)
(1.103 0.267 0)
(0.6643 -0.04361 0)
(1.163 -0.298 -1.973e-21)
(1.256 -0.249 -4.311e-20)
(1.017 -0.01521 -8.092e-20)
(0.5529 -0.01942 0)
(0.01342 -0.003617 -1.768e-22)
(0.7662 -0.1888 4.324e-21)
(0.947 -0.08652 -1.559e-21)
(0.8768 -0.06617 -6.923e-22)
(0.5579 -0.02542 -2.588e-20)
(0.8822 -0.06244 0)
(0.9397 0.1586 0)
(0.9525 -0.0311 0)
(0.7148 -0.05557 2.595e-22)
(1.004 0.009182 -2.538e-20)
(1.317 -0.2855 0)
(0.05704 -0.02508 0)
(1.114 0.2651 0)
(0.9236 -0.106 -2.43e-21)
(0.8079 -0.2286 -3.602e-21)
(0.9447 -0.08849 -3.346e-21)
(1 0.001522 -2.217e-20)
(0.954 -0.09643 0)
(0.4119 -0.1253 0)
(0.8754 -0.1232 2.721e-21)
(0.8047 -0.1031 -5.435e-20)
(0.8637 -0.2305 0)
(0.5618 -0.1746 0)
(1.39 -0.2718 -4.186e-21)
(1.152 -0.307 -5.86e-21)
(0.8003 -0.1522 0)
(1.466 -0.1658 9.137e-21)
(0.4981 -0.1807 -5.302e-21)
(0.2894 -0.08673 0)
(0.04493 -0.01489 -1.835e-21)
(0.6791 -0.1926 0)
(1.002 -0.0001926 1.005e-21)
(1.079 -0.2952 -5.409e-21)
(1.163 0.4773 2.423e-20)
(1.583 0.6558 9.754e-22)
(0.7751 -0.07351 -3.278e-20)
(1.675 -0.1156 1.284e-20)
(0.8668 -0.069 -1.737e-20)
(1.005 -0.0005254 0)
(0.66 -0.1889 0)
(0.06317 -0.01821 0)
(1.081 -0.1781 7.598e-20)
(1.685 -0.02773 1.605e-21)
(1.004 0.003829 -3.055e-20)
(0.8916 -0.1265 -5.307e-21)
(1.06 -0.2367 -6.727e-21)
(0.9183 0.006632 -5.07e-20)
(0.9743 -0.008923 0)
(0.9921 0.001408 -1.004e-20)
(0.9574 -0.07998 -4.149e-22)
(1.054 -0.08595 -1.743e-20)
(0.4442 -0.09474 2.169e-20)
(0.9793 0.09697 0)
(0.8357 -0.06534 3.832e-23)
(0.9815 0.02036 8.096e-20)
(-0.0006484 0.07241 0)
(0.9864 -0.01557 1.339e-21)
(0.2805 -0.07534 -4.663e-22)
(1.213 -0.3081 0)
(0.9269 -0.1135 -4.973e-24)
(0.9238 -0.1053 7.015e-21)
(0.9985 -0.1743 1.613e-20)
(0.8972 0.2674 -2.175e-21)
(0.2793 -0.08094 -1.166e-22)
(0.8631 -0.1033 5.83e-22)
(1.744 -0.09414 0)
(0.4051 -0.1147 0)
(1.45 -0.1596 7.771e-21)
(0.9475 -0.08458 -1.417e-21)
(1.616 -0.1324 6.809e-21)
(1.242 -0.2679 0)
(0.3629 1.313 1.347e-20)
(1.617 -0.1337 -1.012e-23)
(0.9988 -0.002557 0)
(1.028 0.039 0)
(1.412 -0.251 0)
(0.7517 -0.1954 3.325e-21)
(0.9943 -0.0003491 0)
(1.098 -0.3007 3.056e-21)
(1.256 -0.19 2.403e-20)
(0.9336 -0.08062 1.638e-20)
(1.408 -0.2137 -1.683e-21)
(0.9036 -0.0551 2.665e-20)
(1.005 -0.0002915 0)
(-0.1757 0.3973 -2.06e-20)
(1.256 -0.1874 -2.834e-20)
(0.05058 -0.01603 -8.951e-24)
(1.526 -0.1703 7.979e-22)
(0.2259 -0.1186 1.58e-21)
(-0.01749 0.09577 -1.567e-20)
(1.467 -0.2104 2.285e-21)
(0.7986 -0.192 0)
(0.4172 -0.1168 0)
(1.681 -0.02784 -1.722e-21)
(1.511 -0.1711 -7e-22)
(1.017 -0.001309 7.998e-20)
(0.8452 -0.07241 5.341e-22)
(0.9677 0.0528 4.454e-20)
(2.099 0.7646 9.683e-22)
(0.951 -0.0946 -1.118e-21)
(1.56 -0.1724 0)
(1.997 0.5493 6.779e-21)
(-0.0003816 -0.002285 0)
(0.7396 -0.2134 3.332e-21)
(0.1838 1.057 -8.67e-22)
(0.9419 -0.06629 3.306e-23)
(1.672 1.205 2.972e-20)
(0.9806 0.004636 -1.654e-19)
(0.2305 -0.1207 0)
(1.029 0.03854 1.429e-22)
(0.143 -0.04106 0)
(1.16 -0.2954 -8.563e-21)
(-0.0002257 -0.001311 0)
(-0.00417 -0.009407 -6.415e-22)
(-0.002863 0.0007239 2.458e-22)
(0.9989 -0.0001935 -6.888e-20)
(0.9565 -0.2292 0)
(1.828 0.06854 0)
(0.987 0.01793 6.124e-20)
(0.9834 -0.2489 1.228e-21)
(0.56 -0.1794 1.976e-20)
(0.5681 -0.1665 2.818e-21)
(0.8993 -0.1189 0)
(1.214 -0.3087 0)
(0.9227 -0.1127 9.403e-22)
(1.098 -0.3011 -3.063e-21)
(0.5642 -0.1067 1.154e-21)
(0.9998 -0.002391 0)
(0.1845 -0.05547 5.33e-22)
(-0.01182 0.00422 0)
(0.484 -0.1805 3.594e-21)
(0.8737 -0.08484 -2.629e-22)
(0.001243 -0.0003406 -1.05e-22)
(1.016 -0.01716 -2.494e-20)
(0.9345 -0.09582 2.695e-21)
(1.003 -0.05223 -1.615e-21)
(1.242 -0.2666 1.469e-20)
(0.9934 -0.01556 0)
(0.8132 -0.06522 0)
(2.34 1.043 0)
(0.02215 -0.006807 2.088e-22)
(0.9924 6.393e-05 0)
(1.41 -0.2515 -4.697e-21)
(0.9166 -0.08149 1.434e-20)
(-0.003474 -0.0003946 -1.624e-26)
(0.3744 -0.1045 9.272e-21)
(2.268 0.612 1.621e-21)
(1.184 -0.2677 -4.078e-21)
(0.9564 0.04602 3.548e-21)
(0.1062 -0.033 -1.092e-22)
(0.5344 -0.1564 -1.142e-20)
(0.9942 -0.0003493 8.919e-21)
(0.7366 -0.1359 2.541e-20)
(1.452 -0.1685 -4.426e-20)
(0.913 -0.07825 5.579e-22)
(0.9543 -0.07315 -4.485e-22)
(0.7104 -0.1836 -3.515e-21)
(0.1849 -0.0595 4.291e-22)
(1.162 -0.2971 4.413e-21)
(1.598 -0.07427 0)
(0.5163 -0.1821 5.055e-21)
(0.4766 -0.1392 0)
(0.6844 -0.1943 8.726e-23)
(1.027 -0.01212 -1.215e-20)
(0.6894 -0.04462 -6.707e-23)
(1.027 -0.2812 -3.016e-21)
(0.8748 -0.1291 -2.863e-21)
(0.9354 -0.09791 3.916e-21)
(0.2898 -0.07935 -1.759e-22)
(1 0.002954 0)
(1 0.00393 1.838e-21)
(1.038 0.4422 2.025e-20)
(0.9161 -0.2153 -1.51e-21)
(1.657 1.278 0)
(0.9856 0.0211 -4.233e-20)
(1.004 7.453e-06 -8.208e-22)
(0.5519 -0.1498 0)
(0.426 -0.1718 0)
(0.7679 -0.2158 1.009e-21)
(0.4151 -0.1167 0)
(0.09391 -0.0301 9.907e-22)
(0.1526 -0.04733 0)
(0.799 -0.1527 -4.428e-21)
(1.042 0.04479 0)
(0.9973 -0.0009892 1.507e-20)
(0.03094 -0.009924 -1.043e-22)
(1.121 -0.3059 -3.031e-21)
(0.7894 -0.1698 9.043e-21)
(1.001 -0.002685 2.701e-20)
(0.9961 -0.003352 4.071e-21)
(0.9411 -0.09236 0)
(0.918 -0.2427 4.651e-21)
(0.9979 -0.006894 2.921e-21)
(0.7944 -0.1002 -1.679e-22)
(0.985 0.02081 7.886e-20)
(0.8393 -0.2385 -7.652e-22)
(0.06809 -0.03282 0)
(1.22 -0.2559 5.877e-22)
(0.9964 2.338e-05 6.484e-22)
(0.2393 -0.07432 -2.204e-21)
(1.196 -0.2954 -1.753e-21)
(0.2741 -0.1436 -2.063e-20)
(1.005 -0.0002632 -3.448e-21)
(0.8866 -0.1324 -5.05e-21)
(-0.005394 0.002418 -1.322e-22)
(0.9921 0.001144 0)
(0.9234 -0.1061 0)
(0.995 0.02681 -4.956e-22)
(0.964 -0.07453 -7.833e-22)
(1.492 -0.1844 0)
(0.9906 0.01271 4.096e-20)
(0.7754 -0.1886 8.058e-21)
(0.923 -0.1234 -1.205e-21)
(-0.003168 -0.01786 0)
(1.5 -0.2294 -1.218e-20)
(1.473 -0.2053 -1.363e-21)
(0.9087 -0.1062 2.441e-21)
(0.9087 -0.1131 9.544e-22)
(-0.1702 0.5762 -1.006e-20)
(0.9583 -0.08871 4.579e-22)
(2.089 1.151 3.277e-21)
(0.9572 -0.06277 3.668e-22)
(0.07137 -0.02022 1.465e-22)
(1.589 -0.1435 -2.326e-21)
(0.8238 -0.07491 -2.56e-22)
(1.001 -0.002616 0)
(0.8392 -0.1764 -2.471e-21)
(0.9888 0.01552 -1.736e-20)
(-0.03546 0.8148 -4.998e-21)
(1.067 0.005401 7.912e-20)
(1.475 -0.2075 1.285e-20)
(1.005 -0.000626 0)
(1.001 0.02502 -2.713e-21)
(0.9432 -0.07853 -1.184e-20)
(0.4966 -0.1799 2.654e-21)
(1.292 -0.3001 4.848e-21)
(1.003 -0.001346 2.212e-20)
(1 -0.003375 -3.382e-20)
(0.03431 -0.01046 1.138e-22)
(1.754 0.2248 0)
(0.8423 -0.1946 3.664e-21)
(0.8587 -0.07501 7.181e-22)
(0.8952 -0.2109 0)
(0.4443 -0.09343 -1.73e-20)
(1.207 -0.3084 -7.711e-22)
(0.411 -0.1266 0)
(1.531 -0.1937 -2.685e-22)
(0.566 -0.1624 -1.207e-20)
(1.419 -0.1034 0)
(1.002 -0.001423 -3.86e-21)
(1.75 -0.07603 1.098e-20)
(1.521 -0.1971 1.196e-21)
(0.8747 -0.1209 3.397e-21)
(1.402 -0.1664 0)
(0.978 -0.02198 -1.109e-19)
(1.004 2.312e-06 9.143e-23)
(1.471 -0.1899 -1.103e-20)
(0.1906 -0.09561 -5.611e-24)
(1.51 -0.1714 3.501e-21)
(-0.01348 0.005481 -8.73e-22)
(1.067 0.007164 0)
(1.003 3.582e-05 4.039e-22)
(0.6259 -0.1852 0)
(1.657 -0.1499 0)
(0.9171 0.0908 -9.608e-20)
(1.311 -0.1607 -4.051e-21)
(0.8818 -0.09832 0)
(0.9821 -0.04614 -4.493e-20)
(0.4279 -0.1282 3.346e-21)
(0.7766 -0.1625 -2.772e-21)
(1.521 -0.1965 7.376e-21)
(0.6702 -0.02353 -9.662e-20)
(-0.001135 0.0003473 0)
(0.003169 -0.0005659 0)
(0.4187 -0.1175 -1.63e-22)
(0.2763 -0.08164 1.981e-22)
(0.9937 -0.2693 0)
(1.527 -0.223 6.776e-21)
(0.832 -0.1062 3.883e-22)
(1.392 -0.2123 0)
(0.9196 0.02169 -2.349e-20)
(1.61 -0.1506 1.288e-20)
(0.0122 -0.01374 0)
(1.317 -0.2852 -7.308e-21)
(0.9993 -0.002514 7.826e-20)
(0.893 -0.1367 3.879e-21)
(0.6531 -0.1091 0)
(0.4132 0.4141 -3.47e-20)
(0.9924 3.181e-05 -4.778e-23)
(0.9994 -0.002587 -1.043e-19)
(-0.002646 -0.01313 0)
(0.9422 -0.06622 4.235e-21)
(0.8743 -0.1596 -3.74e-21)
(1.553 -0.2063 -7.943e-22)
(0.1952 -0.05066 0)
(1.127 -0.2638 1.668e-20)
(1.557 0.008801 0)
(0.8165 -0.06795 -3.067e-22)
(0.5837 0.291 6.827e-20)
(0.7449 -0.1908 0)
(1.016 -0.001447 -2.864e-20)
(1.003 -0.001519 0)
(1.867 0.4734 0)
(1.177 0.4742 0)
(1.028 -0.1897 5.933e-22)
(0.4155 0.3875 0)
(0.4803 -0.1923 8.075e-21)
(0.9574 -0.2299 0)
(0.475 -0.1802 -9.543e-21)
(1.097 -0.1582 8.383e-20)
(1.016 -0.1651 1.193e-20)
(0.9972 4.531e-05 -3.771e-23)
(0.8261 -0.06138 1.758e-22)
(0.9052 -0.05571 3.721e-21)
(0.8079 -0.182 -2.502e-21)
(-0.0005895 -0.002685 -1.183e-22)
(0.8887 -0.1297 -1.647e-21)
(1.593 -0.1271 -1.457e-20)
(1.043 -0.2896 6.574e-21)
(0.9966 3.746e-05 -6.239e-22)
(0.9354 -0.09851 -6.9e-23)
(0.9535 -0.08503 1.004e-21)
(0.008578 -0.003086 0)
(0.9775 -0.1766 -6.617e-22)
(1.278 -0.2718 1.167e-20)
(1.53 -0.1938 -4.025e-21)
(2.116 1.735 0)
(1.149 -0.3063 5.821e-21)
(0.2471 -0.09884 2.113e-20)
(0.9898 -0.2295 -5.531e-22)
(0.7753 -0.1831 1.115e-21)
(0.9365 -0.09862 -1.855e-21)
(0.9367 -0.09563 -1.305e-21)
(1.089 -0.289 6.978e-21)
(0.8457 -0.122 1.51e-20)
(0.02294 -0.001039 0)
(0.6492 -0.1093 0)
(0.966 0.1312 1.463e-20)
(0.7967 -0.17 -2.55e-21)
(0.4368 -0.1539 1.609e-20)
(0.947 -0.09744 4e-22)
(1.008 -0.003255 0)
(0.02996 -0.01834 1.024e-22)
(1.007 -0.2191 -5.012e-21)
(0.7746 -0.217 -9.499e-22)
(1.003 1.814e-05 -3.357e-22)
(-0.01382 0.004924 0)
(0.7038 -0.2019 0)
(0.8016 -0.1009 -2.344e-21)
(0.9978 3.14e-05 2.037e-22)
(1.358 -0.2112 5.974e-21)
(0.0932 -0.0273 0)
(1.267 -0.2355 6.821e-21)
(1.616 -0.1697 -6.705e-21)
(0.9975 2.031e-05 -1.743e-22)
(0.9448 -0.2612 -2.194e-21)
(0.00221 -0.003147 0)
(0.6309 -0.1701 5.728e-21)
(1.343 -0.274 0)
(0.9964 0.03911 -7.651e-22)
(1.536 -0.1767 3.341e-21)
(-0.3065 0.9033 0)
(1.03 -0.00514 -2.624e-20)
(0.8534 -0.1454 4.743e-21)
(0.8147 -0.1426 0)
(1.53 -0.2223 -8.03e-21)
(0.741 -0.2124 0)
(0.7395 -0.1327 -1.538e-20)
(0.8886 -0.1299 0)
(0.7286 -0.0919 -4.257e-22)
(0.3931 -0.1171 0)
(0.9932 1.122e-05 -5.094e-22)
(0.9379 -0.2588 2.136e-21)
(1.008 -0.2531 4.025e-22)
(0.6895 -0.05357 0)
(0.8926 -0.1277 -2.06e-21)
(1.42 -0.06148 0)
(0.9849 -0.2489 0)
(0.1927 -0.06027 1.063e-22)
(0.9928 4.749e-05 -1.588e-22)
(0.5894 -0.1722 -2.873e-21)
(0.4287 -0.1253 0)
(1.52 -0.1749 0)
(-0.0001467 -0.012 9.287e-23)
(1.52 -0.1742 -3.863e-21)
(0.02272 -0.007118 -3.089e-22)
(1.387 -0.2683 -1.667e-21)
(0.1971 -0.05322 0)
(0.7885 -0.1564 0)
(0.999 -0.0002209 3.396e-20)
(-0.001472 0.0005518 9.362e-23)
(0.937 -0.2615 5.725e-21)
(1.496 -0.2289 1.048e-20)
(0.02641 -0.00863 -4.746e-23)
(0.5501 -0.1513 -2.069e-21)
(0.1613 -0.04999 9.061e-22)
(0.4693 -0.1383 -9.329e-22)
(0.9361 -0.078 0)
(0.9971 -0.0009155 0)
(0.9923 -0.2043 0)
(0.9213 -0.1052 -1.041e-23)
(0.9975 2.062e-05 0)
(0.4925 -0.1451 -3.721e-21)
(2.097 0.7611 0)
(0.8911 -0.1302 -3.652e-21)
(0.5816 -0.179 -6.227e-21)
(1.007 -0.0001543 -1.431e-20)
(1.206 -0.3075 0)
(0.05893 -0.01823 0)
(1.017 -0.001114 -9.316e-20)
(1.006 -0.0001717 0)
(1.398 -0.1686 0)
(1.037 -0.2661 3.85e-21)
(0.8964 -0.2115 2.867e-22)
(0.1389 -0.04321 3.066e-22)
(0.833 -0.2336 1.585e-21)
(0.3018 -0.01894 -1.237e-23)
(0.9135 -0.1114 0)
(0.4949 0.07349 -6.527e-20)
(0.9996 -0.002639 0)
(0.8958 -0.2537 -2.274e-21)
(0.279 -0.08299 0)
(0.8799 -0.06537 4.077e-22)
(0.7897 -0.06371 0)
(0.4371 -0.0146 -4.787e-20)
(1.002 -0.0008382 0)
(1.016 -0.0166 2.827e-21)
(0.9806 -0.0469 2.519e-20)
(1.033 0.01385 4.983e-21)
(0.9996 -0.002498 1.372e-20)
(1.082 -0.1475 -2.958e-20)
(0.1138 -0.05091 5.49e-21)
(0.9182 -0.1121 -4.451e-21)
(0.7577 -0.1044 2.604e-21)
(0.9994 -0.003087 0)
(0.1459 -0.0428 5.276e-22)
(0.924 -0.1081 2.361e-21)
(1.005 0.01185 0)
(0.8976 -0.108 -1.069e-21)
(0.9952 -0.0004187 0)
(0.2965 -0.1052 2.559e-20)
(-0.4888 0.8033 -5.172e-22)
(1.542 -0.2072 -1.222e-22)
(1.552 -0.137 0)
(0.6056 -0.03988 -1.087e-22)
(0.9725 -0.01818 5.544e-21)
(0.6707 -0.1754 0)
(0.6555 -0.03105 -2.262e-20)
(0.8177 -0.06813 0)
(0.006386 -0.0124 1.069e-22)
(0.8401 -0.1108 -6.037e-22)
(1.601 2.211 -7.119e-21)
(1.423 -0.05643 -1.763e-20)
(0.8455 -0.1319 -7.513e-21)
(0.5065 -0.1032 2.593e-23)
(0.3771 -0.07181 0)
(1.004 0.01529 0)
(1.325 -0.2226 2.488e-20)
(0.6456 -0.2014 0)
(2.094 0.3929 5.632e-22)
(0.012 -0.01338 -4.096e-23)
(0.6224 -0.101 0)
(1.002 -0.0007904 0)
(1.024 -0.1039 1.308e-20)
(0.03064 -0.009387 5.121e-23)
(0.6896 -0.1591 -7.008e-21)
(0.6152 -0.03047 2.305e-20)
(1.906 0.1661 0)
(-0.2391 0.2771 -1.417e-21)
(1.998 0.2442 -2.062e-21)
(0.6134 0.06991 9.172e-21)
(1.181 -0.2794 -2.698e-21)
(0.03193 -0.01069 -4.496e-23)
(0.9937 -0.2041 1.63e-21)
(0.521 -0.04114 -3.923e-22)
(1.039 0.05956 -1.582e-20)
(0.8994 -0.1271 0)
(1.004 3.701e-05 0)
(0.9963 3.012e-05 0)
(1.466 -0.2193 5.979e-21)
(1.092 0.02541 4.038e-21)
(1.552 -0.1931 1.062e-20)
(0.9372 -0.1504 7.042e-21)
(0.2565 1.367 0)
(0.9369 -0.08827 9.71e-21)
(1.041 -0.05722 -2.331e-20)
(2.163 0.8067 8.217e-21)
(0.7907 -0.172 4.477e-21)
(1.016 -0.01496 5.674e-20)
(1.027 -0.209 -1.797e-22)
(0.4274 -0.1236 -3.86e-22)
(1.041 -0.05512 3.4e-20)
(0.8082 -0.1858 -8.836e-21)
(0.007054 -0.001995 -2.316e-21)
(0.05116 -0.03747 0)
(0.8257 -0.155 0)
(-0.3788 0.6265 -3.08e-21)
(1.323 -0.2572 0)
(0.1129 -0.03579 0)
(0.9851 0.005627 5.549e-20)
(1.561 -0.1709 5.909e-21)
(0.8066 -0.182 2.519e-21)
(1.005 -0.01323 0)
(0.7834 -0.1925 4.143e-21)
(1.003 -0.2738 0)
(1.055 -0.2674 -2.667e-21)
(0.9944 -0.0003205 4.494e-21)
(0.979 -0.02382 2.926e-21)
(1.053 -0.2132 0)
(0.2241 -0.0185 -5.266e-23)
(0.5993 -0.1582 -1.445e-20)
(0.00849 -0.0006079 0)
(1.129 -0.3049 3.646e-21)
(0.4197 -0.1365 0)
(0.8027 -0.1683 -9.043e-22)
(-0.009062 0.003251 0)
(1.703 -0.1176 2.017e-21)
(0.9959 2.555e-05 7.269e-23)
(0.1692 -0.08838 0)
(1.643 0.3644 -3.288e-20)
(1.005 3.391e-05 0)
(0.4811 -0.1187 4.507e-22)
(-0.007395 0.002324 -7.7e-22)
(1.175 -0.245 -7.527e-21)
(1.97 0.1236 -6.823e-21)
(0.9529 -0.06631 -2.289e-21)
(0.8842 -0.1251 -1.782e-21)
(-0.01288 0.004537 -8.05e-25)
(0.2793 -0.02717 6.684e-23)
(0.946 -0.09783 0)
(1.04 0.04521 -4.097e-20)
(0.9959 0.01046 6.474e-21)
(0.8405 -0.1495 0)
(0.3693 -0.08613 -4.907e-21)
(0.3707 -0.11 -3.367e-21)
(0.8527 -0.1957 0)
(0.4503 1.706 1.79e-20)
(0.4686 -0.192 -4.28e-21)
(0.7326 -0.01803 -2.636e-22)
(1.337 0.009411 -4.187e-20)
(0.4734 -0.1924 -4.245e-21)
(1.112 -0.08897 5.022e-20)
(1.085 -0.06917 0)
(1.008 -0.001887 0)
(0.7746 -0.2097 1.479e-22)
(-0.00371 -0.0167 6.301e-24)
(1.385 -0.2546 -1.449e-20)
(0.7962 -0.2185 0)
(1.114 -0.3044 0)
(0.9913 0.009418 -3.175e-20)
(0.9674 0.0238 2.552e-20)
(0.03754 -0.01231 0)
(0.7741 -0.1098 3.555e-20)
(0.09544 -0.02848 0)
(0.9304 -0.1204 0)
(0.07769 -0.0253 -1.8e-22)
(0.7779 -0.1971 -2.019e-22)
(1.505 -0.1663 -3.161e-21)
(1.796 0.00919 -1.851e-21)
(1.678 -0.1367 -1.107e-20)
(0.3696 -0.05559 1.437e-21)
(1.524 -0.1887 -8.41e-21)
(0.853 -0.06444 -3.382e-22)
(0.4631 -0.1329 4.047e-21)
(0.9212 -0.1073 5.489e-21)
(0.9511 -0.2445 1.789e-21)
(0.7511 1.951 -8.528e-21)
(0.1851 -0.0577 -2.867e-23)
(-0.002982 -0.01497 -3.576e-23)
(-0.01308 0.004553 0)
(1.105 -0.3029 0)
(1.007 -0.003121 0)
(1.005 -0.005575 4.678e-20)
(0.9988 -0.2732 2.056e-21)
(0.3213 -0.089 0)
(0.873 -0.1237 -2.187e-20)
(1.006 3.211e-05 0)
(0.3652 -0.1102 -1.679e-20)
(1.207 -0.3083 3.868e-21)
(0.9453 -0.07603 8.748e-21)
(0.1245 -0.03827 0)
(1.476 -0.1822 -1.969e-20)
(0.424 -0.1272 -4.488e-21)
(1.753 0.9288 -4.105e-20)
(0.9999 0.001505 -2.123e-20)
(0.8513 -0.1209 0)
(0.9459 -0.06638 4.933e-21)
(0.5056 -0.1963 0)
(0.7618 -0.05828 0)
(0.07503 -0.02155 -6.734e-23)
(0.4977 -0.006768 3.659e-20)
(1.3 -0.2277 4.792e-20)
(1.05 -0.1868 0)
(0.9442 -0.08616 3.058e-22)
(0.9512 -0.07843 0)
(0.9807 -0.2356 0)
(0.3746 -0.1255 1.837e-20)
(0.9376 -0.1065 -1.774e-21)
(0.2687 -0.08093 0)
(0.4383 -0.1867 -5.617e-21)
(1.009 -0.0178 -2.114e-21)
(0.1201 -0.04639 0)
(-0.01063 0.003612 0)
(1.008 -0.2524 0)
(1.505 -0.223 1.423e-20)
(-0.3967 0.6904 -3.188e-21)
(1.013 0.02586 -6.119e-21)
(0.2332 -0.05738 4.036e-21)
(0.3609 -0.07021 0)
(0.997 -0.0003735 0)
(0.9967 -0.0001031 -3.053e-20)
(1.566 -0.173 1.616e-24)
(1.289 -0.2989 1.438e-20)
(-0.01011 0.003677 7.822e-22)
(0.006207 -0.01733 -4.382e-23)
(0.8991 -0.1268 8.282e-22)
(0.5414 -0.191 0)
(0.2323 -0.07236 -2.603e-21)
(0.8604 -0.1202 0)
(0.9067 -0.1053 0)
(0.9698 -0.02357 -6.118e-20)
(0.2389 -0.07522 -4.485e-21)
(0.3696 -0.1012 0)
(0.2871 -0.08852 -2.471e-21)
(0.8198 -0.1493 0)
(-0.005711 0.001293 -1.155e-22)
(0.5409 -0.1552 -2.594e-21)
(0.9988 -0.001946 -1.759e-21)
(0.3779 -0.05203 0)
(0.0771 -0.02326 2.029e-22)
(0.9974 -0.0008292 -1.145e-19)
(1.481 -0.2134 -3.685e-21)
(0.9974 -0.0004042 -1.227e-20)
(0.9851 0.001211 5.179e-20)
(0.9089 -0.117 -2.101e-21)
(0.8527 -0.09424 0)
(0.5291 -0.05247 -2.857e-20)
(0.9953 -0.002319 1.165e-20)
(0.8959 -0.1068 1.234e-22)
(1.007 0.007087 0)
(2.116 0.809 0)
(0.8673 -0.08662 -2.854e-20)
(1.011 -0.1956 1.278e-21)
(0.9281 -0.1007 3.362e-21)
(0.864 -0.1673 5.809e-22)
(0.9181 -0.1323 0)
(0.3914 -0.1153 8.991e-21)
(0.9331 -0.1001 -4.232e-21)
(0.9999 -0.006029 1.18e-20)
(0.9641 -0.04539 -7.299e-20)
(1.392 -0.2508 7.301e-21)
(0.8546 -0.1551 -1.7e-21)
(0.1456 -0.04518 -9.027e-23)
(0.313 -0.09567 0)
(0.5901 -0.04473 3.486e-25)
(0.2531 -0.07851 -1.75e-21)
(0.1012 -0.03 -1.678e-20)
(1.503 -0.2306 1.294e-20)
(0.7221 -0.1948 0)
(1.907 0.04052 -1.495e-20)
(0.933 -0.09724 1.954e-22)
(0.7425 -0.09009 0)
(1.119 0.7645 -1.483e-20)
(1.004 -0.2076 0)
(1.003 -0.01382 1.024e-20)
(1.113 -0.2185 1.132e-20)
(0.02618 -0.0117 -1.229e-22)
(0.8184 -0.1375 0)
(0.9986 2.278e-05 8.382e-23)
(0.02438 0.03282 8.161e-20)
(1.173 -0.3021 0)
(0.9481 -0.08935 -1.997e-22)
(0.7169 -0.1854 1.683e-21)
(1.538 -0.1935 -1.017e-21)
(0.9161 -0.1041 5.605e-21)
(0.7789 -0.1695 0)
(1.178 -0.2862 7.82e-21)
(0.9479 -0.08941 -5.987e-22)
(0.04269 -0.01264 6.242e-24)
(0.7467 -0.1991 -6.043e-21)
(0.005917 -0.01264 -1.134e-22)
(0.9974 -0.0009072 0)
(0.9529 -0.07417 1.614e-21)
(1.167 -0.2174 0)
(0.9716 -0.01491 0)
(1.217 -0.2518 0)
(1.423 -0.1488 1.419e-21)
(0.9963 -6.186e-06 4.936e-21)
(0.8048 -0.1515 1.075e-20)
(0.01736 -0.006296 0)
(0.9452 -0.0441 0)
(1.153 0.7521 5.517e-20)
(1.334 -0.249 0)
(0.02117 -0.02513 0)
(0.8824 -0.1041 2.285e-20)
(1.007 4.975e-05 -3.032e-22)
(1.08 -0.2502 -1.299e-22)
(0.6695 -0.1886 -2.5e-22)
(1.017 -0.008084 5.075e-20)
(1.211 0.6362 -4.539e-20)
(1.143 0.07409 2.125e-20)
(1.198 -0.309 5.764e-21)
(0.8374 -0.2146 -4.686e-21)
(0.8651 -0.1382 4.921e-21)
(1.044 -0.05315 0)
(1.863e-05 -0.001042 5.204e-23)
(-0.01568 0.005603 -1.345e-21)
(0.8433 -0.1766 -2.752e-22)
(0.9037 -0.1401 2.392e-21)
(1.076 -0.292 -2.082e-21)
(0.521 -0.04309 0)
(0.9984 5.459e-07 -5.137e-23)
(0.9506 -0.09716 -1.445e-21)
(1.01 0.008957 1.117e-21)
(0.951 -0.2675 0)
(0.2905 -0.05455 -1.589e-20)
(1.42 -0.2482 0)
(0.718 -0.1855 1.513e-20)
(0.001888 -0.008141 5.205e-23)
(0.6656 -0.1107 0)
(0.9994 0.006266 -5.558e-21)
(-0.0124 0.00421 0)
(0.2788 -0.08634 0)
(0.4361 -0.1222 3.057e-21)
(0.9497 -0.08312 -1.875e-21)
(2.176 0.6054 0)
(1.151 -0.2893 -6.037e-21)
(0.9826 -0.1795 4.297e-23)
(0.7536 -0.05832 0)
(0.9059 -0.121 0)
(0.8542 0.1412 -9.979e-20)
(0.1451 -0.008358 -3.967e-22)
(0.2358 -0.06763 9.307e-23)
(0.9323 -0.07084 0)
(0.8269 -0.1717 -3.36e-21)
(0.9031 -0.1321 0)
(0.1027 0.007087 -7.749e-20)
(0.005774 -0.0247 -1.104e-21)
(0.04339 -0.01473 3.262e-23)
(0.8715 -0.1409 1.002e-21)
(0.4741 -0.1428 0)
(1.557 -0.1348 0)
(0.9231 -0.111 -1.465e-21)
(0.9399 -0.09519 6.673e-22)
(1.169 -0.2476 0)
(0.01818 -0.005238 0)
(0.9361 -0.07148 -6.723e-21)
(0.8127 -0.166 -5.065e-21)
(0.917 -0.08077 0)
(0.8827 -0.1483 1.604e-21)
(0.9933 4.807e-05 0)
(1.004 -0.0013 1.67e-19)
(1.441 -0.2029 -1.638e-20)
(0.4696 -0.03227 -1.246e-22)
(0.8037 -0.2228 1.405e-21)
(1.003 -0.0301 7.629e-21)
(0.2942 -0.06004 -4.936e-21)
(0.06951 -0.02263 1.671e-22)
(0.9948 0.01238 -1.963e-20)
(1.895 0.277 0)
(0.911 -0.1195 4.778e-22)
(1.517 -0.1574 0)
(-0.00249 -0.01203 0)
(0.7028 -0.1615 -1.278e-20)
(0.1957 -0.05765 1.088e-22)
(-0.002251 0.0006889 0)
(1.029 -0.2095 -1.37e-22)
(0.05265 -0.01862 1.489e-21)
(1.056 -0.2855 4.251e-21)
(0.9195 -0.1118 0)
(0.9503 -0.1 7.371e-21)
(0.9187 -0.131 6.645e-22)