# Force coefficients
# dragDir   : (1.0000e+00 0.0000e+00 0.0000e+00)
# sideDir   : (0.0000e+00 0.0000e+00 -1.0000e+00)
# liftDir   : (0.0000e+00 1.0000e+00 0.0000e+00)
# rollAxis  : (1.0000e+00 0.0000e+00 0.0000e+00)
# pitchAxis : (0.0000e+00 0.0000e+00 -1.0000e+00)
# yawAxis   : (0.0000e+00 1.0000e+00 0.0000e+00)
# magUInf   : 1.0000e+00
# lRef      : 1.0000e+00
# Aref      : 1.0000e+00
# CofR      : (0.0000e+00 0.0000e+00 0.0000e+00)
#
# Time      	Cd          	Cs          	Cl          	CmRoll      	CmPitch     	CmYaw       	Cd(f)       	Cd(r)       	Cs(f)       	Cs(r)       	Cl(f)       	Cl(r)       
0.001       	2.3552e+00	-2.9834e-21	5.1830e+00	-2.5915e+00	-2.8445e+00	1.1776e+00	-1.4139e+00	3.7691e+00	1.1776e+00	-1.1776e+00	-2.5304e-01	5.4360e+00
0.002       	9.4374e-02	-6.9744e-21	-1.0841e+00	5.4205e-01	5.0416e-02	4.7187e-02	5.8924e-01	-4.9486e-01	4.7187e-02	-4.7187e-02	-4.9164e-01	-5.9247e-01
0.003       	-1.9965e+00	-3.5009e-21	-4.3592e+00	2.1796e+00	2.3045e+00	-9.9827e-01	1.1813e+00	-3.1779e+00	-9.9827e-01	9.9827e-01	1.2487e-01	-4.4841e+00
0.004       	-2.9442e+00	1.4243e-21	-5.7299e+00	2.8650e+00	2.9667e+00	-1.4721e+00	1.3929e+00	-4.3371e+00	-1.4721e+00	1.4721e+00	1.0171e-01	-5.8316e+00
0.005       	-3.3305e-01	3.8841e-21	5.0108e-02	-2.5054e-02	3.3657e-01	-1.6652e-01	-1.9158e-01	-1.4147e-01	-1.6652e-01	1.6652e-01	3.6163e-01	-3.1152e-01
0.006       	3.2900e+00	4.4378e-21	9.4026e+00	-4.7013e+00	-3.5494e+00	1.6450e+00	-3.0563e+00	6.3463e+00	1.6450e+00	-1.6450e+00	1.1519e+00	8.2507e+00
0.007       	5.8067e+00	3.9464e-21	1.8613e+01	-9.3066e+00	-6.7422e+00	2.9034e+00	-6.4033e+00	1.2210e+01	2.9034e+00	-2.9034e+00	2.5644e+00	1.6049e+01
0.008       	3.4142e+00	2.3558e-21	1.1738e+01	-5.8690e+00	-4.3192e+00	1.7071e+00	-4.1619e+00	7.5761e+00	1.7071e+00	-1.7071e+00	1.5499e+00	1.0188e+01
0.009       	-4.6120e-02	-9.0444e-22	4.8606e-01	-2.4303e-01	-7.6421e-01	-2.3060e-02	-2.6609e-01	2.1997e-01	-2.3060e-02	2.3060e-02	-5.2118e-01	1.0072e+00
0.01        	-1.8349e+00	-1.7183e-21	-5.5536e+00	2.7768e+00	1.2019e+00	-9.1744e-01	1.8594e+00	-3.6942e+00	-9.1744e-01	9.1744e-01	-1.5749e+00	-3.9787e+00
0.011       	-5.6644e-01	-2.3708e-22	-2.3371e+00	1.1685e+00	2.7625e-01	-2.8322e-01	8.8531e-01	-1.4518e+00	-2.8322e-01	2.8322e-01	-8.9228e-01	-1.4448e+00
0.012       	1.4769e+00	1.8048e-21	3.4690e+00	-1.7345e+00	-1.1422e+00	7.3847e-01	-9.9605e-01	2.4730e+00	7.3847e-01	-7.3847e-01	5.9229e-01	2.8768e+00
0.013       	2.6854e+00	2.2240e-21	6.9675e+00	-3.4837e+00	-2.3046e+00	1.3427e+00	-2.1410e+00	4.8264e+00	1.3427e+00	-1.3427e+00	1.1791e+00	5.7883e+00
0.014       	2.3712e+00	1.0343e-21	6.5601e+00	-3.2800e+00	-2.7170e+00	1.1856e+00	-2.0945e+00	4.4656e+00	1.1856e+00	-1.1856e+00	5.6307e-01	5.9970e+00
0.015       	1.6197e+00	-2.0739e-22	4.4822e+00	-2.2411e+00	-2.5646e+00	8.0984e-01	-1.4312e+00	3.0509e+00	8.0984e-01	-8.0984e-01	-3.2352e-01	4.8057e+00
0.016       	6.6626e-01	-7.5173e-22	2.5612e+00	-1.2806e+00	-2.2695e+00	3.3313e-01	-9.4749e-01	1.6138e+00	3.3313e-01	-3.3313e-01	-9.8887e-01	3.5501e+00
0.017       	3.8731e-01	-2.2560e-22	1.7329e+00	-8.6644e-01	-1.5450e+00	1.9365e-01	-6.7279e-01	1.0601e+00	1.9365e-01	-1.9365e-01	-6.7853e-01	2.4114e+00
0.018       	7.1579e-01	5.1170e-22	2.4694e+00	-1.2347e+00	-1.3980e+00	3.5789e-01	-8.7681e-01	1.5926e+00	3.5789e-01	-3.5789e-01	-1.6330e-01	2.6327e+00
0.019       	1.4312e+00	9.5185e-22	3.1522e+00	-1.5761e+00	-1.1309e+00	7.1559e-01	-8.6051e-01	2.2917e+00	7.1559e-01	-7.1559e-01	4.4522e-01	2.7070e+00
0.02        	1.7521e+00	7.1195e-22	3.6432e+00	-1.8216e+00	-1.5798e+00	8.7603e-01	-9.4555e-01	2.6976e+00	8.7603e-01	-8.7603e-01	2.4175e-01	3.4014e+00
0.021       	1.5898e+00	3.2897e-22	3.3733e+00	-1.6867e+00	-1.8123e+00	7.9490e-01	-8.9178e-01	2.4816e+00	7.9490e-01	-7.9490e-01	-1.2563e-01	3.4990e+00
0.022       	1.2188e+00	-3.7745e-22	3.8887e+00	-1.9444e+00	-2.8123e+00	6.0939e-01	-1.3350e+00	2.5538e+00	6.0939e-01	-6.0939e-01	-8.6794e-01	4.7567e+00
0.023       	8.9185e-01	-2.6931e-22	3.5051e+00	-1.7525e+00	-2.6338e+00	4.4592e-01	-1.3066e+00	2.1985e+00	4.4592e-01	-4.4592e-01	-8.8129e-01	4.3864e+00
0.024       	9.1230e-01	-1.5638e-23	3.3539e+00	-1.6770e+00	-2.3029e+00	4.5615e-01	-1.2208e+00	2.1331e+00	4.5615e-01	-4.5615e-01	-6.2596e-01	3.9799e+00
0.025       	9.8499e-01	6.3593e-22	1.9867e+00	-9.9333e-01	-9.7440e-01	4.9249e-01	-5.0084e-01	1.4858e+00	4.9249e-01	-4.9249e-01	1.8934e-02	1.9677e+00
0.026       	1.0325e+00	6.2428e-22	1.3731e+00	-6.8653e-01	-5.6926e-01	5.1624e-01	-1.7029e-01	1.2028e+00	5.1624e-01	-5.1624e-01	1.1727e-01	1.2558e+00
0.027       	9.2442e-01	3.8273e-22	1.2418e+00	-6.2090e-01	-7.0675e-01	4.6221e-01	-1.5869e-01	1.0831e+00	4.6221e-01	-4.6221e-01	-8.5854e-02	1.3276e+00
0.028       	9.3196e-01	-2.3579e-22	2.7530e+00	-1.3765e+00	-2.0344e+00	4.6598e-01	-9.1054e-01	1.8425e+00	4.6598e-01	-4.6598e-01	-6.5788e-01	3.4109e+00
0.029       	9.1638e-01	-3.9697e-22	3.6289e+00	-1.8145e+00	-2.6654e+00	4.5819e-01	-1.3563e+00	2.2726e+00	4.5819e-01	-4.5819e-01	-8.5093e-01	4.4798e+00
0.03        	8.7427e-01	-2.1023e-22	3.3408e+00	-1.6704e+00	-2.3453e+00	4.3713e-01	-1.2333e+00	2.1076e+00	4.3713e-01	-4.3713e-01	-6.7487e-01	4.0157e+00
0.031       	7.3987e-01	2.6598e-22	1.8623e+00	-9.3114e-01	-1.0984e+00	3.6994e-01	-5.6120e-01	1.3011e+00	3.6994e-01	-3.6994e-01	-1.6730e-01	2.0296e+00
0.032       	6.1062e-01	4.0619e-22	8.1564e-01	-4.0782e-01	-3.2806e-01	3.0531e-01	-1.0251e-01	7.1313e-01	3.0531e-01	-3.0531e-01	7.9762e-02	7.3588e-01
0.033       	3.9623e-01	2.7558e-22	6.0157e-03	-3.0079e-03	8.3037e-02	1.9812e-01	1.9511e-01	2.0112e-01	1.9812e-01	-1.9812e-01	8.6044e-02	-8.0029e-02
0.034       	3.7569e-01	8.9292e-23	2.7235e-01	-1.3618e-01	-2.0293e-01	1.8785e-01	5.1671e-02	3.2402e-01	1.8785e-01	-1.8785e-01	-6.6757e-02	3.3911e-01
0.035       	4.3743e-01	-9.6061e-23	1.1661e+00	-5.8303e-01	-8.6768e-01	2.1871e-01	-3.6432e-01	8.0174e-01	2.1871e-01	-2.1871e-01	-2.8465e-01	1.4507e+00
0.036       	5.2415e-01	-1.3653e-22	2.0395e+00	-1.0198e+00	-1.4105e+00	2.6208e-01	-7.5770e-01	1.2818e+00	2.6208e-01	-2.6208e-01	-3.9072e-01	2.4303e+00
0.037       	5.4600e-01	-3.8307e-23	2.2868e+00	-1.1434e+00	-1.4633e+00	2.7300e-01	-8.7041e-01	1.4164e+00	2.7300e-01	-2.7300e-01	-3.1991e-01	2.6067e+00
0.038       	4.5508e-01	9.6976e-23	1.7729e+00	-8.8643e-01	-1.0049e+00	2.2754e-01	-6.5889e-01	1.1140e+00	2.2754e-01	-2.2754e-01	-1.1852e-01	1.8914e+00
0.039       	2.8274e-01	1.9676e-22	7.6002e-01	-3.8001e-01	-2.7452e-01	1.4137e-01	-2.3864e-01	5.2138e-01	1.4137e-01	-1.4137e-01	1.0549e-01	6.5453e-01
0.04        	1.4583e-01	1.9593e-22	-2.3250e-02	1.1625e-02	2.2545e-01	7.2913e-02	8.4537e-02	6.1288e-02	7.2913e-02	-7.2913e-02	2.1383e-01	-2.3708e-01
0.041       	4.9363e-02	1.3452e-22	-4.8292e-01	2.4146e-01	4.8282e-01	2.4682e-02	2.6614e-01	-2.1678e-01	2.4682e-02	-2.4682e-02	2.4136e-01	-7.2428e-01
0.042       	-2.6688e-02	1.7615e-23	-6.6583e-01	3.3291e-01	5.4350e-01	-1.3344e-02	3.1957e-01	-3.4626e-01	-1.3344e-02	1.3344e-02	2.1059e-01	-8.7641e-01
0.043       	-2.8941e-02	-7.4533e-23	-3.7309e-01	1.8655e-01	3.1705e-01	-1.4471e-02	1.7208e-01	-2.0102e-01	-1.4471e-02	1.4471e-02	1.3050e-01	-5.0359e-01
0.044       	3.0324e-02	-1.1299e-22	1.4191e-01	-7.0955e-02	-1.1082e-02	1.5162e-02	-5.5793e-02	8.6117e-02	1.5162e-02	-1.5162e-02	5.9873e-02	8.2037e-02
0.045       	9.0428e-02	-7.9679e-23	4.9433e-01	-2.4717e-01	-2.1583e-01	4.5214e-02	-2.0195e-01	2.9238e-01	4.5214e-02	-4.5214e-02	3.1341e-02	4.6299e-01
0.046       	1.3733e-01	-2.5421e-23	6.7855e-01	-3.3927e-01	-3.1278e-01	6.8663e-02	-2.7061e-01	4.0794e-01	6.8663e-02	-6.8663e-02	2.6494e-02	6.5205e-01
0.047       	1.8911e-01	1.2308e-23	7.9213e-01	-3.9607e-01	-3.6025e-01	9.4556e-02	-3.0151e-01	4.9062e-01	9.4556e-02	-9.4556e-02	3.5811e-02	7.5632e-01
0.048       	2.3456e-01	5.2663e-23	7.8854e-01	-3.9427e-01	-3.2681e-01	1.1728e-01	-2.7699e-01	5.1155e-01	1.1728e-01	-1.1728e-01	6.7456e-02	7.2108e-01
0.049       	2.3642e-01	9.6933e-23	5.9480e-01	-2.9740e-01	-1.7509e-01	1.1821e-01	-1.7919e-01	4.1561e-01	1.1821e-01	-1.1821e-01	1.2231e-01	4.7248e-01
0.05        	1.9750e-01	1.1525e-22	3.4929e-01	-1.7465e-01	-8.3643e-03	9.8749e-02	-7.5897e-02	2.7340e-01	9.8749e-02	-9.8749e-02	1.6628e-01	1.8301e-01
0.051       	1.5666e-01	1.1463e-22	1.9503e-01	-9.7516e-02	9.1435e-02	7.8332e-02	-1.9185e-02	1.7585e-01	7.8332e-02	-7.8332e-02	1.8895e-01	6.0819e-03
0.052       	1.2312e-01	1.2758e-22	1.1475e-01	-5.7375e-02	1.4233e-01	6.1561e-02	4.1868e-03	1.1894e-01	6.1561e-02	-6.1561e-02	1.9970e-01	-8.4951e-02
0.053       	9.1143e-02	1.2950e-22	7.8478e-02	-3.9239e-02	1.6553e-01	4.5572e-02	6.3325e-03	8.4811e-02	4.5572e-02	-4.5572e-02	2.0476e-01	-1.2629e-01
0.054       	6.6731e-02	1.4509e-22	1.0551e-01	-5.2755e-02	1.4921e-01	3.3365e-02	-1.9390e-02	8.6121e-02	3.3365e-02	-3.3365e-02	2.0197e-01	-9.6456e-02
0.055       	6.4890e-02	1.7441e-22	2.4498e-01	-1.2249e-01	6.4644e-02	3.2445e-02	-9.0043e-02	1.5493e-01	3.2445e-02	-3.2445e-02	1.8713e-01	5.7844e-02
0.056       	1.0093e-01	2.0782e-22	5.1665e-01	-2.5832e-01	-9.6504e-02	5.0464e-02	-2.0786e-01	3.0879e-01	5.0464e-02	-5.0464e-02	1.6182e-01	3.5483e-01
0.057       	1.4591e-01	2.2416e-22	7.3408e-01	-3.6704e-01	-2.1843e-01	7.2957e-02	-2.9408e-01	4.4000e-01	7.2957e-02	-7.2957e-02	1.4861e-01	5.8547e-01
0.058       	1.6680e-01	2.2735e-22	7.9848e-01	-3.9924e-01	-2.4659e-01	8.3399e-02	-3.1584e-01	4.8264e-01	8.3399e-02	-8.3399e-02	1.5265e-01	6.4583e-01
0.059       	1.7615e-01	2.2480e-22	8.0537e-01	-4.0269e-01	-2.3866e-01	8.8077e-02	-3.1461e-01	4.9076e-01	8.8077e-02	-8.8077e-02	1.6402e-01	6.4135e-01
0.06        	1.8074e-01	2.2085e-22	7.8794e-01	-3.9397e-01	-2.1187e-01	9.0368e-02	-3.0360e-01	4.8434e-01	9.0368e-02	-9.0368e-02	1.8210e-01	6.0584e-01
0.061       	1.7888e-01	2.2182e-22	7.4525e-01	-3.7263e-01	-1.6314e-01	8.9439e-02	-2.8319e-01	4.6206e-01	8.9439e-02	-8.9439e-02	2.0948e-01	5.3577e-01
0.062       	1.6711e-01	2.2738e-22	6.6881e-01	-3.3441e-01	-8.6707e-02	8.3555e-02	-2.5085e-01	4.1796e-01	8.3555e-02	-8.3555e-02	2.4770e-01	4.2111e-01
0.063       	1.4167e-01	2.4031e-22	5.5147e-01	-2.7573e-01	1.5688e-02	7.0833e-02	-2.0490e-01	3.4657e-01	7.0833e-02	-7.0833e-02	2.9142e-01	2.6005e-01
0.064       	1.0784e-01	2.4190e-22	4.3180e-01	-2.1590e-01	9.8504e-02	5.3919e-02	-1.6198e-01	2.6982e-01	5.3919e-02	-5.3919e-02	3.1440e-01	1.1740e-01
0.065       	8.6294e-02	2.4922e-22	3.7819e-01	-1.8909e-01	1.1862e-01	4.3147e-02	-1.4595e-01	2.3224e-01	4.3147e-02	-4.3147e-02	3.0772e-01	7.0470e-02
0.066       	7.6879e-02	2.6384e-22	3.7116e-01	-1.8558e-01	1.0586e-01	3.8439e-02	-1.4714e-01	2.2402e-01	3.8439e-02	-3.8439e-02	2.9143e-01	7.9723e-02
0.067       	7.2177e-02	2.6954e-22	3.8714e-01	-1.9357e-01	7.6374e-02	3.6089e-02	-1.5748e-01	2.2966e-01	3.6089e-02	-3.6089e-02	2.6995e-01	1.1720e-01
0.068       	7.2045e-02	2.9813e-22	4.2687e-01	-2.1343e-01	3.0670e-02	3.6022e-02	-1.7741e-01	2.4946e-01	3.6022e-02	-3.6022e-02	2.4410e-01	1.8276e-01
0.069       	7.8846e-02	3.0610e-22	4.9415e-01	-2.4707e-01	-3.1346e-02	3.9423e-02	-2.0765e-01	2.8650e-01	3.9423e-02	-3.9423e-02	2.1573e-01	2.7842e-01
0.07        	9.3420e-02	3.1499e-22	5.8469e-01	-2.9235e-01	-1.0409e-01	4.6710e-02	-2.4564e-01	3.3906e-01	4.6710e-02	-4.6710e-02	1.8826e-01	3.9643e-01
0.071       	1.1311e-01	3.1695e-22	6.8301e-01	-3.4150e-01	-1.7530e-01	5.6556e-02	-2.8495e-01	3.9806e-01	5.6556e-02	-5.6556e-02	1.6620e-01	5.1681e-01
0.072       	1.3308e-01	3.1640e-22	7.6898e-01	-3.8449e-01	-2.3140e-01	6.6542e-02	-3.1795e-01	4.5103e-01	6.6542e-02	-6.6542e-02	1.5309e-01	6.1589e-01
0.073       	1.4972e-01	2.9032e-22	8.2933e-01	-4.1466e-01	-2.6480e-01	7.4860e-02	-3.3980e-01	4.8952e-01	7.4860e-02	-7.4860e-02	1.4986e-01	6.7947e-01
0.074       	1.6037e-01	2.6634e-22	8.5676e-01	-4.2838e-01	-2.7240e-01	8.0186e-02	-3.4819e-01	5.0857e-01	8.0186e-02	-8.0186e-02	1.5598e-01	7.0078e-01
0.075       	1.6572e-01	2.3666e-22	8.5484e-01	-4.2742e-01	-2.5759e-01	8.2861e-02	-3.4456e-01	5.1028e-01	8.2861e-02	-8.2861e-02	1.6983e-01	6.8501e-01
0.076       	1.6624e-01	2.1078e-22	8.2828e-01	-4.1414e-01	-2.2542e-01	8.3122e-02	-3.3102e-01	4.9726e-01	8.3122e-02	-8.3122e-02	1.8872e-01	6.3956e-01
0.077       	1.6296e-01	1.8817e-22	7.8600e-01	-3.9300e-01	-1.8467e-01	8.1479e-02	-3.1152e-01	4.7448e-01	8.1479e-02	-8.1479e-02	2.0833e-01	5.7767e-01
0.078       	1.5712e-01	1.8123e-22	7.3587e-01	-3.6794e-01	-1.4262e-01	7.8560e-02	-2.8938e-01	4.4650e-01	7.8560e-02	-7.8560e-02	2.2531e-01	5.1056e-01
0.079       	1.4915e-01	1.7436e-22	6.8022e-01	-3.4011e-01	-1.0221e-01	7.4576e-02	-2.6553e-01	4.1469e-01	7.4576e-02	-7.4576e-02	2.3790e-01	4.4232e-01
0.08        	1.3879e-01	1.7627e-22	6.1941e-01	-3.0971e-01	-6.5430e-02	6.9395e-02	-2.4031e-01	3.7910e-01	6.9395e-02	-6.9395e-02	2.4428e-01	3.7514e-01
0.081       	1.2570e-01	1.8597e-22	5.5626e-01	-2.7813e-01	-3.5512e-02	6.2850e-02	-2.1528e-01	3.4098e-01	6.2850e-02	-6.2850e-02	2.4262e-01	3.1364e-01
0.082       	1.1265e-01	1.9377e-22	5.0447e-01	-2.5224e-01	-1.8683e-02	5.6325e-02	-1.9591e-01	3.0856e-01	5.6325e-02	-5.6325e-02	2.3355e-01	2.7092e-01
0.083       	1.0107e-01	2.0622e-22	4.6755e-01	-2.3377e-01	-1.3463e-02	5.0537e-02	-1.8324e-01	2.8431e-01	5.0537e-02	-5.0537e-02	2.2031e-01	2.4724e-01
0.084       	9.2455e-02	2.1518e-22	4.4687e-01	-2.2344e-01	-1.7241e-02	4.6227e-02	-1.7721e-01	2.6966e-01	4.6227e-02	-4.6227e-02	2.0619e-01	2.4068e-01
0.085       	8.7665e-02	2.1417e-22	4.4141e-01	-2.2071e-01	-2.7314e-02	4.3832e-02	-1.7687e-01	2.6454e-01	4.3832e-02	-4.3832e-02	1.9339e-01	2.4802e-01
0.086       	8.6387e-02	2.1310e-22	4.4698e-01	-2.2349e-01	-3.9804e-02	4.3194e-02	-1.8030e-01	2.6668e-01	4.3194e-02	-4.3194e-02	1.8369e-01	2.6329e-01
0.087       	8.8330e-02	2.0538e-22	4.6204e-01	-2.3102e-01	-5.5015e-02	4.4165e-02	-1.8685e-01	2.7518e-01	4.4165e-02	-4.4165e-02	1.7600e-01	2.8603e-01
0.088       	9.4824e-02	1.9106e-22	4.8888e-01	-2.4444e-01	-7.4910e-02	4.7412e-02	-1.9703e-01	2.9185e-01	4.7412e-02	-4.7412e-02	1.6953e-01	3.1935e-01
0.089       	1.0865e-01	1.7664e-22	5.3576e-01	-2.6788e-01	-1.0550e-01	5.4327e-02	-2.1355e-01	3.2221e-01	5.4327e-02	-5.4327e-02	1.6238e-01	3.7338e-01
0.09        	1.2880e-01	1.5884e-22	5.9711e-01	-2.9855e-01	-1.4323e-01	6.4399e-02	-2.3415e-01	3.6295e-01	6.4399e-02	-6.4399e-02	1.5532e-01	4.4178e-01
0.091       	1.5423e-01	1.4574e-22	6.6775e-01	-3.3387e-01	-1.8552e-01	7.7113e-02	-2.5676e-01	4.1099e-01	7.7113e-02	-7.7113e-02	1.4835e-01	5.1939e-01
0.092       	1.8403e-01	1.3140e-22	7.4275e-01	-3.7138e-01	-2.2979e-01	9.2016e-02	-2.7936e-01	4.6339e-01	9.2016e-02	-9.2016e-02	1.4159e-01	6.0117e-01
0.093       	2.1571e-01	1.2404e-22	8.1203e-01	-4.0601e-01	-2.6992e-01	1.0786e-01	-2.9816e-01	5.1387e-01	1.0786e-01	-1.0786e-01	1.3609e-01	6.7594e-01
0.094       	2.4211e-01	1.2533e-22	8.5714e-01	-4.2857e-01	-2.9503e-01	1.2105e-01	-3.0752e-01	5.4962e-01	1.2105e-01	-1.2105e-01	1.3354e-01	7.2360e-01
0.095       	2.5792e-01	1.3483e-22	8.7088e-01	-4.3544e-01	-3.0165e-01	1.2896e-01	-3.0648e-01	5.6440e-01	1.2896e-01	-1.2896e-01	1.3379e-01	7.3708e-01
0.096       	2.6543e-01	1.4236e-22	8.6295e-01	-4.3148e-01	-2.9570e-01	1.3271e-01	-2.9876e-01	5.6419e-01	1.3271e-01	-1.3271e-01	1.3578e-01	7.2717e-01
0.097       	2.6796e-01	1.5214e-22	8.4009e-01	-4.2005e-01	-2.8102e-01	1.3398e-01	-2.8607e-01	5.5402e-01	1.3398e-01	-1.3398e-01	1.3902e-01	7.0107e-01
0.098       	2.6633e-01	1.7333e-22	8.0396e-01	-4.0198e-01	-2.5886e-01	1.3317e-01	-2.6881e-01	5.3514e-01	1.3317e-01	-1.3317e-01	1.4312e-01	6.6084e-01
0.099       	2.6045e-01	1.9086e-22	7.5812e-01	-3.7906e-01	-2.3228e-01	1.3023e-01	-2.4883e-01	5.0929e-01	1.3023e-01	-1.3023e-01	1.4678e-01	6.1134e-01
0.1         	2.5281e-01	2.0716e-22	7.1979e-01	-3.5989e-01	-2.1192e-01	1.2640e-01	-2.3349e-01	4.8630e-01	1.2640e-01	-1.2640e-01	1.4797e-01	5.7182e-01
0.101       	2.4536e-01	2.1603e-22	6.9351e-01	-3.4675e-01	-2.0033e-01	1.2268e-01	-2.2407e-01	4.6943e-01	1.2268e-01	-1.2268e-01	1.4642e-01	5.4709e-01
0.102       	2.3800e-01	2.1500e-22	6.7597e-01	-3.3798e-01	-1.9628e-01	1.1900e-01	-2.1898e-01	4.5698e-01	1.1900e-01	-1.1900e-01	1.4170e-01	5.3427e-01
0.103       	2.2976e-01	2.0729e-22	6.6717e-01	-3.3359e-01	-2.0364e-01	1.1488e-01	-2.1871e-01	4.4847e-01	1.1488e-01	-1.1488e-01	1.2995e-01	5.3723e-01
0.104       	2.2709e-01	1.8688e-22	6.8682e-01	-3.4341e-01	-2.3340e-01	1.1354e-01	-2.2987e-01	4.5695e-01	1.1354e-01	-1.1354e-01	1.1001e-01	5.7681e-01
0.105       	2.3514e-01	1.6875e-22	7.3271e-01	-3.6636e-01	-2.7314e-01	1.1757e-01	-2.4878e-01	4.8393e-01	1.1757e-01	-1.1757e-01	9.3216e-02	6.3950e-01
0.106       	2.4707e-01	1.6227e-22	7.7531e-01	-3.8765e-01	-3.0280e-01	1.2353e-01	-2.6412e-01	5.1119e-01	1.2353e-01	-1.2353e-01	8.4856e-02	6.9045e-01
0.107       	2.5883e-01	1.4914e-22	8.0693e-01	-4.0347e-01	-3.2190e-01	1.2942e-01	-2.7405e-01	5.3288e-01	1.2942e-01	-1.2942e-01	8.1570e-02	7.2536e-01
0.108       	2.7230e-01	1.4494e-22	8.3584e-01	-4.1792e-01	-3.3729e-01	1.3615e-01	-2.8177e-01	5.5407e-01	1.3615e-01	-1.3615e-01	8.0631e-02	7.5521e-01
0.109       	2.8733e-01	1.4815e-22	8.6262e-01	-4.3131e-01	-3.4982e-01	1.4366e-01	-2.8764e-01	5.7497e-01	1.4366e-01	-1.4366e-01	8.1489e-02	7.8113e-01
0.11        	3.0258e-01	1.5834e-22	8.8434e-01	-4.4217e-01	-3.5838e-01	1.5129e-01	-2.9088e-01	5.9346e-01	1.5129e-01	-1.5129e-01	8.3791e-02	8.0055e-01
0.111       	3.1565e-01	1.6175e-22	8.9391e-01	-4.4695e-01	-3.5972e-01	1.5782e-01	-2.8913e-01	6.0478e-01	1.5782e-01	-1.5782e-01	8.7235e-02	8.0667e-01
0.112       	3.1669e-01	1.6402e-22	8.9150e-01	-4.4575e-01	-3.5804e-01	1.5834e-01	-2.8741e-01	6.0410e-01	1.5834e-01	-1.5834e-01	8.7710e-02	8.0379e-01
0.113       	3.0957e-01	1.6547e-22	8.5090e-01	-4.2545e-01	-3.3758e-01	1.5479e-01	-2.7066e-01	5.8024e-01	1.5479e-01	-1.5479e-01	8.7872e-02	7.6303e-01
0.114       	2.9417e-01	1.6088e-22	7.9670e-01	-3.9835e-01	-3.1225e-01	1.4709e-01	-2.5126e-01	5.4543e-01	1.4709e-01	-1.4709e-01	8.6102e-02	7.1059e-01
0.115       	2.7476e-01	1.5003e-22	7.4022e-01	-3.7011e-01	-2.8699e-01	1.3738e-01	-2.3273e-01	5.0749e-01	1.3738e-01	-1.3738e-01	8.3121e-02	6.5710e-01
0.116       	2.6974e-01	1.4826e-22	7.2735e-01	-3.6368e-01	-2.8168e-01	1.3487e-01	-2.2881e-01	4.9854e-01	1.3487e-01	-1.3487e-01	8.1996e-02	6.4535e-01
0.117       	2.4944e-01	1.3970e-22	6.7772e-01	-3.3886e-01	-2.6203e-01	1.2472e-01	-2.1414e-01	4.6358e-01	1.2472e-01	-1.2472e-01	7.6831e-02	6.0089e-01
0.118       	2.3050e-01	1.2885e-22	6.3389e-01	-3.1695e-01	-2.4595e-01	1.1525e-01	-2.0170e-01	4.3220e-01	1.1525e-01	-1.1525e-01	7.0998e-02	5.6289e-01
0.119       	2.1649e-01	1.1340e-22	6.0367e-01	-3.0184e-01	-2.3648e-01	1.0824e-01	-1.9359e-01	4.1008e-01	1.0824e-01	-1.0824e-01	6.5354e-02	5.3832e-01
0.12        	2.1451e-01	1.1049e-22	6.0019e-01	-3.0010e-01	-2.3594e-01	1.0726e-01	-1.9284e-01	4.0735e-01	1.0726e-01	-1.0726e-01	6.4157e-02	5.3603e-01
0.121       	2.1355e-01	1.0595e-22	5.9924e-01	-2.9962e-01	-2.3906e-01	1.0678e-01	-1.9284e-01	4.0640e-01	1.0678e-01	-1.0678e-01	6.0556e-02	5.3869e-01
0.122       	2.1827e-01	1.0247e-22	6.0892e-01	-3.0446e-01	-2.4629e-01	1.0913e-01	-1.9533e-01	4.1359e-01	1.0913e-01	-1.0913e-01	5.8174e-02	5.5075e-01
0.123       	2.2677e-01	1.0589e-22	6.2342e-01	-3.1171e-01	-2.5408e-01	1.1338e-01	-1.9833e-01	4.2509e-01	1.1338e-01	-1.1338e-01	5.7628e-02	5.6579e-01
0.124       	2.2879e-01	1.0260e-22	6.2586e-01	-3.1293e-01	-2.5455e-01	1.1439e-01	-1.9854e-01	4.2732e-01	1.1439e-01	-1.1439e-01	5.8376e-02	5.6748e-01
0.125       	2.3265e-01	1.1063e-22	6.2035e-01	-3.1017e-01	-2.4759e-01	1.1632e-01	-1.9385e-01	4.2650e-01	1.1632e-01	-1.1632e-01	6.2582e-02	5.5777e-01
0.126       	2.3190e-01	1.1515e-22	6.0129e-01	-3.0064e-01	-2.3324e-01	1.1595e-01	-1.8469e-01	4.1659e-01	1.1595e-01	-1.1595e-01	6.7400e-02	5.3389e-01
0.127       	2.2682e-01	1.1612e-22	5.7236e-01	-2.8618e-01	-2.1415e-01	1.1341e-01	-1.7277e-01	3.9959e-01	1.1341e-01	-1.1341e-01	7.2028e-02	5.0033e-01
0.128       	2.2378e-01	1.1869e-22	5.6011e-01	-2.8005e-01	-2.0648e-01	1.1189e-01	-1.6816e-01	3.9194e-01	1.1189e-01	-1.1189e-01	7.3575e-02	4.8653e-01
0.129       	2.0749e-01	1.1927e-22	5.0317e-01	-2.5159e-01	-1.7098e-01	1.0375e-01	-1.4784e-01	3.5533e-01	1.0375e-01	-1.0375e-01	8.0606e-02	4.2257e-01
0.13        	1.8445e-01	1.2179e-22	4.2812e-01	-2.1406e-01	-1.2436e-01	9.2225e-02	-1.2184e-01	3.0628e-01	9.2225e-02	-9.2225e-02	8.9703e-02	3.3842e-01
0.131       	1.7728e-01	1.1981e-22	4.0559e-01	-2.0280e-01	-1.1047e-01	8.8640e-02	-1.1416e-01	2.9144e-01	8.8640e-02	-8.8640e-02	9.2327e-02	3.1327e-01
0.132       	1.4702e-01	1.2351e-22	3.1515e-01	-1.5758e-01	-5.3300e-02	7.3508e-02	-8.4069e-02	2.3109e-01	7.3508e-02	-7.3508e-02	1.0428e-01	2.1088e-01
0.133       	1.4013e-01	1.2348e-22	2.9513e-01	-1.4757e-01	-4.0399e-02	7.0066e-02	-7.7500e-02	2.1763e-01	7.0066e-02	-7.0066e-02	1.0717e-01	1.8797e-01
0.134       	1.1416e-01	1.2469e-22	2.2369e-01	-1.1185e-01	7.4905e-03	5.7081e-02	-5.4765e-02	1.6893e-01	5.7081e-02	-5.7081e-02	1.1934e-01	1.0436e-01
0.135       	1.0933e-01	1.2691e-22	2.1106e-01	-1.0553e-01	1.6373e-02	5.4667e-02	-5.0864e-02	1.6020e-01	5.4667e-02	-5.4667e-02	1.2190e-01	8.9159e-02
0.136       	9.3882e-02	1.2920e-22	1.7479e-01	-8.7393e-02	4.5282e-02	4.6941e-02	-4.0452e-02	1.3433e-01	4.6941e-02	-4.6941e-02	1.3267e-01	4.2110e-02
0.137       	9.2535e-02	1.3103e-22	1.7248e-01	-8.6241e-02	4.8018e-02	4.6268e-02	-3.9974e-02	1.3251e-01	4.6268e-02	-4.6268e-02	1.3426e-01	3.8224e-02
0.138       	9.2857e-02	1.3377e-22	1.7810e-01	-8.9049e-02	4.9875e-02	4.6429e-02	-4.2620e-02	1.3548e-01	4.6429e-02	-4.6429e-02	1.3892e-01	3.9174e-02
0.139       	9.3838e-02	1.3420e-22	1.8167e-01	-9.0835e-02	4.9091e-02	4.6919e-02	-4.3916e-02	1.3775e-01	4.6919e-02	-4.6919e-02	1.3993e-01	4.1744e-02
0.14        	9.7699e-02	1.4134e-22	1.9349e-01	-9.6746e-02	4.6434e-02	4.8850e-02	-4.7896e-02	1.4560e-01	4.8850e-02	-4.8850e-02	1.4318e-01	5.0312e-02
0.141       	1.0079e-01	1.5096e-22	2.0155e-01	-1.0078e-01	4.6345e-02	5.0397e-02	-5.0379e-02	1.5117e-01	5.0397e-02	-5.0397e-02	1.4712e-01	5.4431e-02
0.142       	1.0111e-01	1.5137e-22	2.0166e-01	-1.0083e-01	4.7681e-02	5.0556e-02	-5.0271e-02	1.5138e-01	5.0556e-02	-5.0556e-02	1.4851e-01	5.3146e-02
0.143       	9.7845e-02	1.5696e-22	1.8824e-01	-9.4118e-02	6.1893e-02	4.8922e-02	-4.5196e-02	1.4304e-01	4.8922e-02	-4.8922e-02	1.5601e-01	3.2225e-02
0.144       	9.6007e-02	1.5818e-22	1.8155e-01	-9.0776e-02	6.7719e-02	4.8004e-02	-4.2772e-02	1.3878e-01	4.8004e-02	-4.8004e-02	1.5849e-01	2.3056e-02
0.145       	8.1838e-02	1.6939e-22	1.3539e-01	-6.7697e-02	1.0407e-01	4.0919e-02	-2.6778e-02	1.0862e-01	4.0919e-02	-4.0919e-02	1.7177e-01	-3.6374e-02
0.146       	7.7479e-02	1.7305e-22	1.2157e-01	-6.0784e-02	1.1471e-01	3.8739e-02	-2.2044e-02	9.9523e-02	3.8739e-02	-3.8739e-02	1.7549e-01	-5.3927e-02
0.147       	5.7112e-02	1.8480e-22	6.1030e-02	-3.0515e-02	1.6033e-01	2.8556e-02	-1.9592e-03	5.9071e-02	2.8556e-02	-2.8556e-02	1.9084e-01	-1.2981e-01
0.148       	5.2371e-02	1.8438e-22	4.7614e-02	-2.3807e-02	1.7063e-01	2.6186e-02	2.3786e-03	4.9992e-02	2.6186e-02	-2.6186e-02	1.9443e-01	-1.4682e-01
0.149       	3.8768e-02	1.9462e-22	1.3580e-02	-6.7900e-03	1.9743e-01	1.9384e-02	1.2594e-02	2.6174e-02	1.9384e-02	-1.9384e-02	2.0422e-01	-1.9064e-01
0.15        	3.5912e-02	1.9253e-22	7.8546e-03	-3.9273e-03	2.0260e-01	1.7956e-02	1.4029e-02	2.1883e-02	1.7956e-02	-1.7956e-02	2.0652e-01	-1.9867e-01
0.151       	2.9266e-02	2.0217e-22	2.5552e-03	-1.2776e-03	2.1044e-01	1.4633e-02	1.3356e-02	1.5911e-02	1.4633e-02	-1.4633e-02	2.1172e-01	-2.0917e-01
0.152       	2.8806e-02	2.0301e-22	6.5058e-03	-3.2529e-03	2.0927e-01	1.4403e-02	1.1150e-02	1.7656e-02	1.4403e-02	-1.4403e-02	2.1252e-01	-2.0602e-01
0.153       	3.5987e-02	2.0792e-22	5.4564e-02	-2.7282e-02	1.8164e-01	1.7993e-02	-9.2889e-03	4.5275e-02	1.7993e-02	-1.7993e-02	2.0893e-01	-1.5436e-01
0.154       	3.8353e-02	2.0741e-22	6.7112e-02	-3.3556e-02	1.7408e-01	1.9177e-02	-1.4379e-02	5.2733e-02	1.9177e-02	-1.9177e-02	2.0763e-01	-1.4052e-01
0.155       	4.2498e-02	2.0915e-22	8.3986e-02	-4.1993e-02	1.6311e-01	2.1249e-02	-2.0744e-02	6.3242e-02	2.1249e-02	-2.1249e-02	2.0511e-01	-1.2112e-01
0.156       	7.0451e-02	2.1269e-22	1.7527e-01	-8.7636e-02	1.0200e-01	3.5226e-02	-5.2410e-02	1.2286e-01	3.5226e-02	-3.5226e-02	1.8963e-01	-1.4360e-02
0.157       	7.5332e-02	2.1341e-22	1.8949e-01	-9.4745e-02	9.1960e-02	3.7666e-02	-5.7079e-02	1.3241e-01	3.7666e-02	-3.7666e-02	1.8671e-01	2.7846e-03
0.158       	7.9498e-02	2.1497e-22	1.9966e-01	-9.9831e-02	8.4589e-02	3.9749e-02	-6.0082e-02	1.3958e-01	3.9749e-02	-3.9749e-02	1.8442e-01	1.5242e-02
0.159       	9.4031e-02	2.2324e-22	2.3288e-01	-1.1644e-01	6.3679e-02	4.7016e-02	-6.9425e-02	1.6346e-01	4.7016e-02	-4.7016e-02	1.8012e-01	5.2761e-02
0.16        	9.7343e-02	2.2653e-22	2.4007e-01	-1.2004e-01	5.9468e-02	4.8671e-02	-7.1365e-02	1.6871e-01	4.8671e-02	-4.8671e-02	1.7950e-01	6.0569e-02
0.161       	1.0919e-01	2.4330e-22	2.7029e-01	-1.3515e-01	4.6839e-02	5.4597e-02	-8.0550e-02	1.8974e-01	5.4597e-02	-5.4597e-02	1.8199e-01	8.8309e-02
0.162       	1.1109e-01	2.4906e-22	2.7610e-01	-1.3805e-01	4.4985e-02	5.5545e-02	-8.2503e-02	1.9359e-01	5.5545e-02	-5.5545e-02	1.8303e-01	9.3063e-02
0.163       	1.1225e-01	2.5294e-22	2.8221e-01	-1.4110e-01	4.3804e-02	5.6126e-02	-8.4977e-02	1.9723e-01	5.6126e-02	-5.6126e-02	1.8491e-01	9.7299e-02
0.164       	1.1657e-01	2.7382e-22	3.1711e-01	-1.5855e-01	3.5278e-02	5.8287e-02	-1.0027e-01	2.1684e-01	5.8287e-02	-5.8287e-02	1.9383e-01	1.2328e-01
0.165       	1.1650e-01	2.7537e-22	3.2186e-01	-1.6093e-01	3.4036e-02	5.8249e-02	-1.0268e-01	2.1918e-01	5.8249e-02	-5.8249e-02	1.9497e-01	1.2690e-01
0.166       	1.1780e-01	2.8072e-22	3.4816e-01	-1.7408e-01	2.1245e-02	5.8900e-02	-1.1518e-01	2.3298e-01	5.8900e-02	-5.8900e-02	1.9532e-01	1.5283e-01
0.167       	1.1792e-01	2.7701e-22	3.5191e-01	-1.7596e-01	1.8695e-02	5.8959e-02	-1.1700e-01	2.3492e-01	5.8959e-02	-5.8959e-02	1.9465e-01	1.5726e-01
0.168       	1.2149e-01	2.7659e-22	3.7405e-01	-1.8702e-01	1.4567e-03	6.0746e-02	-1.2628e-01	2.4777e-01	6.0746e-02	-6.0746e-02	1.8848e-01	1.8557e-01
0.169       	1.2324e-01	2.7715e-22	3.8135e-01	-1.9067e-01	-4.5372e-03	6.1618e-02	-1.2906e-01	2.5229e-01	6.1618e-02	-6.1618e-02	1.8614e-01	1.9521e-01
0.17        	1.2645e-01	2.7532e-22	3.9277e-01	-1.9639e-01	-1.3517e-02	6.3226e-02	-1.3316e-01	2.5961e-01	6.3226e-02	-6.3226e-02	1.8287e-01	2.0990e-01
0.171       	1.4559e-01	2.7409e-22	4.5632e-01	-2.2816e-01	-5.9738e-02	7.2794e-02	-1.5536e-01	3.0095e-01	7.2794e-02	-7.2794e-02	1.6842e-01	2.8790e-01
0.172       	1.5243e-01	2.7480e-22	4.7775e-01	-2.3887e-01	-7.4134e-02	7.6217e-02	-1.6266e-01	3.1509e-01	7.6217e-02	-7.6217e-02	1.6474e-01	3.1301e-01
0.173       	1.6079e-01	2.7754e-22	5.0340e-01	-2.5170e-01	-8.9924e-02	8.0395e-02	-1.7131e-01	3.3210e-01	8.0395e-02	-8.0395e-02	1.6178e-01	3.4163e-01
0.174       	1.9313e-01	2.9234e-22	6.0267e-01	-3.0134e-01	-1.4584e-01	9.6564e-02	-2.0477e-01	3.9790e-01	9.6564e-02	-9.6564e-02	1.5549e-01	4.4718e-01
0.175       	1.9745e-01	2.9312e-22	6.1608e-01	-3.0804e-01	-1.5261e-01	9.8723e-02	-2.0932e-01	4.0676e-01	9.8723e-02	-9.8723e-02	1.5543e-01	4.6065e-01
0.176       	2.0732e-01	3.0548e-22	6.4709e-01	-3.2354e-01	-1.6480e-01	1.0366e-01	-2.1988e-01	4.2721e-01	1.0366e-01	-1.0366e-01	1.5874e-01	4.8835e-01
0.177       	2.0784e-01	3.0556e-22	6.4921e-01	-3.2461e-01	-1.6460e-01	1.0392e-01	-2.2069e-01	4.2852e-01	1.0392e-01	-1.0392e-01	1.6000e-01	4.8921e-01
0.178       	2.0596e-01	3.1108e-22	6.4745e-01	-3.2372e-01	-1.5731e-01	1.0298e-01	-2.2074e-01	4.2670e-01	1.0298e-01	-1.0298e-01	1.6641e-01	4.8104e-01
0.179       	2.0453e-01	3.1031e-22	6.4504e-01	-3.2252e-01	-1.5406e-01	1.0227e-01	-2.2025e-01	4.2478e-01	1.0227e-01	-1.0227e-01	1.6845e-01	4.7658e-01
0.18        	2.0256e-01	3.1115e-22	6.4195e-01	-3.2098e-01	-1.5035e-01	1.0128e-01	-2.1969e-01	4.2226e-01	1.0128e-01	-1.0128e-01	1.7062e-01	4.7133e-01
0.181       	1.9769e-01	3.1189e-22	6.3730e-01	-3.1865e-01	-1.4122e-01	9.8845e-02	-2.1980e-01	4.1749e-01	9.8845e-02	-9.8845e-02	1.7743e-01	4.5987e-01
0.182       	1.9729e-01	3.1391e-22	6.3919e-01	-3.1959e-01	-1.4067e-01	9.8644e-02	-2.2095e-01	4.1824e-01	9.8644e-02	-9.8644e-02	1.7892e-01	4.6027e-01
0.183       	1.9823e-01	3.1758e-22	6.4477e-01	-3.2238e-01	-1.4270e-01	9.9115e-02	-2.2327e-01	4.2150e-01	9.9115e-02	-9.9115e-02	1.7968e-01	4.6508e-01
0.184       	2.0071e-01	3.2318e-22	6.5487e-01	-3.2744e-01	-1.4777e-01	1.0035e-01	-2.2708e-01	4.2779e-01	1.0035e-01	-1.0035e-01	1.7967e-01	4.7520e-01
0.185       	2.0506e-01	3.2940e-22	6.7058e-01	-3.3529e-01	-1.5654e-01	1.0253e-01	-2.3276e-01	4.3782e-01	1.0253e-01	-1.0253e-01	1.7875e-01	4.9183e-01
0.186       	2.2547e-01	3.4855e-22	7.3921e-01	-3.6960e-01	-1.9628e-01	1.1273e-01	-2.5687e-01	4.8234e-01	1.1273e-01	-1.1273e-01	1.7332e-01	5.6589e-01
0.187       	2.3040e-01	3.4995e-22	7.5562e-01	-3.7781e-01	-2.0588e-01	1.1520e-01	-2.6261e-01	4.9301e-01	1.1520e-01	-1.1520e-01	1.7193e-01	5.8369e-01
0.188       	2.3429e-01	3.5243e-22	7.6831e-01	-3.8416e-01	-2.1351e-01	1.1715e-01	-2.6701e-01	5.0130e-01	1.1715e-01	-1.1715e-01	1.7065e-01	5.9767e-01
0.189       	2.4700e-01	3.4906e-22	8.0941e-01	-4.0471e-01	-2.3841e-01	1.2350e-01	-2.8121e-01	5.2821e-01	1.2350e-01	-1.2350e-01	1.6630e-01	6.4311e-01
0.19        	2.4903e-01	3.4405e-22	8.1616e-01	-4.0808e-01	-2.4222e-01	1.2452e-01	-2.8356e-01	5.3260e-01	1.2452e-01	-1.2452e-01	1.6586e-01	6.5030e-01
0.191       	2.5031e-01	3.4266e-22	8.2081e-01	-4.1041e-01	-2.4441e-01	1.2516e-01	-2.8525e-01	5.3556e-01	1.2516e-01	-1.2516e-01	1.6600e-01	6.5481e-01
0.192       	2.5236e-01	3.3794e-22	8.3133e-01	-4.1566e-01	-2.4687e-01	1.2618e-01	-2.8949e-01	5.4184e-01	1.2618e-01	-1.2618e-01	1.6879e-01	6.6254e-01
0.193       	2.5264e-01	3.3687e-22	8.3422e-01	-4.1711e-01	-2.4668e-01	1.2632e-01	-2.9079e-01	5.4343e-01	1.2632e-01	-1.2632e-01	1.7043e-01	6.6379e-01
0.194       	2.5267e-01	3.3950e-22	8.3684e-01	-4.1842e-01	-2.4558e-01	1.2633e-01	-2.9208e-01	5.4475e-01	1.2633e-01	-1.2633e-01	1.7284e-01	6.6399e-01
0.195       	2.5296e-01	3.4748e-22	8.4658e-01	-4.2329e-01	-2.3963e-01	1.2648e-01	-2.9681e-01	5.4977e-01	1.2648e-01	-1.2648e-01	1.8366e-01	6.6293e-01
0.196       	2.5326e-01	3.5039e-22	8.4947e-01	-4.2474e-01	-2.3837e-01	1.2663e-01	-2.9811e-01	5.5137e-01	1.2663e-01	-1.2663e-01	1.8637e-01	6.6310e-01
0.197       	2.5379e-01	3.5446e-22	8.5217e-01	-4.2609e-01	-2.3753e-01	1.2689e-01	-2.9919e-01	5.5298e-01	1.2689e-01	-1.2689e-01	1.8855e-01	6.6362e-01