# Force coefficients
# dragDir   : (1.0000e+00 0.0000e+00 0.0000e+00)
# sideDir   : (0.0000e+00 0.0000e+00 -1.0000e+00)
# liftDir   : (0.0000e+00 1.0000e+00 0.0000e+00)
# rollAxis  : (1.0000e+00 0.0000e+00 0.0000e+00)
# pitchAxis : (0.0000e+00 0.0000e+00 -1.0000e+00)
# yawAxis   : (0.0000e+00 1.0000e+00 0.0000e+00)
# magUInf   : 1.0000e+00
# lRef      : 1.0000e+00
# Aref      : 1.0000e+00
# CofR      : (0.0000e+00 0.0000e+00 0.0000e+00)
#
# Time      	Cd          	Cs          	Cl          	CmRoll      	CmPitch     	CmYaw       	Cd(f)       	Cd(r)       	Cs(f)       	Cs(r)       	Cl(f)       	Cl(r)       
0.001       	1.1640e+01	2.3831e-21	1.2259e+01	-6.1297e+00	-6.1082e+00	5.8200e+00	-3.0968e-01	1.1950e+01	5.8200e+00	-5.8200e+00	2.1499e-02	1.2238e+01
0.002       	3.4271e-01	3.2500e-20	-9.9896e+01	4.9948e+01	5.8439e+01	1.7136e-01	5.0119e+01	-4.9777e+01	1.7136e-01	-1.7136e-01	8.4907e+00	-1.0839e+02
0.003       	7.5519e-01	1.1691e-20	3.4077e+01	-1.7039e+01	-2.4247e+01	3.7760e-01	-1.6661e+01	1.7416e+01	3.7760e-01	-3.7760e-01	-7.2084e+00	4.1286e+01
0.004       	2.9029e+00	-7.9337e-21	1.6612e+02	-8.3062e+01	-9.9488e+01	1.4515e+00	-8.1610e+01	8.4513e+01	1.4515e+00	-1.4515e+00	-1.6426e+01	1.8255e+02
0.005       	2.7673e+00	-1.2740e-20	1.5020e+02	-7.5101e+01	-8.7640e+01	1.3837e+00	-7.3718e+01	7.6485e+01	1.3837e+00	-1.3837e+00	-1.2539e+01	1.6274e+02
0.006       	3.2059e+00	-1.3530e-20	1.2785e+02	-6.3924e+01	-7.6415e+01	1.6029e+00	-6.2321e+01	6.5527e+01	1.6029e+00	-1.6029e+00	-1.2491e+01	1.4034e+02
0.007       	-6.0339e-01	2.5173e-21	-6.0027e+01	3.0013e+01	3.2315e+01	-3.0170e-01	2.9712e+01	-3.0315e+01	-3.0170e-01	3.0170e-01	2.3014e+00	-6.2328e+01
0.008       	1.1855e+01	8.0165e-21	-2.9827e+01	1.4914e+01	1.0684e+01	5.9276e+00	2.0841e+01	-8.9860e+00	5.9276e+00	-5.9276e+00	-4.2294e+00	-2.5598e+01
0.009       	1.0605e+01	7.9614e-21	-1.8137e+01	9.0685e+00	5.7588e+00	5.3027e+00	1.4371e+01	-3.7658e+00	5.3027e+00	-5.3027e+00	-3.3097e+00	-1.4827e+01
0.01        	2.3470e+00	-2.2971e-21	7.4026e+01	-3.7013e+01	-3.8729e+01	1.1735e+00	-3.5840e+01	3.8187e+01	1.1735e+00	-1.1735e+00	-1.7156e+00	7.5742e+01
0.011       	-4.7887e+00	-6.8847e-21	7.2489e+01	-3.6244e+01	-3.5659e+01	-2.3944e+00	-3.8639e+01	3.3850e+01	-2.3944e+00	2.3944e+00	5.8571e-01	7.1903e+01
0.012       	-3.7856e+00	-6.5109e-21	6.1794e+01	-3.0897e+01	-3.1515e+01	-1.8928e+00	-3.2790e+01	2.9004e+01	-1.8928e+00	1.8928e+00	-6.1788e-01	6.2412e+01
0.013       	-1.5878e+00	1.5742e-21	-6.7970e+01	3.3985e+01	3.5070e+01	-7.9391e-01	3.3191e+01	-3.4779e+01	-7.9391e-01	7.9391e-01	1.0848e+00	-6.9055e+01
0.014       	1.1655e+00	6.3612e-21	-9.9417e+01	4.9708e+01	5.0611e+01	5.8277e-01	5.0291e+01	-4.9126e+01	5.8277e-01	-5.8277e-01	9.0252e-01	-1.0032e+02
0.015       	3.6281e-01	5.9552e-21	-8.6104e+01	4.3052e+01	4.4707e+01	1.8140e-01	4.3234e+01	-4.2871e+01	1.8140e-01	-1.8140e-01	1.6553e+00	-8.7760e+01
0.016       	1.7314e+00	-1.3961e-21	6.0475e+01	-3.0238e+01	-3.1746e+01	8.6570e-01	-2.9372e+01	3.1103e+01	8.6570e-01	-8.6570e-01	-1.5085e+00	6.1984e+01
0.017       	1.9927e+00	-5.4948e-21	1.1438e+02	-5.7192e+01	-5.9413e+01	9.9634e-01	-5.6196e+01	5.8189e+01	9.9634e-01	-9.9634e-01	-2.2206e+00	1.1661e+02
0.018       	2.6128e+00	-5.1648e-21	9.6690e+01	-4.8345e+01	-5.0748e+01	1.3064e+00	-4.7039e+01	4.9652e+01	1.3064e+00	-1.3064e+00	-2.4024e+00	9.9093e+01
0.019       	-8.4720e-01	8.5699e-22	-4.7071e+01	2.3536e+01	2.5305e+01	-4.2360e-01	2.3112e+01	-2.3959e+01	-4.2360e-01	4.2360e-01	1.7694e+00	-4.8841e+01
0.02        	-3.1693e+00	4.9598e-21	-1.1368e+02	5.6841e+01	5.9829e+01	-1.5846e+00	5.5256e+01	-5.8426e+01	-1.5846e+00	1.5846e+00	2.9883e+00	-1.1667e+02
0.021       	-3.1497e+00	4.1923e-21	-7.6851e+01	3.8425e+01	4.0009e+01	-1.5748e+00	3.6851e+01	-4.0000e+01	-1.5748e+00	1.5748e+00	1.5835e+00	-7.8434e+01
0.022       	7.6801e-01	-4.0134e-22	3.2954e+01	-1.6477e+01	-1.8045e+01	3.8400e-01	-1.6093e+01	1.6861e+01	3.8400e-01	-3.8400e-01	-1.5681e+00	3.4522e+01
0.023       	3.6858e+00	-3.6091e-21	8.7938e+01	-4.3969e+01	-4.6304e+01	1.8429e+00	-4.2126e+01	4.5812e+01	1.8429e+00	-1.8429e+00	-2.3353e+00	9.0274e+01
0.024       	3.4133e+00	-3.0718e-21	5.8511e+01	-2.9256e+01	-3.0190e+01	1.7066e+00	-2.7549e+01	3.0962e+01	1.7066e+00	-1.7066e+00	-9.3431e-01	5.9445e+01
0.025       	4.0081e-01	-2.4164e-22	-1.3027e+01	6.5137e+00	7.6075e+00	2.0041e-01	6.7141e+00	-6.3133e+00	2.0041e-01	-2.0041e-01	1.0937e+00	-1.4121e+01
0.026       	-2.9884e+00	2.7853e-21	-6.5537e+01	3.2769e+01	3.4478e+01	-1.4942e+00	3.1275e+01	-3.4263e+01	-1.4942e+00	1.4942e+00	1.7096e+00	-6.7247e+01
0.027       	-2.9602e+00	2.7184e-21	-4.8723e+01	2.4362e+01	2.4991e+01	-1.4801e+00	2.2881e+01	-2.5842e+01	-1.4801e+00	1.4801e+00	6.2961e-01	-4.9353e+01
0.028       	-3.2303e-01	5.8365e-22	3.8906e+00	-1.9453e+00	-2.7142e+00	-1.6152e-01	-2.1068e+00	1.7838e+00	-1.6152e-01	1.6152e-01	-7.6895e-01	4.6595e+00
0.029       	2.5434e+00	-1.7124e-21	4.4599e+01	-2.2300e+01	-2.3518e+01	1.2717e+00	-2.1028e+01	2.3571e+01	1.2717e+00	-1.2717e+00	-1.2184e+00	4.5818e+01
0.03        	2.8056e+00	-2.0326e-21	3.8112e+01	-1.9056e+01	-1.9450e+01	1.4028e+00	-1.7653e+01	2.0459e+01	1.4028e+00	-1.4028e+00	-3.9433e-01	3.8506e+01
0.031       	8.5236e-01	-6.4053e-22	2.6954e+00	-1.3477e+00	-7.5563e-01	4.2618e-01	-9.2151e-01	1.7739e+00	4.2618e-01	-4.2618e-01	5.9206e-01	2.1033e+00
0.032       	-1.4442e+00	1.1138e-21	-2.8260e+01	1.4130e+01	1.4982e+01	-7.2210e-01	1.3408e+01	-1.4852e+01	-7.2210e-01	7.2210e-01	8.5201e-01	-2.9112e+01
0.033       	-1.8558e+00	1.5951e-21	-2.7609e+01	1.3804e+01	1.4031e+01	-9.2789e-01	1.2876e+01	-1.4732e+01	-9.2789e-01	9.2789e-01	2.2695e-01	-2.7836e+01
0.034       	-4.8028e-01	7.0114e-22	-4.3722e+00	2.1861e+00	1.7265e+00	-2.4014e-01	1.9460e+00	-2.4262e+00	-2.4014e-01	2.4014e-01	-4.5962e-01	-3.9126e+00
0.035       	1.2261e+00	-5.7206e-22	1.7815e+01	-8.9075e+00	-9.4966e+00	6.1305e-01	-8.2944e+00	9.5205e+00	6.1305e-01	-6.1305e-01	-5.8917e-01	1.8404e+01
0.036       	1.6575e+00	-1.0373e-21	1.9757e+01	-9.8783e+00	-1.0004e+01	8.2876e-01	-9.0496e+00	1.0707e+01	8.2876e-01	-8.2876e-01	-1.2550e-01	1.9882e+01
0.037       	7.3149e-01	-4.8818e-22	4.8824e+00	-2.4412e+00	-2.0846e+00	3.6575e-01	-2.0755e+00	2.8069e+00	3.6575e-01	-3.6575e-01	3.5664e-01	4.5258e+00
0.038       	-4.6946e-01	3.8930e-22	-1.0322e+01	5.1610e+00	5.5711e+00	-2.3473e-01	4.9263e+00	-5.3957e+00	-2.3473e-01	2.3473e-01	4.1013e-01	-1.0732e+01
0.039       	-8.5259e-01	7.8413e-22	-1.3011e+01	6.5057e+00	6.5717e+00	-4.2629e-01	6.0794e+00	-6.9320e+00	-4.2629e-01	4.2629e-01	6.5932e-02	-1.3077e+01
0.04        	-2.6232e-01	4.6186e-22	-3.8441e+00	1.9221e+00	1.6516e+00	-1.3116e-01	1.7909e+00	-2.0532e+00	-1.3116e-01	1.3116e-01	-2.7045e-01	-3.5737e+00
0.041       	4.3663e-01	-3.9320e-23	4.7853e+00	-2.3927e+00	-2.6822e+00	2.1832e-01	-2.1743e+00	2.6110e+00	2.1832e-01	-2.1832e-01	-2.8955e-01	5.0749e+00
0.042       	8.8249e-01	-4.4504e-22	9.0933e+00	-4.5466e+00	-4.5865e+00	4.4125e-01	-4.1054e+00	4.9879e+00	4.4125e-01	-4.4125e-01	-3.9858e-02	9.1332e+00
0.043       	6.0768e-01	-3.2934e-22	4.6882e+00	-2.3441e+00	-2.1416e+00	3.0384e-01	-2.0402e+00	2.6479e+00	3.0384e-01	-3.0384e-01	2.0252e-01	4.4856e+00
0.044       	1.1888e-01	1.4826e-23	-1.2718e+00	6.3590e-01	8.5000e-01	5.9439e-02	6.9534e-01	-5.7646e-01	5.9439e-02	-5.9439e-02	2.1409e-01	-1.4859e+00
0.045       	-2.8095e-01	3.5868e-22	-5.4904e+00	2.7452e+00	2.7799e+00	-1.4047e-01	2.6047e+00	-2.8857e+00	-1.4047e-01	1.4047e-01	3.4740e-02	-5.5251e+00
0.046       	-2.1003e-01	3.6260e-22	-4.1024e+00	2.0512e+00	1.9236e+00	-1.0502e-01	1.9462e+00	-2.1562e+00	-1.0502e-01	1.0502e-01	-1.2762e-01	-3.9747e+00
0.047       	1.4139e-01	1.2589e-22	2.1169e-01	-1.0584e-01	-2.6671e-01	7.0696e-02	-3.5149e-02	1.7654e-01	7.0696e-02	-7.0696e-02	-1.6087e-01	3.7256e-01
0.048       	4.3093e-01	-1.1004e-22	3.4175e+00	-1.7088e+00	-1.7742e+00	2.1547e-01	-1.4933e+00	1.9242e+00	2.1547e-01	-2.1547e-01	-6.5445e-02	3.4830e+00
0.049       	4.8291e-01	-1.8848e-22	3.7136e+00	-1.8568e+00	-1.7839e+00	2.4146e-01	-1.6153e+00	2.0983e+00	2.4146e-01	-2.4146e-01	7.2895e-02	3.6407e+00
0.05        	2.8901e-01	-7.0365e-23	1.2720e+00	-6.3598e-01	-5.0112e-01	1.4450e-01	-4.9148e-01	7.8049e-01	1.4450e-01	-1.4450e-01	1.3486e-01	1.1371e+00
0.051       	6.5697e-02	1.0380e-22	-1.2799e+00	6.3994e-01	7.1935e-01	3.2848e-02	6.7279e-01	-6.0709e-01	3.2848e-02	-3.2848e-02	7.9413e-02	-1.3593e+00
0.052       	-2.1073e-02	1.9258e-22	-2.1455e+00	1.0728e+00	1.0557e+00	-1.0536e-02	1.0622e+00	-1.0833e+00	-1.0536e-02	1.0536e-02	-1.7071e-02	-2.1284e+00
0.053       	5.2810e-02	1.5998e-22	-1.1407e+00	5.7036e-01	4.7407e-01	2.6405e-02	5.9677e-01	-5.4396e-01	2.6405e-02	-2.6405e-02	-9.6291e-02	-1.0444e+00
0.054       	2.0374e-01	4.9067e-23	6.3331e-01	-3.1666e-01	-3.9865e-01	1.0187e-01	-2.1478e-01	4.1853e-01	1.0187e-01	-1.0187e-01	-8.1990e-02	7.1530e-01
0.055       	2.5056e-01	6.4511e-24	1.1258e+00	-5.6292e-01	-6.0905e-01	1.2528e-01	-4.3764e-01	6.8820e-01	1.2528e-01	-1.2528e-01	-4.6128e-02	1.1720e+00
0.056       	2.8377e-01	-4.0740e-23	1.3954e+00	-6.9771e-01	-6.3998e-01	1.4188e-01	-5.5582e-01	8.3959e-01	1.4188e-01	-1.4188e-01	5.7723e-02	1.3377e+00
0.057       	2.3223e-01	-1.2205e-23	7.2612e-01	-3.6306e-01	-2.6390e-01	1.1612e-01	-2.4694e-01	4.7918e-01	1.1612e-01	-1.1612e-01	9.9156e-02	6.2696e-01
0.058       	1.9101e-01	2.3003e-23	2.6420e-01	-1.3210e-01	-5.4787e-02	9.5505e-02	-3.6594e-02	2.2760e-01	9.5505e-02	-9.5505e-02	7.7312e-02	1.8689e-01
0.059       	1.5440e-01	6.2288e-23	-1.3387e-01	6.6935e-02	9.4297e-02	7.7202e-02	1.4414e-01	1.0267e-02	7.7202e-02	-7.7202e-02	2.7363e-02	-1.6123e-01
0.06        	1.3031e-01	9.1483e-23	-3.7898e-01	1.8949e-01	1.6090e-01	6.5153e-02	2.5464e-01	-1.2434e-01	6.5153e-02	-6.5153e-02	-2.8595e-02	-3.5039e-01
0.061       	1.2605e-01	9.9297e-23	-3.8397e-01	1.9199e-01	1.2469e-01	6.3024e-02	2.5501e-01	-1.2896e-01	6.3024e-02	-6.3024e-02	-6.7293e-02	-3.1668e-01
0.062       	1.4425e-01	8.2899e-23	-1.3406e-01	6.7031e-02	-4.3504e-03	7.2127e-02	1.3916e-01	5.0961e-03	7.2127e-02	-7.2127e-02	-7.1382e-02	-6.2681e-02
0.063       	1.7147e-01	5.5259e-23	1.9636e-01	-9.8179e-02	-1.4239e-01	8.5734e-02	-1.2445e-02	1.8391e-01	8.5734e-02	-8.5734e-02	-4.4214e-02	2.4057e-01
0.064       	1.9851e-01	2.8739e-23	4.9074e-01	-2.4537e-01	-2.4849e-01	9.9254e-02	-1.4612e-01	3.4462e-01	9.9254e-02	-9.9254e-02	-3.1236e-03	4.9386e-01
0.065       	2.1655e-01	1.3187e-23	6.5130e-01	-3.2565e-01	-2.9297e-01	1.0827e-01	-2.1738e-01	4.3392e-01	1.0827e-01	-1.0827e-01	3.2679e-02	6.1862e-01
0.066       	2.2119e-01	1.1549e-23	6.4030e-01	-3.2015e-01	-2.6659e-01	1.1059e-01	-2.0956e-01	4.3074e-01	1.1059e-01	-1.1059e-01	5.3560e-02	5.8674e-01
0.067       	2.0962e-01	2.4199e-23	4.5597e-01	-2.2798e-01	-1.7683e-01	1.0481e-01	-1.2317e-01	3.3280e-01	1.0481e-01	-1.0481e-01	5.1154e-02	4.0481e-01
0.068       	1.8911e-01	4.3224e-23	2.0949e-01	-1.0475e-01	-7.5774e-02	9.4553e-02	-1.0193e-02	1.9930e-01	9.4553e-02	-9.4553e-02	2.8972e-02	1.8052e-01
0.069       	1.7223e-01	5.7310e-23	4.0872e-02	-2.0436e-02	-1.6045e-02	8.6113e-02	6.5677e-02	1.0655e-01	8.6113e-02	-8.6113e-02	4.3906e-03	3.6481e-02
0.07        	1.6471e-01	6.2808e-23	-1.7059e-02	8.5293e-03	-1.0193e-03	8.2357e-02	9.0886e-02	7.3827e-02	8.2357e-02	-8.2357e-02	-9.5485e-03	-7.5100e-03
0.071       	1.6224e-01	6.4044e-23	-2.4218e-02	1.2109e-02	-3.9307e-03	8.1119e-02	9.3227e-02	6.9010e-02	8.1119e-02	-8.1119e-02	-1.6040e-02	-8.1782e-03
0.072       	1.6197e-01	6.3087e-23	-2.3366e-03	1.1683e-03	-1.9298e-02	8.0983e-02	8.2152e-02	7.9815e-02	8.0983e-02	-8.0983e-02	-2.0467e-02	1.8130e-02
0.073       	1.6514e-01	5.8858e-23	6.3024e-02	-3.1512e-02	-5.3194e-02	8.2571e-02	5.1059e-02	1.1408e-01	8.2571e-02	-8.2571e-02	-2.1682e-02	8.4706e-02
0.074       	1.7340e-01	5.0596e-23	1.8000e-01	-8.9999e-02	-1.0689e-01	8.6702e-02	-3.2974e-03	1.7670e-01	8.6702e-02	-8.6702e-02	-1.6887e-02	1.9689e-01
0.075       	1.8518e-01	4.0683e-23	3.1574e-01	-1.5787e-01	-1.6403e-01	9.2590e-02	-6.5280e-02	2.5046e-01	9.2590e-02	-9.2590e-02	-6.1580e-03	3.2190e-01
0.076       	1.9525e-01	3.3769e-23	4.0881e-01	-2.0441e-01	-1.9904e-01	9.7627e-02	-1.0678e-01	3.0203e-01	9.7627e-02	-9.7627e-02	5.3659e-03	4.0345e-01
0.077       	2.0025e-01	3.1547e-23	4.3786e-01	-2.1893e-01	-2.0626e-01	1.0013e-01	-1.1880e-01	3.1906e-01	1.0013e-01	-1.0013e-01	1.2669e-02	4.2519e-01
0.078       	2.0227e-01	3.2491e-23	4.2293e-01	-2.1147e-01	-1.9340e-01	1.0114e-01	-1.1033e-01	3.1260e-01	1.0114e-01	-1.0114e-01	1.8065e-02	4.0487e-01
0.079       	1.9976e-01	3.7581e-23	3.4919e-01	-1.7459e-01	-1.5447e-01	9.9880e-02	-7.4714e-02	2.7447e-01	9.9880e-02	-9.9880e-02	2.0120e-02	3.2907e-01
0.08        	1.9259e-01	4.5267e-23	2.3905e-01	-1.1953e-01	-1.0316e-01	9.6297e-02	-2.3230e-02	2.1582e-01	9.6297e-02	-9.6297e-02	1.6370e-02	2.2268e-01
0.081       	1.8478e-01	5.1336e-23	1.5231e-01	-7.6155e-02	-6.6972e-02	9.2390e-02	1.6234e-02	1.6854e-01	9.2390e-02	-9.2390e-02	9.1832e-03	1.4313e-01
0.082       	1.8003e-01	5.3938e-23	1.1526e-01	-5.7628e-02	-5.4323e-02	9.0014e-02	3.2386e-02	1.4764e-01	9.0014e-02	-9.0014e-02	3.3047e-03	1.1195e-01
0.083       	1.7796e-01	5.4438e-23	1.0792e-01	-5.3958e-02	-5.3992e-02	8.8979e-02	3.5021e-02	1.4294e-01	8.8979e-02	-8.8979e-02	-3.3684e-05	1.0795e-01
0.084       	1.7702e-01	5.4039e-23	1.1284e-01	-5.6419e-02	-5.8700e-02	8.8508e-02	3.2089e-02	1.4493e-01	8.8508e-02	-8.8508e-02	-2.2805e-03	1.1512e-01
0.085       	1.7687e-01	5.2810e-23	1.2890e-01	-6.4451e-02	-6.8418e-02	8.8437e-02	2.3986e-02	1.5289e-01	8.8437e-02	-8.8437e-02	-3.9666e-03	1.3287e-01
0.086       	1.7784e-01	5.0629e-23	1.5828e-01	-7.9140e-02	-8.3929e-02	8.8922e-02	9.7819e-03	1.6806e-01	8.8922e-02	-8.8922e-02	-4.7885e-03	1.6307e-01
0.087       	1.8020e-01	4.7642e-23	2.0009e-01	-1.0005e-01	-1.0430e-01	9.0099e-02	-9.9479e-03	1.9015e-01	9.0099e-02	-9.0099e-02	-4.2492e-03	2.0434e-01
0.088       	1.8377e-01	4.4489e-23	2.4694e-01	-1.2347e-01	-1.2569e-01	9.1885e-02	-3.1585e-02	2.1535e-01	9.1885e-02	-9.1885e-02	-2.2165e-03	2.4916e-01
0.089       	1.8772e-01	4.2038e-23	2.8701e-01	-1.4351e-01	-1.4276e-01	9.3861e-02	-4.9645e-02	2.3737e-01	9.3861e-02	-9.3861e-02	7.4578e-04	2.8627e-01
0.09        	1.9115e-01	4.0783e-23	3.1216e-01	-1.5608e-01	-1.5238e-01	9.5573e-02	-6.0508e-02	2.5165e-01	9.5573e-02	-9.5573e-02	3.6961e-03	3.0847e-01
0.091       	1.9351e-01	4.0654e-23	3.2124e-01	-1.6062e-01	-1.5455e-01	9.6757e-02	-6.3864e-02	2.5738e-01	9.6757e-02	-9.6757e-02	6.0692e-03	3.1517e-01
0.092       	1.9505e-01	4.1379e-23	3.1803e-01	-1.5901e-01	-1.5113e-01	9.7526e-02	-6.1487e-02	2.5654e-01	9.7526e-02	-9.7526e-02	7.8797e-03	3.1015e-01
0.093       	1.9578e-01	4.2943e-23	3.0241e-01	-1.5120e-01	-1.4205e-01	9.7888e-02	-5.3315e-02	2.4909e-01	9.7888e-02	-9.7888e-02	9.1533e-03	2.9325e-01
0.094       	1.9539e-01	4.5319e-23	2.7317e-01	-1.3658e-01	-1.2702e-01	9.7695e-02	-3.8888e-02	2.3428e-01	9.7695e-02	-9.7695e-02	9.5610e-03	2.6361e-01
0.095       	1.9358e-01	4.8018e-23	2.3435e-01	-1.1718e-01	-1.0846e-01	9.6788e-02	-2.0388e-02	2.1396e-01	9.6788e-02	-9.6788e-02	8.7139e-03	2.2564e-01
0.096       	1.9074e-01	5.0119e-23	1.9814e-01	-9.9071e-02	-9.2311e-02	9.5372e-02	-3.6991e-03	1.9444e-01	9.5372e-02	-9.5372e-02	6.7599e-03	1.9138e-01
0.097       	1.8817e-01	5.0916e-23	1.7823e-01	-8.9117e-02	-8.4399e-02	9.4086e-02	4.9694e-03	1.8320e-01	9.4086e-02	-9.4086e-02	4.7180e-03	1.7352e-01
0.098       	1.8672e-01	5.0788e-23	1.7371e-01	-8.6853e-02	-8.3443e-02	9.3361e-02	6.5078e-03	1.8021e-01	9.3361e-02	-9.3361e-02	3.4096e-03	1.7030e-01
0.099       	1.8605e-01	5.0327e-23	1.7618e-01	-8.8090e-02	-8.5375e-02	9.3023e-02	4.9339e-03	1.8111e-01	9.3023e-02	-9.3023e-02	2.7143e-03	1.7346e-01
0.1         	1.8574e-01	4.9649e-23	1.8274e-01	-9.1368e-02	-8.9077e-02	9.2871e-02	1.5029e-03	1.8424e-01	9.2871e-02	-9.2871e-02	2.2914e-03	1.8045e-01
0.101       	1.8578e-01	4.8697e-23	1.9418e-01	-9.7089e-02	-9.4988e-02	9.2891e-02	-4.1977e-03	1.8998e-01	9.2891e-02	-9.2891e-02	2.1012e-03	1.9208e-01
0.102       	1.8634e-01	4.7528e-23	2.1089e-01	-1.0544e-01	-1.0322e-01	9.3168e-02	-1.2275e-02	1.9861e-01	9.3168e-02	-9.3168e-02	2.2236e-03	2.0866e-01
0.103       	1.8749e-01	4.6354e-23	2.3098e-01	-1.1549e-01	-1.1280e-01	9.3743e-02	-2.1749e-02	2.0924e-01	9.3743e-02	-9.3743e-02	2.6909e-03	2.2829e-01
0.104       	1.8914e-01	4.5444e-23	2.5068e-01	-1.2534e-01	-1.2194e-01	9.4571e-02	-3.0769e-02	2.1991e-01	9.4571e-02	-9.4571e-02	3.3986e-03	2.4728e-01
0.105       	1.9101e-01	4.4952e-23	2.6638e-01	-1.3319e-01	-1.2902e-01	9.5504e-02	-3.7684e-02	2.2869e-01	9.5504e-02	-9.5504e-02	4.1626e-03	2.6221e-01
0.106       	1.9282e-01	4.4881e-23	2.7631e-01	-1.3815e-01	-1.3331e-01	9.6408e-02	-4.1745e-02	2.3456e-01	9.6408e-02	-9.6408e-02	4.8457e-03	2.7146e-01
0.107       	1.9436e-01	4.5141e-23	2.8040e-01	-1.4020e-01	-1.3481e-01	9.7181e-02	-4.3020e-02	2.3738e-01	9.7181e-02	-9.7181e-02	5.3905e-03	2.7501e-01
0.108       	1.9558e-01	4.5641e-23	2.7936e-01	-1.3968e-01	-1.3390e-01	9.7791e-02	-4.1891e-02	2.3747e-01	9.7791e-02	-9.7791e-02	5.7864e-03	2.7358e-01
0.109       	1.9644e-01	4.6302e-23	2.7391e-01	-1.3696e-01	-1.3091e-01	9.8219e-02	-3.8737e-02	2.3518e-01	9.8219e-02	-9.8219e-02	6.0424e-03	2.6787e-01
0.11        	1.9689e-01	4.7063e-23	2.6443e-01	-1.3221e-01	-1.2605e-01	9.8443e-02	-3.3771e-02	2.3066e-01	9.8443e-02	-9.8443e-02	6.1634e-03	2.5826e-01
0.111       	1.9680e-01	4.7816e-23	2.5179e-01	-1.2589e-01	-1.1973e-01	9.8401e-02	-2.7493e-02	2.2429e-01	9.8401e-02	-9.8401e-02	6.1652e-03	2.4562e-01
0.112       	1.9617e-01	4.8437e-23	2.3801e-01	-1.1900e-01	-1.1293e-01	9.8083e-02	-2.0921e-02	2.1709e-01	9.8083e-02	-9.8083e-02	6.0748e-03	2.3193e-01
0.113       	1.9511e-01	4.8798e-23	2.2639e-01	-1.1320e-01	-1.0724e-01	9.7556e-02	-1.5640e-02	2.1075e-01	9.7556e-02	-9.7556e-02	5.9527e-03	2.2044e-01
0.114       	1.9403e-01	4.8891e-23	2.1951e-01	-1.0975e-01	-1.0391e-01	9.7017e-02	-1.2736e-02	2.0677e-01	9.7017e-02	-9.7017e-02	5.8477e-03	2.1366e-01
0.115       	1.9326e-01	4.8812e-23	2.1744e-01	-1.0872e-01	-1.0293e-01	9.6628e-02	-1.2094e-02	2.0535e-01	9.6628e-02	-9.6628e-02	5.7877e-03	2.1166e-01
0.116       	1.9280e-01	4.8676e-23	2.1819e-01	-1.0909e-01	-1.0333e-01	9.6399e-02	-1.2695e-02	2.0549e-01	9.6399e-02	-9.6399e-02	5.7632e-03	2.1243e-01
0.117       	1.9255e-01	4.8520e-23	2.2068e-01	-1.1034e-01	-1.0458e-01	9.6275e-02	-1.4064e-02	2.0661e-01	9.6275e-02	-9.6275e-02	5.7605e-03	2.1492e-01
0.118       	1.9251e-01	4.8352e-23	2.2489e-01	-1.1245e-01	-1.0669e-01	9.6254e-02	-1.6191e-02	2.0870e-01	9.6254e-02	-9.6254e-02	5.7571e-03	2.1913e-01
0.119       	1.9272e-01	4.8184e-23	2.3077e-01	-1.1538e-01	-1.0965e-01	9.6359e-02	-1.9024e-02	2.1174e-01	9.6359e-02	-9.6359e-02	5.7363e-03	2.2503e-01
0.12        	1.9324e-01	4.8040e-23	2.3777e-01	-1.1888e-01	-1.1321e-01	9.6620e-02	-2.2264e-02	2.1551e-01	9.6620e-02	-9.6620e-02	5.6726e-03	2.3210e-01
0.121       	1.9405e-01	4.7936e-23	2.4493e-01	-1.2247e-01	-1.1691e-01	9.7025e-02	-2.5443e-02	2.1949e-01	9.7025e-02	-9.7025e-02	5.5600e-03	2.3937e-01
0.122       	1.9507e-01	4.7883e-23	2.5126e-01	-1.2563e-01	-1.2021e-01	9.7534e-02	-2.8096e-02	2.2317e-01	9.7534e-02	-9.7534e-02	5.4244e-03	2.4584e-01
0.123       	1.9615e-01	4.7873e-23	2.5611e-01	-1.2806e-01	-1.2274e-01	9.8077e-02	-2.9980e-02	2.2613e-01	9.8077e-02	-9.8077e-02	5.3204e-03	2.5079e-01
0.124       	1.9721e-01	4.7904e-23	2.5930e-01	-1.2965e-01	-1.2436e-01	9.8605e-02	-3.1048e-02	2.2826e-01	9.8605e-02	-9.8605e-02	5.2929e-03	2.5401e-01
0.125       	1.9814e-01	4.7957e-23	2.6099e-01	-1.3049e-01	-1.2513e-01	9.9072e-02	-3.1422e-02	2.2957e-01	9.9072e-02	-9.9072e-02	5.3672e-03	2.5562e-01
0.126       	1.9895e-01	4.8028e-23	2.6143e-01	-1.3072e-01	-1.2517e-01	9.9477e-02	-3.1239e-02	2.3019e-01	9.9477e-02	-9.9477e-02	5.5491e-03	2.5588e-01
0.127       	1.9962e-01	4.8104e-23	2.6091e-01	-1.3045e-01	-1.2460e-01	9.9811e-02	-3.0642e-02	2.3026e-01	9.9811e-02	-9.9811e-02	5.8534e-03	2.5505e-01
0.128       	2.0012e-01	4.8189e-23	2.5948e-01	-1.2974e-01	-1.2345e-01	1.0006e-01	-2.9680e-02	2.2980e-01	1.0006e-01	-1.0006e-01	6.2894e-03	2.5320e-01
0.129       	2.0040e-01	4.8278e-23	2.5744e-01	-1.2872e-01	-1.2188e-01	1.0020e-01	-2.8516e-02	2.2892e-01	1.0020e-01	-1.0020e-01	6.8371e-03	2.5060e-01
0.13        	2.0044e-01	4.8379e-23	2.5503e-01	-1.2751e-01	-1.2009e-01	1.0022e-01	-2.7292e-02	2.2774e-01	1.0022e-01	-1.0022e-01	7.4199e-03	2.4761e-01
0.131       	2.0025e-01	4.8482e-23	2.5271e-01	-1.2636e-01	-1.1845e-01	1.0013e-01	-2.6232e-02	2.2648e-01	1.0013e-01	-1.0013e-01	7.9113e-03	2.4480e-01
0.132       	1.9993e-01	4.8586e-23	2.5079e-01	-1.2539e-01	-1.1719e-01	9.9966e-02	-2.5429e-02	2.2536e-01	9.9966e-02	-9.9966e-02	8.2078e-03	2.4258e-01
0.133       	1.9960e-01	4.8680e-23	2.4945e-01	-1.2472e-01	-1.1643e-01	9.9799e-02	-2.4926e-02	2.2452e-01	9.9799e-02	-9.9799e-02	8.2917e-03	2.4116e-01
0.134       	1.9932e-01	4.8774e-23	2.4853e-01	-1.2427e-01	-1.1605e-01	9.9658e-02	-2.4607e-02	2.2392e-01	9.9658e-02	-9.9658e-02	8.2154e-03	2.4032e-01
0.135       	1.9909e-01	4.8873e-23	2.4790e-01	-1.2395e-01	-1.1593e-01	9.9547e-02	-2.4401e-02	2.2349e-01	9.9547e-02	-9.9547e-02	8.0140e-03	2.3988e-01
0.136       	1.9895e-01	4.8990e-23	2.4750e-01	-1.2375e-01	-1.1607e-01	9.9477e-02	-2.4274e-02	2.2323e-01	9.9477e-02	-9.9477e-02	7.6807e-03	2.3982e-01
0.137       	1.9892e-01	4.9126e-23	2.4728e-01	-1.2364e-01	-1.1640e-01	9.9462e-02	-2.4180e-02	2.2310e-01	9.9462e-02	-9.9462e-02	7.2394e-03	2.4004e-01
0.138       	1.9906e-01	4.9277e-23	2.4728e-01	-1.2364e-01	-1.1690e-01	9.9529e-02	-2.4113e-02	2.2317e-01	9.9529e-02	-9.9529e-02	6.7410e-03	2.4054e-01
0.139       	1.9937e-01	4.9424e-23	2.4763e-01	-1.2381e-01	-1.1752e-01	9.9684e-02	-2.4128e-02	2.2350e-01	9.9684e-02	-9.9684e-02	6.2881e-03	2.4134e-01
0.14        	1.9986e-01	4.9554e-23	2.4838e-01	-1.2419e-01	-1.1822e-01	9.9929e-02	-2.4261e-02	2.2412e-01	9.9929e-02	-9.9929e-02	5.9730e-03	2.4241e-01
0.141       	2.0046e-01	4.9646e-23	2.4962e-01	-1.2481e-01	-1.1895e-01	1.0023e-01	-2.4577e-02	2.2504e-01	1.0023e-01	-1.0023e-01	5.8627e-03	2.4375e-01
0.142       	2.0115e-01	4.9698e-23	2.5133e-01	-1.2566e-01	-1.1970e-01	1.0057e-01	-2.5088e-02	2.2624e-01	1.0057e-01	-1.0057e-01	5.9624e-03	2.4536e-01
0.143       	2.0187e-01	4.9705e-23	2.5351e-01	-1.2676e-01	-1.2050e-01	1.0094e-01	-2.5820e-02	2.2769e-01	1.0094e-01	-1.0094e-01	6.2539e-03	2.4726e-01
0.144       	2.0263e-01	4.9672e-23	2.5618e-01	-1.2809e-01	-1.2138e-01	1.0131e-01	-2.6776e-02	2.2941e-01	1.0131e-01	-1.0131e-01	6.7151e-03	2.4947e-01
0.145       	2.0339e-01	4.9594e-23	2.5933e-01	-1.2967e-01	-1.2235e-01	1.0170e-01	-2.7972e-02	2.3136e-01	1.0170e-01	-1.0170e-01	7.3181e-03	2.5202e-01
0.146       	2.0414e-01	4.9481e-23	2.6287e-01	-1.3143e-01	-1.2342e-01	1.0207e-01	-2.9366e-02	2.3350e-01	1.0207e-01	-1.0207e-01	8.0177e-03	2.5485e-01
0.147       	2.0478e-01	4.9342e-23	2.6644e-01	-1.3322e-01	-1.2450e-01	1.0239e-01	-3.0830e-02	2.3561e-01	1.0239e-01	-1.0239e-01	8.7215e-03	2.5772e-01
0.148       	2.0529e-01	4.9209e-23	2.6964e-01	-1.3482e-01	-1.2549e-01	1.0265e-01	-3.2173e-02	2.3747e-01	1.0265e-01	-1.0265e-01	9.3256e-03	2.6031e-01
0.149       	2.0560e-01	4.9108e-23	2.7197e-01	-1.3598e-01	-1.2626e-01	1.0280e-01	-3.3183e-02	2.3879e-01	1.0280e-01	-1.0280e-01	9.7274e-03	2.6224e-01
0.15        	2.0574e-01	4.9066e-23	2.7315e-01	-1.3657e-01	-1.2668e-01	1.0287e-01	-3.3707e-02	2.3944e-01	1.0287e-01	-1.0287e-01	9.8927e-03	2.6326e-01
0.151       	2.0571e-01	4.9088e-23	2.7316e-01	-1.3658e-01	-1.2674e-01	1.0285e-01	-3.3727e-02	2.3944e-01	1.0285e-01	-1.0285e-01	9.8405e-03	2.6332e-01
0.152       	2.0559e-01	4.9179e-23	2.7211e-01	-1.3606e-01	-1.2644e-01	1.0279e-01	-3.3264e-02	2.3885e-01	1.0279e-01	-1.0279e-01	9.6120e-03	2.6250e-01
0.153       	2.0539e-01	4.9335e-23	2.7015e-01	-1.3507e-01	-1.2582e-01	1.0270e-01	-3.2377e-02	2.3777e-01	1.0270e-01	-1.0270e-01	9.2508e-03	2.6090e-01
0.154       	2.0518e-01	4.9562e-23	2.6732e-01	-1.3366e-01	-1.2487e-01	1.0259e-01	-3.1074e-02	2.3625e-01	1.0259e-01	-1.0259e-01	8.7888e-03	2.5853e-01
0.155       	2.0497e-01	4.9845e-23	2.6393e-01	-1.3196e-01	-1.2367e-01	1.0248e-01	-2.9479e-02	2.3445e-01	1.0248e-01	-1.0248e-01	8.2949e-03	2.5563e-01
0.156       	2.0483e-01	5.0169e-23	2.6029e-01	-1.3014e-01	-1.2230e-01	1.0242e-01	-2.7726e-02	2.3256e-01	1.0242e-01	-1.0242e-01	7.8381e-03	2.5245e-01
0.157       	2.0480e-01	5.0490e-23	2.5700e-01	-1.2850e-01	-1.2099e-01	1.0240e-01	-2.6098e-02	2.3090e-01	1.0240e-01	-1.0240e-01	7.5075e-03	2.4949e-01
0.158       	2.0491e-01	5.0780e-23	2.5446e-01	-1.2723e-01	-1.1988e-01	1.0245e-01	-2.4773e-02	2.2968e-01	1.0245e-01	-1.0245e-01	7.3461e-03	2.4711e-01
0.159       	2.0516e-01	5.1004e-23	2.5305e-01	-1.2653e-01	-1.1915e-01	1.0258e-01	-2.3948e-02	2.2911e-01	1.0258e-01	-1.0258e-01	7.3759e-03	2.4568e-01
0.16        	2.0556e-01	5.1157e-23	2.5293e-01	-1.2647e-01	-1.1888e-01	1.0278e-01	-2.3684e-02	2.2925e-01	1.0278e-01	-1.0278e-01	7.5875e-03	2.4534e-01
0.161       	2.0610e-01	5.1221e-23	2.5421e-01	-1.2710e-01	-1.1914e-01	1.0305e-01	-2.4053e-02	2.3016e-01	1.0305e-01	-1.0305e-01	7.9631e-03	2.4625e-01
0.162       	2.0679e-01	5.1195e-23	2.5695e-01	-1.2848e-01	-1.2000e-01	1.0340e-01	-2.5080e-02	2.3187e-01	1.0340e-01	-1.0340e-01	8.4785e-03	2.4847e-01
0.163       	2.0757e-01	5.1077e-23	2.6105e-01	-1.3052e-01	-1.2145e-01	1.0378e-01	-2.6739e-02	2.3431e-01	1.0378e-01	-1.0378e-01	9.0752e-03	2.5197e-01
0.164       	2.0840e-01	5.0882e-23	2.6621e-01	-1.3311e-01	-1.2342e-01	1.0420e-01	-2.8903e-02	2.3731e-01	1.0420e-01	-1.0420e-01	9.6886e-03	2.5652e-01
0.165       	2.0919e-01	5.0641e-23	2.7178e-01	-1.3589e-01	-1.2567e-01	1.0460e-01	-3.1296e-02	2.4049e-01	1.0460e-01	-1.0460e-01	1.0225e-02	2.6156e-01
0.166       	2.0989e-01	5.0397e-23	2.7718e-01	-1.3859e-01	-1.2796e-01	1.0495e-01	-3.3642e-02	2.4353e-01	1.0495e-01	-1.0495e-01	1.0631e-02	2.6655e-01
0.167       	2.1044e-01	5.0186e-23	2.8175e-01	-1.4087e-01	-1.3000e-01	1.0522e-01	-3.5656e-02	2.4609e-01	1.0522e-01	-1.0522e-01	1.0870e-02	2.7088e-01
0.168       	2.1084e-01	5.0035e-23	2.8523e-01	-1.4262e-01	-1.3167e-01	1.0542e-01	-3.7197e-02	2.4803e-01	1.0542e-01	-1.0542e-01	1.0944e-02	2.7429e-01
0.169       	2.1108e-01	4.9961e-23	2.8737e-01	-1.4369e-01	-1.3282e-01	1.0554e-01	-3.8148e-02	2.4922e-01	1.0554e-01	-1.0554e-01	1.0867e-02	2.7651e-01
0.17        	2.1118e-01	4.9983e-23	2.8805e-01	-1.4403e-01	-1.3337e-01	1.0559e-01	-3.8434e-02	2.4962e-01	1.0559e-01	-1.0559e-01	1.0656e-02	2.7740e-01
0.171       	2.1116e-01	5.0106e-23	2.8718e-01	-1.4359e-01	-1.3324e-01	1.0558e-01	-3.8008e-02	2.4917e-01	1.0558e-01	-1.0558e-01	1.0351e-02	2.7682e-01
0.172       	2.1104e-01	5.0335e-23	2.8476e-01	-1.4238e-01	-1.3239e-01	1.0552e-01	-3.6862e-02	2.4790e-01	1.0552e-01	-1.0552e-01	9.9900e-03	2.7477e-01
0.173       	2.1086e-01	5.0638e-23	2.8122e-01	-1.4061e-01	-1.3096e-01	1.0543e-01	-3.5181e-02	2.4604e-01	1.0543e-01	-1.0543e-01	9.6489e-03	2.7157e-01
0.174       	2.1068e-01	5.0990e-23	2.7698e-01	-1.3849e-01	-1.2911e-01	1.0534e-01	-3.3150e-02	2.4383e-01	1.0534e-01	-1.0534e-01	9.3750e-03	2.6760e-01
0.175       	2.1054e-01	5.1340e-23	2.7276e-01	-1.3638e-01	-1.2716e-01	1.0527e-01	-3.1110e-02	2.4165e-01	1.0527e-01	-1.0527e-01	9.2166e-03	2.6354e-01
0.176       	2.1048e-01	5.1669e-23	2.6892e-01	-1.3446e-01	-1.2528e-01	1.0524e-01	-2.9216e-02	2.3970e-01	1.0524e-01	-1.0524e-01	9.1824e-03	2.5973e-01
0.177       	2.1054e-01	5.1945e-23	2.6593e-01	-1.3296e-01	-1.2369e-01	1.0527e-01	-2.7694e-02	2.3823e-01	1.0527e-01	-1.0527e-01	9.2771e-03	2.5665e-01
0.178       	2.1073e-01	5.2163e-23	2.6398e-01	-1.3199e-01	-1.2250e-01	1.0536e-01	-2.6627e-02	2.3736e-01	1.0536e-01	-1.0536e-01	9.4965e-03	2.5449e-01
0.179       	2.1106e-01	5.2296e-23	2.6345e-01	-1.3173e-01	-1.2190e-01	1.0553e-01	-2.6195e-02	2.3726e-01	1.0553e-01	-1.0553e-01	9.8243e-03	2.5363e-01
0.18        	2.1156e-01	5.2341e-23	2.6452e-01	-1.3226e-01	-1.2202e-01	1.0578e-01	-2.6477e-02	2.3804e-01	1.0578e-01	-1.0578e-01	1.0238e-02	2.5428e-01
0.181       	2.1218e-01	5.2288e-23	2.6719e-01	-1.3359e-01	-1.2291e-01	1.0609e-01	-2.7504e-02	2.3968e-01	1.0609e-01	-1.0609e-01	1.0682e-02	2.5650e-01
0.182       	2.1289e-01	5.2157e-23	2.7122e-01	-1.3561e-01	-1.2450e-01	1.0644e-01	-2.9169e-02	2.4206e-01	1.0644e-01	-1.0644e-01	1.1110e-02	2.6011e-01
0.183       	2.1359e-01	5.1974e-23	2.7603e-01	-1.3802e-01	-1.2655e-01	1.0679e-01	-3.1222e-02	2.4481e-01	1.0679e-01	-1.0679e-01	1.1463e-02	2.6457e-01
0.184       	2.1427e-01	5.1771e-23	2.8118e-01	-1.4059e-01	-1.2887e-01	1.0714e-01	-3.3453e-02	2.4772e-01	1.0714e-01	-1.0714e-01	1.1723e-02	2.6945e-01
0.185       	2.1487e-01	5.1576e-23	2.8609e-01	-1.4304e-01	-1.3117e-01	1.0743e-01	-3.5609e-02	2.5048e-01	1.0743e-01	-1.0743e-01	1.1877e-02	2.7421e-01
0.186       	2.1539e-01	5.1409e-23	2.9055e-01	-1.4528e-01	-1.3334e-01	1.0770e-01	-3.7581e-02	2.5297e-01	1.0770e-01	-1.0770e-01	1.1932e-02	2.7862e-01
0.187       	2.1581e-01	5.1290e-23	2.9417e-01	-1.4709e-01	-1.3519e-01	1.0790e-01	-3.9183e-02	2.5499e-01	1.0790e-01	-1.0790e-01	1.1897e-02	2.8228e-01
0.188       	2.1613e-01	5.1240e-23	2.9673e-01	-1.4836e-01	-1.3658e-01	1.0806e-01	-4.0300e-02	2.5643e-01	1.0806e-01	-1.0806e-01	1.1781e-02	2.8494e-01
0.189       	2.1632e-01	5.1270e-23	2.9789e-01	-1.4894e-01	-1.3733e-01	1.0816e-01	-4.0785e-02	2.5710e-01	1.0816e-01	-1.0816e-01	1.1614e-02	2.8628e-01
0.19        	2.1641e-01	5.1389e-23	2.9758e-01	-1.4879e-01	-1.3737e-01	1.0821e-01	-4.0583e-02	2.5699e-01	1.0821e-01	-1.0821e-01	1.1421e-02	2.8616e-01
0.191       	2.1641e-01	5.1577e-23	2.9594e-01	-1.4797e-01	-1.3672e-01	1.0820e-01	-3.9768e-02	2.5618e-01	1.0820e-01	-1.0820e-01	1.1247e-02	2.8470e-01
0.192       	2.1636e-01	5.1826e-23	2.9325e-01	-1.4662e-01	-1.3551e-01	1.0818e-01	-3.8445e-02	2.5480e-01	1.0818e-01	-1.0818e-01	1.1115e-02	2.8213e-01
0.193       	2.1629e-01	5.2098e-23	2.9000e-01	-1.4500e-01	-1.3395e-01	1.0814e-01	-3.6855e-02	2.5314e-01	1.0814e-01	-1.0814e-01	1.1051e-02	2.7895e-01
0.194       	2.1624e-01	5.2386e-23	2.8646e-01	-1.4323e-01	-1.3217e-01	1.0812e-01	-3.5113e-02	2.5135e-01	1.0812e-01	-1.0812e-01	1.1059e-02	2.7541e-01
0.195       	2.1624e-01	5.2658e-23	2.8316e-01	-1.4158e-01	-1.3043e-01	1.0812e-01	-3.3460e-02	2.4970e-01	1.0812e-01	-1.0812e-01	1.1147e-02	2.7201e-01
0.196       	2.1633e-01	5.2907e-23	2.8033e-01	-1.4016e-01	-1.2885e-01	1.0816e-01	-3.1999e-02	2.4833e-01	1.0816e-01	-1.0816e-01	1.1313e-02	2.6901e-01