# Force coefficients
# dragDir   : (1.0000e+00 0.0000e+00 0.0000e+00)
# sideDir   : (0.0000e+00 0.0000e+00 -1.0000e+00)
# liftDir   : (0.0000e+00 1.0000e+00 0.0000e+00)
# rollAxis  : (1.0000e+00 0.0000e+00 0.0000e+00)
# pitchAxis : (0.0000e+00 0.0000e+00 -1.0000e+00)
# yawAxis   : (0.0000e+00 1.0000e+00 0.0000e+00)
# magUInf   : 1.0000e+00
# lRef      : 1.0000e+00
# Aref      : 1.0000e+00
# CofR      : (0.0000e+00 0.0000e+00 0.0000e+00)
#
# Time      	Cd          	Cs          	Cl          	CmRoll      	CmPitch     	CmYaw       	Cd(f)       	Cd(r)       	Cs(f)       	Cs(r)       	Cl(f)       	Cl(r)       
0.001       	1.4165e+01	9.5510e-20	2.2905e+01	-1.1452e+01	-1.2327e+01	7.0826e+00	-4.3698e+00	1.8535e+01	7.0826e+00	-7.0826e+00	-8.7432e-01	2.3779e+01
0.002       	3.3678e+01	-2.0707e-19	1.0384e+02	-5.1920e+01	-6.1611e+01	1.6839e+01	-3.5081e+01	6.8759e+01	1.6839e+01	-1.6839e+01	-9.6911e+00	1.1353e+02
0.003       	-2.5788e+00	-1.4445e-19	-1.1801e+01	5.9006e+00	1.1214e+01	-1.2894e+00	4.6112e+00	-7.1900e+00	-1.2894e+00	1.2894e+00	5.3137e+00	-1.7115e+01
0.004       	-3.4393e+01	1.0525e-20	-1.2033e+02	6.0164e+01	7.2263e+01	-1.7196e+01	4.2967e+01	-7.7360e+01	-1.7196e+01	1.7196e+01	1.2099e+01	-1.3243e+02
0.005       	-3.2320e+01	7.7852e-20	-1.0222e+02	5.1109e+01	5.8928e+01	-1.6160e+01	3.4949e+01	-6.7269e+01	-1.6160e+01	1.6160e+01	7.8194e+00	-1.1004e+02
0.006       	-2.1914e+01	8.8834e-20	-6.4233e+01	3.2117e+01	3.8593e+01	-1.0957e+01	2.1160e+01	-4.3073e+01	-1.0957e+01	1.0957e+01	6.4770e+00	-7.0710e+01
0.007       	1.0393e+01	1.8237e-20	3.3073e+01	-1.6537e+01	-2.0063e+01	5.1967e+00	-1.1340e+01	2.1733e+01	5.1967e+00	-5.1967e+00	-3.5262e+00	3.6599e+01
0.008       	1.9048e+01	-5.3911e-20	5.4579e+01	-2.7289e+01	-2.7423e+01	9.5238e+00	-1.7766e+01	3.6813e+01	9.5238e+00	-9.5238e+00	-1.3319e-01	5.4712e+01
0.009       	1.4806e+01	-5.8616e-20	4.0011e+01	-2.0005e+01	-1.9488e+01	7.4030e+00	-1.2602e+01	2.7408e+01	7.4030e+00	-7.4030e+00	5.1700e-01	3.9494e+01
0.01        	-1.1582e+01	-2.1845e-20	-3.9336e+01	1.9668e+01	2.3868e+01	-5.7909e+00	1.3877e+01	-2.5459e+01	-5.7909e+00	5.7909e+00	4.1998e+00	-4.3536e+01
0.011       	-1.8888e+01	2.2381e-20	-5.7936e+01	2.8968e+01	3.2383e+01	-9.4439e+00	1.9524e+01	-3.8412e+01	-9.4439e+00	9.4439e+00	3.4155e+00	-6.1351e+01
0.012       	-1.4515e+01	2.8105e-20	-4.2713e+01	2.1357e+01	2.3819e+01	-7.2577e+00	1.4099e+01	-2.8614e+01	-7.2577e+00	7.2577e+00	2.4618e+00	-4.5175e+01
0.013       	1.1494e+01	2.0481e-20	3.8795e+01	-1.9397e+01	-2.3479e+01	5.7468e+00	-1.3651e+01	2.5144e+01	5.7468e+00	-5.7468e+00	-4.0820e+00	4.2877e+01
0.014       	1.9282e+01	-3.6638e-21	6.0658e+01	-3.0329e+01	-3.5842e+01	9.6409e+00	-2.0688e+01	3.9970e+01	9.6409e+00	-9.6409e+00	-5.5134e+00	6.6171e+01
0.015       	1.1230e+01	-1.3105e-20	3.3555e+01	-1.6777e+01	-2.0081e+01	5.6152e+00	-1.1162e+01	2.2393e+01	5.6152e+00	-5.6152e+00	-3.3031e+00	3.6858e+01
0.016       	-9.3821e+00	-1.6662e-20	-3.2729e+01	1.6365e+01	1.9961e+01	-4.6911e+00	1.1674e+01	-2.1056e+01	-4.6911e+00	4.6911e+00	3.5961e+00	-3.6326e+01
0.017       	-1.5061e+01	-4.6971e-21	-4.9100e+01	2.4550e+01	3.0043e+01	-7.5307e+00	1.7019e+01	-3.2081e+01	-7.5307e+00	7.5307e+00	5.4931e+00	-5.4593e+01
0.018       	-7.0975e+00	4.8684e-21	-2.2157e+01	1.1079e+01	1.4069e+01	-3.5487e+00	7.5298e+00	-1.4627e+01	-3.5487e+00	3.5487e+00	2.9905e+00	-2.5148e+01
0.019       	7.3072e+00	1.2034e-20	2.4900e+01	-1.2450e+01	-1.5190e+01	3.6536e+00	-8.7966e+00	1.6104e+01	3.6536e+00	-3.6536e+00	-2.7396e+00	2.7640e+01
0.02        	1.1243e+01	6.4572e-21	3.6448e+01	-1.8224e+01	-2.2963e+01	5.6217e+00	-1.2603e+01	2.3846e+01	5.6217e+00	-5.6217e+00	-4.7389e+00	4.1187e+01
0.021       	4.5924e+00	-1.7217e-21	1.3812e+01	-6.9060e+00	-9.3349e+00	2.2962e+00	-4.6098e+00	9.2022e+00	2.2962e+00	-2.2962e+00	-2.4288e+00	1.6241e+01
0.022       	-3.2510e+00	-7.6451e-21	-1.1915e+01	5.9573e+00	7.0379e+00	-1.6255e+00	4.3318e+00	-7.5828e+00	-1.6255e+00	1.6255e+00	1.0806e+00	-1.2995e+01
0.023       	-7.4292e+00	-6.4549e-21	-2.4920e+01	1.2460e+01	1.6185e+01	-3.7146e+00	8.7455e+00	-1.6175e+01	-3.7146e+00	3.7146e+00	3.7252e+00	-2.8645e+01
0.024       	-3.2931e+00	9.5217e-23	-1.0655e+01	5.3277e+00	7.5100e+00	-1.6465e+00	3.6812e+00	-6.9743e+00	-1.6465e+00	1.6465e+00	2.1823e+00	-1.2838e+01
0.025       	1.5608e+00	4.1488e-21	5.2596e+00	-2.6298e+00	-2.8552e+00	7.8041e-01	-1.8494e+00	3.4102e+00	7.8041e-01	-7.8041e-01	-2.2535e-01	5.4850e+00
0.026       	4.9750e+00	4.3905e-21	1.6080e+01	-8.0401e+00	-1.0540e+01	2.4875e+00	-5.5526e+00	1.0528e+01	2.4875e+00	-2.4875e+00	-2.5001e+00	1.8580e+01
0.027       	2.9724e+00	3.7057e-22	9.0685e+00	-4.5342e+00	-6.4347e+00	1.4862e+00	-3.0480e+00	6.0204e+00	1.4862e+00	-1.4862e+00	-1.9005e+00	1.0969e+01
0.028       	-4.5212e-02	-2.3134e-21	-8.8022e-01	4.4011e-01	1.8006e-01	-2.2606e-02	4.1750e-01	-4.6272e-01	-2.2606e-02	2.2606e-02	-2.6005e-01	-6.2017e-01
0.029       	-2.9263e+00	-3.1207e-21	-1.0103e+01	5.0516e+00	6.7856e+00	-1.4631e+00	3.5885e+00	-6.5148e+00	-1.4631e+00	1.4631e+00	1.7339e+00	-1.1837e+01
0.03        	-2.0489e+00	-9.1849e-22	-6.9556e+00	3.4778e+00	5.0198e+00	-1.0244e+00	2.4534e+00	-4.5022e+00	-1.0244e+00	1.0244e+00	1.5420e+00	-8.4976e+00
0.031       	-1.2411e-02	9.4975e-22	-2.2349e-01	1.1175e-01	4.5891e-01	-6.2057e-03	1.0554e-01	-1.1795e-01	-6.2057e-03	6.2057e-03	3.4716e-01	-5.7065e-01
0.032       	2.1962e+00	1.9992e-21	6.9434e+00	-3.4717e+00	-4.6507e+00	1.0981e+00	-2.3736e+00	4.5698e+00	1.0981e+00	-1.0981e+00	-1.1790e+00	8.1224e+00
0.033       	1.9487e+00	9.8788e-22	5.9110e+00	-2.9555e+00	-4.1782e+00	9.7433e-01	-1.9812e+00	3.9298e+00	9.7433e-01	-9.7433e-01	-1.2227e+00	7.1337e+00
0.034       	4.5166e-01	-4.4084e-22	9.6415e-01	-4.8208e-01	-8.2528e-01	2.2583e-01	-2.5624e-01	7.0791e-01	2.2583e-01	-2.2583e-01	-3.4321e-01	1.3074e+00
0.035       	-1.0711e+00	-1.4381e-21	-3.9738e+00	1.9869e+00	2.7122e+00	-5.3555e-01	1.4513e+00	-2.5225e+00	-5.3555e-01	5.3555e-01	7.2530e-01	-4.6991e+00
0.036       	-1.0581e+00	-9.7839e-22	-3.7910e+00	1.8955e+00	2.7613e+00	-5.2904e-01	1.3664e+00	-2.4245e+00	-5.2904e-01	5.2904e-01	8.6577e-01	-4.6567e+00
0.037       	4.5503e-02	1.3932e-22	-1.2452e-01	6.2262e-02	2.7588e-01	2.2751e-02	8.5013e-02	-3.9510e-02	2.2751e-02	-2.2751e-02	2.1361e-01	-3.3814e-01
0.038       	8.8338e-01	8.3041e-22	2.5653e+00	-1.2827e+00	-1.6920e+00	4.4169e-01	-8.4097e-01	1.7244e+00	4.4169e-01	-4.4169e-01	-4.0933e-01	2.9747e+00
0.039       	9.5479e-01	6.8324e-22	2.7004e+00	-1.3502e+00	-1.9227e+00	4.7740e-01	-8.7281e-01	1.8276e+00	4.7740e-01	-4.7740e-01	-5.7249e-01	3.2729e+00
0.04        	3.1375e-01	-2.4625e-23	5.6771e-01	-2.8386e-01	-4.7007e-01	1.5688e-01	-1.2698e-01	4.4073e-01	1.5688e-01	-1.5688e-01	-1.8621e-01	7.5393e-01
0.041       	-6.3868e-03	-3.4251e-22	-4.4068e-01	2.2034e-01	2.8945e-01	-3.1934e-03	2.1715e-01	-2.2353e-01	-3.1934e-03	3.1934e-03	6.9113e-02	-5.0979e-01
0.042       	-3.0693e-01	-5.1031e-22	-1.3469e+00	6.7343e-01	1.0409e+00	-1.5346e-01	5.1997e-01	-8.2690e-01	-1.5346e-01	1.5346e-01	3.6744e-01	-1.7143e+00
0.043       	-6.5656e-02	-1.7848e-22	-5.3363e-01	2.6682e-01	5.0555e-01	-3.2828e-02	2.3399e-01	-2.9964e-01	-3.2828e-02	3.2828e-02	2.3874e-01	-7.7237e-01
0.044       	1.7163e-01	6.6841e-23	2.1606e-01	-1.0803e-01	-6.4069e-02	8.5815e-02	-2.2216e-02	1.9385e-01	8.5815e-02	-8.5815e-02	4.3962e-02	1.7210e-01
0.045       	4.8070e-01	3.3493e-22	1.1763e+00	-5.8817e-01	-8.2311e-01	2.4035e-01	-3.4782e-01	8.2852e-01	2.4035e-01	-2.4035e-01	-2.3494e-01	1.4113e+00
0.046       	4.7559e-01	2.8031e-22	1.1302e+00	-5.6510e-01	-8.2637e-01	2.3779e-01	-3.2730e-01	8.0289e-01	2.3779e-01	-2.3779e-01	-2.6128e-01	1.3915e+00
0.047       	2.4948e-01	3.3608e-23	4.1054e-01	-2.0527e-01	-2.8692e-01	1.2474e-01	-8.0530e-02	3.3001e-01	1.2474e-01	-1.2474e-01	-8.1645e-02	4.9219e-01
0.048       	7.7931e-02	-1.4464e-22	-1.2304e-01	6.1521e-02	1.3764e-01	3.8966e-02	1.0049e-01	-2.2555e-02	3.8966e-02	-3.8966e-02	7.6116e-02	-1.9916e-01
0.049       	-1.7356e-02	-2.1724e-22	-4.0440e-01	2.0220e-01	3.7446e-01	-8.6778e-03	1.9352e-01	-2.1088e-01	-8.6778e-03	8.6778e-03	1.7226e-01	-5.7666e-01
0.05        	9.2488e-02	-7.5628e-23	-5.1359e-02	2.5680e-02	1.1132e-01	4.6244e-02	7.1924e-02	2.0565e-02	4.6244e-02	-4.6244e-02	8.5645e-02	-1.3700e-01
0.051       	1.6046e-01	4.3398e-25	1.6013e-01	-8.0065e-02	-5.4761e-02	8.0231e-02	1.6651e-04	1.6030e-01	8.0231e-02	-8.0231e-02	2.5304e-02	1.3483e-01
0.052       	2.2163e-01	7.2297e-23	3.4454e-01	-1.7227e-01	-2.0673e-01	1.1082e-01	-6.1452e-02	2.8308e-01	1.1082e-01	-1.1082e-01	-3.4459e-02	3.7900e-01
0.053       	3.3468e-01	1.9785e-22	6.8527e-01	-3.4263e-01	-4.8416e-01	1.6734e-01	-1.7529e-01	5.0998e-01	1.6734e-01	-1.6734e-01	-1.4153e-01	8.2680e-01
0.054       	3.1988e-01	1.7943e-22	6.3521e-01	-3.1760e-01	-4.4597e-01	1.5994e-01	-1.5767e-01	4.7754e-01	1.5994e-01	-1.5994e-01	-1.2837e-01	7.6357e-01
0.055       	2.5108e-01	9.5312e-23	4.2486e-01	-2.1243e-01	-2.7437e-01	1.2554e-01	-8.6894e-02	3.3797e-01	1.2554e-01	-1.2554e-01	-6.1936e-02	4.8680e-01
0.056       	1.7418e-01	-8.5975e-25	1.9351e-01	-9.6755e-02	-8.4370e-02	8.7089e-02	-9.6652e-03	1.8384e-01	8.7089e-02	-8.7089e-02	1.2384e-02	1.8113e-01
0.057       	1.1952e-01	-6.9101e-23	2.9107e-02	-1.4554e-02	4.8241e-02	5.9759e-02	4.5206e-02	7.4313e-02	5.9759e-02	-5.9759e-02	6.2795e-02	-3.3688e-02
0.058       	9.3276e-02	-9.6039e-23	-5.3143e-02	2.6572e-02	1.0712e-01	4.6638e-02	7.3210e-02	2.0067e-02	4.6638e-02	-4.6638e-02	8.0546e-02	-1.3369e-01
0.059       	1.4001e-01	-2.4915e-23	8.3953e-02	-4.1977e-02	-1.0766e-02	7.0006e-02	2.8029e-02	1.1198e-01	7.0006e-02	-7.0006e-02	3.1210e-02	5.2743e-02
0.06        	1.7839e-01	2.6831e-23	1.9881e-01	-9.9403e-02	-1.0371e-01	8.9194e-02	-1.0209e-02	1.8860e-01	8.9194e-02	-8.9194e-02	-4.3066e-03	2.0311e-01
0.061       	2.0601e-01	6.2844e-23	2.8340e-01	-1.4170e-01	-1.6896e-01	1.0301e-01	-3.8695e-02	2.4471e-01	1.0301e-01	-1.0301e-01	-2.7263e-02	3.1067e-01
0.062       	2.2157e-01	8.2190e-23	3.3262e-01	-1.6631e-01	-2.0455e-01	1.1079e-01	-5.5521e-02	2.7710e-01	1.1079e-01	-1.1079e-01	-3.8239e-02	3.7086e-01
0.063       	2.2811e-01	8.9157e-23	3.5462e-01	-1.7731e-01	-2.1833e-01	1.1405e-01	-6.3254e-02	2.9136e-01	1.1405e-01	-1.1405e-01	-4.1025e-02	3.9564e-01
0.064       	2.2944e-01	8.8492e-23	3.6084e-01	-1.8042e-01	-2.1939e-01	1.1472e-01	-6.5702e-02	2.9514e-01	1.1472e-01	-1.1472e-01	-3.8969e-02	3.9981e-01
0.065       	2.2589e-01	8.0126e-23	3.5239e-01	-1.7620e-01	-2.0813e-01	1.1294e-01	-6.3252e-02	2.8914e-01	1.1294e-01	-1.1294e-01	-3.1931e-02	3.8432e-01
0.066       	2.1517e-01	6.1471e-23	3.2165e-01	-1.6083e-01	-1.7933e-01	1.0758e-01	-5.3243e-02	2.6841e-01	1.0758e-01	-1.0758e-01	-1.8508e-02	3.4016e-01
0.067       	1.9819e-01	3.5975e-23	2.7006e-01	-1.3503e-01	-1.3672e-01	9.9094e-02	-3.5937e-02	2.3412e-01	9.9094e-02	-9.9094e-02	-1.6921e-03	2.7175e-01
0.068       	1.8195e-01	1.4908e-23	2.1870e-01	-1.0935e-01	-9.8314e-02	9.0974e-02	-1.8377e-02	2.0032e-01	9.0974e-02	-9.0974e-02	1.1036e-02	2.0766e-01
0.069       	1.6967e-01	2.9865e-24	1.7768e-01	-8.8842e-02	-7.1688e-02	8.4836e-02	-4.0058e-03	1.7368e-01	8.4836e-02	-8.4836e-02	1.7154e-02	1.6053e-01
0.07        	1.6428e-01	6.0844e-24	1.5507e-01	-7.7534e-02	-6.4020e-02	8.2139e-02	4.6053e-03	1.5967e-01	8.2139e-02	-8.2139e-02	1.3513e-02	1.4155e-01
0.071       	1.7531e-01	2.9772e-23	1.8446e-01	-9.2228e-02	-9.2916e-02	8.7656e-02	-4.5718e-03	1.7988e-01	8.7656e-02	-8.7656e-02	-6.8861e-04	1.8514e-01
0.072       	1.9302e-01	5.5257e-23	2.3854e-01	-1.1927e-01	-1.3317e-01	9.6510e-02	-2.2759e-02	2.1578e-01	9.6510e-02	-9.6510e-02	-1.3898e-02	2.5244e-01
0.073       	2.0453e-01	6.8491e-23	2.7577e-01	-1.3788e-01	-1.5781e-01	1.0226e-01	-3.5621e-02	2.4015e-01	1.0226e-01	-1.0226e-01	-1.9928e-02	2.9570e-01
0.074       	2.0815e-01	7.1718e-23	2.8821e-01	-1.4411e-01	-1.6510e-01	1.0408e-01	-4.0032e-02	2.4818e-01	1.0408e-01	-1.0408e-01	-2.0997e-02	3.0921e-01
0.075       	2.0962e-01	7.2307e-23	2.9376e-01	-1.4688e-01	-1.6764e-01	1.0481e-01	-4.2073e-02	2.5169e-01	1.0481e-01	-1.0481e-01	-2.0754e-02	3.1452e-01
0.076       	2.1047e-01	7.1376e-23	2.9774e-01	-1.4887e-01	-1.6840e-01	1.0524e-01	-4.3632e-02	2.5411e-01	1.0524e-01	-1.0524e-01	-1.9529e-02	3.1727e-01
0.077       	2.1056e-01	6.8370e-23	2.9969e-01	-1.4984e-01	-1.6686e-01	1.0528e-01	-4.4565e-02	2.5512e-01	1.0528e-01	-1.0528e-01	-1.7014e-02	3.1670e-01
0.078       	2.0945e-01	6.2878e-23	2.9804e-01	-1.4902e-01	-1.6219e-01	1.0472e-01	-4.4294e-02	2.5374e-01	1.0472e-01	-1.0472e-01	-1.3175e-02	3.1121e-01
0.079       	2.0686e-01	5.5475e-23	2.9143e-01	-1.4572e-01	-1.5436e-01	1.0343e-01	-4.2284e-02	2.4915e-01	1.0343e-01	-1.0343e-01	-8.6465e-03	3.0008e-01
0.08        	2.0312e-01	4.8109e-23	2.8028e-01	-1.4014e-01	-1.4483e-01	1.0156e-01	-3.8577e-02	2.4170e-01	1.0156e-01	-1.0156e-01	-4.6911e-03	2.8497e-01
0.081       	1.9914e-01	4.3071e-23	2.6716e-01	-1.3358e-01	-1.3598e-01	9.9569e-02	-3.4009e-02	2.3315e-01	9.9569e-02	-9.9569e-02	-2.4009e-03	2.6956e-01
0.082       	1.9576e-01	4.1274e-23	2.5481e-01	-1.2740e-01	-1.2933e-01	9.7879e-02	-2.9525e-02	2.2528e-01	9.7879e-02	-9.7879e-02	-1.9301e-03	2.5674e-01
0.083       	1.9331e-01	4.2786e-23	2.4420e-01	-1.2210e-01	-1.2519e-01	9.6655e-02	-2.5447e-02	2.1876e-01	9.6655e-02	-9.6655e-02	-3.0877e-03	2.4729e-01
0.084       	1.9255e-01	4.8210e-23	2.3760e-01	-1.1880e-01	-1.2473e-01	9.6273e-02	-2.2527e-02	2.1507e-01	9.6273e-02	-9.6273e-02	-5.9282e-03	2.4353e-01
0.085       	1.9459e-01	5.7064e-23	2.3947e-01	-1.1974e-01	-1.2964e-01	9.7295e-02	-2.2442e-02	2.1703e-01	9.7295e-02	-9.7295e-02	-9.8999e-03	2.4937e-01
0.086       	1.9918e-01	6.5930e-23	2.5115e-01	-1.2558e-01	-1.3893e-01	9.9589e-02	-2.5988e-02	2.2517e-01	9.9589e-02	-9.9589e-02	-1.3354e-02	2.6451e-01
0.087       	2.0397e-01	7.1188e-23	2.6627e-01	-1.3313e-01	-1.4818e-01	1.0199e-01	-3.1146e-02	2.3512e-01	1.0199e-01	-1.0199e-01	-1.5051e-02	2.8132e-01
0.088       	2.0707e-01	7.2763e-23	2.7745e-01	-1.3872e-01	-1.5404e-01	1.0354e-01	-3.5188e-02	2.4226e-01	1.0354e-01	-1.0354e-01	-1.5314e-02	2.9276e-01
0.089       	2.0878e-01	7.2552e-23	2.8444e-01	-1.4222e-01	-1.5718e-01	1.0439e-01	-3.7830e-02	2.4661e-01	1.0439e-01	-1.0439e-01	-1.4957e-02	2.9940e-01
0.09        	2.0988e-01	7.1429e-23	2.8962e-01	-1.4481e-01	-1.5908e-01	1.0494e-01	-3.9870e-02	2.4975e-01	1.0494e-01	-1.0494e-01	-1.4268e-02	3.0389e-01
0.091       	2.1062e-01	6.9466e-23	2.9386e-01	-1.4693e-01	-1.6018e-01	1.0531e-01	-4.1624e-02	2.5224e-01	1.0531e-01	-1.0531e-01	-1.3252e-02	3.0712e-01
0.092       	2.1093e-01	6.6678e-23	2.9686e-01	-1.4843e-01	-1.6037e-01	1.0546e-01	-4.2969e-02	2.5389e-01	1.0546e-01	-1.0546e-01	-1.1938e-02	3.0880e-01
0.093       	2.1068e-01	6.3430e-23	2.9777e-01	-1.4889e-01	-1.5941e-01	1.0534e-01	-4.3547e-02	2.5423e-01	1.0534e-01	-1.0534e-01	-1.0519e-02	3.0829e-01
0.094       	2.0988e-01	6.0523e-23	2.9604e-01	-1.4802e-01	-1.5735e-01	1.0494e-01	-4.3080e-02	2.5296e-01	1.0494e-01	-1.0494e-01	-9.3294e-03	3.0536e-01
0.095       	2.0877e-01	5.8697e-23	2.9223e-01	-1.4612e-01	-1.5473e-01	1.0439e-01	-4.1729e-02	2.5050e-01	1.0439e-01	-1.0439e-01	-8.6148e-03	3.0085e-01
0.096       	2.0769e-01	5.8069e-23	2.8763e-01	-1.4381e-01	-1.5218e-01	1.0384e-01	-3.9970e-02	2.4766e-01	1.0384e-01	-1.0384e-01	-8.3641e-03	2.9599e-01
0.097       	2.0675e-01	5.8346e-23	2.8292e-01	-1.4146e-01	-1.4989e-01	1.0337e-01	-3.8090e-02	2.4483e-01	1.0337e-01	-1.0337e-01	-8.4325e-03	2.9136e-01
0.098       	2.0593e-01	5.9387e-23	2.7804e-01	-1.3902e-01	-1.4776e-01	1.0296e-01	-3.6054e-02	2.4198e-01	1.0296e-01	-1.0296e-01	-8.7469e-03	2.8678e-01
0.099       	2.0527e-01	6.1314e-23	2.7288e-01	-1.3644e-01	-1.4576e-01	1.0264e-01	-3.3802e-02	2.3907e-01	1.0264e-01	-1.0264e-01	-9.3231e-03	2.8220e-01
0.1         	2.0497e-01	6.4334e-23	2.6796e-01	-1.3398e-01	-1.4418e-01	1.0249e-01	-3.1493e-02	2.3647e-01	1.0249e-01	-1.0249e-01	-1.0200e-02	2.7816e-01
0.101       	2.0545e-01	6.8425e-23	2.6501e-01	-1.3251e-01	-1.4385e-01	1.0272e-01	-2.9781e-02	2.3523e-01	1.0272e-01	-1.0272e-01	-1.1343e-02	2.7635e-01
0.102       	2.0718e-01	7.2748e-23	2.6715e-01	-1.3357e-01	-1.4608e-01	1.0359e-01	-2.9983e-02	2.3716e-01	1.0359e-01	-1.0359e-01	-1.2504e-02	2.7965e-01
0.103       	2.0988e-01	7.5419e-23	2.7563e-01	-1.3781e-01	-1.5102e-01	1.0494e-01	-3.2874e-02	2.4275e-01	1.0494e-01	-1.0494e-01	-1.3205e-02	2.8883e-01
0.104       	2.1183e-01	7.5664e-23	2.8395e-01	-1.4197e-01	-1.5527e-01	1.0591e-01	-3.6061e-02	2.4789e-01	1.0591e-01	-1.0591e-01	-1.3298e-02	2.9725e-01
0.105       	2.1258e-01	7.5150e-23	2.8792e-01	-1.4396e-01	-1.5715e-01	1.0629e-01	-3.7666e-02	2.5025e-01	1.0629e-01	-1.0629e-01	-1.3193e-02	3.0111e-01
0.106       	2.1302e-01	7.4422e-23	2.9069e-01	-1.4534e-01	-1.5837e-01	1.0651e-01	-3.8833e-02	2.5185e-01	1.0651e-01	-1.0651e-01	-1.3031e-02	3.0372e-01
0.107       	2.1344e-01	7.3277e-23	2.9380e-01	-1.4690e-01	-1.5966e-01	1.0672e-01	-4.0181e-02	2.5362e-01	1.0672e-01	-1.0672e-01	-1.2757e-02	3.0656e-01
0.108       	2.1391e-01	7.1499e-23	2.9771e-01	-1.4885e-01	-1.6115e-01	1.0696e-01	-4.1899e-02	2.5581e-01	1.0696e-01	-1.0696e-01	-1.2299e-02	3.1001e-01
0.109       	2.1441e-01	6.9136e-23	3.0206e-01	-1.5103e-01	-1.6267e-01	1.0721e-01	-4.3823e-02	2.5824e-01	1.0721e-01	-1.0721e-01	-1.1637e-02	3.1370e-01
0.11        	2.1487e-01	6.6784e-23	3.0562e-01	-1.5281e-01	-1.6370e-01	1.0744e-01	-4.5372e-02	2.6025e-01	1.0744e-01	-1.0744e-01	-1.0895e-02	3.1651e-01
0.111       	2.1519e-01	6.5274e-23	3.0712e-01	-1.5356e-01	-1.6387e-01	1.0760e-01	-4.5963e-02	2.6116e-01	1.0760e-01	-1.0760e-01	-1.0309e-02	3.1743e-01
0.112       	2.1534e-01	6.4928e-23	3.0652e-01	-1.5326e-01	-1.6330e-01	1.0767e-01	-4.5590e-02	2.6093e-01	1.0767e-01	-1.0767e-01	-1.0040e-02	3.1656e-01
0.113       	2.1537e-01	6.5304e-23	3.0503e-01	-1.5251e-01	-1.6254e-01	1.0768e-01	-4.4830e-02	2.6020e-01	1.0768e-01	-1.0768e-01	-1.0029e-02	3.1506e-01
0.114       	2.1536e-01	6.5992e-23	3.0325e-01	-1.5163e-01	-1.6177e-01	1.0768e-01	-4.3948e-02	2.5931e-01	1.0768e-01	-1.0768e-01	-1.0142e-02	3.1340e-01
0.115       	2.1534e-01	6.7070e-23	3.0089e-01	-1.5045e-01	-1.6082e-01	1.0767e-01	-4.2777e-02	2.5811e-01	1.0767e-01	-1.0767e-01	-1.0379e-02	3.1127e-01
0.116       	2.1532e-01	6.8747e-23	2.9760e-01	-1.4880e-01	-1.5960e-01	1.0766e-01	-4.1138e-02	2.5646e-01	1.0766e-01	-1.0766e-01	-1.0800e-02	3.0840e-01
0.117       	2.1535e-01	7.1204e-23	2.9325e-01	-1.4663e-01	-1.5810e-01	1.0768e-01	-3.8950e-02	2.5430e-01	1.0768e-01	-1.0768e-01	-1.1476e-02	3.0473e-01
0.118       	2.1550e-01	7.4211e-23	2.8864e-01	-1.4432e-01	-1.5669e-01	1.0775e-01	-3.6570e-02	2.5207e-01	1.0775e-01	-1.0775e-01	-1.2367e-02	3.0101e-01
0.119       	2.1586e-01	7.6974e-23	2.8561e-01	-1.4280e-01	-1.5605e-01	1.0793e-01	-3.4873e-02	2.5073e-01	1.0793e-01	-1.0793e-01	-1.3244e-02	2.9885e-01
0.12        	2.1652e-01	7.8585e-23	2.8610e-01	-1.4305e-01	-1.5685e-01	1.0826e-01	-3.4792e-02	2.5131e-01	1.0826e-01	-1.0826e-01	-1.3796e-02	2.9990e-01
0.121       	2.1738e-01	7.8541e-23	2.9041e-01	-1.4520e-01	-1.5901e-01	1.0869e-01	-3.6515e-02	2.5389e-01	1.0869e-01	-1.0869e-01	-1.3807e-02	3.0421e-01
0.122       	2.1795e-01	7.7764e-23	2.9441e-01	-1.4721e-01	-1.6077e-01	1.0897e-01	-3.8232e-02	2.5618e-01	1.0897e-01	-1.0897e-01	-1.3563e-02	3.0797e-01
0.123       	2.1830e-01	7.6973e-23	2.9726e-01	-1.4863e-01	-1.6194e-01	1.0915e-01	-3.9480e-02	2.5778e-01	1.0915e-01	-1.0915e-01	-1.3314e-02	3.1057e-01
0.124       	2.1864e-01	7.6020e-23	3.0018e-01	-1.5009e-01	-1.6310e-01	1.0932e-01	-4.0773e-02	2.5941e-01	1.0932e-01	-1.0932e-01	-1.3010e-02	3.1319e-01
0.125       	2.1910e-01	7.4704e-23	3.0404e-01	-1.5202e-01	-1.6459e-01	1.0955e-01	-4.2472e-02	2.6157e-01	1.0955e-01	-1.0955e-01	-1.2574e-02	3.1661e-01
0.126       	2.1979e-01	7.2934e-23	3.0932e-01	-1.5466e-01	-1.6662e-01	1.0990e-01	-4.4763e-02	2.6456e-01	1.0990e-01	-1.0990e-01	-1.1956e-02	3.2128e-01
0.127       	2.2075e-01	7.1032e-23	3.1546e-01	-1.5773e-01	-1.6898e-01	1.1038e-01	-4.7356e-02	2.6811e-01	1.1038e-01	-1.1038e-01	-1.1246e-02	3.2671e-01
0.128       	2.2181e-01	6.9690e-23	3.2073e-01	-1.6036e-01	-1.7105e-01	1.1091e-01	-4.9459e-02	2.7127e-01	1.1091e-01	-1.1091e-01	-1.0684e-02	3.3141e-01
0.129       	2.2273e-01	6.9353e-23	3.2368e-01	-1.6184e-01	-1.7230e-01	1.1137e-01	-5.0474e-02	2.7321e-01	1.1137e-01	-1.1137e-01	-1.0463e-02	3.3414e-01
0.13        	2.2333e-01	6.9854e-23	3.2418e-01	-1.6209e-01	-1.7266e-01	1.1167e-01	-5.0421e-02	2.7376e-01	1.1167e-01	-1.1167e-01	-1.0570e-02	3.3475e-01
0.131       	2.2365e-01	7.0687e-23	3.2328e-01	-1.6164e-01	-1.7248e-01	1.1183e-01	-4.9815e-02	2.7347e-01	1.1183e-01	-1.1183e-01	-1.0836e-02	3.3412e-01
0.132       	2.2384e-01	7.1711e-23	3.2163e-01	-1.6081e-01	-1.7201e-01	1.1192e-01	-4.8896e-02	2.7273e-01	1.1192e-01	-1.1192e-01	-1.1198e-02	3.3283e-01
0.133       	2.2396e-01	7.3056e-23	3.1911e-01	-1.5955e-01	-1.7125e-01	1.1198e-01	-4.7575e-02	2.7153e-01	1.1198e-01	-1.1198e-01	-1.1701e-02	3.3081e-01
0.134       	2.2404e-01	7.4818e-23	3.1550e-01	-1.5775e-01	-1.7014e-01	1.1202e-01	-4.5731e-02	2.6977e-01	1.1202e-01	-1.1202e-01	-1.2392e-02	3.2789e-01
0.135       	2.2408e-01	7.6923e-23	3.1090e-01	-1.5545e-01	-1.6870e-01	1.1204e-01	-4.3409e-02	2.6749e-01	1.1204e-01	-1.1204e-01	-1.3253e-02	3.2415e-01
0.136       	2.2410e-01	7.8859e-23	3.0634e-01	-1.5317e-01	-1.6726e-01	1.1205e-01	-4.1120e-02	2.6522e-01	1.1205e-01	-1.1205e-01	-1.4087e-02	3.2042e-01
0.137       	2.2412e-01	8.0045e-23	3.0320e-01	-1.5160e-01	-1.6624e-01	1.1206e-01	-3.9541e-02	2.6366e-01	1.1206e-01	-1.1206e-01	-1.4637e-02	3.1783e-01
0.138       	2.2418e-01	8.0246e-23	3.0225e-01	-1.5112e-01	-1.6590e-01	1.1209e-01	-3.9035e-02	2.6321e-01	1.1209e-01	-1.1209e-01	-1.4777e-02	3.1702e-01
0.139       	2.2432e-01	7.9685e-23	3.0326e-01	-1.5163e-01	-1.6620e-01	1.1216e-01	-3.9470e-02	2.6379e-01	1.1216e-01	-1.1216e-01	-1.4575e-02	3.1783e-01
0.14        	2.2454e-01	7.8704e-23	3.0556e-01	-1.5278e-01	-1.6695e-01	1.1227e-01	-4.0510e-02	2.6505e-01	1.1227e-01	-1.1227e-01	-1.4170e-02	3.1973e-01
0.141       	2.2488e-01	7.7436e-23	3.0893e-01	-1.5446e-01	-1.6808e-01	1.1244e-01	-4.2025e-02	2.6690e-01	1.1244e-01	-1.1244e-01	-1.3617e-02	3.2254e-01
0.142       	2.2537e-01	7.5913e-23	3.1342e-01	-1.5671e-01	-1.6964e-01	1.1268e-01	-4.4028e-02	2.6940e-01	1.1268e-01	-1.1268e-01	-1.2926e-02	3.2635e-01
0.143       	2.2609e-01	7.4221e-23	3.1919e-01	-1.5960e-01	-1.7171e-01	1.1305e-01	-4.6551e-02	2.7264e-01	1.1305e-01	-1.1305e-01	-1.2115e-02	3.3131e-01
0.144       	2.2704e-01	7.2724e-23	3.2556e-01	-1.6278e-01	-1.7412e-01	1.1352e-01	-4.9260e-02	2.7630e-01	1.1352e-01	-1.1352e-01	-1.1336e-02	3.3689e-01
0.145       	2.2812e-01	7.1884e-23	3.3133e-01	-1.6567e-01	-1.7647e-01	1.1406e-01	-5.1606e-02	2.7973e-01	1.1406e-01	-1.1406e-01	-1.0799e-02	3.4213e-01
0.146       	2.2911e-01	7.1943e-23	3.3514e-01	-1.6757e-01	-1.7823e-01	1.1455e-01	-5.3017e-02	2.8212e-01	1.1455e-01	-1.1455e-01	-1.0663e-02	3.4580e-01
0.147       	2.2989e-01	7.2714e-23	3.3684e-01	-1.6842e-01	-1.7929e-01	1.1495e-01	-5.3471e-02	2.8336e-01	1.1495e-01	-1.1495e-01	-1.0876e-02	3.4771e-01
0.148       	2.3046e-01	7.3848e-23	3.3693e-01	-1.6847e-01	-1.7977e-01	1.1523e-01	-5.3236e-02	2.8370e-01	1.1523e-01	-1.1523e-01	-1.1303e-02	3.4824e-01
0.149       	2.3093e-01	7.5268e-23	3.3595e-01	-1.6798e-01	-1.7987e-01	1.1546e-01	-5.2513e-02	2.8344e-01	1.1546e-01	-1.1546e-01	-1.1896e-02	3.4785e-01
0.15        	2.3133e-01	7.6939e-23	3.3406e-01	-1.6703e-01	-1.7968e-01	1.1567e-01	-5.1363e-02	2.8269e-01	1.1567e-01	-1.1567e-01	-1.2651e-02	3.4671e-01
0.151       	2.3171e-01	7.8852e-23	3.3127e-01	-1.6563e-01	-1.7921e-01	1.1586e-01	-4.9777e-02	2.8149e-01	1.1586e-01	-1.1586e-01	-1.3573e-02	3.4484e-01
0.152       	2.3203e-01	8.0652e-23	3.2803e-01	-1.6402e-01	-1.7854e-01	1.1602e-01	-4.8002e-02	2.8003e-01	1.1602e-01	-1.1602e-01	-1.4520e-02	3.4255e-01
0.153       	2.3228e-01	8.1982e-23	3.2498e-01	-1.6249e-01	-1.7780e-01	1.1614e-01	-4.6352e-02	2.7863e-01	1.1614e-01	-1.1614e-01	-1.5313e-02	3.4029e-01
0.154       	2.3241e-01	8.2463e-23	3.2298e-01	-1.6149e-01	-1.7723e-01	1.1620e-01	-4.5286e-02	2.7769e-01	1.1620e-01	-1.1620e-01	-1.5737e-02	3.3872e-01
0.155       	2.3247e-01	8.2197e-23	3.2217e-01	-1.6109e-01	-1.7688e-01	1.1623e-01	-4.4854e-02	2.7732e-01	1.1623e-01	-1.1623e-01	-1.5790e-02	3.3796e-01
0.156       	2.3248e-01	8.1430e-23	3.2238e-01	-1.6119e-01	-1.7676e-01	1.1624e-01	-4.4947e-02	2.7743e-01	1.1624e-01	-1.1624e-01	-1.5568e-02	3.3795e-01
0.157       	2.3250e-01	8.0264e-23	3.2341e-01	-1.6170e-01	-1.7683e-01	1.1625e-01	-4.5453e-02	2.7796e-01	1.1625e-01	-1.1625e-01	-1.5121e-02	3.3853e-01
0.158       	2.3255e-01	7.8741e-23	3.2526e-01	-1.6263e-01	-1.7710e-01	1.1627e-01	-4.6356e-02	2.7890e-01	1.1627e-01	-1.1627e-01	-1.4467e-02	3.3973e-01
0.159       	2.3268e-01	7.6829e-23	3.2817e-01	-1.6408e-01	-1.7765e-01	1.1634e-01	-4.7741e-02	2.8043e-01	1.1634e-01	-1.1634e-01	-1.3566e-02	3.4173e-01
0.16        	2.3295e-01	7.4844e-23	3.3189e-01	-1.6594e-01	-1.7849e-01	1.1648e-01	-4.9468e-02	2.8242e-01	1.1648e-01	-1.1648e-01	-1.2547e-02	3.4444e-01
0.161       	2.3343e-01	7.3121e-23	3.3620e-01	-1.6810e-01	-1.7964e-01	1.1672e-01	-5.1383e-02	2.8482e-01	1.1672e-01	-1.1672e-01	-1.1542e-02	3.4774e-01
0.162       	2.3405e-01	7.2213e-23	3.3998e-01	-1.6999e-01	-1.8086e-01	1.1703e-01	-5.2964e-02	2.8702e-01	1.1703e-01	-1.1703e-01	-1.0871e-02	3.5085e-01
0.163       	2.3479e-01	7.2221e-23	3.4288e-01	-1.7144e-01	-1.8206e-01	1.1739e-01	-5.4045e-02	2.8883e-01	1.1739e-01	-1.1739e-01	-1.0618e-02	3.5350e-01
0.164       	2.3547e-01	7.2929e-23	3.4448e-01	-1.7224e-01	-1.8301e-01	1.1773e-01	-5.4508e-02	2.8998e-01	1.1773e-01	-1.1773e-01	-1.0769e-02	3.5525e-01
0.165       	2.3617e-01	7.4167e-23	3.4525e-01	-1.7262e-01	-1.8385e-01	1.1808e-01	-5.4540e-02	2.9071e-01	1.1808e-01	-1.1808e-01	-1.1223e-02	3.5647e-01
0.166       	2.3686e-01	7.5761e-23	3.4534e-01	-1.7267e-01	-1.8459e-01	1.1843e-01	-5.4239e-02	2.9110e-01	1.1843e-01	-1.1843e-01	-1.1918e-02	3.5726e-01
0.167       	2.3768e-01	7.7833e-23	3.4492e-01	-1.7246e-01	-1.8537e-01	1.1884e-01	-5.3620e-02	2.9130e-01	1.1884e-01	-1.1884e-01	-1.2906e-02	3.5782e-01
0.168       	2.3852e-01	8.0062e-23	3.4412e-01	-1.7206e-01	-1.8612e-01	1.1926e-01	-5.2796e-02	2.9132e-01	1.1926e-01	-1.1926e-01	-1.4065e-02	3.5818e-01
0.169       	2.3940e-01	8.2252e-23	3.4313e-01	-1.7157e-01	-1.8687e-01	1.1970e-01	-5.1867e-02	2.9127e-01	1.1970e-01	-1.1970e-01	-1.5300e-02	3.5843e-01
0.17        	2.4009e-01	8.3742e-23	3.4237e-01	-1.7119e-01	-1.8744e-01	1.2005e-01	-5.1140e-02	2.9123e-01	1.2005e-01	-1.2005e-01	-1.6258e-02	3.5863e-01
0.171       	2.4059e-01	8.4411e-23	3.4202e-01	-1.7101e-01	-1.8784e-01	1.2029e-01	-5.0716e-02	2.9130e-01	1.2029e-01	-1.2029e-01	-1.6827e-02	3.5885e-01
0.172       	2.4083e-01	8.4260e-23	3.4213e-01	-1.7107e-01	-1.8802e-01	1.2042e-01	-5.0649e-02	2.9148e-01	1.2042e-01	-1.2042e-01	-1.6950e-02	3.5908e-01
0.173       	2.4093e-01	8.3521e-23	3.4264e-01	-1.7132e-01	-1.8805e-01	1.2047e-01	-5.0852e-02	2.9179e-01	1.2047e-01	-1.2047e-01	-1.6735e-02	3.5937e-01
0.174       	2.4092e-01	8.2344e-23	3.4347e-01	-1.7174e-01	-1.8799e-01	1.2046e-01	-5.1274e-02	2.9220e-01	1.2046e-01	-1.2046e-01	-1.6256e-02	3.5973e-01
0.175       	2.4085e-01	8.0664e-23	3.4476e-01	-1.7238e-01	-1.8785e-01	1.2043e-01	-5.1954e-02	2.9280e-01	1.2043e-01	-1.2043e-01	-1.5472e-02	3.6023e-01
0.176       	2.4075e-01	7.8687e-23	3.4640e-01	-1.7320e-01	-1.8767e-01	1.2037e-01	-5.2825e-02	2.9357e-01	1.2037e-01	-1.2037e-01	-1.4474e-02	3.6087e-01
0.177       	2.4068e-01	7.6560e-23	3.4838e-01	-1.7419e-01	-1.8750e-01	1.2034e-01	-5.3850e-02	2.9453e-01	1.2034e-01	-1.2034e-01	-1.3308e-02	3.6169e-01
0.178       	2.4071e-01	7.4866e-23	3.5024e-01	-1.7512e-01	-1.8742e-01	1.2036e-01	-5.4763e-02	2.9547e-01	1.2036e-01	-1.2036e-01	-1.2297e-02	3.6253e-01
0.179       	2.4089e-01	7.3805e-23	3.5183e-01	-1.7592e-01	-1.8747e-01	1.2044e-01	-5.5472e-02	2.9636e-01	1.2044e-01	-1.2044e-01	-1.1554e-02	3.6339e-01
0.18        	2.4118e-01	7.3516e-23	3.5289e-01	-1.7645e-01	-1.8767e-01	1.2059e-01	-5.5857e-02	2.9703e-01	1.2059e-01	-1.2059e-01	-1.1225e-02	3.6412e-01
0.181       	2.4160e-01	7.3852e-23	3.5361e-01	-1.7681e-01	-1.8804e-01	1.2080e-01	-5.6004e-02	2.9761e-01	1.2080e-01	-1.2080e-01	-1.1231e-02	3.6484e-01
0.182       	2.4213e-01	7.4680e-23	3.5405e-01	-1.7703e-01	-1.8856e-01	1.2107e-01	-5.5959e-02	2.9809e-01	1.2107e-01	-1.2107e-01	-1.1537e-02	3.6559e-01
0.183       	2.4287e-01	7.6066e-23	3.5438e-01	-1.7719e-01	-1.8936e-01	1.2144e-01	-5.5755e-02	2.9863e-01	1.2144e-01	-1.2144e-01	-1.2166e-02	3.6655e-01
0.184       	2.4376e-01	7.7830e-23	3.5467e-01	-1.7734e-01	-1.9040e-01	1.2188e-01	-5.5458e-02	2.9922e-01	1.2188e-01	-1.2188e-01	-1.3065e-02	3.6774e-01
0.185       	2.4485e-01	7.9939e-23	3.5510e-01	-1.7755e-01	-1.9177e-01	1.2243e-01	-5.5124e-02	2.9998e-01	1.2243e-01	-1.2243e-01	-1.4224e-02	3.6933e-01
0.186       	2.4592e-01	8.1821e-23	3.5572e-01	-1.7786e-01	-1.9322e-01	1.2296e-01	-5.4902e-02	3.0082e-01	1.2296e-01	-1.2296e-01	-1.5357e-02	3.7108e-01
0.187       	2.4692e-01	8.3296e-23	3.5662e-01	-1.7831e-01	-1.9465e-01	1.2346e-01	-5.4854e-02	3.0177e-01	1.2346e-01	-1.2346e-01	-1.6340e-02	3.7296e-01
0.188       	2.4763e-01	8.4022e-23	3.5763e-01	-1.7882e-01	-1.9575e-01	1.2382e-01	-5.5000e-02	3.0263e-01	1.2382e-01	-1.2382e-01	-1.6939e-02	3.7457e-01
0.189       	2.4815e-01	8.4146e-23	3.5878e-01	-1.7939e-01	-1.9660e-01	1.2408e-01	-5.5314e-02	3.0347e-01	1.2408e-01	-1.2408e-01	-1.7210e-02	3.7599e-01
0.19        	2.4847e-01	8.3741e-23	3.5995e-01	-1.7997e-01	-1.9714e-01	1.2423e-01	-5.5741e-02	3.0421e-01	1.2423e-01	-1.2423e-01	-1.7169e-02	3.7712e-01
0.191       	2.4866e-01	8.2828e-23	3.6130e-01	-1.8065e-01	-1.9747e-01	1.2433e-01	-5.6317e-02	3.0498e-01	1.2433e-01	-1.2433e-01	-1.6826e-02	3.7812e-01
0.192       	2.4873e-01	8.1506e-23	3.6268e-01	-1.8134e-01	-1.9755e-01	1.2436e-01	-5.6978e-02	3.0570e-01	1.2436e-01	-1.2436e-01	-1.6214e-02	3.7890e-01
0.193       	2.4871e-01	7.9813e-23	3.6413e-01	-1.8207e-01	-1.9739e-01	1.2435e-01	-5.7713e-02	3.0642e-01	1.2435e-01	-1.2435e-01	-1.5322e-02	3.7945e-01
0.194       	2.4864e-01	7.8175e-23	3.6531e-01	-1.8266e-01	-1.9703e-01	1.2432e-01	-5.8338e-02	3.0697e-01	1.2432e-01	-1.2432e-01	-1.4377e-02	3.7969e-01
0.195       	2.4859e-01	7.6791e-23	3.6617e-01	-1.8309e-01	-1.9657e-01	1.2429e-01	-5.8793e-02	3.0738e-01	1.2429e-01	-1.2429e-01	-1.3482e-02	3.7965e-01