# Force coefficients
# liftDir   : (0.0000e+00 1.0000e+00 0.0000e+00)
# dragDir   : (1.0000e+00 0.0000e+00 0.0000e+00)
# pitchAxis : (4.4208e-01 -6.0854e-02 8.9491e-01)
# magUInf   : 1.0000e+00
# lRef      : 1.0000e+00
# Aref      : 1.0000e+00
# CofR      : (0.0000e+00 0.0000e+00 0.0000e+00)
# Time      	Cm          	Cd          	Cl          	Cl(f)       	Cl(r)       
0           	0.0000e+00	0.0000e+00	0.0000e+00	0.0000e+00	0.0000e+00
0.001       	2.4026e+00	1.1642e+01	1.2261e+01	8.5332e+00	3.7280e+00
0.002       	-2.3370e+01	2.5808e+00	-7.6970e+01	-6.1855e+01	-1.5116e+01
0.003       	1.8670e+01	4.5767e+00	5.1390e+01	4.4365e+01	7.0252e+00
0.004       	4.9769e+01	7.5878e+00	1.6872e+02	1.3413e+02	3.4589e+01
0.005       	3.5405e+01	4.5084e+00	1.3473e+02	1.0277e+02	3.1959e+01
0.006       	-1.2710e+01	-4.7482e+00	-2.1862e+01	-2.3641e+01	1.7789e+00
0.007       	-6.2325e+01	-1.3762e+01	-2.1211e+02	-1.6838e+02	-4.3731e+01
0.008       	-6.0508e+01	-9.6822e+00	-2.2568e+02	-1.7335e+02	-5.2334e+01
0.009       	-1.6539e+01	1.1003e+00	-7.5803e+01	-5.4441e+01	-2.1362e+01
0.01        	2.2265e+01	4.1315e+00	7.7077e+01	6.0804e+01	1.6274e+01
0.011       	1.1043e+01	6.2686e-01	4.3526e+01	3.2806e+01	1.0719e+01
0.012       	-5.6423e+00	-1.8624e+00	-1.6979e+01	-1.4132e+01	-2.8471e+00
0.013       	-1.4657e+01	-2.5184e+00	-5.4757e+01	-4.2036e+01	-1.2721e+01
0.014       	-7.8393e+00	-6.6176e-01	-3.2583e+01	-2.4131e+01	-8.4522e+00
0.015       	4.8053e+00	1.8790e+00	1.5146e+01	1.2378e+01	2.7678e+00
0.016       	1.1540e+01	2.9435e+00	4.4854e+01	3.3967e+01	1.0887e+01
0.017       	6.1167e+00	1.4243e+00	2.6690e+01	1.9462e+01	7.2285e+00
0.018       	-2.6623e+00	-6.7884e-01	-7.4468e+00	-6.3857e+00	-1.0611e+00
0.019       	-8.6168e+00	-2.1052e+00	-3.4155e+01	-2.5695e+01	-8.4609e+00
0.02        	-5.1433e+00	-1.1336e+00	-2.2758e+01	-1.6522e+01	-6.2358e+00
0.021       	1.0251e+00	5.2723e-01	1.7778e+00	1.9140e+00	-1.3623e-01
0.022       	6.5305e+00	2.1174e+00	2.6462e+01	1.9762e+01	6.7006e+00
0.023       	4.6011e+00	1.5875e+00	2.0529e+01	1.4865e+01	5.6633e+00
0.024       	3.7075e-01	3.5039e-01	3.4315e+00	2.0865e+00	1.3450e+00
0.025       	-4.8053e+00	-1.2859e+00	-1.9556e+01	-1.4583e+01	-4.9727e+00
0.026       	-4.0706e+00	-1.1202e+00	-1.7980e+01	-1.3061e+01	-4.9195e+00
0.027       	-2.2593e+00	-5.6094e-01	-1.0598e+01	-7.5585e+00	-3.0400e+00
0.028       	3.8970e+00	1.4268e+00	1.5963e+01	1.1878e+01	4.0845e+00
0.029       	4.6939e+00	1.7335e+00	2.0308e+01	1.4848e+01	5.4602e+00
0.03        	2.9773e+00	1.2016e+00	1.3391e+01	9.6726e+00	3.7180e+00
0.031       	-2.7097e+00	-6.4562e-01	-1.0667e+01	-8.0432e+00	-2.6238e+00
0.032       	-4.4434e+00	-1.2842e+00	-1.8922e+01	-1.3904e+01	-5.0175e+00
0.033       	-2.8167e+00	-7.9801e-01	-1.2589e+01	-9.1112e+00	-3.4778e+00
0.034       	1.8387e+00	7.3130e-01	6.9941e+00	5.3357e+00	1.6583e+00
0.035       	3.7696e+00	1.4463e+00	1.5988e+01	1.1764e+01	4.2244e+00
0.036       	2.3640e+00	1.0440e+00	1.0742e+01	7.7351e+00	3.0071e+00
0.037       	-5.2311e-01	9.2128e-02	-1.2902e+00	-1.1682e+00	-1.2197e-01
0.038       	-2.7421e+00	-7.3595e-01	-1.1490e+01	-8.4873e+00	-3.0030e+00
0.039       	-2.0877e+00	-5.8730e-01	-9.4439e+00	-6.8096e+00	-2.6343e+00
0.04        	-4.8588e-02	8.7783e-02	-1.0050e+00	-5.5107e-01	-4.5390e-01
0.041       	1.9246e+00	8.2880e-01	8.0258e+00	5.9375e+00	2.0883e+00
0.042       	1.7743e+00	8.4444e-01	8.0621e+00	5.8054e+00	2.2568e+00
0.043       	3.8799e-01	3.8817e-01	2.4136e+00	1.5948e+00	8.1881e-01
0.044       	-9.2493e-01	-1.0719e-01	-3.5597e+00	-2.7048e+00	-8.5493e-01
0.045       	-1.2190e+00	-2.7038e-01	-5.4288e+00	-3.9333e+00	-1.4954e+00
0.046       	-5.2744e-01	-6.2040e-02	-2.8382e+00	-1.9466e+00	-8.9168e-01
0.047       	4.1989e-01	2.8995e-01	1.3995e+00	1.1196e+00	2.7984e-01
0.048       	8.5790e-01	4.9261e-01	3.7776e+00	2.7467e+00	1.0309e+00
0.049       	6.0637e-01	4.3993e-01	3.0945e+00	2.1536e+00	9.4088e-01
0.05        	-6.4965e-03	2.1912e-01	4.3762e-01	2.1231e-01	2.2531e-01
0.051       	-2.4849e-01	1.0774e-01	-8.2874e-01	-6.6286e-01	-1.6588e-01
0.052       	-2.9818e-01	7.4149e-02	-1.2386e+00	-9.1750e-01	-3.2114e-01
0.053       	-2.4643e-01	7.7053e-02	-1.2417e+00	-8.6727e-01	-3.7442e-01
0.054       	-5.6226e-02	1.3313e-01	-5.9202e-01	-3.5224e-01	-2.3978e-01
0.055       	1.5838e-01	2.1155e-01	3.9523e-01	3.5600e-01	3.9236e-02
0.056       	2.6170e-01	2.5942e-01	1.0353e+00	7.7936e-01	2.5596e-01
0.057       	2.7164e-01	2.8025e-01	1.3202e+00	9.3173e-01	3.8845e-01
0.058       	1.1827e-01	2.5391e-01	9.3100e-01	5.8377e-01	3.4723e-01
0.059       	2.5310e-02	2.2044e-01	4.7739e-01	2.6401e-01	2.1339e-01
0.06        	-2.9815e-02	1.9139e-01	8.6815e-02	1.3593e-02	7.3222e-02
0.061       	-5.4518e-02	1.6878e-01	-1.9810e-01	-1.5357e-01	-4.4529e-02
0.062       	-5.3517e-02	1.5518e-01	-3.3930e-01	-2.2317e-01	-1.1613e-01
0.063       	-3.1405e-02	1.5205e-01	-3.2947e-01	-1.9614e-01	-1.3333e-01
0.064       	1.2349e-02	1.6067e-01	-1.6053e-01	-6.7917e-02	-9.2616e-02
0.065       	7.0509e-02	1.8277e-01	1.6249e-01	1.5175e-01	1.0738e-02
0.066       	1.2002e-01	2.1199e-01	5.2163e-01	3.8083e-01	1.4079e-01
0.067       	1.3818e-01	2.3540e-01	7.4920e-01	5.1278e-01	2.3642e-01
0.068       	1.1559e-01	2.4151e-01	7.3698e-01	4.8408e-01	2.5290e-01
0.069       	6.6092e-02	2.2830e-01	5.1215e-01	3.2217e-01	1.8998e-01
0.07        	2.0531e-02	2.0646e-01	2.3503e-01	1.3805e-01	9.6987e-02
0.071       	-2.1082e-03	1.8948e-01	5.4009e-02	2.4896e-02	2.9113e-02
0.072       	-6.9554e-03	1.8128e-01	-1.6708e-02	-1.5309e-02	-1.3984e-03
0.073       	-4.9797e-03	1.7715e-01	-3.9442e-02	-2.4701e-02	-1.4741e-02
0.074       	2.8260e-03	1.7500e-01	-3.1599e-02	-1.2974e-02	-1.8626e-02
0.075       	2.0465e-02	1.7652e-01	2.8501e-02	3.4715e-02	-6.2145e-03
0.076       	5.0954e-02	1.8548e-01	1.7149e-01	1.3670e-01	3.4791e-02
0.077       	8.5530e-02	2.0229e-01	3.7181e-01	2.7144e-01	1.0038e-01
0.078       	1.0127e-01	2.1698e-01	5.0308e-01	3.5281e-01	1.5026e-01
0.079       	9.2950e-02	2.2131e-01	5.0472e-01	3.4531e-01	1.5941e-01
0.08        	7.4506e-02	2.1859e-01	4.3675e-01	2.9288e-01	1.4387e-01
0.081       	5.3297e-02	2.1212e-01	3.3884e-01	2.2272e-01	1.1612e-01
0.082       	3.4041e-02	2.0402e-01	2.3651e-01	1.5229e-01	8.4212e-02
0.083       	1.8665e-02	1.9553e-01	1.4265e-01	8.9988e-02	5.2658e-02
0.084       	8.6627e-03	1.8786e-01	6.8789e-02	4.3057e-02	2.5732e-02
0.085       	5.6407e-03	1.8248e-01	2.8347e-02	1.9814e-02	8.5330e-03
0.086       	1.1602e-02	1.8098e-01	3.6145e-02	2.9675e-02	6.4701e-03
0.087       	2.8707e-02	1.8577e-01	1.1147e-01	8.4443e-02	2.7029e-02
0.088       	4.9225e-02	1.9529e-01	2.2291e-01	1.6068e-01	6.2229e-02
0.089       	6.1580e-02	2.0333e-01	3.0317e-01	2.1316e-01	9.0005e-02
0.09        	6.4932e-02	2.0712e-01	3.3427e-01	2.3207e-01	1.0220e-01
0.091       	6.4639e-02	2.0882e-01	3.4322e-01	2.3625e-01	1.0697e-01
0.092       	6.1834e-02	2.0977e-01	3.4043e-01	2.3205e-01	1.0838e-01
0.093       	5.5223e-02	2.0960e-01	3.1972e-01	2.1508e-01	1.0464e-01
0.094       	4.4115e-02	2.0739e-01	2.7347e-01	1.8085e-01	9.2620e-02
0.095       	3.0652e-02	2.0265e-01	2.0617e-01	1.3374e-01	7.2433e-02
0.096       	2.1176e-02	1.9704e-01	1.4705e-01	9.4700e-02	5.2348e-02
0.097       	2.0863e-02	1.9422e-01	1.3092e-01	8.6325e-02	4.4599e-02
0.098       	2.4238e-02	1.9402e-01	1.3967e-01	9.4073e-02	4.5596e-02
0.099       	2.8072e-02	1.9464e-01	1.5422e-01	1.0518e-01	4.9036e-02
0.1         	3.3410e-02	1.9601e-01	1.7720e-01	1.2201e-01	5.5189e-02
0.101       	4.1830e-02	1.9874e-01	2.1631e-01	1.4999e-01	6.6327e-02
0.102       	5.3310e-02	2.0331e-01	2.7310e-01	1.8986e-01	8.3237e-02
0.103       	6.4539e-02	2.0889e-01	3.3286e-01	2.3097e-01	1.0189e-01
0.104       	6.9918e-02	2.1313e-01	3.6737e-01	2.5360e-01	1.1377e-01
0.105       	6.6743e-02	2.1387e-01	3.5977e-01	2.4663e-01	1.1314e-01
0.106       	5.8772e-02	2.1187e-01	3.2562e-01	2.2158e-01	1.0404e-01
0.107       	5.1231e-02	2.0923e-01	2.9020e-01	1.9633e-01	9.3867e-02
0.108       	4.4921e-02	2.0663e-01	2.5860e-01	1.7422e-01	8.4379e-02
0.109       	3.9069e-02	2.0389e-01	2.2757e-01	1.5285e-01	7.4715e-02
0.11        	3.3217e-02	2.0084e-01	1.9473e-01	1.3058e-01	6.4149e-02
0.111       	2.8205e-02	1.9792e-01	1.6461e-01	1.1051e-01	5.4099e-02
0.112       	2.5933e-02	1.9626e-01	1.4823e-01	1.0005e-01	4.8183e-02
0.113       	2.8320e-02	1.9703e-01	1.5759e-01	1.0712e-01	5.0478e-02
0.114       	3.5109e-02	2.0031e-01	1.9245e-01	1.3133e-01	6.1116e-02
0.115       	4.1873e-02	2.0384e-01	2.2917e-01	1.5646e-01	7.2712e-02
0.116       	4.5841e-02	2.0611e-01	2.5186e-01	1.7177e-01	8.0089e-02
0.117       	4.8084e-02	2.0753e-01	2.6560e-01	1.8088e-01	8.4716e-02
0.118       	4.9767e-02	2.0877e-01	2.7685e-01	1.8819e-01	8.8658e-02
0.119       	5.1213e-02	2.1002e-01	2.8740e-01	1.9491e-01	9.2487e-02
0.12        	5.2001e-02	2.1113e-01	2.9456e-01	1.9928e-01	9.5279e-02
0.121       	5.1383e-02	2.1160e-01	2.9317e-01	1.9797e-01	9.5201e-02
0.122       	4.8797e-02	2.1095e-01	2.7938e-01	1.8849e-01	9.0892e-02
0.123       	4.5109e-02	2.0928e-01	2.5817e-01	1.7419e-01	8.3974e-02
0.124       	4.2384e-02	2.0780e-01	2.4200e-01	1.6339e-01	7.8619e-02
0.125       	4.1352e-02	2.0713e-01	2.3556e-01	1.5913e-01	7.6429e-02
0.126       	4.0926e-02	2.0678e-01	2.3262e-01	1.5723e-01	7.5382e-02
0.127       	4.0737e-02	2.0653e-01	2.3099e-01	1.5623e-01	7.4759e-02
0.128       	4.0857e-02	2.0644e-01	2.3107e-01	1.5639e-01	7.4680e-02
0.129       	4.1585e-02	2.0675e-01	2.3469e-01	1.5893e-01	7.5762e-02
0.13        	4.3154e-02	2.0783e-01	2.4357e-01	1.6494e-01	7.8632e-02
0.131       	4.5183e-02	2.0950e-01	2.5585e-01	1.7311e-01	8.2740e-02
0.132       	4.6798e-02	2.1108e-01	2.6624e-01	1.7992e-01	8.6321e-02
0.133       	4.7305e-02	2.1175e-01	2.6992e-01	1.8227e-01	8.7656e-02
0.134       	4.7291e-02	2.1194e-01	2.7026e-01	1.8242e-01	8.7837e-02
0.135       	4.7106e-02	2.1198e-01	2.6951e-01	1.8186e-01	8.7648e-02
0.136       	4.6736e-02	2.1193e-01	2.6768e-01	1.8058e-01	8.7103e-02
0.137       	4.5997e-02	2.1172e-01	2.6388e-01	1.7794e-01	8.5941e-02
0.138       	4.4785e-02	2.1136e-01	2.5749e-01	1.7353e-01	8.3959e-02
0.139       	4.3288e-02	2.1097e-01	2.4966e-01	1.6812e-01	8.1544e-02
0.14        	4.2059e-02	2.1082e-01	2.4362e-01	1.6387e-01	7.9752e-02
0.141       	4.1748e-02	2.1099e-01	2.4258e-01	1.6304e-01	7.9544e-02
0.142       	4.2092e-02	2.1132e-01	2.4474e-01	1.6446e-01	8.0277e-02
0.143       	4.2514e-02	2.1159e-01	2.4710e-01	1.6606e-01	8.1035e-02
0.144       	4.3014e-02	2.1191e-01	2.4989e-01	1.6796e-01	8.1932e-02
0.145       	4.3744e-02	2.1236e-01	2.5398e-01	1.7073e-01	8.3246e-02
0.146       	4.4903e-02	2.1308e-01	2.6044e-01	1.7512e-01	8.5317e-02
0.147       	4.6537e-02	2.1414e-01	2.6947e-01	1.8127e-01	8.8196e-02
0.148       	4.8333e-02	2.1544e-01	2.7929e-01	1.8798e-01	9.1312e-02
0.149       	4.9432e-02	2.1645e-01	2.8532e-01	1.9209e-01	9.3229e-02
0.15        	4.9369e-02	2.1682e-01	2.8520e-01	1.9197e-01	9.3232e-02
0.151       	4.8711e-02	2.1667e-01	2.8188e-01	1.8965e-01	9.2231e-02
0.152       	4.8041e-02	2.1645e-01	2.7846e-01	1.8727e-01	9.1187e-02
0.153       	4.7319e-02	2.1617e-01	2.7472e-01	1.8468e-01	9.0039e-02
0.154       	4.6353e-02	2.1579e-01	2.6971e-01	1.8121e-01	8.8500e-02
0.155       	4.4976e-02	2.1526e-01	2.6267e-01	1.7631e-01	8.6358e-02
0.156       	4.3190e-02	2.1467e-01	2.5381e-01	1.7009e-01	8.3715e-02
0.157       	4.1554e-02	2.1433e-01	2.4623e-01	1.6467e-01	8.1562e-02
0.158       	4.0836e-02	2.1457e-01	2.4381e-01	1.6274e-01	8.1070e-02
0.159       	4.1375e-02	2.1526e-01	2.4756e-01	1.6516e-01	8.2408e-02
0.16        	4.2401e-02	2.1598e-01	2.5321e-01	1.6901e-01	8.4204e-02
0.161       	4.3300e-02	2.1652e-01	2.5789e-01	1.7224e-01	8.5644e-02
0.162       	4.4276e-02	2.1709e-01	2.6290e-01	1.7572e-01	8.7173e-02
0.163       	4.5525e-02	2.1779e-01	2.6930e-01	1.8017e-01	8.9122e-02
0.164       	4.7234e-02	2.1876e-01	2.7803e-01	1.8625e-01	9.1783e-02
0.165       	4.9231e-02	2.1993e-01	2.8824e-01	1.9335e-01	9.4890e-02
0.166       	5.0910e-02	2.2106e-01	2.9689e-01	1.9936e-01	9.7537e-02
0.167       	5.1424e-02	2.2165e-01	2.9976e-01	2.0131e-01	9.8457e-02
0.168       	5.0683e-02	2.2161e-01	2.9640e-01	1.9889e-01	9.7519e-02
0.169       	4.9608e-02	2.2129e-01	2.9129e-01	1.9525e-01	9.6035e-02
0.17        	4.8597e-02	2.2095e-01	2.8641e-01	1.9180e-01	9.4608e-02
0.171       	4.7565e-02	2.2059e-01	2.8137e-01	1.8825e-01	9.3119e-02
0.172       	4.6284e-02	2.2016e-01	2.7507e-01	1.8382e-01	9.1254e-02
0.173       	4.4665e-02	2.1965e-01	2.6721e-01	1.7827e-01	8.8940e-02
