# Force coefficients
# liftDir   : (0.0000e+00 1.0000e+00 0.0000e+00)
# dragDir   : (1.0000e+00 0.0000e+00 0.0000e+00)
# pitchAxis : (4.4208e-01 -6.0854e-02 8.9491e-01)
# magUInf   : 1.0000e+00
# lRef      : 1.0000e+00
# Aref      : 1.0000e+00
# CofR      : (0.0000e+00 0.0000e+00 0.0000e+00)
# Time      	Cm          	Cd          	Cl          	Cl(f)       	Cl(r)       
0           	0.0000e+00	0.0000e+00	0.0000e+00	0.0000e+00	0.0000e+00
0.001       	5.4447e+00	1.4104e+01	2.2648e+01	1.6769e+01	5.8793e+00
0.002       	4.0182e+01	3.7198e+01	1.2957e+02	1.0497e+02	2.4603e+01
0.003       	-1.0767e+01	-7.8804e+00	-2.7135e+01	-2.4335e+01	-2.8002e+00
0.004       	-4.7336e+01	-4.3662e+01	-1.4310e+02	-1.1889e+02	-2.4215e+01
0.005       	-2.5894e+01	-2.8153e+01	-7.0474e+01	-6.1131e+01	-9.3424e+00
0.006       	-4.8028e+00	-8.4595e+00	-7.6878e-01	-5.1872e+00	4.4184e+00
0.007       	4.7100e+01	4.1167e+01	1.3013e+02	1.1217e+02	1.7965e+01
0.008       	1.0087e+01	1.1922e+01	2.3924e+01	2.2049e+01	1.8756e+00
0.009       	1.3282e+00	1.3036e+01	3.5634e+00	3.1099e+00	4.5346e-01
0.01        	-1.4658e+01	-6.8544e+00	-3.7897e+01	-3.3606e+01	-4.2911e+00
0.011       	-1.0765e+01	-1.2380e+01	-2.5799e+01	-2.3665e+01	-2.1345e+00
0.012       	-5.7719e+00	-1.0595e+01	-1.3311e+01	-1.2427e+01	-8.8342e-01
0.013       	1.0843e+01	7.4169e+00	2.8021e+01	2.4853e+01	3.1677e+00
0.014       	1.0843e+01	1.1497e+01	2.5103e+01	2.3394e+01	1.7089e+00
0.015       	6.7653e+00	9.9667e+00	1.5482e+01	1.4506e+01	9.7571e-01
0.016       	-8.1932e+00	-5.3291e+00	-2.0183e+01	-1.8285e+01	-1.8982e+00
0.017       	-9.9923e+00	-9.7807e+00	-2.2217e+01	-2.1101e+01	-1.1163e+00
0.018       	-4.0787e+00	-6.1685e+00	-8.1627e+00	-8.1600e+00	-2.6716e-03
0.019       	6.1372e+00	4.3689e+00	1.4770e+01	1.3522e+01	1.2478e+00
0.02        	7.0049e+00	7.1510e+00	1.4904e+01	1.4457e+01	4.4685e-01
0.021       	2.1812e+00	3.8778e+00	3.5363e+00	3.9493e+00	-4.1304e-01
0.022       	-4.3971e+00	-2.9977e+00	-1.0199e+01	-9.4965e+00	-7.0228e-01
0.023       	-4.4760e+00	-4.4535e+00	-8.5862e+00	-8.7691e+00	1.8290e-01
0.024       	-6.2202e-01	-1.6494e+00	3.2107e-01	-4.6148e-01	7.8255e-01
0.025       	3.1742e+00	2.4456e+00	7.4397e+00	6.8941e+00	5.4565e-01
0.026       	2.6704e+00	2.9528e+00	4.6392e+00	4.9900e+00	-3.5077e-01
0.027       	-1.6791e-01	7.9286e-01	-1.8480e+00	-1.0919e+00	-7.5609e-01
0.028       	-2.0315e+00	-1.3196e+00	-4.8401e+00	-4.4516e+00	-3.8848e-01
0.029       	-1.2984e+00	-1.3903e+00	-1.4483e+00	-2.0225e+00	5.7424e-01
0.03        	5.7918e-01	4.1494e-02	2.8770e+00	2.0177e+00	8.5934e-01
0.031       	1.3865e+00	1.1115e+00	3.6332e+00	3.2031e+00	4.3009e-01
0.032       	7.1829e-01	1.0199e+00	6.6984e-01	1.0532e+00	-3.8337e-01
0.033       	-4.7653e-01	1.2415e-01	-2.1665e+00	-1.5598e+00	-6.0670e-01
0.034       	-8.7800e-01	-4.9271e-01	-2.3198e+00	-2.0379e+00	-2.8191e-01
0.035       	-3.4763e-01	-3.4875e-01	-3.5418e-02	-3.6534e-01	3.2992e-01
0.036       	5.1551e-01	3.0878e-01	2.2048e+00	1.6179e+00	5.8691e-01
0.037       	7.2575e-01	6.4462e-01	2.1503e+00	1.8009e+00	3.4940e-01
0.038       	3.1486e-01	4.7689e-01	4.6115e-01	5.4543e-01	-8.4281e-02
0.039       	-3.1775e-01	2.5587e-02	-1.3187e+00	-9.7708e-01	-3.4158e-01
0.04        	-4.8093e-01	-2.0276e-01	-1.3563e+00	-1.1591e+00	-1.9720e-01
0.041       	-3.1000e-01	-1.3582e-01	-7.2506e-01	-6.7253e-01	-5.2533e-02
0.042       	3.3753e-01	3.0297e-01	1.4002e+00	1.0376e+00	3.6255e-01
0.043       	5.7334e-01	5.1810e-01	1.9114e+00	1.5291e+00	3.8238e-01
0.044       	4.4732e-01	4.6002e-01	1.4693e+00	1.1820e+00	2.8734e-01
0.045       	-4.5971e-02	1.4653e-01	-2.6878e-01	-1.8036e-01	-8.8419e-02
0.046       	-4.5845e-01	-1.5828e-01	-1.5306e+00	-1.2238e+00	-3.0685e-01
0.047       	-4.0402e-01	-1.3992e-01	-1.3416e+00	-1.0748e+00	-2.6681e-01
0.048       	-1.6020e-01	-5.9610e-03	-4.4213e-01	-3.8127e-01	-6.0864e-02
0.049       	1.1513e-01	1.7746e-01	5.6378e-01	3.9701e-01	1.6676e-01
0.05        	2.4493e-01	2.8072e-01	1.0115e+00	7.5069e-01	2.6083e-01
0.051       	3.3392e-01	3.6705e-01	1.2568e+00	9.6230e-01	2.9446e-01
0.052       	3.8326e-01	4.5626e-01	1.1663e+00	9.6642e-01	1.9990e-01
0.053       	3.7311e-01	4.4923e-01	1.1195e+00	9.3285e-01	1.8663e-01
0.054       	2.8923e-01	3.7534e-01	8.5417e-01	7.1632e-01	1.3786e-01
0.055       	7.5221e-02	1.9353e-01	2.5804e-01	2.0424e-01	5.3800e-02
0.056       	-1.1610e-01	4.0008e-02	-2.6453e-01	-2.4836e-01	-1.6165e-02
0.057       	-2.7288e-01	-7.7862e-02	-7.0200e-01	-6.2388e-01	-7.8123e-02
0.058       	-2.8334e-01	-8.3291e-02	-7.5336e-01	-6.6002e-01	-9.3335e-02
0.059       	-2.4034e-01	-5.0042e-02	-6.7228e-01	-5.7648e-01	-9.5802e-02
0.06        	-2.1508e-01	-3.6699e-02	-6.2396e-01	-5.2706e-01	-9.6898e-02
0.061       	-3.3229e-02	9.0223e-02	-9.2935e-02	-7.9697e-02	-1.3238e-02
0.062       	8.8106e-02	1.7590e-01	2.9604e-01	2.3613e-01	5.9916e-02
0.063       	1.1297e-01	1.9930e-01	3.8859e-01	3.0727e-01	8.1321e-02
0.064       	1.8449e-01	2.7680e-01	6.3207e-01	5.0052e-01	1.3155e-01
0.065       	2.0167e-01	2.9834e-01	6.8255e-01	5.4295e-01	1.3960e-01
0.066       	2.4870e-01	3.4815e-01	8.2035e-01	6.5887e-01	1.6147e-01
0.067       	2.5330e-01	3.4670e-01	8.3098e-01	6.6879e-01	1.6219e-01
0.068       	1.5292e-01	2.7791e-01	6.0334e-01	4.5460e-01	1.4875e-01
0.069       	1.4726e-01	2.6798e-01	5.9786e-01	4.4619e-01	1.5167e-01
0.07        	1.3437e-01	2.6335e-01	5.6741e-01	4.1808e-01	1.4933e-01
0.071       	-1.8071e-01	-2.8586e-02	-5.4167e-01	-4.5154e-01	-9.0128e-02
0.072       	-1.8033e-01	-2.6462e-02	-5.4951e-01	-4.5509e-01	-9.4427e-02
0.073       	-1.5653e-01	-7.1171e-03	-4.9474e-01	-4.0390e-01	-9.0839e-02
0.074       	-1.0475e-01	2.7306e-02	-3.4047e-01	-2.7498e-01	-6.5488e-02
0.075       	-7.8786e-02	4.5391e-02	-2.5063e-01	-2.0410e-01	-4.6530e-02
0.076       	5.8052e-01	6.4957e-01	1.9992e+00	1.5801e+00	4.1908e-01
0.077       	5.7768e-01	6.5304e-01	2.0003e+00	1.5778e+00	4.2248e-01
0.078       	5.5757e-01	6.4132e-01	1.9384e+00	1.5268e+00	4.1161e-01
0.079       	-2.8355e-01	-1.0924e-01	-8.8023e-01	-7.2366e-01	-1.5656e-01
0.08        	-2.9581e-01	-1.2416e-01	-9.2908e-01	-7.6035e-01	-1.6873e-01
0.081       	-2.9780e-01	-1.4085e-01	-9.5475e-01	-7.7517e-01	-1.7958e-01
0.082       	-2.5221e-01	-1.1217e-01	-7.9350e-01	-6.4897e-01	-1.4454e-01
0.083       	-9.0164e-02	4.6317e-02	-2.3410e-01	-2.0721e-01	-2.6887e-02
0.084       	-6.2960e-02	7.8910e-02	-1.3707e-01	-1.3149e-01	-5.5752e-03
0.085       	-2.9427e-02	1.1839e-01	-2.7787e-02	-4.3320e-02	1.5533e-02
0.086       	1.5572e-01	2.9223e-01	5.8372e-01	4.4758e-01	1.3614e-01
0.087       	1.9021e-01	3.2011e-01	6.9522e-01	5.3782e-01	1.5740e-01
0.088       	2.0993e-01	3.3287e-01	7.6224e-01	5.9105e-01	1.7120e-01
0.089       	2.2563e-01	3.4440e-01	8.1117e-01	6.3121e-01	1.7996e-01
0.09        	2.6263e-01	3.7248e-01	9.2311e-01	7.2418e-01	1.9893e-01
0.091       	2.6446e-01	3.7484e-01	9.2331e-01	7.2612e-01	1.9719e-01
0.092       	2.5967e-01	3.6874e-01	9.0369e-01	7.1151e-01	1.9218e-01
0.093       	2.1168e-01	3.1561e-01	7.3427e-01	5.7881e-01	1.5546e-01
0.094       	1.9067e-01	2.9395e-01	6.6854e-01	5.2494e-01	1.4360e-01
0.095       	9.4273e-02	2.0665e-01	3.6128e-01	2.7491e-01	8.6369e-02
0.096       	6.9065e-02	1.8818e-01	2.8071e-01	2.0942e-01	7.1292e-02
0.097       	3.0148e-02	1.5792e-01	1.5851e-01	1.0940e-01	4.9105e-02
0.098       	9.0226e-03	1.4060e-01	9.3518e-02	5.5782e-02	3.7736e-02
0.099       	-4.6101e-02	9.3099e-02	-7.1752e-02	-8.1978e-02	1.0225e-02
0.1         	-5.8892e-02	8.0600e-02	-1.1010e-01	-1.1394e-01	3.8413e-03
0.101       	-6.7658e-02	7.5503e-02	-1.3966e-01	-1.3749e-01	-2.1702e-03
0.102       	-7.2279e-02	7.6818e-02	-1.5468e-01	-1.4962e-01	-5.0632e-03
0.103       	-7.3345e-02	8.3246e-02	-1.6126e-01	-1.5397e-01	-7.2832e-03
0.104       	-3.2889e-02	1.3668e-01	-4.1018e-02	-5.3398e-02	1.2380e-02
0.105       	-2.1685e-02	1.4623e-01	-4.5878e-03	-2.3979e-02	1.9391e-02
0.106       	-5.4897e-03	1.5703e-01	4.8628e-02	1.8824e-02	2.9804e-02
0.107       	1.9881e-02	1.7515e-01	1.2899e-01	8.4378e-02	4.4615e-02
0.108       	4.7647e-02	1.9619e-01	2.1731e-01	1.5630e-01	6.1006e-02
0.109       	1.7498e-01	2.9347e-01	6.1708e-01	4.8352e-01	1.3356e-01
0.11        	1.8974e-01	3.0536e-01	6.6254e-01	5.2101e-01	1.4154e-01
0.111       	1.9806e-01	3.1222e-01	6.8548e-01	5.4080e-01	1.4468e-01
0.112       	2.0041e-01	3.1299e-01	6.9479e-01	5.4780e-01	1.4699e-01
0.113       	1.9785e-01	3.0876e-01	6.8743e-01	5.4156e-01	1.4586e-01
0.114       	1.8688e-01	2.9863e-01	6.5900e-01	5.1638e-01	1.4262e-01
0.115       	1.2949e-01	2.4967e-01	4.8712e-01	3.7306e-01	1.1407e-01
0.116       	1.0817e-01	2.3473e-01	4.2415e-01	3.2024e-01	1.0391e-01
0.117       	8.8060e-02	2.1984e-01	3.6214e-01	2.6913e-01	9.3012e-02
0.118       	7.2069e-02	2.0843e-01	3.1151e-01	2.2782e-01	8.3687e-02
0.119       	5.4798e-02	1.9279e-01	2.5739e-01	1.8349e-01	7.3897e-02
0.12        	3.8916e-02	1.7771e-01	2.0683e-01	1.4233e-01	6.4500e-02
0.121       	-2.4741e-02	1.2325e-01	9.9174e-03	-1.9782e-02	2.9699e-02
0.122       	-3.6217e-02	1.1524e-01	-2.6541e-02	-4.9488e-02	2.2947e-02
0.123       	-4.4381e-02	1.1208e-01	-5.3138e-02	-7.0950e-02	1.7812e-02
0.124       	-4.5671e-02	1.1334e-01	-6.1504e-02	-7.6423e-02	1.4919e-02
0.125       	-4.2124e-02	1.1750e-01	-5.3744e-02	-6.8996e-02	1.5252e-02
0.126       	-3.3851e-02	1.2359e-01	-2.9614e-02	-4.8658e-02	1.9044e-02
0.127       	-2.0004e-02	1.3402e-01	1.1481e-02	-1.4264e-02	2.5745e-02
0.128       	-3.2936e-03	1.4709e-01	6.1065e-02	2.7239e-02	3.3826e-02
0.129       	1.5896e-02	1.6442e-01	1.1682e-01	7.4308e-02	4.2516e-02
0.13        	4.1757e-02	1.8809e-01	1.9187e-01	1.3769e-01	5.4179e-02
0.131       	7.4606e-02	2.1739e-01	2.9218e-01	2.2070e-01	7.1484e-02
0.132       	1.0078e-01	2.4015e-01	3.7412e-01	2.8784e-01	8.6274e-02
0.133       	1.3123e-01	2.6606e-01	4.7138e-01	3.6692e-01	1.0446e-01
0.134       	1.5749e-01	2.8869e-01	5.5839e-01	4.3669e-01	1.2170e-01
0.135       	1.7141e-01	3.0057e-01	6.0522e-01	4.7402e-01	1.3120e-01
0.136       	1.7879e-01	3.0741e-01	6.3319e-01	4.9539e-01	1.3780e-01
0.137       	1.8563e-01	3.1408e-01	6.6460e-01	5.1793e-01	1.4667e-01
0.138       	1.8322e-01	3.1238e-01	6.6077e-01	5.1360e-01	1.4717e-01
0.139       	1.7514e-01	3.0475e-01	6.3773e-01	4.9400e-01	1.4373e-01
0.14        	1.5105e-01	2.8232e-01	5.6266e-01	4.3238e-01	1.3028e-01
0.141       	1.2695e-01	2.6047e-01	4.8952e-01	3.7170e-01	1.1781e-01
0.142       	1.0335e-01	2.3996e-01	4.1635e-01	3.1153e-01	1.0482e-01
0.143       	7.7065e-02	2.1767e-01	3.3600e-01	2.4507e-01	9.0937e-02
0.144       	4.3770e-02	1.8890e-01	2.2808e-01	1.5781e-01	7.0269e-02
0.145       	2.8086e-02	1.7484e-01	1.7559e-01	1.1588e-01	5.9709e-02
0.146       	1.7414e-02	1.6503e-01	1.3732e-01	8.6074e-02	5.1246e-02
0.147       	7.7880e-03	1.5601e-01	1.0323e-01	5.9401e-02	4.3825e-02
0.148       	1.2083e-03	1.5112e-01	8.1438e-02	4.1928e-02	3.9511e-02
0.149       	-3.0599e-03	1.4897e-01	6.8745e-02	3.1313e-02	3.7433e-02
0.15        	-4.5870e-03	1.5023e-01	6.5280e-02	2.8053e-02	3.7227e-02
0.151       	-1.0945e-03	1.5459e-01	7.6167e-02	3.6989e-02	3.9178e-02
0.152       	6.8559e-03	1.6208e-01	9.9347e-02	5.6529e-02	4.2818e-02
0.153       	2.0084e-02	1.7388e-01	1.3940e-01	8.9781e-02	4.9614e-02
0.154       	3.6005e-02	1.8831e-01	1.8690e-01	1.2946e-01	5.7445e-02
0.155       	4.9902e-02	2.0187e-01	2.2993e-01	1.6487e-01	6.5065e-02
0.156       	6.5942e-02	2.1703e-01	2.7967e-01	2.0578e-01	7.3893e-02
0.157       	8.1258e-02	2.3305e-01	3.3332e-01	2.4792e-01	8.5404e-02
0.158       	9.5487e-02	2.4625e-01	3.8247e-01	2.8672e-01	9.5748e-02
0.159       	1.0823e-01	2.5777e-01	4.2535e-01	3.2091e-01	1.0444e-01
0.16        	1.2281e-01	2.6909e-01	4.6850e-01	3.5706e-01	1.1143e-01
0.161       	1.3414e-01	2.7803e-01	4.9976e-01	3.8402e-01	1.1574e-01
0.162       	1.4013e-01	2.8300e-01	5.1728e-01	3.9877e-01	1.1851e-01
0.163       	1.4309e-01	2.8522e-01	5.2644e-01	4.0632e-01	1.2013e-01
0.164       	1.4242e-01	2.8518e-01	5.2881e-01	4.0683e-01	1.2198e-01
0.165       	1.4039e-01	2.8302e-01	5.2619e-01	4.0349e-01	1.2270e-01
0.166       	1.3723e-01	2.7880e-01	5.1746e-01	3.9595e-01	1.2150e-01
0.167       	1.3180e-01	2.7163e-01	4.9748e-01	3.8054e-01	1.1694e-01
0.168       	1.2278e-01	2.6180e-01	4.6419e-01	3.5488e-01	1.0931e-01
0.169       	1.0830e-01	2.4747e-01	4.1665e-01	3.1663e-01	1.0002e-01
0.17        	9.2497e-02	2.3326e-01	3.6888e-01	2.7694e-01	9.1945e-02
0.171       	7.7785e-02	2.2110e-01	3.2776e-01	2.4166e-01	8.6095e-02
0.172       	6.0948e-02	2.0771e-01	2.8117e-01	2.0153e-01	7.9637e-02
0.173       	4.7932e-02	1.9712e-01	2.4181e-01	1.6884e-01	7.2973e-02
0.174       	4.0061e-02	1.9001e-01	2.1623e-01	1.4818e-01	6.8055e-02
0.175       	3.3990e-02	1.8512e-01	1.9314e-01	1.3056e-01	6.2578e-02
0.176       	2.5642e-02	1.7967e-01	1.6879e-01	1.1004e-01	5.8755e-02
0.177       	2.3309e-02	1.7959e-01	1.6551e-01	1.0606e-01	5.9447e-02
0.178       	2.2865e-02	1.8172e-01	1.7102e-01	1.0837e-01	6.2643e-02
0.179       	2.9100e-02	1.9039e-01	1.9344e-01	1.2582e-01	6.7621e-02
0.18        	3.4698e-02	1.9662e-01	2.0992e-01	1.3966e-01	7.0262e-02
0.181       	4.2793e-02	2.0437e-01	2.3182e-01	1.5870e-01	7.3119e-02
0.182       	5.5489e-02	2.1631e-01	2.6897e-01	1.8997e-01	7.8995e-02
0.183       	7.1648e-02	2.3141e-01	3.1759e-01	2.3044e-01	8.7148e-02
0.184       	8.1304e-02	2.4038e-01	3.4798e-01	2.5529e-01	9.2686e-02
0.185       	9.2100e-02	2.5058e-01	3.7969e-01	2.8194e-01	9.7743e-02
0.186       	1.0495e-01	2.6187e-01	4.1675e-01	3.1333e-01	1.0342e-01
0.187       	1.1264e-01	2.6797e-01	4.3717e-01	3.3123e-01	1.0594e-01
0.188       	1.1874e-01	2.7206e-01	4.5474e-01	3.4611e-01	1.0864e-01
0.189       	1.2369e-01	2.7428e-01	4.6752e-01	3.5745e-01	1.1007e-01
0.19        	1.2621e-01	2.7583e-01	4.7509e-01	3.6376e-01	1.1133e-01
0.191       	1.2817e-01	2.7684e-01	4.7981e-01	3.6808e-01	1.1173e-01
0.192       	1.2869e-01	2.7703e-01	4.7997e-01	3.6867e-01	1.1130e-01
0.193       	1.2769e-01	2.7508e-01	4.7511e-01	3.6525e-01	1.0986e-01
0.194       	1.2387e-01	2.7043e-01	4.6441e-01	3.5607e-01	1.0834e-01
0.195       	1.1798e-01	2.6384e-01	4.4835e-01	3.4215e-01	1.0620e-01
0.196       	1.1032e-01	2.5579e-01	4.2790e-01	3.2427e-01	1.0364e-01
0.197       	1.0070e-01	2.4728e-01	4.0095e-01	3.0118e-01	9.9774e-02
0.198       	9.2868e-02	2.4087e-01	3.7797e-01	2.8185e-01	9.6115e-02
0.199       	8.4076e-02	2.3445e-01	3.5269e-01	2.6042e-01	9.2271e-02
0.2         	7.4109e-02	2.2669e-01	3.2496e-01	2.3659e-01	8.8372e-02
0.201       	6.6559e-02	2.2122e-01	3.0596e-01	2.1954e-01	8.6420e-02
0.202       	5.9901e-02	2.1611e-01	2.9018e-01	2.0499e-01	8.5187e-02
0.203       	5.1796e-02	2.1126e-01	2.7009e-01	1.8684e-01	8.3251e-02
0.204       	4.9002e-02	2.1025e-01	2.6311e-01	1.8056e-01	8.2553e-02
0.205       	4.8499e-02	2.1187e-01	2.6156e-01	1.7928e-01	8.2281e-02
0.206       	5.0371e-02	2.1553e-01	2.6773e-01	1.8424e-01	8.3494e-02
0.207       	5.3318e-02	2.1949e-01	2.7679e-01	1.9171e-01	8.5078e-02
0.208       	5.7221e-02	2.2388e-01	2.8933e-01	2.0188e-01	8.7443e-02
0.209       	6.6759e-02	2.3309e-01	3.1600e-01	2.2476e-01	9.1240e-02
0.21        	7.2439e-02	2.3883e-01	3.3182e-01	2.3835e-01	9.3468e-02
0.211       	7.9116e-02	2.4495e-01	3.4833e-01	2.5328e-01	9.5047e-02
0.212       	8.9457e-02	2.5392e-01	3.7622e-01	2.7757e-01	9.8655e-02
0.213       	9.6276e-02	2.5932e-01	3.9471e-01	2.9363e-01	1.0108e-01
0.214       	1.0120e-01	2.6292e-01	4.0908e-01	3.0574e-01	1.0334e-01
0.215       	1.0718e-01	2.6698e-01	4.2458e-01	3.1946e-01	1.0511e-01
0.216       	1.1095e-01	2.6939e-01	4.3343e-01	3.2767e-01	1.0576e-01
0.217       	1.1402e-01	2.7121e-01	4.4000e-01	3.3402e-01	1.0598e-01
0.218       	1.1696e-01	2.7313e-01	4.4664e-01	3.4028e-01	1.0636e-01
0.219       	1.1806e-01	2.7360e-01	4.4994e-01	3.4303e-01	1.0691e-01
0.22        	1.1823e-01	2.7298e-01	4.5065e-01	3.4356e-01	1.0710e-01
0.221       	1.1703e-01	2.7114e-01	4.4758e-01	3.4082e-01	1.0676e-01
0.222       	1.1555e-01	2.6848e-01	4.4236e-01	3.3673e-01	1.0564e-01
0.223       	1.1302e-01	2.6609e-01	4.3609e-01	3.3107e-01	1.0503e-01
0.224       	1.1049e-01	2.6372e-01	4.2929e-01	3.2513e-01	1.0416e-01
0.225       	1.0591e-01	2.6029e-01	4.1920e-01	3.1551e-01	1.0369e-01
0.226       	1.0069e-01	2.5663e-01	4.0702e-01	3.0420e-01	1.0283e-01
0.227       	9.5208e-02	2.5283e-01	3.9448e-01	2.9245e-01	1.0203e-01
0.228       	8.9114e-02	2.4862e-01	3.7950e-01	2.7886e-01	1.0064e-01
0.229       	8.4735e-02	2.4508e-01	3.6841e-01	2.6894e-01	9.9470e-02
0.23        	8.1487e-02	2.4296e-01	3.6077e-01	2.6187e-01	9.8897e-02
0.231       	7.8285e-02	2.4108e-01	3.5336e-01	2.5496e-01	9.8394e-02
0.232       	7.5725e-02	2.4012e-01	3.4869e-01	2.5007e-01	9.8619e-02
0.233       	7.3556e-02	2.3955e-01	3.4443e-01	2.4577e-01	9.8658e-02
0.234       	7.1366e-02	2.3918e-01	3.4059e-01	2.4166e-01	9.8930e-02
0.235       	7.0927e-02	2.3967e-01	3.3968e-01	2.4077e-01	9.8913e-02
0.236       	7.1171e-02	2.4084e-01	3.4127e-01	2.4181e-01	9.9465e-02
0.237       	7.3593e-02	2.4343e-01	3.4695e-01	2.4707e-01	9.9884e-02
0.238       	7.7608e-02	2.4785e-01	3.5763e-01	2.5642e-01	1.0121e-01
0.239       	8.2700e-02	2.5306e-01	3.6999e-01	2.6770e-01	1.0230e-01
0.24        	8.5953e-02	2.5653e-01	3.7870e-01	2.7530e-01	1.0340e-01
0.241       	9.1100e-02	2.6127e-01	3.9140e-01	2.8680e-01	1.0460e-01
0.242       	9.5756e-02	2.6503e-01	4.0342e-01	2.9747e-01	1.0596e-01
0.243       	1.0069e-01	2.6873e-01	4.1496e-01	3.0817e-01	1.0679e-01
0.244       	1.0610e-01	2.7257e-01	4.2752e-01	3.1986e-01	1.0766e-01
0.245       	1.0980e-01	2.7529e-01	4.3550e-01	3.2755e-01	1.0795e-01
0.246       	1.1179e-01	2.7676e-01	4.3977e-01	3.3167e-01	1.0810e-01
0.247       	1.1354e-01	2.7786e-01	4.4335e-01	3.3522e-01	1.0813e-01
0.248       	1.1435e-01	2.7804e-01	4.4544e-01	3.3707e-01	1.0837e-01
0.249       	1.1524e-01	2.7809e-01	4.4744e-01	3.3896e-01	1.0848e-01
0.25        	1.1590e-01	2.7776e-01	4.4876e-01	3.4028e-01	1.0848e-01
0.251       	1.1555e-01	2.7704e-01	4.4708e-01	3.3909e-01	1.0799e-01
0.252       	1.1391e-01	2.7550e-01	4.4312e-01	3.3547e-01	1.0765e-01
0.253       	1.1084e-01	2.7315e-01	4.3635e-01	3.2901e-01	1.0734e-01
0.254       	1.0599e-01	2.6915e-01	4.2739e-01	3.1968e-01	1.0771e-01
0.255       	1.0381e-01	2.6726e-01	4.2324e-01	3.1543e-01	1.0781e-01
0.256       	1.0219e-01	2.6576e-01	4.2009e-01	3.1224e-01	1.0786e-01
0.257       	9.9894e-02	2.6393e-01	4.1399e-01	3.0689e-01	1.0710e-01
0.258       	9.7240e-02	2.6234e-01	4.0808e-01	3.0128e-01	1.0680e-01
0.259       	9.4301e-02	2.6065e-01	4.0200e-01	2.9530e-01	1.0670e-01
0.26        	9.0325e-02	2.5838e-01	3.9590e-01	2.8827e-01	1.0762e-01
0.261       	8.8434e-02	2.5730e-01	3.9377e-01	2.8532e-01	1.0845e-01
0.262       	8.7474e-02	2.5696e-01	3.9323e-01	2.8409e-01	1.0914e-01
0.263       	8.8012e-02	2.5779e-01	3.9407e-01	2.8505e-01	1.0902e-01
0.264       	8.7419e-02	2.5843e-01	3.9271e-01	2.8377e-01	1.0893e-01
0.265       	8.6873e-02	2.5907e-01	3.9152e-01	2.8263e-01	1.0889e-01
0.266       	8.5575e-02	2.5949e-01	3.9111e-01	2.8113e-01	1.0998e-01
0.267       	8.6401e-02	2.6098e-01	3.9529e-01	2.8405e-01	1.1124e-01
0.268       	8.7964e-02	2.6289e-01	4.0024e-01	2.8809e-01	1.1216e-01
0.269       	9.1577e-02	2.6656e-01	4.0791e-01	2.9553e-01	1.1238e-01
0.27        	9.5806e-02	2.7102e-01	4.1653e-01	3.0407e-01	1.1246e-01
0.271       	9.7806e-02	2.7340e-01	4.2010e-01	3.0786e-01	1.1224e-01
0.272       	9.9644e-02	2.7563e-01	4.2531e-01	3.1230e-01	1.1301e-01
0.273       	1.0313e-01	2.7868e-01	4.3454e-01	3.2040e-01	1.1413e-01
0.274       	1.0561e-01	2.8040e-01	4.4043e-01	3.2583e-01	1.1460e-01
0.275       	1.0899e-01	2.8266e-01	4.4637e-01	3.3218e-01	1.1420e-01
0.276       	1.1230e-01	2.8495e-01	4.5109e-01	3.3784e-01	1.1324e-01
0.277       	1.1363e-01	2.8585e-01	4.5218e-01	3.3971e-01	1.1246e-01
0.278       	1.1412e-01	2.8598e-01	4.5316e-01	3.4070e-01	1.1246e-01
0.279       	1.1425e-01	2.8551e-01	4.5479e-01	3.4164e-01	1.1314e-01
0.28        	1.1502e-01	2.8542e-01	4.5681e-01	3.4342e-01	1.1339e-01
0.281       	1.1583e-01	2.8536e-01	4.5764e-01	3.4465e-01	1.1299e-01
0.282       	1.1667e-01	2.8543e-01	4.5738e-01	3.4536e-01	1.1202e-01
0.283       	1.1588e-01	2.8455e-01	4.5430e-01	3.4302e-01	1.1127e-01
0.284       	1.1412e-01	2.8290e-01	4.5122e-01	3.3973e-01	1.1149e-01
0.285       	1.1165e-01	2.8077e-01	4.4831e-01	3.3580e-01	1.1251e-01
0.286       	1.0997e-01	2.7917e-01	4.4645e-01	3.3320e-01	1.1326e-01
0.287       	1.0838e-01	2.7786e-01	4.4376e-01	3.3026e-01	1.1351e-01
0.288       	1.0751e-01	2.7736e-01	4.4129e-01	3.2816e-01	1.1314e-01
0.289       	1.0540e-01	2.7623e-01	4.3688e-01	3.2384e-01	1.1303e-01
0.29        	1.0265e-01	2.7480e-01	4.3330e-01	3.1930e-01	1.1400e-01
0.291       	1.0003e-01	2.7338e-01	4.3135e-01	3.1570e-01	1.1564e-01
0.292       	9.8529e-02	2.7285e-01	4.3096e-01	3.1401e-01	1.1695e-01
0.293       	9.8100e-02	2.7319e-01	4.3119e-01	3.1369e-01	1.1749e-01
0.294       	9.8315e-02	2.7418e-01	4.3126e-01	3.1394e-01	1.1731e-01
0.295       	9.8431e-02	2.7516e-01	4.3124e-01	3.1405e-01	1.1719e-01
0.296       	9.7423e-02	2.7542e-01	4.3111e-01	3.1298e-01	1.1813e-01
0.297       	9.6680e-02	2.7553e-01	4.3262e-01	3.1299e-01	1.1963e-01
0.298       	9.6756e-02	2.7641e-01	4.3505e-01	3.1428e-01	1.2077e-01
0.299       	9.8358e-02	2.7841e-01	4.3850e-01	3.1761e-01	1.2089e-01
0.3         	1.0031e-01	2.8074e-01	4.4120e-01	3.2091e-01	1.2029e-01
0.301       	1.0241e-01	2.8302e-01	4.4414e-01	3.2447e-01	1.1966e-01
0.302       	1.0384e-01	2.8484e-01	4.4777e-01	3.2773e-01	1.2005e-01
0.303       	1.0452e-01	2.8568e-01	4.5137e-01	3.3020e-01	1.2117e-01
0.304       	1.0598e-01	2.8713e-01	4.5554e-01	3.3375e-01	1.2178e-01
0.305       	1.0891e-01	2.8962e-01	4.6065e-01	3.3924e-01	1.2141e-01
0.306       	1.1158e-01	2.9185e-01	4.6359e-01	3.4338e-01	1.2021e-01
0.307       	1.1395e-01	2.9362e-01	4.6605e-01	3.4698e-01	1.1907e-01
0.308       	1.1637e-01	2.9520e-01	4.7015e-01	3.5144e-01	1.1870e-01
0.309       	1.1689e-01	2.9519e-01	4.7265e-01	3.5321e-01	1.1944e-01
0.31        	1.1751e-01	2.9537e-01	4.7463e-01	3.5482e-01	1.1981e-01
0.311       	1.1877e-01	2.9599e-01	4.7634e-01	3.5694e-01	1.1940e-01
0.312       	1.1993e-01	2.9676e-01	4.7656e-01	3.5821e-01	1.1835e-01
0.313       	1.2074e-01	2.9708e-01	4.7637e-01	3.5892e-01	1.1745e-01
0.314       	1.2096e-01	2.9665e-01	4.7684e-01	3.5938e-01	1.1746e-01
0.315       	1.2032e-01	2.9560e-01	4.7760e-01	3.5911e-01	1.1848e-01
0.316       	1.1944e-01	2.9469e-01	4.7750e-01	3.5819e-01	1.1931e-01
0.317       	1.1778e-01	2.9336e-01	4.7502e-01	3.5529e-01	1.1973e-01
0.318       	1.1678e-01	2.9282e-01	4.7243e-01	3.5300e-01	1.1943e-01
0.319       	1.1555e-01	2.9197e-01	4.7010e-01	3.5060e-01	1.1950e-01
0.32        	1.1358e-01	2.9071e-01	4.6741e-01	3.4728e-01	1.2013e-01
0.321       	1.1121e-01	2.8926e-01	4.6562e-01	3.4402e-01	1.2160e-01
0.322       	1.0922e-01	2.8834e-01	4.6397e-01	3.4121e-01	1.2277e-01
0.323       	1.0738e-01	2.8771e-01	4.6259e-01	3.3868e-01	1.2391e-01
0.324       	1.0609e-01	2.8775e-01	4.6135e-01	3.3676e-01	1.2459e-01
0.325       	1.0526e-01	2.8792e-01	4.6080e-01	3.3567e-01	1.2514e-01
0.326       	1.0487e-01	2.8833e-01	4.6058e-01	3.3516e-01	1.2542e-01
0.327       	1.0431e-01	2.8865e-01	4.6177e-01	3.3520e-01	1.2658e-01
0.328       	1.0436e-01	2.8925e-01	4.6328e-01	3.3600e-01	1.2728e-01
0.329       	1.0469e-01	2.9000e-01	4.6552e-01	3.3745e-01	1.2807e-01
0.33        	1.0613e-01	2.9185e-01	4.6809e-01	3.4017e-01	1.2792e-01
0.331       	1.0729e-01	2.9323e-01	4.6970e-01	3.4214e-01	1.2756e-01
0.332       	1.0871e-01	2.9479e-01	4.7108e-01	3.4425e-01	1.2683e-01
0.333       	1.1072e-01	2.9674e-01	4.7557e-01	3.4850e-01	1.2707e-01
0.334       	1.1208e-01	2.9791e-01	4.7897e-01	3.5157e-01	1.2740e-01
0.335       	1.1358e-01	2.9905e-01	4.8287e-01	3.5501e-01	1.2786e-01
0.336       	1.1669e-01	3.0152e-01	4.8772e-01	3.6055e-01	1.2717e-01
0.337       	1.1853e-01	3.0293e-01	4.8964e-01	3.6335e-01	1.2629e-01
0.338       	1.2011e-01	3.0406e-01	4.9101e-01	3.6562e-01	1.2539e-01
0.339       	1.2175e-01	3.0520e-01	4.9309e-01	3.6829e-01	1.2480e-01
0.34        	1.2282e-01	3.0588e-01	4.9487e-01	3.7025e-01	1.2461e-01
0.341       	1.2355e-01	3.0630e-01	4.9613e-01	3.7162e-01	1.2451e-01
0.342       	1.2434e-01	3.0672e-01	4.9742e-01	3.7305e-01	1.2438e-01
0.343       	1.2496e-01	3.0689e-01	4.9804e-01	3.7398e-01	1.2406e-01
0.344       	1.2507e-01	3.0683e-01	4.9798e-01	3.7406e-01	1.2392e-01
0.345       	1.2478e-01	3.0657e-01	4.9721e-01	3.7339e-01	1.2383e-01
0.346       	1.2373e-01	3.0577e-01	4.9647e-01	3.7196e-01	1.2451e-01
0.347       	1.2285e-01	3.0517e-01	4.9589e-01	3.7080e-01	1.2509e-01
0.348       	1.2201e-01	3.0463e-01	4.9582e-01	3.6991e-01	1.2590e-01
0.349       	1.1905e-01	3.0286e-01	4.9296e-01	3.6553e-01	1.2743e-01
0.35        	1.1780e-01	3.0220e-01	4.9162e-01	3.6361e-01	1.2801e-01
0.351       	1.1643e-01	3.0150e-01	4.9040e-01	3.6163e-01	1.2877e-01
0.352       	1.1474e-01	3.0095e-01	4.8908e-01	3.5928e-01	1.2979e-01
0.353       	1.1369e-01	3.0077e-01	4.8880e-01	3.5809e-01	1.3071e-01
0.354       	1.1327e-01	3.0104e-01	4.8933e-01	3.5794e-01	1.3139e-01
0.355       	1.1273e-01	3.0127e-01	4.9032e-01	3.5789e-01	1.3243e-01
0.356       	1.1244e-01	3.0163e-01	4.9140e-01	3.5814e-01	1.3326e-01
0.357       	1.1226e-01	3.0194e-01	4.9239e-01	3.5845e-01	1.3394e-01
0.358       	1.1261e-01	3.0299e-01	4.9414e-01	3.5968e-01	1.3446e-01
0.359       	1.1349e-01	3.0432e-01	4.9613e-01	3.6156e-01	1.3457e-01
0.36        	1.1474e-01	3.0572e-01	4.9827e-01	3.6387e-01	1.3440e-01
0.361       	1.1644e-01	3.0739e-01	5.0093e-01	3.6690e-01	1.3403e-01
0.362       	1.1831e-01	3.0903e-01	5.0371e-01	3.7016e-01	1.3355e-01
0.363       	1.1932e-01	3.0994e-01	5.0512e-01	3.7188e-01	1.3324e-01
0.364       	1.2031e-01	3.1071e-01	5.0637e-01	3.7350e-01	1.3287e-01
0.365       	1.2144e-01	3.1154e-01	5.0779e-01	3.7534e-01	1.3245e-01
0.366       	1.2286e-01	3.1247e-01	5.0960e-01	3.7766e-01	1.3193e-01
0.367       	1.2404e-01	3.1320e-01	5.1092e-01	3.7951e-01	1.3142e-01
0.368       	1.2532e-01	3.1395e-01	5.1241e-01	3.8153e-01	1.3089e-01
0.369       	1.2566e-01	3.1417e-01	5.1261e-01	3.8197e-01	1.3065e-01
0.37        	1.2573e-01	3.1418e-01	5.1263e-01	3.8204e-01	1.3059e-01
0.371       	1.2577e-01	3.1417e-01	5.1281e-01	3.8218e-01	1.3063e-01
0.372       	1.2638e-01	3.1448e-01	5.1403e-01	3.8340e-01	1.3064e-01
0.373       	1.2743e-01	3.1506e-01	5.1615e-01	3.8551e-01	1.3064e-01
0.374       	1.2803e-01	3.1541e-01	5.1719e-01	3.8663e-01	1.3056e-01
0.375       	1.2750e-01	3.1521e-01	5.1649e-01	3.8574e-01	1.3075e-01
0.376       	1.2677e-01	3.1489e-01	5.1614e-01	3.8484e-01	1.3130e-01
0.377       	1.2552e-01	3.1432e-01	5.1536e-01	3.8320e-01	1.3216e-01
0.378       	1.2533e-01	3.1435e-01	5.1645e-01	3.8355e-01	1.3290e-01
0.379       	1.2519e-01	3.1451e-01	5.1697e-01	3.8368e-01	1.3329e-01
0.38        	1.2532e-01	3.1530e-01	5.1920e-01	3.8492e-01	1.3428e-01
0.381       	1.2442e-01	3.1518e-01	5.1827e-01	3.8356e-01	1.3471e-01
0.382       	1.2334e-01	3.1488e-01	5.1803e-01	3.8235e-01	1.3567e-01
0.383       	1.2185e-01	3.1434e-01	5.1757e-01	3.8064e-01	1.3693e-01
0.384       	1.2093e-01	3.1420e-01	5.1849e-01	3.8017e-01	1.3832e-01
0.385       	1.2070e-01	3.1456e-01	5.1938e-01	3.8038e-01	1.3899e-01
0.386       	1.2031e-01	3.1596e-01	5.2199e-01	3.8131e-01	1.4068e-01
0.387       	1.2062e-01	3.1659e-01	5.2281e-01	3.8202e-01	1.4079e-01
0.388       	1.2040e-01	3.1683e-01	5.2316e-01	3.8198e-01	1.4118e-01
0.389       	1.1994e-01	3.1687e-01	5.2333e-01	3.8161e-01	1.4173e-01
0.39        	1.2027e-01	3.1725e-01	5.2471e-01	3.8262e-01	1.4209e-01
0.391       	1.2092e-01	3.1785e-01	5.2558e-01	3.8371e-01	1.4186e-01
0.392       	1.2191e-01	3.1860e-01	5.2647e-01	3.8515e-01	1.4133e-01
0.393       	1.2281e-01	3.1935e-01	5.2662e-01	3.8612e-01	1.4050e-01
0.394       	1.2394e-01	3.2010e-01	5.2776e-01	3.8783e-01	1.3994e-01
0.395       	1.2463e-01	3.2048e-01	5.2862e-01	3.8894e-01	1.3968e-01
0.396       	1.2856e-01	3.2266e-01	5.3305e-01	3.9509e-01	1.3796e-01
0.397       	1.2981e-01	3.2339e-01	5.3382e-01	3.9672e-01	1.3710e-01
0.398       	1.3080e-01	3.2403e-01	5.3408e-01	3.9784e-01	1.3624e-01
0.399       	1.3142e-01	3.2447e-01	5.3401e-01	3.9843e-01	1.3559e-01
0.4         	1.3189e-01	3.2484e-01	5.3419e-01	3.9899e-01	1.3521e-01
0.401       	1.3196e-01	3.2492e-01	5.3455e-01	3.9923e-01	1.3532e-01
0.402       	1.3207e-01	3.2504e-01	5.3547e-01	3.9980e-01	1.3567e-01
0.403       	1.3221e-01	3.2519e-01	5.3640e-01	4.0041e-01	1.3599e-01
0.404       	1.3210e-01	3.2556e-01	5.3855e-01	4.0137e-01	1.3718e-01
0.405       	1.3191e-01	3.2567e-01	5.3880e-01	4.0131e-01	1.3749e-01
0.406       	1.3131e-01	3.2554e-01	5.3894e-01	4.0078e-01	1.3817e-01
0.407       	1.3041e-01	3.2527e-01	5.3872e-01	3.9977e-01	1.3895e-01
0.408       	1.2982e-01	3.2518e-01	5.3955e-01	3.9959e-01	1.3996e-01
0.409       	1.2964e-01	3.2540e-01	5.4034e-01	3.9981e-01	1.4053e-01
0.41        	1.2905e-01	3.2594e-01	5.4228e-01	4.0019e-01	1.4209e-01
0.411       	1.2881e-01	3.2620e-01	5.4238e-01	4.0000e-01	1.4238e-01
0.412       	1.2792e-01	3.2605e-01	5.4250e-01	3.9918e-01	1.4333e-01
0.413       	1.2678e-01	3.2570e-01	5.4236e-01	3.9796e-01	1.4440e-01
0.414       	1.2627e-01	3.2568e-01	5.4350e-01	3.9802e-01	1.4548e-01
0.415       	1.2543e-01	3.2689e-01	5.4656e-01	3.9871e-01	1.4785e-01
0.416       	1.2591e-01	3.2747e-01	5.4733e-01	3.9958e-01	1.4776e-01
0.417       	1.2630e-01	3.2799e-01	5.4765e-01	4.0013e-01	1.4752e-01
0.418       	1.2638e-01	3.2830e-01	5.4789e-01	4.0032e-01	1.4757e-01
0.419       	1.2621e-01	3.2831e-01	5.4791e-01	4.0016e-01	1.4775e-01
0.42        	1.2646e-01	3.2847e-01	5.4878e-01	4.0085e-01	1.4793e-01
0.421       	1.2745e-01	3.2902e-01	5.4983e-01	4.0236e-01	1.4746e-01
0.422       	1.2984e-01	3.3039e-01	5.5185e-01	4.0577e-01	1.4608e-01
0.423       	1.3092e-01	3.3107e-01	5.5217e-01	4.0700e-01	1.4517e-01
0.424       	1.3119e-01	3.3122e-01	5.5205e-01	4.0722e-01	1.4484e-01
0.425       	1.3104e-01	3.3109e-01	5.5163e-01	4.0685e-01	1.4478e-01
0.426       	1.3143e-01	3.3123e-01	5.5241e-01	4.0764e-01	1.4477e-01
0.427       	1.3522e-01	3.3338e-01	5.5511e-01	4.1278e-01	1.4233e-01
0.428       	1.3644e-01	3.3414e-01	5.5588e-01	4.1438e-01	1.4150e-01
0.429       	1.3731e-01	3.3475e-01	5.5625e-01	4.1544e-01	1.4081e-01
0.43        	1.3755e-01	3.3505e-01	5.5646e-01	4.1578e-01	1.4067e-01