/*--------------------------------*- C++ -*----------------------------------*\
  =========                 |
  \\      /  F ield         | OpenFOAM: The Open Source CFD Toolbox
   \\    /   O peration     | Website:  https://openfoam.org
    \\  /    A nd           | Version:  8
     \\/     M anipulation  |
\*---------------------------------------------------------------------------*/
FoamFile
{
    version     2.0;
    format      ascii;
    class       volScalarField;
    location    "10";
    object      epsilon;
}
// * * * * * * * * * * * * * * * * * * * * * * * * * * * * * * * * * * * * * //

dimensions      [0 2 -3 0 0 0 0];

internalField   nonuniform List<scalar> 
127143
(
36.75
10.64
32.72
23.81
94.32
24.64
307.8
80.4
121.4
61.08
343
117.5
106.6
23.57
13.33
10.15
16.4
0.08339
0.1212
8.341
0.3655
5.253
0.1312
0.6676
5.478
3.262
10.83
11.87
12.27
0.06602
0.8037
3.37
34.26
2.093
0.06408
34.02
0.3123
0.3551
0.5607
1.825
0.1211
1.132
0.9294
29.35
0.08433
2.032
11.81
0.2088
1.033
0.5716
9.59
0.02155
0.8094
0.2243
0.005274
2.231
0.005086
0.1361
0.01307
0.2227
0.8884
0.1518
0.3309
0.09658
2.521
0.4772
0.06378
0.355
0.3492
0.0008084
0.713
10.28
0.1642
0.01309
0.02705
10.91
0.01717
0.2756
2.188
0.1318
10.34
7.235
1.266
1.501
0.2122
0.2544
0.5088
16.42
0.4579
11.94
0.01587
0.1427
9.515
0.3644
0.7159
0.08594
1.058
1.043
0.2479
0.06225
0.1332
0.9908
25.85
0.2349
0.2484
0.2519
0.5799
0.0008151
1.139
0.01752
12.5
16.49
0.4928
5.27
0.02067
0.3061
0.01764
0.02705
0.0171
3.598
0.0167
1.07
1.54
0.1188
10.06
3.852
0.1879
0.01653
1.27
2.675
0.3634
0.617
0.2883
0.2719
4.89
0.3569
0.03595
0.3437
11.12
0.03766
0.194
0.01734
0.5913
0.3602
0.8016
3.75
48.92
0.1068
0.6305
28.99
0.2454
1.093
0.3499
0.1484
5.579
0.2085
0.1355
3.491
0.2066
1.244
0.6615
42.41
0.01606
0.3622
3.834
2.317
0.346
0.8224
9.539
0.02238
1.107
0.3587
0.3506
0.9229
0.003694
0.4231
3.987
1.262
0.6308
0.01844
0.9244
0.02949
0.4629
0.4209
2.597
0.15
0.2098
5.069
0.6225
0.02089
0.8417
1.098
0.03489
11.26
5.756
0.2196
0.112
0.112
24.64
0.0184
0.01691
0.02294
0.03723
0.2998
17.4
0.3998
0.06516
0.459
0.06311
0.02085
0.07562
0.2493
0.01554
9.491
0.4485
14.54
1.562
0.5221
0.4619
0.06432
3.658
0.02937
1.122
0.8001
1.313
1.09
3.135
0.3519
0.6861
0.2088
0.3856
0.02892
0.1574
14.55
0.3828
0.08751
0.3621
44.89
0.01683
0.752
1.076
2.4
0.2816
3.414
0.6021
3.497
0.9205
10.14
9.125
0.001441
1.691
2.075
0.7008
0.3861
1.678
1.121
0.01641
9.953
0.6422
0.1092
0.2389
0.02342
0.14
0.01735
0.8698
2.347
0.5227
6.838
1.118
0.5366
2.446
0.003603
0.1893
0.7559
0.2794
0.8302
0.4877
0.809
0.006085
0.7758
0.002483
0.09051
0.2302
0.02255
0.02042
5.196
0.4343
0.02031
0.7502
0.01877
0.3418
0.246
0.08707
0.4148
0.01441
1.411
0.8377
1.408
0.2811
0.521
1.282
0.3855
0.5012
0.2986
1.39
3.383
0.4516
0.01556
0.1536
0.2831
0.5995
1.812
2.35
0.002563
0.0198
7.166
0.4027
1.26
0.1255
0.0199
0.1261
0.7312
0.02178
0.7021
7.285
0.5204
0.03463
2.511
0.7015
4.098
0.1706
0.02042
0.06214
0.1016
0.1016
0.141
1.111
0.3479
0.1706
0.4701
0.03645
0.5219
0.7445
0.8192
4.036
0.7644
0.871
0.6215
1.28
1.531
1.173
0.1148
0.4015
0.8273
0.02631
0.7783
0.3869
3.177
0.01074
0.7229
0.1739
0.3157
0.08428
0.547
0.5694
0.04063
0.0185
0.01302
1.535
0.006191
1.809
0.02186
1.603
0.5686
0.0202
0.07505
0.822
7.673
0.2256
0.006492
0.1217
3.516
1.123
0.3989
0.01755
4.475
0.04612
1.721
0.2255
0.2182
0.01285
0.4228
0.8394
1.736
0.6273
0.8306
0.4225
0.7432
0.02625
0.02279
1.671
0.03011
0.4012
0.448
0.04662
0.298
0.238
0.3017
0.1375
0.5931
1.798
1.492
0.1894
0.1963
1.478
0.7046
0.3235
2.664
0.4489
2.615
0.3363
2.1
0.5149
0.001484
0.2117
0.1361
0.836
0.1538
2.261
0.08332
0.05466
0.499
0.4239
0.08497
1.12
0.04023
0.397
0.8666
0.02112
0.01444
0.02275
0.5377
0.03668
1.187
0.0188
0.996
0.0185
5.782
0.01325
0.2496
0.3134
0.9915
0.2849
1.765
0.0499
0.2914
1.505
2.208
0.2657
0.4022
0.2787
1.042
0.2288
3.683
1.059
0.003367
0.01717
0.522
0.8164
0.03247
0.2302
0.1567
0.1173
0.3951
0.05315
0.006092
5.962
0.1527
0.7215
0.6731
13.17
5.712
1.261
2.329
1.601
1.096
0.6126
0.01563
1.084
0.01729
6.211
0.4823
0.8738
3.643
10.05
0.3851
3.168
0.08216
3.614
0.01706
13.12
0.01713
0.3172
0.2163
10.58
1.765
13.01
0.07079
0.7654
2.127
0.02002
0.1628
1.672
0.3293
0.2994
0.3184
1.01
0.2298
3.561
0.003354
0.2936
6.383
2.932
1.123
1.037
0.013
0.2401
0.03598
0.2254
0.01234
1.16
21.32
0.8087
0.04393
0.5222
0.1016
1.42
1.858
13.93
0.1844
0.0173
0.518
1.275
0.03629
0.396
0.4177
0.7742
0.5332
0.8569
0.7705
0.2223
0.743
2.314
0.3099
0.4838
0.01424
1.558
0.3808
1.578
0.3434
0.2528
0.08465
0.06712
0.09997
0.8909
4.146
0.01928
0.001686
1.083
4.046
0.2381
1.625
0.9275
2.003
0.4644
0.01697
0.03758
0.7929
0.2609
0.8176
0.003968
9.952
0.2982
0.5372
0.006295
1.837
0.01917
0.2314
0.4287
0.195
0.001634
0.5186
0.2392
22.72
0.006372
0.563
1.568
0.02218
0.2955
0.01967
0.4447
0.5745
0.02269
1.045
0.9759
2.155
0.8491
0.5631
1.134
1.094
5.214
0.5304
8.983
0.5203
0.4078
0.9128
1.32
0.003994
1.902
0.02104
3.732
0.01718
0.5815
0.04642
0.02036
0.1406
2.582
0.4217
0.003495
0.007783
0.6535
11.84
1.084
1.027
0.1629
1.174
0.3081
1.839
0.8115
0.5652
2.902
0.003493
2.021
0.7691
0.2473
0.3082
0.01598
0.001693
0.5131
9.968
0.6109
2.451
0.01711
0.001042
0.3694
1.656
0.02229
2.176
0.1432
0.04007
0.7145
0.5907
0.7605
0.2028
39.16
1.035
0.2619
0.2922
0.4297
1.015
1.647
1.222
0.02012
1.144
0.7959
0.3955
0.01072
0.7733
0.4311
0.5717
0.04474
0.01005
2.457
0.08224
1.386
1.037
3.711
0.1546
0.4579
1.164
0.2229
1.801
0.01567
0.007675
2
0.1343
1.415
0.5513
5.41
0.1567
3.161
0.07337
0.08341
0.001032
0.933
0.05357
1.652
4.638
0.4494
0.8544
0.2211
0.001492
0.3731
0.5761
2.045
0.1018
0.2756
0.8085
26.65
0.3253
4.251
0.1301
1.524
0.4035
0.2776
0.1857
0.2374
79.56
0.4404
0.02204
0.9309
2.223
0.4888
0.01482
0.5744
0.1141
0.2354
0.0009364
2.48
0.4909
1.873
0.0009826
1.27
0.381
1.018
1.282
0.001079
0.2121
1.074
0.8799
0.404
0.01812
0.7442
8.963
0.01482
0.494
0.3705
0.9906
0.3813
0.3723
0.4576
2.581
0.4825
0.01875
0.2129
0.1481
1.689
1.411
0.2261
0.1611
0.7392
0.02552
0.32
0.7024
0.6585
15.63
0.6556
0.7866
0.5397
0.276
0.5046
0.07265
37.76
0.3863
0.8305
1.033
0.2419
0.4651
0.3954
0.6567
0.04009
0.1094
0.2497
0.0009383
0.4442
6.12
0.5772
1.463
0.02827
0.3021
0.4348
0.01576
0.02036
0.306
0.1522
0.1626
0.4732
0.2293
7.353
0.2875
0.4239
0.0108
0.2742
0.3264
0.7794
1.22
0.7823
0.002225
0.01287
0.04232
11.04
0.01155
0.06703
9.477
0.4283
2.779
0.004337
0.3078
0.4145
0.02653
1.252
0.0685
3.102
26.27
1.214
0.6876
2.256
0.01547
0.8829
0.2357
1.119
0.9774
1.877
34.75
0.2257
0.2978
0.8992
7.04
0.02423
0.2625
2.629
6.442
0.8023
6.415
0.002216
0.05176
0.8012
4.21
12.9
2.808
150.7
4.61
43.24
0.5672
0.9193
0.1084
3.677
0.01731
0.5978
0.001783
0.001738
0.5915
0.01927
0.9979
0.1459
5.038
0.1717
0.02581
8.468
0.9989
0.01272
0.1044
0.3007
0.02488
1.152
4.63
0.5063
0.5559
12.4
0.3145
0.5556
0.01894
0.8689
1.629
0.01053
0.9146
0.3722
0.1499
0.02612
0.02003
0.1053
10.2
0.946
5.2
0.2415
1.942
0.8609
1.678
1.989
0.002207
11.21
0.6456
0.002207
1.165
6.244
0.1566
4.222
0.1983
0.3064
2.343
7.861
0.7212
0.01699
0.02864
0.5111
1.653
0.3587
1.091
7.587
6.798
0.9319
0.1027
6.779
0.04082
5.728
0.01691
0.2113
2.793
0.4398
0.5484
0.259
0.02428
0.01692
0.8671
0.2367
0.462
0.8401
0.6153
0.1849
0.579
2.099
1.645
7.317
0.7344
0.8972
0.7865
0.2941
0.1734
10.75
0.4517
3.174
4.329
0.2616
0.01504
0.01055
0.2007
0.2606
0.2648
0.1799
2.051
0.3097
0.1417
0.5431
0.5135
0.5597
2.545
0.1382
0.233
0.1332
9.606
1.356
0.4053
0.5497
0.2379
1.585
0.6472
0.2624
0.1473
2.287
0.5488
0.3448
7.698
0.0126
2.611
1.889
0.1466
0.8548
13.49
0.01904
4.691
9.619
0.002476
0.1533
0.9193
0.403
6.305
0.9747
0.5805
2.903
0.5957
0.2333
0.1918
0.01728
0.6657
0.2604
0.4907
0.4417
1.496
0.271
0.003403
5.67
0.4324
0.02968
1.229
0.002217
0.01712
0.3645
0.1373
11.35
0.01724
1.243
0.02721
6.817
0.1142
0.0996
0.2475
1.64
1.044
0.7145
0.3451
0.006187
0.03274
0.4463
0.9447
0.4776
0.5552
2.648
0.639
3.749
0.8692
1.991
3.565
0.8159
2.485
0.4081
0.1074
0.01088
1.118
0.5975
2.108
0.0007233
6.654
0.2452
0.3962
1.229
0.872
0.2079
1.596
0.2056
0.3935
0.5415
2.544
1.002
0.003162
0.2435
1.15
0.01501
0.8216
2.162
0.2081
0.45
0.6826
0.033
0.4062
0.3152
1.972
0.1632
0.1056
0.7046
0.5289
0.0134
0.2819
0.02657
0.3014
0.6691
0.4176
0.02401
1.111
3.866
1.831
0.9466
0.1986
3.615
0.000808
0.5347
0.02349
0.3002
2.096
0.9101
1.236
1.295
3.699
0.04514
10.16
0.9425
0.9737
0.3254
9.367
0.1977
0.1002
1.494
0.4945
0.03676
18.99
0.2934
0.6066
2.196
0.7764
4.416
1.394
1.312
0.6579
0.35
0.7051
1.004
0.749
0.156
4.103
0.08997
0.9458
0.09902
1.515
0.1056
0.02166
0.4562
4.106
0.2175
0.02192
6.21
0.7508
0.02574
11.91
0.5483
0.5972
2.49
0.6511
0.3497
20.82
0.1047
1.84
0.1877
0.4681
4.342
0.9418
1.276
1.559
1.142
0.06583
0.07587
0.5472
0.4262
0.6413
0.3801
0.1621
2.372
0.2021
0.1843
0.1969
1.177
0.4138
0.3942
4.117
0.04464
9.581
1.338
0.3716
0.3089
0.02682
0.1688
0.9163
0.4139
1.14
2.434
1.527
0.01803
1.368
1.102
0.472
6.948
1.178
0.123
0.6649
0.01534
0.7297
0.3381
15.41
0.8061
0.03863
0.2988
0.01397
24.21
9.613
0.2761
0.2908
0.659
0.002846
0.04596
0.6831
0.3107
0.1288
0.07374
0.0006757
0.0006792
3.436
0.337
0.1699
2.354
0.7531
5.49
0.4828
1.732
0.4023
0.479
0.05511
0.7914
0.2022
0.9659
7.041
0.4167
0.1691
0.3599
0.3122
0.5023
42.07
0.1157
0.4357
0.1668
0.1816
0.192
0.902
26.47
0.1209
1.098
0.008193
0.6674
14.94
0.06451
26.44
0.5222
0.3141
1.302
0.01158
0.5602
9.075
0.01899
0.5372
0.6831
0.3959
20.12
0.3148
0.2183
0.8233
4.014
0.326
1.028
0.09984
1.032
3.265
43.24
2.918
0.3523
0.02192
2.078
0.123
1.111
9.789
0.1487
0.3389
0.009815
0.2764
0.4574
0.01171
0.1559
0.002433
23.26
0.1602
3.938
0.3989
0.7386
6.014
0.4605
0.5
2.345
49.01
0.4152
0.4397
0.6407
0.4249
0.1873
0.08411
0.4025
0.01717
0.1995
0.05474
0.1924
0.01472
2.75
0.3755
0.1778
0.01533
1.107
0.09908
0.9491
0.1328
0.1978
1.522
0.3785
0.03395
14.44
1.458
3.787
0.6852
0.332
0.8215
0.8582
0.6022
0.09071
1.97
0.3093
0.8207
1.922
0.8752
0.9224
0.1216
0.0176
47.04
0.4095
6.606
0.02491
6.74
2.326
0.9119
0.4341
0.01958
0.01812
0.06792
0.1201
0.04795
0.165
0.44
0.3611
1.183
0.02311
0.2615
4.576
1.615
0.09006
0.3301
0.1903
2.439
0.8894
0.7371
0.9219
0.2129
0.01543
0.594
0.572
5.19
0.7344
0.03374
0.9493
0.01441
0.5542
0.4138
2.87
0.07387
0.03717
0.2379
1.328
6.808
18.23
0.2667
0.3871
0.9244
0.07326
0.01022
20.01
0.8052
9.436
0.07864
4.571
0.3807
0.01395
1.759
4.221
0.1957
0.2509
0.3328
0.7733
0.4875
1.296
0.4222
7.702
0.05105
5.126
1.109
1.012
0.001158
0.001127
0.8452
1.789
77.23
4.776
1.2
1.113
45.26
0.01312
0.495
0.01874
0.01722
0.01391
0.1999
0.004435
19.37
0.02292
19.92
0.3091
2.439
1.946
0.8892
0.001034
29.08
0.1247
14.33
0.2586
4.263
0.01274
0.7963
0.6798
0.2417
2.248
1.088
0.2498
18.7
23.71
0.05169
0.01024
1.96
0.000613
0.1978
0.2775
1.746
0.006608
1.688
0.02967
0.6745
0.8129
0.2694
11.66
0.004944
0.2163
1.031
1.71
0.1042
0.3128
0.2554
0.02074
0.09323
0.8836
88.42
0.922
0.5381
0.01733
3.287
0.2195
0.128
0.000749
0.7005
0.4138
0.878
0.01792
2.649
0.01728
0.8592
0.1056
0.8139
2.021
0.4853
4.679
2.385
0.577
0.007644
0.6754
1.721
0.5486
6.683
1.914
0.1481
0.03275
1.054
58.15
0.7444
6.507
5.77
0.001064
0.1391
0.01517
1.586
1.046
1.137
0.02737
4.117
0.02856
0.1292
0.4153
0.008416
0.1344
0.1253
1.965
0.306
0.01461
0.7519
0.03857
1.921
9.645
0.3681
0.1229
0.7507
0.02298
0.6667
0.3934
10.82
2.284
0.3436
1.261
0.7205
1.417
17.78
0.0445
0.1923
2.126
0.03745
0.791
0.3069
0.2198
0.4431
0.01899
0.007332
1.39
0.1049
0.7447
0.362
7.868
0.3129
4.82
0.2187
0.01853
5.056
0.7876
0.09713
0.8704
0.02508
0.599
0.1442
0.2088
4.148
0.2519
2.019
0.6817
0.7739
0.03596
0.4545
0.6144
1.491
5.793
0.02063
0.3986
2.134
0.01644
0.02044
0.4471
0.0008338
0.9578
0.5494
0.4861
2.356
0.2294
0.2479
0.003005
0.239
0.8919
0.003274
0.2909
7.222
4.294
0.1727
0.514
2.822
0.1601
3.517
0.157
0.5169
4.337
0.0007994
0.001332
0.485
0.0176
1.998
2.219
0.2435
1.96
0.9602
0.02006
1.738
15.5
420.1
0.8055
0.5044
0.8083
0.1549
0.1989
0.2431
0.2758
1.176
0.6331
0.7823
3.041
3.148
0.2707
0.2158
0.01847
17.72
0.1817
0.3207
0.3928
0.04678
0.8855
0.7844
0.1183
0.1661
2.288
1.931
0.4874
1.602
0.2443
8.038
1.315
0.02216
0.7654
1.993
0.4229
0.6124
5.925
0.01731
12.05
13.04
0.6
0.001758
0.219
0.169
1.125
1.191
0.2254
1.499
0.003287
1.605
0.8359
0.06593
0.1858
0.0139
0.8837
18.15
0.4671
1.175
51.94
0.2371
5.859
0.001425
19.35
1.084
0.1512
0.03594
0.1129
0.2916
0.2203
0.4385
0.001408
0.833
7.952
30.67
0.3203
0.3162
0.4175
0.7089
0.01777
0.02112
1.26
0.2214
0.01378
0.4257
0.4643
0.7263
0.4921
0.5177
1.512
0.4262
23.51
3.305
3.167
0.09591
0.6571
6.636
0.1664
1.385
0.1056
0.3089
0.3199
20.01
0.2077
0.2453
0.000854
0.03684
2.047
0.3559
0.01995
0.04583
0.2105
1.886
0.2193
0.7018
4.872
3.995
0.0195
1.276
0.1553
0.4036
2.616
0.1575
0.04238
0.7969
0.4679
0.2276
0.9995
0.03504
3.856
0.1361
1.604
0.08025
0.817
2.407
0.4403
1.332
0.4305
1.179
0.4761
1.392
0.1946
0.171
0.2951
0.255
1.356
0.4237
28.27
0.6389
0.01457
0.483
0.1048
1.459
0.6309
0.003542
0.2654
0.09474
3.955
0.001015
0.3942
0.3712
0.3586
0.1728
0.4307
0.07806
4.076
0.1474
0.0192
0.8559
0.04252
0.2126
0.03327
0.2212
0.1958
0.08386
0.1687
0.5342
1.218
0.02387
0.01656
0.1654
0.2715
2.721
0.03213
0.6363
0.3419
2.649
0.8625
0.1196
1.728
0.4935
0.07165
0.4474
5.265
0.1537
17.63
0.7365
0.1714
8.139
0.01992
0.007712
0.7942
0.1616
46.13
0.02609
0.2236
0.8031
102.9
0.6695
1.714
0.007586
0.007572
0.8197
0.8179
0.3759
5.223
0.03637
0.1788
0.2153
0.1344
1.322
1.124
0.5382
0.3318
2.083
0.06127
0.6929
0.116
0.2874
1.601
1.989
2.361
0.5178
18.74
0.7885
0.9044
0.41
1.14
0.5599
0.08862
2.64
1.808
0.001621
0.001606
0.5682
0.4437
3.052
1.055
4.399
1.106
0.003937
0.02051
1.602
0.0994
0.3493
10.98
4.181
0.1409
0.9631
0.05882
16.9
6.934
0.001192
0.2978
0.357
0.54
0.2641
1.799
0.5244
0.811
0.573
0.2769
0.2871
0.1786
4.809
0.9083
0.4623
0.562
41.57
0.4306
0.7415
0.6759
3.884
1.105
0.5345
5.557
0.1893
1.401
0.01598
0.1973
0.09005
0.5932
0.1386
6.445
0.5406
0.1502
1.399
30.42
1.282
0.5317
0.4587
1.091
7.438
0.003487
0.2707
0.2576
14.73
0.4132
0.2883
0.1064
0.2351
0.02108
0.4506
38.9
0.3031
1.307
0.1772
0.0826
4.934
0.1162
0.5236
0.2043
0.2518
6.375
0.1164
0.5028
0.1358
0.0461
2.61
0.3128
7.313
0.8689
0.6124
0.01008
0.2806
0.5815
1.472
8.462
0.297
0.1278
0.9882
0.01851
1.216
4.818
1.447
2.33
0.6783
3.784
1.111
2.804
4.3
0.2333
2.423
2.169
0.1066
0.07034
3.626
0.0007493
0.1465
0.01938
0.0495
3.675
0.0155
0.7989
1.069
0.1902
0.4473
1.247
4.213
0.3851
8.776
0.4236
0.2167
9.676
0.3731
0.3832
0.01925
5.285
0.2246
1.87
2.841
0.0008715
1.034
1.046
0.2844
0.2539
1.727
10.55
0.9839
0.2748
0.389
0.02192
0.1144
0.06798
0.3713
0.244
0.8122
1.057
0.8485
4.58
0.2097
0.01343
1.185
0.3335
0.1653
0.3668
0.4362
8.548
1.318
5.047
5.071
0.5035
0.5643
0.9064
0.3698
0.4761
0.1423
6.017
1.4
0.4637
1.038
0.01048
2.113
1.136
0.1995
0.2924
5.55
1.609
4.402
0.2693
0.6936
17.49
0.0127
3.775
0.1625
0.03704
0.9875
2.353
0.01479
0.7986
0.2332
0.8157
23.33
0.966
0.9169
32.1
0.2704
0.6115
0.1914
0.1914
0.5283
0.5493
0.751
3.755
0.4164
0.01977
3.783
2.121
0.6882
0.01476
0.01337
0.8371
0.3914
0.5354
86.52
2.125
0.006352
0.9065
4.062
0.1197
1.544
0.61
0.002185
0.2575
1.051
0.1194
0.3095
0.02066
0.01007
0.01435
0.004298
0.06157
0.3342
0.5383
3.802
0.2839
0.5385
0.4146
3.708
0.004307
0.5483
0.2836
1.489
2.442
1.527
0.6929
0.3996
0.8296
0.609
0.45
0.04217
0.4649
58.95
1.297
2.601
0.7997
3.26
0.02058
5.262
0.3891
1.353
0.2128
0.0331
23.22
0.02663
0.3175
2.205
0.004791
1.076
0.3409
0.3039
0.4387
2.953
0.04621
0.7359
0.003925
1.333
0.5357
0.4927
0.1925
2.153
0.01205
0.01576
0.1646
0.9431
1.033
0.07948
0.3051
1.356
0.3026
14.33
0.8694
0.1903
0.1519
0.354
0.3104
0.121
7.71
0.7912
0.02092
9.125
0.01888
0.01255
0.1387
0.0014
16.59
0.2067
1.27
0.2353
1.143
0.03322
0.0773
0.6313
0.7467
0.1816
0.00209
0.2394
68.81
4.939
0.09195
8.882
4.64
13.98
0.001157
0.1708
0.3002
0.101
0.01727
0.1538
4.534
41.36
0.1781
1.15
10.17
0.02128
1.143
3.517
0.3984
0.0263
1.344
47.5
8.743
12.09
0.1581
0.6271
6.275
0.03157
0.349
0.01614
0.2891
4.329
0.13
0.8764
11.29
0.103
0.6293
2.047
0.1686
0.02196
0.7401
1.488
0.1196
1.839
1.06
0.2157
0.1709
0.6146
0.5705
0.2988
0.02157
0.8333
0.8503
0.7934
0.5884
3.04
0.7749
9.451
3.992
14.63
15.25
0.8414
0.05157
4.829
0.02004
1.457
5.364
0.02191
181.4
0.1308
0.4555
5.876
1.441
1.941
7.46
0.6255
5.015
0.01586
103.6
1.177
0.0006606
0.1679
0.4203
41.24
4.973
4.771
0.2157
1.566
28.34
0.338
0.1435
0.4592
8.997
0.008266
0.2922
0.4023
0.5872
0.3096
0.2994
0.1381
2.662
0.5915
1.05
8.185
0.01509
2.539
0.1558
0.5042
0.4708
0.01766
0.07811
0.4506
1.563
1.389
3.56
0.0006275
0.0156
0.2323
0.8509
7.276
0.2449
0.1282
0.005691
0.023
1.903
0.005704
0.6041
1.62
0.0878
0.5831
0.3265
4.577
3.631
5.687
0.03809
0.9122
0.3413
1.182
0.1464
0.1681
5.221
0.1813
2.986
0.8317
1.468
0.4613
0.4597
18.51
0.3181
0.3422
0.5866
0.0008207
0.4677
0.0665
0.01787
0.4072
13.16
0.3718
2.906
0.3027
4.996
34.16
0.1574
9.793
0.003805
0.1398
0.03307
0.0406
1.141
0.127
4.754
3.934
0.5719
1.777
0.1656
0.51
1.87
0.4632
0.1756
1.981
0.2146
12.53
0.9543
0.001931
0.4102
0.3366
0.0596
0.02467
1.585
0.0307
1.761
0.644
0.8758
0.4479
2.136
0.001039
0.1196
0.04463
1.881
4.141
3.742
0.4818
0.01418
2.69
0.01255
0.1205
0.4494
0.2148
6.602
0.5779
1.105
0.1562
13.23
0.4907
0.00348
0.2485
0.5679
0.04476
0.3535
0.03167
0.9293
1.397
5.205
0.314
0.006038
0.9246
0.7103
1.478
3.351
1.61
1.07
0.01737
0.188
0.2988
0.4637
1.3
0.2424
0.08228
0.928
0.1285
3.249
1.539
0.003882
0.1642
0.0157
0.02626
0.4105
1.364
0.7567
0.01822
0.6481
1.967
0.5336
0.06912
0.6355
0.09768
1.721
0.002641
78.69
0.6193
1.854
0.000913
0.07148
3.814
0.02485
0.4635
1.071
1.665
0.5264
0.7697
0.02694
0.6084
0.6014
0.9202
0.3275
0.8514
0.2285
0.2407
0.7819
8.21
0.01272
0.2918
0.4994
10.52
0.2834
0.07641
2.719
2.249
0.2644
0.3537
0.3086
6.082
0.03455
0.2488
0.8048
0.1626
0.5648
0.44
0.002051
1.916
8.702
0.5421
0.5431
5.566
0.8753
0.5468
0.01923
0.02413
0.08979
0.001066
37.21
0.5049
0.04471
0.01652
0.3648
8.244
0.04135
0.2168
2.191
0.5125
0.5807
1.236
16.43
0.9593
3.604
1.176
4.267
2.323
0.01774
0.3675
0.5232
0.467
0.02328
0.1164
0.4293
0.2478
0.5163
25.43
6.648
0.09425
0.8645
4.569
0.1709
4.151
0.2142
0.471
0.2703
2.758
4.046
0.01853
1.921
0.3689
0.0432
3.467
0.2207
1.038
0.07203
0.7419
1.309
0.5195
1.435
0.01401
0.0186
0.09757
0.546
0.1716
0.3664
0.02002
5.469
0.1516
0.2382
0.7228
1.808
0.1286
0.9643
0.009923
4.1
1.495
23.56
0.8818
0.06982
5.223
0.5744
1.019
9.363
0.1222
4.107
0.1012
0.1028
0.2637
0.06611
0.01788
25.23
0.4972
1.961
1.113
0.8071
0.3673
0.001549
22.27
0.03433
0.8188
0.1632
0.2015
2.294
0.264
0.3921
0.7294
0.1395
0.7863
0.008204
0.4451
1.306
18.36
5.549
0.09081
0.3396
0.2621
0.1648
0.8004
0.7686
0.05418
0.03322
0.4796
4.667
0.003077
0.01222
0.2661
1.076
0.1624
11.86
0.1397
1.402
0.4436
0.3813
0.07035
0.1013
1.287
1.508
1.042
0.2912
3.879
0.09957
2.218
0.001468
1.519
14.65
0.03518
0.4501
0.1915
1.846
2.144
0.8617
0.07977
0.01034
0.8312
0.1603
0.01681
1.506
3.516
0.1822
0.1567
0.07827
0.06632
0.02259
3.791
0.3153
0.0202
8.718
0.8829
0.9401
0.02214
0.03844
0.01584
0.04062
0.5521
0.1545
1.041
8.023
3.432
0.7955
3.929
3.867
0.0178
8.998
0.9362
1.125
0.1393
0.1584
0.4279
1.703
2.011
4.601
0.5502
0.03363
0.3067
2.297
0.3552
0.8964
0.1175
0.5115
0.1541
1.718
0.001196
0.4082
0.5752
0.5332
0.4275
2.191
9.853
4.481
0.01037
53.02
0.4254
0.1716
5.057
0.0291
0.9428
0.6466
0.00667
1.919
3.554
0.2052
0.5145
0.1304
2.833
0.01723
0.3055
6.044
0.2075
0.01655
1.61
0.2439
0.02901
0.2862
0.155
0.5201
7.037
1.041
0.8857
0.2168
0.9698
1.039
0.01923
0.03227
2.835
0.402
0.5365
0.06825
5.119
0.5349
0.271
0.5621
0.2935
1.102
0.03423
0.05711
0.6091
0.5385
0.05123
0.6221
1.584
0.1487
1.147
1.396
0.1567
0.04981
0.1381
0.2967
0.7354
0.5061
0.06472
0.9038
0.003098
0.2545
0.4387
0.1687
1.305
0.41
10.65
0.2629
0.3525
0.01235
0.00727
0.2597
0.2727
1.782
4.591
0.3976
1.127
7.183
0.7531
0.444
0.8946
0.7618
4.093
0.8277
0.03831
2.205
0.3659
1.301
0.2431
0.1933
0.2917
0.5721
0.03874
0.5088
0.1012
0.02206
0.07998
2.202
0.01471
12.06
1.483
0.7408
0.0178
0.6824
0.7652
0.001007
0.5836
0.9213
1.199
0.5319
1.119
0.03388
1.339
0.1178
0.1674
1.051
6.703
0.4432
0.7581
6.768
0.006792
0.02525
0.6415
1.125
1.857
0.1928
1.536
1.292
0.2476
0.1831
0.01768
6.575
1.461
0.122
0.2302
0.0165
1.162
0.08052
0.9321
0.9922
0.4618
0.01242
10.49
0.8327
0.01915
0.6136
1.197
0.07765
0.01101
0.0118
1.123
25.26
0.354
0.1164
0.326
0.0779
0.5554
0.4894
0.01343
0.4412
0.4099
6.408
6.954
1.275
0.01215
0.9024
0.4056
1.007
0.8841
6.275
0.7065
0.7432
0.6608
0.5046
1.133
1.92
0.09999
0.001092
0.1152
0.0326
8.055
0.01734
0.1939
0.9407
0.3778
0.1838
6.868
0.6117
18.69
0.1899
15.4
0.4784
0.1998
1.775
5.735
0.2289
4.917
14.01
0.02175
5.076
6.797
2.604
2.567
0.7951
0.1641
0.4864
0.3893
0.4623
0.04474
0.3462
0.1931
0.3985
0.2712
0.3122
0.549
0.1661
0.1096
3.956
0.6418
29.99
0.3949
0.9035
0.006037
1.409
0.5106
2.249
0.2231
5.191
1.055
0.5761
0.1037
4.402
0.1021
0.3566
0.3798
0.05467
0.2057
0.2609
0.3853
0.462
0.4796
0.2223
0.6462
0.2508
5.548
0.3953
5.757
0.04738
0.2911
0.4332
0.1649
0.0409
7.505
0.02008
0.0145
0.02114
0.2726
0.4754
0.8557
0.0644
0.216
0.2694
0.05456
7.389
2.92
3.846
0.5383
0.06387
1.108
21.91
0.06367
0.9346
0.03232
0.6054
0.1317
0.6605
0.1709
0.01096
0.008774
0.6937
0.1458
0.04612
9.278
0.5488
0.05485
0.02653
0.3357
0.03181
1.969
2.96
0.00482
0.6247
0.636
4.65
2.005
10.58
1.594
0.1063
0.287
0.6545
0.226
1.171
0.9727
0.7587
1.324
0.356
6.843
0.01905
0.9412
2.474
10.35
0.04004
0.2421
0.02235
0.2634
0.2423
1.026
0.7719
0.5637
6.18
0.1403
1.264
10.5
0.74
2.509
1.043
0.297
0.2605
0.4488
1.151
0.233
1.578
0.002977
4.14
5.178
1.497
0.2708
0.5125
3.627
0.7294
0.2449
0.04477
62.93
0.3707
0.0007695
0.00138
0.00304
0.7205
8.388
0.1919
26.31
0.5303
0.001084
0.7822
0.4915
0.3622
0.9077
57.64
2.467
0.3637
7.263
0.2525
0.3969
7.876
0.2839
0.375
0.1599
1.518
0.2379
0.2436
0.2783
0.903
0.1934
0.7363
1.061
0.1836
3.543
0.7094
0.06156
4.991
0.2479
10.35
0.8009
0.008226
0.109
1.174
0.02251
0.2482
4.401
2.798
0.1577
0.01207
0.1381
0.2434
0.2462
0.05039
0.8963
0.009856
0.8624
0.3896
0.5541
0.6731
0.9396
0.9089
1.264
4.86
0.4815
0.345
0.02787
12.12
0.04158
0.001374
0.6263
0.01815
2.988
0.16
3.141
0.04482
1.283
0.4763
0.7002
0.8964
0.09353
0.3392
0.2583
1.094
1.562
0.4546
0.068
0.01615
0.5053
1.181
0.0947
0.3228
0.7967
1.301
1.344
0.007694
0.3214
1.26
4.861
0.5514
0.3386
1.351
0.6514
0.01993
0.2212
25.3
1.137
0.04671
0.1471
0.7995
0.1026
0.4954
1.743
0.6743
0.04695
0.05297
0.1266
0.01385
0.01312
0.02444
0.1367
17.67
1.446
0.1366
0.4715
0.1959
0.07574
0.1591
0.2214
0.7177
0.04664
0.03319
1.288
0.08767
0.02136
0.9215
0.499
0.1224
3.838
5.46
0.0208
0.4413
0.2851
0.6929
0.4188
1.302
0.1633
0.8024
3.403
0.4793
5.691
0.1587
1.956
0.3177
0.6449
0.293
12.02
0.06235
18.16
0.6851
0.02176
0.02857
0.004151
0.4861
0.2703
3.034
2.735
4.469
0.0772
0.01053
1.147
1.438
0.1699
0.01722
1.211
0.1714
1.849
0.4968
10.8
2.239
1.511
1.679
0.5118
0.1028
2.189
0.5661
0.2948
0.3256
0.05581
0.01598
0.2328
0.2315
1.335
6.481
0.3348
0.02964
1.549
0.07356
0.1244
0.01776
3.386
0.4579
1.405
0.9987
0.408
0.2758
0.2938
0.2086
0.1925
0.5743
0.1748
0.1326
0.04201
0.4531
11.32
0.1142
0.4556
18.94
0.005866
0.02122
0.2052
0.02439
0.05712
3.703
0.06529
0.06519
0.6918
0.01294
0.2841
2.733
0.721
0.1598
0.1443
0.03383
0.05188
0.3043
0.5698
1.906
5.866
0.28
0.004784
0.1563
0.913
1.671
0.07867
0.04714
0.04236
3.483
0.12
0.07077
0.4271
0.7515
0.06799
0.02614
0.8984
0.01188
0.0187
0.01126
6.225
0.05639
0.7368
0.1491
0.0257
0.05901
0.1552
0.2411
1.437
0.2583
0.3672
0.3321
0.106
7.592
0.276
1.455
0.03743
0.6697
0.4951
0.528
0.7201
0.1974
0.5344
0.2993
0.1502
1.433
0.06592
137.3
0.5888
14.22
0.103
3.52
0.01979
0.04452
0.3595
1.795
0.1955
0.7528
0.1387
0.001438
19.8
0.001423
1.044
26.88
0.1286
0.2621
0.002059
6.037
0.01777
0.1895
0.227
0.591
0.654
0.01649
24.97
0.02998
0.5506
1.196
0.6525
0.7867
14.34
0.4695
11.45
0.3885
0.01429
0.2102
1.52
0.02041
0.0835
2.254
0.167
18.31
2.288
4.5
0.02649
0.3126
0.02555
0.01605
0.02518
2.695
0.1428
0.186
0.001144
0.2902
0.2233
0.9234
0.5442
11.09
0.01759
0.8382
3.527
0.5317
0.1269
0.2452
0.03331
0.3456
0.00584
0.3182
0.9401
0.01623
0.5664
18.84
0.6005
1.985
0.2485
5.186
2.465
0.5
1.995
5.526
0.7006
4.077
0.6811
0.246
0.9042
0.3654
0.3839
1.077
0.7502
0.003763
0.6655
0.002586
1.732
13.41
0.4732
1.398
12.33
0.1992
0.5883
0.001238
0.6713
0.3087
25.86
0.1706
0.01154
0.2263
0.5429
0.5642
0.001196
0.6763
0.5576
0.2717
0.2619
3.297
2.074
14.2
0.4794
0.8104
0.5094
0.2371
0.7588
0.02037
2.72
1.353
0.01823
0.3365
0.325
0.5591
1.153
1.727
0.05825
3.801
4.697
0.07776
1.024
3.259
5.453
1.379
0.004776
0.001878
0.807
0.5131
0.3928
0.01226
3.511
0.5629
2.055
7.707
0.007744
0.5619
2.522
0.2939
16.71
0.5369
0.6407
0.907
0.2627
0.641
0.01816
0.3534
14.1
0.6523
0.6304
0.1934
0.2355
0.009629
0.002929
0.5539
0.4486
0.2497
1.055
0.3428
0.01552
1.401
1.05
0.1605
1.597
29.17
2.425
0.001143
0.1426
0.02022
0.609
1.313
1.142
2.71
1.855
2.203
0.02847
0.9169
0.0315
0.1451
1.743
0.3058
3.922
0.618
26.65
0.04044
0.771
1.918
0.01754
0.492
0.405
4.856
0.1592
0.03782
0.01596
0.003865
0.3174
0.01532
0.2551
2.211
0.2299
0.2412
0.5784
0.04723
0.4442
0.1663
0.003609
2.237
1.833
5.174
0.5339
0.01706
1.37
1.801
0.02079
3.101
0.1707
1.599
0.3704
14.44
0.4223
2.943
0.2027
0.1734
0.04183
0.1919
0.04363
0.06232
2.906
0.3997
0.4995
0.3895
0.4425
0.5609
0.01902
0.06054
0.06964
0.415
0.2754
0.6901
8.91
0.1123
0.02276
1.64
0.1188
3.023
0.01164
0.787
1.221
0.2232
0.1872
1.42
0.8486
0.797
0.3019
0.7516
0.01612
1.417
0.2084
0.3985
1.094
7.567
1.56
0.0742
0.3396
0.29
0.2426
36.49
0.01598
1.05
0.4018
0.3198
0.3493
0.3027
25.11
0.3511
6.123
1.029
18.02
0.297
0.2988
5.434
1.296
0.02312
0.6014
0.2117
0.8016
1.268
0.2203
3.285
0.001286
0.81
3.202
1.599
0.9236
2.222
2.172
0.02046
0.9153
0.9406
0.6004
0.1237
0.05041
0.6263
0.3221
0.7776
2.948
0.01016
0.7043
0.1793
0.2352
0.431
1.358
1.328
0.2736
1.353
1.799
0.006695
0.467
0.2902
10.66
1.197
5.577
0.3482
0.324
0.2731
0.125
0.5746
0.8611
5.421
1.98
4.827
28.28
0.3686
0.1129
15.05
1.265
1.725
0.001165
3.035
6.652
1.175
0.4171
0.01547
1.701
0.02492
0.2542
1.584
0.3977
0.9072
0.2077
1.532
0.2428
7.874
0.2323
0.8338
0.8613
5.627
1.001
0.7945
0.2924
0.1927
9.318
0.205
7.124
0.4411
0.3642
0.02818
7.504
0.1593
0.0571
0.01871
0.2648
0.5971
0.02983
0.006625
0.01776
0.854
2.17
25.12
0.08112
0.001946
0.4367
0.006335
0.004798
1.06
0.0007556
0.4068
8.726
0.04981
1.116
0.5216
0.972
0.1302
0.5313
0.06308
0.8041
0.2163
14.55
0.2927
0.7118
1.014
1.592
0.09406
0.001948
0.1543
1.737
0.01909
0.1184
0.5358
1.565
7.241
0.7619
0.3952
1.527
0.0153
0.5225
1.55
0.5994
0.437
0.3717
0.0006102
0.3808
0.3217
1.294
0.5295
0.5995
0.001487
1.84
0.7116
0.00127
0.2432
0.000583
0.8962
0.01817
13.87
9.949
0.02541
0.7836
0.6382
0.1042
6.742
1.246
0.01574
1.869
0.4078
0.5616
2.271
0.04021
0.08259
7.87
0.3399
0.7155
0.154
0.3172
0.189
0.2476
0.4897
0.001192
0.2701
0.9812
0.3921
0.2706
0.2059
1.298
0.291
0.3975
1.559
0.3565
0.2126
2.852
0.03123
0.1949
3.189
0.2219
0.04386
0.2056
0.4513
1.33
0.4704
0.4788
6.58
0.2275
0.8118
0.3432
0.003947
0.3554
2.108
0.1995
1.198
0.03948
1.377
0.1465
0.3531
0.08621
0.1559
2.405
1.103
0.231
0.485
7.988
0.4382
0.008632
0.01415
0.2208
1.877
1.89
0.3455
0.3034
0.1715
0.7823
0.1034
0.1553
15.76
0.1565
0.1475
7.97
0.7303
0.2751
0.2201
0.06008
125.3
0.01526
0.3019
0.6949
0.5396
0.486
0.6106
3.348
0.1788
0.7477
0.09253
75.51
1.016
0.1994
82.51
6.138
1.325
0.9026
0.003012
0.1459
0.0858
3.745
0.04084
1.586
14.31
0.06808
0.8536
0.2705
0.2843
6.551
0.8208
7.256
4.281
0.5153
0.007535
0.007602
0.02473
0.7945
12.14
0.2507
0.0161
0.07741
5.598
0.6554
7.177
0.4408
0.01458
63.71
0.05107
0.1919
0.1719
0.03473
0.2978
0.1758
0.1971
0.0628
2.463
0.2181
0.4791
0.4149
47.29
0.1953
1.421
0.6615
0.1625
0.09465
49.34
1.413
4.886
0.4729
0.9965
3.267
3.042
0.09679
0.3
0.749
0.5958
1.819
0.002189
12.46
0.2797
5.397
0.2109
0.03434
0.05851
0.01489
0.7468
0.3158
0.4406
0.7455
0.2267
3.289
0.6876
0.2587
0.1432
2.728
0.1132
0.976
1.503
1.259
0.1799
0.0631
0.2769
0.2833
0.5156
0.1287
0.6564
1.465
6.116
0.3119
0.291
2.046
0.3813
2.404
0.3303
0.7853
0.1068
5.074
2.163
1.417
0.3127
3.01
0.06247
2.6
1.433
0.4509
0.3596
0.498
0.8116
0.9725
0.2546
0.4224
0.4325
2.277
26.23
0.002998
0.03236
0.01245
0.4852
0.8133
0.4208
4.08
2.155
3.962
2.932
0.5478
2.007
4.045
0.2218
1.074
1.72
0.6734
6.017
0.01727
10.27
2.367
2.462
0.08593
2.232
0.4911
0.6159
1.405
2.151
0.01554
0.07108
0.606
2.761
0.00517
0.5733
0.1003
0.4702
232.8
0.001281
0.1968
0.1739
0.7108
0.9011
0.1935
0.5574
1.377
0.7708
2.425
0.9001
0.04418
0.2038
14.77
0.02122
0.01724
7.518
3.616
0.4969
0.8427
0.06508
0.542
1.212
0.8431
2.119
0.5561
0.0366
0.7339
0.1703
0.1616
0.01122
0.8044
0.00633
66.9
0.7372
1.174
0.1317
12.26
0.01342
1.378
0.005136
0.1048
4.45
0.2388
8.315
0.1543
0.06567
0.5332
0.6825
0.2477
0.4735
0.2844
1.064
2.128
0.7604
1.15
2.181
6.521
1.062
0.4212
0.7698
5.905
0.739
0.4335
0.1713
0.008553
29.46
0.4541
0.6338
7.48
0.017
2.149
0.1392
0.008262
0.2168
86.49
0.1282
0.8729
16.78
0.06423
1.085
0.8119
0.2167
0.155
0.4928
15.8
2.335
0.02228
6.392
23.1
0.07564
0.01629
1.119
1.63
0.7919
1.713
0.5894
3.309
0.01738
0.808
0.1587
3.58
1.522
7.85
0.00829
0.008374
0.1612
1.157
0.03351
0.2362
0.2165
3.95
0.2698
0.4125
1.321
0.08236
0.01828
7.325
4.46
4.561
1.972
0.04122
0.6889
0.002811
0.4851
9.027
0.9458
1.483
3.947
0.9924
1.106
1.151
0.5483
0.4702
0.02117
0.01717
0.02001
0.1774
0.8659
0.9588
6.228
0.7239
0.01788
0.7766
0.9622
2.135
8.292
0.5841
0.9269
1.987
2.495
0.07957
0.3541
0.2227
1.633
0.07742
2.103
0.2533
0.373
0.7589
2.171
0.004528
0.01519
3.728
0.2668
0.1703
0.3064
9.218
0.4658
0.004909
0.4532
0.3713
0.5536
0.4477
1.686
0.8048
1.133
5.565
0.09396
0.0005932
0.4705
0.05817
0.1122
0.06663
8.589
0.2383
1.454
0.3146
0.3344
0.7447
0.02489
1.584
1.484
0.4364
0.3235
1.933
22.07
0.03242
0.01653
1.941
0.3797
0.5488
0.2486
0.1233
1.438
0.04841
0.02924
0.6419
3.281
0.01978
1.258
0.9993
0.01324
3.861
0.03621
0.4206
0.4446
2.2
0.2036
14.67
1.583
0.4405
0.03674
0.01543
0.25
0.3187
0.401
0.2004
0.007323
0.007089
0.02053
0.6142
0.509
1.714
0.0007053
1.156
0.301
1.122
0.4779
2.902
0.1377
0.03261
2.755
0.0177
5.269
0.7061
0.03067
0.6038
0.467
1.742
0.7206
0.5184
0.2129