/*--------------------------------*- C++ -*----------------------------------*\
  =========                 |
  \\      /  F ield         | OpenFOAM: The Open Source CFD Toolbox
   \\    /   O peration     | Website:  https://openfoam.org
    \\  /    A nd           | Version:  8
     \\/     M anipulation  |
\*---------------------------------------------------------------------------*/
FoamFile
{
    version     2.0;
    format      ascii;
    class       volScalarField;
    location    "10";
    object      nut;
}
// * * * * * * * * * * * * * * * * * * * * * * * * * * * * * * * * * * * * * //

dimensions      [0 2 -1 0 0 0 0];

internalField   nonuniform List<scalar> 
127143
(
9.062e-09
7.422e-10
1.753e-09
7.014e-09
3.947e-06
7.082e-09
2.959e-06
7.06e-06
4.179e-06
3.141e-06
2.372e-06
5.973e-06
4.124e-09
9.687e-09
0.0009128
6.977e-06
6.027e-08
0.03836
0.02016
5.864e-06
0.004931
1.552e-05
0.0615
0.0009205
1.478e-05
9.099e-05
6.115e-05
5.152e-05
8.481e-05
0.05269
0.000519
8.822e-05
4.431e-05
0.0001028
0.1568
4.467e-05
0.002163
0.01452
0.001338
0.0001024
0.02019
0.01484
0.01753
5.602e-08
0.03694
0.0001077
8.831e-05
0.005239
0.001111
0.001157
7.342e-06
0.4063
0.004781
0.04033
0.5089
0.0005474
0.5052
0.02808
0.479
0.04092
0.01805
0.01347
0.003522
0.6153
0.0004569
0.01801
0.1491
0.003087
0.003196
0.4
0.0007296
6.542e-05
0.01142
0.4849
0.5791
5.837e-05
0.5387
0.002891
0.0005679
0.6344
9.728e-05
7.282e-06
0.0003286
0.0001481
0.006829
0.00343
0.001824
5.095e-05
0.01909
0.001284
0.4407
0.04311
0.001854
0.005005
0.001878
0.0395
0.01562
0.0003108
0.00463
0.1531
0.6353
0.001225
0.0005242
0.0123
0.003625
0.004432
0.003081
0.4009
0.009064
0.5105
0.001008
5.139e-05
0.00324
0.005254
0.5746
0.01368
0.5338
0.5792
0.5415
7.466e-06
0.5133
0.0003786
0.003287
0.04105
0.0001018
5.169e-05
0.00947
0.4936
0.002617
0.0005238
0.00207
0.001709
0.00544
0.002981
1.43e-06
0.002165
0.1942
0.006591
0.0001914
0.2052
0.04287
0.556
0.006528
0.009425
0.004897
0.004
0.0001772
0.6205
0.001622
0.0003806
0.009868
0.001329
0.01595
0.07177
0.002207
0.007035
0.02811
0.0004978
0.005375
0.0002258
0.0007851
8.189e-06
0.4299
0.002072
0.000178
0.000561
0.001706
0.01459
0.0005248
0.4223
0.0002977
0.009402
0.0117
0.004946
0.3651
0.002003
0.00429
0.002632
0.001177
0.2922
0.004966
0.2031
0.001857
0.002029
0.0005617
0.01393
0.05743
0.005479
0.001069
0.3191
0.003541
0.002001
0.2014
0.002532
9.281e-07
0.009498
0.5573
0.5572
1.107e-06
0.5711
0.5686
0.4091
0.1082
0.002362
5.085e-08
0.002261
0.1228
0.006603
0.05784
0.5747
0.08291
0.005094
0.5631
0.0005416
0.001328
2.447e-06
0.0001276
0.006227
0.002508
0.124
0.004753
0.5835
0.001253
0.005285
0.0001995
0.0002679
0.0002819
0.01495
0.0005478
0.006733
0.004585
0.2115
0.0123
4.038e-06
0.00465
0.06804
0.00208
8.043e-07
0.5685
0.004275
0.002108
0.0007239
0.003386
0.000522
0.009308
7.932e-06
0.001981
5.568e-05
3.287e-06
0.4152
0.008672
0.0001003
0.005163
0.006609
0.0009118
0.008781
0.4955
0.0007177
0.007607
0.1049
0.009496
0.3136
0.04468
0.5568
0.005967
0.000658
0.0007329
0.001642
0.01282
0.01413
0.0002264
0.3659
0.006619
0.004175
0.004986
0.003683
0.003311
0.001541
0.3141
0.007591
0.4261
0.03535
0.01282
0.5761
0.5742
8.168e-07
0.001881
0.5742
0.001428
0.2803
0.0166
0.02894
0.06912
0.01015
0.5329
0.006818
0.0005394
0.0004013
0.00339
0.01475
0.0003011
0.02011
0.02116
0.01438
0.0001714
0.003007
0.006811
0.5627
0.02206
0.006964
0.002735
0.0002248
0.0004385
0.4313
0.5729
0.001865
0.01194
0.0002882
0.05738
0.1583
0.06465
0.0006415
0.3766
0.005113
0.001803
0.009436
0.2746
0.0002425
0.0007072
0.004647
0.009468
0.5742
0.1607
0.5386
0.5385
0.07546
0.009075
0.01196
0.009428
0.001704
0.2119
0.006197
0.005566
0.003865
0.00546
0.001366
0.000718
0.002677
0.000345
0.0022
0.0003957
0.02479
0.001993
0.00375
0.3638
0.0008303
0.006497
0.004585
0.4016
0.0006672
0.008172
0.003895
0.05137
0.001189
0.001207
0.5907
0.5714
0.2073
0.000376
0.3118
0.01002
0.3733
0.0001744
0.001111
0.3336
0.107
0.000639
1.488e-05
0.005214
0.3098
0.03677
5.878e-05
0.0004826
0.01937
0.5376
2.056e-05
0.2162
0.0001153
0.009009
0.02068
0.5175
0.02737
0.0004151
0.0009247
0.00104
0.000499
0.02716
0.0006097
0.3645
0.3245
0.000116
0.5842
0.005201
0.001963
0.2136
0.00783
0.004018
0.005266
0.6365
0.001343
0.004251
0.0003651
0.04396
0.006058
0.003582
0.001967
0.003632
0.0001876
0.01367
0.001399
0.001815
3.559e-05
0.001039
0.4154
0.006502
0.08596
0.01906
0.06069
0.0008407
0.09964
0.4991
0.001066
0.001792
0.06605
0.006497
0.5906
0.006592
0.0008396
0.414
0.5376
0.5732
0.001316
0.1881
0.0082
0.5001
0.0003434
0.5712
0.001479
0.2049
0.0051
0.00482
0.0006274
0.008599
0.0003349
0.2062
0.002624
0.0002529
0.001043
0.003061
0.01624
0.005857
0.004121
0.01601
0.007175
0.003929
0.3779
0.5642
0.005156
0.0005844
0.4411
0.005775
0.0419
0.04169
0.01237
0.1498
0.3829
0.002416
0.04367
0.0004265
0.007106
0.0001156
0.001599
0.001056
0.0004507
0.005201
0.006715
0.008302
0.566
0.0003054
0.5496
0.002395
0.002043
0.004222
0.004001
4.223e-07
0.00173
0.007698
0.06192
0.006487
0.5683
0.000114
0.5637
0.002658
0.009973
1.497e-07
2.829e-06
2.303e-06
0.5882
0.0008604
0.003128
0.5732
0.009512
0.002796
0.001992
0.01094
0.004636
0.0006036
0.005827
5.822e-05
0.3854
0.004019
9.86e-06
0.001159
0.0003266
0.0003394
0.494
0.01034
0.116
0.01668
0.3734
0.0002541
0.0002843
0.0004087
0.4457
0.005102
0.06139
0.0002159
0.004512
0.0003396
0.01963
0.5407
0.0007926
0.005373
0.4487
0.01944
0.01489
0.0006343
0.001256
0.0005232
0.0002914
0.009338
0.009949
0.001681
0.002149
0.00115
0.537
0.0001399
0.002368
0.0003189
0.004701
0.003942
0.6171
0.6087
0.1128
0.000677
0.005857
0.5723
0.3412
0.006863
0.0007436
0.003948
0.005095
0.0002105
4.166e-05
0.01093
0.5508
0.4921
0.0003952
0.004844
0.003681
0.4338
5.959e-05
0.005775
0.001326
0.3139
0.0001691
0.5722
0.004293
0.002195
0.02178
0.3017
0.0006879
0.009536
1.98e-05
0.3826
0.003298
0.0001289
0.5728
0.008002
0.5732
0.001849
0.008444
0.5761
0.0004416
0.0007597
0.0002119
0.002341
0.007372
0.0004303
0.0005138
0.003471
0.001507
0.002029
0.001275
0.001796
0.00491
0.0002118
0.4445
0.0005
0.5743
0.005976
0.4974
0.006765
0.4887
0.5742
0.02584
0.001448
0.003582
0.4645
0.5347
0.0006055
0.0001634
0.0004676
0.0003482
0.01027
0.008351
0.004849
0.004084
0.003956
0.0007936
0.000409
0.4635
0.001452
0.004263
0.02049
0.02198
0.4095
0.3394
0.009801
0.0002467
0.008318
4.238e-05
0.5013
0.3015
0.001663
0.001221
0.4201
0.0004569
0.04712
0.1011
0.000451
0.007858
0.004413
0.05275
1.88e-07
0.0002987
0.003159
0.002605
0.001926
0.001687
0.0002132
0.0009645
0.4432
0.002855
0.0007338
0.005385
0.5247
0.001701
0.02188
0.02713
0.4513
0.5246
1.986e-05
0.06117
0.0007281
0.001992
0.002028
0.02189
0.02119
0.0002558
0.05741
0.0009534
0.5661
0.4792
0.00759
0.08661
0.0004544
0.02775
0.0003203
0.01066
0.001022
0.08666
0.05287
0.3032
0.0003819
0.1476
0.0008178
1.123e-06
0.005254
0.006266
0.005494
0.3043
0.00394
0.001214
4.115e-05
0.03039
0.01212
0.003971
0.0004503
0.003563
0.001265
0.01697
0.001121
0.003309
0.007295
0.009763
0.0267
8.208e-08
0.02145
0.4284
0.002601
0.00254
0.002102
0.5626
0.001281
0.02535
0.004049
0.3115
4.107e-05
0.001158
0.0001633
0.358
0.0008707
0.001848
0.0009615
0.001866
0.3483
0.005335
0.0003733
0.0004386
0.006269
0.5702
0.005611
0.002105
0.5532
0.006307
0.01512
0.001806
0.001765
0.02111
0.005061
9.245e-05
0.000873
0.3798
0.005275
0.0125
0.0001077
0.0004152
0.03907
0.009774
0.0003228
0.4006
0.002123
0.0004624
0.007126
4.701e-06
0.007238
0.0004327
0.003782
0.003686
0.009954
0.5903
6.963e-08
0.002098
0.002483
0.0002193
0.003744
0.0009093
0.001352
0.0008668
0.4972
0.02686
0.01183
0.3123
0.001088
0.002439
0.002965
0.003357
0.4263
0.005103
0.001872
0.5663
0.4103
0.02194
0.01296
0.01027
0.0009148
0.004349
7.122e-06
0.009841
0.03001
0.5279
0.00332
0.001948
0.0005613
0.0002247
0.01543
0.4246
0.5017
0.078
5.626e-05
0.5269
0.09491
0.0003624
0.003898
9.351e-05
0.4513
0.003528
0.003817
0.581
0.0003597
0.5156
0.002117
0.0002878
0.001316
0.008523
6.765e-05
0.4632
0.0004618
0.04566
0.0002739
0.0005169
0.0001943
0.0003847
0.03948
0.01833
0.01077
1.258e-05
0.5785
0.02026
0.0007098
0.0009979
0.0007192
2.254e-05
0.4276
0.1087
0.000387
0.0001102
1.404e-05
0.002704
5.206e-06
0.001302
1.061e-05
0.001715
0.0002651
0.02757
2.387e-05
0.5405
0.002521
0.2915
0.2935
0.005794
0.4545
0.002509
0.01449
0.005425
0.01971
0.2692
0.001485
0.002342
0.5188
0.03482
0.002285
0.2804
0.0004053
7.147e-06
0.001792
0.006265
0.0009821
0.01188
0.000666
0.571
0.004331
0.0008503
0.412
0.0005344
0.002376
0.0148
0.4259
0.1474
0.03881
4.198e-06
0.007373
7.374e-06
0.005931
0.003561
0.002941
0.0001122
0.001084
0.2927
0.0002053
0.0208
0.2917
0.007607
1.183e-05
0.02905
0.0008907
0.01013
0.01245
6.967e-05
6.392e-06
0.0009098
0.5523
0.5823
0.006586
0.005674
0.001544
0.000471
0.003838
0.000211
0.0009845
0.09025
0.0002086
0.1885
0.0001206
0.5659
0.005086
0.0001471
0.006974
0.001104
0.004799
0.5776
0.5635
0.0002849
0.03572
0.001077
0.001015
0.0005611
0.007231
0.009384
0.002379
0.001407
1.517e-05
0.005143
0.000424
0.0003941
0.008347
0.008149
0.002674
0.0009645
0.000111
2.311e-05
0.004617
0.5625
0.5521
0.00617
0.003437
0.01837
0.6139
0.003839
0.004807
0.0242
0.0006723
0.01026
0.0006788
0.008025
0.6368
0.02669
0.02378
7.34e-05
0.0001799
0.00176
0.0218
0.02213
0.0004211
0.0009749
0.006127
0.01225
0.003008
0.001957
0.001724
0.0001879
0.4174
2.209e-05
0.0001042
0.01286
0.002489
0.0009066
0.5725
1.59e-05
1.521e-05
0.423
0.6045
0.003766
0.004001
1.055e-05
0.0005728
0.002681
0.0009494
0.000515
0.02518
0.024
0.406
0.0004201
0.005202
0.0007939
0.01049
0.0001862
0.002883
0.4504
1.689e-05
0.001394
0.5685
0.001123
0.4299
0.5679
0.00635
0.05675
1.701e-05
0.5623
0.0003659
0.5805
0.002181
0.0681
0.0361
0.01083
0.0005561
0.0007699
0.0004151
0.004882
0.384
0.1855
0.007111
0.00163
0.0008736
0.0006309
4.596e-05
0.0004505
1.11e-05
0.002185
0.0008946
0.0008418
0.0007144
9.345e-05
0.03663
0.02931
0.3392
0.0007
0.00111
0.0002259
0.3793
0.001024
0.007535
0.002923
0.002451
0.00338
0.01841
0.0002526
0.01329
0.002974
0.0009621
0.0004791
0.0004997
0.4574
0.006856
0.0007265
0.495
0.00114
0.0005531
0.6385
0.01117
0.0008031
0.2157
0.03659
0.01297
0.000332
0.03888
0.5476
0.001132
0.0009918
0.5563
0.04789
0.3401
0.004862
0.0008752
0.008013
0.2964
0.0003304
3.021e-05
0.0005387
0.001118
0.007533
2.398e-05
0.3975
0.001711
0.577
0.003044
0.004629
0.001443
0.002404
0.0002976
7.118e-05
0.5959
3.474e-06
0.0002042
0.0002605
0.004058
0.0008165
0.01226
0.03199
0.0001473
0.003423
0.2672
2.606e-06
0.002692
0.0009455
0.0003325
0.001545
0.001884
0.0004704
0.0001015
0.002794
0.001696
0.008292
0.0006102
0.0008185
0.02815
7.854e-06
0.06053
0.00222
0.06356
0.0004667
0.5488
0.567
0.01073
2.267e-05
0.004784
0.1707
1.596e-05
0.0003586
0.5796
0.0001999
0.002611
0.009455
2.264e-05
0.009615
0.001785
6.583e-07
0.03496
4.647e-05
0.00796
0.003157
0.0001114
0.0009557
0.0002222
0.005095
0.001023
0.08322
0.05773
0.01385
0.001405
0.00688
0.002595
0.009858
8.119e-05
0.005824
0.02974
0.006937
0.01481
0.02283
0.007577
8.126e-06
0.2171
0.000103
0.0001235
0.001475
0.002248
0.5802
0.009812
0.003076
0.02174
0.0001286
0.0003555
0.0001532
0.5166
0.0007408
0.0003088
0.00346
1.841e-05
0.004475
0.02425
0.0004767
0.555
0.0004143
0.001764
0.0001233
0.001525
0.1097
0.006877
0.4824
1.172e-05
1.856e-05
0.002789
0.01898
0.007144
0.4247
0.4564
0.000657
0.003723
0.01753
0.1085
0.3333
0.3316
0.0067
0.003257
0.01919
0.001494
0.001122
1.513e-05
0.01398
0.0001933
0.001455
0.0008975
0.4785
0.0005377
0.008009
0.003206
1.424e-05
0.01516
0.01466
0.001662
0.004029
0.004395
1.211e-05
0.0388
0.002694
0.0091
0.01414
0.01311
0.001291
1.175e-05
0.06638
0.0003694
0.5367
0.0008892
0.0009968
0.4915
0.0007459
0.004884
0.002074
0.0006361
0.5532
0.01373
7.002e-06
0.5724
0.001236
0.0004353
0.002908
0.0002211
0.01728
0.01289
0.0004801
0.000162
0.002063
0.001318
0.1143
0.002603
3.559e-05
0.0002898
0.002356
0.00208
0.5714
0.002521
0.02397
0.0002713
0.002288
0.01239
0.002047
0.4745
0.0131
0.0009259
0.3568
0.01077
0.4335
0.0004192
0.01031
2.567e-05
0.00123
0.005926
0.0008436
0.003578
0.00155
0.0008744
9.142e-06
0.002037
0.001173
0.007
0.004582
0.006784
0.6148
0.00178
0.5611
0.008292
0.5992
0.007758
0.5558
0.001959
0.001565
0.6118
0.5643
0.0004757
0.07186
0.0002693
0.05963
0.6317
0.005321
0.003267
0.2886
1.413e-06
8.939e-05
1.298e-05
0.001714
0.005057
0.0009112
0.001753
0.001358
0.06772
8.023e-05
0.003511
0.0002514
0.0006269
0.002908
0.005005
0.02049
0.56
9.066e-06
0.002597
0.0001711
0.5793
1.493e-05
0.001564
0.0008499
0.00133
0.3841
0.3788
0.07269
0.03872
0.06246
0.0111
0.003631
0.01538
0.01166
0.142
0.01254
0.0002288
0.006209
0.03466
0.004125
0.01297
0.0004064
0.0003787
0.002986
0.0008244
0.005822
0.5549
0.001138
0.001059
2.776e-05
0.005509
0.2086
0.003155
0.1956
0.001982
0.001882
0.0003289
0.05526
0.5658
0.004112
0.003606
1.19e-05
0.0001882
0.01797
0.002132
0.000216
0.09174
0.3427
0.001037
0.0006283
4.786e-06
0.1211
8.076e-06
0.001627
0.5616
0.001636
9.288e-05
0.011
0.04832
0.007261
0.0004975
0.003857
0.003284
0.003117
0.0004751
0.1654
0.001275
0.0002348
0.0003603
0.3984
0.3981
0.0006591
0.007386
1.067e-05
0.00328
0.0002721
0.0002723
8.919e-06
0.2089
0.0008083
0.4773
0.5688
0.5596
0.005851
0.4632
1.575e-05
0.5742
0.0002062
0.02493
0.003343
0.004609
0.0004324
0.4119
0.0001893
0.05733
0.001809
0.005207
2.682e-05
0.4247
0.001582
0.0003914
0.005957
0.0001299
0.0003344
0.003831
0.001063
0.0007998
0.1423
0.4126
5.083e-05
0.3807
0.6319
0.0249
0.0001218
0.4341
0.0001126
0.5838
0.004588
0.007012
0.007694
0.002418
0.4955
0.004855
0.0004578
0.0004065
0.09671
0.008543
0.0344
0.5745
0.542
0.003795
1.124e-05
0.004743
0.002955
0.4828
1.195e-05
0.02467
0.07207
0.373
0.01033
0.00123
0.0004664
0.4625
0.001526
0.5517
0.003539
0.626
0.02091
0.001996
0.001847
0.005975
0.0003677
0.001169
0.5365
0.007085
0.0001239
0.0006133
1.581e-05
0.000196
0.01852
0.2264
0.007236
0.0001604
0.005845
0.001364
2.976e-05
0.4072
0.05915
0.5648
0.00254
0.001584
0.003967
0.5806
0.0001139
0.5731
0.03723
0.001194
0.5107
0.02085
0.02687
0.00346
0.007031
0.2115
0.0008149
0.5892
0.0009641
0.0002191
0.01076
0.01944
0.001723
0.2495
0.00944
0.002069
0.0004258
0.002595
0.002216
0.0003513
0.002554
0.001807
0.0002736
0.1462
0.04749
0.002438
0.2238
0.001196
0.004371
0.05783
0.003118
0.4948
0.3159
0.000196
0.03864
0.009191
0.001523
1.616e-05
0.002123
1.775e-05
0.018
0.4172
1.838e-05
0.002063
0.06234
0.0007506
0.3261
0.007411
0.6394
0.01135
5.055e-05
0.007435
0.004641
0.003455
0.002033
0.5855
0.003577
0.0218
0.005492
0.0004762
0.4252
0.002721
0.0001262
0.5656
0.458
0.001694
0.3945
0.005021
0.009621
0.01125
0.003673
0.01905
0.004663
0.4171
0.03103
0.002496
0.4602
0.0336
0.0006954
1.304e-05
0.6051
0.0007365
3.736e-05
0.02061
0.001057
0.01086
0.001786
1.333e-05
0.366
0.4135
0.0014
0.4344
0.0003535
0.004349
0.004279
8.304e-05
0.001259
0.4432
0.001535
2.156e-06
4.097e-06
0.0008431
0.001297
0.001225
0.02103
0.006001
0.009201
0.003682
0.0002164
0.0007467
0.0006987
0.001586
1.274e-05
0.004186
0.0158
0.571
0.001169
0.01687
0.002988
0.03137
0.1968
0.002153
0.0008655
0.02499
0.6088
0.0007601
0.0001959
0.01186
0.0008904
0.006197
1.547e-05
0.001115
0.4208
0.001008
8.203e-05
0.004686
0.002552
1.004e-05
0.3694
0.000189
0.0008804
0.001763
0.2999
0.004694
0.008677
0.0003004
0.0009381
0.006259
0.0001804
0.4434
0.007339
0.001577
0.1198
0.007958
0.5547
0.0005705
0.0003598
0.001876
0.0002417
0.000183
0.004151
1.655e-05
0.4158
0.001164
0.005934
0.01168
0.2472
0.02361
0.006059
0.005088
0.002351
0.4165
0.002725
6.389e-06
7.168e-05
0.002038
0.01926
0.01643
0.01342
0.5684
0.4456
0.003108
0.02481
0.4924
0.003309
0.002125
0.001023
0.001034
0.006869
0.001588
0.01055
0.0008161
1.102e-05
3.68e-05
0.06751
0.002793
7.095e-06
0.01087
0.0001629
0.0316
0.008082
0.004588
1.355e-06
0.009453
0.008391
0.3331
0.1844
0.0001004
0.001687
0.5736
0.5933
0.007683
0.0002214
0.006044
0.002543
1.425e-05
0.004602
0.3753
0.0002376
0.01096
0.001413
7.938e-05
0.04455
0.07581
0.004932
0.001833
0.01833
0.002016
0.5882
0.0001065
0.01524
0.0002525
0.05199
0.001306
7.839e-05
0.01063
0.0002194
0.01116
0.0002122
0.001934
0.0001954
0.06105
0.009012
0.002461
0.003829
0.0004441
0.001312
0.0004446
0.0004349
0.5619
0.001125
0.03203
0.0003806
0.003496
0.3679
0.01305
0.0867
9.377e-05
0.3663
0.001407
0.002745
0.001978
0.008995
0.007036
0.08063
1.213e-05
0.03427
0.4823
0.0002516
0.4629
0.005356
0.2937
0.01748
0.0102
0.5434
0.02864
0.001262
0.0002268
0.577
0.5119
0.01005
0.007214
0.001682
0.1197
0.007519
0.002244
0.0003749
0.0005082
0.03829
0.005396
0.0117
0.07188
0.002572
1.454e-05
0.01399
0.0004747
0.0006651
0.01221
1.655e-05
0.5732
0.4255
0.01093
0.01487
8.486e-06
0.5796
0.01354
0.0002705
9.79e-06
0.0004593
0.0005048
0.3058
0.3058
0.0007103
0.00183
0.002102
0.002437
0.2719
0.02507
0.01576
0.6351
0.0002339
0.001806
0.003156
0.00268
7.463e-05
0.08241
0.008795
0.561
0.008821
0.001713
0.0003647
0.0008537
0.001963
0.0001491
0.0004728
0.003195
0.002299
0.0007445
0.001762
0.08446
0.004198
5.509e-05
0.292
0.2931
0.0005834
0.001143
3.532e-05
0.009766
0.0007789
0.001645
0.382
0.5742
0.005498
0.6143
0.003913
1.833e-05
0.0047
0.04792
0.00321
0.1414
0.0001295
0.001738
0.4014
0.008007
0.008315
0.00288
0.0037
0.002713
0.001611
0.002697
0.003544
0.002755
0.007617
0.008734
0.0003887
0.002312
0.002458
0.00107
0.0002773
0.001393
0.000489
0.0003843
0.006916
0.009179
0.006047
2.052e-05
0.02395
0.001524
0.5417
0.006378
0.6194
0.002013
0.01542
1.73e-05
0.0008762
0.06253
0.0001238
1.06e-05
0.0001995
0.003975
0.003618
0.0002894
0.0002019
0.3691
0.003524
0.005789
1.121e-05
0.001507
0.002699
0.03633
0.02656
0.5751
0.00759
0.0003686
0.0106
0.0002899
0.008801
0.09629
0.0001795
0.5626
0.008884
0.02225
0.005392
0.0004885
0.0386
0.01009
0.01506
0.2116
0.001564
0.006328
1.379e-05
0.0002701
0.001364
0.5267
0.002711
0.001765
9.105e-05
0.0009133
0.005462
0.01962
0.002595
0.5712
0.001119
0.0007694
0.006285
0.003705
0.006066
0.0001116
0.0003328
0.00107
0.003924
0.03369
0.009076
7.816e-05
0.02981
0.1132
9.157e-06
0.3756
0.04151
0.5728
0.599
0.004064
0.5558
0.000313
0.003242
0.03154
0.007164
0.0003341
0.0001157
0.001469
0.0008499
0.001508
0.006166
3.674e-06
0.003679
0.001758
0.1641
5.627e-06
0.009289
4.586e-05
4.276e-05
0.33
0.0002148
0.0003642
0.01144
0.007382
0.000119
0.001795
0.0001747
0.004631
0.003398
0.4278
0.02353
0.6067
0.0161
0.007586
0.0005538
0.008041
0.005298
1.795e-05
0.007159
0.5265
0.0008014
0.002946
0.02391
0.004404
0.00309
0.002408
0.0004765
0.000373
2.122e-05
0.0007489
0.001242
0.0004086
0.001862
0.0008612
0.07747
5.061e-06
0.0009808
0.003215
0.009762
0.4146
0.002751
0.0007159
0.005972
0.01151
1.856e-05
0.0002469
0.002802
0.02096
0.002959
0.0004952
0.4357
7.5e-05
0.01309
0.2391
0.004156
0.0007954
0.5625
0.001023
0.007368
0.005623
0.0001348
0.005681
0.00231
1.024e-05
0.003245
0.001412
0.6276
0.6276
0.001437
0.009896
0.008052
0.0008981
0.002341
0.549
0.0001082
0.000364
0.004475
0.5135
0.5226
0.004273
0.01682
0.001373
6.331e-06
0.0006238
0.422
0.0004602
7.813e-06
0.06523
0.0005814
0.0009508
0.4161
0.01695
0.0001576
0.04188
0.002789
0.3893
0.3364
0.3552
0.2942
0.08581
0.003138
0.00592
0.0008466
0.01016
0.0008686
0.004035
0.0003538
0.2937
0.001939
0.002664
0.0001993
0.0003339
0.0001617
0.0008937
0.004004
0.001014
0.005017
0.001941
0.136
0.002952
8.197e-06
0.001637
6.076e-05
0.01978
0.001935
0.5742
5.465e-06
0.001899
0.001054
0.01129
0.2804
1.678e-05
0.579
0.002128
0.0003974
0.421
0.001805
0.001726
0.007107
0.00141
3.644e-05
0.1999
0.0003483
0.458
0.007434
0.001925
0.0007841
0.006347
0.002703
0.5449
0.5649
0.04905
0.0004816
0.0002131
0.04557
0.006085
0.001736
0.0117
0.0004115
0.0009166
0.01803
0.01136
0.002984
0.002296
0.04273
5.984e-06
0.02122
0.5742
8.797e-05
0.5719
0.4225
0.0523
0.4155
0.0002506
0.006608
0.0002143
0.004028
0.001086
0.586
0.07381
0.0007131
0.00175
0.007752
0.4282
0.03024
8.833e-05
9.629e-05
0.6183
7.041e-05
7.911e-05
2.866e-06
0.4022
0.01909
0.01108
0.0729
0.5152
0.0213
0.003112
0.0001049
0.07069
0.000403
3.735e-06
0.5752
0.0009204
0.0001664
0.002436
0.5788
0.000323
4.648e-05
4.922e-06
1.524e-05
0.02522
0.009241
1.1e-05
0.2088
0.001713
0.561
0.006344
0.0005516
0.02089
0.0005457
1.522e-05
0.06802
0.001097
0.002626
0.6424
0.2419
0.0006382
0.0002365
0.02739
0.0001088
0.001963
0.01704
0.00925
0.004979
0.0007655
0.002335
0.5756
0.005044
0.004095
0.00177
0.0005409
0.001875
0.0006175
0.0017
8.951e-06
1.26e-05
2.395e-06
0.0005489
0.1419
0.00064
0.4609
0.0002682
0.0004344
0.5759
6.384e-06
0.6349
0.0009399
2.272e-05
0.0001625
0.0003165
0.002805
0.0005354
0.001348
0.3711
7.589e-06
0.00576
0.3548
0.009931
0.001447
1.615e-05
1.646e-05
5.469e-06
0.009844
0.0008243
0.0006724
0.00689
0.07654
0.003303
6.914e-05
0.4717
0.002484
0.004046
0.001003
0.004331
0.002971
0.01565
6.529e-05
0.002567
0.002227
2.207e-05
0.2752
8.132e-05
0.06457
0.004313
0.0008853
0.3443
0.09612
0.004868
0.0004407
0.0009418
8.85e-06
0.3452
0.555
0.01204
0.001522
0.0002296
0.003678
0.01954
0.3049
0.3688
0.0002884
0.3043
0.0005839
0.001052
0.08761
0.001326
0.002491
1.614e-05
8.539e-06
1.413e-05
0.2519
0.0004752
0.001763
0.001532
0.02287
0.01478
1.438e-05
0.007318
0.0004212
0.001405
8.508e-05
0.001686
0.01123
1.559e-05
0.003434
0.003352
0.004772
0.3523
0.004315
0.09495
0.5694
0.006056
0.001973
0.002174
0.003724
0.005048
6.342e-06
8.925e-06
0.01107
5.018e-06
0.3647
0.05069
0.2863
0.1837
0.004002
0.6338
0.001292
9.856e-06
0.0005571
5.221e-05
0.03
0.008808
0.001845
0.001905
0.008614
0.0005747
0.006205
0.0001359
0.001366
0.3267
0.001363
0.003191
0.6046
0.2808
0.0001475
0.5848
0.001463
0.00106
0.001445
0.008411
9.025e-05
0.4122
0.04491
0.2185
0.0005179
6.416e-05
0.0007944
0.004029
0.551
0.001094
0.5558
0.03145
0.001101
0.02155
1.538e-05
0.001158
0.0004393
0.01848
0.0003775
0.01665
0.375
0.004899
0.0005978
0.4735
0.01016
0.5845
0.0003841
0.000156
0.002873
0.002076
0.4545
0.0003949
0.0008351
0.00243
6.399e-05
0.001307
0.0002297
0.5367
0.03177
0.01149
0.01047
0.0009216
0.006372
0.07935
0.01228
0.05052
0.003186
0.002754
0.46
0.6026
0.5482
0.287
0.03589
0.0002335
0.0004267
0.5706
0.001497
0.004125
0.002133
0.5928
0.001217
0.0973
0.0001437
0.418
9.11e-06
0.009501
0.0001325
0.3387
0.07318
1.227e-05
0.3515
0.002241
0.001968
0.001485
0.0007656
0.002065
0.5813
0.001071
0.0005897
0.005128
0.001935
0.003866
0.01047
0.003916
0.003427
0.0009902
0.5591
0.00622
0.004748
0.0001409
0.04737
0.614
0.001087
0.0002274
0.004983
0.005359
0.008127
0.0009038
0.2223
0.006236
0.0005723
0.01001
0.001057
0.01426
0.3262
0.005466
1.578e-05
0.002475
0.001123
9.212e-05
0.009709
0.007417
0.5701
0.3687
0.05572
0.3657
7.581e-05
0.001365
0.5933
0.5435
0.003168
5.461e-06
0.5936
0.004809
4.501e-05
0.002313
0.008094
0.001396
0.0008166
0.002058
0.004949
0.0004017
1.029e-05
0.0001334
0.569
0.002456
0.008742
0.001596
0.5095
0.03102
0.001086
0.004103
0.0006956
2.894e-05
0.0001703
0.04122
0.0003659
1.066e-05
0.01639
0.0009278
0.005048
0.01212
0.01678
0.0002463
2.314e-05
0.5612
0.0012
0.002651
0.5923
6.252e-05
0.006373
0.008761
0.0923
0.006157
0.0005117
0.0007597
0.003413
0.5562
0.5716
0.03728
0.001108
0.608
0.01941
0.4603
0.0004202
0.01269
0.006446
0.0006906
0.0001721
0.03046
0.005007
0.5204
1.114e-05
0.007842
0.0006256
0.0006329
0.1134
0.001286
0.0132
0.001093
1.724e-05
0.02018
1.371e-05
0.5469
0.5513
0.003754
0.1429
0.5291
1.323e-05
0.001636
0.001348
0.0001299
0.009198
0.003208
0.3157
1.295e-05
0.1724
0.003176
0.6043
0.05289
0.0002905
0.003064
0.002665
0.006109
0.0142
0.0004078
0.4031
0.002746
0.0001332
0.000491
9.003e-05
0.05403
0.002666
0.007683
0.6201
0.0004497
0.0006963
0.1046
0.2274
0.001552
1.342e-05
0.304
0.5475
0.007216
0.0002118
0.01001
0.0006194
0.619
0.0001333
0.001454
0.002498
0.6107
0.0852
0.0002997
0.001718
0.0001646
0.004636
0.00339
0.5403
0.0007974
0.3377
0.000282
1.424e-05
0.1269
0.0013
0.009841
0.0001459
4.214e-05
0.0003862
0.111
0.3974
0.00294
0.03969
0.5677
0.0008168
0.003301
0.01534
0.5976
0.08803
0.1152
0.4174
0.001234
0.002227
0.5739
0.001607
0.003134
0.0003754
0.375
0.589
0.5663
0.1303
0.01059
0.02605
0.0004893
1.578e-05
2.966e-05
0.003313
1.098e-05
0.0001232
0.4048
1.825e-05
0.002435
0.0001432
0.01432
0.04671
0.02027
0.0001183
0.0004091
0.0002337
0.0006045
0.1974
0.003943
0.001338
0.003019
0.01069
0.03761
0.001003
0.05607
0.001361
0.3536
0.003488
0.006135
0.01506
0.02916
0.0003986
1.12e-05
6.749e-05
0.4128
0.0001876
0.00331
0.6082
0.003
0.5803
0.0001931
0.00212
0.3483
0.0008672
0.001496
0.6543
0.01191
0.0209
3.887e-05
0.5444
0.03775
2.124e-05
0.01268
0.5639
0.0001273
0.003693
0.2546
0.04036
0.02357
0.001854
8.121e-06
0.0005622
0.002244
0.01248
0.0004713
0.01384
0.5714
0.2358
0.001241
0.003223
0.001799
0.6098
7.048e-06
0.001518
0.005577
0.001103
0.00321
0.002319
0.4374
0.1091
0.0005264
0.001149
0.1927
0.002617
0.0005514
0.01934
0.009031
0.006714
0.01195
0.2006
0.01496
0.005928
0.01023
0.006689
0.6069
0.0002174
0.3903
0.003351
0.008823
0.01484
0.0001323
0.002158
4.833e-06
0.01294
0.02579
0.2775
0.5305
0.01078
0.006669
0.0001041
0.0003989
0.001231
0.0008991
0.0003779
0.005658
0.01889
0.002348
0.000597
5.772e-05
0.003864
0.2273
0.000229
0.01556
0.0002176
0.008481
0.01135
0.003661
0.001429
0.5728
0.001067
0.03943
0.567
0.07501
0.0002265
0.1942
1.818e-06
0.000635
0.0004699
0.5688
0.006409
0.001145
0.3693
0.004776
0.003777
0.0002332
0.00073
0.0001379
0.5879
0.001941
0.5652
0.01499
0.0009351
0.001496
0.008827
0.0005822
8.835e-06
0.4474
0.5749
0.004286
0.002635
0.0003009
0.01745
0.00313
0.0004473
0.01649
0.007397
0.5685
0.002299
0.0001558
0.08402
0.004201
0.561
0.002764
0.12
0.005021
0.0008544
0.001642
0.2415
0.0006983
0.008712
0.4527
0.0004912
0.001615
0.08039
0.5503
0.4234
0.0009115
0.0007139
0.006554
0.02341
0.00206
0.03417
0.001898
0.006196
0.3516
0.03045
0.02329
9.582e-06
0.0002546
0.000137
0.5412
0.000534
0.00235
0.0002532
0.0002799
1.589e-05
0.008412
0.005239
0.002925
0.003827
0.0004217
8.961e-05
0.04402
0.4064
0.02258
0.2962
6.892e-06
0.5529
0.007562
0.0006034
0.005592
0.007363
0.00182
0.002808
0.0002053
0.008477
0.001581
0.01002
0.01321
0.0008339
9.437e-06
0.004248
1.32e-05
2.283e-05
0.5754
1.247e-05
0.002875
0.000297
0.0001127
0.005409
0.03012
0.0009711
0.003578
0.007068
0.2204
0.007736
0.006709
0.001877
0.003768
0.002263
0.01731
0.01744
0.04579
1.123e-05
0.003027
0.0004844
0.003089
0.0005141
0.3873
0.0004046
0.002044
7.518e-05
0.008644
1.493e-05
0.000809
0.001067
0.07414
0.0001212
0.08383
0.005559
0.003525
0.09747
0.02027
0.004668
0.006205
0.001428
0.0008701
0.008178
0.001921
0.003473
1.535e-05
0.006571
1.235e-05
0.2157
0.01639
0.001171
0.0151
0.2019
0.001813
0.5734
0.5367
0.5749
0.002868
0.002242
0.0005204
0.06887
0.06113
0.003207
0.182
4.548e-06
0.0001646
1.148e-05
0.001354
0.1268
0.0003793
0.0005921
0.08834
0.0001969
0.5864
0.007179
0.0164
0.0005184
0.02622
0.541
0.4528
0.001594
0.01321
0.1933
1.47e-05
0.00211
0.4889
0.58
0.004261
0.2704
0.000802
3.666e-05
0.4365
0.00805
0.0005166
0.001988
0.0008828
1.49e-05
0.004928
0.04724
0.005231
0.001139
0.0444
0.0008194
0.004416
0.01105
0.0005242
0.001632
8.09e-06
0.2604
0.00323
0.0001265
0.0006656
0.5784
0.003742
0.5766
0.01204
0.02113
0.003818
0.00545
0.001097
0.002836
0.03972
0.0002115
0.0006622
0.0003421
0.0005453
0.000363
0.002511
0.02671
0.003669
0.0009437
0.004536
0.001135
0.456
1.215e-05
1.734e-05
0.0001743
0.00533
0.007742
0.000273
0.0006418
0.02574
0.1206
0.0001365
0.001447
0.3587
0.2854
0.426
0.000844
0.0017
0.02248
0.0007314
0.01318
0.3124
0.002624
0.00404
0.003616
0.0007555
8.78e-06
0.000369
0.001764
0.001913
0.003409
0.001767
0.0004363
0.002612
0.009323
0.0133
0.0001645
0.003913
0.02725
0.002822
0.0004642
0.05766
0.008063
0.01842
0.02008
1.043e-05
0.0004446
0.6032
0.0007164
0.01398
1.747e-05
0.0003754
0.5018
0.05917
0.0004289
0.3613
0.003569
0.0004258
0.000529
0.01386
0.392
0.03707
0.008285
0.006095
0.08932
0.0008867
0.4389
0.0005375
0.004391
0.0006286
0.00079
0.00239
0.002333
0.001036
0.0007563
0.0294
0.003157
0.5816
1.287e-05
0.2363
0.2864
0.0008025
0.5703
0.005291
0.009965
1.139e-05
0.5956
0.004088
0.001414
0.0007036
0.0009662
0.04109
0.002146
0.003687
0.001175
0.0001282
0.003495
0.1112
0.5581
0.0008416
0.0005343
0.02653
0.00232
0.0002839
0.0002581
0.01113
0.5336
0.002711
0.001754
7.115e-06
0.004354
0.002
0.01259
0.001553
0.5446
0.008446
0.0005735
0.000252
0.5974
0.03479
0.0003785
0.539
0.003426
0.00018
0.006369
0.5939
0.6003
0.01808
0.425
0.3757
0.5736
0.01555
0.001371
0.0001832
0.05272
0.002162
0.01113
0.05281
0.6432
0.005779
0.00365
0.1597
0.1086
0.0002178
0.03717
0.4368
0.0002309
0.002812
0.02024
1.185e-05
1.414e-05
0.4523
0.001668
0.01208
0.0005809
0.002392
0.0001341
0.6258
0.00751
1.072e-05
0.009839
0.001505
0.02521
0.0001105
0.00242
0.001926
0.008736
1.921e-05
0.1364
7.784e-05
0.003347
0.3783
0.3376
0.3306
0.0009412
0.004077
0.0001124
0.00131
7.495e-06
0.102
0.336
0.002419
0.004904
0.06825
0.5679
0.0003202
0.01145
0.0001859
0.002861
0.0006958
0.001793
0.003121
0.005243
0.001348
0.5413
6.081e-05
0.001187
0.00245
0.008168
0.1291
0.5582
0.004319
0.007577
0.00109
0.0001057
0.005275
0.2482
0.006541
0.05482
0.09331
0.5689
0.000443
0.001732
9.899e-05
0.001084
0.003904
0.01605
0.002461
0.005602
0.01228
0.003396
0.02439
0.04485
0.5907
0.001862
5.224e-05
0.03957
0.01806
0.0001649
0.3184
0.5704
0.01868
0.2538
0.6039
0.004705
0.4881
0.4878
0.008673
0.3754
0.002929
2.626e-05
0.0006682
0.02101
0.04327
0.4744
0.5948
0.01622
0.001585
0.004038
1.301e-05
0.006221
0.4293
0.01127
0.009319
0.0001172
0.07743
0.5969
0.07509
0.004257
0.6069
0.5294
0.001911
0.001656
0.1173
0.3608
0.002173
0.5371
0.1776
0.5028
4.18e-06
0.09431
0.0003509
0.01186
0.3651
0.1009
0.0166
0.004493
0.000508
0.004862
0.003672
0.008164
0.6238
1.804e-05
0.005896
0.004965
0.5902
0.0006821
0.000914
0.001613
0.0005141
0.02976
0.0006802
0.008959
0.0427
0.0002277
0.6064
1.303e-05
0.006434
1.966e-05
0.6022
0.00335
0.5733
0.138
0.01109
0.0001349
0.007464
0.000793
0.02678
0.415
0.0007315
0.4132
0.0002954
0.0007013
0.02079
0.05088
0.4299
0.001873
0.5665
0.01488
0.00445
0.01267
0.006401
0.5619
0.0001955
0.2126
0.0009985
0.0003818
0.007681
0.0002915
0.0001429
0.005152
0.001392
0.002998
0.1946
0.005673
0.01395
0.5736
0.5716
0.0004892
0.009438
0.0001498
0.00541
0.002704
0.5793
0.00408
0.5795
0.5626
0.2116
0.001094
0.05218
0.01967
0.3183
0.002739
0.03174
0.002248
0.001212
0.0004947
0.4375