/*--------------------------------*- C++ -*----------------------------------*\
  =========                 |
  \\      /  F ield         | OpenFOAM: The Open Source CFD Toolbox
   \\    /   O peration     | Website:  https://openfoam.org
    \\  /    A nd           | Version:  8
     \\/     M anipulation  |
\*---------------------------------------------------------------------------*/
FoamFile
{
    version     2.0;
    format      ascii;
    class       surfaceScalarField;
    location    "10";
    object      phi;
}
// * * * * * * * * * * * * * * * * * * * * * * * * * * * * * * * * * * * * * //

dimensions      [0 3 -1 0 0 0 0];

internalField   nonuniform List<scalar> 
189008
(
6.528e-06
-6.528e-06
6.077e-07
-6.078e-07
-4.499e-07
4.499e-07
-8.084e-07
8.083e-07
-7.515e-05
7.515e-05
-8.125e-07
8.124e-07
0.0001275
-0.0001275
-9.125e-05
9.125e-05
-7.16e-05
7.16e-05
-0.0001588
0.0001588
8.381e-05
-8.381e-05
-7.893e-05
7.893e-05
-2.129e-06
2.129e-06
9.011e-07
-9.013e-07
0.0002367
-0.0002574
2.077e-05
0.0001217
-0.0001475
2.585e-05
-1.386e-06
1.386e-06
0.02967
-0.01215
-0.01751
0.005219
-0.003257
-0.001962
-7.832e-05
0.0001052
-2.693e-05
-0.002818
0.002428
0.0003901
-5.26e-05
2.39e-05
2.87e-05
-0.003194
0.01074
-0.007547
2.05e-05
0.0009353
-0.0009558
-2.717e-05
-2.543e-05
-0.001261
0.0006079
0.0006532
0.0007048
-0.0007895
8.472e-05
0.0007906
-8.575e-05
0.0007562
-0.0005219
-0.0002342
0.01849
-0.03146
0.01297
-9.305e-05
-0.0004884
0.0005814
-0.0004443
-0.0008168
0.0005847
-0.0003378
-0.0002469
0.001118
-0.0006045
-0.0005138
0.01196
0.01099
-0.02295
0.0002478
0.0003369
-7.905e-05
-0.0006805
0.0007596
-0.004592
0.005455
-0.0008626
-7.296e-05
0.0009224
-0.0008495
-0.0002542
0.0002996
-4.537e-05
0.003122
0.002097
0.001178
-0.003299
0.002122
-0.0002656
-0.003833
0.004099
6.278e-06
-6.278e-06
0.0004495
0.02922
0.0006821
0.0004362
0.0004306
0.0003256
0.001253
-0.001249
-3.767e-06
-0.001254
0.00153
-0.0002769
-4.538e-05
0.0007785
-0.0007331
3.724e-05
8.444e-05
-0.01325
-0.02995
0.0432
0.0007237
0.0003318
-0.001055
-0.01223
0.009456
0.002778
1.083
-0.1295
-0.9534
0.001872
-0.00144
-0.0004317
-0.1445
1.227
0.01223
-0.007741
-0.004485
-0.311
0.02034
0.2907
-0.006677
-0.005558
-0.00262
-0.0003926
0.003013
0.001946
-0.003264
0.001319
-0.0002161
0.001965
-0.001749
-0.8104
0.956
-0.1457
0.00046
-0.001145
0.0006847
-0.0003424
-0.003753
0.004095
-0.02797
0.02005
0.007916
0.002477
-0.002039
-0.0004382
0.0006832
0.001794
-1.287
0.4824
0.8045
-0.0001267
-0.0006442
0.0007708
-0.0002473
-0.0005422
0.0008011
0.002983
-0.003784
-0.1165
-0.1945
-0.2763
0.5185
-0.2422
0.0002628
0.0005277
-0.05159
0.09245
-0.04085
0.001513
-0.001403
-0.0001102
0.0008967
0.0009753
0.1607
-0.6346
0.4738
-0.0007427
0.000512
0.0002307
-1.202e-05
-6.629e-05
-0.0005569
-0.0007986
0.001355
3.887e-05
0.0002004
-0.0002393
-0.0007362
0.001174
-0.0004374
0.0008244
-0.001273
0.0004488
-0.0009021
0.001758
-0.0008558
-0.0007987
0.0002978
0.0005009
-0.003634
0.003291
-0.0004786
0.0007535
-0.0002749
0.1817
-0.01672
-0.1649
-0.007181
-0.002554
0.009735
-0.0003988
0.0009658
-0.000567
-0.00157
-0.001248
-0.001606
0.00165
-4.393e-05
0.02428
0.01808
-0.04236
0.00322
-0.002042
0.0007679
-0.0007766
8.63e-06
0.001202
0.0002408
-0.001443
-0.0201
-0.007867
0.6868
-0.526
-2.454e-05
-0.001229
-0.0001085
-0.0002509
0.0003594
0.004562
-0.005538
0.0009752
-0.000236
0.00106
0.001596
-0.0003941
-0.001307
0.001879
-0.000572
-1.007
-0.2794
-0.001594
0.0007913
0.000803
-1.158
0.8789
0.2791
0.0002584
-2.171e-05
-0.000513
-0.0002857
0.002268
-0.0003573
-0.00191
4.88e-05
-0.0005258
0.000477
-0.2129
0.09813
0.1147
0.0006705
0.002759
-0.00343
-0.1071
0.05924
0.04788
0.1645
-0.4408
0.02383
-0.07543
-3.639e-06
2.482e-06
1.157e-06
-1.256
0.09839
-0.0002712
-0.0006069
0.0008781
-0.0005381
-0.0009616
0.0015
0.01435
-0.01211
-0.002232
-0.0004268
-0.0003159
0.001163
-0.001063
-9.989e-05
0.001859
0.0008465
-0.002706
0.08624
-0.1025
0.01627
0.002127
-0.0008219
-0.001305
-0.001262
0.0009952
0.0002665
-0.001318
0.0004203
0.0008977
-0.001346
0.0005184
0.0008273
-0.0003829
-0.001405
0.001788
0.0006357
0.0008776
2.352e-06
-1.727e-06
-6.26e-07
-0.001392
7.363e-05
-0.005953
0.03252
-0.02657
0.001166
-0.00213
0.0009637
-0.0005153
0.0006119
-9.662e-05
0.02778
-0.04906
0.02128
0.00998
0.0002625
-0.01024
-0.04977
-0.04037
0.09014
0.002064
-0.00245
0.0003861
0.00457
-0.002504
-0.002066
0.001194
-0.0004702
0.001416
-0.0004296
-0.0009866
-1.71e-05
1.104e-06
1.6e-05
-0.02745
-0.7829
-0.001674
0.000328
0.0002603
-0.0004244
0.0001641
0.002691
-0.003961
0.001271
0.00165
-0.0004425
-0.001208
0.003458
-0.006215
0.002757
-0.009449
7.909e-05
0.009369
0.0003501
-0.0007026
0.0003525
-0.0009781
0.0002419
0.007975
0.004251
0.001252
-0.0009955
-0.0002564
0.0002863
0.0009663
0.0003667
-0.0007576
0.0003909
-0.0005008
0.0009544
-0.0004536
-0.0003394
0.0003394
0.1919
-0.01019
-0.001672
0.0005241
0.001148
0.0003826
-0.0009142
0.0005316
-0.0003509
0.0008109
0.000801
-9.764e-05
-0.0007034
0.000253
0.002032
-0.002285
-0.0009814
0.0007217
0.0002597
-0.04222
0.03397
0.008253
-3.307e-05
-7.417e-05
0.0001072
0.002946
0.001624
-0.005064
0.002145
0.002919
-0.003323
0.001081
0.002242
1.033
-1.207
0.1733
0.0004039
-0.0003312
-7.271e-05
-0.0007915
0.0003706
0.0004208
0.001171
0.0009557
-0.0006809
0.001372
-0.0006914
0.1168
-0.1407
0.02399
-0.002178
-0.001145
-0.1207
-0.006677
0.1274
6.428e-06
-0.0002812
0.0002747
0.0001952
0.0002088
-0.0004947
-0.0007669
-0.001027
0.002973
-0.0009176
-0.005996
0.006914
-0.0005127
0.0005615
0.0008623
-0.0008418
-0.006618
0.08278
-0.07616
8.748e-05
-0.0008326
0.0007451
0.0007078
0.000142
-0.0008498
-0.03966
0.0337
0.0004645
-0.0006398
0.0001753
9.663e-07
-0.0006201
-0.002352
0.002973
-1.467
1.196
0.2706
-1.465
1.195
0.2704
4.653e-05
-9.242e-06
-3.729e-05
-0.1662
0.1331
0.03309
0.2071
-0.03948
-0.1676
-0.05821
0.04844
0.009767
0.02369
-0.06142
0.03773
-0.0006473
0.0005683
1.788e-06
-1.788e-06
0.0004118
-0.001379
0.000967
0.02639
-0.008083
-0.01831
0.003132
-0.0007185
-0.002413
0.04447
-0.02598
-0.2078
-0.005087
-0.0006358
-0.01552
0.01616
0.001161
-0.0006648
-0.0004963
-0.05995
0.2005
-0.1405
-0.0004308
-0.0005506
-1.416e-05
0.0007068
-0.0006926
4.033e-05
-4.791e-05
7.578e-06
0.0001384
-0.0001247
-1.368e-05
0.00403
-0.002425
-0.001605
0.0003832
-0.001291
0.0009076
0.02202
0.004369
-0.0006259
0.0001619
0.0004639
-0.4707
0.22
0.2507
0.001443
0.0002072
-0.0008932
0.001239
-0.000346
0.0003671
0.0002524
-0.0006195
0.0001617
-0.0001332
-2.852e-05
-0.0005502
0.0009328
-4.078e-05
-0.004551
-0.0002313
0.0002371
-5.727e-06
-0.001719
0.001517
0.0002022
0.002556
-0.0007258
-0.00183
-0.04313
-0.07755
0.003647
-0.002846
-8.606e-07
3.965e-06
-3.104e-06
0.001524
0.001032
-0.02363
0.01901
0.004612
-0.0005474
-0.001125
3.44e-05
-3.44e-05
0.2277
-0.02061
0.001489
-0.000283
-0.001206
0.001237
-0.0005291
0.0005805
-0.001281
0.0007001
-0.0009275
0.0006215
0.000306
0.0006725
0.0005793
0.0005946
0.0004287
-0.001023
-1.88e-06
-1.759e-06
0.001215
0.0005864
-0.001802
-0.000785
0.0006957
8.935e-05
-0.0001121
0.0001121
0.1948
-0.9651
0.7703
-0.00104
-0.001451
0.002492
-0.000301
0.000841
-0.00054
0.002695
-0.001269
-0.001426
0.003366
-0.00106
-0.002307
-0.0002561
0.001215
-0.0009589
0.0008832
-0.0005155
-0.0003677
0.1158
-0.02958
0.0001103
-0.0005664
0.0004561
-0.0002605
0.00169
-0.00143
-0.01028
0.0005497
0.009725
-0.003982
0.002066
0.001915
-0.06055
0.09514
-0.03459
-0.01252
0.005335
-0.08892
0.03915
-0.001125
-0.0009873
0.002112
9.213e-05
0.0008567
-0.0009488
-0.0004276
0.0009103
-0.0004827
0.0002374
-0.0005714
0.000334
-0.00114
-0.001198
0.002337
0.001489
-0.004741
0.003252
-0.001099
-8.014e-06
0.001107
0.8667
0.1668
-0.001153
0.001515
-0.0003622
0.0016
-0.000111
0.001332
-0.002241
0.000909
-0.0009564
0.001044
0.001218
0.001049
0.001483
-0.001751
0.0002675
-0.3861
-0.443
0.829
0.0008985
0.001557
-0.002456
-0.5371
-0.3456
0.8827
0.04317
-0.01889
0.004604
-4.146e-05
-0.09198
-0.1636
0.2555
0.04813
0.1193
-0.1674
3.406e-06
-1.386e-06
-2.02e-06
0.001425
-0.001148
-0.0002776
-0.07755
-0.1006
0.1782
0.001974
-0.001463
-0.0005107
0.1652
-0.04839
-0.001148
0.004606
-0.002631
0.005925
-0.003294
-0.0105
-0.01312
0.001089
0.001555
-0.002644
-0.2022
0.2356
-0.03339
-0.0006812
0.001155
-0.0004734
-0.0004307
-0.000327
0.0007577
0.0001432
-0.0001121
-3.116e-05
-0.00034
-0.0005875
0.003468
-0.001979
-0.0004259
-0.0007792
0.001205
-0.004511
0.001321
0.00319
-0.001356
-0.002177
0.003533
0.004033
-0.003362
-0.0003288
0.0005889
-0.0002601
0.0008418
0.000182
-0.001024
0.002877
0.0002546
-0.1813
0.1214
-0.006458
0.003184
0.003273
-0.003522
0.003563
-4.125e-05
0.001493
0.000152
-0.001645
7.615e-05
-1.094e-05
-6.521e-05
-0.001353
0.0008699
0.0004834
-0.8471
0.31
-0.2553
0.1313
0.1239
0.0003957
7.954e-05
-0.0004753
0.003139
-0.004275
0.001136
-0.0003689
-0.0006429
0.001012
0.015
-0.009033
-0.005968
0.1986
-0.1876
-0.01097
0.009622
-0.01282
-0.0007111
-5.408e-05
0.0007652
0.0916
-0.04922
-0.04238
0.001875
0.0008201
0.0005505
-0.0001547
-0.001138
0.002798
-0.001659
-0.0165
0.03195
-0.01545
0.0002092
-0.0004002
0.000191
0.001257
-0.0004246
-0.000832
-0.001781
0.0006546
0.001127
0.003442
-0.001857
-0.001585
0.1963
-0.1481
-0.005945
0.01791
-0.4994
-0.9673
-0.4988
-0.9664
-0.01163
0.002181
-0.001288
0.001049
0.0002384
-0.004822
-0.0002419
0.001067
0.002375
0.0001239
0.001034
-0.001158
-0.01428
0.04206
0.002727
0.001303
-0.001387
0.0005096
0.0008778
0.0001247
0.0005164
-0.0006411
-0.001237
0.0009603
0.0002767
0.0005769
0.001397
0.001142
-0.0004432
-0.0006986
-0.001331
0.001686
-0.0003558
0.001364
-0.0009302
-0.0004341
-0.0003543
0.001752
-0.001398
-0.001719
0.001327
0.0003918
-0.003605
0.005137
-0.001532
3.805e-05
-0.0003201
0.0002821
-0.0008317
-0.001664
-0.02762
0.02929
0.001308
-0.001144
-0.0001645
0.002708
0.0006585
-0.0005509
-0.0009465
0.001497
0.2905
-0.3994
0.109
0.001111
0.0001452
-0.0006763
0.001358
-0.0006821
-0.002158
0.001942
-0.006069
-0.006248
0.01232
0.001391
-0.001453
6.208e-05
-0.0001355
0.001103
-0.0009677
0.3828
0.1353
-0.5181
-0.1164
-0.04985
-0.1878
0.2585
-0.07069
0.0007989
-0.0009793
0.0001804
0.4379
-0.8239
-0.001876
0.002421
-0.0005458
0.05967
0.03193
0.0005852
-0.0008862
0.0001135
-0.0009105
0.000797
0.1099
-0.1166
0.02572
-0.009238
-0.01648
-0.0002882
0.001429
-0.001141
1.351e-05
-7.03e-07
-1.28e-05
0.001062
-0.001863
0.0008006
0.9349
-0.6981
-0.2369
0.0006192
0.007171
-0.00779
0.000217
0.0009456
-0.001686
0.001184
0.000502
0.007223
-0.005523
-0.0017
-0.08713
-0.01999
0.0001277
2.189e-05
-0.0001496
0.01508
-0.02061
0.005531
1.707e-05
-0.0002713
0.002193
-0.002941
0.0007479
-0.001637
-0.002887
0.004524
0.2445
-0.2558
0.01121
0.006937
-0.00585
-0.001087
-4.966e-05
0.0002008
-0.0001511
0.0003241
0.0008953
-0.001219
-0.001167
0.001294
-0.0001273
-0.0002914
0.0006275
-0.000336
0.004663
0.002273
-0.0006219
0.0005289
-0.02316
0.02149
0.01248
-0.07303
0.0002528
-0.0004427
0.00019
-0.5094
0.03874
0.002976
7.532e-05
-0.003052
0.0003014
-0.000295
-0.002312
0.01739
-0.004857
0.003842
0.001015
0.0004757
-0.001532
0.001056
-0.002561
0.002539
2.22e-05
0.1103
0.4882
-0.5985
0.0006543
-0.001335
-0.0003593
-0.0002645
0.0006238
-0.001536
-3.386e-05
0.00157
0.001394
0.008585
0.0002205
0.0008105
-0.001031
-0.001426
0.0008878
-0.0005236
-0.001083
0.002055
-0.001766
-0.0002887
-0.00138
0.000281
-0.001244
0.003447
-0.002204
-0.001191
0.0002294
0.0009613
0.0008913
-9.023e-05
0.000407
-0.0003729
-3.411e-05
0.0009557
-0.00103
7.407e-05
-0.6736
0.8684
-0.002282
0.0005635
0.006785
-0.01059
0.003807
-0.003972
0.003706
-0.01288
0.000654
0.01223
0.0008287
-0.0002482
-0.01076
-0.007655
0.01842
-1.277
1.439
-0.162
-0.001264
0.00128
-1.664e-05
0.0002562
0.0001859
-0.0004422
0.002673
0.00961
-0.01228
0.003463
-0.003802
0.0003386
0.5737
-0.1909
0.001158
-0.002347
0.001189
0.0002341
-0.001039
0.000805
-0.05847
0.04523
-0.02233
-0.1799
0.6989
-0.653
-0.04594
0.001022
-0.001068
0.05781
-0.02528
-0.0004506
-0.0001498
0.0006003
0.05127
-0.05507
0.003807
9.917e-05
0.0006688
-0.01222
-0.1316
0.1438
0.0008025
-0.0005858
-0.0002167
0.05889
-0.2467
0.0004308
0.0007302
-0.001852
0.001953
-0.0001012
-0.001587
0.000865
0.0007224
-0.001454
0.003261
-0.001806
0.0004768
-0.001004
0.0005277
-0.02047
0.008775
0.01169
-0.001003
0.0005364
0.0004666
0.0009187
0.0003553
-0.001274
-0.001061
0.000115
0.0009465
-0.001118
0.0002445
0.0008739
0.001493
0.006477
-0.007969
-0.002864
0.002481
0.0006393
0.0009706
-0.00161
0.001295
-0.004335
0.003039
0.001112
-0.001429
0.0003175
-0.0008391
0.001478
0.3505
-0.9418
0.5913
0.1211
-0.001735
-0.1194
0.003019
-0.001305
-0.001714
-0.0009029
0.0009586
-5.566e-05
-1.54
0.1227
1.418
-0.002428
0.001505
0.0009221
-0.004507
0.01153
-0.00702
0.00547
0.008877
-0.000949
0.004088
0.03096
-0.0164
-0.01456
1.418
-0.2689
-1.149
0.0001712
-0.0005857
0.0004145
-0.00964
0.005132
-0.0003827
0.0003336
4.915e-05
-0.001407
0.0006785
0.0007287
0.0006348
-0.000397
-0.0002378
0.0006516
-4.811e-05
-0.0006035
0.001001
-0.0001542
-0.0008472
-0.0007244
-0.0006288
-0.0009319
9.097e-05
0.0008409
0.0006207
0.002842
0.001529
-0.0004811
-0.001048
-0.1253
0.257
-0.1316
-0.0005302
0.0008969
-0.1003
0.08357
0.01674
0.0006891
-0.000607
-8.213e-05
0.0008158
-0.001718
-0.001329
0.00118
0.000149
2.897e-05
-0.00137
0.001341
1.977e-07
1.59e-06
0.001523
-0.0007618
-0.0007608
-0.001221
0.001017
0.0002048
0.02991
-0.01705
-0.01287
0.001568
-0.00231
0.0007417
-0.2842
0.2291
0.05511
0.0004086
0.0002263
0.1172
0.003907
-0.0005072
-4.399e-05
0.0005511
-0.002639
0.002019
-2.588e-06
2.588e-06
1.153e-06
-3.258e-06
2.104e-06
1.691e-05
-1.513e-05
-1.786e-06
1.196
-0.8184
-0.378
0.0006317
0.0006767
-0.0003003
0.001316
-0.001016
-0.1451
-0.1102
0.001942
-0.0001648
-0.001778
-0.0004055
0.001214
-0.0008084
0.0009078
-0.0009817
7.39e-05
0.003695
-0.0003328
-0.003362
-4.052e-05
-0.001811
-0.001334
-0.0002532
-0.001533
-0.0008944
-0.0008577
0.0007833
7.433e-05
-0.4342
0.7847
0.0009659
-0.0003573
-0.0006086
-4.024e-05
3.825e-05
1.991e-06
0.0007972
-0.0009198
0.0001226
0.001049
-0.0002601
-0.0007887
-0.0001369
0.0001038
0.06096
-0.1774
0.003564
-0.000873
-0.04518
0.06887
0.004429
-0.003133
0.04727
0.2452
-0.2925
-0.0009561
0.0002408
0.0007153
-0.0001774
-0.00027
0.0004474
-0.0003137
0.0002939
1.979e-05
1.527
-0.9027
-0.6247
0.00244
0.0005795
0.009937
0.003695
-0.01363
-6.896e-05
8.927e-05
-2.031e-05
-0.0008647
-2.667e-05
0.0008914
0.0006516
-2.88e-05
-0.0006228
-0.006109
0.001259
0.00485
-0.1069
0.1008
0.006022
-8.2e-05
0.0004165
-0.0003345
0.001129
0.0009129
-0.002042
-0.8039
-0.7363
0.002713
-0.005946
0.0009703
0.004975
-0.0008482
0.0004175
0.0004669
0.0009239
-1.676e-05
-0.0008862
-0.0006996
0.0001187
0.000581
0.002601
-0.0004078
-0.003845
0.003776
6.902e-05
0.001138
1.4e-05
-0.001152
-0.0004727
0.001035
-0.0005626
-0.000318
-0.0009456
0.1125
0.05603
-0.1685
-0.0003316
0.0002436
8.803e-05
-0.0001523
0.0009872
-0.0008349
0.001233
-0.001409
0.0001756
0.001185
-0.002563
0.001377
-0.0003725
0.0006605
-0.000288
-0.7902
0.113
0.6772
-0.7886
0.629
0.1596
0.001289
-0.01156
0.001066
7.559e-05
-0.0008337
-0.0009153
0.001749
0.1352
-0.2064
0.07118
1.474
-0.6506
-0.8238
-0.001828
0.002952
-0.001124
0.0004257
-0.000645
0.0002194
0.00177
-0.0007516
-0.001018
-0.0009092
-2.264e-05
-0.0004472
-5.191e-05
0.0004992
0.0005857
-0.000538
-4.766e-05
-0.00352
0.003341
0.0001794
-0.1432
0.1009
0.04221
1.402
-1.279
-0.1229
0.0003396
-0.0001621
-0.0001775
0.000505
0.0009672
-0.001472
0.0006107
-0.001967
0.001356
0.3133
0.5217
-0.835
-0.0002197
-0.0005654
0.002688
-0.003145
0.000457
0.0009395
-0.0009144
-2.508e-05
0.492
-0.001196
0.001441
-0.0002447
-0.02924
0.1644
-0.0006169
0.001093
0.0005419
-1.833e-05
-0.0005235
0.005002
-0.006309
0.001307
0.9748
0.1613
-1.136
0.0001229
0.0004874
-0.0006103
-0.002893
-0.001089
-0.0005589
0.0002196
0.3922
1.026
0.000493
-0.0018
9.639e-05
4.196e-05
0.3942
0.3047
-0.00185
-0.003007
-0.1659
0.007149
0.1588
-0.0004703
-0.0005998
0.00107
0.00208
-0.0005716
-0.001508
-0.2796
0.1876
-0.001063
0.0009596
0.0001034
0.0004639
0.0009645
-0.001428
7.191e-05
3.731e-06
-7.564e-05
0.0006388
0.0005522
-0.001191
0.002991
-0.001638
-0.001352
-0.0004326
-0.001286
-0.000502
-0.001184
0.0005662
0.0002613
-0.0008275
0.001004
-0.001077
0.0005267
-0.0009256
0.0008719
-0.001369
0.0004974
-0.0003424
0.000362
-1.966e-05
-0.002225
0.001663
0.0005623
0.001048
-0.0007484
-0.0002993
-0.6007
0.914
0.001531
-0.001007
-0.0005237
0.1056
-0.1923
0.08671
-0.0006125
-0.0006245
-0.1244
0.03569
0.08871
-0.0004824
0.002547
-0.3429
-0.9346
-0.1527
0.0752
-0.00238
-0.005242
0.007622
-0.000576
-0.0006147
0.001177
0.0008247
-0.002001
-1.043
0.1279
0.9152
1.109
-0.9019
-0.2073
-0.0003513
0.00012
0.0004146
0.0003565
-0.0007711
0.0004975
-0.001054
-0.001375
0.0005503
0.0008252
-0.00231
0.0009101
0.0014
0.0003697
-0.0008203
0.001574
-0.002259
0.0006844
-0.0009372
0.0005779
0.00107
-0.0005537
0.0002777
-0.0007708
0.0004931
0.0005024
0.0001624
-0.0006648
-1.164
0.1211
-0.0003009
-0.0008612
0.001162
-0.000114
0.0009403
-0.0008262
-2.994e-05
-0.005384
0.005414
0.008386
-0.003858
-0.004528
0.1829
-0.2397
0.0568
1.031
0.443
0.001736
-0.002874
-2.961e-05
-0.0004857
0.0006663
0.0008628
-0.0001839
0.0001023
8.158e-05
-0.07717
-0.04722
-0.9834
-0.404
1.387
0.0005186
0.0003808
-0.0008994
0.001232
-6.517e-06
-0.001225
-0.05046
-0.00775
-0.0003242
-0.0004197
0.0007439
0.01511
-0.002373
-0.01274
-0.03143
0.08738
-0.05595
0.001256
-0.000506
-0.0007501
0.002629
-0.003264
0.0006349
0.0009528
-0.001067
0.005043
-0.01008
0.005033
-9.488e-06
9.488e-06
0.0002042
-4.246e-05
-0.0001284
-0.0009899
-0.0007136
-0.0002894
0.0007367
0.0006886
-0.0008864
-0.0003895
0.001276
-0.001126
-7.049e-05
0.000666
-0.001191
0.0005248
0.05452
0.006957
-0.06148
-0.001686
0.0005855
0.001101
-0.0001412
9.817e-05
4.301e-05
0.0007411
0.002235
0.7468
-1.072
0.325
0.001776
-0.0002929
-0.005423
0.004744
0.0006789
0.002307
-0.004172
0.001865
1.077
0.4502
-0.02492
0.7717
-5.301e-06
-7.86e-07
6.087e-06
0.02358
0.006332
0.0006415
-0.001194
0.0005528
-0.0006897
0.0007064
-1.676e-05
-0.0004987
0.0008708
-0.0003721
-0.004914
-0.001544
0.002321
0.004043
-0.006364
0.0007672
-0.0004001
0.004406
-0.007494
0.003088
0.001492
-0.001261
-0.0002306
-0.1515
-0.1999
0.3514
1.056
-0.04474
-1.011
-0.002572
-8.408e-05
0.002656
-0.002429
0.009214
-0.0002384
0.001037
-0.001392
0.003698
0.0007621
-0.000863
0.0001009
-0.002617
0.0008764
0.00174
0.0004321
0.0002823
-0.0007144
-0.01801
0.01737
0.004747
-0.01082
-1.119
-0.3842
1.504
-0.0002981
0.0005839
-0.0002858
0.02303
0.007933
-0.001786
0.001305
0.0004809
8.18e-07
-0.002701
0.0007637
0.001938
-0.002886
0.001761
-0.0005923
0.001654
1.252
-0.2776
-0.002005
0.002279
-0.0002738
-0.0005264
-0.0008943
0.001421
0.0002268
-0.0002417
1.491e-05
0.001136
0.004971
-0.006107
-0.002137
-0.001092
0.003229
0.0007211
0.000349
-0.0001472
0.0004075
0.0009779
0.001077
0.0001747
-0.0006425
0.0004678
-0.001825
-0.001313
0.003138
0.000852
-0.001108
0.001549
-0.002702
0.001152
-0.003754
0.0002322
-0.0001066
0.001966
0.003387
-0.006451
0.003064
-1.266e-05
1.266e-05
-0.001172
-0.004251
-0.06649
0.02427
0.0001941
-0.001687
0.001493
0.0002214
0.000436
-0.0006574
-1.028e-06
0.001452
-0.001451
0.1026
0.3743
-0.4769
0.0002642
-5.534e-05
-0.0002089
0.001061
-0.004666
0.001534
0.0002355
-1.508
0.5249
-5.879e-05
-0.0001251
0.001162
-0.000206
0.001179
-0.001419
0.0002397
-0.3855
-0.6335
1.019
-8.612e-05
0.0007522
-0.0003622
0.0004302
-6.803e-05
-0.0003535
0.001157
-0.0008038
-0.0002897
0.001166
-0.0008761
-1.191
0.8057
0.001621
-0.0009969
-0.0006237
-0.0001002
3.215e-05
6.8e-05
-0.0006742
0.001098
-0.0004242
0.002848
-0.002719
-0.0001294
-0.1578
0.06477
0.093
-0.00111
-0.0002777
-0.0002327
5.096e-06
0.0002276
-0.1629
0.1691
-0.006233
0.003081
0.0006118
-0.003692
-0.004287
0.004182
0.0001049
-0.00107
0.0001839
0.001032
0.0004902
-0.002932
0.004253
-0.003079
0.0003773
-7.497e-05
-0.001033
0.001108
0.0003069
-0.0007345
0.282
0.5869
-0.8689
0.001204
0.0004163
0.001673
-0.002557
0.0008836
0.0004679
-0.0004804
1.25e-05
-0.0002869
-0.001249
-0.01281
0.009544
0.003262
0.002225
-0.0002822
-0.0001387
-0.0005609
1.029
-0.7467
-0.0001039
0.001012
0.0005752
0.0006809
-0.0007491
-0.0003032
0.001052
8.845e-06
-9.706e-06
0.0003851
-0.001134
-0.0001317
-0.000182
-0.00163
-0.0003519
0.001982
-0.000791
0.0004716
0.0003194
-0.005163
0.001356
0.003807
0.1728
1.024
-6.505e-06
6.505e-06
-0.0004117
-0.0005983
0.00101
-0.0005596
0.001198
-0.0003225
0.0002904
3.203e-05
0.0003574
-0.0008242
0.0004668
-7.448e-05
0.0004797
-0.0004052
0.0009595
-0.0001654
-0.0007941
-0.0009152
0.0007885
0.5599
0.8424
-0.00103
-0.003137
0.004167
-0.004646
0.001312
0.003334
-1.496
0.3766
0.0005802
-0.001025
0.0004444
9.786e-05
0.0005913
0.002401
-0.0009077
0.001134
0.0003888
-0.001522
0.1382
-1.02
0.8813
-0.0003338
0.001908
-0.0004425
0.0001387
0.0003037
-0.2768
-0.7166
0.8549
0.005003
0.003383
0.003289
-0.003907
0.0006179
-0.001028
-0.001282
0.0005007
1.761e-05
-0.0005183
0.001606
-0.001353
-0.0002522
9.53e-05
-1.121e-05
-8.409e-05
-0.00434
0.001076
0.003265
-0.004584
0.006375
-0.001791
-0.8021
-0.2697
0.001402
-0.000383
-0.00102
0.0009591
-0.0004498
-0.0005093
0.0008388
-0.0006813
-0.0001575
0.0003107
-0.0006395
0.002441
-0.002188
1.08
0.08687
-1.167
0.2728
-0.2118
0.07401
-0.1308
0.05683
0.0006588
-0.0001397
-0.000519
0.04501
-0.8471
0.0258
-0.0162
-0.009604
-0.0002523
0.0005649
-0.0003127
-0.0009748
-0.001188
0.002162
0.0005674
0.0003357
-0.000903
-0.2167
0.8397
-0.623
0.0007245
-0.0003956
-0.0003288
-0.0004408
0.002517
-0.002076
-0.241
-0.01456
0.2555
0.0006365
0.0007278
0.6923
0.4738
-1.166
-0.0005564
-0.0003493
0.0009057
-9.041e-05
-6.791e-05
0.0001583
-0.001268
0.0006285
0.0006393
-0.0005019
-0.001934
0.002436
0.0001313
9.176e-05
-0.0002231
0.1841
-0.05245
-0.1316
-0.0005827
-0.0005427
0.001125
-0.009868
0.0101
-0.0002337
-0.0007682
-0.0001879
0.0001267
-0.0001171
-9.634e-06
-0.0006642
-0.0008186
0.001483
0.0002925
0.0001178
-0.0004103
-0.008227
-0.00458
0.00584
-0.006466
0.0006255
0.002286
-0.0004353
-0.001851
0.0007388
-0.0007388
-0.3413
0.1959
0.1454
-0.004855
0.007129
-0.002274
0.001369
-0.0008416
-0.0005273
-0.0006486
0.001163
-0.0005139
-0.000119
-2.222e-05
0.001101
-0.0009959
-0.0001052
-0.119
1.199
0.03713
-0.02233
-0.01481
0.000232
0.0001075
-0.0008916
5.057e-05
0.000841
0.0005037
-0.0006142
0.0001105
-0.00103
0.002243
-0.001213
0.0001066
-0.0001066
-0.001088
0.001134
-4.559e-05
-0.0005478
0.0005478
0.00192
-0.0006764
-0.001243
-0.0002005
-0.0001419
0.0003424
-0.003847
0.002817
0.0004077
-0.0002581
-0.0001496
0.09898
-0.07367
-0.02531
0.002215
-0.001671
-0.0005436
1.094
-1.518
0.424
1.313
-1.735
0.4215
0.000463
0.002248
-0.002711
-0.04536
0.09271
-0.04735
-0.001012
2.371e-05
0.0009886
0.0103
-0.002699
-0.007606
-0.0009457
0.0004199
-0.00792
0.00885
-0.0009297
0.04132
-0.09337
0.05204
-0.000719
9.446e-05
0.0006245
0.0008103
0.001187
-0.001997
0.252
-0.007421
-0.008759
0.008052
0.0007067
-0.0006352
0.001077
-0.000442
0.08667
-0.04535
-0.001179
0.0006341
0.0005449
-0.0002951
0.0002951
0.0009507
-0.0005552
-0.0003955
0.001032
-0.003261
0.002229
0.0004136
-0.0001135
-0.0003
0.002837
-0.003567
0.0007302
0.0005356
-0.0005064
-2.918e-05
-0.3353
0.1219
0.2134
-0.001658
0.0003291
-0.0008267
-0.0009592
-0.05254
0.343
-0.001033
0.0007623
-0.001451
0.0001246
0.001326
-0.001637
0.003571
-0.001935
-0.4776
-0.5496
1.027
0.2391
8.336e-05
-0.2391
0.009281
-0.005519
-0.003762
3.697e-05
1.431e-05
-5.128e-05
0.000156
-0.002644
0.002488
0.0002937
-0.0002937
-0.002519
0.001268
0.001251
0.0009714
-0.0002629
-0.0007085
-0.002325
0.002141
0.0001845
-6.54e-05
-4.612e-05
0.0001115
-0.001134
-0.0003444
0.001478
-0.4103
1.368
-0.9579
-0.0004079
0.0006019
-0.0001939
0.005963
-0.001681
-0.004282
-0.3
1.334
-1.034
-0.000762
-0.001036
0.001798
-3.461e-05
2.005e-05
1.456e-05
0.001239
0.005188
-0.006427
-0.001223
0.0004497
0.0007734
0.006527
-0.003817
-0.002709
0.001335
0.003399
-0.004734
2.496e-05
5.566e-05
-8.062e-05
0.0003963
-0.0003963
0.0009791
0.0004864
-0.001466
-0.08843
-0.05472
-0.4591
0.2214
0.2376
0.003238
-0.001227
-0.002011
-0.001827
0.001392
0.000436
0.0002637
0.0004527
-0.0007164
-0.00145
0.0007662
0.000684
-0.000605
7.669e-05
0.0005283
0.0008399
-0.0003482
-0.0004917
-0.004017
0.00356
0.0004573
-0.0119
0.01731
-0.005416
0.0003764
0.0004635
-0.03058
-0.01015
0.04074
-0.0008965
-7.624e-05
0.0009728
0.1384
-0.5794
0.4409
0.000694
0.0008305
-0.001525
-5.975e-05
7.664e-05
-1.689e-05
-0.002566
0.003429
-0.0008639
0.001403
-0.001132
-0.0002705
-0.00191
0.0009114
0.0009983
-0.3813
0.0983
0.283
-0.1855
0.05354
0.132
-0.0002133
0.0003798
-0.0001664
0.008443
-0.009638
0.001195
0.0003112
-0.0005947
0.0002835
0.0007396
-0.001306
0.0005668
-0.000249
0.000454
-0.000205
0.001393
-0.001355
-3.776e-05
0.001327
-0.0002045
-0.001123
-0.001962
0.001521
0.0004411
0.0001709
-0.001022
0.0008515
0.0008863
-0.0008863
-5.494e-05
0.001067
-0.001012
-8.293e-05
0.0006562
-0.0005733
0.001203
-0.0009587
-0.0002438
-0.002955
0.004443
-0.001489
0.001075
-0.002092
0.001018
-4.328e-05
0.0005078
-0.0006281
0.0006674
-3.921e-05
4.054e-05
-4.705e-05
6.51e-06
-5.901e-05
3.62e-05
2.281e-05
-0.002305
0.001058
0.001248
-0.3211
0.4237
0.5938
0.2175
-0.8113
-0.001229
0.001738
-0.0005085
0.0002062
0.0006527
-0.0008589
0.005219
-0.0009603
-0.004259
-0.1883
1.179
-0.9902
0.000354
0.0008305
-0.001184
-0.002038
-0.0002206
-0.002702
-0.005539
0.008242
0.0002948
0.0001782
-0.000473
0.003272
-0.002918
-0.0003544
-0.000141
0.0006765
-0.0005355
0.002258
-0.003055
0.0007966
0.7866
-0.6764
-0.009059
0.003048
0.006012
0.01223
0.0001581
-0.01239
0.0006114
-5.736e-05
-0.0005541
0.0001712
0.0003049
-0.0004761
-0.0004733
0.0003425
0.0001308
-0.005231
0.001967
0.003264
0.002792
-0.00674
0.003947
0.00051
-0.001193
0.0006829
-0.001077
0.001672
-0.0005951
-0.002241
-0.001563
0.003804
0.003298
-0.001314
-0.001983
-0.0009429
-0.000196
0.001139
0.002324
-0.001918
-0.000406
0.0009675
-0.0008063
-0.0001612
0.0007056
-0.0005373
-0.0001682
0.2518
-0.3147
0.06295
-0.0007091
0.0004759
0.0002333
-1.779e-05
-7.044e-05
8.823e-05
0.002246
-0.0005731
-3.941e-05
0.001504
-0.001464
-0.0003282
7.078e-05
0.01968
-0.1181
0.09837
-0.0008318
0.0008318
-0.0008667
0.0008667
-0.1651
-1.043
1.208
1.259
0.231
-1.491
-0.001656
0.0009157
0.0007406
0.0004991
-0.002695
0.002196
-2.52e-05
3.308e-05
-7.876e-06
-8.782e-05
0.0001524
-6.457e-05
-0.000242
0.002457
-0.0007053
0.0009348
-0.0002295
0.0006579
7.619e-05
-0.0007341
-0.001158
-0.004529
0.005687
0.003833
0.005413
-0.009246
-0.1884
0.0577
0.1307
0.0008081
-0.0005002
-0.0003079
-0.0009539
-0.00135
0.002304
-0.0004053
0.0008959
-0.0004905
-0.005242
0.001174
0.004068
-4.557e-05
7.312e-05
-2.755e-05
0.0008643
-0.001151
0.0002865
0.8096
-1.137
0.3269
-0.001037
0.001037
0.0005605
-0.0003593
-0.0002012
0.1669
0.5622
-0.7291
0.001085
-8.314e-05
-1.279
1.114
0.2396
-0.4231
0.1835
-0.003409
0.002359
0.00105
-0.01157
-0.002367
0.01393
0.0007053
-0.0003402
-0.0003651
0.7788
-0.9454
0.1665
0.00148
-0.0007146
-0.0007654
0.4788
-0.1383
-0.3406
0.0003993
-0.0009203
0.000521
-0.01726
0.005577
0.01168
0.009482
-0.008571
-0.0009109
0.006476
-0.003382
-0.003094
-0.0003026
-0.001093
0.001396
-0.001059
-0.0004915
0.00155
0.0006449
0.0002431
-0.000888
0.001964
0.0004087
-0.002372
0.1503
0.6464
-0.7967
0.004546
0.06691
-0.07146
-0.003689
0.001854
0.001834
-0.0002153
-0.001147
0.001362
0.0001832
-0.0005912
0.0004081
0.0008629
-0.0005209
-0.000342
0.0003395
-0.0001873
-0.0001522
-0.0005333
-0.0001588
0.000692
-0.0005356
0.0005356
-0.0007382
0.00129
0.001757
-0.001255
-0.0005024
-0.0004774
0.001284
-0.0008066
-0.001484
0.0009149
0.0005692
0.0005318
0.0003328
-0.0008645
0.00463
-0.006539
0.001909
0.008986
-0.003806
-0.00518
0.4781
-0.3565
-0.1216
-0.001335
0.001471
-0.0001357
-0.0001599
0.0002542
-9.427e-05
-0.001041
-4.595e-06
0.001045
0.4952
-1.093
0.5979
-0.0008004
0.0002962
0.0005041
0.003288
-0.001701
-0.001587
-0.002655
0.000698
0.001957
0.001848
-0.0008318
-0.001016
-0.0002516
0.001154
-0.0009027
0.00149
0.007076
-0.008565
0.001127
-0.001318
0.0001911
-0.001041
-0.002127
0.003169
-0.001303
-0.001351
-0.0001272
-0.0002295
0.0003567
-0.0009445
-0.0001604
0.001105
9.878e-05
2.796e-05
-1.176
0.54
0.6361
0.002376
-0.004597
0.002222
-0.001224
0.0004814
0.0007424
0.1309
0.05377
-0.1847
-0.001207
0.000351
0.0008564
0.0008056
0.0002348
-0.00104
-1.248
1.248
0.001733
0.002631
-0.004363
-0.0001372
0.0002284
-9.114e-05
0.0655
-0.0524
-0.0131
0.006914
-0.002284
-0.004128
0.00409
3.774e-05
0.0005773
2.157e-06
-0.0005795
0.01299
-0.009954
-0.003039
-1.267
0.5225
0.7441
0.0008632
-0.00141
0.0005471
-0.0003623
0.0009136
-0.0005513
0.4062
-0.2578
-0.1483
-0.008765
0.005067
0.003698
-0.002023
-0.02951
0.03153
-0.001603
-0.0007182
0.002321
-0.0008055
-0.0003214
0.001127
-0.001711
-0.0008382
0.002549
-0.04893
-0.05273
0.1017
-1.745e-05
-7.409e-05
9.154e-05
-1.925e-06
-6.167e-05
6.359e-05
0.0003437
0.001187
0.0005132
-0.001902
0.001388
-0.001758
0.002867
-0.001109
0.0002432
0.0001645
-0.3923
1.244
-0.8517
0.0003484
-0.001594
0.001245
0.3533
-0.00944
-0.3438
0.0009029
-0.001274
0.0003708
-0.001324
0.001297
2.643e-05
0.0006953
0.0008388
-0.001534
0.000526
0.001322
-7.904e-05
4.72e-05
3.184e-05
0.0007201
-0.0008092
8.907e-05
-0.5587
0.22
0.3387
0.0001126
-0.0001126
-0.000819
0.0005858
0.0002332
0.0002084
-0.0009671
0.0007587
-0.001887
-0.0002362
0.002124
-0.0004063
0.0005167
-0.001808
-0.001681
0.003488
0.009099
-0.008268
-0.0008315
-0.0008099
0.0006508
0.0001591
0.002348
-0.001626
-0.0007225
-0.009848
0.02515
-0.0153
0.0001566
-0.0001567
-0.0005728
0.0007181
-0.0001453
-0.001297
0.0005551
0.0007419
0.0007913
0.0003069
-0.001098
0.001923
-0.001591
-0.0003321
0.0003112
0.0005613
-0.0008725
-5.841e-05
-0.0003994
0.0004578
0.0002097
0.0001466
-0.0003563
0.00262
-0.001908
-0.0007115
0.001138
-0.0002655
-0.0008723
0.0008099
-0.002912
0.002102
-0.0005721
-0.0007307
0.001303
-0.0017
0.000882
0.0008175
-0.006431
-0.0001398
0.006571
-0.0003437
0.0003437
-0.02226
0.007076
0.01518
0.001181
0.0004653
-0.001647
-0.006125
0.01606
0.001139
-0.001582
0.0004433
-1.272
0.5152
0.7567
0.5532
-0.7875
0.2343
0.002787
-0.004614
0.001827
0.0002581
-0.0003059
4.774e-05
-0.001728
0.0003576