/*--------------------------------*- C++ -*----------------------------------*\
  =========                 |
  \\      /  F ield         | OpenFOAM: The Open Source CFD Toolbox
   \\    /   O peration     | Website:  https://openfoam.org
    \\  /    A nd           | Version:  8
     \\/     M anipulation  |
\*---------------------------------------------------------------------------*/
FoamFile
{
    version     2.0;
    format      ascii;
    class       volVectorField;
    location    "10";
    object      U;
}
// * * * * * * * * * * * * * * * * * * * * * * * * * * * * * * * * * * * * * //

dimensions      [0 1 -1 0 0 0 0];

internalField   nonuniform List<vector> 
127143
(
(0.2049 -0.01016 0)
(-0.003879 -0.01864 -2.07e-22)
(0.003284 0.01549 4.038e-22)
(0.005279 0.02312 1.298e-24)
(0.7365 0.2398 -6.621e-22)
(0.005242 0.0236 -3.377e-24)
(0.6758 0.4099 0)
(0.7324 0.3441 -3.919e-22)
(0.7176 0.3219 1.611e-21)
(0.6253 0.0287 0)
(0.373 0.55 -4.404e-21)
(0.667 0.4165 4.857e-22)
(0.08971 -0.03285 -3.952e-23)
(0.005905 0.02618 0)
(0.3247 -0.3344 1.878e-21)
(0.9019 -0.06171 0)
(-0.0077 -0.02574 -3.968e-22)
(0.7365 -0.06816 2.186e-21)
(0.63 -0.1382 0)
(0.991 -0.0218 0)
(0.9116 -0.2162 1.55e-21)
(0.334 -0.1193 0)
(1.03 -0.1627 0)
(1.12 -0.1032 0)
(0.3331 -0.1187 -1.06e-22)
(1.105 -0.178 0)
(1.188 -0.01247 4.832e-21)
(1.191 0.01497 -7.758e-23)
(0.9376 -0.4357 0)
(0.7875 -0.05315 -3.545e-21)
(1.124 -0.07423 0)
(1.081 -0.1799 1.324e-21)
(1.293 0.3239 7.471e-22)
(0.8811 -0.2132 -3.384e-21)
(0.8958 -0.08613 1.476e-21)
(1.306 0.326 3.164e-25)
(0.5751 -0.1886 5.233e-22)
(1.034 -0.1607 -6.206e-22)
(1.123 -0.1035 2.698e-23)
(1.131 -0.05489 2.243e-25)
(0.6295 -0.1367 0)
(1.111 0.2837 -1.726e-22)
(1.089 0.2715 1.211e-22)
(0.1539 -0.05118 0)
(0.7384 -0.0638 -2.263e-21)
(0.8881 -0.2148 1.05e-21)
(0.9498 -0.434 0)
(0.6058 -0.1884 -1.072e-22)
(1.147 -0.197 -1.765e-22)
(1.121 -0.09242 5.574e-24)
(0.9356 -0.06593 -5.58e-23)
(0.952 -0.03712 2.807e-21)
(1.131 -0.1353 0)
(1.085 -0.05829 -9.156e-22)
(1 -0.002508 3.351e-21)
(1.122 -0.2845 4.967e-22)
(0.9996 -0.002709 -3.101e-21)
(1.111 -0.1011 0)
(1.001 -0.01737 -3.117e-21)
(1.086 -0.05493 -1.752e-21)
(0.6786 -0.1849 -4.805e-21)
(0.708 -0.1923 -1.944e-22)
(1.129 -0.08702 -4.016e-24)
(1.002 0.001079 4.953e-21)
(1.178 -0.1128 0)
(1.014 -0.2764 -1.091e-21)
(1.056 0.02236 2.031e-21)
(1.128 -0.08947 0)
(1.128 -0.08937 -3.99e-24)
(0.9981 0.0006327 0)
(1.117 -0.09268 0)
(1.213 -0.0005857 -2.077e-21)
(0.5657 -0.09891 -7.053e-22)
(1.002 -0.01665 -1.669e-21)
(1.007 0.006038 -2.476e-22)
(1.229 0.01201 2.328e-21)
(1.02 0.04151 -1.48e-21)
(0.6554 -0.2046 0)
(1.123 -0.2842 -9.815e-22)
(1.001 0.001426 0)
(0.9468 -0.423 -6.613e-23)
(1.023 -0.02488 4.123e-23)
(0.917 -0.2158 1.178e-21)
(1.113 -0.07129 0)
(0.504 -0.1267 1.708e-22)
(0.65 -0.2024 0)
(1.128 -0.1122 9.831e-23)
(1.275 0.09918 1.29e-21)
(1.01 -0.2739 0)
(1.216 0.6077 0)
(0.9964 -0.02915 0)
(0.9475 -0.1517 0)
(1.197 0.5852 0)
(0.9125 -0.2158 -1.6e-21)
(1.003 -0.2014 0)
(1.044 -0.03831 -6.855e-22)
(1.11 0.2767 3.312e-22)
(1.103 -0.08545 0)
(0.7306 -0.2136 3.983e-22)
(1.055 0.02653 0)
(1.001 0.001385 0)
(1.147 -0.1972 0)
(0.9735 0.8341 6.706e-23)
(1.129 -0.13 0)
(0.6507 -0.2022 -1.672e-22)
(0.7291 -0.2138 5.618e-22)
(1.144 -0.175 4.466e-22)
(0.9979 0.000634 0)
(0.9031 -0.3546 0)
(1.005 -0.001267 3.511e-20)
(0.3334 -0.3349 -5.557e-22)
(1.262 0.1054 2.429e-21)
(0.9561 -0.2113 -1.481e-21)
(0.3549 0.2318 0)
(0.9953 0.02091 1.848e-21)
(1.124 -0.1803 5.619e-23)
(0.9963 0.0524 -2.165e-22)
(1.007 0.006276 -3.349e-21)
(1.02 0.04085 9.628e-22)
(0.007307 0.04138 0)
(1.005 -0.001451 -5.072e-20)
(0.8806 -0.2203 -2.907e-22)
(1.031 -0.3645 0)
(1.096 -0.1101 -5.251e-22)
(0.9437 -0.4295 6.011e-22)
(1.036 -0.1377 2.279e-21)
(0.7457 -0.2065 0)
(1.028 -0.00572 5.196e-21)
(1.185 -0.1055 -2.742e-22)
(1.106 -0.3159 -8.049e-22)
(0.7449 -0.219 0)
(0.9406 -0.215 -7.486e-22)
(1.13 -0.1022 9.873e-23)
(0.6555 -0.2043 0)
(-0.01003 -0.03044 -7.511e-22)
(0.746 -0.2191 -2.699e-22)
(0.9497 -0.07215 0)
(0.93 -0.2105 4.112e-22)
(0.8545 -0.4715 -3.539e-21)
(0.9881 -0.0679 4.725e-22)
(1.029 -0.1947 2.14e-21)
(0.989 0.04525 1.37e-21)
(1.082 -0.1567 5.676e-23)
(0.9874 -0.1914 -1.05e-21)
(1.13 -0.1349 -1.572e-22)
(1.285 0.3058 3.474e-22)
(0.01098 0.06915 2.064e-21)
(1.002 0.0009083 -4.014e-21)
(0.9401 -0.215 6.507e-22)
(1.06 0.836 1.26e-23)
(1.13 -0.1214 1.127e-22)
(1.145 -0.2199 0)
(1.042 -0.1529 2.214e-21)
(0.903 -0.1639 0)
(0.5773 -0.4126 0)
(0.5066 -0.1269 0)
(1.111 -0.1002 1.167e-22)
(1.059 -0.3653 0)
(0.6059 -0.188 -2.023e-22)
(1.101 -0.09177 -2.312e-23)
(1.124 -0.07706 0)
(0.6581 -0.324 1.61e-20)
(0.9976 -0.02993 1.613e-22)
(0.7437 -0.2188 -7.07e-22)
(1.114 -0.2923 0)
(1.18 -0.1129 1.359e-21)
(0.59 -0.1933 -3.027e-22)
(0.862 -0.3119 1.318e-21)
(1.367 0.2719 -6.005e-22)
(0.9482 0.05258 -1.129e-22)
(0.3993 -0.1396 0)
(0.9861 -0.1919 4.865e-22)
(1.126 -0.1918 2.765e-22)
(1.089 -0.303 -1.148e-21)
(0.9884 -0.0009577 1.835e-20)
(0.4305 -0.1311 4.712e-24)
(1.253 0.368 -2.84e-23)
(1.185 -0.1063 -2.706e-22)
(1.124 -0.1135 0)
(0.955 -0.03248 1.283e-21)
(1.089 -0.3038 -3.923e-22)
(1.022 -0.0459 0)
(0.4139 -0.1187 7.258e-23)
(0.4303 -0.1305 -4.824e-24)
(1.105 -0.3172 1.531e-21)
(0.709 -0.1917 3.462e-22)
(1.039 0.1475 -1.676e-22)
(0.3732 0.2489 -7.471e-22)
(1.121 -0.1033 5.233e-23)
(0.9748 -0.04108 3.525e-21)
(1.117 -0.1492 1.235e-22)
(1.131 -0.1472 -8.513e-22)
(0.9536 -0.07068 3.16e-21)
(0.3941 0.574 -6.357e-22)
(-0.008113 -0.03522 1.728e-21)
(0.8172 -0.2122 0)
(1.001 1.854e-05 0)
(0.9999 2.386e-06 -7.967e-23)
(0.6312 -0.004744 0)
(0.9888 0.02949 4.541e-22)
(1.019 0.01333 2.728e-21)
(0.9266 0.01497 4.708e-21)
(0.8713 -0.03886 -2.761e-21)
(0.5765 -0.1885 -2.52e-22)
(0.008524 0.0406 6.339e-23)
(1.13 -0.0781 3.063e-23)
(1.014 -0.1143 8.543e-22)
(1.139 -0.1944 -9.332e-23)
(0.7927 -0.05595 4.91e-21)
(0.9953 0.02036 -9.07e-22)
(0.9002 -0.1232 8.744e-22)
(0.4819 -0.1293 1.16e-22)
(0.9827 -0.008006 2.502e-21)
(1.367 0.2754 -6.187e-22)
(0.748 -0.2205 -1.05e-24)
(0.8733 -0.03716 0)
(0.4119 -0.1468 -1.669e-22)
(1.136 -0.2136 6.394e-22)
(0.8929 -0.2215 -1.01e-21)
(1.014 -0.1132 1.846e-22)
(1.244 0.3618 -4.272e-23)
(1.003 0.01008 -6.414e-21)
(1.145 -0.2196 -1.846e-22)
(1.136 -0.1293 1.546e-22)
(1.095 -0.08931 0)
(0.4186 -0.148 0)
(1.117 -0.2939 -1.06e-21)
(1.035 -0.1591 6.419e-22)
(0.4699 -0.1636 1.923e-22)
(0.725 -0.209 6.342e-22)
(0.9201 -0.2155 9.775e-22)
(1.021 -0.04664 2.22e-21)
(0.5719 -0.1006 1.406e-21)
(0.05278 -0.1023 0)
(0.9195 -0.2154 0)
(1.071 -0.1039 -6.677e-22)
(0.744 -0.2189 3.337e-22)
(0.4011 -0.02103 8.899e-23)
(1.02 0.01285 -2.861e-21)
(1.105 -0.1523 6.231e-22)
(1.131 -0.1469 7.773e-22)
(1.213 -0.08621 -1.805e-21)
(0.5008 -0.1592 -5.55e-23)
(1.059 -0.3651 -8.927e-25)
(1.116 -0.1225 0)
(0.00769 0.04075 1.544e-25)
(1.145 -0.2234 7.804e-22)
(1.188 -0.02151 0)
(0.3119 -0.1017 2.24e-21)
(0.9982 0.0009248 -5.606e-21)
(1.234 0.2016 -1.103e-21)
(1.091 -0.1179 -5.955e-22)
(1.124 -0.2536 0)
(0.9674 -0.2028 0)
(1.132 -0.2735 7.666e-22)
(0.921 -0.3551 0)
(1.027 -0.00588 -4.784e-21)
(1.353 0.3504 0)
(1.102 -0.2691 0)
(0.9121 0.1263 4.038e-22)
(0.8515 -0.2124 -7.518e-22)
(0.9993 -0.04982 -1.361e-21)
(0.9503 -0.1496 6.609e-24)
(0.9877 0.04475 -1.108e-21)
(1.163 -0.1037 0)
(1.196 -0.09935 -6.092e-22)
(0.668 -0.2099 8.464e-22)
(0.555 -0.4248 0)
(0.7515 -0.2935 3.182e-21)
(1.13 -0.08536 -6.942e-22)
(1.132 -0.2126 0)
(0.9876 -0.001026 -2.116e-20)
(0.5994 -0.1829 -1.705e-22)
(1.105 -0.153 -6.603e-22)
(1.13 -0.08382 2.406e-24)
(1.117 -0.1487 -5.938e-22)
(0.9556 -0.2113 0)
(1.144 -0.1763 -7.749e-22)
(0.9789 -0.003446 1.407e-21)
(1.068 -0.303 6.205e-22)
(0.9905 -0.00116 -2.347e-21)
(1.035 -0.03378 -5.344e-23)
(1.128 -0.1299 4.333e-25)
(0.9899 0.008679 0)
(1.007 0.01946 -7.974e-23)
(-0.01742 -0.04149 -2.237e-22)
(0.811 -0.224 0)
(0.996 0.02222 8.448e-22)
(1.14 -0.1563 -4.811e-22)
(0.9519 -0.03319 2.833e-21)
(1.041 -0.1518 -2.716e-21)
(1.067 -0.2031 0)
(1.07 -0.1047 6.545e-22)
(1.125 -0.2106 0)
(0.9873 -0.01898 -2.441e-21)
(0.9054 -0.375 -4.092e-23)
(1.114 -0.09387 -2.806e-23)
(0.2975 -0.1146 -9.164e-23)
(0.5012 -0.1596 2.115e-22)
(1.129 -0.08426 4.015e-22)
(1.114 -0.1228 1.461e-22)
(1.046 -0.2504 -1.892e-22)
(0.935 -0.2799 -1.06e-21)
(1.122 -0.18 -6.591e-22)
(1.092 -0.08472 0)
(0.756 -0.4305 3.927e-24)
(1.138 -0.194 -3.194e-23)
(0.982 -0.008084 0)
(0.8219 -0.1904 -4.835e-24)
(1.132 -0.119 1.458e-22)
(1.144 -0.1706 4.306e-22)
(0.3039 -0.1525 -1.891e-23)
(1.132 -0.2741 0)
(0.9909 -0.001191 -1.022e-21)
(0.9848 0.01158 -4.071e-21)
(1.305 0.4139 3.853e-23)
(1.045 -0.1621 3.263e-22)
(1.11 -0.1162 -2.678e-22)
(0.9844 -0.1263 2.155e-21)
(0.935 -0.01465 5.365e-21)
(1.026 -0.161 0)
(1.117 -0.08077 -3.344e-23)
(1.025 -0.02196 1.345e-21)
(1.125 -0.2532 2.84e-22)
(1.307 0.414 0)
(1.084 -0.1458 -5.668e-22)
(0.9109 -0.04028 2.14e-21)
(0.4221 -0.02653 -4.587e-23)
(1.129 -0.02907 9.668e-23)
(1.208 0.4219 3.012e-22)
(0.6864 -0.1972 0)
(1.007 0.01915 2.969e-23)
(0.8992 -0.08595 -4.347e-21)
(1.001 1.426e-05 0)
(0.9998 1.907e-06 0)
(0.8999 -0.1584 0)
(0.9132 -0.3535 -2.092e-22)
(1.126 -0.1923 3.026e-22)
(0.6853 -0.197 -2.429e-22)
(0.829 -0.2245 -2.25e-21)
(0.9885 -0.06621 -1.941e-21)
(1.136 -0.213 0)
(1.123 -0.1362 1.381e-22)
(1.118 -0.1477 9.461e-23)
(0.4031 -0.1362 5.823e-24)
(1.139 -0.156 3.337e-22)
(0.9188 -0.2198 -7.8e-22)
(1.005 -0.1999 5.23e-22)
(1.124 -0.1343 3.678e-22)
(1.211 -0.08473 0)
(1.125 -0.1295 -2.488e-22)
(0.6933 -0.1584 5.847e-22)
(0.4483 -0.1437 -9.269e-23)
(1.118 -0.1481 4.261e-22)
(0.9321 0.04863 0)
(0.902 -0.22 -1.765e-21)
(0.9663 -0.2035 -6.075e-22)
(1.284 0.2673 -2.669e-22)
(0.9805 -0.01511 2.888e-21)
(1.125 -0.02635 0)
(0.5947 -0.1764 -2.886e-22)
(1.129 -0.08703 -1.434e-24)
(0.7743 -0.1254 -1.583e-21)
(1.122 -0.08336 0)
(1.122 -0.09527 2.63e-23)
(1.004 0.004958 -2.057e-23)
(0.9891 0.02881 -1.444e-21)
(0.9652 -0.007544 0)
(1.014 -0.1936 7.093e-22)
(0.9813 -0.00314 0)
(0.5905 -0.2191 4.929e-21)
(1.024 -0.02353 -2.881e-21)
(1.105 -0.1208 4.783e-22)
(1.12 -0.08617 3.572e-24)
(0.9792 -0.03966 0)
(1.005 -0.08922 -1.308e-22)
(1.119 -0.1086 -9.809e-23)
(0.322 -0.2117 -1.52e-24)
(0.7061 -0.209 -1.033e-21)
(0.9761 -0.004481 1.014e-22)
(0.8407 -0.1681 -3.522e-21)
(1.067 -0.1394 -2.038e-21)
(1.122 -0.14 0)
(1.046 -0.2537 -1.055e-21)
(0.9965 0.05157 0)
(1.018 -0.07072 0)
(0.9803 0.09085 0)
(1.132 -0.05507 0)
(0.8195 -0.2131 -2.153e-22)
(0.9393 -0.1828 -2.222e-21)
(1.01 -0.01224 -6.861e-21)
(0.8898 -0.2529 0)
(0.4388 -0.1537 1.598e-22)
(1.127 -0.2817 7.959e-22)
(1.12 -0.1021 -1.169e-22)
(1.112 -0.08349 1.426e-23)
(0.8942 -0.2541 -9.7e-22)
(1.125 -0.07402 0)
(0.9304 0.04682 0)
(0.9977 -0.04876 0)
(1.091 -0.08134 -1.888e-23)
(1.003 0.009666 2.646e-21)
(0.9509 -0.2093 0)
(0.4165 -0.1187 0)
(0.9845 0.09028 0)
(1.134 -0.1354 -1.756e-22)
(0.6542 -0.2021 -9.459e-22)
(1.13 -0.1077 -1.377e-22)
(0.9999 0.001317 -4.35e-20)
(1.125 -0.1136 0)
(0.9358 -0.3961 0)
(1.133 -0.1617 9.793e-22)
(1.029 -0.1931 -2.16e-21)
(0.6217 -0.1903 0)
(1.029 -0.3632 0)
(1.004 -0.201 -6.597e-22)
(0.8098 -0.2218 -1.038e-21)
(1.125 -0.2112 0)
(1.087 -0.1295 4.539e-22)
(1.011 -0.3949 -5.863e-22)
(0.5904 -0.1931 0)
(0.5204 -0.1798 -1.427e-21)
(0.7622 -0.2221 0)
(0.9991 0.001045 1.813e-21)
(0.7245 -0.2094 -7.85e-22)
(0.956 0.1475 -1.626e-22)
(1.084 0.2608 9.591e-24)
(0.9831 -0.1827 -1.158e-21)
(1.214 -0.08624 1.693e-21)
(1.01 -0.1333 -6.33e-22)
(1.005 -4.136e-05 0)
(0.7534 -0.2211 0)
(0.446 -0.1442 0)
(0.8661 -0.1341 5.054e-21)
(1.214 -0.03889 9.633e-23)
(1.004 0.004865 2.957e-22)
(1.139 -0.169 -2.962e-22)
(0.9484 -0.2135 -1.349e-21)
(0.9527 -0.03614 -1.48e-21)
(0.9865 -0.01799 0)
(0.9948 -0.001158 -2.475e-21)
(1.122 -0.09257 -8.946e-24)
(0.9444 -0.07389 -1.666e-21)
(0.9189 -0.3604 2.313e-22)
(0.9617 0.04789 0)
(1.105 -0.08571 7.722e-26)
(0.9801 0.01188 5.759e-21)
(0.6928 -0.4593 0)
(0.9623 -0.008213 -6.571e-22)
(0.4818 -0.128 1.005e-22)
(0.8493 -0.2203 0)
(1.129 -0.1368 2.402e-25)
(1.133 -0.135 3.476e-22)
(1.041 -0.1873 4.487e-21)
(0.8927 0.0545 6.06e-23)
(0.561 -0.1832 -9.154e-23)
(1.12 -0.1328 2.19e-22)
(1.225 -0.07312 0)
(0.5848 -0.1886 0)
(1.081 -0.126 5.84e-22)
(1.13 -0.1022 -4.348e-23)
(1.176 -0.105 4.125e-22)
(0.9151 -0.1951 0)
(0.4271 0.2202 -3.791e-21)
(1.176 -0.1059 -8.763e-25)
(0.9914 -0.0004095 0)
(1.012 0.03738 0)
(1.029 -0.1869 0)
(0.8533 -0.223 8.556e-22)
(0.9999 -7.545e-05 0)
(0.7425 -0.213 5.084e-22)
(0.9753 -0.1438 1.42e-21)
(1.096 -0.1093 7.81e-22)
(1.044 -0.1613 -1.053e-22)
(1.008 -0.101 1.091e-21)
(1.008 0.0004793 0)
(0.4997 -0.3703 -2.487e-21)
(0.9776 -0.1415 -1.286e-21)
(0.5065 -0.1754 -1.653e-22)
(1.119 -0.1311 2.652e-23)
(0.8556 -0.4702 3.79e-22)
(0.6745 -0.4548 -4.712e-22)
(1.103 -0.1641 3.581e-22)
(1.131 -0.2744 0)
(0.9305 -0.387 0)
(1.212 -0.03843 -1.005e-22)
(1.109 -0.1315 -1.891e-23)
(1.018 0.004814 4.609e-21)
(1.106 -0.09244 3.635e-23)
(0.962 0.02709 2.475e-21)
(1.289 0.4095 1.279e-23)
(1.128 -0.1123 -8.448e-23)
(1.139 -0.1329 0)
(1.29 0.2903 1.624e-22)
(0.008646 0.05287 0)
(0.7286 -0.2179 8.6e-22)
(0.4201 0.0607 5.366e-22)
(1.077 -0.08134 -9.706e-24)
(1.009 0.5097 -2.744e-22)
(0.9842 -0.002242 -1.767e-20)
(0.8594 -0.4665 0)
(1.013 0.03709 1.857e-24)
(0.4944 -0.1611 0)
(0.8196 -0.2115 -7.802e-22)
(-0.009098 -0.03232 0)
(-0.01631 -0.07774 6.737e-22)
(0.2817 -0.09413 -1.127e-22)
(1 -0.0003979 -2.55e-20)
(0.9023 -0.2201 0)
(1.282 0.02754 0)
(0.9853 0.01163 8.527e-21)
(0.6222 -0.1812 4.507e-22)
(1.034 -0.3672 1.311e-21)
(0.6647 -0.2076 6.181e-22)
(1.132 -0.1601 0)
(0.8493 -0.2206 0)
(1.129 -0.1368 2.483e-22)
(0.7434 -0.2131 -5.218e-22)
(0.9214 -0.1783 4.677e-22)
(0.993 -0.000183 0)
(0.4608 -0.1164 -1.481e-22)
(0.3159 -0.1128 0)
(1.007 -0.4015 3.732e-22)
(1.112 -0.1081 -4.815e-23)
(0.4007 -0.1395 6.122e-23)
(1.005 -0.01544 -2.135e-21)
(1.13 -0.1213 1.048e-22)
(0.8755 -0.04003 -6.864e-22)
(0.916 -0.1942 9.328e-22)
(1.005 -0.01417 0)
(1.1 -0.08979 0)
(1.296 0.5662 0)
(0.46 -0.1611 -2.667e-22)
(0.9996 -9.263e-07 0)
(1.028 -0.1875 -4.759e-22)
(1.071 -0.12 5.341e-22)
(0.3704 -0.13 -3.287e-26)
(0.9093 -0.3995 2.653e-22)
(1.36 0.3478 1.712e-22)
(0.8716 -0.194 -3.56e-22)
(0.9561 0.01761 1.811e-22)
(0.5413 -0.1833 -1.562e-22)
(0.9991 -0.3622 -6.388e-22)
(0.9999 -7.311e-05 7.207e-22)
(1.047 -0.2523 1.401e-21)
(1.079 -0.1315 -3.236e-21)
(1.116 -0.09421 2.353e-23)
(1.123 -0.08325 1.026e-23)
(0.8508 -0.2228 -9.42e-22)
(0.6166 -0.2015 2.012e-22)
(0.8198 -0.2125 3.857e-22)
(1.166 -0.07028 0)
(1.018 -0.3884 4.732e-22)
(0.6332 -0.2017 0)
(0.7549 -0.2211 2.128e-23)
(1.021 -0.005782 -5.982e-22)
(1.134 -0.05666 4.794e-23)
(0.7977 -0.223 -4.161e-22)
(1.132 -0.1705 -1.186e-21)
(1.133 -0.1211 2.367e-22)
(0.5257 -0.1672 2.203e-22)
(1 0.002715 0)
(0.9997 0.003507 9.488e-21)
(0.9164 0.1223 -6.405e-22)
(0.9171 -0.2203 -3.942e-22)
(0.9833 0.5414 0)
(0.9834 0.01388 -4.288e-21)
(1.004 0.0007311 -2.14e-21)
(0.9988 -0.3499 0)
(0.9807 -0.421 0)
(0.6454 -0.2007 3.079e-22)
(0.9298 -0.388 0)
(0.5633 -0.1884 8.164e-22)
(0.6118 -0.1983 0)
(1.108 -0.2376 -2.748e-22)
(1.018 0.03987 0)
(1.002 -0.0004281 2.758e-21)
(0.4799 -0.1669 2.536e-22)
(0.7678 -0.2171 -3.964e-22)
(1.13 -0.2548 8.237e-22)
(1.002 -0.0006901 1.592e-20)
(1.209 -0.02144 1.107e-21)
(1.131 -0.1133 0)
(0.8376 -0.225 7.924e-22)
(0.9763 -0.004366 -2.614e-21)
(1.097 -0.1357 -7.256e-23)
(0.9829 0.01337 6.778e-21)
(0.6557 -0.202 -1.528e-22)
(0.4209 -0.1097 0)
(0.9102 -0.1867 4.448e-23)
(0.9967 7.201e-05 -2.486e-21)
(0.6173 -0.2007 -7.561e-22)
(0.8525 -0.2123 -1.851e-22)
(0.8197 -0.4269 -1.057e-20)
(1.008 0.0004552 -2.781e-21)
(1.144 -0.1752 -4.248e-22)
(0.4119 -0.1469 7.572e-23)
(0.9949 -0.001405 0)
(1.134 -0.1356 0)
(0.9895 0.02163 -1.054e-22)
(1.125 -0.08447 5.028e-24)
(1.097 -0.1407 0)
(0.9899 0.00828 6.679e-21)
(0.8969 -0.2201 2.478e-21)
(1.137 -0.1519 -2.514e-22)
(0.2492 -0.1433 0)
(1.083 -0.1704 -9.735e-22)
(1.081 -0.155 -1.059e-22)
(1.126 -0.1302 6.965e-22)
(1.123 -0.1396 3.019e-22)
(0.4324 -0.2846 -2.396e-21)
(1.124 -0.1037 2.185e-23)
(1.191 0.58 2.933e-23)
(1.139 -0.05715 -7.316e-23)
(0.4602 -0.1515 -9.979e-23)
(1.159 -0.1135 -1.641e-22)
(1.103 -0.09894 -3.732e-23)
(1.003 -0.0007061 0)
(1.141 -0.2394 -9.067e-22)
(0.9875 0.01005 -2.046e-21)
(0.4119 -0.1147 -1.415e-21)
(1.034 0.007778 2.449e-21)
(1.081 -0.1564 7.844e-22)
(1.005 -4.997e-05 0)
(0.9954 0.02202 2.318e-21)
(1.114 -0.09974 -3.781e-22)
(1.01 -0.3951 2.958e-22)
(0.9162 -0.2175 6.734e-22)
(1.006 9.439e-05 1.357e-20)
(1.004 -0.002671 -5.082e-21)
(0.4713 -0.1637 -1.793e-22)
(1.341 0.1731 0)
(0.9213 -0.2166 1.064e-21)
(1.108 -0.09684 7.162e-23)
(0.5622 -0.1502 0)
(0.9178 -0.3592 -2.364e-22)
(0.8437 -0.2202 -9.871e-23)
(0.9369 -0.3973 0)
(1.117 -0.1474 -1.319e-23)
(0.7453 -0.2206 -2.538e-21)
(1.194 -0.09919 0)
(1.006 7.006e-05 -2.143e-21)
(1.234 -0.06285 1.034e-21)
(1.11 -0.1497 4.762e-23)
(1.109 -0.1756 1.732e-22)
(1.054 -0.1301 0)
(1.001 -0.02836 -9.042e-21)
(1.005 0.0006935 2.314e-22)
(1.084 -0.1449 -5.649e-22)
(0.8532 -0.4739 -5.413e-24)
(1.109 -0.1317 9.585e-23)
(0.4003 -0.1449 3.047e-22)
(1.034 0.009373 0)
(1.003 0.0005215 3.974e-22)
(0.6956 -0.2134 0)
(1.18 -0.1155 0)
(0.9281 0.01545 -3.726e-21)
(1.14 -0.1378 -7.496e-22)
(1.068 -0.1534 0)
(1.014 -0.02599 -1.698e-21)
(0.7162 -0.2176 1.292e-21)
(1.11 -0.2557 -2.133e-22)
(1.11 -0.1491 3.015e-22)
(0.9163 -0.1945 -3.226e-21)
(0.1496 -0.05711 0)
(0.4193 -0.1479 0)
(0.5858 -0.1886 -8.151e-23)
(0.5611 -0.1835 1.671e-22)
(0.8108 -0.2238 0)
(1.096 -0.1657 8.299e-22)
(1.106 -0.1373 1.45e-22)
(1.086 -0.1709 0)
(0.9458 -0.02337 -6.682e-22)
(1.17 -0.1172 1.119e-21)
(0.3741 -0.127 0)
(0.9506 -0.2088 -8.467e-22)
(1.005 -0.001592 1.2e-20)
(1.145 -0.1764 5.767e-22)
(0.9857 -0.2694 0)
(0.687 -0.09433 -1.502e-21)
(0.9996 9.946e-06 6.81e-22)
(1.005 -0.001719 -1.317e-20)
(-0.04284 -0.04842 0)
(1.077 -0.08029 1.728e-22)
(1.144 -0.2124 -8.433e-22)
(1.118 -0.1544 -4.94e-23)
(0.8231 -0.4483 0)
(0.823 -0.1909 1.548e-21)
(1.141 -0.02637 0)
(1.1 -0.08931 -7.925e-24)
(0.7747 -0.07007 2.419e-21)
(1.122 -0.2927 0)
(1.017 0.004428 -2.031e-21)
(1.008 -0.0005648 0)
(1.241 0.2305 0)
(0.9629 0.1458 0)
(1.016 -0.1942 1.521e-22)
(0.6931 -0.1017 0)
(1 -0.4111 2.249e-21)
(0.5903 -0.1651 0)
(1.003 -0.4053 -8.135e-22)
(0.9041 -0.121 5.46e-21)
(0.7799 -0.125 2.237e-21)
(0.9966 0.000142 4.85e-22)
(1.117 -0.07602 -1.93e-23)
(1.01 -0.1008 1.273e-22)
(1.135 -0.2591 -6.798e-22)
(-0.01464 -0.04552 1.923e-22)
(1.142 -0.1727 -1.382e-22)
(1.162 -0.1027 -8.751e-22)
(0.7071 -0.2087 1.058e-21)
(0.9966 7.505e-05 2.766e-21)
(1.133 -0.1213 -4.798e-24)
(1.122 -0.09949 5.791e-23)
(0.4635 -0.1625 0)
(0.6819 -0.1228 6.161e-22)
(0.9366 -0.1988 7.029e-22)
(1.117 -0.1477 -2.016e-22)
(1.062 0.8264 0)
(0.8087 -0.2219 9.79e-22)
(0.8666 -0.4531 1.036e-21)
(0.6443 -0.1641 -2.314e-22)
(1.132 -0.2733 1.762e-22)
(1.133 -0.1209 -1.469e-22)
(1.132 -0.1193 -7.183e-23)
(0.7462 -0.2061 5.746e-22)
(1.086 -0.1902 6.615e-22)
(0.2763 -0.01272 0)
(0.9846 -0.2714 0)
(0.9476 0.05071 1.028e-21)
(1.136 -0.2507 -2.451e-22)
(0.9679 -0.4042 6.265e-22)
(1.13 -0.117 2.654e-23)
(1.011 5.356e-05 0)
(0.3963 -0.1219 -5.262e-23)
(0.697 -0.1581 -1.163e-21)
(0.6453 -0.2003 -2.858e-22)
(1.002 0.0005172 -4.546e-22)
(0.3994 -0.1445 0)
(0.7627 -0.222 0)
(1.098 -0.1334 -1.082e-21)
(0.9958 0.0001643 -1.541e-21)
(1.085 -0.1715 8.868e-22)
(0.4849 -0.1616 0)
(1.022 -0.1946 1.31e-21)
(1.16 -0.1286 -6.135e-22)
(0.9958 0.0001395 1.452e-21)
(0.6639 -0.2015 -5.466e-22)
(0.3777 -0.1303 0)
(0.8233 -0.2245 1.797e-21)
(0.9755 -0.2018 0)
(0.9874 0.03129 -3.902e-22)
(1.123 -0.1356 1.236e-22)
(0.2769 -0.1934 0)
(1.025 0.002453 -1.335e-21)
(1.138 -0.2043 4.516e-22)
(1.101 -0.2227 0)
(1.097 -0.1652 -8.069e-22)
(0.7284 -0.2177 0)
(1.043 -0.2488 -5.545e-22)
(1.142 -0.173 0)
(1.078 -0.1371 -2.067e-22)
(0.6702 -0.2101 0)
(0.9992 1.436e-05 -1.367e-21)
(0.6628 -0.2014 5.135e-22)
(0.6584 -0.1833 9.04e-23)
(1.084 -0.07819 0)
(1.136 -0.1634 -6.675e-22)
(1.08 -0.06789 0)
(0.6227 -0.1806 0)
(0.6185 -0.2018 4.686e-23)
(0.9994 -2.924e-06 1.132e-21)
(0.6652 -0.2075 -6.051e-22)
(0.7157 -0.2179 0)
(1.114 -0.1341 0)
(0.09752 -0.1565 -8.095e-23)
(1.114 -0.1336 -1.001e-22)
(0.4605 -0.1611 3.987e-22)
(1.004 -0.1985 -1.655e-22)
(0.492 -0.153 0)
(1.107 -0.2456 0)
(1 -0.0003672 1.264e-20)
(0.1254 -0.0479 -1.6e-22)
(0.7786 -0.2221 8.825e-22)
(1.083 -0.1701 9.072e-22)
(0.4861 -0.1692 2.235e-22)
(0.6015 -0.1911 -5.887e-22)
(0.5707 -0.1903 5.872e-22)
(0.6668 -0.2091 -2.503e-22)
(1.118 -0.09283 0)
(1.002 -0.0003798 0)
(0.6837 -0.1454 0)
(1.13 -0.1368 -8.359e-25)
(0.9965 0.0001694 0)
(0.6893 -0.213 -9.832e-22)
(1.289 0.4075 0)
(1.144 -0.1706 -3.89e-22)
(1.041 -0.3571 -4.108e-22)
(1.006 0.0002023 -6.539e-21)
(0.8441 -0.2199 0)
(0.4309 -0.1335 0)
(1.018 0.004869 -5.678e-21)
(1.007 0.000207 0)
(1.052 -0.132 0)
(0.6988 -0.1918 7.323e-22)
(0.563 -0.151 -2.862e-22)
(0.5574 -0.1869 2.724e-22)
(0.6513 -0.201 4.368e-22)
(1.013 -0.04861 1.831e-23)
(1.133 -0.1459 0)
(0.8248 -0.2238 -2.202e-21)
(1.005 -0.001669 0)
(0.7044 -0.2122 -4.215e-22)
(0.5824 -0.1906 0)
(1.117 -0.07904 -3.153e-23)
(1.097 -0.08545 0)
(0.8605 -0.3071 -1.22e-21)
(1 0.0007925 0)
(1.006 -0.01466 5.451e-22)
(0.9763 -0.01537 1.531e-21)
(1.224 0.006683 1.296e-21)
(1.005 -0.001539 1.613e-21)
(0.9015 -0.1149 -2.662e-21)
(0.7975 -0.4794 4.607e-22)
(1.138 -0.142 -3.227e-22)
(1.092 -0.1499 1.449e-21)
(0.9912 -0.003668 0)
(0.4576 -0.1296 -1.721e-22)
(1.137 -0.1355 1.867e-22)
(1.002 0.01206 0)
(1.124 -0.134 -3.223e-22)
(1 -0.0001015 0)
(0.8863 -0.4359 1.334e-21)
(0.2395 -0.3143 -1.961e-21)
(1.117 -0.156 -1.531e-23)
(1.138 -0.1091 0)
(1.124 -0.05487 1.005e-22)
(0.9936 -0.02802 3.744e-22)
(0.8421 -0.2233 0)
(0.9186 -0.2092 -9.256e-22)
(1.101 -0.08983 0)
(0.362 -0.1318 -7.043e-23)
(1.12 -0.1482 -2.637e-22)
(0.6932 0.901 5.709e-22)
(1.082 -0.06453 -9.298e-22)
(1.105 -0.1989 -5.003e-22)
(0.9439 -0.3363 1.891e-23)
(0.7071 -0.1335 0)
(1.001 0.01474 0)
(0.9942 -0.1661 1.792e-21)
(1.08 -0.3451 0)
(1.355 0.2328 4.39e-23)
(0.3744 -0.1275 2.463e-23)
(1.039 -0.1717 0)
(1.001 0.0007969 0)
(0.8652 -0.08867 2.409e-21)
(0.4796 -0.1667 -1.233e-22)
(1.091 -0.2509 -4.02e-21)
(1.026 -0.06265 7.434e-21)
(1.31 0.08932 0)
(0.2621 -0.3016 -5.709e-21)
(1.341 0.1457 -1.535e-22)
(0.8473 0.08808 2.485e-21)
(0.9085 -0.2204 -5.763e-22)
(0.4912 -0.1714 4.016e-22)
(0.688 -0.1451 4.39e-22)
(1.006 -0.07679 4.88e-23)
(1.011 0.04685 -1.497e-22)
(1.144 -0.164 0)
(1.004 0.0004944 0)
(0.9969 6.724e-05 0)
(1.073 -0.1649 4.849e-22)
(1.037 0.01737 -2.852e-23)
(1.129 -0.147 6.866e-22)
(0.6228 -0.07474 -1.78e-21)
(0.3594 0.2063 0)
(1.12 -0.1141 4.873e-22)
(0.9691 -0.05279 -2.158e-21)
(1.305 0.4422 1.898e-22)
(1.135 -0.2551 6.14e-22)
(1.01 -0.01186 5.012e-21)
(0.751 -0.1531 2.593e-23)
(0.6149 -0.1976 -1.331e-22)
(0.9723 -0.05097 2.747e-21)
(0.922 -0.2124 -2.814e-21)
(0.3289 -0.116 -1.234e-21)
(0.4181 -0.09066 0)
(1.132 -0.2259 0)
(0.3506 -0.348 -1.737e-21)
(0.9751 -0.19 0)
(0.5509 -0.1858 0)
(0.9876 0.0002872 7.143e-21)
(1.14 -0.1319 3.401e-22)
(1.135 -0.2593 6.981e-22)
(0.9821 -0.01506 0)
(0.8851 -0.2207 1.107e-21)
(0.7879 -0.2225 0)
(0.7248 -0.1925 -3.624e-22)
(0.9999 -8.202e-05 -6.982e-23)
(0.9509 -0.01034 -9.999e-22)
(0.789 -0.1571 0)
(0.9469 -0.04694 6.553e-23)
(1.024 -0.3334 -7.526e-22)
(0.3301 -0.1115 0)
(0.7725 -0.2157 5.687e-22)
(0.9477 -0.4001 0)
(1.137 -0.2467 -1.136e-22)
(0.3985 -0.1426 0)
(1.209 -0.09174 3.31e-22)
(0.9971 4.62e-05 -1.164e-21)
(0.833 -0.4855 0)
(1.149 0.1467 -7.781e-22)
(1.005 0.0004963 0)
(0.9487 -0.3598 1.496e-23)
(0.3189 -0.1172 1.439e-22)
(0.8864 -0.1784 -5.249e-22)
(1.319 0.06724 -9.476e-22)
(1.127 -0.07307 1.146e-23)
(1.128 -0.1733 -1.243e-22)
(0.3758 -0.1342 -5.303e-27)
(0.5795 -0.05025 -1.158e-22)
(1.123 -0.1156 0)
(1.017 0.04028 -6.232e-22)
(0.995 0.008056 2.269e-21)
(1.135 -0.2141 0)
(0.8935 -0.3888 -1.819e-22)
(0.6267 -0.2015 -8.912e-22)
(0.9234 -0.2161 0)
(0.3513 0.3937 -1.637e-21)
(0.9967 -0.4152 -1.429e-21)
(0.9591 -0.01368 -9.842e-23)
(1.064 -0.02713 -1.303e-21)
(0.9982 -0.4157 -1.427e-21)
(0.9838 -0.07358 2.148e-21)
(1.2 -0.07301 0)
(1.011 0.001445 0)
(0.618 -0.1919 5.183e-23)
(0.2051 -0.1493 -8.884e-24)
(1.012 -0.189 -1.344e-21)
(0.8042 -0.2241 0)
(0.7625 -0.2167 0)
(0.9914 0.005685 -6.02e-21)
(0.9684 0.007941 1.798e-21)
(0.4981 -0.174 0)
(1.027 -0.2129 1.806e-21)
(0.5204 -0.1766 0)
(1.136 -0.1485 0)
(0.5289 -0.181 -3.932e-22)
(0.5752 -0.1728 -2.838e-22)
(1.108 -0.1284 -7.913e-23)
(1.27 -0.008189 -1.682e-22)
(1.191 -0.1046 -1.272e-21)
(0.6555 -0.09569 7.52e-22)
(1.114 -0.1438 -3.19e-22)
(1.112 -0.08096 1.584e-23)
(0.745 -0.2208 1.438e-21)
(1.134 -0.1378 3.989e-22)
(0.6173 -0.1834 7.508e-22)
(0.414 0.5779 6.77e-22)
(0.5801 -0.1929 -1.694e-23)
(0.2178 -0.1635 5.237e-23)
(0.3365 -0.1214 0)
(0.7592 -0.2167 0)
(1.011 9.497e-05 0)
(1.009 -0.00335 6.678e-21)
(0.6713 -0.2012 4.077e-22)
(0.5511 -0.178 0)
(1.113 -0.1786 -1.319e-21)
(1.001 1.734e-05 0)
(0.911 -0.4073 -6.404e-22)
(0.8443 -0.2204 5.085e-22)
(1.115 -0.09474 2.266e-22)
(0.5583 -0.1881 0)
(1.089 -0.1399 -1.161e-21)
(0.6966 -0.2139 -1.073e-21)
(1.104 0.4116 -8.808e-23)
(0.9999 0.001299 -3.287e-20)
(1.088 -0.1867 0)
(1.11 -0.07513 1.069e-22)
(1.014 -0.3949 0)
(1.095 -0.08368 0)
(0.4673 -0.1548 5.42e-23)
(0.8695 -0.2733 1.46e-21)
(0.9785 -0.1692 3.367e-21)
(1.04 -0.1867 0)
(1.12 -0.1019 2.615e-23)
(1.129 -0.09347 0)
(0.6123 -0.1685 0)
(0.9253 -0.4137 8.067e-22)
(1.134 -0.1297 -2.228e-22)
(0.5863 -0.1923 0)
(0.9869 -0.4277 -1.688e-21)
(0.9852 -0.01967 -3.488e-22)
(0.5531 -0.206 0)
(0.3767 -0.1346 0)
(0.6595 -0.1828 0)
(1.091 -0.1665 1.369e-21)
(0.3162 -0.3317 -2.568e-21)
(1.005 0.02609 7.122e-23)
(0.5241 -0.1353 1.965e-21)
(0.683 -0.1304 0)
(0.9959 -0.0004977 0)
(1 -4.127e-05 -4.916e-21)
(1.142 -0.1332 -1.629e-24)
(0.9163 -0.2168 2.158e-21)
(0.3165 -0.1119 -1.541e-22)
(0.3499 -0.1283 3.009e-23)
(1.144 -0.1638 1.015e-22)
(1.037 -0.3825 0)
(0.6236 -0.2022 -1.079e-21)
(1.095 -0.1826 0)
(1.111 -0.1462 0)
(0.9976 -0.03367 -4.114e-21)
(0.6354 -0.2041 -1.876e-21)
(0.4971 -0.09232 0)
(0.6323 -0.2036 -8.822e-22)
(1.117 -0.225 0)
(0.3747 -0.132 5.646e-23)
(0.6244 -0.1984 -7.08e-22)
(0.992 -0.002278 2.517e-22)
(0.6728 -0.08877 0)
(0.4881 -0.1652 -3.252e-22)
(1 -0.001401 -2.845e-20)
(1.103 -0.1641 -5.503e-22)
(0.9952 -0.0004894 7.154e-21)
(0.9891 -0.003709 7.991e-21)
(1.138 -0.1521 -1.754e-22)
(1.04 -0.1638 0)
(0.951 -0.1005 -9.002e-21)
(0.9994 -0.003386 3.344e-21)
(1.123 -0.1337 4.129e-23)
(1.006 0.008823 0)
(1.286 0.4327 0)
(1.036 -0.1493 -1.275e-21)
(0.7348 -0.143 3.623e-22)
(1.13 -0.1293 2.254e-22)
(1.143 -0.2215 1.732e-22)
(1.141 -0.1644 0)
(0.7051 -0.2146 2.986e-21)
(1.134 -0.1243 -2.262e-22)
(0.9981 -0.002961 4.726e-21)
(1.025 -0.05041 -3.312e-21)
(1.018 -0.1866 6.731e-22)
(1.146 -0.2114 -2.347e-22)
(0.5634 -0.189 -7.197e-23)
(0.6521 -0.2071 0)
(1.063 -0.07525 4.509e-24)
(0.6399 -0.2051 -6.501e-22)
(0.4103 -0.1311 -8.033e-21)
(1.082 -0.171 1.279e-21)
(1.114 -0.3057 0)
(1.292 0.01574 -2.275e-21)
(1.121 -0.1166 3.408e-23)
(1.078 -0.1329 0)
(0.8808 0.2285 3.957e-22)
(0.7064 -0.1503 0)
(0.9689 -0.01511 2.834e-21)
(1.003 -0.2011 3.231e-21)
(0.4028 -0.1286 6.312e-23)
(1.121 -0.192 0)
(0.9962 0.0003338 -1.251e-21)
(0.721 -0.4701 1.492e-21)
(0.8236 -0.216 0)
(1.129 -0.1072 -1.347e-23)
(1.109 -0.3 1.932e-22)
(1.122 -0.1475 -6.208e-23)
(1.12 -0.1395 3.931e-22)
(0.9544 -0.2061 0)
(0.8472 -0.2059 5.737e-22)
(1.129 -0.1073 -3.986e-23)
(0.4621 -0.1581 -6.546e-24)
(1.112 -0.3011 -1.821e-21)
(0.3597 -0.1325 7.607e-23)
(0.9965 -0.00103 0)
(1.13 -0.08675 1.362e-23)
(1.02 -0.1945 0)
(0.9898 -0.02511 0)
(0.978 -0.2073 0)
(1.161 -0.1242 2.959e-22)
(0.9999 1.629e-06 -1.217e-21)
(1.11 -0.2336 7.734e-22)
(0.4072 -0.1357 0)
(1.014 -0.06403 0)
(0.8966 0.2302 -1.584e-21)
(0.9862 -0.1841 0)
(0.4562 -0.03034 0)
(1.08 -0.1587 1.337e-21)
(1.001 2.335e-05 2.894e-22)
(0.9184 -0.2198 -2.789e-23)
(0.764 -0.2219 -5.131e-23)
(1.018 -0.002423 4.655e-21)
(0.9424 0.2011 6.398e-22)
(1.038 0.03087 1.934e-22)
(0.8348 -0.2204 7.666e-22)
(0.8514 -0.2243 -1.054e-21)
(1.136 -0.1929 3.182e-22)
(0.979 -0.04857 0)
(0.3832 -0.1328 -2.864e-23)
(0.3486 -0.1252 2.429e-22)
(1.141 -0.2395 -1.037e-22)
(1.144 -0.177 5.183e-22)
(0.7233 -0.2073 -3.262e-22)
(1.014 -0.07541 0)
(0.9958 0.000388 -2.105e-21)
(1.128 -0.1158 -1.175e-22)
(1.008 0.01129 1.21e-23)
(0.7342 -0.2165 0)
(0.851 -0.4055 -5.568e-22)
(1.044 -0.1876 0)
(1.11 -0.2994 1.922e-21)
(0.3577 -0.1372 -3.424e-23)
(1.017 -0.1692 0)
(0.9988 0.005352 -6.495e-21)
(0.2675 -0.09596 0)
(0.6771 -0.2123 0)
(0.7552 -0.2203 1.091e-21)
(1.129 -0.09923 -5.727e-23)
(1.351 0.3498 0)
(0.8179 -0.2073 -5.103e-22)
(0.6929 -0.1267 6.034e-22)
(1.092 -0.08411 0)
(1.141 -0.1557 0)
(0.8951 0.00137 -2.456e-21)
(0.5513 -0.02642 1.228e-22)
(0.5435 -0.1781 1.823e-22)
(1.122 -0.08033 0)
(1.131 -0.2359 -1.188e-21)
(1.143 -0.1691 0)
(0.7612 -0.4537 -1.645e-21)
(0.4024 -0.04788 3.395e-22)
(0.5204 -0.179 5.443e-23)
(1.146 -0.1901 1.316e-22)
(0.6516 -0.206 0)
(1.141 -0.1075 0)
(1.128 -0.1364 -3.529e-22)
(1.12 -0.1133 1.033e-22)
(0.8783 -0.1803 0)
(0.3459 -0.1213 0)
(1.079 -0.096 -3.195e-22)
(1.141 -0.2391 -6.053e-22)
(1.069 -0.1191 0)
(1.138 -0.1901 5.601e-22)
(0.9998 1.804e-06 0)
(1.007 0.0005835 1.608e-20)
(1.065 -0.1541 -1.346e-21)
(1.023 -0.06723 5.406e-23)
(0.6327 -0.1961 4.823e-22)
(0.9227 -0.0243 6.845e-21)
(0.5883 -0.127 -2.24e-21)
(0.5318 -0.1825 3.067e-22)
(0.9935 0.009333 -5.035e-21)
(1.357 0.1909 0)
(1.141 -0.1519 5.1e-23)
(1.115 -0.1221 0)
(-0.01015 0.01249 0)
(1.068 -0.2889 -6.852e-22)
(0.5553 -0.1839 1.062e-22)
(0.1774 -0.06343 0)
(0.7535 -0.1538 -3.203e-24)
(0.5317 -0.1833 1.161e-21)
(0.7031 -0.2033 6.654e-22)
(1.138 -0.1405 0)
(1.13 -0.1149 2.821e-21)
(1.142 -0.1631 1.234e-22)
(1.098 -0.094 -1.23e-22)
(0.945 -0.3842 -2.167e-22)
(1.071 -0.1764 0)
(1.061 -0.07439 0)
(0.7775 -0.1079 -1.354e-21)
(1.132 -0.08491 1.525e-21)
(0.735 -0.2187 6.083e-22)
(1.112 -0.261 -4.567e-22)
(1.127 -0.08563 -6.447e-25)
(0.5846 -0.1656 8.745e-23)
(0.3539 -0.127 -5.536e-23)
(0.5778 -0.1786 1.773e-22)
(1.098 -0.1563 0)
(0.5332 -0.1539 3.488e-22)
(1.082 0.3091 -3.688e-22)
(1.131 -0.03759 -1.75e-21)
(1.138 -0.1785 -1.831e-22)
(0.35 -0.1181 -2.259e-21)
(1.021 0.07072 0)
(1.287 0.03834 0)
(0.7242 -0.2156 0)
(0.5743 -0.1899 1.895e-22)
(0.6576 -0.206 1.044e-21)
(1.007 0.008731 0)
(0.6897 -0.197 -5.206e-22)