/*--------------------------------*- C++ -*----------------------------------*\
  =========                 |
  \\      /  F ield         | OpenFOAM: The Open Source CFD Toolbox
   \\    /   O peration     | Website:  https://openfoam.org
    \\  /    A nd           | Version:  8
     \\/     M anipulation  |
\*---------------------------------------------------------------------------*/
FoamFile
{
    version     2.0;
    format      ascii;
    class       volScalarField;
    location    "50";
    object      nut;
}
// * * * * * * * * * * * * * * * * * * * * * * * * * * * * * * * * * * * * * //

dimensions      [0 2 -1 0 0 0 0];

internalField   nonuniform List<scalar> 
127143
(
8.719e-16
8.319e-18
3.462e-17
3.744e-16
5.318e-12
3.799e-16
9.318e-10
2.801e-11
2.781e-12
5.21e-08
3.43e-10
7.553e-11
8.964e-17
7.235e-16
1.245e-06
6.801e-09
2.807e-15
9.185e-05
5.691e-05
1.506e-08
4.657e-05
3.919e-09
7.124e-05
7.48e-06
3.385e-09
7.834e-06
1.255e-05
1.069e-05
2.669e-08
0.0001901
3.354e-06
6.373e-06
3.569e-06
1.607e-05
3.756e-05
3.641e-06
0.0002088
3.445e-05
7.9e-06
1.23e-06
5.689e-05
2.028e-06
2.222e-06
4.657e-15
9.169e-05
1.607e-05
2.661e-08
0.000277
6.702e-06
5.391e-06
9.218e-09
0.0003243
8.831e-06
1.821e-05
0.006684
2.637e-07
0.006684
0.0002575
0.004027
2.096e-05
2.915e-06
4.319e-05
7.781e-06
0.006702
3.36e-05
1.971e-05
3.042e-05
7.488e-06
7.488e-06
0.001399
4.102e-06
1.299e-05
0.0003286
0.003416
0.006696
1.12e-05
0.0004417
0.0001288
2.636e-07
0.006705
2.678e-08
2.206e-08
3.356e-05
1.608e-06
0.0003531
0.0001413
8.025e-06
1.393e-05
1.841e-05
1.41e-06
0.002162
5.157e-05
2.742e-06
4.652e-05
5.733e-05
0.0002625
2.238e-06
2.478e-06
0.0001308
3.382e-05
0.006705
6.541e-06
1.812e-07
7.755e-05
0.0001008
0.0001306
6.991e-06
0.0014
6.794e-06
0.006683
1.361e-06
1.392e-05
5.643e-05
6.361e-07
0.003244
8.944e-05
0.0003669
0.006696
0.0005537
1.063e-10
0.006683
3.213e-05
1.389e-05
0.0002225
2.69e-08
7.024e-06
6.259e-05
0.0006475
1.753e-05
2.437e-07
0.0001087
5.963e-05
1.045e-05
0.0001296
7.807e-13
0.0001233
0.0002245
2.326e-05
2.176e-07
0.0001432
4.409e-05
0.0005763
8.695e-06
1.289e-05
8.642e-06
5.888e-06
1.953e-08
0.006703
6.943e-05
8.877e-08
3.781e-05
3.689e-06
3.085e-05
2.116e-05
2.015e-06
0.0002697
0.0002068
2.717e-07
0.0002601
1.746e-06
4.25e-06
1.591e-09
0.001965
0.0001322
1.201e-07
2.566e-05
0.0001749
6.448e-06
4.498e-06
9.976e-05
2.243e-05
1.289e-05
7.793e-05
2.79e-05
0.0006672
0.0002137
5.891e-06
1.754e-05
7.949e-06
0.002107
2.42e-05
0.0008578
0.0002197
0.0002163
2.444e-07
4.143e-05
5.923e-06
7.73e-07
7.625e-06
0.0008656
1.628e-05
3.384e-05
0.0003203
1.115e-06
2.304e-13
3.468e-05
0.006725
0.006719
1.662e-10
0.001493
0.004511
0.0001289
0.0008004
0.0002182
8.023e-15
5.949e-06
0.0001381
2.737e-05
0.0002302
0.003583
8.93e-05
0.0003563
0.003522
4.432e-06
7.782e-05
6.099e-10
4.046e-06
2.708e-05
6.775e-05
0.0001454
5.626e-06
0.006697
3.697e-06
7.98e-06
1.938e-06
1.865e-05
1.429e-07
3.549e-05
5.045e-05
0.0001249
4.952e-05
0.000917
0.0002805
1.205e-09
4.946e-05
0.0002361
0.000132
3.972e-13
0.003974
1.192e-05
3.232e-05
3.439e-05
0.0002716
2.717e-07
1.544e-05
1.602e-10
2.796e-06
1.124e-05
3.699e-10
0.001362
3.845e-06
6.212e-06
2.371e-05
1.776e-05
4.357e-07
6.223e-06
0.0008105
3.416e-07
3.111e-05
8.557e-06
2.669e-05
0.00074
4.806e-05
0.0005445
7.906e-06
3.209e-05
6.337e-05
1.975e-06
3.648e-06
1.828e-05
7.424e-06
0.0006668
0.0002895
1.215e-05
9.416e-06
1.489e-05
5.631e-05
7.162e-06
0.0004822
2.208e-05
0.002856
0.0001577
7.881e-05
0.006701
0.004721
2.371e-13
0.0001213
0.0032
7.586e-06
0.002007
3.265e-05
4.254e-05
0.0002258
6.948e-05
0.002719
6.765e-06
3.73e-06
7.973e-05
0.0002714
1.805e-05
8.386e-06
2.942e-05
9.804e-06
0.0001039
1.573e-06
3.455e-06
2.751e-05
0.003206
4.427e-05
1.81e-05
7.051e-06
3.215e-05
2.805e-07
0.003573
0.003715
2.377e-06
2.257e-05
7.061e-06
3.649e-05
0.0003652
8.003e-05
3.767e-06
0.0002894
2.363e-05
2.258e-06
1.475e-05
7.538e-05
3.983e-05
3.996e-06
4.388e-06
0.0001067
0.003914
4.042e-05
0.006725
0.006719
2.123e-05
6.829e-06
7.737e-05
0.0001078
6.568e-05
0.0001667
2.704e-05
8.001e-06
1.296e-05
1.109e-06
7.585e-06
4.894e-05
5.3e-05
7.679e-06
1.828e-05
8.169e-06
3.339e-05
0.0002063
1.471e-05
7.433e-05
3.925e-05
1.779e-05
6.68e-06
0.006165
4.011e-06
0.0001889
8.305e-06
8.618e-05
4.759e-06
5.897e-06
0.006698
0.001767
0.0002953
3.154e-05
0.0004443
1.729e-06
0.0003064
8.046e-06
4.579e-06
0.001105
4.834e-05
7.973e-06
4.738e-09
0.0001224
0.0005224
6.124e-05
7.296e-06
8.653e-06
2.228e-05
0.000387
1.661e-07
2.351e-05
1.318e-06
3.65e-05
5.507e-05
0.004972
9.629e-06
3.577e-05
4.827e-07
7.298e-06
3.25e-06
9.866e-06
3.837e-06
7.219e-05
0.001021
1.186e-06
0.006698
3.02e-05
0.0002287
2.48e-05
2.547e-05
0.000151
1.105e-05
0.006705
8.036e-06
8.548e-06
7.751e-06
4.242e-05
0.0001735
1.263e-05
5.237e-05
0.0001112
7.431e-06
2.604e-05
5.596e-06
0.0001817
1.314e-06
7.554e-05
0.001866
0.0001264
7.751e-06
2.091e-06
3.482e-05
2.43e-05
0.0001076
0.00668
7.907e-05
0.0001896
9.227e-05
9.989e-06
0.006698
2.234e-05
4.092e-05
0.0003552
0.002889
0.006695
5.808e-06
0.000183
6.818e-06
0.000223
2.502e-06
0.002721
3.395e-06
0.000293
0.0003573
7.755e-05
8.641e-06
3.017e-05
3.291e-05
2.238e-05
0.0002322
7.395e-06
2.506e-05
0.0002425
2.063e-05
1.18e-05
8.105e-06
2.765e-05
5.2e-07
9.197e-06
0.0008408
0.000867
1.694e-05
4.034e-05
0.006673
0.0001323
4.447e-05
0.0001983
2.359e-05
0.0001823
0.006651
1.705e-06
4.313e-05
4.686e-05
9.509e-06
6.939e-08
3.273e-06
3.787e-05
2.803e-07
7.09e-06
9.997e-06
1.246e-05
0.006556
2.266e-06
0.0005283
3.671e-06
8.048e-06
9.697e-06
5.871e-06
2.472e-13
0.0001303
8.983e-07
0.0005477
9.774e-07
0.004713
6.779e-08
0.0009023
0.0002351
3.092e-05
3.736e-15
1.932e-11
1.039e-11
0.006698
3.921e-05
4.033e-06
0.003617
0.0002582
1.538e-05
0.0001106
7.21e-05
7.737e-05
8.635e-06
0.0001317
9.811e-06
0.00098
0.0003462
3.958e-10
3.88e-06
7.238e-06
2.772e-05
0.004089
4.136e-05
0.0009413
3.222e-05
0.006277
2.126e-06
6.851e-08
3.399e-05
0.006681
1.696e-05
0.0001998
1.229e-05
6.861e-06
1.738e-06
4.072e-05
0.0004892
0.0001027
1.33e-05
0.006674
2.942e-05
2.612e-05
4.287e-06
4.765e-06
3.509e-05
4.747e-06
3.563e-05
2.132e-05
8.42e-06
9.6e-05
8.137e-05
0.002413
1.617e-06
7.774e-05
8.292e-06
9.808e-06
0.0002219
0.006703
0.006701
9.759e-06
4.808e-05
1.182e-06
0.003189
0.004594
9.857e-06
1.594e-06
0.0001369
8.521e-06
1.93e-05
7.964e-06
4.274e-05
0.0006797
0.006684
3.411e-05
0.0001008
9.138e-06
0.004719
1.151e-05
1.177e-05
3.686e-05
0.0005221
8.319e-06
0.003099
0.0001058
0.000268
6.004e-05
0.005112
1.079e-05
2.666e-05
5.509e-09
0.006651
7.057e-06
4.307e-06
0.006694
2.554e-05
0.002686
5.745e-06
1.237e-05
0.0067
2.43e-05
7.971e-06
4.064e-05
3.844e-05
9.677e-06
8.152e-06
8.64e-06
1.249e-06
7.913e-06
3.284e-06
4.917e-06
0.0001846
7.619e-06
2.544e-06
0.00543
2.217e-06
0.005651
8.888e-07
0.0005471
8.79e-06
0.00668
0.002753
0.0002149
5.646e-06
6.338e-05
0.006474
0.006684
5.743e-05
1.42e-05
3.872e-05
3.214e-06
0.000308
7.339e-06
8.395e-05
8.251e-06
1.262e-05
6.03e-05
1.882e-05
0.006474
2.507e-05
1.186e-05
0.0001007
2.3e-05
0.002233
0.004596
1.665e-05
3.071e-07
1.246e-05
2.189e-07
0.0006088
0.003212
0.0001113
3.618e-05
0.0001492
2.435e-05
9.499e-05
0.001045
5.998e-05
3.518e-05
1.062e-05
1.858e-05
1.297e-14
2.209e-05
0.0002448
0.0002316
9.96e-05
4.649e-05
8.395e-06
4.884e-05
0.0003008
1.669e-05
8.862e-05
3.011e-05
0.006682
7.119e-06
1.488e-05
2.805e-06
0.00668
0.006682
1.419e-07
0.0007657
6.926e-06
3.714e-05
5.1e-06
4.425e-05
1.173e-05
2.223e-06
6.482e-06
5.274e-07
0.006709
0.006674
4.021e-06
7.759e-06
3.396e-05
3.074e-06
1.668e-07
0.0002616
2.404e-06
0.0001001
0.0001021
0.003704
2.711e-06
0.0001967
5.058e-07
7.855e-13
1.197e-05
8.465e-06
0.000117
0.004878
8.742e-06
6.853e-06
4.987e-07
4.71e-05
1.718e-05
1.261e-05
1.184e-07
7.418e-05
6.815e-06
7.449e-05
6.632e-07
8.304e-06
1.821e-05
6.161e-05
5.807e-05
6.022e-15
1.771e-05
0.0001138
3.342e-06
1.005e-05
8.206e-06
0.006694
0.0001591
3.47e-05
0.0001452
0.002971
1.961e-07
7.923e-05
8.309e-06
0.003124
3.549e-05
0.0001807
4.363e-05
3.074e-05
0.003783
0.0001098
3.242e-05
9.716e-06
1.822e-05
0.001319
8e-06
1.039e-06
0.002327
2.714e-05
4.764e-05
4.489e-05
0.0001316
2.921e-05
1.194e-05
8.048e-06
6.988e-05
0.00664
0.0001278
0.0001284
1.011e-06
7.744e-06
1.901e-05
0.0002553
4.954e-06
0.006658
0.0001097
6.118e-05
9.61e-06
3.34e-09
9.756e-06
3.683e-05
3.653e-05
0.0002897
4.636e-05
0.006697
4.847e-15
8.293e-05
3.641e-05
1.425e-05
0.0002331
0.0001126
9.348e-05
4.92e-06
0.006683
3.609e-05
7.841e-05
0.003505
9.004e-05
3.675e-06
7.14e-06
1.829e-05
0.006667
8.305e-05
0.0002014
0.006654
0.006662
2.329e-05
5.345e-05
0.0002829
0.0001137
0.0001495
2.016e-08
5.325e-05
6.154e-06
0.006683
0.0001273
0.0001947
3.585e-06
1.977e-06
5.588e-06
0.002763
0.004307
0.000266
1.243e-05
0.006683
9.882e-05
2.002e-06
8.656e-06
8.117e-06
0.006185
0.0003081
8.498e-06
0.006698
7.696e-06
0.006683
6.386e-06
1.136e-07
4.704e-05
1.357e-05
7.674e-07
0.002093
2.157e-05
1.596e-05
2.12e-06
5.995e-05
8.186e-06
8.733e-08
1.964e-05
6.112e-05
9.899e-06
2.913e-06
0.0067
3.208e-05
4.087e-07
2.363e-06
8.572e-05
7.433e-06
0.002863
0.0002121
3.282e-05
4.39e-07
5.327e-06
3.361e-06
7.07e-10
3.687e-06
5.954e-06
5.111e-05
1.943e-05
4.139e-05
1.948e-07
0.0004134
7.317e-06
0.004706
0.005187
9.298e-06
0.0003024
2.638e-05
0.0001909
5.93e-07
0.0001843
0.0004894
1.663e-06
3.14e-06
0.004147
9.47e-05
0.0001762
0.0005741
4.275e-05
5.461e-08
0.0002705
3.486e-05
1.277e-06
1.839e-05
8.519e-05
0.006702
9.671e-06
5.06e-07
0.006214
4.344e-05
0.0001094
3.254e-05
0.00667
0.000272
0.0001028
3.655e-09
1.611e-05
4.144e-08
0.0001031
9.327e-06
4.473e-06
2.513e-06
3.181e-05
0.005718
2.852e-07
3.999e-06
0.005299
7.957e-06
1.082e-09
5.27e-05
1.858e-05
2.759e-05
0.0001004
7.077e-07
2.892e-08
8.135e-06
0.0005481
0.006697
3.181e-05
6.511e-06
5.666e-05
4.372e-05
8.846e-07
8.245e-08
3.251e-05
2.988e-05
8.23e-08
0.0001339
1.817e-05
0.006694
0.000266
2.775e-05
1.182e-05
0.0001084
0.0001203
0.006698
0.001248
2.523e-05
3.709e-05
0.0001231
8.015e-06
6.824e-05
0.0003023
1.564e-05
7.703e-06
3.144e-05
2.74e-06
8.484e-06
2.857e-06
3.27e-05
2.822e-05
0.0002407
1.264e-06
0.0001138
1.751e-05
1.085e-08
0.0001356
0.006693
0.006695
0.0001101
0.0002647
8.927e-05
0.006756
6.692e-06
8.272e-05
0.0002152
8.458e-05
1.863e-05
8.571e-05
1.242e-06
0.006705
7.197e-05
0.0002205
1.656e-08
1.659e-06
0.0001787
7.831e-06
3.676e-05
3.205e-05
7.273e-06
1.2e-05
0.0002014
6.757e-06
8.007e-06
0.0001787
5.889e-08
0.006232
5.312e-06
2.299e-06
0.000123
3.382e-05
1.533e-06
0.002357
7.237e-06
3.361e-06
0.006416
0.006694
1.204e-05
5.931e-05
5.434e-10
8.312e-05
7.331e-06
1.364e-06
1.404e-05
7.695e-05
0.0001331
0.001516
1.515e-05
0.0003853
3.461e-05
5.79e-05
9.094e-06
0.0001831
0.005856
2.849e-06
0.000142
0.006693
4.679e-05
0.005921
0.006702
1.736e-05
7.423e-05
4.5e-06
0.006691
7.69e-06
0.006697
3.284e-06
9.52e-05
9.535e-05
5.217e-05
5.893e-06
7.797e-06
6.569e-05
1.024e-05
0.002946
0.0009059
1.09e-05
5.126e-06
0.0001108
3.946e-05
5.303e-07
2.123e-05
7.221e-07
4.076e-05
5.055e-07
2.406e-05
7.979e-06
8.162e-06
3.123e-06
4.89e-05
0.004935
4.154e-05
0.0001275
8.482e-06
0.00191
4.258e-06
5.339e-05
8.15e-06
5.261e-06
1.723e-05
0.0001633
3.409e-05
1.885e-05
8.153e-06
0.0001006
2.114e-07
5.846e-05
0.006602
1.358e-05
3.97e-05
0.002046
4.69e-05
3.151e-05
0.006748
4.532e-05
8.709e-05
0.0006331
2.803e-06
2.295e-05
5.78e-05
0.0001023
0.006737
5.175e-05
7.157e-05
0.005407
3.974e-06
9.392e-05
9.467e-05
4.224e-05
4.788e-05
0.0004546
2.645e-05
2.624e-08
2.215e-06
7.537e-06
0.0001065
1.962e-07
0.001618
8.203e-06
0.006698
0.0001421
4.993e-06
4.615e-05
5.252e-06
2.5e-05
1.227e-05
0.006699
4.111e-10
4.441e-05
2.35e-05
8.853e-06
3.511e-07
2.252e-05
5.77e-05
1.483e-06
7.884e-06
4.316e-05
1.708e-10
0.0002385
4.293e-06
3.336e-06
7.374e-06
4.234e-06
8.644e-05
5.774e-06
6.074e-06
8.987e-05
1.264e-05
8.666e-06
7.797e-06
5.433e-05
4.739e-08
0.0003189
2.402e-06
0.0001776
8.162e-06
0.006724
0.006692
1.869e-05
2.185e-07
0.0002323
0.0008536
6.351e-06
4.282e-05
0.006698
1.308e-05
7.536e-06
1.571e-05
1.736e-08
2.49e-05
0.0001903
1.154e-13
9.477e-05
1.587e-06
0.0001077
8.041e-06
1.809e-05
7.744e-06
2.028e-06
7.96e-06
3.876e-05
0.0007641
0.0001259
1.403e-05
0.0001033
3.911e-05
6.702e-06
0.000202
9.39e-07
0.000262
9.825e-05
0.000343
1.918e-06
1.153e-05
3.599e-05
3.659e-08
3.129e-05
1.619e-05
1.047e-05
0.0001658
0.0001133
0.006697
9.6e-05
1.974e-05
1.315e-05
7.822e-06
5.047e-07
1.48e-06
0.006684
6.601e-06
2.404e-05
5.358e-05
2.933e-06
6.447e-06
3.608e-05
5.572e-05
0.001803
4.441e-05
0.0001255
1.648e-05
6.121e-05
0.001474
3.063e-05
0.003577
5.632e-06
3.12e-06
0.0002285
7.137e-05
3.549e-05
0.00649
0.006679
6.599e-05
0.0003491
6.469e-05
5.431e-05
0.002396
0.002138
1.1e-06
7.509e-05
3.217e-05
1.934e-05
8.378e-06
3.007e-06
2.814e-05
8.344e-06
0.0001545
7.159e-05
0.006683
3.334e-06
8.707e-05
7.942e-06
2.979e-06
2.474e-05
2.297e-05
0.0001131
8.374e-06
3.076e-05
5.64e-09
7.1e-05
5.864e-05
0.0002844
2.133e-05
6.816e-05
7.284e-06
3.983e-09
3.927e-05
3.194e-05
0.006684
6.09e-06
7.962e-07
0.006694
7.083e-07
1.142e-05
0.0001653
7.855e-06
0.006688
2.031e-05
1.498e-09
0.002295
4.755e-06
7.291e-05
8.123e-06
1.53e-07
5.204e-05
7.659e-05
4.546e-05
1.189e-07
0.0001197
4.028e-05
9.478e-06
4.797e-06
2.434e-06
7.474e-08
3.132e-06
0.0001103
0.006694
6.765e-06
3.604e-05
2.238e-06
3.521e-06
0.0001279
0.0001314
0.00666
0.0001244
4.11e-05
0.006251
0.0002602
0.00634
1.019e-07
0.0001802
2.355e-07
0.0001236
7.997e-06
7.389e-06
5.3e-05
6.358e-06
6.507e-07
2.266e-06
8.752e-05
0.000119
9.265e-06
3.691e-05
0.0001991
0.006702
0.0001802
0.0007455
8.427e-05
0.0067
0.0002979
0.006689
7.422e-06
0.0001702
0.006743
0.006247
7.118e-05
5.465e-05
2.187e-05
7.623e-05
0.006777
8.742e-06
5.43e-05
4.49e-05
6.412e-12
2.23e-05
2.865e-09
7.486e-06
1.066e-05
8.364e-06
5.811e-06
0.0002199
7.468e-05
9.042e-07
0.0003081
6.691e-06
3.815e-05
2.274e-05
7.402e-06
3.809e-05
0.00669
2.116e-06
4.792e-05
5.399e-08
0.0067
2.875e-06
5.995e-06
8.03e-06
0.0001355
0.006652
0.006651
0.0001372
6.253e-05
0.0002779
5.971e-05
8.371e-06
5.461e-05
3.172e-06
0.0003794
9.256e-05
8.573e-08
1.015e-05
0.0001592
8.644e-05
6.587e-05
2.956e-05
1.54e-05
4.5e-06
8.33e-06
0.0001324
0.001759
0.0001323
0.0001178
6.839e-06
8.057e-06
0.000564
7.326e-06
0.0003045
7.983e-06
0.0001974
2.269e-05
0.0001827
0.006693
0.0002758
1.847e-05
3.476e-06
5.606e-07
9.402e-05
0.0001056
4.699e-05
8.748e-05
0.006626
1.272e-06
4.748e-05
6.94e-09
2.557e-05
6.969e-08
0.0001694
0.006695
2.451e-05
1.797e-05
2.977e-05
6.646e-06
2.022e-05
4.597e-05
8.448e-06
9.474e-06
0.000401
2.115e-06
0.0001596
5.306e-06
6.824e-06
3.212e-06
0.00274
0.002738
7.874e-06
8.14e-06
3.767e-08
4.948e-06
5.857e-06
2.214e-06
2.675e-06
0.0003379
0.0001036
0.0002475
0.002181
0.006691
0.0002869
0.006486
9.776e-09
0.006695
3.129e-07
3.637e-05
6.146e-06
6.744e-06
3.004e-06
0.001421
8.978e-08
3.987e-05
9.28e-07
0.0001009
6.283e-06
0.005453
5.449e-05
1.05e-05
0.0001027
7.419e-06
2.671e-05
0.000128
1.187e-06
7.495e-07
0.0002747
0.006665
1.549e-06
0.001471
0.006763
4.988e-05
3.583e-06
0.006667
1.073e-06
0.006698
1.225e-05
9.892e-06
3.339e-05
1.033e-06
0.006677
0.0002157
2.486e-05
6.701e-05
1.698e-05
3.18e-05
2.955e-05
0.004757
0.006687
1.258e-05
1.489e-10
2.503e-05
7.494e-06
0.0005872
6.183e-08
8.429e-05
4.371e-05
0.00213
1.677e-05
0.0001025
3.088e-06
0.0004391
6.861e-06
0.0006135
1.587e-05
0.006704
2.228e-06
9.06e-06
0.0002572
4.854e-07
5.06e-07
4.031e-05
0.00669
9.509e-06
3.021e-06
9.607e-06
2.816e-06
7.444e-06
2.576e-05
0.000494
1.177e-05
1.24e-08
7.997e-06
8.365e-07
1.036e-06
0.001961
3.026e-05
0.006703
1.372e-05
2.054e-06
7.958e-06
0.006696
2.423e-05
0.006694
0.000183
7.883e-05
0.006715
2.894e-05
0.0002843
8.111e-06
2.672e-05
0.0006095
7.783e-06
0.006697
5.063e-07
2.224e-07
7.84e-05
5.65e-05
7.177e-06
0.00114
1.633e-05
0.000212
4.544e-06
9.071e-06
0.000205
7.714e-06
4.384e-05
2.883e-05
4.377e-07
0.000209
1.964e-05
1.197e-05
0.0002202
7.805e-06
9.807e-05
6.444e-06
8.181e-06
0.0001997
0.001122
1.09e-05
0.0001112
1.715e-05
0.000131
3.154e-06
0.0001995
7.201e-06
0.0001228
0.006667
7.033e-06
5.478e-06
0.0001968
8.39e-06
0.0004285
9.862e-06
0.006705
2.369e-05
7.171e-06
5.557e-05
6.059e-06
5.595e-06
5.954e-06
0.006696
8.406e-06
5.134e-06
8.104e-06
1.969e-05
0.0003969
8.058e-06
8.072e-06
0.006695
0.0001449
0.0001836
0.001785
7.208e-06
3.312e-05
3.567e-05
4.916e-06
0.0001149
0.0003257
0.002263
2.84e-05
3.066e-05
0.006604
2.07e-05
8.178e-06
8.114e-07
0.006746
8.176e-05
3.597e-07
3.868e-05
1.762e-05
0.0001548
8.052e-06
8.095e-07
0.00207
0.001196
0.0001535
0.0008701
3.255e-05
4.658e-06
0.0002497
8.226e-07
3.662e-05
0.0003765
2.786e-05
5.132e-10
9.989e-10
0.0001415
0.000143
5.254e-05
0.0002115
0.0002813
2.89e-05
0.0002891
3.691e-05
7.667e-05
7.713e-05
8.727e-06
2.012e-07
0.0001198
0.0001562
0.00306
1.571e-06
0.0001524
0.0001094
5.676e-06
4.573e-05
2.828e-06
0.000141
3.745e-05
0.006756
3.804e-07
7.422e-06
2.504e-05
3.22e-05
9.007e-05
3.043e-06
1.052e-06
0.0001029
4.653e-05
1.115e-06
3.677e-05
7.112e-06
4.15e-06
0.006639
1.283e-05
1.45e-06
8.102e-06
0.004701
0.0002685
0.0002127
4.71e-06
3.594e-05
0.0003832
6.877e-06
0.005429
4.43e-06
7.056e-06
0.0001679
0.0003259
0.003851
7.696e-06
9.508e-08
7.47e-06
2.41e-06
2.767e-08
0.0002766
6.973e-06
0.001421
1.373e-06
1.647e-05
0.0002447
7.484e-05
4.1e-05
1.185e-05
0.0002387
8.01e-06
0.002559
3.453e-06
2.734e-08
8.808e-07
0.0002018
2.526e-05
2.995e-05
1.033e-05
0.001064
0.0001117
1.146e-05
8.523e-05
0.003719
8.243e-06
8.008e-06
8.367e-06
0.0001071
4.043e-05
1.863e-06
1.707e-05
7.552e-07
7.702e-07
8.915e-08
0.0001634
6.072e-06
3.282e-08
5.985e-05
7.271e-06
6.625e-05
2.69e-05
1.34e-05
6.076e-11
1.915e-05
2.406e-05
0.003134
0.0002797
1.342e-06
0.0001827
0.003643
0.006698
8.561e-05
7.574e-06
0.0003546
5.711e-06
9.24e-08
1.287e-06
0.0009798
6.384e-06
0.0002561
0.0001547
7.75e-06
3.508e-05
0.0002352
8.637e-06
5.181e-05
0.0001152
3.792e-05
0.006698
2.091e-05
0.0001454
8.017e-06
0.000112
7.604e-06
1.467e-05
4.491e-05
6.467e-06
1.918e-05
3.993e-05
7.999e-06
1.026e-05
8.388e-06
0.0001425
0.0001169
0.0001238
3.34e-05
0.0001405
2.046e-07
4.717e-06
0.004712
0.0001165
6.636e-05
8.282e-06
6.341e-06
0.000734
1.842e-05
4.326e-05
1.498e-05
0.003015
0.0001629
0.0002946
0.0001876
0.0002313
1.179e-05
8.785e-05
7.533e-07
0.0001765
0.0001872
2.503e-05
0.006676
0.0002987
3.936e-05
0.0001405
4.197e-05
0.006689
0.0001396
4.883e-06
1.435e-05
0.006697
0.0007061
0.000281
1.798e-05
1.158e-05
0.0007755
1.036e-05
0.0002068
2.202e-07
3.823e-06
6.263e-05
8.326e-06
2.5e-05
0.0009378
8.162e-06
7.938e-08
3.491e-05
1.12e-07
3.622e-06
3.586e-05
2.963e-06
0.003178
0.006666
1.075e-05
7.318e-05
3.287e-06
0.006698
1.852e-05
2.374e-06
1.222e-08
6.695e-05
6.104e-06
0.006295
0.006451
7.969e-06
5.426e-05
0.0002086
2.222e-06
3.793e-05
5.114e-05
0.0001558
0.006705
7.098e-06
1.661e-06
7.562e-06
0.0002433
1.165e-06
0.0001702
2.073e-05
0.006737
3.279e-05
2.353e-06
6.774e-06
5.683e-07
6.371e-05
1.373e-06
4.32e-05
1.865e-05
6.941e-06
4.705e-05
6.387e-05
0.0001283
6.379e-06
1.149e-06
0.004585
0.005178
2.39e-05
0.0001327
4.139e-07
8.132e-06
2.506e-06
4.335e-05
0.001208
0.005229
6.597e-06
0.006702
6.34e-05
3.68e-08
4.551e-06
0.0001099
7.937e-06
0.0001362
4.849e-07
1.999e-06
0.002047
2.663e-05
3.688e-05
7.543e-06
0.0002792
1.358e-05
6.823e-05
3.351e-05
3.682e-05
0.0001339
2.08e-05
0.0001041
1.555e-07
2.615e-06
7.255e-05
0.0001184
5.309e-08
0.0001409
4.41e-05
1.763e-05
6.216e-07
6.881e-06
2.433e-05
7.827e-06
0.0001454
3.57e-05
0.001033
0.0003106
0.006703
7.677e-06
5.724e-05
6.698e-06
7.108e-05
4.305e-05
1.345e-05
3.052e-09
1.811e-06
3.494e-05
8.399e-06
2.435e-06
1.794e-05
0.0006664
0.0002593
1.08e-05
3.969e-06
0.0001069
0.0001323
0.0004343
7.546e-05
0.003901
1.029e-05
1.021e-07
7.15e-05
2.344e-05
0.0002909
6.245e-05
2.166e-05
0.006724
1.302e-05
0.0001271
0.0004015
1.092e-06
0.0001794
3.652e-05
0.0001292
2.974e-05
6.896e-06
1.477e-05
5.826e-06
2.306e-05
6.172e-06
0.006714
0.0002298
1.482e-05
3.444e-06
4.478e-07
1.107e-05
2.956e-05
2.624e-05
0.003117
3.058e-06
2.92e-06
7.025e-06
5.82e-06
8.147e-06
1.75e-05
7.261e-06
2.104e-06
5.554e-06
2.235e-05
1.012e-06
9.032e-07
4.898e-05
5.424e-05
4.22e-08
0.001695
4.797e-05
0.002454
0.006699
5.902e-06
0.001952
3.495e-05
1.069e-05
3.403e-05
1.089e-05
8.024e-06
1.839e-05
0.0001066
2.819e-06
8.902e-05
0.000312
4.378e-10
7.022e-05
0.0001319
0.000365
8.878e-09
3.616e-05
1.092e-06
4.078e-07
0.003136
1.695e-05
6.465e-06
8.426e-05
5.5e-05
3.393e-06
2.952e-06
1.71e-05
0.0001111
6.884e-05
0.0001159
3.271e-05
0.006701
4.759e-05
5.318e-05
5.535e-05
1.438e-05
7.704e-06
1.695e-07
0.0001054
0.003497
3.993e-05
9.973e-05
5.812e-05
9.641e-06
5.853e-05
9.69e-07
8.327e-06
1.683e-07
6.882e-06
5.203e-05
6.664e-06
3.684e-05
0.0001273
0.0001019
1.788e-05
3.99e-09
4.183e-05
8.039e-06
8.203e-06
0.006575
4.89e-06
4.658e-05
0.0002923
8.731e-05
7.823e-06
3.197e-05
4.273e-06
3.515e-05
3.632e-05
1.122e-07
0.006592
6.872e-06
3.482e-05
7.24e-05
2.256e-05
4.089e-07
0.004961
4.917e-05
6.215e-05
3.237e-05
5.392e-07
2.095e-05
3.456e-05
3.038e-06
0.0001384
8.323e-06
0.006756
0.006747
6.932e-06
1.743e-05
2.104e-05
2.173e-05
7.589e-06
0.006688
1.74e-05
4.261e-06
1.274e-05
0.002377
0.002949
1.037e-05
2.479e-05
6.532e-06
3.972e-07
2.903e-07
0.006114
3.758e-06
5.573e-08
9.055e-05
7.135e-06
4.279e-06
0.001881
0.0001079
1.556e-05
6.047e-05
0.0002423
0.006655
0.006616
0.006638
0.00637
0.0007608
0.0002958
2.428e-05
1.968e-06
5.352e-05
8.932e-05
5.471e-05
2.166e-05
0.0061
5.098e-05
0.0002302
1.046e-05
2.794e-05
6.777e-06
0.000105
8.678e-06
8.208e-06
1.243e-05
6.945e-06
0.000349
8.074e-06
4.682e-10
1.659e-06
5.479e-06
2.779e-06
6.917e-06
0.005457
7.091e-09
0.0001021
1.009e-06
4.749e-05
0.0001108
3.675e-09
0.006696
0.0002083
3.339e-05
0.005054
4.101e-05
6.922e-05
2.667e-05
0.0001446
1.995e-06
4.667e-05
3.503e-05
0.006633
5.856e-06
1.202e-05
5.677e-05
0.0002115
1.049e-05
0.006716
0.003074
2.371e-05
4.685e-05
1.703e-05
0.0004305
4.197e-05
3.169e-05
0.000103
1.637e-06
8.219e-06
3.19e-05
0.0002315
0.0003121
0.0001249
0.0001877
1.297e-08
1.918e-06
0.0048
1.714e-08
0.004513
0.006556
4.01e-05
0.001421
1.192e-06
0.0001243
1.896e-06
0.0001409
5.598e-06
0.006697
0.0003581
7.212e-05
7.179e-06
0.0002384
0.003473
5.695e-05
1.154e-08
1.791e-05
0.006702
1.383e-05
1.616e-05
5.848e-10
0.001954
3.217e-05
1.553e-05
0.0001026
0.0004271
4.031e-05
4.89e-06
2.978e-08
5.024e-06
8.064e-06
1.609e-11
0.005001
6.853e-06
2.425e-05
7.035e-06
0.006696
7.516e-06
3.488e-08
8.169e-09
3.385e-07
0.000197
1.513e-05
7.285e-08
0.000419
9.144e-05
0.00669
4.899e-05
2.69e-05
2.817e-05
4.248e-05
4.003e-07
5.302e-05
0.0001366
1.101e-05
0.006706
0.002001
3.522e-06
2.427e-05
5.547e-05
2.717e-06
3.631e-05
0.0001721
0.0001218
1.243e-05
7.873e-05
0.0001059
0.005156
8.116e-06
1.14e-05
6.868e-06
2.453e-05
7.669e-06
3.931e-06
1.15e-06
4.522e-08
5.238e-06
7.421e-11
4.683e-06
0.0002839
1.226e-06
0.0002813
7.964e-06
3.814e-07
0.004592
6.681e-09
0.006705
4.705e-05
4.632e-06
1.755e-06
5.46e-05
4.12e-06
7.072e-05
5.13e-06
0.006649
1.756e-09
8.187e-06
0.002109
9.637e-05
0.0001456
1.389e-08
5.917e-06
1.003e-08
3.252e-05
7.209e-07
5.085e-07
2.189e-05
1.797e-05
8.092e-06
1.359e-05
0.006673
0.0001152
8.816e-06
0.0001111
9.12e-06
0.0002507
0.0001658
7.952e-06
7.33e-06
2.695e-06
6.815e-06
0.003777
7.373e-06
2.751e-05
9.021e-06
9.801e-05
0.002392
6.551e-05
1.043e-05
3.335e-05
3.721e-05
2.774e-08
0.002138
0.002076
6.927e-05
7.063e-06
2.043e-05
0.0002587
2.956e-05
0.006498
0.0002152
8.335e-06
0.006339
8.173e-05
5.953e-07
0.0001176
6.327e-05
0.0002237
1.082e-07
5.611e-08
2.567e-06
6.085e-05
6.564e-06
0.0001814
4.369e-05
4.67e-05
2.297e-05
3.731e-06
0.0002164
1.612e-07
7.337e-06
1.704e-06
5.172e-06
4.405e-05
8.293e-09
0.0003118
7.801e-06
1.596e-05
0.00263
8.929e-06
0.0001099
0.001255
1.689e-05
8.513e-07
9.109e-05
5.567e-06
1.021e-05
2.302e-08
2.028e-09
0.0002654
3.765e-11
0.0007428
4.002e-05
9.053e-05
0.000139
2.183e-05
0.006705
5.929e-06
2.77e-07
7.509e-06
1.151e-05
4.621e-05
1.268e-05
6.179e-06
5.174e-05
0.0001284
3.002e-05
0.0003527
1.852e-05
3.937e-05
0.005144
0.0001507
6.865e-06
0.006701
0.0004933
2.168e-06
0.006697
2.803e-05
5.815e-05
7.109e-06
5.545e-05
6.081e-06
0.001393
5.641e-05
2.941e-05
1.349e-06
4.902e-06
1.147e-06
8.578e-06
0.006687
2.066e-06
0.006716
0.000288
9.314e-05
5.31e-05
2.847e-06
3.968e-05
8.09e-06
2.647e-05
1.744e-06
2.037e-05
0.0008413
0.0001189
3.814e-05
0.006674
7.486e-05
0.006697
2.675e-06
3.609e-06
4.484e-06
0.0001179
0.006654
9.406e-06
7.707e-06
1.542e-05
8.518e-07
3.609e-05
1.341e-05
0.0003753
3.993e-05
9.403e-05
4.86e-05
4.082e-05
1.158e-05
0.0001998
6.501e-06
0.0001277
3.614e-06
9.625e-06
0.006632
0.006754
0.001395
0.0003116
3.837e-06
1.438e-05
3.355e-05
0.001449
8.209e-06
6.615e-06
7.983e-06
0.006698
5.088e-06
2.527e-05
6.008e-06
0.002318
2.114e-09
1.629e-05
6.574e-06
0.003218
0.0008731
1.017e-06
0.000248
8.101e-06
1.915e-06
1.791e-06
8.082e-05
5.406e-05
0.006698
4.821e-06
7.257e-05
7.399e-06
0.0001943
1.305e-05
4.243e-05
0.0001291
6.014e-06
4.384e-07
0.0067
4.89e-05
9.748e-06
1.721e-05
4.67e-06
0.006702
2.462e-05
2.026e-05
0.0001055
4.296e-05
2.695e-05
4.814e-06
0.0001617
1.157e-05
5.767e-05
0.000293
0.0001168
2.416e-05
0.00517
4.518e-06
2.703e-06
0.0001829
0.000124
1.529e-05
1.165e-05
5.415e-05
0.006696
0.0002231
0.0003402
0.003233
7.936e-08
8.642e-05
0.006698
0.0006909
8.15e-06
1.142e-08
0.006698
0.0002474
7.461e-07
7.975e-06
4.135e-05
3.813e-05
4.127e-07
3.967e-05
5.43e-06
8.289e-06
1.648e-08
1.838e-05
0.001221
9.365e-05
1.301e-05
0.0001177
0.006685
0.0003281
6.591e-05
0.0002612
5.658e-05
7.871e-06
5.388e-08
0.0001081
5.12e-05
2.094e-08
2.32e-05
3.461e-06
0.0001588
3.715e-05
0.0001018
7.276e-07
1.954e-07
0.00669
3.243e-05
6.276e-06
0.006698
1.022e-05
0.0001204
8.243e-06
0.0002657
8.166e-06
8.312e-06
8.562e-05
1.75e-05
0.004678
0.001623
9.594e-05
0.0001222
0.006777
2.053e-05
0.0002049
3.812e-07
0.000279
8.85e-05
3.787e-06
8.349e-06
7.311e-05
7.208e-06
0.006714
5.946e-07
8.677e-06
3.982e-07
8.372e-06
6.174e-05
2.021e-06
1.876e-05
3.623e-05
1.193e-06
3.966e-05
2.784e-06
0.006702
0.006691
0.0001593
3.021e-05
0.006685
6.795e-09
7.246e-06
1.548e-06
1.764e-06
1.761e-05
5.793e-05
0.005065
7.46e-09
0.0007961
5.639e-06
0.006758
1.121e-05
4.669e-05
0.0002337
6.417e-05
8.173e-06
0.0001612
3.584e-05
0.006662
5.458e-05
5.501e-06
9.045e-07
1.522e-05
0.0003965
0.0002506
2.235e-05
0.006699
4.137e-05
4.499e-05
0.0001671
0.0001925
0.0001714
9.799e-07
0.005924
0.006716
1.609e-05
1.07e-05
0.0002917
1.914e-07
0.006701
4.364e-06
9.376e-05
6.327e-06
0.006701
7.047e-05
8.504e-06
2.096e-06
2.835e-05
8.572e-05
2.302e-06
0.00672
4.185e-07
0.004782
3.187e-05
4.885e-08
0.001043
0.0001335
5.135e-05
5.381e-06
2.239e-07
3.353e-05
7.845e-05
0.006662
2.439e-05
9.926e-05
0.006702
4.162e-05
5.099e-06
2.144e-05
0.006775
0.0001988
6.874e-05
0.0001001
6.588e-06
0.0001048
0.004045
2.056e-06
5.75e-06
3.211e-05
0.0004406
0.006698
0.006598
0.0007692
2.071e-05
7.397e-05
8.222e-06
2.732e-06
3.014e-07
6.002e-06
2.378e-08
7.899e-07
0.001336
3.041e-06
3.09e-05
1.133e-05
0.0001623
6.987e-05
1.433e-05
3.516e-06
3.056e-05
8.563e-08
7.508e-06
0.0003401
8.309e-05
2.719e-06
7.246e-06
1.202e-05
0.000232
0.0001037
2.946e-05
1.225e-06
0.004141
6.778e-05
3.525e-05
1.692e-05
4.877e-06
3.349e-05
2.978e-06
1.201e-05
0.006666
3.173e-08
6.742e-05
0.006763
4.664e-06
0.006696
2.738e-06
5.786e-05
0.00149
3.473e-05
7.252e-06
0.006707
2.966e-05
2.818e-05
3.772e-07
0.0006387
1.082e-05
7.343e-06
6.684e-05
0.006692
1.222e-06
0.0002562
0.0005523
1.272e-05
5.642e-05
8.243e-06
4.836e-08
8.673e-06
3.982e-05
1.797e-05
4.6e-05
3.483e-06
0.006702
0.0002673
3.906e-06
8.234e-06
6.029e-05
0.006701
2.704e-08
8.03e-06
1.099e-05
0.000123
0.0001213
2.691e-05
0.00667
0.0004939
5.166e-05
0.000109
2.581e-05
6.886e-06
7.143e-06
2.75e-05
6.552e-06
6.638e-06
6.562e-05
4.46e-05
8.012e-05
1.203e-05
2.134e-05
3.185e-05
0.006701
3.707e-05
0.001009
0.0002474
6.186e-05
7.889e-05
4.759e-06
0.0001225
1.409e-08
1.814e-05
1.351e-05
0.002266
0.006693
5.935e-05
1.423e-05
1.105e-06
2.01e-05
3.548e-05
7.358e-06
6.375e-07
7.983e-06
2.184e-05
3.513e-05
3.547e-06
7.962e-06
1.274e-05
7.716e-05
8.158e-06
5.193e-05
2.562e-06
2.407e-05
2.91e-05
0.000305
8.005e-06
0.006694
0.0001112
0.0006957
0.006691
8.131e-05
8.18e-06
0.0003049
8.484e-12
7.048e-06
4.175e-05
0.006699
8.472e-06
5.147e-05
0.003013
1.596e-05
1.204e-05
1.492e-05
9.397e-05
9.331e-06
0.006698
2.852e-05
0.00672
7.906e-05
4.105e-05
2.494e-06
6.081e-05
3.717e-06
1.657e-11
0.006604
0.006694
1.104e-05
5.791e-06
8.408e-06
0.0001802
7.147e-06
8.148e-06
3.345e-05
0.0002198
0.001283
3.458e-06
1.474e-06
1.434e-05
0.0001761
0.00669
8.277e-06
4.908e-05
7.401e-06
7.759e-06
0.0001137
0.0006732
2.699e-06
1.529e-05
0.0002792
1.526e-05
4.14e-05
8.471e-05
0.006709
0.006336
7.359e-06
5.066e-07
1.758e-05
3.083e-05
0.000119
0.00029
8.004e-06
2.26e-05
0.006632
4.963e-06
1.3e-05
5.684e-07
1.712e-05
1.085e-05
0.006685
7.839e-06
6.941e-06
1.719e-05
2.545e-05
6.937e-06
2.294e-05
8.294e-06
5.737e-06
8.044e-06
8.05e-06
9.272e-07
8.284e-05
0.002037
4.651e-05
5.745e-05
4.238e-08
0.0004879
0.0003003
8.533e-06
1.256e-05
0.0002538
2.261e-06
5.139e-05
5.514e-07
8.901e-05
9.489e-07
1.639e-05
6.655e-05
3.011e-05
5.653e-07
0.0002645
2.57e-06
1.949e-08
0.004882
2.19e-06
4.22e-06
7.091e-07
1.801e-05
7.916e-06
5.884e-05
0.0001124
8.373e-06
3.303e-05
2.933e-05
1.579e-05
0.0001202
0.0001912
0.0002914
0.0001239
1.258e-05
0.0001453
6.837e-05
6.204e-07
4.109e-05
2.263e-07
8.259e-06
7.754e-06
0.006657
3.896e-05
7.61e-05
9.419e-06
4.303e-05
6.938e-06
4.35e-05
4.515e-06
0.0001026
1.943e-05
7.482e-05
3.771e-05
7.065e-05
0.0005971
0.0001246
0.0001347
1.75e-05
0.0001526
0.0001101
1.806e-05
7.468e-06
0.0002514
5.615e-06
2.041e-05
1.538e-09
2.627e-05
3.758e-05
0.0001387
2.31e-05
9.396e-05
2.364e-06
0.004004
0.002174
0.005371
0.0002306
8.195e-06
5.099e-05
0.0002179
4.797e-06
0.0002578
4.771e-05
2.023e-09
7.242e-06
6.371e-07
6.23e-06
7.048e-05
7.32e-06
5.941e-07
0.0007392
2.572e-06
0.006698
9.491e-06
0.0001119
6.009e-05
5.278e-05
0.006685
0.006679
4.874e-05
9.894e-05
0.0001091
8.422e-07
8.021e-06
0.006678
0.006698
8.993e-06
0.0002125
3.812e-07
4.614e-07
0.005821
4.138e-05
6.722e-05
1.847e-06
3.035e-05
9.257e-07
8.214e-06