/*--------------------------------*- C++ -*----------------------------------*\
  =========                 |
  \\      /  F ield         | OpenFOAM: The Open Source CFD Toolbox
   \\    /   O peration     | Website:  https://openfoam.org
    \\  /    A nd           | Version:  8
     \\/     M anipulation  |
\*---------------------------------------------------------------------------*/
FoamFile
{
    version     2.0;
    format      ascii;
    class       volScalarField;
    location    "50";
    object      omega;
}
// * * * * * * * * * * * * * * * * * * * * * * * * * * * * * * * * * * * * * //

dimensions      [0 0 -1 0 0 0 0];

internalField   nonuniform List<scalar> 
127143
(
2.183e+06
4.105e+06
4.682e+06
1.997e+06
1.676e+05
2.021e+06
6.622e+04
1.157e+05
1.848e+05
2.697e+04
9.739e+04
1.521e+05
5.509e+06
1.69e+06
122.8
5950
5.655e+05
2.099
13.51
4207
65.66
4488
0.132
149.8
4554
623.9
1763
1942
1247
0.9947
244.6
638.2
4220
480.9
0.0592
4098
53.14
5.99
103.2
717.2
13.47
2.357
1.46
7.844e+05
2.102
472.6
1187
67.02
129.2
117.6
5065
0.02885
58.4
0.4231
0.02097
246
0.02096
0.4201
0.02299
0.4187
0.9568
18.36
35.37
0.02211
635.1
1.028
0.07319
42.1
41.95
0.06864
177.3
1741
41.54
0.02298
0.0218
1871
0.02459
68.55
242.8
0.02222
1033
3730
310.9
586.3
49.12
70.29
76.38
2372
0.8469
437.2
0.02393
0.6292
243.8
65.83
193.3
0.7155
2.081
316.9
88.63
0.07186
0.02221
120.7
1927
2.336
71.6
90.58
40.64
0.06887
4.22
0.02133
120.3
2399
107.6
34.16
0.02183
1.389
0.02492
0.0218
0.02439
1.651e+04
0.02134
324.3
13.37
0.2295
1053
754.6
31.27
0.02559
153.8
235.7
120.9
185.2
19.49
68.45
6.413e+04
120.6
0.0677
38.01
506.2
0.06062
0.2176
0.02362
33.99
19.31
56.28
67.85
5977
0.02213
186.9
2703
4.609
107.1
4.795
0.1171
42.35
50.14
0.4197
266.9
67.34
426.1
157.5
5338
0.024
120.7
545.3
603
58.73
1.585
1779
0.03026
98.91
19.29
1.811
7.617
0.2061
32.07
59.31
153.3
124.6
0.03673
7.604
0.03808
28.96
31.9
237.2
17.61
0.1935
36.37
137.3
0.03644
93.93
203.6
0.06087
134.2
1.171e+05
27.56
0.01955
0.01949
1.671e+04
0.02207
0.02183
0.03028
0.2166
53.42
6.339e+05
59.19
0.06415
6.776
0.8146
0.02183
0.2424
41.47
0.02185
1787
125.2
1.445e+04
276.1
7.056
130.8
0.0645
48.02
0.02185
107
48.01
413.5
123.8
420.4
5.788
76.95
56.95
73.25
0.03776
36.74
1.115e+04
73.05
0.1163
121.2
2.561e+05
0.02183
69.22
191.9
590.6
42.76
263.8
15.35
1.311e+04
63.6
1699
9734
0.08259
12.63
610.3
8.618
37.59
169.1
4.299
0.0255
1265
3.774
0.09245
26.75
0.03076
0.5898
0.02344
38.97
605.4
121.6
55.26
2.012
5.198
452.1
0.2043
68.37
69.92
22.05
87.54
107
92.75
0.3469
3.91
0.0475
2.14
2.299
0.02179
0.02181
1.087e+05
146.3
0.02185
104.6
0.03829
4.53
0.415
0.116
2.455
0.02223
7.16
215.9
37.73
42.85
4.515
324.7
0.8347
0.7165
1.276
490.3
26.67
6.742
0.02188
4.473
9.561
45.08
54.49
305.8
0.03838
0.02182
254.2
9.638
318
0.3264
0.726
0.1228
189.9
0.03339
8.639
265.3
15.92
0.03896
130.8
201.9
49.76
37.44
0.02181
0.05801
0.01956
0.01951
0.1139
4.08
1.809
37.62
135.1
0.05872
7.06
44.1
78.84
27.97
104.3
226.4
139.7
313
198.2
273
6.178
36.71
86.97
0.03382
222.6
37.56
51.91
0.0246
201.8
64.95
29.74
0.7937
111.2
114.9
0.02193
0.02204
1.043
403.9
0.3843
4.756
0.03361
447.5
125.1
0.03447
0.123
197.8
8680
71.63
0.3247
1.27
726.6
236.8
0.8257
0.02477
1791
0.05032
686.4
29.17
3.53
0.02233
0.4398
89.55
155.3
135.9
235.1
0.4566
198
0.03351
0.03024
600.3
0.02185
53.19
29.12
0.05216
6.887
73.24
17.71
0.02222
107.6
12.01
302.8
0.2199
72.26
11.67
191.8
102.7
464.9
5.894
43.8
58.08
542.4
130.4
0.06359
57.76
0.1124
1.22
0.1344
550.9
0.07929
0.02116
125.6
37.45
0.3877
28
0.02192
7.999
276.1
0.02841
0.0222
0.02173
101.7
0.06875
4.91
0.02645
313.9
0.02189
50.36
1.066
41.43
93.57
205.9
5.84
440.7
0.05033
50.68
358.8
466.3
56.06
4.1
15.9
70.37
7.433
13.95
81.35
0.1606
0.02265
54.88
202
0.02079
70.55
0.6156
0.2294
9.167
0.05451
0.02029
46.2
0.5671
81.28
28.23
889.2
48.35
360.4
308.3
9.87
27.95
19.76
0.02171
340.4
0.02372
162.9
67.68
67.92
69.79
1.977e+05
122.8
11.39
0.131
21.01
0.02176
857.8
0.02272
42.76
25.21
2.882e+05
1.481e+04
4.687e+04
0.02194
223.8
112.1
0.02181
62.1
16.76
71.72
2.598
93.57
207.7
70.64
761.1
0.1381
35.99
9877
59.33
316.7
87.22
0.02275
4.227
0.1824
6.341
0.02413
362.2
3423
94.46
0.01972
54.82
0.1329
113.6
11.69
2677
4.892
0.02394
61.82
7.867
0.02082
0.83
4.789
185.7
110.7
207.4
186.2
28.44
10.27
30.6
68.54
125.3
0.02247
593.9
123
320.7
22.25
46.56
0.02213
0.02207
0.08503
225.7
30.11
0.02185
0.02707
5.554
121.3
75.48
9.849
173.2
416.8
2.062
0.02379
0.02134
93.53
86.52
19.43
0.03002
1707
16.18
134.1
0.3217
451.9
0.02185
74.07
29.14
3.274
0.02379
118.1
26.77
2127
0.02027
37.75
271.7
0.02172
6.874
0.02187
72.4
19.76
0.02179
243.5
178.4
47.58
167
26.95
274
237.4
39.78
93.56
201.2
106.4
40.95
55.17
405.8
0.026
248.2
0.02179
23.75
0.02606
32.92
0.02117
0.02185
0.5154
43.59
105.5
0.02135
0.02117
72.21
2502
278
292.6
53.89
4.836
98.18
12.61
77.03
134.9
752
0.02137
349.5
70.56
0.7144
2.077
0.02435
0.02703
13.86
415.4
19.76
1038
0.02594
0.03396
108.9
362.5
0.02985
580.7
0.1933
0.1529
147.8
3.552
64.41
0.1773
4.946e+05
112.4
56.44
50.74
145.8
246.7
418.4
364.9
0.02747
132.9
33.53
52.92
0.02122
88.23
0.7084
0.5778
0.01971
0.0212
615.1
0.1313
218.4
206.3
30.26
4.475
1.586
352.8
0.1622
147
0.02169
0.0209
16.76
0.1181
388.1
0.4916
395.1
52.05
84.86
0.2024
0.7381
0.03039
311.3
0.05479
179.4
6.966e+04
14.93
33.94
68.06
0.02475
30.06
114.5
708.8
4.078
12.82
76.91
2346
102.8
40.23
19.5
121.3
37.71
9.508
30.77
0.4583
1.067e+06
0.6961
0.02983
40.56
17.98
67.2
0.02156
29.23
5.802
75.59
0.03617
994.4
128.8
441.9
0.03664
372.4
44.84
311.4
226.2
0.03127
71.75
62.36
210
40.38
0.02216
44.12
79.73
0.02224
6.936
1.185
231.9
122.5
0.7092
14.99
536.3
112.4
0.01935
71.98
37.72
651.5
299.9
0.4669
61.04
186.1
0.01942
72.02
146
27.67
7658
27.1
90.68
88.42
41.51
2.367
0.02193
7.981e+05
123.3
155.9
146.8
60.96
67.41
80.71
140
0.02132
5.573
2.33
0.03184
120.3
162.7
41.51
13.21
0.02049
95.81
32.92
0.0217
0.02044
2.082
20.79
53.95
63.45
75.07
3752
3.421
0.3827
0.02124
96.01
55.34
213.9
404.7
1.277
0.04789
0.02257
3.214
1816
0.02126
0.1865
153.8
28.46
581.7
0.02305
35.34
31.25
0.02182
308.9
0.02121
25.93
1513
322.4
18.09
935
0.02332
215
0.1988
362.6
39.16
429.2
3163
0.4613
0.8435
2.832
1416
0.02181
2.887
196.8
762.7
34.02
930
0.04618
0.1736
95.6
605.3
1806
141.9
1.985e+04
446.4
3653
199.7
126.4
4.672
1608
0.0245
53.81
0.02538
0.02337
42.99
0.02908
152.7
22.41
31.94
0.8785
0.04498
345.4
42.52
0.02233
2.045
64.05
0.04291
301.5
2163
30.11
5.722
125.1
11.79
73.58
0.02173
67.9
180.7
0.02434
289.7
118.2
15.03
0.0207
1.766
1.406
7204
4.881
2186
64.33
13.99
32.69
331.2
435.2
0.02161
462
1.198
0.0231
5.269
7369
1.853
742.2
5.974
1.717
567.9
3333
145.8
0.0237
0.02184
6.101
9.185
76.43
279
71.49
605.5
188.6
0.1288
593.1
0.06469
1129
0.02161
68.56
57.68
32.28
161.7
89.78
0.02179
0.02236
113.4
0.2977
51.87
132.6
74.48
63.1
15.07
182.9
308.5
1090
50.68
276.8
171.6
6.253
69.44
136.6
69.76
77.28
3018
92.44
0.02156
0.02143
64.96
50.01
0.8444
0.02094
14.24
97.35
0.561
76.65
12.2
142.7
12.98
0.02223
0.4669
0.5902
1274
472.7
42.79
0.6623
2.54
409.5
141.7
15.32
43.19
17.08
72.75
57.65
774.4
0.02437
409.8
323.6
35.95
152.3
136.7
0.0219
656.1
1005
0.02096
0.02155
83.84
93.45
9374
33.9
51.91
115.4
114.4
0.5101
0.54
0.0251
120.3
43.97
75.78
2.142
145.9
66.09
0.02399
852.5
48.86
0.02172
354.3
0.0227
0.02169
10.33
0.1443
2243
0.02158
304
0.02182
188.6
0.1172
2.034
3.42
246.9
183.8
149.6
20.26
0.05064
0.04105
30.75
98.53
65.94
106.8
1043
123
1005
179.4
150.3
684.1
181.5
599.1
0.3159
3.917
0.03145
326.5
33.09
395.9
0.05244
53.25
43
43.57
34
100.2
0.826
382
13.73
43.65
54.65
278.6
39.56
0.02076
12.84
336.4
0.02285
260.3
563.2
0.02083
1.971
43.37
0.03994
0.3432
9.28
103.8
0.2519
0.01992
196
134.1
0.02179
0.2202
0.03725
100.5
155.9
4.03
0.04065
77.09
2133
245.3
136.6
46.36
1571
0.06176
79
0.02178
112.4
12.39
256.3
33.94
64
789.9
0.02197
9517
193.7
224.8
28.29
1001
17.28
3.323
506.4
34.77
0.04131
1.917e+04
47.13
143.2
350.7
89.22
35.22
64.83
325.3
43.97
62.29
19.76
204.9
165.9
1.967
1767
0.1338
49.93
0.1284
252.4
0.01985
0.02166
12
1655
71.4
0.2104
750.9
102.9
0.02181
2603
51.95
15.03
2170
2.932
50.17
1.927e+05
2.043
538.6
41.86
38.81
876.2
160.4
417.9
9.76
338.6
0.08932
0.6521
5.195
122.9
4.185
51.68
56.81
456.9
62.32
0.3811
54.75
2.128
1.278
5.16
1682
0.05189
1674
307.6
56.15
66.83
0.02181
34.18
114.6
1.618
265.9
338.3
499.3
0.02136
192.4
91.16
96.32
875.7
64.51
5.44
84.3
0.02242
83.81
70.54
2880
234.6
0.09948
37.46
0.02265
2356
965.8
57.71
0.8367
4.044
0.0208
0.01984
63.44
34.74
17.88
0.1244
0.0417
0.0451
21.84
108.3
6.198
350.9
129.2
950.3
1.478
432.7
47.71
94.63
0.01987
243.8
43.25
23.06
1116
4.783
12.94
85.29
29.59
73.12
2958
1.152
110.3
60.35
13.46
2.558
112.7
2454
0.2288
59.5
0.0212
145.8
685.8
0.02037
792.5
14.95
64.76
199.5
0.02139
1.699
1.06e+04
0.02191
111.3
155.3
44.9
1022
0.947
2.341
73.94
554.3
77.87
284.7
0.08261
33.14
177.5
3443
171.1
121.1
0.0217
170.2
5.44
354.3
168.4
37.72
107.6
0.02215
1.511
70.6
0.02422
52.08
0.02131
2249
54.96
1579
68.42
40.46
844.5
92.48
86.72
142.2
4866
137.8
127.6
29.03
65.04
68.93
0.02211
42.78
0.023
41.78
0.02201
54.28
0.02148
264.8
49.24
0.02081
0.02172
36.1
0.2294
211
0.1401
0.02022
9.286
97.86
0.04003
5.081e+04
254
5145
86.96
19.13
156
89.07
29.73
0.3261
769.4
35.17
203.4
530.8
118.8
52.32
11.39
0.02156
4827
115.6
661.2
0.02181
1033
39.86
158
49.84
0.01977
0.01975
0.3811
1.117
5.625
24.74
31.34
1.171
2.572
0.6645
2.007
503.4
27.87
2.854
112
2.636
604.9
264.9
33.2
169.8
63.36
0.02242
32.11
41.71
1022
45.32
0.04008
24.23
1.074
73.92
37.04
694.8
0.8003
0.02174
54.64
11.01
1459
472.9
0.8469
122.3
189.8
0.1701
0.01973
501.6
211.4
5506
0.09125
1789
46.71
0.02155
281
78.75
21.13
0.2504
33.62
78.03
26.44
106.9
45.82
138.3
0.05171
39.86
322.6
294.3
0.04324
0.04316
194
19.84
7002
97.63
339.6
365.6
4853
0.7729
68.58
0.02784
0.02201
0.02151
65.69
0.02188
1353
0.02174
4280
0.5285
17.63
52.83
262.5
0.07349
1715
0.3298
181
73.51
861.9
0.02279
234.8
130.2
64.25
151.4
79.12
81.08
536.6
642
0.05579
0.02061
505.1
0.06056
0.02017
0.5111
267.3
0.02061
654.1
0.02185
62.25
27.24
35.36
133.9
0.02098
71.83
243.9
102.9
0.1109
5.632
0.2943
0.02179
0.02123
83.23
2.079e+04
8.693
43.75
0.02684
1066
0.5132
0.1138
0.04835
2.686
101.3
245.1
0.02803
38.44
0.02359
94.29
0.02217
0.9227
27.75
28.78
23.83
334.2
136.8
0.02123
28.24
547.8
126.4
956.2
434.6
8.217
0.03892
5.067
8509
40.52
487.1
448.1
0.05706
0.268
0.02164
179.9
83.67
80.76
0.02181
84.88
0.02176
0.2628
75.88
0.02153
7.071
0.4671
14.04
35.7
0.322
166.9
0.0219
148.7
470.1
2.175
14.11
82.68
0.04658
14.43
36.61
74.29
18.22
44.11
301.4
146.6
246.5
571.6
0.09797
0.336
18.99
0.04128
116.7
99.55
0.1668
38.8
0.02676
0.1436
144.8
1.407
13.61
67.97
1071
57.2
923.6
0.8702
0.02066
996.9
62.54
0.1306
185.7
0.03175
26.29
0.02223
19.54
831.5
48.29
12.33
27.1
69.18
0.02187
30.3
0.7443
8.973
1258
0.02817
47.46
519.1
0.02161
0.02878
35.68
0.05767
52.95
2.561
2.045
16.25
0.773
43.07
0.06054
0.9451
148
0.02077
0.2949
1321
845
0.02099
81.59
1130
5.127
547.4
47.2
80.68
822.4
0.04956
0.09027
39.39
0.02831
525.5
14.26
47.55
747
280.6
0.02754
310.1
1.448e+04
4.755e+04
30.21
40.52
252
0.7313
63.61
5.918
41.64
269.5
59.77
37.92
30.01
1005
100.1
1.175
0.02184
424.8
1.184
116.1
0.5061
0.05806
61.25
29.84
5.197
0.02055
183
440.8
8.649
430.6
58.48
1100
128.2
0.03108
237.6
483.4
65.03
50.92
1469
0.0194
2603
122.3
80.36
0.02564
65.2
67.35
302.5
357.3
46.4
413.7
0.02585
7.533
94.88
0.06492
56.97
0.02193
209.7
2627
74.46
406.1
5539
54.49
1073
0.08037
334.3
6.068
46.81
0.0482
8.617
16.01
53.63
56.96
0.04795
38.36
3355
5463
53.78
2.872
1.083
1.767
0.0224
0.0294
116.5
0.5234
0.02246
37.63
63.62
135.1
54.34
4.927
69.96
13.17
643.6
955
1322
0.1207
43.9
2619
24.84
211.6
2.908
6.589
31.49
3.389e+04
8.674
7.067
0.03517
0.06964
742.4
51.76
0.02181
0.02196
46.05
388
47.57
49.3
1963
27.61
0.02714
369
50.32
48.17
613
0.5221
1.791
56.16
127.6
0.8602
198.7
0.02189
71.89
28.41
393.9
0.8091
105.4
564.8
2.137
386.6
11.6
264.5
68.47
145.7
0.1667
49.2
63.5
87.24
359.8
49.01
1372
155.7
0.02182
52.52
2.904
313.4
26.84
0.1856
11.69
0.1519
820.1
0.03815
50.42
30.89
45.32
58.18
31.06
0.2407
918
0.2916
0.02776
152.5
0.02092
57.43
0.03941
0.8955
26.34
0.02152
0.4007
107.4
139.1
0.02178
0.02515
54.65
9.6
315.6
0.2373
24.91
44.01
321.5
228
1.131
37.92
8.66
0.1026
52.96
2370
16.4
1977
195.8
19.76
1020
0.02183
0.02062
2.468
2.344
5279
0.02181
11.75
229.3
1.452e+04
154.2
248
0.0196
0.01917
182.6
213.1
39.85
40.28
0.04171
2.375
1.179
0.02222
365.4
67.29
37.22
39.12
683
0.3111
3.308
0.01993
5.401
63.62
338.3
152.7
162.8
224.6
81.02
109.8
57.21
335.9
199.3
0.09345
60.65
600.4
0.02591
0.02337
92.39
51.07
1071
3.623
94.32
255.8
0.1175
0.02179
9.365
0.02211
91.58
1948
51.91
0.1937
23.04
0.05752
420.4
285
0.05554
6.606
4.99
43.6
44.71
17.27
137.6
144
96.08
70.93
8.379
38.56
416.7
47.7
129.4
42.93
3948
49.25
82.97
143.8
15.56
4.047
7.796
1119
0.5333
285.6
0.02335
59.57
0.02214
67.81
19.37
1066
132
0.1328
294.4
3069
433.5
85.49
29.97
314.9
1526
0.2022
44.33
17.22
1964
122.7
76.82
0.2685
0.4661
0.02182
27.92
2605
2.618
66.65
57.37
0.1401
1051
0.01986
18.36
0.5992
43.8
188.3
0.2465
2.363
28.28
0.05286
38.23
12.21
1015
131.6
110.2
0.02157
55.54
98.78
311.4
841.3
17.69
10.11
152.5
0.02187
121.6
90.93
8.168
16.38
38.53
790.3
314.3
86.69
70.17
0.728
6.668
506.5
3.91
0.1139
1320
0.05711
0.7253
0.02189
0.02199
67.85
0.0224
117.8
19.15
1.112
30.8
308.1
856.4
104.8
73.19
122.7
48.19
8480
84.85
121.8
0.7208
3307
29.17
713.9
1200
0.0351
222.9
291.7
2.218
48.52
292.6
231
232.7
80.45
88.47
0.03058
7.873
0.02207
1.113
42.7
58.16
16.96
48.92
1692
51.73
0.02241
337.8
110.6
3.063
22.5
115.8
82.66
255.1
384.9
922.2
96.5
104.7
81.48
122.4
73.62
0.1115
4137
396
38.7
3.55
0.02263
136.1
338.7
63.25
2.154
962.1
382.6
125.7
2.67
121.5
2003
0.02261
154.1
17.94
0.04897
9.955
182.3
0.02184
255.9
41.78
5.884
4891
6.082
167.5
3322
88.34
102.4
0.01985
0.0198
96.81
13.23
3.582
698.7
55.88
0.02152
776.7
333.9
65.89
0.02259
0.02243
68.73
4.1
93.76
1.122e+04
205.2
0.02407
244.2
2266
0.1236
248.1
141.3
0.06926
0.9997
231.8
0.9049
42.69
0.01966
0.01944
0.01946
0.01962
0.08517
33.22
7.805
104.9
3.406
58.87
85.33
880
0.0204
177.7
54.17
122.7
611.2
185
32.87
29.77
140.5
55.47
67.6
0.1122
42.67
6286
68.85
697.8
0.8586
27.46
0.02178
3447
122.3
129
3.639
0.03744
2833
0.0218
51.54
574.5
0.02879
236.8
74.74
35.57
47.89
198
0.05728
175.9
0.02069
6.255
93.62
92.62
72.86
17.05
0.02166
0.02192
0.3418
50.01
219.9
0.409
46.74
249.2
1.84
234.9
142.2
6.268
49.4
31.68
77.24
0.2192
3387
0.9842
0.02179
1170
0.02179
0.02279
0.3739
0.08013
284.7
56.2
403.5
75.49
134.7
0.02188
0.103
63.82
82.99
61.13
0.03853
0.3819
1.005e+04
918.3
0.02213
1543
920.7
9253
0.05752
6.201
14.74
0.1092
0.02564
4.905
103.7
7390
0.1369
272.5
3.649e+04
0.02179
153.9
746.8
53.85
0.02179
326.2
9024
4823
1123
0.4998
15.76
2468
0.05892
63.92
0.02155
51.35
1004
7.502
244.3
1088
0.2626
29.91
17.28
0.02225
0.03389
200.7
406.9
3.527
305.2
205.4
1.034
42.14
55.66
62.04
68.48
0.0218
54.82
75.54
84.12
113.8
25.99
190.8
81.6
1433
1644
2.038e+04
217.8
0.05596
152.9
0.02767
344.6
290.4
0.02181
2.222e+04
0.02221
68.37
1211
546.2
94.25
131.7
78.36
39.43
0.01965
9355
36.45
0.0467
34.22
48.71
1888
853.1
3279
25.81
165.8
941.5
35.79
0.1155
37.08
1538
0.02089
64.61
27.89
43.04
25.19
42.77
24.91
661.8
51.84
47.75
951.2
0.0424
620.1
0.1299
20.64
75.18
0.02656
0.1443
18.18
413.5
393.6
1376
0.04533
0.0222
2.595
95.48
1596
57.46
10.13
0.01932
0.03432
390.3
0.01976
145.6
133.4
0.09031
156.9
43.18
2111
1467
862.6
0.04145
229.7
57.3
281.5
4.233
12.92
1030
72.16
301
103.6
457.1
84.75
2.056
1879
34.12
37.46
61.72
0.04089
23.29
0.1881
0.02225
10.55
155.4
123.2
77.22
20.4
2687
4211
49.78
3.128e+04
0.1877
0.3836
0.03769
0.06711
9.869
0.02221
38.7
1231
133.2
347.1
1.562
18.85
35.56
125.4
44.97
533.8
48.92
2386
276.1
0.02437
48.56
38.59
0.02204
0.04306
480.6
0.02186
310.6
175.2
100.3
3.537
616.7
0.07491
0.7002
0.05158
237.4
196.2
144.9
25.35
0.02144
87.12
0.02165
0.3442
127.2
3.059
971.8
136.3
269.3
7.753
2638
1.133
0.1619
86.78
107.6
0.02085
2.576
0.02185
323.4
354.8
120.9
72.23
0.0217
213.2
170
170.2
648.2
358.4
150.6
0.02469
1.114
2.009
2.23
376.7
15.31
0.09968
5.33
0.1714
24.26
136.9
0.02072
0.02044
0.02284
0.04266
0.3043
103.7
168.3
0.02212
93.81
13.07
61.52
0.02194
125.1
0.1159
455.6
0.05868
6200
14.42
510
0.03486
0.1024
873.3
0.03179
59.93
60.99
74.78
138.5
198.7
0.02183
121
71.5
52.42
55.21
82.9
4.089
73.21
25.84
811.8
0.02154
51.22
18.13
1956
0.2056
0.02209
495.2
571.8
76.08
59.76
6.582
788.4
0.05387
15.62
55.39
55.34
43.35
5.249
0.02429
10.86
1064
106.1
42.96
1059
3.258
3.766
0.02168
0.03108
0.1464
0.03616
7073
171.5
0.02195
0.02378
40.27
4341
0.02194
69.87
586.1
60.42
3.54
303.5
1051
198.8
45.37
279.3
2782
522.8
0.02231
118
18.35
152.6
0.02139
0.3688
70.03
47.15
91.12
3264
678.3
1.493
218.9
2682
9.427
76.38
77.22
1.88
0.9733
419
1624
0.02158
404.4
49.22
0.02194
756.2
61.43
4.035
0.08146
37.34
242.2
134.7
12.54
0.02192
0.02203
2.025
43.4
0.0202
2.539
0.02792
294.2
42.28
55.77
181.7
445.8
2.016
53.05
0.02156
1046
16.35
1167
205.6
0.1153
475.8
5.872
307.3
820.9
11.68
766.9
0.02082
0.02125
95.84
0.07719
0.0214
2006
85.4
89.94
299.1
13.11
121.2
0.02421
1945
0.04421
27.27
0.02043
0.2361
139.9
59.45
135.4
37.45
32.04
91.6
0.02048
119.4
239.4
408.5
1043
0.1504
37.37
7.624
0.02195
84.08
207.3
0.1836
0.05301
34.12
844.4
0.02131
0.02166
10.85
168.8
55.51
1583
0.02206
265.7
125
50.63
0.02208
0.09451
333.9
66.42
232.2
77.34
27.82
0.02054
173.9
0.02584
377.6
1369
0.07718
49.81
28.8
173.4
955.6
93.86
0.07264
0.02048
117.7
0.2524
0.02168
433
92.37
10.57
0.02052
0.08835
0.1179
0.03075
44.6
78.93
0.02181
301
27.76
88.67
0.02965
0.02191
0.02169
0.05535
10.82
2.641
238.4
1035
1426
25.93
2592
635.3
0.02545
949.7
159
225.2
31.88
0.1946
2.119
274.7
545.3
511.4
133.6
0.06433
90.11
68.49
42.96
8.588
0.2474
55.15
0.2632
93.75
0.02932
99.22
5.708
4.296
0.6072
569.3
1610
867.5
0.02062
4715
111.3
0.02015
112
0.02182
262.4
177.6
0.1041
488.7
30.89
0.0223
1.901
7.51
1144
0.02379
0.2609
862.4
2.64
0.02158
590.1
59.13
0.03511
0.2473
3.513
73.58
2707
220.8
183.4
15.67
47.97
1.823
0.02174
0.0515
58.86
42.58
168.1
0.02207
2322
97.17
17.3
40.5
111.6
173.1
0.0202
0.06555
137.9
160.5
0.05818
48.79
250.9
7.433
4.185
7.162
24.23
0.04932
23.53
15.73
10.24
6.091
0.02205
209.8
0.1318
58.18
3.216
2.198
260.4
144
5902
11.9
1.044
0.07146
0.02123
3.048
12.51
631.7
1070
94.3
164.6
270
44.44
0.9113
165.8
204.7
731.7
78.41
0.05218
413.3
1.182
401.2
7.045
20.56
37.7
98.16
0.02179
52.81
0.2466
0.02165
0.2854
409.1
1.084
4.145e+04
232.7
84.53
0.02168
34.18
249.1
0.03826
61.48
83.98
136.4
69.4
240.5
0.02188
231.2
0.02074
2.193
321.1
55.03
3.083
211.8
3e+04
0.02193
0.02175
15.42
30.53
363.9
1.01
110.4
265.7
6.148
63.15
0.02222
176.3
507.7
0.127
71.35
0.02157
23.76
0.07062
52.55
162.9
153.6
0.2898
86.3
15.77
0.02869
111.2
273.6
0.2423
0.02154
0.02386
165.6
1026
10.2
7.403
77.27
9.245
72.51
8.121
0.01939
0.415
1.262
1639
1593
296.4
0.02135
225.2
57
132.1
122.9
1091
3.321
49.44
42
28.14
274.1
698.8
0.9574
0.05544
9.449
0.0382
3013
0.02378
54.27
205.8
14.98
62.67
260
134.4
487.3
38.86
198.2
13.98
2.641
465.3
1587
62.56
888.4
1547
0.0218
983.3
127.5
384.5
560
46.46
1.563
53.82
36.04
5.776
0.05064
29.14
63.8
40.61
42.15
76.66
1.125
1.228
0.7638
1016
121.8
1438
42.23
229.7
0.02028
368
162.4
512
31.76
970.8
321.7
126.1
0.1087
869.6
0.09539
54.95
85.82
0.07391
0.7181
92.35
10.22
42.84
66.02
9.23
75.12
58.15
1077
8.742
6063
0.04847
5.473
51.8
12.54
0.05836
258.9
0.02182
0.02262
0.02178
57.91
63.43
56.91
0.4708
0.1629
49.07
0.05113
5381
505.5
968.9
99.46
0.09502
276.5
625.3
0.08371
271.8
0.02187
27.81
23.5
71.45
2.196
0.0213
0.02191
203.7
29.88
0.04632
1039
66.69
0.02097
0.02182
27.72
0.03692
177.4
1056
0.02477
3.407
81.14
263.2
486.7
1087
10.01
0.1892
20.22
125.8
0.3226
336.4
9.08
2.523
243.5
61.97
3.152e+04
0.03158
24.23
113.5
1279
0.02184
71.37
0.02181
13.59
2.9
11.24
46.27
121
53.11
0.246
398.3
88.27
180.2
279.3
279.9
74.3
1.365
30.22
337.5
50.54
116.2
0.02123
922.5
992.2
422.6
19.43
3.962
432.8
221.5
0.488
0.1452
7859
64.56
0.04354
0.02877
0.04546
155.7
293.2
3.148
990.7
5.823
0.03298
43.47
26.24
39.2
181.3
5606
620.9
46.32
233.9
58.49
121.7
129.3
58.12
19.65
17.35
435.6
59.18
0.4444
53.05
242.9
0.2004
20.91
1.104
4.885
1073
78.71
0.02204
903.1
9.358
1172
95.15
0.02156
0.1386
270
0.03437
74.12
331.8
681
15.99
0.02316
0.2616
37.79
58.73
0.09649
153.4
0.02078
226.7
78.56
86.05
47.14
158.9
167
135.7
891.7
0.4233
38.72
0.02183
1449
0.04786
0.02636
54.41
0.02215
34.66
59.74
1.927e+04
0.02196
75.09
40.52
186
149.7
0.2512
115.7
46.75
129.4
620.1
95.44
0.1227
0.02264
59.05
328
12.95
44.83
145.7
90.68
3.09
0.02116
41.18
69.02
2230
18.39
102.2
3.859
84.79
0.02151
8.085
981.3
392.5
0.02198
0.291
91.74
0.01994
33.07
438
34.73
0.02195
0.02201
17.56
0.02487
0.02014
0.02174
20.92
244.2
391.9
0.3784
60.17
4.665
0.8527
0.02225
65.94
21.69
0.0503
1.052
385.6
2.266
0.02914
156.2
119.3
11.45
922.6
2521
0.02864
37.78
12.86
164.3
124.6
237.1
0.02194
23.14
1010
2.482
47.88
0.4996
532.4
108.6
74.93
5.586
1165
0.08607
2841
100.1
0.02899
0.03537
0.02
54.88
101.6
680.1
417.2
2670
0.1326
0.01941
35.32
48.63
0.1576
0.02219
307.6
23.08
425.1
119.3
94.97
30.39
14.34
10.03
104.1
0.01987
791
137
63.11
5.326
0.1045
0.02249
55.02
41.73
129.7
1314
16.87
0.0499
25.63
0.8007
0.09895
0.0223
300
76.38
310.8
300.2
94.28
1.048
53.91
57.85
3.154
33.54
0.5202
0.2002
0.02192
29.97
1837
1.152
0.9502
3836
0.3423
0.02169
4.983
0.03315
0.02203
47.98
0.01949
0.01944
3.275
0.02012
91.46
1352
187.7
5.123
0.2136
0.02113
0.02197
5.3
87.87
13.04
992.1
61.67
0.02906
49.54
11.74
605.9
0.2692
0.02198
3.502
58.8
0.02203
0.02136
33.43
88.58
0.06705
0.03485
184.9
0.02131
0.3971
0.02188
5604
0.225
126.5
45.33
0.0327
0.1844
10.9
46.67
234.2
40.13
33.95
27.86
0.02215
960.4
72.78
48.82
0.02191
62
55.37
141.3
79.75
0.3776
84.71
4.544
0.2221
93.59
0.02205
2.786e+04
5.247
1366
0.02197
92.39
0.02186
0.1084
1.977
219
53.8
33.22
2.886
0.08475
1074
0.09829
111.2
995.1
7.91
0.2085
0.03843
256.6
0.02164
1.726
75.27
6.618
5.403
0.02223
1445
0.03842
50.43
343.9
23.41
148.6
588.3
55.32
370.1
42.27
1.085
64.54
1.817
0.02179
0.02181
586.1
50.7
358.4
37.54
33.75
0.0218
28.11
0.02181
0.02201
0.03707
491.3
0.1689
4.893
0.02901
88.02
0.3423
168.3
107.3
1903
0.02825
258.9
29.31
37.24
0.2444
44.65
0.02187
39.64
0.2434
53.89
4.979
0.03599
102.6
2142
59.43
512.3
84.58
1848
432.8
2.525
14.42
1247
8.403
2627
148.7
81.04
166.9
68.73
109.5
56.55
207.8
0.03551
61.96
0.05845
145.7
1251
32.8
53.5
274
51.01
62.44
0.03011
97.16
114.7
3559
35.39
0.0234
72.49
32.45
59.01
0.04988
25.39
64.75
103.3
0.7655
477.5
14.08
257.8
106.6
243.4
75.08
44.16
90.4
0.02771
655.6
7.576
0.02604
46.16
52.46
109.6
303.9
375
0.02202
72.81
47.38
0.1428
4.084
48.57
3581
326.5
0.02089
0.02228
1.979
71.17
25.29
0.02163
20.37
74.03
169.4
938.3
0.02104
107.9
876.3
56.71
2753
142
199
185.7
44.85
7.545
0.02548
106.7
225.2
39.25
128.3
1.013
61.79
0.02208
0.04564
132.4
68.23
83.58
189.8
51.72
0.0222
249.8
208.2
0.3467
111.8
4038
671.1
0.03337
0.2138
0.0277
33.2
211.6
313.5
430.5
45.12
142.9
0.02182
167.9
1.408
40.03
144.3
0.7593
993.5
22.28
712.6
0.04247
62.51
603.5
0.02179
62.35
47.89
100.4
51.06
0.0219
0.02202
0.03541
115.9
0.02221
28.83
344.1
0.2104
81.37
99.26
0.04824
27.7
63.18
0.1886
514.4
88.91
1112
177
0.0221
394.7
682.1
0.02172
1095
7.149
14.46
13.94
213.7
46.76
28.96
51.62
35.36
0.02194
40.11
0.02178
0.06851
501.6
54.99
19.18
16.66
1.505
145.6
0.02192
0.01976
0.09249
48.41
61.25
27.19
994.8
1.756
0.1182
466.7
0.7122
40.87
0.02137
112.9
283.5
48.96
57.41
270.7
39.21
106.2
89.36
2.54
0.02492
88.82
64
52.99
220.8
1093
242.7
0.0215
48.71
106.7
46.17
4637
0.02183
216.4
85.78
34.07
49.58
90.65
2862
59.79
65.22
293.8
3692
5.606
58.02
791.4
5.938
0.02169
143.2
72.32
97.67
68.05
47.99
11.27
0.03474
170.5
40.56
465.7
9.532
358.2
537.4
0.02176
287.2
59.2
182.6
2.513
0.01945
148.4
97.97
8.875
28.12
0.02135
57.42
40.27
2.766
33.05
40.98
271.2
70.88
205.7
165
0.01993
48.72
55.19
115.6
268.9
47.73
16.14
123
48.61
16.88
57.87
175.9
942.4
343.8
243.5
5566
11.62
0.1165
1.294e+05
177.1
659.4
0.03177
647.8
1402
118.2
12.15
0.02335
10.42
0.02181
71.05
17.41
2.628
2.382
50.69
368.5
11.75
1.22e+04
55.15
130.5
136.6
2245
272.4
104.5
86.87
0.1633
83.69
51.24
1097
43.74
0.7648
0.9837
259.6
0.9097
0.022
0.02178
17.33
18.9
0.05018
0.02019
0.02237
95.7
535.4
514.8
0.02155
0.02557
27.63
0.01974
0.01985
251.1
0.04347
56.43
368.1
0.05949
278.3
3.993
157.9
10.43
104
0.0822
31.93
69.72
3.777e+04
93.73
81.71
241
563.7
2.027
0.02552
49.96
342.8
0.02179
3.518
135.9
322.2
953.4
33.18
124.1
388
0.02715
54.07
190.3
118.3
38.84
74.49
0.05894
14.37
34.49
248.8
61.58
87.33
0.03635
445
70.57
0.03208
80.92
0.0563
90.92
0.02973
3092
1116
0.03374
91.77
58.16
0.1943
968.2
205.6
0.02347
551.2
46.12
95.78
576.4
0.04728
0.4274
3941
37.5
93.76
3.513
117
1.722
7.416
77.65
0.04978
1.347
188.7
47.32
81.18
62.35
139.2
2.866
47.71
272.9
102.9
3.041
15.59
0.0218
0.1668
213.7
57.53
0.01946
1.725
14.97
7.494
80.72
32.8
77.83
0.1829
115
39.88
0.09131
39.19
183.6
0.1681
350.3
0.0565
294.4
42.81
0.4109
0.09134
54.74
307.2
173.4
0.02107
142.2
65.33
65.28
0.06347
0.02243
30.5
135.1
431.6
8.338
29.94
64.54
112.5
2.041
1.952
1280
7.76
1.376
3608
180.1
36.99
65.8
0.02204
2.477e+04
0.02276
113.7
49.35
47.04
58.15
44.64
1396
17.45
5.544
0.5382
1.127e+04
280.8
50.98
8298
1185
279.3
47.84
0.1473
0.6439
0.4242
30.29
0.02187
174.4
1175
0.06129
21.65
2.976
77.79
54.41
248.5
2313
554
100.5
0.01943
0.01914
0.0218
141.7
2345
0.7139
0.0216
0.2429
813.9
4.036
2557
50.07
0.0228
6910
0.01949
1.209
35.23
0.05148
37.41
0.4932
1.059
0.09646
627.1
75.5
26.08
53.18
8249
45.62
410.8
97.42
56.01
0.02213
5321
232.1
522.8
51.6
139
33.98
271.6
0.1041
38.22
138
51.4
163.7
0.02726
678.8
61.33
506.9
8.407
0.1095
0.1832
0.02222
118.8
109
98.79
44.73
29.28
773.1
36.39
41.51
27.7
79.02
0.2271
254.4
54.66
41.24
2.295
0.0771
4.611
0.2065
28.1
2.012
174.5
8.146
237.8
26.68
6.863
141.7
0.4836
726.7
36.37
1.586
0.1295
2039
92.81
80.78
41.07
1195
0.02204
760.2
302.3
31.71
48.71
35.04
27.21
270
79.46
126.4
48.78
39.67
2769
0.04568
0.02187
0.02215
52.02
211
1.994
1413
463
1628
61.58
44.16
722.5
1049
5.706
261.2
423
34.72
1094
0.02176
141.5
276
261.1
0.02157
262.4
16.36
108.2
128.9
73.37
0.02207
0.3489
129
666.2
0.02094
145.7
3.433
0.5458
1.76e+04
0.03004
26.36
52.53
134
187.9
0.4773
26.89
6.83
181.5
338.1
286.1
0.0195
53.56
3.746e+04
0.02908
0.02427
463.5
756.8
137.7
81.15
0.07609
29.83
190.7
16.89
16.31
88.05
0.02005
45.35
9.417
0.287
0.02385
90.4
0.02136
6097
47.54
4.888
12.14
2375
0.02273
393.1
0.02
0.02216
207.7
0.5815
125.3
16.43
0.06317
144.1
77.58
78.61
7.699
83.93
229.6
442.7
228.4
290.4
557.8
943
117.8
27.04
208.4
154.1
88.04
0.5741
0.02121
0.0212
1629
35.51
80.66
2442
0.02231
557.2
0.5195
0.02039
55.35
8423
6.908
247.5
3652
0.02206
284.8
143.7
70.16
49.41
28.32
2375
385.1
0.02177
2654
574.5
0.08283
0.02555
160.6
448
146.9
287.2
61.01
48.58
0.0218
190.6
0.02124
286.2
282.8
2354
0.01945
0.01916
0.2459
36.39
0.03791
44.2
1.332
36.74
95.05
42.21
111.9
0.07786
0.03038
1019
2117
35.34
394.1
0.05059
76.68
0.02152
62.88
1858
66.09
263.4
845.5
273.6
199.4
1.205
34.67
107
0.02871
0.02219
0.02185
67.64
92.52
231
2941
166.6
0.02743
84.21
264.3
168.4
4203
18.83
82.7
529.2
21.02
0.0756
1.831
6.711
3.508
0.1029
438.8
51.81
19.46
44.53
277.1
0.2417
0.01976
993.9
50.38
57.85
73.13
1207
39.84
0.02086
60.64
97.83
93.04
3.542
46.82
70.98
4.9
120.5
2.025
0.05443
87.77
0.05718
0.1163
0.2443
803.5
11.36
516.5
105.3
24.9
140.8
0.03512
289.4
161.4
0.5592
47.88
16.05
3449
0.03868
0.02619
282.7
61.26
82.42
57.04
0.5286
287.8
0.07054
0.02184
8.815
108
0.02786
2.083
12.34
0.02175
1058
0.0692
30.95
38.48
16.96
0.7145
305.1
125.1
2.542
0.08261
0.02229
90.08
26.25
94.23
68.11
0.02156
0.0202
0.02179
32.71
96.79
78.01
0.04315
422
47.65
277.5
22.8
344.2
0.3879
0.03746
1070
0.02243
165.4
101.4
0.03885
55.45
46.94
41.84
225.8
135.1
62.05
2.96
0.05011
2365
175.5
459.1
0.2536
1.407
0.02188
1342
0.02175
45.23
699.4
0.02304
4.011
11.26
269.5
0.06787
62.92
6414
35.74
0.02169
58.24
172.5
77.41
68.37
69.78
112.6
1612
13.15
0.02073
0.02505
6878
10.32
211.9
5.458
24.06
0.02122
0.02193
1.693
3895
670.4
306.4
165.6
0.8958
181.9
661.2
25.68
147.9
0.0219
329.6
6.933
156.1
97.66
70.4
0.02161
367.2
68.79
2050
7649
18.25
7.192
1.11
114.2
0.02321
20.7
2443
118.1
155.9
216.5
1187
38.18
98.8
0.2162
426.1
481.7
1230
69.5
0.03098
749.7
587.1
0.02179
202.8
336
175.3
280.6
126
11.21
70.09
20.57
0.02772
52.31
0.02211
42.02
0.2215
1823
0.267
2842
20.08
289.3
40.21
52.46
187.8
9.958
127
1050
36.96
45.21
40.38
5.34
76.96
49.26
23.02
0.02763
11.82
8.711
51.67
73.86
115.8
644
158.5
0.02837
166.2
1265
75.94
42.05
394.9
0.04571
145.9
0.0217
62.38
3.238e+04
1.992e+04
504
81.76
20.09
0.02113
0.04096
85.23
50.58
74.9
3.107
0.02226
59.37
235.5
6.542
93.6
0.02184
445
78.53
3338
5.973
14.26
43.4
242.4
0.0351
410.8
5681
1.01
9.137
0.4167
184.6
2993
4.268
54.82
5.517
117.4
0.02767
87.16
0.01989
941.1
78.25
15.97
76.41
3.408
286.7
68.48
1.889
0.08212
0.02199
0.02172
19.59
64.77
49.98
28.03
33.71
47.22
2886
1.445
74.46
0.3557
0.0221
468.5
0.02235
59.44
371
3.547
71.74
38.67
2748
189
62.44
143.6
25.83
132.5
0.1834
989.1
0.02178
4578
873
33.65
54.43
0.02224
80.64
75.17
142.3
1.184
100.4
770
1030
0.02176
51.32
0.02196
0.02179
630
0.02949
59.44
8.544
1407
95.81
77.94
53.55
111.3
1.546
98.98
1.798
3.974
9.491
0.02538
56.31
0.07638
1443
52.28
28.45
0.4192
14.4
178.2
786.1
142.8
37
7.36
0.4348
141.6
55.67
311
97.79
0.6537
65.03
79.94
37.86
44.12
4.531
61.17
7.254
165.7
3242
32.32
0.2115
0.03946
591.5
29.52
0.02181
351.3
0.4601
1211
191.8
0.01967
86.6
213.3
218.7
390.9
330.5
41.25
146.9
0.03945
487.7
284.6
54.53
147.3
44.48
97.27
0.02234
0.02414
0.02224
118.9
0.2825
0.02197
0.1172
2.108e+04
0.02194
154.4
440.1
1.15
279.6
195.3
59.41
890.5
24.15
85.87
87.71
2.476e+04
0.02174
229.8
11.13
43.18
2.001
5.023
3.617
1.528
1213
0.04539
0.0296
1.23
1128
1258
288.3
477.7
0.04965
4680
0.02172
56.49
85.87
59.78
0.02181
0.7594
36.08
146.3
208.6
260.9
2.582
296.1
1876
11.79
33.82
0.02805
4.984
5.812
0.5427
1.234
11.28
186.9
19.9
0.3437
153.6
285.7
0.6779