/*--------------------------------*- C++ -*----------------------------------*\
  =========                 |
  \\      /  F ield         | OpenFOAM: The Open Source CFD Toolbox
   \\    /   O peration     | Website:  https://openfoam.org
    \\  /    A nd           | Version:  8
     \\/     M anipulation  |
\*---------------------------------------------------------------------------*/
FoamFile
{
    version     2.0;
    format      ascii;
    class       surfaceScalarField;
    location    "50";
    object      phi;
}
// * * * * * * * * * * * * * * * * * * * * * * * * * * * * * * * * * * * * * //

dimensions      [0 3 -1 0 0 0 0];

internalField   nonuniform List<scalar> 
189008
(
2.217e-07
-2.217e-07
2.943e-08
-2.943e-08
4.624e-09
-4.626e-09
4.421e-09
-4.433e-09
-6.889e-06
6.889e-06
3.438e-09
-3.448e-09
6.929e-05
-6.929e-05
-1.878e-05
1.878e-05
-9.998e-06
9.998e-06
-2.86e-05
2.86e-05
0.0001081
-0.0001081
-3.07e-05
3.07e-05
1.943e-08
-1.943e-08
-2.551e-09
2.542e-09
-0.0004922
0.0004446
4.768e-05
1.868e-05
-2.164e-05
2.96e-06
-5.426e-08
5.424e-08
0.03985
-0.01667
-0.02318
0.008138
-0.00507
-0.003068
-1.058e-05
1.36e-05
-3.012e-06
-0.003948
0.003403
0.0005453
3.02e-06
-1.559e-06
-1.461e-06
-0.003277
0.009093
-0.005816
2.408e-05
0.0007286
-0.0007527
1.774e-06
1.246e-06
-0.0007703
0.0003863
0.000384
0.0003138
-0.0003525
3.876e-05
0.0003463
-3.257e-05
0.000278
-0.0002015
-7.648e-05
0.02216
-0.03958
0.01742
-6.39e-05
-0.0003301
0.000394
-0.0002531
-0.0005172
0.0001674
-0.0001283
-3.916e-05
0.0004837
-0.0002799
-0.0002038
0.007567
0.01126
-0.01882
3.44e-05
0.000133
-1.131e-05
-0.0001067
0.000118
-0.006098
0.007297
-0.001199
-5.599e-05
0.0007528
-0.0006968
-0.000107
0.0001261
-1.912e-05
0.00485
0.003288
0.002843
-0.005594
0.002751
0.0008132
-0.006691
0.005878
-5.375e-08
5.374e-08
0.001372
0.03847
0.0002831
0.0002006
0.0001643
0.0001137
0.0006795
-0.0006509
-2.862e-05
-0.0009586
0.001169
-0.0002103
-3.408e-05
0.0006249
-0.0005908
6.3e-06
1.238e-05
-0.01613
-0.02686
0.04299
0.001008
0.0004356
-0.001443
-0.01592
0.01255
0.003379
1.082
-0.1293
-0.9522
0.001278
-0.0009892
-0.0002891
-0.1448
1.226
0.01045
-0.006556
-0.003889
-0.3151
0.02059
0.2945
-0.008434
-0.007491
-0.002759
0.001743
0.001016
0.003036
-0.004766
0.00173
-0.0001831
0.001685
-0.001502
-0.8103
0.9555
-0.1452
0.0004027
-0.0009332
0.0005305
-0.0005391
-0.002258
0.002797
-0.03361
0.02545
0.008158
0.002124
-0.001747
-0.000377
0.0005872
0.001537
-1.288
0.4837
0.8046
-9.596e-05
-0.0004831
0.000579
-0.0001286
-0.0002239
0.000722
0.003946
-0.004668
-0.118
-0.1971
-0.275
0.5179
-0.2429
0.0001383
0.0002081
-0.05236
0.09475
-0.04239
0.0009427
-0.0008925
-5.021e-05
0.0006187
0.0006596
0.1607
-0.6345
0.4739
-0.0002895
0.0002053
8.425e-05
-1.29e-06
-9.294e-06
-0.0003567
-0.0004214
0.0007782
2.098e-05
9.507e-05
-0.0001161
-0.0004072
0.0006081
-0.0002009
0.00053
-0.0007933
0.0002633
-0.0007525
0.001466
-0.0007135
-0.0003752
0.000122
0.0002532
-0.002568
0.002029
-0.0007709
0.001308
-0.0005376
0.1789
-0.01807
-0.1608
-0.009198
-0.003298
0.0125
-0.000555
0.001633
-0.001078
-0.002194
-0.001754
-0.001838
0.00189
-5.279e-05
0.02105
0.01764
-0.03869
0.004972
-0.002129
0.0004934
-0.0004981
4.682e-06
0.001298
0.0002672
-0.001566
-0.02294
-0.01067
0.6867
-0.5261
-2.006e-05
-0.0009386
-0.0001698
-0.0005505
0.0007202
0.00374
-0.004561
0.0008214
-0.0001348
0.0006647
0.001699
-0.0004008
-0.00102
0.001462
-0.0004422
-1.008
-0.2802
-0.0007271
0.0004258
0.0003013
-1.154
0.8752
0.2786
-0.000354
-0.0001383
-0.0002717
-0.0001035
0.002997
-0.0004676
-0.002529
0.002209
-0.002647
0.0004381
-0.2142
0.09903
0.1151
0.0004623
0.002209
-0.002671
-0.1094
0.06175
0.04763
0.1658
-0.4408
0.02497
-0.07733
1.684e-07
-1.38e-07
-3.051e-08
-1.251
0.09749
-4.684e-05
-0.0002957
0.0003425
-0.0003225
-0.0005002
0.0008227
0.0122
-0.0104
-0.001799
-0.0001752
-0.0001143
0.0006733
-0.0006135
-5.987e-05
0.002711
0.001223
-0.003934
0.08775
-0.105
0.01729
0.002952
-0.001167
-0.001785
-0.0008111
0.0006406
0.0001705
-0.0008132
0.0002292
0.000584
-0.001353
0.0005176
0.0008356
-0.000322
-0.001189
0.001511
0.0003943
0.0005484
1.259e-07
-9.469e-08
-3.121e-08
-0.0008912
7.795e-05
-0.006714
0.03628
-0.02957
0.001676
-0.002979
0.001303
-0.0001245
0.0001454
-2.092e-05
0.03096
-0.05496
0.024
0.007369
0.0005407
-0.00791
-0.05211
-0.03949
0.0916
0.002844
-0.003339
0.0004953
0.006209
-0.003381
-0.002828
0.001635
-0.000627
0.002286
-0.0007965
-0.001489
-0.0002254
-0.0001219
0.0003473
-0.02774
-0.7826
-0.001689
0.0003354
0.0005512
-0.0008642
0.000313
0.002219
-0.003284
0.001065
0.00123
-0.0003303
-0.0008999
0.004673
-0.008303
0.00363
-0.008541
0.001584
0.006957
-0.0002673
0.0002702
-2.946e-06
-0.000526
0.0001188
0.00685
0.003595
0.0007153
-0.00057
-0.0001454
0.0001907
0.0004889
0.0002377
-0.0004695
0.0002318
-0.0003748
0.0007103
-0.0003355
-8.945e-05
8.945e-05
0.1874
-0.008531
-0.001038
0.000292
0.0007456
0.0002384
-0.0005468
0.0003084
-0.0003227
0.0007254
0.0001431
-3.587e-05
-0.0001073
-0.0003836
0.001234
-0.0008505
-0.001516
0.001159
0.0003573
-0.04622
0.03414
0.01208
1.4e-06
6.032e-06
-7.432e-06
0.004019
0.00219
-0.003923
0.001692
0.002231
-0.002144
0.0007186
0.001425
1.039
-1.215
0.1761
2.47e-05
-2.662e-05
1.917e-06
-0.001277
0.0006464
0.0006305
0.001646
0.001306
-0.0005538
0.001111
-0.0005574
0.1228
-0.1489
0.02606
-0.001428
-0.0007153
-0.1148
-0.006135
0.121
-1.487e-05
-1.224e-05
2.711e-05
5.81e-06
1.889e-05
-0.0003195
-0.0004916
-0.001225
0.004261
0.0012
-0.009684
0.008484
0.0002964
0.001912
0.000697
-0.0006729
-0.006712
0.08724
-0.08053
0.0001349
-0.001146
0.001011
0.0009664
0.0001737
-0.00114
-0.044
0.03728
0.001758
-0.002011
0.0002536
7.159e-08
-0.0008697
-0.003337
0.004207
-1.475
1.203
0.2718
-1.457
1.188
0.2692
2.986e-06
-5.114e-07
-2.474e-06
-0.1675
0.1347
0.03279
0.2066
-0.03831
-0.1683
-0.06073
0.04695
0.01378
0.02646
-0.07071
0.04426
-0.0001173
0.000106
-2.825e-09
2.813e-09
0.0003562
-0.001174
0.0008179
0.0229
-0.006364
-0.01653
0.002374
-0.0005299
-0.001844
0.05505
-0.03289
-0.2087
-0.005491
-0.0009283
-0.01891
0.01984
0.0003612
-0.0001842
-0.000177
-0.05748
0.199
-0.1415
-0.0006689
-0.0008475
2.192e-05
0.0003441
-0.000366
3.82e-06
-4.419e-06
5.99e-07
-1.693e-05
1.514e-05
1.792e-06
0.002996
-0.001817
-0.001179
0.000369
-0.001401
0.001032
0.01978
0.003123
-0.001071
0.0003682
0.0007024
-0.4716
0.2206
0.2509
0.001075
0.0001552
-0.001197
0.001685
-0.0004887
0.0002255
0.0001402
-0.0003657
-1.523e-05
1.213e-05
3.092e-06
-0.000363
0.0006014
-1.038e-05
-0.006088
1.174e-05
-1.142e-05
-3.152e-07
-0.002238
0.00199
0.000248
0.003564
-0.001071
-0.002493
-0.0415
-0.07334
0.004866
-0.004144
1.177e-08
-6.866e-08
5.686e-08
0.002085
0.00148
-0.02076
0.01648
0.00428
-0.0003465
-0.0006911
1.759e-06
-1.759e-06
0.2284
-0.02175
0.002015
-0.0003649
-0.001651
0.001674
-0.0007073
0.0006498
-0.001363
0.0007128
-0.0001867
0.0001324
5.427e-05
0.0003862
0.0003291
0.0008226
0.0005654
-0.001388
1.018e-07
6.661e-08
0.0008843
0.000433
-0.001317
-0.0003401
0.0003013
3.873e-05
9.296e-06
-9.291e-06
0.1973
-0.9687
0.7714
-0.001131
-0.002444
0.003575
-0.0001826
0.0004938
-0.0003112
0.0019
-0.0008794
-0.00102
0.004621
-0.00144
-0.003181
-0.0001836
0.0008539
-0.0006702
0.0004356
-0.0002948
-0.0001409
0.1185
-0.03079
0.0002359
-0.0009865
0.0007506
-0.0002328
0.001191
-0.000958
-0.009494
-0.003571
0.01306
-0.00578
0.002956
0.002824
-0.05961
0.09151
-0.03191
-0.01602
0.00682
-0.09095
0.03884
-0.001466
-0.001398
0.002864
0.0001103
0.0008257
-0.0009361
-0.0001829
0.0003412
-0.0001583
-0.0002038
0.00026
-5.621e-05
-0.001392
0.0003292
0.001063
0.002133
-0.00647
0.004337
-0.0007252
-8.824e-06
0.000734
0.8731
0.1661
-0.0007799
0.001015
-0.0002349
0.00219
-0.0001742
0.001142
-0.001918
0.0007765
-0.001301
0.001436
0.001591
0.001406
0.001159
-0.001368
0.0002092
-0.388
-0.4525
0.8405
0.0005051
0.001027
-0.001532
-0.5416
-0.3488
0.8904
0.03985
-0.0188
0.003803
-6.283e-05
-0.09339
-0.1628
0.2562
0.04773
0.1204
-0.1681
1.784e-07
-5.424e-08
-1.242e-07
0.0009326
-0.0007743
-0.0001584
-0.07848
-0.1009
0.1794
0.001577
-0.001169
-0.0004087
0.175
-0.05216
-0.00148
0.006153
-0.002271
0.004653
-0.002382
-0.009519
-0.01124
0.0007645
0.001202
-0.001967
-0.2013
0.2324
-0.03104
-0.0003963
0.0005307
-0.0001345
-0.000314
-0.000233
0.000547
8.958e-07
5.99e-06
-6.886e-06
-6.847e-05
-0.0001182
0.004697
-0.002563
-0.0002974
-0.0005313
0.0008287
-0.003005
0.0006699
0.002335
-0.001272
-0.001004
0.002276
0.00311
-0.002648
-0.000189
0.0003273
-0.0001383
2.478e-05
0.0001013
-0.0001261
0.002196
0.0001779
-0.1792
0.1217
-0.008868
0.004391
0.004477
-0.002931
0.00296
-2.82e-05
0.001165
0.0001214
-0.001287
-3.016e-06
2.596e-06
4.202e-07
-0.0009365
0.0006068
0.0003297
-0.854
0.3124
-0.2556
0.1304
0.1252
0.0005972
0.0001875
-0.0007847
0.004269
-0.005758
0.001489
-0.0002526
-0.0004311
0.0006838
0.0189
-0.01135
-0.007555
0.2119
-0.2022
-0.009685
0.007395
-0.01067
-0.0005168
-3.92e-05
0.000556
0.09722
-0.0523
-0.04492
0.001307
0.0005928
0.0008891
-0.0002919
-0.001482
0.003756
-0.002274
-0.02
0.03137
-0.01138
-1.662e-05
-1.645e-06
1.826e-05
0.0008767
-0.0002868
-0.0005898
-0.002834
0.0009063
0.001928
0.004675
-0.002415
-0.00226
0.1968
-0.149
-0.007905
0.01547
-0.5022
-0.9723
-0.4957
-0.961
-0.00901
0.0004684
-0.000633
0.0004612
0.0001719
-0.003692
-0.0002308
0.001253
0.003422
0.0001847
0.0006299
-0.0008146
-0.01603
0.04699
0.002013
0.0009832
-0.001881
0.0006775
0.001203
0.000154
0.0007173
-0.0008713
0.0007956
-0.001724
0.0009282
0.0004592
0.001118
0.0008149
-0.0003363
-0.0004786
-0.00172
0.002185
-0.0004651
0.0009792
-0.0006756
-0.0003036
-0.0004569
0.00242
-0.001963
-0.001249
0.0009756
0.0002739
-0.005262
0.007625
-0.002364
5.961e-06
-2.425e-05
1.829e-05
-0.001147
-0.006285
-0.02575
0.03203
0.0008727
-0.0007465
-0.0001262
0.003731
0.0008903
-0.0006123
-0.001616
0.002228
0.2982
-0.4093
0.111
0.0007997
7.698e-05
-0.0006157
0.001188
-0.0005727
-0.001848
0.001665
-0.008021
-0.008248
0.01627
0.001126
-0.001174
4.744e-05
-0.000107
0.0008899
-0.000783
0.3824
0.1358
-0.5182
-0.1166
-0.05083
-0.1933
0.263
-0.06962
0.0004952
-0.0005888
9.368e-05
0.4446
-0.8326
-0.001474
0.0001631
0.001311
0.06348
0.03375
0.0003849
-0.0005676
9.332e-05
-0.0007252
0.0006319
0.1156
-0.1223
0.03102
-0.01126
-0.01976
-0.0002199
0.001069
-0.0008489
-2.787e-07
-1.671e-08
2.954e-07
0.001185
-0.002087
0.0009012
0.9542
-0.7151
-0.2391
0.0008336
0.009472
-0.01031
0.0001324
0.0005409
-0.001249
0.0008857
0.0003637
0.005009
-0.003954
-0.001055
-0.09016
-0.01923
3.435e-05
4.679e-06
-3.903e-05
0.02067
-0.0239
0.003236
9.646e-06
-0.0001167
0.003106
-0.004177
0.001071
-0.002131
-0.003882
0.006013
0.2455
-0.2574
0.01194
0.003972
-0.003954
-1.883e-05
3.518e-06
-1.619e-05
1.267e-05
0.0002191
0.0006197
-0.0008388
-0.0009275
0.00103
-0.0001027
-0.000205
0.0004348
-0.0002298
0.002098
0.001874
-0.0004398
0.0003759
-0.02593
0.01965
0.01048
-0.07009
0.0001318
-0.0002212
8.938e-05
-0.5101
0.03853
0.004103
9.035e-05
-0.004194
1.183e-05
-2.67e-05
0.001649
0.01902
-0.003973
0.003136
0.0008374
0.0003724
-0.001093
0.0007205
-0.002152
0.002134
1.775e-05
0.1101
0.4884
-0.5985
0.0005414
-0.001095
-0.0001189
-0.0001422
0.0002611
-0.001106
-2.451e-05
0.00113
0.0006014
0.006768
0.000307
0.0004678
-0.0007748
-0.0007889
0.0004664
-0.000608
-0.00123
0.00223
-0.001833
-0.0003974
-0.0008962
0.000171
-0.0016
0.004601
-0.003001
-0.000595
0.0001228
0.0004722
0.0001411
2.046e-06
-6.034e-05
5.609e-05
4.198e-06
0.0005244
-0.0005583
3.387e-05
-0.674
0.8713
-0.002978
0.0007403
0.01233
-0.01448
0.002154
-0.005355
0.006168
-0.01065
0.001091
0.009561
0.0009397
-0.0002899
-0.01035
-0.005714
0.01607
-1.277
1.439
-0.1617
-0.0006413
0.0006565
-1.53e-05
9.258e-06
1.115e-05
-2.041e-05
0.003243
0.01211
-0.01535
0.004842
-0.005244
0.0004025
0.5739
-0.1915
0.0008943
-0.001838
0.0009435
0.000204
-0.0007685
0.0005645
-0.0583
0.04217
-0.02421
-0.1771
0.6965
-0.6519
-0.04461
0.000841
-0.000875
0.06448
-0.0282
-0.0002808
-1.665e-05
0.0002974
0.05058
-0.05658
0.006001
6.629e-05
0.0004271
-0.01418
-0.1309
0.145
-3.276e-05
-7.019e-06
3.978e-05
0.05754
-0.2509
0.0001282
0.0002329
-0.00255
0.002439
0.0001115
-0.00121
0.0006686
0.0005411
-0.001208
0.002674
-0.001466
0.0003071
-0.0006057
0.0002987
-0.01866
0.004327
0.01433
-0.0001966
0.0001066
8.993e-05
0.0006439
0.0002349
-0.0008788
-0.001328
0.0001358
0.001192
-0.0002802
5.195e-05
0.0002282
0.001913
0.008715
-0.01063
-0.002418
0.002096
0.0008337
0.001353
-0.002187
0.001824
-0.005891
0.004067
0.004681
-0.003253
-0.001428
-0.001185
0.002019
0.3557
-0.9491
0.5934
0.1229
-0.001861
-0.1211
0.004142
-0.00181
-0.002332
-0.0005979
0.0006575
-5.962e-05
-1.532
0.1224
1.409
-0.003093
0.001956
0.001138
-0.005746
0.01477
-0.009028
0.004499
0.007702
-0.001225
0.005494
0.02786
-0.01548
-0.01238
1.414
-0.2688
-1.145
-0.0003745
0.0005026
-0.0001281
-0.01234
0.006594
7.023e-06
-6.06e-06
-9.633e-07
-0.001913
0.0009322
0.0009809
0.0001647
-0.0001082
-5.655e-05
-0.0001041
6.338e-05
4.073e-05
0.001046
-0.0001607
-0.0008849
-0.0005099
-0.0004265
-0.0003657
-6.009e-06
0.0003717
0.000929
0.003913
0.002076
-0.0006633
-0.001413
-0.1271
0.2575
-0.1304
-0.0003547
0.0005924
-0.1
0.0851
0.01491
0.001174
-0.0009916
-0.0001826
0.0006859
-0.001438
-0.001797
0.001619
0.0001779
0.0002064
-0.00223
0.002023
-3.367e-09
5.349e-10
0.0008031
-0.0004002
-0.0004029
0.001247
0.0008052
-0.002053
0.02641
-0.01523
-0.01119
0.003142
-0.003928
0.0007852
-0.2849
0.2279
0.05702
0.0001085
5.622e-05
0.119
0.003947
-6.765e-05
-9.72e-06
7.737e-05
-0.003736
0.002866
-1.052e-07
1.052e-07
6.479e-08
-3.332e-07
2.684e-07
-2.818e-07
2.553e-07
2.647e-08
1.195
-0.8174
-0.3773
0.000464
0.0004087
-0.0003656
0.001834
-0.001469
-0.1461
-0.1095
0.002385
-0.000258
-0.002127
-0.0002512
0.0006788
-0.0004277
0.0005089
-0.0005674
5.853e-05
0.00297
-0.0002931
-0.002677
-0.0002825
-0.002268
-0.00102
-0.0001893
-0.001948
-0.001146
-0.0003011
0.0002754
2.564e-05
-0.4347
0.7903
0.0002005
-4.916e-05
-0.0001513
1.922e-06
-1.836e-06
-8.657e-08
0.0003815
-0.0004481
6.655e-05
0.0007239
-0.0001749
-0.0005489
8.439e-06
-7.039e-06
0.06122
-0.1792
0.002961
-0.0007416
-0.05196
0.07842
0.005992
-0.004168
0.0471
0.2422
-0.2893
-0.000594
0.0001457
0.0004483
-0.0002769
-0.0004433
0.0007202
2.232e-05
-2.061e-05
-1.712e-06
1.517
-0.8966
-0.6202
0.003366
0.0007763
0.008217
0.0035
-0.01172
2.621e-06
-4.263e-06
1.642e-06
-0.0003932
3.153e-05
0.0003616
0.0009803
-6.676e-05
-0.0009135
-0.008305
0.00168
0.006625
-0.1093
0.1009
0.008462
-5.227e-06
1.409e-05
-8.861e-06
0.0005301
0.0005436
-0.001074
-0.7995
-0.7324
0.002004
-0.007918
0.001236
0.006682
-0.0006293
0.0003152
0.0003815
0.0007447
5.186e-06
-0.0006031
-0.000384
7.065e-05
0.0003134
0.003688
-0.0005828
-0.005157
0.005147
1.062e-05
0.00057
1.887e-05
-0.0005889
-0.0001708
0.0004458
-0.0002751
-0.0001556
-0.0004857
0.1119
0.05742
-0.1694
-0.0001535
0.0001153
3.821e-05
-0.0001996
0.000813
-0.0006134
0.0008758
-0.0009947
0.000119
0.0009806
-0.002125
0.001144
-9.476e-05
0.0001757
-8.094e-05
-0.7902
0.1129
0.6774
-0.7889
0.6291
0.1598
0.005125
-0.01462
0.0007519
6.295e-05
-0.0008157
-0.0022
0.003016
0.1343
-0.2066
0.07232
1.473
-0.6494
-0.824
-0.001077
0.001634
-0.0005563
0.0001817
-0.0002823
0.0001006
0.001134
-0.000527
-0.0006071
-0.000406
4.03e-05
2.413e-05
1.505e-06
-2.564e-05
2.474e-05
-2.563e-05
9.458e-07
-0.00259
0.002404
0.0001861
-0.1464
0.103
0.04334
1.396
-1.274
-0.1218
-1.873e-05
8.56e-06
1.017e-05
0.0007053
0.001078
-0.001784
0.0004116
-0.001372
0.0009605
0.3153
0.5196
-0.8349
-0.0001016
-0.0002384
0.002244
-0.002627
0.0003835
0.0007364
-0.0006884
-4.804e-05
0.5017
-0.000785
0.0009345
-0.0001495
-0.03086
0.1651
-0.0004357
0.000808
3.33e-05
1.769e-05
-5.099e-05
0.006752
-0.008442
0.00169
0.9749
0.1612
-1.136
7.671e-05
0.0002526
-0.0003293
-0.004289
-0.001492
-0.0001587
6.927e-05
0.3919
1.022
0.0003779
-0.001398
-1.162e-05
-5.312e-06
0.3915
0.3049
-0.001521
-0.002452
-0.1675
0.007834
0.1596
-0.000395
-0.0005042
0.0008992
0.002842
-0.0008023
-0.002039
-0.2805
0.1871
-0.0006475
0.0005846
6.289e-05
0.0003615
0.0007377
-0.001099
-3.989e-06
4.402e-06
-4.132e-07
0.0008815
0.0007058
-0.001587
0.004069
-0.002255
-0.001814
-0.0003256
-0.0009238
-0.0003794
-0.00087
-0.001115
0.0002594
0.0008551
0.0008357
-0.0008916
0.00102
-0.001575
0.0007116
-0.001097
0.000385
-1.897e-05
1.822e-05
7.498e-07
-0.003026
0.002283
0.0007431
0.0006684
-0.0004846
-0.0001838
-0.5981
0.9134
0.001105
-0.0007348
-0.0003699
0.1046
-0.1923
0.08765
-0.0006529
0.001448
-0.1282
0.03699
0.09125
-0.0006099
0.003454
-0.3432
-0.934
-0.1536
0.07515
-0.002094
-0.004427
0.006521
-0.0002959
-0.0002991
0.001659
0.0009826
-0.002642
-1.04
0.1288
0.9116
1.104
-0.8981
-0.206
1.574e-05
-4.004e-06
0.0003225
0.0002052
-0.0005277
0.0003081
-0.0006647
-0.0009271
0.0003611
0.000566
-0.002519
0.0009575
0.001562
0.0001289
-0.0004096
0.002319
-0.003011
0.0006927
-0.0003865
0.0002676
0.001465
-0.0007479
0.0001394
-0.0003389
0.0001995
0.0004366
0.00011
-0.0005466
-1.16
0.1191
-0.0003908
-0.001207
0.001598
-0.0001347
0.001277
-0.001142
-0.0001354
-0.004192
0.004328
0.01109
-0.005185
-0.005909
0.1777
-0.2343
0.05661
1.03
0.4433
0.00238
-0.003862
-1.232e-05
-0.0001122
0.0008947
0.001181
2.292e-05
-1.373e-05
-9.191e-06
-0.07965
-0.04859
-0.9849
-0.4036
1.388
0.0002608
0.0002089
-0.0004697
0.001552
-3.046e-05
-0.001521
-0.04888
-0.01185
-0.0002626
-0.0003035
0.0005661
0.01235
-0.001708
-0.01064
-0.02821
0.08372
-0.05552
0.0003303
-0.0001295
-0.0002008
0.001823
-0.002296
0.0004727
0.001315
-0.001449
0.002331
-0.006726
0.004395
1.029e-07
-1.029e-07
-1.848e-05
3.257e-06
-2.813e-05
-0.0002521
-0.0001475
-4.908e-05
0.0004778
0.0004548
-0.001091
-0.0004797
0.001571
-0.0007446
-4.036e-05
0.0006033
-0.001119
0.0005161
0.05081
0.009657
-0.06046
-0.002316
0.0007871
0.001529
3.255e-07
2.363e-06
-2.688e-06
0.001037
0.003067
0.7438
-1.067
0.3227
0.001388
-0.0002291
-0.003304
0.003163
0.0001419
-0.001963
-0.0006175
0.00258
1.07
0.4471
-0.02389
0.7677
-5.188e-07
-5.35e-07
1.054e-06
0.02071
0.005704
0.0004773
-0.0008882
0.0004109
-0.0009213
0.0009358
-1.449e-05
-0.000164
0.0002188
-5.485e-05
-0.006703
-0.002165
0.003525
0.005196
-0.008721
0.0004805
-0.000255
-5.515e-05
-0.004887
0.004942
0.0009998
-0.000846
-0.0001538
-0.1497
-0.2015
0.3512
1.051
-0.04549
-1.006
-0.003639
-0.0004196
0.004058
0.0004849
0.01185
-0.0001571
0.0006522
-0.003962
0.001999
0.0003668
-0.000416
4.916e-05
-0.003153
0.001034
0.002119
0.0001984
0.000141
-0.0003395
-0.02197
0.02104
0.006178
-0.0142
-1.12
-0.3845
1.505
-0.0001915
0.0003709
-0.0001794
0.02001
0.007851
-0.00128
0.0009339
0.0003458
7.313e-08
-0.002105
0.0005892
0.001516
-0.003902
0.002435
-0.0007267
0.001912
1.253
-0.2777
-0.001666
0.001893
-0.0002272
-0.0004275
-0.0007213
0.001149
-2.833e-05
3.009e-05
-1.749e-06
0.001558
0.007291
-0.008848
-0.002867
-0.001529
0.004397
0.000976
0.0004893
-0.0002596
0.0008108
0.001126
0.001104
2.401e-05
-0.0001749
0.0001508
-0.002817
-0.002131
0.004949
0.0005848
-0.0007685
0.001289
-0.00225
0.0009607
-0.003117
0.000186
-0.0001394
0.00285
0.002438
-0.004964
0.002526
-5.002e-07
5.002e-07
-0.0004205
-0.002884
-0.06815
0.02193
0.0001247
-0.00118
0.001055
7.634e-05
0.0002131
-0.0002894
5.104e-08
0.001213
-0.001213
0.1003
0.3737
-0.474
3.508e-06
6.389e-06
-9.897e-06
0.001667
-0.006929
0.0008775
0.0002566
-1.51
0.5249
6.777e-06
1.614e-05
0.0006397
-0.0001153
0.0007771
-0.0009209
0.0001438
-0.3865
-0.6349
1.021
-8.275e-05
0.0006861
-2.375e-05
2.989e-05
-6.138e-06
-0.0003029
0.0009785
-0.0006756
-0.0003704
0.001556
-0.001185
-1.193
0.8069
0.001459
-0.0009279
-0.0005308
3.472e-06
-2.706e-06
-7.661e-07
-0.0004292
0.0006993
-0.0002701
0.003933
-0.003729
-0.0002038
-0.1592
0.06612
0.09312
-0.001519
-0.0003618
0.0008934
-0.0006817
-0.0002117
-0.1644
0.1697
-0.005305
0.002302
0.0004769
-0.002779
-0.003253
0.003105
0.0001483
-0.001344
0.0002525
0.0005122
0.0002909
-0.002333
0.003002
-0.002405
0.0003005
-4.066e-05
-0.0006345
0.0006752
0.0001163
-0.0002991
0.2803
0.5836
-0.8639
0.001146
0.0003126
0.002861
-0.004025
0.001164
0.0002288
-0.0002325
3.713e-06
-0.0002098
-0.0008961
-0.01671
0.0127
0.004013
0.002688
-0.0003028
-8.458e-05
-0.0002995
1.022
-0.7417
-8.792e-05
0.0005968
0.0001293
0.000201
-0.0009987
-0.0004295
0.001428
-1.299e-07
1.416e-07
0.0005387
-0.001537
9.128e-06
1.32e-05
-0.002226
-0.000505
0.002731
-0.0001691
0.0001056
6.351e-05
-0.003713
0.001011
0.002702
0.1725
1.022
8.664e-08
-8.666e-08
-0.0003207
-0.0004418
0.0007625
-0.0007445
0.001626
2.249e-05
-1.996e-05
-2.528e-06
0.0001698
-0.0002984
0.0001285
-7.067e-07
1.939e-05
-1.868e-05
0.0004841
-7.044e-05
-0.0004137
-0.000713
0.000617
0.5568
0.8389
-0.001492
-0.004671
0.006164
-0.003815
0.001094
0.002721
-1.498
0.3773
0.0002331
-0.0004143
0.0001812
0.000219
0.0009553
0.001877
-0.0007116
0.0006615
0.0001825
-0.000844
0.1376
-1.02
0.8821
-0.0001921
0.002511
-2.861e-05
1.33e-05
1.531e-05
-0.2768
-0.7163
0.8539
0.006675
0.004419
0.004982
-0.005598
0.0006164
-0.001099
-0.001421
2.35e-05
1.07e-06
-2.456e-05
0.001177
-0.00095
-0.000227
1.505e-05
-1.624e-06
-1.343e-05
-0.003529
0.0008933
0.002636
-0.003365
0.003413
-4.783e-05
-0.7989
-0.2676
0.001152
-0.0002853
-0.0008667
0.0001472
-6.786e-05
-7.936e-05
0.0005952
-0.0004852
-0.00011
0.0001915
-0.0003805
0.0008589
-0.001243
1.084
0.08491
-1.169
0.275
-0.2138
0.07047
-0.1294
0.05893
0.0002928
-6.858e-05
-0.0002242
0.04397
-0.8429
0.03104
-0.01956
-0.01148
-4.666e-05
9.016e-05
-4.35e-05
-0.0007924
-0.0009595
0.001752
0.0003611
0.0001975
-0.0005586
-0.2175
0.8466
-0.6291
0.0001234
-5.405e-05
-6.936e-05
-0.0003634
0.002058
-0.001695
-0.2414
-0.01485
0.2562
0.0004685
0.0005107
0.6884
0.4719
-1.16
-0.0001549
-0.0001492
0.0003042
0.0002382
0.0001014
-0.0003396
-0.001466
0.0007077
0.0007587
-0.0007184
-0.002588
0.003306
5.104e-05
3.172e-05
-8.277e-05
0.1804
-0.04957
-0.1309
-0.0004157
-0.0003452
0.0007609
-0.007435
0.006518
0.0009173
-0.0004736
-0.0001204
2.045e-06
8.373e-07
-2.882e-06
-0.0004623
-0.000525
0.0009873
0.0007111
0.0002556
-0.0009667
-0.01049
-0.00622
0.004442
-0.005013
0.0005709
0.001319
-0.0004143
-0.0009051
0.0003811
-0.0003811
-0.3424
0.1965
0.1458
-0.006393
0.009443
-0.00305
0.0008286
-0.0005114
-0.0003172
-0.0009973
0.001841
-0.0008433
-2.387e-06
2.712e-06
0.0005871
-0.0005266
-6.057e-05
-0.1169
1.201
0.04402
-0.0266
-0.01742
-1.171e-05
-7.016e-06
-0.0005043
2.552e-05
0.0004788
0.0001551
-0.0002014
4.625e-05
-0.001434
0.003237
-0.001803
-8.37e-05
8.37e-05
-0.001629
0.001715
-8.599e-05
-0.0001141
0.0001141
0.001814
-0.0007019
-0.001112
1.059e-05
9.527e-06
-2.011e-05
-0.005643
0.004151
0.0001187
-8.257e-05
-3.615e-05
0.1015
-0.07459
-0.02687
0.00175
-0.001321
-0.0004287
1.093
-1.517
0.4245
1.313
-1.734
0.4211
0.0005924
0.003103
-0.003695
-0.04689
0.09726
-0.05037
-0.001379
1.695e-05
0.001362
0.01469
-0.003154
-0.01154
-0.002311
-0.0003357
-0.006642
0.007479
-0.0008375
0.04437
-0.1004
0.05598
-0.001179
0.0001038
0.001075
0.0005729
0.0008215
-0.001394
0.2536
-0.008164
-0.01211
0.01122
0.0008968
-0.0002777
0.0003335
-5.577e-05
0.09279
-0.04842
-0.0006779
0.0003653
0.0003126
5.593e-05
-5.594e-05
7.977e-05
-8.312e-05
3.341e-06
0.0007785
-0.002402
0.001624
-0.0005111
1.088e-05
0.0005002
0.003861
-0.004823
0.0009617
9.167e-06
-9.132e-06
-2.48e-08
-0.3337
0.1199
0.2138
-0.002269
0.0004718
-0.0005921
-0.0006876
-0.05262
0.3508
-0.0004574
0.0004106
-0.001212
0.0001181
0.001094
-0.002174
0.005029
-0.002855
-0.4748
-0.5469
1.022
0.2462
-0.003073
-0.2431
0.01247
-0.007509
-0.004965
4.576e-06
1.392e-06
-5.968e-06
-2.623e-05
-0.001493
0.001519
-5.566e-05
5.571e-05
-0.003327
0.001577
0.00175
0.000449
-0.0001518
-0.0002972
-0.001642
0.001522
0.0001199
7.374e-06
5.82e-06
-1.319e-05
-0.001412
-0.000423
0.001835
-0.41
1.367
-0.9567
-9.179e-05
0.0001305
-3.867e-05
0.008213
-0.001361
-0.006851
-0.3006
1.334
-1.034
-0.0004859
-0.0004465
0.0009324
1.159e-06
-5.776e-07
-5.815e-07
0.00166
0.006889
-0.008549
-0.00175
0.0006768
0.001074
0.005583
-0.003271
-0.002312
0.001005
0.002704
-0.003709
-2.821e-06
-6.052e-06
8.873e-06
8.708e-05
-8.708e-05
0.0007835
0.0003773
-0.001161
-0.09011
-0.05627
-0.4594
0.221
0.2384
0.002402
-0.0008932
-0.001509
-0.0007866
0.0005261
0.0002605
0.0001549
0.0001692
-0.0003241
-0.0009114
0.0004866
0.0004247
-0.0009462
-0.0006597
0.001606
0.0003876
-0.000166
-0.0002215
-0.00288
0.002613
0.0002671
-0.01396
0.02134
-0.007381
0.0001708
0.0002167
-0.03456
-0.01137
0.04593
-0.0005042
-3.696e-05
0.0005411
0.1359
-0.5768
0.4409
0.000521
0.0003574
-0.0008785
2.174e-06
8.948e-07
-3.068e-06
-0.003484
0.004697
-0.001213
0.0006531
-0.0005428
-0.0001104
-0.002279
0.0009948
0.001284
-0.3821
0.09963
0.2825
-0.185
0.05155
0.1335
8.912e-06
-1.894e-05
1.002e-05
0.00666
-0.007129
0.0004693
1.466e-05
-3.146e-05
1.68e-05
0.0005886
-0.001035
0.0004463
1.543e-06
2.065e-06
-3.605e-06
0.0009778
-0.0009549
-2.295e-05
0.001803
-0.0002919
-0.001511
-0.002756
0.002168
0.0005883
0.0002009
-0.001333
0.001132
0.0004574
-0.0004574
-9.269e-05
0.001467
-0.001375
-5.586e-05
0.0004362
-0.0003804
0.0004804
-0.0003889
-9.147e-05
-0.002421
0.003623
-0.001202
0.001132
-0.002039
0.000907
0.0003643
0.001394
-3.772e-05
5.067e-05
-1.297e-05
-1.827e-06
-7.934e-08
1.906e-06
3.593e-06
-1.981e-06
-1.613e-06
-0.002648
0.001137
0.001511
-0.3215
0.4218
0.5925
0.2148
-0.8073
-0.001236
0.001834
-0.000598
5.306e-05
0.0001695
-0.0002225
0.004143
-0.0008328
-0.003311
-0.1892
1.183
-0.994
8.508e-05
0.0003661
-0.0004512
-0.002531
-0.0004802
-0.002265
-0.004787
0.007053
-1.564e-08
5.912e-06
-5.908e-06
0.004447
-0.003921
-0.0005265
-4.123e-05
0.0001771
-0.0001359
0.004377
-0.005183
0.0008052
0.7865
-0.6764
-0.007075
0.002228
0.004847
0.01053
0.0001605
-0.01069
0.0002619
-2.93e-05
-0.0002326
9.794e-05
0.0001655
-0.0002634
-2.39e-05
1.819e-05
5.714e-06
-0.003068
0.001703
0.001365
0.00366
-0.008909
0.00525
0.000314
-0.0007812
0.0004672
-0.0008551
0.001321
-0.0004657
-0.001905
-0.00133
0.003235
0.004695
-0.001838
-0.002857
-0.0003976
-5.163e-05
0.0004492
0.001918
-0.001582
-0.0003352
0.0001453
-0.000112
-3.336e-05
0.0003061
-0.0002289
-7.724e-05
0.2583
-0.3221
0.06382
-2.439e-05
4.444e-06
2.002e-05
2.04e-06
6.886e-06
-8.926e-06
0.003492
-0.0006311
-7.464e-05
0.002066
-0.001992
0.0004922
-4.761e-05
0.01997
-0.119
0.09898
-0.0001763
0.0001764
-0.0004228
0.0004228
-0.1656
-1.044
1.21
1.256
0.2303
-1.486
-0.002261
0.001236
0.001025
0.0007657
-0.003669
0.002904
1.079e-06
-1.324e-06
2.447e-07
-5.941e-06
2.187e-06
3.755e-06
-0.0001934
0.001943
-0.0003792
0.0004957
-0.0001165
0.0003368
5.247e-05
-0.0003893
-0.001103
-0.003422
0.004524
0.003049
0.004516
-0.007565
-0.1835
0.05771
0.1258
0.0003659
-0.0002461
-0.0001198
-0.0005024
-0.0004075
0.0009099
-0.0002292
0.0004546
-0.0002254
-0.003868
0.0009014
0.002967
2.509e-06
-4.822e-06
2.312e-06
0.0004803
-0.0004991
1.879e-05
0.8153
-1.145
0.3294
-0.0005416
0.0005416
2.151e-05
-1.367e-05
-7.839e-06
0.1658
0.561
-0.7269
0.001134
-8.854e-05
-1.282
1.117
0.2402
-0.4217
0.1815
-0.002731
0.001881
0.00085
-0.009918
-0.001469
0.01139
0.0002195
-0.0001177
-0.0001019
0.7765
-0.9417
0.1652
0.001063
-0.000525
-0.0005379
0.4787
-0.1377
-0.3411
0.0007477
-0.001534
0.0007864
-0.01464
0.005136
0.009501
0.01323
-0.01193
-0.001303
0.005341
-0.002809
-0.002532
-0.0002156
-0.0008037
0.001019
-0.0008203
-0.0003732
0.001194
0.0001546
3.612e-05
-0.0001907
0.001624
0.0003346
-0.001959
0.153
0.6458
-0.7988
0.004668
0.06271
-0.06737
-0.005028
0.002504
0.002524
-0.0001646
-0.0008594
0.001024
3.932e-06
-2.401e-05
2.008e-05
0.0003676
-0.000205
-0.0001626
0.0001223
-7.167e-05
-5.066e-05
-0.0002361
-5.249e-05
0.0002886
3.208e-05
-3.212e-05
-0.0009729
0.001679
0.001151
-0.0008214
-0.00033
-0.0006371
0.001695
-0.001058
-0.00114
0.0007113
0.0004287
0.0003301
0.0001918
-0.000522
0.009114
-0.00893
-0.0001844
0.01304
-0.005596
-0.007441
0.4948
-0.3681
-0.1268
-0.001001
0.001096
-9.501e-05
-1.007e-05
7.294e-06
2.78e-06
-0.0007008
4.378e-07
0.0007004
0.4961
-1.096
0.5995
-1.493e-05
2.906e-05
-1.413e-05
0.004696
-0.002488
-0.002209
-0.002244
0.0005877
0.001657
0.001206
-0.0005553
-0.0006508
-0.0003306
0.001578
-0.001247
0.00127
0.005788
-0.007058
0.0005825
-0.000683
0.0001006
-0.001493
-0.002966
0.004459
-0.001099
-0.001145
2.163e-06
4.736e-06
-6.898e-06
-0.0006318
-0.0001033
0.0007351
-8.608e-07
2.906e-06
-1.177
0.5406
0.6366
0.002024
-0.003918
0.001894
-0.0009276
0.0003378
0.0005898
0.1269
0.0543
-0.1812
-0.001068
0.000287
0.0007806
0.0007154
0.0001808
-0.0008962
-1.242
1.242
0.001324
0.001846
-0.00317
3.901e-06
-2.023e-06
-1.877e-06
0.06193
-0.04872
-0.01321
0.00912
-6.017e-06
-0.005547
0.005522
2.542e-05
4.738e-05
-3.538e-05
-1.2e-05
0.0105
-0.008246
-0.002253
-1.274
0.5255
0.7481
0.000725
-0.001165
0.00044
-0.0001933
0.0004796
-0.0002863
0.4051
-0.2585
-0.1466
-0.01151
0.009148
0.002364
2.234e-05
-0.03367
0.03365
-0.002002
-0.001116
0.003118
-0.0006321
-0.0002241
0.0008563
-0.001326
-0.0006166
0.001942
-0.05226
-0.05614
0.1084
-5.252e-07
4.446e-06
-3.921e-06
1.181e-07
5.278e-06
-5.396e-06
0.0002497
0.000855
0.0004017
-0.00148
0.001079
-0.002435
0.003917
-0.001482
8.032e-05
3.84e-05
-0.3939
1.247
-0.8533
0.0002865
-0.001325
0.001038
0.353
-0.008398
-0.3446
0.0007572
-0.001022
0.0002646
-0.0005189
0.0004093
0.0001095
0.0007169
0.0009459
-0.001663
0.0003531
0.000853
1.307e-06
3.663e-07
-1.674e-06
0.0002868
-0.0003142
2.741e-05
-0.5591
0.2205
0.3386
-8.751e-06
8.751e-06
-9.887e-05
7.639e-05
2.25e-05
7.688e-05
-0.000346
0.0002691
-0.001603
-0.0002035
0.001806
-0.0006343
0.0008702
-0.002489
-0.002416
0.004905
0.01302
-0.01186
-0.001159
-0.0004465
0.0003658
8.076e-05
0.001869
-0.001296
-0.0005728
-0.004196
0.02311
-0.01891
1.754e-05
-1.754e-05
-0.0001131
0.0001376
-2.452e-05
-0.001002
0.0004359
0.0005662
0.0005329
0.0002186
-0.0007515
0.001517
-0.001255
-0.0002618
-3.238e-05
0.0001024
-7.005e-05
2.898e-05
-2.298e-05
-6.001e-06
-2.281e-05
-1.994e-05
4.276e-05
0.001997
-0.001457
-0.0005398
0.0006145
-0.0001695
-0.000445
0.001152
-0.003975
0.002823
-0.0004393
-0.0005493
0.0009886
-0.001329
0.0007009
0.0006285
-0.008558
-0.0002046
0.008763
3.702e-05
-3.714e-05
-0.01929
0.005903
0.01338
0.0008372
0.0003408
-0.001178
-0.005569
0.01379
0.0008381
-0.001151
0.0003131
-1.264
0.5118
0.7522
0.55
-0.7849