/*--------------------------------*- C++ -*----------------------------------*\
  =========                 |
  \\      /  F ield         | OpenFOAM: The Open Source CFD Toolbox
   \\    /   O peration     | Website:  https://openfoam.org
    \\  /    A nd           | Version:  8
     \\/     M anipulation  |
\*---------------------------------------------------------------------------*/
FoamFile
{
    version     2.0;
    format      ascii;
    class       volVectorField;
    location    "50";
    object      U;
}
// * * * * * * * * * * * * * * * * * * * * * * * * * * * * * * * * * * * * * //

dimensions      [0 1 -1 0 0 0 0];

internalField   nonuniform List<vector> 
127143
(
(0.006049 -0.0002642 0)
(-0.0001761 -0.0008122 5.248e-24)
(-2.761e-05 -0.0001339 -1.036e-23)
(-2.836e-05 -0.0001065 -1.961e-27)
(0.05246 0.007013 -1.147e-20)
(-2.136e-05 -8.338e-05 8.072e-28)
(0.3035 0.1811 0)
(0.1258 0.0572 -1.026e-20)
(0.08546 0.04182 4.799e-20)
(0.0838 0.001396 0)
(0.4457 0.6312 1.415e-20)
(0.2108 0.1377 3.006e-20)
(-0.0006409 0.0002425 2.054e-24)
(-2.239e-05 -6.807e-05 0)
(-0.3729 0.652 3.02e-21)
(0.1294 -0.01018 0)
(-0.0002339 -0.001023 1.697e-23)
(0.9799 -0.1094 -4.216e-21)
(0.9825 -0.2157 0)
(0.1287 -0.004453 0)
(1.277 -0.3017 1.274e-20)
(-0.01936 0.006829 0)
(0.8514 -0.0922 0)
(0.8848 -0.08475 0)
(-0.01912 0.006996 1.174e-22)
(0.6783 -0.11 0)
(0.5279 -0.01265 2.583e-20)
(0.5193 0.006456 -4.106e-22)
(0.343 -0.1534 0)
(0.9898 -0.08496 6.303e-21)
(0.7662 -0.05141 0)
(0.6562 -0.1053 2.256e-21)
(0.3987 0.09929 1.289e-20)
(0.3781 -0.101 -9.553e-21)
(0.7794 0.04828 4.791e-20)
(0.3275 0.09115 -3.313e-23)
(0.09299 -0.02921 2.465e-21)
(1.386 -0.2059 -9.484e-21)
(0.9234 -0.08712 4.428e-22)
(0.4714 -0.02785 1.176e-24)
(0.9811 -0.2146 0)
(1.632 0.6789 -2.801e-20)
(1.585 0.6716 2.244e-20)
(-0.001315 0.0004256 0)
(0.9795 -0.107 3.882e-21)
(0.3896 -0.1039 3.12e-21)
(0.3539 -0.161 0)
(0.32 -0.0811 -8.293e-22)
(0.8757 -0.1495 -8.311e-22)
(0.9063 -0.07641 2.119e-22)
(0.1494 -0.01042 7.018e-23)
(0.9186 0.004765 1.33e-19)
(1.546 -0.1677 0)
(1.42 -0.03854 -1.895e-20)
(0.9988 -0.002455 5.914e-20)
(0.7646 -0.1926 1.408e-21)
(0.9988 -0.002443 -5.319e-20)
(0.9503 -0.07923 0)
(1.014 -0.01755 -2.723e-20)
(1.422 -0.03403 -3.751e-20)
(0.3061 0.3087 -7.499e-20)
(1.029 -0.2284 -9.19e-22)
(0.9682 -0.0756 -9.035e-22)
(1.001 0.0006194 1.864e-19)
(0.9627 -0.08563 0)
(0.6798 -0.133 -2.656e-20)
(1.273 0.104 8.713e-20)
(0.9662 -0.07778 0)
(0.9667 -0.07767 -2.487e-22)
(0.9988 -1.128e-05 0)
(0.8465 -0.07001 0)
(0.556 0.001476 -1.22e-20)
(0.7191 -0.1609 2.884e-21)
(1.015 -0.0174 -1.477e-20)
(1.007 0.003784 -5.304e-23)
(0.5548 0.01125 1.29e-20)
(1.047 0.049 -1.15e-19)
(0.4075 -0.1385 0)
(0.7727 -0.1953 -2.771e-21)
(1.001 0.001366 0)
(0.3703 -0.1623 -4.371e-24)
(0.1498 -0.008339 -1.911e-23)
(0.5233 -0.1379 3.807e-21)
(0.5459 -0.03791 0)
(0.2559 -0.07382 -2.897e-22)
(0.4024 -0.1197 0)
(0.9409 -0.09482 1.066e-21)
(0.584 0.03683 7.402e-21)
(0.6803 -0.1299 0)
(2.101 1.191 0)
(0.9742 -0.01978 0)
(1.216 -0.1945 0)
(2.049 1.163 0)
(1.281 -0.299 -1.28e-20)
(1.141 -0.2234 0)
(0.9624 -0.06525 -1.623e-20)
(1.628 0.6625 6.08e-20)
(0.7001 -0.05542 0)
(0.7981 -0.2345 2.716e-21)
(1.271 0.1108 0)
(1.001 0.001319 0)
(0.8768 -0.1498 0)
(1.934 1.767 -4.584e-21)
(0.9316 -0.1021 0)
(0.417 -0.1211 -4.198e-22)
(0.7708 -0.2291 3.753e-21)
(0.89 -0.134 4.51e-21)
(0.9987 -3.827e-07 0)
(0.4422 -0.08606 0)
(1.001 -0.001821 8.422e-20)
(-0.3666 0.6367 -1.017e-21)
(0.6054 0.0415 1.474e-20)
(1.259 -0.2744 -9.549e-21)
(0.2827 1.373 0)
(1 0.0231 -6.502e-22)
(0.8802 -0.1294 1.18e-21)
(1.022 0.0744 1.845e-20)
(1.007 0.004019 -1.06e-19)
(1.046 0.04751 9.184e-20)
(-0.0005882 -0.001828 0)
(1.001 -0.001938 -1.179e-19)
(0.378 -0.04017 -1.609e-21)
(0.5704 -0.182 0)
(0.9403 -0.08181 -9.704e-21)
(0.3705 -0.1638 1.543e-21)
(0.5867 -0.08167 3.748e-21)
(1.083 -0.2975 0)
(1.053 -0.01112 1.681e-19)
(1.643 -0.1238 -2.516e-21)
(0.7111 -0.2012 -2.653e-21)
(0.4698 -0.1194 0)
(0.9571 -0.2356 -4.661e-21)
(0.9546 -0.08691 3.506e-21)
(0.4105 -0.1381 0)
(-0.0003473 -0.001771 8.993e-23)
(0.4867 -0.1223 -1.583e-21)
(1.057 -0.08124 0)
(1.297 -0.273 4.397e-21)
(0.2018 -0.106 -2.116e-20)
(1.107 -0.07831 9.923e-21)
(0.8085 -0.1067 4.864e-20)
(1.006 0.0604 -2.297e-20)
(1.475 -0.1997 8.239e-22)
(1.343 -0.2532 -1.017e-20)
(1.545 -0.1673 -3.836e-21)
(1.99 0.5948 1.481e-20)
(-0.3343 1.643 -2.847e-21)
(1.001 0.0005405 -1.691e-19)
(0.9383 -0.2289 3.693e-21)
(2.091 1.741 -1.993e-21)
(0.9389 -0.09746 2.176e-21)
(0.8525 -0.1622 0)
(1.393 -0.1936 3.149e-20)
(0.6982 -0.001269 0)
(-0.09452 0.2404 0)
(0.2713 -0.07561 0)
(0.9506 -0.07882 2.288e-21)
(0.606 -0.2068 0)
(0.3271 -0.08468 -1.694e-21)
(0.6853 -0.05984 -2.846e-22)
(0.8385 -0.05946 0)
(0.1733 -0.08461 3.38e-20)
(0.9749 -0.02047 2.514e-21)
(0.4697 -0.1162 -3.72e-21)
(0.6775 -0.1769 0)
(1.041 -0.09647 8.945e-21)
(0.0943 -0.01524 -1.321e-21)
(0.4411 -0.02573 4.668e-20)
(2.105 0.4715 -5.803e-21)
(0.9675 0.1328 -2.645e-21)
(-0.02899 0.007985 0)
(1.342 -0.2538 5.005e-21)
(0.8681 -0.1365 3.79e-21)
(0.7069 -0.1813 -1.117e-20)
(0.9955 -0.002868 1.197e-20)
(0.0262 -0.01914 -3.07e-24)
(1.969 0.7387 -3.02e-21)
(1.642 -0.1249 -2.516e-21)
(0.912 -0.09262 0)
(1.011 -0.03013 1.129e-20)
(0.7056 -0.1814 -3.767e-21)
(0.9701 -0.04001 0)
(0.02319 -0.0205 -7.311e-23)
(0.02685 -0.01942 3.152e-24)
(0.7108 -0.2024 5.344e-21)
(1.032 -0.2278 2.061e-21)
(1.361 0.4247 -3.237e-20)
(0.3157 1.391 4.639e-21)
(0.8939 -0.08647 9.115e-22)
(1.028 -0.04111 5.033e-20)
(1.534 -0.1888 2.564e-21)
(1.516 -0.1811 -1.014e-20)
(1.058 -0.08057 5.335e-20)
(0.7048 1.917 7.13e-21)
(-0.0002319 -0.001886 -1.505e-22)
(1.158 -0.2989 0)
(1.006 -3.934e-06 0)
(0.9942 -2.604e-06 1.173e-21)
(0.03943 0.00123 0)
(0.9969 0.03518 1.228e-21)
(1.022 0.00673 7.794e-20)
(0.9137 0.08944 1.2e-19)
(1.002 -0.05158 -3.278e-21)
(0.103 -0.03224 -1.237e-21)
(-2.153e-05 -3.28e-05 -2.26e-24)
(0.962 -0.06893 -7.029e-22)
(0.8972 -0.06412 1.94e-20)
(0.8687 -0.1415 -1.214e-21)
(0.9924 -0.08509 -3.482e-21)
(1 0.02252 5.442e-22)
(1.099 -0.1559 1.3e-20)
(0.1471 -0.05048 -1.08e-22)
(0.9771 8.49e-05 3.422e-20)
(2.133 0.4828 -5.874e-21)
(0.3905 -0.09812 -1.541e-23)
(0.07964 -0.004046 0)
(-0.05086 0.0179 4.273e-23)
(0.8464 -0.1511 6.038e-21)
(0.9902 -0.2816 -7.555e-21)
(0.8991 -0.06391 4.707e-21)
(1.947 0.732 -6.928e-21)
(1.004 0.009419 6.45e-20)
(0.8535 -0.1624 -9.612e-22)
(1.551 -0.1586 3.791e-21)
(0.6475 -0.05592 0)
(-0.03972 0.01301 0)
(0.7173 -0.1868 -3.119e-21)
(1.387 -0.2035 1.13e-20)
(-0.02352 0.009352 1.53e-22)
(0.957 -0.2848 4.901e-21)
(1.284 -0.2698 7.2e-21)
(0.9689 -0.03956 3.913e-20)
(0.7703 -0.1708 -5.762e-21)
(-0.0009228 0.001715 0)
(1.287 -0.2733 0)
(0.9363 -0.07313 -1.271e-20)
(0.4706 -0.1154 1.846e-21)
(0.01626 -0.002587 -9.897e-23)
(1.022 0.006396 -7.143e-20)
(1.513 -0.1928 1.16e-20)
(1.531 -0.182 7.454e-21)
(1.3 -0.07964 -1.112e-20)
(0.1031 -0.02802 -4.396e-23)
(0.6095 -0.207 -9.27e-24)
(1.511 -0.1501 0)
(-0.0005408 -0.00193 7.356e-27)
(0.8385 -0.1608 5.546e-21)
(0.5129 -0.001306 0)
(-0.02305 0.009111 1.808e-21)
(1.001 -0.0002478 -2.622e-21)
(1.82 0.4258 -5.096e-20)
(0.6495 -0.07181 -1.743e-21)
(0.7936 -0.1689 0)
(1.33 -0.2715 0)
(0.7926 -0.1878 3.894e-21)
(0.464 -0.1009 0)
(1.051 -0.01155 -1.321e-19)
(2.282 0.6737 0)
(0.761 -0.1687 0)
(1.027 0.4533 -1.125e-20)
(1.242 -0.2802 -7.012e-21)
(0.9551 -0.03128 -3.568e-20)
(1.216 -0.1913 7.068e-22)
(1.004 0.05976 1.418e-20)
(1.587 -0.1201 0)
(1.193 -0.08358 -3.806e-21)
(0.247 -0.08884 2.496e-21)
(-0.1387 0.2556 0)
(0.2998 0.1134 8.744e-20)
(1.525 -0.09061 -1.503e-20)
(0.7544 -0.1405 0)
(0.995 -0.002927 -1.411e-20)
(0.401 -0.1198 -1.315e-21)
(1.513 -0.1936 -1.07e-20)
(0.967 -0.07251 -1.571e-21)
(1.532 -0.1878 -1.042e-20)
(1.265 -0.2771 0)
(0.8952 -0.1381 -4.921e-21)
(0.9935 -0.006442 -1.242e-21)
(0.6899 -0.1717 1.104e-20)
(0.9992 -0.001137 3.22e-21)
(0.9605 -0.06477 -2.511e-22)
(0.9318 -0.1017 7.833e-24)
(0.9909 0.01275 0)
(1.011 0.01749 3.857e-20)
(-0.0008892 -0.002061 2.156e-23)
(0.5314 -0.1632 0)
(1.002 0.02449 -2.892e-21)
(0.911 -0.1253 -2.62e-21)
(1.01 -0.03021 1.701e-20)
(1.389 -0.1934 -4.796e-20)
(0.8246 -0.1241 0)
(0.9354 -0.07326 1.293e-20)
(0.8455 -0.1459 0)
(0.9752 -0.00965 -3.16e-20)
(0.4137 -0.09631 -1.648e-21)
(0.8011 -0.0673 -5.91e-22)
(-0.00471 -0.01774 6.186e-23)
(0.1027 -0.02836 1.62e-22)
(1.523 -0.08905 1.016e-20)
(0.7702 -0.08918 5.88e-22)
(0.7453 -0.1379 -4.895e-21)
(0.5842 -0.07955 -3.1e-20)
(0.88 -0.129 -1.155e-20)
(0.6145 -0.04552 0)
(0.1378 0.01371 1.003e-24)
(0.8691 -0.1412 -4.022e-22)
(0.9764 0.0003325 0)
(1.13 -0.2555 3.104e-23)
(0.9408 -0.09701 2.367e-21)
(0.8952 -0.1321 4.888e-21)
(-0.006018 -0.009231 1.361e-23)
(0.7846 -0.1879 0)
(0.999 -0.001195 2.299e-21)
(0.9866 0.01746 -3.242e-20)
(2.112 0.7917 2.931e-21)
(1.406 -0.207 4.79e-21)
(0.7551 -0.08334 -1.193e-21)
(1.241 -0.1554 3.508e-20)
(1.003 -0.02463 1.036e-21)
(0.851 -0.09064 0)
(0.8057 -0.06016 6.365e-22)
(1.088 -0.0236 3.483e-20)
(0.7943 -0.1688 3.068e-21)
(2.116 0.7906 0)
(1.467 -0.1829 -1.13e-20)
(0.8505 0.05612 8.346e-20)
(0.007373 -0.01383 -1.147e-23)
(0.8037 -0.0447 -1.532e-22)
(1.925 0.8709 2.244e-20)
(0.9482 -0.2125 0)
(1.012 0.01714 -3.353e-20)
(0.7852 0.0425 -1.74e-19)
(1.006 6.031e-06 0)
(0.9939 5.904e-06 0)
(0.701 0.003325 0)
(0.4569 -0.09444 -1.057e-20)
(0.8675 -0.1364 3.841e-21)
(0.9455 -0.2089 -6.031e-22)
(0.5647 -0.1076 -1.666e-20)
(1.103 -0.07673 -4.382e-20)
(0.8469 -0.151 0)
(1.532 -0.169 3.268e-21)
(1.531 -0.1863 2.916e-21)
(-0.04941 0.7706 -7.225e-22)
(0.9104 -0.1244 1.745e-21)
(0.6547 -0.169 -3.337e-21)
(1.305 -0.2493 3.778e-21)
(0.8043 -0.09738 1.055e-21)
(1.688 -0.09493 0)
(0.8137 -0.09362 -7.889e-22)
(1.034 -0.2223 3.986e-21)
(0.02626 -0.015 1.757e-23)
(1.532 -0.1868 9.388e-21)
(0.9441 0.1556 0)
(0.5989 -0.1155 -9.219e-21)
(1.329 -0.2725 -5.662e-21)
(1.961 0.5238 -1.268e-20)
(1.005 -0.01318 1.358e-20)
(0.7913 -0.04376 0)
(0.5218 -0.1589 -2.102e-21)
(0.9677 -0.07545 -2.765e-22)
(1.021 -0.1667 -9.936e-21)
(0.9037 -0.06935 0)
(0.911 -0.07986 6.49e-22)
(1.004 0.003896 9.778e-22)
(0.9969 0.03432 -4.347e-21)
(0.9789 -0.01488 0)
(0.6025 -0.1086 3.359e-21)
(0.9907 -0.006211 0)
(0.132 0.4063 7.573e-20)
(1.087 -0.02599 -7.035e-20)
(0.704 -0.07958 1.518e-21)
(0.8963 -0.07021 -6.375e-22)
(1.029 -0.04 0)
(1.211 -0.1021 -7.036e-22)
(0.8445 -0.08377 -6.913e-22)
(-0.006726 0.005196 7.586e-27)
(0.7926 -0.2465 -5.579e-21)
(0.9968 -0.007117 1.226e-21)
(1.111 -0.2208 -4.62e-20)
(0.6279 -0.08184 -3.63e-21)
(0.8295 -0.1034 0)
(0.7418 -0.1393 -1.835e-20)
(1.022 0.07184 0)
(0.2601 -0.0206 0)
(1.098 0.2628 0)
(0.4903 -0.03029 0)
(1.163 -0.3055 -1.877e-21)
(1.251 -0.2376 -4.167e-20)
(1.016 -0.01476 -7.89e-20)
(0.5608 -0.02682 0)
(-0.03507 0.01188 2.765e-23)
(0.7764 -0.1924 4.19e-21)
(0.8911 -0.08336 -1.302e-21)
(0.779 -0.05746 -5.024e-22)
(0.5658 -0.03266 -2.5e-20)
(0.7908 -0.05262 0)
(0.9389 0.1542 0)
(0.9548 -0.03018 0)
(0.5467 -0.04342 1.974e-22)
(1.004 0.008971 -2.414e-20)
(1.309 -0.2818 0)
(0.02547 -0.02119 0)
(1.108 0.261 0)
(0.9272 -0.1073 -2.195e-21)
(0.4645 -0.132 -1.936e-21)
(0.9501 -0.09077 -2.763e-21)
(1 0.00148 -2.484e-20)
(0.9233 -0.09448 0)
(0.4224 -0.1327 0)
(0.8046 -0.114 2.7e-21)
(0.8106 -0.106 -5.21e-20)
(0.4487 -0.08557 0)
(0.5701 -0.1792 0)
(1.166 -0.2273 -4.426e-21)
(0.8514 -0.284 -7.078e-21)
(0.7273 -0.1386 0)
(1.46 -0.158 8.97e-21)
(0.5075 -0.1861 -5.164e-21)
(0.09909 -0.01716 0)
(-0.07862 0.02747 -5.213e-21)
(0.4085 -0.1164 0)
(1.002 -0.0001696 9.327e-22)
(0.9421 -0.2798 -5.088e-21)
(1.153 0.4702 2.321e-20)
(1.564 0.6541 9.634e-22)
(0.7812 -0.07724 -3.175e-20)
(1.363 -0.1003 1.387e-20)
(0.8721 -0.07113 -1.658e-20)
(1.005 -0.0005108 0)
(0.3833 -0.1042 0)
(0.02005 -0.01246 0)
(1.085 -0.1721 7.68e-20)
(1.674 -0.02023 1.574e-21)
(1.004 0.003756 -2.94e-20)
(0.8954 -0.1281 -4.98e-21)
(0.7083 -0.1429 -8.002e-21)
(0.9208 0.005081 -4.917e-20)
(0.9752 -0.008786 0)
(0.9924 0.001313 -9.792e-21)
(0.9171 -0.07793 -3.043e-22)
(1.054 -0.08431 -1.744e-20)
(0.4536 -0.1022 2.067e-20)
(0.9787 0.09435 0)
(0.7175 -0.05627 2.98e-23)
(0.9819 0.01961 7.954e-20)
(0.01555 0.05833 0)
(0.9817 -0.01488 1.064e-21)
(0.1474 -0.04987 -1.487e-22)
(1.118 -0.1966 0)
(0.8626 -0.107 -1.007e-23)
(0.9276 -0.1066 6.352e-21)
(0.6281 -0.1095 2.057e-20)
(0.8956 0.2602 -2.081e-21)
(0.1095 -0.03837 -3.761e-22)
(0.7695 -0.09223 5.724e-22)
(1.549 -0.07991 0)
(0.1472 -0.043 0)
(1.444 -0.1522 7.626e-21)
(0.9542 -0.08669 -1.111e-21)
(1.612 -0.1231 6.644e-21)
(1.237 -0.2523 0)
(0.3592 1.278 1.229e-20)
(1.613 -0.1243 -8.86e-24)
(0.998 -0.002493 0)
(1.027 0.03834 0)
(1.417 -0.2441 0)
(0.5851 -0.1695 3.145e-21)
(0.9945 -0.0003405 0)
(0.9487 -0.2631 3.252e-21)
(1.252 -0.1816 2.361e-20)
(0.9408 -0.08114 1.448e-20)
(1.404 -0.2061 -1.654e-21)
(0.9086 -0.05609 2.519e-20)
(1.005 -0.0002857 0)
(-0.1605 0.374 -2.221e-20)
(1.252 -0.179 -2.768e-20)
(-0.01058 0.003109 -3.188e-22)
(1.521 -0.1621 7.822e-22)
(0.2231 -0.1167 1.547e-21)
(-0.001088 0.08419 -1.697e-20)
(1.136 -0.1649 2.568e-21)
(0.7823 -0.1879 0)
(0.4274 -0.1242 0)
(1.671 -0.02036 -1.683e-21)
(1.506 -0.1629 -6.866e-22)
(1.017 -0.001171 7.763e-20)
(0.7278 -0.06437 4.411e-22)
(0.9679 0.05102 4.434e-20)
(2.075 0.7931 9.466e-22)
(0.9451 -0.09517 -9.517e-22)
(1.558 -0.1636 0)
(1.989 0.5617 6.686e-21)
(-3.734e-05 -1.593e-05 0)
(0.3861 -0.1009 4.333e-21)
(0.1861 1.025 -5.89e-22)
(0.949 -0.06272 -5.746e-24)
(1.636 1.193 2.889e-20)
(0.9812 0.004348 -1.606e-19)
(0.228 -0.1197 0)
(1.028 0.0379 1.375e-22)
(0.07007 -0.01941 0)
(1.161 -0.2971 -8.081e-21)
(-0.0002128 -0.001159 0)
(-0.002798 -0.008975 -1.148e-22)
(-0.004583 0.001469 4.018e-23)
(0.999 -0.0001975 -6.716e-20)
(0.6023 -0.111 0)
(1.816 0.07364 0)
(0.9872 0.01731 6.03e-20)
(0.7458 -0.1983 3.582e-21)
(0.5686 -0.1839 1.903e-20)
(0.3809 -0.1334 1.902e-21)
(0.9037 -0.1205 0)
(1.097 -0.1916 0)
(0.8567 -0.1051 8.943e-22)
(0.9538 -0.2657 -3.256e-21)
(0.3195 -0.05813 1.817e-21)
(0.9992 -0.002287 0)
(0.09542 -0.03935 1.962e-22)
(-0.01434 0.005065 0)
(0.4934 -0.186 3.507e-21)
(0.7665 -0.0756 -2.472e-22)
(-0.02709 0.007212 -3.924e-23)
(1.015 -0.01668 -2.43e-20)
(0.939 -0.09726 2.372e-21)
(1.004 -0.05125 -1.614e-21)
(1.236 -0.2511 1.407e-20)
(0.9936 -0.01508 0)
(0.683 -0.05445 0)
(2.122 0.9784 0)
(-0.03282 0.01217 -1.754e-22)
(0.9927 6.071e-05 0)
(1.416 -0.2448 -4.532e-21)
(0.9228 -0.08246 1.316e-20)
(-0.01967 0.003474 -1.315e-25)
(0.3854 -0.1125 8.862e-21)
(1.927 0.5593 1.882e-21)
(1.193 -0.2577 -4.117e-21)
(0.9571 0.04423 3.511e-21)
(0.01794 -0.008046 -4.364e-22)
(0.5429 -0.1616 -1.097e-20)
(0.9944 -0.0003405 8.66e-21)
(0.7436 -0.1395 2.443e-20)
(1.446 -0.1609 -4.349e-20)
(0.8272 -0.07262 4.61e-22)
(0.9098 -0.06891 -2.986e-22)
(0.5599 -0.1618 -3.411e-21)
(0.3304 -0.1178 2.087e-22)
(1.163 -0.3028 4.176e-21)
(1.588 -0.06666 0)
(0.5258 -0.187 4.924e-21)
(0.2916 -0.06871 0)
(0.396 -0.106 9.554e-23)
(1.027 -0.01169 -1.187e-20)
(0.5236 -0.03144 -3.878e-23)
(0.6364 -0.2173 -3.501e-21)
(0.7992 -0.1196 -2.831e-21)
(0.9398 -0.09956 3.386e-21)
(0.1459 -0.04151 4.012e-22)
(1 0.002874 0)
(1 0.003821 2.385e-21)
(1.031 0.4338 1.871e-20)
(0.6425 -0.1668 -1.663e-21)
(1.619 1.264 0)
(0.9858 0.02038 -4.169e-20)
(1.004 2.558e-06 -8.057e-22)
(0.5611 -0.1553 0)
(0.4363 -0.1782 0)
(0.4139 -0.08194 5.885e-22)
(0.4253 -0.1242 0)
(-0.03008 0.0141 4.484e-21)
(0.02076 -0.009101 0)
(0.8053 -0.1549 -4.226e-21)
(1.04 0.04416 0)
(0.9974 -0.0009603 1.463e-20)
(-0.02598 0.009707 3.097e-22)
(0.9317 -0.2264 -2.971e-21)
(0.7949 -0.1717 8.706e-21)
(1.001 -0.002609 2.61e-20)
(0.5475 0.004201 6.27e-21)
(0.9452 -0.09382 0)
(0.6354 -0.1491 5.13e-21)
(0.9976 -0.006758 3.236e-21)
(0.7019 -0.08917 -1.675e-22)
(0.9853 0.02009 7.765e-20)
(0.491 -0.1373 -3.878e-22)
(0.03294 -0.02518 0)
(1.22 -0.2407 5.701e-22)
(0.9966 1.813e-05 6.432e-22)
(0.3279 -0.09796 -1.828e-21)
(1.242 -0.2772 -1.75e-21)
(0.2266 -0.1197 -2.359e-20)
(1.005 -0.0002582 -3.352e-21)
(0.8893 -0.1338 -4.709e-21)
(-0.05032 0.01777 -1.957e-23)
(0.9924 0.001057 0)
(0.927 -0.1073 0)
(0.995 0.02605 -5.134e-22)
(0.9475 -0.07199 -5.161e-22)
(1.487 -0.1761 0)
(0.9908 0.01228 4.04e-20)
(0.542 -0.1345 9.953e-21)
(0.878 -0.1176 -1.134e-21)
(-0.006525 -0.01217 0)
(1.446 -0.2122 -1.112e-20)
(1.47 -0.1969 -1.334e-21)
(0.8246 -0.0957 2.376e-21)
(0.8354 -0.1044 9.352e-22)
(-0.156 0.5501 -1.102e-20)
(0.9297 -0.08872 3.709e-22)
(2.035 1.157 3.208e-21)
(0.9115 -0.05666 2.049e-22)
(0.02203 -0.009044 -1.254e-23)
(1.586 -0.1349 -2.277e-21)
(0.7007 -0.06574 -2.328e-22)
(1.001 -0.00254 0)
(0.8209 -0.1715 -2.421e-21)
(0.989 0.01499 -1.706e-20)
(-0.02597 0.7873 -5.716e-21)
(1.066 0.005905 7.734e-20)
(1.473 -0.1992 1.26e-20)
(1.005 -0.0006085 0)
(1.001 0.02437 -1.653e-21)
(0.9514 -0.07876 -1.004e-20)
(0.5062 -0.1853 2.585e-21)
(1.22 -0.2494 4.702e-21)
(1.003 -0.001309 2.148e-20)
(1 -0.003276 -3.286e-20)
(-0.02038 0.008498 -1.45e-22)
(0.9108 0.1124 0)
(0.5803 -0.1526 4.156e-21)
(0.7474 -0.06605 6.214e-22)
(0.6153 -0.1596 0)
(0.4538 -0.1009 -1.655e-20)
(1.121 -0.1903 -7.479e-22)
(0.4215 -0.134 0)
(1.53 -0.1858 -2.563e-22)
(0.3264 -0.08529 -1.23e-20)
(0.97 -0.06481 0)
(1.002 -0.001384 -3.746e-21)
(1.713 -0.06632 1.034e-20)
(1.52 -0.1888 1.146e-21)
(0.8801 -0.1228 3.203e-21)
(1.396 -0.1593 0)
(0.9789 -0.02127 -1.067e-19)
(1.004 -2.298e-06 8.978e-23)
(1.466 -0.1817 -1.085e-20)
(0.2052 -0.1058 -5.267e-24)
(1.505 -0.1632 3.434e-21)
(-0.05057 0.01745 -3.608e-23)
(1.066 0.007628 0)
(1.003 2.909e-05 4.121e-22)
(0.3628 -0.124 0)
(1.458 -0.1216 0)
(0.9178 0.08731 -9.584e-20)
(0.8739 -0.1119 -5.025e-21)
(0.8875 -0.1002 0)
(0.982 -0.04418 -4.399e-20)
(0.1906 -0.05052 4.815e-21)
(0.7832 -0.165 -2.648e-21)
(1.519 -0.1882 7.094e-21)
(0.6767 -0.02939 -9.357e-20)
(-0.001405 0.0004259 0)
(-0.03789 0.01226 0)
(0.1525 -0.04432 -4.687e-22)
(0.1077 -0.03939 6.749e-22)
(0.5368 -0.1669 0)
(1.357 -0.1944 6.54e-21)
(0.7382 -0.09549 3.833e-22)
(1.022 -0.15 0)
(0.9217 0.01978 -2.289e-20)
(1.617 -0.142 1.224e-20)
(0.001198 -0.0121 0)
(1.308 -0.2806 -6.816e-21)
(0.9994 -0.00244 7.6e-20)
(0.8945 -0.1376 3.609e-21)
(0.6607 -0.1141 0)
(0.4186 0.3982 -3.561e-20)
(0.9926 2.926e-05 -4.424e-23)
(0.9995 -0.002511 -1.013e-19)
(-0.004753 -0.01185 0)
(0.9492 -0.06243 3.752e-21)
(0.8506 -0.1557 -3.607e-21)
(1.478 -0.1912 -7.033e-22)
(0.2073 -0.06124 0)
(1.132 -0.2558 1.665e-20)
(1.546 0.01425 0)
(0.6881 -0.05894 -2.473e-22)
(0.5874 0.2791 6.951e-20)
(0.7539 -0.1948 0)
(1.016 -0.001311 -2.785e-20)
(1.003 -0.001477 0)
(1.854 0.4782 0)
(1.168 0.4674 0)
(0.6494 -0.1178 7.613e-22)
(0.4209 0.3722 0)
(0.4822 -0.1942 7.983e-21)
(0.7101 -0.1979 0)
(0.4844 -0.1858 -9.309e-21)
(1.099 -0.1529 8.461e-20)
(1.024 -0.1657 1.429e-20)
(0.9974 4.061e-05 -2.888e-23)
(0.7124 -0.0509 1.197e-22)
(0.9103 -0.05663 3.511e-21)
(0.8139 -0.184 -2.4e-21)
(-0.0005484 -0.002337 -2.087e-23)
(0.8919 -0.1312 -1.545e-21)
(1.586 -0.1185 -1.433e-20)
(0.8168 -0.2544 6.106e-21)
(0.9968 3.202e-05 -6.193e-22)
(0.9413 -0.1004 -5.946e-23)
(0.9073 -0.08241 8.012e-22)
(-0.05747 0.01939 0)
(0.9887 -0.1837 4.224e-22)
(1.275 -0.2628 1.13e-20)
(1.529 -0.186 -3.845e-21)
(2.068 1.718 0)
(0.8418 -0.2797 7.086e-21)
(0.2594 -0.1077 1.94e-20)
(1.02 -0.2486 -1.313e-21)
(0.7856 -0.1859 1.08e-21)
(0.9434 -0.1007 -1.593e-21)
(0.9406 -0.09703 -1.132e-21)
(1.086 -0.2965 6.491e-21)
(0.8514 -0.1241 1.435e-20)
(0.008636 -0.0005092 0)
(0.6569 -0.1143 0)
(0.9651 0.1276 1.541e-20)
(0.801 -0.1713 -2.463e-21)
(0.4476 -0.1608 1.52e-20)
(0.9448 -0.09819 3.405e-22)
(1.007 -0.003129 0)
(0.01087 -0.01647 4.684e-23)
(1.035 -0.2216 -8.198e-21)
(0.4184 -0.07767 -5.677e-22)
(1.003 1.317e-05 -3.473e-22)
(-0.05061 0.01771 0)
(0.4203 -0.1202 0)
(0.7083 -0.09011 -2.348e-21)
(0.9981 2.644e-05 1.923e-22)
(0.974 -0.146 6.722e-21)
(0.0344 -0.008822 0)
(0.8847 -0.1609 8.263e-21)
(1.57 -0.1567 -6.259e-21)
(0.9977 1.418e-05 -1.646e-22)
(0.619 -0.1589 -1.21e-21)
(-0.01223 -0.001307 0)
(0.5264 -0.1361 6.353e-21)
(1.342 -0.2694 0)
(0.9962 0.03806 -9.609e-22)
(1.533 -0.1684 3.27e-21)
(-0.2921 0.8703 0)
(1.029 -0.004824 -2.56e-20)
(0.8578 -0.1468 4.523e-21)
(0.8207 -0.1447 0)
(1.384 -0.1919 -7.516e-21)
(0.388 -0.1007 0)
(0.7465 -0.1362 -1.478e-20)
(0.8917 -0.1314 0)
(0.6437 -0.08065 -4.264e-22)
(0.2668 -0.09423 0)
(0.9935 8.262e-06 -5.081e-22)
(0.6061 -0.1544 1.163e-21)
(1.045 -0.2129 7.089e-22)
(0.5161 -0.0413 0)
(0.8255 -0.1189 -2.045e-21)
(1.412 -0.05594 0)
(0.763 -0.2048 0)
(0.3311 -0.1177 5.107e-23)
(0.993 4.427e-05 -1.449e-22)
(0.3902 -0.1364 -1.877e-21)
(0.1901 -0.04781 0)
(1.515 -0.1667 0)
(-0.001399 0.002196 2.399e-23)
(1.515 -0.166 -3.792e-21)
(-0.03218 0.01174 2.572e-22)
(1.384 -0.2626 -1.548e-21)
(0.1058 -0.03054 0)
(0.795 -0.1587 0)
(0.9991 -0.0002233 3.311e-20)
(-0.001387 0.0005192 1.436e-23)
(0.5895 -0.169 5.925e-21)
(1.46 -0.2151 9.597e-21)
(-0.03484 0.01208 4.279e-22)
(0.216 -0.04787 -4.095e-21)
(0.02781 -0.006475 2.349e-21)
(0.3358 -0.1179 -7.063e-22)
(0.8668 -0.0729 0)
(0.9972 -0.000889 0)
(1.012 -0.2121 0)
(0.9257 -0.1066 -1.094e-23)
(0.9977 1.588e-05 0)
(0.2799 -0.09594 -3.863e-21)
(2.072 0.7895 0)
(0.8946 -0.1318 -3.394e-21)
(0.5897 -0.1833 -5.98e-21)
(1.006 -0.000151 -1.391e-20)
(1.149 -0.2008 0)
(0.02252 -0.01706 0)
(1.016 -0.0009827 -9.047e-20)
(1.006 -0.000168 0)
(1.392 -0.1614 0)
(1.026 -0.2164 2.941e-21)
(0.6164 -0.1606 -2.706e-22)
(0.02371 -0.008397 9.926e-22)
(0.4717 -0.1132 8.422e-22)
(0.1556 -0.008574 -7.586e-24)
(0.9176 -0.1129 0)
(0.5026 0.06414 -6.333e-20)
(0.9997 -0.002561 0)
(0.5776 -0.1891 -2.531e-21)
(0.09119 -0.02409 0)
(0.7872 -0.05576 2.483e-22)
(0.6519 -0.05399 0)
(0.4468 -0.02334 -4.64e-20)
(1.002 -0.0008197 0)
(1.015 -0.01614 2.768e-21)
(0.9783 -0.04565 2.489e-20)
(0.567 0.005364 7.297e-21)
(0.9997 -0.002424 1.333e-20)
(1.085 -0.1433 -2.988e-20)
(0.1296 -0.06238 5.196e-21)
(0.9215 -0.1135 -4.026e-21)
(0.6731 -0.09295 2.558e-21)
(0.9996 -0.002999 0)
(0.07452 -0.03348 1.388e-22)
(0.9285 -0.1094 2.105e-21)
(1.005 0.01157 0)
(0.8108 -0.09808 -1.037e-21)
(0.9953 -0.0004073 0)
(0.3077 -0.1133 2.408e-20)
(-0.4711 0.7727 -7.38e-22)
(1.293 -0.1704 -1.555e-22)
(1.545 -0.1289 0)
(0.4166 -0.02567 -6.734e-23)
(0.9735 -0.01767 5.323e-21)
(0.5645 -0.1597 0)
(0.6623 -0.03701 -2.206e-20)
(0.6895 -0.05868 0)
(-0.002634 -0.01002 6.722e-23)
(0.7493 -0.09853 -6.111e-22)
(1.571 2.178 -6.962e-21)
(1.416 -0.05096 -1.73e-20)
(0.8512 -0.1339 -7.144e-21)
(0.5161 -0.1099 2.823e-23)
(0.3545 -0.06617 0)
(1.004 0.01491 0)
(1.319 -0.2149 2.432e-20)
(0.6538 -0.2049 0)
(2.148 0.4033 5.496e-22)
(0.0009637 -0.01183 -2.272e-23)
(0.5658 -0.09267 0)
(1.002 -0.0007719 0)
(1.025 -0.1034 1.34e-20)
(-0.02636 0.01028 -1.522e-22)
(0.5952 -0.1371 -7.844e-21)
(0.3427 -0.01809 3.498e-20)
(1.894 0.169 0)
(-0.1873 0.2175 -1.771e-21)
(2.007 0.2424 -2.008e-21)
(0.1739 0.02616 2.392e-20)
(0.8428 -0.1348 -3.256e-21)
(-0.02906 0.01034 8.355e-22)
(1.013 -0.2114 3.106e-21)
(0.2977 -0.02269 -3.889e-22)
(1.038 0.05859 -1.519e-20)
(0.9043 -0.1285 0)
(1.004 3.239e-05 0)
(0.9965 2.447e-05 0)
(1.465 -0.211 5.831e-21)
(1.089 0.02581 3.934e-21)
(1.555 -0.1856 9.665e-21)
(0.8999 -0.1563 6.324e-21)
(0.2546 1.33 0)
(0.9432 -0.08955 8.361e-21)
(1.041 -0.05606 -2.307e-20)
(2.13 0.8431 8.202e-21)
(0.7949 -0.1734 4.317e-21)
(1.016 -0.01452 5.532e-20)
(1.044 -0.2038 -1.677e-22)
(0.1971 -0.0047 -4.669e-22)
(1.041 -0.05398 3.361e-20)
(0.5345 -0.1402 -1.053e-20)
(-0.06281 0.0207 -2.412e-21)
(0.02496 -0.02874 0)
(0.8308 -0.1565 0)
(-0.3611 0.599 -3.487e-21)
(1.318 -0.2499 0)
(0.007715 -0.003459 0)
(0.9856 0.005349 5.409e-20)
(1.559 -0.1622 5.725e-21)
(0.8135 -0.1846 2.427e-21)
(1.005 -0.01285 0)
(0.4336 -0.0504 6.142e-21)
(0.6447 -0.1936 0)
(1.044 -0.2443 -2.162e-21)
(0.9946 -0.0003125 4.357e-21)
(0.9714 -0.02282 3.111e-21)
(1.063 -0.2033 0)
(0.1086 -0.00767 -2.48e-23)
(0.6082 -0.1631 -1.394e-20)
(-0.0626 0.02038 0)
(1.032 -0.2504 3.451e-21)
(0.4303 -0.1437 0)
(0.8071 -0.1695 -8.697e-22)
(-0.04751 0.01627 0)
(1.492 -0.09701 2.075e-21)
(0.9961 2.069e-05 6.895e-23)
(0.1814 -0.0975 0)
(1.629 0.3656 -3.233e-20)
(1.005 2.951e-05 0)
(0.4906 -0.1254 4.334e-22)
(-0.01088 0.003581 -1.593e-22)
(1.178 -0.2352 -7.43e-21)
(1.896 0.123 -6.763e-21)
(0.9634 -0.06365 -1.584e-21)
(0.8889 -0.1269 -1.665e-21)
(-0.04138 0.01444 -1.898e-24)
(0.1235 -0.0177 1.672e-22)
(0.8905 -0.09346 0)
(1.039 0.04455 -3.951e-20)
(0.996 0.01013 6.461e-21)
(0.8452 -0.151 0)
(0.3801 -0.09448 -4.689e-21)
(0.2823 -0.06649 -2.569e-21)
(0.5795 -0.1516 0)
(0.4403 1.663 1.693e-20)
(0.4601 -0.19 -4.359e-21)
(0.6596 -0.01105 -2.46e-22)
(1.33 0.01292 -4.108e-20)
(0.4651 -0.1903 -4.322e-21)
(1.112 -0.08573 4.963e-20)
(0.6467 -0.04339 0)
(1.008 -0.001792 0)
(0.3599 -0.06213 3.613e-22)
(-0.006894 -0.01056 4.561e-24)
(1.386 -0.2492 -1.411e-20)
(0.3704 -0.1127 0)
(0.9113 -0.2237 0)
(0.9915 0.009082 -3.12e-20)
(0.9681 0.02276 2.499e-20)
(-0.02406 0.008172 0)
(0.7804 -0.1131 3.418e-20)
(0.02718 -0.00887 0)
(0.9032 -0.1166 0)
(0.002031 -0.003003 -1.045e-21)
(0.3996 -0.1216 -1.237e-21)
(1.5 -0.1583 -3.097e-21)
(1.785 0.01648 -1.797e-21)
(1.555 -0.1199 -1.066e-20)
(0.334 -0.05074 1.391e-21)
(1.522 -0.1805 -8.135e-21)
(0.7467 -0.0558 -2.374e-22)
(0.2945 -0.08555 4.955e-21)
(0.925 -0.1086 4.982e-21)
(0.6021 -0.158 6.284e-21)
(0.7312 1.906 -8.155e-21)
(0.04231 -0.00443 -6.87e-23)
(-0.006547 -0.008267 -2.971e-23)
(-0.02092 0.007083 0)
(0.8797 -0.2189 0)
(1.007 -0.003 0)
(1.005 -0.005403 4.549e-20)
(0.7255 -0.1832 1.095e-21)
(0.1402 -0.04687 0)
(0.8784 -0.1256 -2.061e-20)
(1.006 3.142e-05 0)
(0.3767 -0.1183 -1.583e-20)
(1.116 -0.1898 3.679e-21)
(0.9541 -0.07571 7.31e-21)
(0.008904 -0.0008019 0)
(1.471 -0.1742 -1.927e-20)
(0.1842 -0.05633 -4.49e-21)
(1.723 0.9286 -4.002e-20)
(0.9999 0.001463 -2.261e-20)
(0.8569 -0.123 0)
(0.9562 -0.06211 3.945e-21)
(0.4491 -0.1751 0)
(0.6125 -0.04654 0)
(0.02311 -0.007721 1.7e-23)
(0.5064 -0.01499 3.55e-20)
(1.295 -0.2191 4.669e-20)
(0.6705 -0.1208 0)
(0.8843 -0.0827 2.51e-22)
(0.9601 -0.07953 0)
(0.8692 -0.2369 0)
(0.3864 -0.1334 1.733e-20)
(0.9361 -0.1075 -1.556e-21)
(0.08814 -0.01766 0)
(0.4288 -0.1842 -5.705e-21)
(1.009 -0.01731 -2.059e-21)
(0.01548 -0.007865 0)
(-0.03849 0.01296 0)
(1.051 -0.2165 0)
(1.481 -0.2074 1.311e-20)
(-0.3801 0.6612 -3.772e-21)
(1.012 0.02532 -5.794e-21)
(0.105 -0.02369 6.66e-21)
(0.3249 -0.06337 0)
(0.9972 -0.0003675 0)
(0.9969 -0.0001009 -2.962e-20)
(1.565 -0.1642 1.622e-24)
(1.254 -0.265 1.402e-20)
(-0.01215 0.004408 1.5e-22)
(-0.001118 -0.01363 -2.597e-23)
(0.9038 -0.1282 7.614e-22)
(0.5513 -0.196 0)
(0.3271 -0.1178 -1.471e-21)
(0.8659 -0.1222 0)
(0.9122 -0.1069 0)
(0.971 -0.02282 -5.864e-20)
(0.2815 -0.1056 -2.798e-21)
(0.1886 -0.06301 0)
(0.3088 -0.1187 -1.323e-21)
(0.8255 -0.1511 0)
(-0.02632 0.006956 -7.901e-23)
(0.2669 -0.007732 -2.422e-21)
(0.999 -0.001892 -1.706e-21)
(0.3457 -0.04764 0)
(0.01937 -0.004186 -2.933e-22)
(0.9975 -0.0008235 -1.115e-19)
(1.164 -0.1705 -4.024e-21)
(0.9976 -0.0003975 -1.191e-20)
(0.9856 0.001072 5.036e-20)
(0.9121 -0.1182 -1.938e-21)
(0.8584 -0.09655 0)
(0.2996 -0.02856 -4.396e-20)
(0.9955 -0.002279 1.133e-20)
(0.8103 -0.09679 1.203e-22)
(1.007 0.006955 0)
(2.085 0.8382 0)
(0.8729 -0.08872 -2.715e-20)
(1.026 -0.1967 1.803e-21)
(0.9324 -0.1021 3.017e-21)
(0.8333 -0.1611 5.667e-22)
(0.8786 -0.1267 0)
(0.1504 -0.03588 1.111e-20)
(0.9366 -0.1016 -3.704e-21)
(1 -0.00586 1.149e-20)
(0.9657 -0.04322 -6.938e-20)
(1.394 -0.2448 7.139e-21)
(0.86 -0.1566 -1.599e-21)
(0.02213 -0.005839 -2.752e-22)
(0.2737 -0.09838 0)
(0.386 -0.02799 -2.964e-24)
(0.2579 -0.09589 -1.266e-21)
(-0.03518 0.01055 -5.752e-20)
(1.424 -0.2097 1.214e-20)
(0.731 -0.1991 0)
(1.732 0.03541 -1.55e-20)
(0.8614 -0.09104 1.782e-22)
(0.6492 -0.07941 0)
(1.105 0.7515 -1.42e-20)
(1.025 -0.2113 0)
(1.003 -0.01342 9.948e-21)
(0.7272 -0.1407 1.47e-20)
(0.00584 -0.0124 -4.88e-23)
(0.7412 -0.1251 0)
(0.9988 1.79e-05 2.033e-22)
(0.04019 0.01778 7.369e-20)
(1.176 -0.3267 0)
(0.9545 -0.09217 -1.633e-22)
(0.7226 -0.1882 1.635e-21)
(1.542 -0.1862 -9.595e-22)
(0.9214 -0.1056 5.088e-21)
(0.4781 -0.113 0)
(1.194 -0.285 7.941e-21)
(0.9543 -0.09228 -4.931e-22)
(-0.00796 0.00342 -2.758e-24)
(0.7379 -0.197 -6.023e-21)
(-0.00279 -0.01002 -7.188e-23)
(0.9976 -0.0008845 0)
(0.9628 -0.07399 1.124e-21)
(0.7684 -0.1413 0)
(0.9727 -0.01455 0)
(0.8638 -0.177 0)
(0.987 -0.1008 1.746e-21)
(0.9964 -6.469e-06 4.794e-21)
(0.811 -0.1535 1.024e-20)
(-0.006012 -0.004291 0)
(0.9485 -0.04255 0)
(1.139 0.7399 5.272e-20)
(1.329 -0.2421 0)
(0.01297 -0.02201 0)
(0.8881 -0.106 2.149e-20)
(1.007 4.816e-05 -2.943e-22)
(0.7567 -0.1842 -1.468e-22)
(0.4069 -0.1163 -2.441e-22)
(1.016 -0.007795 4.942e-20)
(1.198 0.6271 -4.358e-20)
(1.139 0.07415 2.069e-20)
(1.119 -0.2355 6.575e-21)
(0.6421 -0.1784 -4.591e-21)
(0.8694 -0.1398 4.683e-21)
(1.044 -0.05198 0)
(-0.01881 0.002532 2.751e-23)
(-0.02832 0.01017 -3.205e-22)
(0.8305 -0.1733 -2.802e-22)
(0.8919 -0.1389 2.257e-21)
(0.9854 -0.2876 -1.813e-21)
(0.2913 -0.0256 0)
(0.9984 -5.013e-06 -2.257e-22)
(0.9377 -0.09719 -1.213e-21)
(1.009 0.008798 1.076e-21)
(0.5879 -0.1577 0)
(0.3036 -0.06424 -1.508e-20)
(1.128 -0.1924 0)
(0.7237 -0.1882 1.469e-20)
(-0.007702 -0.005 4.104e-23)
(0.372 -0.05921 0)
(0.9994 0.006088 -5.86e-21)
(-0.01951 0.007284 0)
(0.0791 -0.02542 0)
(0.2756 -0.08267 3.718e-21)
(0.9598 -0.08541 -1.413e-21)
(2.235 0.6641 0)
(1.155 -0.2822 -5.791e-21)
(0.9939 -0.1858 8.157e-22)
(0.5974 -0.04658 0)
(0.9094 -0.1223 0)
(0.8553 0.1357 -9.936e-20)
(0.0536 -0.001464 -3.884e-22)
(0.1031 -0.0355 5.136e-22)
(0.8688 -0.06463 0)
(0.7805 -0.1614 -3.437e-21)
(0.9018 -0.1334 0)
(0.1184 -0.005898 -6.817e-20)
(0.002187 -0.02077 -5.295e-22)
(-0.06355 0.02095 2.072e-22)
(0.8743 -0.1423 9.461e-22)
(0.343 -0.1271 0)
(1.55 -0.1266 0)
(0.8568 -0.1039 -1.421e-21)
(0.8765 -0.08946 6.045e-22)
(1.172 -0.2383 0)
(-0.03672 0.01345 0)
(0.9434 -0.07053 -5.989e-21)
(0.8167 -0.1666 -4.882e-21)
(0.9232 -0.0817 0)
(0.8287 -0.1404 1.592e-21)
(0.9935 4.624e-05 0)
(1.004 -0.001241 1.62e-19)
(1.437 -0.1948 -1.608e-20)
(0.2735 -0.01797 -1.055e-22)
(0.4237 -0.04375 2.078e-21)
(1.003 -0.02931 7.149e-21)
(0.132 -0.02412 -9.333e-21)
(-0.01623 0.004382 9.629e-22)
(0.9949 0.01199 -1.955e-20)
(1.113 0.1511 0)
(0.9162 -0.1209 4.347e-22)
(1.51 -0.1494 0)
(-0.001989 -0.005822 0)
(0.7103 -0.1652 -1.226e-20)
(0.06828 -0.0253 3.704e-22)
(-0.002391 0.0007602 0)
(1.046 -0.2036 -1.517e-22)