/*--------------------------------*- C++ -*----------------------------------*\
| =========                 |                                                 |
| \\      /  F ield         | OpenFOAM: The Open Source CFD Toolbox           |
|  \\    /   O peration     | Version:  v2012                                 |
|   \\  /    A nd           | Website:  www.openfoam.com                      |
|    \\/     M anipulation  |                                                 |
\*---------------------------------------------------------------------------*/
FoamFile
{
    version     2.0;
    format      ascii;
    class       volScalarField;
    location    "5";
    object      nut;
}
// * * * * * * * * * * * * * * * * * * * * * * * * * * * * * * * * * * * * * //

dimensions      [0 2 -1 0 0 0 0];


internalField   nonuniform List<scalar> 
124707
(
3.149e-07
2.711e-07
1.679e-06
6.696e-06
2.312e-06
3.722e-07
3.225e-06
3.08e-07
3.931e-07
2.995e-06
7.365e-07
3.059e-06
8.495e-07
7.131e-07
4.834e-06
4.776e-06
8.813e-07
6.606e-07
1.384e-05
0.0007502
0.5604
0.5596
6.982e-05
0.185
0.00315
0.004831
0.006867
0.002761
0.0429
0.0003874
0.001321
1.483e-06
4.647e-06
4.628e-06
0.0008218
0.4277
0.1875
0.5491
0.01486
0.5604
0.004573
0.0008528
0.00984
0.014
0.001789
0.1118
0.001259
0.0006684
6.359e-05
0.00427
0.4066
0.5611
0.0002071
0.0006417
0.02081
0.005205
0.6125
0.03532
1.179e-06
0.08175
0.002866
0.4468
4.529e-07
0.03819
0.04309
0.0002238
0.5715
0.0001755
1.942e-05
0.001051
0.001267
6.388e-05
0.04832
0.4345
0.0005661
0.0053
0.00191
0.1073
0.02337
0.008791
0.004563
0.07033
0.04903
0.002416
0.002807
0.4689
0.003003
0.4348
0.02374
0.00169
0.5715
0.008847
0.01068
0.002646
0.01862
0.0001141
0.5707
0.01654
0.0004282
0.008279
0.1449
0.0009592
0.00386
0.06524
0.04465
0.0004198
0.4514
0.0006492
0.01873
0.000626
0.5468
0.007211
0.002267
0.05201
0.001856
0.0004283
0.3797
0.008984
0.01221
0.0001616
0.0002837
0.0009927
0.005368
0.0156
0.03884
0.001331
0.01672
0.0005063
0.00043
0.0006465
0.002539
0.004892
0.000128
0.3902
0.0916
5.9e-07
0.0006647
0.0001647
0.005673
0.007225
0.004261
0.3846
6.024e-07
0.000447
0.001564
0.0005113
0.01058
0.002334
0.3933
5.556e-06
0.002171
0.3806
0.54
0.004654
0.007156
0.002103
0.0009019
0.001802
0.0003769
0.006361
0.5832
0.001524
0.573
0.02965
0.0001801
0.01627
0.0102
0.0005319
0.02593
0.6173
0.01036
0.003492
0.003425
0.00655
7.169e-07
0.0001922
0.5971
0.005536
0.001988
0.01827
7.546e-05
0.00522
0.33
0.07485
0.04299
0.3882
0.000598
0.002011
0.07089
0.0006219
0.02828
0.007092
0.06509
0.003769
0.0008151
8.211e-05
0.006959
0.06508
0.5131
0.4108
0.004372
0.09236
0.01977
0.0001209
0.0001965
0.02211
0.4148
0.5915
0.009813
0.00281
0.003478
0.01012
0.001424
0.0005025
0.008377
0.0007613
0.0109
0.04375
0.3874
0.02137
0.001937
2.439e-06
0.409
0.007412
0.1046
0.001412
0.004533
0.0003031
0.0009695
0.01078
0.0024
0.03719
0.002079
0.001556
5.123e-05
0.002865
0.0185
0.5563
0.001544
0.02218
0.5416
0.3958
0.364
0.004213
0.002586
0.001533
0.62
0.5736
0.02108
0.5573
0.001654
0.00173
0.0007445
0.0001517
0.002795
0.001223
0.01855
0.08533
0.00153
0.01832
0.08173
0.6198
0.01009
0.03202
0.0002041
0.4308
8.296e-05
0.002102
0.003379
7.173e-06
0.001403
0.001605
0.002902
0.0007038
0.0718
1.508e-05
0.0005532
0.01328
0.00316
0.01896
0.01116
0.0186
0.03424
0.006455
0.06507
0.001463
0.04379
0.2598
0.003191
0.0008927
0.002034
0.01944
0.003291
0.0006623
0.02211
0.005092
0.0002892
3.316e-06
0.2534
0.001674
0.001659
0.2087
0.00755
0.5963
0.4793
0.5935
5.971e-05
0.003591
0.0009273
0.001011
0.0004638
0.005288
0.08599
0.0001189
0.2814
0.4142
0.4015
0.00251
0.02946
0.0001165
2.133e-05
0.3606
0.02658
0.002728
0.5588
0.005204
7.138e-05
0.1336
0.06671
0.3188
0.02207
0.003529
0.4669
0.001378
0.0005875
8.449e-06
0.002508
0.001198
0.003638
0.005237
0.003361
0.584
0.00831
0.005336
0.0004912
0.2734
0.0008824
0.005566
0.5712
0.0001901
0.0008197
0.001405
0.009546
0.02091
0.5763
0.0004855
5.364e-05
0.0009262
0.002953
0.02294
0.01136
0.01531
0.0184
0.006903
0.005608
0.0005225
0.006434
0.00706
0.002229
0.603
0.001185
0.0005355
0.583
0.005063
0.2464
0.002287
0.001861
0.05021
0.5816
0.0002267
3.367e-05
0.4095
1.673e-05
0.003642
0.07903
0.5172
0.02153
0.01709
0.007634
0.0002123
0.0005794
0.001813
0.01852
0.5911
5.812e-07
0.001488
0.005743
7.334e-05
4.217e-05
0.002735
0.2079
0.04772
1.9e-05
0.004674
0.02016
0.04824
0.005169
0.2954
0.002059
0.2127
0.001494
0.574
1.197e-05
0.3472
0.008207
0.0002524
0.0005652
0.0104
0.00977
0.02208
0.001035
0.002649
0.004495
0.0003826
0.4249
0.5757
0.01256
0.007456
0.02002
0.001798
0.005567
0.5712
0.001369
0.03636
0.209
0.0001402
0.0005104
0.0002199
2.699e-05
0.002487
0.4385
0.02051
0.001486
0.000833
0.03832
0.4104
0.007354
0.07297
0.006434
0.0002126
0.009804
7.225e-06
0.5835
0.06906
0.02656
0.006439
0.3261
0.001921
0.004629
0.01869
0.6472
0.5586
0.0001943
0.1932
0.0001543
0.0001387
0.004546
0.02733
0.002243
0.0138
0.0009567
0.009539
1.32e-06
0.003405
0.0005229
0.001935
0.01183
0.004256
0.0272
0.004025
0.00345
0.4103
0.0002733
0.08483
0.003215
0.01572
0.0002024
0.5643
0.0499
0.007829
0.0009557
0.01994
0.3314
3.182e-06
0.009484
0.01457
0.599
0.0007371
0.0002745
0.004457
4.519e-06
0.006053
0.4906
0.001624
0.003233
0.07671
0.002194
0.0104
0.0002018
0.5037
0.007335
0.002
0.005182
0.0005008
6.131e-06
7.367e-05
0.005213
0.0004697
0.007465
0.000241
0.01896
0.002629
0.005501
0.006283
9.658e-05
0.5757
0.001334
0.003287
0.07105
0.01114
0.001696
0.3372
0.5823
0.1569
0.0002697
0.01859
0.4211
0.002258
0.007503
0.01708
0.0006726
0.002438
0.001043
0.1762
0.005703
0.3511
0.5977
0.0005143
5.972e-07
0.02103
0.506
0.4782
0.4563
0.0216
4.375e-05
0.002093
0.0004536
0.01345
0.001439
0.004749
0.01362
0.5713
0.0001267
0.001678
0.1047
0.007665
0.001643
0.4732
0.0001553
0.1364
0.03628
0.0003987
0.002505
0.005435
0.01571
0.0003221
0.001541
0.005548
0.266
0.007179
0.00209
0.6265
0.008299
0.001976
1.091e-06
9.684e-07
0.5921
0.003297
0.4068
0.008785
0.002058
2.059e-05
0.0006973
0.001142
0.001556
0.4113
0.01145
0.2427
0.001852
0.001903
0.01028
0.0008888
0.03801
0.5331
0.01467
0.001494
0.001261
0.005699
0.0001432
0.01886
3.688e-07
0.3277
0.007731
0.0002291
0.483
0.002456
0.009985
0.006727
0.4637
0.002539
0.0111
0.0001032
0.03643
0.01802
0.0008144
0.00243
0.4258
0.4947
0.004823
0.0002618
0.0172
0.5911
0.07913
0.02698
0.000264
0.0173
0.007873
0.00302
0.001341
0.001047
0.002017
0.00187
0.01404
0.0006433
0.5914
0.0007229
0.08025
0.4504
6.588e-05
0.007998
0.009337
0.009822
0.003198
0.0002131
0.3537
9.658e-06
9.893e-06
0.007033
0.04036
0.5742
0.3047
0.01116
7.5e-06
0.5236
0.01085
0.003735
0.003526
0.01795
0.00236
0.02496
0.02092
0.002308
0.002185
4.787e-07
0.004164
0.001063
0.398
0.0006846
0.01586
5.034e-06
4.689e-05
0.001515
0.01121
0.000287
0.4863
0.0002925
0.4114
0.0007317
5.496e-05
0.0006164
0.004954
0.0002836
0.01308
0.004105
0.004252
0.2332
0.001253
0.5648
0.3529
0.001159
0.0003499
0.05041
0.01653
0.0003017
0.007643
0.0152
0.009825
0.1562
0.01076
0.4268
0.0007072
0.5701
0.006571
0.01841
0.008028
0.02928
0.00999
0.004877
0.001294
0.1185
0.007768
0.007444
0.006865
0.00736
0.04411
0.3982
6.488e-06
0.005466
0.003001
0.07935
0.1351
0.03652
2.259e-05
0.0002914
0.006943
0.01261
0.003284
0.004741
1.062e-05
0.01055
0.001187
0.0001108
0.2011
0.00144
0.1875
0.01489
0.003154
0.318
0.0009996
0.001191
0.4854
0.007201
0.002659
0.01904
0.0009803
0.005729
0.3819
0.01072
0.001604
0.04845
0.001321
0.001343
0.0002441
0.009287
0.006318
0.0002019
0.3042
0.002819
0.4723
0.004064
0.012
0.0003236
0.002731
0.004127
0.3186
0.6028
0.003072
0.0058
0.5331
0.001116
0.003532
0.000234
0.001962
0.394
0.137
0.01182
0.009066
0.004941
0.001147
0.3195
0.4161
0.01703
0.006568
0.0191
0.0002841
0.02795
0.0014
0.001043
0.01755
0.00208
0.01223
0.5507
0.08001
6.805e-06
0.002283
0.0195
0.06893
0.000901
0.001408
0.0002266
4.072e-05
0.01711
0.0261
0.01093
0.000927
0.0003482
0.002271
0.003534
0.00568
0.0001487
0.00279
0.02034
0.0002529
0.5706
0.003683
0.5593
0.001832
0.3535
0.02804
0.03683
0.001671
0.0143
0.00459
0.005951
0.3151
0.00313
0.001362
0.001647
0.01526
0.01643
0.0001008
0.0002785
0.02168
0.0007947
0.007718
0.03216
0.03918
5.716e-05
0.0006027
0.002842
0.0005064
0.002364
0.004174
0.002054
0.0006337
0.0001349
0.0002623
0.08772
0.001509
0.0006809
0.001724
0.007705
0.02152
0.0188
0.2142
0.0004726
0.01674
0.005359
0.000332
2.782e-05
0.02342
2.458e-05
0.0004812
0.001572
0.0002795
0.03041
0.5969
0.01016
0.3789
0.006948
0.0008477
0.007361
0.008197
0.0001586
0.00539
0.003073
0.001757
1.459e-06
0.001755
0.3921
0.001329
0.001985
0.003285
0.08683
0.002158
0.5727
0.007706
6.367e-05
0.009608
1.48e-06
5.969e-07
0.41
0.002456
0.1359
0.1278
0.1468
0.002649
0.5786
0.008563
0.02161
0.4417
0.03646
0.5683
0.0001546
0.001038
0.001717
0.004408
0.3888
0.1358
0.409
2.247e-05
0.04421
0.5121
0.00298
0.3871
0.003008
0.5746
0.0009482
0.004958
0.00596
0.001479
0.5439
0.393
2.493e-05
0.007134
0.009475
4.503e-06
0.0005186
0.01029
0.02354
0.0005855
0.0002336
0.09142
5.375e-06
0.04498
0.3139
2.269e-05
0.06927
0.08036
0.001052
8.575e-05
0.5875
0.005068
6.074e-05
0.0002518
0.008188
0.2415
2.748e-05
0.004027
0.01353
0.5682
0.01013
0.3442
0.0001247
0.01017
6.836e-05
0.0008633
1.148e-05
0.0003117
0.002398
4.826e-06
0.04223
0.001115
0.005817
0.0712
0.00931
0.03023
0.001489
0.0001793
0.001284
0.03464
6.991e-05
6.833e-06
0.006621
0.002177
0.001413
0.01939
0.008921
7.246e-05
0.001841
0.008433
0.5757
0.007921
0.0003261
0.01071
0.005072
0.001157
7.416e-06
0.001176
0.003567
0.006851
4.474e-07
0.5943
0.001005
0.0187
0.01646
0.0136
0.6643
0.001252
0.01691
5.678e-05
7.691e-06
0.0006163
0.05397
0.001225
0.006429
0.004765
0.002439
0.00126
0.003782
0.5781
0.0384
0.0001481
0.5016
0.06276
0.002168
0.01906
0.01798
3.272e-05
0.005202
0.004511
0.001494
0.0001895
0.03124
6.263e-05
0.02365
0.002981
2.111e-05
0.1568
0.5883
0.002344
0.0009011
0.008975
6.252e-05
0.003768
0.06606
0.4556
0.5534
0.03417
0.0003529
0.005138
0.0109
0.05473
0.006336
0.0001703
1.265e-05
0.006436
0.002962
0.00464
0.02317
0.4623
0.5437
0.02018
3.521e-05
0.002586
0.009267
0.5645
0.4702
0.5924
4.654e-05
1.166e-05
0.3728
2.558e-05
0.0002442
8.344e-05
0.03305
0.4829
0.2963
3.654e-05
1.167e-05
0.002904
5.734e-07
0.0002283
0.001196
0.007681
0.0156
0.005176
0.007956
0.004712
6.067e-06
0.002256
0.002215
0.01914
0.0008331
0.0004465
0.1016
0.1445
0.5777
0.002883
0.0007079
0.004875
0.0003708
0.07595
0.002016
0.0001858
0.5682
0.005361
0.00473
1.131e-05
0.0009337
0.000832
0.006965
0.01188
0.004403
0.5787
0.004855
0.0008737
0.002898
0.04035
0.001772
0.03369
0.005958
0.5716
0.1459
0.0007043
0.0003084
0.5765
0.0002279
0.0002209
0.003596
0.5157
0.003001
0.00406
0.002957
0.002585
7.268e-05
0.1457
0.0001412
0.006172
0.3952
0.5737
5.582e-06
0.01078
6.716e-05
0.0002063
0.000792
2.966e-05
0.002424
0.01618
0.07658
0.1269
0.5872
1.281e-05
0.001426
0.001274
0.0116
0.0009316
0.04221
0.01918
0.01746
0.1147
8.07e-06
0.01585
0.05597
0.5347
0.004527
0.4147
0.002362
0.0008418
0.4891
0.5071
0.0126
0.5843
0.002677
1.467e-05
0.00109
0.06594
0.01314
0.003661
0.3353
0.006711
0.001954
0.01443
0.05217
6.026e-05
0.01223
0.08403
0.3959
7.579e-06
0.01396
0.001405
0.01148
0.004851
0.001061
0.0006798
0.05302
0.005544
0.532
0.006772
0.002111
0.4574
0.5372
7.776e-07
0.002985
0.01712
0.001251
0.002432
0.01407
0.000209
0.05012
0.004059
0.4018
0.57
0.004097
0.0004879
0.0007059
0.001233
1.681e-05
9.471e-06
0.003355
0.001492
9.72e-06
0.5056
0.006485
0.009461
0.4156
0.02179
0.001999
0.5914
0.01098
0.04659
0.01895
0.5796
0.0001118
0.537
0.003042
0.006974
0.01173
0.001548
0.007751
0.5827
0.04784
0.01308
0.5687
0.5779
1.027e-05
0.4927
0.0005066
0.03015
0.0001337
0.3333
0.3324
0.01384
0.0002167
0.02916
1.812e-05
0.228
0.0002579
0.01735
0.002547
0.002515
0.00338
0.0004048
0.364
8.582e-05
0.5747
5.523e-07
0.0003952
0.07628
0.001896
0.005688
0.004606
0.1357
0.5745
0.003544
0.004035
0.002679
0.00168
0.003784
0.3108
0.009079
1.801e-05
0.008183
0.01125
0.0002804
0.1026
0.00133
0.0001733
0.01357
0.0001122
0.0181
0.01962
0.01149
1.305e-05
0.02837
0.0008134
0.01396
0.00104
0.0005837
0.003647
0.003925
0.02808
0.579
0.5706
0.004786
0.0009288
0.0002965
0.002321
0.005805
0.009402
0.00264
0.0001849
0.3201
0.4561
0.0007516
0.003928
0.0003139
0.001234
0.6059
0.0008489
4.101e-06
0.003153
0.03583
0.009109
2.147e-05
0.06116
0.08022
0.002283
0.008962
0.0005946
0.005196
0.5006
3.142e-05
0.3102
0.01677
0.001596
0.008897
0.5691
0.002869
0.0672
0.03378
0.296
0.5139
0.4564
0.0001416
0.006366
0.005325
0.0003334
0.007248
0.3929
6.559e-05
0.004262
0.001116
0.001522
0.5784
0.05355
0.000598
0.3282
0.0001494
0.02849
0.007265
0.00994
0.0004516
0.01147
0.005242
0.001629
0.0005697
5.599e-05
0.001215
0.4723
7.461e-05
0.0003587
0.03254
0.0791
0.006732
8.232e-05
0.0006241
0.01028
0.001624
0.5677
4.814e-05
0.003423
0.391
2.435e-05
4.604e-07
0.1425
0.004381
0.02092
3.094e-05
0.5149
0.002915
0.0008532
0.004146
0.02706
0.007077
0.002789
2.355e-05
0.01244
0.02816
0.06362
0.001997
0.0004435
0.002345
0.002721
5.937e-07
0.000947
0.5992
0.02745
0.001122
0.04175
0.01003
6.657e-05
0.0006148
0.001374
0.001696
0.01683
8.799e-06
0.004526
0.009091
0.4756
0.009849
0.3752
0.004989
5.41e-05
0.005982
0.006648
1.912e-05
0.006472
6.583e-05
0.001038
1.943e-05
0.0001778
0.005467
0.0001353
0.01638
0.03685
0.0128
0.0007375
0.0001806
0.009909
0.01657
0.005924
0.01553
0.000838
0.0009119
0.01192
0.009872
3.872e-05
2.041e-05
0.002378
2.528e-05
0.3346
0.03036
0.00174
0.003011
0.6058
0.01052
0.003563
0.002358
0.004202
0.01127
0.0005547
2.453e-05
0.2978
0.0006761
0.001863
2.05e-05
0.578
0.01303
0.0001218
4.712e-05
0.0001142
0.01789
0.02018
0.005992
0.00476
0.001066
1.279e-05
0.2028
0.0002056
6.723e-06
0.005503
1.092e-05
0.3771
0.01649
0.003298
5.56e-06
0.01079
0.0911
0.005587
0.000365
0.007848
0.6019
0.001725
0.0824
0.000404
0.003273
0.0008694
0.002154
0.02984
0.3922
0.01764
2.749e-07
0.5693
0.008166
0.0001005
0.0002378
0.0143
0.01952
0.0001145
0.002213
0.002264
0.0002999
0.0317
0.5796
0.4394
0.4346
0.01231
2.396e-05
4.404e-05
0.001859
0.0007719
0.01217
0.6055
0.03132
0.0003236
9.435e-05
0.00433
0.0001132
0.08161
0.006318
0.007365
0.0001819
0.01609
0.01294
0.001041
0.0002085
0.001747
0.2449
0.5712
2.983e-06
0.01545
0.02548
0.0006544
0.5669
0.0003693
3.756e-05
0.01254
0.001859
0.0002452
0.1216
0.0007354
0.008005
0.5798
0.00144
0.0003814
0.3771
0.003924
0.446
0.002172
0.1552
3.291e-05
0.009002
0.0005978
0.003088
0.0302
0.05499
0.0002266
0.0106
0.001264
0.4207
0.002411
0.2387
0.00227
0.001978
2.551e-05
0.0005693
0.006502
0.001308
0.002594
0.004641
0.0303
0.0004248
0.0009121
0.004736
0.001412
0.002392
0.0453
0.009001
0.0375
2.555e-05
0.098
0.006558
0.0008549
0.0118
0.003721
0.04638
0.002628
0.001821
3e-05
0.007134
0.0005034
0.00187
0.001246
0.03762
0.01292
0.6666
0.005482
0.02092
0.007214
8.093e-07
0.01093
0.4131
0.4129
0.02339
0.1065
0.000103
0.0006658
0.0004893
0.02469
0.3218
3.857e-05
7.783e-07
0.2019
2.73e-06
7.111e-05
3.559e-05
0.0004338
0.003425
0.004595
0.5737
0.001909
0.003098
0.4874
0.01021
0.03055
0.002439
0.001996
0.3288
8.689e-05
0.001148
0.5624
0.002636
1.844e-05
0.0006784
0.0008615
1.19e-05
0.02154
0.003637
0.0008609
0.5635
0.01757
0.5477
0.004606
0.5765
0.5544
0.4073
0.001356
6.566e-05
0.0551
2.688e-05
0.01534
0.01979
0.001787
0.0005447
0.03434
0.04384
0.4961
8.17e-05
0.0004909
6.376e-05
0.003039
7.193e-07
0.02128
0.0008233
0.01367
0.3679
0.02504
0.005815
0.0009782
8.666e-05
0.02417
0.02797
0.5609
0.002776
0.3256
0.3188
0.008337
0.00427
0.0005061
0.3893
0.005561
6.889e-07
0.001541
0.003846
0.0001758
0.002206
0.001248
0.05149
0.0004812
0.04337
0.002907
0.2507
0.006141
0.5891
6.404e-06
0.0004322
6.616e-07
0.006088
0.0005126
0.0001884
0.0222
9.96e-05
0.6005
0.001888
0.3126
0.001706
0.5606
0.03943
0.06026
9.11e-05
0.007164
4.805e-05
0.01728
0.003161
0.001009
0.02773
0.009276
3.898e-05
1.375e-05
0.01672
0.01155
0.5635
0.006342
3.219e-05
0.5628
0.001716
0.007699
0.02396
0.1564
0.0001801
1.846e-05
0.5469
0.0004665
0.3813
0.002622
0.5887
0.06183
0.4387
0.5892
0.0183
0.02752
0.0004338
2.428e-05
0.003405
0.006694
0.01662
0.001122
2.985e-05
0.003859
0.01029
0.003704
0.1843
0.443
0.003177
0.01722
0.5762
0.0009411
8.912e-05
0.04
0.0001604
7.063e-05
0.0155
0.003115
6.919e-06
0.00458
0.05551
4.69e-06
0.541
6.351e-05
0.003179
0.3525
0.01785
0.001807
0.01083
0.01332
0.0002479
0.02624
0.4746
0.01048
0.0006423
0.01897
0.01436
0.0001152
0.01675
0.0877
0.0006885
0.01016
0.0009123
0.0008003
2.449e-05
0.05108
4.909e-05
0.0005069
0.005283
0.02307
0.006267
0.0008684
0.005562
0.009029
0.0001176
3.456e-06
0.6036
0.02315
0.003763
0.005983
0.002354
0.3064
0.3053
0.00549
0.2859
0.000718
0.001104
0.0441
0.4487
0.001471
0.0966
0.3646
0.002174
0.5744
0.003143
0.0008453
8.8e-05
8.393e-06
0.01423
3.613e-05
0.002169
0.3786
0.008486
0.000338
4.567e-05
0.01241
0.0009278
0.0007479
0.004717
0.005105
0.3645
0.02317
0.01409
0.03393
0.0008683
0.004634
0.000195
0.000522
0.6212
0.006462
0.002242
0.005166
0.3788
0.4903
0.008876
0.0005142
0.05139
0.001198
0.6129
0.0009703
0.6013
0.01126
0.04214
0.0005763
0.02283
0.07203
5.476e-05
0.008011
0.4048
5.005e-06
0.005246
0.001073
0.001194
0.01575
5.705e-05
4.839e-06
0.00767
0.00682
0.004424
6.102e-05
0.5222
0.000181
0.01878
0.1554
0.004205
0.0117
3.872e-05
0.0005044
0.000364
0.003743
0.004754
1.18e-05
0.01616
0.006182
0.01087
1.434e-05
0.0008945
0.5886
0.03044
0.00644
0.03423
0.06692
0.05448
8.39e-06
3.788e-06
0.002669
7.729e-07
0.001139
0.02086
0.5631
0.362
0.0001923
0.002044
0.0122
8.11e-06
7.413e-05
0.03051
0.005514
9.006e-06
0.5749
0.08128
0.001989
0.3845
0.006434
0.607
0.003288
0.003089
0.006492
0.03632
0.000109
0.5908
0.3845
1.114e-05
0.01722
0.006365
1.728e-05
0.1075
0.0007368
0.01158
1.418e-05
0.574
1.861e-05
0.3742
0.001296
0.02078
0.008134
0.01613
0.0385
2.245e-05
0.002084
2.44e-05
0.4704
0.01377
0.03469
0.005344
7.263e-05
0.0009913
0.006928
2.26e-05
0.001509
0.01245
0.2923
0.4733
5.23e-06
0.0002634
0.03976
3.213e-06
6.346e-05
0.003409
0.002225
0.004633
0.001081
0.005121
0.01193
0.001602
0.001736
0.03755
0.03336
0.001138
0.0003744
2.583e-05
0.001013
0.4032
0.0004062
0.007822
0.003749
0.0889
0.3189
0.00765
0.5303
0.5699
0.008097
0.01011
0.4708
6.049e-06
0.5749
0.0005942
0.0001102
0.007727
0.3743
0.6236
0.03426
0.0001287
0.5779
0.02844
2.291e-05
0.5891
0.005349
0.08498
0.0003668
0.003183
0.02043
0.005497
0.003219
0.0002598
0.01101
0.01337
0.003081
0.03188
0.0001345
0.3482
0.001916
0.0009199
0.0117
0.002037
0.0004197
1.745e-06
0.4073
0.4067
0.007852
0.0001185
0.06593
0.4578
0.003441
0.02798
2.099e-05
0.004165
0.2276
0.5957
0.001596
0.0008679
0.1027
0.6289
0.631
0.5812
0.5213
0.04733
0.5978
8.36e-07
0.007681
0.0006
0.005319
8.613e-06
0.001442
0.003837
0.002477
0.02315
3.715e-05
0.001033
0.01156
5.198e-05
0.004709
0.02649
0.0002972
2.309e-05
0.04785
0.3944
2.706e-05
0.09361
0.03275
0.0003481
0.02239
0.4851
0.002345
0.004287
0.3535
0.004196
0.0003713
0.2478
0.001328
0.01311
0.001782
1.078e-05
0.1969
0.5569
0.004056
0.6534
0.007144
0.1723
0.15
0.0005399
0.0003013
2.834e-06
0.003101
0.005235
0.0003288
0.0002031
0.0008314
0.01322
1.086e-05
0.03198
0.001886
7.682e-05
0.01585
0.001079
0.002681
0.0001804
0.01032
0.004147
2.18e-05
0.0003226
2.519e-05
0.0008243
0.0001008
2.311e-05
0.02365
0.006068
0.002171
0.01411
0.004726
0.5642
0.001766
0.001188
0.0005709
0.004805
0.004964
0.001473
0.3462
0.01083
0.4516
4.204e-05
0.2977
0.005206
0.0631
1.072e-05
0.00254
0.3562
0.2075
0.01637
0.5892
0.0001076
0.0001843
0.01835
0.004054
0.002784
0.001971
0.005979
0.008097
0.005662
0.01158
0.01969
0.1441
0.001153
0.09337
0.5969
0.01355
4.995e-07
0.001788
0.4248
0.0005829
0.001147
0.0004739
0.0006575
0.0007893
0.005984
0.005166
0.1701
1.376e-05
0.001934
0.01664
0.04257
0.02318
0.06996
0.01394
0.3792
0.001373
0.00963
0.0008233
0.234
0.0005738
0.01287
0.002621
0.01739
0.5684
0.02324
0.03348
0.01829
0.4211
0.0007181
0.5704
0.002947
8.717e-05
0.053
0.006537
0.00032
0.001101
0.0007403
0.003212
0.001617
1.423e-05
0.0006701
0.0008608
0.0007855
0.04082
0.008563
0.009598
0.003814
0.003914
0.01895
0.003499
0.01022
0.01916
0.567
0.000266
1.281e-05
0.001426
0.0009337
0.01197
0.5566
0.004265
0.4893
0.0001728
1.932e-05
6.903e-07
0.0009098
8.493e-06
0.001907
1.663e-06
0.003079
0.003292
0.02501
0.0004278
0.05176
0.02321
0.00469
0.001844
0.0384
0.3627
0.01787
0.0004109
0.001036
0.1096
0.0005636
0.3206
0.0001585
0.001882
0.0001176
0.03245
7.984e-05
0.003124
0.4132
0.000674
0.0009574
0.0007128
3.673e-05
0.5745
0.005539
0.06387
0.0001545
1.089e-06
0.04193
0.001317
0.0003126
0.0001252
8.128e-06
0.08351
0.3444
0.0007557
0.007155
0.001508
0.009734
0.5844
0.003943
0.004255
0.01936
0.06253
0.0001913
0.04858
0.002063
0.0003742
0.0006516
0.4118
0.001573
0.221
0.07004
0.541
0.008585
0.0009092
0.5249
0.1365
0.01977
0.08723
0.009337
0.004588
0.3634
0.05277
5.995e-05
0.003208
8.537e-05
0.006331
0.007924
0.00739
0.0006029
0.5687
2.601e-05
0.003216
0.0004447
0.571
0.5768
0.002182
0.004789
0.0009183
0.00143
0.1721
0.01362
0.3684
0.01695
0.004808
0.0002202
0.0001067
4.946e-06
0.0005822
0.002162
0.0162
0.0916
0.416
0.01983
0.1038
0.0001595
0.5726
0.2767
6.543e-06
0.01897
0.3962
0.0001647
0.002325
0.009393
0.004392
0.005363
0.5707
1.009e-05
0.5677
0.003355
0.606
0.0008693
0.1954
0.007372
0.4558
0.007075
3.338e-06
0.1827
0.006103
0.002242
0.3583
0.3889
0.01498
3.766e-06
0.003285
4.947e-07
0.004847
1.977e-05
0.01091
0.001224
0.02052
2.01e-05
9.863e-05
4.077e-05
1.978e-05
0.01831
0.002657
2.536e-05
0.0001607
1.643e-05
0.02292
0.005952
0.003405
2.191e-05
0.003747
0.4168
0.4841
0.3024
7.971e-07
0.001477
0.001402
0.1055
0.009117
0.003636
0.2431
0.4837
0.008149
0.01349
0.0007683
0.001908
0.4119
0.00197
0.0676
0.002857
0.01876
0.04645
0.03083
0.4895
3.868e-05
0.00161
0.001984
0.006308
0.03
0.0001946
0.00164
2.693e-05
0.5898
0.01924
0.5129
9.966e-05
0.0005116
0.5622
0.002453
0.002151
2.639e-05
0.03188
2.562e-05
0.007172
0.001042
0.2619
0.007659
0.0002502
0.007745
0.02249
0.005227
0.001708
0.06032
0.009049
0.0009097
0.0006991
0.05698
0.01199
0.03396
0.5709
0.001352
0.0002468
0.001487
0.2361
9.18e-05
0.0002872
0.005119
0.0003035
0.02375
0.5285
0.06896
0.007795
0.000396
3.278e-05
1.992e-05
0.006664
0.001561
0.014
0.001447
0.003108
0.001596
0.002304
0.03276
0.0002364
0.002585
0.603
2.092e-05
0.00687
0.3764
0.02058
0.006101
0.0002463
0.01188
0.003426
0.004688
0.0001392
0.0002775
0.002444
0.01048
0.0001722
0.008345
0.008065
0.02048
0.0007205
0.0009911
0.001996
0.003466
0.6056
0.5737
0.3681
0.575
0.05818
1.087e-05
0.1443
0.005363
0.01167
0.02979
0.001336
0.001634
0.0001044
0.2968
0.006652
6.885e-06
0.1292
0.04705
0.04491
0.01365
0.3465
0.002963
7.898e-05
0.0002402
0.002737
5.421e-05
0.0001878
0.02277
6.126e-06
0.0004402
0.01836
0.01132
0.001624
0.009729
0.004766
0.005357
2.058e-05
0.4971
0.03569
5.215e-06
0.0009339
0.07651
0.6324
1.769e-05
0.01087
0.000165
0.03582
0.001389
6.847e-07
0.01092
1.816e-05
0.6327
0.0552
0.001364
0.004247
0.003019
0.0313
0.5701
0.002114
0.4031
0.05629
0.0001447
0.002742
0.1208
0.001319
0.001345
0.5743
0.313
0.01089
0.08007
0.001796
0.06625
0.00458
0.02537
0.0001647
0.009143
0.0394
0.1638
0.002454
0.002192
0.006885
0.05588
0.3422
1.32e-06
0.01841
1.772e-06
0.5603
0.0003493
0.5367
0.0005607
0.5417
0.01914
0.007867
0.4678
0.003973
0.4963
0.4909
0.00628
0.0002657
0.5863
0.5278
0.0001253
2.637e-05
0.0006097
0.0006386
0.04688
0.5738
0.1769
0.0002657
0.0005058
0.001872
0.5147
0.007004
0.0039
1.985e-05
0.06903
0.5794
0.005995
0.0005966
0.00959
0.0001555
0.5316
0.004967
0.003877
0.0006072
0.000108
6.25e-06
0.5759
0.001216
0.007887
0.0007873
0.004877
0.004894
0.0145
0.002537
0.005338
0.1653
0.009403
0.00169
0.004817
0.4955
0.01722
0.562
6.797e-05
0.0214
0.0207
0.002466
0.0002497
0.003215
0.001887
0.007321
0.01349
0.01145
0.00152
0.4126
0.001744
0.009077
2.422e-05
0.252
0.002019
0.001855
0.008739
0.3825
0.006055
0.009994
0.002625
0.5707
0.4336
0.008279
8.809e-05
0.04151
0.4045
0.01015
0.004625
0.04465
0.0002029
0.4421
2.111e-05
0.00321
2.172e-05
0.003076
0.01199
0.0128
0.5906
0.002326
0.00301
0.5499
0.002445
0.004656
0.0192
0.006425
0.0003385
0.5532
0.01271
0.0003941
0.003223
5.71e-05
0.0001498
0.0001712
1.488e-05
0.5457
0.00639
0.008633
0.03776
0.01933
0.000277
2.003e-05
0.003653
0.007592
0.3192
0.001391
0.00295
6.98e-05
0.01761
0.0001844
0.00304
0.022
0.0002072
0.413
0.6065
0.3265
0.002493
0.4526
0.00564
0.02012
0.0001147
1.474e-05
0.02186
0.0005012
0.02396
0.0004583
0.05093
0.01258
0.000622
0.01558
0.1638
0.0002221
0.003634
0.06289
0.0009634
0.3783
0.007499
0.008784
0.4282
0.664
0.01349
0.01639
0.008879
0.006994
0.002726
0.0001363
0.02935
1.092e-06
0.002447
0.002048
0.001094
0.008743
0.5714
0.02254
0.01593
0.4599
0.02416
0.001347
0.03054
0.01122
0.002068
0.003546
0.001173
0.009935
0.0002452
0.5565
5.048e-05
0.005426
0.007368
0.0001335
1.202e-05
0.02462
0.007968
0.0003824
0.01345
0.0009432
0.005058
0.02725
7.043e-05
0.003888
0.001152
0.008758
6.702e-05
0.0006926
0.009344
0.3858
5.611e-06
0.5396
0.000336
6.262e-06
0.0006511
0.006832
0.0006364
0.2201
0.0216
0.01653
0.0005969
0.005247
0.1584
0.003988
0.05263
0.00294
0.01235
0.0001593
0.5049
0.01195
0.0003627
0.00225
0.001502
0.4308
0.0003736
0.5028
0.0006468
0.009355
2.236e-05
0.5658
4.914e-06
0.009794
0.002675
1.938e-05
0.003204
0.2298
0.002013
0.2465
0.0001354
0.2359
0.001951
0.004223
0.00311
0.07308
0.04139
0.008334
0.2109
4.739e-05
0.002122
0.008773
0.0002691
2.685e-05
0.01243
0.001288
1.36e-05
6.25e-05
0.005715
0.001606
0.08113
0.003341
0.003043
0.0003705
0.1037
0.009474
0.0102
1.29e-05
0.0001839
0.515
0.05614
0.02933
0.0007127
0.1181
0.0007448
0.02544
0.0001849
0.002103
3.458e-05
0.01067
0.003326
0.2873
0.008933
0.3761
2.071e-05
0.003498
0.009349
0.3468
0.0004359
0.3582
0.004701
0.6062
0.06604
0.009158
0.004224
0.0005205
0.578
0.001115
0.004004
0.04311
0.5822
0.0212
0.1744
0.005504
0.04933
0.569
0.5766
3.203e-05
0.0005847
0.000128
6.616e-06
0.0007149
9.399e-05
0.00205
0.007027
0.003636
0.0001235
0.003304
0.00097
0.003113
0.4848
0.0006528
0.008208
6.147e-06
0.5512
0.6301
0.0002314
0.002946
0.0005759
0.3513
6.666e-06
0.5948
0.02048
0.06938
0.003092
0.05274
4.948e-05
2.02e-05
0.002063
0.3294
0.07075
0.4557
0.002676
0.0131
0.001147
0.009243
6.047e-05
0.005479
0.02956
0.0002502
0.01057
8.727e-05
0.003615
0.008192
0.00111
0.001795
0.004915
0.0009854
0.02906
0.0007219
7.758e-07
0.0001094
0.0004642
0.0009276
3.716e-05
1.243e-05
0.5731
0.002428
9.123e-06
0.3327
0.005333
0.01639
0.0491
0.0003217
0.542
0.003586
0.4834
0.0004939
0.579
0.01392
0.004486
0.002583
0.002671
0.004992
0.0001457
0.000106
0.001141
0.02828
0.001344
0.006687
0.03971
0.0006591
0.4998
0.01425
0.000649
0.02515
0.02211
0.01517
0.0003523
0.0007105
0.01406
0.005411
0.000781
0.02157
0.02551
0.01595
0.02234
0.0005885
0.04364
0.0001512
5.521e-07
0.003401
0.002469
0.007993
0.0009517
0.002339
0.002653
7.127e-05
0.4733
0.4657
0.03468
0.001172
0.0006047
0.00918
0.003081
1.815e-05
0.1078
0.004058
0.08961
0.004822
0.01682
0.0001348
0.02802
0.0007562
0.01733
0.6058
0.001822
4.046e-06
0.4518
0.05323
0.04295
1.043e-06
0.003156
0.0004478
0.003066
0.02486
0.002254
0.02537
0.001596
0.001737
0.07063
0.03203
0.01911
0.01235
0.03291
0.001119
0.385
0.01068
0.004299
0.1194
0.2851
0.007337
0.01854
0.002693
0.01647
0.02368
0.005228
0.01388
3.481e-05
0.0009343
0.01936
0.008255
0.0001887
0.5056
0.002658
0.002041
0.201
0.5703
0.0002448
0.0003289
0.005812
0.0007584
3.367e-06
0.0009391
0.0002815
3.048e-05
0.005794
0.6018
3.114e-05
0.000131
0.003126
0.2376
0.002159
1.895e-05
0.2879
0.01788
9.799e-05
0.6308
0.04237
0.005876
0.007299
0.0002268
0.01411
0.01022
0.5046
0.5969
0.459
0.0004781
0.008066
0.004883
1.257e-05
0.003672
0.0006771
0.002962
0.000102
0.6074
0.003097
0.487
0.01056
0.0002365
0.0003648
0.002726
0.0003317
3.327e-05
0.0138
0.1071
0.005139
0.4118
0.0008525
0.0002124
0.002604
0.006702
2.224e-05
0.007826
0.006883
0.6053
0.001793
0.0008262
0.001609
0.2861
0.0001992
0.002604
0.001793
0.005719
0.005776
0.002122
2.295e-05
0.0004795
2.853e-06
0.005738
0.5509
0.08104
0.2365
0.002364
0.0001911
0.6508
0.05643
0.04978
1.076e-05
0.004468
0.008583
0.04435
0.3142
0.3027
0.0002941
0.0005779
0.009437
0.007443
0.003091
0.04322
1.99e-05
0.003797
0.001511
0.005679
3.962e-05
0.4862
0.004285
1.372e-05
1.313e-06
0.01634
0.004343
0.0006275
2.188e-05
4.602e-05
0.0005857
0.5573
0.000277
0.0061
5.77e-05
0.3839
0.02074
2.015e-05
0.01097
0.005082
0.006336
0.337
0.2989
0.001767
0.5478
0.0001482
0.0002828
0.4804
4.628e-07
0.0006663
0.0006317
0.002294
0.004704
0.2218
4.024e-05
0.001234
0.02046
0.000815
0.01362
0.003841
0.4281
0.01135
0.3952
0.001857
0.06174
0.0008434
0.3442
0.1388
0.01499
0.01288
0.3111
0.438
0.4812
0.0003487
1.973e-05
0.009791
0.246
0.02138
0.01934
0.0174
0.001398
2.425e-05
0.2245
2.225e-05
0.03482
0.000173
0.6417
0.006657
0.0005016
0.004781
0.007186
0.1691
0.0002316
0.00156
0.002596
0.006023
0.003077
0.572
1.109e-05
0.001266
0.001218
0.4012
0.004458
0.001183
0.6174
0.007408
0.0002114
0.637
0.0003625
1.994e-05
0.5903
0.004155
0.6503
0.008136
0.004025
0.01877
0.003766
0.00529
2.623e-05
9.372e-05
0.0004427
0.0006783
0.0001797
0.007397
0.002485
0.5771
0.02768
0.003863
0.002719
0.009441
0.01404
0.002994
0.02654
0.001111
3.659e-05
0.3999
7.18e-05
0.3696
0.01275
0.004487
0.01069
0.0002501
0.05317
0.306
0.0008995
0.002797
0.1271
0.0099
0.04436
0.0001211
0.5676
0.003499
0.001352
0.008742
0.006433
0.0008221
0.0001443
0.01027
0.0009323
0.0536
2.059e-05
0.01592
0.0002467
0.01808
0.0001252
0.0007934
0.02986
0.0008157
0.0004856
0.002231
0.008208
0.004142
0.4171
4.342e-05
0.02317
0.001508
0.003314
0.02229
1.995e-05
4.321e-05
0.004358
0.001334
0.02871
0.2761
0.01159
0.006936
0.1144
0.005361
0.001744
0.001001
0.0007638
0.002762
9.704e-05
0.001268
0.0001227
0.0007536
0.007192
0.001537
0.1198
0.0002899
0.02949
3.903e-05
0.3884
0.3785
0.01327
0.3671
0.02047
0.0001244
0.01156
2.06e-05
0.00249
0.001547
2.306e-05
0.04037
0.2651
0.01092
0.4366
0.01653
0.02049
0.5146
2.457e-06
0.0003717
0.0001227
0.0003167
0.002485
0.6102
2.489e-05
0.008838
0.5443
0.382
0.009998
1.88e-05
0.01551
0.002517
0.002255
0.01998
1.505e-05
0.03472
0.0002199
0.02157
1.09e-05
0.006104
0.09311
0.0001921
0.00655
0.001479
0.003274
0.0007609
0.6096
0.008675
0.0004478
0.001672
0.008338
0.02434
0.006173
0.4046
0.4038
0.3431
0.004741
4.363e-05