/*--------------------------------*- C++ -*----------------------------------*\
| =========                 |                                                 |
| \\      /  F ield         | OpenFOAM: The Open Source CFD Toolbox           |
|  \\    /   O peration     | Version:  v2012                                 |
|   \\  /    A nd           | Website:  www.openfoam.com                      |
|    \\/     M anipulation  |                                                 |
\*---------------------------------------------------------------------------*/
FoamFile
{
    version     2.0;
    format      ascii;
    class       volScalarField;
    location    "5";
    object      p;
}
// * * * * * * * * * * * * * * * * * * * * * * * * * * * * * * * * * * * * * //

dimensions      [0 2 -2 0 0 0 0];


internalField   nonuniform List<scalar> 
124707
(
-0.3929
-0.2656
1.599
-0.02834
0.332
-0.2707
1.244
-0.3941
-0.1868
1.106
-0.3799
0.8322
-0.2303
-0.3794
0.3255
0.4141
-0.3875
-0.3847
-0.2424
-0.1999
0.02307
0.04509
0.942
0.1757
0.7542
-0.1414
-0.1198
0.4149
-0.1058
0.591
-0.1309
1.914
1.915
1.943
-0.1055
-0.01106
0.1629
0.001223
-0.1356
0.04305
0.2473
-0.1993
-0.1545
-0.15
-0.1405
-0.06006
-0.1271
0.2229
0.9236
-0.1373
0.0008471
0.02818
-0.08403
-0.0751
0.2707
-0.1381
0.01304
-0.05453
-0.3867
-0.05733
0.4191
0.003027
-0.2111
-0.178
0.1261
-0.07728
0.02076
-0.04249
-0.2402
-0.1421
-0.247
1.958
0.1851
0.0004166
-0.07147
-0.1566
-0.1166
-0.05892
-0.009499
-0.1324
-0.1603
-0.1682
-0.1816
0.1566
-0.03691
0.001943
-0.1579
0.002129
-0.01405
-0.171
0.02052
-0.1315
-0.1393
-0.1629
0.04206
-0.2434
0.03851
-0.07704
0.8292
1.11
-0.05772
-0.1607
1.436
-0.03764
-0.1022
-0.005089
0.0004735
-0.1599
0.03279
0.2152
0.001609
-0.1573
-0.04982
-0.08786
-0.03353
0.001291
-0.003258
1.161
-0.1502
-0.1241
-0.1372
0.4747
-0.2
-0.1381
-0.1846
-0.2529
-0.06743
-0.1477
0.004995
-0.2304
-0.209
-0.17
-0.2416
-0.0141
-0.01077
-0.3537
-0.1011
-0.1223
-0.1612
-0.1525
-0.1367
0.001622
-0.3623
0.01712
-0.14
-0.1372
-0.1475
-0.05275
0.000369
0.878
-0.04795
0.0003796
0.004354
-0.1173
-0.1176
-0.1735
0.03215
-0.1664
-0.1742
-0.1544
0.01656
-0.1296
0.01145
-0.1636
-0.2822
-0.1241
-0.2141
-0.00851
-0.05342
0.01319
-0.1537
0.6565
-0.1896
-0.1616
-0.1966
-0.1322
0.01786
0.4926
-0.03403
0.06543
-0.161
0.4798
0.0007381
0.3068
0.09108
0.000713
-0.0007639
-0.05868
-0.08699
-0.2122
-0.1006
-0.1431
-0.02708
-0.1697
0.3804
0.9157
-0.1625
-0.07782
0.001799
0.001547
-0.1621
-0.007668
0.07439
0.2378
0.005294
-0.1345
0.00145
0.01053
0.4696
-0.1162
0.6675
-0.1334
-0.14
-0.14
-0.1153
-0.1218
-0.1605
0.08748
0.00157
-0.04173
0.567
-0.1499
-0.01224
-0.1702
-0.02805
0.332
-0.2183
-0.1365
-0.161
-0.1219
-0.1041
-0.01697
-0.2094
1.713
-0.2013
-0.1245
0.07633
0.008141
-0.1226
-0.136
0.004548
0.001354
-0.009061
-0.05231
0.1697
-0.2046
0.01712
0.01124
-0.1093
0.005967
-0.1214
-0.1666
-0.06872
0.2766
1.296
-0.04703
-0.0952
-0.01455
-0.125
-0.1469
-0.07721
0.01716
-0.1369
-0.1241
-0.2828
0.0006147
-0.1701
-0.0562
-0.1255
0.5714
0.6645
0.0003455
-0.217
-0.236
0.2954
0.1457
0.01352
-0.08323
-0.03405
0.1489
-0.1548
-0.146
0.385
-0.007659
-0.09934
-0.145
0.1205
-0.01533
-0.1416
-0.1628
-0.1392
0.295
0.1689
-0.1342
0.1856
-0.05752
-0.1212
1.016
0.1709
-0.1514
-0.1443
0.076
0.002726
0.01805
0.00259
0.01075
-0.3321
0.1686
0.03198
-0.1033
-0.1216
-0.1255
-0.05178
1.244
-0.01364
0.001366
0.001497
-0.09703
-0.1685
1.25
1.846
-0.006935
-0.05968
-0.1598
0.006828
-0.05059
-0.1094
-0.05565
-0.08057
0.001409
-0.04326
-0.2184
0.002359
-0.05565
-0.007895
-0.3838
-0.1192
-0.1242
0.7356
-0.1137
-0.1798
0.0169
-0.2155
0.2255
0.5939
-0.01677
-0.1091
1.373
0.03684
0.2753
-0.1556
0.3285
0.0232
0.3196
0.01172
-0.2564
-0.3
-0.1623
-0.2355
-0.1244
-0.1651
-0.09785
0.1799
-0.1522
-0.1529
-0.1527
-0.1435
-0.1764
-0.09452
0.0157
-0.1332
0.444
0.02019
-0.111
-0.03516
-0.1712
-0.1752
0.1916
0.02015
-0.1368
1.974
0.002162
1.765
-0.1914
0.1162
0.001903
-0.05096
-0.09884
-0.1524
0.8577
0.01406
-0.05026
0.1151
0.01074
-0.3758
-0.1268
0.1704
0.9364
0.03695
-0.1172
0.07093
-0.1051
0.005948
-0.1569
0.1417
-0.1001
-0.1589
-0.01126
-0.1628
0.1057
-0.1388
0.02157
0.06613
0.0009846
-0.2043
-0.1483
-0.1584
-0.2094
0.1928
-0.1281
-0.1258
0.04336
-0.1393
-0.1598
0.001733
0.02189
-0.1042
-0.1277
-0.1424
-0.1204
0.4334
0.008556
-0.1381
-0.1033
0.09702
-0.1526
-0.2557
-0.09365
-0.05905
-0.2108
-0.005576
0.1477
0.8178
0.0009411
-0.1421
0.0009223
-0.1542
-0.08843
-0.01249
-0.09581
0.02755
1.688
0.02007
-0.05172
0.2595
-0.1084
0.0007157
-0.1235
-0.2142
-0.1428
0.003114
0.007024
-0.1987
-0.01466
0.3025
0.3083
-0.1491
0.2876
-0.1709
-0.1447
0.3907
-0.09487
-0.2751
-0.1782
0.741
-0.1517
0.2451
0.02142
0.1634
-0.09765
-0.1543
0.0005293
-0.1567
0.1236
-0.1205
-0.09514
-0.289
0.02881
-0.1818
0.0005649
-0.1233
0.05623
-0.01154
0.8384
0.1984
0.04693
0.01774
-0.2352
-0.1621
-0.1399
1.907
-0.1516
0.002578
0.4428
0.6672
-0.05
0.1783
-0.05248
-0.1423
0.002215
-0.08628
-0.1774
0.5615
-0.1777
1.925
-0.01233
0.2258
-0.1278
-0.1761
-0.1313
0.006601
-0.1558
-0.2003
-0.1248
-0.04427
0.02198
-0.1042
0.6673
-0.1523
-0.1791
0.8939
-0.0002366
0.01959
-0.0179
-0.1469
0.1091
0.03968
-0.08009
-0.2153
-0.1573
0.0554
0.1823
-0.1283
0.05391
-0.1624
0.0008741
0.01804
0.824
-0.164
-0.19
0.000257
0.002022
0.002401
-0.04339
-0.1277
0.575
-0.01205
0.4951
-0.07698
-0.2155
-0.08927
0.02438
0.2381
-0.2072
-0.02614
-0.1692
0.3224
0.002021
-0.1418
-0.06034
-0.07195
-0.145
-0.2148
-0.1648
-0.09594
-0.123
-0.137
-0.1657
0.1777
-0.1564
-0.1625
0.01672
-0.2203
-0.03551
-0.2484
-0.4208
0.0144
-0.194
0.02117
-0.1128
-0.1246
-0.03009
-0.2071
-0.1305
-0.1482
0.001181
-0.1581
0.02198
-0.09591
-0.1472
-0.05653
-0.1392
-0.009414
0.0002858
-0.1402
-0.04411
-0.08935
0.4518
-0.1707
0.1291
-0.2777
0.0001717
-0.2061
-0.1984
0.002744
0.4115
-0.08141
-0.2076
0.002526
0.1399
0.003392
1.959
-0.06184
-0.2196
0.4315
0.1453
0.001315
0.002261
-0.1256
-0.1161
-0.1234
0.01058
-0.05095
-0.0597
-0.1499
-0.1471
-0.1499
-0.111
-0.1749
-0.1409
-0.04206
-0.1628
-0.1579
-0.1417
0.01431
0.003316
0.1178
0.000519
-0.3355
-0.1691
-0.07059
-0.04548
-0.119
-0.1663
0.0009275
0.4635
0.3799
-0.02269
-0.125
0.02181
1.793e-05
-0.1505
0.8646
0.05601
-0.1324
-0.107
-0.1521
-0.1408
-0.05246
-0.09922
0.1282
-0.1496
-0.2078
-0.3722
-0.08689
-0.1679
0.000599
0.7141
-0.09057
1.429
-0.1235
0.1775
-0.1415
-0.1555
0.002601
-0.1417
0.001163
-0.1569
-0.3003
-0.1514
-0.1266
-0.151
-0.1448
-0.1656
-0.1561
0.03727
-0.1535
0.02874
0.001119
-0.1497
-0.1958
-0.1202
0.301
-0.1644
-0.1433
-0.09834
-0.1515
0.122
-0.1552
0.04284
-0.2053
0.01125
-0.1564
0.1759
-0.1148
-0.08538
-0.07803
-0.1577
-0.1482
-0.02258
-0.1286
-0.1305
-0.1608
-0.1423
-0.08415
0.000628
1.934
-0.1503
-0.2251
-0.07443
0.213
0.1249
-0.01494
-0.1378
-0.1552
-0.1504
-0.1474
-0.2273
0.07451
-0.15
-0.0981
-0.1059
-0.009757
0.8153
-0.01642
0.03659
-0.1651
0.002189
-0.1265
-0.1437
0.002488
-0.1032
-0.1273
-0.09546
-0.07595
-0.08626
-0.004431
0.4504
-0.1559
-0.1241
-0.1352
0.1835
-0.05154
-0.06698
-0.1515
-0.1138
1.072e-05
0.04775
0.002597
-0.1652
-0.1376
-0.1549
-0.09152
-0.1307
0.0003801
0.0156
-0.04863
-0.12
-0.002142
-0.07194
-0.1273
-0.05453
-0.1396
-0.01414
-0.05299
0.2525
0.295
-0.2131
-0.1601
0.0004928
0.001366
-0.07312
-0.1782
-0.1428
-0.1718
-0.08889
-0.1396
-0.1421
-0.09322
-0.1222
-0.1392
0.002018
-0.05133
0.8526
-0.1141
0.3013
0.005933
-0.1419
-0.1635
-0.2603
-0.3682
-0.03812
-0.02969
-0.1245
-0.1939
0.02717
-0.1637
0.01469
0.1689
-0.1402
-0.141
0.3515
-0.1592
0.009632
-0.182
0.007307
0.03651
0.0008955
-0.08833
0.3297
-0.1358
0.3729
-0.1316
0.4361
-2.244e-05
-0.1587
-0.2028
0.504
-0.1129
-0.1181
-0.18
-0.1548
-0.1139
-0.1531
-0.1679
-0.1365
-0.1401
-0.2047
-0.1654
-0.2168
-0.21
-0.1004
1.427
1.213
-0.1603
-0.1775
-0.2436
-0.01511
-0.1637
-0.1856
0.1986
-0.1079
-0.1073
0.1284
0.0316
-0.1901
-0.05826
-0.1042
-0.1777
-0.08182
-0.1395
-0.0863
-0.1583
-0.08761
-0.1148
-0.06949
0.01829
-0.1357
0.0002037
-0.1618
-0.1625
-0.08478
-0.2127
-0.1528
-0.1265
0.2425
0.03618
-0.2497
-0.1432
0.001845
0.1678
-0.1301
-0.1543
-0.09053
0.5483
0.01627
-0.1075
-0.1292
-0.0649
-0.3705
-0.2921
0.000985
-0.1556
-0.05252
-0.01453
-0.05275
-0.1555
0.02288
-0.2133
-0.1412
0.0016
-0.1547
0.01235
-0.1992
-0.01525
-0.1412
-0.1825
0.001737
-0.06371
-0.01118
-0.1619
-0.07818
0.002926
-0.1662
0.0007999
-0.1186
0.02473
-0.172
0.2573
-0.1576
-0.1758
0.003822
0.001675
-0.1602
-0.1207
0.04742
-0.1381
-0.2326
-0.1411
-0.1351
0.8018
-0.06107
-0.08491
-0.1212
-0.0862
-8.761e-06
-0.1639
-0.0887
0.08322
-0.1768
-0.192
0.01863
-0.1706
0.0339
1.895
-0.1719
-0.01694
0.04629
-0.1684
-0.146
0.02549
-0.1328
-0.003263
-0.1912
0.09997
-0.1252
1.426
0.2037
-0.1665
-0.07421
-0.135
-0.01119
-0.1858
-0.1033
-0.07399
-0.171
-0.1154
-0.1707
-0.266
-0.2197
-0.1025
-0.1229
1.726
-0.1394
-0.1559
-0.2312
0.3675
-0.1411
0.6999
0.3775
-0.119
0.01158
-0.1399
-0.1373
-0.1246
0.1508
-0.09019
1.701
-0.2269
-0.2286
0.2169
-0.2884
0.01784
0.2625
0.1234
-0.1392
-0.1478
0.01704
-0.1814
-0.04477
-0.1619
0.9644
-0.1989
0.1633
-0.02733
0.3939
-0.1229
-0.2294
0.1746
-0.04902
0.01507
-0.1275
0.5543
-0.0008414
-0.1475
0.1668
-0.1391
-0.1016
-0.1302
0.5452
-0.1006
-0.1501
-0.2661
-0.112
0.03098
-0.1911
-0.1389
-0.166
0.1025
0.01437
-0.1149
-0.1515
-0.01217
-0.2709
-0.1384
0.33
0.002393
0.005814
-0.07508
-0.1282
0.06775
-0.08887
-0.1675
-0.1038
0.4081
0.06949
-0.06619
0.206
-0.05367
-0.0973
0.001322
0.002894
-0.1296
-0.1352
0.2194
-0.1139
0.004992
0.002196
0.01838
-0.1505
-0.3805
0.0006168
1.165
1.556
-0.1837
0.5868
0.003019
-0.01488
0.561
0.1479
-0.1589
-0.2105
-0.01564
-0.1433
1.329
-0.06633
-0.1492
-0.1485
-0.07141
-0.1364
-0.1322
0.3772
-0.1319
0.163
-0.1496
-0.07511
-0.01529
0.0196
-0.03197
-0.2679
-0.02574
1.296
-0.01661
0.04389
-0.146
0.009447
-0.181
-0.1199
-0.3776
-0.1323
-0.02628
-0.1903
-0.05238
-0.162
0.008842
-0.127
-0.1265
-0.1751
-0.01257
-0.1555
-0.05732
-0.1476
0.02447
-0.06249
-0.1621
0.04223
0.02251
-0.3194
0.4257
-0.05712
0.004422
-0.1557
-0.1645
-0.134
-0.187
-0.1549
-0.04013
-0.1533
-0.2101
0.001019
0.02643
1.966
0.23
-0.1297
-0.1716
-0.1475
-0.1293
-0.2159
-0.1079
-0.08127
-0.02411
0.01862
0.07369
0.2269
-0.1639
0.4081
-0.1103
-0.1766
0.04062
-0.1373
0.09764
1.146
-0.135
-0.04076
0.0035
0.01375
0.0016
-0.1361
-0.1599
0.008296
0.0723
-0.191
0.01539
-0.204
0.3902
-0.2536
-0.07142
-0.137
-0.2182
0.0005476
-0.1994
-0.1329
-0.1176
-0.07755
0.9602
-0.1314
0.06268
0.001681
0.357
-0.1511
-0.0157
0.3029
-0.107
-0.1552
-0.09015
0.455
-0.06496
-0.0005826
-0.1675
-0.1543
0.002253
-0.001261
-0.3899
-0.0838
-0.08009
-0.1099
-0.1042
-0.1952
-0.1424
0.0704
0.3492
0.0007445
0.01263
-0.1258
-0.2139
-0.1391
1.79
-0.1633
-0.1833
-0.1574
-0.2397
0.692
0.000512
-0.111
-0.1679
0.001351
0.8601
0.01427
0.016
-0.124
-0.07794
-0.1992
0.01714
-0.05692
0.003189
0.05948
0.2097
-0.04241
-0.1303
-0.1114
0.02043
-0.1143
-0.1346
0.01376
0.01924
1.189
0.002813
-0.125
-0.1684
0.2156
-1.38e-05
-1.839e-05
-0.1516
0.8943
-0.1063
-0.1511
-0.007786
-0.1282
-0.1471
-0.1582
0.3335
-0.1323
-0.1377
0.001065
-0.1787
0.01624
-0.2751
-0.1716
-0.07855
0.03869
-0.2088
-0.1286
-0.04236
0.01436
0.353
-0.1606
0.07241
-0.08764
0.3369
-0.01366
1.235
-0.191
-0.1588
-0.171
-0.1597
0.09424
1.185
-0.1541
0.0489
-0.1744
0.006855
0.01326
-0.0913
0.03274
-0.1267
-0.111
-0.04391
-0.1203
-0.1239
-0.1653
-0.1173
-0.1221
0.01335
0.03648
-0.1929
-0.1614
-0.3036
-0.1741
-0.1312
-0.0726
-0.1393
-0.1726
0.001006
0.05856
-0.1508
-0.04161
-0.1716
-0.1499
0.01696
-0.1824
-0.2212
-0.1753
-0.06709
-0.1654
0.5849
-0.08985
-0.07468
-0.1634
-0.1448
-0.2633
-0.1445
0.003601
-0.06053
0.09873
-0.1846
-0.1555
0.2441
0.01163
-0.03301
-0.07155
-0.1094
0.0003318
0.01325
0.002285
0.3546
-0.2157
-0.1556
-0.168
-0.1859
0.002219
0.2885
-0.08569
-0.2602
0.2268
0.01305
-0.08869
-0.1489
-0.01465
-0.2076
-0.06667
-0.1208
-0.0738
-0.129
-0.1972
-0.117
1.713
-0.1551
-0.135
-0.1732
0.002309
0.279
1.689
-0.1415
-0.07217
-0.09995
-0.1304
-0.2586
-0.09974
-0.1475
0.01065
-0.3601
-0.1544
0.0008286
-0.126
-0.2882
0.02035
-0.1196
-0.02715
-0.2204
0.003582
-0.1434
-0.03132
-0.05659
-0.006437
0.6326
-0.1684
-0.03139
-0.1138
-0.1364
-0.03994
-0.2392
-0.1371
-0.1593
-0.0949
-0.2782
-0.1707
0.01806
-0.1096
-0.1541
-0.1525
-0.1432
-0.1314
-0.01759
0.3712
-0.1499
-0.1282
0.08124
-0.0676
1.147
0.002536
0.256
0.05537
-0.05813
0.3497
-0.1149
-0.05259
-0.09791
-0.1299
-0.1872
-0.003191
-0.1484
-0.1353
-0.1393
-0.3145
0.3735
-0.1687
-0.1925
-0.1481
-0.1554
-0.1463
-0.1381
-0.1519
-0.07838
-0.1618
-0.2236
-0.1248
-0.1323
-0.3483
0.6013
-0.2017
-0.1129
0.0006274
-0.0652
-0.1354
-0.1607
0.01491
-0.1113
-0.1639
0.04702
-0.1104
-0.01436
0.004881
-0.1139
0.0002693
0.03342
-0.06436
1.602
0.02307
-0.1204
-0.1722
-0.1688
-0.1639
-0.02603
0.3098
0.1437
-0.04578
-0.1282
0.4861
0.1359
-0.1441
-0.1265
-0.1201
0.8942
0.001398
-0.04085
-0.231
-0.1223
-0.06274
-0.08007
-0.1312
1.786
-0.1023
0.01481
0.01339
-0.05364
-0.08586
-0.1806
-0.1666
-0.1344
-0.1609
0.02923
0.04422
-0.2163
0.01446
-0.1164
-0.1819
0.7083
-0.2014
0.01325
0.4455
-0.09046
-0.2165
-0.1482
-0.07259
0.02238
0.002068
0.00199
-0.148
1.719
-0.121
-0.07648
-0.1515
-0.1363
0.0007406
-0.1529
-0.1464
-0.1295
-0.1596
0.2428
0.4657
-0.1096
-0.1869
-0.06484
0.3968
0.4902
-0.13
-0.08797
0.8964
-0.007091
0.009763
-0.1319
-0.1063
-0.09599
-0.1264
0.01391
-0.1888
0.7742
-0.1969
-0.2446
-0.139
0.04384
-0.1446
0.5664
0.01578
-0.1427
-0.1592
0.001335
-0.1724
0.002183
-0.09256
-0.01808
-0.1215
-0.07937
-0.1485
-0.09918
-0.004516
0.019
-0.1201
-0.121
-0.1114
-0.009891
-0.1498
0.04685
-0.07805
-0.1307
-0.05747
-0.1674
-0.1198
-0.1734
-0.1147
-0.2278
-0.1101
-0.2894
-0.2213
-0.133
-0.1749
-0.2127
-0.05403
0.08919
-0.1082
-0.06562
0.1217
-0.1266
-0.1689
0.2577
-0.1714
-0.06832
-0.2291
0.4395
-0.2425
-0.1633
0.5042
-0.05801
-0.06926
-0.1917
0.4322
0.01522
-0.2145
-0.1303
0.4429
-0.3083
0.1555
0.001411
0.001273
-0.1296
-0.05963
-0.2082
-0.1053
-0.1719
-0.1679
0.0007197
-0.1763
-0.3032
-0.003455
-0.1632
0.437
-0.0526
-0.1369
0.05255
-0.1315
0.01871
-0.1589
-0.1237
-0.005336
-0.1478
-0.1185
-0.09652
-0.1305
-0.01287
-0.1578
-0.1616
0.008613
0.2321
-0.1479
-0.01461
-0.1735
-0.2122
0.1665
-0.06358
-0.1936
0.008881
-0.1962
0.004706
-0.2131
0.02251
0.02465
0.001134
-0.1107
0.3099
-0.005455
-0.1038
-0.09264
0.4435
-0.1777
0.02697
-0.09642
-0.108
0.002905
-0.127
-0.1541
-0.307
-0.01237
-0.2326
0.229
-0.04474
0.1009
-0.002263
0.4487
0.07991
-0.1259
-0.1252
-0.1469
-0.1468
0.04351
0.2768
0.000791
0.0007236
-0.1348
0.8855
-0.121
0.0007603
-0.03823
-0.3441
-0.167
-0.1507
0.4275
0.01078
-0.1554
-0.1576
-0.1221
-0.09589
-0.1236
-0.03381
0.1912
0.01803
-0.3666
-0.1021
-0.328
-0.1342
-0.2687
-0.1315
-0.1925
-0.122
0.0004899
0.1669
0.0004075
-0.1726
0.04012
-0.05284
-0.05567
-0.1642
-0.1169
-0.1249
0.6792
0.5139
-0.1452
0.4775
-0.1424
-0.2091
-0.1301
-0.1047
-0.1728
0.004699
-0.1059
-0.04741
0.04629
0.008796
-0.1164
-0.04698
-0.009441
-0.1519
-0.06609
0.003732
-0.1695
0.00108
-0.2074
0.01637
-0.04584
0.002041
0.01814
0.2099
-0.1164
-0.2024
-0.05526
-0.1173
-0.1344
-0.1364
-0.1142
-0.119
-0.1538
-0.142
-0.121
0.1179
0.001553
-0.1184
-0.1277
0.0117
-0.1705
-0.1334
-0.03359
-0.1508
-0.1246
-0.1238
-0.07669
1.083
-0.1622
-0.1363
-0.2923
0.002603
0.282
-0.1513
0.000162
0.005695
-0.1587
-0.1953
-0.1011
-0.1237
0.4607
0.0001773
-0.1782
-0.111
-0.1323
-0.1555
-0.1669
0.3017
-0.1144
-0.1545
0.1185
1.084
-0.2361
-0.03958
-0.101
-0.1785
-0.13
-0.1119
-0.1333
0.131
0.106
-0.1967
-0.1449
0.2204
-0.2456
0.01226
0.04367
-0.1605
-0.128
-0.02964
1.404e-05
2.768e-05
-0.1967
0.1499
0.03432
-0.1453
0.1701
0.002352
-0.09243
0.001697
0.001377
-0.1566
0.01434
-0.2012
0.5819
-0.1359
-0.1219
0.3165
0.5631
-0.1048
0.001495
-0.1495
0.6149
-0.1199
-0.08386
-0.1679
0.3864
-0.06585
0.2178
0.01122
-0.0678
-0.01496
-0.1229
-0.2149
0.005557
-0.1505
0.5113
0.01723
-0.1515
-0.1656
-0.1625
0.001498
0.001248
0.574
0.02325
0.103
-0.1791
0.002752
-0.1307
0.01506
-0.1488
-0.1804
-0.102
-0.1165
-0.0669
-0.2679
0.07464
0.07865
-0.2498
-0.08054
-0.04345
0.1306
-0.1287
0.503
-0.2119
-0.1756
-0.02027
1.133
0.5002
0.03601
-0.1209
-0.1822
-0.01409
0.1619
0.06352
-0.2429
1.296
0.4104
-0.1211
-0.1116
-0.1309
0.07116
-0.1183
-0.1473
-0.03676
-0.124
0.01924
-0.1177
0.395
0.4437
-0.1246
0.03404
-0.1224
-0.2801
0.02936
-0.1898
-0.04107
-0.1643
0.005629
0.001158
-0.1714
-0.045
0.1994
-0.1392
-0.2524
-0.08493
0.3334
0.9504
0.02443
-0.05961
-0.1254
0.00252
-0.1107
0.0108
-0.1535
-0.1827
-0.02546
-0.02181
-0.1786
0.01145
0.000841
-0.134
-0.2021
-0.1187
-0.1757
0.1366
-0.1738
0.06818
-0.1663
0.02759
-0.1535
0.000465
0.4252
-0.06022
0.4784
-0.07737
-0.03454
-0.1596
-0.02953
0.5378
0.001359
1.143
-0.09491
-0.1306
0.02695
-0.1662
-0.1534
-0.1613
-0.1301
-0.1449
0.0002821
0.002255
-0.1773
-0.108
0.02347
-0.152
0.3578
-0.04992
0.1266
0.3537
-0.123
0.01205
0.00978
-0.2143
-0.1385
0.2798
-0.1315
-0.1378
-0.1259
0.5427
-0.2076
-0.009674
0.08691
-0.1447
-0.1682
-0.05235
0.0004096
-0.1522
0.00141
0.01038
0.2888
0.1825
0.001754
-0.2019
0.02606
0.4383
-0.1922
-0.1591
0.02094
0.01709
0.4133
-0.1787
0.021
0.1648
1.815
0.01904
-0.1412
0.1213
-0.3025
-0.1185
-0.09567
-0.117
0.03501
1.856
-0.1301
-0.1219
0.297
-0.1607
-0.2814
-0.005216
-0.1603
-0.1241
0.3081
0.395
-0.1777
-0.2583
0.0009283
0.0007858
-0.1052
-0.1508
-0.1083
0.002913
-0.1444
-0.1236
-0.1464
-0.1954
-0.02196
0.01756
-0.127
-0.1791
-0.09239
3.862e-05
5.268e-05
0.01733
0.001815
-0.1154
0.0164
-0.3126
-0.08415
0.04103
0.009251
-0.1878
0.1292
0.006988
-0.1194
-0.1508
-0.2282
0.3313
-0.0602
-0.1479
-0.1928
-0.1199
-0.1716
1.831
-0.1646
0.001038
0.006998
0.05196
0.02093
-0.1679
-0.1265
0.001966
-0.07513
-0.1907
0.0747
0.4962
-0.1774
-0.0005136
0.0457
-0.03385
-0.1605
-0.122
-0.04391
0.05511
-0.1335
0.01084
0.1874
0.2697
-0.04807
0.4347
-0.2083
-0.1311
-0.1507
-0.01622
1.047
-0.2356
-0.1605
0.1019
1.075
-0.1849
-0.05358
0.3049
0.01523
0.3293
-0.089
-0.1748
-0.08135
-0.07552
-0.1819
-0.09325
-0.2321
-0.1574
-0.1882
-0.02772
-0.06111
-0.1221
-0.1733
-0.02699
-0.156
0.006686
-0.1334
-0.2268
-0.1289
-0.1143
-0.0612
0.5126
0.09388
0.03166
0.00203
-0.1417
-0.001365
-0.1482
0.007343
0.8868
-0.1292
-0.007012
-0.004145
-0.1174
0.01817
-0.2811
-0.158
-0.1309
-0.1519
-0.1989
-0.1666
-0.175
-0.07027
-0.1214
-0.1531
-0.03576
-0.05898
-0.1933
0.08011
0.01429
-0.1533
-0.4052
-0.055
0.001859
0.05797
-0.2025
-0.1105
-0.1587
-0.1269
-0.1583
-0.1523
0.01943
0.4867
-0.1732
-0.024
-0.1458
0.1608
0.001149
-0.1049
0.00267
-0.1205
0.4867
-0.1659
-0.02439
-0.1471
-0.1439
-0.1669
-0.1603
0.01303
-0.03508
0.1038
-0.2127
0.001629
-0.07524
0.01003
-0.1751
-0.1702
0.2324
-0.1522
-0.1334
0.4652
0.9056
-0.1307
-0.1341
0.0881
-0.1349
-0.1202
-0.1354
0.07786
-0.1152
0.2617
-0.1429
-0.02644
-0.1599
-0.1908
0.1433
-0.009328
0.009994
-0.09735
-0.1705
-0.138
-0.1702
-0.008306
0.005906
-0.141
0.07946
-0.157
-0.06524
-0.3939
0.2567
-0.1878
0.06801
-0.3904
0.2869
-0.1232
-0.1227
0.3536
0.475
0.07328
0.168
-0.1356
-0.1121
0.0007347
0.1923
-0.1733
-0.1729
-0.08597
-0.149
0.0006481
-0.1416
-0.2489
-0.2077
0.01351
-0.1488
-0.1567
0.001716
-0.08531
-0.1186
-0.1438
-0.216
0.02124
0.005971
0.04308
-0.1283
-0.1936
-0.0988
-0.1779
-0.1596
-0.1249
-0.2367
-0.01696
-5.763e-05
-0.1214
-0.1171
-0.1208
0.7442
0.01849
-0.1369
-0.0609
0.0383
-0.04993
-0.1703
-0.1609
-0.1585
-0.1808
-0.1149
0.02365
-0.1202
0.02853
-0.07185
0.0009532
-0.2051
-0.2617
0.002233
0.002514
-0.1583
-0.07327
-0.1535
0.0717
0.00498
0.05746
-0.1203
0.298
0.2483
-0.1122
-0.1239
-0.09329
-0.1509
0.00855
-0.1638
-0.1401
-0.168
0.03182
0.02151
1.125
-0.1693
-0.147
-0.121
0.01313
0.07471
0.01306
-0.09738
0.009727
-0.1249
-0.1464
-0.1258
-0.06349
-0.1582
-0.1807
0.05328
0.001819
-0.03498
0.04183
-0.1272
0.02672
0.005488
0.5162
0.4104
0.00142
-0.1598
-0.1984
-0.1686
-0.1389
0.01316
0.03617
-0.1839
0.01185
-0.1679
0.01704
-0.1465
0.1526
-0.09679
0.002473
-0.1669
-0.13
0.05314
-0.1748
-0.0323
-0.01175
0.001377
-0.1038
-0.1595
0.02858
-0.3836
-0.2123
-0.1649
-0.1391
0.001335
-0.13
-0.1651
-0.1875
-0.1817
0.2448
-0.1867
-0.1281
-0.1609
-0.1511
0.612
-0.08467
0.1447
-0.1025
0.0103
-0.1267
0.001681
0.002036
0.0003008
-0.2804
-0.1482
-0.241
0.1331
-0.1005
-0.09112
-0.03347
0.002516
-0.07715
-0.1444
0.2128
-0.1697
0.001496
-0.09089
-0.1374
-0.1618
-0.163
-0.09573
0.009038
0.002839
1.314
-0.05919
-0.2463
-0.2205
-0.1586
0.3375
-0.1739
-0.2191
0.01588
-0.1337
0.003539
-0.1204
-0.1341
0.04027
-0.1298
-0.1683
-0.1656
0.006452
-0.1636
-0.0928
-0.1702
0.0004002
-0.1459
-0.1603
-0.1514
-0.1833
-0.1562
-0.1411
0.245
-0.1639
-0.1696
-0.2439
0.4527
-0.1869
-0.1185
0.03393
-0.1292
-0.138
0.02618
0.05026
0.6179
-0.1298
-0.1444
1.835
0.04806
0.000763
-0.06987
-0.07336
0.03704
-0.07193
-0.1672
0.1876
0.9845
-0.1727
-0.1323
0.001312
-0.1977
-0.07797
-0.06938
-0.1868
0.1516
0.01399
-0.1685
-0.1065
0.001458
-0.1405
0.03362
0.5222
-0.1064
-0.1061
1.532
-0.1219
-0.1248
0.0521
0.1347
1.241
0.9803
0.2838
0.4861
-0.1826
-0.1294
-0.1915
0.02769
0.01316
0.01407
0.05471
0.02164
-0.1572
-0.2609
0.2266
-0.1412
-0.1901
0.02306
0.05464
-0.1355
-0.1737
0.0003307
-0.1482
-0.2159
-0.0327
-0.07691
-0.1051
-0.1422
-0.0052
-0.07098
-0.1512
0.3921
-0.1694
-0.1008
0.07687
-0.06706
-0.2031
-0.2359
-0.1808
0.01941
-0.1426
0.6481
0.01812
-0.1975
-0.05637
-0.006307
0.06919
-0.1274
-0.1571
-0.07381
0.0005888
-0.1243
-0.1443
0.2471
-0.1691
-0.1238
-0.3969
0.2127
-0.09635
0.01346
0.007641
-0.1724
-0.1659
-0.1246
-0.111
0.01273
0.4385
0.001849
-0.02154
-0.01994
-0.03175
-0.08084
-0.1374
-0.1064
0.01388
0.0005799
0.03182
-0.08958
-0.2403
-0.09042
-0.1521
-0.1057
-0.1551
0.4878
-0.1376
-0.04625
-0.1845
-0.161
-0.008045
-0.1676
0.0009544
-0.2474
0.3954
-0.3729
0.007892
-0.088
0.06369
0.03029
-0.0009254
-0.08486
0.188
0.003648
-0.12
0.007062
0.001505
-0.1534
-0.1588
0.01754
0.001127
0.2059
-0.1344
-0.03668
-0.1642
-0.1124
0.007899
0.001584
-0.1464
-0.2008
1.451
0.004126
-0.09491
-0.08068
-0.1581
-0.09348
0.01826
-0.1192
-0.1362
-0.06568
0.003025
0.0008537
-0.1958
0.8447
-0.0136
-0.1758
0.312
0.0247
-0.1301
1.248
0.4153
-0.0009761
-0.1515
-0.1086
-0.159
-0.01973
-0.01973
-0.1502
-0.1672
0.2106
0.01784
0.03014
0.0009762
-0.1459
-0.1717
0.2478
-0.1263
-0.2377
-0.09965
-0.2241
-0.1588
-0.0817
0.01491
-0.09838
0.001768
-0.2149
-0.09492
-0.153
-0.002072
-0.1234
0.05227
-0.06775
0.002257
-0.1488
0.1717
0.1544
0.01954
0.002132
-0.2131
-0.2724
-0.08189
0.0008327
-0.1114
0.7079
-0.09423
-0.1493
0.001888
-0.1052
-0.08579
-0.159
-0.1225
-0.009762
0.4292
0.009731
0.2181
-0.1681
0.0008125
-0.1633
-0.1152
0.01632
-0.1445
-0.1811
0.005164
0.3866
-0.1212
0.1715
-0.1127
-0.03274
0.5861
-0.1475
0.00412
-0.139
-0.1187
-0.104
0.105
-0.109
0.01743
0.01318
-0.1813
-0.01753
-0.1339
-0.1333
0.09936
0.7402
-0.08395
0.1938
0.1564
1.891
0.001508
0.015
0.0006185
0.1766
0.00228
-0.1179
0.0003096
-0.1475
0.3724
-0.1764
-0.02796
-0.118
-0.1225
-0.01001
-0.1977
-0.09123
-0.08252
-0.05236
-0.04745
0.485
0.05488
-0.1577
0.001065
-0.157
-0.2028
-0.004203
0.01697
-0.1417
0.4478
-0.1576
-0.04655
-0.1732
-0.1817
-0.1724
-0.1528
-0.04818
-0.05596
-0.1252
-0.1047
0.02073
-0.1651
-0.06374
0.003459
-0.1074
-0.1118
-0.1244
-0.1446
-0.02858
-0.1254
-0.1548
-0.1114
-0.1664
0.02801
0.6272
-0.156
-0.1496
-0.1703
0.4124
-0.1548
-0.174
0.008219
-0.146
-0.1578
0.002025
-0.00712
-0.1329
0.00471
-0.1602
-0.1522
-0.2048
-0.09174
-0.07521
0.0003283
1.92
0.00589
-0.1247
-0.1994
-0.0821
-0.05232
0.08686
0.1102
-0.1508
0.5344
0.5671
-0.09247
-0.002066
-0.0736
-0.1535
0.4751
-0.08153
-0.1297
0.03587
-0.05787
-0.1224
-0.1926
-0.1711
0.002212
-0.1215
0.03318
-0.08026
-0.04926
-0.166
0.01435
-0.2121
0.1306
-0.1285
0.04015
-0.1742
-0.004084
-0.1962
-0.01297
-0.1544
-0.03461
-0.06046
0.01904
-0.1651
-0.07607
-0.1297
-0.1516
-0.02767
-0.1789
-0.07406
-0.1246
-0.1512
-0.2342
-0.01092
-0.1418
0.4084
-0.1761
-0.1028
-0.0009043
0.3796
-0.1537
0.2903
-0.1701
-0.1046
-0.1577
-0.1206
0.4116
-0.1663
0.002574
-0.02711
0.09431
-0.1626
0.3277
0.7116
-0.1141
-0.1755
-0.2019
-0.1248
-0.0814
-0.1258
7.559e-05
-0.1102
0.04927
0.04413
-0.1582
0.2932
0.0002959
0.7928
0.001073
0.2045
0.01519
-0.132
0.04776
-0.1553
-0.1253
0.02326
-0.05206
-0.11
-0.1541
0.01597
-0.03283
0.1566
-0.1575
-0.07916
0.02608
0.02133
-0.1484
-0.03229
-0.3366
-0.2138
-0.08363
-0.01404
1.709
0.9439
0.1746
-0.1544
0.3553
-0.204
-0.2129
0.00308
-0.1205
-0.2135
1.71
0.004598
0.01517
-0.1286
-0.2036
-0.08753
0.000986
-0.1286
0.01779
0.02543
-0.08462
-0.09929
-0.07441
-0.2262
-0.1513
-0.1399
0.09591
-0.04778
0.003389
-0.1721
-0.01604
-0.1654
-0.1416
-0.1558
0.03226
-0.09531
-0.07827
-0.1181
0.1339
-0.229
-0.1759
-0.1746
-0.1695
-0.1165
-0.04472
0.1043
-0.1462
-0.1579
-0.1824
-0.1683
-0.2045
-0.1501
-0.1857
0.01014
-0.1069
-0.192
0.04825
-0.1276
-0.1553
-0.06695
-0.1238
0.000313
-0.041
0.0005197
-0.1512
0.02105
-0.159
-0.13
-0.186
-0.1666
-0.04944
-0.04036
-0.1313
-0.02229
-0.1137
-0.2584
-0.1109
0.7042
-0.1597
1.804e-06
-0.2072
-0.02511
-0.1024
-0.08696
-0.1309
-0.1386
0.4126
-0.1529
-0.1262
-0.04184
0.8831
-0.05757
-0.1024
0.5263
-0.1272
-0.08652
-0.2826
-0.386
-0.164
-0.172
0.05307
-0.1643
0.9018
-0.08603
-0.2023
0.00332
0.06038
-0.1345
-0.1728
-0.0309
-0.05425
0.1865
-0.1604
-0.07222
-0.1618
0.1308
-0.1909
-0.1265
-0.1883
0.2885
-0.1629
-0.1301
0.002401
-0.01253
-0.148
0.002343
-0.1161
-0.06411
-0.2725
1.546
-0.1659
-0.24
-0.1261
-0.1416
-0.09499
-0.2517
-0.003182
-0.04662
-0.0811
0.03401
-0.1631
-0.1409
-0.1242
0.0005462
-0.1902
-0.2301
-0.06241
9.914e-05
0.001845
-0.1038
-0.1236
-0.06255
-0.1524
-0.1621
-0.1355
-0.1496
-0.08594
-0.1278
-0.1498
-0.2188
7.175e-05
-0.1749
-0.2287
-0.01836
0.01264
-0.1651
-0.1271
0.023
-0.2031
-0.1267
-0.1352
-0.121
1.962
0.2339
0.002904
-0.2722
0.1573
0.5723
-0.03209
-0.164
-0.1526
0.0002401
-0.1354
1.144
0.0167
-0.1127
-0.08394
0.02055
0.07739
-0.1095
-0.1541
0.000602
0.01229
0.002675
-0.1775
-0.05024
0.123
-0.134
-0.2346
-0.1441
0.3185
0.3146
0.01477
-0.1006
0.0008349
-0.1173
-0.1662
-0.1627
-0.1557
1.579
1.745
-0.1527
0.4059
-0.1254
0.001343
0.5887
-0.1631
-0.1791
0.0785
-0.1327
-0.2059
-0.1351
0.001106
-0.158
-0.1438
-0.1392
5.811e-05
-0.1425
-0.1463
-0.2224
-0.1207
-0.1923
0.006036
-0.1318
-0.2157
-0.2392
-0.1443
0.004765
-0.05149
-0.03133
-0.09448
1.135
0.0159
-0.07317
-0.05848
-0.1309
0.06628
-0.1736
-0.1214
-0.01257
-0.007615
-0.02816
0.161
-0.1673
-0.08515
0.1794
-0.1735
-0.1469
0.03358
-0.2131
0.08934
-0.09534
0.002831
-0.1133
0.6171
-0.2648
0.1824
-0.1428
-0.1297
-0.1188
-0.1737
-0.1362
0.00646
-0.06185
-0.03305
-0.106
0.001458
0.03558
-0.0471
-0.05465
-0.09021
-0.128
0.0002628
0.105
-0.1666
0.004796
0.1923
-0.02853
0.001622
-0.2732
-0.1063
-0.1693
-0.09769
0.7189
-0.01418
-0.0739
1.086
0.3279
-0.09254
0.07602
-0.1544
0.0008569
0.0205
0.000516
-0.1728
-0.07014
-0.2155
0.0008908
-0.04484
-0.1245
-0.1531
0.1208
0.002224
0.002273
-0.1812
0.7858
-0.07698
-0.006232
-0.1872
-0.1358
-0.1363
-0.1075
-0.09808
-0.03848
-0.1311
0.06292
-0.1381
0.01704
-0.1219
-0.1749
-0.2208
0.1166
-0.01976
-0.2392
0.1341
-0.08353
-0.1804
-0.2264
0.0264
-0.2411
0.3702
-0.07696
0.00158
-0.1048
-0.148
0.01723
-0.1906
-0.1638
0.0003598
-0.1677
-0.1666
0.01479
0.06513
0.01643
-0.07419
0.03812
-0.08715
-0.1084
0.08045
-0.09419
-0.1416
-0.08571
-0.1784
1.311
-0.01929
0.09676
0.0184
0.1135
0.00692
-0.1113
-0.01356
-0.1113
-0.09525
-0.1311
-0.1408
-0.1269
0.001822
-0.1975
0.00142
0.102
1.306
0.1602
-0.1643
0.0607
-0.01608
0.05168
-0.06996
0.3147
-0.09666
-0.1588
-0.1278
0.01108
-0.07912
0.5315
-0.205
-0.02916
-0.2016
-0.168
-0.1629
0.07457
0.002275
0.02916
0.2801
-0.1381
0.05627
-0.1661
-0.1333
-0.04522
-0.1829
-0.1281
-0.07332
-0.07554
-0.2218
0.0008633
-0.2742
0.02338
-0.2416
-0.1435
-0.197
-0.1611
-0.1226
1.276
-0.09208
-0.1681
-0.02687
-0.1978
-0.197
-0.0481
-0.1332
0.01239
-0.1992
-0.09184
-0.1119
0.06569
0.03193
0.5626
0.4725
-0.1087
-0.1172
0.2631
-0.1618
-0.1178
-0.0854
0.001217
0.0002095
-0.02947
0.002539
0.5932
-0.006179
-0.1584
-0.1703
-0.2084
-0.1706
-0.02638
-0.1546
0.003141
-0.02708
0.001782
0.3389
0.2468
0.003454
-0.2658
0.05084
-0.09303
-0.1263
-0.01244
0.01747
-0.1711
0.3449
-0.0004485
-0.007857
-0.1569
-0.2182
-0.1425
-0.08521
-0.1997
-0.1171
0.4585
-0.1776
-0.1667
0.03163
0.2036
-0.08625
-0.07372
-0.01746
0.03931
-0.1519
0.2465
-0.1339
0.01655
0.008872
-0.1763
-0.1768
0.05801
-0.1911
-0.146
0.0007871
0.0007684
0.0008474
0.3297
-0.1697
-0.1524
0.2177
-0.2477
-0.2084
-0.1298
-0.1499
-0.2163
-0.03559
-0.1453
-0.1305
0.003356
-0.2982
-0.3911
-0.1274
-0.1647
-0.1459
0.001818
-0.1998
-0.1014
-0.1559
0.3509
-0.1729
-0.1339
-0.1365
0.3915
-0.06381
0.002324
0.04784
-0.3834
-0.05097
-0.228
0.02052
-0.01245
-0.02993
0.2844
0.0172
-0.1295
-0.2131
-0.1356
0.007684
-0.1667
0.3986
-0.09027
-0.1948
0.08744
-0.1647
0.007965
-0.16
-0.1985
-0.1437
-0.1421
1.092
-0.1327
-0.1537
0.1235
-0.141
0.01918
0.008845
-0.179
0.01309
0.1942
0.6759
-0.07883
-0.1
-0.03054
0.001735
0.1681
-0.1428
0.01782
0.07394
-0.09134
-0.1292
0.231
-0.06294
-0.1208
0.3186
-0.127
-0.1529
-0.07118
-0.168
-0.1647
-0.03001
0.05915
0.0005387
-0.1626
-0.1936
-0.1264
-0.1865
-0.2682
-0.127
-0.2432
-0.09566
-0.09706
0.3838
0.002122
-0.1438
-0.09138
0.3045
-0.1242
-0.04287
-0.1328
-0.1591
0.2348
0.8312
0.1859
-0.05727
-0.1208
0.06561
-0.156
0.5171
-0.04496
-0.1059
-0.03218
-0.1752
0.06479
0.01957
-0.1366
-0.1425
-0.0004829
1.141
-0.1329
0.0004742
-0.1082
-0.01181
-0.1584
-0.1435
-0.1947
0.2059
-0.09648
-0.0923
-0.1712
-0.1622
-0.1067
-0.1366
-0.04284
5.365e-05
-0.2591
0.3505
-0.1139
-0.1174
-0.002986
0.3098
0.1565
-0.1405
-0.2157
-0.1379
0.01229
0.1811
-0.1601
-0.0149
0.001804
-0.1985
-0.1191
-0.09872
0.0004006
0.003979
0.01615
-0.1856
-0.1607
-0.1533
-0.09218
-0.08865
-0.119
-0.1524
-0.1119
-0.2519
-0.1295
0.001697
-0.00225
-0.1597
-0.1727
0.1445
0.02335
-0.07238
0.0003458
1.187
0.4663
-0.1234
-0.1384
-0.1206
0.001206
-0.1813
-0.1413
-0.05599
0.1711
-0.2261
-0.1584
-0.1699
-0.13
-0.1362
0.331
0.002269
-0.002167
0.2223
0.09111
-0.1942
-0.1511
-0.1338
0.04917
0.3989
0.2216
-0.2191
-0.186
-0.165
-0.05089
-0.1401
-0.1897
-0.3243
-0.1574
-0.116
0.02988
0.028
-0.02901
0.03685
1.3
-0.08159
-0.2378
0.00142
-0.1808
-0.1548
-0.1572
0.03534
-0.1347
-0.1596
0.002093
-0.1378
0.0188
-0.07882
-0.2104
0.1757
0.02954
-0.1275
-0.01623
0.04872