/*--------------------------------*- C++ -*----------------------------------*\
| =========                 |                                                 |
| \\      /  F ield         | OpenFOAM: The Open Source CFD Toolbox           |
|  \\    /   O peration     | Version:  v2012                                 |
|   \\  /    A nd           | Website:  www.openfoam.com                      |
|    \\/     M anipulation  |                                                 |
\*---------------------------------------------------------------------------*/
FoamFile
{
    version     2.0;
    format      ascii;
    class       surfaceScalarField;
    location    "5";
    object      phi;
}
// * * * * * * * * * * * * * * * * * * * * * * * * * * * * * * * * * * * * * //

dimensions      [0 3 -1 0 0 0 0];
oriented        oriented;


internalField   nonuniform List<scalar> 
185354
(
4.743e-08
-4.743e-08
-1.211e-07
1.211e-07
2.259e-06
-2.259e-06
-2.593e-05
2.593e-05
5.616e-06
-5.616e-06
1.532e-07
-1.532e-07
7.618e-06
-7.618e-06
3.929e-08
-3.929e-08
-2.102e-07
2.102e-07
-6.526e-06
6.526e-06
-3.923e-07
3.923e-07
-6.639e-06
6.639e-06
4.442e-07
-4.442e-07
-3.62e-07
-3.025e-08
-1.453e-05
1.453e-05
-1.355e-05
1.355e-05
5.645e-07
-8.863e-07
3.218e-07
2.105e-07
1.818e-07
-1.102e-05
1.551e-05
-4.487e-06
0.0001019
2.756e-05
-0.0001295
-0.001368
-0.1053
0.1067
-0.03555
-0.0674
0.103
0.0002532
-0.0001991
-5.414e-05
0.02482
-0.0282
0.003378
-6.399e-05
-0.00102
0.001084
-0.0002652
0.0005451
-0.00028
0.002538
-0.0001716
-0.002367
-0.0009329
0.0009947
-6.184e-05
0.01323
0.001018
-0.01424
6.563e-06
-0.0003115
0.0003049
0.0004126
-0.001121
0.0007087
-9.169e-07
9.169e-07
-4.799e-06
4.799e-06
-4.799e-06
0.0002584
-0.0004052
0.0001468
-0.009748
0.07617
-0.06642
-0.0008359
0.02566
-1.48
0.5459
0.9339
-0.003054
0.005186
-0.002132
-0.1073
0.0718
-0.0003907
0.001505
-0.001114
-2.068e-05
0.0001226
6.493e-05
-0.003024
0.002959
0.003778
-0.004824
0.001046
0.0002032
-0.0003893
0.000186
0.03894
-0.009525
-0.02941
0.0003727
3.316e-05
-0.0004059
0.0004946
-0.0002507
-0.0002439
-0.0002805
0.0002563
2.418e-05
-0.001816
0.001835
-1.86e-05
-0.5911
-0.476
1.067
-0.1108
0.1095
0.0005834
-0.0001494
-0.000434
0.0005288
-0.0001092
-0.0004196
-0.0007841
0.0003451
0.000439
-0.0004714
0.0002062
-0.9376
0.3652
0.5723
-0.0006293
-0.002957
0.003587
1.004e-06
-4.395e-07
0.0139
-0.008171
-0.00573
-0.0006852
-0.0002477
0.3273
-1.047
0.7197
-6.18e-07
4.078e-07
0.002207
0.0003904
-0.002597
0.009639
-0.0007682
-0.008871
0.0003324
0.000251
0.02934
-0.2278
0.1985
0.0003958
0.0001848
-0.0005806
1.493e-06
-1.251e-05
0.0003856
0.0006899
-0.001076
-3.092e-05
6.953e-05
-3.861e-05
-1.345e-05
1.819e-05
-4.744e-06
-0.006636
0.008121
-0.001485
1.454
-0.1438
-1.31
0.0004143
0.0001146
0.002164
1.647e-05
-0.00218
-0.001056
-0.0004106
0.001466
0.04841
-0.009474
-0.003314
0.003306
8.075e-06
-0.003912
0.002891
0.001021
-6.304e-05
0.0003231
-0.0002601
0.006723
-0.006105
-0.0006177
0.00578
-0.005139
-0.0006405
0.0005815
-0.0004055
-0.000176
-0.0001994
0.0008706
-0.0006713
1.644
-1.162
-0.4817
0.00195
-0.0002238
-0.001726
-0.4228
0.7502
-0.002463
-0.0008503
-8.775e-05
0.000172
-8.427e-05
-0.1428
0.1721
-0.002455
-0.001457
-0.005316
0.006138
-0.0008218
-0.002403
0.002265
0.0001382
-0.003738
0.002802
0.0009358
3.583e-05
-1.182e-05
-2.402e-05
-0.2416
0.09413
0.1475
-0.002232
0.001844
0.000388
0.0003397
-0.000515
0.0001753
-0.002055
0.001908
0.0001473
0.05799
-0.0513
-0.006693
0.0001246
-0.0002811
0.0001565
0.0002289
-0.0005905
0.0003616
-0.01138
0.00662
0.004757
0.01442
-0.001192
-0.0001585
-0.0002587
0.0004172
0.1497
1.304
-0.0001089
-0.000719
0.0008279
-0.001507
-0.002231
0.000452
4.257e-05
-0.9163
-0.5634
-0.003711
0.002365
0.001346
-0.0008591
0.0003098
0.0005492
-0.01986
0.01819
0.001676
0.000834
-0.0007749
-5.905e-05
0.0002144
-0.0004729
0.0002586
0.08751
-0.02741
-0.06009
-0.001886
0.001897
-1.064e-05
0.005536
-0.004999
-0.0005368
0.0002952
-0.0001134
-0.0001819
0.0006288
-0.0004512
-0.0001776
-0.0002435
0.0005073
-0.0002638
0.0003401
-0.0003233
-1.681e-05
0.002092
-0.005146
0.003148
-0.0009408
2.063e-05
-5.155e-05
-0.001011
-0.001221
-0.0006804
0.0004825
0.0001979
-0.0002044
-0.0002251
0.0004295
4.93e-05
1.016e-05
-5.946e-05
-0.0001066
-2.857e-05
0.0001352
0.0002553
-0.0003184
3.502e-05
8.097e-07
0.07687
-0.1034
0.02657
-0.01857
0.003042
0.01553
9.313e-06
-6.557e-06
-2.755e-06
0.0002482
-0.0004123
0.0001641
0.0001649
0.0001303
-4.298e-05
-0.000265
0.000308
-0.002269
-0.001442
-0.0004503
0.0003873
6.302e-05
-1.51
0.226
1.284
8.264e-06
1.048e-06
0.000429
-0.0004908
6.183e-05
-0.001428
0.000263
0.001165
5.902e-05
-0.0004742
0.0004152
-0.0006303
0.0005172
0.0001131
-0.0005839
-0.0002752
-1.246
1.102
-9.493e-05
9.622e-05
-1.294e-06
-0.0008319
0.000712
0.0001199
-1.172
-0.07374
0.07693
0.06494
-0.1419
-3.045e-05
0.000557
-0.0005266
0.000238
0.0023
0.001797
-0.002223
0.000426
-0.0006572
0.0002045
0.0004527
-0.0002209
0.00022
9.323e-07
0.0003651
-0.0007281
0.000363
0.0004916
2.847e-05
-0.0005201
-0.5649
0.3513
0.2135
-0.0007767
0.001189
-0.5332
0.2044
0.3287
0.004415
-0.002721
-0.001694
1.497e-05
9.322e-06
-2.43e-05
0.001166
0.002736
-0.003903
0.0006022
-0.0001321
-0.0004701
-1.794e-05
-0.0003645
0.0003824
-0.002352
-0.0001244
0.002476
-0.6939
-0.2437
0.001535
0.002938
-0.004474
-0.001925
0.001056
0.0008693
-0.0001081
0.0002381
-0.00013
0.0003313
0.0001603
-5.056e-06
8.244e-06
-3.188e-06
7.25e-05
-0.0001801
0.0001076
-0.8978
0.4217
0.4761
0.002519
-0.0005633
-0.001956
0.0002071
0.0006268
-0.004413
0.0006053
0.003808
-0.0006069
0.0001611
0.0004457
0.002217
0.0003026
1.418
-0.488
-0.9296
0.01074
-0.003621
-0.007122
0.008571
-0.007891
-0.0006809
0.4471
-1.038
-0.0005487
0.0003902
0.001008
-0.0002534
-0.0007547
-0.02678
0.02704
-0.0002606
3.382e-05
-7.168e-05
3.786e-05
-0.0005801
0.001922
-0.001342
0.001815
0.001507
-0.003321
-0.005979
-0.005398
5.961e-05
-0.0002837
0.0002241
0.0002564
-0.0005948
0.0003384
-3.56e-05
-0.0002449
-5.828e-05
-0.0003099
0.0003682
-0.02735
0.02123
0.006124
0.8325
-0.09875
-0.7338
-1.341
0.7529
0.5876
0.0001821
-0.0003286
0.0001465
-0.006955
-0.01162
0.004142
-0.003708
-0.0004343
0.0003289
-0.0002236
-0.0001054
0.0001015
-0.0004558
0.0003543
-0.009744
0.006723
0.003022
1.678
-0.8344
-0.8433
-0.2848
0.7777
-0.4929
-0.001266
0.002567
-0.001301
-3.967e-05
-0.0004661
0.0005058
-0.001546
-0.000379
0.005035
-0.003032
-0.002004
-0.0005123
0.0004711
4.125e-05
-0.0005489
-0.0001315
-0.002803
0.003647
-0.0008433
-1.235e-05
-0.0003202
0.0003325
5.204e-05
-0.0004724
0.0004204
0.005906
0.002666
-0.5809
-0.9287
-0.0007196
-0.001216
0.001936
-0.000843
0.001047
-0.0002039
-1.926e-05
2.304e-05
-3.777e-06
0.0873
-0.108
0.0207
0.0005441
-0.0001134
-0.0004307
0.1344
-0.11
-0.02435
0.0007508
-0.0002965
-0.0004544
0.0001701
7.201e-05
-0.0002421
0.0002839
0.0003449
0.0001442
-0.001005
0.0008609
-0.001185
0.0007449
0.00044
0.0009627
-0.0005605
-0.0004023
-0.001224
-0.002514
0.003738
0.0001812
-5.244e-06
-0.0001759
-0.0002016
9.577e-05
0.0001058
8.839e-06
-7.512e-05
6.628e-05
-0.0009815
0.0003432
0.0006383
-0.001709
-0.002704
-0.9239
1.03
-0.1066
-0.0008369
0.0003949
0.000442
0.0009741
0.000483
-0.001457
0.146
-0.06906
-1.04
-0.07062
1.11
0.2773
-0.1604
-0.117
0.0005203
0.0004335
-0.0009538
0.0006848
-0.0001033
6.309e-05
-0.0001503
8.717e-05
-0.7979
0.2084
0.5895
-0.4256
-0.1076
-0.0007594
-0.0005894
0.001349
-0.1698
-0.121
0.2908
0.001531
-0.001563
3.282e-05
-0.0003842
-0.0008443
0.001228
-9.88e-06
0.000376
-0.0003661
0.0004324
-1.989e-05
-0.0004125
-0.0007136
0.0008426
-0.000129
0.0002684
-0.0006608
0.0003923
-0.001158
-0.0003678
0.001526
0.0001542
0.00867
-0.008825
-0.0004714
-0.0003655
-0.001215
-6.387e-05
0.001279
0.006978
0.006923
0.2568
-1.055
0.003377
0.001658
0.001113
0.006455
-0.007568
2.681e-05
-1.183e-05
0.8652
-1.116
0.2504
-0.0002986
-0.0003082
0.0006104
0.0003977
-0.001519
0.001512
6.932e-06
-2.845e-05
2.845e-05
-0.0002942
-0.0004111
0.0007053
-0.0006414
0.0007933
-0.0001519
-0.0001397
0.0001307
8.952e-06
7.128e-05
-2.197e-05
0.01009
0.0006497
0.0001033
-0.0001033
-6.884e-05
0.0004978
-0.001523
0.001477
4.56e-05
0.000526
-0.0007254
0.001899
-0.001466
-0.0004336
-0.00059
0.0006729
-8.294e-05
0.0009931
-8.034e-07
-0.0009923
-0.003349
0.004857
-0.001508
0.0005587
-0.001178
0.0006197
-0.008284
-0.00751
0.01579
-0.0001969
-0.0003155
0.003613
0.006026
-0.1187
0.1725
-0.05384
0.000489
-0.0004152
-7.381e-05
0.0002141
0.0006634
-0.0008775
-0.0001407
0.000344
-0.0006365
0.0006672
-3.071e-05
-3.042e-05
-0.0004254
0.0004558
-0.0001934
-0.0003099
0.0005033
0.004543
0.0003484
-0.004891
0.001258
-0.0006294
-0.000629
-0.0002225
2.745e-05
0.000195
6.724e-06
-6.724e-06
-0.04378
0.02302
0.02075
7.086e-05
-0.0002479
0.0001771
-0.0003112
-0.001117
0.03316
-0.0113
-0.02185
-0.001397
0.001649
-0.0002525
-0.8231
0.5558
0.2673
1.009
-0.1495
-0.8598
0.8724
-0.4093
-0.4631
2.389e-05
-1.402e-05
-9.873e-06
0.0003832
-0.0004136
-0.0003259
-0.0003313
-0.0001329
0.0003913
-0.0005256
0.0002674
0.0002582
0.000103
0.0005659
-0.0006689
0.03963
-0.04226
0.00263
-0.0002876
0.0001916
9.603e-05
-0.1465
-0.01845
0.1649
0.8691
0.8085
-1.436
0.3965
0.0002335
0.0007293
0.003432
0.000983
-0.0002271
-6.055e-05
-1.854e-05
3.425e-05
-1.571e-05
0.1565
0.1208
-0.003227
0.0008753
-0.001453
-0.0009499
-0.275
0.1053
0.001035
0.0002238
0.0002585
-0.0002373
-2.122e-05
-0.01477
0.02231
-0.007534
-0.01215
-0.01521
0.79
-0.1584
-0.6316
-0.002462
0.001742
-0.0001782
-3.061e-05
0.0002088
1.079
0.5644
-0.0002984
0.0006259
-0.0003275
0.0005152
-0.0003008
3.366e-06
-1.356e-07
-3.231e-06
-1.771e-05
-0.0007923
0.00081
-0.0009102
0.0005708
0.0003393
-0.001358
0.001294
-0.002616
0.001448
0.001168
0.0003355
-0.0002133
-0.0001222
-0.4933
-0.0716
0.0005597
-0.0002902
-0.0002695
-0.0006721
0.0001129
0.0005592
-0.000379
0.0003855
-0.001048
-0.1176
0.0004973
-0.0002491
-0.0009942
8.675e-05
0.0009075
-0.165
-0.07664
0.0001201
0.0003124
-0.0009061
0.0007972
0.0002066
0.0005442
-0.002106
0.0003717
0.001735
0.001046
-0.001504
0.0004582
0.00175
-0.4735
0.4717
-4.723e-05
-1.363e-06
4.86e-05
2.049e-05
-1.408e-05
-6.404e-06
3.709e-05
-0.0001649
0.0001278
0.0003037
-0.0002253
-7.842e-05
-0.00108
0.002054
-0.0005255
0.0005776
-0.001857
-0.000103
0.00196
0.001028
-0.0001959
-0.0008325
-0.0004674
2.058e-05
0.0004468
0.002733
-0.0005694
0.0006295
-0.000661
3.15e-05
0.0007477
-0.002362
0.001614
0.0001415
-0.0004176
0.0002761
-0.00073
0.0001322
0.0005977
0.427
0.08548
-0.5125
-0.0005157
-0.0003945
-0.0005531
0.0004653
8.776e-05
-0.4143
0.3258
0.08847
0.0004781
-0.0005085
0.01709
-0.05976
0.04267
0.0002608
0.001536
8.878e-05
-0.0001765
0.001059
-0.007695
-0.513
0.2389
0.2741
-4.398e-05
0.0001379
-9.39e-05
-2.064e-06
1.749e-06
3.142e-07
-1.495
0.1542
-3.817e-05
1.682e-05
2.136e-05
0.0001133
-0.0002214
0.01453
-0.0007807
-0.01375
1.147
-0.315
-0.002838
0.0009826
0.001855
0.001739
-0.00192
0.0001813
-0.005571
0.005346
0.0002253
-0.0002866
-4.615e-05
0.0003327
-0.0004781
0.0002737
-0.0006309
0.000655
-2.407e-05
-0.004381
0.002948
0.001432
-0.6241
0.3394
2.105e-07
0.000531
-0.0001583
0.0007665
-0.0003586
-0.0004079
0.0001549
9.83e-05
-0.0002336
0.0002146
1.91e-05
-0.0003183
-0.0002186
0.0005369
0.01481
0.01835
-0.003204
0.004063
-0.0008594
-8.645e-05
-7.501e-05
0.0001615
0.0004123
-0.0002302
-0.003801
0.002782
0.001019
0.01205
0.001219
-0.01327
0.0003606
-0.000395
3.443e-05
-0.1959
0.04939
-5.077e-05
0.0001929
-0.0001421
0.04066
-0.01531
-0.02535
0.0006626
-0.0004804
-0.0001822
-0.2136
0.2312
-0.01757
4.917e-05
-4.917e-05
-0.5301
1.126
-0.5962
-0.0001315
0.0004821
-0.0003506
0.0007584
-0.0005972
-0.0001612
-0.0009836
1.579e-05
0.0009678
0.000616
-1.384e-05
3.796e-05
-0.0004207
0.0003827
-0.007008
-0.002737
0.0008419
-0.0002711
-0.0007953
0.0009068
-0.0001115
-0.0005348
8.453e-05
-0.00015
0.0001951
-4.504e-05
1.331
-0.4223
-0.9084
0.07684
-0.2484
0.1716
-0.002222
0.003956
-0.001734
0.003004
-0.001965
-0.001039
0.0009831
0.0002465
-0.00123
-4.172e-05
0.001572
-0.0004242
-0.0008653
0.001289
0.2421
-1.166
0.001082
-0.0007123
-0.0003696
0.009946
0.00283
-0.01278
0.025
0.01566
7.481e-05
5.444e-05
-0.0001292
-1.475e-05
-3.248e-05
0.0008748
-0.0006465
-0.0002282
0.000242
-1.267e-05
-0.0002293
-0.0002034
9.723e-05
0.0001062
0.06623
-0.07598
-0.001803
-0.001998
0.000978
-0.0005017
-0.0004763
0.0002577
0.0002866
-0.0005443
0.001501
-0.003012
0.001512
1.009
-0.02062
-0.9881
-0.0004359
0.0003776
-0.01604
-0.01073
-0.002345
0.003063
-0.0007179
0.0006699
0.0002049
-0.002183
7.652e-05
1.31e-05
-1.747e-05
4.375e-06
-0.4833
0.06898
0.02109
-0.00147
-0.01962
-0.00111
0.00401
-0.002899
-0.001688
-0.0001504
0.001839
1.23
0.1872
0.0005831
-2.967e-06
-0.0005802
0.000252
-0.0002474
-4.578e-06
-0.0002466
-0.0009685
-0.8731
0.8731
-0.3896
-0.08949
0.4791
7.576e-05
-1.31e-05
-6.266e-05
0.1534
-0.01189
-0.1415
0.0001796
0.0001603
-0.0003399
-0.0002972
-5.648e-05
0.0003536
-0.002039
-0.0004517
0.002491
0.004324
-0.005837
0.001513
0.0004757
0.00105
-0.001525
0.0008913
4.429e-05
-0.0009356
-0.0003075
0.0005639
0.001675
0.000694
-0.002369
-3.092e-07
-2.22e-06
2.529e-06
0.0001493
0.0001861
-0.000553
0.0005195
3.354e-05
-0.0002106
0.0002814
-0.0006695
0.0002374
0.0004321
-0.0006465
0.00128
-0.0006333
0.001813
-0.005628
0.003815
0.0002216
0.000434
-0.0006556
0.002266
-0.0009134
-0.001353
-0.2885
1.154
0.0008677
-0.0006603
-0.0002073
-0.01584
0.01278
0.003063
0.0004607
-0.0005003
-0.007455
0.005962
0.001492
-1.454e-05
-1.342e-05
2.796e-05
0.06265
-0.1507
0.08806
0.007428
-0.001648
-0.001277
-0.0001197
-0.0007612
0.0005632
0.000198
0.002432
0.00171
0.2177
-0.1545
-0.06317
7.962e-06
-7.962e-06
-0.0003739
0.0004118
0.002855
-0.002861
6.321e-06
-0.7006
-0.1972
-2.32e-05
5.549e-05
-3.229e-05
-0.000502
0.0006862
-0.0001842
-0.0001893
-0.001627
-4.737e-06
7.659e-06
-2.922e-06
-0.0004294
0.0003864
1.079
-0.07029
-7.6e-06
0.0006734
-0.0006658
0.001449
-0.001153
-0.0002966
0.05583
-0.05445
-0.001381
-8.871e-05
-0.0002664
0.0003551
-0.001174
-0.0003631
0.001537
0.000465
-0.0001353
-0.0003297
0.5108
-0.6095
-0.004209
-0.0002828
0.004492
0.0001214
-0.0001774
5.606e-05
-0.000955
0.001721
-0.0007663
-0.0005561
0.0009213
5.53e-06
-7.313e-07
0.00011
0.000256
-0.000366
-0.000258
-0.0004141
-0.0003483
-0.0001773
0.000476
-0.0003345
-0.0001002
0.0001727
0.001801
0.001001
0.001907
-0.001075
-0.0008324
8.395e-05
0.0002562
9.099e-05
0.000354
-0.000445
-0.0003107
0.0003114
-7.068e-07
0.212
-0.1351
-0.001634
0.0007813
0.0008529
0.0007326
0.0007169
0.008141
-0.001417
-7.575e-05
-0.0003534
0.0004292
0.0009148
-0.0006748
-0.00024
-0.4191
0.6255
-0.2064
-0.4682
-0.04477
0.1771
-0.1292
-0.04789
0.0004015
0.0003569
-0.003113
-0.001268
-0.09094
0.03784
0.0531
0.0006785
-0.0002277
-0.0004508
0.0002185
-0.0003544
0.0001359
-0.0009732
0.000287
0.0006863
0.0001757
0.000575
-0.0007506
0.0003581
-0.0004468
0.000388
0.0004539
-0.01711
0.02799
-0.01088
0.002927
-0.003044
0.0001171
0.07647
-0.4956
-0.533
-0.2901
-4.07e-05
0.0003804
-3.108e-06
3.35e-06
-2.417e-07
-0.0009915
0.001209
-0.0002171
-1.176
1.326
0.3218
-0.9326
0.6108
1.15
-1.154
0.004638
-0.001457
-0.00138
0.0001282
-9.631e-05
-3.185e-05
-6.187e-06
-0.0008368
-0.0009965
0.0007855
0.000211
-0.002382
0.0001402
0.002242
-4.569e-05
0.0005757
-0.00053
0.0002198
3.218e-05
-0.0002113
-0.001311
-0.3103
0.1623
0.148
0.0001837
0.0001452
0.0001301
-6.703e-05
0.03904
0.09533
0.0003297
0.000107
-0.0004368
-0.0002753
0.0005259
-0.0002506
0.92
-0.5982
8.524e-05
5.942e-05
-0.0001447
-0.02047
0.005693
-0.0006866
0.002684
-0.001998
-0.0008786
0.0002064
0.0006722
-0.0001269
-7.655e-05
0.003425
-0.003864
0.0004387
-0.0005741
-0.001283
6.617e-06
-0.0002291
0.0002328
0.0004298
0.001128
-0.002517
0.001389
-0.04214
-0.001641
-0.0005588
9.142e-05
-0.0002293
1.22e-05
0.0002171
-0.9377
0.705
0.2327
0.000207
0.0003527
-0.0004699
-0.0002506
0.0007205
-2.033e-06
2.21e-06
-1.768e-07
1.631e-06
3.516e-07
-1.982e-06
0.9286
-0.4131
-0.5155
0.000102
-0.0002281
0.000126
0.03665
0.02612
-0.06277
-0.00278
-2.349e-05
0.0002392
0.0003439
0.0002014
-0.0002034
1.973e-06
-3.389e-05
6.771e-05
-0.0009489
0.0008633
8.567e-05
0.0001616
0.0001917
-0.0003533
0.6511
0.5472
-1.198
-2.803e-05
-0.0005619
0.03692
-0.03418
-0.00275
0.0004633
0.000809
-0.001272
-0.001583
0.001313
0.0002706
-0.0006362
0.001213
-0.0005772
-1.192e-05
-0.000284
0.0002959
-0.003964
0.00274
-1.023
-0.1535
-0.001207
0.004985
-0.0003683
0.0006367
0.0005933
-0.0002996
-0.0002937
-0.0009927
-0.0005728
0.001566
-8.592e-05
0.0001136
-2.768e-05
-0.003808
0.00135
0.002458
-5.35e-07
3.835e-07
1.515e-07
0.004637
0.03596
-0.04059
0.0003239
-0.0001053
6.969e-05
6.065e-06
-1.157
1.218
-0.06153
-0.0001037
-0.000584
0.0006877
-0.001657
0.0007429
0.0009136
0.0004095
-0.0002835
-0.000126
1
0.0006992
-0.000613
-8.624e-05
-0.001431
-6.552e-05
0.001497
-4.395e-06
-9.053e-06
-0.004145
0.003515
0.001069
-0.001014
-5.552e-05
-0.0004218
-0.0002299
0.0006518
0.000443
0.0002562
1.19
0.1406
-0.4225
0.9333
-0.0006252
0.0003496
0.0002757
0.0002864
-4.246e-05
-0.0002439
0.005753
-0.004586
0.2482
0.04577
-0.03778
-0.007988
-0.0001884
0.002247
-0.002059
-0.0008088
0.0005769
0.000232
0.0008545
-0.001173
0.0003186
-0.002771
-0.0028
-0.0004857
0.0001674
0.001408
-0.001867
0.0004586
-0.0003302
-0.0008191
0.001149
-0.0007181
8.719e-05
-0.0001092
-0.0001117
0.0003991
0.0004922
-0.0004305
0.0004895
0.7915
0.1371
-0.0004394
0.0004215
0.01013
0.004402
0.698
-0.5958
-0.1022
1.615e-05
7.741e-06
0.0005294
-0.0001997
-0.0007017
-0.0004504
0.001152
0.0006733
-0.00131
0.0009116
-0.001168
0.0002568
-9.378e-05
7.859e-06
1.679
-0.8645
-0.8145
3.804e-05
-3.804e-05
3.804e-05
-0.001109
-0.0003247
0.001434
-0.001633
0.00365
-0.002016
-0.0006178
-0.213
-1.083
-0.4309
1.514
-0.002822
0.004357
-3.434e-05
-6.058e-05
-0.07844
0.01126
0.06717
-0.001005
-0.0001794
0.002708
-0.001874
-0.0008343
0.000811
0.001455
-0.005361
0.0007421
0.004619
-0.0008703
3.835e-05
-0.008051
0.009098
-0.001048
-0.001042
0.004837
-0.003795
0.0001182
-0.0003332
0.000215
0.0001748
6.403e-06
-1.053e-06
1.09e-06
-3.71e-08
0.0009659
-0.0007881
-0.0001779
0.0008863
-0.0006721
0.8457
-1.198
0.3525
0.000552
-0.0005489
-3.113e-06
-0.004495
-0.002959
-1.336e-05
1.336e-05
6.571e-05
6.244e-05
0.0002386
0.0001197
-0.0003583
-0.0007247
-0.004591
0.0004039
0.0004637
-0.3257
-0.8308
0.0001131
-0.0004576
0.0003445
-0.3901
1.041
-0.0002986
0.0008795
-0.0005809
1.047e-05
1.002e-05
0.0001563
-0.0002121
5.58e-05
0.00208
-0.002925
0.0008455
-0.0006111
0.0001329
0.0004782
0.005656
-0.001111
-0.004545
-0.0002875
0.0003471
-4.049e-05
-0.0002377
0.0002782
0.01997
0.01696
0.001433
-0.001047
-0.07285
0.1355
0.4848
-1.015
-0.0007042
0.0008484
-7.848e-05
7.389e-05
4.591e-06
0.002358
0.002425
-0.004783
-0.000581
0.0008128
-0.0002317
0.0009918
-0.0008225
-0.0001694
0.003197
-0.001382
-0.001015
0.001316
-0.0003009
0.006823
-0.004027
-0.002796
0.01535
-0.02119
0.005842
-0.0001239
-0.0005064
-0.05206
-0.03888
-7.539e-05
1.764e-06
7.362e-05
0.4673
0.1104
-0.5777
-0.003881
0.003505
0.0003754
0.0002832
0.0007451
-0.003569
0.003315
0.0002542
-0.002518
0.002721
-0.000203
-0.0008704
-0.0007861
-0.0002757
0.0003429
-6.716e-05
0.0002324
-0.0004787
0.0002464
-0.09012
-0.05079
0.1409
0.0003563
0.0003257
-0.000682
0.002101
0.0009028
-0.0005015
8.397e-05
-0.004089
0.001002
0.003087
-0.002673
0.003078
-0.000405
-0.08974
0.9354
-6.231e-06
1.432e-06
0.002019
0.0007137
-0.000167
2.738e-05
0.005022
0.005216
-0.01024
0.00274
0.01335
-0.01609
0.005931
-0.001857
-0.004074
-0.0001513
0.0002196
-6.829e-05
-0.0002357
0.0001883
4.738e-05
-0.003869
0.001145
0.002724
0.004333
0.001203
0.0002266
0.0002625
-0.0001063
0.0002764
1.982e-05
2.936e-05
-0.003445
0.00351
0.0005379
5.533e-05
4.799e-05
0.0002105
0.1397
-0.1667
0.02702
0.0007399
0.0002381
-0.08546
0.2251
0.0006679
0.002187
-0.000212
0.0003171
-0.0001051
0.6955
0.09446
-0.0002281
-0.0005331
-0.001282
0.0005957
0.0006863
-0.05092
0.7787
-0.7278
0.004395
-0.003769
-0.0006264
-0.001552
0.0009278
0.0006246
0.0002293
-0.001387
0.0004216
-0.0004315
0.001211
-0.0007088
-0.000502
0.09825
-0.01075
-0.003099
0.001834
-0.0003119
0.0001352
0.0001767
0.0007222
-0.003926
0.0002805
5.008e-05
-0.0003306
0.0004447
-0.0002061
0.0007036
-0.0003077
-0.001599
0.001641
-4.262e-05
0.000687
-5.738e-05
-0.0006296
6.05e-05
0.0002259
-1.002
-0.2963
1.298
-3.782e-05
-0.0007574
0.7475
-0.7984
0.003503
-0.002267
-0.001236
-0.006442
0.005287
0.001156
-0.0006789
6.78e-05
0.0006968
0.0001319
-0.0008287
0.0001917
-0.0005679
0.0003763
-1.445
0.7446
0.7008
0.7262
-0.2992
-0.0002423
0.0007296
-0.0004873
0.0006734
-0.0005704
-0.1852
0.1799
0.005373
-0.001626
0.0009364
0.0006892
-0.0002775
-0.001241
-9.674e-05
0.0003399
-0.0002432
-0.0007702
-0.0008133
0.007565
0.06931
0.02944
-0.03124
0.001803
-0.0003655
-0.0003041
-8.53e-05
0.0005231
-0.0004378
0.0002062
-0.0002128
6.665e-06
-0.0002086
0.0002457
-0.727
-0.7184
-1.302
1.149
0.1534
-0.001927
0.0005587
0.001368
0.0001712
0.000191
-0.0003622
0.001349
-0.0003561
0.001047
-0.0007976
-0.0002493
-0.002664
0.001787
0.0008769
0.0004749
0.000607
0.0003682
0.0004094
-0.0007775
0.00028
0.001459
0.0002247
-0.00128
-0.003784
-0.002658
0.5434
-0.6529
0.1096
0.02346
0.02231
7.924e-05
-7.444e-05
-4.8e-06
-0.002356
0.0009647
0.001392
0.0001469
-0.0007834
0.01026
-0.01005
-0.0002071
0.0003574
-0.0006373
0.0002799
-0.0006526
0.001348
-0.0006954
8.474e-06
-3.161e-05
2.314e-05
1.194e-06
1.767e-06
-2.96e-06
0.002556
-0.0006885
-0.001867
0.002585
-0.002774
-0.005071
0.003082
0.001989
-0.0001426
5.557e-05
8.705e-05
-0.0002455
-0.0001268
0.0003723
-0.0002045
0.0001538
0.0002968
0.0006392
-0.000936
0.000516
0.0002505
0.0003401
-0.0003863
4.62e-05
0.001536
-0.001402
-0.0001338
0.001543
-0.0007627
-0.0007801
-0.0001726
0.0001201
5.247e-05
-0.5445
0.3643
0.1802
8.785e-06
-0.0002
0.0001912
-0.6497
0.2601
-0.0008513
0.0001803
0.0006711
1.32
0.3593
-0.001577
-0.001087
0.003848
-0.005776
0.001928
-0.000378
0.0003202
5.787e-05
-6.779e-05
-0.0008641
0.0009318
0.001317
-0.001873
0.0005556
-0.001382
0.0009578
-1.459
0.3756
0.0005939
0.001356
3.455e-05
-0.0001036
6.91e-05
-0.0004985
-0.0001607
0.0006593
0.0002249
-0.001332
0.001107
-0.0001265
0.001176
-0.001049
0.0001118
-2.47e-05
-8.707e-05
-0.0004083
-0.0004006
0.000673
-0.001432
-0.0002093
0.0002289
-1.96e-05
0.000702
-0.0001579
-0.001489
-0.0005254
0.002014
-0.001059
0.00256
-4.116e-05
6.137e-06
3.503e-05
0.000448
0.0005013
-0.0009492
0.0001556
-0.000212
5.642e-05
6.891e-05
-3.207e-05
-3.684e-05
-0.001514
-0.0002672
0.001781
-0.0005028
0.0007316
-0.0005221
-0.0001616
0.0006837
-0.000946
-3.758e-05
1.878e-05
9.298e-05
-3.243e-05
4.309e-05
-1.066e-05
-0.0125
0.01265
-0.0002934
0.000173
0.0001205
-1.4e-05
-0.0001142
0.0001282
-0.000989
0.001442
-0.0004528
0.002917
-0.003377
0.0004597
0.002837
-0.007046
0.004209
0.002617
-0.00273
0.0001123
0.02006
0.01769
-0.03775
-0.0001561
0.0002106
-5.445e-05
-0.002204
0.002447
-0.0002422
-0.0003531
-0.000585
0.0009381
0.0007592
-0.0001145
-0.0006447
-0.0001873
0.0001873
0.001955
-0.0008734
-0.001081
0.000154
-0.000154
0.00013
0.0001478
-0.0002778
0.0002414
-0.0005842
0.0003428
0.0004322
-0.0002553
-0.000177
-0.003635
0.00165
0.001985
0.5265
0.2798
-0.8063
0.005354
-0.002757
-0.002597
0.1609
0.8847
-1.046
0.0005199
-0.0004548
-6.517e-05
-0.000462
0.001272
-0.0008104
-0.001445
0.0003604
0.001085
-0.0004835
8.664e-05
0.0003969
0.0002792
-0.0001793
-9.986e-05
-0.0001729
-0.001648
0.001821
0.0002689
0.0001434
-0.0004123
0.0009346
-0.000395
-0.0005396
1.217e-06
-1.217e-06
-0.0005858
-0.000434
0.00102
1.114
0.056
-1.17
-0.0006413
0.0003461
0.0002952
0.001173
-0.0001103
-0.001063
-0.002189
0.001864
0.0003259
0.03425
-0.01267
-0.02158
-0.0004851
0.001116
-0.0006308
0.008404
0.3065
-0.3149
-0.001168
0.0002683
0.0008993
-0.0001234
5.265e-05
7.073e-05
-0.0003584
-0.00124
5.615e-06
-2.283e-06
-3.332e-06
-3.734e-07
3.734e-07
1.379
-0.3702
-0.0007594
0.002232
-0.001473
-0.0157
-0.004763
0.02668
-0.0272
0.00052
0.01678
0.004801
-0.02158
-0.0006276
0.001661
-0.001033
-0.4585
0.2111
0.2474
-0.0001658
0.0005026
-0.0003368
-0.0002086
0.001413
-0.001204
0.9884
0.03821
-1.027
0.001885
-0.00285
0.0009649
0.3598
0.1287
-0.4886
-6.234e-05
7.659e-05
-1.425e-05
-0.0001993
-0.0004569
0.0006563
-0.001238
0.0004826
0.0007551
-7.303e-05
-0.0001378
0.0002109
1.622
-0.5076
0.08354
-0.03683
-0.0467
0.03831
0.04899
0.0001884
-0.0001884
-0.001611
-0.003223
0.004834
-0.1806
0.05446
0.1261
-0.0005038
-0.001267
0.001771
0.8215
-1.015
0.1939
0.001041
-0.0002815
-0.0007595
-0.3743
0.2536
0.1207
0.0002321
-0.0001381
-9.405e-05
0.001227
-0.001618
0.003217
-0.003558
0.0003414
0.0002615
0.001147
-0.5211
0.7514
-0.2303
-1.563
0.9817
1.721e-05
-5.337e-05
3.616e-05
-0.0009469
0.0002509
0.000696
-0.0001773
0.001533
-0.001356
2.447e-05
-3.04e-05
5.926e-06
-1.813e-05
8.012e-05
-6.2e-05
0.0006992
-0.0004955
-0.0002038
0.001945
-0.0009781
-0.0009671
0.0001505
-0.0005929
0.0004423
0.000686
-0.0003143
-0.0003717
0.05498
-0.0216
-0.03338
1.724e-05
-1.24e-05
-4.832e-06
0.005734
-0.003349
-0.002385
-1.462
0.4598
0.0001907
-0.0001907
-0.008789
0.004814
0.003976
-0.001465
0.01014
-0.008674
0.001565
-0.0003814
-0.001184
7.328e-05
-6.959e-05
-3.689e-06
0.3455
-0.4576
0.1121
0.0004105
-0.0004288
1.83e-05
0.0004361
-0.000372
-6.408e-05
6.586e-05
-6.181e-05
-4.055e-06
-4.908e-05
0.0003464
-0.0002973
0.05727
-0.004395
-0.05288
-8.111e-05
0.0001844
-0.0001033
0.0008354
0.002667
-0.0008997
0.0002336
0.0006661
-0.06727
0.2144
-0.1471
0.003123
0.002231
-0.04674
0.07166
-0.02492
7.862e-05
-5.341e-06
-0.0004806
0.00166
-0.00118
0.0001135
-0.000224
0.0001105
-0.0004364
0.0004102
2.618e-05
6.658e-05
-6.658e-05
-0.0006989
0.0007254
-2.658e-05
0.0007008
-2.232e-05
1.025e-05
-1.025e-05
-0.004835
-0.0009738
0.005809
0.0001582
-0.0001529
-5.351e-06
-0.0001591
-0.0004377
0.0005969
0.001852
-0.014
0.0001019
0.0004859
-0.0005877
0.003908
-0.002427
-0.001481
-6.515e-05
-9.446e-05
0.0001596
-3.186e-05
2.308e-05
8.789e-06
5.605e-05
-0.0001253
6.927e-05
0.01257
-0.001654
-0.01092
0.0001967
-6.344e-05
-0.0001333
1.429e-05
-2.903e-05
1.474e-05
0.0002252
-0.0008168
0.0005916
-0.001306
0.001669
-0.0003635
0.0002011
-0.0001197
-8.147e-05
-0.00255
0.001272
0.001278
-0.0005447
-4.26e-05
0.0005873
-8.42e-05
0.0002554
-0.0001712
0.000835
-0.0003077
-0.0005272
-0.001084
0.0008281
0.0002558
-0.7107
0.7124
-0.0005495
-0.000162
0.0007114
0.0005
-0.0003906
-0.0001094
0.0002214
-0.0009293
0.0007079
0.0004398
-0.0007394
0.0002996
-0.0005299
-1.92e-05
0.0005491
-1.429e-05
1.747e-05
-3.182e-06
0.0001206
-0.0001288
8.171e-06
-0.0002023
6.22e-05
0.0001401
0.0005883
-7.123e-05
-0.0005171
-2.069e-07
2.069e-07
-0.4473
0.4838
-0.0365
-0.0003227
0.0005338
-0.0002111
-0.003897
8.981e-05
0.001506
-0.0005975
-0.0009087
-0.0009997
0.0009309
6.881e-05
-0.4555
0.8884
-0.4329
-7.051e-05
0.0001879
-0.0001174
0.000873
0.001683
-0.0001072
0.0002717
-0.0001645
3.228e-05
-3.228e-05
-0.0001013
8.932e-05
1.193e-05
-0.001178
0.007213
-0.006034
0.0003642
0.0002378
-0.0006021
-0.001173
0.0005606
0.0006124
-0.0008973
0.002535
-0.001638
6.419e-05
0.0001031
-0.0001673
-0.0005963
-4.499e-05
0.001053
-0.0008663
-0.0001865
-0.658
0.3042
0.3538
-0.001285
-0.00113
0.002415
-0.0003843
0.0001191
0.0002652
0.1883
0.000369
-0.1887
-0.0003408
0.006485
-0.006144
-0.0001463
-0.001218
0.001364
-0.004073
0.00936
-0.005287
-0.005405
0.0002743
0.005131
-5.957e-05
0.0001409
-8.136e-05
-0.002022
-2.742e-05
0.002049
-0.0007773
0.0003822
0.0003951
-0.0003472
3.535e-05
-2.339e-05
0.002871
0.005498
-0.008369
-4.391e-05
-0.0001897
-0.0009697
0.001909
-0.0009391
4.693e-05
0.0004182
-0.0004651
0.000139
-2.754e-05
-0.0001115
-0.00867
0.01945
-0.01078
0.6945
0.09696
-0.0007656
-0.001591
0.0005728
0.0007449
-0.001318
-0.0008692
-0.0009366
0.001806
-2.071e-05
7.625e-06
1.308e-05
0.001935
-0.001708
-0.0002272
-0.01009
-0.0004396
0.01053
-1.55
0.8097
0.7398
0.3613
-0.2449
-0.1165
0.003757
-0.003027
-0.0007301
-0.0001142
-0.0001256
0.0002398
0.001405
-0.001029
-0.0003759
-0.0004122
-0.0008557
0.001268
0.002907
-0.004968
0.002061
-0.000971
0.0006738
0.0002972
0.0003795
-0.0005051
0.0001255
7.297e-05
-7.297e-05
0.0009302
-0.001401
0.0004704
0.0002157
0.001399
-0.001614
0.001215
-0.0006945
-0.0005393
0.002374
-0.001835
-0.2263
0.8987
-0.6724
-0.3338
1.176
-0.8423
-0.002389
-0.004073
0.006462
0.000217
-7.016e-05
-0.0001468
-0.0003457
0.0006424
-0.0002967
-0.001706
-0.001928
0.003633
0.364
0.06471
-0.4287
1.107
-0.8616
-0.2454
0.286
0.1954
-0.4814
0.0002998
-9.491e-05
-0.0002049
-6.08e-07
3.974e-06
-0.1982
-0.7044
0.9026
-0.0001855
7.116e-06
0.0001784
-0.000151
0.0002104
-5.939e-05
9.858e-05
-6.302e-05
-3.556e-05
-0.007557
0.002937
0.00462
-0.2765
0.8748
-0.5982
-0.08845
-0.1074
4.006e-05
-0.0002352
0.0001951
-6.426e-05
6.426e-05
0.000328
-0.0002861
-4.187e-05
-5.978e-07
5.978e-07
0.0008401
-0.0002778
-0.0005622
0.0004246
-0.000805
0.0003804
-0.0009919
0.001166
-0.0001738
-0.008499
0.006106
0.002393
-0.0005021
0.0004485
5.36e-05
-0.0003879
0.0006378
-0.0002498
0.001244
-0.0003014
-0.0009425
-3.053e-06
2.753e-05
0.001418
-0.0002155
-0.001203
-0.0004086
-0.0003912
0.0007997
-0.002504
0.007218
-0.004714
-0.0006731
-6.567e-05
0.0007387
-0.0007827
-9.592e-05
-0.01259
0.01412
-0.001533
-0.09451
0.3134
-0.2189
-0.1861
0.3535
-0.1674
0.0008314
-0.0002454
-0.000586
-5.011e-05
8.635e-05
-3.625e-05
-0.0002112
0.0009126
-0.0007014
-0.0001321
-0.000173
0.0003051
-0.01022
0.01548
-0.005268
-0.0003216
0.0007464
-0.0004249
-0.0003218
-0.0001861
0.0005078
0.2872
-0.01517
-0.2721
-0.0002423
-0.0001131
0.0003554
0.0007743
-0.0002453
-0.000529
5.496e-07
-5.566e-06
5.017e-06
0.0004319
-0.0005058
7.389e-05
-0.0008372
0.0005202
0.000317
-0.0003963
0.0001228
0.0002735
0.001596
-0.0002941
-0.001302
-2.468e-05
0.0003478
0.4152
0.3295
-0.7448
-0.0002827
-0.0003425
-6.421e-05
-0.0003792
0.0004434
-0.0001158
-0.0001698
0.0002856
-0.01089
-0.003432
0.01432
-0.001179
0.00144
0.0001335
0.008881
-0.009015
-0.003482
0.0004511
0.003031
-0.21
-0.1004
0.02613
0.03186
-0.000241
0.0001323
0.0001088
0.0007313
-0.0008028
7.149e-05
0.01303
-0.2274
0.2144
3.208e-05
-3.163e-05
-4.432e-07
-0.0004435
0.0003624
8.11e-05
0.00113
-0.0007797
-0.0003505
0.7032
-0.9642
0.261
-0.002013
0.001385
-0.003261
0.002935