# Force coefficients
# dragDir   : (1.0000e+00 0.0000e+00 0.0000e+00)
# sideDir   : (0.0000e+00 0.0000e+00 -1.0000e+00)
# liftDir   : (0.0000e+00 1.0000e+00 0.0000e+00)
# rollAxis  : (1.0000e+00 0.0000e+00 0.0000e+00)
# pitchAxis : (0.0000e+00 0.0000e+00 -1.0000e+00)
# yawAxis   : (0.0000e+00 1.0000e+00 0.0000e+00)
# magUInf   : 1.0000e+00
# lRef      : 1.0000e+00
# Aref      : 1.0000e+00
# CofR      : (0.0000e+00 0.0000e+00 0.0000e+00)
#
# Time      	Cd          	Cs          	Cl          	CmRoll      	CmPitch     	CmYaw       	Cd(f)       	Cd(r)       	Cs(f)       	Cs(r)       	Cl(f)       	Cl(r)       
0.001       	4.0282e+01	2.5448e-19	5.7286e+01	-2.8643e+01	-3.6705e+01	2.0141e+01	-8.5019e+00	4.8784e+01	2.0141e+01	-2.0141e+01	-8.0620e+00	6.5348e+01
0.002       	6.6153e+01	1.1247e-19	8.6137e+01	-4.3068e+01	-5.7494e+01	3.3076e+01	-9.9921e+00	7.6145e+01	3.3076e+01	-3.3076e+01	-1.4426e+01	1.0056e+02
0.003       	1.5142e+01	6.4680e-20	2.9427e+01	-1.4714e+01	-2.0368e+01	7.5710e+00	-7.1426e+00	2.2285e+01	7.5710e+00	-7.5710e+00	-5.6546e+00	3.5082e+01
0.004       	-4.5594e+01	-2.9927e-20	-5.3007e+01	2.6503e+01	3.6255e+01	-2.2797e+01	3.7063e+00	-4.9300e+01	-2.2797e+01	2.2797e+01	9.7512e+00	-6.2758e+01
0.005       	-5.3795e+01	-8.3501e-20	-7.1279e+01	3.5639e+01	5.0140e+01	-2.6897e+01	8.7420e+00	-6.2537e+01	-2.6897e+01	2.6897e+01	1.4501e+01	-8.5780e+01
0.006       	-3.3836e+01	-7.9322e-20	-4.5703e+01	2.2851e+01	3.3032e+01	-1.6918e+01	5.9337e+00	-3.9769e+01	-1.6918e+01	1.6918e+01	1.0181e+01	-5.5884e+01
0.007       	4.3560e+01	-1.9770e-20	5.8627e+01	-2.9314e+01	-3.6895e+01	2.1780e+01	-7.5336e+00	5.1093e+01	2.1780e+01	-2.1780e+01	-7.5811e+00	6.6208e+01
0.008       	6.2985e+01	4.5279e-20	8.7160e+01	-4.3580e+01	-5.7334e+01	3.1493e+01	-1.2087e+01	7.5072e+01	3.1493e+01	-3.1493e+01	-1.3754e+01	1.0091e+02
0.009       	4.8401e+01	4.6915e-20	6.8611e+01	-3.4305e+01	-4.6173e+01	2.4201e+01	-1.0105e+01	5.8506e+01	2.4201e+01	-2.4201e+01	-1.1867e+01	8.0478e+01
0.01        	-3.7171e+01	2.0154e-20	-4.9836e+01	2.4918e+01	3.1952e+01	-1.8586e+01	6.3324e+00	-4.3504e+01	-1.8586e+01	1.8586e+01	7.0344e+00	-5.6870e+01
0.011       	-6.3587e+01	-1.3441e-20	-8.8031e+01	4.4016e+01	5.8585e+01	-3.1794e+01	1.2222e+01	-7.5809e+01	-3.1794e+01	3.1794e+01	1.4569e+01	-1.0260e+02
0.012       	-4.9829e+01	-1.7136e-20	-6.9874e+01	3.4937e+01	4.7762e+01	-2.4915e+01	1.0022e+01	-5.9852e+01	-2.4915e+01	2.4915e+01	1.2825e+01	-8.2699e+01
0.013       	3.2272e+01	-1.5409e-20	4.3281e+01	-2.1640e+01	-2.7606e+01	1.6136e+01	-5.5045e+00	3.7776e+01	1.6136e+01	-1.6136e+01	-5.9660e+00	4.9247e+01
0.014       	6.2743e+01	-7.4057e-22	8.6540e+01	-4.3270e+01	-5.8226e+01	3.1371e+01	-1.1899e+01	7.4641e+01	3.1371e+01	-3.1371e+01	-1.4955e+01	1.0150e+02
0.015       	4.9672e+01	2.8577e-21	6.9047e+01	-3.4524e+01	-4.7990e+01	2.4836e+01	-9.6874e+00	5.9360e+01	2.4836e+01	-2.4836e+01	-1.3467e+01	8.2514e+01
0.016       	-2.3913e+01	1.1967e-20	-3.1808e+01	1.5904e+01	1.9714e+01	-1.1957e+01	3.9476e+00	-2.7861e+01	-1.1957e+01	1.1957e+01	3.8102e+00	-3.5618e+01
0.017       	-5.5347e+01	9.0626e-21	-7.5841e+01	3.7921e+01	5.1612e+01	-2.7673e+01	1.0247e+01	-6.5594e+01	-2.7673e+01	2.7673e+01	1.3691e+01	-8.9533e+01
0.018       	-3.5346e+01	3.4226e-21	-4.8984e+01	2.4492e+01	3.5629e+01	-1.7673e+01	6.8190e+00	-4.2165e+01	-1.7673e+01	1.7673e+01	1.1137e+01	-6.0121e+01
0.019       	1.7942e+01	-7.5841e-21	2.3956e+01	-1.1978e+01	-1.4410e+01	8.9710e+00	-3.0070e+00	2.0949e+01	8.9710e+00	-8.9710e+00	-2.4322e+00	2.6388e+01
0.02        	4.0896e+01	-9.4183e-21	5.5985e+01	-2.7993e+01	-3.8570e+01	2.0448e+01	-7.5446e+00	4.8440e+01	2.0448e+01	-2.0448e+01	-1.0577e+01	6.6562e+01
0.021       	2.5648e+01	-4.3752e-21	3.5754e+01	-1.7877e+01	-2.6859e+01	1.2824e+01	-5.0529e+00	3.0701e+01	1.2824e+01	-1.2824e+01	-8.9819e+00	4.4736e+01
0.022       	-4.9337e+00	3.3189e-21	-6.1155e+00	3.0577e+00	1.8397e+00	-2.4668e+00	5.9091e-01	-5.5246e+00	-2.4668e+00	2.4668e+00	-1.2181e+00	-4.8974e+00
0.023       	-2.6601e+01	8.0741e-21	-3.6398e+01	1.8199e+01	2.5442e+01	-1.3301e+01	4.8986e+00	-3.1500e+01	-1.3301e+01	1.3301e+01	7.2432e+00	-4.3642e+01
0.024       	-1.9504e+01	5.4540e-21	-2.7130e+01	1.3565e+01	2.1187e+01	-9.7522e+00	3.8129e+00	-2.3317e+01	-9.7522e+00	9.7522e+00	7.6221e+00	-3.4752e+01
0.025       	1.3884e-01	-1.5438e-22	-1.4183e-01	7.0917e-02	2.5147e+00	6.9421e-02	1.4034e-01	-1.4961e-03	6.9421e-02	-6.9421e-02	2.4438e+00	-2.5857e+00
0.026       	1.8068e+01	-5.5381e-21	2.4815e+01	-1.2407e+01	-1.7251e+01	9.0340e+00	-3.3735e+00	2.1442e+01	9.0340e+00	-9.0340e+00	-4.8431e+00	2.9658e+01
0.027       	1.6480e+01	-5.0035e-21	2.2920e+01	-1.1460e+01	-1.7897e+01	8.2398e+00	-3.2200e+00	1.9700e+01	8.2398e+00	-8.2398e+00	-6.4376e+00	2.9357e+01
0.028       	3.3838e+00	-9.4078e-22	4.9143e+00	-2.4572e+00	-5.3607e+00	1.6919e+00	-7.6525e-01	4.1491e+00	1.6919e+00	-1.6919e+00	-2.9035e+00	7.8178e+00
0.029       	-9.6536e+00	3.6093e-21	-1.3178e+01	6.5889e+00	9.1343e+00	-4.8268e+00	1.7621e+00	-1.1416e+01	-4.8268e+00	4.8268e+00	2.5454e+00	-1.5723e+01
0.03        	-1.0586e+01	4.1418e-21	-1.4645e+01	7.3227e+00	1.1878e+01	-5.2928e+00	2.0299e+00	-1.2615e+01	-5.2928e+00	5.2928e+00	4.5557e+00	-1.9201e+01
0.031       	-2.1316e+00	1.3715e-21	-3.0051e+00	1.5025e+00	3.7041e+00	-1.0658e+00	4.3673e-01	-2.5684e+00	-1.0658e+00	1.0658e+00	2.2016e+00	-5.2067e+00
0.032       	6.6401e+00	-1.9976e-21	9.1712e+00	-4.5856e+00	-6.1945e+00	3.3201e+00	-1.2655e+00	7.9056e+00	3.3201e+00	-3.3201e+00	-1.6090e+00	1.0780e+01
0.033       	8.2363e+00	-2.9092e-21	1.1448e+01	-5.7242e+00	-9.0582e+00	4.1181e+00	-1.6061e+00	9.8424e+00	4.1181e+00	-4.1181e+00	-3.3340e+00	1.4782e+01
0.034       	3.1468e+00	-1.1509e-21	4.4371e+00	-2.2186e+00	-4.1844e+00	1.5734e+00	-6.4519e-01	3.7920e+00	1.5734e+00	-1.5734e+00	-1.9658e+00	6.4030e+00
0.035       	-1.3515e+00	6.2296e-22	-1.8255e+00	9.1273e-01	9.0080e-01	-6.7573e-01	2.3701e-01	-1.5885e+00	-6.7573e-01	6.7573e-01	-1.1938e-02	-1.8135e+00
0.036       	-4.1621e+00	2.0857e-21	-5.7238e+00	2.8619e+00	4.8309e+00	-2.0811e+00	7.8085e-01	-4.9430e+00	-2.0811e+00	2.0811e+00	1.9690e+00	-7.6928e+00
0.037       	-2.0356e+00	1.4253e-21	-2.7762e+00	1.3881e+00	3.0146e+00	-1.0178e+00	3.7030e-01	-2.4059e+00	-1.0178e+00	1.0178e+00	1.6265e+00	-4.4027e+00
0.038       	1.0205e+00	1.4326e-22	1.4743e+00	-7.3714e-01	-4.6962e-01	5.1026e-01	-2.2688e-01	1.2474e+00	5.1026e-01	-5.1026e-01	2.6752e-01	1.2068e+00
0.039       	3.7658e+00	-1.3007e-21	5.2483e+00	-2.6241e+00	-4.0878e+00	1.8829e+00	-7.4126e-01	4.5070e+00	1.8829e+00	-1.8829e+00	-1.4637e+00	6.7120e+00
0.04        	3.1813e+00	-1.2239e-21	4.4187e+00	-2.2093e+00	-3.8155e+00	1.5907e+00	-6.1868e-01	3.8000e+00	1.5907e+00	-1.5907e+00	-1.6062e+00	6.0249e+00
0.041       	1.1255e+00	-3.1376e-22	1.5680e+00	-7.8401e-01	-1.4591e+00	5.6276e-01	-2.2125e-01	1.3468e+00	5.6276e-01	-5.6276e-01	-6.7508e-01	2.2431e+00
0.042       	-7.4641e-01	6.8385e-22	-1.0010e+00	5.0049e-01	9.5456e-01	-3.7321e-01	1.2728e-01	-8.7369e-01	-3.7321e-01	3.7321e-01	4.5408e-01	-1.4550e+00
0.043       	-1.1624e+00	1.0309e-21	-1.5395e+00	7.6975e-01	1.7376e+00	-5.8122e-01	1.8852e-01	-1.3510e+00	-5.8122e-01	5.8122e-01	9.6784e-01	-2.5073e+00
0.044       	-3.1558e-02	5.1514e-22	2.9166e-02	-1.4583e-02	4.6333e-01	-1.5779e-02	-3.0362e-02	-1.1962e-03	-1.5779e-02	1.5779e-02	4.7791e-01	-4.4874e-01
0.045       	1.3483e+00	-2.3349e-22	1.9184e+00	-9.5920e-01	-1.2951e+00	6.7416e-01	-2.8504e-01	1.6334e+00	6.7416e-01	-6.7416e-01	-3.3585e-01	2.2543e+00
0.046       	1.9705e+00	-6.3010e-22	2.7499e+00	-1.3750e+00	-2.1951e+00	9.8524e-01	-3.8973e-01	2.3602e+00	9.8524e-01	-9.8524e-01	-8.2015e-01	3.5701e+00
0.047       	1.5603e+00	-4.5706e-22	2.1697e+00	-1.0848e+00	-1.7803e+00	7.8017e-01	-3.0468e-01	1.8650e+00	7.8017e-01	-7.8017e-01	-6.9550e-01	2.8652e+00
0.048       	6.7342e-01	2.7424e-23	9.5377e-01	-4.7689e-01	-6.7116e-01	3.3671e-01	-1.4017e-01	8.1360e-01	3.3671e-01	-3.3671e-01	-1.9427e-01	1.1480e+00
0.049       	9.3237e-02	3.7923e-22	1.7446e-01	-8.7232e-02	1.2261e-01	4.6619e-02	-4.0613e-02	1.3385e-01	4.6619e-02	-4.6619e-02	2.0984e-01	-3.5373e-02
0.05        	1.2415e-01	3.9050e-22	2.3402e-01	-1.1701e-01	1.4863e-01	6.2075e-02	-5.4933e-02	1.7908e-01	6.2075e-02	-6.2075e-02	2.6564e-01	-3.1625e-02
0.051       	6.1100e-01	1.2312e-22	9.0431e-01	-4.5215e-01	-4.4416e-01	3.0550e-01	-1.4665e-01	7.5765e-01	3.0550e-01	-3.0550e-01	7.9926e-03	8.9631e-01
0.052       	1.0627e+00	-1.4395e-22	1.5141e+00	-7.5705e-01	-1.0404e+00	5.3133e-01	-2.2572e-01	1.2884e+00	5.3133e-01	-5.3133e-01	-2.8332e-01	1.7974e+00
0.053       	1.0982e+00	-1.7068e-22	1.5556e+00	-7.7781e-01	-1.1015e+00	5.4911e-01	-2.2869e-01	1.3269e+00	5.4911e-01	-5.4911e-01	-3.2368e-01	1.8793e+00
0.054       	9.8919e-01	-1.2244e-22	1.3943e+00	-6.9715e-01	-1.0001e+00	4.9459e-01	-2.0256e-01	1.1917e+00	4.9459e-01	-4.9459e-01	-3.0299e-01	1.6973e+00
0.055       	7.5822e-01	1.1776e-23	1.0796e+00	-5.3979e-01	-7.1149e-01	3.7911e-01	-1.6068e-01	9.1890e-01	3.7911e-01	-3.7911e-01	-1.7170e-01	1.2513e+00
0.056       	7.0677e-01	4.7233e-23	1.0147e+00	-5.0733e-01	-6.3378e-01	3.5339e-01	-1.5394e-01	8.6072e-01	3.5339e-01	-3.5339e-01	-1.2645e-01	1.1411e+00
0.057       	6.6701e-01	8.4696e-23	9.7175e-01	-4.8587e-01	-5.5921e-01	3.3350e-01	-1.5237e-01	8.1938e-01	3.3350e-01	-3.3350e-01	-7.3333e-02	1.0451e+00
0.058       	6.6495e-01	9.8597e-23	9.7810e-01	-4.8905e-01	-5.2488e-01	3.3247e-01	-1.5658e-01	8.2152e-01	3.3247e-01	-3.3247e-01	-3.5833e-02	1.0139e+00
0.059       	6.9820e-01	7.5325e-23	1.0207e+00	-5.1037e-01	-5.6897e-01	3.4910e-01	-1.6127e-01	8.5947e-01	3.4910e-01	-3.4910e-01	-5.8596e-02	1.0793e+00
0.06        	7.5293e-01	3.4797e-23	1.0897e+00	-5.4487e-01	-6.5004e-01	3.7646e-01	-1.6841e-01	9.2134e-01	3.7646e-01	-3.7646e-01	-1.0516e-01	1.1949e+00
0.061       	8.2798e-01	-1.9522e-23	1.1847e+00	-5.9236e-01	-7.6148e-01	4.1399e-01	-1.7837e-01	1.0063e+00	4.1399e-01	-4.1399e-01	-1.6912e-01	1.3538e+00
0.062       	8.8943e-01	-5.9907e-23	1.2634e+00	-6.3171e-01	-8.4999e-01	4.4471e-01	-1.8699e-01	1.0764e+00	4.4471e-01	-4.4471e-01	-2.1828e-01	1.4817e+00
0.063       	9.0516e-01	-6.4622e-23	1.2856e+00	-6.4278e-01	-8.7039e-01	4.5258e-01	-1.9020e-01	1.0954e+00	4.5258e-01	-4.5258e-01	-2.2761e-01	1.5132e+00
0.064       	8.8400e-01	-4.3683e-23	1.2606e+00	-6.3031e-01	-8.3688e-01	4.4200e-01	-1.8831e-01	1.0723e+00	4.4200e-01	-4.4200e-01	-2.0657e-01	1.4672e+00
0.065       	8.3732e-01	-5.4550e-24	1.2025e+00	-6.0126e-01	-7.6578e-01	4.1866e-01	-1.8260e-01	1.0199e+00	4.1866e-01	-4.1866e-01	-1.6453e-01	1.3670e+00
0.066       	7.8413e-01	3.4431e-23	1.1352e+00	-5.6758e-01	-6.8695e-01	3.9206e-01	-1.7552e-01	9.5965e-01	3.9206e-01	-3.9206e-01	-1.1937e-01	1.2545e+00
0.067       	7.4736e-01	5.8356e-23	1.0875e+00	-5.4377e-01	-6.3485e-01	3.7368e-01	-1.7009e-01	9.1745e-01	3.7368e-01	-3.7368e-01	-9.1078e-02	1.1786e+00
0.068       	7.3369e-01	6.3334e-23	1.0684e+00	-5.3419e-01	-6.1749e-01	3.6685e-01	-1.6735e-01	9.0104e-01	3.6685e-01	-3.6685e-01	-8.3294e-02	1.1517e+00
0.069       	7.4425e-01	5.0690e-23	1.0798e+00	-5.3991e-01	-6.3482e-01	3.7213e-01	-1.6779e-01	9.1204e-01	3.7213e-01	-3.7213e-01	-9.4901e-02	1.1747e+00
0.07        	7.7960e-01	2.3623e-23	1.1242e+00	-5.6212e-01	-6.8517e-01	3.8980e-01	-1.7232e-01	9.5193e-01	3.8980e-01	-3.8980e-01	-1.2304e-01	1.2473e+00
0.071       	8.2184e-01	-3.4371e-24	1.1796e+00	-5.8981e-01	-7.4195e-01	4.1092e-01	-1.7889e-01	1.0007e+00	4.1092e-01	-4.1092e-01	-1.5214e-01	1.3318e+00
0.072       	8.4972e-01	-1.8274e-23	1.2174e+00	-6.0871e-01	-7.7710e-01	4.2486e-01	-1.8385e-01	1.0336e+00	4.2486e-01	-4.2486e-01	-1.6839e-01	1.3858e+00
0.073       	8.6419e-01	-2.3823e-23	1.2378e+00	-6.1892e-01	-7.9350e-01	4.3209e-01	-1.8682e-01	1.0510e+00	4.3209e-01	-4.3209e-01	-1.7459e-01	1.4124e+00
0.074       	8.7478e-01	-2.4923e-23	1.2539e+00	-6.2697e-01	-8.0310e-01	4.3739e-01	-1.8958e-01	1.0644e+00	4.3739e-01	-4.3739e-01	-1.7614e-01	1.4301e+00
0.075       	8.8015e-01	-1.9967e-23	1.2642e+00	-6.3208e-01	-8.0347e-01	4.4008e-01	-1.9200e-01	1.0722e+00	4.4008e-01	-4.4008e-01	-1.7140e-01	1.4356e+00
0.076       	8.7418e-01	-7.3069e-24	1.2595e+00	-6.2974e-01	-7.8831e-01	4.3709e-01	-1.9266e-01	1.0668e+00	4.3709e-01	-4.3709e-01	-1.5856e-01	1.4180e+00
0.077       	8.5577e-01	9.1308e-24	1.2366e+00	-6.1832e-01	-7.5996e-01	4.2789e-01	-1.9044e-01	1.0462e+00	4.2789e-01	-4.2789e-01	-1.4164e-01	1.3783e+00
0.078       	8.3827e-01	1.9748e-23	1.2130e+00	-6.0652e-01	-7.3720e-01	4.1913e-01	-1.8739e-01	1.0257e+00	4.1913e-01	-4.1913e-01	-1.3068e-01	1.3437e+00
0.079       	8.3083e-01	2.2868e-23	1.2025e+00	-6.0127e-01	-7.2870e-01	4.1542e-01	-1.8585e-01	1.0167e+00	4.1542e-01	-4.1542e-01	-1.2743e-01	1.3300e+00
0.08        	8.2616e-01	2.3912e-23	1.1956e+00	-5.9778e-01	-7.2420e-01	4.1308e-01	-1.8469e-01	1.0109e+00	4.1308e-01	-4.1308e-01	-1.2643e-01	1.3220e+00
0.081       	8.2244e-01	2.3260e-23	1.1892e+00	-5.9462e-01	-7.2198e-01	4.1122e-01	-1.8340e-01	1.0058e+00	4.1122e-01	-4.1122e-01	-1.2737e-01	1.3166e+00
0.082       	8.2360e-01	1.8846e-23	1.1889e+00	-5.9446e-01	-7.2675e-01	4.1180e-01	-1.8266e-01	1.0063e+00	4.1180e-01	-4.1180e-01	-1.3229e-01	1.3212e+00
0.083       	8.3540e-01	9.2850e-24	1.2034e+00	-6.0169e-01	-7.4375e-01	4.1770e-01	-1.8400e-01	1.0194e+00	4.1770e-01	-4.1770e-01	-1.4205e-01	1.3454e+00
0.084       	8.5625e-01	-2.1847e-24	1.2317e+00	-6.1587e-01	-7.6877e-01	4.2812e-01	-1.8775e-01	1.0440e+00	4.2812e-01	-4.2812e-01	-1.5290e-01	1.3846e+00
0.085       	8.7199e-01	-8.4648e-24	1.2542e+00	-6.2712e-01	-7.8542e-01	4.3599e-01	-1.9113e-01	1.0631e+00	4.3599e-01	-4.3599e-01	-1.5829e-01	1.4125e+00
0.086       	8.7741e-01	-9.8362e-24	1.2623e+00	-6.3116e-01	-7.9029e-01	4.3870e-01	-1.9245e-01	1.0699e+00	4.3870e-01	-4.3870e-01	-1.5913e-01	1.4214e+00
0.087       	8.8162e-01	-1.0074e-23	1.2689e+00	-6.3444e-01	-7.9327e-01	4.4081e-01	-1.9363e-01	1.0752e+00	4.4081e-01	-4.4081e-01	-1.5883e-01	1.4277e+00
0.088       	8.8711e-01	-8.9681e-24	1.2778e+00	-6.3892e-01	-7.9603e-01	4.4355e-01	-1.9536e-01	1.0825e+00	4.4355e-01	-4.4355e-01	-1.5712e-01	1.4350e+00
0.089       	8.9395e-01	-5.3632e-24	1.2896e+00	-6.4480e-01	-7.9787e-01	4.4697e-01	-1.9783e-01	1.0918e+00	4.4697e-01	-4.4697e-01	-1.5307e-01	1.4427e+00
0.09        	8.9997e-01	1.6528e-24	1.3010e+00	-6.5051e-01	-7.9684e-01	4.4999e-01	-2.0052e-01	1.1005e+00	4.4999e-01	-4.4999e-01	-1.4633e-01	1.4473e+00
0.091       	9.0028e-01	1.0566e-23	1.3041e+00	-6.5203e-01	-7.9084e-01	4.5014e-01	-2.0189e-01	1.1022e+00	4.5014e-01	-4.5014e-01	-1.3881e-01	1.4429e+00
0.092       	8.9311e-01	1.6216e-23	1.2945e+00	-6.4724e-01	-7.8202e-01	4.4655e-01	-2.0069e-01	1.0938e+00	4.4655e-01	-4.4655e-01	-1.3477e-01	1.4293e+00
0.093       	8.8745e-01	1.6614e-23	1.2858e+00	-6.4289e-01	-7.7792e-01	4.4373e-01	-1.9916e-01	1.0866e+00	4.4373e-01	-4.4373e-01	-1.3504e-01	1.4208e+00
0.094       	8.8500e-01	1.5507e-23	1.2816e+00	-6.4082e-01	-7.7718e-01	4.4250e-01	-1.9832e-01	1.0833e+00	4.4250e-01	-4.4250e-01	-1.3636e-01	1.4180e+00
0.095       	8.8344e-01	1.3383e-23	1.2785e+00	-6.3926e-01	-7.7790e-01	4.4172e-01	-1.9754e-01	1.0810e+00	4.4172e-01	-4.4172e-01	-1.3864e-01	1.4172e+00
0.096       	8.8311e-01	9.5570e-24	1.2767e+00	-6.3835e-01	-7.8090e-01	4.4155e-01	-1.9679e-01	1.0799e+00	4.4155e-01	-4.4155e-01	-1.4255e-01	1.4192e+00
0.097       	8.8596e-01	3.4256e-24	1.2789e+00	-6.3944e-01	-7.8799e-01	4.4298e-01	-1.9646e-01	1.0824e+00	4.4298e-01	-4.4298e-01	-1.4855e-01	1.4274e+00
0.098       	8.9441e-01	-4.2690e-24	1.2891e+00	-6.4453e-01	-8.0024e-01	4.4720e-01	-1.9733e-01	1.0917e+00	4.4720e-01	-4.4720e-01	-1.5571e-01	1.4448e+00
0.099       	9.0803e-01	-1.0662e-23	1.3077e+00	-6.5387e-01	-8.1516e-01	4.5401e-01	-1.9986e-01	1.1079e+00	4.5401e-01	-4.5401e-01	-1.6129e-01	1.4690e+00
0.1         	9.2067e-01	-1.2901e-23	1.3264e+00	-6.6322e-01	-8.2610e-01	4.6034e-01	-2.0289e-01	1.1236e+00	4.6034e-01	-4.6034e-01	-1.6287e-01	1.4893e+00
0.101       	9.2752e-01	-1.2007e-23	1.3373e+00	-6.6865e-01	-8.3031e-01	4.6376e-01	-2.0489e-01	1.1324e+00	4.6376e-01	-4.6376e-01	-1.6166e-01	1.4990e+00
0.102       	9.3126e-01	-9.9060e-24	1.3437e+00	-6.7187e-01	-8.3130e-01	4.6563e-01	-2.0624e-01	1.1375e+00	4.6563e-01	-4.6563e-01	-1.5943e-01	1.5032e+00
0.103       	9.3395e-01	-6.5689e-24	1.3489e+00	-6.7447e-01	-8.3057e-01	4.6697e-01	-2.0749e-01	1.1414e+00	4.6697e-01	-4.6697e-01	-1.5611e-01	1.5050e+00
0.104       	9.3590e-01	-1.5641e-24	1.3534e+00	-6.7672e-01	-8.2807e-01	4.6795e-01	-2.0877e-01	1.1447e+00	4.6795e-01	-4.6795e-01	-1.5135e-01	1.5048e+00
0.105       	9.3663e-01	5.1046e-24	1.3565e+00	-6.7825e-01	-8.2352e-01	4.6832e-01	-2.0993e-01	1.1466e+00	4.6832e-01	-4.6832e-01	-1.4527e-01	1.5018e+00
0.106       	9.3521e-01	1.1949e-23	1.3562e+00	-6.7812e-01	-8.1743e-01	4.6761e-01	-2.1051e-01	1.1457e+00	4.6761e-01	-4.6761e-01	-1.3931e-01	1.4956e+00
0.107       	9.3155e-01	1.6168e-23	1.3518e+00	-6.7589e-01	-8.1190e-01	4.6578e-01	-2.1012e-01	1.1417e+00	4.6578e-01	-4.6578e-01	-1.3601e-01	1.4878e+00
0.108       	9.2796e-01	1.5743e-23	1.3461e+00	-6.7306e-01	-8.0997e-01	4.6398e-01	-2.0908e-01	1.1370e+00	4.6398e-01	-4.6398e-01	-1.3691e-01	1.4830e+00
0.109       	9.2711e-01	1.2777e-23	1.3439e+00	-6.7197e-01	-8.1187e-01	4.6356e-01	-2.0842e-01	1.1355e+00	4.6356e-01	-4.6356e-01	-1.3990e-01	1.4838e+00
0.11        	9.2819e-01	9.6875e-24	1.3447e+00	-6.7234e-01	-8.1520e-01	4.6409e-01	-2.0824e-01	1.1364e+00	4.6409e-01	-4.6409e-01	-1.4286e-01	1.4875e+00
0.111       	9.3080e-01	6.2742e-24	1.3476e+00	-6.7381e-01	-8.1993e-01	4.6540e-01	-2.0841e-01	1.1392e+00	4.6540e-01	-4.6540e-01	-1.4612e-01	1.4937e+00
0.112       	9.3586e-01	2.0334e-24	1.3540e+00	-6.7699e-01	-8.2719e-01	4.6793e-01	-2.0906e-01	1.1449e+00	4.6793e-01	-4.6793e-01	-1.5020e-01	1.5042e+00
0.113       	9.4471e-01	-3.0882e-24	1.3657e+00	-6.8287e-01	-8.3808e-01	4.7236e-01	-2.1051e-01	1.1552e+00	4.7236e-01	-4.7236e-01	-1.5521e-01	1.5209e+00
0.114       	9.5737e-01	-8.1027e-24	1.3832e+00	-6.9161e-01	-8.5179e-01	4.7868e-01	-2.1293e-01	1.1703e+00	4.7868e-01	-4.7868e-01	-1.6018e-01	1.5434e+00
0.115       	9.7089e-01	-1.1272e-23	1.4026e+00	-7.0130e-01	-8.6472e-01	4.8545e-01	-2.1585e-01	1.1867e+00	4.8545e-01	-4.8545e-01	-1.6341e-01	1.5660e+00
0.116       	9.8049e-01	-1.1644e-23	1.4170e+00	-7.0849e-01	-8.7238e-01	4.9025e-01	-2.1824e-01	1.1987e+00	4.9025e-01	-4.9025e-01	-1.6389e-01	1.5809e+00
0.117       	9.8462e-01	-1.0244e-23	1.4236e+00	-7.1182e-01	-8.7436e-01	4.9231e-01	-2.1951e-01	1.2041e+00	4.9231e-01	-4.9231e-01	-1.6254e-01	1.5862e+00
0.118       	9.8566e-01	-8.2618e-24	1.4258e+00	-7.1292e-01	-8.7347e-01	4.9283e-01	-2.2008e-01	1.2057e+00	4.9283e-01	-4.9283e-01	-1.6055e-01	1.5864e+00
0.119       	9.8515e-01	-5.6630e-24	1.4258e+00	-7.1292e-01	-8.7086e-01	4.9258e-01	-2.2034e-01	1.2055e+00	4.9258e-01	-4.9258e-01	-1.5794e-01	1.5838e+00
0.12        	9.8325e-01	-2.0906e-24	1.4240e+00	-7.1199e-01	-8.6636e-01	4.9162e-01	-2.2037e-01	1.2036e+00	4.9162e-01	-4.9162e-01	-1.5437e-01	1.5784e+00
0.121       	9.7985e-01	2.5658e-24	1.4201e+00	-7.1007e-01	-8.5983e-01	4.8992e-01	-2.2014e-01	1.2000e+00	4.8992e-01	-4.8992e-01	-1.4977e-01	1.5699e+00
0.122       	9.7543e-01	7.5582e-24	1.4148e+00	-7.0742e-01	-8.5233e-01	4.8771e-01	-2.1970e-01	1.1951e+00	4.8771e-01	-4.8771e-01	-1.4492e-01	1.5598e+00
0.123       	9.7154e-01	1.1312e-23	1.4101e+00	-7.0504e-01	-8.4646e-01	4.8577e-01	-2.1927e-01	1.1908e+00	4.8577e-01	-4.8577e-01	-1.4142e-01	1.5515e+00
0.124       	9.7012e-01	1.2388e-23	1.4084e+00	-7.0422e-01	-8.4490e-01	4.8506e-01	-2.1916e-01	1.1893e+00	4.8506e-01	-4.8506e-01	-1.4068e-01	1.5491e+00
0.125       	9.7207e-01	1.0806e-23	1.4112e+00	-7.0558e-01	-8.4813e-01	4.8603e-01	-2.1955e-01	1.1916e+00	4.8603e-01	-4.8603e-01	-1.4255e-01	1.5537e+00
0.126       	9.7595e-01	8.1826e-24	1.4164e+00	-7.0819e-01	-8.5354e-01	4.8798e-01	-2.2021e-01	1.1962e+00	4.8798e-01	-4.8798e-01	-1.4535e-01	1.5617e+00
0.127       	9.8078e-01	5.3868e-24	1.4229e+00	-7.1143e-01	-8.5968e-01	4.9039e-01	-2.2104e-01	1.2018e+00	4.9039e-01	-4.9039e-01	-1.4824e-01	1.5711e+00
0.128       	9.8715e-01	2.2611e-24	1.4315e+00	-7.1574e-01	-8.6722e-01	4.9357e-01	-2.2217e-01	1.2093e+00	4.9357e-01	-4.9357e-01	-1.5148e-01	1.5830e+00
0.129       	9.9604e-01	-1.3689e-24	1.4436e+00	-7.2181e-01	-8.7708e-01	4.9802e-01	-2.2379e-01	1.2198e+00	4.9802e-01	-4.9802e-01	-1.5526e-01	1.5989e+00
0.13        	1.0074e+00	-5.1412e-24	1.4593e+00	-7.2966e-01	-8.8891e-01	5.0371e-01	-2.2596e-01	1.2334e+00	5.0371e-01	-5.0371e-01	-1.5924e-01	1.6186e+00
0.131       	1.0193e+00	-8.1362e-24	1.4760e+00	-7.3798e-01	-9.0043e-01	5.0965e-01	-2.2833e-01	1.2476e+00	5.0965e-01	-5.0965e-01	-1.6245e-01	1.6384e+00
0.132       	1.0284e+00	-9.5118e-24	1.4889e+00	-7.4447e-01	-9.0845e-01	5.1418e-01	-2.3029e-01	1.2586e+00	5.1418e-01	-5.1418e-01	-1.6398e-01	1.6529e+00
0.133       	1.0332e+00	-9.3354e-24	1.4961e+00	-7.4805e-01	-9.1190e-01	5.1658e-01	-2.3147e-01	1.2646e+00	5.1658e-01	-5.1658e-01	-1.6385e-01	1.6599e+00
0.134       	1.0347e+00	-8.2486e-24	1.4988e+00	-7.4939e-01	-9.1212e-01	5.1735e-01	-2.3204e-01	1.2667e+00	5.1735e-01	-5.1735e-01	-1.6273e-01	1.6615e+00
0.135       	1.0344e+00	-6.5210e-24	1.4989e+00	-7.4945e-01	-9.1039e-01	5.1719e-01	-2.3226e-01	1.2666e+00	5.1719e-01	-5.1719e-01	-1.6094e-01	1.6598e+00
0.136       	1.0326e+00	-4.0990e-24	1.4971e+00	-7.4854e-01	-9.0699e-01	5.1630e-01	-2.3224e-01	1.2648e+00	5.1630e-01	-5.1630e-01	-1.5845e-01	1.6555e+00
0.137       	1.0295e+00	-9.8712e-25	1.4936e+00	-7.4678e-01	-9.0206e-01	5.1476e-01	-2.3202e-01	1.2615e+00	5.1476e-01	-5.1476e-01	-1.5528e-01	1.6488e+00
0.138       	1.0257e+00	2.4107e-24	1.4890e+00	-7.4452e-01	-8.9638e-01	5.1285e-01	-2.3166e-01	1.2574e+00	5.1285e-01	-5.1285e-01	-1.5186e-01	1.6409e+00
0.139       	1.0224e+00	5.3182e-24	1.4850e+00	-7.4252e-01	-8.9150e-01	5.1118e-01	-2.3134e-01	1.2537e+00	5.1118e-01	-5.1118e-01	-1.4898e-01	1.6340e+00
0.14        	1.0207e+00	7.0357e-24	1.4831e+00	-7.4157e-01	-8.8890e-01	5.1034e-01	-2.3123e-01	1.2519e+00	5.1034e-01	-5.1034e-01	-1.4733e-01	1.6305e+00
0.141       	1.0211e+00	7.4738e-24	1.4840e+00	-7.4201e-01	-8.8901e-01	5.1057e-01	-2.3144e-01	1.2526e+00	5.1057e-01	-5.1057e-01	-1.4700e-01	1.6310e+00
0.142       	1.0238e+00	6.8363e-24	1.4878e+00	-7.4390e-01	-8.9168e-01	5.1189e-01	-2.3201e-01	1.2558e+00	5.1189e-01	-5.1189e-01	-1.4778e-01	1.6356e+00
0.143       	1.0289e+00	5.2208e-24	1.4949e+00	-7.4747e-01	-8.9709e-01	5.1444e-01	-2.3303e-01	1.2619e+00	5.1444e-01	-5.1444e-01	-1.4961e-01	1.6446e+00
0.144       	1.0366e+00	2.6982e-24	1.5057e+00	-7.5285e-01	-9.0529e-01	5.1831e-01	-2.3454e-01	1.2712e+00	5.1831e-01	-5.1831e-01	-1.5244e-01	1.6581e+00
0.145       	1.0465e+00	-4.5393e-25	1.5195e+00	-7.5975e-01	-9.1571e-01	5.2327e-01	-2.3648e-01	1.2830e+00	5.2327e-01	-5.2327e-01	-1.5596e-01	1.6755e+00
0.146       	1.0567e+00	-3.5133e-24	1.5336e+00	-7.6679e-01	-9.2616e-01	5.2833e-01	-2.3846e-01	1.2951e+00	5.2833e-01	-5.2833e-01	-1.5937e-01	1.6929e+00
0.147       	1.0646e+00	-5.7026e-24	1.5447e+00	-7.7234e-01	-9.3411e-01	5.3229e-01	-2.4004e-01	1.3046e+00	5.3229e-01	-5.3229e-01	-1.6178e-01	1.7064e+00
0.148       	1.0695e+00	-6.8001e-24	1.5516e+00	-7.7579e-01	-9.3873e-01	5.3474e-01	-2.4105e-01	1.3105e+00	5.3474e-01	-5.3474e-01	-1.6294e-01	1.7145e+00
0.149       	1.0725e+00	-7.1105e-24	1.5559e+00	-7.7794e-01	-9.4115e-01	5.3623e-01	-2.4171e-01	1.3142e+00	5.3623e-01	-5.3623e-01	-1.6322e-01	1.7191e+00
0.15        	1.0744e+00	-6.7561e-24	1.5588e+00	-7.7941e-01	-9.4220e-01	5.3720e-01	-2.4221e-01	1.3166e+00	5.3720e-01	-5.3720e-01	-1.6279e-01	1.7216e+00
0.151       	1.0756e+00	-5.6352e-24	1.5609e+00	-7.8043e-01	-9.4202e-01	5.3778e-01	-2.4265e-01	1.3182e+00	5.3778e-01	-5.3778e-01	-1.6159e-01	1.7224e+00
0.152       	1.0759e+00	-3.7292e-24	1.5619e+00	-7.8097e-01	-9.4062e-01	5.3794e-01	-2.4303e-01	1.3189e+00	5.3794e-01	-5.3794e-01	-1.5965e-01	1.7216e+00
0.153       	1.0755e+00	-1.3515e-24	1.5622e+00	-7.8108e-01	-9.3840e-01	5.3774e-01	-2.4334e-01	1.3188e+00	5.3774e-01	-5.3774e-01	-1.5732e-01	1.7195e+00
0.154       	1.0748e+00	8.0347e-25	1.5619e+00	-7.8097e-01	-9.3623e-01	5.3738e-01	-2.4359e-01	1.3183e+00	5.3738e-01	-5.3738e-01	-1.5526e-01	1.7172e+00
0.155       	1.0743e+00	2.2111e-24	1.5619e+00	-7.8096e-01	-9.3491e-01	5.3716e-01	-2.4380e-01	1.3181e+00	5.3716e-01	-5.3716e-01	-1.5395e-01	1.7159e+00
0.156       	1.0745e+00	2.8906e-24	1.5625e+00	-7.8123e-01	-9.3457e-01	5.3723e-01	-2.4400e-01	1.3185e+00	5.3723e-01	-5.3723e-01	-1.5334e-01	1.7158e+00
0.157       	1.0753e+00	3.1018e-24	1.5639e+00	-7.8193e-01	-9.3512e-01	5.3764e-01	-2.4429e-01	1.3196e+00	5.3764e-01	-5.3764e-01	-1.5318e-01	1.7170e+00
0.158       	1.0772e+00	2.9104e-24	1.5667e+00	-7.8333e-01	-9.3677e-01	5.3858e-01	-2.4475e-01	1.3219e+00	5.3858e-01	-5.3858e-01	-1.5344e-01	1.7201e+00
0.159       	1.0807e+00	2.2311e-24	1.5717e+00	-7.8586e-01	-9.4008e-01	5.4035e-01	-2.4551e-01	1.3262e+00	5.4035e-01	-5.4035e-01	-1.5422e-01	1.7259e+00
0.16        	1.0863e+00	9.7846e-25	1.5796e+00	-7.8982e-01	-9.4543e-01	5.4316e-01	-2.4666e-01	1.3330e+00	5.4316e-01	-5.4316e-01	-1.5561e-01	1.7353e+00
0.161       	1.0938e+00	-7.6788e-25	1.5902e+00	-7.9508e-01	-9.5264e-01	5.4689e-01	-2.4819e-01	1.3420e+00	5.4689e-01	-5.4689e-01	-1.5756e-01	1.7477e+00
0.162       	1.1015e+00	-2.6108e-24	1.6011e+00	-8.0055e-01	-9.6017e-01	5.5076e-01	-2.4979e-01	1.3513e+00	5.5076e-01	-5.5076e-01	-1.5962e-01	1.7607e+00
0.163       	1.1076e+00	-4.0296e-24	1.6098e+00	-8.0488e-01	-9.6609e-01	5.5380e-01	-2.5108e-01	1.3587e+00	5.5380e-01	-5.5380e-01	-1.6121e-01	1.7710e+00
0.164       	1.1113e+00	-4.8041e-24	1.6150e+00	-8.0752e-01	-9.6957e-01	5.5564e-01	-2.5188e-01	1.3632e+00	5.5564e-01	-5.5564e-01	-1.6205e-01	1.7771e+00
0.165       	1.1136e+00	-5.1437e-24	1.6184e+00	-8.0922e-01	-9.7162e-01	5.5681e-01	-2.5241e-01	1.3660e+00	5.5681e-01	-5.5681e-01	-1.6240e-01	1.7808e+00
0.166       	1.1155e+00	-5.1632e-24	1.6213e+00	-8.1063e-01	-9.7304e-01	5.5776e-01	-2.5287e-01	1.3684e+00	5.5776e-01	-5.5776e-01	-1.6241e-01	1.7837e+00
0.167       	1.1174e+00	-4.7859e-24	1.6242e+00	-8.1208e-01	-9.7412e-01	5.5870e-01	-2.5338e-01	1.3708e+00	5.5870e-01	-5.5870e-01	-1.6204e-01	1.7862e+00
0.168       	1.1194e+00	-3.8915e-24	1.6273e+00	-8.1365e-01	-9.7484e-01	5.5969e-01	-2.5397e-01	1.3733e+00	5.5969e-01	-5.5969e-01	-1.6119e-01	1.7885e+00
0.169       	1.1213e+00	-2.5184e-24	1.6306e+00	-8.1529e-01	-9.7522e-01	5.6066e-01	-2.5463e-01	1.3759e+00	5.6066e-01	-5.6066e-01	-1.5993e-01	1.7905e+00
0.17        	1.1229e+00	-1.0663e-24	1.6335e+00	-8.1674e-01	-9.7538e-01	5.6147e-01	-2.5527e-01	1.3782e+00	5.6147e-01	-5.6147e-01	-1.5864e-01	1.7921e+00
0.171       	1.1242e+00	-2.8413e-26	1.6358e+00	-8.1789e-01	-9.7565e-01	5.6209e-01	-2.5580e-01	1.3800e+00	5.6209e-01	-5.6209e-01	-1.5776e-01	1.7935e+00
0.172       	1.1251e+00	4.3370e-25	1.6375e+00	-8.1874e-01	-9.7612e-01	5.6257e-01	-2.5617e-01	1.3813e+00	5.6257e-01	-5.6257e-01	-1.5738e-01	1.7949e+00
0.173       	1.1262e+00	5.5363e-25	1.6392e+00	-8.1958e-01	-9.7687e-01	5.6308e-01	-2.5649e-01	1.3827e+00	5.6308e-01	-5.6308e-01	-1.5730e-01	1.7964e+00
0.174       	1.1276e+00	4.6846e-25	1.6413e+00	-8.2067e-01	-9.7808e-01	5.6380e-01	-2.5687e-01	1.3845e+00	5.6380e-01	-5.6380e-01	-1.5741e-01	1.7987e+00
0.175       	1.1299e+00	1.7435e-25	1.6448e+00	-8.2241e-01	-9.8016e-01	5.6497e-01	-2.5743e-01	1.3874e+00	5.6497e-01	-5.6497e-01	-1.5775e-01	1.8026e+00
0.176       	1.1337e+00	-3.8938e-25	1.6502e+00	-8.2510e-01	-9.8350e-01	5.6683e-01	-2.5827e-01	1.3919e+00	5.6683e-01	-5.6683e-01	-1.5840e-01	1.8086e+00
0.177       	1.1390e+00	-1.2444e-24	1.6578e+00	-8.2890e-01	-9.8826e-01	5.6948e-01	-2.5942e-01	1.3984e+00	5.6948e-01	-5.6948e-01	-1.5937e-01	1.8172e+00
0.178       	1.1449e+00	-2.2600e-24	1.6663e+00	-8.3316e-01	-9.9367e-01	5.7245e-01	-2.6071e-01	1.4056e+00	5.7245e-01	-5.7245e-01	-1.6051e-01	1.8268e+00
0.179       	1.1502e+00	-3.1918e-24	1.6740e+00	-8.3699e-01	-9.9854e-01	5.7511e-01	-2.6188e-01	1.4121e+00	5.7511e-01	-5.7511e-01	-1.6155e-01	1.8355e+00
0.18        	1.1538e+00	-3.8234e-24	1.6792e+00	-8.3962e-01	-1.0018e+00	5.7692e-01	-2.6269e-01	1.4165e+00	5.7692e-01	-5.7692e-01	-1.6223e-01	1.8415e+00
0.181       	1.1563e+00	-4.1894e-24	1.6828e+00	-8.4142e-01	-1.0040e+00	5.7816e-01	-2.6326e-01	1.4196e+00	5.7816e-01	-5.7816e-01	-1.6259e-01	1.8454e+00
0.182       	1.1584e+00	-4.3731e-24	1.6859e+00	-8.4293e-01	-1.0057e+00	5.7919e-01	-2.6374e-01	1.4221e+00	5.7919e-01	-5.7919e-01	-1.6275e-01	1.8486e+00
0.183       	1.1606e+00	-4.3679e-24	1.6892e+00	-8.4460e-01	-1.0073e+00	5.8031e-01	-2.6429e-01	1.4249e+00	5.8031e-01	-5.8031e-01	-1.6274e-01	1.8519e+00
0.184       	1.1633e+00	-4.1064e-24	1.6932e+00	-8.4661e-01	-1.0091e+00	5.8164e-01	-2.6497e-01	1.4282e+00	5.8164e-01	-5.8164e-01	-1.6251e-01	1.8557e+00
0.185       	1.1664e+00	-3.5347e-24	1.6981e+00	-8.4904e-01	-1.0111e+00	5.8322e-01	-2.6581e-01	1.4323e+00	5.8322e-01	-5.8322e-01	-1.6203e-01	1.8601e+00
0.186       	1.1696e+00	-2.7775e-24	1.7030e+00	-8.5151e-01	-1.0129e+00	5.8481e-01	-2.6670e-01	1.4363e+00	5.8481e-01	-5.8481e-01	-1.6143e-01	1.8645e+00
0.187       	1.1723e+00	-2.0905e-24	1.7073e+00	-8.5364e-01	-1.0146e+00	5.8614e-01	-2.6750e-01	1.4398e+00	5.8614e-01	-5.8614e-01	-1.6093e-01	1.8682e+00
0.188       	1.1740e+00	-1.7054e-24	1.7102e+00	-8.5508e-01	-1.0157e+00	5.8702e-01	-2.6805e-01	1.4421e+00	5.8702e-01	-5.8702e-01	-1.6067e-01	1.8708e+00
0.189       	1.1753e+00	-1.5736e-24	1.7122e+00	-8.5608e-01	-1.0167e+00	5.8765e-01	-2.6843e-01	1.4437e+00	5.8765e-01	-5.8765e-01	-1.6059e-01	1.8727e+00
0.19        	1.1764e+00	-1.5812e-24	1.7139e+00	-8.5695e-01	-1.0176e+00	5.8822e-01	-2.6874e-01	1.4452e+00	5.8822e-01	-5.8822e-01	-1.6062e-01	1.8745e+00
0.191       	1.1779e+00	-1.6716e-24	1.7162e+00	-8.5809e-01	-1.0188e+00	5.8897e-01	-2.6912e-01	1.4471e+00	5.8897e-01	-5.8897e-01	-1.6072e-01	1.8769e+00
0.192       	1.1802e+00	-1.8467e-24	1.7195e+00	-8.5973e-01	-1.0206e+00	5.9008e-01	-2.6964e-01	1.4498e+00	5.9008e-01	-5.9008e-01	-1.6091e-01	1.8804e+00
0.193       	1.1835e+00	-2.1191e-24	1.7244e+00	-8.6218e-01	-1.0234e+00	5.9177e-01	-2.7042e-01	1.4539e+00	5.9177e-01	-5.9177e-01	-1.6124e-01	1.8856e+00
0.194       	1.1878e+00	-2.4860e-24	1.7306e+00	-8.6529e-01	-1.0270e+00	5.9390e-01	-2.7139e-01	1.4592e+00	5.9390e-01	-5.9390e-01	-1.6169e-01	1.8923e+00
0.195       	1.1924e+00	-2.9057e-24	1.7373e+00	-8.6867e-01	-1.0309e+00	5.9621e-01	-2.7245e-01	1.4649e+00	5.9621e-01	-5.9621e-01	-1.6223e-01	1.8996e+00