# Force coefficients
# dragDir   : (1.0000e+00 0.0000e+00 0.0000e+00)
# sideDir   : (0.0000e+00 0.0000e+00 -1.0000e+00)
# liftDir   : (0.0000e+00 1.0000e+00 0.0000e+00)
# rollAxis  : (1.0000e+00 0.0000e+00 0.0000e+00)
# pitchAxis : (0.0000e+00 0.0000e+00 -1.0000e+00)
# yawAxis   : (0.0000e+00 1.0000e+00 0.0000e+00)
# magUInf   : 1.0000e+00
# lRef      : 1.0000e+00
# Aref      : 1.0000e+00
# CofR      : (0.0000e+00 0.0000e+00 0.0000e+00)
#
# Time      	Cd          	Cs          	Cl          	CmRoll      	CmPitch     	CmYaw       	Cd(f)       	Cd(r)       	Cs(f)       	Cs(r)       	Cl(f)       	Cl(r)       
0.001       	1.0150e+01	-7.0479e-21	7.0210e+00	-3.5105e+00	-1.9001e+00	5.0751e+00	1.5646e+00	8.5855e+00	5.0751e+00	-5.0751e+00	1.6104e+00	5.4106e+00
0.002       	1.8030e+01	-8.9443e-20	-1.8064e+02	9.0318e+01	9.6638e+01	9.0151e+00	9.9333e+01	-8.1303e+01	9.0151e+00	-9.0151e+00	6.3203e+00	-1.8696e+02
0.003       	-2.0846e+00	-6.3073e-20	6.2281e+01	-3.1141e+01	-3.4670e+01	-1.0423e+00	-3.2183e+01	3.0098e+01	-1.0423e+00	1.0423e+00	-3.5296e+00	6.5811e+01
0.004       	-1.7710e+01	1.2012e-20	2.2421e+02	-1.1210e+02	-1.2037e+02	-8.8552e+00	-1.2096e+02	1.0325e+02	-8.8552e+00	8.8552e+00	-8.2620e+00	2.3247e+02
0.005       	-1.8181e+01	4.5054e-20	1.6060e+02	-8.0298e+01	-8.6753e+01	-9.0903e+00	-8.9389e+01	7.1208e+01	-9.0903e+00	9.0903e+00	-6.4547e+00	1.6705e+02
0.006       	-1.3107e+01	4.8871e-20	1.1716e+02	-5.8582e+01	-6.5636e+01	-6.5536e+00	-6.5136e+01	5.2029e+01	-6.5536e+00	6.5536e+00	-7.0539e+00	1.2422e+02
0.007       	6.1743e+00	8.4803e-21	-5.8564e+01	2.9282e+01	3.2957e+01	3.0871e+00	3.2369e+01	-2.6195e+01	3.0871e+00	-3.0871e+00	3.6750e+00	-6.2239e+01
0.008       	1.0621e+01	-2.4339e-20	-4.2707e+01	2.1353e+01	1.2189e+01	5.3104e+00	2.6664e+01	-1.6043e+01	5.3104e+00	-5.3104e+00	-9.1639e+00	-3.3543e+01
0.009       	9.0942e+00	-2.4598e-20	-3.1800e+01	1.5900e+01	7.7498e+00	4.5471e+00	2.0447e+01	-1.1353e+01	4.5471e+00	-4.5471e+00	-8.1503e+00	-2.3650e+01
0.01        	-6.3932e+00	-9.5870e-21	8.3637e+01	-4.1818e+01	-4.4058e+01	-3.1966e+00	-4.5015e+01	3.8622e+01	-3.1966e+00	3.1966e+00	-2.2395e+00	8.5876e+01
0.011       	-1.1824e+01	9.7965e-21	9.0449e+01	-4.5225e+01	-4.2168e+01	-5.9122e+00	-5.1137e+01	3.9312e+01	-5.9122e+00	5.9122e+00	3.0561e+00	8.7393e+01
0.012       	-1.0411e+01	1.3358e-20	7.4581e+01	-3.7290e+01	-3.5423e+01	-5.2055e+00	-4.2496e+01	3.2085e+01	-5.2055e+00	5.2055e+00	1.8670e+00	7.2714e+01
0.013       	6.3622e+00	9.9661e-21	-8.3210e+01	4.1605e+01	4.2937e+01	3.1811e+00	4.4786e+01	-3.8424e+01	3.1811e+00	-3.1811e+00	1.3320e+00	-8.4542e+01
0.014       	1.2833e+01	-1.8666e-21	-1.2073e+02	6.0367e+01	6.0710e+01	6.4165e+00	6.6783e+01	-5.3950e+01	6.4165e+00	-6.4165e+00	3.4308e-01	-1.2108e+02
0.015       	1.1221e+01	-5.0936e-21	-1.0026e+02	5.0131e+01	5.1605e+01	5.6107e+00	5.5741e+01	-4.4520e+01	5.6107e+00	-5.6107e+00	1.4743e+00	-1.0174e+02
0.016       	-5.2340e+00	-8.3755e-21	7.4474e+01	-3.7237e+01	-3.7944e+01	-2.6170e+00	-3.9854e+01	3.4620e+01	-2.6170e+00	2.6170e+00	-7.0680e-01	7.5181e+01
0.017       	-1.2327e+01	-3.4045e-21	1.3519e+02	-6.7596e+01	-6.9795e+01	-6.1636e+00	-7.3759e+01	6.1432e+01	-6.1636e+00	6.1636e+00	-2.1987e+00	1.3739e+02
0.018       	-8.3891e+00	2.2040e-21	8.3944e+01	-4.1972e+01	-4.4681e+01	-4.1946e+00	-4.6167e+01	3.7778e+01	-4.1946e+00	4.1946e+00	-2.7087e+00	8.6653e+01
0.019       	4.2831e+00	6.2175e-21	-5.6490e+01	2.8245e+01	2.8639e+01	2.1416e+00	3.0387e+01	-2.6103e+01	2.1416e+00	-2.1416e+00	3.9418e-01	-5.6884e+01
0.02        	9.8942e+00	2.9758e-21	-1.0903e+02	5.4513e+01	5.7248e+01	4.9471e+00	5.9460e+01	-4.9566e+01	4.9471e+00	-4.9471e+00	2.7348e+00	-1.1176e+02
0.021       	6.4015e+00	-1.3856e-21	-6.2802e+01	3.1401e+01	3.4160e+01	3.2007e+00	3.4602e+01	-2.8200e+01	3.2007e+00	-3.2007e+00	2.7592e+00	-6.5561e+01
0.022       	-1.8716e+00	-4.7192e-21	3.0448e+01	-1.5224e+01	-1.4802e+01	-9.3581e-01	-1.6160e+01	1.4288e+01	-9.3581e-01	9.3581e-01	4.2191e-01	3.0026e+01
0.023       	-7.0961e+00	-2.9858e-21	8.3898e+01	-4.1949e+01	-4.4537e+01	-3.5481e+00	-4.5497e+01	3.8401e+01	-3.5481e+00	3.5481e+00	-2.5881e+00	8.6486e+01
0.024       	-4.8224e+00	5.2476e-22	5.2690e+01	-2.6345e+01	-2.9065e+01	-2.4112e+00	-2.8756e+01	2.3934e+01	-2.4112e+00	2.4112e+00	-2.7204e+00	5.5411e+01
0.025       	1.0309e+00	2.9771e-21	-1.3728e+01	6.8641e+00	6.1311e+00	5.1546e-01	7.3795e+00	-6.3486e+00	5.1546e-01	-5.1546e-01	-7.3300e-01	-1.2995e+01
0.026       	5.2831e+00	1.9016e-21	-5.8972e+01	2.9486e+01	3.1572e+01	2.6415e+00	3.2128e+01	-2.6845e+01	2.6415e+00	-2.6415e+00	2.0853e+00	-6.1058e+01
0.027       	3.9644e+00	-4.7214e-22	-4.0388e+01	2.0194e+01	2.2560e+01	1.9822e+00	2.2176e+01	-1.8212e+01	1.9822e+00	-1.9822e+00	2.3653e+00	-4.2754e+01
0.028       	-9.7754e-02	-2.1524e-21	5.8140e+00	-2.9070e+00	-2.1090e+00	-4.8877e-02	-2.9559e+00	2.8581e+00	-4.8877e-02	4.8877e-02	7.9801e-01	5.0160e+00
0.029       	-3.1607e+00	-1.6616e-21	3.8959e+01	-1.9479e+01	-2.0848e+01	-1.5804e+00	-2.1060e+01	1.7899e+01	-1.5804e+00	1.5804e+00	-1.3686e+00	4.0328e+01
0.03        	-2.5936e+00	8.2501e-23	3.0474e+01	-1.5237e+01	-1.7091e+01	-1.2968e+00	-1.6534e+01	1.3940e+01	-1.2968e+00	1.2968e+00	-1.8536e+00	3.2328e+01
0.031       	6.7682e-02	1.2621e-21	2.1873e-01	-1.0937e-01	-8.6709e-01	3.3841e-02	-7.5526e-02	1.4321e-01	3.3841e-02	-3.3841e-02	-7.5772e-01	9.7646e-01
0.032       	2.2719e+00	9.7264e-22	-2.3972e+01	1.1986e+01	1.2882e+01	1.1359e+00	1.3122e+01	-1.0850e+01	1.1359e+00	-1.1359e+00	8.9564e-01	-2.4867e+01
0.033       	2.1232e+00	-1.8081e-22	-2.1301e+01	1.0650e+01	1.2080e+01	1.0616e+00	1.1712e+01	-9.5888e+00	1.0616e+00	-1.0616e+00	1.4296e+00	-2.2730e+01
0.034       	4.0370e-01	-9.6575e-22	-1.8278e+00	9.1389e-01	1.6089e+00	2.0185e-01	1.1157e+00	-7.1204e-01	2.0185e-01	-2.0185e-01	6.9500e-01	-2.5228e+00
0.035       	-1.1124e+00	-8.0683e-22	1.4930e+01	-7.4649e+00	-7.9537e+00	-5.5621e-01	-8.0211e+00	6.9087e+00	-5.5621e-01	5.5621e-01	-4.8882e-01	1.5419e+01
0.036       	-1.1539e+00	-4.8211e-23	1.5032e+01	-7.5159e+00	-8.4901e+00	-5.7693e-01	-8.0929e+00	6.9390e+00	-5.7693e-01	5.7693e-01	-9.7414e-01	1.6006e+01
0.037       	-6.4250e-02	4.8255e-22	2.7735e+00	-1.3868e+00	-1.8859e+00	-3.2125e-02	-1.4189e+00	1.3546e+00	-3.2125e-02	3.2125e-02	-4.9911e-01	3.2726e+00
0.038       	9.4041e-01	3.9989e-22	-8.3591e+00	4.1795e+00	4.4891e+00	4.7021e-01	4.6497e+00	-3.7093e+00	4.7021e-01	-4.7021e-01	3.0959e-01	-8.6687e+00
0.039       	1.0513e+00	-7.7567e-23	-9.5662e+00	4.7831e+00	5.4918e+00	5.2565e-01	5.3088e+00	-4.2575e+00	5.2565e-01	-5.2565e-01	7.0869e-01	-1.0275e+01
0.04        	3.8291e-01	-4.1885e-22	-2.1576e+00	1.0788e+00	1.5049e+00	1.9145e-01	1.2703e+00	-8.8735e-01	1.9145e-01	-1.9145e-01	4.2614e-01	-2.5837e+00
0.041       	-1.7730e-01	-3.8459e-22	4.0089e+00	-2.0045e+00	-2.0278e+00	-8.8650e-02	-2.0931e+00	1.9158e+00	-8.8650e-02	8.8650e-02	-2.3347e-02	4.0323e+00
0.042       	-4.0701e-01	-6.9532e-23	6.7307e+00	-3.3654e+00	-3.8015e+00	-2.0351e-01	-3.5689e+00	3.1619e+00	-2.0351e-01	2.0351e-01	-4.3618e-01	7.1669e+00
0.043       	-7.1964e-02	1.6255e-22	3.1404e+00	-1.5702e+00	-1.9105e+00	-3.5982e-02	-1.6062e+00	1.5342e+00	-3.5982e-02	3.5982e-02	-3.4031e-01	3.4807e+00
0.044       	3.0824e-01	1.4501e-22	-1.0425e+00	5.2124e-01	4.9468e-01	1.5412e-01	6.7536e-01	-3.6712e-01	1.5412e-01	-1.5412e-01	-2.6566e-02	-1.0159e+00
0.045       	5.1919e-01	-2.2276e-23	-3.5293e+00	1.7647e+00	2.0416e+00	2.5960e-01	2.0242e+00	-1.5051e+00	2.5960e-01	-2.5960e-01	2.7690e-01	-3.8062e+00
0.046       	4.0490e-01	-2.0460e-22	-2.5227e+00	1.2613e+00	1.6023e+00	2.0245e-01	1.4638e+00	-1.0589e+00	2.0245e-01	-2.0245e-01	3.4097e-01	-2.8637e+00
0.047       	1.6714e-01	-2.0898e-22	4.2069e-02	-2.1034e-02	1.3575e-01	8.3572e-02	6.2538e-02	1.0461e-01	8.3572e-02	-8.3572e-02	1.5679e-01	-1.1472e-01
0.048       	-1.4532e-02	-1.0207e-22	2.1919e+00	-1.0959e+00	-1.1811e+00	-7.2658e-03	-1.1032e+00	1.0887e+00	-7.2658e-03	7.2658e-03	-8.5145e-02	2.2770e+00
0.049       	-1.6425e-02	1.8675e-23	2.4733e+00	-1.2367e+00	-1.4363e+00	-8.2125e-03	-1.2449e+00	1.2285e+00	-8.2125e-03	8.2125e-03	-1.9967e-01	2.6730e+00
0.05        	1.2958e-01	5.1138e-23	1.0043e+00	-5.0215e-01	-6.1462e-01	6.4789e-02	-4.3736e-01	5.6694e-01	6.4789e-02	-6.4789e-02	-1.1246e-01	1.1168e+00
0.051       	2.1877e-01	1.8818e-23	6.0579e-02	-3.0289e-02	-4.4174e-02	1.0939e-01	7.9096e-02	1.3967e-01	1.0939e-01	-1.0939e-01	-1.3885e-02	7.4464e-02
0.052       	3.1071e-01	-7.6869e-23	-1.2703e+00	6.3516e-01	8.0311e-01	1.5536e-01	7.9052e-01	-4.7981e-01	1.5536e-01	-1.5536e-01	1.6795e-01	-1.4383e+00
0.053       	2.7904e-01	-1.3035e-22	-1.1952e+00	5.9761e-01	8.0365e-01	1.3952e-01	7.3713e-01	-4.5808e-01	1.3952e-01	-1.3952e-01	2.0604e-01	-1.4013e+00
0.054       	2.1406e-01	-1.1701e-22	-5.2859e-01	2.6430e-01	4.0840e-01	1.0703e-01	3.7132e-01	-1.5727e-01	1.0703e-01	-1.0703e-01	1.4410e-01	-6.7269e-01
0.055       	1.0103e-01	-5.0660e-23	9.5959e-01	-4.7979e-01	-5.0907e-01	5.0513e-02	-4.2928e-01	5.3031e-01	5.0513e-02	-5.0513e-02	-2.9280e-02	9.8887e-01
0.056       	7.0865e-02	-2.9482e-26	1.5862e+00	-7.9311e-01	-9.1270e-01	3.5433e-02	-7.5768e-01	8.2854e-01	3.5433e-02	-3.5433e-02	-1.1959e-01	1.7058e+00
0.057       	1.0897e-01	1.0622e-24	1.2613e+00	-6.3063e-01	-7.2435e-01	5.4485e-02	-5.7614e-01	6.8511e-01	5.4485e-02	-5.4485e-02	-9.3723e-02	1.3550e+00
0.058       	1.7444e-01	-2.3600e-23	4.8418e-01	-2.4209e-01	-2.5133e-01	8.7222e-02	-1.5487e-01	3.2931e-01	8.7222e-02	-8.7222e-02	-9.2397e-03	4.9342e-01
0.059       	2.2496e-01	-5.3329e-23	-2.4102e-01	1.2051e-01	1.9712e-01	1.1248e-01	2.3299e-01	-8.0299e-03	1.1248e-01	-1.1248e-01	7.6604e-02	-3.1763e-01
0.06        	2.3955e-01	-6.8141e-23	-5.4307e-01	2.7153e-01	3.8666e-01	1.1978e-01	3.9131e-01	-1.5176e-01	1.1978e-01	-1.1978e-01	1.1513e-01	-6.5820e-01
0.061       	2.3650e-01	-6.9358e-23	-5.4585e-01	2.7293e-01	3.8942e-01	1.1825e-01	3.9118e-01	-1.5467e-01	1.1825e-01	-1.1825e-01	1.1649e-01	-6.6234e-01
0.062       	2.0205e-01	-6.1947e-23	-2.3626e-01	1.1813e-01	2.0287e-01	1.0102e-01	2.1915e-01	-1.7104e-02	1.0102e-01	-1.0102e-01	8.4747e-02	-3.2100e-01
0.063       	1.5801e-01	-4.5973e-23	2.9127e-01	-1.4564e-01	-1.1906e-01	7.9007e-02	-6.6630e-02	2.2464e-01	7.9007e-02	-7.9007e-02	2.6573e-02	2.6470e-01
0.064       	1.3466e-01	-3.3260e-23	6.7148e-01	-3.3574e-01	-3.5214e-01	6.7332e-02	-2.6841e-01	4.0307e-01	6.7332e-02	-6.7332e-02	-1.6401e-02	6.8788e-01
0.065       	1.3456e-01	-3.0189e-23	7.4754e-01	-3.7377e-01	-3.9861e-01	6.7280e-02	-3.0649e-01	4.4105e-01	6.7280e-02	-6.7280e-02	-2.4838e-02	7.7238e-01
0.066       	1.4961e-01	-3.0399e-23	6.8984e-01	-3.4492e-01	-3.6248e-01	7.4807e-02	-2.7011e-01	4.1973e-01	7.4807e-02	-7.4807e-02	-1.7560e-02	7.0740e-01
0.067       	1.7962e-01	-3.6198e-23	4.1787e-01	-2.0893e-01	-1.9527e-01	8.9812e-02	-1.1912e-01	2.9875e-01	8.9812e-02	-8.9812e-02	1.3662e-02	4.0420e-01
0.068       	2.0365e-01	-4.3352e-23	1.0008e-01	-5.0040e-02	-1.5389e-03	1.0183e-01	5.1787e-02	1.5187e-01	1.0183e-01	-1.0183e-01	4.8501e-02	5.1579e-02
0.069       	2.0934e-01	-4.6231e-23	-4.5709e-02	2.2855e-02	8.6078e-02	1.0467e-01	1.2753e-01	8.1816e-02	1.0467e-01	-1.0467e-01	6.3223e-02	-1.0893e-01
0.07        	2.0841e-01	-4.6198e-23	-5.2588e-02	2.6294e-02	8.9943e-02	1.0420e-01	1.3050e-01	7.7911e-02	1.0420e-01	-1.0420e-01	6.3649e-02	-1.1624e-01
0.071       	2.0171e-01	-4.4980e-23	-3.1765e-02	1.5883e-02	7.5981e-02	1.0085e-01	1.1674e-01	8.4972e-02	1.0085e-01	-1.0085e-01	6.0098e-02	-9.1863e-02
0.072       	1.8252e-01	-4.0750e-23	9.3670e-02	-4.6835e-02	-2.6752e-03	9.1260e-02	4.4426e-02	1.3810e-01	9.1260e-02	-9.1260e-02	4.4160e-02	4.9510e-02
0.073       	1.6212e-01	-3.5783e-23	2.9120e-01	-1.4560e-01	-1.2347e-01	8.1061e-02	-6.4540e-02	2.2666e-01	8.1061e-02	-8.1061e-02	2.2131e-02	2.6907e-01
0.074       	1.5410e-01	-3.3540e-23	4.2573e-01	-2.1286e-01	-2.0368e-01	7.7051e-02	-1.3581e-01	2.8992e-01	7.7051e-02	-7.7051e-02	9.1849e-03	4.1654e-01
0.075       	1.5492e-01	-3.3626e-23	4.4397e-01	-2.2199e-01	-2.1394e-01	7.7461e-02	-1.4453e-01	2.9945e-01	7.7461e-02	-7.7461e-02	8.0490e-03	4.3592e-01
0.076       	1.6011e-01	-3.4522e-23	4.4602e-01	-2.2301e-01	-2.1334e-01	8.0054e-02	-1.4295e-01	3.0306e-01	8.0054e-02	-8.0054e-02	9.6691e-03	4.3635e-01
0.077       	1.7636e-01	-3.7290e-23	3.9238e-01	-1.9619e-01	-1.7662e-01	8.8178e-02	-1.0801e-01	2.8437e-01	8.8178e-02	-8.8178e-02	1.9575e-02	3.7281e-01
0.078       	1.9600e-01	-4.0378e-23	2.7314e-01	-1.3657e-01	-1.0087e-01	9.8001e-02	-3.8566e-02	2.3457e-01	9.8001e-02	-9.8001e-02	3.5699e-02	2.3744e-01
0.079       	2.0694e-01	-4.1588e-23	1.5365e-01	-7.6826e-02	-2.8259e-02	1.0347e-01	2.6643e-02	1.8030e-01	1.0347e-01	-1.0347e-01	4.8568e-02	1.0508e-01
0.08        	2.0659e-01	-4.0912e-23	1.1046e-01	-5.5229e-02	-3.6106e-03	1.0329e-01	4.8064e-02	1.5852e-01	1.0329e-01	-1.0329e-01	5.1619e-02	5.8840e-02
0.081       	2.0285e-01	-3.9858e-23	1.0352e-01	-5.1760e-02	-9.1650e-04	1.0142e-01	4.9664e-02	1.5318e-01	1.0142e-01	-1.0142e-01	5.0844e-02	5.2677e-02
0.082       	1.9328e-01	-3.7607e-23	1.1917e-01	-5.9587e-02	-1.3340e-02	9.6641e-02	3.7054e-02	1.5623e-01	9.6641e-02	-9.6641e-02	4.6247e-02	7.2927e-02
0.083       	1.7982e-01	-3.4738e-23	1.7077e-01	-8.5385e-02	-4.7981e-02	8.9911e-02	4.5259e-03	1.7530e-01	8.9911e-02	-8.9911e-02	3.7404e-02	1.3337e-01
0.084       	1.6902e-01	-3.2709e-23	2.4395e-01	-1.2197e-01	-9.4096e-02	8.4510e-02	-3.7465e-02	2.0648e-01	8.4510e-02	-8.4510e-02	2.7878e-02	2.1607e-01
0.085       	1.6558e-01	-3.2302e-23	2.9850e-01	-1.4925e-01	-1.2667e-01	8.2791e-02	-6.6458e-02	2.3204e-01	8.2791e-02	-8.2791e-02	2.2580e-02	2.7592e-01
0.086       	1.6656e-01	-3.2678e-23	3.1964e-01	-1.5982e-01	-1.3841e-01	8.3281e-02	-7.6539e-02	2.4310e-01	8.3281e-02	-8.3281e-02	2.1411e-02	2.9823e-01
0.087       	1.6978e-01	-3.3435e-23	3.3409e-01	-1.6705e-01	-1.4546e-01	8.4890e-02	-8.2157e-02	2.5194e-01	8.4890e-02	-8.4890e-02	2.1584e-02	3.1251e-01
0.088       	1.7674e-01	-3.4804e-23	3.4472e-01	-1.7236e-01	-1.4868e-01	8.8371e-02	-8.3991e-02	2.6073e-01	8.8371e-02	-8.8371e-02	2.3677e-02	3.2105e-01
0.089       	1.8737e-01	-3.6596e-23	3.3959e-01	-1.6979e-01	-1.4104e-01	9.3684e-02	-7.6111e-02	2.6348e-01	9.3684e-02	-9.3684e-02	2.8756e-02	3.1083e-01
0.09        	1.9840e-01	-3.8138e-23	3.0632e-01	-1.5316e-01	-1.1678e-01	9.9198e-02	-5.3963e-02	2.5236e-01	9.9198e-02	-9.9198e-02	3.6383e-02	2.6994e-01
0.091       	2.0436e-01	-3.8621e-23	2.5447e-01	-1.2724e-01	-8.4093e-02	1.0218e-01	-2.5054e-02	2.2942e-01	1.0218e-01	-1.0218e-01	4.3143e-02	2.1133e-01
0.092       	2.0409e-01	-3.8103e-23	2.1761e-01	-1.0881e-01	-6.3027e-02	1.0204e-01	-6.7635e-03	2.1085e-01	1.0204e-01	-1.0204e-01	4.5780e-02	1.7183e-01
0.093       	2.0095e-01	-3.7214e-23	1.9661e-01	-9.8306e-02	-5.2364e-02	1.0047e-01	2.1684e-03	1.9878e-01	1.0047e-01	-1.0047e-01	4.5942e-02	1.5067e-01
0.094       	1.9524e-01	-3.5898e-23	1.8143e-01	-9.0716e-02	-4.6251e-02	9.7622e-02	6.9054e-03	1.8834e-01	9.7622e-02	-9.7622e-02	4.4466e-02	1.3697e-01
0.095       	1.8760e-01	-3.4294e-23	1.7690e-01	-8.8451e-02	-4.7298e-02	9.3799e-02	5.3476e-03	1.8225e-01	9.3799e-02	-9.3799e-02	4.1153e-02	1.3575e-01
0.096       	1.8038e-01	-3.2909e-23	1.8947e-01	-9.4736e-02	-5.8129e-02	9.0192e-02	-4.5436e-03	1.8493e-01	9.0192e-02	-9.0192e-02	3.6607e-02	1.5286e-01
0.097       	1.7637e-01	-3.2253e-23	2.1620e-01	-1.0810e-01	-7.5580e-02	8.8186e-02	-1.9912e-02	1.9628e-01	8.8186e-02	-8.8186e-02	3.2517e-02	1.8368e-01
0.098       	1.7598e-01	-3.2309e-23	2.4371e-01	-1.2186e-01	-9.1642e-02	8.7991e-02	-3.3865e-02	2.0985e-01	8.7991e-02	-8.7991e-02	3.0213e-02	2.1350e-01
0.099       	1.7770e-01	-3.2721e-23	2.6752e-01	-1.3376e-01	-1.0449e-01	8.8852e-02	-4.4905e-02	2.2261e-01	8.8852e-02	-8.8852e-02	2.9268e-02	2.3825e-01
0.1         	1.8101e-01	-3.3354e-23	2.9130e-01	-1.4565e-01	-1.1646e-01	9.0506e-02	-5.5142e-02	2.3615e-01	9.0506e-02	-9.0506e-02	2.9187e-02	2.6211e-01
0.101       	1.8572e-01	-3.4119e-23	3.1424e-01	-1.5712e-01	-1.2707e-01	9.2859e-02	-6.4262e-02	2.4998e-01	9.2859e-02	-9.2859e-02	3.0054e-02	2.8419e-01
0.102       	1.9113e-01	-3.4852e-23	3.3113e-01	-1.6557e-01	-1.3357e-01	9.5567e-02	-6.9998e-02	2.6113e-01	9.5567e-02	-9.5567e-02	3.1990e-02	2.9914e-01
0.103       	1.9605e-01	-3.5367e-23	3.3546e-01	-1.6773e-01	-1.3293e-01	9.8023e-02	-6.9708e-02	2.6575e-01	9.8023e-02	-9.8023e-02	3.4799e-02	3.0066e-01
0.104       	1.9923e-01	-3.5565e-23	3.2467e-01	-1.6234e-01	-1.2454e-01	9.9617e-02	-6.2721e-02	2.6195e-01	9.9617e-02	-9.9617e-02	3.7798e-02	2.8688e-01
0.105       	2.0033e-01	-3.5480e-23	3.0383e-01	-1.5192e-01	-1.1171e-01	1.0017e-01	-5.1752e-02	2.5208e-01	1.0017e-01	-1.0017e-01	4.0209e-02	2.6363e-01
0.106       	1.9980e-01	-3.5205e-23	2.7889e-01	-1.3945e-01	-9.7626e-02	9.9902e-02	-3.9545e-02	2.3935e-01	9.9902e-02	-9.9902e-02	4.1821e-02	2.3707e-01
0.107       	1.9806e-01	-3.4802e-23	2.5122e-01	-1.2561e-01	-8.2830e-02	9.9028e-02	-2.6583e-02	2.2464e-01	9.9028e-02	-9.9028e-02	4.2781e-02	2.0844e-01
0.108       	1.9536e-01	-3.4345e-23	2.2234e-01	-1.1117e-01	-6.8089e-02	9.7678e-02	-1.3493e-02	2.0885e-01	9.7678e-02	-9.7678e-02	4.3082e-02	1.7926e-01
0.109       	1.9227e-01	-3.3954e-23	1.9772e-01	-9.8862e-02	-5.6239e-02	9.6133e-02	-2.7297e-03	1.9499e-01	9.6133e-02	-9.6133e-02	4.2623e-02	1.5510e-01
0.11        	1.8967e-01	-3.3747e-23	1.8499e-01	-9.2493e-02	-5.1011e-02	9.4836e-02	2.3427e-03	1.8733e-01	9.4836e-02	-9.4836e-02	4.1482e-02	1.4350e-01
0.111       	1.8828e-01	-3.3745e-23	1.8761e-01	-9.3807e-02	-5.3758e-02	9.4140e-02	3.3348e-04	1.8795e-01	9.4140e-02	-9.4140e-02	4.0048e-02	1.4756e-01
0.112       	1.8812e-01	-3.3872e-23	2.0196e-01	-1.0098e-01	-6.2243e-02	9.4062e-02	-6.9165e-03	1.9504e-01	9.4062e-02	-9.4062e-02	3.8736e-02	1.6322e-01
0.113       	1.8888e-01	-3.4051e-23	2.2323e-01	-1.1162e-01	-7.3937e-02	9.4442e-02	-1.7174e-02	2.0606e-01	9.4442e-02	-9.4442e-02	3.7680e-02	1.8555e-01
0.114       	1.9032e-01	-3.4224e-23	2.4930e-01	-1.2465e-01	-8.7789e-02	9.5161e-02	-2.9489e-02	2.1981e-01	9.5161e-02	-9.5161e-02	3.6861e-02	2.1244e-01
0.115       	1.9224e-01	-3.4330e-23	2.7833e-01	-1.3917e-01	-1.0287e-01	9.6120e-02	-4.3045e-02	2.3529e-01	9.6120e-02	-9.6120e-02	3.6295e-02	2.4204e-01
0.116       	1.9434e-01	-3.4310e-23	3.0651e-01	-1.5325e-01	-1.1721e-01	9.7168e-02	-5.6086e-02	2.5042e-01	9.7168e-02	-9.7168e-02	3.6043e-02	2.7047e-01
0.117       	1.9622e-01	-3.4155e-23	3.2865e-01	-1.6432e-01	-1.2818e-01	9.8108e-02	-6.6217e-02	2.6243e-01	9.8108e-02	-9.8108e-02	3.6145e-02	2.9251e-01
0.118       	1.9758e-01	-3.3917e-23	3.4113e-01	-1.7056e-01	-1.3400e-01	9.8791e-02	-7.1773e-02	2.6935e-01	9.8791e-02	-9.8791e-02	3.6560e-02	3.0457e-01
0.119       	1.9840e-01	-3.3666e-23	3.4385e-01	-1.7192e-01	-1.3471e-01	9.9201e-02	-7.2723e-02	2.7113e-01	9.9201e-02	-9.9201e-02	3.7211e-02	3.0664e-01
0.12        	1.9879e-01	-3.3447e-23	3.3775e-01	-1.6887e-01	-1.3079e-01	9.9395e-02	-6.9478e-02	2.6827e-01	9.9395e-02	-9.9395e-02	3.8081e-02	2.9966e-01
0.121       	1.9883e-01	-3.3309e-23	3.2274e-01	-1.6137e-01	-1.2218e-01	9.9414e-02	-6.1959e-02	2.6079e-01	9.9414e-02	-9.9414e-02	3.9192e-02	2.8355e-01
0.122       	1.9859e-01	-3.3323e-23	2.9912e-01	-1.4956e-01	-1.0904e-01	9.9294e-02	-5.0269e-02	2.4886e-01	9.9294e-02	-9.9294e-02	4.0519e-02	2.5861e-01
0.123       	1.9820e-01	-3.3552e-23	2.6983e-01	-1.3491e-01	-9.2988e-02	9.9101e-02	-3.5812e-02	2.3401e-01	9.9101e-02	-9.9101e-02	4.1925e-02	2.2790e-01
0.124       	1.9786e-01	-3.3978e-23	2.4128e-01	-1.2064e-01	-7.7472e-02	9.8929e-02	-2.1711e-02	2.1957e-01	9.8929e-02	-9.8929e-02	4.3168e-02	1.9811e-01
0.125       	1.9770e-01	-3.4482e-23	2.2026e-01	-1.1013e-01	-6.6102e-02	9.8851e-02	-1.1280e-02	2.0898e-01	9.8851e-02	-9.8851e-02	4.4029e-02	1.7623e-01
0.126       	1.9775e-01	-3.4943e-23	2.0904e-01	-1.0452e-01	-6.0052e-02	9.8875e-02	-5.6466e-03	2.0340e-01	9.8875e-02	-9.8875e-02	4.4470e-02	1.6457e-01
0.127       	1.9798e-01	-3.5328e-23	2.0620e-01	-1.0310e-01	-5.8520e-02	9.8989e-02	-4.1119e-03	2.0209e-01	9.8989e-02	-9.8989e-02	4.4581e-02	1.6162e-01
0.128       	1.9838e-01	-3.5627e-23	2.1116e-01	-1.0558e-01	-6.1187e-02	9.9190e-02	-6.3913e-03	2.0477e-01	9.9190e-02	-9.9190e-02	4.4395e-02	1.6677e-01
0.129       	1.9896e-01	-3.5784e-23	2.2484e-01	-1.1242e-01	-6.8542e-02	9.9478e-02	-1.2941e-02	2.1190e-01	9.9478e-02	-9.9478e-02	4.3878e-02	1.8096e-01
0.13        	1.9964e-01	-3.5711e-23	2.4723e-01	-1.2362e-01	-8.0594e-02	9.9821e-02	-2.3795e-02	2.2344e-01	9.9821e-02	-9.9821e-02	4.3022e-02	2.0421e-01
0.131       	2.0030e-01	-3.5370e-23	2.7476e-01	-1.3738e-01	-9.5426e-02	1.0015e-01	-3.7231e-02	2.3753e-01	1.0015e-01	-1.0015e-01	4.1954e-02	2.3281e-01
0.132       	2.0077e-01	-3.4861e-23	3.0008e-01	-1.5004e-01	-1.0909e-01	1.0039e-01	-4.9656e-02	2.5043e-01	1.0039e-01	-1.0039e-01	4.0956e-02	2.5913e-01
0.133       	2.0103e-01	-3.4362e-23	3.1753e-01	-1.5877e-01	-1.1851e-01	1.0051e-01	-5.8252e-02	2.5928e-01	1.0051e-01	-1.0051e-01	4.0259e-02	2.7727e-01
0.134       	2.0114e-01	-3.3948e-23	3.2749e-01	-1.6375e-01	-1.2388e-01	1.0057e-01	-6.3178e-02	2.6432e-01	1.0057e-01	-1.0057e-01	3.9862e-02	2.8763e-01
0.135       	2.0117e-01	-3.3593e-23	3.3245e-01	-1.6623e-01	-1.2654e-01	1.0059e-01	-6.5638e-02	2.6681e-01	1.0059e-01	-1.0059e-01	3.9685e-02	2.9277e-01
0.136       	2.0119e-01	-3.3290e-23	3.3289e-01	-1.6645e-01	-1.2671e-01	1.0059e-01	-6.5854e-02	2.6704e-01	1.0059e-01	-1.0059e-01	3.9737e-02	2.9316e-01
0.137       	2.0124e-01	-3.3102e-23	3.2773e-01	-1.6387e-01	-1.2375e-01	1.0062e-01	-6.3244e-02	2.6449e-01	1.0062e-01	-1.0062e-01	4.0112e-02	2.8762e-01
0.138       	2.0144e-01	-3.3140e-23	3.1601e-01	-1.5800e-01	-1.1710e-01	1.0072e-01	-5.7283e-02	2.5873e-01	1.0072e-01	-1.0072e-01	4.0905e-02	2.7511e-01
0.139       	2.0187e-01	-3.3478e-23	2.9891e-01	-1.4946e-01	-1.0737e-01	1.0094e-01	-4.8520e-02	2.5039e-01	1.0094e-01	-1.0094e-01	4.2083e-02	2.5683e-01
0.14        	2.0250e-01	-3.4047e-23	2.8062e-01	-1.4031e-01	-9.6897e-02	1.0125e-01	-3.9060e-02	2.4156e-01	1.0125e-01	-1.0125e-01	4.3411e-02	2.3721e-01
0.141       	2.0317e-01	-3.4664e-23	2.6572e-01	-1.3286e-01	-8.8280e-02	1.0159e-01	-3.1277e-02	2.3445e-01	1.0159e-01	-1.0159e-01	4.4583e-02	2.2114e-01
0.142       	2.0380e-01	-3.5211e-23	2.5560e-01	-1.2780e-01	-8.2315e-02	1.0190e-01	-2.5900e-02	2.2970e-01	1.0190e-01	-1.0190e-01	4.5484e-02	2.1011e-01
0.143       	2.0441e-01	-3.5697e-23	2.4908e-01	-1.2454e-01	-7.8344e-02	1.0220e-01	-2.2337e-02	2.2675e-01	1.0220e-01	-1.0220e-01	4.6198e-02	2.0289e-01
0.144       	2.0506e-01	-3.6148e-23	2.4565e-01	-1.2282e-01	-7.6033e-02	1.0253e-01	-2.0294e-02	2.2535e-01	1.0253e-01	-1.0253e-01	4.6790e-02	1.9886e-01
0.145       	2.0575e-01	-3.6539e-23	2.4605e-01	-1.2303e-01	-7.5796e-02	1.0288e-01	-2.0150e-02	2.2590e-01	1.0288e-01	-1.0288e-01	4.7231e-02	1.9882e-01
0.146       	2.0643e-01	-3.6787e-23	2.5160e-01	-1.2580e-01	-7.8386e-02	1.0322e-01	-2.2582e-02	2.2901e-01	1.0322e-01	-1.0322e-01	4.7412e-02	2.0418e-01
0.147       	2.0696e-01	-3.6800e-23	2.6253e-01	-1.3126e-01	-8.4035e-02	1.0348e-01	-2.7785e-02	2.3474e-01	1.0348e-01	-1.0348e-01	4.7229e-02	2.1530e-01
0.148       	2.0723e-01	-3.6561e-23	2.7661e-01	-1.3831e-01	-9.1598e-02	1.0361e-01	-3.4692e-02	2.4192e-01	1.0361e-01	-1.0361e-01	4.6708e-02	2.2990e-01
0.149       	2.0725e-01	-3.6171e-23	2.9006e-01	-1.4503e-01	-9.8994e-02	1.0363e-01	-4.1405e-02	2.4866e-01	1.0363e-01	-1.0363e-01	4.6036e-02	2.4402e-01
0.15        	2.0714e-01	-3.5757e-23	3.0047e-01	-1.5024e-01	-1.0483e-01	1.0357e-01	-4.6667e-02	2.5381e-01	1.0357e-01	-1.0357e-01	4.5403e-02	2.5507e-01
0.151       	2.0698e-01	-3.5358e-23	3.0819e-01	-1.5409e-01	-1.0924e-01	1.0349e-01	-5.0606e-02	2.5758e-01	1.0349e-01	-1.0349e-01	4.4851e-02	2.6334e-01
0.152       	2.0680e-01	-3.4967e-23	3.1406e-01	-1.5703e-01	-1.1267e-01	1.0340e-01	-5.3627e-02	2.6043e-01	1.0340e-01	-1.0340e-01	4.4361e-02	2.6969e-01
0.153       	2.0666e-01	-3.4593e-23	3.1816e-01	-1.5908e-01	-1.1513e-01	1.0333e-01	-5.5752e-02	2.6241e-01	1.0333e-01	-1.0333e-01	4.3951e-02	2.7421e-01
0.154       	2.0662e-01	-3.4304e-23	3.1980e-01	-1.5990e-01	-1.1619e-01	1.0331e-01	-5.6591e-02	2.6321e-01	1.0331e-01	-1.0331e-01	4.3712e-02	2.7609e-01
0.155       	2.0678e-01	-3.4193e-23	3.1823e-01	-1.5912e-01	-1.1536e-01	1.0339e-01	-5.5725e-02	2.6251e-01	1.0339e-01	-1.0339e-01	4.3760e-02	2.7447e-01
0.156       	2.0719e-01	-3.4318e-23	3.1358e-01	-1.5679e-01	-1.1265e-01	1.0359e-01	-5.3198e-02	2.6039e-01	1.0359e-01	-1.0359e-01	4.4144e-02	2.6944e-01
0.157       	2.0777e-01	-3.4637e-23	3.0712e-01	-1.5356e-01	-1.0877e-01	1.0388e-01	-4.9677e-02	2.5744e-01	1.0388e-01	-1.0388e-01	4.4787e-02	2.6234e-01
0.158       	2.0842e-01	-3.5057e-23	3.0034e-01	-1.5017e-01	-1.0462e-01	1.0421e-01	-4.5961e-02	2.5438e-01	1.0421e-01	-1.0421e-01	4.5547e-02	2.5479e-01
0.159       	2.0909e-01	-3.5518e-23	2.9392e-01	-1.4696e-01	-1.0061e-01	1.0455e-01	-4.2414e-02	2.5151e-01	1.0455e-01	-1.0455e-01	4.6356e-02	2.4757e-01
0.16        	2.0980e-01	-3.6005e-23	2.8802e-01	-1.4401e-01	-9.6803e-02	1.0490e-01	-3.9106e-02	2.4891e-01	1.0490e-01	-1.0490e-01	4.7205e-02	2.4081e-01
0.161       	2.1056e-01	-3.6513e-23	2.8276e-01	-1.4138e-01	-9.3280e-02	1.0528e-01	-3.6098e-02	2.4666e-01	1.0528e-01	-1.0528e-01	4.8100e-02	2.3466e-01
0.162       	2.1134e-01	-3.7007e-23	2.7872e-01	-1.3936e-01	-9.0372e-02	1.0567e-01	-3.3687e-02	2.4503e-01	1.0567e-01	-1.0567e-01	4.8986e-02	2.2973e-01
0.163       	2.1208e-01	-3.7422e-23	2.7669e-01	-1.3834e-01	-8.8587e-02	1.0604e-01	-3.2304e-02	2.4438e-01	1.0604e-01	-1.0604e-01	4.9756e-02	2.2693e-01
0.164       	2.1266e-01	-3.7685e-23	2.7720e-01	-1.3860e-01	-8.8326e-02	1.0633e-01	-3.2268e-02	2.4493e-01	1.0633e-01	-1.0633e-01	5.0274e-02	2.2693e-01
0.165       	2.1305e-01	-3.7765e-23	2.8008e-01	-1.4004e-01	-8.9556e-02	1.0653e-01	-3.3511e-02	2.4657e-01	1.0653e-01	-1.0653e-01	5.0482e-02	2.2959e-01
0.166       	2.1325e-01	-3.7684e-23	2.8454e-01	-1.4227e-01	-9.1860e-02	1.0663e-01	-3.5647e-02	2.4890e-01	1.0663e-01	-1.0663e-01	5.0413e-02	2.3413e-01
0.167       	2.1331e-01	-3.7481e-23	2.9005e-01	-1.4503e-01	-9.4892e-02	1.0666e-01	-3.8369e-02	2.5168e-01	1.0666e-01	-1.0666e-01	5.0134e-02	2.3992e-01
0.168       	2.1329e-01	-3.7189e-23	2.9617e-01	-1.4809e-01	-9.8384e-02	1.0664e-01	-4.1443e-02	2.5473e-01	1.0664e-01	-1.0664e-01	4.9702e-02	2.4647e-01
0.169       	2.1322e-01	-3.6833e-23	3.0276e-01	-1.5138e-01	-1.0222e-01	1.0661e-01	-4.4769e-02	2.5799e-01	1.0661e-01	-1.0661e-01	4.9160e-02	2.5360e-01
0.17        	2.1316e-01	-3.6461e-23	3.0925e-01	-1.5463e-01	-1.0605e-01	1.0658e-01	-4.8048e-02	2.6121e-01	1.0658e-01	-1.0658e-01	4.8574e-02	2.6068e-01
0.171       	2.1316e-01	-3.6130e-23	3.1504e-01	-1.5752e-01	-1.0948e-01	1.0658e-01	-5.0939e-02	2.6410e-01	1.0658e-01	-1.0658e-01	4.8039e-02	2.6700e-01
0.172       	2.1327e-01	-3.5917e-23	3.1917e-01	-1.5959e-01	-1.1192e-01	1.0664e-01	-5.2950e-02	2.6622e-01	1.0664e-01	-1.0664e-01	4.7670e-02	2.7150e-01
0.173       	2.1350e-01	-3.5850e-23	3.2131e-01	-1.6066e-01	-1.1312e-01	1.0675e-01	-5.3905e-02	2.6741e-01	1.0675e-01	-1.0675e-01	4.7534e-02	2.7378e-01
0.174       	2.1382e-01	-3.5925e-23	3.2149e-01	-1.6074e-01	-1.1311e-01	1.0691e-01	-5.3833e-02	2.6766e-01	1.0691e-01	-1.0691e-01	4.7634e-02	2.7386e-01
0.175       	2.1423e-01	-3.6116e-23	3.2012e-01	-1.6006e-01	-1.1211e-01	1.0712e-01	-5.2944e-02	2.6718e-01	1.0712e-01	-1.0712e-01	4.7945e-02	2.7217e-01
0.176       	2.1470e-01	-3.6399e-23	3.1751e-01	-1.5876e-01	-1.1032e-01	1.0735e-01	-5.1404e-02	2.6611e-01	1.0735e-01	-1.0735e-01	4.8434e-02	2.6908e-01
0.177       	2.1525e-01	-3.6764e-23	3.1391e-01	-1.5695e-01	-1.0786e-01	1.0763e-01	-4.9326e-02	2.6458e-01	1.0763e-01	-1.0763e-01	4.9097e-02	2.6481e-01
0.178       	2.1585e-01	-3.7177e-23	3.0970e-01	-1.5485e-01	-1.0497e-01	1.0792e-01	-4.6924e-02	2.6277e-01	1.0792e-01	-1.0792e-01	4.9877e-02	2.5982e-01
0.179       	2.1648e-01	-3.7607e-23	3.0536e-01	-1.5268e-01	-1.0196e-01	1.0824e-01	-4.4441e-02	2.6092e-01	1.0824e-01	-1.0824e-01	5.0724e-02	2.5464e-01
0.18        	2.1707e-01	-3.7990e-23	3.0164e-01	-1.5082e-01	-9.9315e-02	1.0854e-01	-4.2286e-02	2.5936e-01	1.0854e-01	-1.0854e-01	5.1507e-02	2.5014e-01
0.181       	2.1761e-01	-3.8291e-23	2.9899e-01	-1.4950e-01	-9.7332e-02	1.0880e-01	-4.0692e-02	2.5830e-01	1.0880e-01	-1.0880e-01	5.2164e-02	2.4683e-01
0.182       	2.1804e-01	-3.8484e-23	2.9766e-01	-1.4883e-01	-9.6204e-02	1.0902e-01	-3.9808e-02	2.5785e-01	1.0902e-01	-1.0902e-01	5.2625e-02	2.4503e-01
0.183       	2.1842e-01	-3.8579e-23	2.9762e-01	-1.4881e-01	-9.5897e-02	1.0921e-01	-3.9603e-02	2.5802e-01	1.0921e-01	-1.0921e-01	5.2915e-02	2.4471e-01
0.184       	2.1873e-01	-3.8586e-23	2.9876e-01	-1.4938e-01	-9.6344e-02	1.0936e-01	-4.0015e-02	2.5874e-01	1.0936e-01	-1.0936e-01	5.3034e-02	2.4572e-01
0.185       	2.1901e-01	-3.8512e-23	3.0113e-01	-1.5057e-01	-9.7561e-02	1.0951e-01	-4.1061e-02	2.6007e-01	1.0951e-01	-1.0951e-01	5.3007e-02	2.4813e-01
0.186       	2.1927e-01	-3.8383e-23	3.0444e-01	-1.5222e-01	-9.9367e-02	1.0963e-01	-4.2585e-02	2.6185e-01	1.0963e-01	-1.0963e-01	5.2851e-02	2.5159e-01
0.187       	2.1953e-01	-3.8214e-23	3.0863e-01	-1.5432e-01	-1.0172e-01	1.0976e-01	-4.4554e-02	2.6408e-01	1.0976e-01	-1.0976e-01	5.2600e-02	2.5603e-01
0.188       	2.1976e-01	-3.8053e-23	3.1289e-01	-1.5644e-01	-1.0412e-01	1.0988e-01	-4.6562e-02	2.6633e-01	1.0988e-01	-1.0988e-01	5.2323e-02	2.6056e-01
0.189       	2.2001e-01	-3.7920e-23	3.1704e-01	-1.5852e-01	-1.0645e-01	1.1000e-01	-4.8517e-02	2.6852e-01	1.1000e-01	-1.1000e-01	5.2068e-02	2.6497e-01
0.19        	2.2023e-01	-3.7846e-23	3.2033e-01	-1.6017e-01	-1.0827e-01	1.1011e-01	-5.0053e-02	2.7028e-01	1.1011e-01	-1.1011e-01	5.1895e-02	2.6844e-01
0.191       	2.2046e-01	-3.7828e-23	3.2297e-01	-1.6148e-01	-1.0966e-01	1.1023e-01	-5.1251e-02	2.7172e-01	1.1023e-01	-1.1023e-01	5.1819e-02	2.7115e-01
0.192       	2.2069e-01	-3.7872e-23	3.2464e-01	-1.6232e-01	-1.1046e-01	1.1035e-01	-5.1974e-02	2.7266e-01	1.1035e-01	-1.1035e-01	5.1854e-02	2.7278e-01
0.193       	2.2095e-01	-3.7977e-23	3.2558e-01	-1.6279e-01	-1.1078e-01	1.1048e-01	-5.2314e-02	2.7327e-01	1.1048e-01	-1.1048e-01	5.2014e-02	2.7357e-01
0.194       	2.2122e-01	-3.8135e-23	3.2565e-01	-1.6282e-01	-1.1054e-01	1.1061e-01	-5.2214e-02	2.7343e-01	1.1061e-01	-1.1061e-01	5.2281e-02	2.7337e-01
0.195       	2.2154e-01	-3.8344e-23	3.2501e-01	-1.6251e-01	-1.0984e-01	1.1077e-01	-5.1738e-02	2.7328e-01	1.1077e-01	-1.1077e-01	5.2665e-02	2.7235e-01