/*--------------------------------*- C++ -*----------------------------------*\
  =========                 |
  \\      /  F ield         | OpenFOAM: The Open Source CFD Toolbox
   \\    /   O peration     | Website:  https://openfoam.org
    \\  /    A nd           | Version:  8
     \\/     M anipulation  |
\*---------------------------------------------------------------------------*/
FoamFile
{
    version     2.0;
    format      ascii;
    class       volScalarField;
    location    "5";
    object      k;
}
// * * * * * * * * * * * * * * * * * * * * * * * * * * * * * * * * * * * * * //

dimensions      [0 2 -2 0 0 0 0];

internalField   nonuniform List<scalar> 
127143
(
2.455e-13
8.025e-13
1.646e-11
8.5e-11
1.705e-11
9.014e-11
8.75e-10
1.296e-10
6.364e-11
7.165e-10
1.968e-09
2.361e-10
9.741e-11
1.478e-10
0.0001693
4.661e-09
5.837e-11
0.07685
0.0389
4.45e-08
0.01517
1.788e-06
0.000155
2.976e-05
1.604e-06
1.825e-06
9.288e-07
1.047e-06
1.36e-06
0.06817
2.256e-05
1.918e-06
1.372e-07
7.98e-05
0.0001516
1.319e-07
0.008601
0.04924
4.007e-05
1.793e-06
0.03932
0.0001544
0.0001538
7.329e-10
0.07488
9.047e-05
1.233e-06
0.01516
2.599e-05
4.043e-05
1.082e-08
0.0001499
0.02038
0.0001568
0.0001397
1.699e-05
0.0001396
0.0001683
0.0001482
0.0001567
0.0001539
0.02551
4.911e-05
0.0001482
0.0005274
0.0001597
0.000152
4.942e-05
4.931e-05
0.0002043
2.813e-05
1.965e-06
0.04295
0.0001482
0.0001459
2.184e-06
0.0001481
0.00894
1.683e-05
0.000149
1.221e-06
4.485e-08
0.0005085
3.592e-06
0.02935
0.01041
4.201e-05
9.665e-07
0.0001585
0.0001191
0.0001467
0.04443
0.0001829
0.01533
0.006436
0.0001743
0.0001543
1.1e-05
0.0121
0.000152
0.0001489
2.731e-05
4.628e-05
0.0001483
0.01083
0.01173
4.638e-05
0.0002052
0.000165
0.0001424
0.0001988
8.404e-07
0.01086
0.0001623
0.0001457
0.0001688
0.0001481
0.0001459
0.000148
1.716e-07
0.0001425
0.0006497
0.0001532
0.0001635
1.411e-06
6.22e-07
0.02027
0.0001498
0.006657
1.498e-05
0.00563
0.005184
5.683e-05
0.009148
1.91e-09
0.005891
0.0001574
0.01954
3.775e-06
0.0001547
0.0001556
0.0001472
0.02481
0.02827
0.02087
0.0001943
5.552e-06
0.0001483
0.004834
2.487e-05
0.0001218
3.236e-05
0.05781
0.0001526
0.0002329
0.02947
0.0001683
1.499e-05
0.01538
6.256e-06
3.589e-05
8.362e-09
0.0001468
0.005681
2.986e-06
0.0007808
0.006596
0.0001568
8.353e-06
0.0001495
0.001538
0.02813
0.0001679
0.0001585
0.0006026
0.01776
0.0001974
0.006756
3.33e-05
0.000158
0.0001589
0.0001553
0.01978
0.01797
1.558e-05
0.02614
0.0001522
0.0001624
3.308e-05
0.0001566
0.016
0.008371
0.0001568
0.0002262
9.902e-10
0.02211
0.0001294
0.0001286
4.826e-09
0.000146
0.0001455
0.0001496
0.004558
0.009313
6.602e-10
5.305e-05
0.0001538
0.0001241
0.05881
0.0001456
0.001687
0.02571
0.0001449
9.531e-06
0.003108
1.793e-09
0.0001884
0.0001293
0.008028
0.0001539
0.0001903
0.0001462
3.217e-05
0.02132
6.053e-06
0.001022
6.37e-06
0.05152
0.002753
0.01589
0.01439
0.0001551
0.04328
1.944e-06
0.01456
0.0001583
0.005659
6.567e-12
0.0001455
0.01844
0.008885
0.0009432
0.01658
1.496e-05
0.0382
2.027e-07
4.35e-05
1.21e-06
7.794e-08
0.0002525
0.0001691
1.942e-06
0.000132
0.02043
2.475e-05
0.0001669
0.0001498
2.408e-05
0.0001728
0.0001514
0.02347
0.0001517
0.03306
0.0001471
0.02017
0.0007772
0.001333
0.0002282
0.0001562
0.04338
4.738e-06
0.000595
0.01755
0.01794
5.284e-05
0.01667
0.01108
3.205e-05
0.001132
0.0001784
0.0002169
0.0001835
0.0001487
0.0001456
0.0001456
8.781e-10
0.005619
0.0001457
3.049e-05
0.0001585
0.0604
0.0001591
0.0001582
0.0001673
0.0001453
0.0001751
2.131e-05
0.0112
0.01652
0.03906
8.533e-06
0.0001607
0.0001559
0.0001692
4.749e-06
0.0002108
0.0001242
0.000145
0.04381
8.685e-05
4.339e-05
0.004497
1.217e-05
0.0001921
0.0001455
0.0001063
0.04076
8.703e-06
0.0005431
0.005669
0.0001548
2.839e-05
0.0001522
0.0001316
0.0001007
0.03638
0.0001507
0.01441
3.122e-05
0.0001859
0.02011
0.0001456
0.0001516
0.0001295
0.0001287
0.0001525
0.0001654
0.000168
0.02007
0.004775
0.0001548
0.000129
0.02425
0.01757
0.000168
3.037e-05
0.001594
0.00941
9.491e-06
0.004617
1.279e-05
0.04069
0.01558
0.01701
0.0001499
0.001879
0.02014
0.0001894
0.00015
3.064e-05
0.01998
4.941e-05
0.07464
4.478e-05
4.058e-05
0.0001468
0.0001459
0.003457
0.0006723
0.001139
0.000156
0.0001523
3.726e-06
4.133e-05
0.0001559
0.0001551
2.085e-05
7.09e-06
0.01328
0.001182
0.07451
8.34e-07
1.423e-05
0.0001605
0.000148
9.574e-08
0.0001509
2.211e-06
0.02139
0.05345
0.0001469
0.0001543
0.002105
2.774e-05
3.294e-05
2.057e-05
0.0001544
2.896e-05
0.0001499
0.0001515
2.797e-06
0.0001462
0.01641
0.02022
0.000151
0.0001071
0.01164
5.914e-05
0.000149
3.656e-05
0.0001934
9.22e-06
0.0001556
0.01609
0.0001678
0.006668
0.01068
4.398e-06
0.05768
6.841e-05
0.006922
1.238e-05
0.002449
0.0002147
0.01551
0.0001517
0.0001536
0.0001538
0.001211
0.0001539
0.0001413
0.002414
0.01471
0.02628
0.02538
0.0001468
0.0001093
0.002134
0.0001498
0.0001452
0.0001454
4.382e-05
0.0001575
0.0001691
0.0001486
1.172e-05
0.0001455
0.0001697
0.003736
0.02596
0.01425
1.758e-05
0.000115
0.0005281
0.0001508
0.01074
7.59e-06
0.001403
0.01107
0.06469
6.297e-05
0.01222
0.03913
0.0001569
0.01158
0.0004668
0.0001467
0.01795
0.001059
0.0001386
0.01433
0.02076
0.0001637
0.0424
0.0001536
0.0001348
0.0002372
0.01369
0.001295
0.03014
1.68e-06
0.0001854
0.003221
1.258e-05
0.0001884
0.02678
0.0358
0.0001449
1.017e-05
0.0001472
0.0001586
4.332e-05
0.01712
0.0001881
6.356e-09
0.004864
0.0001573
0.0001612
0.000159
0.0001449
1.402e-06
0.0001468
0.01465
0.02299
3.147e-11
7.991e-09
9.801e-08
0.000147
0.001956
0.004232
0.0001455
0.02093
0.000131
0.006045
0.000152
0.01385
1.753e-05
0.01443
1.594e-05
0.0004069
0.0271
4.16e-07
5.399e-05
9.816e-06
0.002064
0.0001478
0.0001256
0.002678
0.04066
0.0001458
8.341e-06
6.919e-06
0.001774
0.0001306
0.01778
0.0001579
0.000968
0.0001921
4.546e-06
0.04347
0.0001473
0.002909
0.0001874
0.0001388
0.0001606
0.06216
2.546e-05
4.499e-05
0.0009576
0.0003362
0.02194
0.04649
8.519e-05
0.007002
0.002542
0.000147
3.103e-06
0.007016
7.13e-06
5.438e-05
0.0162
0.0001483
0.0001479
0.0001514
0.001529
0.0001619
0.0001455
0.0001401
0.0001805
3.007e-05
0.01168
0.0001885
0.0002856
1.337e-05
0.0001732
0.0001476
0.0001426
0.001359
0.01279
9.096e-05
0.0001565
2.616e-06
6.345e-05
0.003732
0.001163
3.411e-06
0.0001455
0.01217
0.02309
0.05216
0.0001334
0.001481
0.02359
9.465e-08
0.0001346
4.814e-05
0.0002111
0.0001453
0.0001074
0.0001457
5.208e-05
0.03464
0.0001456
0.0007779
1.919e-05
0.005516
0.008875
0.02773
1.335e-05
1.468e-05
0.000204
4.229e-05
0.0002046
4.757e-05
0.01351
0.01656
6.287e-06
0.0001484
1.533e-05
0.0001455
0.000163
0.0001497
0.02555
0.0001413
0.0001457
0.0001685
6.958e-05
0.01158
0.0001384
0.0001412
0.003234
2.864e-06
0.0009244
1.196e-05
0.02665
0.0001684
0.01425
0.0001937
0.01798
0.001566
0.0003458
0.0001385
0.002214
0.01891
0.0001669
0.05542
0.0001469
0.0001399
0.03803
5.486e-06
0.03586
1.658e-05
0.0001496
0.0001411
0.004611
0.002758
0.0001495
0.0008414
0.0001578
0.0001649
0.0007916
0.000171
0.0196
0.0001532
1.228e-09
0.001261
0.01127
0.01066
0.005739
0.006067
4.378e-06
0.002726
0.0001493
0.008431
0.01238
0.01689
0.0001417
3.297e-05
0.0001571
0.000153
0.0001305
0.0001415
3.704e-06
0.0001613
1.811e-05
0.00826
0.0001748
0.04357
0.000166
8.646e-06
0.0001521
2.793e-05
0.0001448
0.0001393
0.0001711
0.0001517
0.0008559
0.000153
7.529e-06
0.02391
4.203e-05
0.0006059
0.07402
0.0001396
1.531e-05
0.0001536
2.201e-05
1.836e-09
8.097e-05
0.02141
0.01377
0.0001348
4.779e-05
3.859e-05
1.002e-05
0.05533
0.03198
0.01801
3.145e-05
0.0105
8.357e-05
0.02998
3.204e-05
4.463e-05
8.745e-05
0.0207
0.0001614
4.823e-13
0.0001571
0.0001494
6.051e-05
0.0001548
4.209e-05
0.0001441
0.01676
0.04159
0.01184
0.0001441
1.347e-05
0.002669
3.634e-06
0.0001561
0.002353
0.01196
0.002633
0.005818
0.0001477
0.01399
0.003681
0.0007347
0.01984
0.0001461
0.02434
0.0002552
0.0001465
0.000126
0.0001688
0.006557
0.004935
0.0001597
8.087e-05
1.586e-06
0.001791
0.0001279
0.01391
0.02417
2.267e-06
9.935e-06
0.0001583
0.02124
0.00038
0.0001284
0.006352
0.0008262
0.03092
3.726e-06
0.03131
0.001889
0.01323
0.01826
0.0001737
0.0001469
4.7e-10
0.006004
0.00954
0.0004129
0.01229
0.002973
0.003753
3.501e-05
0.0001424
0.04463
0.0001495
0.0001419
0.002741
0.0001588
4.537e-05
0.0001495
0.0001364
0.01481
0.01682
0.0001449
0.000136
0.05695
0.02481
0.02647
0.003514
0.01236
1.378e-08
0.0001389
0.0001535
0.0001418
0.009356
0.007602
2.522e-05
6.645e-06
0.0001563
0.0001905
0.0001474
0.002233
1.563e-06
0.0001419
0.0003589
1.368e-05
5.104e-05
1.282e-06
0.0001485
0.02238
4.759e-05
0.0001459
9.52e-06
0.0001416
0.0001568
1.413e-05
0.004584
0.03324
8.855e-07
0.0001463
0.0009061
0.0001534
8.874e-06
0.009455
5.165e-06
3.234e-05
0.0001581
0.000167
0.000163
1.565e-08
0.0001458
0.06285
2.164e-05
4.785e-05
0.01211
1.997e-07
0.0001866
0.0005559
0.001346
1.609e-06
1.18e-06
0.002525
5.903e-09
0.0002669
5.136e-09
0.00518
0.000494
0.04564
1.984e-07
0.000148
4.053e-05
0.0001328
0.000132
0.0215
0.0001503
0.01087
0.05414
0.0001612
0.0001656
0.0001566
8.776e-05
5.899e-05
0.0001469
0.06003
0.008061
0.0001564
0.0007334
3.695e-07
0.02509
0.0001418
0.0001893
0.03373
0.002315
0.0001451
0.01743
2.246e-05
0.0001496
0.0009709
0.006941
0.02753
0.0001379
0.00622
0.07079
4.429e-09
0.0001801
3.372e-07
0.0149
0.0001908
6.758e-05
0.0001305
0.001791
0.00013
4.935e-06
0.0001545
0.0001306
0.0001739
1.437e-06
0.06685
0.0002352
0.0001115
0.0001653
5.622e-05
2.824e-09
2.875e-05
0.0001475
0.0001461
0.0001362
0.000182
0.004905
0.001014
0.0001794
5.169e-06
0.009138
0.0001533
4.756e-06
0.0001549
1.73e-05
0.0001445
0.01453
0.003075
0.02285
0.002673
0.01266
0.0001457
0.000146
0.0005668
0.000156
0.005532
2.672e-05
0.001821
0.01952
0.03985
0.002985
0.002974
2.102e-08
0.02306
1.681e-05
0.0006112
0.0001126
0.01927
0.000227
0.003229
0.001651
4.378e-06
0.01225
0.0001441
0.000143
0.01531
0.01346
0.0001681
0.0001396
0.0001951
0.01414
0.0001689
0.001993
0.04096
0.00126
0.0001577
0.000149
0.0001619
0.0001712
8.476e-07
4.87e-06
0.01276
0.0001547
0.06585
0.0008708
3.162e-05
6.458e-05
0.02486
0.0001843
4.03e-05
0.006661
4.007e-06
0.0001501
7.068e-06
0.0001295
0.02459
0.00985
0.0001665
0.0001458
1.352e-06
2.551e-08
0.0001364
0.0001441
0.01507
0.01267
6.87e-07
0.01181
4.111e-05
3.688e-05
0.0009777
0.0001633
0.0001665
0.0001478
0.0007983
0.03661
0.001898
0.0001719
0.0005942
0.009565
0.0001508
2.891e-08
0.009244
0.0001453
0.003444
0.0001415
0.0001447
9.379e-05
0.0001555
1.317e-06
0.0001443
1.052e-05
0.000146
0.0001531
0.0001551
0.06088
0.0001355
1.364e-05
1.851e-05
0.0006782
5.675e-05
0.0001975
0.000156
0.02342
3.354e-05
0.00309
0.001085
5.421e-07
0.0006807
7.29e-07
0.008109
2.604e-05
0.000278
2.301e-05
1.448e-06
0.0001523
0.04823
0.0001726
0.001785
0.01399
4.601e-06
0.000176
9.868e-05
0.01902
4.549e-05
7.787e-05
0.01531
0.0001673
0.0004085
0.02994
4.555e-05
0.007418
1.249e-05
0.009282
0.0001373
7.229e-05
0.001759
0.000146
0.003235
0.0009296
0.0001382
0.0001728
0.009508
0.0001542
0.0001524
0.03746
0.01787
0.0001593
0.0001322
0.00311
0.002124
0.0001453
0.0001521
0.0001509
0.01404
0.002069
0.0001463
0.0001558
0.00238
5.388e-06
1.524e-05
2.459e-05
0.01709
1.877e-07
0.0001969
4.1e-05
0.0001457
0.008661
0.0001888
0.00487
7.721e-05
0.003493
2.757e-05
0.0001471
1.012e-07
0.0002342
0.0003385
4.888e-05
3.222e-05
0.02664
0.05601
4.389e-06
4.757e-05
0.0001506
1.933e-10
0.01174
3.85e-05
8.444e-06
3.232e-05
0.0001813
0.01852
8.828e-05
4.815e-05
0.005007
0.03201
1.793e-05
2.562e-05
0.06373
4.131e-07
0.00016
5.079e-05
0.0001578
1.157e-05
0.0001312
0.0001448
0.03881
1.144e-07
0.01361
0.002519
9.914e-07
0.0008197
0.0001459
2.401e-06
4.099e-05
0.03881
2.994e-06
0.0001751
0.007915
3.842e-09
0.0606
2.494e-05
0.01777
4.551e-05
5.232e-05
2.145e-05
5.775e-06
0.0001896
0.002912
0.000159
0.06555
0.0428
0.003656
0.0001672
5.161e-05
0.02308
9.47e-05
0.01707
0.000163
0.02255
0.0001541
0.0001646
0.0001318
3.912e-07
0.0001511
3.797e-06
0.0001229
0.005836
0.006929
0.0001459
0.02056
0.01378
0.0001807
0.0001009
9.024e-06
5.007e-06
0.0001427
1.939e-05
0.00178
0.01132
3.789e-08
0.01196
0.04161
0.001431
0.0001468
0.001206
0.00604
5.985e-07
0.004992
0.0001625
0.0193
0.0001454
1.813e-08
6.722e-08
0.009954
0.000167
0.0001711
0.0001354
0.0001316
0.005292
0.02821
0.03055
0.0001552
0.0001515
0.0001526
0.0001593
0.009685
0.03971
0.001507
2.83e-05
2.766e-08
0.0001672
4.045e-06
0.007864
0.002102
0.0001319
2.314e-05
0.01811
8.963e-05
1.731e-08
0.06295
0.02911
0.004649
4.964e-05
0.01505
3.503e-08
0.07651
0.008597
0.02152
0.02919
0.0001419
2.864e-05
1.63e-08
0.0001579
0.00397
0.0001414
3.163e-05
9.2e-05
0.0001355
0.0001192
8.648e-05
0.00737
1.751e-05
0.0001429
0.0001654
1.616e-09
0.0001458
4.496e-05
0.0007045
4.579e-05
7.428e-06
0.0001678
0.0001469
0.003496
2.823e-06
0.006097
0.004322
0.0001513
7.183e-05
5.24e-05
2.422e-05
0.001973
0.00597
0.0001452
0.003205
0.04102
8.834e-06
0.0002339
0.02404
0.005729
0.0001459
0.0001647
0.002482
0.0001457
0.02395
0.0001379
2.276e-05
0.02462
1.671e-07
0.004116
0.02499
6.197e-05
0.01169
4.697e-05
2.721e-05
3.488e-09
0.005994
0.00291
0.03023
0.0148
0.01773
0.0001482
0.0128
0.0001469
0.01852
0.0001474
0.02665
0.0001435
0.001534
0.007249
0.0001381
0.0001446
0.01054
0.000195
0.0003022
0.0001553
0.0001344
0.0001877
0.01032
0.0001504
5.929e-08
3.964e-05
1.643e-06
3.341e-05
5.925e-05
2.541e-05
3.445e-05
0.02167
0.008209
1.224e-06
0.02251
0.0002661
0.001443
0.01254
0.01649
0.03452
0.0001441
3.377e-09
0.007998
2.986e-06
0.0001458
2.073e-08
7.355e-05
2.224e-05
0.008249
0.000131
0.0001309
0.02741
0.0783
0.01205
0.02232
4.841e-05
0.000169
0.0001571
0.006722
0.0001562
5.31e-06
0.0003938
0.0001857
0.0125
0.000141
0.0005973
0.0005364
5.901e-05
2.197e-05
0.01435
0.0001467
0.01454
0.0111
2.393e-07
0.0245
0.0001543
8.652e-05
0.00292
3.961e-05
0.01514
0.0002768
0.06648
0.0001455
0.01447
0.0001572
1.739e-08
5.788e-06
0.0001682
0.006098
0.0002442
0.0002099
0.0001305
0.0001665
0.0013
6.227e-09
0.0001524
4.473e-07
0.008652
0.000144
0.003092
0.001697
0.02367
0.0001525
0.02113
0.003154
5.618e-05
0.007981
0.05324
2.053e-05
0.0001529
0.0001203
0.0002977
1.238e-05
0.0001771
0.0001766
2.128e-05
0.0001818
6.574e-09
0.0001957
8.277e-06
1.005e-05
3.675e-09
0.003621
0.002809
0.0001497
0.000146
0.0001438
0.01655
0.0001435
5.422e-08
0.0001454
2.17e-06
0.0001588
0.0001991
0.003853
1.733e-05
0.0002302
5.37e-06
0.0005543
0.0002582
0.01372
1.408e-05
0.000145
0.005162
0.0006655
0.01497
0.0008572
0.002297
0.0107
0.000157
0.0001455
0.0001545
0.0001372
4.455e-05
0.0001793
0.0001332
0.0001604
0.0002004
0.0001372
2.564e-06
0.0001462
0.01783
0.02517
0.02052
0.0002294
0.0001393
0.0137
0.0007651
0.02025
0.0001523
0.0001201
0.0001556
0.0001455
0.0001418
0.01625
3.106e-08
0.0001491
4.311e-05
0.0001503
2.962e-06
0.0001644
0.0001536
0.00017
0.0001712
0.003087
1.834e-05
0.0001509
7.587e-05
0.0001471
0.01609
0.0001486
0.0001531
9.64e-05
0.02311
0.0001591
8.876e-06
0.002946
0.0001416
0.02995
2.483e-06
0.001375
2.716e-08
4.612e-06
0.03466
0.0001536
0.0001782
4.536e-06
0.0246
8.397e-05
8.386e-05
0.0002022
0.0001577
0.0001445
0.005111
3.713e-05
0.01075
0.0001459
0.004272
0.0001456
0.000164
0.003088
0.0001434
0.03696
0.0001715
0.0001904
0.01996
0.002277
2.555e-05
0.0001467
2.613e-05
5.419e-06
0.0001655
0.03601
3.374e-05
0.00016
0.03938
0.01584
2.541e-05
0.0001613
0.01285
1.009e-05
0.00941
0.004393
1.39e-05
0.0001603
0.0001557
0.0001373
0.0001524
2.853e-05
0.01275
0.0001522
4.489e-05
0.0001487
0.0007634
0.0006276
0.07026
0.04214
0.005253
2.639e-08
0.007975
1.652e-07
0.0001677
0.0001377
1.711e-07
4.072e-05
0.0001584
2.117e-05
0.0001514
0.0301
0.0001491
0.0256
4.998e-07
0.0191
0.0001904
6.56e-05
3.868e-05
0.0001464
4.97e-05
0.0001541
0.0001866
5.499e-05
0.0001496
4.735e-05
2.568e-06
0.0001445
0.0001493
0.01507
0.0001916
0.01578
0.0001746
0.0001731
0.0001999
0.0001679
0.02084
0.0002211
0.006504
0.01001
0.0001374
0.0001548
1.934e-05
8.536e-07
0.0001399
0.002227
4.964e-07
0.04139
0.0004124
0.02217
4.14e-05
7.998e-07
0.0001679
0.0002672
0.01289
0.0001521
0.0005101
0.0001951
0.01697
1.728e-06
0.004097
0.0001493
0.002907
1.123e-09
1.384e-08
0.01611
0.01221
0.003704
0.0001673
0.01718
0.0001093
0.01818
0.0002651
0.006044
0.01046
9.594e-05
3.552e-06
0.01138
0.0001639
0.0001454
0.000178
0.0001616
0.008586
0.0001535
0.0001519
4.451e-05
0.01601
0.04199
0.000136
2.141e-05
4.857e-06
0.04926
0.002736
0.01564
2.058e-08
2.824e-05
0.0001498
0.002535
7.514e-05
0.01506
4.14e-05
1.219e-08
0.0001283
1.955e-06
0.0001603
3.732e-05
0.0001341
0.01413
0.01984
9.88e-06
0.002508
0.03065
4.859e-06
0.0001571
0.0001672
3.172e-05
0.0001539
0.0248
0.0001458
1.916e-05
9.428e-06
4.73e-05
7.703e-06
8.444e-06
0.0146
1.135e-07
0.0002627
0.0002172
0.0001841
0.02572
0.0001519
0.04951
6.382e-05
0.01742
4.585e-05
0.0001949
5.758e-05
3.174e-09
1.069e-07
0.008093
0.06933
0.0001645
0.0001604
0.0001463
0.0001494
0.007716
0.0001644
0.0001451
4.512e-05
4.518e-05
2.915e-05
0.006465
0.0001468
4.955e-05
0.03581
0.0001437
7.199e-07
1.305e-05
0.0001573
4.793e-05
4.214e-09
0.022
0.0003554
0.05268
0.0001116
0.0002743
2.336e-10
0.0001156
0.0001009
0.000148
0.0001579
3.611e-05
0.00721
0.0001456
0.0001471
0.01768
5.077e-06
0.02404
4.573e-05
1.132e-07
0.0001739
0.0001493
5.92e-06
0.0248
0.007329
1.272e-06
0.003892
0.02726
0.0211
0.005266
0.0001681
0.008006
0.0001465
0.002118
0.03203
5.132e-06
0.07216
2.97e-05
3.198e-05
0.0001719
6.147e-06
0.03916
0.0002808
4.597e-05
0.0006055
0.0001522
0.01961
0.007697
0.01054
0.0009337
0.007247
4.353e-05
0.0008279
0.0001454
0.007782
0.05339
7.599e-06
6.293e-05
0.0005844
0.03391
0.0001553
5.464e-05
0.0001604
0.006391
0.0242
0.01146
0.02473
0.02285
0.001672
8.198e-07
0.0001632
0.0001492
0.000353
0.0001395
0.01713
0.0001504
0.0001676
0.02198
0.0001439
0.0001649
4.522e-05
0.0007442
0.0001457
0.0001491
0.02714
8.617e-05
0.001239
0.0001943
0.03264
0.01298
1.148e-05
1.883e-05
0.07711
0.002144
0.04868
0.0001601
4.312e-05
5.034e-08
0.02643
2.061e-05
2.565e-05
0.02446
2.868e-08
0.0001455
0.0001373
0.000165
0.0001551
6.029e-09
0.0001459
0.03223
0.0003501
1.991e-08
0.0007085
1.312e-05
0.0001246
0.0001243
2.313e-05
0.006359
0.0147
0.0002274
0.0001504
0.05999
0.0001638
0.000149
6.572e-06
4.697e-05
4.735e-05
0.01659
1.2e-06
0.0118
0.0001766
0.0001323
0.0001189
5.378e-05
7.737e-06
2.546e-05
0.005979
3.385e-06
0.002808
0.01437
5.042e-05
0.0018
0.005288
0.0001552
0.0001305
2.54e-05
0.0001333
0.0001318
0.001226
0.005632
4.621e-07
0.0001637
3.514e-05
0.006285
0.0003547
0.0001455
0.0001854
0.0001482
0.01203
9.637e-08
0.0001858
0.0001578
8.93e-05
0.0001532
2.631e-06
8.335e-05
0.0001916
0.0001095
0.0001307
4.335e-05
0.01634
0.0001337
0.004728
0.01045
0.01258
0.009007
9.608e-05
0.01899
9.104e-06
5.188e-05
0.007805
0.01084
1.821e-05
0.009023
0.002463
0.0006091
0.0001575
0.0001652
0.0001248
1.104e-07
0.0001665
0.004472
0.0001477
0.01899
0.0001484
3.818e-05
0.02778
1.183e-07
0.001828
0.0001537
0.0001108
1.67e-08
6.022e-06
0.01381
5.036e-05
1.073e-05
1.141e-05
0.0005862
0.016
6.065e-05
1.266e-07
0.00392
0.008119
0.0001688
0.0001618
0.0001456
0.0252
3.207e-05
0.0001516
0.003183
0.0261
0.0001558
4.362e-05
0.0001313
0.03329
0.0001668
0.03468
1.886e-05
0.0001652
0.0001737
0.02873
0.0001511
7.606e-05
7.863e-05
7.845e-07
0.0004388
0.000257
0.000143
0.01012
0.001435
6.817e-05
4.042e-05
5.943e-05
0.03345
0.01125
0.0001455
2.95e-05
3.684e-05
0.0001801
0.0002
0.02655
7.063e-05
9.802e-06
4.173e-05
0.000202
0.0005554
0.0001563
6.596e-05
0.04907
0.0001552
6.048e-07
0.0001788
0.05246
0.0001457
0.0001473
0.0001938
0.0001467
0.0006292
0.000102
0.07029
0.02363
9.911e-06
6.696e-05
0.003986
0.0001028
0.003855
0.02407
1.133e-07
0.01153
0.004824
0.005561
2.924e-07
0.02196
1.639e-05
3.879e-07
0.0001477
0.0002233
1.13e-05
0.0001552
0.01907
0.0001852
0.0002057
0.00013
0.01258
0.01077
0.0001496
0.04039
0.0001478
0.0001675
0.01907
0.005484
0.01385
0.01928
1.259e-07
0.01666
0.000147
0.002198
0.008601
0.05227
5.321e-05
0.009921
0.0002448
1.121e-05
8.23e-06
1.577e-07
0.002198
4.145e-05
0.002663
0.005159
0.002742
0.0001523
2.135e-07
0.002971
4.542e-05
0.0001642
0.0001442
0.003507
0.00166
0.01719
0.0001572
1.413e-07
0.0004207
0.0001099
0.06887
0.01102
2.169e-05
0.0001448
0.0006192
0.02549
0.000152
0.0001411
2.227e-05
0.0001455
0.002862
0.01794
0.0001646
7.316e-07
0.0001791
0.009066
1.239e-08
0.009252
3.58e-05
0.0001316
0.0001306
4.318e-05
0.04132
0.0001774
0.0002841
4.945e-05
0.0001438
5.629e-05
7.491e-06
0.01763
0.0001457
0.0001471
0.01859
0.06533
4.459e-05
6.793e-10
1.81e-05
0.0001532
1.679e-05
2.295e-06
0.0001552
1.486e-05
3.829e-05
0.0002682
0.0001688
0.0001085
0.08087
0.015
0.0001303
0.0001284
0.0001288
0.0001265
0.0001595
0.02261
0.0001245
3.491e-05
0.0001393
0.005121
0.01293
0.0001346
0.000127
0.00594
0.01016
0.0008322
0.0004878
0.0003862
0.01325
4.864e-05
2.588e-05
0.01858
4.96e-05
0.00017
4.447e-05
1.348e-08
4.743e-05
7.506e-07
0.0001537
0.0001473
0.0001455
2.696e-07
0.005448
2.822e-05
0.0001296
0.0001508
1.104e-07
0.0001459
0.008797
0.0008148
0.0001734
0.007167
0.005702
0.02007
0.01005
4.273e-05
0.0001518
0.0004146
0.0001369
0.0001711
0.001016
0.00227
0.01653
0.0001631
0.0001437
0.0001458
0.0001657
0.006076
0.0002295
0.0001704
0.01751
0.004966
0.0001625
3.121e-05
2.556e-05
0.04003
0.02387
0.02548
0.006789
0.0001624
1.777e-08
0.0001532
0.0001455
7.63e-07
0.0001455
0.0001449
0.0008243
0.0002616
9.679e-06
0.01566
7.391e-06
0.01191
2.716e-05
0.0001464
0.0001586
0.00515
3.393e-05
0.0213
0.0001873
0.0001585
2.213e-06
3.205e-05
0.0001483
3.502e-06
3.119e-05
2.592e-09
0.0001949
0.03963
0.0304
0.0001556
0.000149
0.0419
0.0001658
1.319e-06
0.0001517
1.249e-05
7.337e-08
0.0001456
2.208e-05
0.0001584
5.043e-05
0.0001458
9.573e-06
2.261e-07
9.231e-09
3.252e-08
0.0001673
0.0367
3.825e-08
0.0001583
0.005093
0.000144
0.01779
0.0001102
0.03627
0.00107
3.104e-08
0.000432
0.01555
0.0001496
0.0001492
0.000153
2.574e-05
0.0003265
0.04777
0.0001464
0.008182
0.000166
0.01985
0.01851
0.004239
0.007608
0.0001456
0.01959
0.01783
3.408e-05
0.0009176
0.0001297
2.502e-05
0.0002724
4.784e-07
1.253e-07
1.942e-10
1.945e-05
0.0001545
2.332e-05
0.0001491
7.485e-06
1.261e-05
0.0001456
2.895e-08
0.0001489
0.002513
1.069e-05
4.009e-06
0.01596
0.0002241
0.001647
0.0001239
0.0001302
1.566e-08
0.01912
0.0001611
0.02072
0.009123
1.471e-07
1.435e-07
2.165e-07
0.02261
2.335e-05
0.0001034
0.02022
0.0001523
4.614e-05
3.49e-06
0.0001392
0.008028
4.997e-05
0.01056
5.002e-05
0.01542
0.04493
7.915e-07
4.098e-05
5.625e-05
2.057e-07
0.0001867
1.701e-06
0.0001532
6.707e-05
0.002924
0.0001485
0.000157
7.195e-05
0.0008504
0.002662
5.218e-07
0.0001564
0.0001456
0.0001444
3.179e-05
1.247e-05
0.01257
0.03341
0.0001261
0.0001516
5.422e-06
0.0001264
0.001051
3.054e-05
0.0001548
0.003833
0.01404
2.787e-07
4.096e-07
2.041e-08
0.0001508
1.678e-05
0.006811
0.005805
0.04446
0.02927
3.797e-06
0.01799
9.933e-06
2.955e-05
4.19e-05
5.093e-05
0.0001731
1.228e-07
0.02371
4.907e-05
0.01741
0.0001582
6.102e-05
0.0003662
0.0001462
9.65e-05
0.0002542
0.006154
0.0001445
5.527e-05
3.054e-07
8.709e-09
0.02778
2.555e-07
0.0006067
0.001541
0.0001506
0.0001556
0.0001537
0.0001489
0.0001036
3.478e-07
0.001152
2.506e-05
0.07341
0.03216
7.836e-05
0.00566
0.01896
0.001196
0.02362
2.614e-06
0.004592
0.0001355
0.007087
5.015e-05
0.0001477
0.0001566
4.349e-06
0.0001463
0.002776
0.002576
3.096e-05
0.0001565
1.462e-06
0.0002333
0.07399
0.0001511
1.546e-05
0.0004538
2.797e-05
5.823e-05
0.0001433
4.576e-05
0.0001444
0.0001693
0.002708
0.05616
2.591e-08
0.00294
1.281e-05
0.03574
5.921e-06
0.0001608
0.0004721
0.01278
0.001059
0.000139
0.0001583
0.0001463
1.443e-05
0.0001368
0.000177
0.007081
0.0001433
0.0005373
2.702e-05
0.00532
0.0001548
0.002983
0.0005102
0.0001481
0.07042
0.0001597
0.0001726
0.002744
6.875e-05
0.0001569
0.0001709
0.000158
0.0002097
0.005701
0.000137
0.0001353
0.0001473
0.0001547
0.0001525
0.00118
0.0006617
0.000146
3.459e-05
0.0001944
4.185e-05
0.0001469
0.000128
0.0001528
3.877e-06
0.0002514
1.972e-08
0.03792
2.78e-06
0.0001494
0.0001599
6.426e-07
0.0001507
4.384e-05
4.936e-05
4.744e-05
0.001721
0.007258
0.000146
4.779e-05
0.001871
0.01685
0.007599
0.01732
0.0001259
0.01143
7.442e-05
4.465e-05
0.0001439
0.01758
7.451e-05
5.674e-06
0.0001523
0.0001481
0.0007882
0.0002705
0.01326
0.01625
0.0001118
5.771e-05
0.0001546
6.505e-05
0.005969
0.02454
0.01068
0.06037
0.0001355
0.0001829
2.744e-08
0.04626
0.01098
2.218e-05
0.0001686
0.0001628
0.000145
0.0001503
0.0001617
0.0001578
4.233e-07
0.003651
0.000147
0.0001478
4.826e-05
2.104e-09
0.0001469
0.01375
3.095e-05
4.212e-05
0.000171
0.005223
6.021e-05
0.007903
0.0001867
1.158e-05
2.313e-06
0.0001468
0.0001463
0.007126
0.03248
0.004385
0.0001429
0.0001709
0.002709
0.0165
0.00169
6.718e-08
3.282e-06
0.06968
0.0004918
1.962e-06
0.03293
4.385e-05
0.0138
0.0001723
0.0001689
5.059e-06
1.394e-07
0.0001443
0.002036
5.226e-05
0.0001469
3.345e-05
0.01537
0.0001692
0.0001562
0.02504
1.228e-05
0.001801
0.0001526
0.0001458
0.0001459
0.06284
0.0108
0.0001342
0.04627
0.0001492
1.269e-05
0.03573
0.016
2.819e-05
3.281e-06
0.05978
0.01564
0.0001429
5.939e-07
0.0001728
6.937e-05
1.982e-05
0.0001553
0.0001331
0.04508
0.003415
3.234e-08
0.03418
9.343e-07
0.0001385
0.000142
0.01029
0.0001522
0.000143
3.155e-08
4.534e-05
4.303e-05
7.877e-05
0.04199
0.01
0.0001352
2.509e-08
0.0001567
7.285e-05
0.0001352
0.0001532
0.01699
0.01055
0.008318
0.02565
0.02914
0.001553
0.0001362
0.008804
0.0001703
5.3e-05
1.622e-05
0.000162
0.01737
9.667e-05
0.0001471
0.002606
0.001518
0.0007369
0.000155
0.01519
8.255e-07
0.0001302
0.0001438
8.1e-05
0.0003837
0.02441
2.074e-05
0.0001478
0.0001805
0.00393
5.241e-05
0.000148
0.0001539
7.904e-06
5.244e-05
0.0001028
0.0131
0.0002035
0.0001367
2.283e-05
0.0001399
0.000532
2.737e-08
0.0001608
0.008957
0.02111
0.0005462
8.114e-06
0.001862
0.0001531
0.0001363
0.01204
0.0001594
0.0001448
0.002121
0.0001131
0.03201
0.0001364
0.000156
0.0001562
0.0001496
6.916e-05
0.006491
0.0001456
0.0001158
7.564e-05
0.002153
0.0001506
0.0001467
0.0001448
0.0001587
0.04435
0.05599
1.555e-05
2.663e-08
1.853e-07
7.453e-05
1.471e-06
2.177e-06
0.0001481
5.043e-08
0.01021
0.0001306
0.0298
0.0001566
0.0005116
0.0001827
0.0006463
5.87e-06
0.001214
0.0001585
0.01141
5.383e-05
5.003e-05
0.0002843
0.0001654
0.006779
0.0001561
4.062e-05
0.0001462
0.01109
0.0001434
0.01627
0.0001536
0.0008375
1.738e-07
3.059e-05
0.0001373
1.036e-05
0.01057
0.0001331
0.0001845
0.000146
0.0002484
0.007194
0.0003112
0.001606
0.0001067
0.0001495
0.0001711
0.03635
4.665e-07
0.0001472
0.0001535
1.882e-07
0.0001419
0.0001443
2.995e-06
0.01243
0.0001532
0.0001533
0.04835
4.123e-05
3.795e-08
1.595e-05
0.008549
0.02899
0.006436
0.0001558
0.0001451
0.0001548
5.448e-05
4.392e-05
0.00552
0.0001479
3.751e-07
4.126e-05
5.946e-05
0.01158
0.009056
0.008984
0.0001343
0.0001566
0.0008161
0.002743
0.0001512
4.215e-05
1.495e-05
0.03655
0.0001649
0.0001762
0.02346
0.0001511
0.0271
6.511e-05
0.04568
0.0001361
0.0001477
0.0002224
0.0003886
0.01155
0.0001597
0.0001493
0.0001548
0.006466
1.149e-09
0.03344
0.000165
0.0004753
0.0001416
0.0001408
7.409e-05
2.639e-06
6.642e-05
0.003733
2.101e-05
1.385e-05
0.02398
0.0001596
0.009169
2.594e-05
6.454e-07
0.0176
0.0001524
4.252e-06
0.0001687
6.241e-06
0.0001005
0.02422
0.02075
3.861e-05
0.0001459
0.007952
0.0001682
0.0001448
0.006475
4.06e-06
0.002939
5.006e-08
1.664e-05
0.002072
0.0001449
0.02823
0.003285
0.0001609
0.01734
0.01503
0.0007696
0.002497
0.0001165
0.0001465
0.005203
0.0001382
0.0001494
0.002542
0.000203
0.0001614
2.701e-05
2.863e-08
0.0001421
0.0001455
9.176e-05
7.909e-05
5.892e-06
0.0001646
0.006341
1.169e-05
0.04279
0.01978
0.000146
0.000158
4.888e-06
0.0001524
0.01243
0.0001442
9.194e-05
0.0001523
0.01638
2.096e-05
0.004463
0.0006228
7.786e-05
0.04114
0.0001504
0.0009569
0.006405
0.001715
0.0001437
0.0001494
2.13e-05
9.684e-05
9.37e-05
0.03858
0.006134
0.04906
4.04e-05
0.0001174
0.0001282
0.0001532
0.0001643
8.353e-09
1.883e-05
0.0001609
0.0001426
1.763e-05
5.024e-05
0.0006805
0.0006145
7.636e-08
0.0001768
0.02353
4.963e-05
5.542e-05
1.297e-05
2.075e-06
0.07831
0.0001997
0.04909
0.0001504
4.226e-09
0.0001474
0.02574
1.913e-05
7.585e-05
0.01985
9.01e-05
0.009841
6.422e-06
0.01857
0.0002612
0.03657
0.0001415
0.002148
8.347e-09
0.01343
6.983e-07
1.965e-07
0.0001456
6.901e-07
0.0002188
7.496e-06
0.0001071
0.02166
0.07341
0.004905
4.52e-05
0.0001333
0.000151
0.02271
0.01626
0.01382
0.01816
0.006729
0.0001583
0.000161
0.07889
5.707e-07
0.011
5.953e-05
4.526e-05
1.696e-05
0.0001348
0.0007902
0.006351
6.125e-05
0.02036
1.25e-07
0.002141
4.148e-05
0.0001552
6.317e-05
0.0001539
0.01688
0.01116
0.0001591
0.0001677
0.01237
9.592e-05
0.01194
0.003115
8.876e-05
3.593e-05
0.01195
1.213e-07
0.0001057
1.103e-06
0.0001507
0.04908
0.005405
0.02959
0.0001534
0.0001113
0.0001455
0.0001472
0.0001455
0.01013
4.24e-05
0.005389
0.03602
0.0001519
0.01293
0.0001513
1.599e-07
3.132e-06
6.324e-07
4.37e-05
0.0001546
1.184e-05
8.392e-05
0.0001585
0.0002404
0.0001464
0.02912
0.03246
0.00186
0.06191
0.0001422
0.000143
0.004992
0.02499
0.000152
2.149e-08
4.037e-05
0.0001398
0.0001459
4.831e-05
0.0001517
2.281e-05
4.093e-07
0.0001562
0.0001741
0.001544
0.000185
0.001457
3.25e-08
0.0001904
0.0001625
5.605e-05
3.229e-05
0.0001543
0.002247
0.0001483
0.0001662
1.225e-05
0.004876
2.838e-08
0.0001514
8.715e-05
0.001208
2.162e-05
0.0001462
0.01144
0.0001457
0.03107
0.06171
0.000134
0.02283
4.373e-05
0.0002217
0.0001614
6.975e-06
6.761e-05
0.0004744
1.323e-05
1.204e-05
0.007563
0.03718
4.963e-05
0.002632
0.01663
3.488e-05
0.0001388
7.385e-07
1.304e-07
5.292e-06
5.683e-05
0.0001582
5.19e-06
2.731e-05
0.0001618
0.0002892
5.444e-06
0.005236
0.0001615
0.0001347
0.0001886
2.804e-05
0.0001163
0.05397
0.0001008
0.05755
0.0001419
5.149e-05
5.798e-05
0.0001858
2.118e-05
9.357e-10
0.0005644
0.00903
0.0001208
0.01165
0.004724
2.039e-05
0.009415
0.02862
0.0257
3.742e-06
0.01298
0.0001604
0.0109
1.66e-05
0.0001526
0.03097
0.0001531
0.04462
4.99e-07
0.001349
0.0001476
0.0001326
0.03519
1.414e-07
0.001199
0.0001434
0.0001575
1.286e-05
0.0001525
0.01084
1.205e-05
0.0005145
0.02651
0.000145
0.0001628
0.02076
0.01549
0.0001626
2.305e-05
0.0001384
1.754e-05
0.01389
0.001758
0.00865
0.009945
0.009161
2.703e-05
0.0001494
0.000153
4.99e-05
0.000146
1.848e-08
0.0001508
0.000134
0.007236
0.000146
0.0001868
0.02137
4.844e-08