/*--------------------------------*- C++ -*----------------------------------*\
  =========                 |
  \\      /  F ield         | OpenFOAM: The Open Source CFD Toolbox
   \\    /   O peration     | Website:  https://openfoam.org
    \\  /    A nd           | Version:  8
     \\/     M anipulation  |
\*---------------------------------------------------------------------------*/
FoamFile
{
    version     2.0;
    format      ascii;
    class       volScalarField;
    location    "5";
    object      nut;
}
// * * * * * * * * * * * * * * * * * * * * * * * * * * * * * * * * * * * * * //

dimensions      [0 2 -1 0 0 0 0];

internalField   nonuniform List<scalar> 
127143
(
6.424e-21
1.117e-20
2.009e-19
2.433e-18
5.814e-18
2.548e-18
7.551e-16
6.399e-17
1.968e-17
1.518e-15
1.155e-15
8.869e-17
1.01e-18
4.997e-18
4.081e-07
5.875e-14
5.899e-18
0.005316
0.003639
1.36e-12
0.000692
2.503e-11
7.077e-05
1.152e-07
2.087e-11
1.142e-09
1.586e-10
1.831e-10
2.676e-10
0.005193
5.522e-08
1.091e-09
2.183e-11
7.85e-08
5.041e-05
1.963e-11
0.0002027
0.001228
1.889e-07
8.358e-10
0.003654
5.016e-06
5.353e-06
5.339e-17
0.005312
9.202e-08
2.702e-10
0.0009302
1.006e-07
1.49e-07
2.136e-13
0.0004579
0.0004788
2.988e-05
0.006673
3.149e-08
0.006672
0.0001043
0.004849
2.718e-05
4.121e-06
0.002517
7.173e-07
0.006702
1.747e-06
2.355e-05
5.229e-05
5.903e-07
5.93e-07
0.002523
8.001e-08
4.963e-10
0.002615
0.004222
0.006694
5.423e-10
0.0006771
0.0003062
3.172e-08
0.006705
2.575e-10
1.536e-12
1.41e-06
2.664e-09
0.00178
0.0004271
2.772e-07
2.183e-10
2.44e-05
1.751e-07
0.006653
0.001126
5.58e-07
0.0007037
0.0001135
0.0001003
5.568e-06
2.005e-08
0.0006608
4.421e-05
0.006705
1.144e-07
1.705e-08
3.451e-05
0.0004688
0.0006183
5.534e-07
0.002524
9.581e-06
0.00668
6.493e-07
1.642e-10
0.0003389
7.571e-07
0.006123
0.0001172
0.0005048
0.006694
0.0007222
5.955e-13
0.006681
1.903e-06
3.932e-06
0.0001199
3.023e-10
2.263e-10
0.001745
0.0007799
0.00013
2.506e-08
0.0001175
8.051e-05
1.612e-06
0.0003214
1.707e-15
0.0001289
0.000144
0.001026
1.067e-09
0.0001149
5.48e-05
0.0008711
0.000832
0.001365
0.0004881
2.538e-06
3.085e-10
0.006702
7.023e-05
6.918e-09
1.341e-05
1.432e-07
0.001127
2.889e-05
2.7e-06
0.001824
8.259e-05
1.987e-08
0.0009634
9.405e-09
1.253e-07
8.951e-14
0.00665
0.0001196
2.191e-09
3.379e-06
0.0001211
8.805e-06
1.236e-08
0.0001794
1.849e-06
0.001366
7.522e-05
8.797e-06
0.002278
0.0004644
4.416e-06
0.0001318
1.392e-07
0.001937
8.849e-06
0.0007816
0.0005246
0.0004784
2.642e-08
0.002587
1.366e-05
8.232e-07
1.243e-07
0.0006949
0.0003991
0.0001302
0.0001575
6.899e-07
4.827e-16
0.00172
0.00666
0.00664
2.169e-14
0.002457
0.006657
0.0001907
0.001461
0.0002492
5.952e-17
4.296e-07
0.0001308
7.319e-06
0.00457
0.00631
0.0003961
0.001381
0.006693
1.458e-08
3.507e-05
7.837e-15
7.064e-08
7.163e-06
0.0002013
0.0001286
3.58e-06
0.006694
1.304e-07
0.000488
7.645e-09
1.098e-06
6.701e-09
0.001079
8.963e-06
0.001168
0.0006176
0.0009333
0.002756
9.869e-12
0.0006317
0.0001097
0.0001192
1.465e-18
0.005138
0.0005221
0.0001457
5.419e-06
0.0006945
2.03e-08
0.0005809
8.876e-13
3.028e-07
2.132e-10
4.576e-13
0.002563
7.21e-06
1.655e-09
5.561e-06
0.000991
6.868e-08
8.217e-06
0.0009377
2.395e-08
3.517e-05
1.533e-05
0.001687
0.001063
0.0009114
0.0008437
0.0003822
3.742e-06
7.165e-06
2.402e-06
5.331e-06
0.0002991
5.346e-09
0.002275
0.001304
0.0005084
1.362e-06
0.0004216
0.0003513
1.726e-07
0.002291
2.953e-05
0.003215
9.467e-05
3.527e-05
0.006691
0.006695
4.644e-16
0.0001035
0.006176
1.498e-07
0.002059
0.0009048
5.055e-05
0.0001112
4.881e-05
0.0067
8.19e-06
5.227e-08
0.0001015
0.0006914
0.0002782
1.637e-08
3.62e-05
1.445e-05
0.0001355
5.175e-09
4.264e-06
7.385e-06
0.006694
0.002954
4.673e-06
4.637e-07
6.569e-06
1.975e-08
0.003624
0.006694
2.136e-07
0.001197
1.632e-08
0.0001604
0.002686
8.868e-05
8.021e-08
0.0003132
5.521e-06
1.893e-07
0.0008067
0.0001067
0.0001016
9.044e-08
3.151e-06
0.001806
0.005901
5.544e-05
0.00666
0.00664
3.178e-05
9.86e-06
7.554e-05
0.001802
7.386e-05
0.0001306
7.144e-06
0.0005534
0.0004462
1.096e-06
1.488e-07
9.003e-06
0.0002365
1.954e-08
8.819e-05
2.99e-08
0.003749
0.0003826
0.0004301
0.000127
1.209e-05
0.000974
2.744e-06
0.006204
8.973e-08
0.001733
8.842e-07
0.003611
2.05e-07
1.7e-07
0.006697
0.002787
0.002488
1.87e-06
0.00228
2.521e-06
0.0002889
4.772e-09
1.347e-07
0.0008425
7.2e-05
6.49e-08
4.59e-11
0.0008105
0.00231
0.002528
4.124e-10
3.67e-08
2.961e-05
0.0005594
7.516e-12
4.023e-05
1.187e-09
0.001632
0.001812
0.005999
1.381e-05
4.429e-06
7.781e-08
1.387e-07
4.892e-08
1.415e-05
7.517e-08
0.0001237
0.0008031
2.151e-09
0.006695
0.0007324
0.0005594
3.897e-05
7.467e-06
0.0005595
1.807e-06
0.006705
1.554e-07
1.128e-05
1.781e-08
4.888e-05
0.001107
6.431e-06
0.0001211
0.0004291
4.444e-09
0.0005978
3.231e-07
0.0001344
2.621e-09
2.221e-05
0.002875
0.001116
1.254e-05
5.216e-06
4.022e-05
8.404e-06
0.0001014
0.006678
2.173e-05
0.000318
0.00135
0.0001609
0.006697
5.841e-06
1.437e-05
0.0004818
0.0067
0.006691
2.073e-07
0.0001112
9.116e-06
0.0002992
2.235e-08
0.005282
1.085e-06
0.002529
0.001386
0.0007047
5.142e-08
9.486e-06
1.223e-06
3.566e-05
0.0003251
1.291e-08
1.176e-05
0.0003958
0.0007322
2.2e-06
0.0002761
0.002165
8.24e-07
0.00026
0.002352
0.001221
0.0006899
4.483e-06
0.006668
0.0009409
0.000598
0.0001059
0.001197
0.0001462
0.006645
2.168e-06
0.0004779
3.21e-06
0.0005853
3.116e-10
1.449e-06
2.568e-05
2.029e-08
9.081e-06
0.0001636
0.0006211
0.006695
1.911e-08
0.0008198
5.939e-07
3.173e-07
0.0004011
2.065e-06
1.837e-15
8.882e-05
1.223e-06
0.000101
1.543e-06
0.006689
2.609e-10
0.001228
0.0004753
0.001802
6.239e-18
3.16e-14
1.197e-13
0.006697
1.272e-05
4.294e-05
0.006693
0.001975
2.105e-06
0.0001303
3.025e-05
0.0006657
5.071e-08
0.0009548
4.838e-09
0.002417
0.001157
2.499e-12
1.921e-07
1.971e-08
3.091e-06
0.005036
1.518e-05
0.001279
0.002198
0.006625
1.314e-08
2.181e-09
3.789e-06
0.006643
0.0006826
0.0001302
6.184e-07
8.847e-06
3.764e-09
0.00259
0.0008253
1.675e-05
1.698e-05
0.006669
3.801e-05
0.0007908
6.828e-08
2.117e-07
3.828e-06
6.524e-07
0.00169
0.0002864
5.686e-07
0.0001624
2.399e-05
0.002802
2.074e-09
0.0001758
1.249e-08
1.271e-06
0.0007774
0.006702
0.006701
1.649e-05
8.323e-06
1.349e-06
0.006502
0.004828
1.347e-05
5.58e-08
0.0005514
1.177e-05
3.582e-07
4.396e-09
5.995e-05
0.0009759
0.006682
2.875e-06
0.000711
1.669e-06
0.004953
6.9e-10
2.097e-06
4.526e-05
0.002306
4.004e-09
0.005985
0.0006212
0.0006822
0.002343
0.005057
6.993e-06
0.001693
4.654e-12
0.006645
6.17e-07
8.225e-08
0.006691
7.504e-06
0.004449
2.926e-07
0.000819
0.006691
2.827e-06
6.179e-08
1.488e-05
0.0001832
0.0009049
3.154e-08
3.808e-08
1.409e-06
2.346e-07
8.783e-07
2.325e-07
0.0002844
0.0003804
9.332e-09
0.005553
3.006e-08
0.006692
1.205e-06
0.000685
0.0008563
0.006677
0.004632
8.676e-05
3.333e-07
0.0004071
0.006476
0.006677
1.215e-05
1.423e-09
3.501e-06
2.505e-08
0.002407
9.927e-06
0.0007167
1.075e-05
0.0004597
9.841e-06
9.244e-07
0.006475
2.784e-05
0.0005151
0.0001193
0.0006771
0.006632
0.004829
0.0008324
2.05e-09
0.0006272
1.502e-09
0.0006344
0.003748
7.85e-05
2.858e-05
0.0001849
2.855e-06
0.0001023
0.0007125
3.053e-06
3.521e-05
0.0005347
2.364e-05
1.419e-16
1.571e-06
0.0004147
0.0003197
0.0001074
8.598e-05
6.08e-09
1.975e-05
0.0004128
0.0001635
0.0001077
0.0007684
0.006679
1.866e-07
1.915e-05
4.667e-06
0.006643
0.006678
3.297e-10
9.711e-05
4.666e-08
0.0001337
2.18e-06
0.002942
2.007e-05
1.354e-08
1.011e-05
8.066e-08
0.006694
0.006668
6.995e-06
1.363e-05
2.872e-06
5.09e-06
5.849e-09
0.002366
1.147e-07
0.0003319
0.002904
0.003963
2.947e-08
0.0001601
5.916e-08
1.514e-15
2.411e-06
0.0004232
0.0008753
0.004859
8.212e-07
1.756e-07
1.135e-09
0.004314
0.001798
0.0004629
1.019e-08
0.0004147
2.986e-07
0.003217
1.093e-07
6.01e-07
4.735e-06
0.001799
6.405e-05
2.582e-20
2.29e-05
0.0001654
5.895e-07
2.788e-06
3.145e-07
0.006688
0.0003136
0.003771
0.0005667
0.003571
1.157e-09
2.606e-05
4.176e-09
0.003538
1.514e-05
0.0002518
2e-05
7.947e-05
0.003991
0.0008619
6.363e-06
2.491e-06
0.0009287
0.002182
0.0005522
1.157e-06
0.002818
7.146e-06
6.745e-05
9.872e-05
9.099e-05
3.858e-05
2.393e-06
1.048e-09
1.173e-05
0.006614
0.0008502
0.002499
1.503e-09
1.992e-08
2.938e-05
0.002032
8.143e-07
0.006626
0.0001439
3.18e-06
0.0006182
2.722e-11
0.0006136
4.285e-06
0.0004453
0.0008339
8.08e-05
0.006697
3.365e-17
0.0001321
0.0002102
4.009e-07
0.0005482
2.101e-05
4.861e-05
1.056e-07
0.006682
0.003909
3.44e-05
0.003818
2.635e-05
6.011e-07
5.273e-07
3.763e-06
0.00666
0.0007741
0.000403
0.006694
0.006657
0.0007034
0.002465
0.002403
2.711e-05
0.0006382
2.797e-13
1.953e-05
8.52e-06
0.006679
0.0003688
0.0001591
6.503e-08
9.107e-09
8.615e-06
0.00348
0.005194
0.001108
3.468e-10
0.00668
0.0001675
7.988e-09
8.865e-07
8.284e-10
0.005772
0.0009573
7.627e-07
0.006693
2.006e-08
0.00668
1.868e-06
3.046e-09
4.494e-05
0.000524
2.62e-10
0.006679
3.411e-06
2.026e-05
1.445e-08
4.286e-05
6.773e-09
7.417e-09
2.99e-05
7.763e-05
1.275e-05
7.826e-13
0.006693
0.001321
4.31e-08
1.283e-07
9.96e-05
3.931e-11
0.003547
0.0004202
2.779e-06
7.454e-10
1.07e-10
1.159e-05
1.699e-14
1.646e-06
8.034e-14
8.123e-05
5.96e-07
0.003928
2.232e-11
0.0006958
3.67e-07
0.004913
0.005131
0.0007611
0.0003672
0.0002095
0.002856
7.567e-07
0.0001184
0.0003204
1.3e-07
5.331e-07
0.005227
0.003825
0.0002082
0.0003733
2.239e-06
9.763e-12
0.0006171
9.979e-06
5.865e-07
0.001625
1.163e-05
0.006689
0.0004083
6.031e-08
0.006253
3.704e-06
0.0001756
0.002663
0.006665
0.002641
0.003557
3.917e-14
1.971e-05
8.812e-12
0.000975
1.021e-05
8e-07
3.423e-08
1.667e-05
0.005623
1.589e-09
9.911e-06
0.005412
1.003e-05
1.185e-11
0.002384
1.27e-06
1.194e-05
7.071e-05
7.569e-09
4.841e-14
9.431e-08
0.0007436
0.006694
8.958e-06
8.735e-06
7.246e-05
4.107e-06
6.551e-07
2.567e-09
4.959e-05
3.93e-05
2.41e-09
0.0001079
9.139e-09
0.006689
0.0008651
4.501e-06
0.001004
2.42e-05
0.0007053
0.006692
0.002136
7.863e-07
4.354e-05
5.2e-05
7.643e-08
6.483e-06
0.001568
0.0006286
5.218e-05
3.641e-05
1.365e-12
0.0005911
3.679e-08
2.056e-06
8.576e-06
0.001656
6.673e-07
2.579e-05
1.145e-06
9.795e-11
0.0006605
0.006688
0.006685
0.001058
0.0005569
0.0001131
0.006702
8.536e-06
0.0007047
7.531e-05
8.977e-06
0.0008647
6.414e-06
2.816e-06
0.006705
8.019e-05
5.73e-05
1.844e-10
5.275e-09
0.0002589
1.15e-05
0.001537
2.647e-06
1.285e-07
2.42e-06
0.002609
5.807e-06
2.817e-07
0.0001215
1.694e-09
0.00633
1.389e-09
2.853e-08
0.00256
0.0002167
3.878e-07
0.003749
1.178e-10
1.451e-12
0.006294
0.00669
0.0003449
0.0004864
4.229e-12
9.483e-05
3.875e-07
9.382e-08
3.7e-06
9.05e-05
0.0001308
0.006479
2.491e-06
0.001499
1.19e-05
8.021e-05
3.05e-07
0.0003227
0.00541
2.508e-12
0.0001317
0.006691
2.903e-05
0.005689
0.006687
4.196e-06
8.248e-05
1.13e-10
0.006687
2.226e-08
0.006694
5.003e-07
9.602e-05
0.003971
2.005e-05
2.984e-08
5.838e-08
2.21e-06
1.439e-06
0.003591
0.0006803
0.001011
1.711e-07
2.093e-05
4.908e-06
1.388e-10
2.115e-06
4.145e-11
0.0001552
6.981e-08
1.51e-06
7.602e-08
9.248e-10
5.765e-06
0.003926
0.003921
9.925e-06
0.0001841
5.546e-09
0.002789
2.671e-07
0.001338
5.177e-07
7.501e-07
0.0003657
0.000213
8.263e-07
0.002222
5.183e-07
6.139e-05
1.98e-08
4.026e-05
0.006538
3.334e-06
9.417e-06
0.006694
2.978e-05
3.933e-06
0.006682
6.276e-05
6.732e-05
0.0003537
5.769e-06
0.00162
0.0001667
0.0001127
0.006676
2.999e-05
1.715e-05
0.006705
7.709e-06
0.0001291
0.0007151
1.463e-05
1.631e-05
0.0003377
3.256e-06
1.546e-10
3.072e-08
9.585e-08
0.001341
2.114e-11
0.002629
2.244e-07
0.006693
0.0003121
6.349e-06
6.158e-05
7.442e-07
4.023e-06
1.099e-08
0.006698
6.074e-13
3.513e-07
6.916e-07
9.157e-07
2.675e-08
0.002148
0.004263
4.204e-09
6.69e-07
6.3e-05
5.764e-16
0.0003704
1.495e-07
1.186e-08
1.775e-07
1.899e-06
0.0002165
4.351e-08
5.173e-07
8.266e-05
0.000516
5.209e-08
9.049e-08
0.002574
1.336e-11
9.743e-05
4.229e-07
0.0001269
2.411e-08
0.006654
0.00669
0.001053
1.011e-11
0.0007647
0.002034
7.544e-11
1.79e-06
0.006693
1.399e-09
3.867e-07
0.0005894
7.759e-11
3.21e-05
0.0001485
1.139e-15
0.003805
7.901e-09
0.001446
5.742e-07
4.099e-08
7.553e-08
8.559e-09
1.034e-05
2.254e-05
0.0001136
0.003465
0.000292
4.833e-05
2.395e-05
4.819e-07
0.002213
1.251e-08
0.00115
9.551e-05
0.001701
4.699e-06
2.26e-05
1.084e-05
1.329e-11
5.263e-05
1.437e-09
1.301e-07
8.312e-05
0.0001724
0.006694
0.001872
0.0003097
3.455e-05
7.006e-08
1.273e-08
5.594e-09
0.006681
5.375e-08
2.26e-06
0.0003693
3.376e-12
0.0002329
0.003517
4.124e-06
0.002059
2.802e-06
0.000109
1.692e-10
6.719e-05
0.0006047
0.001128
0.006696
4.396e-13
5.155e-12
0.0003209
8.427e-05
2.92e-05
0.00649
0.006653
2.391e-05
0.001099
0.003266
5.723e-05
0.003083
0.002981
1.738e-06
0.0003497
0.002754
1.829e-05
1.198e-07
2.066e-12
3.542e-05
5.183e-09
0.0001125
1.56e-05
0.006655
5.79e-08
0.001457
1.323e-06
1.043e-12
0.0006684
0.002499
7.591e-05
8.941e-07
0.0005625
6.768e-13
0.002962
0.0002333
0.001996
0.002397
3.258e-05
1.294e-07
3.794e-13
4.313e-05
6.767e-06
0.006675
1.23e-07
8.853e-08
0.006669
8.465e-08
2.382e-06
0.0001676
4.805e-08
0.006683
2.5e-05
1.46e-14
0.003749
2.009e-07
2.361e-06
5.045e-07
1.546e-09
6.723e-05
3.473e-05
9.48e-06
1.937e-09
0.0001365
4.733e-05
1.809e-05
7.872e-07
1.675e-08
3.817e-09
1.544e-05
0.0001387
0.006691
5.519e-05
0.003516
1.428e-08
1.245e-06
0.002477
0.0001251
0.006675
8.126e-05
1.936e-05
0.006609
0.002384
0.006179
7.879e-09
0.002356
1.761e-11
4.361e-05
0.0005488
2.386e-07
0.0003952
2.638e-07
7.079e-08
4.096e-14
0.0001215
3.138e-05
0.0007109
0.0006073
0.00134
0.006702
0.000263
0.001085
0.001512
0.006699
0.001956
0.006685
2.102e-05
0.0001132
0.006681
0.006687
6.574e-05
6.448e-05
6.616e-07
7.894e-05
0.006696
1.174e-05
0.0003507
6.098e-05
6.824e-14
2.544e-08
1.818e-11
1.923e-07
1.61e-06
8.072e-08
1.954e-07
0.0004726
0.0006122
5.391e-10
0.0009574
3.771e-07
6.955e-06
0.0002927
0.0003758
0.003522
0.006687
3.997e-14
0.0002072
1.292e-09
0.006693
1.37e-12
4.018e-07
6.879e-08
0.0001088
0.006638
0.006638
0.001945
0.002361
0.002116
0.002095
7.599e-07
6.656e-05
4.902e-06
0.002685
4.464e-05
3.967e-09
1.878e-06
9.641e-05
0.0005432
3.184e-05
1.789e-06
1.341e-06
7.398e-07
7.384e-08
0.0009501
0.002154
0.0002046
0.0001193
4.283e-11
0.0005747
0.0003638
1.249e-06
0.002322
2.688e-07
0.0003472
5.828e-07
0.004034
0.006692
0.0007147
5.431e-06
8.136e-13
1.227e-09
0.0001242
0.0001354
3.982e-07
7.284e-05
0.006618
2.062e-07
6.403e-06
7.948e-14
4.447e-05
1.429e-11
0.0001456
0.006688
4.684e-05
3.037e-06
0.001987
1.333e-05
0.00115
8.871e-06
1.021e-06
0.0001809
0.0008055
1.746e-08
0.0001364
5.374e-07
5.12e-07
2.596e-08
0.003273
0.003271
6.657e-08
7.184e-06
8.732e-14
1.729e-06
1.46e-08
1.586e-08
4.327e-14
0.00256
1.747e-05
0.0003233
0.003091
0.006686
0.001115
0.00628
2.291e-12
0.006692
6.98e-10
4.344e-05
7.507e-06
9.202e-06
3.937e-08
0.002533
6.758e-10
0.0001598
6.177e-07
0.0008111
3.229e-09
0.006687
7.168e-05
1.856e-06
0.0009834
2.292e-07
3.192e-06
0.0004908
1.906e-07
1.119e-07
0.0001842
0.006662
1.136e-08
0.002533
0.006667
6.271e-05
6.14e-08
0.006662
1.762e-09
0.006695
0.0005739
0.0004302
0.001333
6.655e-07
0.006659
0.0007785
2.794e-06
0.0002056
2.846e-05
9.749e-06
3.805e-05
0.006694
0.006681
0.0003806
2.012e-13
6.421e-06
4.804e-07
0.0006954
2.731e-10
8.835e-05
4.919e-05
0.002921
2.128e-05
3.363e-05
4.639e-08
0.0005106
3.892e-07
0.0009961
0.0003902
0.006703
4.498e-06
7.931e-07
0.000606
7.514e-07
1.286e-08
2.812e-05
0.006679
0.0005833
2.337e-09
6.069e-06
1.964e-12
6.26e-09
0.002937
0.0003556
1.565e-05
2.711e-10
0.0005437
1e-07
8.743e-09
0.002819
3.829e-05
0.006691
0.0001077
1.971e-07
0.0002421
0.006693
1.577e-05
0.006693
0.0001151
3.307e-05
0.006695
0.003226
6.017e-05
9.943e-06
0.001152
0.002336
9.039e-08
0.006696
7.169e-08
2.074e-09
5.259e-05
0.003526
2.015e-07
0.000877
0.0004218
0.0004056
1.741e-08
3.149e-06
0.0003367
2.133e-08
0.0002209
6.292e-05
4.045e-09
0.0001189
2.851e-05
1.947e-06
0.0002192
1.063e-07
0.0006069
1.026e-05
5.662e-07
0.0002969
0.002296
3.908e-07
0.003572
0.0003624
7.656e-05
1.819e-12
0.000187
2.973e-11
0.00016
0.006664
3.037e-11
3.094e-07
0.0001057
7.014e-08
0.0004648
0.0008275
0.006705
0.00201
1.595e-10
0.00131
7.957e-06
9.943e-07
2.733e-07
0.006695
8.098e-07
7.692e-06
1.145e-05
1.164e-07
0.0004604
4.898e-07
2.276e-09
0.006689
0.0002173
0.000311
0.002721
0.0003512
4.423e-05
4.929e-05
6.382e-06
0.0001564
0.001159
0.003155
0.0001939
0.0002107
0.006541
2.74e-05
4.604e-08
5.772e-11
0.0067
1.244e-05
1.09e-10
0.002872
3.011e-06
0.00217
2.505e-07
5.557e-11
0.002954
0.002456
0.0002035
0.0008049
1.291e-06
5.856e-06
0.0008838
9.201e-10
4.45e-05
0.0004764
4.015e-05
5.045e-15
1.663e-14
0.000258
0.0001727
3.881e-05
8.972e-05
0.001187
9.601e-06
0.0008292
4.723e-07
3.324e-05
6.666e-05
5.609e-07
4.544e-10
0.000566
0.0001076
0.00591
2.707e-07
9.912e-05
0.0002935
1.564e-05
6.163e-05
3.225e-07
0.0002563
0.003648
0.006677
4.766e-08
6.471e-09
0.0007899
1.791e-05
0.001039
1.314e-12
1.018e-07
0.0001662
2.023e-05
1.285e-08
0.0006233
3.91e-07
4.739e-13
0.006615
9.263e-10
3.706e-07
2.335e-07
0.004909
0.0007831
0.001772
1.89e-08
1.705e-05
0.001669
6.516e-09
0.004966
5.744e-06
1.666e-07
0.0001407
0.00197
0.004909
5.586e-08
3.946e-09
3.162e-07
9.403e-09
7.258e-10
0.00073
1.745e-11
0.002544
3.985e-07
2.192e-05
0.002586
9.149e-05
0.00412
2.14e-06
0.001056
3.917e-07
0.003148
6.112e-07
5.406e-14
6.766e-12
0.0001776
0.00104
3.789e-05
1.32e-05
0.001683
0.0001867
0.0001697
9.22e-05
0.006697
5.96e-07
3.481e-07
1.241e-07
5.963e-05
1.269e-05
2.582e-07
0.001192
1.113e-07
4.308e-11
7.137e-10
0.0001158
5.152e-07
9.196e-14
0.002052
1.967e-07
0.00393
7.898e-06
7.461e-06
4.016e-16
1.22e-05
7.616e-06
0.00356
0.0001576
4.307e-08
0.0001243
0.005734
0.006698
0.001378
6.829e-09
0.001559
4.417e-07
1.09e-11
1.657e-06
0.001782
9.56e-09
0.002456
0.0001018
8.133e-10
0.0002397
0.003915
0.0004934
8.894e-05
0.0001471
0.0001335
0.006696
4.134e-06
0.00312
7.771e-09
0.003828
1.367e-07
1.567e-08
6.675e-05
9.394e-09
0.001126
4.959e-07
3.241e-07
3.545e-07
1.958e-05
0.001735
0.0002131
0.0004802
3.281e-06
8.943e-05
1.227e-08
2.487e-06
0.006155
8.215e-05
0.003943
1.425e-08
1.005e-06
0.002289
0.001888
5.278e-05
3.308e-08
0.00346
8.564e-05
0.0008244
0.0002573
0.002154
0.00102
0.0003968
5.103e-11
0.0001315
0.0003007
5.167e-07
0.006672
0.001083
6.414e-05
0.0001684
0.001858
0.006687
0.0001176
2.099e-07
6.084e-07
0.006693
0.0008266
0.002379
4.694e-06
1.672e-05
0.001217
0.0006448
0.0003449
1.577e-08
5.088e-08
0.002973
6.469e-06
0.000779
0.0001016
4.093e-07
2.947e-12
0.002547
9.582e-09
7.888e-08
0.002218
2.013e-12
0.005785
0.006662
1.431e-05
5.525e-05
6.526e-14
0.006693
0.00215
6.151e-07
2.354e-13
2.428e-06
2.772e-08
0.006298
0.0064
7.323e-08
0.0001041
0.0003746
2.363e-06
5.274e-05
0.002269
0.0001071
0.006705
1.07e-08
2.913e-07
6.171e-07
0.0005542
7.121e-10
0.001297
2.681e-05
0.006676
1.044e-05
2.899e-07
1.226e-08
6.255e-08
0.000109
6.407e-10
7.369e-06
0.0003291
4.31e-07
9.917e-06
8.409e-05
0.0001156
5.006e-07
7.352e-09
0.004813
0.005124
5.234e-06
5.66e-05
1.181e-10
9.824e-06
6.62e-08
8.143e-05
0.002543
0.006694
8.485e-06
0.006702
0.0004829
8.424e-12
2.917e-06
9.831e-05
1.32e-06
0.0001306
3.898e-10
1.273e-07
0.002974
7.909e-06
1.142e-05
4.833e-07
0.0007431
2.13e-06
7.031e-05
0.0002461
0.0003983
0.0002901
5.708e-06
0.001631
7.462e-09
4.506e-07
0.00019
0.0001177
2.66e-09
0.0001273
6.73e-06
1.444e-06
1.035e-06
8.486e-06
6.149e-06
1.689e-11
0.0001485
5.135e-05
0.00126
0.001392
0.006703
2.706e-07
0.002909
1.807e-11
1.311e-05
4.367e-05
1.113e-07
3.11e-13
7.357e-09
0.0004779
8.254e-07
1.939e-08
8.269e-09
0.002272
0.0006932
2.103e-06
3.683e-12
5.594e-05
0.0002545
6.878e-05
8.504e-05
0.006261
0.00106
5.959e-09
2.98e-05
3.416e-06
0.002149
5.675e-05
4.024e-08
0.006654
0.0009649
0.0001495
0.001525
1.805e-08
7.838e-05
5.14e-05
0.003041
4.946e-05
3.965e-07
3.257e-06
4.418e-11
5.723e-07
1.661e-06
0.006677
0.0003199
1.18e-05
2.254e-08
4.33e-08
1.823e-06
0.003342
0.0002218
0.005676
1.056e-07
6.644e-08
9.27e-06
7.137e-06
0.0006768
5.353e-08
1.995e-08
1.241e-07
3.965e-06
7.04e-05
1.576e-06
9.535e-09
0.003946
6.994e-05
2.618e-11
0.002705
0.001253
0.004329
0.006699
2.536e-06
0.002368
1.112e-06
1.643e-06
0.001381
0.001018
2.063e-08
5.82e-08
5.818e-05
2.129e-07
5.372e-05
0.001585
7.636e-13
0.0004296
8.659e-05
0.002686
5.052e-12
0.001678
3.317e-09
6.61e-11
0.003561
3.716e-07
2.443e-08
3.873e-05
0.001297
5.914e-08
7.405e-07
1.4e-07
0.000664
0.0003704
0.0001738
0.003786
0.006701
5.653e-05
0.001347
1.957e-05
5.526e-05
0.0004429
1.268e-11
0.001265
0.004248
1.393e-05
0.0002873
0.002719
1.199e-06
0.0003041
1.103e-06
2.549e-08
6.961e-09
3.07e-11
1.338e-05
1.703e-07
5.499e-06
0.0001002
1.895e-05
2.182e-05
2.949e-12
2.04e-05
5.752e-07
9.854e-06
0.00668
5.292e-05
8.831e-06
0.001184
4.153e-05
2.571e-11
9.088e-07
3.253e-07
0.001046
0.0002921
9.947e-09
0.006691
1.565e-07
0.002376
9.981e-05
4.854e-06
4.91e-08
0.006296
2.498e-05
0.001304
1.387e-05
1.29e-10
2.305e-05
0.0001769
2.131e-13
0.0003552
1.862e-07
0.006678
0.006652
1.981e-07
0.0007236
2.948e-05
1.605e-06
4.327e-07
0.006686
3.763e-08
1.115e-08
0.0005576
0.006699
0.003527
0.0004435
0.0007415
1.909e-07
3.461e-15
3.791e-08
0.005529
4.217e-08
1.208e-10
9.173e-05
3.362e-08
1.175e-07
0.002735
0.000142
1.192e-07
0.002663
0.0005127
0.006635
0.006594
0.006617
0.006309
0.0001357
0.0008774
6.123e-06
7.369e-08
1.969e-05
3.451e-05
0.0004966
2.565e-07
0.006122
0.0001052
0.0003123
4.622e-07
1.18e-06
1.693e-07
0.0001403
8.224e-07
1.003e-07
0.0006463
3.247e-07
0.0001589
5.085e-07
1.225e-13
2.704e-07
3.646e-10
4.044e-06
1.476e-06
0.006694
4.469e-12
0.0001106
1e-07
1.951e-05
0.0001317
5.78e-12
0.006694
0.0002068
2.583e-06
0.004349
0.0001024
0.0001008
0.001164
0.0001478
1.164e-08
6.526e-05
1.022e-06
0.006624
8.539e-06
8.557e-06
1.409e-05
0.001182
3.544e-06
0.006681
0.004207
3.955e-05
1.754e-05
3.698e-07
0.0001062
0.0009792
6.537e-05
5.807e-05
1.677e-08
9.695e-08
0.002536
0.002447
0.0009015
0.0001707
0.0001187
6.064e-13
4.126e-06
0.006692
1.601e-10
0.006697
0.006686
0.0001573
0.002542
2.822e-09
0.001139
1.009e-08
0.0005714
8.67e-08
0.006695
9.954e-05
2.633e-05
2.016e-07
0.001782
0.003605
6.813e-05
1.289e-10
1.819e-08
0.006702
1.036e-09
1.429e-08
2.728e-14
0.002912
0.002743
0.001647
9.534e-05
0.0005325
0.002946
9.316e-07
9.55e-11
1.009e-05
2.973e-08
1.152e-13
0.006694
7.272e-08
2.022e-07
4.57e-07
0.006693
1.859e-08
9.783e-12
2.384e-13
1.655e-12
0.0001271
0.0005503
1.875e-12
0.0002366
8.716e-05
0.006687
0.001051
3.288e-07
0.003323
4.49e-06
1.63e-12
0.0001897
0.0002435
2.666e-06
0.006706
0.004612
7.625e-08
6.277e-07
0.003567
3.65e-08
0.0001288
0.0001413
0.001771
0.0006408
2.352e-05
0.0001961
0.006694
0.0004532
0.0004253
1.995e-07
3.462e-06
1.136e-06
7.806e-08
1.376e-06
1.908e-11
4.354e-12
5.445e-16
5.509e-08
0.000162
3.231e-08
0.000334
1.301e-08
1.228e-08
0.006693
1.51e-13
0.006705
2.014e-05
2.162e-09
3.231e-09
0.0001515
1.698e-06
5.964e-06
5.735e-07
0.006632
9.563e-14
0.0001695
0.002903
0.001896
0.000134
4.656e-12
2.354e-11
3.772e-12
0.001778
6.658e-08
5.506e-08
0.001082
2.547e-05
6.102e-07
1.041e-09
0.006668
0.000228
9.015e-07
0.0001043
1.076e-06
0.0005658
0.003269
4.194e-10
3.854e-07
4.574e-07
3.488e-11
0.00284
1.221e-09
4.063e-05
1.47e-06
2.195e-05
0.006458
6.41e-05
1.833e-06
2.788e-06
1.745e-05
2.166e-11
0.00292
0.004472
2.965e-05
1.652e-07
1.011e-08
0.0005452
0.003332
0.006454
0.0002279
7.598e-09
0.006343
4.75e-06
9.944e-08
9.458e-05
4.653e-05
0.0004242
3.481e-11
1.596e-11
1.352e-12
8.452e-05
4.486e-08
0.0001267
6.613e-05
0.003053
0.002515
5.794e-10
0.00143
1.304e-08
1.439e-07
1.254e-08
3.165e-07
5.99e-05
8.413e-12
0.0009714
6.69e-07
0.0006161
0.003224
1.25e-06
0.0001786
0.00193
4.02e-06
6.575e-07
0.0001426
4.324e-07
1.473e-06
6.495e-12
1.182e-13
0.002547
4.691e-13
0.002297
0.0001922
0.0001122
0.0001195
5.866e-06
0.006704
4.059e-07
1.614e-11
4.453e-06
1.176e-08
0.002247
0.001005
5.523e-07
0.0001031
0.001628
5.055e-06
0.001585
1.17e-09
5.347e-05
0.005283
9.457e-05
6.693e-07
0.0067
0.0003602
4.892e-09
0.006695
3.673e-05
2.178e-05
1.544e-07
2.225e-05
1.143e-09
0.002519
0.002245
4.756e-05
3.15e-08
8.812e-08
5.18e-08
1.1e-06
0.006684
1.442e-07
0.006696
8.044e-05
2.682e-05
0.002025
1.809e-12
2.767e-05
3.117e-08
0.002845
5.509e-09
2.629e-05
0.002354
0.0007394
4.65e-06
0.00667
3.416e-05
0.006694
2.695e-08
1.655e-07
9.911e-07
0.0001594
0.006619
1.506e-06
9.572e-08
0.0001093
1.08e-08
3.257e-05
4.765e-07
0.0005318
0.001399
4.803e-05
7.495e-05
1.989e-05
2.88e-06
0.0001156
1.443e-05
0.0001125
4.219e-06
0.0001236
0.006623
0.006674
0.00169
0.0002395
5.55e-06
8.626e-07
2.284e-06
0.002218
1.881e-07
8.679e-06
3.342e-07
0.006698
7.016e-07
4.069e-05
4.217e-09
0.002918
1.818e-13
0.0005805
2.85e-09
0.003611
0.0001115
4.204e-11
0.0003152
3.582e-07
3.361e-07
2.255e-07
1.094e-05
0.0001346
0.006694
2.236e-07
6.742e-06
0.0003813
0.0001583
0.0004166
1.624e-05
0.0005383
1.1e-06
4.692e-08
0.006688
0.001028
1.806e-06
3.028e-09
7.052e-06
0.006701
6.415e-06
4.264e-07
0.0007489
0.0007833
7.923e-06
2.131e-07
0.0001364
2.521e-06
2.266e-05
0.002309
0.0001136
0.0007605
0.005306
5.604e-06
1.735e-12
0.0004235
0.0001263
1.176e-08
1.565e-05
2.394e-05
0.006691
0.000308
8.703e-05
0.003601
2.804e-11
4.385e-05
0.006697
0.0008978
5.996e-07
2.77e-14
0.006697
0.0007768
5.453e-09
3.451e-07
3.56e-05
5.404e-05
4.074e-08
0.0001376
3.827e-06
2.636e-08
7.836e-11
1.571e-07
0.001832
0.0001848
0.000974
6.162e-05
0.006683
6.051e-05
2.43e-05
0.0008246
8.044e-06
3.577e-12
1.338e-09
0.003403
1.216e-06
6.411e-11
0.002622
9.962e-08
0.0008138
4.538e-05
0.0001384
5.503e-09
1.336e-11
0.006688
2.104e-05
5.237e-07
0.006697
1.571e-08
0.001083
1.133e-05
0.0001403
0.0005402
2.911e-08
1.199e-05
4.193e-06
0.00612
0.002696
0.003572
0.0001212
0.006695
0.0004761
0.0003626
1.204e-08
0.002827
0.001098
9.158e-08
3.99e-09
0.003208
0.0003471
0.006677
3.243e-11
5.21e-06
3.706e-08
5.406e-08
6.337e-05
4.726e-07
0.0002976
3.091e-05
2.251e-12
0.003503
6.961e-11
0.006674
0.006685
0.0004611
4.608e-05
0.006683
8.985e-13
2.7e-07
1.666e-07
5.05e-08
0.0002521
0.0003368
0.005003
7.371e-13
0.0005766
1.014e-06
0.006674
2.195e-05
0.0001251
0.000382
0.0002299
0.0005549
0.002969
3.602e-06
0.006656
0.0002431
9.117e-08
3.421e-08
6.836e-09
9.23e-05
0.0005818
6.603e-06
0.006699
6.547e-06
8.384e-06
0.0005318
0.0001559
0.0002894
5.586e-11
0.005965
0.006681
4.009e-06
3.201e-07
0.002304
1.611e-08
0.006701
7.467e-08
5.622e-05
4.84e-07
0.006701
7.241e-05
1.473e-08
2.825e-07
1.061e-07
0.0006737
2.811e-06
0.006682
5.245e-08
0.004755
1.24e-06
1.142e-12
0.001043
0.0001173
0.001808
1.575e-07
8.427e-10
3.652e-06
9.03e-05
0.006657
0.0002937
9.378e-05
0.006691
1.179e-05
3.749e-07
0.002493
0.006701
0.0001207
6.231e-05
0.000165
2.321e-07
0.0001548
0.006696
2.17e-07
1.01e-06
3.778e-06
0.0005896
0.006697
0.006693
0.0004488
0.0006308
0.002814
4.148e-08
1.753e-12
2.038e-11
1.093e-06
4.932e-11
1.193e-09
0.004111
3.897e-12
0.0002059
9.838e-08
0.002993
7.411e-05
2.393e-05
5.854e-08
1.894e-06
4.349e-09
5.004e-06
0.0002158
0.0005101
2.166e-07
5.781e-07
4.258e-06
0.0001061
5.764e-05
3.467e-05
1.632e-07
0.004243
0.0003832
1.015e-05
0.0001386
1.225e-05
2.615e-06
6.169e-12
1.487e-08
0.006662
6.594e-10
0.0003438
0.006667
1.202e-06
0.006694
2.91e-07
0.0001447
0.002638
1.136e-05
5.978e-07
0.006707
4.228e-05
0.003314
1.101e-10
0.0008789
1.629e-05
3.709e-11
3e-05
0.006688
2.424e-09
0.0005468
0.0004683
1.736e-05
0.002916
2.844e-07
1.947e-12
4.395e-08
0.0001662
0.002106
1.838e-05
5.22e-06
0.006689
0.0001476
1.979e-07
5.244e-07
9.374e-05
0.006701
9.233e-12
2.222e-07
1.966e-06
0.000133
0.0003445
0.0001544
0.006656
0.0001546
2.913e-06
2.506e-05
4.229e-05
4.181e-07
3.316e-08
0.002968
8.98e-06
9.26e-06
0.00229
5.299e-05
0.002904
2.205e-06
0.0002672
8.978e-06
0.0067
3.614e-07
0.002426
0.0004575
2.683e-05
4.568e-05
7.979e-08
0.000138
1.112e-14
0.001897
2.487e-05
0.002178
0.00668
2.318e-05
3.213e-06
1.832e-09
1.337e-07
4.005e-05
6.874e-08
9.986e-09
0.0005375
2.547e-05
0.0001848
7.174e-08
2.36e-10
0.0004393
9.839e-05
5.16e-09
6.51e-05
9.459e-09
7.619e-06
0.00204
0.0009325
1.753e-07
0.006693
7.654e-05
6.691e-05
0.00669
0.0006774
5.009e-09
0.002318
7.114e-14
3.962e-08
5.295e-06
0.006691
0.0006291
3.228e-05
0.003459
0.0006142
0.0003441
6.536e-07
1.326e-05
9.256e-08
0.006696
7.692e-05
0.006686
4.58e-05
1.807e-05
1.596e-06
2.951e-05
7.392e-08
5.454e-14
0.00661
0.006692
2.24e-06
8.647e-07
8.353e-09
0.0001318
0.0001342
2.636e-08
0.001988
0.001612
0.00244
5.568e-07
4.847e-09
2.889e-05
0.0006182
0.006686
1.197e-06
6.215e-05
0.0003712
7.217e-08
6.4e-05
0.00196
1.068e-07
0.0002705
0.0003288
3.508e-06
7.814e-05
0.0003983
0.00669
0.00642
6.919e-08
5.448e-08
4.276e-06
0.003696
0.0001376
0.003069
2.819e-07
5.652e-06
0.006609
8.807e-06
2.208e-05
2.911e-13
1.917e-08
1.83e-07
0.006681
4.908e-08
4.323e-07
7.486e-07
9.024e-07
1.03e-11
3.375e-05
0.0005703
5.562e-07
9.435e-07
3.081e-08
1.306e-09
0.003488
0.002863
0.004056
8.706e-05
8.014e-14
0.0007281
0.001907
5.754e-08
2.44e-06
0.001612
1.557e-07
0.0002558
1.451e-09
0.001548
6.379e-07
0.001033
3.023e-05
1.42e-05
3.006e-13
0.0006779
4.491e-11
1.849e-11
0.006693
4.011e-11
2.165e-06
9.327e-09
1.068e-07
0.000493
0.00221
3.994e-05
6.415e-07
9.325e-06
4.52e-05
0.001202
0.001198
0.0003069
0.0008461
0.0001668
1.704e-05
8.871e-05
0.002775
3.21e-11
0.0003024
1.844e-08
5.38e-07
4.67e-08
0.00665
2.532e-06
0.0001236
4.046e-08
0.001565
1.806e-11
1.356e-05
1.554e-07
9.4e-05
5.567e-08
8.369e-05
0.0008265
0.0004029
0.0001686
0.0001362
0.0006737
4.217e-06
0.0001871
2.134e-05
5.861e-06
2.375e-07
0.0004918
1.742e-11
5.234e-06
1.157e-11
3.852e-05
0.001564
5.597e-05
0.00256
0.0001004
2.276e-07
0.006694
0.002592
0.006693
0.0003358
3.379e-07
1.718e-05
0.002652
8.454e-06
0.0004947
5.67e-05
1.698e-12
2.763e-09
3.73e-11
1.968e-07
6.747e-05
2.637e-08
5.1e-08
0.0001228
2.928e-07
0.006695
0.0008221
0.003237
5.962e-06
0.00239
0.006681
0.006679
7.278e-05
0.002601
0.0001466
1.182e-12
2.994e-07
0.006673
0.006693
9.202e-07
0.0002642
5.528e-08
1.15e-10
0.005234
4.526e-05
5.404e-06
2.781e-07
1.041e-05
1.709e-12
1.098e-05
9.974e-05
1.54e-06
1.245e-07
2.756e-05
1.432e-05
5.972e-06
1.5e-05
2.848e-08
7.786e-05
5.143e-14
0.005835
1.26e-06
4.42e-07
2.252e-08
0.006695
0.0005094
0.006693
0.001853
0.001506
3.875e-06
0.0005183
1.924e-07
1.44e-06
0.000121
9.69e-09
8.205e-08
1.2e-06
2.089e-08
2.633e-08
0.0002147
0.0005388
8.118e-07
1.871e-05
0.0009106