/*--------------------------------*- C++ -*----------------------------------*\
  =========                 |
  \\      /  F ield         | OpenFOAM: The Open Source CFD Toolbox
   \\    /   O peration     | Website:  https://openfoam.org
    \\  /    A nd           | Version:  8
     \\/     M anipulation  |
\*---------------------------------------------------------------------------*/
FoamFile
{
    version     2.0;
    format      ascii;
    class       volScalarField;
    location    "5";
    object      omega;
}
// * * * * * * * * * * * * * * * * * * * * * * * * * * * * * * * * * * * * * //

dimensions      [0 0 -1 0 0 0 0];

internalField   nonuniform List<scalar> 
127143
(
3.821e+07
7.184e+07
8.194e+07
3.494e+07
2.933e+06
3.537e+07
1.159e+06
2.025e+06
3.234e+06
4.719e+05
1.704e+06
2.662e+06
9.642e+07
2.958e+07
415
7.933e+04
9.896e+06
14.46
10.69
3.272e+04
21.92
7.143e+04
0.088
258.3
7.685e+04
1598
5856
5718
5082
13.13
408.5
1757
6284
1017
0.04368
6718
42.43
40.1
197.7
2145
10.76
0.4625
0.3274
1.373e+07
14.1
983.1
4562
16.29
253.4
223.6
5.064e+04
0.02551
42.57
0.2625
0.02094
539.3
0.02092
0.324
0.0225
0.2593
0.318
10.14
68.46
0.02211
301.9
0.4377
0.05038
83.73
83.15
0.08095
299.8
3960
16.42
0.02249
0.02179
4026
0.02318
29.2
530.6
0.02222
4744
2.92e+04
360.6
1349
16.49
24.38
151.6
4428
0.3674
680
0.02206
39.48
327.7
21.78
56.71
0.2562
0.4271
548.7
18.32
0.04972
0.02221
238.7
2714
4.297
23.11
18.97
83.82
0.08128
1.497
0.02132
306.2
5118
32.05
5.799
0.02175
1.44
0.02332
0.02179
0.02306
2.882e+05
0.02134
341.4
38.95
0.1639
4666
2748
11.61
0.0242
51.22
597.8
47.91
64.39
35.26
28.46
1.119e+06
45.71
0.06606
19.04
3539
0.05363
0.1267
0.02248
29.82
20.71
42.76
76.55
1.8e+04
0.02213
68.84
3595
9.084
225.9
51.27
0.07218
40.34
16.16
0.3243
754.3
15.96
665.1
286.5
9.342e+04
0.02207
47.5
1363
231.1
54.49
0.5287
675.6
0.02652
831.8
20.59
2.232
18.02
0.2645
38.24
34.1
51.27
224
0.03662
17.95
0.0328
37.72
37.57
589.5
10.11
0.08972
5.929
238
0.0357
40.09
64.27
0.05901
70.68
2.051e+06
12.86
0.01943
0.01936
2.225e+05
0.02181
0.02172
0.0265
3.119
37.37
1.109e+07
122.8
0.04985
16.96
12.87
0.02175
4.259
18.61
0.02165
653.5
88.64
2.288e+05
2667
18.05
39.89
0.05012
21.18
0.02184
227.9
43.69
791.7
930.4
950.6
42.58
307.2
13.6
23.3
0.03262
15.7
1.97e+05
23.05
0.08945
47.47
4.482e+06
0.02172
35.31
60.97
174.1
23.87
736.5
65.1
2.284e+05
143.6
5675
1.703e+05
0.09851
4.239
1173
23.74
20.62
360.4
1.631
0.02414
955.4
4.913
0.0553
13.91
0.02635
36.28
0.0224
48.2
207.7
186
92.12
0.6378
145.1
886.3
0.2615
13.45
35.28
38.81
39.55
31.54
185.7
0.494
3.1
0.06745
0.4237
4.215
0.02176
0.02175
1.891e+06
54.29
0.02176
203.5
0.03856
53.8
0.2219
0.08899
3.428
0.02168
2.999
357.2
110.4
23.89
140.4
521.2
0.3922
0.2994
1.214
917.7
20.9
16.83
0.02166
14.83
18.59
93.58
684.5
616.4
0.05301
0.02173
497.7
34.06
533.4
3.386
2.111
0.08262
327.7
0.03039
23.83
532.1
39.32
0.03177
124.5
338.3
17.13
11.13
0.02175
0.04322
0.01945
0.01938
0.07073
1.484
2.224
11.14
64.65
0.0526
18.06
43.83
39.38
7.417
204.1
177.1
39.79
485.7
52.36
427.6
10.85
40.74
39.56
0.02856
155.4
20.68
69.05
0.02418
341.5
11.53
55.88
19.61
214.5
217.4
0.02192
0.02181
1.39
359.5
0.4995
0.9169
0.0306
780.7
233.3
0.03355
0.09299
321.3
1.545e+05
16.39
0.5119
24.37
2022
387.8
0.389
0.02322
1.274e+04
0.03759
1863
13.11
26.23
0.022
0.2012
475.3
356.5
237.4
396
0.2049
345.9
0.02844
0.02599
1300
0.02184
22.41
36.15
0.03865
14.35
20.81
32.72
0.02222
202.9
11.26
517.6
0.1276
14.54
26.09
55.05
24.89
989.8
73.89
211.7
51.51
4723
110.3
0.0747
13.9
0.06308
0.2922
0.08543
144.1
0.05858
0.02115
111.1
46.27
19.46
157.8
0.02192
18.72
148.5
0.02518
0.02168
0.02172
198.7
0.06735
1.928
0.02419
524.3
0.02173
156.4
1.478
18.74
20.22
342
12.13
431.7
0.03752
33.04
588.1
119.3
27.98
88.35
28.62
44.25
17.98
2.116
44.52
0.1985
0.02208
26.01
236.3
0.02079
15.23
34.72
0.1644
35.43
0.04405
0.02028
36.87
28.65
403.4
51.49
5390
128
125.4
620.2
6.174
163.7
57.64
0.02165
532.2
0.02244
267
136.5
42.7
91.07
3.46e+06
54.76
2.023
0.11
2.91
0.02167
5372
0.02212
30.83
12.76
5.043e+06
2.529e+05
8.189e+05
0.02194
153.9
98.54
0.02173
10.6
62.2
46.4
5.024
20.8
345.6
15.12
3296
0.1683
23.43
1.664e+05
281
498
667.8
0.02231
8.272
2.094
18.5
0.022
635
3173
468.3
0.01965
26.04
0.09566
1565
8.641
1208
16.78
0.02253
173.7
6.162
0.02081
0.3908
76.51
315.3
212.6
250.2
515.2
12.98
162.3
149.8
43.13
106
0.02209
1496
39.9
570.7
42.77
20.84
0.02212
0.02207
0.05282
183.8
4.798
0.02173
0.02903
3.251
538.9
21.18
6.221
797.5
3041
1.626
0.02267
0.02134
472.9
17.99
54.5
0.0316
3791
30.25
82.46
0.5042
851.9
0.02173
19.6
33.84
22.27
0.02637
211.7
13.94
2.034e+04
0.02026
78.01
2566
0.02171
14.32
0.02175
150.8
42.3
0.02176
275.1
310.6
370.7
48.45
30.64
423.5
385.7
21.94
180.3
232.9
204.6
47.48
43.55
673.7
0.02673
510
0.02174
4.652
0.02445
29.83
0.02116
0.02176
0.4405
208.8
28.44
0.02137
0.02115
266.3
2013
264
477.4
11.07
1.85
19.88
12.61
39.11
159.1
374.1
0.02139
79.52
36.71
0.4506
81.85
0.02215
0.02898
41.27
2677
57.19
1.104e+04
0.02437
0.03765
58.74
96.48
0.02623
294.7
0.1241
0.08047
259.3
4.855
36.65
0.09778
8.656e+06
802.5
27.18
33.33
53.42
70.55
720.1
138
0.02461
51.57
115
21.98
0.02122
176.7
0.312
0.1919
0.01964
0.02119
1.123e+04
0.1106
388
61.77
80.19
14.81
2.078
638.5
0.08554
346.3
0.02164
0.02089
5.417
0.06531
298
0.1883
1287
10.1
366.3
1.811
19.96
0.03523
519.6
0.04429
372.1
1.213e+06
33.59
50.58
15.73
0.02773
58.2
211.5
8822
12.83
17.78
38.92
3088
25.32
279.9
9.32
281.6
74.27
18.47
11.51
0.256
1.868e+07
0.3091
0.02629
102.7
55.51
133.8
0.02155
53.43
11.03
20.89
0.04035
1.165e+04
102.4
870.2
0.04412
155.4
47.5
131.6
73.21
0.037
16.23
578.5
295
21.36
0.02185
44.08
58.49
0.02194
17.64
0.6999
66.42
54.23
0.3415
33.8
1513
152.7
0.01934
16.36
9.674
1508
498.6
0.3396
10.45
466.7
0.01938
44.14
259.8
50.02
1.369e+05
51.03
440.9
29.72
21.9
2.051
0.02193
1.397e+07
45.45
45.4
1030
22.42
141.5
77.2
256.9
0.02132
11.42
4.346
0.03716
104
264.1
86.04
39.74
0.02048
19.13
41.72
0.02165
0.02043
80.97
10.07
11.02
129.6
19.37
4.927e+04
7.113
0.1692
0.02123
25.37
47.8
371.1
729.7
0.4661
0.05476
0.02218
2.015
4506
0.02125
0.9919
1713
57.58
1548
0.02572
23.38
62.4
0.0218
474.6
0.0212
83.94
4639
102
62.63
3380
0.02191
265.6
0.1084
614.2
220.6
762.7
4361
0.3349
0.4989
1.03
2e+04
0.02178
41.99
502.1
372.9
121.6
5080
0.05261
1.05
484.4
2159
1.103e+04
217.8
3.474e+05
162.1
6.393e+04
63.77
829
11.62
8889
0.02308
110.4
0.02702
0.02572
28.24
0.0265
51.89
18.96
4.921
1.011
0.04371
675.1
110.7
0.022
15.69
38.71
0.04169
327.6
3.784e+04
40.66
14.21
322.8
20.76
199
0.02169
42.68
372.4
0.02392
262.1
39.53
10.34
0.02069
2.355
19.9
1.131e+05
3.009
3.826e+04
15.28
18.7
84.48
3813
107.4
0.02311
3107
0.3302
0.02414
2.357
1.213e+05
26.29
185.2
9.344
2.338
7427
5.832e+04
258.1
0.02263
0.02183
15.21
4.544
67.7
246.8
20.34
2013
184.3
0.0813
1974
0.05731
1893
0.0216
16.79
683.3
22.75
110.5
17.95
0.02177
0.02185
720.9
0.1587
106.4
254.2
280.8
12.45
63.4
57.19
81.69
1.54e+04
39.01
456.8
297.4
13.13
11.64
71.15
125.2
1441
4.469e+04
18.54
0.02155
0.0214
14.48
24.18
0.5645
0.02082
14.9
20.06
0.5029
222
47.37
196.5
1.755
0.02223
0.2625
0.5398
4597
923.3
49.29
0.2631
40.34
329
246
26.68
9.529
31.74
143
54.8
2366
0.02372
5087
4539
9.605
45.44
429.4
0.02177
1.148e+04
1.758e+04
0.02168
0.02154
43.69
26.06
1.624e+05
124.6
106.1
393.1
264.2
0.2945
0.3627
0.02248
320.5
24.42
159.5
2.143
1948
29.64
0.02786
1.153e+04
70.17
0.02172
118.6
0.02488
0.02164
22.35
0.09501
1.166e+04
0.02157
472.7
0.02181
305.9
0.0807
15.33
6.758
457.1
317.1
306.8
39.45
0.05499
0.03637
23.15
196
147.6
221.1
3906
321.8
1.759e+04
52.26
373
184.1
302.7
1565
0.1241
12.29
0.04402
179.8
76.01
829.5
0.06309
369.5
14.22
87.86
103.8
41.87
0.776
494.4
13.48
87.88
120.8
630.7
230.5
0.021
21.68
186.8
0.02181
108.6
236.4
0.02068
1.554
141.2
0.03479
0.1296
23.12
105.9
0.1558
0.0198
103.7
123.9
0.02167
0.09815
0.0313
19.63
141.4
8.968
0.03902
731
3.485e+04
496
256.6
12.74
8878
0.0749
157.8
0.02176
27.75
6.743
79.09
103.7
868.3
2509
0.02196
1.665e+05
666.6
489.4
53.38
996.2
12.41
13.14
1044
71.1
0.03326
3.354e+05
31.69
257.5
711.7
182.1
95.47
85.53
2029
93.08
60.57
62.03
344.3
280.1
24.24
3.092e+04
0.1049
120.1
0.09306
480.2
0.01971
0.02165
36.85
1.132e+04
17.79
1.238
1.314e+04
457.8
0.0218
1717
106
65.85
3.858e+04
1.785
53.29
3.373e+06
15.93
3157
12.29
79.26
1276
284
674.8
6.516
129.2
0.07969
18.03
146.6
75.65
6.984
107.1
10.43
7570
14.83
0.2344
13.26
0.4288
1.511
12.15
2.944e+04
0.03865
2641
944.7
70.21
40.19
0.0218
10.98
44.51
5.23
1441
708.9
895.1
0.02135
360.7
787.5
30.66
1.122e+04
51.34
11.83
347.1
0.02205
430.5
55.43
3538
74.29
0.06743
17.11
0.02171
4.124e+04
1.304e+04
31.01
0.4948
5.86
0.02086
0.01979
221.3
25.66
9.352
0.09392
0.04915
0.05119
3.025
27.69
14.42
82.37
236.2
1.338e+04
0.7391
780.5
69.94
134.7
0.01982
399.7
12.43
67.77
1.659e+04
79.58
11.65
61.25
55.52
26.76
5.176e+04
24.32
36.85
10.78
12.18
4.355
221.3
4.295e+04
0.2057
586.7
0.02118
253.8
1039
0.02032
1408
36.31
43.97
364.4
0.02138
0.7734
1.107e+05
0.02177
213.5
298.4
90.75
4804
0.5718
4.229
368.7
1457
44.67
91.33
0.05262
91.25
3129
6347
127.8
43.04
0.02169
58.06
11.67
618.4
126.7
9.705
45.8
0.02186
2.027
128.2
0.02204
10.05
0.02232
2888
10.45
9493
94.39
45.54
259.7
29.58
174.1
384.3
8.516e+04
49.35
92.72
42.53
24.38
13.23
0.02211
48.7
0.02223
12.25
0.022
13.63
0.02147
73
64.05
0.02067
0.02162
160.4
0.6905
456.9
0.09241
0.02007
5.611
29.43
0.03225
8.688e+05
1558
9.035e+04
173.7
36.8
272.5
176.3
45.86
13.41
2271
23.51
705.8
207.5
42.83
43.87
9.8
0.02156
8.447e+04
38.61
2311
0.02179
1.513e+04
183.1
284.6
75.82
0.01974
0.01972
14.09
26.21
5.697
10.66
63.71
0.6984
0.7534
2.504
3.499
1339
209.7
0.4539
23.01
4.43
333.9
399.9
79.77
297.6
15.11
0.02204
71.1
93.09
5586
42.63
0.03499
69.28
1.258
147.4
43.59
475
16.48
0.02174
20.25
28.95
2.138e+04
4717
0.5689
45.03
613.2
0.4827
0.01972
807.5
203
7.835e+04
0.05957
3.13e+04
59.44
0.02153
66.03
558.8
11.91
0.1068
18.37
355.5
55.01
44.12
56.85
1176
0.04131
223.8
581.5
476.8
0.05411
0.05398
319.7
16.35
7.529e+04
113.2
566.9
633.2
8.492e+04
1.414
160.8
0.02549
0.02181
0.0215
14.85
0.02285
2.367e+04
0.02173
3109
0.2656
20.22
418.7
440.1
0.09088
7946
3.468
155.6
16.92
4361
0.02168
72.02
358.5
15.23
3740
719.4
21.8
823.6
1300
0.04625
0.0206
3921
0.07076
0.01998
0.2708
3264
0.0206
1455
0.02184
31.07
58.52
15.39
70.14
0.02092
17.6
273.8
98.47
0.06611
12.32
0.1561
0.02174
0.02122
42.7
1.544e+05
23.22
89.72
0.0251
1.085e+04
0.3076
0.07568
0.0582
1.342
91.8
395.4
0.02611
194.9
0.02237
41.23
0.02217
0.2412
121.5
38.14
3.705
690
104.8
0.0212
51.35
1062
226.6
1.383e+04
736.8
11.8
0.03362
2.707
1.673e+04
45.25
839.4
9592
0.07173
0.2211
0.0216
47.45
188.4
44.39
0.0218
270.9
0.02175
0.1823
93.39
0.02142
11.46
0.3968
19.15
17.32
0.9749
281.4
0.0219
364.5
2612
3.147
10.21
167.4
0.04818
79.73
39.07
1459
51.22
38.15
472.8
42.6
69.81
3437
0.1041
0.1974
70.53
0.03426
225.8
21
0.08827
79.28
0.02437
0.3325
1606
19.61
116.3
68.61
1.451e+04
42.65
5558
0.8019
0.02066
5635
131.6
0.09613
301.9
0.02759
36.37
0.02223
12.73
3134
14.59
7.318
65.97
141.5
0.02187
61.37
0.2576
5.215
472.6
0.02504
96.67
1128
0.0216
0.02571
48.47
0.07041
44.93
2.072
1.424
15.55
0.5889
17.99
0.0701
33.55
47.5
0.02101
0.1568
420.1
1.479e+04
0.02088
179
4552
14.41
136.9
10.22
158.6
1.439e+04
0.05684
0.1088
63.33
0.02681
395.2
9.077
19.2
1878
92.05
0.02465
72.4
2.225e+05
8.321e+05
62.45
70.73
95.43
0.7557
14.48
11.39
21.93
561.2
181.8
156.9
171.1
7817
20.1
1.523
0.02172
657.6
1.631
29.26
0.1767
0.04339
138
62.46
11.51
0.02038
449.1
750.5
62.36
152.8
15.05
1.566e+04
277.5
0.02712
125.3
5846
24.16
105.9
2.572e+04
0.01939
2111
432.6
159.8
0.02732
18.05
11.2
522.8
147.1
18.36
745.7
0.03163
2.395
190.4
0.05046
12.59
0.02175
343
2389
149.6
819.1
1.163e+04
20
6505
0.1033
545.1
4.581
9.947
0.03888
12.02
29.82
16.5
117.1
0.06189
94.21
5.871e+04
1.581e+04
45.57
66.69
0.5406
0.6682
0.02194
0.02603
45.46
0.3122
0.02167
75.71
129.8
235
108.4
11.57
191.9
30.05
1290
1.671e+04
1.828e+04
0.08787
93.02
4.583e+04
10.72
1806
13.4
14.13
36.76
5.816e+05
9.477
13.25
0.04158
0.06887
838.4
58.01
0.02174
0.02196
12.83
743.4
15.41
103.5
1.039e+04
7.849
0.02354
619.3
10.1
72
1564
16.24
6.963
42.76
59.21
0.7365
59.96
0.02189
512.3
10.27
660.3
18.06
209.5
2040
2.124
654.4
34.76
566.1
141.8
1708
0.08218
11.3
36.12
21.95
284.6
81.04
3549
332.8
0.0217
94.72
13.54
533.3
62.64
0.2553
17.96
0.1135
1652
0.04634
74.63
29.35
44.53
11.48
22.4
4.213
1.607e+04
0.1931
0.02515
683.2
0.02091
15.81
0.03185
0.8504
11.83
0.02151
0.2617
207.9
1223
0.02177
0.02375
11.41
18.36
74.12
0.1596
50.62
37.64
727.8
370.2
25.4
331.5
62.49
0.09114
105.4
1.708e+04
10.38
2151
325.2
11.03
1.425e+04
0.02174
0.02061
1.024
2.768
9.238e+04
0.0218
14.99
569.2
8.459e+04
291.8
473.2
0.01979
0.01943
304.4
61.07
39.25
32.22
0.03297
25.5
1.53
0.02222
614.5
161.3
76.72
29.94
1685
9.097
2.231
0.01981
11.38
185.6
631.1
407
54.83
5284
381.1
43.67
117
181.5
62.88
0.06866
260.6
3455
0.02769
0.02573
234.2
99.49
3913
1.281
530.8
77.19
0.1395
0.02174
5.294
0.02211
24.92
1.144e+04
17.45
0.1245
67.66
0.04504
6750
654.9
0.06443
13.85
11.44
89.7
22
62.8
67.25
42.47
31.59
31.05
16.83
11.65
1220
115.1
41.07
92.11
6847
70.89
366
421.8
2.472
1.47
20.3
6534
0.3618
87.09
0.02259
13.65
0.02214
141.1
9.547
6549
139.4
0.08459
995.5
5.372e+04
818.6
28.9
61.02
553.7
1379
0.258
23.08
28.84
3.438e+04
70.07
31.9
0.2149
0.2619
0.02175
23.78
5383
5.086
931.8
12.14
0.1104
1084
0.01973
34.5
0.4138
22.75
1045
0.1812
2.036
9.447
0.03904
191.9
24.14
1.776e+04
766.8
154.8
0.02142
31.64
121.6
3025
891.4
32.6
10.01
50.71
0.02173
255.7
554.5
3.817
15.57
39.24
1319
491.4
336.4
50.94
7.89
1.34
6918
12.44
0.08984
2.31e+04
0.06612
41.87
0.02176
0.02199
76.41
0.02203
565.9
62.1
50.92
23.21
480.3
1151
68.51
482.9
71.76
15.19
1.484e+05
26.84
55.71
2.071
5.788e+04
13.09
4940
5869
0.04148
600.8
462.4
4.007
14.7
3131
277.8
928.7
18.95
29.07
0.0268
10.67
0.02206
0.6218
14.16
280.3
250.6
43.54
9931
13.17
0.02206
157.8
29.93
19.22
44.36
32.63
53
439.9
1182
5137
164.3
200.3
484.2
51.51
144.7
0.06863
7.239e+04
145.7
78.96
1.301
0.02159
66.29
187.9
14.52
3.785
5497
463
337.7
51.14
37.72
2180
0.02164
3957
10.73
0.03937
29.06
453.5
0.02171
114.6
13.76
11.87
5672
7.77
51.24
5.813e+04
26.04
192.3
0.01971
0.01963
185.3
57.11
2.557
177
114.3
0.02151
1496
671.6
31.62
0.02175
0.02207
41.92
88.1
188.1
1.963e+05
477.5
0.02772
398.1
1.899e+04
0.08398
441.9
256.5
0.09808
0.8396
910.3
29.62
29.25
0.01964
0.01948
0.01946
0.02005
0.07856
25.77
20.33
473.7
7.075
148.4
26.04
524.8
0.02075
56.48
32.52
1801
413.6
2281
94.46
59.15
258.1
28.74
139
0.1528
87.45
1.1e+05
175.5
2059
0.2896
99.81
0.02174
6.032e+04
49.28
282.2
6.646
0.03104
1.911e+04
0.02179
42.54
315.4
0.03988
70.01
56.59
17.23
67.99
3671
0.04289
405.7
0.02067
2.371
118.7
161.1
13.98
46.03
0.02151
0.02176
0.5678
346.4
620.6
0.191
17.88
75.97
2.798
1861
262
15.79
9.755
28.27
39.77
0.1539
2.931e+04
0.2523
0.02174
4767
0.02172
0.02167
5.241
0.1029
3430
13.75
732.2
20.85
265.8
0.02187
0.08475
195.6
168.3
11.95
0.05196
0.2059
1.716e+04
1762
0.02213
3380
2182
9.503e+04
0.06691
14.45
18.46
0.07783
0.02399
14.22
178
1.381e+04
0.07257
420.1
6.37e+05
0.02175
298.1
783.5
110.4
0.02178
515
2.311e+04
3.872e+04
1.965e+04
0.3852
63.12
2.041e+04
0.0596
58.43
0.02154
16.93
335.3
10.92
238.4
1.904e+04
2.278
63.87
56.12
0.02225
0.02796
337.5
520.1
13.39
4013
63.52
1.175
11.21
28.88
180.2
38.79
0.02176
43.22
41.93
170.8
265.1
114.2
320.6
81.77
2.508e+04
2.877e+04
3.566e+05
353.1
0.04648
721.7
0.02477
575.3
1027
0.02176
1.917e+05
0.02221
124.8
4943
1241
105.3
83.27
276.2
216
0.01964
1.637e+05
112.8
0.0555
10.93
68.1
3.16e+04
6096
5.738e+04
12.71
350.7
1879
18.69
0.06989
75.62
3353
0.02088
35.22
55.43
101.3
46.48
27.25
13.74
1887
106.3
123
5897
0.06574
1394
0.08033
45.61
133.2
0.02299
0.1238
39.24
305
152.5
2.409e+04
0.05356
0.02174
4.87
192.4
1234
23.05
10.03
0.01954
0.03059
713.6
0.01993
221.2
307.1
0.06643
82.38
33.1
8007
2.567e+04
1.51e+04
0.03323
374.1
53.75
87.77
14.56
11.64
6554
12.58
761.8
205.3
3340
160.9
1.607
1.46e+04
24.41
73.34
28.26
0.04905
48.83
1.027
0.0219
24.01
109.9
43.15
334.2
37.52
4.702e+04
7.37e+04
10.91
5.447e+05
0.2641
8.017
0.03108
0.06127
26.2
0.02221
255.2
2.155e+04
258.6
2131
32.67
32
141.9
54.89
11.65
236.6
14.9
2235
85.88
0.02565
74.94
74.92
0.02204
0.04194
889
0.02185
75.58
118.2
200.5
7.035
1279
0.09263
32.96
0.03837
490.8
5149
539.9
52.95
0.02143
317.3
0.02157
0.2669
101
27.73
1.432e+04
106.3
411
12.56
1075
0.4849
0.2005
17.28
227.7
0.02084
4.635
0.02185
535.5
826.4
178.6
44.43
0.02165
356.9
282.3
48.69
1.433e+04
91.59
1071
0.02321
50.33
3.326
2.118
138
23.87
0.07627
5.73
0.1148
19.57
46.14
0.02069
0.02027
0.02229
0.03974
0.1348
1368
289.7
0.02183
183.9
11.79
125.2
0.02194
182.4
0.07207
919.5
0.08617
1.085e+05
65.32
975.3
0.04137
0.0903
1.528e+04
0.0275
122.4
146.8
210.4
157.3
53.92
0.02181
213.7
277.6
44.2
48.01
41.58
7.751
21.24
67.65
932
0.02151
17.1
41.27
1874
0.09983
0.02209
122.9
634.3
17.7
20.74
14.11
270.8
0.04866
25.81
263.5
10.63
94.06
79.38
0.02553
5.287
1.582e+04
109.2
86.96
1885
1.406
6.799
0.02167
0.02704
0.1184
0.04382
1.509e+04
83.26
0.02195
0.02275
80.49
7.597e+04
0.02194
17.71
5676
122
4.804
96.66
1478
57.44
17.42
439.5
2.952e+04
934.4
0.02192
38.56
33.35
71.17
0.02139
0.2997
111.5
20.01
210.1
1.878e+04
2453
17.54
404.6
3.061e+04
12.56
440.1
16.95
1.179
0.7478
919.5
1.043e+04
0.02158
96.78
99.79
0.02193
2129
14.19
1.708
0.06472
46.35
421.9
150.2
36.4
0.02175
0.0218
15.71
89.15
0.02005
97.19
0.02488
1054
12.64
14.57
307.8
822.3
18.64
45.06
0.02141
1.831e+04
33.17
1872
331.4
0.09093
281.6
151.5
110.5
1.437e+04
9.757
1.342e+04
0.02075
0.02124
22.31
0.0527
0.0214
3.511e+04
167.9
258.3
1560
166.6
29.7
0.02703
3.404e+04
0.03929
71.82
0.02026
0.1117
120.9
27.62
36.19
46.24
9.813
431.3
0.02047
36.22
1868
1549
2372
0.1213
29.86
14.64
0.02195
398.1
181.1
1.386
0.04875
52.49
1.478e+04
0.02183
0.02152
20.2
1199
10.59
1287
0.02206
2417
69.91
104.3
0.02208
0.06649
536.6
185.6
968.3
19.45
15.46
0.02046
435.4
0.02942
429.1
2.396e+04
0.0567
76.38
11.68
3468
9628
509.8
0.05325
0.02047
40.99
0.1562
0.02164
179.9
301.8
12.84
0.02036
0.0679
0.1011
0.0269
298
41.93
0.02174
533.8
74.91
569.9
0.02587
0.02191
0.02164
0.05094
70.31
19.9
374.9
1.519e+04
9091
68.18
2.983e+04
1825
0.02265
1.294e+04
49.6
1327
9.956
0.1214
21.38
3120
341.3
1350
242.7
0.06533
22.38
248.6
86.54
66.77
0.1821
117.6
0.1831
248.9
0.03446
28.94
14.13
117.4
0.1961
320.3
2.817e+04
2056
0.02062
1.571e+04
30.74
0.01996
153.6
0.02181
853.8
49.73
0.118
141.3
178.4
0.0223
1.088
10.97
4239
0.02246
0.1328
5075
4.73
0.02157
1236
22.73
0.03044
0.1256
16.58
144.9
1.949e+04
362.8
51.43
13.77
350.2
0.5586
0.02169
0.04704
275.2
83.76
58.88
0.02207
4.063e+04
185.7
30.24
87.13
26.29
58.2
0.02017
0.05732
280.1
109.5
0.04167
100.8
450.9
12.31
1.486
3.101
10.24
0.03778
9.334
29.52
171
15.16
0.02205
615.4
0.1602
25.24
5.952
3.269
1940
46.87
1.033e+05
17.63
1.449
0.2182
0.02119
6.076
23.06
1440
496.9
93.23
305.7
1387
44.61
0.4052
49.61
347.1
2734
40.07
0.04209
824
0.6957
659.8
13.19
11.87
22.25
189
0.02179
103.9
0.2003
0.02164
9.559
810.6
1.268
7.037e+05
420.1
391.2
0.02166
44.87
101.8
0.04651
28.23
43.68
1177
188.3
1259
0.02188
67.65
0.02067
3.261
140.6
127.2
5.469
365.4
5.25e+05
0.0215
0.02174
40.97
91.46
705.3
1.233
47.25
443.4
21.53
12.27
0.02183
283.7
1008
0.07244
20.1
0.02156
76.83
0.05063
44.12
290.4
69.73
0.3177
729.1
152.1
0.02634
272.8
81.97
4.305
0.02148
0.02327
307.8
1778
21.91
10.44
44.58
15.98
143.3
20.77
0.0194
0.1677
1.469
2.869e+04
982.5
879.4
0.02134
359.3
116.2
909
681
7411
2.263
41.26
89.24
58.74
421
1589
22.45
0.06976
12.1
0.031
5.274e+04
0.02258
13.5
332.5
31.08
12.32
578.9
38.47
4427
12
210
35.41
4.679
151.3
2.777e+04
19.81
1.555e+04
1.062e+04
0.02175
1.721e+04
95.6
803.6
1002
43.93
32.27
122.8
70.46
14.29
0.03782
18.89
13.57
45.04
21.46
40.35
0.4405
1.683
28.43
1.778e+04
36.38
3228
84.12
363.3
0.02027
312
51.4
1514
13.01
6923
157.9
235.5
0.07644
1135
0.06698
20.42
27.7
0.06834
0.5775
18.36
22.74
63.83
145.9
15.14
151.3
24.29
6964
20.19
9.528e+04
0.03667
31.39
96.58
11.56
0.04838
489
0.02174
0.02219
0.02174
30.18
125.4
313.7
13.58
0.08217
26.14
0.03894
9.416e+04
1134
1.696e+04
193.4
0.07599
448.9
1646
0.07469
821.1
0.02187
35.42
10.03
312
25.51
0.02129
0.0214
68.59
9.606
0.03711
1.818e+04
134.8
0.02095
0.0218
52.5
0.03104
412.6
3560
0.02984
3.846
285.8
665.1
139.9
1.901e+04
6.946
0.1405
36.38
229
0.1576
157
24.84
1.076
429.9
62.62
5.517e+05
0.02594
69.17
2733
960.3
0.02184
22.46
0.02176
16.77
36.99
34.58
44.05
227.3
30.73
0.1626
719.8
824
395.5
633.5
457.4
35.22
69.01
61.13
140.7
18.26
276.2
0.02198
1.614e+04
6302
796.6
33.57
7.912
1119
365
0.2714
0.4825
2.198e+04
70.86
0.05225
0.03128
0.05135
267.2
520.3
23.09
1813
117.8
0.03646
101.2
54.87
52.55
307.3
9.811e+04
356.3
53.33
438.2
24.83
57.96
1200
32.82
21.6
10.61
827.1
21.53
0.2427
30.4
395.2
0.0949
65.18
0.2841
17.21
1.878e+04
387.6
0.02204
254.1
17.46
8746
506.6
0.02143
0.09717
433.3
0.0313
23.66
982.8
256.9
10.61
0.02174
0.1761
14.04
15.19
0.08076
278.4
0.02077
362.4
23.91
222.7
150.1
50.34
50.51
280.4
235.9
0.1712
76.92
0.02182
2.535e+04
0.03638
0.02984
156.2
0.02184
18.62
10.37
3.372e+05
0.02196
51.6
63.44
316.9
268
0.2024
41.71
22.26
248.1
1290
29.86
0.1068
0.02214
164.9
236.3
20.35
37.2
584.9
1156
0.7736
0.02114
29.86
173.8
3.903e+04
43.72
47.59
0.6651
172.3
0.02151
13.49
2392
699.8
0.02197
0.1924
506.7
0.01982
67.83
837.1
42.53
0.02195
0.022
9.75
0.0241
0.02013
0.02173
9.385
304.4
743.1
5.296
122.8
7.696
16.7
0.02225
15.16
56.52
0.04237
0.6521
676.7
14.86
0.02572
893.5
37.29
9.739
1.615e+04
2.021e+04
0.02549
50.49
18.43
255.7
42.38
1868
0.02194
69.96
1.768e+04
2.634
155
0.3846
1080
36.69
151.1
11.86
8994
0.06455
5676
35.09
0.02544
0.0296
0.02006
128.7
20.46
1284
98.71
2.905e+04
0.1046
0.01942
102.9
131.4
0.07899
0.02189
514.8
10.92
604.3
36.65
800.1
146.6
47.19
5.912
201.6
0.01974
9162
102.1
35.76
11.78
0.09858
0.02207
19.29
13.6
282.7
1918
32.9
0.04654
192.7
16.35
0.06087
0.02191
766.5
159.5
2608
109.7
26.32
0.8678
35.93
15.2
5.334
71.12
0.3737
0.1339
0.02192
39.02
7171
24.43
0.4218
2225
0.4844
0.02168
18.6
0.02794
0.02203
21.16
0.0194
0.01934
2.216
0.02011
29
2.432e+04
320.2
14.7
0.138
0.02113
0.02197
34.75
171.5
12.89
1.736e+04
16.64
0.03013
10.96
202.1
1330
7.461
0.02198
2.639
68.2
0.02203
0.02136
41.1
179.8
0.05177
0.02935
52.5
0.02131
1.486
0.0215
9.808e+04
3.432
501.7
9.589
0.02787
1.154
11.48
18.26
421.2
19.73
65.79
18.37
0.02214
1.209e+04
16.7
145
0.02191
209.4
140.2
68.39
334
0.2252
206.2
9.752
0.1407
1469
0.02205
2.152e+05
12.3
9586
0.02197
300.4
0.02175
0.1275
2.698
3292
13.66
107
16.97
0.1087
1577
0.1232
831.1
1855
10.66
0.09436
0.05178
674.9
0.02162
2.77
19.04
152.7
12.11
0.02179
5114
0.03348
110.8
331.8
55.29
623.1
4391
24.41
563.7
84.7
1.419
15.35
0.4841
0.02173
0.02181
273.7
10.98
6319
95.54
25.21
0.02179
52.73
0.02179
0.02171
0.03097
122.6
0.1089
17.07
0.03363
31.67
0.1892
52.27
209.5
840.9
0.02674
181.6
104.4
76.55
0.169
18.12
0.02187
78.37
0.3889
45.15
3.495
0.03674
194.7
3.748e+04
160.4
1032
20.25
1.128e+04
870.3
25.73
18.65
708.4
181.3
4.424e+04
290.6
21.15
50.3
69.77
32.11
534.5
358.7
0.03871
30.68
0.0857
338.3
1.025e+04
66.66
634
344.5
13.31
172.1
0.03291
188.6
29.01
2.065e+04
11.1
0.02287
17.84
27.62
124
0.05741
52.71
132.8
23.14
4.056
114.2
15.32
4238
151.5
75.68
27.44
16.87
501.5
0.02475
234.6
4.055
0.02403
44.48
46.27
236.1
335.9
95.04
0.02202
390.4
12.44
0.1224
1.722
275
6.267e+04
101.4
0.02086
0.02413
0.4635
189.2
50.04
0.02151
2.767
214.6
404
5795
0.02103
202.5
2548
36.23
4.817e+04
69.35
87.17
184.8
21.81
162.8
0.02353
51.38
2266
51.55
229.7
1.238
21.01
0.02181
0.06754
243.6
122.3
21.23
755.4
52.7
0.02173
2267
64.13
0.572
273.1
5237
6912
0.04019
0.1383
0.02467
72.33
1854
359.4
964.5
374.6
78.23
0.02181
51.75
4.689
9.5
2838
0.4212
1.739e+04
52.32
1485
0.03389
130.5
1272
0.02171
123.3
70.32
118.6
11.13
0.0219
0.02171
0.03833
28.66
0.02173
14.65
6121
0.115
16.85
268.6
0.03878
56.32
10.81
0.259
1463
100.7
6174
52.83
0.02177
158.8
1716
0.0217
4068
13.44
46.45
28.97
183.2
60.3
160.1
16.15
11.25
0.02194
12.17
0.02178
0.05603
1112
105.6
42.84
34.47
0.8365
130.7
0.02177
0.01967
0.06505
75.35
30.91
66.48
1.741e+04
18.33
0.7063
185.3
0.4686
33.47
0.02136
526.1
454.6
15.9
12.5
80.93
96.37
38.35
21.69
1.083
0.02231
50.43
16.13
100.8
1377
1.603e+04
432.1
0.02149
48.82
22.54
22.53
8.115e+04
0.02166
65.47
25.29
26.55
52.88
22.7
5.008e+04
59.67
19.45
460.5
2394
11.91
70.27
2394
2.133
0.02168
257.7
16.18
37.7
80.28
15.29
1.579
0.04271
684.6
237.3
872.5
103.9
717.4
155.8
0.02172
147.5
43.58
56.03
16.23
0.01936
266.4
42.07
25.07
7.815
0.02133
206.8
11.76
5.267
41.27
159.4
84.79
30.33
389.7
368.5
0.01992
77.12
34.63
59.52
434.4
150.5
32.22
22.79
26.76
10.17
118.6
511.9
1.649e+04
622.9
696.5
9304
25.98
0.08027
2.264e+06
327.9
1516
0.03496
1675
1206
247.4
27.29
0.02191
2.27
0.02179
16.41
64.38
4.352
0.7987
16.59
616.4
20.29
2.111e+05
14.2
247.3
751
1.557e+04
427.7
207.6
19.07
0.09437
73.75
18.18
1.92e+04
59.52
0.3695
0.7343
1489
1.075
0.022
0.02172
29.95
46.58
0.04693
0.02017
0.02193
507
142.3
9904
0.02155
0.02971
55.99
0.01976
0.0199
297.4
0.05215
118
667.2
0.05376
1341
8.01
50.55
10.01
32.09
0.06003
58.51
17.62
6.403e+05
31.86
360
1033
1235
14.91
0.02964
10.07
626.8
0.02173
13.58
160.4
565.8
1.301e+04
107.5
36.28
664.6
0.02622
110.9
2369
216.5
79.09
63.14
0.06925
30.04
18
1828
124.9
167.8
0.04578
837.5
267.3
0.03531
19.97
0.06504
43.09
0.02824
1631
1.662e+04
0.02857
477.9
120.9
0.1482
355.8
67.08
0.02271
5872
56.33
184.5
446.9
0.03607
20.92
5.077e+04
73.31
424.8
16.5
21.57
2.763
13.84
155.5
0.05727
1.61
56.88
58.81
27.12
14.78
47.83
5.76
62.94
489.2
55.36
5.607
2.075
0.0218
0.09654
602.9
17.58
0.01938
2.827
33.74
3.852
160
66.91
27.85
0.1007
576.8
79.15
0.1069
34.5
57.35
0.08017
607.2
0.04736
829.2
9.512
0.1952
0.06752
10
665
58.21
0.02095
77.76
173.1
113.5
0.1687
0.02207
12.89
331.7
598.1
28.41
54.55
11.28
536.9
15.94
25.2
2.24e+04
12.67
1.691
4.542e+04
406.3
15.73
14.97
0.02204
1.216e+05
0.02226
27.87
103.4
96.54
137.4
115
1.965e+04
11.5
11.43
25.06
3.058e+04
461.2
13.31
4.213e+04
6573
462.7
115.2
0.1819
0.6225
21.58
24.64
0.02187
366.5
2.057e+04
0.04537
60.48
6.004
17.96
264.1
412.8
4.049e+04
1571
198.2
0.01953
0.01928
0.02178
554.1
2124
3.186
0.02159
0.1635
2582
5.819
4.475e+04
75.13
0.02232
3.875e+04
0.01941
1.675
11.15
0.04465
17.04
0.3389
1.332
0.07781
282.7
17.66
54.14
109.3
2.333e+04
12.48
165.1
188.7
10.47
0.02213
9297
417.4
188
89.41
959.7
205.1
80.63
0.06287
23.8
239.4
28.19
369.6
0.02896
1090
31.79
299.6
12.63
0.2767
1.118
0.02193
229.8
35.57
123.2
178.5
13.17
625.5
44.02
19.03
14.49
142.5
0.168
964.9
125.9
112.9
26.53
0.06557
9.54
0.09664
59.25
19.19
122.3
3.837
584.3
17.48
14.13
362.5
0.2334
2004
27.45
0.5724
0.09086
3.568e+04
281.6
208
28.15
5591
0.02204
6529
515
64.55
55.43
58.26
71.49
82.26
16.94
84.17
69.61
180.5
3585
0.06767
0.02187
0.02188
105.4
206.9
1.978
2.473e+04
108.9
9316
832.3
90.66
1850
1.836e+04
10.21
418.6
750.3
42.01
1.914e+04
0.02167
72.68
589.8
599.3
0.02157
572.8
33.18
202.6
280.8
327.5
0.0217
14.37
228.6
752.2
0.0209
205.7
13.12
0.1768
3.08e+05
0.03282
11.86
14.68
232.4
307.7
0.3017
30.46
2.685
201.2
705
144.3
0.01942
13.87
6.576e+05
0.02573
0.02295
1924
784.6
53.61
419.3
0.06271
28.17
62.91
48.62
34.73
170.8
0.02
42.99
12.5
0.2313
0.02194
37.62
0.02126
8.17e+04
41.51
1.948
9.89
1.308e+04
0.02169
148.4
0.02
0.02216
653.6
0.3448
1266
10.4
0.04329
47.19
371
21.75
19.53
30.14
373.3
110.7
535.3
487.1
446.2
5307
858.1
54.69
364.3
252.8
176.4
0.2545
0.02113
0.02118
3592
23.28
312.5
4.274e+04
0.02184
235.4
0.4485
0.02038
16.16
4.594e+04
11.1
412.8
2584
0.02206
551.4
42.9
16.52
10.27
25.84
1726
96.21
0.02175
4.644e+04
1288
0.06427
0.02432
1183
164.9
595.3
502.8
124
276.8
0.02171
265.4
0.02118
114.4
487.9
4.12e+04
0.01955
0.0193
0.1521
113.8
0.03141
16.79
1.898
9.427
24.65
49.82
246.2
0.05009
0.02923
1.784e+04
2.154e+04
25.21
756.1
0.04649
308.5
0.02209
129.4
1257
447.3
2273
221.6
428.9
346.7
0.3081
27.25
32.61
0.02546
0.0218
0.02176
12.04
189.2
800.9
3.04e+04
280.8
0.0255
385.9
901.4
410.2
3.362e+04
48.32
512.8
260.9
85.66
0.05611
2.277
17.74
0.9851
0.08407
906.5
23.04
39.01
44.36
578.2
0.3309
0.01974
1.739e+04
15.45
11.31
38.19
2.111e+04
23.62
0.02083
119.2
28.41
181
7.049
330.6
342.4
2.109
144.6
15.11
0.0627
173.3
0.04479
0.08034
5.361
1026
19.25
1008
22.23
47.11
42.48
0.03019
70.27
336.2
0.2509
41.43
4.619
1.883e+04
0.03135
0.02482
69.82
74.58
161.4
23.69
33.1
2371
0.06568
0.02183
24.15
1838
0.02505
0.5742
38.71
0.02164
1.852e+04
0.06806
35.93
78.28
39.57
0.5864
388
2079
55.56
0.05969
0.02175
18.73
49.09
95.27
15.02
0.02141
0.02019
0.02173
78.06
191.1
219.5
0.05137
759.5
34.18
436.5
48.13
786.7
8.472
0.0309
4139
0.02194
814.4
35.57
0.03157
113.7
73.28
230.1
134.8
148.5
14.63
5.995
0.06607
2238
1283
2146
0.1694
0.5984
0.02174
1.872e+04
0.0216
157.7
1828
0.0224
15.61
81.67
377.8
0.07991
14.1
1.295e+04
24.71
0.02166
20.68
436.8
78.85
146.7
13.91
35.53
1.549e+04
14.77
0.02071
0.02247
1.116e+04
22.34
378.4
11.75
50.34
0.02118
0.02193
1.913
6.816e+04
1815
482
344
0.8518
306.2
1473
122.5
244.4
0.02189
651.8
10.9
330.9
19.39
16.61
0.0216
607.4
14.68
1.583e+04
1.907e+04
13.11
14.23
1.477
1026
0.02614
10.02
1.713e+04
467
176.3
1893
6843
122.8
189
0.1195
946.9
233.2
1530
39.54
0.02684
1033
7245
0.02173
323.5
3493
387.9
900.2
46.19
11.77
164.6
41.31
0.03197
64.44
0.02211
103.7
0.1047
1.412e+04
0.1272
4035
44.06
266
21.1
12.99
512.9
14.36
176.3
771.4
70.29
31.46
9.496
33.46
155.8
491.1
56.03
0.02491
22.98
20.08
63.62
122.6
86.37
254.1
51.14
0.02524
49.91
2.214e+04
16.32
11.31
128.8
0.03971
41.86
0.0216
44.31
5.684e+05
8.593e+04
437.9
24.88
39.53
0.02102
0.05027
20.31
22.95
73.64
5.738
0.02186
36.76
66.4
158.9
45.67
0.02171
866.5
1311
5.849e+04
11.29
24.84
58.52
558.1
0.0429
183.3
9.941e+04
0.8669
17.58
0.2745
309.4
5.201e+04
15.19
13.33
107.1
35.17
0.0257
163.5
0.01988
1.647e+04
48.33
13.35
1268
6.501
155.5
36.71
2.839
0.05512
0.02199
0.02157
48.56
17.34
28.45
9.484
31.63
57.21
1.969e+04
0.8549
302.5
0.2304
0.02185
972.6
0.022
13.83
642.6
4.839
24.47
21.81
4.809e+04
260.6
20.45
264.3
124.2
83.59
0.1361
1.731e+04
0.02173
5.564e+04