/*--------------------------------*- C++ -*----------------------------------*\
  =========                 |
  \\      /  F ield         | OpenFOAM: The Open Source CFD Toolbox
   \\    /   O peration     | Website:  https://openfoam.org
    \\  /    A nd           | Version:  8
     \\/     M anipulation  |
\*---------------------------------------------------------------------------*/
FoamFile
{
    version     2.0;
    format      ascii;
    class       surfaceScalarField;
    location    "5";
    object      phi;
}
// * * * * * * * * * * * * * * * * * * * * * * * * * * * * * * * * * * * * * //

dimensions      [0 3 -1 0 0 0 0];

internalField   nonuniform List<scalar> 
189008
(
7.739e-08
-7.739e-08
1.789e-08
-1.789e-08
1.361e-08
-1.361e-08
1.956e-08
-1.956e-08
-6.957e-08
6.942e-08
1.982e-08
-1.982e-08
5.452e-06
-5.452e-06
-9.591e-07
9.591e-07
-5.393e-07
5.393e-07
7.533e-07
-7.535e-07
9.797e-06
-9.797e-06
-2.379e-06
2.38e-06
-9.149e-10
9.158e-10
-2.161e-08
2.161e-08
-1.418e-05
-2.907e-06
1.708e-05
6.903e-06
-7.862e-06
9.595e-07
-6.175e-08
6.176e-08
0.002965
-0.004103
0.001139
-0.001795
0.0009747
0.00082
-5.747e-06
6.59e-06
-8.427e-07
0.0008446
-0.0007115
-0.0001331
8.532e-07
-4.712e-07
-3.82e-07
-0.003275
0.01025
-0.006974
1.968e-05
0.000503
-0.0005227
5.198e-07
3.334e-07
-0.000261
0.0001464
0.0001145
-9.116e-06
1.005e-05
-9.329e-07
-1.007e-05
9.563e-07
0.0001812
-0.0001408
-4.043e-05
0.006798
-0.01632
0.009522
-4.863e-05
-0.0002165
0.0002651
-7.061e-05
-0.0001904
-7.136e-06
4.291e-06
2.845e-06
-0.0001061
6.345e-05
4.265e-05
0.01123
0.01083
-0.02206
-3.034e-06
-4.102e-06
3.881e-05
0.0003133
-0.0003521
2.384e-05
0.0001922
-0.000216
-4.753e-05
0.0005936
-0.0005461
-5.533e-05
6.396e-05
-8.628e-06
-0.001247
-0.000548
0.00204
-0.003669
0.001629
0.0007053
-0.004429
0.003723
3.138e-09
-3.137e-09
0.001767
0.001198
-5.67e-05
-4.94e-05
0.0001193
6.192e-05
-0.0005338
0.0005348
-1.036e-06
-0.0007876
0.0009502
-0.0001626
-3.072e-05
0.0004817
-0.000451
2.399e-06
4.504e-06
-0.01427
-0.0301
0.04437
-8.497e-05
-8.524e-05
0.0001702
-0.01291
0.01196
0.0009487
1.083
-0.1285
-0.9544
0.0009182
-0.0007375
-0.0001807
-0.1463
1.229
0.01193
-0.007373
-0.004562
-0.3134
0.01907
0.2943
-0.005157
-0.007757
-0.002334
0.00017
0.002164
-0.0006064
0.001068
-0.0004619
-0.0002268
0.001836
-0.001609
-0.8101
0.9552
-0.1451
-2.614e-05
5.422e-05
-2.809e-05
-0.0003553
-0.003105
0.00346
-0.02876
0.02357
0.00519
0.002237
-0.001855
-0.0003827
0.000615
0.001622
-1.278
0.4803
0.7975
-7.066e-05
-0.0003117
0.0003824
4.088e-06
5.959e-06
-0.001317
-0.0005477
0.001865
-0.1163
-0.1971
-0.2739
0.5163
-0.2424
-4.322e-06
-5.752e-06
-0.05111
0.09178
-0.04067
-0.0006634
0.0006182
4.519e-05
0.0004844
0.0004338
0.16
-0.6342
0.4741
-0.000178
0.0001355
4.249e-05
-1.871e-06
-3.876e-06
0.0001035
0.000121
-0.0002245
1.102e-05
4.995e-05
-6.097e-05
0.0001488
-0.0003915
0.0002427
-0.0003532
0.0005541
-0.0002009
-0.0006749
0.001286
-0.0006114
1.41e-05
-4.082e-06
-1.002e-05
-0.0031
0.002744
-0.0003909
0.0007189
-0.0003281
0.1849
-0.02111
-0.1638
-0.004754
-0.005414
0.01017
-0.0002509
0.0009017
-0.0006508
0.0004839
0.0003607
0.0004204
-0.0004277
7.34e-06
0.02795
0.01373
-0.04168
0.003203
-0.001163
0.0002658
-0.0002689
3.105e-06
-0.0004894
-8.83e-05
0.0005777
-0.0184
-0.01036
0.6863
-0.5263
-7.969e-06
-0.0007796
-7.085e-05
-0.000254
0.0003249
0.00421
-0.005132
0.0009221
0.0001084
-0.0004616
-0.0006419
0.0001525
-0.001099
0.001577
-0.0004777
-1
-0.2776
-0.001188
0.0006004
0.0005875
-1.154
0.8759
0.2779
2.599e-05
-4.018e-05
1.019e-05
3.912e-06
-0.000638
9.11e-05
0.0005469
0.0006869
-0.001054
0.000367
-0.2121
0.09639
0.1157
0.000579
0.002475
-0.003054
-0.1066
0.05866
0.04789
0.1656
-0.4395
0.02384
-0.07495
4.494e-07
-3.584e-07
-9.098e-08
-1.252
0.09862
6.018e-05
0.0001075
-0.0001677
-0.0004028
-0.0007247
0.001128
0.01379
-0.01184
-0.00195
-0.0001175
-6.047e-05
0.0001899
-0.0001758
-1.411e-05
-0.000627
-0.0003111
0.0009381
0.08857
-0.1037
0.01517
-0.0002702
0.0001011
0.0001691
-0.0006206
0.0005018
0.0001188
0.0005524
-0.0001794
-0.0003731
0.0003894
-0.0001473
-0.0002421
-0.0003856
-0.001329
0.001714
-0.0002744
-0.0003889
1.471e-07
-1.126e-07
-3.456e-08
0.0005788
-2.635e-05
-0.005815
0.03728
-0.03146
-0.0002688
0.000549
-0.0002803
-0.0001648
0.00019
-2.527e-05
0.03469
-0.05675
0.02207
0.009008
0.0003397
-0.009348
-0.04834
-0.04164
0.08998
-0.0002645
0.0003578
-9.326e-05
-0.000799
0.0004765
0.0003224
-0.0001868
0.0001018
0.001482
-0.0006712
-0.0008108
-4.746e-05
-1.842e-05
6.588e-05
-0.02778
-0.7823
0.0004866
-9.72e-05
0.0002258
-0.0003304
0.0001046
0.002491
-0.003693
0.001202
0.00109
-0.0002984
-0.000792
0.0009894
-0.0009574
-3.192e-05
-0.008917
0.0003477
0.008569
0.0001328
-0.0003168
0.000184
0.0003697
-0.0002208
0.007923
0.004012
0.0006156
-0.0005033
-0.0001122
-0.0001188
-0.000415
0.0001173
-0.0002241
0.0001068
-0.0002857
0.0005255
-0.0002398
-3.265e-05
3.265e-05
0.191
-0.006144
0.0006991
-0.000222
-0.0004771
0.0001265
-0.0002686
0.0001421
1.989e-05
-4.602e-05
-0.000369
4.296e-05
0.0003261
8.862e-05
0.001616
-0.001705
6.098e-06
6.599e-08
-6.159e-06
-0.04193
0.03358
0.00835
4.807e-06
1.245e-05
-1.726e-05
-0.0004537
-0.0003452
-0.004467
0.001897
0.00257
-0.002656
0.0008605
0.001795
1.021
-1.194
0.173
-0.0001152
8.141e-05
3.382e-05
-0.0007622
0.0004277
0.0003345
-0.0001442
-0.000126
-0.0004267
0.0008331
-0.0004064
0.1209
-0.1484
0.0275
-0.001741
-0.000915
-0.1212
-0.002446
0.1237
-4.15e-05
7.611e-05
-3.461e-05
-7.181e-05
-4.341e-05
-0.000259
-0.0003616
0.0003687
-0.0009751
0.001039
-0.007171
0.006133
-0.0001686
0.0008555
0.0005164
-0.0004967
-0.005634
0.0868
-0.08117
-1.811e-06
0.0001635
-0.0001617
-0.0001249
-3.829e-05
0.0001632
-0.04498
0.03917
0.0007943
-0.0009444
0.0001501
8.538e-08
0.0002382
0.0007015
-0.0009397
-1.471
1.2
0.2713
-1.462
1.192
0.2699
1.57e-06
5.573e-08
-1.626e-06
-0.1668
0.1324
0.03439
0.2051
-0.03831
-0.1668
-0.05817
0.04853
0.009635
0.02666
-0.0702
0.04354
0.0002982
-0.0002593
-5.276e-08
5.277e-08
0.0003298
-0.001149
0.0008189
0.02585
-0.007501
-0.01835
0.002716
-0.000624
-0.002092
0.02946
-0.02266
-0.2085
-0.003615
0.002096
-0.02276
0.02067
-0.0004057
0.0002935
0.0001122
-0.05938
0.2022
-0.1428
2.381e-06
3.718e-06
9.921e-06
-0.0002857
0.0002757
1.522e-06
-1.902e-06
3.8e-07
-1.908e-05
1.731e-05
1.767e-06
0.003445
-0.002074
-0.001371
-0.0001158
0.0004184
-0.0003026
0.02202
0.003834
-0.0006908
0.0003053
0.0003855
-0.471
0.2217
0.2493
0.0009601
0.0001302
0.0001716
-0.0001869
1.53e-05
0.0001099
6.263e-05
-0.0001725
-3.308e-05
2.728e-05
5.805e-06
-0.0002225
0.0003489
0.0002675
-0.0002437
8.152e-05
-8.351e-05
1.995e-06
0.0006464
-0.0005822
-6.428e-05
-0.0007511
0.0001975
0.0005536
-0.04704
-0.07421
-0.001948
0.0006303
-4.519e-07
5.254e-07
-7.354e-08
-0.0004629
-0.0002882
-0.02359
0.01854
0.005057
0.0002256
0.0004735
5.656e-07
-5.656e-07
0.2264
-0.02127
-0.0003045
7.487e-05
0.0002297
-0.0002383
0.0001134
-4.752e-05
9.696e-05
-4.945e-05
0.0003711
-0.0002577
-0.0001134
0.0003084
0.0003072
8.065e-05
-4.386e-05
-3.679e-05
2.891e-07
1.602e-07
0.000941
0.0004323
-0.001373
1.053e-05
-9.538e-06
-9.903e-07
4.389e-06
-4.389e-06
0.1968
-0.9663
0.7695
-0.0001195
-0.001968
0.002087
-6.891e-05
0.0001699
-0.000101
0.002232
-0.001052
-0.00118
-0.000807
0.0002743
0.0005326
-0.0001585
0.0007201
-0.0005616
0.000665
-0.0003951
-0.00027
0.1175
-0.02893
4.725e-05
-0.0001016
5.44e-05
-0.0002192
0.001401
-0.001182
-0.008858
-0.001009
0.009867
0.001141
-0.0006237
-0.0005171
-0.06477
0.09689
-0.03212
-0.0135
0.008744
-0.08821
0.03987
0.0001862
-5.253e-06
-0.000181
-8.651e-06
-5.484e-05
6.349e-05
0.000168
-0.0003411
0.0001731
8.354e-05
-0.0002416
0.0001581
-0.001044
-0.0006864
0.001731
0.002577
-0.004341
0.001764
-0.0003462
-7.96e-06
0.0003541
0.8567
0.1643
0.0004851
-0.0006359
0.0001508
-0.0003053
7.442e-07
0.001269
-0.002181
0.0009122
0.0001998
-0.0002016
-0.0003557
-0.0002823
0.001058
-0.001232
0.0001749
-0.3778
-0.4372
0.815
0.0007205
0.001259
-0.001979
-0.5429
-0.3508
0.8937
0.04309
-0.01513
0.004279
-6.91e-05
-0.09094
-0.1654
0.2563
0.04584
0.1207
-0.1665
2.008e-07
-6.176e-08
-1.39e-07
-0.00054
0.0004382
0.0001018
-0.07539
-0.1017
0.1771
0.001306
-0.0009623
-0.0003438
0.174
-0.05317
0.0001284
0.0008609
-0.002449
0.005363
-0.002914
-0.01101
-0.01259
0.0009366
0.001353
-0.002289
-0.2058
0.2366
-0.03081
-0.0005127
0.0008463
-0.0003336
-0.0001973
-0.0001333
0.0003306
-6.991e-06
1.462e-05
-7.626e-06
0.0001464
0.0002247
0.003169
-0.0005925
-0.0001475
-0.000244
0.0003914
-0.003843
0.001078
0.002765
-0.001216
-0.00173
0.002946
0.003588
-0.003009
-9.192e-05
0.0001548
-6.287e-05
0.0005014
0.0001222
-0.0006236
0.002495
0.0002215
-0.1826
0.1233
0.0008771
-0.0003162
-0.0005609
-0.003297
0.003325
-2.802e-05
0.001242
0.0001146
-0.001357
-6.124e-06
6.185e-06
-6.117e-08
-0.000613
0.0004081
0.0002049
-0.8567
0.3138
-0.2571
0.1335
0.1237
0.0002724
0.0001785
-0.0004509
7.082e-05
0.0001127
-0.0001835
-0.00012
-0.0001929
0.0003129
0.01952
-0.009614
-0.009907
0.199
-0.1891
-0.009881
0.008906
-0.01218
-0.0003603
-2.201e-05
0.0003823
0.09689
-0.05413
-0.04276
0.001556
0.0006758
0.0004822
-0.0002098
0.0001605
-0.0002109
5.043e-05
-0.01676
0.03192
-0.01516
-3.842e-06
-1.693e-05
2.078e-05
0.0006594
-0.0002351
-0.0004243
-0.001622
0.0004475
0.001174
-0.001276
0.0006941
0.0005817
0.1943
-0.1485
-0.006116
0.01734
-0.5011
-0.9702
-0.4975
-0.9641
-0.01072
0.001805
-0.0009703
0.0007817
0.0001886
-0.004243
-0.0002246
-0.0004124
-0.0008634
-3.758e-05
-0.0003804
0.000418
-0.01316
0.04785
0.002334
0.001111
0.000225
-0.0001055
-0.0001195
-4.236e-05
-8.985e-05
0.0001322
-0.0004448
4.2e-05
0.0004028
0.0003663
0.0009398
-0.0002698
0.0001104
0.0001594
0.0003525
-0.0004387
8.628e-05
0.0004932
-0.0003502
-0.000143
3.974e-05
-0.000195
0.0001553
-0.0006717
0.0005363
0.0001354
0.0009
-0.001194
0.0002935
-3.6e-06
9.468e-05
-9.108e-05
0.0001574
-0.002057
-0.02698
0.02903
-0.0003456
0.0003064
3.914e-05
-0.0006196
-0.0001874
3.304e-05
-0.001252
0.001219
0.3006
-0.4097
0.1091
0.0005929
6.653e-05
0.0002776
-0.0005605
0.0002829
-0.002068
0.001841
-0.004049
-0.003093
0.007142
0.0009156
-0.0009565
4.093e-05
-8.879e-05
0.0006902
-0.0006014
0.3812
0.1361
-0.5172
-0.1182
-0.04865
-0.1732
0.2413
-0.06813
-0.000118
0.0001401
-2.211e-05
0.4307
-0.8085
-0.00151
0.001488
2.201e-05
0.06118
0.03571
0.0001623
-0.0002312
6.691e-05
-0.0005549
0.0004879
0.1167
-0.1223
0.03255
-0.01483
-0.01772
-0.0001465
0.0006488
-0.0005023
1.215e-07
2.029e-07
-3.245e-07
-0.0004158
0.0007462
-0.0003304
0.9298
-0.6979
-0.2319
0.0008974
0.001311
-0.002208
4.295e-05
0.000147
-0.0006856
0.0004976
0.000188
0.006192
-0.004765
-0.001427
-0.08632
-0.02024
1.351e-05
1.804e-06
-1.531e-05
0.01657
-0.02043
0.003859
4.207e-06
-5.953e-05
-0.0006484
0.0009192
-0.0002708
0.0003383
-0.0003377
-5.458e-07
0.2462
-0.2561
0.009964
0.005737
-0.004965
-0.0007713
1.314e-05
-5.361e-05
4.047e-05
0.0002084
0.0005266
-0.000735
-0.000681
0.0007505
-6.951e-05
-0.0001326
0.0002697
-0.0001371
0.003744
0.001993
-0.0003132
0.0002646
-0.02301
0.02096
0.009143
-0.07392
6.214e-05
-0.0001021
3.994e-05
-0.5082
0.03725
-0.0007728
-4.511e-05
0.0008179
-9.51e-05
5.36e-05
5.762e-05
0.01652
-0.00445
0.003515
0.0009345
-0.0001964
0.0006533
-0.0004569
-0.002428
0.002399
2.9e-05
0.1109
0.4878
-0.5987
0.0004408
-0.0008675
-0.0002545
-0.0001924
0.000447
-0.0005812
-1.071e-05
0.0005919
0.001132
0.007876
-8.561e-05
-0.0003437
0.0004293
-0.001073
0.0006704
0.0001427
0.0002777
-0.000776
0.000659
0.0001171
-0.0004113
6.514e-05
7.644e-05
0.0005871
-0.0006635
-0.000819
0.0001497
0.0006692
-0.0004127
4.365e-05
-4.984e-05
4.609e-05
3.751e-06
-0.000363
0.0003917
-2.87e-05
-0.6746
0.8714
0.0008722
-0.0002258
0.008437
-0.01083
0.002397
-0.003417
0.004122
-0.01208
0.0007478
0.01133
-6.839e-05
2.088e-05
-0.01097
-0.007067
0.01804
-1.275
1.437
-0.1617
0.00049
-0.000494
4.006e-06
-9.188e-05
-5.188e-05
0.0001438
0.005905
0.01154
-0.01745
0.0006942
-0.0006222
-7.202e-05
0.5729
-0.1917
0.001025
-0.002074
0.00105
-5.564e-05
0.0002433
-0.0001877
-0.06
0.04574
-0.02542
-0.1804
0.7005
-0.6548
-0.04574
0.0006834
-0.0007141
0.0672
-0.02992
-0.0003474
-0.0001029
0.0004503
0.05141
-0.05486
0.003455
3.521e-05
0.0002306
-0.01058
-0.1336
0.1442
0.0004345
-0.0003205
-0.000114
0.05478
-0.2279
-0.0002019
-0.0002038
0.0006141
-0.000671
5.687e-05
-0.0007231
0.0004191
0.000304
-0.001349
0.002996
-0.001647
-6.485e-05
0.0001253
-6.045e-05
-0.0192
0.007493
0.0117
0.0004564
-0.0002433
-0.0002131
0.0003069
9.872e-05
-0.0004056
9.569e-05
-1.11e-05
-8.46e-05
0.0005066
-0.0001135
-0.0003931
-9.562e-05
0.003646
-0.00355
-0.002754
0.002369
-0.0001094
-9.166e-05
0.000201
6.79e-05
0.0004383
-0.0005062
0.00196
-0.001698
-0.0002618
7.708e-05
-0.0001865
0.3522
-0.9409
0.5887
0.1197
-0.0009311
-0.1188
-0.0006593
0.0002714
0.0003878
0.0002193
-0.0002361
1.676e-05
-1.538
0.1226
1.415
0.000936
-0.0005695
-0.0003665
-0.001923
0.01164
-0.009717
0.004945
0.008841
0.0001931
-0.0001222
0.03097
-0.01696
-0.01401
1.412
-0.2684
-1.144
5.346e-07
-0.0001863
0.0001858
-0.01261
0.01068
0.0001345
-0.0001182
-1.628e-05
0.0001299
-3.949e-05
-9.037e-05
0.0001543
-0.0001091
-4.515e-05
0.0003404
-1.893e-05
-0.0003215
-0.0001696
1.869e-05
0.0001509
-0.0003516
-0.0002614
-0.0006694
6.042e-05
0.000609
0.0002876
0.0004066
-7.247e-05
4.336e-06
6.813e-05
-0.1255
0.2558
-0.1302
-0.0001874
0.0003047
-0.1018
0.08381
0.01797
0.0007364
-0.0005757
-0.0001607
0.0006372
-0.001312
0.0002544
-0.0001879
-6.655e-05
0.000397
-0.001506
0.001109
-1.335e-08
-3.941e-08
-0.0006433
0.0003192
0.0003241
-0.000297
0.0007652
-0.0004681
0.03035
-0.01838
-0.01197
0.001812
-0.002275
0.0004621
-0.2868
0.231
0.05585
0.0001121
4.22e-05
0.1167
0.003036
0.0001938
2.763e-05
-0.0002214
0.0008164
-0.0005781
-1.15e-07
1.15e-07
1.518e-07
-1.745e-07
2.266e-08
1.926e-08
-1.864e-08
-6.179e-10
1.196
-0.8183
-0.3778
-0.0001701
-0.0001754
3.457e-05
-4.856e-05
1.399e-05
-0.1451
-0.112
-0.0007652
5.728e-05
0.000708
-0.000299
0.0009034
-0.0006044
-0.0004006
0.0004366
-3.6e-05
0.003333
-0.0003102
-0.003023
-5.793e-06
0.0006199
-0.0006183
-0.0001048
0.0005837
0.0003523
4.585e-05
-4.271e-05
-3.14e-06
-0.4358
0.7881
-0.000328
0.0001906
0.0001374
4.954e-07
-4.733e-07
-2.206e-08
0.0005302
-0.0006059
7.571e-05
0.0003699
-8.447e-05
-0.0002854
2.409e-05
-1.929e-05
0.06307
-0.1793
0.003332
-0.0008411
-0.05159
0.07825
-0.0004213
0.0004892
0.04314
0.2453
-0.2885
-0.0002931
7.045e-05
0.0002226
-3.457e-05
-6.14e-05
9.597e-05
9.716e-05
-9.159e-05
-5.567e-06
1.524
-0.9007
-0.623
-0.000514
-0.0001453
0.009287
0.003968
-0.01326
4.804e-06
-6.733e-06
1.929e-06
-0.000618
-1.427e-05
0.0006323
2.241e-05
-3.591e-06
-1.882e-05
0.0008387
-0.0003224
-0.0005163
-0.1073
0.1022
0.005127
3.669e-05
-0.000178
0.0001413
0.0008487
0.0006929
-0.001542
-0.8026
-0.7352
0.002349
-0.001502
-0.0001217
0.001624
-0.0003996
0.0002023
0.0003106
0.000605
2.151e-06
0.0002172
0.0002009
-3.209e-05
-0.0001688
-0.0008273
0.0001789
-0.001218
0.001508
-0.0002896
0.000815
5.159e-06
-0.0008202
0.0002184
-0.0004719
0.0002536
0.0001285
0.0003615
0.1129
0.05573
-0.1686
-8.187e-05
6.128e-05
2.059e-05
6.684e-05
-0.0003877
0.0003209
0.0004401
-0.0004885
4.838e-05
0.001091
-0.002357
0.001267
0.000146
-0.0002753
0.0001293
-0.7908
0.1139
0.6769
-0.7884
0.6296
0.1588
0.002612
-0.01147
-0.0002522
-1.769e-05
-0.0005008
-0.00123
0.00173
0.1376
-0.2081
0.07052
1.473
-0.649
-0.8237
-0.001416
0.00227
-0.0008543
0.0002516
-0.0003717
0.0001201
-0.0007628
0.0003214
0.0004414
-0.0006586
-1.08e-05
0.0001178
1.078e-05
-0.0001286
-6.751e-05
6.238e-05
5.126e-06
-0.003017
0.002855
0.0001616
-0.1421
0.1004
0.04175
1.4
-1.277
-0.1226
-0.000109
5.356e-05
5.541e-05
-0.0001801
-0.0003823
0.0005624
0.0005077
-0.001617
0.001109
0.3138
0.5212
-0.8351
3.605e-06
6.921e-06
0.002519
-0.002954
0.0004357
-0.0003261
0.0003205
5.588e-06
0.4926
-0.0003149
0.0003607
-4.587e-05
-0.02773
0.1653
0.0002684
-0.0004648
-0.000166
5.236e-05
0.0001136
0.0003057
-1.957e-05
-0.0002862
0.9781
0.1616
-1.14
-4.921e-05
-0.0001868
0.000236
0.0007981
0.0003428
-7.46e-05
4.195e-05
0.3912
1.021
0.0004256
-0.001524
-1.401e-05
-5.069e-06
0.3946
0.3059
-0.001701
-0.002749
-0.1649
0.005644
0.1593
-0.0003825
-0.0004495
0.000832
-0.0001098
1.305e-06
0.0001085
-0.2801
0.1892
0.000215
-0.0001961
-1.886e-05
0.000248
0.0004625
-0.0007105
-6.625e-06
8.867e-06
-2.242e-06
-0.0001267
-0.0001342
0.0002609
-0.0003733
0.0001783
0.000195
-0.000193
-0.0004787
-0.0002233
-0.0004623
5.789e-06
0.0002024
-0.0002082
0.0006913
-0.0007388
0.000624
-0.0008749
0.0006141
-0.000954
0.0003398
0.0001133
-0.0001286
1.523e-05
0.0002761
-0.0001689
-0.0001072
0.0003092
-0.0002296
-7.957e-05
-0.5993
0.9132
0.000738
-0.0005103
-0.0002277
0.1075
-0.1938
0.08626
-0.0005142
6.939e-05
-0.1255
0.03492
0.0906
0.0001211
-0.0003856
-0.3424
-0.9328
-0.1526
0.07717
-0.002553
-0.004946
0.007499
-0.0003975
-0.0004215
-0.0003423
-0.0002712
0.0006135
-1.04
0.1282
0.9119
1.107
-0.8992
-0.2076
0.0001258
-4.43e-05
-1.483e-05
-9.771e-06
2.46e-05
-0.0001049
0.0002084
-0.0004828
0.0001809
0.0003019
0.0009339
-0.0003237
-0.0006102
0.0002687
-0.0006161
-0.0005169
0.0007669
-0.0002499
-0.0006696
0.0004151
-0.0002075
0.0001177
-9.88e-05
0.0002719
-0.0001731
-2.808e-05
-6.576e-06
3.465e-05
-1.16
0.1199
3.394e-05
7.896e-05
-0.0001129
4.223e-05
-0.0001884
0.0001461
-7.473e-05
-0.004844
0.004919
0.006332
-0.003941
-0.002391
0.1776
-0.2383
0.06072
1.03
0.4431
1.998e-05
0.0001405
-9.409e-06
-0.0001553
-5.608e-05
-1.639e-05
1.393e-05
-9.239e-06
-4.69e-06
-0.07681
-0.04871
-0.9852
-0.4034
1.389
-0.000222
-0.0001674
0.0003895
-0.0001279
3.011e-06
0.0001249
-0.05063
-0.007534
1.744e-05
1.649e-05
-3.393e-05
0.01416
-0.002093
-0.01207
-0.03382
0.08607
-0.05225
-0.0003895
0.0001433
0.0002461
0.002199
-0.00273
0.0005312
-0.0001655
0.0002077
0.004283
-0.008943
0.00466
-3.563e-09
3.568e-09
-4.19e-05
8.817e-06
5.987e-05
0.0004467
0.000325
0.0001315
-0.0002746
-0.0002654
0.000198
7.08e-05
-0.0002688
-0.0003034
-1.15e-05
-0.0001234
0.0002177
-9.435e-05
0.05537
0.007303
-0.06267
0.0002505
-9.797e-05
-0.0001525
2.158e-05
-9.347e-06
-1.223e-05
-0.0001654
-0.0006074
0.7439
-1.068
0.3242
0.001274
-0.0002167
-0.004527
0.004018
0.0005095
0.00105
-0.002872
0.001822
1.075
0.4491
-0.02534
0.7693
2.301e-07
-8.856e-07
6.555e-07
0.02292
0.007431
0.0003583
-0.000632
0.0002737
0.0001276
-0.0001408
1.318e-05
-0.0003193
0.0005527
-0.0002333
0.0007666
0.0001105
0.004878
0.002434
-0.007312
0.0002419
-0.000132
0.003156
-0.006386
0.00323
0.0009346
-0.000796
-0.0001386
-0.1498
-0.1997
0.3494
1.05
-0.04468
-1.006
-0.001959
-0.0006715
0.00263
-0.0005786
0.009015
4.065e-05
-0.0001586
-0.001845
0.002895
0.0003201
-0.0003558
3.576e-05
0.001056
-0.0003434
-0.0007122
0.0002813
0.0001719
-0.0004532
-0.02229
0.02439
0.00275
-0.006799
-1.124
-0.3858
1.51
-0.0001227
0.0002308
-0.0001081
0.02244
0.008529
-0.001036
0.0007771
0.0002591
8.579e-08
-0.002369
0.0006717
0.001698
0.0002147
-2.851e-05
0.0002427
-0.0006585
1.257
-0.2785
-0.001815
0.00206
-0.0002444
-0.0003448
-0.000539
0.0008838
-2.562e-05
2.651e-05
-8.954e-07
-0.001034
-0.0002698
0.001304
0.0004758
6.84e-05
-0.0005442
-0.0001523
-5.519e-05
-0.0001069
0.0003328
-0.0003822
-0.0003939
0.0001126
-0.0004015
0.0002889
0.0006651
0.000439
-0.001104
0.0005698
-0.0007283
0.00137
-0.00237
0.0009996
-0.003502
0.000205
6.579e-05
-0.0006927
0.002989
-0.005807
0.002818
-1.629e-07
1.629e-07
-0.0009136
-0.003614
-0.06592
0.02399
0.0001624
-0.001351
0.001188
0.0001593
0.0003095
-0.0004688
6.878e-07
0.001108
-0.001109
0.1015
0.3726
-0.4741
-6.338e-05
2.905e-05
3.433e-05
-0.0001049
0.001005
-0.0006676
-9.525e-05
-1.51
0.525
3.667e-06
1.026e-05
-0.0004478
8.48e-05
0.0003126
-0.0003576
4.508e-05
-0.3879
-0.6372
1.025
8.321e-06
-0.0001317
0.0001409
-0.0001722
3.128e-05
8.137e-05
-0.000249
0.0001676
5.403e-05
-0.0001782
0.0001241
-1.197
0.8094
-0.000672
0.0004087
0.0002633
1.181e-05
-5.913e-06
-5.896e-06
0.0001707
-0.000264
9.337e-05
-0.0006372
0.0006438
-6.663e-06
-0.1579
0.06334
0.09454
0.0001558
6.917e-05
0.0001382
-0.0001862
4.803e-05
-0.1625
0.1686
-0.006168
0.002652
0.0005238
-0.003176
-0.003751
0.003643
0.0001081
0.0002255
-2.744e-05
-0.0004387
-0.0002047
-0.002594
0.003673
-0.002697
0.0003275
-9.573e-06
-0.0002112
0.0002208
-0.0001243
0.0002923
0.2815
0.5861
-0.8676
-0.000492
-0.00018
-0.0005855
0.0009247
-0.0003392
0.000108
-0.0001094
1.378e-06
-0.0001177
-0.0004635
-0.01403
0.01285
0.00118
-0.0008846
0.0001193
4.399e-05
0.0001569
1.027
-0.7451
5.094e-05
-0.0004515
-0.0001644
-0.0002251
0.0001077
2.257e-06
-0.0001099
1.534e-07
-6.053e-07
-6.77e-06
0.0001145
4.137e-05
5.579e-05
0.0004212
7.36e-05
-0.0004948
0.0003055
-0.0001967
-0.0001088
-0.004384
0.001154
0.00323
0.1727
1.023
1.371e-08
-1.371e-08
0.0001702
0.0002353
-0.0004055
0.0001306
-0.0002573
8.275e-05
-7.514e-05
-7.611e-06
-0.0001545
0.0003648
-0.0002103
3.469e-05
-0.0002098
0.0001752
-0.0004196
6.975e-05
0.0003498
-0.000508
0.0004373
0.5588
0.8408
0.0001842
0.000683
-0.0008671
-0.004287
0.001224
0.003063
-1.503
0.3787
-0.0002424
0.0004243
-0.0001819
0.0001917
0.0005446
0.002005
-0.0007635
0.0008542
0.0002979
-0.001152
0.1374
-1.018
0.8802
0.0001359
-0.0006529
0.000116
-2.55e-05
-9.047e-05
-0.2753
-0.7149
0.8523
0.004928
0.001404
-0.001086
0.001324
-0.0002382
0.0004683
0.0004657
-0.0002214
-9.086e-06
0.0002305
-0.0006807
0.0005783
0.0001023
6.01e-06
-5.1e-07
-5.5e-06
-0.003956
0.0009889
0.002967
-0.003939
0.005203
-0.001264
-0.799
-0.2691
-0.0005885
0.0001576
0.0004309
-0.0004442
0.0002093
0.0002349
0.0003985
-0.0003293
-6.919e-05
9.815e-05
-0.0001901
0.001821
-0.001732
1.084
0.08551
-1.17
0.2756
-0.2125
0.07542
-0.1313
0.05585
-8.081e-06
1.973e-06
6.108e-06
0.0451
-0.8441
0.03481
-0.02012
-0.01468
-0.0001074
0.0002251
-0.0001177
-0.0008654
-0.001047
0.001912
0.0001327
5.84e-05
-0.0001911
-0.2164
0.8478
-0.6314
-0.0002255
0.0001553
7.01e-05
-0.000394
0.002229
-0.001835
-0.2392
-0.01681
0.256
0.0002487
0.0002444
0.691
0.4732
-1.164
-0.000371
-0.0002335
0.0006045
1.509e-05
4.186e-07
-1.551e-05
0.0002209
-0.0001147
-0.0001062
-0.0001363
4.559e-05
9.073e-05
2.381e-05
1.524e-05
-3.905e-05
0.1844
-0.04857
-0.1359
0.0001468
0.000117
-0.0002638
-0.008856
0.008844
1.211e-05
-0.0002289
-6.417e-05
-6.728e-06
1.163e-05
-4.899e-06
-0.0002124
-0.0002006
0.000413
0.0003074
9.796e-05
-0.0004054
-0.006912
-0.007121
0.00518
-0.005763
0.0005824
0.001795
-0.0003726
-0.001422
6.951e-05
-6.951e-05
-0.3405
0.1969
0.1437
-0.0003562
0.00107
-0.0007134
0.0007543
-0.0004814
-0.000273
-3.899e-07
6.932e-06
-6.552e-06
1.293e-05
8.652e-06
0.0001241
-0.0001122
-1.189e-05
-0.1174
1.202
0.04702
-0.027
-0.02002
-7.621e-05
-3.276e-05
-0.0002094
1.116e-05
0.0001982
-4.071e-06
5.899e-06
-1.83e-06
-2.3e-05
8.271e-05
-5.974e-05
2.427e-06
-2.427e-06
3.316e-05
-3.195e-05
-1.214e-06
5.797e-06
-5.798e-06
-0.0005971
0.0002033
0.0003938
5.757e-05
3.543e-05
-9.299e-05
0.0007226
-0.0005385
4.445e-05
-3.141e-05
-1.304e-05
0.09828
-0.07331
-0.02497
0.001804
-0.001367
-0.0004367
1.092
-1.517
0.4243
1.317
-1.74
0.4225
-0.0001188
-0.000347
0.0004658
-0.04301
0.09297
-0.04996
0.0002181
-1.949e-05
-0.0001986
-0.004695
0.002173
0.002522
-0.001165
0.0001108
-0.007516
0.008514
-0.0009979
0.04571
-0.1018
0.05606
-0.0006227
-1.827e-06
0.0006246
0.0006282
0.0009502
-0.001578
0.2527
-0.006509
-0.0001872
0.0003525
-0.0001652
0.0002874
-0.0004918
0.0002044
0.09398
-0.04827
0.0002105
-0.0001062
-0.0001043
2.22e-05
-2.22e-05
-0.0001598
3.952e-05
0.0001203
0.0008723
-0.002763
0.001891
5.72e-05
-4.454e-05
-1.266e-05
-0.000259
0.0004607
-0.0002017
-0.0002213
0.0002102
1.109e-05
-0.3375
0.1228
0.2147
0.000269
-1.459e-05
-0.0005
-0.0005363
-0.0505
0.3511
0.0002331
-0.0001729
0.0005753
-5.403e-05
-0.0005213
0.0005445
-0.001127
0.0005828
-0.4768
-0.5489
1.026
0.2188
7.971e-06
-0.2188
0.001641
-0.00111
-0.0005309
1.645e-06
7.571e-07
-2.403e-06
0.0001084
-0.002063
0.001955
-2.203e-05
2.203e-05
0.0009361
-0.0004879
-0.0004482
0.000696
-0.0001903
-0.0005058
-0.001885
0.001731
0.0001547
7.241e-06
4.528e-06
-1.177e-05
0.0001045
3.18e-05
-0.0001363
-0.4113
1.371
-0.9601
-0.0001419
0.0001966
-5.478e-05
0.005308
-1.638e-05
-0.005291
-0.3004
1.333
-1.033
-0.0005903
-0.0007683
0.001359
9.11e-08
-3.225e-08
-5.885e-08
0.0007072
0.0003538
-0.001061
6.407e-05
-2.468e-05
-3.939e-05
0.006533
-0.003677
-0.002856
0.001179
0.003045
-0.004225
-1.835e-06
-3.302e-06
5.138e-06
2.605e-05
-2.605e-05
0.0005528
0.0002442
-0.0007971
-0.08802
-0.05408
-0.4602
0.223
0.2371
0.002771
-0.001049
-0.001721
-0.001312
0.0009895
0.0003223
-0.0001173
-0.0002083
0.0003256
0.000289
-0.0001628
-0.0001262
-0.0005717
-0.0001783
0.00075
0.000293
-0.0001382
-0.0001548
-0.002604
0.002311
0.0002938
-0.00888
0.01747
-0.008587
0.0001167
0.0001763
-0.03341
-0.01539
0.04879
2.564e-05
1.352e-06
-2.699e-05
0.1368
-0.5761
0.4393
-0.0002906
-0.0003603
0.000651
9.617e-07
6.538e-06
-7.5e-06
0.000533
-0.0006624
0.0001294
-0.0005012
0.0004094
9.181e-05
0.0007354
-0.0003634
-0.000372
-0.3821
0.09754
0.2846
-0.1884
0.05513
0.1332
6.35e-05
-0.000107
4.347e-05
0.007666
-0.008625
0.0009591
-0.0001374
0.000263
-0.0001256
0.0004383
-0.0007482
0.0003099
9.265e-05
-0.0001754
8.277e-05
-0.0005888
0.0005657
2.311e-05
2.744e-05
-4.091e-05
1.347e-05
0.0001394
-9.759e-05
-4.184e-05
-1.461e-05
0.0001073
-9.27e-05
8.666e-05
-8.666e-05
-9.781e-06
-0.0001682
0.0001779
-3.737e-05
0.0002646
-0.0002273
-0.000334
0.000275
5.9e-05
-0.00271
0.004062
-0.001352
-0.0004281
0.0008477
-0.0004196
0.000115
0.0006793
0.0002815
-0.0002968
1.534e-05
-1.85e-06
-3.421e-06
5.271e-06
9.822e-07
-4.964e-07
-4.858e-07
0.0008998
-0.000423
-0.0004768
-0.32
0.4214
0.5908
0.217
-0.8077
0.000504
-0.0007014
0.0001974
-8.95e-05
-0.0002909
0.0003804
0.004713
-0.0008954
-0.003818
-0.1887
1.181
-0.9922
0.0002439
0.000586
-0.0008299
0.0007059
6.098e-05
-0.002432
-0.005683
0.008115
-0.0001176
-7.316e-05
0.0001908
5.629e-05
3.896e-05
-9.525e-05
5.612e-05
-0.0002441
0.000188
0.002713
-0.003116
0.0004025
0.7872
-0.6762
-0.008197
0.002703
0.005494
0.012
0.0006571
-0.01266
0.000126
-1.506e-05
-0.0001109
4.762e-05
7.926e-05
-0.0001269
0.0001744
-0.000131
-4.338e-05
-0.004268
0.001718
0.00255
-8.199e-05
-0.001345
0.001427
-6.902e-05
0.0001731
-0.0001041
-0.0006251
0.0009398
-0.0003147
-0.002213
-0.001497
0.00371
-0.001297
0.0005199
0.0007768
-0.0006605
-0.0001364
0.0007969
0.001743
-0.001426
-0.000317
-0.0004479
0.000375
7.286e-05
0.0002355
-0.0001692
-6.627e-05
0.2599
-0.3219
0.06195
6.508e-05
-3.713e-05
-2.795e-05
1.355e-06
5.587e-06
-6.941e-06
-0.0008145
0.0002291
-3.634e-06
-0.0003102
0.0003139
-1.859e-05
1.568e-05
0.02116
-0.1183
0.09716
4.651e-05
-4.65e-05
-9.031e-05
9.031e-05
-0.1664
-1.047
1.213
1.258
0.2308
-1.489
0.0002971
-0.0001866
-0.0001105
-0.0001268
0.0008144
-0.0006877
1.943e-07
-2.401e-07
4.581e-08
-2.223e-06
-1.201e-05
1.423e-05
-0.0001999
0.002004
-0.0004439
0.0005821
-0.0001382
-0.0002388
-2.526e-05
0.0002641
-0.001129
-0.004048
0.005177
0.003498
0.005087
-0.008585
-0.1885
0.06226
0.1263
-0.0002644
0.0001729
9.144e-05
3.304e-05
0.000615
-0.0006481
0.0001722
-0.0003646
0.0001925
-0.004512
0.001014
0.003498
3.708e-06
-6.303e-06
2.595e-06
-0.0003832
0.0005152
-0.000132
0.8164
-1.148
0.3311
-0.0001088
0.0001088
-0.0002308
0.0001464
8.446e-05
0.166
0.5625
-0.7285
-0.0001939
2.426e-05
-1.286
1.12
0.2418
-0.4256
0.1839
-0.003058
0.002116
0.0009418
-0.01108
-0.002029
0.01311
-2.473e-06
1.665e-06
8.059e-07
0.78
-0.9453
0.1653
0.0005381
-0.0002826
-0.0002555
0.4765
-0.1364
-0.3401
0.0005231
-0.0009031
0.00038
-0.01658
0.005548
0.01103
0.000457
-0.0003932
-6.386e-05
0.006003
-0.003157
-0.002846
-0.0001274
-0.0005275
0.0006549
-0.0005638
-0.0002297
0.0007935
-0.0002006
-6.575e-05
0.0002663
0.001806
0.0003746
-0.002181
0.1502
0.6489
-0.7991
0.0105
0.06032
-0.07082
0.000717
-0.0004085
-0.0003085
-0.0001591
-0.0008131
0.0009722
-7.957e-05
0.0002587
-0.0001791
-0.0003166
0.0001839
0.0001327
5.235e-05
-3.135e-05
-2.1e-05
0.0001787
4.727e-05
-0.000226
4.174e-05
-4.174e-05
0.0001559
-0.0002901
0.001074
-0.0007786
-0.0002959
2.653e-05
-6.688e-05
4.036e-05
-0.0007134
0.0004587
0.0002547
0.0001132
5.357e-05
-0.0001667
0.005537
-0.006285
0.0007484
-0.001203
0.0004962
0.0007072
0.4959
-0.3668
-0.1291
0.0002719
-0.0002949
2.298e-05
2.075e-05
-4.77e-05
2.695e-05
-0.000314
2.332e-06
0.0003117
0.4965
-1.095
0.599
-0.0004286
0.0001553
0.0002733
-0.001071
0.000575
0.0004964
-0.0023
0.0005947
0.001705
0.001435
-0.0006436
-0.0007911
6.657e-05
-0.000242
0.0001754
0.00142
0.006549
-0.007968
-0.0001623
0.0001862
-2.389e-05
0.000173
0.0005851
-0.000758
-0.001148
-0.001152
4.471e-05
8.554e-05
-0.0001302
-0.0004486
-6.923e-05
0.0005178
-1.047e-05
3.738e-06
-1.181
0.5417
0.6388
0.002281
-0.004505
0.002224
0.0002354
-8.783e-05
-0.0001475
0.1283
0.05685
-0.1852
0.0003004
-8.753e-05
-0.0002129
-4.58e-05
-9.371e-06
5.517e-05
-1.246
1.246
0.001494
0.002246
-0.003739
3.364e-05
-5.043e-05
1.679e-05
0.0678
-0.05196
-0.01584
0.006451
-0.0009142
0.0004325
-0.0003082
-0.0001243
4.174e-05
-2.022e-05
-2.152e-05
0.01206
-0.009352
-0.002707
-1.27
0.5241
0.7463
-0.0002438
0.0003958
-0.000152
0.0001395
-0.0003389
0.0001994
0.4041
-0.2566
-0.1475
-0.008361
0.006001
0.002361
0.001895
-0.03202
0.03012
0.0005752
0.0002296
-0.0008048
0.0002516
9.047e-05
-0.0003421
-0.001493
-0.000729
0.002222
-0.05367
-0.05563
0.1093
1.049e-06
1.024e-05
-1.129e-05
5.319e-08
1.961e-06
-2.014e-06
0.0001841
0.000554
0.0003362
-0.00116
0.0008239
0.0006713
-0.001081
0.0004099
3.007e-05
1.439e-05
-0.3934
1.243
-0.8493
0.0002341
-0.001145
0.0009114
0.3506
-0.007408
-0.3432
-0.000368
0.0005267
-0.0001588
-0.0009191
0.0008861
3.297e-05
-0.0001624
-0.0001915
0.0003539
0.0003979
0.001037
3.209e-06
2.209e-07
-3.43e-06
-3.878e-05
4.209e-05
-3.315e-06
-0.5586
0.2189
0.3397
-3.59e-06
3.59e-06
0.0001871
-0.0001397
-4.744e-05
-5.131e-05
0.0002071
-0.0001558
-0.001776
-0.0002082
0.001984
-7.408e-05
0.0001213
0.0005774
0.0004147
-0.0009921
-0.001257
0.0007266
0.0005301
-0.0002037
0.0001684
3.529e-05
0.002029
-0.001408
-0.0006207
-0.009168
0.02452
-0.01535
5.799e-06
-5.799e-06
0.0002557
-0.0003217
6.601e-05
-0.0007616
0.0003334
0.0004281
0.0002783
0.000133
-0.0004113
0.001356
-0.001127
-0.0002286
0.0001795
0.0003359
-0.0005154
1.956e-05