/*--------------------------------*- C++ -*----------------------------------*\
  =========                 |
  \\      /  F ield         | OpenFOAM: The Open Source CFD Toolbox
   \\    /   O peration     | Website:  https://openfoam.org
    \\  /    A nd           | Version:  8
     \\/     M anipulation  |
\*---------------------------------------------------------------------------*/
FoamFile
{
    version     2.0;
    format      ascii;
    class       volVectorField;
    location    "5";
    object      U;
}
// * * * * * * * * * * * * * * * * * * * * * * * * * * * * * * * * * * * * * //

dimensions      [0 1 -1 0 0 0 0];

internalField   nonuniform List<vector> 
127143
(
(0.00209 -9.175e-05 0)
(-0.0001046 -0.0004911 -6.04e-24)
(-7.968e-05 -0.000391 1.103e-23)
(-0.0001032 -0.0004698 -2.552e-27)
(0.0002209 6.225e-05 -1.328e-22)
(-8.747e-05 -0.0004799 7.392e-27)
(0.02004 0.01248 0)
(0.004705 0.002296 -1.978e-22)
(0.003686 0.001785 6.528e-22)
(-0.0021 -8.231e-05 0)
(0.03325 0.0458 1.022e-21)
(0.01329 0.008881 7.982e-22)
(2.983e-05 -1.129e-05 -2.255e-24)
(-0.0001329 -0.0005215 0)
(0.04303 0.009957 1.928e-20)
(0.04704 -0.004328 0)
(-0.0002581 -0.001188 -1.793e-23)
(0.03382 -0.0897 1.745e-20)
(-0.2236 0.0155 0)
(0.05783 0.009552 0)
(-0.2684 0.0734 8.721e-21)
(-0.005448 0.001816 0)
(0.9751 -0.1371 0)
(0.6222 -0.05963 0)
(-0.005387 0.001957 -2.125e-22)
(0.2291 -0.03535 0)
(-0.01504 0.0002806 1.679e-20)
(-0.01508 -0.0005413 -2.526e-22)
(0.2236 -0.09961 0)
(0.4338 -0.09329 1.255e-20)
(0.5175 -0.02977 0)
(0.2226 -0.03278 -1.84e-21)
(-0.01613 -0.003664 2.585e-21)
(-0.0831 0.02203 -1.868e-20)
(0.867 -0.06767 2.492e-20)
(-0.01665 -0.003245 -1.707e-24)
(-0.265 0.08852 6.142e-21)
(0.04813 0.03957 -5.904e-21)
(0.7351 -0.06594 -1.559e-21)
(0.2379 -0.01052 3.896e-25)
(-0.2243 0.01274 0)
(1.027 0.4855 -5.158e-21)
(1.012 0.4733 3.775e-21)
(6.942e-05 -2.819e-05 0)
(0.02329 -0.07953 -1.287e-20)
(-0.08682 0.0205 6.045e-21)
(0.2264 -0.1048 0)
(-0.2589 0.08227 -8.518e-22)
(0.7102 -0.1242 2.43e-22)
(0.7048 -0.05591 -1.105e-21)
(0.0558 -0.004005 -1.952e-22)
(0.9707 -0.02877 4.778e-20)
(-0.1852 0.05201 0)
(1.211 0.2289 -1.094e-20)
(1.001 -0.001307 2.954e-20)
(0.542 -0.1342 3.57e-22)
(1.001 -0.0013 -2.659e-20)
(1.088 -0.07474 0)
(1.012 -0.01065 -1.762e-20)
(1.208 0.2296 -2.116e-20)
(0.5046 -0.04429 -7.704e-20)
(-0.2321 0.07005 -1.464e-21)
(1.055 -0.07182 4.577e-21)
(1.001 0.0005399 7.015e-20)
(-0.05561 0.003232 0)
(0.8543 -0.222 -8.528e-21)
(1.093 0.1828 3.538e-20)
(1.019 -0.0749 0)
(1.026 -0.07451 1.207e-21)
(0.991 -6.978e-05 0)
(0.5649 -0.04191 0)
(-0.01629 0.0003022 -7.916e-21)
(-0.25 -0.05687 -7.352e-21)
(1.013 -0.0105 -9.753e-21)
(1.004 0.003239 -3.844e-22)
(-0.01639 -0.000411 7.917e-21)
(1.013 0.04309 -2.849e-20)
(-0.288 0.0928 0)
(0.5608 -0.1447 -6.276e-22)
(1 0.0008034 0)
(0.2193 -0.099 1.61e-23)
(0.06481 0.008044 4.487e-23)
(-0.1543 0.03693 8.208e-21)
(0.2897 -0.01995 0)
(-0.2003 -0.003468 1.475e-21)
(-0.2829 0.09113 0)
(0.8279 -0.08224 -2.806e-21)
(-0.02244 -0.002051 4.291e-21)
(0.854 -0.2195 0)
(1.147 0.7309 0)
(0.9954 -0.006239 0)
(1.073 0.03919 0)
(1.142 0.7258 0)
(-0.2677 0.07305 -8.961e-21)
(-0.2598 0.0557 0)
(1.008 0.06369 8.802e-21)
(1.029 0.4791 1.134e-20)
(0.3732 -0.0278 0)
(-0.2916 0.08921 2.991e-21)
(1.089 0.1825 0)
(1 0.0007794 0)
(0.7373 -0.1318 0)
(0.8902 0.8395 -1.134e-21)
(1.048 -0.1152 0)
(-0.2818 0.09056 -1.54e-21)
(-0.2929 0.0897 4.277e-21)
(0.9608 -0.1486 -1.859e-21)
(0.9904 -1.952e-05 0)
(0.6784 -0.2511 0)
(1.002 -0.0009215 4.157e-20)
(0.05271 0.006381 -5.566e-21)
(-0.02224 -0.001546 8.233e-21)
(-0.2706 0.06637 -9.096e-21)
(0.2632 0.5282 0)
(0.9961 0.01185 1.413e-20)
(1.003 -0.1572 -2.814e-22)
(0.9897 0.04716 -7.2e-21)
(1.004 0.003388 -4.172e-20)
(1.013 0.04193 2.247e-20)
(-0.00118 -0.004975 0)
(1.002 -0.0009797 -5.813e-20)
(-0.1695 0.04552 -2.384e-21)
(0.7742 -0.2759 0)
(1.069 -0.08279 1.369e-20)
(0.2317 -0.1031 7.515e-22)
(0.1601 -0.02129 -6.626e-21)
(-0.2587 0.07791 0)
(1.042 0.005344 1.257e-19)
(-0.1506 0.0171 -2.237e-21)
(0.5397 -0.1563 -8.344e-22)
(-0.3099 0.09417 0)
(-0.2742 0.06614 -6.559e-21)
(1.079 -0.09169 -9.963e-21)
(-0.2876 0.09262 0)
(-0.0003847 -0.002102 -9.838e-23)
(-0.31 0.09403 -2.947e-21)
(1.1 -0.06375 0)
(-0.2427 0.06806 2.165e-21)
(0.2614 -0.148 -6.173e-21)
(1.138 -0.00888 1.157e-20)
(0.943 -0.1647 9.421e-21)
(0.9865 0.0334 4.776e-20)
(-0.1583 0.0387 2.933e-22)
(-0.1666 0.05251 -5.695e-21)
(-0.1822 0.05189 -9.077e-22)
(1.161 0.5367 3.53e-21)
(-0.05483 0.3038 1.921e-21)
(1.001 0.000469 -6.348e-20)
(-0.2717 0.06563 5.687e-21)
(0.7792 0.6803 -6.283e-22)
(1.056 -0.1084 -3.479e-21)
(0.7675 -0.1524 0)
(0.1576 0.04651 2.433e-20)
(0.8305 -0.1279 0)
(0.2855 -0.1716 0)
(-0.2028 -0.003135 0)
(1.089 -0.07377 -5.139e-21)
(0.511 -0.1774 0)
(-0.2585 0.08192 -1.6e-21)
(0.3277 -0.02929 1.76e-21)
(0.6201 -0.03807 0)
(0.05955 -0.03026 8.008e-21)
(0.9954 -0.006091 4.741e-22)
(-0.3098 0.09425 -7.448e-21)
(0.3347 -0.08928 0)
(-0.06551 0.004547 1.377e-20)
(-0.2728 0.09095 -4.023e-21)
(0.6687 -0.2132 1.989e-20)
(-0.01182 0.00435 -8.811e-21)
(0.9384 0.05608 -6.897e-21)
(-0.06707 0.02162 0)
(-0.1678 0.05335 2.665e-21)
(0.9924 -0.1666 -6.68e-22)
(0.8706 -0.2433 -2.773e-21)
(0.9784 -0.001122 3.309e-20)
(-0.1223 0.012 4.096e-23)
(1.133 0.5647 -6.798e-22)
(-0.1513 0.01777 -2.179e-21)
(0.6873 -0.06911 0)
(1.009 -0.02196 6.127e-21)
(0.8697 -0.2436 -9.358e-22)
(0.9976 0.002563 0)
(-0.1015 -0.007147 5.876e-22)
(-0.122 0.01086 -4.136e-23)
(0.5515 -0.1625 1.79e-21)
(-0.2296 0.06918 2.649e-21)
(0.9972 0.3274 -3.993e-21)
(0.2792 0.5448 -5.687e-21)
(0.6504 -0.0632 -3.373e-21)
(1.03 -0.03345 4.863e-20)
(-0.2229 0.04663 6.28e-22)
(-0.2153 0.04112 -5.882e-21)
(1.098 -0.06253 8.166e-20)
(0.3901 0.8898 -3.4e-22)
(-0.0002352 -0.00221 1.641e-22)
(-0.2515 0.07675 0)
(1.004 -4.895e-06 0)
(0.9975 -6.823e-06 4.945e-22)
(0.02349 0.008629 0)
(0.9907 0.017 4.655e-21)
(1.013 0.008384 3.793e-20)
(0.9273 0.01168 1.14e-19)
(0.9958 -0.04781 1.253e-20)
(-0.2646 0.0881 -2.891e-21)
(-0.0001814 -0.000976 2.401e-24)
(0.9568 -0.05722 5.223e-21)
(1.004 -0.08937 -1.354e-21)
(0.9868 -0.169 2.462e-22)
(0.5442 -0.1173 -1.498e-20)
(0.9962 0.01148 -7.237e-21)
(1.239 -0.05781 2.367e-20)
(-0.1793 0.003943 9.046e-22)
(0.9924 -0.003477 1.244e-20)
(-0.006193 0.006656 -9.526e-21)
(-0.3016 0.09135 1.016e-24)
(0.03579 0.001586 0)
(-0.05627 0.0194 -1.623e-21)
(0.9704 -0.1829 -4.801e-22)
(-0.2917 0.07764 -7.932e-21)
(1.006 -0.08819 -4.564e-22)
(1.125 0.5584 -1.398e-21)
(1.002 0.005761 1.736e-21)
(0.7562 -0.1474 9.324e-23)
(-0.1574 0.05579 9.464e-22)
(0.3056 -0.02815 0)
(-0.08361 0.02875 0)
(0.4125 -0.1065 -8.463e-22)
(0.07153 0.04197 6.49e-21)
(-0.1635 0.05686 3.878e-21)
(-0.2754 0.08388 4.383e-21)
(-0.2696 0.07244 5.518e-21)
(0.9988 0.001957 4.455e-22)
(-0.256 -0.05643 1.463e-20)
(-0.000598 -0.009601 0)
(-0.2691 0.07254 0)
(1.06 -0.06861 1.345e-20)
(-0.3099 0.09417 3.609e-21)
(0.005425 -0.0008353 1.024e-22)
(1.013 0.008145 -3.538e-20)
(-0.2099 0.0439 3.043e-21)
(-0.218 0.04212 5.053e-21)
(-0.09248 0.005243 -1.884e-20)
(-0.2051 0.05412 -4.48e-22)
(0.5296 -0.1854 1.193e-24)
(0.03108 0.05342 0)
(-0.0009592 -0.005139 2.681e-26)
(0.8721 -0.1738 -3.988e-22)
(-0.01531 0.0002809 0)
(-0.0118 0.003259 2.536e-21)
(0.9992 -9.134e-05 -1.413e-21)
(1.137 0.4595 -1.509e-20)
(0.2296 -0.02535 5.329e-21)
(0.9309 -0.2114 0)
(-0.2263 0.06069 0)
(0.6879 -0.1658 6.215e-22)
(0.6952 -0.2549 0)
(1.041 0.004693 -9.846e-20)
(0.2159 0.09874 0)
(0.9132 -0.2218 0)
(0.8525 0.2333 1.376e-20)
(-0.2415 0.07455 -4.252e-21)
(1.004 -0.01111 3.314e-21)
(1.147 0.05204 1.898e-22)
(0.9857 0.03234 -3.871e-20)
(-0.07841 0.04139 0)
(-0.0807 0.004754 -6.496e-21)
(-0.2513 0.0809 1.061e-20)
(0.2562 -0.1693 0)
(0.547 -0.1606 4.901e-20)
(0.8888 0.1941 -7.033e-21)
(0.3711 -0.06785 0)
(0.9753 -0.001769 -3.978e-20)
(-0.2513 0.07763 -1.298e-21)
(-0.2112 0.04403 -3.241e-21)
(1.11 -0.06897 7.951e-21)
(-0.2207 0.04632 -2.978e-21)
(-0.2702 0.06649 0)
(0.7953 -0.1259 2.397e-21)
(0.9611 -0.003267 -1.413e-21)
(0.8632 -0.2431 2.783e-21)
(1.003 -0.0005797 6.307e-22)
(1.002 0.06733 2.234e-21)
(1.049 -0.1148 -9.928e-24)
(0.9943 0.00419 0)
(1.004 0.01208 6.05e-21)
(-0.0009607 -0.002325 -2.376e-23)
(-0.3078 0.08874 0)
(0.9964 0.01287 7.526e-21)
(0.758 -0.1077 2.089e-21)
(1.009 -0.02195 7.927e-21)
(0.1877 0.04295 -3.162e-20)
(0.9619 -0.1722 0)
(1.059 -0.06958 -1.321e-20)
(0.9753 -0.1807 0)
(0.9941 -0.005812 -8.633e-21)
(0.6633 -0.2626 -5.38e-22)
(0.4801 -0.03626 3.06e-21)
(-0.02398 -0.01767 -7.251e-22)
(-0.2055 0.05459 1.731e-21)
(0.9652 0.2045 4.54e-21)
(0.3681 -0.04334 -1.476e-21)
(0.9028 -0.2069 -1.12e-21)
(0.776 -0.2124 -1.241e-20)
(1.003 -0.1569 2.737e-21)
(0.2924 -0.02089 0)
(0.4678 -0.2519 5.228e-23)
(0.9874 -0.1687 8.355e-23)
(0.9921 -0.003575 0)
(-0.1058 0.04714 -8.347e-24)
(1.057 -0.1079 -4.129e-21)
(0.9412 -0.144 -2.363e-21)
(-0.009303 -0.02523 -2.68e-22)
(0.5142 -0.1229 0)
(1.002 -0.0007109 1.063e-21)
(0.9912 0.005241 -2.283e-20)
(1.163 0.5905 6.32e-22)
(-0.03244 0.04295 2.514e-21)
(0.3504 -0.03948 3.936e-21)
(1.266 0.09325 3.225e-20)
(0.9321 -0.01684 -2.442e-21)
(0.974 -0.136 0)
(0.5493 -0.03711 -5.262e-21)
(1.077 0.01537 2.859e-20)
(0.9313 -0.2111 3.055e-22)
(1.155 0.584 0)
(-0.05673 0.03331 -4.348e-21)
(0.9068 -0.03324 5.239e-20)
(0.01874 -0.009484 -5.852e-24)
(0.6028 -0.01961 2.446e-21)
(1.102 0.5972 5.542e-21)
(-0.2531 0.07742 0)
(1.004 0.01192 -6.055e-21)
(0.8723 -0.06898 -9.611e-20)
(1.004 2.356e-06 0)
(0.9974 -5.359e-06 0)
(0.8303 -0.1242 0)
(0.6896 -0.2528 -3.507e-21)
(0.9921 -0.1667 -6.375e-22)
(-0.253 0.07758 -1.715e-21)
(-0.3022 0.08554 -2.402e-20)
(1.133 -0.01143 -5.191e-20)
(0.9707 -0.1826 0)
(-0.1662 0.0475 8.188e-22)
(-0.218 0.04598 4.774e-22)
(0.2008 0.1445 -3.093e-22)
(0.7472 -0.1033 -1.357e-21)
(-0.2193 0.05351 -6.841e-21)
(-0.2598 0.05706 3.338e-21)
(0.4038 -0.04931 -2.356e-21)
(-0.1349 0.00924 0)
(0.4296 -0.04706 1.85e-21)
(-0.1548 0.04847 7.149e-21)
(-0.1487 0.03211 -8.732e-22)
(-0.2198 0.04616 2.134e-21)
(0.917 0.05782 0)
(-0.2364 0.05981 -1.64e-20)
(-0.2281 0.06122 -3.102e-21)
(1.164 0.5151 -3.549e-21)
(1.005 -0.007465 6.702e-21)
(0.5846 -0.01867 0)
(-0.2456 0.07236 -2.201e-21)
(1.073 -0.07259 1.355e-21)
(0.4349 -0.09447 -3.816e-20)
(0.7315 -0.05182 0)
(0.7133 -0.05969 -3.068e-21)
(1.002 0.00274 2.798e-22)
(0.991 0.01664 -1.399e-20)
(0.8968 -0.00343 0)
(-0.143 0.02662 5.186e-21)
(0.9602 -0.002412 0)
(0.3859 -0.02423 7.024e-20)
(1.078 0.0126 -6.118e-20)
(0.2799 -0.03039 -4.481e-21)
(0.6986 -0.05013 4.317e-21)
(1.031 -0.03183 0)
(1.206 0.07766 -8.429e-22)
(0.5207 -0.04905 2.576e-21)
(0.004859 -0.009814 1.496e-26)
(-0.2831 0.08741 -7.656e-21)
(0.9702 -0.005625 5.122e-21)
(0.2283 -0.0008501 -6.126e-20)
(0.187 -0.02162 6.551e-21)
(0.4509 -0.05503 0)
(0.9005 -0.209 -4.514e-21)
(0.9902 0.04545 0)
(0.1028 -0.007762 0)
(0.9503 0.1704 0)
(0.252 -0.01209 0)
(-0.2549 0.07763 -1.249e-21)
(0.03371 0.04165 -2.33e-20)
(1.013 -0.008262 -5.13e-20)
(0.7463 -0.1849 0)
(-0.1198 0.04072 3.243e-21)
(0.6892 -0.1763 7.298e-22)
(0.6487 -0.05738 5.28e-21)
(0.4867 -0.03182 3.825e-21)
(0.7507 -0.1871 -9.893e-21)
(0.553 -0.03087 0)
(0.9156 0.05597 0)
(1.003 -0.01148 0)
(0.253 -0.02097 -1.674e-21)
(1.002 0.005473 -7.396e-22)
(-0.2519 0.0661 0)
(-0.1044 -0.007031 0)
(0.9558 0.1729 0)
(1.039 -0.1215 2.434e-21)
(-0.2798 0.0896 -8.022e-21)
(1.068 -0.0978 6.664e-21)
(1 0.0007128 -7.569e-20)
(0.7295 -0.07556 0)
(0.673 -0.2808 0)
(0.4083 -0.05622 -2.386e-21)
(0.9443 -0.1636 -9.778e-21)
(-0.2595 0.0817 0)
(0.7745 -0.2746 0)
(-0.2602 0.05589 -4.836e-21)
(-0.3019 0.08835 -7.306e-21)
(0.326 -0.06574 0)
(0.2477 0.05205 5.671e-21)
(0.6923 -0.2756 -1.633e-21)
(-0.2729 0.09096 0)
(-0.06008 0.02106 -6.231e-21)
(-0.2877 0.08544 0)
(1.002 0.0001242 3.525e-23)
(-0.2768 0.08452 -5.404e-21)
(0.902 0.2813 -6.244e-21)
(1.008 0.4624 3.183e-22)
(0.9136 -0.1524 -1.024e-20)
(-0.09944 0.00688 1.889e-20)
(0.9851 -0.1102 -8.23e-22)
(1.003 -0.0002562 0)
(-0.2882 0.08656 0)
(-0.1466 0.03322 0)
(1.172 -0.08372 1.264e-19)
(0.1838 0.05756 1.35e-21)
(1.002 0.002678 -8.919e-21)
(1.007 -0.1495 2.27e-21)
(-0.2259 0.05238 -1.291e-20)
(0.9715 -0.02769 -1.803e-20)
(0.9939 -0.005688 0)
(0.9974 -0.0004539 -5.132e-21)
(0.7399 -0.05963 1.586e-21)
(1.098 -0.07018 -2.838e-20)
(0.6889 -0.2577 6.159e-21)
(0.9593 0.0401 0)
(0.394 -0.02838 -2.276e-22)
(0.9886 0.004794 5.34e-20)
(0.3783 -0.2447 0)
(0.8865 -0.006146 -1.345e-21)
(-0.1791 0.001971 8.954e-22)
(-0.2864 0.08265 0)
(0.517 -0.06703 -2.281e-23)
(1.04 -0.1207 -7.047e-21)
(-0.131 0.02372 3.176e-20)
(0.8533 0.094 -6.708e-23)
(-0.255 0.08397 -9.314e-22)
(0.3501 -0.04145 -1.367e-21)
(-0.1088 0.007828 0)
(-0.2639 0.08678 0)
(0.4855 0.08334 5.674e-21)
(1.081 -0.09175 3.193e-21)
(-0.1365 0.02913 2.986e-21)
(-0.1089 0.05563 0)
(0.3279 0.4904 -2.304e-20)
(-0.1412 0.02905 3.32e-24)
(0.9909 -0.001255 0)
(1.006 0.0292 0)
(-0.22 0.05137 0)
(-0.2155 0.0582 7.9e-21)
(0.9984 -0.0001961 0)
(-0.2846 0.0866 3.43e-21)
(1.234 0.0914 2.338e-20)
(1.07 -0.08124 -2.073e-20)
(-0.01916 0.04218 -8.469e-22)
(1.009 -0.07389 -2.872e-21)
(1.004 -0.0001634 0)
(0.2229 -0.1058 -3.694e-20)
(1.275 0.1022 -2.229e-20)
(-0.1762 0.06126 -2.446e-21)
(-0.1017 0.04658 2.012e-22)
(0.2104 -0.112 5.639e-22)
(0.3639 -0.2357 -3.569e-21)
(-0.1898 0.03783 3.369e-21)
(0.5124 -0.123 0)
(0.6756 -0.275 0)
(0.2047 0.05983 -1.4e-21)
(-0.05407 0.03907 -1.663e-22)
(1.012 0.001799 4.338e-20)
(0.3739 -0.03353 -2.967e-21)
(0.9712 0.01433 4.274e-20)
(1.171 0.5979 2.033e-22)
(0.864 -0.08596 2.435e-21)
(-0.1894 0.05185 0)
(1.166 0.5295 1.562e-21)
(-0.000302 -0.001627 0)
(-0.3075 0.09432 9.052e-21)
(0.273 0.3266 8.236e-21)
(1.081 -0.01933 -3.237e-22)
(0.9491 0.6816 5.231e-21)
(0.9927 -0.001329 -7.362e-20)
(0.2068 -0.1145 0)
(1.007 0.02925 2.674e-23)
(-0.2021 0.05766 0)
(-0.2465 0.07559 -4.643e-21)
(-0.0002254 -0.001285 0)
(0.0006097 -0.003348 1.361e-22)
(0.000273 -0.0001401 -4.552e-23)
(1 -0.0002622 -3.613e-20)
(-0.2403 0.06113 0)
(-0.03096 0.01456 0)
(0.9915 0.005346 4.419e-20)
(-0.2469 0.0745 3.323e-21)
(0.7714 -0.2765 6.222e-21)
(-0.2955 0.09492 7.877e-21)
(1.019 -0.1414 0)
(-0.288 0.083 0)
(0.5082 -0.06244 -1.636e-21)
(-0.2844 0.08623 -3.5e-21)
(-0.04663 0.008417 1.916e-21)
(0.9958 -0.0008409 0)
(-0.1531 -0.01289 -1.158e-21)
(-0.003648 0.001276 0)
(0.6582 -0.2664 1.1e-21)
(0.3912 -0.0389 1.06e-21)
(-0.0717 0.02249 1.319e-21)
(1.013 -0.009913 -1.557e-20)
(1.057 -0.1081 -3.797e-21)
(0.9985 -0.0485 -2.732e-21)
(-0.09657 0.05383 7.055e-21)
(0.9975 -0.006066 0)
(0.3352 -0.02495 0)
(0.2973 0.1534 0)
(-0.1421 0.04847 -4.726e-21)
(0.9972 1.708e-05 0)
(-0.2205 0.05207 -2.391e-21)
(1.044 -0.09292 -9.199e-21)
(-0.02947 0.007471 -2.169e-26)
(0.6465 -0.2775 2.791e-21)
(0.03262 0.01641 1.673e-21)
(-0.09336 0.05184 -3.054e-21)
(0.9684 0.006786 2.843e-21)
(-0.2318 0.07963 -2.805e-21)
(0.7559 -0.2715 -3.465e-21)
(0.9983 -0.0001951 4.315e-21)
(0.9018 -0.2086 6.046e-21)
(0.3131 0.05793 -3.5e-20)
(0.5213 -0.04309 -2.438e-21)
(0.7471 -0.05064 2.276e-21)
(-0.2018 0.05461 -8.356e-21)
(-0.1714 0.05789 1.877e-21)
(-0.2522 0.07685 2.255e-21)
(0.4543 0.09825 0)
(0.7205 -0.28 1.531e-21)
(-0.2869 0.09373 0)
(-0.2936 0.08813 2.385e-22)
(1.021 -0.004002 -8.165e-21)
(0.2771 -0.0129 5.933e-22)
(-0.3098 0.09047 -4.052e-21)
(0.3894 -0.06127 3.135e-21)
(1.045 -0.1102 -5.659e-21)
(-0.2249 0.06474 1.822e-21)
(1 0.001473 0)
(0.9998 0.001888 1.289e-20)
(0.8597 0.2247 -2.233e-20)
(-0.2132 0.05217 -3.409e-21)
(0.9327 0.7109 0)
(0.9901 0.006308 -3.043e-20)
(1.003 -2.923e-05 -5.615e-22)
(0.7687 -0.2641 0)
(0.5642 -0.2464 0)
(-0.2783 0.0895 2.606e-21)
(0.6743 -0.2754 0)
(-0.1416 0.04781 7.257e-21)
(-0.06653 0.02186 0)
(0.9478 -0.2003 -3.859e-22)
(1.012 0.03737 0)
(0.9999 -0.0004931 7.339e-21)
(-0.1548 0.05431 4.035e-21)
(-0.2935 0.08847 -2.764e-21)
(0.9278 -0.2119 7.783e-22)
(1.002 -0.001318 1.267e-20)
(-0.01702 0.0002301 3.89e-21)
(1.063 -0.1031 0)
(-0.2908 0.08079 8.853e-21)
(0.9714 -0.004563 8.772e-21)
(0.2663 -0.03297 3.111e-22)
(0.9899 0.006042 5.612e-20)
(-0.2781 0.08887 -1.307e-21)
(-0.1078 -0.01418 0)
(0.004393 0.04363 4.569e-22)
(0.9998 -3.839e-05 4.156e-22)
(-0.2428 0.07984 -1.182e-20)
(-0.2407 0.07381 -1.011e-21)
(0.09915 -0.05815 -9.371e-21)
(1.004 -0.0001506 -1.745e-21)
(0.9704 -0.1509 1.918e-21)
(-0.05707 0.01946 7.606e-22)
(0.9975 -0.0005552 0)
(1.039 -0.1217 0)
(0.9926 0.01166 -9.28e-22)
(0.8768 -0.05715 3.196e-21)
(-0.077 0.03321 0)
(0.9944 0.003963 3.08e-20)
(-0.1792 0.04489 1.915e-20)
(0.5749 -0.078 1.403e-21)
(-0.007901 -0.02704 0)
(-0.2361 0.0455 -6.455e-21)
(-0.1366 0.0373 -5.832e-22)
(0.4502 -0.04954 -5.545e-21)
(0.4641 -0.0563 -1.595e-21)
(0.1865 -0.006843 -4.844e-20)
(0.7632 -0.07101 -1.289e-21)
(1.134 0.7211 8.126e-22)
(0.7947 -0.03545 -2.657e-21)
(-0.1663 0.04483 -1.031e-21)
(-0.13 0.04546 -1.104e-21)
(0.3238 -0.02936 1.351e-21)
(1.002 -0.001277 0)
(0.5441 -0.1143 1.522e-23)
(0.993 0.004704 -1.268e-20)
(0.2182 0.1612 -2.592e-20)
(1.045 0.02399 5.007e-20)
(-0.1534 0.03835 4.105e-21)
(1.003 -0.0003025 0)
(0.9962 0.01269 2.019e-20)
(1.09 -0.07366 2.466e-20)
(0.6958 -0.2775 8.337e-22)
(-0.2796 0.07393 4.194e-21)
(1.003 -0.0006765 1.08e-20)
(1.002 -0.0017 -1.68e-20)
(-0.1694 0.05823 -3.278e-21)
(-0.04243 -0.006166 0)
(-0.1824 0.04317 8.441e-21)
(0.3872 -0.03176 -3.94e-21)
(-0.2366 0.04066 0)
(0.6887 -0.2569 -5.219e-21)
(-0.287 0.08321 -5.951e-22)
(0.6726 -0.2816 0)
(-0.2163 0.04563 -6.625e-23)
(-0.2674 0.08064 -3.181e-20)
(-0.0613 0.00363 0)
(1.003 -0.0007136 -1.879e-21)
(-0.1194 0.009196 1.223e-20)
(-0.2099 0.04385 2.349e-22)
(1.005 -0.1522 -7.027e-22)
(0.8291 0.114 0)
(0.9951 -0.005803 -2.692e-20)
(1.003 -2.956e-05 5.926e-23)
(-0.03978 0.03354 -4.463e-21)
(0.2963 -0.1677 3.056e-24)
(-0.05423 0.03966 8.339e-22)
(-0.03097 0.009644 1.365e-21)
(1.044 0.02501 0)
(1.004 -4.406e-05 2.572e-22)
(-0.3012 0.0944 0)
(-0.1194 0.009907 0)
(0.9305 0.01166 -9.061e-20)
(-0.05226 0.007122 -7.27e-21)
(1.009 -0.1297 0)
(0.9806 0.001962 -3.8e-20)
(-0.2216 0.06808 1.071e-20)
(0.9289 -0.2131 -3.573e-22)
(-0.2069 0.04346 1.497e-21)
(0.8265 -0.1536 -3.796e-20)
(3.792e-05 -1.875e-05 0)
(-0.08784 0.02959 0)
(-0.2639 0.0866 -7.94e-22)
(-0.2552 0.08406 1.738e-21)
(-0.308 0.08876 0)
(-0.2273 0.04494 6.402e-21)
(0.3042 -0.04299 -7.16e-22)
(-0.197 0.03693 0)
(0.9637 -0.02066 -1.088e-20)
(-0.168 0.02908 8.413e-21)
(-0.05335 -0.00619 0)
(-0.2503 0.06613 -4.481e-21)
(1.001 -0.001244 3.869e-20)
(0.8234 -0.1279 -1.708e-21)
(0.8362 -0.2147 0)
(0.5479 0.03107 -3.305e-20)
(0.9971 -3.077e-06 2.32e-23)
(1.001 -0.001286 -5.155e-20)
(0.000496 -0.01331 0)
(1.081 -0.01676 -6.796e-21)
(0.6009 -0.1118 6.361e-22)
(-0.2238 0.04602 -3.481e-22)
(0.5224 -0.2814 0)
(-0.1075 0.04671 1.483e-20)
(1.206 0.295 0)
(0.3445 -0.02915 1.733e-21)
(0.6759 0.007439 4.907e-20)
(0.6899 -0.1863 0)
(1.011 0.001545 -1.567e-20)
(1.003 -0.0007451 0)
(1.135 0.4789 0)
(0.9113 0.2836 0)
(-0.1578 0.03095 1.186e-21)
(0.5548 0.01845 0)
(0.4043 -0.1664 3.411e-21)
(-0.2413 0.06214 0)
(0.635 -0.2618 -2.766e-21)
(1.232 -0.05727 1.509e-19)
(0.4905 -0.09878 5.662e-20)
(1.001 -4.324e-06 -4.2e-23)
(0.4433 -0.02844 -1.184e-21)
(1.011 -0.07308 -5.135e-22)
(0.6536 -0.1524 -2.566e-22)
(-0.0005586 -0.002606 2.32e-23)
(1.001 -0.1525 6.56e-22)
(-0.06486 0.04336 -7.138e-21)
(-0.2815 0.08667 7.765e-21)
(1 -2.729e-05 -4.013e-22)
(1.022 -0.1088 1.003e-22)
(0.6974 -0.05964 -3.537e-21)
(-0.04747 0.0163 0)
(-0.1227 -0.03309 9.369e-21)
(-0.1583 0.05849 4.245e-21)
(-0.216 0.04559 -1.005e-21)
(0.8426 0.7268 0)
(-0.3024 0.08852 7.037e-21)
(0.5431 -0.2862 4.93e-21)
(-0.2247 0.06267 -2.073e-21)
(0.7348 -0.1799 1.46e-22)
(0.9946 -0.1057 2.836e-21)
(1.057 -0.1079 1.948e-21)
(-0.2568 0.07711 3.832e-21)
(0.9832 -0.163 -3.734e-22)
(0.002783 -0.0001661 0)
(0.8335 -0.2158 0)
(0.9386 0.05204 3.443e-20)
(0.9096 -0.2046 -1.335e-22)
(0.6894 -0.2894 4.594e-21)
(0.8717 -0.09006 -7.358e-22)
(1.006 -0.0009403 0)
(-0.08094 -0.005425 -4.456e-22)
(-0.1481 0.04799 -1.43e-20)
(-0.2777 0.08931 -2.422e-21)
(1.004 -3.726e-05 -2.869e-22)
(-0.03031 0.0112 0)
(-0.2942 0.0886 0)
(0.2688 -0.03656 5.351e-21)
(1.002 -1.285e-05 3.361e-22)
(-0.1882 0.03574 8.73e-21)
(-0.1962 0.05982 0)
(-0.2212 0.04383 1.182e-20)
(-0.1708 0.02691 -5.216e-21)
(1.001 -5.707e-05 -2.88e-22)
(-0.273 0.08651 -4.228e-21)
(-0.0444 0.00871 0)
(-0.1965 0.05491 1.466e-20)
(-0.2275 0.05976 0)
(0.9894 0.0182 -5.471e-21)
(-0.1643 0.04796 7.465e-22)
(0.05001 0.1478 0)
(1.022 0.001992 -1.657e-20)
(0.9784 -0.1761 -6.348e-22)
(0.9595 -0.1888 0)
(-0.2286 0.04518 -6.203e-21)
(-0.3075 0.09437 0)
(0.9033 -0.2055 -3.628e-21)
(1 -0.1526 0)
(0.1991 -0.02347 8.792e-22)
(-0.2646 0.08361 0)
(0.9977 -2.559e-05 -4.956e-22)
(-0.2732 0.08662 4.006e-21)
(-0.2376 0.0724 6.898e-22)
(0.2412 -0.01953 0)
(0.4436 -0.06401 1.839e-21)
(1.22 0.2232 0)
(-0.2464 0.07413 0)
(-0.1801 0.06081 4.747e-22)
(0.9974 3.561e-06 1.237e-22)
(-0.2953 0.09479 -7.404e-21)
(-0.2225 0.06796 0)
(-0.11 0.04025 0)
(-0.0001643 -0.01111 -2.586e-23)
(-0.1047 0.04118 -7.412e-22)
(-0.144 0.0495 7.329e-21)
(-0.2501 0.05706 -9.177e-22)
(-0.1949 0.04435 0)
(0.9398 -0.206 0)
(1 -0.0002598 1.774e-20)
(-0.0002151 8.045e-05 -1.718e-23)
(-0.3109 0.09215 9.436e-21)
(-0.2356 0.04545 5.693e-21)
(-0.1221 0.04356 2.45e-21)
(-0.2662 0.08641 -5.34e-21)
(-0.2499 0.0848 1.03e-20)
(-0.2916 0.09353 -3.384e-21)
(0.6041 -0.04645 0)
(0.9997 -0.0004594 0)
(-0.1416 0.02748 0)
(1.041 -0.1215 -1.535e-23)
(1.001 -3.821e-05 0)
(-0.2859 0.08944 -1.209e-20)
(1.171 0.5967 0)
(0.9546 -0.145 1.657e-21)
(0.7875 -0.2722 -1.862e-21)
(1.004 -8.593e-05 -7.104e-21)
(-0.285 0.08263 0)
(-0.1238 0.01635 0)
(1.011 0.001856 -5.062e-20)
(1.004 -9.512e-05 0)
(0.7952 0.1097 0)
(-0.235 0.07117 5.426e-21)
(-0.2367 0.04188 -2.282e-21)
(-0.2453 0.08374 4.58e-21)
(-0.2768 0.08859 3.631e-21)
(0.06317 -0.001133 2.334e-23)
(1.031 -0.13 0)
(0.6851 -0.1433 -2.815e-20)
(1.002 -0.001304 0)
(-0.2969 0.09226 -3.86e-21)
(-0.2693 0.08991 0)
(0.5268 -0.03185 -2.795e-21)
(0.3245 -0.02647 0)
(0.6713 -0.2112 -1.869e-20)
(1.003 -0.0004456 0)
(1.013 -0.00947 2.227e-21)
(0.9797 -0.005309 3.699e-20)
(-0.016 -0.0001265 4.101e-21)
(1.001 -0.001228 6.799e-21)
(1.213 -0.074 -5.8e-20)
(0.3251 -0.1967 1.086e-21)
(1.008 -0.1263 3.862e-21)
(0.2224 -0.03415 -3.039e-21)
(1.002 -0.001606 0)
(-0.1533 0.006755 -1.35e-21)
(1.01 -0.1204 -2.432e-21)
(1.001 0.006967 0)
(0.4104 -0.04984 2.299e-21)
(0.9987 -0.0002244 0)
(0.5912 -0.2913 6.887e-21)
(-0.01782 0.0473 -6.451e-21)
(-0.1952 0.039 -1.296e-22)
(0.04033 0.06289 0)
(0.1967 -0.008985 7.382e-22)
(0.9952 -0.00651 1.08e-21)
(-0.1958 0.05317 0)
(0.8181 -0.1627 -9.999e-21)
(0.3433 -0.02676 0)
(-0.03714 -0.008465 -1.165e-21)
(0.3175 -0.04027 1.083e-21)
(0.6423 0.8944 -1.724e-21)
(1.217 0.2248 -9.936e-21)
(0.9826 -0.171 2.994e-22)
(0.7362 -0.2482 5.685e-23)
(0.06206 -0.005685 0)
(0.9999 0.008482 0)
(0.1799 0.04231 2.106e-20)
(0.5978 -0.193 0)
(0.01046 0.01592 1.115e-21)
(-0.05303 -0.005417 3.15e-22)
(0.1288 -0.02672 0)
(1.003 -0.0004131 0)
(1.09 -0.1406 3.614e-20)
(-0.1531 0.05315 -1.97e-21)
(0.2329 -0.05316 -1.567e-21)
(-0.01088 0.0001962 1.688e-20)
(0.06091 0.03265 0)
(0.005587 -0.005658 -1.403e-21)
(-0.0441 0.0001282 -3.73e-21)
(-0.008693 -0.0008255 3.653e-21)
(-0.2829 0.07245 -4.927e-21)
(-0.1323 0.04616 4.91e-21)
(-0.1322 0.02727 6.515e-21)
(0.1097 -0.007976 2.377e-21)
(1.004 0.04479 -1.286e-21)
(0.9267 -0.1343 0)
(1.004 -7.353e-06 0)
(0.9997 -4.018e-05 0)
(-0.182 0.04111 2.413e-21)
(1.05 0.04863 1.647e-21)
(-0.2252 0.04518 4.074e-21)
(-0.2591 -0.06235 -2.126e-20)
(0.2593 0.4981 0)
(1.071 -0.09594 -1.509e-20)
(1.054 -0.04669 -2.788e-20)
(1.107 0.5707 2.052e-21)
(0.8961 -0.2047 3.228e-22)
(1.013 -0.008143 3.601e-20)
(0.02205 0.01357 1.314e-22)
(-0.2805 0.09227 -1.469e-21)
(1.052 -0.04421 3.881e-20)
(-0.1666 0.03998 -2.123e-20)
(-0.02273 0.008208 -2.997e-21)
(-0.08924 -0.01964 0)
(0.9595 -0.192 0)
(0.06418 -0.01198 -1.633e-20)
(-0.126 0.05159 0)
(-0.2258 0.07733 0)
(0.994 -5.219e-05 2.805e-20)
(-0.185 0.05261 1.964e-21)
(0.6634 -0.1551 2.844e-22)
(1.005 -0.007245 0)
(-0.1939 0.04982 9.622e-21)
(-0.3103 0.09143 0)
(-0.2225 0.06703 -2.783e-21)
(0.9985 -0.0001777 2.055e-21)
(0.8673 -0.006316 5.793e-21)
(0.1519 -0.007205 0)
(0.04564 -9.975e-05 4.733e-23)
(0.8039 -0.2579 -4.292e-21)
(-0.02254 0.007608 0)
(-0.2853 0.08616 3.619e-21)
(0.6789 -0.2848 0)
(0.9227 -0.2031 -4.144e-23)
(-0.04247 0.01487 0)
(-0.1109 0.006553 3.547e-21)
(0.9995 -3.337e-05 -2.982e-23)
(0.2724 -0.1599 0)
(1.099 0.3928 -9.405e-21)
(1.004 -7.201e-06 0)
(0.7166 -0.2626 1.465e-22)
(-0.0008532 0.0001419 2.036e-22)
(0.1422 0.02497 -7.116e-21)
(-0.06961 -0.004073 -1.38e-20)
(1.13 -0.04571 7.484e-21)
(1.008 -0.1519 5.826e-22)
(-0.02456 0.008448 3.246e-26)
(0.03508 -0.003792 -4.722e-22)
(0.6116 -0.06624 0)
(1.011 0.03701 -8.84e-21)
(0.9971 0.004161 6.522e-21)
(0.9702 -0.1833 0)
(0.6408 -0.2684 -1.55e-21)
(-0.285 0.09358 -1.357e-20)
(-0.1847 0.04447 0)
(0.2968 0.7066 -6.542e-21)
(0.352 -0.1463 -2.027e-21)
(0.5793 0.01322 -2.192e-22)
(1.159 0.1855 -2.315e-20)
(0.3458 -0.1433 -1.986e-21)
(1.147 -0.008796 5.721e-20)
(-0.03129 0.002598 0)
(1.006 -3.795e-05 0)
(-0.2636 0.08397 4.174e-22)
(-0.002568 -0.03123 -8.187e-23)
(-0.197 0.05175 -6.773e-21)
(-0.2865 0.08262 0)
(-0.2936 0.08876 0)
(0.9954 0.002681 -2.143e-20)
(0.982 0.001642 1.494e-20)
(-0.1422 0.04941 0)
(0.9249 -0.1785 7.854e-21)
(-0.2297 0.07847 0)
(0.66 -0.08371 0)
(-0.2035 0.07178 -6.373e-21)
(-0.2424 0.06969 -2.112e-21)
(0.008263 0.04233 -7.814e-22)
(-0.09035 0.009217 -2.347e-21)
(-0.1253 0.008532 -1.324e-20)
(0.05906 -0.01062 -2.071e-21)
(-0.1879 0.0417 -1.695e-21)
(0.4572 -0.03128 2.091e-21)
(-0.2043 0.06144 1.175e-20)
(1.037 -0.1234 -5.115e-21)
(-0.2502 0.07659 5.454e-21)
(0.4065 0.8881 3.996e-22)
(-0.2566 0.08689 -2.682e-22)
(-0.001386 -0.03239 3.974e-22)
(-0.005712 0.001824 0)
(-0.295 0.08926 0)
(1.006 -0.0008973 0)
(1.005 -0.002656 2.47e-20)
(-0.2693 0.08451 3.056e-21)
(-0.2447 0.07774 0)
(1.003 -0.1551 4.439e-21)
(1.003 1.951e-05 0)
(0.6413 -0.2824 -4.569e-21)
(-0.2873 0.08309 3.085e-21)
(1.098 -0.06675 -2.06e-20)
(-0.229 0.07771 0)
(-0.005963 0.03396 -9.839e-21)
(-0.2524 0.07917 -1.38e-20)
(1.019 0.5888 -8.071e-21)
(0.9999 0.0006996 -4.913e-20)
(0.9875 -0.1604 0)
(1.118 -0.02532 -1.295e-20)
(0.229 -0.09064 0)
(0.2987 -0.02221 0)
(-0.1757 0.04982 5.667e-22)
(0.7084 -0.1917 1.531e-20)
(0.2025 0.04316 4.108e-20)
(-0.1473 0.0272 0)
(0.6287 -0.05552 -1.106e-21)
(1.1 -0.08159 0)
(-0.2409 0.06608 0)
(0.6477 -0.2884 5.093e-21)
(0.8589 -0.09908 2.64e-21)
(-0.2713 0.09072 0)
(0.3379 -0.1462 -2.526e-21)
(1.008 -0.01052 -1.178e-21)
(-0.05347 0.01759 0)
(-0.02873 0.009814 0)
(-0.2363 0.07192 0)
(-0.2334 0.04624 8.329e-21)
(0.03791 0.01598 -2.651e-20)
(1.002 0.01662 5.388e-22)
(-0.02604 0.006833 7.085e-21)
(0.063 -0.01411 0)
(1 -0.0002508 0)
(0.9991 -6.954e-05 -1.467e-20)
(-0.197 0.04948 -4.135e-24)
(-0.2764 0.07385 1.271e-20)
(-0.002218 0.0007466 -2.049e-22)
(-0.03985 -0.01399 3.424e-22)
(0.9388 -0.1358 -4.624e-22)
(0.6444 -0.2388 0)
(-0.2208 0.07202 -1.261e-20)
(0.9949 -0.1567 0)
(1.034 -0.1267 0)
(0.996 -0.006388 -8.325e-21)
(-0.2069 0.068 -1.925e-20)
(-0.1688 -0.0415 0)
(-0.2573 0.0851 -1.147e-20)
(0.9615 -0.1913 0)
(-0.03384 0.01012 8.51e-22)
(-0.2798 0.09128 -7.241e-21)
(1.002 -0.001043 -8.007e-22)
(0.06341 -0.01002 0)
(-0.2019 0.06567 -4.092e-21)
(0.9998 -0.0006956 -5.732e-20)
(-0.1946 0.0394 -5.063e-21)
(1.001 -0.000266 -5.822e-21)
(0.9949 -0.001558 2.322e-20)
(1.021 -0.1361 1.414e-21)
(0.9823 -0.1382 0)
(-0.0032 0.0003801 -2.562e-20)
(0.9993 -0.001475 5.546e-21)
(0.4156 -0.04892 -2.733e-22)
(1.004 0.005028 0)
(1.172 0.611 0)
(0.993 -0.1254 6.283e-22)
(0.02882 -0.001284 7.063e-21)
(1.048 -0.1151 -3.834e-21)
(0.5302 -0.1046 -7.093e-23)
(0.5856 -0.08377 0)
(-0.2093 0.06308 2.771e-20)
(1.043 -0.1138 5.574e-21)
(1.001 -0.002857 6.238e-21)
(1.003 0.005076 6.811e-21)
(-0.1912 0.05098 3.4e-21)
(0.8244 -0.1514 2.652e-22)
(-0.2454 0.08353 -1.171e-21)
(-0.2418 0.07798 0)
(0.1656 -0.0105 3.989e-25)
(-0.2062 0.06755 -7.311e-21)
(-0.02932 0.009898 -2.626e-20)
(-0.2366 0.04531 8.7e-21)
(0.6729 -0.1891 0)
(-0.06809 -0.0005478 -3.135e-20)
(0.5375 -0.0577 -5.469e-22)
(0.2009 -0.02668 0)
(0.8052 0.3906 3.922e-21)
(-0.09888 0.02943 0)
(1.004 -0.007507 4.463e-21)
(-0.1958 0.04016 2.501e-20)
(-0.0864 0.008341 7.2e-22)
(0.3148 -0.0519 0)
(0.999 -4.314e-05 2.817e-21)
(0.3881 -0.252 6.106e-21)
(-0.2677 0.07991 0)
(0.9763 -0.09142 4.469e-22)
(0.8619 -0.2372 3.391e-22)
(-0.2244 0.04719 -3.169e-22)
(1.041 -0.1221 -4.21e-21)
(-0.1298 0.02919 0)
(-0.2018 0.06672 3.63e-21)
(0.9803 -0.09218 1.332e-21)
(-0.1708 0.0553 -1.054e-22)
(0.5051 -0.1389 -1.751e-21)
(-0.03558 -0.009357 1.27e-21)
(1.001 -0.0005067 0)
(1.114 -0.07138 -4.98e-21)
(-0.1952 0.03733 0)
(0.9947 -0.006713 0)
(-0.244 0.05396 0)
(-0.06049 0.005801 3.033e-21)
(0.9985 -1.132e-05 2.375e-21)
(0.9519 -0.1976 7.369e-22)
(-0.09397 0.02206 0)
(1.019 -0.01435 0)
(0.8223 0.3935 -1.65e-20)
(-0.09212 0.04678 0)
(0.01543 -0.0118 0)
(1.011 -0.135 -4.763e-21)
(1.004 2.381e-05 -1.297e-22)
(-0.2586 0.06398 -2.619e-22)
(-0.2849 0.0838 -6.37e-22)
(1.013 -0.002923 3.034e-20)
(0.8779 0.36 7.729e-21)
(1.052 0.1008 7.812e-21)
(-0.289 0.08407 4.671e-21)
(-0.2564 0.06984 -1.069e-20)
(0.9896 -0.1678 -9.954e-22)
(1.055 -0.03972 0)
(-0.05075 0.01364 -6.585e-22)
(-0.01024 0.003677 7.416e-22)
(0.5642 -0.1197 -5.049e-23)
(0.7061 -0.1123 -1.215e-21)
(-0.2702 0.0819 -2.262e-21)
(0.1091 -0.008673 0)
(0.9952 -8.058e-05 -3.114e-21)
(0.8089 -0.08591 3.052e-21)
(1.005 0.00657 3.421e-22)
(-0.304 0.09312 0)
(0.5862 -0.2667 -4.883e-21)
(-0.2395 0.04592 0)
(0.8612 -0.2365 3.024e-21)
(-0.01785 -0.006585 -7.241e-22)
(-0.04681 0.007305 0)
(0.9993 0.002895 -1.195e-20)
(-0.007534 0.00279 0)
(-0.1511 0.04905 0)
(-0.1682 0.04963 8.421e-21)
(1.055 -0.08757 4.683e-21)
(0.2799 0.1192 0)
(-0.2253 0.07104 -3.271e-21)
(-0.08527 -0.02672 9.967e-21)
(0.2705 -0.01964 0)
(0.9846 -0.136 0)
(0.8767 0.01261 -8.661e-20)
(0.01756 -0.000904 7.075e-22)
(-0.244 0.07911 1.826e-21)
(0.6666 -0.04502 0)
(0.4308 -0.09128 -7.39e-23)
(0.7958 -0.1213 0)
(0.4557 -0.2667 -9.902e-21)
(-0.01236 -0.01217 2.998e-21)
(-0.09601 0.03332 3.746e-22)
(0.944 -0.1597 -2.661e-22)
(-0.2919 0.09467 0)
(0.02911 0.06405 0)
(0.5091 -0.06183 2.385e-21)
(0.5803 -0.0594 -1.905e-21)
(0.09967 0.02741 0)