/*--------------------------------*- C++ -*----------------------------------*\
  =========                 |
  \\      /  F ield         | OpenFOAM: The Open Source CFD Toolbox
   \\    /   O peration     | Website:  https://openfoam.org
    \\  /    A nd           | Version:  8
     \\/     M anipulation  |
\*---------------------------------------------------------------------------*/
FoamFile
{
    version     2.0;
    format      ascii;
    class       volVectorField;
    location    "20";
    object      U;
}
// * * * * * * * * * * * * * * * * * * * * * * * * * * * * * * * * * * * * * //

dimensions      [0 1 -1 0 0 0 0];

internalField   nonuniform List<vector> 
127143
(
(0.1919 -0.009379 0)
(-0.003549 -0.01699 -1.36e-22)
(0.00388 0.01851 2.712e-22)
(0.004417 0.01878 7.177e-25)
(0.7431 0.2419 -7.082e-22)
(0.003689 0.01711 -1.015e-24)
(0.6822 0.4137 0)
(0.7393 0.3473 -4.318e-22)
(0.7246 0.325 1.799e-21)
(0.6308 0.02894 0)
(0.378 0.5572 -4.192e-21)
(0.6736 0.4206 6.501e-22)
(0.08435 -0.03152 -2.965e-23)
(0.004854 0.01754 0)
(0.319 -0.3262 1.883e-21)
(0.8824 -0.06119 0)
(-0.006582 -0.01966 -2.745e-22)
(0.7602 -0.06916 1.873e-21)
(0.6702 -0.149 0)
(0.9484 -0.02831 0)
(0.9446 -0.226 1.625e-21)
(0.3809 -0.1362 0)
(1.03 -0.1616 0)
(1.127 -0.1039 0)
(0.3787 -0.1352 -9.358e-23)
(1.109 -0.1787 0)
(1.2 -0.01266 5.024e-21)
(1.203 0.01509 -8.06e-23)
(0.9357 -0.4348 0)
(0.8041 -0.05408 -3.106e-21)
(1.119 -0.07591 0)
(1.085 -0.1805 1.393e-21)
(1.303 0.3266 7.876e-22)
(0.9114 -0.2206 -3.494e-21)
(0.8948 -0.08312 1.501e-21)
(1.317 0.3287 2.139e-25)
(0.651 -0.2155 5.805e-22)
(1.051 -0.1674 -6.466e-22)
(1.13 -0.1042 3.901e-23)
(1.111 -0.05922 1.837e-25)
(0.6697 -0.1472 0)
(1.122 0.2882 -2.131e-22)
(1.1 0.2761 1.574e-22)
(0.1437 -0.04781 0)
(0.7624 -0.0651 -1.95e-21)
(0.9189 -0.2223 1.085e-21)
(0.9478 -0.433 0)
(0.6756 -0.2144 -1.165e-22)
(1.151 -0.1976 -1.847e-22)
(1.126 -0.09309 1.421e-23)
(0.9159 -0.06545 -2.479e-23)
(0.9502 -0.03509 2.885e-21)
(1.151 -0.1391 0)
(1.094 -0.06371 -9.699e-22)
(0.9997 -0.002557 5.205e-21)
(1.124 -0.2849 5.091e-22)
(0.9991 -0.002747 -4.918e-21)
(1.112 -0.1024 0)
(1.001 -0.01868 -3.222e-21)
(1.095 -0.06023 -1.857e-21)
(0.6766 -0.1797 -4.848e-21)
(0.7536 -0.2125 -2.057e-22)
(1.132 -0.08831 -4.552e-23)
(1.002 0.001072 9.708e-21)
(1.195 -0.1146 0)
(1.014 -0.2755 -1.112e-21)
(1.063 0.02049 2.193e-21)
(1.132 -0.09046 0)
(1.132 -0.09039 -1.638e-23)
(0.9984 0.000643 0)
(1.122 -0.0933 0)
(1.225 -0.0006269 -2.161e-21)
(0.6242 -0.1042 -5.238e-22)
(1.002 -0.01798 -1.725e-21)
(1.008 0.006012 -2.42e-22)
(1.241 0.01211 2.417e-21)
(1.023 0.04258 -1.753e-21)
(0.7206 -0.2272 0)
(1.125 -0.2847 -1.006e-21)
(1.001 0.001473 0)
(0.9451 -0.4222 -6.587e-23)
(0.9823 -0.03174 2.716e-23)
(0.9493 -0.2236 1.226e-21)
(1.102 -0.07289 0)
(0.5727 -0.1422 1.372e-22)
(0.7159 -0.2256 0)
(1.134 -0.1129 1.255e-22)
(1.286 0.1001 1.343e-21)
(1.01 -0.2729 0)
(1.229 0.615 0)
(0.9951 -0.02959 0)
(0.9576 -0.1625 0)
(1.21 0.5925 0)
(0.9454 -0.2257 -1.678e-21)
(1.031 -0.2079 0)
(1.052 -0.04451 -1.103e-21)
(1.121 0.2811 4.034e-22)
(1.107 -0.08593 0)
(0.7843 -0.2322 4.257e-22)
(1.062 0.0249 0)
(1.001 0.00143 0)
(1.151 -0.1978 0)
(0.9856 0.8453 5.688e-23)
(1.133 -0.1304 0)
(0.7164 -0.2254 -1.816e-22)
(0.7831 -0.2325 6.004e-22)
(1.149 -0.1756 4.721e-22)
(0.9983 0.0006455 0)
(0.9016 -0.3529 0)
(1.005 -0.001306 3.535e-20)
(0.3278 -0.3267 -5.57e-22)
(1.274 0.1064 2.533e-21)
(0.9867 -0.2194 -1.543e-21)
(0.3551 0.2444 0)
(0.9957 0.02207 1.626e-21)
(1.127 -0.1804 5.885e-23)
(0.9988 0.05487 -1.434e-22)
(1.008 0.006258 -4.924e-21)
(1.023 0.04188 1.151e-21)
(0.02005 0.08514 0)
(1.005 -0.001492 -5.109e-20)
(0.9151 -0.2293 -3.053e-22)
(1.031 -0.3642 0)
(1.096 -0.1107 -6.081e-22)
(0.9419 -0.4286 6.093e-22)
(1.04 -0.1383 2.45e-21)
(0.7923 -0.225 0)
(1.03 -0.007959 5.549e-21)
(1.202 -0.1078 -2.858e-22)
(1.107 -0.3161 -8.222e-22)
(0.7972 -0.2359 0)
(0.9726 -0.2231 -7.811e-22)
(1.135 -0.1029 1.465e-22)
(0.7207 -0.227 0)
(-0.009299 -0.02167 -5.7e-22)
(0.7982 -0.2359 -2.891e-22)
(0.9489 -0.07773 0)
(0.9602 -0.2199 4.296e-22)
(0.8511 -0.4696 -3.576e-21)
(0.9895 -0.0751 4.996e-22)
(1.029 -0.1937 2.195e-21)
(0.9906 0.04774 1.187e-21)
(1.105 -0.1626 5.833e-23)
(1.011 -0.1992 -1.092e-21)
(1.15 -0.1388 -1.632e-22)
(1.299 0.3095 3.714e-22)
(0.00803 0.08308 2.064e-21)
(1.002 0.0009017 -8.001e-21)
(0.9721 -0.2231 6.787e-22)
(1.073 0.8465 4.387e-24)
(1.135 -0.1218 1.318e-22)
(1.149 -0.2205 0)
(1.058 -0.1595 2.302e-21)
(0.9021 -0.1614 0)
(0.5726 -0.4076 0)
(0.5749 -0.1424 0)
(1.112 -0.1016 1.55e-22)
(1.059 -0.3653 0)
(0.6756 -0.214 -2.203e-22)
(1.106 -0.09231 -4.984e-23)
(1.122 -0.07851 0)
(0.657 -0.3235 1.634e-20)
(0.9965 -0.03047 1.735e-22)
(0.7962 -0.2358 -7.566e-22)
(1.115 -0.2927 0)
(1.196 -0.1147 1.415e-21)
(0.6638 -0.2191 -3.365e-22)
(0.8605 -0.3096 1.335e-21)
(1.38 0.2744 -6.307e-22)
(0.9498 0.05644 -1.086e-22)
(0.4771 -0.1677 0)
(1.01 -0.1999 5.062e-22)
(1.129 -0.192 2.884e-22)
(1.09 -0.303 -1.172e-21)
(0.9899 -0.001107 1.706e-20)
(0.5106 -0.1575 4.152e-24)
(1.267 0.3725 -3.104e-23)
(1.202 -0.1086 -2.818e-22)
(1.131 -0.1141 0)
(0.9559 -0.03358 1.277e-21)
(1.09 -0.3038 -4.007e-22)
(1.023 -0.0483 0)
(0.4902 -0.1387 5.166e-23)
(0.5103 -0.1566 -4.242e-24)
(1.107 -0.3175 1.564e-21)
(0.7539 -0.2117 3.663e-22)
(1.047 0.1503 -1.981e-22)
(0.3738 0.2615 -7.429e-22)
(1.128 -0.104 7.656e-23)
(0.9747 -0.04369 3.582e-21)
(1.138 -0.153 1.27e-22)
(1.151 -0.1499 -8.815e-22)
(0.9529 -0.07623 3.255e-21)
(0.3984 0.5889 -6.257e-22)
(-0.007756 -0.02686 1.297e-21)
(0.8554 -0.227 0)
(1.001 1.816e-05 0)
(0.9998 3.752e-06 -5.272e-23)
(0.5888 -0.008187 0)
(0.9894 0.03133 4.223e-22)
(1.021 0.01306 3.104e-21)
(0.9264 0.01864 4.71e-21)
(0.8786 -0.03945 -2.557e-21)
(0.6522 -0.2155 -2.802e-22)
(0.00484 0.02523 4.876e-23)
(1.13 -0.0804 -1.94e-23)
(1.012 -0.1133 8.937e-22)
(1.142 -0.1948 -9.74e-23)
(0.8079 -0.0566 4.365e-21)
(0.9957 0.0215 -7.778e-22)
(0.9023 -0.1341 9.09e-22)
(0.5549 -0.1488 9.76e-23)
(0.9813 -0.007121 2.56e-21)
(1.38 0.278 -6.498e-22)
(0.7993 -0.2367 -1.158e-24)
(0.8301 -0.0384 0)
(0.4864 -0.1729 -1.828e-22)
(1.139 -0.2139 6.63e-22)
(0.9286 -0.2316 -1.061e-21)
(1.013 -0.1123 1.945e-22)
(1.258 0.3663 -4.709e-23)
(1.003 0.01041 -4.757e-21)
(1.149 -0.2202 -1.915e-22)
(1.155 -0.1332 1.609e-22)
(1.1 -0.08979 0)
(0.4979 -0.1763 0)
(1.119 -0.2943 -1.086e-21)
(1.052 -0.1658 6.681e-22)
(0.5527 -0.1933 2.134e-22)
(0.7774 -0.2284 6.768e-22)
(0.9526 -0.225 1.022e-21)
(1.021 -0.04892 2.536e-21)
(0.629 -0.1055 1.05e-21)
(0.02672 0.02127 0)
(0.9521 -0.225 0)
(1.07 -0.1047 -7.649e-22)
(0.7965 -0.2358 3.575e-22)
(0.3891 -0.02053 -3.508e-24)
(1.021 0.01255 -3.248e-21)
(1.128 -0.1572 6.385e-22)
(1.151 -0.1497 8.047e-22)
(1.229 -0.08758 -1.878e-21)
(0.5813 -0.1885 -5.785e-23)
(1.059 -0.365 -8.873e-25)
(1.134 -0.1284 0)
(0.0195 0.0853 2.725e-25)
(1.148 -0.224 8.087e-22)
(1.2 -0.02178 0)
(0.345 -0.1128 1.864e-21)
(0.9988 0.0008977 -5.027e-21)
(1.246 0.2039 -1.179e-21)
(1.097 -0.1185 -6.954e-22)
(1.126 -0.2539 0)
(0.995 -0.2111 0)
(1.134 -0.274 7.871e-22)
(0.9197 -0.3536 0)
(1.029 -0.008093 -5.11e-21)
(1.366 0.3538 0)
(1.103 -0.2691 0)
(0.9167 0.1314 3.888e-22)
(0.8861 -0.2255 -7.942e-22)
(0.9979 -0.05054 -1.486e-21)
(0.9601 -0.1604 4.086e-24)
(0.9892 0.04727 -9.453e-22)
(1.179 -0.1072 0)
(1.212 -0.1009 -6.34e-22)
(0.7284 -0.2297 9.17e-22)
(0.55 -0.4195 0)
(0.7491 -0.2899 3.214e-21)
(1.144 -0.09054 -7.303e-22)
(1.135 -0.2132 0)
(0.989 -0.001151 -1.966e-20)
(0.6677 -0.2089 -1.842e-22)
(1.127 -0.1579 -6.767e-22)
(1.132 -0.08589 -5.628e-23)
(1.138 -0.1525 -6.106e-22)
(0.9862 -0.2195 0)
(1.149 -0.177 -8.188e-22)
(0.981 -0.003711 1.308e-21)
(1.069 -0.3028 6.331e-22)
(0.9909 -0.001096 -1.948e-21)
(1.044 -0.04018 -6.462e-23)
(1.132 -0.1302 4.879e-25)
(0.9896 0.00962 0)
(1.008 0.02002 1.936e-22)
(-0.01653 -0.03454 -1.654e-22)
(0.8548 -0.2373 0)
(0.9966 0.02341 7.281e-22)
(1.145 -0.157 -5.177e-22)
(0.953 -0.03419 2.804e-21)
(1.057 -0.1584 -2.825e-21)
(1.068 -0.2024 0)
(1.069 -0.1054 7.47e-22)
(1.127 -0.2108 0)
(0.9857 -0.01862 -2.549e-21)
(0.9037 -0.3733 -4.142e-23)
(1.12 -0.09446 -6.056e-23)
(0.37 -0.1314 -4.697e-23)
(0.5817 -0.1888 2.219e-22)
(1.142 -0.08947 4.224e-22)
(1.121 -0.1235 1.695e-22)
(1.047 -0.2498 -1.934e-22)
(0.9341 -0.2782 -1.076e-21)
(1.125 -0.18 -6.901e-22)
(1.096 -0.08512 0)
(0.7524 -0.4275 3.923e-24)
(1.142 -0.1944 -3.334e-23)
(0.9807 -0.007168 0)
(0.8473 -0.2056 -3.785e-24)
(1.138 -0.1196 1.744e-22)
(1.149 -0.1712 4.569e-22)
(0.3811 -0.1829 -1.612e-23)
(1.134 -0.2746 0)
(0.9913 -0.001135 -8.097e-22)
(0.9845 0.0129 -4.007e-21)
(1.318 0.4188 4.156e-23)
(1.064 -0.1685 3.386e-22)
(1.117 -0.1169 -3.245e-22)
(0.9921 -0.1359 2.283e-21)
(0.9402 -0.01534 4.842e-21)
(1.026 -0.1599 0)
(1.118 -0.08154 3.202e-23)
(1.028 -0.02584 1.435e-21)
(1.127 -0.2535 2.92e-22)
(1.321 0.4188 0)
(1.104 -0.1514 -5.848e-22)
(0.9099 -0.03713 2.176e-21)
(0.442 -0.04912 -2.993e-23)
(1.118 -0.04257 2.896e-23)
(1.221 0.4274 3.402e-22)
(0.7403 -0.2187 0)
(1.008 0.01969 -2.316e-22)
(0.8983 -0.08299 -4.419e-21)
(1.001 1.401e-05 0)
(0.9998 2.933e-06 0)
(0.899 -0.1558 0)
(0.9118 -0.3519 -2.119e-22)
(1.128 -0.1924 3.152e-22)
(0.7394 -0.2186 -2.581e-22)
(0.8706 -0.2368 -2.389e-21)
(0.9898 -0.07324 -2.055e-21)
(1.139 -0.2134 0)
(1.143 -0.1405 1.429e-22)
(1.139 -0.1515 9.734e-23)
(0.3997 -0.1274 5.479e-24)
(1.145 -0.1567 3.591e-22)
(0.9519 -0.2281 -8.153e-22)
(1.033 -0.2065 5.416e-22)
(1.13 -0.1351 4.127e-22)
(1.227 -0.08648 0)
(1.131 -0.1302 -2.834e-22)
(0.7242 -0.174 5.942e-22)
(0.5312 -0.1726 -9.186e-23)
(1.139 -0.1519 4.381e-22)
(0.9335 0.05273 0)
(0.9363 -0.2288 -1.85e-21)
(0.994 -0.2118 -6.329e-22)
(1.298 0.2704 -2.845e-22)
(0.9811 -0.01559 2.946e-21)
(1.114 -0.04065 0)
(0.6604 -0.2019 -3.097e-22)
(1.132 -0.08838 -1.412e-23)
(0.7842 -0.1315 -1.523e-21)
(1.125 -0.08429 0)
(1.128 -0.09593 5.327e-23)
(1.004 0.005029 3.879e-24)
(0.9898 0.03059 -1.353e-21)
(0.9691 -0.008237 0)
(1.038 -0.1987 7.319e-22)
(0.9834 -0.003454 0)
(0.5876 -0.2131 4.964e-21)
(1.026 -0.02749 -3.071e-21)
(1.112 -0.1215 5.591e-22)
(1.124 -0.08693 -3.343e-23)
(0.9792 -0.04231 0)
(1.01 -0.09767 -1.377e-22)
(1.126 -0.1093 -1.3e-22)
(0.3846 -0.2014 -4.925e-25)
(0.7626 -0.2292 -1.104e-21)
(0.9783 -0.004699 -8.929e-23)
(0.8552 -0.1823 -3.69e-21)
(1.071 -0.1399 -2.193e-21)
(1.128 -0.1407 0)
(1.047 -0.253 -1.078e-21)
(0.9988 0.05399 0)
(1.003 -0.07035 0)
(0.9853 0.09411 0)
(1.113 -0.05953 0)
(0.8579 -0.2277 -2.279e-22)
(0.958 -0.193 -2.329e-21)
(1.01 -0.01354 -7.194e-21)
(0.8887 -0.2507 0)
(0.5206 -0.1832 1.753e-22)
(1.129 -0.2821 8.162e-22)
(1.127 -0.1027 -1.741e-22)
(1.115 -0.08408 -3.059e-23)
(0.8931 -0.2519 -9.844e-22)
(1.121 -0.07588 0)
(0.9317 0.05092 0)
(0.9962 -0.04939 0)
(1.093 -0.08168 1.813e-23)
(1.003 0.009987 1.922e-21)
(0.9807 -0.2179 0)
(0.4928 -0.1385 0)
(0.9897 0.09341 0)
(1.139 -0.1359 -1.954e-22)
(0.7191 -0.2252 -1.022e-21)
(1.136 -0.1083 -1.846e-22)
(0.9999 0.001392 -3.965e-20)
(1.132 -0.1143 0)
(0.9342 -0.3948 0)
(1.138 -0.1623 1.044e-21)
(1.029 -0.192 -2.216e-21)
(0.6886 -0.2154 0)
(1.028 -0.3627 0)
(1.032 -0.2075 -6.827e-22)
(0.8536 -0.2359 -1.101e-21)
(1.129 -0.2118 0)
(1.102 -0.1352 4.709e-22)
(1.01 -0.3943 -5.95e-22)
(0.6642 -0.219 0)
(0.5768 -0.199 -1.422e-21)
(0.8111 -0.2371 0)
(0.9996 0.00101 1.616e-21)
(0.7772 -0.2288 -8.37e-22)
(0.9621 0.152 -1.361e-22)
(1.094 0.2653 1.033e-23)
(0.9826 -0.1811 -1.186e-21)
(1.229 -0.08765 1.762e-21)
(1.009 -0.1321 -6.564e-22)
(1.005 -4.89e-05 0)
(0.8035 -0.2367 0)
(0.5292 -0.1734 0)
(0.8701 -0.1456 5.234e-21)
(1.228 -0.04074 1.009e-22)
(1.004 0.004926 -4.455e-22)
(1.144 -0.1695 -3.14e-22)
(0.9793 -0.2209 -1.408e-21)
(0.9509 -0.03414 -1.519e-21)
(0.9849 -0.01757 0)
(0.9943 -0.0007999 -2.477e-21)
(1.127 -0.09326 -2.284e-23)
(0.9436 -0.07936 -1.706e-21)
(0.9175 -0.3589 2.343e-22)
(0.963 0.05138 0)
(1.109 -0.0862 3.184e-24)
(0.9796 0.01346 5.691e-21)
(0.6884 -0.4556 0)
(0.9662 -0.008876 -5.302e-22)
(0.5548 -0.1471 8.24e-23)
(0.8881 -0.2327 0)
(1.135 -0.1375 2.515e-25)
(1.138 -0.1355 3.873e-22)
(1.063 -0.1917 4.611e-21)
(0.8945 0.05919 5.97e-23)
(0.6386 -0.2112 -1.01e-22)
(1.127 -0.1335 2.454e-22)
(1.24 -0.07435 0)
(0.6593 -0.2154 0)
(1.095 -0.132 6.088e-22)
(1.135 -0.103 -6.448e-23)
(1.193 -0.1079 4.302e-22)
(0.9384 -0.2061 0)
(0.4277 0.2321 -3.773e-21)
(1.193 -0.1087 -8.79e-25)
(0.9927 -0.0005617 0)
(1.014 0.03861 0)
(1.054 -0.1933 0)
(0.8906 -0.2331 9.025e-22)
(0.9995 -6.631e-05 0)
(0.7935 -0.2313 5.413e-22)
(0.9854 -0.1535 1.497e-21)
(1.096 -0.1101 9.07e-22)
(1.062 -0.1677 -1.093e-22)
(1.007 -0.1003 1.151e-21)
(1.008 0.0004544 0)
(0.4948 -0.3642 -2.499e-21)
(0.9873 -0.1512 -1.356e-21)
(0.5862 -0.2037 -1.88e-22)
(1.139 -0.1362 2.753e-23)
(0.8526 -0.4685 3.835e-22)
(0.6701 -0.451 -4.748e-22)
(1.122 -0.1674 3.682e-22)
(1.133 -0.2749 0)
(0.929 -0.3856 0)
(1.227 -0.04033 -1.053e-22)
(1.129 -0.1373 -1.953e-23)
(1.019 0.004238 5.135e-21)
(1.111 -0.093 8.012e-23)
(0.962 0.03001 2.445e-21)
(1.303 0.4144 1.386e-23)
(1.135 -0.113 -1.078e-22)
(1.158 -0.1363 0)
(1.304 0.2938 1.731e-22)
(0.007824 0.03979 0)
(0.783 -0.2355 9.21e-22)
(0.4189 0.07113 5.369e-22)
(1.076 -0.0854 -3.371e-24)
(1.02 0.5184 -2.221e-22)
(0.9832 -0.001304 -1.789e-20)
(0.8564 -0.4647 0)
(1.015 0.03826 2.374e-24)
(0.5766 -0.1909 0)
(0.8569 -0.2262 -8.248e-22)
(-0.008389 -0.02778 0)
(-0.01516 -0.07558 5.078e-22)
(0.2946 -0.09735 -1.022e-22)
(1 -0.0003615 -2.538e-20)
(0.9367 -0.229 0)
(1.296 0.02737 0)
(0.985 0.01293 8.362e-21)
(0.6831 -0.2055 4.789e-22)
(1.033 -0.3668 1.332e-21)
(0.7284 -0.2292 6.709e-22)
(1.136 -0.1604 0)
(0.8882 -0.233 0)
(1.135 -0.1375 2.759e-22)
(0.7943 -0.2313 -5.553e-22)
(0.9426 -0.1825 4.797e-22)
(0.9942 -0.0003547 0)
(0.5351 -0.131 -1.061e-22)
(0.3506 -0.1251 0)
(1.006 -0.4009 3.786e-22)
(1.119 -0.1087 -6.445e-23)
(0.4793 -0.1679 6.18e-23)
(1.005 -0.01676 -2.217e-21)
(1.135 -0.1218 1.227e-22)
(0.8821 -0.04063 -6.323e-22)
(0.9389 -0.2051 9.813e-22)
(1.006 -0.01509 0)
(1.105 -0.09029 0)
(1.309 0.572 0)
(0.5419 -0.1904 -2.912e-22)
(0.9994 4.438e-06 0)
(1.054 -0.194 -4.919e-22)
(1.07 -0.1198 5.824e-22)
(0.4463 -0.1584 -1.76e-26)
(0.9074 -0.3979 2.685e-22)
(1.372 0.351 1.808e-22)
(0.8954 -0.207 -3.754e-22)
(0.9556 0.02048 1.816e-22)
(0.62 -0.2108 -1.777e-22)
(0.9985 -0.3614 -6.487e-22)
(0.9995 -6.643e-05 1.13e-21)
(1.047 -0.2516 1.433e-21)
(1.094 -0.1373 -3.369e-21)
(1.122 -0.09482 5.071e-23)
(1.125 -0.08422 -1.766e-23)
(0.888 -0.2329 -9.943e-22)
(0.6815 -0.2233 2.22e-22)
(0.8578 -0.2272 4.079e-22)
(1.18 -0.07377 0)
(1.018 -0.3879 4.804e-22)
(0.7017 -0.2253 0)
(0.8049 -0.2367 2.278e-23)
(1.022 -0.00729 -6.372e-22)
(1.116 -0.06094 2.605e-23)
(0.8432 -0.2372 -4.437e-22)
(1.137 -0.1712 -1.262e-21)
(1.139 -0.1217 2.804e-22)
(0.6044 -0.1961 2.368e-22)
(1 0.00285 0)
(0.9997 0.003697 8.595e-21)
(0.921 0.1272 -6.131e-22)
(0.9502 -0.2286 -4.122e-22)
(0.9942 0.5507 0)
(0.9831 0.01536 -4.221e-21)
(1.005 0.0007125 -1.89e-21)
(0.9982 -0.3491 0)
(0.979 -0.4202 0)
(0.7115 -0.2242 3.329e-22)
(0.9283 -0.3867 0)
(0.6339 -0.2121 8.952e-22)
(0.6595 -0.2137 0)
(1.11 -0.2376 -2.828e-22)
(1.021 0.04094 0)
(1.001 -0.0004445 3.228e-21)
(0.5609 -0.1958 2.808e-22)
(0.8162 -0.2338 -4.22e-22)
(1.132 -0.2552 8.472e-22)
(1.002 -0.0009094 1.533e-20)
(1.221 -0.02169 1.15e-21)
(1.137 -0.1139 0)
(0.8779 -0.2365 8.411e-22)
(0.9784 -0.004576 -2.402e-21)
(1.102 -0.1364 -7.941e-23)
(0.9826 0.01485 6.668e-21)
(0.7202 -0.225 -1.657e-22)
(0.4969 -0.1242 0)
(0.9299 -0.1982 4.677e-23)
(0.9965 0.0001081 -2.237e-21)
(0.6851 -0.2236 -8.434e-22)
(0.8869 -0.2253 -1.943e-22)
(0.8182 -0.4261 -1.072e-20)
(1.008 0.0004332 -2.636e-21)
(1.149 -0.1757 -4.491e-22)
(0.4868 -0.1731 8.395e-23)
(0.9943 -0.001058 0)
(1.139 -0.1361 0)
(0.9898 0.0231 -9.925e-23)
(1.128 -0.08557 -2.091e-23)
(1.117 -0.1464 0)
(0.9897 0.009202 6.513e-21)
(0.9306 -0.2286 2.594e-21)
(1.142 -0.1526 -2.726e-22)
(0.3278 -0.1709 0)
(1.106 -0.1755 -9.969e-22)
(1.103 -0.1609 -1.09e-22)
(1.133 -0.131 7.925e-22)
(1.129 -0.1403 3.318e-22)
(0.4278 -0.2773 -2.407e-21)
(1.131 -0.1043 3.182e-23)
(1.204 0.5873 3.516e-23)
(1.132 -0.06424 -1.93e-23)
(0.5441 -0.1814 -1.036e-22)
(1.177 -0.1169 -1.714e-22)
(1.109 -0.09955 -6.068e-23)
(1.003 -0.0009203 0)
(1.144 -0.24 -9.36e-22)
(0.9873 0.01117 -2.002e-21)
(0.4087 -0.1058 -1.42e-21)
(1.037 0.006175 2.637e-21)
(1.104 -0.1623 8.063e-22)
(1.005 -6.19e-05 0)
(0.996 0.02322 2.111e-21)
(1.115 -0.1012 -5.096e-22)
(1.009 -0.3946 3.002e-22)
(0.9496 -0.227 7.044e-22)
(1.006 -2.196e-05 1.318e-20)
(1.004 -0.00283 -5.889e-21)
(0.5544 -0.1934 -1.957e-22)
(1.353 0.1746 0)
(0.9537 -0.2245 1.112e-21)
(1.115 -0.09743 1.335e-22)
(0.6235 -0.1715 0)
(0.9165 -0.3577 -2.395e-22)
(0.883 -0.233 -1.044e-22)
(0.9353 -0.396 0)
(1.138 -0.1514 -1.357e-23)
(0.7959 -0.2362 -2.737e-21)
(1.21 -0.1007 0)
(1.006 -5.407e-05 -2.114e-21)
(1.25 -0.06402 1.077e-21)
(1.132 -0.1542 4.884e-23)
(1.112 -0.1754 1.813e-22)
(1.067 -0.1367 0)
(1.001 -0.02911 -9.734e-21)
(1.005 0.0006767 2.051e-22)
(1.103 -0.1505 -5.835e-22)
(0.8498 -0.4719 -5.377e-24)
(1.129 -0.1375 9.891e-23)
(0.463 -0.1665 2.922e-22)
(1.037 0.007887 0)
(1.003 0.000516 4.453e-22)
(0.7545 -0.2328 0)
(1.197 -0.1176 0)
(0.9279 0.01909 -3.727e-21)
(1.157 -0.1401 -7.799e-22)
(1.069 -0.1527 0)
(1.02 -0.02929 -2.467e-21)
(0.7696 -0.2342 1.384e-21)
(1.112 -0.2558 -2.19e-22)
(1.132 -0.1537 3.093e-22)
(0.9155 -0.1923 -3.282e-21)
(0.1429 -0.0533 0)
(0.4991 -0.1763 0)
(0.6601 -0.2154 -8.994e-23)
(0.6386 -0.2114 1.851e-22)
(0.8546 -0.2371 0)
(1.117 -0.1698 8.5e-22)
(1.112 -0.138 1.59e-22)
(1.106 -0.1747 0)
(0.9442 -0.02095 -6.824e-22)
(1.187 -0.1198 1.165e-21)
(0.4494 -0.1538 0)
(0.9803 -0.2175 -8.828e-22)
(1.004 -0.001705 1.392e-20)
(1.149 -0.1771 6.093e-22)
(0.9853 -0.2682 0)
(0.6859 -0.08861 -1.515e-21)
(0.9994 1.809e-05 6.087e-22)
(1.004 -0.001837 -1.527e-20)
(-0.05297 -0.04222 0)
(1.077 -0.08455 2.329e-22)
(1.148 -0.213 -8.776e-22)
(1.138 -0.1574 -5.091e-23)
(0.8198 -0.4459 0)
(0.8485 -0.206 1.636e-21)
(1.153 -0.02969 0)
(1.105 -0.0898 -3.345e-23)
(0.7743 -0.06528 2.443e-21)
(1.123 -0.293 0)
(1.018 0.003871 -2.258e-21)
(1.008 -0.0006274 0)
(1.254 0.2332 0)
(0.9693 0.1502 0)
(1.041 -0.1994 1.57e-22)
(0.6919 -0.09615 0)
(0.9991 -0.4105 2.281e-21)
(0.6506 -0.1885 0)
(1.002 -0.4047 -8.25e-22)
(0.906 -0.1318 5.713e-21)
(0.789 -0.1313 2.154e-21)
(0.9965 0.000177 4.612e-22)
(1.113 -0.07712 2.889e-25)
(1.008 -0.1002 1.351e-22)
(1.137 -0.2596 -6.992e-22)
(-0.01433 -0.03925 1.444e-22)
(1.146 -0.1732 -1.462e-22)
(1.179 -0.1063 -9.155e-22)
(0.7632 -0.2289 1.13e-21)
(0.9964 0.0001132 2.492e-21)
(1.139 -0.122 -5.672e-24)
(1.128 -0.1002 9.486e-23)
(0.5251 -0.1841 0)
(0.7096 -0.127 5.494e-22)
(0.9616 -0.2086 7.357e-22)
(1.138 -0.1517 -2.072e-22)
(1.075 0.8369 0)
(0.8527 -0.236 1.039e-21)
(0.8637 -0.4512 1.046e-21)
(0.6896 -0.1835 -2.338e-22)
(1.134 -0.2737 1.809e-22)
(1.139 -0.1216 -1.741e-22)
(1.137 -0.1198 -8.565e-23)
(0.7924 -0.2245 6.108e-22)
(1.087 -0.1897 6.852e-22)
(0.2659 -0.01223 0)
(0.9843 -0.2702 0)
(0.9491 0.05457 1e-21)
(1.139 -0.2511 -2.524e-22)
(0.9665 -0.4032 6.348e-22)
(1.136 -0.1177 3.236e-23)
(1.011 -0.0003495 0)
(0.4724 -0.145 -3.994e-23)
(0.7271 -0.1737 -1.175e-21)
(0.7114 -0.2239 -3.09e-22)
(1.002 0.0005139 -4.699e-22)
(0.4613 -0.1661 0)
(0.8118 -0.2371 0)
(1.104 -0.1341 -1.192e-21)
(0.9958 0.0002087 -1.398e-21)
(1.105 -0.1753 9.091e-22)
(0.5685 -0.1918 0)
(1.048 -0.2001 1.352e-21)
(1.178 -0.1312 -6.383e-22)
(0.9958 0.0001839 1.317e-21)
(0.7262 -0.2242 -5.882e-22)
(0.4562 -0.1598 0)
(0.8628 -0.2355 1.902e-21)
(1.003 -0.2098 0)
(0.9881 0.03327 -3.586e-22)
(1.144 -0.1399 1.281e-22)
(0.2722 -0.1838 0)
(1.026 0.001293 -1.441e-21)
(1.141 -0.2046 4.697e-22)
(1.103 -0.2225 0)
(1.118 -0.1693 -8.264e-22)
(0.7829 -0.2353 0)
(1.044 -0.2481 -5.67e-22)
(1.147 -0.1735 0)
(1.083 -0.1377 -2.269e-22)
(0.7308 -0.23 0)
(0.999 2.803e-05 -1.208e-21)
(0.7253 -0.2242 5.531e-22)
(0.7107 -0.2055 9.503e-23)
(1.085 -0.07847 0)
(1.141 -0.1641 -7.12e-22)
(1.09 -0.07366 0)
(0.6832 -0.2048 0)
(0.6839 -0.2236 5.177e-23)
(0.9991 4.89e-06 9.841e-22)
(0.7289 -0.2291 -6.56e-22)
(0.7692 -0.2345 0)
(1.134 -0.1394 0)
(0.06324 -0.02261 -1.306e-22)
(1.134 -0.1389 -1.034e-22)
(0.5425 -0.1905 4.361e-22)
(1.032 -0.2053 -1.715e-22)
(0.5717 -0.1814 0)
(1.109 -0.2456 0)
(1 -0.0003388 1.259e-20)
(0.1092 -0.04251 -1.191e-22)
(0.8263 -0.237 9.432e-22)
(1.106 -0.1752 9.289e-22)
(0.5636 -0.1968 2.466e-22)
(0.6735 -0.2172 -6.464e-22)
(0.6457 -0.2164 6.626e-22)
(0.7295 -0.2299 -2.713e-22)
(1.124 -0.09346 0)
(1.001 -0.0003879 0)
(0.7127 -0.1572 0)
(1.134 -0.1372 -6.698e-25)
(0.9965 0.0002024 0)
(0.7482 -0.2322 -1.064e-21)
(1.303 0.4124 0)
(1.149 -0.1712 -4.128e-22)
(1.041 -0.3568 -4.178e-22)
(1.006 0.0001974 -6.272e-21)
(0.8832 -0.2326 0)
(0.5119 -0.1609 0)
(1.018 0.004315 -6.333e-21)
(1.007 0.0002012 0)
(1.065 -0.1386 0)
(0.7461 -0.2124 7.705e-22)
(0.6242 -0.1724 -2.767e-22)
(0.6337 -0.2136 3.054e-22)
(0.7163 -0.2243 4.719e-22)
(0.9766 -0.05043 1.205e-23)
(1.138 -0.1462 0)
(0.8235 -0.2207 -2.231e-21)
(1.004 -0.001795 0)
(0.7624 -0.232 -4.525e-22)
(0.6573 -0.2171 0)
(1.117 -0.07992 9.092e-24)
(1.101 -0.0859 0)
(0.859 -0.3047 -1.235e-21)
(1.001 0.0007065 0)
(1.006 -0.01597 5.68e-22)
(0.9845 -0.01836 2.428e-21)
(1.236 0.006723 1.347e-21)
(1.004 -0.001657 1.862e-21)
(0.9022 -0.1247 -2.768e-21)
(0.7937 -0.4769 4.648e-22)
(1.144 -0.1426 -3.553e-22)
(1.097 -0.1505 1.538e-21)
(0.9914 -0.003671 0)
(0.5344 -0.152 -1.462e-22)
(1.143 -0.1361 2.087e-22)
(1.003 0.0125 0)
(1.13 -0.1347 -3.624e-22)
(0.9999 -9.875e-05 0)
(0.8837 -0.4342 1.349e-21)
(0.2337 -0.3053 -1.963e-21)
(1.136 -0.1587 -1.594e-23)
(1.155 -0.1139 0)
(1.102 -0.05889 5.787e-23)
(0.9922 -0.02826 3.981e-22)
(0.8803 -0.2337 0)
(0.9178 -0.2071 -9.416e-22)
(1.106 -0.09034 0)
(0.4368 -0.1607 -5.817e-23)
(1.126 -0.149 -2.873e-22)
(0.703 0.9149 5.428e-22)
(1.091 -0.07018 -9.85e-22)
(1.106 -0.1987 -5.183e-22)
(0.9429 -0.3349 1.901e-23)
(0.7093 -0.1339 0)
(1.001 0.01538 0)
(1.01 -0.1743 1.873e-21)
(1.081 -0.3452 0)
(1.369 0.2351 4.604e-23)
(0.4498 -0.1547 1.98e-23)
(1.043 -0.1723 0)
(1.002 0.0007121 0)
(0.8668 -0.09159 2.327e-21)
(0.5606 -0.1955 -1.372e-22)
(1.093 -0.2514 -4.136e-21)
(1.038 -0.06338 7.702e-21)
(1.324 0.08998 0)
(0.2578 -0.2972 -5.797e-21)
(1.355 0.147 -1.605e-22)
(0.8545 0.08884 2.584e-21)
(0.943 -0.2296 -6.034e-22)
(0.5688 -0.199 4.44e-22)
(0.7161 -0.1569 4.293e-22)
(1.004 -0.07665 -3.995e-23)
(1.014 0.04851 -1.922e-22)
(1.149 -0.1647 0)
(1.004 0.0004849 0)
(0.9967 0.0001012 0)
(1.096 -0.1708 4.985e-22)
(1.041 0.01617 -3.687e-23)
(1.148 -0.1499 7.101e-22)
(0.6703 -0.07998 -1.377e-21)
(0.3593 0.2186 0)
(1.123 -0.1146 5.873e-22)
(0.9687 -0.05659 -2.206e-21)
(1.318 0.4473 2.054e-22)
(1.138 -0.2555 6.319e-22)
(1.01 -0.01311 5.256e-21)
(0.7694 -0.1665 1.761e-23)
(0.6857 -0.2222 -1.458e-22)
(0.972 -0.05472 2.817e-21)
(0.9538 -0.22 -2.93e-21)
(0.3585 -0.1257 -1.136e-21)
(0.4939 -0.1025 0)
(1.135 -0.2262 0)
(0.3449 -0.3401 -1.742e-21)
(0.9977 -0.1984 0)
(0.6273 -0.2123 0)
(0.9868 0.001093 7.157e-21)
(1.159 -0.1354 3.537e-22)
(1.138 -0.2598 7.179e-22)
(0.9826 -0.01554 0)
(0.9198 -0.2297 1.162e-21)
(0.8346 -0.2371 0)
(0.7668 -0.2119 -3.827e-22)
(0.9994 -6.921e-05 2.198e-22)
(0.9565 -0.01138 -7.863e-22)
(0.8035 -0.171 0)
(0.9069 -0.04853 4.3e-23)
(1.024 -0.3328 -7.654e-22)
(0.3606 -0.1209 0)
(0.8194 -0.2324 6.047e-22)
(0.9462 -0.399 0)
(1.139 -0.2471 -1.17e-22)
(0.4708 -0.169 0)
(1.225 -0.0933 3.444e-22)
(0.9968 8.108e-05 -1.068e-21)
(0.8295 -0.4833 0)
(1.161 0.1482 -8.388e-22)
(1.005 0.0004852 0)
(0.9476 -0.3586 1.518e-23)
(0.3636 -0.1335 1.385e-22)
(0.9033 -0.1912 -5.538e-22)
(1.332 0.06779 -9.878e-22)
(1.126 -0.07921 -7.809e-23)
(1.131 -0.1734 -1.308e-22)
(0.4442 -0.1578 -5.675e-26)
(0.58 -0.05038 -9.692e-23)
(1.13 -0.1163 0)
(1.02 0.04143 -7.561e-22)
(0.995 0.008694 2.166e-21)
(1.138 -0.2144 0)
(0.8915 -0.3871 -1.841e-22)
(0.6956 -0.225 -9.825e-22)
(0.9557 -0.224 0)
(0.3532 0.4077 -1.623e-21)
(0.9953 -0.4145 -1.45e-21)
(0.967 -0.03161 -1.064e-22)
(1.072 -0.03163 -1.39e-21)
(0.9968 -0.4151 -1.448e-21)
(0.9852 -0.08123 2.275e-21)
(1.214 -0.07394 0)
(1.011 0.001101 0)
(0.6866 -0.2172 5.654e-23)
(0.2866 -0.1851 -8.125e-24)
(1.037 -0.196 -1.393e-21)
(0.8482 -0.2371 0)
(0.8117 -0.2337 0)
(0.9911 0.006429 -5.903e-21)
(0.9675 0.01001 1.808e-21)
(0.5761 -0.2019 0)
(1.027 -0.2118 1.85e-21)
(0.6016 -0.2057 0)
(1.142 -0.1492 0)
(0.6073 -0.2086 -4.456e-22)
(0.6442 -0.1992 -3.014e-22)
(1.126 -0.1344 -8.188e-23)
(1.284 -0.008739 -1.755e-22)
(1.208 -0.1065 -1.324e-21)
(0.658 -0.09609 8.151e-22)
(1.135 -0.1484 -3.279e-22)
(1.114 -0.08156 -1.374e-23)
(0.7937 -0.2357 1.536e-21)
(1.139 -0.1383 4.412e-22)
(0.6812 -0.2084 7.992e-22)
(0.4186 0.5927 6.666e-22)
(0.6539 -0.2185 -1.895e-23)
(0.3107 -0.2062 5.899e-23)
(0.3894 -0.1401 0)
(0.8089 -0.2338 0)
(1.011 -0.0002904 0)
(1.009 -0.003776 7.369e-21)
(0.7316 -0.2235 4.378e-22)
(0.629 -0.2066 0)
(1.116 -0.1785 -1.379e-21)
(1.001 1.718e-05 0)
(0.909 -0.4058 -6.479e-22)
(0.8836 -0.2331 5.385e-22)
(1.116 -0.09681 3.41e-22)
(0.6336 -0.2144 0)
(1.107 -0.1455 -1.199e-21)
(0.753 -0.2319 -1.167e-21)
(1.116 0.418 -1.693e-22)
(0.9999 0.001374 -3.017e-20)
(1.09 -0.1863 0)
(1.11 -0.08173 2.284e-22)
(1.014 -0.3946 0)
(1.098 -0.08407 0)
(0.5514 -0.185 5.667e-23)
(0.8682 -0.2709 1.48e-21)
(0.9945 -0.178 3.53e-21)
(1.063 -0.1913 0)
(1.126 -0.1025 3.907e-23)
(1.133 -0.09458 0)
(0.6683 -0.1911 0)
(0.9233 -0.4124 8.162e-22)
(1.141 -0.1304 -2.542e-22)
(0.6606 -0.2184 0)
(0.9851 -0.4269 -1.71e-21)
(0.9855 -0.02052 -3.547e-22)
(0.595 -0.2225 0)
(0.4479 -0.1598 0)
(0.7112 -0.2048 0)
(1.113 -0.1714 1.403e-21)
(0.3106 -0.3233 -2.576e-21)
(1.006 0.02706 3.206e-23)
(0.5429 -0.1402 2.001e-21)
(0.6847 -0.1308 0)
(0.9956 -0.0004252 0)
(1 -3.555e-05 -5.776e-21)
(1.161 -0.1364 -1.487e-24)
(0.9495 -0.2264 2.258e-21)
(0.3538 -0.1263 -1.437e-22)
(0.4225 -0.1521 1.995e-23)
(1.149 -0.1645 1.084e-22)
(1.037 -0.3822 0)
(0.69 -0.2243 -1.193e-21)
(1.096 -0.1822 0)
(1.113 -0.1461 0)
(0.9964 -0.03427 -4.437e-21)
(0.6995 -0.2252 -2.053e-21)
(0.5683 -0.1013 0)
(0.6988 -0.2258 -9.664e-22)
(1.119 -0.225 0)
(0.4497 -0.1594 5.708e-23)
(0.6939 -0.2228 -7.74e-22)
(0.9921 -0.002238 1.382e-22)
(0.6755 -0.08913 0)
(0.5718 -0.1954 -3.503e-22)
(0.9997 -0.001334 -2.848e-20)
(1.122 -0.1674 -5.655e-22)
(0.995 -0.0004183 5.839e-21)
(0.9882 -0.00309 8.098e-21)
(1.143 -0.1526 -1.895e-22)
(1.04 -0.1628 0)
(0.9637 -0.1019 -9.341e-21)
(0.9988 -0.003297 3.371e-21)
(1.13 -0.1345 4.638e-23)
(1.007 0.008957 0)
(1.3 0.4379 0)
(1.036 -0.1483 -1.326e-21)
(0.7531 -0.1536 3.557e-22)
(1.135 -0.1297 2.547e-22)
(1.146 -0.2221 1.797e-22)
(1.146 -0.1652 0)
(0.7591 -0.2314 3.231e-21)
(1.14 -0.1249 -2.63e-22)
(0.9992 -0.003407 4.728e-21)
(1.026 -0.05297 -3.791e-21)
(1.042 -0.1935 6.978e-22)
(1.149 -0.212 -2.442e-22)
(0.639 -0.2153 -8.068e-23)
(0.7151 -0.2277 0)
(1.058 -0.07522 4.248e-24)
(0.703 -0.2258 -7.136e-22)
(0.4357 -0.1389 -7.97e-21)
(1.105 -0.176 1.309e-21)
(1.115 -0.306 0)
(1.305 0.01574 -2.368e-21)
(1.128 -0.1173 4.15e-23)
(1.083 -0.1335 0)
(0.887 0.2355 3.79e-22)
(0.7317 -0.1632 0)
(0.9703 -0.0154 2.877e-21)
(1.03 -0.2069 3.339e-21)
(0.4826 -0.1564 5.55e-23)
(1.125 -0.1927 0)
(0.9964 0.0003671 -1.191e-21)
(0.7167 -0.4668 1.504e-21)
(0.863 -0.2301 0)
(1.135 -0.1078 -1.829e-23)
(1.11 -0.3002 1.976e-22)
(1.142 -0.1509 -6.4e-23)
(1.124 -0.1396 4.287e-22)
(0.9834 -0.2126 0)
(0.8785 -0.2196 6.014e-22)
(1.135 -0.108 -5.402e-23)
(0.5463 -0.1883 -7.017e-24)
(1.114 -0.3015 -1.863e-21)
(0.4342 -0.1614 6.284e-23)
(0.9961 -0.0009756 0)
(1.132 -0.0887 6.097e-23)
(1.046 -0.1999 0)
(0.9882 -0.02505 0)
(1.007 -0.214 0)
(1.178 -0.1263 3.079e-22)
(0.9999 2.71e-06 -9.626e-22)
(1.112 -0.2336 7.966e-22)
(0.4889 -0.1648 0)
(1.013 -0.06538 0)
(0.9031 0.237 -1.524e-21)
(1.007 -0.1922 0)
(0.4798 -0.05304 0)
(1.081 -0.1581 1.4e-21)
(1.001 2.285e-05 1.88e-22)
(0.9518 -0.2284 -2.918e-23)
(0.8127 -0.2367 -5.509e-23)
(1.018 -0.003376 5.01e-21)
(0.9493 0.2067 5.818e-22)
(1.043 0.03022 2.121e-22)
(0.8751 -0.2335 8.103e-22)
(0.89 -0.2349 -1.116e-21)
(1.139 -0.1933 3.322e-22)
(0.9789 -0.05246 0)
(0.4617 -0.1613 -2.848e-23)
(0.4047 -0.1455 2.269e-22)
(1.144 -0.2401 -1.072e-22)
(1.149 -0.1777 5.474e-22)
(0.7751 -0.2268 -3.497e-22)
(1.012 -0.07543 0)
(0.9961 0.0004236 -1.838e-21)
(1.135 -0.1165 -1.45e-22)
(1.008 0.01145 2.534e-23)
(0.7881 -0.2345 0)
(0.8485 -0.4034 -5.628e-22)
(1.069 -0.193 0)
(1.111 -0.2996 1.966e-21)
(0.4339 -0.1688 -3.224e-23)
(1.034 -0.1722 0)
(0.9988 0.005673 -5.983e-21)
(0.2951 -0.1057 0)
(0.7319 -0.2298 0)
(0.8013 -0.234 1.164e-21)
(1.134 -0.09998 -9.356e-23)
(1.364 0.3533 0)
(0.8532 -0.2223 -5.386e-22)
(0.7181 -0.1317 5.489e-22)
(1.096 -0.08453 0)
(1.147 -0.1563 0)
(0.8951 0.005353 -2.474e-21)
(0.5417 -0.04197 4.723e-23)
(0.6229 -0.2069 2.016e-22)
(1.123 -0.08143 0)
(1.134 -0.2365 -1.227e-21)
(1.148 -0.1698 0)
(0.7574 -0.4508 -1.659e-21)
(0.4509 -0.0682 1.09e-22)
(0.5911 -0.2038 5.981e-23)
(1.15 -0.1907 1.38e-22)
(0.7171 -0.2282 0)
(1.158 -0.1121 0)
(1.134 -0.1372 -3.919e-22)
(1.127 -0.114 1.293e-22)
(0.896 -0.1935 0)
(0.3752 -0.131 0)
(1.078 -0.09777 -3.785e-22)
(1.144 -0.2396 -6.249e-22)
(1.068 -0.119 0)
(1.142 -0.1907 5.87e-22)
(0.9997 3.768e-06 0)
(1.007 0.0003935 1.913e-20)
(1.084 -0.1599 -1.394e-21)
(1.011 -0.0668 1.374e-23)
(0.6997 -0.2205 5.245e-22)
(0.9272 -0.02477 6.346e-21)
(0.6043 -0.1305 -2.289e-21)
(0.6084 -0.2094 3.453e-22)
(0.9935 0.0101 -4.821e-21)
(1.369 0.1926 0)
(1.147 -0.1526 5.526e-23)
(1.133 -0.128 0)
(-0.007027 0.06008 0)
(1.069 -0.2886 -6.997e-22)
(0.6335 -0.2118 1.186e-22)
(0.1728 -0.06033 0)
(0.7717 -0.1674 -5.446e-24)
(0.5924 -0.2049 1.195e-21)
(0.757 -0.224 7.103e-22)
(1.144 -0.1412 0)
(1.146 -0.1166 2.93e-21)
(1.147 -0.1638 1.32e-22)
(1.104 -0.09455 -2.176e-22)
(0.9436 -0.383 -2.196e-22)
(1.093 -0.1809 0)
(1.061 -0.07849 0)
(0.7877 -0.1102 -1.249e-21)
(1.146 -0.09001 1.604e-21)
(0.7882 -0.2356 6.521e-22)
(1.114 -0.2611 -4.688e-22)
(1.131 -0.08684 8.462e-24)
(0.647 -0.1897 9.027e-23)
(0.4234 -0.1529 -5.711e-23)
(0.6496 -0.2057 1.926e-22)
(1.1 -0.1559 0)
(0.6037 -0.1793 3.469e-22)
(1.092 0.3144 -4.795e-22)
(1.142 -0.04146 -1.851e-21)
(1.142 -0.1789 -1.926e-22)
(0.3802 -0.1276 -2.121e-21)
(1.028 0.07214 0)
(1.3 0.03868 0)
(0.7687 -0.2292 0)
(0.65 -0.2165 2.109e-22)
(0.7226 -0.2282 1.132e-21)