/*--------------------------------*- C++ -*----------------------------------*\
  =========                 |
  \\      /  F ield         | OpenFOAM: The Open Source CFD Toolbox
   \\    /   O peration     | Website:  https://openfoam.org
    \\  /    A nd           | Version:  8
     \\/     M anipulation  |
\*---------------------------------------------------------------------------*/
FoamFile
{
    version     2.0;
    format      ascii;
    class       volScalarField;
    location    "55";
    object      k;
}
// * * * * * * * * * * * * * * * * * * * * * * * * * * * * * * * * * * * * * //

dimensions      [0 2 -2 0 0 0 0];

internalField   nonuniform List<scalar> 
127143
(
3.179e-13
7.927e-13
1.376e-11
7.089e-11
3.501e-11
7.515e-11
1.231e-09
2.116e-10
1.067e-10
9.319e-10
2.083e-09
3.112e-10
1.086e-10
1.232e-10
0.0001739
6.149e-09
5.288e-11
0.06386
0.03406
5.511e-08
0.01303
2.222e-06
0.000154
4.016e-05
2.004e-06
1.903e-06
1.612e-06
1.98e-06
1.346e-06
0.05545
3.268e-05
2e-06
4.129e-07
6.492e-05
0.000151
3.952e-07
0.008859
0.06002
5.382e-05
2.393e-06
0.03421
0.0001532
0.0001528
8.149e-10
0.06217
7.338e-05
1.217e-06
0.01504
2.553e-05
5.731e-05
1.429e-08
0.0001495
0.02105
0.0001543
0.0001396
1.627e-05
0.0001395
0.0001676
0.0001472
0.0001542
0.000153
0.02166
6.177e-05
0.0001482
0.0003886
0.0001576
0.0001513
6.45e-05
6.433e-05
0.0002152
3.969e-05
3.27e-06
0.0305
0.0001472
0.0001458
3.995e-06
0.0001476
0.006358
1.614e-05
0.000149
1.203e-06
5.693e-08
0.0004246
4.966e-06
0.02589
0.007789
5.31e-05
5.46e-07
0.0001567
0.0001302
0.0001467
0.0009915
0.0001898
0.01321
0.006773
0.000172
0.0001531
1.559e-05
0.008821
0.0001512
0.0001489
2.674e-05
4.847e-05
0.0001478
0.008173
0.008502
4.392e-05
0.0002161
0.0001618
0.0001424
0.0002011
4.599e-07
0.0104
0.0001604
0.0001456
0.0001688
0.0001477
0.0001459
0.0001475
1.431e-07
0.0001425
0.00051
0.0001503
0.0001615
1.387e-06
6.799e-07
0.01586
0.0001487
0.009078
1.429e-05
0.004469
0.005229
5.72e-05
0.00654
1.724e-09
0.004691
0.0001555
0.01756
3.787e-06
0.0001535
0.0001544
0.0001469
0.0305
0.03241
0.02179
0.0001952
5.797e-06
0.0001483
0.004872
2.66e-05
0.0001193
3.086e-05
0.04755
0.0001519
0.0002284
0.026
0.0001676
1.442e-05
0.0153
8.72e-06
5.268e-05
8.448e-09
0.0001468
0.004474
2.941e-06
0.0005698
0.006111
0.0001554
1.91e-05
0.000149
0.00209
0.03204
0.0001679
0.0001565
0.0006158
0.02039
0.0001891
0.009176
4.265e-05
0.0001559
0.0001568
0.0001545
0.0202
0.02052
1.483e-05
0.02225
0.0001515
0.0001606
4.46e-05
0.0001549
0.01423
0.008023
0.0001551
0.0002209
8.98e-10
0.01823
0.0001291
0.0001282
5.643e-09
0.0001458
0.0001453
0.0001492
0.002975
0.00956
5.532e-10
7.678e-05
0.0001531
0.0001217
0.04485
0.0001456
0.000166
0.02498
0.0001449
2.089e-05
0.002661
2.322e-09
0.0002682
0.0001271
0.007179
0.0001531
0.0001819
0.0001462
3.071e-05
0.025
8.454e-06
0.00145
6.223e-06
0.05855
0.004063
0.01187
0.01262
0.0001544
0.03106
1.662e-06
0.01275
0.000157
0.004474
8.631e-12
0.0001453
0.01744
0.008473
0.0007718
0.02026
1.438e-05
0.05466
1.692e-07
4.074e-05
2.038e-06
1.069e-07
0.0002614
0.0001623
2.37e-06
0.0001297
0.01989
2.351e-05
0.000163
0.0001487
3.67e-05
0.0001718
0.0001508
0.01948
0.0001513
0.000504
0.0001468
0.03614
0.000575
0.0008548
0.0002261
0.000155
0.0008701
4.759e-06
0.0006084
0.01834
0.01698
5.677e-05
0.01485
0.0106
3.187e-05
0.001144
0.0001759
0.0002209
0.0001918
0.0001482
0.0001455
0.0001455
8.006e-10
0.004822
0.0001456
3.207e-05
0.0001564
0.04541
0.0001572
0.0001569
0.0001672
0.0001452
0.0001707
2.981e-05
0.01073
0.02019
0.0006817
1.033e-05
0.0001584
0.0001547
0.000169
6.683e-06
0.0002062
0.0001218
0.0001449
0.043
8.342e-05
4.154e-05
0.004043
1.182e-05
0.0001948
0.0001454
0.0001354
0.05955
1.094e-05
0.0001581
0.005384
0.0001538
4.131e-05
0.0001514
0.0001292
0.0001296
0.05401
0.0001502
0.01191
4.554e-05
0.0001793
0.01676
0.0001455
0.000151
0.0001292
0.0001283
0.0001518
0.0001619
0.000168
0.01677
0.004237
0.0001535
0.0001268
0.02605
0.0157
0.000166
3.198e-05
0.001427
0.009712
1.106e-05
0.005962
1.513e-05
0.03656
0.01913
0.01515
0.0001494
0.001667
0.01949
0.0001902
0.0001486
4.461e-05
0.0214
5.859e-05
0.05053
6.54e-05
5.683e-05
0.0001468
0.0001458
0.003484
0.0006395
0.001155
0.0001549
0.0001515
4.55e-06
5.995e-05
0.0001542
0.0001536
2.745e-05
6.565e-06
0.009581
0.001192
0.05709
9.065e-07
1.616e-05
0.0001582
0.0001476
1.29e-07
0.0001503
2.975e-06
0.01755
0.06354
0.0001462
0.0001534
0.003107
2.623e-05
4.468e-05
2.963e-05
0.0001534
4.222e-05
0.0001494
0.0001511
3.944e-06
0.0001462
0.01522
0.02051
0.0001504
0.0001039
0.008857
5.825e-05
0.000149
4.67e-05
0.0001897
9.817e-06
0.0001545
0.01534
0.0001653
0.00705
0.008636
4.439e-06
0.03532
6.478e-05
0.006454
9.623e-06
0.002156
0.0002209
0.01154
0.000151
0.0001526
0.0001529
0.001013
0.0001531
0.0001413
0.00206
0.01822
0.001265
0.01029
0.0001468
0.0001063
0.002035
0.0001494
0.0001452
0.0001453
6.209e-05
0.0001556
0.0001647
0.0001482
1.667e-05
0.0001454
0.0001692
0.003738
0.02498
0.01134
2.01e-05
0.0001122
0.0005077
0.0001502
0.01189
8.843e-06
0.001337
0.01123
0.00906
6.172e-05
0.01817
0.04533
0.0001557
0.01687
0.0004773
0.0001464
0.01915
0.0008504
0.0001386
0.01072
0.0002697
0.0001616
0.06058
0.0001529
0.0001347
0.0002296
0.000222
0.001791
0.03969
1.694e-06
0.0001848
0.003305
1.221e-05
0.0001841
0.01004
0.04955
0.0001448
1.42e-05
0.0001469
0.0001822
5.424e-05
0.01805
0.0001947
5.323e-09
0.003675
0.000156
0.0001595
0.0001571
0.0001449
1.413e-06
0.0001464
0.01828
0.01907
2.891e-11
8.068e-09
1.087e-07
0.000147
0.001751
0.007377
0.0001454
0.02126
0.0001275
0.004051
0.0001516
0.01101
2.002e-05
0.01082
1.698e-05
0.0004156
0.02388
5.155e-07
5.099e-05
1.293e-05
0.002786
0.0001469
0.0001232
0.001733
0.04823
0.0001457
1.168e-05
9.768e-06
0.002637
0.0001304
0.01891
0.0001566
0.00119
0.000188
1.086e-05
0.04705
0.000147
0.003541
0.0001834
0.0001387
0.0001583
0.02333
3.563e-05
6.576e-05
0.0007517
0.0002023
0.01808
0.004838
8.121e-05
0.005185
0.00223
0.0001464
4.194e-06
0.005917
7.609e-06
5.372e-05
0.01941
0.0001483
0.0001479
0.0001508
0.001358
0.0001595
0.0001454
0.0001416
0.0001761
2.866e-05
0.009163
0.0001841
0.0002433
5.688e-06
0.0001717
0.0001471
0.0001426
0.002041
0.009905
8.696e-05
0.000157
4.317e-06
6.157e-05
0.003233
0.001172
3.885e-06
0.0001454
0.009345
0.021
0.06179
0.0001349
0.001059
0.01962
9.409e-08
0.0001346
4.543e-05
0.0002987
0.0001453
0.0001042
0.0001456
7.543e-05
0.04906
0.0001456
0.0006388
2.091e-05
0.0049
0.009455
0.03675
1.58e-05
1.666e-05
0.0001983
5.659e-05
0.0002073
7.082e-05
0.01708
0.02404
8.566e-06
0.0001486
1.498e-05
0.0001454
0.0001612
0.0001488
0.03214
0.0001413
0.0001456
0.0001683
6.592e-05
0.01028
0.0001384
0.0001412
0.004746
1.45e-06
0.0007943
1.647e-05
0.02657
0.0001642
0.01133
0.0001902
0.01612
0.001277
0.0002723
0.0001385
0.00259
0.0175
0.0001653
0.001968
0.0001469
0.0001414
0.05643
5.458e-06
0.04958
2.326e-05
0.0001487
0.0001453
0.003182
0.002648
0.0001491
0.0005706
0.0001563
0.0001646
0.0005383
0.0001702
0.01826
0.0001524
1.373e-09
0.001812
0.01142
0.01178
0.004943
0.006288
4.98e-06
0.002815
0.0001489
0.01069
0.0135
0.01568
0.0001417
3.268e-05
0.0001557
0.0001522
0.0001303
0.0001415
3.39e-06
0.0001596
1.781e-05
0.007786
0.0001736
0.04287
0.0001584
1.212e-05
0.0001514
2.631e-05
0.0001447
0.0001393
0.0001642
0.000151
0.0008075
0.0001522
7.296e-06
0.02518
3.967e-05
0.0001603
0.04766
0.0001434
2.202e-05
0.000153
2.102e-05
1.683e-09
7.716e-05
0.03988
0.01001
0.0001366
4.934e-05
5.304e-05
1.262e-05
0.04696
0.03495
0.01618
3.355e-05
0.00849
8.205e-05
0.02922
3.018e-05
4.832e-05
8.403e-05
0.01626
0.0001592
6.312e-13
0.0001556
0.000149
5.648e-05
0.0001521
5.113e-05
0.0001441
0.01787
0.03718
0.009342
0.0001489
1.913e-05
0.002414
4.137e-06
0.0001609
0.00242
0.01533
0.002711
0.00639
0.0001511
0.01095
0.004414
0.000561
0.01938
0.0001459
0.02649
0.0002503
0.000146
0.0001237
0.0001666
0.006778
0.003731
0.0001576
7.708e-05
1.785e-06
0.001177
0.0001278
0.0109
0.02295
3.185e-06
1.055e-05
0.0001548
0.02159
0.0002472
0.0001283
0.00429
0.0005699
0.03895
3.192e-06
0.04022
0.002847
0.01331
0.0219
0.0001724
0.0001469
5.717e-10
0.00508
0.01013
0.0005731
0.01182
0.003033
0.002489
4.945e-05
0.0001424
0.03973
0.000149
0.0001461
0.001854
0.0001823
4.324e-05
0.0001467
0.0001364
0.01178
0.01973
0.0001447
0.000136
0.002021
0.02131
0.02651
0.00381
0.009674
1.79e-08
0.0001375
0.0001526
0.0001418
0.006472
0.007477
3.663e-05
9.391e-06
0.000155
0.0001933
0.0001466
0.002655
2.455e-06
0.0001419
0.0001596
1.368e-05
4.958e-05
1.39e-06
0.0001482
0.0236
4.737e-05
0.0001459
1.11e-05
0.0001416
0.0001552
1.452e-05
0.004561
0.05227
1.175e-06
0.0001463
0.0006739
0.0001526
1.246e-05
0.01006
5.769e-06
3.314e-05
0.0001547
0.0001649
0.0001601
1.644e-08
0.0001458
0.04877
2.052e-05
6.873e-05
0.01324
2.121e-07
0.0001892
0.0001832
0.002008
1.631e-06
1.063e-06
0.000668
5.945e-09
0.0001948
2.747e-09
0.004953
0.0006896
0.04051
2.678e-07
0.0001475
3.977e-05
0.0001344
0.0001334
0.02546
0.0001497
0.01008
0.03756
0.0001595
0.0001663
0.0001551
0.0001101
5.499e-05
0.0001462
0.05208
0.006654
0.000155
0.0006299
3.502e-07
0.02036
0.0001403
0.0001921
0.04201
0.002582
0.0001451
0.0187
2.142e-05
0.0001483
0.0007901
0.005818
0.02309
0.0001379
0.006256
0.05958
5.758e-09
0.0001764
3.167e-07
0.01162
0.0001879
6.345e-05
0.0001813
0.001648
0.0001307
4.935e-06
0.0001532
0.0001316
0.0001691
1.672e-06
0.05947
0.0002556
0.0001076
0.0001657
7.417e-05
3.793e-09
3.631e-05
0.0001471
0.0001461
0.0001344
0.0001776
0.003617
0.0008795
0.000176
5.021e-06
0.00814
0.0001523
4.631e-06
0.0001536
1.835e-05
0.0001445
0.01363
0.00259
0.02505
0.002366
0.009712
0.0001457
0.0001459
0.0007897
0.0001548
0.007089
2.92e-05
0.002307
0.02156
0.05441
0.005807
0.003112
2.326e-08
0.0225
2.422e-05
0.0004503
0.0001096
0.01953
0.0002217
0.003055
0.00136
5.405e-06
0.009349
0.0001441
0.0001429
0.0121
0.0155
0.0001668
0.0001394
0.0001916
0.01124
0.0001689
0.00214
0.05736
0.0008336
0.0001559
0.000149
0.0001596
0.0001709
8.279e-07
6.875e-06
0.01632
0.0001537
0.04796
0.0008506
4.284e-05
6.357e-05
0.0256
0.0001821
4.57e-05
0.006329
3.897e-06
0.0001487
3.028e-06
0.0001681
0.02335
0.01013
0.0001664
0.0001456
9.932e-07
2.657e-08
0.0001364
0.0001441
0.01567
0.01117
8.32e-07
0.01211
4.021e-05
3.483e-05
0.000638
0.0001611
0.0001652
0.0001477
0.0004555
0.02579
0.001279
0.0001711
0.000752
0.007787
0.0001508
3.266e-08
0.01208
0.0001453
0.003529
0.0001419
0.0001447
9.024e-05
0.0001544
1.063e-06
0.0001443
1.227e-05
0.000146
0.0001755
0.0001541
0.05227
0.0001339
1.343e-05
1.953e-05
0.0004424
5.523e-05
0.0001987
0.0001552
0.02627
3.2e-05
0.003244
0.0007083
7.407e-07
0.0003921
2.37e-07
0.008689
2.449e-05
0.0004056
2.896e-05
1.654e-06
0.0001516
0.04234
0.0001703
0.001731
0.01608
4.708e-06
0.0001851
9.81e-05
0.01535
5.497e-05
7.358e-05
0.01359
0.0001676
0.0003704
0.02671
5.497e-05
0.01009
1.199e-05
0.009787
0.0001372
7.025e-05
0.001741
0.0001459
0.003301
0.0006618
0.000138
0.0001714
0.01175
0.0001536
0.0001516
0.05044
0.0142
0.0001575
0.0001319
0.002977
0.001878
0.0001449
0.0001514
0.0001503
0.01118
0.00173
0.0001452
0.0001546
0.002997
6.818e-06
1.489e-05
2.488e-05
0.01296
2.53e-07
0.0002069
5.093e-05
0.0001456
0.006363
0.0001842
0.005359
7.291e-05
0.003689
3.258e-05
0.0001471
1.355e-07
0.0001153
0.0002504
5.446e-05
4.536e-05
0.02268
0.04806
6.122e-06
4.58e-05
0.0001501
2.621e-10
0.01373
5.65e-05
8.408e-06
3.265e-05
0.0001803
0.01502
9.424e-05
4.531e-05
0.003427
0.05161
2.052e-05
3.291e-05
0.06135
2.782e-07
0.0001584
4.72e-05
0.0001565
1.178e-05
0.0001309
0.0001448
0.05751
1.522e-07
0.01181
0.00227
1.093e-06
0.0009822
0.0001459
1.696e-06
4.131e-05
0.05465
2.522e-06
0.0001724
0.008841
4.411e-09
0.05264
2.107e-05
0.01379
4.586e-05
4.22e-05
2.256e-05
7.967e-06
0.0001853
0.003012
0.0001578
0.04064
0.0008739
0.002867
0.0001665
7.202e-05
0.02462
0.0001154
0.01874
0.0001611
0.02462
0.000153
0.0001574
0.0001298
2.636e-07
0.0001505
5.735e-06
7.723e-05
0.005898
0.004729
0.0001459
0.01711
0.0124
0.0001608
8.851e-05
8.819e-06
6.926e-06
0.0001427
1.905e-05
0.002351
0.01075
4.07e-08
0.02357
0.03627
0.001792
0.0001463
0.001674
0.004811
6.188e-07
0.00532
0.0001606
0.01592
0.0001454
3.042e-08
7.116e-08
0.009415
0.0001649
0.0001701
0.0001354
0.0001315
0.007307
0.02348
0.02953
0.0001537
0.0001589
0.0001603
0.0001574
0.007885
0.03882
0.002184
3.191e-05
3.309e-08
0.0001642
4.603e-06
0.009938
0.001375
0.0001318
3.361e-05
0.01394
8.544e-05
1.897e-08
0.02172
0.02439
0.00311
5.841e-05
0.01505
3.702e-08
0.05538
0.007456
0.02313
0.02523
0.0001407
2.862e-05
1.647e-08
0.0001547
0.004623
0.0001414
4.352e-05
9.99e-05
0.0001354
0.0001192
8.269e-05
0.006036
1.771e-05
0.0001429
0.0001621
2.192e-09
0.0001457
6.567e-05
0.0004295
5.582e-05
7.637e-06
0.0001658
0.0001463
0.004856
2.794e-06
0.00408
0.004652
0.0001507
6.75e-05
4.579e-05
2.492e-05
0.001269
0.00441
0.0001451
0.006807
0.03574
1.249e-05
0.0002276
0.02276
0.003989
0.0001451
0.0001653
0.001709
0.0001456
0.0252
0.000138
2.557e-05
0.02571
2.221e-07
0.003588
0.0294
5.533e-05
0.01099
6.618e-05
2.562e-05
1.808e-09
0.00518
0.002073
0.03631
0.01376
0.01848
0.0001482
0.01638
0.0001466
0.01432
0.0001474
0.02614
0.0001435
0.002644
0.008425
0.0001379
0.0001445
0.0106
0.0001568
0.0002187
0.0001543
0.0001339
0.0001833
0.008453
0.0001499
6.826e-08
2.526e-05
1.362e-06
3.491e-05
5.772e-05
2.918e-05
3.305e-05
0.01872
0.0002089
1.697e-06
0.02358
0.0001955
0.0009576
0.01152
0.0252
0.03244
0.0001441
1.7e-09
0.006726
2.936e-06
0.0001458
2.292e-08
6.982e-05
2.43e-05
0.01076
0.000131
0.0001308
0.007434
0.05126
0.01319
0.01826
4.757e-05
0.0001668
0.0001557
0.006262
0.0001563
5.221e-06
0.0001525
0.0001982
0.009981
0.0001397
0.0004449
0.0003874
5.52e-05
2.435e-05
0.01058
0.0001463
0.01649
0.01389
2.51e-07
0.02526
0.0001537
8.231e-05
0.002987
4.472e-05
0.01866
0.0002005
0.04681
0.0001455
0.01626
0.0001545
1.913e-08
5.844e-06
0.0001669
0.005182
0.0001287
0.0001573
0.0001305
0.0001655
0.001067
8.071e-09
0.0001516
4.353e-07
0.01078
0.0001439
0.003485
0.001438
0.01953
0.0001517
0.01929
0.004537
5.311e-05
0.01252
0.035
2.034e-05
0.0001523
0.0001195
0.0002017
1.706e-05
0.0001825
0.000182
2.684e-05
0.000172
1.929e-08
0.0002015
1.103e-05
1.432e-05
1.926e-09
0.003559
0.00292
0.0001491
0.0001457
0.0001437
0.01746
0.0001432
5.629e-08
0.0001454
4.343e-06
0.000157
0.0001957
0.0001605
2.487e-05
0.0002405
5.437e-06
0.0001582
0.0002528
0.01074
1.257e-05
0.0001449
0.005535
0.0004143
0.0117
0.0007922
0.002941
0.007493
0.0001572
0.0001452
0.0001538
0.0001372
5.671e-05
0.0001904
0.0001329
0.0001582
0.0002674
0.0001372
3.602e-06
0.0001462
0.01923
0.04621
0.0167
0.0002242
0.0001392
0.01187
0.000628
0.01564
0.0001515
0.0001174
0.0001544
0.0001455
0.0001417
0.01565
3.163e-08
0.0001467
4.211e-05
0.0001493
2.153e-06
0.0001624
0.0001528
0.0001781
0.0001678
0.00207
2.58e-05
0.00015
7.213e-05
0.0001468
0.01431
0.0001486
0.0001522
9.244e-05
0.02016
0.0001576
8.68e-06
0.002553
0.0001415
0.0396
3.315e-06
0.0009486
3.011e-08
5.052e-06
0.02946
0.000153
0.0001739
4.639e-06
0.02875
7.439e-05
6.836e-05
0.0002103
0.0001546
0.0001444
0.00774
3.502e-05
0.01795
0.0001459
0.00381
0.0001456
0.0001621
0.002058
0.000143
0.03181
0.0001707
0.0001876
0.01682
0.002203
3.279e-05
0.0001466
2.455e-05
5.424e-06
0.0001656
0.03278
3.353e-05
0.0001578
0.04599
0.01941
2.54e-05
0.0001589
0.0162
1.177e-05
0.01022
0.00513
1.419e-05
0.0001572
0.0001538
0.0001339
0.0001518
3.072e-05
0.01018
0.0001515
4.721e-05
0.0001483
0.0007668
0.0008355
0.05952
0.02364
0.004332
2.799e-08
0.007467
1.995e-07
0.0001678
0.0001376
2.063e-07
3.858e-05
0.0001569
2.488e-05
0.000151
0.039
0.0001491
0.02166
5.345e-07
0.01544
0.0001859
6.165e-05
3.69e-05
0.0001464
4.825e-05
0.0001532
0.0001821
5.298e-05
0.0001493
5.971e-05
2.912e-06
0.0001444
0.0001488
0.01832
0.0002009
0.02613
0.0001729
0.0001711
0.000196
0.0001672
0.02377
0.0002242
0.000173
0.009799
0.0001373
0.0001537
3.185e-05
5.296e-07
0.0001398
0.001964
6.819e-07
0.04043
0.0006163
0.02052
5.219e-05
5.097e-07
0.0001753
0.0002779
0.01613
0.0001506
0.0005411
0.0001905
0.0202
2.4e-06
0.004467
0.000149
0.003118
1.454e-09
1.497e-08
0.01551
0.01538
0.003812
0.0001679
0.0187
0.0001062
0.02182
0.000194
0.008304
0.01191
9.315e-05
1.773e-06
0.008613
0.0001647
0.0001453
0.0001773
0.0001623
0.006774
0.0001524
0.0001511
4.164e-05
0.0156
0.03664
0.0001358
2.024e-05
5.316e-06
0.05152
0.002138
0.01238
2.167e-08
2.688e-05
0.0001493
0.002448
0.0001018
0.01404
4.012e-05
1.469e-08
0.0001282
1.276e-06
0.000161
4.15e-05
0.0001357
0.01382
0.01991
1.332e-05
0.002549
0.02555
6.363e-06
0.0001575
0.0001638
3.126e-05
0.0001532
0.02568
0.0001454
2.471e-05
1.396e-05
6.427e-05
1.07e-05
8.894e-06
0.01643
1.275e-07
0.0002725
0.0002139
0.0001805
0.02638
0.0001512
0.04036
6.186e-05
0.02017
5.81e-05
0.0002004
5.373e-05
4.252e-09
3.131e-07
0.00821
0.01739
0.0001616
0.0001582
0.0001461
0.0001489
0.01169
0.0001624
0.0001451
4.741e-05
5.723e-05
3.472e-05
0.008664
0.0001455
4.62e-05
0.05243
0.0001434
2.545e-07
1.708e-05
0.0001561
4.511e-05
5.682e-09
0.01793
0.0005056
0.04576
0.0001085
0.0003325
3.022e-10
0.0001082
9.767e-05
0.000153
0.0001559
4.18e-05
0.00784
0.0001455
0.000147
0.01373
5.454e-06
0.02526
4.304e-05
1.563e-07
0.0001701
0.0001491
7.842e-06
0.0258
0.009087
1.469e-06
0.000166
0.02485
0.02196
0.004624
0.0001679
0.007734
0.0001465
0.001796
0.02961
5.652e-06
0.05129
3.059e-05
2.818e-05
0.0001711
8.107e-06
0.05773
0.0002063
6.018e-05
0.0007887
0.0001514
0.01697
0.005445
0.007337
0.0008589
0.009294
4.472e-05
0.0005206
0.0001451
0.01039
0.04635
8.09e-06
5.906e-05
0.0005967
0.0383
0.0001536
6.559e-05
0.0001654
0.007419
0.02216
0.0145
0.0257
0.02479
0.0001656
3.829e-07
0.0001614
0.0001487
0.0003212
0.0001395
0.01948
0.0001498
0.0001678
0.01781
0.0001439
0.0001634
6.569e-05
0.001042
0.0001456
0.0001482
0.02667
8.283e-05
0.002093
0.0001984
0.0423
0.01637
1.111e-05
2.616e-05
0.05323
0.0001459
0.05175
0.0001587
5.034e-05
6.771e-08
0.02199
2.56e-05
3.646e-05
0.0197
3.044e-08
0.0001454
0.0001372
0.0001616
0.0001523
3.82e-09
0.0001459
0.03058
0.0002288
3.663e-08
0.000441
1.296e-05
0.0001248
0.0001244
2.909e-05
0.007034
0.0184
0.0002224
0.0001499
0.06164
0.0001646
0.000149
8.606e-06
4.378e-05
4.526e-05
0.02035
1.629e-06
0.002606
0.000174
0.000132
0.0001161
5.023e-05
7.718e-06
2.401e-05
0.005595
3.388e-06
0.004078
0.01291
6.92e-05
0.00178
0.005068
0.0001542
0.0001532
2.741e-05
0.000135
0.0001332
0.0007668
0.007021
6.368e-07
0.0001607
3.384e-05
0.00614
0.0003608
0.0001454
0.000181
0.0001482
0.009712
9.69e-08
0.0001795
0.0001564
8.51e-05
0.0001526
2.674e-06
0.0001086
0.0001979
0.0001064
0.0001286
4.244e-05
0.01976
0.0001301
0.00424
0.01101
0.01292
0.006955
9.265e-05
0.01522
8.769e-06
4.832e-05
0.006987
0.01371
1.899e-05
0.01181
0.003688
0.0004471
0.0001562
0.0001618
0.0001224
1.182e-07
0.0001653
0.004573
0.0001471
0.02144
0.0001484
4.083e-05
0.02552
1.266e-07
0.001465
0.0001529
7.382e-05
1.687e-08
8.496e-06
0.01393
4.864e-05
1.513e-05
1.504e-05
0.0005997
0.01943
6.117e-05
1.249e-07
0.003104
0.005525
0.0001667
0.0001595
0.0001456
0.02987
3.253e-05
0.0001511
0.003396
0.02618
0.000154
5.131e-05
0.000131
0.04909
0.0001657
0.02537
1.858e-05
0.0001632
0.0001723
0.02838
0.0001505
7.227e-05
7.53e-05
8.223e-07
0.0005651
0.0003053
0.000143
0.01008
0.001549
8.817e-05
5.298e-05
5.849e-05
0.03003
0.01043
0.0001454
2.82e-05
3.583e-05
0.0001756
0.0001961
0.02853
5.839e-05
1.292e-05
3.932e-05
0.0001951
0.0001601
0.0001552
8.573e-05
0.04304
0.0001536
2.691e-07
0.0001882
0.001523
0.0001456
0.0001473
0.0001951
0.0001462
0.0007485
9.788e-05
0.005848
0.02669
1.178e-05
5.35e-05
0.002686
0.000103
0.003207
0.0253
1.57e-07
0.00948
0.003689
0.005297
3.742e-07
0.01811
1.388e-05
5.082e-07
0.0001527
0.0001498
1.507e-05
0.0001551
0.0154
0.000257
0.0002072
6.382e-05
0.009904
0.008985
0.0001491
0.03637
0.0001478
0.000165
0.0154
0.00713
0.0002266
0.0266
1.71e-07
0.01265
0.0001463
0.002228
0.006955
0.05749
5.216e-05
0.008789
0.0002416
1.185e-05
7.929e-06
1.779e-07
0.00173
5.732e-05
0.00369
0.00388
0.002567
0.0001516
3.001e-07
0.002813
4.578e-05
0.000161
0.0001441
0.007863
0.001603
0.01875
0.0001573
1.59e-07
0.0003773
0.0001542
0.03446
0.01192
2.661e-05
0.0001448
0.0005164
0.02072
0.0001512
0.0001383
2.103e-05
0.0001452
0.002813
0.01438
0.0001631
1.88e-06
0.0001769
0.008983
1.556e-08
0.006329
4.297e-05
0.0001312
0.0001302
5.94e-05
0.05568
0.0001748
0.0004166
6.616e-05
0.0001438
5.582e-05
7.465e-06
0.01871
0.0001457
0.0001464
0.01806
0.008926
6.233e-05
1.773e-09
1.736e-05
0.0001525
2.322e-05
2.589e-06
0.0001542
1.471e-05
5.57e-05
0.0002754
0.0001684
5.756e-05
0.03427
0.01864
0.0001302
0.0001284
0.0001287
0.0001266
0.0001583
0.02305
0.0001221
3.317e-05
0.0001379
0.007138
0.01161
0.0001578
0.0001273
0.005751
0.01041
0.001016
0.0003371
0.0005045
0.01479
4.844e-05
2.859e-05
0.02103
6.881e-05
0.0001607
4.662e-05
1.376e-08
4.415e-05
9.382e-07
0.0001528
0.0001458
0.0001454
3.358e-07
0.004471
2.688e-05
0.0001276
0.0001504
1.102e-07
0.0001458
0.009381
0.0006065
0.0001736
0.006883
0.004215
0.01692
0.01318
3.723e-05
0.0001511
0.0002285
0.0001369
0.0001669
0.001089
0.001811
0.01578
0.0001606
0.0001437
0.0001455
0.0001556
0.007159
0.0001535
0.0001683
0.01412
0.005491
0.0001629
3.17e-05
2.822e-05
0.04172
0.02488
0.02252
0.004575
0.0001604
2.447e-08
0.0001523
0.0001454
7.442e-07
0.0001453
0.0001449
0.0001588
0.0002715
9.747e-06
0.01166
1.034e-05
0.009555
2.63e-05
0.0001464
0.0001573
0.007226
3.371e-05
0.0235
0.0001904
0.0001568
2.359e-06
2.706e-05
0.0001483
4.923e-06
2.915e-05
3.52e-09
0.0002016
0.03876
0.03373
0.0001546
0.0001483
0.04005
0.0001915
1.697e-06
0.0001511
1.482e-05
8.914e-08
0.0001455
2.183e-05
0.0001144
6.897e-05
0.0001458
1.114e-05
3.43e-07
1.273e-08
3.394e-08
0.0001668
0.0542
5.195e-08
0.0001564
0.003455
0.000144
0.01424
0.0001592
0.03132
0.000877
3.233e-08
0.0001581
0.01678
0.0001464
0.0001492
0.0001522
3.714e-05
0.00028
0.04225
0.0001939
0.007728
0.0001666
0.01678
0.02094
0.005991
0.005663
0.0001456
0.0237
0.01711
3.334e-05
0.000561
0.0001277
3.518e-05
0.000267
2.498e-07
1.218e-07
2.615e-10
2.675e-05
0.0001538
2.249e-05
0.0001487
8.687e-06
1.218e-05
0.0001456
3.197e-08
0.0001489
0.001673
1.217e-05
5.488e-06
0.01313
0.0002175
0.00197
0.0001232
0.0001302
1.62e-08
0.02572
0.0001696
0.01731
0.01191
1.49e-07
1.79e-07
2.696e-07
0.0187
2.236e-05
0.0001035
0.01826
0.0001516
4.621e-05
5.118e-06
0.0001392
0.005855
4.911e-05
0.01327
5.486e-05
0.01906
0.03364
9.578e-07
4.012e-05
5.238e-05
2.086e-07
0.0001823
2.012e-06
0.0001524
6.323e-05
0.002596
0.0001483
0.0001547
6.821e-05
0.0008206
0.002612
2.683e-07
0.0001647
0.0001455
0.0001436
3.132e-05
1.447e-05
0.01294
0.02991
0.0001261
0.0001509
5.486e-06
0.0001266
0.0006811
2.877e-05
0.000154
0.003464
0.01759
3.497e-07
1.555e-07
2.51e-08
0.0001504
2.253e-05
0.006499
0.005628
0.04226
0.02452
3.118e-06
0.01769
9.558e-06
2.97e-05
5.117e-05
7.651e-05
0.0001716
1.217e-07
0.02343
6.195e-05
0.01918
0.0001645
5.76e-05
0.0001598
0.000146
9.301e-05
0.0002489
0.005113
0.0001401
5.583e-05
3.334e-07
8.718e-09
0.02705
2.76e-07
0.0006184
0.0001602
0.0001502
0.0001542
0.0001511
0.0001489
0.0001025
2.022e-07
0.0007848
1.207e-05
0.0471
0.04715
7.439e-05
0.004897
0.01588
0.0007848
0.0252
1.288e-06
0.004998
0.0001365
0.00878
6.767e-05
0.0001477
0.0001551
5.891e-06
0.0001463
0.002945
0.002307
3.053e-05
0.000156
1.783e-06
0.0002437
0.01082
0.0001505
1.51e-05
0.000378
2.652e-05
5.501e-05
0.0001432
4.317e-05
0.0001442
0.0001679
0.001871
0.06328
2.981e-08
0.002533
1.521e-05
0.03148
1.258e-05
0.0001585
0.0004824
0.009524
0.0006765
0.000139
0.0001582
0.0001463
2.078e-05
0.0001002
0.0001953
0.005555
0.0001427
0.0004024
3.607e-05
0.007243
0.0001437
0.002901
0.0007759
0.0001476
0.005799
0.00016
0.0001716
0.002821
6.742e-05
0.0001558
0.0001624
0.0001565
0.000205
0.009012
0.000137
0.000135
0.0001467
0.0001536
0.0001518
0.001453
0.0005037
0.0001458
3.891e-05
0.0001907
4.645e-05
0.0001469
0.0001743
0.0001519
4.892e-06
0.0002568
2.01e-08
0.05332
3.439e-06
0.0001541
0.0001586
2.723e-07
0.0001503
5.401e-05
4.595e-05
4.422e-05
0.001102
0.008011
0.000146
7.18e-05
0.002394
0.02664
0.007486
0.01586
0.0001236
0.008645
7.027e-05
5.505e-05
0.0001437
0.01405
7.058e-05
3.558e-06
0.0001516
0.0001481
0.001106
0.0002821
0.01041
0.01395
0.0001087
6.198e-05
0.0001535
6.447e-05
0.007644
0.02565
0.01354
0.02456
0.0001364
0.0001784
2.927e-08
0.03749
0.01395
1.777e-05
0.0001646
0.0001622
0.0001449
0.0001499
0.0001598
0.0001623
6.809e-07
0.00323
0.000147
0.0001472
5.979e-05
2.828e-09
0.0001469
0.01221
4.326e-05
4.675e-05
0.0001703
0.005037
6.674e-05
0.007915
0.0001791
1.363e-05
3.285e-06
0.0001331
0.0001461
0.005986
0.04749
0.003854
0.0001429
0.0001695
0.001806
0.01969
0.00138
4.064e-08
3.219e-06
0.0581
0.0003762
2.732e-06
0.02933
4.228e-05
0.01134
0.0001701
0.0001682
5.014e-06
1.839e-07
0.0001443
0.001887
7.429e-05
0.0001469
3.207e-05
0.01157
0.0001648
0.0001552
0.03208
1.281e-05
0.00114
0.0001498
0.0001453
0.0001458
0.0538
0.01376
0.0001338
0.0007845
0.0001488
1.227e-05
0.02904
0.01264
4.014e-05
3.738e-06
0.05877
0.02609
0.0001429
2.156e-07
0.0001724
7.204e-05
2.457e-05
0.0001537
0.0001348
0.001148
0.00366
3.314e-08
0.0322
5.39e-07
0.0001384
0.000142
0.007243
0.0001514
0.000143
3.267e-08
6.212e-05
4.025e-05
4.982e-05
0.005388
0.008129
0.0001368
2.589e-08
0.0001557
6.866e-05
0.0001349
0.0001522
0.01348
0.009725
0.00689
0.03102
0.02837
0.002325
0.0001362
0.00778
0.0002371
5.35e-05
1.391e-05
0.0001601
0.02096
9.329e-05
0.0001471
0.003776
0.001269
0.0001915
0.0001538
0.01816
6.666e-07
0.0001306
0.0001437
7.788e-05
0.0005814
0.02558
3.056e-05
0.0001478
0.0002601
0.003344
7.426e-05
0.000148
0.0001531
9.546e-06
4.891e-05
5.252e-05
0.01043
0.0001987
0.0001366
2.155e-05
0.0001417
0.0004792
2.828e-08
0.000159
0.01179
0.01675
0.0005973
1.052e-05
0.002758
0.0001524
0.0001363
0.01175
0.0001576
0.0001447
0.001934
0.0001539
0.02871
0.0001361
0.000155
0.0001543
0.0001491
6.721e-05
0.004381
0.0001455
0.0001374
7.138e-05
0.003023
0.0001502
0.0001467
0.0001447
0.0001576
0.05247
0.05951
1.846e-05
2.838e-08
2.416e-07
7.04e-05
2.019e-06
2.176e-06
0.000148
5.31e-08
0.009547
0.000121
0.02863
0.0001553
0.0001647
0.0002525
0.0006096
5.748e-06
0.0008581
0.0001564
0.009119
5.075e-05
6.683e-05
0.0001673
0.0001634
0.00927
0.000154
3.785e-05
0.000149
0.009639
0.0001419
0.0002706
0.0001526
0.0006296
3.017e-07
3.879e-05
0.0001373
1.078e-05
0.00933
0.0001327
0.0001987
0.000146
0.0001523
0.00745
0.0003151
0.001272
0.0001049
0.0001495
0.0001684
0.03135
6.428e-07
0.0001469
0.0001526
1.999e-07
0.0001408
0.0001443
4.218e-06
0.01242
0.0001527
0.0001525
0.05019
5.028e-05
5.211e-08
1.817e-05
0.008915
0.02576
0.007398
0.0001546
0.0001451
0.0001536
5.14e-05
4.937e-05
0.005135
0.0001479
4.189e-07
5.479e-05
5.976e-05
0.0144
0.006654
0.009216
0.0001342
0.0001556
0.0004756
0.002454
0.0001506
4.037e-05
1.479e-05
0.03174
0.0001617
0.0001717
0.02002
0.0001506
0.02595
6.303e-05
0.00315
0.0001343
0.0001477
0.0001137
0.0003973
0.01134
0.0001593
0.0001481
0.0002097
0.005497
1.553e-09
0.03707
0.0001573
0.0004626
0.0001414
0.0001396
7.139e-05
3.694e-06
0.0001091
0.002797
2.085e-05
1.371e-05
0.02721
0.0001576
0.009271
3.764e-05
6.786e-07
0.01572
0.0001516
4.321e-06
0.0001665
8.51e-06
9.726e-05
0.02006
0.02336
4.95e-05
0.0001459
0.01076
0.000166
0.0001448
0.0002451
4.129e-06
0.003003
6.069e-08
1.641e-05
0.003108
0.0001448
0.03198
0.003302
0.0001659
0.01909
0.01575
0.001088
0.002835
0.0001056
0.0001465
0.00616
0.0001381
0.0001481
0.002615
0.0002024
0.0001611
3.927e-05
3.656e-08
0.0001421
0.0001455
8.807e-05
7.472e-05
6.05e-06
0.0001654
0.01172
1.261e-05
0.05529
0.02182
0.0001458
0.00018
6.845e-06
0.0001516
0.01042
0.0001442
8.762e-05
0.0001517
0.02562
2.205e-05
0.003947
0.000635
7.844e-05
0.0106
0.0001497
0.0006106
0.006181
0.0001659
0.0001435
0.0001481
2.113e-05
9.761e-05
9.014e-05
0.03518
0.004103
0.04854
4.59e-05
0.0001146
0.0001281
0.0001524
0.0001573
1.086e-08
2.155e-05
0.0001071
0.0001426
2.298e-05
6.896e-05
0.0009969
0.0008084
8.282e-08
0.0001742
0.02332
4.654e-05
5.23e-05
1.538e-05
2.91e-06
0.05432
0.0002074
0.03952
0.00015
5.676e-09
0.000147
0.02595
2.284e-05
7.227e-05
0.02198
0.0001198
0.01016
6.477e-06
0.01431
0.0002558
0.05493
0.0001403
0.001629
1.09e-08
0.01328
4.888e-07
1.959e-07
0.0001455
4.815e-07
0.0002137
7.369e-06
0.000101
0.02607
0.04783
0.006354
4.845e-05
0.0001313
0.0001504
0.02209
0.01323
0.01744
0.02178
0.004529
0.0001566
0.0001615
0.02805
2.618e-07
0.01166
6.052e-05
5.279e-05
2.238e-05
0.0001348
0.0007271
0.005903
5.097e-05
0.01656
1.603e-07
0.002107
6.051e-05
0.0001542
4.287e-05
0.0001531
0.01472
0.009186
0.000158
0.0001673
0.009455
9.238e-05
0.01527
0.003299
8.534e-05
3.716e-05
0.01194
1.554e-07
0.0001025
1.368e-06
0.0001502
0.06367
0.006553
0.02468
0.0001524
0.0001385
0.0001454
0.0001466
0.0001455
0.009575
5.093e-05
0.006843
0.01821
0.0001512
0.01495
0.0001508
1.912e-07
3.152e-06
2.941e-07
6.117e-05
0.0001532
1.488e-05
8.484e-05
0.0001574
0.0001487
0.0001464
0.0368
0.03025
0.00258
0.06096
0.0001422
0.0001429
0.005186
0.02339
0.0001515
2.182e-08
4.437e-05
0.0001398
0.0001459
5.135e-05
0.0001512
2.161e-05
5.678e-07
0.000156
0.0001728
0.001828
9.544e-05
0.001182
3.352e-08
0.0001861
0.0001605
5.739e-05
4.05e-05
0.000153
0.002286
0.0001458
0.0001627
1.266e-05
0.003321
3.649e-08
0.0001507
8.297e-05
0.001058
3.5e-05
0.0001462
0.009342
0.0001456
0.03206
0.0548
0.000131
0.02571
6.454e-05
0.0002164
0.0001595
9.699e-06
6.788e-05
0.0002688
1.261e-05
1.609e-05
0.005135
0.0005697
4.818e-05
0.002695
0.01949
3.27e-05
0.0001388
4.31e-07
1.621e-07
7.021e-06
5.885e-05
0.0001575
5.044e-06
3.958e-05
0.0001595
0.0001739
5.635e-06
0.004589
0.0001686
0.0001374
0.0001905
3.688e-05
0.0001389
0.06231
0.0001008
0.006255
0.0001456
4.808e-05
5.472e-05
0.0002223
2.413e-05
1.335e-09
0.0003508
0.01106
0.0001486
0.01142
0.003912
2.026e-05
0.008668
0.03379
0.021
4.945e-06
0.01323
0.0001583
0.01159
2.297e-05
0.0001518
0.05012
0.0001522
0.0489
2.625e-07
0.001886
0.0001476
0.000115
0.03904
1.401e-07
0.001749
0.000143
0.0001562
1.489e-05
0.0001516
0.008464
1.162e-05
0.000429
0.02178
0.000145
0.0001609
0.01693
0.01225
0.0001608
2.52e-05
0.0001384
2.358e-05
0.01213
0.001664
0.01098
0.009354
0.00912
2.593e-05
0.0001315
0.0001523
6.553e-05
0.000146
1.944e-08
0.0001503
0.0001365