/*--------------------------------*- C++ -*----------------------------------*\
  =========                 |
  \\      /  F ield         | OpenFOAM: The Open Source CFD Toolbox
   \\    /   O peration     | Website:  https://openfoam.org
    \\  /    A nd           | Version:  8
     \\/     M anipulation  |
\*---------------------------------------------------------------------------*/
FoamFile
{
    version     2.0;
    format      ascii;
    class       volScalarField;
    location    "55";
    object      nut;
}
// * * * * * * * * * * * * * * * * * * * * * * * * * * * * * * * * * * * * * //

dimensions      [0 2 -1 0 0 0 0];

internalField   nonuniform List<scalar> 
127143
(
8.321e-21
1.104e-20
1.679e-19
2.029e-18
1.193e-17
2.125e-18
1.063e-15
1.045e-16
3.299e-17
1.975e-15
1.222e-15
1.169e-16
1.126e-18
4.166e-18
4.387e-07
7.759e-14
5.344e-18
0.004538
0.003974
1.694e-12
0.0007298
3.115e-11
6.884e-05
1.531e-07
2.609e-11
1.18e-09
2.698e-10
3.44e-10
2.616e-10
0.004236
8.092e-08
1.129e-09
6.809e-11
6.127e-08
5.097e-05
6.44e-11
0.0002026
0.0007006
2.459e-07
1.125e-09
0.00397
4.262e-06
4.528e-06
5.937e-17
0.004567
7.003e-08
2.634e-10
0.0008591
9.303e-08
2.049e-07
2.83e-13
0.0004724
0.0003624
3.224e-05
0.00667
2.906e-08
0.00667
9.515e-05
0.005572
3.383e-05
3.947e-06
0.002246
8.31e-07
0.006702
1.041e-06
2.173e-05
5.533e-05
7.16e-07
7.19e-07
0.002579
1.119e-07
8.032e-10
0.002457
0.004901
0.006693
9.624e-10
0.0007596
0.0002274
2.927e-08
0.006705
2.514e-10
1.962e-12
1.173e-06
3.748e-09
0.001799
0.0003192
3.34e-07
1.161e-10
2.212e-05
2.158e-07
0.006653
0.0001667
6.879e-07
0.0007419
0.0001366
0.0001431
4.659e-06
2.882e-08
0.0005628
4.994e-05
0.006705
1.064e-07
1.778e-08
3.052e-05
0.0003514
0.0005255
4.913e-07
0.002579
8.52e-06
0.00668
6.828e-07
8.811e-11
0.0003936
7.028e-07
0.006694
5.606e-05
0.0005612
0.006693
0.0008489
4.965e-13
0.006681
1.544e-06
3.713e-06
0.0001183
2.942e-10
2.469e-10
0.001507
0.0009603
0.0001408
2.306e-08
0.0001289
0.0001002
1.489e-06
0.0002393
1.541e-15
0.0001425
0.000227
0.0009953
1.062e-09
0.0001806
5.283e-05
0.0009573
0.0005466
0.0009699
0.0003642
5.457e-06
3.195e-10
0.006702
8.678e-05
7.307e-09
1.17e-05
1.295e-07
0.0005445
2.867e-05
2.49e-06
0.001847
7.639e-05
1.853e-08
0.0008929
1.33e-08
1.826e-07
9.044e-14
0.00665
0.0001298
2.114e-09
1.95e-06
0.0001113
8.537e-06
1.888e-08
0.000182
2.57e-06
0.0009766
5.357e-05
8.263e-06
0.002272
0.0004833
3.407e-06
0.0001428
1.722e-07
0.002165
8.32e-06
0.001037
0.0005093
0.0004957
2.422e-08
0.002328
1.216e-05
7.643e-07
1.626e-07
0.0008806
0.0003525
0.0001496
0.0002477
6.412e-07
4.378e-16
0.001595
0.006652
0.006631
2.539e-14
0.002688
0.006697
0.0001979
0.001119
0.0002447
4.987e-17
5.867e-07
0.0001344
6.522e-06
0.003557
0.006694
0.000154
0.001397
0.006692
2.016e-08
4.28e-05
1.015e-14
1.021e-07
6.442e-06
0.0002364
0.000133
3.29e-06
0.006694
1.168e-07
0.0003105
1.081e-08
1.595e-06
6.366e-09
0.0006242
1.393e-05
0.0009475
0.0006627
0.001281
0.002607
8.435e-12
0.0006764
0.0001133
0.0001299
1.926e-18
0.006063
0.0004118
0.0001655
3.637e-06
0.0007803
1.89e-08
0.00037
7.412e-13
2.678e-07
3.504e-10
6.278e-13
0.002592
6.826e-06
2.027e-09
5.059e-06
0.0009266
6.225e-08
6.66e-06
0.001165
2.347e-08
2.533e-05
1.462e-05
0.001514
0.001077
0.0001447
0.0009197
0.0002052
2.192e-06
6.03e-06
2.236e-06
5.148e-06
2.691e-05
5.259e-09
0.00227
0.00128
0.0004069
1.333e-06
0.0003649
0.0004081
1.625e-07
0.002255
2.227e-05
0.003141
0.0001706
3.116e-05
0.006691
0.006693
4.234e-16
0.0001191
0.006695
1.499e-07
0.002183
0.0005296
4.547e-05
0.0001135
4.482e-05
0.006701
6.883e-06
7.31e-08
8.836e-05
0.0007774
2.548e-05
1.978e-08
3.306e-05
1.387e-05
7.154e-05
7.402e-09
3.891e-06
6.577e-06
0.006693
0.002157
4.077e-06
4.163e-07
5.236e-06
1.852e-08
0.003533
0.006692
3.943e-07
0.000667
2.054e-08
8.999e-05
0.002516
8.719e-05
1.17e-07
0.0004204
5.022e-06
3.537e-07
0.000371
0.0001089
0.0001083
1.302e-07
2.523e-06
0.001493
0.006693
5.598e-05
0.006652
0.006631
3.147e-05
8.573e-06
5.957e-05
0.00149
8.873e-05
0.0002086
6.423e-06
0.0003891
0.0003425
1.038e-06
1.491e-07
8.918e-06
0.0002785
2.261e-08
8.03e-05
3.51e-08
0.004012
0.0004278
0.0003701
0.0001303
1.231e-05
0.0009182
6.3e-06
0.006398
1.302e-07
0.00177
9.616e-07
0.002555
2.919e-07
2.307e-07
0.006697
0.003045
0.002429
1.664e-06
0.002257
2.421e-06
0.0003931
5.84e-09
1.891e-07
0.001062
9.31e-05
8.487e-08
4.246e-11
0.0006307
0.002261
0.001613
4.464e-10
4.1e-08
2.701e-05
0.0006227
1.016e-11
3.987e-05
1.616e-09
0.001518
0.0009336
0.006697
1.35e-05
6.826e-06
7.027e-08
1.846e-07
7.122e-08
1.381e-05
1.103e-07
0.0001245
0.0008376
3.081e-09
0.006694
0.0007636
0.000544
3.938e-05
6.525e-06
0.0004194
1.637e-06
0.006705
1.92e-07
9.212e-06
1.862e-08
4.763e-05
0.0009868
6.16e-06
0.0001471
0.0004471
4.41e-09
0.0003185
2.942e-07
0.0001243
2.044e-09
2.668e-05
0.002896
0.0009034
1.207e-05
4.376e-06
3.928e-05
5.678e-06
0.0001014
0.006678
2.52e-05
0.0003603
0.0002866
4.389e-05
0.006697
5.155e-06
1.51e-05
0.0004942
0.006701
0.006691
2.84e-07
0.0001708
7.358e-06
0.0003212
3.228e-08
0.0056
1.093e-06
0.002457
0.001399
0.0006996
5.759e-08
8.299e-06
1.083e-06
3.563e-05
0.0003404
1.497e-08
9.42e-06
0.0003783
0.0001453
1.975e-06
0.0002316
0.001157
7.575e-07
0.0002281
0.002352
0.001393
0.0006651
4.069e-06
0.006668
0.0008063
0.000144
0.0001016
0.0005692
0.0001525
0.006645
2.017e-06
9.985e-05
4.706e-06
0.0004071
3.119e-10
1.472e-06
2.948e-05
1.899e-08
7.982e-06
4.35e-05
0.0004342
0.006691
2.702e-08
0.0008686
1.056e-06
3.768e-07
0.0003364
4.816e-06
1.538e-15
9.08e-05
1.182e-06
0.000111
1.318e-06
0.006689
2.615e-10
0.001404
0.0005485
0.001661
5.732e-18
3.191e-14
1.327e-13
0.006697
1.311e-05
1.88e-05
0.006692
0.001937
1.962e-06
0.0001028
2.711e-05
0.0006618
5.677e-08
0.0008199
4.934e-09
0.002418
0.001132
3.099e-12
1.747e-07
2.609e-08
4.261e-06
0.005913
1.325e-05
0.001011
0.001169
0.006626
1.864e-08
2.829e-09
5.873e-06
0.006639
0.0006615
0.0001242
7.669e-07
7.177e-06
6.68e-09
0.001696
0.0008567
2.182e-05
1.336e-05
0.006668
3.46e-05
0.0002551
9.516e-08
3.018e-07
3.338e-06
4.641e-07
0.001568
4.765e-05
5.211e-07
0.0001261
2.926e-05
0.003395
2.837e-09
0.0001989
1.312e-08
1.161e-06
0.0008631
0.006702
0.006701
1.599e-05
8.113e-06
1.165e-06
0.006694
0.004831
1.17e-05
5.146e-08
0.0004196
9.861e-06
3.284e-07
1.883e-09
3.932e-05
0.001124
0.006682
4.551e-06
0.0006679
1.491e-06
0.004939
1.098e-09
1.87e-06
5.082e-05
0.002259
4.55e-09
0.006334
0.0004675
0.0006545
0.001123
0.004965
6.243e-06
0.001516
4.622e-12
0.006644
5.458e-07
1.184e-07
0.00669
6.558e-06
0.004876
4.071e-07
0.0004182
0.006691
2.443e-06
6.48e-08
1.137e-05
0.0002001
0.0005635
3.698e-08
4.247e-08
1.302e-06
3.024e-07
1.062e-06
3.34e-07
0.0003332
0.0002864
1.285e-08
0.005543
2.831e-08
0.006691
1.105e-06
0.0008392
0.0005525
0.006677
0.005118
6.87e-05
3.034e-07
0.0004573
0.006475
0.006676
1.883e-05
6.841e-10
3.099e-06
3.48e-08
0.002555
8.225e-06
0.0007084
8.694e-06
0.0003853
1.057e-05
6.291e-07
0.006474
2.633e-05
0.000407
8.264e-05
9.591e-05
0.006633
0.004833
0.0003944
2.011e-09
0.0004357
2.131e-09
0.0008019
0.003785
7.104e-05
2.272e-05
0.0001932
1.478e-06
9.723e-05
0.001392
2.575e-06
3.362e-05
0.0004137
2.344e-05
1.586e-16
2.337e-06
0.000396
0.0003344
0.000125
9.725e-05
6.888e-09
2.16e-05
0.0004248
0.0001836
0.0001034
0.0007946
0.006678
1.749e-07
1.811e-05
4.531e-06
0.006639
0.006677
3.024e-10
0.0001118
4.406e-08
0.0001477
2.19e-06
0.002141
1.928e-05
1.922e-08
9.862e-06
7.247e-08
0.00669
0.006668
6.602e-06
1.285e-05
2.56e-06
4.917e-06
5.553e-09
0.002505
1.043e-07
0.0001562
0.002314
0.003905
4.315e-08
0.0001681
5.397e-08
1.388e-15
2.115e-06
0.0002943
0.0006825
0.004768
7.86e-07
2.339e-07
1.433e-09
0.004088
0.001194
0.0003863
1.077e-08
0.000432
2.88e-07
0.003521
9.72e-08
6.057e-07
4.132e-06
0.00156
5.517e-05
3.38e-20
2.154e-05
0.0001739
5.193e-07
2.645e-06
3.621e-07
0.006687
0.0003018
0.003991
0.0004333
0.003614
1.652e-09
3.319e-05
4.744e-09
0.00349
1.638e-05
0.0003049
2.168e-05
8.826e-05
0.003918
0.0006571
7.66e-06
2.115e-06
0.0008746
0.002378
0.000387
1.094e-06
0.003392
6.393e-06
4.67e-05
0.0001112
9.337e-05
3.432e-05
2.101e-06
1.178e-09
1.025e-05
0.006609
0.0006477
0.002401
2.147e-09
2.075e-08
3.335e-05
0.002002
6.505e-07
0.006622
0.0001144
2.747e-06
0.0003496
2.329e-11
0.000342
6.799e-06
0.0004912
0.0009168
4.458e-05
0.006697
4.093e-17
0.0001524
0.0002262
5.766e-07
0.0004928
2.322e-05
4.057e-05
1.465e-07
0.006681
0.003779
3.048e-05
0.003767
2.378e-05
1.07e-06
4.709e-07
3.544e-06
0.00666
0.0007608
0.0004277
0.006691
0.006657
9.702e-05
0.002195
0.002552
3.072e-05
0.0004846
3.634e-13
1.723e-05
8.319e-06
0.006678
0.0003015
0.0001538
9.575e-08
1.308e-08
8.396e-06
0.00348
0.006115
0.001105
5.317e-10
0.006679
0.0001498
7.874e-09
8.006e-07
8.945e-10
0.005721
0.0009728
7.061e-07
0.006693
2.321e-08
0.006679
1.839e-06
3.101e-09
5.401e-05
0.000338
3.501e-10
0.00668
2.8e-06
2.001e-05
2.057e-08
4.075e-05
7.519e-09
7.469e-09
3.624e-05
5.774e-05
1.117e-05
8.22e-13
0.006692
0.0007343
3.928e-08
7.942e-08
9.628e-05
4.154e-11
0.003547
0.0001621
4.36e-06
7.51e-10
9.394e-11
1.319e-06
1.711e-14
3.669e-07
4.297e-14
9.822e-05
8.627e-07
0.003822
3.026e-11
0.0007722
3.379e-07
0.004921
0.005042
0.0005887
0.0004557
0.0002249
0.002615
7.005e-07
7.198e-05
0.0004397
2.195e-07
4.697e-07
0.006199
0.003116
0.0001701
0.0005085
1.929e-06
9.254e-12
0.000573
9.07e-06
6.26e-07
0.001055
1.396e-05
0.006688
0.0003357
5.493e-08
0.006431
3.219e-06
0.0001985
0.002413
0.006665
0.002548
0.002271
5.093e-14
1.503e-05
8.276e-12
0.0008975
8.114e-06
7.065e-07
4.788e-08
1.212e-05
0.005544
1.569e-09
8.743e-06
0.005414
8.624e-06
1.378e-11
0.001419
1.168e-06
1.005e-05
6.649e-05
1.005e-08
6.504e-14
1.154e-07
0.0008464
0.006694
8.085e-06
7.446e-06
5.938e-05
3.704e-06
6.058e-07
2.449e-09
4.445e-05
4.662e-05
2.306e-09
0.0001706
9.581e-09
0.006688
0.0007564
3.419e-06
0.0008367
2.836e-05
0.0006519
0.006692
0.0022
1.142e-06
4.144e-05
6.818e-05
7.971e-08
8.854e-06
0.001635
0.0004298
4.496e-05
3.068e-05
1.511e-12
0.0004215
5.381e-08
1.805e-06
7.504e-06
0.001596
6.17e-07
2.616e-05
8.812e-07
1.213e-10
0.0006095
0.006687
0.006683
0.0008152
0.0005972
7.565e-05
0.006698
6.961e-06
0.0006971
6.481e-05
1.063e-05
0.0005142
5.645e-06
2.296e-06
0.006705
6.775e-05
5.576e-05
1.776e-10
7.572e-09
0.0003093
1.113e-05
0.0007902
2.43e-06
1.712e-07
2.173e-06
0.002753
5.769e-06
3.029e-07
0.0001149
1.617e-09
0.006501
6.505e-10
3.714e-08
0.002476
0.0002262
3.898e-07
0.004261
8.651e-11
1.511e-12
0.006257
0.00669
0.0003167
0.0005395
5.122e-12
8.342e-05
3.554e-07
8.551e-08
2.947e-06
6.938e-05
9.727e-05
0.005382
1.743e-06
0.001349
9.871e-06
4.749e-05
3.891e-07
0.0002555
0.00533
2.833e-12
0.0001687
0.006691
3.338e-05
0.005613
0.006687
3.679e-06
7.873e-05
8.69e-11
0.006687
2.576e-08
0.006694
8.254e-07
9.424e-05
0.003421
1.759e-05
2.835e-08
5.912e-08
1.766e-06
1.293e-06
0.003566
0.0008338
0.0008223
1.545e-07
2.361e-05
4.208e-06
1.91e-10
1.524e-06
1.348e-11
0.0001721
6.279e-08
1.944e-06
9.436e-08
1.056e-09
5.29e-06
0.003956
0.00404
9.732e-06
0.0001917
5.59e-09
0.002813
2.645e-07
0.001259
5.836e-07
6.727e-07
0.0003367
9.245e-05
7.058e-07
0.001826
5.835e-07
8.445e-05
1.833e-08
3.778e-05
0.006524
2.933e-06
9.282e-06
0.006694
3.369e-05
2.091e-06
0.006677
3.905e-05
8.015e-05
0.0003741
5.196e-06
0.000982
0.0001538
0.0001031
0.006669
3.415e-05
2.056e-05
0.0067
7.031e-06
0.0001477
0.0007059
1.494e-05
1.472e-05
0.0004605
4.15e-06
1.957e-10
2.89e-08
9.254e-08
0.00109
2.86e-11
0.002657
2.697e-07
0.006692
0.0002908
5.641e-06
7.306e-05
6.672e-07
4.132e-06
1.254e-08
0.006698
8.134e-13
2.038e-07
5.808e-07
9.403e-07
2.733e-08
0.001929
0.004106
5.952e-09
6.013e-07
6.379e-05
7.814e-16
0.0004073
2.169e-07
1.149e-08
1.696e-07
1.919e-06
0.000199
4.806e-08
4.57e-07
6.721e-05
0.0003327
5.838e-08
1.132e-07
0.00128
8.996e-12
0.0001065
3.714e-07
0.0001266
2.385e-08
0.006647
0.00669
0.0006377
1.349e-11
0.0006227
0.001875
8.318e-11
2.288e-06
0.006692
9.575e-10
3.653e-07
0.0004019
6.539e-11
2.557e-05
0.0001622
1.308e-15
0.002391
7.005e-09
0.001146
5.4e-07
2.847e-08
7.64e-08
1.197e-08
8.73e-06
2.366e-05
0.0001337
0.002342
2.684e-05
5.19e-05
2.279e-05
6.291e-07
0.002334
1.529e-08
0.001181
7.634e-05
0.001791
3.973e-06
2.146e-05
9.642e-06
8.955e-12
5.342e-05
2.146e-09
8.849e-08
8.542e-05
0.0001314
0.006693
0.001556
0.0003025
2.126e-05
6.549e-08
1.206e-08
7.847e-09
0.006681
5.067e-08
3.036e-06
0.0004292
3.627e-12
0.0001621
0.003028
5.549e-06
0.002523
4.113e-06
9.039e-05
1.732e-10
8.016e-05
0.001384
0.001072
0.006699
7.376e-13
5.456e-12
0.000289
6.553e-05
2.829e-05
0.006489
0.006651
3.383e-05
0.001055
0.003569
8.697e-05
0.003095
0.003049
1.48e-06
0.0003698
0.002002
2.128e-05
1.3e-07
2.472e-12
2.878e-05
5.878e-09
0.0001416
1.333e-05
0.006653
8.509e-08
0.001249
1.186e-06
1.143e-12
0.0002414
0.002263
6.431e-05
9.653e-07
0.0005979
7.151e-13
0.001876
0.0002668
0.002075
0.00211
2.826e-05
1.229e-07
3.836e-13
6.941e-05
7.822e-06
0.006675
1.654e-07
1.03e-07
0.006667
8.498e-08
2.1e-06
0.000138
4.694e-08
0.006682
2.176e-05
1.985e-14
0.004254
2.836e-07
1.789e-06
5.742e-07
1.592e-09
5.038e-05
3.057e-05
1.35e-05
1.883e-09
0.0001086
5.328e-05
1.738e-05
6.981e-07
1.471e-08
3.864e-09
2.514e-06
0.0001352
0.006691
4.069e-05
0.0033
2.051e-08
1.162e-06
0.002369
0.0001133
0.006694
7.325e-05
1.621e-05
0.006611
0.002524
0.006133
8.704e-09
0.002503
2.351e-11
4.063e-05
0.0003799
1.138e-07
0.0004539
3.591e-07
6.394e-08
2.123e-14
0.000142
3.016e-05
0.0004295
0.0006544
0.001314
0.006702
0.0003142
0.00123
0.001301
0.006699
0.002029
0.006685
1.367e-05
0.0001303
0.006676
0.006686
5.621e-05
9.807e-05
5.415e-07
7.771e-05
0.006686
9.692e-06
0.000375
6.3e-05
7.854e-14
1.785e-08
1.508e-11
1.903e-07
1.446e-06
8.871e-08
1.771e-07
0.0004447
0.0002066
7.546e-10
0.0009707
3.126e-07
3.478e-06
0.0002765
0.0002741
0.003918
0.006686
2.012e-14
0.0002322
1.251e-09
0.006692
1.514e-12
3.673e-07
7.201e-08
0.0001404
0.006637
0.006637
0.0008094
0.001645
0.002064
0.001774
6.951e-07
5.034e-05
4.702e-06
0.002486
4.008e-05
3.801e-09
2.718e-06
0.0001798
0.0005513
2.752e-05
1.019e-06
1.082e-06
6.494e-07
7.907e-08
0.0007306
0.002615
0.0002087
0.0001412
4.47e-11
0.0004041
0.0004104
1.117e-06
0.00228
2.875e-07
0.0003909
3.504e-07
0.002917
0.006692
0.0007465
5.129e-06
8.95e-13
1.235e-09
7.284e-05
0.0001563
2.525e-07
0.000136
0.006617
2.093e-07
6.014e-06
1.03e-13
4.599e-05
1.391e-11
0.0001782
0.006686
3.998e-05
2.489e-06
0.001827
1.221e-05
0.001072
1.337e-05
8.994e-07
0.0001541
0.0007402
1.7e-08
0.0001427
5.322e-07
3.73e-07
3.609e-08
0.00323
0.003228
8.3e-08
9.145e-06
2.551e-13
3.166e-06
1.959e-08
2.304e-08
2.268e-14
0.002457
1.955e-05
0.0003774
0.003612
0.006686
0.001099
0.006255
2.378e-12
0.006692
1.257e-09
4.008e-05
6.235e-06
8.546e-07
5.722e-08
0.002552
6.846e-10
7.812e-05
5.848e-07
0.0007646
2.768e-09
0.00669
8.625e-05
1.45e-06
0.0009065
2.069e-07
4.149e-06
0.0003692
1.965e-07
1.115e-07
0.0001955
0.006661
1.485e-08
0.002601
0.006657
5.412e-05
8.299e-08
0.006661
2.521e-09
0.006694
0.0004851
0.0002963
0.00123
6.207e-07
0.006659
0.0006334
2.413e-06
0.0001833
2.805e-05
8.553e-06
3.638e-05
0.006692
0.00668
0.0003423
2.052e-13
5.965e-06
4.39e-07
0.0008722
2.068e-10
7.225e-05
4.879e-05
0.002931
1.8e-05
2.962e-05
6.572e-08
0.0006313
3.548e-07
0.001057
0.0003517
0.006703
4.005e-06
7.296e-07
0.0005737
6.899e-07
1.218e-08
3.133e-05
0.006677
0.0004057
3.148e-09
5.004e-06
2.178e-12
6.801e-09
0.002595
0.0003803
1.214e-05
2.738e-10
0.0003774
8.936e-08
7.094e-09
0.002812
4.73e-05
0.006688
9.494e-05
1.758e-07
0.000199
0.006693
1.37e-05
0.006692
0.0001005
2.778e-05
0.006689
0.002789
5.854e-05
7.977e-06
0.00109
0.002218
1.129e-07
0.006696
6.436e-08
2.047e-09
4.955e-05
0.003935
1.891e-07
0.001026
0.000273
0.0004523
1.727e-08
3.019e-06
0.0003978
2.472e-08
0.0002578
6.377e-05
4.129e-09
0.0001929
3.127e-05
1.811e-06
0.0002293
1.094e-07
0.0006078
9.984e-06
5.546e-07
0.0003123
0.002221
5.275e-07
0.002209
0.0001372
6.719e-05
1.929e-12
0.0001708
3.599e-11
8.077e-05
0.006663
3.673e-11
2.762e-07
0.0001061
8.072e-08
0.0004825
0.0004173
0.006705
0.00181
1.7e-10
0.001234
6.864e-06
8.739e-07
2.457e-07
0.006695
7.316e-07
7.52e-06
9.754e-06
1.077e-07
0.00048
5.776e-07
2.576e-09
0.006688
0.0002354
0.0003448
0.002738
0.0002583
3.072e-05
3.519e-05
5.574e-06
8.359e-05
0.001231
0.003151
5.221e-05
0.0002153
0.006527
2.644e-05
4.629e-08
3.581e-11
0.006697
1.227e-05
1.51e-10
0.002109
3.778e-06
0.001984
3.06e-07
3.541e-11
0.003008
0.002488
0.0002361
0.001028
1.223e-06
5.262e-06
0.0009729
1.294e-09
5.186e-05
0.0004983
3.281e-05
6.535e-15
1.799e-14
0.0002381
0.0002033
4.471e-05
7.533e-05
0.001208
8.359e-06
0.0009127
3.76e-07
4.686e-05
7.069e-05
5.275e-07
2.433e-10
0.0005222
8.731e-05
0.006236
2.799e-07
8.842e-05
0.0003033
1.362e-05
6.967e-05
2.847e-07
0.0002363
0.003507
0.00667
4.317e-08
7.024e-09
0.0004202
1.271e-05
0.0009759
1.383e-12
9.213e-08
0.0001773
2.255e-05
1.752e-08
0.0006701
3.555e-07
5.712e-13
0.00661
5.891e-10
3.792e-07
2.465e-07
0.004917
0.0007133
0.001699
2.564e-08
1.736e-05
0.001653
8.599e-09
0.004873
5.343e-06
1.554e-07
0.0001442
0.002062
0.005793
7.157e-08
5.219e-09
4.102e-07
1.33e-08
7.539e-10
0.0007634
1.959e-11
0.002542
3.956e-07
1.672e-05
0.002769
0.0001119
0.004045
1.904e-06
0.001137
4.678e-07
0.003103
5.371e-07
7.242e-14
1.998e-11
0.0001758
0.0002952
3.146e-05
1.214e-05
0.001845
0.0001923
0.0001631
7.516e-05
0.0067
5.829e-07
4.175e-07
1.434e-07
8.077e-05
1.155e-05
2.294e-07
0.0005966
1.109e-07
1.523e-11
9.385e-10
0.0001156
4.553e-07
1.24e-13
0.001728
2.856e-07
0.003097
6.911e-06
7.473e-06
5.196e-16
8.905e-06
6.632e-06
0.003524
0.0002423
5.414e-08
0.0001338
0.006554
0.006698
0.001215
7.26e-09
0.001618
3.909e-07
1.516e-11
1.585e-06
0.001763
1.276e-08
0.002613
0.0001254
9.399e-10
6.733e-05
0.003522
0.0003671
0.0001052
8.172e-05
0.000145
0.006696
3.34e-06
0.003431
8.48e-09
0.002854
1.344e-07
1.359e-08
4.201e-05
1.248e-08
0.0005826
3.976e-07
4.03e-07
4.65e-07
1.812e-05
0.00146
0.0001611
0.0003774
2.9e-06
0.0001154
1.25e-08
1.856e-06
0.0067
0.0001093
0.003331
1.49e-08
8.814e-07
0.00227
0.001269
7.568e-05
3.644e-08
0.003414
0.0001001
0.0007996
0.0003097
0.002271
0.0008535
0.0001785
2.384e-11
0.0001095
0.0003295
5.236e-07
0.006671
0.001148
6.486e-05
8.977e-05
0.001702
0.006687
8.84e-05
2.941e-07
8.721e-07
0.006692
0.001022
0.002518
4.093e-06
1.69e-05
0.001116
0.0003385
0.0004073
1.482e-08
7.098e-08
0.001727
1.26e-06
0.0004183
0.0001195
4.487e-07
3.98e-12
0.002277
1.142e-08
1.122e-07
0.001983
2.136e-12
0.00623
0.006661
1.24e-05
4.409e-05
4.135e-14
0.006692
0.001566
4.756e-07
4.21e-13
1.905e-06
2.649e-08
0.006297
0.006372
9.001e-08
0.0001264
0.000431
2.193e-06
5.463e-05
0.001205
9.902e-05
0.006705
1.41e-08
2.572e-07
5.517e-07
0.0006207
9.738e-10
0.000551
2.149e-05
0.006669
9.139e-06
2.583e-07
1.19e-08
5.657e-08
0.0001341
6.362e-10
1.114e-05
0.0003161
5.58e-07
9.798e-06
0.0001027
0.0001173
1.602e-06
8.378e-09
0.004823
0.005034
4.123e-06
7.199e-05
1.646e-10
9.043e-06
6.192e-08
9.476e-05
0.002539
0.006692
7.12e-06
0.006702
0.0005022
8.398e-12
2.373e-06
9.74e-05
1.183e-06
0.0001342
3.944e-10
2.564e-07
0.003006
6.912e-06
1.011e-05
4.426e-07
0.0008294
1.976e-06
8.332e-05
0.0002593
0.0004438
0.0002225
4.984e-06
0.001311
7.012e-09
3.96e-07
0.0002252
0.0001407
2.737e-09
0.0001637
1.066e-05
1.189e-06
9.521e-07
7.401e-06
5.521e-06
1.803e-11
9.878e-05
5.028e-05
0.001529
0.001472
0.006703
2.728e-07
0.002855
1.926e-11
1.414e-05
4.283e-05
8.011e-08
3.141e-13
1.054e-08
0.0005223
7.425e-07
2.767e-08
1.05e-08
0.002269
0.0007772
1.919e-06
3.634e-12
6.12e-05
0.000193
7.397e-05
7.426e-05
0.006693
0.0007679
5.971e-09
2.67e-05
3.567e-06
0.002254
9.978e-05
4.478e-08
0.006647
0.0004702
9.088e-05
0.00141
1.74e-08
7.731e-05
3.541e-05
0.003335
5.049e-05
3.61e-07
2.852e-06
4.631e-11
7.778e-07
1.85e-06
0.006677
0.0003025
1.163e-05
2.947e-08
4.086e-08
1.649e-06
0.003411
0.0002363
0.005969
9.471e-08
6.299e-08
8.031e-06
6.25e-06
0.0004394
3.516e-08
2.641e-08
1.128e-07
3.558e-06
3.952e-05
1.512e-06
1.246e-08
0.003946
0.0001006
1.165e-11
0.002768
0.0001803
0.00468
0.006699
5.475e-06
0.002891
1.414e-06
1.488e-06
0.0002608
0.0008197
2.441e-08
3.665e-08
5.076e-05
2.143e-07
6.254e-05
0.001646
1.058e-12
0.0004587
9.056e-05
0.002521
6.465e-12
0.001556
2.885e-09
8.692e-11
0.003525
2.868e-07
3.276e-08
3.486e-05
0.001221
8.301e-08
8.552e-07
7.924e-08
0.0006458
0.0004046
0.0001857
0.0042
0.006701
4.335e-05
0.001268
2.566e-05
3.299e-06
0.0002907
1.731e-11
0.00107
0.005033
1.411e-05
0.000306
0.001439
1.088e-06
0.0003476
1.027e-06
2.632e-08
6.548e-09
3.462e-11
1.181e-05
2.274e-07
7.813e-06
0.0001024
1.933e-05
2.187e-05
4.146e-12
2.138e-05
5.411e-07
8.665e-06
0.006683
3.622e-05
8.519e-06
0.001208
3.762e-05
2.891e-11
7.848e-07
9.311e-07
0.0005354
0.0003303
1.176e-08
0.006694
1.264e-07
0.002111
0.0001191
4.49e-06
4.445e-08
0.0067
2.801e-05
0.00122
1.315e-05
3.235e-10
1.856e-05
0.000186
2.676e-13
0.0002763
2.146e-07
0.006667
0.00664
2.629e-07
0.0004535
2.001e-05
2.082e-06
5.45e-07
0.006685
2.921e-08
1.081e-08
0.0004686
0.006699
0.004191
0.0003639
0.0001448
2.573e-07
9.034e-15
3.491e-08
0.005519
5.866e-08
1.392e-10
9.003e-05
3.21e-08
1.674e-07
0.002693
7.812e-05
6.981e-08
0.001136
0.0005886
0.006632
0.006587
0.006613
0.006272
0.0001588
0.000877
5.497e-06
6.762e-08
1.736e-05
5.012e-05
0.0005508
2.833e-07
0.006122
0.0001305
0.0003038
5.69e-07
5.978e-07
2.232e-07
0.0001401
7.609e-07
1.068e-07
0.0005701
4.359e-07
0.0002165
4.976e-07
1.251e-13
2.39e-07
4.573e-10
3.881e-06
1.448e-06
0.006692
5.567e-12
0.0001231
9.065e-08
1.696e-05
0.0001354
5.727e-12
0.006693
0.0002124
1.424e-06
0.004261
0.0001171
7.99e-05
0.0011
0.0001877
1.018e-08
7.487e-05
6.72e-07
0.006624
7.668e-06
8.361e-06
1.273e-05
0.001057
3.38e-06
0.006681
0.005015
4.371e-05
2.039e-05
2.861e-07
0.0001323
0.0009461
6.892e-05
5.362e-05
1.705e-08
1.027e-07
0.001725
0.002566
0.00087
0.0001347
0.0001114
8.395e-13
3.565e-06
0.006691
1.545e-10
0.006694
0.00669
7.086e-05
0.002542
2.832e-09
0.000902
1.43e-08
0.0004401
7.897e-08
0.006695
0.0001092
3.811e-05
1.892e-07
0.001881
0.003519
6.307e-05
1.339e-10
1.473e-08
0.006702
1.426e-09
1.186e-08
3.715e-14
0.002946
0.001988
0.001156
9.561e-05
0.0006329
0.002211
2.184e-06
1.187e-10
9.42e-06
3.499e-08
1.399e-13
0.006692
6.775e-08
1.176e-07
5.876e-07
0.006693
2.148e-08
1.432e-11
3.304e-13
1.727e-12
0.000101
0.0003752
2.554e-12
0.000331
7.017e-05
0.006687
0.001002
4.394e-07
0.003169
4.08e-06
1.698e-12
9.73e-05
0.0002338
2.499e-06
0.006706
0.005513
1.105e-07
5.229e-07
0.002992
4.868e-08
0.000145
9.536e-05
0.001471
0.000563
3.485e-05
0.0001512
0.006693
0.000313
0.0003606
1.844e-07
2.744e-06
1.097e-06
1.097e-07
1.284e-06
9.963e-12
4.234e-12
7.332e-16
7.581e-08
0.0001743
3.027e-08
0.0003529
1.503e-08
1.155e-08
0.006692
1.66e-13
0.006705
1.642e-05
2.284e-09
4.498e-09
0.0001406
1.498e-06
7.719e-06
5.687e-07
0.00663
9.898e-14
9.142e-05
0.002926
0.001582
0.000172
4.697e-12
2.949e-11
4.698e-12
0.001646
6.017e-08
5.489e-08
0.001032
2.535e-05
5.7e-07
1.465e-09
0.006668
0.0001728
8.231e-07
0.0001247
1.083e-06
0.0006446
0.003147
5.087e-10
3.539e-07
4.03e-07
3.507e-11
0.003067
1.446e-09
4.026e-05
1.288e-06
2.107e-05
0.006456
0.0001194
1.608e-06
2.538e-06
1.883e-05
1.114e-11
0.002946
0.004271
2.61e-05
1.541e-07
1.13e-08
0.0005252
0.003386
0.006431
0.0002999
7.522e-09
0.006342
3.965e-06
8.932e-08
9.491e-05
5.39e-05
0.0004934
4.461e-11
6.057e-12
1.663e-12
8.598e-05
6.026e-08
0.0001203
7.793e-05
0.001925
0.002277
4.624e-10
0.001326
1.215e-08
1.372e-07
1.577e-08
4.481e-07
3.723e-05
8.261e-12
0.0009673
7.813e-07
0.0005838
0.003208
1.097e-06
0.0001507
0.002159
3.537e-06
6.167e-07
0.0001616
1.03e-06
1.368e-06
7.09e-12
1.183e-13
0.002718
5.067e-13
0.002273
7.758e-05
0.0001151
0.00019
5.505e-06
0.006704
3.976e-07
9.384e-12
3.642e-06
6.109e-09
0.001103
0.0004899
5.034e-07
0.0001187
0.001332
2.49e-06
0.001652
5.554e-10
6.134e-05
0.005283
0.0001163
8.224e-07
0.0067
0.0004822
6.697e-09
0.006695
2.99e-05
2.433e-05
1.443e-07
2.042e-05
1.398e-09
0.002539
0.0005268
4.85e-05
2.964e-08
7.145e-08
4.74e-08
9.671e-07
0.006684
1.312e-07
0.00669
7.691e-05
2.473e-05
0.001072
2.082e-12
3.045e-05
3.669e-08
0.00238
8.221e-09
2.344e-05
0.002353
0.0006484
3.857e-06
0.00667
3.121e-05
0.006694
3.958e-08
1.261e-07
1.92e-06
0.0001276
0.006628
1.235e-06
1.263e-07
9.97e-05
9.957e-09
2.611e-05
7.538e-07
0.0005986
0.0002602
4.387e-05
4.106e-05
2.221e-05
2.494e-06
0.0001199
1.478e-05
0.0001047
3.836e-06
0.0001047
0.006623
0.006667
0.002066
0.0003431
5.396e-06
1.075e-06
2.126e-06
0.002437
2.018e-07
7.358e-06
3.497e-07
0.006698
9.06e-07
4.095e-05
5.35e-09
0.002857
1.852e-13
0.000362
3.539e-09
0.003566
0.0001301
1.782e-11
0.0003252
4.166e-07
2.962e-07
2.006e-07
9.143e-06
0.0001638
0.006693
3.233e-07
9.375e-06
0.0002784
0.0001532
0.0003662
1.416e-05
0.0004023
9.731e-07
4.92e-08
0.006686
0.0009807
1.584e-06
1.848e-09
6.849e-06
0.006701
8.006e-06
4.1e-07
0.0007166
0.0008098
6.934e-06
1.037e-07
0.0002096
2.253e-06
2.906e-05
0.00245
0.0001363
0.0002508
0.005306
5.101e-06
1.851e-12
0.0003538
0.0001518
8.833e-09
1.375e-05
2.241e-05
0.00669
0.0003192
9.368e-05
0.003545
4.326e-11
5.202e-05
0.006697
0.00106
6.899e-07
3.723e-14
0.006697
0.0006454
7.75e-09
3.606e-07
3.449e-05
6.283e-05
4.719e-08
0.0001492
3.214e-06
3.075e-08
1.126e-10
1.32e-07
0.002062
0.0002102
0.0005796
7.325e-05
0.006683
6.263e-05
2.072e-05
0.000911
7.528e-06
2.159e-12
1.293e-09
0.002105
1.065e-06
8.997e-11
0.002189
9.334e-08
0.0006357
3.495e-05
7.191e-05
5.328e-09
1.764e-11
0.006688
1.503e-05
6.877e-07
0.006697
1.391e-08
0.0009215
1.037e-05
0.0001508
0.0003699
2.956e-08
9.715e-06
3.957e-06
0.006704
0.002939
0.002226
0.0001464
0.006685
4.757e-05
0.0003701
1.134e-08
0.002925
0.00102
1.302e-07
4.535e-09
0.001853
0.0002546
0.006677
1.177e-11
1.337e-05
3.887e-08
6.557e-08
0.0001001
1.751e-07
2.865e-05
3.474e-05
2.307e-12
0.003903
4.016e-11
0.006672
0.006685
0.0003821
4.933e-05
0.006683
9.303e-13
3.556e-07
1.492e-07
3.285e-08
4.404e-05
0.0003575
0.004909
7.606e-13
0.0007667
8.971e-07
0.006666
2.041e-05
0.0001281
0.0003331
0.0002527
0.0003244
0.003254
5.694e-06
0.006656
0.0002813
1.314e-07
3.496e-08
5.526e-09
9.969e-05
0.0006391
5.746e-06
0.006699
9.84e-06
8.22e-06
0.0001666
0.0002402
0.0003142
4.511e-11
0.005964
0.006681
3.504e-06
5.065e-07
0.002445
1.965e-08
0.006701
1.103e-07
6.463e-05
6.477e-07
0.006701
7.224e-05
1.776e-08
2.511e-07
6.014e-08
0.000665
2.569e-06
0.006679
4.743e-08
0.004663
1.059e-06
1.18e-12
0.001923
0.0001511
0.001616
1.717e-07
1.104e-09
5.639e-06
9.113e-05
0.006657
0.0002832
8.785e-05
0.006689
1.084e-05
1.194e-06
0.00206
0.006694
0.0001251
0.0001115
0.0001726
2.2e-07
0.0001244
0.006694
3.329e-07
8.956e-07
5.46e-06
0.0006168
0.006696
0.00669
0.0005444
0.0003827
0.001483
4.866e-08
1.869e-12
2.663e-11
9.678e-07
6.812e-11
1.174e-09
0.003765
4.103e-12
0.0002088
9.304e-08
0.003284
6.985e-05
2.282e-05
8.206e-08
1.468e-06
4.146e-09
4.338e-06
0.0003154
0.0005155
1.965e-07
7.172e-07
1.692e-05
9.689e-05
8.072e-05
4.447e-05
1.451e-07
0.00416
0.0004331
9.247e-06
1.743e-05
1.056e-05
1.456e-06
1.071e-11
1.606e-08
0.006662
6.813e-10
0.0003917
0.006657
2.304e-06
0.006694
2.022e-07
0.0001754
0.002619
6.935e-06
5.775e-07
0.006707
3.033e-05
0.003149
1.532e-10
0.0009293
1.592e-05
3.923e-11
2.623e-05
0.006688
3.473e-09
0.0005105
0.000507
1.712e-05
0.002014
3.298e-07
2.695e-12
4.916e-08
0.0001803
0.00172
2.06e-05
5.014e-06
0.006689
0.0002314
1.797e-07
5.498e-07
0.0001131
0.006701
1.031e-11
2.844e-07
1.805e-06
0.0001556
0.0003188
0.0001772
0.006655
0.0001762
2.169e-06
2.992e-05
4.331e-05
3.759e-07
3.168e-08
0.002516
7.847e-06
7.931e-06
0.001999
5.422e-05
0.002946
1.959e-06
3.503e-05
8.1e-06
0.0067
2.103e-07
0.002429
0.0004217
2.478e-05
3.875e-05
1.12e-07
0.0001572
1.504e-14
0.001227
2.214e-05
0.002104
0.006677
2.04e-05
2.825e-06
2.606e-09
2.034e-07
3.425e-05
6.536e-08
9.689e-09
0.0003723
2.313e-05
0.0001947
1.047e-07
2.474e-10
0.0003775
0.0001217
5.144e-09
4.676e-05
1.304e-08
6.634e-06
0.001874
0.0009766
2.169e-07
0.006693
0.0001041
7.302e-05
0.006689
0.0003169
4.998e-09
0.002274
8.626e-14
3.755e-08
8.395e-06
0.006689
0.0003436
3.765e-05
0.003413
0.0005846
0.0003155
9.475e-07
1.642e-05
9.064e-08
0.006695
8.357e-05
0.006684
3.885e-05
1.91e-05
1.635e-06
2.738e-05
1.08e-07
6.964e-14
0.006611
0.006692
1.991e-06
7.733e-07
8.406e-09
9.173e-05
0.000107
2.791e-08
0.0009727
0.001683
0.002576
9.349e-07
6.899e-09
2.691e-05
0.0004907
0.006686
1.08e-06
6.248e-05
0.0002736
7.314e-08
7.704e-05
0.001931
1.08e-07
6.421e-05
0.0004065
2.775e-06
9.06e-05
0.0001602
0.006686
0.006556
6.574e-08
5.502e-08
3.746e-06
0.004048
0.0001092
0.002969
3.036e-07
5.031e-06
0.006604
8.506e-06
2.114e-05
3.787e-13
2.089e-08
1.39e-07
0.00668
6.373e-08
5.598e-07
1.128e-06
1.261e-06
1.115e-11
2.15e-05
0.0004083
4.896e-07
8.305e-07
3.622e-08
1.861e-09
0.002188
0.002851
0.003961
8.835e-05
1.076e-13
0.0008005
0.001982
6.768e-08
2.139e-06
0.001689
3.203e-07
0.0003011
1.458e-09
0.001275
6.133e-07
0.0005129
2.637e-05
8.843e-06
3.925e-13
0.0006247
3.144e-11
1.822e-11
0.006692
2.798e-11
1.932e-06
8.918e-09
9.265e-08
0.0003323
0.001127
5.334e-05
6.393e-07
8.353e-06
4.617e-05
0.001063
0.0009413
0.0003583
0.0009314
0.0001313
1.604e-05
6.479e-05
0.001061
1.473e-11
0.0003459
1.858e-08
5.851e-07
6.148e-08
0.006649
2.231e-06
0.00015
3.293e-08
0.001459
2.328e-11
1.365e-05
2.214e-07
9.237e-05
3.148e-08
8.319e-05
0.0008458
0.00043
0.0002124
8.535e-05
0.0006221
3.7e-06
0.0002251
2.42e-05
5.033e-06
2.319e-07
0.0004608
2.244e-11
4.613e-06
1.438e-11
3.934e-05
0.0008885
6.945e-05
0.002321
0.0001427
3.981e-07
0.006693
0.003147
0.006692
0.0003019
3.838e-07
2.195e-05
0.00158
8.052e-06
0.0005342
5.779e-05
2.03e-12
2.731e-09
1.735e-11
2.663e-07
0.0001053
3.313e-08
5.113e-08
0.0001418
2.065e-07
0.006695
0.0003827
0.003592
8.831e-06
0.001289
0.00668
0.00668
8.981e-05
0.002496
0.0001488
1.201e-12
3.106e-07
0.006673
0.006693
9.034e-07
0.0002713
4.921e-08
1.61e-10
0.005167
3.352e-05
6.886e-06
1.771e-07
6.465e-06
1.763e-12
8.802e-06
9.929e-05
1.447e-06
1.504e-07
2.437e-05
1.452e-05
5.554e-06
1.344e-05
2.864e-08
6.281e-05
6.614e-14
0.005846
1.127e-06
3.71e-07
2.626e-08
0.006695
0.0003981
0.006692
0.001318
0.0008891
3.574e-06
0.0003664
2.779e-07
1.325e-06
0.0001059
1.364e-08
8.245e-08
8.061e-07
1.915e-08
3.533e-08