/*--------------------------------*- C++ -*----------------------------------*\
  =========                 |
  \\      /  F ield         | OpenFOAM: The Open Source CFD Toolbox
   \\    /   O peration     | Website:  https://openfoam.org
    \\  /    A nd           | Version:  8
     \\/     M anipulation  |
\*---------------------------------------------------------------------------*/
FoamFile
{
    version     2.0;
    format      ascii;
    class       volScalarField;
    location    "55";
    object      omega;
}
// * * * * * * * * * * * * * * * * * * * * * * * * * * * * * * * * * * * * * //

dimensions      [0 0 -1 0 0 0 0];

internalField   nonuniform List<scalar> 
127143
(
3.821e+07
7.184e+07
8.194e+07
3.494e+07
2.933e+06
3.537e+07
1.159e+06
2.025e+06
3.234e+06
4.719e+05
1.704e+06
2.662e+06
9.642e+07
2.958e+07
396.5
7.925e+04
9.896e+06
14.07
8.57
3.252e+04
17.86
7.134e+04
0.08058
262.3
7.683e+04
1612
5974
5755
5145
13.09
403.9
1771
6063
1060
0.04176
6136
43.73
84.36
204.3
2127
8.619
0.4256
0.3075
1.373e+07
13.61
1048
4620
17.5
266.4
228.5
5.048e+04
0.02518
58.1
0.1711
0.02092
560.1
0.02091
0.3098
0.02214
0.1701
0.2932
9.642
74.33
0.02211
373.4
0.3701
0.04564
90.08
89.47
0.08346
300.8
4071
12.41
0.02213
0.02179
4152
0.02279
27.96
551.5
0.02222
4787
2.901e+04
361.9
1325
14.4
24.4
159
4705
0.3148
603.4
0.02206
5.948
275.9
17.8
49.59
0.2723
0.3908
541.1
15.67
0.04514
0.02221
251.4
2726
4.843
23.26
16.18
89.39
0.08378
1.221
0.02132
294.6
5220
26.43
5.379
0.02174
1.441
0.023
0.02179
0.02269
2.882e+05
0.02134
330.2
40.5
0.1467
4713
2754
10.52
0.0233
64.49
619.7
34.67
52.17
38.42
27.33
1.119e+06
32.93
0.04842
17.64
3567
0.04279
0.114
0.0223
55.81
33.42
59.83
35.77
1.814e+04
0.02213
56.14
3640
10.19
238.3
87.33
0.06743
38.68
14.08
0.3102
778.4
17.13
655.5
288.6
9.342e+04
0.02207
34.47
1391
292.3
54.91
0.4633
1012
0.02594
813.3
32.81
2.314
18.93
0.2711
42.19
21.49
64.28
230.4
0.03164
18.85
0.03187
39.66
41.39
612
9.559
0.08381
5.596
243
0.03116
40.36
53.62
0.04488
69.53
2.051e+06
11.43
0.0194
0.01934
2.222e+05
0.02178
0.0217
0.02601
2.66
39.07
1.109e+07
130.9
0.0472
18.66
12.61
0.02175
0.218
17.88
0.02165
1036
62.17
2.288e+05
2627
19.73
30.37
0.04744
14.17
0.02184
240.3
71.73
781.9
909.4
977.5
85.75
291.7
12.53
19.04
0.0317
11.91
1.971e+05
18.84
0.0816
34.43
4.482e+06
0.02169
42.35
51.19
212.2
25.96
760.8
135
2.284e+05
152.1
5816
1.703e+05
0.1009
2.431
1169
25.63
21.47
377.7
1.294
0.02326
1321
4.976
0.05236
12.87
0.02608
3.484
0.02224
124.6
262.4
141.8
88.56
0.5722
32.34
904.8
0.268
14.33
41.74
42.6
40.7
25.97
196.2
0.5074
2.818
0.07033
0.6132
4.756
0.02175
0.02174
1.891e+06
40.5
0.02174
213.9
0.03293
85.74
0.1921
0.08123
3.615
0.02167
2.513
356.1
121.4
25.97
26.75
522.3
0.3298
0.2626
1.185
902.9
19.58
18.52
0.02165
19.93
20.46
99.78
772.1
638.6
0.05514
0.02173
343.4
81.99
532.4
0.1934
2.14
0.07599
326.9
0.02813
25.73
366.3
98.51
0.03089
110
339.5
13.62
11.22
0.02174
0.04133
0.01942
0.01935
0.06616
1.196
2.304
11.25
47.75
0.0421
19.74
66.95
41.44
7.201
214.5
160
34.87
489.2
74.24
431.1
9.112
44.73
40.93
0.0278
135.4
21.23
27.45
0.02323
342.6
12.09
60.93
19.78
219.8
222.8
0.02192
0.02178
1.434
384.2
0.5119
0.83
0.02827
779.1
237.8
0.02966
0.06913
323.5
1.546e+05
15.19
0.527
30.84
2030
394.1
0.3274
0.02292
1.27e+04
0.03577
1841
11.57
50.53
0.02183
0.1814
455.2
373.3
242
392.2
0.1847
344.8
0.02772
0.02574
1280
0.02184
19.93
37.7
0.03673
15.93
21.12
35.59
0.02222
210.1
10.56
527.1
0.1148
15.54
26.83
47.94
19.31
1006
110.9
220.2
51.93
4709
80.81
0.07627
12.77
0.0595
0.2723
0.07882
178.5
0.05497
0.02115
81.74
50.55
4.413
234.4
0.02192
20.62
134.8
0.02488
0.02167
0.02172
204.5
0.04907
1.533
0.02383
516.5
0.02172
154.8
1.521
17.85
16.21
349.1
13.52
468.7
0.03599
34.93
590.6
142
29.69
62.36
31.25
78.27
32.68
2.03
73.93
0.203
0.02197
28.79
209
0.02078
13.29
1.873
0.1472
83.53
0.04199
0.02028
34.08
1.259
380.6
97.52
5431
125.5
112.1
642.8
5.463
230.9
114.1
0.02163
525.5
0.02231
172.5
143.9
53.66
40.43
3.46e+06
40.47
1.891
0.09918
2.643
0.02166
5406
0.022
33.34
11.48
5.043e+06
2.528e+05
8.19e+05
0.02194
133.6
392.4
0.02173
10.97
65.01
39.41
5.591
16.64
352.7
13.19
3442
0.1719
21.09
1.664e+05
291.8
495.5
653.7
0.02202
9.301
1.715
34.64
0.02199
627
3453
449
0.01964
28.58
0.0869
1552
7.864
1625
27.42
0.0224
162.3
5.556
0.02081
0.3289
91.48
315.7
217.9
225.2
435.8
11.53
101.5
155.8
41.11
76.24
0.02191
1479
29.75
579.9
46.29
22.5
0.02212
0.02207
0.05006
167.4
4.273
0.02173
0.02932
2.748
557
21.84
5.509
740.9
3021
1.496
0.0224
0.02134
448.6
14.83
58.33
0.03178
3932
32.93
63.62
0.5189
853.9
0.02172
19.99
32.09
42.84
0.02716
169.6
12.94
2.036e+04
0.02026
83.24
2524
0.02171
15.89
0.02174
158.5
100.1
0.02175
261.5
320.1
430.8
47.24
65.21
427.2
392.3
20.75
187.2
195.2
212.1
51.25
83.94
666.4
0.02681
529.2
0.02174
4.426
0.02357
58.16
0.02116
0.02175
0.4428
217.3
22.48
0.02137
0.02115
252
2120
256.3
473.3
10.4
1.474
15.99
11.95
41.85
120.8
432.9
0.02139
98.4
43.01
0.3947
20.52
0.02215
0.02927
103.7
2714
113.8
1.092e+04
0.02352
0.0384
44.8
116.5
0.02576
386
0.111
0.08079
209.1
4.986
44.15
0.09025
8.656e+06
775.3
28.83
35.22
39.56
64.65
723.1
130.3
0.02434
58.25
130.5
19.73
0.02121
186.9
0.2705
0.1798
0.01963
0.02119
1.121e+04
0.09972
404.1
52.71
79.26
20.02
0.5763
630.6
0.08046
363.1
0.02163
0.02089
3.221
0.06156
315.4
0.1745
1314
10.05
380.2
0.1382
19.92
0.03672
510.3
0.0422
389.4
1.213e+06
36.48
135.5
14.66
0.02864
62.77
216.9
8806
11.26
28.04
41.89
3114
19.65
284.9
8.299
295.9
79.78
20.33
10.42
0.2193
1.868e+07
0.2683
0.02573
108.8
57.5
141.2
0.02154
59.22
9.317
21.56
0.04121
1.158e+04
72.72
872.1
0.04611
147.7
50.28
125
72.4
0.03856
16.67
576.3
265.3
22.16
0.02181
68.44
58.05
0.02182
19.35
0.6021
60.94
39.96
0.2897
36.69
1515
114.8
0.01934
16.82
9.558
1483
508.7
0.1899
10.78
380
0.01937
37.5
207.5
92.61
1.37e+05
95.66
418.8
27.09
23.88
1.923
0.02193
1.397e+07
33.34
44.76
994.1
23.98
130.6
61.34
260.3
0.02132
9.437
4.89
0.03878
77.96
170.4
91.81
41.39
0.02048
15.48
46.13
0.02163
0.02043
20.83
9.711
10.39
124
19.96
4.925e+04
7.982
0.1553
0.02123
21.46
48.63
368.6
717.8
0.4083
0.05554
0.02194
2.403
4617
0.02125
0.1188
1737
61.93
1554
0.0259
24.26
67.08
0.0218
478.2
0.0212
84.42
4683
84.45
154.7
3356
0.0219
240.7
0.09964
605.7
246.7
767.2
4437
0.1885
0.43
0.8375
2e+04
0.02178
66.42
522.3
865.4
137.6
5105
0.05334
0.2339
460.6
2172
1.132e+04
506.3
3.474e+05
530.9
6.393e+04
50.42
799.3
9.677
8850
0.02274
117.7
0.02731
0.02646
43.25
0.02542
44.83
14.36
4.605
1.091
0.0364
501.6
117.1
0.02182
16.71
39.12
0.03516
326.5
3.784e+04
35.53
15.47
306.9
39.81
184.9
0.02169
55.72
389.9
0.02306
245.5
29.31
9.568
0.02069
2.455
23.48
1.131e+05
2.588
3.826e+04
12.95
18.39
89.81
3786
136.1
0.02358
3144
0.2789
0.02431
1.881
1.213e+05
39.21
218.9
10.71
2.493
7380
5.832e+04
263.9
0.02237
0.02183
16.62
3.954
60.92
237.4
19.4
2050
183.1
0.06871
2008
0.04491
1915
0.0216
18.01
757.7
29.94
83.44
14.9
0.02177
0.02182
691.6
0.1416
104
264.6
260.5
13.19
126.6
129.1
101.5
1.54e+04
53.38
450
249.5
14.61
12.24
70.15
116.8
1543
4.457e+04
15.34
0.02154
0.02139
14.84
25.96
0.4993
0.02081
14.11
16.12
0.517
201.3
111.5
147.7
1.574
0.02223
0.2252
0.5805
4660
907.9
52.77
0.236
60.7
350
250.2
29.25
9.299
31.57
150.9
55.09
2411
0.02288
4656
4525
9.432
44.8
426.8
0.02175
1.148e+04
1.758e+04
0.02181
0.02154
49.48
20.71
1.624e+05
145.1
113.1
407.4
216.5
0.2538
0.323
0.02247
261.3
19.12
129.6
2.087
1933
30.48
0.0283
1.153e+04
71.6
0.02172
105.7
0.02528
0.02164
24.53
0.08655
1.223e+04
0.02157
476.4
0.02181
212.6
0.07422
15.28
7.613
473.7
328
250.5
42.72
0.05572
0.03498
31.94
207.1
137.4
168.3
3879
257.2
1.759e+04
50.49
390
208.6
307
1566
0.1175
10.7
0.04216
177.9
83.9
842.3
0.06581
370.9
12.2
94.19
109.4
40.36
0.766
524.9
14.63
94.22
119.5
654
259.1
0.02103
23.95
187.6
0.0218
97.97
316.4
0.02067
1.426
146.6
0.03371
0.1228
49.91
92.3
0.1374
0.01977
87.2
91.38
0.02162
0.09253
0.02965
15.83
115.8
9.867
0.03354
722.1
3.484e+04
515.3
268.8
11.89
8844
0.07788
165.5
0.02176
21.88
5.999
73.34
109.3
892.9
2597
0.02196
1.665e+05
565.7
431.2
57.91
1253
11.75
11.71
1028
76.17
0.03218
3.354e+05
33.71
260.5
731.7
192.6
93.97
75.49
1961
99.15
50.99
155.1
351.5
284.5
37.82
3.092e+04
0.09469
127.1
0.08468
494
0.01969
0.02165
90.18
1.128e+04
18.96
1.211
1.314e+04
429.3
0.02179
1771
113.1
136
3.858e+04
1.55
54.49
3.373e+06
17.16
3008
12.04
84.93
1483
295.3
665.5
5.79
127.3
0.07303
17.35
32.56
55.24
7.303
114.5
10.55
7548
15.87
0.2049
13.75
0.3996
0.46
13.46
2.944e+04
0.03634
2673
872.7
69.05
35.98
0.0218
11
40.98
0.712
1352
731.4
882.6
0.02135
376.1
774.4
25.05
1.122e+04
135.2
11.14
323
0.0219
407.1
53.22
3573
66.37
0.06265
14.86
0.0217
4.124e+04
1.304e+04
32.58
0.4268
6.014
0.02087
0.01978
216
22.26
8.276
0.06956
0.05134
0.05258
2.752
21.32
19.39
102.6
245.4
1.338e+04
0.6164
783
70.18
103.1
0.01981
395
11.16
72.05
1.659e+04
89.98
10.78
48.36
60.51
25.16
5.176e+04
29.52
27.95
11.14
11.96
4.978
232.8
4.295e+04
0.1183
591
0.02118
257.3
969.6
0.02031
1402
39.38
43.75
377.4
0.02138
0.6337
1.104e+05
0.02175
218.9
240.1
97.21
4797
0.4953
4.785
359.6
1484
37.58
87.32
0.04994
96.69
3113
6447
505
32.61
0.02169
150.2
10.83
609.3
114.3
9.606
35.21
0.02168
2.174
105.5
0.02202
9.984
0.0225
2938
10.27
9449
88.3
77.39
486.1
24.21
180.8
400.7
8.516e+04
36.47
68.75
81.18
21.03
14.07
0.02211
52.12
0.02209
11.01
0.022
12.89
0.02147
186.1
64.67
0.02066
0.02162
188.5
0.1295
403.8
0.08436
0.02003
4.901
22.54
0.03109
8.691e+05
1415
9.034e+04
183.5
39.91
280.8
186.6
42.1
0.6979
2249
24.3
625.3
275.3
41.65
90.34
8.28
0.02155
8.447e+04
28.97
2347
0.02179
1.513e+04
190.1
294.3
76.67
0.01973
0.01971
9.184
31.17
6.393
10.29
68.44
0.6017
0.6692
2.519
3.899
1374
56.11
0.6906
18.11
5.076
436.9
358.1
84.99
307
14.48
0.0219
79
98.33
5614
62.52
0.03388
73.7
1.31
155.6
47.74
572.3
16.05
0.02174
21.78
30.12
2.138e+04
4731
0.5028
33.15
509.8
0.1022
0.01972
790.6
177.4
7.833e+04
0.05315
3.13e+04
60.45
0.02152
87.16
577.7
10.69
0.09874
17.99
339.5
59.05
81.24
47.21
1197
0.03956
224.6
540.6
472.7
0.05651
0.05638
323.4
5.942
7.559e+04
63.64
562.8
621.7
8.492e+04
1.448
149.3
0.02468
0.02176
0.0215
15.88
0.02289
2.367e+04
0.02173
3456
0.2285
19.22
187.8
434.6
0.09423
7942
0.1945
153.9
14.04
4542
0.02166
64.17
285.8
12.9
3829
708.7
20.3
799.7
1303
0.04391
0.0206
3817
0.07321
0.01996
0.2311
3222
0.0206
1429
0.02184
39.65
156
13.58
69.3
0.02091
18.73
260.2
85.29
0.0598
13.73
0.1397
0.02173
0.02122
45.73
1.541e+05
24.59
95.91
0.024
1.041e+04
0.2669
0.07023
0.06077
1.117
69.9
392.5
0.02484
203.3
0.02225
40.68
0.02217
0.2282
126.7
35.13
3.523
712.5
81.5
0.02119
97.6
1053
189.6
1.383e+04
742.8
11.35
0.03264
2.243
1.694e+04
76.18
832.4
9637
0.07479
0.13
0.02159
81.52
199.1
90.23
0.0218
278.2
0.02175
0.1638
74.1
0.02137
10.83
0.4099
18.86
15.43
0.9932
285.7
0.0219
381.5
2650
3.343
8.33
177.3
0.03908
168.5
42.91
1470
52.64
40.73
476.4
39.64
80.44
3436
0.06521
0.1424
73.91
0.03318
236.3
16.74
0.08293
85.13
0.024
0.3453
1584
23.1
172.3
64.47
1.451e+04
43.71
5543
0.7858
0.02066
5618
139.7
0.08731
308.2
0.02714
79.78
0.02223
11.97
3144
12.51
6.555
70.54
150.2
0.02187
65.94
0.2335
4.521
492
0.02474
103.4
1130
0.02159
0.02513
53.15
0.07338
101.2
1.908
1.27
14.51
0.5394
19.3
0.07117
1.16
45.51
0.02104
0.141
688
1.479e+04
0.02087
160.2
4515
19.17
163.1
10.34
166.1
1.439e+04
0.05828
0.1117
68.32
0.02497
442.3
8.217
20.76
1855
86.13
0.02438
95.03
2.224e+05
8.321e+05
65.11
75.65
85.25
0.8015
15.48
12.71
23.91
516
177.2
168.5
176.6
7288
16.49
1.654
0.02171
633.5
1.824
22.34
0.1577
0.03952
146.3
66.04
10.23
0.02036
468.9
756.8
122.6
168.3
12.69
1.566e+04
291.8
0.02633
108.5
5809
20.96
112.9
2.572e+04
0.01939
2165
424.5
168.4
0.0276
19.38
11.72
519.3
146.8
15.45
740
0.03232
2.022
201.2
0.04775
12.46
0.02168
345.2
2674
156.7
804.7
1.18e+04
21.52
6509
0.1072
540.6
4.074
9.527
0.03531
9.976
32.49
17.75
124.2
0.06459
100
5.871e+04
1.567e+04
46.71
58.91
0.4491
0.5567
0.02188
0.02547
71.68
0.2706
0.02166
81.33
137.1
242.2
107.3
12.6
201.4
71.7
1293
1.671e+04
1.82e+04
0.08022
99.07
4.583e+04
10.38
1770
12.5
15.69
44.5
5.816e+05
12.15
14.73
0.04343
0.04975
772.1
58.61
0.02173
0.02196
11.3
751.3
15.62
110.1
1.031e+04
7.055
0.02347
614.6
9.873
72.45
1563
0.4629
7.054
59.83
43.96
0.6993
53.33
0.02188
537.6
8.628
666.5
17.97
220.6
2074
2.069
649.5
83.94
518.8
149.3
1696
0.07639
11.62
33.81
19.44
296.2
80.53
3579
280.6
0.02166
95.08
12.66
543
67
0.2628
30.19
0.08205
1800
0.04845
74.12
27.72
46.83
11.32
29.04
0.2149
1.607e+04
0.1718
0.02457
613.4
0.02091
16.97
0.03073
0.8407
10.47
0.02151
0.2325
213.6
1195
0.02176
0.02305
10.59
20.23
123.9
0.1778
97.71
40.18
749.9
368.5
30.82
115.8
123.7
0.0829
112.2
1.701e+04
9.655
2242
324.8
9.932
1.425e+04
0.02173
0.0206
0.826
3.456
9.238e+04
0.0218
19.53
481.2
8.701e+04
231.6
489.3
0.01982
0.01952
308.7
55.65
42.69
30.65
0.03177
43.25
1.663
0.02222
610.4
170.2
82.04
32.78
1673
4.729
1.975
0.01979
12.71
194.4
648.4
424.3
41.72
5326
366
40.85
124
181.7
49.34
0.06374
95.64
3272
0.028
0.02647
186
97.53
3870
1.047
546.5
64.79
0.1421
0.02173
4.644
0.02211
19.34
1.154e+04
14.24
0.1113
71.93
0.04292
6780
423.4
0.06585
15.39
12.72
95.88
23.82
65.85
50.89
42.47
29.13
31.26
18.59
11.61
1251
122
31.03
97.39
6939
72.13
346
376.1
2.363
1.188
22.17
6558
0.3232
90.96
0.02227
14.57
0.02214
149.7
8.94
6573
103.6
0.0781
921.6
5.372e+04
806.1
26.66
65.52
547
1432
0.2644
25
31.89
3.438e+04
50.71
28.62
0.1981
0.2246
0.02175
37.62
5449
5.661
952
11.62
0.07771
1146
0.01971
86.01
0.3707
17.99
1068
0.1638
1.909
8.51
0.03677
200.2
26.4
1.776e+04
726.6
165
0.02141
33.31
133.1
2992
1142
35.46
8.802
44.13
0.02172
268.9
568.7
3.246
14.55
64.93
1661
489
348.7
31.11
0.4255
1.257
6883
10.91
0.06629
2.31e+04
0.068
8.445
0.02174
0.02199
35.63
0.02189
529.2
65.77
22.43
32.56
482.7
1460
52.93
480.5
51.28
15.37
1.484e+05
20.67
40.74
2.101
5.788e+04
11.63
4812
5846
0.04333
522.5
460.2
4.45
12.61
3095
242.3
805.4
15.34
22.21
0.0261
8.661
0.02206
0.5296
12.15
277.9
68.7
83.64
9878
11.82
0.02188
157.9
22.73
32.52
47.94
25.29
53.89
450.4
1211
5139
146.4
206.3
472.3
37.9
132.8
0.06434
7.239e+04
131.6
84.61
1.053
0.02157
217.1
188.2
15.52
4.181
5500
480.8
165.6
64.36
36.08
2262
0.02163
4085
9.817
0.03567
30.8
473.2
0.02166
100.4
11.78
12.41
5810
7.635
48.31
5.813e+04
22.91
200.2
0.01968
0.01961
191.6
122.8
2.278
200.1
121.4
0.02151
1911
690.5
39.93
0.02174
0.02188
49.63
61.63
194.6
1.963e+05
497.2
0.02763
395.9
1.859e+04
0.07711
458
259.8
0.1023
0.7938
824.4
30.18
31.66
0.01963
0.01949
0.01946
0.02019
0.07192
26.28
22.2
490.6
7.941
142.4
21.08
557.2
0.0208
44.06
34.28
1785
563.9
2261
105.6
63.67
267.8
36.88
146.2
0.08153
93.69
1.1e+05
184.7
2052
0.2676
100.7
0.02173
6.032e+04
36.32
296.5
7.523
0.03023
1.924e+04
0.02179
44.17
425.8
0.04074
58.8
52.75
15.38
70.19
3658
0.03916
340
0.02066
1.949
130.2
142.3
14.92
47.5
0.02151
0.02171
0.1734
351.1
536.8
0.1863
14.93
79.67
3.038
1860
271.6
24.18
9.698
25.89
33.97
0.1372
2.915e+04
0.2395
0.02173
4815
0.02171
0.02166
0.2316
0.1068
3442
12.93
722.7
21.71
279.4
0.02187
0.07753
189.6
178.2
12.49
0.0541
0.1792
1.762e+04
1837
0.02213
3453
2457
9.475e+04
0.06842
19.5
29.18
0.0717
0.02337
18.12
87.7
1.429e+04
0.06863
423.4
6.369e+05
0.02174
312.1
972.7
117.4
0.02178
518.5
2.395e+04
3.852e+04
1.965e+04
0.3626
144.3
2.034e+04
0.04526
49.24
0.02154
14.21
362.4
9.883
215
1.904e+04
0.1594
71.78
58.6
0.02225
0.02761
336.1
535.4
14.12
3982
53.28
1.236
11.41
37.19
171.9
37.46
0.02175
71.21
47.46
180.8
204.4
116.4
320.5
79.6
2.508e+04
2.877e+04
3.566e+05
352.8
0.04411
743
0.02444
578.1
1055
0.02175
1.926e+05
0.02221
101.9
5328
1220
93.36
71.79
255.2
216.6
0.01963
1.637e+05
281.4
0.05796
10.94
69.23
3.172e+04
6071
5.738e+04
11.36
367.4
1886
17.69
0.06551
81.08
3493
0.02088
33.89
59.67
106.4
50.65
29.56
10.69
1883
113.4
130
5950
0.05943
1391
0.07457
49.1
123.2
0.02297
0.08023
42.43
323.4
138.8
2.409e+04
0.05592
0.02173
5.501
203.2
1280
24.64
8.834
0.01961
0.02846
729.4
0.01996
171.8
322.1
0.0618
64.27
35.65
7839
2.567e+04
1.51e+04
0.03222
373.9
54
72.23
18.55
10.77
6743
13.34
787
216.5
3244
170.7
1.479
1.473e+04
24.22
79.29
32.85
0.0513
52.53
0.1197
0.02184
26.29
109.2
31.64
136.1
40.81
4.702e+04
7.37e+04
9.952
5.447e+05
0.272
0.2665
0.03026
0.04663
27.44
0.02221
257.8
2.155e+04
215.5
1976
42.72
77.66
147.8
41.26
11.92
315.2
15.25
2319
81.48
0.02583
75.52
82.29
0.02204
0.0353
879.7
0.02185
98.52
94.82
211.6
7.639
1276
0.09599
20.55
0.03619
509.3
5291
559.5
56.88
0.02143
329.1
0.02155
0.2546
75.67
52.06
1.432e+04
83.16
414.6
13.23
1531
0.4057
0.205
14.69
175.4
0.02083
5.067
0.02185
524.9
794.3
101.7
43.53
0.02153
325.8
285.7
72.65
1.444e+04
111.1
1029
0.02285
22.29
3.647
2.042
127
27.03
0.07029
1.594
0.103
18.24
86.03
0.02069
0.02025
0.02207
0.03412
0.1259
1352
237
0.0218
192.8
10.98
132.8
0.02194
192.4
0.06293
914.5
0.0899
1.085e+05
147.3
971.7
0.04322
0.08226
1.528e+04
0.02702
129.6
155.1
220.4
120.5
48.92
0.02181
222.1
255.4
95.68
48.86
43.33
8.731
21.49
72.21
1119
0.0215
14.33
44.56
1925
0.09382
0.02209
138.1
688.1
14.53
17.23
15.68
597.7
0.03974
28.62
263.1
10.47
99.3
97.93
0.02571
4.638
1.582e+04
106
91.92
2012
1.132
7.237
0.02166
0.02658
0.1064
0.04577
1.574e+04
62.08
0.02195
0.02242
86.66
7.597e+04
0.02194
18.91
5582
129.6
4.937
80.17
1414
53.05
12.41
443.2
2.917e+04
1009
0.02186
28.48
81.94
52.61
0.02139
0.2944
87.2
21.61
183.3
1.882e+04
2489
18.51
353.3
3.036e+04
13.4
453
17.84
1.026
0.6848
941.1
1.042e+04
0.02157
125.5
108
0.02193
2306
12.55
1.342
0.06022
86.73
433.4
117.3
37.86
0.02168
0.02177
15.67
93.99
0.02001
16.49
0.02455
1082
9.928
12.39
308.2
824.3
26.5
102.5
0.0214
1.831e+04
7.293
1854
335.2
0.06678
770.1
40.07
105.4
1.437e+04
8.251
1.342e+04
0.02075
0.02124
18.95
0.04738
0.02139
3.511e+04
174.7
269.8
1517
122.3
22.74
0.02786
3.404e+04
0.03752
76.54
0.02024
0.09847
104.6
29.19
27.27
81.18
8.718
408.3
0.02047
27.65
1805
1530
2518
0.1091
32.79
16.24
0.02195
383.8
154.3
0.2776
0.03961
57.81
1.478e+04
0.0219
0.02151
22.23
1148
10.46
1556
0.02206
2359
51.73
112.2
0.02208
0.06195
537.6
194.8
873.3
15.68
14.6
0.02045
454.3
0.0304
452.4
2.396e+04
0.05278
77.97
10.37
3479
9532
489.1
0.0503
0.02047
41.47
0.1378
0.02163
178.4
128.9
13.94
0.02034
0.06302
0.06955
0.02621
305.5
35.21
0.02173
412.6
79.7
553.7
0.02556
0.02191
0.02163
0.0476
137.1
32.21
379.3
1.519e+04
9076
72.73
2.964e+04
1853
0.02263
1.294e+04
45.73
1301
8.719
0.1089
1.524
3077
415.3
1386
197.8
0.0482
17.69
258.3
93.19
9.884
0.1647
114.8
0.1243
260.9
0.03581
22.26
15.35
15.53
0.1758
432.4
2.817e+04
2414
0.02061
1.582e+04
23.82
0.01994
86.22
0.02181
753
42.49
0.1203
183.4
181.6
0.0223
0.9315
9.957
4196
0.02234
0.1216
5096
5.37
0.02157
1215
24.32
0.02981
0.1153
24.92
152.5
1.934e+04
369.6
49.45
14.97
359.1
0.5054
0.02169
0.03868
286.1
89.79
45.4
0.02207
4.063e+04
192.6
33.11
92.56
20.87
52.01
0.02017
0.05359
219.3
82.02
0.03916
107.4
467
12.62
1.215
2.597
10.02
0.03636
8.807
32.17
89.91
16.58
0.02205
540.7
0.1636
26.89
6.431
3.821
1872
34.97
1.033e+05
28.85
0.4062
0.2199
0.02118
6.844
25.27
1418
536.6
81.67
319.1
1415
72.36
0.343
47.61
345.2
2742
41.66
0.03742
839.9
0.5988
652.7
14.66
10.7
23.92
196.3
0.02179
103.4
0.1836
0.02164
0.7735
826
1.321
7.036e+05
436.2
370.3
0.02165
75.85
87.71
0.04861
32.65
49.93
1148
172.7
1165
0.02188
73.7
0.02066
3.813
136.9
123.8
5.884
363.4
5.25e+05
0.02149
0.02174
44.23
96.62
719.8
1.331
109.6
452
44.59
12.96
0.0218
192.5
992.2
0.06533
21.24
0.02156
81.13
0.04801
93.63
301.5
51.23
0.3289
726.4
165.1
0.02524
220.1
68.23
0.2176
0.02146
0.02259
321.4
1774
24.07
8.69
37.56
16.35
151.2
22.78
0.0194
0.1556
0.4556
2.869e+04
1032
770.5
0.02134
360.6
123.2
884
641
7427
2.005
57.12
95.07
62.97
424.6
1564
24.83
0.07275
9.978
0.03014
5.274e+04
0.02238
13.1
337.5
33.79
13.02
374.1
33.75
4442
11.22
208
88.47
5.321
184.2
2.777e+04
21.26
1.555e+04
1.076e+04
0.02175
1.721e+04
77.02
826.3
1090
74.6
42.45
119.1
75.78
15.72
0.03586
20.78
14.06
48.68
23.38
34.48
0.3758
1.916
26.44
1.778e+04
33.71
3257
90.22
364
0.02027
325.9
39.36
1548
11.35
6889
154.4
239.7
0.07054
1362
0.06239
17.4
21.36
0.06316
0.5409
15.2
24.97
67.83
136.4
16.96
160.3
25.91
6926
22.21
9.515e+04
0.03521
67.1
94.36
10.64
0.04086
348.1
0.02173
0.02198
0.02174
31.71
132.7
311.8
11.52
0.07772
27.98
0.03744
9.416e+04
1154
1.696e+04
199.5
0.05803
449.3
1659
0.06868
720.4
0.02187
75.71
8.421
292.2
41.71
0.02128
0.02139
57.75
9.372
0.03579
1.818e+04
142.9
0.02095
0.0218
56.84
0.03026
431.8
3527
0.03018
3.801
265.5
539
182.8
1.901e+04
6.218
0.1256
39.67
235.8
0.1282
157.4
26.25
0.8698
441.9
52.88
5.517e+05
0.02577
73.59
2853
1333
0.02183
23.47
0.02176
24.32
61.63
36.64
70.17
232.3
30.26
0.1439
711.2
823.3
333.5
658.5
455.4
31.28
7.583
65.69
140
19.68
289.7
0.02209
1.614e+04
6275
790.1
36.93
8.526
1149
364
0.2322
0.1675
2.222e+04
69.06
0.05463
0.03176
0.05198
271.7
398
43.22
1821
72.3
0.03712
107.6
58.89
61.55
315.4
9.811e+04
476.5
54.74
306
26.44
41.47
1218
34.33
36.18
9.784
820.5
23.08
0.2082
32.25
392.9
0.08646
163.9
0.2707
28.75
1.878e+04
363.6
0.02204
286.9
29.19
8831
487.7
0.02137
0.08816
438.1
0.02875
24.22
1009
293.6
9.754
0.02172
0.1569
12.31
12.79
0.07313
288.2
0.02077
362.5
19.39
200.8
153.2
46.38
47.88
294.4
271.4
0.158
83.39
0.02182
2.535e+04
0.03464
0.03095
155.2
0.0218
9.814
10.68
3.372e+05
0.02196
134
68.13
316.3
278.5
0.1901
32.08
23.99
261
1264
24.19
0.07191
0.02198
154.8
237
22.01
39.38
542
1147
0.7005
0.02113
32.5
183.1
3.903e+04
47.17
36.96
0.5897
181.4
0.0215
15.11
2411
686.8
0.02197
0.1711
478.4
0.0198
72.7
838.5
72.14
0.02195
0.022
8.233
0.02314
0.02013
0.02173
8.769
299
737.9
0.2333
130.1
8.781
16.38
0.02225
13.79
60.55
0.04044
0.7576
668.4
14.48
0.0253
847.7
29.81
8.28
1.615e+04
2.011e+04
0.02503
55.03
30.91
209.3
31.61
1808
0.02194
176.6
1.768e+04
2.601
153.5
0.362
1074
28.84
160.1
13.23
9101
0.05279
5747
35.28
0.02518
0.02875
0.02006
124
16.83
1361
118
2.873e+04
0.07405
0.01942
108.7
338.1
0.0736
0.02182
514.2
10.03
640.9
29.29
796.7
152.6
49.27
5.236
208
0.01972
9075
79.74
34
13.13
0.06485
0.02193
20.74
11.68
297
2019
35.72
0.03818
49.58
15.94
0.05759
0.02185
793
167.1
2532
103.3
21
0.813
37.57
16.3
6.104
75.94
0.3399
0.1189
0.02192
42.45
7233
29.23
0.356
2290
0.4972
0.02168
34.2
0.02757
0.02203
14.25
0.01937
0.01932
1.962
0.02011
24.78
2.431e+04
319.6
20.09
0.1225
0.02113
0.02197
72.07
179.5
12.18
1.736e+04
13.89
0.03028
9.866
42.86
1310
0.436
0.02198
3.035
29.9
0.02203
0.02136
45.39
190.2
0.04889
0.02831
50.4
0.0213
1.499
0.02149
9.808e+04
1.014
456.9
9.545
0.02729
0.1566
10.67
19.78
434.1
18.46
70.97
20.53
0.02214
1.209e+04
13.84
338.1
0.02191
203.9
134.6
51.88
317.1
0.1955
182.4
10.91
0.1249
1468
0.02205
2.157e+05
13.29
9714
0.02197
128.5
0.02174
0.07362
2.841
3271
13.24
120.5
24.09
0.1127
1537
0.1272
812.1
1863
9.557
0.08899
0.05392
411.7
0.02162
3.146
19.66
48.81
12.94
0.02177
5092
0.03247
112.4
329.8
110.8
571.2
4442
24.3
499.1
90.9
1.47
15.36
0.4612
0.02173
0.02181
383.1
11.28
6346
29.23
24.08
0.02179
57.48
0.02179
0.0217
0.03026
138.6
0.09836
28.49
0.035
27.09
0.1653
49.17
215.2
1269
0.02493
161.3
104.6
81.87
0.151
19.63
0.02187
84.56
0.4007
46.24
3.074
0.0319
201.4
3.748e+04
157.4
1030
18.24
1.121e+04
889.9
1.949
18.21
741
53.02
4.423e+04
229.5
19.69
47.9
65.56
24.34
540.8
356.5
0.03902
39.51
0.08941
355
1.037e+04
71.49
694.1
313.5
12.85
166.6
0.03342
197.3
22.8
2.088e+04
11.11
0.02234
17.53
49.43
132.1
0.0586
110.4
140.9
19
0.3939
141.6
14.56
4265
128.8
67.8
25.41
17.69
473.3
0.02447
274.5
3.407
0.02363
46.3
47.63
188.3
335.8
119.8
0.02202
403.6
10.63
0.07981
1.355
285.3
6.267e+04
99.82
0.02084
0.02459
0.3879
172.4
53.92
0.02151
2.524
198.1
422.2
5847
0.02103
208.6
2521
37.64
4.817e+04
53.04
70.75
185
23.62
55.64
0.02328
39.5
2275
43.21
235
1.338
22.54
0.02164
0.07041
200.7
99.04
19.27
672.1
53.75
0.02172
2222
54.31
0.1747
286.8
5538
6807
0.04191
0.1228
0.02441
77.18
1825
347.4
984
146.3
285.1
0.02181
48.93
4.746
9.116
2845
0.3583
1.739e+04
105.3
1485
0.03283
138.6
1254
0.02169
130.7
70.82
67.26
10.09
0.0219
0.0217
0.03864
21.86
0.02171
13.45
6113
0.1052
14.56
205.9
0.03729
60.56
11.22
0.2665
1525
88.85
6182
41.24
0.02175
146.6
1694
0.0217
4016
16.28
48.42
31.55
177.6
50.69
165.4
13.6
11.21
0.02194
11.41
0.02178
0.05262
1133
116
46.19
37.39
0.7111
101.4
0.02175
0.01965
0.0547
75.6
32.27
71.06
1.741e+04
22.77
0.6549
204.7
0.5584
14.92
0.02136
490
458.2
17.07
12.72
88.03
102.3
40.09
17.17
0.8757
0.02231
134.5
17.29
111.2
1322
1.603e+04
448.2
0.02149
50.33
17.8
17.54
8.115e+04
0.02165
55.83
20.33
22.89
54.13
17.86
5.008e+04
52.02
17.54
458.3
2747
13.28
74.29
2432
1.745
0.02168
260.8
16.7
39.99
69.64
16.05
1.523
0.04452
608.4
245.7
865.6
16.82
733.6
194.5
0.02172
139
82.75
45.43
20.91
0.01935
268.9
33.26
26.89
5.551
0.02133
205
11.77
5.946
45.6
305.1
81.89
30.62
402.7
385.3
0.01992
79.26
36.23
59.69
439.2
148.8
34.99
17.96
28.67
8.331
126.2
419.8
1.649e+04
640.4
489.4
9856
58.74
0.07386
2.264e+06
343
1491
0.03556
1679
1247
260.3
29.79
0.0219
1.57
0.02179
13.68
67.45
4.678
0.6755
14.02
620.1
22.37
2.111e+05
12.16
257.1
698.6
1.552e+04
426.2
218.7
15.39
0.08715
73.08
14.16
1.92e+04
63.13
0.3113
0.8201
1513
1.183
0.022
0.0217
32.88
50.19
0.0384
0.02017
0.02187
484.3
179.6
9943
0.02155
0.03051
60.2
0.01977
0.01991
288.6
0.05452
125.3
516.9
0.05042
1283
8.627
44.37
8.897
27.57
0.05065
56.27
18.83
6.401e+05
26.5
338.6
940.2
1217
14.61
0.03044
9.781
638.4
0.02171
14.46
120
575.3
1.301e+04
121.5
27.27
664.6
0.02449
110.5
2345
222.2
84.93
52.15
0.0718
32.7
16.68
1757
132.5
175.9
0.04767
839.7
259.2
0.03584
18.46
0.06714
44.47
0.02599
1760
1.662e+04
0.02774
456.9
128.7
0.1328
715.8
66.31
0.02234
5804
58.97
192
542.1
0.0343
8.996
5.076e+04
79.28
390.5
24.7
17.18
3.138
15.37
162.8
0.05846
1.686
50.97
60.7
24.65
14.83
67.73
6.443
64.54
505.6
42.62
6.349
1.87
0.0218
0.08899
624.6
18.89
0.01936
3.189
36.63
3.224
167
71.74
25.1
0.09311
538.1
86.56
0.1088
37.69
133.3
0.07557
601
0.04005
740.4
9.238
0.1744
0.06275
10.15
687.9
52.21
0.02094
57.95
166.8
106.6
0.1737
0.02189
11.31
347.2
632.9
66.09
60.45
11.8
498.4
16.89
38.26
2.24e+04
13.59
2.025
4.54e+04
345.2
13.71
13.6
0.02204
1.224e+05
0.02204
21.85
109.9
99.84
131.3
119.4
1.958e+04
10.34
12.06
17.57
3.106e+04
458.5
12.82
4.265e+04
6600
469.3
122
0.186
0.6561
8.024
23.18
0.02187
383.6
2.057e+04
0.0433
64.6
6.753
14.65
264.1
407.9
4.049e+04
1604
204.3
0.01955
0.01933
0.02178
503.7
2241
0.3581
0.02158
0.1494
2623
5.967
4.475e+04
76.44
0.02206
3.876e+04
0.01939
1.859
11.1
0.03788
14.8
0.3047
1.447
0.05869
368.5
18.67
58.14
116.4
2.327e+04
11.69
153.7
197.5
10.54
0.02213
9531
430.4
571.8
89.83
918.2
211.1
236.1
0.05719
25.95
246.6
38.41
386.3
0.02914
960.3
33.14
788.1
14.52
0.1503
0.1536
0.02182
239.7
27.97
108.2
183.8
11.62
749.7
73.03
20.44
11.16
135.6
0.151
870.8
350.9
298.3
44.18
0.0609
10.68
0.09135
63.47
27.18
99.14
3.266
354.5
18.48
15.68
378.9
0.2054
1982
30.07
0.4905
0.0828
3.568e+04
293.7
218.8
30.69
5565
0.02204
6167
521
69.33
56.85
63.83
76.19
78.04
14.13
61.88
71.15
187.5
3695
0.07049
0.02186
0.02174
112.3
181.5
1.926
2.473e+04
131.6
9238
911.5
96.88
1829
1.836e+04
11.47
420.2
751
71.36
1.914e+04
0.02167
69.87
613.5
623.9
0.02157
595
82.55
210.3
295.4
316
0.02169
6.716
233.7
963.4
0.02089
158.9
11.72
0.1617
3.08e+05
0.03333
10.48
11.53
239.5
314
0.265
65.51
2.233
173.7
726.9
135.7
0.01941
14.61
6.577e+05
0.02526
0.02263
1961
943
40.3
406.4
0.05843
53.99
61.98
52.06
35.35
178.9
0.01999
63.91
13.2
0.1374
0.02192
40.24
0.0212
8.175e+04
58.75
1.534
8.858
1.365e+04
0.02168
134.8
0.02
0.02216
452.2
0.2982
1286
9.675
0.04124
37.39
347.1
20.63
21.45
26.53
378.1
134.7
445.6
486.2
501.7
5343
835.2
58.85
361.9
157.7
186.6
0.2246
0.02113
0.02118
3637
30.17
292.8
4.274e+04
0.02181
321.8
0.452
0.02038
17.37
4.781e+04
10.15
408.6
2618
0.02206
513.9
42.76
16.64
9.802
45.13
2076
113.7
0.02174
4.644e+04
1292
0.05986
0.02335
1151
176.5
547.3
519.3
131.9
287
0.02169
233.6
0.02118
461.7
500.8
4.12e+04
0.01956
0.01935
0.1344
278.8
0.03058
17.53
2.096
7.568
20.91
53.52
259.1
0.04731
0.02655
1.784e+04
2.124e+04
24.06
771.1
0.04396
292.5
0.02217
136.9
1301
442.9
2188
242.2
427.5
356.5
0.2938
44.99
26.18
0.02507
0.02178
0.02174
12.6
200
671.9
3.036e+04
284.2
0.02448
367.4
803
428.3
3.352e+04
108.3
498.9
325.2
88.71
0.05279
2.358
31.68
0.8865
0.07698
912.9
24.74
42.19
71.2
598.8
0.3397
0.01974
1.739e+04
13.23
11.09
33.66
2.111e+04
30.11
0.02082
113
21.71
188.5
7.655
210.2
332.5
1.666
91.75
14.87
0.06466
181.5
0.0427
0.07391
0.6681
1123
21.32
990.5
17.61
50.96
40.59
0.0286
88.13
352.7
0.2217
43.35
2.897
1.892e+04
0.0303
0.02366
89.79
72.59
169.5
25.35
3.989
2251
0.06047
0.02183
26.2
1848
0.0246
0.5268
41.11
0.0216
1.852e+04
0.04939
39.19
84.05
40.39
0.5534
367.5
2074
3.87
0.05547
0.02174
16.02
53.36
83.6
16.08
0.02134
0.02019
0.02173
86.42
197.4
229.9
0.05371
743.2
36.19
438.9
51.78
813.4
0.2708
0.0301
4097
0.02188
835.7
36.37
0.03034
121.1
76.29
270.8
114.2
115.5
13.73
6.651
0.06896
2348
1230
2176
0.1505
0.4942
0.02169
1.872e+04
0.02159
162.8
1802
0.02214
22.28
154.7
334.3
0.08194
15.06
1.311e+04
21.33
0.02166
16.7
455.6
86.22
155.5
14.85
26.71
1.512e+04
18.31
0.02071
0.02246
1.154e+04
24.52
394.6
11.11
54.13
0.02117
0.02193
1.943
6.816e+04
1801
484.1
361
0.842
309.8
1518
128.1
186.9
0.02189
669.7
9.805
256.7
15.92
15.76
0.0216
599.8
12.72
1.538e+04
1.932e+04
12.85
15.79
1.655
1008
0.02652
9.617
1.7e+04
420.1
140.3
1850
7134
130.9
195.8
0.1088
966.7
245.3
1519
39.26
0.02633
1201
6830
0.02172
328.7
3451
322.4
923.6
41.63
15.13
174
44.63
0.03321
64.46
0.02211
109.9
0.09887
1.41e+04
0.118
4092
47.45
249.5
22.28
13.16
437.9
18.54
107.9
812
77.57
33.5
9.147
68.74
163.7
566.1
113.7
0.02449
23.44
22.09
60.5
112.2
65.3
310.3
44.71
0.02492
38.41
2.214e+04
17.31
11.52
143.7
0.0381
38.91
0.02157
44.73
5.686e+05
8.658e+04
466.1
22.93
42.78
0.02101
0.05253
18.11
24.65
38.67
6.217
0.02182
47.38
77.14
43.67
102.1
0.02166
849
1337
5.848e+04
9.235
27.27
62.16
580.6
0.03874
179
9.941e+04
0.824
30.27
0.2443
310.1
5.204e+04
21.13
13.88
13.21
26.6
0.02463
143.2
0.01988
1.647e+04
119.4
13.79
1302
7.029
146
36.74
3.067
0.0494
0.02199
0.02151
52.28
18.63
39.94
8.477
26
59.05
1.956e+04
0.7356
288.4
0.2041
0.0218
991.1
0.02187
12.28
647.3
4.965
24.82
23.54
4.809e+04
227.6
21.92
274.4
129.8
61.06
0.1218