/*--------------------------------*- C++ -*----------------------------------*\
  =========                 |
  \\      /  F ield         | OpenFOAM: The Open Source CFD Toolbox
   \\    /   O peration     | Website:  https://openfoam.org
    \\  /    A nd           | Version:  8
     \\/     M anipulation  |
\*---------------------------------------------------------------------------*/
FoamFile
{
    version     2.0;
    format      ascii;
    class       surfaceScalarField;
    location    "55";
    object      phi;
}
// * * * * * * * * * * * * * * * * * * * * * * * * * * * * * * * * * * * * * //

dimensions      [0 3 -1 0 0 0 0];

internalField   nonuniform List<scalar> 
189008
(
6.611e-08
-6.611e-08
1.544e-08
-1.544e-08
1.116e-08
-1.116e-08
1.613e-08
-1.613e-08
-7.566e-07
7.566e-07
1.651e-08
-1.651e-08
7.491e-06
-7.491e-06
-1.939e-06
1.939e-06
-1.134e-06
1.134e-06
1.367e-06
-1.367e-06
1.062e-05
-1.062e-05
-3.215e-06
3.215e-06
-7.382e-09
7.382e-09
-1.824e-08
1.824e-08
-3.16e-05
1.306e-05
1.854e-05
5.962e-06
-6.787e-06
8.258e-07
-5.312e-08
5.312e-08
0.007415
-0.005555
-0.00186
-0.0007573
0.0003369
0.0004204
-4.966e-06
5.686e-06
-7.201e-07
0.000501
-0.000431
-7.003e-05
1.958e-07
-1.173e-07
-7.859e-08
-0.003311
0.01026
-0.006951
2.062e-05
0.0004957
-0.0005164
1.141e-07
8.171e-08
-0.0002688
0.000151
0.0001178
-1.897e-05
2.092e-05
-1.955e-06
-2.094e-05
1.97e-06
0.0001911
-0.0001485
-4.259e-05
0.009459
-0.01967
0.01021
-4.428e-05
-0.0002011
0.0002454
-7.266e-05
-0.0001961
4.128e-06
-3.949e-06
-1.799e-07
-0.0001252
7.338e-05
5.178e-05
0.01111
0.01095
-0.02206
-6.614e-07
4.79e-06
3.596e-05
0.0002321
-0.0002681
-0.002024
0.002777
-0.0007525
-4.643e-05
0.00059
-0.0005435
-4.851e-05
5.614e-05
-7.631e-06
-0.000598
-0.0001593
0.00202
-0.003848
0.001828
0.0005895
-0.004622
0.004032
2.118e-08
-2.118e-08
0.001828
0.005587
-6.832e-05
-5.684e-05
0.0001259
6.517e-05
-0.0003809
0.0003959
-1.494e-05
-0.0008248
0.0009952
-0.0001703
-2.913e-05
0.0004713
-0.0004422
2.076e-06
3.885e-06
-0.01429
-0.03009
0.04438
-3.969e-05
-4.182e-05
8.151e-05
-0.0133
0.0116
0.001701
1.082
-0.1282
-0.9543
0.0009738
-0.0007823
-0.0001915
-0.1465
1.229
0.01197
-0.007433
-0.004539
-0.3125
0.0187
0.2938
-0.005988
-0.007311
-0.002412
0.00026
0.002152
-0.0001765
0.0004421
-0.0002656
-0.0002234
0.001856
-0.001632
-0.8101
0.9551
-0.145
-6.316e-05
0.0001545
-9.137e-05
-0.0003794
-0.003102
0.003481
-0.0292
0.02311
0.006091
0.002263
-0.001874
-0.0003885
0.000627
0.001636
-1.278
0.4805
0.7974
-6.817e-05
-0.0003025
0.0003707
8.526e-06
1.24e-05
-0.0009051
-0.0003031
0.001208
-0.1157
-0.1968
-0.2736
0.516
-0.2424
-8.717e-06
-1.222e-05
-0.0517
0.09199
-0.04029
-0.0003886
0.0003667
2.189e-05
0.0005141
0.0004597
0.16
-0.6341
0.4742
-0.0001873
0.0001426
4.463e-05
-1.63e-06
-3.337e-06
0.0001038
0.0001299
-0.0002338
1.007e-05
4.439e-05
-5.447e-05
8.624e-05
-0.0002691
0.0001829
-0.0002063
0.000338
-0.0001317
-0.0006817
0.001299
-0.0006172
2.401e-05
-7.097e-06
-1.691e-05
-0.003121
0.002741
-0.0004417
0.0007817
-0.00034
0.1851
-0.02084
-0.1643
-0.006113
-0.00552
0.01163
-0.0003049
0.0009858
-0.0006809
0.0002752
0.0002258
0.0003509
-0.0003605
9.536e-06
0.02748
0.01501
-0.04249
0.003417
-0.001397
0.0002518
-0.0002546
2.805e-06
-0.0002505
-4.691e-05
0.0002974
-0.01929
-0.009914
0.6862
-0.5263
-7.736e-06
-0.0008171
-7.986e-05
-0.0002704
0.0003502
0.004309
-0.005248
0.0009396
8.075e-05
-0.0002871
-0.000331
8.052e-05
-0.001153
0.001655
-0.0005027
-1.001
-0.2774
-0.001193
0.0006086
0.0005839
-1.154
0.8761
0.2779
1.291e-05
-4.45e-05
1.717e-05
6.842e-06
-0.0004479
7.215e-05
0.0003758
0.0007794
-0.001158
0.0003787
-0.2121
0.09618
0.1159
0.0005863
0.002519
-0.003106
-0.107
0.0586
0.04838
0.1657
-0.4393
0.02323
-0.07493
3.737e-07
-2.984e-07
-7.528e-08
-1.253
0.09872
5.288e-05
0.0001034
-0.0001563
-0.0004184
-0.0007486
0.001167
0.01381
-0.01183
-0.001979
-0.0001237
-6.356e-05
0.0001926
-0.0001783
-1.431e-05
-0.000286
-0.0001532
0.0004392
0.08774
-0.103
0.0153
-0.0002825
9.888e-05
0.0001836
-0.0006604
0.000534
0.0001263
0.0002835
-8.98e-05
-0.0001937
0.000303
-0.0001164
-0.0001866
-0.0003917
-0.001378
0.00177
-0.0001566
-0.000232
1.263e-07
-9.648e-08
-2.984e-08
0.0003004
-1.687e-05
-0.004912
0.03596
-0.03105
-0.0001728
0.0003224
-0.0001495
-0.0001734
0.0002
-2.661e-05
0.0333
-0.05482
0.02151
0.00899
0.0003639
-0.009354
-0.04813
-0.0421
0.09022
-6.238e-05
0.0001136
-5.117e-05
-0.0002389
0.0001314
0.0001075
-8.48e-05
4.511e-05
0.00153
-0.0006278
-0.0009024
-5.147e-05
-2.016e-05
7.163e-05
-0.02781
-0.7822
0.0003774
-7.438e-05
0.0002438
-0.0003604
0.0001166
0.002565
-0.003797
0.001232
0.001149
-0.0003143
-0.0008351
0.003585
-0.004842
0.001257
-0.009001
0.0004371
0.008563
0.0001191
-0.0003015
0.0001824
0.0002597
-0.0001735
0.007923
0.00405
0.0006557
-0.0005362
-0.0001195
-6.786e-05
-0.0003131
0.0001126
-0.0002144
0.0001018
-0.0002689
0.0004956
-0.0002267
-3.449e-05
3.449e-05
0.1916
-0.006476
0.0003604
-0.0001125
-0.0002479
0.0001341
-0.0002844
0.0001503
5.745e-05
-0.0001206
-0.0002536
2.44e-05
0.0002292
5.333e-05
0.001635
-0.001688
-0.0001166
0.0001047
1.199e-05
-0.04218
0.03385
0.008331
2.495e-06
7.484e-06
-9.979e-06
-0.0001131
-0.0001257
-0.004552
0.001935
0.002617
-0.002739
0.0008904
0.001849
1.022
-1.195
0.1733
-8.198e-05
5.577e-05
2.622e-05
-0.000818
0.0004385
0.0003795
-0.0001352
-0.0001473
-0.0004269
0.0008334
-0.0004065
0.1199
-0.1479
0.02797
-0.001795
-0.0009446
-0.1217
-0.002995
0.1246
-3.445e-05
5.336e-05
-1.892e-05
-5.373e-05
-2.825e-05
-0.0002755
-0.0003849
0.0002507
-0.0004272
0.0007641
-0.007309
0.006544
-0.0001493
0.0009288
0.0005124
-0.0004918
-0.004794
0.08582
-0.08103
-1.092e-05
0.0001228
-0.0001119
-0.0001331
-3.197e-05
0.0001651
-0.04352
0.03861
0.0008615
-0.00102
0.0001588
7.32e-08
8.579e-05
0.0003428
-0.0004286
-1.47
1.199
0.2712
-1.463
1.193
0.2701
1.355e-06
5.165e-08
-1.407e-06
-0.167
0.1324
0.03459
0.2046
-0.03799
-0.1666
-0.05848
0.04873
0.009754
0.02725
-0.06995
0.0427
0.0002282
-0.0001923
-4.539e-08
4.539e-08
0.0003332
-0.001134
0.0008011
0.02577
-0.007472
-0.0183
0.002806
-0.0006464
-0.00216
0.03434
-0.02488
-0.2087
-0.003415
0.002007
-0.0209
0.0189
-0.0002914
0.000221
7.039e-05
-0.0596
0.2024
-0.1428
-5.127e-05
-6.537e-05
1.954e-06
-0.0001501
0.0001481
1.307e-06
-1.636e-06
3.288e-07
-1.192e-05
1.079e-05
1.128e-06
0.003559
-0.002141
-0.001419
-8.208e-05
0.0002747
-0.0001926
0.02195
0.00382
-0.0007177
0.0002864
0.0004312
-0.471
0.2219
0.2491
0.001012
0.000137
5.924e-05
-5.565e-05
-3.586e-06
0.0001045
5.904e-05
-0.0001635
-2.159e-05
1.772e-05
3.864e-06
-0.0002358
0.0003699
0.0004961
-0.00252
6.039e-05
-6.21e-05
1.704e-06
0.0003262
-0.0002998
-2.642e-05
-0.000465
0.000135
0.00033
-0.04674
-0.07492
-0.001244
0.0003385
-4.296e-07
5.274e-07
-9.778e-08
-0.0002792
-0.0001858
-0.02347
0.0185
0.004975
0.0001189
0.0002415
4.856e-07
-4.856e-07
0.226
-0.02143
-0.0002001
4.158e-05
0.0001585
-0.0002363
0.0001032
-7.641e-05
0.0001705
-9.408e-05
0.0002899
-0.0002033
-8.659e-05
0.0003287
0.0003271
0.0003526
9.695e-05
-0.0004495
2.414e-07
1.322e-07
0.0009945
0.0004561
-0.001451
2.271e-05
-2.056e-05
-2.147e-06
2.978e-06
-2.978e-06
0.1971
-0.9682
0.7711
-0.0003679
-0.001938
0.002306
-6.811e-05
0.0001678
-9.973e-05
0.002311
-0.00109
-0.001221
-0.0004738
0.0001474
0.0003265
-0.0001678
0.0007634
-0.0005955
0.0006709
-0.0004022
-0.0002687
0.1167
-0.02893
9.252e-05
-0.0002594
0.0001669
-0.0002278
0.001435
-0.001207
-0.009162
-0.001022
0.01018
0.0005355
-0.0002857
-0.0002498
-0.0644
0.09687
-0.03247
-0.0143
0.008189
-0.08828
0.04015
-6.594e-07
-0.0001844
0.0001851
-1.019e-05
-0.000119
0.0001292
7.749e-05
-0.0001566
7.908e-05
7.449e-05
-0.0002301
0.0001556
-0.001093
-0.0006433
0.001737
0.0029
-0.006026
0.003127
-0.000362
-8.276e-06
0.0003703
0.8573
0.1644
0.0003719
-0.0004675
9.557e-05
-0.0002122
1.213e-05
0.001311
-0.002235
0.0009242
0.0001361
-0.000147
-0.0002433
-0.0002046
0.001106
-0.001288
0.0001817
-0.3776
-0.4339
0.8115
0.0007288
0.001285
-0.002014
-0.5425
-0.3508
0.8933
0.04403
-0.01656
0.004373
-6.402e-05
-0.0908
-0.1656
0.2564
0.0454
0.121
-0.1664
1.729e-07
-5.312e-08
-1.197e-07
-0.0003137
0.0002523
6.137e-05
-0.0751
-0.1019
0.177
0.001349
-0.0009944
-0.000355
0.1734
-0.05346
-0.0002816
0.003867
-0.002476
0.005391
-0.002915
-0.01089
-0.01259
0.0009531
0.001383
-0.002336
-0.2059
0.237
-0.03108
-0.000525
0.0008553
-0.0003303
-0.0001911
-0.0001291
0.0003201
4.101e-07
7.577e-06
-7.987e-06
0.000117
0.0001729
0.004124
-0.001225
-0.0001468
-0.0002427
0.0003895
-0.003849
0.001063
0.002786
-0.001248
-0.001709
0.002957
0.003642
-0.003056
-8.627e-05
0.0001453
-5.899e-05
0.0004954
0.0001267
-0.0006221
0.002577
0.0002289
-0.1829
0.1233
-0.0004982
0.0003346
0.0001637
-0.00341
0.003445
-3.46e-05
0.001304
0.0001187
-0.001423
-2.087e-06
5.071e-06
-2.984e-06
-0.0006487
0.0004319
0.0002167
-0.8563
0.3139
-0.2573
0.1337
0.1236
0.0003316
0.0001541
-0.0004857
0.00121
-0.001322
0.0001121
-0.0001183
-0.0001902
0.0003085
0.01824
-0.009614
-0.008624
0.1959
-0.186
-0.009887
0.00887
-0.01218
-0.0003407
-2.137e-05
0.0003621
0.09541
-0.05293
-0.04248
0.00161
0.0007011
0.0005357
-0.0002041
-8.528e-05
0.0005073
-0.000422
-0.01699
0.03206
-0.01508
-7.632e-07
-2.322e-05
2.399e-05
0.0006033
-0.0002132
-0.0003901
-0.00178
0.0005313
0.001249
-0.000698
0.0004089
0.0002891
0.194
-0.1486
-0.006264
0.01737
-0.5007
-0.9697
-0.498
-0.9649
-0.01074
0.001736
-0.0009777
0.0007825
0.0001951
-0.004323
-0.0002298
-0.0002702
-0.0004278
-2.769e-05
-0.0002304
0.0002581
-0.01301
0.04631
0.00241
0.00115
6.73e-05
-3.878e-05
-2.853e-05
-2.005e-05
-6.691e-05
8.697e-05
-0.0003948
-3.857e-05
0.0004334
0.0003775
0.000972
-0.0002441
9.666e-05
0.0001474
0.000269
-0.0003419
7.296e-05
0.000495
-0.0003516
-0.0001434
6.783e-05
-0.0002475
0.0001797
-0.0006733
0.000538
0.0001354
0.0001148
-4.342e-05
-7.141e-05
-1.037e-06
6.803e-05
-6.699e-05
0.000116
-0.002076
-0.02723
0.0293
-0.0002892
0.0002541
3.51e-05
-0.0003746
-9.923e-05
-0.000136
-0.001217
0.001353
0.3005
-0.4091
0.1086
0.0005456
5.773e-05
0.0002136
-0.000408
0.0001944
-0.002101
0.001877
-0.004933
-0.0054
0.01033
0.0008882
-0.0009266
3.836e-05
-8.641e-05
0.0006783
-0.0005918
0.3809
0.1362
-0.5171
-0.1185
-0.04852
-0.1721
0.2407
-0.06864
-0.0001545
0.0001848
-3.036e-05
0.4316
-0.8092
-0.00155
0.001461
8.88e-05
0.06056
0.03485
0.000161
-0.0002291
6.636e-05
-0.0005381
0.0004718
0.1166
-0.1214
0.03074
-0.01318
-0.01756
-0.0001447
0.0006399
-0.0004953
2.764e-07
2.055e-07
-4.819e-07
-0.000215
0.0003968
-0.0001817
0.9227
-0.6919
-0.2309
0.001714
0.004308
-0.006022
4.36e-05
0.000149
-0.0006928
0.0005032
0.0001896
0.006219
-0.004794
-0.001425
-0.08635
-0.02063
1.182e-05
1.57e-06
-1.339e-05
0.01665
-0.02081
0.004153
3.839e-06
-5.235e-05
-0.0003226
0.000435
-0.0001124
-0.0002673
-0.001579
0.001846
0.2459
-0.2555
0.009581
0.005717
-0.004988
-0.0007292
8.936e-06
-3.716e-05
2.822e-05
0.0002215
0.0005589
-0.0007805
-0.0006727
0.0007416
-6.887e-05
-0.0001252
0.000255
-0.0001298
0.003691
0.002025
-0.0002914
0.0002471
-0.02321
0.02114
0.009551
-0.07395
5.76e-05
-9.431e-05
3.671e-05
-0.5081
0.03705
-0.0004959
-1.426e-05
0.0005101
-6.859e-05
3.415e-05
-0.0002979
0.01695
-0.004598
0.003634
0.0009639
-0.000106
0.0003938
-0.0002878
-0.002513
0.002486
2.62e-05
0.111
0.4877
-0.5987
0.0004441
-0.000871
-0.0002563
-0.0001976
0.0004539
-0.0005959
-1.104e-05
0.0006069
0.001099
0.007891
-2.498e-05
-0.0002626
0.0002876
-0.001109
0.0006902
0.0001134
0.0002375
-0.0004177
0.0003604
5.727e-05
-0.00043
6.796e-05
-0.000379
0.002726
-0.002347
-0.0008621
0.0001585
0.0007036
-0.0002901
3.643e-05
-2.733e-05
2.534e-05
1.992e-06
-0.0002044
0.0002185
-1.414e-05
-0.6756
0.8727
0.0004464
-0.0001202
0.008618
-0.01121
0.002589
-0.003723
0.004312
-0.01211
0.0007859
0.01132
-0.000117
4.057e-05
-0.01099
-0.007016
0.01801
-1.275
1.437
-0.1617
0.0002656
-0.0002696
4.014e-06
-6.921e-05
-3.656e-05
0.0001058
0.006106
0.01129
-0.0174
0.003381
-0.003251
-0.0001299
0.5728
-0.1918
0.001062
-0.00215
0.001087
-5.353e-05
0.0002315
-0.0001779
-0.06002
0.04573
-0.02522
-0.1807
0.7008
-0.655
-0.04585
0.0006736
-0.0007027
0.06562
-0.02966
-0.0003562
-9.891e-05
0.0004551
0.05173
-0.0551
0.003367
3.36e-05
0.0002182
-0.0104
-0.1338
0.1442
0.0004344
-0.0003214
-0.000113
0.05425
-0.2263
-0.0001524
-0.000139
0.0003478
-0.0003677
1.991e-05
-0.0007312
0.0004246
0.0003065
-0.001384
0.003088
-0.001704
-9.129e-05
0.0001804
-8.915e-05
-0.01946
0.007528
0.01193
0.0003594
-0.0001895
-0.0001699
0.0003079
9.871e-05
-0.0004066
0.0001493
-1.9e-05
-0.0001303
0.0003901
-9.487e-05
-0.0002953
0.0004496
0.008325
-0.008775
-0.002843
0.002452
-9.367e-05
-2.705e-05
0.0001207
0.0002175
-0.0003605
0.0001431
0.002145
-0.001818
-0.0003264
2.929e-05
-0.000123
0.3532
-0.9435
0.5904
0.1194
-0.0005383
-0.1188
-0.0004413
0.0001926
0.0002487
0.0001757
-0.0001868
1.115e-05
-1.539
0.1226
1.416
0.0004726
-0.0002886
-0.000184
-0.003059
0.01234
-0.009282
0.004993
0.008813
-7.173e-05
0.001282
0.03086
-0.01689
-0.01397
1.412
-0.2683
-1.144
-1.74e-05
-0.0001613
0.0001787
-0.0118
0.008744
9.958e-05
-8.752e-05
-1.206e-05
-0.0001258
8.663e-05
3.922e-05
0.0001627
-0.0001152
-4.756e-05
0.0003354
-1.614e-05
-0.0003192
-0.0002284
3.7e-05
0.0001914
-0.0003721
-0.0002765
-0.0006751
5.766e-05
0.0006174
0.001055
0.002326
0.00035
-0.0001338
-0.0002162
-0.1254
0.2554
-0.13
-0.0001799
0.0002924
-0.102
0.08397
0.01808
0.0007598
-0.0006167
-0.0001431
0.0006481
-0.00133
0.0001474
-0.0001103
-3.709e-05
0.0003037
-0.00153
0.001226
-1.104e-08
-3.435e-08
-0.000328
0.0001643
0.0001637
-0.0002279
0.0007861
-0.0005583
0.03014
-0.01803
-0.01212
0.001938
-0.002466
0.0005281
-0.2869
0.2312
0.05572
0.0001182
4.456e-05
0.1168
0.002606
0.0001501
2.388e-05
-0.000174
0.0003601
-0.0002743
-9.916e-08
9.916e-08
1.322e-07
-1.504e-07
1.813e-08
1.21e-07
-1.118e-07
-9.246e-09
1.196
-0.8184
-0.3778
-0.0001413
-0.0001478
6.993e-05
0.0001961
-0.000266
-0.1451
-0.1122
-0.0004709
-1.892e-06
0.0004728
-0.0003128
0.0009408
-0.0006281
-0.0002149
0.0002351
-2.024e-05
0.003411
-0.0003158
-0.003096
6.734e-06
0.0003411
-0.0006253
-0.0001058
0.0002974
0.0001752
7.687e-05
-7.139e-05
-5.472e-06
-0.4372
0.7904
-0.0002379
0.0001438
9.413e-05
9.546e-08
-9.248e-08
-2.987e-09
0.0005587
-0.0006391
8.035e-05
0.0003627
-8.276e-05
-0.0002799
1.425e-05
-1.176e-05
0.06334
-0.179
0.00342
-0.0008551
-0.05099
0.07824
0.0005218
-0.0003043
0.04316
0.2461
-0.2892
-0.0002789
6.688e-05
0.000212
-5.98e-05
-9.253e-05
0.0001523
7.051e-05
-6.661e-05
-3.898e-06
1.525
-0.9015
-0.6236
-0.00035
-9.13e-05
0.009292
0.003938
-0.01323
1.018e-06
-1.92e-06
9.015e-07
-0.0006287
-1.128e-05
0.00064
0.0001161
-1.216e-05
-0.0001039
-0.0006219
3.803e-05
0.0005839
-0.1075
0.1024
0.005099
2.839e-05
-0.0001307
0.0001023
0.000861
0.0007136
-0.001575
-0.803
-0.7355
0.002369
-0.005444
0.0001626
0.005282
-0.0003879
0.0001969
0.000303
0.0005853
2.788e-06
0.0001729
8.789e-05
-1.392e-05
-7.397e-05
-0.0003788
5.619e-05
-0.003438
0.004087
-0.0006489
0.0008544
6.274e-06
-0.0008606
0.000141
-0.0002904
0.0001494
6.688e-05
0.0001987
0.1126
0.05544
-0.168
-7.227e-05
5.424e-05
1.803e-05
3.143e-05
-0.0002129
0.0001814
0.0004513
-0.0005007
4.94e-05
0.001138
-0.002453
0.001315
0.000114
-0.0002175
0.0001036
-0.7908
0.114
0.6768
-0.7883
0.6296
0.1587
0.002653
-0.01181
-0.0002287
-1.541e-05
-0.0005694
-0.001309
0.001878
0.1378
-0.2083
0.07045
1.473
-0.6492
-0.8238
-0.001445
0.00231
-0.0008654
0.0002657
-0.0003925
0.0001268
-0.0004815
0.0001921
0.0002894
-0.000668
-7.134e-06
6.745e-05
5.749e-06
-7.319e-05
-2.907e-05
2.697e-05
2.105e-06
-0.003067
0.002899
0.0001676
-0.1418
0.1005
0.04127
1.4
-1.277
-0.1227
-8.064e-05
3.976e-05
4.088e-05
-9.895e-05
-0.0001893
0.0002883
0.0005306
-0.001692
0.001161
0.3139
0.522
-0.8358
7.607e-06
1.51e-05
0.002617
-0.003066
0.0004485
-0.0002098
0.0002042
5.661e-06
0.4889
-0.0003163
0.0003622
-4.594e-05
-0.02756
0.1654
0.0001816
-0.0002876
-0.0001192
4.18e-05
7.739e-05
0.002251
-0.002384
0.0001327
0.9784
0.1618
-1.14
-2.404e-05
-9.292e-05
0.000117
0.0003929
0.0001426
-7.873e-05
4.424e-05
0.3912
1.021
0.0004486
-0.001601
-8.828e-06
-3.094e-06
0.3948
0.306
-0.001753
-0.002845
-0.1649
0.005457
0.1594
-0.0003742
-0.0004434
0.0008176
0.0004243
-0.0001577
-0.0002667
-0.2801
0.1893
0.0002026
-0.0001844
-1.815e-05
0.0002544
0.0004721
-0.0007264
-2.613e-06
7.822e-06
-5.209e-06
-0.0001235
-0.0001141
0.0002375
1.578e-05
-2.509e-05
9.305e-06
-0.0001939
-0.0004794
-0.0002259
-0.0004669
-4.691e-05
0.000214
-0.0001671
0.0006911
-0.0007375
0.0006504
-0.0009553
0.0005887
-0.000908
0.0003192
8.379e-05
-9.689e-05
1.31e-05
7.357e-05
-1.818e-05
-5.539e-05
0.0002987
-0.000222
-7.677e-05
-0.5999
0.9138
0.0007779
-0.0005381
-0.0002397
0.1077
-0.1939
0.0862
-0.0005311
0.0001362
-0.1248
0.03509
0.08967
6.174e-05
-0.0001241
-0.3423
-0.9328
-0.1526
0.07748
-0.002517
-0.005003
0.007521
-0.0004184
-0.0004438
-0.0002297
-0.0001635
0.0003932
-1.04
0.1281
0.9123
1.107
-0.899
-0.2077
9.377e-05
-3.337e-05
-1.79e-05
-1.499e-05
3.289e-05
-0.0001019
0.0002057
-0.0004669
0.0001746
0.0002923
0.0006042
-0.000189
-0.0004152
0.0002665
-0.0006227
-0.0002923
0.0004228
-0.0001306
-0.0006802
0.0004239
-0.0001406
7.372e-05
-5.611e-05
0.0001503
-9.422e-05
-5.601e-05
-1.767e-05
7.369e-05
-1.161
0.1201
4.779e-05
0.0001076
-0.0001554
1.959e-05
-0.000122
0.0001025
-8.016e-05
-0.004888
0.004968
0.009821
-0.005805
-0.004016
0.1784
-0.2391
0.06065
1.03
0.4431
0.0006724
-0.0007576
-9.925e-06
-0.0001635
0.0001119
0.0002381
8.548e-06
-5.701e-06
-2.846e-06
-0.07675
-0.04802
-0.9856
-0.4036
1.389
-0.0001133
-8.278e-05
0.0001961
-0.0002185
-6.526e-06
0.000225
-0.05084
-0.007644
6.681e-05
6.89e-05
-0.0001357
0.01417
-0.002084
-0.01208
-0.03395
0.08729
-0.05333
-0.0002005
7.476e-05
0.0001257
0.002246
-0.002791
0.0005449
-0.0001086
0.0001282
0.004201
-0.00891
0.00471
-3.722e-08
3.722e-08
-2.724e-05
5.65e-06
5.388e-05
0.0003363
0.0002599
9.948e-05
-0.0001616
-0.0001521
0.0001864
8.597e-05
-0.0002723
-0.0003049
-1.134e-05
-0.0001499
0.0002693
-0.0001195
0.05538
0.007351
-0.06273
0.0002416
-0.000103
-0.0001386
1.212e-05
-3.513e-06
-8.603e-06
-0.0001194
-0.0003765
0.7437
-1.068
0.3244
0.001332
-0.0002261
-0.004517
0.004029
0.0004883
0.0009138
-0.002815
0.001901
1.076
0.4495
-0.02556
0.7693
1.916e-07
-7.601e-07
5.684e-07
0.02298
0.007165
0.0003761
-0.0006625
0.0002864
0.0001401
-0.0001417
1.633e-06
-0.0003267
0.0005623
-0.0002357
-0.0003529
-0.0001453
0.004277
0.003118
-0.007395
0.0002301
-0.0001256
0.003037
-0.006411
0.003374
0.0009933
-0.0008458
-0.0001475
-0.1495
-0.1994
0.3489
1.05
-0.04458
-1.006
-0.002232
-0.0005504
0.002782
-0.000756
0.009374
4.963e-05
-0.0002041
-0.001995
0.002909
0.0003378
-0.0003756
3.78e-05
0.0006811
-0.0002188
-0.0004624
0.0002965
0.000182
-0.0004785
-0.02055
0.02255
0.005079
-0.01001
-1.125
-0.3859
1.51
-0.0001128
0.0002124
-9.965e-05
0.02238
0.008477
-0.001097
0.0008229
0.0002741
7.37e-08
-0.002472
0.0007012
0.001771
-0.0003965
0.0003958
0.0001352
-0.0003502
1.257
-0.2786
-0.001883
0.002139
-0.0002556
-0.0003406
-0.0005325
0.0008731
-1.754e-05
1.814e-05
-6.077e-07
-0.0004361
0.0004819
-4.581e-05
8.045e-05
-4.74e-06
-7.571e-05
-9.818e-05
-4.245e-05
-0.0001189
0.0003627
-0.0001993
-0.0002184
0.000115
-0.0004155
0.0003005
0.0003163
0.000177
-0.0004933
0.0006048
-0.0007726
0.001421
-0.00245
0.00103
-0.003627
0.000217
4.314e-05
-0.0003292
0.00299
-0.005832
0.002842
-1.397e-07
1.397e-07
-0.0008905
-0.003626
-0.06638
0.0242
0.0001719
-0.001426
0.001254
0.0001629
0.0003203
-0.0004833
2.129e-06
0.001126
-0.001128
0.1015
0.3723
-0.4738
-4.288e-05
2.237e-05
2.051e-05
0.0001715
-5.671e-05
-0.0004358
-4.569e-05
-1.511
0.5255
2.233e-06
6.315e-06
-0.0002482
4.385e-05
0.0003142
-0.0003593
4.513e-05
-0.3879
-0.6373
1.025
1.967e-05
-0.0001695
0.0001092
-0.0001345
2.529e-05
8.107e-05
-0.0002652
0.0001841
7.05e-05
-0.0002277
0.0001572
-1.198
0.8097
-0.0004169
0.0002393
0.0001776
5.301e-06
-3.74e-06
-1.561e-06
0.0001255
-0.0001972
7.174e-05
-0.0003976
0.0003835
1.407e-05
-0.158
0.0632
0.09484
4.123e-05
2.608e-05
0.0001734
-0.0002104
3.704e-05
-0.162
0.168
-0.006074
0.002739
0.0005417
-0.003281
-0.003798
0.003684
0.0001138
0.0002256
-3.928e-05
-0.0002215
-0.0001065
-0.002625
0.003688
-0.002813
0.0003407
-9.601e-06
-0.0002125
0.0002221
-5.951e-05
0.000137
0.2818
0.5866
-0.8684
-0.0002896
-0.0001273
-0.0002537
0.0004882
-0.0002345
9.93e-05
-0.0001005
1.198e-06
-0.0001206
-0.0004752
-0.01425
0.01219
0.002063
-0.0005812
0.0001103
2.003e-05
6.786e-05
1.028
-0.7458
3.037e-05
-0.0002452
-8.401e-05
-0.0001165
-2.122e-05
-5.074e-05
7.197e-05
2.208e-07
-6.504e-07
7.145e-05
-9.267e-05
3.004e-05
4.047e-05
0.0002942
6.492e-05
-0.0003591
0.0002341
-0.0001542
-7.986e-05
-0.004461
0.001177
0.003283
0.1727
1.023
-5.414e-09
5.413e-09
8.761e-05
0.000131
-0.0002186
0.0001095
-0.000233
5.974e-05
-5.426e-05
-5.481e-06
-9.665e-05
0.0002635
-0.0001668
2.614e-05
-0.0001425
0.0001163
-0.0002113
3.477e-05
0.0001765
-0.0004948
0.0004267
0.559
0.8409
-2.371e-05
-6.247e-06
2.996e-05
-0.004383
0.001249
0.003135
-1.503
0.3787
-0.0001196
0.0002064
-8.682e-05
0.0001714
0.0005883
0.002105
-0.0008002
0.000887
0.0003055
-0.001193
0.1375
-1.017
0.88
6.167e-05
-0.0003539
8.066e-05
-1.567e-05
-6.499e-05
-0.2749
-0.7147
0.8522
0.006887
0.002934
-0.0004326
0.0006242
-0.0001916
0.0003324
0.0002717
-0.0001558
-8.194e-06
0.000164
-0.0004216
0.0003708
5.077e-05
5.167e-06
-4.352e-07
-4.732e-06
-0.004059
0.001012
0.003047
-0.003979
0.005187
-0.001208
-0.7988
-0.2693
-0.0003095
8.283e-05
0.0002267
-0.000324
0.0001561
0.0001679
0.0003751
-0.0003096
-6.542e-05
9.276e-05
-0.000179
0.001797
-0.001744
1.085
0.08575
-1.171
0.2752
-0.2119
0.07724
-0.1344
0.05717
-1.631e-05
4.084e-06
1.223e-05
0.04527
-0.8441
0.03242
-0.01852
-0.0139
-0.0001125
0.0002359
-0.0001233
-0.0009016
-0.001095
0.001997
0.0001351
5.935e-05
-0.0001944
-0.2159
0.8471
-0.6312
-0.0001622
0.000117
4.518e-05
-0.0004079
0.002321
-0.001913
-0.239
-0.01715
0.2561
0.0002501
0.0002449
0.6913
0.4733
-1.165
-0.0003784
-0.0002406
0.000619
1.957e-05
2.82e-06
-2.239e-05
0.0002838
-0.0001406
-0.0001432
-0.0003782
-0.0007177
0.001096
2.084e-05
1.324e-05
-3.408e-05
0.1848
-0.04899
-0.1358
0.0001115
9.451e-05
-0.0002061
-0.008887
0.008805
8.113e-05
-0.0002178
-6.112e-05
2.67e-07
4.528e-06
-4.795e-06
-0.0002147
-0.0002024
0.0004171
0.0003259
0.000105
-0.000431
-0.007765
-0.006486
0.005226
-0.00582
0.0005939
0.001811
-0.000389
-0.001422
7.148e-05
-7.148e-05
-0.3404
0.197
0.1434
-0.003031
0.005406
-0.002375
0.0008036
-0.0005127
-0.0002909
-0.0001478
0.0002797
-0.0001319
5.618e-06
6.497e-06
0.0001266
-0.0001146
-1.203e-05
-0.1176
1.202
0.04557
-0.02814
-0.01742
-5.66e-05
-2.404e-05
-0.0002208
1.181e-05
0.000209
-1.013e-05
1.413e-05
-3.997e-06
-0.000407
0.001125
-0.0007183
1.892e-06
-1.892e-06
-0.0001539
0.0001829
-2.891e-05
1.092e-05
-1.092e-05
-0.0004288
0.0001525
0.0002763
4.183e-05
2.533e-05
-6.716e-05
-0.0001104
8.668e-05
4.015e-05
-2.839e-05
-1.175e-05
0.0985
-0.07393
-0.02457
0.001888
-0.001431
-0.0004576
1.092
-1.517
0.4242
1.318
-1.74
0.4227
-7.293e-05
-0.0001851
0.0002581
-0.04382
0.09282
-0.04901
0.0001818
-7.357e-06
-0.0001745
-0.003032
0.001593
0.001439
-0.001249
9.069e-05
-0.007615
0.008605
-0.0009903
0.04591
-0.1006
0.05467
-0.000703
3.068e-05
0.0006723
0.0006638
0.001003
-0.001667
0.2521
-0.00621
-0.002462
0.00256
-9.832e-05
0.0001818
-0.000326
0.0001442
0.09316
-0.04725
0.0002174
-0.0001117
-0.0001056
1.33e-05
-1.33e-05
-0.0001063
1.975e-05
8.651e-05
0.0009002
-0.002849
0.001948
3.832e-05
-4.341e-05
5.091e-06
0.0001781
-0.0001352
-4.293e-05
-0.0001539
0.0001471
6.786e-06
-0.3378
0.123
0.2148
0.0001549
-7.516e-06
-0.0005293
-0.0005677
-0.05009
0.3506
0.0002057
-0.0001528
0.0003112
-2.603e-05
-0.0002852
0.0002925
-0.000476
0.0001835
-0.4771
-0.5491
1.026
0.2183
0.0002506
-0.2186
0.004846
-0.003204
-0.001642
1.41e-06
6.54e-07
-2.064e-06
0.0001014
-0.002096
0.001994
-1.311e-05
1.311e-05
0.0004685
-0.000238
-0.0002306
0.000713
-0.0001966
-0.0005163
-0.001986
0.001823
0.0001633
4.185e-06
2.681e-06
-6.866e-06
0.0001833
4.642e-05
-0.0002297
-0.4116
1.372
-0.9605
-0.0001492
0.0002068
-5.762e-05
0.005764
-0.0004144
-0.00535
-0.3004
1.333
-1.033
-0.0006065
-0.0007721
0.001379
-2.809e-07
1.513e-07
1.296e-07
0.001562
0.002736
-0.004299
8.352e-05
-2.943e-05
-5.409e-05
0.006637
-0.00379
-0.002847
0.001201
0.003106
-0.004308
-9.507e-07
-1.564e-06
2.514e-06
2.419e-05
-2.419e-05
0.0005533
0.000243
-0.0007962
-0.08823
-0.05359
-0.4603
0.2232
0.2371
0.002858
-0.001084
-0.001774
-0.001326
0.0009941
0.0003317
-6.504e-05
-0.0001241
0.0001891
0.0002852
-0.0001579
-0.0001273
-0.0006042
-0.000207
0.0008112
0.0003087
-0.0001459
-0.0001629
-0.00229
0.002065
0.000225
-0.01019
0.018
-0.007806
0.0001228
0.0001859
-0.03244
-0.01445
0.04688
4.916e-05
2.799e-06
-5.196e-05
0.1367
-0.5757
0.439
-0.0001804
-0.000278
0.0004584
-1.458e-06
8.649e-06
-7.191e-06
0.0002688
-0.0003544
8.556e-05
-0.0003083
0.0002497
5.86e-05
0.0003762
-0.0001804
-0.0001958
-0.3821
0.09741
0.2847
-0.1886
0.05528
0.1333
4.621e-05
-7.735e-05
3.114e-05
0.007703
-0.008633
0.00093
-0.0001067
0.0002039
-9.718e-05
0.0004497
-0.0007662
0.0003164
6.63e-05
-0.0001274
6.106e-05
-0.0004315
0.0004191
1.233e-05
0.0005443
-0.0001442
-0.0004001
7.812e-05
-4.101e-05
-3.711e-05
-3.862e-05
0.0001795
-0.0001409
8.736e-05
-8.736e-05
-5.545e-06
-7.922e-05
8.476e-05
-3.481e-05
0.0002482
-0.0002134
-0.0001949
0.0001594
3.551e-05
-0.002791
0.004191
-0.001401
-0.0002551
0.0005699
-0.0003148
0.0001301
0.0007314
0.0001884
-0.0001957
7.368e-06
-2.135e-07
-4.653e-06
4.866e-06
9.163e-08
-2.305e-08
-6.859e-08
0.0004579
-0.0002114
-0.0002466
-0.3197
0.4212
0.5902
0.2172
-0.8074
0.0003271
-0.0004237
9.663e-05
-7.668e-05
-0.0002281
0.0003048
0.004767
-0.0009082
-0.003859
-0.1887
1.181
-0.9919
0.0002433
0.0005975
-0.0008407
0.0003812
4.162e-05
-0.002492
-0.005651
0.008143
-7.956e-05
-4.805e-05
0.0001276
0.001397
-0.001068
-0.0003294
2.621e-05
-0.0001173
9.112e-05
0.002849
-0.00335
0.0005011
0.7872
-0.6762
-0.00824
0.002706
0.005534
0.01209
0.0005171
-0.01261
0.0001335
-1.603e-05
-0.0001175
4.465e-05
7.389e-05
-0.0001185
0.0001329
-0.0001009
-3.201e-05
-0.004276
0.001758
0.002518
0.001237
-0.005599
0.004362
-9.614e-05
0.0002341
-0.0001379
-0.0006175
0.0009278
-0.0003103
-0.00227
-0.001551
0.00382
-0.0007703
0.0003058
0.0004645
-0.0006755
-0.0001379
0.0008134
0.001786
-0.001461
-0.0003248
-0.0003168
0.0002697
4.707e-05
0.0002479
-0.0001781
-6.982e-05
0.2598
-0.3213
0.06147
2.643e-05
-1.515e-05
-1.129e-05
7.101e-07
2.649e-06
-3.359e-06
-0.0004411
0.0001874
6.518e-06
-0.0002866
0.0002801
-7.234e-07
1.378e-05
0.02148
-0.1184
0.09696
5.031e-05
-5.031e-05
-9.398e-05
9.398e-05
-0.1666
-1.047
1.214
1.258
0.2308
-1.489
0.0002034
-0.0001271
-7.625e-05
-9.429e-05
0.0005173
-0.000423
-9.314e-08
1.056e-07
-1.244e-08
-5.902e-06
-3.439e-06
9.341e-06
-0.0002081
0.002096
-0.000471
0.0006175
-0.0001465
-0.000112
-1.171e-05
0.0001237
-0.001146
-0.004065
0.005212
0.003526
0.00513
-0.008656
-0.189
0.06202
0.127
-0.0001166
7.733e-05
3.926e-05
1.7e-05
0.000447
-0.000464
8.744e-05
-0.0001794
9.192e-05
-0.004594
0.001035
0.003558
1.298e-06
-2.52e-06
1.222e-06
-0.0002434
0.0003383
-9.496e-05
0.8158
-1.147
0.3311
-0.000109
0.000109
-0.0001798
0.0001138
6.598e-05
0.1661
0.5626
-0.7287
-0.000245
1.662e-05
-1.286
1.12
0.2418
-0.4259
0.1841
-0.003174
0.002198
0.0009764
-0.01111
-0.002002
0.01311
-2.446e-05
1.503e-05
9.434e-06
0.7803
-0.9456
0.1653
0.0005399
-0.0002838
-0.0002561
0.4761
-0.1361
-0.34
0.0005126
-0.0009604
0.0004478
-0.01657
0.005566
0.01101
0.002857
-0.002444
-0.0004135
0.006155
-0.003228
-0.002927
-0.0001336
-0.0005539
0.0006875
-0.0005803
-0.0002362
0.0008166
-0.0001017
-3.23e-05
0.000134
0.001877
0.0003934
-0.002271
0.1501
0.6503
-0.8005
0.009689
0.06144
-0.07113
0.0003628
-0.000209
-0.0001538
-0.0001671
-0.0008571
0.001024
-5.598e-05
0.0001785
-0.0001225
-0.0001434
8.243e-05
6.094e-05
4.673e-05
-2.797e-05
-1.876e-05
7.819e-05
2.032e-05
-9.851e-05
1.943e-05
-1.943e-05
0.0001513
-0.0002654
0.001143
-0.0008278
-0.0003149
4.291e-05
-0.0001063
6.341e-05
-0.0007102
0.0004575
0.0002527
0.0001134
5.356e-05
-0.000167
0.005818
-0.006611
0.0007925
0.000848
-0.000403
-0.000445
0.495
-0.3659
-0.1291
0.0002967
-0.0003251
2.834e-05
1.04e-05
-2.933e-05
1.893e-05
-0.0003257
2.364e-06
0.0003233
0.4958
-1.093
0.5977
-0.0004358
0.0001595
0.0002763
-0.0005355
0.0002714
0.0002641
-0.00235
0.0006045
0.001746
0.001511
-0.0006765
-0.0008345
3.953e-05
-0.0001752
0.0001357
0.001436
0.006636
-0.008072
-0.0001931
0.0002228
-2.97e-05
8.366e-05
0.0001723
-0.000256
-0.001173
-0.001177
3.288e-05
6.422e-05
-9.71e-05
-0.0004764
-7.357e-05
0.00055
-4.433e-06
4.7e-06
-1.18
0.5416
0.6389
0.00236
-0.004633
0.002273
0.0002709
-0.000103
-0.0001678
0.1288
0.05673
-0.1855
0.0002777
-8.08e-05
-0.0001969
-0.0001342
-4.2e-05
0.0001762
-1.246
1.246
0.001522
0.002276
-0.003798
2.237e-05
-3.22e-05
9.833e-06
0.06751
-0.05204
-0.01547
0.006811
-0.0009925
-0.0004918
0.0005812
-8.942e-05
5.088e-05
-2.004e-05
-3.084e-05
0.01208
-0.009377
-0.002703
-1.27
0.5238
0.7459
-0.0001977
0.0003216
-0.0001238
7.541e-05
-0.0001902
0.0001148
0.4035
-0.2561
-0.1473
-0.008781
0.006234
0.002547
0.000733
-0.03146
0.03073
0.0002998
0.0001372
-0.000437
0.0001755
6.829e-05
-0.0002438
-0.001533
-0.0007505
0.002284
-0.05351
-0.05443
0.1079
-7.916e-08
5.402e-06
-5.322e-06
3.126e-08
7.269e-07
-7.582e-07
0.0001943
0.0005836
0.0003511
-0.001208
0.0008566
0.0003523
-0.0005554
0.0002032
2.72e-05
1.295e-05
-0.3924
1.239
-0.847
0.0002349
-0.00116
0.0009246
0.3502
-0.007077
-0.3431
-0.0001921
0.0002712
-7.905e-05
-0.0009286
0.0008886
3.998e-05
-0.0001591
-0.0001872
0.0003464
0.0004199
0.001091
-1.047e-06
2.629e-06
-1.582e-06
-7.584e-05
8.249e-05
-6.647e-06
-0.5586
0.2188
0.3398
-2.083e-06
2.083e-06
8.644e-05
-6.459e-05
-2.185e-05
-3.295e-05
0.0001324
-9.947e-05
-0.001821
-0.000217
0.002038
-0.0001898
0.0002823
0.0001966
0.0001894
-0.0003859
0.0007124
-0.0008979
0.0001854
-0.0001917
0.0001586
3.308e-05
0.002125
-0.001474
-0.0006513
-0.009068
0.02466
-0.01559
5.089e-06
-5.09e-06
0.0002076
-0.0002582
5.053e-05
-0.0007282
0.0003211
0.0004071
0.0002923
0.0001401
-0.0004324
0.001413
-0.001174
-0.0002385
0.0001769
0.0003405
-0.0005173