/*--------------------------------*- C++ -*----------------------------------*\
  =========                 |
  \\      /  F ield         | OpenFOAM: The Open Source CFD Toolbox
   \\    /   O peration     | Website:  https://openfoam.org
    \\  /    A nd           | Version:  8
     \\/     M anipulation  |
\*---------------------------------------------------------------------------*/
FoamFile
{
    version     2.0;
    format      ascii;
    class       volVectorField;
    location    "55";
    object      U;
}
// * * * * * * * * * * * * * * * * * * * * * * * * * * * * * * * * * * * * * //

dimensions      [0 1 -1 0 0 0 0];

internalField   nonuniform List<vector> 
127143
(
(0.001786 -7.829e-05 0)
(-9.028e-05 -0.000424 -4.774e-24)
(-6.522e-05 -0.0003201 8.707e-24)
(-8.462e-05 -0.0003871 -1.237e-27)
(0.003859 0.001191 -2.064e-22)
(-7.145e-05 -0.0003993 4.584e-27)
(0.02774 0.01709 0)
(0.009706 0.004559 -2.994e-22)
(0.007792 0.003729 9.904e-22)
(-0.003815 -0.0001503 0)
(0.0361 0.04967 1.406e-21)
(0.018 0.01192 1.149e-21)
(0.0002428 -9.189e-05 -1.775e-24)
(-0.0001103 -0.0004372 0)
(0.02919 0.03313 1.783e-20)
(0.0406 -0.003758 0)
(-0.0002226 -0.00102 -1.411e-23)
(0.1559 -0.0856 1.933e-20)
(-0.09757 -0.008666 0)
(0.04985 0.00837 0)
(-0.1628 0.03811 6.955e-21)
(-0.001253 0.0003427 0)
(0.9751 -0.1347 0)
(0.6145 -0.05944 0)
(-0.001277 0.0004043 -1.671e-22)
(0.2359 -0.0364 0)
(-0.03129 0.0005949 2.146e-20)
(-0.03148 -0.0009294 -3.23e-22)
(0.2358 -0.1052 0)
(0.509 -0.0876 -7.472e-22)
(0.4798 -0.02867 0)
(0.2293 -0.03376 -1.443e-21)
(0.008501 0.003044 3.993e-21)
(-0.09876 0.02532 -1.446e-20)
(0.869 -0.06158 2.496e-20)
(0.006329 0.004747 -5.622e-24)
(-0.1984 0.07056 4.509e-21)
(0.5479 0.001607 -6.103e-21)
(0.7317 -0.06617 -1.302e-21)
(0.2088 -0.009615 3.092e-25)
(-0.09829 -0.009868 0)
(1.11 0.4815 -8.495e-21)
(1.091 0.4705 6.516e-21)
(0.0005073 -0.0001728 0)
(0.1346 -0.08087 -1.543e-20)
(-0.1019 0.02379 4.693e-21)
(0.2385 -0.1106 0)
(-0.188 0.06973 -6.397e-22)
(0.7437 -0.1303 1.744e-22)
(0.6909 -0.05556 -9.238e-22)
(0.04819 -0.003476 -1.554e-22)
(0.9707 -0.02848 4.966e-20)
(-0.08939 0.02489 0)
(1.223 0.1306 -1.146e-20)
(1.001 -0.001094 2.621e-20)
(0.5747 -0.1423 3.825e-22)
(1.001 -0.001088 -2.355e-20)
(1.091 -0.07951 0)
(1.01 -0.009123 -1.56e-20)
(1.222 0.133 -2.23e-20)
(0.5056 -0.02602 -7.488e-20)
(-0.09765 0.0482 -1.075e-21)
(1.069 -0.0755 3.699e-21)
(1.001 0.0004964 5.852e-20)
(-0.1608 0.01821 0)
(0.8584 -0.2192 -8.93e-21)
(1.108 0.1417 3.952e-20)
(1.029 -0.078 0)
(1.037 -0.07762 9.745e-22)
(0.9912 -1.157e-05 0)
(0.5484 -0.04099 0)
(-0.03375 0.000744 -1.014e-20)
(-0.1598 -0.0434 -6.276e-21)
(1.01 -0.008986 -8.578e-21)
(1.004 0.002892 -3.444e-22)
(-0.03421 -0.0005731 1.013e-20)
(1.013 0.03681 -2.965e-20)
(-0.169 0.05845 0)
(0.5947 -0.1535 -6.733e-22)
(1 0.0007315 0)
(0.2305 -0.1042 1.692e-23)
(0.05584 0.007082 3.557e-23)
(-0.161 0.03779 6.709e-21)
(0.2587 -0.01834 0)
(-0.1428 -0.009712 1.154e-21)
(-0.1728 0.06161 0)
(0.8364 -0.08374 -2.33e-21)
(-0.03829 -0.003455 5.59e-21)
(0.8575 -0.2165 0)
(1.251 0.7559 0)
(0.998 -0.007998 0)
(1.186 -0.01413 0)
(1.243 0.7481 0)
(-0.1622 0.03775 -7.167e-21)
(-0.2199 0.0444 0)
(1.033 0.03855 1.072e-20)
(1.111 0.4738 1.841e-20)
(0.353 -0.0265 0)
(-0.1502 0.04508 2.344e-21)
(1.105 0.1431 0)
(1 0.0007096 0)
(0.7728 -0.1386 0)
(0.9593 0.8952 -1.498e-21)
(1.071 -0.1191 0)
(-0.1727 0.06187 -1.334e-21)
(-0.1511 0.04537 3.359e-21)
(1.009 -0.1568 -1.427e-21)
(0.9904 5.909e-05 0)
(0.6836 -0.2454 0)
(1.002 -0.0008542 3.766e-20)
(0.03831 0.02962 -5.449e-21)
(-0.03801 -0.00274 1.075e-20)
(-0.1895 0.04186 -7.42e-21)
(0.2703 0.5828 0)
(0.9965 0.01058 1.304e-20)
(1.019 -0.1595 -2.213e-22)
(0.9927 0.04243 -4.927e-21)
(1.004 0.003023 -3.547e-20)
(1.013 0.0358 2.342e-20)
(-0.0009763 -0.004135 0)
(1.002 -0.00091 -5.268e-20)
(-0.1583 0.04094 -1.967e-21)
(0.8017 -0.2842 0)
(1.069 -0.08588 1.102e-20)
(0.2438 -0.1086 7.483e-22)
(0.1622 -0.02159 -5.53e-21)
(-0.1212 0.03904 0)
(1.035 0.003261 1.059e-19)
(-0.1586 0.02866 -2.763e-21)
(0.5743 -0.1664 -8.452e-22)
(-0.1609 0.04663 0)
(-0.2112 0.0478 -5.451e-21)
(1.116 -0.09689 -8.014e-21)
(-0.1693 0.05872 0)
(-0.000332 -0.001802 -7.756e-23)
(-0.1609 0.04649 -2.19e-21)
(1.072 -0.04827 0)
(-0.1408 0.03256 1.858e-21)
(0.2753 -0.1558 -6.112e-21)
(1.099 -0.01495 8.864e-21)
(0.9446 -0.1618 1.084e-20)
(0.9887 0.03031 3.999e-20)
(-0.05119 0.02061 4.784e-22)
(-0.04832 0.01825 -7.395e-21)
(-0.08312 0.02403 -1.48e-21)
(1.252 0.4912 5.096e-21)
(-0.06008 0.3307 1.667e-21)
(1.001 0.0004315 -5.292e-20)
(-0.2124 0.04832 4.817e-21)
(0.8571 0.7384 -8.223e-22)
(1.085 -0.1128 -2.822e-21)
(0.8093 -0.1611 0)
(0.8085 0.01794 2.097e-20)
(0.8317 -0.1208 0)
(0.2785 -0.159 0)
(-0.1442 -0.009655 0)
(1.092 -0.07868 -4.171e-21)
(0.5444 -0.1888 0)
(-0.1876 0.06955 -1.2e-21)
(0.3135 -0.02824 1.49e-21)
(0.5855 -0.03734 0)
(0.06291 -0.03191 8.127e-21)
(0.9982 -0.007885 3.915e-22)
(-0.1605 0.04665 -5.759e-21)
(0.3541 -0.09466 0)
(-0.1753 0.02102 1.354e-20)
(-0.1896 0.06748 -3.158e-21)
(0.6706 -0.2045 2.043e-20)
(0.1526 0.06225 -7.707e-21)
(0.9455 0.05482 -6.082e-21)
(-0.0397 0.01199 0)
(-0.05044 0.01946 3.434e-21)
(1.011 -0.1695 -4.513e-22)
(0.8983 -0.2502 -2.906e-21)
(0.9794 -0.0008877 3.606e-20)
(-0.08696 0.00435 3.113e-23)
(1.237 0.5449 -9.94e-22)
(-0.1592 0.02996 -2.677e-21)
(0.688 -0.06963 0)
(1.007 -0.01881 6.08e-21)
(0.8974 -0.2506 -9.775e-22)
(1.005 -0.003393 0)
(-0.06981 -0.01031 4.764e-22)
(-0.08667 0.003435 -3.156e-23)
(0.5869 -0.1731 1.819e-21)
(-0.09389 0.04725 1.913e-21)
(1.049 0.3125 -8.173e-21)
(0.2874 0.6004 -4.64e-21)
(0.6436 -0.06311 -2.835e-21)
(1.024 -0.02731 4.191e-20)
(-0.1644 0.02358 8.151e-22)
(-0.2203 0.03315 -6.404e-21)
(1.071 -0.04745 6.325e-20)
(0.4151 0.9623 3.722e-22)
(-0.0002044 -0.001897 1.294e-22)
(-0.1175 0.03019 0)
(1.003 1.496e-06 0)
(0.9983 6.112e-08 2.95e-22)
(0.0203 0.007533 0)
(0.9917 0.01531 4.199e-21)
(1.012 0.007121 3.295e-20)
(0.9315 0.01312 1.074e-19)
(0.9904 -0.04139 6.571e-21)
(-0.199 0.07082 -2.114e-21)
(-0.0001506 -0.0008393 1.899e-24)
(0.943 -0.05994 4.238e-21)
(1.001 -0.08882 -3.652e-23)
(1.02 -0.1749 1.685e-22)
(0.6274 -0.108 -5.019e-22)
(0.9965 0.01026 -6.681e-21)
(1.139 -0.05025 1.696e-20)
(-0.1305 -0.003729 7.083e-22)
(0.9933 -0.004149 1.197e-20)
(0.1733 0.06702 -8.114e-21)
(-0.1601 0.04648 -1.327e-24)
(0.03081 0.00142 0)
(-0.03518 0.01195 -1.307e-21)
(1.003 -0.1891 -2.049e-22)
(-0.1892 0.04622 -6.016e-21)
(1.003 -0.08777 -1.207e-22)
(1.229 0.5411 -2.107e-21)
(1.001 0.005143 -9.583e-22)
(0.7972 -0.1557 4.492e-23)
(-0.04257 0.02654 1.759e-21)
(0.2895 -0.02694 0)
(-0.05427 0.01832 0)
(0.4372 -0.113 -8.945e-22)
(0.6069 0.00873 6.811e-21)
(-0.1215 0.04183 2.83e-21)
(-0.1405 0.04504 3.485e-21)
(-0.168 0.03906 4.424e-21)
(1.005 -0.004024 -1.926e-21)
(-0.1607 -0.04336 1.245e-20)
(-6.319e-05 -0.00988 0)
(-0.1671 0.03888 0)
(1.056 -0.07261 1.069e-20)
(-0.1606 0.04661 2.754e-21)
(0.004657 -0.0007175 8.114e-23)
(1.012 0.00691 -3.057e-20)
(-0.1441 0.02326 4.372e-21)
(-0.2158 0.03255 5.572e-21)
(-0.1646 0.01587 -2.066e-20)
(-0.1613 0.03999 -3.082e-22)
(0.5643 -0.1974 1.466e-24)
(0.4751 0.03291 0)
(-0.0007862 -0.004271 2.305e-26)
(0.9211 -0.184 -1.688e-22)
(-0.03318 0.0005814 0)
(-0.008009 0.00221 1.89e-21)
(1.001 -4.036e-05 -1.109e-21)
(1.224 0.4164 -2.013e-20)
(0.227 -0.02511 4.513e-21)
(0.9636 -0.2185 0)
(-0.1348 0.02976 0)
(0.7296 -0.176 6.979e-22)
(0.7022 -0.2503 0)
(1.034 0.002761 -8.307e-20)
(0.5825 0.2166 0)
(0.9335 -0.2255 0)
(0.8808 0.2389 1.022e-20)
(-0.1146 0.02969 -3.455e-21)
(1.005 -0.01572 2.185e-21)
(1.186 -0.01247 3.123e-22)
(0.988 0.0294 -3.271e-20)
(0.1344 0.02873 0)
(-0.1655 0.01744 -6.762e-21)
(-0.1158 0.03687 1.041e-20)
(0.2496 -0.1581 0)
(0.5465 -0.148 4.945e-20)
(1.281 0.15 -8.034e-21)
(0.3881 -0.071 0)
(0.9753 -0.001548 -4.347e-20)
(-0.1824 0.06516 -9.369e-22)
(-0.1475 0.02313 -4.443e-21)
(1.135 -0.07499 6.308e-21)
(-0.1588 0.02335 -3.943e-21)
(-0.1883 0.04159 0)
(0.8305 -0.1319 1.888e-21)
(0.9568 -0.00254 -8.686e-22)
(0.8796 -0.2462 2.976e-21)
(1.002 -0.0004177 5.831e-22)
(1.031 0.04141 1.985e-21)
(1.071 -0.1186 -8.094e-24)
(0.9948 0.003618 0)
(1.003 0.01063 5.252e-21)
(-0.0008296 -0.002001 -1.874e-23)
(-0.1785 0.04926 0)
(0.9968 0.0115 6.894e-21)
(0.7834 -0.1118 1.65e-21)
(1.006 -0.01886 8.399e-21)
(0.8578 0.013 -2.889e-20)
(0.966 -0.1706 0)
(1.055 -0.07339 -1.049e-20)
(0.9954 -0.1839 0)
(0.9955 -0.006864 -8.07e-21)
(0.6701 -0.259 -5.482e-22)
(0.4648 -0.03531 2.578e-21)
(-0.007315 -0.02045 -6.395e-22)
(-0.1618 0.04042 1.188e-21)
(1.28 0.1495 5.806e-21)
(0.3665 -0.04323 -1.245e-21)
(0.9078 -0.205 -1.222e-21)
(0.7776 -0.2061 -1.272e-20)
(1.019 -0.159 2.098e-21)
(0.2745 -0.01979 0)
(0.4693 -0.2474 5.209e-23)
(1.019 -0.1745 5.787e-23)
(0.993 -0.004265 0)
(0.06668 -0.003324 -1.662e-23)
(1.095 -0.1134 -3.332e-21)
(0.9873 -0.1519 -1.864e-21)
(0.005171 -0.02941 -2.21e-22)
(0.5442 -0.1301 0)
(1.002 -0.0005301 1.027e-21)
(0.9919 0.004513 -2.178e-20)
(1.28 0.5633 9.135e-22)
(0.3091 0.006605 3.433e-21)
(0.3457 -0.03908 3.335e-21)
(1.188 0.01151 2.661e-20)
(0.9168 -0.01562 1.61e-21)
(0.9738 -0.1335 0)
(0.5197 -0.03593 -4.403e-21)
(1.062 0.008241 2.38e-20)
(0.9644 -0.2183 3.829e-22)
(1.278 0.5606 0)
(0.2466 0.01219 -7.637e-21)
(0.9091 -0.02951 5.158e-20)
(0.02694 -0.01127 -5.174e-24)
(0.5542 -0.02192 2.068e-21)
(1.209 0.5991 7.957e-21)
(-0.1346 0.05602 0)
(1.004 0.01048 -5.202e-21)
(0.8741 -0.06312 -9.591e-20)
(1.004 9.116e-06 0)
(0.9983 1.233e-06 0)
(0.8315 -0.117 0)
(0.6955 -0.2475 -3.595e-21)
(1.011 -0.1696 -4.177e-22)
(-0.135 0.05655 -1.362e-21)
(-0.1845 0.04992 -1.837e-20)
(1.097 -0.01615 -3.982e-20)
(1.003 -0.1887 0)
(-0.04673 0.02078 1.412e-21)
(-0.1507 0.02295 6.781e-22)
(0.1926 0.1765 -4.205e-22)
(0.7718 -0.1071 -1.062e-21)
(-0.1982 0.04712 -5.992e-21)
(-0.2041 0.04082 2.898e-21)
(0.4052 -0.04963 -1.982e-21)
(-0.1587 0.02524 0)
(0.4304 -0.04717 1.551e-21)
(0.002166 0.01642 4.848e-21)
(-0.1101 0.02095 -6.155e-22)
(-0.1558 0.02311 2.915e-21)
(0.9253 0.05825 0)
(-0.1989 0.04862 -1.46e-20)
(-0.1366 0.03044 -2.931e-21)
(1.25 0.465 -4.821e-21)
(1.004 -0.006518 6.434e-21)
(0.5356 -0.0209 0)
(-0.1733 0.05687 -1.545e-21)
(1.09 -0.07677 1.084e-21)
(0.6712 -0.08905 -2.977e-20)
(0.708 -0.05162 0)
(0.7022 -0.05948 -2.562e-21)
(1.002 0.002465 2.227e-22)
(0.992 0.01497 -1.265e-20)
(0.8939 -0.00232 0)
(-0.1896 0.03499 4.433e-21)
(0.9612 -0.001998 0)
(0.3835 -0.002553 6.889e-20)
(1.062 0.006135 -5.029e-20)
(0.2771 -0.03011 -3.793e-21)
(0.6773 -0.04959 3.602e-21)
(1.025 -0.02604 0)
(1.157 0.02323 -6.187e-22)
(0.514 -0.04854 2.175e-21)
(0.00849 -0.01248 2.436e-26)
(-0.1508 0.04918 -6.389e-21)
(0.9629 -0.005305 3.098e-21)
(0.629 -0.04859 -4.278e-20)
(0.1896 -0.02188 5.467e-21)
(0.4554 -0.05574 0)
(0.9056 -0.2071 -4.882e-21)
(0.993 0.04087 0)
(0.08984 -0.006818 0)
(0.9712 0.1623 0)
(0.2216 -0.0111 0)
(-0.1212 0.03129 -9.39e-22)
(0.4336 -0.02497 -2.583e-20)
(1.011 -0.007076 -4.456e-20)
(0.7473 -0.1765 0)
(-0.08369 0.02797 2.486e-21)
(0.7318 -0.1874 7.881e-22)
(0.641 -0.05712 4.429e-21)
(0.4608 -0.03052 3.214e-21)
(0.7517 -0.1789 -1.014e-20)
(0.5149 -0.02996 0)
(0.9237 0.05659 0)
(1.005 -0.01585 0)
(0.2336 -0.0196 -1.402e-21)
(1.001 0.004889 2.857e-22)
(-0.16 0.03572 0)
(-0.07223 -0.01015 0)
(0.9771 0.164 0)
(1.074 -0.1268 1.965e-21)
(-0.1711 0.06177 -7.016e-21)
(1.106 -0.1031 5.37e-21)
(1 0.0006473 -7.741e-20)
(0.7323 -0.07643 0)
(0.6856 -0.2828 0)
(0.4185 -0.05772 -1.9e-21)
(0.9459 -0.1607 -1.128e-20)
(-0.1795 0.06884 0)
(0.8002 -0.282 0)
(-0.2185 0.04398 -4.255e-21)
(-0.1648 0.04456 -5.39e-21)
(0.3407 -0.06884 0)
(0.9873 0.05197 5.668e-21)
(0.7292 -0.2895 -1.621e-21)
(-0.1909 0.06823 0)
(-0.03277 0.0115 -4.821e-21)
(-0.1612 0.04614 0)
(1.004 0.0001494 -4.41e-23)
(-0.1417 0.04534 -4.331e-21)
(0.9391 0.2815 -2.135e-21)
(1.085 0.4587 4.078e-22)
(0.9141 -0.1481 -1.086e-20)
(-0.1723 0.01817 2.221e-20)
(0.9831 -0.1082 -1.677e-21)
(1.003 -0.0002219 0)
(-0.1578 0.04567 0)
(-0.1081 0.02193 0)
(1.143 -0.06073 1.007e-19)
(1.005 0.1819 9.296e-22)
(1.002 0.00241 -7.193e-21)
(1.043 -0.1554 1.768e-21)
(-0.2123 0.04751 -1.136e-20)
(0.9716 -0.02747 -1.87e-20)
(0.9952 -0.006691 0)
(0.9978 -0.000647 -4.862e-21)
(0.7275 -0.05946 1.322e-21)
(1.071 -0.05242 -2.178e-20)
(0.6961 -0.2537 6.372e-21)
(0.964 0.03822 0)
(0.3733 -0.0271 -1.923e-22)
(0.9894 0.004057 5.048e-20)
(0.3804 -0.2429 0)
(0.8788 -0.005753 -2.893e-21)
(-0.1303 -0.005051 6.949e-22)
(-0.1589 0.04163 0)
(0.5226 -0.06802 -2.326e-23)
(1.072 -0.1258 -5.71e-21)
(-0.188 0.03356 2.727e-20)
(0.8663 0.09882 -2.393e-22)
(-0.1994 0.06944 -6.588e-22)
(0.3508 -0.0416 -1.155e-21)
(-0.1673 0.0146 0)
(-0.1987 0.07122 0)
(1.217 0.07924 4.846e-21)
(1.118 -0.09708 2.566e-21)
(-0.07407 0.03153 4.725e-21)
(0.07316 -0.001252 0)
(0.3377 0.5416 -1.913e-20)
(-0.08792 0.03204 2.665e-24)
(0.994 -0.001002 0)
(1.006 0.02536 0)
(-0.1493 0.02885 0)
(-0.1699 0.04452 6.827e-21)
(0.9989 -0.000149 0)
(-0.1441 0.04297 2.669e-21)
(1.198 0.004298 2.035e-20)
(1.069 -0.08453 -1.669e-20)
(0.3524 0.003362 -1.201e-21)
(1.006 -0.07442 -9.85e-22)
(1.004 -0.0001054 0)
(0.2135 -0.08736 -3.816e-20)
(1.197 0.005278 -2.103e-20)
(-0.1302 0.04544 -1.959e-21)
(0.1016 0.02174 3.48e-22)
(0.222 -0.1181 5.593e-22)
(0.3639 -0.2318 -3.664e-21)
(-0.2506 0.03475 3.205e-21)
(0.5422 -0.1302 0)
(0.6862 -0.2752 0)
(1.05 0.189 -9.185e-22)
(0.2516 0.01908 -2.567e-22)
(1.01 0.001539 3.784e-20)
(0.3588 -0.03247 -2.519e-21)
(0.9734 0.01344 3.976e-20)
(1.272 0.5677 3.025e-22)
(0.8757 -0.08787 2.016e-21)
(-0.1128 0.02908 0)
(1.254 0.4797 2.262e-21)
(-0.0002548 -0.001417 0)
(-0.1571 0.04643 7.466e-21)
(0.2751 0.369 7.716e-21)
(1.076 -0.0323 -2.433e-22)
(1.034 0.7218 8.362e-21)
(0.9933 -0.001865 -7.081e-20)
(0.2182 -0.1207 0)
(1.007 0.02537 2.74e-23)
(-0.1596 0.04377 0)
(-0.1129 0.02888 -3.478e-21)
(-0.000195 -0.001108 0)
(0.0005499 -0.002869 1.075e-22)
(0.001899 -0.000691 -3.573e-23)
(1 -0.0002767 -3.39e-20)
(-0.2002 0.04915 0)
(0.2826 0.08365 0)
(0.9922 0.004622 4.212e-20)
(-0.1589 0.05992 2.386e-21)
(0.8021 -0.2862 6.268e-21)
(-0.1589 0.05211 6.769e-21)
(1.043 -0.1453 0)
(-0.1605 0.04211 0)
(0.5138 -0.06326 -1.374e-21)
(-0.1439 0.0426 -2.724e-21)
(-0.07891 0.01446 1.631e-21)
(0.999 -0.0007375 0)
(-0.1109 -0.01336 -9.384e-22)
(-0.0007292 0.0002245 0)
(0.6947 -0.2805 1.091e-21)
(0.3835 -0.03832 9.015e-22)
(-0.04309 0.01258 1.042e-21)
(1.011 -0.008487 -1.352e-20)
(1.085 -0.1126 -3.086e-21)
(0.9931 -0.04198 -2.255e-21)
(0.1012 -0.005054 9.249e-21)
(1 -0.00586 0)
(0.319 -0.02391 0)
(0.4634 0.2233 0)
(-0.1032 0.03487 -3.731e-21)
(0.9981 3.115e-05 0)
(-0.1498 0.02992 -2.452e-21)
(1.042 -0.09418 -7.157e-21)
(-0.00962 0.0003618 8.689e-26)
(0.6557 -0.2771 2.85e-21)
(0.2054 0.07324 1.635e-21)
(0.09831 -0.005973 -3.172e-21)
(0.9704 0.006375 2.691e-21)
(-0.1693 0.05948 -2.078e-21)
(0.7735 -0.2749 -3.571e-21)
(0.9988 -0.0001503 3.805e-21)
(0.9069 -0.2067 6.536e-21)
(1.079 0.05842 -2.916e-20)
(0.506 -0.04212 -2.053e-21)
(0.7241 -0.05047 1.892e-21)
(-0.1627 0.0428 -7.162e-21)
(-0.07443 0.02544 1.77e-21)
(-0.1186 0.03039 1.683e-21)
(1.251 0.1787 0)
(0.757 -0.2931 1.527e-21)
(-0.1741 0.06084 0)
(-0.1602 0.04624 2.058e-22)
(1.018 -0.003556 -6.926e-21)
(0.2446 -0.01195 4.914e-22)
(-0.1722 0.04746 -2.836e-21)
(0.399 -0.06293 2.58e-21)
(1.086 -0.1159 -4.572e-21)
(-0.1785 0.05041 1.236e-21)
(1 0.001334 0)
(0.9998 0.001705 1.321e-20)
(0.8873 0.2292 -1.652e-20)
(-0.1947 0.0464 -2.99e-21)
(1.015 0.7565 0)
(0.9908 0.005505 -2.874e-20)
(1.003 2.187e-05 -5.191e-22)
(0.7831 -0.2658 0)
(0.5959 -0.2603 0)
(-0.1753 0.06392 2.262e-21)
(0.6849 -0.2756 0)
(-0.0802 0.02751 6.284e-21)
(-0.02856 0.009344 0)
(0.9632 -0.2026 -5.285e-22)
(1.011 0.03206 0)
(1 -0.0004157 6.443e-21)
(-0.1146 0.04017 3.215e-21)
(-0.1503 0.04205 -2.014e-21)
(0.9705 -0.2217 9.723e-22)
(1.003 -0.001141 1.075e-20)
(-0.03675 0.0004211 4.936e-21)
(1.103 -0.1086 0)
(-0.187 0.05022 7.245e-21)
(0.9631 -0.004117 8.916e-21)
(0.2674 -0.03316 2.595e-22)
(0.9907 0.005252 5.291e-20)
(-0.1701 0.06179 -1.126e-21)
(-0.07555 -0.01443 0)
(0.3398 -0.01845 4.935e-22)
(1 3.018e-05 1.764e-22)
(-0.122 0.04089 -1.067e-20)
(-0.114 0.02893 -8.246e-22)
(0.1045 -0.06111 -9.417e-21)
(1.004 -9.616e-05 -1.572e-21)
(1.019 -0.1592 1.472e-21)
(-0.03568 0.01193 6.107e-22)
(0.9978 -0.0007443 0)
(1.073 -0.1269 0)
(0.9933 0.01045 -8.544e-22)
(0.8629 -0.05783 2.627e-21)
(0.1891 0.0149 0)
(0.9948 0.00341 2.952e-20)
(-0.1696 0.04179 1.612e-20)
(0.5877 -0.08 1.168e-21)
(0.003891 -0.02957 0)
(-0.2158 0.03564 -6.485e-21)
(0.002872 0.01746 -1.055e-21)
(0.4515 -0.04969 -4.651e-21)
(0.4691 -0.05706 -1.327e-21)
(0.1784 0.01887 -4.785e-20)
(0.7614 -0.07153 -1.074e-21)
(1.236 0.7446 1.138e-21)
(0.7557 -0.03781 -2.198e-21)
(-0.1259 0.03199 -6.954e-22)
(-0.02764 0.03063 -2.059e-21)
(0.3127 -0.02848 1.149e-21)
(1.003 -0.001105 0)
(0.5734 -0.1205 -9.282e-23)
(0.9935 0.00406 -1.211e-20)
(0.2109 0.194 -2.509e-20)
(1.038 0.01811 4.338e-20)
(-0.04032 0.01975 7.006e-21)
(1.003 -0.000262 0)
(0.9966 0.01133 1.842e-20)
(1.095 -0.07879 2.02e-20)
(0.7323 -0.2913 8.276e-22)
(-0.18 0.04248 3.287e-21)
(1.003 -0.0005612 9.566e-21)
(1.002 -0.001449 -1.491e-20)
(-0.1265 0.04297 -2.427e-21)
(-0.05852 -0.005884 0)
(-0.1798 0.04187 7.127e-21)
(0.3743 -0.03082 -3.347e-21)
(-0.1577 0.01619 0)
(0.6957 -0.2526 -5.381e-21)
(-0.1579 0.04161 -4.546e-22)
(0.6856 -0.2839 0)
(-0.1469 0.02256 -9.197e-23)
(-0.1468 0.04288 -2.737e-20)
(-0.1316 0.01226 0)
(1.003 -0.0005921 -1.699e-21)
(-0.162 0.01406 1.523e-20)
(-0.1391 0.02269 3.317e-22)
(1.015 -0.1529 -4.965e-22)
(1.248 0.06515 0)
(0.9983 -0.007272 -2.139e-20)
(1.003 2.396e-05 4.893e-23)
(0.3063 0.0131 -7.177e-21)
(0.3118 -0.1765 3.357e-24)
(0.2516 0.01918 1.29e-21)
(-0.01899 0.005853 1.08e-21)
(1.037 0.01903 0)
(1.004 -7.796e-06 9.777e-24)
(-0.1516 0.04673 0)
(-0.2161 0.02969 0)
(0.9346 0.01299 -8.542e-20)
(-0.2057 0.03093 -6.197e-21)
(1.01 -0.1287 0)
(0.9961 -0.000984 -2.042e-20)
(-0.1144 0.03432 1.04e-20)
(0.9499 -0.2171 -4.21e-22)
(-0.1327 0.02238 2.155e-21)
(0.8275 -0.1467 -3.89e-20)
(0.000488 -0.0001564 0)
(-0.05737 0.01891 0)
(-0.1985 0.07124 -5.909e-22)
(-0.1994 0.0695 1.225e-21)
(-0.1783 0.04917 0)
(-0.2343 0.03375 6.478e-21)
(0.3058 -0.04336 -6.005e-22)
(-0.2459 0.03805 0)
(0.9645 -0.0201 -1.089e-20)
(-0.1598 0.0341 1.01e-20)
(-0.02879 -0.01134 0)
(-0.1579 0.03534 -3.827e-21)
(1.001 -0.001054 3.415e-20)
(0.8609 -0.1341 -1.335e-21)
(0.8386 -0.2105 0)
(0.5526 0.05074 -3.324e-20)
(0.998 1.45e-05 2.911e-23)
(1.001 -0.00109 -4.551e-20)
(0.000378 -0.01148 0)
(1.076 -0.03032 -5.506e-21)
(0.6298 -0.1174 3.812e-22)
(-0.2245 0.02844 -3.743e-22)
(0.5313 -0.2834 0)
(0.06452 -0.004247 1.304e-20)
(1.251 0.2018 0)
(0.3274 -0.02791 1.466e-21)
(0.6823 0.02186 4.816e-20)
(0.7331 -0.1982 0)
(1.01 0.001333 -1.367e-20)
(1.003 -0.0006456 0)
(1.226 0.439 0)
(0.949 0.283 0)
(-0.2023 0.03871 1.024e-21)
(0.5592 0.03757 0)
(0.4268 -0.1755 3.385e-21)
(-0.1573 0.03799 0)
(0.6708 -0.2761 -2.746e-21)
(1.137 -0.04961 1.076e-19)
(0.7267 -0.09061 4.223e-20)
(1.001 7.035e-05 -9.232e-23)
(0.4086 -0.02699 -9.922e-22)
(1.008 -0.07379 -2.356e-22)
(0.6919 -0.1615 -3.189e-22)
(-0.0004836 -0.002246 1.83e-23)
(1.044 -0.1598 5.066e-22)
(0.1835 0.03657 -1.241e-20)
(-0.1497 0.04892 6.445e-21)
(1 4.076e-05 -1.641e-22)
(1.06 -0.114 8.112e-23)
(0.6891 -0.05942 -2.955e-21)
(-0.03238 0.01114 0)
(0.01944 -0.03548 7.751e-21)
(-0.02309 0.01347 5.148e-21)
(-0.1466 0.0227 -1.384e-21)
(0.9217 0.7846 0)
(-0.165 0.04475 5.156e-21)
(0.5629 -0.2952 4.902e-21)
(-0.09893 0.03225 -1.401e-21)
(0.7795 -0.1911 1.643e-22)
(1.028 -0.1103 2.316e-21)
(1.094 -0.1132 1.573e-21)
(-0.1192 0.03847 2.834e-21)
(0.9885 -0.1623 3.15e-22)
(0.002386 -0.0001428 0)
(0.8359 -0.2115 0)
(0.9454 0.05096 3.047e-20)
(0.9595 -0.2161 -1.912e-22)
(0.7117 -0.2974 4.627e-21)
(0.8873 -0.0924 -6.057e-22)
(1.005 -0.0007645 0)
(-0.05231 -0.00964 -3.648e-22)
(0.01059 0.01645 -9.74e-21)
(-0.1752 0.06422 -2.095e-21)
(1.004 4.486e-06 -6.57e-23)
(-0.01858 0.006886 0)
(-0.1633 0.04704 0)
(0.27 -0.03681 4.529e-21)
(1.002 7.941e-05 5.21e-22)
(-0.2437 0.03815 8.329e-21)
(-0.1537 0.04566 0)
(-0.2355 0.04446 1.092e-20)
(-0.2125 0.03707 -5.873e-21)
(1.001 2.367e-05 -4.464e-22)
(-0.1643 0.06097 -3.614e-21)
(-0.01977 0.0003855 0)
(-0.1476 0.04035 1.265e-20)
(-0.1392 0.03059 0)
(0.9906 0.01643 -4.885e-21)
(-0.04313 0.02098 1.276e-21)
(0.03539 0.1814 0)
(1.018 0.001444 -1.414e-20)
(1.011 -0.1822 -3.853e-22)
(0.9707 -0.1896 0)
(-0.2317 0.03367 -6.285e-21)
(-0.1572 0.04643 0)
(0.9079 -0.2034 -3.94e-21)
(1.044 -0.16 0)
(0.2002 -0.02359 7.365e-22)
(-0.1241 0.03863 0)
(0.9986 4.281e-06 -4.641e-22)
(-0.165 0.06118 3.421e-21)
(-0.1237 0.05649 4.936e-22)
(0.2214 -0.0181 0)
(0.455 -0.06581 1.469e-21)
(1.226 0.1202 0)
(-0.1573 0.05926 0)
(-0.07884 0.027 4.497e-22)
(0.9984 2.502e-05 1.809e-22)
(-0.1602 0.05276 -6.383e-21)
(-0.1147 0.03411 0)
(0.08383 0.01977 0)
(0.000643 -0.01172 -2.045e-23)
(0.09804 0.02122 -1.43e-21)
(-0.1047 0.03576 5.712e-21)
(-0.1825 0.03641 -8.113e-22)
(-0.1506 0.03023 0)
(0.9562 -0.2087 0)
(1 -0.0002717 1.662e-20)
(8.395e-05 -3.373e-05 -1.347e-23)
(-0.1689 0.04731 6.617e-21)
(-0.2118 0.0346 5.781e-21)
(-0.08794 0.03146 1.997e-21)
(-0.194 0.07114 -4.097e-21)
(-0.1683 0.05913 8.012e-21)
(-0.1465 0.047 -3.062e-21)
(0.5881 -0.04558 0)
(0.9999 -0.0003872 0)
(0.006956 -0.002569 0)
(1.065 -0.1254 -1.245e-23)
(1.001 3.744e-05 0)
(-0.1392 0.04272 -1.13e-20)
(1.271 0.5662 0)
(1.002 -0.1529 1.305e-21)
(0.8157 -0.2805 -1.889e-21)
(1.004 -5.454e-05 -6.331e-21)
(-0.1559 0.04088 0)
(-0.08821 0.007851 0)
(1.01 0.001596 -4.415e-20)
(1.004 -6.115e-05 0)
(1.247 0.06298 0)
(-0.1043 0.05117 4.028e-21)
(-0.1578 0.01711 -1.669e-21)
(-0.1732 0.06101 3.476e-21)
(-0.1721 0.06305 3.14e-21)
(0.05432 -0.0009238 1.851e-23)
(1.059 -0.1345 0)
(0.6866 -0.1323 -2.848e-20)
(1.001 -0.001106 0)
(-0.1561 0.04856 -3.145e-21)
(-0.1954 0.06965 0)
(0.4947 -0.03059 -2.351e-21)
(0.3056 -0.02514 0)
(0.6731 -0.2023 -1.926e-20)
(1.004 -0.0003312 0)
(1.011 -0.00811 1.865e-21)
(1.004 -0.006436 2.075e-20)
(-0.03204 -0.0001058 5.325e-21)
(1.001 -0.001041 5.991e-21)
(1.129 -0.05614 -4.052e-20)
(0.3406 -0.2058 1.075e-21)
(1.053 -0.1329 3.112e-21)
(0.2261 -0.03475 -2.494e-21)
(1.001 -0.001352 0)
(-0.112 -0.0004616 -1.048e-21)
(1.053 -0.1266 -1.964e-21)
(1.001 0.00621 0)
(0.4118 -0.05014 1.935e-21)
(0.999 -0.0001874 0)
(0.6057 -0.2963 6.888e-21)
(-0.02784 0.06331 -6.172e-21)
(-0.2499 0.03301 -1.38e-22)
(0.5063 0.04621 0)
(0.1715 -0.008059 6.006e-22)
(0.9975 -0.008202 9.473e-22)
(-0.1541 0.04084 0)
(0.8191 -0.1558 -1.019e-20)
(0.327 -0.02562 0)
(-0.01509 -0.01399 -9.606e-22)
(0.3208 -0.04074 9.019e-22)
(0.6847 0.9504 -2.306e-21)
(1.225 0.1233 -1.036e-20)
(0.9922 -0.1714 -4.062e-23)
(0.7402 -0.2436 5.568e-23)
(0.06374 -0.005862 0)
(0.9999 0.007562 0)
(0.8133 -0.005769 1.684e-20)
(0.6368 -0.2056 0)
(0.336 0.1049 5.859e-22)
(-0.02847 -0.01076 2.568e-22)
(0.1316 -0.02744 0)
(1.003 -0.0003119 0)
(1.064 -0.09745 3.049e-20)
(-0.1134 0.03916 -1.566e-21)
(0.2456 -0.056 -1.856e-21)
(-0.02633 0.0007256 2.137e-20)
(0.7111 0.1959 0)
(0.004467 -0.004446 -1.412e-21)
(0.1681 0.05518 -2.952e-21)
(-0.0165 -0.001444 4.968e-21)
(-0.2034 0.04925 -4.147e-21)
(-0.09537 0.03336 4.024e-21)
(0.01802 -0.002567 4.927e-21)
(0.099 -0.0072 1.962e-21)
(1.005 0.03909 -1.921e-21)
(0.9695 -0.1412 0)
(1.004 3.771e-05 0)
(1 2.407e-05 0)
(-0.1018 0.02406 3.275e-21)
(1.044 0.03755 1.694e-21)
(-0.1998 0.02965 4.7e-21)
(-0.1637 -0.05428 -1.941e-20)
(0.2652 0.5511 0)
(1.083 -0.09924 -1.275e-20)
(1.042 -0.03677 -2.303e-20)
(1.261 0.5717 2.862e-21)
(0.9465 -0.2165 4.172e-22)
(1.011 -0.006971 3.121e-20)
(0.2227 -0.01365 2.555e-22)
(-0.1853 0.06639 -1.233e-21)
(1.04 -0.03499 3.194e-20)
(-0.1713 0.04029 -1.761e-20)
(-0.01351 0.00486 -2.207e-21)
(-0.06163 -0.01743 0)
(0.9895 -0.198 0)
(0.05021 0.009993 -1.743e-20)
(0.03721 0.008702 0)
(-0.157 0.0551 0)
(0.9946 -0.0004864 2.686e-20)
(-0.1053 0.02944 3.004e-21)
(0.7023 -0.1644 3.478e-22)
(1.004 -0.006329 0)
(-0.1734 0.04359 8.232e-21)
(-0.1698 0.04726 0)
(-0.08196 0.04156 -1.992e-21)
(0.9989 -0.0001314 1.816e-21)
(0.8643 -0.005206 3.848e-21)
(0.4359 -0.04168 0)
(0.03924 -2.779e-05 3.741e-23)
(0.8181 -0.2599 -4.486e-21)
(-0.01333 0.004446 0)
(-0.1438 0.04015 2.701e-21)
(0.6947 -0.289 0)
(0.9713 -0.2141 -6.397e-23)
(-0.0249 0.008519 0)
(-0.186 0.02075 4.028e-21)
(1 2.822e-05 -8.976e-23)
(0.2865 -0.1681 0)
(1.173 0.3557 -1.279e-20)
(1.004 3.588e-05 0)
(0.727 -0.2611 1.505e-22)
(0.002625 -0.001071 1.597e-22)
(0.587 -0.04238 -5.427e-21)
(-0.09035 -0.00429 -1.732e-20)
(1.147 -0.0563 5.893e-21)
(1.028 -0.1549 4.418e-22)
(-0.01208 0.003952 9.137e-26)
(0.03252 -0.003491 -3.924e-22)
(0.6108 -0.06655 0)
(1.011 0.03184 -9.189e-21)
(0.9973 0.003683 6.296e-21)
(1.001 -0.1893 0)
(0.6474 -0.2656 -1.573e-21)
(-0.1661 0.05714 -1.153e-20)
(-0.1821 0.04249 0)
(0.3111 0.7717 -4.433e-21)
(0.371 -0.1541 -2.018e-21)
(0.5057 0.002993 -1.878e-22)
(1.166 0.1197 -2.335e-20)
(0.3644 -0.1509 -1.977e-21)
(1.105 -0.01616 4.363e-20)
(-0.06047 0.004758 0)
(1.005 1.994e-05 0)
(-0.185 0.06989 3.255e-22)
(0.005811 -0.03287 -6.631e-23)
(-0.1069 0.02423 -7.748e-21)
(-0.1766 0.04915 0)
(-0.1501 0.04249 0)
(0.9958 0.002246 -2.057e-20)
(0.9831 0.00101 1.437e-20)
(-0.1028 0.03581 0)
(0.9271 -0.1755 8.681e-21)
(-0.1776 0.06143 0)
(0.6757 -0.08598 0)
(-0.1476 0.05312 -5.015e-21)
(-0.1785 0.05326 -1.487e-21)
(0.4279 0.02359 -1.043e-21)
(-0.05257 0.01305 -3.852e-21)
(-0.2049 0.02636 -1.581e-20)
(0.0595 -0.01075 -1.725e-21)
(-0.09105 0.02144 -2.683e-21)
(0.4295 -0.02989 1.763e-21)
(-0.1194 0.03501 1.054e-20)
(1.07 -0.1285 -4.128e-21)
(-0.1691 0.0638 3.984e-21)
(0.4327 0.9606 -4.364e-22)
(-0.1683 0.05933 -2.186e-22)
(0.006224 -0.03424 3.169e-22)
(-0.0005279 1.97e-05 0)
(-0.151 0.04294 0)
(1.005 -0.0007285 0)
(1.004 -0.002269 2.188e-20)
(-0.1583 0.0595 2.571e-21)
(-0.1948 0.0648 0)
(1.014 -0.1562 3.143e-21)
(1.003 2.075e-05 0)
(0.6517 -0.2834 -4.649e-21)
(-0.1584 0.0417 2.361e-21)
(1.102 -0.07284 -1.675e-20)
(-0.1543 0.05362 0)
(0.4096 0.01614 -1.194e-20)
(-0.1219 0.03749 -1.265e-20)
(1.112 0.6056 -1.266e-20)
(0.9999 0.0006349 -4.983e-20)
(0.993 -0.1598 0)
(1.118 -0.03932 -1.035e-20)
(0.2425 -0.09604 0)
(0.2791 -0.02095 0)
(-0.1346 0.03644 3.782e-22)
(0.7095 -0.1825 1.556e-20)
(0.8259 -0.008114 3.098e-20)
(-0.201 0.03692 0)
(0.6207 -0.05518 -9.342e-22)
(1.133 -0.08728 0)
(-0.1438 0.04179 0)
(0.6625 -0.2925 5.12e-21)
(0.8809 -0.1022 2.211e-21)
(-0.1911 0.06804 0)
(0.3557 -0.154 -2.51e-21)
(1.006 -0.009122 -1.096e-21)
(-0.02155 0.00742 0)
(-0.01382 0.004421 0)
(-0.1208 0.05556 0)
(-0.2098 0.03305 8.784e-21)
(0.02335 0.03916 -2.712e-20)
(1.002 0.01464 4.695e-22)
(-0.02893 0.007513 5.318e-21)
(0.06544 -0.01483 0)
(1 -0.0001506 0)
(0.9993 -6.144e-05 -1.283e-20)
(-0.1359 0.03072 6.776e-25)
(-0.1752 0.04124 1.009e-20)
(0.0008761 -0.0004098 -1.609e-22)
(-0.01845 -0.0179 2.981e-22)
(0.9827 -0.1429 -3.677e-22)
(0.6835 -0.2529 0)
(-0.1029 0.03393 -1.221e-20)
(1.001 -0.1564 0)
(1.042 -0.1279 0)
(0.9988 -0.008784 -7.062e-21)
(-0.09091 0.02998 -1.902e-20)
(-0.1213 -0.03145 0)
(-0.1262 0.04262 -1.109e-20)
(0.9791 -0.1939 0)
(-0.01441 0.003241 6.808e-22)
(-0.184 0.06661 -6.104e-21)
(1.001 -0.0008539 -7.108e-22)
(0.06345 -0.01007 0)
(-0.1575 0.05066 -2.682e-21)
(1 -0.0007224 -5.344e-20)
(-0.25 0.03482 -4.918e-21)
(1.001 -0.0001579 -5.264e-21)
(0.9956 -0.001952 2.206e-20)
(1.06 -0.1423 1.129e-21)
(0.9825 -0.136 0)
(-0.03181 0.004553 -2.941e-20)
(0.9997 -0.001514 5.125e-21)
(0.4172 -0.04922 -2.298e-22)
(1.003 0.004473 0)
(1.276 0.5875 0)
(0.9923 -0.1236 -9.171e-22)
(0.2099 -0.02113 5.442e-21)
(1.074 -0.1193 -3.113e-21)
(0.5566 -0.1098 -3.53e-23)
(0.6027 -0.08643 0)
(-0.1054 0.03093 2.554e-20)
(1.086 -0.1199 4.495e-21)
(1.002 -0.002556 5.187e-21)
(1.01 -0.002655 1.014e-20)
(-0.0992 0.02345 4.039e-21)
(0.8687 -0.1599 1.77e-22)
(-0.1687 0.05912 -9.223e-22)
(-0.1098 0.03532 0)
(0.1479 -0.009488 1.689e-25)
(-0.08969 0.02922 -7.095e-21)
(-0.0137 0.004479 -1.843e-20)
(-0.2207 0.03607 8.702e-21)
(0.7156 -0.2012 0)
(-0.1068 0.001212 -3.585e-20)
(0.5348 -0.05771 -4.611e-22)
(0.2012 -0.02675 0)
(0.848 0.4101 1.563e-21)
(0.0618 0.0001494 0)
(1.002 -0.006605 4.424e-21)
(-0.2196 0.0441 2.246e-20)
(-0.05587 0.001059 5.512e-22)
(0.3264 -0.05388 0)
(0.9972 5.712e-05 3.62e-21)
(0.3958 -0.2551 6.14e-21)
(-0.1344 0.03464 0)
(0.9973 -0.09457 3.661e-22)
(0.9075 -0.2499 3.502e-22)
(-0.1678 0.02436 -4.083e-22)
(1.055 -0.1245 -3.607e-21)
(-0.1568 0.0348 0)
(-0.06918 0.0182 3.091e-21)
(1.002 -0.09544 1.092e-21)
(-0.1279 0.04053 -6.906e-23)
(0.5364 -0.1476 -1.822e-21)
(-0.01388 -0.01479 1.049e-21)
(1.001 -0.0003731 0)
(1.144 -0.07787 -3.934e-21)
(-0.2258 0.04188 0)
(0.9965 -0.008209 0)
(-0.2249 0.04766 0)
(-0.1956 0.02631 2.651e-21)
(0.9988 -9.181e-06 2.112e-21)
(0.9673 -0.1998 1.078e-21)
(-0.06108 0.01194 0)
(1.018 -0.02131 0)
(0.8672 0.4113 -7.58e-21)
(0.1189 0.001595 0)
(0.02392 -0.01309 0)
(1.013 -0.1343 -3.12e-21)
(1.004 2.571e-05 -1.393e-22)
(-0.2095 0.05001 -2.299e-22)
(-0.1611 0.04571 -5.326e-22)
(1.011 -0.00252 2.654e-20)
(0.924 0.3686 9.135e-22)
(1.054 0.08066 8.283e-21)
(-0.1576 0.04153 3.537e-21)
(-0.1841 0.04825 -9.477e-21)
(1.017 -0.1727 -6.891e-22)
(1.042 -0.03165 0)
(-0.02548 0.005013 -5.154e-22)
(-0.003824 0.001294 5.836e-22)
(0.5948 -0.1262 -6.871e-23)
(0.735 -0.1172 -9.52e-22)
(-0.1367 0.04498 -1.805e-21)
(0.09849 -0.007863 0)
(0.9927 1.742e-05 -3.548e-21)
(0.8184 -0.08768 2.563e-21)
(1.004 0.005807 2.908e-22)
(-0.1564 0.04601 0)
(0.5904 -0.2632 -4.952e-21)
(-0.2359 0.04315 0)
(0.9073 -0.2493 3.139e-21)
(0.001589 -0.01333 -5.697e-22)
(-0.09394 0.01422 0)
(0.9993 0.002597 -1.193e-20)
(-0.004357 0.001606 0)
(-0.06995 0.02248 0)
(-0.1068 0.03124 7.05e-21)
(1.083 -0.09177 3.768e-21)
(0.6808 0.2443 0)
(-0.09013 0.02344 -2.471e-21)
(0.05881 -0.03452 7.875e-21)
(0.2545 -0.01856 0)
(1.031 -0.1433 0)
(0.8827 0.01707 -8.232e-20)
(0.01539 -0.0007948 5.675e-22)
(-0.1946 0.06548 1.242e-21)
(0.6369 -0.04452 0)
(0.4529 -0.09601 -2.507e-22)
(0.8288 -0.1269 0)
(0.46 -0.266 -1.005e-20)
(0.001416 -0.01313 2.539e-21)
(-0.06152 0.02147 3.009e-22)
(0.9933 -0.1687 -1.962e-22)
(-0.158 0.0529 0)
(0.4772 0.05179 0)
(0.5145 -0.06265 1.984e-21)
(0.5772 -0.05938 -1.603e-21)
(0.4993 -0.04167 0)
(-0.01238 0.004459 0)