/*--------------------------------*- C++ -*----------------------------------*\
  =========                 |
  \\      /  F ield         | OpenFOAM: The Open Source CFD Toolbox
   \\    /   O peration     | Website:  https://openfoam.org
    \\  /    A nd           | Version:  8
     \\/     M anipulation  |
\*---------------------------------------------------------------------------*/
FoamFile
{
    version     2.0;
    format      ascii;
    class       surfaceScalarField;
    location    "45";
    object      phi;
}
// * * * * * * * * * * * * * * * * * * * * * * * * * * * * * * * * * * * * * //

dimensions      [0 3 -1 0 0 0 0];

internalField   nonuniform List<scalar> 
94454
(
-7.274e-05
7.274e-05
0.0001244
-0.0001244
-8.891e-05
8.891e-05
-6.507e-05
6.507e-05
8.193e-05
-8.193e-05
-7.713e-05
7.712e-05
0.0002299
-0.0002505
2.062e-05
-0.003203
0.01074
-0.007536
2.077e-05
0.0009326
-0.0009534
-0.001247
0.0006022
0.000645
0.0007403
-0.0005121
-0.0002281
0.01884
-0.03208
0.01324
-0.000438
-0.0008092
0.0005664
-0.0003254
-0.000241
0.01189
0.01101
-0.0229
0.0002385
0.0003278
-7.26e-05
0.0009209
-0.0008483
0.001203
-0.003338
0.002136
-0.0002526
-0.003881
0.004134
0.0004242
0.0003161
-0.001251
0.001527
-0.0002762
-0.01336
-0.02981
0.04317
1.083
-0.1295
-0.953
0.001862
-0.001433
-0.0004292
-0.1444
1.227
0.01222
-0.007753
-0.004472
-0.3112
0.0206
0.2906
-0.002625
-0.0003735
0.002998
-0.8104
0.956
-0.1457
-0.0003454
-0.003747
0.004093
-1.287
0.4826
0.8047
-0.1168
-0.1945
-0.2763
0.5186
-0.2423
-0.05164
0.09268
-0.04103
0.0008926
0.0009698
0.1608
-0.6346
0.4738
-0.0007327
0.0005045
0.0002282
-0.0009022
0.001758
-0.0008558
-0.003632
0.003287
-0.0004787
0.000756
-0.0002773
0.1814
-0.01661
-0.1648
-0.0003979
0.0009703
-0.0005724
0.0242
0.01836
-0.04256
0.003252
-0.002049
0.6868
-0.526
-2.451e-05
-0.001226
-0.000108
-0.0002514
0.0003594
0.00457
-0.005547
0.000977
-0.001307
0.001879
-0.0005719
-1.008
-0.2795
-0.00159
0.0007895
0.0008
-1.158
0.8785
0.279
0.000252
-2.213e-05
7.13e-05
-0.0005467
0.0004754
-0.2131
0.09839
0.1147
0.0006699
0.002763
-0.003433
-0.1073
0.05948
0.04782
0.1646
-0.4409
0.02399
-0.07563
-1.256
0.09831
-0.0005368
-0.0009583
0.001495
0.01435
-0.01211
-0.00224
-0.0004212
-0.0003115
0.001148
-0.00105
-9.873e-05
0.08619
-0.1027
0.01654
-0.001255
0.0009898
0.0002648
-0.0003809
-0.001408
0.001789
-0.0005072
0.0006025
-9.529e-05
0.009969
0.0002676
-0.01024
-0.05009
-0.04016
0.09025
0.001429
-0.0004346
-0.0009944
-1.848e-05
8.763e-08
1.837e-05
-0.02745
-0.7829
0.0002598
-0.0004231
0.0001633
0.002696
-0.003968
0.001273
0.001647
-0.0004416
-0.001205
-0.009454
0.0001006
0.009354
0.000345
-0.000694
0.000349
0.007964
0.004261
0.001243
-0.0009889
-0.0002545
-0.0003321
0.0003321
0.1917
-0.01029
0.0003795
-0.0009059
0.0005264
0.0002476
0.002029
-0.002277
-0.0009739
0.0007163
0.0002576
-0.04242
0.03399
0.008431
-0.005069
0.002148
0.002921
-0.003318
0.00108
0.002238
1.035
-1.208
0.1736
-0.0007989
0.0003749
0.000424
-0.0006805
0.001371
-0.0006908
0.1171
-0.1409
0.02382
-0.002175
-0.001143
-0.1206
-0.006872
0.1275
-0.0004921
-0.0007624
-0.0008988
-0.00606
0.006959
-0.0005032
0.0005746
0.0008609
-0.0008401
-0.006956
0.08296
-0.07601
0.0004783
-0.0006532
0.0001748
-1.467
1.196
0.2706
-1.465
1.195
0.2704
-0.1663
0.1333
0.03294
0.2072
-0.03948
-0.1678
-0.05833
0.04838
0.009948
0.02381
-0.06188
0.03807
0.02635
-0.008062
-0.01829
0.003133
-0.0007186
-0.002415
0.04525
-0.02641
-0.2078
-0.005271
-0.05966
0.2002
-0.1405
-0.0004283
-0.0005456
0.004031
-0.002426
-0.001605
0.02199
0.004354
-0.0006328
0.0001651
0.0004677
-0.4707
0.2199
0.2509
0.00144
0.0002067
-0.0005467
0.0009262
-0.04294
-0.07767
-0.02359
0.019
0.00459
0.2279
-0.02067
0.0006677
0.0005757
0.001213
0.0005854
-0.001799
0.195
-0.9656
0.7706
-0.000299
0.000831
-0.000532
0.002694
-0.001268
-0.001426
-0.0002553
0.00121
-0.0009552
0.0008809
-0.0005145
-0.0003664
0.116
-0.02983
0.0001091
-0.0005632
0.0004542
-0.0002609
0.00169
-0.001429
-0.01029
0.0004897
0.009796
-0.06038
0.09499
-0.0346
-0.08914
0.03905
0.0002337
-0.0005635
0.0003298
-0.001143
-0.001186
0.00233
-0.001091
-8.145e-06
0.001099
0.8678
0.1668
0.001482
-0.001749
0.0002672
-0.3866
-0.444
0.8305
0.0008968
0.001556
-0.002453
-0.5373
-0.3458
0.8831
0.0434
-0.01921
0.004612
-4.162e-05
-0.09224
-0.1633
0.2556
0.04833
0.1193
-0.1676
-0.07785
-0.1005
0.1784
0.001973
-0.001462
-0.0005104
0.1654
-0.04833
-0.002635
0.005927
-0.003293
-0.01047
-0.01312
0.001089
0.001556
-0.002645
-0.202
0.2352
-0.03328
-0.0006798
0.001151
-0.0004712
-0.0004243
-0.0007755
0.0012
-0.004507
0.001317
0.00319
-0.001358
-0.002171
0.003529
0.004036
-0.003366
0.0008348
0.0001813
-0.001016
0.002879
0.0002545
-0.181
0.1213
-0.003528
0.00357
-4.168e-05
0.001493
0.000152
-0.001645
-0.001346
0.0008654
0.0004806
-0.8474
0.3101
-0.2551
0.131
0.1241
0.0003969
8.101e-05
-0.0004779
-0.0003668
-0.0006394
0.001006
0.1995
-0.1886
-0.0109
0.009607
-0.01281
0.09179
-0.04914
-0.04265
0.001874
0.0008198
0.000553
-0.0001562
-0.01661
0.03196
-0.01534
-0.001796
0.0006579
0.001139
0.1965
-0.1482
-0.005994
0.01788
-0.4994
-0.9673
-0.4988
-0.9664
-0.01161
0.00216
-0.001284
0.001046
0.0002383
-0.004826
-0.000243
0.002727
0.001303
-0.001218
0.0009365
0.0002814
0.0005763
0.001396
0.001359
-0.0009271
-0.0004321
-0.001713
0.001323
0.0003903
-0.001833
-0.02757
0.02941
-0.000553
-0.0009561
0.001509
0.2904
-0.3996
0.1092
0.3829
0.1353
-0.5182
-0.1162
-0.05006
-0.1887
0.2595
-0.07078
0.439
-0.8256
-0.001873
0.002403
-0.0005307
0.05999
0.0318
0.0005815
-0.0008806
0.1097
-0.1166
-0.0002876
0.001425
-0.001138
0.9367
-0.6995
-0.2372
0.0002148
0.0009336
-0.001681
0.001181
0.0005003
0.00722
-0.005522
-0.001698
-0.08742
-0.01988
0.01521
-0.02072
0.005502
0.2443
-0.2559
0.01157
0.006921
-0.005843
-0.001078
0.0003229
0.0008917
-0.001215
-0.001164
0.001291
-0.0001271
0.004647
0.002274
-0.02328
0.02144
0.01253
-0.07291
-0.5096
0.03886
-0.002246
0.01746
-0.004866
0.003849
0.001017
-0.002563
0.002542
2.156e-05
0.1102
0.4883
-0.5985
0.0006542
-0.001335
-0.0003575
-0.0002637
0.0006212
-0.001529
-3.366e-05
0.001563
0.001386
0.008583
-0.001422
0.000885
-0.001369
0.0002782
-0.001184
0.0002282
0.0009562
-0.6738
0.8688
0.006878
-0.01067
0.003795
-0.004001
0.003749
-0.01288
0.0006623
0.01222
-0.01077
-0.007632
0.0184
-1.277
1.439
-0.162
0.5738
-0.1909
0.001159
-0.002349
0.00119
-0.05844
0.04508
-0.02237
-0.1796
0.6985
-0.6527
-0.04576
-0.0004499
-0.0001488
0.0005988
0.05121
-0.05517
0.003964
-0.01258
-0.1313
0.1439
0.0007935
-0.0005797
-0.0002138
0.05885
-0.2475
-0.001584
0.0008633
0.0007205
-0.001457
0.003267
-0.001809
-0.02046
0.008693
0.01177
0.0009149
0.0003531
-0.001268
-0.002864
0.002483
0.001148
-0.001447
0.0002993
0.3511
-0.9429
0.5918
0.1215
-0.001859
-0.1196
-1.54
0.1226
1.417
0.005482
0.008867
0.03091
-0.01638
-0.01453
1.418
-0.2689
-1.149
0.0001673
-0.0005766
0.0004093
0.0006185
-0.0003885
-0.00023
0.0006438
-4.693e-05
-0.0005969
-0.0007209
-0.0006251
-0.0009281
9.023e-05
0.0008379
-0.1256
0.2572
-0.1316
-0.1002
0.08367
0.01652
0.0006948
-0.0006112
-8.355e-05
0.0008163
-0.001719
3.101e-05
-0.001382
0.001351
-0.001197
0.001014
0.0001829
0.02989
-0.01696
-0.01292
0.00159
-0.002331
0.0007409
-0.2841
0.2288
0.05532
0.0003993
0.0002192
0.1174
0.004033
1.196
-0.8182
-0.3779
-0.1452
-0.1099
-0.0004045
0.00121
-0.0008055
0.003701
-0.000334
-0.003367
-0.001331
-0.0002525
-0.4345
0.7856
0.0007924
-0.0009143
0.0001219
0.001044
-0.0002587
-0.0007854
0.0606
-0.1774
0.00357
-0.0008741
-0.04549
0.0693
0.04767
0.2452
-0.2928
-0.000175
-0.0002666
0.0004416
1.527
-0.9025
-0.6245
0.009934
0.00369
-0.01362
-0.0008615
-2.618e-05
0.0008877
0.0006423
-2.736e-05
-0.000615
-0.107
0.1008
0.006257
0.001125
0.0009111
-0.002036
-0.8035
-0.736
0.002713
0.001133
1.409e-05
-0.001147
0.1123
0.05633
-0.1686
0.001227
-0.001402
0.0001746
0.001187
-0.002567
0.001379
-0.7902
0.1129
0.6772
-0.7887
0.629
0.1597
0.00135
-0.01164
-0.0008317
-0.0009335
0.001765
0.1349
-0.2062
0.07137
1.475
-0.6506
-0.8239
-0.001825
0.002945
-0.001121
0.0004224
-0.00064
0.0002177
-0.000906
-2.211e-05
-0.003521
0.003341
0.0001801
-0.1436
0.1012
0.0424
1.402
-1.279
-0.1228
0.00061
-0.001965
0.001355
0.3137
0.5217
-0.8354
0.002693
-0.00315
0.0004573
0.4927
-0.001188
0.001431
-0.0002425
-0.02955
0.1644
0.9746
0.1613
-1.136
-0.0005478
0.0002157
0.3922
1.026
0.000493
-0.0018
0.3938
0.3047
-0.001853
-0.003013
-0.1662
0.007361
0.1588
-0.2796
0.1874
0.000463
0.0009623
-0.001425
-0.0004317
-0.001282
-0.0005008
-0.00118
0.0005529
0.00026
-0.0008129
0.001003
-0.001076
0.0005327
-0.0009306
0.001038
-0.0007412
-0.0002965
-0.6007
0.9143
0.001524
-0.001003
-0.0005211
0.1054
-0.1922
0.08686
-0.000612
-0.0006059
-0.1247
0.03589
0.08886
-0.3429
-0.9344
-0.1529
0.075
-0.002363
-0.005254
0.007617
-0.0005731
-0.0006113
-1.043
0.128
0.9152
1.109
-0.9015
-0.2071
-0.001364
0.0005448
0.000819
0.0003683
-0.0008182
-0.0009332
0.0005757
-1.164
0.121
-3.221e-05
-0.005387
0.005419
0.1829
-0.2396
0.05661
1.031
0.4431
-2.909e-05
-0.0004781
-0.07748
-0.04727
-0.9836
-0.4041
1.388
-0.05039
-0.007945
0.01511
-0.002368
-0.01274
-0.03123
0.08764
-0.05641
0.002628
-0.003263
0.0006349
0.005018
-0.01005
0.005036
-0.001119
-6.974e-05
0.05431
0.007087
-0.0614
0.7465
-1.071
0.3248
0.001774
-0.0002927
-0.005414
0.004739
0.0006749
0.002265
-0.00414
0.001875
1.077
0.4502
-0.02478
0.7713
0.02363
0.006261
0.0006396
-0.00119
0.0005509
-0.0004952
0.0008642
-0.000369
0.004358
-0.007474
0.003116
0.001486
-0.001257
-0.0002296
-0.1514
-0.2002
0.3516
1.055
-0.04479
-1.01
-0.002396
0.009275
-0.001421
0.003686
0.0007546
-0.0008546
0.0001001
0.0004294
0.0002804
-0.0007098
-1.119
-0.3841
1.503
0.02299
0.007924
-0.001779
0.0013
0.0004789
-0.002704
0.0007641
0.00194
1.252
-0.2776
-0.002008
0.002282
-0.0002743
-0.0005245
-0.0008925
0.001417
-0.0001468
0.0004066
0.0001731
-0.0006371
0.000464
0.0008493
-0.001105
0.001552
-0.002705
0.001153
-0.003761
0.0002329
0.003385
-0.006452
0.003067
-0.001167
-0.004247
-0.06659
0.02417
0.0001937
-0.001684
0.001491
0.0002201
0.0004341
-0.0006542
-8.887e-07
0.001453
-0.001452
0.1024
0.3744
-0.4768
-1.509
0.525
0.001172
-0.001409
0.0002374
-0.3855
-0.6335
1.019
-1.191
0.8056
-0.1579
0.06504
0.09286
-0.000223
-3.803e-08
0.000223
-0.1632
0.1693
-0.006104
0.003082
0.0006123
-0.003694
-0.00429
0.004184
0.0001059
-0.002934
0.004251
-0.003081
0.0003777
-7.393e-05
-0.001023
0.001097
0.2819
0.5868
-0.8687
-0.0002858
-0.001244
1.028
-0.7465
-0.005163
0.001357
0.003807
0.1728
1.023
0.5597
0.842
-0.004654
0.001314
0.00334
-1.496
0.3765
9.958e-05
0.0005952
0.002401
-0.000908
0.00113
0.0003873
-0.001518
0.1382
-1.019
0.8812
-0.277
-0.7165
0.8547
-0.004348
0.001078
0.00327
-0.00458
0.006357
-0.001777
-0.8018
-0.2695
0.002431
-0.002184
1.081
0.08681
-1.168
0.2726
-0.212
0.07424
-0.1316
0.05739
0.04489
-0.8467
-0.0002488
0.0005571
-0.0003083
-0.0009761
-0.001189
0.002165
0.0005627
0.0003317
-0.0008945
-0.2167
0.8398
-0.6231
-0.0004415
0.00252
-0.002079
-0.2412
-0.01438
0.2555
0.0006345
0.0007247
0.6921
0.4736
-1.166
-0.0005524
-0.0003474
0.0008999
-8.624e-05
-6.581e-05
0.000152
0.1838
-0.05244
-0.1314
-0.00986
0.01008
-0.0002201
-0.0006611
-0.0008125
0.001474
0.0002928
0.0001176
-0.0004104
0.005843
-0.00647
0.0006275
0.002282
-0.000436
-0.001846
0.0007258
-0.0007258
-0.3415
0.1959
0.1456
0.001361
-0.0008371
-0.000524
-0.0006479
0.00116
-0.000512
0.001083
-0.0009793
-0.0001038
-0.1189
1.2
-0.0008817
4.99e-05
0.0008318
0.0001027
-0.0001027
0.09922
-0.07372
-0.0255
0.002215
-0.001671
-0.0005435
1.094
-1.518
0.424
1.313
-1.734
0.4215
-0.04562
0.09309
-0.04747
-0.0009582
0.0004115
-0.007929
0.008856
-0.0009266
0.04103
-0.09332
0.05229
-0.0007215
9.376e-05
0.0006277
0.0008089
0.001185
-0.001994
0.2521
-0.007721
0.08658
-0.04555
0.001033
-0.003261
0.002228
0.0004039
-0.0001116
-0.0002923
-0.3349
0.1216
0.2133
-0.0008239
-0.0009554
-0.05273
0.3432
-0.4774
-0.5494
1.027
0.2405
-0.0001401
-0.2403
0.0001546
-0.002638
0.002484
0.0009675
-0.0002621
-0.0007054
-0.002322
0.002138
0.0001842
-0.4103
1.368
-0.9576
-0.0004019
0.0005928
-0.000191
-0.3001
1.334
-1.034
-0.000761
-0.001033
0.001794
0.001336
0.003404
-0.00474
0.000978
0.0004856
-0.001464
-0.08859
-0.05496
-0.459
0.2213
0.2377
0.003239
-0.001227
-0.002012
-0.001821
0.001386
0.000435
-0.0006067
6.831e-05
0.0005384
0.0008301
-0.0003446
-0.0004855
0.0003719
0.0004583
0.1383
-0.5793
0.4411
-0.3813
0.09854
0.2828
-0.1853
0.05323
0.1321
0.008444
-0.009632
0.001188
0.0007387
-0.001305
0.000566
0.0008712
-0.0008712
-0.00296
0.004451
-0.001491
-3.764e-05
0.000516
-0.3212
0.4236
0.5939
0.2171
-0.811
0.005225
-0.0009627
-0.004262
-0.1883
1.178
-0.9902
0.0003519
0.000827
-0.001179
-0.002722
-0.005515
0.008238
0.002291
-0.003088
0.0007966
0.7866
-0.6764
-0.009063
0.003046
0.006017
0.0006023
-5.679e-05
-0.0005455
-0.005221
0.001968
0.003253
-0.001074
0.001668
-0.0005934
-0.0009384
-0.0001947
0.001133
0.002325
-0.001919
-0.0004063
0.0006972
-0.0005306
-0.0001666
0.2516
-0.3148
0.06318
-0.0003197
6.925e-05
0.01955
-0.1181
0.09856
-0.0008515
0.0008515
-0.1652
-1.043
1.208
1.259
0.231
-1.49
-0.0002422
0.002457
-0.0007014
0.0009294
-0.000228
-0.001162
-0.004529
0.005691
0.003835
0.00542
-0.009255
-0.1881
0.05752
0.1306
-0.005244
0.001175
0.004069
0.8097
-1.137
0.327
-0.00102
0.00102
0.1668
0.562
-0.7288
-1.279
1.114
0.2396
-0.4228
0.1832
-0.003413
0.002362
0.001052
-0.01157
-0.002358
0.01393
0.7784
-0.9448
0.1664
0.001474
-0.0007124
-0.0007621
0.479
-0.1384
-0.3407
0.0004036
-0.0009264
0.0005228
-0.01725
0.005582
0.01167
0.006488
-0.003388
-0.003099
-0.0003011
-0.001089
0.00139
-0.001056
-0.0004901
0.001547
0.001967
0.0004094
-0.002376
0.1508
0.6467
-0.7975
0.004286
0.06718
-0.07146
-0.0002151
-0.001145
0.00136
0.00175
-0.00125
-0.0005001
-0.001481
0.0009136
0.0005676
0.0005273
0.0003288
-0.0008561
0.004698
-0.006584
0.001886
0.4787
-0.357
-0.1217
-0.001034
-4.23e-06
0.001038
0.4953
-1.093
0.598
-0.0007909
0.0002927
0.0004982
-0.002656
0.000698
0.001958
0.001844
-0.00083
-0.001014
0.001492
0.007085
-0.008577
-0.001304
-0.001352
-0.0009392
-0.0001593
0.001098
-1.176
0.5398
0.6359
0.1308
0.05368
-0.1844
-1.248
1.248
0.001734
0.00263
-0.004364
0.06537
-0.05236
-0.01301
0.006958
-0.00226
0.01299
-0.009958
-0.003035
-1.267
0.5225
0.7441
0.4062
-0.2581
-0.1481
-0.008822
0.005133
0.00369
-0.002065
-0.02964
0.0317
-0.001712
-0.0008383
0.002551
-0.0487
-0.05301
0.1017
0.0003424
0.001181
0.0005125
-0.001898
0.001386
-0.3924
1.244
-0.8519
0.0003484
-0.001594
0.001246
0.3535
-0.00952
-0.344
-0.001318
0.001291
2.702e-05
0.0005247
0.001319
-0.5588
0.2202
0.3386
-0.001886
-0.0002378
0.002124
-0.0004059
0.0005149
0.00235
-0.001627
-0.0007229
-0.009704
0.02512
-0.01541
0.000786
0.0003053
-0.001091
0.001921
-0.001589
-0.0003317
0.0003078
0.0005566
-0.0008644
0.002619
-0.001908
-0.0007111
-0.000571
-0.0007287
0.0013
-0.001697
0.0008809
0.000816
-0.02226
0.007111
0.01515
0.00118
0.0004646
-0.001644
-0.006118
0.01605
0.001135
-0.001576
0.000441
-1.272
0.5152
0.7567
0.553
-0.7874
0.2344
-0.1963
-0.01193
0.2082
0.07555
0.2803
-0.3558
-0.000498
0.001866
-0.001368
0.0006077
-0.003087
0.00248
0.002762
-0.002312
-0.0004502
-0.001447
-8.712e-06
0.001456
-0.000295
-0.0007035
0.0009985
-0.01563
0.0334
-0.01777
-0.002772
5.875e-05
0.002713
0.001488
0.005158
-0.006646
-0.00535
0.002473
0.002877
-0.00298
-0.0006564
0.003637
-0.008292
-0.0202
0.0285
0.4243
0.05476
0.001366
-0.000985
-0.0003805
-0.9798
-0.2761
-0.001568
0.001776
-0.0002075
0.001083
-0.1122
-0.03244
0.1447
0.03743
-0.06866
0.04605
-0.1953
0.1493
0.001023
-0.001023
0.006045
-0.0002019
-0.003368
0.002909
0.0004587
0.6751
0.1794
-0.8545
-0.9758
-0.1963
1.172
-1.074
-0.5879
-1.076
-0.5921
0.001817
-0.000227
-0.002185
0.0004899
0.001695
0.0009249
-0.0009249
-0.0004572
-0.002847
0.003305
5.282e-05
0.0547
-1.03
0.002182
-0.001051
-0.001131
0.0008334
-0.0008334
0.0004809
-0.0004809
0.001344
-0.00549
0.004146
0.002406
-0.001528
-0.0008785
-0.0005383
0.0005384
0.1945
-0.7672
0.5727
-0.0006543
0.001329
-0.0006746
-0.0004097
-0.0002327
0.0006424
-0.3903
1.187
-0.797
0.0003841
8.968e-05
-0.0004738
-0.001072
-0.00091
0.001982
0.001872
-0.000133
-0.001739
-0.5039
-0.3738
0.8777
-0.0002772
0.003846
-0.003569
-0.1126
0.1322
0.0002811
0.001499
-0.00178
-2.919e-05
0.0002247
-0.0001955
-0.003833
0.005838
-0.002005
-0.002565
0.005712
-0.003147
-0.001015
0.0001091
-0.01493
0.008043
0.006883
-0.00192
3.429e-06
0.001917
0.0002267
0.0001038
-0.0003305
0.6399
-0.3854
-0.2546
0.000672
-0.001181
0.0005085
0.4302
-0.5594
0.1293
-0.003335
-0.0002663
0.003601
0.0362
0.293
-0.3291
0.265
0.8377
-1.103
-0.0002063
0.0005528
-0.0003465
-0.00125
0.001114
0.0001362
-0.5425
0.8074
-0.2649
-0.1374
0.1257
0.01172
-0.8763
0.8416
0.03473
0.2916
0.4147
-0.7062
-0.3022
-0.9456
0.3929
-0.2186
-0.1743
-0.01662
0.005055
1.432
-1.432
0.0005763
-0.0008712
-0.008228
0.02665
-0.01842
-0.001965
0.001091
0.0008744
0.002364
-0.001177
0.0005057
-0.001587
0.001082
7.753e-05
0.001537
-0.001614
0.8709
-0.4585
-0.4123
-0.001
0.0005357
0.0004644
-0.08345
0.3242
-0.2407
-0.0008677
0.0008677
0.001186
-0.0002825
-0.0009033
0.001406
-0.001656
0.0002502
1.522
-1.094
-0.428
1.073
0.4486
0.1023
-0.04586
-0.05639
0.001096
0.00125
-0.002346
0.003428
-0.005592
0.002164
0.002982
-0.0005984
-0.002383
-0.1907
0.1436
0.04705
-0.0004114
-0.00317
0.003582
-0.001078
0.0009253
0.0001524
0.04734
-0.003942
-0.005881
-0.0009893
0.000573
0.001608
-0.002181
-0.000526
0.001521
-0.0009945
-0.1894
0.0772
0.00116
-0.0004343
0.06672
-0.001353
-0.002323
0.001934
0.0003886
-0.3107
0.1046
0.2061
0.001779
1.916e-05
-0.001798
-0.1503
0.8527
-0.7024
-0.001744
0.0006513
0.001093
0.0007032
-0.0007032
0.0002697
6.352e-05
-0.0003332
0.0003663
0.004859
-0.5455
-0.9645
1.51
0.0001128
0.000383
-0.0004958
0.3335
-0.5506
0.2171
0.002595
-0.009362
0.006767
-0.002633
0.002743
-0.0001098
-0.000531
0.000143
0.000388
0.003637
0.02296
-0.02659
-0.0008153
0.0006842
0.0001311
-0.0008756
-0.0004881
1.398
-1.143
-0.2556
1.085
0.3128
-0.0004181
0.001286
-0.0008683
-9.459e-05
0.0003078
-0.0002133
-0.0005443
0.0008049
-0.0002606
-0.0006079
0.001239
-0.0006315
0.3025
-0.2437
-0.03711
0.08327
-0.04616
0.1451
-0.1898
0.04464
-0.7042
0.2923
0.4119
-0.8007
0.584
-0.0007658
0.0007658
-0.02195
-0.3713
0.3933
4.652e-05
0.0002988
-0.0003453
0.003576
-0.006951
0.003375
0.0008329
-0.001335
0.0005022
-1.067
-0.09689
1.164
0.0002074
-0.0001822
-2.522e-05
-0.0002558
0.0003796
-0.0001238
-0.2239
0.3041
-0.0802
-0.0005769
-0.0001703
0.0007472
0.0001819
-0.0001605
-2.141e-05
0.03244
-0.01329
-0.01915
-1.319
0.857
0.4624
0.3912
0.7031
-1.094
1.43
-1.43
-0.006892
0.007806
-0.0009137
0.4922
0.4543
-0.9464
-0.554
0.4086
0.1454
0.0005581
-0.0006795
0.0001214
-0.2884
1.022
-0.7341
0.0003632
0.002996
-0.003359
0.0007506
0.008005
-0.008755
0.2072
0.04636
-0.2536
1.238
-0.5456
-3.76e-06
7.135e-05
-6.759e-05
-0.002681
0.002107
0.0005741
4.997e-05
-0.001558
0.001508
-0.05694
-0.04719
0.1041
-0.00118
-0.00535
0.00653
-0.0139
0.01628
-0.002383
-0.4983
0.9937
0.004364
-0.001211
-0.003154
-0.09453
0.02534
0.06919
0.001126
-0.0006333
-0.0004932
-0.02895
-0.07125
0.09938
-0.6841
0.5847
0.003607
-0.004042
0.000435
0.001581
-0.0002821
-0.001299
-0.0006816
-0.0001149
0.0007965
0.0007151
0.0006504
0.3359
0.4932
-0.8291
-2.375e-05
-0.0007872
0.000811
0.0009104
-0.0009104
-0.001486
0.0005143
0.0009714
-0.03802
0.05877
-0.02075
-0.001695
-0.0001295
-1.735e-05
-0.0001718
0.0001892
-0.001194
0.0001671
0.001027
-0.7397
1.182
-0.4422
-0.07074
-0.2255
0.2962
0.001089
0.001017
-0.002106
0.4375
-0.1581
-0.2793
0.6472
-0.751
0.1038
-0.0113
0.006431
0.004873
0.5796
0.1825
-0.7622
0.0009559
1.158e-05
0.2842
-0.06689
-0.2173
-0.0008422
-0.0008546
0.5306
-0.5663
0.03562
0.001387
0.0003635
0.0002541
-0.000547
0.000293
0.001395
0.003546
-0.004941
-0.002392
0.001246
0.001146
-0.02023
0.1439
-0.1237
-0.0004423
0.0004602
-1.78e-05
0.0002231
-0.0007495
0.0005265
0.001142
0.0003323
-0.0001263
-0.000198
0.0003243
0.000513
0.0003298
-0.0008428
0.01869
-0.03802
0.01932
-0.0005099
0.00171
-0.0012
-0.002661
0.00702
-0.002376
0.000651
0.001725
0.01075
0.04046
-0.4662
0.6583
-0.1922
0.0009197
-0.0009197
0.0008276
9.733e-05
0.00653
-0.004811
-0.001719
-1.41
0.9329
-0.000824
-0.0001009
-0.001905
0.0004359
0.001469
0.00515
0.01149
-0.01664
-0.002021
0.001472
0.0005484
0.01204
-0.05416
0.04211
-0.8432
0.08277
0.7604
0.001068
-0.001013
-5.424e-05
0.001096
-0.001538
0.0004421
-0.002885
0.002182
0.0007025
-0.001517
-0.0006239
0.002141
0.1532
-0.7428
0.5896
0.002188
-0.002363
0.0001744
-0.004634
0.003062
0.001571
0.0009793
-0.0004031
-0.003401
-0.05504
0.002342
-0.001906
-0.0004353
-0.0007668
-0.0004374
0.001204
0.4937
-0.4586
-0.03511
-0.04505
0.05483
-0.009782
-0.9654
0.5731
0.002191
0.000734
-0.002925
-0.001931
-0.001691
0.003622
0.001355
-0.001029
-0.0003261
-0.007538
0.005126
0.002412
0.6101
0.3813
-0.9914
-1.536
0.3602
-0.005239
-0.0008405
0.006079
-1.002
1.51
-0.5078
-0.000638
-0.0008195
0.001457
0.002981
0.9039
-0.9069
1.11
-0.02682
-1.083
-0.1272
0.07711
0.05006
0.0001236
-0.0009858
0.0008622
0.06731
-0.013
0.0001413
-0.0001413
0.0007101
-0.007727
0.007017
-0.003962
8.133e-05
0.00388
0.0007812
-0.0006931
-8.817e-05
0.007346
-0.005504
-0.001843
0.2055
-0.08756
-0.1179
-0.0001729
-0.0004039
-0.006801
0.006576
0.0002253
-0.0001407
0.001354
-1.361
0.989
0.3718
0.000351
0.0007153
-0.001066
-0.001061
-0.000425
-0.0008707
0.0008707
-0.001566
0.0009611
0.0006049
-0.03165
-0.01839
0.05005
-0.001088
-0.0007489
0.001837
0.0005996
-0.0005996
-0.882
1.262
-0.3801
8.854e-05
0.0003153
-0.0009423
0.002266
-0.001324
-1.217
0.9171
0.0001622
-0.001034
0.0008718
-0.0008033
0.001258
-0.0004548
0.9601
-0.1504
0.001607
0.0005537
-0.00216
-0.002153
0.001687
0.0004664
0.01869
0.003307
-0.3097
0.0878
0.2219
0.001459
-0.0009616
-0.0004969
-0.000361
0.0006505
-0.0002895
-0.001949
0.001126
0.0008228
0.0001066
0.000201
-0.0003076
-0.0008326
0.0001663
0.0006663
1.481
-1.067
-0.4136
-0.0001361
-0.0001251
0.0002612
0.0005264
-0.002538
0.002011
-6.296e-05
0.002756
0.0009733
-0.00196
0.0009863
0.1453
-1.116
0.9708
0.002056
-0.001391
-0.0006651
0.0004161
-0.0004298
1.369e-05
-0.005095
0.0007853
0.00431
-0.003873
-0.0002199
0.004093
-0.1383
0.1095
0.02875
-0.05512
0.0216
0.03352
0.001791
-0.00704
0.005249
0.2329
-0.1868
0.002777
-0.0007863
-0.00199
-0.001319
0.001896
-0.0005766
0.001871
-0.00157
-0.0003019
-0.001827
-0.0007818
0.002608
-0.001079
-0.0004312
0.00151
7.026e-05
0.0001117
-0.01161
0.01962
-0.008014
0.001833
0.0007854
-0.004631
0.001216
0.003415
0.004939
-0.004083
-0.0008559
1.609
-0.2212
-1.388
-0.23
0.1378
0.09218
0.3592
0.3779
-0.7371
0.001429
-0.001554
0.0001247
-0.002332
0.0003768
0.001955
-0.0003356
-0.0004671
0.0008027
0.006077
0.09048
-0.09656
0.0003159
0.0005062
-0.0008222
-0.0005495
-0.0006121
0.001162
0.09311
-0.04267
-0.05044
1.202e-05
0.004712
-0.004724
0.508
-0.3555
-0.1525
3.016e-05
-0.001306
0.001276
0.001772
-0.001755
-1.684e-05
-0.002486
-0.002758
-0.000597
-0.0004003
0.0009974
0.001035
-0.001885
0.0008493
0.006329
-0.007228
-2.418e-05
6.86e-06
1.732e-05
-0.1391
0.2993
-0.1601
8.815e-05
0.001139
0.002753
-0.0008975
-0.001856
-0.8527
0.9988
-0.1461
-1.378
1.109
0.2694
-0.009563
0.0003181
0.009245
-0.02252
0.06107
-0.03855
-0.9252
-0.2347
1.16
-0.02485
0.01662
0.007283
-0.0007521
1.342
-0.4872
-0.8551
-0.002717
0.007844
-0.005127
-0.4508
0.4174
0.03341
0.05236
-0.1139
0.06158
0.002169
0.001039
-0.003208
0.06084
0.08687
-0.1477
0.001059
-0.001598
0.0005392
-0.03794
0.02374
0.01421
-0.001344
-0.0006682
0.002012
-0.0007637
0.0002231
0.0005406
0.0009201
-0.0009201
-0.1856
0.1825
0.003042
1.236
-0.7443
-0.002239
-0.000351
0.00259
-0.3895
0.396
-0.006553
-6.867e-05
0.000311
-0.0002423
0.00119
8.008e-05
-0.00127
-1.061
-0.7671
1.828
-1.055
-0.7626
1.818
-0.001039
-0.0004424
0.000648
-0.000303
0.02979
-0.02392
-0.00587
0.005522
0.001824
0.09513
-0.747
0.6519
-0.0009564
0.00109
-0.0001331
0.0009808
-0.001716
0.000735
-0.002608
0.002366
0.0007424
-7.559e-05
-0.0006668
0.002385
-0.00346
0.001074
-1.252
-0.01434
0.0006672
-0.003627
-0.0009181
-0.0005296
0.001448
0.0009438
-0.001245
-0.001031
-0.000176
0.001207
0.0003239
-0.0004482
0.0001243
0.0141
0.001066
-0.01517
-0.1442
1.238
0.08397
1.229
0.0008114
-0.001458
0.0006468
-1.197e-05
0.000471
-0.000459
0.3982
0.6156
-1.014
0.01462
0.1926
-0.0005122
-0.0004277
0.0009399
-0.619
0.8747
-0.2557
0.000675
-0.0001932
-0.0004817
0.001667
-0.000485
-0.001182
0.004688
0.01042
0.001049
0.001133
-0.03313
0.01041
0.02272
-0.0001905
-0.000223
0.0004135
0.0008617
-0.0003616
-0.0005001
0.8908
0.1901
-1.081
-0.003102
-0.0004756
0.003578
-0.004538
0.003325
0.001212
-0.001684
0.002335
-0.0006518
0.0003183
-0.001194
0.0008752
-0.004554
0.003514
0.00104
-0.0001445
-0.0004053
0.0005499
-0.00235
0.0007307
0.001619
0.0004179
-0.0003113
-8.217e-06
0.001156
-0.0004218
-0.0008627
0.003361
-0.001965
-0.001396
0.000893
-0.0001898
-0.0007033
0.002787
0.004384
-0.007171
0.1378
-0.1071
-0.03071
-0.2234
-0.5667
0.001146
-0.002335
0.00119
-0.0008663
0.0001717
0.0006947
-0.004242
-0.00864
0.0004828
-0.0004828
0.001669
0.0009058
-0.002575
0.1811
0.6866
-0.004592
-0.00447
-0.1072
-0.1006
4.778e-05
-0.0001629
0.0001152
0.003812
-0.0001111
-1.256
-0.01627
0.007588
-0.00461
-0.002978
0.0004981
0.0001943
-0.0006924
0.01323
-0.00314
-0.01009
-0.002661
-0.002503
-0.0294
0.0211
0.0008118
0.0003146
-0.001773
0.003985
-0.002212
0.5361
-0.6402
0.1041
-0.0008336
0.0008917
-5.809e-05
-0.0002618
-0.002301
-0.1656
0.153
0.001671
-0.001554
-0.0001168
-0.0008405
0.0001605
0.0006801
-0.000982
0.0002448
0.0007373
0.0006484
0.0007062
0.0007302
0.0003139
-0.001005
-1.707e-05
0.001022
-0.000402
-0.0001624
0.0005645
-0.001277
0.0002854
0.0009918
1.111
-1.108
-0.09699
-0.08806
0.1851
0.5379
-0.2209
-0.317
0.001296
0.0001326
-0.1527
-0.03667
-3.227e-05
-0.001634
0.001666
-0.0006571
0.001421
-0.0007637
0.0005285
-0.00051
-1.847e-05
0.07578
0.1237
1.307
0.302
-0.001012
0.0004045
0.00467
0.0007251
-0.005395
0.0005749
-0.001064
0.0004889
-0.0001488
-0.03872
0.03887
0.6295
0.07583
-0.7053
0.002725
-0.006042
0.003317
0.2542
-0.1215
-0.1328
0.001917
-0.002571
0.0006537
0.000334
-2.094e-05
-0.0003131
0.001719
-0.0006842
-0.001035
0.0001556
0.000599
-0.0008612
-0.0001591
-0.0002595
-0.001108
0.001368
0.01353
-0.01041
-0.003122
0.001548
0.001215
-7.635e-05
0.0009476
-0.0008712
-0.3988
0.4567
-0.05788
0.00201
-0.002344
-0.0009391
0.0008652
-0.0005978
-0.001084
0.001682
-0.0004791
-0.0002845
-0.01268
-0.2113
0.001756
0.0008754
-0.002631
0.0007236
-0.001353
0.0006298
0.3101
-0.192
-0.1181
0.002612
-0.0002433
-0.002368
0.0003534
-0.0005041
0.0001507
-0.0005508
-0.001628
0.002178
0.0007923
-0.00187
0.001077
1.537
-1.537
1.536
-1.536
-0.0009459
0.00161
-0.000664
-0.001406
0.002303
1.061
0.03081
-1.092
-0.0007342
-0.000276
0.00101
-0.09015
-0.07394
0.1641
0.2649
-0.0107
0.0003084
-0.0003084
-0.001118
0.001121
-2.721e-06
0.9193
-0.6051
-0.3143
0.001343
-0.0008463
-0.000497
0.004912
0.007431
-0.01234
-0.001802
0.0009339
0.0008681
0.9923
-0.1776
-0.8146
0.004452
-0.006028
0.001576
-0.7207
1.179
-0.4582
-0.2806
-0.9357
1.216
0.9138
-1.194
-0.6457
1.557
-0.9115
0.02228
-0.03964
0.01736
0.002761
0.0006001
-0.0001947
0.000617
0.0001792
-0.004527
-0.6555
1.573
-0.918
-0.001932
-0.0006202
0.002552
-0.001573
0.00139
0.0001834
0.004988
0.05039
-0.05538
-0.000671
-0.001041
0.001712
0.0002792
-0.0002791
-0.00188
0.001773
0.000107
-0.0001997
0.0008665
-0.0006668
-0.004332
0.001708
-0.0009829
0.0004304
-0.1583
0.1729
-0.001985
0.00113
0.0008548
-0.0007978
0.002995
-0.002197
-0.04836
0.01108
0.03728
-0.0003821
-0.0001243
0.0005064
0.3658
-0.4719
0.1061
0.3979
-0.845
0.4471
-1.193
1.3
-0.1063
-0.0009536
-0.0005989
0.001552
0.000774
-0.0005538
-0.5102
0.3546
0.1556
0.05187
0.1511
-0.2029
-0.03632
0.05468
-0.005019
-7.836e-06
0.005027
-0.0002222
-0.0001067
0.0003289
-0.001712
0.0001389
0.005621
0.008294
-0.01391
-0.000926
0.004533
-0.1076
0.213
6.575e-05
-0.0005777
0.0005119
-0.2444
0.09534
0.1491
0.1412
0.163
0.5899
0.8911
0.0002377
5.945e-05
-0.0002971
0.001161
0.0002851
-0.001446
-0.4772
0.1802
0.297
-0.03268
0.01663
0.01605
-0.0008146
-0.001578
1.143
0.0283
-1.171
0.00412
-0.006755
-0.0004075
0.0002679
0.0001396
0.314
0.467
-0.7811
-0.2187
1.11
-0.006102
0.02146
-0.01536
-0.07838
-0.008386
0.08677
0.0006563
0.0003122
-0.0009685
-0.0004118
0.0004855
-7.364e-05
0.009406
-0.008399
-0.001007
0.001161
-0.001397
0.0002356
0.01178
-0.2255
0.2137
0.0007647
0.0006493
-0.001414
0.5304
0.001183
-0.0002685
-2.294e-06
0.0003277
-0.0003255
0.0008128
-0.0008128
-0.009217
0.005515
0.003703
0.05438
0.02269
-0.07707
-0.9743
0.5506
0.4236
-0.0008253
0.0008253
-0.000617
0.00113
1.089
-1.061
-0.02816
0.2112
-0.0811
-0.1301
0.006633
-0.005141
-0.18
-0.0253
0.2053
0.001157
-0.001942
0.0007858
-0.001092
0.0007428
0.0003496
-0.0003505
0.0002579
9.26e-05
0.0006221
0.0002766
-0.0008987
0.01688
0.01556
0.0005702
-0.0005822
0.04244
-0.06084
0.0184
0.001478
-0.001711
0.0002332
-0.0008839
0.0004385
0.0004454
0.07801
0.1697
-0.2477
9.507e-05
-0.0002025
0.0001074
0.8004
-0.7339
-0.06656
-0.001145
0.001174
-2.867e-05
-0.0002616
-0.0005538
-1.225
0.5048
0.0001838
-0.0001838
-0.6105
1.577
-0.9662
0.0003035
-2.432e-05
-0.0008739
0.0007918
8.212e-05
-0.001382
0.001499
-0.0001177
0.0001599
0.0001065
-0.0002664
0.006285
0.007243
-0.001216
1.421
-0.3656
-0.0009813
-0.001405
0.002387
-0.0002108
0.0009045
-0.0006937
0.001778
0.0006786
0.0006619
-0.001625
0.0009629
0.0008722
0.0001506
0.09234
-0.2768
0.1844
-0.0003856
0.001241
-0.0008559
0.01263
0.003056
-0.01569
0.002968
-0.002392
-0.0005764
0.08238
0.1318
-0.2142
-0.002933
0.002119
0.0008145
-1.904
0.8305
0.1208
-0.2052
0.08441
-0.004285
0.0002353
0.004049
-0.0009964
0.75
-1.396
0.03853
-0.07065
0.03212
0.0001703
-0.001419
0.001248
0.7579
-1.413
0.00101
-0.001798
0.0007881
-0.008437
0.01913
-0.0107
-0.0008739
0.03036
-0.03396
0.003598
0.001
0.000111
-0.001111
-0.0002946
0.001117
-0.0008224
0.0008284
0.001057
-0.001885
-0.0005959
-0.002925
-0.0005996
0.0001247
0.0004749
0.1956
0.9465
-1.142
0.002624
-0.002345
-0.0002792
0.02044
0.1003
-0.1207
0.001184
0.001323
-0.002507
-2.401e-05
-0.0002633
0.0002873
0.002748
-0.002276
-0.000472
-0.0003821
-1.006
1.331
-0.3253
0.01434
-0.03095