/*--------------------------------*- C++ -*----------------------------------*\
  =========                 |
  \\      /  F ield         | OpenFOAM: The Open Source CFD Toolbox
   \\    /   O peration     | Website:  https://openfoam.org
    \\  /    A nd           | Version:  8
     \\/     M anipulation  |
\*---------------------------------------------------------------------------*/
FoamFile
{
    version     2.0;
    format      ascii;
    class       volScalarField;
    location    "5";
    object      epsilon;
}
// * * * * * * * * * * * * * * * * * * * * * * * * * * * * * * * * * * * * * //

dimensions      [0 2 -3 0 0 0 0];

internalField   nonuniform List<scalar> 
127143
(
138.7
92.41
334.2
270.6
112.5
283.3
370.6
98.66
153.9
94.7
390.4
141.8
848.9
268.5
17.46
18.35
119.8
0.2253
0.5628
18.91
1.263
33.73
0.2624
1.907
34.93
6.518
16.51
17.52
20.6
0.1576
2.414
6.715
47.11
6.415
0.1176
47.32
2.101
0.948
1.63
5.091
0.5611
1.496
1.264
266.6
0.2227
6.25
19.88
1.301
2.397
1.689
16.51
0.03069
2.041
0.4306
0.005447
4.369
0.005272
0.3507
0.0162
0.425
1.314
0.709
1.021
0.09658
5.246
0.8848
0.1209
1.091
1.072
0.0008448
2.046
15.58
0.7069
0.01606
0.02703
15.74
0.01927
1.653
4.266
0.1318
19.61
16.89
4.092
4.102
1.275
1.526
1.477
23.05
0.849
13.43
0.0202
0.3609
10.58
1.255
2.495
0.1746
1.413
2.935
1.257
0.1175
0.1332
2.294
28.56
0.6309
1.484
1.286
1.439
0.0008519
1.876
0.01756
16.37
23.25
1.677
6.229
0.02062
0.6866
0.02006
0.02703
0.01904
33.21
0.01674
3.872
3.064
0.2861
18.71
8.323
0.857
0.02079
2.404
5.066
1.857
2.208
0.8536
1.627
40.76
1.815
0.0792
1.116
16.92
0.07907
0.3766
0.01844
1.874
1.053
2.015
4.576
61.97
0.1068
2.266
32.68
0.6835
2.41
0.9092
0.2773
7.568
1.249
0.3495
6.818
1.283
3.132
2.023
79.5
0.02073
1.853
6.912
4.807
2.298
1.327
13.87
0.03127
7.996
1.05
0.7714
1.763
0.004163
2.995
4.674
2.396
1.787
0.03078
1.766
0.05182
3.163
2.975
4.915
0.6946
0.3541
5.987
1.794
0.03642
2.637
3.281
0.07593
12.71
45.19
0.8537
0.112
0.112
53.33
0.01845
0.01694
0.03256
0.07566
2.011
194.1
1.249
0.1308
1.043
0.1522
0.0208
0.1974
1.59
0.01575
13.71
2.264
30.27
10.76
1.136
1.722
0.1292
4.307
0.02934
2.48
1.873
3.481
7.807
5.785
0.9326
4.842
1.038
1.323
0.05052
0.6783
61.06
1.312
0.1967
1.85
84.95
0.01685
2.457
3.197
4.455
1.902
6.654
1.406
31.86
2.017
15.75
62.39
0.001516
2.181
4.49
1.417
1.205
3.323
1.907
0.02053
13.34
1.247
0.1917
0.859
0.03729
0.3522
0.0184
1.593
4.606
3.071
9.278
1.654
0.9702
4.78
0.004058
1.158
2.499
0.8572
2.578
1.656
1.976
0.007408
1.466
0.002671
0.1798
0.6162
0.02251
0.02037
45.42
1.917
0.02026
1.96
0.03161
0.8815
0.4852
0.1951
0.8793
0.01564
2.281
2.323
7.036
1.898
0.9431
3.141
0.7248
0.8989
0.6674
3.622
4.84
1.026
0.01579
0.5192
0.8101
1.52
11.4
4.526
0.00275
0.01977
8.395
1.117
3.151
0.2989
0.03198
0.2519
2.195
0.03457
1.421
8.556
1.458
0.05786
3.643
2.475
4.677
0.8771
0.02036
0.1139
0.1016
0.1016
0.2636
1.868
0.7628
0.8799
2.018
0.07589
1.137
1.934
2.495
5.104
2.004
3.08
2.13
3.103
2.71
2.916
0.4841
2.849
2.541
0.03964
2.833
1.212
3.947
0.01389
2.613
1.037
0.9734
0.2715
1.685
1.673
0.04061
0.01854
0.01853
5.442
0.007524
2.474
0.03494
3.779
1.736
0.0344
0.168
2.227
57.7
1.195
0.008013
0.3702
7.218
2.912
0.7492
0.01975
8.91
0.08008
4.807
0.8791
0.5938
0.01469
0.7407
6.046
3.435
1.809
2.44
0.7426
2.265
0.03952
0.03576
4.121
0.03008
1.313
3.047
0.08118
0.8182
1.406
0.887
0.1375
1.691
3.027
3.596
0.368
1.184
2.933
2.451
1.406
5.32
1.102
5.464
2.229
11.52
2.509
0.001557
1.057
0.2367
1.156
0.2958
4.188
0.1666
0.05468
2.494
3.022
0.236
1.658
0.04021
0.9819
3.01
0.02971
0.01552
0.02274
1.602
0.08171
2.002
0.02302
2.8
0.0185
8.178
0.01899
1.588
1.227
2.619
0.7782
6.917
0.08633
1.957
3.578
4.02
1.753
0.9561
0.8239
1.92
0.6691
4.444
1.966
0.003738
0.01769
1.709
3.188
0.03253
1.119
0.3837
0.2822
1.087
0.1048
0.006158
7.91
0.3723
4.874
1.679
19.98
8.003
5.445
4.482
2.683
1.621
1.556
0.01565
2.829
0.0187
7.203
1.405
2.098
4.485
107.9
2.002
3.94
0.1894
4.124
0.01707
20.04
0.01767
2.177
0.8314
66.31
24.32
85.6
0.07079
2.779
3.046
0.01998
0.9248
3.348
1.956
0.7392
1.252
2.678
1.113
11.12
0.003701
1.823
43.43
6.105
2.841
7.518
0.01566
0.6667
0.07331
0.6544
0.01553
3.176
24.82
5.658
0.04395
1.711
0.2259
10.5
2.966
19.44
0.5699
0.01915
3.515
2.466
0.03635
0.7444
1.027
2.187
1.641
3.364
4.53
0.8618
1.197
4.809
1.946
2.403
0.01573
4.436
1.725
3.759
0.9893
1.679
0.08464
0.06711
0.1761
3.164
4.681
0.01924
0.001728
2.064
7.74
1.432
2.718
5.665
9.429
0.9257
0.01835
0.03762
5.39
1.222
1.668
0.004254
14.95
0.8674
2.273
0.007726
4.359
0.01914
1.36
2.67
0.5522
0.001672
3.271
0.857
39.11
0.006436
1.393
10.65
0.02218
0.8098
0.01963
1.382
1.578
0.02265
3.68
2.514
10.98
3.502
1.724
2.802
2.823
6.751
1.551
9.972
1.656
2.889
1.783
3.237
0.004251
3.802
0.021
4.722
0.02143
1.827
0.04646
0.02031
0.367
5.381
1.488
0.003619
0.007889
4.606
17.47
3.613
2.816
0.9378
1.978
1.221
3.099
2.464
2.834
5.624
0.003623
3.505
2.42
0.5399
0.7316
0.02095
0.001734
1.419
15.05
1.556
17.01
0.02115
0.001068
2.078
3.447
0.03114
5.549
0.3022
0.07211
3.481
1.167
2.368
0.3763
252.5
7.43
1.722
1.963
1.894
4.293
3.899
5.627
0.02704
2.321
5.866
1.287
0.01077
1.886
0.7946
0.8789
0.04476
0.01011
30.89
0.1899
3.043
3.64
5.495
0.522
0.7352
3.159
0.3818
3.49
0.01568
0.007746
2.537
0.2341
5.04
0.8529
11.36
0.8921
6.555
0.19
0.2658
0.001061
2.727
0.106
3.31
38.34
1.108
1.551
1.162
0.001528
1.078
1.676
13.3
0.3947
0.812
2.465
29.97
1.42
6.528
0.6394
3.046
1.168
0.7915
0.8424
0.4844
183
0.8113
0.03052
1.928
4.062
1.414
0.01483
4.075
0.4761
1.413
0.0009624
17.35
2.388
4.494
0.00102
5.923
2.656
3.738
2.906
0.001118
1.21
8.019
3.619
1.265
0.01823
1.919
11.33
0.01562
1.1
0.7418
4.14
1.985
0.7005
1.13
6.242
2.847
0.01878
1.218
0.7655
4.331
3.351
0.4437
0.9097
4.309
0.02554
1.897
3.447
1.706
57.23
1.687
5.498
1.794
1.86
0.9988
0.07265
292.4
1.833
3.386
6.873
1.552
3.15
2.331
1.916
0.04011
0.4547
0.6627
0.0009674
2.51
7.101
1.461
2.883
0.02832
1.19
3.096
0.01578
0.02042
0.73
0.7283
0.9367
3.22
1.356
15.94
0.7553
0.7102
0.01085
1.498
2.179
2.324
3.289
1.267
0.002348
0.01523
0.07399
16.41
0.0116
0.1731
14.01
1.184
6.148
0.004727
2.064
1.164
0.02649
3.057
0.06853
4.809
34.62
4.525
1.366
5.989
0.01906
3.518
0.4348
3.044
7.313
4.225
39.1
0.4393
0.6174
1.604
16.74
0.02418
0.6777
5.04
9.257
5.942
14.41
0.002333
0.1333
5.446
8.257
25.71
3.891
203.3
6.637
72.22
2.085
6.33
0.4459
8.339
0.01933
1.552
0.001814
0.001774
1.971
0.02626
2.982
0.4742
5.99
0.4551
0.04988
9.897
2.056
0.01447
0.3762
1.93
0.04714
4.031
32.56
2.491
1.177
16.3
0.892
3.705
0.01892
2.061
3.26
0.01343
3.424
1.729
0.6665
0.02618
0.03137
0.3495
21.7
1.8
34.43
1.1
3.351
1.801
11.93
3.733
0.002246
16.75
0.9406
0.00224
2.078
45.4
0.4481
6.387
0.5822
0.7092
16.88
21.93
2.019
0.01827
0.0286
1.106
2.599
2.285
3.645
8.732
13.81
1.227
0.2037
13.85
0.08773
9.686
0.01691
1.302
13.13
1.353
2.423
1.228
0.02424
0.01737
5.934
0.4526
3.176
2.25
4.194
1.134
1.435
3.19
3.245
20.32
2.117
2.57
3.699
0.7991
1.014
12.11
3.027
14.98
31.26
1.253
0.01505
0.01066
1.116
1.736
0.5799
0.1799
3.269
1.228
0.3747
3.668
1.375
3.058
3.004
0.1382
0.4792
0.3548
17.57
3.552
2.857
0.9289
0.6148
6.062
1.861
0.7865
0.8036
3.725
1.523
2.301
14.43
0.01682
11.56
13.3
0.752
3.44
17.65
0.01901
21.18
22.67
0.002567
0.1533
2.202
1.409
42.52
6.672
1.506
5.962
3.615
0.4887
0.4553
0.02335
3.874
1.206
3.013
0.9048
11.46
1.71
0.003654
16.41
3.012
0.02969
5.27
0.002312
0.01712
0.9641
0.2767
23.25
0.01726
3.065
0.02718
7.841
0.2324
0.3634
0.6729
3.53
2.624
3.694
0.9823
0.007061
0.05965
1.372
2.135
3.251
3.24
5.989
3.831
23.2
3.631
3.85
5.665
2.219
5.745
0.6276
0.4266
0.01475
3.938
4.381
4.691
0.0007547
9.535
0.9686
1.167
2.389
2.644
0.5224
5.093
0.7104
1.159
3.842
4.814
7.471
0.003285
0.7324
4.23
0.01757
2.874
4.96
0.2081
0.9022
4.998
0.06032
0.6245
0.8756
3.018
0.3479
0.1056
2.539
2.558
0.01377
0.4548
0.04276
1.219
2.705
0.9426
0.04433
8.327
35.1
3.651
2.271
0.9782
8.358
0.0008454
1.543
0.02345
1.541
3.146
3.489
2.404
10.15
14.87
0.04512
69.84
4.977
4.331
0.9757
12.48
0.74
0.3845
3.924
1.32
0.06126
36.38
1.983
1.858
4.433
1.952
6.363
3.272
7.943
1.567
2.13
1.374
2.634
2.076
0.455
29.52
0.2073
2.017
0.2194
3.432
0.1056
0.02167
1.28
9.319
1.319
0.03743
24.29
5.02
0.0257
17.37
1.481
1.393
19.81
1.226
2.373
142
0.3753
9.69
0.9578
1.302
9.392
2.381
3.175
2.708
5.058
0.1444
0.2326
0.9814
2.226
1.268
1.178
0.9397
17.22
1.273
0.4097
1.226
1.543
0.6862
0.9338
29.4
0.07886
14.44
5.755
2.518
1.864
0.02679
0.8583
2.723
0.7066
6.745
4.716
3.661
0.01806
3.062
8.05
1.609
18.18
1.909
0.4865
4.513
0.01615
4.956
2.182
22.82
2.882
0.06964
1.04
0.01634
44.23
22.06
1.807
0.6026
1.285
0.002922
0.04598
4.959
1.84
0.6235
0.1654
0.0007009
0.0007024
3.934
1.484
0.5687
3.814
2.061
16.17
0.9126
4.037
2.767
2.799
0.05512
2.371
0.9394
1.925
19.02
1.012
0.6643
2.132
0.9581
1.639
69.95
0.3548
1.653
0.9788
0.6799
0.5414
2.142
60.79
0.2713
8.342
0.008277
1.916
16.74
0.06452
29.74
1.208
2.024
2.981
0.01162
1.044
27.84
0.01896
1.655
3.669
1.168
27.53
0.6483
0.5948
5.995
7.304
1.918
4.492
0.1758
2.08
25.9
47.52
4.106
1.848
0.02192
3.127
0.4907
3.08
10.74
0.769
1.885
0.01148
0.6702
2.815
0.01475
0.8844
0.002533
26.43
0.9216
8.361
2.662
1.831
8.842
1.572
1.491
4.491
81.13
1.843
2.416
1.768
1.407
1.141
0.0841
2.836
0.01791
0.9214
0.05473
1.166
0.01474
4.043
2.563
0.1778
0.01541
7.43
0.2394
4.348
0.2667
0.1978
2.637
1.492
0.05534
91.7
6.732
28.18
1.813
0.9553
2.188
1.977
3.131
0.2382
4.884
2.072
5.194
4.805
3.067
1.753
0.558
0.01761
75.46
1.667
13.68
0.02486
18.26
4.804
2.426
3.023
0.01962
0.01815
0.1955
0.3581
0.08492
0.7929
1.22
0.7264
1.753
0.03871
0.6662
8.155
2.179
0.1757
1.326
0.5394
5.694
3.87
1.636
2.405
1.133
0.01625
4.35
4.163
11.13
1.982
0.06215
1.905
0.02079
1.546
2.942
6.104
0.2184
0.03718
1.558
2.58
17.75
25.36
0.5865
1.817
4.763
0.1837
0.01026
22.35
3.103
18.9
0.1512
35.02
2.61
0.01397
3.158
15.01
0.7855
0.4166
1.064
5.587
1.265
2.212
0.8178
11.5
0.09788
7.537
4.637
2.761
0.001211
0.001179
2.293
2.322
102.6
5.623
3.057
3.057
72.45
0.01888
3.358
0.02435
0.01732
0.01393
1.248
0.004791
38.81
0.0229
24.63
0.5893
3.729
2.643
2.588
0.001086
38.9
0.2981
16.59
1.177
11.78
0.01549
2.843
3.989
1.097
16.62
8.007
1.416
20.83
28.25
0.1042
0.01031
10.59
0.0006395
0.1978
0.545
12.45
0.006695
4.183
0.02964
2.364
1.46
0.9673
13.27
0.005099
1.307
3.636
2.647
0.1938
0.8208
0.4837
0.02069
0.09324
2.3
118.5
1.767
1.42
0.02237
18.63
0.4771
0.248
0.0007808
1.312
2.433
2.448
0.02418
5.36
0.01857
2.57
0.1056
1.127
4.118
2.793
5.506
4.615
2.386
0.007806
1.678
4.05
3.497
18.45
4.386
0.5765
0.05939
2
57.34
1.841
8.727
21.27
0.001116
0.3047
0.01518
2.644
2.268
1.973
0.02734
10.31
0.02856
0.3125
2.476
0.009105
0.536
0.3281
3.406
1.038
0.02188
2.078
0.03856
3.706
15.2
0.8108
0.5821
1.881
0.04267
1.267
2.785
15.56
4.002
2.369
3.137
2.674
2.873
24.53
0.1069
0.3729
4.155
0.06793
2.093
1.282
0.3777
1.248
0.0235
0.009242
10.08
0.3503
1.247
2.351
19.22
2.068
12.11
0.5396
0.0186
12.27
1.829
0.218
2.288
0.04006
1.731
0.1442
0.774
8.773
0.9756
3.066
1.516
1.834
0.03595
1.252
0.9787
2.586
8.762
0.02851
1.188
5.011
0.01644
0.02716
3.2
0.000872
1.735
1.068
0.9499
3.571
0.5383
1.633
0.003224
0.5443
3.449
0.003398
0.5414
10.72
20.81
0.1727
3.345
6.523
0.5427
5.444
0.8287
1.498
20.57
0.0008293
0.001405
3.496
0.02517
8.864
3.311
1.607
4.843
3.669
0.02694
3.189
29.28
481
4.748
3.642
2.825
0.4154
1.247
0.6901
1.858
4.661
4.578
5.869
5.212
16.51
1.318
0.56
0.01846
19.71
0.4926
1.554
0.618
0.08746
1.939
4.778
0.4788
0.1661
4.35
4.402
1.232
4.396
1.074
19.19
2.772
0.03131
2.781
14.42
1.394
1.557
15.11
0.01734
17.89
17.19
1.669
0.001791
1.377
0.9731
2.993
5.325
1.33
3.583
0.003541
2.381
1.992
0.1331
1.129
0.01444
2.42
22.38
1.387
3.408
59.78
1.551
13.7
0.00151
22.64
2.085
0.8424
0.06556
0.4648
0.8463
1.422
1.286
0.001481
1.788
22.08
38.13
2.155
0.7908
0.7945
1.293
0.01802
0.02854
2.234
0.478
0.01584
1.2
1.355
2
3.439
1.104
2.944
1.217
27.95
23.13
21.41
0.2104
1.565
20.91
0.8028
9.481
0.4035
0.8286
0.6845
40.94
0.5144
0.7063
0.000884
0.08265
6.381
2.412
0.0199
0.04582
0.9587
4.441
1.392
1.654
9.816
5.218
0.02813
3.239
0.8793
2.776
5.473
0.3757
0.08041
2.016
1.96
0.5451
3.795
0.03501
14.35
0.7012
3.758
0.2552
2.095
7.777
0.9
3.276
1.207
4.665
1.395
9.98
0.3314
0.9121
1.791
1.402
4.532
2.933
36.24
4.007
0.01479
3.377
0.3991
3.452
1.444
0.003996
0.7751
0.2097
12.31
0.001055
2.69
2.353
2.481
1.026
1.32
0.2033
22.38
0.3484
0.02453
5.249
0.04257
1.361
0.054
0.5485
0.8193
0.08387
0.4001
1.643
8.646
0.02384
0.01993
0.9564
0.7813
4.127
0.05482
1.664
2.355
5.116
2.392
0.3602
2.346
1.245
0.1606
1.301
10.51
0.6886
20.45
2.142
0.741
19.58
0.01988
0.007794
1.474
0.4475
77.2
0.02605
0.7143
4.76
129.5
3.562
3.703
0.007611
0.0076
2.232
3.098
2.642
7.08
0.06009
0.5023
0.5594
0.1344
3.309
2.316
1.397
2.299
4.75
0.1684
1.306
0.116
0.777
3.07
4.196
4.502
1.937
26.72
5.687
2.665
1.254
4.196
2.057
0.1841
3.465
10.55
0.00165
0.00164
3.419
3.051
6.677
1.773
7.513
4.088
0.00438
0.02046
2.609
0.0994
1.365
19.51
4.743
0.2977
1.921
0.1153
24.32
8.396
0.001242
0.8139
0.8698
1.434
1.767
3.647
2.077
3.241
1.94
1.731
0.8
0.9129
10.15
1.943
1.732
4.083
47.67
3.001
5.188
4.438
4.649
1.854
1.159
12.65
0.453
3.183
0.01767
1.237
0.09004
1.62
0.6646
13.85
2.703
0.2887
5.87
66.19
3.507
1.759
1.258
3.01
11.62
0.003909
1.818
0.7868
35.98
2.149
1.69
0.2657
0.4824
0.02103
1.375
45.75
0.7518
10.27
1.054
0.1868
8.646
0.1162
1.514
0.4824
1.289
10.04
0.2865
0.9936
0.7009
0.08149
5.285
0.8785
25.88
5.922
1.398
0.01053
1.854
1.023
9.406
11.44
0.8714
0.5665
2.916
0.0185
2.663
7.738
2.391
3.537
1.937
11.35
2.828
5.843
5.021
0.5103
3.129
15.2
0.4209
0.158
27.25
0.0007794
0.3713
0.01935
0.04948
4.494
0.01628
5.334
2.072
0.4758
1.373
3.05
9.2
2.231
12.22
2.148
1.371
68.65
1.415
1.997
0.03072
40.65
0.8645
11.14
7.344
0.0009019
4.716
2.731
0.7131
0.9798
11.79
11.66
5.406
1.25
1.472
0.03055
0.503
0.06797
0.7318
0.965
5.931
1.518
1.762
8.873
0.9994
0.01514
4.595
1.562
0.5023
1.04
1.585
10.67
3.162
10.51
12.04
3.264
1.675
6.575
1.942
3.176
0.2623
43.98
4.964
1.289
1.768
0.01239
3.113
4.07
1.252
0.719
13.59
4.858
5.588
0.6849
2.571
20.24
0.01527
18.74
0.7135
0.06836
1.899
4.442
0.015
2.795
0.9804
1.568
29.92
1.838
3.606
58.24
1.533
1.715
0.1914
0.1914
1.567
1.401
1.417
5.845
1.254
0.0198
11.76
4.392
2.411
0.0167
0.01521
2.19
0.9277
1.587
141
4.243
0.007352
2.52
23.31
0.2427
3.321
1.86
0.002351
0.5894
5.527
0.3416
2.117
0.0207
0.01011
0.01438
0.004335
0.1328
2.238
1.17
7.259
0.7427
3.759
1.425
6.665
0.004339
1.988
1.89
11.07
6.409
10.86
5.13
1.124
2.198
2.11
1.35
0.1007
1.308
88.87
2.607
5.549
1.196
5.062
0.02053
40.62
1.922
2.861
0.6019
0.05526
43.4
0.0266
2.149
6.286
0.005386
3.836
2.173
1.032
3.084
25.01
0.0859
4.166
0.004016
2.156
1.021
3.194
1.153
3.923
0.01242
0.01595
0.3623
7.076
4.744
0.1632
1.1
2.967
0.723
19.76
2.307
0.5991
0.8454
2.191
1.824
0.2861
20.08
1.099
0.02088
18.34
0.01884
0.01523
0.3278
0.001483
22.98
1.052
3.413
1.423
2.581
0.0332
0.1735
4.487
1.864
1.107
0.002224
0.4713
73.41
10.38
0.09195
13.85
11.57
26.95
0.001206
0.5708
0.8789
0.2107
0.02064
0.5303
5.532
48.09
0.302
2.864
66.66
0.02123
2.591
7.941
1.22
0.02627
3.212
51.32
19.81
26.41
0.4023
1.365
11.86
0.06745
2.117
0.01615
1.07
6.915
0.5376
3.273
24.15
0.2507
4.518
3.984
0.1686
0.03452
2.197
4.859
0.4472
13.36
3.569
0.5464
0.8923
2.136
3.977
1.868
0.02152
1.871
2.24
1.896
3.501
4.877
2.189
12.17
28.17
32.67
36.95
2.316
0.104
8.259
0.02622
3.698
9.761
0.02185
197.6
0.1307
2.791
17.44
3.998
3.583
8.211
4.095
7.354
0.0159
143.4
1.764
0.0006874
0.8524
2.926
59.63
12.61
38.33
0.8372
3.223
32.72
1.091
0.2649
1.275
14.22
0.008334
1.794
1.13
4.279
0.9347
2.038
0.5855
5.79
1.539
2.145
16.78
0.02315
5.345
0.2954
1.229
3.084
0.025
0.1834
1.139
6.2
5.329
27.55
0.0006522
0.01626
0.6299
2.027
11.43
1.596
0.5675
0.005727
0.03661
4.024
0.005735
3.248
3.219
0.1806
2.281
2.243
12.23
26.1
16.91
0.06502
2.486
2.274
3.942
0.506
0.6609
16.18
1.07
5.61
2.052
9.948
1.615
0.9139
35.48
2.096
1.049
2.02
0.0008527
1.201
0.1724
0.01803
1.021
15.34
1.806
3.819
0.8927
35.98
68.43
0.8894
70.49
0.004329
0.334
0.05459
0.0891
2.185
0.127
7.062
22.67
3.655
7.987
0.45
1.5
3.675
1.925
0.9298
5.057
1.359
17.94
3.836
0.001972
2.825
1.055
0.05959
0.04666
3.791
0.03067
3.261
2.516
2.09
0.9655
4.738
0.001093
0.329
0.07838
3.888
20.15
7.491
1.242
0.01421
5.509
0.01279
0.308
2.492
0.5803
17.74
2.401
2.744
0.5775
18.32
0.9123
0.003877
1.217
3.327
0.04479
0.8096
0.03165
2.715
5.317
6.147
2.006
0.006744
3.805
1.979
2.588
25.11
3.334
7.269
0.01961
0.4712
0.7245
0.9336
5.82
0.7585
0.1794
1.301
0.2781
4.649
2.544
0.003976
0.1642
0.01697
0.04926
0.6526
10.08
3.556
0.01831
1.793
3.134
1.496
0.06912
1.54
0.1894
4.119
0.002862
113.6
1.34
4.374
0.0009456
0.16
23.07
0.03829
1.351
2.214
3.21
2.913
2.869
0.0269
2.02
4.095
1.725
2.188
2.374
0.6437
1.425
1.652
10.97
0.01278
1.081
1.193
15.13
0.4733
0.07641
4.471
10.29
1.204
1.211
0.8272
8.906
0.07112
0.7566
5.891
0.9424
4.103
1.065
0.002093
2.857
20.79
0.7372
3.937
10.31
1.629
1.122
0.01921
0.0363
0.2104
0.001108
46.68
2.227
0.0447
0.01823
1.095
26.1
0.04133
1.323
12.24
1.435
1.146
4.057
18.48
3.846
4.219
2.942
25.93
7.102
0.01794
1.7
1.527
2.068
0.0233
0.2981
2.601
1.64
3.438
36.4
13.69
0.3271
3.874
25.36
0.6226
6.883
1.263
0.9152
0.6042
5.341
8.709
0.01854
3.568
1.154
0.04319
10.11
1.062
1.867
0.1549
1.753
3.143
2.945
2.819
0.01448
0.01863
0.3531
3.959
0.1716
0.8231
0.02622
9.934
0.7898
1.052
2.131
4.27
0.4191
1.737
0.01044
23.79
1.993
26.12
2.367
0.1574
7.457
1.007
3.875
20.66
0.5647
21.01
0.1012
0.1028
1.405
0.1264
0.01791
50.78
1.478
3.773
7.054
1.266
1.503
0.00159
43.96
0.06333
1.727
0.1632
0.3533
2.909
1.71
1.639
1.801
0.7361
5.37
0.00827
1.653
8.45
24.37
10.43
0.2138
2.361
0.7537
0.1648
5.683
2.955
0.1416
0.06834
3.449
21.3
0.003116
0.01255
0.7698
7.416
0.9412
14.77
0.1397
9.914
2.171
1.192
0.07034
0.2001
3.217
2.908
5.53
1.247
5.316
0.09958
4.224
0.001513
4.747
28.55
0.0626
3.146
0.8367
14.82
14.34
6.093
0.1559
0.01041
3.14
0.342
0.0168
5.398
4.552
0.6499
0.1567
0.1674
0.1529
0.03189
6.084
1.848
0.02015
9.969
1.805
6.849
0.03295
0.03843
0.01585
0.07757
1.311
0.4729
2.654
19.07
8.516
1.683
22.65
7.249
0.02433
20.97
3.387
7.243
0.7332
0.321
0.7441
12.09
7.248
8.154
3.499
0.07351
1.352
4.572
1.098
1.286
0.2906
3.583
0.3215
3.303
0.001238
1.48
1.208
0.9199
0.6638
6.327
54.2
16.16
0.01045
63.96
1.533
0.1716
5.969
0.02908
5.724
2.229
0.007872
4.009
5.626
0.2052
0.9816
0.5372
6.153
0.01888
0.5448
13.86
0.5775
0.01656
4.014
1.579
0.0505
0.5114
0.5004
1.503
17.03
2.753
3.638
0.7386
7.371
1.547
0.01921
0.0654
5.883
1.168
2.013
0.06824
37.77
1.547
0.8196
4.088
1.502
2.791
0.03426
0.1206
3.571
2.375
0.09143
1.553
3.413
0.561
1.882
2.295
0.7648
0.08817
0.6857
0.8615
1.178
1.096
0.06471
4.9
0.003395
1.656
0.9421
0.4764
8.471
1.802
29.07
0.7736
0.6199
0.0177
0.007495
0.6952
0.7934
4.407
7.434
2.554
2.641
11.29
1.877
0.8254
3.576
2.253
8.168
2.464
0.07255
4.653
0.7305
3.203
0.7002
0.7713
1.972
1.647
0.03874
3.597
0.2492
0.02206
0.2141
4.664
0.02128
70.82
3.222
5.19
0.01778
1.833
2.663
0.001047
2.006
2.19
8.548
3.55
6.533
0.03385
2.785
0.1178
0.4724
3.972
9.225
0.9471
2.331
107.8
0.007433
0.02524
1.397
2.207
4.035
0.5075
2.448
3.15
0.6889
1.12
0.01787
7.56
3.801
0.2243
1.406
0.01652
2.26
0.1531
1.743
2.511
2.042
0.017
14.32
1.307
0.02624
3.656
3.615
0.2032
0.01126
0.01534
2.62
28.26
0.9422
0.5056
1.919
0.1492
1.546
1.098
0.01347
0.7211
0.6776
18.64
10.77
5.396
0.01219
2.411
1.241
6.886
5.74
14.85
1.334
2.056
1.548
1.282
2.8
4.531
0.3186
0.001145
0.4752
0.05296
24.4
0.01864
1.185
2.464
1.018
1.125
8.235
2.09
25.7
0.9164
18.05
1.361
0.5564
4.197
17.62
1.46
22.1
25.11
0.0217
22.83
7.529
5.068
7.458
1.844
0.4474
3.338
1.125
1.029
0.07788
1.071
1.07
2.816
1.822
1.837
1.007
0.4569
0.3172
22.39
2.266
36.42
1.158
2.426
0.006118
4.586
1.907
7.243
0.899
12.66
3.693
1.769
0.2127
9.053
0.2022
1.201
1.445
0.1141
0.5017
1.246
0.9944
3.308
3.263
0.6632
1.727
1.631
13.27
0.9814
37.05
0.08151
0.7757
2.978
0.6529
0.08285
8.721
0.02004
0.01609
0.0211
1.78
1.378
6.28
0.1771
0.3616
1.802
0.09845
51.9
5.621
22.19
1.595
0.1406
2.854
27.99
0.1385
5.655
0.03229
1.769
0.6628
4.45
0.4843
0.01101
0.009787
2.409
0.7366
0.08508
21.7
1.533
0.05488
0.02649
0.9862
0.05448
3.788
6.353
0.005359
1.211
4.17
6.27
4.006
23.51
2.764
0.2531
0.8591
1.837
0.4012
4.508
1.864
1.414
3.114
2.172
106.9
0.02847
1.887
16.02
13.94
0.04004
1.489
0.0223
0.795
0.631
1.978
1.894
1.748
7.994
0.3205
3.346
14.52
4.11
4.692
2.752
1.753
0.6131
1.234
4.981
1.523
3.148
0.003106
23.82
12.62
3.648
0.829
1.065
6.742
2.386
0.4988
0.1083
74.79
2.468
0.0008004
0.001407
0.003242
2.013
9.576
0.5413
28.51
1.054
0.001112
1.736
1.249
0.7943
2.426
93.47
5.852
2.492
8.429
1.639
1.995
11.85
1.857
1.096
0.7078
3.721
1.54
0.4894
1.86
2.5
0.3353
1.37
1.435
0.5627
22.97
4.77
0.06156
7.44
0.7312
19.43
5.567
0.008999
0.2389
3.014
0.03675
1.511
9.204
5.139
0.6906
0.0149
0.3265
0.9214
1.083
0.09829
2.391
0.009921
2.352
1.349
3.646
4.918
3.439
3.587
2.751
7.226
0.7691
1.074
0.02784
26.89
0.0714
0.001405
4.538
0.01825
3.663
0.8947
80.64
0.0448
2.048
3.426
2.105
2.331
0.2198
1.835
1.72
2.422
4.032
1.564
0.1582
0.01692
3.467
3.999
0.1781
2.207
5.172
9.688
1.943
0.007798
2.213
2.526
36.68
1.279
1.915
1.747
1.796
0.01994
0.657
31.91
3.185
0.04669
0.3461
5.394
0.1026
1.321
4.086
1.861
0.04694
0.05296
0.6147
0.01887
0.01318
0.02444
0.6661
20.43
3.637
0.324
1.377
0.5684
0.2271
0.1591
1.126
1.543
0.09214
0.05654
3.339
0.2628
0.02909
6.117
1.745
0.5625
21.78
10.94
0.02772
3.158
0.8285
3.22
1.729
8.485
0.1633
1.401
23.24
0.9669
8.054
0.4033
4.329
1.74
1.723
0.788
22.95
0.1314
26.15
2.566
0.03221
0.04432
0.0042
3.313
1.337
12.43
4.323
28.68
0.1756
0.01057
2.267
2.087
0.2937
0.01742
3.098
0.7715
5.452
1.732
14.83
4.634
2.981
2.697
1.59
0.1028
14.96
2.388
1.8
0.8476
0.132
0.0167
1.518
0.9651
2.816
10.75
0.9496
0.05944
2.092
0.2154
0.2217
0.01796
6.246
1.422
9.174
3.83
1.428
0.6195
1.961
1.329
0.5502
1.389
0.4321
0.2966
0.042
3.186
17.22
0.3496
0.8478
26.43
0.007101
0.02121
0.6015
0.03997
0.0571
4.353
0.0653
0.0652
1.305
0.013
1.606
19.46
2.164
0.5365
0.314
0.03387
0.05188
0.8065
1.638
3.133
16.89
1.076
0.005189
0.8783
1.338
4.205
0.2088
0.04712
0.0741
4.287
0.12
0.07079
3.038
1.888
0.137
0.03992
3.712
0.01193
0.03
0.0123
48.56
0.15
4.893
0.8114
0.03868
0.1556
0.6168
1.586
3.213
1.637
1.077
1.026
0.106
19.88
1.102
2.097
0.0374
4.856
3.42
2.074
5.047
0.4228
3.45
0.7926
0.3218
11.05
0.06592
137.7
1.212
25.41
0.1029
4.544
0.01975
0.1083
0.794
13.19
1.197
5.573
0.4575
0.001525
22.2
0.00151
7.625
28.72
0.5404
0.4266
0.002189
7.643
0.01777
0.5223
1.34
1.033
1.3
0.01695
32.19
0.05318
3.975
4.196
1.598
5.163
21.06
1.504
12.84
1.148
0.02072
1.159
2.015
0.02037
0.0835
5.226
0.8923
26.54
2.958
6.178
0.02647
0.9541
0.02551
0.01637
0.04156
4.441
0.2909
0.5704
0.001178
1.668
0.4447
3.668
1.673
15.44
0.02501
3.096
5.331
1.378
0.3023
1.616
0.03329
1.064
0.007068
2.138
1.789
0.0256
1.636
37.42
4.279
4.42
1.357
12.25
4.928
0.8254
3.336
8.826
1.115
34.82
3.56
1.386
3.593
2.378
1.54
8.21
2.247
0.004066
2.33
0.002797
3.357
24.48
1.283
10.21
13.6
1.029
4.148
0.001268
1.852
1.58
37
0.8678
0.01469
1.273
1.73
1.544
0.001244
1.604
1.543
1.415
0.5377
5.098
3.339
20.66
3.048
2.903
1.672
1.541
5.232
0.0277
4.988
2.436
0.02177
2.296
2.2
3.392
4.099
3.429
0.05825
6.764
5.247
0.1815
1.847
5.962
41.82
3.507
0.004941
0.001934
1.137
3.48
1.103
0.01252
4.019
3.73
3.925
15.98
0.007816
1.637
5.766
1.938
39.11
2.112
2.349
1.248
1.756
1.074
0.02141
1.982
19.56
1.868
1.795
0.5106
1.507
0.01111
0.003182
3.521
2.738
1.387
5.174
2.328
0.01616
9.797
3.698
0.3547
3.189
34.6
14.98
0.001187
0.3106
0.0276
1.459
8.695
3.993
5.394
2.514
3.19
0.02846
3.658
0.05602
0.7858
13.97
0.616
23.11
1.61
31.11
0.06991
1.785
4.419
0.01753
1.39
2.802
5.712
0.9026
0.03781
0.0163
0.004169
1.535
0.01606
0.9025
16.56
0.4297
1.201
3.465
0.08851
1.225
0.9695
0.004079
7.339
3.361
12.05
1.941
0.01729
5.865
4.487
0.02077
6.622
0.5932
3.193
1.003
16.19
0.7802
5.04
1.187
0.8796
0.04181
0.9341
0.04363
0.1312
5.476
1.366
1.214
1.043
0.8549
2.6
0.019
0.06056
0.1435
2.863
1.77
1.534
47.59
0.3791
0.03986
5.101
0.2739
3.755
0.01169
5.061
3.054
1.442
1.145
3.078
1.808
2.968
1.326
1.4
0.02153
2.233
1.316
1.34
7.095
19.22
3.329
0.07423
2.308
1.374
1.163
71.98
0.01611
3.778
1.393
1.863
2.373
1.367
58.65
2.152
6.761
2.657
22.29
0.8018
0.4606
9.443
2.09
0.02312
1.829
1.212
2.872
2.685
1.411
4.001
0.001341
5.343
5.549
3.792
1.325
4.723
4.24
0.02043
3.212
1.807
2.104
0.425
0.05042
1.896
1.83
1.541
3.523
0.01023
5.132
0.9235
0.6366
3.067
1.963
3.195
1.707
3.177
3.553
0.006748
3.3
1.924
12.52
3.072
7.943
0.9708
1.32
1.831
0.6004
1.574
4.431
22.48
4.052
6.446
34.89
1.034
0.2292
88.36
2.805
4.285
0.001193
6.325
10.6
2.56
1.049
0.01922
2.17
0.02488
1.151
3.129
0.8691
1.522
1.223
3.743
0.7221
45.78
1.036
2.224
5.73
10.22
2.64
2.034
1.216
0.3586
11.97
1.087
28.9
3.133
0.6895
0.04647
11.88
0.4304
0.05709
0.01868
0.8048
1.352
0.0602
0.006686
0.018
5.995
4.093
35.71
0.08113
0.002034
1.196
0.006379
0.004843
3.769
0.000786
1.258
10.09
0.1023
7.062
1.085
3.146
0.578
1.784
0.1293
4.072
1.32
63.28
1.651
5.008
6.324
4.093
0.3398
0.002034
0.8702
3.926
0.01905
0.4408
2.83
3.729
19.06
5.632
1.625
3.762
0.02224
3.699
11.17
1.739
1.23
2.209
0.0006368
1.023
1.055
8.359
1.485
1.66
0.001559
4.36
5.102
0.001306
1.35
0.0006071
2.357
0.02699
20
22.99
0.03789
5.431
1.627
0.2514
9.933
2.795
0.01798
12.01
2.856
1.619
7.788
0.06884
0.2358
16.21
1.041
4.761
0.4984
1.289
0.5199
0.7156
1.446
0.001239
0.6443
3.673
2.728
1.565
1.128
2.35
0.7361
2.771
3.443
2.036
0.5924
3.322
0.03122
0.3649
6.202
1.433
0.04388
0.5596
1.111
2.384
1.405
1.301
7.251
0.4124
5.327
1.072
0.004355
2.484
3.195
0.335
3.193
0.07943
5.659
0.7974
0.6484
0.179
0.8763
4.605
2.774
0.231
2.198
10.83
2.918
0.01123
0.01556
0.8811
3.61
5.54
0.9484
0.9434
1.016
5.217
0.3709
0.4492
31.35
0.5747
0.4066
15.91
4.163
0.9928
1.114
0.06007
129.1
0.01666
1.54
1.634
3.899
3.307
4.454
24.8
0.726
1.455
0.2707
82.4
2.702
1.027
99.11
13.53
3.263
1.927
0.00331
0.3888
0.2438
5.281
0.04084
3.277
30.11
0.1282
1.743
0.7112
1.171
9.265
2.46
20.18
7.86
1.576
0.007563
0.007633
0.0247
5.059
17.37
0.5165
0.0161
0.1613
9.659
1.276
21.34
3.074
0.01638
84.29
0.05108
0.5124
0.8691
0.06878
1.038
0.4275
0.521
0.1394
5.277
1.304
1.24
1.235
55.86
0.9584
5.554
1.826
0.9426
0.09464
54.13
3.149
7.026
3.305
6.629
5.486
4.416
0.1803
2.045
2.038
2.032
3.585
0.002267
14.28
1.801
7.726
0.6407
0.07332
0.1531
0.01561
2.013
1.721
2.843
5.507
0.8829
6.749
1.859
1.717
0.6002
6.226
0.2763
6.025
2.173
1.868
0.5007
0.1356
0.7534
0.461
1.283
0.4155
2.572
2.418
7.588
0.9824
0.8023
3.917
0.7039
5.443
2.283
1.332
0.2304
32.83
4.143
2.785
2.147
7.021
0.06246
13.4
3.496
1.243
2.451
3.593
1.711
4.09
1.183
2.313
3.013
4.69
29.87
0.00326
0.03233
0.01393
1.364
3.138
0.8663
26.85
3.888
8.822
13.67
1.445
4.803
23.59
0.6423
2.777
3.955
1.868
17.81
0.01728
11.34
4.483
4.674
0.08594
4.344
1.42
1.755
2.883
2.959
0.01607
0.2042
1.752
10.29
0.005304
3.137
0.3837
0.7158
281
0.001311
0.8306
0.942
1.954
2.367
0.4424
1.704
2.223
3.126
4.737
3.143
0.0442
1.284
95.64
0.02868
0.01909
12.26
8.132
1.906
6.068
0.1392
1.705
2.702
1.703
3.716
1.597
0.03664
1.965
0.6231
0.3403
0.01394
2.742
0.006826
89.1
2.031
2.004
0.5923
25.06
0.01622
5.218
0.005191
0.1048
5.965
0.5101
12.38
0.6899
0.1156
1.905
4.719
1.416
1.071
1.646
2.736
3.879
4.61
2.996
9.32
14.93
7.513
1.167
2.305
6.888
1.892
0.7891
0.1713
0.008625
36.17
1.409
4.352
20.39
0.0174
5.031
0.3661
0.008341
1.395
106.9
0.5239
2.503
23.98
0.06422
4.454
3.259
1.221
0.8747
1.535
19.14
3.902
0.02224
19.31
27.96
0.161
0.02097
7.611
4.735
5.141
3.589
1.585
6.043
0.01737
3.365
0.1587
5.105
3.343
22.62
0.008318
0.008407
0.3419
1.736
0.05724
1.532
0.5674
4.477
1.469
2.917
2.719
0.1469
0.02865
17.83
25.31
6.252
4.25
0.08024
4.851
0.00285
1.414
13.08
6.928
8.043
6.201
2.608
2.772
1.536
1.776
1.631
0.02864
0.01744
0.01996
0.9888
2.063
5.15
13.36
2.025
0.02332
5.452
5.875
4.098
17.35
1.55
6.676
5.846
4.438
0.1585
0.7769
0.6554
2.29
0.1734
4.825
1.678
1.034
1.888
4.286
0.005262
0.01523
25.59
0.9994
1.005
1.817
53.55
1.456
0.005056
3.081
1.457
1.59
0.9664
2.333
5.858
2.013
6.409
0.3388
0.0006171
1.48
0.1136
0.2294
0.1804
11.33
0.7121
3.719
1.323
0.9746
2.89
0.03917
3.048
3.039
0.7928
2.198
2.452
36.07
0.05219
0.02162
3.343
2.533
1.558
1.626
0.3178
8.006
0.09634
0.0292
1.338
18.95
0.02544
1.804
1.933
0.01355
23.73
0.08045
2.953
1.255
3.847
0.5013
16.21
11.98
0.7952
0.06588
0.01631
1.276
0.9611
2.578
1.241
0.008071
0.00715
0.02048
4.513
1.55
3.281
0.0007329
3.191
2.037
2.828
1.222
5.331
0.3303
0.05373
6.108
0.018
8.715
2.69
0.04919
1.577
3.318
9.384
2.627
2.921
1.103
0.7972
0.00166
18.15
7.357
13.2
0.324
0.9933
0.01572
16.57
0.01453
5.162
4.671
0.0173
0.5098
1.225
3.756
0.001141
1.234
48.11
1.774
0.01848
1.219
4.3
0.5449
1.988
1.179
1.606
20.42
0.7299
0.005014
0.02317
48.78
0.9613
2.933
0.4936
1.216
0.007519
0.04385
0.757
64.43
5.123
3.119
3.086
0.5435
2.229
13.55
4.675
3.328
0.03522
4.468
0.5253
3.637
1.283
1.209
0.01722
3.121
1.082
22.32
72.09
0.7607
0.7598
0.4617
8.515
0.003202
0.7159
15.32
4.742
3.02
9.131
20.07
5.075
1.605
0.4024
5.186
6.479
15.59
1.917
0.03407
10.64
15.53
0.02024
2.332
11.58
4.188
9.246
2.807
0.5284
2.244
1.062
0.001285
2.503
0.0804
1.913
0.4868
9.679
0.5353
23.3
1.223
3.506
1.242
1.022
4.588
0.6618
6.526
7.829
1.016
2.024
0.7889
0.766
1.413
10.94
1.58
0.02543
3.09
0.969
8.607
2.936
2.37
4.975
3.155
0.02944
1.876
19.37
1.244
0.9021
3.891
0.07708
2.625
0.01302
2.05
102
122
8.92
1.51
1.004
0.1785
0.001069
1.348
1.688
4.944
0.9223
0.01789
2.255
2.776
1.024
2.229
0.0149
3.382
11.49
21.13
0.4634
0.7764
3.121
4.537
0.02113
6.348
78.49
0.5899
0.7176
0.4066
2.13
34.37
0.5136
1.234
1.011
1.654
0.02402
3.161
0.008369
23.39
2.105
0.7387
11.47
0.975
3.222
1.86
0.7309
0.1344
0.04886
0.01109
1.362
1.357
2.056
0.6947
1.694
2.747
11.75
0.8234
4.667
0.3875
0.0177
5.209
0.01636
1.039
3.797
1.167
1.541
1.925
23.07
3.324
1.476
2.299
4.759
2.246
0.2479
22.92
0.02061
42.91
7.371
1.606
1.891
0.1513
3.61
6.326
0.9312
0.4928
1.561
22.02
15.79
0.02312
1.217
0.01877
0.01363
13.64
0.03288
1.62
2.479
30.62
1.452
6.423
3.372
5.427
0.3319
3.086
0.9585
0.86
2.057