/*--------------------------------*- C++ -*----------------------------------*\
  =========                 |
  \\      /  F ield         | OpenFOAM: The Open Source CFD Toolbox
   \\    /   O peration     | Website:  https://openfoam.org
    \\  /    A nd           | Version:  8
     \\/     M anipulation  |
\*---------------------------------------------------------------------------*/
FoamFile
{
    version     2.0;
    format      ascii;
    class       volScalarField;
    location    "5";
    object      p;
}
// * * * * * * * * * * * * * * * * * * * * * * * * * * * * * * * * * * * * * //

dimensions      [0 2 -2 0 0 0 0];

internalField   nonuniform List<scalar> 
127143
(
-0.1885
-0.5622
-0.4448
-0.449
0.006591
-0.4511
0.3582
0.1552
0.1931
-0.2776
1.237
0.3691
-0.3075
-0.4535
1.655
-0.1076
-0.5007
-0.1389
-0.2646
-0.3922
-0.3539
-0.313
0.2262
-0.008807
-0.3117
0.1254
-0.2904
-0.3043
0.7318
-0.1006
-0.07646
0.1327
-0.1495
-0.3822
0.3282
-0.1174
-0.2988
-0.3395
-0.008101
-0.1761
-0.2682
0.2067
0.1818
-0.3066
-0.1364
-0.3813
0.7293
-0.3039
0.1647
-0.0302
-0.1164
0.1292
-0.3113
-0.1854
0.003035
0.3214
0.002446
-0.005728
-0.01827
-0.1886
1.044
-0.3026
-0.04199
0.01349
-0.307
0.4472
-0.06103
-0.0389
-0.0377
0.0007419
-0.0293
-0.2943
-0.2208
-0.0166
0.01318
-0.3102
0.02152
-0.3099
0.3217
0.02237
0.7216
-0.3892
-0.3806
-0.09809
-0.2763
-0.3077
0.005524
-0.2555
0.4461
0.2674
0.01478
-0.2597
0.2802
-0.3521
-0.3981
-0.04932
0.2016
-0.04166
-0.3163
-0.05809
0.02212
0.1648
0.7025
0.04022
-0.308
-0.3178
0.1292
0.0008983
0.7366
0.0117
1.65
-0.2644
-0.3761
1.458
0.03941
0.1592
0.06652
0.01405
0.02558
-0.4462
0.01172
-0.3713
0.5377
0.01809
0.7202
0.08881
-0.3105
-0.03988
-0.2752
0.3857
-0.3277
-0.3797
-0.0114
-0.3119
-0.4979
-0.3283
-0.1457
-0.3583
0.9276
-0.1259
0.293
0.05276
-0.4136
-0.3613
-0.3071
-0.04882
2.05
0.01376
-0.378
0.5799
0.01593
0.2072
-0.3551
0.4762
1.308
-0.2781
-0.005966
0.501
-0.3026
-0.02704
-0.06406
0.793
0.01377
-0.3277
0.3405
-0.3066
-0.3046
0.7718
-0.1791
0.09549
-0.3073
-0.3578
0.182
0.3902
0.003504
-0.2987
0.06753
-0.276
0.007202
-0.02136
0.3908
-0.006269
-0.2867
-0.3017
0.3909
-0.2974
0.1461
1.436
-0.01088
-0.06855
-0.3759
-0.343
-0.1334
1.464
-0.4974
-0.3225
0.0004604
0.0002911
-0.5023
0.05398
0.004435
0.1881
-0.05592
-0.2987
-0.4589
-0.06109
0.1398
0.1696
-0.104
0.0405
-0.2229
-0.2921
0.04177
-0.1788
-0.3341
-0.3619
-0.3033
0.2083
-0.3626
0.1335
0.09113
0.02542
0.2075
-0.273
-0.03441
-0.3042
0.3393
-0.3469
-0.2969
-0.3117
-0.3602
-0.00165
-0.2184
-0.4491
-0.3594
0.03766
-0.3271
-0.1074
0.002625
-0.3972
-0.3382
-0.3051
-0.2924
0.5016
-0.2876
-0.4457
0.2123
-0.2989
-0.2929
0.001902
-0.07056
0.02485
0.2817
-0.3598
0.2987
0.6828
-0.03367
-0.1011
0.3265
0.3017
-0.3223
0.02853
-0.2439
0.05104
-0.2509
-0.3033
-0.3195
1.346
0.9759
-0.2217
0.201
0.00482
-0.2919
-0.3992
-0.05139
-0.374
-0.3796
0.1298
0.003102
0.4149
0.003741
-0.05221
0.04343
0.04097
0.0262
-0.5144
-0.3449
0.03836
0.09075
-0.02735
-0.3708
0.256
0.03579
0.2105
0.02961
0.7624
-0.02686
-0.2795
-0.2922
-0.235
0.02917
0.3673
0.5776
0.1551
-0.04068
1.043
0.1724
0.03992
-0.2911
0.01967
0.1166
-0.3336
0.2973
0.003967
0.04859
0.02165
-0.373
0.01589
-0.2113
-0.02358
0.2268
-0.05415
-0.06272
0.2806
0.01198
-0.3882
0.2615
-0.1542
-0.1326
0.149
-0.293
0.023
0.3449
0.0004259
0.0002803
0.4573
0.701
0.1842
-0.3006
-0.3493
-0.1261
0.2062
-0.3012
-0.3758
1.46
0.08926
-0.3783
-0.3942
0.04493
-0.2888
0.03842
-0.2566
-0.2994
-0.3712
0.1405
-0.3721
-0.3601
-0.08004
-0.0133
-0.1318
-0.2857
-0.03973
-0.2077
-0.05103
-0.02399
0.01791
0.05509
-0.008657
-0.4165
0.002424
1.225
-0.06484
0.02542
-0.04403
-0.07356
-0.1726
-0.0009147
-0.3671
-0.3161
0.0005582
-0.2734
0.09295
0.06197
0.3646
0.0588
-0.09396
0.0976
-0.1734
-0.3296
-0.316
-0.01996
0.6101
-0.3007
0.3161
-0.01099
-0.04814
0.6099
-0.07512
0.1278
0.03054
-0.05227
0.0243
-0.3702
-0.2907
0.1025
0.05687
-0.3077
-0.002855
0.02673
0.007164
0.7362
0.1065
0.2937
-0.3009
0.5365
-0.398
-0.336
0.2035
-0.3611
0.5981
-0.303
-0.3031
-0.3389
0.00234
-0.314
0.2085
0.1788
0.3187
-0.305
0.1972
0.00738
-0.3342
-0.3027
-0.2512
-0.2366
0.01749
0.1179
-0.3881
0.1192
0.03126
0.02874
-0.03073
-0.125
0.7182
0.1158
-0.04179
0.05187
1.148
-0.008193
-0.2868
-0.344
0.05308
0.05414
-0.4296
0.2695
-0.2956
0.04731
-0.2999
-0.2968
-0.3271
-0.00902
-0.2729
-0.3364
1.273
-0.2785
0.003884
0.02054
-0.3824
-0.3609
0.002245
-0.3168
-0.261
0.02155
-0.3752
0.1103
0.002739
1.422
-0.2856
-0.2965
-0.2883
0.9065
1.186
-0.4117
0.2975
0.7399
-0.2356
-0.3387
-0.001427
-0.02751
0.08833
0.07202
0.004676
-0.2885
-0.07397
-0.4597
-0.3271
1.435
-0.009517
0.4705
0.04318
0.9003
0.02039
-0.2921
-0.3223
-0.5138
-0.5674
-0.3089
0.02361
-0.3725
-0.267
0.04933
-0.3015
0.5366
-0.3153
0.1132
-0.3454
0.05385
-0.3203
-0.4094
0.003956
-0.29
-0.3103
0.6123
-0.001581
-0.3068
-0.02372
0.02022
-0.06441
-0.3261
0.0004767
-0.03188
0.1373
-0.2969
0.000931
-0.3846
0.07119
-0.3073
0.7795
-0.1129
-0.2941
0.1053
-0.2986
0.5771
0.00175
0.3651
-0.341
-0.02454
-0.05202
-0.3611
-0.3108
-0.3277
-0.2167
0.5808
-0.3061
-0.3344
-0.02271
-0.1621
-0.3411
0.1125
0.01885
-0.2897
0.02617
0.02727
0.3094
-0.3783
0.5973
0.04914
0.001019
0.554
0.6841
-0.3078
0.7369
-0.3029
-0.3222
0.2707
0.01465
0.002264
-0.2961
-0.3236
0.2772
0.005092
-0.2987
0.003402
-0.3545
0.0002452
0.06035
0.04961
-0.3054
-0.2787
-0.3185
0.0005307
-0.3098
-0.3255
0.8307
0.002761
0.129
-0.3045
0.02845
0.05681
0.04723
-0.04485
-0.4223
0.04092
-0.3758
0.07792
-0.3176
-0.4255
-0.405
0.03885
0.06127
1.455
-0.009998
0.2837
-0.1011
-0.2974
-0.2475
-0.01783
0.00416
0.2394
0.04291
1.447
-0.0325
-0.4068
0.007917
0.03942
-0.0128
0.5986
-0.3676
0.003858
0.001118
-0.2965
-0.2344
-0.3802
-0.0202
-0.2867
0.713
-0.3446
0.7367
-0.3646
-0.3355
-0.3109
0.003934
-0.2995
-0.3957
0.1586
-0.314
0.01058
0.001276
-0.3965
0.9308
-0.3643
-0.3061
-0.02691
2.487e-05
-0.3212
-0.2976
0.1819
-0.3173
0.1571
-0.02384
-0.3307
0.2992
-0.3946
0.4619
-0.3101
-0.3036
-0.2966
-0.2953
-0.3462
-0.4213
0.06209
-0.4284
0.1074
-0.2797
-0.3007
-0.3755
0.001577
0.1303
0.4703
0.8605
0.0008935
0.001325
-0.493
-0.01498
0.1894
-0.3744
0.9512
-0.2838
-0.1778
-0.03581
0.6778
0.3386
-0.000911
0.006244
-0.06725
0.2104
-0.4167
0.871
0.6285
-0.2784
0.6246
-0.2074
-0.2329
0.0001096
-0.07031
0.1079
0.2774
-0.5088
0.1263
-0.2358
-0.3151
0.0006309
0.02158
-0.01775
-0.2948
-0.2335
-0.3465
-0.3695
0.5806
-0.3374
0.8993
-0.285
0.2994
0.02069
0.02091
-0.3097
0.2159
-0.1109
0.479
0.1373
0.2634
0.679
0.01535
0.001392
-0.2966
-0.2705
-0.3051
-1.301e-05
-0.3053
-0.3393
0.06042
0.0006486
-0.4317
-0.2949
-0.4118
-0.2976
0.0007963
-0.3049
-0.3072
-0.356
-0.3761
0.05545
-0.2961
1.704
-0.01557
0.1896
0.2544
-0.4209
-0.3259
0.3613
0.1286
0.06013
-0.319
0.0007141
-0.303
-0.3012
-0.05576
0.108
-0.1965
-0.2984
-0.3108
0.0007193
-0.3138
-0.3308
-0.3427
-0.4362
-0.327
-0.2964
-0.3873
-0.2947
0.2852
0.02318
-0.3086
-0.3378
-0.4255
-0.2963
-0.3042
-0.3017
-0.3162
-0.02855
0.002456
-0.2747
0.0591
5.443e-05
-0.3222
0.0641
0.1186
0.5157
0.002859
-0.3453
-0.2981
-0.0003471
0.002887
-0.3097
-0.2953
-0.2883
-0.2997
-0.3073
-0.2819
0.07549
0.6933
0.001348
-0.3221
-0.2986
-0.06159
-0.04039
0.7738
0.002844
-0.02461
-0.02506
-0.2889
0.001227
-0.1951
1.015
0.06082
0.1104
0.002956
-0.2937
0.04874
0.0268
0.04598
0.001695
0.854
1.768
-0.3799
-0.2319
-0.1869
0.02278
-0.3603
0.4793
-0.03221
-0.2963
0.07056
1.094
-0.1972
0.2116
0.6228
0.06731
0.03068
-0.3223
0.4519
-0.1954
-0.2997
0.1112
0.002926
-0.1634
-0.296
0.2725
-0.3345
-0.2434
1.625
-0.2346
-0.2935
-0.3699
-0.2967
-0.241
-0.05674
0.03595
0.1028
0.0004082
0.0004631
-0.4164
-0.02549
-0.3436
-0.18
1.506
0.01732
-0.094
0.05552
0.2714
-0.01784
-0.2626
-0.3053
-0.0932
-0.3799
-0.3029
-0.2419
0.2317
1.61
-0.372
-0.3004
0.03824
-0.2815
0.2775
-0.01675
-0.3691
-0.3355
-0.2835
0.001881
-0.0209
-0.2537
-0.3139
0.5066
-0.302
-0.3194
0.7086
0.2566
-0.3061
-0.3
0.0005208
0.9603
-0.03728
0.0004845
0.6406
-0.3151
-0.2839
-0.2784
-0.0632
0.141
-0.3088
-0.04331
0.01066
0.01131
0.03563
0.2078
0.7876
-0.3095
-0.3793
1.605
0.6369
-0.1206
-0.1443
0.6395
-0.142
-0.3184
0.00298
-0.2984
-0.326
-0.3827
-0.3456
-0.3272
0.03825
0.06998
-0.2965
0.3248
-0.2957
0.07133
-0.2985
-0.2958
-0.3547
-0.2785
-0.2955
0.07311
-0.3764
-0.05361
-0.3375
0.05739
-0.3006
1.473
-0.3018
-0.3511
-0.3095
-0.3221
0.00126
-0.001474
-0.2994
-0.2958
0.1654
0.002971
0.7893
-0.3355
-0.02186
-0.3014
-0.4017
-0.3262
0.3172
0.02704
0.2055
-0.04314
0.5678
-0.0463
-0.2976
0.6842
-0.3133
-0.4248
-0.01079
-0.02813
-0.2886
0.7743
0.03662
-0.3009
0.6801
-0.02271
-0.2985
-0.3092
-0.297
-0.4216
1.627
0.03306
-0.3719
0.201
0.002147
0.002599
-0.2784
-0.3615
-0.31
-0.294
0.1044
0.5491
-0.3115
0.1901
0.09711
0.01725
-0.3141
-0.2366
-0.312
0.2463
-0.3094
-0.3073
0.003654
0.0501
-0.296
0.02242
-0.4108
0.001784
0.03396
0.08423
0.2098
-0.3001
0.02011
0.04486
0.01729
0.09025
0.1848
-0.2593
0.04125
0.2053
0.1025
-0.3287
0.03271
0.004699
-0.008716
-0.3776
0.19
-0.3004
-0.3154
-0.06915
-0.3146
-0.331
-0.4211
0.3654
-0.2948
0.01339
0.07271
0.4697
-0.2864
-0.01198
-0.4064
-0.2993
0.1658
0.0004576
1.12
-0.3309
-0.004259
0.3643
-0.3529
0.07857
-0.3939
-0.3196
-0.00287
-0.2981
0.3557
-0.2966
0.003411
-0.04162
-0.4127
0.02545
-0.3952
-0.3066
0.001826
0.2651
-0.3036
0.02309
0.445
-0.355
-0.1873
0.1516
0.0002363
-0.377
-0.3378
-0.009688
0.3063
-0.01632
-0.3383
-0.3588
0.1705
-0.08129
-0.3087
-0.3123
0.2404
0.1318
-0.3036
-0.06277
0.0009371
0.009515
0.01787
-0.3281
0.8699
-0.4163
0.3633
-0.3036
-0.4415
0.02897
-0.3077
-0.325
-0.3411
-0.01444
-0.1041
-0.3187
-0.2483
-0.03983
0.08706
0.2641
-0.08227
-0.2925
-0.05857
0.2359
0.1144
1.05
-0.1897
-0.2973
0.1565
-0.3118
-0.2261
0.05302
0.007986
-0.2708
-0.3082
0.005753
0.2418
0.07191
0.1558
0.000523
0.005225
-0.3754
-0.08494
-0.2984
-0.03109
-0.4035
-0.2985
0.03691
-0.2423
0.07984
-0.3118
-0.4519
0.3947
-0.2973
-0.3109
-0.2535
-0.3017
-0.2975
0.05821
-0.3115
0.1007
-0.021
0.6906
-0.4305
-0.0122
-0.2121
-0.2065
-0.331
0.3037
-0.04528
-0.2968
-0.3105
-0.2902
0.1292
-0.2949
0.2011
-0.1717
0.1459
-0.3073
0.04562
-0.3031
-0.3388
-0.3009
-0.3101
0.01721
-0.2981
-0.3476
-0.1904
-0.301
0.2766
-0.02681
0.01235
0.1929
-0.307
-0.3701
0.09764
-0.2593
-0.2892
-0.2986
-0.01199
-0.2969
-0.3049
-0.2469
-0.4008
-0.02602
-0.3397
0.01491
-0.3235
0.2177
-0.299
0.2083
0.3254
0.002986
0.0007893
-0.3004
-0.2662
-0.291
-0.179
4.859e-05
-9.206e-05
0.4956
-0.338
-0.298
-0.2966
0.05451
0.0139
0.353
0.0569
-0.2953
-0.3177
0.0006914
-0.07179
-0.322
0.3176
0.08558
-0.3471
-0.2971
-0.3174
-0.04078
-0.3829
0.8629
-0.2736
-0.3577
-0.2901
-0.3134
-0.01199
0.135
0.636
-0.2199
-0.305
0.009495
-0.01671
0.3697
0.002354
1.3
0.1644
-0.3057
0.1444
0.0005625
0.428
-0.06915
0.03239
-0.04886
-0.3268
-0.00225
1.424
0.2202
0.02987
-0.304
0.343
-0.3135
-0.4272
0.3886
0.303
-0.4137
1.201
-0.2501
-0.3278
0.006858
-0.2835
-0.2739
-0.04142
0.5691
-0.282
-0.3213
-0.008803
0.1171
-0.311
0.0004148
-0.2858
0.002864
0.3685
-0.2899
-0.1117
-0.3036
-0.2825
-0.2298
-0.3717
-0.02633
0.4306
-0.2605
-0.3447
-0.3248
-0.3895
-0.3703
-0.294
0.01835
-0.2965
0.03514
-0.3114
0.02975
-0.2897
0.001806
-0.2764
-0.2975
0.001928
0.03074
-0.2986
-0.2059
-0.3384
0.2172
0.0004681
0.696
-0.3542
0.182
-0.3122
-0.3257
-0.4456
0.08697
0.02004
0.0477
0.1704
-0.241
-0.2265
-0.07124
-0.2957
-0.306
-0.313
-0.3951
-0.2564
-0.2843
0.0188
-0.2587
-0.3488
0.5717
0.03499
0.07459
0.5621
0.07672
-0.2974
0.001226
0.001306
-0.1862
-0.2668
-0.03917
-0.3044
0.05819
0.2482
0.9223
-0.02923
0.079
0.4604
-0.2119
-0.06881
-0.3418
-0.01625
-0.3107
-0.3498
0.203
0.06702
-0.3084
-0.01141
-0.2992
-0.3037
0.09821
-0.3205
0.0227
0.3069
-0.005262
0.04093
-0.3041
-0.3102
-0.1854
0.005379
-0.2904
0.4837
0.01976
1.271
0.1614
-0.3363
-0.326
-0.2069
0.001177
1.049
-0.3644
-0.2413
-0.08248
-0.3013
-0.2957
-3.888e-06
-0.292
-0.2962
-0.3192
0.04483
-0.3591
-0.3014
0.1034
-0.2737
-0.1583
0.9686
0.1578
1.01
-0.351
-0.02025
0.001359
0.001365
0.01355
-0.1434
-0.1354
0.01846
-0.00451
-0.05233
-0.2618
-0.007663
-0.3019
-0.008676
0.01292
0.0008493
-0.2909
0.002803
0.4763
0.009351
0.004359
0.3258
0.858
-0.2318
-0.04742
0.001482
1.624
-0.2254
1.758
-0.333
-0.3456
0.005615
-0.4035
-0.3136
-0.324
-0.3182
-0.3077
-0.3098
0.8037
1.906
0.06623
0.002216
-0.2997
0.0002291
0.0005739
0.2653
-0.3078
0.002197
-0.06471
0.02582
-0.411
-0.2251
-0.3358
1.558
0.006108
-0.2969
-0.3743
-0.1767
-0.05223
0.0793
0.3478
0.02142
0.002022
-0.3073
1.623
0.3812
0.09035
-0.03454
-0.3045
0.1628
0.3062
0.0006036
0.4489
-0.3187
-0.02931
-0.04512
0.6319
0.07857
-0.3549
0.02778
0.3788
0.5494
-0.2638
1.445
0.275
-0.3548
0.0006727
-0.2903
-0.009123
-0.3089
0.07169
0.08404
-0.3026
0.0417
0.5616
1.618
-0.2856
-0.1387
-0.4186
0.001488
-0.2206
-0.0007575
-0.2896
0.2214
-0.2661
0.03388
-0.237
0.007096
0.03625
-0.3139
-0.0009698
-0.2816
-0.035
0.7034
-0.3463
-0.01237
0.007473
0.01627
0.365
0.859
0.1801
-0.2793
0.1269
-0.05497
-0.2407
-0.2977
1.136
0.71
-0.2964
0.04544
-0.4089
-0.2878
1.394
-0.1406
-0.1843
0.6397
0.1294
0.07823
-0.341
0.6839
0.03949
0.1029
-8.341e-06
-0.3077
-0.2644
-0.2043
-0.3053
0.1633
-0.3038
0.01652
0.08977
0.002218
0.02385
0.1676
0.05652
0.03926
0.08511
-0.4184
0.02583
-0.312
0.1264
-0.3326
0.8578
0.2017
0.1609
0.02872
0.06858
0.8127
0.6918
-0.2823
0.1086
-0.01044
0.06179
0.002359
0.08135
-0.3025
0.0008951
-0.249
0.3149
0.298
0.8632
0.1236
-0.2931
0.003282
-0.2611
-0.4097
0.00242
0.4402
-0.2178
-0.3557
0.002483
-0.3047
-0.05463
-0.2842
-0.2914
-0.2969
0.007332
-0.3555
0.0006018
0.001911
-0.3017
-0.0494
-0.4222
0.8977
-0.2909
-0.05545
-0.4171
0.09843
-0.2947
-0.2135
1.37
-0.2721
-0.3029
-0.3944
-0.01348
-0.2899
0.01221
-0.2951
-0.3498
-0.2999
-0.3019
0.7483
-0.3148
-0.3229
0.06447
0.05273
0.8277
0.009502
-0.3308
-0.02026
-0.06408
0.2115
-0.2722
-0.2802
0.00173
0.3954
0.08481
-0.3714
-0.3217
-0.3239
0.1651
0.242
0.06151
-0.3809
-0.3086
-0.3664
0.1155
-0.03221
0.00075
-0.2444
1.602
0.04938
0.0005439
-0.2984
-0.2976
-0.01054
-0.4308
-0.2763
0.0008774
0.004445
0.8925
0.1429
0.1367
-0.2921
-0.0143
0.005981
0.05144
-0.01893
-0.1139
0.8745
-0.3006
0.06347
0.002276
1.803
0.5132
-0.2878
-0.07218
-0.2367
0.006052
-0.2922
-0.006473
0.001714
0.231
-0.04177
-0.03742
-0.2984
-0.3294
0.3316
0.5565
0.05343
0.09928
-0.2731
0.1602
0.01584
0.03431
-0.001785
0.03068
-0.2964
0.2196
0.3639
-0.3784
1.913
-0.3304
-0.3099
0.07778
0.1547
-0.0505
-0.2988
-0.303
-0.269
0.0653
-0.08274
-0.2364
-0.07225
-0.004076
0.0002688
-0.1163
-0.1853
-0.2997
0.02457
0.02995
-0.3161
0.1072
-0.289
0.1621
-0.05515
1.403
0.02736
-0.004948
-0.2858
-0.2966
0.04865
-0.2559
-0.05326
-0.2872
-0.3518
0.1105
-0.4029
0.02187
-0.2846
-0.2886
0.07799
-0.2123
0.1069
-0.3842
0.2472
-0.002165
-0.3698
-0.3491
-0.006062
-0.3084
0.1384
-0.2886
-0.3097
-0.3132
-0.4055
-0.2963
1.969
-0.3099
-0.008928
-0.2973
-0.2451
0.1104
0.1749
0.003645
-0.3377
-0.1871
-0.3468
0.0007358
-0.298
-0.2762
-0.2946
-0.2837
-0.3775
-0.209
-0.3413
0.06487
0.04208
-0.302
0.001815
-0.2952
0.1526
0.08757
-0.3041
0.01175
0.08401
-0.04462
-0.3048
0.01676
-0.02511
-0.2906
0.00744
-0.2819
-0.02429
-0.3644
-0.2953
0.32
-0.02205
-0.2794
-0.2178
-0.3688
-0.01382
0.0175
-0.08629
-0.2965
0.1661
-0.03332
-0.3021
0.1603
0.05137
0.00202
0.5437
-0.05454
-0.2196
0.03697
-0.3307
-0.3086
-0.03648
-0.3268
0.2038
-2.326e-05
7.685e-05
0.01419
-0.4112
-0.298
1.303
0.2256
-0.3044
0.05183
0.02732
5.42e-05
0.2702
0.1055
-0.2978
-0.01789
-0.1663
0.3995
0.0005696
0.05717
0.4046
0.2034
0.429
-0.3645
1.139
-0.3009
-0.3504
-0.03246
-0.4131
-0.3713
0.1339
-0.1903
-0.2981
0.0004393
0.000592
-0.3135
-0.2973
-0.05203
0.7314
0.7599
-0.3845
0.004748
0.02084
0.7587
0.01304
-0.3499
0.337
0.2105
0.1562
0.3168
0.1493
1.105
-0.04508
0.001467
0.05852
0.124
0.08852
-0.2921
0.5695
-0.3588
-0.42
-0.395
-0.3061
0.03589
-0.2975
0.5987
0.2333
-0.3607
-0.3034
0.8827
-0.2958
-0.2976
-0.3063
1.303
0.7035
0.2091
0.1138
0.08543
-0.2981
-0.01584
-0.2965
0.02606
0.06667
-0.2868
0.1056
-0.3332
0.3279
-0.3358
0.6528
-0.04246
-0.3851
0.07235
-0.03823
-0.295
0.003615
-0.2916
-0.05943
-0.3215
-0.3316
-0.3142
-0.03513
0.207
0.04015
-0.3849
1.865
0.1122
-0.3015
-0.2846
-0.193
-0.3097
0.0006746
-0.394
0.1013
-0.2488
0.8451
0.005296
0.2885
-0.285
0.04502
0.6288
0.0371
-0.4008
-0.2965
-0.1063
0.01017
-0.2994
-0.1032
-0.2961
-0.1228
-0.001119
-0.279
-0.3383
0.0529
0.2164
0.8194
0.752
0.8656
-0.3766
-0.3486
-0.002522
0.5654
0.06367
-0.2622
1.323
-0.3093
-0.2698
-0.1517
-0.311
0.000582
-0.2743
0.0488
0.02724
-0.06186
-0.01252
-0.298
0.3633
-0.2744
-0.3749
0.03687
-0.316
-0.318
1.257
-0.3329
-0.287
-0.2909
-0.3542
-0.3271
-0.01991
-0.2991
-0.3203
-0.2983
-0.2108
0.0002375
-0.3367
-0.005564
0.0958
-0.3301
-0.3066
0.3982
-0.3161
-0.3269
-0.3566
0.06621
-0.2718
0.02945
0.2726
-0.3296
-0.3062
-0.2226
-0.2649
-0.0614
-0.3091
-0.0217
-0.4219
-0.3352
-0.29
0.03152
-0.3609
1.671
0.1125
0.6249
0.06147
-0.3059
-0.0196
-0.304
-0.3281
-0.3028
0.4519
-0.2983
-0.3653
0.05696
0.7036
0.00353
-0.2701
-0.4108
-0.2955
0.1051
0.05834
-0.3948
-0.1134
-0.3186
-0.4136
0.1703
0.005122
-0.3528
-0.3066
-0.08033
0.3796
0.419
-0.008477
-0.3871
-0.328
0.3642
-0.04087
0.4439
-0.4116
-0.3093
-0.3138
0.0269
5.91e-05
0.0001008
-0.01911
-0.3933
0.4131
-0.2926
-0.02439
0.01655
-0.3521
0.2273
-0.4184
0.03115
-0.02048
-0.3155
-0.346
-0.02533
-0.2797
0.3292
-0.001704
-0.02148
-0.3003
0.1985
0.1889
-0.04612
0.002865
0.1367
-0.3196
-0.2568
-0.2931
0.001106
0.0008407
0.000875
0.0004908
-0.02501
-0.2913
0.2093
0.6829
0.07865
-0.2955
-0.3659
-0.3082
0.0003464
-0.3729
-0.2962
-0.3078
-0.3185
-0.3086
-0.2973
0.04382
0.06555
-0.4058
-0.0311
-0.1275
0.04636
1.133
0.3064
0.01265
1.003
0.8552
0.02134
-0.2987
-0.3355
0.2436
0.001903
0.2087
0.6252
0.01445
-0.298
-0.3338
0.001648
-0.3814
-0.3079
-0.3411
-0.2965
-0.4192
-0.05235
-0.3212
0.004349
0.7686
-0.111
-0.3057
-0.3005
0.6819
0.0153
-0.003522
-0.2342
-0.3012
-0.335
-0.05896
-0.3434
-0.29
0.1274
1.382
0.06556
-0.3105
-0.2824
-0.2853
-0.3127
0.04151
-0.06663
0.3334
0.04385
0.6043
0.01558
0.004214
-0.2425
0.00217
1.276
-0.318
-0.03434
-0.3071
0.1928
0.0331
0.00891
-0.2979
0.1257
-0.2994
0.002946
0.2575
0.7531
-0.3082
0.02916
-0.3054
-0.3231
-0.08162
0.001643
-0.2944
-0.3463
0.1409
-0.008065
-0.2789
-0.05491
0.3055
0.4451
0.03785
-0.3126
0.02389
0.1676
-0.3127
-0.03521
0.0138
0.04758
0.1849
-0.05192
0.258
0.03098
-0.2631
-0.05259
-0.1065
-0.3143
0.002673
-0.3408
-0.2985
-0.2892
-0.3652
0.2547
-0.2182
-0.2894
0.6368
0.0288
-0.01178
-0.04462
-0.3868
-0.2812
-0.308
-0.3663
0.07088
-0.3011
-0.4079
-0.296
-0.3073
0.03107
-0.2816
-0.3076
0.1433
-0.315
0.8017
-0.02761
1.622
-0.308
-0.3214
-0.08199
-0.01587
0.06424
0.7605
0.1147
0.05148
0.7211
0.03999
0.7228
0.02522
-0.3127
-0.3826
-0.1224
-0.1771
0.3647
-0.2989
1.015
0.001148
1.428
-0.2468
0.0002087
-0.2984
-0.2959
1.122
0.00101
-0.2983
-0.3131
0.2598
1.749
-0.3549
0.4575
0.06001
-0.3042
0.006109
-0.31
0.04793
-0.3033
-0.02319
-0.2962
-0.2278
0.03381
0.1046
0.2805
0.2168
-0.02272
0.03887
0.3933
0.1331
-0.3047
0.004247
-0.1874
0.1153
-0.4305
-0.3827
-0.3096
-2.084e-05
0.04344
0.04213
0.1418
-0.2923
-0.2955
-0.2811
0.0004928
-0.05789
0.1659
0.0004585
-0.3272
0.3102
0.1466
-0.3639
-0.2962
-0.3402
-0.3125
0.0005712
0.2861
-0.009922
-0.3021
-0.3622
-0.2826
-0.3046
-0.3873
-0.2953
0.3915
0.1297
-0.2995
-0.09415
0.2734
0.5298
-0.2888
-0.0328
-0.4009
0.000426
0.1078
-0.2055
0.0413
0.1168
1.759
-0.3321
-0.1828
-0.005541
-0.3008
0.5925
-0.2803
-0.3159
0.003712
-0.2365
0.2409
-0.1339
0.4385
0.02719
0.9679
-0.3384
-0.3097
-0.3206
-0.2752
-0.4006
0.4917
-0.3514
-0.2975
-0.3135
-0.2867
-0.2595
-0.4228
0.001082
-0.2959
-0.07947
0.02405
-0.07789
-0.01528
0.02439
-0.2964
-0.3623
0.1446
0.2059
0.02548
0.001458
-0.268
0.05147
0.2401
-0.3614
0.6589
0.1068
0.001591
0.5479
-0.007637
-0.03245
-0.3246
-0.3051
0.04844
-0.3552
0.03662
-0.2906
-0.1134
0.4235
0.004517
-0.3197
-0.3157
0.004619
0.161
0.0328
-0.07385
-0.3561
-0.01761
-0.3051
0.0008477
-0.3567
-0.004815
-0.2878
-0.3242
-0.2957
-0.2975
0.02752
-0.2667
0.1155
0.2622
-0.4234
-0.06972
0.0604
-0.1817
0.1228
1.042
-0.2873
0.004214
0.001315
-0.01577
-0.1036
0.8229
-0.3082
-0.3372
0.05619
0.04885
0.7929
0.04188
0.008882
-0.1035
-0.1001
0.01365
0.003076
1.249
-0.2409
0.01852
0.0003692
-0.01577
-0.332
0.1279
0.006081
0.2668
0.3927
-0.3241
-0.4126
0.02694
-0.1098
-0.2968
-0.2542
-0.2989
-0.3339
0.0143
-0.3089
0.2477
-0.1172
-0.002533
-0.3467
0.1449
-0.278
0.782
0.02938
-0.2985
-0.4449
-0.328
-0.3588
0.07185
-0.2233
-0.1267
-0.05562
-0.306
-0.2871
-0.3041
-0.3594
0.001092
0.8937
0.1351
-0.1396
-0.3023
-0.3315
0.561
0.2533
0.005619
0.1434
-0.006082
0.000923
0.08389
-0.3487
0.03031
-0.00344
-0.01768
-0.06016
0.03007
-0.2956
-0.2992
0.0406
0.2987
-0.3581
0.3413
-0.4166
0.1143
0.04139
-0.2835
-0.4102
0.03714
-0.336
-0.3932
-0.3441
0.001706
-0.04108
-0.3136
-0.293
-0.3047
-0.276
0.5757
-0.2491
-0.3457
-0.2831
-0.2978
0.7794
-0.3002
0.3029
0.1498
0.2746
-0.1438
0.002887
-0.3005
-0.06827
0.03009
-0.41
-0.3161
0.6249
0.05076
-0.2946
0.1253
-0.3221
0.5095
-0.01137
0.04785
-0.2605
-0.3012
0.0001788
-0.3174
0.1089
0.7202
-0.2761
-0.3211
-0.03361
0.05952
-0.2523
-0.2385
0.009399
-0.3289
-0.1782
0.6943
0.02027
-0.1682
-0.2169
-0.2144
-0.4205
0.2308
-0.2813
-0.3509
0.001901
0.006493
-0.3166
-0.07055
0.002084
0.5281
-0.0182
0.4498
-0.3041
-0.2283
-0.3483
0.0006653
0.5282
-0.01086
0.2524
0.001128
-0.08858
-0.1887
-0.2995
-0.346
-0.2903
-0.287
-0.2974
0.003545
-0.3598
-0.2971
1.622
-0.3393
-0.01291
-0.3004
0.008902
0.005628
-0.2999
-0.3658
-0.1479
-0.1174
-0.3013
-0.3795
0.0007383
0.01629
0.008271
-0.2975
-0.2866
-0.03509
0.008119
-0.3
-0.3362
-0.05973
0.02711
0.2335
0.03062
0.3807
-0.3199
-0.334
1.197
0.001667
0.3913
0.000682
-0.3938
0.3441
-0.02709
-0.2971
-0.2997
-0.3067
-0.2929
-0.2995
0.2222
0.003286
-0.4158
0.1543
0.002465
-0.3673
-0.1534
-0.2983
0.001585
0.08054
-0.1805
0.1203
0.8138
-0.3149
0.02258
0.1302
0.2772
-0.304
0.08497
0.01733
-0.0007419
-0.02801
-0.3088
-0.298
0.03476
0.1277
-0.1983
0.2481
-0.2865
0.2805
0.0229
0.2059
-0.3953
-0.3017
-0.2882
0.2076
-0.1979
-0.3075
-0.3647
0.4645
-0.3094
-0.1178
-0.336
0.5161
-0.04443
-0.2048
0.008296
-0.2963
-0.2033
0.3889
0.001001
-0.3594
0.2377
-0.2092
-0.03378
-0.3351
-0.4041
-0.3785
0.001966
2.045
-0.3584
0.000441
0.007789
0.01271
-0.3073
-0.3921
0.002939
-0.3011
0.8282
0.0237
0.3376
-0.2747
-0.06678
0.09655
0.5964
0.1022
0.01316
0.002524
-0.04805
-0.3
0.03152
0.573
-0.2727
0.01576
-0.05247
0.05469
-0.4182
-0.3203
-0.3017
0.9433
0.03804
-0.1284
0.6115
0.01454
-0.3647
0.02777
-0.3001
-0.006652
-0.03862
-0.3023
-0.3287
-0.3009
0.002207
0.007514
-0.3177
-0.3452
0.05698
0.1279
0.1904
-0.2975
0.7441
0.7462
-0.2926
0.3074
-0.2916
0.01382
-0.2076
0.209
0.02042
-0.3228
0.003485
-0.2958
0.2063
-0.04811
-0.2959
-0.3434
-0.01475
-0.3342
-0.1896
-0.01153
0.0008166
0.05692
0.004634
-0.04991
-0.3
-0.3088
0.1604
0.842
-0.291
0.4177
-0.4132
-0.05178
0.1555
-0.3583
-0.09484
0.1709
0.2557
-0.01732
-0.0004195
-0.3217
-0.2978
0.005509
0.02252
-0.2958
-0.04263
0.00513
-0.2073
0.1715
-0.009062
-0.3131
0.1911
-0.2972
0.00431
-0.3594
-0.3874
0.0007162
-0.3981
-0.2772
-0.3046
-0.3005
-0.3009
0.02761
-0.2938
0.002789
-0.05113
-0.4157
1.272
0.2081
-0.08327
-0.3097
0.004686
0.008081
0.2152
0.3413
0.1547
0.03987
-0.2772
0.08609
-0.3319
-0.2942
0.06592
0.09313
-0.0403
-0.05192
-0.3041
0.02
0.3648
0.3003
-0.2566
0.101
-0.3448
-0.006719
1.318
-0.2377
-0.03367
-0.3136
-0.3395
-0.2016
-0.005442
-0.01475
0.1601
1.107
0.0746
-0.2748
-0.3138
-0.08141
0.03754
0.1807
0.0007938
0.7669
-0.171
-0.01802
-0.2919
-0.3346
0.01242
0.002767
-0.0312
-0.2965
-0.2971
0.0828
0.3955
-0.3561
0.1629
0.1127
0.03775
-0.05047
-0.2471
0.001379
-0.2368
0.2273
-0.04472
0.05573
-0.2848
0.03384
0.07838
-0.2911
-0.01732
-0.3965
1.283
-0.3061
1.801
-0.3825
-0.006234
-0.3076
-0.01867
-0.2972
-0.3656
0.4277
0.04342
-0.3671
0.2655
0.2675
-0.4068
-0.273
-0.2815
-0.2965
0.02289
0.184
0.08991
-0.3559
-0.3016
-0.2973
-0.2962
-0.3132
0.5149
-0.0124
-0.2723
-0.3361
-0.4014
2.012
0.004217
-0.001548
0.002071
-0.404
-0.3662
-0.378
-0.3248
-0.003245
-0.4063
-0.0469
0.1685
-0.3188
0.2304
-0.3628
-0.3558
-0.02051
0.09002
-0.3238
0.1015
-0.299
-0.3011
-0.04573
0.08613
-0.2986
0.00161
0.1165
-0.3111
0.3001
-0.3323
-0.2973
-0.294
-0.1231
0.06945
0.04988
-0.02455
0.02013
-0.2999
0.01499
-0.3075
-0.1751
0.5787
-0.2941
0.3297
-0.2928
0.2136
-0.3369
-0.02512
-0.1691
0.01435
1.914
-0.01202
-0.3078
0.02687
-0.4066
-0.284
-0.297
-0.2938
0.001351
0.005391
-0.389
-0.279
0.2071
0.2392
0.04835
0.001803
0.03637
-0.002068
0.142
0.3417
-0.04519
0.00145
0.3273
-0.2984
-0.1756
-0.3003
0.2422
0.6927
0.01346
-0.01887
0.01384
-0.1386
-0.4197
0.3886
0.5144
0.1292
-0.3118
-0.3113
-0.006389
0.3077
-0.3234
-0.1024
0.008037
-0.3038
0.03291
-0.3474
-0.3113
0.3786
-0.2745
-0.05985
1.511
0.09051
-0.0305
1.287
-0.3239
0.3614
-0.006295
-0.3104
-0.3079
0.0652
-0.4274
-0.2918
0.3167
0.002611
-0.3467
0.01031
-0.004359
-0.04664
0.2398
0.3919
-0.141
0.2188
-0.1274
1.946
-0.3032
0.0004343
0.0001093
0.003378
-0.0002889
0.1253
-0.3214
1.494
-0.2247
-4.403e-05
0.203
0.1158
-0.1046
0.05393
-0.2334
-0.3166
-0.2967
0.07178
-0.2971
-0.3318
0.9551
-0.3
-0.3667
-0.314
-0.003964
-0.2944
0.2337
-0.2989
-0.02124
-0.01278
-0.2221
0.7695
-0.2984
-0.3399
-0.2962
0.02955
-0.2737
-0.3459
0.2887
-0.2962
-0.002249
0.09441
0.05114
-0.07782
-0.3081
0.582
-0.3044
-0.308
0.001571
0.07189
-0.3255
-0.3272
-0.03778
0.07281
0.005307
-0.01054
-0.363
-0.3028
-0.3053
-0.4021
-0.4122
0.2167
-0.2741
0.7896
-0.04612
0.02085
0.2526
0.1035
0.0001377
-0.3015
0.05425
-0.04114
-0.2977
-0.3106
0.03028
-0.2636
-0.3003
-0.05376
0.08749
-0.0359
-0.3252
-0.2963
0.1838
-0.05518
-0.3736
-0.1804
-0.0004642
-0.2975
-0.4018
-0.07947
-0.2937
-0.3031
-0.308
0.9756
0.001301
-0.2958
0.3071
-0.3007
0.1672
-0.3186
0.125
0.05739
0.002536
-0.03735
1.971
-0.05621
0.02818
0.07367
-0.2961
0.0006675
0.08972
0.05237
-0.3591
0.02923
0.03035
-0.2771
-0.02924
0.001811
0.007573
-0.2877
1.695
-0.00432
-0.2336
0.006915
-0.03903
-0.1929
0.02593
-0.3089
0.2277
0.06274
-0.02853
-0.02267
-0.1495
0.1308
-0.2984
-0.3726
-0.2789
-0.3507
-0.08484
0.1265
-0.2986
-0.3306
-0.3408
-0.3503
-0.2972
0.00624
-0.233
-0.3318
0.2624
1.149
0.03909
0.01189
-0.3219
0.08529
0.0655
0.3734
-0.1435
-0.2563
-0.412
0.0665
0.204
0.001294
-0.2979
-0.3239
-0.4415
-0.2933
-0.2978
-0.1907
0.0006215
0.3337
-0.2553
0.1109
0.01762
0.01458
-0.3067
-0.3939
-0.3756
1.363
0.5804
0.5124
0.7727
-0.05943
0.0007413
-0.3043
-0.3538
-0.3075
0.08608
-0.1755
-0.007077
-0.3025
-0.3283
0.2441
-0.3198
0.02868
-0.1035
-0.2105
-0.1546
0.5365
0.03951
0.4606
-0.05035
-0.2972
-0.4182
-0.3657
0.1526
-0.2988
-0.2925
-0.02515
0.1384
0.05778
0.1019
0.01538
-0.292
-0.2931
-0.2576
0.4109
-0.12
0.002175
0.006462
-0.3098
-6.075e-05
0.02427
0.09437
0.0001347
0.000275
0.3934
0.001917
-0.3154
-0.4434
-0.04815
-0.2895
0.1277
0.007416
0.02829
-0.3492
0.02225
0.759
-0.007098
-0.3376
0.004631
-0.2906
-0.2187
-0.04763
-0.2091
0.02941
-0.02533
-0.07195
0.008203
0.00906
-0.3003
0.1146
0.1395
0.0642
-0.4219
0.001303
-0.01892
0.009441
-0.2988
-0.1642
-0.3004
-0.2834
0.1846
-0.1816
-0.2999
-0.299
0.1413
-0.2944
0.003895
-0.3579
0.01719
0.1534
-0.3377
-0.2567
0.02357
-0.3003
-0.2969
-0.3601
-0.2968
0.1606
-0.3038
0.07075
0.1428
-0.3085
0.02943
0.7195
0.257
0.4339
0.02319
-0.1534
0.0468
-0.1396
0.179
-0.3102
-0.2838
-0.2943
-0.2917
0.002385
0.4917
0.002163
-0.3044
1.497
-0.2854
0.3235
0.002587
-0.09589
0.02493
0.01104
-0.3059
-0.2142
0.2958
0.05975
1.468
0.003562
-0.2996
-0.3866
-0.2969
-0.3006
1.001
-0.3761
0.294
-0.004579
-0.006321
-0.3085
1.133
0.0456
0.01905
-0.3092
-0.2843
1.159
-0.161
1.21
0.03411
-0.03422
0.03668
0.04759
-0.007717
-0.2985
0.201
-0.3074
0.0005507
-0.3179
0.2405
-0.4112
-0.04737
-0.1328
-0.04958
-0.3686
0.9085
0.1069
0.04866
-0.2972
0.03299
-0.03983
0.0033
-0.2983
0.4866
-0.02653
-0.004499
-0.3269
-0.299
0.03084
-0.3184
-0.01047
0.2049
-0.1918
0.7432
-0.302
-0.2075
-0.313
-0.3264
-0.3105
-0.4186
-0.3034
-0.3493
-0.3031
-0.06434
0.004675
-0.4189
0.003167
0.3384
0.4231
0.07932
-0.2974
0.5071
-0.3121
-0.2964
0.0001868
0.04974
-0.327
-0.1922
-0.3059
-0.01479
-0.3067
-0.3994
0.0652
0.001225
-0.2503
0.05495
-0.3226
-0.2522
-0.2875
0.7716
1.095
-0.3105
-0.4064
-0.3864
-0.2982
-0.2964
0.1224
-0.3035
0.6461
0.0539
-0.2962
-0.299
-0.3116
-0.3804
-0.2976
0.02978
0.7255
0.4033
-0.1838
0.6294
0.7017
-0.3007
-0.3117
0.001736
0.001358
-0.02352
-0.3001
0.04849
0.01689
0.485
-0.3
0.3805
0.2052
0.007654
-0.012
-0.03418
-0.3008
-0.3267
-0.3605
-0.3723
-0.1127
-0.2969
-0.2127
0.1037
-0.3217
1.272
-0.1891
-0.006278
0.04242
-0.2975
-0.007381
0.002931
-0.3101
-0.3128
-0.3127
-0.326
-0.2988
0.04775
-0.3008
-0.3808
-0.2405
0.3256
0.2038
-0.3051
0.001003
0.1263
0.1186
0.1513
-0.2975
-0.369
0.2277
-0.2247
-0.2701
0.03177
-0.4145
-0.03877
-0.2835
-0.3063
0.2377
-0.3308
-0.3773
1.779
0.2892
0.1683
-0.02318
0.007462
0.03054
-0.295
0.03031
-0.2865
0.01693
0.04521
0.005852
-0.3331
0.04157
-0.3334
-0.3095
0.4524
-0.3167
-0.3138
0.1595
0.06508
-0.2967
0.00445
-0.3758
-0.1933
0.04583
-0.37
0.06169
-0.4067
-0.06209
0.008102
-0.05317
-0.2845
0.5394
0.06978
1.269
-0.1591
0.7444
-0.2768
-0.3001
0.02011
-0.316
0.00621
0.04221
0.2263
-0.09802
0.1346
0.07924
0.3077
-0.3416
0.03474
0.000726
-0.1332
-0.2952
-0.3031
0.2007
-0.461
-0.2707
-0.03534
-0.3462
-0.06863
-0.08083
0.01307
-0.2982
0.04069
-0.2918
-0.2887
-0.2956
0.2359
-0.4115
-0.3356
0.5168
0.005428
-0.2727
-0.2948
-0.08209
-0.2985
0.09716
0.1835
0.01174
-0.2958
-0.3323
-0.2397
0.7926
0.04048
-0.3867
-0.3626
-0.2772
-0.2985
-0.3299
0.6605
-0.3111
0.6255
-0.00627
0.004927
0.06509
-0.1135
0.334
0.759
0.02373
-0.05179
-0.3041
-0.4077
-0.1924
-0.2978
1.363
0.001416
-0.3008
0.7369
-0.002065
-0.2147
0.1996
-0.3026
0.04052
-0.3939
-0.2573
-0.3833
-0.2704
0.0005359
-0.04594
-0.3173
0.3131
0.06444
0.01236
-0.3033
-0.2957
0.03501
-0.2991
-0.2527
-0.3019
-0.3066
0.148
0.3093
0.001854
-0.2981
-0.3003
1.769
0.04965
1.123
0.04812
-0.3389
-0.2952
-0.2769
0.07692
-0.3262
-0.3716
0.2019
-0.1695
-0.04197
-0.3631
0.1855
-0.3189
0.1886
-0.06355
5.307e-05
0.07995
-0.3087
0.2169
0.1171
0.0202
-0.002389
0.03359
-0.3284
0.515
0.1927
0.7056
-0.2739
0.05784
-0.02675
-0.3163
-0.3241
0.0655
-0.2987
-0.07064
-0.00362
0.1063
-0.3365
0.4796
1.649
-0.2684
-0.4141