/*--------------------------------*- C++ -*----------------------------------*\
  =========                 |
  \\      /  F ield         | OpenFOAM: The Open Source CFD Toolbox
   \\    /   O peration     | Website:  https://openfoam.org
    \\  /    A nd           | Version:  8
     \\/     M anipulation  |
\*---------------------------------------------------------------------------*/
FoamFile
{
    version     2.0;
    format      ascii;
    class       surfaceScalarField;
    location    "5";
    object      phi;
}
// * * * * * * * * * * * * * * * * * * * * * * * * * * * * * * * * * * * * * //

dimensions      [0 3 -1 0 0 0 0];

internalField   nonuniform List<scalar> 
189008
(
8.397e-06
-8.397e-06
1.927e-06
-1.928e-06
-5.644e-08
5.623e-08
-2.125e-07
2.123e-07
-6.459e-05
6.46e-05
-2.104e-07
2.101e-07
0.0001071
-0.0001071
-7.867e-05
7.867e-05
-6.247e-05
6.247e-05
-0.0001363
0.0001363
6.838e-05
-6.838e-05
-6.726e-05
6.726e-05
-1.973e-06
1.973e-06
2.132e-07
-2.135e-07
0.0002716
-0.0002877
1.613e-05
9.156e-05
-0.0001119
2.035e-05
-5.181e-06
5.182e-06
0.02435
-0.01017
-0.01418
0.003726
-0.002466
-0.00126
-8.254e-05
9.848e-05
-1.594e-05
-0.001759
0.001517
0.0002419
-4.026e-05
1.806e-05
2.22e-05
-0.002326
0.009607
-0.00728
1.576e-05
0.0006267
-0.0006425
-2.066e-05
-1.961e-05
-0.0009725
0.0004628
0.0005097
0.0005439
-0.0006092
6.532e-05
0.0006117
-6.773e-05
0.0006783
-0.0004653
-0.000213
0.01503
-0.02626
0.01123
-6.196e-05
-0.0003163
0.0003783
-0.0003517
-0.0006208
0.0004811
-0.0002735
-0.0002075
0.000681
-0.0003654
-0.0003156
0.01221
0.009768
-0.02198
0.0002058
0.0002752
-4.949e-05
-0.0004014
0.0004509
-0.003334
0.003993
-0.0006594
-4.724e-05
0.0006198
-0.0005726
-0.0001829
0.0002063
-2.334e-05
0.002062
0.001665
0.001037
-0.002797
0.00176
-0.0001776
-0.003273
0.00345
5.904e-06
-5.905e-06
0.0004619
0.02389
0.0004194
0.0002616
0.0003842
0.0002941
0.0007565
-0.000759
2.436e-06
-0.0009571
0.00117
-0.0002133
-2.824e-05
0.0005135
-0.0004852
2.718e-05
6.438e-05
-0.009924
-0.03103
0.04096
0.000498
0.0002019
-0.0006999
-0.0106
0.008624
0.001979
1.092
-0.1318
-0.9603
0.001531
-0.001178
-0.0003535
-0.1436
1.236
0.009857
-0.006279
-0.003577
-0.3085
0.01952
0.289
-0.005379
-0.005224
-0.002281
-0.0005649
0.002846
0.001253
-0.002119
0.0008658
-0.0001415
0.001326
-0.001184
-0.8106
0.9572
-0.1467
0.0003243
-0.0008016
0.0004772
-0.0001906
-0.003438
0.003629
-0.02552
0.01919
0.006329
0.001671
-0.001373
-0.0002976
0.0004655
0.001205
-1.278
0.4789
0.7991
-8.214e-05
-0.0004253
0.0005074
-0.0001877
-0.0004216
0.0006086
0.002212
-0.00282
-0.1149
-0.1936
-0.2795
0.5203
-0.2408
0.0002013
0.0004104
-0.04813
0.08874
-0.0406
0.0008802
-0.0008164
-6.378e-05
0.0007346
0.0007967
0.1612
-0.6347
0.4736
-0.0006663
0.0004574
0.0002089
-2.763e-05
-5.491e-05
-0.000334
-0.0004767
0.0008107
2.322e-05
0.0001339
-0.0001571
-0.0005534
0.0008347
-0.0002814
0.0004817
-0.0007445
0.0002629
-0.0006145
0.0012
-0.0005858
-0.0006291
0.0002386
0.0003905
-0.003207
0.003016
-0.0003828
0.0006025
-0.0002197
0.1802
-0.01419
-0.166
-0.005635
-0.00237
0.008005
-0.000319
0.0007723
-0.0004533
-0.0009805
-0.0007786
-0.0009729
0.0009987
-2.582e-05
0.02049
0.01386
-0.03435
0.002717
-0.00168
0.0005015
-0.0005065
5.025e-06
0.0007123
0.0001453
-0.0008575
-0.01768
-0.007843
0.687
-0.5258
-1.64e-05
-0.0009407
-8.845e-05
-0.0001978
0.0002863
0.003476
-0.004183
0.0007074
-0.0001398
0.0006214
0.0009474
-0.0002351
-0.0009755
0.00141
-0.0004343
-1.001
-0.2773
-0.001451
0.0007019
0.0007489
-1.17
0.888
0.2822
0.0002807
-9.088e-06
-0.0003995
-0.0002296
0.001396
-0.0002193
-0.001177
-0.0001401
-0.0002887
0.0004288
-0.2105
0.09695
0.1135
0.0006114
0.002159
-0.00277
-0.1028
0.05715
0.04563
0.1618
-0.4413
0.02495
-0.07308
1.092e-07
-2.419e-07
1.325e-07
-1.269
0.09897
-0.0001627
-0.0003657
0.0005284
-0.0004584
-0.0008373
0.001296
0.0123
-0.01029
-0.002013
-0.0003813
-0.000285
0.0008808
-0.0008065
-7.435e-05
0.001168
0.0005255
-0.001694
0.08782
-0.1009
0.01304
0.001497
-0.000591
-0.0009056
-0.001048
0.0008266
0.0002213
-0.0007693
0.0002442
0.0005252
-0.000814
0.0003139
0.0005001
-0.0002553
-0.0009847
0.00124
0.00037
0.0005102
8.663e-06
-6.977e-06
-1.685e-06
-0.0008138
4.441e-05
-0.005559
0.03055
-0.025
0.0007476
-0.00136
0.0006125
-0.0004752
0.0005647
-8.952e-05
0.02769
-0.04698
0.01929
0.009376
-1.327e-05
-0.009362
-0.04819
-0.03896
0.08715
0.001397
-0.00162
0.0002233
0.003069
-0.001683
-0.001386
0.0007935
-0.0002954
0.001135
-0.0003497
-0.0007856
1.188e-06
1.062e-05
-1.181e-05
-0.0268
-0.7838
-0.001012
0.000198
0.0002066
-0.0003383
0.0001317
0.002006
-0.002918
0.0009119
0.001292
-0.000344
-0.0009477
0.002666
-0.004664
0.001999
-0.008415
-0.0004158
0.00883
0.0003626
-0.000702
0.0003394
-0.0006822
0.0001288
0.006373
0.003484
0.001062
-0.0008439
-0.0002179
0.0001672
0.0005893
0.0002426
-0.0005
0.0002575
-0.0003259
0.0006205
-0.0002946
-0.0003162
0.0003162
0.1922
-0.01206
-0.0009768
0.0003049
0.0006719
0.0003156
-0.0007537
0.0004381
-0.0002428
0.0005671
0.0004669
-5.594e-05
-0.0004109
0.0003543
0.001812
-0.002167
-0.0007751
0.0005713
0.0002038
-0.03951
0.03224
0.007273
-2.457e-05
-5.302e-05
7.759e-05
0.001987
0.001082
-0.004054
0.00168
0.002373
-0.002814
0.0009066
0.001908
1.004
-1.171
0.1674
0.0002851
-0.0002362
-4.884e-05
-0.0006344
0.0002993
0.0003351
0.0008379
0.0006587
-0.0004626
0.0009354
-0.0004728
0.1119
-0.1337
0.02181
-0.001838
-0.0009762
-0.1165
-0.006034
0.1225
1.912e-05
-0.0002088
0.0001897
0.000135
0.00015
-0.0004105
-0.0006374
-0.0006915
0.001945
-0.0006007
-0.005406
0.006006
-0.0005252
0.0003852
0.0005811
-0.0005653
-0.006279
0.07961
-0.07334
6.976e-05
-0.0005385
0.0004687
0.0004665
9.066e-05
-0.0005572
-0.0374
0.03184
0.0003045
-0.0004528
0.0001483
3.481e-06
-0.0003818
-0.001504
0.001886
-1.468
1.197
0.2708
-1.466
1.196
0.2706
5.896e-05
-6.041e-06
-5.292e-05
-0.1632
0.1304
0.03279
0.2093
-0.04267
-0.1666
-0.05457
0.04653
0.008042
0.01993
-0.05392
0.03399
-0.000385
0.0003355
2.027e-07
-2.031e-07
0.0002744
-0.0009161
0.0006418
0.02563
-0.008585
-0.01704
0.00247
-0.0005807
-0.001889
0.03713
-0.0221
-0.2056
-0.004855
-0.0004745
-0.01371
0.01419
0.0008119
-0.000445
-0.000367
-0.06492
0.2022
-0.1373
-0.0003386
-0.0004365
-6.859e-06
0.0004113
-0.0004044
3.67e-05
-4.768e-05
1.099e-05
9.744e-05
-8.789e-05
-9.547e-06
0.003219
-0.001928
-0.001291
0.0002336
-0.0007845
0.0005509
0.02058
0.005047
-0.0005068
0.0001356
0.0003712
-0.4688
0.218
0.2507
0.001131
0.0001605
-0.0005731
0.0008246
-0.0002515
0.0002424
0.0001655
-0.0004079
0.0001128
-9.332e-05
-1.949e-05
-0.0004508
0.0007664
1.186e-05
-0.003346
-0.0001509
0.0001535
-2.645e-06
-0.001044
0.0009182
0.0001254
0.001592
-0.0004515
-0.00114
-0.04174
-0.07474
0.002727
-0.002118
-8.409e-07
3.453e-06
-2.613e-06
0.0009474
0.0006444
-0.02119
0.01731
0.003875
-0.0003204
-0.0006564
3.142e-05
-3.142e-05
0.2271
-0.01781
0.0009269
-0.0001529
-0.000774
0.0008104
-0.0003439
0.0004199
-0.0009194
0.0004995
-0.0006116
0.0004024
0.0002092
0.0005696
0.0004922
0.0004609
0.0002686
-0.0007295
-1.263e-07
2.355e-07
0.0009616
0.0004588
-0.00142
-0.0006028
0.0005339
6.893e-05
-8.218e-05
8.218e-05
0.1913
-0.9544
0.763
-0.0008059
-0.001224
0.002029
-0.0002097
0.0005888
-0.0003791
0.00221
-0.001048
-0.001162
0.002165
-0.0006828
-0.001482
-0.0002063
0.0009859
-0.0007795
0.0007939
-0.0004525
-0.0003414
0.1145
-0.02666
8.961e-05
-0.0004516
0.000362
-0.0001922
0.001407
-0.001215
-0.009348
0.0006421
0.008706
-0.002561
0.00132
0.001242
-0.05788
0.09358
-0.0357
-0.01029
0.004658
-0.08612
0.03794
-0.0007012
-0.0007749
0.001476
6.864e-05
0.0006062
-0.0006748
-0.0002448
0.0005227
-0.0002779
0.0002477
-0.0005744
0.0003267
-0.0009291
-0.001223
0.002152
0.001473
-0.00388
0.002407
-0.0008625
-4.548e-06
0.000867
0.8418
0.1623
-0.0007284
0.0009426
-0.0002142
0.001026
-9.871e-05
0.0009217
-0.001542
0.0006201
-0.0006065
0.0006763
0.000749
0.0006474
0.001115
-0.001311
0.0001964
-0.3699
-0.4234
0.7932
0.0007995
0.001329
-0.002128
-0.5331
-0.3389
0.8721
0.03467
-0.01418
0.003469
6.742e-06
-0.08928
-0.1645
0.2538
0.04999
0.1165
-0.1665
1.102e-05
-5.182e-06
-5.837e-06
0.0008489
-0.0006832
-0.0001657
-0.07661
-0.09939
0.176
0.001435
-0.001065
-0.0003698
0.1565
-0.04462
-0.0008137
0.003479
-0.002114
0.005126
-0.003012
-0.009154
-0.01203
0.0009354
0.001232
-0.002167
-0.2008
0.2382
-0.0374
-0.0005912
0.001036
-0.0004452
-0.0002836
-0.0002165
0.0005002
0.0001197
-0.0001291
9.463e-06
-0.0002151
-0.0003966
0.002787
-0.001314
-0.0002957
-0.0005399
0.0008356
-0.004081
0.001306
0.002775
-0.001119
-0.002088
0.003207
0.003312
-0.002701
-0.0002141
0.0003853
-0.0001711
0.0008078
0.0001607
-0.0009685
0.002253
0.0002171
-0.1845
0.1196
-0.004582
0.002281
0.002301
-0.002517
0.00256
-4.367e-05
0.001121
0.0001081
-0.001229
6.225e-05
-1.857e-05
-4.368e-05
-0.001097
0.0007054
0.0003915
-0.8385
0.3054
-0.2537
0.1324
0.1213
0.0003149
6.264e-05
-0.0003775
0.002273
-0.003057
0.0007845
-0.0002524
-0.0004408
0.0006931
0.01315
-0.00766
-0.005486
0.1804
-0.1706
-0.009723
0.009399
-0.01173
-0.0004606
-3.604e-05
0.0004966
0.08948
-0.0498
-0.03968
0.001547
0.0006629
0.0004374
-0.0001224
-0.0007414
0.001922
-0.00118
-0.01396
0.02976
-0.01581
0.0003171
-0.0004491
0.0001319
0.0008215
-0.0003202
-0.0005013
-0.001434
0.0005221
0.0009123
0.00215
-0.001168
-0.0009824
0.1961
-0.1461
-0.004691
0.0169
-0.4999
-0.968
-0.4993
-0.9672
-0.01086
0.002447
-0.001161
0.000961
0.0001995
-0.003903
-0.0001504
0.0006693
0.001481
7.642e-05
0.0006166
-0.000693
-0.0123
0.03999
0.002194
0.001025
-0.0009025
0.000315
0.0005876
6.468e-05
0.0003425
-0.0004072
-0.001268
0.001078
0.0001906
0.0004173
0.001018
0.0006842
-0.0002661
-0.0004181
-0.000816
0.001033
-0.0002167
0.000958
-0.0006531
-0.0003049
-0.000239
0.001251
-0.001012
-0.001198
0.0009258
0.0002726
-0.002778
0.003749
-0.0009709
3.086e-05
-0.000226
0.0001951
-0.0005418
-0.0008658
-0.02639
0.02726
0.0007853
-0.0006866
-9.866e-05
0.001744
0.000421
-0.0004268
-0.0007694
0.001196
0.2823
-0.3896
0.1074
0.000676
0.0001455
-0.0004596
0.0008811
-0.0004215
-0.001464
0.001323
-0.005572
-0.004616
0.01019
0.0009119
-0.0009513
3.942e-05
-8.788e-05
0.0007307
-0.0006428
0.3843
0.134
-0.5184
-0.1146
-0.04863
-0.1734
0.2395
-0.06606
0.0004755
-0.0005827
0.0001072
0.4176
-0.7875
-0.001681
0.002332
-0.0006507
0.05645
0.03303
0.0004053
-0.000615
7.628e-05
-0.0005972
0.0005209
0.1065
-0.1128
0.02419
-0.009436
-0.01476
-0.0001938
0.0009653
-0.0007715
7.68e-06
-2.327e-07
-7.447e-06
0.0006356
-0.00111
0.0004749
0.8931
-0.667
-0.2261
0.0005049
0.005546
-0.006051
0.0001644
0.0007164
-0.001198
0.0008424
0.000356
0.006422
-0.004853
-0.001569
-0.084
-0.01879
8.766e-05
1.575e-05
-0.0001034
0.01396
-0.01893
0.004966
2.719e-06
-0.0001856
0.001403
-0.001866
0.0004627
-0.001138
-0.00217
0.003307
0.2466
-0.2556
0.009016
0.006502
-0.005327
-0.001175
-3.492e-05
0.0001371
-0.0001022
0.0002667
0.0007308
-0.0009974
-0.0007812
0.0008675
-8.633e-05
-0.0001886
0.0004074
-0.0002189
0.004532
0.00197
-0.0004057
0.0003437
-0.02146
0.02059
0.01434
-0.07222
0.0001644
-0.0002882
0.0001237
-0.5084
0.03962
0.001879
4.646e-05
-0.001925
0.0002285
-0.0002094
-0.001906
0.01587
-0.003567
0.002836
0.0007315
0.0002788
-0.0009003
0.0006215
-0.001785
0.001777
8.266e-06
0.1104
0.4881
-0.5985
0.0004491
-0.0009117
-0.0003285
-0.0002303
0.0005588
-0.00113
-2.676e-05
0.001157
0.001632
0.007743
0.0001245
0.0004984
-0.0006229
-0.001232
0.000774
-0.0003183
-0.0006546
0.001234
-0.001063
-0.0001712
-0.001083
0.0002209
-0.0008477
0.002556
-0.001708
-0.001031
0.0001947
0.0008365
0.0005207
-5.387e-05
0.0002443
-0.0002234
-2.094e-05
0.0005602
-0.0006023
4.215e-05
-0.6691
0.8605
-0.001382
0.0003383
0.006067
-0.009462
0.003394
-0.00335
0.003172
-0.01166
0.0002637
0.0114
0.0005946
-0.0001747
-0.009034
-0.008078
0.01711
-1.286
1.448
-0.1629
-0.0007369
0.0007475
-1.06e-05
0.0001722
0.0001326
-0.0003048
0.002149
0.008227
-0.01038
0.002703
-0.002912
0.0002087
0.5738
-0.1895
0.0009039
-0.001793
0.0008892
0.0001404
-0.000623
0.0004826
-0.05558
0.04566
-0.01813
-0.1827
0.704
-0.6548
-0.04922
0.0006786
-0.0007068
0.05415
-0.0236
-0.0003875
-0.0001495
0.000537
0.04941
-0.0526
0.003184
6.556e-05
0.000436
-0.008921
-0.132
0.1409
0.0007738
-0.000561
-0.0002129
0.05478
-0.2282
0.0002867
0.0005252
-0.001142
0.001199
-5.689e-05
-0.001125
0.0006143
0.0005107
-0.001051
0.002398
-0.001347
0.0002894
-0.0006048
0.0003154
-0.01919
0.00858
0.01061
-0.0006046
0.0003219
0.0002827
0.0006464
0.0002494
-0.0008959
-0.0007657
7.967e-05
0.000686
-0.0006687
0.0001486
0.00052
0.001031
0.00515
-0.006182
-0.001995
0.00174
0.0004084
0.0007085
-0.001117
0.0009483
-0.003052
0.002104
0.0006957
-0.001123
0.000427
-0.0006222
0.001031
0.3397
-0.9172
0.5775
0.1195
-0.003046
-0.1164
0.001926
-0.0008313
-0.001095
-0.0005426
0.000575
-3.242e-05
-1.552
0.1241
1.427
-0.001462
0.0009102
0.0005518
-0.00345
0.009409
-0.005959
0.004874
0.007429
-0.0006523
0.002925
0.02976
-0.01493
-0.01483
1.429
-0.2701
-1.159
0.0001998
-0.000611
0.0004112
-0.008147
0.004697
-0.0002348
0.0002043
3.045e-05
-0.0009504
0.0004753
0.0004752
0.0005817
-0.0003635
-0.0002181
0.0006371
-5.352e-05
-0.0005836
0.0006514
-0.0001073
-0.0005441
-0.0005869
-0.00051
-0.0008439
9.233e-05
0.0007516
0.0005351
0.002168
0.001052
-0.0003476
-0.0007041
-0.1217
0.2567
-0.1351
-0.0003488
0.0005914
-0.09822
0.08059
0.01763
0.0005477
-0.0004825
-6.523e-05
0.0005613
-0.001176
-0.0008689
0.0007906
7.832e-05
3.308e-05
-0.0011
0.001067
1.686e-07
3.388e-08
0.0008847
-0.0004428
-0.0004419
-0.001293
0.0009242
0.000369
0.02645
-0.01508
-0.01136
0.00126
-0.001877
0.0006175
-0.2812
0.2306
0.05056
0.0003741
0.0002075
0.114
0.005447
-0.0003413
-1.97e-05
0.000361
-0.001685
0.001303
-8.384e-06
8.384e-06
2.889e-06
-6.326e-06
3.435e-06
1.219e-05
-1.079e-05
-1.393e-06
1.201
-0.8206
-0.3802
0.0003793
0.000406
-0.0002141
0.001003
-0.000789
-0.1428
-0.111
0.001221
-7.813e-05
-0.001143
-0.0003419
0.001042
-0.0006999
0.0005242
-0.0005663
4.214e-05
0.002824
-0.000222
-0.002602
-2.965e-05
-0.001112
-0.0009446
-0.0001803
-0.0009243
-0.0005377
-0.0005277
0.0004824
4.533e-05
-0.4271
0.7667
0.0006964
-0.0002608
-0.0004356
-3.12e-05
2.999e-05
1.208e-06
0.0006968
-0.0007998
0.000103
0.000709
-0.0001762
-0.0005329
-9.887e-05
7.43e-05
0.06243
-0.1773
0.002625
-0.0006191
-0.04042
0.06035
0.003133
-0.002185
0.04478
0.2417
-0.2865
-0.0006289
0.0001581
0.0004708
-0.0001423
-0.0002163
0.0003586
-0.0002063
0.0001927
1.36e-05
1.532
-0.9055
-0.6263
0.001558
0.0003676
0.009349
0.002918
-0.01227
-4.942e-05
6.462e-05
-1.521e-05
-0.0007709
-3.325e-05
0.0008041
0.0005217
-2.373e-05
-0.000498
-0.004296
0.0008499
0.003446
-0.1024
0.0983
0.004097
-4.982e-05
0.0002484
-0.0001986
0.001011
0.0007851
-0.001796
-0.8101
-0.7414
0.00234
-0.004482
0.0006575
0.003824
-0.00056
0.0002763
0.0003075
0.0006044
-1.12e-05
-0.0005314
-0.0004006
6.748e-05
0.0003331
0.001647
-0.0002444
-0.00282
0.002896
-7.633e-05
0.0009886
7.518e-06
-0.0009962
-0.0002744
0.0005994
-0.000325
-0.0001845
-0.0005524
0.116
0.05315
-0.1692
-0.0002282
0.0001614
6.686e-05
-8.835e-05
0.0005855
-0.0004971
0.0009115
-0.00104
0.0001286
0.0008471
-0.001812
0.0009652
-0.0002533
0.0004291
-0.0001757
-0.7899
0.113
0.6769
-0.7881
0.6287
0.1594
0.001064
-0.01041
0.0006389
4.53e-05
-0.0007011
-0.0007149
0.001416
0.1359
-0.2049
0.06901
1.475
-0.6518
-0.8231
-0.001597
0.002602
-0.001005
0.0003779
-0.0005713
0.0001934
0.001042
-0.0004404
-0.0006013
-0.0008121
-3.178e-05
-0.0002604
-2.945e-05
0.0002899
0.0003479
-0.0003194
-2.849e-05
-0.002922
0.002809
0.000113
-0.1398
0.09726
0.04258
1.413
-1.289
-0.1239
0.0002156
-0.0001034
-0.0001122
0.0003081
0.0005771
-0.0008851
0.0005078
-0.001607
0.001099
0.3076
0.5194
-0.827
-0.0001664
-0.0004364
0.001907
-0.002222
0.0003143
0.000563
-0.0005472
-1.582e-05
0.4697
-0.0008577
0.001035
-0.000177
-0.02647
0.1624
-0.0003661
0.0006449
0.0004291
-4.555e-05
-0.0003836
0.003723
-0.004624
0.000901
0.9761
0.1608
-1.137
7.077e-05
0.0002798
-0.0003506
-0.001867
-0.0006941
-0.0005153
0.0001991
0.3947
1.035
0.0003797
-0.001355
6.77e-05
2.974e-05
0.4003
0.3037
-0.00135
-0.002217
-0.1631
0.00646
0.1567
-0.0003088
-0.0003973
0.0007061
0.001453
-0.0004258
-0.001028
-0.2774
0.1881
-0.0006372
0.0005748
6.24e-05
0.0003372
0.000695
-0.001032
7.503e-05
-2.778e-05
-4.725e-05
0.0004199
0.0003221
-0.000742
0.002009
-0.001122
-0.0008873
-0.000301
-0.0008974
-0.0003557
-0.0008427
0.0006451
0.0002307
-0.0008758
0.0006787
-0.000726
0.0004214
-0.0007404
0.0005597
-0.0009023
0.0003426
-0.0002375
0.000245
-7.49e-06
-0.001531
0.001172
0.0003597
0.0006985
-0.0004989
-0.0001996
-0.5998
0.9073
0.001215
-0.000799
-0.0004155
0.1071
-0.1919
0.08479
-0.0005405
-0.0007278
-0.1214
0.0328
0.08864
-0.0002768
0.001674
-0.3451
-0.9404
-0.151
0.07435
-0.001841
-0.004221
0.006062
-0.0004954
-0.0005358
0.0007259
0.0005063
-0.001232
-1.044
0.1263
0.9177
1.122
-0.9126
-0.2098
-0.0002275
7.666e-05
0.0003246
0.0002789
-0.0006035
0.0002969
-0.0006309
-0.0009129
0.0003646
0.0005483
-0.001589
0.0006703
0.0009188
0.0003461
-0.0007336
0.000973
-0.001389
0.0004162
-0.0008403
0.0005118
0.0006899
-0.0003474
0.0001626
-0.0004493
0.0002867
0.0003598
0.0001139
-0.0004738
-1.167
0.1232
-0.0002111
-0.0006364
0.0008475
-4.816e-05
0.0005927
-0.0005445
9.865e-05
-0.004533
0.004435
0.006716
-0.003209
-0.003507
0.1842
-0.2396
0.05539
1.032
0.4429
0.001256
-0.001998
-2.627e-05
-0.0004489
0.0004398
0.0006119
-0.0001314
7.231e-05
5.913e-05
-0.07339
-0.04806
-0.9817
-0.4045
1.386
0.0003006
0.0002191
-0.0005197
0.0008609
-9.993e-06
-0.0008509
-0.04861
-0.005954
-0.0002176
-0.0002863
0.000504
0.01366
-0.002406
-0.01126
-0.02995
0.07814
-0.04819
0.0007262
-0.0002925
-0.0004337
0.00221
-0.002724
0.0005136
0.0006278
-0.0006759
0.005159
-0.009584
0.004425
-8.364e-06
8.364e-06
0.000143
-3.023e-05
-7.972e-05
-0.0005889
-0.0004332
-0.0001714
0.0004401
0.0004088
-0.0005437
-0.000259
0.0008028
-0.0008072
-5.051e-05
0.0004116
-0.0007482
0.0003366
0.055
0.004528
-0.05952
-0.001154
0.000388
0.000766
-0.0001059
6.813e-05
3.772e-05
0.0004701
0.001409
0.7554
-1.085
0.3293
0.001331
-0.0002161
-0.005011
0.004285
0.0007256
0.002462
-0.00405
0.001588
1.081
0.4513
-0.02577
0.7812
6.58e-06
3.719e-06
-1.03e-05
0.02088
0.005567
0.0004999
-0.0009275
0.0004276
-0.0004515
0.0004575
-6.021e-06
-0.0004545
0.0008049
-0.0003503
-0.003472
-0.00111
0.002377
0.00303
-0.005407
0.0005045
-0.0002621
0.004465
-0.007023
0.002558
0.001228
-0.001037
-0.0001906
-0.1562
-0.1968
0.353
1.067
-0.04449
-1.022
-0.002084
-9.532e-05
0.002179
-0.002141
0.008208
-0.0001417
0.0006172
-0.0009822
0.003444
0.0006686
-0.0007558
8.722e-05
-0.001764
0.0006233
0.001141
0.0003814
0.0002433
-0.0006247
-0.01591
0.01543
0.00312
-0.008692
-1.117
-0.3847
1.502
-0.0001934
0.0003784
-0.000185
0.02303
0.006728
-0.001439
0.001053
0.0003863
2.635e-06
-0.002054
0.0005897
0.001464
-0.002017
0.001315
-0.0003534
0.000989
1.253
-0.277
-0.001407
0.001604
-0.0001975
-0.0003496
-0.0005982
0.0009478
0.0001433
-0.0001524
9.065e-06
0.0002901
0.004063
-0.004353
-0.001441
-0.0007587
0.0022
0.0004534
0.0002365
-0.0001185
0.0003252
0.0005831
0.0006511
0.0001651
-0.0005904
0.0004253
-0.00137
-0.0008019
0.002172
0.0006942
-0.0009005
0.00109
-0.001889
0.0007997
-0.002698
0.0001813
-6.189e-05
0.00123
0.003135
-0.005645
0.002509
-1.254e-05
1.254e-05
-0.001181
-0.00383
-0.06301
0.0235
0.0001639
-0.001366
0.001202
0.0002019
0.0003804
-0.0005822
2.811e-06
0.0009973
-0.001
0.1076
0.3765
-0.4841
0.0002008
-5.18e-05
-0.000149
0.000568
-0.003346
0.0009044
0.0001373
-1.506
0.5244
-4.258e-05
-8.885e-05
0.0006798
-0.0001196
0.0008473
-0.00102
0.0001727
-0.3855
-0.6309
1.016
-6.454e-05
0.0004762
-0.0002405
0.0002807
-4.024e-05
-0.0002111
0.0006919
-0.0004808
-0.0001859
0.0007832
-0.0005973
-1.189
0.8038
0.0009673
-0.0005929
-0.0003744
-7.266e-05
2.47e-05
4.796e-05
-0.000403
0.0006572
-0.0002542
0.001831
-0.001748
-8.326e-05
-0.1546
0.06312
0.09147
-0.0007402
-0.0001623
-0.0003017
6.237e-05
0.0002393
-0.1611
0.17
-0.008843
0.002457
0.0004662
-0.002923
-0.003572
0.003535
3.673e-05
-0.0006754
0.0001316
0.000599
0.0002857
-0.002473
0.003778
-0.00233
0.0002761
-5.752e-05
-0.0007535
0.000811
0.0001769
-0.0004217
0.2827
0.5893
-0.872
0.0007179
0.0002494
0.001064
-0.001659
0.0005949
0.0003049
-0.0003128
7.83e-06
-0.0002101
-0.0009202
-0.01117
0.008806
0.002359
0.001427
-0.0002061
-7.917e-05
-0.0003214
1.032
-0.7491
-5.949e-05
0.0005837
0.0003326
0.0003936
-0.000472
-0.0002305
0.0007025
4.56e-06
-5.401e-06
0.0002851
-0.000757
-8.724e-05
-0.0001191
-0.001017
-0.0002172
0.001234
-0.00053
0.0003059
0.0002241
-0.004317
0.001109
0.003208
0.1738
1.027
-7.194e-06
7.194e-06
-0.0002418
-0.0003539
0.0005957
-0.0003351
0.0007551
-0.0002024
0.000182
2.043e-05
0.0002085
-0.0004894
0.0002809
-4.398e-05
0.0002801
-0.0002361
0.0005513
-9.512e-05
-0.0004562
-0.0006032
0.000521
0.5638
0.8495
-0.001062
-0.002036
0.003098
-0.003503
0.0009621
0.002541
-1.494
0.3763
0.000335
-0.0005901
0.0002552
7.798e-05
0.0004698
0.001795
-0.0006745
0.0009698
0.0003439
-0.001314
0.1396
-1.026
0.8865
-0.0002003
0.001173
-0.0003141
0.0001012
0.0002129
-0.2778
-0.7217
0.8613
0.004122
0.002595
0.002124
-0.002537
0.0004136
-0.0006506
-0.0009385
0.0002942
1.133e-05
-0.0003055
0.0009486
-0.0008013
-0.0001473
7.7e-05
-5.903e-06
-7.109e-05
-0.003257
0.0007773
0.002479
-0.004134
0.005986
-0.001852
-0.8111
-0.2736
0.0008218
-0.000225
-0.0005968
0.0005637
-0.0002653
-0.0002984
0.000544
-0.0004415
-0.0001025
0.0002035
-0.0004176
0.002337
-0.001983
1.07
0.0882
-1.158
0.2733
-0.2109
0.06479
-0.1131
0.04835
0.0005105
-0.0001072
-0.0004033
0.04607
-0.8571
0.02299
-0.0145
-0.008494
-0.000235
0.0005284
-0.0002934
-0.0006961
-0.0008617
0.001558
0.0004207
0.0002506
-0.0006713
-0.2182
0.8332
-0.615
0.0005099
-0.0002698
-0.0002401
-0.0003068
0.001794
-0.001488
-0.2407
-0.01321
0.2539
0.0004474
0.0005106
0.6955
0.4769
-1.172
-0.0005125
-0.0003112
0.0008237
-0.0001077
-7.448e-05
0.0001821
-0.0008286
0.0004084
0.0004201
-0.0004421
-0.001314
0.001756
8.402e-05
7.208e-05
-0.0001561
0.1847
-0.05532
-0.1294
-0.0003487
-0.0003257
0.0006744
-0.009038
0.009609
-0.000571
-0.000506
-0.0001229
8.533e-05
-8.58e-05
4.678e-07
-0.000477
-0.0005909
0.001068
0.0002263
9.366e-05
-0.0003199
-0.006746
-0.00442
0.004956
-0.005394
0.0004373
0.002036
-0.000346
-0.00169
0.0006216
-0.0006216
-0.3394
0.1943
0.145
-0.003601
0.005368
-0.001767
0.001151
-0.0007066
-0.0004441
-0.0005068
0.0009124
-0.0004056
-8.371e-05
-2.214e-05
0.0008856
-0.0008038
-8.187e-05
-0.1207
1.19
0.03254
-0.01828
-0.01426
0.0001467
6.88e-05
-0.0007294
4.158e-05
0.0006879
0.0004056
-0.0004855
7.994e-05
-0.0007921
0.001744
-0.0009518
0.0001144
-0.0001144
-0.0008477
0.0008855
-3.783e-05
-0.0004528
0.0004528
0.00116
-0.000408
-0.0007519
-0.0001249
-8.807e-05
0.0002129
-0.002956
0.001895
0.0002793
-0.0001736
-0.0001057
0.0952
-0.06982
-0.02538
0.001638
-0.001233
-0.0004049
1.095
-1.519
0.4242
1.315
-1.737
0.4217
0.0002713
0.001493
-0.001764
-0.04063
0.08822
-0.04759
-0.0006547
1.073e-05
0.000644
0.008238
-0.0023
-0.005938
-0.0007267
0.000438
-0.006167
0.006827
-0.00066
0.03974
-0.08936
0.04962
-0.0005725
7.623e-05
0.0004963
0.0006512
0.0009656
-0.001617
0.2519
-0.005347
-0.006741
0.00599
0.0007511
-0.0003685
0.0006271
-0.0002587
0.08311
-0.04336
-0.0007084
0.0003813
0.000327
-0.0001976
0.0001976
0.0007602
-0.0003616
-0.0003987
0.0008152
-0.002623
0.001808
0.0004447
-0.0001109
-0.0003338
0.001972
-0.002462
0.0004901
0.0003152
-0.0002987
-1.653e-05
-0.3378
0.1261
0.2117
-0.001109
0.0002401
-0.0006655
-0.0007738
-0.05291
0.3352
-0.0006211
0.0004584
-0.0008595
7.246e-05
0.000787
-0.001094
0.002359
-0.001265
-0.4813
-0.554
1.035
0.2162
0.0002149
-0.2164
0.007238
-0.004153
-0.003085
2.802e-05
1.758e-05
-4.56e-05
0.0001685
-0.002329
0.002161
0.000196
-0.000196
-0.00153
0.0007643
0.0007655
0.0008581
-0.0002255
-0.0006326
-0.001877
0.001722
0.0001556
-4.725e-05
-3.313e-05
8.037e-05
-0.0008047
-0.00025
0.001055
-0.4102
1.371
-0.9607
-0.0003774
0.0005575
-0.0001801
0.005008
-0.00125
-0.003758
-0.2998
1.337
-1.037
-0.000653
-0.0009435
0.001596
-2.499e-05
1.449e-05
1.05e-05
0.001029
0.003861
-0.00489
-0.0009397
0.0003477
0.000592
0.00472
-0.002731
-0.001989
0.001118
0.002654
-0.003772
1.833e-05
4.15e-05
-5.982e-05
0.0003077
-0.0003077
0.0006717
0.0003315
-0.001003
-0.08519
-0.05466
-0.4578
0.2218
0.236
0.002598
-0.0009974
-0.0016
-0.001647
0.001272
0.0003756
0.0001518
0.000261
-0.0004128
-0.0008676
0.0004582
0.0004094
-0.0005084
0.00013
0.0003785
0.000739
-0.0003054
-0.0004336
-0.002501
0.002109
0.0003918
-0.009692
0.01537
-0.005675
0.000331
0.000408
-0.02833
-0.01088
0.03921
-0.0006577
-5.805e-05
0.0007157
0.1441
-0.5858
0.4417
0.0004118
0.0005039
-0.0009157
-4.901e-05
3.827e-05
1.074e-05
-0.001681
0.002246
-0.0005647
0.0008306
-0.0006706
-0.00016
-0.001146
0.0005426
0.0006034
-0.3791
0.09561
0.2835
-0.1839
0.05563
0.1283
-0.0001317
0.0002344
-0.0001027
0.007431
-0.00879
0.001358
0.0001916
-0.0003639
0.0001723
0.0005342
-0.0009397
0.0004056
-0.0001489
0.0002723
-0.0001234
0.0008791
-0.0008783
-8.159e-07
0.000944
-0.0001704
-0.0007736
-0.001483
0.001159
0.0003238
0.0001128
-0.0007155
0.0006027
0.00071
-0.00071
-5.717e-05
0.0007071
-0.0006499
-5.294e-05
0.0004248
-0.0003718
0.0007025
-0.0005594
-0.0001431
-0.002173
0.003289
-0.001116
0.000655
-0.001306
0.0006512
-7.105e-05
0.0003755
-0.0003657
0.0003881
-2.245e-05
3.149e-05
-2.422e-05
-7.273e-06
-4.497e-05
2.754e-05
1.744e-05
-0.001379
0.0006291
0.0007497
-0.3208
0.4284
0.5987
0.2234
-0.8221
-0.0007436
0.001047
-0.0003034
0.0001349
0.0003954
-0.0005302
0.004255
-0.0007076
-0.003547
-0.1885
1.18
-0.991
0.0003312
0.0007408
-0.001072
-0.00125
-0.0001388
-0.002172
-0.004349
0.006521
0.0001733
0.0001041
-0.0002774
0.002355
-0.002054
-0.0003005
-8.083e-05
0.0003905
-0.0003097
0.001859
-0.002507
0.0006472
0.7867
-0.6763
-0.007824
0.002799
0.005025
0.009621
0.0001806
-0.009802
0.0005291
-4.948e-05
-0.0004796
0.0001119
0.0001987
-0.0003106
-0.0003173
0.000226
9.132e-05
-0.00481
0.001669
0.003141
0.002031
-0.00512
0.003089
0.000304
-0.0007141
0.0004101
-0.0007212
0.001121
-0.0003996
-0.001554
-0.001094
0.002648
0.002168
-0.0008124
-0.001356
-0.0008429
-0.0001807
0.001024
0.001628
-0.001346
-0.0002821
0.0005658
-0.0004724
-9.341e-05
0.0006263
-0.0004775
-0.0001488
0.2462
-0.3084
0.06225
-0.0004481
0.0003135
0.0001347
-1.317e-05
-5.205e-05
6.522e-05
0.001471
-0.0004072
-4.326e-05
0.0009637
-0.0009204
-0.0003605
7.275e-05
0.01825
-0.116
0.09777
-0.0005567
0.0005567
-0.0007374
0.0007374
-0.1627
-1.047
1.21
1.262
0.232
-1.494
-0.001099
0.0005972
0.0005023
0.0003105
-0.001665
0.001355
-1.867e-05
2.494e-05
-6.271e-06
-4.785e-05
0.0001086
-6.073e-05
-0.0001735
0.001811
-0.000602
0.0008008
-0.0001988
0.0003767
4.344e-05
-0.0004201
-0.0007939
-0.004001
0.004795
0.003262
0.004313
-0.007575
-0.1882
0.05549
0.1327
0.0004627
-0.0002865
-0.0001762
-0.0006529
-0.001118
0.001771
-0.0002324
0.0005132
-0.0002808
-0.004331
0.0009406
0.003391
-3.333e-05
5.364e-05
-2.032e-05
0.0005041
-0.0006723
0.0001682
0.8054
-1.128
0.3227
-0.0008191
0.0008191
0.0003599
-0.0002336
-0.0001264
0.1704
0.5645
-0.7348
0.0006965
-4.509e-05
-1.276
1.113
0.2372
-0.4251
0.1879
-0.002534
0.001769
0.0007649
-0.01017
-0.002614
0.01278
0.0005426
-0.0002516
-0.000291
0.7833
-0.9539
0.1706
0.001039
-0.0005009
-0.0005384
0.4798
-0.1401
-0.3398
0.0003178
-0.0007326
0.0004149
-0.01572
0.004618
0.01111
0.007043
-0.006663
-0.0003798
0.004826
-0.002502
-0.002325
-0.0002384
-0.0008559
0.001094
-0.0007755
-0.0003616
0.001137
0.0003738
0.0001405
-0.0005142
0.001384
0.0002998
-0.001684
0.1437
0.6348
-0.7785
0.004638
0.06415
-0.06879
-0.002421
0.001211
0.00121
-0.0001635
-0.000895
0.001059
0.0001078
-0.0003465
0.0002387
0.0004938
-0.0002984
-0.0001954
0.0002244
-0.000123
-0.0001014
-0.000305
-9.168e-05
0.0003967
-0.000352
0.000352
-0.0004696
0.0007916
0.001456
-0.001039
-0.0004168
-0.0003587
0.0009727
-0.0006139
-0.001016
0.0006272
0.0003884
0.0003847
0.0002412
-0.0006259
0.003922
-0.005701
0.001779
0.006506
-0.002529
-0.003977
0.4588
-0.3443
-0.1145
-0.0007967
0.0008777
-8.099e-05
-0.000113
0.0001818
-6.888e-05
-0.0007969
-7.5e-06
0.0008044
0.4925
-1.088
0.5951
-0.0007655
0.0002799
0.0004856
0.002059
-0.00106
-0.0009989
-0.001819
0.0004737
0.001345
0.001536
-0.0006872
-0.0008491
-0.0001518
0.000739
-0.0005872
0.001111
0.005632
-0.006743
0.0006738
-0.0007901
0.0001163
-0.0007142
-0.001399
0.002113
-0.000891
-0.0009282
-8.696e-05
-0.0001501
0.0002371
-0.0007772
-0.0001325
0.0009096
7.356e-05
1.177e-05
-1.18
0.5432
0.6371
0.001679
-0.003226
0.001547
-0.00073
0.0002863
0.0004437
0.1348
0.05153
-0.1864
-0.0007247
0.0002107
0.000514
0.000556
0.0001591
-0.0007151
-1.249
1.249
0.001402
0.00225
-0.003652
-9.732e-05
0.0001635
-6.621e-05
0.06327
-0.05152
-0.01175
0.006015
-0.002093
-0.002894
0.002882
1.148e-05
0.0004785
0.0001142
-0.0005926
0.01155
-0.00863
-0.00292
-1.268
0.5233
0.7449
0.0005194
-0.000848
0.0003286
-0.0002113
0.000534
-0.0003227
0.4111
-0.2577
-0.1534
-0.007695
0.004415
0.003281
4.619e-05
-0.02873
0.02869
-0.0009785
-0.0004448
0.001423
-0.0004821
-0.0001928
0.0006749
-0.001335
-0.0006858
0.002021
-0.04744
-0.05036
0.0978
-1.247e-05
-5.405e-05
6.651e-05
-1.2e-06
-4.735e-05
4.854e-05
0.0002734
0.0009411
0.0003874
-0.001426
0.001039
-0.001075
0.001752
-0.0006773
0.0001639
0.0001155
-0.3904
1.236
-0.8459
0.0002362
-0.001095
0.0008584
0.3547
-0.01225
-0.3425
0.0005317
-0.000748
0.0002164
-0.001201
0.001197
4.227e-06
0.0004167
0.0005087
-0.0009254
0.0004326
0.001104
-5.531e-05
2.95e-05
2.581e-05
0.0004599
-0.0005167
5.682e-05
-0.5579
0.2194
0.3385
8.627e-05
-8.627e-05
-0.0004749
0.0003394
0.0001355
0.0001218
-0.0005687
0.0004469
-0.00129
-0.0001672
0.001457
-0.0003213
0.0004109
-0.001162
-0.001111
0.002274
0.00658
-0.006306
-0.0002736
-0.0005312
0.000427
0.0001042
0.001725
-0.001189
-0.0005353
-0.01032
0.02386
-0.01354
0.0001236
-0.0001236
-0.000356
0.0004415
-8.544e-05
-0.0008452
0.0003631
0.0004822
0.0006285
0.0002439
-0.0008724
0.001428
-0.001179
-0.0002491
0.0003038
0.0005249
-0.0008287
-0.0001784
-0.0003277
0.0005061
0.0001256
8.742e-05
-0.000213
0.002004
-0.001456
-0.0005476
0.0006545
-0.0001528
-0.0005016
0.0007019
-0.002142
0.00144
-0.000404
-0.000518
0.000922