/*--------------------------------*- C++ -*----------------------------------*\
  =========                 |
  \\      /  F ield         | OpenFOAM: The Open Source CFD Toolbox
   \\    /   O peration     | Website:  https://openfoam.org
    \\  /    A nd           | Version:  8
     \\/     M anipulation  |
\*---------------------------------------------------------------------------*/
FoamFile
{
    version     2.0;
    format      ascii;
    class       volVectorField;
    location    "5";
    object      U;
}
// * * * * * * * * * * * * * * * * * * * * * * * * * * * * * * * * * * * * * //

dimensions      [0 1 -1 0 0 0 0];

internalField   nonuniform List<vector> 
127143
(
(0.2741 -0.02032 0)
(-0.01506 -0.06874 -5.621e-22)
(0.000745 0.00245 8.476e-22)
(0.00166 0.007747 6.207e-25)
(0.6434 0.212 8.418e-24)
(0.001791 0.007935 -1.761e-24)
(0.5792 0.354 0)
(0.6564 0.308 1.954e-22)
(0.6565 0.2944 -1.161e-21)
(0.5545 0.02552 0)
(0.3091 0.461 -7.729e-21)
(0.5926 0.3731 -1.908e-21)
(0.08731 -0.0314 -9.436e-23)
(0.002189 0.009032 0)
(0.3473 -0.3797 1.673e-21)
(0.6884 -0.04386 0)
(-0.02632 -0.1052 -5.945e-22)
(0.6001 -0.06276 3.021e-21)
(0.4426 -0.1311 0)
(0.8634 0.1499 0)
(0.5691 -0.1344 7.766e-22)
(0.2548 -0.09192 0)
(0.9423 -0.1884 0)
(0.752 -0.07031 0)
(0.2549 -0.09108 -1.42e-22)
(0.8467 -0.1331 0)
(0.918 -0.003065 2.195e-21)
(0.9227 0.01233 -3.509e-23)
(0.8426 -0.3909 0)
(0.6601 -0.0516 -5.085e-21)
(0.7305 -0.04662 0)
(0.8377 -0.1397 1.22e-21)
(1.063 0.2718 1.708e-22)
(0.5372 -0.1288 -1.958e-21)
(0.8431 -0.1209 1.665e-21)
(1.069 0.2697 4.492e-24)
(0.34 -0.1132 4.251e-22)
(0.7585 -0.1106 -3.142e-22)
(0.7562 -0.07093 -6.057e-24)
(0.7814 -0.001565 3.857e-25)
(0.4426 -0.1302 0)
(0.9317 0.2491 2.347e-22)
(0.9187 0.2397 -2.362e-22)
(0.1461 -0.04844 0)
(0.6041 -0.05747 -3.096e-21)
(0.5379 -0.1291 5.997e-22)
(0.85 -0.3854 0)
(0.3668 -0.1175 -8.819e-23)
(0.8766 -0.1521 -1.265e-22)
(0.7407 -0.06243 -1.143e-23)
(0.7002 -0.04644 -6.079e-23)
(0.9298 -0.07311 3.536e-21)
(0.7481 -0.0722 0)
(0.9538 0.01218 -3.52e-22)
(1.008 -0.003834 -2.05e-20)
(0.9178 -0.2332 3.937e-22)
(1.006 -0.004348 2.042e-20)
(0.895 -0.08848 0)
(0.9944 -0.01349 -3.768e-21)
(0.9552 0.01544 -6.637e-22)
(0.6329 -0.2135 -4.027e-21)
(0.4603 -0.1282 -1.423e-22)
(0.763 -0.06086 7.578e-23)
(1.003 0.002038 -6.291e-20)
(0.8242 -0.07643 0)
(0.9043 -0.2662 -9.308e-22)
(0.9651 0.06866 5.506e-22)
(0.7589 -0.06271 0)
(0.7599 -0.06271 2.014e-23)
(0.9913 0.0008473 0)
(0.736 -0.06207 0)
(0.9314 0.0006085 -8.707e-22)
(0.4231 -0.07153 -9.129e-22)
(0.9967 -0.01207 -2.047e-21)
(1.009 0.01136 -5.332e-22)
(0.9405 0.008456 9.81e-22)
(0.9858 0.05855 1.36e-21)
(0.3811 -0.1192 0)
(0.9183 -0.2332 -7.771e-22)
(1.001 0.001796 0)
(0.8483 -0.3799 -4.844e-23)
(0.8639 0.1366 2.832e-23)
(0.5479 -0.1301 5.707e-22)
(0.7345 -0.04143 0)
(0.3488 -0.1039 2.646e-22)
(0.3801 -0.1189 0)
(0.7705 -0.07809 9.229e-24)
(1.003 0.07931 5.468e-22)
(0.903 -0.2651 0)
(0.9723 0.4857 0)
(0.9988 -0.04198 0)
(0.7861 -0.1058 0)
(0.9574 0.4679 0)
(0.57 -0.1343 -8.047e-22)
(0.6068 -0.1224 0)
(0.842 -0.007385 2.765e-21)
(0.9324 0.2441 -3.926e-22)
(0.7196 -0.05675 0)
(0.4345 -0.126 2.386e-22)
(0.9639 0.0709 0)
(1.001 0.00176 0)
(0.8772 -0.1525 0)
(0.776 0.6599 1.708e-22)
(0.8497 -0.1052 0)
(0.3813 -0.1191 -1.142e-22)
(0.4327 -0.1259 3.375e-22)
(0.8593 -0.1351 3.138e-22)
(0.991 0.0008286 0)
(0.8138 -0.3431 0)
(1.016 -0.001618 5.612e-20)
(0.3545 -0.3794 -4.95e-22)
(0.994 0.08557 9.88e-22)
(0.5884 -0.1301 -7.309e-22)
(0.3232 0.1098 0)
(0.9841 0.02009 6.46e-21)
(0.9024 -0.1582 4.443e-23)
(0.9568 0.05557 -1.236e-21)
(1.009 0.01165 1.788e-20)
(0.987 0.05815 -1.022e-21)
(-0.004687 -0.0004265 0)
(1.016 -0.001899 -8.093e-20)
(0.5298 -0.1323 -1.335e-22)
(0.8896 -0.3196 0)
(0.9308 -0.1071 -1.436e-22)
(0.8459 -0.3849 4.875e-22)
(0.7917 -0.1038 2.14e-21)
(0.4667 -0.128 0)
(1.015 0.02051 3.92e-21)
(0.8333 -0.06134 -7.928e-23)
(0.9182 -0.2623 -6.29e-22)
(0.4354 -0.1271 0)
(0.5691 -0.13 -3.622e-22)
(0.7864 -0.07463 -3.277e-23)
(0.3814 -0.119 0)
(-0.03035 -0.1197 -1.008e-21)
(0.4364 -0.1272 -1.516e-22)
(0.8935 -0.06745 0)
(0.5938 -0.1335 2.102e-22)
(0.7885 -0.4364 -3.027e-21)
(0.9435 -0.03682 4.41e-22)
(0.9301 -0.2102 2.016e-21)
(0.9571 0.04433 4.366e-21)
(0.7159 -0.08975 2.323e-23)
(0.6636 -0.1272 -5.442e-22)
(0.7482 -0.07151 -3.52e-23)
(1.025 0.2507 3.209e-23)
(0.03674 -0.06275 2.009e-21)
(1.003 0.001716 5.3e-20)
(0.5683 -0.1299 3.166e-22)
(0.8479 0.665 1.084e-22)
(0.8297 -0.09516 3.892e-23)
(0.8976 -0.1744 0)
(0.7821 -0.1039 1.213e-21)
(0.8412 -0.1936 0)
(0.5646 -0.4201 0)
(0.3501 -0.1045 0)
(0.8947 -0.08802 -1.374e-23)
(0.8975 -0.3105 0)
(0.3673 -0.1176 -1.653e-22)
(0.7261 -0.06127 2.917e-23)
(0.7304 -0.04989 0)
(0.6121 -0.3 1.664e-20)
(0.999 -0.04163 1.025e-22)
(0.4347 -0.127 -4.029e-22)
(0.9149 -0.2422 0)
(0.8244 -0.0758 4.152e-22)
(0.3442 -0.1136 -2.277e-22)
(0.7892 -0.3176 1.077e-21)
(1.08 0.2184 -1.417e-22)
(0.8982 0.03765 -1.976e-22)
(0.2872 -0.1022 0)
(0.6624 -0.1272 2.538e-22)
(0.9056 -0.1661 2.353e-22)
(0.9212 -0.2617 -9.189e-22)
(0.9599 0.0001379 4.729e-20)
(0.3038 -0.09729 7.21e-24)
(1.002 0.301 3.997e-24)
(0.8321 -0.06155 -8.072e-23)
(0.767 -0.07874 0)
(0.9053 -0.03674 2.001e-21)
(0.921 -0.2623 -3.161e-22)
(0.9832 -0.0413 0)
(0.3042 -0.07384 1.182e-22)
(0.304 -0.09664 -7.395e-24)
(0.9184 -0.2641 1.201e-21)
(0.4628 -0.1287 2.535e-22)
(0.9116 0.149 1.498e-22)
(0.3372 0.1253 -6.758e-22)
(0.7534 -0.07052 -1.366e-23)
(0.9387 -0.03926 5.021e-21)
(0.7193 -0.08172 3.294e-23)
(0.7418 -0.09355 -2.188e-22)
(0.8997 -0.0651 4.003e-21)
(0.3222 0.397 -6.604e-22)
(-0.02588 -0.1319 2.282e-21)
(0.5206 -0.1318 0)
(1.002 3.706e-05 0)
(1.001 -1.645e-05 -5.148e-22)
(0.8926 0.1751 0)
(0.9704 0.02618 1.208e-21)
(1.018 0.03007 -8.197e-22)
(0.8855 -0.01015 6.398e-21)
(0.7671 -0.04211 -4.667e-21)
(0.3414 -0.1135 -2.043e-22)
(0.004221 0.004853 9.317e-23)
(0.7517 -0.05218 9.053e-23)
(0.9625 -0.152 9.187e-22)
(0.892 -0.1591 -7.221e-23)
(0.6655 -0.05538 7.15e-21)
(0.9844 0.01939 -3.469e-21)
(0.7939 -0.1056 8.611e-22)
(0.3335 -0.1033 1.774e-22)
(0.9873 -0.02613 3.462e-21)
(1.08 0.2214 -1.459e-22)
(0.4362 -0.1277 -6.115e-25)
(0.9 0.04174 0)
(0.29 -0.104 -1.906e-22)
(0.9052 -0.1773 5.14e-22)
(0.5427 -0.1343 -4.948e-22)
(0.9635 -0.1507 2.033e-22)
(0.9994 0.2985 9.352e-24)
(1 0.01284 -3.638e-20)
(0.8971 -0.1739 -1.387e-22)
(0.7635 -0.06541 3.319e-23)
(0.7204 -0.05994 0)
(0.2926 -0.1049 0)
(0.9175 -0.2426 -7.804e-22)
(0.7638 -0.1091 3.334e-22)
(0.3038 -0.1077 1.954e-22)
(0.44 -0.1259 3.956e-22)
(0.5729 -0.1338 4.95e-22)
(0.9856 -0.04393 -1.713e-22)
(0.4259 -0.07462 1.859e-21)
(0.03678 -0.07808 0)
(0.5729 -0.1337 0)
(0.9652 -0.1123 -3.547e-22)
(0.4349 -0.127 1.895e-22)
(0.3888 -0.02021 2.447e-22)
(1.019 0.02958 7.303e-22)
(0.7096 -0.07773 1.904e-22)
(0.7411 -0.09285 2.029e-22)
(0.8697 -0.05818 -5.945e-22)
(0.3263 -0.1131 -6.397e-23)
(0.8979 -0.3104 -2.303e-25)
(0.7901 -0.05059 0)
(-0.005525 -0.0009232 1.547e-25)
(0.9016 -0.1786 5.855e-22)
(0.9161 -0.01399 0)
(0.2246 -0.07626 4.501e-21)
(0.9883 0.00185 -1.753e-20)
(1.011 0.1807 -1.532e-22)
(0.7621 -0.08201 -1.715e-22)
(0.9214 -0.2138 0)
(0.6226 -0.1303 0)
(0.9193 -0.2233 5.691e-22)
(0.8253 -0.3394 0)
(1.015 0.01982 -3.599e-21)
(1.076 0.2816 0)
(0.9257 -0.2345 0)
(0.8233 0.104 5.805e-22)
(0.5484 -0.1331 -4.058e-22)
(0.9906 -0.07014 -1.015e-21)
(0.7928 -0.1035 2.84e-23)
(0.9563 0.04316 -3.71e-21)
(0.8297 -0.04261 0)
(0.8495 -0.06697 -1.999e-22)
(0.3838 -0.1201 5.158e-22)
(0.5474 -0.433 0)
(0.6983 -0.3052 2.628e-21)
(0.8882 -0.006523 -1.81e-22)
(0.8859 -0.1682 0)
(0.9587 -0.0003248 -5.43e-20)
(0.371 -0.1192 -1.496e-22)
(0.7085 -0.07826 -2.037e-22)
(0.777 -0.05947 1.144e-22)
(0.7197 -0.08091 -1.587e-22)
(0.5887 -0.1302 0)
(0.857 -0.1342 -5.228e-22)
(0.9358 -0.002729 3.279e-21)
(0.9176 -0.2689 5.019e-22)
(0.9784 -0.003029 -9.443e-21)
(0.8239 -0.003649 1.215e-22)
(0.8517 -0.1055 1.935e-25)
(0.9856 0.001542 0)
(0.9985 0.02687 -4.288e-21)
(-0.04486 -0.1378 -3.084e-22)
(0.4829 -0.1327 0)
(0.984 0.02213 3.176e-21)
(0.829 -0.1152 -2.811e-22)
(0.8996 -0.0383 4.643e-21)
(0.7852 -0.1037 -1.482e-21)
(0.9353 -0.2043 0)
(0.966 -0.1138 3.506e-22)
(0.9137 -0.1824 0)
(0.9951 -0.03711 -2.583e-21)
(0.8135 -0.3555 -3.03e-23)
(0.7353 -0.06277 3.623e-23)
(0.2812 -0.00112 -1.159e-22)
(0.3262 -0.1132 2.431e-22)
(0.8914 -0.005676 1.091e-22)
(0.7721 -0.08417 3.919e-23)
(0.9223 -0.2419 -1.618e-22)
(0.8542 -0.2831 -9.068e-22)
(0.9042 -0.1588 -5.153e-22)
(0.7146 -0.05663 0)
(0.7088 -0.4169 2.491e-24)
(0.8923 -0.1592 -2.499e-23)
(0.9862 -0.02661 0)
(0.5843 -0.1317 -7.724e-24)
(0.8106 -0.08949 4.338e-23)
(0.8535 -0.1303 2.856e-22)
(0.2211 -0.05665 -2.477e-23)
(0.9171 -0.2226 0)
(0.9802 -0.002986 -4.651e-21)
(0.9775 0.001571 -7.961e-21)
(1.037 0.3276 -2.06e-24)
(0.7459 -0.1092 1.672e-22)
(0.7604 -0.07951 -5.349e-23)
(0.8613 -0.07829 1.335e-21)
(0.8498 -0.01537 1.264e-20)
(0.9418 -0.1879 0)
(0.7242 -0.0535 -1.024e-22)
(0.996 0.0121 1.018e-21)
(0.9213 -0.2132 2.236e-22)
(1.038 0.3276 0)
(0.7565 -0.08824 -2.402e-22)
(0.8666 -0.07391 2.619e-21)
(0.4397 0.04277 -1.446e-23)
(0.7163 0.03578 1.396e-22)
(0.9727 0.3465 -1.548e-22)
(0.4282 -0.1251 0)
(0.9993 0.02674 4.009e-21)
(0.847 -0.1211 -4.933e-21)
(1.002 2.812e-05 0)
(1.001 -1.261e-05 0)
(0.8389 -0.1888 0)
(0.8206 -0.3403 -1.519e-22)
(0.9065 -0.1669 2.5e-22)
(0.4274 -0.1249 -1.778e-22)
(0.4959 -0.1332 -1.137e-21)
(0.9451 -0.03598 -1.813e-21)
(0.9048 -0.177 0)
(0.7426 -0.0696 3.265e-23)
(0.7209 -0.08014 2.454e-23)
(0.3955 -0.1973 4.756e-24)
(0.8285 -0.1149 1.958e-22)
(0.5503 -0.1321 -3.662e-22)
(0.6154 -0.1229 2.512e-22)
(0.789 -0.09429 1.528e-22)
(0.8717 -0.05104 0)
(0.7845 -0.09083 -1e-22)
(0.4952 -0.1385 5.968e-22)
(0.308 -0.1069 -1.25e-22)
(0.7205 -0.08066 1.126e-22)
(0.8789 0.03002 0)
(0.5413 -0.132 -8.317e-22)
(0.621 -0.1304 -3.053e-22)
(1.03 0.2221 -3.757e-23)
(0.9564 -0.01835 4.06e-21)
(0.7072 0.04214 0)
(0.3772 -0.1216 -2.687e-22)
(0.7663 -0.06115 2.224e-23)
(0.6126 -0.1351 -1.964e-21)
(0.7344 -0.05587 0)
(0.7443 -0.06462 -3.153e-23)
(1.004 0.007767 -4.055e-22)
(0.9712 0.02565 -3.714e-21)
(0.8947 -0.005359 0)
(0.603 -0.1151 3.089e-22)
(0.9384 -0.001617 0)
(0.56 -0.2506 4.084e-21)
(0.9953 0.009879 -2.301e-21)
(0.7667 -0.08353 1.33e-22)
(0.7339 -0.05779 6.096e-23)
(0.9464 -0.03687 0)
(0.9292 -0.03707 -1.341e-22)
(0.7565 -0.07399 1.083e-24)
(0.1841 -0.1234 -9.995e-25)
(0.4209 -0.1239 -6.589e-22)
(0.9322 -0.004959 2.906e-21)
(0.6534 -0.1293 -2.662e-21)
(0.8011 -0.1068 -1.7e-21)
(0.7975 -0.1009 0)
(0.9218 -0.2437 -9.279e-22)
(0.9578 0.05493 0)
(0.7049 -0.04706 0)
(0.8982 0.08913 0)
(0.7782 -0.002679 0)
(0.5203 -0.1319 -1.196e-22)
(0.6927 -0.1263 -1.251e-21)
(1.011 -0.004469 -7.105e-21)
(0.8203 -0.2682 0)
(0.2978 -0.1063 1.784e-22)
(0.921 -0.2314 5.981e-22)
(0.7509 -0.06967 3.645e-23)
(0.7226 -0.05505 6.841e-23)
(0.824 -0.2687 -8.49e-22)
(0.7324 -0.04633 0)
(0.8781 0.02776 0)
(0.9899 -0.06985 0)
(0.7096 -0.05317 -5.248e-23)
(1 0.01233 1.56e-20)
(0.5995 -0.1316 0)
(0.306 -0.07439 0)
(0.9014 0.08998 0)
(0.8334 -0.1046 -9.486e-23)
(0.3848 -0.1195 -6.604e-22)
(0.7897 -0.07856 6.425e-24)
(0.9998 0.001178 -1.343e-19)
(0.7684 -0.07897 0)
(0.8319 -0.3619 0)
(0.8346 -0.1206 6.265e-22)
(0.9306 -0.2093 -2.038e-21)
(0.3776 -0.119 0)
(0.8888 -0.3193 0)
(0.6082 -0.1222 -3.152e-22)
(0.4875 -0.1319 -5.582e-22)
(0.8833 -0.1673 0)
(0.8193 -0.07717 2.101e-22)
(0.8747 -0.3472 -4.183e-22)
(0.3448 -0.1137 0)
(0.3143 -0.1077 -1.297e-21)
(0.4459 -0.1292 0)
(0.9902 0.002156 5.84e-21)
(0.4386 -0.1258 -4.922e-22)
(0.8532 0.1319 -4.353e-22)
(0.9167 0.2319 -2.772e-25)
(0.9078 -0.2085 -1.213e-21)
(0.8699 -0.05781 5.385e-22)
(0.9478 -0.1702 -6.932e-22)
(1.011 5.507e-05 0)
(0.4399 -0.1283 0)
(0.3065 -0.1066 0)
(0.7363 -0.1197 4.868e-21)
(0.929 -0.004126 2.792e-23)
(1.005 0.007745 1.171e-20)
(0.8661 -0.1351 -2.105e-22)
(0.5687 -0.1281 -6.01e-22)
(0.9314 -0.07192 -1.871e-21)
(0.9943 -0.03636 0)
(0.9993 -0.007446 -4.299e-21)
(0.7425 -0.06271 1.904e-23)
(0.8848 -0.07134 -2.227e-21)
(0.8224 -0.3431 1.628e-22)
(0.9202 0.03546 0)
(0.7205 -0.05699 -4.602e-24)
(0.9712 -0.0009271 1.075e-20)
(0.6624 -0.4478 0)
(0.8909 -0.006566 -2.67e-21)
(0.3339 -0.1021 1.65e-22)
(0.5228 -0.1335 0)
(0.7996 -0.09804 -4.208e-25)
(0.8367 -0.1051 1.934e-22)
(0.6259 -0.1106 1.933e-21)
(0.8287 0.03113 7.434e-23)
(0.3372 -0.1129 -7.975e-23)
(0.7879 -0.0938 9.745e-23)
(0.8887 -0.0481 0)
(0.3479 -0.1143 0)
(0.8409 -0.07452 2.7e-22)
(0.7892 -0.07506 1.371e-23)
(0.8299 -0.05293 1.141e-22)
(0.6418 -0.1312 0)
(0.3867 0.1086 -3.384e-21)
(0.828 -0.05411 -3.629e-25)
(0.9667 0.001172 0)
(0.9883 0.05018 0)
(0.6566 -0.119 0)
(0.5122 -0.1329 4.11e-22)
(1.007 -0.0002901 0)
(0.4475 -0.1271 3.08e-22)
(0.8179 -0.0964 8.766e-22)
(0.9315 -0.1063 2.188e-22)
(0.749 -0.1091 -5.358e-23)
(0.968 -0.139 1.189e-21)
(1.017 0.001265 0)
(0.4966 -0.3915 -2.125e-21)
(0.8253 -0.09395 -7.986e-22)
(0.3102 -0.1081 -1.437e-22)
(0.7567 -0.06178 6.031e-24)
(0.7842 -0.4308 3.35e-22)
(0.6472 -0.4461 -3.949e-22)
(0.7129 -0.09649 1.15e-22)
(0.9169 -0.2228 0)
(0.8281 -0.3572 0)
(0.9282 -0.002804 -2.825e-23)
(0.7618 -0.06329 -5.477e-24)
(1.024 0.01865 3.354e-22)
(0.7286 -0.06167 -5.138e-23)
(0.9358 0.01028 4.052e-21)
(1.025 0.3255 -1.24e-24)
(0.7722 -0.07848 -7.874e-24)
(0.7597 -0.07347 0)
(1.03 0.2388 2.036e-23)
(0.002815 -0.0008662 0)
(0.4234 -0.1262 4.935e-22)
(0.3937 -0.02619 4.613e-22)
(0.9529 -0.07369 -2.268e-23)
(0.8222 0.4035 -7.382e-22)
(0.9864 -0.0172 -2.762e-20)
(0.7868 -0.4269 0)
(0.9892 0.05053 -4.158e-24)
(0.3208 -0.1119 0)
(0.525 -0.132 -4.391e-22)
(-0.03162 -0.1148 0)
(-0.01668 -0.1317 1.276e-21)
(0.2074 -0.06868 -1.346e-22)
(1.004 -0.001265 -4.619e-20)
(0.5416 -0.1321 0)
(0.9858 0.03075 0)
(0.9782 0.002063 1.712e-20)
(0.3951 -0.1234 3.938e-22)
(0.8898 -0.3208 1.002e-21)
(0.3835 -0.1194 3.929e-22)
(0.8736 -0.1331 0)
(0.5219 -0.1335 0)
(0.7996 -0.09797 1.195e-22)
(0.4483 -0.1274 -3.167e-22)
(0.5738 -0.1083 2.982e-22)
(0.9703 0.001843 0)
(0.3315 -0.08172 -2.36e-22)
(0.2484 -0.08718 0)
(0.8739 -0.354 2.578e-22)
(0.7518 -0.07333 1.865e-24)
(0.2877 -0.1021 8.004e-23)
(1.001 -0.009971 -2.598e-21)
(0.8317 -0.09512 4.092e-23)
(0.7736 -0.04371 -8.818e-22)
(0.6462 -0.1312 4.924e-22)
(0.9883 -0.009756 0)
(0.7237 -0.05998 0)
(1.039 0.4535 0)
(0.3014 -0.1072 -2.789e-22)
(1.003 -8.58e-05 0)
(0.656 -0.119 -2.351e-22)
(0.9596 -0.1329 3.902e-22)
(0.2697 -0.09187 -8.29e-26)
(0.8166 -0.3711 1.976e-22)
(1.087 0.28 2.805e-23)
(0.6189 -0.1306 -2.056e-22)
(0.9318 -0.003363 2.657e-22)
(0.322 -0.11 -1.26e-22)
(0.8742 -0.3262 -4.837e-22)
(1.007 -0.0002459 -4.473e-21)
(0.9222 -0.2428 1.232e-21)
(0.8228 -0.08112 -1.474e-21)
(0.7367 -0.06313 -3.15e-23)
(0.7353 -0.05586 4.916e-23)
(0.511 -0.1329 -4.48e-22)
(0.3536 -0.1151 1.221e-22)
(0.522 -0.132 2.14e-22)
(0.8926 -0.008655 0)
(0.8783 -0.3401 3.455e-22)
(0.3664 -0.1171 0)
(0.4409 -0.1283 1.152e-23)
(1.023 0.01087 -4.824e-22)
(0.7725 -0.007854 4.125e-23)
(0.4742 -0.1315 -2.158e-22)
(0.8356 -0.1262 -7.854e-22)
(0.7998 -0.08883 6.775e-23)
(0.3345 -0.1147 2.322e-22)
(0.9998 0.002714 0)
(0.9991 0.003281 3.007e-20)
(0.8286 0.1014 -9.76e-22)
(0.5494 -0.1322 -1.837e-22)
(0.7995 0.4249 0)
(0.9743 0.003526 -8.32e-21)
(1.005 0.001498 -7.145e-21)
(0.8781 -0.3177 0)
(0.867 -0.3741 0)
(0.3797 -0.119 2.211e-22)
(0.8278 -0.3579 0)
(0.3271 -0.1104 5.775e-22)
(0.366 -0.118 0)
(0.9258 -0.2102 -2.274e-22)
(0.9883 0.05634 0)
(1.01 -0.0005106 -1.994e-21)
(0.304 -0.1073 2.442e-22)
(0.4616 -0.1287 -2.267e-22)
(0.9196 -0.2118 6.395e-22)
(0.9928 0.002062 3.472e-20)
(0.9247 -0.01479 4.555e-22)
(0.7985 -0.08324 0)
(0.5014 -0.134 3.908e-22)
(0.9331 -0.004858 -6.457e-21)
(0.7896 -0.09776 -3.606e-23)
(0.974 0.002702 1.317e-20)
(0.3868 -0.1199 -1.047e-22)
(0.3203 -0.05782 0)
(0.6675 -0.1283 2.565e-23)
(0.9977 -0.0004353 -7.566e-21)
(0.3545 -0.1151 -4.823e-22)
(0.5494 -0.1334 -1.015e-22)
(0.7552 -0.3922 -1.057e-20)
(1.017 0.001175 -6.682e-21)
(0.8603 -0.1356 -2.985e-22)
(0.2901 -0.1041 8.618e-23)
(0.9996 -0.007723 0)
(0.8341 -0.105 0)
(0.9766 0.01717 -2.695e-22)
(0.7435 -0.05715 4.293e-23)
(0.7514 -0.07715 0)
(0.986 0.001105 1.41e-20)
(0.5375 -0.1323 1.172e-21)
(0.8204 -0.1108 -1.34e-22)
(0.2094 -0.01466 0)
(0.6768 -0.09261 -3.799e-22)
(0.7249 -0.09098 -4.503e-23)
(0.7855 -0.09119 2.764e-22)
(0.7982 -0.1004 1.468e-22)
(0.4326 -0.323 -2.053e-21)
(0.7577 -0.07125 -5.908e-24)
(0.9527 0.4638 -4.012e-23)
(0.7528 -0.01972 -1.098e-22)
(0.3095 -0.1088 -1.227e-22)
(0.8089 -0.05417 -3.981e-23)
(0.7357 -0.06564 2.155e-23)
(0.9967 0.002017 0)
(0.9053 -0.1902 -6.807e-22)
(0.9819 0.001595 -4.189e-21)
(0.4018 -0.1778 -1.196e-21)
(1.011 0.0375 1.436e-21)
(0.7178 -0.0904 3.26e-22)
(1.012 0.000111 0)
(0.9835 0.02161 7.056e-21)
(0.8875 -0.08634 9.793e-23)
(0.8742 -0.3477 2.109e-22)
(0.5641 -0.1337 3.379e-22)
(1.009 0.002017 2.786e-20)
(1.016 -0.002431 2.644e-21)
(0.3045 -0.1078 -1.867e-22)
(1.048 0.1373 0)
(0.5509 -0.1303 4.768e-22)
(0.7357 -0.06534 -6.778e-23)
(0.3773 -0.1239 0)
(0.822 -0.3426 -1.673e-22)
(0.5188 -0.1334 -5.186e-23)
(0.8327 -0.3626 0)
(0.7207 -0.07956 -3.474e-24)
(0.4343 -0.1279 -1.312e-21)
(0.8513 -0.0683 0)
(1.008 0.002077 -3.792e-21)
(0.903 -0.03967 3.38e-22)
(0.7147 -0.07749 1.376e-23)
(0.9175 -0.1636 1.424e-22)
(0.8467 -0.08188 0)
(0.9999 -0.0358 -4.846e-21)
(1.005 0.001408 7.627e-22)
(0.7616 -0.08795 -2.356e-22)
(0.7875 -0.4389 -4.895e-24)
(0.7616 -0.06342 2.882e-23)
(0.2852 -0.1038 3.692e-22)
(1.011 0.03882 0)
(1.002 0.0009388 -6.927e-23)
(0.4019 -0.1228 0)
(0.8196 -0.07429 0)
(0.8876 -0.009457 -5.053e-21)
(0.773 -0.09154 -2.108e-22)
(0.9477 -0.1677 0)
(0.8978 -0.006435 6.866e-21)
(0.4141 -0.1259 7.118e-22)
(0.9252 -0.2219 -1.722e-22)
(0.7156 -0.07703 8.685e-23)
(0.8498 -0.2192 -3.114e-21)
(0.1456 -0.05854 0)
(0.293 -0.105 0)
(0.3487 -0.1144 -6.702e-23)
(0.337 -0.1131 1.441e-22)
(0.4828 -0.1325 0)
(0.6949 -0.09099 2.899e-22)
(0.7925 -0.0988 6.662e-23)
(0.685 -0.09759 0)
(0.9215 -0.05651 -8.559e-22)
(0.8072 -0.06697 3.035e-22)
(0.2767 -0.06952 0)
(0.6003 -0.1314 -4.285e-22)
(1.017 -0.001095 -6.702e-21)
(0.8574 -0.1345 3.945e-22)
(0.8903 -0.2669 0)
(0.6362 -0.1307 -1.29e-21)
(1.002 -0.0001084 2.16e-21)
(1.017 -0.001268 7.359e-21)
(0.04828 0.1011 0)
(0.9514 -0.0715 -2.32e-23)
(0.8877 -0.1662 -6.028e-22)
(0.7239 -0.09257 -1.326e-23)
(0.7607 -0.423 0)
(0.5845 -0.132 9.757e-22)
(0.9505 0.03579 0)
(0.7226 -0.05986 3.445e-23)
(0.716 -0.1023 2.252e-21)
(0.9219 -0.2417 0)
(1.024 0.01759 -2.198e-22)
(1.02 8.766e-05 0)
(1.014 0.2008 0)
(0.8588 0.1317 0)
(0.6048 -0.1153 6.671e-23)
(0.642 -0.1369 0)
(0.8756 -0.3624 1.607e-21)
(0.3882 -0.1256 0)
(0.873 -0.358 -5.486e-22)
(0.8016 -0.1037 5.118e-21)
(0.6202 -0.1346 2.775e-21)
(0.9957 -0.0002964 1.124e-21)
(0.7233 -0.04879 -3.003e-23)
(0.9693 -0.1382 1.381e-22)
(0.9144 -0.21 -5.101e-22)
(-0.03886 -0.1411 2.677e-22)
(0.8651 -0.1364 -9.929e-23)
(0.833 -0.04051 -2.048e-22)
(0.4226 -0.1242 6.737e-22)
(0.9971 -0.0004598 8.382e-21)
(0.7953 -0.0881 -1.535e-24)
(0.7487 -0.06775 -3.275e-23)
(0.2941 -0.1024 0)
(0.5012 -0.1255 8.165e-22)
(0.6377 -0.1318 3.662e-22)
(0.7202 -0.07941 -5.446e-23)
(0.8493 0.6569 0)
(0.4865 -0.1319 5.235e-22)
(0.7918 -0.4194 8.414e-22)
(0.4388 -0.1327 -2.36e-22)
(0.9198 -0.2234 1.308e-22)
(0.7911 -0.08704 -4.535e-23)
(0.8127 -0.09 -1.994e-23)
(0.4684 -0.1283 3.549e-22)
(0.9341 -0.1881 5.952e-22)
(0.2856 -0.01445 0)
(0.8894 -0.2684 0)
(0.8988 0.03517 1.686e-21)
(0.9165 -0.2055 -1.852e-22)
(0.8515 -0.3626 4.068e-22)
(0.7783 -0.08246 5.711e-24)
(1.021 0.006633 0)
(0.2928 -0.07233 -8.332e-23)
(0.4992 -0.1383 -1.19e-21)
(0.3801 -0.1189 -2.052e-22)
(1.001 0.0008973 -5.025e-22)
(0.2854 -0.1033 0)
(0.4464 -0.1291 0)
(0.7896 -0.09785 -5.798e-22)
(0.993 -0.0004152 -4.526e-21)
(0.6845 -0.09855 3.266e-22)
(0.3144 -0.1104 0)
(0.6118 -0.1161 5.936e-22)
(0.7867 -0.07942 -1.67e-22)
(0.9939 -0.0004573 4.27e-21)
(0.3959 -0.121 -3.841e-22)
(0.2737 -0.08982 0)
(0.4927 -0.134 9.027e-22)
(0.626 -0.1293 0)
(0.9675 0.02748 -1.078e-21)
(0.7438 -0.06896 2.771e-23)
(0.294 -0.2613 0)
(1.026 0.02247 -8.113e-22)
(0.8991 -0.1688 3.592e-22)
(0.9276 -0.2031 0)
(0.6956 -0.09027 -2.772e-22)
(0.4234 -0.126 0)
(0.9219 -0.2413 -4.817e-22)
(0.8646 -0.1363 0)
(0.7941 -0.1014 -1.415e-22)
(0.3851 -0.1202 0)
(1.003 -0.0001855 -4.526e-21)
(0.395 -0.1209 3.599e-22)
(0.4267 -0.127 7.654e-23)
(0.7061 -0.05196 0)
(0.8362 -0.1213 -4.175e-22)
(0.9484 0.001002 0)
(0.3963 -0.1236 0)
(0.3543 -0.1153 2.853e-23)
(1.003 -0.0001268 3.986e-21)
(0.3841 -0.1195 -3.869e-22)
(0.4137 -0.1258 0)
(0.7492 -0.06511 0)
(0.05091 -0.09037 -3.9e-23)
(0.7511 -0.06438 -2.618e-23)
(0.3015 -0.1073 4.157e-22)
(0.6249 -0.124 -8.038e-23)
(0.3261 -0.1129 0)
(0.926 -0.216 0)
(1.004 -0.001089 2.274e-20)
(0.1626 -0.06217 -3.488e-22)
(0.4596 -0.1303 4.651e-22)
(0.6771 -0.09242 3.571e-22)
(0.3045 -0.1069 2.058e-22)
(0.3578 -0.1158 -4.609e-22)
(0.3329 -0.1114 4.405e-22)
(0.3831 -0.1199 -1.558e-22)
(0.7375 -0.06227 0)
(1.009 -0.0005546 0)
(0.4937 -0.1388 0)
(0.8537 -0.111 -5.528e-24)
(0.9951 -0.0002258 0)
(0.397 -0.1221 -5.773e-22)
(1.025 0.3241 0)
(0.8541 -0.1305 -2.637e-22)
(0.8958 -0.3118 -3.188e-22)
(1.013 0.0004474 -1.473e-20)
(0.5202 -0.1334 0)
(0.303 -0.09959 0)
(1.024 0.0184 -3.019e-22)
(1.014 0.0004735 0)
(0.8435 -0.08365 0)
(0.4523 -0.1278 5.584e-22)
(0.3775 -0.1242 -3.579e-22)
(0.3281 -0.111 2.144e-22)
(0.3847 -0.1197 3.102e-22)
(0.8551 0.01505 1.364e-23)
(0.8543 -0.1175 0)
(0.7624 -0.2455 -1.94e-21)
(1.017 -0.001035 0)
(0.4124 -0.1236 -2.591e-22)
(0.342 -0.1131 0)
(0.7239 -0.05182 -6.647e-23)
(0.7166 -0.05686 0)
(0.7885 -0.3139 -1.001e-21)
(0.9915 0.002517 0)
(1.004 -0.008836 6.346e-22)
(0.8406 -0.002533 -9.575e-21)
(0.9424 0.00588 5.272e-22)
(1.017 -0.0009175 -7.93e-22)
(0.8038 -0.1045 -2.707e-21)
(0.7456 -0.4507 3.898e-22)
(0.8213 -0.1058 -1.691e-22)
(0.8107 -0.1156 9.446e-22)
(0.9825 -0.006355 0)
(0.3192 -0.09984 -2.673e-22)
(0.8126 -0.09981 9.056e-23)
(0.9982 0.01484 0)
(0.789 -0.09443 -1.322e-22)
(1.006 -0.000227 0)
(0.804 -0.4033 1.076e-21)
(0.2717 -0.3696 -1.793e-21)
(0.7296 -0.09785 -2.928e-24)
(0.8207 -0.03511 0)
(0.7899 0.0005627 7.786e-23)
(0.9979 -0.04303 2.977e-22)
(0.5048 -0.1336 0)
(0.8502 -0.2308 -8.787e-22)
(0.7242 -0.05993 0)
(0.2665 -0.06824 -1.074e-22)
(0.8062 -0.106 -1.475e-22)
(0.5448 0.6994 8.332e-22)
(0.9502 0.004928 -3.657e-22)
(0.9253 -0.1849 -4.404e-22)
(0.8485 -0.3212 1.129e-23)
(0.6075 -0.1089 0)
(0.9943 0.01665 0)
(0.753 -0.1153 9.981e-22)
(0.9078 -0.2913 0)
(1.064 0.1864 1.139e-23)
(0.2764 -0.07061 3.856e-23)
(0.8244 -0.1367 0)
(0.9938 0.002532 0)
(0.7537 -0.1017 3.475e-21)
(0.3039 -0.1071 -1.183e-22)
(0.8973 -0.2059 -3.647e-21)
(0.8049 -0.05578 4.021e-21)
(1.019 0.07686 0)
(0.2809 -0.3237 -5.253e-21)
(1.045 0.1169 -4.59e-23)
(0.7043 0.06991 1.275e-21)
(0.5488 -0.1332 -2.856e-22)
(0.3053 -0.1069 3.736e-22)
(0.4983 -0.1387 5.128e-22)
(0.6902 -0.05449 1.835e-22)
(0.9753 0.05859 3.245e-22)
(0.8438 -0.1239 0)
(1.006 0.0009658 0)
(0.998 -0.0004091 0)
(0.7003 -0.09746 2.137e-22)
(0.9978 0.04874 5.917e-23)
(0.736 -0.09055 1.73e-22)
(0.4947 -0.04985 -2.109e-21)
(0.3299 0.0886 0)
(0.8696 -0.09658 1.369e-22)
(0.9268 -0.0489 -2.999e-21)
(1.039 0.35 -1.979e-23)
(0.9174 -0.209 4.736e-22)
(1.011 -0.004281 5.194e-21)
(0.5666 -0.1392 4.359e-23)
(0.3579 -0.1157 -9.736e-23)
(0.9322 -0.04642 3.711e-21)
(0.5538 -0.1281 -1.369e-21)
(0.2317 -0.08412 -2.227e-21)
(0.3564 -0.02234 0)
(0.913 -0.1894 0)
(0.3705 -0.389 -1.544e-21)
(0.6731 -0.128 0)
(0.3245 -0.1103 0)
(0.9891 -0.01118 1.224e-20)
(0.7618 -0.07206 7.812e-23)
(0.9148 -0.2102 5.286e-22)
(0.96 -0.01849 0)
(0.5322 -0.1324 5.192e-22)
(0.4673 -0.1309 0)
(0.4774 -0.1294 -2.599e-22)
(1.008 -0.0003614 -4.26e-21)
(0.8612 -0.007763 -3.888e-21)
(0.6096 -0.1361 0)
(0.8751 0.02532 4.81e-23)
(0.8954 -0.3008 -5.951e-22)
(0.231 -0.08 0)
(0.4697 -0.129 3.284e-22)
(0.8391 -0.3628 0)
(0.9156 -0.2022 -8.846e-23)
(0.2867 -0.1033 0)
(0.8637 -0.06067 1.087e-22)
(0.9992 -0.0004593 -3.263e-21)
(0.7714 -0.451 0)
(0.9748 0.1522 -8.277e-23)
(1.007 0.0009975 0)
(0.8428 -0.3361 1.05e-23)
(0.2293 -0.08222 1.907e-22)
(0.6736 -0.126 -3.216e-22)
(1.013 0.05433 -3.206e-22)
(0.815 -0.0485 1.918e-22)
(0.8927 -0.1491 -9.646e-23)
(0.2786 -0.1001 -1.165e-25)
(0.4574 -0.03579 -1.539e-22)
(0.7683 -0.08038 0)
(0.9878 0.05589 8.127e-22)
(0.992 0.004677 5.506e-21)
(0.9066 -0.1786 0)
(0.8063 -0.3673 -1.401e-22)
(0.3612 -0.1163 -6.015e-22)
(0.5524 -0.1298 0)
(0.3051 0.2427 -1.557e-21)
(0.8765 -0.3666 -1.035e-21)
(0.5903 0.02397 -1.997e-23)
(0.9688 0.03581 -5.381e-22)
(0.877 -0.3671 -1.029e-21)
(0.9356 -0.04197 1.94e-21)
(0.8844 -0.05149 0)
(1.019 0.008214 0)
(0.3712 -0.1179 4.053e-23)
(0.1686 -0.01158 -1.002e-23)
(0.662 -0.123 -6.803e-22)
(0.4762 -0.1326 0)
(0.4577 -0.1283 0)
(0.9896 -0.0009776 -1.225e-20)
(0.9562 -0.01206 2.792e-21)
(0.3071 -0.1076 0)
(0.924 -0.2223 1.69e-21)
(0.3175 -0.1095 0)
(0.8158 -0.1083 0)
(0.3173 -0.1093 -3.247e-22)
(0.3658 -0.1202 -2.803e-22)
(0.7787 -0.06212 -2.475e-23)
(0.96 0.001982 -5.483e-23)
(0.8373 -0.06673 -3.911e-22)
(0.5331 -0.0738 8.51e-22)
(0.7252 -0.07399 -8.746e-23)
(0.7202 -0.05354 4.6e-23)
(0.4353 -0.1284 7.506e-22)
(0.8384 -0.1077 2.203e-22)
(0.3862 -0.1213 6.483e-22)
(0.3386 0.4014 6.994e-22)
(0.3373 -0.1125 -1.257e-23)
(0.1486 -0.03962 5.451e-23)
(0.2564 -0.0912 0)
(0.4544 -0.1281 0)
(1.02 0.006419 0)
(1.021 0.0005241 1.722e-21)
(0.404 -0.122 2.843e-22)
(0.3381 -0.1138 0)
(0.9142 -0.1636 -1.114e-21)
(1.002 3.321e-05 0)
(0.8182 -0.3764 -4.826e-22)
(0.519 -0.1335 2.639e-22)
(0.8813 -0.07961 -1.014e-22)
(0.3275 -0.1107 0)
(0.7726 -0.08363 -4.906e-22)
(0.4024 -0.1232 -5.861e-22)
(0.905 0.3396 7.1e-22)
(0.9998 0.00114 -9.823e-20)
(0.9332 -0.1845 0)
(0.8743 -0.05384 -2.724e-22)
(0.8729 -0.3391 0)
(0.7136 -0.05508 0)
(0.3106 -0.1093 6.424e-23)
(0.8001 -0.2866 1.246e-21)
(0.7449 -0.1176 1.872e-21)
(0.6235 -0.1105 0)
(0.7505 -0.06935 -8.834e-24)
(0.7867 -0.06853 0)
(0.404 -0.1274 0)
(0.8277 -0.3773 5.929e-22)
(0.7952 -0.09256 -8.78e-23)
(0.3427 -0.1132 0)
(0.8757 -0.3801 -1.199e-21)
(0.9652 -0.02168 -4.898e-22)
(0.3452 -0.1212 0)
(0.2786 -0.09976 0)
(0.4288 -0.1275 0)
(0.6864 -0.08869 5.037e-22)
(0.3393 -0.3783 -2.293e-21)
(0.9914 0.03305 6.957e-22)
(0.3608 -0.09396 2.318e-21)
(0.5909 -0.1125 0)
(0.9975 -0.002011 0)
(1.003 -0.000163 3.96e-21)
(0.7619 -0.07573 -3.371e-24)
(0.5665 -0.1337 1.091e-21)
(0.24 -0.08274 -2.037e-22)
(0.2684 -0.05286 4.649e-23)
(0.8442 -0.124 6.685e-23)
(0.8881 -0.3303 0)
(0.357 -0.1156 -6.73e-22)
(0.93 -0.1775 0)
(0.907 -0.1356 0)
(0.997 -0.0469 -2.568e-21)
(0.3637 -0.117 -1.148e-21)
(0.3887 -0.04818 0)
(0.3622 -0.1168 -5.681e-22)
(0.9215 -0.197 0)
(0.2752 -0.09649 7.819e-23)
(0.3648 -0.1167 -5.114e-22)
(0.9846 -0.004612 2.003e-21)
(0.5395 -0.07036 0)
(0.3124 -0.1097 -3.446e-22)
(1.006 -0.003521 -4.904e-20)
(0.7119 -0.09577 -1.776e-22)
(0.9949 -0.001977 3.024e-20)
(0.9943 -0.01562 1.237e-20)
(0.8458 -0.1187 -1.094e-22)
(0.945 -0.1863 0)
(0.7254 -0.07634 -5.16e-21)
(1.008 -0.007401 5.383e-21)
(0.7888 -0.09447 1.777e-23)
(1.005 0.01385 0)
(1.024 0.3442 0)
(0.9505 -0.177 -1.374e-21)
(0.5541 -0.1404 4.166e-22)
(0.8417 -0.1026 1.162e-22)
(0.8957 -0.1746 1.291e-22)
(0.8368 -0.1215 0)
(0.4084 -0.124 1.59e-21)
(0.8045 -0.09172 -9.411e-23)
(0.9768 0.001245 7.504e-21)
(0.9839 -0.04677 8.233e-22)
(0.6683 -0.1215 3.363e-22)
(0.8907 -0.1668 -1.743e-22)
(0.33 -0.1112 -5.59e-23)
(0.3733 -0.1183 0)
(0.7026 -0.04994 7.999e-25)
(0.3671 -0.117 -4e-22)
(0.2811 -0.09283 -1.187e-20)
(0.6753 -0.09331 5.007e-22)
(0.9222 -0.2541 0)
(0.9795 0.01489 -7.969e-22)
(0.7671 -0.08077 6.846e-24)
(0.779 -0.1009 0)
(0.7708 0.1814 5.111e-22)
(0.5163 -0.1405 0)
(0.9299 -0.01983 4.01e-21)
(0.5983 -0.1199 1.526e-21)
(0.2897 -0.08945 9.774e-23)
(0.862 -0.1506 0)
(0.9914 2.668e-05 -2.875e-21)
(0.6858 -0.4535 1.261e-21)
(0.5159 -0.1325 0)
(0.7732 -0.07573 1.128e-24)
(0.9224 -0.2524 1.516e-22)
(0.7251 -0.0838 -1.585e-23)
(0.8839 -0.122 2.77e-22)
(0.5719 -0.1238 0)
(0.565 -0.1326 3.327e-22)
(0.7737 -0.0758 3.618e-24)
(0.3052 -0.1082 -7.296e-24)
(0.9155 -0.2483 -1.372e-21)
(0.2652 -0.0673 1.158e-22)
(0.999 -0.002702 0)
(0.7921 -0.06305 -8.934e-23)
(0.6087 -0.1155 0)
(0.9957 -0.04268 0)
(0.587 -0.1246 0)
(0.7976 -0.08284 9.06e-23)
(1.001 -1.403e-05 -5.573e-21)
(0.9252 -0.2066 6.53e-22)
(0.2906 -0.09935 0)
(0.9918 -0.08206 0)
(0.7828 0.1852 -1.996e-21)
(0.692 -0.1255 0)
(0.4506 0.03597 0)
(0.9412 -0.1661 1.164e-21)
(1.003 4.772e-05 1.931e-21)
(0.5523 -0.1321 -1.321e-23)
(0.447 -0.1294 -2.621e-23)
(1.026 0.0102 2.988e-21)
(0.827 0.171 1.149e-21)
(0.9743 0.06251 3.2e-23)
(0.5119 -0.1332 4.083e-22)
(0.51 -0.1341 -5.052e-22)
(0.8954 -0.1604 2.483e-22)
(0.9432 -0.04115 0)
(0.2788 -0.09594 -4.033e-23)
(0.268 -0.09706 3.763e-22)
(0.9054 -0.1904 -7.95e-23)
(0.857 -0.1342 3.578e-22)
(0.4422 -0.1262 -2.058e-22)
(0.6932 -0.05018 0)
(0.9895 6.813e-05 -7.213e-21)
(0.7745 -0.08122 -1.927e-23)
(1.006 0.01797 -1.795e-22)
(0.4311 -0.1263 0)
(0.7778 -0.3866 -4.49e-22)
(0.6302 -0.1115 0)
(0.9223 -0.2517 1.513e-21)
(0.2562 -0.07496 -4.99e-23)
(0.6553 -0.1079 0)
(0.9975 0.004559 -1.908e-20)
(0.2137 -0.07697 0)
(0.3928 -0.1225 0)
(0.4438 -0.1298 5.668e-22)
(0.7736 -0.07091 3.228e-23)
(1.073 0.2811 0)
(0.5351 -0.1318 -2.979e-22)
(0.5118 -0.1304 8.023e-22)
(0.7167 -0.05624 0)
(0.8364 -0.1176 0)
(0.8439 -0.02623 -2.993e-21)
(0.4441 -0.0331 3.232e-22)
(0.3321 -0.1126 1.677e-22)
(0.7308 -0.05331 0)
(0.8978 -0.1879 -8.571e-22)
(0.847 -0.1273 0)
(0.7151 -0.4354 -1.367e-21)
(0.4184 0.03043 2.568e-22)
(0.3115 -0.1061 4.173e-23)
(0.8757 -0.1486 9.825e-23)
(0.3749 -0.1185 0)
(0.8237 -0.03404 0)
(0.7985 -0.0975 -1.624e-22)
(0.7634 -0.07839 1.292e-23)
(0.6621 -0.1271 0)
(0.2394 -0.08671 0)
(0.9573 -0.09825 -2.485e-23)
(0.9112 -0.1937 -4.637e-22)
(0.9611 -0.1326 0)
(0.8676 -0.146 4.032e-22)
(1.001 -2.693e-05 0)
(1.014 0.004085 -1.712e-20)
(0.7548 -0.1007 -6.412e-22)
(0.7026 -0.04636 7.58e-23)
(0.3769 -0.1185 3.607e-22)
(0.8405 -0.02825 1.373e-20)
(0.3983 -0.08751 -2.495e-21)
(0.3174 -0.1091 2.471e-22)
(0.9895 0.005102 -1.198e-20)
(1.062 0.15 0)
(0.8285 -0.1131 2.953e-23)
(0.7922 -0.05029 0)
(-0.02026 -0.005417 0)
(0.9204 -0.2597 -5.602e-22)
(0.3312 -0.1117 8.924e-23)
(0.1692 -0.06121 0)
(0.569 -0.1392 -7.347e-25)
(0.3166 -0.1076 9.427e-22)
(0.4313 -0.1249 4.459e-22)
(0.816 -0.1035 0)
(0.7912 -0.08063 1.13e-21)