/*--------------------------------*- C++ -*----------------------------------*\
  =========                 |
  \\      /  F ield         | OpenFOAM: The Open Source CFD Toolbox
   \\    /   O peration     | Website:  https://openfoam.org
    \\  /    A nd           | Version:  8
     \\/     M anipulation  |
\*---------------------------------------------------------------------------*/
FoamFile
{
    version     2.0;
    format      ascii;
    class       volScalarField;
    location    "50";
    object      k;
}
// * * * * * * * * * * * * * * * * * * * * * * * * * * * * * * * * * * * * * //

dimensions      [0 2 -2 0 0 0 0];

internalField   nonuniform List<scalar> 
127143
(
2.519e-13
7.061e-13
1.346e-11
6.935e-11
1.954e-11
7.347e-11
9.427e-10
1.439e-10
7.112e-11
1.041e-09
2.036e-09
2.514e-10
8.66e-11
1.204e-10
0.0001805
4.803e-09
4.949e-11
0.07064
0.0358
4.399e-08
0.01509
1.657e-06
0.000155
3.115e-05
1.489e-06
1.832e-06
1.366e-06
1.599e-06
1.378e-06
0.0566
2.403e-05
1.925e-06
1.64e-07
7.87e-05
0.0001516
1.578e-07
0.008188
0.05988
4.185e-05
1.856e-06
0.03608
0.0001544
0.0001538
6.51e-10
0.06894
8.885e-05
1.249e-06
0.01451
2.56e-05
4.271e-05
1.115e-08
0.00015
0.01968
0.0001563
0.0001397
1.671e-05
0.0001396
0.0001687
0.0001481
0.0001562
0.0001539
0.0245
5.015e-05
0.0001482
0.0004067
0.0001596
0.000152
5.091e-05
5.079e-05
0.0001999
2.97e-05
2.841e-06
0.03581
0.0001481
0.0001459
3.287e-06
0.0001482
0.007949
1.656e-05
0.000149
1.233e-06
4.503e-08
0.0005003
3.766e-06
0.02557
0.009355
4.331e-05
1.388e-06
0.0001584
0.0001211
0.0001469
0.01546
0.000185
0.01526
0.006872
0.0001739
0.0001543
1.162e-05
0.01106
0.0001519
0.0001489
2.687e-05
4.686e-05
0.000149
0.009756
0.0107
4.539e-05
0.0002007
0.0001651
0.0001424
0.0002065
1.201e-06
0.0113
0.000163
0.0001457
0.0001701
0.0001482
0.0001459
0.0001481
1.404e-07
0.0001425
0.0006369
0.0001557
0.0001633
1.425e-06
6.314e-07
0.01894
0.0001497
0.007023
1.478e-05
0.005345
0.005456
5.609e-05
0.008145
1.617e-09
0.005604
0.000157
0.01958
3.872e-06
0.0001545
0.0001555
0.0001473
0.0273
0.03009
0.02019
0.0001974
5.766e-06
0.0001483
0.005079
2.547e-05
0.0001215
3.167e-05
0.0685
0.0001526
0.000237
0.02568
0.0001688
1.494e-05
0.01474
6.585e-06
3.836e-05
8.503e-09
0.0001469
0.005376
2.964e-06
0.0005976
0.006123
0.0001568
1.016e-05
0.0001495
0.001465
0.0299
0.0001693
0.0001602
0.0005723
0.01706
0.0001987
0.007115
3.451e-05
0.0001576
0.0001605
0.0001549
0.01814
0.01722
1.536e-05
0.02516
0.0001522
0.0001634
3.461e-05
0.0001563
0.01599
0.008135
0.0001565
0.0002312
8.399e-10
0.02145
0.0001295
0.0001286
4.618e-09
0.000146
0.0001455
0.0001496
0.002694
0.008867
5.377e-10
5.614e-05
0.0001538
0.0001243
0.045
0.0001457
0.0003422
0.02317
0.000145
1.157e-05
0.002974
1.832e-09
0.0001815
0.0001297
0.008204
0.0001539
0.0001913
0.0001462
3.149e-05
0.02109
6.358e-06
0.0009872
6.304e-06
0.06265
0.002769
0.01457
0.01445
0.0001547
0.03634
1.588e-06
0.0146
0.0001582
0.005363
6.759e-12
0.0001456
0.01923
0.008651
0.0008193
0.01649
1.491e-05
0.04392
1.659e-07
4.244e-05
1.727e-06
7.477e-08
0.0002454
0.0001691
2.003e-06
0.0001327
0.02098
2.426e-05
0.0001667
0.0001497
2.819e-05
0.0001742
0.0001515
0.02298
0.0001516
0.009425
0.0001472
0.02354
0.0006228
0.001132
0.0002345
0.0001564
0.02687
4.709e-06
0.0005652
0.01709
0.01879
5.239e-05
0.01662
0.01152
3.165e-05
0.001056
0.0001791
0.0002102
0.0001874
0.0001494
0.0001456
0.0001456
7.465e-10
0.005742
0.0001457
3.049e-05
0.0001581
0.0699
0.0001589
0.0001581
0.0001687
0.0001454
0.0001754
2.247e-05
0.009991
0.01644
0.02243
8.793e-06
0.0001605
0.0001559
0.0001703
4.998e-06
0.0002134
0.0001244
0.0001451
0.04678
8.592e-05
4.252e-05
0.003805
1.2e-05
0.0001874
0.0001455
0.0001121
0.04822
9.012e-06
0.0002039
0.004895
0.0001547
3.026e-05
0.0001522
0.0001322
0.0001063
0.04231
0.0001508
0.01227
3.335e-05
0.0001876
0.01891
0.0001456
0.0001516
0.0001296
0.0001287
0.0001526
0.0001653
0.0001693
0.01888
0.004928
0.0001546
0.0001294
0.02365
0.01737
0.00017
3.038e-05
0.001583
0.01001
9.722e-06
0.004839
1.312e-05
0.0406
0.01538
0.01687
0.00015
0.001865
0.02066
0.0001927
0.0001498
3.271e-05
0.01963
4.986e-05
0.06234
4.768e-05
4.274e-05
0.0001468
0.000146
0.003234
0.0006816
0.001073
0.0001562
0.0001523
3.844e-06
4.394e-05
0.0001557
0.0001549
2.175e-05
5.917e-06
0.01203
0.001093
0.07642
8.443e-07
1.45e-05
0.0001603
0.0001481
9.941e-08
0.0001509
2.296e-06
0.02073
0.06297
0.0001468
0.0001543
0.002083
2.72e-05
3.45e-05
2.184e-05
0.0001544
3.091e-05
0.0001499
0.0001514
2.946e-06
0.0001462
0.01673
0.01849
0.000151
0.0001066
0.01052
5.829e-05
0.000149
3.786e-05
0.0001952
9.281e-06
0.0001556
0.01532
0.0001704
0.007124
0.01053
4.379e-06
0.0646
6.887e-05
0.006442
1.054e-05
0.002386
0.00021
0.01421
0.0001517
0.0001536
0.0001538
0.001057
0.0001539
0.0001413
0.002306
0.01454
0.007264
0.03413
0.0001468
0.000109
0.002155
0.0001499
0.0001454
0.0001454
4.626e-05
0.0001571
0.000169
0.0001487
1.239e-05
0.0001456
0.0001767
0.003472
0.02331
0.01393
1.793e-05
0.0001147
0.0005475
0.0001508
0.01043
7.779e-06
0.001324
0.01055
0.06103
6.201e-05
0.01352
0.04255
0.0001573
0.01271
0.0004471
0.0001467
0.01894
0.001023
0.0001386
0.01319
0.005042
0.0001634
0.05057
0.0001536
0.0001348
0.0002354
0.003249
0.00128
0.03106
1.72e-06
0.0001929
0.003737
1.24e-05
0.0001893
0.03517
0.03864
0.000145
1.071e-05
0.0001473
0.0001642
4.455e-05
0.01663
0.0001925
5.175e-09
0.004515
0.0001576
0.000161
0.0001596
0.000145
1.435e-06
0.0001468
0.01466
0.02237
2.683e-11
7.103e-09
8.698e-08
0.000147
0.001943
0.006336
0.0001455
0.02049
0.0001331
0.005325
0.0001529
0.01355
1.787e-05
0.01329
1.786e-05
0.0003913
0.02353
3.852e-07
5.424e-05
1.025e-05
0.001968
0.0001477
0.0001254
0.001573
0.04468
0.000146
8.779e-06
7.605e-06
0.001766
0.0001306
0.01875
0.0001578
0.0008938
0.0001933
5.493e-06
0.04752
0.0001474
0.002839
0.0001884
0.0001388
0.0001604
0.06709
2.684e-05
4.792e-05
0.0009254
0.000275
0.02129
0.04658
8.603e-05
0.006235
0.002446
0.000147
3.227e-06
0.00706
7.186e-06
5.366e-05
0.0161
0.0001483
0.0001479
0.0001514
0.001521
0.0001629
0.0001456
0.0001395
0.0001807
3.027e-05
0.0106
0.0001893
0.0002517
1.055e-05
0.000174
0.0001476
0.0001426
0.001368
0.01204
9.05e-05
0.000156
3.703e-06
6.253e-05
0.003803
0.001075
3.484e-06
0.0001456
0.01103
0.02028
0.06052
0.0001328
0.00127
0.02311
9.614e-08
0.0001346
4.71e-05
0.0002029
0.0001453
0.0001069
0.0001457
5.52e-05
0.03867
0.0001456
0.0007601
1.938e-05
0.004709
0.009805
0.03096
1.37e-05
1.496e-05
0.0002039
4.411e-05
0.0002068
5.1e-05
0.01346
0.01769
6.591e-06
0.0001482
1.512e-05
0.0001455
0.000164
0.0001496
0.02819
0.0001413
0.0001457
0.0001692
7.01e-05
0.01174
0.0001384
0.0001413
0.003261
4.045e-06
0.0009105
1.256e-05
0.02484
0.0001684
0.01393
0.0001958
0.01778
0.001449
0.0002934
0.0001385
0.002267
0.01925
0.0001672
0.03358
0.000147
0.0001393
0.04455
5.638e-06
0.03876
1.588e-05
0.0001496
0.0001402
0.004128
0.002332
0.0001496
0.000573
0.0001576
0.0001656
0.0006879
0.0001724
0.0199
0.0001532
1.093e-09
0.001226
0.01075
0.01035
0.00587
0.006903
4.469e-06
0.003073
0.0001493
0.008581
0.01155
0.0172
0.0001417
3.253e-05
0.0001571
0.000153
0.0001305
0.0001415
3.159e-06
0.0001611
1.786e-05
0.008708
0.0001806
0.04653
0.0001648
9.095e-06
0.0001521
2.739e-05
0.0001449
0.0001393
0.0001713
0.0001517
0.0008559
0.000153
7.557e-06
0.02325
4.217e-05
0.0001979
0.05972
0.0001385
1.627e-05
0.0001537
2.158e-05
1.564e-09
8.007e-05
0.02543
0.0125
0.0001341
4.742e-05
4.049e-05
9.395e-06
0.05262
0.0337
0.01786
3.212e-05
0.01035
8.633e-05
0.02943
3.135e-05
4.463e-05
8.654e-05
0.01938
0.0001612
4.959e-13
0.000157
0.0001495
5.938e-05
0.0001582
4.305e-05
0.0001441
0.01561
0.0416
0.01076
0.0001431
1.296e-05
0.002621
3.712e-06
0.0001541
0.002659
0.01201
0.002697
0.005211
0.0001462
0.01278
0.003407
0.0007127
0.02043
0.0001461
0.02377
0.000259
0.0001465
0.0001263
0.000169
0.007452
0.004582
0.0001595
7.998e-05
1.617e-06
0.001539
0.0001279
0.0127
0.02358
2.385e-06
9.991e-06
0.0001574
0.02081
0.0003155
0.0001284
0.005609
0.0007198
0.0318
3.046e-06
0.03234
0.001893
0.0139
0.01801
0.0001747
0.0001469
4.329e-10
0.005971
0.01051
0.0004023
0.01161
0.002784
0.003278
3.697e-05
0.0001424
0.04388
0.0001503
0.0001407
0.002404
0.0001644
4.445e-05
0.0001519
0.0001364
0.01445
0.01628
0.0001449
0.000136
0.03493
0.02382
0.02473
0.003339
0.01124
1.415e-08
0.0001394
0.0001535
0.0001418
0.00841
0.007156
2.687e-05
7.007e-06
0.0001563
0.0001877
0.0001474
0.002626
2.247e-06
0.000142
0.0001766
1.405e-05
5.025e-05
1.298e-06
0.0001476
0.02082
4.7e-05
0.000146
9.752e-06
0.0001416
0.0001614
1.428e-05
0.004964
0.04097
9.148e-07
0.0001465
0.0008721
0.0001534
9.35e-06
0.008639
5.254e-06
3.276e-05
0.0001572
0.0001671
0.0001628
1.576e-08
0.0001458
0.07305
2.141e-05
6.132e-05
0.0113
2.013e-07
0.000184
0.0002323
0.001351
1.609e-06
1.09e-06
0.003645
5.72e-09
0.0003716
7.618e-09
0.005391
0.000484
0.04504
2.051e-07
0.0001481
3.99e-05
0.0001324
0.0001315
0.02338
0.0001503
0.01066
0.04562
0.0001619
0.0001667
0.0001563
9.215e-05
5.784e-05
0.0001468
0.06206
0.007331
0.0001562
0.0007282
3.282e-07
0.02125
0.0001426
0.0001945
0.03688
0.002199
0.0001451
0.01698
2.201e-05
0.0001494
0.0009492
0.006923
0.02656
0.0001379
0.005829
0.07233
4.547e-09
0.0001805
2.979e-07
0.01402
0.0001937
6.654e-05
0.0001247
0.001602
0.0001296
5.067e-06
0.0001545
0.0001304
0.0001738
1.296e-06
0.07492
0.000328
0.0001102
0.0001667
5.289e-05
2.912e-09
2.974e-05
0.0001476
0.0001461
0.0001368
0.0001826
0.004339
0.001
0.0001828
5.192e-06
0.008019
0.0001532
4.778e-06
0.0001547
1.787e-05
0.0001445
0.01373
0.002554
0.02413
0.002718
0.01185
0.0001457
0.0001461
0.000557
0.000156
0.005504
2.697e-05
0.001777
0.0192
0.04476
0.004126
0.002681
2.141e-08
0.02286
1.785e-05
0.0005528
0.0001123
0.01876
0.000232
0.002981
0.001349
4.051e-06
0.01145
0.0001441
0.000143
0.01406
0.01326
0.0001686
0.0001397
0.0001973
0.01382
0.0001697
0.001874
0.04797
0.001081
0.000158
0.000149
0.0001617
0.0001719
8.509e-07
5.131e-06
0.01277
0.0001548
0.07516
0.0009001
3.311e-05
6.352e-05
0.02434
0.0001881
4.079e-05
0.006217
4.034e-06
0.00015
5.532e-06
0.0001213
0.02403
0.01092
0.0001693
0.0001458
1.485e-06
2.573e-08
0.0001362
0.0001441
0.01462
0.01279
6.316e-07
0.01077
4.045e-05
3.686e-05
0.0008215
0.0001632
0.0001668
0.0001478
0.0006551
0.02979
0.001621
0.0001731
0.0005534
0.008697
0.0001495
2.952e-08
0.009286
0.0001453
0.003977
0.0001409
0.0001448
9.308e-05
0.0001554
1.052e-06
0.0001443
1.078e-05
0.000146
0.000158
0.0001551
0.06189
0.0001357
1.347e-05
1.856e-05
0.0005834
5.592e-05
0.0001961
0.0001557
0.02486
3.281e-05
0.002908
0.0009165
5.646e-07
0.0005565
5.578e-07
0.008967
2.557e-05
0.000381
2.381e-05
1.48e-06
0.0001523
0.04848
0.0001683
0.001814
0.01336
4.593e-06
0.0001729
0.0001023
0.01839
4.628e-05
7.738e-05
0.01506
0.0001684
0.0004214
0.03012
4.633e-05
0.007452
1.231e-05
0.00845
0.0001372
7.1e-05
0.001781
0.0001462
0.003363
0.0006662
0.0001383
0.0001737
0.009204
0.0001542
0.0001524
0.04229
0.01509
0.0001591
0.0001323
0.00319
0.002061
0.0001453
0.0001521
0.0001509
0.01372
0.002044
0.0001471
0.0001557
0.002226
5.016e-06
1.502e-05
2.44e-05
0.01574
1.939e-07
0.0001926
4.217e-05
0.0001457
0.007994
0.0001895
0.005153
7.669e-05
0.003083
3.554e-05
0.0001471
9.542e-08
0.0001883
0.000314
4.891e-05
3.734e-05
0.02621
0.05408
4.603e-06
4.672e-05
0.0001506
2.008e-10
0.01157
4.111e-05
8.374e-06
3.204e-05
0.000188
0.01572
8.085e-05
4.708e-05
0.004392
0.03945
1.829e-05
2.66e-05
0.0723
3.431e-07
0.0001598
4.958e-05
0.0001577
1.153e-05
0.0001312
0.0001449
0.04586
1.18e-07
0.01263
0.001988
1.224e-06
0.0007819
0.0001459
3.073e-06
4.057e-05
0.04483
2.465e-06
0.0001755
0.007669
3.447e-09
0.06276
2.168e-05
0.01643
4.505e-05
4e-05
2.149e-05
6.066e-06
0.0001905
0.003113
0.0001589
0.0486
0.02666
0.003417
0.0001687
5.404e-05
0.02249
8.724e-05
0.01675
0.000163
0.02162
0.0001541
0.0001633
0.0001321
3.247e-07
0.0001511
5.448e-06
0.0001101
0.005505
0.006109
0.000146
0.01936
0.01348
0.0001703
8.957e-05
8.906e-06
5.256e-06
0.0001427
1.912e-05
0.001684
0.01174
3.839e-08
0.01493
0.04216
0.001387
0.0001468
0.001192
0.005435
7.427e-07
0.005293
0.0001618
0.01882
0.0001456
2.707e-08
6.822e-08
0.009332
0.0001671
0.0001725
0.0001354
0.0001317
0.005241
0.02403
0.03007
0.000155
0.0001498
0.000151
0.00016
0.009593
0.04194
0.001851
2.872e-05
2.842e-08
0.0001671
4.13e-06
0.007843
0.001808
0.0001319
2.467e-05
0.01681
8.924e-05
1.761e-08
0.06673
0.02837
0.0041
5.004e-05
0.01573
3.571e-08
0.07584
0.008703
0.02113
0.0289
0.0001421
2.833e-05
1.647e-08
0.0001569
0.003643
0.0001414
3.321e-05
9.332e-05
0.0001356
0.0001198
8.57e-05
0.006685
1.739e-05
0.0001429
0.0001652
1.678e-09
0.0001458
4.788e-05
0.0005925
4.667e-05
8.118e-06
0.000168
0.0001475
0.003413
2.807e-06
0.005382
0.004692
0.0001514
7.094e-05
4.395e-05
2.463e-05
0.002952
0.005517
0.0001452
0.004503
0.04144
9.319e-06
0.000237
0.02343
0.005164
0.0001459
0.0001661
0.002139
0.0001459
0.02331
0.0001376
2.359e-05
0.02364
1.726e-07
0.003754
0.02475
8.5e-05
0.01208
4.949e-05
2.686e-05
5.113e-09
0.006129
0.002607
0.03167
0.01516
0.01728
0.0001482
0.01282
0.000147
0.01722
0.0001474
0.02431
0.0001436
0.00219
0.007083
0.0001382
0.0001446
0.009516
0.0001622
0.0002718
0.0001552
0.0001345
0.0001884
0.01028
0.0001504
5.327e-08
3.315e-05
1.339e-06
3.335e-05
5.841e-05
2.589e-05
3.373e-05
0.01873
0.001462
1.283e-06
0.02088
0.0002273
0.0009677
0.01325
0.01802
0.03395
0.0001441
4.971e-09
0.008089
3.004e-06
0.0001458
2.11e-08
7.405e-05
2.247e-05
0.008284
0.0001311
0.0001309
0.01171
0.07581
0.01252
0.02108
4.773e-05
0.0001692
0.0001572
0.005647
0.0001573
5.305e-06
0.0002661
0.0001905
0.01229
0.0001411
0.0004348
0.0005149
5.784e-05
2.226e-05
0.01305
0.0001467
0.01383
0.01089
2.407e-07
0.02392
0.0001544
8.6e-05
0.002803
4.008e-05
0.01495
0.0002102
0.05171
0.0001455
0.0142
0.0001593
1.769e-08
5.891e-06
0.0001687
0.006096
0.0001978
0.000163
0.0001305
0.0001672
0.001261
6.391e-09
0.0001524
3.972e-07
0.00861
0.000144
0.003053
0.001415
0.02281
0.0001525
0.02123
0.003119
5.513e-05
0.009193
0.04375
2.115e-05
0.0001529
0.000125
0.0002849
1.301e-05
0.0001739
0.0001733
2.204e-05
0.0001816
7.712e-09
0.0001995
8.65e-06
1.063e-05
5.501e-09
0.003275
0.002633
0.0001497
0.000146
0.0001438
0.01611
0.0001432
5.523e-08
0.0001454
2.537e-06
0.0001586
0.0002019
0.003177
1.838e-05
0.0002237
5.26e-06
0.0002048
0.0002632
0.013
1.557e-05
0.0001452
0.005479
0.0005526
0.0141
0.0007172
0.002158
0.009574
0.0001576
0.0001466
0.0001545
0.0001372
4.229e-05
0.0001762
0.0001333
0.0001601
0.0001891
0.0001372
2.7e-06
0.0001462
0.01936
0.03125
0.01998
0.0002347
0.0001393
0.01272
0.0007466
0.017
0.0001523
0.00012
0.0001555
0.0001456
0.0001418
0.01561
3.135e-08
0.0001505
4.241e-05
0.0001503
2.511e-06
0.0001644
0.0001536
0.0001673
0.0001712
0.002705
1.935e-05
0.0001509
7.669e-05
0.0001472
0.01575
0.0001486
0.0001531
9.747e-05
0.02002
0.0001597
8.762e-06
0.002969
0.0001416
0.03088
2.594e-06
0.001171
2.767e-08
4.674e-06
0.03441
0.0001536
0.0001784
4.612e-06
0.02432
9.259e-05
6.799e-05
0.0001974
0.0001568
0.0001445
0.005819
3.626e-05
0.01242
0.0001459
0.003663
0.0001456
0.0001639
0.00268
0.0001434
0.03701
0.0001719
0.0001933
0.01956
0.00197
2.651e-05
0.0001467
2.565e-05
5.535e-06
0.0001669
0.03379
3.331e-05
0.0001595
0.04988
0.01563
2.611e-05
0.0001651
0.01287
1.033e-05
0.01005
0.004094
1.46e-05
0.0001594
0.0001554
0.0001401
0.0001524
2.869e-05
0.01248
0.0001522
4.472e-05
0.0001488
0.0006909
0.0005925
0.07195
0.05161
0.004751
2.673e-08
0.007441
1.703e-07
0.0001688
0.0001377
1.764e-07
3.979e-05
0.0001582
2.167e-05
0.0001515
0.03303
0.0001491
0.02516
5.057e-07
0.01853
0.0001912
6.45e-05
3.785e-05
0.0001464
4.89e-05
0.0001541
0.0001872
8.041e-05
0.0001497
4.856e-05
2.62e-06
0.0001445
0.0001493
0.01478
0.0001876
0.01798
0.0001754
0.0001737
0.000202
0.0001686
0.02014
0.000217
0.001711
0.01107
0.0001373
0.0001548
2.437e-05
8.698e-07
0.00014
0.002016
5.172e-07
0.04387
0.0005726
0.02138
4.269e-05
8.072e-07
0.0001656
0.0002591
0.01273
0.000152
0.0006403
0.000196
0.01683
1.809e-06
0.004303
0.0001494
0.002754
1.151e-09
1.472e-08
0.01444
0.01207
0.003881
0.0001684
0.01684
0.0001087
0.01794
0.0002533
0.006014
0.009841
9.818e-05
2.815e-06
0.01061
0.0001652
0.0001454
0.0001788
0.0001627
0.008216
0.0001534
0.0001518
4.343e-05
0.01442
0.04229
0.0001361
2.108e-05
4.92e-06
0.05761
0.002035
0.01487
2.078e-08
2.765e-05
0.0001498
0.002578
7.114e-05
0.01542
4.065e-05
1.255e-08
0.0001283
2.541e-06
0.0001607
3.769e-05
0.0001337
0.01346
0.01932
1.034e-05
0.002684
0.02615
5.065e-06
0.0001553
0.0001676
3.126e-05
0.000154
0.02325
0.0001458
1.992e-05
1.052e-05
4.939e-05
8.089e-06
8.69e-06
0.01433
1.157e-07
0.0002538
0.0002187
0.0001849
0.02471
0.0001519
0.04511
6.288e-05
0.01722
4.716e-05
0.0001904
5.64e-05
3.269e-09
1.255e-07
0.007673
0.06738
0.0001644
0.0001603
0.0001464
0.0001494
0.008598
0.0001643
0.0001454
4.493e-05
4.652e-05
2.986e-05
0.006501
0.0001477
4.877e-05
0.04132
0.0001447
5.595e-07
1.225e-05
0.0001572
4.686e-05
4.351e-09
0.02074
0.0003426
0.05373
0.0001112
0.0002698
2.397e-10
0.0001125
0.0001001
0.0001465
0.0001575
3.418e-05
0.006933
0.0001456
0.0001471
0.01649
5.127e-06
0.02247
4.469e-05
1.182e-07
0.000175
0.0001493
6.184e-06
0.02392
0.007268
1.303e-06
0.0008086
0.02367
0.0204
0.00541
0.000169
0.008806
0.0001465
0.001768
0.02952
5.204e-06
0.06004
2.957e-05
3.336e-05
0.0001731
6.415e-06
0.04619
0.0002684
4.766e-05
0.000568
0.0001521
0.01852
0.006824
0.009465
0.0009386
0.007244
4.401e-05
0.0006886
0.0001455
0.007825
0.05442
7.651e-06
6.177e-05
0.0005515
0.03613
0.000155
5.827e-05
0.0001581
0.006234
0.0213
0.01148
0.02339
0.02406
0.0003383
7.157e-07
0.0001632
0.0001493
0.0003163
0.0001395
0.0169
0.0001504
0.0001687
0.02093
0.0001439
0.000165
4.807e-05
0.0007148
0.0001457
0.0001491
0.02507
8.522e-05
0.001714
0.0002009
0.03423
0.01301
1.132e-05
1.982e-05
0.07608
0.001582
0.05693
0.0001599
4.372e-05
5.215e-08
0.02538
2.205e-05
2.714e-05
0.02323
2.906e-08
0.0001456
0.0001373
0.0001647
0.0001548
8.931e-09
0.0001459
0.03289
0.0002914
2.258e-08
0.0005969
1.297e-05
0.0001246
0.0001243
2.393e-05
0.006787
0.01463
0.0002309
0.0001505
0.06969
0.0001651
0.000149
6.851e-06
4.591e-05
4.644e-05
0.01643
1.254e-06
0.004298
0.0001772
0.0001324
0.0001186
5.317e-05
7.673e-06
2.512e-05
0.006187
3.467e-06
0.00278
0.01401
5.263e-05
0.001818
0.005507
0.0001551
0.0001293
2.34e-05
0.0001328
0.0001313
0.001025
0.00557
4.817e-07
0.0001637
3.569e-05
0.006816
0.0003436
0.0001456
0.0001861
0.0001482
0.01188
9.636e-08
0.0001877
0.0001577
8.89e-05
0.0001532
2.678e-06
8.824e-05
0.0001882
0.0001091
0.0001309
4.267e-05
0.01625
0.000136
0.004836
0.0115
0.0133
0.008106
9.533e-05
0.01769
9.129e-06
5.069e-05
0.007979
0.01067
1.862e-05
0.009071
0.002477
0.0005226
0.0001579
0.0001652
0.0001251
1.115e-07
0.0001669
0.00377
0.0001477
0.0187
0.0001484
3.825e-05
0.02721
1.195e-07
0.001689
0.0001537
0.0001019
1.688e-08
6.344e-06
0.0145
4.953e-05
1.131e-05
1.584e-05
0.0005571
0.01592
5.956e-05
1.129e-07
0.003678
0.007195
0.0001687
0.0001616
0.0001457
0.02709
3.265e-05
0.0001525
0.002814
0.02418
0.0001554
4.767e-05
0.0001313
0.03835
0.0001672
0.02847
1.927e-05
0.0001651
0.0001747
0.02774
0.0001511
7.688e-05
7.77e-05
9.357e-07
0.0004231
0.0002423
0.0001431
0.009592
0.001322
6.465e-05
4.706e-05
5.857e-05
0.03311
0.011
0.0001456
2.889e-05
3.768e-05
0.0001805
0.000202
0.02714
5.805e-05
1.023e-05
4.174e-05
0.0002037
0.0002269
0.0001565
6.179e-05
0.0494
0.0001549
4.656e-07
0.0001759
0.02133
0.0001457
0.0001473
0.000197
0.0001467
0.0005981
0.0001021
0.04753
0.02513
1.018e-05
5.132e-05
0.003528
0.0001069
0.003696
0.02252
1.082e-07
0.01143
0.004496
0.00481
2.744e-07
0.02134
1.425e-05
3.988e-07
0.0001462
0.0001952
1.181e-05
0.0001563
0.0185
0.0001768
0.0002076
0.0001036
0.01201
0.01074
0.0001497
0.03883
0.0001478
0.0001676
0.01844
0.005286
0.009526
0.02001
1.306e-07
0.01539
0.000147
0.002244
0.008392
0.05894
5.245e-05
0.01009
0.0002512
1.126e-05
8.254e-06
1.609e-07
0.001938
4.353e-05
0.002579
0.004783
0.002519
0.0001523
2.06e-07
0.002949
4.496e-05
0.0001641
0.0001445
0.005051
0.001666
0.01686
0.0001583
1.44e-07
0.000428
0.0001188
0.07408
0.01175
2.312e-05
0.0001451
0.0005037
0.02432
0.000152
0.0001424
2.196e-05
0.0001455
0.002936
0.01715
0.0001661
8.685e-07
0.0001807
0.0101
1.824e-08
0.008263
3.667e-05
0.0001317
0.0001306
4.527e-05
0.04724
0.000178
0.0003926
5.135e-05
0.0001438
5.222e-05
7.429e-06
0.01914
0.0001459
0.000147
0.01785
0.06087
4.692e-05
8.172e-10
1.781e-05
0.000152
1.766e-05
2.11e-06
0.0001551
1.468e-05
4.075e-05
0.0002579
0.0001697
8.777e-05
0.06807
0.01499
0.0001303
0.0001284
0.0001287
0.0001264
0.0001594
0.02073
0.0001247
3.516e-05
0.0001397
0.005179
0.01314
0.0001465
0.000127
0.006216
0.009684
0.0007667
0.0003371
0.0003625
0.01249
4.805e-05
2.618e-05
0.01999
5.198e-05
0.0001645
4.43e-05
1.359e-08
4.643e-05
7.759e-07
0.0001538
0.0001518
0.0001455
2.507e-07
0.005279
2.764e-05
0.0001295
0.0001509
1.115e-07
0.0001459
0.008442
0.0006202
0.0001698
0.007614
0.005057
0.01966
0.01011
3.578e-05
0.0001518
0.0003394
0.0001369
0.0001713
0.0009292
0.002009
0.01576
0.0001667
0.0001438
0.0001458
0.0001596
0.005665
0.0002006
0.0001701
0.01703
0.004433
0.0001638
3.288e-05
2.585e-05
0.04287
0.0234
0.02215
0.006004
0.0001622
1.852e-08
0.0001532
0.0001455
7.663e-07
0.0001455
0.0001452
0.0002482
0.0002528
9.964e-06
0.01432
7.772e-06
0.01086
2.667e-05
0.0001465
0.0001585
0.005154
3.35e-05
0.02079
0.0001831
0.0001584
2.266e-06
2.606e-05
0.0001483
4.539e-06
2.538e-05
2.695e-09
0.0001912
0.04185
0.03211
0.0001556
0.000149
0.04412
0.0001736
1.407e-06
0.0001518
1.282e-05
6.755e-08
0.0001456
2.179e-05
0.0001127
5.258e-05
0.0001458
9.804e-06
2.513e-07
9.627e-09
3.288e-08
0.0001679
0.04412
3.967e-08
0.0001579
0.004467
0.000144
0.01728
0.0001527
0.03612
0.001036
3.134e-08
0.000184
0.01454
0.0001526
0.0001492
0.0001524
2.735e-05
0.000322
0.04957
0.0001378
0.008436
0.0001672
0.0187
0.01994
0.004287
0.00679
0.0001457
0.01954
0.01712
3.353e-05
0.0007603
0.0001335
2.64e-05
0.000274
3.818e-07
1.224e-07
2.011e-10
2.044e-05
0.0001546
2.365e-05
0.0001492
7.667e-06
1.272e-05
0.0001457
3.001e-08
0.0001489
0.002155
1.252e-05
4.188e-06
0.01359
0.0002271
0.001588
0.0001289
0.0001302
1.69e-08
0.0273
0.0001589
0.01954
0.009173
1.496e-07
1.485e-07
2.031e-07
0.02194
2.291e-05
0.0001042
0.02028
0.0001523
4.562e-05
4.615e-06
0.0001392
0.00715
4.928e-05
0.01035
4.987e-05
0.01539
0.03879
8.156e-07
4.033e-05
5.513e-05
2.052e-07
0.0001789
1.748e-06
0.0001532
6.597e-05
0.00266
0.0001484
0.0001564
7.093e-05
0.0008746
0.002853
4.138e-07
0.0001544
0.0001457
0.000145
3.133e-05
1.787e-05
0.01205
0.03305
0.000126
0.0001516
5.391e-06
0.0001264
0.0008997
2.99e-05
0.0001548
0.003902
0.01405
2.771e-07
3.068e-07
2.1e-08
0.0001509
1.756e-05
0.006365
0.005832
0.04701
0.02854
3.855e-06
0.01735
9.822e-06
2.926e-05
3.948e-05
5.465e-05
0.0001739
1.236e-07
0.02148
5.018e-05
0.0185
0.0001561
5.993e-05
0.0001772
0.0001463
9.588e-05
0.0002598
0.006025
0.0001339
5.458e-05
2.777e-07
8.797e-09
0.02569
2.247e-07
0.000571
0.000349
0.0001507
0.0001554
0.0001555
0.0001489
0.0001075
3.043e-07
0.0009757
2.004e-05
0.07735
0.03687
7.862e-05
0.005787
0.01778
0.0007993
0.02225
3.789e-06
0.004851
0.0001351
0.00702
5.199e-05
0.0001477
0.0001564
4.551e-06
0.0001463
0.002622
0.002574
3.052e-05
0.0001577
1.508e-06
0.0002266
0.04734
0.0001511
1.525e-05
0.0003688
2.808e-05
5.716e-05
0.0001433
4.575e-05
0.0001445
0.0001694
0.002395
0.06676
2.654e-08
0.002961
1.315e-05
0.03602
7.176e-06
0.0001607
0.000452
0.01178
0.0008913
0.000139
0.0001595
0.0001463
1.535e-05
0.0001318
0.0001827
0.006368
0.0001432
0.0005184
2.824e-05
0.005768
0.0001293
0.00252
0.0005071
0.0001482
0.04746
0.000161
0.0001737
0.00318
6.712e-05
0.0001568
0.0001701
0.0001578
0.000212
0.006639
0.0001371
0.0001354
0.0001473
0.0001545
0.0001525
0.00109
0.0006004
0.0001461
3.503e-05
0.0001962
4.217e-05
0.0001469
0.0001279
0.0001528
4.017e-06
0.0002419
1.96e-08
0.0461
2.872e-06
0.0001478
0.0001598
5.269e-07
0.0001507
4.491e-05
4.825e-05
4.676e-05
0.001478
0.007762
0.000146
5.142e-05
0.001833
0.01867
0.007156
0.01666
0.0001257
0.01031
7.349e-05
5.128e-05
0.0001439
0.01708
7.35e-05
8.236e-06
0.0001523
0.0001481
0.0009877
0.0003219
0.0126
0.01612
0.0001114
7.484e-05
0.0001545
6.379e-05
0.00574
0.0235
0.01052
0.06532
0.0001351
0.0001834
2.781e-08
0.0413
0.01084
1.928e-05
0.0001684
0.0001641
0.000145
0.0001504
0.0001614
0.0001557
4.745e-07
0.003746
0.000147
0.0001478
4.926e-05
2.169e-09
0.0001469
0.01282
2.989e-05
4.243e-05
0.0001724
0.005121
6.144e-05
0.00888
0.000188
1.188e-05
2.227e-06
0.0001487
0.0001463
0.007115
0.03727
0.004502
0.0001429
0.0001711
0.002334
0.01638
0.001496
9.037e-08
3.301e-06
0.06924
0.0004707
1.877e-06
0.03315
4.468e-05
0.01269
0.0001727
0.0001697
5.015e-06
1.437e-07
0.0001443
0.001821
5.496e-05
0.0001469
3.5e-05
0.01416
0.000169
0.0001561
0.02531
1.23e-05
0.001544
0.0001549
0.0001458
0.000146
0.06347
0.01067
0.0001343
0.02503
0.0001493
1.281e-05
0.03084
0.01516
2.983e-05
3.351e-06
0.06589
0.01791
0.000143
4.652e-07
0.0001761
7.02e-05
2.047e-05
0.000155
0.0001756
0.0309
0.003552
3.245e-08
0.03354
9.536e-07
0.0001385
0.000142
0.009299
0.0001521
0.000143
3.213e-08
4.747e-05
4.261e-05
6.504e-05
0.04536
0.009971
0.0001346
2.553e-08
0.0001564
7.189e-05
0.0001353
0.0001531
0.01435
0.009848
0.008385
0.02557
0.02755
0.00156
0.0001362
0.008956
0.0001657
5.348e-05
1.458e-05
0.0001617
0.01708
9.582e-05
0.0001471
0.002581
0.001479
0.0002649
0.0001548
0.01479
9.23e-07
0.0001301
0.0001438
7.998e-05
0.0003812
0.02343
2.358e-05
0.0001478
0.000175
0.003852
5.51e-05
0.000148
0.0001538
8.143e-06
5.17e-05
8.261e-05
0.01272
0.0002064
0.0001368
2.247e-05
0.000139
0.0005402
2.769e-08
0.00016
0.009002
0.01987
0.0004826
7.694e-06
0.001847
0.0001531
0.0001363
0.01317
0.0001592
0.0001448
0.002067
0.00012
0.03232
0.0001366
0.0001559
0.0001558
0.0001496
7.105e-05
0.005749
0.0001456
0.00012
7.478e-05
0.002088
0.0001507
0.0001467
0.0001449
0.0001584
0.05165
0.06318
1.596e-05
2.697e-08
1.902e-07
7.361e-05
1.412e-06
2.165e-06
0.0001482
5.105e-08
0.01096
0.000116
0.02795
0.0001565
0.0002609
0.0001741
0.0006519
5.859e-06
0.001036
0.000158
0.01112
5.377e-05
5.179e-05
0.0002155
0.0001652
0.006841
0.0001557
3.996e-05
0.0001449
0.01117
0.0001443
0.007767
0.0001536
0.0006451
2.754e-07
4.018e-05
0.0001373
1.088e-05
0.01072
0.0001331
0.0001896
0.000146
0.0002045
0.007665
0.0003058
0.001258
0.0001099
0.0001495
0.0001713
0.0362
4.875e-07
0.0001473
0.0001535
1.897e-07
0.0001422
0.0001443
3.153e-06
0.01184
0.0001532
0.0001533
0.05312
4.223e-05
3.949e-08
1.625e-05
0.009531
0.02908
0.005956
0.0001559
0.0001451
0.0001546
5.473e-05
4.419e-05
0.005697
0.0001479
3.401e-07
4.299e-05
5.855e-05
0.01135
0.008354
0.008496
0.0001343
0.0001565
0.0006772
0.002796
0.0001513
4.131e-05
1.478e-05
0.03675
0.000165
0.0001765
0.02239
0.0001511
0.02669
6.417e-05
0.04311
0.0001367
0.0001477
0.0001796
0.0003741
0.01094
0.000161
0.0001495
0.0001491
0.006583
1.19e-09
0.03538
0.0001633
0.0004188
0.0001416
0.0001413
7.307e-05
2.771e-06
9.434e-05
0.003292
2.076e-05
1.415e-05
0.02355
0.0001595
0.01023
2.762e-05
6.5e-07
0.01722
0.0001523
4.235e-06
0.0001689
6.545e-06
9.966e-05
0.02338
0.01985
3.999e-05
0.0001459
0.008009
0.000168
0.0001448
0.001265
4.045e-06
0.002823
4.605e-08
1.643e-05
0.002081
0.0001449
0.02836
0.003397
0.0001587
0.01841
0.01461
0.0007418
0.002389
0.0001042
0.0001465
0.004878
0.0001383
0.0001495
0.00259
0.0002107
0.0001627
2.881e-05
2.672e-08
0.0001423
0.0001455
9.12e-05
7.85e-05
5.885e-06
0.0001658
0.007869
1.179e-05
0.04885
0.01945
0.0001461
0.000163
5.136e-06
0.0001524
0.01143
0.0001442
9.175e-05
0.0001524
0.01815
2.099e-05
0.00459
0.0006195
8.151e-05
0.04926
0.0001504
0.0008007
0.006077
0.0003429
0.0001437
0.0001492
2.104e-05
9.727e-05
9.298e-05
0.03823
0.005413
0.04638
4.091e-05
0.0001174
0.0001282
0.0001533
0.000163
8.619e-09
2.666e-05
0.0001441
0.0001426
1.836e-05
5.244e-05
0.000668
0.0005949
7.73e-08
0.0001774
0.02295
4.852e-05
5.435e-05
1.331e-05
2.18e-06
0.07222
0.000195
0.04441
0.0001505
4.359e-09
0.0001474
0.02376
1.964e-05
7.49e-05
0.01952
9.581e-05
0.01046
6.608e-06
0.01721
0.0002649
0.0429
0.0001417
0.001549
8.631e-09
0.0128
7.218e-07
1.973e-07
0.0001456
7.203e-07
0.0002214
7.41e-06
0.0001129
0.02154
0.07763
0.004883
4.512e-05
0.0001337
0.000151
0.02321
0.01504
0.01377
0.01792
0.005947
0.0001583
0.0001619
0.0604
4.803e-07
0.01171
6.047e-05
4.578e-05
1.771e-05
0.0001348
0.0007963
0.006567
6.378e-05
0.01959
1.298e-07
0.002176
4.418e-05
0.0001551
4.572e-05
0.0001539
0.01682
0.01108
0.000159
0.0001685
0.01156
9.526e-05
0.01189
0.002938
8.732e-05
3.577e-05
0.01137
1.259e-07
0.0001053
1.021e-06
0.0001508
0.05884
0.005314
0.02881
0.0001533
0.0001167
0.0001456
0.0001472
0.0001455
0.009503
4.326e-05
0.005146
0.02042
0.0001519
0.01273
0.0001514
1.485e-07
3.116e-06
5.33e-07
4.599e-05
0.0001544
1.226e-05
8.282e-05
0.0001584
0.0001979
0.0001464
0.03184
0.03029
0.001851
0.07135
0.0001422
0.0001432
0.005284
0.02437
0.0001521
2.15e-08
4.064e-05
0.0001398
0.0001459
4.806e-05
0.0001517
2.239e-05
4.281e-07
0.0001545
0.0001753
0.001482
0.0001867
0.001184
3.271e-08
0.0001914
0.0001623
5.539e-05
3.336e-05
0.0001542
0.002294
0.0001498
0.000166
1.224e-05
0.004269
2.653e-08
0.0001509
8.667e-05
0.0009972
2.552e-05
0.0001462
0.01045
0.0001457
0.03213
0.0726
0.0001351
0.02239
4.676e-05
0.0002227
0.0001612
7.325e-06
7.03e-05
0.00039
1.302e-05
1.259e-05
0.006693
0.01516
4.884e-05
0.00276
0.01647
3.415e-05
0.0001386
7.156e-07
1.347e-07
5.523e-06
5.606e-05
0.0001595
5.146e-06
2.913e-05
0.0001616
0.0001891
5.693e-06
0.004795
0.0001592
0.0001341
0.0001862
2.923e-05
0.0001205
0.06272
0.0001012
0.05569
0.000141
5.031e-05
5.691e-05
0.0001795
2.157e-05
1.197e-09
0.0003651
0.008956
0.0001263
0.01104
0.004557
2.096e-05
0.00877
0.03068
0.02456
3.905e-06
0.01244
0.0001602
0.01049
1.746e-05
0.0001526
0.03923
0.0001531
0.04916
4.462e-07
0.001339
0.0001476
0.0001899
0.03738
1.404e-07
0.001194
0.0001434
0.0001574
1.315e-05
0.0001524
0.009819
1.208e-05
0.00046
0.02543
0.0001453
0.0001627
0.02019
0.01472
0.0001621
2.328e-05
0.0001384
1.836e-05
0.01394
0.001608
0.008432
0.01073
0.01022
2.649e-05
0.0002128
0.0001531
5.143e-05
0.0001461
1.87e-08
0.0001509
0.0001333
0.007168
0.0001461
0.000187