/*--------------------------------*- C++ -*----------------------------------*\
  =========                 |
  \\      /  F ield         | OpenFOAM: The Open Source CFD Toolbox
   \\    /   O peration     | Website:  https://openfoam.org
    \\  /    A nd           | Version:  8
     \\/     M anipulation  |
\*---------------------------------------------------------------------------*/
FoamFile
{
    version     2.0;
    format      ascii;
    class       volScalarField;
    location    "50";
    object      nut;
}
// * * * * * * * * * * * * * * * * * * * * * * * * * * * * * * * * * * * * * //

dimensions      [0 2 -1 0 0 0 0];

internalField   nonuniform List<scalar> 
127143
(
6.592e-21
9.829e-21
1.643e-19
1.985e-18
6.663e-18
2.077e-18
8.135e-16
7.109e-17
2.199e-17
2.205e-15
1.195e-15
9.445e-17
8.982e-19
4.07e-18
4.599e-07
6.058e-14
5.001e-18
0.004739
0.003623
1.348e-12
0.0007307
2.32e-11
7.009e-05
1.198e-07
1.937e-11
1.142e-09
2.314e-10
2.791e-10
2.709e-10
0.004318
5.909e-08
1.092e-09
2.537e-11
7.344e-08
4.992e-05
2.25e-11
0.0001966
0.0009932
1.95e-07
8.684e-10
0.003624
4.596e-06
4.905e-06
4.743e-17
0.004774
8.358e-08
2.734e-10
0.0008847
9.737e-08
1.554e-07
2.206e-13
0.000466
0.0004298
2.873e-05
0.006673
3.063e-08
0.006673
0.0001016
0.004813
2.752e-05
3.944e-06
0.002464
7.136e-07
0.006702
1.212e-06
2.257e-05
5.002e-05
5.939e-07
5.966e-07
0.002459
8.399e-08
7.093e-10
0.002446
0.00418
0.006694
8.062e-10
0.0006587
0.0002856
3.085e-08
0.006705
2.598e-10
1.546e-12
1.317e-06
2.815e-09
0.001729
0.0003966
2.814e-07
3.064e-10
2.304e-05
1.756e-07
0.006648
0.0005783
5.569e-07
0.0007427
0.0001228
0.0001257
5.099e-06
2.13e-08
0.0006558
4.342e-05
0.006705
1.109e-07
1.682e-08
3.36e-05
0.0004353
0.000613
5.323e-07
0.00246
8.91e-06
0.006681
7.01e-07
2.331e-10
0.0003675
7.246e-07
0.005806
8.121e-05
0.0004993
0.006694
0.0007338
4.87e-13
0.006681
1.806e-06
4.064e-06
0.0001218
3.05e-10
2.295e-10
0.00171
0.0007887
0.0001278
2.449e-08
0.0001239
8.804e-05
1.551e-06
0.0003001
1.446e-15
0.0001365
0.0001683
0.001046
1.096e-09
0.0001278
5.343e-05
0.0008534
0.000764
0.001261
0.0004364
2.924e-06
3.158e-10
0.006702
7.643e-05
6.942e-09
1.294e-05
1.381e-07
0.0009443
2.852e-05
2.591e-06
0.001774
8.024e-05
1.969e-08
0.0009173
9.964e-09
1.333e-07
9.102e-14
0.006645
0.0001256
2.159e-09
2.291e-06
0.0001159
8.599e-06
1.419e-08
0.0001698
1.771e-06
0.001265
7.564e-05
8.942e-06
0.002164
0.0004372
4.245e-06
0.0001295
1.425e-07
0.001945
9e-06
0.001115
0.0004888
0.0004501
2.579e-08
0.002535
1.242e-05
7.9e-07
1.284e-07
0.0007417
0.0003823
0.000129
0.000192
6.753e-07
4.094e-16
0.001723
0.006664
0.006642
2.077e-14
0.002378
0.006673
0.0001879
0.001139
0.0002403
4.847e-17
4.463e-07
0.0001339
7.16e-06
0.003634
0.006064
0.000166
0.001331
0.006695
1.657e-08
3.681e-05
8.008e-15
6.84e-08
7.043e-06
0.0002211
0.0001324
3.687e-06
0.006695
1.256e-07
0.0004364
8.076e-09
1.069e-06
6.572e-09
0.0008416
9.217e-06
0.001133
0.0006568
0.001348
0.002588
8.064e-12
0.0006712
0.0001139
0.0001254
1.508e-18
0.005147
0.0004991
0.0001441
4.229e-06
0.0006773
2.011e-08
0.0004814
7.266e-13
2.912e-07
3.012e-10
4.39e-13
0.002485
7.039e-06
1.709e-09
5.524e-06
0.0009987
6.645e-08
7.387e-06
0.0009619
2.404e-08
3.593e-05
1.447e-05
0.001671
0.001226
0.0004416
0.0008225
0.0003198
2.65e-06
6.504e-06
2.36e-06
5.193e-06
0.000208
5.273e-09
0.002162
0.001261
0.0004905
1.31e-06
0.0004003
0.000381
1.677e-07
0.002152
2.628e-05
0.003153
0.000129
3.434e-05
0.006692
0.006696
3.948e-16
0.0001153
0.005881
1.476e-07
0.00202
0.0008132
4.76e-05
0.0001149
4.898e-05
0.006703
7.533e-06
5.497e-08
8.968e-05
0.0006745
0.0001889
1.684e-08
3.446e-05
1.392e-05
0.000101
5.488e-09
4.099e-06
7.223e-06
0.006697
0.002584
4.496e-06
4.466e-07
5.299e-06
1.925e-08
0.003578
0.006695
2.348e-07
0.001006
1.69e-08
8.907e-05
0.002437
8.793e-05
8.54e-08
0.0003332
5.483e-06
2.084e-07
0.0006282
0.0001053
9.481e-05
9.596e-08
3.041e-06
0.001729
0.00573
5.488e-05
0.006664
0.006642
3.114e-05
9.077e-06
7.598e-05
0.001725
8.247e-05
0.0001473
7.023e-06
0.000479
0.0004179
1.085e-06
1.466e-07
8.829e-06
0.0002557
1.995e-08
8.037e-05
3.056e-08
0.003723
0.0003677
0.0004058
0.0001228
1.199e-05
0.0009843
3.243e-06
0.00627
9.561e-08
0.001705
8.686e-07
0.003056
2.156e-07
1.768e-07
0.006697
0.002701
0.002313
1.782e-06
0.002146
2.463e-06
0.0003104
4.925e-09
1.412e-07
0.0009101
7.113e-05
6.745e-08
3.83e-11
0.0007769
0.002166
0.002045
4.167e-10
3.716e-08
2.791e-05
0.0005532
7.815e-12
3.794e-05
1.239e-09
0.001643
0.001406
0.006033
1.346e-05
4.451e-06
7.538e-08
1.441e-07
5.21e-08
1.372e-05
8.03e-08
0.0001176
0.0009486
2.283e-09
0.006695
0.0007672
0.0005224
3.721e-05
7.217e-06
0.0005192
1.739e-06
0.006705
1.591e-07
1.017e-05
1.781e-08
4.798e-05
0.001049
6.673e-06
0.0001312
0.0004677
4.398e-09
0.0005842
3.265e-07
0.000129
2.234e-09
2.347e-05
0.002804
0.001082
1.193e-05
4.748e-06
3.947e-05
6.517e-06
0.0001023
0.006678
2.244e-05
0.0003065
0.0006657
0.0001673
0.006697
5.675e-06
1.433e-05
0.0004851
0.006703
0.006691
2.159e-07
0.0001256
8.156e-06
0.0002958
2.379e-08
0.004996
1.188e-06
0.002345
0.001334
0.0007452
5.202e-08
9.176e-06
1.193e-06
3.438e-05
0.0003166
1.32e-08
9.993e-06
0.0003791
0.0005881
2.111e-06
0.0002708
0.001777
7.734e-07
0.0002573
0.002246
0.001207
0.0006999
4.294e-06
0.006668
0.0009349
0.0002899
0.0001064
0.0009185
0.0001522
0.006645
2.109e-06
0.0002512
3.262e-06
0.0004857
3.194e-10
1.598e-06
3.052e-05
1.977e-08
8.464e-06
0.0001694
0.0005058
0.006696
2.023e-08
0.0008003
6.467e-07
3.21e-07
0.0003705
2.432e-06
1.496e-15
9.1e-05
1.232e-06
0.0001093
1.438e-06
0.006691
2.674e-10
0.001215
0.0004664
0.001793
5.321e-18
2.809e-14
1.062e-13
0.006697
1.261e-05
4.696e-05
0.006497
0.001945
2.163e-06
0.0001238
2.968e-05
0.0007047
5.13e-08
0.0009493
5.286e-09
0.002316
0.001098
2.314e-12
1.935e-07
2.06e-08
2.96e-06
0.005018
1.466e-05
0.001035
0.001831
0.006624
1.39e-08
2.356e-09
3.835e-06
0.006644
0.0006938
0.0001296
5.717e-07
7.976e-06
4.376e-09
0.002212
0.000794
1.701e-05
1.523e-05
0.006669
3.596e-05
0.0006964
7.169e-08
2.228e-07
3.668e-06
5.537e-07
0.001696
0.0002524
5.778e-07
0.0001517
2.508e-05
0.002849
2.169e-09
0.0001957
1.252e-08
1.228e-06
0.0007603
0.006702
0.006701
1.575e-05
8.169e-06
1.274e-06
0.006107
0.0048
1.248e-05
5.619e-08
0.0005112
1.073e-05
3.226e-07
3.472e-09
4.778e-05
0.0009706
0.006682
2.964e-06
0.0007339
1.639e-06
0.004909
9.619e-10
2.018e-06
4.908e-05
0.002163
4.084e-09
0.005628
0.0005765
0.0006389
0.001854
0.00502
6.376e-06
0.001675
4.727e-12
0.006645
5.934e-07
7.952e-08
0.006691
7.253e-06
0.004298
3.06e-07
0.0006528
0.006692
2.695e-06
6.175e-08
1.207e-05
0.0002015
0.0008046
3.223e-08
3.853e-08
1.362e-06
2.414e-07
8.729e-07
2.452e-07
0.0002777
0.0003564
9.827e-09
0.005523
2.929e-08
0.006692
1.123e-06
0.0006994
0.0007811
0.006678
0.004419
7.726e-05
3.371e-07
0.0004409
0.006472
0.006678
1.254e-05
1.973e-09
3.311e-06
2.64e-08
0.002413
8.988e-06
0.0007588
9.666e-06
0.0004287
9.68e-06
7.313e-07
0.006471
2.549e-05
0.0004825
0.0001002
0.0004498
0.006627
0.004801
0.0006499
2.114e-09
0.0005093
1.444e-09
0.000666
0.003711
7.715e-05
2.167e-05
0.0001839
1.678e-06
9.992e-05
0.00115
2.761e-06
3.578e-05
0.0004958
2.326e-05
1.262e-16
1.545e-06
0.0003972
0.0003113
0.0001201
0.0001003
6.192e-09
2.239e-05
0.000413
0.0001604
9.614e-05
0.0008025
0.006679
1.812e-07
1.843e-05
4.53e-06
0.006644
0.006678
2.815e-10
0.0001064
4.543e-08
0.0001447
2.361e-06
0.002575
1.867e-05
1.432e-08
9.759e-06
7.819e-08
0.006694
0.006668
6.916e-06
1.279e-05
2.695e-06
4.911e-06
5.858e-09
0.002383
1.153e-07
9.226e-05
0.002553
0.00391
3.157e-08
0.0001679
5.725e-08
1.29e-15
2.331e-06
0.0003702
0.0008389
0.004819
7.986e-07
1.819e-07
1.066e-09
0.003968
0.001618
0.000432
1.017e-08
0.0004518
3.151e-07
0.003337
1.06e-07
5.895e-07
4.557e-06
0.001762
5.939e-05
2.655e-20
2.202e-05
0.0001624
5.713e-07
2.911e-06
3.166e-07
0.006688
0.0002877
0.003717
0.000526
0.003532
1.115e-09
2.795e-05
4.26e-09
0.003479
1.715e-05
0.0002501
1.995e-05
6.923e-05
0.003938
0.0008026
5.868e-06
2.406e-06
0.0009382
0.002106
0.0004778
1.148e-06
0.002855
7.007e-06
5.537e-05
0.0001149
9.333e-05
3.611e-05
2.314e-06
1.068e-09
1.084e-05
0.006615
0.0007911
0.002488
1.594e-09
1.989e-08
2.875e-05
0.002006
7.065e-07
0.006627
0.0001372
2.885e-06
0.0005022
2.224e-11
0.000499
4.383e-06
0.0004724
0.0008076
5.747e-05
0.006697
3.1e-17
0.0001458
0.0002294
3.968e-07
0.0005191
2.06e-05
4.602e-05
1.105e-07
0.006682
0.003838
3.355e-05
0.003763
2.507e-05
6.549e-07
5.077e-07
3.877e-06
0.006661
0.0008171
0.0003808
0.006695
0.006657
0.0004664
0.002413
0.00241
2.67e-05
0.0005917
2.872e-13
1.901e-05
8.253e-06
0.006679
0.0003596
0.0001537
6.956e-08
9.675e-09
8.375e-06
0.003415
0.005215
0.001118
4.934e-10
0.00668
8.783e-05
8.271e-09
8.561e-07
8.37e-10
0.005802
0.000911
7.39e-07
0.006694
2.047e-08
0.00668
1.996e-06
2.997e-09
5.064e-05
0.0004538
2.716e-10
0.006676
3.273e-06
1.985e-05
1.531e-08
3.731e-05
6.87e-09
7.328e-09
3.037e-05
6.67e-05
1.188e-05
7.879e-13
0.006693
0.001114
4.23e-08
1.444e-07
8.894e-05
3.955e-11
0.003484
0.0001586
2.854e-06
7.438e-10
9.771e-11
1.229e-05
1.646e-14
1.974e-06
1.192e-13
8.899e-05
5.936e-07
0.003832
2.312e-11
0.0006747
3.55e-07
0.00489
0.005095
0.0007343
0.0003783
0.0002063
0.002704
7.178e-07
9.573e-05
0.0003591
1.397e-07
5.167e-07
0.005223
0.003379
0.0001953
0.0004173
2.127e-06
8.673e-12
0.0005686
9.881e-06
6.244e-07
0.001425
1.15e-05
0.00669
0.0003766
5.834e-08
0.006313
3.527e-06
0.0001944
0.0026
0.006665
0.002445
0.00286
4.021e-14
1.759e-05
7.786e-12
0.000997
9.552e-06
7.773e-07
3.279e-08
1.31e-05
0.005598
1.637e-09
9.013e-06
0.005396
9.293e-06
1.069e-11
0.001828
1.685e-06
1.122e-05
7.058e-05
7.135e-09
4.992e-14
9.639e-08
0.0007319
0.006694
8.827e-06
8.046e-06
6.797e-05
3.911e-06
6.353e-07
2.573e-09
4.342e-05
3.87e-05
2.416e-09
0.0001182
9.398e-09
0.006689
0.0008152
3.612e-06
0.0009768
2.616e-05
0.0007233
0.006692
0.002038
7.87e-07
4.221e-05
5.307e-05
7.599e-08
6.568e-06
0.001539
0.0005269
5.846e-05
2.919e-05
1.39e-12
0.0005192
3.933e-08
1.908e-06
8.297e-06
0.00161
6.523e-07
2.488e-05
9.158e-07
9.07e-11
0.0006767
0.006688
0.006685
0.0009898
0.0005427
9.176e-05
0.006707
7.708e-06
0.0007461
6.992e-05
8.826e-06
0.0007109
5.843e-06
2.59e-06
0.006705
7.368e-05
5.586e-05
1.845e-10
5.601e-09
0.0002548
1.105e-05
0.001304
2.592e-06
1.336e-07
2.312e-06
0.002651
6.158e-06
2.807e-07
0.000117
1.703e-09
0.006376
1.097e-09
2.673e-08
0.002557
0.0002384
3.896e-07
0.003653
1.293e-10
1.463e-12
0.006293
0.00669
0.0003233
0.0005241
3.888e-12
8.25e-05
3.746e-07
9.365e-08
3.275e-06
7.925e-05
0.000113
0.006569
2.143e-06
0.001364
1.082e-05
6.396e-05
2.846e-07
0.0003007
0.005425
2.561e-12
0.000133
0.006691
3.436e-05
0.005682
0.006688
4.058e-06
8.042e-05
8.843e-11
0.006687
2.272e-08
0.006694
5.345e-07
9.54e-05
0.003562
1.944e-05
2.912e-08
5.787e-08
1.967e-06
1.388e-06
0.003513
0.0009151
0.0009773
1.648e-07
2.054e-05
4.421e-06
1.45e-10
1.816e-06
3.171e-11
0.0001714
6.785e-08
1.945e-06
7.818e-08
9.45e-10
5.432e-06
0.003732
0.0041
9.674e-06
0.0001709
5.506e-09
0.002727
2.85e-07
0.001372
5.164e-07
7.406e-07
0.0003489
0.0001346
7.993e-07
0.002095
5.169e-07
6.232e-05
1.93e-08
3.486e-05
0.006541
3.167e-06
9.09e-06
0.006693
3.074e-05
2.415e-06
0.006684
4.846e-05
6.43e-05
0.0004005
5.374e-06
0.001374
0.0001519
0.0001079
0.00668
3.137e-05
1.793e-05
0.006706
7.184e-06
0.0001276
0.0007598
1.489e-05
1.606e-05
0.0003701
3.047e-06
1.439e-10
2.992e-08
9.374e-08
0.001298
2.188e-11
0.002561
2.286e-07
0.006693
0.0003182
5.955e-06
6.454e-05
7.346e-07
3.491e-06
1.389e-08
0.006698
5.73e-13
2.883e-07
6.414e-07
8.948e-07
2.695e-08
0.002084
0.003913
4.44e-09
6.451e-07
6.133e-05
5.987e-16
0.0003633
1.586e-07
1.166e-08
1.73e-07
2.065e-06
0.0001963
4.033e-08
4.974e-07
7.81e-05
0.0004547
5.27e-08
9.289e-08
0.001906
1.109e-11
0.0001038
4.076e-07
0.0001284
2.377e-08
0.006656
0.00669
0.0008929
1.044e-11
0.0007127
0.001844
9.312e-11
1.757e-06
0.006693
1.768e-09
3.76e-07
0.0005154
6.39e-11
2.866e-05
0.0001466
1.022e-15
0.003024
6.956e-09
0.00138
5.579e-07
2.943e-08
7.469e-08
9.044e-09
9.525e-06
2.358e-05
0.000129
0.002756
0.0002048
4.943e-05
2.424e-05
4.93e-07
0.002215
1.153e-08
0.001118
8.527e-05
0.001665
4.307e-06
2.095e-05
1.059e-05
1.103e-11
4.985e-05
2.053e-09
1.157e-07
8.115e-05
0.0001621
0.006694
0.001797
0.0002979
2.137e-05
6.328e-08
1.243e-08
5.909e-09
0.006682
5.232e-08
2.145e-06
0.0004009
3.421e-12
0.0002206
0.003296
4.135e-06
0.002109
2.843e-06
0.0001026
2.09e-10
7.148e-05
0.0009138
0.001144
0.006698
6.565e-13
5.231e-12
0.0003053
7.435e-05
2.974e-05
0.006487
0.006655
2.388e-05
0.001033
0.003386
6.021e-05
0.003026
0.002936
1.604e-06
0.0003828
0.002433
2.062e-05
1.2e-07
2.123e-12
3.196e-05
5.282e-09
0.000114
1.446e-05
0.006657
6.202e-08
0.001434
1.304e-06
1.061e-12
0.0006762
0.0024
7.299e-05
8.775e-07
0.0005896
6.898e-13
0.002407
0.0002546
0.001983
0.002292
3.128e-05
1.261e-07
3.834e-13
4.71e-05
6.162e-06
0.006676
1.278e-07
8.798e-08
0.006671
8.265e-08
2.311e-06
0.0001575
4.718e-08
0.006683
2.328e-05
1.518e-14
0.00364
2.107e-07
2.065e-06
5.042e-07
1.718e-09
5.796e-05
3.371e-05
9.314e-06
1.914e-09
0.0001304
5.122e-05
1.712e-05
7.693e-07
1.409e-08
3.8e-09
1.714e-05
0.0001414
0.006691
6.1e-05
0.003315
1.517e-08
1.231e-06
0.002463
0.0001242
0.006683
8.09e-05
1.78e-05
0.006608
0.002402
0.006179
7.993e-09
0.002367
1.822e-11
4.165e-05
0.000474
3.058e-07
0.0004281
2.744e-07
6.936e-08
6.004e-14
0.0001366
3.062e-05
0.0005736
0.0006434
0.001297
0.006702
0.0002588
0.00107
0.001488
0.006699
0.001924
0.006686
2.448e-05
0.000113
0.006683
0.006688
5.62e-05
5.97e-05
6.004e-07
7.847e-05
0.006701
1.07e-05
0.0003789
5.977e-05
6.131e-14
2.141e-08
1.482e-11
1.889e-07
1.553e-06
8.106e-08
1.883e-07
0.000438
0.000316
5.675e-10
0.000911
3.32e-07
3.929e-06
0.0003034
0.0003508
0.003632
0.006687
5.885e-14
0.0002275
1.296e-09
0.006693
1.394e-12
4.063e-07
6.846e-08
0.0001104
0.006639
0.006639
0.00116
0.002124
0.002054
0.00203
7.351e-07
5.823e-05
4.707e-06
0.00241
4.383e-05
3.935e-09
1.599e-06
0.0001351
0.0005811
3.05e-05
1.135e-06
1.27e-06
7.139e-07
7.398e-08
0.0009038
0.00219
0.000189
0.0001151
4.3e-11
0.0004951
0.0004287
1.228e-06
0.002178
2.676e-07
0.0003342
4.055e-07
0.003179
0.006692
0.0006931
5.576e-06
8.274e-13
1.259e-09
9.395e-05
0.0001502
3.3e-07
7.071e-05
0.006618
2.006e-07
6.224e-06
8.158e-14
4.19e-05
1.269e-11
0.0001466
0.006688
4.052e-05
2.52e-06
0.001964
1.227e-05
0.001154
8.913e-06
9.833e-07
0.0001763
0.0007615
1.814e-08
0.0001422
5.765e-07
4.802e-07
2.737e-08
0.00321
0.003208
6.856e-08
7.599e-06
1.023e-13
1.906e-06
1.53e-08
1.692e-08
6.478e-14
0.00236
1.707e-05
0.0003221
0.003069
0.006687
0.001075
0.006297
2.333e-12
0.006692
8.079e-10
4.155e-05
6.845e-06
7.63e-06
4.197e-08
0.002457
6.567e-10
6.354e-05
6.083e-07
0.0008395
3.441e-09
0.00669
7.63e-05
1.619e-06
0.001006
1.899e-07
3.006e-06
0.0004643
1.855e-07
1.093e-07
0.0001965
0.006662
1.09e-08
0.002476
0.00667
5.788e-05
5.815e-08
0.006662
1.872e-09
0.006695
0.000573
0.0003776
0.001345
6.559e-07
0.00666
0.0007257
2.66e-06
0.0001843
2.635e-05
9.454e-06
3.674e-05
0.006695
0.006681
0.0003533
2.039e-13
6.495e-06
4.642e-07
0.0007206
2.337e-10
7.987e-05
4.869e-05
0.002858
1.936e-05
3.206e-05
4.906e-08
0.0005184
3.954e-07
0.0009736
0.0003686
0.006703
4.211e-06
8.067e-07
0.0005641
7.081e-07
1.256e-08
2.976e-05
0.00668
0.0004851
2.451e-09
5.443e-06
2.001e-12
6.321e-09
0.00275
0.0003979
1.387e-05
2.718e-10
0.0004713
1.01e-07
7.084e-09
0.002749
3.726e-05
0.006691
0.0001033
1.896e-07
0.0002358
0.006693
1.356e-05
0.006693
0.00011
3.102e-05
0.006696
0.003044
5.923e-05
9.251e-06
0.001161
0.002154
9.273e-08
0.006696
6.963e-08
2.121e-09
5.261e-05
0.003588
1.957e-07
0.0009168
0.0004102
0.0003898
1.815e-08
3.308e-06
0.000333
2.178e-08
0.0002346
5.457e-05
4.32e-09
0.0001425
2.736e-05
2.013e-06
0.0002292
1.054e-07
0.0006515
9.864e-06
5.536e-07
0.0002883
0.002168
3.703e-07
0.0028
0.0003473
7.273e-05
1.842e-12
0.0001791
3.067e-11
0.00011
0.006664
3.133e-11
2.976e-07
0.0001079
7.121e-08
0.0004981
0.0006856
0.006705
0.001963
1.611e-10
0.001345
7.348e-06
9.617e-07
2.631e-07
0.006695
7.819e-07
7.464e-06
1.044e-05
1.677e-07
0.0004744
4.923e-07
2.32e-09
0.006689
0.0002144
0.0002972
0.002653
0.0003249
3.717e-05
4.11e-05
5.955e-06
0.0001088
0.001119
0.003078
0.000117
0.000233
0.006544
2.659e-05
5.519e-08
5.882e-11
0.006704
1.181e-05
1.14e-10
0.002537
3.913e-06
0.002121
2.56e-07
5.608e-11
0.002903
0.002377
0.0001967
0.0008538
1.471e-06
5.538e-06
0.0008629
9.686e-10
4.615e-05
0.0004928
3.309e-05
5.176e-15
1.769e-14
0.0002359
0.0001674
4.066e-05
8.501e-05
0.001152
9.24e-06
0.0008034
4.431e-07
3.343e-05
6.1e-05
5.824e-07
3.638e-10
0.0005792
0.0001066
0.005514
2.631e-07
9.684e-05
0.0003114
1.416e-05
6.007e-05
3.101e-07
0.0002339
0.003486
0.006679
4.647e-08
6.533e-09
0.0006724
1.192e-05
0.001071
1.327e-12
9.823e-08
0.0001607
2.07e-05
1.219e-08
0.0006594
3.773e-07
4.88e-13
0.006615
1.193e-09
3.702e-07
2.321e-07
0.004886
0.0007427
0.001728
1.982e-08
1.773e-05
0.001601
6.812e-09
0.004972
5.464e-06
1.616e-07
0.0001449
0.001941
0.004894
5.786e-08
4.289e-09
3.249e-07
9.955e-09
7.394e-10
0.0007081
1.777e-11
0.00246
3.844e-07
1.917e-05
0.002624
9.196e-05
0.003862
2.058e-06
0.001031
3.957e-07
0.003082
5.905e-07
5.568e-14
7.898e-12
0.000172
0.0008479
3.445e-05
1.249e-05
0.001632
0.0001774
0.0001675
8.327e-05
0.006701
5.823e-07
3.524e-07
1.257e-07
6.099e-05
1.257e-05
2.521e-07
0.0009959
1.088e-07
3.348e-11
6.708e-10
0.0001171
4.955e-07
9.494e-14
0.001986
1.91e-07
0.003578
7.644e-06
6.849e-06
4.122e-16
1.077e-05
7.314e-06
0.003503
0.0001875
4.228e-08
0.0001224
0.005578
0.006698
0.001373
6.868e-09
0.001515
4.247e-07
1.141e-11
1.667e-06
0.002202
1.001e-08
0.002479
0.0001027
8.328e-10
0.0001506
0.003455
0.0004403
9.868e-05
0.0001067
0.0001505
0.006696
3.417e-06
0.003185
7.849e-09
0.003236
1.342e-07
1.614e-08
5.168e-05
9.831e-09
0.000945
4.646e-07
3.304e-07
3.33e-07
1.826e-05
0.001657
0.0001995
0.0004626
3.106e-06
9.114e-05
1.211e-08
2.162e-06
0.006191
8.337e-05
0.003621
1.425e-08
9.694e-07
0.002174
0.001668
5.499e-05
3.379e-08
0.0034
8.585e-05
0.0007765
0.0002565
0.00214
0.0009931
0.0001826
4.455e-11
0.0001219
0.0002939
4.776e-07
0.006672
0.001056
6.15e-05
0.0001227
0.001846
0.006687
0.0001019
2.196e-07
5.887e-07
0.006693
0.000848
0.00238
4.51e-06
2.013e-05
0.001106
0.000516
0.000341
1.541e-08
5.36e-08
0.00246
5.405e-06
0.0006625
0.0001154
4.077e-07
3.059e-12
0.002485
9.979e-09
8.34e-08
0.002163
2.039e-12
0.005463
0.006662
1.315e-05
5.128e-05
9.667e-14
0.006693
0.001956
5.319e-07
2.672e-13
2.131e-06
2.71e-08
0.006295
0.006393
7.501e-08
0.0001107
0.0003644
2.269e-06
5.197e-05
0.001715
0.0001061
0.006705
1.118e-08
2.812e-07
5.945e-07
0.0005362
7.468e-10
0.0007898
2.399e-05
0.00668
1.011e-05
2.85e-07
1.205e-08
6.124e-08
0.0001205
6.627e-10
7.399e-06
0.0003144
4.41e-07
9.551e-06
9.234e-05
0.0001176
5.868e-07
6.884e-09
0.004789
0.005088
4.635e-06
5.748e-05
1.237e-10
9.361e-06
6.754e-08
9.203e-05
0.002445
0.006695
7.788e-06
0.006702
0.0005173
8.396e-12
2.809e-06
9.864e-05
1.301e-06
0.0001338
3.982e-10
1.426e-07
0.002912
7.646e-06
1.113e-05
4.672e-07
0.000726
2.189e-06
7.683e-05
0.0002668
0.0004227
0.0002696
5.505e-06
0.001557
7.462e-09
4.344e-07
0.0002091
0.000114
2.681e-09
0.0001288
6.923e-06
1.283e-06
9.744e-07
7.917e-06
6.043e-06
1.704e-11
0.0001209
4.097e-05
0.001281
0.001362
0.006703
2.665e-07
0.002926
1.822e-11
1.297e-05
4.345e-05
1.015e-07
3.142e-13
7.806e-09
0.0005052
7.965e-07
2.054e-08
1.131e-08
0.00216
0.0006777
1.996e-06
3.284e-12
5.768e-05
0.0002408
7.211e-05
7.941e-05
0.006055
0.001002
5.932e-09
2.923e-05
2.977e-06
0.002131
6.385e-05
4.287e-08
0.006656
0.0008128
0.0001158
0.001406
1.851e-08
7.965e-05
4.173e-05
0.003143
4.708e-05
4.027e-07
3.139e-06
5.27e-11
5.649e-07
1.528e-06
0.00668
0.0003063
1.053e-05
2.147e-08
4.403e-08
1.754e-06
0.003351
0.0002171
0.005432
1.018e-07
6.849e-08
8.588e-06
6.684e-06
0.0005714
3.934e-08
2.085e-08
1.242e-07
4.11e-06
5.609e-05
1.541e-06
8.944e-09
0.003735
7.175e-05
2.016e-11
0.002649
0.0006748
0.004122
0.006699
2.927e-06
0.002425
1.086e-06
1.636e-06
0.0009464
0.0009815
2.114e-08
3.983e-08
5.623e-05
2.288e-07
5.669e-05
0.001542
7.29e-13
0.0004608
8.92e-05
0.002438
4.742e-12
0.001684
2.905e-09
6.807e-11
0.003504
3.265e-07
2.558e-08
3.806e-05
0.001332
5.669e-08
7.299e-07
1.14e-07
0.0006973
0.0003993
0.0001699
0.003799
0.006701
4.96e-05
0.001381
1.884e-05
4.333e-05
0.0004039
1.318e-11
0.001244
0.004263
1.366e-05
0.0003115
0.002291
1.158e-06
0.0003316
1.071e-06
2.539e-08
6.964e-09
3.13e-11
1.237e-05
1.763e-07
5.359e-06
0.0001028
1.822e-05
2.167e-05
2.846e-12
1.981e-05
5.589e-07
9.278e-06
0.006684
5.765e-05
8.435e-06
0.00115
4.092e-05
2.619e-11
8.786e-07
3.957e-07
0.000992
0.0003079
1.033e-08
0.006695
1.26e-07
0.002311
9.888e-05
4.9e-06
4.796e-08
0.006361
2.581e-05
0.001334
1.41e-05
1.529e-10
2.391e-05
0.0001987
3.138e-13
0.0003406
1.882e-07
0.006682
0.006653
2.05e-07
0.0005925
2.472e-05
2.094e-06
4.405e-07
0.006686
3.073e-08
1.096e-08
0.0005571
0.006699
0.003547
0.0004041
0.000593
1.981e-07
4.163e-15
3.688e-08
0.005605
4.442e-08
1.119e-10
9.116e-05
3.284e-08
1.237e-07
0.002653
0.0001036
9.803e-08
0.002101
0.0005025
0.006635
0.006593
0.006617
0.0063
0.0001577
0.0008314
6.017e-06
7.43e-08
1.916e-05
3.58e-05
0.0005347
2.711e-07
0.006116
0.0001162
0.0003002
4.265e-07
6.954e-07
1.593e-07
0.0001277
7.967e-07
1.002e-07
0.0006433
3.37e-07
0.0001814
4.973e-07
1.235e-13
2.618e-07
3.774e-10
3.87e-06
1.574e-06
0.006695
4.156e-12
0.0001183
9.659e-08
1.876e-05
0.0001326
5.833e-12
0.006694
0.0002012
1.633e-06
0.004376
0.0001126
9.408e-05
0.001173
0.0001483
9.766e-09
6.444e-05
8.661e-07
0.006624
8.008e-06
7.58e-06
1.311e-05
0.001123
3.708e-06
0.006683
0.004189
3.745e-05
1.618e-05
3.246e-07
0.0001314
0.001007
5.587e-05
5.762e-05
1.805e-08
9.666e-08
0.002209
0.002471
0.0008483
0.000163
0.0001179
6.336e-13
3.807e-06
0.006692
1.605e-10
0.006689
0.006689
7.2e-05
0.002459
2.941e-09
0.001095
1.068e-08
0.0005298
8.373e-08
0.006695
0.0001076
2.672e-05
1.958e-07
0.001758
0.003555
6.527e-05
1.304e-10
1.458e-08
0.006702
1.33e-09
1.105e-08
2.839e-14
0.00285
0.00242
0.001505
9.571e-05
0.0005351
0.002605
1.1e-06
1.014e-10
9.498e-06
3.041e-08
1.06e-13
0.006694
7.056e-08
1.295e-07
4.666e-07
0.006694
1.898e-08
1.087e-11
2.492e-13
1.673e-12
0.0001147
0.0004593
1.947e-12
0.0002722
8.239e-05
0.006687
0.001082
4.368e-07
0.003195
4.293e-06
1.646e-12
6.302e-05
0.0002218
2.764e-06
0.006706
0.005532
8.108e-08
5.889e-07
0.003205
3.442e-08
0.0001365
0.0001412
0.001693
0.0006381
2.442e-05
0.0001831
0.006695
0.0004124
0.00039
1.931e-07
3.039e-06
1.2e-06
8.227e-08
1.325e-06
1.523e-11
4.256e-12
5.639e-16
5.786e-08
0.0001743
3.284e-08
0.0003388
1.329e-08
1.238e-08
0.006694
1.563e-13
0.006705
1.844e-05
2.422e-09
3.401e-09
0.0001369
1.668e-06
5.97e-06
6.174e-07
0.006633
1.032e-13
0.0001798
0.002844
0.001823
0.0001357
4.752e-12
2.439e-11
3.54e-12
0.001775
6.444e-08
5.398e-08
0.001095
2.497e-05
5.922e-07
1.35e-09
0.006668
0.0002128
8.718e-07
0.0001007
1.046e-06
0.0005536
0.003094
4.325e-10
3.726e-07
4.432e-07
3.468e-11
0.003058
1.255e-09
3.952e-05
1.418e-06
2.088e-05
0.006455
7.337e-05
1.77e-06
2.716e-06
1.834e-05
1.718e-11
0.002862
0.004126
2.88e-05
1.602e-07
1.428e-08
0.0005219
0.003334
0.006449
0.0002393
7.495e-09
0.00634
4.286e-06
9.62e-08
9.6e-05
5.003e-05
0.0004173
3.494e-11
1.195e-11
1.391e-12
8.341e-05
4.692e-08
0.0001222
6.832e-05
0.002583
0.002414
5.711e-10
0.001374
1.278e-08
1.403e-07
1.195e-08
3.314e-07
4.665e-05
8.445e-12
0.0009229
6.676e-07
0.0006204
0.003164
1.204e-06
9.094e-05
0.001889
3.896e-06
6.442e-07
0.0001551
4.615e-07
1.42e-06
5.906e-12
1.194e-13
0.002566
4.125e-13
0.00218
0.0001355
0.0001116
0.0001311
5.988e-06
0.006704
4.334e-07
1.412e-11
3.967e-06
9.483e-09
0.001899
0.0008667
5.554e-07
0.0001136
0.001549
2.857e-06
0.001542
1.678e-09
5.557e-05
0.005263
9.528e-05
6.714e-07
0.0067
0.0003945
5.142e-09
0.006695
3.029e-05
2.257e-05
1.498e-07
2.21e-05
1.18e-09
0.002442
0.001477
4.527e-05
3.07e-08
7.103e-08
5.199e-08
1.059e-06
0.006684
1.441e-07
0.006697
7.935e-05
2.572e-05
0.001582
1.854e-12
2.921e-05
3.188e-08
0.002628
6.355e-09
2.468e-05
0.002248
0.0007429
4.166e-06
0.00667
3.381e-05
0.006695
2.892e-08
1.555e-07
1.111e-06
0.0001493
0.00663
1.432e-06
9.946e-08
0.0001027
8.997e-09
2.456e-05
4.814e-07
0.0005233
0.0009548
4.746e-05
5.399e-05
2.338e-05
2.688e-06
0.0001205
1.41e-05
0.00011
4.044e-06
0.0001194
0.006623
0.006676
0.001727
0.0002651
5.394e-06
7.986e-07
2.133e-06
0.002168
1.877e-07
7.977e-06
3.312e-07
0.006698
6.869e-07
3.741e-05
4.377e-09
0.002844
1.806e-13
0.0005123
2.948e-09
0.003554
0.0001251
3.448e-11
0.0003215
3.607e-07
3.245e-07
2.208e-07
1.001e-05
0.0001435
0.006694
2.367e-07
6.876e-06
0.0003527
0.0001529
0.000385
1.565e-05
0.0004993
1.071e-06
4.923e-08
0.006689
0.001059
1.745e-06
4.356e-09
6.811e-06
0.006701
7.552e-06
4.775e-07
0.0007799
0.0008195
7.668e-06
2.52e-07
0.0001506
2.385e-06
2.171e-05
0.002315
0.0001101
0.0006521
0.005286
5.326e-06
1.758e-12
0.0003788
0.0001227
9.929e-09
1.462e-05
2.402e-05
0.006691
0.0003134
9.255e-05
0.003543
3.141e-11
4.836e-05
0.006697
0.0008967
5.987e-07
2.855e-14
0.006697
0.000726
5.303e-09
3.418e-07
3.617e-05
5.418e-05
4.065e-08
0.0001573
3.746e-06
2.693e-08
7.579e-11
1.504e-07
0.001798
0.0002052
0.0008285
6.845e-05
0.006683
6.186e-05
2.258e-05
0.0008059
7.478e-06
4.808e-12
1.342e-09
0.002548
1.155e-06
6.152e-11
0.002451
1.023e-07
0.0007557
3.993e-05
9.721e-05
5.411e-09
1.378e-11
0.006688
1.631e-05
5.352e-07
0.006697
1.566e-08
0.001071
1.072e-05
0.0001496
0.0004685
2.888e-08
1.097e-05
4.318e-06
0.006129
0.002579
0.002675
0.0001179
0.0067
0.0003024
0.0003499
1.215e-08
0.00277
0.001125
9.675e-08
4.069e-09
0.002753
0.0003202
0.006679
2.541e-11
7.259e-06
3.663e-08
5.528e-08
6.759e-05
5.2e-07
0.0002181
3.144e-05
2.259e-12
0.003617
7.105e-11
0.006675
0.006686
0.0004524
4.39e-05
0.006683
9.151e-13
2.786e-07
1.642e-07
4.202e-08
0.0002312
0.0003657
0.004966
7.499e-13
0.000782
9.872e-07
0.006677
1.987e-05
0.0001152
0.000361
0.0002527
0.0004769
0.00305
3.708e-06
0.006656
0.000266
8.998e-08
3.507e-08
5.982e-09
9.795e-05
0.0005589
6.345e-06
0.006699
6.57e-06
8.259e-06
0.000166
0.0001747
0.0002742
6.246e-11
0.005956
0.006684
3.848e-06
3.24e-07
0.00231
1.707e-08
0.006701
7.308e-08
6.037e-05
5.009e-07
0.006701
7.224e-05
1.515e-08
2.766e-07
8.647e-08
0.0007181
2.679e-06
0.006685
5.111e-08
0.004716
1.18e-06
1.156e-12
0.001673
0.0001183
0.001786
1.389e-07
8.024e-10
3.678e-06
9.036e-05
0.006657
0.0003141
9.164e-05
0.006692
1.07e-05
4.581e-07
0.00233
0.006706
0.0001258
7.001e-05
0.0001592
2.421e-07
0.0001486
0.006553
2.275e-07
9.861e-07
3.693e-06
0.0006322
0.006697
0.006693
0.0005985
0.0005529
0.00229
4.235e-08
1.776e-12
2.094e-11
1.065e-06
4.744e-11
1.179e-09
0.005333
3.946e-12
0.0002217
8.807e-08
0.00307
7.223e-05
2.565e-05
5.604e-08
1.653e-06
4.308e-09
4.511e-06
0.0002489
0.0005487
2.164e-07
5.841e-07
4.82e-06
0.0001039
5.921e-05
3.502e-05
1.593e-07
0.004195
0.000416
1.007e-05
9.213e-05
1.101e-05
1.669e-06
9.775e-12
1.794e-08
0.006662
6.853e-10
0.0003744
0.006669
1.343e-06
0.006694
2.462e-07
0.0001579
0.002545
7.677e-06
6.31e-07
0.006707
3.527e-05
0.003181
1.155e-10
0.0008723
1.575e-05
3.731e-11
2.897e-05
0.006688
2.572e-09
0.0005207
0.0005358
1.702e-05
0.002494
2.868e-07
2.033e-12
4.448e-08
0.0001856
0.001995
1.674e-05
5.022e-06
0.00669
0.0001727
1.993e-07
5.177e-07
0.0001029
0.006701
8.371e-12
2.284e-07
1.882e-06
0.0001279
0.0003508
0.0001462
0.006657
0.0001741
2.544e-06
2.718e-05
4.047e-05
4.027e-07
3.24e-08
0.002741
8.327e-06
8.497e-06
0.00223
5.301e-05
0.002953
2.121e-06
0.0002294
8.846e-06
0.0067
2.979e-07
0.002326
0.0004352
2.672e-05
4.327e-05
7.803e-08
0.0001536
1.152e-14
0.001681
2.216e-05
0.002115
0.006681
2.253e-05
3.084e-06
1.938e-09
1.833e-07
3.747e-05
6.7e-08
1.022e-08
0.0004681
2.427e-05
0.0002067
7.643e-08
2.374e-10
0.000409
9.813e-05
5.103e-09
5.517e-05
9.964e-09
7.315e-06
0.002011
0.0008911
1.794e-07
0.006693
7.783e-05
7.181e-05
0.00669
0.0003819
4.955e-09
0.002175
6.544e-14
3.864e-08
5.442e-06
0.006691
0.0005198
3.377e-05
0.003399
0.0006191
0.0003228
6.353e-07
1.327e-05
8.461e-08
0.006696
6.875e-05
0.006689
4.262e-05
1.775e-05
1.767e-06
2.943e-05
7.896e-08
5.09e-14
0.006611
0.006692
2.186e-06
8.519e-07
8.282e-09
0.0001195
0.0001316
2.64e-08
0.001595
0.001585
0.002298
5.96e-07
5.131e-09
2.63e-05
0.0005746
0.006687
1.188e-06
6.156e-05
0.0003451
7.141e-08
7.135e-05
0.001877
1.149e-07
0.0002621
0.0003362
3.093e-06
7.54e-05
0.0001735
0.006691
0.006457
6.743e-08
5.323e-08
4.134e-06
0.003732
0.0001313
0.002969
2.81e-07
5.526e-06
0.006609
8.385e-06
2.044e-05
3.004e-13
2.659e-08
1.625e-07
0.006681
5.098e-08
4.423e-07
7.433e-07
8.967e-07
1.042e-11
2.699e-05
0.0004966
5.347e-07
9.082e-07
3.15e-08
1.382e-09
0.002883
0.002792
0.003805
8.475e-05
8.265e-14
0.0007133
0.001873
5.87e-08
2.355e-06
0.001585
1.757e-07
0.0002762
1.51e-09
0.0015
6.301e-07
0.0008751
2.915e-05
8.952e-06
3.108e-13
0.000644
4.643e-11
1.849e-11
0.006693
4.186e-11
2.163e-06
9.132e-09
1.061e-07
0.00044
0.001889
4.085e-05
6.28e-07
9.157e-06
4.343e-05
0.001188
0.001122
0.0002995
0.0008204
0.0001591
1.635e-05
7.858e-05
0.002032
2.702e-11
0.0003216
1.828e-08
5.337e-07
4.866e-08
0.006651
2.405e-06
0.0001364
4.096e-08
0.001582
1.878e-11
1.323e-05
1.636e-07
9.36e-05
3.706e-08
8.321e-05
0.0008612
0.0004321
0.0002051
0.0001065
0.0006905
4.082e-06
0.0001834
2.097e-05
5.541e-06
2.325e-07
0.000469
1.812e-11
5.081e-06
1.072e-11
3.783e-05
0.001322
5.671e-05
0.002454
0.0001054
2.467e-07
0.006597
0.002633
0.006694
0.0003194
3.391e-07
1.636e-05
0.001811
8.036e-06
0.0004831
5.676e-05
1.577e-12
2.73e-09
3.144e-11
2.044e-07
7.193e-05
2.728e-08
4.859e-08
0.0001393
2.48e-07
0.006695
0.0006847
0.00332
6.128e-06
0.001834
0.006681
0.006684
7.908e-05
0.002595
0.0001454
1.183e-12
2.964e-07
0.006673
0.006693
8.956e-07
0.0002688
5.363e-08
1.208e-10
0.005271
4.638e-05
5.371e-06
2.621e-07
7.271e-06
1.721e-12
9.869e-06
0.0001018
1.484e-06
1.269e-07
2.436e-05
1.4e-05
6.044e-06
1.4e-05
2.819e-08
7.332e-05
4.809e-14
0.00586
1.24e-06
3.591e-07
2.402e-08
0.006695
0.000473
0.006694
0.001676
0.001254
3.903e-06
0.0004564
2.035e-07
1.362e-06
0.0001152
1.023e-08
8.756e-08
1.018e-06
2.033e-08
2.756e-08
0.0002032