/*--------------------------------*- C++ -*----------------------------------*\
  =========                 |
  \\      /  F ield         | OpenFOAM: The Open Source CFD Toolbox
   \\    /   O peration     | Website:  https://openfoam.org
    \\  /    A nd           | Version:  8
     \\/     M anipulation  |
\*---------------------------------------------------------------------------*/
FoamFile
{
    version     2.0;
    format      ascii;
    class       volScalarField;
    location    "50";
    object      omega;
}
// * * * * * * * * * * * * * * * * * * * * * * * * * * * * * * * * * * * * * //

dimensions      [0 0 -1 0 0 0 0];

internalField   nonuniform List<scalar> 
127143
(
3.821e+07
7.184e+07
8.194e+07
3.494e+07
2.933e+06
3.537e+07
1.159e+06
2.025e+06
3.234e+06
4.719e+05
1.704e+06
2.662e+06
9.642e+07
2.958e+07
392.6
7.93e+04
9.896e+06
14.91
9.881
3.263e+04
20.66
7.14e+04
0.08725
260.2
7.685e+04
1604
5905
5731
5087
13.11
406.7
1763
6465
1072
0.04382
7014
41.65
56.47
200.2
2137
9.956
0.5047
0.3543
1.373e+07
14.44
1063
4566
16.4
257.2
225.8
5.057e+04
0.02554
45.79
0.2465
0.02093
545.4
0.02092
0.3194
0.02244
0.2442
0.3327
9.944
70.27
0.02211
335.6
0.4352
0.05069
85.72
85.13
0.08128
300.6
4006
14.64
0.02243
0.02179
4076
0.0232
27.83
536.7
0.02222
4748
2.912e+04
379.9
1338
14.79
23.58
153.9
4530
0.367
689.6
0.0221
26.73
332.2
20.55
55.94
0.2617
0.4654
545.4
16.87
0.05004
0.02221
242.4
2786
4.435
22.41
17.46
85.28
0.0816
1.51
0.02132
294.6
5154
30.75
6.399
0.02176
1.432
0.02336
0.02179
0.02307
2.882e+05
0.02134
352.6
38.32
0.1598
4670
2751
11.08
0.02408
54.96
603.5
43.15
61.98
36.15
27.14
1.119e+06
41.06
0.06048
18.73
3532
0.05105
0.1258
0.02251
35.73
23.85
46.26
67.5
1.826e+04
0.02213
66.45
3668
9.39
229.3
69.71
0.07255
39.4
14.48
0.3198
759
16.07
660.9
287.8
9.342e+04
0.02211
42.8
1372
260.9
52.84
0.5374
716
0.0266
827.4
23.63
2.238
17.91
0.2644
39.01
33.63
54.93
226.4
0.03513
17.83
0.03192
37.11
38.27
595.4
9.928
0.09292
6.718
240.2
0.03447
41.82
63.08
0.0547
76.6
2.051e+06
12.45
0.01943
0.01936
2.223e+05
0.02182
0.02172
0.02658
2.365
36.9
1.109e+07
125.8
0.04944
17.36
12.38
0.02176
1.051
17.41
0.02166
698.1
80.79
2.288e+05
2653
18.41
37.11
0.0497
21.51
0.02184
231.3
48.32
787.3
923.8
959.2
59.83
300.4
12.86
21.99
0.03176
14.04
1.97e+05
21.76
0.08748
42.77
4.482e+06
0.02172
38.53
60.02
193.7
24.35
741.3
85.85
2.284e+05
145.8
5734
1.703e+05
0.09876
4.259
1172
24.02
21.01
365.1
1.62
0.02403
1062
4.847
0.05636
13.75
0.02614
21.34
0.02243
64.33
235
174.1
84.95
0.6688
129.2
893
0.2615
13.55
38.32
39.98
41.5
30.24
188.7
0.4906
2.987
0.06667
0.5051
4.351
0.02176
0.02175
1.891e+06
49.8
0.02176
206.6
0.03681
71.27
0.2182
0.08707
3.444
0.0217
3.02
357
111.4
24.37
118.7
522
0.3866
0.3024
1.197
910.8
20.57
17.22
0.02167
18.11
19.11
95.21
718.1
623.4
0.05237
0.02174
477.3
47.94
533.4
0.8344
2.008
0.08199
327.7
0.03005
24.12
510.2
55.33
0.03187
117.6
339
18.47
10.94
0.02175
0.04333
0.01945
0.01937
0.07112
1.486
2.228
10.95
59.76
0.05005
18.42
49.37
41.57
8.596
207.2
179.3
39.14
487.4
60.21
429.3
10.91
41.81
41.58
0.02867
155.5
20.98
59.43
0.02389
342.2
11.52
57.41
20.4
217
219.7
0.02192
0.02181
1.398
382.5
0.5002
0.9555
0.03024
780.5
235.5
0.03254
0.08865
322.5
1.545e+05
15.49
0.5044
29.42
2026
390.3
0.3835
0.02326
1.272e+04
0.0379
1853
12.62
36.79
0.02198
0.2045
468
360.8
239.4
394.7
0.2085
345.7
0.02856
0.02579
1291
0.02184
21.8
35.4
0.03899
14.77
20.26
33.52
0.02222
205.4
10.87
521.1
0.1267
14.6
25.54
54.3
22.51
995.9
95.43
210.9
49.93
4719
101.7
0.0749
13.12
0.06452
0.3159
0.08543
162.2
0.05815
0.02115
102.7
47.44
10.91
204
0.02192
19.21
150.4
0.02522
0.0217
0.02172
201.1
0.06152
1.92
0.02424
520.9
0.02174
148.8
1.481
17.47
18.69
344.7
12.5
459
0.0378
32.95
589.4
132.5
27.84
103.8
29.38
49.92
23.28
2.4
49.38
0.1991
0.02209
27.06
238.2
0.02079
14.1
17.39
0.1604
50.15
0.04367
0.02028
34.06
12.93
392.3
63.95
5385
120.8
122.4
627.3
6.039
207.6
76.4
0.02165
529.4
0.02248
253.9
138.8
44.9
79.15
3.46e+06
49.62
2.186
0.1067
3.373
0.02167
5367
0.02213
31.43
12.47
5.043e+06
2.529e+05
8.19e+05
0.02194
154.1
134.9
0.02174
10.54
61.53
43.01
5.153
19.23
348.3
14
3380
0.169
21.42
1.664e+05
280.3
497.4
665
0.02226
8.555
1.519
24.4
0.02204
631.5
3228
460.4
0.01965
27.03
0.09382
1563
8.417
1255
21.48
0.02257
166.9
5.921
0.02081
0.3853
96.35
315.9
215
252.3
496.7
12.56
184.5
148.9
41.1
97.55
0.02208
1488
36.08
574.2
43.68
21.17
0.02212
0.02207
0.0537
186.2
5.606
0.02174
0.02907
3.148
538.7
20.74
6.086
780.1
3039
1.579
0.02269
0.02134
461.6
16.41
55.23
0.03178
3850
30.99
77.47
0.497
853.1
0.02174
19.13
31.74
31.12
0.02645
199.2
13.8
2.034e+04
0.02026
79.38
2551
0.02171
14.74
0.02176
153.8
59.24
0.02176
282
313.9
390
48.66
38.47
425.2
388.2
22.07
182.7
236.9
208
48.46
49.62
670.7
0.02683
516.1
0.02174
5.306
0.02438
36.1
0.02116
0.02176
0.4401
208
26.63
0.02138
0.02115
260
2050
275
475.9
10.29
1.845
18.35
12.16
41.47
149.7
401.2
0.0214
88.95
39.91
0.4374
74.65
0.02218
0.02902
58.44
2667
76.1
1.1e+04
0.0243
0.03778
53.51
107.6
0.02631
341.5
0.122
0.08267
249.1
4.818
40.15
0.09845
8.656e+06
793.6
27.05
33.23
48.88
68.84
721.7
137.3
0.02466
53.49
120.2
21.43
0.02122
179.6
0.3128
0.2008
0.01964
0.02119
1.122e+04
0.1073
393.1
60.17
76.47
18.07
1.428
635
0.0874
350.3
0.02164
0.02089
5.479
0.06693
317.6
0.1938
1290
9.76
365.9
0.4052
20.46
0.03543
515.5
0.0439
377
1.213e+06
34.35
68.69
14.9
0.02783
59.38
213.8
8816
13.26
20.83
41.33
3157
22.91
274
8.82
285.1
75.71
18.99
11
0.2504
1.868e+07
0.3101
0.02636
103.9
54.35
136
0.02155
54.26
11.19
20.46
0.0405
1.162e+04
93.77
871.3
0.0443
155
48.01
135.2
75.27
0.03713
15.92
580.7
296.2
21.78
0.02185
49.74
60.63
0.02193
18.02
0.6806
64.88
49.1
0.337
34.56
1514
141.9
0.01934
16.05
9.476
1496
502.3
0.2953
10.37
446.6
0.01938
40.89
249.5
63.32
1.369e+05
64.8
431.9
29.43
22.3
1.997
0.02193
1.397e+07
40.94
45.81
1014
22.37
135.1
71.23
258.6
0.02132
11.43
4.479
0.03738
95.92
251
87.56
39.18
0.02048
17.69
42.76
0.02165
0.02043
74.9
9.869
10.26
125
18.99
4.926e+04
7.331
0.1734
0.02123
23.39
46.57
370.3
724.2
0.4708
0.05496
0.02214
2.348
4553
0.02125
0.2641
1699
58.7
1550
0.02544
22.85
63.6
0.02181
476.3
0.0212
80.87
4765
98.02
87.77
3369
0.02194
266.5
0.1091
610.5
231.5
764.8
4471
0.2922
0.4856
1.021
2e+04
0.02178
56.3
506.2
424.6
127.1
5091
0.0528
0.3883
473.3
2164
1.116e+04
296.7
3.474e+05
188.3
6.393e+04
60.58
815.4
11.75
8870
0.02311
112.4
0.02707
0.0258
31.84
0.02643
51.67
16.87
5.479
1.029
0.04162
659.6
112
0.02198
18.37
37.53
0.03985
342.4
3.784e+04
37.37
14.44
311.5
25.88
191.3
0.02169
45.08
377.4
0.02367
269.1
35.6
10.21
0.02069
2.384
23.45
1.131e+05
2.907
3.826e+04
14.06
18.06
85.6
3804
122.3
0.02316
3096
0.3515
0.02417
2.319
1.212e+05
34.36
194.6
9.824
2.362
7413
5.832e+04
260.4
0.02264
0.02183
15.5
4.561
63.83
255.7
23.34
2018
184.7
0.08157
1978
0.05432
1902
0.0216
16.84
707
24.7
103.9
16.39
0.02177
0.02187
707.7
0.1579
103.7
257.6
270.5
12.48
84.95
70.58
91.83
1.54e+04
44.03
453.9
289.7
13.53
11.65
77.1
119.8
1473
4.466e+04
16.91
0.02155
0.0214
14.21
24.42
0.5462
0.02083
14.35
18.52
0.5059
212.3
67.47
185.1
1.992
0.02223
0.2569
0.5543
4612
916.1
50.13
0.2694
53.31
347.3
247.9
27.47
9.181
30.54
145.3
53.11
2369
0.02352
5041
4536
9.395
45.8
434.5
0.02177
1.148e+04
1.758e+04
0.02164
0.02154
45.23
24.41
1.624e+05
130.6
108
393.6
250.9
0.288
0.3516
0.0225
305.7
21.84
149.9
2.109
1944
28.92
0.02756
1.153e+04
69.83
0.02172
115.7
0.0248
0.02165
22.94
0.09407
1.19e+04
0.02157
474.4
0.02181
295.7
0.07989
17.37
6.983
462.4
320.7
296.6
40.3
0.05581
0.03525
25.44
199.1
141.6
207.3
3893
306.4
1.759e+04
52.32
376.8
195.8
304.6
1566
0.1297
12.99
0.04105
187.5
78.17
834.2
0.06343
359.2
13.4
89.61
104.5
43.15
0.7671
527.2
14.38
89.64
119.6
637.5
242.4
0.02098
22.42
195.9
0.02184
109.4
275.8
0.02068
1.508
143.1
0.03429
0.1358
30.79
99.38
0.1527
0.0198
101.7
114.9
0.02166
0.1019
0.03132
18.05
137.3
9.159
0.03756
730.3
3.485e+04
502.1
260.3
12.13
8862
0.07519
160.2
0.02176
25.12
6.748
79.85
104.4
883.1
2559
0.02196
1.665e+05
653.3
489.6
54.65
1106
12.58
13.82
1037
72.43
0.0334
3.354e+05
31.83
259.2
718.5
185.1
91.04
80.09
2005
94.66
56.23
86.76
347
282
32.26
3.092e+04
0.1021
121.6
0.09129
484.9
0.01971
0.02165
51.37
1.13e+04
17.72
1.079
1.314e+04
445
0.0218
1738
107.9
86.98
3.858e+04
1.73
52.32
3.373e+06
18.72
3117
11.9
80.74
1359
287.7
670.8
6.33
132
0.07724
17.64
130.2
69.12
6.958
109.6
10.15
7563
14.98
0.2293
12.98
0.4675
1.041
12.47
2.944e+04
0.03891
2653
951
67.84
37.7
0.0218
10.77
45.24
2.616
1416
716.3
889.5
0.02136
365.4
785.1
29.29
1.122e+04
67.72
12.79
335.4
0.02204
419.3
52.98
3554
74.05
0.06477
16.45
0.02174
4.124e+04
1.304e+04
30.57
0.4818
5.8
0.02087
0.01979
219.5
23.26
8.88
0.08946
0.0495
0.05144
3.508
25.06
17.24
89.79
239.2
1.338e+04
0.7242
781.8
68.78
125
0.01982
397.9
11.72
68.44
1.659e+04
98.69
11.82
56.17
57.02
26.68
5.176e+04
28.67
34.18
10.65
12.61
4.541
224.7
4.295e+04
0.174
591.2
0.02118
255.4
1061
0.02032
1449
37.09
42.44
368.7
0.02138
0.7591
1.106e+05
0.02178
216
286.8
92.56
4727
0.5562
4.375
366.5
1466
41.28
91.61
0.05341
92.22
3120
6482
172.2
39.02
0.02169
73.81
12.5
614.4
133
9.513
41.56
0.02183
2.053
120.2
0.02207
9.705
0.02227
2952
9.986
9473
90.12
52.21
278
28.21
176.7
387.2
8.516e+04
44.86
85.15
55.21
23.55
13.32
0.02211
49.53
0.02224
11.58
0.022
12.63
0.02147
89.45
62.71
0.02068
0.02162
169.3
0.2443
452.8
0.09156
0.02007
5.475
27.14
0.03241
8.688e+05
1548
9.034e+04
176.6
37.62
275.4
179.1
42.76
4.627
2261
22.92
684.5
246.3
43.69
51.37
9.348
0.02156
8.447e+04
35.56
2318
0.02179
1.513e+04
182.2
287.9
75
0.01974
0.01972
10.09
30.58
6.095
10.39
64.93
0.6786
0.7877
2.343
3.588
1348
166.4
0.5527
21.16
4.627
383.1
405.5
81.01
300.8
14.44
0.02203
73.18
94.6
5598
48.31
0.03447
70.03
1.287
149.8
44.72
518.5
16.27
0.02174
20.49
28.57
2.138e+04
4680
0.5499
40.6
599.2
0.1802
0.01972
833.4
202.6
7.834e+04
0.06011
3.13e+04
58.72
0.02153
75.35
561.4
11.61
0.111
18.4
349.9
56.07
52.15
53.03
1166
0.04111
216.8
593.4
475.3
0.05416
0.05403
321.4
13.7
7.539e+04
104.7
565.5
628
8.492e+04
1.388
154.2
0.02547
0.02181
0.0215
14.99
0.02273
2.367e+04
0.02173
3140
0.2621
19.39
416.4
437.9
0.09103
8009
0.847
165.6
15.49
4527
0.02171
71.81
341.3
14.02
3776
718.1
20.62
849.6
1341
0.04563
0.0206
3880
0.07116
0.01998
0.2654
3252
0.0206
1443
0.02184
33.79
81.66
14.86
75.83
0.02092
17.52
280.6
92.24
0.06732
12.69
0.1556
0.02174
0.02122
44.19
1.537e+05
23.18
91.35
0.02498
1.074e+04
0.3
0.07555
0.05852
1.313
84.39
394.5
0.02596
194
0.02241
42.73
0.02217
0.2594
120.8
35.49
4.201
697.4
99.78
0.0212
63.65
1058
215.1
1.383e+04
739.4
12.51
0.03324
2.633
1.697e+04
51.6
916.4
9597
0.07182
0.1912
0.0216
56.34
191.2
52.65
0.0218
270.1
0.02175
0.1783
86.41
0.02141
12.16
0.4024
18.51
16.84
0.9144
283.2
0.0219
368.3
2609
3.172
9.419
170.2
0.04518
109.2
40.09
1438
49.89
38.66
474.5
42.85
75.02
3381
0.08948
0.1923
69.59
0.03411
229.1
19.15
0.09017
80.79
0.02443
0.3186
1600
23.12
148.6
65.32
1.451e+04
41.55
5552
0.7903
0.02066
5629
133.7
0.09415
304.3
0.02753
48.17
0.02223
12.81
3138
13.77
7.271
67.07
143.9
0.02187
62.55
0.2636
5.096
479.4
0.02508
98.63
1129
0.0216
0.02577
49.72
0.07069
55.33
2.01
1.379
14.98
0.5702
18
0.07049
14.62
47.51
0.02099
0.1569
441.6
1.479e+04
0.02089
170.7
4535
17.29
146.3
10.08
161
1.439e+04
0.05707
0.109
64.72
0.02646
435.3
8.99
19.5
1867
93.24
0.0247
83.23
2.225e+05
8.321e+05
61.22
72.09
95.46
0.7658
14.62
11.77
22.33
571.6
179.9
161.3
168.6
7736
18.32
1.549
0.02172
679.3
1.68
26.38
0.1861
0.04345
140.1
61.63
12.13
0.02038
453.6
753.2
85.67
170.7
13.88
1.566e+04
281.4
0.02719
124.6
5834
23.39
107.7
2.572e+04
0.01939
2129
434
162.4
0.02736
18.12
11.18
521.6
151.3
16.33
743.6
0.03123
2.473
193.5
0.05003
11.97
0.02174
344.2
2453
152
812.5
1.175e+04
20.24
6508
0.1032
568.8
4.402
9.415
0.03867
11.68
30.56
16.7
119.2
0.06178
95.52
5.871e+04
1.589e+04
44.6
79.48
0.5303
0.663
0.02195
0.0261
51.34
0.3044
0.0217
77.16
132
237.5
106.6
11.75
193.4
41.29
1330
1.671e+04
1.825e+04
0.08626
94.59
4.583e+04
10.45
1793
14.85
14.54
39.39
5.816e+05
10.45
13.68
0.04182
0.06267
808.4
56.65
0.02175
0.02196
12
746.5
14.83
105.2
1.035e+04
8.379
0.0235
617.6
9.65
70.75
1564
5.369
6.85
46.32
54.82
0.7183
58.5
0.02189
517.4
9.271
663
18.56
212.8
2066
2.091
652.6
48.88
577.6
144.2
1706
0.08486
11.18
34.21
20.46
302.2
79.48
3635
318.5
0.0217
93.87
15.03
536.9
63.72
0.2537
21.66
0.1077
1724
0.04651
72.62
27.43
44.76
10.93
24.23
1.031
1.607e+04
0.189
0.02519
662.2
0.02091
16
0.03201
0.8405
11.34
0.02151
0.2553
210.5
1214
0.02177
0.02368
10.53
18.89
85.14
0.1816
66.33
38.14
734.7
369.8
29.97
292.7
85.94
0.08819
107.3
1.705e+04
10.22
2209
325.4
10.74
1.425e+04
0.02174
0.02061
1.004
3.019
9.238e+04
0.0218
16.81
547.8
8.452e+04
280.1
478.4
0.01979
0.01944
306.3
61.31
40.16
31.87
0.03315
34.91
1.557
0.02222
613.1
163.3
78.12
30.65
1679
5.442
2.156
0.01982
11.73
186.6
637
410.2
51.36
5232
375.7
44.57
119.4
190.3
59.63
0.06783
220.3
3399
0.02773
0.02581
221.2
96.91
3893
1.289
528.4
74.06
0.1406
0.02174
5.234
0.02211
22.97
1.148e+04
18.95
0.1224
68.33
0.04477
6725
618.9
0.06462
14.26
11.76
91.33
22.38
62.14
62.95
43.09
31.45
30.06
17.31
11.37
1223
116.7
38.16
93.61
6945
70.41
357.8
407.5
2.787
1.472
20.7
6544
0.3507
92.01
0.02256
13.73
0.02214
143.5
9.299
6560
130.2
0.0846
1005
5.372e+04
812.8
28.71
62.18
550.8
1401
0.258
23.5
29.84
3.438e+04
63.77
29.88
0.2103
0.2563
0.02176
27.04
5504
5.217
945.3
11.35
0.1031
1112
0.01973
47.19
0.4006
20.25
1041
0.177
1.983
8.824
0.03933
190.9
24.75
1.776e+04
749
158.6
0.02142
31.31
125.5
3011
1006
33.39
9.88
50.65
0.02173
259.4
550.2
3.804
15
47.5
1476
490.8
336.1
49.56
2.524
1.467
6908
13.23
0.08517
2.31e+04
0.06641
31.61
0.02176
0.02199
67.3
0.02202
550.7
62.43
50.22
25.6
481.6
1288
62.74
466.9
65.2
14.61
1.484e+05
24.81
50.41
1.973
5.788e+04
12.67
4906
5859
0.04172
597.9
461.8
4.106
13.89
3119
284.5
908.9
17.23
26.88
0.02688
10.22
0.02206
0.6069
13.35
280.6
219.9
49.55
9906
12.37
0.02204
164.3
26.94
25.7
45.28
30.42
56.94
443.6
1185
5139
156.7
202.7
481.2
46.54
138.2
0.06911
7.239e+04
148.9
80.43
1.3
0.02161
87.62
197.5
14.66
3.869
5499
487.1
300.3
64.33
38.17
2239
0.02167
3998
10.52
0.03915
29.06
457.8
0.02171
113.8
12.86
11.78
5679
7.554
50.85
5.813e+04
24.26
194.9
0.01971
0.01963
187.7
79.74
2.466
187.6
116.6
0.02151
1699
678.1
34.36
0.02178
0.02205
44.17
102.7
190.7
1.963e+05
482.9
0.02711
397.5
1.885e+04
0.08319
447.2
258.3
0.09722
0.8202
895.3
32.4
29.82
0.01964
0.01948
0.01946
0.02006
0.07581
24.93
20.73
473.2
7.292
144.7
24.57
540.5
0.02076
53.48
32.25
1798
484.8
2275
97.84
60.31
261.3
31.07
141.5
0.1164
89.08
1.1e+05
177.3
2056
0.3025
96.44
0.02174
6.032e+04
44.61
286.1
6.903
0.0311
1.912e+04
0.02179
41.95
379.9
0.0388
67.62
53.75
16.76
68.12
3663
0.04297
391.8
0.02067
2.395
122.6
153.2
14.04
44.95
0.02152
0.02176
0.3236
350.2
618.2
0.1889
16.91
79.35
2.844
1822
265.2
19.41
9.469
26.11
36.83
0.1501
2.924e+04
0.2717
0.02174
4774
0.02173
0.0217
1.364
0.1028
3388
13.08
727.9
20.5
269.8
0.02187
0.0826
192.9
171.1
11.83
0.0515
0.2027
1.737e+04
1787
0.02213
3413
2297
9.49e+04
0.06711
17.29
21.33
0.07685
0.02398
16.93
157.8
1.387e+04
0.07444
421.7
6.37e+05
0.02175
302.4
870
112.7
0.02178
516.7
2.311e+04
3.862e+04
1.965e+04
0.3768
86.66
2.038e+04
0.05496
54.21
0.02154
15.98
349.6
11.3
241.2
1.904e+04
0.5206
65.55
55.21
0.02225
0.02756
337.3
546.8
15.47
4004
61.8
1.184
11.04
31.25
175.5
37.08
0.02176
47.39
43.89
173.6
250.2
111.2
320.9
81.43
2.508e+04
2.877e+04
3.566e+05
353.4
0.04583
720.2
0.02484
576.7
1028
0.02176
1.919e+05
0.02221
116.9
5168
1231
99.23
87.35
265.9
208.7
0.01963
1.637e+05
151.9
0.05587
10.72
67.58
3.148e+04
6086
5.738e+04
12.36
355.5
1931
18.51
0.07042
77.04
3418
0.02088
33.6
56.52
102.8
47.67
27.8
12.54
1886
108.2
124.4
5918
0.05852
1393
0.08062
46.52
127.4
0.02298
0.111
40.09
322
155.6
2.409e+04
0.05394
0.02176
5.033
195.5
1252
23.09
9.911
0.01954
0.03034
719.4
0.01994
209.9
310.8
0.06569
78
33.68
7930
2.567e+04
1.51e+04
0.03333
374.4
52.07
85.36
17.61
11.82
6750
12.63
768.8
208.6
3303
164.9
1.563
1.463e+04
23.27
75.16
29.81
0.04933
49.8
0.2691
0.0219
24.61
118.1
38.84
290.1
38.44
4.702e+04
7.37e+04
10.01
5.447e+05
0.262
2.133
0.03117
0.05731
25.97
0.02221
248.1
2.155e+04
245.9
2113
40.73
42.54
141.5
50.92
11.48
279.7
14.43
2257
87.29
0.02568
73.69
77.43
0.02204
0.04007
885
0.02185
86.55
114.1
203.7
7.137
1278
0.09277
32.06
0.03865
496.7
5192
540.1
53.98
0.02143
317.4
0.02157
0.2639
93.13
39.04
1.432e+04
101.4
412.6
13.71
1129
0.48
0.2011
15.86
213.9
0.02084
4.719
0.02185
530.8
847.8
164.4
42.64
0.0216
361.9
283.9
56.16
1.438e+04
102.6
1053
0.02324
49.71
3.392
2.079
136
24.97
0.07487
4.304
0.1126
19.2
55.61
0.0207
0.02028
0.02227
0.03838
0.1388
1365
281.5
0.02184
186.7
11.39
127.4
0.02194
186.2
0.07283
917.7
0.08506
1.085e+05
89.99
974.1
0.04159
0.08748
1.528e+04
0.02752
124.5
148.7
211.8
147.6
54.07
0.02181
217.3
266.6
52.93
46.79
43.28
8.03
20.65
68.63
1042
0.02151
16.13
42.12
1891
0.1025
0.02209
130.8
674.1
16.16
19.68
14.53
297
0.04652
26.74
264.4
10.15
95.54
100.2
0.02556
5.338
1.582e+04
109
88.34
1942
1.381
6.833
0.02167
0.02707
0.1149
0.04396
1.511e+04
77.45
0.02195
0.02274
82.28
7.597e+04
0.02194
17.66
5637
124.2
4.766
94.53
1511
56.45
18.19
441.2
2.938e+04
988.7
0.02193
34.66
44.98
65.76
0.02139
0.2992
103.4
20.32
200
1.88e+04
2460
19.87
407.5
3.051e+04
13.53
436.9
16.79
1.142
0.7245
926.9
1.043e+04
0.02158
111.6
102.7
0.02193
2236
13.22
1.678
0.06357
54.02
425.9
140.7
35.88
0.02174
0.02181
17.71
90.49
0.02005
82.79
0.02496
1055
11.13
13.47
308.3
823.4
23.93
55.94
0.02141
1.831e+04
24.26
1917
333.1
0.08611
337.7
141.7
113
1.437e+04
9.272
1.342e+04
0.02076
0.02124
20.56
0.053
0.0214
3.511e+04
170.4
259.5
1548
196.1
27.27
0.0271
3.404e+04
0.03794
72.82
0.02026
0.1153
113.6
27.28
33.18
53.61
9.032
420.8
0.02047
33.67
1841
1525
2438
0.1178
30.55
15.1
0.02195
392.8
179.1
0.4856
0.04643
53.92
1.478e+04
0.02184
0.02152
20.78
1177
10.14
1381
0.02206
2395
63.81
107.1
0.02208
0.06608
537.4
186.9
955.3
17.71
16.41
0.02046
439.7
0.02948
457.6
2.396e+04
0.0543
76.1
11.13
3474
9589
502.1
0.05306
0.02047
41.93
0.1532
0.02164
193.2
261.9
13.88
0.02037
0.0668
0.09297
0.02697
293.4
38.68
0.02175
527.2
75.83
565.3
0.02587
0.02191
0.02164
0.0487
93.41
26.49
376.8
1.519e+04
9084
69.15
2.976e+04
1836
0.02267
1.294e+04
49.43
1318
9.103
0.1198
10.17
3107
394.3
1360
229.6
0.05963
20.27
248.5
88.66
44.71
0.1779
115.5
0.1719
250.9
0.03454
26.85
14.33
84.31
0.2072
386.4
2.817e+04
2239
0.02061
1.588e+04
28.63
0.01996
141.2
0.02181
830.7
48.53
0.1201
163.9
174.2
0.0223
1.059
11.38
4219
0.0225
0.1343
5084
4.909
0.02157
1226
22.74
0.03017
0.1271
21.3
147.2
1.942e+04
365.4
51.34
14.58
355.9
0.5882
0.0217
0.04499
274.5
85.37
55.38
0.02207
4.063e+04
188.2
31.11
88.7
23.81
58.11
0.02017
0.05594
266.2
102.9
0.04206
102.6
456.2
13.41
1.5
3.109
10.04
0.03793
9.039
30.25
187.9
15.45
0.02205
603.1
0.1608
25.14
6.025
3.454
1911
42.87
1.033e+05
21.04
0.9408
0.198
0.02119
6.271
23.69
1430
514.8
87.86
309.8
1384
50.31
0.4021
49.51
346.6
2738
42.1
0.04168
829.9
0.6769
656.9
13.62
11.63
22.28
191.5
0.02179
102.9
0.1956
0.02164
3.314
816.3
1.298
7.037e+05
425.3
382.4
0.02166
54.57
100.6
0.04667
29.74
45.26
1168
180.1
1232
0.02188
70.96
0.02067
3.447
145.9
119.3
5.528
364.8
5.25e+05
0.02153
0.02174
41.72
92.15
710.6
1.254
59.78
446.6
29.46
12.27
0.02185
273.5
1001
0.07397
19.89
0.02156
77.25
0.05065
52.59
294
64.33
0.3301
709.6
187.9
0.02626
258.9
80.6
1.055
0.02148
0.02311
312
1827
22.49
10.24
41.21
15.62
145.6
21.25
0.0194
0.1741
1.024
2.869e+04
1002
886.8
0.02134
360.2
118.6
898.7
663.4
7418
2.186
46.21
90.73
59.84
422.7
1577
25.05
0.06984
11.67
0.03114
5.274e+04
0.02261
12.68
334.5
31.81
12.32
545.4
37.86
4375
11.47
222.5
49.02
4.862
173
2.777e+04
19.87
1.555e+04
1.067e+04
0.02175
1.721e+04
98.75
811.4
1064
48.96
40.3
119.5
71.84
14.61
0.03811
19.54
13.4
45.99
21.84
37.39
0.4412
1.751
29.72
1.778e+04
36.41
3309
85.78
363.9
0.02027
331.1
48.15
1557
12.38
6908
164.5
237.6
0.07563
1234
0.06657
19.54
25.64
0.06595
0.5617
16.75
23.34
64.84
140.1
15.76
153.8
24.25
6948
20.72
9.525e+04
0.03693
44.52
93.71
11.74
0.04718
472.8
0.02174
0.02217
0.02174
29.75
127.6
314.5
11.28
0.08452
26.36
0.03907
9.416e+04
1141
1.696e+04
195.8
0.07248
449.5
1704
0.07246
798.1
0.02187
46.19
9.124
302
34.55
0.02129
0.02142
66.82
9.391
0.03707
1.818e+04
137.1
0.02095
0.0218
53.66
0.03099
417.5
3545
0.02931
3.779
276
712.3
162.8
1.901e+04
6.745
0.1367
37.34
231.5
0.1604
163.8
24.78
1.055
434.1
58.23
5.517e+05
0.02575
69.91
2777
1062
0.02184
22.09
0.02177
19.17
50.28
34.61
49.06
229.7
31.83
0.159
716.1
802.9
383.2
640.6
456.9
32.93
49.07
62.3
144.8
18.52
279.4
0.02193
1.614e+04
6291
794
34.63
7.99
1128
364.8
0.2656
0.2314
2.227e+04
68.14
0.05255
0.03135
0.05161
269.2
513.3
32.13
1872
135.8
0.03656
102.8
55.92
55.58
310.3
9.811e+04
415.9
52.8
422.4
24.73
52.35
1191
32.24
25.25
10.43
824.5
21.6
0.2377
30.31
394.5
0.09811
91.93
0.3059
22.34
1.878e+04
376
0.02204
261.9
21.35
8778
497.6
0.02142
0.09542
435.3
0.03088
23.09
986.1
275.8
10.47
0.02177
0.1723
13.46
14.01
0.07659
281.7
0.02077
362.8
22.52
213.2
151.3
50.05
50.21
284.3
244.8
0.1754
78.98
0.02182
2.535e+04
0.03665
0.02999
155.6
0.02185
17.67
10.29
3.372e+05
0.02196
67.96
64.73
317
271.4
0.199
37.83
22.6
251.8
1278
28.33
0.09728
0.02213
158.7
247.1
20.8
37.42
569.8
1156
0.8243
0.02114
30.53
175.7
3.903e+04
44.59
43.34
0.7316
175
0.02151
14.03
2461
693.9
0.02198
0.1883
493.5
0.01983
69.1
838
52.22
0.02195
0.022
9.022
0.02388
0.02013
0.02173
9.097
319
741.1
1.377
125
8.058
16.75
0.02225
14.25
57.42
0.04181
0.7625
673.1
15.53
0.0258
874.7
35.45
9.31
1.615e+04
2.016e+04
0.02557
51.74
21.91
250.5
39.01
1842
0.02194
97.95
1.768e+04
2.6
147.5
0.3763
1078
33.35
153.7
12.22
9031
0.06306
5711
35.9
0.02543
0.02972
0.02006
124.7
18.65
1332
107.5
2.892e+04
0.09775
0.01942
103.8
178.4
0.08155
0.02189
515
10.59
640.4
34.84
772.7
145.7
46.63
5.841
204.5
0.01974
9133
96.96
34.01
12.13
0.08798
0.02207
19.52
12.75
286.6
1963
33.65
0.04435
151.8
16.15
0.06171
0.02192
772.8
162.5
2577
111.6
24.69
0.8453
35.47
15.36
5.576
72.37
0.3626
0.1308
0.02192
39.23
7196
28.51
0.4182
2296
0.4812
0.02168
24.69
0.0275
0.02203
21.56
0.0194
0.01933
2.141
0.02011
26.83
2.431e+04
320.3
17.89
0.1352
0.02113
0.02197
49.14
174
12.45
1.736e+04
15.56
0.03031
10
160.7
1320
2.219
0.02198
2.963
59.49
0.02203
0.02136
42.13
182.8
0.05132
0.02945
52.34
0.02131
1.375
0.02152
9.808e+04
1.437
485
9.362
0.02797
0.3353
11.83
18.52
425.5
18.25
67.15
19.12
0.02215
1.209e+04
15.46
194.3
0.02191
207.4
136
64.2
326.9
0.2204
196.4
10.05
0.138
1470
0.02205
2.153e+05
12.43
9629
0.02197
261.4
0.02176
0.1045
2.715
3287
12.82
111.4
21.69
0.1086
1615
0.1232
825.5
1915
10.9
0.09788
0.05133
637.4
0.02162
2.873
18.68
151.4
12.15
0.0218
4988
0.03264
110.9
342.9
70.2
605.7
4373
24.69
571.5
86.43
1.434
14.91
0.5274
0.02173
0.02181
328
10.87
6279
76.59
25.7
0.02179
54.14
0.02179
0.02172
0.03023
130.8
0.1076
22.02
0.03379
29.31
0.1862
51.74
212.1
900.1
0.0264
181.5
100.3
77.95
0.1651
18.32
0.02187
80.29
0.3823
44.17
3.362
0.03501
197.1
3.748e+04
158.7
1032
18.98
1.125e+04
877.3
12.96
17.99
724.6
170.5
4.424e+04
278.6
20
50.04
66.45
29.54
539.8
358.1
0.03894
33.4
0.08461
342.3
1.029e+04
67.92
661
354.4
12.79
169.2
0.03299
191.3
26.3
2.073e+04
10.88
0.02276
17.19
32.38
126.2
0.05758
66.3
135
21.09
1.493
123.5
14.75
4217
143.3
75.77
27.25
16.59
488.1
0.02479
256.8
3.954
0.02407
44.24
45.41
222.8
350.4
108.7
0.02202
388.6
14.02
0.1099
1.694
273.3
6.267e+04
107
0.02086
0.02413
0.4951
180.9
51.04
0.02151
3.213
206.1
408.2
5816
0.02103
204.9
2535
35.53
4.817e+04
65.21
84.21
185.4
22.19
162.1
0.02358
46.73
2227
47.6
231.9
1.259
21.02
0.02178
0.06645
231
114.3
19.94
746.2
51.61
0.02175
2249
62.22
0.3267
276.2
5296
6874
0.04029
0.1355
0.02471
73.57
1842
369.4
971.6
346.9
104.3
0.02181
51.31
4.536
9.073
2844
0.4117
1.739e+04
70.08
1529
0.03398
132.6
1264
0.02171
125.4
69.29
109.9
10.18
0.0219
0.02172
0.03858
25.81
0.02174
14.4
6117
0.1155
15.55
253.4
0.03866
57.41
10.74
0.2574
1532
94.64
6178
49.88
0.02178
159.7
1706
0.0217
4044
15.27
45.79
29.66
193.4
56.59
157.7
14.31
11
0.02194
11.63
0.02178
0.05509
1120
109.4
43.71
35.25
0.8148
123.3
0.02178
0.01966
0.0644
74.12
30.31
67.58
1.741e+04
22.31
0.5752
208.4
0.5027
29.42
0.02136
511
456.3
15.98
12.1
85.87
97.7
39.67
19.64
1.062
0.02234
66.71
16.28
104.5
1355
1.603e+04
437.3
0.0215
48.15
20.38
20.06
8.115e+04
0.02167
63.45
23.77
24.06
51.97
20.51
5.008e+04
55.76
21.88
459.9
2440
12.27
72.22
2408
2.159
0.02168
259.4
15.91
39.39
74.92
15.06
1.802
0.04272
658.9
234.8
869.8
72.91
723.1
176.1
0.02172
151.4
49.51
54.03
20.28
0.01936
267.9
38.37
25.26
8.361
0.02133
206.4
11.49
5.443
42.29
210.3
87.2
29.39
394
373
0.01992
77.24
34.15
65.36
436.5
143.4
32.95
20.9
26.99
9.333
120.7
498.6
1.649e+04
629
711.4
9305
34.75
0.07948
2.264e+06
332.5
1504
0.03506
1677
1224
250.9
27.95
0.02194
2.429
0.02179
15.04
63.86
4.401
0.8048
14.73
618.2
20.94
2.111e+05
13.15
250.5
729.5
1.555e+04
427.4
210.9
17.42
0.09483
76.75
16
1.92e+04
60.35
0.3637
0.8262
1485
1.103
0.022
0.02172
30.87
47.47
0.04467
0.02017
0.02195
498.1
161.5
9855
0.02155
0.0296
57.08
0.01977
0.0199
307.9
0.05245
120.5
658.8
0.05228
1320
8.088
50.38
9.899
31.25
0.05925
55.56
17.59
6.402e+05
29.28
350.8
1001
1226
16.37
0.02953
9.591
631
0.02173
15.79
150.1
569.3
1.301e+04
112.1
33.33
665
0.0258
110
2363
218.8
80.6
58.42
0.06965
30.75
17.73
1798
127
170.2
0.04567
838.7
264.1
0.03539
18.85
0.06541
44.37
0.02779
1662
1.662e+04
0.02868
468
123
0.1441
383
68.45
0.02267
5845
56.71
187.1
504.6
0.03632
14.47
5.076e+04
75.13
409.6
21.2
19.82
2.865
14.29
158
0.05744
1.621
55.77
58.56
25.46
14.37
53.06
5.922
62.5
494.6
50.46
5.814
2.375
0.0218
0.09689
606.6
17.79
0.01938
2.92
34.5
3.768
162.6
68.17
30.79
0.1016
560.5
81.64
0.1078
35.33
71.08
0.08286
604.7
0.04613
838.2
9.143
0.1966
0.06671
9.832
672.1
58.15
0.02096
71.66
157.2
108.5
0.1569
0.02205
12.34
334.9
632.5
39.38
56.48
11.25
520.9
18.56
33.13
2.24e+04
13.91
1.808
4.541e+04
393.7
15.11
14.06
0.02204
1.218e+05
0.02224
25.21
105.1
97.3
132.6
116.3
1.963e+04
11.33
11.4
22.54
3.069e+04
460.4
12.78
4.212e+04
6585
465.3
116.7
0.1823
0.6308
14.48
24.24
0.02187
371.4
2.057e+04
0.04543
61.26
6.19
16.48
254
410.8
4.049e+04
1582
200.8
0.01954
0.01928
0.02178
538.1
2157
1.225
0.02159
0.1577
2597
5.757
4.475e+04
74.62
0.02229
3.878e+04
0.01941
1.719
10.9
0.04336
16.39
0.329
1.357
0.0739
323.4
17.51
55.19
111.5
2.332e+04
11.91
170.2
191.5
10.15
0.02213
9458
421.8
218.7
88.63
941.2
202.1
97.72
0.06399
24.13
242
30.89
374
0.02902
1102
31.15
360.2
13.31
0.1733
0.3281
0.02192
233
32.32
116.6
180.7
12.67
680.1
53.08
19.05
13.11
137.1
0.1637
943.3
173
154
36.05
0.06405
9.843
0.09968
60.34
24.57
118.2
3.826
544
17.96
14.55
366
0.2337
1994
27.96
0.5746
0.08939
3.568e+04
282.7
210.1
28.78
5579
0.02204
6502
517.5
65.78
54.56
59.82
72.48
82.81
15.5
76.94
69.33
179.6
3654
0.06655
0.02187
0.02186
107.3
206.6
1.947
2.473e+04
122
9281
857.8
92.31
1840
1.836e+04
10.6
419.6
751
51.6
1.914e+04
0.02167
78.68
596.7
606
0.02157
579.4
45.16
205.2
284.7
405.1
0.02172
8.978
230.7
868.7
0.0209
194.6
13.72
0.1868
3.08e+05
0.03291
11.33
12.85
234.9
310.2
0.2936
38.23
2.714
199.3
712.3
148.2
0.01942
13.74
6.576e+05
0.02582
0.02297
1925
853.3
49.98
415.5
0.06146
33.68
63.95
49.23
33.7
173.4
0.02
48.79
13.43
0.2019
0.02197
39.65
0.02125
8.167e+04
46.81
1.931
9.732
1.332e+04
0.02172
151.5
0.02001
0.02216
670.9
0.3361
1255
10.24
0.04379
44.75
359.4
20.7
19.98
28.09
375.4
124.1
513.9
487.1
489.2
5322
850.4
55.76
363.6
238.2
179.4
0.2567
0.02114
0.02118
3701
25.18
302.7
4.274e+04
0.02185
280.7
0.4483
0.02038
16.35
4.587e+04
11.62
411.2
2621
0.02206
561.1
43.47
16.07
9.671
30.1
1800
104.6
0.02175
4.644e+04
1333
0.06327
0.02416
1170
182.7
579.2
508.4
126.1
275
0.02171
266.3
0.02118
140.4
492.4
4.12e+04
0.01955
0.0193
0.1492
152.3
0.0314
16.46
1.941
10.53
22.73
50.74
249.5
0.05091
0.0286
1.784e+04
2.142e+04
25.68
761.6
0.04498
301.6
0.0221
131.7
1272
447.7
2252
232.8
428.7
350.1
0.3318
31.21
30.9
0.02554
0.02182
0.02176
11.99
192.2
779.2
3.039e+04
282.4
0.02542
378.6
878.6
414.4
3.357e+04
67.7
509.3
306.6
84
0.05574
2.281
22.77
1.043
0.08199
909.3
23.28
39.84
49.78
584.6
0.3291
0.01974
1.739e+04
14.64
10.74
35.67
2.111e+04
25.42
0.02083
114.5
26.15
183.5
7.153
362.1
339.8
2.077
138.5
16.64
0.06305
176.8
0.04453
0.07951
1.807
1121
19.92
999.9
20.25
48.12
42.97
0.03017
78.69
340.8
0.2531
41.16
4.769
1.883e+04
0.0315
0.02463
78.55
71.68
163.9
23.74
19.99
2343
0.06283
0.02183
24.52
1837
0.02512
0.6106
38.84
0.02164
1.852e+04
0.06207
36.24
79.77
38.44
0.5715
402.2
2078
31.07
0.05718
0.02177
17.25
50.3
89.87
15.14
0.0214
0.02019
0.02173
80.37
193.7
220.9
0.05171
752
34.21
437.8
49.09
794.9
2.275
0.03099
4119
0.02195
812.4
36.51
0.03172
115.7
73.79
242.4
133.7
139
13.9
6.141
0.06583
2275
1260
2147
0.1657
0.59
0.02174
1.872e+04
0.02161
159.6
1816
0.02238
19.58
110.4
382.7
0.08015
14.23
1.297e+04
22.35
0.02166
19.38
441.1
81.71
149
14.01
32.69
1.538e+04
16.27
0.02071
0.0225
1.119e+04
22.92
383.5
12.7
51.33
0.02118
0.02193
1.907
6.816e+04
1808
483.2
348.7
0.8416
307.9
1499
121.6
232.1
0.02189
657.9
11.28
317.9
17.65
15.82
0.0216
604.2
13.57
1.569e+04
1.938e+04
13.42
14.66
1.525
1021
0.02594
9.824
1.707e+04
449.6
168.2
1876
7044
125.4
191.5
0.1196
953.9
254.6
1582
38.09
0.02693
1111
7239
0.02173
325.7
3477
371.6
902.6
46.66
12.97
166.8
42.18
0.03209
62.73
0.02211
105
0.1081
1.411e+04
0.1301
4067
44.95
271.7
21.61
12.71
497
16.27
166.5
791
72.74
31.72
9.089
47.33
159
518
71.39
0.02498
22.39
20.61
59.01
117
79.33
281.3
50.89
0.02529
46.82
2.214e+04
16.24
11.15
143.6
0.03906
42.11
0.0216
42.93
5.684e+05
8.602e+04
461.6
23.45
40.38
0.02103
0.05041
18.97
23.21
67.12
5.816
0.02187
40.98
71.56
148.7
57.5
0.02171
858.4
1326
5.848e+04
11.1
25.59
59.37
564.3
0.03978
187.9
9.941e+04
0.8476
21.8
0.2674
310
5.202e+04
18.82
13.09
72.32
31.83
0.02561
155.1
0.01988
1.647e+04
62.99
13.94
1287
6.583
159.5
35.47
2.88
0.05549
0.02199
0.02156
49.46
17.46
31.42
8.833
28.64
57.1
1.963e+04
0.8309
295.4
0.2252
0.02185
979.4
0.02199
12.91
644.7
4.8
23.78
21.92
4.809e+04
260.5
20.46
267.6
123.3
76.51
0.1325
1.731e+04
0.02173
5.553e+04
2811