/*--------------------------------*- C++ -*----------------------------------*\
  =========                 |
  \\      /  F ield         | OpenFOAM: The Open Source CFD Toolbox
   \\    /   O peration     | Website:  https://openfoam.org
    \\  /    A nd           | Version:  8
     \\/     M anipulation  |
\*---------------------------------------------------------------------------*/
FoamFile
{
    version     2.0;
    format      ascii;
    class       volScalarField;
    location    "50";
    object      p;
}
// * * * * * * * * * * * * * * * * * * * * * * * * * * * * * * * * * * * * * //

dimensions      [0 2 -2 0 0 0 0];

internalField   nonuniform List<scalar> 
127143
(
-0.1844
-0.1883
-0.1829
-0.1827
-0.4665
-0.1826
-0.5897
-0.5254
-0.5218
-0.3794
-0.5573
-0.6001
-0.1787
-0.1827
0.4997
-0.1813
-0.1841
-0.03769
-0.2028
-0.186
-0.3477
-0.1788
0.027
-0.1004
-0.1788
-0.02652
-0.3777
-0.3769
0.2441
0.01109
-0.1705
-0.02487
-0.4182
-0.3559
0.1307
-0.4182
-0.2326
-0.3601
-0.1002
-0.1826
-0.2027
-0.2001
-0.1767
-0.1785
-0.03359
-0.3568
0.2409
-0.2378
-0.01073
-0.1231
-0.1817
0.03585
-0.3819
-0.2857
-0.001114
0.05652
-0.001042
-0.0882
-0.01059
-0.2833
0.3838
-0.2622
-0.1359
-0.00329
-0.3747
0.1229
-0.1337
-0.1326
-0.1317
-0.0001358
-0.1226
-0.3775
-0.1847
-0.01101
-0.004616
-0.3771
-0.01577
-0.263
0.04913
-0.0002089
0.2311
-0.186
-0.3561
-0.1779
-0.1907
-0.2595
-0.08851
-0.3824
0.1239
-0.5186
0.00824
-0.3098
-0.4834
-0.3474
-0.3678
-0.01147
-0.1971
-0.1377
-0.2893
-0.1301
-0.0003209
-0.01245
-0.6148
-0.06248
-0.2593
-0.2892
-0.02817
3.441e-06
0.2517
0.002798
0.5002
-0.3825
-0.3582
0.2928
0.005266
-0.01545
0.007974
-0.004515
-0.01542
-0.183
0.002845
-0.3493
0.1616
-0.06576
0.2325
-0.04453
-0.2866
-0.04089
-0.3738
0.08693
-0.3011
-0.3574
-0.1042
-0.263
-0.1843
-0.3013
-0.09119
-0.3507
0.3261
-0.1315
0.05319
0.01282
-0.3796
-0.3598
-0.3824
-0.3624
0.3042
-0.003248
-0.3576
-0.6371
-0.07394
0.003902
-0.3683
0.1598
0.4582
-0.1902
-0.0892
0.1439
-0.2375
-0.121
-0.1618
0.2576
0.008091
-0.3006
0.06171
-0.3745
-0.2399
0.2693
-0.4011
0.05658
-0.1807
-0.3596
-0.007777
0.08793
0.0004692
-0.1842
-0.3604
-0.3741
-0.08503
-0.006913
0.0886
0.004745
-0.1836
-0.1834
0.08932
-0.2613
-0.08388
0.2813
-0.1035
-0.02756
-0.3832
-0.381
-0.08901
-0.04069
-0.1838
-0.3159
0.0001425
-7.601e-05
-0.1915
0.01041
-0.01288
0.07337
0.01009
-0.2326
-0.1822
-0.1583
0.003279
-0.01146
0.00931
0.005305
-0.2128
-0.1888
0.01173
-0.4016
-0.3044
-0.1877
-0.1843
0.003013
-0.3463
0.001759
-0.3494
-0.0005477
0.007072
-0.3782
-0.13
-0.1838
0.06276
-0.363
-0.1967
-0.2828
-0.35
0.004048
-0.184
-0.1818
-0.35
-0.05222
-0.3007
-0.1805
-0.01306
-0.3819
-0.3809
-0.3746
-0.1993
0.1411
-0.3841
-0.1829
0.004348
-0.3772
-0.2036
-2.806e-05
-0.3073
-0.07387
0.03605
-0.3568
0.04534
0.238
-0.03986
-0.4211
0.05896
0.09382
-0.3276
0.002263
-0.3048
0.01341
-0.3704
-0.3749
-0.2763
0.4659
0.3531
-0.373
-0.002117
0.00156
-0.2312
-0.3825
-0.1411
-0.3832
-0.3585
-0.02893
0.001946
0.1019
-0.0001591
-0.008924
-0.06246
0.008579
-0.003006
-0.1856
-0.3255
0.004856
-0.03806
-0.005939
-0.3769
0.03251
-0.0508
0.00669
0.01
0.2588
-0.1181
-0.1828
-0.1994
-0.3775
-0.06866
0.08203
0.1909
-0.01489
-0.137
0.374
-0.01161
0.01199
-0.2998
-0.0787
-0.03307
-0.1808
0.04278
-0.0002543
0.01167
-0.4236
-0.3712
-0.08008
-0.2836
-0.0001557
0.02801
-0.1531
-0.07664
0.0355
-0.4241
-0.3743
0.09542
-0.182
-0.18
-0.3561
-0.2604
-0.003399
0.1271
0.0001112
-5.629e-05
0.1598
0.243
-0.007139
-0.2608
-0.3319
-0.1272
0.002701
-0.3818
-0.3833
0.4666
-0.03727
-0.3554
-0.3673
-0.06239
-0.3745
-0.06591
-0.2249
-0.1863
-0.3828
0.07647
-0.352
-0.3568
-0.3541
-0.003066
-0.1801
-0.2248
-0.1349
-0.189
-0.1484
-0.1161
-0.002501
0.01023
-0.00306
-0.3725
-0.0005247
0.4365
-0.07749
-0.07433
-0.139
-0.02794
-0.2211
-0.09338
-0.1799
-0.2783
-0.00106
-0.285
-0.04408
-0.05427
0.08283
0.007446
-0.1789
0.02036
-0.1818
-0.3179
-0.3402
-0.01219
0.2179
-0.1877
0.05071
-0.103
-0.1455
0.2142
-0.1694
0.07803
0.003032
-0.1507
-0.0006419
-0.3561
-0.1836
0.01448
-0.05972
-0.2599
-0.09551
0.00218
-0.08517
0.2439
-0.03454
0.05248
-0.2418
0.1626
-0.3678
-0.3216
-0.0006755
-0.3728
0.1894
-0.2398
-0.235
-0.3106
4.148e-05
-0.2834
0.02938
-0.1669
0.08294
-0.3744
0.02078
0.001565
-0.3078
-0.1857
-0.2265
-0.376
-0.002639
-0.03091
-0.3604
0.03482
0.01019
0.006812
-0.1236
-0.08767
0.2423
0.03956
-0.1374
0.01435
0.4107
-0.003341
-0.19
-0.3326
-0.06225
-0.05946
-0.3771
0.1286
-0.2255
-0.06255
-0.3755
-0.234
-0.3676
-0.1041
-0.373
-0.3422
0.2908
-0.3735
0.0006642
-0.006731
-0.3683
-0.3425
-0.0006711
-0.2922
-0.3114
-0.06622
-0.3704
-0.0007284
0.0002816
0.4814
-0.3076
-0.2118
-0.3841
0.3114
0.4198
-0.3824
0.04472
0.2446
-0.3777
-0.3813
-0.01129
-0.1202
0.0306
-0.4095
-0.08996
-0.3781
-0.3628
-0.1824
-0.2956
0.3936
-0.07167
-0.2577
0.01128
0.3093
-0.00778
-0.1985
-0.316
-0.185
-0.1897
-0.1786
0.005034
-0.3517
-0.3775
0.01133
-0.2342
0.1616
-0.2691
-0.03533
-0.333
-0.05824
-0.2926
-0.3739
0.0005481
-0.1853
-0.179
0.1968
-0.09337
-0.1808
-0.01155
-0.07392
0.008519
-0.3387
0.004115
-0.1233
-0.5104
-0.1945
-5.315e-06
-0.3685
-0.0377
-0.179
0.2644
-0.4196
-0.3214
0.0344
-0.2231
0.1829
-0.0007595
0.08181
-0.3648
-0.1159
-0.1493
-0.3425
-0.2595
-0.3169
-0.3678
0.181
-0.256
-0.3079
-0.02015
-0.1836
-0.3199
-0.03906
-0.07722
-0.2071
0.001616
0.002134
0.0905
-0.3553
-0.2578
0.01261
4.182e-05
0.1763
0.2218
-0.2566
0.2451
-0.238
-0.2764
0.03368
-0.01369
-0.002293
-0.2016
-0.3037
0.03365
0.0005714
-0.3772
-0.08702
-0.3353
-0.00245
-0.05215
0.01277
-0.2595
-0.1845
-0.3388
-2.341e-06
-0.2558
-0.3281
0.257
0.0002764
-0.02797
-0.1837
0.006771
-0.05944
0.009124
-0.1426
-0.3825
0.008556
-0.352
-0.04927
-0.1819
-0.3802
-0.3782
-0.06533
-0.05422
0.488
-0.1019
-0.4743
-0.1768
-0.1895
-0.3732
-0.1084
0.0006307
0.01222
0.009879
0.461
-0.04536
-0.3781
0.001624
0.00522
-0.09154
0.1915
-0.3503
0.0005223
-0.002182
-0.197
-0.3868
-0.3564
-0.1106
-0.2041
0.2424
-0.3311
0.2437
-0.3835
-0.3056
-0.3747
0.000512
-0.3754
-0.3837
-0.01249
-0.3576
0.007775
3.239e-05
-0.3756
0.3251
-0.3841
-0.1846
-0.04439
-1.783e-05
-0.2825
-0.3746
0.0704
-0.3775
-0.008083
0.01453
-0.2965
0.04529
-0.3836
0.1594
-0.1786
-0.184
-0.2343
-0.2256
-0.3254
-0.3819
-0.05051
-0.3817
0.0415
-0.3742
-0.1805
-0.3568
-0.002413
-0.02919
0.1404
0.353
-2.637e-05
-0.00238
-0.185
-0.07103
-0.003497
-0.3826
0.3359
-0.2982
-0.3107
-0.1305
0.2778
0.0571
-0.01068
0.001229
-0.3157
0.02119
-0.3722
0.3517
0.2
-0.2162
0.1989
-0.2086
-0.1967
1.97e-05
-0.1662
-0.002739
0.03385
-0.1852
-0.02923
-0.3696
-0.2783
-1.636e-05
-0.07746
-0.11
-0.2091
-0.1927
-0.3487
-0.3838
-0.6384
-0.3213
0.3082
-0.224
0.0445
-0.07843
-0.07829
-0.2856
0.01173
-0.1815
0.1422
0.05762
0.02623
0.2246
-0.07938
-0.006228
-0.1821
-0.228
-0.2562
5.656e-06
-0.1846
-0.3102
-0.05713
-1.164e-05
-0.3815
-0.1972
-0.3721
-0.3763
-3.287e-05
-0.2607
-0.1788
-0.3354
-0.3602
0.01164
-0.382
0.4815
-0.02077
-0.004034
0.02687
-0.382
-0.2956
0.082
-0.02923
-0.05072
-0.2766
2.276e-05
-0.2603
-0.2431
-0.1555
-0.03205
-0.2919
-0.2338
-0.2599
1.396e-05
-0.2689
-0.2963
-0.3827
-0.1816
-0.3818
-0.1947
-0.3659
-0.1956
0.03934
0.004989
-0.1786
-0.3138
-0.3804
-0.2057
-0.2392
-0.2352
-0.2718
-0.122
-0.002233
-0.217
-0.05597
4.271e-05
-0.2822
-0.4081
-0.03353
0.1514
0.0004096
-0.331
-0.1843
-0.01097
0.0004023
-0.3477
-0.2591
-0.2047
-0.2298
-0.2581
-0.1868
-0.04868
0.2685
-0.002564
-0.282
-0.2362
-0.162
-0.137
0.2683
0.0002441
-0.0114
0.01532
-0.3777
-0.002654
-0.1885
0.3564
-0.05551
-0.03913
-0.0006666
-0.1873
-0.06164
-0.0001616
-0.06236
-0.00159
0.2919
0.4942
-0.3825
-0.3757
-0.1848
0.008687
-0.3394
0.1648
-0.124
-0.1804
-0.05
-0.546
-0.29
0.007849
0.2118
-0.02918
0.001301
-0.3501
0.1166
-0.3923
-0.1805
-0.03062
0.0002696
-0.07859
-0.2015
0.03865
-0.375
-0.3791
0.5016
-0.3845
-0.3852
-0.3508
-0.208
-0.2112
-0.1562
-0.006641
-0.04017
6.742e-06
2.279e-06
-0.3787
-0.05369
-0.381
-0.1624
0.3116
-0.07768
-0.04919
-0.4435
0.03106
-0.01164
-0.2353
-0.2484
-0.0479
-0.3571
-0.2268
-0.1863
0.0134
0.5006
-0.3607
-0.2279
0.00979
-0.3788
0.03366
-0.003153
-0.3503
-0.3164
-0.2655
-0.0006438
0.00153
-0.2451
-0.1875
0.1498
-0.2272
-0.3036
0.2369
0.02358
-0.1822
-0.3748
-2.904e-06
0.3351
-0.2318
1.714e-05
0.2188
-0.1787
-0.3178
-0.3797
-0.1437
-0.02266
-0.18
-0.1299
-0.0877
-0.01262
0.005552
0.004187
0.2715
-0.2554
-0.3566
0.1596
0.206
-0.1737
-0.2094
0.2057
-0.1425
-0.3756
-0.006394
-0.2427
-0.182
-0.3662
-0.3253
-0.3021
0.007835
0.02154
-0.2104
0.06817
-0.2136
-0.05235
-0.2191
-0.2195
-0.3803
-0.3764
-0.3746
-0.04457
-0.3841
-0.1523
-0.3083
-0.05694
-0.2354
-0.0407
-0.239
-0.1817
-0.1787
-0.301
-0.006123
-0.00451
-0.2615
-0.219
-0.01202
0.0003804
0.2659
-0.3305
-0.09988
-0.2315
-0.3781
-0.2871
-0.2556
0.002312
0.007458
-0.1181
0.1729
-0.1431
-0.1916
0.2455
-0.3492
-0.3764
-0.1046
-0.1206
-0.222
0.2576
-0.07121
-0.2385
0.2209
-0.005912
-0.2736
-0.1797
-0.2423
-0.3819
0.499
-0.001225
-0.3445
0.004437
-0.0001633
-0.002583
-0.3775
-0.3496
-0.1786
-0.1817
-0.03887
0.1701
-0.2587
0.0003769
-0.03822
0.007837
-0.2642
-0.1866
-0.2605
0.02021
-0.1791
-0.2508
-0.0004109
-0.0517
-0.1996
0.00506
-0.3823
-0.0001486
0.009075
-0.04519
0.0193
-0.3756
0.005203
-0.06148
-0.003424
-0.4218
0.01044
-0.2232
-0.06445
0.004123
-0.03859
-0.2934
-0.0725
0.001042
0.0006416
-0.3662
-0.007692
-0.2327
-0.2695
-0.1666
-0.2672
-0.2849
-0.3798
0.06975
-0.3775
-0.08249
-0.0552
0.06825
-0.2278
-0.001767
-0.3699
-0.1812
-0.0152
-0.000131
0.3974
-0.3211
-0.09746
0.07375
-0.3824
-0.04911
-0.3639
-0.3215
-0.09724
-0.192
0.06989
-0.1805
-0.0003534
-0.132
-0.3727
0.009428
-0.3649
-0.3756
-0.0002058
0.03011
-0.1808
-0.0103
0.05425
-0.3593
-0.1853
-0.01074
-3.612e-05
-0.3542
-0.3116
-0.01182
0.01824
-0.06531
-0.3281
-0.3399
-0.01099
-0.04965
-0.1791
-0.1791
0.01662
-0.02877
-0.2804
-0.1572
0.0001741
-0.08831
-0.004256
-0.2947
0.3071
-0.3746
0.07319
-0.1793
-0.3804
0.002864
-0.183
-0.2854
-0.3146
-0.1095
-0.4193
-0.3118
-0.1991
-0.1337
-0.0457
0.1184
-0.169
-0.2178
-0.1582
0.01727
-0.03796
0.3742
-0.1837
-0.2239
-0.01887
-0.2647
-0.3766
-0.05593
-0.08525
-0.3089
-0.2385
-0.06491
0.01908
-0.03758
-0.02238
9.058e-06
-0.004887
-0.372
-0.1738
-0.2494
0.0002701
-0.3637
-0.2225
0.00638
-0.3897
-0.04714
-0.3875
-0.1831
0.09243
-0.2254
-0.1787
-0.2321
-0.2352
-0.2706
-0.05748
-0.3756
-0.03873
-0.1132
0.2324
-0.379
-0.0505
-0.1504
-0.3721
-0.2992
0.0474
-0.1416
-0.2159
-0.1787
-0.2241
-0.02212
-0.202
-0.188
-0.3114
-0.02311
-0.239
-0.04058
-0.3784
-0.3089
-0.2344
-0.2655
-0.003621
-0.2616
-0.3813
-0.3223
-0.2375
0.03379
-0.1172
0.002977
0.0003326
-0.1803
-0.3567
-0.03052
-0.3733
-0.2539
-0.2193
-0.0229
-0.2113
-0.25
-0.3915
-0.3699
0.01375
-0.3393
0.007824
-0.3777
0.01577
-0.2395
0.007563
0.05716
0.0002478
3.627e-05
-0.1865
-0.1874
-0.227
-0.2198
-0.0002543
-0.000285
-0.2522
-0.3213
-0.3099
-0.3763
-0.05876
-0.06901
0.07531
-0.05931
-0.2113
-0.2726
7.582e-05
-0.1676
-0.2904
0.05235
-0.03974
-0.3689
-0.2935
-0.2743
-0.1332
-0.3647
0.2979
-0.2792
-0.3436
-0.2207
-0.3052
-0.1017
-0.02959
0.2131
-0.2666
-0.1789
0.002409
-0.1096
-0.5587
0.0001696
-0.4158
-0.01407
-0.2485
-0.02189
-0.003993
0.1128
-0.1669
-0.000956
-0.1481
-0.2886
-0.09605
0.4797
0.01128
-0.07184
-0.1836
0.06422
-0.2713
-0.3792
0.1626
0.04583
-0.1836
-0.5273
-0.3795
-0.2942
-0.005656
-0.3763
-0.2506
-0.1359
-0.4539
-0.2421
-0.2835
-0.003738
-0.03345
-0.2598
0.003356
-0.217
-0.0001903
-0.5918
-0.2103
-0.1793
-0.2437
-0.3829
-0.3873
-0.3563
-0.121
0.1104
-0.3866
-0.3235
-0.2884
-0.3825
-0.3566
-0.2315
-0.001912
-0.192
-0.003673
-0.2895
0.005276
-0.1948
-0.004302
-0.378
-0.2219
-0.0002931
0.009376
-0.1816
-0.2594
-0.3092
0.02146
-4.831e-05
0.2332
-0.3376
0.07579
-0.1787
-0.2914
-0.1828
-0.04557
-0.07716
-0.06272
-0.009957
-0.1846
-0.2463
-0.1679
-0.1867
-0.2453
-0.3773
-0.3832
-0.3728
-0.2243
0.004782
-0.386
-0.3359
0.1816
0.004141
-0.04523
0.1714
-0.04764
-0.2035
7.835e-05
8.301e-05
-0.1276
-0.2809
0.01843
-0.2683
-0.05475
0.02401
0.3416
0.001386
-0.04467
0.119
-0.3598
-0.002752
-0.3317
-0.1065
-0.3762
-0.3294
0.001716
-0.05
-0.274
-0.0232
-0.1814
-0.1826
-0.02656
-0.382
-0.01114
0.04722
0.004787
-0.0652
-0.1852
-0.375
-0.1013
-0.004292
-0.2223
0.1355
-0.04746
0.441
-0.01285
-0.3153
-0.2855
-0.2153
7.72e-05
-0.4804
-0.3439
-0.1839
-0.1603
-0.2233
-0.212
-0.006431
-0.3748
-0.1823
-0.3049
-0.1303
-0.3509
-0.187
-0.03873
-0.3737
-0.1829
0.3363
0.01968
0.3581
-0.329
-0.1115
-4.877e-05
4.204e-05
-0.08095
-0.3304
-0.4465
-0.3812
-0.09795
-0.1501
-0.3856
-0.001326
-0.2326
-0.03933
-0.01262
-0.005277
-0.2304
-0.0007172
0.142
-0.005764
-0.4517
0.06338
0.2946
-0.3836
-0.1445
-0.000226
0.5019
-0.2832
0.06877
-0.3079
-0.3568
0.005365
-0.3698
-0.2602
-0.3043
-0.1801
-0.1795
-0.2717
-0.5442
0.1402
-0.02018
-0.0005747
-0.2128
-0.0002441
4.543e-05
0.03513
-0.1804
-0.0006
-0.1644
-6.311e-05
-0.3789
-0.3696
-0.3337
0.01269
0.001089
-0.2494
-0.3532
-0.1843
-0.1502
-0.04649
0.08339
-0.004307
-0.001577
-0.3798
0.5024
0.08303
-0.04304
-0.04824
-0.2401
-0.01334
0.07327
-6.955e-05
0.123
-0.2777
-0.1224
-0.05233
0.2034
0.02952
-0.3834
0.002831
-0.07317
0.1656
-0.1848
0.235
0.0332
-0.3375
-0.002394
-0.3837
-0.1001
-0.2538
-0.04516
-0.04651
-0.2826
-0.008261
0.1785
-0.3315
-0.3829
-0.4007
-0.1823
0.0001209
-0.2723
-0.009101
-0.375
0.01016
-0.3732
0.006873
-0.1821
-0.004705
-0.06161
-0.2699
-0.002924
-0.2644
-0.1137
0.2358
-0.343
-0.002925
-0.0878
-0.003104
0.07241
0.291
-0.00732
-0.21
-0.02425
-0.01128
-0.3788
-0.187
0.4052
0.2351
-0.2006
-0.06376
-0.3734
-0.3744
0.4731
-0.101
-0.271
0.2075
0.01665
-0.04821
-0.3251
0.2752
-0.06523
0.04119
-0.0008724
-0.1802
-0.2495
-0.3617
-0.2477
-0.009193
-0.2397
-0.06954
-0.04316
-0.0006153
-0.06871
-0.01371
-0.04487
-0.06829
0.01249
-0.3824
0.001595
-0.3155
-0.0325
-0.3243
0.2961
-0.0003405
-0.0129
0.005895
-0.05303
0.3004
0.2327
-0.3807
0.03545
-0.1032
-0.05563
-0.006924
0.02448
-0.184
0.0001646
-0.3731
0.05349
0.04652
0.3001
-0.03113
-0.1949
0.0003936
-0.3323
-0.3825
-0.000369
0.1286
-0.3919
-0.3267
9.333e-05
-0.2419
-0.1563
-0.301
-0.3782
-0.2468
-0.08707
-0.3273
0.0001199
-0.0003786
-0.1845
-0.04207
-0.3826
0.314
-0.2065
-0.1553
-0.3743
0.03996
-0.3747
-0.185
-0.5162
-0.1838
-0.1841
-0.3658
-0.09534
-0.2254
-0.0832
-0.1959
-0.3276
-0.1877
-0.1798
0.2436
-0.2616
-0.3001
-0.05597
0.01347
-0.5257
-0.08272
-0.3069
-0.2061
-0.1218
0.002777
-0.1841
-0.2423
-0.0002844
0.08709
-0.04424
-0.3758
-0.3785
-0.3086
-0.0104
0.0168
0.007194
-0.3574
-0.1806
-0.3561
-0.03337
-0.07409
1.361e-05
-0.3895
0.5008
-0.06214
1.184e-05
-0.2387
-0.2363
-0.1002
-0.38
-0.1884
-0.09258
-0.0003807
0.3205
-0.02276
-0.0002606
-0.2
-0.01511
-0.08844
-0.4828
-0.1114
-0.1796
-0.648
-0.2224
-0.05167
0.0002412
0.02921
0.1526
-0.2133
-0.1165
-0.1881
-0.08711
-0.2123
-0.1007
-4.513e-05
0.01352
-0.1295
-0.4426
-0.2338
-0.364
0.06508
0.1836
0.01091
0.042
-0.3736
-0.01078
0.007821
-0.07051
-0.09685
-0.07325
-0.2028
0.009502
0.07469
-0.3712
0.1334
-0.2856
-0.18
-0.03457
-0.01884
-0.1327
-0.2682
-0.1855
-0.2269
-0.05213
-0.1539
-0.1843
-0.1401
-0.09182
-1.545e-05
-0.08346
-0.1821
-0.2282
-0.004147
0.005563
-0.2953
-0.03562
-0.1943
-0.01674
-0.1528
0.4783
0.006567
-0.09741
-0.2133
-0.2145
-0.0592
-0.3072
0.01781
-0.3799
-0.3351
-0.03565
-0.3828
-0.001313
-0.1822
-0.2064
-0.04816
-0.1631
-0.03825
-0.3583
0.02078
-0.09435
-0.3698
-0.3268
-0.099
-0.1797
-0.08197
-0.2542
-0.2617
-0.2779
-0.3686
-0.2101
0.3741
-0.2558
-0.01391
-0.1981
-0.2222
-0.03845
-0.01058
0.0003157
-0.3476
-0.2403
-0.3802
6.228e-06
-0.2228
-0.1858
-0.203
-0.2042
-0.3651
-0.2198
-0.305
-0.04577
-0.002197
-0.2383
-0.0009358
-0.218
0.07
-0.04385
-0.2987
0.002824
-0.04182
-0.142
-0.1828
-0.004638
-0.04005
-0.2012
-0.08421
-0.3773
0.0119
-0.3833
-0.2002
0.05488
-0.1149
-0.2877
-0.3849
-0.3758
-0.05685
-0.07974
-0.1724
-0.2693
-0.5131
-0.1266
-0.2841
-0.01029
0.01129
-0.0005976
0.174
-0.1342
-0.3828
0.007038
-0.3342
-0.2519
-0.4942
-0.2889
5.371e-05
-6.158e-06
1.837e-07
-0.08161
-0.3739
-0.1901
0.457
0.09317
-0.3309
-0.05638
0.002517
-0.09141
0.03069
-0.03798
-0.1907
-0.1108
-0.08931
0.09464
-1.911e-05
-0.05641
0.09406
0.0006523
0.1063
-0.3478
0.4095
-0.1877
-0.3824
-0.1274
-0.3723
-0.3508
-0.007278
-0.3659
-0.2279
2.205e-05
-4.407e-06
-0.2631
-0.2162
-0.1462
0.2437
0.252
-0.3825
0.0005522
-0.00474
0.2557
-0.003475
-0.3361
0.0619
-0.3529
-0.008621
0.05225
0.01495
0.3879
-0.417
4.195e-05
-0.0581
-0.02999
-0.0446
-0.2037
0.1774
-0.3417
-0.3801
-0.3682
-0.2544
-0.06796
-0.266
0.1922
0.01459
-0.3457
-0.1835
-0.6382
-0.2006
-0.1943
-0.2452
0.2726
0.2439
0.004426
-0.03221
-0.04042
-0.3762
-0.03042
-0.2153
0.001571
-0.0491
-0.2447
-0.03272
-0.3047
0.08534
-0.314
0.2229
-0.1367
-0.3658
-0.04928
-0.1322
-0.3789
-0.0002174
-0.2033
-0.1492
-0.3748
-0.2989
-0.2693
-0.09814
0.008392
0.005103
-0.368
-0.08241
-0.03583
-0.1793
-0.2001
-0.2316
-0.3756
6.396e-06
-0.3753
-0.03514
-0.1865
0.2849
-0.07972
0.04007
-0.2171
-0.03499
0.2041
-0.0684
-0.3634
-0.2166
-0.1774
0.004056
-0.2355
-0.1675
-0.2093
-0.4081
-0.09497
-0.2436
-0.3811
0.01425
0.01112
0.2736
0.2496
0.2985
-0.3815
-0.3801
-0.09538
0.1749
-0.3695
-0.3195
0.43
-0.1797
-0.2245
-0.2143
-0.2496
8.073e-05
-0.3151
0.01091
0.001808
-0.3619
-0.02312
-0.2231
0.07379
-0.3359
-0.3662
-0.0671
-0.3757
-0.2802
0.4415
-0.3044
-0.1943
-0.1965
-0.3405
-0.2964
0.0005388
-0.205
-0.3177
-0.2334
-0.1845
2.408e-05
-0.3058
-0.0995
-0.03946
-0.3243
-0.1818
-0.4956
-0.2718
-0.31
-0.3416
0.02239
-0.2132
0.00502
0.0349
-0.3209
-0.1808
-0.3778
-0.3756
-0.1599
-0.2887
-0.01533
-0.3751
-0.3128
-0.3158
-0.07083
-0.3482
0.4658
-0.0363
0.1982
-0.05147
-0.2474
-0.1114
-0.1831
-0.2943
-0.2395
0.1841
-0.1995
-0.3815
-0.05783
0.2377
0.003305
-0.3764
-0.3715
-0.2253
-0.03496
-0.05101
-0.3636
-0.3857
-0.3517
-0.3745
-0.5231
0.005544
-0.1813
-0.2777
-0.1225
0.08317
0.0977
-0.01477
-0.3603
-0.3115
0.07557
-0.4472
0.1165
-0.3824
-0.3797
-0.2756
-0.07555
-4.118e-05
3.329e-05
-0.1121
-0.381
0.1022
-0.3783
-0.1206
0.004026
-0.3804
0.01112
-0.3808
0.009982
-0.01469
-0.3815
-0.377
-0.1162
-0.4264
0.06112
-0.00119
-0.1127
-0.2182
0.01396
-0.01053
-0.143
-3.533e-05
-0.0235
-0.2727
-0.2866
-0.1989
-2.82e-05
-1.373e-05
-8.632e-06
-1.675e-05
-0.03759
-0.186
0.003829
0.2219
-0.04831
-0.2018
-0.3522
-0.3757
1.648e-05
-0.3522
-0.2329
-0.1788
-0.3776
-0.1797
-0.181
-0.06512
-0.05252
-0.3757
-0.1271
-0.04094
-0.06299
0.3987
0.04729
-0.0812
0.3776
0.2926
-0.004829
-0.2064
-0.3076
0.02625
-0.09227
0.07547
0.2237
-0.004462
-0.2293
-0.3793
-0.0005767
-0.3824
-0.255
-0.3423
-0.1954
-0.1836
-0.1157
-0.2764
0.0005176
0.259
-0.1726
-0.2474
-0.242
0.2248
0.00611
-0.01649
-0.2882
-0.1793
-0.3058
-0.009776
-0.3381
-0.3755
-0.02883
0.4697
-0.0522
-0.3251
-0.2218
-0.184
-0.2706
-0.05638
-0.1517
-0.08486
0.01003
0.1939
-0.008141
0.005135
-0.2921
0.0004595
0.4456
-0.2794
-0.1275
-0.2549
-0.006532
0.005656
-0.06021
-0.1912
-0.02986
-0.2119
-9.085e-05
0.03353
-0.6463
-0.375
0.004876
-0.3768
-0.377
-0.1693
0.0001515
-0.3092
-0.3518
-0.007582
-0.03543
-0.2943
-0.3793
-0.5905
0.1268
-0.06601
-0.1787
-0.002861
-0.01497
-0.3768
-0.1311
-0.004632
-0.06174
-0.5209
-0.1492
0.0313
-0.06711
-0.3842
-0.159
-0.05065
-0.2658
-0.004868
-0.3346
-0.3777
-0.2564
-0.346
0.03079
-0.2647
-0.1825
0.2072
0.004861
0.008228
-0.1412
-0.3588
-0.2559
-0.1804
-0.3821
-0.04978
-0.2587
-0.3765
-0.2026
-0.2561
-0.000401
-0.3784
-0.3813
-0.02538
-0.2671
0.2679
-0.121
0.4953
-0.2469
-0.3751
-0.1689
-0.108
-0.02098
0.2541
0.05584
-0.05595
0.2336
0.006289
-0.6618
0.001242
-0.2625
-0.3757
-0.1819
-0.1827
-0.4302
-0.2246
0.3597
-2.306e-05
0.4853
-0.3733
0.0001783
-0.2611
-0.2015
0.3983
-0.0795
-0.2122
-0.3132
0.02867
-0.1285
-0.3498
0.1811
-0.05434
-0.3766
0.001203
-0.2586
-0.06212
-0.1827
-0.1197
-0.1992
-0.1837
-0.07058
-0.03594
0.03425
0.01406
-0.002161
-0.06689
0.1201
-0.02694
-0.2415
0.007645
-0.2288
-0.03386
-0.3766
-0.3823
-0.2474
-0.0001822
0.01452
-0.06657
-0.02849
-0.3799
-0.233
-0.2445
2.972e-06
-0.08252
-0.01577
7.105e-06
-0.2889
0.04961
-0.001247
-0.344
-0.1989
-0.1851
-0.2579
-0.07918
0.1036
-0.1023
-0.2384
-0.3815
-0.2894
-0.2943
-0.3556
-0.2388
0.08545
-0.02586
-0.2172
-0.1733
0.03478
0.1651
-0.1863
-0.1278
-0.3735
2.555e-05
-0.03668
-0.1852
0.003472
-0.03312
0.1422
-0.3095
-0.3784
-0.1002
-0.2185
0.2216
-0.2034
-0.1786
0.0002015
-0.2962
0.09177
-0.1325
0.1119
0.002397
0.3394
-0.3043
-0.2543
-0.2766
-0.3226
-0.377
0.1372
-0.3359
-0.2588
-0.3782
-0.1965
-0.3853
-0.376
4.146e-05
-0.2147
-0.1681
0.0002971
-0.04535
-0.1081
-0.0004051
-0.3748
-0.3444
-0.02431
0.003066
-0.07536
-0.0002092
-0.2973
-0.02701
0.02139
-0.1812
0.2147
-0.03785
-0.003938
0.1653
-0.008772
-0.1012
-0.2857
-0.3386
-0.05638
-0.3377
-0.06853
-0.2914
-0.4183
0.113
0.0004438
-0.2949
-0.2693
0.0007804
-0.01743
0.006206
-0.1701
-0.3349
-0.3914
-0.2515
-0.001235
-0.3364
-0.09854
-0.3746
-0.1802
-0.3745
-0.1948
-0.008449
-0.3232
-0.03194
0.02888
-0.3823
-0.1608
-0.03842
-0.318
-0.01983
0.3725
-0.3749
0.000533
1.82e-05
-0.02734
-0.07762
0.3271
-0.1789
-0.3083
0.01129
-0.06224
0.266
-0.06339
-0.004109
-0.1745
-0.1902
-0.0834
-0.0004217
0.4387
-0.3804
-0.07767
-4.876e-06
-0.05741
-0.2919
0.03575
-0.09093
0.02767
0.08983
-0.2846
-0.3732
2.459e-05
-0.1828
-0.2199
-0.3735
-0.2361
-0.382
-0.08354
-0.2602
0.02057
-0.4088
-0.006716
-0.3353
-0.02213
-0.3819
0.2989
0.004193
-0.3764
-0.3805
-0.3083
-0.3473
-0.052
-0.389
-0.1182
-0.1491
-0.1805
-0.2101
-0.1834
-0.3747
3.782e-05
0.3126
-0.02071
-0.1685
-0.1843
-0.3752
0.1788
0.02525
-0.006969
0.04504
-0.07564
1.807e-05
-0.5019
-0.3285
0.005501
-0.02755
-0.1119
-0.151
0.00333
-0.2472
-0.2017
-0.06419
0.04512
-0.3813
-0.565
-0.3825
-0.3456
-0.06451
-0.1915
-0.37
0.001015
-0.3166
-0.3759
-0.3259
-0.002943
-0.1068
-0.2672
-0.2073
-0.2451
-0.3885
0.18
-0.2175
-0.3229
-0.196
-0.3019
0.2593
-0.2546
0.04918
-0.01689
0.03131
-0.181
-0.004715
-0.3749
-0.1634
0.005612
-0.3737
-0.2909
0.2116
-0.03777
-0.3831
-0.02949
-0.2821
0.1483
-0.01492
0.009316
-0.2182
-0.1845
-0.0001615
-0.3622
0.05489
0.2343
-0.1924
-0.3065
-0.1275
-0.05813
-0.2754
-0.3721
0.003965
-0.2873
-0.3401
-0.6023
-0.07778
-0.2125
-0.3881
-0.3618
-0.3742
0.021
-0.2233
-0.3245
-0.0004526
0.001508
-0.2845
-0.1433
-0.00331
0.1624
-0.1104
0.1157
-0.2444
-0.3698
-0.3333
-1.692e-06
0.1605
0.0009518
0.02135
4.271e-06
-0.204
-0.1848
-0.2417
-0.3322
-0.3812
-0.2112
-0.1998
0.0004681
-0.346
-0.2045
0.5011
-0.3752
-0.07709
-0.1886
-0.08563
-0.00401
-0.1893
-0.3433
-0.09454
-0.1089
-0.183
-0.3502
2.761e-05
0.006256
-0.08946
-0.1968
-0.2109
-0.4378
-0.004067
-0.1896
-0.3104
-0.1573
0.002115
0.03899
-0.07328
0.08197
-0.2791
-0.3202
0.4331
0.0001312
0.083
1.4e-06
-0.3633
0.07564
0.01197
-0.1981
-0.2921
-0.179
-0.2091
-0.1894
0.04521
0.0004789
-0.3823
-0.01143
-0.009058
-0.3817
-0.3777
-0.3083
0.0003907
-0.02935
-0.2063
0.03871
0.2711
-0.2715
-0.003947
-0.4578
0.03312
-0.1833
0.01731
-0.002777
-0.01036
0.00305
-0.3765
-0.3128
-0.07159
-0.0213
-0.184
0.02062
-0.203
0.03222
0.00772
0.01013
-0.3833
-0.2312
-0.2095
0.01415
-0.3313
-0.1812
-0.3811
0.1261
-0.2544
-0.06109
-0.3184
0.1507
-0.1384
-0.3442
-0.08133
-0.1977
-0.2713
0.08738
-7.729e-06
-0.3465
0.01724
-0.355
-0.211
-0.3796
-0.3826
-0.3819
-0.0006232
0.1648
-0.3482
0.0001122
-0.3871
-0.004439
-0.2493
-0.365
0.0007875
-0.3747
0.279
0.0004721
0.06689
-0.2549
-0.1666
0.03316
0.21
-0.031
-0.08452
-0.005671
-0.1452
-0.2358
-0.004313
0.2102
-0.3016
-0.07926
-0.14
-0.05977
-0.3811
-0.3261
-0.1792
0.3504
0.009739
-0.1069
0.1969
-0.08342
-0.3475
0.002476
-0.2153
-0.1006
-0.1264
-0.1827
-0.2946
-0.3783
0.0001572
-0.04091
-0.2757
-0.3254
-0.03406
-0.02897
-0.007774
-0.2851
0.2535
0.2518
-0.2591
0.1326
-0.2382
-0.08517
-0.3635
0.003822
-0.001236
-0.2809
-0.0001484
-0.2371
0.003796
-0.1295
-0.2061
-0.3259
-0.1225
-0.346
-0.3116
-0.0009008
-0.002237
-0.05695
-0.09269
-0.1478
-0.3773
-0.2536
-0.01536
0.2841
-0.3825
0.1103
-0.3819
-0.1505
-0.02279
-0.3825
-0.1332
-0.008775
0.02774
-0.1093
-0.09304
-0.3046
-0.189
-0.08995
0.005049
-0.1939
-0.09192
-0.004809
-0.2209
-0.01269
0.002063
-0.1786
-0.0003281
-0.1963
-0.008268
-0.3837
-0.3606
3.588e-05
-0.3729
-0.3779
-0.183
-0.2277
-0.2377
0.001389
-0.3748
0.0003904
-0.1303
-0.3734
0.4491
0.005579
-0.1713
-0.1794
0.001592
-0.005163
0.006441
0.06347
-0.01648
-0.06666
-0.3747
-0.0452
-0.3471
-0.2189
0.01904
-0.4182
-0.1331
-0.1595
-0.2513
0.005187
0.07505
0.09355
-0.3739
-0.03852
-0.3259
0.002068
0.4577
-0.3756
-0.05608
-0.2598
-0.3807
-0.2176
-0.005988
-0.004739
-0.01671
-0.5012
-0.04722
-0.225
-0.2713
0.04138
-0.0635
-0.006709
3.644e-06
0.2998
-0.3089
-0.1009
-0.3795
-0.3099
0.003216
-0.08946
-0.1278
-0.196
-0.2143
-0.04042
0.09325
-0.3841
-0.01573
-0.03423
-0.06595
-0.1477
-0.2444
-6.301e-05
-0.1858
0.1057
-0.1289
0.01069
-0.1968
-0.07131
-0.04877
-0.218
-0.4175
-0.3674
0.4468
-0.2799
0.1314
-0.3732
-0.08894
-0.3766
-0.1004
-0.2371
-0.3412
0.1294
0.008534
-0.3417
-0.4247
0.02526
-0.3688
-0.3788
-0.3261
-0.2133
-0.07832
-0.005456
-0.001136
-0.3537
-0.2595
-0.1899
-0.1963
-0.2704
0.1614
-0.1037
-0.2791
-0.2982
-0.3709
0.2307
-0.08875
-0.09457
-0.0002489
-0.3687
-0.3481
-0.3543
-0.3132
-0.08736
-0.3706
-0.1439
0.004722
-0.3752
0.03616
-0.3497
-0.3407
-0.02297
-0.0427
-0.3014
-0.03915
-0.188
-0.2319
-0.1371
-0.04544
-0.2356
-0.08699
-0.03172
-0.1789
0.1234
-0.3552
-0.2199
-0.2892
-0.1501
-0.4313
0.01101
-0.02228
-0.004491
-0.2398
-0.08309
-0.1798
-0.06598
0.2294
-0.2189
0.1255
-0.2148
0.003674
-0.2988
-0.1193
-0.2025
-0.08152
0.4343
-0.04838
-0.2497
0.0007827
-0.3804
-0.2091
-0.2118
-0.325
-0.002993
0.002538
-0.3622
-0.2429
0.04633
0.02345
-0.06129
-0.0009239
0.006849
-0.09412
0.02854
0.06067
-0.1357
-0.0007122
0.05963
-0.225
-0.4006
-0.3744
0.02287
0.2334
-0.06923
-0.1131
-0.08165
-0.2487
-0.3755
0.08673
0.1597
-0.0288
-0.2647
-0.1795
0.007027
0.04823
-0.1807
-0.4177
-0.004362
-0.2524
0.001889
-0.3463
-0.3489
0.08244
-0.3813
-0.1595
0.4931
-0.03751
-0.1218
0.451
-0.282
0.07
-0.0997
-0.2685
-0.3394
-0.05351
-0.3784
-0.2119
0.05252
-0.0003266
-0.318
-0.0789
-0.09645
-0.1405
0.01776
0.08576
-0.1798
0.01279
-0.02997
-0.02963
-0.2433
2.066e-05
-6.82e-06
0.0003742
-0.09138
-0.4511
-0.3389
-0.3209
-0.3675
1.856e-05
0.0001423
-0.03359
-0.1661
-0.05704
-0.3925
-0.3774
-0.2139
-0.43
-0.2373
-0.3054
0.3323
-0.2413
-0.3625
-0.2759
-0.09482
-0.2338
0.0198
-0.2295
-0.1129
-0.1595
-0.3722
0.1353
-0.3236
-0.3078
-0.2121
0.005169
-0.3809
-0.3464
0.04552
-0.2029
-0.00274
-0.02902
-0.05908
-0.08034
-0.2559
0.1811
-0.375
-0.2749
0.004211
-0.04885
-0.3241
-0.3093
0.00713
-0.05365
0.0009075
-0.1031
-0.3498
-0.2382
-0.1814
-0.3831
-0.3824
0.004901
-0.3808
0.3249
-0.1442
-0.002311
0.01161
0.01202
-1.382e-05
-0.1856
0.01316
-0.3415
-0.2359
-0.1812
0.00369
-0.3746
-0.1856
-0.1521
-0.04186
-0.06798
-0.2889
-0.2102
-0.008086
-0.1539
-0.3551
-0.2107
-0.02239
-0.2203
-0.3672
0.02665
-0.2097
-0.2347
-0.1789
0.3756
-0.00213
-0.1944
0.04722
-0.2203
-0.01405
-0.281
-0.2332
-0.05385
-0.003866
-0.1308
0.3414
-0.1559
0.002232
-0.04457
-0.2042
-2.963e-06
-0.04277
-0.05963
-0.3819
0.005586
0.004717
-0.2145
-0.009212
-0.0001686
-0.005317
-0.239
-0.02153
-0.09675
-0.2923
-0.09037
-0.1254
-0.1112
0.001661
-0.2828
0.0116
-0.01676
0.01287
-0.1134
-0.08948
0.06454
-0.2211
-0.3558
-0.2256
-0.3227
-0.1734
0.05604
-0.1861
-0.3479
-0.3192
-0.335
-0.2051
-0.003931
-0.3717
-0.2889
0.0286
0.4094
-0.06657
-0.08431
-0.2854
-0.0454
-0.05431
0.08945
-0.1925
-0.3908
-0.3754
0.01502
0.08706
7.693e-05
-0.2176
-0.2977
-0.3793
-0.3768
-0.1975
-0.2255
2.313e-05
0.05917
-0.3717
-0.07856
-0.0113
-0.08111
-0.2801
-0.3631
-0.3562
0.466
0.1801
0.15
0.2609
-0.1594
-8.929e-07
-0.1825
-0.3363
-0.2601
-0.04401
-0.1756
-0.0231
-0.2223
-0.312
0.01958
-0.3761
-0.07211
-0.08342
-0.3621
-0.07905
0.2276
0.001827
0.1195
-0.1462
-0.21
-0.3739
-0.3502
-0.01764
-0.2334
-0.217
-0.112
-0.02491
-0.05194
-0.03202
-0.003248
-0.1838
-0.3777
-0.2714
0.1079
-0.4181
0.001685
-0.005658
-0.3352
0.006533
0.0003987
-0.3507
2.799e-05
-2.106e-05
0.09252
-0.0001549
-0.2775
-0.1831
-0.1457
-0.3025
-0.0201
0.001637
0.005532
-0.3618
-0.07675
0.2524
-0.08707
-0.3299
0.0008481
-0.2028
-0.3586
-0.1444
-0.2192
0.003095
0.01308
-0.3587
-0.004081
0.002238
-0.184
-0.03538
0.0027
0.01186
-0.3813
-0.00303
-0.001183
0.005067
-0.1974
-0.08113
-0.2319
-0.2286
0.08119
-0.1392
-0.2836
-0.2028
-0.02266
-0.1873
-0.08998
-0.3528
-0.002309
-0.01459
-0.3257
-0.3758
-0.0005159
-0.1866
-0.2152
-0.3425
-0.195
-0.01028
-0.2416
-0.0495
-0.01363
-0.1787
0.005087
-0.6465
0.02515
0.1122
0.004908
-0.3777
0.009164
-0.07678
-0.008083
-0.1789
-0.1965
-0.181
-0.2914
0.0001496
-0.6085
5.928e-05
-0.1833
-0.3157
-0.2521
0.03309
-0.000132
-0.4048
0.006489
-0.08794
-0.2578
-0.3691
0.04393
0.01884
0.4892
0.0002254
-0.1876
-0.3589
-0.3835
-0.2366
0.3514
-0.3636
-0.5122
-0.09832
0.002385
-0.2667
0.3372
0.01068
0.004384
-0.3764
-0.2516
0.4122
-0.3523
0.4347
0.007109
-0.1289
0.006304
0.01478
0.008925
-0.3766
0.01116
-0.3251
-1.541e-05
-0.2754
0.02488
-0.3824
-0.1443
-0.4114
-0.04272
-0.3478
0.315
-0.03684
-0.05651
-0.1973
0.005881
-0.1331
0.001059
-0.234
0.1377
-0.003876
-0.09459
-0.3754
-0.1905
-0.07341
-0.2783
-0.1019
-5.048e-05
-0.3349
0.2467
-0.3779
-0.3619
-0.179
-0.2919
-0.2719
-0.3823
-0.2479
-0.3359
-0.1791
-0.1627
0.0006034
-0.3802
-0.0002702
0.05756
0.109
-0.04756
-0.1805
-0.5167
-0.2746
-0.1955
1.827e-05
-0.06143
-0.2963
-0.3824
-0.2632
-0.00492
-0.2676
-0.3751
-0.05681
-9.575e-05
-0.3818
-0.05946
-0.2892
-0.3162
-0.3778
0.2614
0.381
-0.2555
-0.3702
-0.3649
-0.1933
-0.21
0.04022
-0.3753
0.2191
0.01071
-0.2161
-0.2313
-0.2586
-0.3574
-0.3747
0.005206
0.2366
-0.3331
-0.2273
0.2103
0.23
-0.2029
-0.3782
-0.0009279
-3.131e-05
-0.2463
-0.2326
-0.06111
0.006217
-0.2432
-0.2287
0.08101
0.008886
0.001709
-0.1044
-0.1253
-0.2387
-0.3753
-0.3424
-0.3523
-0.1726
-0.204
-0.3671
0.04198
-0.2824
0.4446
-0.1846
-0.1004
-0.06747
-0.2384
-0.003761
-0.000201
-0.2547
-0.2624
-0.2757
-0.2907
-0.2292
0.01417
-0.1893
-0.3825
-0.2869
0.05536
-0.5655
-0.1854
-2.104e-05
-0.02071
0.03422
-0.0198
-0.1953
-0.3478
0.01229
-0.3786
-0.3772
0.006631
-0.3822
0.006893
-0.2201
-0.1791
0.02062
-0.2926
-0.3825
-0.07926
0.1062
-0.01414
-0.1133
-0.01124
-0.07255
-0.2101
-0.383
-0.2024
-0.00293
0.01448
0.0004783
-0.3069
0.01334
-0.3325
-0.1788
0.1347
-0.2907
-0.2661
0.03113
-0.0537