/*--------------------------------*- C++ -*----------------------------------*\
  =========                 |
  \\      /  F ield         | OpenFOAM: The Open Source CFD Toolbox
   \\    /   O peration     | Website:  https://openfoam.org
    \\  /    A nd           | Version:  8
     \\/     M anipulation  |
\*---------------------------------------------------------------------------*/
FoamFile
{
    version     2.0;
    format      ascii;
    class       surfaceScalarField;
    location    "50";
    object      phi;
}
// * * * * * * * * * * * * * * * * * * * * * * * * * * * * * * * * * * * * * //

dimensions      [0 3 -1 0 0 0 0];

internalField   nonuniform List<scalar> 
189008
(
7.225e-08
-7.225e-08
1.677e-08
-1.677e-08
1.236e-08
-1.236e-08
1.77e-08
-1.77e-08
1.092e-08
-1.096e-08
1.795e-08
-1.795e-08
5.546e-06
-5.546e-06
-9.274e-07
9.274e-07
-5.184e-07
5.184e-07
9.737e-07
-9.738e-07
1.028e-05
-1.028e-05
-2.416e-06
2.416e-06
-2.391e-09
2.391e-09
-1.961e-08
1.961e-08
-4.861e-05
2.983e-05
1.878e-05
6.478e-06
-7.377e-06
8.99e-07
-5.798e-08
5.798e-08
0.00778
-0.006075
-0.001705
-0.001238
0.0006564
0.0005816
-5.394e-06
6.18e-06
-7.863e-07
0.0007822
-0.0006636
-0.0001186
6.724e-07
-3.726e-07
-2.998e-07
-0.003286
0.01016
-0.006874
2.013e-05
0.0005003
-0.0005204
4.077e-07
2.647e-07
-0.0002641
0.0001482
0.0001159
-1.323e-05
1.459e-05
-1.358e-06
-1.462e-05
1.388e-06
0.0001819
-0.0001413
-4.059e-05
0.009864
-0.02107
0.01121
-4.674e-05
-0.0002096
0.0002563
-7.145e-05
-0.0001927
-1.018e-05
6.185e-06
3.991e-06
-0.0001327
7.847e-05
5.422e-05
0.01089
0.01089
-0.02178
-4.168e-06
-6.008e-06
3.458e-05
0.0002759
-0.0003105
-0.0004219
0.000726
-0.0003041
-4.705e-05
0.0005924
-0.0005453
-5.228e-05
6.046e-05
-8.181e-06
-0.0008653
-0.0003727
0.002142
-0.003844
0.001702
0.000751
-0.004641
0.00389
7.237e-09
-7.236e-09
0.001976
0.005804
-7.179e-05
-6.091e-05
0.0001197
6.216e-05
-0.0004579
0.0004601
-2.182e-06
-0.0008001
0.0009654
-0.0001653
-2.998e-05
0.0004773
-0.0004473
2.253e-06
4.224e-06
-0.01442
-0.0298
0.04423
-7.842e-05
-8.407e-05
0.0001625
-0.01338
0.01211
0.001268
1.083
-0.1285
-0.9541
0.0009362
-0.0007519
-0.0001843
-0.1462
1.229
0.01184
-0.007334
-0.00451
-0.3134
0.01917
0.2942
-0.005604
-0.007771
-0.002376
0.0002985
0.002078
-0.0004679
0.0008262
-0.0003583
-0.0002242
0.001837
-0.001613
-0.8101
0.9552
-0.1451
-4.38e-05
0.0001006
-5.676e-05
-0.0003751
-0.003042
0.003417
-0.02935
0.0238
0.005548
0.002241
-0.001857
-0.0003841
0.0006179
0.001623
-1.279
0.4806
0.7979
-6.955e-05
-0.0003078
0.0003773
5.963e-06
8.629e-06
-0.001081
-0.0004692
0.001551
-0.1163
-0.197
-0.274
0.5165
-0.2424
-6.234e-06
-8.39e-06
-0.05131
0.09211
-0.0408
-0.0005683
0.0005295
3.883e-05
0.0004938
0.0004424
0.1601
-0.6342
0.4741
-0.0001788
0.0001361
4.268e-05
-1.763e-06
-3.63e-06
0.0001198
0.0001442
-0.000264
1.059e-05
4.745e-05
-5.804e-05
0.0001295
-0.0003369
0.0002074
-0.0003016
0.000474
-0.0001724
-0.0006773
0.001291
-0.0006137
1.787e-05
-5.178e-06
-1.27e-05
-0.003066
0.002691
-0.0004093
0.000751
-0.0003417
0.1843
-0.02066
-0.1636
-0.00613
-0.00601
0.01214
-0.0002639
0.0009445
-0.0006807
0.0004422
0.00034
0.000441
-0.0004498
8.843e-06
0.02709
0.01446
-0.04155
0.003351
-0.001209
0.0002593
-0.0002623
2.966e-06
-0.0004112
-7.684e-05
0.000488
-0.01895
-0.0104
0.6863
-0.5262
-7.936e-06
-0.0007922
-7.335e-05
-0.0002658
0.0003391
0.004219
-0.005142
0.000923
9.311e-05
-0.0003947
-0.0005425
0.0001314
-0.001115
0.0016
-0.0004851
-1.001
-0.2777
-0.001157
0.0005906
0.0005666
-1.154
0.876
0.278
-2.23e-06
-4.638e-05
1.29e-05
4.972e-06
-0.0006269
9.289e-05
0.000534
0.0008051
-0.001173
0.0003678
-0.2123
0.09662
0.1157
0.0005742
0.002473
-0.003048
-0.1069
0.05895
0.04792
0.1656
-0.4396
0.02387
-0.07518
4.104e-07
-3.275e-07
-8.282e-08
-1.253
0.09851
6.631e-05
0.0001235
-0.0001898
-0.0004027
-0.0007192
0.001122
0.01367
-0.01172
-0.001945
-0.0001181
-6.074e-05
0.0001911
-0.0001769
-1.42e-05
-0.0005187
-0.0002513
0.00077
0.08831
-0.1038
0.01545
-0.000329
0.0001189
0.0002101
-0.0006326
0.0005114
0.0001211
0.0004819
-0.0001558
-0.0003261
0.0003988
-0.0001512
-0.0002475
-0.0003854
-0.00134
0.001726
-0.0002349
-0.0003334
1.381e-07
-1.056e-07
-3.249e-08
0.0005064
-2.451e-05
-0.005826
0.03686
-0.03103
-0.0002616
0.0005148
-0.0002532
-0.000163
0.000188
-2.497e-05
0.03388
-0.05618
0.0223
0.008873
0.0003622
-0.009235
-0.04868
-0.04148
0.09016
-0.0002611
0.000343
-8.191e-05
-0.0007178
0.0004185
0.0002993
-0.0001769
9.852e-05
0.001536
-0.0006866
-0.0008496
-5.355e-05
-2.118e-05
7.473e-05
-0.02778
-0.7823
0.0004983
-9.953e-05
0.0002355
-0.0003443
0.0001088
0.002504
-0.00371
0.001206
0.001109
-0.0003035
-0.0008059
0.001657
-0.001931
0.0002742
-0.008901
0.0004645
0.008437
0.0001045
-0.0002748
0.0001702
0.0003164
-0.0001869
0.007851
0.003993
0.0006252
-0.0005111
-0.000114
-0.0001003
-0.0003577
0.0001152
-0.0002196
0.0001045
-0.0002783
0.0005122
-0.0002339
-3.277e-05
3.277e-05
0.1908
-0.006541
0.0006106
-0.0001936
-0.000417
0.0001291
-0.0002741
0.000145
3.776e-05
-8.155e-05
-0.0003238
3.75e-05
0.0002862
4.586e-05
0.001594
-0.00164
9.981e-06
-1.613e-06
-8.369e-06
-0.04235
0.03365
0.008697
4.017e-06
1.06e-05
-1.462e-05
-0.000411
-0.0003069
-0.004462
0.001897
0.002565
-0.002653
0.0008619
0.001791
1.022
-1.196
0.1734
-0.0001002
7.035e-05
2.985e-05
-0.0007974
0.0004455
0.0003518
-0.0001685
-0.0001605
-0.0004271
0.0008339
-0.0004068
0.1209
-0.1483
0.0274
-0.00174
-0.0009135
-0.1206
-0.003029
0.1237
-3.71e-05
6.647e-05
-2.936e-05
-6.297e-05
-3.723e-05
-0.0002639
-0.0003687
0.0002805
-0.0007484
0.001099
-0.007436
0.006337
-0.0001275
0.0009326
0.0005151
-0.000495
-0.005607
0.08661
-0.081
-6.732e-06
0.000172
-0.0001652
-0.0001463
-4.43e-05
0.0001906
-0.04454
0.03872
0.0008672
-0.001022
0.0001551
8.008e-08
0.0001819
0.0006085
-0.0007905
-1.471
1.2
0.2714
-1.462
1.192
0.2699
1.472e-06
5.429e-08
-1.526e-06
-0.1669
0.1326
0.03425
0.2052
-0.03826
-0.1669
-0.05842
0.0484
0.01002
0.02665
-0.07004
0.04339
0.0002627
-0.0002281
-4.802e-08
4.802e-08
0.0003307
-0.001141
0.0008104
0.02557
-0.007392
-0.01818
0.00273
-0.0006276
-0.002103
0.03602
-0.02616
-0.2085
-0.003776
0.001414
-0.02169
0.02027
-0.0003517
0.0002548
9.694e-05
-0.05928
0.2019
-0.1427
4.165e-06
5.816e-06
7.203e-06
-0.0002565
0.0002493
1.424e-06
-1.781e-06
3.567e-07
-1.634e-05
1.483e-05
1.516e-06
0.003461
-0.002083
-0.001378
-0.0001133
0.0004
-0.0002867
0.0218
0.003767
-0.0007213
0.0003162
0.0004051
-0.471
0.2216
0.2494
0.000977
0.0001324
0.0001617
-0.000173
1.136e-05
0.0001074
6.095e-05
-0.0001683
-2.844e-05
2.345e-05
4.988e-06
-0.0002269
0.000356
0.0003066
-0.0007286
7.125e-05
-7.304e-05
1.795e-06
0.00054
-0.0004837
-5.638e-05
-0.0007062
0.0001922
0.000514
-0.04632
-0.07432
-0.001601
0.0005196
-4.22e-07
4.978e-07
-7.575e-08
-0.0004311
-0.0002751
-0.02333
0.01835
0.004974
0.0001989
0.0004116
5.295e-07
-5.295e-07
0.2265
-0.02134
-0.0003028
6.534e-05
0.0002375
-0.0002753
0.000129
-6.472e-05
0.0001377
-7.3e-05
0.0003249
-0.000226
-9.886e-05
0.0003135
0.0003117
0.0001327
-1.924e-05
-0.0001135
2.641e-07
1.463e-07
0.0009568
0.0004396
-0.001396
1.561e-05
-1.414e-05
-1.473e-06
3.802e-06
-3.802e-06
0.197
-0.9674
0.7703
-0.0001588
-0.002034
0.002192
-6.865e-05
0.0001692
-0.0001006
0.002241
-0.001056
-0.001185
-0.0007643
0.0002533
0.000511
-0.0001614
0.0007337
-0.0005723
0.000651
-0.0003903
-0.0002607
0.1175
-0.02915
5.358e-05
-0.0001163
6.275e-05
-0.0002225
0.001399
-0.001177
-0.008907
-0.001251
0.01016
0.0009878
-0.0005319
-0.0004558
-0.06412
0.09632
-0.0322
-0.0152
0.009073
-0.08848
0.0398
0.0001692
-2.064e-05
-0.0001486
-1.029e-05
-8.655e-05
9.684e-05
0.0001477
-0.0003016
0.0001539
6.422e-05
-0.0002077
0.0001435
-0.001078
-0.0006061
0.001684
0.003057
-0.005511
0.002453
-0.000352
-8.068e-06
0.0003601
0.8578
0.1643
0.0004134
-0.0005409
0.0001275
-0.000316
1.313e-05
0.001279
-0.00219
0.0009116
0.0002039
-0.0002106
-0.0003469
-0.0002801
0.001074
-0.001251
0.0001773
-0.3779
-0.4371
0.815
0.0007097
0.001252
-0.001962
-0.5426
-0.3506
0.8932
0.04296
-0.01588
0.004286
-6.711e-05
-0.09115
-0.1651
0.2563
0.04598
0.1207
-0.1666
1.885e-07
-5.798e-08
-1.305e-07
-0.0004946
0.0003999
9.465e-05
-0.07566
-0.1017
0.1773
0.001321
-0.0009737
-0.0003478
0.1739
-0.05307
1.17e-05
0.001645
-0.002444
0.005319
-0.002875
-0.01085
-0.01247
0.000932
0.001353
-0.002285
-0.2053
0.2363
-0.03095
-0.0005085
0.0008278
-0.0003193
-0.0001946
-0.0001315
0.000326
-4.841e-06
1.238e-05
-7.537e-06
0.0001289
0.000196
0.003922
-0.000865
-0.0001474
-0.0002438
0.0003912
-0.003784
0.001044
0.00274
-0.001228
-0.001671
0.002899
0.003576
-0.003001
-8.928e-05
0.0001503
-6.105e-05
0.0004695
0.0001218
-0.0005913
0.002508
0.0002221
-0.1824
0.1231
0.0003756
-9.877e-05
-0.0002768
-0.003322
0.003352
-3.036e-05
0.001261
0.000116
-0.001377
-4.848e-06
5.631e-06
-7.834e-07
-0.000625
0.0004161
0.0002089
-0.8563
0.3137
-0.257
0.1332
0.1238
0.000289
0.0001806
-0.0004696
0.0002489
-0.0001233
-0.0001256
-0.0001194
-0.000192
0.0003114
0.01936
-0.009938
-0.009427
0.1998
-0.19
-0.009738
0.008773
-0.01206
-0.0003515
-2.17e-05
0.0003732
0.09667
-0.05369
-0.04298
0.001561
0.0006797
0.0005046
-0.0002156
0.0001164
-0.0001015
-1.489e-05
-0.01707
0.03188
-0.01481
-3.484e-06
-1.729e-05
2.077e-05
0.0006353
-0.0002259
-0.0004094
-0.001704
0.0004718
0.001232
-0.001033
0.0005617
0.0004716
0.1945
-0.1486
-0.006291
0.01719
-0.5011
-0.9703
-0.4975
-0.9641
-0.01058
0.001683
-0.0009491
0.0007597
0.0001893
-0.004236
-0.0002264
-0.000337
-0.0006964
-3.748e-05
-0.0003565
0.000394
-0.01359
0.04747
0.002343
0.001118
0.0002096
-0.0001016
-0.000108
-3.91e-05
-9.491e-05
0.000134
-0.0003459
-9.03e-05
0.0004362
0.0003704
0.0009511
-0.0002973
0.0001201
0.0001772
0.0003579
-0.0004483
9.039e-05
0.0004946
-0.0003512
-0.0001434
5.945e-05
-0.000254
0.0001946
-0.0006732
0.0005377
0.0001355
0.0004517
-0.0006121
0.0001604
-2.838e-06
8.222e-05
-7.938e-05
0.0001648
-0.002449
-0.02688
0.02933
-0.0003687
0.0003258
4.289e-05
-0.0005931
-0.0001712
1.04e-05
-0.001287
0.001277
0.3002
-0.4094
0.1092
0.0005724
6.294e-05
0.0002316
-0.0004683
0.0002367
-0.002071
0.001847
-0.005392
-0.004558
0.00995
0.0009036
-0.0009433
3.979e-05
-8.773e-05
0.0006853
-0.0005975
0.3813
0.1361
-0.5173
-0.118
-0.04884
-0.1737
0.2418
-0.06805
-0.0001485
0.0001771
-2.854e-05
0.4318
-0.8097
-0.001513
0.001389
0.0001238
0.06137
0.0353
0.000162
-0.0002306
6.671e-05
-0.0005475
0.0004808
0.1165
-0.1221
0.03219
-0.01414
-0.01805
-0.0001458
0.0006457
-0.0004999
1.555e-07
1.926e-07
-3.481e-07
-0.0003503
0.0006264
-0.0002761
0.9289
-0.6971
-0.2318
0.00102
0.002967
-0.003987
4.325e-05
0.0001479
-0.0006892
0.0005003
0.0001888
0.006113
-0.004714
-0.001399
-0.08669
-0.02018
1.274e-05
1.698e-06
-1.444e-05
0.01698
-0.02078
0.0038
4.039e-06
-5.632e-05
-0.0005668
0.0007841
-0.0002173
0.0001189
-0.0006066
0.0004877
0.246
-0.2561
0.01012
0.005598
-0.004894
-0.000705
1.136e-05
-4.64e-05
3.505e-05
0.0002123
0.0005366
-0.0007489
-0.0006779
0.0007472
-6.932e-05
-0.0001293
0.000263
-0.0001337
0.003607
0.001991
-0.0003035
0.0002568
-0.0233
0.02085
0.00941
-0.07353
6.002e-05
-9.846e-05
3.844e-05
-0.5084
0.03736
-0.0007417
-3.629e-05
0.0007779
-8.341e-05
4.631e-05
0.0002117
0.01677
-0.004481
0.00354
0.0009407
-0.0001664
0.0005561
-0.0003898
-0.002447
0.00242
2.766e-05
0.1108
0.4879
-0.5987
0.0004423
-0.0008694
-0.0002464
-0.0001905
0.0004369
-0.0005871
-1.085e-05
0.0005979
0.001081
0.007792
-6.933e-05
-0.0002944
0.0003637
-0.001067
0.0006645
0.0001474
0.0002935
-0.0006821
0.0005828
9.929e-05
-0.0004183
6.622e-05
-2.944e-05
0.001098
-0.001069
-0.0008205
0.0001508
0.0006697
-0.0003623
3.854e-05
-4.367e-05
4.04e-05
3.269e-06
-0.000335
0.0003607
-2.574e-05
-0.6751
0.8721
0.0007262
-0.0001862
0.008816
-0.01117
0.002356
-0.003561
0.004312
-0.01197
0.0007848
0.01118
-9.638e-05
3.166e-05
-0.01092
-0.006938
0.01786
-1.276
1.437
-0.1617
0.0004469
-0.0004516
4.637e-06
-8.041e-05
-4.495e-05
0.0001254
0.005614
0.01238
-0.018
0.00111
-0.001021
-8.924e-05
0.573
-0.1917
0.001032
-0.00209
0.001058
-6.2e-05
0.0002713
-0.0002093
-0.05982
0.0454
-0.02519
-0.1801
0.7002
-0.6545
-0.04567
0.0006793
-0.0007092
0.0664
-0.02954
-0.0003454
-9.584e-05
0.0004412
0.05136
-0.05504
0.003687
3.447e-05
0.0002249
-0.01089
-0.1334
0.1443
0.0004053
-0.0003008
-0.0001045
0.05449
-0.2282
-0.0001749
-0.0001768
0.0005546
-0.0005984
4.377e-05
-0.000727
0.0004217
0.0003054
-0.001355
0.003013
-0.001659
-8.496e-05
0.0001654
-8.043e-05
-0.01916
0.00721
0.01195
0.0004029
-0.0002146
-0.0001883
0.0003077
9.885e-05
-0.0004066
0.0001302
-1.6e-05
-0.0001142
0.0004447
-0.0001002
-0.0003445
5.471e-05
0.00531
-0.005365
-0.002772
0.002387
-0.0001235
-9.424e-05
0.0002177
7.071e-05
0.0002675
-0.0003382
0.002165
-0.001811
-0.0003548
7.959e-05
-0.0002031
0.353
-0.9425
0.5895
0.12
-0.0009717
-0.119
-0.0006543
0.0002735
0.0003808
0.0002338
-0.0002507
1.694e-05
-1.537
0.1226
1.415
0.0007844
-0.0004794
-0.000305
-0.002754
0.01289
-0.01014
0.004921
0.008748
0.0001301
0.0001188
0.03066
-0.01681
-0.01385
1.413
-0.2685
-1.144
-2.802e-05
-0.0001357
0.0001637
-0.01269
0.00994
0.000118
-0.0001037
-1.426e-05
9.004e-05
-1.689e-05
-7.315e-05
0.0001533
-0.0001085
-4.488e-05
0.0003115
-1.37e-05
-0.0002978
-0.0002286
3.179e-05
0.0001968
-0.0003584
-0.0002666
-0.0006511
5.532e-05
0.0005958
0.0004275
0.0006827
1.206e-06
-1.991e-05
1.87e-05
-0.1257
0.2559
-0.1302
-0.000184
0.0002992
-0.1016
0.08394
0.01769
0.0007631
-0.0005996
-0.0001635
0.000641
-0.001318
0.0002526
-0.0001848
-6.78e-05
0.0003967
-0.001557
0.00116
-1.21e-08
-3.592e-08
-0.0005636
0.0002811
0.0002825
-0.0001726
0.0007654
-0.0005928
0.02996
-0.01802
-0.01193
0.001921
-0.002394
0.0004734
-0.2866
0.2307
0.0559
0.0001113
4.2e-05
0.1169
0.003069
0.0001698
2.485e-05
-0.0001947
0.0006823
-0.0005004
-1.08e-07
1.08e-07
1.431e-07
-1.634e-07
2.037e-08
4.286e-08
-4.026e-08
-2.599e-09
1.196
-0.8182
-0.3778
-0.0001806
-0.0001881
4.476e-05
-4.638e-05
1.613e-06
-0.1452
-0.1118
-0.0006221
4.405e-05
0.000578
-0.0003003
0.0009023
-0.000602
-0.0003459
0.0003763
-3.046e-05
0.00334
-0.0003111
-0.003029
7.769e-07
0.0005539
-0.0006217
-0.0001053
0.0004927
0.0002917
6.477e-05
-6.027e-05
-4.498e-06
-0.4363
0.7892
-0.0002878
0.000166
0.0001219
3.875e-07
-3.705e-07
-1.701e-08
0.0005311
-0.0006075
7.642e-05
0.0003671
-8.382e-05
-0.0002833
2.045e-05
-1.644e-05
0.0629
-0.1792
0.003345
-0.0008411
-0.05135
0.07799
-0.0002033
0.0002741
0.04369
0.2452
-0.2889
-0.0002865
6.88e-05
0.0002177
-3.686e-05
-6.456e-05
0.0001014
8.46e-05
-7.979e-05
-4.815e-06
1.523
-0.9005
-0.6229
-0.0005131
-0.0001412
0.009198
0.003925
-0.01312
3.649e-06
-5.244e-06
1.596e-06
-0.0006059
-1.054e-05
0.0006164
2.299e-05
-3.884e-06
-1.91e-05
0.0003672
-0.0001794
-0.0001877
-0.1075
0.1021
0.005433
3.238e-05
-0.0001568
0.0001244
0.0008324
0.0006897
-0.001522
-0.8024
-0.735
0.002329
-0.002567
-5.409e-05
0.002621
-0.0003946
0.0002
0.0003072
0.0005963
2.662e-06
0.0002311
0.0001755
-2.802e-05
-0.0001474
-0.0006964
0.0001297
-0.001862
0.002255
-0.0003933
0.0008145
6.009e-06
-0.0008205
0.0001891
-0.0004087
0.0002196
0.0001153
0.0003316
0.1127
0.05586
-0.1686
-7.758e-05
5.813e-05
1.945e-05
5.646e-05
-0.0003456
0.0002891
0.0004446
-0.0004934
4.881e-05
0.001103
-0.002382
0.001279
0.0001269
-0.0002407
0.0001138
-0.7907
0.1138
0.6769
-0.7884
0.6295
0.1589
0.00285
-0.01176
-0.0002779
-1.943e-05
-0.0005091
-0.001314
0.001823
0.1373
-0.208
0.07067
1.473
-0.6492
-0.8239
-0.001402
0.002241
-0.0008384
0.0002518
-0.0003724
0.0001205
-0.0006518
0.0002743
0.0003774
-0.0006446
-6.507e-06
0.0001029
9.424e-06
-0.0001124
-6.296e-05
5.818e-05
4.781e-06
-0.003004
0.00284
0.0001646
-0.1425
0.1006
0.04184
1.399
-1.277
-0.1225
-9.522e-05
4.683e-05
4.839e-05
-0.0001577
-0.0003223
0.00048
0.0005114
-0.001631
0.00112
0.3141
0.5214
-0.8355
5.343e-06
1.027e-05
0.002542
-0.002981
0.0004382
-0.0003138
0.0003076
6.237e-06
0.4918
-0.0003158
0.0003618
-4.595e-05
-0.028
0.1653
0.0002288
-0.0003951
-0.0001461
4.629e-05
9.984e-05
0.0008059
-0.0006739
-0.0001319
0.9779
0.1616
-1.14
-4.3e-05
-0.0001624
0.0002054
0.0007049
0.0002829
-7.487e-05
4.21e-05
0.3913
1.021
0.0004321
-0.001547
-1.201e-05
-4.336e-06
0.3944
0.3058
-0.001711
-0.00277
-0.1652
0.005834
0.1593
-0.0003786
-0.0004467
0.0008252
-3.291e-05
-1.6e-05
4.891e-05
-0.2801
0.189
0.0002428
-0.0002212
-2.168e-05
0.0002505
0.0004664
-0.0007168
-5.443e-06
8.326e-06
-2.883e-06
-0.000147
-0.0001379
0.0002848
-0.0003377
0.0001668
0.0001709
-0.0001936
-0.0004797
-0.0002246
-0.0004646
-8.152e-05
0.000213
-0.0001314
0.0006914
-0.0007384
0.0006536
-0.0009175
0.0006031
-0.0009342
0.0003311
9.891e-05
-0.0001125
1.361e-05
0.0002699
-0.0001631
-0.0001068
0.0003046
-0.0002263
-7.834e-05
-0.5995
0.9136
0.0007517
-0.0005198
-0.0002319
0.1073
-0.1936
0.08638
-0.00052
0.0001742
-0.1257
0.03518
0.09051
0.0001043
-0.0003654
-0.3425
-0.933
-0.1527
0.077
-0.002514
-0.004928
0.007442
-0.0003984
-0.0004221
-0.00033
-0.0002523
0.0005822
-1.04
0.1282
0.9121
1.106
-0.899
-0.2075
0.0001101
-3.886e-05
-1.865e-05
-1.255e-05
3.119e-05
-0.0001188
0.0002386
-0.0004759
0.0001781
0.0002977
0.0007568
-0.0002581
-0.0004987
0.0002584
-0.0006038
-0.0004665
0.0006851
-0.0002185
-0.0006543
0.000408
-0.0002126
0.0001177
-9.249e-05
0.0002533
-0.0001608
-4.209e-05
-1.16e-05
5.369e-05
-1.16
0.1199
4.518e-05
0.0001022
-0.0001474
3.459e-05
-0.0001892
0.0001546
-8.077e-05
-0.004814
0.004894
0.008586
-0.005215
-0.003371
0.1779
-0.2381
0.06021
1.03
0.4432
0.0001207
-4.313e-06
-9.473e-06
-0.0001535
-2.746e-05
2.866e-05
1.194e-05
-7.917e-06
-4.02e-06
-0.07711
-0.04858
-0.9855
-0.4036
1.389
-0.0001939
-0.000145
0.0003389
-0.0001871
-8.181e-07
0.0001879
-0.05048
-0.007938
4.151e-05
4.024e-05
-8.175e-05
0.01402
-0.002059
-0.01196
-0.03314
0.08617
-0.05303
-0.0003621
0.0001347
0.0002274
0.002192
-0.002724
0.0005318
-0.0001728
0.0002074
0.004112
-0.008763
0.004651
-1.123e-08
1.123e-08
-3.602e-05
7.581e-06
5.303e-05
0.0003917
0.000287
0.0001159
-0.0002522
-0.0002424
0.0002185
9.107e-05
-0.0003096
-0.0003044
-1.146e-05
-0.0001537
0.0002753
-0.0001217
0.05494
0.007516
-0.06246
0.0002917
-0.0001176
-0.0001742
1.809e-05
-7.384e-06
-1.07e-05
-0.0001655
-0.0005761
0.7439
-1.068
0.3241
0.001293
-0.0002197
-0.004433
0.003957
0.0004766
0.0008059
-0.002692
0.001886
1.074
0.449
-0.02524
0.7691
2.139e-07
-8.303e-07
6.164e-07
0.02273
0.007224
0.0003644
-0.0006425
0.0002782
0.0001539
-0.0001641
1.025e-05
-0.0003114
0.0005346
-0.0002232
0.0003263
4.925e-05
0.004815
0.00272
-0.007535
0.0002365
-0.0001291
0.002887
-0.006265
0.003378
0.0009518
-0.0008106
-0.0001412
-0.1497
-0.1998
0.3495
1.05
-0.04476
-1.006
-0.002066
-0.0006797
0.002745
-0.0004573
0.009273
4.978e-05
-0.0001983
-0.002022
0.002828
0.0003223
-0.0003584
3.61e-05
0.0008461
-0.0002728
-0.0005733
0.0002817
0.000173
-0.0004547
-0.02203
0.02344
0.003916
-0.009307
-1.124
-0.3857
1.51
-0.0001183
0.0002225
-0.0001042
0.0222
0.008455
-0.001056
0.0007918
0.000264
8.051e-08
-0.002395
0.0006788
0.001716
0.0001522
1.701e-05
0.0002013
-0.0005516
1.256
-0.2785
-0.001834
0.002082
-0.0002478
-0.0003431
-0.0005365
0.0008796
-2.229e-05
2.308e-05
-7.807e-07
-0.00066
0.0002365
0.0004235
0.0003767
7.93e-05
-0.000456
-0.0001531
-5.947e-05
-0.0001114
0.0003469
-0.0003321
-0.0003499
0.0001085
-0.0003926
0.0002841
0.0004664
0.0003238
-0.0007902
0.0005802
-0.0007416
0.001385
-0.002394
0.001009
-0.00353
0.0002084
4.513e-05
-0.0005638
0.002948
-0.005753
0.002804
-1.525e-07
1.525e-07
-0.000871
-0.003562
-0.06616
0.02381
0.0001646
-0.00137
0.001205
0.0001556
0.0003068
-0.0004624
1.252e-06
0.001115
-0.001116
0.1014
0.3726
-0.474
-5.499e-05
2.585e-05
2.914e-05
-4.349e-05
0.0004952
-0.0005716
-8.02e-05
-1.511
0.5253
3.139e-06
8.798e-06
-0.0004105
7.548e-05
0.0003136
-0.0003588
4.515e-05
-0.3878
-0.637
1.025
1.675e-05
-0.0001704
0.0001239
-0.0001516
2.775e-05
9.195e-05
-0.0002875
0.0001956
7.241e-05
-0.0002328
0.0001604
-1.197
0.8093
-0.0005666
0.0003441
0.0002225
9.611e-06
-5.099e-06
-4.512e-06
0.0001778
-0.0002773
9.951e-05
-0.000616
0.0006131
2.927e-06
-0.158
0.06359
0.09444
0.0001418
6.78e-05
0.0001931
-0.0002199
2.674e-05
-0.1626
0.1686
-0.006055
0.002664
0.0005274
-0.003192
-0.003731
0.003619
0.0001123
0.0002587
-4.022e-05
-0.000384
-0.0001796
-0.002583
0.003628
-0.002726
0.0003309
-9.592e-06
-0.0002119
0.0002215
-0.0001098
0.0002574
0.2815
0.5861
-0.8675
-0.0004137
-0.0001529
-0.0004498
0.0007183
-0.0002685
0.000104
-0.0001053
1.296e-06
-0.0001188
-0.0004682
-0.01446
0.01289
0.001568
-0.0007208
9.877e-05
3.829e-05
0.0001372
1.026
-0.745
4.29e-05
-0.0003888
-0.0001537
-0.0002083
9.08e-05
-8.247e-06
-8.255e-05
1.625e-07
-5.845e-07
7.883e-06
8.292e-05
3.605e-05
4.856e-05
0.0004164
7.845e-05
-0.0004949
0.0002664
-0.0001722
-9.419e-05
-0.004365
0.001152
0.003213
0.1727
1.023
9.025e-09
-9.023e-09
0.0001484
0.0002114
-0.0003597
0.0001351
-0.0002821
7.219e-05
-6.554e-05
-6.641e-06
-0.0001331
0.0003171
-0.000184
3.052e-05
-0.0001842
0.0001537
-0.0003648
6.116e-05
0.0003036
-0.0005024
0.0004328
0.5586
0.8407
4.75e-05
0.0003312
-0.0003787
-0.004295
0.001225
0.00307
-1.502
0.3785
-0.0002138
0.000374
-0.0001602
0.0001954
0.0005677
0.002035
-0.0007743
0.0008531
0.0002938
-0.001147
0.1375
-1.018
0.8804
0.0001129
-0.0005795
0.0001004
-2.162e-05
-7.873e-05
-0.2754
-0.7151
0.8526
0.006417
0.002169
-0.0008397
0.001027
-0.0001875
0.000387
0.0003698
-0.0001948
-8.058e-06
0.0002029
-0.0005786
0.0004922
8.64e-05
5.626e-06
-4.758e-07
-5.15e-06
-0.00397
0.0009923
0.002978
-0.003904
0.005066
-0.001162
-0.799
-0.269
-0.0005017
0.0001356
0.0003661
-0.0003909
0.0001843
0.0002066
0.0003879
-0.0003204
-6.746e-05
9.565e-05
-0.0001849
0.001746
-0.001701
1.085
0.08555
-1.17
0.2754
-0.2125
0.07549
-0.1324
0.05687
-1.158e-05
2.878e-06
8.702e-06
0.04502
-0.844
0.03369
-0.01981
-0.01387
-0.0001052
0.0002202
-0.000115
-0.0008756
-0.001061
0.001936
0.0001337
5.882e-05
-0.0001926
-0.2164
0.8474
-0.6311
-0.0001964
0.0001359
6.051e-05
-0.0003978
0.002255
-0.001857
-0.2394
-0.01665
0.2561
0.0002496
0.000245
0.6908
0.4731
-1.164
-0.0003602
-0.00023
0.0005902
2.48e-05
6.293e-06
-3.11e-05
0.0002909
-0.0001487
-0.0001421
-0.0001688
-8.535e-05
0.0002542
2.248e-05
1.434e-05
-3.682e-05
0.1841
-0.04885
-0.1353
0.0001543
0.0001263
-0.0002806
-0.008753
0.008655
9.822e-05
-0.0002238
-6.277e-05
-4.621e-06
9.266e-06
-4.645e-06
-0.0002136
-0.0002015
0.0004151
0.0003237
0.0001026
-0.0004263
-0.007421
-0.007041
0.005143
-0.005728
0.0005851
0.001767
-0.0003803
-0.001386
7.034e-05
-7.034e-05
-0.3407
0.1968
0.1439
-0.001158
0.002312
-0.001154
0.0007672
-0.0004894
-0.0002777
-2.414e-06
1.007e-05
-7.662e-06
1.041e-05
7.678e-06
0.0001252
-0.0001132
-1.197e-05
-0.1174
1.202
0.04605
-0.02695
-0.01911
-6.664e-05
-2.858e-05
-0.0002136
1.139e-05
0.0002022
-6.72e-06
9.535e-06
-2.815e-06
-4.48e-05
0.0001413
-9.646e-05
8.228e-07
-8.228e-07
3.808e-05
-3.69e-05
-1.185e-06
7.485e-06
-7.485e-06
-0.0005932
0.0002053
0.000388
5.029e-05
3.093e-05
-8.122e-05
0.0002603
-0.0002128
4.246e-05
-3.001e-05
-1.244e-05
0.09862
-0.07351
-0.02511
0.00183
-0.001387
-0.0004432
1.093
-1.517
0.4243
1.317
-1.739
0.4224
-0.0001081
-0.0003542
0.0004623
-0.04356
0.09343
-0.04987
0.0002382
-1.959e-05
-0.0002186
-0.003897
0.001886
0.002011
-0.001245
7.232e-05
-0.007497
0.008484
-0.0009867
0.04551
-0.1013
0.05574
-0.000653
2.157e-06
0.0006509
0.0006378
0.0009635
-0.001601
0.2527
-0.00664
-0.00152
0.001491
2.934e-05
0.0002498
-0.0004281
0.0001783
0.09358
-0.04807
0.0002454
-0.0001252
-0.0001202
1.944e-05
-1.944e-05
-0.0001425
3.556e-05
0.000107
0.0008763
-0.002772
0.001896
1.52e-05
-3.97e-05
2.45e-05
-0.0001964
0.0003595
-0.0001631
-0.0001945
0.0001848
9.695e-06
-0.3372
0.1225
0.2146
0.000265
-1.236e-05
-0.0005093
-0.0005465
-0.05066
0.3509
0.0002564
-0.0001901
0.0005092
-4.616e-05
-0.0004631
0.0004075
-0.0008559
0.0004484
-0.4767
-0.5488
1.025
0.2193
-0.0003781
-0.2189
0.003515
-0.002106
-0.001409
1.538e-06
7.102e-07
-2.248e-06
9.774e-05
-0.002036
0.001939
-1.928e-05
1.928e-05
0.0007922
-0.0004086
-0.0003836
0.0006851
-0.0001894
-0.0004957
-0.00191
0.001754
0.0001565
6.154e-06
3.864e-06
-1.002e-05
0.0001513
4.181e-05
-0.0001931
-0.4113
1.371
-0.9599
-0.00014
0.000194
-5.404e-05
0.005554
-7.17e-05
-0.005483
-0.3005
1.333
-1.033
-0.000588
-0.0007479
0.001336
1.748e-09
1.113e-08
-1.287e-08
0.000926
0.001307
-0.002233
8.137e-05
-3.107e-05
-5.031e-05
0.006525
-0.003695
-0.00283
0.001176
0.003046
-0.004222
-1.548e-06
-2.755e-06
4.303e-06
2.517e-05
-2.517e-05
0.0005536
0.000244
-0.0007976
-0.08826
-0.05423
-0.4601
0.2228
0.2372
0.002781
-0.001053
-0.001728
-0.00128
0.0009597
0.0003206
-0.0001018
-0.0001811
0.0002829
0.0003304
-0.0001843
-0.0001461
-0.0005938
-0.0002181
0.0008119
0.0002949
-0.0001392
-0.0001558
-0.002481
0.002214
0.0002672
-0.009567
0.01802
-0.008449
0.0001175
0.0001775
-0.03346
-0.01459
0.04804
3.645e-05
1.966e-06
-3.841e-05
0.1367
-0.5761
0.4394
-0.0002465
-0.0003114
0.0005579
4.066e-07
6.744e-06
-7.15e-06
0.0005025
-0.0006369
0.0001345
-0.0004773
0.0003884
8.897e-05
0.0006264
-0.0003063
-0.0003201
-0.3821
0.09772
0.2844
-0.1881
0.05482
0.1332
5.552e-05
-9.351e-05
3.799e-05
0.0076
-0.008513
0.0009134
-0.0001213
0.0002324
-0.000111
0.0004427
-0.0007552
0.0003125
8.137e-05
-0.0001542
7.284e-05
-0.0004983
0.0004776
2.07e-05
0.0001261
-6.1e-05
-6.512e-05
0.0001679
-0.0001156
-5.226e-05
-2.775e-05
0.000156
-0.0001282
8.703e-05
-8.703e-05
-7.097e-06
-0.0001652
0.0001723
-3.621e-05
0.0002571
-0.0002209
-0.0003226
0.0002645
5.804e-05
-0.002725
0.004087
-0.001363
-0.0003525
0.0007048
-0.0003523
0.0001372
0.00073
0.000247
-0.0002604
1.34e-05
-1.403e-06
-3.546e-06
4.949e-06
7.432e-07
-3.719e-07
-3.712e-07
0.0007647
-0.0003573
-0.0004074
-0.3201
0.4215
0.5909
0.2168
-0.8076
0.0004221
-0.0005866
0.0001645
-7.892e-05
-0.0002559
0.0003348
0.004692
-0.0008952
-0.003797
-0.1888
1.181
-0.9924
0.0002335
0.0005745
-0.000808
0.0006257
5.939e-05
-0.002438
-0.005618
0.008055
-0.0001031
-6.418e-05
0.0001673
0.0002898
-0.0001587
-0.0001311
4.961e-05
-0.0002199
0.0001703
0.002861
-0.003277
0.0004159
0.7871
-0.6763
-0.008129
0.002669
0.00546
0.01193
0.0005898
-0.01252
0.0001278
-1.531e-05
-0.0001124
4.623e-05
7.675e-05
-0.000123
0.0001529
-0.000115
-3.785e-05
-0.004181
0.001726
0.002455
0.0003458
-0.002667
0.002321
-8.919e-05
0.000221
-0.0001318
-0.0006223
0.0009354
-0.0003131
-0.00222
-0.001509
0.003729
-0.001017
0.0004136
0.0006037
-0.0006479
-0.0001317
0.0007797
0.001758
-0.001438
-0.0003196
-0.0003935
0.0003296
6.389e-05
0.0002366
-0.00017
-6.661e-05
0.2597
-0.3217
0.06206
6.012e-05
-3.453e-05
-2.559e-05
1.141e-06
4.649e-06
-5.79e-06
-0.0006305
0.0001807
4.839e-06
-0.0003475
0.0003427
1.934e-05
1.049e-05
0.02108
-0.1184
0.09731
5.755e-05
-5.755e-05
-9.179e-05
9.179e-05
-0.1664
-1.047
1.213
1.258
0.2308
-1.489
0.0003033
-0.0001918
-0.0001114
-0.0001271
0.0007707
-0.0006436
1.211e-07
-1.521e-07
3.105e-08
-3.129e-06
-9.225e-06
1.235e-05
-0.0002024
0.002032
-0.0004482
0.0005876
-0.0001393
-0.0002083
-2.191e-05
0.0002302
-0.001133
-0.004008
0.005141
0.003475
0.005063
-0.008538
-0.1882
0.06167
0.1265
-0.0002316
0.0001511
8.042e-05
3.976e-05
0.0005429
-0.0005826
0.0001496
-0.0003174
0.0001677
-0.004498
0.001014
0.003484
2.947e-06
-5.1e-06
2.153e-06
-0.0003308
0.0004457
-0.0001149
0.8161
-1.147
0.3309
-0.000109
0.000109
-0.0002035
0.0001289
7.453e-05
0.1661
0.5624
-0.7284
-0.0002521
2.355e-05
-1.286
1.12
0.2416
-0.4253
0.1837
-0.003085
0.002135
0.0009501
-0.011
-0.001976
0.01297
-1.148e-05
7.179e-06
4.296e-06
0.7797
-0.945
0.1653
0.0005395
-0.0002834
-0.0002561
0.4767
-0.1365
-0.3402
0.0005393
-0.0009402
0.0004008
-0.01642
0.005521
0.0109
0.00183
-0.001689
-0.000141
0.006023
-0.003164
-0.002859
-0.0001296
-0.0005368
0.0006663
-0.00057
-0.0002322
0.0008022
-0.000186
-6.129e-05
0.0002473
0.001825
0.0003798
-0.002204
0.1506
0.6492
-0.7998
0.00962
0.06091
-0.07053
0.0006837
-0.0003838
-0.0002999
-0.0001616
-0.0008271
0.0009887
-6.995e-05
0.0002274
-0.0001574
-0.0002779
0.000162
0.0001159
4.978e-05
-2.981e-05
-1.998e-05
0.0001567
4.175e-05
-0.0001985
4.006e-05
-4.005e-05
0.0001767
-0.0003145
0.001094
-0.0007926
-0.0003014
3.705e-05
-9.175e-05
5.47e-05
-0.000713
0.0004588
0.0002542
0.0001134
5.364e-05
-0.000167
0.005852
-0.006501
0.0006495
-0.0001502
0.0001015
4.87e-05
0.4954
-0.3666
-0.1287
0.0003182
-0.0003463
2.808e-05
1.699e-05
-4.048e-05
2.35e-05
-0.0003185
2.344e-06
0.0003162
0.4961
-1.095
0.5984
-0.0004061
0.0001489
0.0002572
-0.0009255
0.0004854
0.0004401
-0.002314
0.0005974
0.001717
0.00145
-0.00065
-0.0007995
6.625e-05
-0.0002512
0.000185
0.001416
0.00653
-0.007947
-0.0001998
0.00023
-3.016e-05
0.0001717
0.0004517
-0.0006234
-0.001155
-0.001159
3.907e-05
7.495e-05
-0.000114
-0.0004575
-7.063e-05
0.0005281
-8.43e-06
3.809e-06
-1.18
0.5416
0.6386
0.002297
-0.004525
0.002228
0.0002804
-0.0001057
-0.0001746
0.1284
0.05652
-0.1849
0.0003292
-9.626e-05
-0.0002329
-8.782e-05
-2.386e-05
0.0001117
-1.245
1.245
0.001491
0.00223
-0.003721
2.896e-05
-4.308e-05
1.412e-05
0.06713
-0.05165
-0.01548
0.006664
-0.0008118
0.0002591
-0.0001539
-0.0001052
4.185e-05
-1.979e-05
-2.205e-05
0.01194
-0.009273
-0.00267
-1.271
0.5242
0.7464
-0.0002548
0.000415
-0.0001602
0.0001273
-0.0003141
0.0001868
0.4041
-0.2567
-0.1474
-0.008628
0.006292
0.002335
0.00158
-0.03215
0.03057
0.0005015
0.0002116
-0.0007131
0.0002523
9.348e-05
-0.0003458
-0.001497
-0.0007308
0.002228
-0.05339
-0.05545
0.1088
7.004e-07
8.565e-06
-9.265e-06
4.572e-08
1.603e-06
-1.649e-06
0.0001875
0.0005642
0.0003413
-0.001177
0.0008354
0.0005504
-0.0008919
0.0003415
2.873e-05
1.372e-05
-0.393
1.241
-0.8485
0.0002345
-0.001151
0.0009164
0.3508
-0.007474
-0.3433
-0.0003172
0.0004521
-0.0001349
-0.0008937
0.0008541
3.956e-05
-0.0001807
-0.0002125
0.0003932
0.0004029
0.001047
2.018e-06
7.957e-07
-2.813e-06
-6.281e-05
6.814e-05
-5.334e-06
-0.5586
0.2191
0.3396
-3.075e-06
3.075e-06
0.0001729
-0.0001289
-4.405e-05
-5.139e-05
0.0002092
-0.0001578
-0.001785
-0.000211
0.001996
-8.648e-05
0.0001401
0.0004447
0.0003646
-0.0008093
5.408e-05
-0.0003694
0.0003153
-0.0001981
0.0001638
3.425e-05
0.002057
-0.001427
-0.0006297
-0.008715
0.02441
-0.01569
5.478e-06
-5.478e-06
0.0002259
-0.0002843
5.832e-05
-0.0007467
0.000328
0.0004188
0.0002834
0.0001355
-0.0004189
0.001375
-0.001143
-0.0002319
0.0001659
0.0003221
-0.000488