/*--------------------------------*- C++ -*----------------------------------*\
  =========                 |
  \\      /  F ield         | OpenFOAM: The Open Source CFD Toolbox
   \\    /   O peration     | Website:  https://openfoam.org
    \\  /    A nd           | Version:  8
     \\/     M anipulation  |
\*---------------------------------------------------------------------------*/
FoamFile
{
    version     2.0;
    format      ascii;
    class       volVectorField;
    location    "50";
    object      U;
}
// * * * * * * * * * * * * * * * * * * * * * * * * * * * * * * * * * * * * * //

dimensions      [0 1 -1 0 0 0 0];

internalField   nonuniform List<vector> 
127143
(
(0.001951 -8.569e-05 0)
(-9.802e-05 -0.0004603 -5.144e-24)
(-7.233e-05 -0.0003549 9.363e-24)
(-9.343e-05 -0.0004251 -2.086e-27)
(-0.0002197 -7.873e-05 -1.697e-22)
(-7.9e-05 -0.0004345 6.187e-27)
(0.02036 0.01265 0)
(0.004519 0.002216 -2.507e-22)
(0.003549 0.001714 8.275e-22)
(-0.002713 -0.0001066 0)
(0.03483 0.04799 1.342e-21)
(0.0135 0.009018 9.997e-22)
(7.844e-05 -2.973e-05 -1.916e-24)
(-0.0001202 -0.0004725 0)
(0.0116 0.05647 1.637e-20)
(0.04413 -0.004072 0)
(-0.0002425 -0.001114 -1.52e-23)
(0.159 -0.09754 1.276e-20)
(-0.1548 0.008339 0)
(0.0542 0.009029 0)
(-0.2504 0.06512 8.79e-21)
(-0.004295 0.001416 0)
(0.9651 -0.1327 0)
(0.6194 -0.05961 0)
(-0.004257 0.001532 -1.811e-22)
(0.2318 -0.03578 0)
(-0.02183 0.0004167 2.085e-20)
(-0.02191 -0.0007581 -3.137e-22)
(0.2245 -0.1 0)
(0.5474 -0.09697 1.133e-20)
(0.5007 -0.02923 0)
(0.2253 -0.03319 -1.119e-21)
(-0.02295 -0.005353 3.239e-21)
(-0.1043 0.02718 -1.802e-20)
(0.8598 -0.05686 2.69e-20)
(-0.02348 -0.00489 -2.185e-24)
(-0.2334 0.07823 5.564e-21)
(0.1494 0.02824 -7.462e-21)
(0.734 -0.0661 -1.291e-21)
(0.2249 -0.01011 3.578e-25)
(-0.1553 0.006706 0)
(1.074 0.5098 -7.337e-21)
(1.057 0.4977 5.555e-21)
(0.000169 -6.102e-05 0)
(0.1392 -0.09019 -8.702e-21)
(-0.1083 0.02556 5.852e-21)
(0.2273 -0.1052 0)
(-0.2225 0.07159 -7.79e-22)
(0.7215 -0.1262 1.149e-22)
(0.699 -0.05582 -9.314e-22)
(0.05236 -0.003767 -1.661e-22)
(0.9656 -0.02579 5.696e-20)
(-0.177 0.052 0)
(1.245 0.1957 -1.251e-20)
(1.001 -0.001381 3.225e-20)
(0.5527 -0.1368 4.827e-22)
(1.001 -0.001374 -2.9e-20)
(1.079 -0.07626 0)
(1.012 -0.01116 -1.847e-20)
(1.243 0.1974 -2.426e-20)
(0.4899 -0.0157 -7.752e-20)
(-0.1793 0.05397 -1.332e-21)
(1.057 -0.07316 3.846e-21)
(1.001 0.0005509 7.958e-20)
(-0.1042 0.009859 0)
(0.8426 -0.2147 -9.887e-21)
(1.116 0.1734 4.264e-20)
(1.02 -0.076 0)
(1.028 -0.07563 1.01e-21)
(0.9916 -3.91e-05 0)
(0.5578 -0.04154 0)
(-0.02361 0.0004791 -9.84e-21)
(-0.2083 -0.04619 -6.625e-21)
(1.012 -0.01101 -1.018e-20)
(1.005 0.003271 -3.521e-22)
(-0.02382 -0.0005459 9.837e-21)
(1.017 0.04286 -3.773e-20)
(-0.2468 0.0795 0)
(0.5718 -0.1475 -8.786e-22)
(1 0.0008596 0)
(0.2203 -0.09944 1.622e-23)
(0.06073 0.007622 3.823e-23)
(-0.1815 0.04323 7.948e-21)
(0.2758 -0.01922 0)
(-0.1717 -0.002208 1.293e-21)
(-0.2421 0.07819 0)
(0.8311 -0.08284 -2.293e-21)
(-0.02845 -0.002612 5.351e-21)
(0.8421 -0.2122 0)
(1.199 0.7614 0)
(0.994 -0.008456 0)
(1.253 0.00726 0)
(1.196 0.759 0)
(-0.2497 0.06473 -9.04e-21)
(-0.2737 0.05776 0)
(1.009 0.04374 4.749e-21)
(1.076 0.5027 1.621e-20)
(0.3639 -0.0272 0)
(-0.2464 0.07411 2.817e-21)
(1.111 0.174 0)
(1 0.0008334 0)
(0.7492 -0.134 0)
(0.9294 0.878 -1.393e-21)
(1.05 -0.1158 0)
(-0.2408 0.07762 -1.467e-21)
(-0.2478 0.07466 4.031e-21)
(0.975 -0.151 -1.192e-21)
(0.9909 1.789e-05 0)
(0.6634 -0.238 0)
(1.002 -0.00102 4.593e-20)
(0.02073 0.05248 -5.338e-21)
(-0.02819 -0.001975 1.027e-20)
(-0.2657 0.06326 -9.282e-21)
(0.2615 0.5917 0)
(0.9966 0.01281 1.296e-20)
(1.001 -0.1563 -1.491e-22)
(0.9931 0.0493 -4.439e-21)
(1.005 0.003427 -4.709e-20)
(1.017 0.04169 2.986e-20)
(-0.001082 -0.004541 0)
(1.002 -0.001086 -6.425e-20)
(-0.1919 0.05075 -2.339e-21)
(0.7708 -0.2731 0)
(1.059 -0.08335 1.078e-20)
(0.2328 -0.1036 8.143e-22)
(0.1611 -0.02143 -4.892e-21)
(-0.2123 0.06211 0)
(1.042 0.002993 1.276e-19)
(-0.184 0.02635 -2.732e-21)
(0.5501 -0.1593 -1.014e-21)
(-0.2714 0.08141 0)
(-0.2797 0.06631 -6.696e-21)
(1.087 -0.09328 -8.197e-21)
(-0.2463 0.07934 0)
(-0.0003615 -0.001972 -8.354e-23)
(-0.2709 0.08106 -2.799e-21)
(1.087 -0.06435 0)
(-0.2265 0.0593 2.253e-21)
(0.2586 -0.1463 -6.585e-21)
(1.127 -0.02095 1.101e-20)
(0.9328 -0.1593 1.29e-20)
(0.9885 0.03567 4.041e-20)
(-0.1521 0.03353 3.675e-22)
(-0.1503 0.04479 -6.721e-21)
(-0.1731 0.05172 -1.234e-21)
(1.21 0.5478 4.464e-21)
(-0.06338 0.3453 1.595e-21)
(1.001 0.0004789 -7.204e-20)
(-0.2789 0.06628 5.83e-21)
(0.8115 0.709 -7.63e-22)
(1.061 -0.1094 -2.776e-21)
(0.781 -0.1552 0)
(0.3197 0.03922 2.767e-20)
(0.8199 -0.1163 0)
(0.2578 -0.1426 0)
(-0.1735 -0.001936 0)
(1.08 -0.07537 -4.191e-21)
(0.5191 -0.1801 0)
(-0.2219 0.07123 -1.46e-21)
(0.3212 -0.02882 1.489e-21)
(0.6047 -0.03771 0)
(0.05978 -0.03038 8.614e-21)
(0.9941 -0.008423 6.593e-22)
(-0.2709 0.08141 -7.16e-21)
(0.3415 -0.09114 0)
(-0.1175 0.01204 1.517e-20)
(-0.2394 0.07999 -3.703e-21)
(0.6532 -0.1977 2.186e-20)
(-0.01801 0.004908 -1.101e-20)
(0.9416 0.06316 -6.449e-21)
(-0.05698 0.01821 0)
(-0.1515 0.04573 3.135e-21)
(0.9911 -0.1658 -2.36e-22)
(0.8701 -0.2421 -3.402e-21)
(0.9797 -0.001244 3.329e-20)
(-0.1063 0.009597 3.702e-23)
(1.187 0.5849 -8.657e-22)
(-0.1847 0.02722 -2.656e-21)
(0.6881 -0.06939 0)
(1.009 -0.02234 6.858e-21)
(0.8691 -0.2424 -1.145e-21)
(0.9966 -0.004055 0)
(-0.08848 -0.007106 5.336e-22)
(-0.1061 0.008605 -3.742e-23)
(0.5622 -0.1657 2.152e-21)
(-0.1763 0.05287 2.398e-21)
(1.031 0.3409 -7.064e-21)
(0.2784 0.6087 -4.604e-21)
(0.648 -0.06323 -2.808e-21)
(1.028 -0.03323 4.76e-20)
(-0.233 0.04335 7.806e-22)
(-0.2522 0.0471 -7.052e-21)
(1.086 -0.06325 7.429e-20)
(0.4087 0.9658 3.151e-22)
(-0.0002215 -0.002074 1.393e-22)
(-0.2141 0.0606 0)
(1.004 -1.758e-06 0)
(0.9974 -3.22e-06 4.882e-22)
(0.02204 0.008138 0)
(0.9914 0.01856 4.34e-21)
(1.014 0.008022 4.113e-20)
(0.9263 0.01892 1.149e-19)
(0.9927 -0.04676 8.987e-21)
(-0.233 0.07784 -2.616e-21)
(-0.0001638 -0.0008876 2.039e-24)
(0.9497 -0.05826 4.433e-21)
(0.9942 -0.08695 8.686e-22)
(0.9923 -0.1698 1.03e-22)
(0.6622 -0.1184 -1.144e-20)
(0.9965 0.01243 -6.606e-21)
(1.196 -0.07897 2.242e-20)
(-0.1554 0.00326 8.03e-22)
(0.991 -0.003439 1.46e-20)
(-0.01113 0.007857 -1.189e-20)
(-0.2712 0.08106 -1.439e-24)
(0.03352 0.001514 0)
(-0.0482 0.01661 -1.412e-21)
(0.9752 -0.1835 1.239e-22)
(-0.2778 0.07212 -7.814e-21)
(0.9957 -0.08588 1.002e-22)
(1.179 0.5798 -1.794e-21)
(1.002 0.006074 6.831e-21)
(0.7695 -0.1501 -1.738e-23)
(-0.1446 0.0547 1.298e-21)
(0.2981 -0.0276 0)
(-0.07185 0.0247 0)
(0.4209 -0.1086 -1.117e-21)
(0.1861 0.03208 8.431e-21)
(-0.143 0.04963 3.432e-21)
(-0.2291 0.06867 4.133e-21)
(-0.254 0.06505 5.566e-21)
(0.9974 -0.004512 4.684e-21)
(-0.2109 -0.04576 1.316e-20)
(-0.0004298 -0.009156 0)
(-0.2533 0.065 0)
(1.049 -0.0698 1.024e-20)
(-0.2711 0.08132 3.457e-21)
(0.005079 -0.0007822 8.698e-23)
(1.014 0.007777 -3.83e-20)
(-0.2168 0.03699 3.749e-21)
(-0.2516 0.04743 6.04e-21)
(-0.1323 0.01028 -2.149e-20)
(-0.1798 0.04683 -3.961e-22)
(0.538 -0.1882 1.178e-24)
(0.1135 0.05094 0)
(-0.0008795 -0.004693 2.459e-26)
(0.8867 -0.1768 1.426e-22)
(-0.02271 0.0004319 0)
(-0.01022 0.002825 2.179e-21)
(1 -8.363e-05 -1.452e-21)
(1.19 0.4697 -1.909e-20)
(0.2288 -0.02528 4.301e-21)
(0.9346 -0.2117 0)
(-0.2155 0.05442 0)
(0.7009 -0.169 9.36e-22)
(0.6813 -0.2429 0)
(1.041 0.002394 -9.996e-20)
(0.2485 0.1124 0)
(0.9104 -0.2198 0)
(0.868 0.254 1.123e-20)
(-0.2101 0.05985 -4.287e-21)
(0.9994 -0.01463 -1.265e-21)
(1.276 0.01221 1.648e-22)
(0.9877 0.03466 -3.316e-20)
(-0.05925 0.04032 0)
(-0.1237 0.01036 -7.289e-21)
(-0.2224 0.07114 1.035e-20)
(0.2289 -0.1408 0)
(0.5291 -0.1386 5.231e-20)
(1.148 0.21 -7.88e-21)
(0.3774 -0.06902 0)
(0.9763 -0.001865 -4.005e-20)
(-0.2137 0.06661 -1.165e-21)
(-0.2189 0.03697 -3.945e-21)
(1.113 -0.07105 6.658e-21)
(-0.2293 0.04304 -3.728e-21)
(-0.2649 0.06319 0)
(0.807 -0.1279 1.565e-21)
(0.9613 -0.003484 -1.322e-21)
(0.8573 -0.2396 3.364e-21)
(1.002 -0.000586 8.725e-22)
(1.005 0.0466 1.788e-21)
(1.05 -0.1154 -7.774e-24)
(0.994 0.004937 0)
(1.004 0.01245 8.85e-21)
(-0.0009029 -0.002183 -2.018e-23)
(-0.2818 0.08001 0)
(0.997 0.01385 6.663e-21)
(0.7669 -0.1091 1.475e-21)
(1.008 -0.02235 9.334e-21)
(0.3623 0.03423 -3.538e-20)
(0.9529 -0.1682 0)
(1.047 -0.07065 -1.003e-20)
(0.9741 -0.1797 0)
(0.9925 -0.006721 -1.087e-20)
(0.6486 -0.2504 -5.888e-22)
(0.4735 -0.03586 2.577e-21)
(-0.01892 -0.01801 -6.779e-22)
(-0.1802 0.04723 1.529e-21)
(1.199 0.216 5.282e-21)
(0.3679 -0.04336 -1.182e-21)
(0.8926 -0.2013 -1.408e-21)
(0.7622 -0.2009 -1.37e-20)
(1 -0.1559 1.425e-21)
(0.284 -0.02038 0)
(0.4469 -0.2339 5.138e-23)
(0.9925 -0.1694 3.589e-23)
(0.9907 -0.003509 0)
(-0.0441 0.02354 -5.408e-24)
(1.066 -0.1094 -3.311e-21)
(0.9552 -0.1464 -1.601e-21)
(-0.005294 -0.02514 -2.372e-22)
(0.5243 -0.1254 0)
(1.002 -0.0007048 1.196e-21)
(0.9908 0.006302 -2.395e-20)
(1.215 0.6049 7.905e-22)
(0.02372 0.03387 3.386e-21)
(0.3489 -0.03937 3.207e-21)
(1.259 0.0442 3.369e-20)
(0.9366 -0.01767 -3.682e-22)
(0.964 -0.1316 0)
(0.536 -0.03656 -4.514e-21)
(1.076 0.009147 2.871e-20)
(0.9352 -0.2115 5.386e-22)
(1.208 0.5988 0)
(-0.01135 0.02827 -6.349e-21)
(0.9018 -0.02485 5.556e-20)
(0.01952 -0.009726 -5.784e-24)
(0.5818 -0.02034 2.136e-21)
(1.158 0.6252 7.06e-21)
(-0.2049 0.06315 0)
(1.005 0.01227 -8.45e-21)
(0.865 -0.05855 -1.031e-19)
(1.004 6.228e-06 0)
(0.9973 -1.046e-06 0)
(0.8199 -0.1125 0)
(0.6752 -0.2402 -3.856e-21)
(0.9906 -0.1659 -2.045e-22)
(-0.2049 0.06338 -1.595e-21)
(-0.2835 0.07914 -2.324e-20)
(1.123 -0.02263 -4.924e-20)
(0.9756 -0.1832 0)
(-0.1527 0.04783 1.137e-21)
(-0.2242 0.04304 6.09e-22)
(0.1795 0.1903 -4.475e-22)
(0.7559 -0.1046 -9.473e-22)
(-0.2413 0.0585 -6.874e-21)
(-0.2661 0.05691 3.498e-21)
(0.4049 -0.0495 -1.853e-21)
(-0.1708 0.0178 0)
(0.4305 -0.04718 1.463e-21)
(-0.07935 0.02436 6.24e-21)
(-0.1298 0.02749 -7.772e-22)
(-0.2274 0.04315 2.696e-21)
(0.92 0.06687 0)
(-0.2528 0.06329 -1.661e-20)
(-0.2172 0.05501 -3.335e-21)
(1.213 0.5245 -4.511e-21)
(1.004 -0.007946 7.554e-21)
(0.5634 -0.01936 0)
(-0.205 0.06044 -1.932e-21)
(1.075 -0.07407 1.135e-21)
(0.614 -0.1209 -3.164e-20)
(0.7212 -0.05174 0)
(0.7087 -0.05966 -2.572e-21)
(1.002 0.002843 3.359e-22)
(0.9916 0.01815 -1.311e-20)
(0.898 -0.004262 0)
(-0.1812 0.03371 5.228e-21)
(0.9617 -0.002728 0)
(0.3673 0.009904 7.134e-20)
(1.076 0.006487 -6.084e-20)
(0.2791 -0.03031 -3.616e-21)
(0.6892 -0.04992 3.673e-21)
(1.029 -0.03175 0)
(1.204 0.04445 -8.642e-22)
(0.5185 -0.04891 2.125e-21)
(0.005546 -0.009983 1.689e-26)
(-0.2376 0.07258 -7.28e-21)
(0.9694 -0.005848 4.221e-21)
(0.4251 -0.04298 -5.822e-20)
(0.1882 -0.02174 4.837e-21)
(0.4532 -0.05536 0)
(0.8904 -0.2034 -5.61e-21)
(0.9936 0.04752 0)
(0.09691 -0.007336 0)
(0.9651 0.1795 0)
(0.2384 -0.01164 0)
(-0.2179 0.06171 -1.211e-21)
(0.1353 0.01696 -2.899e-20)
(1.013 -0.008779 -5.34e-20)
(0.7325 -0.1711 0)
(-0.1038 0.03522 2.861e-21)
(0.7022 -0.1797 1.038e-21)
(0.6459 -0.05734 4.39e-21)
(0.4749 -0.03122 3.276e-21)
(0.7369 -0.1735 -1.087e-20)
(0.5361 -0.03041 0)
(0.9183 0.06508 0)
(0.9987 -0.01479 0)
(0.2439 -0.02033 -1.437e-21)
(1.002 0.005774 -2.639e-21)
(-0.2408 0.0602 0)
(-0.0911 -0.006942 0)
(0.9712 0.1816 0)
(1.046 -0.1228 1.884e-21)
(-0.2383 0.07661 -7.677e-21)
(1.077 -0.09937 5.443e-21)
(1 0.0007882 -7.419e-20)
(0.7311 -0.07596 0)
(0.6602 -0.2719 0)
(0.4124 -0.05682 -1.619e-21)
(0.9341 -0.1583 -1.342e-20)
(-0.2202 0.07051 0)
(0.7703 -0.2713 0)
(-0.2732 0.05767 -5.069e-21)
(-0.2668 0.07581 -6.846e-21)
(0.3315 -0.06689 0)
(0.4268 0.05354 6.371e-21)
(0.6939 -0.2754 -1.807e-21)
(-0.2395 0.08002 0)
(-0.05263 0.01842 -5.552e-21)
(-0.2656 0.07801 0)
(1.003 0.0001154 8.759e-23)
(-0.2306 0.06932 -5.11e-21)
(0.9244 0.3003 -3.193e-21)
(1.053 0.4862 3.622e-22)
(0.903 -0.1452 -1.217e-20)
(-0.141 0.01256 2.245e-20)
(0.9749 -0.1063 -2.439e-21)
(1.004 -0.0002771 0)
(-0.2642 0.07846 0)
(-0.1279 0.0285 0)
(1.21 -0.1038 1.218e-19)
(0.3052 0.08048 1.395e-21)
(1.003 0.002775 -1.057e-20)
(1.015 -0.1507 1.507e-21)
(-0.2506 0.05749 -1.321e-20)
(0.9665 -0.0248 -2.142e-20)
(0.9923 -0.006499 0)
(0.997 -0.0003633 -5.678e-21)
(0.7347 -0.05961 1.335e-21)
(1.085 -0.06991 -2.561e-20)
(0.6749 -0.2459 6.782e-21)
(0.9615 0.04504 0)
(0.3844 -0.02779 -1.945e-22)
(0.9879 0.006078 5.657e-20)
(0.3559 -0.2257 0)
(0.8877 -0.006982 -1.97e-21)
(-0.1553 0.001681 7.86e-22)
(-0.2567 0.07148 0)
(0.5198 -0.06748 -2.298e-23)
(1.046 -0.1218 -5.457e-21)
(-0.1726 0.03078 3.203e-20)
(0.8576 0.1091 -2.345e-22)
(-0.225 0.07434 -8.349e-22)
(0.3508 -0.04156 -1.079e-21)
(-0.1466 0.01196 0)
(-0.2314 0.07649 0)
(0.7325 0.08595 5.882e-21)
(1.089 -0.09336 2.627e-21)
(-0.1461 0.03407 3.799e-21)
(-0.06654 0.03756 0)
(0.3273 0.5503 -1.894e-20)
(-0.1531 0.03426 2.607e-24)
(0.9925 -0.001324 0)
(1.008 0.0296 0)
(-0.2192 0.04865 0)
(-0.2281 0.06109 7.809e-21)
(0.9981 -0.0001966 0)
(-0.2391 0.07131 3.236e-21)
(1.291 0.04302 2.481e-20)
(1.06 -0.08192 -1.634e-20)
(0.04417 0.03239 -1.174e-21)
(0.9994 -0.07239 2.472e-22)
(1.004 -0.0001542 0)
(0.1952 -0.07042 -4.024e-20)
(1.288 0.04537 -2.501e-20)
(-0.1546 0.05371 -2.221e-21)
(-0.06977 0.04725 2.948e-22)
(0.2092 -0.1113 6.011e-22)
(0.3402 -0.2149 -3.928e-21)
(-0.253 0.04189 3.376e-21)
(0.5224 -0.1254 0)
(0.6623 -0.2652 0)
(0.3346 0.08221 -1.437e-21)
(-0.0008393 0.03609 -2.436e-22)
(1.012 0.001457 4.617e-20)
(0.3671 -0.03307 -2.515e-21)
(0.971 0.01767 4.304e-20)
(1.222 0.6133 2.558e-22)
(0.8682 -0.08669 1.989e-21)
(-0.1874 0.05259 0)
(1.215 0.5391 1.972e-21)
(-0.000274 -0.001484 0)
(-0.2696 0.08184 8.801e-21)
(0.2646 0.3806 7.874e-21)
(1.068 -0.02589 -2.904e-22)
(0.9969 0.7266 7.377e-21)
(0.9916 -0.0009889 -8.306e-20)
(0.2057 -0.1138 0)
(1.009 0.02959 3.808e-23)
(-0.1779 0.0503 0)
(-0.2093 0.05925 -4.526e-21)
(-0.0002119 -0.001207 0)
(0.000586 -0.003126 1.159e-22)
(0.0006492 -0.000268 -3.864e-23)
(1 -0.0002698 -3.973e-20)
(-0.2559 0.06437 0)
(-0.0211 0.022 0)
(0.9911 0.006387 4.616e-20)
(-0.2014 0.06157 2.932e-21)
(0.7694 -0.2744 6.992e-21)
(-0.2548 0.08132 7.526e-21)
(1.021 -0.1416 0)
(-0.2585 0.07198 0)
(0.5109 -0.06283 -1.279e-21)
(-0.239 0.07091 -3.302e-21)
(-0.0662 0.012 1.984e-21)
(0.9974 -0.0009664 0)
(-0.1344 -0.01028 -1.036e-21)
(-0.002862 0.0009952 0)
(0.6604 -0.2666 1.212e-21)
(0.3883 -0.0387 8.792e-22)
(-0.061 0.01896 1.152e-21)
(1.013 -0.01042 -1.627e-20)
(1.061 -0.1091 -3.031e-21)
(0.9946 -0.04745 -2.382e-21)
(-0.05001 0.03496 8.775e-21)
(0.9982 -0.007202 0)
(0.3277 -0.02448 0)
(0.3142 0.1615 0)
(-0.1237 0.04215 -4.23e-21)
(0.997 2.934e-05 0)
(-0.2198 0.04943 -2.651e-21)
(1.034 -0.09222 -6.585e-21)
(-0.02328 0.005363 -2.949e-26)
(0.6316 -0.2666 3.066e-21)
(0.03184 0.01705 2.129e-21)
(-0.03761 0.02822 -3.57e-21)
(0.9674 0.01021 2.925e-21)
(-0.2042 0.07017 -2.53e-21)
(0.7478 -0.2657 -3.9e-21)
(0.9981 -0.0001968 4.701e-21)
(0.8917 -0.203 7.503e-21)
(0.5184 0.05969 -3.581e-20)
(0.5147 -0.0427 -2.052e-21)
(0.737 -0.05058 1.941e-21)
(-0.216 0.05801 -8.248e-21)
(-0.1499 0.05053 1.777e-21)
(-0.2152 0.0608 2.187e-21)
(0.6833 0.13 0)
(0.7215 -0.2794 1.704e-21)
(-0.2484 0.08121 0)
(-0.2679 0.07953 2.356e-22)
(1.021 -0.004797 -8.378e-21)
(0.2626 -0.01246 5.146e-22)
(-0.2772 0.07933 -3.754e-21)
(0.3933 -0.06193 2.235e-21)
(1.055 -0.1118 -4.526e-21)
(-0.197 0.05621 1.604e-21)
(1 0.001608 0)
(0.9998 0.002072 1.246e-20)
(0.875 0.2444 -1.823e-20)
(-0.2358 0.05731 -3.427e-21)
(0.9803 0.7588 0)
(0.9897 0.007536 -3.191e-20)
(1.004 -9.374e-07 -5.942e-22)
(0.7595 -0.2576 0)
(0.5655 -0.2466 0)
(-0.2378 0.07695 2.49e-21)
(0.6609 -0.2656 0)
(-0.1238 0.04179 6.694e-21)
(-0.06213 0.02032 0)
(0.9433 -0.1982 -7.22e-22)
(1.015 0.03734 0)
(0.9997 -0.0005259 7.979e-21)
(-0.1352 0.04746 3.635e-21)
(-0.2504 0.07352 -2.569e-21)
(0.9362 -0.2135 1.407e-21)
(1.002 -0.001423 1.363e-20)
(-0.02523 0.0003392 4.82e-21)
(1.073 -0.1047 0)
(-0.2802 0.07711 8.783e-21)
(0.9703 -0.004783 8.509e-21)
(0.2671 -0.03308 2.377e-22)
(0.9895 0.007266 5.891e-20)
(-0.2363 0.07586 -1.245e-21)
(-0.09486 -0.01261 0)
(0.09647 0.02018 5.473e-22)
(0.9997 -9.542e-07 3.23e-22)
(-0.2114 0.06935 -1.123e-20)
(-0.2094 0.05912 -1.021e-21)
(0.0995 -0.05836 -1.008e-20)
(1.004 -0.0001411 -1.908e-21)
(0.9845 -0.1533 1.23e-21)
(-0.04889 0.01665 6.61e-22)
(0.997 -0.000482 0)
(1.046 -0.1229 0)
(0.9928 0.01292 -8.975e-22)
(0.8702 -0.05746 2.707e-21)
(-0.03641 0.02686 0)
(0.994 0.004687 3.229e-20)
(-0.2028 0.05057 1.881e-20)
(0.58 -0.07878 1.06e-21)
(-0.004817 -0.02675 0)
(-0.2585 0.04397 -6.911e-21)
(-0.1237 0.03218 -7.619e-22)
(0.4513 -0.04967 -4.387e-21)
(0.4665 -0.05665 -1.224e-21)
(0.165 0.03605 -4.818e-20)
(0.7627 -0.07128 -1.068e-21)
(1.189 0.7549 1.009e-21)
(0.7779 -0.0363 -2.295e-21)
(-0.1457 0.03893 -9.072e-22)
(-0.1268 0.04518 -1.476e-21)
(0.3189 -0.02898 1.135e-21)
(1.002 -0.001379 0)
(0.5542 -0.1164 -2.935e-22)
(0.9926 0.005601 -1.325e-20)
(0.1973 0.2074 -2.553e-20)
(1.046 0.02094 5.228e-20)
(-0.146 0.03326 5.246e-21)
(1.004 -0.0003278 0)
(0.9966 0.01368 1.841e-20)
(1.083 -0.07536 2.028e-20)
(0.697 -0.2772 9.209e-22)
(-0.2657 0.06774 4.187e-21)
(1.003 -0.0007151 1.18e-20)
(1.002 -0.001818 -1.827e-20)
(-0.1483 0.05085 -2.93e-21)
(-0.054 -0.007571 0)
(-0.2086 0.04929 8.35e-21)
(0.3816 -0.03136 -3.318e-21)
(-0.1928 0.03068 0)
(0.6746 -0.2449 -5.744e-21)
(-0.2562 0.07159 -5.723e-22)
(0.6599 -0.2729 0)
(-0.2217 0.04251 -8.443e-23)
(-0.2482 0.07407 -3.117e-20)
(-0.09545 0.007396 0)
(1.003 -0.0007547 -2.071e-21)
(-0.1551 0.01279 1.488e-20)
(-0.2151 0.03838 2.967e-22)
(0.9998 -0.1504 -3.231e-22)
(1.112 0.1132 0)
(0.9944 -0.008192 -3.39e-20)
(1.004 -5.32e-07 6.04e-23)
(0.01429 0.02901 -6.456e-21)
(0.2929 -0.1655 2.852e-24)
(-0.0009991 0.03687 1.221e-21)
(-0.02653 0.008262 1.18e-21)
(1.045 0.02205 0)
(1.004 -1.894e-05 1.588e-22)
(-0.2622 0.08148 0)
(-0.1799 0.0204 0)
(0.9296 0.01872 -9.138e-20)
(-0.124 0.01895 -7.483e-21)
(1 -0.1269 0)
(0.9859 -0.004982 -3.513e-20)
(-0.2063 0.06302 1.045e-20)
(0.9269 -0.2116 -5.435e-22)
(-0.2108 0.03803 1.906e-21)
(0.8151 -0.1423 -4.2e-20)
(0.0001398 -4.982e-05 0)
(-0.07553 0.02543 0)
(-0.2313 0.07631 -7.236e-22)
(-0.2252 0.07439 1.556e-21)
(-0.2817 0.07997 0)
(-0.2647 0.04356 6.647e-21)
(0.3052 -0.04319 -5.511e-22)
(-0.2506 0.04137 0)
(0.9597 -0.01698 -1.216e-20)
(-0.1947 0.03622 1.039e-20)
(-0.04442 -0.007237 0)
(-0.239 0.06002 -4.646e-21)
(1.001 -0.001332 4.203e-20)
(0.8356 -0.1299 -1.103e-21)
(0.8238 -0.2061 0)
(0.5382 0.06072 -3.545e-20)
(0.997 8.934e-06 2.199e-23)
(1.001 -0.001376 -5.601e-20)
(0.0004499 -0.0125 0)
(1.068 -0.02366 -5.38e-21)
(0.6109 -0.1138 1.03e-22)
(-0.2605 0.04579 -3.887e-22)
(0.5053 -0.2686 0)
(-0.04642 0.0229 1.607e-20)
(1.253 0.2729 0)
(0.3366 -0.02859 1.476e-21)
(0.6691 0.03047 5.084e-20)
(0.7026 -0.1897 0)
(1.011 0.001224 -1.667e-20)
(1.003 -0.000805 0)
(1.188 0.4911 0)
(0.9343 0.3023 0)
(-0.1969 0.03833 1.199e-21)
(0.5447 0.04741 0)
(0.4073 -0.1675 3.74e-21)
(-0.1945 0.04834 0)
(0.6374 -0.2622 -3.04e-21)
(1.192 -0.07759 1.428e-19)
(0.6707 -0.1247 4.618e-20)
(1.001 3.507e-05 -5.991e-23)
(0.4276 -0.02775 -1.024e-21)
(1.001 -0.07174 -6.344e-23)
(0.666 -0.1553 -4.841e-22)
(-0.0005253 -0.002448 1.971e-23)
(1.012 -0.1543 4.277e-22)
(-0.03968 0.04293 -1.046e-20)
(-0.2358 0.0718 7.373e-21)
(0.9998 1.02e-05 -3.083e-22)
(1.033 -0.1103 8.015e-23)
(0.6942 -0.05962 -2.948e-21)
(-0.0413 0.01419 0)
(-0.02853 -0.03582 8.632e-21)
(-0.133 0.04505 4.949e-21)
(-0.2215 0.04229 -1.28e-21)
(0.8781 0.7579 0)
(-0.2671 0.07604 6.58e-21)
(0.5323 -0.2788 5.328e-21)
(-0.1614 0.04351 -1.736e-21)
(0.7483 -0.1833 2.247e-22)
(1.004 -0.1071 2.278e-21)
(1.065 -0.1093 1.561e-21)
(-0.2102 0.06127 3.584e-21)
(0.9752 -0.1599 1.001e-21)
(0.002604 -0.0001556 0)
(0.821 -0.2071 0)
(0.9415 0.05901 3.252e-20)
(0.9224 -0.2074 -3.154e-22)
(0.6814 -0.2843 5.049e-21)
(0.8772 -0.09092 -5.938e-22)
(1.006 -0.001126 0)
(-0.06964 -0.006117 -4.1e-22)
(-0.0719 0.02359 -1.256e-20)
(-0.2372 0.07681 -2.311e-21)
(1.004 -1.137e-05 -1.937e-22)
(-0.02597 0.00961 0)
(-0.2698 0.07997 0)
(0.2696 -0.0367 4.177e-21)
(1.001 3.316e-05 4.003e-22)
(-0.2441 0.04084 8.965e-21)
(-0.1729 0.05242 0)
(-0.2551 0.04992 1.241e-20)
(-0.2195 0.03738 -6.543e-21)
(1.001 -1.349e-05 -3.43e-22)
(-0.2299 0.07332 -4.033e-21)
(-0.03607 0.006144 0)
(-0.2069 0.05733 1.429e-20)
(-0.2181 0.05416 0)
(0.9901 0.01991 -5.041e-21)
(-0.1503 0.04834 1.039e-21)
(0.02249 0.1998 0)
(1.022 0.001137 -1.718e-20)
(0.9836 -0.1769 -1.398e-22)
(0.9535 -0.1861 0)
(-0.2643 0.04358 -6.453e-21)
(-0.2694 0.08185 0)
(0.893 -0.1998 -4.515e-21)
(1.011 -0.1545 0)
(0.1998 -0.02354 6.697e-22)
(-0.2334 0.07335 0)
(0.9976 -8.259e-06 -5.054e-22)
(-0.2302 0.07348 3.821e-21)
(-0.1843 0.05755 6.057e-22)
(0.232 -0.01886 0)
(0.4481 -0.06472 1.255e-21)
(1.252 0.1869 0)
(-0.2004 0.06105 0)
(-0.1575 0.05303 4.5e-22)
(0.9973 1.861e-05 1.323e-22)
(-0.2544 0.08112 -7.077e-21)
(-0.2068 0.06287 0)
(-0.08031 0.03933 0)
(5.142e-05 -0.01067 -2.197e-23)
(-0.07309 0.04062 -1.086e-21)
(-0.1254 0.0431 6.546e-21)
(-0.2506 0.05492 -9.698e-22)
(-0.1702 0.03789 0)
(0.9357 -0.204 0)
(1 -0.0002692 1.951e-20)
(-0.0001422 5.258e-05 -1.461e-23)
(-0.2765 0.08038 8.794e-21)
(-0.2564 0.04341 6.116e-21)
(-0.1065 0.038 2.202e-21)
(-0.2314 0.07577 -4.904e-21)
(-0.2194 0.07447 9.454e-21)
(-0.2535 0.08082 -3.288e-21)
(0.5973 -0.04612 0)
(0.9996 -0.0004893 0)
(-0.06202 0.009017 0)
(1.043 -0.122 -1.383e-23)
(1.001 2.196e-06 0)
(-0.2519 0.07829 -1.189e-20)
(1.221 0.6121 0)
(0.9686 -0.1473 1.122e-21)
(0.7847 -0.2698 -2.111e-21)
(1.005 -8.093e-05 -7.756e-21)
(-0.254 0.07083 0)
(-0.1076 0.0134 0)
(1.012 0.001529 -5.389e-20)
(1.005 -9.007e-05 0)
(1.084 0.1075 0)
(-0.1823 0.05551 4.93e-21)
(-0.1928 0.03159 -1.97e-21)
(-0.2159 0.07375 4.173e-21)
(-0.2354 0.07583 3.468e-21)
(0.05914 -0.001036 1.988e-23)
(1.035 -0.1307 0)
(0.6717 -0.1255 -3.028e-20)
(1.001 -0.001397 0)
(-0.2529 0.07774 -3.658e-21)
(-0.2369 0.0793 0)
(0.5123 -0.03125 -2.414e-21)
(0.3157 -0.02585 0)
(0.6559 -0.1956 -2.061e-20)
(1.003 -0.0004481 0)
(1.013 -0.009976 2.225e-21)
(0.9907 -0.01169 3.046e-20)
(-0.02285 -0.0001194 5.123e-21)
(1.001 -0.001316 7.379e-21)
(1.174 -0.08724 -5.214e-20)
(0.3181 -0.1918 1.161e-21)
(1.02 -0.1282 2.947e-21)
(0.224 -0.03441 -2.177e-21)
(1.001 -0.001698 0)
(-0.1337 0.005328 -1.208e-21)
(1.022 -0.1222 -1.887e-21)
(1.002 0.007356 0)
(0.4115 -0.05003 1.81e-21)
(0.9984 -0.0002353 0)
(0.5778 -0.2821 7.478e-21)
(-0.0408 0.08236 -5.868e-21)
(-0.2565 0.04412 -1.404e-22)
(0.1157 0.05714 0)
(0.1854 -0.008573 6.355e-22)
(0.9936 -0.008436 1.475e-21)
(-0.2089 0.05639 0)
(0.8063 -0.1514 -1.096e-20)
(0.3358 -0.02625 0)
(-0.02976 -0.009486 -1.081e-21)
(0.3191 -0.0405 8.185e-22)
(0.6741 0.9409 -2.181e-21)
(1.25 0.1895 -1.133e-20)
(0.9764 -0.1686 -3.973e-22)
(0.7221 -0.2373 5.491e-23)
(0.06277 -0.005761 0)
(1 0.009029 0)
(0.3615 0.02593 2.271e-20)
(0.608 -0.1962 0)
(0.01492 0.0182 1.391e-21)
(-0.04411 -0.006546 2.929e-22)
(0.13 -0.02702 0)
(1.003 -0.0004186 0)
(1.07 -0.1272 3.198e-20)
(-0.1338 0.04639 -1.773e-21)
(0.2375 -0.05421 -2.583e-21)
(-0.0177 0.0004103 2.098e-20)
(0.1017 0.04813 0)
(0.002144 -0.002055 -1.426e-21)
(-0.05098 -0.000176 -4.599e-21)
(-0.01123 -0.001074 4.622e-21)
(-0.2813 0.07087 -5.005e-21)
(-0.1155 0.04028 4.437e-21)
(-0.05152 0.008407 5.704e-21)
(0.1047 -0.007614 2.031e-21)
(1.008 0.04546 -2.782e-21)
(0.9399 -0.1364 0)
(1.004 1.967e-05 0)
(0.9996 -3.758e-06 0)
(-0.1817 0.03717 2.872e-21)
(1.053 0.0445 1.95e-21)
(-0.2486 0.04786 4.966e-21)
(-0.2143 -0.05655 -1.879e-20)
(0.256 0.5607 0)
(1.067 -0.09653 -1.237e-20)
(1.049 -0.04623 -2.628e-20)
(1.162 0.5894 2.548e-21)
(0.9092 -0.2077 6.414e-22)
(1.013 -0.008647 3.748e-20)
(0.1308 -0.01878 1.65e-22)
(-0.2441 0.08066 -1.384e-21)
(1.048 -0.04391 3.679e-20)
(-0.1939 0.04634 -2.079e-20)
(-0.01991 0.007164 -2.615e-21)
(-0.07947 -0.01741 0)
(0.9628 -0.1924 0)
(0.0321 0.03281 -1.78e-20)
(-0.09824 0.04114 0)
(-0.1984 0.06802 0)
(0.9932 0.0003256 3.112e-20)
(-0.1818 0.05316 2.606e-21)
(0.6759 -0.1581 5.14e-22)
(1.004 -0.00772 0)
(-0.2145 0.05476 9.543e-21)
(-0.2758 0.07974 0)
(-0.1695 0.05 -2.554e-21)
(0.9982 -0.0001769 2.265e-21)
(0.8681 -0.007676 5.148e-21)
(0.3088 -0.04802 0)
(0.04272 -6.426e-05 4.025e-23)
(0.7955 -0.2524 -4.922e-21)
(-0.01974 0.006641 0)
(-0.2421 0.07091 3.397e-21)
(0.6676 -0.2772 0)
(0.9346 -0.2057 -1.09e-22)
(-0.03617 0.01263 0)
(-0.1566 0.01332 4.129e-21)
(0.9994 7.991e-07 -5.109e-23)
(0.2687 -0.1576 0)
(1.147 0.4011 -1.222e-20)
(1.004 1.847e-05 0)
(0.7045 -0.253 1.625e-22)
(-1.79e-05 -0.0001457 1.73e-22)
(0.3066 -0.01175 -7.738e-21)
(-0.08842 -0.004945 -1.604e-20)
(1.128 -0.04968 6.259e-21)
(1.008 -0.1515 3.48e-22)
(-0.02058 0.00703 -4.69e-27)
(0.03386 -0.003648 -4.003e-22)
(0.6119 -0.06644 0)
(1.013 0.03708 -1.207e-20)
(0.997 0.004695 6.658e-21)
(0.9741 -0.1838 0)
(0.625 -0.256 -1.694e-21)
(-0.2476 0.08136 -1.285e-20)
(-0.211 0.05039 0)
(0.3036 0.7783 -4.445e-21)
(0.3543 -0.1473 -2.216e-21)
(0.5503 0.009476 -2.032e-22)
(1.184 0.1631 -2.618e-20)
(0.3482 -0.1442 -2.173e-21)
(1.136 -0.02255 5.465e-20)
(-0.04454 0.003644 0)
(1.006 -0.0001931 0)
(-0.2258 0.07296 3.867e-22)
(-0.0006653 -0.03041 -7.159e-23)
(-0.1897 0.04662 -7.735e-21)
(-0.2732 0.07773 0)
(-0.25 0.07382 0)
(0.995 0.00323 -2.28e-20)
(0.9807 0.003477 1.608e-20)
(-0.1243 0.04317 0)
(0.9145 -0.1727 1.008e-20)
(-0.203 0.0693 0)
(0.6661 -0.08457 0)
(-0.1789 0.06315 -5.799e-21)
(-0.2052 0.05844 -1.86e-21)
(0.08807 0.03943 -1.067e-21)
(-0.1089 0.01224 -2.696e-21)
(-0.1796 0.01812 -1.629e-20)
(0.0593 -0.01068 -1.529e-21)
(-0.1834 0.03867 -2.282e-21)
(0.4445 -0.03063 1.8e-21)
(-0.1977 0.05892 1.138e-20)
(1.043 -0.1245 -3.927e-21)
(-0.2079 0.06467 4.883e-21)
(0.4258 0.9635 -3.679e-22)
(-0.2251 0.07626 -2.493e-22)
(0.0003723 -0.03137 3.407e-22)
(-0.00432 0.00135 0)
(-0.2512 0.07434 0)
(1.006 -0.001075 0)
(1.005 -0.002877 2.657e-20)
(-0.2251 0.07105 2.898e-21)
(-0.2154 0.06847 0)
(0.9985 -0.1535 2.023e-21)
(1.004 2.209e-05 0)
(0.6267 -0.2721 -5.023e-21)
(-0.2566 0.07163 2.97e-21)
(1.09 -0.06896 -1.7e-20)
(-0.2009 0.06821 0)
(0.06612 0.03021 -1.336e-20)
(-0.2276 0.07087 -1.346e-20)
(1.069 0.6227 -1.103e-20)
(0.9999 0.0007745 -4.863e-20)
(0.9797 -0.1575 0)
(1.108 -0.03126 -1.072e-20)
(0.2322 -0.09187 0)
(0.2895 -0.02162 0)
(-0.1542 0.0434 4.972e-22)
(0.6937 -0.1764 1.662e-20)
(0.3938 0.02328 4.283e-20)
(-0.1889 0.0346 0)
(0.6258 -0.05544 -9.245e-22)
(1.105 -0.08342 0)
(-0.1891 0.05063 0)
(0.6353 -0.28 5.56e-21)
(0.8665 -0.1002 2.12e-21)
(-0.2383 0.07986 0)
(0.3394 -0.1469 -2.745e-21)
(1.007 -0.01105 -1.278e-21)
(-0.04935 0.01628 0)
(-0.02396 0.008128 0)
(-0.1824 0.05678 0)
(-0.2556 0.04291 8.936e-21)
(0.005551 0.06223 -2.477e-20)
(1.003 0.01724 -2.993e-23)
(-0.03265 0.008585 6.95e-21)
(0.064 -0.01439 0)
(1 -0.0002252 0)
(0.9989 -7.196e-05 -1.597e-20)
(-0.2008 0.05133 -2.598e-24)
(-0.2613 0.067 1.274e-20)
(-0.001433 0.0004546 -1.743e-22)
(-0.03252 -0.0145 3.234e-22)
(0.9522 -0.138 -3.259e-22)
(0.6505 -0.2407 0)
(-0.1926 0.06268 -1.208e-20)
(0.9875 -0.1541 0)
(1.028 -0.1256 0)
(0.9943 -0.009101 -1.3e-20)
(-0.1813 0.05943 -1.85e-20)
(-0.1503 -0.03443 0)
(-0.2241 0.07393 -1.111e-20)
(0.9586 -0.1897 0)
(-0.02761 0.007968 7.315e-22)
(-0.2421 0.07947 -6.829e-21)
(1.001 -0.001083 -8.847e-22)
(0.0635 -0.01006 0)
(-0.178 0.05774 -3.574e-21)
(0.9997 -0.0007426 -6.341e-20)
(-0.2554 0.04274 -5.128e-21)
(1 -0.000239 -6.409e-21)
(0.9941 -0.001484 2.632e-20)
(1.03 -0.1376 1.038e-21)
(0.9725 -0.1342 0)
(-0.01492 0.002092 -3.062e-20)
(0.999 -0.001624 6.175e-21)
(0.4168 -0.0491 -2.15e-22)
(1.004 0.005175 0)
(1.224 0.6284 0)
(0.9831 -0.1218 -2.189e-21)
(0.1353 -0.02716 6.312e-21)
(1.051 -0.1159 -3.006e-21)
(0.5395 -0.1064 1.362e-23)
(0.5921 -0.08477 0)
(-0.1945 0.05842 2.675e-20)
(1.055 -0.1155 4.427e-21)
(1.001 -0.003162 6.601e-21)
(1.001 -0.002466 -2.334e-21)
(-0.1839 0.04594 3.923e-21)
(0.8384 -0.1541 7.799e-23)
(-0.2156 0.07347 -1.078e-21)
(-0.2123 0.06815 0)
(0.1575 -0.01003 3.125e-25)
(-0.1812 0.05921 -7.018e-21)
(-0.02829 0.009469 -2.403e-20)
(-0.2609 0.04416 9.295e-21)
(0.6851 -0.1925 0)
(-0.09303 0.0001177 -3.552e-20)
(0.5371 -0.05778 -4.454e-22)
(0.2013 -0.02674 0)
(0.8287 0.4236 2.199e-21)
(-0.01543 0.005321 0)
(1.003 -0.008027 5.204e-21)
(-0.2317 0.04737 2.545e-20)
(-0.07404 0.006002 6.558e-22)
(0.3193 -0.05266 0)
(0.9981 7.677e-06 2.98e-21)
(0.3694 -0.2372 6.639e-21)
(-0.2317 0.06497 0)
(0.9823 -0.09248 3.671e-22)
(0.8707 -0.2394 4.279e-22)
(-0.2347 0.04571 -3.973e-22)
(1.038 -0.1219 -3.274e-21)
(-0.161 0.03612 0)
(-0.1668 0.04892 3.764e-21)
(0.9865 -0.09327 1.094e-21)
(-0.1496 0.0483 -9.188e-23)
(0.5152 -0.1416 -2.219e-21)
(-0.02836 -0.01031 1.178e-21)
(1 -0.0005033 0)
(1.118 -0.07359 -4.147e-21)
(-0.2329 0.04424 0)
(0.9929 -0.008204 0)
(-0.2671 0.05833 0)
(-0.1235 0.01503 3.162e-21)
(0.9984 -1.019e-05 2.594e-21)
(0.9476 -0.1956 1.56e-21)
(-0.08054 0.01832 0)
(1.011 -0.01901 0)
(0.8472 0.4255 -1.003e-20)
(-0.05428 0.03554 0)
(0.01616 -0.01185 0)
(1.002 -0.1325 -2.072e-21)
(1.004 2.832e-05 -1.509e-22)
(-0.2708 0.06641 -2.679e-22)
(-0.2644 0.07691 -6.256e-22)
(1.013 -0.003377 3.18e-20)
(0.9044 0.3862 2.76e-21)
(1.062 0.09605 9.362e-21)
(-0.2565 0.07176 4.454e-21)
(-0.26 0.07005 -1.077e-20)
(0.9926 -0.1681 -4.253e-22)
(1.05 -0.04 0)
(-0.04205 0.0108 -5.712e-22)
(-0.008381 0.002994 6.331e-22)
(0.5747 -0.1219 -9.031e-23)
(0.7161 -0.114 -7.794e-22)
(-0.2235 0.06664 -2.136e-21)
(0.1042 -0.008294 0)
(0.9943 -3.082e-05 -3.112e-21)
(0.8126 -0.0866 2.503e-21)
(1.005 0.006718 4.059e-22)
(-0.2608 0.07877 0)
(0.5678 -0.2522 -5.312e-21)
(-0.2667 0.05029 0)
(0.8703 -0.2388 3.833e-21)
(-0.01226 -0.007916 -6.283e-22)
(-0.07684 0.0116 0)
(0.9993 0.003191 -1.178e-20)
(-0.006456 0.002389 0)
(-0.1398 0.04519 0)
(-0.1692 0.04994 8.013e-21)
(1.061 -0.08892 3.865e-21)
(0.3238 0.1357 0)
(-0.1864 0.05362 -3.233e-21)
(0.01059 -0.03419 9.3e-21)
(0.263 -0.01914 0)
(0.9981 -0.1381 0)
(0.8752 0.02393 -8.799e-20)
(0.01658 -0.0008545 6.007e-22)
(-0.2156 0.06994 1.616e-21)
(0.6534 -0.04478 0)
(0.4387 -0.09297 -5.433e-22)
(0.8069 -0.1232 0)
(0.4353 -0.2504 -1.081e-20)
(-0.009376 -0.01203 2.768e-21)
(-0.08387 0.02909 3.361e-22)
(0.9585 -0.1623 -1.445e-22)
(-0.2525 0.08164 0)
(0.09932 0.06027 0)
(0.5118 -0.06222 1.842e-21)
(0.5797 -0.05947 -1.559e-21)
(0.2413 -0.008936 0)
(-0.02148 0.007705 0)