/*--------------------------------*- C++ -*----------------------------------*\
| =========                 |                                                 |
| \\      /  F ield         | OpenFOAM: The Open Source CFD Toolbox           |
|  \\    /   O peration     | Version:  v2012                                 |
|   \\  /    A nd           | Website:  www.openfoam.com                      |
|    \\/     M anipulation  |                                                 |
\*---------------------------------------------------------------------------*/
FoamFile
{
    version     2.0;
    format      ascii;
    class       volScalarField;
    location    "5";
    object      epsilon;
}
// * * * * * * * * * * * * * * * * * * * * * * * * * * * * * * * * * * * * * //

dimensions      [0 2 -3 0 0 0 0];


internalField   nonuniform List<scalar> 
100503
(
2.083
6.111
56.83
47.78
5.155
0.8393
17.95
87.75
286.5
2.991
25.42
360.6
120.9
116.3
131.5
106.5
93.49
29.34
19.46
131.1
22.67
20.87
1.078
17.88
20.95
18.09
20.08
1.206
0.04965
1.552
3.294
0.4926
0.4809
0.2435
0.1305
0.03444
0.2351
0.03004
1.669e-06
0.04764
0.07417
1.739e-06
2.11
0.02743
1.506
0.01054
4.789e-05
1.492
0.02343
1.226
0.796
0.1223
0.004694
0.2554
0.02701
3.179
0.007231
0.01076
0.08004
0.0774
1.786e-06
0.5586
0.1294
0.3179
17.05
0.02421
1.654e-06
0.1312
124.6
0.2461
0.01827
0.05007
0.02341
1.18
0.005893
0.03667
0.02957
1.678e-06
1.66e-06
0.3143
2.975
0.07629
0.004389
1.73e-06
0.01177
1.669e-06
0.01134
0.05886
0.342
3.209
0.03725
0.02324
0.1061
1.739e-06
1.915e-06
0.06663
0.02439
0.007179
1.676e-06
1.658e-06
0.04614
1.605
0.0249
0.02724
0.004366
1.932e-06
0.08503
0.6732
0.001394
0.0665
0.3314
0.1334
0.3767
0.008532
0.01073
0.1286
0.01047
0.02823
0.2836
4.605e-06
0.01078
0.02095
0.1363
0.3708
0.4604
0.2489
0.005888
0.006388
0.07483
0.1579
0.08262
0.1157
1.409e-06
2.113e-06
0.5562
0.005581
0.03668
0.005268
0.02095
0.005911
1.908e-06
0.01127
0.01964
0.00282
0.041
0.08104
0.001069
0.01076
0.08702
1.901e-06
4.054
0.6229
1.725e-06
1.671e-06
0.08367
4.613
2.997e-06
0.03785
3.722e-05
0.1412
0.1594
2.015
0.111
0.01607
1.461e-05
0.2812
0.2626
1.718e-06
1.937e-06
0.03235
0.01796
0.2194
0.02369
0.4486
2.051e-06
1.675
0.02347
1.677e-06
0.007954
3.961e-05
0.05564
0.01589
0.02105
0.04504
0.007881
0.01074
1.432e-06
0.2008
0.03688
0.6645
0.001313
0.04374
0.1629
1.93e-06
0.05219
0.004314
2.113e-06
5.323
6.476e-06
2.32
0.09398
0.3169
0.3061
0.03309
1.236
0.04066
0.0845
0.08841
0.07535
0.0845
0.04541
0.07906
12
0.01049
0.0157
0.00651
0.05143
1.939e-06
0.05953
0.1101
0.02316
0.007049
1.667e-06
0.09024
0.4643
18
2.219
0.7636
0.01035
3.463e-06
0.03288
0.07537
7.945
0.01971
0.004497
0.02475
0.07877
1.777e-06
11.2
0.04833
0.6027
0.05121
0.1892
0.002876
0.0003422
1.677e-06
0.01337
1.825e-06
6.397
1.435
1.953e-06
0.9855
2.19e-06
0.001949
1.924e-06
0.01066
0.00689
5.173
0.0106
0.02713
0.6269
0.1113
1.671e-06
0.009281
0.1086
0.191
0.02893
0.03016
1.389e-05
0.0003519
0.4436
0.002041
0.07371
0.005593
0.257
2.21
0.01864
2.082e-06
0.1019
3.983
0.02704
0.04926
1.314e-06
0.007048
0.5636
1.93e-06
0.2624
1.277e-06
1.411e-06
0.09358
0.04855
7.863e-06
1.933e-06
0.05114
0.07531
0.4367
9.457e-05
2.576e-06
0.0946
0.02974
0.02005
0.03963
2.65e-06
0.003635
0.02712
0.4434
0.2557
0.02985
3.507e-06
1.735e-06
0.05606
0.0758
15.31
4.343
3.492e-05
0.039
0.01603
2.796e-06
2.504e-06
0.02123
3.837e-05
0.1664
0.2326
0.01095
0.1031
1.957e-06
0.02031
0.2423
0.00438
0.2181
0.02358
0.5129
0.2322
1.677e-06
0.1792
0.0001993
0.003297
1.881e-06
3.347e-06
0.00391
1.677e-06
1.242e-06
0.3048
0.07703
0.007344
1.666e-06
0.01255
0.007769
14.24
0.03858
0.01663
0.005811
0.7362
0.1553
0.05988
1.677e-06
1.669e-06
1.963e-06
0.1182
0.06511
2.723e-06
0.1853
0.1394
0.07839
0.01203
9.877e-06
0.08536
0.03813
9.472e-06
2.675e-06
0.04824
0.03471
0.5603
1.874e-06
0.007155
15.05
0.008353
2.035e-06
0.00572
0.1894
4.451e-06
0.01169
0.0003307
0.004987
5.109
1.793e-06
0.0976
0.008805
0.007164
0.2578
2.201e-06
0.02801
0.1097
0.03546
0.05061
0.004753
0.4716
1.922e-06
16.65
0.00372
0.005218
2.401
0.05587
0.03528
0.01118
0.1639
2.13e-06
0.002772
0.1124
1.037e-05
0.4953
0.2394
0.0002195
0.1016
2.958
1.278e-06
0.5537
0.246
1.67e-06
0.01291
4.116e-06
1.818
0.001613
0.0271
2.227
2.825e-05
0.02457
0.01691
0.04278
0.6764
2.931
0.1834
0.04198
1.912e-06
0.1882
4.213e-06
0.05362
0.03845
2.64e-06
3.378
0.0003463
0.007589
0.01428
1.563
0.01342
128
0.2017
0.03889
1.399e-06
0.03793
0.5857
55.67
0.03065
2.7e-06
0.7982
0.07448
1.257e-06
0.01601
0.1152
0.02858
0.02753
2.728e-06
20.38
0.1827
3.417e-06
0.1838
0.03519
0.01151
0.01969
0.09009
0.03524
0.009059
0.01519
0.0006154
2.239e-06
0.124
0.1692
0.01494
0.07198
0.01117
0.0001954
0.1141
0.01033
0.003146
1.467e-06
0.01727
3.754e-06
2.104e-06
1.96e-06
0.009459
0.0606
0.01084
2.063e-06
2.598e-06
0.004482
0.005326
0.0003034
0.02669
0.03272
1.884e-06
0.001713
1.78e-06
0.003866
0.589
0.01093
2.874e-05
0.0003102
0.0741
2.67e-06
0.01175
1.677e-06
0.03683
6.117
0.2424
1.669e-06
1.923e-06
0.03581
0.06038
0.1101
0.001192
0.001069
0.8574
0.01322
0.006228
1.348e-06
0.003562
0.006807
1.814e-06
0.0003625
0.1123
0.394
0.07432
0.02321
9.11e-07
0.00798
0.1079
0.03417
2.563e-06
0.06934
0.000754
0.3682
0.01397
0.0107
0.0223
0.007691
0.05881
2.15e-06
0.04875
0.0673
2.865
0.3736
14.96
1.651e-06
0.05572
0.1709
0.3708
0.02348
0.04452
0.08667
0.001965
0.07715
0.1269
0.004744
0.02601
0.01063
0.0185
0.03905
0.02096
1.967e-06
1.442e-06
1.782e-06
0.05343
0.09127
1.688e-06
1.809
0.0111
1.96e-06
0.07963
0.02849
1.404e-06
0.02016
1.686e-06
4.415e-06
0.3394
1.666e-06
0.08529
0.09638
0.01591
1.826e-06
0.05706
0.02787
0.5087
0.01414
0.4481
0.6579
0.1899
0.00515
0.01175
1.366e-06
0.1478
1.445e-06
0.006595
0.09301
0.005542
0.03595
0.03427
0.1274
1.441e-06
1.764e-06
0.01283
0.004456
9.036e-07
0.7174
0.001458
0.0181
7.171e-05
0.03728
0.4829
0.1293
1.331e-06
0.1012
5.086
0.005685
0.004091
1.678e-06
0.01982
0.01528
0.009945
0.004974
0.374
2.659
1.599e-06
0.01171
0.01669
0.08579
1.82e-06
5.367
2.03e-06
0.03227
0.01034
1.77e-06
0.05074
0.007297
0.007401
2.827
0.1232
0.006518
0.007554
0.0003138
0.007118
0.5845
0.007826
1.923e-06
0.0003081
0.007845
1.431e-06
0.02229
1.789e-06
6.29e-05
0.02155
1.779e-06
1.947e-05
0.01718
0.5655
1.669e-06
2.773e-06
0.08207
3.501e-05
0.0005679
0.1586
7.181
0.02501
0.0005586
0.009309
1.686e-06
0.06918
3.684
6.051e-05
1.125
2.398e-06
1.557e-06
0.01937
0.007648
0.02263
0.04143
0.02219
0.2194
0.0161
0.04817
0.05482
2.77e-06
0.04661
0.06871
0.2538
0.5149
0.0582
0.2483
2.062e-06
1.835e-06
0.1459
0.08185
0.9138
2.372e-06
0.05384
0.005684
4.983
9.029
1.897e-06
7.218
0.01527
0.005641
0.03986
0.1922
1.686e-06
0.08226
0.03931
2.949
3.416e-06
0.007323
1.674e-06
0.6085
0.07333
3.385e-06
5.855e-06
1.792e-06
0.1613
0.03569
0.06697
0.0002677
0.005719
0.08942
0.03736
0.1364
0.1206
1.071e-06
1.376e-06
1.642e-06
60.05
1.666e-06
0.005942
0.0006949
0.01213
0.09317
0.01141
0.3163
0.3406
0.02623
1.02
2.411
1.588e-06
0.04253
0.06123
1.14e-06
1.086
0.04332
0.2379
0.06822
1.775e-06
0.1315
0.01689
0.006549
0.006264
0.5184
1.041
1.883
0.0003919
0.6394
0.003374
0.116
0.04835
0.02017
0.02056
0.06199
0.0007492
0.006028
1.694e-06
2.021e-06
1.546e-06
0.0408
0.557
0.1054
0.008196
0.00408
0.008438
0.04379
0.0484
0.1439
0.03075
1.563e-06
1.772e-06
0.08369
0.1448
1.614e-06
0.3678
0.04046
2.023e-06
0.02169
0.291
0.713
1.793e-06
0.2052
2.485
0.2008
0.01127
13.84
0.118
0.04717
1.087e-06
0.03724
0.01331
1.914e-06
2.265
2.09e-06
3.425e-06
0.01188
0.01237
0.01556
0.04363
1.069e-05
1.678e-06
0.02395
0.01492
2.257e-06
0.1536
0.005599
1.581e-06
0.07837
0.08371
58.43
0.00759
3.274e-06
4.272
2.432e-06
0.9642
0.02199
0.001788
0.03592
0.08898
0.5026
0.01727
0.2483
4.739
0.01441
7.092
14.28
0.0211
1.745
2.33e-06
0.03146
0.03405
0.00895
0.001766
0.3672
1.68e-06
0.2915
0.2108
0.01722
0.006267
1.664e-06
0.002956
0.07823
0.1783
0.6635
0.01265
0.8445
0.5126
0.00327
2.055e-06
0.01059
0.03663
1.675e-06
1.677e-06
0.00837
0.01916
0.005048
0.2647
0.01673
0.015
1.696e-06
1.914e-06
0.02025
0.007838
0.6737
6.265e-06
0.003352
1.306e-06
1.688e-06
1.944e-06
0.07532
0.03259
0.05156
0.1196
0.006576
0.02671
2.193e-06
0.496
0.1112
4.492e-05
0.6257
1.752e-06
0.07274
2.123e-06
0.4102
1.678e-06
2.511e-06
0.8874
0.2336
1.202
0.0322
0.115
0.05969
0.04507
0.0129
0.04002
2.343e-05
2.257e-06
0.1073
0.06874
0.007025
0.286
0.005974
0.1914
6.71
1.678e-06
0.000182
0.1594
1.234e-06
0.0697
0.3872
0.01326
0.04563
0.01977
1.127e-06
0.4479
0.0393
0.01661
1.602e-06
0.1384
0.004826
0.3413
0.08153
0.01386
0.01328
0.3759
0.005975
1.186
0.005473
0.0001082
0.1552
1.91e-06
1.856e-06
1.033e-06
0.1239
0.03337
0.009791
0.004328
0.02282
0.03656
0.002464
0.2028
0.01793
3.073e-05
0.0396
0.03856
0.01192
0.1889
0.701
2.045e-06
0.007896
1.936e-06
0.03037
0.657
0.01454
0.04099
0.004967
0.01623
0.0007464
0.01375
0.01491
0.5352
2.272e-06
0.01438
0.008495
0.0706
0.0118
0.4359
0.01265
0.007591
0.02781
2.673e-06
2.349
0.01272
1.967e-06
0.01144
0.04374
0.01178
1.67e-06
1.676e-06
2.143e-06
0.2013
0.04775
0.02981
1.846
0.01073
0.003055
0.02019
0.0002757
0.268
0.007502
0.09312
0.3507
1.812e-06
0.233
0.008995
6.893
1.767e-06
0.3892
0.00854
0.1694
0.1226
2.273e-06
1.959e-06
0.7579
7.748e-06
0.01112
0.07493
0.01792
0.002487
0.2019
0.6648
2.638e-06
0.01963
0.0617
1.671e-06
1.804e-06
0.03955
0.00365
0.02244
0.02551
0.01395
1.723
0.03639
0.01517
2.094e-05
0.02461
0.0722
0.0052
0.0936
0.1877
0.3134
0.01237
0.01457
3.376e-06
1.121e-06
1.004e-06
0.01886
3.842
9.174
0.00494
0.001786
2.537e-06
0.0418
0.001317
0.01238
0.02863
0.09286
2.034e-06
0.0001301
6.255e-05
1.097e-05
0.04138
0.0002578
0.06246
0.008371
0.0008395
0.01597
0.004744
0.01353
9.569
1.982e-06
0.04089
0.2219
1.699
0.06191
0.06603
0.005935
0.02558
0.02543
0.006206
0.01335
3.32e-06
0.002493
0.2371
0.01589
3.532e-06
0.002389
0.02464
0.03159
0.007232
0.02306
5.679e-05
0.05011
0.001193
0.003212
10.4
0.05768
9.978
0.0002292
1.681e-06
5.63
2.024e-06
1.881e-06
0.1888
0.04102
1.064
2.605e-06
0.149
0.002905
1.037e-06
0.01304
0.01058
1.382e-06
2.331e-06
0.1049
0.1091
0.4752
0.004578
0.07521
1.675e-06
7.147
0.01591
0.01272
0.01341
0.02329
2.42e-06
0.02471
4.986e-06
0.6027
7.858e-06
0.1321
3.153
0.1277
1.774e-06
1.93e-06
0.05472
0.009477
0.2117
0.1071
2.793e-06
0.06402
1.626e-06
0.05
2.056e-06
0.004555
0.9588
0.3623
1.541e-06
0.006457
0.2345
0.002256
0.4142
1.709e-06
2.395e-06
1.681e-06
0.02352
0.01105
0.008346
0.0106
5.689e-06
1.915
2.706e-06
0.08166
0.003604
0.03893
0.01101
0.01199
1.669e-06
2.122e-05
0.03698
0.3046
0.02184
0.2979
2.878e-06
0.462
0.01245
0.08065
0.03163
1.63e-06
0.105
0.0004427
1.813e-06
0.04967
1.06e-05
1.72e-06
7.219
0.04907
5.556e-06
1.244e-06
0.004373
0.005437
0.01302
0.4159
1.619e-06
0.5234
0.4004
0.0104
0.01278
0.002256
1.026
0.008067
0.3387
6.433e-05
0.01005
0.0106
0.03241
0.02708
1.508e-06
1.289
0.01982
0.01306
0.01476
0.001391
0.001079
0.3191
0.0009946
0.005656
0.8708
0.006688
1.669e-06
3.29e-06
0.1641
0.004849
2.119e-06
1.421
0.02397
6.363e-05
0.1423
0.05293
0.005529
0.006346
6.466e-05
0.9822
2.959
2.274e-06
0.729
0.1981
0.211
2.186e-06
0.1158
0.009724
1.746e-06
0.06266
1.882e-06
0.3728
0.02165
0.1102
1.676e-06
0.2176
0.4365
2.445e-06
1.639e-06
1.681e-06
1.723e-06
0.01614
0.5715
1.253
0.4275
0.02876
0.3719
0.01376
0.00609
0.01825
0.09289
0.019
1.013
0.02497
0.01039
0.01623
0.1411
1.383e-06
1.723e-06
0.008648
0.04631
0.03534
0.3383
0.05311
0.01281
1.692e-06
3.217e-05
0.1146
0.1101
0.219
0.5528
0.006749
0.07019
0.01621
1.606e-06
0.3713
0.02571
0.008593
1.671e-06
1.049
1.272
2.626e-06
0.5301
0.5184
0.03285
0.3315
0.06317
1.928e-06
0.06785
0.01609
0.1043
0.06889
0.01648
0.09182
0.3448
1.699e-06
0.006814
0.4059
1.672e-06
0.006456
0.04586
1.091e-06
0.03081
1.672e-06
0.003068
0.01731
7.915e-05
0.01845
2.454e-06
1.672e-06
1.579e-06
27.49
0.006539
0.01142
0.02852
0.01561
0.9935
0.07747
1.064
0.001638
0.02561
0.04863
0.07011
2.405e-06
0.01394
0.03497
0.004146
6.45
3.458e-06
1.124e-05
0.3393
0.01243
0.08055
0.1533
0.1017
1.38e-06
0.04636
1.717e-06
0.4684
1.952
1.911e-06
0.009767
0.1477
0.01773
0.004026
0.3531
0.02059
0.5376
0.01033
0.01109
0.2109
0.05913
0.1026
8.478
0.01644
0.07866
0.002049
0.021
0.03535
0.01402
0.1355
0.08983
1.471e-06
1.144
0.006044
0.04338
6.037e-05
0.1673
0.006341
30
2.653e-06
1.317e-06
0.05379
0.4215
1.669e-06
0.2003
0.008222
0.4113
0.06015
0.03856
0.07805
0.008029
0.04225
0.4734
1.124
0.1854
0.603
13.15
0.1478
0.008816
9.298
0.1264
0.3912
2.1e-06
1.007
0.06329
0.3276
0.07727
1.769e-06
0.01229
0.06289
0.0819
0.04578
0.01142
0.01385
0.09209
0.2407
0.008233
2.828
0.0914
1.881e-06
0.00657
0.6916
0.06253
0.02606
1.103e-06
1.337e-06
0.002912
0.286
1.692e-06
1.035
0.1912
0.005971
0.04781
0.02001
0.2142
0.4546
0.007106
0.009997
0.5393
0.01571
0.4803
0.1061
1.742e-06
2.286e-06
0.006826
0.002679
0.06449
0.03618
0.08036
1.784
0.02831
1.678e-06
0.1337
3.33e-06
0.1002
0.004618
0.04238
1.667e-06
0.04796
5.657e-05
0.05534
0.04685
2.903e-05
0.009639
0.007897
0.1387
0.167
5.524e-05
1.92e-06
0.03946
0.2906
0.1155
4.149e-06
0.02338
0.006778
1.667e-06
0.09927
0.006942
1.677e-06
0.02411
0.04125
0.0163
0.01961
1.186e-06
0.01785
2.223e-06
0.01156
0.03171
0.0319
0.04656
0.0759
1.905e-06
1.015
0.08114
0.0799
0.02505
0.1617
0.01908
1.217
0.105
0.06466
1.641e-06
0.05189
0.004815
0.07473
2.806
0.0001897
8.908e-06
0.01149
1.103
1.254e-06
0.001324
0.01654
3.603e-06
0.01803
0.7867
0.03213
0.03082
0.004988
0.01007
8.93
0.00766
0.05018
0.01326
0.01108
7.724
1.911e-06
3.482e-06
0.009266
0.06995
0.02173
2.2e-06
1.685e-06
0.001042
1.944e-06
0.03494
1.676e-06
0.00496
0.06264
0.03322
0.1927
2.06e-06
3.89e-06
0.003207
0.5561
4.247
0.4412
0.005857
0.01647
0.001343
0.06236
0.001095
0.01649
0.3498
0.01454
1.915
0.008102
0.03727
2.108
0.03027
0.03613
0.01738
0.001221
0.02837
0.01449
3.724
0.01575
0.01322
0.005106
15.34
0.04611
0.03774
0.2335
0.009695
0.1156
0.009762
0.1151
0.05099
0.01446
0.00604
0.02296
0.00702
6.738
0.1813
1.613
0.0002257
1.909e-06
0.06489
0.2272
0.1942
1.561e-06
0.03139
0.01895
2.533e-06
0.004012
0.005925
0.03493
0.03872
0.02796
0.1379
0.6035
1.218e-06
3.346e-06
1.103
0.00847
0.005055
2.705e-06
1.086
0.2501
0.06095
1.731e-06
1.594e-06
2.535e-06
0.01198
0.05363
0.0009512
0.01413
0.008459
1.704e-06
0.2207
0.002892
2.414e-06
2.179e-06
1.981e-06
1.926e-06
0.2769
0.03228
0.0292
0.0001755
0.02681
0.1036
0.009649
0.05163
35.87
0.006781
0.04483
0.007886
0.3625
0.0002941
0.05624
4.18e-06
0.0005982
0.7181
1.093
0.01432
1.793
0.08676
1.595e-06
0.03635
1.518
0.02269
3.284
2.362e-06
0.004966
0.01024
0.0133
10.94
0.07504
0.7671
7.143e-05
2.134e-06
0.03864
0.3225
0.02014
0.008413
0.007613
0.000236
5.755e-06
0.1217
0.04334
1.772
0.2098
0.006177
0.003004
1.79e-06
8.696
0.02602
2.516
1.892e-06
0.111
7.021e-06
2.012e-06
2.296e-06
0.04962
1.536e-06
0.5722
0.02798
1.694
0.1087
0.007773
0.4039
0.07856
0.02369
0.5982
0.07823
0.01339
0.04392
0.1182
0.007419
0.7916
0.5973
0.000299
2.052e-06
0.004508
0.3005
0.008501
0.01381
0.05338
0.01861
0.07161
0.006688
0.3613
2.547e-06
0.08167
0.3346
0.5713
0.006173
0.4888
0.06205
0.001387
1.169
0.04535
0.7426
0.02718
0.02835
0.09655
0.03595
0.1595
0.009689
1.621e-06
1.238
0.06924
0.08702
6.37
0.06003
1.99
0.5785
0.03576
0.467
0.02433
1.678e-06
0.0256
3.295e-06
0.007102
0.7096
1.607e-06
0.0675
2.212e-06
0.09492
0.03967
8.39
0.01697
1.769e-06
0.6592
0.9655
0.3559
1.008
0.005106
0.06487
2.221e-06
0.01173
1.677e-06
0.004727
0.00537
0.04987
0.02343
1.698e-06
0.01064
0.05663
0.003048
0.01001
0.007895
0.005145
3.934
0.01698
0.01897
0.7861
0.2393
0.007495
0.1109
0.004827
4.831e-06
1.672e-06
11.27
1.563
1.919e-06
0.01852
0.03991
1.029
0.1626
0.0007901
0.1409
2.618e-06
0.1503
0.01251
2.884
0.05477
1.672e-06
0.01969
0.06455
0.02747
2.503e-06
0.3152
1.264e-06
0.004786
0.004477
3.1e-06
0.7026
0.3906
0.01281
0.441
1.672e-06
0.05348
0.1456
0.4058
0.1488
1.671e-06
0.008419
1.676e-06
1.671e-06
1.424
4.644e-06
0.4196
0.4356
0.0143
0.02343
1.998e-06
2.029e-06
0.3471
0.1124
0.3393
0.4599
0.3436
1.937e-06
9.732
2.427e-06
0.1207
0.00422
0.8524
2.488e-06
0.02092
0.02317
1.52e-06
1.943e-06
2.648e-06
1.517e-06
1.522e-06
0.03906
2.572e-06
0.0001393
0.01634
0.006293
0.01863
0.004772
0.1192
0.075
0.6645
1.658e-06
0.1846
0.007518
2.59e-06
0.8784
3.664e-06
0.04485
0.2406
0.623
1.668e-06
1.669e-06
1.937e-06
0.4729
0.03606
1.43e-06
0.0238
0.04035
0.004901
0.1061
0.02254
0.007776
1.671e-06
0.02271
0.03402
3.815
0.008018
1.709e-06
0.03027
0.001735
0.02258
1.433e-05
0.07483
0.03725
4.073e-06
0.0012
0.8638
0.136
0.007058
1.335
1.127e-06
0.01841
0.0206
0.2115
0.5768
2.204e-06
4.396
2.302
1.019e-06
0.2804
0.0001207
0.1558
0.01778
0.01483
0.4373
0.03089
0.06743
3.554e-06
0.03064
0.0193
1.174e-06
0.0001167
5.297
0.009895
0.01453
0.009822
0.008981
0.8563
1.652e-06
0.8944
0.1678
0.5256
1.748e-06
1.607e-06
0.0147
0.01012
0.04609
5.563e-06
0.4047
0.01239
0.01071
0.005541
0.0936
1.866e-06
0.8686
3.808e-06
0.0136
3.597e-06
0.2025
0.002022
0.1154
1.936e-06
0.002388
8.596
7.939
0.01617
0.009495
0.5593
1.666
0.2176
4.133
1.987e-06
0.004788
1.677e-06
2.907e-06
0.136
0.09908
0.01033
0.01759
1.677e-06
0.07362
1.974
0.005574
0.00782
1.689e-06
0.03236
0.000987
1.777
0.02685
0.0945
0.02679
0.2141
0.1181
0.5043
0.0511
0.05769
0.02682
0.01837
0.01081
0.08008
1.678e-06
8.551
0.02319
0.1556
0.009787
0.006274
0.03825
0.008543
0.003958
1.728e-06
1.675e-06
0.004936
9.731e-06
1.686e-06
1.602e-06
0.01035
3.197
1.675e-06
1.766e-06
0.0004144
2.001e-06
0.05044
0.05167
1.504
7.197
2.146
0.05391
0.00959
0.03644
0.02359
0.2024
2.426e-06
7.256
0.000187
0.1322
0.03579
0.02667
2.339e-06
0.3914
0.03501
0.1194
0.001277
0.2742
0.04505
0.1963
0.1131
1.82e-06
0.3481
1.974e-06
0.03831
0.01003
0.0002848
0.001629
0.01843
3.234e-06
0.000122
0.003465
0.08807
0.01771
0.1138
0.1876
0.336
1.429e-06
5.222e-06
1.514
1.677e-06
2.787e-06
0.001566
0.005014
0.01044
0.5849
0.4372
2.35e-06
2.336e-06
0.01366
0.01044
0.3975
2.116e-06
0.06025
1.657e-06
0.0002096
0.378
0.03754
3.453e-06
0.183
0.02328
1.453e-06
0.6157
0.4311
1.953e-06
0.01501
0.4991
0.07001
0.03966
0.6124
0.08256
0.259
0.04714
2.398e-06
0.009781
0.1788
0.02079
0.01251
0.06004
0.6824
0.01099
0.0772
1.883e-06
0.003845
0.0009939
0.01785
0.01383
0.04865
0.1154
1.86e-05
0.07435
1.67e-06
1.875e-06
2.208e-06
0.1468
1.171
0.09189
0.01243
4.679e-06
0.01831
0.01476
0.006297
0.1266
0.03818
0.7422
1.615e-06
0.03058
0.02183
0.02677
0.01282
0.009879
1.668e-06
0.1335
0.2824
0.189
10.85
43.83
0.02485
0.02375
0.04435
1.162e-05
0.3203
1.73e-06
0.1894
0.009387
0.5998
0.3048
0.2282
1.859
1.54
0.03497
0.124
6.263
0.06913
0.2373
0.0135
0.008283
0.00083
0.1483
0.005533
9.104e-06
0.05943
5.541e-06
0.03523
0.000447
0.0001836
0.04302
0.01306
0.01982
0.1162
0.04615
0.01371
1.885e-06
0.01565
1.866e-06
23.05
0.01589
0.134
0.04839
0.1004
0.04478
0.9163
0.008832
0.1674
1.685e-06
1.326
0.01836
0.02877
0.114
0.03617
0.004952
0.6217
0.1333
0.007814
0.06419
1.781e-06
2.086e-06
0.0001052
0.5607
1.672e-06
1.368e-06
0.009253
0.1565
2.834e-05
0.1433
1.629
0.0356
2.761e-06
0.005022
0.1128
0.2584
0.0136
0.03648
0.04143
1.671e-06
0.1343
0.0567
2.81e-06
1.905
1.661e-06
2.229e-06
0.1441
1.144
0.008106
0.04396
1.082e-06
0.02862
0.02541
0.3948
1.725e-06
0.1706
0.07043
1.715e-06
0.1385
1.687e-06
1.615e-06
0.4483
0.01091
1.66e-06
1.697e-06
1.674e-06
3.354e-06
0.002811
0.05397
0.09958
0.03898
0.02173
0.02448
0.07345
1.109e-06
0.005253
9.209
0.01622
1.82e-06
0.06722
0.1154
0.1359
1.767e-06
0.02675
1.84
0.03192
0.1525
0.05052
0.012
0.004602
0.01052
0.01099
1.553e-06
0.01054
1.962e-06
0.06555
0.01298
0.01418
0.02978
1.04
0.702
1.673e-06
2.338e-06
0.06747
0.4141
1.214e-06
0.05912
2.025e-06
1.748e-06
4.523e-06
2.763
0.01702
4.24e-06
0.01412
0.0006568
0.9635
3.367e-06
0.01468
2.5e-06
0.0006636
0.006867
1.667e-06
2.748
0.04936
0.01161
0.08828
0.1328
0.4364
0.01098
0.9563
0.01338
0.06126
0.0127
5.78
0.1015
0.00697
3.573
0.00021
1.843e-06
1.681e-06
4.635
1.335e-06
0.006606
0.1268
0.6034
0.01872
0.02124
0.006518
0.002418
1.842e-06
0.5739
0.05406
0.167
0.01303
1.591e-06
0.4732
0.02385
0.008446
0.07473
0.03475
0.03044
0.787
0.03025
0.0005268
1.043
0.04954
0.04092
0.1538
0.4278
0.003425
0.1244
1.662e-06
0.8148
1.905e-06
1.672e-06
0.0554
0.01437
0.4916
0.0003406
4.859
0.04997
0.009893
0.02041
0.02713
0.06392
0.03876
0.2607
0.07084
7.744e-05
0.03136
0.0007691
0.01119
1.667e-06
0.1495
0.005128
15.98
0.007602
0.0278
3.355e-06
2.425e-06
0.06294
1.709
0.02787
0.07491
0.02378
1.696e-06
0.1215
0.1576
0.0002581
0.0138
0.01015
0.0303
0.1801
0.4129
0.01541
1.665e-06
0.08707
0.2055
0.001691
0.5901
0.1138
3.649e-06
0.03098
0.0009497
4.7
0.01991
3.336e-06
2.883e-06
2.102e-06
0.5434
0.1491
0.003674
0.2924
0.0387
0.07233
2.075e-06
1.173e-05
2.054e-06
0.84
4.222e-06
0.01094
0.5907
0.8975
0.008402
2.976e-06
3.235e-06
0.4304
0.05175
1.724e-06
0.4333
0.01732
0.1849
0.01336
0.4077
0.6059
0.006833
0.1843
0.3468
1.704e-06
3.25e-05
0.03319
0.3374
1.526e-06
0.09155
0.03165
0.4671
0.03408
0.3215
3.536e-06
3.908e-06
0.009902
0.06562
0.1108
0.1337
0.08876
0.02024
0.07891
1.125e-06
0.04142
0.09833
1.22e-05
1.649e-06
0.0338
2.104e-06
1.67e-06
0.6485
0.07328
0.2075
0.08352
0.1325
0.4472
0.04951
2.344e-06
0.002404
1.668e-06
0.01447
0.007595
1.524
0.02352
1.695e-06
0.01815
0.1073
0.09788
0.01037
0.4185
0.07243
0.2345
1.226e-05
1.241
1.684e-06
1.7e-06
1.412e-05
0.00111
0.6008
0.01396
158.7
0.1663
0.4819
0.01291
10.5
0.009118
0.01215
0.3522
0.01264
0.009182
0.01104
1.667e-06
2.46e-06
1.673e-06
1.759
1.999e-06
0.135
3.409
0.009171
0.2964
3.907
0.02722
0.0423
0.1324
0.02568
2.016e-06
0.1428
0.01772
5.126e-06
1.525e-06
4.469e-05
9.537
0.03628
0.1315
0.01995
0.01692
0.01029
0.01593
0.03404
0.5517
2.23e-06
0.04942
1.678e-06
1.672e-06
0.002977
0.0159
0.02016
1.728e-06
0.07735
0.5792
0.01875
0.1104
2.262e-06
1.839e-06
0.2165
0.08997
0.03824
1.009e-05
0.6528
0.1514
35.64
0.03096
1.672e-06
0.1258
0.02109
0.04313
2.08e-06
0.4769
0.0195
1.103
0.01054
0.05703
0.01695
2.251e-06
0.03457
0.0247
0.03043
20.52
1.618e-06
0.2712
8.049e-05
1.968e-06
0.008322
0.07008
0.04275
0.03862
0.001778
0.08284
0.0005201
0.07018
40.05
0.01776
0.08118
0.009395
3.388e-06
2.056e-06
0.01123
0.4475
0.3834
0.1255
0.5675
0.0127
8.127
1.693e-06
2.88e-06
0.2696
0.01279
0.02042
0.4218
0.01842
0.2207
0.0007
0.008488
0.2091
0.02204
0.474
0.5591
0.01397
0.3938
5.709e-06
1.791e-06
0.04365
0.0001116
0.04609
0.01091
1.364e-06
0.0002851
0.004379
7.232
0.767
1.66e-06
2.216e-06
1.386e-06
0.353
4.114e-06
3.693e-06
1.665e-06
0.2443
0.005852
0.03131
0.01788
0.05368
0.01635
0.01222
0.4407
0.01763
0.4277
0.52
0.02104
0.002224
0.01847
2.387e-06
0.05531
3.012
0.01534
18.28
0.3102
0.07678
0.1225
0.01859
0.0229
0.3298
0.09297
1.732e-06
2.773e-06
0.05169
0.009913
0.2184
0.4952
0.1474
0.009702
3.722e-05
0.6865
0.3498
1.676e-06
0.01246
0.03069
0.01184
1.465e-06
2.856e-06
0.0692
0.2434
0.01378
1.9e-06
0.009941
3.319e-06
3.349e-05
1.124
0.08567
0.004053
0.03013
0.2019
1.576
0.4411
42.53
1.551
0.02825
2.407e-06
0.04282
1.922e-06
0.06065
1.652e-06
0.07957
0.6945
2.243e-05
2.052e-06
0.0339
0.4612
0.3678
0.0002934
0.3494
1.031e-05
0.06479
2.012
0.008086
2.02e-06
0.09387
0.3291
0.00879
0.5807
0.4713
1.997
2.12e-06
0.02898
0.9868
0.06065
2.557e-06
0.001186
1.249e-06
3.08
0.01995
0.08257
0.03821
0.01507
0.001911
2.278e-06
0.5031
0.3984
0.01093
2.127e-06
1.665e-06
0.4312
0.2474
0.01103
1.681
0.6278
0.001784
0.9796
1.764e-06
12.93
0.01182
1.269
0.08251
1.653e-06
0.3486
3.287e-06
1.01e-06
0.06221
0.01934
0.02822
0.01088
0.1061
0.7087
0.02221
0.4668
0.03738
0.04193
1.001
0.01332
0.01914
0.01391
3.197
0.003167
0.03534
2.684e-06
0.118
1.735e-06
0.5625
0.04215
2.46e-06
0.437
0.0172
0.5011
23
0.02135
0.03
0.03208
0.01105
1.675e-06
0.005257
0.03977
0.08257
0.06306
0.02128
0.007514
0.004901
0.02657
0.2373
1.906e-06
0.1529
0.05378
0.06594
0.04553
0.6052
0.0005996
0.5192
0.5413
0.1317
14
0.2673
0.08269
0.02577
0.07299
0.0679
0.009615
0.1371
1.514e-06
0.009914
0.02333
0.03805
3.567e-05
0.01346
0.7246
0.03949
0.06966
10.63
0.06218
0.008623
0.01086
0.007342
0.7514
3.055e-05
0.01608
0.2348
1.959e-06
4.715
1.859e-06
0.09279
0.1578
0.1302
0.01355
0.358
0.3121
0.01421
0.3633
0.006727
0.01906
0.03122
1.464
0.0197
1.395
0.1057
0.5074
0.04713
0.03075
1.247
0.02006
0.00985
14.62
0.4457
1.626e-06
0.08815
6.848e-06
0.07364
0.01811
1.91e-06
0.0458
0.03786
2.352e-06
0.00321
1.886e-06
0.01198
2.201e-06
0.004466
0.05653
0.08205
0.005735
4.282
0.00071
0.001139
0.3866
0.1014
0.02696
0.7832
0.06831
0.03378
0.09979
1.894e-06
2.302e-06
4.151e-06
0.03782
1.681e-06
0.08676
0.1703
0.01678
0.0006349
0.5046
0.009832
0.1281
0.4092
3.347e-06
1.677e-06
0.9207
0.01358
0.03985
0.04045
1.662e-06
2.635e-06
1.691e-06
0.04008
0.5087
0.01068
0.03889
0.02124
0.2145
0.1179
2.689e-06
0.004283
0.004969
0.2779
0.2562
0.04385
0.1115
0.6316
0.02166
2.9e-06
1.476e-05
0.01308
0.01536
0.009727
0.4101
0.001148
1.386
0.4332
2.259e-06
0.3479
0.05481
0.07806
2.871e-06
2.456e-06
0.02441
0.001881
0.1304
0.261
0.008454
0.01234
0.01209
0.02789
1.523e-06
0.1362
0.05133
0.01152
1.598e-06
0.02937
0.0001066
0.05512
0.07177
0.04854
0.5774
0.06863
0.2894
0.05387
0.01346
0.2067
0.02153
1.604e-06
0.08037
0.06017
0.005536
1.663e-06
0.6943
1.675e-06
0.02023
0.2065
0.01409
0.003135
6.819
0.8254
1.913e-06
0.01904
0.1783
2.218e-06
1.611e-06
2.311e-06
1.126
0.01963
0.7958
0.009715
2.233e-06
2.656e-06
0.006736
0.0522
0.02936
0.5733
0.05853
0.05544
0.168
3.359
0.3082
1.674e-06
0.3248
0.06969
3.27e-06
0.01143
0.05551
0.1483
0.0602
0.7384
4.538e-06
0.09096
0.07998
3.165e-06
0.005475
0.04639
0.03137
1.665e-06
0.02222
1.033
0.067
0.4719
4.481
0.4341
0.04267
0.05403
0.1615
0.8011
3.626e-06
2.268e-06
1.929e-06
0.002933
0.04158
0.06977
18
2.047e-06
0.01157
0.02777
1.67e-06
0.006978
0.006161
0.008617
2.411e-06
9.297e-06
0.4913
0.006067
0.003386
9.396e-06
0.009971
1.013
2.812
0.05293
0.08035
3.663e-06
1.74e-06
0.3098
0.007266
1.104e-06
0.07997
0.03629
2.48e-06
0.01568
0.01313
0.0963
0.1124
0.3803
0.3502
0.0001736
2.29e-06
0.03422
0.08607
1.849e-06
0.4147
0.2894
3.417e-05
0.2528
0.06463
0.008896
0.03991
1.676e-06
0.2811
0.0213
0.01647
1.09e-06
0.02768
1.36e-06
0.372
1.705e-06
1.912e-06
0.00716
0.008226
1.064
2.587e-05
2.962e-06
0.01099
28.85
0.05219
0.006645
2.707e-06
0.01125
0.3154
0.04271
0.02275
27.43
1.074
0.3718
1.214
0.009496
0.007309
0.2047
0.01324
0.009257
23.62
0.02029
0.0372
0.0002288
2.036e-06
0.0471
1.711e-06
0.007614
0.009997
0.1012
1.828e-06
1.956e-06
0.01378
2.213e-06
0.01876
0.1841
0.03051
0.04909
1.059e-06
2.208e-06
0.2193
0.02153
0.0401
0.09881
1.993e-06
1.67e-06
0.01633
3.433e-06
0.01842
2.142e-06
0.1697
1.666e-06
0.5045
0.009379
2.017e-06
1.661e-06
0.5434
0.001215
0.1619
0.01402
1.577e-06
0.05545
0.01429
0.08397
0.1182
0.06532
27.36
0.01952
1.639e-06
1.8e-06
0.5153
0.03067
0.01703
0.008882
1.249e-06
0.06069
0.08278
0.03989
0.01199
0.01748
0.3789
0.4332
0.5375
0.01778
0.01452
0.02693
0.06924
0.0006144
4.197
1.679e-06
0.169
2.455e-06
0.2948
0.2716
2.338e-06
1.022e-06
0.3046
1.875
1.914e-06
0.006749
2.349
0.0201
0.01635
9.462e-07
0.0002052
0.5122
0.6436
1.286
0.02
0.03122
0.04422
0.9094
2.982e-06
0.0299
0.006926
0.2589
0.03737
2.477e-06
0.03614
1.501e-06
0.002236
1.411e-06
0.0466
0.04773
0.03072
0.005485
2.74e-06
1.631e-06
0.01656
0.5018
0.7817
0.02982
1.652e-06
1.65e-06
0.06145
0.04929
2.159e-06
0.607
0.6078
0.5668
0.984
0.6152
1.638e-06
0.01529
0.03019
0.4347
0.05107
0.08082
0.01086
0.4467
0.02122
0.009926
0.03622
1.076
0.04675
0.04995
0.07083
0.6443
0.01367
0.07158
3.912e-06
3.636e-06
0.02352
1.898e-06
0.01849
0.04489
0.001709
0.04644
0.4548
3.718e-06
0.0005846
0.01959
0.01046
0.04243
1.96e-06
0.02159
0.009795
0.05591
0.1091
5.773
0.008075
0.391
0.8246
0.02063
0.7328
1.892e-06
0.01401
0.04892
0.09336
0.002628
0.002265
0.05215
1.833e-06
0.02646
0.02255
0.3147
0.02008
1.482e-05
0.04151
34.35
0.01614
3.392e-06
0.0002573
0.01177
2.276e-06
0.3798
0.006019
0.04494
0.07508
1.614e-06
0.1506
0.09202
0.1645
24.11
1.229
0.1662
1.667e-06
0.1684
0.0833
0.03538
2.214e-06
0.008005
0.01554
1.396
0.02556
1.547e-06
0.01225
0.01649
3.873e-06
0.1844
13.19
0.09263
3.676e-06
0.000111
0.8357
0.1177
0.002971
0.3622
0.1682
0.129
0.000739
0.009662
0.02238
0.01546
0.5305
0.2164
0.01489
2.268e-06
0.008919
0.1032
0.06335
0.1845
0.02013
3.783e-06
0.0136
0.05059
1.342
0.0315
0.03973
0.1096
0.03783
0.01165
0.02354
0.01897
0.004476
0.01815
0.1434
1.701e-06
1.324
0.1082
0.6735
0.03772
0.113
0.2231
0.3529
1.675e-06
3.274
0.1337
14.32
0.06341
0.8274
0.06218
0.0001272
0.556
0.01812
0.03981
0.06815
2.87e-06
0.008119
0.07101
2.266
0.02256
0.1007
0.08272
1.784e-06
0.4877
0.009089
5.483e-05
0.005963
0.5403
0.2447
6.518
0.002847
2.653e-06
0.01527
0.004622
0.6284
0.1854
0.04572
0.1261
0.6356
7.246
0.001258
0.03095
1.676e-06
0.00642
0.04576
0.01832
1.451e-06
0.0005047
0.1191
2.758e-06
7.698e-06
4.053
0.4484
0.07193
0.4584
0.001079
0.01096
1.346e-06
1.708e-06
0.4406
0.7632
6.295
4.549
0.06137
4.58e-05
2.832e-06
0.01335
0.001989
1.588e-06
0.004342
0.04032
1.871e-06
0.004327
1.679e-06
0.1839
0.3055
2.188e-06
1.668e-06
0.02211
0.1919
0.1169
1.66e-06
0.5188
0.08571
2.647e-06
1.485e-06
0.006526
0.06498
1.216
0.007105
0.08711
0.6505
0.08518
0.005029
0.02558
2.43e-06
2.943
0.02255
1.808e-06
1.796e-06
1.692e-06
1.69e-06
0.08061
1.739e-06
1.677e-06
0.01269
0.1034
0.1659
0.1871
5.879e-05
0.01414
1.33e-05
0.001637
0.01438
0.001798
0.02478
0.01845
4.529
0.05091
0.1124
1.68e-06
1.576e-06
0.1425
0.3684
0.09258
0.12
0.5851
0.005323
0.002412
30.4
0.0001317
3.001e-06
0.01734
0.222
6.582
2.159e-06
0.08548
0.01727
0.1874
0.6191
1.042
0.2625
1.678e-06
0.04279
0.0826
0.03729
0.1648
0.007558
0.04353
0.06756
0.003265
0.08702
0.9454
0.02124
3.859
0.03088
3.838e-05
0.0001702
0.02711
0.02911
0.112
0.01149
0.04003
0.5248
3.175e-06
0.07143
0.287
1.658e-06
2.638e-06
0.07956
1.643e-06
3.784e-06
0.05552
1.153
0.9741
0.3352
0.08816
0.1169
0.01262
0.01339
0.1784
0.03906
1.68e-06
0.007845
0.01814
0.01302
0.0002725
0.02737
0.04715
1.679e-06
9.346e-07
0.00858
0.01198
0.001601
2.571e-06
0.1513
0.1421
0.171
0.05423
8.943
2.055e-06
0.03474
0.1399
1.32e-06
0.04125
0.2836
0.01615
1.554e-06
0.04957
1.951
0.08685
0.2996
4.732e-05
0.06885
2.483e-06
0.02767
0.05427
0.1075
0.01154
0.01004
0.1008
0.004467
0.1193
0.05731
0.5011
0.0006548
0.006826
0.1789
0.4833
0.0129
0.0157
0.6869
0.0142
0.02339
0.1395
3.338e-05
0.03962
0.05623