/*--------------------------------*- C++ -*----------------------------------*\
| =========                 |                                                 |
| \\      /  F ield         | OpenFOAM: The Open Source CFD Toolbox           |
|  \\    /   O peration     | Version:  v2012                                 |
|   \\  /    A nd           | Website:  www.openfoam.com                      |
|    \\/     M anipulation  |                                                 |
\*---------------------------------------------------------------------------*/
FoamFile
{
    version     2.0;
    format      ascii;
    class       volScalarField;
    location    "5";
    object      nut;
}
// * * * * * * * * * * * * * * * * * * * * * * * * * * * * * * * * * * * * * //

dimensions      [0 2 -1 0 0 0 0];


internalField   nonuniform List<scalar> 
100503
(
5.66e-08
4.831e-08
8.025e-08
1.31e-07
4.877e-08
4.818e-08
1.351e-07
1.366e-06
1.291e-06
8.278e-08
2.271e-06
1.297e-06
5.427e-06
5.358e-06
1.736e-06
6.639e-06
9.757e-06
2.285e-06
3.065e-07
6.426e-06
7.35e-06
7.151e-06
5.78e-08
1.672e-06
6.609e-08
8.259e-06
9.258e-06
0.0009222
0.0001211
5.377e-07
5.826e-08
0.0004007
0.0004283
5.112e-06
0.0007485
0.001251
5.151e-06
0.002276
55.83
0.0001328
5.133e-06
0.0004549
1.654e-07
0.0007316
0.0008115
0.001613
0.00144
0.00078
2.673e-05
0.0009412
2.181e-05
2.794e-05
0.002734
0.0005529
0.0007477
0.000512
0.0001783
0.001764
0.0002031
0.0001084
0.0004575
0.001457
2.208e-05
1.229e-05
7.533e-06
0.0006404
0.0004504
0.001861
6.621e-06
0.0002683
0.0004195
3.882e-05
0.0007218
0.0009437
0.0007238
3.785e-06
0.0001984
84.91
87.02
1.218e-05
0.001243
9.303e-05
0.0007652
0.0004541
0.0005783
56.25
0.001019
0.0002343
1.483e-05
0.0001317
0.001714
0.001904
0.001251
0.0004553
0.000453
2.091e-06
0.0004859
0.0001821
85.21
87.34
0.00165
5.349e-07
6.658e-05
4.075e-06
0.002761
0.000454
0.0006003
9.389e-07
0.00135
6.068e-06
1.485e-05
0.0007668
0.0005724
0.0002102
0.0008346
1.166e-05
0.001712
0.0002735
0.0009276
0.0006525
0.001607
5.854e-05
2.172e-05
0.0006038
0.0007671
3.383e-06
0.0007285
0.001635
8.424e-06
1.551e-06
0.0005569
0.001834
0.0004461
0.00049
0.0006469
0.0003491
3.238e-06
0.0003928
0.0001977
0.0005425
0.0004647
0.003531
1.972e-05
0.0008932
0.0002055
2.238e-06
0.0004729
5.619e-05
3.437e-06
0.0004527
0.0002309
0.00105
0.0004521
84.63
2.089e-05
9.962e-08
0.0005561
0.001418
0.001321
1.431e-06
3.232e-06
6.833e-05
2.119e-05
0.0007729
0.0001664
0.0005842
0.0005824
0.000452
0.0004679
0.002332
0.0004419
0.0005682
0.0006663
0.0002605
0.0004544
9.315e-07
2.699e-05
75.67
0.001562
0.0001242
0.0004642
0.0002775
0.0005508
9.653e-05
0.001568
5.604e-05
0.0004462
2.289e-05
3.79e-06
9.425e-07
0.002211
0.0001531
0.001936
0.0004532
0.0002273
0.0007751
0.0004897
0.000456
0.0007156
0.000181
0.0001074
1.157e-05
1.164e-05
0.001288
0.0009698
0.0002107
0.000908
3.433e-06
0.0005005
2.102e-05
0.0003762
2.245e-06
4.284e-06
0.001764
0.0002852
0.0006587
0.0009954
0.000454
9.366e-06
3.192e-06
0.0002604
0.0006077
46.16
7.006e-05
4.123e-06
4.022e-05
0.000313
1.835e-06
0.0002301
0.000465
8.42e-05
5.131e-06
5.59e-05
0.001922
0.0007355
6.84e-05
0.002168
0.0004575
5.339e-05
0.0002207
1.768e-06
0.0001836
7.56e-05
0.0005338
0.0001856
75.89
0.000416
0.0004521
0.0002286
0.001936
0.000454
7.029e-07
0.0004557
0.0009834
0.0004535
0.0009638
0.0001441
0.001424
0.0008718
0.001091
1.761e-06
2.259e-05
84.35
0.0001388
0.0002185
0.0003557
4.088e-06
0.00356
0.0001661
0.001484
0.0002716
0.001473
1.664e-05
0.0003481
0.000422
0.0003096
0.00012
0.0004787
0.0002131
0.000254
4.086e-06
9.36e-06
0.0004271
0.0006115
0.0006719
0.0004608
0.0003859
0.0004419
0.0004468
4.408e-06
0.0017
0.0007907
0.0004672
0.0008198
1.779e-06
4.341e-06
0.001288
0.0002304
4.512e-06
0.000884
1.343e-05
7.469e-05
0.0004595
0.001491
0.0003033
0.000821
0.0006093
7.354e-06
0.0004653
0.0004553
0.0004604
8.428e-06
8.026e-06
0.0009833
0.0007557
0.0001346
0.0007826
0.000542
0.0002301
0.001825
0.000124
0.0006296
0.0003092
0.001013
3.518e-05
0.0004539
0.0002113
0.0006154
0.001451
1.291e-06
0.001939
0.001546
0.0006299
77.65
1.95e-06
0.001064
0.0005729
0.0004525
0.0004643
0.000816
79.1
0.0004441
0.0001243
0.001795
9.316e-05
77.04
0.001485
0.0004953
4.172e-06
3.283e-06
2.792e-05
0.0005628
0.0001155
4.695e-06
9.862e-06
77.53
85.81
0.000454
3.13e-05
0.0001876
0.0005337
7.723e-05
0.001887
1.924e-06
0.0008173
0.0008332
1.92e-06
2.864e-06
0.0008188
0.0004594
0.0003505
0.00175
0.0008566
0.0004526
0.0001861
4.732e-05
0.0002276
0.0004542
0.001636
0.000326
0.0005581
0.0005899
0.0001858
0.0009531
0.0004863
0.0004501
0.0009632
0.00174
0.0001021
0.0004277
0.0004558
0.0004653
3.51e-06
5.058e-06
0.0008266
0.000421
0.0009139
0.0004505
4.586e-05
0.000309
0.0004045
6.153e-06
0.0001301
0.001042
8.247e-05
4.686e-06
0.0004806
0.0008976
1.526e-05
0.0008481
7.08e-06
6.116e-07
0.002279
0.001421
0.00158
0.000445
3.788e-06
0.000108
85.62
0.0007178
0.0004688
0.0002228
0.000697
0.001102
0.0002153
0.001031
0.003428
0.003188
4.407e-06
0.002809
0.0003318
0.003308
3.925e-06
0.0004548
1.558e-06
0.0004693
0.000659
0.00142
0.000458
1.358e-07
0.001476
0.0009066
0.0004096
9.578e-07
0.0006723
4.565e-06
0.0006
4.177e-06
0.0004465
8.109e-05
5.501e-06
2.281e-05
0.003601
0.0004585
8.531e-07
0.0005209
0.0004448
0.000202
0.0007864
7.003e-06
4.764e-06
0.0004598
6.127e-05
1.944e-06
0.0002064
1.559e-06
1.332e-05
0.0006189
0.0003034
0.001421
0.00128
0.000151
0.001096
0.0009044
7.799
1.629e-06
0.000708
0.0005087
0.0001051
8.351e-05
0.001058
0.0007877
0.0002339
0.00103
0.0002985
0.001333
0.000572
0.0004534
0.000454
6.076e-05
9.892e-06
0.001026
0.0004545
0.0005321
0.0006294
0.0004555
0.001243
4.645e-06
0.004572
0.0004625
0.0009862
0.0004574
0.0008198
2.549e-05
0.001663
0.00104
0.001242
6.704e-05
0.0004596
0.000733
79.5
0.0004884
0.0005202
0.0001139
45.27
0.0004535
7.256e-05
0.0001897
3.366e-05
0.001361
0.002222
0.0001272
0.0004292
0.0004873
0.000443
0.001495
0.0005155
0.0004716
0.0007273
0.001288
5.405e-05
0.0002434
0.0007904
0.0004372
0.0007836
0.00107
0.0004259
0.0004582
1.796e-05
0.0009553
1.177e-06
4.647e-05
0.001856
0.00192
0.0009008
0.0007316
8.947
0.0003638
3.53e-06
0.001583
4.516e-06
0.0003124
0.0004503
3.508e-05
0.00066
0.00104
0.0005598
7.482e-05
4.478e-06
0.001056
0.001347
9.349e-06
0.0004216
0.0002673
0.0009928
0.0001239
3.276e-06
6.376e-06
0.000454
0.0002982
0.0004573
0.00067
4.516e-06
0.0004499
9.614e-05
0.001105
0.000454
0.0005977
0.0004761
0.0004458
0.0006067
67.34
0.0006428
0.001597
77.5
0.0008477
7.019e-05
0.000493
0.0004748
2.08e-05
0.0004644
0.001509
0.0004213
2.334e-06
6.082e-06
0.0003751
0.0003791
0.0008405
0.0004446
0.000665
0.0004471
0.0001681
1.186e-05
0.001
0.000525
3.24e-05
0.0001163
0.0004461
0.0004498
1.535e-05
0.000634
0.0004368
0.0008417
0.0004358
0.0006034
0.0002389
6.733e-06
0.0003943
2.957e-06
0.0004427
3.919e-05
0.001471
0.0008932
0.001178
84.76
0.0001987
0.0003237
0.001849
0.0009564
0.001032
0.0001924
0.0004498
0.0007466
0.0003177
0.0006439
0.000452
0.0004756
0.0004527
0.0002096
0.0009535
0.0004515
0.0007895
0.0002891
0.0002038
0.002427
9.367e-06
0.000661
8.331e-05
0.0002938
0.0001911
0.0008215
0.0005278
0.0004599
0.0009021
0.0006086
0.0004469
0.0002878
0.0004517
0.0008
0.0005626
0.0004516
0.0003996
0.001343
0.0008847
0.0004497
0.0004594
0.0004001
0.0007541
0.0006434
3.036e-06
0.0008714
6.042e-06
0.001095
0.0001382
66.75
2.102e-05
0.0008984
0.0008867
0.0004154
0.0005151
0.0004523
0.0007382
0.0005143
8.89e-06
0.0007788
0.0001222
5.909e-05
0.0001512
0.0001177
0.001018
0.0004603
0.0008287
0.0004426
3.342e-06
0.0009336
0.0001415
3.852e-06
0.0004851
0.000452
0.002633
0.001031
3.465e-05
0.0004816
0.0001672
0.0002273
0.001482
0.0006541
0.0004539
0.001104
0.0003248
0.0006696
0.001798
1.305e-05
23.6
1.19e-05
0.0004558
0.00127
0.0004647
9.353e-05
0.0004509
0.0002039
0.002196
0.0004646
0.000246
0.0004616
3.909e-06
0.0001393
3.407e-05
0.002371
0.0002901
3.976e-06
9.531e-05
2.702e-05
0.0001558
0.0004395
0.0004462
0.0004503
4.461e-06
25.65
0.0004193
0.002382
0.0007893
7.65e-06
0.0001029
1.197e-05
2.711e-05
0.0007049
2.152e-06
8.151e-05
25.29
4.97e-05
1.374e-05
0.0003775
0.0001954
0.001754
9.169e-06
0.0009095
0.0004546
0.0004093
0.0008761
0.0002237
0.0001582
0.002024
6.352e-06
7.175e-05
0.002116
0.001285
0.0008205
3.753e-06
3.321e-05
0.0001463
0.00176
0.0002343
0.0009149
0.000217
26.39
0.0004543
0.0004097
0.0001148
2.221e-05
0.002416
0.003526
0.001175
0.0004771
0.001815
3.893e-05
4.149e-06
0.000617
0.0004522
25.98
8.54e-05
4.124e-06
49.73
0.0003214
5.432e-06
0.0004701
2.03e-05
1.71e-06
1.2e-05
0.000459
8.012e-06
4.858e-06
0.0007648
0.001288
6.389e-05
2.065e-05
2.34e-05
0.00044
0.000116
0.001938
0.0004547
0.0001404
0.0004548
0.0004636
0.0002448
0.001234
0.001587
0.001203
0.0008889
79.49
0.0007646
1.6e-05
0.0005032
0.001936
0.0009873
0.0004546
6.433e-06
0.0003912
2.995e-05
0.002634
0.0004624
1.784e-07
0.0004577
0.0007843
0.0001917
0.003164
0.003773
4.442e-06
0.001279
0.0002815
3.975e-06
0.0003754
0.0002745
0.0007872
4.817e-06
0.002582
5.679e-05
0.0004569
0.003692
5.753e-05
8.384e-05
0.0007892
0.001332
0.0004504
2.039e-06
1.138e-05
0.0002864
0.0001866
52.21
0.0008731
0.0001178
0.002626
2.117e-06
0.00301
9.924e-06
0.0001107
0.0007121
0.0004731
0.0004065
3.754e-06
41.06
40.17
0.0005579
0.0003252
0.0005425
0.0008818
0.0003333
0.002349
32.39
0.0004524
7.591e-06
8.22e-05
6.946e-05
0.0007336
0.001197
6.786
24.72
0.0004539
6.251e-05
0.0001438
0.0007153
3.737e-06
0.001265
4.658e-06
0.0004554
7.281e-05
0.0009468
0.001062
7.026e-05
0.0004508
6.799e-06
0.0004549
4.361e-06
83.46
0.0005177
7.971e-06
2.283e-06
6.014e-07
0.0002134
0.0001729
8.073e-06
0.0001537
0.002215
0.002012
0.001108
0.0005034
1.503e-05
2.063e-05
0.0003784
6.325e-06
0.0006746
2.194e-06
6.995e-05
84.66
0.002081
0.0001344
7.387
7.241e-06
4.557e-06
0.0002692
0.0002635
9.849e-06
0.0004419
2.101e-06
0.002011
0.0004118
0.0004466
0.00152
0.0008786
0.0002165
5.578e-05
0.0003324
0.001438
4.446e-06
0.0002102
9.805e-06
0.000437
0.001713
3.9e-05
0.0004537
0.0004524
0.000439
0.002109
0.0001677
0.001331
0.0005398
0.002697
0.0004188
0.0009942
0.0006243
0.0002551
0.001281
6.121e-05
0.0002048
0.0007286
2.809e-06
5.77e-06
0.0004756
0.001258
0.0004538
0.000302
0.0008549
0.000468
0.0003464
0.0003413
0.000248
0.002561
0.001156
0.003545
0.0001141
0.0004564
0.0001808
0.0001478
0.0001399
4.882e-05
5.351e-05
0.001381
0.0001142
0.003653
0.0004597
0.0001338
0.0004869
0.0004724
0.0006304
0.0003791
0.0007795
86.05
85.39
0.000453
0.0001411
0.0001204
0.001907
7.369e-05
0.0008428
0.0007499
0.001976
0.000888
7.299e-06
0.0002762
1.986e-06
0.0002137
0.0004545
0.0001829
0.0006831
3.893e-05
0.0004521
0.0006392
9.576e-05
0.0004215
3.2e-06
0.0004553
0.0004534
0.0006528
0.0007878
6.2e-05
6.979e-06
0.0006116
0.001187
0.001564
0.0002676
0.000459
3.537e-05
5.093e-05
84.26
0.000457
8.32e-06
0.0006371
0.0002871
0.000117
0.0004102
7.237e-07
0.0002813
0.0009296
0.001068
0.0001439
1.011e-05
0.0003797
0.0002307
0.0003003
0.001211
0.0006005
0.0007512
0.0004643
0.0003771
0.0004389
1.499e-05
0.0001841
6.936e-05
0.0006349
0.001465
0.0004585
4.318e-05
0.0004826
0.0005693
4.131e-05
0.0002656
0.0004738
0.000586
0.001025
0.0008914
0.0001676
0.0009295
6.025e-06
0.000116
0.0005716
0.0002712
0.0006408
0.0005736
0.0004785
0.0004534
0.0006471
0.001274
6.14e-06
1.114e-05
0.003196
0.0004182
0.001101
0.0001844
0.001248
0.001098
0.000464
0.0009981
0.0001772
3.684e-05
0.0004651
0.001043
0.000287
0.0002492
0.0001981
0.0007001
0.001394
1.162e-05
0.001006
0.0006509
0.0004505
0.000794
9.556e-05
0.001349
78.9
6.423e-05
0.0004541
0.000462
1.032e-06
0.001863
7.046e-07
0.000531
0.0009347
0.000847
0.6156
0.0007878
0.0007334
0.0004449
0.0005064
2.002e-05
3.787e-06
2.035e-06
0.0005373
3.232e-06
72.63
3.392e-05
0.001068
0.001159
0.0009708
0.001153
0.0004568
0.0002701
0.0006708
2.361e-06
0.0007893
5.954e-06
8.232e-05
0.002718
0.0004512
0.0004687
2.332e-06
0.001562
1.498e-06
3.196e-06
0.0005409
2.577e-06
35.84
0.001045
0.0004545
0.003363
0.0004018
3.577e-06
0.0004484
0.0003868
6.468e-06
0.0006867
0.001477
24.21
0.0004567
78.94
0.0008211
0.0007289
8.39e-05
8.637e-05
0.0006546
5.881e-05
0.0004599
2.985e-06
0.0006257
0.0001606
0.002362
4.694e-05
74.98
0.0001375
5.37e-06
0.001758
0.000174
1.429e-06
0.000461
1.695e-06
9.124e-05
0.0004721
0.000392
36.94
3.53e-06
0.0006728
0.000452
0.0001974
0.0008649
24.01
0.0001596
0.000325
0.0006945
8.575
0.001132
0.0005456
0.0007144
0.0002693
0.0004591
1.112e-06
0.0002886
0.0009049
0.000661
0.002319
0.0004626
0.0001206
1.081e-05
0.001274
0.003296
0.0008588
0.0004815
0.0001696
0.0004478
0.001747
0.0002388
6.258e-05
0.0007399
0.000601
0.0004346
0.002427
0.001073
0.000893
0.0001087
0.0003119
74.71
0.0004638
0.001832
0.0005575
0.0004548
6.602e-07
0.003027
0.0008008
6.598e-06
0.001161
0.0004799
0.003095
0.000787
0.0002022
5.032e-06
0.0004564
0.000459
7.843e-05
1.265e-05
0.0004872
0.002521
0.0006293
0.0004515
0.0001726
0.0004564
0.0002213
0.0001715
0.0006341
57.71
5.82e-06
0.0008552
0.0004578
22.36
64.47
0.0004526
0.0004941
1.012e-06
1.83e-06
4.921e-06
0.0004344
7.257e-06
0.001989
0.0001958
1.374e-05
3.921e-06
0.0004602
5.455e-06
0.0002817
0.001179
0.000146
0.001368
0.0004465
51.97
6.606e-05
0.0002285
0.0001179
2.466e-05
0.000644
0.0006887
0.0004512
0.0004156
0.000368
1.529e-06
0.001053
0.001234
0.0008527
2.903e-05
0.001354
32.94
4.459e-06
0.001351
5.864e-05
69.75
5.346e-06
0.0001399
0.0004592
3.07e-05
4.596e-06
0.0002827
2.731e-05
8.36e-06
0.0004594
7.658e-06
0.0005955
7.214e-05
8.199e-06
0.0004529
1.99e-06
0.0002514
25.18
0.0005888
2.831e-05
85.23
0.0004303
0.0009019
0.0004398
4.032e-05
70.71
0.00117
1.213e-05
0.001154
4.45e-05
0.0004579
64.92
0.0004557
0.0001031
0.001307
0.0001576
0.001403
1.173e-05
2.241e-06
0.0001287
1.89e-06
0.003158
0.0001055
0.000574
0.001551
0.0004574
0.0004512
1.512e-05
0.0012
4.649e-06
0.0002178
0.0008107
4.89e-05
1.676e-05
0.0002664
2.613e-06
0.002758
0.0004461
0.001005
25.09
4.229e-06
5.935e-05
0.0004808
6.567e-05
0.0007667
0.000985
0.001028
0.0001891
0.0001553
0.0008349
6.71e-05
0.000663
0.0001334
0.0002293
2.331e-05
0.0008679
0.0008975
0.001443
0.00108
6.4e-06
0.0002908
0.0004753
8.115e-06
0.0002387
0.0004479
0.0006609
0.0007915
7.87e-05
0.001156
0.001716
0.0001792
9.574e-05
0.0004594
6.916
0.0002648
3.618e-06
44.25
0.001612
6.345e-05
6.838e-06
0.001221
4.81e-06
0.0001204
0.0003961
3.984e-05
0.001628
0.0006581
1.426e-06
0.001054
0.0003996
0.0007822
0.0003242
0.0001621
1.603e-05
1.756e-06
0.0004549
0.0009295
0.0004042
0.001045
0.0007732
0.0003966
0.000321
1.164e-05
0.0003884
0.001112
0.0003358
0.0006174
9.225e-06
0.0006889
0.001958
0.001422
6.076e-06
0.0004556
0.001259
0.001361
8.179e-06
0.004497
0.0004419
0.0004464
0.001242
2.598e-06
69.34
0.0008544
0.002247
0.000386
0.000256
3.968e-05
1.303e-06
0.0001149
0.0002775
0.000177
1.572e-06
0.0004406
0.0004047
0.0002164
0.000454
0.0004565
0.0001359
0.0005029
8.387e-06
5.87e-05
1.185e-05
3.021e-06
5.353e-06
74.55
0.001081
0.0005813
5.553e-06
0.0006368
3.923e-06
0.0004523
0.0006514
0.001392
6.838e-05
0.0003889
0.001155
0.0004442
0.000733
0.0004083
6.718e-06
0.0001435
0.000453
0.0002027
0.0008256
3.394e-06
0.000629
0.0001225
0.0008451
0.0004508
0.000486
0.0005676
79.46
0.0002174
2.77e-06
0.0004131
1.109e-05
0.0004425
0.001076
0.000456
0.001287
0.003745
0.001318
3.08e-05
0.0001183
0.0004533
0.0006095
0.0001115
0.0001097
0.0002162
7.758e-05
0.0001697
4.804e-06
4.147e-06
7.517e-05
52.57
1.144e-05
0.001381
5.291e-05
0.001841
0.0003235
0.0008037
2.084e-05
6.538e-07
0.0004442
0.0013
6.658e-05
0.0004655
0.001396
0.0003383
0.0002849
0.0001607
0.0005475
2.806e-05
0.0005441
0.0009083
7.621e-06
0.000946
0.001142
0.0001043
0.0004556
0.0004651
0.000541
0.0009313
7.602e-05
0.0004558
82.45
0.001225
0.0004527
4.668e-05
79.59
0.0005234
0.002985
0.000256
3.553e-06
0.0004774
0.0002102
0.001228
0.00076
0.0007488
1.497e-06
0.0005341
0.0005146
0.001297
0.002764
0.001544
2.763e-05
0.0006187
0.0007731
0.0001337
0.0009796
0.0001734
0.0002162
3.883e-06
0.001537
1.351e-05
0.0008587
0.0004879
0.001524
1.493e-05
2.12e-05
0.000268
0.00101
0.0002863
0.0001991
8.865e-06
0.002771
0.0004315
3.172e-06
0.00139
0.0006803
0.0009287
0.0004051
0.0008332
0.001443
0.0001084
4.186e-05
0.003325
0.0003114
0.0004017
0.0004554
3.232e-05
1.32e-06
0.0001241
0.0004523
4.125e-06
0.0002645
0.0004585
0.0005684
0.000203
3.118e-06
0.0004345
0.0005564
0.0005363
0.0004834
6.817
0.0005831
0.002064
0.001239
0.0005442
0.0005341
5.9e-05
0.001082
1.109e-05
0.0004511
0.0004489
0.0004579
4.993e-05
7.814e-05
0.0004717
3.113e-05
5.002e-05
26.97
0.001888
0.001828
0.0005079
0.0004533
0.0004535
0.0004542
0.001321
0.0001458
0.0004079
0.001018
0.0003998
0.001314
0.001136
3.234e-05
5.353e-05
0.0005252
5.673e-06
0.0001979
5.384e-05
0.001691
0.0002159
0.0006236
0.000631
0.0008639
0.0001674
0.001137
0.0007083
4.007e-06
0.0004494
0.0005757
2.284e-06
0.0001297
0.0005734
0.0004569
0.0007272
0.0009954
0.0005388
0.0003525
5.235e-05
0.0006467
0.0002386
0.000455
0.001083
0.00105
0.000308
0.001977
7.691e-05
0.0001945
0.0007061
1.429e-05
1.402e-05
0.0006797
7.83e-05
0.0004836
0.0009492
0.0004573
4.606e-05
0.0002283
5.925e-06
0.0004535
0.002577
0.0007633
0.000454
0.0004962
0.0001907
20.69
0.0005763
0.0004513
3.505e-06
1.873e-05
0.0004553
0.0003677
5.986e-05
0.0001016
9.799e-07
0.002071
0.001442
0.0004906
3.759e-06
0.0008262
6.409e-06
5.96e-06
0.001226
0.0004545
0.001118
5.146e-05
0.001136
0.001713
8.232e-05
0.0007365
1.315e-05
0.0002707
7.582e-06
0.0004586
0.0003215
1.606e-05
0.0009845
0.0002854
3.805e-05
0.002338
0.0005959
0.000495
9.299e-05
1.916e-06
9.99e-05
0.0005498
4.819e-06
0.0001592
2.488e-05
0.0001599
27.27
0.0001865
8.441e-06
3.397e-06
0.0007697
7.311e-05
6.57e-05
0.0006082
0.004937
3.231e-06
0.000543
75.35
0.001345
0.0004637
0.002604
0.002007
0.0004498
0.001882
0.0004559
0.000998
3.056e-06
0.0003225
0.001749
0.0004515
0.0008447
0.002327
2.636e-06
0.000895
0.0007005
0.0001618
0.0004557
0.0009205
40.34
0.0008416
0.001444
5.511e-06
0.001191
32.2
0.0001395
0.0007595
0.0009499
6.549e-05
0.0002008
0.002388
0.0003882
0.000398
0.00149
0.0007718
0.0003545
0.0002049
3.265e-06
0.0006237
0.0006642
65.66
1.32e-05
0.0008313
0.0004544
0.0002634
5.426e-06
0.0006065
0.001903
0.0008407
4.459e-05
0.0004592
1.241e-05
0.0004877
6.331e-06
3.805e-05
84.79
0.0004195
0.00156
8.118e-06
0.0004576
1.324e-06
8.141
0.0007254
0.0004301
0.0004626
0.0008134
1.479e-06
0.0009638
3.48e-05
46.12
0.0003135
0.002017
4.13e-06
0.001484
85.93
5.681e-05
80.4
70.03
6.258e-06
0.0002267
5.779e-06
0.0001797
0.002194
8.971e-06
0.0004539
0.0004743
5.14e-06
8.207e-06
6.188e-06
4.058e-05
2.548e-06
0.0004537
0.0002681
0.0004577
0.001632
0.001139
3.533e-07
0.0004582
0.002029
0.0002177
15.32
0.000454
0.0004572
16.97
0.0004481
0.000381
0.0004583
0.0005935
0.00176
0.0006688
0.001071
0.0004584
2.236e-06
0.0003208
6.947e-05
38.98
0.0002974
0.0003389
0.0004587
9.674e-07
0.0004662
2.509e-06
7.629e-06
0.0009896
67.21
67.91
0.000454
3.839e-05
0.0001119
12.99
0.001224
0.000737
0.0004277
1.049e-05
0.0001252
0.001036
84.87
3.19e-05
3.165e-05
0.001432
0.0003951
66.45
3.891e-06
0.0007518
0.002848
0.0009127
0.0002894
8.869e-06
0.0004686
0.002035
0.002956
0.001075
0.0006863
0.0001087
0.0003493
0.002265
0.001707
5.161e-06
0.00113
0.0004547
0.0007301
0.0001786
0.0004569
2.041e-06
0.001186
1.087e-05
0.001772
0.003562
0.0003981
0.0002058
6.329e-05
0.0002178
0.0003169
0.0003439
6.131
0.0009164
4.546e-07
0.001391
1.565e-05
0.001567
0.0002565
6.405e-06
0.0004504
0.000721
0.0009935
0.0001421
0.0004511
61.37
0.0005256
0.0003016
3.471e-06
0.0006837
0.0004432
0.0007509
0.0009855
0.0002053
0.001158
9.559
2.357e-06
0.0004671
0.0001412
0.0004658
7.519e-05
0.002382
1.534e-05
0.0004541
0.001078
2.355e-05
0.0004528
0.0004763
4.755e-05
0.0003553
0.0003803
0.001062
0.0009917
0.000454
0.000721
75.32
0.0005434
1.07e-05
0.002651
0.001269
0.0002351
72.43
8.138e-05
0.0001291
0.0002252
8.352e-05
32.34
0.0003046
0.00136
0.002813
0.0005251
6.49e-06
0.0003234
1.305e-06
3.602e-06
6.606e-06
0.0001933
3.893e-06
0.0006653
0.002048
0.0001007
3.394e-06
83.67
2.32e-05
0.0001254
1.473e-05
0.0001365
0.001492
0.001495
0.0004226
0.0005922
0.0004526
57.29
0.0009117
0.0008541
35.87
63.55
0.0001526
0.0002851
72.94
0.0004533
0.0008367
0.0004537
0.0009488
0.001463
0.0002848
0.001112
4.322e-07
0.0003536
0.001663
0.000106
0.002691
0.001628
0.0004574
0.0002198
0.0001995
1.029e-05
0.000261
8.878e-06
0.0004569
0.001175
0.000266
0.0001476
0.0007581
0.0009759
9.723e-06
0.001317
0.0002225
0.0004534
0.0001759
0.0004683
0.0001598
0.0004095
0.001293
0.001192
0.0002151
0.0004634
0.001045
0.001006
0.0002696
0.00238
1.375e-05
6.518e-05
1.684e-06
0.0004477
0.0006805
8.475e-07
73.18
0.0004604
0.0009958
0.000362
0.0009135
1.25e-05
4.573e-06
0.0004567
0.000457
0.0002135
2.961e-05
2.501e-06
0.0004549
2.803e-05
39.85
0.001236
5.105e-06
1.791e-05
0.0005799
0.001769
8.935e-06
0.0004454
2.617e-06
7.686e-06
0.0004536
0.00031
0.0004817
0.001289
0.002034
2.614e-06
8.004e-06
1.266e-06
3.075e-06
0.0004575
0.001651
0.0005187
0.00214
0.0005243
0.0015
3.049e-06
0.003427
5.04e-06
0.000458
0.0008489
0.0009474
0.002147
0.0003384
0.0007134
4.036e-06
0.0003987
0.0002051
84.6
0.0004552
0.0004556
5.264e-05
5.594e-06
6.364e-06
0.0003687
0.000654
8.076e-06
0.0008649
0.001277
2.928e-06
4.165e-05
2.066e-06
34.78
0.001331
0.0001174
0.0001802
0.001927
0.001702
48.4
5.67e-06
0.0001495
2.416e-05
0.0003821
2.767e-05
0.003032
0.001907
9.487e-05
0.0008761
0.001374
0.0004506
0.002213
0.001614
0.001074
1.438e-06
6.425e-06
7.883e-05
7.73e-05
8.175e-06
3.907e-06
0.001152
2.083e-05
0.002876
0.0003704
0.0003468
0.00103
2.138e-06
0.0004825
0.000333
0.00122
0.0006959
1.734e-05
0.002314
0.0009821
2.588e-06
2.851e-05
0.0003431
0.0002114
1.001e-05
2.271e-05
0.0004525
0.001066
0.0004533
0.0001031
0.0006109
1.594e-05
4.641e-05
2.791e-05
9.646e-05
2.047e-06
0.0002068
0.001694
33.02
1.027e-05
0.0004734
0.0005121
0.00182
0.001044
0.00068
0.000813
5.142e-06
0.0008078
8.93e-05
0.0004516
0.0004543
0.0001622
0.0005234
75.18
0.0004438
7.097e-05
0.0009376
0.001037
4.542e-06
1.23e-06
3.92e-05
0.0004599
0.0002929
0.001788
0.000906
0.002098
3.749e-06
3.527e-05
49.09
2.635e-05
0.001733
0.0005425
0.0001447
53.53
0.000456
8.482e-05
0.0007032
6.907e-05
4.882e-06
0.0004416
0.0001333
0.002017
0.001062
40.07
3.607e-05
0.0001347
41.45
0.0006503
35.27
0.0004465
0.002338
2.785e-05
54.21
79.91
82.46
0.0004643
0.0008918
5.271e-06
4.406e-05
0.0001807
0.00224
5.24e-06
2.593e-05
0.0004415
0.0005333
0.0006244
0.001285
0.000452
8.188e-06
5.777e-06
0.0008708
20.77
0.002611
4.732e-05
9.764e-05
0.0009597
0.001227
0.0004596
0.0004234
0.0006047
4.436e-05
0.0004497
0.0005442
0.0004536
0.0003191
2.874e-05
0.002675
0.0008958
5.237e-08
3.188e-06
75.36
0.0004565
0.0005207
7.945e-05
0.0004442
0.000239
0.0004849
22.45
0.0004198
0.000877
0.0008018
0.00062
0.001634
0.0002246
5.252e-06
0.0004632
0.0007336
0.0004575
0.001357
0.0001336
86.2
3.427e-05
0.0001537
0.001843
5.078e-05
0.0008963
6.199e-06
0.0007364
0.0001249
0.001004
0.0001129
2.59e-05
0.0009037
5.514e-06
0.0001728
0.000158
0.002233
0.0004522
79.79
1.498e-07
0.0004458
0.0007329
1.004e-05
2.337e-06
5.882e-05
0.0007423
0.001034
0.00118
0.0004521
9.083e-05
2.695e-05
0.002582
0.0002457
15.03
0.0004271
5.78e-05
0.0002965
2.124e-06
0.0001554
0.0005056
2.125e-06
2.641e-05
0.0009793
5.307e-06
2.086e-05
0.0007894
2.563e-06
3.178e-06
0.0009184
5.547e-05
41.9
0.0003673
0.0004653
44.5
0.0002826
0.0007699
3.512e-06
0.00102
9.355e-05
0.0002521
0.001533
0.0002368
0.001037
3.6e-06
0.001232
4.509e-05
0.0007784
0.001663
0.0008383
0.001095
0.0008005
81.84
2.7e-06
0.0008443
4.543e-05
7.769e-05
8.116e-06
0.0005839
0.0004576
6.279e-06
0.0008243
4.011e-06
0.0002039
0.0008004
30.65
0.002486
2.314e-05
0.0009291
2.816e-05
0.0002201
6.898e-05
1.362e-06
0.0002083
0.0002238
0.0004503
1.927e-05
2.299e-05
0.001728
0.000504
2.055e-05
0.0004661
0.0003504
0.001302
0.0001864
0.0002403
0.0002062
0.0004609
0.0004545
1.063e-06
0.0009507
0.0008411
0.0001042
0.001332
7.692e-05
0.0004915
0.0009095
0.0004545
0.0005829
0.000217
0.002355
2.247e-06
9.804e-05
0.0004651
0.0005577
0.0004636
1.399e-06
0.0006142
26.65
0.002235
0.0001599
6.89e-05
0.0003461
0.0003536
0.0004239
0.0001728
1.38e-06
0.0006084
0.0002624
0.001236
0.0006755
8.563e-05
0.0004491
9.253e-06
0.0004606
1.018e-05
0.0001867
0.001584
0.0005864
0.0004676
0.0007435
4.101e-06
0.0002238
0.001919
0.0001037
0.000243
5.147e-06
0.0004418
4.871e-05
1.087e-05
0.0008964
22.26
5.567e-05
0.0004549
0.0004487
0.0009033
8.19e-05
1.303e-05
7.072e-06
0.0004158
6.577e-06
9.513e-05
0.000457
0.0009296
82.13
0.00047
7.854e-05
7.764e-06
0.0005354
0.0004518
0.0004699
2.536e-05
0.0002616
3.312e-05
5.524e-06
0.0004267
2.985e-05
0.0001303
0.0001906
82.8
67.31
0.0009691
0.0009479
0.0004164
2.329e-05
4.127e-06
2.479e-06
3.624e-05
0.0009222
0.0003898
6.826e-05
0.002088
6.112e-06
1.682e-05
6.235e-05
0.001986
85.81
0.0004579
43.13
6.728e-06
0.0004541
0.0001079
0.0002609
6.387e-05
9.641e-05
5.55e-05
0.0009759
4.408e-06
5.524e-06
4.787e-06
0.0004513
3.087e-06
0.001538
0.0006722
17.68
0.00106
7.219e-05
0.00169
0.001374
0.0001653
0.0005732
0.0006291
3.885e-05
4.956e-05
0.0002296
0.0004908
8.294e-05
84.9
68.94
0.001186
0.0005343
0.001649
0.0004512
0.0007424
0.0008065
0.0001737
0.001368
0.0004558
0.0004524
0.001314
2.981e-05
3.128e-06
0.0008627
0.0004661
2.141e-06
3.509e-05
1.13e-05
68.66
6.442e-06
0.0001948
3.89e-05
0.0004761
0.000431
0.0001355
0.0005489
0.0002628
7.662e-06
0.0009887
0.000456
4.7e-05
0.0002635
0.001069
3.818e-05
35.78
0.000942
0.000475
0.0004534
6.219e-05
1.317e-05
0.0002212
1.037e-05
0.001031
8.804e-05
0.001589
0.002571
4.935e-05
0.0008193
0.0009757
0.0002639
0.0005827
0.0004778
0.0001636
0.001053
1.924e-05
0.0005319
0.0008427
0.0007007
1.533e-07
40.49
0.0004602
0.0005946
0.0006513
0.0005204
5.965e-06
0.0008493
0.001527
0.001391
0.00173
0.0001808
0.002593
0.0004307
4.832e-06
0.001031
4.372e-06
0.0007022
0.0004514
0.0006748
0.001291
0.001341
5.958e-05
8.907
0.000733
0.0006354
6.049e-05
0.0006893
49.7
0.0004559
0.0004467
0.0009551
0.0004688
0.0005991
47.31
3.107e-06
0.0002949
3.839e-06
8.409e-06
0.000232
3.119e-05
1.936e-05
0.0004451
1.284e-05
3.762e-06
0.002073
0.0009713
0.0006841
0.001132
0.0004572
4.415e-05
9.587e-05
0.001059
5.918e-05
1.237e-06
0.0007308
0.0005532
5.089e-05
0.0002964
0.001352
0.000486
0.0004615
0.0004604
0.0008253
4.411e-05
1.26e-05
6.076e-06
1.198e-05
0.0003608
0.0004667
0.0001747
2.437e-05
79.52
8.687e-05
3.376e-05
0.000245
14.35
0.000461
1.624e-05
3.432e-06
0.001009
0.0004539
0.001879
0.0004639
0.000879
1.801e-06
0.0001669
0.001456
0.0009397
0.001498
0.0001727
0.001562
7.216e-06
0.0008842
0.0006039
0.0004574
0.0005497
0.0004646
0.0002352
59.82
0.001644
9.655e-07
0.00114
0.0004542
0.0002835
5.174e-06
5.94e-05
0.001311
4.917e-06
0.0008647
0.0008542
0.0027
0.0009859
0.000454
9.434e-06
0.0004875
0.0009395
6.229e-06
3.887e-05
5.678e-06
0.000455
0.001451
2.009e-06
0.001853
0.0004587
0.0008738
0.0004439
0.0003138
0.0007979
3.488e-06
0.0001669
0.00177
0.00234
0.0004564
6.035e-06
0.001047
3.086e-05
0.0004549
60.57
6.583e-06
0.0004443
0.0001949
0.0001229
0.001058
0.00146
0.0001629
60.62
0.000443
0.0006638
1.484e-06
9.168e-05
0.000448
0.0005983
0.0004627
0.00044
0.0009714
0.0007688
0.001027
0.0007543
1.536e-05
2.508e-05
0.0005254
6.641e-06
0.001955
0.0001935
0.0002582
0.001056
0.0004326
4.76e-05
0.00151
0.001708
0.0001252
0.0004596
9.32e-05
0.000452
6.562e-06
0.0001881
0.0004578
6.089e-05
0.001256
0.001406
0.0001195
0.0001413
0.003093
5.36e-05
5.76e-05
79.91
0.0004772
0.0002221
0.0002108
1.277e-05
0.0005832
0.000333
0.0007442
0.0001417
0.0001103
0.0004529
4.566e-06
0.0003603
0.0001746
9.773e-06
0.0004601
0.0008983
6.464e-06
0.001282
0.0002033
6.153e-06
0.001395
2.361e-05
0.000212
2.258e-05
7.881e-05
0.001554
0.0002204
2.53
0.0001086
2.779e-05
0.0004104
0.001041
2.829e-05
9.506e-06
6.311e-05
4.238e-06
0.0001983
0.0002468
0.0001258
0.0005498
0.0008308
6.934e-06
0.001211
0.0006021
0.0001339
0.0004639
0.001093
0.0004563
6.726e-05
3.715e-06
7.114e-07
0.0004373
1.133e-05
0.0007152
1.458e-05
6.162e-06
0.000627
0.0007511
3.56e-06
2.372e-05
0.002064
3.396e-07
2.028e-06
0.000931
0.001323
3.419e-05
0.001217
0.0007934
3.833e-05
5.141e-06
4.092e-06
0.0004469
0.001179
0.0007526
2.232e-06
0.0002081
0.0004549
4.186e-06
0.0001534
0.0004994
0.0006112
0.0004527
0.0005579
0.0004554
0.0008678
0.0002638
1.646e-05
0.0001983
0.0002953
0.001088
0.001053
0.00104
1.438e-05
0.0002481
0.0003941
1.326e-05
0.0007548
0.0003941
0.0004561
0.0004566
0.000469
0.0001557
69.43
7.839e-05
0.0003932
0.001831
0.001541
0.001625
3.825e-05
0.0001168
8.138e-05
0.0004636
81.29
0.0003368
0.0007087
0.001126
0.0001869
0.0004522
0.0005266
31.58
7.406e-05
0.0007463
0.0008551
0.0001797
0.0005571
0.0001953
0.0008887
0.0005325
0.0004768
0.0008487
0.0004084
5.823e-06
0.0007732
1.858e-05
5.519e-06
0.001667
0.0004613
0.0009389
0.0002838
0.0007692
3.505e-05
0.0002828
0.001057
1.51e-06
5.569e-06
0.0004562
1.431e-06
0.0001494
0.00143
0.0004607
0.0004571
0.004338
0.001266
0.0003804
8.789e-06
0.0002973
0.0009347
0.0005695
1.487e-05
0.0004461
2.489e-06
6.487e-05
3.271e-05
0.0004541
0.0009914
0.001862
4.513e-05
2.228e-06
4.95e-05
0.001116
0.0005297
7.746e-05
0.002037
0.0003419
7.911e-06
0.001552
65.12
0.00101
0.001602
0.000253
46.69
6.068e-06
85.16
1.519e-05
1.498e-06
0.002922
0.003167
3.827e-07
9.585e-05
0.0004533
0.003965
3.1e-05
0.0004964
62.91
0.0004563
0.0001727
1.118e-05
1.256e-06
0.0001852
0.0004561
0.0004593
0.0002792
0.0001127
2.957e-05
0.001153
7.688e-06
0.0005823
4.651e-06
0.0004025
6.145e-06
46.11
0.0001776
0.0007361
0.0005772
0.0001749
0.0004038
2.822e-05
0.001379
0.0007048
0.00065
7.692e-06
1.024e-05
0.0005606
0.0003057
0.000156
5.948e-06
0.0004504
6.542e-06
2.164e-06
0.003185
3.958e-05
0.0007367
6.386e-06
4.651e-05
0.0003492
0.0002238
5.615e-06
0.0005608
0.0004563
0.0004533
0.002021
3.066e-06
0.0002636
0.000119
0.0004768
0.0009024
2.025e-05
50.68
0.001596
0.0005076
0.0001774
0.000455
0.0008105
1.199e-06
0.001254
0.0008007
0.000845
0.00018
0.0004649
0.0001384
0.0002766
0.001046
0.0004662
72.74
1e-05
0.0008753
0.0004418
0.0004874
0.002969
0.0005231
0.001671
0.000867
0.000108
0.0009614
1.167e-06
1.796e-06
0.001015
0.0004565
0.0002212
0.001342
0.0004525
6.171e-06
1.169e-05
0.0008795