/*--------------------------------*- C++ -*----------------------------------*\
| =========                 |                                                 |
| \\      /  F ield         | OpenFOAM: The Open Source CFD Toolbox           |
|  \\    /   O peration     | Version:  v2012                                 |
|   \\  /    A nd           | Website:  www.openfoam.com                      |
|    \\/     M anipulation  |                                                 |
\*---------------------------------------------------------------------------*/
FoamFile
{
    version     2.0;
    format      ascii;
    class       volScalarField;
    location    "5";
    object      p;
}
// * * * * * * * * * * * * * * * * * * * * * * * * * * * * * * * * * * * * * //

dimensions      [0 2 -2 0 0 0 0];


internalField   nonuniform List<scalar> 
100503
(
-0.1729
-0.1721
-0.1696
-0.1686
-0.1723
-0.1732
-0.1691
-1.602
-2.271
-0.1657
-1.308
-1.565
-1.493
-2.101
-1.94
-1.425
-1.987
-1.398
-0.1541
-1.853
-1.507
-1.633
-0.1731
-1.101
-0.1676
-1.535
-1.531
-0.8066
0.1184
-0.1726
-0.1726
0.4829
0.4837
-0.02527
-0.3055
0.2097
-0.02258
-0.201
-0.0003995
0.1182
-0.03846
0.01246
-0.1656
0.1355
-0.8899
-0.1836
-0.02945
-0.8899
-0.01338
-0.7948
-0.1711
0.1372
0.3147
0.4148
0.1353
-1.266
-0.0771
-0.1833
0.1953
-0.1728
-0.03984
-0.5747
-0.1682
0.179
-1.264
0.1149
0.009835
-0.2358
-1.856
0.363
0.06717
-0.1554
-0.215
-0.7938
-0.02872
-0.1102
-0.1772
-5.119e-05
5.417e-05
0.1771
-1.327
-0.1672
-0.06927
0.01283
-0.1904
-0.0002694
-0.1845
-0.2455
0.1938
0.5864
0.2765
-0.2049
-0.2589
0.01144
0.01517
-0.1389
-0.2135
-0.07728
-2.274e-05
2.345e-05
-0.2226
-0.1707
0.0302
-0.1662
0.3175
0.001141
-0.282
-0.1723
0.08019
-0.02551
0.1952
-0.3068
0.4677
-0.04102
-0.1874
-0.1738
-0.1842
0.09311
0.4575
-0.01823
-0.1917
-0.157
-0.1677
0.4693
0.5089
-0.08255
-0.02804
0.1583
0.01524
-0.1422
0.2543
-0.5716
-0.004847
0.001254
-0.5465
-0.09734
-0.1354
-0.1065
-0.1849
-0.05202
-0.06215
0.2977
-0.04837
-0.09669
-0.1703
-0.1231
-0.02686
-0.07015
-0.07636
-0.01114
-1.326
-0.5454
-0.02321
4.433e-05
0.07904
-0.172
0.03017
-0.2225
-0.01751
-0.1695
-0.08446
-0.8423
-0.1728
0.08269
-0.001297
-0.1626
0.4202
-0.02281
-0.06936
-0.2006
0.06754
-0.3737
0.1145
0.4472
0.01423
-0.154
-0.01335
-4.577e-05
0.1482
-0.005093
0.1935
-0.1884
0.09346
0.09594
0.1498
-0.07044
-0.004846
-0.1663
-0.1094
-0.1718
0.2336
0.1153
-0.2256
0.01481
-0.2381
-0.06954
0.002379
0.198
-0.02352
-1.019
-0.1736
0.1577
0.1629
0.2092
-0.8036
-0.1702
0.2915
-0.07583
0.2351
0.07615
-0.1744
-0.1217
-1.085
-0.1837
-0.1884
-0.02299
0.232
0.0003644
0.008545
-0.09269
-0.2045
-0.01821
6.119e-06
-0.167
-0.1722
0.2671
0.5707
-0.1656
-0.0121
-0.0004683
0.06174
-0.03472
-1.419
-0.2017
-0.07191
0.03037
0.3969
-0.03788
-1.614
-0.2335
-0.1313
-0.1684
0.2473
-0.09155
0.005852
-3.051e-05
-0.1913
0.01405
0.3499
0.3861
0.01532
-0.1661
0.005648
-0.05451
0.02412
-0.1925
-0.1075
-1.609
-0.1876
0.1651
-0.13
-0.1728
4.154e-06
-0.04745
-0.2916
-0.3659
-0.1486
-0.1872
-0.001212
0.1079
0.4483
0.1087
0.05876
-0.09683
0.3999
0.573
0.02505
0.08047
0.228
-1.327
-0.1678
-0.001498
0.001702
-0.01789
-0.5469
-0.01794
0.3984
0.00197
-0.005575
-0.04313
-0.2201
0.03737
-0.06787
0.2156
-0.169
-0.1722
0.07248
-0.002144
-0.0486
-0.2231
-0.07048
-0.2042
0.003397
0.1171
0.0935
-0.4762
0.4198
-0.07387
-0.0003763
0.01097
0.1937
0.01576
-1.275
-1.554
-0.173
0.09616
0.08335
0.02996
-0.0022
-0.2042
-0.004943
-0.3371
0.3638
0.07005
-0.1682
-0.004047
-0.1849
0.4139
0.111
-0.1727
-0.2047
0.5273
-0.3775
-2.311e-06
-0.1229
0.001096
-0.1572
-0.01097
0.003399
-0.07693
-9.502e-05
0.003504
0.3471
-0.536
-0.1321
6.295e-05
-0.1796
-0.01622
-1.165
-0.1237
-0.04798
-0.05219
-0.1742
-0.03901
0.009494
-4.302e-05
5.113e-05
-0.002871
0.1416
0.1679
0.07827
0.2477
-0.2336
-0.1416
0.05878
-0.1805
-0.1376
-0.1667
-0.175
-0.004481
-0.1748
0.2757
-0.524
0.01417
-0.0767
-1.801
-0.04067
0.01387
0.1579
-0.3649
-0.07299
-0.1901
0.00659
-0.007321
0.2
0.005954
0.3143
0.1869
-0.1313
0.4005
0.005534
-0.1718
-0.06408
-0.08233
0.2151
-0.1433
-0.4697
0.005854
-1.869
-0.01906
-0.1069
0.4644
-0.1685
-0.2273
-0.0461
-0.03754
-0.02364
-0.09516
-0.1737
-0.1773
0.0353
-0.1732
0.2776
-0.3874
-1.361
-0.00393
-0.08645
0.3072
5.587e-05
-0.1967
0.004483
-0.9496
-0.07859
0.1659
-1.024
-0.003319
-0.1891
-0.004485
-0.08366
-0.7187
0.5412
0.2838
-0.09814
0.006486
-0.141
0.004439
-0.2513
-0.2228
0.007384
-0.1713
0.1059
0.02473
-0.1944
-0.1526
0.05752
-2.178
-0.3641
-0.0995
-0.00551
-0.2043
0.04963
-1.247
-0.1879
0.00746
-0.173
0.2356
-0.003778
0.0286
-0.293
-0.08175
-0.1212
-0.004458
-1.994
-0.1234
-0.001191
-0.1413
-0.01218
-0.1902
0.06238
-0.2504
-0.2226
-0.04681
-0.1772
-0.0777
-0.0008935
-0.1431
-0.1626
0.05503
-0.1673
-0.0459
8.87e-05
-0.2947
-0.01174
-0.01584
0.0004678
0.1514
-0.07501
-0.006199
0.01563
-0.09326
0.007434
0.0709
0.01387
-0.007184
-0.1027
-0.08867
0.05254
-0.1354
-0.1338
-0.05892
-0.05432
0.01436
-0.0774
-0.1744
-0.192
-0.003785
0.05056
0.1345
0.003453
-0.1861
-7.657e-05
0.1478
-1.684
0.3082
0.000279
0.02364
0.0634
-0.1697
-0.1677
0.08112
0.2321
-0.1794
-0.1913
-0.04991
-0.003659
0.1191
-0.03251
0.005601
-0.05803
-0.2602
-0.3983
0.1959
-0.2148
-0.00152
0.004706
-0.2753
0.1334
-0.005694
0.05579
-0.0569
-0.1656
-0.04552
-0.1826
0.2697
0.0248
-0.2562
-0.0001049
0.1654
-0.08231
-1.332
-0.04028
-2.031
0.009562
-0.207
-0.3379
-0.4044
-0.2134
-0.1785
-0.04472
-0.01462
-0.3517
0.0493
-0.1441
-0.177
-0.1924
0.0253
-0.1222
-0.146
0.01308
0.0003706
0.01536
-0.2514
-0.05051
0.006683
-0.844
-0.1845
0.01258
0.2541
-0.1713
-0.004672
0.09347
-4.223e-05
0.01449
-0.5185
8.686e-05
-0.272
-0.1675
-0.01515
0.005269
0.04792
-0.1717
-0.5698
-0.1944
-0.1131
-0.1679
-0.3662
-0.1211
0.05873
0.004325
-0.3244
-0.005658
-0.1074
-0.1808
0.01239
0.1479
0.02948
0.2248
-0.004712
0.005846
-0.1632
-0.1029
-0.001423
0.5455
-0.1377
0.08175
-0.06171
-0.05202
-0.5406
-0.0848
-0.003603
0.1369
-1.599
-0.006213
0.04105
-5.773e-05
-0.1955
-0.1935
-0.1859
-0.00667
-0.4064
0.5837
0.008125
-0.1861
-0.1962
-0.281
0.01365
-1.594
-0.0062
0.09609
-0.1907
0.01237
-0.2474
-0.05015
-0.06507
-0.6407
0.05113
-0.02246
-0.1341
0.002869
-0.07639
-0.5359
-0.01198
-0.01499
-0.06537
-0.004599
-0.005541
-0.2045
0.01311
-0.04973
-0.2103
0.01226
0.001373
0.1526
-0.5288
0.006534
-0.005785
-0.2783
-0.1695
-0.04535
-0.09125
-1.838
-0.1092
0.004196
-0.04727
-9.897e-05
-0.1819
0.1894
-0.05932
0.5685
-0.004017
0.005175
-0.2081
-0.01633
-0.09327
0.1866
-0.1905
-0.3233
0.01951
-0.1717
-0.2443
0.007121
0.205
0.2166
-0.08247
-0.4962
0.141
-0.04749
0.004862
0.01035
0.4641
0.2951
0.432
0.00481
0.14
-0.1412
-0.6818
-0.9258
-0.0175
-1.41
-0.1937
-0.04288
-0.1652
-0.1673
0.001549
0.04338
-0.2338
0.1657
-0.001782
-0.1327
0.01095
0.4766
0.396
0.003315
-0.001961
0.007265
-0.05957
-0.1766
0.0882
0.2863
-0.1059
-0.05829
0.07815
-0.1671
0.232
0.004141
0.00456
0.009597
-1.727
0.001433
-0.06842
0.256
0.05699
0.01952
-0.03391
-0.1661
0.2484
0.1285
-0.1065
-0.9505
-0.00171
-0.2016
0.03515
0.0008816
-0.7418
-0.165
0.09045
-0.2591
-0.03574
0.3012
0.09636
-0.08568
-0.14
0.4977
0.31
-0.8327
0.2234
-0.5661
-0.1072
-0.05465
0.05873
-0.1909
-0.176
-0.1749
-0.07486
-0.1154
0.001228
0.01085
0.0027
0.09291
0.3169
-0.1954
0.2861
0.03994
-0.00772
0.3047
0.06474
-0.2052
-0.2251
0.005431
0.001234
-0.1729
-0.2055
0.000517
-0.1643
-0.07372
0.04654
-0.03771
-0.1751
-0.41
0.01382
-0.1724
0.4187
-0.3472
0.1141
0.2724
0.1085
-0.188
0.003966
0.08622
0.2396
0.007272
0.5855
-0.006897
0.007609
0.005713
-0.1811
-0.4338
-0.1718
0.06042
6.03e-05
-0.2162
-0.1053
-0.002664
0.4421
0.01034
-0.009016
-0.1936
0.2357
-1.628
0.001537
0.007517
-0.1689
-0.002965
0.5616
-0.1989
0.2058
-0.1844
-0.05076
-0.4908
-0.1958
-0.2323
-1.491
0.0291
-1.82
-1.071
0.3553
-0.7735
0.007029
-0.183
0.0523
-0.08072
0.0006282
-0.3924
-0.0118
-0.124
0.123
-0.1858
-0.116
0.0002363
-0.1022
0.1667
-0.5917
-0.1722
-0.185
-0.1726
-0.5063
-0.129
0.02626
0.01179
-0.1132
9.482e-05
1.838e-05
-0.001258
0.06227
-0.08636
-0.3688
-0.1968
0.3088
0.0007504
0.007947
-0.1229
-0.12
0.4167
0.03734
0.04127
0.00317
0.001817
-0.005114
-0.169
-0.1785
-0.2491
-0.1906
0.07877
-0.1343
-0.006913
-0.4677
-0.2824
-0.005674
0.4145
-0.007824
-0.009792
-0.007518
-0.05777
-5.871e-05
0.07695
-0.4366
-0.1814
-0.1754
0.09661
0.2318
-0.00564
-0.1705
-0.1911
0.3191
-0.1535
-0.002793
0.08149
0.06652
-0.04359
-0.2502
-0.03322
-0.1058
0.5395
-4.637e-05
-0.07134
0.258
-0.0009779
-0.01182
-0.05909
0.02047
0.1432
-0.1014
0.003069
-0.1177
-0.1615
-0.1993
0.004841
-0.2578
-0.02792
-0.4527
-0.1685
0.03168
-0.1975
-0.04581
-0.1237
-0.5113
-0.08447
0.1922
-0.1717
0.02893
-0.01318
0.004058
-0.2179
-0.1762
-0.1886
-0.1403
-0.1921
0.1397
-0.04233
-0.3628
-0.1958
0.2034
-0.2024
-0.2209
-0.1945
-0.1775
0.1765
0.07838
0.08636
-0.01047
-0.1726
-0.5746
0.0489
-0.1701
-0.149
-0.1901
-0.1047
-0.1994
-0.1805
0.4197
0.005942
0.01486
-0.05809
-0.1732
-0.064
0.3469
-0.1969
-0.09879
-0.1854
0.0008031
0.5861
-0.1925
0.03366
-0.1903
0.1549
-0.1855
4.37e-05
-4.531e-05
-0.005836
-0.3489
-0.1716
0.287
-0.8241
0.04994
-0.1265
-0.2016
-0.07055
0.05944
-0.04766
-0.1311
-0.4578
0.0307
0.336
0.01794
-1.271
0.01792
-0.1529
-0.08273
0.3393
-0.1891
0.007437
-0.011
-0.6351
0.1312
-0.06066
-0.007113
0.08138
0.03623
-0.267
-0.6157
0.00819
-0.01915
-0.2157
1.342e-05
0.02369
-0.04083
-0.1734
-0.1798
-0.1859
0.04046
-0.1611
0.1222
-0.2021
-0.1437
-0.1982
0.02027
-0.1161
0.2223
0.334
-0.3524
-0.1866
-0.1809
-0.003288
0.0008423
-0.002277
-0.07132
-1.262
-1.58
-0.1405
0.107
-0.002186
0.05844
-0.1536
0.04107
0.02356
0.2278
-0.06334
-0.01854
-0.01914
0.2003
0.1127
-0.04566
-0.03106
-0.07263
-0.1815
-0.1886
-0.08166
-0.1961
-0.5912
0.009993
0.1743
-0.3072
0.3738
0.01368
-0.1658
-0.06876
-0.1759
-0.2031
0.07188
0.09824
0.006518
-0.2834
0.3365
-0.04096
-0.004594
-0.01908
-0.1776
-0.2151
-0.152
-0.214
-0.2205
0.007749
-0.03647
-0.1235
-1.997
-0.2541
0.3494
0.08592
-3.601e-05
-1.275
0.01411
0.0427
-0.1733
0.3056
-0.173
-0.006149
0.3703
-0.1161
0.003592
-0.1975
0.03898
0.004437
0.01384
-0.1729
-0.1917
-0.1728
-0.1239
-0.09087
0.0001426
-1.282
-0.2819
-0.1979
-0.1807
0.1571
0.007783
-0.1781
0.09732
-0.1721
0.001361
0.002083
-1.052
0.4555
-0.009169
0.03338
-0.1398
0.1562
-0.1436
-0.08908
0.04006
-0.1195
-0.000825
0.2331
-0.003377
0.3468
-0.7318
-0.07634
0.006021
-0.05678
-0.1725
-0.203
-0.4991
-0.0003437
-0.00617
2.311e-05
0.1257
-0.1885
-0.09889
-0.05116
-0.007995
-0.802
0.001007
-0.09483
-0.1336
-0.2167
-0.1824
-0.06393
6.96e-05
-0.006031
-0.08031
-0.6005
-0.1853
-0.1426
0.007326
-0.125
-0.02787
0.2404
-0.1705
-0.0009124
-0.06507
-0.04524
0.01352
-0.1685
-0.000641
0.001162
-1.601
-0.2411
0.1695
-0.002286
0.03045
-0.06802
0.05773
0.4384
-0.007144
-0.1687
0.4391
-0.1901
-0.1955
0.2521
-0.7493
-0.07861
0.1584
0.07272
0.3782
-0.188
-0.1714
0.07048
-0.006005
-0.9649
-0.1983
-0.03871
0.07184
-0.06018
-0.02264
0.4815
-0.003588
-0.006899
0.4841
-0.06185
0.0001013
0.007421
-0.2384
-0.09529
-0.007656
-0.1662
-0.2868
-0.04931
-0.173
0.2502
-0.07454
-0.1529
-0.1969
-0.7115
0.465
0.008366
0.5367
-0.3228
0.1341
0.09476
-0.5349
0.0218
0.0143
-0.1723
0.0491
0.4119
0.05057
0.3035
-6.527e-05
0.01948
0.5066
0.006743
0.001163
-0.0001114
0.01402
0.06138
-0.1682
-0.1216
-0.05909
-0.219
0.04074
-0.195
-0.1236
-0.0865
-0.06393
-0.2048
-0.4081
-0.1775
0.08941
0.0192
0.3957
-0.005264
4.33e-05
-0.1115
-0.169
-0.1788
0.2504
0.205
-0.1845
0.01191
0.001795
0.2749
-0.1702
-0.3256
0.5366
0.005825
0.08069
-0.2021
-0.001242
-0.05867
0.1894
-0.1243
0.0001596
-0.4101
-0.7686
-0.0005456
0.3356
-0.07165
0.1111
0.2531
-0.0004064
0.02031
-0.002127
0.06932
0.1748
0.002691
-0.2002
-0.126
-0.4624
-0.0002593
-0.02419
-0.1736
-2.111e-05
-0.05082
-0.2397
0.004081
0.03012
6.774e-05
0.03251
-0.104
0.02671
-0.01398
0.00833
-9.859e-05
-0.007622
-1.635
0.08751
-0.01528
-0.2161
-0.1298
-0.166
-0.1697
-0.1725
0.2165
-0.1952
-0.1766
0.3235
-0.00318
-0.1948
-0.001726
0.04601
0.5534
-0.002168
-0.03544
-0.1754
-0.1582
-0.2716
-0.1858
-0.193
0.00462
0.2191
0.001227
-0.07057
-0.81
0.005135
-0.08086
0.356
-0.2062
-0.004043
-0.4552
-0.1933
0.5273
-0.06671
0.03751
0.2983
0.1658
-0.1729
-1.381
-0.2046
0.324
-0.001853
-0.1457
0.1205
-0.1955
0.03982
0.2188
0.005406
-0.7844
-0.01535
-0.1784
0.02862
-0.2493
-0.1157
-2.019
-0.002249
0.002553
-0.2427
-0.08189
0.0002449
0.448
-0.1321
0.09621
0.2714
-0.08784
0.1674
-0.02212
0.05496
-0.5974
-0.7754
-0.1706
-0.5348
-1.284
0.3575
-0.01831
0.2125
-0.2285
-0.1255
0.007468
0.5534
-0.177
0.4793
-0.2687
-0.003621
0.0189
0.02108
-0.2785
-0.2362
0.01274
0.05616
-0.2041
0.419
0.2275
0.1704
-0.00931
-0.02801
0.07755
-0.615
7.404e-05
-0.1668
0.002464
-0.003877
-0.325
-0.09989
-4.726e-05
-0.737
0.4663
-0.07216
-0.2357
-0.01087
-0.1698
-0.4794
-0.05712
-0.02725
-0.1325
-0.1982
-0.537
-0.2901
0.015
0.005622
-0.1175
-0.1139
-0.001111
-0.1984
0.04244
-0.1658
-0.1085
-2.159e-05
0.368
-0.01384
-0.1732
-0.09061
-0.09762
0.009125
0.194
0.1277
0.1008
-0.2412
0.07284
0.004804
0.008618
0.3092
-0.1729
-0.01091
0.01308
-0.2218
0.454
-0.1918
-0.01717
-0.1945
0.004937
0.01077
-0.2951
-0.02401
3.462e-05
0.06924
-0.151
0.05519
-0.09119
0.001753
0.1215
-0.0009804
0.1144
-0.1843
-0.1758
0.05111
-0.1735
0.02338
-0.7419
-0.1728
-0.1734
0.0723
0.2306
-0.1919
0.3163
-0.1731
-0.2262
0.000324
0.01122
0.09609
-0.2261
-0.03877
-0.001138
-0.1805
-0.1534
-0.1741
0.003596
0.0665
-0.00848
-0.004436
-0.2049
-0.6656
-0.2177
0.0808
-0.08851
-0.1618
-1.933
0.02557
-0.0279
-0.1989
0.08882
0.4349
0.02203
-0.001631
0.008888
0.2672
0.02284
0.0009958
1.718e-05
0.04645
0.007914
-0.1887
-2.768e-05
-0.0953
-0.1949
0.1084
-0.1754
0.07457
0.0003817
0.05008
0.5266
-1.483
-0.1702
-0.05453
-0.2013
0.06449
-0.2
0.1199
-0.05152
0.4626
-0.1807
0.5754
0.04011
0.1026
-0.9996
-0.1421
-0.4619
-0.09512
-0.09785
-0.1711
-0.1769
0.5525
-0.07182
0.02023
0.007155
-2.121
-0.1687
-0.03292
0.4653
0.004411
-0.1933
-0.189
-0.2995
-0.2451
-0.1948
-0.009685
0.1923
-0.1335
-1.237
0.2582
0.5803
-0.005115
0.02663
0.08186
-0.1526
0.2821
-0.009336
-0.1195
-0.07206
0.007983
-0.1402
-0.1332
-0.1676
0.1477
-0.2207
0.3245
-0.5848
-0.003656
-0.01483
0.4395
0.08675
-0.0856
0.05196
-0.6293
-0.3401
0.01485
0.01219
-0.006917
-0.005777
-0.06068
-0.2178
-0.02454
-0.06398
-0.1629
-0.0003466
-0.6217
-0.001056
0.1002
-0.005885
-0.009525
0.01689
-0.3162
-0.1785
-0.2188
-0.01746
-0.2149
-0.2584
0.07662
-0.2021
-1.302
-0.03193
-0.05224
-0.05578
0.3171
0.1481
-0.1704
0.1344
-0.04311
0.5447
-0.7301
-0.1782
-0.9766
-0.05105
0.007571
-0.2321
-0.1691
-0.1875
0.3985
-0.005859
-0.05482
-0.1887
-0.1859
-1.998
-0.1705
0.5482
-0.05724
-0.007383
-0.2293
0.477
0.06496
0.2302
-0.1438
-0.01079
0.1478
-0.1727
0.006789
-0.9693
0.2627
-0.05177
-0.05536
-0.04176
-1.428
-0.1788
-0.6022
0.02868
-0.1933
0.0194
0.01448
0.1015
-0.2324
0.001282
-0.5641
-0.2183
-0.167
0.09591
-0.01997
0.4544
-0.1686
-0.1896
-0.1676
-0.09526
-0.1982
-0.2402
-0.06826
0.01207
0.2412
0.04478
0.04992
0.004551
0.02783
0.2871
0.0682
0.2032
0.1066
0.09524
0.03771
-0.06922
0.0459
0.008096
0.2222
0.2111
-0.5139
-0.08399
-0.1746
-0.2079
-0.05754
-0.7961
-0.2129
-0.1656
-0.1956
-0.171
-0.187
-0.1751
-0.2533
-0.03554
0.001186
-0.7818
0.007863
-0.1733
-1.752
-0.1719
-0.8442
-0.5641
-0.04953
-0.1661
0.1077
-1.695e-05
0.1884
-0.00395
-0.006342
0.5093
0.008254
-0.2238
0.001293
0.3139
-0.1337
-1.829
-0.2001
0.01305
-0.5808
0.3869
-0.1676
0.5537
-0.05477
-0.173
0.009577
0.06622
0.0001333
-0.0384
0.1119
-0.05422
-0.2127
0.0003456
-0.02916
0.2232
-0.05449
-0.0742
-0.0552
0.2848
0.4292
0.0578
-0.2038
-0.6434
-0.3987
-0.06265
-0.1895
-0.08167
-0.01781
-7.1e-05
-1.267
-0.9172
0.001498
-0.1849
-0.07155
-0.7508
-0.2329
-0.08704
-0.172
0.003088
-0.1699
-0.1892
-0.608
0.07458
3.663e-05
-0.1792
-0.233
-0.07371
0.007965
-0.1757
-0.00345
-0.06224
-0.1471
-0.003021
-0.6005
-0.1717
0.07837
0.3155
-0.0006058
0.1694
0.444
-0.05492
-0.4027
4.497e-05
-0.1372
5.346e-06
0.000207
-0.5099
0.00357
0.0602
0.4199
-0.1938
-0.0832
0.01484
0.07222
-0.02586
-0.2102
0.04142
0.338
-0.1681
0.02383
-1.924
0.006973
-0.2432
0.03103
-0.1728
0.002292
-0.176
-0.202
0.001889
0.01997
0.006729
0.002071
0.005862
0.1427
0.0079
-0.021
-0.2003
-0.02631
0.1255
-0.1318
-0.1061
0.2113
0.4164
-0.0005546
-0.3589
-0.0385
0.008137
-0.1643
0.005143
-0.1659
0.06834
-0.5403
8.434e-05
0.0001223
0.02076
0.3402
-0.1788
-0.002933
-0.1759
0.1798
-0.1294
-0.2106
-0.1932
0.0453
1.363e-06
-0.008718
0.02762
-0.1664
-0.02245
-0.000205
-0.1446
-0.2192
0.3846
-0.03089
-0.2685
-0.03298
0.007032
0.2028
0.1464
0.3689
-0.009451
-0.7558
-0.001745
-0.1761
-0.2043
-0.2284
0.5374
0.007401
0.139
-1.017
0.00414
-0.123
0.03187
0.07576
-0.2001
-0.1793
-0.516
0.09077
0.1204
-0.002075
-0.2175
-0.202
-0.003608
-0.05135
-0.1629
-0.1903
-0.113
0.1577
-0.02559
-0.3717
0.009831
-0.689
0.3923
0.4334
0.009331
0.0001712
0.05498
-0.004579
-0.09989
-0.0219
0.4665
0.05605
-0.1926
-0.1562
-0.2637
0.0007532
-0.1713
-0.001432
-0.0003602
0.005293
-0.3235
0.2597
0.08586
0.01407
-0.002855
-1.267
-0.2119
-0.2001
-0.1148
-0.5704
0.5808
-0.3252
-1.495
-0.005091
-0.06281
1.156e-05
-0.07381
0.06649
-0.2006
-0.1857
0.04275
-3.736e-05
-0.1681
0.5762
-0.151
-0.1197
0.0006315
-0.1713
0.07981
-0.2992
-0.2181
0.005001
-0.212
-0.1713
-0.1976
0.0513
-0.1685
-0.07594
0.1276
0.2773
-0.04091
-0.08599
-5.378e-05
-1.275
-0.1945
0.1103
-0.04064
0.129
-0.2206
-0.01218
-0.1389
0.01427
9.916e-05
-0.01748
0.09311
5.485e-06
5.822e-06
-0.02891
0.5336
8.659e-05
-0.03002
-0.07878
-0.00944
0.2255
0.2789
0.5766
-1.434
-0.1721
0.1759
0.1755
-0.1792
-0.192
0.4494
-0.005819
0.2818
0.006
0.06157
-0.2217
-0.07162
0.009198
-0.4114
-0.2209
-0.2886
-0.0765
0.4585
-0.009891
0.4344
0.2428
0.02857
0.3887
-0.06208
0.1021
0.006248
0.06712
0.03564
0.04397
0.00748
-0.01056
-0.01962
0.2226
-0.1936
0.07829
0.2418
-0.174
0.004254
0.1632
-0.1585
1.369e-05
-0.0008036
-0.0462
-0.1418
-0.1881
-0.3714
-0.02688
0.008741
0.00642
0.01574
-0.1379
-0.09231
0.01094
-0.1815
-0.0004889
0.04951
-0.03351
0.01054
0.09058
-0.2493
-0.08231
0.004651
-0.09521
0.04688
-0.01226
-0.1915
-0.5439
0.2982
0.3226
-0.0952
0.01642
-0.1697
-0.1132
-0.0004421
-0.1867
-0.3518
-0.1993
0.03886
-0.2331
-0.0844
0.05126
-0.04123
0.05404
-0.0679
-0.06605
-0.1964
0.03209
0.2012
-0.185
-0.0006658
0.1867
-3.683e-05
-0.02861
0.009728
0.1938
0.3135
-0.1731
0.02461
0.09631
-0.1435
0.0826
0.08022
-0.1873
-0.1877
-0.09827
-0.001011
-0.1755
0.03909
-0.204
0.2366
-0.1864
-0.0008697
-0.002644
0.3477
-0.1664
-2.014
-2.161
0.3984
-0.2027
-0.1757
-0.02756
-0.362
-0.007857
0.4602
0.1665
-0.5286
-0.1348
0.03009
0.5547
-0.7707
-0.04629
-0.1836
-0.8694
0.06578
0.4412
0.03307
-0.02354
-0.01767
-0.1151
-0.07415
-0.002953
0.27
0.1503
0.002358
-0.189
-0.02955
-0.1659
-0.08665
0.0675
0.2434
-0.009884
-0.09353
-0.01046
-0.2032
-0.02261
-2.115
-0.2016
-0.1699
0.07412
-0.1706
-0.2134
-0.112
-0.03715
-0.2466
0.0005751
-0.5186
-0.1797
0.1226
-0.2347
-0.2281
-0.06428
-0.5556
-0.2022
0.01574
-0.169
0.01292
-0.007365
0.004336
-0.5654
7.566e-05
0.004333
-0.08723
0.3788
-0.002615
-0.03572
-0.1355
-0.1896
-0.004999
-0.153
-0.2367
0.4455
-0.1935
-0.1142
-0.1864
-0.000692
-0.1671
-0.2244
0.03683
-0.9098
0.0001267
-0.005169
0.2226
0.5644
-0.1266
-0.07675
-0.002677
0.06658
0.2885
-0.4167
-0.001437
-0.1673
-0.1727
-0.003141
-0.09211
-0.0002471
-0.004519
-0.7945
-0.131
4.304e-05
2.019e-05
-1.827e-05
0.0002297
-0.09729
-0.04756
0.1402
0.1101
-0.1992
-0.1365
-0.1779
0.003132
-0.07775
-0.9485
-0.1752
0.01224
0.00166
-0.1731
0.3534
0.0002251
-0.1666
-0.7778
-0.2017
-0.3019
0.2512
0.02931
-0.1415
0.02757
-0.08715
-0.0102
0.023
-0.01221
-0.2595
-0.0867
0.3478
0.1577
-0.1754
-0.0864
2.59e-06
0.008443
0.2239
-0.4395
-0.00318
0.1681
0.001316
2.36e-05
-0.01789
0.3647
-0.2054
-0.006589
-0.1982
0.005314
0.2787
0.007586
-0.2009
-0.006068
0.08119
-0.117
5.604e-05
-0.8647
-0.2279
-0.1807
-0.1682
0.3528
0.07427
0.04257
0.5098
0.08669
-0.1682
-0.1001
-0.3168
-0.02423
-0.08825
-1.208
0.2806
0.01212
3.126e-05
-0.1719
0.003915
-0.191
0.06524
-0.1032
-0.001708
-0.1735
0.03112
0.03493
0.01014
-0.5207
-0.1838
0.4668
0.01576
0.000723
-0.156
0.01977
-0.02798
-0.1298
0.09077
-0.1705
-0.07967
0.006082
-0.03852
0.2786
0.03704
0.1855
-0.185
-0.1724
-0.05786
-0.1675
0.000679
-0.6812
0.03891
8.43e-05
-0.2459
-0.181
-0.07797
-0.01006
-1.268
0.1511
-0.1864
-0.1837
-0.1752
-0.08284
0.2193
0.2536
-0.2639
-0.05873
-0.2255
-0.005041
-0.1866
-0.0001064
-0.1859
-0.02649
-1.821
-0.1421
-0.0746
-0.01413
0.008285
-0.02833
0.5228
-0.1619
0.1873
-0.216
1.169e-05
-0.5732
-0.2491
-0.04632
-0.07447
-0.01626
-0.1944
-0.1704
-0.4918
0.02853
0.009287
0.08285
-0.172
0.1586
-0.5802
-0.1707
-0.001615
-0.1714
0.06713
0.5145
-0.184
-0.001201
0.007859
-0.007435
-0.1732
0.3714
-0.0795
-0.3861
-0.2258
-0.1682
-0.02142
0.04885
0.003814
-0.675
1.222e-06
-0.1831
-0.1042
-0.6303
-0.009474
-0.006565
0.004495
-0.1704
-0.2498
0.0006487
0.5004
0.02768
0.2415
0.02968
0.4533
-0.59
-0.09377
-0.1685
-0.4497
0.0001535
0.1039
-0.1751
-0.4019
-0.009029
-0.2028
0.128
0.2104
0.09682
-0.5112
-0.003793
-0.001274
0.03302
-0.07163
0.2414
-0.23
-0.2535
-0.1837
-0.03064
0.003192
-0.1837
-0.2082
0.003022
-0.001351
-0.1862
-0.00671
0.005545
-0.5615
-0.2343
-0.1667
-0.197
0.3031
0.04603
-0.1731
0.003137
-0.08541
-2.89e-05
0.04867
-0.1412
0.3781
-0.2129
0.01206
0.07112
-0.1728
-0.2862
-0.1245
0.003543
-0.2707
0.2146
-0.002178
0.5525
4.178e-05
-0.0001712
0.07883
-0.06973
-0.5894
-0.08825
-1.589
-0.1834
0.341
0.07514
-0.5595
-0.09328
-0.1797
-0.2641
-0.1512
-0.09885
-0.1905
2.573e-05
-0.001336
7.58e-05
-0.518
-0.004212
-0.1751
0.5373
-0.0971
-0.3893
-1.08
0.1548
-0.08431
-0.00156
-0.1487
0.005887
-0.1868
-0.1751
-0.09732
-0.002374
-0.008051
-1.586
0.2696
0.3876
-0.1932
0.07285
0.02743
-0.03655
-0.1884
0.471
0.09711
0.09894
-4.528e-05
1.895e-06
0.03657
-0.2006
-0.2043
0.01305
-0.2712
-0.5368
-0.1897
-0.2586
0.008435
-0.01661
-0.3003
0.1072
-0.135
0.1961
-0.6063
-0.1187
-0.2725
-0.03408
-1.974e-05
0.01377
-0.1977
0.0551
-0.02408
-0.5308
0.03278
0.5708
-0.005405
-0.01333
-0.1755
-0.00567
-0.1886
0.07896
-0.2229
0.1783
-0.0009514
-0.3629
-0.003251
-0.009585
-0.1635
0.04052
0.1293
-0.01868
-0.02775
-0.1729
0.1324
0.4184
-1.953
-0.2063
0.2909
-0.01836
0.02715
0.06425
-0.01607
-0.4427
0.2532
0.3111
-0.5224
-0.1845
-0.1668
0.001937
-0.005731
0.4278
-0.185
-0.2078
0.06153
0.1031
-0.2825
0.08736
0.1858
0.319
-0.1941
-0.5314
0.06226
0.09379
-0.02866
0.1347
-0.008942
-0.2403
0.06627
0.2521
-0.06462
0.00274
-0.05714
-0.1091
-1.405
-0.6454
0.0001569
-0.00223
0.004293
0.4893
0.003005
0.08452
-0.0005595
-0.1725
-0.09642
-0.1338
-0.1411
-0.1704
-0.04675
-0.1396
-0.5113
-0.09667
-0.0548
0.5042
-0.2113
-0.1988
0.1316
-0.003951
0.08321
-1.053
-0.2027
-2.018
-0.1705
0.2621
-0.312
-0.008639
-0.1791
-0.3672
-0.2898
0.006127
0.003208
0.2176
-0.1116
0.1308
0.0835
0.08659
-0.002716
-0.0005319
-0.5982
0.2445
-8.003e-05
-0.03012
0.01998
0.005483
-0.002769
0.003439
0.05182
-0.08129
-0.2001
-0.01665
-0.1856
-0.003446
-0.0499
-0.1
-0.2656
0.1113
-0.2235
-0.2845
0.5713
-0.5488
0.1603
0.5368
-0.2214
-0.003753
-0.2393
0.05805
0.1704
0.0001993
0.3448
-0.1703
0.1505
-0.008337
0.1147
-0.0398
-0.386
0.07239
-0.1725
0.00426
0.2494
-0.3047
0.04086
-0.009532
-0.2036
-0.4464
0.04222
-0.3203
0.3397
0.4355
-0.006558
-0.2163
-0.1222
0.3402
-0.002026
-0.09703
0.00372
0.5332
-0.2099
-0.08506
-0.1732
-0.1982
0.255
0.00992
0.08598
-0.4208
-0.1178
-0.007533
-0.0007054
-0.2855
0.3979
-0.01076
0.5646
-0.5442
0.1049
0.5198
-0.0001122
-1.503
-0.1867
-0.1256
-0.1729
0.005323
-0.4506
0.007569
-0.002325
0.2548
-0.208
-0.2193
-0.1905
-0.173
-0.1636
-0.1744
0.04389
-0.208
0.1208
0.5459
-0.1994
-0.1795
-0.04533
-0.009922
0.1616
-0.2082
-0.002033
-0.1745
0.01555
-0.3188
0.1206
-0.004888
0.3562
0.1405
-0.5223
-0.9862
-0.1879
-0.1907
-0.191
-0.0646
-2.353e-05
-0.0878
0.1214
0.201
0.0333
-0.2103
-0.03932
-0.05367
-0.1829
-0.1744
0.01346
-0.2085
0.1764
0.1655
-0.01091
0.5175
-0.07792
0.1644
-0.5157
-0.3098
-1.261
0.4666
0.08935
-0.1798
0.07053
-0.2301
0.1549
0.2695
-0.002272
-0.04991
-0.01117
-0.1707
-0.01164
-0.08347
-0.4037
0.06706
-0.0591
-1.925
-0.1744
-0.06335
0.02646
0.01185
0.2382
0.1014
0.06977
0.3162
0.05936
-0.2222
0.04435
-0.1729
-0.06546
-0.1733
0.03967
-0.1662
-0.4177
-0.1289
-0.2705
-0.0219
0.09828
-0.1574
0.4654
-0.1992
-0.166
-0.1233
0.5236
-0.2309
0.02011
-0.8361
-0.2099
-0.1254
-1.279
-0.04228
0.004922
0.3183
0.002087
-0.1234
-0.1932
0.004273
-0.08299
0.09921
0.03977
-0.1703
0.01399
-0.1912
-0.006824
-0.04013
-0.1748
0.06565
-0.1569
-1.381
-0.005308
-0.01473
-0.4096
-0.2181
-0.209
-0.6666
0.03955
-0.2288
0.2594
-0.01817
0.009558
0.006974
0.09947
2.703e-05
-0.1672
0.3369
-0.1994
0.1211
0.5261
-0.1258
0.2247
-0.4386
0.007682
-2.487e-05
-0.7104
0.06114
-0.2303
0.1158
0.008778
0.08612
9.396e-05
-0.2043
0.517
0.0509
0.1098
0.0943
-0.371
0.3356
-0.09702
-0.1457
-0.03069
0.4084
0.003542
-0.2403
0.09242
-0.3332
-0.176
0.005449
-0.007554
0.0208
-0.2024
-0.1429
0.44
-0.01319
-0.1296
-0.002583
0.00987
-0.1733
-0.1684
0.3227
0.007871
0.007798
-0.1683
0.0581
0.2955
0.09236
-0.02772
-0.1962
0.03902
-0.02546
0.004733
-0.1873
-0.2117
-0.101
0.005608
-0.222
0.2528
0.08328
-0.1249
-0.207
-0.5161
0.2268
-0.3754
-0.2115
0.02986
-0.1681
-0.2083
0.0003559
0.2925
-0.2279
-0.1406
0.0004023
0.1715
-1.325e-05
-0.05992
-0.1402
-0.1865
-0.04994
-0.1641
-0.6019
0.02321
-0.1798
-0.1718
0.02054
-7.684e-05
0.008413
-0.7421
-0.09113
-0.1425
-0.02891
-0.001292
-0.00341
-0.1369
0.1201
0.01161
-0.5174
-0.01635
0.2048
-0.03297
-1.279
-0.2545
-0.0004934
-0.438
-0.2657
-0.007397
-0.01078
-0.2521
-0.2504
-0.2358
-0.625
-0.0149
0.01707
0.03455
0.1194
-0.1188
0.122
-0.08549
0.009758
-0.1221
-0.123
-0.1699
0.3381
-1.515
0.0541
-0.2005
-0.1749
-0.3376
0.2176
0.003748
-0.003442
-0.01434
0.2139
-0.13
-0.2612
-2.189
0.06573
0.06347
-0.01183
6.77e-05
-0.005233
-0.04921
-0.04674
0.006761
-0.1734
-0.1494
0.07303
-0.1171
0.07028
-0.02696
-0.7507
-1.084
-0.2427
0.2946
0.0009826
-0.0002823
0.1398
0.01585
-0.002784
0.2411
0.4145
-0.004918
-0.1996
-0.1821
-0.2601
0.3343
-0.1686
-0.1723
-0.01932
0.00807
-0.2166
0.3308
-0.01601
0.03589
0.1595
-0.05019
0.09235
-0.169
0.01452
-0.2137
-6.236e-05
0.4062
-0.1853
-0.1995
0.002382
-0.2206
0.004296
-0.1719
-6.836e-05
-0.01276
-0.03878
-0.1475
0.2929
-0.002336
0.0006998
0.05766
-2.261
0.1772
-0.1516
0.004672
-0.1902
0.4361
0.1289
0.04919
-0.4885
0.5622
-0.09847
0.5106
-0.09295
-0.06276
0.145
-0.1065
-0.004344
-2.031
-0.1735
0.264
-0.2445
0.001644
-0.2357
0.00637
-0.05313
-0.09174
-0.2017
0.005485
-0.002011
-0.1994
0.03288
-0.192
0.2983
-0.1236
0.1462
-0.002762
0.03511
-0.2996
-0.1684
-0.06908
0.02056
-0.00361
0.005711
-0.2008
0.003821
-0.1738
-0.00732
0.04387
-0.0004064
-0.06678
-0.1312
-0.06191
0.0003928
-0.5606
-0.09707
-0.2105
-0.06702
0.006744
-0.2157
-0.1974
0.06415
-0.3037
-0.1701
-0.5036
0.2329
-0.002337
0.01677
-0.05878
-0.1713
0.04747
-0.004253
0.004135
-0.1865
0.2002
-0.2311
-0.06117
-0.1901
0.4492
-0.4948
-0.007025
-0.204
-0.1879
0.2138
-0.2597
0.2504
-1.382
2.642e-05
0.3809
-0.005953
0.3092
-0.04851
-0.005975
-0.002447
-0.1391
0.2976
-0.0116
-0.05477
0.4371
0.04048
-0.1866
0.001892
-0.06655
0.5175
-0.5589
-0.8012
-0.2098
-0.2256
-0.1715
-0.1416
0.004768
0.06191
-0.04379
-0.5642
0.1281
0.0832
-0.229
0.005761
0.04794
-0.00571
-0.2358
-0.2448
-0.1853
-0.0635
-0.005061
-0.0006463
-0.1859
0.03293
-0.1717
-0.1988
0.0002294
0.0004379
0.1745
0.3762
0.09283
-0.6216
0.4706
-0.5342
-0.1183
0.5408
0.0005024
-0.1001
-0.1944
-0.7731
-0.1372
-0.1775
-0.1919
-0.5152
-0.2118
-0.1901
-0.1192
0.4834
-0.0735
-0.2311
0.01699
-0.7083
0.05859
-0.1834
-0.09151
0.03476
-0.2149
-0.0493
-0.1315
-0.2332
-0.09237
0.2202
-0.1702
0.001059
-0.04103
-0.1741
-0.1835
0.03257
-0.05503
-0.1996
-0.187
-0.237
0.2606
-0.8993
0.298
-0.02658
-0.6029
-0.1835
-0.6006
0.0476
0.2278
-0.2384
-0.2899
-0.1141
0.05185
-0.1656
0.02053
-0.0899
0.3792
-0.175
0.1266
0.0005515
0.2097
-1.586
-0.188
-0.005501
0.0007678
0.0009732
0.00974
-0.02913
-0.08937
0.1528
0.2281
0.0005225
0.08504
-0.008458
-0.0544
-1.583
0.5621
-0.2125
0.0002034
-0.2128
0.04757
-0.2229
0.006762
-0.1249
-0.1765
-0.7358
-0.1721
0.004594
0.01914
0.05121
-0.0004075
-0.1729
-1.723
-0.2879
-0.007069
0.06854
-0.6566
-0.1895
-0.1003
0.4883
0.3813
-0.08446
-0.05772
-0.0531
-0.1996
-0.1779
-0.06998
0.3198
-0.1985
0.03814
-0.1532
0.4364
-0.162
-0.1641
-0.1899
-0.01564
0.1792
0.2168
-0.9077
0.06353
-0.1897
0.4116
0.3019
-0.1886
0.1136
-0.183
-0.1481
-0.1434
-0.09035
0.005705
0.5728
-0.279
-0.6021
-0.1876
0.1596
-0.375
-0.4449
-1.131e-05
0.4057
-0.2221
-0.174
-0.03388
-0.1048
-0.2472
0.2325
0.1277
-0.1974
-0.08541
0.2294
0.005622
-0.08034
0.0286
0.5864
0.1935
0.2897
-0.1819
0.02154
-0.503
-0.0953
0.02453
-0.06653
0.1285
-0.321
-1.231
-0.121
-0.02793
-0.178
-0.04405
0.5426
-0.239
0.2043
0.3026
0.4076
0.496
0.3207
0.08036
-3.381e-05
-0.02702
-0.2102
0.1576
-0.003054
0.08202
-0.1731
-0.107
-0.1711
-1.219
0.04624
0.2482
0.4757
0.02797
0.01451
0.004305
-6.507e-05
0.04491
0.5426
-1.244
0.5814
-0.2576
-0.02256
-0.004207
0.07469
-0.05458
-0.001816
-0.08048
-0.1358
0.04089
-0.07137
0.000522
-0.1664
0.2277
-0.006899
-0.0114
-0.191
-0.2818
-0.1969
0.0008849
0.12
0.1479
0.0009055
0.002172
-0.01919
-0.2291
-0.8146
-0.09093
-0.006903
0.2075
-0.1733
-0.1217
0.04534
-0.005041
-0.6508
-0.04884
-0.03841
0.00528
-0.0006151
-0.0003071
-0.1747
0.01386
6.218e-05
-0.06589
-0.2924
-0.3367
-0.1648
-0.05821
0.05637
0.1386
0.2351
0.3121
-0.01359
0.07685
-0.1518
-1.506
0.2013
-0.2741
1.799e-05
0.006662
-0.2452
-0.1727
-0.01115
0.2246
-0.5066
-0.05271
-0.08024
-2.05
0.02331
0.006771
-0.1841
0.2459
0.2802
-0.006934
0.11
-0.001364
-0.3638
-0.175
-0.1191
-0.03702
0.000701
0.1419
-0.1917
0.265
-0.1603
0.09685
-0.1715
0.2376
-0.106
-0.1741
-0.7255
-0.01218
0.5842
-0.1576
-0.00151
0.2698
-0.1715
-0.2217
-0.1921
-0.0741
0.2373
-0.1314
0.005227
-0.03386
0.4225
0.001971
0.006914
0.3064
0.001741
-0.002875
0.1018
-0.4363
-0.1155
-0.4295
-0.1894
0.231
-0.1906
0.02466
-0.3132
-0.221
-3.819e-05
-0.07773
0.3525
-0.1851
-0.04083
-0.1773
0.217
0.0002646
0.001999
0.03379
-0.03218
0.1738
0.008111
-0.2542
-0.2244
-0.3446
0.04662
-1.051
-0.002664
0.1203
0.2943
-0.003672
-0.2375
-0.1704
-0.1761
0.004573
-0.2008
0.4249
-0.1732
-0.09406
0.04376
0.0812
0.008106
-0.1641
-0.21
0.3919
-0.1915
0.001211
-0.1729