/*--------------------------------*- C++ -*----------------------------------*\
| =========                 |                                                 |
| \\      /  F ield         | OpenFOAM: The Open Source CFD Toolbox           |
|  \\    /   O peration     | Version:  v2012                                 |
|   \\  /    A nd           | Website:  www.openfoam.com                      |
|    \\/     M anipulation  |                                                 |
\*---------------------------------------------------------------------------*/
FoamFile
{
    version     2.0;
    format      ascii;
    class       surfaceScalarField;
    location    "5";
    object      phi;
}
// * * * * * * * * * * * * * * * * * * * * * * * * * * * * * * * * * * * * * //

dimensions      [0 3 -1 0 0 0 0];
oriented        oriented;


internalField   nonuniform List<scalar> 
149048
(
-1.776e-07
1.776e-07
-1.383e-07
1.383e-07
-7.703e-07
7.703e-07
1.681e-06
-1.681e-06
1.405e-07
-1.405e-07
-1.405e-07
1.405e-07
-1.928e-06
1.928e-06
-7.13e-05
7.13e-05
-6.624e-05
6.624e-05
-8.08e-08
8.079e-08
0.000108
-0.000108
-7.118e-05
7.118e-05
0.0003372
-0.0003372
0.0003372
9.173e-05
-9.173e-05
-4.955e-05
-0.0002876
0.0004066
-6.944e-05
-0.0001108
0.0001108
7.225e-06
-7.225e-06
0.0004066
0.0003833
-0.0003833
0.0003833
-1.636e-07
1.636e-07
7.385e-05
-7.385e-05
-1.585e-06
8.143e-07
7.281e-05
0.0003105
-5.57e-05
-0.0003276
-0.002605
0.00311
-0.0005056
0.001237
-0.001226
-1.151e-05
-2.316e-05
1.394e-05
9.227e-06
1.777e-07
-1.777e-07
-0.0002932
0.0002648
2.843e-05
-0.0001043
-0.0001889
0.0008008
-0.0003812
-0.0004196
-0.0004128
0.0003913
2.152e-05
0.001012
0.0007098
-0.001722
0.0004322
0.0003686
0.0001833
-0.0001575
-2.578e-05
0.7885
-1.188
0.3999
-5.722e-05
0.001294
-0.001047
0.0009434
0.000104
0.01794
0.1101
-0.1281
-1.538e-07
1.538e-07
0.002203
-0.002256
5.283e-05
0.002486
-0.002268
-0.0002181
-6.754e-05
-0.0002568
0.0003244
-0.03709
0.02391
0.01318
0.002604
-0.0001174
-0.001385
0.001096
0.0002885
-0.002639
3.451e-05
6.143e-05
-3.183e-05
-2.959e-05
0.0003896
0.0004732
-0.0008628
-0.006848
0.003894
0.002953
7.665e-05
0.0002926
-0.0003692
0.0005181
0.001685
0.0006928
0.0005927
-0.001286
0.00181
-0.001436
-0.0003738
5.002e-05
0.0002698
-0.0003199
-0.0003935
0.0009531
-0.0005596
-1.439e-05
1.111e-05
3.273e-06
0.2183
-0.2704
0.05217
0.0005452
0.004663
-0.005208
-1.245e-06
1.491e-05
-1.366e-05
-0.0008395
0.0002318
0.0006077
0.0003571
-0.0003571
0.001714
6.599e-05
-0.00178
0.2674
-0.03956
-0.2278
0.0006669
0.001265
-0.001932
0.0002143
0.0001923
-0.0005737
0.0007222
-0.0001485
-0.001762
-0.0003373
0.002099
-0.001873
0.005955
-0.004082
1.236e-05
-9.309e-05
8.073e-05
0.0006063
0.002504
-0.004127
0.003438
0.0006888
-0.000707
0.0006847
2.228e-05
1.845e-07
-6.771e-05
6.753e-05
1.595
-0.6648
-0.9298
1.595
-0.6648
-0.9297
-0.0004473
-0.0003923
0.0001881
0.002331
-0.002519
-1.008e-05
1.491e-05
-4.829e-06
0.003693
-0.004403
0.0007098
-0.08204
0.09998
-0.0002092
0.0001949
1.429e-05
-0.1787
0.9672
-5.579e-05
0.000295
-0.0002392
9.034e-06
-1.318e-05
4.146e-06
0.0007818
-0.0004483
-0.0003336
-2.076e-06
4.1e-05
-3.893e-05
0.0009672
-0.001903
0.0009357
-5.761e-05
0.0001018
-4.422e-05
-0.000162
0.000516
-0.000354
0.1532
-0.04312
-0.09883
-0.1709
0.2697
-7.16e-05
-0.0002395
0.0003111
-2.31e-05
-6.139e-05
8.449e-05
0.001455
0.0003549
1.729
-0.1343
1.729
-0.1343
0.000183
-0.000227
4.399e-05
-1.861e-05
-4.557e-06
-0.001253
0.00111
0.0001433
0.0006552
-0.0005861
-6.905e-05
-0.004165
-0.002683
-0.09096
-0.05946
0.1504
0.0001788
-0.0001728
-6.007e-06
5.471e-05
-4.197e-05
-1.274e-05
-0.004613
-0.003281
0.007895
0.0003703
0.0005988
-0.0009691
0.0004634
0.0003185
-6.895e-05
-0.0003439
-0.000346
0.0003906
-4.463e-05
-0.001381
0.002031
-0.0006499
0.0004005
-0.0003661
-3.449e-05
5.928e-05
-5.097e-05
-8.31e-06
-0.0004394
0.0003719
-0.0009601
0.001547
-0.0005873
0.000202
-0.0003552
0.0001531
0.01558
-0.0305
0.01492
0.0003791
-0.0003861
7.039e-06
0.002735
-0.004608
-6.189e-07
-1.229e-05
1.291e-05
-0.0001735
-0.0001725
-3.506e-05
0.0002354
-0.0002003
0.0001418
-0.000383
0.0002413
-0.002258
-0.001869
0.003719
-0.006079
0.00236
-0.001199
0.001066
0.0001328
-4.045e-06
0.0001618
-0.0001578
0.0007432
0.0003733
-0.001117
-0.001509
0.01405
-0.01254
0.08429
0.5853
-0.6696
-0.09216
0.08109
0.01107
-0.000449
0.0006959
-0.0002469
-0.002094
0.001062
0.001032
-8.151e-05
-0.000299
0.0003805
0.002054
-0.002448
0.0003933
0.0001906
-6.036e-05
-0.0001302
0.002311
-0.003381
0.00107
0.0615
0.05965
-0.1211
-0.007429
0.006015
0.001414
-0.0007539
0.001379
-0.0006248
-0.006477
0.007236
-0.0007591
-7.05e-05
5.212e-05
1.838e-05
0.0004376
-0.0004022
-3.544e-05
0.04371
-0.02965
-0.01406
0.001572
-0.001156
-0.0004164
-0.0009776
0.0007072
0.0002704
0.3802
-0.4878
0.1076
-0.0008319
0.0009472
-0.0001153
0.001085
-0.0006697
-0.0004148
0.4294
-0.1925
-0.2369
-1.652
0.3931
1.259
-0.0014
0.0009653
0.0004351
5.257e-06
-5.776e-06
5.181e-07
0.001719
-0.02893
0.02721
-4.398e-05
7.315e-05
-2.917e-05
-0.01678
-0.02032
-4.597e-05
0.0001301
-8.417e-05
-0.000291
0.0004327
-0.0002287
0.0004649
-0.0002362
-3.941e-06
3.721e-06
2.199e-07
-0.003732
0.003096
0.0006361
0.7331
-0.6532
-0.07999
-0.0004038
0.001127
-0.0007235
0.0004644
-0.0005246
6.019e-05
0.3856
0.04377
-0.1693
0.1723
-0.00297
-3.507e-05
0.0002184
-0.0001814
-0.001581
-0.0005564
0.000519
3.734e-05
0.002354
-0.00064
-0.0003534
0.000264
8.937e-05
-0.3103
0.2717
0.03859
5.7e-05
-6.131e-05
4.311e-06
-0.0004255
-0.0009592
0.6784
-1.154
0.4751
-0.007453
0.00531
0.002143
0.2839
-0.2541
-0.02982
-0.001329
0.0007951
0.0005342
0.0002066
-0.0001204
-8.625e-05
0.0003484
-0.001777
0.001429
-6.987e-05
0.001061
-0.0009909
-0.004209
-0.003244
0.0009837
0.0005885
0.6691
-0.5848
-1.31e-06
-1.238e-07
1.433e-06
-0.0001155
-0.0005915
2.927e-05
2.544e-05
-0.004915
-0.001287
0.006202
-0.0003601
0.001057
-0.000697
2.107e-05
0.004089
-0.00411
-0.2832
0.1844
1.936e-05
-3.204e-05
1.269e-05
0.004435
-0.0007414
-0.04265
-0.0495
-0.0002019
5.056e-05
0.0001513
0.01982
0.02116
-0.04098
-0.0005126
0.0008542
-0.0003416
-2.16e-05
1.487e-05
6.734e-06
0.0008031
-0.0004299
-0.0003732
0.0004332
0.0003699
0.002329
-0.001317
0.0001217
-0.002761
-4.159e-05
-2.892e-05
-0.0001869
0.0009069
-0.0007201
-0.0004996
-0.000478
-0.001273
0.0003308
0.0009418
-0.0005161
-0.0008842
-2.332e-05
-4.145e-05
6.478e-05
-1.576e-06
0.0004392
0.0002096
-0.0002096
6.253e-06
-0.0004457
7.303e-05
0.0001336
-0.003756
0.001089
0.002666
-0.0009889
0.001732
-0.0007435
-0.1817
0.09077
0.0007405
0.0001834
-0.0009239
0.0006587
-0.0005584
-0.0001003
-0.0001353
0.0001562
-2.09e-05
-0.004194
0.00305
0.001144
-1.325
0.936
0.3891
9.192e-07
7.219e-06
-8.138e-06
1.849e-06
-7.889e-07
-1.06e-06
-0.0001792
-2.24e-05
0.0002016
-0.0001197
7.112e-05
4.857e-05
1.555e-07
-1.225e-07
-3.305e-08
-0.00219
0.001946
0.0002438
-0.8706
0.6466
0.224
-0.0008717
-0.0004486
0.00132
-0.0004559
-0.0005916
-0.0004103
-1.051e-05
0.0004208
-0.0001537
0.0002137
-6e-05
-5.39e-05
0.003247
-0.003193
-0.0001867
-0.001066
0.0009344
-0.001559
0.0006251
-0.008378
0.2267
0.0002865
0.0001234
-0.0004099
-2.16e-05
4.269e-05
-2.109e-05
-0.0002687
0.0001526
0.0001162
-3.526e-05
4.351e-06
3.091e-05
0.0009787
-0.0007285
-0.0002502
0.01995
-0.01105
-0.008902
0.1282
-0.05773
-0.07044
-0.4483
1.127
0.0002406
-5.365e-05
-0.000187
0.1725
-0.2694
0.09696
0.0002585
-0.0001165
-0.000142
-0.0006202
0.000838
-0.0002178
-0.1448
-0.003451
0.1482
1.117e-06
-8.523e-07
-2.645e-07
-0.4472
0.1634
0.2838
0.002197
-0.006831
0.004634
-0.02761
0.1234
-0.09578
0.0003241
-0.0002896
-3.446e-05
0.0004784
0.0009037
-0.001382
-0.003537
0.00265
0.0008877
0.0001274
0.0002731
-0.003145
0.00108
0.002065
-7.323e-05
-0.0001955
-9.354e-07
-3.006e-06
-1.753
0.1009
-0.001816
0.0009036
0.0009121
-4.259e-05
8.453e-05
-4.194e-05
0.0003824
-0.0004006
1.814e-05
0.0002713
-0.0004654
0.0001941
0.001494
-0.000883
-0.0006114
0.6946
0.03854
0.01532
-0.009315
-0.006003
-0.0001973
-0.0001561
0.00627
0.0002208
-0.00649
0.001137
-0.00144
0.000303
-0.0004521
-0.001642
-0.000515
0.0003404
0.0001745
-9.472e-05
-2.497e-05
-0.001619
0.001567
5.151e-05
0.007996
-0.04022
0.03223
-0.0003239
-0.0003874
0.0007113
-0.000171
-0.0006609
0.0003837
0.0002715
0.00016
0.0006833
-0.0008432
-0.2417
0.6429
-0.4012
-0.002377
-0.001817
0.0003744
-0.0008234
-0.1554
0.1012
0.05426
-9.492e-05
-0.0002602
0.0003551
0.3788
-0.6205
0.5175
0.2603
-0.7778
-0.0007
0.000766
-6.607e-05
0.0002057
-2.268e-05
0.003019
-0.02249
0.01947
-0.1078
0.001614
-0.001503
-0.0001113
0.0001605
-0.0001865
2.601e-05
1.104e-06
7.454e-07
0.0008508
0.01159
-0.01244
1.209
-0.8285
-0.3803
0.0008656
-0.0007778
-8.777e-05
5.519e-05
-7.457e-05
1.937e-05
0.0009422
-0.000945
2.827e-06
0.000168
-5.267e-05
-0.0001154
-0.6171
0.3432
0.2739
-0.008209
0.002339
0.00587
0.000202
-0.001162
0.0009
-0.00156
0.00066
0.0001084
0.000356
0.0008894
-0.0002799
-0.0006095
-0.3842
-0.4865
0.1253
0.02795
-0.001314
-1.539e-05
-8.437e-05
-0.001115
0.0001852
0.000172
-0.003248
0.002299
0.0009487
0.06901
-0.04572
-0.02329
0.0008606
-0.0009304
-0.001811
-0.001921
-0.03733
0.03905
1.113
0.09611
2.483e-05
-0.0001281
0.0001033
0.1113
0.1726
-0.0003816
0.000509
-0.0001273
-2.838e-05
-0.0005453
-0.004848
0.0001646
0.004684
-2.123e-05
1.998e-05
-0.1209
0.1731
-0.05223
0.0001544
3.621e-05
-0.0003455
0.0004221
-0.004368
-0.0008644
0.005233
0.0001523
-0.0001207
-3.164e-05
-0.0001352
7.756e-05
-0.0002265
0.0001483
7.817e-05
-0.0003816
0.0004927
-0.000111
-0.5787
1.124
-0.5454
-0.0004302
0.0003225
0.0001077
0.01643
-0.003289
-0.01315
0.01292
-0.03882
0.0259
-0.07257
0.4528
-0.9679
0.4368
0.5311
0.005559
-0.0005317
-0.005027
1.645
-0.8923
-0.7529
0.0735
-0.6412
0.5677
-0.0003989
0.0004889
-9.001e-05
-0.01259
0.01108
-0.0009796
0.001525
-0.0005458
1.311
-0.4558
-0.8553
0.0003386
1.204e-05
-0.0003507
0.00217
-0.00251
0.0003406
0.0002082
-0.0002082
-0.000593
0.0002165
0.0003765
-0.0009593
0.0002054
-0.0009213
0.003233
0.001165
-0.001019
-0.0001455
-0.0007632
5.709e-05
0.0007061
-0.001403
0.0009634
0.00044
0.6774
-1.256
-1.023
-0.5131
1.536
0.08698
-0.2078
0.0005947
0.0003521
-0.0009467
-0.0003932
-0.0006208
0.001014
-0.006766
-0.02585
0.03261
0.0005036
0.0004751
0.002726
-0.002059
-0.0001047
0.0003054
-0.0002007
0.001873
-0.002732
0.000859
-0.05442
0.04405
0.01037
-0.0002098
-6.041e-05
0.0002702
0.0002209
0.0001535
-0.0003744
-0.03117
-0.02325
-0.4076
0.63
-0.2224
-6.213e-05
3.881e-05
0.00227
-0.001303
-0.0003083
-0.0008126
0.001121
-0.303
0.3299
-0.02689
-0.001453
1.683e-05
-0.0002924
-0.000103
0.0003955
0.0004566
-0.001837
0.3056
-0.1076
-0.198
-0.002022
0.005741
0.0002566
-0.0003035
4.695e-05
-0.1297
-0.03346
0.1632
0.0002491
-0.000209
-4.017e-05
0.08033
0.04784
-0.00595
0.001374
0.004577
2.221e-05
-0.0002241
1.123
-0.8698
-0.2533
0.001221
-0.001415
0.0001936
0.004815
-0.0005918
-0.004223
-4.291e-05
-0.0009367
-0.0002992
-0.0002157
-0.2896
-0.1576
0.0001203
-3.763e-05
-8.268e-05
-0.0005917
0.000642
-5.03e-05
0.0005169
0.0001105
-0.0006274
0.0007599
0.0008544
0.003445
-0.00182
-0.001625
-0.001536
0.002289
-0.0007531
-0.543
0.9517
-0.4087
0.0003887
-0.0006581
0.0002694
-0.001276
0.04107
-0.03979
-0.0003556
0.00241
-0.0001855
8.615e-05
9.932e-05
-2.1e-06
2.825e-05
-2.615e-05
3.389e-05
-2.273e-05
-1.116e-05
-0.002042
0.0005342
0.001508
-0.0009191
0.0001559
-0.0447
-0.0245
0.0692
-7.346e-05
-0.006404
1.847e-05
4.081e-05
0.02565
0.0184
0.0003145
-0.0005939
0.0002793
8.226e-07
-8.627e-07
4.013e-08
-0.01434
0.006694
0.007642
0.01816
-0.002414
-0.01575
0.005949
-0.003721
-0.002228
0.3691
-0.9892
0.6201
0.0001716
-0.0003267
0.0001551
-0.000758
0.000621
0.0001371
-1.429
0.4058
-0.0001144
-5.051e-05
0.0001649
-1.304
0.6879
0.6156
9.193e-05
-0.0006413
0.0005493
-0.002868
0.01652
-0.01366
-0.001211
-0.001933
0.0001428
-0.0006553
-0.01747
0.003719
0.01376
0.0008013
-0.0002159
-0.0005854
-0.006106
0.06124
-0.05513
0.0009386
-0.0004217
0.00891
-0.008503
-0.0004067
0.0001552
-6.286e-05
-9.238e-05
0.001531
0.001215
-0.002746
0.000532
-0.0007757
0.0002437
-0.1777
0.05827
0.1194
0.0003354
-0.0001842
-0.0001512
-0.3372
7.246e-05
-4.907e-05
-2.339e-05
-5.546e-05
1.149e-05
-0.9492
1.033
-0.08347
-6.899e-07
5.947e-06
0.01016
0.005154
-0.004037
0.0009671
0.00307
0.0002292
-7.766e-05
-0.0001515
7.137e-06
4.987e-05
-0.000597
-0.001704
0.002301
0.0001482
-0.0002596
0.0001115
0.000526
-4.453e-05
-0.0004815
-0.000109
0.000641
-0.2755
0.793
8.895e-05
7.908e-05
-0.0003137
0.0005927
-0.000279
0.0003989
-0.0003954
-3.485e-06
0.001057
0.0004373
-0.4018
-0.5474
3.639e-05
-4.055e-05
4.166e-06
-0.001166
-0.0001071
0.8066
-0.4376
0.0009731
0.0005419
-0.001515
0.0004698
-0.0003264
-0.0001434
0.0004408
-0.0008
0.0003591
-0.0004182
0.0004675
-4.926e-05
-0.7921
0.3845
0.0004431
-0.0006928
0.0002497
-0.0002167
-0.0002134
1.266
-0.6513
-0.6149
0.0001924
0.000143
0.0005492
0.0006384
-0.001188
3.995e-05
0.0009066
0.0004478
-0.001354
0.0007981
-0.0001864
-0.0006117
4.399e-05
-1.795e-05
-2.604e-05
0.001103
-0.0002606
-0.0008426
0.0001689
-0.0002763
0.0001073
0.01565
-0.002643
-0.01301
1.156
-1.242
0.0863
0.0001605
-0.0001645
-0.000409
5.125e-06
0.002227
0.0003357
-0.002563
-1.396e-05
3.881e-06
-0.0009404
-0.001102
0.003384
0.01305
0.0003651
0.0001047
-0.0009936
-0.001197
-0.001949
-0.0036
0.005549
1.542
-0.6389
-0.9027
-0.004502
0.001301
0.003201
-0.01562
-0.1141
0.7842
0.2558
-1.04
-0.2183
0.07355
0.0009302
-0.001502
0.0005716
-0.000445
-0.0009583
-0.001152
-0.003696
-0.3465
0.03628
0.08084
0.007522
-0.08836
0.00456
-0.004533
-2.652e-05
-0.00162
0.003414
-0.001794
0.0148
-0.005507
-0.009292
0.0004343
-0.0005158
0.002132
-0.002398
0.000266
-0.09692
0.1566
-0.005661
0.007858
-0.1326
0.05178
0.0808
0.004803
0.0007559
7.513e-05
-1.37e-05
5.619e-05
0.0003229
-0.02486
0.007385
0.01026
0.004537
-4.605e-05
0.0009697
-0.0009237
-0.5686
-0.04854
-0.0003612
0.0002816
7.959e-05
1.202
0.4428
-0.0009817
-0.0004338
0.001415
-0.001718
0.001709
8.953e-06
-0.0003938
-0.0003642
-1.249
-0.07562
0.1767
-0.2043
-0.0005041
-0.0005193
0.001023
-1.45e-05
1.492e-06
1.301e-05
-1.663e-05
1.601e-05
0.003347
-0.00796
0.003359
-0.008274
0.0006087
0.0005561
0.0001171
0.0001235
-0.002234
0.00318
-0.0009453
1.302
-0.4747
-0.8278
-0.003969
-0.00424
-0.002555
0.002663
-0.0001078
0.02594
0.1018
-0.1277
-0.01803
0.03146
-0.01343
0.0004579
-0.0006198
-0.0001744
0.0002139
-3.95e-05
0.0004869
-0.0008804
0.0001065
-9.418e-05
0.7549
0.1082
-0.8631
0.007177
0.07444
-0.08162
0.0002789
-0.0004476
0.0001686
0.0005667
-0.001271
0.0007047
0.543
0.07433
-0.6173
0.001214
-7.707e-05
0.01276
-0.002272
-0.01049
7.58e-05
-4.485e-05
-3.095e-05
-0.001277
0.001277
-1.768e-07
0.0003992
-0.0003492
-0.001795
-0.001171
0.002965
-0.004594
0.0005575
-0.0001033
9.615e-05
7.111e-06
0.9104
0.2456
-0.0008726
0.001254
-0.000381
-0.0007059
0.0007466
-4.078e-05
0.003791
0.002158
-0.0005978
0.0002405
0.0003573
0.0006205
0.0001331
-0.0007537
0.436
-0.1686
0.0001064
-9.315e-05
-1.321e-05
-0.0004133
3.174e-05
-0.002338
0.001239
0.001099
-0.0001407
0.0001176
0.000131
-0.0001015
-2.953e-05
1.802e-05
-0.000718
-0.005442
0.008204
-0.002762
0.01775
0.002525
-0.02028
0.001326
-0.0008354
-0.0004907
0.00188
0.001565
-2.199e-06
9.37e-05
-9.15e-05
0.0001374
0.0001867
-0.0003109
-0.001308
-0.0004249
-0.0001681
-0.0006867
0.0005749
0.0001118
0.04758
-0.144
0.09644
0.6646
0.877
-0.1125
-0.02006
5.481e-05
1.765e-05
9.832e-05
0.0007673
0.8014
-0.2282
-0.5732
0.0001364
-0.0003651
-0.0003092
0.0002534
-0.09907
0.1466
-0.0002792
0.001022
-0.000122
8.281e-05
3.921e-05
-0.03717
0.7062
-0.001501
0.001849
-1.357
0.1794
1.177
-0.0188
-0.01336
0.03216
0.009745
-0.01128
0.001534
1.151
0.1605
0.0002123
-4.138e-05
-0.0001709
8.053e-06
-8.381e-06
3.274e-07
0.03184
-0.03311
0.07675
0.06352
-0.1403
0.0002643
-0.001062
0.0007977
6.954e-05
5.077e-05
-0.005318
0.005863
0.0001022
0.000127
-0.000231
-4.502e-06
0.0002355
-1.071e-06
-1.011e-07
1.172e-06
0.0001972
0.0001852
0.0006366
0.001269
-0.001906
0.002747
-0.000874
-1.22
0.3624
0.8572
0.0002953
3.189e-05
-0.0003272
0.9615
-1.186
0.2248
-0.001063
0.001541
8.945e-05
-7.752e-05
-1.193e-05
-0.001198
0.003714
-0.002516
0.0005833
-0.001565
-0.001102
0.001641
-0.0005383
-0.001084
0.0006547
0.0004293
-0.7304
0.6932
0.7009
0.4222
0.0006218
-0.0008287
0.0002069
0.001222
0.003338
0.981
-0.2261
-0.000105
7.381e-05
3.119e-05
0.06498
-0.04656
-0.01842
0.002798
-0.002196
-0.0006021
0.1325
-0.05625
-0.0762
-0.0004761
-0.0005724
0.001048
0.0007197
-0.0003804
-0.0003393
-0.0005314
0.0005391
-7.702e-06
0.3131
0.9893
-0.0002975
0.0006871
-0.001946
-0.001591
0.006496
-0.003341
-0.003155
0.007535
-0.003824
-0.003711
-1.033
-0.2595
1.292
-5.317e-05
-7.145e-05
0.0001246
0.0002372
-0.0001533
-8.392e-05
0.0005655
-0.0004316
-0.0001339
-0.003235
-0.002716
-0.001738
-0.0006002
-5.173e-05
4.966e-05
-0.06081
-0.2026
0.2634
-0.0001891
-0.000172
0.0001964
-0.0001486
-4.78e-05
0.0002338
-5.492e-05
0.3426
-0.1701
-0.001042
7.291e-05
0.0009689
-0.2822
1.066
-0.001672
0.0006005
0.001072
0.000214
4.412e-05
-0.0002581
-0.2056
-0.1704
0.376
7.944e-05
-1.205e-05
-6.74e-05
0.001584
-0.001958
0.0003742
-8.931e-05
0.001182
-0.001092
-4.262e-05
-0.002479
0.002522
0.0006009
0.0007252
-0.002451
-0.001305
0.0004505
0.000434
-0.0008845
0.05032
-0.07044
0.02012
-4.325e-05
-0.00141
0.0007516
-0.0008431
9.157e-05
-0.0008355
0.001867
-0.001032
-0.07851
-0.07692
0.0118
-0.01271
0.0009136
-0.00283
0.003263
-0.0004324
0.686
-4.979e-05
-8.547e-05
0.3812
-0.2522
-0.129
0.03851
-0.01719
-0.02132
-0.0001447
0.0001185
2.626e-05
-0.2832
0.07755
1.074
-0.4321
-0.6421
-0.002178
-0.002324
0.0006225
-0.0009308
0.7054
0.09607
-0.459
0.7905
-0.3315
0.0001126
-6.759e-05
-4.504e-05
0.0424
0.02661
-0.01832
0.02921
-0.01089
0.0004864
-0.0004905
4.069e-06
-0.001036
0.001902
-0.0008654
-0.000303
0.0007411
-0.0004381
-0.02956
-0.1712
0.2008
-0.0007125
0.03311
-1.39
-9.853e-05
0.0001164
-1.784e-05
0.0002223
1.731e-06
-0.0002241
-5.209e-06
0.02527
-0.02527
5.2e-06
-3.946e-05
3.426e-05
0.02875
-0.07204
0.04329
-0.2813
-0.02026
0.3016
0.0001735
-0.0001691
-4.442e-06
0.002828
-0.0006586
-0.0003659
-0.0003373
0.0007032
0.002092
-0.001331
-0.0007608
0.0001106
-0.0001675
5.685e-05
-0.0001042
0.0001037
5.711e-07
0.001779
-0.001643
-0.0001366
-6.804e-05
5.116e-05
1.687e-05
-0.0001572
0.0001848
-2.759e-05
0.1517
-0.6482
0.4964
0.001788
-0.001596
-0.0001923
-0.001153
0.001379
-0.0002261
-0.0004177
3.462e-05
0.001491
-0.002344
0.0008534
0.0008664
0.0001714
-0.001038
-0.000559
-1.554e-05
0.0005745
0.00991
-0.05256
0.09218
0.2238
-0.316
-0.001324
0.0005336
0.0007905
0.001541
-0.001427
-0.0001135
-0.0002254
2.598e-05
0.0001994
0.1418
0.01882
-0.1606
-0.001295
0.0008202
0.0004752
0.0002405
0.001337
-0.001578
-0.001241
0.001068
0.0001725
-0.0006327
0.0003359
0.0002968
-0.1859
0.2194
-0.03343
0.001736
-0.001145
-0.0005914
0.0001469
9.028e-05
-0.001411
0.00395
-0.002539
-0.002074
0.0005904
0.001484
-0.002222
1.726e-06
0.00222
1.435
-1.168
-0.2675
0.001349
-0.0007662
-0.0005832
1.913e-05
1.858e-05
-3.771e-05
-0.000692
0.000551
0.000141
-0.6305
-0.1708
0.8013
0.0007723
0.000753
0.1991
-0.2793
0.08027
-0.000209
0.0001779
3.117e-05
-0.0004928
0.001427
-0.7632
-0.2047
0.02005
0.6716
-0.6916
-0.05192
0.1178
-0.06593
-5.454e-05
-0.0005624
0.0006169
-0.0001196
0.0001083
1.133e-05
-0.0003666
-0.0008104
0.001177
-0.01229
0.008605
0.003683
-0.002156
0.002097
5.889e-05
-0.0003882
-0.000208
0.0005962
0.0008461
-0.001581
0.0007346
4.72e-06
4.849e-06
-9.569e-06
0.0009611
3.315e-05
-0.0009942
0.79
-1.308
0.5184
0.1053
0.744
-0.8494
-0.2441
0.325
-0.08091
-0.0002178
0.0002178
0.4571
0.8296
-1.287
0.00344
-0.002236
-0.001204
0.00727
-0.01034
0.003072
-0.0006415
0.003508
-0.002867
0.001099
-0.001262
0.0001631
0.001968
-0.001213
-0.0007551
3.194e-07
-5.21e-08
-2.673e-07
0.0008517
-0.000446
-0.0004057
0.001501
0.000777
-0.002278
0.0001758
-3.385e-05
-0.000142
-2.978e-05
0.0005371
-0.0005073
-0.8958
1.071
-0.1751
2.763e-05
-0.0001101
8.243e-05
0.0006414
-0.001232
0.0005907
1.017
-0.963
-0.05411
-0.0005091
-9.599e-06
0.0005187
-0.002024
-4.987e-05
0.0004068
0.0002399
-0.0006467
0.0001197
4.712e-05
-0.0001668
-0.03348
0.2113
-0.1778
-0.0005727
-0.0001272
0.0006999
-0.001542
0.003273
-0.001731
0.002222
-0.0008714
-0.001351
0.0005507
0.0009386
-0.001489
-6.643e-05
-0.000193
0.0002594
-0.0003752
2.277e-05
0.0003524
0.0006307
-0.0003759
-0.0002548
-0.005493
0.008697
-0.003203
0.00466
-0.002609
-0.002051
-0.00293
0.004868
-0.001937
-0.0006299
-0.0002942
0.000924
-0.001066
-0.0004017
0.001468
-6.349e-05
0.000142
-7.852e-05
-0.0003556
-0.000215
0.0005706
-5.21e-06
-3.276e-05
3.797e-05
-0.003129
-0.006696
0.009825
0.0002216
0.00124
-0.001462
0.7092
-1.254
0.5453
-0.2985
0.05887
0.2397
0.6327
-0.278
-0.3546
0.001577
-0.001562
-1.504e-05
0.0001166
0.0003314
-0.0004479
0.01539
-0.007133
-0.00826
-0.002947
-0.004482
0.003873
0.003661
-0.002591
0.001325
0.001266
-0.0008634
-0.0009186
0.001782
0.000888
0.0003204
-0.001208
-9.135e-05
9.135e-05
-1.409e-05
-5.709e-05
7.118e-05
-0.02893
-0.2524
-1.159
0.2288
0.93
-5.192e-06
-9.522e-07
6.144e-06
9.007e-05
-9.007e-05
1.307
-0.5179
-0.7891
-0.003648
0.007625
-0.003977
0.001143
-0.0006676
-0.0004754
-0.08961
0.07639
0.01322
0.001113
0.00025
-0.001363
4.656e-05
-4.656e-05
-0.0001372
0.0001465
-9.323e-06
-0.0723
0.1241
-2.213e-07
3.315e-06
-3.094e-06
-0.0002233
0.0002233
-0.0002956
-0.0003598
0.0006554
-0.004304
0.001353
0.002951
-0.000209
2.976e-05
-0.000669
0.001175
-0.0005061
0.0001219
-9.245e-06
-0.0001126
0.8242
0.03279
-0.857
-0.0003345
-0.0009869
0.001321
0.004934
-0.0002232
-0.004711
-0.1207
-0.05699
9.861e-06
-9.042e-06
-8.194e-07
0.1935
-0.3875
0.194
1.015
-0.3603
-0.6551
0.002599
-0.0007349
-0.001864
-0.0001114
-0.0002208
0.0003322
-0.02273
0.02256
0.0001739
-0.001079
0.0001957
0.0008836
0.01992
-0.02848
0.008553
-1.181
-0.1825
1.363
-0.0001506
0.0001108
3.98e-05
0.000727
-8.45e-05
-0.0006425
0.08157
-0.05282
-0.0006838
0.001023
-0.0003388
0.004573
-0.005529
0.0009563
0.3324
0.03835
-0.3707
-9.516e-05
9.75e-05
-2.339e-06
0.000499
-0.001071
0.0005724
0.0001039
0.0001895
-0.0002934
0.1017
-0.1539
0.05216
-0.7614
0.9646
-0.2032
-2.434e-06
-2.998e-06
5.432e-06
0.5043
-0.5565
0.05221
-6.57e-05
4.602e-05
1.967e-05
-2.545e-05
-7.99e-05
0.0001054
-0.001895
-0.005795
0.00769
-0.001113
-0.00172
0.002833
-3.624e-07
-0.0007116
0.0007119
0.002676
0.001383
-0.004059
-0.0001505
4.368e-05
0.0001069
-4.05e-05
4.05e-05
0.001392
-0.0004211
-0.0009711
0.0002801
-0.002067
0.001787
0.002183
-0.0005853
-0.001598
-0.000209
0.000209
0.00139
-0.003019
0.00163
0.0003789
-0.0003981
1.92e-05
-0.4071
0.4669
-0.05983
-0.0006755
0.001625
-0.0009492
-0.001563
-1.746e-05
0.00158
0.000426
-0.001441
0.001015
0.1267
-0.2131
0.08637
-0.007692
0.003909
0.003783
0.6766
-0.3666
-0.31
0.0004143
-0.0002876
-0.0001267
-0.001065
0.0006442
0.0004204
-7.381e-06
0.000163
-0.0001556
-0.001619
0.00184
1.366
-0.8552
-0.5109
0.005314
0.001495
-0.006809
-0.0009838
0.0003093
0.0006745
0.01406
-0.01199
-0.002065
1.826e-06
-1.094e-06
-7.327e-07
0.00069
-0.0002393
-0.0004508
1.239e-05
-3.129e-05
1.89e-05
-0.0002188
0.0003895
-0.0001708
0.006593
0.004001
-0.01059
-0.07496
0.02349
0.05147
0.002381
-0.0003988
-0.001982
0.0006731
-0.0004473
-0.0002258
-0.9635
1.508
-0.5447
0.03721
-1.001
-0.001365
0.002665
-0.001301
0.001469
-0.0005622
-0.003787
0.001294
0.002493
-5.381e-05
-0.0008468
0.0009006
9.998e-05
3.442e-05
-0.0001344
-0.005071
0.001832
0.003239
-0.08689
1.281
-1.194
-0.488
0.7022
-0.2143
-0.0004823
-0.0001053
0.0005877
-0.001578
0.0004575
0.001121
-0.0002697
0.0004839
-0.0002142
-0.02004
0.02306
0.004306
0.002983
-0.007289
1.599
-0.9751
-0.6244
1.039
0.3964
-0.22
0.2174
0.002639
8.199e-06
-2.475e-05
1.655e-05
0.0001365
-0.0001038
-3.267e-05
3.963e-05
1.575e-05
-5.537e-05
0.0001169
-0.0001169
0.00705
-0.005668
-0.001382
1.982e-05
-0.0004569
0.0004371
0.2435
-0.4862
0.2427
-0.0002941
0.0001225
0.0001716
0.0004631
-0.0003988
-6.433e-05
0.02536
-0.01422
-0.01114
-0.0002787
8.151e-07
0.0002779
1.003
-0.8661
-0.1365
-0.0001026
-0.0006345
0.0007371
-0.0419
-0.4565
0.4984
0.000459
-0.0004097
-4.929e-05
1.733
-0.529
-1.204
0.02985
-0.03662
0.0001162
-1.179e-05
-0.0001044
7.12e-05
-7.12e-05
1.754e-05
-2.838e-06
-1.47e-05
-0.001171
-0.0005014
0.00101
-4.909e-05
-0.001131
0.0006822
0.0004492
8.067e-06
3.956e-05
-4.762e-05
0.000229
-0.0004692
0.0002403
-0.003805
0.002254
0.001551
-0.04092
0.03837
0.002549
0.03885
0.04272
-0.0009675
0.00145
-0.0004827
-0.001264
0.0009601
0.0003043
0.002035
-0.002081
4.633e-05
1.616e-05
-1.616e-05
-0.003695
0.003664
3.158e-05
-3.942e-06
-0.0003427
0.0003467
4.551e-05
-0.000115
6.953e-05
-1.493
0.4602
-0.02477
0.02448
0.0002889
-0.0007647
0.0007992
-3.45e-05
1.615
-0.9088
-0.7063
-0.0007163
0.00138
-0.0006636
0.000459
0.002284
-0.001978
-0.0003059
0.0004568
-0.001404
0.000947
0.0009744
-1.926e-05
-0.0009551
0.6319
-0.8915
0.2596
-0.0001643
-0.0001208
0.0002851
-0.0007874
-0.001237
0.0001686
-0.000183
1.436e-05
-1.376
0.8444
0.5312
0.0008723
0.0004896
-0.001362
-0.004598
0.003537
0.001061
-0.0003335
0.0004288
-9.524e-05
3.564e-05
-2.661e-05
-9.025e-06
-0.002692
0.002348
0.0003443
0.0003735
-0.0002363
-0.0001372
-0.0002454
-0.0003524
-0.00111
-0.0005845
0.001694
0.0002115
-0.0002054
-6.128e-06
0.002071
-0.003651
0.00158
-0.009859
-0.005356
0.01521
-1.016e-06
2.749e-06
-1.733e-06
0.09152
-0.2073
0.1158
0.2844
0.05914
-0.3435
1.421
-0.6315
-0.002738
0.003855
-0.001117
0.0001077
-0.0001259
1.812e-05
-0.0002953
-2.38e-05
0.0003191
-0.000339
0.004074
-0.003735
9.49e-05
-0.000203
0.0001081
-0.000903
0.001647
-0.000744
-0.002034
-0.004955
0.006989
0.0004736
5.238e-05
-0.0001779
2.737e-05
-0.01946
0.01526
0.004194
-6.21e-05
-5.965e-05
0.0001217
4.421e-05
4.578e-05
-9e-05
-0.0001798
0.0002755
-9.574e-05
-4.383e-05
-2.794e-06
4.663e-05
0.0004856
-0.0004856
-0.04396
0.05196
-0.002173
0.005595
-0.003422
0.1726
-0.2721
0.09956
0.0001072
-0.0001061
-1.143e-06
-0.001259
0.00118
7.848e-05
0.002564
-0.0004535
-0.002111
-6.063e-08
-3.67e-05
3.676e-05
0.004488
-0.002379
-0.002109
0.0002098
-0.000117
-9.279e-05
0.001064
0.01467
-0.01573
9.504e-05
-0.0002176
0.0001225
0.0005775
-0.0009076
0.0003301
7.722e-05
-0.0003469
-0.1099
-0.282
0.392
0.0004819
0.001522
-0.002004
-4.703e-05
0.001301
-0.001254
1.307e-05
-1.288e-05
-1.885e-07
-0.00119
-8.777e-05
0.001278
-0.0004137
4.055e-05
0.0003731
-0.0003192
7.147e-06
0.000312
-0.000878
-0.0005857
0.001464
0.0003412
-0.001017
-0.4088
-0.1379
0.5468
2.68e-06
7.181e-06
-5.415e-05
0.0001875
-0.0001333
-0.01701
0.07536
-0.05835
-1.375e-05
-0.0001952
-0.001684
0.0007102
0.0009743
0.0002636
-0.0002376
-2.607e-05
-1.076
-0.5903
-1.076
-0.5904
-1.154
0.9682
0.1856
-0.0001361
0.0002108
-7.474e-05
-4.677e-05
-2.126e-05
-0.0009823
0.003364
-0.002382
0.0003048
0.0003259
-0.003479
0.003491
-1.249e-05
0.01349
-0.006895
-0.0002398
8.613e-05
-0.002694
0.01571
-0.01302
8.846e-05
-0.0007871
0.0006986
-0.001289
-0.0003993
0.001688
0.0004788
-0.0002908
-0.000188
-0.0002504
0.0003823
-0.0001319
0.09194
-0.1533
0.06136
-0.0005249
0.0002479
0.000277
-0.001202
0.00385
-0.002648
-0.0002673
0.0004938
-0.0002264
-0.1933
0.2346
-0.04136
-0.0001642
0.00402
-0.003856
0.001009
-0.0015
0.0004903
-0.0004452
-0.0003201
0.0007653
0.0001051
-0.0001051
0.5809
0.1751
-0.7561
0.3777
-0.07106
-0.3066
-0.0004853
0.001038
-0.0005526
-0.009904
0.02584
-0.01593
-0.001004
0.001688
-0.0006841
0.0007982
0.0002454
-0.001044
0.001978
0.0008201
0.007982
-0.006193
-0.00179
-0.006117
0.009615
-0.003498
0.0002559
-0.0004277
0.0001718
0.647
-0.8852
0.2382
0.001039
0.0003457
-0.001385
-9.501e-05
8.123e-05
1.377e-05
1.848
-0.2199
-1.628
0.09958
-0.1162
0.0166
0.001175
-0.0002151
-0.0009597
0.03957
0.0123
-0.05187
-2.59e-05
-0.0001013
0.0001272
-0.0001162
-3.817e-05
0.0001544
0.00147
-0.001714
0.0002437
2.666e-05
1.793e-05
-4.458e-05
-0.0003983
0.001182
-0.0007833
0.0002584
-0.0001133
-0.0001451
-0.01007
-0.03085
-7.74e-05
-6.499e-05
0.0001424
0.000962
0.0003703
-0.001332
0.001702
-0.0025
0.0007986
-0.0005276
0.0008382
-0.0003106
-0.0006151
0.0003309
0.0002842
0.0001369
-0.002239
0.002102
-0.0002044
-7.963e-06
0.0002123
0.0002813
-0.0002262
-5.513e-05
0.857
-0.8922
0.03514
0.04081
0.9763
-1.343
0.7652
0.5779
0.001192
-0.00025
-0.001077
0.0002318
0.0008448
-0.000182
-0.0004101
0.0005921
0.08441
-0.02098
-0.06343
0.01175
-0.005485
-0.6784
0.4296
0.2488
0.0002133
-0.001279
0.01434
0.03599
-0.05033
0.003268
-0.00325
-1.773e-05
0.001723
-0.001075
-0.0006479
0.0006162
-0.0009401
-0.001896
-0.0981
0.09999
-0.05947
0.06487
-0.005402
-0.005146
0.01521
-0.01007
-0.02682
0.01437
0.01246
-0.001721
0.001068
0.0006535
0.02049
-0.006357
-0.01414
-0.0009616
0.0006654
0.0002962
-0.00167
0.0002054
0.001465
-0.05445
0.01614
0.03831
0.0002064
-0.0002075
1.19e-06
-0.002733
-0.000849
0.003582
7.334e-05
-0.0002027
0.0001293
-0.0003747
-0.0002694
0.0006441
-0.4421
0.3606
0.08157
0.001006
0.0007765
-0.001783
0.002036
5.259e-05
-0.002088
-0.0003332
0.0003332
0.00116
-0.0004879
-0.0006722
-0.02197
0.007967
0.014
0.001463
0.001977
1.75e-05
-0.0003285
0.000311
-8.889e-05
0.0001205
-3.165e-05
-0.004941
0.005198
-0.0002573
-0.001014
-0.002584
0.003598
-0.2091
-0.6548
0.8639
-0.0152
0.02855
-0.01335
-9.332e-05
-0.0004316
-0.001301
0.001171
0.0001291
-0.9562
0.2065
0.7496
-0.004211
0.008369
-0.004157
-0.0001845
0.0001041
8.031e-05
0.0001014
-0.0001144
1.299e-05
-0.005351
0.006575
-0.001225
-0.0001354
4.503e-05
9.036e-05
-0.02552
-0.005033
0.03056
0.001287
-0.0005468
-0.001195
-0.01069
0.01189
-0.004017
0.01184
-0.007822
0.0004969
0.0006607
-0.001158
-0.0001044
3.912e-05
6.528e-05
-0.000203
5.895e-06
0.0001971
-0.006695
0.0125
-0.005801
0.4158
-1.101
0.6854
-0.0001874
-0.0003105
0.0004978
0.3075
-0.001915
0.09117
-0.02684
-0.06433
9.548e-07
-1.322e-07
0.001331
-0.002194
-1.507e-05
2.542e-05
-1.035e-05
0.07157
-0.05324
-0.01834
-0.001174
0.0009205
0.0002531
-0.006138
0.009025
-0.002886
1.114
-1.117
0.002423
-0.0002772
7.181e-05
0.0002054
-0.001506
-0.001423
0.002929
-1.184
-0.03524
-0.07838
0.0354
0.04298
3.154e-06
-3.652e-06
4.979e-07
0.0001166
-0.0001166
0.0003472
-0.0003008
-4.636e-05
0.003475
-0.003336
-0.0001382
-8.011e-05
-0.0005634
0.0006435
0.9944
-1.338
0.3433
0.0002485
-0.0004359
0.02949
-0.02937
-0.0001223