/*--------------------------------*- C++ -*----------------------------------*\
| =========                 |                                                 |
| \\      /  F ield         | OpenFOAM: The Open Source CFD Toolbox           |
|  \\    /   O peration     | Version:  v2012                                 |
|   \\  /    A nd           | Website:  www.openfoam.com                      |
|    \\/     M anipulation  |                                                 |
\*---------------------------------------------------------------------------*/
FoamFile
{
    version     2.0;
    format      ascii;
    class       volVectorField;
    location    "5";
    object      U;
}
// * * * * * * * * * * * * * * * * * * * * * * * * * * * * * * * * * * * * * //

dimensions      [0 1 -1 0 0 0 0];


internalField   nonuniform List<vector> 
100503
(
(-0.001206 -0.004548 5.432e-22)
(-0.001593 -0.005012 4.228e-22)
(0.02916 -0.00495 2.357e-22)
(0.04748 -0.008224 -9.346e-22)
(-0.001549 -0.004718 4.457e-22)
(-0.0009191 -0.003181 0)
(0.04083 -0.005162 1.076e-21)
(0.5705 0.1223 0)
(0.6071 0.4549 1.674e-20)
(-0.001709 0.0008294 -1.145e-22)
(0.4392 0.03364 3.071e-21)
(0.3742 0.7478 1.374e-21)
(0.5733 1.126 3.422e-21)
(0.6175 1.148 -3.287e-21)
(0.572 0.2887 -1.335e-20)
(0.686 1.36 -3.891e-21)
(0.8808 1.646 1.005e-20)
(0.467 0.03736 -9.603e-21)
(0.107 -0.02182 -3.946e-22)
(0.5735 1.075 -7.352e-21)
(0.7796 0.1599 1.649e-20)
(0.7235 0.1208 1.953e-20)
(-0.001062 -0.003923 6.217e-22)
(0.3449 0.01273 -8.778e-22)
(0.07372 -0.01533 5.446e-22)
(0.989 0.1097 -1.623e-20)
(0.9654 0.1677 -7.648e-21)
(1.104 -0.003933 0)
(0.8334 -0.2473 0)
(0.3562 -0.06786 0)
(-0.001693 -0.0049 2.594e-22)
(0.2915 -0.1676 -1.692e-21)
(0.2902 -0.1655 8.348e-22)
(0.7462 -0.1603 4.875e-23)
(0.1921 -0.0407 5.313e-21)
(0.7229 -0.2362 -1.034e-22)
(0.7471 -0.1614 -1.047e-21)
(0.01795 0.01394 -8.405e-21)
(1 0.0001205 -3.519e-23)
(0.8338 -0.247 -6.433e-23)
(0.9234 -0.1898 3.387e-22)
(0.9909 -0.01883 7.338e-21)
(-0.002601 0.00101 -5.641e-22)
(0.8139 -0.2418 -2.882e-21)
(1.131 0.02475 0)
(-0.1178 0.0552 1.494e-21)
(0.9776 0.3219 4.092e-21)
(1.11 0.0163 5.68e-22)
(0.9785 -0.2105 0)
(1.117 0.001623 0)
(0.07052 -0.01872 0)
(0.8041 -0.2517 -1.852e-21)
(0.5896 -0.07457 -1.629e-20)
(0.4203 -0.2128 -2.083e-21)
(0.8145 -0.2413 3.311e-21)
(1.287 0.1697 0)
(1.048 -0.1955 0)
(-0.116 0.05216 -2.754e-21)
(0.7381 -0.261 0)
(-0.01672 -0.02579 6.93e-22)
(1.041 -0.009216 1.277e-19)
(1.262 0.005402 0)
(-0.0662 0.03093 0)
(0.701 -0.2398 2.735e-21)
(0.5795 0.02507 -8.243e-21)
(0.839 -0.2388 -1.785e-21)
(0.9944 -0.008231 -9.312e-20)
(0.3153 -0.03428 -6.29e-21)
(0.7718 1.468 1.189e-21)
(0.5024 -0.2455 -2.727e-21)
(0.8949 -0.2284 5.38e-22)
(1.157 -0.1012 7.534e-21)
(-0.05666 0.02637 3.454e-21)
(1.108 -0.002516 -3.407e-21)
(1.002 -0.1966 -2.484e-22)
(0.9778 -0.177 0)
(-0.126 0.05778 0)
(1 4.396e-06 -3.774e-24)
(1 4.431e-06 3.946e-24)
(0.7106 -0.2469 -9.021e-22)
(1.515 0.4226 9.708e-21)
(-0.04472 0.01561 6.179e-22)
(1.045 -0.1812 0)
(0.9906 -0.01831 -9.362e-21)
(-0.117 0.05517 3.913e-21)
(1 0.0001199 3.53e-23)
(-0.1279 0.06046 4.417e-21)
(-0.008792 0.005359 1.821e-21)
(0.6845 -0.2511 -3.135e-21)
(-0.08479 0.1144 -8.305e-22)
(0.634 -0.2076 3.944e-22)
(-0.01834 0.02176 0)
(0.1787 -0.02772 1.032e-20)
(0.9919 -0.01892 2.18e-20)
(0.9891 -0.0006428 2.393e-22)
(0.9245 -0.1632 0)
(-0.06724 0.02904 0)
(1.048 -0.1952 0)
(1 3.995e-06 -3.004e-25)
(1 4.028e-06 -2.99e-25)
(0.04862 0.003104 9.996e-21)
(0.3498 -0.06662 5.364e-23)
(0.9372 -0.2219 1.718e-22)
(1.037 -0.1631 -1.771e-23)
(0.588 -0.06669 -2.209e-22)
(1.001 0.03279 3.076e-21)
(0.09959 -0.0225 -5.012e-21)
(0.5347 -0.09346 4.399e-22)
(0.8936 -0.1884 -1.46e-20)
(0.9175 -0.1945 5.73e-22)
(0.6898 -0.2509 0)
(0.1979 -0.0411 -4.568e-21)
(0.3181 -0.1733 0)
(1.012 -0.2023 0)
(-0.1215 0.05858 0)
(-0.1042 0.04908 0)
(-0.1158 0.05434 0)
(0.8643 -0.238 1.32e-22)
(0.3362 -0.1629 -2.203e-21)
(1.02 -0.05495 0)
(-0.086 0.04475 2.789e-21)
(1.135 -0.1015 9.308e-21)
(-0.05896 0.02737 -1.338e-21)
(0.3168 -0.1705 0)
(0.2318 -0.1157 1.932e-21)
(0.778 -0.144 -9.412e-22)
(1.001 -0.1965 2.545e-22)
(0.7947 -0.2034 -1.68e-20)
(0.8936 -0.2022 9.72e-23)
(0.809 -0.145 -2.795e-21)
(0.66 -0.2563 -4.285e-21)
(1.439 0.2319 -5.572e-20)
(1.003 -0.001711 1.915e-19)
(1.001 -0.03535 0)
(0.6439 -0.0813 -2.498e-21)
(1.069 -0.1865 9.741e-22)
(1.006 -0.1774 -1.562e-21)
(1.078 -0.1824 0)
(-0.138 0.06452 -4.669e-21)
(1.025 -0.1942 -1.229e-21)
(1.063 0.0128 0)
(0.531 0.3627 -6.039e-21)
(1.009 -0.2017 -1.485e-21)
(1.077 -0.1505 4.4e-24)
(-0.08537 0.03484 -2.934e-22)
(0.9046 -0.1617 -1.176e-21)
(1.025 0.005407 -1.066e-20)
(1.039 -0.1986 8.558e-22)
(0.9145 -0.1762 0)
(1.011 0.002878 -6.775e-20)
(1.205 0.1402 -3.296e-22)
(0.8954 -0.06751 6.952e-22)
(1.025 -0.004169 -1.293e-19)
(1 9.078e-06 1.301e-24)
(0.8716 -0.2351 9.692e-22)
(0.133 -0.03823 0)
(0.97 -0.07691 0)
(0.01639 0.009239 0)
(0.9699 0.3061 0)
(0.8178 -0.1334 0)
(0.8231 -0.1535 2.797e-23)
(0.6756 -0.05417 0)
(-0.007297 -0.03198 3.345e-22)
(0.8774 -0.2275 0)
(1.006 -0.005759 -1.656e-20)
(0.08918 -0.01494 0)
(0.4081 -0.2089 1.039e-21)
(1.024 -0.005231 1.127e-19)
(1.069 0.01138 2.397e-19)
(0.02879 0.01227 -1.158e-20)
(0.8946 -0.2282 6.03e-22)
(0.3027 -0.06192 0)
(0.8394 -0.2383 1.388e-21)
(0.3623 -0.2037 0)
(0.9893 0.008846 -2.84e-20)
(0.3695 -0.06851 -1.263e-21)
(0.979 -0.2109 0)
(1 2.227e-05 -5.911e-25)
(0.8034 -0.2092 -2.429e-21)
(1.006 -0.02453 -2.141e-20)
(0.7406 -0.2562 -2.83e-21)
(-0.1289 0.06008 -4.071e-21)
(0.8649 -0.2338 1.235e-21)
(0.8616 -0.2414 2.118e-21)
(0.8021 -0.2085 0)
(1.039 -0.1986 -1.361e-21)
(1.003 -0.001604 8.955e-20)
(-0.01273 0.00218 0)
(0.9892 -0.1792 -6.893e-22)
(0.5388 -0.09427 -2.927e-22)
(0.7138 -0.1396 -1.64e-21)
(0.8371 -0.2467 -1.757e-21)
(0.581 -0.0465 0)
(0.9896 -0.0005276 1.245e-19)
(-0.02374 0.01073 7.2e-21)
(1.046 -0.1803 0)
(0.9999 -0.03604 2.875e-21)
(-0.2325 0.7906 1.302e-22)
(1.026 -0.03041 0)
(0.9291 -0.00178 2.347e-21)
(-0.01726 -0.02593 1.266e-21)
(0.7157 -0.2398 -2.57e-21)
(0.7209 -0.2407 1.705e-21)
(0.7232 -0.2352 9.399e-23)
(1.135 0.01121 2.115e-21)
(-0.08512 0.03441 1.07e-21)
(0.6101 -0.243 5.088e-21)
(0.9186 -0.1769 0)
(0.6851 -0.2583 0)
(0.8736 -0.2351 9.504e-22)
(-0.05767 -0.02213 3.786e-21)
(0.9203 -0.1657 1.251e-21)
(0.4615 -0.009912 0)
(-0.115 0.05355 -4.897e-21)
(-0.1287 0.06002 3.833e-21)
(0.9955 -0.1997 2.27e-22)
(0.6912 -0.2452 -4.567e-21)
(1.002 0.03248 0)
(0.9173 -0.2107 0)
(0.8857 -0.1697 -2.678e-22)
(-0.08757 0.03781 0)
(0.99 -0.202 -3.24e-22)
(1 0.0001854 0)
(-0.0393 0.0141 2.446e-22)
(-0.008512 -0.03032 0)
(-0.3255 0.7247 -3.535e-22)
(-0.09734 0.1499 -1.211e-21)
(-0.00306 0.0007784 -9.868e-23)
(0.9824 -0.209 6.41e-23)
(1.001 0.001517 6.32e-22)
(0.9019 -0.2313 1.425e-21)
(0.9305 -0.1934 -5.766e-22)
(1.145 0.165 0)
(-0.03242 0.02564 5.162e-21)
(1.047 -0.181 3.966e-23)
(0.9371 -0.222 -3.305e-22)
(0.445 -0.1164 -4.141e-21)
(1.039 -0.01013 -2.5e-19)
(1.235 0.2806 -1.321e-21)
(-0.03352 0.01416 1.011e-21)
(0.6163 -0.1103 1.069e-21)
(-0.05911 0.0194 -3.496e-22)
(0.671 -0.2678 -1.975e-22)
(1.081 -0.01868 4.722e-21)
(0.9998 -0.01164 3.646e-21)
(1 2.115e-05 5.256e-24)
(-0.1154 0.0533 -2.083e-21)
(0.9903 -0.004167 -4.606e-20)
(-0.2732 0.6326 -3.716e-22)
(-0.05737 0.5475 -1.086e-21)
(0.987 0.02511 -1.554e-20)
(-0.01259 0.00516 2.048e-21)
(0.9972 0.01162 1.593e-20)
(1.037 -0.164 5.27e-21)
(0.979 0.008906 -3.115e-20)
(-0.1019 0.04878 1.25e-21)
(1.077 -0.1896 8.978e-22)
(1.371 1.126 -5.381e-21)
(-0.1209 0.0585 5.775e-22)
(0.7777 -0.2381 0)
(0.5967 -0.1033 0)
(-0.007362 -0.03212 -3.396e-22)
(1 9.73e-06 0)
(1.018 -0.2018 1.029e-21)
(0.07967 -0.02234 -5.591e-21)
(0.2325 -0.05544 -2.517e-21)
(1.03 -0.1777 7.013e-22)
(0.08021 0.007448 -2.176e-20)
(1.005 -0.006526 1.737e-20)
(0.8672 -0.172 5.253e-21)
(0.361 -0.2025 0)
(0.8584 -0.1932 -1.248e-20)
(0.8918 -0.2304 -7.118e-22)
(1.068 -0.1867 -9.317e-22)
(0.4432 -0.2257 1.337e-21)
(-0.09508 0.1468 1.164e-21)
(0.9426 -0.2197 -9.654e-23)
(0.919 -0.01239 -1.07e-19)
(0.6962 -0.2635 -4.232e-21)
(1.22 0.1486 0)
(1.043 -0.1634 0)
(0.9488 -0.2098 5.526e-23)
(1.003 -0.00451 -1.382e-20)
(0.9897 -0.202 3.069e-22)
(0.6567 -0.08052 4.518e-21)
(1.018 0.06854 -3.506e-20)
(0.447 -0.2282 0)
(1.002 -0.004368 1.431e-20)
(1.005 -0.003355 -3.387e-20)
(0.8884 -0.1772 1.164e-21)
(0.05756 0.001438 -4.932e-21)
(0.9589 -0.1143 -1.482e-20)
(1.067 0.0132 -1.823e-19)
(0.7117 -0.2502 3.149e-21)
(0.8997 -0.1489 -7.33e-22)
(-0.00866 -0.0304 0)
(0.9133 -0.1592 -1.701e-20)
(1.006 -0.002457 1.593e-20)
(0.8885 -0.1809 -1.108e-22)
(-0.02687 0.01697 -3.014e-21)
(1.022 -0.1967 -6.348e-22)
(-0.09159 0.03925 1.411e-21)
(0.9994 0.005057 0)
(0.8453 -0.1999 1.245e-20)
(0.8638 -0.2376 5.721e-22)
(0.6124 -0.08016 -2.579e-21)
(0.4098 -0.2081 0)
(1.005 -0.194 -1.475e-21)
(1.001 0.001418 0)
(0.9923 -0.01834 -3.159e-20)
(0.7399 -0.2565 2.247e-21)
(0.9065 -0.2078 0)
(0.7817 0.044 1.062e-20)
(1.525 0.545 7.586e-23)
(1.164 -0.002441 4.485e-20)
(0.8612 -0.241 2.802e-22)
(0.877 -0.2273 -6.806e-22)
(0.9699 -0.07479 0)
(1.005 -0.002502 -3.487e-20)
(-0.02863 0.02436 1.362e-21)
(1.006 -0.02372 2.142e-20)
(0.2395 -0.05149 0)
(0.5015 -0.2438 1.379e-21)
(0.8938 -0.2183 0)
(-0.06748 0.03117 0)
(1.006 0.02709 -3.825e-21)
(-0.138 0.06449 3.921e-21)
(0.4212 -0.2114 3.867e-21)
(0.8524 -0.203 -6.628e-22)
(0.7433 -0.1248 6.06e-22)
(-0.01686 0.02147 1.545e-20)
(0.1235 0.03702 2.229e-21)
(0.3273 -0.06499 5.474e-21)
(1 2.13e-05 0)
(0.8054 -0.1442 -1.602e-22)
(0.9867 -0.1585 -1.369e-22)
(1.151 -0.06346 7.148e-20)
(1.011 0.0025 8.93e-20)
(0.9998 0.001818 -1.618e-20)
(1.053 -0.1749 0)
(1 2.262e-05 0)
(1.002 -0.002025 -3.952e-20)
(0.5267 -0.252 1.259e-21)
(1.421 0.2325 2.209e-22)
(1.098 -0.1859 0)
(1 1.098e-05 0)
(-0.1203 0.04671 5.453e-21)
(0.9876 -0.2043 0)
(0.4909 -0.009142 2.275e-20)
(0.9976 -0.179 4.614e-22)
(1.014 -0.2022 1.195e-21)
(1.025 -0.1936 1.437e-21)
(0.2413 -0.03957 2.791e-20)
(0.8441 -0.1712 0)
(0.9195 -0.207 1.352e-23)
(1 2.066e-05 0)
(1 7.261e-06 4.508e-24)
(1.005 0.02675 9.074e-21)
(0.7967 -0.251 2.314e-21)
(0.7728 -0.2579 2.785e-21)
(0.9203 -0.06058 0)
(0.6723 -0.2678 0)
(0.3512 -0.03784 0)
(0.9107 -0.1577 -5.152e-22)
(0.9062 -0.2193 5.668e-22)
(1.162 0.1249 0)
(0.887 -0.1564 -1.407e-22)
(0.996 -0.1594 0)
(1.156 0.1295 0)
(1.003 0.002274 0)
(-0.05642 -0.02303 -2.68e-21)
(0.6359 -0.206 2.938e-21)
(0.7317 -0.0777 7.885e-22)
(0.9903 -0.002317 1.314e-20)
(1.048 -0.1954 8.372e-22)
(1.34 0.4355 0)
(1.012 -0.2021 -2.072e-22)
(0.9903 0.003099 5.387e-20)
(0.796 -0.202 5.984e-21)
(0.2229 -0.05292 0)
(1.072 -0.0524 3.16e-20)
(-0.1173 0.05543 0)
(0.9986 -0.01074 3.977e-21)
(0.9814 -0.1953 0)
(-0.2308 0.7861 -2.043e-23)
(1.001 -0.001083 0)
(0.5751 -0.2367 -4.925e-21)
(0.7557 -0.2025 4.911e-22)
(1.098 -0.1855 -4.074e-22)
(0.4414 -0.2251 -1.352e-21)
(0.9973 0.0113 0)
(-0.09127 0.03046 0)
(0.8624 -0.1653 0)
(0.99 -0.1873 -1.468e-22)
(0.7127 -0.2497 -3.116e-21)
(1.116 -0.1486 -1.852e-21)
(0.6755 -0.08162 0)
(1.002 -0.0006561 -1.195e-19)
(1.419 0.4978 0)
(1.023 0.008389 1.573e-20)
(1.079 -0.1817 1.682e-21)
(0.3034 -0.1902 4.434e-21)
(-0.06904 0.02783 -9.203e-22)
(-0.002437 0.01083 2.946e-21)
(1.016 -0.2028 -3.334e-22)
(0.8111 -0.169 0)
(1.021 0.1024 1.046e-20)
(1.075 -0.1501 1.154e-21)
(-0.1054 0.04985 -5.833e-22)
(1.163 0.1146 -4.111e-21)
(0.548 -0.1482 -1.169e-21)
(-0.005049 -0.01611 0)
(0.6575 0.1339 -2.286e-20)
(1.319 0.01719 6.716e-20)
(1.551 0.6245 1.301e-20)
(1.004 -0.003606 0)
(0.4995 -0.1064 2.177e-21)
(0.5844 -0.2628 0)
(1 7.63e-06 -4.25e-24)
(-0.09472 0.04333 3.357e-21)
(0.9999 0.0002074 6.751e-20)
(0.8891 -0.02444 4.37e-21)
(1.072 -0.01646 0)
(0.7766 -0.2378 2.532e-21)
(0.9525 0.001845 0)
(0.9984 -0.1295 1.415e-21)
(0.04109 0.01794 -2.221e-21)
(0.8221 -0.06414 -1.15e-21)
(0.9725 -0.1832 0)
(1.26 0.8886 0)
(-0.1675 0.286 -9.224e-22)
(0.3516 0.5517 7.684e-21)
(0.9802 -0.1802 -1.144e-21)
(0.9951 0.04388 2.228e-20)
(0.7981 -0.1426 1.398e-21)
(1 8.566e-05 3.17e-20)
(0.03149 -0.003715 0)
(0.018 0.008784 -4.108e-21)
(1 -0.0003458 6.895e-20)
(0.1779 -0.03433 0)
(0.8693 -0.1718 9.999e-21)
(0.9457 -0.2069 0)
(-0.1053 0.04787 -5.788e-21)
(0.4131 -0.07045 1.165e-21)
(0.9071 -0.2218 -1.303e-21)
(0.9278 1.137 2.094e-21)
(0.2852 -0.05929 -3.408e-21)
(0.9956 -0.184 1.374e-21)
(1.005 -0.003205 0)
(-0.09173 0.0389 -8.611e-21)
(0.568 -0.1377 0)
(0.3374 1.617 6.689e-22)
(0.08414 0.007075 -1.996e-20)
(1 -0.0002686 7.557e-20)
(0.4889 -0.08598 1.59e-23)
(0.6844 -0.2576 1.912e-21)
(1.004 -0.003719 -4.382e-20)
(0.9386 -0.2194 1.992e-22)
(0.1692 -0.03627 0)
(1.008 -0.1903 0)
(1.02 -0.1811 -4.293e-22)
(1.003 0.002119 2.79e-20)
(1.497 0.7651 -4.414e-21)
(0.8101 -0.1432 -1.106e-21)
(1.003 -0.003313 4.581e-21)
(0.8019 -0.1421 -9.425e-22)
(0.9659 -0.2097 0)
(-0.1166 0.05516 -3.791e-21)
(0.9006 -0.2285 1.433e-21)
(0.1541 -0.02118 -1.088e-20)
(0.003882 0.01072 4.346e-21)
(1.018 -0.2017 -4.467e-22)
(-0.1192 0.04382 2.057e-21)
(1.068 -0.1155 1.773e-20)
(0.9991 0.000848 1.197e-22)
(0.8289 -0.1479 9.28e-22)
(-0.001139 -0.02114 0)
(0.9092 -0.2235 -1.407e-21)
(-0.04499 0.01517 -5.758e-22)
(1.016 -0.2028 6.625e-22)
(0.9884 -0.1572 2.749e-22)
(0.1677 -0.03558 0)
(0.9821 -0.209 0)
(0.994 -0.1849 4.266e-22)
(1.004 0.001072 -6.98e-21)
(0.7964 -0.2264 0)
(1.073 -0.04833 -1.101e-20)
(1.003 -0.0003009 -5.749e-20)
(0.987 0.02376 1.034e-20)
(1.061 -0.1941 9.091e-22)
(0.9238 -0.2078 -1.217e-22)
(0.8931 -0.2179 0)
(0.9897 0.009251 0)
(1.01 -0.02597 -1.473e-21)
(1.077 -0.1734 -3.632e-21)
(1.061 -0.1862 -6.834e-23)
(0.93 -0.172 8.635e-23)
(1.023 -0.1803 1.734e-21)
(-0.06167 -0.04988 -8.739e-20)
(1.059 0.0123 2.23e-19)
(1.037 -0.1626 0)
(0.9887 -0.02418 -8.304e-21)
(1.054 -0.1739 0)
(0.05839 -0.02579 -5.269e-21)
(-0.08407 0.04429 -1.394e-21)
(0.9976 -0.1309 -6.703e-22)
(0.9318 -0.1722 -8.745e-23)
(0.813 -0.2513 1.802e-21)
(0.9994 0.004865 0)
(-0.1294 0.06164 0)
(1 2.161e-05 3.967e-26)
(0.7982 -0.2486 -1.239e-21)
(1.501 0.5289 3.31e-21)
(0.5839 -0.262 -1.868e-21)
(1 0.000194 2.861e-24)
(0.9796 0.008339 -1.484e-20)
(0.9001 -0.2313 -1.187e-21)
(-0.0344 -0.005464 -7.749e-23)
(-0.06036 0.02767 8.468e-22)
(0.8927 -0.1874 1.336e-20)
(0.7147 -0.1355 0)
(0.2776 -0.04514 -3.442e-20)
(-0.1151 0.05317 3.324e-21)
(1.022 -0.1959 -6.328e-22)
(0.9999 -0.0003975 3.357e-22)
(0.8434 -0.1993 0)
(1.005 -0.2001 1.095e-22)
(0.9977 -0.01321 -6.328e-21)
(1.057 -0.02033 0)
(0.1929 -0.02874 1.031e-20)
(0.2101 -0.05434 3.459e-21)
(0.7374 -0.2604 0)
(-0.05447 0.02588 -3.36e-21)
(1.002 -0.001477 4.199e-21)
(0.9521 -0.005699 -2.055e-21)
(0.172 -0.02861 4.685e-21)
(0.8161 -0.2463 0)
(1.003 0.001127 -5.532e-21)
(0.8991 -0.2322 7.939e-22)
(1.044 -0.1453 0)
(0.6588 -0.1148 -5.613e-22)
(1.014 -0.2031 -1.364e-22)
(-0.1141 0.05123 6.612e-22)
(0.6479 -0.1915 0)
(0.9452 -0.2074 0)
(0.049 -0.007375 0)
(0.9993 0.0009174 0)
(0.776 -0.254 1.787e-21)
(0.9306 -0.1721 9.922e-22)
(1.554 0.6012 -1.329e-20)
(0.6857 -0.1316 0)
(1.301 1.333 -5.132e-21)
(0.9946 -0.007973 7.986e-20)
(-0.08668 0.03571 0)
(0.2494 -0.05188 1.997e-22)
(0.6171 -0.07735 9.697e-22)
(-0.06527 0.02846 1.192e-21)
(-0.1286 0.06007 -6.321e-22)
(0.907 -0.1834 -7.971e-22)
(0.995 -0.1785 -1.172e-21)
(1.297 0.004341 0)
(0.8614 -0.2138 0)
(1.116 -0.1475 0)
(-0.1254 0.05677 -5.242e-22)
(-0.1011 0.04849 0)
(0.9423 -0.2196 0)
(0.993 -0.1783 0)
(1.058 -0.1824 -4.638e-22)
(0.9893 0.02462 0)
(1.004 0.001484 7.563e-21)
(0.9877 -0.02414 8.283e-21)
(0.03137 -0.00312 -4.562e-21)
(0.9053 -0.1845 0)
(0.9995 -0.002367 4.103e-20)
(0.7052 -0.05553 2.256e-21)
(-0.1266 0.05991 -3.975e-21)
(0.9898 0.02517 -1.317e-20)
(0.6608 -0.2553 5.144e-22)
(-0.08778 0.02743 1.125e-21)
(1.003 -0.001576 0)
(0.8648 -0.2335 -1.213e-21)
(1 4.418e-05 0)
(0.9847 -0.09024 0)
(1.343 0.03189 0)
(1 9.799e-06 4.648e-24)
(0.115 -0.02191 -3.382e-21)
(-0.03141 0.008921 4.13e-22)
(1.026 0.01558 -9.201e-21)
(0.998 -0.01244 -2.827e-21)
(0.916 -0.2274 -5.656e-22)
(-0.09169 0.03091 -5.188e-22)
(1.286 0.01055 1.147e-20)
(-0.1051 0.04777 4.549e-21)
(0.6126 -0.1069 5.274e-22)
(0.006421 -0.01991 0)
(0.2351 -0.05523 0)
(1.092 -0.1768 -1.044e-21)
(0.9065 -0.2189 0)
(1.003 -0.0007782 3.409e-20)
(0.2151 -0.04556 2.919e-21)
(1.005 -0.002851 -9.486e-20)
(1.077 -0.1893 0)
(-0.1282 0.05971 1.268e-20)
(0.9607 -0.1996 0)
(0.7977 -0.248 2.94e-22)
(0.9361 -0.2223 0)
(0.7008 -0.2647 0)
(1.003 -0.001386 1.269e-19)
(1.001 -0.001039 0)
(1.106 -0.172 -4.842e-25)
(1.077 -0.1725 3.653e-21)
(1.002 -0.001537 -7.321e-21)
(0.09723 -0.01349 0)
(1.132 -0.07404 3.953e-20)
(0.8783 -0.2301 -1.871e-21)
(1.061 -0.07477 -6.742e-20)
(0.9776 -0.1965 -4.53e-22)
(0.509 -0.08175 0)
(0.8477 -0.1594 1.579e-21)
(0.9997 -0.0003496 8.733e-22)
(0.8081 -0.2524 -6.959e-22)
(1.344 1.157 0)
(0.9795 -0.1982 -1.458e-22)
(0.9312 -0.1986 -1.733e-21)
(1 7.157e-06 7.487e-25)
(-0.1056 0.04702 6.229e-22)
(-0.1091 0.04949 0)
(-0.1064 0.05442 2.512e-21)
(0.9809 -0.1952 -7.338e-23)
(0.6154 -0.07952 6.372e-21)
(-0.08389 0.1191 6.493e-22)
(0.996 -0.008418 -3.745e-20)
(-0.1293 0.06174 -6.733e-22)
(-0.1018 0.04538 0)
(0.1033 -0.02315 4.593e-21)
(0.9907 -0.004161 2.503e-20)
(1.458 0.4096 2.252e-23)
(1.003 -0.0003551 -1.39e-20)
(0.8608 -0.2399 1.434e-21)
(-0.1084 0.05239 1.217e-21)
(0.9921 -0.005157 0)
(0.03 -0.002077 0)
(1.022 -0.1993 -5.128e-22)
(1.036 -0.1972 9.269e-22)
(0.562 1.277 -1.373e-21)
(0.8663 -0.2156 -6.547e-22)
(0.995 -0.1998 2.24e-22)
(1.1 -0.1856 0)
(0.999 -0.006254 1.123e-21)
(1.047 -0.1953 -1.072e-21)
(0.7335 -0.07781 0)
(0.9836 -0.2048 2.713e-22)
(1.015 0.06548 0)
(1.058 -0.116 1.095e-21)
(0.9756 -0.2056 -4.457e-23)
(1.005 -0.00294 0)
(-0.08728 0.03774 4.173e-21)
(0.9913 -0.004975 -2.056e-20)
(1.051 -0.03397 0)
(-0.06999 0.03072 2.349e-21)
(0.9923 -0.004908 0)
(0.9577 -0.005919 8.641e-21)
(0.7951 -0.226 1.853e-21)
(0.7483 -0.07702 2.5e-21)
(0.9997 -0.002353 -1.009e-20)
(1.002 0.0003944 1.41e-19)
(0.07319 -0.01872 2.217e-21)
(1.161 -0.005124 4.442e-20)
(1.045 -0.005483 -6.396e-21)
(0.8338 -0.1595 -2.148e-22)
(1.452 1.036 2.266e-21)
(1.023 -0.1854 -1.629e-22)
(0.8491 -0.006938 -5.081e-21)
(1.018 -0.2019 0)
(1 4.711e-05 -5.362e-25)
(-0.1328 0.06237 0)
(-0.1785 0.801 -7.222e-26)
(1.058 -0.05797 -4.725e-21)
(0.05618 -0.01266 3.173e-21)
(1.007 -0.03248 -8.023e-21)
(0.9983 -0.01031 2.116e-20)
(-0.06793 0.03071 8.055e-22)
(0.9879 -0.2039 0)
(1.03 -0.1902 -1.278e-21)
(0.7499 -0.2489 -3.914e-21)
(-0.1226 0.0557 -3.862e-21)
(0.1091 -0.0319 -6.767e-21)
(0.9487 -0.2173 0)
(-0.09857 0.04458 0)
(0.04953 -0.004778 2.592e-21)
(0.998 0.002142 -5.397e-20)
(0.7259 -0.2495 0)
(0.71 -0.2588 1.96e-21)
(0.7449 -0.1405 -1.913e-24)
(0.7314 -0.07818 -4.604e-21)
(0.8063 -0.2524 -1.421e-21)
(0.7209 -0.1502 -2.142e-22)
(0.9978 -0.03529 -3.067e-21)
(0.9948 -0.002916 -7.881e-20)
(0.2893 0.0677 -4.172e-21)
(0.6019 -0.2384 0)
(0.3882 -0.2204 0)
(0.9983 -0.01272 8.975e-21)
(0.8073 -0.2518 1.304e-21)
(1.11 -0.1727 -1.858e-21)
(0.3578 1.361 0)
(0.3644 1.472 -7.523e-22)
(1.019 0.03068 4.66e-20)
(0.8821 1.461 7.982e-22)
(-0.1091 0.04936 -7.816e-22)
(1.016 -0.1937 2.039e-22)
(-0.1207 -0.04185 6.865e-20)
(1.127 -0.132 2.697e-21)
(1 0.0005139 2.769e-22)
(0.9007 -0.2206 0)
(-0.02237 0.01177 3.338e-21)
(-0.1361 0.7916 -4.526e-23)
(1.001 0.001335 -5.587e-21)
(1.099 -0.1857 -2.355e-21)
(0.993 -0.01005 5.282e-20)
(0.3099 -0.1854 -1.627e-21)
(0.4511 -0.1149 0)
(0.9998 0.001699 8.807e-22)
(1.009 -0.001705 -1.8e-21)
(0.9959 -0.02127 -4.332e-22)
(0.8447 -0.1702 -3.858e-22)
(-0.1235 0.05714 8.478e-22)
(0.8694 -0.2402 0)
(0.6519 0.03599 7.756e-20)
(1.077 -0.1863 1.535e-21)
(0.9064 -0.1761 -1.742e-21)
(0.8834 -0.236 -1.378e-21)
(-0.0448 0.01984 -1.137e-21)
(0.6909 -0.2653 -4.614e-21)
(1.003 0.0006537 -1.237e-19)
(1.001 -0.002844 0)
(0.9945 -0.008628 0)
(0.6805 0.1506 -1.581e-20)
(1 0.0004435 0)
(1.041 -0.1928 -8.246e-22)
(0.6853 -0.09619 3.858e-20)
(0.908 -0.2195 2.873e-21)
(0.8698 -0.1984 9.025e-23)
(1.004 -0.2058 -4.865e-22)
(-0.004204 -0.001973 -1.187e-25)
(0.6491 -0.2671 0)
(0.8226 -0.2408 -1.54e-21)
(0.4773 -0.08708 1.954e-21)
(0.7634 -0.03453 1.086e-21)
(0.9996 0.0001252 2.424e-22)
(-0.09505 0.04106 -8.812e-21)
(0.9134 -0.2213 -7.29e-22)
(1.003 0.0003898 1.235e-21)
(0.664 -0.06878 8.088e-21)
(-0.1174 -0.04241 -8.06e-21)
(0.7692 -0.2039 5.126e-23)
(0.0799 -0.01295 -4.61e-21)
(1.037 -0.000727 -2.038e-19)
(0.5948 -0.2554 -9.13e-22)
(0.8618 -0.229 0)
(1.057 -0.1923 -2.264e-22)
(1.108 -0.1789 -2.707e-21)
(0.09845 0.1472 -1.515e-21)
(0.5133 -0.2341 0)
(0.6469 -0.05662 0)
(0.7311 -0.1181 0)
(1.116 -0.03377 0)
(1.086 -0.1515 0)
(0.8749 -0.1746 0)
(0.9033 -0.2302 0)
(-0.1204 0.05506 7.085e-21)
(-0.1159 -0.0253 -2.724e-21)
(-0.04237 -0.02405 -1.033e-21)
(1.064 -0.1254 -6.191e-21)
(1.085 -0.1858 8.568e-22)
(1 0.0004467 -1.734e-22)
(0.992 0.01837 -6.592e-20)
(1.001 -0.006966 2.019e-20)
(0.8653 -0.2404 0)
(0.5569 -0.2572 0)
(0.661 -0.05393 0)
(0.5486 0.3563 1.841e-22)
(0.9324 -0.1984 1.71e-21)
(0.9786 -0.2067 1.089e-22)
(0.5937 -0.1944 0)
(0.8979 -0.2312 8.14e-22)
(-0.06549 0.02691 0)
(-0.03621 0.01831 -2.315e-21)
(0.9981 -0.01035 -2.86e-20)
(1 3.73e-05 2.824e-23)
(-0.01301 -0.02732 1.776e-22)
(-0.06501 0.02644 -3.146e-20)
(1 3.962e-05 -1.28e-22)
(0.7428 -0.02274 5.899e-20)
(0.983 -0.1891 -5.785e-22)
(0.9519 0.07532 0)
(0.9996 -0.2043 -2.409e-22)
(-0.07367 0.03675 6.64e-21)
(0.2022 -0.0479 7.513e-21)
(0.9895 -0.02514 0)
(0.01166 -0.02344 -1.083e-25)
(0.2639 -0.1508 -7.657e-21)
(0.3033 -0.05774 -2.559e-21)
(0.8441 -0.2192 1.367e-21)
(-0.3156 0.7197 2.577e-22)
(0.8365 -0.2424 0)
(-0.1307 0.05945 3.301e-21)
(1.003 0.0005021 5.523e-21)
(0.8733 -0.2385 1.586e-21)
(0.6868 -0.1917 4.459e-21)
(0.9945 0.04244 -1.153e-20)
(-0.002272 0.01722 -2.157e-22)
(1.008 0.01066 4.448e-22)
(1 -7.537e-05 7.269e-20)
(0.9635 -0.2131 7.611e-23)
(-0.1251 0.05377 -2.788e-21)
(1.357 0.1955 -7.429e-20)
(-0.1157 -0.0394 1.861e-20)
(0.9316 -0.1272 0)
(1 2.225e-05 0)
(-0.05261 0.02498 -3.305e-21)
(1.057 -0.1917 -2.334e-21)
(1.005 -0.03168 6.137e-22)
(0.363 -0.09904 -5.238e-21)
(0.9625 -0.1995 -2.768e-22)
(1.011 -0.01361 -1.49e-20)
(-0.1103 0.05032 3.454e-22)
(0.6855 -0.2604 -2.333e-21)
(0.7697 1.655 0)
(0.8185 -0.04188 0)
(1 -9.05e-05 -1.325e-19)
(0.1646 -0.03389 1.625e-22)
(1.004 0.005788 0)
(0.02467 0.05253 -1.649e-21)
(-0.09879 0.04306 -3.697e-22)
(0.6716 0.3603 0)
(0.1291 -0.006763 -5.267e-20)
(0.9114 -0.1827 3.088e-22)
(1.015 -0.05584 0)
(-0.1035 0.04618 2.152e-21)
(-0.03703 0.0137 2.703e-20)
(1.371 0.2828 7.727e-21)
(0.9381 -0.2188 1.476e-22)
(1.5 0.9097 0)
(0.4325 0.003372 3.185e-22)
(0.52 -0.08634 5.897e-21)
(0.5755 -0.06346 1.047e-20)
(0.9964 0.007165 2.649e-20)
(0.09415 0.001491 0)
(0.9112 -0.2284 0)
(1.05 -0.1961 0)
(1.017 -0.03501 9.071e-22)
(0.9309 -0.06594 0)
(1.012 -0.002634 8.354e-20)
(0.7502 -0.1348 3.262e-22)
(0.7817 -0.2382 -4.953e-22)
(-0.1363 0.06378 1.825e-21)
(1.085 -0.1865 -7.251e-22)
(1 0.0001391 -5.106e-24)
(1.082 -0.1469 0)
(0.7733 -0.2594 -2.335e-21)
(1.293 0.6874 -6.174e-21)
(-0.007927 -0.02822 -3.91e-22)
(-0.05859 0.03942 0)
(0.08041 -0.02309 -1.011e-21)
(0.3652 -0.07379 4.227e-21)
(1.111 -0.08765 5.208e-21)
(0.9733 0.09117 2.461e-20)
(0.9572 -0.2127 0)
(0.9922 -0.1791 -7.538e-22)
(1 0.0002372 5.997e-26)
(1 0.0002475 5.56e-24)
(0.972 -0.2073 -1.455e-23)
(0.9007 -0.2282 -4.031e-24)
(1.059 -0.184 -1.897e-21)
(0.4125 -0.06783 4.834e-21)
(-0.1004 0.0444 8.823e-22)
(0.5906 -0.1377 -4.793e-21)
(1 0.0003451 0)
(0.9983 -0.001736 1.648e-19)
(1.049 -0.1855 -5.591e-23)
(1.087 -0.1889 -2.14e-21)
(0.4148 -0.2299 -2.158e-21)
(0.9592 -0.1123 1.61e-21)
(0.9324 -0.1958 0)
(1.002 0.001017 -1.602e-21)
(1 0.0004863 -5.828e-24)
(1.007 0.02864 0)
(-0.07643 0.03421 9.976e-22)
(-0.1296 0.06011 -1.206e-21)
(0.02882 -0.002215 1.692e-21)
(-0.08354 0.03828 0)
(0.8868 -0.2088 3.197e-21)
(1.022 -0.1794 0)
(1.006 0.003091 0)
(0.3013 -0.067 -9.328e-21)
(0.1701 -0.03211 -7.479e-21)
(0.9985 -0.1379 0)
(0.42 -0.2267 1.46e-21)
(1.007 -0.0009416 -7.691e-20)
(0.9328 -0.2017 0)
(1.007 0.004326 -9.038e-20)
(0.6069 -0.1282 -4.763e-22)
(1 1.201e-05 1.264e-24)
(0.9221 -0.05889 0)
(0.2063 -0.04858 -2.27e-20)
(-0.08668 0.0401 2.983e-22)
(0.3586 -0.06084 -1.638e-23)
(0.8602 -0.2399 -1.59e-22)
(0.6912 -0.2646 2.079e-21)
(0.9298 -0.2044 0)
(-0.09076 0.03924 -2.411e-21)
(-0.06206 0.03911 0)
(0.5683 -0.1739 5.762e-21)
(1.122 0.232 0)
(1.005 -0.03055 2.46e-21)
(0.8523 -0.2282 -9.861e-22)
(0.8859 -0.2283 0)
(1.016 -0.1994 0)
(-0.01228 0.004925 -3.201e-21)
(1.006 -0.1965 0)
(0.7973 -0.148 -1.319e-21)
(-0.1979 0.2973 -2.412e-21)
(1 7.54e-06 0)
(1.005 0.3785 0)
(0.6548 -0.2675 1.465e-21)
(0.9993 -3.016e-05 2.263e-21)
(0.9213 -0.2008 -2.517e-22)
(0.3948 -0.08568 0)
(0.9475 -0.2164 0)
(0.8035 -0.2508 3.419e-21)
(1.034 -0.1901 1.365e-21)
(1.003 -0.0006015 6.805e-20)
(0.6462 -0.119 6.655e-22)
(-0.1234 -0.04255 0)
(-0.09455 0.04185 0)
(1.003 -0.0004517 3.361e-20)
(0.2783 -0.0354 0)
(1.003 -0.1916 4.502e-22)
(0.3332 -0.07054 -4.867e-21)
(-0.07086 0.03197 9.042e-26)
(0.9351 -0.219 -1.007e-21)
(-0.0732 0.03674 -7.403e-24)
(0.6788 -0.1265 -2.022e-22)
(1.093 -0.1834 0)
(0.3001 -0.06223 -1.58e-20)
(1.057 -0.1878 -9.996e-22)
(0.7767 -0.1171 -3.768e-20)
(-0.00983 -0.02865 -2.578e-22)
(0.974 0.01267 0)
(1.014 0.003399 -2.379e-20)
(1.003 0.0008046 5.593e-20)
(0.3444 -0.03726 -3.182e-20)
(-0.1222 0.05605 -1.794e-21)
(-0.1099 0.05554 6.128e-21)
(1.115 -0.1371 7.232e-22)
(0.003547 0.02205 1.56e-20)
(0.8081 -0.248 7.857e-23)
(1.022 -0.1733 -3.774e-21)
(0.2897 -0.0593 -3.588e-21)
(-0.104 0.04634 -4.338e-21)
(0.7703 -0.06807 4.968e-22)
(-0.09464 0.04029 1.854e-21)
(-0.06053 0.02482 0)
(-0.1002 0.04665 -3.308e-21)
(-0.1116 0.05308 0)
(0.3884 -0.1381 0)
(0.9218 -0.01381 2.754e-20)
(0.8771 -0.2125 2.04e-21)
(1.012 0.02546 -3.381e-20)
(-0.1033 0.04343 0)
(0.8011 -0.0737 1.115e-21)
(0.916 -0.2223 -6.831e-22)
(-0.05573 0.003243 -5.871e-22)
(1.121 -0.1446 0)
(-0.1225 0.05646 0)
(1.024 0.4298 2.342e-20)
(-0.07687 0.0367 0)
(-0.07257 0.001812 -1.236e-20)
(0.4142 -0.2272 1.864e-21)
(0.9971 0.008876 -1.796e-20)
(0.9536 -0.2161 3.457e-22)
(1.029 -0.1997 1.449e-21)
(-0.02237 -0.02417 -2.413e-22)
(1.032 -0.1997 1.891e-21)
(0.5236 -0.2523 2.272e-21)
(-0.07761 0.03866 0)
(1.068 -0.1921 2.215e-22)
(0.06849 0.006857 0)
(1.001 0.005026 -8e-21)
(-0.005071 0.01876 -5.146e-23)
(-0.1107 0.05114 4.8e-21)
(0.9683 -0.0416 -1.635e-20)
(-0.1169 0.05538 -1.96e-21)
(0.7888 -0.252 2.919e-21)
(-0.13 0.06182 -2.868e-21)
(1 6.399e-06 0)
(1 6.418e-06 0)
(1.002 -0.0002952 0)
(0.1646 -0.04316 -1.192e-20)
(-0.0982 0.0443 0)
(0.6224 -0.1906 6.894e-22)
(0.6477 -0.05627 -7.328e-21)
(0.9162 -0.2164 -9.24e-22)
(1.109 -0.08655 -8.403e-21)
(-0.02996 0.02543 -9.922e-21)
(1.064 -0.103 -8.278e-21)
(0.7672 -0.2008 -7.136e-22)
(1.019 -0.2 0)
(0.8912 -0.1585 -6.128e-22)
(0.3402 -0.07096 5.18e-21)
(0.9723 -0.01529 -1.522e-20)
(0.5427 -0.2545 4.871e-22)
(0.9516 -0.2102 6.856e-22)
(0.9386 0.07954 -8.18e-21)
(0.9858 -0.01024 3.445e-20)
(0.3438 0.00192 5.081e-20)
(1.052 -0.1954 7.346e-22)
(0.5388 -0.2471 2.464e-22)
(-0.08521 0.03903 0)
(0.9998 -0.0006746 0)
(1.012 0.005929 7.066e-20)
(0.7746 -0.0701 -2.356e-21)
(0.8577 -0.08829 0)
(1.03 -0.2003 0)
(0.909 -0.198 -7.736e-23)
(0.8788 -0.2298 1.916e-21)
(0.9395 -0.1913 -7.632e-22)
(0.8339 -0.05873 0)
(0.5541 -0.07954 -4.151e-21)
(0.9982 0.0004148 -4.98e-20)
(0.987 -0.2093 7.007e-24)
(-0.07408 0.03046 0)
(1 8.954e-06 -5.771e-25)
(0.9791 -0.0257 -1.146e-20)
(0.9793 -0.2021 -9.201e-24)
(1.166 -0.04875 0)
(-0.1331 0.06126 0)
(-0.1376 0.06396 0)
(0.9258 -0.2202 0)
(0.3594 -0.06549 -4.53e-22)
(0.8293 -0.2458 0)
(-0.07705 0.03587 3.261e-22)
(1.113 0.238 -1.336e-20)
(-0.1005 0.0438 -8.324e-21)
(0.9135 -0.2144 2.621e-22)
(1.087 -0.179 1.789e-21)
(0.7032 -0.2629 -1.053e-21)
(0.5455 -0.2524 0)
(0.6191 -0.07444 0)
(-0.1304 0.0619 -4.263e-21)
(-0.1309 0.05856 3.053e-21)
(1.001 0.001061 0)
(1.004 0.0004445 6.853e-21)
(1.001 -0.0004858 0)
(1.026 -0.1975 -5.12e-22)
(1.13 0.1068 0)
(1.27 0.2498 -1.06e-20)
(1.137 -0.08324 -1.227e-19)
(0.8605 -0.1914 1.81e-20)
(1.003 0.00513 -8.057e-21)
(0.904 -0.2302 -3.515e-22)
(1.147 -0.0579 -1.389e-20)
(0.9251 -0.2186 -3.229e-22)
(0.9438 -0.2203 -4.483e-22)
(0.6957 -0.2626 3.43e-21)
(1.063 0.05856 -2.347e-19)
(1.021 -0.004607 -7.401e-21)
(1.012 -0.134 -4.063e-21)
(0.7799 0.003388 -5.736e-20)
(0.8404 -0.2456 0)
(1.036 -0.1355 1.702e-22)
(0.9262 -0.193 8.706e-22)
(1.043 -0.1975 0)
(1.173 -0.02565 0)
(-0.1285 0.05987 -3.764e-21)
(1.056 -0.1819 0)
(-0.0982 0.04445 -9.683e-22)
(0.07951 1.369 1.127e-21)
(0.9955 -0.001354 2.727e-20)
(0.7656 -0.2499 0)
(0.437 -0.05795 -1.917e-20)
(0.307 -0.162 -4.729e-21)
(0.9211 -0.2123 0)
(0.6664 -0.08308 0)
(1.041 -0.1926 8.565e-22)
(-0.102 -0.02346 0)
(-0.09141 0.0391 0)
(0.8946 -0.2078 8.7e-22)
(0.8614 -0.2234 -5.123e-21)
(0.9992 0.0009733 -1.459e-19)
(1.256 0.04317 3.884e-20)
(0.5417 -0.2544 -5.022e-22)
(1.008 -0.2042 5.088e-22)
(1.001 0.0004599 -4.699e-20)
(0.9985 -0.1804 1.473e-21)
(-0.127 0.05761 -2.284e-22)
(-0.07043 0.02943 0)
(1.126 -0.1059 5.868e-21)
(-0.059 0.02699 -1.058e-21)
(1.189 0.1968 5.207e-20)
(0.9331 -0.2123 1.068e-22)
(1.021 -0.1642 0)
(1.107 -0.06406 9.268e-21)
(1.483 1.015 4.725e-21)
(0.04857 -0.006329 0)
(-0.2965 0.633 5.745e-22)
(0.8946 -0.1693 -2.074e-20)
(1 2.03e-05 1.028e-24)
(1.006 0.08143 -8.68e-22)
(0.9902 0.002777 5.645e-20)
(0.9595 -0.02715 -3.411e-20)
(-0.005658 -0.01782 1.544e-22)
(0.5932 -0.1911 0)
(0.4172 -0.07279 -2.417e-23)
(1.009 -0.04048 -2.659e-21)
(0.4882 -0.2184 -9.585e-22)
(1.097 -0.1261 7.315e-21)
(1.002 0.001871 -1.57e-20)
(-0.09107 0.04166 2.939e-21)
(0.9284 -0.2152 -8.321e-22)
(1.002 -0.0007984 0)
(0.9874 -0.05528 5.775e-21)
(-0.001386 -0.02905 4.4e-22)
(-0.0813 0.03681 2.816e-20)
(0.6813 -0.1036 2.05e-21)
(1.097 -0.1654 -6.894e-22)
(0.9224 -0.1713 0)
(1 4.195e-05 1.002e-23)
(0.937 0.07703 0)
(1.256 0.0001527 5.858e-22)
(-0.08184 0.03904 -3.153e-21)
(-0.1282 0.05605 -4.279e-21)
(0.7892 -0.2347 0)
(0.9993 -0.0004869 0)
(-0.1287 0.05874 9.79e-22)
(0.8962 -0.08907 -2.843e-20)
(-0.008037 -0.02829 0)
(0.9959 -0.105 0)
(0.8627 -0.1957 2.132e-23)
(0.8781 -0.003491 9.718e-24)
(0.2991 0.08226 -6.073e-21)
(1.009 -0.0005724 -2.341e-21)
(0.9685 -0.03909 1.473e-20)
(0.9482 -0.1678 0)
(0.7936 -0.2113 6.366e-21)
(0.7755 -0.1405 0)
(0.8999 -0.1705 -2.989e-22)
(0.959 -0.07486 -1.964e-20)
(0.9347 -0.1692 0)