# Force coefficients
# liftDir   : (0.0000e+00 1.0000e+00 0.0000e+00)
# dragDir   : (1.0000e+00 0.0000e+00 0.0000e+00)
# pitchAxis : (4.4208e-01 -6.0854e-02 8.9491e-01)
# magUInf   : 1.0000e+00
# lRef      : 1.0000e+00
# Aref      : 1.0000e+00
# CofR      : (0.0000e+00 0.0000e+00 0.0000e+00)
# Time      	Cm          	Cd          	Cl          	Cl(f)       	Cl(r)       
0           	0.0000e+00	0.0000e+00	0.0000e+00	0.0000e+00	0.0000e+00
0.001       	5.5374e+00	1.4165e+01	2.2905e+01	1.6990e+01	5.9151e+00
0.002       	3.5733e+01	3.5804e+01	1.1510e+02	9.3281e+01	2.1815e+01
0.003       	-1.1927e+01	-6.4311e+00	-2.2608e+01	-2.3231e+01	6.2311e-01
0.004       	-4.9373e+01	-4.1946e+01	-1.5346e+02	-1.2610e+02	-2.7359e+01
0.005       	-3.8717e+01	-3.6178e+01	-1.3820e+02	-1.0782e+02	-3.0383e+01
0.006       	5.9844e+00	-1.5938e+00	-1.4932e+01	-1.4818e+00	-1.3451e+01
0.007       	5.7315e+01	4.4124e+01	1.6773e+02	1.4118e+02	2.6550e+01
0.008       	5.3257e+01	4.9779e+01	1.9223e+02	1.4937e+02	4.2856e+01
0.009       	1.4742e+01	2.1118e+01	8.3773e+01	5.6629e+01	2.7144e+01
0.01        	-2.5015e+01	-2.0539e+01	-7.3525e+01	-6.1778e+01	-1.1747e+01
0.011       	-1.1693e+01	-1.2692e+01	-4.3164e+01	-3.3274e+01	-9.8893e+00
0.012       	5.8414e+00	2.8632e+00	1.1018e+01	1.1351e+01	-3.3228e-01
0.013       	1.6185e+01	1.3598e+01	4.6772e+01	3.9571e+01	7.2012e+00
0.014       	8.1884e+00	8.7962e+00	2.8173e+01	2.2275e+01	5.8983e+00
0.015       	-3.1118e+00	-1.1444e+00	-6.2260e+00	-6.2247e+00	-1.2382e-03
0.016       	-1.1035e+01	-8.9057e+00	-3.1396e+01	-2.6733e+01	-4.6633e+00
0.017       	-6.2003e+00	-5.9634e+00	-1.9596e+01	-1.5998e+01	-3.5978e+00
0.018       	3.1106e-01	-2.6943e-01	-2.1453e-01	2.0380e-01	-4.1833e-01
0.019       	7.8332e+00	6.5846e+00	2.2050e+01	1.8858e+01	3.1916e+00
0.02        	5.7747e+00	5.4965e+00	1.7201e+01	1.4375e+01	2.8259e+00
0.021       	1.3750e+00	1.7244e+00	4.4234e+00	3.5867e+00	8.3675e-01
0.022       	-5.5557e+00	-4.3601e+00	-1.5361e+01	-1.3236e+01	-2.1246e+00
0.023       	-5.0665e+00	-4.2574e+00	-1.4276e+01	-1.2205e+01	-2.0717e+00
0.024       	-1.8678e+00	-1.6157e+00	-5.2983e+00	-4.5170e+00	-7.8130e-01
0.025       	4.1794e+00	3.5121e+00	1.1525e+01	9.9420e+00	1.5833e+00
0.026       	4.5112e+00	4.0065e+00	1.2622e+01	1.0822e+01	1.7998e+00
0.027       	1.9582e+00	1.8933e+00	5.4900e+00	4.7032e+00	7.8676e-01
0.028       	-2.9420e+00	-2.2086e+00	-7.9929e+00	-6.9385e+00	-1.0544e+00
0.029       	-3.5715e+00	-2.8282e+00	-9.7132e+00	-8.4281e+00	-1.2851e+00
0.03        	-1.2361e+00	-8.7911e-01	-3.1420e+00	-2.8071e+00	-3.3494e-01
0.031       	1.8771e+00	1.7005e+00	5.3440e+00	4.5491e+00	7.9486e-01
0.032       	2.6816e+00	2.3460e+00	7.2807e+00	6.3220e+00	9.5875e-01
0.033       	9.5046e-01	9.0019e-01	2.3761e+00	2.1385e+00	2.3759e-01
0.034       	-8.2298e-01	-5.3409e-01	-2.2981e+00	-1.9720e+00	-3.2608e-01
0.035       	-1.6039e+00	-1.1202e+00	-4.0975e+00	-3.6527e+00	-4.4488e-01
0.036       	-6.4268e-01	-3.1853e-01	-1.3680e+00	-1.3267e+00	-4.1324e-02
0.037       	1.0697e-01	2.7600e-01	5.5482e-01	3.8437e-01	1.7044e-01
0.038       	1.1588e+00	1.0674e+00	3.0824e+00	2.7000e+00	3.8245e-01
0.039       	9.2227e-01	8.5092e-01	2.3132e+00	2.0789e+00	2.3433e-01
0.04        	3.3429e-01	3.9220e-01	8.2319e-01	7.4589e-01	7.7308e-02
0.041       	-4.6201e-01	-2.0898e-01	-1.1095e+00	-1.0168e+00	-9.2734e-02
0.042       	-7.7432e-01	-4.1987e-01	-1.7641e+00	-1.6564e+00	-1.0773e-01
0.043       	-3.1478e-01	-6.0007e-02	-5.7623e-01	-6.0289e-01	2.6665e-02
0.044       	1.8516e-01	3.0882e-01	6.1784e-01	4.9408e-01	1.2376e-01
0.045       	6.3090e-01	6.2796e-01	1.6349e+00	1.4484e+00	1.8656e-01
0.046       	4.9687e-01	5.1482e-01	1.2503e+00	1.1220e+00	1.2826e-01
0.047       	1.2623e-01	2.4113e-01	3.6223e-01	3.0735e-01	5.4885e-02
0.048       	-3.6733e-02	1.2591e-01	-7.1839e-03	-4.0325e-02	3.3141e-02
0.049       	-3.2855e-01	-7.7326e-02	-6.4188e-01	-6.4949e-01	7.6107e-03
0.05        	-2.0432e-01	1.8689e-02	-3.2307e-01	-3.6586e-01	4.2790e-02
0.051       	-7.7979e-02	1.0861e-01	-3.2866e-02	-9.4412e-02	6.1546e-02
0.052       	1.1035e-01	2.3891e-01	3.7734e-01	2.9902e-01	7.8321e-02
0.053       	2.6991e-01	3.4895e-01	7.1933e-01	6.2958e-01	8.9757e-02
0.054       	3.1186e-01	3.7898e-01	8.1226e-01	7.1799e-01	9.4268e-02
0.055       	2.5746e-01	3.4235e-01	6.9880e-01	6.0686e-01	9.1935e-02
0.056       	1.3417e-01	2.5667e-01	4.3143e-01	3.4989e-01	8.1539e-02
0.057       	-1.3265e-02	1.5242e-01	1.0304e-01	3.8254e-02	6.4783e-02
0.058       	-1.2711e-01	6.9722e-02	-1.6220e-01	-2.0821e-01	4.6011e-02
0.059       	-1.2539e-01	6.8745e-02	-1.7052e-01	-2.1065e-01	4.0129e-02
0.06        	-1.6070e-02	1.4719e-01	7.8948e-02	2.3404e-02	5.5544e-02
0.061       	8.8907e-02	2.2240e-01	3.1979e-01	2.4880e-01	7.0989e-02
0.062       	1.3673e-01	2.5639e-01	4.2917e-01	3.5132e-01	7.7855e-02
0.063       	1.4670e-01	2.6344e-01	4.5224e-01	3.7282e-01	7.9416e-02
0.064       	1.4676e-01	2.6371e-01	4.5381e-01	3.7366e-01	8.0149e-02
0.065       	1.3607e-01	2.5687e-01	4.3311e-01	3.5263e-01	8.0481e-02
0.066       	1.0480e-01	2.3596e-01	3.6744e-01	2.8852e-01	7.8926e-02
0.067       	5.2735e-02	1.9983e-01	2.5209e-01	1.7878e-01	7.3311e-02
0.068       	2.9352e-03	1.6360e-01	1.3518e-01	7.0525e-02	6.4654e-02
0.069       	-2.4718e-02	1.4154e-01	6.2664e-02	6.6137e-03	5.6050e-02
0.07        	-4.8377e-03	1.5418e-01	1.0157e-01	4.5948e-02	5.5624e-02
0.071       	4.3666e-02	1.8989e-01	2.1589e-01	1.5161e-01	6.4278e-02
0.072       	8.3566e-02	2.1982e-01	3.1239e-01	2.3976e-01	7.2627e-02
0.073       	1.0023e-01	2.3226e-01	3.5272e-01	2.7659e-01	7.6126e-02
0.074       	1.0466e-01	2.3558e-01	3.6362e-01	2.8647e-01	7.7151e-02
0.075       	1.0354e-01	2.3504e-01	3.6218e-01	2.8463e-01	7.7547e-02
0.076       	9.4629e-02	2.2907e-01	3.4328e-01	2.6627e-01	7.7010e-02
0.077       	7.6630e-02	2.1645e-01	3.0269e-01	2.2797e-01	7.4715e-02
0.078       	5.3680e-02	1.9969e-01	2.4833e-01	1.7784e-01	7.0485e-02
0.079       	3.5527e-02	1.8586e-01	2.0315e-01	1.3710e-01	6.6049e-02
0.08        	3.1652e-02	1.8273e-01	1.9250e-01	1.2790e-01	6.4599e-02
0.081       	4.0192e-02	1.8926e-01	2.1342e-01	1.4690e-01	6.6518e-02
0.082       	5.2430e-02	1.9856e-01	2.4338e-01	1.7412e-01	6.9259e-02
0.083       	6.5756e-02	2.0859e-01	2.7556e-01	2.0354e-01	7.2024e-02
0.084       	7.9157e-02	2.1863e-01	3.0758e-01	2.3295e-01	7.4631e-02
0.085       	9.0836e-02	2.2747e-01	3.3556e-01	2.5862e-01	7.6945e-02
0.086       	9.6445e-02	2.3196e-01	3.4953e-01	2.7121e-01	7.8320e-02
0.087       	9.2792e-02	2.2955e-01	3.4158e-01	2.6358e-01	7.7997e-02
0.088       	8.2030e-02	2.2166e-01	3.1628e-01	2.4017e-01	7.6109e-02
0.089       	7.0351e-02	2.1294e-01	2.8832e-01	2.1451e-01	7.3807e-02
0.09        	6.2500e-02	2.0709e-01	2.6950e-01	1.9725e-01	7.2249e-02
0.091       	5.8189e-02	2.0395e-01	2.5935e-01	1.8786e-01	7.1486e-02
0.092       	5.5783e-02	2.0231e-01	2.5384e-01	1.8270e-01	7.1136e-02
0.093       	5.5188e-02	2.0214e-01	2.5265e-01	1.8151e-01	7.1139e-02
0.094       	5.8377e-02	2.0505e-01	2.6061e-01	1.8868e-01	7.1926e-02
0.095       	6.6824e-02	2.1203e-01	2.8158e-01	2.0761e-01	7.3965e-02
0.096       	7.5759e-02	2.1911e-01	3.0405e-01	2.2778e-01	7.6264e-02
0.097       	7.9654e-02	2.2200e-01	3.1391e-01	2.3661e-01	7.7301e-02
0.098       	8.0028e-02	2.2218e-01	3.1487e-01	2.3746e-01	7.7408e-02
0.099       	7.9625e-02	2.2179e-01	3.1388e-01	2.3656e-01	7.7313e-02
0.1         	7.8611e-02	2.2092e-01	3.1140e-01	2.3431e-01	7.7091e-02
0.101       	7.6354e-02	2.1912e-01	3.0594e-01	2.2933e-01	7.6617e-02
0.102       	7.1791e-02	2.1568e-01	2.9491e-01	2.1924e-01	7.5662e-02
0.103       	6.4744e-02	2.1069e-01	2.7777e-01	2.0363e-01	7.4140e-02
0.104       	5.8599e-02	2.0676e-01	2.6269e-01	1.8994e-01	7.2744e-02
0.105       	5.8720e-02	2.0747e-01	2.6329e-01	1.9037e-01	7.2925e-02
0.106       	6.2528e-02	2.1061e-01	2.7332e-01	1.9919e-01	7.4133e-02
0.107       	6.4862e-02	2.1242e-01	2.7942e-01	2.0457e-01	7.4847e-02
0.108       	6.6926e-02	2.1398e-01	2.8470e-01	2.0928e-01	7.5424e-02
0.109       	6.9257e-02	2.1568e-01	2.9050e-01	2.1451e-01	7.5995e-02
0.11        	7.2661e-02	2.1817e-01	2.9896e-01	2.2214e-01	7.6819e-02
0.111       	7.7939e-02	2.2216e-01	3.1229e-01	2.3409e-01	7.8207e-02
0.112       	8.4750e-02	2.2772e-01	3.3014e-01	2.4982e-01	8.0319e-02
0.113       	8.9624e-02	2.3235e-01	3.4392e-01	2.6158e-01	8.2337e-02
0.114       	8.7870e-02	2.3174e-01	3.4047e-01	2.5811e-01	8.2365e-02
0.115       	8.2486e-02	2.2775e-01	3.2687e-01	2.4592e-01	8.0951e-02
0.116       	7.8940e-02	2.2499e-01	3.1776e-01	2.3782e-01	7.9938e-02
0.117       	7.6499e-02	2.2307e-01	3.1153e-01	2.3227e-01	7.9267e-02
0.118       	7.4322e-02	2.2138e-01	3.0610e-01	2.2737e-01	7.8727e-02
0.119       	7.1715e-02	2.1936e-01	2.9960e-01	2.2151e-01	7.8084e-02
0.12        	6.8348e-02	2.1680e-01	2.9115e-01	2.1392e-01	7.7225e-02
0.121       	6.4606e-02	2.1413e-01	2.8166e-01	2.0544e-01	7.6224e-02
0.122       	6.2636e-02	2.1319e-01	2.7665e-01	2.0096e-01	7.5688e-02
0.123       	6.5555e-02	2.1614e-01	2.8442e-01	2.0776e-01	7.6654e-02
0.124       	7.0840e-02	2.2062e-01	2.9864e-01	2.2016e-01	7.8481e-02
0.125       	7.4116e-02	2.2326e-01	3.0758e-01	2.2790e-01	7.9672e-02
0.126       	7.5958e-02	2.2471e-01	3.1261e-01	2.3226e-01	8.0348e-02
0.127       	7.7256e-02	2.2567e-01	3.1603e-01	2.3527e-01	8.0758e-02
0.128       	7.8578e-02	2.2661e-01	3.1944e-01	2.3830e-01	8.1142e-02
0.129       	8.0095e-02	2.2770e-01	3.2339e-01	2.4179e-01	8.1601e-02
0.13        	8.1640e-02	2.2897e-01	3.2764e-01	2.4546e-01	8.2180e-02
0.131       	8.2554e-02	2.3020e-01	3.3071e-01	2.4791e-01	8.2804e-02
0.132       	8.1744e-02	2.3047e-01	3.2945e-01	2.4647e-01	8.2979e-02
0.133       	7.9651e-02	2.2933e-01	3.2428e-01	2.4179e-01	8.2488e-02
0.134       	7.8123e-02	2.2825e-01	3.2034e-01	2.3830e-01	8.2049e-02
0.135       	7.7404e-02	2.2770e-01	3.1851e-01	2.3666e-01	8.1848e-02
0.136       	7.6938e-02	2.2734e-01	3.1737e-01	2.3562e-01	8.1746e-02
0.137       	7.6505e-02	2.2699e-01	3.1634e-01	2.3468e-01	8.1667e-02
0.138       	7.6011e-02	2.2661e-01	3.1521e-01	2.3362e-01	8.1597e-02
0.139       	7.5507e-02	2.2630e-01	3.1420e-01	2.3261e-01	8.1592e-02
0.14        	7.5315e-02	2.2656e-01	3.1435e-01	2.3249e-01	8.1858e-02
0.141       	7.6238e-02	2.2811e-01	3.1776e-01	2.3512e-01	8.2641e-02
0.142       	7.8275e-02	2.3042e-01	3.2383e-01	2.4019e-01	8.3642e-02
0.143       	7.9681e-02	2.3169e-01	3.2767e-01	2.4351e-01	8.4153e-02
0.144       	8.0221e-02	2.3211e-01	3.2906e-01	2.4475e-01	8.4310e-02
0.145       	8.0487e-02	2.3228e-01	3.2968e-01	2.4533e-01	8.4352e-02
0.146       	8.0683e-02	2.3238e-01	3.3006e-01	2.4572e-01	8.4348e-02
0.147       	8.0836e-02	2.3240e-01	3.3027e-01	2.4597e-01	8.4300e-02
0.148       	8.0866e-02	2.3234e-01	3.3014e-01	2.4594e-01	8.4206e-02
0.149       	8.0616e-02	2.3226e-01	3.2947e-01	2.4535e-01	8.4121e-02
0.15        	8.0086e-02	2.3249e-01	3.2864e-01	2.4440e-01	8.4232e-02
0.151       	7.9843e-02	2.3314e-01	3.2894e-01	2.4431e-01	8.4626e-02
0.152       	8.0047e-02	2.3381e-01	3.3024e-01	2.4517e-01	8.5073e-02
0.153       	8.0259e-02	2.3410e-01	3.3110e-01	2.4581e-01	8.5293e-02
0.154       	8.0444e-02	2.3430e-01	3.3176e-01	2.4633e-01	8.5439e-02
0.155       	8.0654e-02	2.3449e-01	3.3244e-01	2.4688e-01	8.5567e-02
0.156       	8.0973e-02	2.3475e-01	3.3341e-01	2.4768e-01	8.5733e-02
0.157       	8.1448e-02	2.3513e-01	3.3483e-01	2.4886e-01	8.5967e-02
0.158       	8.2120e-02	2.3579e-01	3.3694e-01	2.5059e-01	8.6348e-02
0.159       	8.2930e-02	2.3686e-01	3.3970e-01	2.5278e-01	8.6920e-02
0.16        	8.3727e-02	2.3825e-01	3.4259e-01	2.5502e-01	8.7568e-02
0.161       	8.4086e-02	2.3897e-01	3.4387e-01	2.5602e-01	8.7849e-02
0.162       	8.4053e-02	2.3910e-01	3.4384e-01	2.5597e-01	8.7866e-02
0.163       	8.3942e-02	2.3905e-01	3.4354e-01	2.5571e-01	8.7827e-02
0.164       	8.3807e-02	2.3897e-01	3.4318e-01	2.5540e-01	8.7784e-02
0.165       	8.3618e-02	2.3884e-01	3.4267e-01	2.5495e-01	8.7719e-02
0.166       	8.3301e-02	2.3863e-01	3.4184e-01	2.5422e-01	8.7618e-02
0.167       	8.2815e-02	2.3836e-01	3.4063e-01	2.5313e-01	8.7500e-02
0.168       	8.2224e-02	2.3829e-01	3.3943e-01	2.5194e-01	8.7492e-02
0.169       	8.2086e-02	2.3883e-01	3.3978e-01	2.5197e-01	8.7802e-02
0.17        	8.2806e-02	2.4001e-01	3.4245e-01	2.5403e-01	8.8419e-02
0.171       	8.3542e-02	2.4078e-01	3.4476e-01	2.5592e-01	8.8837e-02
0.172       	8.3996e-02	2.4121e-01	3.4613e-01	2.5706e-01	8.9068e-02
0.173       	8.4340e-02	2.4151e-01	3.4713e-01	2.5790e-01	8.9224e-02
0.174       	8.4749e-02	2.4186e-01	3.4829e-01	2.5889e-01	8.9394e-02
0.175       	8.5300e-02	2.4232e-01	3.4983e-01	2.6022e-01	8.9615e-02
0.176       	8.6060e-02	2.4302e-01	3.5203e-01	2.6207e-01	8.9953e-02
0.177       	8.6900e-02	2.4397e-01	3.5465e-01	2.6423e-01	9.0426e-02
0.178       	8.7625e-02	2.4520e-01	3.5732e-01	2.6628e-01	9.1033e-02
0.179       	8.7908e-02	2.4602e-01	3.5866e-01	2.6724e-01	9.1421e-02
0.18        	8.7770e-02	2.4621e-01	3.5854e-01	2.6704e-01	9.1502e-02
0.181       	8.7581e-02	2.4613e-01	3.5810e-01	2.6663e-01	9.1469e-02
0.182       	8.7395e-02	2.4603e-01	3.5765e-01	2.6622e-01	9.1430e-02
0.183       	8.7183e-02	2.4590e-01	3.5714e-01	2.6575e-01	9.1385e-02
0.184       	8.6870e-02	2.4570e-01	3.5638e-01	2.6506e-01	9.1321e-02
0.185       	8.6422e-02	2.4544e-01	3.5532e-01	2.6408e-01	9.1239e-02
0.186       	8.5843e-02	2.4525e-01	3.5409e-01	2.6289e-01	9.1205e-02
0.187       	8.5478e-02	2.4547e-01	3.5370e-01	2.6233e-01	9.1372e-02
0.188       	8.5863e-02	2.4645e-01	3.5547e-01	2.6360e-01	9.1870e-02
0.189       	8.6696e-02	2.4743e-01	3.5810e-01	2.6575e-01	9.2356e-02
0.19        	8.7307e-02	2.4804e-01	3.5992e-01	2.6726e-01	9.2651e-02
0.191       	8.7696e-02	2.4840e-01	3.6103e-01	2.6821e-01	9.2819e-02
0.192       	8.8106e-02	2.4877e-01	3.6218e-01	2.6919e-01	9.2983e-02
0.193       	8.8637e-02	2.4923e-01	3.6364e-01	2.7046e-01	9.3184e-02
0.194       	8.9404e-02	2.4994e-01	3.6579e-01	2.7230e-01	9.3493e-02
0.195       	9.0328e-02	2.5088e-01	3.6851e-01	2.7458e-01	9.3928e-02
0.196       	9.1246e-02	2.5212e-01	3.7154e-01	2.7702e-01	9.4526e-02
0.197       	9.1747e-02	2.5311e-01	3.7355e-01	2.7852e-01	9.5029e-02
0.198       	9.1700e-02	2.5348e-01	3.7387e-01	2.7863e-01	9.5234e-02
0.199       	9.1472e-02	2.5341e-01	3.7339e-01	2.7817e-01	9.5223e-02
0.2         	9.1244e-02	2.5329e-01	3.7286e-01	2.7767e-01	9.5184e-02
0.201       	9.0995e-02	2.5315e-01	3.7227e-01	2.7713e-01	9.5142e-02
0.202       	9.0638e-02	2.5294e-01	3.7144e-01	2.7636e-01	9.5082e-02
0.203       	9.0125e-02	2.5265e-01	3.7024e-01	2.7524e-01	9.4996e-02
0.204       	8.9426e-02	2.5234e-01	3.6869e-01	2.7377e-01	9.4919e-02
0.205       	8.8830e-02	2.5231e-01	3.6759e-01	2.7262e-01	9.4966e-02
0.206       	8.8858e-02	2.5296e-01	3.6834e-01	2.7303e-01	9.5310e-02
0.207       	8.9615e-02	2.5395e-01	3.7080e-01	2.7502e-01	9.5786e-02
0.208       	9.0382e-02	2.5473e-01	3.7307e-01	2.7692e-01	9.6153e-02
0.209       	9.0853e-02	2.5516e-01	3.7441e-01	2.7806e-01	9.6352e-02
0.21        	9.1326e-02	2.5558e-01	3.7573e-01	2.7919e-01	9.6538e-02
0.211       	9.1919e-02	2.5610e-01	3.7736e-01	2.8060e-01	9.6761e-02
0.212       	9.2795e-02	2.5689e-01	3.7980e-01	2.8269e-01	9.7104e-02
0.213       	9.3905e-02	2.5796e-01	3.8298e-01	2.8540e-01	9.7587e-02
0.214       	9.5090e-02	2.5934e-01	3.8666e-01	2.8842e-01	9.8239e-02
0.215       	9.5820e-02	2.6048e-01	3.8927e-01	2.9045e-01	9.8813e-02
0.216       	9.5841e-02	2.6096e-01	3.8984e-01	2.9076e-01	9.9078e-02
0.217       	9.5538e-02	2.6087e-01	3.8920e-01	2.9014e-01	9.9062e-02
0.218       	9.5224e-02	2.6069e-01	3.8845e-01	2.8945e-01	9.9002e-02
0.219       	9.4890e-02	2.6049e-01	3.8765e-01	2.8872e-01	9.8936e-02
0.22        	9.4409e-02	2.6020e-01	3.8651e-01	2.8766e-01	9.8844e-02
0.221       	9.3721e-02	2.5979e-01	3.8486e-01	2.8615e-01	9.8709e-02
0.222       	9.2768e-02	2.5930e-01	3.8264e-01	2.8409e-01	9.8552e-02
0.223       	9.1893e-02	2.5901e-01	3.8076e-01	2.8227e-01	9.8485e-02
0.224       	9.1644e-02	2.5940e-01	3.8069e-01	2.8199e-01	9.8700e-02
0.225       	9.2310e-02	2.6032e-01	3.8290e-01	2.8376e-01	9.9141e-02
0.226       	9.3205e-02	2.6122e-01	3.8554e-01	2.8598e-01	9.9567e-02
0.227       	9.3794e-02	2.6176e-01	3.8722e-01	2.8740e-01	9.9813e-02
0.228       	9.4405e-02	2.6230e-01	3.8891e-01	2.8886e-01	1.0005e-01
0.229       	9.5169e-02	2.6296e-01	3.9102e-01	2.9068e-01	1.0034e-01
0.23        	9.6309e-02	2.6397e-01	3.9419e-01	2.9340e-01	1.0079e-01
0.231       	9.7763e-02	2.6533e-01	3.9833e-01	2.9693e-01	1.0140e-01
0.232       	9.9321e-02	2.6699e-01	4.0301e-01	3.0083e-01	1.0218e-01
0.233       	1.0026e-01	2.6825e-01	4.0613e-01	3.0332e-01	1.0281e-01
0.234       	1.0025e-01	2.6868e-01	4.0659e-01	3.0354e-01	1.0305e-01
0.235       	9.9814e-02	2.6849e-01	4.0559e-01	3.0261e-01	1.0298e-01
0.236       	9.9354e-02	2.6821e-01	4.0446e-01	3.0158e-01	1.0287e-01
0.237       	9.8849e-02	2.6789e-01	4.0320e-01	3.0045e-01	1.0275e-01
0.238       	9.8111e-02	2.6741e-01	4.0139e-01	2.9880e-01	1.0258e-01
0.239       	9.7064e-02	2.6675e-01	3.9881e-01	2.9647e-01	1.0234e-01
0.24        	9.5656e-02	2.6593e-01	3.9540e-01	2.9335e-01	1.0204e-01
0.241       	9.4425e-02	2.6538e-01	3.9255e-01	2.9070e-01	1.0185e-01
0.242       	9.4026e-02	2.6560e-01	3.9202e-01	2.9004e-01	1.0199e-01
0.243       	9.4725e-02	2.6649e-01	3.9428e-01	2.9187e-01	1.0242e-01
0.244       	9.5761e-02	2.6750e-01	3.9731e-01	2.9441e-01	1.0289e-01
0.245       	9.6544e-02	2.6820e-01	3.9951e-01	2.9630e-01	1.0321e-01
0.246       	9.7438e-02	2.6897e-01	4.0200e-01	2.9844e-01	1.0356e-01
0.247       	9.8581e-02	2.6995e-01	4.0515e-01	3.0115e-01	1.0399e-01
0.248       	1.0026e-01	2.7143e-01	4.0982e-01	3.0517e-01	1.0465e-01
0.249       	1.0227e-01	2.7326e-01	4.1552e-01	3.1003e-01	1.0549e-01
0.25        	1.0421e-01	2.7525e-01	4.2126e-01	3.1484e-01	1.0642e-01
0.251       	1.0508e-01	2.7639e-01	4.2413e-01	3.1714e-01	1.0698e-01
0.252       	1.0476e-01	2.7649e-01	4.2363e-01	3.1658e-01	1.0705e-01
0.253       	1.0412e-01	2.7611e-01	4.2203e-01	3.1513e-01	1.0689e-01
0.254       	1.0340e-01	2.7564e-01	4.2021e-01	3.1351e-01	1.0670e-01
0.255       	1.0256e-01	2.7508e-01	4.1808e-01	3.1160e-01	1.0648e-01
0.256       	1.0131e-01	2.7424e-01	4.1493e-01	3.0878e-01	1.0616e-01
0.257       	9.9645e-02	2.7314e-01	4.1076e-01	3.0503e-01	1.0574e-01
0.258       	9.7675e-02	2.7195e-01	4.0591e-01	3.0063e-01	1.0528e-01
0.259       	9.6331e-02	2.7132e-01	4.0275e-01	2.9771e-01	1.0504e-01
0.26        	9.6235e-02	2.7171e-01	4.0297e-01	2.9772e-01	1.0525e-01
0.261       	9.7191e-02	2.7272e-01	4.0584e-01	3.0011e-01	1.0573e-01
0.262       	9.8442e-02	2.7386e-01	4.0942e-01	3.0315e-01	1.0627e-01
0.263       	9.9582e-02	2.7485e-01	4.1260e-01	3.0588e-01	1.0672e-01
0.264       	1.0104e-01	2.7610e-01	4.1663e-01	3.0935e-01	1.0728e-01
0.265       	1.0289e-01	2.7767e-01	4.2173e-01	3.1375e-01	1.0798e-01
0.266       	1.0536e-01	2.7983e-01	4.2862e-01	3.1967e-01	1.0895e-01
0.267       	1.0776e-01	2.8203e-01	4.3544e-01	3.2548e-01	1.0996e-01
0.268       	1.0940e-01	2.8377e-01	4.4036e-01	3.2958e-01	1.1077e-01
0.269       	1.0952e-01	2.8420e-01	4.4101e-01	3.3003e-01	1.1098e-01
0.27        	1.0864e-01	2.8373e-01	4.3884e-01	3.2806e-01	1.1078e-01
0.271       	1.0769e-01	2.8310e-01	4.3639e-01	3.2588e-01	1.1051e-01
0.272       	1.0651e-01	2.8230e-01	4.3337e-01	3.2319e-01	1.1018e-01
0.273       	1.0505e-01	2.8131e-01	4.2968e-01	3.1989e-01	1.0979e-01
0.274       	1.0305e-01	2.7997e-01	4.2463e-01	3.1536e-01	1.0927e-01
0.275       	1.0091e-01	2.7860e-01	4.1930e-01	3.1056e-01	1.0874e-01
0.276       	9.9124e-02	2.7762e-01	4.1501e-01	3.0663e-01	1.0838e-01
0.277       	9.8637e-02	2.7760e-01	4.1411e-01	3.0569e-01	1.0842e-01
0.278       	9.9455e-02	2.7858e-01	4.1668e-01	3.0780e-01	1.0889e-01
0.279       	1.0077e-01	2.7980e-01	4.2045e-01	3.1100e-01	1.0945e-01
0.28        	1.0240e-01	2.8122e-01	4.2501e-01	3.1491e-01	1.1011e-01
0.281       	1.0412e-01	2.8268e-01	4.2976e-01	3.1900e-01	1.1076e-01
0.282       	1.0634e-01	2.8458e-01	4.3590e-01	3.2429e-01	1.1161e-01
0.283       	1.0878e-01	2.8667e-01	4.4264e-01	3.3010e-01	1.1254e-01
0.284       	1.1124e-01	2.8890e-01	4.4957e-01	3.3603e-01	1.1354e-01
0.285       	1.1269e-01	2.9035e-01	4.5378e-01	3.3958e-01	1.1420e-01
0.286       	1.1285e-01	2.9082e-01	4.5452e-01	3.4012e-01	1.1441e-01
0.287       	1.1206e-01	2.9041e-01	4.5257e-01	3.3834e-01	1.1423e-01
0.288       	1.1079e-01	2.8960e-01	4.4934e-01	3.3546e-01	1.1388e-01
0.289       	1.0946e-01	2.8871e-01	4.4596e-01	3.3244e-01	1.1352e-01
0.29        	1.0776e-01	2.8758e-01	4.4168e-01	3.2859e-01	1.1308e-01
0.291       	1.0590e-01	2.8637e-01	4.3706e-01	3.2443e-01	1.1263e-01
0.292       	1.0394e-01	2.8518e-01	4.3229e-01	3.2009e-01	1.1220e-01
0.293       	1.0267e-01	2.8452e-01	4.2933e-01	3.1734e-01	1.1200e-01
0.294       	1.0237e-01	2.8465e-01	4.2897e-01	3.1686e-01	1.1211e-01
0.295       	1.0308e-01	2.8547e-01	4.3118e-01	3.1867e-01	1.1251e-01
0.296       	1.0454e-01	2.8684e-01	4.3537e-01	3.2223e-01	1.1314e-01
0.297       	1.0614e-01	2.8825e-01	4.3983e-01	3.2605e-01	1.1378e-01
0.298       	1.0810e-01	2.8995e-01	4.4527e-01	3.3073e-01	1.1454e-01
0.299       	1.1011e-01	2.9168e-01	4.5083e-01	3.3553e-01	1.1530e-01
0.3         	1.1231e-01	2.9362e-01	4.5695e-01	3.4079e-01	1.1616e-01
0.301       	1.1401e-01	2.9519e-01	4.6173e-01	3.4488e-01	1.1685e-01
0.302       	1.1498e-01	2.9625e-01	4.6461e-01	3.4729e-01	1.1732e-01
0.303       	1.1492e-01	2.9645e-01	4.6466e-01	3.4725e-01	1.1741e-01
0.304       	1.1407e-01	2.9604e-01	4.6262e-01	3.4538e-01	1.1724e-01
0.305       	1.1298e-01	2.9538e-01	4.5991e-01	3.4294e-01	1.1697e-01
0.306       	1.1162e-01	2.9453e-01	4.5652e-01	3.3988e-01	1.1664e-01
0.307       	1.1023e-01	2.9366e-01	4.5312e-01	3.3679e-01	1.1633e-01
0.308       	1.0872e-01	2.9276e-01	4.4947e-01	3.3345e-01	1.1602e-01
0.309       	1.0753e-01	2.9213e-01	4.4672e-01	3.3089e-01	1.1583e-01
0.31        	1.0682e-01	2.9192e-01	4.4530e-01	3.2947e-01	1.1583e-01
0.311       	1.0690e-01	2.9226e-01	4.4586e-01	3.2983e-01	1.1603e-01
0.312       	1.0770e-01	2.9317e-01	4.4834e-01	3.3187e-01	1.1647e-01
0.313       	1.0885e-01	2.9427e-01	4.5166e-01	3.3468e-01	1.1698e-01
0.314       	1.1039e-01	2.9567e-01	4.5598e-01	3.3837e-01	1.1760e-01
0.315       	1.1192e-01	2.9703e-01	4.6026e-01	3.4205e-01	1.1821e-01
0.316       	1.1364e-01	2.9858e-01	4.6507e-01	3.4618e-01	1.1890e-01
0.317       	1.1511e-01	2.9994e-01	4.6920e-01	3.4971e-01	1.1949e-01
0.318       	1.1628e-01	3.0112e-01	4.7260e-01	3.5258e-01	1.2002e-01
0.319       	1.1675e-01	3.0173e-01	4.7410e-01	3.5380e-01	1.2029e-01
0.32        	1.1658e-01	3.0187e-01	4.7388e-01	3.5352e-01	1.2036e-01
0.321       	1.1597e-01	3.0161e-01	4.7249e-01	3.5222e-01	1.2027e-01
0.322       	1.1505e-01	3.0111e-01	4.7026e-01	3.5018e-01	1.2009e-01
0.323       	1.1409e-01	3.0057e-01	4.6796e-01	3.4807e-01	1.1989e-01
0.324       	1.1300e-01	2.9998e-01	4.6540e-01	3.4570e-01	1.1970e-01
0.325       	1.1207e-01	2.9951e-01	4.6328e-01	3.4371e-01	1.1957e-01
0.326       	1.1134e-01	2.9926e-01	4.6175e-01	3.4221e-01	1.1954e-01
0.327       	1.1109e-01	2.9935e-01	4.6147e-01	3.4183e-01	1.1965e-01
0.328       	1.1136e-01	2.9986e-01	4.6256e-01	3.4264e-01	1.1992e-01
0.329       	1.1201e-01	3.0060e-01	4.6458e-01	3.4430e-01	1.2028e-01
0.33        	1.1303e-01	3.0162e-01	4.6757e-01	3.4681e-01	1.2076e-01
0.331       	1.1411e-01	3.0265e-01	4.7067e-01	3.4945e-01	1.2122e-01
0.332       	1.1540e-01	3.0386e-01	4.7434e-01	3.5257e-01	1.2177e-01
0.333       	1.1659e-01	3.0499e-01	4.7773e-01	3.5545e-01	1.2228e-01
0.334       	1.1773e-01	3.0614e-01	4.8104e-01	3.5825e-01	1.2279e-01
0.335       	1.1845e-01	3.0694e-01	4.8322e-01	3.6006e-01	1.2316e-01
0.336       	1.1876e-01	3.0745e-01	4.8432e-01	3.6092e-01	1.2340e-01
0.337       	1.1862e-01	3.0757e-01	4.8418e-01	3.6071e-01	1.2347e-01
0.338       	1.1815e-01	3.0743e-01	4.8317e-01	3.5974e-01	1.2344e-01
0.339       	1.1757e-01	3.0717e-01	4.8183e-01	3.5848e-01	1.2335e-01
0.34        	1.1683e-01	3.0683e-01	4.8014e-01	3.5690e-01	1.2325e-01
0.341       	1.1613e-01	3.0652e-01	4.7858e-01	3.5541e-01	1.2316e-01
0.342       	1.1546e-01	3.0630e-01	4.7718e-01	3.5405e-01	1.2313e-01
0.343       	1.1508e-01	3.0628e-01	4.7653e-01	3.5334e-01	1.2319e-01
0.344       	1.1502e-01	3.0655e-01	4.7677e-01	3.5340e-01	1.2337e-01
0.345       	1.1531e-01	3.0701e-01	4.7784e-01	3.5423e-01	1.2361e-01
0.346       	1.1590e-01	3.0772e-01	4.7973e-01	3.5576e-01	1.2396e-01
0.347       	1.1661e-01	3.0847e-01	4.8186e-01	3.5754e-01	1.2431e-01
0.348       	1.1754e-01	3.0941e-01	4.8457e-01	3.5982e-01	1.2475e-01
0.349       	1.1848e-01	3.1034e-01	4.8732e-01	3.6213e-01	1.2518e-01
0.35        	1.1951e-01	3.1141e-01	4.9037e-01	3.6470e-01	1.2568e-01
0.351       	1.2034e-01	3.1230e-01	4.9286e-01	3.6676e-01	1.2609e-01
0.352       	1.2093e-01	3.1304e-01	4.9475e-01	3.6831e-01	1.2645e-01
0.353       	1.2112e-01	3.1342e-01	4.9551e-01	3.6888e-01	1.2663e-01
0.354       	1.2101e-01	3.1356e-01	4.9546e-01	3.6874e-01	1.2671e-01
0.355       	1.2073e-01	3.1352e-01	4.9488e-01	3.6817e-01	1.2671e-01
0.356       	1.2027e-01	3.1338e-01	4.9389e-01	3.6721e-01	1.2668e-01
0.357       	1.1976e-01	3.1320e-01	4.9278e-01	3.6615e-01	1.2663e-01
0.358       	1.1918e-01	3.1303e-01	4.9157e-01	3.6497e-01	1.2661e-01
0.359       	1.1874e-01	3.1297e-01	4.9076e-01	3.6412e-01	1.2664e-01
0.36        	1.1850e-01	3.1310e-01	4.9051e-01	3.6375e-01	1.2676e-01
0.361       	1.1856e-01	3.1340e-01	4.9098e-01	3.6404e-01	1.2693e-01
0.362       	1.1887e-01	3.1389e-01	4.9212e-01	3.6493e-01	1.2719e-01
0.363       	1.1931e-01	3.1443e-01	4.9354e-01	3.6608e-01	1.2746e-01
0.364       	1.1995e-01	3.1513e-01	4.9548e-01	3.6769e-01	1.2780e-01
0.365       	1.2067e-01	3.1590e-01	4.9768e-01	3.6951e-01	1.2816e-01
0.366       	1.2159e-01	3.1687e-01	5.0044e-01	3.7181e-01	1.2863e-01
0.367       	1.2245e-01	3.1781e-01	5.0306e-01	3.7398e-01	1.2908e-01
0.368       	1.2322e-01	3.1872e-01	5.0548e-01	3.7596e-01	1.2952e-01
0.369       	1.2363e-01	3.1928e-01	5.0686e-01	3.7706e-01	1.2980e-01
0.37        	1.2376e-01	3.1961e-01	5.0745e-01	3.7749e-01	1.2996e-01
0.371       	1.2367e-01	3.1971e-01	5.0738e-01	3.7736e-01	1.3002e-01
0.372       	1.2342e-01	3.1969e-01	5.0689e-01	3.7686e-01	1.3002e-01
0.373       	1.2306e-01	3.1961e-01	5.0614e-01	3.7613e-01	1.3001e-01
0.374       	1.2257e-01	3.1949e-01	5.0512e-01	3.7513e-01	1.2999e-01
0.375       	1.2211e-01	3.1941e-01	5.0422e-01	3.7422e-01	1.3000e-01
0.376       	1.2174e-01	3.1947e-01	5.0365e-01	3.7357e-01	1.3008e-01
0.377       	1.2165e-01	3.1967e-01	5.0374e-01	3.7352e-01	1.3022e-01
0.378       	1.2180e-01	3.2004e-01	5.0443e-01	3.7401e-01	1.3042e-01
0.379       	1.2207e-01	3.2043e-01	5.0539e-01	3.7477e-01	1.3062e-01
0.38        	1.2251e-01	3.2096e-01	5.0678e-01	3.7590e-01	1.3088e-01
0.381       	1.2307e-01	3.2157e-01	5.0850e-01	3.7732e-01	1.3119e-01
0.382       	1.2386e-01	3.2245e-01	5.1095e-01	3.7933e-01	1.3162e-01
0.383       	1.2473e-01	3.2341e-01	5.1365e-01	3.8155e-01	1.3209e-01
0.384       	1.2564e-01	3.2447e-01	5.1652e-01	3.8389e-01	1.3262e-01
0.385       	1.2623e-01	3.2520e-01	5.1844e-01	3.8545e-01	1.3299e-01
0.386       	1.2653e-01	3.2568e-01	5.1950e-01	3.8628e-01	1.3323e-01
0.387       	1.2655e-01	3.2585e-01	5.1972e-01	3.8641e-01	1.3331e-01
0.388       	1.2642e-01	3.2590e-01	5.1951e-01	3.8617e-01	1.3334e-01
0.389       	1.2617e-01	3.2586e-01	5.1899e-01	3.8566e-01	1.3333e-01
0.39        	1.2575e-01	3.2576e-01	5.1810e-01	3.8480e-01	1.3330e-01
0.391       	1.2526e-01	3.2566e-01	5.1709e-01	3.8380e-01	1.3329e-01
0.392       	1.2477e-01	3.2564e-01	5.1619e-01	3.8287e-01	1.3332e-01
0.393       	1.2454e-01	3.2578e-01	5.1593e-01	3.8251e-01	1.3342e-01
0.394       	1.2457e-01	3.2607e-01	5.1634e-01	3.8274e-01	1.3360e-01
0.395       	1.2476e-01	3.2639e-01	5.1705e-01	3.8328e-01	1.3376e-01
0.396       	1.2507e-01	3.2679e-01	5.1808e-01	3.8411e-01	1.3397e-01
0.397       	1.2550e-01	3.2728e-01	5.1944e-01	3.8522e-01	1.3422e-01
0.398       	1.2619e-01	3.2804e-01	5.2159e-01	3.8698e-01	1.3460e-01
0.399       	1.2706e-01	3.2900e-01	5.2431e-01	3.8922e-01	1.3509e-01
0.4         	1.2811e-01	3.3020e-01	5.2764e-01	3.9193e-01	1.3571e-01
0.401       	1.2892e-01	3.3117e-01	5.3024e-01	3.9404e-01	1.3620e-01
0.402       	1.2941e-01	3.3184e-01	5.3189e-01	3.9535e-01	1.3654e-01
0.403       	1.2951e-01	3.3207e-01	5.3233e-01	3.9567e-01	1.3665e-01
0.404       	1.2944e-01	3.3215e-01	5.3224e-01	3.9556e-01	1.3668e-01
0.405       	1.2925e-01	3.3212e-01	5.3182e-01	3.9516e-01	1.3666e-01
0.406       	1.2887e-01	3.3200e-01	5.3097e-01	3.9435e-01	1.3661e-01
0.407       	1.2834e-01	3.3183e-01	5.2977e-01	3.9323e-01	1.3655e-01
0.408       	1.2768e-01	3.3167e-01	5.2837e-01	3.9187e-01	1.3650e-01
0.409       	1.2723e-01	3.3167e-01	5.2753e-01	3.9100e-01	1.3653e-01
0.41        	1.2709e-01	3.3189e-01	5.2752e-01	3.9085e-01	1.3667e-01
0.411       	1.2722e-01	3.3217e-01	5.2808e-01	3.9126e-01	1.3682e-01
0.412       	1.2747e-01	3.3251e-01	5.2896e-01	3.9195e-01	1.3700e-01
0.413       	1.2783e-01	3.3292e-01	5.3008e-01	3.9287e-01	1.3721e-01
0.414       	1.2843e-01	3.3358e-01	5.3197e-01	3.9442e-01	1.3755e-01
0.415       	1.2930e-01	3.3450e-01	5.3467e-01	3.9663e-01	1.3804e-01
0.416       	1.3050e-01	3.3581e-01	5.3845e-01	3.9972e-01	1.3873e-01
0.417       	1.3161e-01	3.3706e-01	5.4198e-01	4.0260e-01	1.3938e-01
0.418       	1.3241e-01	3.3805e-01	5.4461e-01	4.0472e-01	1.3989e-01
0.419       	1.3266e-01	3.3844e-01	5.4547e-01	4.0539e-01	1.4008e-01
0.42        	1.3263e-01	3.3854e-01	5.4549e-01	4.0537e-01	1.4012e-01
0.421       	1.3246e-01	3.3851e-01	5.4510e-01	4.0501e-01	1.4009e-01
0.422       	1.3210e-01	3.3836e-01	5.4422e-01	4.0421e-01	1.4001e-01
0.423       	1.3152e-01	3.3809e-01	5.4281e-01	4.0293e-01	1.3988e-01
0.424       	1.3067e-01	3.3773e-01	5.4075e-01	4.0105e-01	1.3970e-01
0.425       	1.2988e-01	3.3745e-01	5.3892e-01	3.9934e-01	1.3959e-01
0.426       	1.2938e-01	3.3744e-01	5.3796e-01	3.9836e-01	1.3960e-01
0.427       	1.2937e-01	3.3766e-01	5.3820e-01	3.9847e-01	1.3973e-01
0.428       	1.2960e-01	3.3801e-01	5.3903e-01	3.9911e-01	1.3992e-01
0.429       	1.2992e-01	3.3839e-01	5.4008e-01	3.9996e-01	1.4012e-01
0.43        	1.3048e-01	3.3899e-01	5.4183e-01	4.0139e-01	1.4044e-01
0.431       	1.3133e-01	3.3986e-01	5.4448e-01	4.0357e-01	1.4091e-01
0.432       	1.3266e-01	3.4123e-01	5.4861e-01	4.0697e-01	1.4165e-01