/*--------------------------------*- C++ -*----------------------------------*\
  =========                 |
  \\      /  F ield         | OpenFOAM: The Open Source CFD Toolbox
   \\    /   O peration     | Website:  https://openfoam.org
    \\  /    A nd           | Version:  8
     \\/     M anipulation  |
\*---------------------------------------------------------------------------*/
FoamFile
{
    version     2.0;
    format      ascii;
    class       volScalarField;
    location    "50";
    object      epsilon;
}
// * * * * * * * * * * * * * * * * * * * * * * * * * * * * * * * * * * * * * //

dimensions      [0 2 -3 0 0 0 0];

internalField   nonuniform List<scalar> 
63564
(
38.09
7.684
12.36
8.127
8.085
40.82
31.47
7.228
10.52
10.1
0.07713
0.1103
10.75
0.3781
3.082
3.14
11.12
12.61
0.8872
2.224
0.281
0.3638
2.098
0.11
15.54
0.0778
2.163
0.193
0.5882
10.03
0.8285
0.229
0.2273
0.1501
0.3358
2.634
0.06472
0.3602
0.3541
0.7405
10.41
0.1298
11.53
0.2692
9.569
1.335
1.706
0.1592
0.247
17.22
0.145
0.3769
0.7466
1.122
0.2492
0.06316
0.2412
0.2532
17.22
0.5123
1.487
1.129
0.1887
1.3
0.3688
0.645
0.2656
3.277
0.3622
0.0362
0.3551
0.03805
0.6069
0.371
0.8205
0.6594
0.3582
0.1573
0.1909
1.339
0.7192
0.3676
2.413
0.3195
0.6834
0.3695
0.2723
1.292
0.2837
0.2707
0.1483
0.864
1.131
0.03515
4.048
0.2237
22.07
0.2699
4.982
0.4152
0.07631
0.18
0.4577
17.03
1.048
0.4794
0.8184
1.434
0.7299
0.3605
0.5261
0.209
0.3993
0.126
3.931
0.3963
0.3675
35.64
0.7718
1.107
2.471
0.2178
0.6155
1.475
11.03
5.844
1.733
0.3991
0.2446
0.1423
0.8884
2.421
0.5258
0.5483
0.1729
0.776
0.2826
0.8521
0.5069
3.556
0.446
0.3499
0.8792
0.8222
0.2178
0.5324
1.542
0.1556
0.9265
0.413
0.1275
0.7994
0.5331
1.623
0.7549
0.1676
0.1675
0.4852
0.03681
0.7619
0.8405
0.9187
0.6464
1.567
0.1111
0.2745
0.849
0.8143
0.4
0.7792
0.1572
0.3199
0.08302
0.5747
0.5829
1.623
0.5929
0.0761
3.999
0.2247
0.1229
5.079
1.968
0.2298
0.2232
0.5915
0.9034
0.8145
1.916
0.4155
0.2763
0.2313
0.1845
0.7346
0.3308
0.4591
0.3104
2.124
0.5283
0.2118
2.326
0.5121
0.2886
0.08557
1.144
0.9106
0.5518
0.03694
1.07
0.1799
0.3222
1.867
0.2547
2.269
0.2408
0.4112
1.065
0.2345
1.082
0.5394
0.8553
0.2317
0.1595
0.4052
0.1554
0.5924
0.6885
1.307
1.119
0.6267
1.156
0.8946
2.745
0.3906
0.2434
0.2204
7.37
1.365
6.472
0.8009
2.175
0.1519
0.3251
0.3275
0.2313
3.802
0.1994
3.85
0.6386
0.2309
1.233
0.6055
0.5397
0.8152
0.1881
0.4565
0.4272
0.8069
0.5595
0.8977
0.7827
0.2266
0.7591
0.299
0.4964
1.766
0.3899
0.2052
0.9408
0.2301
0.8651
2.14
0.6381
0.2644
10.84
0.5565
0.225
0.2665
0.1992
0.5063
0.2449
1.04
0.4593
0.5883
1.097
1.238
0.8778
0.5777
0.5523
0.2899
0.933
0.5968
0.4374
0.5015
11.62
1.143
0.1383
0.3165
0.8324
0.581
3.007
2.07
0.789
0.3149
0.5255
0.625
1.836
0.3705
1.707
2.278
0.7381
0.7801
20.59
0.6925
0.2377
0.2555
0.4412
1.05
1.273
1.172
0.4437
0.4094
1.811
1.068
0.1567
0.4685
1.263
2.05
1.493
0.1397
0.07405
0.08231
1.044
3.232
0.8727
0.2202
1.823
0.09526
0.2834
0.8295
0.3327
0.1224
0.1865
43.24
0.3377
0.1107
0.2274
1.884
0.5035
1.324
0.2891
1.068
1.317
0.2069
0.6134
0.9199
0.4177
0.7616
1.024
0.3866
0.484
0.2076
0.1424
2.025
0.2307
0.1503
0.7492
0.3158
0.7251
0.6738
5.268
0.6707
0.59
0.5598
0.209
16.52
0.3948
0.8581
0.816
0.2235
0.4254
0.3927
0.6791
0.1045
0.4478
0.3102
0.2809
0.3126
0.1499
0.1384
0.4207
0.2223
9.467
0.274
0.2973
0.864
1.336
11.51
0.06758
0.2111
1.254
0.7024
2.656
0.9261
1.182
0.5303
0.2303
0.2686
0.4471
0.0515
0.6455
14.14
2.869
4.729
51.58
0.591
0.7572
0.1039
4.7
0.6082
1.026
0.1203
0.1033
0.2845
1.222
5.855
0.3102
0.3234
0.4977
0.8894
0.962
0.3805
0.1491
0.1052
13.13
7.178
0.2447
1.14
2.043
0.6624
3.938
0.1593
4.354
0.1997
1.434
12.7
0.3462
1.152
0.84
0.1045
0.04125
5.884
0.1983
1.681
0.4537
0.5651
0.2622
0.7081
0.3812
0.5283
0.1625
0.5922
2.146
1.689
0.7525
0.9933
0.8191
0.1613
0.4178
1.754
2.804
0.2647
0.1964
0.2228
0.3182
0.4903
0.5258
0.5689
0.1336
1.587
0.294
0.2433
1.671
0.2637
0.135
0.3165
2.728
1.179
0.1409
0.8822
4.912
0.9415
0.4177
3.809
0.5292
0.5957
0.6708
0.1817
0.4815
0.8803
0.2579
0.3332
1.273
11.83
0.09755
0.7443
0.4602
0.4324
0.558
2.907
0.6445
3.804
0.8992
3.677
0.1043
1.176
0.3578
0.2504
0.8951
1.693
0.2099
0.3947
0.5408
0.2451
1.209
0.8627
2.239
0.4193
0.3237
1.255
0.7385
0.541
0.3091
0.6981
0.6541
2.251
0.1985
4.48
0.3031
0.95
0.697
3.952
3.297
0.972
1.033
0.2011
0.09477
1.675
9.31
0.2483
0.6528
0.8412
1.277
0.3439
0.7203
0.1586
4.739
0.4677
4.593
0.2073
6.575
0.6617
12.41
0.6105
1.27
0.3052
11.01
0.1036
1.869
0.1861
4.591
1.345
1.193
0.07402
0.5592
0.4337
0.3884
0.1436
1.406
0.1792
0.1603
0.4232
4.829
10.27
1.452
0.3373
0.3032
0.1661
0.9409
0.4232
1.029
1.68
0.6713
0.4904
1.202
0.122
0.5716
0.5975
0.3211
16.6
0.8424
0.3078
25.02
0.2545
0.4688
0.2072
0.1219
0.07477
0.3447
0.1726
2.411
0.3281
0.478
0.8737
0.2033
0.4261
0.1707
0.3578
0.3158
0.5205
0.1167
0.4516
0.1494
0.1843
0.123
0.6174
0.2972
12.42
0.5636
0.6994
0.5453
0.3225
1.071
2.448
2.983
0.3565
2.125
0.1219
1.198
0.143
0.3396
0.4477
0.1393
0.1398
4.497
0.3721
0.7556
6.188
0.4783
0.5113
67.78
0.4261
0.4448
0.656
0.4405
0.1714
0.2925
0.2006
0.1522
2.819
0.3245
0.5935
0.1005
1
0.3908
7.608
1.52
1.306
0.3604
0.0917
2.24
0.2115
0.7695
1.997
0.9
0.9425
0.1157
58.59
0.423
0.341
0.06707
0.1213
0.1635
1.651
0.3393
2.534
0.9275
0.2112
0.3536
0.368
0.7519
0.2821
3.021
0.07093
0.2071
0.3959
0.9559
0.07405
0.8443
11.6
0.07992
5.083
0.3115
1.802
3.111
0.1984
0.3436
0.54
1.324
0.3078
1.163
1.833
1.252
51.37
0.4513
0.1812
1.988
0.9708
0.1268
0.2625
4.565
0.8319
0.6739
0.2449
1.125
0.6483
0.2469
1.677
1.088
1.94
0.6935
0.8302
0.2767
0.2063
1.083
1.093
0.1061
0.9055
4.136
0.4135
0.9214
0.8817
0.2964
0.6002
0.6908
0.5356
0.1489
0.7616
2.946
0.1416
1.621
1.161
2.871
0.4122
0.1341
0.1257
0.3154
0.113
0.681
0.2699
0.2659
0.7483
1.455
0.04472
0.1962
0.3141
0.8463
0.1048
0.7607
0.3428
0.2885
0.6137
0.2128
0.2576
5.954
0.2952
0.9784
0.1881
0.2439
0.919
7.501
4.497
0.4846
3.373
0.1624
3.634
0.1514
4.545
0.3235
2.094
0.1978
2.306
1.003
1.781
15.95
0.4606
0.3357
0.8475
0.1774
0.2091
1.231
0.442
0.4477
3.277
0.2738
0.3261
0.4026
0.04736
0.447
0.1164
0.4986
1.664
0.2481
0.8043
1.359
0.4383
12.42
0.2026
0.1582
1.244
0.1647
0.1514
1.316
0.2062
0.1343
0.03631
0.1015
0.1853
13.67
0.2895
0.3234
1.287
0.387
0.4375
3.354
1.969
8.642
0.1649
0.913
0.1033
0.3082
19.91
0.2042
0.03706
2.525
0.3142
0.2123
0.1683
5.54
0.1375
0.3342
0.1603
0.8157
0.4838
1.03
2.806
0.1212
0.078
2.622
0.4415
1.234
0.8517
0.1664
0.2879
0.2539
1.43
0.3436
0.6282
0.3697
0.1025
0.2727
0.09622
4.186
0.3422
0.2379
0.2809
0.1454
0.4444
0.07881
4.193
0.8116
0.1832
0.1981
0.5561
0.7824
0.1389
2.793
0.6511
0.2643
0.8944
0.1208
1.766
0.5049
5.893
0.1529
0.7667
0.1721
0.1618
50.8
0.2291
0.7849
0.6862
0.852
0.2695
0.1823
0.2409
0.06042
0.5387
0.5545
0.9285
0.4171
1.198
0.5834
2.7
1.647
0.5668
0.3705
3.375
1.141
0.3601
0.2101
0.5449
0.8372
0.5944
0.2661
0.1763
0.4798
0.3673
0.3337
0.5564
0.6379
1.441
0.1695
0.1348
0.5534
1.476
1.451
0.5512
1.19
7.994
0.2147
0.261
16.04
0.4204
0.2843
0.1066
0.4642
0.7055
0.1456
0.08379
5.163
0.5368
0.1767
0.1247
7.736
0.7537
0.6162
0.2552
0.5513
1.223
0.125
1.016
0.6948
3.898
0.2381
1.374
0.1035
0.0713
3.816
0.149
0.7131
0.194
0.4611
4.449
0.3858
0.4316
0.167
4.241
0.3856
0.3886
9.278
0.229
2.159
3.475
1.079
0.2597
1.042
1.014
0.2793
0.4023
0.1076
0.2491
0.5021
1.081
0.8674
4.637
0.2108
1.243
0.34
0.1682
0.4526
0.4837
0.5869
0.3746
0.4437
2.446
1.449
2.161
1.195
0.1776
1.703
0.2754
0.719
1.873
0.1626
0.03743
0.8374
0.2371
0.9453
40.38
0.2686
0.562
3.892
0.4217
3.918
0.7074
0.8575
0.4001
0.5467
1.58
0.6439
1.061
0.1208
0.2381
0.2223
0.4232
0.43
3.85
0.5714
0.2556
0.8549
2.572
0.9413
0.3983
0.6271
0.4583
2.27
0.3971
0.2813
2.303
1.11
0.3282
0.3133
0.3291
2.158
0.04678
0.7501
0.5165
0.4729
0.1811
0.1677
0.5388
1.077
0.3143
1.394
0.1942
0.1385
0.2292
0.3067
14.34
0.1411
0.2061
1.391
0.2266
0.4561
0.1559
5.138
9.028
4.995
9.192
0.1736
0.3089
0.1557
5.079
3.653
0.405
7.671
0.6408
6.053
0.3436
0.2973
4.489
0.1289
0.9212
0.1045
0.364
0.7891
1.576
0.1191
1.152
1.092
0.1673
0.6329
0.4526
0.2883
0.8523
0.8711
0.5923
0.8099
4.38
15.43
10.51
0.4485
6.246
1.632
1.207
0.5597
1.202
0.1651
0.3276
2.002
0.2196
0.349
9.23
0.2832
0.3777
0.3118
0.2314
0.1152
0.4418
0.07915
1.651
1.438
3.608
7.359
0.2217
0.1255
0.6166
0.6075
0.2513
6.157
3.61
0.3131
1.22
0.148
0.1697
5.983
0.1699
1.359
0.4841
0.2135
0.3466
0.6053
0.06703
0.3791
2.971
1.408
0.1345
6.162
0.1422
0.041
4.093
0.5588
1.902
0.1687
0.5231
0.4793
0.1718
2.062
0.1667
13.54
0.9971
0.3397
0.3474
1.805
0.6726
0.1212
2.038
0.1207
0.4533
0.2196
0.6009
0.1578
0.2505
0.5708
1.039
1.474
0.2994
0.967
1.511
1.676
1.659
0.8107
0.1917
1.353
0.2463
0.9507
1.572
0.7827
0.7878
0.6511
0.09939
0.6329
3.883
0.5325
0.8012
0.6458
0.5163
0.9402
0.2981
0.8729
0.234
0.3001
11.21
2.791
2.374
0.2685
0.3657
6.269
0.2518
0.4941
0.141
0.3697
0.45
0.4458
0.3593
5.877
0.5205
17.18
0.2057
1.919
1.276
0.9897
2.993
2.472
0.3757
0.5364
0.48
0.1167
0.4257
0.2017
0.4861
27.74
0.09263
0.9021
3.001
0.1733
0.2067
4.767
1.972
0.3824
3.696
0.222
0.7587
0.5262
0.09533
0.3616
0.3744
0.1259
0.2417
0.7558
0.1297
0.985
4.167
1.53
0.07076
5.366
0.5869
1.066
0.1159
4.318
0.2641
0.0671
1.071
0.8245
0.3782
0.2059
1.523
0.2453
0.4037
0.7462
0.1253
0.6258
0.4616
1.344
5.859
0.2407
0.5706
0.8055
0.05399
0.3066
4.943
0.843
0.1411
1.032
0.454
0.3945
1.063
0.2974
1.611
0.3441
0.1931
1.023
1.792
0.6156
0.8558
1.562
3.596
0.1852
0.06716
0.312
0.614
0.5645
0.1569
4.286
3.332
0.9637
1.047
0.1245
0.4374
1.106
2.098
0.5376
0.313
0.3615
0.917
0.3913
0.157
0.4229
0.5449
0.4383
2.286
10.41
4.68
0.4412
0.9461
0.6745
1.986
0.1293
3.219
1.794
0.2228
0.1573
11.8
0.915
0.2217
0.5456
0.5583
6.089
0.2729
0.3605
0.2962
1.132
0.6168
0.5548
0.1497
0.1543
0.1325
0.7513
0.9355
0.2331
0.1692
1.015
0.4209
4.428
0.2701
0.3604
2.075
4.71
0.3828
0.7705
0.9229
0.8273
0.849
0.03873
0.1959
0.2081
0.3765
0.08065
8.139
0.5696
0.6985
0.8018
0.6023
0.9435
0.775
0.476
1.014
1.375
0.168
1.102
0.8309
6.051
1.569
0.2539
0.1609
1.644
0.1243
0.22
0.9523
0.4747
0.8506
0.6068
1.234
0.07838
0.1119
0.3225
0.4193
7.107
1.38
0.4125
0.7713
0.7739
0.7611
2.184
0.1001
0.1025
14.71
0.1539
0.1609
0.636
0.1898
0.4904
1.833
0.2105
5.151
5.323
2.727
0.8132
0.1671
0.4012
0.3574
0.1884
0.2841
0.2071
0.3083
0.1106
4.086
0.6662
1.485
0.5311
2.394
0.227
1.108
0.6073
4.577
0.3687
0.3925
0.264
0.3226
0.4326
0.2237
0.2288
3.485
0.2984
0.3703
0.1663
0.04136
0.2515
0.5189
0.06245
0.2298
3.042
4.02
0.5503
0.06472
0.9455
0.6204
0.1191
0.5421
0.1742
0.7254
0.1408
3.18
0.5687
4.765
2.063
0.2882
0.231
1.228
0.3496
6.612
1.21
0.2318
0.2707
0.2479
0.7898
0.6039
1.358
0.7597
0.2926
0.2659
1.206
0.1943
4.478
0.2737
0.7882
0.3453
0.196
0.5419
0.3518
73.18
2.557
0.3004
0.2315
0.4047
0.2631
0.3862
0.1597
0.2163
0.2474
0.1976
0.7521
0.1873
3.89
0.5828
5.146
0.2544
0.6495
0.2395
2.886
0.1575
0.249
0.2501
0.4035
0.5155
0.4228
0.9674
0.9371
5.006
0.3519
0.4242
0.1503
4.935
1.31
0.3227
0.7611
0.3419
0.2123
1.866
0.4721
0.06886
0.4348
1.243
0.262
0.7354
0.7428
0.2406
5.756
0.339
0.2223
1.317
0.6396
0.6904
0.1171
0.1318
0.1389
0.1965
0.07254
0.2215
1.329
0.08095
0.8272
0.5192
0.1167
3.984
6.159
0.2981
0.2931
0.7186
0.4324
1.271
0.8195
3.455
0.3187
0.06322
19.07
0.7086
0.41
0.273
3.277
2.801
2.796
0.07827
1.468
0.1715
1.961
0.5169
0.5422
1.57
0.5877
0.2866
0.05641
0.2027
0.2354
6.673
1.584
0.07048
0.4746
1.12
1.045
0.4229
0.2653
0.1794
0.1928
0.2815
12.5
0.1151
0.2099
0.2828
1.269
0.7748
0.1621
0.3119
0.2873
0.1335
0.9333
1.803
0.07936
0.2785
0.9283
2.95
0.05585
0.6703
0.1389
0.05917
0.1561
0.1928
0.1834
0.3426
0.2825
1.487
0.4607
0.4119
0.5489
0.5424
0.5048
0.8024
3.6
0.04457
1.042
0.1546
0.4245
0.1402
0.6989
0.1271
0.22
0.6039
0.3832
1.264
0.6673
0.7257
0.4858
0.2068
2.339
0.162
2.341
0.3158
2.766
0.1898
0.2881
0.9522
0.5675
0.8791
0.1907
0.3507
0.2877
19.72
0.4312
0.2474
0.5113
5.75
0.716
2.638
0.7004
0.2433
0.9326
0.346
0.3962
0.604
0.8253
0.6843
0.7244
0.1979
0.4429
0.3119
30.12
0.1679
0.2227
0.5579
0.6914
0.2732
0.2674
3.401
0.4663
0.8469
0.528
0.1796
0.6206
2.809
0.2813
0.2906
0.5574
1.224
1.775
0.07881
2.288
1.422
0.8283
0.4653
0.5059
2.901
0.2701
18.35
0.5582
0.6689
0.8305
0.2095
0.655
0.3542
0.4051
0.2172
0.5418
0.4424
0.2479
1.094
0.3033
1.043
1.082
0.1635
1.481
1.014
1.204
1.896
2.254
0.9457
0.1325
0.96
4.014
0.6324
0.3283
0.1351
0.3226
0.2617
1.293
0.2426
0.5785
0.1514
2.443
1.142
0.5559
1.419
2.078
3.31
0.1733
0.312
0.1536
0.171
0.1917
0.4154
0.5783
0.07067
0.3378
0.259
9.681
0.1124
1.7
0.1168
0.7218
0.1788
0.1542
1.46
0.8202
0.3081
1.446
0.1887
0.4133
1.003
0.294
0.2946
0.1721
1.082
0.4164
0.2118
0.3037
0.3085
0.3435
0.2571
0.6393
0.2062
0.8242
0.7769
0.1718
0.7565
0.9447
2.237
0.9641
0.9613
0.6267
0.1242
0.6609
0.3219
0.4616
0.1768
0.2794
1.387
1.366
0.2628
0.3438
0.2639
0.3327
0.2325
0.1143
0.8893
5.74
0.3787
13.69
1.981
6.993
0.258
0.1561
0.2438
4.23
0.2354
0.7579
5.841
0.2991
0.1526
7.738
0.3152
0.267
0.6184
2.231
1.118
0.4157
1.134
0.9998
0.1276
0.5522
0.06398
0.4706
0.2051
6.106
0.2918
0.5504
1.029
1.86
0.0901
0.1366
0.1179
0.5495
0.4282
0.4076
0.3859
0.9532
0.3681
0.332
1.004
0.5038
0.2413
0.9187
0.6345
6.98
1.279
1.67
0.3077
2.366
0.08295
9.637
0.3442
0.6309
0.1562
0.3256
1.011
0.3103
0.267
0.2026
1.327
0.3161
0.3571
0.1941
0.478
0.7111
0.3541
0.2557
2.156
0.03991
1.459
0.1343
0.1435
1.133
0.4992
0.402
0.2247
2.005
0.3546
0.3111
0.1553
0.7024
0.1022
0.1579
0.1581
0.1481
7.054
0.74
0.2827
0.2202
0.3049
0.3691
0.4263
0.3916
2.124
0.1806
0.09302
0.1981
0.08629
0.2907
0.908
11.17
0.5329
0.743
13.04
0.2558
8.915
0.342
0.1695
0.03508
0.3067
0.06362
2.568
0.2095
0.1951
1.471
0.143
5.016
0.3618
0.7882
3.114
0.09849
0.2163
0.6133
0.2631
5.549
0.2133
0.05872
0.3172
0.4201
0.4488
0.2312
3.49
0.7038
0.1931
0.118
1.734
0.9797
1.535
1.285
0.1835
0.1298
0.6857
0.3216
0.2316
6.956
0.2345
3.477
2.77
0.3105
0.3178
1.015
0.258
0.4272
0.3328
0.8527
4.749
2.213
4.502
1.751
2.291
4.154
0.6896
0.5036
2.197
0.07084
2.89
0.5811
0.09421
0.4821
0.1991
0.1373
0.5718
0.8065
0.948
0.1657
3.192
3.759
0.5163
0.569
0.5567
1.244
0.7513
0.1726
0.1647
0.8264
0.755
0.1289
13.87
1.426
4.559
0.1536
0.5556
0.561
0.2441
0.2815
2.186
0.7592
2.269
0.7127
0.8481
0.4685
0.5453
11.51
2.228
0.1841
0.1271
0.9347
1.139
0.8383
0.2125
0.1356
0.507
2.391
7.782
0.8441
1.692
0.7416
0.8436
3.665
12.29
1.181
0.1787
0.2696
0.2961
2.478
0.5269
9.548
0.572
1.312
4.1
0.5639
0.4887
0.171
0.9916
7.984
0.5655
0.9746
8.704
0.5978
0.595
2.068
0.2281
0.2185
0.7765
3.954
0.2736
0.1439
0.3019
10
0.4807
0.4028
0.3832
1.723
0.5323
0.09027
0.4969
0.06688
0.2395
1.66
0.3221
0.7722
1.624
0.2781
1.981
1.987
0.3509
0.2246
0.1251
1.239
2.2
4.514
0.03645
0.2675
0.8995
0.4502
0.2512
0.3209
0.3858
0.1843
0.3642
0.5239
1.314
0.2572
0.1401
3.155
0.7296
0.337
0.983
0.7536
0.5253
0.2122
12.64
0.8876
0.4325
2.149
0.1566
0.6167
0.9053
0.1746
0.2015
0.3497
0.318
0.1767
0.4105
2.521
0.2314
0.1237
45.14
2.98
0.6318
0.1253
0.7118
0.2688
0.2214
1.304
0.2314
5.614
0.2164
0.7319
0.1483
8.449
0.6555
0.6721
0.9724
6.705
0.409
1.749
0.2869
3.618
3.419
1.17
0.6816
0.9649
0.2193
0.3259
5.451
17.07
1.02
0.4119
0.1878
0.8387
0.2058
4.743
0.334
0.2459
0.1331
0.2964
0.4742
0.9841
0.6644
0.4087
0.422
2.579
1.007
0.5243
5.011
0.2017
0.1687
1.608
0.7389
0.2968
4.858
1.992
0.259
0.2478
0.2176
0.7603
1.422
0.6117
1.395
1.352
0.7754
1.307
0.1038
0.2608
0.3134
1.472
55.87
0.2506
0.7781
2.689
0.1558
0.1612
0.6539
0.3746
0.4607
4.168
1.331
0.2156
0.7739
0.963
0.2791
0.07129
0.1976
0.6221
0.1239
0.235
0.3086
6.314
0.5465
0.2184
0.2461
0.2065
11.86
0.8412
0.2142
0.4856
5.161
2.985
0.5618
0.5912
0.2867
5.262
0.155
0.2303
4.634
0.2694
0.574
0.3801
0.09294
0.4552
1.625
0.4493
0.2576
0.1919
0.7241
2.975
0.5436
0.1433
1.023
0.1498
0.1841
0.386
1.715
0.3453
0.5305
0.5436
6.781
3.44
1.037
0.693
0.8015
2.317
0.266
0.6798
1.298
0.6504
0.2834
0.3847
0.7104
0.05279
5.09
0.679
1.613
1.111
1.419
2.911
0.309
5.986
0.101
0.1883
0.3596
1.947
3.991
5.993
1.066
3.316
0.5828
0.7722
0.1676
0.2178
0.9089
1.225
13.85
0.5158
0.1241
0.3946
0.2048
0.1153
0.6271
0.7668
0.2239
0.1188
0.6805
1.426
3.935
0.6825
1.238
0.3177
13.24
2.072
1.187
0.06473
0.2061
0.2803
0.683
0.8786
0.338
0.7722
1.166
0.3084
0.07543
0.1661
2.981
1.833
4.24
1.684
0.4746
1.244
0.1704
4.442
0.1236
0.2377
0.2743
0.3171
1.402
0.6273
0.3409
0.2709
1.726
3.197
0.327
0.569
0.6639
0.3061
0.3034
0.5573
1.35
2.264
0.6203
0.7224
1.248
0.1832
0.2038
1.04
0.3971
0.8777
0.5892
0.456
0.7706
1.546
3.374
0.5992
2.757
1.619
1.247
0.7012
0.1497
0.529
0.7111
0.4917
3.218
1.294
0.1962
0.2331
4.44
0.3359
54.09
0.2181
0.7018
4.099
11.59
26.75
0.07334
0.2794
3.606
0.2785
8.118
1.333
0.07916
1.231
0.5238
0.2541
0.1223
0.3869
1.304
0.1518
1.151
11.52
10.47
0.3784
2.812
1.968
0.8508
0.1554
0.184
0.4276
0.4036
0.3506
0.179
2.625
0.2864
0.2609
0.284
0.08496
0.288
0.8338
1.106
0.2257
3.541
1.024
0.7696
0.3639
0.2881
9.884
2.211
0.8379
0.569
0.7755
1.148
0.296
0.852
15.25
0.4573
0.8099
0.3777
1.318
1.077
0.5936
0.1778
0.6071
0.2904
0.1654
0.1857
0.5029
0.3679
0.5344
0.2406
0.694
1.469
0.761
0.2859
1.24
11.99
0.9345
6.473
0.2766
0.2657
0.5815
0.3982
0.41
1.792
0.5227
0.6959
0.2018
10.33
2.214
0.3657
0.786
0.2752
0.7822
0.5474
0.5916
0.7184
0.2557
1.324
0.2427
0.4248
1.568
2.297
1.391
1.405
0.09149
0.1132
0.08935
3.919
0.1581
0.3367
0.2184
0.2305
4.813
0.7946
0.8087
0.6408
0.8923
1.767
0.341
0.2652
0.3118
0.3213
0.1469
1.272
0.4907
0.5094
0.2473
0.33
0.3436
0.6255
1.764
0.06822
3.115
1.216
0.3394
0.9219
0.1249
0.4144
1.275
0.3492
0.5366
0.1607
0.2068
0.5859
0.2704
1.797
2.126
1.28
0.4488
1.375
0.2784
5
0.1579
0.8702
2.07
0.3167
0.3498
0.7992
1.071
0.3426
0.4653
0.1075
0.469
0.1402
0.9638
22.76
0.204
2.625
1.322
0.607
0.1996
1.289
0.6246
0.4524
0.1795
0.6625
1.605
0.2752
0.3048
1.33
0.1653
0.5718
0.5772
0.2657
1.709
1.517
0.1839
1.293
48.88
0.8445
0.3728
4.381
2.277
1.083
1.458
0.4097
4.617
2.343
0.4515
3.157
0.4902
0.3158
2.163
3.944
4.735
0.7272
2.207
0.5136
2.374
2.943
0.2775
6.493
1.06
5.96
0.8227
0.4493
0.844
0.1703
1.064
0.4437
0.3243
0.1729
0.7451
1.409
0.3279
0.1639
0.1957
0.8541
3.909
6.339
0.5916
0.5658
0.9458
4.286
1.934
0.8432
0.5255
0.3345
3.825
1.21
0.1699
0.0553
0.1708
1.299
3.341
3.946
0.6932
1.061
0.854
0.3082
1.503
0.8815
0.7691
0.8707
0.175
0.04081
0.7257
1.481
0.1901
4.645
0.07019
1.343
0.3721
0.3784
0.188
0.1325
0.4534
0.278
0.3252
0.1076
3.737
3.409
0.9052
0.234
1.433
4.4
0.572
0.09892
2.524
2.578
0.8295
0.03723
0.3441
0.856
4.799
0.05691
27.02
0.8567
2.932
0.8239
0.2215
18.41
2.275
0.2476
0.6502
0.2254
9.789
3.986
0.2323
0.174
2.212
0.1913
7.762
0.4434
0.9077
0.6378
0.3166
0.2038
0.5966
0.2416
0.2071
0.4131
2.093
0.566
0.2578
2.583
2.214
4.89
0.3823
0.9759
0.8088
0.7042
0.1773
0.5045
0.2612
3.221
0.2093
0.3315
0.6028
0.2762
0.7705
0.4386
0.6554
0.2174
0.5702
0.7278
20.08
1.91
0.864
0.3278
3.202
11.29
1.193
0.4622
0.1938
0.04027
0.5819
54.56
0.3688
1.618
0.3561
1.003
1.478
0.1757
0.4053
0.1099
0.6658
0.2772
0.4091
2.276
0.5597
0.0872
4.815
0.1143
0.6688
0.299
1.049
1.049
0.3938
0.246
0.8252
0.8028
0.9808
1.415
0.1531
1.74
0.2746
0.7343
4.198
0.9229
1.509
1.144
1.82
0.5107
0.727
0.3273
0.3229
0.1216
0.2831
0.4136
0.1278
0.4571
0.7698
0.9996
0.1992
0.8994
0.3867
0.0954
5.614
0.2891
0.6057
2.895
0.1253
1.041
0.508
0.7423
0.2289
1.308
0.6408
0.2448
0.1874
0.3185
0.3523
0.3714
0.2176
1.282
7.059
5.678
7.66
3.117
1.574
0.8447
0.1464
0.235
0.06709
0.1177
0.04338
2.584
0.7962
12.38
1.216
0.9581
1.104
0.3094
3.157
0.4946
0.3856
0.2034
1.386
4.006
0.5455
0.1382
0.2186
0.351
0.6472
0.6913
0.1675
21.87
0.1337
4.013
0.4382
0.06106
0.7646
0.1874
2.885
1.627
0.3096
1.466
0.4689
0.1315
1.722
0.3652
0.5251
2.076
0.667
1.402
0.7869
1.004
1.434
0.3009
0.306
1.502
1.4
0.5104
0.2516
0.8651
1.913
0.722
7.694
0.3421
0.4216
2.698
1.215
0.1768
0.1845
0.3933
0.2665
0.7259
0.2971
0.127
0.8464
12.21
0.07616
0.2566
0.2353
4.15
0.1168
0.7582
0.9149
0.4487
2.308
0.1511
0.1822
3.094
0.2507
0.1321
11.63
1.556
1.451
0.1837
0.8015
0.7
1.635
0.1633
1.614
0.1945
1.135
0.3791
0.7534
0.6811
9.87
1.228
0.3248
13.37
0.1897
0.745
0.7919
0.2097
0.2646
0.1148
2.178
0.1511
0.443
0.6787
1.737
0.9746
0.7732
0.2301
0.4253
0.2706
0.389
0.1473
0.2884
0.7808
0.5808
0.7145
0.5169
2.199
0.2828
0.7855
0.7228
3.007
0.5872
0.58
0.2757
3.523
0.3559
0.5757
0.4844
0.1454
0.3134
1.241
2.096
0.3315
0.2782
0.398
1.227
0.1087
0.6621
0.1339
0.4355
0.3676
0.767
0.7208
0.2604
1.233
0.1018
0.1828
6.502
0.157
0.2737
0.408
5.766
1.679
0.1175
11.19
0.1516
0.6985
1.675
0.2009
12.49
1.546
0.3651
3.315
1.405
0.6938
0.2677
0.1799
2.502
0.341
0.2074
1.397
2.317
0.4455
0.07299
0.3451
0.3744
0.4598
1.483
0.2784
1.343
0.9495
0.6055
0.3936
0.3149
0.191
0.9505
1.754
0.2197
0.3096
1.156
0.1815
0.1374
4.858
0.5159
0.6579
1.87
1.33
21.61
0.1177
0.7456
0.5041
1.602
0.8947
0.4013
0.5895
0.2373
0.8761
0.6965
6.688
0.1475
0.6649
23.58
5.55
0.2337
4.193
0.2116
7.016
0.4275
0.5336
0.2841
0.2193
1.076
4.279
0.6322
0.4188
0.2795
0.521
0.2151
2.569
0.3645
4.074
0.06654
0.182
0.811
1.729
0.2163
0.2511
0.2598
1.817
1.158
3.874
0.2077
0.4076
0.09444
0.3248
0.1534
2.453
2.291
0.2758
1.606
2.164
0.07495
1.703
0.2509
0.3663
0.1561
0.4496
0.2709
0.1493
0.3365
1.084
0.1468
0.911
0.2008
0.5916
0.2949
0.06486
0.2081
1.986
2.922
0.2834
0.9147
0.8151
0.6966
5.169
1.62
0.7526
0.3844
7.746
0.137
0.8326
0.5379
0.3456
1.166
0.2162
1.571
2.114
3.548
1.14
0.4302
0.2046
1.611
2.303
0.3567
0.1847
0.8798
0.5934
0.1417
0.134
0.8068
0.4512
0.6104
0.7001
0.2761
0.8477
1.634
0.2275
0.4533
7.236
0.6385
0.233
0.7694
0.3487
5.101
0.1991
0.5106
1.214
0.1789
0.2381
0.8026
3.716
0.2591
0.07463
0.2775
19.39
0.7414
0.2534
1.219
0.8578
0.1579
0.6691
2.244
2.056
2.083
0.07546
21.03
4.93
0.6869
0.2228
4.997
0.5086
0.1731
0.1385
0.2537
0.4988
0.6291
0.3854
0.4784
0.6826
0.7752
0.165
0.5767
1.056
0.8504
2.648
4.473
4.717
0.2692
0.3508
0.902
0.185
0.1015
2.514
0.1157
1.023
3.798
1.221
0.6901
0.094
0.3569
0.6265
0.1682
0.1048
1.303
1.867
0.9014
0.6891
4.487
3.41
3.155
0.7683
1.081
1.56
0.4681
4.827
0.3525
0.8754
5.716
0.2342
2.458
0.6913
1.427
0.9643
0.1882
0.7767
0.9219
0.3204
0.4932
1.202
0.3073
0.187
2.864
6.79
1.788
2.05
0.5543
0.2614
0.6633
0.83
0.4339
1.458
0.1767
2.099
10.6
0.5937
0.3602
3.111
0.9081
1.005
1.218
15.27
0.1644
0.2555
2.191
14.26
0.7809
0.1034
3.307
1.949
0.4595
0.6138
0.2419
0.2974
4.668
0.3909
1.467
0.5268
1.164
2.178
0.2474
0.5857
0.1256
0.1555
1.026
0.3916
2.239
0.08374
2.803
0.3405
0.8678
0.8536
3.696
0.3245
0.05624
0.9223
0.4618
3.38
3.158
0.4921
0.1699
0.5063
11.84
0.1278
0.2112
0.367
3.396
0.5241
0.6853
0.3534
0.3182
0.5555
0.3404
9.546
0.3297
1.143
0.637
0.2696
0.6883
0.4852
0.3279
0.919
2.196
0.5788
0.2595
5.968
0.6429
1.431
0.1864
0.1719
1.71
3.452
0.4077
10.94
0.1198
1.005
5.622
0.3424
0.2914
1.229
0.2115
0.8647
0.263
0.6039
0.6665
0.7662
0.2937
0.3059
0.7468
0.6314
1.529
0.5063
0.8561
0.7686
0.4666
1.323
0.1418
0.3526
0.2066
0.138
0.2961
0.5641
0.9733
0.1314
0.215
0.09724
0.8725
1.506
0.5437
0.5036
3.591
0.1561
3.872
0.2353
0.2077
0.449
0.1944
4.373
0.1023
0.5757
4.791
0.2462
0.1447
0.2449
0.2859
0.7641
0.7065
4.132
1.743
0.5864
0.2555
0.2689
3.848
0.05064
0.1267
0.6893
0.4398
3.365
0.6926
0.3492
1.067
0.2829
0.4417
0.358
0.1719
0.7017
0.4281
2.401
1.19
2.584
0.132
5.315
1.524
2.68
1.127
0.2824
0.1259
0.9707
1.624
0.3028
0.4042
0.4923
0.1258
0.7782
0.3575
0.1074
0.1457
9.163
0.2651
9.102
4.735
0.7524
0.4702
0.537
0.3854
0.3604
0.7184
0.3816
1.302
1.683
1.101
0.3708
0.3346
57.16
0.4213
0.352
3.977
0.2921
0.3977
0.9241
0.2616
1.704
0.1027
0.03679
1.487
1.805
0.1512
3
4.315
4.588
0.8113
4.99
0.3748
0.6654
0.3307
0.3428
0.2658
58.29
0.4355
0.117
0.3118
2.133
1.738
0.134
5.673
9.529
2.913
4.622
0.1706
1.124
0.4179
0.5844
1.129
0.7281
0.2204
2.815
0.14
0.4004
0.1517
0.2263
0.351
0.2062
0.3777
0.725
0.4817
0.8468
1.366
0.3266
0.3216
0.4516
0.3733
0.3526
4.948
0.8188
0.6504
0.2398
0.866
0.3128
0.6773
9.782
3.497
0.1114
0.7631
0.7333
3.631
0.8257
0.3176
4.075
0.1317
1.982
0.5144
2.242
1.745
0.3366
0.8336
0.3658
0.6885
0.6528
5.182
1.175
0.5341
0.2619
0.299
1.471
1.152
0.08644
2.08
0.5199
0.2335
2.119
1.222
0.2249
5.555
0.4183
0.3597
0.1613
0.7554
1.738
0.2958
1.542
0.4918
0.6563
0.5196
3.207
1.195
0.2046
0.2933
0.8162
0.657
1.223
0.3273
1.365
4.826
0.1215
0.8847
0.26
16.21
1.126
0.1086
0.6384
1.692
0.2608
8.574
0.3993
0.4714
2.629
0.6951
0.9398
2.113
0.2546
1.259
3.246
1.193
0.6882
0.3022
1.875
0.7926
0.5105
0.1539
0.6842
0.1675
0.5162
0.11
0.3189
1.517
0.113
1.553
0.1399
4.428
0.6951
0.622
0.4191
3.003
0.09472
0.4127
4.308
1.094
0.5614
0.1219
1.107
0.1259
0.08875
8.229
1.086
0.5233
0.2674
0.4853
0.5547
11.42
0.2637
0.8959
0.1812
9.945
13.53
0.07591
0.1474
0.9332
3.056
0.1126
0.1158
0.05776
6.278
0.3437
1.068
0.4332
1.758
1.801
0.3682
0.6337
1.247
0.7252
0.2122
0.09651
0.5643
0.3922
0.1961
0.1389
0.1465
1.17
1.349
7.043
0.4379
0.8043
0.1524
0.9039
0.3469
1.195
0.1273
3.027
1.416
0.2071
1.303
0.09738
1.083
0.9625
2.38
0.4199
0.8409
1.414
0.162
0.1891
0.4963
2.491
0.3096
1.361
1.696
0.2658
0.6947
1.193
0.5347
0.3132
4.635
0.1111
0.2728
0.1649
0.7955
0.6233
3.25
1.466
0.2392
1.355
0.1589
0.3042
2.154
0.1179
0.5573
17.31
3.853
0.2797
0.08121
0.622
0.213
0.7449
0.366
0.2055
1.327
3.282
0.1381
4.572
0.2107
0.4285
0.2989
0.5871
0.5359
0.1377
0.1956
3.077
0.3682
0.2626
1.672
0.2235
0.1088
0.666
0.4221
3.385
0.1807
0.6112
1.844
0.1381
1.858
0.278
10.41
0.6589
1.022
0.1982
0.5911
1.093
0.1351
1.187
0.217
5.555
0.1689
0.6727
0.4041
0.3854
0.3837
0.7729
0.1534
0.3687
0.6595
0.2995
1.896
0.2291
0.03513
0.2472
5.431
0.7012
0.4662
0.3215
0.286
0.9525
5.188
7.272
0.8356
0.5879
8.383
1.354
0.257
12.73
0.1676
0.6645
0.6644
0.3353
0.1595
4.218
0.1712
0.3293
42.34
0.8162
1.426
0.1443
0.3444
1.306
0.3221
0.1447
0.8096
0.04516
0.1694
0.4944
0.4318
0.1418
0.2595
0.2259
0.1209
0.9579
3.461
1.662
1.216
0.366
0.1864
0.6155
0.1877
0.2594
15.64
0.4401
3.989
0.1538
2.739
1.138
0.1871
1.718
0.2359
2.073
0.2579
0.4042
1.135
0.6193
2.368
0.2676
0.2102
0.5357
0.8192
1.434
33.55
0.2563
1.03
0.0459
2.416
0.2731
1.102
0.8989
0.6834
1.048
0.5158
0.5385
0.3668
0.3066
0.4252
1.083
1.666
0.4133
1.926
0.6558
0.827
1.812
0.364
0.131
0.1128
0.1213
1.131
0.447
0.8581
1.208
0.4291
0.5834
0.1816
2.186
0.3838
1.061
0.7987
0.5581
0.2556
3.336
0.839
0.1382
1.532
0.1479
2.133
0.1733
2.258
0.4046
0.2171
0.1215
0.4879
1.949
10.2
0.4387
0.2728
0.5337
1.126
1.388
1.717
0.5259
1.057
0.5899
2.182
0.5849
0.6586
0.5421
0.2002
3.822
1.851
0.3951
0.1818
6.758
0.8097
3.634
0.1781
2.507
0.7761
1.046
0.5792
0.5839
1.431
0.5747
0.8774
0.6389
2.873
0.1044
0.7363
4.698
0.2936
0.6953
0.427
0.1548
0.2566
2.424
1.684
4.14
0.07254
1.84
0.1087
3.633
0.1937
1.157
0.1232
0.6477
0.2975
15.07
0.2082
0.3918
6.014
2.942
1.665
0.6623
5.013
0.5773
0.7048
0.414
1.331
2.478
3.383
0.1347
0.5395
0.2244
1.414
0.1841
0.2526
0.1357
0.8746
0.397
12.08
1.682
0.4227
0.1504
0.3017
0.9618
2.017
0.3604
1.44
0.1735
0.845
0.3528
1.042
0.1305
0.2491
1.122
0.2776
0.3199
0.1338
3.387
0.2259
0.5933
0.1118
1.139
0.7633
0.03979
0.5289
0.1729
2.677
0.5882
0.7643
0.6892
0.06757
0.8454
0.3964
2.668
0.7594
2.108
1.862
0.1747
0.7343
0.1261
0.5242
0.4377
1.197
0.817
0.2169
0.7364
0.191
1.414
0.2125
0.3174
0.09225
0.0653
16.52
0.2389
0.287
0.07918
0.5687
0.473
0.2033
0.1334
1.029
0.1533
1.644
0.3264
0.2512
0.4239
0.175
1.437
0.7927
0.5545
0.2558
1.339
3.044
1.141
0.5512
0.8221
1.279
0.6864
0.08837
0.11
0.5351
0.4079
0.07515
0.5936
0.1909
1.28
3.862
1.332
0.7843
0.3042
1.307
0.4156
0.1936
0.2771
0.5491
0.2808
2.764
0.156
1.077
3.553
0.263
1.372
2.048
0.4295
5.345
0.8254
0.4263
0.6344
0.3413
0.1358
0.8107
4.73
0.1887
2.563
0.07303
0.2621
1.034
0.5102
0.6523
0.9008
0.1241
0.8109
0.233
1.287
2.254
0.1537
0.434
1.087
0.2171
2.888
0.3176
0.2909
0.1653
0.4331
1.95
0.8613
1.197
17.47
0.2763
1.379
0.5426
0.2895
0.4922
0.2701
0.9617
0.1357
2.379
0.9403
0.2935
5.67
0.4728
0.2776
1.61
0.3521
0.4108
0.6283
4.695
0.3586
0.2128
0.8033
0.1101
0.3339
0.9975
1.753
7.599
0.4559
0.4511
0.1755
0.4429
0.9794
1.224
2.344
0.2242
7.496
0.9285
0.6081
0.1696
0.1373
1.637
1.893
0.422
0.5933
1.678
0.3194
0.3174
0.6248
0.1797
1.112
0.174
0.4308
0.9834
1.112
0.1935
0.7604
0.6001
0.1063
6.705
1.135
0.6833
0.2023
0.2518
0.3264
0.4855
1.373
0.2203
1.57
27.38
0.1217
1.539
0.7919
3.229
0.2999
0.1711
0.3638
0.1275
2.217
0.3058
3.007
0.7227
2.884
0.2428
0.9721
0.1887
0.1234
0.0552
0.03443
0.1658
0.6769
1.546
0.959
0.2376
0.3253
3.833
1.374
1.271
1.786
0.6138
0.1801
0.7111
0.3767
1.211
0.09679
2.372
0.3488
1.732
0.08411
0.6214
0.7605
1.334
0.2153
2.452
0.1157
0.6011
1.13
0.6895
1.319
5.027
0.1745
3.053
0.9941
0.133
0.2576
1.399
0.3604
1.443
0.1523
0.1944
0.6219
1.74
0.03823
0.0523
0.2733
4.369
0.1957
3.847
0.2327
0.8697
0.5149
0.8815
0.2444
0.06125
0.1838
0.2266
6.16
0.8415
1.122
5.159
0.7435
3.625
0.543
0.8142
1.076
4.077
3.806
0.109
6.867
0.3461
0.3938
0.2382
0.1754
0.1893
0.2529
0.8518
4.316
0.7216
0.1468
0.161
1.684
0.9437
4.318
0.5514
0.6371
0.6558
0.1467
0.1841
0.1037
12.85
1.221
0.4387
0.2873
2.791
0.7389
0.09305
1.292
0.3882
7.03
0.3592
2.608
0.266
0.4308
0.8472
0.2553
0.5222
0.5529
0.1051
0.1872
0.6396
2.713
0.124
0.3902
0.5285
0.3262
0.6133
0.3697
5.552
8.969
1.329
1.292
1.045
11.68
2.366
3.321
0.9884
2.21
8.666
0.2892
0.198
1.517
1.859
1.517
0.6047
0.4999
0.3151
0.258
0.2062
0.425
21.6
0.2512
0.3295
0.2329
0.7663
0.07949
0.6577
1.37
0.3316
0.2499
0.2179
0.3042
0.4217
0.2197
0.9596
0.3422
4.473
0.2638
0.2556
0.4104
6.923
1.18
0.7538
1.699
2.027
2.061
0.2064
0.5919
1.18
0.1911
1.119
0.043
0.4217
2.58
4.26
0.5908
0.301
0.7611
0.7535
0.2583
1.695
1.951
0.277
1.309
1.194
7.14
1.855
6.367
0.2842
0.2869
0.2253
0.7126
0.9095
1.567
0.1491
0.8053
0.2262
1.601
7.107
0.04542
0.2012
1.414
0.5834
8.891
1.277
0.2042
0.07416
0.176
0.5603
1.127
0.202
1.8
0.09608
0.8671
0.8265
11.78
5.5
0.1499
2.594
1.003
0.2079
0.216
0.721
0.08893
0.1427
0.1841
0.4188
0.9322
1.103
1.593
0.4691
0.5057
0.1957
0.3568
0.8642
0.4401
0.7456
1.429
0.5431
4.143
0.2748
0.4365
0.5984
0.1997
6.109
1.375
0.2506
0.4426
7.745
0.8858
2.815
0.128
0.204
3.804
1.469
0.258
0.2565
0.1043
1.571
0.5814
0.1272
3.375
0.2571
4.705
0.8153
0.2418
0.2145
1.395
0.3557
1.326
0.5978
0.03897
1.219
6.004
0.1308
0.2325
1.038
0.4082
0.7572
0.5823
0.3198
0.7419
1.227
32.11
0.6246
2.316
0.3726
0.3424