/*--------------------------------*- C++ -*----------------------------------*\
| =========                 |                                                 |
| \\      /  F ield         | OpenFOAM: The Open Source CFD Toolbox           |
|  \\    /   O peration     | Version:  v2012                                 |
|   \\  /    A nd           | Website:  www.openfoam.com                      |
|    \\/     M anipulation  |                                                 |
\*---------------------------------------------------------------------------*/
FoamFile
{
    version     2.0;
    format      ascii;
    class       volScalarField;
    location    "5";
    object      epsilon;
}
// * * * * * * * * * * * * * * * * * * * * * * * * * * * * * * * * * * * * * //

dimensions      [0 2 -3 0 0 0 0];


internalField   nonuniform List<scalar> 
100503
(
52.74
114.9
865.5
759.2
93.82
44.42
446.1
708.8
1890
77.45
229.1
1994
653.7
753.3
785
492.3
441.8
305.6
312.1
614.7
168.2
175.3
39.02
232.7
736.2
116.4
108.9
2.542
2.059
133.9
53.88
6.659
6.362
8.2
0.8607
0.7431
8.192
0.2055
0.001048
1.925
4.194
0.01828
38.81
0.844
3.299
0.1913
0.09749
3.373
2.059
2.558
3.24
4.222
0.3706
3.737
0.8229
7.722
1.215
0.1813
2.467
3.235
0.01661
1.076
4.279
9.168
93.72
0.8499
0.01308
0.3074
622.8
4.835
0.8912
0.5347
0.4954
2.452
0.5121
4.328
0.713
0.007584
0.007591
8.62
5.25
1.824
0.4745
0.01782
0.3706
0.001035
0.249
1.522
9.803
34.97
0.7145
0.2356
0.4797
0.01874
0.01792
6.48
0.6272
1.193
0.008429
0.008429
0.3088
141.1
1.702
3.61
0.3639
0.01807
0.9189
48.53
0.2151
3.988
9.746
0.8474
4.72
1.083
0.2875
4.025
0.1851
1.256
3.126
0.05907
0.2173
0.5326
4.519
4.556
4.688
9.73
0.5072
0.3369
3.639
10.92
1.8
0.6495
0.01174
0.03331
1.852
0.888
4.465
0.8334
0.6605
0.6609
0.01896
0.4663
2.225
0.3476
0.8154
6.542
0.1027
1.714
5.233
0.01783
13.69
1.326
0.01419
0.001352
3.156
448.5
0.04464
0.3444
0.08905
11.59
7.726
13.15
7.277
0.6278
0.007931
0.3388
3.715
0.01409
0.02005
0.2022
0.863
1.339
0.8197
7.48
0.02095
93.53
1.998
0.002832
0.3571
0.02015
1.525
0.5492
0.8372
1.915
0.356
1.706
0.01261
9.035
4.082
47.11
0.2577
1.867
0.2696
0.01813
1.453
0.4626
0.03272
22.42
0.06503
10.11
2.9
9.223
8.972
0.7185
2.515
0.8024
1.475
5.071
1.775
3.059
0.9472
6.085
114.2
0.1818
0.5403
0.5599
1.037
0.01812
3.085
6.269
0.81
0.5956
0.001339
2.396
29.73
83.67
17.79
51.85
1.035
0.1133
1.707
3.994
32.76
0.2259
0.4925
1.641
1.031
0.0163
52.16
1.407
23.02
0.9682
5.095
0.1966
0.04068
0.003409
0.4552
0.01586
28.76
5.57
0.0185
28.31
0.02471
0.2633
0.01782
0.2896
1.318
10.05
0.2806
0.6881
24.43
7.052
0.001301
1.27
2.082
1.859
4.184
0.1251
0.007749
0.1732
7.343
0.2412
3.034
0.8926
4.253
17.92
1.378
0.02502
2.775
12.94
3.489
2.841
0.007674
0.5916
1.807
0.01865
4.497
0.007743
0.009447
5.163
0.3017
0.07282
0.0196
1.135
7.281
27.13
0.1339
0.003339
5.044
0.4745
2.542
1.643
0.04314
0.2771
1.196
1.304
3.571
2.97
0.12
0.01859
1.547
3.343
81.06
8.022
0.07164
1.733
0.6202
0.0429
0.003284
0.2406
0.01952
1.094
4.401
0.4548
3.29
0.01852
0.6348
3.446
0.2909
14.98
0.2323
3.521
1.246
0.001992
10.07
0.1492
0.08445
0.01764
0.09779
0.4315
0.0008753
0.00765
7.278
0.576
1.6
0.01992
0.1994
0.6888
116.4
4.286
2.075
0.6393
0.8412
5.851
3.111
0.002359
0.001058
0.01861
4.271
2.225
0.03821
4.937
0.3016
7.039
0.5312
0.0608
7.651
4.491
0.05819
0.04937
1.027
0.6901
1.45
0.01699
1.205
72.79
1.04
0.02076
0.3257
1.98
0.03518
0.3651
0.03936
0.3656
21.3
0.02666
1.56
0.382
1.546
4.233
0.02516
0.4426
6.087
3.525
1.119
0.7637
1.221
0.04941
59.38
0.09611
0.8116
51.04
1.237
0.4443
1.515
6.889
0.0224
0.3388
3.438
0.06059
16.45
21.05
0.1675
0.4334
5.234
0.007621
26.41
6.582
0.0009438
0.375
0.2421
7.931
0.1707
0.6828
9.1
0.104
0.1299
0.04654
3.874
1.975
19.59
1.325
4.057
0.01769
10.95
0.2738
0.7372
0.3451
0.07399
359.3
0.1719
0.4223
0.4943
69.87
0.6245
724.7
1.235
3.732
0.009488
1.598
15.86
319.3
0.1235
0.08189
67.24
1.723
0.00743
1.111
0.7908
3.108
3.811
0.05233
59.27
9.725
0.005239
10.77
2.538
0.3556
1.034
0.4051
0.3709
1.235
0.2407
0.193
0.002273
9.615
0.3253
0.7503
1.64
1.494
0.1473
0.7881
1.017
0.2896
0.003947
0.5014
0.03379
0.03764
0.0186
1.684
3.005
0.4456
0.02118
0.04239
0.5823
0.758
0.1607
4.082
0.1251
0.01852
0.254
0.02021
0.4239
3.072
0.2136
0.1064
0.1613
2.863
0.0446
0.3043
0.0008584
1.195
13.34
6.325
0.001345
0.01785
1.759
1.117
3.52
0.2091
0.2463
0.8251
0.447
0.71
0.03955
0.2757
0.6815
0.02345
0.1305
0.4701
7.124
2.248
0.4652
0.004274
0.05668
0.5699
1.194
0.04759
2.717
0.2006
26.08
1.814
0.1762
0.5638
0.4303
0.6969
0.002231
1.555
4.99
5.036
11.47
38.28
0.01298
2.657
1.059
0.9152
0.5709
1.36
4.639
0.2422
0.375
4.144
0.7588
0.5878
0.2853
1.329
4.382
3.574
0.01873
0.003858
0.01993
0.728
4.604
0.01508
11.1
0.2377
0.0187
1.704
0.4378
0.01265
0.7941
0.00228
0.05835
0.8031
0.02138
0.6771
2.623
0.09612
0.02166
2.434
0.4423
1.024
0.4873
21.85
58.22
1.789
0.8545
0.5162
0.01578
1.003
0.0103
1.259
3.228
0.3555
1.139
2.025
3.745
0.01402
0.02707
2.483
0.5713
0.004129
5.952
0.07152
0.7548
0.04319
3.258
2.533
7.144
0.04192
3.642
9.897
0.4044
0.2811
0.001007
0.8094
0.5647
0.1802
0.3628
0.9286
25.93
0.0125
0.301
0.6088
0.8687
0.01583
12.26
0.03313
1.462
0.2805
0.01487
0.6264
0.9599
1.13
6.482
4.058
0.558
1.653
0.0586
1.176
1.551
0.6594
0.01838
0.166
0.5934
0.009927
0.7637
0.01521
0.1068
0.5483
0.01503
0.004852
0.4986
1.418
0.01496
0.07483
1.25
0.07024
0.1191
7.398
14.25
3.4
0.01547
1.275
0.002173
2.52
13.95
0.1181
11.43
0.03835
0.0149
0.4483
0.6682
2.828
1.021
0.9225
5.95
1.212
1.165
0.5108
0.05135
1.069
1.765
10.62
1.265
2.157
11.18
0.03145
0.01659
1.348
1.362
23.56
0.02394
1.974
1.117
12.69
26.24
0.01726
16.36
0.5675
0.5514
0.2388
1.036
0.002411
3.137
0.8358
10.53
0.1133
1.594
0.01384
10.37
0.9935
0.1039
0.003781
0.02308
6.524
0.9265
2.751
0.1819
0.9978
5.085
1.759
4.541
3.4
0.01354
0.00927
0.01309
297.8
0.002716
0.7931
0.2287
0.5457
4.005
1.384
22.3
9.025
0.8379
36.26
15.72
0.0112
2.074
2.995
0.004313
6.045
0.2385
7.114
0.5995
0.01556
2.814
0.5996
1.101
1.313
3.044
28.92
13.37
0.1993
1.223
0.4119
5.677
2.282
0.8856
0.2346
1.496
0.2013
1.151
0.002102
0.02011
0.01026
1.746
15.34
0.1572
0.417
0.2814
0.7011
0.7735
2.28
5.868
0.6156
0.01481
0.1849
3.855
5.932
0.06034
0.3464
3.412
0.02111
2.258
6.561
12.52
0.02101
9.704
68.33
0.9743
0.4084
64.16
3.964
2.149
0.01213
1.734
0.4607
0.01771
31.34
0.02209
0.1594
0.9907
0.2226
0.346
0.3261
0.08475
0.0007116
0.4838
2.449
0.03638
1.531
0.359
0.01277
3.467
2.059
186
0.03502
0.1605
338.6
0.03429
7.367
0.8952
0.2586
0.1165
4.703
0.9758
0.6482
9.081
12.3
0.9681
13.94
99.45
0.5871
16.37
0.02958
0.1199
1.916
1.546
0.03113
0.7128
0.01341
12.73
6.474
0.5302
1.212
0.001229
0.3613
2.823
1.025
43.33
0.1378
5.697
5.749
0.3653
0.02154
0.7778
4.16
0.001324
0.001335
0.6322
0.9917
0.6635
0.9355
0.597
0.509
0.001541
0.02005
3.115
1.628
15.31
0.06987
0.2627
0.01438
0.002333
0.01821
2.064
0.8779
0.6841
4.634
0.3279
4.107
0.02657
6.74
0.6503
0.1163
14.66
0.01593
3.505
0.02416
18.95
0.0006531
0.03665
17.95
5.471
202.8
1.441
3.135
3.366
0.9937
0.1804
0.7395
0.07472
0.03627
3.722
2.938
0.829
7.888
0.548
9.498
53.62
0.0009239
0.1364
4.242
0.1745
3.56
28.11
0.9762
1.641
2.917
0.006899
18.4
0.2203
0.5479
0.0432
0.4027
0.4048
3.225
2.323
0.8987
0.2551
11.73
1.167
16.74
0.7755
0.1511
9.05
0.01752
0.0168
0.01112
0.2559
0.8253
0.223
0.6288
0.1659
1.265
0.2816
1.195
0.6892
0.1124
1.836
1.241
0.3543
5.278
32.49
0.02464
0.3515
0.01806
0.5828
1.638
0.7819
0.5994
0.8243
0.6159
0.1863
0.2993
0.1233
11.34
0.02775
1.128
1.252
2.566
1.77
11.71
0.2578
1.417
0.1214
0.04463
32.64
0.4301
0.02558
0.3515
1.438
0.2914
0.0006805
0.0006758
0.06213
3.305
1.154
0.639
12.91
0.5043
0.3471
0.2214
0.1608
7.162
0.982
7.107
3.312
0.01721
5.468
0.5539
39.15
0.01522
0.2932
1.473
3.198
4.936
0.0412
0.01915
2.269
0.0713
1.648
3.841
0.7417
0.2398
0.3671
3.941
0.04775
1.9
2.939
0.002136
0.01951
2.919
0.1006
0.5447
0.9218
0.811
98.88
1.439
0.3553
0.07463
1.014
3.27
0.8496
2.615
3.95
0.6949
0.3431
0.2989
0.1107
0.00418
0.007808
2.394
14.24
37.23
0.07781
0.233
0.03904
2.07
0.07843
0.6697
1.835
2.494
0.0209
0.08285
0.1229
0.07636
1.801
0.1575
3.907
1.41
0.09557
0.5591
0.5706
0.4255
33.01
0.02022
1.106
0.5631
49.05
3.075
0.09569
0.7924
0.3468
0.9833
0.3228
0.4737
0.09997
0.1732
5.641
1.89
0.1454
0.2623
0.5586
0.9905
0.5547
0.4998
0.09613
2.742
0.2177
0.3059
23.01
0.6459
47.85
0.1573
0.001062
27.09
0.02045
0.02094
19.55
0.7459
97.21
0.0422
2.071
0.366
0.006176
0.3597
0.5449
0.01679
0.03573
7.545
4.629
4.914
0.6677
5.212
0.0008741
38.5
0.2281
0.2886
0.2563
0.6173
0.04412
0.5804
0.05882
37.32
0.07481
4.721
16.19
1.249
0.01569
0.02448
5.862
0.3782
12.33
5.887
0.04193
5.493
0.005192
0.9967
0.0211
0.3669
3.781
31.01
0.01175
0.8252
10.25
0.1205
0.8449
0.002023
0.04221
0.001228
0.7365
0.3133
1.568
1.483
0.05455
13.57
0.04559
5.862
0.3874
1.364
0.1536
1.829
0.02398
0.02035
3.438
0.8833
0.7275
17.47
0.0605
21.44
1.431
1.898
0.5058
0.005039
5.503
0.1173
0.01562
0.912
0.08301
0.001985
24.02
1.147
0.05514
0.1641
0.2963
0.659
0.5988
6.903
0.01322
8.89
6.556
0.2865
0.3875
0.2957
3.598
1.369
8.92
0.1291
0.4716
0.284
0.4469
1.387
0.01165
2.4
0.7575
1.584
0.622
0.1424
0.09799
2.083
0.1995
0.4042
16.04
0.9321
0.03628
0.1037
0.2706
0.6543
0.02386
105
0.5206
0.1075
13.83
0.9867
0.7287
0.3368
0.0825
5.625
62.15
0.02762
8.036
4.874
6.519
0.02623
0.8213
0.5875
0.01458
1.755
0.01801
7.04
1.248
2.083
0.001508
7.182
4.294
0.03398
0.003513
0.00137
0.01615
0.7919
9.002
45.53
19.58
0.727
9.865
0.2013
1.209
2.452
5.216
0.5682
20.53
0.5654
0.4056
1.259
1.675
0.008998
0.1746
1.71
0.8038
0.992
9.068
1.293
0.3128
0.01431
0.05134
2.635
9.638
0.7106
4.156
0.4329
2.696
0.2855
0.008502
27.27
0.6153
1.782
0.002355
20.03
8.086
0.04263
17.24
21.53
1.395
9.026
3.396
0.0185
3.409
0.7213
3.532
3.423
0.5302
7.12
2.974
0.002028
0.6108
3.507
0.0006651
0.7684
0.5418
0.01378
1.878
0.002905
0.2557
2.668
0.1288
1.719
0.03456
0.0009016
0.01273
95.86
0.3266
1.188
0.3252
2.816
90.77
1.961
7.68
0.2562
1.195
0.6246
1.041
0.03376
0.4761
2.453
0.2825
95.33
0.003822
0.08025
2.235
2.588
1.638
5.39
0.1643
0.009523
0.971
0.001933
31.4
13.61
0.02228
1.635
2.26
0.3648
0.314
3.556
0.8845
4.957
1.62
0.5883
5.482
2.013
6.85
20.6
0.3753
1.144
0.2364
3.491
1.433
0.4688
4.344
2.502
0.0102
3.038
0.465
1.3
0.1232
0.3502
1.246
143.1
0.04481
0.1858
1.343
16.37
0.001382
1.931
1.768
22.17
1.043
3.622
2.776
0.7927
2.046
1.035
3.009
4.994
1.287
41.52
2.242
0.8681
44.5
4.586
17.68
0.02226
6.9
0.7822
3.239
0.7159
0.01081
0.8964
2.855
1.277
0.451
0.8636
0.6622
4.246
3.254
0.3893
9.729
4.178
0.01713
0.3267
1.304
3.144
0.1186
0.006027
0.00834
0.2036
12.35
0.005493
2.361
1.638
0.8384
1.272
1.803
17.15
5.229
0.9847
1.139
22.76
0.5165
2.477
2.085
0.0175
0.02791
1.355
0.06656
3.26
1.705
3.238
7.556
3.551
0.0008643
1.803
0.05043
15.97
0.5783
3.996
0.01612
1.21
0.1291
2.341
1.001
0.1095
0.7317
0.5125
2.905
14.3
0.02836
0.01794
1.27
3.356
5.04
0.05686
1.023
0.4409
0.01369
1.146
0.6288
0.001045
1.24
5.38
0.8535
2.747
0.0066
0.555
0.02601
0.4157
0.118
0.3319
2.342
3.01
0.01746
2.951
3.149
3.206
1.262
4.658
0.8056
38.39
19.61
2.466
0.005728
2.801
0.2934
2.973
8.358
0.01606
0.0584
2.425
161.1
0.007889
0.2105
1.57
0.1533
0.2887
3.736
0.9533
1.469
0.6584
2.122
18.95
0.4239
3.389
0.3311
0.4221
47.05
0.01781
0.1159
0.6514
1.294
1.584
0.02502
0.00218
0.198
0.02109
1.524
0.001235
0.683
0.1581
1.425
4.709
0.02514
0.00405
0.2577
5.296
8.427
7.185
0.6672
0.5
0.2107
0.1753
0.2159
2.021
4.331
0.2939
28.42
0.408
1.632
8.809
4.344
0.4211
2.609
0.2143
0.4307
0.1965
60.44
2.197
0.9704
0.3462
41.59
0.8783
2.907
1.657
0.752
5.492
0.2191
0.9081
0.5461
0.5055
0.4436
0.572
1.509
34.35
1.303
16.09
0.01587
0.01776
2.62
16.71
5.264
0.01233
3.943
0.1563
0.03851
0.4981
1.187
4.222
1.282
0.625
2.541
2.475
0.06639
0.05137
4.607
0.3641
0.6608
0.04057
11.72
0.7234
3.194
0.01416
0.01272
0.04822
1.761
2.183
0.09946
1.971
1.273
0.00183
0.8458
0.02699
0.03205
0.06
0.01997
0.01793
0.5819
0.8724
0.7532
0.1471
0.7276
0.4529
0.4025
2.668
190.3
0.669
3.588
1.129
10.31
0.1781
1.033
0.0435
0.1179
5.887
6.41
0.2349
4.093
4.841
0.01194
0.6955
8.527
0.8607
15.59
0.03285
0.507
0.2619
0.3638
25.91
2.106
7.06
0.0434
0.02426
0.4406
3.198
1.04
0.3955
1.7
0.03437
0.06031
4.011
2.665
4.182
5.494
0.7123
0.3227
0.0166
39.31
0.6445
33.63
0.01724
0.1752
0.07294
0.02008
0.02767
1.541
0.02602
2.077
0.7003
7.447
3.542
0.7314
6.078
2.198
1.028
9.418
0.1421
0.2558
0.838
6.516
0.4588
31.99
17.72
0.1578
0.021
0.3007
7.94
0.3779
0.449
2.215
0.6912
3.101
1.006
9.36
0.04016
2.174
10.6
1.3
0.9888
2.373
0.218
0.1389
3.777
1.766
50.87
1.204
0.3993
3.608
0.8636
6.702
1.184
0.00692
6.796
3.293
21.35
12.41
1.635
13.59
2.002
0.08936
20.05
0.9188
0.0008618
0.6129
0.1114
0.03315
3.667
0.01245
0.2834
0.02546
1.502
4.606
21.05
0.237
0.01485
1.66
3.946
8.112
7.041
0.5266
2.145
0.02749
0.4897
0.001329
0.4266
0.3101
3.717
0.3522
0.001525
1.242
1.248
0.3284
1.618
1.11
0.3648
20.16
0.8834
0.2782
2.043
2.044
1.129
4.798
0.5895
0.06153
0.0008912
81.43
3.356
0.01773
0.5609
3.476
2.989
0.2656
0.1848
7.854
0.04206
5.074
0.3993
33.37
2.485
0.000824
0.4333
0.3467
2.86
0.046
8.589
0.0695
0.5056
0.6026
0.0783
1.8
7.247
0.4988
12.39
0.04309
1.72
1.462
18.46
0.4982
0.0006309
1.83
0.0009765
0.002931
24.82
0.01727
23.25
8.574
0.1866
2.666
0.01984
0.02417
12.75
4.713
9.941
13.35
7.932
0.01799
25.46
0.0332
0.3618
0.2881
23.08
0.03601
0.2217
0.8575
0.07705
0.01817
0.1672
0.0687
0.01133
1.361
0.05094
0.08606
0.2333
0.5493
0.5692
0.7483
7.814
2.081
15.18
0.00217
2.09
0.8796
0.04715
49.23
0.1432
4.745
6.565
1.388
0.00133
0.001294
0.01813
13.1
1.035
0.03236
0.3104
1.044
0.788
4.055
1.003
0.3859
0.0009707
1.939
2.022
11.46
0.7906
0.019
4.333
0.1298
0.6172
0.0895
1.519
2.868
0.2422
0.2449
3.072
1.832
0.5374
9.123
0.003629
0.1893
0.2536
6.829
4.469
0.03662
16.87
10.1
0.01074
11.88
0.1386
4.971
0.2371
0.1226
2.414
1.42
2.752
0.003945
0.8859
0.642
0.08262
0.1361
176.5
0.2249
2.551
0.386
0.9746
15.95
0.01313
2.381
2.165
10.4
0.01468
0.05407
0.7272
0.901
4.478
0.06198
5.564
0.5714
0.2881
0.8719
0.5078
0.002546
12.04
0.1794
1.22
0.1372
4.895
0.2906
4.216
0.01809
0.03142
59.7
30
0.5133
1.899
2.941
14.66
0.7019
7.609
0.01932
0.512
0.0007975
0.03149
4.56
0.1808
0.2215
1.09
0.0008068
1.885
29.73
1.07
1.593
0.001729
0.5909
0.2011
4.47
0.6302
4.26
0.8017
17.92
5.597
16.55
0.9325
4.313
0.8774
0.5264
1.434
5.545
0.0006538
56.47
1.001
4.837
1.276
0.3243
0.3284
0.08254
0.492
0.01596
0.001431
0.3847
0.08019
0.001425
0.02995
1.194
21.67
0.000846
0.01503
0.1671
0.02043
1.048
0.8877
16.72
16.08
64.8
1.648
0.3893
1.058
0.1669
1.937
0.03649
33.72
0.04375
4.006
1.067
2.76
0.03058
0.83
1.037
2.661
0.1667
2.987
2.927
2.093
2.89
0.01643
7.543
0.02026
1.685
0.7674
0.1602
0.2167
1.125
0.0951
0.1371
0.3076
2.405
0.1809
3.842
5.558
6.621
0.01008
0.05512
86.99
0.0007946
0.05272
0.2407
0.8639
0.2745
10.94
28
0.03271
0.02981
1.07
2.196
14.51
0.02343
2.128
0.002223
0.152
25.97
2.411
0.03705
0.3171
2.793
0.02327
41.14
13.44
0.01864
0.5425
2.214
1.117
0.7366
40.62
3.814
18.41
4.857
0.03224
0.1946
1.342
0.2063
0.6956
0.3571
40.17
0.4276
4.146
0.01868
0.4074
0.2151
0.1996
0.8855
1.174
3.775
0.004732
2.336
0.002068
0.01704
0.02699
4.542
42.63
14.72
0.8311
0.05663
3.331
0.5694
0.3193
4.918
1.62
50.72
0.006847
0.3306
1.422
1.024
0.4507
0.1893
0.03996
5.324
6.389
8.05
24.98
143.7
0.6404
0.236
1.233
0.08558
0.615
0.01528
1.637
0.3803
1.264
17.73
6.637
34.05
12.34
2.943
3.809
16.4
2.839
1.641
0.8502
0.8568
0.1949
8.752
0.7289
0.003596
1.034
0.05957
2.285
0.1653
0.1483
5.098
2.027
0.9874
2.997
2.702
2.208
0.01778
0.3323
0.01662
65.14
0.4493
4.344
2.25
2.943
1.742
50.52
1.084
0.3568
0.001741
17.2
0.399
1.021
0.314
0.4464
0.5459
1.64
4.746
0.4688
1.606
0.015
0.02438
0.01966
2.216
0.01141
0.02537
1.617
2.134
0.1063
5.816
76.52
1.77
0.05795
0.7323
0.32
2.98
0.1917
4.324
1.982
0.03626
4.546
0.3032
0.04252
9.923
0.001316
0.02704
4.412
8.577
1.713
3.552
0.005717
1.492
0.5979
0.9291
0.1733
7.723
2.432
0.2073
0.1842
0.00145
0.05196
1.424
2.243
0.001359
0.007602
0.007656
0.1011
0.3461
3.765
3.585
1.696
0.1989
3.816
2.601
0.00701
0.6706
27.42
0.2188
0.0159
3.452
13.59
2.018
0.001912
0.196
15.52
1.425
0.7014
0.9378
0.7437
0.427
0.6155
1.831
0.01146
0.6582
0.01884
1.332
2.008
0.5162
0.7997
691.2
38.65
0.00816
0.03401
1.629
6.08
0.006879
1.982
0.03107
0.001871
0.02515
11.84
0.4074
0.05021
0.2374
0.04371
42.63
0.1631
0.3973
0.04737
0.1857
1.373
0.001387
20.91
1.656
0.1759
2.6
1.957
23.07
0.5523
17.8
0.4963
1.416
2.137
18.19
4.741
1.23
14.45
0.1688
0.01643
0.0009722
76.48
0.008412
0.1207
4.462
44.22
1.638
0.3154
0.3658
0.2363
0.01678
6.853
2.128
1.447
1.008
0.1963
0.3447
1.69
0.9164
6.633
1.556
0.4272
57.21
2.109
0.1845
43.94
2.403
1.004
5.14
25.86
0.3613
4.042
0.002488
3.62
0.02282
0.001248
1.327
0.2943
32.45
0.1616
21.06
1.786
0.2006
0.5949
0.3797
4.64
0.7998
6.775
0.6965
0.1096
0.5033
0.01722
0.2898
0.0615
5.116
0.4255
60.43
1.697
2.819
0.05041
0.03394
3.799
9.742
4.101
2.355
0.4689
0.001648
0.8282
6.34
0.1572
2.072
1.042
1.418
13.66
3.668
1.062
0.01295
3.184
12.62
0.2469
2.361
3.409
0.144
0.5388
0.1965
31.34
0.5934
0.005105
0.06682
0.02461
41.29
2.055
0.411
4.444
0.3674
1.903
0.02136
0.08572
0.02101
2.659
0.003939
0.154
44.02
8.368
0.715
0.04729
0.08684
7.495
0.7717
0.001706
2.595
1.215
5.141
0.8684
6.23
2.737
1.225
5.318
1.527
0.003583
0.1149
0.5427
5.46
0.01098
4.103
1.124
15.04
1.548
0.7658
0.04537
0.1893
0.5323
4.375
2.884
0.2947
3.162
0.5844
4.534
0.007142
1.595
3.9
0.08638
0.002965
1.474
0.023
0.02402
1.547
2.777
1.068
4.217
2.804
21.08
1.288
0.03007
0.3081
0.06135
0.7749
1.668
33.42
0.5827
0.0151
0.8481
6.631
1.779
2.129
24.28
1.138
7.022
0.01009
17.95
0.002043
0.009686
0.09112
0.2242
2.76
2.194
696.3
5.135
15.55
0.5114
38.1
1.611
0.1632
8.722
2.675
1.708
0.1874
0.001811
0.03507
0.001272
25.28
0.01955
1.924
23.31
1.692
4.818
23.37
0.7277
3.932
4.937
3.905
0.06143
4.865
0.2024
0.0438
0.04057
0.1157
38.04
0.7083
1.6
0.847
0.753
0.5957
1.88
1.502
9.206
0.02677
2.127
0.001345
0.000942
0.2532
0.4818
0.2598
0.01423
0.7425
1.567
0.7476
0.4383
0.03135
0.01622
0.5373
3.249
4.512
0.07282
2.668
9.268
139.7
2.522
0.0009017
4.664
0.8402
2.129
0.02172
2.359
1.347
9.629
0.9717
3.313
0.2585
0.02798
1.541
1.209
0.4145
86.22
0.006602
0.8781
0.06324
0.01959
1.13
3.022
1.705
2.841
0.2418
3.751
0.1902
0.9603
224.5
0.4076
1.395
0.9733
0.04969
0.0259
1.175
1.021
12.59
2.435
1.485
0.3094
124.5
0.1692
0.08533
3.727
0.3232
0.5562
23.28
0.6371
0.4012
0.191
0.375
5.065
0.172
2.353
29.3
0.4961
28.73
0.05979
0.01613
0.6672
0.1386
0.8524
1.638
0.02487
0.1268
0.5754
31.04
2.193
0.001623
0.02569
0.009038
3.549
0.2485
0.04888
0.009892
5.271
0.9796
4.095
3.214
0.9305
1.994
2.557
2.221
2.593
32.2
3.007
0.3928
0.1176
0.5522
0.0322
2.506
14.8
0.3305
66.13
9.527
1.541
1.113
1.707
0.5412
0.6355
1.121
0.02182
0.0505
1.137
1.91
6.586
24.31
4.806
0.8293
0.006211
5.073
9.465
0.002194
1.448
1.999
0.9878
0.01881
0.05551
2.888
9.791
0.3251
0.01731
0.1788
0.1075
0.1017
40.67
2.295
0.283
0.456
0.395
21.98
0.9322
161.8
8.924
0.5975
0.0329
0.7682
0.02169
1.981
0.002262
1.105
32.16
0.1044
0.02216
1.371
26.88
6.252
0.1609
22.03
0.08325
1.286
4.964
0.4057
0.02059
4.155
1.805
0.4341
12.8
13.74
51.06
0.02313
0.3175
51.56
0.9209
0.0402
0.2194
0.008483
20.21
0.4361
5.689
0.8703
0.2275
0.283
0.02806
24.58
0.9496
2.144
0.02374
0.07586
10.12
4.064
1.092
26.69
1.328
0.2329
15.97
0.1553
35.83
0.3234
62.61
3.702
0.02735
1.554
0.1427
0.005276
1.183
0.4381
0.4165
0.3207
8.465
1.272
0.3925
20.68
0.2499
1.728
13.07
0.3118
0.4224
1.731
10.13
0.2843
1.372
0.04594
2.665
0.01528
11.92
1.769
0.0361
11.57
0.5067
0.9715
88.87
0.8359
0.1471
1.608
1.702
0.005408
0.7321
1.618
2.478
3.063
0.5364
0.8844
0.4924
0.837
0.4649
0.01778
5.688
1.641
2.279
2.758
7.153
0.1884
26.42
1.043
2.347
111.7
2.473
2.926
0.6616
2.844
2.714
0.3829
3.461
0.003192
1.368
2.004
0.5438
0.1114
2.087
14.25
1.886
4.484
30.83
1.421
1.359
0.6592
0.4519
22.12
0.112
0.716
6.088
0.02012
14.98
0.01795
4.44
6.707
31.72
0.7841
28.96
1.246
2.62
9.456
0.5842
0.6942
4.535
31.1
0.2114
22.49
7.345
4.534
0.386
1.935
2.297
0.4384
2.057
102.8
29
0.04254
1.332
0.07177
6.115
0.7389
0.01766
4.16
1.686
0.0256
0.09496
0.01729
0.3851
0.02773
0.408
1.354
3.26
0.7693
12.9
0.01654
0.209
0.9409
5.424
0.9073
3.38
2.961
0.5602
2.309
0.01753
0.02893
0.2632
1.684
0.00119
2.231
3.319
0.2272
0.194
3.397
2.049
3.792
5.934
0.1427
0.0006576
4.096
0.6148
0.4304
1.72
0.01614
0.03653
0.001637
1.745
5.051
0.494
1.689
0.845
2.923
1.817
0.03116
0.5361
0.4236
4.518
7.712
0.6046
3.659
14.51
0.2528
0.06003
0.09154
0.9397
0.3966
2.141
6.675
0.2096
64.75
24.72
0.02751
7.278
1.134
1.143
0.06908
0.04707
0.1234
0.2247
2.866
6.947
0.9152
0.3209
0.6618
2.433
0.02857
5.393
2.289
2.019
0.01656
0.4335
0.1371
2.42
5.919
2.207
1.189
1.634
5.397
0.2518
0.8844
6.66
0.2782
0.03174
1.357
0.3332
1.069
0.001624
23.21
0.0005854
2.403
12.64
0.144
0.2836
235.9
7.253
0.01759
0.1149
10.88
0.03325
0.02064
0.03353
6.623
2.673
39.88
1.124
0.02616
0.04544
0.3686
2.19
2.02
1.159
3.186
1.383
6.716
9.116
8.465
0.06302
3.545
0.7288
0.04929
1.144
1.077
5.404
0.3892
2.104
0.05953
3.764
3.372
0.03558
0.9687
1.943
3.252
0.0131
3.321
38.51
0.09785
12.94
8.883
22.08
1.968
1.033
2.386
25.12
0.03745
0.028
0.018
0.2983
4.849
1.574
65.8
0.02547
0.4925
2.235
0.001222
0.04457
0.6883
1.172
0.08345
0.05741
25.73
0.3177
0.4223
0.0801
1.119
3.549
12.82
1.308
1.332
0.1433
0.1049
8.498
0.4349
0.005953
1.857
0.7329
0.03991
0.2408
0.2727
3.182
1.704
27.29
6.325
0.1459
0.02803
1.093
1.244
0.01643
22.44
8.27
0.103
6.953
1.631
0.5633
0.2523
0.04889
4.754
0.6966
0.2404
0.005854
0.5707
0.008829
26.78
0.01796
0.01795
0.8032
1.827
30.48
0.0137
0.03986
0.4859
125.4
1.55
1.436
0.04626
0.3414
4.519
1.71
1.302
135.2
7.85
13.6
25.01
1.696
1.084
6.518
2.3
0.7709
71.25
0.2376
0.7176
0.1171
0.03073
1.239
0.02093
1.039
1.768
5.082
0.02445
0.01851
0.361
0.03192
0.7895
4.61
3.986
1.819
0.008335
0.0318
0.4356
1.022
0.1577
4.076
0.01946
0.0205
0.5042
0.01596
0.2467
0.02478
5.219
0.001677
21.56
1.961
0.02104
0.001606
2.244
0.2132
5.979
1.994
0.01184
2.421
0.2285
3.313
2.008
1.785
137.7
0.5253
0.07352
0.01545
33.78
0.5279
0.9851
0.7276
0.02188
2.825
2.502
0.4519
1.787
0.687
5.687
1.741
26.94
0.2897
0.4765
0.6168
1.558
0.2191
12.47
0.009447
2.414
0.04516
8.145
8.815
0.03247
0.008121
17.47
6.824
0.01758
0.8759
59.91
1.313
0.5248
0.004515
0.1356
5.026
1.553
6.458
0.3866
0.4948
0.6803
44.96
0.06313
1.563
0.8038
1.187
1.439
0.0348
0.434
0.01096
0.2322
0.009238
0.4388
0.8108
1.177
0.6423
0.05933
0.07603
0.5051
24.97
68.84
0.1877
0.002258
0.002537
1.974
0.822
0.0251
1.19
10.78
1.565
53.9
4.783
0.01043
2.404
1.435
1.344
5.6
2.65
0.2093
2.153
0.4577
0.2414
4.234
22.12
3.784
0.3732
3.285
1.854
0.6309
3.019
0.03623
0.05198
0.4493
0.01804
0.07651
1.211
0.2685
0.9678
29.44
0.1556
0.1143
0.2694
0.1761
2.402
0.02115
0.8269
0.1966
0.4117
2.599
47.96
0.4204
28.67
7.199
0.1169
1.539
0.01796
0.4614
1.266
1.243
0.2668
0.2331
0.9115
0.01605
2.958
0.6134
6.43
0.6068
0.008221
0.8946
108
0.5631
0.1595
0.0183
1.037
0.02806
28.5
0.9746
1.508
1.856
0.06435
4.803
4.35
6.58
76.75
8.669
6.271
0.004121
6.468
3.125
0.9918
0.02572
1.675
0.2288
10.27
0.3313
0.07718
0.8755
0.9123
0.1908
16.34
61.73
1.055
0.01956
0.1386
1.953
4.986
0.3618
3.774
2.339
6.428
0.1974
1.4
0.8684
0.1392
34.94
5.356
0.2324
0.03355
1.984
1.109
0.09483
15.49
0.8381
0.05288
0.4424
1.104
2.406
1.618
2.017
1.244
0.7162
0.3447
0.8172
0.5114
0.6115
3.238
7.001
0.0234
13.25
0.647
2.018
1.647
3.906
1.31
1.404
0.0006179
15.19
5.496
840.1
3.825
47.04
1.697
0.1596
27.07
0.1911
3.622
1.585
0.05718
1.402
3.325
28.12
0.5617
1.969
0.1239
0.0183
1.509
1.656
0.1207
0.7862
26.61
0.6378
31.82
0.2969
0.02558
0.1421
0.4319
4.399
0.3186
1.037
2.594
18.29
42.81
0.2619
1.498
0.000595
0.5725
1.854
0.515
0.04032
0.1795
19.98
0.03047
0.05379
18.14
23.57
1.517
6.27
0.1978
0.8005
0.02575
0.02499
22.74
8.346
29.28
44.58
1.203
0.08043
0.05928
0.5304
0.2681
0.009812
0.4943
4.592
0.01734
0.4719
0.001425
8.07
9.522
0.02688
0.01314
1.007
0.4758
4.962
0.06922
25.12
3.188
0.04237
0.009528
0.5367
0.3341
4.415
1.281
3.937
19.92
24.53
0.8123
1.526
0.03574
32.29
2.422
0.01598
0.02444
0.03958
0.02822
2.679
0.01447
0.0006853
1.873
1.813
1.078
5.279
0.1176
0.6857
0.06988
0.2687
0.503
0.235
1.218
3.172
9.472
1.243
0.5512
0.002156
0.01193
0.3615
0.7995
3.882
3.376
7.528
0.5584
0.1741
103.9
0.1398
0.06862
0.4876
6.212
29.62
0.0252
3.307
1.512
1.823
1.587
39.24
8.939
0.001937
1.544
3.457
0.7198
13.95
0.3426
0.9876
1.473
0.3963
2.561
3.542
1.905
39.85
4.362
0.1123
0.1558
0.3795
0.4084
5.031
1.789
0.7834
23.67
0.02872
4.377
4.211
0.08772
0.0438
1.241
0.003481
0.1696
2.295
27.14
53.06
4.323
3.334
3.289
0.4215
0.9236
4.309
0.3285
0.006893
1.343
0.5583
0.1374
0.1604
0.6419
1.007
0.001359
0.004402
0.4462
1.464
0.2434
0.04112
5.749
0.227
1.219
2.631
57.24
0.02105
1.375
3.188
0.1636
0.7601
5.766
0.1823
0.1066
0.1808
51.15
18.87
11.31
0.1182
2.628
0.04296
4.006
0.2269
1.287
0.356
0.8312
6.703
0.415
1.815
2.772
6.757
0.188
1.047
4.977
1.191
0.9546
0.3483
43.9
2.285
1.125
7.4
0.005443
0.7788
2.199
0.3364
9.838
0.5205
4.096
0.1061
0.01522
0.1954
4.918
5.332
0.01891
5.987
0.3003
6.851
0.8382
2.171
3.306
0.2486
7.774
1.941
0.02215
0.1935
1.834
39.5
7.628
0.315
1.951
0.5798
0.1627
31.84
32.16
0.5889
0.9443
0.003674
0.04328
0.5323
18.82
1.01
0.4282
0.6511
0.0201
0.2613
1.192
0.000669
24.66
37.23
3.973
4.749
0.6581
22.18
28.51
6.728
0.6638
0.003667
3.006
1.053
0.5729
1.745
0.03481
0.8974
2.494
0.3457
0.05071
0.2774
0.0822
7.688
34.26
7.227
10.77
5.781
1.022
32.55
6.04
0.946
6.597
1.007
0.493
1.453
43.86
1.107
49.14
0.6071
2.231
40.05
0.001589
253.7
0.03292
0.05889
0.009148
147.4
29.4
0.02886
43.88
60.96
0.01633
1.701
3.097
4.291
1.08
0.01615
0.135
0.911
0.3752
0.009283
265.7
0.1439
3.325
14.1
0.2048
0.777
0.3516
1.337
0.7311
10.5
1.392
0.1303
8.253
0.2419
3.637
1.007
2.488
0.02635
0.09668
0.002771
0.1906
0.4443
0.02971
1.311
3.648
0.07397
0.1536
0.08256
0.01354
3.324
1.287
0.01532
1.667
0.4564
6.97
0.7399
360.7
9.946
0.03479
30.45
3.321
0.05038
0.6068
2.232
1.768
4.077
0.2013
14.69
5.219
0.04973
0.03988
0.001124
0.00821
0.4448
0.6346
0.5237
0.02969
14.58
6.678
0.3313
0.1753
1.44
0.01823
21.02
0.06215
1.653
25.2
0.4114
16.91
0.6431
0.4443
1.251
0.01468
0.3692
0.001206
0.1479
0.3716
16.39
0.1595
0.2006
0.001151
0.7213
2.839
1.36
0.0453
0.7722
0.6909
0.05641
0.02262
0.8029
0.02124
0.6659
3.762
0.2894
0.3709
1.366
10.61
0.3645
0.02269
1.212
2.026
0.3667
22.44
4.716
0.0329
6.705
16.92
6.286
2.9
0.1724
1.518
3.7
0.001271
0.3754
9.792
6.593
0.673
0.1684
3.256
0.246
13.88
0.3378
0.6502
2.46
147
0.04316
3.221
0.3
1.039
0.2587
3.611
24.31
0.001111
2.295
24.65
0.3502
0.621
1.493
0.01807
0.03011
0.7735
2.619
2.237
1.987
0.01601
5.963
29.05
0.3948
0.3491
2.524
1.009
2.22
0.02521
1.246
0.6815
0.556
1.161
45.78
0.001845
23.51
0.4096
1.767
0.07358
0.03402
0.9025
0.03026
28.82
0.6399
0.5946
0.16
0.03966
1.372
3.312
0.3317
5.021
16.04
0.8147
1.15
0.1771
0.036
0.0167
1.95
0.9121
0.03003
0.8316
0.8162
4.501
0.1942
0.469
6.073
0.2546
0.4876
6.519
1.859
0.1257
2.168
1.912
3.669
0.8638
17.64
28.82
0.05592
1.99
0.7764
0.6598
2.919
0.01865
3.616
0.3419
0.7772
0.06287
0.03409
0.1103
0.01789
6.494
1.29
6.986
3.023
15.45
0.7213
2.139
4.492
0.6584
17.48
0.5835
2.16
1
25.9
0.426
0.02869
0.3815
37.74
2.411
0.8224
0.01779
6.339
0.0242
0.04066
124.1
38.05
0.1429
1.807
8.014
0.3953
3.343
113.6
0.1967
0.6117
0.5577
2.155
0.3348
3.568
3.243
40.18
42.7
0.983
5.694
1.523
2.029
0.552
1.632
4.494
1.121
2.463
0.5584
0.02798
56.41
0.4808
0.3653
0.7742
0.006453
1.727
1.047
0.5248
1.313
3.033
1.696
1.598
0.6982
0.3446
0.2804
0.4566
15.89
5.488
0.6097
1.39
0.01835
1.549
1.378
13.99
0.4822
21.21
2.36
0.05636
0.00126
0.331
0.0005467
1.378
4.31
2.163
0.8053
15.26
0.9327
0.7939
0.02405
4.82
0.2338
1.878
0.03416
0.01775
0.01283
0.158
0.54
0.764
2.446
1.628
3.871
0.01744
0.00524
1.118
0.009416
22.61
0.8659
0.0575
0.04017
0.000824
0.4596
0.1514
0.3269
1.473
6.305
0.9415
5.015
3.386
0.03047
0.01814
0.03263
5.239
1.523
7.409
1.875
0.005923
0.04159
0.1617
0.2346
5.692
2.309
1.419
0.2693
0.004821
0.1971
1.127
0.03577
719.3
1.105
0.04504
1.186
0.6963
0.364
0.4051
33.66
0.9078
2.291
0.1347
0.9835
0.6619
0.6087
0.2
1.165
0.252
0.3657
0.5951
1.802
0.5104
3.935
2.149
4.623
0.2248
1.041
1.625
0.8835
9.616
25.31
0.2816
2.532
0.1332
7.364
0.005285
3.752
0.07171
0.2147
0.01005
1.311
0.09144
15.69
0.0008116
0.02546
0.1924
0.0946
10.87
0.01777
6.757
0.6124
33.74
0.3833
6.419
0.8054
3.547
0.04529
1.376
4.784
0.169
0.3458
3.869
0.0134
0.01474
0.2711
0.1259
2.374
0.02225
12.98
0.2697
0.09082
4.939
0.1114
6.857
42.93
1.501
0.03253
0.5404
1.566
27.13
0.01622
0.1279
2.719
102.2
0.9484
0.3677
1.229
0.1141
4.651
4.368
28.98
7.062
0.1413
0.01876
0.3396
0.003474
0.0035
7.894
170.1
4.672
5.111
2.082
0.1366
1.499
0.0868
0.4922
0.6373
4.017
0.2455
1.459
1.684
7.498
0.6389
21.44
0.01112
3.639
1.121
0.4745
1.669
34.12
2.392
2.02
0.6937
0.02651
0.05335
1.298
0.002125
39.36
0.1227
0.6246
0.2398
3.618
11.1
0.001901
0.4776
0.006337
0.04507
0.00563
0.5889
0.6586
13.88
2.677
0.3597
0.02746
1.127
9.809
0.5241
33.46
0.4009
0.004843
1.415
0.1541
0.1773
0.004415
0.007348
5.587
15.28
1.5
1.949
0.6838
1.755
0.06038
0.3205
0.02097
7.347
1.241
0.1076
2.811
9.743
1.476
0.858
0.1335
0.4369
8.008
1.269
0.6093
1.26
4.388
0.02927
0.03668
0.3314
0.006961
39.33
11.87
62.82
3.597
2.158
0.2311
0.255
7.315
3.612
0.7846
0.08019
0.0219
0.01194
1.428
0.0193
17.2
0.1898
0.4775
8.396
5.96
1.637
0.3883
1.452
0.01433
1.37
3.185
0.01265
42.2
0.02045
2.75
0.01808
0.05456
0.05353
5.663
5.816
0.3778
0.8434
0.0225
9.769
3.123
1.428
0.2145
1.325
1.269
1.897
24.73
2.541
0.3404
0.02745
0.04216
0.1408
0.178
3.275
2.15
4.467
6.259
0.2535
1.247
0.3546
0.2271
0.6093
0.03461
5.476
0.03426
0.8095
4.033
2.842
2.657
0.02074
1.067
0.02731
5.698
6.993
0.004483
5.184
5.193
0.9084
0.9951
0.01524
0.01164
1.528
0.001322
1.942
0.4446
0.6934
1.521
2.079
6.498
0.5399
2.146
0.07687
0.4018
0.4583
0.418
0.009935
4.464
1.75
0.02346
0.1835
0.1003
0.03768
3.242
0.01681
0.15
0.8482
0.2906
1.062
0.1409
0.8752
0.2373
64.86
1.263
1.562
0.1899
3.105
0.2352
0.2416
1.182
1.325
13.72
1.223
2.149
6.416
13.72
1.814
0.5077
0.2684
0.00813
3.029
2.974
0.5833
0.1174
2.497
0.02179
2.049
1.464
0.04916