/*--------------------------------*- C++ -*----------------------------------*\
| =========                 |                                                 |
| \\      /  F ield         | OpenFOAM: The Open Source CFD Toolbox           |
|  \\    /   O peration     | Version:  v2012                                 |
|   \\  /    A nd           | Website:  www.openfoam.com                      |
|    \\/     M anipulation  |                                                 |
\*---------------------------------------------------------------------------*/
FoamFile
{
    version     2.0;
    format      ascii;
    class       volScalarField;
    location    "5";
    object      nut;
}
// * * * * * * * * * * * * * * * * * * * * * * * * * * * * * * * * * * * * * //

dimensions      [0 2 -1 0 0 0 0];


internalField   nonuniform List<scalar> 
100503
(
1.66e-07
1.283e-07
1.988e-07
3.292e-07
1.281e-07
1.805e-07
3.94e-07
2.741e-06
2.422e-06
2.446e-07
4.726e-06
2.294e-06
9.524e-06
9.985e-06
3.149e-06
6.126e-06
1.029e-05
4.991e-06
7.727e-07
1.076e-05
1.434e-05
1.453e-05
1.91e-07
3.932e-06
2.025e-07
1.412e-05
1.364e-05
0.002851
0.0009724
3.115e-07
1.477e-07
0.0006219
0.0006863
6.213e-05
0.001905
0.009226
6.092e-05
0.01046
0.4111
0.001103
0.0003088
0.4352
4.361e-07
0.005384
0.002206
0.005143
0.1327
0.00205
0.001091
0.002908
0.0007552
0.0002407
0.03838
0.001289
0.005626
0.0009304
0.003837
0.005731
0.0009381
0.0001915
0.4721
0.008864
4.412e-06
5.753e-05
1.33e-05
0.00491
0.5436
0.01099
8.107e-06
0.0005748
0.003994
0.01038
0.001525
0.00301
0.0133
0.0003725
0.0002806
0.3091
0.3084
6.416e-05
0.003145
3.732e-05
0.01598
0.4458
0.001388
0.411
0.002877
0.0002209
5.573e-05
5.684e-05
0.01321
0.007283
0.00471
0.4211
0.5701
0.0001899
0.0008628
0.003965
0.3173
0.3168
0.006338
3.059e-07
0.001263
0.0008397
0.03944
0.5713
0.001186
1.121e-06
0.04075
0.0003258
5.386e-05
0.001997
0.001127
0.004222
0.002279
5.878e-06
0.005554
0.002239
0.002403
0.1492
0.005214
0.01073
3.942e-06
0.001218
0.00153
5.12e-05
0.01345
0.02692
0.0002995
5.163e-05
0.002255
0.02273
0.5395
0.2561
0.001759
0.006651
0.000425
0.007377
0.0003384
0.009789
0.4574
0.04076
0.001171
0.02335
0.0002432
0.0001585
0.05368
0.002042
0.0002167
0.5686
0.0002763
0.004296
0.5444
0.2949
0.0003682
2.167e-07
0.2205
0.004675
0.143
6.313e-05
8.916e-05
5.715e-05
8.681e-06
0.007634
0.3367
0.01214
0.001356
0.5403
0.4306
0.01111
0.004235
0.001271
0.005237
0.0003731
0.5748
1.384e-06
0.001155
0.3002
0.02401
0.2266
0.002326
0.0005591
0.004697
0.00102
0.02426
0.002059
0.5358
1.176e-06
0.0004211
1.204e-06
0.04737
0.001154
0.01656
0.5701
0.0002228
0.01652
0.2623
0.0005125
0.1215
0.0002258
0.0004681
5.586e-05
5.561e-05
0.009773
0.003093
0.0002537
0.003933
0.0002326
0.002109
0.0003939
0.001198
0.0001879
9.077e-06
0.005775
0.0005801
0.01135
0.005648
0.5715
0.0004227
0.0001534
0.0003868
0.01007
0.4099
1.768e-05
2.881e-07
2.005e-05
0.000271
2.178e-07
0.003866
0.6271
0.001197
0.0003429
3.771e-05
0.007223
0.01523
0.001353
0.01281
0.4768
2.217e-05
0.0002152
8.929e-06
0.0001904
0.0002815
0.03069
0.1118
0.2973
0.0009192
0.5666
0.0002263
0.004233
0.5726
4.546e-07
0.579
0.0326
0.5713
0.002615
0.003543
0.002654
0.002407
0.008756
8.875e-06
9.683e-06
0.2965
0.003295
0.0002033
0.0005463
0.0005225
0.02319
0.33
0.05779
0.0003938
0.03731
0.0003888
0.006594
0.0009055
0.0002637
0.001891
0.4027
0.0008643
0.0003217
0.0008954
0.0005376
0.3986
0.01016
0.001879
0.5185
0.0008012
0.4182
0.5468
0.0002091
0.006775
0.1383
0.4422
0.004447
0.000189
3.055e-07
0.07362
0.4126
0.0002164
0.002082
0.0009618
7.208e-05
0.5947
0.03144
0.002453
0.002709
0.001458
0.0007067
0.6299
0.4204
0.002269
0.000357
1.133e-05
0.001988
0.1245
0.001236
0.007807
0.2287
0.4164
0.006677
0.2324
0.001463
0.000699
0.01287
7.033e-06
0.5725
0.0003711
0.001503
0.02871
3.397e-05
0.007527
0.003918
0.001539
0.3022
5.46e-05
0.06116
0.08238
0.5685
0.6225
0.01811
0.3586
0.5334
0.0002257
0.02541
0.002796
0.3796
0.004489
0.007931
8.403e-06
0.0004123
0.001339
0.01029
0.004742
0.0001425
0.0004189
0.2987
0.2996
0.5726
0.0002437
0.001024
0.2712
0.0002987
0.01177
0.0001597
0.009819
0.1723
0.000125
0.0005456
0.1802
0.5946
0.001197
0.0139
0.002943
0.5684
0.003888
1.85e-05
0.004528
0.5736
0.02823
0.0004682
0.2095
0.001431
0.1143
0.01984
0.0005641
0.5393
0.003994
0.02484
0.002958
0.0009214
0.5796
0.0009367
0.0001485
0.0005221
0.004553
0.008649
0.003324
0.5367
2.31e-05
0.05156
0.007682
1.332e-05
9.245e-05
0.002731
0.002384
9.885e-05
0.4409
0.02407
7.191e-06
0.1715
2.323e-05
3.872e-07
0.08761
0.02332
0.004103
0.5246
1.344e-05
0.0002335
0.3103
0.001702
0.6629
0.000311
0.03673
0.008917
0.0002936
0.09148
0.02029
0.09361
0.0004282
0.0135
0.0003181
0.01871
0.0004032
0.5646
4.863e-05
0.6679
0.001287
0.004702
0.5905
2.231e-07
0.05807
0.01462
0.0008501
1.637e-06
0.007438
4.841e-06
0.00138
0.0004816
0.5477
7.856e-05
2.222e-05
8.247e-06
0.02378
0.5957
6.721e-07
0.00224
0.5161
0.002788
0.002028
0.0006706
0.0005229
0.5962
3.388e-05
6.011e-05
0.3991
5.085e-05
0.0007214
0.001518
0.003039
0.005678
0.003897
0.003454
0.003002
0.04415
0.3923
7.301e-05
0.01194
0.005397
5.146e-05
0.002441
0.06209
0.002025
0.003983
0.02781
0.4211
0.01418
0.2215
0.5612
0.5728
0.002221
0.000452
0.01333
0.575
0.1861
0.01231
0.008386
0.05716
0.0005105
0.02766
0.4667
0.03396
0.4125
0.01853
0.0007947
0.005472
0.08932
0.05677
0.0005421
0.596
0.001925
0.3591
0.003008
0.0007742
0.0002576
0.4101
0.5714
0.001134
0.0002176
6.098e-06
0.04243
0.04992
0.005003
0.0009579
0.008749
0.4919
0.03186
0.008751
0.2525
0.05284
0.00504
3.589e-05
0.001126
0.001756
0.4889
0.07597
0.003529
0.002836
0.5887
0.0004871
0.0439
6.122e-06
0.001708
0.006139
0.01857
0.01419
0.001564
0.3937
0.001991
0.0002529
0.004192
3.628e-05
0.0002643
0.5452
2.917e-05
0.001597
0.004336
0.001061
5.654e-05
0.0002639
0.0347
0.02569
0.0002053
0.008709
0.0004395
0.002716
0.002023
0.0003928
0.0007031
0.573
0.4225
0.4204
0.00132
0.0002634
0.5581
9.184e-05
0.003182
0.573
0.002494
0.0009761
0.533
0.005164
0.3215
0.1675
0.01321
0.3896
0.002199
1.663e-05
0.04962
0.2437
0.0006096
0.0009344
0.009634
0.0008797
1.281e-05
2.685e-07
0.000595
0.007318
0.0103
0.5023
0.001575
0.551
0.003825
8.564e-06
0.01949
0.003293
0.0009105
0.0004758
0.5282
0.5375
0.001544
0.01263
0.4844
0.001476
0.09636
0.005506
0.1533
0.0005653
0.0007602
0.0001101
0.4957
0.0003323
0.002775
0.01713
0.02654
0.3055
0.0002964
0.0006177
0.006289
0.02001
0.004253
0.0001132
0.5225
0.001968
0.0005841
0.001343
0.5665
0.0007363
0.5583
0.0017
0.002629
0.5642
0.001746
0.005401
0.004236
0.005454
0.0002125
0.01137
0.00267
0.08613
0.004052
0.00271
0.00834
0.5266
0.05253
0.009488
0.5487
0.0004433
0.5651
0.07133
0.001086
0.5646
0.339
0.01439
0.003123
0.5578
0.5969
0.0005762
0.1259
0.0526
9.664e-05
0.001374
0.0006151
0.1936
0.003268
0.3232
1.446e-05
0.001282
0.06913
0.0004441
0.2159
0.3515
0.00164
0.008334
0.00083
0.004735
0.0001807
2.681e-05
0.002449
9.039e-05
0.002777
0.5984
0.004749
0.001959
4.102e-05
0.003483
0.0009684
4.308e-05
0.2737
0.5663
0.01331
0.004695
2.976e-05
0.1998
0.001139
0.005069
0.00236
0.0007272
0.5672
0.001618
0.000613
0.01254
0.01304
0.004669
0.4298
0.0003707
0.0007193
0.002065
0.6278
0.002819
0.5293
0.0002251
0.01338
0.6255
0.3869
0.34
0.0001197
0.0001493
0.0004995
0.07881
0.005572
0.0002191
0.001156
3.589e-06
0.0005884
0.4503
0.5453
0.5346
7.608e-06
0.424
0.007614
0.05751
0.009374
0.0002306
0.002625
3.037e-07
9.046e-05
0.005303
8.764e-06
5.337e-05
0.3905
4.229e-05
0.0004314
0.4356
0.0002596
0.01346
6.425e-05
0.002367
0.5226
0.001228
0.008567
0.004618
0.003936
0.005852
2.163e-05
5.439e-05
0.06255
0.00641
0.01906
0.0001778
0.0006856
0.0002007
0.006891
0.0008939
0.04271
0.004537
0.4249
0.5743
0.3602
0.0012
4.292e-05
0.03052
0.04445
0.02649
0.007364
0.01315
0.0006836
1.428e-05
0.001178
0.3633
0.6162
0.0001225
1.421e-05
0.4793
0.01427
0.0005281
0.477
0.001078
4.828e-06
1.772e-05
0.3968
3.176e-05
1.466e-05
0.002141
0.01722
3.784e-05
0.0002649
2.363e-05
0.4601
0.001211
0.02269
0.5661
5.222e-05
0.5753
0.6297
0.003751
0.003546
0.03847
0.008936
0.1214
0.3829
0.001654
0.00115
0.2276
0.008439
0.01929
0.4218
1.521e-05
0.001591
1.082e-05
0.1134
0.6319
2.927e-07
0.5868
0.001228
0.0002607
0.06444
0.02755
0.0002549
0.006948
0.0004934
1.319e-05
0.0005412
0.003565
0.001247
9.2e-06
0.02444
3.522e-05
0.5837
0.02517
0.0009632
0.002525
0.1403
0.008501
0.5604
3.126e-05
0.0001029
0.0005655
0.004181
0.4063
0.02222
0.0006465
0.02108
2.177e-07
0.01328
0.0002951
9.621e-05
0.01898
0.4663
0.005579
0.0004125
0.4125
0.4118
0.008418
0.00328
0.01018
0.002932
0.0006184
0.02515
0.4098
0.5655
0.0007877
0.002582
7.434e-05
0.1443
0.02924
0.4223
0.4277
0.5719
2.198e-05
0.0001706
0.00147
1.264e-05
0.02202
0.0004995
0.5772
5.045e-05
0.002837
0.08101
6.938e-05
0.5629
0.0003849
0.5757
2.242e-05
0.3684
0.2812
1.29e-05
6.529e-06
3.373e-07
0.001753
0.0006895
0.0004037
0.0001443
0.008583
0.01524
0.1544
0.2261
0.0002625
0.0004107
0.006708
1.911e-05
0.01226
5.896e-05
3e-05
0.3134
0.1011
0.0004296
0.6065
0.0003621
1.9e-05
0.003611
0.001643
0.0008
0.5185
1.464e-05
0.01445
0.0007885
0.5124
0.007375
0.0185
0.00027
1.594e-05
0.004039
0.004402
3.709e-05
0.004556
1.867e-05
0.008068
0.07996
3.907e-06
0.5694
0.5678
0.4528
0.01416
0.0002007
0.004099
0.01095
0.01328
0.002617
0.03
0.00148
0.0004256
0.1106
5.371e-05
0.0002164
0.001781
5.105e-06
2.072e-05
0.4071
0.02014
0.5715
0.0004851
0.002859
0.005029
0.0006639
0.007716
0.0004537
0.07901
0.003183
0.01634
0.0001378
0.5825
0.002844
0.003495
0.0002898
0.001892
7.695e-05
0.004137
0.003069
0.02362
0.596
4.931e-05
0.001079
0.3653
0.001554
0.002203
0.002083
0.3307
0.3321
0.5594
0.0001127
9.23e-05
0.01643
5.707e-05
0.01068
0.02028
0.007586
0.05336
6.112e-05
0.00515
0.0001376
0.0002617
0.5198
0.000381
0.00964
1.916e-05
0.5495
0.01528
0.002777
0.001142
1.096e-05
0.5742
0.571
0.001739
0.1584
0.002148
0.0003069
0.005677
0.03314
0.01468
0.0003962
0.5919
0.001337
3.006e-05
0.284
0.4488
0.0006526
0.07227
0.0005152
0.0001536
0.004775
1.145e-06
0.001935
0.002324
0.1556
0.0001833
0.0003616
0.007302
0.0009493
0.0007313
0.006017
0.001502
0.001883
0.6232
0.4288
0.478
0.001082
0.0002027
4.225e-05
0.08244
0.03905
0.5906
0.0008283
0.0924
0.006654
0.001114
0.001061
0.4463
0.07448
0.07577
0.1612
0.001228
0.05724
0.0003435
0.002919
0.08648
0.0005385
0.01254
0.001277
0.000447
0.5702
0.003863
0.006022
1.884e-05
0.0004088
0.05059
0.00763
0.004091
0.0002324
0.02227
0.01284
0.6217
0.05946
0.0003593
0.001531
0.6333
0.03169
0.0004891
0.0003172
0.01086
0.001466
0.12
0.0005382
0.04024
0.02151
0.0005302
0.001803
6.335e-05
0.06194
0.3365
3.911e-05
0.5731
0.4456
4.386e-07
0.01397
4.24e-07
0.2034
0.003181
0.02124
0.468
0.001912
0.009476
0.5048
0.2602
2.749e-05
1.32e-05
0.0004863
0.01039
0.0002286
0.386
1.775e-05
0.04092
0.003221
0.002611
0.01019
0.5806
0.0004511
0.1842
2.346e-07
0.1292
0.0001829
7.411e-05
0.01464
0.564
0.3795
0.0002398
0.0226
3.573e-05
0.0001762
0.2373
0.0002225
0.3696
0.006098
0.5752
0.04637
0.0007664
1.576e-05
0.5549
0.007002
2.758e-05
0.06985
0.0106
0.4303
0.5822
0.3222
0.006607
0.001922
0.002568
0.00253
0.1235
4.542e-05
0.5963
0.0001734
0.01726
0.0001586
0.008521
0.001779
0.3899
0.2333
0.0005413
0.01501
0.0002754
1.494e-05
0.6034
9.721e-06
0.002393
0.001911
0.0007305
0.3677
0.0001873
0.05453
0.566
0.0002212
0.1161
0.4212
0.0001454
0.0004024
0.2125
0.6045
0.02464
0.01008
0.007997
0.0004228
0.3803
2.856e-06
0.0004728
0.002463
0.001538
0.04234
0.0009587
0.003122
5.708e-05
0.07687
0.03677
0.002361
0.001064
0.001781
0.5532
0.006858
0.0003702
0.002111
0.007609
0.04251
0.05489
0.009113
0.04333
0.01719
8.683e-05
0.00581
0.4319
0.6218
0.01802
0.01043
0.5758
8.649e-07
0.03641
0.07008
1.006e-06
0.006749
0.008759
0.05072
0.1142
0.0002687
1.388e-05
0.5818
0.0006291
3.864e-05
9.74e-05
0.3932
0.02442
0.008666
0.5573
0.0002171
0.5361
0.000348
0.002163
0.002197
0.3764
6.722e-05
0.001813
0.5875
0.4206
0.3645
0.4903
0.00491
2.535e-06
6.269e-06
2.23e-05
0.000717
4.156e-05
0.007289
0.004301
0.001083
0.0002053
0.0008663
1.487e-05
0.0004761
0.01615
0.002284
0.005418
0.5421
0.6104
0.002278
0.0002974
0.0001224
8.364e-05
0.003349
0.001756
0.5248
0.1062
0.001214
9.643e-05
0.004011
0.002766
0.01482
0.0005029
0.004025
0.3714
1.866e-05
0.01177
0.002252
0.3179
1.429e-05
0.000148
0.5939
4.021e-05
2.037e-05
0.001962
8.958e-05
0.0003619
0.5336
0.0003665
0.005843
0.000422
0.0003561
0.000879
0.0001374
0.0003421
0.4319
0.009989
0.0006281
0.3517
0.007752
0.002188
0.4534
0.001052
0.3104
0.03032
0.0009679
0.0732
0.001549
0.5867
0.4065
0.4045
3.998e-05
0.02264
0.003093
0.004407
0.001012
2.164e-07
7.979e-05
0.0001713
0.06481
0.0001147
0.003713
0.008708
0.5866
0.0009397
0.0007167
0.02644
1.141e-05
0.3998
0.1017
0.001181
0.001328
0.0002797
8.557e-06
0.02508
0.5457
0.006014
0.4195
1.717e-05
4.738e-05
0.23
0.002286
0.002475
0.002508
0.02422
0.0002171
0.0002218
0.001622
0.002245
0.008342
0.0003225
0.001231
1.454e-05
0.001125
0.002198
0.007514
0.03503
0.0007341
0.001932
0.0009975
0.0001918
0.001014
0.5255
0.001679
0.01448
6.329e-05
0.07715
0.01055
0.003987
2.668e-05
0.5944
0.6195
0.0002808
2.178e-05
0.4107
0.005879
0.002365
2.583e-05
0.006778
0.0004996
0.0006687
0.006478
0.0008492
0.01091
0.001668
0.0004812
0.004354
0.0003252
0.002533
0.005445
0.0001148
2.022e-05
1.435e-05
0.5765
0.001566
0.003159
0.002656
0.001833
0.3709
0.004229
0.0004774
0.0005463
0.003154
0.004622
0.006718
1.599e-05
0.001739
0.02755
0.002411
0.000261
0.5507
0.02207
0.00688
0.0004321
0.02477
0.5092
0.4767
0.05535
3.243e-05
0.3132
0.0026
0.009589
0.007026
0.0002824
0.00139
2.132e-05
0.0001028
0.005252
0.003595
9.252e-06
0.0008779
0.0007942
0.0001919
0.4639
0.5825
0.003493
0.09417
0.0003944
5.265e-05
0.0003443
0.0001693
0.0005544
0.3798
0.004047
0.1671
2.736e-06
0.01237
0.0004154
0.4415
0.003577
0.08478
0.0007128
0.0005437
0.09308
0.006378
0.0113
0.001201
8.94e-07
0.1872
0.5692
0.0002154
0.002037
1.195e-05
0.1546
0.0001593
0.01446
0.5315
0.0008376
0.009536
0.3382
0.002191
0.000315
0.004291
0.0008778
0.4357
0.01064
0.5803
0.01679
0.02585
0.007237
0.00066
0.0002425
0.5705
0.001492
0.0002931
0.000257
0.002129
0.0003086
0.0002608
1.527e-05
1.923e-06
5.209e-05
0.3391
0.0005233
0.02722
3.657e-05
0.003443
0.2285
0.1717
0.001458
3.699e-07
0.5347
0.04091
0.001773
0.6351
0.004225
0.0005921
0.0003871
0.00163
0.01031
0.002006
0.0007138
0.0145
0.000457
0.002411
0.01511
5.873e-05
0.558
0.6265
0.007622
0.00445
0.001476
0.5793
0.2867
0.04328
0.5666
5.023e-05
0.3219
0.009822
0.02128
0.00187
5.748e-06
0.3974
0.3819
0.03023
0.00141
0.001429
3.791e-06
0.009693
0.001038
0.04075
0.01817
0.04466
0.001425
0.001291
0.001951
5.619e-05
0.01515
0.001422
0.0002904
0.0004665
0.03047
0.0009807
0.03458
0.001014
0.004687
1.443e-05
0.001278
0.003657
0.02052
0.0002155
0.0002235
0.0006413
0.01247
0.006098
1.148e-05
0.004331
0.001554
0.002317
0.0008197
0.01517
0.0134
0.003094
2.405e-05
0.01912
0.0002544
0.2193
0.5601
0.0005422
1.746e-05
0.0003192
0.4446
0.0004807
0.03355
0.5896
0.01364
0.004552
0.0006123
0.002644
0.001025
0.001653
0.001055
0.5026
0.1623
0.004949
0.01906
0.01023
0.2487
3.507e-05
0.004386
0.0003784
0.5602
0.5571
0.5893
0.001899
5.911e-05
0.05582
0.001547
0.004049
0.4244
0.01779
0.1306
0.3273
0.5582
0.5708
0.5702
0.007246
0.000172
0.000661
0.06233
0.0006416
0.005103
0.0159
2.76e-05
1.594e-05
0.008992
0.0004631
0.004159
9.711e-05
0.06095
0.0002898
0.2636
0.05232
0.001529
0.0002095
0.003148
0.001731
0.0002503
0.553
0.001042
0.0001187
0.0001976
0.0007464
0.5825
0.01442
0.002831
0.001296
0.0003709
1.941e-05
0.0009924
0.1496
0.5763
0.002955
0.002692
0.003008
0.02722
0.002615
0.1509
0.1902
5.336e-06
0.0005897
0.001604
0.0002579
0.008734
0.02572
0.4794
2.301e-05
0.0003527
1.406e-05
0.5686
0.02428
0.1355
0.5727
0.3788
0.0001682
0.4222
0.001438
0.0007654
0.0001699
0.0002922
0.007319
0.0006081
1.849e-05
0.0001316
2.454e-06
0.02791
0.004404
0.0008011
0.0001387
0.01327
2.199e-05
1.984e-05
0.05824
0.5752
0.02416
0.0001323
0.01731
0.02058
0.0007995
0.006652
0.0003816
0.005204
4.01e-05
0.5908
0.001352
5.81e-05
0.003839
0.005496
0.001137
0.01293
0.04323
0.001043
7.612e-05
2.238e-07
0.0001144
0.001236
1.192e-05
0.0001834
1.691e-05
0.003504
0.3837
0.000236
0.0003784
7.89e-07
0.001268
3.669e-05
4.81e-05
0.001574
0.04451
5.784e-07
0.004164
0.3775
0.01178
0.6251
0.1211
0.005275
0.5288
0.00886
0.5798
0.004266
0.0003916
0.0003642
0.006054
0.5639
0.002789
0.006161
2.481e-06
0.001481
0.01368
0.0002865
0.5787
0.01133
0.411
0.01775
0.02624
0.000422
0.003293
0.4087
0.003116
0.003861
0.02517
0.002284
0.00427
0.03548
0.0004325
0.004034
0.004712
0.002312
0.000566
0.004221
1.146e-05
0.01198
0.147
0.4059
1.104e-05
0.002265
0.568
0.0004931
0.0005074
0.001482
0.01755
0.04103
5.676e-06
0.5943
3.741e-06
0.001146
1.432e-05
0.0005892
0.3319
0.0008542
0.006187
0.0007624
0.5856
3.983e-06
0.5103
0.01459
0.01074
0.6115
0.002577
3.913e-06
0.01122
6.53e-05
0.4524
0.001668
0.009142
2.175e-05
0.01966
0.3426
0.002272
0.3405
0.3103
1.622e-05
0.2426
2.202e-05
0.0002496
0.008596
0.000909
0.5726
0.4109
2.83e-05
1.595e-05
3.708e-05
5.983e-05
2.487e-06
0.5717
0.0002699
0.5869
0.00808
0.02563
3.803e-07
0.5897
0.008484
0.0003157
0.5154
0.5718
0.6185
0.5038
0.5535
0.002321
0.5894
0.07162
0.006095
0.01185
0.01033
0.008938
9.323e-05
0.001411
7.317e-05
0.4053
0.0003955
0.00595
0.5927
1.935e-06
0.6377
0.0004984
7.619e-05
0.003826
0.36
0.3601
0.5717
5.408e-05
0.0001105
0.4432
0.004487
0.004412
0.00831
1.995e-05
0.0001636
0.01654
0.3136
0.001191
0.0009173
0.00231
0.006522
0.3776
0.0004781
0.06844
0.02569
0.1023
0.0003148
0.0006584
0.6625
0.04712
0.009665
0.003969
0.01136
0.0001041
0.4464
0.009096
0.005938
1.643e-05
0.002403
0.5712
0.0009558
0.0002212
0.4508
3.593e-05
0.06732
0.0001479
0.00622
0.01656
0.0007637
0.001766
0.0005633
0.4039
0.0004507
0.0006056
0.5303
0.06564
1.175e-06
0.004302
0.001099
0.02202
0.004671
1.698e-05
0.5396
0.001993
0.003278
0.0001765
0.563
0.4682
0.005705
0.004716
0.0003272
0.1279
0.0007795
0.008671
0.002678
0.006774
0.003955
0.4259
2.502e-05
0.6493
0.002657
0.6375
3.902e-05
0.04396
0.000214
0.5713
0.1328
1.094e-05
0.0004379
0.0009415
0.001916
0.0006406
0.0003626
0.004074
0.002058
0.5734
0.01434
0.3871
0.322
0.0001774
0.02135
0.003826
0.002787
0.3974
3.021e-05
5.324e-05
0.005491
0.002676
0.4165
0.0004888
0.04469
0.007708
0.0009614
0.0002236
0.0004841
1.928e-05
1.304e-05
2.312e-05
0.0002145
0.0003349
0.004868
0.02133
0.002559
0.0001978
0.3663
1.12e-05
0.0001658
0.0001794
0.003157
0.02585
0.005131
0.05828
0.01402
0.4983
0.3826
0.01911
0.134
0.4106
0.4178
0.003339
0.0002543
0.3885
0.5388
0.04805
0.5719
0.005373
0.009286
0.0002136
0.001652
3.489e-07
0.001855
0.02315
0.0001067
0.01333
0.005926
0.5841
0.0001868
0.1077
0.0002127
0.0003202
0.0008133
0.5837
0.005807
0.0003293
0.0001052
0.03849
0.002605
0.0005472
0.004481
0.0008618
0.549
0.0002639
0.4577
0.001336
0.005843
0.05859
0.03808
0.00263
0.6172
0.06744
0.02601
0.001117
0.0102
0.0002471
0.0002287
4.546e-06
0.4715
0.2108
1.555e-06
0.3968
0.6008
0.03601
0.007371
0.002552
1.99e-05
1.829e-05
0.5814
0.584
0.003119
0.00166
2.242e-05
0.5752
2.099e-05
0.4021
0.06105
2.09e-05
0.0006965
0.2996
0.0141
0.0008293
0.4993
1.062e-05
3.123e-05
0.5717
0.0006259
0.001064
0.006793
0.01551
1.058e-05
0.0002677
1.628e-05
0.000295
0.586
0.005459
0.00104
0.008749
0.006249
0.005652
1.186e-05
0.04429
0.0003223
0.5151
0.01943
0.04043
0.008592
0.004143
0.00392
9.842e-06
0.3423
0.001014
0.283
0.5524
0.5785
0.0002738
1.853e-05
2.506e-06
0.004737
0.1905
0.0007919
0.00903
0.02302
9.913e-06
4.309e-05
8.443e-06
0.3689
0.006967
0.001715
0.0002278
0.0232
0.005631
0.4481
0.0001472
0.0002963
1.385e-06
0.0004231
1.078e-05
0.0267
0.00734
7.4e-05
0.1074
0.009564
0.5614
0.009428
0.02319
0.004527
1.425e-05
7.451e-05
3.049e-05
5.777e-05
0.0006771
9.13e-06
0.001628
0.0004406
0.0132
0.004446
0.005741
0.0452
7.329e-05
0.008745
0.365
0.006832
0.193
0.0007949
0.0838
0.06161
0.0004153
0.001557
0.003319
0.0008059
0.0006229
0.001345
0.5681
0.0028
0.5666
5.321e-05
0.00133
4.558e-06
0.0007114
8.766e-06
8.216e-05
7.786e-06
0.004131
0.01022
0.4175
1.896e-05
0.001018
0.00363
0.009814
0.002752
0.01315
0.002625
1.691e-05
0.01271
4.318e-05
0.5644
0.5728
0.1924
0.001221
0.3369
0.4813
0.002366
0.003124
0.08952
0.0001554
4.437e-06
3.654e-05
0.5973
0.008448
0.009467
0.002416
0.007938
0.0003794
2.591e-05
0.4374
3.647e-06
0.007271
0.2331
0.0001587
0.4003
0.58
0.0003398
0.001012
0.002441
0.0004994
0.51
0.001552
0.01858
0.004584
0.6073
1.703e-06
0.0001497
0.6365
0.02595
0.411
0.509
0.01439
0.00155
0.3967
0.3214
0.3192
0.6239
0.02342
0.0004082
0.0003524
0.001361
0.009544
0.0005858
1.246e-05
0.5132
0.009953
0.0006675
0.003778
0.5663
0.0003484
1.102e-06
0.003023
0.4156
0.01393
3.202e-05
9.722e-05
0.003097
0.007409
0.005681
0.01478
0.007891
0.001884
0.5255
0.007129
0.5717
0.0003726
0.001585
0.0281
0.006504
4.565e-07
1.212e-05
0.317
0.5803
0.002349
5.396e-05
0.5008
0.001273
0.2445
0.4166
0.2344
0.001329
0.001863
0.1389
0.005349
0.1028
1.857e-05
0.6345
0.001694
0.5842
0.04971
0.00341
0.2855
2.809e-05
0.0001259
0.006002
1.194e-05
0.003184
2.326e-05
0.009227
7.952e-05
0.01151
6.526e-05
0.001459
0.001181
0.0002226
0.003839
0.0001719
0.08431
0.567
0.3406
3.808e-07
0.5316
0.06219
0.0001696
9.776e-06
0.001547
0.001807
0.01804
0.03383
0.5664
6.501e-05
2.028e-05
0.01241
0.003469
0.6327
0.0137
0.001317
0.005265
0.0001652
0.001491
0.001112
8.866e-06
0.0009277
0.04851
1.846e-05
0.0006201
0.00487
8.254e-06
2.814e-07
0.02247
6.845e-06
0.3874
0.0006743
0.4093
0.412
0.0003037
0.001949
1.419e-05
0.05591
7.158e-05
0.001451
0.004915
0.0004245
0.003959
0.0002968
0.008519
0.0001647
0.001815
0.1198
0.001911
0.19
0.002174
0.4805
8.763e-06
0.01722
2.436e-05
0.002612
0.0007845
0.1625
0.5867
0.0003532
0.001234
0.0005746
0.001001
0.001768
0.4177
0.02388
1.833e-05
0.05728
0.001437
0.003922
7.491e-05
4.291e-05
0.0002534
0.003026
0.5558
0.0003609
1.61e-06
0.04149
0.001138
6.257e-06
0.6374
0.0006067
0.04496
0.0001271
0.0004265
0.398
0.6034
0.574
2.558e-06
0.003253
0.01926
8.235e-05
0.004198
2.797e-05
0.2972
0.1184
0.5753
0.001424
0.3779
0.00849
9.451e-06
7.055e-05
0.007195
0.1902
0.6184
3.623e-06
0.001134
0.4086
0.007216
0.002374
0.0002715
0.004323
0.0005744
0.0008476
0.003902
0.0004261
0.001533
0.4173
0.0928
0.002365
6.072e-05
0.5281
1.618e-05
0.003112
2.476e-05
0.001536
0.01389
0.1513
0.649
0.009947
0.0003123
0.0008583
0.01188
4.903e-05
0.0004425
0.0002601
0.516
3.802e-05
1.931e-05
0.1118
0.4352
4.997e-05
0.5763
0.5312
0.003176
5.241e-05
0.004404
1.423e-05
0.001248
2.375e-05
6.609e-05
0.5844
0.02696
0.4842
0.005111
0.00268
2.118e-05
0.001003
0.5017
0.004394
1.35e-05
0.0002783
0.001642
2.137e-05
0.0006343
0.0001298
0.3189
0.0001235
0.2846
0.3336
0.1152
0.03857
0.0008222
0.001345
6.757e-06
7.775e-06
4.429e-05
0.01069
0.0003308
0.002409
0.007118
1.781e-05
0.001219
0.002198
0.007133
0.2798
0.5881
0.412
1.636e-05
0.5737
0.00117
0.000219
0.002226
6.436e-05
3.41e-05
0.007601
0.0004157
0.0001635
0.0005986
0.5481
1e-05
0.005204
0.2427
0.4627
0.08137
3.888e-05
0.01307
0.005613
0.0002441
0.005446
0.008339
0.001515
5.253e-05
0.0002787
0.3874
0.0008529
0.2885
0.3899
0.03074
0.001103
0.005598
0.5565
0.001707
0.002618
0.0002859
0.005605
0.5776
0.5673
0.006425
0.000375
0.0004117
0.1682
0.0009942
6.248e-05
1.625e-05
0.0008488
0.3965
0.0001722
0.0002815
0.0007873
0.4523
0.0008781
0.001943
0.0006953
0.004146
0.0004244
0.002621
0.5806
4.946e-05
0.002327
0.002823
2.06e-05
0.3667
0.003346
0.08949
0.5703
0.004661
0.0004017
0.001446
0.0006224
0.03544
0.0001128
0.05419
0.01645
1.38e-05
0.001931
0.00436
0.004472
0.1988
0.3813
0.00317
0.004495
4.571e-05
0.001692
0.002847
0.001799
3.803e-07
0.6004
0.6021
0.001387
0.00165
0.0009987
2.27e-05
0.007878
0.01338
0.04859
0.02533
0.00042
0.01231
0.0008767
1.808e-05
0.01174
1.826e-05
0.1889
0.5642
0.001348
0.07009
0.008804
0.002186
0.4366
0.05537
0.01255
4.417e-05
0.001907
0.3952
0.5797
0.52
0.002285
0.6653
0.2168
0.3526
4.876e-06
0.005691
0.0004971
0.0008404
0.0003333
0.001434
0.001273
0.0009212
0.0009983
1.588e-05
0.006064
0.00239
0.07077
0.01114
0.5846
0.000593
9.423e-05
0.002786
3.22e-05
0.0001032
0.003136
0.00109
0.00152
0.0005257
0.00893
0.0008256
0.2972
0.6004
0.004467
0.001869
9.482e-05
2.224e-05
0.0001585
0.005363
0.3156
0.000201
7.965e-05
0.2952
0.002373
0.0009552
0.003774
0.4151
0.6035
0.0004319
5.152e-05
0.002625
0.568
0.00644
0.6237
0.07966
7.177e-06
0.0001063
0.02998
0.002294
0.01483
9.149e-05
0.01113
5.573e-06
0.001377
0.00116
0.585
0.0009634
0.445
0.001284
0.3467
0.008847
3.811e-06
0.1106
0.573
0.002054
2.005e-05
4.592e-05
0.05875
3.501e-07
0.1164
0.004136
0.006976
0.01528
0.573
1.627e-05
0.001034
0.01373
1.746e-05
5.691e-05
1.45e-05
0.5763
0.004657
7.507e-06
0.01163
0.5917
0.03479
0.5328
0.0002988
0.001799
0.0001854
0.0001834
0.006084
0.04479
0.5806
2.206e-05
0.004434
0.001561
0.5761
0.5049
1.884e-05
0.0009801
0.003495
5.348e-05
0.004353
0.03884
0.000124
0.5942
0.0004044
0.001724
5.44e-06
0.0001627
0.5178
0.001488
0.623
0.5087
0.004943
0.001734
0.002644
0.001941
5.521e-06
0.00339
0.001107
2.349e-05
0.008239
0.00137
0.0002344
0.002805
0.0009013
0.001862
0.002543
0.03459
0.0001267
0.595
0.0006495
0.526
1.816e-05
0.001308
0.5858
7.836e-05
0.01334
0.008666
5.313e-05
0.0002074
0.018
5.209e-05
0.002036
0.3006
0.00883
0.001554
0.0009612
0.0004034
0.001139
0.005918
0.015
0.0001895
0.01104
0.5692
1.524e-05
0.001877
0.0009751
0.0006149
0.00068
0.04517
2.395e-05
0.006816
0.0001858
8.131e-06
0.004281
0.0004429
0.0003295
0.0004477
4.565e-05
0.02202
0.000686
0.4526
0.002909
0.001139
0.0008877
0.08454
0.001461
1.598e-05
0.001003
0.0002891
0.0001738
0.001041
0.003058
0.007039
0.0136
2.521e-05
0.09514
0.005926
0.0002872
0.4963
0.001539
0.5245
5.517e-05
0.0001152
3.939e-07
0.005067
2.633e-07
0.002035
0.00115
1.826e-05
0.01057
0.006675
0.0004628
2.215e-05
0.008152
8.572e-07
0.000123
0.001922
0.004303
0.001018
0.004379
0.001784
0.001756
7.936e-06
1.645e-05
0.5097
0.005463
0.1346
0.0001908
0.0003348
0.5641
0.0003725
0.001322
0.404
0.07722
0.5688
0.001319
0.5774
0.01887
0.0009032
0.000336
0.007641
0.0003875
0.1985
0.04147
0.004311
1.49e-05
0.0003347
0.0007492
0.0004123
0.001612
0.001437
0.5488
0.5819
0.667
0.001328
0.3616
2.347e-05
0.001047
0.006515
0.05148
0.004231
0.001773
0.000465
5.665e-05
0.6265
0.3858
0.0005847
0.007657
0.003157
0.001349
0.4356
0.2851
0.4191
6.685e-05
0.001421
0.01105
0.001371
0.00464
0.0001978
0.003335
0.2657
0.0122
0.01754
0.0008469
6.225e-05
0.001681
0.0002765
1.569e-05
0.006619
0.6054
0.1042
0.003863
0.00179
0.001769
0.0004543
0.04126
5.437e-06
2.143e-05
0.5808
3.94e-06
0.0001234
0.007431
0.6024
0.5838
0.02284
0.03696
0.001144
6.888e-05
0.005267
0.00242
0.006809
0.000871
0.4997
8.483e-06
4.376e-05
0.00163
0.3316
0.002504
0.1036
0.0006365
0.0002069
4.106e-05
0.004947
0.002363
4.936e-05
0.009652
0.00418
2.669e-06
0.005083
0.4208
0.004622
0.006378
0.005413
0.4007
2.135e-05
0.3654
0.001048
3.339e-05
0.01334
0.05899
1.247e-06
8.272e-05
0.5708
0.02186
2.466e-06
0.2814
0.3928
0.5802
0.0002096
0.0009259
4.366e-06
0.003717
0.5803
0.5937
0.01683
0.0008726
0.0009708
0.005289
0.0004759
0.002952
0.000108
0.0006483
1.854e-05
0.4876
0.0001894
0.001635
0.183
0.003216
0.0005471
2.306e-05
0.004869
0.001977
0.1529
0.000266
0.0003078
0.3107
0.00602
0.001102
0.0006111
0.5553
0.0006837
7.824e-06
0.04892
5.872e-05
0.001381
2.365e-05
4.464e-05
0.001665
0.0002342
1.977e-05
0.1546
0.5817
0.5705
0.03784
0.0003324
0.0002541
5.266e-05
0.3879
0.01118
0.0009249
0.4117
0.1024
0.00917
0.003782
0.5743
0.179
6.89e-06
0.02286
0.01829
0.1305
0.003702
0.0009718
0.0001434
0.0002985
0.00486
0.6379
0.5469
5.182e-05
0.01423
0.5164
0.001998
0.02369
0.1925
0.005578
0.002298
5.04e-05
0.003752
5.265e-06
4.71e-06
0.06288
0.5822
0.0002661
0.006552
0.5677
2.333e-05
5.774e-05
0.07787
6.545e-05
4.149e-05
0.009496
0.008362
0.4591
0.0007492
0.0003065
0.00578
0.5062
0.001272
0.5405
7.449e-06
0.3738
0.5698
0.00692
0.002338
1.928e-05
0.2907
0.1628
0.01139
1.675e-05
0.002097
0.003514
0.5968
0.001674
0.0009941
0.001433
0.002004
1.932e-05
0.001192
2.574e-05
3.843e-05
0.00219
0.004524
9.392e-05
0.001303
0.006147
6.522e-05
0.004351
0.01259
0.08657
0.2383
0.0003001
0.3112
0.004758
0.002026
1.216e-05
0.258
0.5725
0.00202
0.3002
0.0002723
0.0004594
0.000482
0.001369
0.4892
0.3024
0.01401
0.004932
0.0321
0.000236
0.5736
0.538
0.001001
0.2565
0.003008
0.5764
0.0001217
0.415
1.987e-05
0.00197
0.4459
0.3969
0.001145
0.03515
1.603e-05
0.001527
0.5558
4.183e-05
0.005828
0.0003279
0.0002602
2.985e-05
1.899e-05
0.01819
0.507
0.5644
1.486e-05
0.0006361
0.003331
0.006768
0.4612
1.394e-05
0.0009383
0.002871
0.001853
0.0003535
0.000672
0.001502
2.026e-05
0.004155
0.0007537
0.01298
0.000262
0.05961
0.0004095
0.3248
0.002475
0.5866
0.0001545
6.266e-05
0.5824
0.4818
1.477e-05
0.00352
0.5692
0.006337
1.642e-05
0.00199
0.0005948
0.4807
0.05537
0.001455
0.003109
0.0002937
0.002388
0.001978
0.0005981
3.518e-06
0.6064
0.001412
0.007056
0.01939
0.001976
0.2972
0.002912
0.5037
0.03489
0.5329
0.003361
0.0009265
8.641e-05
0.01041
0.5982
0.5066
0.0006308
2.214e-05
9.227e-07
0.01215
0.3486
0.3448
0.001312
0.0162
0.4097
0.008933
0.0001963
0.002551
7.434e-06
0.002183
0.3545
0.001169
7.459e-05
0.01477
0.0002613
1.141e-05
0.005669
0.001001
0.001683
0.003627
0.0003982
4.392e-05
0.0004268
0.004731
0.0003642
0.01398
0.007306
1.156e-05
0.2154
0.1924
0.001932
0.509
0.07301
0.0003058
0.03093
0.006085
5.583e-06
0.6427
0.05421
0.002513
0.006232
0.0006553
0.3671
0.0003152
0.005262
0.004223
0.00115
1.132e-05
0.03097
1.867e-05
8.557e-05
0.02227
0.004058
0.542
0.02163
0.000307
0.000654
0.02486
0.03486
0.005693
0.5659
0.0007526
0.02553
4.707e-06
0.009307
0.3145
0.006684
3.272e-05
0.0005223
0.6345
0.1896
0.003532
0.5811
1.805e-05
0.005668
0.002
0.001871
0.4924
0.0001622
0.0002385
0.0001209
7.487e-05
0.001091
1.512e-05
0.3146
1.452e-05
0.0003694
0.0003847
0.5802
0.002516
0.003368
6.347e-05
0.001859
0.5295
0.004406
0.00382
0.6518
6.615e-07
1.982e-05
0.0009398
0.2574
0.07032
0.002837
1.057e-05
0.02224
0.001998
0.002668
0.0001394
0.04462
0.002823
0.0002802
0.01292
1.4e-05
0.0003772
0.005788
0.2898
0.00206
0.01775
0.04773
2.564e-05
0.000222
0.1533
0.01924
0.004705
0.005388
0.001326
2.861e-05
0.01034
0.01479
0.001558
0.005252
0.0005951
0.01062
0.0008376
0.0001167
0.5337
0.0003532
0.002809
0.001894
4.244e-05
0.0003292
0.00135