/*--------------------------------*- C++ -*----------------------------------*\
| =========                 |                                                 |
| \\      /  F ield         | OpenFOAM: The Open Source CFD Toolbox           |
|  \\    /   O peration     | Version:  v2012                                 |
|   \\  /    A nd           | Website:  www.openfoam.com                      |
|    \\/     M anipulation  |                                                 |
\*---------------------------------------------------------------------------*/
FoamFile
{
    version     2.0;
    format      ascii;
    class       volScalarField;
    location    "5";
    object      p;
}
// * * * * * * * * * * * * * * * * * * * * * * * * * * * * * * * * * * * * * //

dimensions      [0 2 -2 0 0 0 0];


internalField   nonuniform List<scalar> 
100503
(
-0.3407
-0.3459
-0.2168
-0.1951
-0.3443
-0.384
-0.2167
-0.8681
-0.3364
-0.2621
-0.901
0.7195
0.6798
0.5294
-0.6529
0.6702
0.5997
-0.9015
-0.1098
0.5862
-0.8575
-0.9303
-0.3597
-0.8753
-0.1833
-0.9029
-0.8856
-0.7789
0.3974
-0.2366
-0.3364
1.169
1.17
0.1438
-0.5593
0.5766
0.1509
-0.347
0.0009588
0.4019
0.1247
0.04844
-0.2651
0.4291
-0.7857
-0.2578
0.0954
-0.7941
0.167
-0.7549
-0.1891
0.4381
0.7287
0.9943
0.4284
-0.8522
0.03443
-0.2589
0.5534
-0.2661
-0.05469
-0.6608
-0.2427
0.5196
-0.8868
0.3927
0.0265
-0.4435
0.5174
0.8864
0.3164
-0.1004
-0.403
-0.7689
0.1359
-0.005211
-0.248
4.795e-05
6.878e-05
0.5165
-0.718
-0.2488
0.04819
0.04975
-0.2999
0.00112
-0.2654
-0.479
0.5522
1.642
0.7097
-0.3647
-0.4945
0.03918
0.04229
-0.06154
-0.399
0.0425
-3.559e-05
0.0001224
-0.4207
-0.2166
0.2513
-0.1773
0.745
0.02512
-0.5413
-0.2473
0.3285
0.1422
0.5552
-0.5617
1.128
0.1155
-0.2769
-0.2407
-0.2613
0.3602
1.106
0.04888
-0.3037
-0.1022
-0.243
1.134
1.245
0.03959
0.1408
0.4782
0.2181
-0.0777
0.6609
-0.5261
-0.003173
0.04071
-0.7043
0.008833
-0.05655
-0.01013
-0.2621
0.08981
-0.08107
0.9197
0.09385
-0.007831
-0.2435
-0.03375
-0.05301
0.06064
0.05846
-0.007731
-0.8806
-0.6915
-0.03015
0.0001633
0.338
-0.2499
0.1641
-0.4216
0.09681
-0.2519
0.03813
-0.8159
-0.334
0.3436
-0.001027
-0.1205
1.009
-0.02952
-0.08859
-0.345
0.3185
-0.6145
0.3917
1.069
0.0408
-0.1233
0.1637
0.0003517
0.4546
-0.0276
0.5429
-0.2829
0.3552
0.3703
0.4561
0.05499
-0.002998
-0.2644
-0.002789
-0.2405
0.6136
0.4011
-0.4179
0.04173
-0.4635
0.05086
0.04364
1.864
0.01001
-0.8464
-0.2259
0.4836
0.4905
0.5735
-0.7609
-0.2439
0.7382
0.05573
0.6367
0.3275
-0.2204
-0.02864
-0.8934
-0.2579
-0.2828
0.1453
0.6226
0.02577
0.2068
0.02182
-0.3681
0.1619
0.00114
-0.247
-0.3364
1.905
1.652
-0.2659
0.1725
0.01281
0.3024
0.129
-0.8847
-0.3518
0.05151
0.2463
0.9703
-0.05095
-0.8663
-0.4532
-0.03951
-0.2478
0.6503
-0.07775
-0.0206
0.0002674
-0.3021
0.03852
1.888
1.647
0.04021
-0.2582
0.02647
0.06784
0.05913
-0.3111
-0.003693
-0.1422
-0.2775
0.4973
-0.03496
-0.3347
0.0001518
0.09964
-0.5483
-0.6177
-0.1049
-0.2575
0.0006732
0.3659
1.075
0.3822
0.2909
0.01398
0.9643
1.65
0.2386
0.1639
0.6133
-0.8742
-0.1804
0.1852
0.005205
0.1639
-0.7031
-0.009052
0.9599
0.006352
-0.005279
0.1104
-0.4126
0.2153
-0.09373
0.5898
-0.2392
-0.3346
0.315
0.001049
0.09251
-0.4226
0.0554
-0.3645
0.02053
0.3968
0.3602
-0.6769
1.003
0.05053
0.01298
0.03569
0.553
0.2186
-0.9074
-0.7106
-0.249
0.3624
0.3435
0.1601
0.001007
-0.362
-0.03095
-0.5909
0.8868
0.3204
-0.2434
0.006953
-0.2651
0.9924
0.3875
-0.2872
-0.3639
1.372
-0.6186
0.0005641
-0.03033
0.1707
-0.2282
-0.007511
0.02027
0.03375
0.000477
0.009619
0.8604
-0.4687
-0.05632
0.0004574
-0.245
0.15
-0.905
-0.03027
0.09683
0.09014
-0.16
0.1111
0.2064
0.0005723
0.0001032
0.01402
0.4407
0.4954
0.243
0.6527
-0.4388
-0.07479
0.2901
-0.2347
-0.06183
-0.2039
-0.2306
0.004774
-0.2218
0.7075
-0.6891
0.03994
0.0651
-0.7843
0.1151
0.03917
0.4745
-0.6194
-0.09922
-0.2957
-0.01727
0.1781
1.855
0.01705
0.7808
0.5263
-0.05068
0.9706
0.02673
-0.2434
0.07228
0.04792
0.5839
-0.08604
-0.6621
0.01696
-0.8144
-0.05028
-0.01278
1.103
-0.2425
-0.4356
0.1048
0.1153
-0.01091
-0.007877
-0.2415
-0.2149
0.2656
-0.3673
0.6887
-0.5247
-0.5664
-0.002956
0.04203
0.7695
3.902e-05
-0.3319
0.0221
-0.8514
-0.06471
0.498
-0.8558
0.1502
-0.2708
-0.05007
0.04181
0.03481
1.755
1.082
0.01593
0.0252
-0.07599
0.02213
-0.4912
-0.4226
0.02339
-0.2252
0.3596
0.2273
-0.319
-0.1192
0.2897
0.1367
-0.6181
0.01056
-0.005122
-0.3679
0.2782
1.107
-0.2579
0.02365
-0.2597
0.6363
-0.003213
0.2326
-0.5458
0.03753
-0.01853
0.004819
-0.6592
-0.02986
0.0003901
-0.06964
0.1601
-0.2962
0.2969
-0.4842
-0.4199
0.103
-0.2431
-0.002197
0.002415
-0.0804
-0.1138
0.283
-0.25
0.108
0.1701
-0.5526
0.173
0.1552
0.004304
0.4659
-0.09525
-0.002834
0.04333
0.01563
0.1983
0.3218
0.04119
0.02126
-0.01336
0.02703
0.2708
-0.06043
-0.1262
-0.0725
0.0721
0.04889
0.03158
-0.2054
-0.3054
0.1394
0.2663
0.4391
0.02085
-0.2725
0.0004164
0.4562
-0.7354
0.7686
0.001479
0.05613
0.3048
-0.26
-0.2447
0.3297
0.5939
-0.1651
-0.302
0.09691
-0.001198
0.3999
0.1294
0.004383
-0.03141
-0.4963
-0.6383
0.5447
-0.4006
0.001214
-0.03134
-0.5247
0.4266
0.001523
0.2774
0.05127
-0.1886
0.1126
-0.2523
0.6927
0.2353
-0.5011
0.002152
0.4969
0.04368
-0.5765
0.1094
-0.03924
0.02366
-0.3692
-0.5894
-0.6258
-0.3997
-0.2523
0.1086
0.1577
-0.4992
0.272
-0.08516
-0.2487
-0.3084
0.235
-0.02943
-0.09386
0.03579
0.004443
0.05388
-0.4902
0.08946
0.01895
-0.8237
-0.2649
0.03543
0.6613
-0.2446
-0.002742
0.3546
0.0005881
0.1422
-0.5976
0.0003195
-0.5188
-0.2493
-0.0513
0.000509
0.2699
-0.2425
-0.6523
-0.3208
-0.007712
-0.2852
-0.6192
-0.04047
0.2865
0.01056
-0.5815
-0.004539
-0.01033
-0.252
0.2156
0.4662
0.2461
0.5994
-0.002764
0.01682
-0.175
-0.01438
0.001558
1.406
-0.1955
0.3337
-0.091
0.09731
-0.7287
0.03826
-0.001164
0.4424
-0.1176
0.1748
0.2648
-7.735e-05
-0.3301
-0.3111
-0.2674
0.1854
-0.6281
1.644
0.02062
-0.2721
-0.3249
-0.54
0.03647
-0.8218
-0.002727
0.3663
-0.2985
0.0347
-0.4837
0.0856
0.07356
0.8999
0.2774
0.1505
-0.06911
-0.01733
0.05118
-0.6904
0.173
-0.005804
0.01774
0.1752
-0.00478
-0.3679
0.03452
-0.013
-0.3895
0.03541
0.002596
0.4671
-0.6962
0.01842
0.0004553
-0.5289
-0.2424
-0.03073
0.01663
-0.3402
-0.003557
-0.003789
0.09634
0.0006444
-0.262
1.792
-0.0129
1.455
0.03638
0.007341
-0.3765
0.1561
0.02356
0.5256
-0.2959
-0.5721
0.2216
-0.2413
-0.4738
0.02627
0.5655
0.597
0.04643
-0.6768
0.4399
0.09166
0.06338
0.02994
1.181
0.7452
1.026
-0.003539
0.4509
-0.09319
1.227
1.243
-0.01353
0.56
-0.3174
0.1079
-0.1539
-0.1304
0.00265
0.2667
-0.4514
1.704
0.01039
-0.06322
0.0295
1.137
0.9707
0.02003
0.002021
0.03539
0.07853
-0.2486
0.348
0.684
-0.005486
0.08743
0.3307
-0.2429
0.6269
0.006313
0.01244
0.02467
-0.8325
0.002627
0.06069
0.6308
0.2927
0.2234
0.1218
-0.2645
0.6593
0.4206
-0.001525
-0.8563
0.001109
-0.354
0.253
0.005998
-0.8041
-0.1576
0.3387
-0.5038
-0.04878
0.761
0.363
0.03623
-0.08427
1.377
0.7837
-0.8205
0.5739
-0.6722
-0.02406
0.08753
0.2922
-0.2992
-0.2072
-0.2139
0.01473
-0.01919
0.002379
0.03478
0.002807
0.3614
0.7806
-0.3127
0.8649
0.2631
0.1697
0.7622
0.2966
-0.368
-0.4315
0.008516
0.001654
-0.2862
-0.369
0.001433
-0.1163
0.04967
0.09312
0.1216
-0.2458
-0.6476
0.06204
-0.3214
1.012
-0.5983
0.3946
1.905
0.3818
-0.279
0.006819
0.3497
0.6268
0.02291
1.54
0.002716
0.02487
0.2019
-0.2539
-0.4322
-0.1424
0.2486
0.0005358
-0.4102
0.005439
0.03577
1.075
0.2081
-0.02104
-0.3138
0.6267
0.7717
-0.03933
0.02428
-0.193
0.008709
1.5
-0.3442
0.6216
-0.2403
0.09522
-0.6517
-0.3256
-0.4497
-0.8775
0.2401
-0.4616
-0.85
0.8685
-0.8058
0.02805
-0.24
0.2888
0.05667
-0.03557
-0.5913
-0.01298
-0.03157
0.4204
-0.2708
-0.02526
0.00133
-0.02699
0.4962
-0.1438
-0.3412
-0.2553
-0.242
-0.7044
-0.07912
0.09091
0.2115
-0.002307
0.001513
0.001614
0.1918
0.2912
0.03076
-0.6107
-0.3282
0.7466
0.002144
0.02357
-0.03598
-0.01898
0.9959
0.2072
0.2627
0.004218
0.002947
0.01019
-0.2413
-0.2475
-0.4862
-0.2955
0.3331
-0.05514
0.0002783
-0.6818
-0.5341
0.1415
0.9904
-0.005496
0.1684
-0.0009184
0.09307
-4.995e-05
0.2486
-0.6636
-0.256
-0.2992
0.3628
0.6158
0.1783
-0.2417
-0.3003
0.7855
-0.1444
0.03621
0.3349
0.3066
0.09827
-0.4871
0.1164
0.005533
1.79
-7.087e-05
0.08256
0.6808
0.0002212
0.1589
0.0918
0.2296
0.4454
0.007936
0.007567
-0.02127
-0.1313
-0.3455
0.01297
-0.4898
0.1374
-0.673
-0.2437
0.2442
-0.3339
0.1063
-0.04206
-0.7032
0.03298
0.5032
-0.3099
0.07005
-0.01028
0.006035
-0.4024
-0.2489
-0.2862
-0.08562
-0.3042
0.4472
0.09719
-0.6169
-0.3303
0.4933
-0.3557
-0.4206
-0.3224
-0.2505
0.5233
0.1875
0.3456
-0.0007839
-0.2433
-0.7128
0.2797
-0.2502
-0.09132
-0.2942
0.134
-0.3421
-0.2298
1.011
0.02568
0.2127
0.08324
-0.2618
0.07111
0.8514
-0.3322
0.0168
-0.2473
0.01566
1.529
-0.3102
0.1178
-0.2987
0.4679
-0.2669
6.738e-05
-0.0001076
-0.002681
-0.6016
-0.2444
0.7282
-0.8064
0.2816
-0.06876
-0.3509
0.007948
0.3003
0.1017
-0.05255
-0.6719
0.08618
0.8259
0.2219
-0.886
0.04682
-0.1114
0.03603
0.8339
-0.2864
0.02305
-0.00543
-0.7352
0.3576
0.07898
0.1753
0.3344
0.2502
-0.4776
-0.7512
0.02702
0.1472
-0.4121
0.0001985
0.07449
0.1045
-0.2639
-0.2534
-0.2706
0.2435
-0.1489
0.412
-0.3517
-0.09949
-0.3406
0.2208
-0.03404
0.6027
0.8293
-0.5852
-0.2744
-0.255
0.007161
0.004752
-1.864e-05
0.05251
-0.864
-0.8851
-0.1908
0.3762
0.009798
0.2942
-0.2085
0.2658
0.2238
0.6286
-0.06549
-0.02401
0.1177
0.4591
0.3939
0.06626
0.1275
0.0557
-0.2753
-0.2862
0.0346
-0.3284
1.542
0.02951
0.5044
-0.5522
0.9231
0.217
-0.202
0.05869
-0.2085
-0.3637
0.3241
0.3656
0.02513
-0.4166
0.8295
0.1164
0.003852
0.1519
-0.2503
-0.4047
-0.1053
-0.3983
-0.2317
0.1959
0.103
-0.07277
-0.4017
-0.4974
1.898
0.3308
0.0001603
-0.8837
0.04156
0.12
-0.3686
0.7676
-0.235
0.04713
0.9046
-0.04977
0.005007
-0.3377
0.2582
0.01095
0.09555
-0.3386
-0.302
-0.2205
-0.05338
0.0304
0.0008283
-0.8927
-0.426
-0.3387
-0.2519
0.4739
0.02444
-0.251
0.2997
-0.3394
0.127
0.1932
-0.8756
1.147
-0.007564
0.1138
-0.06984
0.4704
-0.07614
0.02702
0.1615
-0.02923
0.001183
0.6237
0.009905
0.8699
-0.7902
0.05618
0.01645
0.08232
-0.3413
-0.3141
-0.627
0.001661
-0.0004893
0.00038
0.4205
-0.2848
0.01323
0.09143
-0.005589
-0.8021
0.01601
0.02385
-0.09346
-0.408
-0.2476
0.07104
0.0003382
-0.02357
0.04681
-0.5923
-0.2708
-0.08199
0.02646
-0.03586
0.1305
0.6468
-0.2402
0.001247
0.07165
-0.03506
0.03654
-0.2463
0.1305
0.002584
-0.8673
-0.4707
0.3734
0.0003571
0.2473
0.06572
0.2981
1.06
-0.01964
-0.2413
1.037
-0.2944
-0.3249
0.6366
-0.782
0.04735
0.4722
0.3157
0.9519
-0.2805
-0.2426
0.3115
-0.0046
-0.6603
-0.3393
0.1173
0.3264
-0.05364
-0.0443
1.29
0.1741
0.1775
1.155
0.08233
0.0004467
0.02618
-0.4332
0.02166
-0.001338
-0.1909
0.09752
-0.00708
-0.3473
0.6576
0.03817
0.2364
-0.3015
-0.7807
1.111
0.0309
1.331
-0.5854
0.4437
0.203
-0.1466
0.2262
0.0392
-0.2656
0.1089
0.9835
0.2753
0.7655
0.0008761
0.2103
1.239
0.02695
0.002404
0.0007286
0.04679
0.3073
-0.2428
-0.02965
0.08835
-0.4159
0.2724
-0.3215
-0.04259
0.03463
0.07365
-0.3684
-0.6461
-0.2488
0.349
0.2205
0.9611
-0.004973
0.001155
-0.008978
-0.2453
-0.251
0.6623
0.5709
-0.265
0.03389
-0.01973
0.704
-0.2449
-0.5751
1.376
0.2004
0.3295
-0.3525
0.001199
0.08654
0.5365
-0.04165
0.0007505
-0.6506
-0.7969
0.0136
0.8324
0.06728
0.3922
0.6771
0.1841
0.05675
0.1828
0.3175
0.5049
0.1989
-0.3498
-0.03633
-0.6869
0.0012
0.1315
-0.1958
0.0001697
0.08862
-0.465
0.006705
0.2556
0.0005445
0.2484
0.009701
0.2155
0.1612
0.02895
0.0007754
-0.01861
0.6557
0.3465
0.1597
-0.4053
-0.0478
-0.2575
-0.2709
-0.2788
0.6113
-0.3257
-0.1861
0.8052
0.008343
-0.3218
0.1826
0.2688
1.346
0.00205
0.007324
-0.1921
-0.1515
-0.5197
-0.2689
-0.3142
0.01263
0.5958
0.002473
0.07097
-0.8159
0.0008248
0.044
0.8674
-0.3702
0.1848
-0.6784
-0.3149
1.309
0.07259
0.2586
0.7453
0.4923
-0.335
0.7225
-0.3651
0.8043
0.1795
-0.09595
0.4087
-0.3269
0.2622
0.5904
0.01298
-0.7867
0.159
-0.2524
0.2171
-0.4686
-0.02543
0.4438
0.009692
0.004053
-0.4734
0.04958
0.001303
1.091
-0.05519
0.3763
0.6981
0.03273
0.4955
0.1485
0.2914
-0.6352
-0.7769
-0.2159
-0.687
1.016
0.875
0.1535
1.898
-0.4403
-0.0368
0.0304
1.533
-0.1725
1.168
-0.5127
-0.009172
0.2256
0.2187
-0.5316
-0.4588
0.213
0.289
-0.3674
1.012
0.6105
1.726
0.1753
-0.02273
0.327
-0.6797
0.1894
-0.1763
0.006983
-0.004645
-0.4336
0.01167
0.0006126
-0.762
1.157
0.06024
-0.4583
0.167
-0.2394
-0.6859
0.08712
0.1378
-0.04699
-0.3379
-0.7182
-0.5497
0.05384
0.02546
-0.02773
-0.156
0.1897
-0.3414
0.2648
-0.2471
-0.002463
0.0006264
0.8968
0.0349
-0.3843
0.02363
0.01889
0.02264
0.5434
0.3977
0.388
-0.4709
0.2927
0.2025
0.1994
0.7713
-0.3418
-0.04183
0.03716
-0.4224
1.09
-0.3029
0.04184
-0.3226
0.1974
0.02975
-0.5554
0.1362
0.0003621
0.313
-0.1112
0.2919
0.02816
0.005528
0.4072
0.01397
0.3942
-0.2402
-0.1764
0.2764
-0.2589
0.06065
-0.773
-0.2501
-0.2531
0.3161
0.6084
-0.3056
0.7817
-0.3699
-0.43
0.001097
0.2141
0.3614
-0.4273
1.534
-0.01451
-0.2537
-0.1339
-0.3126
0.009762
0.3048
0.1765
0.004487
-0.3667
-0.7602
-0.4086
0.3307
0.009615
-0.1552
-0.474
0.2409
0.1337
-0.343
0.3473
1.864
0.05749
0.01064
0.2019
0.6894
0.2283
0.01705
0.0001661
0.2702
0.02363
-0.2833
0.0004856
0.01052
-0.3113
0.3835
-0.2469
0.177
0.004188
0.2803
1.304
-0.7806
-0.2429
0.08367
-0.352
0.3015
-0.334
0.3982
0.09512
1.11
-0.2527
1.462
0.2586
0.3786
-0.8532
-0.08269
-0.5151
0.02329
-0.04335
-0.2429
-0.2442
1.347
0.05633
0.2177
0.2044
-0.1808
-0.2448
0.1297
1.261
0.1974
-0.3136
-0.2884
-0.553
-0.4794
-0.3203
0.1791
0.5426
-0.06718
-0.8844
1.05
1.547
-0.009263
0.06468
0.3275
-0.1144
0.7191
-0.01934
-0.01448
-0.07396
0.02823
-0.08671
-0.07316
-0.2065
0.4624
-0.4221
0.8116
-0.7247
0.0002783
0.02941
1.586
0.3472
0.03622
0.1693
-0.742
-0.5871
0.2128
0.03381
-0.005417
0.00106
0.0757
-0.4084
-0.03874
0.06957
-0.1294
0.001664
-0.5282
-0.02045
0.2384
-0.002337
-0.005511
0.04027
-0.5509
-0.2531
-0.4124
0.1271
-0.401
-0.4951
0.3339
-0.3563
1.108
0.1372
0.08828
0.07609
0.7821
0.4321
-0.2599
0.2626
-0.05189
1.407
-0.7947
-0.2499
-0.8134
0.09715
0.01982
-0.4508
-0.2685
-0.28
1.813
0.001905
0.08332
-0.2877
-0.2733
-0.5281
-0.2415
1.392
-0.08649
-0.0003529
-0.4396
1.162
0.306
0.602
-0.09306
-0.04925
0.3442
-0.2438
0.208
-0.8126
0.6822
0.09056
0.06782
-0.05461
-0.8958
-0.2523
-0.7403
0.06784
-0.3252
0.1619
0.04229
0.1836
-0.4525
0.002803
-0.7168
-0.4138
-0.2568
0.3675
0.1546
1.084
-0.2428
-0.2922
-0.2429
-0.09169
-0.3396
-0.469
0.0732
0.2145
0.6485
0.2674
0.2703
0.02517
0.2467
0.7302
0.3093
0.5627
0.3703
0.3616
0.2619
0.05052
0.2713
0.02803
0.6071
0.5808
-0.6763
0.02955
-0.1802
-0.3703
-0.04674
-0.7903
-0.3947
-0.2641
-0.3278
-0.2448
-0.2752
-0.2434
-0.4942
0.1237
0.002282
-0.8078
0.2035
-0.3858
-0.5835
-0.245
-0.8292
-0.7176
-0.08973
-0.2549
0.3826
0.00053
0.5353
0.005599
-0.0352
1.501
0.02009
-0.4193
0.01784
0.7814
-0.0517
-0.7381
-0.3447
0.03621
-0.7205
1.484
-0.2433
1.527
0.0818
-0.2583
0.02987
0.3088
0.001538
0.1109
0.3891
0.08224
-0.3933
0.00191
0.1397
0.6052
0.06282
0.05365
0.08918
0.7262
1.838
0.2947
-0.3586
-0.7415
-0.6348
0.06775
-0.288
0.03774
0.05673
0.0008206
-0.8741
-0.7995
0.01983
-0.2708
0.05475
-0.7864
-0.4252
-0.04099
-0.307
0.02027
-0.2409
-0.2909
-0.7426
0.3112
0.0001962
-0.2531
-0.4473
0.06264
0.02549
-0.2406
0.0004337
0.07862
-0.1124
0.00766
-0.7225
-0.2434
0.3302
0.7793
0.001034
0.4979
1.085
0.08837
-0.5399
1.817e-05
-0.07036
0.0003466
0.0006035
-0.6983
0.002905
0.3026
1.004
-0.3148
0.03959
0.0414
0.1847
0.1352
-0.3858
0.2538
0.8429
-0.2436
0.05797
-0.7038
0.02731
-0.4633
0.247
-0.3378
0.0191
-0.1901
-0.3569
0.003081
0.04971
0.02092
0.003212
0.01608
0.4451
0.0253
-0.03685
-0.347
0.1409
0.4157
-0.07254
-0.0003904
0.5783
1.012
0.001311
-0.6032
0.1115
0.02685
-0.1566
0.02312
-0.203
0.3102
-0.6847
0.0007219
0.0008577
0.05024
0.8334
-0.2541
0.0007773
-0.2071
0.5213
-0.06031
-0.3878
-0.3136
0.2735
0.0002644
0.1742
0.2386
1.554
0.1452
0.000652
-0.08551
-0.3352
0.9283
0.05487
-0.5214
0.1285
0.02574
0.5351
1.208
0.9011
0.1671
-0.8046
0.001358
-0.2085
-0.3626
-0.4391
1.374
0.02252
1.825
-0.8527
0.005922
-0.0273
0.2247
0.3245
-0.3442
-0.2187
-0.7059
0.354
0.4111
0.002162
-0.4109
-0.3578
0.0002522
0.04417
-0.1635
-0.2972
-0.01029
0.4739
0.1372
-0.6216
0.0254
-0.7538
0.9479
1.041
0.02618
0.0008599
0.2819
0.1726
0.01376
0.008355
1.114
0.2953
-0.308
-0.1219
-0.5077
0.002635
-0.3168
0.01111
0.1838
0.0233
-0.5754
0.6509
0.3498
0.04913
-0.02827
-0.8983
1.74
-0.3483
-0.01742
-0.7209
1.589
-0.573
-0.7097
0.009972
0.06777
0.000584
-0.0819
0.3101
-0.3403
-0.2691
0.2548
0.0006594
-0.2415
1.448
-0.1092
-0.02429
0.001729
-0.2397
0.3262
1.066
-0.4136
0.1964
-0.3902
-0.2603
-0.3351
0.2836
-0.2443
0.05011
0.4169
0.7016
0.1064
0.03679
2.17e-05
-0.8795
-0.32
0.3911
0.1144
0.4211
-0.4145
-0.04532
-0.07783
0.04265
0.0007342
0.157
0.3101
0.001826
0.0006955
0.1318
1.761
0.0007907
-0.03803
-0.02467
-0.004254
0.6099
0.7117
1.499
0.5399
-0.3655
0.5084
0.504
-0.2541
-0.3058
1.093
0.001614
1.892
-0.02613
0.299
-0.4257
0.05847
0.03033
-0.6255
-0.418
-0.5409
-0.05401
1.107
0.1695
1.051
0.6444
0.07189
0.9405
-0.07757
0.3606
0.1982
0.2985
0.2505
0.2666
0.02618
0.1419
0.1487
0.6074
-0.3129
0.3335
0.6506
-0.2451
0.009189
0.3874
-0.139
0.0005754
0.01276
0.08002
-0.09044
-0.281
-0.6218
0.1451
0.02757
0.02645
0.212
-0.07245
0.02042
0.0331
-0.2588
0.00118
0.266
0.1283
0.206
0.2202
-0.4536
0.04869
0.01196
0.02297
0.2871
-0.003921
-0.3024
-0.7228
0.751
0.7944
0.02353
0.2157
-0.2353
-0.01351
0.01363
-0.2729
-0.6019
-0.3409
0.2585
-0.447
0.03699
0.5621
0.1111
0.1168
0.0585
0.03379
-0.3277
0.2511
0.5629
-0.2656
0.001364
0.5357
0.0003142
-0.02411
0.03028
0.5372
0.7805
-0.3673
0.23
0.3129
-0.09059
0.3431
0.3333
-0.2752
-0.2768
0.01847
0.001161
-0.1798
0.2596
-0.3665
0.6225
-0.2718
0.001039
0.1806
0.8537
-0.2606
-0.4871
-0.3558
0.9672
-0.3543
-0.2486
0.06999
-0.5781
-0.006136
1.136
0.4911
-0.6787
-0.05244
0.2343
1.353
-0.8045
0.1084
-0.2612
1.165
0.3079
1.245
0.2493
0.1455
0.1438
-0.007495
0.06027
0.002157
0.697
0.3521
0.1917
-0.0443
0.1005
-0.2058
0.03043
0.3036
0.6339
0.1679
0.01752
-0.007652
-0.36
-0.02163
-0.3577
-0.354
-0.2394
0.3257
-0.2415
-0.3991
-0.01107
0.1194
-0.4654
0.001447
-0.7084
-0.2526
0.4112
-0.4435
-0.438
0.06424
-0.6981
-0.3541
0.2072
-0.2415
0.03541
-0.002506
-0.008035
-0.7215
0.0004283
0.00992
0.03077
0.9194
0.1361
0.1177
-0.05733
-0.2932
0.00335
-0.1049
-0.4495
1.075
-0.3137
-0.005662
-0.2749
0.0009899
-0.2457
-0.4236
0.1594
-0.8285
0.001184
0.004704
0.6165
1.541
-0.04249
0.05121
-0.0002634
0.3097
0.7242
-0.6319
0.001635
-0.2744
-0.2706
0.001546
-0.07242
0.001484
-0.002668
-0.4118
-0.05069
0.001046
0.0001884
0.0003108
0.01453
-0.02303
0.1005
0.4374
0.3913
-0.3388
-0.06064
-0.2515
0.007317
0.03697
1.236
-0.2424
0.03413
0.1884
-0.358
0.8599
0.002073
-0.1552
-0.8026
-0.3549
-0.5532
0.659
0.2393
-0.1088
0.2364
0.03575
-0.01451
0.2274
-0.006971
-0.4976
0.03126
0.8348
0.4783
-0.6746
0.03857
0.0003125
0.0264
0.607
-0.6668
-0.001304
0.4987
0.02007
0.001783
-0.04815
1.785
-0.3701
0.0005319
-0.3386
-0.02807
0.7253
0.02461
-0.3527
-9.499e-05
0.3289
-0.03
9.94e-05
-0.8225
-0.4415
-0.247
-0.2451
0.8597
0.3221
0.2656
1.231
0.3463
-0.2456
0.00481
1.615
0.144
0.02465
-0.8934
0.6687
0.03337
0.0003736
-0.3632
0.01025
-0.3085
0.3062
0.007137
0.1855
-0.2431
0.242
0.2501
0.02877
-0.7081
-0.2608
1.196
0.2085
0.003203
-0.1134
0.2249
0.1411
-0.03675
0.3517
-0.2426
0.03487
0.2018
0.09431
0.7194
0.2568
0.5255
-0.2647
-0.3374
0.06671
-0.2631
0.001734
-0.7754
0.1105
0.001371
-0.4827
-0.2549
0.0499
0.1531
-0.8707
0.4605
-0.2722
-0.2652
-0.2072
0.04871
0.5977
0.6618
-0.5069
0.1091
-0.4319
-0.01225
-0.2722
0.0003506
-0.2691
0.1383
-0.7832
-0.08849
0.05208
0.02187
0.02887
0.1286
1.687
-0.1814
0.5302
-0.4076
0.001551
-0.2267
-0.4869
0.06999
0.05608
0.1556
-0.3175
-0.2766
-0.6882
0.2405
0.02374
0.3444
-0.3219
0.4686
-0.7271
-0.242
0.01067
-0.2425
0.304
1.815
-0.2648
0.0007793
0.02644
-0.002059
-0.314
0.9089
0.03215
-0.6303
-0.4321
-0.2412
-0.04098
0.2241
0.0227
-0.7497
0.004437
-0.2512
0.009378
-0.743
0.171
0.06844
0.02196
-0.2434
-0.4873
0.002014
1.373
0.2416
0.6439
0.2365
1.087
-0.7314
0.02439
-0.214
-0.669
0.002596
0.3527
-0.2158
-0.6459
-0.01219
-0.3606
0.4203
0.5789
0.366
-0.5979
0.0007349
0.01133
0.2478
0.0604
0.6277
-0.4323
-0.4989
-0.2623
0.1328
0.007494
-0.2658
-0.3801
0.145
0.001256
-0.2705
0.003243
0.01546
-0.6993
-0.4532
-0.1308
-0.3354
0.7597
0.2747
-0.2446
0.02139
0.00625
0.0003394
0.276
-0.09219
0.9263
-0.3957
0.03542
0.3245
-0.3299
-0.5425
-0.03884
0.1849
-0.5217
0.592
-0.003081
1.358
0.0002283
0.0006357
0.2762
0.02841
-0.7329
0.0327
0.7409
-0.2608
0.8556
0.3212
1.572
0.01547
-0.2427
-0.5085
-0.1204
0.004572
-0.2963
0.0001276
0.01213
0.001577
-0.7067
0.009259
-0.1941
1.761
0.01686
-0.6352
-0.8686
0.4698
0.04683
0.1826
-0.103
0.01737
-0.2738
-0.2372
-0.09066
0.0009192
0.1401
-0.8783
0.6933
0.943
-0.3151
0.321
0.2359
0.1249
-0.2848
1.118
0.1995
0.3675
3.77e-05
0.0006909
0.255
-0.3502
-0.3621
0.03478
-0.5212
-0.6943
-0.2912
-0.4965
0.0261
-0.01734
-0.544
0.376
-0.05953
0.4249
-0.7316
-0.02297
1.776
0.1269
0.0005744
0.2093
-0.3336
0.2848
-0.01172
-0.7065
0.2492
1.495
0.1854
0.1636
-0.2452
0.003633
-0.2861
0.3357
-0.4259
1.902
0.001234
-0.6054
-0.02766
-0.005301
-0.1282
0.2622
0.4259
0.1584
0.1191
-0.2839
0.4084
1.026
0.6086
-0.3718
0.7381
0.1568
0.1559
0.1534
0.1639
-0.6433
0.6382
0.7797
-0.6812
-0.2644
-0.2458
0.001008
0.0007146
1.023
-0.266
-0.3778
0.3031
0.3737
-0.4999
0.3389
0.5258
0.7904
-0.3131
-0.7111
0.303
0.3604
0.1319
0.3462
-0.006873
-0.4676
0.2877
0.6606
0.07256
0.004131
-0.03232
-0.02295
-0.8852
-0.7505
0.001035
0.01204
0.01102
1.185
0.01935
0.2626
0.00106
-0.2427
0.004748
-0.05629
-0.07544
-0.2577
0.1022
-0.07754
-0.6927
0.02178
0.09609
1.393
-0.3896
-0.3094
0.4286
0.006719
0.3453
-0.863
-0.3571
-0.7136
-0.2782
0.6823
-0.5698
0.1736
-0.2526
-0.5802
-0.5511
0.009953
0.02014
0.5929
-0.002358
0.4277
0.3411
0.3443
0.188
0.001964
-0.7308
0.6408
0.0004619
0.1364
0.2343
0.1932
0.0008573
0.02062
0.2828
0.05236
-0.3484
-0.008775
-0.266
0.006745
0.001688
0.009855
-0.5135
0.3888
-0.4241
-0.4931
1.435
-0.6194
1.9
1.669
-0.4207
0.006897
-0.4647
0.1439
0.5015
0.0009338
0.8471
-0.3251
0.4242
-0.002668
0.3953
0.1178
-0.6277
0.3089
-0.3354
0.1382
0.6521
1.084
0.2672
-0.001937
-0.3638
-0.6583
0.259
-0.5788
0.8431
1.037
0.003071
-0.4056
-0.02559
0.8364
0.01003
-0.04867
0.009706
1.757
-0.387
0.0373
-0.2443
-0.3373
0.6495
0.03228
0.3421
-0.6373
-0.01296
-0.0001947
0.0009146
-0.5408
0.9613
0.1607
1.408
-0.6857
0.3738
1.25
0.0007337
0.7409
-0.2728
-0.03788
-0.2815
0.01475
-0.6712
0.0245
0.0002209
0.6614
-0.3742
-0.41
-0.2981
-0.3446
-0.1428
-0.2462
0.2744
-0.3745
0.413
1.337
-0.3457
-0.2521
0.1089
1.608
0.4794
-0.3795
0.01019
-0.2256
0.04528
-0.5742
0.4048
0.004203
0.8586
0.445
-0.6383
1.288
-0.2835
-0.29
-0.2979
0.07309
0.0003386
0.02565
0.416
0.5622
0.2468
-0.3885
0.1105
0.08697
-0.2646
-0.1272
0.03768
-0.3806
0.5153
0.4953
0.1671
1.252
-0.0005965
0.5023
-0.6611
-0.5669
-0.8789
1.143
0.3457
-0.2539
0.3055
-0.4496
0.4688
0.6948
0.001705
0.09578
0.1645
-0.2504
0.1255
0.04219
-0.6464
0.3052
0.08504
-0.7357
-0.2085
0.07489
0.2356
0.2101
0.6442
0.3388
0.3186
0.7946
0.1155
1.604
0.09888
-0.2969
0.06716
-0.3987
0.2626
-0.2717
-0.6498
-0.04888
-0.5196
0.1559
0.3737
-0.1473
1.115
-0.3396
-0.2578
-0.02888
1.301
-0.4433
0.2286
-0.747
-0.3871
-0.03844
-0.8961
0.1087
0.013
0.7961
0.1276
-0.03232
-0.3147
0.03003
0.04771
0.3648
0.09931
-0.2625
0.03989
-0.304
-0.0003501
0.1118
-0.2209
0.3056
-0.1059
-0.8642
-0.01118
0.1559
-0.6263
-0.4024
-0.3874
-0.7613
0.2535
-0.4408
0.6786
-0.00154
0.03168
0.02565
0.3717
0.0005648
-0.2489
0.8347
-0.3425
0.3962
1.376
-0.04476
0.6081
-0.6645
0.02509
0.0003166
-0.7722
0.303
-0.4425
0.3983
0.02197
0.2332
0.00153
-0.3688
1.269
0.2814
0.3881
0.3665
-0.6214
0.8286
-0.1411
-0.07607
0.14
0.9779
0.1906
-0.4696
0.3441
-0.5892
-0.2023
0.02376
0.1204
0.231
-0.3585
-0.08877
1.05
0.1467
-0.04156
0.1775
0.03277
-0.2453
-0.243
0.8024
0.02616
0.02453
-0.1858
0.2932
0.7481
0.3581
0.139
-0.3272
0.2569
0.1431
0.01218
-0.277
-0.3964
0.006623
0.006175
-0.4213
0.6386
0.3481
-0.03806
-0.3713
-0.6729
0.605
-0.627
-0.3854
0.2438
-0.2408
-0.3789
0.000935
0.7403
-0.434
-0.09106
0.001477
0.5163
5.84e-05
0.07911
-0.06332
-0.2685
0.2559
-0.1783
-0.7433
0.05545
-0.2169
-0.316
0.1172
0.0007956
0.02623
-0.7959
0.02897
-0.06806
0.1285
0.01289
0.007192
-0.08362
0.4093
0.2062
-0.6705
0.1574
0.5699
0.1261
-0.8627
-0.4948
0.001044
-0.6666
-0.514
0.07144
0.1724
-0.4944
-0.4866
-0.4535
-0.7327
0.06273
0.2139
0.2538
0.2059
-0.04107
0.4116
0.03376
0.02666
-0.03518
-0.02797
-0.2046
0.832
-0.7677
0.2824
-0.3464
-0.1972
-0.5974
0.5872
-0.006213
0.008658
-0.01102
0.5702
-0.05062
-0.5123
-0.5319
0.1594
0.2979
0.1613
0.001109
-0.05202
0.1018
0.09529
0.02061
-0.213
-0.09688
0.3249
-0.03911
0.2644
0.1417
-0.7885
-0.8688
-0.4723
0.7457
0.01564
0.0002447
0.4453
0.2224
-0.0004424
0.6452
1.029
0.01696
-0.3434
-0.2552
-0.508
0.827
-0.2104
-0.2434
0.1233
0.02994
-0.4069
0.8202
-0.01609
0.2499
0.4672
0.001762
0.3568
-0.2432
0.214
-0.3934
0.0005487
0.9862
-0.2663
-0.3418
0.006659
-0.4199
0.01144
-0.2987
0.0001575
-0.00844
0.1157
-0.1126
0.7437
-0.01242
-0.006892
0.2871
-0.5366
0.5143
-0.1152
0.02292
-0.2947
1.044
0.4216
0.2759
1.654
1.535
0.01098
1.218
0.02256
0.065
0.4493
0.004051
0.18
0.04735
-0.2393
0.681
-0.3465
0.01358
-0.4573
0.01178
0.09109
0.01839
-0.354
0.006539
0.01374
-0.345
0.1194
-0.3067
0.7428
-0.03756
0.4546
-0.0006787
0.1246
-0.5077
-0.1304
-0.07083
0.224
0.01041
0.01638
-0.3507
-0.003082
-0.2419
-0.0001938
0.2637
0.001262
0.07399
-0.0549
-0.06991
0.001232
-0.7236
-0.04279
-0.3871
0.06845
0.0185
-0.4091
-0.334
0.3107
-0.5621
-0.2443
1.646
0.6151
0.0011
0.04529
0.07963
-0.2448
0.2751
0.1796
0.008369
-0.2739
0.5615
-0.4444
0.07608
-0.2915
1.068
-0.6877
0.18
-0.3598
-0.2825
0.583
-0.501
0.6118
-0.8873
0.0002536
0.9234
0.0005159
0.7772
0.1059
0.001454
-0.0001483
-0.07246
1.642
-0.005747
0.09323
1.053
0.259
-0.2708
0.004967
-0.02247
1.279
-0.6977
-0.8101
-0.3865
-0.4334
-0.2525
-0.06536
0.02274
0.3058
0.09446
0.01012
0.4251
0.2399
-0.4428
0.01279
0.2746
-0.005621
-0.4586
-0.4762
-0.2702
0.06113
0.003192
0.001125
-0.2709
0.2544
-0.3137
-0.3353
0.0011
0.001227
0.512
0.9117
0.2022
-0.6602
1.119
-0.6959
-0.02001
1.386
0.001107
0.01676
-0.3211
-0.4177
-0.06765
-0.2489
-0.3048
-0.7003
-0.3943
-0.2955
-0.02778
1.147
0.04713
-0.4439
0.2143
0.003732
0.2992
-0.2619
-0.1338
0.1815
-0.3995
-0.06308
-0.1567
-0.4497
-0.0107
0.6001
-0.3109
0.01585
-0.04728
-0.2408
-0.2566
0.2433
-0.08039
-0.3469
-0.2753
-0.4571
0.6752
-0.8274
0.7362
0.1368
-0.7422
-0.2339
-0.7063
0.1014
0.6078
-0.467
-0.548
-0.06393
0.283
-0.1213
0.05702
0.03016
0.9059
-0.2464
0.4225
0.001413
0.5804
0.7922
-0.2837
0.001445
-0.007057
0.1923
0.03166
0.1378
0.02099
0.4648
0.6104
0.0006822
0.3378
0.1685
0.09171
0.7435
1.574
-0.3946
0.0007252
-0.3956
0.2819
-0.4262
0.02754
-0.03778
-0.2465
-0.8015
-0.2427
0.01082
0.2288
0.2914
0.01308
-0.3425
-0.8744
-0.5434
-0.02545
0.2904
-0.7354
-0.2873
-0.01606
1.185
0.9189
0.04081
0.05138
0.09452
-0.346
-0.2209
0.06159
0.7924
-0.3394
0.1396
-0.1323
1.145
-0.1867
-0.1746
-0.2932
0.01723
0.5152
0.592
-0.7249
0.3123
-0.2968
0.9972
0.7567
-0.2863
0.3998
-0.2625
-0.07891
-0.09143
0.02836
0.01624
1.496
-0.5267
-0.7335
-0.2799
0.4898
-0.616
-0.6632
0.0002062
1.827
-0.422
-0.2306
0.1288
0.003075
-0.4824
0.5762
0.4249
-0.3317
0.03798
0.6149
0.02431
0.04787
0.2343
1.55
0.5445
0.7375
-0.2672
0.0693
-0.6873
0.02211
0.2129
0.06909
0.4233
-0.5663
-0.8668
-0.07672
-0.06172
-0.2242
0.1044
1.423
-0.4463
0.567
0.7544
0.9887
1.828
0.7641
0.3361
-3.622e-05
0.1427
-0.383
0.4764
0.0008078
0.3303
-0.3696
-0.1424
-0.2274
-0.8912
0.2683
0.6521
1.146
0.2374
0.2194
0.009945
0.0002018
0.2706
1.33
-0.8966
1.684
-0.5058
-0.02145
0.005305
0.3255
0.07561
0.001119
0.0415
-0.06313
0.09794
0.04529
0.001836
-0.2486
0.6112
4.27e-05
-0.01251
-0.3037
-0.5215
-0.3316
0.001839
0.4142
0.4553
0.07141
0.004135
0.1518
-0.4362
-0.804
0.02428
0.1759
0.5846
-0.3913
-0.03595
0.2683
0.003949
-0.7524
0.09237
-0.04709
0.02199
0.0008896
0.000927
-0.243
0.03579
0.0004157
0.06723
-0.5531
-0.5904
-0.1974
-0.004919
0.2874
0.3737
0.6138
0.7575
0.1636
0.3287
-0.1208
-0.8063
0.5547
-0.5227
0.0003113
0.01828
-0.4665
-0.1351
0.1686
0.6015
-0.6974
0.08771
-0.06321
0.1628
0.2171
0.02572
-0.265
0.6487
1.886
0.001357
0.3868
0.1872
-0.6197
-0.1565
-0.02113
0.1185
0.001865
0.4519
-0.3009
0.681
-0.1517
0.3646
-0.2428
0.6321
-0.01703
-0.2363
-0.783
0.169
1.677
-0.1484
0.1472
0.6482
-0.2456
-0.4245
-0.3042
0.05474
0.6298
-0.04802
-0.004033
0.1268
1.021
0.00207
0.02645
0.7671
0.002751
0.008082
0.3682
-0.6648
-0.01877
-0.6613
-0.2865
0.6294
-0.2972
0.2328
-0.5686
-0.4168
0.0003617
0.05464
0.8615
-0.2546
0.07868
-0.2516
0.5922
0.001679
0.00483
0.2504
0.1274
0.5426
0.02789
-0.4956
-0.3981
-0.5971
0.2746
-0.8491
0.01287
0.4015
0.7373
-0.0005427
-0.4614
-0.242
-0.234
0.01084
-0.3376
1.021
-0.3786
0.02981
0.2486
0.3338
0.02579
-0.1868
-0.3781
0.9521
-0.3016
0.1981
-0.3335
-0.1098
0.8358
-0.3984
-0.6866
-0.01959
0.06585
0.3189
-0.6606
0.2158
-0.3641
0.01133
0.0219
0.3285
-0.3243
0.001722
0.6287
-0.2671
-0.2601
-0.5129
0.1997
-0.243
0.03755
-0.0213
-0.2575
0.139
0.5943
-0.05498
-0.4188
-0.4013
-0.4157
0.2474
-0.2426
-0.6831
0.5301
-0.4483
-0.608
0.007025
-0.2918
0.5128
1.4
-0.4472
-0.4521
0.008056
-0.3283
-0.2099
0.02335
-0.04848
-0.3634
0.1105
0.002515
0.2328
0.4619
1.028
-0.4487
-0.4361
0.1454
0.002727
0.6543
0.1209
0.0003355
0.2634
-0.7485
0.3426
0.6299
0.7369
-0.691
0.8013
0.4033
-0.3389
0.0006831
-0.1324
0.09538
0.5488
0.4568
0.02488
0.1215
-0.6467
0.2141
0.01986
-0.0697
0.2933
-0.6257
-0.7599
0.2569
-0.658
-0.2983
0.7291
-0.3221
0.9518
0.005361
0.02155
0.2994
0.3365
0.1534
0.7409
0.1257
-0.08297
0.298
0.0167
1.362
0.001638
-0.204
0.02746
0.0009762
0.01003
-0.6187
-0.879
0.03158
0.7355
-0.2709
0.06471
0.01911
0.8361
-0.003994
0.08221
-0.0004845
-0.2151
-0.2448
-0.2616
-0.005416
0.6274
0.6203
0.2065
-0.3473
0.02603
0.3073
-0.2988
0.6494
-0.4057
-0.2435
0.09154
-0.1363
0.4341
0.5509
-0.0005183
0.1667
-0.1295
-0.01581
0.513
0.001131
0.3415
0.2891
0.03139
-0.5279
-0.05875
0.02385
-0.238
0.00303
-0.01086
0.08305
0.1392
0.05348
0.104
0.2466
-0.1209
-0.2911
-0.4905
-0.7259
-0.04757
0.5885
0.7267
0.2432
0.3271
0.6319
-0.3668
0.1819
-0.281
-0.1518
-0.284
0.02633
0.01389
0.0004221
0.009169
-0.5313
0.2262
-0.2809
0.09592
1.806
0.1303