/*--------------------------------*- C++ -*----------------------------------*\
| =========                 |                                                 |
| \\      /  F ield         | OpenFOAM: The Open Source CFD Toolbox           |
|  \\    /   O peration     | Version:  v2012                                 |
|   \\  /    A nd           | Website:  www.openfoam.com                      |
|    \\/     M anipulation  |                                                 |
\*---------------------------------------------------------------------------*/
FoamFile
{
    version     2.0;
    format      ascii;
    class       surfaceScalarField;
    location    "5";
    object      phi;
}
// * * * * * * * * * * * * * * * * * * * * * * * * * * * * * * * * * * * * * //

dimensions      [0 3 -1 0 0 0 0];
oriented        oriented;


internalField   nonuniform List<scalar> 
149048
(
-2.378e-08
2.378e-08
-2.693e-08
2.693e-08
-9.292e-08
9.292e-08
3.141e-07
-3.141e-07
2.768e-08
-2.768e-08
5.729e-09
-5.726e-09
-3.535e-07
3.535e-07
-7.348e-06
7.348e-06
-4.691e-06
4.691e-06
1.225e-07
-1.225e-07
1.373e-05
-1.373e-05
-4.368e-06
4.368e-06
4.319e-05
-4.319e-05
4.319e-05
8.181e-06
-8.181e-06
-1.178e-05
-3.141e-05
5.894e-05
-1.575e-05
-1.423e-05
1.423e-05
6.181e-07
-6.181e-07
5.894e-05
7.553e-05
-7.553e-05
7.553e-05
-1.453e-08
1.453e-08
1.015e-05
-1.015e-05
-2.369e-07
1.439e-07
1.617e-05
5.936e-05
-1.374e-05
-6.179e-05
-0.002628
0.003049
-0.0004211
0.001108
-0.001094
-1.437e-05
-7.566e-06
4.519e-06
3.047e-06
2.817e-08
-2.817e-08
-0.000532
0.000499
3.299e-05
-0.0001736
-0.0003584
0.0003571
-0.0001855
-0.0001716
-0.001445
0.001285
0.0001593
0.001359
0.0007763
-0.002136
0.0002104
0.0001467
-0.0003488
-0.002375
0.002724
0.7793
-1.175
0.3958
-4.696e-05
0.001155
-0.0005969
0.0005392
5.768e-05
0.02581
0.1074
-0.1332
3.143e-07
-3.143e-07
0.002396
-0.002424
2.785e-05
0.002529
-0.002218
-0.0003111
0.0002186
0.0006954
-0.000914
-0.03442
0.01988
0.01455
0.00259
-6.1e-05
-0.0009352
0.0007439
0.0001913
-0.002764
0.0001364
0.0003594
-0.0001953
-0.0001642
0.0002939
0.0003303
-0.0006242
-0.008925
0.005902
0.003023
0.0001589
0.0004219
-0.0005808
0.0006013
0.001795
0.0005826
0.0005467
-0.001129
0.001263
-0.0009997
-0.0002632
-0.0001439
-0.0007737
0.0009176
-0.0003877
0.0009423
-0.0005546
4.402e-05
1.19e-05
-5.592e-05
0.2149
-0.2677
0.05281
-0.0001937
0.004639
-0.004446
5.994e-07
-1.046e-05
9.858e-06
-0.0004679
0.0001126
0.0003552
7.709e-05
-7.709e-05
0.001798
3.758e-05
-0.001836
0.2733
-0.04559
-0.2277
0.0005043
0.00372
-0.004224
3.792e-05
2.102e-05
-0.000712
0.000897
-0.000185
-0.001634
-0.0003249
0.001959
-0.001365
0.003674
-0.002309
-3.002e-06
0.0006007
-0.0005977
0.0004411
0.002608
-0.003527
0.002988
0.0005392
-0.0003772
0.0003651
1.216e-05
-2.847e-06
9.998e-05
-9.714e-05
1.605
-0.6688
-0.9362
1.594
-0.6643
-0.9296
-0.0002775
-0.0001903
-1.21e-05
0.002057
-0.002045
2.37e-05
-4.314e-05
1.944e-05
0.003188
-0.003733
0.0005449
-0.07722
0.103
0.0005354
-0.0004862
-4.918e-05
-0.1777
0.957
0.0001474
-0.0006911
0.0005437
-0.0002368
0.0004026
-0.0001658
0.0004412
-0.0002804
-0.0001608
-1.23e-05
-5.577e-05
6.807e-05
0.001586
-0.002648
0.001062
0.002339
-0.00225
-8.939e-05
-0.001021
0.002171
-0.00115
0.1553
-0.04789
-0.09515
-0.1711
0.2663
-3.974e-05
-0.0001228
0.0001625
0.0001494
0.0003021
-0.0004515
0.001006
0.0002564
1.74
-0.1355
1.728
-0.1343
0.00104
-0.002497
0.001457
-6.325e-06
-1.241e-06
-0.000952
0.0008457
0.0001063
0.0003459
-0.0003609
1.505e-05
-0.004355
-0.00457
-0.08545
-0.06378
0.1492
0.0008719
-0.0009303
5.842e-05
2.509e-05
-2.037e-05
-4.725e-06
-0.004282
-0.003957
0.008239
0.0002172
0.0003364
-0.0005536
0.0002892
0.000152
-0.0003539
-0.001091
-0.000628
0.0007349
-0.0001069
-0.001014
0.001501
-0.000487
-0.0009881
0.0009192
6.883e-05
-2.676e-05
2.376e-05
3.001e-06
0.001286
-0.001068
-0.000888
0.001435
-0.0005475
0.0004704
-0.0007078
0.0002373
0.01818
-0.03158
0.0134
-0.001544
0.001698
-0.0001544
0.001575
-0.002939
2.67e-07
9.6e-06
-9.867e-06
-0.0002913
-0.0003367
3.829e-05
0.0004898
-0.0005281
6.095e-05
-0.0001548
9.384e-05
-0.001887
-0.00164
0.004793
-0.007282
0.002489
-0.0007392
0.0006571
8.215e-05
-3.32e-06
7.225e-05
-6.893e-05
0.0009173
0.000425
-0.001342
-0.002478
0.01219
-0.009716
0.08476
0.5911
-0.6758
-0.0907
0.08302
0.007685
-0.000642
0.0009396
-0.0002976
-0.001539
0.0007881
0.0007511
-4.907e-05
-0.0001624
0.0002115
0.001534
-0.001824
0.0002894
-0.0002801
8.505e-05
0.0001951
0.001889
-0.002714
0.0008245
0.06163
0.05763
-0.1193
-0.008005
0.004405
0.003601
-0.0004771
0.0008681
-0.0003909
-0.005638
0.006337
-0.0006986
0.0001532
-0.0001198
-3.341e-05
0.0002155
-0.000199
-1.653e-05
0.03754
-0.02497
-0.01257
0.001023
-0.0007525
-0.0002704
-0.0005043
0.0003701
0.0001341
0.3875
-0.493
0.1055
-0.0006497
0.0007295
-7.978e-05
0.001196
-0.0007861
-0.0004095
0.4326
-0.1928
-0.2398
-1.645
0.3915
1.254
-0.0009954
0.0006975
0.0002978
1.195e-06
-1.371e-06
1.762e-07
0.00577
-0.03129
0.02552
-0.002686
0.001606
0.00108
-0.01336
-0.02106
-5.515e-05
9.052e-05
-3.537e-05
-0.0001356
0.0001966
-0.0001661
0.0003097
-0.0001436
-4.116e-08
1.057e-06
-1.016e-06
-0.003749
0.003142
0.0006078
0.6971
-0.6143
-0.08282
-0.001986
0.004906
-0.00292
0.0007495
-0.0008218
7.237e-05
0.3892
0.04335
-0.167
0.1684
-0.001412
-0.003452
0.003104
-0.0001526
-0.001482
-0.001278
0.001152
0.0001259
0.002439
-0.000641
-0.000517
0.0004002
0.0001168
-0.3056
0.269
0.03655
1.142e-05
-1.194e-05
5.183e-07
-0.0002906
-0.0006445
0.683
-1.163
0.4799
-0.008597
0.006329
0.002268
0.2518
-0.2289
-0.0229
-0.001457
0.0008874
0.0005698
-0.0003784
0.0002272
0.0001511
0.000389
-0.001781
0.001392
-5.419e-05
0.0008973
-0.0008431
-0.004651
-0.003946
0.0006457
0.0003772
0.6749
-0.5901
3.477e-06
3.551e-06
-7.029e-06
-6.309e-05
-0.0003141
1.269e-05
1.24e-05
-0.004555
-0.002723
0.007278
-0.0003226
0.0009484
-0.0006258
-0.00184
0.006987
-0.005147
-0.2799
0.1847
-0.0002295
0.0003951
-0.0001656
0.003731
-0.000543
-0.03888
-0.05182
-2.711e-05
1.321e-05
1.39e-05
0.02272
0.01921
-0.04193
-0.000434
0.000697
-0.000263
8.744e-05
2.077e-05
-0.0001082
0.0004299
-0.0002541
-0.0001758
0.0002573
0.0001725
0.002902
-0.001543
-4.19e-05
-0.002722
8.543e-05
6.775e-05
-0.000183
0.001165
-0.0009823
-0.0002505
-0.0002538
-0.001458
0.0003632
0.001094
-0.0003812
-0.0006141
0.000336
-0.0001072
-0.0002288
-1.55e-06
0.0002171
4.009e-05
-4.009e-05
1.495e-05
0.001271
-0.0001341
-0.0002443
-0.003199
0.0008883
0.002311
-0.001148
0.002104
-0.000956
-0.1787
0.09325
0.0004758
0.0001149
-0.0005907
0.0003267
-0.000277
-4.966e-05
0.0004454
-0.0005036
5.822e-05
-0.003552
0.002613
0.0009392
-1.317
0.9314
0.386
-8.179e-06
-1.816e-05
2.634e-05
1.059e-06
-4.622e-07
-5.969e-07
-5.725e-06
-9.699e-08
5.822e-06
0.0002069
-0.0001406
-6.632e-05
-7.718e-07
5.902e-07
1.817e-07
-0.001703
0.001522
0.0001813
-0.8715
0.6466
0.2249
-0.0007102
-0.0003623
0.001073
-0.0002652
-0.0003317
-0.0001798
-1.258e-05
0.0001924
0.002853
-0.002873
1.964e-05
3.132e-05
0.002668
-0.002699
-0.0001403
-0.0008117
0.002061
-0.002707
0.0006464
-0.009349
0.2242
0.0001213
4.173e-05
-0.000163
0.0002258
-0.0003876
0.0001618
-7.449e-05
4.728e-05
2.721e-05
0.0001045
-1.341e-06
-0.0001032
0.0008849
-0.0006729
-0.0002121
0.0154
-0.008612
-0.006788
0.1168
-0.05226
-0.06453
-0.4533
1.136
-0.0005742
0.0001175
0.0004567
0.1748
-0.268
0.09317
2.118e-06
-7.905e-06
5.787e-06
-0.0002845
2.789e-06
0.0002817
-0.1463
0.0005025
0.1458
-5.332e-07
4.256e-07
1.076e-07
-0.4451
0.1604
0.2847
0.002369
-0.006544
0.004175
-0.02799
0.1212
-0.09323
-0.001058
0.0009754
8.272e-05
0.0003248
0.0006054
-0.0009302
-0.002539
0.00182
0.0007181
-0.0002984
-0.0006896
-0.003586
0.001166
0.00242
-1.634e-05
-5.816e-05
1.351e-06
-1.392e-06
-1.746
0.1005
-0.001291
0.0006501
0.0006406
-0.0002201
0.000403
-0.0001828
0.0008956
-0.0009512
5.551e-05
0.0001503
-0.0002682
0.0001179
0.009142
-0.007364
-0.001779
0.6561
0.04096
0.01696
-0.009664
-0.007298
-0.0002842
-0.0002329
0.007476
-0.0002917
-0.007184
0.0008041
-0.001002
0.0001975
-0.0003367
-0.001202
-0.0007349
0.0005054
0.0002295
0.0001485
5.842e-05
-0.001274
0.001237
3.732e-05
0.0105
-0.04041
0.02991
-0.0003323
-0.0004034
0.0007358
-0.0001434
-0.0005063
0.0002452
0.0001007
0.0001051
0.0004317
-0.0005369
-0.2394
0.6365
-0.3971
-0.001995
-0.001558
0.0004609
-0.001103
-0.1538
0.1013
0.0525
-0.0001165
-0.0003701
0.0004866
0.3787
-0.6181
0.5218
0.2638
-0.7856
-0.0003738
0.0004075
-3.367e-05
0.002394
-0.001354
0.006067
-0.02463
0.01857
-0.1053
0.001933
-0.001766
-0.0001667
7.427e-05
-0.0001125
3.823e-05
5.147e-07
5.444e-07
0.002383
0.01152
-0.01391
1.175
-0.8082
-0.3672
0.0004675
-0.0004201
-4.746e-05
-0.000581
0.001035
-0.0004544
0.000567
-0.0005676
6.146e-07
-0.0003242
7.939e-05
0.0002448
-0.6169
0.3445
0.2724
-0.009087
0.002278
0.006808
0.0002036
-0.001092
0.001117
-0.002162
0.001045
0.0001999
0.0005495
0.0005146
-0.0001603
-0.0003543
-0.3853
-0.4862
0.1216
0.03366
-0.00143
-2.723e-05
-5.414e-05
-0.0006851
4.976e-05
2.733e-05
-0.002703
0.001865
0.000838
0.05885
-0.04197
-0.01687
0.0007614
-0.0008156
-0.001788
-0.001961
-0.03481
0.04058
1.083
0.0922
0.0008303
0.001018
-0.001848
0.09564
0.1562
-0.001075
0.001366
-0.0002903
-2.25e-05
-0.0006895
-0.0049
8.329e-05
0.004817
2.14e-05
-2.08e-05
-0.1248
0.1737
-0.04887
-0.0002248
-5.529e-05
-0.0005067
0.0006656
-0.004486
-0.001248
0.005733
8.13e-05
-8.045e-05
-8.469e-07
0.00188
0.0004592
-0.0007967
-7.059e-05
0.0008673
-0.0008728
0.001055
-0.0001817
-0.5775
1.121
-0.5432
-0.0001836
0.0001412
4.246e-05
0.01726
-0.004068
-0.0132
0.00408
-0.02676
0.02268
-0.06903
0.4565
-0.9674
0.4359
0.5315
0.004801
-0.000514
-0.004287
1.634
-0.8861
-0.748
0.07761
-0.65
0.5724
-0.0004103
0.0004967
-8.64e-05
-0.01029
0.007815
-0.0006549
0.001001
-0.0003458
1.32
-0.4587
-0.861
-0.0009717
4.135e-05
0.0009303
0.001836
-0.002092
0.0002554
3.404e-05
-3.404e-05
-0.0003176
0.0001165
0.0002011
-0.0006127
0.0001356
-0.0007084
0.002598
0.002211
-0.002007
-0.0002045
-0.000389
2.801e-05
0.000361
-0.0008958
0.0006231
0.0002727
0.6757
-1.253
-1.018
-0.5109
1.529
0.0821
-0.2069
0.0004498
0.0002435
-0.0006933
-0.0003775
-0.0005945
0.000972
-0.00297
-0.02853
0.0315
0.0004299
0.000455
0.005263
-0.004759
-5.712e-05
0.0001584
-0.0001013
0.001907
-0.002702
0.0007953
-0.0502
0.03876
0.01144
-0.0001058
-2.852e-05
0.0001343
7.955e-05
0.0001409
-0.0002205
-0.03129
-0.01891
-0.4068
0.6315
-0.2247
0.0003086
2.744e-05
0.003049
-0.001464
-0.0004872
-0.0009993
0.001486
-0.2986
0.3279
-0.02926
-0.001007
7.611e-06
-0.0001157
-2.986e-05
0.0001456
0.0003553
-0.00137
0.303
-0.1069
-0.196
-0.00199
0.006783
0.0005976
-0.000719
0.0001214
-0.1187
-0.02505
0.1437
-0.0006207
0.0005349
8.58e-05
0.07239
0.04441
-0.005506
0.001182
0.004323
-6.728e-06
-2.038e-05
1.131
-0.8748
-0.2562
0.001716
-0.001931
0.0002146
0.00598
-0.001005
-0.004975
-3.97e-05
-0.0006152
-0.0004166
-0.0003182
-0.2859
-0.1592
-0.0003283
0.0001251
0.0002032
-0.0002959
0.0003176
-2.17e-05
0.0002833
6.283e-05
-0.0003462
0.0009393
0.0009934
0.002456
-0.001193
-0.001263
-0.002202
0.003083
-0.0008813
-0.5453
0.9566
-0.4113
0.0001679
-0.0002598
9.188e-05
-0.002515
0.03427
-0.03175
-0.0002643
0.001799
-7.71e-05
4.509e-05
3.201e-05
-4.347e-06
-5.741e-05
6.176e-05
-0.001029
0.001387
-0.0003578
-0.001405
0.0003592
0.001046
-0.0004587
6.962e-05
-0.04412
-0.02366
0.06778
-1.766e-07
-0.005638
-1.048e-05
-1.628e-05
0.02007
0.01869
0.0001236
-0.000202
7.84e-05
2.31e-08
-2.08e-08
-2.306e-09
-0.01549
0.009271
0.006219
0.01347
-0.0003616
-0.01311
0.00467
-0.003082
-0.001588
0.3739
-0.9942
0.6204
4.86e-05
-7.965e-05
3.105e-05
-0.0007352
0.000615
0.0001203
-1.422
0.4036
0.0004295
0.0001593
-0.0005888
-1.303
0.688
0.6155
7.285e-05
-0.0005618
0.000489
-0.001848
0.01314
-0.01129
-0.001325
-0.002261
0.0001174
-0.0005514
-0.01909
0.005213
0.01388
0.004648
0.002558
-0.007206
-0.004714
0.05965
-0.05493
0.0005078
-0.0002244
0.005569
-0.00617
0.0006008
-9.268e-05
1.74e-05
7.528e-05
-0.001181
0.00208
-0.0008996
0.0002884
-0.0004173
0.0001288
-0.1774
0.06072
0.1166
0.0001472
-8.436e-05
-6.284e-05
-0.3371
0.001123
-0.0008557
-0.0002676
-0.001362
-0.001324
-0.9505
1.035
-0.08411
-2.959e-07
1.49e-06
0.01066
0.006306
-0.003906
0.001021
0.002885
-0.0006225
0.0001977
0.0004248
1.581e-06
9.843e-06
-0.000525
-0.001674
0.002199
2.127e-05
-2.845e-05
7.178e-06
0.001184
-4.282e-05
-0.001141
-6.023e-05
0.0003486
-0.2789
0.8007
-0.0001966
-0.0001275
-0.0001197
0.0001982
-7.854e-05
8.495e-05
-8.347e-05
-1.473e-06
0.002865
0.006277
-0.402
-0.5485
1.618e-05
-1.897e-05
2.796e-06
-0.001352
-0.0001053
0.8086
-0.4347
0.0008178
0.0004399
-0.001258
0.001765
-0.001298
-0.0004666
0.0002528
-0.0004557
0.0002028
-0.0002306
0.0002566
-2.606e-05
-0.794
0.3872
0.0002123
-0.0003119
9.965e-05
-8.707e-05
-9.654e-05
1.227
-0.6262
-0.6009
8.241e-05
6.479e-05
0.0003607
0.0004047
-0.0007654
-8.53e-05
0.0008324
0.0003892
-0.001222
0.003065
-0.0004092
-0.002655
-0.001028
0.001581
-0.000553
0.0007835
-0.0001783
-0.0006052
-0.0004826
0.0006983
-0.0002156
0.01498
-0.002853
-0.01212
1.134
-1.217
0.08347
7.678e-05
-8.01e-05
0.002939
-0.004925
0.002111
0.0002892
-0.0024
4.656e-05
-2.287e-05
-0.0006491
-0.0007556
0.004386
0.01288
0.001269
0.000496
-0.0007678
-0.0009355
-0.001568
-0.003607
0.005175
1.527
-0.6307
-0.8963
-0.005143
0.00138
0.003763
-0.01752
-0.1011
0.788
0.2576
-1.046
-0.2158
0.06945
0.0006021
-0.0009625
0.0003604
-0.0002934
-0.0006024
-0.001095
-0.003806
-0.3429
0.03734
0.08489
0.00368
-0.08857
0.003664
-0.003635
-2.895e-05
-0.001227
0.002596
-0.00137
0.01538
-0.006312
-0.009068
0.0002406
-0.0002897
-0.01171
0.003656
0.008052
-0.09633
0.154
-0.005031
0.0074
-0.1309
0.04792
0.08297
0.004075
0.0007256
0.0003146
4.485e-05
-5.389e-05
-0.00149
-0.0258
0.006705
0.01126
0.004124
-3.492e-05
0.0007961
-0.0007612
-0.5667
-0.05021
0.0008003
-0.0006212
-0.0001791
1.194
0.4396
-0.00101
-0.0004755
0.001485
-0.001382
0.001359
2.245e-05
-0.000366
-0.0003693
-1.244
-0.07367
0.1727
-0.2007
-0.0004071
-0.0004188
0.0008258
3.694e-06
7.847e-05
-8.217e-05
1.836e-05
-1.809e-05
0.004255
-0.008537
0.004755
-0.00931
0.001681
0.0005303
-0.0002794
-0.0002948
-0.001756
0.00253
-0.0007738
1.308
-0.4769
-0.8314
-0.004062
-0.005025
-0.002068
0.00218
-0.000112
0.02935
0.09987
-0.1292
-0.01528
0.0278
-0.01252
0.001206
-0.002226
-0.0002223
0.0002586
-3.631e-05
0.00051
-0.0008977
-0.0007411
0.0007381
0.7551
0.1058
-0.8609
0.004439
0.06517
-0.06961
0.0007392
-0.001686
0.000947
0.0005968
-0.001298
0.0007009
0.5466
0.07317
-0.6197
0.0008622
-5.803e-05
0.01255
-0.002604
-0.00995
3.858e-05
-2.577e-05
-1.281e-05
-0.0008456
0.0008476
-1.938e-06
-0.00119
0.001046
-0.001851
-0.001956
0.003807
-0.00436
0.0004542
-0.001106
0.0008538
0.0002517
0.8921
0.2414
-0.000896
0.001295
-0.0003994
-0.0003681
0.0003887
-2.054e-05
0.003139
0.001531
-0.0002338
8.118e-05
0.0001527
0.0003877
8.308e-05
-0.0004708
0.4388
-0.1654
-0.0001644
0.0001469
1.749e-05
-0.00108
4.4e-06
-0.003316
0.00192
0.001396
0.0008161
-0.0006666
-0.0001278
0.0001033
2.453e-05
1.256e-05
-0.0003864
-0.005024
0.007939
-0.002914
0.01279
0.003859
-0.01665
0.0008228
-0.0005349
-0.0002879
0.001403
0.001053
-1.471e-06
-0.0001483
0.0001498
-0.000414
-0.0006442
-0.0002417
-0.001033
-0.0002293
-8.834e-05
-0.0004059
0.0003331
7.28e-05
0.05144
-0.1448
0.09335
0.6613
0.8657
-0.1156
-0.01527
0.0006336
0.0004896
5.46e-05
0.0004129
0.8088
-0.2334
-0.5754
0.0001053
-0.0002714
0.000753
-0.0006056
-0.09416
0.1456
-0.0003047
0.001222
0.0003319
-0.0002575
-7.447e-05
-0.03775
0.7127
-0.001476
0.001865
-1.353
0.1785
1.174
-0.01588
-0.01563
0.03151
0.007503
-0.009349
0.001846
1.158
0.1613
0.001285
-0.000451
-0.000834
-3.805e-05
3.481e-05
3.242e-06
0.02443
-0.02694
0.07404
0.06449
-0.1385
0.0001951
-0.0007612
0.0005661
-0.0002196
-0.0001087
-0.004927
0.004733
-0.0002791
-0.0003434
-6.875e-05
-1.118e-06
6.987e-05
-1.515e-06
-1.196e-06
2.711e-06
0.0004787
0.0004169
0.0004479
0.0009542
-0.001402
0.002721
-0.0008142
-1.232
0.3652
0.8664
0.0009562
-2.16e-05
-0.0009346
0.972
-1.199
0.2272
-0.000726
0.001051
-3.997e-05
3.571e-05
4.262e-06
-0.0009965
0.003473
-0.002477
0.0006331
-0.001643
-0.000811
0.001197
-0.0003863
-0.001035
0.0006421
0.0003927
-0.7367
0.699
0.705
0.426
0.000273
-0.0004624
0.0001894
0.0009957
0.002668
0.9782
-0.2231
-0.0005398
0.000207
0.0003328
0.0467
-0.03693
-0.009775
0.002769
-0.002155
-0.000614
0.11
-0.04981
-0.06019
-0.0002796
-0.000329
0.0006086
0.001012
-0.0005491
-0.0004626
-0.0002491
0.000252
-2.898e-06
0.3144
0.9939
-0.0002331
0.000527
-0.001497
-0.001042
0.005965
-0.003005
-0.00296
0.007709
-0.004123
-0.003586
-1.034
-0.2617
1.296
0.0001256
0.0001511
-0.0002768
-0.0005746
0.0003592
0.0002154
-0.001818
0.001493
0.0003245
-0.002913
-0.002592
-0.002638
-0.0006782
9.665e-05
-0.0001089
-0.05495
-0.2086
0.2636
0.0004329
0.0003674
-0.000528
0.0004082
0.0001197
0.001252
-0.0003802
0.3412
-0.1664
-0.000829
3.155e-05
0.0007975
-0.2848
1.073
-0.001519
0.000532
0.0009872
-0.0006147
-0.0001634
0.0007781
-0.1998
-0.1727
0.3725
0.001069
0.0001121
-0.001181
0.001203
-0.00147
0.0002673
-5.137e-05
0.0008319
-0.0007805
0.0002548
-0.001565
0.00131
0.0003558
0.000467
-0.002058
-0.001141
0.0002767
0.0002932
-0.0005698
0.04437
-0.06336
0.01899
-2.222e-05
-0.0009851
0.0009996
-0.001064
6.469e-05
-0.0006649
0.001552
-0.0008867
-0.07588
-0.07788
0.01183
-0.01229
0.0004584
-0.002434
0.002836
-0.0004018
0.6931
0.0001777
0.0002677
0.3783
-0.2533
-0.125
0.03612
-0.01534
-0.02079
0.000764
-0.0006153
-0.0001487
-0.2817
0.08187
1.073
-0.4389
-0.6338
-0.00238
-0.002763
0.0007153
-0.001203
0.7094
0.09948
-0.4594
0.7926
-0.3331
0.0007307
-0.0004114
-0.0003193
0.03901
0.01984
-0.01535
0.02535
-0.009994
0.0002299
-0.000229
-8.95e-07
-0.0007983
0.001408
-0.0006096
-0.0001691
0.0004091
-0.00024
-0.03344
-0.1779
0.2114
-0.0005072
0.03339
-1.386
5.953e-05
-6.573e-05
6.195e-06
1.059e-05
1.72e-05
-2.779e-05
-0.001418
0.02498
-0.02356
-0.0001202
-0.0002246
0.0003448
0.03336
-0.07489
0.04153
-0.2792
-0.02295
0.3022
-0.0009631
0.0009605
2.639e-06
0.002357
-0.0005208
-0.0002106
-0.000193
0.0004036
0.002416
-0.001508
-0.0009086
-0.0001777
0.0002587
-8.099e-05
-0.000195
0.0001897
5.295e-06
0.001413
-0.001312
-0.0001014
0.0001002
-7.932e-05
-2.086e-05
-0.002018
0.002009
9.488e-06
0.1521
-0.6475
0.4954
0.002123
-0.001866
-0.0002574
-0.001278
0.00154
-0.0002615
-0.0001678
1.3e-05
0.001711
-0.002934
0.001223
0.0008092
0.0001487
-0.0009579
-0.0002419
-5.303e-06
0.0002472
0.01575
-0.05463
0.09655
0.2203
-0.3169
-0.001512
-0.0006639
0.002176
0.002084
-0.001884
-0.0002001
-0.0001506
2.509e-05
0.0001255
0.138
0.01753
-0.1555
-0.001211
0.0007537
0.0004576
9.192e-05
0.0009745
-0.001066
-0.0005636
0.0005863
-2.268e-05
-0.0002998
0.0001423
0.0001575
-0.1834
0.22
-0.03659
0.00103
-0.0007104
-0.0003196
-0.0003513
-0.0002234
-0.00113
0.003285
-0.002154
0.008823
-0.00471
-0.004112
-0.001174
-0.0001585
0.001333
1.443
-1.173
-0.2708
0.0008943
-0.000496
-0.0003984
-0.0002284
-0.0003659
0.0005943
-9.062e-05
2.684e-05
6.378e-05
-0.632
-0.17
0.8019
0.0005185
0.0004822
0.2043
-0.2801
0.07586
-0.0003051
0.0002702
3.493e-05
-0.0003406
0.002401
-0.7636
-0.2038
0.01502
0.6503
-0.6653
-0.04552
0.1162
-0.07063
-2.806e-05
-0.0002664
0.0002945
0.0001576
-0.0001447
-1.281e-05
-0.0002698
-0.0006232
0.0008929
-0.01283
0.01086
0.001967
-0.001546
0.001507
3.925e-05
-0.0002039
-0.0001036
0.0003075
0.0007221
-0.001325
0.0006033
-7.197e-06
-4.704e-06
1.19e-05
0.0009653
2.708e-05
-0.0009924
0.7994
-1.325
0.5259
0.1108
0.7489
-0.8597
-0.2395
0.3261
-0.08664
-2.938e-05
2.938e-05
0.4604
0.8383
-1.299
0.00263
-0.001701
-0.000929
0.01004
-0.01231
0.002269
-0.0005641
0.003406
-0.002842
0.0006627
-0.0007574
9.471e-05
0.001399
-0.0008613
-0.0005378
-1.043e-06
3.448e-06
-2.406e-06
0.0005813
-0.0002694
-0.0003119
0.001555
0.0008641
-0.002419
3.307e-05
-7.997e-06
-2.508e-05
-1.604e-05
0.0003497
-0.0003336
-0.8983
1.074
-0.1761
-4.497e-05
0.0001488
-0.0001038
0.0004388
-0.0008213
0.0003825
1.011
-0.9579
-0.05331
-0.0004985
-1.924e-05
0.0005177
0.005711
0.003111
0.0002263
0.0001102
-0.0003365
0.001085
9.702e-05
-0.001182
-0.03224
0.2112
-0.1789
-0.0006864
-0.0001636
0.00085
-0.001557
0.003388
-0.00183
0.001564
-0.0006116
-0.0009524
0.0003318
0.0006716
-0.001003
-0.001024
0.0007832
0.0002403
-0.0001329
9.288e-06
0.0001236
0.0004078
-0.000273
-0.0001348
-0.004745
0.009672
-0.004928
0.004636
-0.002841
-0.001795
-0.002493
0.004119
-0.001626
-0.0003336
-0.0001441
0.0004777
-0.0008095
-0.0002945
0.001104
9.653e-05
-0.000235
0.0001385
0.001788
-0.000472
-0.001316
-0.0002586
0.000322
-6.344e-05
-0.002592
-0.006552
0.009144
0.0001581
0.0008606
-0.001019
0.7118
-1.257
0.5454
-0.2942
0.05381
0.2403
0.6258
-0.2747
-0.3511
0.001352
-0.001344
-8.391e-06
8.895e-05
0.0001834
-0.0002723
0.01738
-0.005938
-0.01145
-0.005563
-0.002443
0.004166
0.003543
-0.002179
0.001086
0.001093
-0.0008987
-0.001474
0.002373
0.000684
0.0002349
-0.0009189
7.167e-05
-7.167e-05
0.0002758
0.000525
-0.0008008
-0.0252
-0.254
-1.16
0.2292
0.9308
-3.165e-05
3.449e-05
-2.844e-06
-7.103e-05
7.103e-05
1.314
-0.5209
-0.7932
-0.003535
0.006469
-0.002934
0.0006426
-0.0003715
-0.0002711
-0.08756
0.07426
0.0133
0.0007179
0.0001564
-0.0008743
-1.059e-05
1.059e-05
-8.065e-05
9.102e-05
-1.038e-05
-0.07727
0.1252
-2.568e-05
9.438e-06
1.624e-05
-8.723e-05
8.723e-05
-0.0005914
-0.0009457
0.001537
-0.004888
0.001718
0.00317
-5.243e-06
-4.822e-07
-0.0004892
0.0008316
-0.0003424
-9.159e-05
5.867e-06
8.573e-05
0.8356
0.03229
-0.8679
-0.0002845
-0.0008409
0.001125
0.006488
-0.0007145
-0.005773
-0.1176
-0.05974
-0.0001638
8.847e-05
7.535e-05
0.1915
-0.3889
0.1974
1.016
-0.3607
-0.6553
0.002105
-0.0005973
-0.001508
0.0002461
0.0005449
-0.0007911
-0.01776
0.01915
-0.001391
0.002053
0.001076
-0.003129
0.02175
-0.02863
0.006877
-1.177
-0.1801
1.357
0.001208
-0.0008541
-0.0003541
0.000426
-4.964e-05
-0.0003763
0.08377
-0.05041
-0.0008618
0.001922
-0.00106
0.004212
-0.005312
0.0011
0.3271
0.03043
-0.3575
4.765e-05
-4.901e-05
1.36e-06
0.0005827
-0.001213
0.0006303
3.206e-05
4.669e-05
-7.875e-05
0.09709
-0.1526
0.05551
-0.762
0.9652
-0.2032
-6.031e-07
-6.509e-07
1.254e-06
0.5084
-0.5579
0.04948
6.362e-05
-0.0003532
0.0002896
6.72e-05
0.000184
-0.0002512
0.001144
-0.007516
0.006372
-0.002222
-0.008887
0.01111
-1.797e-07
-0.0003801
0.0003803
0.002193
0.001774
-0.003967
0.0003782
-0.0001086
-0.0002695
6.69e-05
-6.69e-05
0.001124
-0.0003228
-0.0008007
0.0002555
-0.00176
0.001505
0.001622
-0.0004124
-0.00121
-4.014e-05
4.014e-05
0.003126
-0.004764
0.001638
0.0002363
-0.0002463
9.993e-06
-0.4042
0.4652
-0.06106
-0.001045
0.008532
-0.007487
-0.001215
-1.458e-05
0.00123
0.0002749
-0.0009467
0.0006718
0.1069
-0.1752
0.06829
-0.007983
0.003382
0.004601
0.6849
-0.3693
-0.3157
0.0001575
-0.0001137
-4.384e-05
-0.0006176
0.0003473
0.0002703
1.571e-05
-0.000269
0.0002533
-0.001105
0.001263
1.361
-0.8496
-0.5109
0.004573
0.001328
-0.005902
-0.0008934
0.0002691
0.0006243
0.00981
-0.009423
-0.0003876
8.128e-07
-5.241e-07
-2.887e-07
-0.004335
0.0006587
0.003677
0.0001036
-0.0001154
1.181e-05
-0.0002284
0.000442
-0.0002136
0.004934
0.003157
-0.008091
-0.07322
0.02286
0.05036
0.002035
-0.0003531
-0.001682
0.0003594
-0.0002375
-0.0001219
-0.9504
1.488
-0.5372
0.03614
-0.9865
-0.001142
0.002287
-0.001145
0.001334
-0.0005019
-0.002964
0.00099
0.001974
-0.0002766
-0.001517
0.001793
-0.0002796
-9.582e-05
0.0003754
-0.006796
0.001934
0.004862
-0.08453
1.267
-1.182
-0.4866
0.7039
-0.2174
-0.0002715
-6.166e-05
0.0003331
-0.001024
0.0002975
0.0007261
-0.0002768
0.0004463
-0.0001695
-0.01859
0.02465
0.004688
0.002827
-0.007515
1.622
-0.9873
-0.6344
1.044
0.3996
-0.2171
0.2195
-0.002365
-1.246e-05
3.174e-05
-1.928e-05
-0.0001774
0.000137
4.032e-05
0.0003944
0.0005783
-0.0009727
-5.587e-05
5.587e-05
0.00754
-0.005865
-0.001675
1.414e-05
-0.0002565
0.0002423
0.2482
-0.4905
0.2423
-0.0003042
0.0001093
0.0001949
0.001739
-0.001658
-8.096e-05
0.02627
-0.01388
-0.01239
-0.0002634
-1.012e-06
0.0002644
1.012
-0.876
-0.1359
-6.143e-05
-0.0003794
0.0004408
-0.04486
-0.4564
0.5013
0.0001307
-0.0001133
-1.731e-05
1.727
-0.526
-1.201
0.03118
-0.03415
5.802e-05
-8.155e-06
-4.986e-05
-1.776e-05
1.776e-05
7.419e-06
2.985e-07
-7.718e-06
-0.001066
-0.0004529
0.00101
-4.493e-05
-0.0006965
0.0004264
0.0002701
-2.268e-05
-6.543e-05
8.811e-05
-0.001824
0.002878
-0.001054
-0.005333
0.003427
0.001906
-0.0351
0.03528
-0.0001775
0.04316
0.04061
-0.0006709
0.000974
-0.0003031
-0.0008948
0.000687
0.0002078
0.001601
-0.001616
1.516e-05
-0.000127
0.000127
-0.003114
0.003132
-1.831e-05
-2.607e-06
-0.0001368
0.0001394
-1.068e-05
3.939e-05
-2.871e-05
-1.496
0.4619
-0.0234
0.02044
0.002957
-0.0007594
0.000792
-3.258e-05
1.617
-0.9096
-0.7073
-0.00042
0.00083
-0.00041
0.0001307
0.00191
-0.001646
-0.0002634
0.0004657
-0.001382
0.0009164
0.0005573
-1.094e-05
-0.0005464
0.641
-0.9016
0.2606
-5.54e-05
-3.139e-05
8.679e-05
0.005855
-0.0001437
-0.000546
0.0005988
-5.28e-05
-1.385
0.8498
0.5351
0.001411
0.002008
-0.003419
-0.004071
0.00321
0.000861
-0.0005019
0.0006656
-0.0001636
-4.72e-05
3.639e-05
1.081e-05
-0.002332
0.002049
0.0002825
-0.002055
0.001167
0.0008876
-8.438e-05
-0.0001495
-0.0007572
-0.0004199
0.001177
0.0001016
-9.908e-05
-2.498e-06
0.001596
-0.002778
0.001182
-0.009448
-0.007218
0.01667
6.002e-06
5.43e-06
-1.143e-05
0.0884
-0.2023
0.1139
0.2908
0.05627
-0.3471
1.441
-0.6413
-0.006927
0.008393
-0.001466
-0.0001564
0.0001788
-2.242e-05
0.0009941
-3.744e-06
-0.0009903
-6.591e-05
0.002912
-0.002846
-0.005649
0.001441
0.004208
-0.0009087
0.001673
-0.0007642
-0.001591
-0.004762
0.006354
0.001126
5.804e-05
0.000446
-6.782e-05
-0.02014
0.01743
0.002708
8.458e-05
0.0001139
-0.0001984
-0.0002105
-0.0001958
0.0004063
0.0005559
-0.0008971
0.0003411
8.838e-06
5.585e-07
-9.396e-06
0.0001653
-0.0001653
-0.03987
0.05037
-0.002493
0.006058
-0.003566
0.1772
-0.2735
0.09629
-0.0002293
0.0002166
1.265e-05
-0.001473
0.001434
3.95e-05
0.002356
-0.0004303
-0.001926
-9.134e-05
0.0002191
-0.0001278
0.003125
-0.001807
-0.001318
-0.0004021
0.0002342
0.0001679
-0.002716
0.01415
-0.01144
-0.0004035
0.00106
-0.0006564
-0.004198
0.004923
-0.0007253
9.999e-05
-0.0003768
-0.1061
-0.2836
0.3897
0.0003982
0.001209
-0.001607
-2.487e-05
0.0009072
-0.0008823
-6.775e-05
-2.217e-05
8.991e-05
-0.0007714
-5.464e-05
0.0008261
-0.0003354
2.789e-05
0.0003075
0.001504
0.0001017
-0.001606
-0.0005833
-0.0003881
0.0009714
0.006504
-0.00755
-0.4114
-0.1356
0.547
-0.0001097
-5.414e-05
0.0001563
-0.0004908
0.0003345
-0.01229
0.07253
-0.06024
4.994e-05
0.000485
-0.001735
0.0007149
0.001021
-0.0005757
0.0005316
4.404e-05
-1.071
-0.5869
-1.074
-0.5919
-1.159
0.9724
0.1864
-0.0003117
0.0004499
-0.0001382
6.92e-05
3.098e-05
-0.0008655
0.004403
-0.003538
0.0002187
0.000189
-0.003359
0.003431
-7.217e-05
0.0105
-0.00557
0.002747
0.000106
-0.001937
0.01476
-0.01282
5.015e-05
-0.0003814
0.0003313
-0.0009537
-0.0003105
0.001264
0.0002322
-0.0001378
-9.449e-05
-0.0004038
0.0005895
-0.0001856
0.08631
-0.15
0.06371
-0.0005809
0.0002844
0.0002965
-0.001136
0.003498
-0.002362
-8.333e-05
0.0001854
-0.0001021
-0.1878
0.2328
-0.04497
-0.00059
0.006521
-0.005931
0.0006763
-0.0009965
0.0003202
-0.0005582
-0.0004189
0.0009771
-4.278e-05
4.278e-05
0.5815
0.1767
-0.7582
0.3835
-0.075
-0.3085
-0.0006588
0.001286
-0.0006269
-0.007714
0.02623
-0.01851
-0.0006619
0.001116
-0.0004538
0.0004803
0.0001426
-0.0006229
0.001929
0.0008402
0.008462
-0.00621
-0.002252
-0.007412
0.01035
-0.002938
0.0003008
-0.0005124
0.0002116
0.6474
-0.8849
0.2375
0.000715
0.0002304
-0.0009454
0.0001895
-0.0001667
-2.28e-05
1.843
-0.2197
-1.624
0.1019
-0.1142
0.0123
0.0007192
-0.0001304
-0.0005888
0.02562
0.01448
-0.04011
3.957e-05
0.0001611
-0.0002007
0.0001518
4.284e-05
-0.0001946
0.00134
-0.00154
0.0001995
6.532e-06
3.687e-06
-1.022e-05
-0.0003737
0.001132
-0.0007581
-0.001259
0.0005012
0.0007579
-0.006252
-0.02885
0.0001791
0.0001251
-0.0003042
0.0006291
0.0002285
-0.0008576
0.001253
-0.001852
0.0005991
-0.0005482
0.0008731
-0.0003249
-0.0007415
0.0003881
0.0003534
-0.000295
-0.002888
0.003183
0.0004383
8.564e-06
-0.0004468
-0.0005901
0.0004697
0.0001204
0.8589
-0.8929
0.034
0.04076
0.9705
-1.353
0.7692
0.5837
0.0007181
-0.0001512
-0.0007957
0.000163
0.0006327
-9.986e-05
-0.0001854
0.0002853
0.0577
-0.009999
-0.0477
0.01311
-0.005631
-0.6803
0.4289
0.2514
0.0001686
-0.0009781
0.007172
0.03209
-0.03926
0.00304
-0.003001
-3.817e-05
0.001275
-0.0008004
-0.0004746
0.0006656
-0.000998
-0.002565
-0.0959
0.09847
-0.05527
0.05893
-0.003663
-0.003829
0.01502
-0.01119
-0.02784
0.01317
0.01467
-0.001555
0.0009775
0.0005773
0.02033
-0.006769
-0.01356
-0.0005568
0.0003889
0.0001679
-0.00113
0.0001336
0.000996
-0.04246
0.00873
0.03373
-0.0003813
0.000386
-4.747e-06
-0.002246
-0.0006472
0.002893
-0.0002242
0.0006425
-0.0004183
-0.0001334
-0.0001304
0.0002638
-0.441
0.3622
0.07875
0.001157
0.0008359
-0.001993
0.003258
0.000539
-0.003797
-0.0001351
0.0001351
0.0007401
-0.000303
-0.0004371
-0.02085
0.003838
0.01701
0.001099
0.001531
-0.000906
0.001447
-0.000541
0.0002458
-0.0003211
7.534e-05
-0.005059
0.005501
-0.0004412
-0.001214
-0.002642
0.003856
-0.2085
-0.6548
0.8633
-0.01537
0.02492
-0.009547
-0.0001024
-0.0004785
-0.0008619
0.0007799
8.208e-05
-0.9573
0.2071
0.7502
-0.003703
0.007913
-0.00421
0.0003025
-0.0001617
-0.0001408
-0.0004288
0.0004838
-5.499e-05
-0.003628
0.004259
-0.0006316
0.0008612
-0.0002497
-0.0006115
-0.0203
-0.007715
0.02802
0.0008389
-0.0003631
-0.0006241
-0.01073
0.01135
-0.003161
0.008925
-0.005763
0.0003566
0.0004595
-0.0008162
-0.001035
0.0001183
0.0009167
-1.394e-06
1.207e-06
1.871e-07
-0.006219
0.01327
-0.007055
0.4154
-1.103
0.6876
-7.824e-05
-0.0001664
0.0002446
0.3044
-0.001443
0.08736
-0.02245
-0.06491
-1.362e-08
3.672e-08
0.002163
-0.003061
-6.814e-06
1.044e-05
-3.631e-06
0.07365
-0.05166
-0.02199
-0.00175
0.001418
0.0003324
-0.005236
0.007593
-0.002357
1.131
-1.131
-6.174e-05
0.001065
-0.0002833
-0.0007813
-0.001378
-0.001391
0.002769
-1.197
-0.03494
-0.07965
0.03984
0.03981
4.57e-06
3.965e-06
-8.535e-06
-6.04e-05
6.04e-05
0.000189
-0.0001978
8.768e-06
0.002647
-0.002594
-5.357e-05
-4e-05
-0.00029
0.00033
0.9921
-1.333
0.3412
7.712e-05
-0.0001554
0.02255
-0.02476
0.00221
0.001203
0.0001919
-0.001395