/*--------------------------------*- C++ -*----------------------------------*\
| =========                 |                                                 |
| \\      /  F ield         | OpenFOAM: The Open Source CFD Toolbox           |
|  \\    /   O peration     | Version:  v2012                                 |
|   \\  /    A nd           | Website:  www.openfoam.com                      |
|    \\/     M anipulation  |                                                 |
\*---------------------------------------------------------------------------*/
FoamFile
{
    version     2.0;
    format      ascii;
    class       volVectorField;
    location    "5";
    object      U;
}
// * * * * * * * * * * * * * * * * * * * * * * * * * * * * * * * * * * * * * //

dimensions      [0 1 -1 0 0 0 0];


internalField   nonuniform List<vector> 
100503
(
(-0.0001524 -0.000563 5.849e-24)
(-0.0002615 -0.000979 4.508e-24)
(0.004228 -0.0006147 1.659e-24)
(0.006934 -0.001307 -7.044e-24)
(-0.0003032 -0.0008932 4.733e-24)
(4.398e-05 7.811e-05 0)
(0.007285 -0.0009201 9.264e-24)
(0.03605 0.007021 0)
(0.03222 0.02036 1.607e-22)
(0.002188 -0.001042 -1.032e-24)
(0.04095 0.0006035 2.853e-22)
(0.01397 0.03525 -4.522e-23)
(0.06718 0.1455 -7.435e-22)
(0.07979 0.143 4.383e-22)
(0.04062 0.01755 -4.698e-22)
(0.09286 0.1885 1.017e-21)
(0.136 0.2327 -2.017e-21)
(0.04734 0.004713 -8.112e-22)
(0.007502 -0.001175 -3.273e-24)
(0.08562 0.1497 1.265e-21)
(0.1461 0.0314 4.742e-21)
(0.1458 0.01293 5.603e-21)
(-8.995e-05 -0.0003604 7.093e-24)
(0.03474 -0.0009302 -5.579e-23)
(0.0118 -0.003573 4.795e-24)
(0.2099 0.01211 -5.552e-21)
(0.2111 0.04822 -2.61e-21)
(1.11 -0.05014 0)
(0.7394 -0.2226 0)
(0.1188 -0.01776 0)
(-0.0002586 -0.0007132 2.762e-24)
(0.516 -0.3338 -2.262e-21)
(0.521 -0.3365 1.105e-21)
(0.3362 -0.06941 2.144e-24)
(0.6279 -0.1845 3.546e-21)
(0.8694 -0.318 -4.494e-23)
(0.3316 -0.07325 4.284e-21)
(0.5373 -0.1972 -3.06e-21)
(0.9891 0.0005463 1.039e-20)
(0.7511 -0.2254 -5.627e-23)
(0.5246 -0.1077 -3.779e-22)
(0.9896 -0.05778 1.274e-21)
(0.004954 -0.002249 -6.055e-24)
(0.8683 -0.2731 -1.681e-21)
(1.119 -0.01497 0)
(0.3323 -0.1486 6.479e-22)
(0.9188 0.1716 -1.386e-21)
(1.105 -0.02075 2.378e-22)
(0.6599 -0.1432 0)
(1.116 -0.04517 0)
(0.3854 0.01511 0)
(0.5857 -0.185 -2.364e-21)
(0.7469 -0.242 -3.73e-21)
(0.6331 -0.3518 -2.065e-21)
(0.87 -0.2735 1.905e-21)
(1.138 0.1271 0)
(0.7283 -0.1396 0)
(0.335 -0.1496 -1.177e-21)
(0.7342 -0.2649 0)
(0.1353 -0.06113 3.941e-22)
(1.031 -0.01417 1.539e-20)
(1.123 -0.0838 0)
(0.05054 -0.02463 0)
(0.384 -0.1288 5.425e-21)
(0.1221 0.004481 -2.912e-21)
(0.8627 -0.2577 -1.093e-21)
(0.9971 -0.02642 -1.961e-20)
(0.7153 -0.2145 -2.23e-21)
(0.1005 0.212 -2.364e-22)
(0.6193 -0.3142 -3.084e-21)
(0.8332 -0.2204 4.324e-22)
(0.6926 -0.02632 4.753e-22)
(0.4061 -0.1593 2.758e-21)
(1.112 -0.05054 -1.346e-21)
(0.8586 -0.1856 1.22e-22)
(0.5185 -0.09282 0)
(0.1853 -0.08814 0)
(1.007 0.0003969 8.208e-22)
(0.9997 -7.115e-05 1.133e-21)
(0.4038 -0.1357 -1.684e-21)
(1.282 0.3006 2.432e-21)
(0.1323 -0.06784 6.103e-22)
(0.8804 -0.1686 0)
(0.9889 -0.05657 -1.367e-21)
(0.2935 -0.1301 2.382e-21)
(0.9895 0.000708 -9.358e-21)
(0.3009 -0.1368 2.194e-21)
(0.3248 -0.1175 2.115e-21)
(0.3914 -0.1396 -5.849e-21)
(0.1613 -0.1744 -1.895e-21)
(0.8285 -0.3338 1.527e-22)
(0.5036 -0.1905 0)
(0.6607 -0.2058 5.098e-21)
(0.9924 -0.05839 5.316e-21)
(0.9794 -0.006491 7.585e-23)
(0.4815 -0.0801 0)
(0.3589 -0.1429 0)
(0.73 -0.1398 0)
(1.007 0.0003455 -6.527e-24)
(0.9998 -7.863e-05 -1.647e-22)
(0.5728 -0.202 4.636e-21)
(0.1147 -0.01697 3.525e-24)
(0.7126 -0.1711 2.489e-22)
(0.5974 0.0202 -2.201e-24)
(0.7442 -0.2361 -1.209e-22)
(0.9961 0.05523 1.78e-21)
(0.5364 -0.1705 -4.239e-21)
(0.2523 -0.02414 6.029e-23)
(0.9508 -0.2573 -3.708e-21)
(0.5264 -0.1121 -1.05e-21)
(0.3852 -0.1418 0)
(0.6341 -0.1855 -2.992e-21)
(0.565 -0.3517 0)
(0.7479 -0.1553 0)
(0.307 -0.1378 0)
(0.04504 -0.02159 0)
(0.3371 -0.1502 0)
(0.8027 -0.2255 1.034e-22)
(0.6075 -0.364 -2.002e-21)
(1.025 -0.1165 0)
(0.3929 -0.1646 1.326e-21)
(0.7074 -0.02842 5.011e-22)
(0.04899 -0.02349 -4.611e-22)
(0.5684 -0.3537 0)
(0.52 -0.3515 2.213e-21)
(0.3198 -0.05938 1.82e-22)
(0.8598 -0.1862 -1.275e-22)
(0.9117 -0.2889 -4.587e-21)
(0.5456 -0.1212 6.105e-22)
(0.3671 -0.06311 -2.29e-22)
(0.7836 -0.3202 -3.223e-21)
(1.171 0.07986 -8.811e-21)
(1.012 -0.001967 1.881e-20)
(1.005 -0.09364 0)
(0.857 -0.1432 -1.23e-21)
(0.7849 -0.1407 -1.266e-23)
(0.5556 -0.09171 -8.147e-23)
(0.8023 -0.1367 0)
(0.2029 -0.09346 -3.153e-21)
(0.8205 -0.1678 2.393e-22)
(1.048 0.006846 0)
(0.6196 0.05997 -2.083e-21)
(0.6362 -0.1285 5.301e-22)
(0.9428 -0.1401 4.29e-26)
(0.1825 -0.09008 -2.478e-22)
(0.4439 -0.07753 -8.183e-23)
(0.8685 -0.01997 -2.773e-21)
(0.6746 -0.1317 -1.007e-22)
(0.471 -0.09047 0)
(1.022 0.01035 -5.676e-21)
(0.9213 0.09702 -1.693e-22)
(0.9976 -0.1394 2.367e-22)
(1.034 2.479e-05 -1.903e-20)
(0.9961 -9.385e-05 1.065e-21)
(0.6189 -0.168 1.719e-21)
(0.03383 -0.00771 0)
(0.9694 -0.1478 0)
(0.5389 -0.1942 0)
(0.9168 0.1644 0)
(0.5421 0.02542 0)
(0.3706 -0.069 2.241e-23)
(0.4542 -0.03972 0)
(0.01152 -0.01 1.328e-22)
(0.8829 -0.2442 0)
(0.9501 -0.01367 -4.086e-22)
(0.5714 -0.03027 0)
(0.6284 -0.354 1.055e-21)
(1.033 -0.00223 1.634e-20)
(1.045 -0.0004798 1.932e-20)
(0.5456 -0.1981 -4.014e-21)
(0.837 -0.222 4.658e-22)
(0.6601 -0.1677 0)
(0.8662 -0.2584 8.855e-22)
(0.5219 -0.3107 0)
(0.9784 0.01365 -6.448e-21)
(0.06983 -0.01356 -1.03e-22)
(0.6644 -0.1437 0)
(1.008 0.000887 3.482e-21)
(0.9159 -0.2886 -7.795e-22)
(0.8979 -0.03993 -2.377e-20)
(0.8071 -0.2902 -2.12e-21)
(0.2369 -0.1069 -2.648e-21)
(0.8553 -0.2422 7.546e-22)
(0.7355 -0.2093 1.782e-21)
(0.9154 -0.2889 0)
(0.6752 -0.1316 1.476e-22)
(1.012 -0.001799 8.931e-21)
(0.06379 -0.03501 0)
(0.5305 -0.09537 -3.411e-24)
(0.2573 -0.02539 -3.996e-23)
(0.8352 -0.2614 -2.764e-22)
(0.7538 -0.2253 -1.55e-21)
(0.7787 -0.2098 0)
(0.9803 -0.006289 2.531e-20)
(0.3146 -0.116 8.196e-21)
(0.8846 -0.1687 0)
(1.004 -0.09429 2.324e-21)
(0.006251 0.09405 9.54e-22)
(1.019 -0.08125 0)
(0.755 -0.008221 1.416e-21)
(0.2435 -0.02825 3.141e-22)
(0.3871 -0.1268 -5.227e-21)
(0.3827 -0.1298 3.483e-21)
(0.8709 -0.3181 4.16e-23)
(1.126 -0.03918 7.77e-22)
(0.1839 -0.09011 8.985e-22)
(0.7903 -0.3436 3.267e-21)
(0.4766 -0.09007 0)
(0.788 -0.3098 0)
(0.6267 -0.1694 1.549e-21)
(0.2534 -0.08539 1.368e-21)
(0.4598 -0.08154 8.032e-23)
(0.0776 -0.006234 0)
(0.3388 -0.1508 -2.068e-21)
(0.2385 -0.1077 2.482e-21)
(0.8455 -0.1846 -1.533e-22)
(0.841 -0.3252 -2.61e-21)
(0.9977 0.0547 0)
(0.5803 -0.1332 0)
(0.4385 -0.08514 3.461e-23)
(0.2832 -0.1175 0)
(0.8379 -0.1845 3.18e-22)
(0.9951 0.001611 0)
(0.1113 -0.05813 2.121e-22)
(-0.003335 -0.01783 0)
(-0.006158 0.01969 -1.529e-21)
(0.2105 -0.223 -2.871e-21)
(0.01386 -0.006657 -3.762e-24)
(0.7644 -0.1679 -1.262e-22)
(1.001 0.002909 2.366e-22)
(0.7323 -0.1903 1.476e-21)
(0.5334 -0.11 7.273e-22)
(0.5565 0.06806 0)
(0.4855 -0.1868 2.242e-21)
(0.8749 -0.1663 6.041e-24)
(0.7175 -0.1724 -4.543e-22)
(0.6933 -0.3249 -1.83e-21)
(1.03 -0.01382 -2.488e-20)
(0.4785 0.1107 -5.743e-22)
(0.306 -0.1147 1.151e-21)
(0.1703 -0.03159 1.248e-22)
(0.1818 -0.09331 -3.16e-22)
(0.6029 -0.243 -2.334e-22)
(0.8309 -0.02735 4.617e-22)
(0.9102 -0.01309 -2.006e-21)
(1.009 0.0008671 8.359e-22)
(0.2769 -0.1221 -1.346e-21)
(0.9831 -0.01546 -1.018e-20)
(0.01757 0.003273 -1.686e-21)
(0.2099 -0.01757 -2.166e-21)
(0.9732 0.04217 -1.684e-21)
(0.005828 -0.00236 5.088e-23)
(0.9931 0.02057 8.456e-21)
(0.9663 -0.1842 -4.531e-22)
(0.9586 0.01274 -3.295e-21)
(0.3432 -0.1481 7.09e-22)
(0.7255 -0.1284 2.147e-24)
(1.012 0.7436 -3.373e-22)
(0.3092 -0.1384 3.027e-22)
(0.8859 -0.297 0)
(0.1642 -0.02644 0)
(0.01228 -0.01218 -1.41e-22)
(0.9958 -6.522e-05 0)
(0.7231 -0.1474 -2.773e-22)
(0.3711 -0.1169 -6.461e-21)
(0.5473 -0.1469 -2.23e-21)
(0.6016 -0.08526 6.489e-23)
(0.5317 -0.1844 -4.623e-21)
(0.9485 -0.01302 3.401e-22)
(0.9329 -0.2549 1.149e-21)
(0.5242 -0.3145 0)
(0.9372 -0.2678 -2.891e-21)
(0.6167 -0.162 -1.299e-21)
(0.7833 -0.1409 1.15e-23)
(0.6232 -0.3385 1.467e-21)
(0.2114 -0.2237 2.774e-21)
(0.7418 -0.1756 -1.476e-22)
(0.8874 -0.04566 -4.124e-21)
(0.722 -0.2788 -3.527e-21)
(0.9561 0.1053 0)
(0.5986 0.01772 0)
(0.6063 -0.1349 -8.144e-22)
(0.9938 -0.004967 -9.766e-21)
(0.8385 -0.1844 -3.205e-22)
(0.867 -0.1432 2.198e-21)
(1.009 0.08201 -7.618e-22)
(0.6169 -0.3344 0)
(0.9975 -0.005709 8.862e-21)
(1.016 -0.004426 -6.42e-21)
(0.4708 -0.09552 -1.049e-21)
(0.5804 -0.2035 -2.22e-21)
(0.9738 -0.1925 -2.567e-21)
(1.047 0.003703 -1.375e-20)
(0.8377 -0.315 1.929e-21)
(0.5837 0.02895 -1.172e-22)
(-0.003211 -0.01739 0)
(0.9549 -0.2388 -3.113e-21)
(0.9784 -0.004018 -1.244e-21)
(0.476 -0.09757 1.014e-22)
(0.4596 -0.1733 -2.191e-21)
(0.6104 -0.1189 7.713e-23)
(0.1764 -0.07208 1.152e-21)
(0.9983 0.008988 0)
(0.9326 -0.2733 3.738e-21)
(0.8097 -0.2289 3.938e-22)
(0.8623 -0.1638 -1.246e-21)
(0.6327 -0.3555 0)
(0.5797 -0.1117 1.921e-22)
(1.001 0.002713 0)
(0.9935 -0.05719 -6.705e-21)
(0.8047 -0.2897 1.665e-21)
(0.5646 -0.1279 0)
(0.1608 0.01612 4.198e-21)
(1.262 0.4087 -1.977e-23)
(1.004 -0.08506 6.514e-21)
(0.7524 -0.2145 2.24e-22)
(0.884 -0.245 -4.39e-22)
(0.9684 -0.1449 0)
(0.9794 -0.004088 5.517e-21)
(0.4906 -0.1874 6.243e-22)
(0.9007 -0.03836 2.325e-20)
(0.6368 -0.1759 0)
(0.6353 -0.3226 1.485e-21)
(0.9084 -0.2449 0)
(0.06429 -0.03199 0)
(1.005 0.04726 4.643e-22)
(0.2045 -0.09545 2.627e-21)
(0.6408 -0.3548 3.724e-21)
(0.9349 -0.2719 -1.869e-22)
(0.497 0.06452 1.618e-22)
(0.5053 -0.191 6.689e-21)
(0.4456 -0.3035 2.21e-21)
(0.6877 -0.1726 3.54e-21)
(0.997 -0.0002347 0)
(0.3422 -0.06103 -1.555e-23)
(0.9965 -0.2203 -2.118e-21)
(0.8586 -0.1444 8.038e-21)
(1.022 0.009626 7.531e-21)
(0.9995 0.003184 -2.112e-20)
(0.8992 -0.1649 0)
(0.9932 4.646e-05 0)
(1.013 -0.005093 -1.764e-20)
(0.5376 -0.2613 1.528e-21)
(1.162 0.08166 2.868e-23)
(0.7212 -0.1089 0)
(1.007 0.0002876 0)
(0.3089 -0.1428 2.429e-21)
(0.8179 -0.18 0)
(0.07012 -0.003938 4.676e-21)
(0.5362 -0.0943 1.987e-23)
(0.6484 -0.1315 -2.936e-22)
(0.8261 -0.1687 -2.749e-22)
(0.5374 -0.02189 1.587e-21)
(0.4417 -0.08857 0)
(0.585 -0.1314 1.16e-22)
(0.9975 -0.000179 0)
(0.9954 -1.774e-05 8.329e-22)
(1.004 0.04726 -3.146e-21)
(0.5862 -0.1848 3.106e-21)
(0.7441 -0.252 2.337e-21)
(0.9055 -0.1205 0)
(0.6122 -0.2487 0)
(0.7262 -0.2146 0)
(0.4724 -0.07625 -5.423e-23)
(0.8882 -0.2326 3.456e-22)
(1.063 0.04413 0)
(0.4385 -0.07487 -1.347e-23)
(0.5929 0.02964 0)
(1.062 0.05163 0)
(1.006 0.005142 0)
(0.2615 -0.07793 -9.039e-22)
(0.8294 -0.3327 1.106e-21)
(0.9211 -0.1496 3.291e-22)
(0.9826 -0.01072 3.556e-21)
(0.7291 -0.1399 -6.888e-23)
(0.4888 0.1534 0)
(0.7535 -0.1568 6.524e-23)
(0.9812 0.002206 1.383e-20)
(0.9117 -0.2881 1.591e-21)
(0.5272 -0.1385 0)
(0.9391 -0.08049 4.86e-21)
(0.2937 -0.1297 0)
(0.911 -0.01308 -1.98e-21)
(0.9072 -0.2072 0)
(0.009466 0.09277 -1.518e-22)
(1.007 -0.002435 0)
(0.7726 -0.3512 -3.323e-21)
(0.8925 -0.2992 1.391e-22)
(0.7257 -0.1096 -1.565e-23)
(0.6232 -0.3398 -1.481e-21)
(0.9933 0.01989 0)
(0.2314 -0.116 0)
(0.4258 -0.07966 0)
(0.5463 -0.1046 1.131e-23)
(0.839 -0.3151 -1.882e-21)
(0.8086 -0.0666 -1.266e-22)
(0.8967 -0.1649 0)
(1.007 -0.001016 -8.894e-20)
(0.5718 0.2008 0)
(0.8222 -0.0174 5.803e-21)
(0.8069 -0.1368 2.109e-23)
(0.1225 -0.07862 3.314e-21)
(0.1505 -0.07463 -8.787e-22)
(0.5012 -0.183 1.934e-21)
(0.6978 -0.1426 1.079e-22)
(0.4019 -0.08316 0)
(1.001 0.09485 1.6e-22)
(0.9458 -0.1418 7.877e-24)
(0.04859 -0.0239 -1.908e-22)
(1.064 0.03609 -4.164e-22)
(0.1832 -0.05096 -5.121e-21)
(8.715e-05 -0.0003198 0)
(0.7199 -0.03455 -2.729e-21)
(1.079 -0.09657 1.538e-20)
(1.253 0.4274 2.871e-21)
(1.008 -0.007146 0)
(0.1206 -0.02649 -5.35e-22)
(0.563 -0.2536 0)
(0.995 3.392e-05 -4.823e-22)
(0.3394 -0.1442 2.222e-21)
(0.9999 0.0003341 7.331e-20)
(0.8004 -0.03172 2.571e-21)
(0.8733 -0.03271 0)
(0.8861 -0.2974 1.277e-21)
(0.8101 -0.007383 0)
(1.013 -0.1986 -2.423e-21)
(0.5131 -0.1838 -5.156e-22)
(0.7643 -0.05383 -1.537e-21)
(0.5275 -0.09856 0)
(0.9883 0.4757 0)
(0.1512 -0.1753 -2.474e-21)
(0.4811 0.1076 5.977e-21)
(0.5264 -0.09706 3.669e-23)
(0.9848 0.06744 4.81e-21)
(0.3518 -0.05706 2.3e-22)
(1 0.0001611 3.177e-20)
(0.4909 -0.1701 0)
(0.5406 -0.1946 -2.108e-21)
(1.002 -0.0008444 5.169e-20)
(0.04543 -0.006566 0)
(0.9341 -0.254 2.133e-21)
(0.8969 -0.2189 0)
(0.2883 -0.1249 -4.06e-21)
(0.08682 -0.01482 9.143e-23)
(0.8699 -0.2262 -8.759e-22)
(0.09195 0.1293 -7.425e-23)
(0.658 -0.1715 -2.373e-21)
(0.5438 -0.1005 -3.573e-23)
(1.015 -0.004113 0)
(0.1806 -0.07819 -7.118e-21)
(0.1879 -0.0447 0)
(0.06632 0.3306 -4.321e-22)
(0.5323 -0.1832 -4.117e-21)
(1.002 -0.0007171 5.126e-20)
(0.2289 -0.02212 1.689e-24)
(0.7906 -0.3111 1.438e-21)
(1.006 -0.007902 -7.223e-21)
(0.7773 -0.1866 2.408e-22)
(0.6188 -0.1869 0)
(0.5744 -0.1086 0)
(0.5597 -0.09831 -1.332e-23)
(1.006 0.004803 -5.287e-21)
(0.6814 0.3464 -1.38e-21)
(0.3495 -0.05882 -8.211e-23)
(0.9719 -0.008779 -7.677e-22)
(0.3542 -0.05963 -1.644e-22)
(0.6237 -0.1366 0)
(0.2975 -0.1316 -2.285e-21)
(0.8093 -0.2119 1.073e-21)
(0.6482 -0.2084 -5.185e-21)
(0.521 -0.1906 2.501e-21)
(0.7279 -0.1486 8.806e-23)
(0.2832 -0.1347 1.01e-21)
(1.007 -0.1345 -2.757e-24)
(0.9788 8.189e-05 -7.139e-21)
(0.3963 -0.06742 7.799e-23)
(0.5489 -0.03252 0)
(0.8471 -0.2185 -1.117e-21)
(0.1412 -0.07398 -5.797e-22)
(0.6995 -0.1423 -2.335e-22)
(0.9978 -0.2191 1.025e-21)
(0.618 -0.1869 0)
(0.766 -0.1684 0)
(0.9388 -0.2094 -2.601e-22)
(0.9946 0.0007074 -2.177e-20)
(0.9066 -0.2927 0)
(0.9497 -0.07504 -1.496e-21)
(1.008 0.0002952 -5.373e-21)
(0.9732 0.04031 1.875e-21)
(0.6791 -0.1268 -3.136e-23)
(0.5937 -0.1304 -1.026e-21)
(0.9103 -0.246 0)
(0.9792 0.01445 0)
(1.016 -0.07705 3.428e-22)
(0.8622 -0.1418 -5.161e-23)
(0.8072 -0.1478 2.379e-24)
(0.9673 -0.2434 2.827e-23)
(0.5711 -0.09436 1.117e-22)
(0.5287 -0.07986 -1.404e-20)
(1.047 0.007513 1.164e-20)
(0.9708 -0.1842 0)
(0.9836 -0.06875 -1.711e-21)
(0.902 -0.1645 0)
(0.3844 0.01019 -2.568e-22)
(0.3972 -0.1657 -6.617e-22)
(1.012 -0.2003 1.718e-21)
(0.968 -0.2431 -2.937e-23)
(0.6811 -0.2122 1.806e-21)
(0.9984 0.008533 0)
(0.2876 -0.1308 0)
(0.9932 8.352e-05 8.275e-22)
(0.8312 -0.2688 -8.271e-22)
(1.198 0.4023 1.061e-21)
(0.5746 -0.2615 -2.293e-21)
(0.9944 0.001557 9.937e-22)
(0.9598 0.01153 -2.021e-21)
(0.7283 -0.1896 -1.023e-21)
(0.1911 -0.1235 -6.873e-23)
(0.06332 -0.03098 4.09e-22)
(0.9507 -0.2571 3.343e-21)
(0.8327 -0.2569 0)
(0.5471 -0.02161 -1.747e-21)
(0.2789 -0.1233 2.14e-21)
(0.8093 -0.1658 1.577e-22)
(1.004 -0.0004614 4.552e-22)
(0.9318 -0.2738 0)
(0.8162 -0.1737 -4.617e-23)
(0.996 -0.03115 -4.36e-22)
(0.9471 -0.04806 0)
(0.6701 -0.2067 4.979e-21)
(0.245 -0.06242 2.808e-21)
(0.7503 -0.2717 0)
(0.4153 -0.1622 -2.579e-21)
(0.9998 -0.003701 -6.84e-22)
(0.834 -0.01544 2.136e-21)
(0.6485 -0.1992 2.612e-21)
(0.8264 -0.2581 0)
(1.007 0.003111 2.34e-22)
(0.644 -0.1653 1.273e-21)
(1.001 -0.1754 0)
(0.329 -0.03497 -8.529e-23)
(0.6703 -0.1366 4.051e-23)
(0.3397 -0.1511 2.748e-22)
(0.8325 -0.3216 0)
(0.895 -0.2183 0)
(0.5176 -0.1758 0)
(0.9798 0.0003549 0)
(0.8015 -0.2697 1.351e-21)
(0.4827 -0.09158 -1.68e-22)
(1.26 0.4089 -2.908e-21)
(0.2642 -0.05275 0)
(0.8184 0.829 -9.927e-23)
(0.9976 -0.02548 2.365e-20)
(0.1289 -0.05355 0)
(0.6492 -0.1775 1.354e-22)
(0.8714 -0.1827 4.407e-22)
(0.3732 -0.1486 9.948e-22)
(0.1244 -0.05827 -4.829e-22)
(0.4924 -0.1024 5.96e-22)
(0.9606 -0.2134 9.158e-22)
(1.057 -0.1109 0)
(0.5351 -0.1325 0)
(0.8075 -0.06595 0)
(0.2028 -0.09679 -3.693e-22)
(0.3462 -0.1492 0)
(0.7468 -0.1776 0)
(0.532 -0.09327 0)
(0.623 -0.08964 -3.905e-23)
(0.9772 0.04183 0)
(0.9951 0.0005999 1.957e-20)
(0.9817 -0.0683 1.479e-21)
(0.4918 -0.1699 -3.767e-21)
(0.4946 -0.09955 0)
(1.005 -0.006856 2.109e-20)
(0.533 -0.04594 1.477e-21)
(0.3059 -0.1388 -1.943e-21)
(0.9782 0.04265 -1.552e-21)
(0.7896 -0.3219 3.708e-22)
(0.233 -0.118 7.011e-22)
(1.012 -0.001784 0)
(0.8609 -0.2435 -7.394e-22)
(0.9972 -0.0002674 0)
(0.9934 -0.1647 0)
(1.128 -0.07177 0)
(1.006 0.0002322 1.611e-21)
(0.5884 -0.1874 -2.285e-21)
(0.1194 -0.06427 3.608e-22)
(0.8021 -0.01741 -3.186e-21)
(0.986 -0.02239 3.181e-23)
(0.6609 -0.1656 -7.771e-22)
(0.2308 -0.1162 -3.269e-22)
(1.127 -0.08089 3.055e-21)
(0.2898 -0.1264 3.176e-21)
(0.1712 -0.03052 1.52e-23)
(0.03926 -0.04209 0)
(0.558 -0.1491 0)
(0.809 -0.1213 -2.898e-23)
(0.8907 -0.233 0)
(1.013 -0.001719 2.445e-20)
(0.6295 -0.1781 2.053e-21)
(1.016 -0.002932 -2.071e-20)
(0.7327 -0.1289 0)
(0.05514 -0.02552 4.083e-21)
(0.9135 -0.2176 0)
(0.837 -0.2713 1.999e-22)
(0.6818 -0.1639 0)
(0.6688 -0.2584 0)
(1.011 -0.001595 1.42e-20)
(1.008 -0.002213 0)
(0.6574 -0.01042 -1.081e-23)
(0.8653 -0.1411 5.187e-23)
(0.9985 -0.003887 1.699e-21)
(0.4164 -0.3232 0)
(0.8509 -0.1349 6.084e-21)
(0.8618 -0.2369 -1.34e-21)
(0.8676 -0.09515 -1.312e-20)
(0.5693 -0.1133 1.72e-22)
(0.7172 -0.1342 0)
(0.3909 -0.07374 -2.832e-22)
(1.004 -0.0004107 -5.801e-23)
(0.6244 -0.1968 -7.028e-22)
(0.9877 0.756 0)
(0.8927 -0.2038 4.299e-22)
(0.9426 -0.2399 -1.041e-21)
(1.003 0.0008856 -3.279e-23)
(0.2382 -0.1032 5.192e-22)
(0.2669 -0.1151 0)
(0.3584 -0.1562 1.051e-21)
(0.9079 -0.2076 2.012e-22)
(0.8707 -0.1831 2.87e-21)
(0.1874 -0.202 1.565e-21)
(1.002 -0.02572 -7.514e-21)
(0.2885 -0.1306 -3.599e-22)
(0.2761 -0.1186 0)
(0.5465 -0.1746 3.668e-21)
(0.9841 -0.01523 6.741e-21)
(1.189 0.3157 -1.406e-23)
(1.009 0.0003893 -1.389e-21)
(0.7806 -0.2223 1.351e-21)
(0.3319 -0.1453 6.641e-22)
(0.9884 -0.01798 0)
(0.5084 -0.1775 0)
(0.7644 -0.1563 1.005e-22)
(0.7374 -0.1455 -9.116e-23)
(0.4504 0.6067 8.905e-22)
(0.5392 -0.1342 -1.815e-21)
(0.8459 -0.1848 -1.6e-22)
(0.72 -0.1059 0)
(0.9013 -0.01787 -1.217e-21)
(0.7319 -0.141 8.323e-23)
(0.9202 -0.146 0)
(0.8245 -0.1828 -3.504e-22)
(1.007 0.08103 0)
(1.019 -0.1468 -2.052e-23)
(0.8418 -0.1906 2.227e-22)
(1.016 -0.003466 0)
(0.2911 -0.1214 3.74e-21)
(0.9861 -0.01756 -5.971e-21)
(0.9979 -0.07232 0)
(0.366 -0.1479 1.937e-21)
(0.9884 -0.01721 0)
(0.9593 -0.004301 -1.338e-20)
(0.9065 -0.2933 7.756e-22)
(0.9299 -0.1495 1.007e-21)
(1.006 -0.006568 -5.523e-21)
(1.005 0.001189 -2.395e-21)
(0.4592 -0.15 2.198e-21)
(1.001 -0.08704 6.072e-21)
(0.9126 -0.03211 -4.454e-22)
(0.3879 -0.07568 1.321e-23)
(1.082 0.7291 2.601e-22)
(0.565 -0.1015 -4.697e-25)
(0.9084 -0.01194 1.052e-21)
(0.7229 -0.1469 0)
(0.9968 -0.0002534 2.639e-22)
(0.07346 -0.0331 0)
(0.04321 0.1207 -9.65e-25)
(1.016 -0.09639 -6.264e-23)
(0.348 -0.2916 5.695e-21)
(1.014 -0.08852 4.352e-21)
(0.9983 -0.02097 4.064e-21)
(0.3892 -0.1576 5.96e-22)
(0.8215 -0.1808 0)
(0.5916 -0.11 4.33e-23)
(0.8521 -0.3005 -2.349e-21)
(0.1904 -0.08527 -2.788e-21)
(0.193 -0.0604 -5.52e-21)
(0.7583 -0.1778 0)
(0.142 -0.0688 0)
(0.5506 -0.1898 1.655e-21)
(0.9964 0.002917 -3.334e-20)
(0.8452 -0.3104 0)
(0.789 -0.299 1.551e-21)
(0.2919 -0.05616 1.947e-23)
(0.9235 -0.1576 -2.052e-21)
(0.741 -0.2358 -1.149e-21)
(0.3015 -0.06317 1.637e-22)
(1.001 -0.09336 -1.601e-21)
(0.9935 -0.01071 -1.853e-20)
(0.5496 -0.2406 -2.175e-21)
(0.7929 -0.3473 0)
(0.2779 -0.1638 0)
(0.9669 -0.0167 -8.383e-22)
(0.7537 -0.2388 1.132e-21)
(0.7793 -0.08399 -1.225e-22)
(0.2668 0.6337 0)
(0.2127 0.7146 8.552e-22)
(1.024 0.05214 1.674e-21)
(0.5886 0.8576 -2.601e-22)
(0.2659 -0.1168 -5.738e-22)
(0.8473 -0.1767 -5.247e-23)
(0.4776 -0.05747 8.94e-21)
(0.6166 -0.0189 1.797e-22)
(1.006 0.001757 1.847e-20)
(0.6016 -0.1472 0)
(0.4009 -0.1485 3.23e-21)
(0.08039 0.1262 -2.92e-22)
(1.002 0.002599 5.279e-21)
(0.7228 -0.1085 -1.235e-22)
(0.9942 -0.03273 1.227e-20)
(0.4464 -0.2812 -2.457e-21)
(0.6968 -0.3227 0)
(0.9996 0.002938 2.039e-22)
(0.9709 -0.004711 4.479e-22)
(1.001 -0.06596 -2.903e-22)
(0.413 -0.08289 2.494e-22)
(0.1594 -0.07584 6.889e-22)
(0.6566 -0.1823 0)
(0.7338 -0.1163 1.022e-20)
(0.7702 -0.1346 5.544e-24)
(0.469 -0.09005 6.937e-22)
(0.7396 -0.2003 -1.502e-21)
(0.05453 -0.02774 -4.529e-22)
(0.6802 -0.2662 -4.666e-21)
(1.016 -0.0001096 -6.178e-20)
(1.011 -0.007307 0)
(0.9981 -0.02805 0)
(0.08313 0.02618 -2.247e-21)
(1.01 0.001702 0)
(0.7938 -0.1548 9.366e-23)
(0.7972 -0.2276 6.654e-21)
(0.8843 -0.2304 2.031e-21)
(0.5147 -0.1166 7.483e-22)
(0.7139 -0.1491 2.464e-22)
(0.04514 -0.02538 -5.671e-25)
(0.4509 -0.1796 0)
(0.8673 -0.2677 -9.678e-22)
(0.09349 -0.01659 1.529e-23)
(0.4781 -0.02409 7.66e-22)
(1.003 -0.0002918 -6.68e-21)
(0.1422 -0.06123 -6.49e-21)
(0.6076 -0.1488 -1.834e-21)
(0.9983 -0.0002471 1.575e-21)
(0.6648 -0.07626 5.535e-21)
(0.4851 -0.05585 -1.049e-21)
(0.3908 -0.1107 1.87e-23)
(0.5673 -0.1879 -3.131e-21)
(1.04 0.002581 -1.659e-20)
(0.7171 -0.3205 -8.223e-22)
(0.8924 -0.2556 0)
(0.7442 -0.1389 1.173e-23)
(0.7589 -0.09223 -1.641e-22)
(0.4088 -0.2408 -1.414e-21)
(0.1949 -0.08559 0)
(0.4157 -0.0468 0)
(0.829 -0.2345 0)
(1.082 -0.1095 0)
(0.9194 -0.127 0)
(0.4528 -0.09007 0)
(0.6756 -0.173 0)
(0.1983 -0.08796 5.58e-21)
(0.3236 -0.1181 -8.172e-22)
(0.2663 -0.06035 -2.996e-22)
(1.005 -0.146 8.618e-23)
(0.7543 -0.1261 1.727e-23)
(1.002 0.00187 -1.296e-20)
(0.9826 0.03174 -1.686e-20)
(0.9898 -0.008152 6.396e-21)
(0.7482 -0.2102 0)
(0.3538 -0.1732 0)
(0.7339 -0.1976 0)
(0.6305 0.06487 1.631e-22)
(0.9424 -0.2393 1.011e-21)
(0.8182 -0.1833 -2.915e-22)
(0.8026 -0.3375 0)
(0.6814 -0.1775 1.002e-21)
(0.04631 -0.01891 0)
(0.4171 -0.1584 -1.969e-21)
(1 -0.02235 -4.968e-21)
(1.002 4.783e-05 7.068e-21)
(0.1023 -0.05882 1.132e-22)
(0.04618 -0.01904 -8.157e-21)
(1.006 0.0002078 -2.016e-20)
(0.6564 -0.02397 4.275e-21)
(0.5543 -0.1056 1.031e-22)
(0.9268 0.07716 0)
(0.6391 -0.1326 1.459e-22)
(0.01539 -0.007945 7.564e-22)
(0.1357 -0.03432 3.795e-21)
(0.9859 -0.07143 0)
(0.1667 0.08607 -1.32e-24)
(0.09634 -0.05436 -5.571e-21)
(0.6984 -0.1834 -1.543e-21)
(0.9227 -0.2738 5.194e-22)
(-0.005143 0.0229 1.305e-21)
(0.5926 -0.1736 0)
(0.08912 -0.0411 1.575e-21)
(1.016 -0.0003374 2.418e-21)
(0.7492 -0.2069 1.479e-21)
(0.8529 -0.3111 1.364e-21)
(0.9843 0.0657 -2.121e-21)
(0.1931 -0.1839 -4.27e-22)
(1.013 0.02186 1.475e-22)
(1.001 -0.0002185 5.246e-20)
(0.7787 -0.1774 4.314e-22)
(0.3007 -0.1386 -1.328e-21)
(1.131 0.05722 -9.924e-21)
(0.4454 -0.05621 2.198e-21)
(0.9535 -0.2083 0)
(0.9957 0.0009113 0)
(0.4159 -0.1627 -2.52e-21)
(0.622 -0.1132 1.389e-23)
(1.012 -0.08778 -5.739e-24)
(0.6382 -0.3357 -3.045e-21)
(0.9115 -0.2164 -4.961e-22)
(0.9845 -0.0251 -4.607e-21)
(0.06251 -0.02897 1.231e-22)
(0.7686 -0.3016 -1.822e-21)
(0.2055 0.4682 0)
(0.8121 -0.03605 0)
(1.001 -0.0001941 -9.105e-20)
(0.03777 -0.006477 3.086e-24)
(1.006 0.01168 0)
(0.3512 -0.2968 -2.519e-21)
(0.2416 -0.1027 -3.283e-22)
(0.7057 0.1101 0)
(0.5459 -0.1809 -9.881e-21)
(0.4945 -0.09841 -1.863e-22)
(1.026 -0.1438 0)
(0.2661 -0.1158 1.67e-21)
(0.04947 -0.01816 4.877e-21)
(1.114 0.2139 3.332e-21)
(0.7955 -0.1923 1.967e-22)
(1.144 0.6588 0)
(0.07627 0.004887 7.068e-23)
(0.7223 -0.2771 1.769e-21)
(0.3376 -0.0416 7.834e-21)
(0.9925 0.01189 1.268e-20)
(0.5331 -0.1822 0)
(0.7037 -0.1778 0)
(0.6898 -0.1315 0)
(0.8288 -0.04459 1.092e-20)
(0.9703 -0.1721 0)
(1.025 0.001604 1.498e-20)
(0.284 -0.04991 3.232e-23)
(0.4563 -0.1409 -1.039e-21)
(0.2282 -0.105 1.169e-21)
(0.7463 -0.125 -1.532e-23)
(0.9958 0.001545 -1.886e-22)
(0.9375 -0.1307 0)
(0.6998 -0.2394 -2.217e-21)
(1.042 0.359 -2.794e-22)
(-0.002918 -0.01259 -2.277e-23)
(0.4266 -0.1717 0)
(0.3172 0.05201 -5.489e-23)
(0.4154 -0.08722 3.793e-21)
(0.8529 -0.04909 3.736e-22)
(0.9522 0.09235 2.47e-21)
(0.8144 -0.1891 0)
(0.5303 -0.09462 -1.222e-23)
(0.9862 0.0003661 4.784e-22)
(0.9862 0.0004989 1.809e-20)
(0.8348 -0.1897 2.622e-22)
(0.8145 -0.2126 1.045e-23)
(0.8296 -0.152 8.258e-23)
(0.7694 -0.1865 2.491e-21)
(0.2835 -0.1232 6.832e-22)
(0.7788 -0.2974 -1.403e-21)
(0.9883 0.001243 0)
(1.001 -0.005766 8.891e-20)
(0.5959 -0.1032 -1.74e-24)
(0.7028 -0.119 -5.639e-23)
(0.3884 -0.2135 -3.128e-21)
(0.9728 -0.1901 2.826e-22)
(0.9481 -0.2411 0)
(1.016 0.0003678 -1.962e-20)
(1.005 0.001773 -8.803e-23)
(1.007 0.0503 0)
(0.09793 -0.04678 7.484e-22)
(0.1654 -0.07796 -9.361e-22)
(0.4969 -0.1729 1.378e-21)
(0.0366 -0.01624 0)
(0.9354 -0.2577 1.461e-21)
(0.5676 -0.09445 0)
(1.012 0.008134 0)
(0.3105 -0.0687 -8.15e-21)
(0.6374 -0.1944 -4.478e-21)
(1.011 -0.2045 0)
(0.3782 -0.2072 1.877e-21)
(1.017 0.001685 -1.252e-20)
(0.5638 -0.1237 0)
(1.014 0.01087 -1.029e-21)
(0.1795 -0.03889 5.071e-22)
(0.9968 0.0008097 -2.041e-22)
(0.9059 -0.1177 0)
(0.1103 -0.0257 -9.603e-21)
(0.01972 -0.008995 4.921e-23)
(0.1873 0.002325 -1.043e-24)
(0.7838 -0.224 -1.504e-22)
(0.6994 -0.2729 2.03e-21)
(0.5708 -0.1254 0)
(0.1606 -0.07947 -2.133e-21)
(0.4372 -0.1765 0)
(0.7826 -0.3309 2.299e-21)
(1.031 0.1209 0)
(1.012 -0.08505 -2.078e-21)
(0.5729 -0.1518 -1.979e-21)
(0.6236 -0.1611 0)
(0.7863 -0.1633 0)
(0.07087 -0.0243 -6.523e-22)
(0.8482 -0.1814 0)
(0.3334 -0.06045 3.937e-23)
(0.07173 -0.0947 -5.139e-21)
(1.002 0.0008678 0)
(0.9267 0.1939 0)
(0.6443 -0.2659 1.506e-21)
(1 5.332e-05 -7.424e-22)
(0.5532 -0.1178 1.681e-21)
(0.1043 -0.02233 0)
(0.7898 -0.1858 0)
(0.7874 -0.2526 2.642e-21)
(0.5891 -0.1082 -8.241e-24)
(1.015 -0.002386 3.77e-20)
(0.1937 -0.03393 3.615e-23)
(0.483 -0.06095 0)
(0.3053 -0.1297 0)
(1.009 -0.0005611 2.445e-20)
(0.7134 -0.2122 0)
(0.8928 -0.1938 -1.894e-22)
(0.516 -0.1213 -4.304e-21)
(0.08878 -0.04367 4.852e-25)
(0.8085 -0.1965 -1.323e-21)
(0.4144 -0.1695 -1.616e-23)
(0.2679 -0.04911 5.101e-22)
(0.761 -0.1191 0)
(0.1569 -0.02939 -8.305e-21)
(0.802 -0.1493 5.395e-23)
(0.848 -0.2197 -5.067e-21)
(0.04031 -0.09717 -1.756e-22)
(0.9503 0.01832 0)
(1.026 0.01238 -2.045e-21)
(1.016 -0.0001879 3e-20)
(0.7108 -0.2141 -1.037e-20)
(0.1708 -0.08166 -1.433e-21)
(0.3449 -0.1508 2.959e-21)
(0.8289 -0.06644 4.771e-23)
(0.5111 -0.1903 4.726e-21)
(0.822 -0.2601 5.827e-23)
(0.9512 -0.1939 6.173e-22)
(0.6658 -0.1734 -2.436e-21)
(0.2574 -0.1128 -3.455e-21)
(0.8179 -0.1681 3.67e-23)
(0.1556 -0.06415 1.423e-21)
(0.279 -0.1115 0)
(0.3305 -0.1418 -2.082e-21)
(0.02495 -0.01226 0)
(0.1253 -0.04545 0)
(0.8906 -0.04682 1.309e-21)
(0.9315 -0.2608 8.561e-22)
(1.015 0.04587 -3.003e-22)
(0.2054 -0.1003 0)
(0.9551 -0.1372 4.536e-22)
(0.8379 -0.2122 -6.34e-22)
(0.221 -0.1259 -3.784e-22)
(0.7805 -0.05283 0)
(0.2354 -0.1053 0)
(0.9298 0.2155 -1.925e-21)
(0.3996 -0.1646 0)
(0.4054 -0.1623 -3.312e-21)
(0.4595 -0.2588 2.564e-21)
(0.9933 0.01527 -7.913e-21)
(0.7646 -0.1767 7.893e-22)
(0.7226 -0.1446 -2.001e-22)
(0.1675 -0.07082 -1.277e-22)
(0.6683 -0.1319 -2.725e-22)
(0.406 -0.1984 2.859e-21)
(0.4045 -0.1665 0)
(0.7089 -0.129 -3.547e-24)
(0.5207 -0.1819 0)
(1.001 0.00931 -1.932e-20)
(0.1924 -0.1754 -1.015e-22)
(0.2909 -0.127 3.161e-21)
(0.9517 -0.09427 -2.221e-21)
(0.2978 -0.1315 -1.163e-21)
(0.81 -0.2667 2.251e-21)
(0.2885 -0.131 -1.495e-21)
(0.9946 0.0002105 0)
(0.9994 0.0007822 0)
(1.006 -0.0001166 0)
(0.3485 -0.09805 -1.254e-20)
(0.1434 -0.06943 0)
(0.8186 -0.3277 2.493e-22)
(0.4217 -0.03955 -5.701e-21)
(0.8896 -0.2283 -6.779e-22)
(0.8673 -0.05239 -6.6e-22)
(0.4887 -0.1873 -4.225e-21)
(1.019 -0.1313 2.145e-23)
(0.393 -0.1053 -2.074e-21)
(0.7611 -0.1557 0)
(0.4346 -0.07333 -7.378e-23)
(0.5213 -0.1174 4.575e-21)
(0.9488 -0.04277 -2.147e-21)
(0.5983 -0.2881 5.636e-22)
(0.8608 -0.2044 1.089e-21)
(0.3616 0.02488 -4.786e-21)
(0.9744 -0.03294 6.462e-21)
(0.6229 -0.02619 3.171e-21)
(0.6977 -0.1327 -3.751e-23)
(0.6868 -0.3303 2.375e-22)
(0.03148 -0.01413 0)
(1.002 -0.001925 0)
(1.021 0.01548 3.834e-21)
(0.9238 -0.1191 -1.097e-21)
(0.8738 -0.1667 0)
(0.681 -0.1348 0)
(0.5367 -0.1161 5.274e-22)
(0.8632 -0.2373 1.385e-21)
(0.9548 -0.2399 -3.923e-22)
(0.8717 -0.2014 0)
(0.6691 -0.1054 -2.948e-21)
(0.9979 -0.0004885 -3.15e-20)
(0.6725 -0.144 -9.551e-24)
(0.1426 -0.05779 0)
(0.9975 -0.0001365 1.427e-21)
(0.9643 -0.06769 -1.598e-21)
(0.597 -0.1232 6.092e-24)
(0.8879 -0.149 0)
(0.2119 -0.09977 0)
(0.1703 -0.07759 0)
(0.8269 -0.2055 0)
(0.08296 -0.01434 -3.559e-23)
(0.798 -0.2431 0)
(0.388 -0.1581 2.113e-22)
(1.024 0.1272 -4.503e-22)
(0.2172 -0.09208 -7.174e-21)
(0.5869 -0.1378 1.061e-21)
(0.8063 -0.1279 5.271e-23)
(0.7311 -0.2793 -9.436e-22)
(0.6537 -0.3134 0)
(0.8649 -0.195 0)
(0.2763 -0.1257 -2.385e-21)
(0.2693 -0.1257 1.652e-21)
(1.002 0.002272 0)
(0.9964 0.0003559 1.292e-20)
(1.007 -0.00168 0)
(0.6198 -0.1206 6.149e-23)
(0.8276 0.07081 0)
(0.6406 0.13 -5.316e-21)
(0.8087 -0.1453 -2.384e-20)
(0.9377 -0.2667 5.191e-21)
(1.005 0.01019 5.646e-21)
(0.6977 -0.1785 -4.516e-22)
(0.8805 -0.1364 -2.032e-21)
(0.852 -0.2125 -3.034e-22)
(0.6964 -0.1639 -9.945e-22)
(0.7381 -0.2866 2.974e-21)
(1.047 0.05131 -9.605e-21)
(0.9398 -0.03249 -8.8e-22)
(1.019 -0.1957 1.214e-21)
(0.7997 -0.0873 -4.071e-21)
(0.7572 -0.2249 0)
(1.018 -0.1793 9.564e-24)
(0.5344 -0.1107 -1.232e-21)
(0.7044 -0.1365 0)
(0.9573 -0.1219 0)
(0.2363 -0.1068 -2.479e-21)
(0.8538 -0.1578 0)
(0.3195 -0.1371 -6.664e-22)
(0.06109 0.5456 -2.893e-21)
(0.994 -0.006276 9.875e-21)
(0.8441 -0.2903 0)
(0.7881 -0.2057 -8.342e-21)
(0.1132 -0.06071 -4.901e-21)
(0.5894 -0.1357 0)
(0.6692 -0.1642 0)
(0.794 -0.1553 -8.829e-23)
(0.2977 -0.1084 0)
(0.2449 -0.1027 0)
(0.9359 -0.2541 3.604e-22)
(0.9127 -0.2622 -2.333e-21)
(0.9987 0.001354 -1.054e-19)
(1.062 -0.06224 5.4e-21)
(0.5918 -0.2837 -5.806e-22)
(0.6664 -0.1371 -2.227e-22)
(1.002 0.001032 8.547e-21)
(0.952 -0.2097 -8.646e-22)
(0.2067 -0.09868 -1.597e-22)
(0.2955 -0.1179 0)
(0.7376 -0.03138 4.475e-22)
(0.3999 -0.1571 -8.21e-22)
(1.066 0.08621 2.847e-21)
(0.6077 -0.1369 7.825e-22)
(0.9818 -0.1988 0)
(0.8333 -0.03887 4.422e-22)
(1.055 0.707 8.226e-22)
(0.5259 -0.1787 0)
(0.005797 0.002552 2.389e-21)
(0.9475 -0.2485 -4.561e-21)
(1.002 0.001068 3.918e-21)
(0.4918 0.03687 -5.014e-22)
(0.9809 0.001252 1.597e-20)
(0.9337 -0.06577 -3.797e-21)
(0.0004629 6.024e-06 5.565e-24)
(0.8014 -0.3356 0)
(0.1696 -0.01894 -1.838e-24)
(1.015 -0.1005 1.697e-21)
(0.7158 -0.3622 -7.342e-22)
(0.9244 -0.09743 3.246e-22)
(1.016 7.786e-05 -2.754e-20)
(0.3521 -0.1487 1.907e-21)
(0.8744 -0.2183 -6.953e-22)
(1.013 -0.00165 0)
(0.985 -0.1196 1.851e-21)
(0.08354 0.04165 1.405e-22)
(0.03831 -0.01704 7.989e-21)
(0.4468 0.05137 2.689e-22)
(0.849 -0.1117 -3.239e-23)
(0.4692 -0.08825 0)
(0.9967 0.001085 8.533e-21)
(0.3508 0.02898 0)
(1.027 -0.1158 1.178e-22)
(0.3897 -0.1618 -1.825e-21)
(0.2844 -0.1322 -2.159e-21)
(0.8943 -0.2935 0)
(1.001 -0.001817 0)
(0.2046 -0.09766 6.815e-22)
(0.9008 -0.1618 -2.144e-21)
(-0.002649 -0.01245 0)
(1.009 -0.1775 0)
(0.492 -0.1101 7.443e-22)
(0.5609 -0.005037 -1.259e-23)