/*--------------------------------*- C++ -*----------------------------------*\
  =========                 |
  \\      /  F ield         | OpenFOAM: The Open Source CFD Toolbox
   \\    /   O peration     | Website:  https://openfoam.org
    \\  /    A nd           | Version:  8
     \\/     M anipulation  |
\*---------------------------------------------------------------------------*/
FoamFile
{
    version     2.0;
    format      ascii;
    class       volScalarField;
    location    "15";
    object      epsilon;
}
// * * * * * * * * * * * * * * * * * * * * * * * * * * * * * * * * * * * * * //

dimensions      [0 2 -3 0 0 0 0];

internalField   nonuniform List<scalar> 
127143
(
86.68
57.44
39.33
33.56
190.2
34.81
262.3
252.8
283
65.5
398.3
326
71.47
34.18
12.63
7.703
24.57
0.08354
0.1239
8.337
0.4608
3.532
0.1359
1.133
3.575
3.392
10.94
11.09
11.87
0.06625
1.593
3.483
28.02
2.261
0.06799
27.88
0.3475
0.3827
0.9405
2.899
0.1236
1.175
0.9786
33.46
0.08403
2.201
11.45
0.2339
1.504
1.008
6.755
0.02199
0.9273
0.2366
0.005278
3.047
0.005091
0.1487
0.01312
0.235
0.9493
0.1725
0.5219
0.09658
3.407
0.4892
0.06718
0.5695
0.5572
0.0008088
1.254
10.02
0.1522
0.01313
0.02705
10.04
0.01723
0.336
2.984
0.1318
11.63
8.02
1.559
2.581
0.1834
0.306
0.8109
14.07
0.4696
10.86
0.01599
0.1517
8.458
0.4587
0.9721
0.08692
1.103
1.789
0.3065
0.06556
0.1332
1.432
23.96
0.2767
0.2982
0.3122
0.7908
0.0008155
1.146
0.01753
11.8
13.94
0.645
5.257
0.02067
0.3368
0.01773
0.02705
0.01716
4.581
0.01671
1.41
1.689
0.1253
10.99
3.475
0.2214
0.01662
1.543
3.519
0.4714
0.8563
0.4067
0.331
8.344
0.4621
0.03698
0.418
12.65
0.03878
0.2006
0.01738
0.6712
0.4121
0.9153
3.491
57.7
0.1068
0.8781
28.47
0.3025
1.541
0.3739
0.1581
5.308
0.1812
0.1481
4.546
0.2311
1.879
1.288
44.71
0.01618
0.4695
4.651
3.151
0.3955
0.843
10.94
0.02287
0.8394
0.4108
0.3885
1.027
0.003691
0.3189
3.685
1.532
1.026
0.01864
1.028
0.0299
0.331
0.3166
3.418
0.1701
0.2279
5.073
1.055
0.02119
1.021
1.431
0.03586
10.48
10.88
0.2604
0.112
0.112
18.88
0.01839
0.01691
0.02349
0.03761
0.3336
28.07
0.6916
0.06755
0.5461
0.06368
0.02085
0.07954
0.2078
0.01555
10.82
0.5861
17.72
1.211
0.616
0.6173
0.06666
3.403
0.02937
1.587
0.9001
2.042
0.8714
4.025
0.3784
0.6246
0.2514
0.4892
0.02933
0.1471
8.181
0.4849
0.09063
0.4693
42.43
0.01682
0.8931
1.393
3.188
0.26
4.427
0.6416
4.357
1.247
10.57
7.142
0.001441
1.659
2.379
0.8119
0.4641
2.262
1.129
0.01649
10.74
0.7015
0.1185
0.2832
0.02383
0.1487
0.01739
0.945
3.208
0.6688
6.505
1.153
0.5562
3.047
0.003601
0.2069
0.9015
0.4128
1.001
0.6371
1.177
0.00608
0.8225
0.002484
0.09078
0.2697
0.02255
0.02041
10.16
0.5744
0.0203
1.115
0.01898
0.3647
0.2541
0.09015
0.4601
0.01445
1.415
1.413
0.8393
0.26
0.54
1.807
0.3967
0.517
0.3268
2.117
3.3
0.5354
0.01556
0.1705
0.3709
0.8344
1.113
3.066
0.002564
0.0198
6.688
0.4381
1.795
0.1325
0.01989
0.1307
1.401
0.02209
0.8147
6.823
0.5651
0.03611
1.109
1.239
3.793
0.1974
0.02041
0.06585
0.1016
0.1016
0.1503
1.119
0.3844
0.1974
0.636
0.0375
0.6165
0.8383
0.9798
4.03
1.14
1.177
0.821
1.807
1.867
1.667
0.1234
0.3263
0.9943
0.02713
1.069
0.4662
2.987
0.01077
1.279
0.1858
0.4881
0.08916
1.016
0.9825
0.04063
0.0185
0.013
2.084
0.006185
1.871
0.02218
2.111
1.049
0.02047
0.07859
1.316
11.15
0.2753
0.006488
0.1315
3.143
1.703
0.4105
0.01763
4.484
0.04856
2.775
0.2687
0.2381
0.01288
0.4431
0.7062
2.367
1.068
1.541
0.4422
1.477
0.02707
0.02318
2.383
0.03011
0.4993
0.3224
0.0491
0.3729
0.2851
0.4221
0.1375
0.9607
1.831
2.129
0.1959
0.2225
1.607
0.9543
0.4148
3.301
0.474
3.062
0.3842
1.753
0.674
0.001485
0.2554
0.148
0.8848
0.1607
2.996
0.08659
0.05466
0.6548
0.3438
0.08995
1.157
0.04023
0.4886
1.203
0.02152
0.01447
0.02275
0.9416
0.03776
1.195
0.01901
1.724
0.01849
5.649
0.01323
0.2076
0.3971
1.498
0.3518
2.363
0.05291
0.3116
1.99
2.923
0.2965
0.4229
0.3876
1.185
0.2557
3.773
1.212
0.003365
0.01719
0.6335
1.093
0.03248
0.2813
0.1661
0.1236
0.4289
0.05503
0.006097
5.635
0.1618
0.6975
0.736
14.14
5.542
1.756
3.042
1.618
1.13
0.6621
0.01562
1.721
0.01735
5.698
0.7615
1.015
3.402
15.44
0.493
3.267
0.08556
3.499
0.01706
14.23
0.01714
0.2918
0.2555
19.43
8.891
9.57
0.0708
1.05
2.267
0.02001
0.1786
1.864
0.4105
0.3463
0.405
1.526
0.2807
3.915
0.003352
0.2324
4.72
3.453
1.668
0.7863
0.01304
0.2938
0.03641
0.251
0.01237
1.886
23.36
0.7121
0.04393
0.6349
0.1052
1.043
1.873
15.32
0.205
0.01739
0.5389
1.326
0.0363
0.4077
0.4409
1.325
0.9864
1.147
0.8713
0.2641
0.7674
2.684
0.3749
0.6333
0.01426
2.617
0.4983
2.258
0.4781
0.2466
0.08465
0.06712
0.1083
1.204
3.975
0.01927
0.001687
1.114
4.741
0.2836
1.642
0.9368
1.78
0.4996
0.01701
0.03759
0.7204
0.3253
0.9892
0.003968
9.545
0.4075
0.7366
0.006291
2.39
0.01916
0.2766
0.3167
0.2138
0.001636
0.6266
0.2834
20.46
0.006377
0.7602
1.2
0.02218
0.3686
0.01966
0.7864
0.6254
0.02269
1.379
1.465
1.073
1.12
0.6298
1.607
1.656
5.016
0.8831
7.965
0.9424
0.3466
1.021
1.899
0.003995
2.529
0.02104
3.754
0.01728
0.6574
0.04643
0.02036
0.155
3.009
0.5489
0.003498
0.007788
0.5946
13.35
1.391
1.689
0.1596
1.181
0.3901
1.876
0.9672
0.7373
3.922
0.003496
2.578
0.9104
0.2629
0.3247
0.01609
0.001694
0.5551
11.17
0.6603
1.954
0.01721
0.001042
0.4711
2.216
0.0228
2.966
0.1481
0.04009
0.8526
0.6493
0.8953
0.2147
27.12
0.8273
0.2924
0.3128
0.5676
1.373
2.213
1.735
0.02046
1.386
0.532
0.4901
0.01073
1.116
0.4432
0.6247
0.04474
0.01006
2.415
0.08568
1.962
1.368
3.73
0.1717
0.4752
1.89
0.2442
2.411
0.01567
0.007681
1.94
0.146
1.941
0.6021
6.534
0.1622
3.741
0.07707
0.08825
0.001033
1.801
0.05544
2.242
9.386
0.5692
0.9227
0.2688
0.001493
0.5336
0.9819
1.93
0.1055
0.3133
0.9635
25.66
0.4177
4.563
0.139
2.044
0.593
0.3608
0.2183
0.2467
61.02
0.4526
0.02251
1.187
2.369
0.7632
0.01482
0.3958
0.1228
0.28
0.0009371
1.994
0.6425
2.428
0.0009835
1.816
0.347
1.438
1.654
0.00108
0.252
0.7675
1.165
0.4873
0.01812
0.8367
8.465
0.01483
0.5869
0.3915
1.331
0.4881
0.3831
0.5824
3.006
0.6204
0.01875
0.253
0.1648
2.473
2.006
0.2382
0.1764
0.8321
0.02552
0.3984
0.8437
0.722
7.67
0.7173
0.6929
0.6869
0.2474
0.5447
0.07265
27.31
0.5049
1.087
0.9435
0.2743
0.5227
0.4955
1.16
0.04009
0.1157
0.2933
0.0009392
0.5673
5.613
0.7955
1.613
0.02828
0.3807
0.3308
0.01576
0.02037
0.3225
0.1729
0.1598
0.5169
0.2729
8.351
0.3428
0.4515
0.01081
0.343
0.3681
1.502
1.971
0.8041
0.002226
0.0129
0.04187
10.5
0.01156
0.07025
10.21
0.5887
3.062
0.00434
0.2446
0.5781
0.02653
1.78
0.06851
3.216
27.34
1.671
0.7292
3.294
0.01557
1.169
0.2489
1.828
0.657
2.289
33.4
0.2378
0.3147
0.9109
9.107
0.02423
0.2821
3.461
7.232
0.537
5.197
0.002217
0.05382
0.7275
5.309
10.84
2.92
174
5.167
50.69
0.7776
0.8853
0.1149
3.966
0.01737
0.8474
0.001785
0.00174
0.6878
0.01947
1.264
0.1374
5.042
0.1934
0.02632
8.015
1.28
0.01274
0.1124
0.355
0.02534
1.532
4.86
0.3864
0.6463
11.7
0.3533
0.5878
0.01894
1.005
2.204
0.01056
1.253
0.486
0.1701
0.02613
0.01996
0.1134
11.93
0.9813
4.921
0.2968
2.002
1.091
1.358
2.623
0.002209
12.14
0.6771
0.002209
1.178
4.797
0.17
5.211
0.2522
0.343
1.669
10.06
1.175
0.01702
0.02864
0.5978
1.655
0.4365
1.393
7.34
7.619
0.6687
0.1086
7.696
0.04212
6.365
0.01691
0.2412
1.213
0.5163
0.7218
0.3228
0.02427
0.01693
0.8448
0.2445
0.4607
1.284
0.6311
0.1925
0.6195
2.387
2.167
8.973
0.8421
1.65
0.965
0.3633
0.1913
10.03
0.5119
1.399
3.221
0.3266
0.01504
0.01056
0.2375
0.2702
0.2834
0.1799
2.079
0.3925
0.1578
0.596
0.5518
0.7128
2.502
0.1382
0.2424
0.149
9.19
2.122
0.3517
0.5729
0.2559
2.126
1.101
0.3674
0.156
2.357
0.8245
0.3921
8.353
0.01266
2.178
1.445
0.1628
1.111
12.78
0.01904
6.195
12.48
0.002479
0.1533
1.085
0.5189
4.626
0.6334
0.817
3.544
0.7029
0.2439
0.2057
0.01744
0.7758
0.2207
0.5917
0.482
1.114
0.3215
0.003406
7.317
0.3991
0.02969
1.706
0.002219
0.01712
0.4603
0.142
9.574
0.01725
1.771
0.02721
6.248
0.1182
0.1063
0.2971
2.361
1.555
0.8871
0.4724
0.006185
0.03327
0.5212
1.325
0.5287
0.6798
3.22
0.7834
4.752
1.157
2.647
4.541
1.303
2.892
0.4495
0.1148
0.01092
1.558
0.4232
2.89
0.0007238
6.646
0.2972
0.6068
1.503
1.062
0.2301
1.952
0.2365
0.601
0.4713
3.416
0.6733
0.003165
0.3362
1.626
0.01508
1.156
2.946
0.2081
0.4846
0.5067
0.03378
0.447
0.3497
0.9639
0.1692
0.1056
0.9698
0.6891
0.01341
0.3095
0.02723
0.3811
0.9112
0.4847
0.02443
0.8172
2.752
2.446
1.388
0.2371
3.97
0.0008085
0.8541
0.02348
0.38
2.083
1.257
1.515
0.9441
4.079
0.04514
7.033
1.108
1.158
0.4857
9.985
0.2293
0.1045
2.207
0.6792
0.03849
18.12
0.3023
1.16
3.037
1.135
4.365
0.8451
1.207
0.8929
0.4331
0.7482
1.508
1.216
0.1698
4.694
0.09358
1.241
0.1025
2.192
0.1056
0.02166
0.4954
4.401
0.2535
0.02202
8.103
0.7648
0.02574
13.23
0.7816
0.6358
2.378
0.6832
0.3731
20
0.1127
1.5
0.2219
0.6642
4.846
1.4
1.869
1.583
1.619
0.06795
0.07954
0.5669
0.5564
0.7135
0.6358
0.1674
1.763
0.2149
0.1935
0.1876
1.227
0.4306
0.4685
4.558
0.04679
9.927
1.432
0.4176
0.3821
0.02682
0.1951
1.129
0.4303
1.108
3.189
2.082
0.01804
1.993
0.8264
0.6153
8.303
1.29
0.1351
0.6789
0.01536
0.7081
0.4029
16.17
1.117
0.03873
0.3642
0.01403
30
12.38
0.3148
0.3068
0.7253
0.002849
0.04597
0.5666
0.2452
0.1381
0.0772
0.0006763
0.0006797
3.335
0.4349
0.1901
2.914
1.163
7.166
0.5014
2.261
0.3982
0.595
0.05512
1.557
0.2414
1.176
8.949
0.4392
0.1933
0.4591
0.4787
0.6284
47.35
0.1248
0.5789
0.1753
0.2082
0.2324
1.296
31.25
0.1275
0.777
0.008198
1.144
13.65
0.06452
24.07
0.6499
0.3714
1.829
0.01158
0.5759
9.665
0.01898
0.9947
0.8552
0.6082
21.02
0.3331
0.2581
0.6604
4.819
0.4081
1.441
0.1083
1.289
1.741
40.46
3.109
0.4507
0.02193
2.336
0.1351
1.863
8.579
0.1656
0.4308
0.009837
0.312
0.5519
0.01172
0.1617
0.002436
23.38
0.1621
4.217
0.4688
0.8228
7.021
0.5988
0.8584
3.011
56.03
0.5458
0.566
0.7077
0.5364
0.2049
0.08411
0.3499
0.01719
0.2375
0.05474
0.1756
0.01472
3.114
0.3939
0.1778
0.01533
0.7085
0.1044
1.117
0.1374
0.1978
1.543
0.4953
0.0354
10.34
1.483
3.476
1.011
0.4568
1.251
1.192
0.4418
0.09588
2.843
0.245
0.9154
2.628
1.1
1.027
0.1299
0.0176
54.09
0.5454
7.959
0.0249
8.409
2.727
1.406
0.4123
0.01959
0.01812
0.0712
0.1294
0.04709
0.1904
0.6124
0.3819
1.21
0.02311
0.3008
5.426
1.599
0.08978
0.424
0.2314
3.228
1.165
0.9605
1.371
0.2572
0.01544
0.4168
0.4437
4.845
0.8304
0.03452
1.159
0.01437
0.8303
0.3356
3.818
0.07664
0.03718
0.2507
1.468
8.818
19.13
0.2861
0.5064
1.071
0.07684
0.01022
17.71
1.08
8.896
0.08312
4.716
0.3782
0.01395
2.221
1.538
0.2291
0.2715
0.4001
0.6477
0.655
1.491
0.3148
8.37
0.05304
5.218
1.37
1.661
0.001159
0.001128
1.348
1.742
57.16
4.387
1.808
1.913
51.6
0.01311
0.5475
0.01892
0.01722
0.01391
0.218
0.004439
23.27
0.02292
21.97
0.3184
2.458
1.95
1.629
0.001034
30.5
0.1317
13.34
0.3212
3.705
0.01278
1.101
0.7828
0.2969
1.961
0.8094
0.3077
16.39
22.88
0.05331
0.01024
1.481
0.0006133
0.1978
0.287
1.299
0.006613
2.508
0.02967
0.8045
0.8677
0.3256
10.88
0.004948
0.2521
1.363
0.8794
0.1111
0.3795
0.2639
0.02073
0.09323
1.047
90.1
1.036
0.7501
0.01744
2.577
0.2312
0.1339
0.0007496
0.7231
0.5339
1.511
0.01806
3.023
0.01733
1.039
0.1056
0.8762
2.322
0.3595
4.709
3.14
0.7889
0.007648
0.7385
2.205
0.6583
8.596
2.35
0.1664
0.03358
1.082
62.08
0.8305
6.636
2.104
0.001064
0.1467
0.01517
1.873
1.442
1.283
0.02736
1.546
0.02856
0.1367
0.5192
0.008425
0.1494
0.1383
2.031
0.3716
0.01462
1.218
0.03857
2.539
10.62
0.4112
0.1272
1.099
0.02335
0.7006
0.3205
11.04
2.41
0.3198
1.806
0.9514
1.822
18.65
0.04608
0.2033
2.314
0.03873
1.19
0.39
0.2405
0.6357
0.01922
0.007334
1.03
0.113
0.775
0.4268
9.834
0.3574
4.094
0.2413
0.01854
4.305
1.085
0.1006
1.314
0.02568
0.6622
0.1442
0.2437
3.923
0.3058
2.014
0.8752
1.083
0.03596
0.6275
0.6486
1.511
7.243
0.021
0.6278
2.665
0.01644
0.02077
0.3509
0.0008344
1.059
0.59
0.5178
2.361
0.2489
0.2207
0.003004
0.2517
1.152
0.003277
0.3021
8.556
5.391
0.1727
0.5808
3.273
0.1785
4.354
0.1768
0.8246
5.244
0.0007999
0.001332
0.3878
0.01774
2.616
2.202
0.237
2.617
1.335
0.02039
2.22
11.57
486.4
0.544
0.4029
1.129
0.175
0.2127
0.3065
0.2477
1.331
0.5322
0.5387
3.311
2.507
0.3398
0.2446
0.01847
15.5
0.2094
0.4118
0.4188
0.04881
1.19
0.5286
0.129
0.1661
3.01
2.357
0.5176
2.208
0.2996
9.985
1.807
0.02259
1.083
1.568
0.5322
0.8597
8.185
0.01731
13.75
12.33
0.9096
0.001759
0.2467
0.187
1.758
1.69
0.1908
1.983
0.003289
1.6
1.183
0.0683
0.1758
0.01391
1.419
20.22
0.7771
2.199
54.34
0.2494
4.791
0.001425
18.02
1.137
0.155
0.03713
0.1141
0.3954
0.2215
0.6905
0.001409
1.076
10.13
32.04
0.3584
0.3354
0.4328
0.722
0.01778
0.02151
1.474
0.2328
0.01382
0.6088
0.7339
1.137
0.4643
0.5981
1.932
0.4685
22.64
4.647
2.274
0.09917
0.8923
9.685
0.1924
1.09
0.1132
0.3804
0.346
16.57
0.2365
0.3165
0.0008548
0.03793
2.206
0.3864
0.01995
0.04583
0.2528
2.551
0.1954
0.9554
3.992
3.91
0.01975
1.877
0.1592
0.4068
2.736
0.1665
0.04205
0.9094
0.6351
0.2489
1.322
0.03503
1.471
0.1377
2.155
0.0842
1.222
2.699
0.4796
1.899
0.4686
1.335
0.7701
1.055
0.2112
0.1967
0.3598
0.3166
1.806
0.4182
29.29
0.7634
0.01457
0.4412
0.1123
2.094
0.8117
0.003539
0.2999
0.09962
4.46
0.001016
0.4141
0.2796
0.3399
0.1688
0.5061
0.08215
5.135
0.1555
0.01942
0.8747
0.04253
0.2193
0.03465
0.2449
0.2304
0.08387
0.1794
0.9797
0.9556
0.02387
0.01663
0.1601
0.3566
3.195
0.03207
0.6949
0.3177
3.53
1.453
0.1291
1.724
0.5241
0.07421
0.6827
5.02
0.1751
18.33
1.32
0.1982
10.23
0.01992
0.007717
0.8092
0.1881
48.28
0.02608
0.2553
0.8831
78.13
0.8349
2.43
0.007589
0.007575
1.306
1.116
0.3213
4.975
0.03806
0.1948
0.2442
0.1344
1.868
1.481
0.7425
0.2859
2.459
0.06393
0.7301
0.116
0.3519
1.989
2.8
3.034
0.7032
18.55
0.6641
1.108
0.6843
1.612
0.7665
0.09165
2.564
1.563
0.001622
0.001607
0.6825
0.4505
3.202
1.064
5.035
1.494
0.003934
0.02051
1.611
0.0994
0.4507
9.811
3.871
0.1458
1.172
0.06109
18.31
6.61
0.001192
0.3707
0.4246
0.7566
0.2521
1.992
0.712
1.048
0.7344
0.3324
0.3645
0.2089
6.011
1.192
0.6179
0.4428
42.1
0.4005
0.6552
0.7837
3.964
1.113
0.6317
5.206
0.2034
1.847
0.01601
0.2013
0.09005
0.8694
0.1539
5.041
0.697
0.1571
1.473
35.85
2.076
0.6724
0.6326
1.815
8.902
0.003484
0.2578
0.3679
18.73
0.5382
0.3574
0.1142
0.2445
0.02108
0.5195
39.24
0.3522
0.956
0.1684
0.08664
6.036
0.1162
0.5736
0.2198
0.2121
7.102
0.1238
0.5418
0.1423
0.04839
2.974
0.4085
8.352
0.866
0.7116
0.01009
0.315
0.5523
1.33
8.949
0.413
0.1405
1.246
0.0185
1.717
5.406
1.454
2.335
0.7625
4.363
1.662
3.393
3.956
0.2455
2.524
1.658
0.1138
0.07356
4.506
0.0007498
0.1559
0.01937
0.0495
3.426
0.01551
0.8116
1.267
0.2027
0.5215
1.779
4.737
0.4958
8.632
0.5546
0.1939
7.06
0.4834
0.4924
0.01924
5.228
0.2669
1.722
3.872
0.0008724
1.185
1.644
0.3286
0.3086
1.288
9.271
1.122
0.3445
0.5074
0.02235
0.12
0.06798
0.3894
0.2955
0.6141
1.073
0.9459
4.078
0.2522
0.01345
1.641
0.43
0.1818
0.5073
0.5763
8.116
1.923
6.098
4.327
0.5856
0.9764
0.718
0.4736
0.5383
0.1527
5.474
1.96
0.657
1.047
0.0105
2.321
1.592
0.2129
0.3359
4.586
1.871
4.171
0.2878
0.8983
18.04
0.01274
2.011
0.1866
0.03828
1.125
3.062
0.01479
1.111
0.2824
0.9052
25.74
1.038
1.196
41.18
0.3383
0.9639
0.1914
0.1914
0.9022
0.5877
0.7928
4.714
0.6803
0.01978
4.446
2.845
0.8221
0.01481
0.0134
0.9764
0.4115
0.9195
100
2.951
0.00636
1.525
2.824
0.1239
2.151
1.142
0.002185
0.2801
1.137
0.1281
0.2852
0.02067
0.01008
0.01435
0.004301
0.06338
0.2573
0.6383
4.428
0.3369
0.5034
0.5324
4.962
0.004309
0.7479
0.3154
1.098
3.288
1.157
0.4722
0.5548
1.243
0.7261
0.7555
0.04354
0.6703
70.21
1.694
2.733
0.8584
3.402
0.02057
5.351
0.5078
1.868
0.2619
0.03439
17.53
0.02662
0.3477
2.902
0.004794
1.437
0.4142
0.3688
0.3944
1.716
0.04821
0.9066
0.003929
1.338
0.544
0.5737
0.218
2.284
0.01205
0.01576
0.1737
0.6644
1.191
0.08068
0.3771
1.762
0.344
14.64
1.304
0.2129
0.1607
0.2704
0.3873
0.1269
6.651
0.8514
0.02092
9.947
0.01888
0.01258
0.1465
0.0014
16.9
0.2486
1.993
0.2792
1.67
0.03322
0.08003
0.5435
1.091
0.1833
0.00209
0.2471
57.55
5.344
0.09195
8.732
5.009
9.567
0.001157
0.1912
0.3424
0.1044
0.01736
0.1712
4.214
44.85
0.1955
1.665
6.812
0.02128
1.643
4.087
0.6611
0.02629
1.833
42.63
6.723
14.33
0.1725
0.6656
5.188
0.03237
0.4337
0.01614
0.3564
5.567
0.1439
1.163
13.8
0.1086
0.4284
2.212
0.1686
0.0221
1.373
1.861
0.1307
1.386
1.397
0.2409
0.1973
0.7329
0.5359
0.3609
0.02156
0.9404
0.998
1.118
0.7207
3.22
1.34
8.869
4.573
19.2
18.45
1.403
0.05317
5.565
0.02036
2.054
6.307
0.0219
126.7
0.1308
0.5563
4.934
2.509
1.001
6.623
0.6354
5.083
0.01586
114.1
1.23
0.0006611
0.1939
0.394
36.07
4.187
5.098
0.255
2.182
26.9
0.409
0.1538
0.6475
9.094
0.008272
0.3534
0.5567
0.4562
0.4613
0.2771
0.1327
2.746
0.8363
1.342
6.772
0.01518
2.574
0.1644
0.6514
0.5358
0.01779
0.08185
0.5819
2.139
1.948
4.479
0.000628
0.01562
0.2755
1.207
9.116
0.2714
0.1411
0.005694
0.02339
2.554
0.005707
0.762
2.174
0.09088
0.7982
0.3014
4.529
4.52
7.401
0.03984
1.498
0.3877
1.597
0.1623
0.1921
4.224
0.2029
3.911
1.231
1.426
0.7635
0.4932
14.87
0.2471
0.5403
0.7105
0.0008214
0.6179
0.0697
0.01787
0.5091
12.35
0.484
2.829
0.4296
4.97
35.71
0.1547
8.896
0.003803
0.1477
0.03441
0.04189
1.272
0.127
4.892
4.959
0.6883
1.559
0.1788
0.5618
2.213
0.6279
0.2036
2.728
0.1939
13.29
1.328
0.001933
0.4139
0.5297
0.0596
0.02513
2.083
0.0307
2.264
0.8825
1.25
0.5093
2.469
0.00104
0.1279
0.04682
2.569
2.228
4.461
0.6428
0.01419
3.261
0.01255
0.1308
0.5744
0.2337
7.68
0.7918
1.612
0.1756
14.54
0.5033
0.003477
0.3076
0.6952
0.04476
0.4024
0.03167
1.808
1.629
4.789
0.3758
0.006045
1.218
1.182
1.776
3.631
2.141
0.926
0.01744
0.2004
0.3419
0.5026
1.816
0.329
0.085
0.9368
0.133
3.17
1.793
0.003885
0.1642
0.01572
0.02678
0.4521
0.9973
0.9324
0.01822
0.992
1.988
0.7947
0.06912
0.7785
0.1035
2.211
0.002641
85.48
0.656
2.291
0.0009139
0.07401
4.736
0.02549
0.7248
1.402
2.113
0.6653
1.043
0.02694
0.9602
0.6161
1.02
0.3691
1.011
0.2821
0.2887
0.9759
8.585
0.01272
0.3604
0.6323
10.92
0.3111
0.07641
3.486
2.963
0.3295
0.4421
0.3796
6.995
0.03549
0.3497
0.6039
0.1636
0.4458
0.4637
0.002053
1.9
10.01
0.3828
0.4327
6.104
0.8917
0.6155
0.01923
0.02475
0.09383
0.001067
41.04
0.6814
0.04471
0.01656
0.5675
12
0.04135
0.2512
1.613
0.7582
0.6366
1.681
15.41
1.269
3.359
1.692
3.026
2.67
0.01775
0.4793
0.5746
0.6201
0.02328
0.1266
0.5358
0.2421
0.6093
20.34
7.972
0.1003
1.121
3.125
0.1938
4.679
0.2522
0.4985
0.2925
3.653
4.447
0.01853
2.51
0.6148
0.0432
3.457
0.2678
1.05
0.07433
0.8202
1.958
0.662
1.582
0.01401
0.0186
0.1038
0.4357
0.1716
0.3839
0.02035
6.424
0.1438
0.2912
1.304
2.367
0.1403
1.066
0.009932
4.718
1.471
21.48
1.389
0.073
5.74
0.5945
1.42
11.53
0.1303
5.196
0.1012
0.1028
0.3287
0.06963
0.01789
27.59
0.8394
2.462
1.239
0.8325
0.4817
0.001551
25.08
0.03488
1.031
0.1632
0.2154
1.02
0.3037
0.52
0.8095
0.1431
0.7112
0.00821
0.5915
1.151
17.96
6.245
0.09504
0.2846
0.3411
0.1648
0.6789
1.033
0.05644
0.03409
0.3633
6.66
0.003079
0.01223
0.3512
0.9655
0.1638
12.86
0.1397
1.203
0.5821
0.6473
0.07035
0.1055
1.821
1.906
1.182
0.367
3.732
0.09958
2.921
0.001469
1.855
16.86
0.03532
0.4117
0.2256
1.498
2.046
0.7287
0.08333
0.01035
1.05
0.1662
0.01681
2.122
3.377
0.2074
0.1567
0.08082
0.06926
0.02309
4.138
0.3946
0.0202
8.08
1.089
0.7504
0.02258
0.03844
0.01584
0.0412
0.5852
0.1693
1.567
9.703
4.376
0.9973
2.971
4.584
0.01798
11.46
1.207
1.156
0.142
0.1636
0.4444
1.293
2.803
5.356
0.6625
0.03454
0.3904
2.772
0.5768
0.9065
0.1252
0.4662
0.1627
2.199
0.001197
0.5326
0.6675
0.5512
0.4547
2.9
13.06
4.463
0.01038
61.19
0.5585
0.1716
4.649
0.0291
1.027
0.8758
0.006666
2.615
3.79
0.2052
0.5404
0.1444
3.191
0.01731
0.3238
4.825
0.2491
0.01655
2.311
0.2731
0.02966
0.3041
0.1712
0.8194
5.78
1.599
1.167
0.2504
0.6742
1.077
0.01923
0.03309
3.322
0.5962
0.7305
0.06825
4.854
0.8801
0.3883
0.4341
0.3707
1.397
0.03424
0.05876
0.7657
0.7085
0.05399
0.8686
2.205
0.1666
1.155
1.402
0.1789
0.05265
0.1516
0.4029
0.7585
0.5912
0.06472
1.079
0.003096
0.2867
0.4958
0.2016
1.165
0.5416
11.5
0.2977
0.3684
0.01238
0.007275
0.3092
0.3659
2.444
5.946
0.4827
1.665
7.985
0.8438
0.4556
1.167
1.432
3.865
0.9881
0.0396
2.789
0.3858
1.883
0.3135
0.2256
0.2432
0.9267
0.03874
0.4501
0.108
0.02206
0.08435
2.791
0.01467
8.921
2.092
0.6699
0.0178
0.7583
1.059
0.001008
0.7072
1.086
0.9448
0.564
1.07
0.03388
1.712
0.1178
0.1998
1.495
6.43
0.4998
1.513
9.924
0.006795
0.02525
0.7908
1.38
2.539
0.2182
1.738
1.875
0.2736
0.1904
0.01768
6.016
2.163
0.1303
0.2707
0.0165
1.402
0.08497
1.035
1.477
0.6135
0.01241
10.31
0.8608
0.01934
0.7192
1.595
0.08174
0.01101
0.01185
1.657
22.8
0.4465
0.1248
0.408
0.07463
0.8376
0.5838
0.01343
0.4743
0.4269
8.516
8.713
1.361
0.01215
1.427
0.6753
0.8821
0.8345
5.233
0.7473
0.8472
0.8823
0.6742
1.629
2.492
0.1072
0.001092
0.1156
0.03395
10.37
0.01739
0.178
1.434
0.4889
0.1904
6.496
0.8046
18.85
0.2248
14.43
0.5212
0.2394
2.411
8.212
0.2571
6.388
11.61
0.02175
6.469
6.072
3.339
2.724
0.8914
0.1772
0.4834
0.5658
0.5416
0.047
0.4106
0.2266
0.3393
0.2455
0.3894
0.562
0.1929
0.1174
4.992
0.8362
29.96
0.5953
1.439
0.006042
1.82
0.6933
2.346
0.2667
4.165
1.467
1.077
0.1073
4.786
0.1062
0.4431
0.4938
0.05601
0.2243
0.3255
0.4842
0.3868
0.5301
0.2965
0.9455
0.2809
4.331
0.4874
3.922
0.05014
0.3165
0.4497
0.188
0.04225
6.984
0.02008
0.01453
0.02114
0.311
0.7364
0.6347
0.06674
0.2383
0.2791
0.05771
6.333
3.424
4.852
0.9246
0.06666
1.65
21.31
0.06565
1.016
0.03231
0.6721
0.135
0.6394
0.1861
0.01097
0.008781
0.9476
0.1624
0.04807
12.63
0.8182
0.05486
0.02652
0.485
0.03285
2.636
2.983
0.004824
0.6784
0.6464
4.699
2.737
13.49
1.621
0.1116
0.4114
1.055
0.2398
1.62
1.097
0.7748
1.942
0.4404
10.13
0.01913
1.146
1.783
11.26
0.04004
0.2867
0.02234
0.301
0.2613
1.183
0.868
1.074
5.888
0.1466
1.994
10.42
0.9164
3.232
1.652
0.3683
0.2747
0.6179
1.644
0.233
2.135
0.00298
5.716
4.328
2.056
0.3945
0.5784
4.594
1.324
0.2546
0.04623
71.25
0.4339
0.0007701
0.001381
0.00304
1.176
7.743
0.2101
24.57
0.5526
0.001085
1.036
0.6518
0.4028
1.387
64.41
3.217
0.3658
6.733
0.2847
0.5196
8.654
0.3265
0.4277
0.1832
2.077
0.2645
0.2524
0.3045
1.515
0.208
0.7801
1.153
0.2038
5.153
0.6841
0.06156
6.081
0.2795
8.391
0.7518
0.008236
0.1128
1.732
0.02286
0.2963
5.517
3.668
0.1802
0.01209
0.1454
0.2926
0.3024
0.05095
1.376
0.009863
1.423
0.4968
0.6151
0.5133
1.215
1.185
1.794
5.902
0.521
0.5587
0.02787
13.49
0.04359
0.001375
0.5127
0.01815
2.815
0.1763
8.58
0.04482
1.412
0.3869
1.34
1.356
0.09851
0.4333
0.256
1.514
2.358
0.592
0.07106
0.01617
0.5241
1.604
0.08931
0.3187
0.8603
0.9485
1.379
0.007698
0.2867
1.635
4.874
0.6969
0.4312
1.38
0.9938
0.01993
0.293
25.67
1.992
0.04671
0.155
0.7344
0.1026
0.6799
2.279
0.7517
0.04695
0.05297
0.1323
0.01392
0.01312
0.02444
0.1505
16.31
2.023
0.1442
0.7395
0.2463
0.07856
0.1591
0.2692
0.8962
0.04807
0.03303
1.937
0.08884
0.02179
0.921
0.6644
0.1311
5.51
5.259
0.02117
0.3559
0.323
0.9033
0.5605
1.157
0.1633
0.8492
4.738
0.5224
5.557
0.173
2.313
0.4035
0.9433
0.358
10.28
0.06513
17.78
0.871
0.02218
0.02958
0.004154
0.4934
0.3392
3.521
3.375
3.15
0.08087
0.01054
1.434
1.497
0.1841
0.01722
1.744
0.1987
2.053
0.6606
10.67
2.58
1.679
1.687
0.9529
0.1028
1.785
0.779
0.3579
0.3959
0.05807
0.01599
0.2449
0.2797
1.841
7.138
0.4518
0.03033
1.535
0.07617
0.1352
0.01776
4.261
0.8179
1.296
1.417
0.5265
0.2998
0.3277
0.2144
0.2368
0.761
0.1892
0.1378
0.04201
0.3274
11.65
0.123
0.4675
19.42
0.005861
0.02122
0.2275
0.02468
0.05712
3.441
0.06529
0.06519
0.7306
0.01294
0.3574
2.142
1.36
0.1779
0.1497
0.03384
0.05188
0.3297
0.9063
1.938
7.313
0.3462
0.004784
0.1533
0.9289
2.375
0.0829
0.04714
0.04184
3.256
0.12
0.07078
0.3283
1.094
0.07047
0.02687
1.188
0.01189
0.01873
0.01128
5.974
0.05874
0.7934
0.1611
0.02648
0.06167
0.1757
0.2297
1.982
0.2117
0.5393
0.3923
0.106
10.49
0.3425
1.509
0.03742
0.556
0.5
0.7174
0.6395
0.206
0.5973
0.362
0.1556
1.051
0.06592
135.7
0.6737
11.24
0.103
3.373
0.01978
0.04611
0.4008
1.317
0.1789
0.5064
0.1523
0.001438
17.99
0.001423
0.8456
25.23
0.1421
0.2878
0.00206
5.824
0.01777
0.223
0.2699
0.6118
0.7351
0.0165
24.43
0.03049
0.4614
1.626
0.7075
0.855
14.77
0.576
10.33
0.5956
0.01426
0.2517
1.636
0.02041
0.08351
3.023
0.1909
20.38
2.204
4.309
0.02649
0.476
0.02554
0.01606
0.02537
3.456
0.1476
0.2067
0.001145
0.3656
0.2306
1.209
1.002
12.29
0.01774
1.128
3.631
0.7308
0.1336
0.2254
0.03331
0.5516
0.005837
0.3563
0.9841
0.01636
0.9367
21.87
0.5153
2.376
0.3074
4.679
3.081
0.5168
2.045
6.931
0.7208
3.217
0.8378
0.3027
1.18
0.4312
0.5053
0.7585
1.458
0.003763
0.7932
0.002586
2.31
10.85
0.6519
0.9758
10.74
0.2381
0.527
0.001239
1.026
0.3928
22.42
0.1976
0.01159
0.2739
0.6192
0.8186
0.001197
0.7339
0.8262
0.3401
0.275
4.04
2.11
15.44
0.5826
1.123
0.6412
0.2095
0.7437
0.02072
3.576
1.375
0.01837
0.3431
0.3596
0.6619
1.554
2.301
0.05826
4.326
4.376
0.08148
1.036
3.682
5.317
1.852
0.00478
0.00188
0.837
0.5655
0.5388
0.01226
3.418
0.5954
2.731
6.405
0.007749
0.9504
2.814
0.3343
20.86
0.7303
0.8864
0.6813
0.2513
0.6622
0.01831
0.4498
14.26
0.4785
1.053
0.2193
0.2661
0.009648
0.00293
0.6689
0.5474
0.3091
1.184
0.375
0.01554
1.184
1.391
0.1694
2.162
30.82
1.707
0.001144
0.1479
0.02057
0.8138
1.115
1.428
3.304
1.851
2.389
0.02847
1.201
0.03138
0.1527
1.396
0.32
4.816
0.6716
25.17
0.04238
1.055
2.341
0.01754
0.7375
0.3998
4.459
0.1553
0.03782
0.01597
0.003864
0.407
0.01534
0.3044
1.668
0.2409
0.297
0.7027
0.04913
0.6117
0.1781
0.003607
2.544
0.9626
4.787
0.7261
0.01707
1.916
2.642
0.02079
3.188
0.1922
1.765
0.4785
12.94
0.3135
3.188
0.1769
0.2017
0.04183
0.2277
0.04363
0.06426
3.398
0.6274
0.6418
0.5055
0.4643
0.7389
0.01902
0.06055
0.07302
0.4105
0.3214
0.8879
11.46
0.1216
0.02293
2.267
0.1256
2.847
0.01165
0.7776
1.745
0.2114
0.1799
1.862
1.093
0.9944
0.3833
0.7678
0.01622
1.57
0.228
0.6136
1.064
8.98
2.113
0.07421
0.358
0.3674
0.2074
41.93
0.01598
1.396
0.5153
0.252
0.3702
0.385
31.6
0.4301
5.64
1.587
20.1
0.3649
0.2424
5.681
1.3
0.02312
1.133
0.251
0.9902
0.7707
0.2009
3.392
0.001287
0.8592
3.524
2.125
0.9339
3.086
2.955
0.02046
1.297
1.056
0.82
0.1351
0.05042
1.17
0.4096
0.8976
2.795
0.01016
0.5603
0.2098
0.2791
0.329
1.404
1.75
0.328
1.955
2.414
0.0067
0.4115
0.3261
10.11
1.753
5.467
0.4604
0.4156
0.2825
0.1288
0.8371
1.021
7.073
2.667
4.819
29
0.4078
0.1169
16.58
1.8
2.542
0.001166
3.029
8.194
1.655
0.5259
0.01557
1.679
0.02492
0.3147
1.777
0.4474
0.9204
0.18
2.105
0.3296
5.165
0.2831
1.253
0.8634
4.453
1.565
1.184
0.3682
0.2041
8.752
0.1788
9.303
0.3774
0.3754
0.02806
8.781
0.1815
0.0571
0.01871
0.3794
0.7499
0.03052
0.00663
0.01777
0.7254
2.894
23.58
0.08113
0.001948
0.5946
0.006339
0.004801
1.422
0.0007562
0.6889
8.188
0.05108
1.107
0.5905
1.241
0.1437
0.69
0.066
0.5626
0.2503
8.021
0.3692
0.6494
0.9951
2.315
0.09863
0.00195
0.158
2.402
0.01909
0.1293
0.6863
2.239
9.152
0.5115
0.5246
2.088
0.01542
0.4615
1.165
1.014
0.6245
0.4653
0.0006106
0.4922
0.3891
1.152
0.7875
0.915
0.001488
2.362
0.6042
0.001271
0.2999
0.0005834
1.07
0.01834
15.77
11.42
0.02613
0.7335
0.9073
0.1099
7.852
1.592
0.01578
1.701
0.3691
0.906
3.077
0.04209
0.08746
7.604
0.5349
0.7287
0.17
0.4052
0.222
0.3217
0.8112
0.001193
0.3015
1.289
0.3783
0.3346
0.2459
1.548
0.3395
0.3861
2.352
0.456
0.2566
2.798
0.03123
0.2056
4.04
0.234
0.04387
0.2409
0.5712
1.349
0.7908
0.6626
5.971
0.2428
0.8128
0.5536
0.003946
0.3042
2.391
0.2185
1.885
0.04074
1.429
0.155
0.3665
0.08916
0.1674
3.22
1.397
0.231
0.6434
7.609
0.4916
0.008642
0.01417
0.2631
2.479
2.082
0.3789
0.4589
0.1833
0.7962
0.1111
0.1688
18.74
0.1758
0.1699
6.837
0.9096
0.3341
0.2673
0.06008
111.7
0.01529
0.3831
0.9421
0.4446
0.5071
0.4737
2.276
0.2068
0.8364
0.09852
66.97
1.612
0.2384
57.47
5.133
1.858
1.181
0.00301
0.1636
0.09097
3.625
0.04084
2.231
19.01
0.07177
1.04
0.3198
0.3559
6.454
1.618
9.02
5.229
0.9255
0.007538
0.007605
0.02473
0.8524
13.02
0.2634
0.0161
0.07891
5.815
0.7197
9.72
0.4103
0.01461
77.36
0.05108
0.2196
0.1996
0.0357
0.363
0.189
0.2241
0.06551
3.307
0.2563
0.6402
0.6645
53.38
0.2324
1.994
1.01
0.1666
0.09465
44.92
1.951
5.481
0.4318
0.9113
3.575
3.419
0.1031
0.2544
1.166
0.704
2.438
0.002191
11.94
0.3268
5.955
0.2722
0.03508
0.06113
0.0149
1.145
0.4015
0.5227
0.5444
0.2704
4.184
0.7663
0.2263
0.1365
1.268
0.1199
1.056
1.567
1.315
0.1957
0.06503
0.3384
0.3135
0.683
0.1402
0.8999
1.473
5.837
0.3694
0.3644
2.693
0.3934
2.711
0.2724
0.8013
0.1104
4.918
2.629
1.851
0.2792
3.726
0.06247
2.524
1.983
0.6245
0.3775
0.3779
1.021
1.362
0.316
0.543
0.3986
2.659
26.72
0.002999
0.03236
0.01247
0.7151
1.091
0.4582
4.729
2.836
4.121
1.249
0.7656
2.532
5.012
0.284
1.627
2.14
0.7513
8.265
0.01727
9.221
3.165
3.316
0.08594
3.023
0.5379
0.9903
1.922
2.19
0.01556
0.07482
1.028
3.559
0.005174
0.7108
0.1041
0.5027
234
0.001282
0.232
0.1581
1.111
1.357
0.2052
0.6229
1.381
1.039
3.178
1.274
0.04419
0.1948
13.65
0.02163
0.0173
8.59
4.145
0.6716
0.6867
0.0671
0.6138
1.535
1.011
2.216
0.8811
0.03661
0.8285
0.1931
0.1706
0.01124
0.9821
0.006336
51.01
0.838
1.182
0.1456
10.6
0.01346
1.928
0.00514
0.1048
4.45
0.2514
8.982
0.1759
0.07027
0.7194
0.6683
0.3033
0.565
0.3556
1.565
2.789
0.8798
1.734
2.843
5.738
0.8492
0.5784
1.498
5.423
1.088
0.4478
0.1714
0.008558
29.55
0.5346
0.6548
9.256
0.01702
2.892
0.1543
0.008268
0.2203
62.47
0.1416
1.548
18.26
0.06423
1.339
1.051
0.2598
0.1565
0.5635
16.92
2.958
0.02228
9.432
22.13
0.0781
0.01637
0.9682
2.233
0.8535
2.255
0.8488
3.744
0.01738
1.089
0.1588
3.924
2.088
9.544
0.008293
0.008378
0.1671
1.208
0.03474
0.2083
0.2473
3.7
0.3369
0.3541
1.79
0.0884
0.01847
9.572
2.951
4.365
2.659
0.04201
0.6244
0.002814
0.7648
9.914
0.7034
1.329
5.013
1.548
1.632
1.246
0.6314
0.6176
0.02158
0.01718
0.02001
0.2035
1.251
1.079
6.257
1.21
0.01802
0.6642
1.034
2.859
6.575
0.6325
0.728
2.687
2.678
0.08273
0.3924
0.2487
1.675
0.08013
2.562
0.265
0.4978
0.8518
2.917
0.004525
0.0152
4.522
0.3253
0.167
0.3806
12.57
0.5505
0.004913
0.4949
0.484
0.8902
0.5095
1.708
0.6445
1.145
5.075
0.09871
0.0005935
0.8469
0.06045
0.1161
0.06995
8.966
0.324
2.217
0.4016
0.4723
0.977
0.02543
2.049
2.049
0.451
0.3388
1.881
18.67
0.03375
0.01663
2.442
0.4333
0.86
0.2753
0.131
1.329
0.04923
0.02923
0.756
1.428
0.02007
1.314
1.159
0.01324
5.2
0.03727
0.3113
0.6369
2.309
0.2227
12.77
1.165
0.4573
0.03688
0.01546
0.3095
0.4777
0.4862
0.2222
0.007332
0.007094
0.02052
0.4302
0.9042
2.156
0.0007059
2.071
0.3133
1.648
0.6321
3.701
0.1456
0.03391
3.218
0.01771
6.079
0.8951
0.03178
0.8583
0.4038
0.9498
0.9926
0.6583
0.2574
0.3856
0.001574
13.53
1.014
9.23
0.1457
0.5477
0.01555
7.633
0.01432
0.524
2.647
0.01585
0.171
0.6337
1.135
0.001092
0.2088
44.38
0.2379
0.01849
0.4264
2.973
0.2963
1.212
0.2121
0.5265
2.718