/*--------------------------------*- C++ -*----------------------------------*\
  =========                 |
  \\      /  F ield         | OpenFOAM: The Open Source CFD Toolbox
   \\    /   O peration     | Website:  https://openfoam.org
    \\  /    A nd           | Version:  8
     \\/     M anipulation  |
\*---------------------------------------------------------------------------*/
FoamFile
{
    version     2.0;
    format      ascii;
    class       volScalarField;
    location    "15";
    object      nut;
}
// * * * * * * * * * * * * * * * * * * * * * * * * * * * * * * * * * * * * * //

dimensions      [0 2 -1 0 0 0 0];

internalField   nonuniform List<scalar> 
127143
(
5.344e-13
1.002e-13
5.271e-14
2.474e-13
1.99e-10
2.504e-13
1.758e-09
5.55e-10
2.435e-10
2.647e-09
1.234e-09
4.141e-10
6.919e-14
3.515e-13
0.0006885
1.582e-07
2.258e-12
0.03822
0.01779
8.288e-07
0.004047
7.351e-08
0.059
0.0006355
6.853e-08
7.139e-05
2.045e-05
1.71e-05
4.051e-05
0.05291
0.0003139
6.577e-05
1.424e-05
8.128e-05
0.1515
1.372e-05
0.001582
0.01318
0.0009075
4.538e-05
0.01785
0.01457
0.01714
1.598e-12
0.03708
8.874e-05
4.336e-05
0.004087
0.0008037
0.0007638
3.368e-07
0.4015
0.004059
0.03838
0.5089
0.0003932
0.5052
0.02487
0.4775
0.03896
0.01756
0.01155
0.002358
0.6153
0.000351
0.01703
0.1436
0.002053
0.00213
0.4003
0.0004981
3.259e-05
0.01067
0.4835
0.5791
2.787e-05
0.5376
0.002278
0.0004106
0.6344
3.806e-05
1.014e-06
0.0002966
7.932e-05
0.005589
0.002714
0.001251
2.273e-05
0.0181
0.001037
0.4384
0.04027
0.00163
0.004112
0.001493
0.03979
0.01531
0.000211
0.003785
0.1475
0.6353
0.0008868
0.0003357
0.01006
0.002875
0.003616
0.002257
0.4012
0.008625
0.5106
0.0007854
2.452e-05
0.002612
0.005157
0.5746
0.01181
0.5325
0.5792
0.5405
6.617e-09
0.5133
0.0003111
0.002743
0.0378
4.445e-05
2.914e-05
0.008011
0.4915
0.002104
0.0003709
0.001656
0.001351
0.003909
0.002352
2.574e-10
0.001735
0.189
0.005518
8.349e-05
0.1997
0.04098
0.5556
0.00565
0.008181
0.004168
0.003789
2.755e-05
0.6205
0.001279
0.0002042
0.007794
0.0009584
0.01459
0.06908
0.001999
0.005764
0.0249
0.0003305
0.0042
0.0001792
0.0004822
4.61e-08
0.4275
0.001659
0.0001303
0.0004316
0.001253
0.01411
0.0003486
0.4173
9.194e-05
0.008157
0.01001
0.004141
0.366
0.001373
0.004134
0.002116
0.0008215
0.2895
0.004162
0.2004
0.001356
0.001397
0.0003998
0.01198
0.05486
0.005384
0.0007307
0.315
0.002913
0.001575
0.1962
0.002366
1.204e-10
0.008057
0.5573
0.5572
4.104e-08
0.5712
0.5686
0.4038
0.1079
0.001737
2.053e-12
0.001436
0.119
0.005292
0.0577
0.5747
0.07873
0.004
0.563
0.0003633
0.001063
3.619e-08
1.922e-05
0.005014
0.002007
0.1201
0.004615
0.5835
0.0009026
0.004537
0.0001407
8.148e-05
0.0002089
0.0136
0.0002813
0.005584
0.003751
0.2086
0.01148
2.115e-08
0.003807
0.06465
0.001665
1.901e-11
0.5685
0.003576
0.001666
0.0005584
0.002445
0.0003504
0.008421
7.881e-09
0.001451
1.97e-05
2.215e-09
0.4157
0.008479
9.651e-05
0.004196
0.005563
0.0006728
0.008312
0.4935
0.0004987
0.006534
0.1002
0.008072
0.3094
0.0418
0.5564
0.005222
0.0004969
0.0005476
0.001426
0.0125
0.01321
0.0001931
0.3667
0.005218
0.003483
0.003463
0.003041
0.002671
0.001106
0.3151
0.006706
0.4265
0.03615
0.01054
0.576
0.5742
1.65e-10
0.001506
0.5742
0.001026
0.2778
0.01521
0.02717
0.06573
0.008649
0.5321
0.006401
0.0003854
0.0002856
0.002448
0.01381
0.0002526
0.01887
0.02036
0.01248
0.0001221
0.002749
0.005476
0.5627
0.01975
0.005257
0.001981
7.615e-05
0.0003353
0.4316
0.5729
0.001596
0.01072
0.0002358
0.0542
0.1597
0.06209
0.0004037
0.372
0.00415
0.001532
0.008446
0.268
0.0004953
0.0004633
0.004535
0.007921
0.5742
0.1553
0.5386
0.5385
0.07263
0.008617
0.01026
0.007883
0.001349
0.2063
0.004986
0.004799
0.003207
0.005349
0.000981
0.0005932
0.002143
0.0002945
0.001751
0.000334
0.02203
0.00133
0.003102
0.3576
0.0006733
0.005461
0.00437
0.4005
0.000446
0.006518
0.002637
0.04807
0.000747
0.0008072
0.5907
0.5714
0.209
0.0003078
0.3129
0.009836
0.3687
0.0001537
0.000707
0.3296
0.1024
0.0004747
4.843e-08
0.004258
0.3107
0.03383
4.757e-05
0.0003686
0.01817
0.5364
3.23e-06
0.2094
5.458e-05
0.007617
0.01873
0.5166
0.02643
0.0001758
0.0006656
0.0007113
0.0003231
0.02622
0.0003674
0.3582
0.3203
8.008e-05
0.5842
0.004295
0.001445
0.2069
0.006093
0.003202
0.003807
0.6365
0.0009302
0.003819
0.000287
0.04204
0.004803
0.00302
0.001564
0.00294
0.0001483
0.01257
0.001062
0.001338
5.924e-06
0.0008389
0.4158
0.005384
0.08205
0.01859
0.05844
0.0006476
0.09625
0.4991
0.0008535
0.001174
0.06224
0.00588
0.5906
0.005165
0.0006862
0.4094
0.5369
0.5732
0.0008656
0.183
0.007742
0.4974
0.0002354
0.5712
0.001241
0.2065
0.004017
0.003934
0.0004728
0.006762
0.000267
0.1994
0.00192
0.0002246
0.0007866
0.002296
0.01506
0.004248
0.00347
0.01422
0.00708
0.003291
0.3787
0.5641
0.004296
0.0004731
0.4411
0.004766
0.03924
0.03843
0.01114
0.1455
0.383
0.002233
0.04096
0.0002277
0.006279
4.243e-05
0.001366
0.0008192
0.0003451
0.004761
0.006094
0.007432
0.5661
0.000233
0.5489
0.002148
0.001402
0.00354
0.003779
5.158e-11
0.001394
0.007587
0.05854
0.006457
0.5683
4.03e-05
0.5636
0.00187
0.008487
6.874e-12
1.477e-08
1.35e-09
0.5882
0.0007001
0.002663
0.5732
0.007752
0.002288
0.001558
0.00904
0.003776
0.000454
0.004811
2.411e-05
0.3862
0.003247
1.545e-08
0.0008638
0.0002698
0.000116
0.4928
0.008213
0.1153
0.01486
0.3729
0.0001784
0.0001444
0.0001845
0.4457
0.004247
0.05822
4.211e-05
0.004109
0.0002079
0.01754
0.5397
0.0005187
0.004786
0.4488
0.01822
0.01373
0.0004436
0.0007891
0.0004178
0.0002
0.007913
0.009187
0.0013
0.001657
0.0009249
0.5363
6.944e-05
0.0019
0.0002483
0.003411
0.002908
0.6171
0.6087
0.1079
0.0005577
0.005824
0.5724
0.3413
0.006235
0.0005324
0.00313
0.004657
0.0001136
1.294e-05
0.009587
0.5502
0.4921
0.0001898
0.003967
0.002887
0.4342
3.289e-05
0.004233
0.001046
0.3148
0.0001405
0.5723
0.00343
0.001728
0.01969
0.3017
0.0004966
0.008109
1.787e-06
0.3826
0.002428
2.037e-05
0.5728
0.006243
0.5732
0.001175
0.007531
0.5761
0.0003654
0.000569
0.0001071
0.001857
0.006449
0.0003654
0.0003944
0.003322
0.001019
0.001816
0.0007777
0.001181
0.004199
0.0001767
0.4449
0.000389
0.5743
0.005867
0.4952
0.005872
0.4887
0.5742
0.02267
0.001104
0.002896
0.4647
0.5347
0.0003228
9.755e-05
0.0004093
0.0002567
0.008395
0.007894
0.003957
0.003655
0.003291
0.0006342
0.0003094
0.4637
0.001115
0.003568
0.0184
0.02049
0.4072
0.3395
0.008802
0.000126
0.007446
1.612e-06
0.4993
0.3015
0.00132
0.0009341
0.415
0.0003559
0.04457
0.102
0.0003769
0.006715
0.003707
0.05081
3.257e-12
9.876e-05
0.002376
0.001906
0.001544
0.001322
0.0001843
0.0007453
0.4391
0.002308
0.0004143
0.004457
0.5247
0.001222
0.0209
0.02617
0.4513
0.5247
1.651e-06
0.05781
0.0005417
0.001566
0.001741
0.01959
0.02024
0.0001803
0.05492
0.0006951
0.5661
0.4792
0.007422
0.08268
0.0003729
0.02676
0.0001998
0.008696
0.000752
0.08241
0.04952
0.3033
0.0002345
0.1434
0.0006091
3.11e-10
0.004028
0.005513
0.004498
0.3044
0.002817
0.0008233
2.519e-06
0.02798
0.01061
0.003304
0.0002611
0.002882
0.0009866
0.01454
0.0008241
0.002335
0.005537
0.008274
0.02476
1.574e-12
0.02049
0.4235
0.00197
0.002134
0.001452
0.5626
0.0008663
0.02256
0.003213
0.3116
1.442e-06
0.0009363
0.0001317
0.3581
0.0006696
0.001243
0.0007597
0.001462
0.3484
0.004312
0.0001291
0.0003463
0.005262
0.5703
0.004843
0.001915
0.5529
0.005055
0.01359
0.001418
0.001421
0.01986
0.003868
6.203e-05
0.000658
0.3798
0.004259
0.01051
6.715e-05
0.0003324
0.03714
0.007983
0.000231
0.4006
0.001665
0.0003838
0.006294
3.936e-08
0.006403
0.0002013
0.003079
0.002681
0.008688
0.5903
1.26e-12
0.001685
0.001977
7.821e-05
0.002867
0.0006221
0.00105
0.0005822
0.4972
0.02408
0.009686
0.3124
0.0008591
0.002193
0.002158
0.002793
0.4264
0.004175
0.001257
0.5663
0.4103
0.02045
0.01107
0.008392
0.0006123
0.003471
4.06e-07
0.007942
0.02898
0.5279
0.002673
0.001431
0.0003523
0.0001574
0.01493
0.4251
0.5005
0.08041
2.841e-05
0.5269
0.09052
0.0002128
0.002848
6.984e-05
0.4514
0.002644
0.002767
0.581
0.0003055
0.5156
0.001782
0.0001087
0.001018
0.007683
2.555e-05
0.461
0.0003776
0.04399
0.0001953
0.0002445
0.0001814
0.0002061
0.03755
0.01654
0.01021
2.049e-07
0.5785
0.01854
0.0004995
0.0007336
0.0004003
5.196e-06
0.428
0.1048
0.0001841
5.825e-05
2.201e-06
0.002303
1.297e-08
0.001001
1.116e-07
0.001368
0.0001043
0.02476
5.712e-06
0.5395
0.001814
0.2916
0.2936
0.004938
0.4511
0.002005
0.01454
0.005328
0.01687
0.2644
0.001214
0.001767
0.5179
0.03178
0.001739
0.2757
0.000331
3.054e-08
0.001541
0.005101
0.0007619
0.01046
0.0004318
0.571
0.003641
0.0006335
0.411
0.0004278
0.001906
0.01281
0.4259
0.1495
0.03569
1.115e-07
0.006657
3.025e-08
0.0049
0.003132
0.002236
1.13e-05
0.0008299
0.2928
9.982e-05
0.02018
0.2918
0.007096
3.047e-08
0.02655
0.000655
0.007844
0.01057
3.728e-06
2.662e-08
0.0006473
0.5518
0.5823
0.005341
0.005282
0.001169
0.0004107
0.003717
0.000133
0.001762
0.08634
0.0001279
0.1829
8.193e-05
0.5659
0.00399
6.332e-05
0.00594
0.0008928
0.003928
0.5775
0.5634
0.0001227
0.03409
0.0007063
0.0007334
0.0003334
0.005684
0.008481
0.001934
0.001081
3.407e-07
0.004393
0.0002782
0.0003236
0.006557
0.006559
0.002515
0.0006757
3.164e-05
1.573e-07
0.003773
0.5625
0.5521
0.00503
0.002538
0.01635
0.6139
0.003444
0.003921
0.02105
0.0004342
0.009266
0.0005317
0.007977
0.6368
0.02471
0.02075
3.951e-05
0.0001244
0.001158
0.02109
0.02027
0.0003428
0.0006691
0.00442
0.01015
0.002618
0.001395
0.001262
0.0001181
0.4157
4.118e-06
8.168e-06
0.01083
0.001986
0.0006811
0.5726
4.23e-07
3.633e-07
0.4231
0.6045
0.003121
0.003251
2.307e-08
0.000326
0.001934
0.000689
0.0003769
0.02314
0.02146
0.4031
0.0003082
0.004754
0.0005961
0.009075
3.065e-05
0.002226
0.4506
4.954e-07
0.0009091
0.5685
0.0008724
0.4301
0.5679
0.004893
0.05431
2.482e-06
0.5623
0.0003087
0.5805
0.00193
0.06534
0.03304
0.008724
0.0004073
0.0005693
0.0003253
0.003581
0.3846
0.1825
0.006074
0.001175
0.0005877
0.0004775
1.98e-05
0.0003185
1.382e-07
0.001726
0.0006421
0.00062
0.0005244
6.656e-05
0.03511
0.02641
0.3386
0.0005617
0.000679
0.000165
0.3795
0.000801
0.006303
0.002017
0.001885
0.00277
0.01593
0.0002133
0.01155
0.002054
0.0005712
0.0003449
0.0002332
0.4575
0.004985
0.0005762
0.4933
0.0009044
0.0004241
0.6385
0.009797
0.0004309
0.2114
0.03507
0.01152
0.000629
0.03644
0.5476
0.0009154
0.0008041
0.5562
0.04576
0.3342
0.003966
0.0007056
0.006562
0.2917
0.000103
2.814e-07
0.0004186
0.0008119
0.00628
5.648e-06
0.3978
0.001179
0.577
0.002462
0.004295
0.00114
0.001846
8.176e-05
4.12e-05
0.5959
2.282e-09
0.0001425
0.0002161
0.002819
0.0005812
0.01057
0.02939
0.0001029
0.0025
0.2603
1.449e-09
0.001948
0.0005876
0.0002481
0.001108
0.001623
0.0006378
3.293e-05
0.002045
0.001313
0.007462
0.0004633
0.0005877
0.02566
4.418e-08
0.0571
0.00165
0.06037
0.0003464
0.5488
0.567
0.009626
3.627e-06
0.003784
0.1709
4.223e-07
0.0001945
0.5796
0.0001218
0.001878
0.008564
2.017e-07
0.008632
0.001273
1.582e-11
0.03191
1.326e-05
0.006621
0.00227
8.241e-05
0.0006992
0.000178
0.004633
0.0007965
0.07991
0.05472
0.01293
0.001115
0.005805
0.001685
0.007977
3.825e-06
0.004506
0.02729
0.005427
0.01455
0.02177
0.006092
4.734e-08
0.2105
6.325e-05
8.868e-05
0.001054
0.001756
0.5802
0.008231
0.002499
0.02066
5.562e-05
0.0002745
0.0001287
0.5166
0.0005325
9.664e-05
0.002792
5.934e-07
0.003843
0.02164
0.0002721
0.5547
0.0002169
0.001328
6.321e-05
0.001202
0.1102
0.005747
0.4809
1.588e-07
6.553e-07
0.002101
0.01716
0.006089
0.4249
0.4564
0.0003359
0.003082
0.01507
0.1039
0.3334
0.3317
0.006669
0.002628
0.01705
0.00115
0.0008022
3.6e-07
0.01281
0.0001708
0.0009854
0.0006891
0.4785
0.0003287
0.006716
0.002489
2.925e-07
0.01401
0.01276
0.001285
0.002742
0.003609
1.591e-07
0.03577
0.002159
0.007318
0.0123
0.01055
0.0009439
1.525e-07
0.06308
0.0001262
0.5367
0.0006136
0.000766
0.4915
0.0005171
0.003781
0.001572
0.0004856
0.5532
0.01277
3.156e-08
0.5725
0.0007769
0.000334
0.002004
8.586e-05
0.01555
0.01053
0.0002104
0.000112
0.001618
0.001025
0.1093
0.001985
9.786e-06
0.0001353
0.001962
0.001673
0.5714
0.002066
0.02137
0.0001861
0.002123
0.01042
0.001632
0.4737
0.01108
0.0007029
0.3566
0.008803
0.4337
0.0002434
0.008393
5.444e-06
0.0008827
0.005145
0.0006074
0.00289
0.001023
0.0006328
6.953e-08
0.001639
0.0009282
0.006159
0.003755
0.005361
0.6148
0.001173
0.5609
0.006966
0.5992
0.006228
0.5558
0.001571
0.001096
0.6118
0.5643
0.0002553
0.06811
0.0002197
0.05714
0.6317
0.004858
0.002631
0.2816
5.143e-10
5.162e-05
5.23e-08
0.001224
0.003696
0.0006759
0.001281
0.001121
0.06391
4.088e-05
0.002637
0.0001403
0.0004884
0.002348
0.004294
0.01789
0.56
6.822e-08
0.002075
9.155e-05
0.5793
3.304e-07
0.001198
0.0006179
0.0008652
0.3841
0.3788
0.06923
0.03572
0.06532
0.00942
0.002635
0.01381
0.01135
0.1433
0.01043
0.0001612
0.005791
0.03577
0.00334
0.0104
0.0003204
0.0002919
0.002235
0.0006176
0.004764
0.5546
0.0007084
0.0006192
7.941e-06
0.004744
0.2044
0.002447
0.1975
0.001408
0.001243
0.0002493
0.05302
0.5657
0.00309
0.003003
1.736e-07
7.14e-05
0.01596
0.001711
0.0001598
0.0874
0.3427
0.0008217
0.000513
1.784e-07
0.1163
4.332e-08
0.001118
0.5616
0.001275
7.043e-05
0.00941
0.04624
0.006121
0.0002293
0.002849
0.002718
0.004069
0.0003088
0.1608
0.001023
0.0001798
0.0002678
0.3986
0.3984
0.0004868
0.007132
5.474e-07
0.003068
0.0002191
0.000184
6.44e-08
0.2104
0.0005397
0.4743
0.5688
0.5596
0.004562
0.4632
3.739e-07
0.5741
0.0001026
0.02349
0.002988
0.004175
0.0002814
0.4123
5.331e-05
0.05413
0.001603
0.004277
7.356e-06
0.4237
0.001247
0.0002836
0.004923
1.26e-05
0.0001059
0.003067
0.0008428
0.0005542
0.1382
0.4126
1.068e-05
0.3809
0.6319
0.02324
1.415e-05
0.4341
7.246e-05
0.5838
0.003843
0.00624
0.006462
0.002245
0.4956
0.003846
0.00038
0.0007417
0.0926
0.006792
0.03288
0.5745
0.542
0.003146
1.618e-07
0.003938
0.002143
0.4803
8.758e-07
0.02247
0.06946
0.3732
0.009469
0.0009448
0.0003299
0.4595
0.001185
0.5511
0.002913
0.6259
0.02033
0.001572
0.001491
0.005887
0.0002847
0.0009328
0.5364
0.006259
0.0001025
0.0004284
4.047e-07
0.000178
0.01633
0.2218
0.006607
3.529e-05
0.005067
0.00108
2.148e-06
0.4075
0.05618
0.5648
0.00205
0.001152
0.003342
0.5806
0.00014
0.5731
0.03409
0.0009201
0.5104
0.01848
0.02379
0.003033
0.00589
0.2124
0.0005865
0.5892
0.0006961
0.0001128
0.009124
0.01699
0.001227
0.2461
0.008592
0.001388
0.0002621
0.002199
0.001532
0.0002935
0.002037
0.001409
0.0001227
0.1414
0.04522
0.002014
0.2185
0.0008652
0.003554
0.05532
0.002238
0.492
0.3165
4.046e-05
0.03552
0.008407
0.001136
4.203e-07
0.001578
3.547e-06
0.01561
0.4172
3.731e-06
0.001509
0.05908
0.0005756
0.3209
0.006529
0.6394
0.009742
2.603e-05
0.006214
0.004288
0.002611
0.001468
0.5855
0.002607
0.02113
0.005027
0.0003373
0.4208
0.001849
0.0001021
0.5656
0.454
0.001103
0.3948
0.00432
0.008434
0.009974
0.003325
0.01677
0.003493
0.4177
0.02918
0.001992
0.4603
0.03228
0.0004786
2.219e-07
0.6051
0.0005125
1.57e-05
0.01838
0.0007869
0.009062
0.001226
2.278e-07
0.3662
0.4141
0.0008745
0.4313
0.0002923
0.004024
0.00318
5.113e-05
0.0009978
0.4392
0.001192
3.061e-08
6.322e-09
0.0006141
0.0007965
0.0009734
0.01801
0.00466
0.007146
0.002677
0.0001778
0.0004023
0.0003651
0.001267
1.407e-06
0.003409
0.01337
0.571
0.0009506
0.01415
0.002412
0.03019
0.1907
0.001582
0.0006193
0.02228
0.6088
0.000545
0.0001777
0.01083
0.0006876
0.005131
3.664e-07
0.0008151
0.416
0.0007955
5.35e-06
0.003847
0.001843
1.114e-07
0.3694
0.0001057
0.0006611
0.001246
0.3
0.003641
0.007031
0.0002258
0.00073
0.005208
0.0001586
0.4436
0.007041
0.001144
0.116
0.006343
0.5545
0.0004202
0.000187
0.001253
0.0001349
5.292e-05
0.003119
2.969e-06
0.4163
0.0009317
0.005258
0.00964
0.241
0.02173
0.004463
0.003865
0.001608
0.4168
0.002046
2.645e-08
1.557e-05
0.001488
0.01779
0.01515
0.01274
0.5684
0.4412
0.00255
0.02264
0.4911
0.002376
0.001457
0.0007384
0.000644
0.005627
0.001178
0.009393
0.0005712
1.498e-07
7.514e-07
0.0643
0.002043
4.151e-08
0.009214
3.456e-05
0.02863
0.006355
0.004892
5.556e-09
0.008824
0.006408
0.3332
0.1794
0.000154
0.001202
0.5736
0.5933
0.006431
0.0001742
0.004699
0.001861
3.777e-06
0.00447
0.3717
0.0001946
0.00898
0.0009579
6.908e-05
0.04189
0.07768
0.004201
0.001452
0.01601
0.001585
0.5881
7.552e-05
0.01302
0.0002217
0.04906
0.0009347
4.012e-05
0.009214
0.0001865
0.01001
0.0001745
0.001314
3.639e-05
0.05832
0.007479
0.001927
0.003084
0.000375
0.0008716
0.0002107
0.0002939
0.5618
0.0007068
0.02906
0.0003009
0.002645
0.3687
0.01148
0.08273
6.407e-05
0.3664
0.0009799
0.002166
0.001353
0.007236
0.005991
0.0765
1.791e-07
0.03138
0.4792
0.0001459
0.4629
0.004092
0.2867
0.0151
0.00868
0.5434
0.02593
0.0007997
5.821e-05
0.577
0.5102
0.00822
0.005435
0.001319
0.1211
0.006671
0.001553
0.0002706
0.0003623
0.0353
0.004958
0.01068
0.06867
0.001786
1.66e-06
0.01207
0.0002913
0.000447
0.01049
4.534e-07
0.5732
0.4255
0.01025
0.01286
5.092e-08
0.5796
0.01184
0.0001739
3.921e-07
0.0003589
0.0003682
0.3058
0.3058
0.0005215
0.001444
0.001416
0.002234
0.2648
0.0228
0.01333
0.6351
0.000195
0.001342
0.002299
0.001869
5.557e-05
0.07903
0.007845
0.561
0.006974
0.001295
0.0002734
0.0006186
0.001567
5.768e-05
0.0002138
0.002605
0.00151
0.000591
0.001406
0.08124
0.00386
1.159e-05
0.2921
0.2932
0.0004315
0.0007599
1.632e-05
0.009303
0.0005543
0.00128
0.3828
0.5742
0.005076
0.6143
0.00317
3.143e-06
0.004599
0.04534
0.002493
0.1372
4.348e-05
0.001457
0.4017
0.006255
0.006695
0.002085
0.002704
0.002227
0.001287
0.002161
0.00287
0.002138
0.005873
0.007291
0.0002487
0.001721
0.001968
0.0006267
0.0001108
0.0009079
0.0002401
0.0002323
0.006827
0.008723
0.00486
4.381e-06
0.02138
0.001181
0.5409
0.004944
0.6194
0.001439
0.01323
3.226e-06
0.0007052
0.06023
8.95e-05
1.118e-07
0.0001344
0.003245
0.002637
0.0002005
0.0001299
0.3699
0.002563
0.004101
1.427e-07
0.001201
0.002132
0.03322
0.0246
0.5751
0.006534
0.0001674
0.008724
7.689e-05
0.007105
0.092
0.0001292
0.5626
0.007899
0.0198
0.00477
0.0003214
0.03527
0.008826
0.01276
0.205
0.001217
0.004784
2.384e-07
0.0001181
0.001581
0.5264
0.002025
0.002396
1.726e-05
0.0006719
0.003962
0.01716
0.002079
0.5712
0.0008056
0.0005535
0.00585
0.003355
0.005264
8.077e-05
0.000273
0.0007846
0.003752
0.03182
0.008935
4.049e-06
0.0269
0.1085
7.602e-08
0.3759
0.03873
0.5728
0.599
0.003853
0.5555
0.0001624
0.002564
0.02928
0.006124
0.000285
8.892e-05
0.001147
0.0006366
0.001202
0.004801
2.885e-09
0.002977
0.001411
0.1654
1.405e-08
0.00787
6.623e-06
1.188e-05
0.3301
0.0001684
0.0002858
0.009464
0.006167
1.5e-05
0.001586
0.0001068
0.003784
0.002741
0.423
0.02088
0.6067
0.01461
0.006348
0.0002548
0.007462
0.004558
4.42e-06
0.005967
0.5257
0.0006414
0.002376
0.02159
0.003212
0.00248
0.002228
0.0003696
0.0002427
4.853e-06
0.00053
0.0008277
0.0001627
0.001498
0.0005994
0.07445
9.402e-09
0.0007514
0.002312
0.009285
0.4143
0.00229
0.0005737
0.004635
0.009569
3.657e-06
0.0002313
0.002516
0.01928
0.002376
0.0003087
0.4346
9.659e-06
0.01128
0.233
0.003402
0.0005769
0.5624
0.000826
0.006154
0.004734
5.293e-05
0.004919
0.001835
1.097e-07
0.002585
0.0009936
0.6276
0.6276
0.0009594
0.008956
0.007153
0.0006604
0.00156
0.549
7.181e-05
0.0002733
0.003742
0.5122
0.5218
0.003585
0.01561
0.0009125
2.336e-08
0.0004371
0.4218
0.0003307
3.095e-07
0.06256
0.0004431
0.0006015
0.4165
0.01484
9.833e-05
0.03881
0.001973
0.3893
0.3364
0.3552
0.2942
0.0828
0.00237
0.004745
0.0006166
0.008231
0.0005222
0.003282
0.0002562
0.2938
0.001547
0.001977
3.477e-05
0.0002584
2.399e-05
0.0005268
0.002912
0.0007427
0.00421
0.001283
0.1321
0.002109
5.222e-08
0.001212
4.107e-05
0.01921
0.001608
0.5742
1.323e-08
0.001525
0.000768
0.008949
0.2741
2.321e-06
0.579
0.001542
0.0003261
0.4211
0.001411
0.00131
0.005957
0.0009087
7.773e-06
0.1937
0.0002443
0.4581
0.007016
0.002444
0.0005579
0.00505
0.002289
0.5446
0.5649
0.04647
0.0002015
0.0001649
0.04546
0.005043
0.001352
0.009811
0.0002336
0.0006739
0.01602
0.009344
0.002396
0.001806
0.03957
2.658e-07
0.02062
0.5742
3.856e-05
0.5719
0.4215
0.04935
0.4159
0.0001146
0.005464
0.0001516
0.003187
0.0007705
0.586
0.07034
0.0003914
0.001247
0.006121
0.4285
0.02846
2.366e-05
6.251e-05
0.6183
4.021e-05
4.892e-05
3.938e-08
0.4025
0.01696
0.009667
0.0699
0.5134
0.01902
0.002866
2.491e-05
0.06739
0.0003356
2.458e-09
0.5752
0.0006798
0.0001403
0.001601
0.5787
0.000284
8.849e-06
1.689e-07
3.339e-07
0.02227
0.008365
1.181e-06
0.204
0.001327
0.561
0.005263
0.0003989
0.01847
0.000453
3.428e-07
0.06437
0.0007126
0.00219
0.6424
0.2406
0.0004147
0.0002009
0.02467
1.035e-05
0.001541
0.01461
0.007715
0.004177
0.0004475
0.001808
0.5756
0.004311
0.003421
0.001281
0.0003979
0.001542
0.00043
0.001496
6.546e-08
2.089e-07
1.306e-09
0.0003993
0.1378
0.0004414
0.457
0.0002166
0.000291
0.5759
1.487e-07
0.6349
0.0007112
7.081e-06
8.65e-05
0.0005306
0.002651
0.0003393
0.001093
0.3711
3.831e-08
0.005142
0.355
0.008336
0.0009505
1.318e-06
3.092e-06
1.394e-08
0.008369
0.0006029
0.0004395
0.005785
0.07357
0.002382
3.505e-05
0.4717
0.001941
0.002946
0.0005775
0.003006
0.002117
0.01457
4.686e-05
0.001849
0.00168
4.496e-06
0.2742
7.545e-05
0.06221
0.00326
0.0006258
0.3421
0.09176
0.003685
0.0003525
0.0007256
6.948e-08
0.3453
0.5547
0.009799
0.001104
0.000145
0.002786
0.0171
0.3049
0.3638
0.0002376
0.3044
0.0004582
0.0007653
0.08437
0.001058
0.001742
6.776e-06
6.175e-08
2.923e-07
0.2454
0.0003474
0.001293
0.001189
0.02049
0.01287
2.55e-06
0.005864
0.0002952
0.001003
1.438e-05
0.001156
0.00988
2.198e-06
0.002639
0.002249
0.00397
0.3524
0.003219
0.09056
0.5695
0.004692
0.001771
0.001747
0.003383
0.003615
2.023e-08
5.917e-08
0.00914
3.408e-09
0.3654
0.04777
0.2798
0.1783
0.003326
0.6338
0.001038
9.611e-08
0.0003823
2.594e-05
0.02754
0.007803
0.001425
0.001513
0.007152
0.0004425
0.004821
8.552e-05
0.001066
0.3268
0.0009205
0.002107
0.6046
0.2761
0.0001248
0.5848
0.001132
0.0008497
0.001044
0.007001
7.904e-05
0.4127
0.04178
0.2119
0.0003851
6.777e-06
0.000567
0.002989
0.551
0.0008057
0.5558
0.02816
0.0008718
0.01957
3.372e-07
0.0009207
0.0003656
0.01633
0.0002378
0.01565
0.3758
0.004015
0.0004485
0.4735
0.008477
0.5845
0.0002346
0.0001169
0.002638
0.00158
0.4543
0.0003098
0.0005943
0.001951
1.785e-06
0.001004
7.582e-05
0.5355
0.02949
0.009582
0.00911
0.0007211
0.004759
0.07594
0.01183
0.04775
0.002928
0.002244
0.4601
0.6026
0.5477
0.2818
0.03443
5.033e-05
0.0003541
0.5706
0.001061
0.003727
0.001517
0.5928
0.001363
0.09318
0.0001228
0.4184
6.534e-08
0.00862
0.000109
0.3388
0.06991
1.825e-07
0.3461
0.00154
0.001469
0.001104
0.0006024
0.001632
0.5813
0.0008893
0.0003549
0.004413
0.001419
0.00321
0.008271
0.003117
0.002631
0.0007392
0.5591
0.005155
0.003629
9.679e-05
0.04535
0.614
0.0008159
0.0001787
0.004086
0.004419
0.006396
0.000654
0.2168
0.004467
0.0002665
0.008125
0.000617
0.01315
0.3263
0.005146
3.6e-07
0.003785
0.0006669
6.117e-05
0.009059
0.006212
0.5701
0.3633
0.05231
0.3659
1.469e-05
0.001081
0.5933
0.5427
0.002156
1.872e-08
0.5935
0.003793
5.862e-06
0.001646
0.006937
0.001081
0.0005906
0.001624
0.004824
0.0003335
1.715e-07
0.0001134
0.569
0.001972
0.007758
0.001275
0.5095
0.02789
0.000829
0.003039
0.0004698
7.993e-06
9.158e-05
0.03806
0.0002889
1.607e-07
0.01439
0.000682
0.004042
0.01083
0.01476
0.0001847
4.574e-06
0.5612
0.0009227
0.001703
0.5923
4.244e-05
0.005283
0.008224
0.08874
0.005368
0.0003837
0.0005918
0.00284
0.5561
0.5717
0.03421
0.0006559
0.608
0.01814
0.4564
0.0002795
0.011
0.005348
0.0004588
0.000145
0.02774
0.004308
0.5201
1.267e-07
0.007503
0.000426
0.0004728
0.1087
0.0009855
0.01232
0.0008719
5.028e-07
0.01759
2.596e-07
0.5469
0.5513
0.003039
0.1376
0.5291
2.014e-07
0.001091
0.001001
4.784e-05
0.008473
0.002572
0.3158
1.948e-07
0.1696
0.002423
0.6043
0.05057
0.0006304
0.002328
0.002125
0.00532
0.01198
0.0001964
0.4032
0.002201
3.406e-05
0.0002862
5.262e-05
0.05063
0.00186
0.005829
0.6201
0.0002056
0.0005706
0.1006
0.2219
0.001002
2.745e-07
0.304
0.5473
0.00542
6.524e-05
0.008124
0.0004122
0.6189
2.294e-05
0.001168
0.001599
0.6107
0.08218
0.0002516
0.001287
9.826e-05
0.003784
0.003194
0.5403
0.0005739
0.3377
0.0002509
2.643e-07
0.127
0.0008362
0.008354
1.411e-05
1.989e-06
0.0001642
0.1074
0.3974
0.002375
0.03722
0.5677
0.0006264
0.002991
0.01342
0.5976
0.08459
0.1105
0.4123
0.0009565
0.001751
0.574
0.001342
0.002423
0.0001409
0.3703
0.589
0.5663
0.1284
0.009653
0.0236
0.0003916
3.787e-07
5.9e-06
0.002535
1.83e-07
8.647e-05
0.4017
6.161e-07
0.001939
5.149e-05
0.0121
0.04443
0.01921
1.388e-05
0.0003145
0.0001685
0.0004231
0.1925
0.0032
0.001003
0.00199
0.01013
0.03428
0.0006155
0.05333
0.001006
0.3537
0.002816
0.005
0.01414
0.02809
0.0003245
1.481e-07
4.579e-05
0.4129
3.636e-05
0.002665
0.6082
0.002771
0.5803
0.0001045
0.001687
0.3491
0.0006607
0.001198
0.6543
0.01073
0.01848
1.782e-05
0.5435
0.0364
4.593e-06
0.01025
0.5639
8.873e-05
0.002811
0.2501
0.0389
0.02121
0.001281
5.474e-07
0.0004226
0.00178
0.01081
0.0001957
0.01349
0.5714
0.2303
0.0009334
0.00226
0.001437
0.6098
2.646e-08
0.001036
0.00396
0.0006526
0.002599
0.001842
0.4375
0.1055
0.0003797
0.0009312
0.1863
0.001895
0.0004198
0.01712
0.008596
0.006283
0.01016
0.1943
0.01273
0.004365
0.009471
0.005432
0.6069
0.000149
0.391
0.002542
0.007388
0.01211
3.307e-05
0.001724
9.702e-09
0.01137
0.02454
0.2773
0.5305
0.008727
0.004952
7.1e-05
0.0002857
0.0009138
0.0006459
0.0002356
0.004889
0.01784
0.001867
0.0003831
2.964e-05
0.003208
0.2213
0.0001903
0.01403
0.0001821
0.00648
0.009733
0.002689
0.0009852
0.5728
0.0006499
0.03634
0.567
0.071
0.0001878
0.196
6.549e-10
0.000476
0.0002288
0.5688
0.005601
0.0009251
0.3694
0.003973
0.003131
6.124e-05
0.0004807
6.57e-05
0.5879
0.001521
0.5652
0.01226
0.0007339
0.00127
0.007402
0.0003458
3.241e-10
0.4476
0.5749
0.003329
0.002031
0.0002348
0.01483
0.002597
0.0003524
0.01476
0.005826
0.5685
0.002052
0.0001126
0.08037
0.00331
0.561
0.002151
0.116
0.004312
0.000627
0.001311
0.2429
0.0004926
0.007991
0.4492
0.0003618
0.00126
0.07626
0.5502
0.422
0.0006565
0.0005051
0.005055
0.02069
0.001616
0.0369
0.001353
0.00495
0.3516
0.02939
0.02221
9.311e-08
0.0001703
0.0001082
0.5412
0.0004044
0.001543
8.954e-05
0.0001347
2.474e-06
0.007466
0.004487
0.002163
0.002835
0.0003551
6.273e-05
0.04076
0.4067
0.02083
0.2894
3.355e-08
0.5524
0.006027
0.0004652
0.004237
0.005793
0.001542
0.002252
8.332e-05
0.007112
0.001361
0.008958
0.0107
0.000646
9.583e-08
0.003268
2.379e-07
4.59e-06
0.5754
1.966e-07
0.002706
0.0002361
9.648e-05
0.004655
0.02766
0.0006277
0.002537
0.005732
0.2136
0.006571
0.005485
0.001243
0.002749
0.001779
0.01651
0.01456
0.04256
1.422e-07
0.002428
0.0002543
0.002145
0.0003889
0.3873
0.0003522
0.001629
5.529e-05
0.007288
2.547e-06
0.0006533
0.0006713
0.07121
9.333e-05
0.08085
0.004598
0.002847
0.09473
0.01779
0.003817
0.004795
0.0008998
0.0005839
0.006096
0.001372
0.002633
2.618e-06
0.005142
4.131e-08
0.2088
0.01482
0.0007873
0.01317
0.1962
0.001545
0.5734
0.536
0.5749
0.002165
0.001551
0.0002293
0.06649
0.05828
0.002356
0.1762
6.428e-09
0.0001325
1.519e-07
0.0009009
0.1219
0.0003008
0.0003575
0.08497
0.0001086
0.5864
0.006304
0.01408
0.0002965
0.02388
0.541
0.4527
0.001271
0.01117
0.1881
3.441e-07
0.001495
0.4889
0.58
0.003021
0.2647
0.0005859
1.893e-05
0.4365
0.00696
0.0003241
0.001659
0.000669
3.359e-07
0.004469
0.04389
0.003718
0.000803
0.0424
0.0006581
0.003648
0.01032
0.0003934
0.001261
2.995e-10
0.2597
0.00251
1.769e-05
0.0004541
0.5784
0.002937
0.5766
0.0105
0.01929
0.003093
0.004692
0.0006768
0.002669
0.03688
0.0001528
0.0004561
0.0002508
0.0004023
0.0002777
0.001978
0.02499
0.002678
0.0007334
0.003408
0.0008184
0.456
1.974e-07
3.298e-06
0.0001461
0.003737
0.006472
0.0001884
0.0003902
0.02384
0.1172
2.079e-05
0.001052
0.3588
0.2855
0.4265
0.0006031
0.001438
0.02035
0.0004991
0.01223
0.3125
0.001946
0.003006
0.003849
0.0005588
6.022e-08
0.0002991
0.001223
0.001648
0.00259
0.001412
0.0002731
0.001965
0.008104
0.01146
0.0001385
0.002982
0.0254
0.002085
0.0003347
0.05512
0.007252
0.01793
0.01797
1.315e-07
0.0002427
0.6032
0.0005256
0.01232
3.105e-06
0.0001703
0.5014
0.05614
0.0003414
0.3565
0.002814
0.0002791
0.0004137
0.01197
0.3914
0.0341
0.006972
0.005042
0.08861
0.0006441
0.4389
0.0003922
0.003583
0.0004221
0.0004218
0.001901
0.001854
0.0007473
0.0005576
0.02836
0.00208
0.5816
1.888e-07
0.2295
0.2864
0.0004381
0.5704
0.005123
0.008168
6.792e-10
0.5956
0.003485
0.0008853
0.0004429
0.0007011
0.03882
0.001716
0.002715
0.0008743
8.439e-05
0.002823
0.1065
0.5578
0.0005417
0.0004436
0.02928
0.001638
0.000155
6.19e-05
0.01087
0.5336
0.001899
0.001302
2.879e-08
0.003334
0.001587
0.0124
0.001101
0.5446
0.006333
0.0003238
0.0001638
0.5974
0.03191
0.0001818
0.539
0.002503
0.0001562
0.005559
0.5939
0.6003
0.01562
0.4229
0.3757
0.5736
0.0133
0.001148
0.0001481
0.04975
0.001485
0.008695
0.05062
0.6432
0.004757
0.002807
0.1554
0.1105
0.0001656
0.03627
0.4322
9.984e-05
0.002249
0.01764
1.902e-07
1.259e-06
0.4481
0.001078
0.01059
0.0004616
0.001906
3.385e-05
0.6258
0.006736
1.365e-07
0.00851
0.001267
0.02227
9.61e-05
0.001935
0.001375
0.006917
3.408e-06
0.1313
3.316e-05
0.002709
0.3736
0.331
0.3307
0.000616
0.003316
8.339e-05
0.0009993
1.45e-07
0.09756
0.336
0.001839
0.004351
0.06518
0.5679
0.0002603
0.009782
0.0001732
0.00229
0.0004887
0.001399
0.002573
0.004833
0.0008371
0.5413
2.67e-06
0.0009374
0.001916
0.006477
0.1242
0.5579
0.003254
0.006338
0.000795
7.378e-05
0.003903
0.2429
0.006123
0.05274
0.08929
0.569
0.000317
0.001095
2.158e-05
0.0008491
0.003169
0.01404
0.00182
0.004295
0.009761
0.002525
0.02165
0.04201
0.5907
0.001311
1.605e-05
0.03651
0.01702
9.138e-05
0.3194
0.5704
0.01672
0.251
0.6039
0.004566
0.4881
0.4877
0.007715
0.3755
0.002331
4.249e-07
0.000426
0.01876
0.04063
0.4744
0.5948
0.0147
0.001098
0.003622
2.184e-07
0.005147
0.4297
0.009339
0.008694
7.833e-05
0.07337
0.5969
0.07768
0.004044
0.6069
0.5294
0.001284
0.001187
0.1135
0.3547
0.001721
0.5371
0.1784
0.5022
5.59e-09
0.09068
0.0001926
0.009829
0.3591
0.09656
0.01454
0.003349
0.0003982
0.003856
0.002581
0.006954
0.6238
6.462e-07
0.00486
0.004418
0.5902
0.0003541
0.000584
0.001288
0.0002582
0.0275
0.000473
0.007146
0.04016
4.587e-05
0.6064
1.896e-07
0.005305
3.673e-06
0.6022
0.003044
0.5734
0.1335
0.009432
1.426e-05
0.005945
0.0004553
0.02423
0.4155
0.0005149
0.4137
9.29e-05
0.0004703
0.01835
0.04859
0.4302
0.001581
0.5664
0.01225
0.003554
0.0118
0.005346
0.5618
7.5e-05
0.2093
0.0005824
0.000304
0.006836
0.0001583
6.077e-05
0.004276
0.00115
0.002066
0.1964
0.004618