/*--------------------------------*- C++ -*----------------------------------*\
  =========                 |
  \\      /  F ield         | OpenFOAM: The Open Source CFD Toolbox
   \\    /   O peration     | Website:  https://openfoam.org
    \\  /    A nd           | Version:  8
     \\/     M anipulation  |
\*---------------------------------------------------------------------------*/
FoamFile
{
    version     2.0;
    format      ascii;
    class       surfaceScalarField;
    location    "15";
    object      phi;
}
// * * * * * * * * * * * * * * * * * * * * * * * * * * * * * * * * * * * * * //

dimensions      [0 3 -1 0 0 0 0];

internalField   nonuniform List<scalar> 
189008
(
1.765e-07
-1.765e-07
3.648e-09
-3.648e-09
1.503e-08
-1.503e-08
2.141e-08
-2.141e-08
-5.914e-06
5.914e-06
2.23e-08
-2.23e-08
1.358e-05
-1.358e-05
-6.738e-06
6.738e-06
-4.115e-06
4.115e-06
-1.552e-05
1.552e-05
8.762e-06
-8.762e-06
-5.844e-06
5.844e-06
-4.652e-08
4.652e-08
-2.53e-08
2.53e-08
0.0002053
-0.0002138
8.502e-06
1.306e-05
-1.489e-05
1.832e-06
-7.168e-08
7.168e-08
0.02856
-0.01191
-0.01665
0.004824
-0.003078
-0.001746
-2.005e-05
2.108e-05
-1.025e-06
-0.002291
0.001977
0.0003137
-3.669e-06
1.987e-06
1.682e-06
-0.002955
0.01057
-0.007619
1.738e-05
0.0005943
-0.0006117
-2.285e-06
-1.384e-06
-0.000492
0.0002648
0.0002273
0.0002127
-0.0002355
2.275e-05
0.0002348
-2.207e-05
0.0003059
-0.0002345
-7.135e-05
0.01759
-0.03044
0.01286
-6.071e-05
-0.000276
0.0003367
-0.0001439
-0.0003482
0.000171
-0.0001152
-5.575e-05
0.0004089
-0.0002381
-0.0001708
0.01212
0.01066
-0.02278
5.632e-05
0.0001147
-5.741e-05
-0.0004606
0.000518
-0.004347
0.005215
-0.0008681
-4.904e-05
0.0006304
-0.0005814
-0.0001092
0.000121
-1.177e-05
0.002809
0.002015
0.001319
-0.003332
0.002013
-9.501e-05
-0.003899
0.003994
1.307e-07
-1.307e-07
0.0006278
0.02793
0.0002287
0.0001802
0.0001975
0.0001084
0.0009862
-0.0009872
9.623e-07
-0.0008815
0.001072
-0.0001902
-3.012e-05
0.0005162
-0.000486
4.446e-06
8.609e-06
-0.01265
-0.0302
0.04285
0.0006414
0.0002822
-0.0009236
-0.01222
0.009588
0.002632
1.084
-0.1297
-0.9543
0.001197
-0.000939
-0.0002581
-0.1446
1.229
0.01175
-0.007425
-0.004326
-0.3113
0.02021
0.291
-0.006529
-0.005691
-0.002402
-0.0004837
0.002885
0.00172
-0.002909
0.001189
-0.0001829
0.001576
-0.001393
-0.8104
0.9561
-0.1458
0.0002739
-0.0006534
0.0003796
-0.0002381
-0.003707
0.003945
-0.02787
0.02028
0.00759
0.001951
-0.001611
-0.0003401
0.0005404
0.00141
-1.286
0.4821
0.8039
-7.969e-05
-0.0003871
0.0004668
-9.081e-05
-0.0001447
0.000562
0.002723
-0.003285
-0.1164
-0.1948
-0.2766
0.5187
-0.2421
9.715e-05
0.0001377
-0.05114
0.0921
-0.04096
0.001093
-0.001016
-7.713e-05
0.0006021
0.000595
0.1608
-0.6346
0.4738
-0.0002993
0.0002267
7.256e-05
-9.326e-06
-1.073e-05
-0.0002934
-0.0003812
0.0006745
1.468e-05
8.432e-05
-9.901e-05
-0.0006631
0.0009983
-0.0003352
0.0006097
-0.0009421
0.0003324
-0.0006596
0.001274
-0.0006143
-0.0002567
7.773e-05
0.000179
-0.003489
0.003251
-0.0003979
0.0006455
-0.0002476
0.1817
-0.01651
-0.1652
-0.007036
-0.002658
0.009694
-0.0003281
0.000854
-0.0005259
-0.001281
-0.00101
-0.001154
0.001186
-3.186e-05
0.02354
0.01685
-0.04039
0.003188
-0.001869
0.0003843
-0.0003885
4.167e-06
0.0009354
0.0001858
-0.001121
-0.0198
-0.008072
0.6868
-0.526
-1.316e-05
-0.0008684
-7.56e-05
-0.0001955
0.0002711
0.004183
-0.005061
0.0008781
-0.0001812
0.0007909
0.001236
-0.0003003
-0.001052
0.001511
-0.0004589
-1.007
-0.2793
-0.001524
0.0007408
0.0007831
-1.159
0.8798
0.2794
0.0002091
-3.762e-06
-0.0001847
-7.204e-05
0.001757
-0.0002748
-0.001482
9.109e-05
-0.0004997
0.0004086
-0.2126
0.09804
0.1146
0.0006613
0.002546
-0.003207
-0.1066
0.05911
0.0475
0.1643
-0.4409
0.02412
-0.07525
5.186e-07
-4.16e-07
-1.026e-07
-1.258
0.09849
-0.0001457
-0.0002994
0.000445
-0.0004617
-0.0008477
0.001309
0.01406
-0.01185
-0.002206
-0.0001947
-0.0001046
0.0003969
-0.0003674
-2.948e-05
0.001593
0.0007299
-0.002323
0.08667
-0.1026
0.0159
0.001731
-0.0006684
-0.001062
-0.000812
0.0006488
0.0001632
-0.000908
0.0002869
0.0006211
-0.0009283
0.0003616
0.0005667
-0.000323
-0.001179
0.001502
0.0004611
0.0006323
1.73e-07
-1.367e-07
-3.634e-08
-0.0009586
5.06e-05
-0.005902
0.03258
-0.02667
0.0009982
-0.001813
0.0008145
-0.0002723
0.0003168
-4.451e-05
0.02811
-0.0493
0.02119
0.01
0.0001457
-0.01015
-0.04971
-0.04007
0.08978
0.001868
-0.002198
0.0003305
0.004134
-0.002259
-0.001875
0.001049
-0.0004071
0.001355
-0.000438
-0.0009172
-7.479e-06
-5.694e-07
8.049e-06
-0.02738
-0.783
-0.001149
0.0002209
0.0001944
-0.0003019
0.0001076
0.002421
-0.003548
0.001126
0.001194
-0.0003244
-0.0008701
0.003415
-0.00601
0.002595
-0.009133
-0.0001494
0.009282
0.0003335
-0.0006311
0.0002976
-0.0008201
0.000157
0.007665
0.004086
0.0008128
-0.0006543
-0.0001586
0.0002212
0.000765
0.0001792
-0.0003544
0.0001753
-0.0003226
0.0006003
-0.0002777
-5.362e-05
5.362e-05
0.192
-0.01034
-0.001152
0.0003568
0.0007952
0.0001993
-0.0004455
0.0002462
-0.0002142
0.0004881
0.0005263
-6.271e-05
-0.0004636
0.0003331
0.001922
-0.002255
-0.0006653
0.0005005
0.0001649
-0.04188
0.03366
0.008226
-1.495e-05
-2.877e-05
4.372e-05
0.002685
0.00145
-0.004678
0.001959
0.002719
-0.002968
0.0009493
0.002019
1.03
-1.203
0.1726
0.0002855
-0.0002428
-4.266e-05
-0.0007545
0.000365
0.0003895
0.0009648
0.0007659
-0.0004663
0.0009281
-0.0004618
0.1167
-0.1406
0.02388
-0.001941
-0.001027
-0.1204
-0.006387
0.1268
-2.197e-05
-0.0001909
0.0002129
0.0001288
0.0001566
-0.000328
-0.000484
-0.0009469
0.002667
-0.0006469
-0.006101
0.006748
-0.0004293
0.0005204
0.0005749
-0.0005576
-0.006503
0.08279
-0.07629
7.725e-05
-0.0006918
0.0006146
0.000541
0.0001041
-0.0006451
-0.03972
0.03382
0.0004594
-0.0006016
0.0001422
1.013e-07
-0.000543
-0.002036
0.002579
-1.467
1.196
0.2706
-1.465
1.195
0.2704
4.775e-06
1.093e-06
-5.868e-06
-0.1659
0.1328
0.03301
0.2073
-0.03981
-0.1675
-0.05757
0.04806
0.009513
0.023
-0.06048
0.03748
-0.0004514
0.000394
-6.588e-08
6.588e-08
0.0002978
-0.00104
0.0007426
0.0265
-0.008312
-0.01819
0.002778
-0.0006434
-0.002135
0.04307
-0.02548
-0.2075
-0.005089
-0.0006152
-0.01558
0.0162
0.0009411
-0.0005108
-0.0004303
-0.06053
0.2007
-0.1401
-0.0002971
-0.0003682
-1.012e-05
0.0004482
-0.0004381
4.011e-06
-5.303e-06
1.291e-06
3.686e-05
-3.369e-05
-3.169e-06
0.00357
-0.002149
-0.00142
0.0002813
-0.00094
0.0006587
0.02191
0.004592
-0.0006144
0.0001801
0.0004343
-0.4705
0.2197
0.2507
0.001048
0.0001465
-0.0007843
0.001098
-0.0003135
0.0001707
0.0001043
-0.000275
6.27e-05
-5.257e-05
-1.013e-05
-0.0003212
0.0005206
1.32e-05
-0.00436
-0.0001173
0.0001196
-2.267e-06
-0.001403
0.001242
0.0001611
0.002061
-0.0005815
-0.001479
-0.0432
-0.07719
0.003178
-0.002616
-8.024e-07
1.114e-06
-3.117e-07
0.001223
0.0008371
-0.02343
0.0189
0.004526
-0.0003718
-0.0007802
1.068e-06
-1.068e-06
0.2277
-0.02034
0.00126
-0.0002346
-0.001026
0.0009456
-0.0004046
0.0003857
-0.0008255
0.0004398
-0.0006986
0.0004649
0.0002337
0.0004192
0.0003936
0.0005736
0.0003937
-0.0009673
3.345e-07
1.842e-07
0.0009541
0.0004465
-0.001401
-0.0002345
0.0002109
2.364e-05
-6.165e-06
6.165e-06
0.1945
-0.9639
0.7694
-0.000903
-0.001495
0.002398
-0.0001312
0.0003339
-0.0002027
0.002375
-0.001122
-0.001254
0.002891
-0.0009093
-0.001982
-0.0001829
0.0008459
-0.000663
0.0008382
-0.0004797
-0.0003585
0.116
-0.02929
9.02e-05
-0.0004234
0.0003332
-0.0002137
0.001535
-0.001322
-0.009977
0.0003819
0.009595
-0.003479
0.0018
0.001679
-0.06037
0.09517
-0.0348
-0.01245
0.005413
-0.08864
0.03894
-0.0009935
-0.0009195
0.001913
6.13e-05
0.0005286
-0.0005899
-0.0002451
0.000508
-0.0002628
0.000222
-0.0004989
0.0002768
-0.0009822
-0.001232
0.002214
0.001546
-0.004683
0.003137
-0.0005606
-1.021e-05
0.0005708
0.864
0.1663
-0.0009512
0.001238
-0.0002865
0.00136
-9.955e-05
0.001105
-0.001876
0.0007711
-0.0007977
0.000875
0.0009364
0.0008204
0.001096
-0.001287
0.0001907
-0.3842
-0.4409
0.8252
0.0008628
0.001427
-0.00229
-0.537
-0.345
0.882
0.04098
-0.01743
0.004208
-2.499e-05
-0.09167
-0.1637
0.2553
0.04836
0.119
-0.1674
2.19e-07
-7.168e-08
-1.473e-07
0.0009761
-0.0007892
-0.0001869
-0.07749
-0.1005
0.1779
0.001406
-0.001039
-0.0003669
0.1649
-0.04818
-0.001055
0.00447
-0.002477
0.005752
-0.003275
-0.01037
-0.01306
0.001033
0.001413
-0.002445
-0.2021
0.236
-0.03385
-0.0006173
0.001079
-0.0004622
-0.0002516
-0.0001841
0.0004358
8.165e-05
-6.026e-05
-2.139e-05
-0.0002486
-0.00045
0.003412
-0.001867
-0.000229
-0.0003963
0.0006253
-0.004441
0.001376
0.003065
-0.001229
-0.002194
0.003424
0.003807
-0.003145
-0.0001449
0.0002503
-0.0001054
0.0007799
0.0001467
-0.0009267
0.002542
0.0002365
-0.1817
0.1212
-0.006124
0.003019
0.003104
-0.003049
0.00309
-4.08e-05
0.001189
0.0001139
-0.001303
2.608e-05
2.789e-06
-2.887e-05
-0.000831
0.0005453
0.0002857
-0.8466
0.3097
-0.255
0.1314
0.1236
0.0003385
8.349e-05
-0.0004219
0.003009
-0.004045
0.001036
-0.0001914
-0.0003185
0.0005099
0.01509
-0.008991
-0.006103
0.1961
-0.1854
-0.01069
0.009746
-0.0127
-0.0004274
-2.996e-05
0.0004574
0.09183
-0.04961
-0.04222
0.001665
0.0007109
0.0004826
-0.0001441
-0.001026
0.002595
-0.001569
-0.01592
0.03149
-0.01556
0.0001842
-0.0003144
0.0001302
0.000815
-0.0003262
-0.0004888
-0.001686
0.0005899
0.001096
0.002947
-0.001604
-0.001343
0.1963
-0.1479
-0.005585
0.0177
-0.4994
-0.9673
-0.4988
-0.9665
-0.01147
0.002333
-0.001224
0.001011
0.0002133
-0.004476
-0.0002019
0.000919
0.002028
8.469e-05
0.0006898
-0.0007745
-0.01409
0.04221
0.002431
0.001139
-0.001231
0.0004454
0.0007857
9.949e-05
0.0004392
-0.0005386
-0.001115
0.0008997
0.0002153
0.0004033
0.001002
0.0006656
-0.000264
-0.0004016
-0.001015
0.001285
-0.0002698
0.0007543
-0.0005247
-0.0002296
-0.0002768
0.001386
-0.001109
-0.0009767
0.0007663
0.0002104
-0.003482
0.004869
-0.001387
3.146e-05
-0.0002297
0.0001983
-0.0006982
-0.001654
-0.02732
0.02898
0.0007908
-0.0006944
-9.643e-05
0.002335
0.0005564
-0.0004569
-0.0009413
0.001398
0.2902
-0.3992
0.109
0.0006761
0.0001389
-0.0005872
0.001151
-0.0005635
-0.001763
0.00158
-0.006146
-0.006022
0.01217
0.0009436
-0.0009855
4.188e-05
-9.096e-05
0.0007366
-0.0006457
0.383
0.1352
-0.5182
-0.1161
-0.04975
-0.186
0.256
-0.07005
0.0004287
-0.0005166
8.796e-05
0.4356
-0.8198
-0.001692
0.002278
-0.0005861
0.05954
0.03228
0.0002794
-0.0004107
7.479e-05
-0.0005983
0.0005235
0.1102
-0.1167
0.026
-0.00954
-0.01646
-0.0001815
0.0008538
-0.0006723
1.311e-06
4.375e-07
-1.749e-06
0.0008388
-0.001471
0.0006326
0.9306
-0.6949
-0.2357
0.0005879
0.007045
-0.007633
8.618e-05
0.0003107
-0.0009866
0.0007054
0.0002812
0.007031
-0.005335
-0.001696
-0.08687
-0.01974
2.393e-05
3.391e-06
-2.732e-05
0.01512
-0.02041
0.005288
1.026e-06
-0.0001102
0.001894
-0.002538
0.0006438
-0.001529
-0.002813
0.004343
0.2451
-0.256
0.01091
0.006841
-0.005667
-0.001174
-2.373e-05
9.058e-05
-6.685e-05
0.0002354
0.0006206
-0.0008561
-0.0007673
0.0008495
-8.221e-05
-0.0001661
0.0003479
-0.0001818
0.004705
0.002136
-0.0003794
0.0003187
-0.02292
0.02126
0.01273
-0.0731
0.0001004
-0.0001677
6.724e-05
-0.5093
0.03884
0.002474
5.693e-05
-0.002531
0.0002004
-0.0002224
-0.002016
0.01714
-0.00427
0.003387
0.0008827
0.0003583
-0.001158
0.0007999
-0.002148
0.002131
1.658e-05
0.1103
0.4882
-0.5985
0.0004602
-0.0009265
-0.0003377
-0.0002333
0.0005711
-0.000866
-1.675e-05
0.0008828
0.001538
0.008463
0.0001688
0.0006562
-0.000825
-0.001254
0.0007924
-0.0003794
-0.0007746
0.001555
-0.001334
-0.0002208
-0.0006831
0.0001225
-0.001143
0.003305
-0.002162
-0.0009439
0.0001748
0.000769
0.0005884
-6.207e-05
8.516e-05
-7.915e-05
-6.015e-06
0.0005901
-0.0006338
4.366e-05
-0.673
0.8675
-0.001865
0.0004613
0.0069
-0.01049
0.003585
-0.003838
0.003743
-0.01265
0.0004965
0.01215
0.0005529
-0.0001672
-0.01041
-0.007897
0.0183
-1.278
1.44
-0.1621
-0.00078
0.0007892
-9.275e-06
0.0001716
0.0001308
-0.0003024
0.002628
0.009613
-0.01224
0.003289
-0.003572
0.0002829
0.5737
-0.1908
0.001027
-0.002057
0.00103
0.0001446
-0.0006286
0.000484
-0.05803
0.04538
-0.02187
-0.1803
0.6995
-0.6532
-0.04631
0.0007026
-0.0007327
0.05794
-0.02536
-0.0004112
-0.0001552
0.0005664
0.05092
-0.05473
0.003808
5.085e-05
0.0003335
-0.01185
-0.1316
0.1434
0.0006831
-0.0004937
-0.0001893
0.05828
-0.2442
0.0003293
0.0006117
-0.001471
0.001552
-8.134e-05
-0.000973
0.0005456
0.0004274
-0.001282
0.002884
-0.001601
0.0002606
-0.0005162
0.0002555
-0.02011
0.008604
0.01151
-0.0007091
0.0003798
0.0003293
0.0004887
0.0001734
-0.000662
-0.0007403
7.863e-05
0.0006616
-0.0008147
0.0001788
0.0006359
0.001374
0.006392
-0.007765
-0.002432
0.002109
0.000538
0.0008546
-0.001393
0.001242
-0.004078
0.002836
0.001064
-0.001313
0.0002496
-0.000734
0.001272
0.3493
-0.9391
0.5898
0.1211
-0.001954
-0.1191
0.00256
-0.001107
-0.001453
-0.0004938
0.0005263
-3.242e-05
-1.541
0.1228
1.419
-0.001955
0.001214
0.0007404
-0.004358
0.01142
-0.007059
0.005396
0.008661
-0.0008561
0.003865
0.03098
-0.01621
-0.01477
1.419
-0.269
-1.15
0.0001827
-0.0005421
0.0003594
-0.009654
0.005296
-0.0001808
0.0001586
2.227e-05
-0.001291
0.0006289
0.0006623
0.0002663
-0.0001854
-8.095e-05
0.0005722
-5.284e-05
-0.0005193
0.000668
-0.0001021
-0.0005659
-0.0004605
-0.0003705
-0.0008737
9.706e-05
0.0007766
0.0006233
0.002666
0.001426
-0.0004544
-0.0009716
-0.125
0.257
-0.132
-0.0002749
0.0004541
-0.09997
0.08316
0.01681
0.000639
-0.0005532
-8.578e-05
0.0006085
-0.001268
-0.001138
0.00102
0.0001189
7.299e-05
-0.001316
0.001243
-1.409e-08
-5.179e-08
0.001017
-0.0005027
-0.0005139
-0.001083
0.0009001
0.0001833
0.02953
-0.01695
-0.01259
0.001568
-0.002212
0.0006438
-0.2838
0.2293
0.05457
0.0001922
7.411e-05
0.1169
0.004153
-0.000373
-2.547e-05
0.0003984
-0.002309
0.001766
-1.252e-07
1.252e-07
2.98e-07
1.641e-07
-4.62e-07
7.439e-07
-6.828e-07
-6.111e-08
1.197
-0.8186
-0.3782
0.0003878
0.000403
-0.0002404
0.001145
-0.0009047
-0.1448
-0.1102
0.001652
-0.0001225
-0.001529
-0.000337
0.001033
-0.0006958
0.0006163
-0.0006666
5.027e-05
0.003354
-0.0002882
-0.003066
-3.199e-05
-0.001439
-0.0008229
-0.0001502
-0.001227
-0.0007279
-0.0002503
0.0002301
2.022e-05
-0.4334
0.7827
0.0007488
-0.0002447
-0.0005042
-2.222e-06
2.114e-06
1.076e-07
0.00062
-0.0007098
8.981e-05
0.0005599
-0.000133
-0.000427
-6.004e-05
4.509e-05
0.06131
-0.1777
0.0032
-0.0007787
-0.04477
0.06777
0.004181
-0.002939
0.04668
0.2448
-0.2915
-0.0004516
0.0001094
0.0003422
-0.0001079
-0.0001543
0.0002622
-0.000145
0.0001362
8.862e-06
1.528
-0.903
-0.6248
0.002077
0.0004835
0.009966
0.003551
-0.01352
-2.72e-05
3.351e-05
-6.309e-06
-0.0007819
-3.607e-05
0.000818
0.0004112
-2.013e-05
-0.0003911
-0.005779
0.00118
0.004599
-0.1062
0.1004
0.005789
-4.712e-05
0.0002304
-0.0001833
0.001063
0.0008148
-0.001877
-0.8045
-0.7368
0.00259
-0.005731
0.0008815
0.00485
-0.0005029
0.0002513
0.0003186
0.000625
-7.571e-06
-0.0004863
-0.000319
5.237e-05
0.0002666
0.002251
-0.0003574
-0.003655
0.003637
1.767e-05
0.0009323
5.274e-06
-0.0009376
-0.0003282
0.0007087
-0.0003805
-0.000201
-0.0005789
0.113
0.05577
-0.1687
-0.0001472
0.0001049
4.23e-05
-0.0001087
0.000697
-0.0005883
0.0006824
-0.0007689
8.649e-05
0.0009896
-0.002124
0.001135
-0.0002943
0.0005077
-0.0002134
-0.7902
0.113
0.6772
-0.7886
0.629
0.1596
0.00141
-0.01139
0.0006235
4.211e-05
-0.0007157
-0.00095
0.001666
0.1352
-0.2062
0.07094
1.474
-0.6505
-0.8236
-0.001685
0.002749
-0.001064
0.0003114
-0.0004646
0.0001532
0.001338
-0.0005615
-0.0007762
-0.0008384
-3.522e-05
-0.000181
-1.787e-05
0.0001989
0.0001478
-0.0001375
-1.034e-05
-0.003272
0.003131
0.0001413
-0.143
0.1006
0.04239
1.403
-1.28
-0.123
0.0001531
-7.511e-05
-7.796e-05
0.0003967
0.0007595
-0.001156
0.0005323
-0.001677
0.001145
0.3125
0.5213
-0.8338
-7.768e-05
-0.0001568
0.002285
-0.002667
0.0003821
0.0006092
-0.0005941
-1.511e-05
0.4897
-0.0005712
0.0006679
-9.675e-05
-0.02893
0.1642
-0.000479
0.0008373
0.0003761
1.366e-05
-0.0003898
0.00484
-0.00607
0.001229
0.9751
0.1613
-1.136
6.826e-05
0.000263
-0.0003313
-0.002522
-0.0009566
-0.0001247
7.11e-05
0.3924
1.027
0.0004073
-0.001459
2.689e-05
9.978e-06
0.3949
0.3046
-0.001628
-0.002642
-0.1656
0.007104
0.1585
-0.0003488
-0.0004312
0.0007801
0.001948
-0.0005477
-0.0014
-0.2793
0.1876
-0.0005685
0.0005163
5.215e-05
0.0003042
0.0006065
-0.0009107
2.766e-05
5.956e-06
-3.362e-05
0.0004948
0.0004149
-0.0009097
0.002721
-0.001501
-0.00122
-0.0002598
-0.0007169
-0.0003054
-0.0006811
0.000561
0.0002035
-0.0007646
0.0007077
-0.0007568
0.0005016
-0.0008297
0.0005984
-0.0009717
0.0003733
-0.0002373
0.000246
-8.724e-06
-0.001967
0.001481
0.0004858
0.0004986
-0.0003642
-0.0001344
-0.6004
0.9129
0.0009591
-0.0006447
-0.0003144
0.1058
-0.1923
0.08649
-0.0005306
-0.0005844
-0.1244
0.0354
0.08898
-0.0004126
0.00228
-0.3431
-0.9351
-0.1526
0.07506
-0.002296
-0.005001
0.007296
-0.0004575
-0.0004863
0.0009178
0.0006339
-0.001552
-1.043
0.1276
0.9152
1.111
-0.903
-0.2076
-0.00018
6.27e-05
0.0002054
0.000152
-0.0003573
0.0002782
-0.0005716
-0.0007133
0.0002745
0.0004388
-0.002021
0.00082
0.001201
0.0003626
-0.0007738
0.001259
-0.0018
0.0005416
-0.000856
0.0005182
0.0009052
-0.0004661
0.000162
-0.0004442
0.0002822
0.0002892
8.634e-05
-0.0003755
-1.164
0.1213
-0.0002231
-0.0006427
0.0008658
-9.048e-05
0.0007983
-0.0007078
2.396e-05
-0.005178
0.005154
0.008271
-0.00389
-0.004381
0.1831
-0.2399
0.0568
1.031
0.4429
0.001658
-0.002684
-1.54e-05
-0.0002569
0.0006142
0.0008118
-2.528e-05
1.688e-05
8.398e-06
-0.07688
-0.04749
-0.9831
-0.404
1.387
0.0003446
0.0002502
-0.0005948
0.0008759
-8.013e-06
-0.0008679
-0.05009
-0.007483
-0.0001876
-0.0002324
0.00042
0.01498
-0.002443
-0.01254
-0.03143
0.08574
-0.05431
0.0006574
-0.0002526
-0.0004049
0.002424
-0.00299
0.0005658
0.0008232
-0.0009136
0.005213
-0.01004
0.004829
-2.408e-07
2.408e-07
8.084e-05
-1.815e-05
-9.684e-05
-0.0007179
-0.0005091
-0.0001999
0.000509
0.000467
-0.0006454
-0.0002798
0.0009251
-0.0005429
-2.83e-05
0.0004255
-0.0007694
0.000344
0.05465
0.006523
-0.06118
-0.001379
0.0004709
0.0009079
-8.154e-05
6.225e-05
1.929e-05
0.0006242
0.00185
0.7476
-1.073
0.3255
0.001315
-0.0002195
-0.005368
0.004622
0.0007461
0.002318
-0.00404
0.001722
1.078
0.4503
-0.02502
0.7726
2.786e-06
-5.474e-07
-2.239e-06
0.02318
0.006354
0.0004323
-0.0007868
0.0003546
-0.0005197
0.0005317
-1.202e-05
-0.0004188
0.000745
-0.0003262
-0.004671
-0.001453
0.002502
0.003883
-0.006385
0.0003672
-0.0001965
0.004402
-0.007289
0.002887
0.001068
-0.0009055
-0.0001624
-0.1519
-0.1996
0.3516
1.057
-0.04466
-1.012
-0.00244
-0.0001616
0.002601
-0.002173
0.009073
-0.0001352
0.0005639
-0.001215
0.003533
0.0004597
-0.0005142
5.448e-05
-0.002294
0.0007852
0.001509
0.0003333
0.0002066
-0.0005399
-0.01805
0.01743
0.004479
-0.01062
-1.119
-0.3843
1.504
-0.0001635
0.0003112
-0.0001477
0.02325
0.007728
-0.001231
0.000912
0.0003193
9.375e-08
-0.002313
0.0006611
0.001652
-0.002628
0.001634
-0.0004778
0.001317
1.253
-0.2776
-0.001631
0.001854
-0.0002231
-0.0003615
-0.000594
0.0009555
3.83e-05
-3.958e-05
1.279e-06
0.0008587
0.004863
-0.005722
-0.001947
-0.001019
0.002966
0.0006054
0.0002998
-0.0001045
0.0002989
0.0007346
0.0008201
0.00015
-0.0005186
0.0003686
-0.001724
-0.001148
0.002872
0.0006254
-0.0008083
0.00124
-0.002147
0.0009066
-0.003257
0.0002076
-0.0001033
0.001696
0.003386
-0.006304
0.002918
-3.152e-07
3.152e-07
-0.001238
-0.00413
-0.06592
0.02404
0.0001641
-0.001373
0.001209
0.0002003
0.0003702
-0.0005705
1.338e-06
0.001073
-0.001075
0.1031
0.3745
-0.4776
0.0001666
-2.136e-05
-0.0001452
0.0009191
-0.004401
0.001161
0.0001765
-1.508
0.5248
-6.461e-06
-1.881e-05
0.0007223
-0.0001322
0.0005646
-0.0006594
9.475e-05
-0.3856
-0.6333
1.019
-5.244e-05
0.0004779
-0.0002475
0.0002902
-4.274e-05
-0.0002278
0.0007339
-0.000506
-0.0002159
0.0008773
-0.0006614
-1.191
0.8056
0.001283
-0.0007829
-0.0004999
-4.708e-05
1.272e-05
3.436e-05
-0.0003614
0.0005743
-0.0002129
0.002452
-0.002333
-0.0001192
-0.1574
0.06464
0.09276
-0.0009908
-0.0002403
-0.0002149
2.992e-05
0.000185
-0.1628
0.1693
-0.006506
0.002737
0.0005283
-0.003265
-0.004047
0.003978
6.891e-05
-0.0007841
0.0001387
0.0006848
0.0003318
-0.002765
0.004141
-0.002627
0.0003145
-2.499e-05
-0.0004167
0.0004417
0.0001813
-0.0004265
0.2821
0.5872
-0.8692
0.0009511
0.0003317
0.001463
-0.002258
0.0007947
0.0001761
-0.0001789
2.894e-06
-0.0001681
-0.000698
-0.01282
0.009716
0.003101
0.001912
-0.00026
-6.702e-05
-0.000252
1.029
-0.7469
-7.392e-05
0.0006903
0.0002868
0.0003706
-0.0006763
-0.0002871
0.0009634
7.608e-07
-1.563e-06
0.0003632
-0.001039
-6.258e-05
-8.244e-05
-0.001312
-0.0002836
0.001596
-0.000606
0.0003554
0.0002507
-0.004796
0.001239
0.003557
0.1729
1.024
-1.152e-07
1.152e-07
-0.0002881
-0.0004106
0.0006987
-0.0004329
0.0009278
-0.0001202
0.000109
1.123e-05
0.000264
-0.0006153
0.0003513
-4.394e-05
0.0002731
-0.0002292
0.0006101
-0.0001033
-0.0005068
-0.0005799
0.0005003
0.5603
0.843
-0.001096
-0.002869
0.003965
-0.004232
0.001182
0.003051
-1.496
0.3766
0.0003595
-0.0006267
0.0002672
0.0001031
0.0005359
0.001919
-0.0007295
0.000975
0.0003566
-0.001332
0.1384
-1.02
0.8817
-0.0002703
0.001529
-0.0003157
0.0001049
0.0002108
-0.277
-0.717
0.8554
0.005009
0.003262
0.002915
-0.003481
0.0005663
-0.0008657
-0.001155
0.0002893
1.123e-05
-0.0003005
0.001233
-0.001044
-0.0001889
1.492e-05
-8.475e-07
-1.407e-05
-0.003902
0.0009517
0.002951
-0.004395
0.006255
-0.00186
-0.8029
-0.2701
0.001037
-0.0002796
-0.0007574
0.0006429
-0.0003043
-0.0003386
0.0004875
-0.0004
-8.759e-05
0.0001483
-0.0002931
0.002427
-0.002094
1.079
0.08698
-1.166
0.2733
-0.212
0.07215
-0.1272
0.05502
0.000192
-4.643e-05
-0.0001455
0.04511
-0.848
0.02588
-0.01625
-0.009627
-0.0001644
0.0003544
-0.00019
-0.0007957
-0.0009677
0.001763
0.0002478
0.0001161
-0.000364
-0.2169
0.8395
-0.6226
0.0005631
-0.0002902
-0.0002729
-0.0003569
0.002037
-0.00168
-0.2409
-0.01441
0.2553
0.0003647
0.0003896
0.6926
0.4741
-1.167
-0.000484
-0.0002913
0.0007753
-5.316e-05
-4.16e-05
9.476e-05
-0.0008815
0.0004307
0.0004508
-0.0004938
-0.0018
0.002293
4.295e-05
3.511e-05
-7.807e-05
0.1843
-0.05277
-0.1315
-0.0003162
-0.0002757
0.0005919
-0.009651
0.01008
-0.0004298
-0.0003575
-9.403e-05
7.579e-05
-6.344e-05
-1.235e-05
-0.0003526
-0.0003734
0.0007259
0.0002221
7.803e-05
-0.0003001
-0.008087
-0.004731
0.005609
-0.006163
0.0005544
0.002161
-0.0003712
-0.00179
0.0001457
-0.0001457
-0.3411
0.1957
0.1454
-0.004647
0.006909
-0.002262
0.0009389
-0.0005871
-0.0003518
-0.0004987
0.0008921
-0.0003935
-7.466e-05
-6.88e-06
0.0002676
-0.0002354
-3.225e-05
-0.1192
1.198
0.03695
-0.02202
-0.01493
0.0001065
4.655e-05
-0.0003669
1.75e-05
0.0003494
7.471e-05
-0.0001079
3.321e-05
-0.0008877
0.001965
-0.001077
1.467e-05
-1.467e-05
-0.0008681
0.0009118
-4.364e-05
-9.88e-05
9.88e-05
0.001319
-0.0004561
-0.0008632
-8.221e-05
-5.166e-05
0.0001339
-0.003703
0.002608
7.818e-05
-5.514e-05
-2.304e-05
0.09862
-0.07316
-0.02546
0.001732
-0.00131
-0.0004224
1.094
-1.517
0.424
1.313
-1.735
0.4216
0.0003896
0.001993
-0.002383
-0.04478
0.09244
-0.04767
-0.0007954
1.556e-05
0.0007798
0.009339
-0.002346
-0.006994
-0.0008496
0.0003499
-0.007457
0.00832
-0.0008636
0.04149
-0.09354
0.05204
-0.0006199
7.077e-05
0.0005491
0.0006443
0.0009679
-0.001612
0.2522
-0.007156
-0.008516
0.007747
0.0007684
-0.0004345
0.000744
-0.0003096
0.08683
-0.04534
-0.0006174
0.0003207
0.0002967
-3.464e-05
3.464e-05
0.0007076
-0.0004354
-0.0002722
0.0009032
-0.002895
0.001991
0.0003332
-8.2e-05
-0.0002512
0.002654
-0.003306
0.0006525
0.000289
-0.0002738
-1.517e-05
-0.3355
0.1224
0.2132
-0.001432
0.0002939
-0.0005819
-0.0006493
-0.05259
0.3428
-0.0005684
0.0004227
-0.001029
8.772e-05
0.0009413
-0.001503
0.003236
-0.001733
-0.478
-0.5501
1.028
0.2357
-6.435e-06
-0.2356
0.009086
-0.005337
-0.003749
3.831e-06
2.416e-06
-6.247e-06
0.0001871
-0.002479
0.002292
3.461e-05
-3.461e-05
-0.002039
0.001024
0.001015
0.0008625
-0.0002248
-0.0006377
-0.001914
0.001756
0.0001577
-1.621e-05
-9.405e-06
2.562e-05
-0.0007962
-0.0002371
0.001033
-0.4104
1.369
-0.9583
-0.0002294
0.0003227
-9.328e-05
0.005847
-0.001446
-0.004401
-0.3
1.334
-1.034
-0.0006913
-0.000995
0.001686
-2.52e-06
1.255e-06
1.265e-06
0.001235
0.005038
-0.006273
-0.0008734
0.0003321
0.0005414
0.005879
-0.003336
-0.002543
0.001265
0.003124
-0.004389
4.745e-06
9.214e-06
-1.396e-05
4.917e-05
-4.917e-05
0.0006416
0.000305
-0.0009467
-0.0881
-0.05487
-0.4589
0.2215
0.2374
0.002888
-0.001098
-0.00179
-0.001692
0.001309
0.0003835
0.000171
0.0002902
-0.0004612
-0.0007916
0.0004335
0.0003581
-0.0005243
3.574e-05
0.0004886
0.0004495
-0.0002013
-0.0002482
-0.002847
0.002459
0.0003877
-0.01157
0.01723
-0.005664
0.000186
0.0002635
-0.03058
-0.01044
0.04102
-0.0003751
-2.234e-05
0.0003974
0.139
-0.58
0.441
0.0005408
0.0006537
-0.001194
-1.969e-05
3.035e-05
-1.066e-05
-0.002252
0.003022
-0.0007696
0.0008757
-0.0007122
-0.0001635
-0.001497
0.0007124
0.0007846
-0.381
0.09799
0.283
-0.1853
0.05379
0.1315
-8.991e-05
0.0001524
-6.249e-05
0.008215
-0.009532
0.001317
0.0001838
-0.0003548
0.000171
0.0005034
-0.0008785
0.000375
-0.0001234
0.0002311
-0.0001077
0.001148
-0.001131
-1.674e-05
0.001256
-0.000203
-0.001053
-0.001643
0.001288
0.0003546
0.0001199
-0.0007457
0.0006258
0.0001936
-0.0001936
-5.561e-05
0.000943
-0.0008874
-4.689e-05
0.0003509
-0.000304
0.0006133
-0.0004968
-0.0001165
-0.002614
0.003933
-0.001319
0.0008891
-0.00175
0.0008608
-7.358e-06
0.0004668
-0.0003709
0.0003923
-2.138e-05
9.85e-06
-1.651e-05
6.657e-06
-5.24e-06
2.799e-06
2.441e-06
-0.001799
0.0008222
0.0009768
-0.321
0.4241
0.5943
0.2181
-0.8124
-0.001003
0.001406
-0.000403
0.0001575
0.0004809
-0.0006384
0.004945
-0.0008773
-0.004068
-0.1883
1.179
-0.9903
0.0003373
0.0007394
-0.001077
-0.001627
-0.0001736
-0.002543
-0.005325
0.007867
0.0001542
9.663e-05
-0.0002509
0.003114
-0.002745
-0.0003683
-8.229e-05
0.0003773
-0.000295
0.002306
-0.002999
0.0006927
0.7866
-0.6764
-0.008812
0.003037
0.005775
0.01154
0.0003081
-0.01184
0.000219
-2.564e-05
-0.0001934
7.512e-05
0.0001275
-0.0002027
-0.0003192
0.0002294
8.978e-05
-0.005079
0.001816
0.003263
0.002646
-0.006563
0.003917
0.000269
-0.0006509
0.0003818
-0.000707
0.001082
-0.000375
-0.001928
-0.001325
0.003253
0.002899
-0.001125
-0.001774
-0.0008312
-0.0001811
0.001012
0.001716
-0.001411
-0.0003045
0.000636
-0.0005329
-0.0001031
0.0003687
-0.0002708
-9.796e-05
0.2518
-0.3148
0.06295
-0.000133
7.647e-05
5.652e-05
-3.393e-06
-1.666e-05
2.005e-05
0.001995
-0.000532
-3.328e-05
0.001172
-0.001139
-0.0002644
5.056e-05
0.01949
-0.1178
0.09835
-0.0001731
0.0001731
-0.0001942
0.0001942
-0.165
-1.044
1.209
1.26
0.2311
-1.491
-0.0014
0.0007667
0.0006331
0.0003984
-0.002118
0.001719
-1.79e-06
2.14e-06
-3.506e-07
-6.169e-05
8.936e-05
-2.767e-05
-0.0001895
0.001922
-0.0005225
0.0006902
-0.0001676
0.0003464
3.752e-05
-0.0003839
-0.00104
-0.004444
0.005484
0.003724
0.005141
-0.008866
-0.1885
0.05758
0.131
0.0004038
-0.0002585
-0.0001453
-0.0008457
-0.001066
0.001912
-0.0002376
0.0005088
-0.0002712
-0.004867
0.001069
0.003799
-1.591e-05
2.418e-05
-8.273e-06
0.0006216
-0.0008277
0.0002061
0.8096
-1.136
0.3267
-0.0002428
0.0002428
0.0003552
-0.0002315
-0.0001237
0.1673
0.5625
-0.7297
0.0007246
-5.666e-05
-1.279
1.114
0.2394
-0.4234
0.184
-0.002954
0.002055
0.0008992
-0.01133
-0.002512
0.01384
0.0001318
-8.016e-05
-5.163e-05
0.7794
-0.9463
0.167
0.0008201
-0.0004115
-0.0004086
0.4789
-0.1385
-0.3405
0.0003822
-0.0008351
0.0004528
-0.0171
0.005377
0.01172
0.009106
-0.008335
-0.0007715
0.00585
-0.003056
-0.002793
-0.0001811
-0.0006898
0.0008709
-0.0006952
-0.0003072
0.001002
0.0003371
0.0001158
-0.0004528
0.001629
0.0003469
-0.001976
0.1494
0.6449
-0.7943
0.00486
0.06639
-0.07125
-0.003252
0.001617
0.001636
-0.0001634
-0.0008582
0.001022
0.0001025
-0.000337
0.0002345
0.0004688
-0.0002768
-0.000192
8.955e-05
-5.332e-05
-3.623e-05
-0.0002714
-7.613e-05
0.0003475
-8.947e-05
8.947e-05
-0.0005551
0.0009699
0.001253
-0.0009029
-0.0003497
-0.0003341
0.0008854
-0.0005513
-0.0009144
0.0005747
0.0003397
0.0002235
0.000112
-0.0003355
0.004657
-0.006365
0.001708
0.008527
-0.003522
-0.005005
0.4769
-0.3559
-0.121
-0.0008108
0.0008888
-7.794e-05
-0.0001147
0.0001683
-5.363e-05
-0.0005262
1.965e-06
0.0005242
0.495
-1.093
0.5977
-0.0006434
0.0002264
0.000417
0.002774
-0.001442
-0.001332
-0.002067
0.0005362
0.001531
0.001518
-0.000682
-0.0008364
-0.0002041
0.0009499
-0.0007458
0.001376
0.006688
-0.008064
0.000551
-0.0006377
8.674e-05
-0.0009443
-0.001934
0.002878
-0.001023
-0.001045
-7.698e-05
-0.0001316
0.0002085
-0.0005963
-9.718e-05
0.0006935
5.298e-05
2.281e-05
-1.177
0.5405
0.6364
0.002048
-0.003981
0.001933
-0.0007372
0.000281
0.0004562
0.1315
0.05357
-0.185
-0.0007864
0.0002243
0.0005621
0.0004854
0.0001348
-0.0006202
-1.248
1.248
0.001586
0.002497
-0.004082
-7.705e-05
0.0001346
-5.758e-05
0.06549
-0.05248
-0.013
0.006707
-0.00205
-0.003858
0.003851
7.722e-06
0.0004228
2.617e-05
-0.000449
0.01282
-0.009742
-0.003077
-1.267
0.5226
0.7441
0.0005601
-0.0009023
0.0003422
-0.0002221
0.0005512
-0.0003291
0.4068
-0.2579
-0.1489
-0.008571
0.005119
0.003451
-0.001525
-0.02967
0.0312
-0.001281
-0.0005666
0.001848
-0.0004893
-0.0001879
0.0006772
-0.001531
-0.0007657
0.002297
-0.04913
-0.05269
0.1018
-9.563e-06
-3.104e-05
4.06e-05
-9.748e-08
-6.68e-06
6.777e-06
0.0002275
0.0007315
0.0003667
-0.001316
0.0009494
-0.001476
0.00239
-0.0009141
5.296e-05
2.522e-05
-0.3922
1.243
-0.8512
0.0002445
-0.001149
0.0009047
0.3534
-0.009732
-0.3437
0.000662
-0.0009314
0.0002695
-0.001205
0.001204
6.79e-07
0.0004757
0.0005885
-0.001064
0.0004201
0.001098
-3.74e-05
2.516e-05
1.224e-05
0.0002474
-0.0002726
2.513e-05
-0.5586
0.22
0.3386
6.712e-06
-6.712e-06
-0.0003478
0.0002563
9.155e-05
0.0001031
-0.0004342
0.0003311
-0.001536
-0.0001902
0.001726
-0.0003087
0.0003989
-0.001627
-0.001496
0.003123
0.008594
-0.007934
-0.0006591
-0.0003346
0.0002746
5.996e-05
0.001903
-0.001319
-0.0005837
-0.00989
0.02484
-0.01495
9.797e-06
-9.797e-06
-0.0004122
0.0005122
-0.0001
-0.0008363
0.0003615
0.0004748
0.0004259
0.0001839
-0.0006098
0.001412
-0.001169
-0.0002428
0.0002863
0.0004728
-0.0007591
-6.81e-05
-0.0002902
0.0003583
6.612e-05
3.723e-05
-0.0001034
0.002101
-0.001534
-0.0005667
0.000747
-0.0001791
-0.0005679
0.0007947
-0.002746
0.001951
-0.000356
-0.0004358
0.0007918
-0.001077
0.0005716
0.0005058
-0.006241
-0.0001517
0.006393
-4.358e-05
4.358e-05
-0.02202