/*--------------------------------*- C++ -*----------------------------------*\
  =========                 |
  \\      /  F ield         | OpenFOAM: The Open Source CFD Toolbox
   \\    /   O peration     | Website:  https://openfoam.org
    \\  /    A nd           | Version:  8
     \\/     M anipulation  |
\*---------------------------------------------------------------------------*/
FoamFile
{
    version     2.0;
    format      ascii;
    class       volVectorField;
    location    "15";
    object      U;
}
// * * * * * * * * * * * * * * * * * * * * * * * * * * * * * * * * * * * * * //

dimensions      [0 1 -1 0 0 0 0];

internalField   nonuniform List<vector> 
127143
(
(0.004777 -0.0001964 0)
(-1.413e-05 -0.0001195 -1.799e-24)
(-8.757e-05 -0.0004302 2.628e-24)
(-0.0001115 -0.0005121 8.164e-28)
(0.03185 0.009964 -3.482e-23)
(-9.213e-05 -0.0005366 8.052e-28)
(0.05102 0.03204 0)
(0.03461 0.01576 -2.423e-23)
(0.02828 0.01359 7.998e-23)
(0.04267 0.001447 0)
(0.03026 0.04164 -5.639e-22)
(0.03292 0.02173 -2.877e-24)
(0.001531 -0.0005787 -4.392e-25)
(-0.0001468 -0.0005952 0)
(0.2533 -0.2855 2.251e-21)
(0.08921 -0.007908 0)
(-0.0002864 -0.001429 -4.344e-24)
(0.7053 -0.07303 2.567e-21)
(0.5791 -0.1428 0)
(0.1714 0.06195 0)
(0.7405 -0.1752 1.851e-21)
(0.02339 -0.008238 0)
(1.021 -0.1755 0)
(0.7201 -0.06754 0)
(0.02286 -0.008715 -3.87e-23)
(0.4363 -0.06833 0)
(0.3533 -0.005968 5.095e-21)
(0.3509 0.008709 -8.104e-23)
(0.3786 -0.1675 0)
(0.7633 -0.05713 -4.103e-21)
(0.6527 -0.037 0)
(0.4196 -0.06443 1.812e-21)
(0.3825 0.08818 6.169e-22)
(0.3214 -0.084 -3.937e-21)
(0.8845 -0.09802 1.657e-21)
(0.3766 0.0972 -1.336e-23)
(0.3923 -0.1306 7.615e-22)
(0.9909 -0.1438 -6.59e-22)
(0.7723 -0.07131 1.238e-23)
(0.4523 0.003292 5.289e-25)
(0.5786 -0.1416 0)
(1.085 0.3168 -4.778e-23)
(1.065 0.304 6.153e-24)
(0.003159 -0.001054 0)
(0.7065 -0.06838 -2.639e-21)
(0.3316 -0.07937 1.225e-21)
(0.3878 -0.1772 0)
(0.4774 -0.1514 -1.528e-22)
(0.8018 -0.1395 -2.408e-22)
(0.7486 -0.06183 -1.445e-23)
(0.1062 -0.00696 -2.977e-23)
(0.9494 -0.04391 3.023e-21)
(0.9887 -0.1113 0)
(1.088 -0.03709 -9.018e-22)
(1.001 -0.002578 8.452e-22)
(0.713 -0.1815 6.638e-22)
(1.001 -0.002801 -6.479e-22)
(1.068 -0.09598 0)
(1.002 -0.01659 -3.14e-21)
(1.089 -0.03355 -1.72e-21)
(0.6449 -0.1987 -5.178e-21)
(0.6317 -0.1761 -2.46e-22)
(0.9063 -0.06651 1.311e-22)
(1.002 0.001175 -2.04e-21)
(0.6742 -0.06157 0)
(0.9813 -0.2837 -1.206e-21)
(1.053 0.03844 1.9e-21)
(0.8872 -0.069 0)
(0.8913 -0.06907 3.002e-23)
(0.9974 0.0006316 0)
(0.6819 -0.05516 0)
(0.3826 -0.003932 -2.114e-21)
(0.4965 -0.1018 -9.667e-22)
(1.004 -0.01581 -1.681e-21)
(1.008 0.006558 -2.772e-22)
(0.3833 0.009319 2.412e-21)
(1.017 0.04487 -1.127e-21)
(0.4726 -0.149 0)
(0.7254 -0.1868 -1.278e-21)
(1.001 0.001464 0)
(0.374 -0.1697 3.614e-23)
(0.1874 0.05747 1.114e-23)
(0.4607 -0.1091 1.294e-21)
(0.4727 -0.0251 0)
(0.4172 -0.1246 2.838e-22)
(0.4809 -0.1514 0)
(0.8184 -0.08154 8.233e-23)
(0.4071 0.03147 1.238e-21)
(0.9794 -0.2819 0)
(1.039 0.5509 0)
(0.9974 -0.03026 0)
(0.9462 -0.1432 0)
(1.065 0.5571 0)
(0.7426 -0.1754 -1.911e-21)
(0.7184 -0.1434 0)
(0.9934 -0.02508 3.31e-22)
(1.085 0.3098 1.123e-22)
(0.5448 -0.04079 0)
(0.5683 -0.1676 5.001e-22)
(1.051 0.04239 0)
(1.001 0.001424 0)
(0.815 -0.1428 0)
(0.7392 0.6534 1.235e-22)
(1.03 -0.1213 0)
(0.4854 -0.1527 -2.213e-22)
(0.5634 -0.1666 7.097e-22)
(0.9206 -0.1423 6.208e-22)
(0.9972 0.0006302 0)
(0.8566 -0.3562 0)
(1.006 -0.001267 3.666e-20)
(0.2642 -0.2889 -6.518e-22)
(0.4084 0.02799 2.388e-21)
(0.7391 -0.1623 -1.762e-21)
(0.3057 0.2257 0)
(0.994 0.02099 2.361e-21)
(1.049 -0.1747 6.632e-23)
(0.9921 0.05461 -3.822e-22)
(1.008 0.006802 -1.174e-21)
(1.017 0.04417 7.113e-22)
(-0.001392 -0.005728 0)
(1.006 -0.001457 -5.295e-20)
(0.4507 -0.1143 -3.158e-22)
(0.8981 -0.3254 0)
(1.072 -0.1104 -4.117e-22)
(0.3884 -0.1724 7.125e-22)
(0.3398 -0.0433 2.523e-21)
(0.6404 -0.1796 0)
(1.029 -0.002377 5.078e-21)
(0.9642 -0.08085 -3.154e-22)
(0.7086 -0.2038 -1.03e-21)
(0.5117 -0.1507 0)
(0.6514 -0.1485 -8.999e-22)
(0.9502 -0.08592 1.566e-23)
(0.4744 -0.1489 0)
(-0.0004322 -0.002539 -2.506e-23)
(0.5161 -0.1521 -3.321e-22)
(0.9521 -0.07117 0)
(0.7914 -0.1776 4.9e-22)
(0.4348 -0.2472 -4.524e-21)
(0.9926 -0.06302 4.936e-22)
(1.015 -0.2074 2.35e-21)
(0.9853 0.04629 1.837e-21)
(0.9707 -0.1341 6.215e-23)
(0.8949 -0.1685 -1.184e-21)
(0.9912 -0.1114 -1.754e-22)
(1.206 0.3199 2.92e-22)
(0.0004641 0.03373 2.888e-21)
(1.002 0.0009888 1.859e-21)
(0.6443 -0.1468 7.825e-22)
(0.7397 0.6064 6.081e-23)
(1.011 -0.1109 1.053e-22)
(0.8344 -0.1616 0)
(1.008 -0.1361 2.371e-21)
(0.8898 -0.1803 0)
(0.5033 -0.382 0)
(0.4206 -0.1249 0)
(1.068 -0.09511 5.189e-23)
(0.6811 -0.2387 0)
(0.4788 -0.1517 -2.851e-22)
(0.5183 -0.04471 2.813e-23)
(0.7066 -0.04292 0)
(0.09742 -0.05186 7.29e-21)
(0.9985 -0.03085 1.499e-22)
(0.5123 -0.1509 -8.858e-22)
(0.5586 -0.1437 0)
(0.7061 -0.06618 1.474e-21)
(0.3867 -0.1275 -4.271e-22)
(0.8303 -0.3239 1.422e-21)
(0.9236 0.1951 -6.219e-22)
(0.9398 0.05298 -1.368e-22)
(0.1625 -0.05971 0)
(0.8933 -0.1685 5.523e-22)
(1.042 -0.1838 3.505e-22)
(0.9711 -0.2774 -1.378e-21)
(0.9854 -0.0008583 2.096e-20)
(0.3042 -0.1083 9.405e-24)
(1.183 0.3848 -2.128e-23)
(0.9635 -0.08018 -3.044e-22)
(0.7629 -0.07725 0)
(0.9534 -0.03291 1.352e-21)
(0.9711 -0.2779 -4.798e-22)
(1.017 -0.04301 0)
(0.2894 -0.1072 1.459e-22)
(0.3048 -0.1085 -9.597e-24)
(0.718 -0.2088 2.005e-21)
(0.6348 -0.1763 4.367e-22)
(1.024 0.1705 -8.509e-23)
(0.3237 0.2432 -7.842e-22)
(0.7395 -0.06987 5.184e-24)
(0.9758 -0.04028 3.688e-21)
(0.9283 -0.1194 1.393e-22)
(0.857 -0.1085 -9.927e-22)
(0.956 -0.06957 3.38e-21)
(0.3337 0.5483 -6.979e-22)
(-0.0002113 -0.002637 4.182e-23)
(0.709 -0.1848 0)
(1.001 1.982e-05 0)
(0.9999 4.041e-07 -1.212e-22)
(0.07902 0.04777 0)
(0.9866 0.02952 5.5e-22)
(1.02 0.01497 2.359e-21)
(0.9187 0.01149 5.304e-21)
(0.8584 -0.04137 -3.094e-21)
(0.3991 -0.1326 -3.632e-22)
(-0.0001959 -0.001216 5.881e-25)
(0.8631 -0.05207 2.011e-22)
(1.012 -0.1254 9.108e-22)
(1.006 -0.1756 -1.169e-22)
(0.7704 -0.06019 5.645e-21)
(0.994 0.02042 -1.191e-21)
(0.9029 -0.1228 9.708e-22)
(0.386 -0.1225 2.013e-22)
(0.9833 -0.01013 2.597e-21)
(0.933 0.1961 -6.434e-22)
(0.4774 -0.1415 -7.9e-24)
(0.1026 0.01093 0)
(0.1083 -0.03858 -2.649e-22)
(1.005 -0.1931 8.142e-22)
(0.6519 -0.1613 -1.218e-21)
(1.013 -0.1242 1.966e-22)
(1.181 0.3816 -3.144e-23)
(1.003 0.01038 -9.529e-21)
(0.8279 -0.1604 -2.467e-22)
(1.009 -0.1072 1.698e-22)
(0.4878 -0.04342 0)
(0.16 -0.05824 0)
(0.6226 -0.1604 -1.253e-21)
(0.9946 -0.1421 6.852e-22)
(0.234 -0.08231 3.354e-22)
(0.5947 -0.1734 8.065e-22)
(0.741 -0.173 1.177e-21)
(1.017 -0.04416 1.761e-21)
(0.5045 -0.104 1.924e-21)
(0.002213 -0.02194 0)
(0.742 -0.1731 0)
(1.063 -0.1065 -5.792e-22)
(0.5123 -0.1511 4.201e-22)
(0.01025 -0.001563 1.608e-23)
(1.02 0.01448 -2.489e-21)
(0.9416 -0.125 6.866e-22)
(0.8651 -0.1093 9.079e-22)
(0.785 -0.05135 -2.06e-21)
(0.3749 -0.1249 -9.165e-23)
(0.6926 -0.243 -1.072e-24)
(1.053 -0.1045 0)
(-0.001129 -0.005923 3.291e-26)
(0.8894 -0.1764 1.02e-21)
(0.3438 -0.006489 0)
(0.01659 -0.00458 4.457e-22)
(0.9971 0.0009962 -6.708e-21)
(1.201 0.2323 -9.245e-22)
(0.4454 -0.0487 -4.632e-22)
(0.9906 -0.2289 0)
(0.8327 -0.1719 0)
(0.7965 -0.1916 9.979e-22)
(0.8718 -0.3548 0)
(1.029 -0.002624 -4.671e-21)
(1.009 0.273 0)
(1.009 -0.2543 0)
(0.8922 0.1354 5.184e-22)
(0.7437 -0.1854 -9.009e-22)
(1.001 -0.05228 -1.268e-21)
(0.9499 -0.141 1.266e-23)
(0.984 0.04568 -1.508e-21)
(1.059 -0.08461 0)
(0.7475 -0.06005 -6.823e-22)
(0.3744 -0.1184 1.088e-21)
(0.4707 -0.3805 0)
(0.717 -0.3067 3.402e-21)
(1.106 -0.06595 -7.042e-22)
(0.5946 -0.1078 0)
(0.9846 -0.0009785 -2.415e-20)
(0.4881 -0.1535 -2.422e-22)
(0.9382 -0.1257 -7.288e-22)
(0.9511 -0.06452 1.956e-22)
(0.9341 -0.1195 -6.662e-22)
(0.7413 -0.1631 0)
(0.8361 -0.1297 -1.006e-21)
(0.9742 -0.003417 1.579e-21)
(0.9867 -0.2901 7.219e-22)
(0.9897 -0.001356 -3.049e-21)
(0.979 -0.02056 6.115e-24)
(1.033 -0.1214 4.215e-25)
(0.9893 0.007883 0)
(1.006 0.02034 -5.233e-22)
(-0.001005 -0.002597 -6.136e-24)
(0.5553 -0.1543 0)
(0.9947 0.02241 1.105e-21)
(0.8124 -0.1123 -6.693e-22)
(0.95 -0.03379 2.987e-21)
(1.009 -0.1354 -2.902e-21)
(1.042 -0.2108 0)
(1.062 -0.1076 5.707e-22)
(1.036 -0.2004 0)
(0.9886 -0.02101 -2.427e-21)
(0.8472 -0.3691 -4.517e-23)
(0.6373 -0.05355 2.848e-23)
(0.1656 -0.07192 -1.635e-22)
(0.3748 -0.1253 3.455e-22)
(1.106 -0.06485 4.049e-22)
(0.584 -0.06373 1.227e-22)
(1.013 -0.2571 -2.094e-22)
(0.91 -0.2933 -1.163e-21)
(1.051 -0.175 -7.563e-22)
(0.4689 -0.03566 0)
(0.675 -0.4037 5.395e-24)
(1.008 -0.176 -4.07e-23)
(0.9826 -0.01027 0)
(0.7793 -0.1817 -6.602e-24)
(0.9785 -0.1045 1.402e-22)
(0.9051 -0.1376 5.346e-22)
(0.1208 -0.09666 -3.892e-23)
(0.6959 -0.1686 0)
(0.9903 -0.001373 -1.391e-21)
(0.9838 0.01048 -4.522e-21)
(1.15 0.3919 3.264e-23)
(0.9874 -0.1436 3.535e-22)
(0.5658 -0.05967 -2.364e-22)
(0.9898 -0.1152 2.253e-21)
(0.9238 -0.01539 6.345e-21)
(1.018 -0.174 0)
(0.6623 -0.04675 -2.061e-22)
(1.027 -0.01684 1.344e-21)
(0.99 -0.2283 3.531e-22)
(1.147 0.3893 0)
(1.015 -0.1265 -6.052e-22)
(0.9021 -0.04846 2.389e-21)
(0.326 -0.004741 -2.434e-23)
(0.7136 0.03698 2.683e-22)
(1.144 0.4409 1.879e-22)
(0.5867 -0.1724 0)
(1.007 0.02005 4.493e-22)
(0.8883 -0.09783 -4.882e-21)
(1.001 1.53e-05 0)
(0.9999 3.75e-07 0)
(0.8868 -0.1746 0)
(0.866 -0.3545 -2.292e-22)
(1.043 -0.1844 3.619e-22)
(0.5856 -0.172 -3.165e-22)
(0.5576 -0.1508 -2.738e-21)
(0.9928 -0.06146 -2.032e-21)
(1.004 -0.1929 0)
(1.001 -0.1137 1.512e-22)
(0.9418 -0.1192 1.071e-22)
(0.3567 -0.1417 7.902e-24)
(0.8088 -0.112 4.746e-22)
(0.5386 -0.129 -8.715e-22)
(0.7657 -0.1512 6.118e-22)
(0.6196 -0.07395 3.814e-22)
(0.9649 -0.06262 0)
(0.6328 -0.07146 -2.63e-22)
(0.6526 -0.1601 7.535e-22)
(0.3118 -0.1088 -1.74e-22)
(0.9373 -0.1193 4.77e-22)
(0.9221 0.04842 0)
(0.5425 -0.132 -2.023e-21)
(0.8299 -0.1719 -7.017e-22)
(1.214 0.2858 -2.321e-22)
(0.9799 -0.01531 2.904e-21)
(0.6992 0.04057 0)
(0.4986 -0.1542 -4.111e-22)
(0.9178 -0.06723 3.553e-23)
(0.7576 -0.1324 -1.9e-21)
(0.7578 -0.05482 0)
(0.7542 -0.06427 -2.384e-23)
(1.004 0.005243 -6.014e-23)
(0.987 0.02883 -1.733e-21)
(0.956 -0.007397 0)
(0.5313 -0.09954 7.543e-22)
(0.9764 -0.003002 0)
(0.55 -0.2299 5.211e-21)
(1.026 -0.01855 -2.915e-21)
(0.505 -0.05464 3.78e-22)
(0.7424 -0.05641 1.269e-22)
(0.9803 -0.03874 0)
(1.012 -0.07802 -1.349e-22)
(0.6764 -0.06364 -7.175e-23)
(0.03485 -0.03855 9.783e-26)
(0.5581 -0.1668 -1.332e-21)
(0.9716 -0.004618 6.439e-22)
(0.8247 -0.1663 -4.07e-21)
(0.3846 -0.04908 -2.26e-21)
(0.6535 -0.08241 0)
(1.012 -0.2597 -1.184e-21)
(0.9923 0.0537 0)
(0.1839 -0.01274 0)
(0.9683 0.09932 0)
(0.4683 0.002309 0)
(0.7073 -0.1842 -2.609e-22)
(0.9057 -0.1702 -2.469e-21)
(1.011 -0.0112 -6.794e-21)
(0.8684 -0.2695 0)
(0.1993 -0.07071 3.104e-22)
(0.7954 -0.2014 1.028e-21)
(0.7347 -0.06783 -2.446e-23)
(0.6212 -0.04413 1.26e-22)
(0.8728 -0.2705 -1.061e-21)
(0.6756 -0.0376 0)
(0.9205 0.04641 0)
(0.999 -0.05137 0)
(0.4158 -0.03362 -1.134e-22)
(1.002 0.009958 3.992e-21)
(0.7877 -0.1714 0)
(0.2934 -0.1078 0)
(0.9727 0.0991 0)
(0.9965 -0.1209 -2.019e-22)
(0.4959 -0.1552 -1.265e-21)
(0.9466 -0.091 -8.074e-23)
(0.9999 0.001299 -5.282e-20)
(0.7801 -0.07942 0)
(0.8476 -0.3722 0)
(0.6234 -0.08718 1.251e-21)
(1.015 -0.2058 -2.37e-21)
(0.4999 -0.1562 0)
(0.9043 -0.3275 0)
(0.725 -0.1442 -7.812e-22)
(0.613 -0.1683 -1.279e-21)
(0.5501 -0.1027 0)
(1.05 -0.1116 4.763e-22)
(0.7983 -0.3171 -7.403e-22)
(0.3906 -0.129 0)
(0.1021 -0.03597 -1.297e-21)
(0.4663 -0.1359 0)
(0.998 0.001133 2.193e-21)
(0.5916 -0.1727 -9.983e-22)
(0.937 0.1619 -2.799e-22)
(1.06 0.2929 8.384e-24)
(0.9732 -0.1982 -1.301e-21)
(0.8063 -0.05651 1.93e-21)
(1.006 -0.1463 -6.893e-22)
(1.006 -2.558e-05 0)
(0.4614 -0.136 0)
(0.3043 -0.1062 0)
(0.8645 -0.1357 5.725e-21)
(1.14 -0.01945 9.834e-23)
(1.004 0.005155 1.469e-21)
(0.9969 -0.1515 -3.816e-22)
(0.5787 -0.1308 -1.541e-21)
(0.9502 -0.04281 -1.597e-21)
(0.9878 -0.02006 0)
(0.9954 -0.001866 -2.645e-21)
(0.7653 -0.06336 2.616e-23)
(0.9465 -0.07325 -1.788e-21)
(0.8673 -0.3586 2.551e-22)
(0.9555 0.048 0)
(0.5618 -0.04272 -8.067e-24)
(0.9788 0.01046 6.374e-21)
(0.5784 -0.3993 0)
(0.953 -0.008155 -8.841e-22)
(0.3861 -0.1216 1.793e-22)
(0.6769 -0.1756 0)
(0.6943 -0.08703 -7.026e-24)
(1.005 -0.1215 4.235e-22)
(0.5367 -0.09211 4.765e-21)
(0.8774 0.05473 7.013e-23)
(0.3963 -0.1311 -1.373e-22)
(0.5782 -0.06817 1.946e-22)
(0.8558 -0.04939 0)
(0.4237 -0.1384 0)
(1.055 -0.1081 6.017e-22)
(0.9575 -0.08673 -1.027e-23)
(1.021 -0.08324 4.577e-22)
(0.8596 -0.1799 0)
(0.3788 0.2175 -3.992e-21)
(1.015 -0.0837 9.327e-25)
(0.9887 -0.0002531 0)
(1.01 0.03951 0)
(0.8741 -0.156 0)
(0.4753 -0.1254 9.891e-22)
(1.001 -9.291e-05 0)
(0.5971 -0.1724 6.426e-22)
(0.9756 -0.1328 1.501e-21)
(1.072 -0.1095 6.107e-22)
(0.9892 -0.1432 -1.134e-22)
(1.008 -0.111 1.147e-21)
(1.009 0.000567 0)
(0.4367 -0.3497 -2.667e-21)
(0.9789 -0.1304 -1.358e-21)
(0.2377 -0.08249 -2.598e-22)
(1.027 -0.1112 2.868e-23)
(0.3635 -0.1948 4.79e-22)
(0.5693 -0.4 -5.362e-22)
(0.7324 -0.1087 4.23e-22)
(0.6961 -0.167 0)
(0.8551 -0.3709 0)
(1.14 -0.0189 -1.016e-22)
(1.034 -0.1128 -2.017e-23)
(1.019 0.006056 4.167e-21)
(0.5584 -0.04707 -6.854e-23)
(0.9581 0.02547 2.784e-21)
(1.167 0.4015 1.036e-23)
(0.8338 -0.08351 -7.033e-23)
(0.9809 -0.1079 0)
(1.21 0.3047 1.375e-22)
(-0.0003487 -0.00213 0)
(0.4859 -0.1463 1.074e-21)
(0.3735 0.05565 5.624e-22)
(1.062 -0.07422 -2.631e-23)
(0.9555 0.5311 -4.572e-22)
(0.9845 -0.003986 -1.87e-20)
(0.3594 -0.1996 0)
(1.011 0.03928 1.151e-24)
(0.355 -0.1205 0)
(0.7158 -0.1854 -9.472e-22)
(-0.0002548 -0.001485 0)
(0.007477 0.009071 4.15e-23)
(0.01183 -0.004085 -8.384e-24)
(1.001 -0.0004919 -2.737e-20)
(0.5477 -0.1336 0)
(1.129 0.03841 0)
(0.9844 0.01059 9.519e-21)
(0.5315 -0.1605 6.216e-22)
(0.8857 -0.322 1.612e-21)
(0.4505 -0.1415 8.12e-22)
(1.032 -0.1502 0)
(0.6731 -0.1748 0)
(0.6883 -0.08511 2.765e-22)
(0.5983 -0.1734 -6.595e-22)
(0.2559 -0.04909 5.294e-22)
(0.9904 2.426e-05 0)
(0.3584 -0.1131 -2.61e-22)
(0.01613 -0.005847 0)
(0.773 -0.3128 4.742e-22)
(0.5929 -0.05836 -2.259e-23)
(0.1717 -0.06238 1.33e-22)
(1.006 -0.01454 -2.138e-21)
(1.015 -0.1108 1.046e-22)
(0.8639 -0.04245 -7.721e-22)
(0.8636 -0.1796 1.043e-21)
(1.003 -0.01302 0)
(0.5175 -0.04204 0)
(0.7714 0.3399 0)
(0.2108 -0.0742 -4.645e-22)
(0.9999 -9.047e-06 0)
(0.8729 -0.1556 -5.496e-22)
(1.06 -0.1259 5.26e-22)
(0.1355 -0.05302 6.671e-25)
(0.829 -0.3798 2.998e-22)
(0.841 0.2194 1.69e-22)
(0.8257 -0.182 -4.082e-22)
(0.9523 0.01507 1.997e-22)
(0.301 -0.1026 -2.328e-22)
(0.9128 -0.3429 -7.346e-22)
(1.001 -8.703e-05 1.631e-22)
(1.013 -0.2585 1.576e-21)
(1.048 -0.1137 -3.345e-21)
(0.6591 -0.05634 -2.411e-23)
(0.7658 -0.05478 1.084e-22)
(0.4596 -0.1213 -1.07e-21)
(0.2759 -0.09249 2.476e-22)
(0.7104 -0.1847 4.673e-22)
(1.122 -0.05064 0)
(0.8227 -0.3205 5.778e-22)
(0.4335 -0.1395 0)
(0.4687 -0.1378 2.591e-23)
(1.022 -0.003966 -5.847e-22)
(0.4945 9.391e-05 8.966e-23)
(0.5653 -0.1581 -5.129e-22)
(0.6174 -0.093 -1.229e-21)
(0.9397 -0.1015 2.115e-22)
(0.4001 -0.1326 3.462e-22)
(1 0.00271 0)
(0.9997 0.003476 1.161e-20)
(0.8972 0.1311 -8.334e-22)
(0.5315 -0.1271 -4.389e-22)
(0.9263 0.5591 0)
(0.9822 0.01277 -4.769e-21)
(1.004 0.0007959 -2.586e-21)
(0.9274 -0.338 0)
(0.7054 -0.3063 0)
(0.4872 -0.1535 4.147e-22)
(0.8537 -0.3714 0)
(0.2209 -0.07413 1.064e-21)
(0.1456 -0.04822 0)
(1.034 -0.2298 -3.297e-22)
(1.016 0.04284 0)
(1.003 -0.0004339 2.227e-21)
(0.2165 -0.07678 4.282e-22)
(0.6033 -0.1716 -4.99e-22)
(0.9619 -0.2214 1.061e-21)
(1 -0.0003426 1.76e-20)
(0.3783 -0.006138 1.118e-21)
(0.9585 -0.0969 0)
(0.5401 -0.1462 9.609e-22)
(0.9719 -0.004494 -2.955e-21)
(0.4998 -0.06132 -8.778e-23)
(0.9817 0.01222 7.543e-21)
(0.5021 -0.1569 -2.002e-22)
(0.3025 -0.1024 0)
(0.8758 -0.1755 4.998e-23)
(0.997 1.507e-05 -2.93e-21)
(0.3396 -0.1114 -9.85e-22)
(0.7452 -0.186 -2.221e-22)
(0.1676 -0.1044 -9.319e-21)
(1.009 0.0005353 -3.102e-21)
(0.9284 -0.1442 -5.89e-22)
(0.1102 -0.03877 1.227e-22)
(0.9955 -0.002113 0)
(0.998 -0.1213 0)
(0.9879 0.02134 -1.248e-22)
(0.821 -0.05898 8.071e-23)
(1.019 -0.1214 0)
(0.9894 0.007476 7.482e-21)
(0.4771 -0.1177 2.776e-21)
(0.7305 -0.09798 -2.908e-22)
(0.1019 -0.07589 0)
(0.8277 -0.1275 -1.148e-21)
(0.9825 -0.1335 -1.151e-22)
(0.6475 -0.07294 7.33e-22)
(0.6614 -0.08064 3.52e-22)
(0.3812 -0.28 -2.528e-21)
(0.7872 -0.07336 -8.343e-25)
(1.068 0.5578 1.003e-23)
(0.8123 -0.01074 -2.632e-22)
(0.3106 -0.1075 -1.781e-22)
(1.028 -0.09232 -1.796e-22)
(0.5233 -0.04722 -3.478e-24)
(1.002 -0.0003585 0)
(0.712 -0.1486 -1.114e-21)
(0.9868 0.009122 -2.286e-21)
(0.3658 -0.1208 -1.481e-21)
(1.034 0.01199 2.377e-21)
(0.9732 -0.134 8.612e-22)
(1.006 -2.562e-05 0)
(0.9941 0.02217 2.86e-21)
(1.066 -0.09398 -1.278e-22)
(0.8015 -0.3193 3.742e-22)
(0.7104 -0.1684 8.125e-22)
(1.006 0.0003309 1.473e-20)
(1.006 -0.002603 -4.158e-21)
(0.242 -0.08458 -3.159e-22)
(0.6266 0.07676 0)
(0.5 -0.1177 1.13e-21)
(0.5733 -0.04912 -4.01e-23)
(0.4865 -0.1431 0)
(0.8669 -0.3579 -2.605e-22)
(0.6727 -0.1755 -1.209e-22)
(0.8458 -0.3722 0)
(0.9449 -0.1196 -1.492e-23)
(0.4334 -0.1289 -3.004e-21)
(0.6709 -0.05343 0)
(1.006 0.0003161 -2.249e-21)
(0.9256 -0.04433 1.174e-21)
(0.9482 -0.1226 5.325e-23)
(1.06 -0.1757 1.953e-22)
(1.041 -0.1133 0)
(1.002 -0.02859 -8.312e-21)
(1.004 0.0007538 2.786e-22)
(1.018 -0.1257 -5.958e-22)
(0.4813 -0.2714 2.461e-26)
(1.034 -0.1128 1.024e-22)
(0.05606 -0.01762 2.553e-22)
(1.034 0.01357 0)
(1.002 0.0005479 3.32e-22)
(0.4597 -0.1417 0)
(0.8324 -0.07837 0)
(0.9204 0.01205 -4.192e-21)
(0.6464 -0.07772 -8.045e-22)
(1.053 -0.162 0)
(0.9923 -0.02006 -1.295e-22)
(0.3746 -0.1139 1.508e-21)
(1.016 -0.2416 -2.562e-22)
(0.9531 -0.1225 3.374e-22)
(0.9022 -0.2116 -3.585e-21)
(0.003205 -0.0009859 0)
(0.1675 -0.06059 0)
(0.4261 -0.139 -1.168e-22)
(0.3953 -0.1319 2.455e-22)
(0.5563 -0.1538 0)
(0.796 -0.1196 9.376e-22)
(0.5387 -0.0713 1.642e-22)
(0.7014 -0.1099 0)
(0.9422 -0.02934 -7.249e-22)
(0.9575 -0.09066 1.265e-21)
(0.2206 -0.1005 0)
(0.7904 -0.1714 -9.99e-22)
(1.006 -0.001533 9.838e-21)
(0.8496 -0.1317 7.609e-22)
(0.96 -0.2805 0)
(0.6547 -0.1053 -1.65e-21)
(0.9999 -2.127e-06 8.128e-22)
(1.006 -0.001661 -1.08e-20)
(0.02013 0.008186 0)
(1.062 -0.07254 9.381e-23)
(0.7508 -0.1408 -1.083e-21)
(0.8408 -0.1148 -5.796e-23)
(0.7049 -0.3974 0)
(0.7799 -0.1822 1.809e-21)
(1.137 -0.001329 0)
(0.5226 -0.04293 6.479e-23)
(0.7501 -0.08029 2.71e-21)
(0.7957 -0.2103 0)
(1.018 0.005604 -1.839e-21)
(1.009 -0.0004573 0)
(1.203 0.2598 0)
(0.9444 0.1605 0)
(0.5568 -0.1066 1.675e-22)
(0.6613 -0.1131 0)
(0.5887 -0.2427 2.821e-21)
(0.512 -0.1526 0)
(0.7554 -0.311 -1.025e-21)
(0.9073 -0.1205 6.034e-21)
(0.7642 -0.1318 2.669e-21)
(0.9967 8.917e-05 5.333e-22)
(0.5954 -0.03691 -6.921e-23)
(1.01 -0.1106 1.332e-22)
(0.7798 -0.18 -8.699e-22)
(-0.0005274 -0.002803 6.097e-24)
(0.9771 -0.1509 -1.754e-22)
(1.064 -0.083 -9.276e-22)
(0.5627 -0.168 1.361e-21)
(0.9968 1.492e-05 3.258e-21)
(0.9194 -0.09937 -5.033e-24)
(0.7547 -0.06599 -1.877e-25)
(0.07033 -0.02407 0)
(0.6447 -0.1302 7.831e-22)
(0.86 -0.1788 8.005e-22)
(0.9449 -0.1197 -2.284e-22)
(0.7708 0.6228 0)
(0.6108 -0.1677 1.202e-21)
(0.696 -0.3729 1.249e-21)
(0.5863 -0.1597 -3.124e-22)
(0.8206 -0.1987 2.262e-22)
(0.8996 -0.0968 -1.496e-22)
(0.9829 -0.105 -6.463e-23)
(0.6431 -0.1801 7.083e-22)
(1.054 -0.1953 7.419e-22)
(0.005374 -0.0003138 0)
(0.9586 -0.2824 0)
(0.9395 0.05086 1.218e-21)
(0.9254 -0.2068 -3.15e-22)
(0.8331 -0.3568 7.472e-22)
(0.8391 -0.08757 2.63e-23)
(1.012 0.0006331 0)
(0.2606 -0.1049 -1.099e-22)
(0.6572 -0.1598 -1.496e-21)
(0.4886 -0.1534 -3.839e-22)
(1.002 0.0005396 -4.416e-22)
(0.05475 -0.02093 0)
(0.4741 -0.139 0)
(0.5026 -0.0629 -9.039e-22)
(0.9957 9.33e-05 -1.804e-21)
(0.685 -0.1091 1.005e-21)
(0.3256 -0.1121 0)
(0.6533 -0.1236 1.496e-21)
(0.8788 -0.09422 -6.943e-22)
(0.9958 6.799e-05 1.7e-21)
(0.5247 -0.1615 -7.21e-22)
(0.18 -0.07102 0)
(0.4293 -0.1184 2.103e-21)
(0.8361 -0.17 0)
(0.9851 0.03133 -4.806e-22)
(1.002 -0.1133 1.364e-22)
(0.2282 -0.1852 0)
(1.026 0.004498 -1.281e-21)
(1.005 -0.1843 5.711e-22)
(1.045 -0.2205 0)
(0.8043 -0.1191 -9.104e-22)
(0.487 -0.1458 0)
(1.012 -0.2559 -6.19e-22)
(0.9735 -0.1504 0)
(0.4061 -0.05227 -2.659e-22)
(0.3881 -0.1215 0)
(0.9996 -6.215e-06 -1.654e-21)
(0.5229 -0.1612 6.776e-22)
(0.5812 -0.1676 1.212e-22)
(0.3975 -0.03099 0)
(0.6487 -0.09302 -8.487e-22)
(1.083 -0.04741 0)
(0.5333 -0.1605 0)
(0.2851 -0.09417 5.78e-23)
(0.9997 -1.499e-05 1.392e-21)
(0.4554 -0.1432 -7.963e-22)
(0.3762 -0.1127 0)
(1.021 -0.1142 0)
(0.004921 -0.0272 -6.24e-24)
(1.023 -0.1136 -1.072e-22)
(0.2127 -0.07579 7.001e-22)
(0.8079 -0.1581 -1.946e-22)
(0.3746 -0.1243 0)
(1.028 -0.236 0)
(1.001 -0.000445 1.355e-20)
(0.001795 -0.0006874 -3.114e-24)
(0.5386 -0.1543 1.095e-21)
(0.8357 -0.1294 1.069e-21)
(0.178 -0.06331 3.577e-22)
(0.4503 -0.1451 -8.345e-22)
(0.3271 -0.1095 8.445e-22)
(0.4229 -0.1328 -3.215e-22)
(0.7016 -0.0571 0)
(1.002 -0.0003945 0)
(0.6451 -0.1504 0)
(1.029 -0.1277 -7.055e-24)
(0.9965 0.0001197 0)
(0.4223 -0.1308 -1.236e-21)
(1.168 0.4003 0)
(0.9136 -0.1377 -4.817e-22)
(0.9069 -0.3192 -4.987e-22)
(1.007 0.0002293 -7.197e-21)
(0.6775 -0.1767 0)
(0.3004 -0.1066 0)
(1.018 0.006081 -5.12e-21)
(1.007 0.0002372 0)
(1.039 -0.1151 0)
(0.6206 -0.1749 9.443e-22)
(0.487 -0.1437 -4.361e-22)
(0.3195 -0.1084 3.988e-22)
(0.4995 -0.1563 5.864e-22)
(0.1613 0.005281 5.102e-24)
(1.019 -0.1344 0)
(0.8017 -0.2409 -2.417e-21)
(1.006 -0.001598 0)
(0.5204 -0.1581 -5.494e-22)
(0.3904 -0.1292 0)
(0.6487 -0.04154 -1.733e-22)
(0.502 -0.04033 0)
(0.8299 -0.3197 -1.316e-21)
(0.9992 0.0009663 0)
(1.007 -0.01374 5.54e-22)
(0.9478 -0.01177 -4.553e-22)
(0.3777 0.002181 1.222e-21)
(1.006 -0.001473 1.337e-21)
(0.9041 -0.1153 -2.943e-21)
(0.5074 -0.3084 5.877e-22)
(0.93 -0.1178 -3.978e-22)
(0.4302 -0.06665 1.373e-21)
(0.991 -0.00389 0)
(0.3504 -0.1176 -3.168e-22)
(0.9236 -0.1112 2.28e-22)
(1.002 0.01238 0)
(0.626 -0.07418 -3.241e-22)
(1.001 -0.0001126 0)
(0.7563 -0.3837 1.577e-21)
(0.1437 -0.1969 -2.78e-21)
(0.777 -0.1059 -3.174e-23)
(1.071 -0.09078 0)
(0.3965 0.003964 1.303e-22)
(0.9949 -0.02951 3.577e-22)
(0.4419 -0.1176 0)
(0.9035 -0.2263 -1.028e-21)
(0.5266 -0.04129 0)
(0.1962 -0.09826 -1.69e-22)
(0.5553 -0.07122 -2.887e-22)
(0.4917 0.6593 8.61e-22)
(1.085 -0.0438 -9.157e-22)
(1.054 -0.1987 -5.804e-22)
(0.9001 -0.3392 1.301e-23)
(0.1338 -0.01083 0)
(0.9999 0.015 0)
(0.9675 -0.1516 1.927e-21)
(0.743 -0.2396 0)
(1.041 0.1869 4.508e-23)
(0.2202 -0.1003 5.741e-23)
(0.2735 -0.04864 0)
(1 0.0009745 0)
(0.8606 -0.09204 2.702e-21)
(0.2155 -0.07507 -2.055e-22)
(0.419 -0.0985 -5.445e-21)
(0.1972 -0.00363 6.394e-21)
(1.15 0.09443 0)
(0.03204 -0.03237 -1.147e-21)
(1.067 0.1265 -1.644e-22)
(0.147 0.01335 1.455e-21)
(0.623 -0.1519 -7.031e-22)
(0.1906 -0.06717 6.589e-22)
(0.6504 -0.1501 5.733e-22)
(0.1926 -0.01409 1.956e-22)
(1.008 0.04978 -8.626e-23)
(0.892 -0.1288 0)
(1.004 0.0005297 0)
(0.9972 1.416e-05 0)
(0.9433 -0.1398 5.417e-22)
(1.035 0.02298 -1.4e-23)
(0.8891 -0.1121 7.83e-22)
(0.5663 -0.07693 -2.231e-21)
(0.3108 0.2004 0)
(1.055 -0.1092 3.853e-22)
(0.9707 -0.05168 -2.272e-21)
(1.121 0.404 1.59e-22)
(0.9144 -0.2081 7.991e-22)
(1.011 -0.01085 4.961e-21)
(0.7256 -0.1571 3.27e-23)
(0.4248 -0.1375 -1.847e-22)
(0.9739 -0.04977 2.879e-21)
(0.4862 -0.1122 -3.175e-21)
(0.03504 -0.0123 -5.958e-22)
(0.3047 -0.07962 0)
(1.006 -0.2057 0)
(0.2769 -0.2977 -2.061e-21)
(0.9039 -0.1702 0)
(0.2949 -0.1003 0)
(0.9877 -0.001038 7.658e-21)
(0.9854 -0.1072 3.811e-22)
(0.7856 -0.1793 9.03e-22)
(0.9816 -0.01526 0)
(0.4828 -0.1197 1.223e-21)
(0.5573 -0.1575 0)
(0.6541 -0.1781 -4.52e-22)
(1.001 -0.0001052 -5.084e-22)
(0.9374 -0.01026 -1.425e-21)
(0.77 -0.1598 0)
(0.1232 0.006497 9.709e-24)
(0.9519 -0.3222 -8.425e-22)
(0.03525 -0.01135 0)
(0.6249 -0.1753 7.02e-22)
(0.8448 -0.3686 0)
(0.9375 -0.2058 -1.486e-22)
(0.09163 -0.03345 0)
(0.8428 -0.06163 3.773e-22)
(0.9975 -8.872e-06 -1.342e-21)
(0.4468 -0.2629 0)
(1.137 0.1796 -6.521e-22)
(1.005 0.0005357 0)
(0.8903 -0.3542 1.675e-23)
(0.02356 -0.008422 3.778e-23)
(0.865 -0.1713 -5.89e-22)
(0.9458 0.05279 -1.057e-21)
(1.017 -0.04781 2.5e-22)
(1.043 -0.166 -1.454e-22)
(0.06656 -0.02404 -5.596e-25)
(0.06587 -0.006746 -5.422e-23)
(0.7263 -0.0762 0)
(1.015 0.04313 -4.517e-22)
(0.9946 0.007681 2.611e-21)
(1.009 -0.1948 0)
(0.8279 -0.3781 -2.034e-22)
(0.4045 -0.1305 -1.198e-21)
(0.5053 -0.1174 0)
(0.299 0.3816 -1.739e-21)
(0.5381 -0.2263 -1.762e-21)
(0.6721 0.01406 -4.201e-23)
(1.066 -0.008435 -1.266e-21)
(0.5339 -0.2222 -1.727e-21)
(0.9886 -0.06856 2.248e-21)
(0.4736 -0.03811 0)
(1.012 0.002046 0)
(0.4844 -0.1529 7.181e-23)
(0.07101 -0.06904 -1.246e-23)
(0.8905 -0.1618 -1.531e-21)
(0.5005 -0.1413 0)
(0.5983 -0.1707 0)
(0.9912 0.00492 -6.675e-21)
(0.9666 0.00546 1.952e-21)
(0.2018 -0.07095 0)
(1.009 -0.225 2.001e-21)
(0.3097 -0.1055 0)
(0.766 -0.1003 0)
(0.2683 -0.09361 -6.059e-22)
(0.4753 -0.1492 -4.175e-22)
(1.044 -0.1102 -8.329e-23)
(1.063 0.002474 -1.837e-22)
(0.8661 -0.07326 -1.467e-21)
(0.1319 -0.02066 9.264e-22)
(0.9791 -0.1196 -3.531e-22)
(0.6013 -0.04289 9.851e-23)
(0.3765 -0.1118 1.652e-21)
(1.003 -0.1244 4.581e-22)
(0.5171 -0.1583 1.049e-21)
(0.3533 0.554 7.412e-22)
(0.3385 -0.1133 -2.364e-23)
(0.05867 -0.07629 6.797e-23)
(0.03049 -0.01086 0)
(0.5918 -0.1697 0)
(1.012 0.0006527 0)
(1.01 -0.002961 6.051e-21)
(0.5418 -0.1649 5.33e-22)
(0.4076 -0.1348 0)
(1.058 -0.1773 -1.529e-21)
(1.001 1.883e-05 0)
(0.8202 -0.3811 -7.256e-22)
(0.6723 -0.1756 6.114e-22)
(1.064 -0.08663 1.982e-23)
(0.2993 -0.1005 0)
(1.029 -0.1214 -1.229e-21)
(0.3895 -0.1202 -1.312e-21)
(1.061 0.4406 1.653e-22)
(0.9999 0.001278 -3.958e-20)
(1.056 -0.1917 0)
(1.055 -0.0562 -1.508e-22)
(0.3987 -0.1552 0)
(0.4741 -0.03603 0)
(0.3129 -0.108 9.606e-23)
(0.8447 -0.289 1.59e-21)
(0.9546 -0.1557 3.628e-21)
(0.5621 -0.1012 0)
(0.724 -0.06386 -2.077e-24)
(0.9654 -0.07797 0)
(0.5389 -0.1572 0)
(0.8152 -0.3764 9.291e-22)
(0.8406 -0.09662 -2.084e-22)
(0.3844 -0.1273 0)
(0.5268 -0.2284 -2.01e-21)
(0.9854 -0.0196 -3.56e-22)
(0.1064 -0.03927 0)
(0.08316 -0.03076 0)
(0.5838 -0.1679 0)
(0.8461 -0.1266 1.626e-21)
(0.2464 -0.2821 -3.117e-21)
(1.004 0.02708 1.404e-22)
(0.0992 -0.02437 1.994e-21)
(0.1384 -0.02572 0)
(0.9963 -0.0006397 0)
(1 -5.273e-05 -3.936e-21)
(0.9669 -0.1066 -2.056e-24)
(0.7216 -0.1702 2.582e-21)
(0.01903 -0.007222 -3.732e-23)
(0.1926 -0.1001 6.805e-23)
(0.8983 -0.1301 1.324e-22)
(0.7639 -0.2848 0)
(0.3232 -0.1048 -1.357e-21)
(1.059 -0.186 0)
(1.064 -0.1463 0)
(0.9985 -0.0348 -3.816e-21)
(0.3167 -0.103 -2.325e-21)
(0.4069 -0.09036 0)
(0.3595 -0.1175 -1.154e-21)
(1.036 -0.2159 0)
(0.1225 -0.04576 1.192e-22)
(0.4487 -0.144 -9.738e-22)
(0.9918 -0.002486 4.354e-22)
(0.1426 -0.01943 0)
(0.3086 -0.1073 -5.469e-22)
(1.001 -0.00162 -3.023e-20)
(0.7395 -0.1098 -6.44e-22)
(0.9954 -0.0006322 9.415e-21)
(0.9898 -0.005046 8.385e-21)
(0.986 -0.1343 -2.159e-22)
(1.03 -0.1756 0)
(0.1764 -0.02288 -9.02e-21)
(1 -0.003777 3.508e-21)
(0.6271 -0.07461 4.394e-23)
(1.006 0.009338 0)
(1.155 0.4192 0)
(1.029 -0.1613 -1.407e-21)
(0.7085 -0.149 4.541e-22)
(1.021 -0.1188 2.436e-22)
(0.7079 -0.1391 2.219e-22)
(0.737 -0.1062 0)
(0.3581 -0.1072 3.501e-21)
(0.9446 -0.1051 -2.872e-22)
(0.9953 -0.002371 4.933e-21)
(1.021 -0.0474 -2.491e-21)
(0.8995 -0.1601 7.586e-22)
(0.8617 -0.1598 -3.12e-22)
(0.3197 -0.1076 -1.032e-22)
(0.3562 -0.1141 0)
(0.2831 -0.01799 1.992e-25)
(0.3196 -0.1026 -8.306e-22)
(0.06253 -0.01939 -6.156e-21)
(0.8167 -0.1271 1.468e-21)
(0.7917 -0.2176 0)
(0.8983 0.014 -2.587e-21)
(0.6911 -0.07296 3.029e-23)
(0.4095 -0.05625 0)
(0.8518 0.2453 5.052e-22)
(0.672 -0.1549 0)
(0.9665 -0.01569 2.861e-21)
(0.5983 -0.1198 3.651e-21)
(0.2576 -0.09901 1.356e-22)
(0.5449 -0.09056 0)
(0.9959 0.000285 -1.375e-21)
(0.5729 -0.386 1.775e-21)
(0.6945 -0.1828 0)
(0.878 -0.08403 -6.796e-24)
(0.9131 -0.2514 2.508e-22)
(0.9269 -0.1173 -7.111e-23)
(1.055 -0.136 4.411e-22)
(0.4529 -0.09859 0)
(0.7691 -0.1867 6.879e-22)
(0.8803 -0.08398 -2.08e-23)
(0.2701 -0.09453 -1.172e-23)
(0.6876 -0.1883 -2.294e-21)
(0.1932 -0.09868 1.825e-22)
(0.997 -0.001174 0)
(0.9817 -0.07005 -1.232e-22)
(0.6134 -0.1155 0)
(0.9911 -0.02704 0)
(0.6373 -0.1351 0)
(0.6882 -0.07424 3.261e-22)
(1 1.022e-07 -1.642e-21)
(1.036 -0.2261 9.4e-22)
(0.2371 -0.08734 0)
(1.015 -0.06605 0)
(0.8682 0.248 -2.003e-21)
(0.9243 -0.1659 0)
(0.3532 -0.008707 0)
(1.059 -0.1655 1.431e-21)
(1.001 2.534e-05 4.39e-22)
(0.5881 -0.14 -3.249e-23)
(0.4636 -0.1345 -6.037e-23)
(1.019 -0.001206 4.446e-21)
(0.9186 0.2197 9.364e-22)
(1.034 0.03933 1.75e-22)
(0.6637 -0.1757 9.43e-22)
(0.5098 -0.1345 -1.22e-21)
(1.02 -0.178 3.958e-22)
(0.9808 -0.047 0)
(0.1681 -0.06326 -6.8e-23)
(0.0344 -0.01296 1.326e-22)
(0.7233 -0.1535 -1.569e-22)
(0.7956 -0.1252 6.913e-22)
(0.6015 -0.1749 -4.081e-22)
(0.1926 -0.01592 0)
(0.9953 0.0003346 -2.582e-21)
(0.8134 -0.08487 -7.891e-23)
(1.008 0.01198 -7.575e-24)
(0.5371 -0.1586 0)
(0.7804 -0.3903 -6.187e-22)
(0.7224 -0.1296 0)
(0.9105 -0.2504 2.491e-21)
(0.165 -0.08388 -8.747e-23)
(0.3163 -0.05165 0)
(0.9986 0.005259 -7.798e-21)
(0.01393 -0.005185 0)
(0.2852 -0.09018 0)
(0.3457 -0.0998 1.229e-21)
(0.9165 -0.08082 7.455e-25)
(1.032 0.2782 0)
(0.7318 -0.1863 -6.169e-22)
(0.6584 -0.1342 7.649e-22)
(0.4469 -0.03339 0)
(0.9234 -0.1275 0)
(0.8833 -0.003412 -2.779e-21)
(0.02954 -0.001483 7.438e-23)
(0.3862 -0.1292 2.748e-22)
(0.7278 -0.05021 0)
(0.6338 -0.134 -1.482e-21)
(0.834 -0.1252 0)
(0.651 -0.4032 -1.877e-21)
(0.3094 -0.02279 4.538e-22)
(0.15 -0.05169 6.674e-23)
(0.9182 -0.1545 1.798e-22)
(0.4284 -0.1373 0)
(1.072 -0.08875 0)
(0.6878 -0.08337 -3.916e-22)
(0.7102 -0.07206 8.682e-23)
(0.8546 -0.1732 0)
(0.03972 -0.01397 0)
(1.068 -0.09527 -2.245e-22)
(0.906 -0.1927 -8.278e-22)
(1.06 -0.1251 0)
(0.6788 -0.1152 7.057e-22)
(1 -1.094e-06 0)
(1.008 0.000901 1.257e-20)
(1.003 -0.1353 -1.435e-21)
(0.1884 -0.0137 8.02e-23)
(0.4918 -0.1548 6.53e-22)
(0.9138 -0.02576 7.791e-21)
(0.1136 -0.02347 -2.315e-21)
(0.2401 -0.08257 4.552e-22)
(0.993 0.008871 -5.777e-21)
(0.6922 0.09635 0)
(0.8895 -0.1191 6.6e-23)
(1.054 -0.1042 0)
(-0.002774 -0.01322 0)
(1.001 -0.2816 -7.873e-22)
(0.3658 -0.1227 1.555e-22)
(0.004653 -0.001546 0)
(0.7284 -0.1578 -5.429e-24)
(0.1203 -0.0425 1.25e-21)
(0.5885 -0.173 8.503e-22)
(0.9055 -0.1131 0)
(0.4486 -0.05088 3.252e-21)