/*--------------------------------*- C++ -*----------------------------------*\
  =========                 |
  \\      /  F ield         | OpenFOAM: The Open Source CFD Toolbox
   \\    /   O peration     | Website:  https://openfoam.org
    \\  /    A nd           | Version:  8
     \\/     M anipulation  |
\*---------------------------------------------------------------------------*/
FoamFile
{
    version     2.0;
    format      ascii;
    class       volScalarField;
    location    "20";
    object      k;
}
// * * * * * * * * * * * * * * * * * * * * * * * * * * * * * * * * * * * * * //

dimensions      [0 2 -2 0 0 0 0];

internalField   nonuniform List<scalar> 
127143
(
2.268e-05
7.991e-06
4.779e-06
9.56e-06
0.0006487
9.793e-06
0.002264
0.001249
0.0008754
0.001389
0.002338
0.001225
7.361e-06
1.15e-05
0.3108
0.003678
2.479e-05
0.1884
0.1565
0.00876
0.144
0.00169
0.2985
0.08944
0.001642
0.05188
0.04987
0.04591
0.07311
0.1974
0.07454
0.05046
0.0666
0.04523
0.3383
0.06522
0.07823
0.2368
0.09739
0.03822
0.1566
0.4364
0.4318
2.421e-05
0.1861
0.04662
0.0743
0.1031
0.1159
0.09251
0.005026
0.3132
0.2046
0.3177
0.1727
0.1154
0.169
0.2027
0.2638
0.319
0.4304
0.1489
0.1169
0.8126
0.1153
0.3043
0.3275
0.114
0.1148
0.05998
0.08331
0.06025
0.1343
0.2656
0.4172
0.05578
0.3208
0.09229
0.1167
0.9638
0.07014
0.009502
0.07173
0.04768
0.1067
0.09614
0.1062
0.05963
0.3073
0.3538
0.279
0.2606
0.3915
0.1448
0.1271
0.196
0.4332
0.06476
0.1136
0.3278
0.9697
0.1188
0.299
0.1759
0.09768
0.1121
0.1408
0.06029
0.3315
0.3153
0.3209
0.06165
0.1369
0.549
0.3633
0.2102
0.3239
0.4172
0.321
0.000578
0.3087
0.06986
0.2269
0.2294
0.07369
0.03355
0.1405
0.3012
0.19
0.1204
0.09321
0.1134
0.1329
0.09308
0.0001542
0.09446
0.2787
0.1602
0.1083
0.2934
0.3023
0.3276
0.2054
0.1936
0.206
0.3835
0.1329
0.8583
0.1118
0.2542
0.1619
0.1281
0.2463
0.3484
0.3434
0.1077
0.2024
0.1292
0.1039
0.06117
0.08306
0.004786
0.2772
0.09309
0.08207
0.123
0.07428
0.3636
0.206
0.3257
0.0292
0.193
0.2078
0.2174
0.1225
0.06961
0.4115
0.1899
0.09677
0.2449
0.218
0.2581
0.07049
0.06998
0.1232
0.1506
0.3728
0.551
0.09256
0.2723
0.1819
0.1583
0.2797
0.525
0.0001204
0.1528
0.8329
0.8329
0.002933
0.3417
0.3269
0.3247
0.2123
0.08031
2.518e-05
0.105
0.2988
0.1792
0.2021
0.3649
0.2639
0.09602
0.3119
0.2091
0.08325
0.002669
0.01605
0.1853
0.1174
0.2982
0.4178
0.4364
0.1262
0.2131
0.05649
0.02804
0.09665
0.2392
0.04417
0.125
0.1429
0.2607
0.1369
0.001379
0.1433
0.2552
0.09324
9.465e-05
0.326
0.1885
0.1606
0.1407
0.08403
0.1313
0.2451
0.0006152
0.1418
0.04811
0.0004194
0.08159
0.3954
0.05051
0.1946
0.1695
0.13
0.323
0.3007
0.2441
0.2257
0.3633
0.1595
0.2862
0.2629
0.3279
0.2342
0.1331
0.06385
0.3211
0.4003
0.2857
0.08086
0.1211
0.1096
0.1869
0.126
0.184
0.1376
0.1203
0.1459
0.2476
0.1085
0.1909
0.1777
0.3799
0.3609
0.0001363
0.0981
0.3599
0.1128
0.242
0.2484
0.277
0.2566
0.2103
0.2923
0.3173
0.07779
0.05146
0.0841
0.2879
0.07122
0.2885
0.342
0.2129
0.05359
0.3175
0.1805
0.3119
0.1935
0.1472
0.1355
0.03054
0.1069
0.1109
0.355
0.3445
0.2286
0.06858
0.2825
0.1879
0.3003
0.07927
0.3022
0.1938
0.3409
0.2304
0.3279
0.07799
0.07987
0.4372
0.1319
0.3609
0.3371
0.7798
0.7797
0.3483
0.3274
0.2093
0.1315
0.09771
0.2932
0.1848
0.2115
0.187
0.4894
0.1115
0.08813
0.1399
0.0769
0.1906
0.07868
0.1739
0.06935
0.1852
0.3283
0.08947
0.1683
0.3809
0.219
0.0796
0.116
0.1196
0.2183
0.09184
0.09387
0.5164
0.3427
0.1738
0.08448
0.1466
0.4523
0.3015
0.06004
0.09077
0.2738
0.2991
0.08332
0.002434
0.1142
0.1497
0.2224
0.04076
0.08353
0.2879
0.3242
0.01268
0.3362
0.04101
0.1509
0.2227
0.2719
0.3607
0.03711
0.1323
0.09188
0.07437
0.359
0.07763
0.3283
0.2872
0.04605
0.4421
0.1544
0.07182
0.336
0.1589
0.1008
0.1336
0.9862
0.09966
0.2788
0.08241
0.3025
0.1091
0.2322
0.1289
0.1165
0.07375
0.2574
0.1901
0.07565
0.01076
0.07932
0.08283
0.1237
0.3674
0.4276
0.3231
0.1469
0.3043
0.5506
0.07886
0.06688
0.2495
0.2751
0.5138
0.1675
0.09584
0.3129
0.2938
0.3806
0.09517
0.2772
0.3206
0.3241
0.06714
0.3426
0.2792
0.1742
0.09618
0.1318
0.08872
0.1626
0.0838
0.3424
0.08159
0.07048
0.1599
0.08704
0.2661
0.1353
0.2138
0.2011
0.5449
0.2106
0.119
0.3282
0.174
0.07585
0.399
0.1221
0.2692
0.2298
0.2305
0.2983
0.1611
0.3739
0.2715
0.04203
0.2267
0.08165
0.29
0.1265
0.108
0.2926
0.2767
0.2339
0.3135
0.06676
0.3253
0.3689
0.1089
0.1999
0.3781
9.359e-05
0.08744
0.5249
0.2359
0.5011
0.3282
0.07983
0.3276
0.07785
0.1553
3.847e-05
0.001207
0.0003763
0.6802
0.09043
0.2591
0.357
0.1241
0.2177
0.08439
0.1865
0.1304
0.08774
0.1226
0.03242
0.1199
0.09146
0.0008954
0.1821
0.07072
0.03175
0.2672
0.1638
0.216
0.2037
0.2264
0.06114
0.1937
0.03819
0.4664
0.1732
0.2609
0.02199
0.2924
0.1882
0.2
0.3229
0.05577
0.2655
0.4255
0.2873
0.2594
0.08082
0.093
0.07304
0.04405
0.1525
0.28
0.197
0.08315
0.08074
0.2915
0.04493
0.1026
0.07894
0.1346
0.08929
0.7619
0.6738
0.3603
0.08644
0.5073
0.3501
0.07999
0.2779
0.1675
0.09939
0.2915
0.03443
0.01602
0.2307
0.3225
0.4533
0.03899
0.1198
0.1782
0.1384
0.05909
0.1385
0.0926
0.1483
0.0611
0.3491
0.1028
0.07784
0.2163
0.07406
0.05886
0.1599
0.02016
0.1647
0.1432
0.01645
0.3757
0.1599
0.3539
0.1013
0.2289
0.3811
0.07487
0.09624
0.03559
0.1521
0.2126
0.08079
0.08519
0.4304
0.09999
0.401
0.09024
0.06738
0.2184
0.06107
0.1405
0.1045
0.3664
0.4948
0.3084
0.2072
0.5021
0.3604
0.1976
0.1922
0.133
0.1344
0.2151
0.04618
0.1203
0.07959
0.06941
0.122
0.3219
0.131
0.2761
0.1881
0.07214
0.1162
0.1342
0.1788
0.1901
0.2319
0.272
0.2698
0.07994
0.2331
0.1251
0.2338
0.005905
0.309
0.05909
0.08319
0.1517
0.3242
0.1083
0.2709
0.2131
0.05981
0.2201
0.1921
0.3482
3.111e-05
0.03008
0.08791
0.08144
0.09873
0.1421
0.06732
0.1199
0.316
0.1886
0.04932
0.1559
0.2501
0.1231
0.3209
0.4262
0.4737
0.2421
0.00665
0.2346
0.1087
0.1543
0.2687
0.1934
0.327
0.06153
0.386
0.1365
0.3139
0.2022
0.4001
0.3663
0.08974
0.4231
0.1205
0.1252
0.1768
0.2657
0.2204
0.05899
0.06851
0.2972
0.1232
0.0001799
0.1596
0.2378
0.116
0.07106
0.1292
0.09478
0.007355
0.1811
0.1922
0.1882
0.2729
0.1157
0.2237
0.1499
0.1368
0.124
0.149
0.1418
0.2606
3.266e-05
0.321
0.3255
0.1612
0.2371
0.111
0.3044
0.06156
0.1755
0.1001
0.05696
0.005641
0.08182
0.0596
0.06255
0.1163
0.06921
0.1102
0.1639
0.06467
0.11
0.03305
0.06699
0.1689
0.3389
0.2123
0.4245
0.3018
0.1816
0.2432
0.1449
0.08786
0.2908
0.1582
0.04553
0.06741
0.2813
0.1095
0.1388
0.04295
0.08608
0.3136
0.1252
0.04626
0.337
0.08592
0.06004
0.2248
0.001821
0.226
0.03936
0.1534
0.08583
0.2293
0.6903
1.943e-05
0.09729
0.1546
0.02865
0.09354
0.06016
0.07611
0.08664
0.4706
0.176
0.1777
0.0571
0.07365
0.3699
0.1381
0.2238
0.366
0.133
0.06786
0.3149
0.3048
0.2708
0.1459
0.1221
0.05935
0.1027
0.006136
0.1739
0.3813
0.2518
0.101
0.07655
0.07666
0.0587
0.3653
0.1025
0.2679
0.1934
0.05761
0.2601
0.2659
0.1554
0.1365
0.04875
0.1475
0.08468
0.1333
0.4138
0.07774
0.6265
0.2524
0.1818
0.1375
0.2496
0.03058
0.2824
0.07009
0.3488
0.06299
0.04207
0.06793
0.2766
0.3151
0.2405
0.3216
0.004554
0.3946
0.2412
0.1386
0.2429
0.0487
0.01732
0.1027
0.2503
0.03858
0.05863
0.01629
0.2734
0.005009
0.2398
0.007933
0.1088
0.03205
0.1778
0.01586
0.3227
0.1307
0.07604
0.07533
0.1944
0.3124
0.1679
0.149
0.5465
0.1904
0.2781
0.3289
0.1585
0.2708
0.1993
0.0829
0.2787
0.0751
0.001286
0.08121
0.1914
0.3147
0.2028
0.05316
0.3466
0.2017
0.1246
0.2196
0.07723
0.1015
0.1556
0.3516
0.1821
0.2122
0.003844
0.2694
0.001288
0.1272
0.264
0.1647
0.01302
0.1556
0.08478
0.116
0.3897
0.08463
0.3048
0.001266
0.224
0.1948
0.1483
0.2007
0.008283
0.001725
0.09192
0.3231
0.4304
0.1884
0.3117
0.07535
0.07978
0.5507
0.1061
0.1143
0.3228
0.1046
0.2926
0.07615
0.3261
0.1035
0.0291
0.1847
0.08468
0.1188
0.3947
0.3256
0.03396
0.3043
0.06016
0.1023
0.04838
0.1103
0.2417
0.2265
0.1614
0.005829
0.2029
0.07142
0.05895
0.1627
0.1181
0.5295
0.06205
0.02208
0.00236
0.1171
0.3066
0.2545
0.1153
0.08735
0.227
1.108
0.2821
0.1308
0.1921
0.05367
0.2385
0.06495
0.471
0.9888
0.258
0.1854
0.06353
0.05415
0.06723
0.3664
0.2401
0.09006
0.09047
0.1343
0.1327
0.2619
0.1131
0.07421
0.1047
0.2419
0.009995
0.01141
0.1401
0.1567
0.3111
0.348
0.005401
0.007099
0.108
1.015
0.194
0.137
0.001082
0.04773
0.1325
0.1647
0.05431
0.2504
0.2215
0.2795
0.0516
0.1079
0.06266
0.2205
0.01939
0.08923
0.1306
0.006347
0.0635
0.4331
0.1287
0.103
0.3286
0.1582
0.2928
0.01626
0.3283
0.07796
0.4189
0.3661
0.2929
0.1976
0.1697
0.1034
0.09918
0.05668
0.1371
0.1626
0.2598
0.1876
0.1316
0.05881
0.06012
0.02661
0.05271
0.002706
0.1491
0.1374
0.1769
0.08714
0.04625
0.4188
0.1836
0.2027
0.09868
0.05636
0.07279
0.05524
0.2433
0.1443
0.1166
0.1775
0.1809
0.2019
0.06807
0.1743
0.1171
0.05467
0.1144
0.0416
0.1268
0.1365
0.1021
0.2875
0.1078
0.1179
1.215
0.2297
0.04913
0.2816
0.4174
0.2117
0.08194
0.2618
0.8015
0.09938
0.07853
0.2878
0.3967
0.318
0.1297
0.08458
0.188
0.2814
0.03047
0.00292
0.1067
0.1119
0.1287
0.01578
0.05978
0.1058
0.388
0.102
0.3153
0.1263
0.1763
0.02914
0.04326
0.5467
0.0004213
0.04192
0.05278
0.1234
0.254
0.1642
0.1848
0.05024
0.1374
0.3337
0.0005401
0.08094
0.08703
0.09151
0.1182
0.2806
0.07725
0.02104
0.1425
0.07958
0.2491
0.08813
0.08913
0.2201
0.00152
0.2437
0.1509
0.2622
0.09186
0.8023
0.3694
0.2303
0.01332
0.1033
0.2045
0.006172
0.04069
0.4071
0.1339
0.1277
0.2461
0.002301
0.256
0.0727
5.89e-05
0.2
0.01489
0.1278
0.1294
0.06665
0.1043
0.0608
0.2856
0.1198
0.2456
0.22
0.2855
0.0831
0.2145
0.1091
0.1218
0.008608
0.1038
0.2422
0.1064
0.4454
0.3228
0.1781
0.001551
0.3308
0.08356
0.0376
0.06999
0.08643
0.4158
0.1337
0.1772
0.3144
0.0262
0.09863
0.05456
0.3217
0.1086
0.0297
0.1383
0.0074
0.2348
0.1803
0.04534
0.3076
0.04133
0.07716
0.1066
0.1222
0.2177
0.1526
0.2738
0.007278
0.009497
0.08579
0.2419
0.2215
0.116
0.4828
0.04593
0.09153
0.1521
0.2986
0.05005
0.05005
0.4972
0.1128
0.1898
0.193
0.1018
0.005355
0.2672
0.06551
0.06605
0.06756
0.5413
0.07541
0.1343
0.1804
0.005394
0.2615
0.1656
0.08105
0.1208
0.1588
0.00915
0.2228
0.1179
0.1194
0.1688
0.165
0.1166
0.007278
0.299
0.03287
0.2211
0.08831
0.341
0.5936
0.372
0.1653
0.0806
0.09937
0.2668
0.2859
0.001841
0.3475
0.09267
0.05639
0.1164
0.1416
0.2399
0.1738
0.03922
0.07744
0.08573
0.1282
0.3628
0.1686
0.01374
0.2467
0.2604
0.09159
0.3731
0.2316
0.1792
0.06208
0.4499
0.1385
0.08846
0.2275
0.196
0.06571
0.2155
0.1258
0.1083
0.2515
0.123
0.01597
0.06787
0.217
0.2177
0.1387
0.09876
0.1455
0.006583
0.09977
0.07647
0.2202
0.1497
0.1105
0.758
0.06751
0.3274
0.1357
0.6037
0.1102
0.3015
0.2332
0.0693
1.099
0.31
0.04467
0.2811
0.05227
0.2954
1.178
0.2887
0.1204
0.3328
0.0002414
0.02919
0.001415
0.1173
0.137
0.09695
0.1303
0.07404
0.261
0.03593
0.08462
0.03782
0.1195
0.1695
0.2214
0.1608
0.3309
0.006406
0.1122
0.08999
0.4003
0.005557
0.1906
0.09825
0.06297
0.2891
0.2762
0.2341
0.2267
0.1849
0.1413
0.1339
0.2421
0.3906
0.1919
0.1868
0.09858
0.3209
0.1889
0.1255
0.1635
0.1073
0.06151
0.1545
0.09702
0.1168
0.3085
0.05713
0.05515
0.02068
0.2093
0.28
0.1775
0.1776
0.114
0.06801
0.1029
0.2125
0.4834
0.09282
0.2213
0.004125
0.1232
0.2252
0.0982
0.04364
0.2732
0.1973
0.4022
0.07852
0.004198
0.3277
0.001509
0.06857
0.295
0.1774
0.03462
0.1548
0.3736
0.165
0.04058
0.144
0.2123
0.1192
0.1695
0.3078
0.2436
0.05235
0.0703
0.07163
0.07066
0.0854
0.3716
0.01865
0.3868
0.06635
0.06254
0.006079
0.175
0.05735
0.3157
0.3299
0.2941
0.1052
0.1511
0.009835
0.3824
0.1583
0.2883
0.2857
0.3009
0.07137
0.06882
0.1344
0.2815
0.4875
0.1236
0.01742
0.2453
0.1236
0.04972
0.1275
0.01647
0.03075
0.1025
0.3918
0.3754
0.2861
0.2167
0.01327
0.05095
1.179
0.2723
0.01425
0.1786
0.04493
0.4387
0.1855
0.2454
0.153
0.521
0.1651
0.1039
0.07593
0.08499
0.3381
0.1692
0.3105
0.3638
0.7493
0.1914
0.01273
0.2129
0.1337
0.3051
0.005014
0.2403
0.3215
0.05575
0.2759
0.07493
0.07443
0.3037
0.1995
0.3258
0.1835
0.8569
0.4449
0.2014
0.07704
0.5551
0.09968
0.09048
0.2135
0.2267
0.05012
0.05603
0.006218
0.06819
0.1739
0.2877
0.2818
0.1561
0.2163
0.2824
0.007053
0.06942
0.3027
0.3085
0.2066
0.1359
0.2184
0.4201
0.04895
0.4265
0.2276
0.07292
0.2186
0.1752
0.1912
0.2617
0.156
0.1858
0.08911
0.5025
0.1402
0.1154
0.2042
0.155
0.1224
0.2527
0.2587
0.07023
0.1793
0.2427
0.07377
0.07676
0.1468
0.169
0.1595
0.2691
0.3197
0.2276
0.3067
0.107
0.1242
0.3845
0.1257
0.3241
0.1606
0.02145
0.2113
0.2692
0.07344
0.006778
0.07922
0.0127
0.2046
0.2931
0.01336
0.1349
0.257
0.09167
0.3026
0.2193
1.012
0.1625
0.03369
0.1454
0.3098
0.1594
0.1329
0.4837
0.1348
0.3903
0.2906
0.1648
0.3134
0.1136
0.05499
0.3214
0.3237
0.06549
0.0605
0.2256
0.2352
0.2396
0.2954
0.2154
0.09252
0.1181
0.2858
0.1598
0.1295
0.3292
0.2134
0.00365
1.078
0.05757
0.02389
0.191
0.1952
0.1335
0.106
0.003647
0.05705
0.07827
0.0613
0.2916
0.09224
0.3138
0.09152
0.03856
0.1217
0.3155
0.1715
0.001983
0.005847
0.06076
0.05963
0.1106
0.1871
0.105
0.156
0.08583
0.05133
0.04873
0.04659
0.2159
0.006268
0.1135
0.1907
0.3423
0.4048
0.1814
0.1051
0.3749
0.3216
0.1447
0.06015
0.1788
1.06
0.135
0.06822
0.2497
0.1299
0.1308
0.006377
0.1279
0.3231
0.09792
0.009623
0.1509
0.1327
0.003183
0.2666
0.1272
0.3011
0.1122
0.07658
0.09998
0.1209
0.06641
0.1172
0.105
0.05912
0.1273
0.3538
0.1226
0.2967
0.1113
0.2927
0.08139
0.205
0.104
0.0574
0.1788
0.09303
0.01257
0.08118
0.432
0.2577
0.1289
0.3153
0.166
0.14
0.09757
0.1111
0.08077
0.1564
0.001726
0.07449
0.07705
0.2576
0.27
0.3198
0.3351
0.3247
0.2044
0.242
0.2747
0.1268
0.109
0.0966
0.05765
0.1934
0.159
0.2212
0.3792
0.002785
0.00434
0.2662
0.1423
0.002113
0.1404
0.02043
0.1899
0.1639
0.1371
0.001011
0.1523
0.1501
0.05626
0.275
0.06141
0.0719
0.3566
0.5497
0.1345
0.07027
0.101
0.1406
0.01294
0.4407
0.2856
0.06371
0.1261
0.06584
0.04583
0.2785
0.1905
0.2061
0.1013
0.2105
0.1527
0.4785
0.03505
0.1412
0.07287
0.2143
0.1127
0.03472
0.2216
0.06275
0.2284
0.05092
0.1061
0.02058
0.37
0.1279
0.08785
0.1042
0.08682
0.06367
0.2619
0.04998
0.3016
0.05886
0.1905
0.08367
0.1545
0.1204
0.1956
0.3027
0.05638
0.0643
0.06719
0.08189
0.07151
0.1165
0.1836
0.2643
0.003201
0.2329
0.3216
0.0377
0.4677
0.0999
0.3323
0.2027
0.1491
0.7116
0.2274
0.09331
0.02481
0.3912
0.3071
0.121
0.1468
0.2165
0.2077
0.2271
0.07405
0.103
0.07648
0.225
0.3082
0.2495
0.238
0.1164
0.009621
0.1533
0.2437
0.08098
0.1521
0.007181
0.3562
0.191
0.3036
0.164
0.005229
0.4099
0.1833
0.04135
0.01846
0.05775
0.09971
0.1606
0.1604
0.08701
0.1339
0.07106
0.3514
0.3347
0.2222
0.1902
0.9738
0.06363
0.1486
0.1377
0.07701
0.03897
0.237
0.2523
0.8503
0.1652
0.1692
0.09224
0.1444
0.1107
0.1091
0.03968
0.1792
0.1071
0.103
0.1095
0.2876
0.3317
0.01421
0.07256
0.07236
0.05726
0.06171
0.0241
0.3317
0.1761
0.1459
0.1294
0.3617
0.3015
0.8237
0.1261
0.01851
0.4449
0.271
0.1802
0.3052
0.09407
0.3272
0.07295
0.1605
0.1777
0.1324
0.08704
0.222
0.101
0.1587
0.1531
0.08893
0.1542
0.1302
0.1289
0.151
0.1163
0.05544
0.2278
0.06356
0.0418
0.04503
0.5484
0.3285
0.1847
0.01592
0.2198
0.1558
0.3102
0.1052
0.7872
0.1179
0.1505
0.01344
0.07397
0.3242
0.03831
0.006676
0.05568
0.1558
0.1362
0.06359
0.1134
0.1197
0.08569
0.1295
0.005452
0.08481
0.09208
0.2053
0.2585
0.367
0.1943
0.2702
0.1848
0.02843
0.1153
0.2977
0.09311
0.8524
0.2245
0.2199
0.1059
0.1593
0.2202
0.2305
0.1421
0.3321
0.2006
0.1474
0.004708
0.03373
0.1118
0.243
0.08425
0.1212
0.01598
0.2586
0.1348
0.1638
0.1697
0.3427
0.124
0.1824
0.3075
0.2951
0.2113
0.06261
0.07101
0.172
0.4062
0.2947
0.5007
0.008602
0.1845
0.2979
0.001954
0.05596
0.2591
0.3511
0.574
0.383
0.3094
0.03831
0.19
0.2569
0.1885
0.07507
0.06844
0.07958
0.2471
0.08614
0.1017
0.0004756
0.1265
0.08792
0.1881
0.0009037
0.1529
0.01127
0.0226
0.05656
0.04712
0.07226
0.1859
0.1455
0.01461
0.4043
0.03654
0.1204
0.1244
0.3241
0.1669
0.677
0.2515
0.1445
0.04159
0.2983
0.2189
0.01415
0.1294
0.2803
0.1082
0.1066
0.2089
0.1346
0.1261
0.4483
0.08887
0.1283
0.01528
0.05878
0.09476
0.03596
0.08884
0.05993
0.3554
0.0007563
0.128
0.1299
0.3287
0.2198
0.2431
0.1008
0.1048
0.189
0.01365
0.06939
0.3416
0.2484
0.1541
0.2488
0.248
0.01462
0.153
0.3148
0.2063
0.1401
0.304
0.101
0.139
0.2182
0.1231
0.2382
0.1563
0.007088
0.09865
0.1032
1.155
1.155
0.09808
0.2419
0.251
0.1861
0.1086
0.3474
0.05959
0.09296
0.185
0.2904
0.2787
0.1973
0.2672
0.09656
0.005098
0.1197
0.1727
0.07486
0.003119
0.2935
0.1029
0.08738
0.1006
0.215
0.03528
0.2351
0.07907
0.299
0.1941
0.238
0.1186
0.2415
0.0822
0.1835
0.1742
0.1755
0.05406
0.1394
0.1189
0.1186
0.1134
0.08329
0.0205
0.0972
0.0175
0.05241
0.134
0.1013
0.1844
0.1038
0.2528
0.1254
0.006384
0.1511
0.03532
0.4281
0.2466
0.3623
0.0008876
0.09284
0.1263
0.1614
0.3237
0.02126
0.4138
0.07723
0.1026
0.1498
0.1502
0.07771
0.1563
0.06309
0.01216
0.3222
0.04966
0.1414
0.323
0.1215
0.0597
0.1107
0.241
0.2701
0.3145
0.2996
0.03843
0.04677
0.2019
0.1454
0.1628
0.1937
0.195
0.09882
0.1948
0.1292
0.08472
0.08822
0.2363
0.004432
0.4418
0.3653
0.0653
0.3464
0.2427
0.2835
0.08043
0.1467
0.1229
0.05794
0.09951
0.1196
0.4651
0.2501
0.04859
0.123
0.1117
0.09977
0.2796
0.123
0.06095
0.7948
0.06249
0.05221
0.002046
0.07195
0.1899
0.1918
0.2847
0.3147
0.1903
0.3664
0.1114
0.3827
0.07881
0.0004288
0.3688
0.1114
0.07986
0.1084
0.4112
0.07607
0.06476
0.003552
0.007293
0.2066
0.2488
0.008251
0.2709
0.08004
0.3172
0.1444
0.1571
0.1719
0.07658
0.007253
0.2788
0.05807
0.232
1.097
0.243
0.07955
0.0645
0.1894
0.01258
0.1547
0.1977
0.1301
0.1845
0.05163
0.08521
0.3714
0.2123
0.1949
0.1262
0.05651
0.2349
0.08001
0.384
0.001827
0.006679
0.0005172
0.07889
0.2854
0.1652
0.3216
0.07032
0.1428
0.3743
0.01447
0.9604
0.06636
0.01972
0.0491
0.0767
0.4418
0.04899
0.2485
0.2558
0.00697
0.2652
0.05106
0.1341
0.06451
0.02299
0.012
0.0008892
0.1541
0.1209
0.3625
0.1622
0.3546
0.1309
0.05953
0.2082
0.08737
0.135
0.05401
0.1241
0.08073
0.1466
0.03781
0.1311
0.1583
0.01839
0.2151
0.04646
0.3371
0.1536
0.06109
0.2601
0.2889
0.1544
0.0916
0.1254
0.001862
0.04909
0.3102
0.1732
0.1217
0.1212
0.09173
0.1638
0.1389
0.3075
0.08213
0.1389
0.06234
0.136
0.2919
0.09694
0.07637
0.01846
0.001764
0.004903
0.3296
0.07605
0.07469
0.1453
0.1923
0.1658
0.01095
0.115
0.1133
0.1172
0.01511
0.09902
0.2327
0.01906
0.08502
0.1162
0.1772
0.05671
0.1487
0.2649
0.3363
0.1629
0.4931
0.097
0.3262
0.1314
0.001058
0.004846
0.1254
0.0005763
0.1243
0.2801
0.3271
0.2881
0.2168
0.9459
0.2375
0.002304
0.05413
0.02123
0.234
0.2208
0.1872
0.1028
0.1273
0.1159
0.1019
0.1124
0.1255
0.08378
0.0651
0.1114
0.6327
0.2777
0.05373
0.4466
0.1688
0.09134
0.1205
0.1991
0.04657
0.06904
0.2438
0.332
0.1049
0.01288
0.1677
0.1461
0.2947
0.1709
0.2784
0.2023
0.07466
0.2255
0.005365
0.09006
0.08093
0.1786
0.1961
0.2959
0.1205
0.1172
0.05891
0.4853
0.1947
0.4535
0.06863
0.04604
0.3748
0.0813
0.1747
0.06481
0.08836
0.1963
0.008432
0.1546
0.02792
0.3222
0.2563
0.1908
0.2256
0.1207
0.1319
0.2678
0.3509
0.2657
0.3212
0.2115
0.1409
1.048
0.3093
0.2896
0.4159
0.02351
0.06062
0.3399
0.1082
0.287
0.1157
0.6748
0.1085
0.3274
0.05494
0.1108
0.007879
0.2507
0.05268
0.05865
0.2398
0.003103
0.3131
0.1114
0.1512
0.161
0.06679
0.1376
0.4171
0.0974
0.04932
0.2237
0.07636
0.19
0.161
0.1001
0.1689
0.2656
0.2811
0.1438
0.1597
0.1084
0.396
0.722
0.1778
0.07677
0.1224
0.1474
0.1643
0.2255
0.2924
0.1318
0.04218
0.1216
0.05519
0.2604
0.08627
0.3297
0.006329
0.1268
0.05655
0.06444
0.2996
0.2061
0.349
0.3161
0.2336
0.06586
0.08186
0.09052
0.5429
0.316
0.1166
0.00158
0.5222
0.103
0.01025
0.1178
0.2215
0.1422
0.3181
0.1514
0.4245
0.07919
0.002399
0.05805
0.335
0.1026
0.2227
0.09379
0.363
0.1981
0.07032
0.09044
0.05645
0.04252
0.09009
0.206
0.06004
0.002361
0.1761
0.1883
0.1065
0.245
0.219
0.08661
0.01503
0.3399
0.1605
0.1079
0.5332
0.04041
0.1255
0.3098
0.2707
0.2213
0.09138
0.06604
0.2235
0.2942
0.3437
0.1987
0.05627
1.077
0.2782
0.3213
0.1413
0.1326
0.1316
0.08154
0.06176
0.208
0.226
0.2396
0.00258
0.3502
0.319
0.08543
0.297
0.2508
0.2853
0.1174
0.008026
0.1596
0.003876
0.7843
0.7937
0.1054
0.3263
0.3243
0.007858
0.1009
0.1655
0.0257
0.28
0.1174
0.07377
0.00737
0.2564
0.1667
1.047
0.3479
0.08438
0.0887
0.1109
0.2189
0.1381
0.03941
0.1918
0.1203
0.02088
0.2391
0.06045
0.2312
0.07663
0.1486
1.066
0.03935
0.08099
0.2512
0.2899
0.06347
0.004512
0.102
0.2727
0.1454
0.02645
0.1216
0.2428
0.9802
0.01749
0.08698
0.1073
0.6909
0.3103
0.07135
0.1651
0.03597
0.1243
0.364
0.7732
0.1365
0.07425
0.07196
0.007039
0.2232
0.06184
0.1448
0.01523
0.006729
0.03643
0.3153
0.2138
0.1666
0.2622
0.3256
0.1216
0.3351
0.176
1.02
0.2756
0.2916
0.3252
0.2097
0.08769
0.3589
0.3472
0.1712
0.03421
0.3048
0.5016
0.3157
0.2425
0.2506
0.2108
0.08258
0.006391
0.01693
0.1676
0.002458
0.06638
0.2833
0.00886
0.1614
0.02575
0.1382
0.2842
0.3081
0.01408
0.09901
0.1001
0.05587
0.2718
0.1179
0.1758
0.1129
0.3194
0.2184
0.05646
0.3106
0.1568
0.06858
0.1292
0.1926
0.2944
0.3768
0.1023
0.004641
0.04768
0.2182
0.1573
0.1287
1.077
0.3785
0.4331
0.03457
0.1282
0.1608
0.1386
0.2246
1.221
0.2538
0.1723
0.02513
0.3233
0.3619
0.01569
0.1685
0.3221
0.04773
0.09242
0.2871
0.3626
0.2009
0.108
0.005929
0.08666
0.152
0.1735
0.03814
0.4017
0.3494
0.291
0.1856
0.1224
0.1081
0.68
0.001196
0.1007
0.1307
0.056
0.1035
0.1692
0.4079
0.2625
0.05689
0.08568
0.3343
0.1353
0.1014
0.1781
0.3321
0.3129
0.1422
0.3371
0.1465
0.1398
0.2826
0.1889
0.6606
0.04232
0.116
0.09005
0.2018
0.1647
0.0207
0.1019
0.001113
0.194
0.317
0.1954
0.2071
0.1732
0.1419
0.04391
0.1374
0.07007
0.1093
0.1446
0.2142
0.3006
0.1557
0.07807
0.03568
0.1878
0.312
0.07682
0.2452
0.06174
0.1503
0.1563
0.08518
0.1007
0.4966
0.05699
0.2088
0.3728
0.258
0.07632
0.1788
0.0002532
0.1052
0.04126
0.3354
0.2174
0.1044
0.06431
0.1768
0.1945
0.0253
0.05493
0.02798
0.4704
0.1702
0.8603
0.165
0.1105
0.3013
0.2028
0.07625
0.0001882
0.1838
0.4016
0.171
0.1765
0.08139
0.1896
0.224
0.08568
0.2119
0.1111
0.3342
0.3704
0.05202
0.3412
0.09986
0.3207
0.1831
0.3309
0.2228
0.1015
0.0946
0.183
0.2375
0.2765
0.3107
0.05383
0.1495
0.2632
0.2595
0.2357
0.11
0.3578
0.1584
0.1694
0.08565
0.1749
0.1122
0.1792
0.2291
0.3936
0.3247
0.002968
0.1285
0.04049
0.2703
0.08006
0.1076
0.02962
0.03537
0.01199
0.249
0.2056
0.1456
0.1457
0.08019
0.04168
0.2204
0.07025
0.1636
0.3304
0.001966
0.3267
0.1092
0.0861
0.1517
0.1107
0.3337
0.142
0.1321
0.1334
0.4673
0.2279
0.1687
0.1316
0.002957
0.09669
0.004114
0.02434
0.3729
0.003764
0.4274
0.0936
0.05408
0.2148
0.2334
0.05809
0.1263
0.1858
0.334
0.1732
0.1176
0.0684
0.08658
0.08781
0.3211
0.1767
0.2356
0.002812
0.1503
0.291
0.1191
0.07886
0.1613
0.08445
0.1121
0.03799
0.147
0.01086
0.1033
0.08964
0.2915
0.07048
0.309
0.1505
0.1251
0.2428
0.2106
0.1176
0.1606
0.06213
0.0587
0.1417
0.1201
0.09072
0.01122
0.1669
0.001335
0.3411
0.2284
0.06276
0.1659
0.3035
0.3464
0.3576
0.2941
0.3675
0.08656
0.1127
0.0401
0.2221
0.3929
0.08551
0.3362
0.0006732
0.07101
0.002866
0.09621
0.3005
0.07427
0.291
0.249
0.03506
0.4589
0.2171
0.1453
0.04592
0.2223
0.2568
0.2102
0.1158
0.1421
0.317
0.00695
0.1166
0.5459
0.4134
0.1276
0.3109
0.131
0.02505
0.153
0.2291
0.04829
0.2944
0.1427
0.007098
0.2837
0.2333
0.1304
0.09705
0.3362
0.1089
0.2109
0.2981
0.09215
0.07863
0.0001828
0.2349
0.1788
0.01862
0.2384
0.5073
0.09679
0.3783
0.1875
0.2368
0.2016
0.2128
0.08985
0.4179
0.2451
0.05818
0.2298
0.05058
0.1202
0.0714
0.09003
0.2762
0.1356
0.1158
0.09397
0.1393
0.1229
0.003545
0.01259
0.05776
0.128
0.204
0.09808
0.07578
0.2597
0.2454
0.1283
0.07127
0.05541
0.06619
0.12
0.08877
0.3518
0.218
0.3692
0.2742
0.06137
0.1497
0.1476
0.1312
0.0928
0.006569
0.1034
0.07055
0.3512
0.09058
0.09037
0.1621
0.08451
0.1963
0.1528
0.05654
0.09367
0.2669
0.08404
0.07505
0.357
0.2508
0.4793
0.2018
0.002747
0.04297
0.6423
0.1885
0.1957
0.01702
0.03773
0.2142
0.2653
0.08105
0.3009
0.09632
0.1308
0.1299
0.1549
0.2293
0.2347
0.1506
0.1302
0.224
0.09926
0.2193
0.07876
0.1407
0.05376
0.04895
0.1603
0.1563
0.1221
0.1913
0.4052
0.1136
0.4244
0.00532
0.3334
0.06616
0.04989
0.3391
0.4004
0.1265
0.0002536
0.5446
0.2339
0.06162
0.0812
0.1028
0.2061
0.09098
0.0879
0.1213
0.04701
0.1363
0.29
0.3166
0.05621
0.08898
0.1704
0.07618
0.03853
0.02543
0.4081
0.2136
0.07777
0.1538
0.00125
0.1607
0.08728
0.4362
0.1103
0.3473
0.1436
0.304
0.06022
0.5568
0.2345
0.03853
0.7839
0.1375
0.0629
0.2156
0.5566
0.5944
0.1516
0.2558
0.2341
0.3947
0.1492
0.4563
0.0577
0.2824
0.1105
0.1543
0.2102
1.066
0.1194
0.1672
0.2881
0.2014
0.0597
0.1892
0.3235
0.03199
0.1289
0.1604
0.003417
0.008575
0.3247
0.06521
0.1951
0.06812
0.109
0.02087
1.066
0.2522
0.002684
0.2223
0.2798
0.2069
0.0497
0.09321
0.1201
0.1659
0.01973
0.3083
0.08099
0.162
0.3035
0.3298
0.1235
0.05815
0.1119
0.05717
0.1937
0.002252
0.2961
0.1983
0.1712
0.2691
0.3652
0.3296
0.07103
0.147
0.06289
0.1297
0.2408
0.2003
0.2191
0.301
0.09414
0.7865
0.007257
0.09014
0.08735
0.1688
0.2831
0.3149
0.09415
0.1404
0.1275
0.07653
0.14
0.2861
0.3233
0.2113
0.3663
0.3351
0.1225
0.09978
0.01764
0.1157
0.1362
0.2163
0.08146
0.1012
0.1603
0.1461
0.2134
0.2537
0.5251
0.06891
0.0456
0.2235
0.2973
0.1405
0.1442
0.3667
0.2056
0.2623
0.6191
0.418
0.5951
0.5944
0.2503
0.2324
0.09629
0.003168
0.08024
0.1926
0.26
0.4223
0.5856
0.2321
0.1052
0.2793
0.004213
0.1408
0.1511
0.1262
0.2996
0.04547
0.26
0.5591
0.19
0.3826
0.8996
0.6452
0.06832
0.1201
0.2981
0.3255
0.1508
0.2664
0.1927
0.2509
0.0006091
0.2433
0.04125
0.1327
0.325
0.2573
0.1686
0.09246
0.09366
0.09516
0.1244
0.1742
0.8572
0.00868
0.1361
0.2723
0.4954
0.04672
0.05699
0.1014
0.04282
0.2509
0.05608
0.1695
0.2635
0.02302
0.6665
0.01691
0.1993
0.02142
0.83
0.3379
0.355
0.2616
0.205
0.01438
0.1087
0.05044
0.2026
0.08147
0.3209
0.08088
0.02949
0.3632
0.1703
0.3942
0.09924
0.32
0.3344
0.1742
0.1033
0.2833
0.209
0.3209
0.1427
0.2663
0.05459
0.07417
0.2319
0.03882
0.09989
0.1655
0.3633
0.1169
0.1764
0.1137
0.4982
0.3606
0.7282
0.1137
0.129
0.1022
0.3542
0.3457
0.4129
0.1215
0.4055
0.3168
0.2434
0.1777
0.2857
0.2011
0.06364
0.09388
0.2766
0.1549
0.09244
0.2132
0.2926
0.08241
0.2553
0.1388
0.2333
0.09221
0.4657
0.115
0.1457
0.07742
0.2594
0.2293
0.09809
0.005838
0.05068
0.05211
0.1062
0.008583
0.08119
0.3097
0.2692
0.1313
0.2893
0.002404
0.05802
0.1037
0.1559
0.07299
0.1175
0.03382
0.07809
0.1324
0.1856
0.11
0.1393
0.01901
0.1366
0.03204
0.4091
0.1234
0.05079
0.06522
0.1062
0.1011
0.02153
0.133
0.2369
0.108
0.2022
0.1213
0.07261
0.2316
0.119
0.106
0.3025
0.1979
0.2771
0.1134
0.06213
0.1228
0.1564
0.09578
0.0393
0.3151
0.1376
0.2896
0.3232
0.07417
0.07612
0.05704
0.07435
0.1559
0.6242
0.1842
0.483
0.2903
0.3097
0.1961
0.0008488
0.1473
0.1629
0.0859
0.3956
0.05589
0.137
0.2738
0.504
0.05293
0.1386
0.01813
0.21
0.09649
0.03046
0.0823
0.004333
0.1004
0.1021
0.1142
0.08731
0.2841
0.3235
0.08558
0.1727
0.09063
0.09308
0.1886
0.0951
0.2271
0.1174
0.05563
0.06722
0.1044
0.04012
0.07355
0.3096
0.01791
0.1531
0.299
0.1407
0.1711
0.008711
0.0685
0.2599
0.3129
0.1465
0.02056
0.06793
0.07717
0.3062
0.2504
0.4284
0.1548
0.191
0.1341
0.01709
0.2519
0.002774
0.2301
0.3706
0.3305
0.1367
0.0471
0.3332
0.116
0.06565
0.3856
0.1245
0.4974
0.3158
0.1348
0.1058
0.3066
0.1583
0.01001
0.3374
0.1169
0.05706
0.3123
0.1355
0.1203
0.1212
0.04339
0.07822
0.01765
0.1143
0.3278
0.121
0.04061
0.3636
0.02473
0.1836
0.2231
0.1519
0.4834
0.1209
0.2196
0.1103
0.1325
0.5248
0.1319
0.5244
0.2751
0.07537
0.1072
0.155
0.1511
0.2531
0.07895
0.3478
0.5701
0.3138
0.06464
0.08705
0.1587
0.006588
0.2074
0.2116
0.1213
0.1855
0.3857
0.2664
0.03991
0.07757
0.09753
0.1101
0.1598
0.1573
0.1705
0.1191
0.2975
0.2639
0.2324
0.1022
0.1091
0.02588
0.005603
0.102
0.6627
0.07397
0.1127
0.1099
0.005167
0.3168
0.1518
0.1388
0.09109
0.07274
0.1159
0.006312
0.07863
0.5024
0.07354
0.1773
0.1643
0.1435
0.06222
0.3266
0.3823
0.08792
0.1097
0.1744
0.08253
0.0996
0.5405
0.07481
0.03741
0.2078
0.05467
0.3157
0.08579
0.1409
0.3609
0.09969
0.2174
0.1199
0.2008
0.5101
0.08646
0.08959
0.1994
0.428
0.2489
0.04589
0.1291
0.1731
0.06815
0.2745
0.1549
0.0896
0.09594
0.1286
0.1599
0.06071
0.08246
0.5081
0.08008
0.2742
0.1455
0.1247
0.08474
0.1526
0.1232
0.04709
0.004293
0.09167
0.3006
0.09121
0.2156
0.2944
7.278e-05
0.1138
0.04366
0.06298
0.0455
0.1136
0.1269
0.1606
0.2802
0.4132
0.4005
0.1251
0.2141
0.2022
0.3431
0.1089
0.0707
0.1398
0.0008219
0.1319
0.1001
0.0348
0.009447
0.07416
0.1142
0.1275
0.3473
0.3905
0.1144
0.00485
0.06374
0.2842
0.1989
0.1427
0.1841
0.6167
0.3447
0.1306
0.1628
0.2851
0.1647
0.335
0.03682
0.1464
0.07716
0.7011
0.0957
0.139
0.151
0.131
0.07471
0.05492
0.1064
0.3363
0.259
0.02545
0.2026
0.1653
0.1627
0.1439
0.3133
0.06665
0.1031
0.0002623
0.09485
0.04263
0.02976
0.04679
0.1949
0.09556
0.1267
0.08008
0.3484
0.1904
0.0695
0.0795
0.007036
0.05029
0.1126
0.06359
0.2601
0.05589
0.01725
0.0941
0.1267
0.07848
0.05082
0.1521
0.1607
0.02125
0.1163
0.1082
0.08277
0.06195
0.04393
0.06945
0.1059
0.04883
0.1889
0.2897
0.1665
0.006872
0.3272
0.0387
0.1293
0.2262
0.2245
0.1678
0.3046
0.01001
0.06622
0.1019
0.09184
0.3323
0.2439
0.00554
0.1167
0.04278
0.2007
0.1261
0.1749
0.1485
0.1031
0.07236
0.2012
0.1552
0.06718
0.09649
0.1154
0.1972
0.1824
0.06647
0.1009
0.08406
0.1672
0.4842
0.4482
0.3422
0.1404
0.09723
0.4646
0.1764
0.1597
0.2922
0.1029
0.1356
0.4863
0.3601
0.03797
0.1113
0.1315
0.07374
0.2277
0.3825
0.06345
0.3032
0.04128
0.1332
0.3362
0.2881
0.1271
0.1107
0.1697
1.288
0.08941
0.3043
0.06337
0.1735
0.291
0.1489
0.1453
0.06217
0.2216
0.1174
0.1173
0.03924
0.2001
0.2221
0.008367
0.1795
0.1729
0.005279
0.04988
0.1511
0.1202
0.6351
0.02261
0.3039
0.1026
0.1416
0.05589
0.05837
0.05245
0.004252
0.1581
0.2139
0.2378
0.07824
0.07158
0.1236
0.02753
0.01433
0.08155
0.1519
0.1137
0.1892
0.2446
0.3273
0.5143
0.1194
0.009244
0.3297
0.1754
0.1764
0.1303
0.2635
0.07367
0.002228
0.08167
0.09546
0.1617
0.1623
0.3985
0.03974
0.1145
0.3031
0.3179
0.2058
0.06224
0.2228
0.002172
0.06254
0.2938
0.061
0.5139
0.185
0.1333
0.2999
0.1524
0.2181
0.1877
0.2986
0.1142
0.1043
0.1456
0.1108
0.08354
0.1299
0.1229
0.1071
0.1216
0.8069
0.1904
0.09449
0.2407
0.05976
0.03016
0.2128
0.237
0.3373
0.08291
0.09621
0.1878
0.1276
0.1017
0.3134
0.08622
0.2491
0.1418
0.2373
0.2592
0.303
0.104
0.09401
0.06497
0.04613
0.1508
0.09409
0.2159
0.09051
0.1442
0.06245
0.2234
0.03238
0.2685
0.2654
0.2242
0.2615
0.1653
0.4054
0.1485
0.2095
0.08995
0.3067
0.3283
0.1709
0.1585
0.1409
0.3256
0.03738
0.07863
0.348
0.2713
0.00138
0.1665
0.1541
0.07915
0.02235
0.6482
0.008372
0.07812
0.1342
0.07127
0.06174
0.1672
0.1285
0.1221
0.07855
0.06351
0.1924
0.2269
0.1188
0.4592
0.2694
0.1194
0.07773
0.2213
0.001915
0.1634
0.01541
0.02711
0.1328
0.03794
0.002733
0.1516
0.07686