/*--------------------------------*- C++ -*----------------------------------*\
  =========                 |
  \\      /  F ield         | OpenFOAM: The Open Source CFD Toolbox
   \\    /   O peration     | Website:  https://openfoam.org
    \\  /    A nd           | Version:  8
     \\/     M anipulation  |
\*---------------------------------------------------------------------------*/
FoamFile
{
    version     2.0;
    format      ascii;
    class       volVectorField;
    location    "20";
    object      U;
}
// * * * * * * * * * * * * * * * * * * * * * * * * * * * * * * * * * * * * * //

dimensions      [0 1 -1 0 0 0 0];

internalField   nonuniform List<vector> 
127143
(
(0.004773 -0.0001962 0)
(-1.425e-05 -0.00012 -1.796e-24)
(-8.754e-05 -0.0004301 2.622e-24)
(-0.0001115 -0.0005118 8.175e-28)
(0.03185 0.009966 -3.488e-23)
(-9.207e-05 -0.0005362 7.934e-28)
(0.05103 0.03205 0)
(0.03461 0.01576 -2.43e-23)
(0.02829 0.01359 8.022e-23)
(0.04267 0.001447 0)
(0.03027 0.04165 -5.636e-22)
(0.03292 0.02174 -2.625e-24)
(0.00153 -0.0005785 -4.381e-25)
(-0.0001467 -0.0005947 0)
(0.2532 -0.2853 2.251e-21)
(0.08915 -0.007904 0)
(-0.0002865 -0.001429 -4.334e-24)
(0.7056 -0.07305 2.562e-21)
(0.5796 -0.143 0)
(0.1712 0.06189 0)
(0.7409 -0.1753 1.852e-21)
(0.02339 -0.00824 0)
(1.021 -0.1755 0)
(0.7201 -0.06754 0)
(0.02287 -0.008718 -3.862e-23)
(0.4363 -0.06833 0)
(0.3534 -0.005969 5.098e-21)
(0.351 0.00871 -8.109e-23)
(0.3785 -0.1674 0)
(0.7635 -0.05715 -4.097e-21)
(0.6525 -0.03701 0)
(0.4197 -0.06443 1.814e-21)
(0.3825 0.0882 6.176e-22)
(0.3216 -0.08406 -3.938e-21)
(0.8845 -0.09797 1.657e-21)
(0.3767 0.09721 -1.336e-23)
(0.3931 -0.1309 7.616e-22)
(0.9912 -0.1439 -6.593e-22)
(0.7722 -0.0713 1.26e-23)
(0.452 0.003273 5.283e-25)
(0.5791 -0.1417 0)
(1.085 0.3169 -4.843e-23)
(1.065 0.3041 6.745e-24)
(0.003158 -0.001053 0)
(0.7068 -0.06841 -2.634e-21)
(0.3319 -0.07942 1.226e-21)
(0.3877 -0.1772 0)
(0.4783 -0.1517 -1.528e-22)
(0.8018 -0.1395 -2.409e-22)
(0.7486 -0.06183 -1.43e-23)
(0.1062 -0.006957 -2.969e-23)
(0.9493 -0.04388 3.025e-21)
(0.9889 -0.1113 0)
(1.088 -0.03714 -9.026e-22)
(1.001 -0.002578 8.656e-22)
(0.713 -0.1815 6.64e-22)
(1.001 -0.002801 -6.68e-22)
(1.068 -0.096 0)
(1.002 -0.01661 -3.141e-21)
(1.089 -0.0336 -1.721e-21)
(0.6448 -0.1986 -5.179e-21)
(0.6323 -0.1763 -2.46e-22)
(0.9062 -0.06652 1.304e-22)
(1.002 0.001174 -1.986e-21)
(0.6743 -0.06158 0)
(0.9812 -0.2837 -1.207e-21)
(1.053 0.03843 1.902e-21)
(0.8871 -0.069 0)
(0.8912 -0.06907 2.98e-23)
(0.9974 0.0006316 0)
(0.6819 -0.05515 0)
(0.3826 -0.003933 -2.116e-21)
(0.4972 -0.1019 -9.64e-22)
(1.004 -0.01582 -1.682e-21)
(1.008 0.006558 -2.772e-22)
(0.3834 0.00932 2.414e-21)
(1.017 0.0449 -1.13e-21)
(0.4734 -0.1492 0)
(0.7254 -0.1868 -1.279e-21)
(1.001 0.001465 0)
(0.374 -0.1697 3.614e-23)
(0.1873 0.05741 1.112e-23)
(0.461 -0.1092 1.295e-21)
(0.4725 -0.0251 0)
(0.4181 -0.1248 2.833e-22)
(0.4817 -0.1517 0)
(0.8183 -0.08154 8.286e-23)
(0.4072 0.03147 1.239e-21)
(0.9794 -0.2819 0)
(1.039 0.551 0)
(0.9974 -0.03027 0)
(0.9464 -0.1433 0)
(1.066 0.5572 0)
(0.743 -0.1755 -1.912e-21)
(0.7187 -0.1435 0)
(0.9934 -0.02515 3.266e-22)
(1.085 0.3099 1.135e-22)
(0.5448 -0.04078 0)
(0.569 -0.1678 5.003e-22)
(1.051 0.04239 0)
(1.001 0.001424 0)
(0.815 -0.1428 0)
(0.7394 0.6535 1.233e-22)
(1.03 -0.1213 0)
(0.4861 -0.153 -2.213e-22)
(0.5641 -0.1669 7.099e-22)
(0.9206 -0.1423 6.213e-22)
(0.9972 0.0006303 0)
(0.8565 -0.3562 0)
(1.006 -0.001267 3.666e-20)
(0.2641 -0.2887 -6.518e-22)
(0.4085 0.02799 2.39e-21)
(0.7394 -0.1624 -1.763e-21)
(0.3057 0.2259 0)
(0.994 0.02101 2.358e-21)
(1.049 -0.1747 6.637e-23)
(0.9921 0.05466 -3.813e-22)
(1.008 0.006803 -1.192e-21)
(1.017 0.04419 7.137e-22)
(-0.001392 -0.005727 0)
(1.006 -0.001457 -5.296e-20)
(0.451 -0.1144 -3.16e-22)
(0.8981 -0.3254 0)
(1.072 -0.1104 -4.13e-22)
(0.3884 -0.1724 7.127e-22)
(0.3398 -0.04331 2.527e-21)
(0.641 -0.1798 0)
(1.029 -0.002398 5.082e-21)
(0.9643 -0.08087 -3.156e-22)
(0.7086 -0.2038 -1.03e-21)
(0.5122 -0.1509 0)
(0.6517 -0.1486 -9.003e-22)
(0.9501 -0.08592 1.653e-23)
(0.4751 -0.1492 0)
(-0.0004323 -0.00254 -2.501e-23)
(0.5167 -0.1523 -3.323e-22)
(0.9521 -0.07124 0)
(0.7918 -0.1778 4.902e-22)
(0.4347 -0.2472 -4.525e-21)
(0.9926 -0.0631 4.94e-22)
(1.015 -0.2073 2.351e-21)
(0.9853 0.04634 1.835e-21)
(0.971 -0.1341 6.216e-23)
(0.8952 -0.1685 -1.185e-21)
(0.9914 -0.1115 -1.755e-22)
(1.207 0.32 2.924e-22)
(0.0004343 0.03388 2.888e-21)
(1.002 0.0009888 1.814e-21)
(0.6446 -0.1469 7.828e-22)
(0.7398 0.6065 6.064e-23)
(1.011 -0.1109 1.056e-22)
(0.8343 -0.1616 0)
(1.008 -0.1361 2.372e-21)
(0.8897 -0.1802 0)
(0.5031 -0.3819 0)
(0.4215 -0.1251 0)
(1.068 -0.09513 5.247e-23)
(0.6811 -0.2387 0)
(0.4796 -0.152 -2.851e-22)
(0.5183 -0.04471 2.776e-23)
(0.7064 -0.04292 0)
(0.09742 -0.05186 7.292e-21)
(0.9985 -0.03086 1.5e-22)
(0.5128 -0.1511 -8.862e-22)
(0.5586 -0.1437 0)
(0.7063 -0.0662 1.475e-21)
(0.3875 -0.1278 -4.272e-22)
(0.8302 -0.3238 1.422e-21)
(0.9237 0.1951 -6.225e-22)
(0.9399 0.05305 -1.368e-22)
(0.1628 -0.05979 0)
(0.8936 -0.1686 5.526e-22)
(1.042 -0.1838 3.508e-22)
(0.9711 -0.2774 -1.378e-21)
(0.9854 -0.0008603 2.095e-20)
(0.305 -0.1085 9.403e-24)
(1.183 0.3849 -2.132e-23)
(0.9637 -0.08021 -3.046e-22)
(0.7629 -0.07725 0)
(0.9535 -0.03292 1.352e-21)
(0.9711 -0.2779 -4.8e-22)
(1.017 -0.04304 0)
(0.2901 -0.1074 1.458e-22)
(0.3056 -0.1087 -9.595e-24)
(0.718 -0.2088 2.006e-21)
(0.6354 -0.1765 4.367e-22)
(1.024 0.1706 -8.557e-23)
(0.3237 0.2434 -7.841e-22)
(0.7395 -0.06987 5.618e-24)
(0.9758 -0.04032 3.689e-21)
(0.9285 -0.1195 1.394e-22)
(0.8572 -0.1085 -9.932e-22)
(0.956 -0.06964 3.381e-21)
(0.3338 0.5486 -6.977e-22)
(-0.0002114 -0.002638 4.173e-23)
(0.7095 -0.1849 0)
(1.001 1.982e-05 0)
(0.9999 4.179e-07 -1.209e-22)
(0.07895 0.04772 0)
(0.9866 0.02955 5.497e-22)
(1.02 0.01497 2.363e-21)
(0.9187 0.01156 5.304e-21)
(0.8585 -0.04139 -3.092e-21)
(0.3999 -0.1329 -3.632e-22)
(-0.0001957 -0.001215 5.868e-25)
(0.8629 -0.05209 2.003e-22)
(1.012 -0.1254 9.115e-22)
(1.006 -0.1755 -1.17e-22)
(0.7706 -0.0602 5.639e-21)
(0.994 0.02043 -1.189e-21)
(0.903 -0.123 9.712e-22)
(0.3869 -0.1228 2.01e-22)
(0.9833 -0.01012 2.597e-21)
(0.9331 0.1961 -6.44e-22)
(0.4779 -0.1417 -7.907e-24)
(0.1025 0.01092 0)
(0.1085 -0.03864 -2.645e-22)
(1.005 -0.1931 8.147e-22)
(0.6522 -0.1614 -1.218e-21)
(1.013 -0.1242 1.968e-22)
(1.181 0.3817 -3.151e-23)
(1.003 0.01039 -9.511e-21)
(0.8278 -0.1604 -2.468e-22)
(1.009 -0.1072 1.699e-22)
(0.4877 -0.04342 0)
(0.1603 -0.05834 0)
(0.6226 -0.1604 -1.253e-21)
(0.9948 -0.1422 6.855e-22)
(0.2346 -0.0825 3.352e-22)
(0.5954 -0.1737 8.067e-22)
(0.7413 -0.1731 1.178e-21)
(1.017 -0.04419 1.765e-21)
(0.5053 -0.1041 1.919e-21)
(0.002213 -0.02193 0)
(0.7423 -0.1732 0)
(1.063 -0.1065 -5.806e-22)
(0.5129 -0.1513 4.203e-22)
(0.01024 -0.001562 1.603e-23)
(1.02 0.01448 -2.494e-21)
(0.9419 -0.125 6.867e-22)
(0.8653 -0.1094 9.083e-22)
(0.7851 -0.05136 -2.061e-21)
(0.3758 -0.1252 -9.162e-23)
(0.6926 -0.243 -1.072e-24)
(1.053 -0.1046 0)
(-0.00113 -0.005922 3.29e-26)
(0.8894 -0.1764 1.021e-21)
(0.3438 -0.006491 0)
(0.01662 -0.00459 4.453e-22)
(0.9971 0.0009958 -6.702e-21)
(1.201 0.2323 -9.257e-22)
(0.4454 -0.0487 -4.647e-22)
(0.9905 -0.2289 0)
(0.833 -0.172 0)
(0.7965 -0.1916 9.983e-22)
(0.8717 -0.3548 0)
(1.029 -0.002645 -4.675e-21)
(1.009 0.2731 0)
(1.009 -0.2543 0)
(0.8923 0.1355 5.182e-22)
(0.7441 -0.1856 -9.013e-22)
(1.001 -0.0523 -1.27e-21)
(0.9501 -0.1411 1.264e-23)
(0.9841 0.04573 -1.506e-21)
(1.059 -0.08465 0)
(0.7477 -0.06006 -6.827e-22)
(0.375 -0.1186 1.088e-21)
(0.4706 -0.3804 0)
(0.7169 -0.3066 3.402e-21)
(1.106 -0.066 -7.047e-22)
(0.5946 -0.1078 0)
(0.9846 -0.0009803 -2.413e-20)
(0.489 -0.1538 -2.421e-22)
(0.9384 -0.1257 -7.289e-22)
(0.951 -0.06454 1.946e-22)
(0.9343 -0.1195 -6.664e-22)
(0.7417 -0.1632 0)
(0.8361 -0.1297 -1.007e-21)
(0.9743 -0.003421 1.578e-21)
(0.9867 -0.2901 7.222e-22)
(0.9897 -0.001355 -3.045e-21)
(0.9791 -0.02063 6.015e-24)
(1.033 -0.1214 4.224e-25)
(0.9893 0.007895 0)
(1.006 0.02035 -5.202e-22)
(-0.001006 -0.002598 -6.123e-24)
(0.5558 -0.1545 0)
(0.9947 0.02242 1.104e-21)
(0.8124 -0.1123 -6.701e-22)
(0.95 -0.03381 2.987e-21)
(1.009 -0.1355 -2.904e-21)
(1.042 -0.2108 0)
(1.062 -0.1076 5.721e-22)
(1.036 -0.2003 0)
(0.9885 -0.021 -2.428e-21)
(0.8471 -0.369 -4.518e-23)
(0.6373 -0.05355 2.797e-23)
(0.1658 -0.07208 -1.634e-22)
(0.3757 -0.1256 3.454e-22)
(1.106 -0.06491 4.052e-22)
(0.584 -0.06373 1.231e-22)
(1.013 -0.257 -2.095e-22)
(0.91 -0.2932 -1.163e-21)
(1.051 -0.175 -7.569e-22)
(0.4688 -0.03566 0)
(0.6749 -0.4036 5.394e-24)
(1.008 -0.176 -4.073e-23)
(0.9826 -0.01026 0)
(0.7796 -0.1819 -6.589e-24)
(0.9785 -0.1045 1.407e-22)
(0.9051 -0.1376 5.351e-22)
(0.1209 -0.09675 -3.889e-23)
(0.6959 -0.1686 0)
(0.9903 -0.001372 -1.389e-21)
(0.9838 0.0105 -4.522e-21)
(1.15 0.3919 3.269e-23)
(0.9876 -0.1437 3.537e-22)
(0.5658 -0.05967 -2.373e-22)
(0.9899 -0.1153 2.255e-21)
(0.9238 -0.01541 6.34e-21)
(1.018 -0.1739 0)
(0.6622 -0.04675 -2.05e-22)
(1.027 -0.01688 1.345e-21)
(0.9899 -0.2283 3.533e-22)
(1.147 0.3894 0)
(1.015 -0.1266 -6.054e-22)
(0.9021 -0.04841 2.39e-21)
(0.326 -0.004946 -2.432e-23)
(0.7133 0.03688 2.675e-22)
(1.144 0.441 1.885e-22)
(0.5874 -0.1726 0)
(1.007 0.02005 4.463e-22)
(0.8883 -0.09778 -4.883e-21)
(1.001 1.53e-05 0)
(0.9999 3.855e-07 0)
(0.8867 -0.1745 0)
(0.8659 -0.3545 -2.293e-22)
(1.043 -0.1844 3.622e-22)
(0.5863 -0.1723 -3.165e-22)
(0.5581 -0.1509 -2.739e-21)
(0.9928 -0.06154 -2.033e-21)
(1.004 -0.1929 0)
(1.001 -0.1138 1.513e-22)
(0.942 -0.1192 1.071e-22)
(0.3566 -0.1415 7.895e-24)
(0.8088 -0.112 4.751e-22)
(0.5389 -0.1291 -8.718e-22)
(0.766 -0.1512 6.12e-22)
(0.6196 -0.07395 3.822e-22)
(0.9651 -0.06264 0)
(0.6328 -0.07146 -2.635e-22)
(0.653 -0.1603 7.531e-22)
(0.3126 -0.109 -1.74e-22)
(0.9375 -0.1193 4.771e-22)
(0.9221 0.0485 0)
(0.5428 -0.1321 -2.023e-21)
(0.8303 -0.172 -7.02e-22)
(1.215 0.2858 -2.324e-22)
(0.9799 -0.01532 2.904e-21)
(0.6989 0.04046 0)
(0.4994 -0.1545 -4.11e-22)
(0.9177 -0.06723 3.531e-23)
(0.7577 -0.1324 -1.898e-21)
(0.7576 -0.05482 0)
(0.7542 -0.06427 -2.336e-23)
(1.004 0.005244 -5.986e-23)
(0.987 0.02886 -1.732e-21)
(0.956 -0.007407 0)
(0.5316 -0.09959 7.545e-22)
(0.9764 -0.003006 0)
(0.5499 -0.2298 5.211e-21)
(1.026 -0.01859 -2.918e-21)
(0.505 -0.05464 3.792e-22)
(0.7423 -0.05641 1.263e-22)
(0.9803 -0.03878 0)
(1.012 -0.07811 -1.35e-22)
(0.6763 -0.06364 -7.23e-23)
(0.03483 -0.03853 9.784e-26)
(0.5588 -0.167 -1.332e-21)
(0.9716 -0.004621 6.429e-22)
(0.8249 -0.1665 -4.072e-21)
(0.3846 -0.04908 -2.263e-21)
(0.6535 -0.08241 0)
(1.012 -0.2597 -1.185e-21)
(0.9923 0.05375 0)
(0.1839 -0.01274 0)
(0.9684 0.09939 0)
(0.468 0.002288 0)
(0.7077 -0.1844 -2.61e-22)
(0.9059 -0.1704 -2.471e-21)
(1.011 -0.01121 -6.798e-21)
(0.8684 -0.2694 0)
(0.1998 -0.07086 3.103e-22)
(0.7954 -0.2013 1.029e-21)
(0.7347 -0.06783 -2.549e-23)
(0.6211 -0.04413 1.253e-22)
(0.8728 -0.2705 -1.062e-21)
(0.6754 -0.0376 0)
(0.9205 0.04648 0)
(0.9989 -0.05138 0)
(0.4157 -0.03361 -1.13e-22)
(1.002 0.009963 3.984e-21)
(0.7881 -0.1715 0)
(0.2941 -0.108 0)
(0.9728 0.09917 0)
(0.9965 -0.1209 -2.022e-22)
(0.4967 -0.1554 -1.266e-21)
(0.9465 -0.091 -8.161e-23)
(0.9999 0.0013 -5.278e-20)
(0.78 -0.07942 0)
(0.8475 -0.3722 0)
(0.6234 -0.08718 1.253e-21)
(1.015 -0.2058 -2.372e-21)
(0.5008 -0.1566 0)
(0.9042 -0.3275 0)
(0.7253 -0.1442 -7.814e-22)
(0.6135 -0.1685 -1.279e-21)
(0.5501 -0.1027 0)
(1.051 -0.1117 4.765e-22)
(0.7982 -0.3171 -7.404e-22)
(0.3914 -0.1293 0)
(0.1024 -0.03605 -1.297e-21)
(0.4668 -0.136 0)
(0.998 0.001133 2.191e-21)
(0.5922 -0.173 -9.986e-22)
(0.9371 0.162 -2.795e-22)
(1.06 0.293 8.397e-24)
(0.9732 -0.1982 -1.301e-21)
(0.8065 -0.05653 1.931e-21)
(1.006 -0.1463 -6.898e-22)
(1.006 -2.565e-05 0)
(0.4619 -0.1362 0)
(0.3051 -0.1065 0)
(0.8645 -0.1358 5.727e-21)
(1.14 -0.01947 9.841e-23)
(1.004 0.005156 1.461e-21)
(0.9969 -0.1514 -3.82e-22)
(0.579 -0.1309 -1.542e-21)
(0.9502 -0.04279 -1.598e-21)
(0.9877 -0.02006 0)
(0.9954 -0.001862 -2.645e-21)
(0.7652 -0.06336 2.591e-23)
(0.9465 -0.07331 -1.789e-21)
(0.8672 -0.3585 2.552e-22)
(0.9555 0.04806 0)
(0.5618 -0.04272 -8.02e-24)
(0.9788 0.01048 6.374e-21)
(0.5783 -0.3992 0)
(0.9531 -0.008165 -8.829e-22)
(0.387 -0.1218 1.791e-22)
(0.6773 -0.1758 0)
(0.6943 -0.08703 -7.025e-24)
(1.005 -0.1215 4.242e-22)
(0.537 -0.09215 4.766e-21)
(0.8774 0.05482 7.012e-23)
(0.3972 -0.1314 -1.373e-22)
(0.5782 -0.06817 1.95e-22)
(0.8559 -0.0494 0)
(0.4246 -0.1387 0)
(1.055 -0.1082 6.02e-22)
(0.9575 -0.08674 -1.066e-23)
(1.022 -0.08328 4.58e-22)
(0.8598 -0.18 0)
(0.3788 0.2177 -3.991e-21)
(1.015 -0.08374 9.328e-25)
(0.9887 -0.0002551 0)
(1.01 0.03953 0)
(0.8744 -0.1561 0)
(0.4757 -0.1255 9.896e-22)
(1.001 -9.279e-05 0)
(0.5977 -0.1726 6.429e-22)
(0.9758 -0.1329 1.503e-21)
(1.072 -0.1095 6.126e-22)
(0.9894 -0.1433 -1.134e-22)
(1.008 -0.1109 1.148e-21)
(1.009 0.0005668 0)
(0.4366 -0.3495 -2.667e-21)
(0.979 -0.1305 -1.359e-21)
(0.2382 -0.08268 -2.597e-22)
(1.027 -0.1112 2.869e-23)
(0.3634 -0.1948 4.791e-22)
(0.5692 -0.3999 -5.362e-22)
(0.7326 -0.1087 4.231e-22)
(0.6961 -0.167 0)
(0.855 -0.3709 0)
(1.14 -0.01892 -1.017e-22)
(1.034 -0.1128 -2.017e-23)
(1.019 0.00605 4.173e-21)
(0.5583 -0.04707 -6.79e-23)
(0.9581 0.02551 2.784e-21)
(1.167 0.4016 1.038e-23)
(0.8338 -0.08351 -7.078e-23)
(0.9811 -0.1079 0)
(1.21 0.3047 1.377e-22)
(-0.0003484 -0.002128 0)
(0.4865 -0.1465 1.074e-21)
(0.3735 0.05586 5.623e-22)
(1.062 -0.07428 -2.623e-23)
(0.9557 0.5312 -4.563e-22)
(0.9845 -0.003975 -1.87e-20)
(0.3594 -0.1996 0)
(1.011 0.03931 1.157e-24)
(0.3559 -0.1208 0)
(0.7163 -0.1855 -9.476e-22)
(-0.0002548 -0.001486 0)
(0.007469 0.009055 4.142e-23)
(0.01182 -0.004084 -8.364e-24)
(1.001 -0.0004916 -2.737e-20)
(0.5481 -0.1337 0)
(1.13 0.03842 0)
(0.9843 0.01061 9.519e-21)
(0.5323 -0.1608 6.214e-22)
(0.8856 -0.3219 1.613e-21)
(0.4512 -0.1417 8.123e-22)
(1.032 -0.1502 0)
(0.6735 -0.1749 0)
(0.6883 -0.08511 2.77e-22)
(0.5989 -0.1736 -6.597e-22)
(0.256 -0.04912 5.296e-22)
(0.9904 2.213e-05 0)
(0.3593 -0.1133 -2.605e-22)
(0.01613 -0.005849 0)
(0.7729 -0.3128 4.743e-22)
(0.5928 -0.05836 -2.284e-23)
(0.172 -0.06247 1.329e-22)
(1.006 -0.01456 -2.139e-21)
(1.015 -0.1108 1.049e-22)
(0.864 -0.04246 -7.716e-22)
(0.8638 -0.1797 1.044e-21)
(1.003 -0.01303 0)
(0.5175 -0.04204 0)
(0.7716 0.3399 0)
(0.2113 -0.07436 -4.641e-22)
(0.9999 -8.987e-06 0)
(0.8732 -0.1557 -5.497e-22)
(1.06 -0.1259 5.268e-22)
(0.1356 -0.05306 6.682e-25)
(0.8289 -0.3797 2.998e-22)
(0.8411 0.2194 1.692e-22)
(0.826 -0.1822 -4.084e-22)
(0.9522 0.01512 1.998e-22)
(0.3017 -0.1029 -2.328e-22)
(0.9128 -0.3429 -7.347e-22)
(1.001 -8.694e-05 1.675e-22)
(1.013 -0.2585 1.577e-21)
(1.048 -0.1137 -3.346e-21)
(0.659 -0.05633 -2.366e-23)
(0.7657 -0.05478 1.079e-22)
(0.4599 -0.1214 -1.071e-21)
(0.2764 -0.09265 2.476e-22)
(0.7108 -0.1849 4.675e-22)
(1.122 -0.05068 0)
(0.8226 -0.3205 5.779e-22)
(0.4342 -0.1397 0)
(0.4692 -0.138 2.592e-23)
(1.022 -0.003981 -5.852e-22)
(0.4942 7.318e-05 8.944e-23)
(0.5658 -0.1582 -5.132e-22)
(0.6174 -0.093 -1.231e-21)
(0.9397 -0.1015 2.124e-22)
(0.401 -0.133 3.461e-22)
(1 0.002712 0)
(0.9997 0.003479 1.16e-20)
(0.8973 0.1312 -8.33e-22)
(0.5318 -0.1272 -4.391e-22)
(0.9265 0.5593 0)
(0.9822 0.01279 -4.769e-21)
(1.004 0.0007957 -2.583e-21)
(0.9273 -0.3379 0)
(0.7053 -0.3062 0)
(0.4879 -0.1537 4.148e-22)
(0.8536 -0.3714 0)
(0.2213 -0.07428 1.064e-21)
(0.1459 -0.04829 0)
(1.034 -0.2298 -3.298e-22)
(1.016 0.04286 0)
(1.003 -0.0004341 2.232e-21)
(0.217 -0.07696 4.279e-22)
(0.6039 -0.1718 -4.992e-22)
(0.9619 -0.2214 1.062e-21)
(1 -0.0003449 1.759e-20)
(0.3784 -0.006139 1.119e-21)
(0.9584 -0.0969 0)
(0.5405 -0.1464 9.614e-22)
(0.9719 -0.004497 -2.952e-21)
(0.4999 -0.06132 -8.791e-23)
(0.9817 0.01224 7.542e-21)
(0.5028 -0.1571 -2.003e-22)
(0.3033 -0.1026 0)
(0.876 -0.1756 5.001e-23)
(0.997 1.542e-05 -2.928e-21)
(0.3402 -0.1116 -9.853e-22)
(0.7456 -0.1861 -2.222e-22)
(0.1676 -0.1044 -9.322e-21)
(1.009 0.0005352 -3.1e-21)
(0.9283 -0.1442 -5.895e-22)
(0.1104 -0.03882 1.225e-22)
(0.9955 -0.002109 0)
(0.9979 -0.1213 0)
(0.9879 0.02136 -1.248e-22)
(0.8209 -0.05898 8.025e-23)
(1.02 -0.1214 0)
(0.9894 0.007487 7.481e-21)
(0.4774 -0.1178 2.777e-21)
(0.7305 -0.09798 -2.912e-22)
(0.1019 -0.07599 0)
(0.8279 -0.1275 -1.148e-21)
(0.9827 -0.1336 -1.151e-22)
(0.6475 -0.07294 7.346e-22)
(0.6614 -0.08064 3.526e-22)
(0.3811 -0.2799 -2.528e-21)
(0.7872 -0.07336 -6.481e-25)
(1.068 0.5579 1.013e-23)
(0.812 -0.0108 -2.624e-22)
(0.3114 -0.1078 -1.781e-22)
(1.028 -0.09236 -1.797e-22)
(0.5233 -0.04722 -3.826e-24)
(1.002 -0.0003607 0)
(0.712 -0.1486 -1.114e-21)
(0.9868 0.009136 -2.286e-21)
(0.3657 -0.1207 -1.481e-21)
(1.034 0.01198 2.379e-21)
(0.9735 -0.1341 8.614e-22)
(1.006 -2.572e-05 0)
(0.9941 0.02219 2.858e-21)
(1.066 -0.094 -1.298e-22)
(0.8014 -0.3193 3.743e-22)
(0.7108 -0.1685 8.129e-22)
(1.006 0.0003298 1.473e-20)
(1.006 -0.002604 -4.167e-21)
(0.2426 -0.08478 -3.158e-22)
(0.6267 0.07677 0)
(0.5003 -0.1178 1.13e-21)
(0.5733 -0.04912 -3.908e-23)
(0.4873 -0.1433 0)
(0.8668 -0.3579 -2.605e-22)
(0.6731 -0.1757 -1.209e-22)
(0.8457 -0.3721 0)
(0.9451 -0.1196 -1.492e-23)
(0.4338 -0.1291 -3.005e-21)
(0.671 -0.05344 0)
(1.006 0.0003149 -2.248e-21)
(0.9257 -0.04434 1.175e-21)
(0.9485 -0.1226 5.325e-23)
(1.06 -0.1757 1.955e-22)
(1.041 -0.1133 0)
(1.002 -0.0286 -8.32e-21)
(1.004 0.0007536 2.783e-22)
(1.019 -0.1258 -5.96e-22)
(0.4812 -0.2713 2.375e-26)
(1.034 -0.1129 1.024e-22)
(0.05614 -0.01764 2.548e-22)
(1.034 0.01356 0)
(1.002 0.0005478 3.324e-22)
(0.4603 -0.1419 0)
(0.8326 -0.07839 0)
(0.9204 0.01211 -4.192e-21)
(0.6465 -0.07775 -8.049e-22)
(1.053 -0.162 0)
(0.9923 -0.0201 -1.375e-22)
(0.375 -0.1141 1.508e-21)
(1.016 -0.2416 -2.563e-22)
(0.9533 -0.1226 3.375e-22)
(0.9021 -0.2116 -3.586e-21)
(0.003204 -0.0009855 0)
(0.1678 -0.06069 0)
(0.427 -0.1393 -1.168e-22)
(0.3962 -0.1323 2.455e-22)
(0.5568 -0.1539 0)
(0.7962 -0.1197 9.377e-22)
(0.5387 -0.0713 1.644e-22)
(0.7017 -0.11 0)
(0.9422 -0.02931 -7.251e-22)
(0.9577 -0.09069 1.265e-21)
(0.2211 -0.1006 0)
(0.7908 -0.1715 -9.994e-22)
(1.006 -0.001535 9.859e-21)
(0.8496 -0.1317 7.616e-22)
(0.9599 -0.2805 0)
(0.6547 -0.1052 -1.651e-21)
(0.9999 -2.041e-06 8.12e-22)
(1.006 -0.001662 -1.082e-20)
(0.0201 0.008143 0)
(1.062 -0.0726 9.462e-23)
(0.7508 -0.1408 -1.084e-21)
(0.841 -0.1148 -5.797e-23)
(0.7048 -0.3973 0)
(0.7802 -0.1824 1.809e-21)
(1.137 -0.001359 0)
(0.5225 -0.04293 6.443e-23)
(0.7501 -0.08019 2.71e-21)
(0.7957 -0.2103 0)
(1.018 0.005599 -1.842e-21)
(1.009 -0.0004579 0)
(1.203 0.2598 0)
(0.9445 0.1606 0)
(0.5571 -0.1066 1.676e-22)
(0.6613 -0.113 0)
(0.5887 -0.2427 2.822e-21)
(0.5128 -0.1529 0)
(0.7553 -0.311 -1.025e-21)
(0.9073 -0.1207 6.037e-21)
(0.7643 -0.1319 2.668e-21)
(0.9967 8.95e-05 5.33e-22)
(0.5952 -0.03691 -6.894e-23)
(1.01 -0.1106 1.333e-22)
(0.7798 -0.18 -8.704e-22)
(-0.0005277 -0.002805 6.084e-24)
(0.9771 -0.1509 -1.756e-22)
(1.065 -0.08304 -9.281e-22)
(0.5633 -0.1682 1.362e-21)
(0.9968 1.53e-05 3.255e-21)
(0.9194 -0.09937 -5.05e-24)
(0.7546 -0.06598 4.818e-25)
(0.07049 -0.02412 0)
(0.6451 -0.1303 7.818e-22)
(0.8603 -0.1789 8.009e-22)
(0.9452 -0.1198 -2.284e-22)
(0.7709 0.623 0)
(0.6113 -0.1679 1.202e-21)
(0.6959 -0.3729 1.249e-21)
(0.5869 -0.1599 -3.122e-22)
(0.8206 -0.1987 2.263e-22)
(0.8996 -0.09679 -1.502e-22)
(0.9829 -0.105 -6.488e-23)
(0.6437 -0.1803 7.085e-22)
(1.054 -0.1953 7.424e-22)
(0.00537 -0.0003136 0)
(0.9585 -0.2824 0)
(0.9395 0.05092 1.218e-21)
(0.9254 -0.2068 -3.151e-22)
(0.833 -0.3568 7.473e-22)
(0.8391 -0.08757 2.642e-23)
(1.012 0.0006286 0)
(0.2612 -0.1051 -1.099e-22)
(0.6575 -0.16 -1.495e-21)
(0.4894 -0.1537 -3.84e-22)
(1.002 0.0005395 -4.417e-22)
(0.05483 -0.02096 0)
(0.4746 -0.1391 0)
(0.5026 -0.0629 -9.059e-22)
(0.9957 9.371e-05 -1.803e-21)
(0.6852 -0.1091 1.005e-21)
(0.3265 -0.1124 0)
(0.6536 -0.1237 1.496e-21)
(0.879 -0.09425 -6.947e-22)
(0.9958 6.841e-05 1.698e-21)
(0.5254 -0.1618 -7.212e-22)
(0.1802 -0.0711 0)
(0.4296 -0.1184 2.104e-21)
(0.8365 -0.1701 0)
(0.9851 0.03136 -4.803e-22)
(1.002 -0.1134 1.364e-22)
(0.2281 -0.185 0)
(1.026 0.004487 -1.282e-21)
(1.005 -0.1843 5.715e-22)
(1.045 -0.2205 0)
(0.8045 -0.1191 -9.105e-22)
(0.4875 -0.146 0)
(1.012 -0.2558 -6.193e-22)
(0.9735 -0.1504 0)
(0.4061 -0.05227 -2.663e-22)
(0.3887 -0.1217 0)
(0.9996 -6.072e-06 -1.652e-21)
(0.5236 -0.1614 6.778e-22)
(0.5819 -0.1679 1.212e-22)
(0.3974 -0.03098 0)
(0.6487 -0.09302 -8.495e-22)
(1.083 -0.04747 0)
(0.5341 -0.1608 0)
(0.2856 -0.09433 5.78e-23)
(0.9997 -1.49e-05 1.39e-21)
(0.4561 -0.1435 -7.966e-22)
(0.3767 -0.1128 0)
(1.022 -0.1143 0)
(0.004919 -0.02719 -6.227e-24)
(1.024 -0.1137 -1.072e-22)
(0.2132 -0.07596 6.996e-22)
(0.8082 -0.1582 -1.946e-22)
(0.3755 -0.1246 0)
(1.028 -0.2359 0)
(1.001 -0.0004447 1.355e-20)
(0.001795 -0.0006875 -3.107e-24)
(0.5391 -0.1545 1.096e-21)
(0.836 -0.1294 1.069e-21)
(0.1784 -0.06345 3.574e-22)
(0.4512 -0.1454 -8.346e-22)
(0.3277 -0.1098 8.446e-22)
(0.4236 -0.133 -3.217e-22)
(0.7016 -0.0571 0)
(1.002 -0.0003946 0)
(0.6455 -0.1505 0)
(1.029 -0.1277 -7.054e-24)
(0.9965 0.00012 0)
(0.4229 -0.1309 -1.237e-21)
(1.168 0.4003 0)
(0.9136 -0.1377 -4.822e-22)
(0.9068 -0.3191 -4.988e-22)
(1.007 0.0002293 -7.194e-21)
(0.6779 -0.1768 0)
(0.3011 -0.1068 0)
(1.018 0.006076 -5.128e-21)
(1.007 0.0002372 0)
(1.039 -0.1152 0)
(0.6212 -0.1752 9.443e-22)
(0.4878 -0.1439 -4.357e-22)
(0.3202 -0.1087 3.988e-22)
(0.5003 -0.1566 5.866e-22)
(0.1612 0.005274 5.091e-24)
(1.019 -0.1344 0)
(0.8017 -0.2409 -2.418e-21)
(1.006 -0.0016 0)
(0.521 -0.1583 -5.496e-22)
(0.3912 -0.1295 0)
(0.6485 -0.04154 -1.727e-22)
(0.5019 -0.04032 0)
(0.8298 -0.3196 -1.316e-21)
(0.9992 0.0009654 0)
(1.007 -0.01376 5.543e-22)
(0.9479 -0.0118 -4.467e-22)
(0.3777 0.002181 1.222e-21)
(1.006 -0.001474 1.34e-21)
(0.9041 -0.1154 -2.944e-21)
(0.5073 -0.3084 5.878e-22)
(0.93 -0.1178 -3.984e-22)
(0.4302 -0.06665 1.375e-21)
(0.991 -0.00389 0)
(0.3513 -0.1178 -3.165e-22)
(0.9236 -0.1112 2.285e-22)
(1.002 0.01239 0)
(0.626 -0.07418 -3.248e-22)
(1.001 -0.0001126 0)
(0.7562 -0.3837 1.577e-21)
(0.1437 -0.1968 -2.78e-21)
(0.7772 -0.1059 -3.175e-23)
(1.071 -0.09084 0)
(0.3963 0.003948 1.3e-22)
(0.9948 -0.02952 3.58e-22)
(0.4423 -0.1177 0)
(0.9034 -0.2263 -1.028e-21)
(0.5266 -0.04129 0)
(0.1966 -0.09839 -1.69e-22)
(0.5553 -0.07122 -2.892e-22)
(0.4919 0.6595 8.603e-22)
(1.085 -0.04386 -9.165e-22)
(1.054 -0.1987 -5.808e-22)
(0.9 -0.3392 1.301e-23)
(0.1338 -0.01083 0)
(0.9999 0.01501 0)
(0.9677 -0.1517 1.928e-21)
(0.7429 -0.2396 0)
(1.041 0.187 4.512e-23)
(0.2207 -0.1004 5.741e-23)
(0.2735 -0.04864 0)
(1 0.0009736 0)
(0.8606 -0.09208 2.701e-21)
(0.216 -0.07525 -2.053e-22)
(0.419 -0.0985 -5.448e-21)
(0.1973 -0.003631 6.399e-21)
(1.151 0.09444 0)
(0.03203 -0.03236 -1.147e-21)
(1.067 0.1265 -1.646e-22)
(0.147 0.01336 1.457e-21)
(0.6234 -0.152 -7.034e-22)
(0.191 -0.06732 6.585e-22)
(0.6508 -0.1503 5.728e-22)
(0.1925 -0.01409 1.948e-22)
(1.008 0.04981 -8.68e-23)
(0.892 -0.1288 0)
(1.004 0.0005296 0)
(0.9972 1.45e-05 0)
(0.9436 -0.1398 5.418e-22)
(1.036 0.02298 -1.41e-23)
(0.8893 -0.1122 7.833e-22)
(0.5669 -0.07702 -2.226e-21)
(0.3107 0.2007 0)
(1.055 -0.1092 3.87e-22)
(0.9707 -0.05173 -2.272e-21)
(1.122 0.404 1.593e-22)
(0.9143 -0.2081 7.994e-22)
(1.011 -0.01086 4.964e-21)
(0.7258 -0.1573 3.259e-23)
(0.4256 -0.1378 -1.848e-22)
(0.9739 -0.04981 2.88e-21)
(0.4865 -0.1123 -3.176e-21)
(0.03511 -0.01233 -5.957e-22)
(0.3054 -0.07982 0)
(1.006 -0.2057 0)
(0.2768 -0.2975 -2.061e-21)
(0.9042 -0.1703 0)
(0.2955 -0.1005 0)
(0.9877 -0.001028 7.659e-21)
(0.9856 -0.1072 3.812e-22)
(0.7856 -0.1793 9.035e-22)
(0.9817 -0.01526 0)
(0.4831 -0.1197 1.223e-21)
(0.5578 -0.1577 0)
(0.6547 -0.1783 -4.52e-22)
(1.001 -0.000105 -5.054e-22)
(0.9375 -0.01028 -1.422e-21)
(0.7702 -0.16 0)
(0.1231 0.00649 9.685e-24)
(0.9519 -0.3222 -8.427e-22)
(0.03532 -0.01137 0)
(0.6254 -0.1755 7.023e-22)
(0.8447 -0.3686 0)
(0.9374 -0.2057 -1.487e-22)
(0.09175 -0.03349 0)
(0.843 -0.06164 3.775e-22)
(0.9975 -8.522e-06 -1.341e-21)
(0.4468 -0.2629 0)
(1.138 0.1797 -6.53e-22)
(1.005 0.0005356 0)
(0.8903 -0.3542 1.676e-23)
(0.02355 -0.008421 3.769e-23)
(0.8653 -0.1715 -5.893e-22)
(0.9459 0.05279 -1.058e-21)
(1.016 -0.04788 2.488e-22)
(1.043 -0.166 -1.455e-22)
(0.06662 -0.02406 -5.611e-25)
(0.06586 -0.006746 -5.407e-23)
(0.7263 -0.0762 0)
(1.015 0.04315 -4.533e-22)
(0.9946 0.007689 2.611e-21)
(1.009 -0.1948 0)
(0.8278 -0.378 -2.035e-22)
(0.4052 -0.1308 -1.198e-21)
(0.5056 -0.1175 0)
(0.299 0.3819 -1.739e-21)
(0.5381 -0.2263 -1.762e-21)
(0.6721 0.01384 -4.199e-23)
(1.066 -0.008476 -1.267e-21)
(0.5339 -0.2222 -1.728e-21)
(0.9886 -0.06865 2.25e-21)
(0.4737 -0.03812 0)
(1.012 0.002043 0)
(0.4852 -0.1532 7.181e-23)
(0.071 -0.06912 -1.244e-23)
(0.8908 -0.1618 -1.532e-21)
(0.501 -0.1414 0)
(0.5988 -0.1709 0)
(0.9912 0.00493 -6.674e-21)
(0.9665 0.005488 1.952e-21)
(0.2022 -0.07112 0)
(1.009 -0.225 2.002e-21)
(0.3105 -0.1058 0)
(0.766 -0.1003 0)
(0.2689 -0.09382 -6.058e-22)
(0.4762 -0.1496 -4.173e-22)
(1.044 -0.1103 -8.331e-23)
(1.063 0.00247 -1.838e-22)
(0.8663 -0.07328 -1.468e-21)
(0.1319 -0.02066 9.275e-22)
(0.9793 -0.1197 -3.531e-22)
(0.6012 -0.04289 9.807e-23)
(0.3769 -0.1119 1.653e-21)
(1.003 -0.1244 4.589e-22)
(0.5179 -0.1586 1.049e-21)
(0.3534 0.5542 7.41e-22)
(0.3392 -0.1136 -2.365e-23)
(0.05867 -0.07634 6.788e-23)
(0.03049 -0.01086 0)
(0.5923 -0.1699 0)
(1.012 0.0006485 0)
(1.01 -0.002965 6.059e-21)
(0.5425 -0.1652 5.331e-22)
(0.4085 -0.1352 0)
(1.058 -0.1773 -1.53e-21)
(1.001 1.883e-05 0)
(0.8201 -0.3811 -7.258e-22)
(0.6727 -0.1757 6.117e-22)
(1.064 -0.08666 2.154e-23)
(0.2999 -0.1007 0)
(1.029 -0.1214 -1.229e-21)
(0.39 -0.1203 -1.313e-21)
(1.061 0.4407 1.639e-22)
(0.9999 0.001279 -3.955e-20)
(1.056 -0.1917 0)
(1.055 -0.05627 -1.492e-22)
(0.3987 -0.1552 0)
(0.474 -0.03603 0)
(0.3137 -0.1083 9.606e-23)
(0.8446 -0.2889 1.59e-21)
(0.9548 -0.1558 3.63e-21)
(0.5624 -0.1013 0)
(0.724 -0.06386 -1.843e-24)
(0.9653 -0.07798 0)
(0.5396 -0.1575 0)
(0.8152 -0.3763 9.292e-22)
(0.8406 -0.09662 -2.091e-22)
(0.3852 -0.1276 0)
(0.5268 -0.2284 -2.011e-21)
(0.9854 -0.01961 -3.561e-22)
(0.1065 -0.03933 0)
(0.08323 -0.03079 0)
(0.5845 -0.1681 0)
(0.8463 -0.1267 1.626e-21)
(0.2462 -0.2819 -3.117e-21)
(1.004 0.0271 1.4e-22)
(0.09928 -0.02439 1.995e-21)
(0.1384 -0.02572 0)
(0.9963 -0.0006389 0)
(1 -5.266e-05 -3.946e-21)
(0.9671 -0.1066 -2.054e-24)
(0.7219 -0.1703 2.583e-21)
(0.01903 -0.007222 -3.724e-23)
(0.1929 -0.1003 6.802e-23)
(0.8983 -0.1301 1.325e-22)
(0.7639 -0.2848 0)
(0.3238 -0.1049 -1.357e-21)
(1.059 -0.186 0)
(1.064 -0.1463 0)
(0.9985 -0.03481 -3.82e-21)
(0.3172 -0.1031 -2.326e-21)
(0.4078 -0.09052 0)
(0.3601 -0.1177 -1.154e-21)
(1.036 -0.2159 0)
(0.1226 -0.04579 1.191e-22)
(0.4494 -0.1442 -9.741e-22)
(0.9918 -0.002486 4.342e-22)
(0.1426 -0.01943 0)
(0.3094 -0.1076 -5.468e-22)
(1.001 -0.001619 -3.024e-20)
(0.7397 -0.1098 -6.441e-22)
(0.9954 -0.0006315 9.401e-21)
(0.9897 -0.005039 8.387e-21)
(0.986 -0.1343 -2.162e-22)
(1.03 -0.1756 0)
(0.1765 -0.02289 -9.027e-21)
(1 -0.003777 3.508e-21)
(0.6271 -0.07461 4.403e-23)
(1.006 0.00934 0)
(1.155 0.4193 0)
(1.029 -0.1612 -1.408e-21)
(0.7087 -0.1491 4.538e-22)
(1.021 -0.1188 2.442e-22)
(0.7079 -0.1391 2.221e-22)
(0.737 -0.1062 0)
(0.3585 -0.1073 3.502e-21)
(0.9446 -0.1051 -2.879e-22)
(0.9953 -0.002376 4.934e-21)
(1.021 -0.04743 -2.497e-21)
(0.8998 -0.1602 7.589e-22)
(0.8616 -0.1598 -3.122e-22)
(0.3204 -0.1079 -1.032e-22)
(0.3567 -0.1143 0)
(0.283 -0.01798 1.98e-25)
(0.3201 -0.1027 -8.308e-22)
(0.06262 -0.01942 -6.159e-21)
(0.817 -0.1271 1.468e-21)
(0.7916 -0.2176 0)
(0.8984 0.014 -2.589e-21)
(0.691 -0.07296 3.042e-23)
(0.4095 -0.05625 0)
(0.8519 0.2455 5.049e-22)
(0.6724 -0.155 0)
(0.9665 -0.01569 2.862e-21)
(0.5986 -0.1199 3.652e-21)
(0.2582 -0.0992 1.357e-22)
(0.5449 -0.09056 0)
(0.9959 0.0002853 -1.375e-21)
(0.5728 -0.3859 1.775e-21)
(0.6949 -0.183 0)
(0.8779 -0.08402 -6.888e-24)
(0.913 -0.2514 2.509e-22)
(0.9271 -0.1173 -7.113e-23)
(1.055 -0.136 4.418e-22)
(0.4531 -0.09864 0)
(0.7695 -0.1869 6.882e-22)
(0.8803 -0.08398 -2.107e-23)
(0.2708 -0.09476 -1.171e-23)
(0.6876 -0.1883 -2.295e-21)
(0.1936 -0.09881 1.825e-22)
(0.997 -0.001173 0)
(0.9815 -0.07007 -1.224e-22)
(0.6136 -0.1156 0)
(0.9911 -0.02704 0)
(0.6376 -0.1352 0)
(0.6883 -0.07426 3.263e-22)
(1 1.14e-07 -1.639e-21)
(1.036 -0.2261 9.405e-22)
(0.2376 -0.08751 0)
(1.015 -0.06607 0)
(0.8682 0.2482 -2.002e-21)
(0.9245 -0.166 0)
(0.3533 -0.008931 0)
(1.059 -0.1655 1.432e-21)
(1.001 2.534e-05 4.379e-22)
(0.5884 -0.1401 -3.251e-23)
(0.464 -0.1347 -6.04e-23)
(1.019 -0.001216 4.45e-21)
(0.9187 0.2199 9.354e-22)
(1.034 0.03934 1.752e-22)
(0.6642 -0.1758 9.434e-22)
(0.5102 -0.1346 -1.221e-21)
(1.02 -0.178 3.961e-22)
(0.9808 -0.04705 0)
(0.1683 -0.06333 -6.799e-23)
(0.03442 -0.01296 1.323e-22)
(0.7233 -0.1535 -1.57e-22)
(0.7956 -0.1252 6.919e-22)
(0.6022 -0.1751 -4.082e-22)
(0.1925 -0.01592 0)
(0.9953 0.0003349 -2.579e-21)
(0.8134 -0.08487 -7.944e-23)
(1.008 0.01198 -7.424e-24)
(0.5377 -0.1588 0)
(0.7803 -0.3903 -6.188e-22)
(0.7227 -0.1296 0)
(0.9105 -0.2504 2.492e-21)
(0.1652 -0.08394 -8.744e-23)
(0.3164 -0.05168 0)
(0.9986 0.005263 -7.793e-21)
(0.01394 -0.005191 0)
(0.2856 -0.0903 0)
(0.3461 -0.0999 1.229e-21)
(0.9164 -0.08082 7.125e-26)
(1.032 0.2782 0)
(0.7323 -0.1865 -6.172e-22)
(0.6587 -0.1342 7.638e-22)
(0.4468 -0.03339 0)
(0.9233 -0.1275 0)
(0.8832 -0.00334 -2.779e-21)
(0.02953 -0.001482 7.413e-23)
(0.387 -0.1296 2.748e-22)
(0.7276 -0.05021 0)
(0.6338 -0.134 -1.483e-21)
(0.834 -0.1252 0)
(0.6509 -0.4031 -1.877e-21)
(0.3096 -0.02302 4.527e-22)
(0.1504 -0.0518 6.671e-23)
(0.9181 -0.1545 1.799e-22)
(0.4291 -0.1375 0)
(1.072 -0.08881 0)
(0.6878 -0.08337 -3.923e-22)
(0.7102 -0.07206 8.729e-23)
(0.8548 -0.1734 0)
(0.0398 -0.014 0)
(1.068 -0.0953 -2.253e-22)
(0.906 -0.1927 -8.282e-22)
(1.06 -0.1251 0)
(0.6788 -0.1152 7.062e-22)
(1 -1.074e-06 0)
(1.008 0.0008989 1.261e-20)
(1.003 -0.1353 -1.436e-21)
(0.1883 -0.0137 7.994e-23)
(0.4926 -0.1551 6.531e-22)
(0.9138 -0.02577 7.786e-21)
(0.1136 -0.02349 -2.316e-21)
(0.2406 -0.08276 4.551e-22)
(0.993 0.008881 -5.775e-21)
(0.6923 0.09636 0)
(0.8895 -0.1191 6.608e-23)
(1.054 -0.1043 0)
(-0.002777 -0.01323 0)
(1.001 -0.2816 -7.876e-22)
(0.3667 -0.123 1.555e-22)
(0.004651 -0.001546 0)
(0.7286 -0.1579 -5.454e-24)
(0.1206 -0.04259 1.249e-21)
(0.5891 -0.1733 8.504e-22)
(0.9055 -0.1131 0)
(0.4488 -0.0509 3.254e-21)