/*--------------------------------*- C++ -*----------------------------------*\
  =========                 |
  \\      /  F ield         | OpenFOAM: The Open Source CFD Toolbox
   \\    /   O peration     | Website:  https://openfoam.org
    \\  /    A nd           | Version:  8
     \\/     M anipulation  |
\*---------------------------------------------------------------------------*/
FoamFile
{
    version     2.0;
    format      ascii;
    class       volScalarField;
    location    "5";
    object      epsilon;
}
// * * * * * * * * * * * * * * * * * * * * * * * * * * * * * * * * * * * * * //

dimensions      [0 2 -3 0 0 0 0];

internalField   nonuniform List<scalar> 
63579
(
295.3
239.7
359.2
379.6
354.9
429.7
17.35
0.2583
1.856
6.406
19.18
0.1555
6.606
50.23
0.1151
51.52
1.587
1.481
1.25
18.57
2.338
0.03019
0.005434
4.278
0.005257
0.3446
0.01602
1.295
0.09658
0.8728
0.0008394
0.01588
0.02703
0.01914
4.177
0.1318
20.87
1.438
0.8374
13.34
0.01996
10.5
0.172
1.399
0.1332
2.238
28.9
0.6187
1.405
0.0008465
1.853
0.01756
16.27
6.198
0.02062
0.6745
0.01991
0.02703
0.01891
0.01674
3.018
0.2815
20.04
8.169
0.02054
4.969
0.8339
16.07
0.371
0.01837
4.543
50.62
0.1068
36.58
0.6694
2.354
0.2723
7.499
0.3434
6.708
78.56
0.02048
6.789
1.308
13.78
0.03076
0.7575
1.732
0.00412
4.644
1.74
0.03029
1.735
0.05088
4.821
0.3482
5.956
1.747
0.03578
12.66
0.112
0.112
0.01844
0.01693
0.032
0.07459
0.1285
1.022
0.1501
0.0208
0.01573
13.59
1.113
0.1269
4.278
0.02934
2.421
5.673
0.04961
0.1936
0.01685
6.546
1.97
0.001507
4.387
1.389
3.251
1.887
0.02029
13.42
1.225
0.1878
0.03665
0.01833
9.209
1.631
4.685
0.004016
1.926
0.007313
1.443
0.002652
0.1772
0.6044
0.02251
0.02037
0.02026
1.91
0.03111
0.478
0.192
0.8634
0.01556
2.251
3.064
0.7145
0.8867
0.6557
4.774
1.005
0.01577
0.7921
1.483
4.433
0.002731
0.01977
8.339
3.073
0.0315
0.2479
0.03394
1.393
8.498
0.05666
4.64
0.02037
0.1115
0.1016
0.1016
0.2587
1.847
0.7491
1.114
5.069
1.952
3.025
2.842
0.03891
3.915
0.01372
0.04061
0.01854
0.01826
0.007429
2.445
0.0343
3.688
0.0338
2.168
0.007909
7.086
2.838
0.7385
0.01961
0.07839
0.01457
0.7296
3.362
1.761
0.7315
0.03879
0.03516
0.03008
0.07947
0.8007
0.8663
0.1375
1.647
2.987
3.504
0.3625
2.89
5.215
5.378
0.001548
0.2322
1.143
0.291
0.1637
0.05468
0.04021
0.961
0.02924
0.01545
0.02274
1.981
0.02276
0.0185
8.087
0.0187
2.551
0.7619
0.08447
3.491
0.8051
4.414
0.003703
0.01765
0.03253
0.2776
0.103
0.006153
7.84
18.77
7.919
4.39
2.65
0.01565
0.0186
7.155
1.369
4.451
3.91
0.1862
4.092
0.01707
19.18
0.01763
0.07079
0.01998
3.296
0.725
2.609
0.003668
6.007
2.768
0.0155
0.6531
0.07226
0.01535
25.35
0.04395
0.2224
2.922
20
0.01903
2.434
0.03634
0.7337
4.733
0.01563
3.667
0.9659
0.08464
0.06711
0.1725
4.645
0.01925
0.001723
2.037
7.596
2.684
0.9099
0.01826
0.03762
1.634
0.004229
0.8475
0.007626
4.259
0.01914
0.001668
38.57
0.006431
1.36
0.02218
0.7926
0.01963
0.02265
2.449
2.731
2.751
6.702
1.51
9.889
3.165
0.004229
3.721
0.021
4.688
0.02118
0.04645
0.02032
0.3605
5.296
0.003608
0.007881
2.756
1.957
3.057
0.003611
0.5312
0.02069
0.001729
14.61
0.02091
0.001064
0.03063
0.2977
0.07097
1.146
0.3699
3.808
0.02664
0.01077
1.839
0.7838
0.8654
0.04476
0.0101
0.1867
2.972
5.407
0.3746
3.415
0.01568
0.007742
0.2296
0.8396
11.19
6.448
0.001057
0.1041
3.238
1.084
0.001524
1.052
1.635
32.69
6.469
2.979
1.139
0.7741
0.477
0.8003
0.03003
1.886
4.001
1.377
0.01483
0.0009588
4.391
0.001015
0.001113
0.01822
11.27
0.01556
1.078
0.7298
0.6905
1.105
6.095
0.01878
3.266
0.02554
0.9816
0.07265
0.04011
0.6498
0.0009636
7.053
1.426
2.839
0.02832
0.01577
0.02041
0.7402
0.6986
0.01085
1.249
0.002335
0.01509
0.07295
0.0116
13.91
1.156
6.021
0.004696
1.136
0.02649
2.98
0.06853
4.735
47.22
0.01886
0.4277
4.129
39.23
0.6074
1.586
16.63
0.02419
4.948
9.148
14.09
0.00232
8.106
332.4
0.0192
1.513
0.00181
0.00177
0.02587
5.959
0.4469
0.04898
9.846
2.011
0.01436
0.04629
1.154
16.23
0.01892
3.189
0.01327
0.02618
0.03091
1.775
3.305
1.762
0.002242
16.84
0.002236
2.056
0.6962
1.965
0.01818
0.02861
1.084
2.561
8.698
13.61
13.65
0.01691
0.02424
0.01733
0.446
2.192
19.81
0.7824
12.06
0.01505
0.01065
0.5703
0.1799
3.218
0.3681
2.978
0.1382
0.4719
17.42
0.9153
1.811
3.665
1.484
14.24
0.0166
17.59
0.01901
22.21
0.002558
0.1533
1.469
5.867
0.4811
0.4479
0.02303
0.8888
0.003632
16.02
0.02969
0.002303
0.01712
0.9432
0.2724
0.01726
2.987
0.02719
7.788
0.2287
0.6595
3.449
2.557
0.9593
0.006998
0.05856
2.084
3.771
2.161
5.625
0.6181
0.01455
4.588
0.0007502
9.422
1.138
2.342
0.5133
1.13
4.717
0.003274
0.01742
0.2081
0.8868
0.05923
0.615
0.3426
0.1056
0.01374
0.4473
0.04195
0.924
0.04352
3.573
2.213
0.00084
1.503
0.02345
3.097
2.355
0.04512
0.9527
12.52
1.288
0.05998
4.34
1.903
6.282
1.53
2.567
2.021
0.204
1.971
0.216
3.352
0.1056
0.02167
0.03687
0.0257
1.444
1.207
1.27
2.32
2.677
0.1419
1.245
0.4034
1.527
0.9148
0.07724
0.02679
4.62
0.01806
2.99
17.75
0.01609
0.06852
0.0162
21.6
0.5929
1.262
0.002915
0.04598
0.0006973
0.000699
3.903
2.007
15.77
0.8989
3.944
0.05512
1.886
18.62
70.1
0.5307
2.089
59.94
0.008272
1.869
16.71
0.06452
30.05
1.182
2.909
0.01162
1.029
0.01896
1.138
25.3
0.6378
0.5832
7.173
0.1721
2.036
46.41
0.02192
10.67
0.01138
0.6579
0.01458
0.002523
26.46
4.405
0.0841
0.01786
0.05473
0.01474
0.1778
0.0154
0.2625
0.1978
2.607
0.05421
1.767
0.933
2.131
1.929
0.01761
13.5
0.02486
17.85
4.729
2.363
0.01961
0.01815
0.08377
1.191
0.7146
1.728
0.03814
0.6537
8.031
0.1733
0.5288
1.599
2.343
0.01619
11.01
0.06103
1.866
0.02048
1.506
0.03718
2.539
17.63
27.32
0.5767
0.01026
22.22
0.01397
0.4101
1.235
11.36
0.09603
7.446
2.702
0.001204
0.001172
2.232
67.29
5.588
3.055
0.0186
0.02403
0.01731
0.01393
0.004762
38.26
0.0229
24.06
0.5808
3.672
0.001079
38.94
16.52
0.01533
20.63
29.53
0.1024
0.01031
0.0006354
0.1978
0.5369
0.006688
0.02964
13.22
0.005087
0.804
0.4767
0.02069
0.09323
101
1.736
1.386
0.02208
0.4696
0.2439
0.0007763
1.294
0.02383
5.274
0.01848
0.1056
1.113
4.053
5.475
4.52
0.007793
3.945
18.03
4.282
0.05831
1.974
67.64
8.653
0.001109
0.01518
2.215
0.02734
0.02856
0.3074
0.009057
3.359
0.02155
2.023
0.03856
3.63
15.16
0.7959
1.833
0.04197
15.43
3.941
3.057
25.27
4.094
0.06662
2.039
0.3706
1.217
0.02323
0.00912
18.85
11.83
0.5303
0.01859
12
1.785
0.2146
2.229
0.03935
0.1442
8.61
3.019
1.482
1.79
0.03595
1.222
0.9635
2.557
0.02807
1.158
4.895
0.01644
0.02677
0.0008666
1.05
0.9341
3.516
0.5293
0.003203
0.003387
0.5335
0.1727
1.458
0.0008249
0.001395
0.02478
3.26
0.02655
260.6
0.4079
0.6755
5.131
0.5498
0.01846
19.52
0.4834
1.894
0.1661
4.264
4.298
18.84
2.708
0.0308
1.519
15.03
0.01734
17.2
1.626
0.001787
2.916
3.497
0.003518
2.346
1.943
0.1308
0.0144
2.356
24.56
1.353
70.52
13.41
0.001499
22.53
2.056
0.827
1.253
0.001472
1.748
39.28
0.7826
1.277
0.018
0.02811
0.4705
0.01572
1.171
1.32
1.947
1.083
2.883
29.39
0.2071
1.528
0.8113
0.6911
0.00088
0.01991
0.04582
4.335
1.615
5.174
0.0277
3.157
5.363
0.07929
0.5358
0.03501
3.667
2.04
0.8842
3.194
1.359
0.3258
36.44
0.01477
3.366
1.412
0.003954
0.00105
0.3429
0.02422
0.04257
0.05291
0.5389
0.08387
0.3937
0.02384
0.01972
0.764
0.05397
5.014
0.1577
1.268
20.61
19.19
0.01988
0.007788
1.455
0.02605
93.13
3.618
0.007609
0.007598
2.173
7.013
0.05884
0.5492
0.1344
3.226
2.265
1.363
4.608
1.286
0.116
0.761
3.01
4.103
4.416
27.02
0.1812
0.001647
0.001636
1.753
7.364
0.004341
0.02046
2.574
0.0994
19.3
4.704
0.2932
1.882
0.1132
28.24
8.342
0.001235
0.7967
0.8522
1.399
3.592
0.7827
10
1.899
53.73
4.619
1.833
1.136
12.42
0.4456
0.01756
0.09004
1.579
13.59
0.284
65.12
1.228
0.00387
0.475
0.02103
49.21
0.7374
0.1162
0.4745
9.848
0.2817
0.9765
0.07981
5.201
0.8588
0.0105
11.37
0.8513
0.0185
2.6
7.624
2.362
3.483
2.754
5.75
4.989
3.101
0.0007749
0.01935
0.04948
4.461
0.01622
2.032
2.973
12.26
0.03026
0.0008979
2.707
0.6996
11.58
0.03007
0.06797
0.7203
0.01503
1.015
10.62
3.083
10.35
11.8
1.632
0.2573
1.257
1.748
0.01227
0.7054
13.28
5.539
20.4
0.01512
1.864
4.357
0.01498
1.54
28.42
1.81
1.67
0.1914
0.1914
1.528
1.395
0.0198
4.295
0.01659
0.0151
181.7
4.152
0.007284
2.456
0.2389
3.245
0.002333
0.5793
0.0207
0.01011
0.01438
0.004331
0.1304
1.146
7.125
0.728
0.004336
1.098
2.141
0.0992
1.276
100.4
2.551
5.438
1.178
4.984
0.02053
2.795
0.5897
0.05413
43.51
0.0266
0.00534
0.004009
2.128
3.866
0.0124
0.01594
0.1607
0.7094
20.84
2.247
0.2816
1.086
0.02088
18.16
0.01884
0.01507
0.001472
22.99
2.52
0.0332
0.1706
1.817
0.00221
0.4644
80.04
0.09195
0.001199
0.2074
0.02043
5.494
48.37
0.2963
2.79
0.02123
2.529
0.02627
3.134
56.03
25.89
0.3954
0.0663
0.01615
23.73
3.926
0.1686
0.03394
0.5367
0.02152
1.85
4.795
12.12
2.263
0.1022
8.086
0.02585
3.605
9.662
0.02186
108
0.1308
8.148
7.269
0.0159
174.1
0.0006835
65.19
12.32
3.149
32.36
0.2599
1.244
0.00833
1.103
5.672
1.501
2.099
16.44
0.0228
5.238
0.2903
1.201
0.02462
1.113
0.0006486
0.01622
0.6175
1.977
0.005724
0.03593
3.936
0.005732
3.151
0.1776
16.51
0.06365
2.419
5.502
2.001
0.8984
35.1
0.0008483
1.173
0.01802
0.9987
15.3
0.8718
68.47
0.004282
0.05347
2.148
0.127
6.952
3.613
0.001967
0.05959
0.04582
3.681
0.03067
2.039
0.9472
4.628
0.001085
0.07675
3.801
7.361
1.213
0.01421
5.421
0.01277
17.36
2.674
18.86
0.8997
0.003839
0.04479
0.7943
0.03165
6.108
0.006694
1.934
0.01946
0.7109
0.9174
0.1765
0.2739
4.585
0.003968
0.1642
0.01688
0.04833
0.6418
0.0183
1.746
3.086
1.458
0.06912
4.023
0.00284
136.2
4.272
0.0009413
0.1572
0.0376
1.317
2.165
3.146
0.0269
0.6305
1.617
10.92
0.01277
1.167
0.4648
0.07641
0.8099
0.06977
0.002088
2.814
20.34
1.609
1.101
0.01921
0.03565
0.2069
0.001102
55.49
0.0447
0.01812
1.068
0.04133
1.399
1.126
18.52
4.189
2.868
0.01792
0.0233
13.52
6.757
0.9003
0.5939
5.236
0.01854
0.04319
1.846
0.1524
3.065
2.776
0.01445
0.01862
0.1716
0.02585
9.829
4.172
0.0104
26.34
2.305
20.26
0.1012
0.1028
0.01791
50.1
1.441
3.703
0.001585
43.48
0.06218
1.689
0.1632
0.008265
24.3
0.2103
0.7372
0.1648
0.06706
0.003112
0.01253
0.7527
14.57
0.1397
0.07034
0.1968
3.134
2.85
5.257
0.09958
4.14
0.001508
28.17
0.06156
0.1531
0.0104
0.3368
0.0168
0.1567
0.1647
0.03136
5.983
0.02015
9.9
1.767
0.0324
0.03843
0.01585
0.07618
2.586
18.69
1.646
7.131
0.02399
20.53
0.3162
8.033
0.07228
4.497
0.2858
3.237
0.001233
1.184
0.01044
67.31
0.1716
5.931
0.02908
0.007788
5.538
0.2052
0.9662
0.01877
0.536
13.55
0.5661
0.01656
0.04959
0.503
1.463
2.681
1.524
0.01921
0.06416
5.789
1.139
0.06824
1.507
0.03426
0.1186
0.08954
1.515
3.336
1.859
2.267
0.08627
0.8418
1.074
0.06471
0.003366
0.9244
0.01744
0.007478
0.6814
0.7757
2.575
11.08
0.814
8.023
4.551
0.7188
3.138
0.6852
1.604
0.03874
0.2446
0.02206
4.562
0.02097
3.148
0.01778
0.001042
0.03385
0.1178
9.143
0.9294
0.007388
0.02524
1.367
2.162
3.945
0.4983
3.071
0.01786
7.508
0.01652
2.215
0.1501
2.446
0.01676
14.27
0.02584
0.01124
0.01515
2.556
28.22
0.9218
0.1473
1.506
1.075
0.01346
0.7092
18.23
0.01219
2.348
14.55
1.314
1.512
1.252
2.729
0.001138
0.05187
0.01855
2.4
0.9954
8.18
25.6
18.02
0.5455
17.2
24.84
0.02171
7.466
4.964
1.097
1.009
0.07625
0.9935
0.4484
39.82
1.129
2.362
0.006111
12.36
0.2093
0.1988
0.1121
0.4932
0.9728
1.683
12.96
0.9605
0.07976
8.666
0.02004
0.01598
0.0211
1.342
0.3549
0.09634
5.519
2.781
30.1
0.1361
0.03229
0.01101
0.009722
0.08338
21.32
1.494
0.05488
0.02649
0.9625
0.05342
3.709
0.005317
1.19
23.12
2.732
0.249
1.788
1.831
1.395
3.037
0.02802
1.848
14.06
0.04004
0.0223
1.942
7.94
0.3156
14.46
4.6
2.703
1.204
3.079
0.003095
12.35
3.626
1.045
6.618
0.4911
0.1068
76.9
0.0007961
0.001404
0.003223
1.96
9.511
30.85
0.001109
1.697
1.219
2.363
8.375
11.9
3.631
0.482
2.437
1.418
0.06156
19.11
0.008946
0.2353
2.937
0.03607
9.067
0.01474
0.3213
0.09665
2.329
0.009917
2.289
2.685
0.7566
0.02784
26.44
0.06991
0.001401
0.01824
3.635
0.0448
2.271
0.2158
2.364
0.01686
0.1758
1.917
0.00779
2.472
1.251
1.73
1.749
0.01994
31.71
0.04669
0.3406
0.1026
1.289
3.991
0.04694
0.05296
0.01861
0.01318
0.02444
20.3
3.538
1.341
0.1591
1.51
0.09051
0.05568
0.02864
0.02732
0.1633
0.9499
7.963
0.3964
4.234
1.68
0.7718
22.54
0.03168
0.04346
0.004196
0.01056
2.219
0.2885
0.0174
3.02
15.02
4.562
2.935
2.659
0.1028
0.8301
0.01665
2.752
0.9276
0.05834
0.2172
0.01794
6.14
0.6089
1.356
0.4249
0.2921
0.042
0.836
28.04
0.007011
0.02121
0.03927
0.0571
4.323
0.0653
0.0652
1.285
0.013
0.3092
0.03387
0.05188
1.595
3.088
16.47
0.005157
0.04712
0.07306
4.254
0.12
0.07079
1.841
0.1346
0.03919
0.01192
0.02955
0.01224
0.03796
3.137
1.051
0.106
19.42
0.0374
0.4163
0.7764
0.317
0.06592
139.9
1.189
25.01
0.1029
0.01975
0.7795
0.001514
22.01
0.001499
31.61
0.4194
0.002175
7.591
0.01777
0.5122
1.276
0.01692
31.69
0.05222
21.06
12.74
1.12
0.02041
1.994
0.02037
0.0835
26.83
6.111
0.02647
0.02551
0.01635
0.04084
0.2865
0.001174
0.4381
15.63
0.02462
5.256
1.344
0.2975
0.03329
0.006979
1.763
0.02521
1.593
4.323
12.01
4.832
3.288
0.004039
0.002776
3.286
24.1
1.253
13.5
0.001264
1.804
0.01452
1.505
0.001237
1.504
3.287
21.65
0.02728
2.409
0.02155
0.05825
6.673
5.206
1.826
5.86
0.004928
0.001928
1.077
0.0125
3.987
3.846
15.66
0.007812
1.593
0.0212
19.66
1.747
0.5013
0.01102
0.003157
0.01611
3.119
29.9
0.001182
0.306
0.02719
1.425
5.287
0.02846
0.05522
0.6064
31.03
0.06843
1.743
4.319
0.01753
1.355
5.677
0.03781
0.01627
0.004143
0.01601
0.4229
0.08679
1.196
0.004036
11.93
0.01727
0.02077
3.145
0.9804
16.01
4.961
0.04181
0.04363
0.129
5.374
1.187
1.02
0.8414
0.019
0.06056
1.5
0.03927
3.724
0.01169
2.977
1.768
1.382
0.02125
18.82
3.252
0.07422
77.64
0.0161
57.95
6.714
2.592
21.96
0.7852
9.323
2.062
0.02312
3.972
0.001334
5.466
3.701
4.62
0.02043
0.05042
1.511
3.497
0.01022
0.6241
3.1
3.478
0.006744
12.49
2.993
7.847
0.9487
1.535
3.965
6.378
35.38
0.2256
2.739
0.00119
6.207
2.499
1.026
0.01901
2.151
0.02488
3.081
0.8529
1.503
3.652
2.167
2.567
1.982
0.3525
11.93
0.6796
0.04577
11.93
0.4225
0.05709
0.01868
1.322
0.05909
0.006681
0.01798
35.91
0.08113
0.002025
1.168
0.006376
0.004839
0.0007818
10.03
0.1005
1.065
0.002025
3.832
0.01905
3.637
18.63
3.667
0.02191
1.693
1.2
0.0006328
0.9998
1.447
1.616
0.001551
4.26
0.001301
0.0006034
0.02654
19.36
22.49
0.0372
1.586
0.2473
0.01784
1.576
0.0674
0.5099
0.7001
1.408
0.001233
0.6328
0.7219
3.363
0.5806
3.294
0.03122
0.3589
6.102
0.04388
0.5489
1.086
2.358
1.27
7.2
0.4052
0.004319
0.329
3.122
0.6391
0.1761
4.513
0.231
10.75
0.01108
0.01547
3.537
30.85
0.06007
123.5
0.01656
1.595
1.428
82.07
2.632
116.8
13.28
3.183
1.884
0.003281
0.3818
5.211
0.04084
3.202
29.57
0.1256
1.706
0.6973
9.166
7.726
0.007561
0.007631
0.0247
0.0161
0.1588
9.549
1.253
0.01626
83.76
0.05108
0.503
0.4205
0.5115
1.211
1.204
54.99
1.779
0.09464
56.86
3.074
5.39
1.985
3.509
0.002259
14.23
0.07224
0.01556
1.961
0.2718
0.1334
0.7378
0.4528
1.253
2.388
7.54
0.7852
3.839
0.6941
5.328
1.315
0.2269
4.071
2.726
0.06246
3.412
1.213
1.674
4.617
29.75
0.003235
0.03233
0.01383
1.329
0.8511
1.41
0.6289
2.706
3.862
17.42
0.01728
11.23
4.39
4.582
0.08594
4.254
1.709
2.818
0.01603
1.706
0.005294
345.7
0.001307
1.903
2.306
0.4354
2.194
4.64
0.0442
0.02824
0.01897
12.06
0.1369
1.668
3.662
1.555
0.03664
0.01379
0.00679
73.2
1.983
0.01606
0.005187
0.1048
0.5021
12.21
0.1132
1.049
2.666
2.92
14.61
1.139
6.842
1.844
0.7782
0.1713
0.008621
35.75
0.01737
0.3597
0.008335
130.2
24.29
0.06422
19.08
0.02224
28.56
0.1584
0.0207
3.507
1.546
5.94
0.01737
0.1587
3.265
0.008316
0.008404
0.3368
0.05609
0.557
4.44
2.658
0.1438
0.02817
17.53
6.185
4.156
0.07878
0.002846
1.377
2.536
2.702
1.519
0.0282
0.01742
0.01996
2.012
1.97
0.02301
4.015
4.368
0.1558
0.7629
2.261
0.1706
4.717
1.01
4.195
0.005201
0.01523
0.005044
1.548
0.948
1.992
6.365
0.0006134
0.1116
0.2258
11.32
0.9515
0.03845
2.97
0.7818
19.88
0.05113
0.02133
1.518
0.09464
0.0292
1.311
0.0251
1.78
1.897
0.01353
1.224
3.79
0.4927
16.11
0.0648
0.01625
0.00802
0.007145
0.02049
3.217
0.000729
2.757
1.194
5.231
0.05263
0.01798
8.558
0.04822
1.538
0.7817
0.00165
12.99
0.3189
0.9795
0.0157
16.18
0.01452
0.0172
0.001134
49.03
0.01848
4.215
1.941
0.005005
0.02286
46.57
0.9404
2.864
1.187
0.007504
0.04385
0.7435
5.027
3.04
3.018
0.534
2.171
4.603
0.03522
4.367
0.01722
77.97
0.7435
0.4532
0.003185
1.563
0.3962
5.081
15.53
0.03348
0.02024
2.272
9.108
2.193
1.037
0.00128
0.0804
1.871
0.4783
0.526
1.195
6.483
0.02509
3.046
0.9484
8.538
0.02897
0.07571
0.013
105.5
0.9809
0.1785
0.001063
4.912
0.9048
0.01787
0.01488
4.447
0.02082
0.5798
0.4
0.02368
0.008365
0.9566
0.7173
0.04886
0.01103
1.333
0.8102
0.3814
0.01769
5.105
0.01631
3.705
1.146
2.239
4.686
0.2439
0.02062
7.239
1.57
1.847
0.1513
3.545
0.4836
15.41
0.02312
0.01877
0.01361
13.47
0.03233
2.446
5.339
0.9437
0.843
0.02047
0.1725
37.91
0.6361
3.327
0.8586
0.4666
3.007
1.6
0.9551
0.7464
2.349
3.189
0.4139
0.04998
6.736
1.033
0.01616
4.53
0.4252
0.01143
14.04
6.837
0.02587
8.398
1.414
0.01804
0.01766
0.1568
0.3807
0.04486
0.0409
1.147
2.481
1.689
1.849
0.02919
2.65
0.7072
0.8263
0.6598
0.05413
0.02655
0.03647
4.811
0.08753
0.0152
0.01631
0.143
10.8
20.49
0.6069
0.02573
1.323
0.4228
0.7401
3.58
0.01603
0.06278
0.06564
0.0007803
0.025
0.3205
0.05327
1.14
0.03734
13.01
0.01989
0.009454
9.329
4.055
0.01584
0.3105
0.06519
4.675
40.3
38.88
0.04679
2.521
42.02
9.026
0.799
23.42
1.43
2.829
3.042
0.92
2.305
2.088
0.02456
0.3327
18.34
0.08691
3.927
0.003286
0.001389
0.7982
4.997
0.02088
6.366
10.65
0.01514
0.8743
0.06965
0.4448
0.03981
0.1919
2.196
0.02086
0.6618
0.01677
1.826
0.1733
0.007692
0.843
0.8622
4.97
2.732
0.3291
1.81
48.93
0.01999
3.311
1.994
0.01678
17.29
0.0186
0.4724
0.01682
0.007438
0.02801
0.03294
0.5824
5.167
0.01802
0.004862
5.353
3.505
3.023
0.02457
86.7
3.07
5.286
1.477
0.03627
0.001192
6.487
0.01424
2.55
3.646
0.4314
0.1483
19.62
0.0527
5.56
0.02252
0.6352
2.027
1.814
3.58
22.06
13.07
16.9
2.664
0.06855
0.01694
3.291
0.3567
0.2107
4.082
2.334
0.01973
0.03612
0.873
0.2242
73.45
8.574
1.616
21.79
49.34
26.98
0.02076
5.478
1.887
1.992
0.103
17.3
1.099
18.75
4.861
9.014
0.01612
0.041
0.5154
2.226
0.4472
0.9058
1.382
2.511
0.007741
0.05839
0.02766
2.334
3.365
1.059
2.29
0.01411
0.8547
30.76
0.0112
0.01295
0.0108
20.54
0.04828
0.05584
0.06801
0.04242
0.03918
1.201
1.905
0.4347
0.8161
0.02562
0.165
21.55
2.549
0.7473
6.59
0.01403
1.315
7.018
0.03262
0.09833
4.781
8.73
6.96
0.09156
0.427
0.2079
0.9679
3.638
1.569
62.71
1.158
10.28
0.001314
0.5051
3.192
2.969
2.907
0.01829
0.002093
0.002123
0.03268
45.82
0.001812
0.001733
0.001316
0.01533
1.145
0.001493
7.348
2.246
1.177
2.806
1.139
0.2302
0.007829
0.9697
1.494
5.192
296.3
96.24
17
0.3369
0.1855
0.04224
0.03432
4.404
0.0005642
3.851
0.02142
3.769
1.767
0.05289
1.951
2.366
2.51
0.07121
39.7
34.89
19.56
0.01745
124.4
0.1164
3.745
1.165
0.4578
0.02862
0.01628
4.335
15.66
122.7
65.74
0.4948
0.04822
0.0294
0.01266
0.007132
0.04341
0.9639
0.5119
12.05
2.345
0.1453
5.267
5.335
0.4764
2.633
1.536
0.619
0.6095
0.0163
1.817
0.02519
0.06003
1.422
0.03086
2.205
26.05
1.715
0.09656
6.645
2.852
3.04
0.01849
0.3079
3.567
0.001249
0.0183
0.03669
28.36
2.673
0.01758
0.8279
0.00689
0.01706
2.24
0.01678
1.882
0.01835
0.8111
0.02138
4.635
0.02145
7.272
0.01126
0.009557
16.02
51.1
1.211
0.8816
0.4739
5.057
1.092
3.142
1.387
1.571
5.748
0.004165
2.04
6.424
0.02511
7.394
0.4033
3.086
3.46
0.01667
0.4101
6.253
42.73
0.01809
0.01892
0.802
0.02173
2.522
0.1238
1.473
0.6447
0.6705
0.03158
0.04815
0.02812
0.5921
0.01524
0.06279
0.01746
3.577
0.01476
0.9816
0.1039
1.683
1.364
0.0277
0.02219
0.04035
0.2406
1.858
2.804
0.0249
0.01891
0.6014
12.24
0.5436
7.976
0.9313
0.9293
3.6
0.1983
40.37
0.01965
0.681
2.044
0.001785
2.039
2.137
4.082
3.177
2.965
1.561
0.6633
13.61
16.1
0.07226
0.02147
0.001255
13.46
9.267
0.07612
0.9374
2.601
0.719
14.03
2.278
1.779
0.04078
0.05483
18.28
0.01813
1.596
0.1032
18.75
2.191
0.7277
1.382
2.515
0.9364
1.975
0.5197
0.6067
2.72
2.545
2.347
3.929
0.02382
4.782
0.05331
0.01736
0.8381
2.48
0.002308
0.4836
0.007568
27.21
5.013
17.75
421.4
0.06274
20.78
17.37
2.65
0.6414
0.01136
0.07828
0.01005
0.1111
1.288
7.251
6.498
0.0225
44.52
0.1674
3.055
10.53
0.0218
8.908
0.01116
0.04592
0.5271
2.814
1.559
1.153
0.03345
0.08242
1.031
1.578
0.9173
0.03135
0.0179
0.007985
0.2075
0.01763
1.5
2.53
0.02037
0.03563
0.08898
0.004473
0.8087
0.8521
2.436
3.519
0.01678
110.2
0.07718
7.74
0.0009642
0.02272
0.0692
0.01504
53.45
0.03034
0.8386
1.259
1.417
0.9115
59.24
3.769
2.513
0.9119
15.92
1.1
0.005279
4.732
1.683
1.4
0.7272
20.27
1.47
0.06593
0.004284
5.836
1.261
7.376
0.03743
0.0673
3.596
73.07
5.978
7.911
0.3254
0.005142
340.5
0.01708
8.075
1.994
23.56
0.02858
0.892
0.05042
0.003672
4.641
0.02079
0.06615
23.74
5.639
0.01605
2.049
0.03003
0.07278
1.632
2.339
1.655
1.122
0.03649
0.01719
0.04248
0.02455
0.009255
0.1856
0.109
0.7307
28.97
0.00955
0.002545
0.4386
0.02296
0.005028
0.004984
0.432
1.443
2.233
16.55
2.757
0.02141
0.9002
0.6836
15.05
0.03662
3.196
0.02809
0.6804
0.9422
0.004929
0.002007
0.01013
1.841
3.428
6.525
0.008742
5.427
12.7
0.7646
26.49
0.01031
0.6712
2.379
0.141
0.93
1.793
28.48
2.067
0.01397
0.02485
0.001437
2.846
0.005443
0.04051
0.051
2.558
55.12
0.007661
2.532
0.02149
0.01805
3.904
15.68
4.379
4.116
1.379
0.1612
7.016
4.661
0.007181
0.02187
0.01723
0.913
18.21
0.02347
0.005606
2.017
2.107
1.185
1.196
2.45
0.02124
0.02445
59.48
2.065
14.25
5.273
78.66
0.1458
0.02067
17.48
0.1336
1.934
0.0009593
0.1213
0.01865
1.681
0.8048
1.024
0.01575
4.128
3.18
35.32
1.982
1.437
5.172
1.789
0.3795
0.0184
0.02052
0.9694
0.7514
1.174
0.02674
0.01321
1.739
19.23
0.02201
30.87
2.893
1.626
0.02343
242.5
2.306
0.1628
0.01628
0.03505
2.509
63.23
1.932
0.01613
0.01906
0.02313
1.184
0.3087
5.503
0.07646
3.464
2.804
6.473
0.03117
5.417
0.9566
0.2945
0.8027
0.1865
0.1991
2.054
2.1
0.005843
0.007702
0.01943
13.95
3.626
95.03
0.02526
0.04081
0.2091
1.903
3.557
0.06988
1.822
0.03606
1.291
0.03909
0.8673
2.072
0.8826
0.02731
0.1743
0.01949
0.01772
2.138
5.085
0.1258
3.845
0.8968
24.29
0.006887
0.01365
0.01803
0.03182
11.49
0.03946
2.073
0.00133
0.4531
0.01742
2.596
3.139
0.6204
0.2528
1.297
1.339
3.289
0.009393
0.8115
2.312
0.2086
2.373
0.08133
0.3388
0.02775
1.706
0.03826
0.002431
0.03635
10.01
0.1036
0.02371
1.589
0.01594
0.2209
14.5
0.00564
0.008126
52.66
2.243
2.164
162.6
10.01
3.586
0.009736
2.119
0.08278
0.7749
8.78
0.5906
0.01862
0.0254
0.01401
25.37
0.02076
0.01713
7.223
2.742
4.354
0.2693
0.02937
0.1264
21.35
0.4631
0.05029
7.017
1.583
0.01495
0.02003
0.01492
0.01793
0.0561
19.72
0.02341
2.687
0.02612
4.259
0.128
1.247
1.668
1.315
0.0929
0.07209
0.01781
2.143
0.01021
0.02307
1.934
21.91
0.821
3.287
0.001347
0.01668
0.4191
1.886
0.001798
0.001589
1.275
0.007743
1.401
1.714
2.048
2.83
0.2652
0.4199
1.284
0.03294
24.87
2.345
1.184
0.6258
0.08551
4.577
3.183
29.06
0.01672
18.7
0.008527
0.04222
0.02227
0.1028
14.78
0.3063
0.03891
0.1068
0.01622
0.9974
0.9983
21.47
0.6967
0.04956
0.09111
148.6
2.82
0.01178
0.02435
0.03227
0.1633
2.932
0.6011
0.005409
0.06658
0.06646
3.088
0.6577
9.965
0.06968
0.08258
18.49
4.28
3.839
3.301
0.5072
0.02085
4.477
8.16
8.384
1.393
2.804
6.703
0.02984
1.731
0.1996
12.43
1.681
0.01846
2.632
0.01902
2.467
0.4945
3.05
4.514
1.302
6.046
4.888
2.668
24.07
1.091
18.36
0.3188
1.037
0.006877
1.645
1.05
2.207
0.04653
1.212
0.9206
0.003052
1.985
182.2
12.81
0.01734
0.01849
3.371
22.3
0.8867
0.01592
1.257
0.15
15.56
21.81
35.05
0.008945
10.45
1.635
0.001456
0.001497
0.01716
19.57
0.4506
2.244
1.193
1.831
0.01228
0.004361
165.7
2.166
0.05681
0.02656
0.2462
1.221
0.009385
0.4109
9.658
2.183
0.001383
7.611
1.615
0.03458
0.03139
0.0167
3.554
0.007434
0.02989
1.562
73.87
0.04178
4.313
8.706
1.306
0.2329
0.9712
4.467
0.5204
0.0133
0.1409
4.453
0.01713
2.539
0.002503
0.003564
0.003571
1.762
1.687
0.01576
16.31
0.03943
0.01998
0.01854
1.359
0.9007
1.888
2.701
0.15
0.8884
5.939
0.2132
0.02656
0.007404
0.05256
1.37
0.00163
0.001652
0.08021
0.7746
0.008057
18.39
0.3482
16.81
1.544
6.076
0.02177
10.17
0.8618
1.936
0.5315
4.227
2.351
0.6846
0.6912
0.02987
0.5502
0.05234
3.156
0.149
0.228
0.234
0.1716
70.01
1.964
0.7253
1.354
1.199
0.0198
0.08133
0.8935
2.827
3.39
1.564
0.01709
0.02762
0.02485
2.452
0.03125
17.61
0.01917
5.033
0.01741
0.01683
1.004
4.446
0.7435
0.02147
0.006579
14.83
0.04004
18.88
12.78
0.9886
0.1869
1.114
0.02849
0.006757
1.42
5.53
0.7726
4.442
0.4687
6.712
0.2018
0.01216
0.2294
1.946
0.715
0.5216
1.543
0.01585
0.06343
2.165
0.01114
0.009587
2.172
0.7423
19.35
0.6012
2.121
1.05
20.38
1.884
0.01759
0.0119
18.22
2.821
1.713
2.35
7.459
10.67
0.01953
173.7
1.007
0.01232
0.1641
3.009
0.01941
85.51
0.02833
0.0382
1.676
0.007412
17.07
10.62
0.03933
0.946
23.63
15.97
22.58
4.622
0.01923
0.2182
4.693
17.54
0.07994
2.005
0.7864
0.08173
0.04272
0.03161
5.143
1.573
1.329
0.01444
22.57
17.73
0.2055
1.305
1.022
0.03065
29.93
0.2451
1.918
14.21
5.306
0.001378
0.008653
0.02389
0.2325
0.01944
2.047
2.109
3.891
1.435
0.4148
2.318
0.08318
0.001374
0.03822
0.01799
7.531
1.174
1.498
0.01817
0.1034
0.6327
0.4719
0.8072
5.635
0.007746
2.798
1.353
1.436
5.721
3.498
1.8
0.0006532
2.219
5.068
0.8349
0.1778
10.74
11.41
0.03345
0.9843
0.02536
0.1258
13.84
0.0141
0.01244
2.585
1.987
114.3
0.0654
4.204
0.02241
1.867
0.02072
1.694
0.03796
1.187
0.4248
2.16
0.1229
0.6224
1.828
3.275
4.375
0.05233
0.02365
83.77
0.02465
0.1441
0.0007979
0.0007973
4.424
0.01894
18
0.04543
0.8541
0.4063
0.368
0.5536
1.082
0.01771
0.02173
1.689
0.3055
2.175
3.002
0.02138
0.002598
0.527
1.114
0.01708
0.9318
0.8402
0.7305
2.1
0.04752
2.902
0.0454
18.08
0.04249
0.6965
0.07103
4.284
13.36
0.4123
1.706
52.54
0.002535
2.653
2.705
0.37
0.008081
2.062
0.01987
1.939
0.04445
2.4
0.1793
1.729
0.01848
0.7731
0.02754
0.9724
0.01489
0.07915
10.8
7.782
2.732
0.01525
0.02646
3.016
0.7127
11.74
0.8072
0.01465
0.1523
0.752
0.05525
0.8824
3.431
7.186
0.01288
0.01926
0.5804
0.002949
4.329
6.724
2.114
0.005653
0.1642
0.01883
1.272
0.01818
0.0106
0.02164
17.29
0.01252
5.361
2.641
0.01347
17.01
4.113
1.293
0.1289
0.02492
8.76
3.586
1.161
0.04764
2.919
0.025
0.006226
0.101
0.003072
0.01588
8.538
43.21
12.41
0.0129
0.01738
0.02355
6.977
0.1907
3.892
0.4616
0.5652
2.509
0.01978
20.71
0.01769
0.2988
2.243
0.09001
0.587
0.1272
0.02255
3.028
59.72
3.087
16.63
8.736
0.2045
0.03044
0.3052
0.3919
4.118
0.5238
1.05
0.006109
3.031
52.01
0.01836
3.949
0.01335
0.65
1.169
1.124
2.302
3.391
2.015
1.165
1.144
0.06476
0.004491
0.02249
0.01777
5.969
23.25
1.309
1.352
0.4084
1.027
3.123
1.998
0.05533
0.05858
0.01358
0.06398
4.585
41.51
1.664
0.8417
0.004421
0.1212
11.57
0.0187
0.01729
0.04454
1.167
115.5
0.3227
0.7152
0.03189
0.4938
6.755
42.48
1.874
105.7
0.01801
0.2283
1.169
3.95
2.212
0.1944
0.06501
0.03354
0.09137
0.01031
0.005211
0.737
0.0285
0.01632
0.4589
0.01627
0.0508
0.04365
0.02692
1.057
0.6593
0.01432
0.6453
0.8383
0.03423
1.382
1.114
0.09643
12.04
2.78
0.2878
0.01728
1.954
0.02558
0.5726
4.42
1.578
0.007192
0.7418
58.27
0.8841
5.028
3.162
17.11
7.67
0.2844
0.5923
3.967
0.002662
3.052
0.0534
0.3871
1.134
16.84
0.00653
1.777
74.29
0.001158
2.813
0.01627
0.005234
15.58
0.006447
0.01326
0.0201
1.243
0.2789
6.597
0.101
2.39
8.379
7.945
0.02078
0.01794
0.003002
92.41
0.008017
0.843
0.02126
17.05
0.2628
0.01999
7.236
3.329
0.02757
0.00218
1.708
0.1945
19.61
5.614
0.04162
0.02946
0.9826
0.01702
0.4076
3.385
2.306
42.05
21.82
0.0183
0.5312
1.453
0.001995
0.1901
1.347
1.122
2.553
0.03465
0.01685
0.002807
3.964
0.02207
0.208
0.2118
0.0205
0.04042
0.02692
0.007474
2.943
0.01652
0.02517
1.084
0.2739
0.04876
0.01733
3.447
0.01376
3.418
4.746
0.05174
0.01209
0.01388
1.224
6.407
1.465
1.283
0.5859
0.08042
0.22
15.85
7.875
0.5629
17.99
1.109
0.09648
1.752
16
2.967
0.09207
0.4158
1.344
0.02115
1.225
0.0488
1.451
4.74
27.52
0.7121
1.159
1.197
0.02397
1.322
14.26
0.07521
0.1332
1.541
0.9123
0.001889
7.195
183.9
11.46
0.0726
4.017
38.67
0.2972
4.918
0.1609
0.01259
33.58
0.008954
3.442
4.859
2.346
1.113
0.9548
5.187
0.8095
1.209
0.8797
2.27
3.501
0.008056
0.03176
0.9214
2.267
0.01771
0.007062
0.01905
5.705
0.01232
0.5429
1.163
1.547
8.737
0.00243
6.672
0.3827
0.03715
0.01295
1.463
33.35
0.05184
0.6385
0.002503
0.01795
0.002055
0.002223
0.01727
2.334
0.01783
41.56
1.291
11.61
0.8948
0.02989
1.561
0.01959
9.775
0.3243
0.2014
5.831
1.679
0.06167
0.06048
1.686
0.02909
0.002734
1.579
0.2363
0.0384
5.19
0.002282
0.003087
0.003088
1.043
0.3489
57.75
2.588
0.3826
0.000924
0.000918
0.01388
0.02609
0.03326
3.893
0.5781
3.084
0.1831
0.4743
0.01799
0.3575
4.101
4.422
2.747
2.4
1.826
0.01648
3.138
0.01119
0.4989
2.786
0.2502
0.3308
1.954
1.526
0.03743
70.27
4.177
0.004018
2.555
1.731
18.69
0.01125
1.469
0.9089
2.348
7.782
0.1934
10.6
14.16
0.02473
1.23
0.01384
0.01276
38.52
15.47
0.7779
66.82
0.191
0.09638
2.866
0.01485
1.453
0.4689
0.7681
50.77
1.218
0.01339
21.41
1.2
1.441
0.6977
1.763
3.088
0.1583
3.193
44.44
0.09507
0.03591
2.674
0.001167
0.05252
1.038
1.81
21.95
0.3531
2.554
0.5189
0.002704
1.243
59.82
0.1549
0.7374
0.005749
1.152
0.6938
44.82
0.6797
0.2035
8.28
3.758
0.02546
0.4265
0.01838
9.008
27.03
0.03537
4.851
24.95
0.4673
3.744
4.567
1.303
2.393
0.0638
0.002945
50.64
0.008952
1.784
0.0166
24.89
0.03229
16.76
1.611
6.573
0.05519
0.0015
0.05434
0.3922
1.157
1.308
0.0007221
51.71
4.832
0.01058
0.01769
0.8277
1.259
1.554
7.251
1.9
0.01705
3.88
6.019
0.02089
60.88
0.01072
3.289
17.62
0.8295
0.01736
1.272
0.01725
3.027
7.28
0.2598
0.004735
0.0183
0.5053
5.113
1.385
3.889
0.3531
0.9102
4.242
3.871
0.003274
0.01562
0.018
19.84
6.717
0.1042
3.236
0.01283
0.05015
2.782
0.002804
1.209
2.199
0.01957
2.664
2.265
0.8456
0.2043
5.874
4.448
0.0009314
0.0007684
118.8
1.755
1.05
0.02006
0.01783
1.003
6.895
0.02178
0.01407
2.202
0.08986
0.02098
3.653
7.263
59.88
0.1373
2.211
1.347
0.02832
2.933
5.129
0.02954
0.06475
0.01705
0.1703
1.279
16.98
1.366
3.189
1.162
2.405
0.3126
14.13
0.03853
0.9457
0.02744
4.779
0.01757
3.112
0.8757
3.695
0.01815
0.03005
2.031
2.278
0.03106
2.083
1.323
1.492
0.1562
0.1172
0.4233
22.28
7.515
2.682
17.03
2.113
2.132
107.9
0.7398
13.19
2.242
3.172
0.6653
24.25
3.225
2.49
0.02558
1.728
0.4339
0.4132
2.605
0.03027
0.02427
13.6
0.03912
0.1276
1.122
0.202
0.1607
11.42
0.9352
0.0236
0.01476
3.49
0.6555
0.02088
0.00421
0.01663
0.05641
0.2498
7.873
0.4097
1.095
0.8804
0.04063
1.184
20.15
1.66
4.214
1.784
1.632
2.5
0.01123
6.88
0.03519
10.23
0.0417
15.07
3.581
0.107
0.8165
0.07119
0.227
0.3672
1.519
0.1325
13.17
1.448
0.02326
0.09216
0.0245
0.01403
0.04416
17.8
4.299
5.276
0.006545
0.001482
2.993
0.01792
0.01597
0.1509
5.147
5.44
1.205
9.682
18