/*--------------------------------*- C++ -*----------------------------------*\
  =========                 |
  \\      /  F ield         | OpenFOAM: The Open Source CFD Toolbox
   \\    /   O peration     | Website:  https://openfoam.org
    \\  /    A nd           | Version:  8
     \\/     M anipulation  |
\*---------------------------------------------------------------------------*/
FoamFile
{
    version     2.0;
    format      ascii;
    class       volScalarField;
    location    "5";
    object      nut;
}
// * * * * * * * * * * * * * * * * * * * * * * * * * * * * * * * * * * * * * //

dimensions      [0 2 -1 0 0 0 0];

internalField   nonuniform List<scalar> 
63579
(
1.483e-06
7.87e-06
3.863e-06
1.6e-06
5.388e-06
2.671e-06
0.001012
0.07044
0.001766
0.0002131
0.0001487
0.08175
0.0001999
6.695e-05
0.1605
6.561e-05
0.002422
0.01994
0.02329
0.0001574
0.001917
0.4126
0.5196
0.000886
0.5164
0.03499
0.5049
0.02183
0.6153
0.02221
0.4126
0.5121
0.5791
0.5874
0.0009293
0.6344
0.0001483
0.003179
0.02342
0.001581
0.4395
0.002319
0.05693
0.02095
0.6353
0.002102
0.0006203
0.0177
0.004977
0.4136
0.01268
0.5113
0.00112
0.006226
0.5759
0.01941
0.5801
0.5791
0.5895
0.514
0.004388
0.04953
0.0001578
0.0001185
0.5341
0.0008101
0.008234
0.0002585
0.0509
0.5934
0.005977
0.0002325
0.6205
0.0004065
0.01442
0.002164
0.07832
0.002585
0.03498
0.0007377
1.005e-05
0.4269
0.0003362
0.01859
0.0007781
0.4476
0.01663
0.006703
0.3751
0.006423
0.002209
0.3031
0.00672
0.1957
0.0008682
0.06876
0.006515
0.001996
0.331
0.002918
0.5573
0.5573
0.5817
0.5773
0.424
0.1359
0.1291
0.009838
0.08626
0.5758
0.5734
0.0008089
0.009149
0.1302
0.007023
0.5834
0.002041
0.0005032
0.2033
0.07629
0.5773
0.0007762
0.00313
0.4264
0.0003271
0.007403
0.001467
0.01274
0.5361
0.001069
0.01042
0.1151
0.3062
0.5934
0.001902
0.01581
0.0004967
0.3762
0.002661
0.3264
0.00996
0.4395
0.05504
0.01837
0.5761
0.5754
0.576
0.002605
0.2917
0.03649
0.07744
0.01438
0.5477
0.009642
0.000746
0.0253
0.02576
0.0203
0.003695
0.01013
0.5738
0.0105
0.004465
0.0007657
0.4447
0.5745
0.002746
0.0007038
0.1868
0.07352
0.3988
0.007342
0.002656
0.2764
0.006386
0.5753
0.1642
0.5386
0.5386
0.08197
0.01298
0.01697
0.009113
0.006438
0.002492
0.0008477
0.000922
0.3808
0.006701
0.4148
0.5906
0.581
0.2284
0.3231
0.01216
0.3949
0.0004835
0.3464
0.001347
0.3234
0.0001604
0.00103
0.02439
0.5835
0.2287
0.5488
0.03274
0.001451
0.001948
0.0325
0.3811
0.3177
0.5841
0.2264
0.01179
0.008049
0.6365
0.002469
0.006483
0.0007698
0.05207
0.004765
0.0003902
0.002053
0.4262
0.09685
0.02518
0.06815
0.1071
0.4993
0.5905
0.01011
0.4211
0.5528
0.5732
0.01204
0.5379
0.5761
0.001766
0.227
0.001286
0.01284
0.2146
0.0006423
0.008776
0.008654
0.3872
0.5946
0.4419
0.05013
0.1537
0.3864
0.002802
0.0001667
0.001908
0.0007859
0.007894
0.5728
0.5817
0.003536
0.00351
0.005931
0.00926
0.06751
0.008354
0.5721
0.0001617
0.5949
0.5883
0.5746
0.003757
0.01621
0.001231
0.3942
0.001757
0.0008108
0.5225
0.01503
0.1423
0.3675
0.0003712
0.446
0.07117
0.00633
0.0004986
0.5714
0.007228
0.4495
0.0245
0.002384
0.5746
0.0006891
0.00742
0.6171
0.6087
0.1231
0.007476
0.5753
0.3482
0.009015
0.001187
0.007714
0.01502
0.5951
0.4924
0.005394
0.4398
0.008807
0.3273
0.0004323
0.5753
0.3084
2.888e-05
0.3858
0.005304
0.5728
0.01203
0.5763
0.5761
0.001522
0.001009
0.0011
0.004028
0.002674
0.002546
0.0005765
0.4505
0.0009099
0.5748
0.007078
0.5414
0.4891
0.5759
0.03245
0.002129
0.4708
0.5416
0.0007801
0.0122
0.00623
0.4699
0.02779
0.4028
0.3463
0.0003276
0.5461
0.3086
0.4364
0.05717
0.1161
0.0109
0.05919
0.0005533
0.4557
0.5273
0.002925
0.02648
0.03229
0.4516
0.5277
0.06665
0.001292
0.002538
0.06461
0.001483
0.5716
0.4822
0.09765
0.03297
0.0005245
0.001577
0.3113
0.1517
0.001362
0.008155
0.3115
0.006328
0.002231
0.0004915
0.001605
0.001755
0.005425
0.01097
0.03439
0.02599
0.454
0.00393
0.004004
0.003621
0.564
0.3194
0.0004088
0.3686
0.3584
0.584
0.002366
0.5866
0.00931
0.02043
0.02642
0.00786
0.0002206
0.3806
0.0008935
0.4011
0.01367
0.5903
0.4975
0.01713
0.321
0.003614
0.004816
0.004464
0.4271
0.5721
0.4113
0.01463
0.03561
0.5304
0.01955
0.4336
0.531
0.1056
0.5289
0.0004495
0.006316
0.0002351
0.4648
0.006167
0.5809
0.0008781
0.5158
0.002746
0.0002249
0.466
0.05188
0.0005133
0.0004459
0.02462
0.01435
1.674e-05
0.5784
0.001047
0.001437
4.024e-05
0.4364
0.0001957
6.307e-06
0.588
0.004213
0.2966
0.2996
0.4934
0.00643
0.02628
0.2819
0.002075
0.00354
0.5495
0.2931
0.009087
0.00109
0.5718
0.001413
0.4257
0.427
0.1758
0.009501
0.005526
0.004406
0.2982
0.0002614
0.2962
0.01096
0.01793
0.001765
0.5957
0.5822
0.009634
0.007752
0.004487
0.0003675
0.0003612
0.5664
0.5775
0.5821
0.04285
0.001907
2.113e-05
0.01254
0.003094
0.5637
0.5598
0.0252
0.6139
0.005352
0.03034
0.0107
0.6368
0.03449
0.0001402
0.02676
0.001844
0.004308
0.003456
0.0003378
0.4325
0.001001
0.5777
2.009e-05
0.4338
0.6045
0.004464
0.001358
0.03299
0.03243
0.4009
0.01466
0.4637
2.387e-05
0.5686
0.4415
0.5695
0.009887
0.06589
0.5626
0.0008794
0.5804
0.003092
0.07745
0.01577
0.0009869
0.001476
0.007716
0.3875
0.1794
0.002649
0.001346
0.001459
0.0002436
0.04439
0.3526
0.0004555
0.3916
0.001229
0.004787
0.003474
0.02551
0.004864
0.000782
0.4687
0.5044
0.6385
0.01538
0.2106
0.04446
0.04857
0.5477
0.5774
0.05712
0.3644
0.01176
0.3096
0.0009839
0.002015
0.4106
0.003018
0.5769
0.005948
0.003412
0.5958
0.006304
0.001214
0.005625
0.2727
0.0006299
0.0027
0.002302
0.004435
0.001257
0.001629
0.06811
0.00339
0.07326
0.000895
0.5489
0.5671
0.1958
0.5795
0.00441
0.01257
0.005215
0.001799
0.007905
0.087
0.009583
0.03896
0.0197
0.01136
0.2324
0.5801
0.0006486
0.5172
0.001277
2.515e-05
0.5897
0.1218
0.4862
2.429e-05
0.02542
0.009836
0.4313
0.4566
0.3435
0.3412
0.008674
0.002095
2.15e-05
0.01815
0.0005185
0.4787
0.004618
1.969e-05
1.452e-05
0.01788
0.002288
1.542e-05
0.54
0.001706
0.001205
0.4917
0.0008298
0.007455
0.001191
0.5557
0.01732
0.578
0.004759
0.0002766
0.02329
0.0183
0.0002967
0.1233
0.003811
0.0003521
0.5714
0.002794
0.4923
0.01905
0.3525
0.4449
0.000512
0.001273
0.6148
0.5961
0.5992
0.5565
0.6118
0.57
0.06869
0.6317
0.008237
0.3015
0.003044
0.007915
0.001797
0.002893
0.5603
0.0002801
0.5792
2.064e-05
0.002191
0.001629
0.3849
0.3796
0.09591
0.005921
0.0208
0.01447
0.1721
0.01829
0.0003892
0.0559
0.01761
0.004589
0.001629
0.5902
5.111e-05
0.2037
0.004567
0.2159
0.003467
0.5658
0.004783
1.633e-05
0.0002076
0.02472
0.3443
0.001192
0.5642
0.05937
0.006223
0.0006019
0.1681
0.001561
0.0008134
0.4107
0.4105
0.001362
4.597e-05
0.00505
0.0006615
0.2315
0.5224
0.5836
0.561
0.4766
1.975e-05
0.5741
0.0003137
0.03116
0.004349
0.4252
0.0002093
0.002036
0.4201
0.00124
0.0008403
0.1462
0.4159
0.3931
0.6319
0.03189
0.4395
0.5837
0.002766
0.5008
0.01294
0.04108
0.5751
0.5421
2.608e-05
0.006471
0.004932
0.523
0.03278
0.07955
0.385
0.01316
0.4987
0.002348
0.5836
0.6259
0.02681
0.002737
0.00717
0.0006765
0.5461
0.0003682
2.2e-05
0.0004979
0.2224
0.009494
0.0001907
0.00202
0.4203
0.569
0.002526
0.5805
0.5731
0.04586
0.5281
0.005379
0.2343
0.001629
0.5892
0.001452
0.0002882
0.01538
0.002925
0.2606
0.0005072
0.004037
0.0008361
0.0003032
0.00373
0.2229
0.002217
0.06501
0.005159
0.5315
0.3307
2.162e-05
3.418e-05
0.02518
0.4188
3.603e-05
0.003354
0.07161
0.001549
0.3246
0.6394
0.0001124
0.006043
0.005277
0.003292
0.5855
0.005826
0.02646
0.00849
0.4339
0.004455
0.0003295
0.5665
0.4948
0.4074
0.01309
0.01524
0.004751
0.02655
0.4249
0.4712
0.03941
0.6052
0.00313
0.3768
0.4258
0.463
0.005563
0.4555
1.662e-05
0.02707
0.01339
0.002369
0.02216
0.5747
0.001365
0.0228
0.003388
0.6089
0.001147
0.0004951
2.054e-05
0.001802
0.4543
0.004224
1.369e-05
0.3703
0.0009709
0.003114
0.3054
0.0006932
0.0004973
0.4568
0.009315
0.002689
0.1264
0.5813
0.001191
0.0004184
0.003227
0.0001839
3.01e-05
0.4292
0.001294
0.007718
0.0092
0.003966
0.4295
0.004157
0.0001304
0.02126
0.01692
0.5882
0.4767
0.03287
0.4981
0.005466
0.003634
0.001961
0.009943
0.002297
0.0008536
0.07722
0.004439
0.01223
0.01223
0.3431
0.5752
0.5933
0.0004935
0.004055
0.005422
0.37
0.0006077
0.0002422
0.1108
0.0257
0.5881
0.0006445
0.002321
0.01483
0.0005892
0.003326
0.07261
0.0004603
0.5795
0.0008292
0.005437
0.3795
0.3772
0.0435
0.5271
0.4635
0.3071
0.0245
0.5435
0.03759
0.577
0.5567
0.01077
0.1359
0.000631
0.07624
0.004319
0.0005981
2.201e-05
0.575
0.4301
0.01392
0.5796
2.846e-05
0.0008958
0.307
0.3073
0.001447
0.002863
0.2831
0.02212
0.6351
0.0005963
0.002782
0.005155
0.0002436
0.01152
0.561
0.01319
0.002434
0.0006878
0.001252
0.0001792
0.09387
0.2975
0.2996
0.0137
0.001127
0.3896
0.575
0.00796
0.6143
3.046e-05
0.006344
0.05803
0.004627
0.146
0.0001405
0.002657
0.4121
0.01205
0.01252
0.004819
0.003739
0.0115
0.0006295
0.00356
0.0002849
0.008345
0.01306
0.008887
3.934e-05
0.03231
0.5859
0.6194
0.00351
2.967e-05
0.06992
1.366e-05
0.005882
0.3792
0.0343
0.5759
0.0003791
0.01574
0.5627
0.03043
0.0006513
0.04619
0.01384
0.2264
0.0024
0.009726
0.5334
0.001362
0.008329
0.5758
0.00182
0.001035
0.009283
0.004804
0.0008194
0.00153
0.0059
0.01096
0.387
0.5765
0.599
0.006053
0.5906
0.004552
0.0008209
0.0009805
0.192
0.3396
0.0008452
0.01688
0.002206
0.46
0.6067
0.02147
0.5609
0.007041
0.002717
0.0009869
0.0006156
4.141e-05
0.002227
0.08415
0.005309
0.01375
0.4119
0.01697
3.431e-05
0.004146
0.0006228
0.432
0.005689
0.001194
0.5802
0.007675
0.0002271
0.007478
0.002595
0.6276
0.6276
0.002538
0.01053
0.5493
0.0006704
0.5263
0.5567
8.098e-06
0.0009747
0.4356
0.0009868
0.07454
0.001078
0.4293
0.02378
0.3902
0.3381
0.3564
0.2972
0.08906
0.008709
0.001347
0.01509
0.2962
0.006452
0.001941
0.1562
0.004902
9.784e-06
0.00246
0.0001874
0.02385
0.002503
0.5749
0.001697
0.01589
0.2811
2.65e-05
0.5789
0.4344
0.4635
0.01042
0.004259
0.5537
0.5832
0.06112
0.01707
0.0004431
0.001759
0.05171
0.02726
0.5747
0.0001675
0.5745
0.4178
0.4288
0.0002939
0.00181
0.586
0.08013
0.002979
0.4415
0.0379
0.0001124
0.6183
0.4132
0.0828
0.5641
0.004732
0.0001385
0.08011
0.0009433
0.5756
0.001642
0.5787
0.0008077
7.862e-05
1.963e-05
0.03284
0.2232
0.5615
1.948e-05
0.004005
0.6424
0.2337
0.02383
0.576
0.002981
0.002568
0.001905
0.001167
0.1457
0.0009334
0.4811
0.0006153
0.0006887
0.5762
2.757e-05
0.6349
0.003538
0.00165
0.3723
9.071e-06
0.366
2.016e-05
3.175e-05
0.001362
0.0007532
0.08321
0.005437
0.4744
0.006497
0.0001935
0.004275
0.003353
3.493e-05
0.2897
0.0002522
0.07127
0.006787
0.3326
0.007656
0.356
0.5728
0.01732
0.0026
0.3072
0.3916
0.0006305
0.3062
0.001636
0.09664
2.014e-05
0.2536
0.001029
0.0006694
0.002451
0.01539
2.359e-05
0.363
0.006883
0.5869
0.009366
0.002222
0.007737
1.134e-05
0.3765
0.2884
0.005361
0.6338
0.001615
0.002514
0.3328
0.6046
0.2933
0.0004212
0.5847
0.002459
0.01212
0.0002853
0.4256
0.2332
0.0008891
0.001267
0.006453
0.552
0.001547
0.5718
2.122e-05
0.001033
0.0005579
0.02073
0.3843
0.4739
0.01481
0.5845
0.004429
0.4686
0.00166
0.5851
0.0169
0.01449
0.08795
0.0611
0.003922
0.4657
0.6026
0.5892
0.3007
0.04202
0.5831
0.002704
0.005755
0.003677
0.5928
0.0003966
0.4314
1.106e-05
0.0003623
0.3486
0.07756
0.3523
0.003814
0.00302
0.002126
0.5812
0.01501
0.005086
0.001484
0.5655
0.007329
0.05419
0.614
0.01229
0.2363
0.332
0.006997
2.094e-05
0.01251
0.01052
0.5704
0.3718
0.0621
0.3766
9.181e-05
0.5933
0.5898
0.005071
0.5935
0.003968
0.01122
0.0009861
0.007169
0.0009371
0.588
0.51
0.00028
0.001311
0.0163
0.02335
0.0004692
0.5614
0.5923
0.0121
0.09966
0.00102
0.004531
0.5815
0.5804
0.6081
0.4801
0.0006625
0.0004494
0.5266
0.000735
0.001328
2.229e-05
0.547
0.5514
0.5298
1.662e-05
0.002849
0.001912
0.3233
1.618e-05
0.1675
0.004723
0.6043
0.4059
0.0005387
0.06027
0.01136
0.6201
0.2416
0.3079
0.5562
0.01071
0.0009264
0.6189
0.6107
0.09304
0.0007373
0.002475
0.004064
0.5404
0.001202
0.3464
1.769e-05
0.1351
0.1172
0.3995
0.04947
0.5697
0.5976
0.09654
0.4457
0.001673
0.5753
0.002128
0.004637
0.3768
0.5889
0.571
0.1312
0.001099
2.091e-05
0.004917
0.0002457
0.4009
2.401e-05
0.05584
0.0003976
0.2129
0.001864
0.0451
0.001974
0.3637
0.008857
0.4161
0.0002029
0.6082
0.004624
0.5802
0.3531
0.00198
0.6543
0.01575
0.5747
0.04378
3.68e-05
0.01775
0.5644
0.2488
0.04653
0.003232
0.001166
0.01703
0.5721
0.2497
0.00188
0.005294
0.6098
0.002723
0.4379
0.1122
0.207
0.004281
0.001018
0.01258
0.009766
0.2038
0.009025
0.009786
0.6068
0.3992
0.01267
0.294
0.5422
0.01576
0.009973
0.001579
0.0005082
0.02336
0.0001264
0.0004935
0.02097
0.0005917
0.01234
0.002572
0.5729
0.0447
0.5671
0.0004878
0.214
0.001152
0.5697
0.3804
0.5878
0.5653
0.001745
0.01266
0.4503
0.5749
0.006402
0.003789
0.0006343
0.024
0.0009834
0.5831
0.003277
0.5613
0.003886
0.125
0.001615
0.2515
0.0008111
0.4903
0.5648
0.4385
0.001606
0.0008196
0.01017
0.06835
0.00335
0.009215
0.3528
0.03599
1.357e-05
0.5424
0.001163
2.711e-05
0.01105
0.004627
0.006128
0.0009946
0.4194
0.3015
0.5929
0.001288
0.008776
0.002777
0.0002434
0.001766
0.01831
1.36e-05
3.479e-05
0.5757
0.0037
0.0005575
0.005824
0.01039
0.234
0.02129
0.02284
0.0004831
0.005043
0.001121
0.3924
2.858e-05
0.08352
0.09183
0.09993
0.02793
0.009655
0.003341
2.986e-05
0.01009
0.2243
0.002585
0.5749
0.5755
0.5753
0.003828
0.06926
0.185
0.0003472
0.000876
0.0005867
0.09189
0.5863
0.5434
0.4539
0.1941
1.938e-05
0.003644
0.4893
0.5799
0.006704
0.2684
0.001267
0.45
0.01098
1.932e-05
0.007651
0.05534
0.002153
0.006014
0.01399
0.001036
0.2532
0.004671
0.0009842
0.5784
0.5768
0.005245
0.003257
0.04972
0.0007655
0.0008818
0.0008323
0.005978
0.001737
0.4677
3.447e-05
0.0004625
0.01106
0.0004529
0.03326
0.1422
0.0001553
0.3699
0.291
0.4336
0.001656
0.00227
0.0007973
0.3199
0.004081
0.006441
0.001496
0.002738
0.0005425
0.0004526
0.03485
0.001002
0.02297
0.6032
2.665e-05
0.5188
0.06957
0.0009468
0.3813
0.0006591
0.3867
0.04635
0.09872
0.00169
0.4412
0.001155
0.001709
0.0348
0.5815
1.668e-05
0.25
0.2928
0.5832
0.007707
0.5955
0.001839
0.04834
0.002016
0.5938
0.05882
0.01368
0.5404
0.002633
0.006703
0.01713
0.002779
0.545
0.0006127
0.5973
0.04412
0.5391
0.005622
0.0004834
0.5939
0.6002
0.4423
0.3778
0.5736
0.001535
0.0004747
0.003681
0.6432
0.005465
0.1619
0.1294
0.4553
0.4798
0.6258
0.01369
0.0018
0.03287
0.0003372
0.003353
0.01309
2.876e-05
0.38
0.3516
0.3343
0.3371
0.003506
0.08022
0.5882
0.0007606
0.0007841
0.00254
0.004159
0.007438
0.5414
0.01244
0.5928
0.00176
0.008269
0.262
0.1008
0.5881
0.0006972
0.02245
0.005428
0.03249
0.05521
0.5907
0.02242
0.0002477
0.3308
0.5705
0.2427
0.6039
0.006945
0.4882
0.4879
0.01139
0.3775
0.05361
0.4749
0.5948
0.002817
0.005941
1.834e-05
0.4343
0.5969
0.105
0.006282
0.6069
0.5295
0.002885
0.1241
0.385
0.5389
0.2035
0.5078
0.3731
0.001002
0.005881
0.6238
2.466e-05
0.5902
0.03851
0.01344
0.05278
0.6064
2.226e-05
0.009193
2.967e-05
0.6022
0.5761
0.01585
0.4283
0.0008738
0.4262
0.0007631
0.06025
0.4432
0.002836
0.5668
0.02033
0.008991
0.5795
0.0002372
0.2045
0.0001839
0.001719
0.004871
0.2164
0.01708
0.5744
0.5716
0.0001788
0.003224
0.5793
0.5794
0.5767
0.2054
0.06159
0.3268
0.03973
0.0007372
0.4667
0.002438
0.0053
0.04872
0.586
0.3397
0.008921
0.3031
0.002442
0.00035
2.543e-05
0.0004869
0.005416
0.4253
0.4337
0.001605
2.633e-05
0.005778
0.001945
0.3158
0.002519
0.4535
0.003888
0.4066
0.003757
0.005195
0.0002151
0.4464
0.008941
0.5599
0.6019
0.001446
0.006251
0.01217
0.001924
0.5104
0.3618
0.006831
0.5584
0.008638
0.001329
3.514e-05
0.515
0.002367
0.5503
0.0004009
0.00202
0.02368
0.5
0.4363
0.5726
0.001728
0.000309
0.38
0.05416
0.4425
0.005059
0.0004076
0.58
0.1369
0.02586
0.0007998
0.24
0.003526
0.0003125
0.5751
0.004008
0.004947
0.5888
0.5763
0.4293
0.5696
0.0505
0.1849
0.006012
0.3773
4.499e-05
0.5802
0.5726
0.004103
0.008942
0.002088
0.002533
0.5925
0.5673
0.1156
0.0003796
0.006959
0.008493
0.01825
0.578
0.4833
0.005164
0.1992
0.007135
0.5496
0.0008685
0.00413
0.01405
0.3794
2.022e-05
0.001066
0.5327
1.083e-05
0.5738
1.377e-05
0.00512
0.0009136
0.0003868
0.01267
0.0001751
0.01084
0.5691
0.009516
0.4029
0.002117
0.0004257
0.0005454
0.5735
0.4647
0.006921
0.008589
0.5518
0.01713
0.00105
0.001336
0.3459
0.002804
0.0009106
0.001768
0.008623
0.003878
0.0007072
0.002926
0.0001584
0.07873
0.001526
0.3131
0.0002082
0.001976
0.008902
0.457
0.01312
0.5793
0.003811
0.01399
0.01601
0.0006189
0.001869
0.0009291
0.002463
0.0617
0.001982
0.02614
0.1452
0.0004649
0.02565
0.5996
0.5739
0.006316
0.2588
0.3712
0.5885
9.909e-05
0.5454
0.4349
0.006435
0.3259
0.3246
0.3701
0.002041
0.1221
0.01073
0.4331
0.0006483
0.5745
0.0006982
2.316e-05
0.0005241
0.4126
0.002118
0.005318
0.3929
0.008764
0.003737
0.002905
0.4269
0.0004424
0.3495
0.3793
0.4405
0.0004217
2.094e-05
0.3962
0.003861
0.05253
0.5742
0.002682
0.2573
0.02054
0.01185
0.003039
0.4051
0.02038
0.01595
0.0009933
0.01717
0.009961
0.579
0.0597
0.0009309
0.4431
0.01971
0.008128
0.009241
0.005618
0.004567
0.05644
0.4007
0.07325
0.0006051
0.0341
0.09627
0.0007918
0.6463
0.001507
0.3282
0.5753
0.001573
1.907e-05
0.6043
2.815e-05
0.5848
0.004159
0.00812
7.119e-05
0.0008603
2.035e-05
3.155e-05
0.0008792
0.003628
0.3954
0.0288
0.003518
0.5829
0.00131
1.99e-05
0.1449
0.005001
0.01583
0.001429
0.0002995
0.3135
0.3134
0.5779
0.566
0.06257
0.0001702
0.009989
0.5721
8.794e-05
0.4656
0.02288
0.03371
0.0231
0.006465
0.004096
0.0001048
0.002597
0.6191
0.0002259
0.001043
0.002097
0.0019
0.001308
0.4323
0.001236
0.1666
0.5871
0.002223
0.04847
0.1028
0.01358
0.05702
0.006191
0.009109
0.002978
0.01197
0.001366
0.03028
0.0002004
0.01833
0.07348
0.001792
0.002338
0.6053
0.0007649
0.005827
0.004797
0.002276
0.0004066
0.4367
0.5863
0.5541
0.004288
0.01547
0.004779
0.0134
0.0009452
0.0005047
1.751e-05
0.5718
0.003101
0.0008776
0.0009122
0.5497
0.0009212
0.002462
0.001782
0.5736
0.002084
0.5055
7.509e-06
0.313
0.002052
0.001448
0.03475
0.009975
0.0006306
0.4435
0.4691
0.5902
0.0003895
0.1058
0.005427
0.004632
0.002966
0.4351
0.3616
0.5073
3.299e-05
0.01205
0.4401
0.3505
0.6258
0.03057
0.0005449
0.1714
0.009454
0.001076
0.0007579
3.729e-05
0.006447
0.003784
0.002852
0.02841
0.6062
0.5389
0.0005168
0.5823
0.03147
0.393
1.93e-05
0.0002786
0.6074
0.0005482
0.5757
0.0008121
0.1003
0.5199
0.0009009
0.003906
0.001867
0.5752
0.6055
0.0009119
0.3213
0.3213
0.04972
0.2658
0.02136
0.006976
0.002
0.1418
0.3993
1.839e-05
0.003201
0.0005654
0.1392
0.3085
0.003505
0.000956
0.001286
0.0217
0.4609
0.5816
0.5761
0.002566
0.001578
0.5188
0.001208
0.003354
0.1121
0.0165
0.01224
0.081
0.0004029
0.007943
0.0008093
0.3569
0.3675
0.5092
0.002791
0.01208
0.01142
0.004216
0.3748
0.1482
0.07803
0.001452
0.007258
0.3863
0.001548
0.02848
5.95e-05
0.3142
0.5124
0.003125
0.108
0.5828
0.007591
0.5103
0.01575
0.005259
0.576
0.005165
0.004337
0.02759
0.00175
0.1292
0.5684
0.5016
0.3741
0.5743
0.002129
0.3574
0.0009378
0.006687
0.0006356
0.291
0.5884
0.0008049
0.3307
0.004061
0.0146
0.435
0.0003318
0.04763
0.01856
0.5814
1.734e-05
0.5685
0.5878
0.4185
0.0001398
0.5702
0.001152
0.003052
0.4899
0.4087
0.0001358
0.009959
0.001378
0.006733
0.5437
0.5916
0.01726
0.0002121
0.0007784
0.001546
0.02477
0.001417
0.002871
0.5888
0.0006264
0.5662
0.0001571
0.01209
0.02423
0.4664
0.002531
0.0515
0.0004528
0.0009028
0.4095
0.5741
0.001442
0.0006823
0.002719
0.007679
0.3327
0.6146
0.003763
0.0545
0.04669
0.006776
0.00411
0.5077
0.004944
0.01031
0.002152
0.4313
0.1744
0.5735
3.422e-05
0.007894
0.6124
0.3924
0.005787
0.01286
0.5842
0.5805
0.0009027
0.3157
0.02364
0.03638
0.5095
0.3508
0.01205
0.01697
0.5983
0.5432
0.006357
0.01849
0.03925
0.5852
0.0004173
0.5912
0.0006259
0.01093
0.001833
0.002763
0.05708
0.5741
0.0001188
0.004801
0.003529
0.6413
0.002122
0.02297
2.693e-05
0.5756
0.5783
0.5768
0.0003307
0.3789
0.008625
0.001427
0.01651
0.01301
0.5736
0.1158
0.0005091
0.03406
0.005285
0.01144
0.0344
0.0007174
0.00266
0.02684
0.01406
0.007911
0.002804
0.06046
0.3236
0.0002808
0.006558
0.5777
0.000673
0.03517
0.3488
0.0005139
0.0006109
0.2864
0.002613
0.004061
0.5873
0.3774
0.6406
0.04436
0.5958
0.5919
0.02103
0.001389
0.002928
0.002887
0.5712
0.001151
0.01706
0.01294
0.01911
0.2816
0.2703
0.1672
0.0003523
0.2046
0.5698
0.5774
0.08981
0.002433
0.0007179
0.01787
0.4995
0.02024
0.02829
0.01682
0.001501
0.588
0.2435
0.5214
0.3646
0.5793
0.0486
0.2679
0.004588
0.3591
0.002468
0.2929
0.4998
0.001093
0.0005667
0.4514
0.06829
0.4927
0.001476
1.18e-05
1.505e-05
0.5971
0.004887
1.491e-05
0.001761
0.0264
0.0005844
0.00338
0.004244
0.00102
0.01022
0.009206
0.005063
0.2571
0.04912
2.002e-05
0.1386
0.00392
0.4029
0.4127
0.01321
0.002505
0.2971
0.002899
0.0005469
0.5643
0.01297
0.5001
0.04057
0.2542
0.6532
0.001954
0.2397
0.03202
0.5854
0.006389
0.1111
0.3152
0.02718
0.01228
0.0003317
0.001773
0.04619
0.003296
0.0003737
0.4103
0.005415
0.003113
0.5934
0.001873
0.5781
0.02464
0.4806
0.5188
0.5822
0.2368
0.02272
0.001323
0.5771
0.5064
0.001604
0.009229
0.006172
0.5789
0.0001005
0.0006527
0.0002012
0.002742
0.3789
0.3966
0.003084
0.547
0.01322
0.001453
0.03363
0.1229
0.0008026
0.2884
0.006318
0.5768
0.01388
0.001701
0.004166
0.004762
1.94e-05
2.693e-05
0.001262
0.001267
0.1989
0.5792
0.0006502
0.04712
0.07894
0.003647
0.002461
0.5754
0.1636
0.009844
0.0917
0.0001422
0.000202
0.01385
0.0001697
0.0002855
0.000178
0.5169
0.0004543
0.001837
0.01416
0.1722
1.81e-05
0.006031
1.999e-05
0.0003814
0.003935
0.5701
0.315
0.02903
0.01341
0.02425
0.01111
0.01734
0.002996
0.3294
0.2735
0.4454
0.00767
0.00355
0.006395
0.009311
0.5787
0.01155
0.0001054
0.3085
0.3603
0.3472
1.341e-05
0.3059
0.2317
0.2386
0.594
0.2787
0.004463
0.005594
0.05781
0.01442
0.5753
0.6003
0.0005818
0.002294
0.01597
0.004005
0.5473
0.003969
0.002588
0.5669
0.1506
0.002582
0.0002016
0.001264
0.1365
0.03485
0.08682
0.009293
0.008527
0.002916
0.0001639
0.007034
3.934e-05
0.299
0.02605
0.0008698
0.001067
0.006895
0.5465
0.3472
0.3454
0.3773
1.862e-05
0.3803
0.3808
0.2968
0.5552
0.007924
0.4065
0.0004744
0.001811
0.007047
0.001438
0.006012
0.07736
0.5463
0.006216
0.00409
0.007124
7.167e-06
0.0001001
0.0005744
0.03737
0.6476
0.5899
0.4185
0.007265
0.379
0.0003572
0.5321
0.0006466
0.002413
0.2854
0.01185
0.00172
0.001539
0.2041
0.0001647
0.0001075
1.953e-05
0.5959
1.118e-05
0.6216
0.0009168
0.01
0.02544
0.1921
0.5911
0.003134
0.0002647
6.151e-05
7.663e-05
0.03197
0.1669
0.5827
0.5602
0.3994
0.5938
0.01424
0.0413
0.002601
0.009637
0.141
0.0003701
0.00209
0.03527
0.001616
0.00305
0.0235
0.02175
0.5341
0.001803
0.5792
0.2732
0.01679
0.5814
0.01003
0.0002434
0.006101
0.1813
0.001551
0.0008721
0.0009636
0.5294
0.03808
0.01045
0.3241
0.5824
0.5696
1.909e-05
0.0009741
0.5846
0.009071
0.3176
0.4082
0.001829
0.5906
0.006994
0.5781
0.008892
0.5758
0.006227
0.5758
0.001143
0.5483
0.3548
3.593e-05
0.0002012
0.006483
0.008398
0.03041
0.0007205
0.009348
0.002045
0.005042
0.002754
0.006904
0.4796
0.01009
0.0002323
0.4039
0.001106
0.05039
0.002018
0.001398
0.586
0.04609
0.0001416
0.0001008
0.5963
0.5694
0.01459
0.5762
0.01163
0.1154
0.00409
0.01969
0.03198
0.3794
0.2564
0.5825
0.02297
0.5695
0.5959
0.2532
0.0008871
0.5331
0.006081
0.5944
0.005563
0.00318
0.4072
0.5451
0.3714
0.6644
0.002424
0.003045
0.5751
0.5672
0.01473
0.002783
0.0233
0.0009513
0.0313
0.01074
0.0008706
0.6332
0.0005228
0.4257
0.03564
0.002046
0.3082
0.005059
0.003126
0.0003612
0.00101
0.006461
0.005889
0.0186
3.551e-05
0.0002536
0.1924
0.5728
0.3326
0.0007019
0.0004806
0.5059
0.01203
0.002099
0.01186
0.00125
0.001182
0.004001
0.3004
0.6019
1.63e-05
0.5777
0.003712
0.1443
1.985e-05
0.003586
0.01209
0.006143
0.007962
0.01068
0.00406
0.01818
0.02824
0.004819
0.002223
0.002092
0.002878
0.578
0.0003777
0.6003
0.5817
0.01281
0.0012
0.4329
0.0207
0.3218
0.0002671
0.007053
1.774e-05
7.217e-06
0.2697
2.082e-05
0.0006435
0.007965
0.01755
0.5292
0.5172
0.3313
0.1179
0.003687
0.0004272
0.001884
0.4191
0.0001707
0.09292
0.001308
0.001088
0.5322
0.0008664
0.3382
0.596
0.04921
0.001447
0.009258
0.02082
0.3777
0.596
0.02872
0.004022
0.01038
0.5853
0.5915
0.3207
0.6375
0.5874
0.02012
0.001003
0.3137
0.589
0.6118
0.4698
0.01061
0.008596
0.001003
0.00047
0.5788
1.955e-05
0.5084
0.0001886
0.3796
0.5762
0.2103
0.5699
0.0001178
0.5845
0.0151
0.006458
0.02017
0.01055
1.238e-05
0.0004217
0.002097
0.0119
0.0005198
0.006919
0.3549
0.0005207
0.01482
0.00682
0.02877
0.0004817
0.0058
0.4897
0.468
0.0001979
0.02527
0.001262
0.5903
0.243
0.004448
5.892e-05
0.0006339
0.002478
0.04383
0.315
7.143e-06
0.5807
0.002899
0.005724
0.0004211
0.5816
0.02754
0.3086
0.3378
0.0005969
0.5549
0.6072
0.000602
0.007036
0.4409
0.002305
0.5813
0.1696
0.002551
0.005251
0.003998
0.005486
0.4013
0.5803
0.5932
0.5074
0.4033
0.09659
0.6263
0.01671
0.0008036
0.5239
0.4458
0.0414
0.4319
0.3092
0.3081
0.03402
0.003724
0.003256
1.891e-05
0.01225
0.5755
0.01234
0.01559
2.773e-05
0.5871
0.0006066
0.5768
0.01255
0.02252
0.5043
0.3314
0.3343
0.001995
0.000687
0.001853
0.5312
0.0004566
0.0005765
0.02489
0.0005636
0.552
0.01903
0.008975
0.143
0.007748
0.004348
1.664e-05
0.005193
0.564
0.4999
0.4278
0.003013
0.509
0.3039
0.2909
0.001662
0.0002803
0.3152
0.007944
0.5608
0.5965
0.001987
0.001522
0.0009162
0.0008174
0.005302
0.1294
0.001212
0.006395
0.4533
0.5747
0.488
0.007838
1.778e-05
0.5218
0.5039
0.002491
0.002316
0.004591
0.006077
0.00837
0.5757
0.5703
1.159e-05
0.00215
3.509e-05
0.005431
7.268e-05
0.1284
0.4995
0.001348
0.1506
0.006755
0.3781
0.1623
0.592
0.00295
0.01263
0.01362
0.5863
0.001511
0.00184
0.0005398
0.002465
0.003747
0.0004434
0.002139
0.05083
0.5924
0.4972
0.007144
0.01086
0.004999
0.4477
0.5297
0.003036
0.00123
0.5734
0.0008021
0.0008459
0.01387
0.4412
1.179e-05
0.002257
0.1054
0.5739
0.3973
0.001955
0.0002026
0.003001
0.569
0.5777
0.5766
0.008252
0.04586
0.001685
0.5321
0.009419
0.007332
0.001504
0.3732
0.0004595
0.007339
0.07754
0.01394
0.09802
0.05669
0.002367
0.008183
0.3136
0.3237
0.5762
0.001007
0.001474
7.924e-05
0.4604
0.2953
0.07985
0.002303
0.002619
0.2369
0.003453
0.5889
0.005923
0.3852
0.00784
0.00681
0.01285
0.5759
0.6176
0.5746
0.564
0.002141
0.0004255
0.119
0.003901
0.0113
0.0005319
0.5279
0.5757
0.5875
0.4303
0.00155
0.5894
0.003301
0.4282
0.0536
0.5084
0.001353
0.00904
0.03363
0.6658
0.009234
0.006676
0.001898
0.3192
0.01708
0.005703
0.1008
0.003086
0.09805
0.05242
0.1923
0.002078
0.5091
0.4416
0.5897
0.003026
0.6255
0.5779
0.002534
0.4623
0.07291
0.0003238
0.5119
0.3485
0.0002881
0.007206
0.002323
4.371e-05
0.000624
0.004727
0.3911
0.001963
0.5203
0.01294
0.0008612
0.02301
0.5694
0.5779
0.5665
0.0011
0.5231
0.3696
0.005495
0.007094
0.003104
0.08628
0.4497
0.1575
1.281e-05
0.03574
0.5953
0.002556
0.004733
0.5828
0.5695
0.5517
0.452
0.1855
0.0005545
0.5775
0.006977
0.5026
0.003511
0.1423
0.00761
0.005193
0.00748
0.6183
0.1617
0.574
0.001454
0.3131
0.5762
0.01239
0.0001735
0.01457
0.0007083
0.4267
0.5779
0.03565
0.00201
0.3347
0.3414
0.005725
0.3383
0.003065
0.003596
0.005046
0.0008737
0.06337
0.03277
0.01881
0.5846
0.0008244
0.00213
0.006785
0.02073
0.2146
0.006504
0.0008146
0.0003179
0.5785
1.309e-05
0.4925
0.5915
0.5763
0.6247
0.0009001
0.05047
0.5899
0.1066
0.5509
0.01169
0.01192
0.0001751
0.0225
0.3223
0.1728
2.378e-05
0.0007707
0.3861
0.5775
0.5847
0.6431
0.01177
0.02547
0.3743
0.4878
0.4874
0.001089
0.0158
0.003176
0.193
0.1243
2.358e-05
0.0008274
0.0008217
0.0009276
0.02605
0.5731
0.001693
0.0007105
0.00187
0.003084
0.001282
0.003906
0.5841
0.001989
0.05065
0.002194
0.01009
0.5745
0.0009982
0.5625
0.0009803
0.03114
0.0007816
0.0004219
0.009655
0.001719
0.007063
0.003922
0.0002722
0.007009
1.957e-05
0.05512
0.006017
0.5372
0.002502
0.008283
0.001458
0.2333
0.00706
0.007992
0.4301
0.003744
4.491e-05
0.0003462
0.5917
0.5775
0.003573
0.0006338
0.008391
0.5882
0.01322
0.102
0.001369
0.001388
0.0004178
0.552
0.00273
0.00369
0.4214
0.4187
0.4694
0.0007877
0.03329
0.002286
0.004332
0.001901
0.537
0.372
9.244e-06
0.004536
0.2062
0.4476
0.05568
0.009951
0.5479
0.06152
0.002038
0.004017
0.4259
0.001091
0.002303
0.5881
0.5845
0.5733
0.0005647
0.3399
0.178
0.007319
1.039e-05
0.4643
0.0006788
0.0008295
0.01285
0.05713
0.009606
0.0004933
0.02941
0.5194
0.1441
0.003256
0.4728
0.001224
0.4266
0.2911
0.2917
0.001917
0.002527
0.5651
0.0008772
0.5861
0.5289
0.5297
0.005418
0.03021
0.002861
0.007721
0.1196
0.02122
0.0001901
0.1035
0.5809
0.3347
0.2247
0.005205
0.3453
0.3432
0.1981
0.01129
0.3204
1.899e-05
0.0636
1.873e-05
0.003194
0.001764
0.5701
0.0009206
0.008187
0.00259
0.02586
0.001392
0.001749
0.01746
0.02489
0.5711
0.01684
0.6013
0.00102
0.1014
0.04546
0.08284
0.1159
0.0001946
0.01217
0.01373
0.00367
0.009519
0.5763
0.1976
0.007763
0.006798
0.0005089
0.003207
0.5877
0.4518
0.2493
0.006202
0.5017
4.449e-05
0.5758
0.001005
0.3675
0.5709
0.008619
0.008547
0.02609
0.5755
0.5031
0.0009108
0.375
0.0003213
0.002216
0.0301
0.1111
0.009389
0.4595
0.4472
0.005366
0.004956
0.0123
0.000498
0.02285
0.002872
0.636
0.5009
0.09134
0.004735
0.01708
0.02675
0.002736
0.5885
0.606
0.01008
0.4328
0.4343
0.002048
0.01623
0.0008988
0.02507
0.002284
0.009755
2.465e-05
0.00324
0.585
0.5654
3.254e-05
0.002783
0.003543
0.001766
0.0001508
0.003351
0.5762
3.941e-05
0.006511
0.4042
0.1167
0.001348
0.5644
5.29e-05
0.4575
0.3329
0.00256
0.5059
0.001065
0.0001559
0.5918
0.01103
1.862e-05
2.65e-05
2.179e-05
0.0004128
0.5763
0.04734
0.001071
1.85e-05
0.5151
0.004007
0.01021
0.6165
0.2519
0.4426
0.002792
0.01709
0.005414
0.4234
0.0004721
2.261e-05
0.08758
0.004444
0.01141
0.252
0.0001486
0.6644
0.002041
3.568e-05
0.004953
0.2964
0.5441
0.3218
0.0886
0.5595
0.004289
0.01137
0.0006718
0.00611
0.0292
0.007651
0.2075
0.2947
0.5849
0.5903
0.0001591
0.005854
0.004072
0.5906
0.5439
0.01928
0.03205
0.01066
0.005021
0.5248
0.001009
0.01425
0.004909
0.0005849
0.00472
0.003268
0.353
0.001265
0.004199
0.008402
0.09868
0.001897
0.001468
0.3703
0.007461
0.4762
0.1578
0.001046
0.5306
0.5679
0.0009519
0.001541
6.568e-05
0.2407
0.001257
0.5768
0.01255
0.5759
0.0116
0.5848
0.007138
0.03261
0.003202
0.09494
0.0242
0.006005
0.002808
0.007863
0.598
0.534
0.0001751
0.4973
0.06727
0.3276
0.3257
0.00677
0.5237
0.001805
0.592
0.01791
0.02696
0.05489
0.01824
0.006337
0.5953
0.3067
0.003068
0.03972
0.004519
0.0006571
0.5754
0.4404
0.03278
0.00775
0.3161
0.01719
0.008065
0.0371
0.003081
0.5955
0.006429
0.21
1.777e-05
0.3397
0.01672
0.5061
0.006276
4.495e-05
0.03371
0.00214
8.993e-05
0.4272
0.001125
0.007767
0.0441
0.5371
0.0108
0.5715
0.002007
0.2555
0.002478
0.06616
0.009159
0.5801
0.02175
0.581
0.008525
0.359
0.2272
0.002776
0.0001473
0.002569
0.5613
0.5801
0.001123
0.01529