/*--------------------------------*- C++ -*----------------------------------*\
  =========                 |
  \\      /  F ield         | OpenFOAM: The Open Source CFD Toolbox
   \\    /   O peration     | Website:  https://openfoam.org
    \\  /    A nd           | Version:  8
     \\/     M anipulation  |
\*---------------------------------------------------------------------------*/
FoamFile
{
    version     2.0;
    format      ascii;
    class       volScalarField;
    location    "60";
    object      nut;
}
// * * * * * * * * * * * * * * * * * * * * * * * * * * * * * * * * * * * * * //

dimensions      [0 2 -1 0 0 0 0];

internalField   nonuniform List<scalar> 
127143
(
7.773e-16
2.53e-17
2.674e-16
3.179e-15
7.363e-12
3.384e-15
7.734e-10
2.601e-11
2.584e-12
4.789e-08
2.842e-10
6.392e-11
1.046e-15
6.568e-15
1.249e-06
5.952e-09
8.961e-15
8.792e-05
9.309e-05
1.224e-08
4.34e-05
1.542e-08
7.112e-05
8.082e-06
1.316e-08
7.967e-06
1.13e-05
9.891e-06
2.421e-08
0.0001873
2.969e-06
6.405e-06
2.349e-06
1.492e-05
3.858e-05
2.488e-06
0.0002465
3.542e-05
8.447e-06
9.642e-07
9.33e-05
2.072e-06
2.266e-06
5.475e-14
8.781e-05
1.526e-05
2.415e-08
0.0003278
6.932e-06
5.737e-06
7.75e-09
0.0003402
7.852e-06
1.866e-05
0.006682
2.885e-07
0.006682
0.0002073
0.004228
2.148e-05
2.96e-06
6.011e-05
8.111e-06
0.006702
2.957e-05
1.978e-05
3.139e-05
7.849e-06
7.848e-06
0.001437
4.318e-06
1.192e-05
0.0004554
0.003583
0.006695
1.036e-05
0.0004617
0.0002238
2.885e-07
0.006705
2.451e-08
1.784e-08
3.271e-05
1.285e-06
0.000521
0.0002412
8.307e-06
1.23e-05
1.86e-05
1.403e-06
0.002327
5.219e-05
2.704e-06
4.328e-05
5.321e-05
0.0003098
2.284e-06
2.421e-06
0.0001347
3.487e-05
0.006705
6.782e-06
1.805e-07
7.794e-05
0.0001926
0.0001389
7.12e-06
0.001437
6.706e-06
0.006683
1.387e-06
1.226e-05
5.176e-05
5.944e-07
0.003427
8.493e-05
0.0003823
0.006696
0.0005788
7.522e-10
0.006683
3.444e-05
1.373e-05
0.0001997
2.459e-08
7.138e-06
7.612e-05
0.0006773
1.429e-05
2.353e-07
0.0001142
5.506e-05
1.05e-05
0.0002257
2.505e-12
0.000128
0.0002337
2.143e-05
1.683e-07
0.0001499
4.457e-05
0.0006023
8.555e-06
1.295e-05
7.752e-06
5.861e-06
1.962e-08
0.006703
6.613e-05
8.79e-08
3.745e-05
4.404e-06
2.916e-05
2.17e-05
2.031e-06
0.0004272
0.0001653
2.513e-07
0.0003018
1.794e-06
4.043e-06
1.651e-09
0.002114
0.0001366
1.471e-07
2.26e-05
0.000208
6.545e-06
2.662e-06
0.0001037
2.76e-05
1.295e-05
7.343e-05
2.762e-05
0.0007242
0.000286
5.868e-06
1.429e-05
8.356e-06
0.002189
2.405e-05
0.0009581
0.0003177
0.0002912
2.359e-07
5.689e-05
6.084e-06
7.145e-07
8.222e-06
0.0009007
1.338e-05
2.721e-05
0.0003333
1.056e-06
7.296e-13
3.267e-05
0.006714
0.006706
1.378e-10
0.001569
0.004754
0.0001338
0.0008281
0.0002597
7.588e-14
6.231e-06
0.0001395
2.681e-05
0.0002293
0.003781
9.432e-05
0.0004929
0.003745
2.63e-06
8.586e-05
5.325e-10
4.768e-06
2.657e-05
7.205e-05
0.000146
5.009e-06
0.006697
4.41e-06
7.483e-06
1.922e-06
2.038e-05
1.67e-07
3.699e-05
5.827e-05
0.0001457
4.532e-05
0.001023
0.0004195
1.195e-08
4.529e-05
0.0002129
0.0001367
3.847e-13
0.004172
1.011e-05
2.597e-05
2.985e-05
0.0003631
2.513e-07
1.644e-05
1.046e-09
3.308e-06
1.045e-05
3.614e-10
0.001403
3.461e-06
6.284e-06
2.33e-05
1.613e-05
4.69e-07
6.153e-06
0.0008479
2.65e-07
3.046e-05
8.792e-06
2.326e-05
0.0008055
4.837e-05
0.0005696
7.888e-06
2.905e-05
9.706e-05
1.987e-06
3.721e-06
1.719e-05
7.666e-06
0.0007237
0.000353
1.028e-05
9.646e-06
1.231e-05
5.173e-05
7.318e-06
0.000543
2.206e-05
0.00284
0.0001814
7.924e-05
0.0067
0.004969
7.386e-13
0.000104
0.003384
7.689e-06
0.002099
3.095e-05
4.227e-05
0.0002054
6.515e-05
0.002908
6.681e-06
3.934e-06
0.0001109
0.000363
1.737e-05
8.437e-06
2.96e-05
1e-05
0.0001011
1.504e-06
3.28e-06
2.694e-05
0.003405
4.542e-05
1.79e-05
7.178e-06
6.068e-05
3.558e-07
0.003545
0.003927
2.374e-06
2.427e-05
7.513e-06
3.716e-05
0.0004208
8.097e-05
3.601e-06
0.0003022
2.322e-05
2.258e-06
1.569e-05
7.78e-05
4.973e-05
3.481e-06
3.915e-06
0.0001676
0.004114
4.156e-05
0.006714
0.006706
2.177e-05
6.772e-06
7.537e-05
0.0001694
8.807e-05
0.0001746
2.654e-05
7.61e-06
1.081e-05
1.068e-06
7.688e-06
5.201e-05
4.517e-05
7.825e-06
1.495e-05
8.272e-06
3.297e-05
0.0002536
1.217e-05
7.727e-05
5.788e-05
1.616e-05
6.702e-06
0.006213
3.489e-06
0.0002465
8.594e-06
9.471e-05
4.887e-06
6.32e-06
0.006698
0.001854
0.0003698
2.897e-05
0.0005097
1.752e-06
0.0003199
8.112e-06
4.731e-06
0.001153
5.011e-05
8.559e-06
5.234e-08
0.0001479
0.0005782
6.964e-05
7.418e-06
8.742e-06
2.244e-05
0.000404
1.331e-07
2.424e-05
1.033e-06
3.404e-05
5.126e-05
0.005223
9.776e-06
3.855e-05
4.873e-07
7.874e-06
3.125e-06
1.003e-05
3.492e-06
7.485e-05
0.001127
1.068e-06
0.006697
2.756e-05
0.0003298
2.556e-05
2.508e-05
0.0002472
1.105e-05
0.006705
8.375e-06
8.566e-06
7.874e-06
4.264e-05
0.0002055
1.248e-05
4.978e-05
0.000113
7.67e-06
2.371e-05
5.109e-06
0.0002163
2.239e-06
9.3e-05
0.001901
0.0001586
7.941e-06
2.134e-06
3.503e-05
2.28e-05
0.0001078
0.00668
9.699e-05
0.0002298
9.698e-05
1.037e-05
0.006698
2.186e-05
4.259e-05
0.0003703
0.003094
0.006694
6.198e-06
0.0001906
6.748e-06
0.0002312
2.443e-06
0.002876
2.915e-06
0.0003673
0.0004952
7.642e-05
8.758e-06
2.974e-05
3.009e-05
2.308e-05
0.000283
7.576e-06
2.362e-05
0.0002943
1.973e-05
1.181e-05
7.155e-06
2.898e-05
5.192e-07
7.868e-06
0.0008957
0.0009074
1.438e-05
5.139e-05
0.006672
0.0001471
4.498e-05
0.0001758
2.538e-05
0.0001817
0.006651
1.755e-06
4.423e-05
4.996e-05
9.762e-06
5.651e-08
2.708e-06
3.36e-05
3.555e-07
7.115e-06
1.038e-05
1.314e-05
0.006708
2.344e-06
0.0005523
3.628e-06
8.285e-06
8.369e-06
5.843e-06
2.302e-12
0.0001336
9.052e-07
0.0004169
9.072e-07
0.005003
5.535e-08
0.0009434
0.0003074
2.869e-05
1.15e-14
5.37e-11
1.219e-10
0.006698
5.809e-05
3.817e-06
0.003817
0.0002797
1.502e-05
0.0001832
7.264e-05
7.724e-05
8.751e-06
0.0001412
9.892e-06
0.001033
0.00049
1.623e-09
3.496e-06
7.815e-06
3.374e-05
0.004292
4.103e-05
0.000977
3.398e-05
0.006343
2.137e-06
6.098e-08
3.846e-05
0.006675
1.44e-05
0.0001887
2.21e-05
6.813e-06
9.112e-07
4.344e-05
0.0005121
0.0001088
1.309e-05
0.006673
2.962e-05
2.442e-05
4.545e-06
4.893e-06
4.994e-05
5.242e-05
3.339e-05
2.152e-05
7.834e-06
0.000214
9.946e-05
0.002533
1.276e-06
7.9e-05
8.379e-06
9.808e-06
0.0003216
0.006702
0.006701
1.004e-05
5.162e-05
1.059e-06
0.003374
0.004601
9.806e-06
1.401e-06
0.0002559
8.578e-06
3.28e-05
6.712e-06
4.215e-05
0.0007114
0.006683
3.959e-05
0.0001002
8.742e-06
0.004738
1.066e-05
1.173e-05
6.449e-05
0.0005778
8.467e-06
0.003273
0.0001794
0.0003754
5.414e-05
0.005094
0.0001024
2.327e-05
5.439e-09
0.00665
7.178e-06
5.084e-06
0.006694
2.515e-05
0.002827
6.046e-06
1.304e-05
0.006699
4.097e-05
8.074e-06
6.686e-05
3.159e-05
9.897e-06
8.254e-06
8.728e-06
1.276e-06
8.433e-06
3.224e-06
4.786e-06
0.0002221
7.05e-06
2.73e-06
0.005444
3.524e-06
0.00597
8.527e-07
0.0005719
8.696e-06
0.006679
0.002897
0.0001579
5.152e-06
6.036e-05
0.006475
0.006683
6.656e-05
1.191e-05
3.761e-05
3.416e-06
0.0004471
7.231e-06
7.638e-05
8.232e-06
1.056e-05
7.117e-05
1.659e-05
0.006475
2.075e-05
1.005e-05
9.775e-05
2.335e-05
0.002405
0.004603
1.78e-05
2.341e-07
1.314e-05
2.78e-07
0.000636
0.003227
0.0001339
3e-05
0.0001537
2.072e-05
9.477e-05
0.001107
6.043e-05
3.498e-05
9.139e-06
1.904e-05
1.468e-13
2.402e-05
0.0002976
0.0002817
8.343e-05
3.9e-05
8.526e-06
4.342e-05
0.0003133
1.356e-05
0.0001468
2.75e-05
0.006682
7.275e-06
1.502e-05
2.908e-06
0.006675
0.006681
3.637e-07
0.0004783
7.2e-06
3.011e-05
5.035e-06
4.541e-05
1.192e-05
2.218e-06
6.651e-06
5.153e-07
0.006706
0.006673
3.546e-06
7.957e-06
3.086e-05
3.149e-06
1.503e-07
0.0003807
2.142e-06
0.0001055
0.0001118
0.003694
2.35e-06
0.000198
6.185e-07
2.408e-12
1.18e-05
8.625e-06
0.0001369
0.00486
8.788e-06
7.372e-06
5.657e-07
4.377e-05
1.756e-05
1.056e-05
1.175e-07
7.7e-05
6.665e-06
0.0001068
6.678e-07
8.376e-06
1.801e-05
7.534e-05
5.683e-05
5.658e-15
1.795e-05
0.000118
3.207e-06
1.008e-05
8.35e-06
0.006693
0.000238
3.386e-05
0.0002577
0.002988
2.434e-07
9.613e-05
8.437e-06
0.003119
3.154e-05
0.0002274
3.93e-05
2.479e-05
0.00377
0.0001859
5.166e-05
4.554e-05
1.633e-05
0.001385
7.611e-06
1.057e-06
0.002442
2.66e-05
4.732e-05
3.736e-05
0.000135
2.949e-05
1.177e-05
8.019e-06
0.0001094
0.006636
0.0002219
0.0001634
8.903e-07
7.865e-06
1.947e-05
0.0002854
5.811e-05
0.006653
0.0001743
6.12e-05
9.881e-06
3.122e-08
1.005e-05
4.176e-05
3.085e-05
0.0003887
4.584e-05
0.006697
3.254e-14
9.421e-05
2.984e-05
1.666e-05
0.0002721
0.000129
0.0001481
5.223e-06
0.006683
3.488e-05
7.889e-05
0.003497
0.0001189
3.632e-06
7.259e-06
1.776e-05
0.006666
7.401e-05
0.0002627
0.006707
0.006661
2.372e-05
7.841e-05
0.000377
0.000127
0.0002551
1.662e-08
5.295e-05
6.31e-06
0.006682
0.0001634
0.0002286
3.335e-06
1.905e-06
5.717e-06
0.00279
0.004529
0.0003376
1.133e-05
0.006682
0.000104
1.343e-06
8.674e-06
8.146e-06
0.006172
0.0004227
8.523e-06
0.006698
7.841e-06
0.006683
6.394e-06
1.161e-07
3.981e-05
1.436e-05
5.971e-07
0.002254
4.54e-05
1.622e-05
2.133e-06
0.0001061
8.216e-06
8.726e-08
2.008e-05
6.07e-05
9.95e-06
2.874e-06
0.006699
3.224e-05
3.806e-07
1.507e-06
0.0001425
7.349e-06
0.002888
0.0002174
3.821e-05
6.593e-07
5.589e-06
3.211e-06
6.059e-10
2.631e-06
5.322e-06
6.221e-05
2.214e-05
3.919e-05
1.697e-07
0.0004329
7.421e-06
0.004711
0.005169
8.557e-06
0.0003157
2.128e-05
0.0003697
5.558e-07
0.0001428
0.0005089
1.672e-06
3e-06
0.004363
9.478e-05
0.0002345
0.0005977
3.731e-05
2.036e-08
0.000339
3.467e-05
1.293e-06
1.919e-05
9.456e-05
0.0067
8.352e-06
6.187e-07
0.006258
4.72e-05
0.0001199
4.059e-05
0.006669
0.0003513
9.154e-05
3.147e-09
1.599e-05
1.736e-08
0.0001122
9.193e-06
4.287e-06
3.324e-06
2.826e-05
0.005704
2.157e-07
4.078e-06
0.005301
7.878e-06
9.811e-09
5.607e-05
1.501e-05
2.813e-05
9.516e-05
1.352e-06
3.068e-08
8.449e-06
0.0005721
0.006697
3.14e-05
6.496e-06
0.0001805
4.067e-05
8.189e-07
7.498e-08
3.661e-05
3.08e-05
7.486e-08
0.0001402
1.696e-05
0.006693
0.0003085
4.853e-05
1.099e-05
8.529e-05
0.0001177
0.006697
0.001311
2.754e-05
3.743e-05
0.0001394
8.098e-06
7.19e-05
0.0003965
1.668e-05
6.237e-06
2.575e-05
3.101e-06
7.743e-06
2.655e-06
4.984e-05
2.779e-05
0.000279
1.192e-06
0.0001375
3.515e-05
5.157e-08
0.0001429
0.006692
0.006693
0.0001691
0.000336
8.773e-05
0.006748
6.689e-06
7.6e-05
0.000149
9.727e-05
1.998e-05
8.339e-05
1.202e-06
0.006705
7.063e-05
0.0001315
1.602e-08
1.549e-06
0.0002166
8.028e-06
3.665e-05
2.895e-05
7.852e-06
1.207e-05
0.0002929
6.701e-06
8.111e-06
0.0002107
5.31e-08
0.006279
3.593e-06
3.992e-06
0.0001561
2.744e-05
1.542e-06
0.002479
4.52e-06
2.958e-06
0.006408
0.006694
1.005e-05
5.582e-05
3.682e-09
0.0001338
7.432e-06
1.236e-06
8.384e-05
7.447e-05
0.0001253
0.001642
7.014e-05
0.0005697
0.000115
5.618e-05
1.519e-05
0.0002531
0.005833
2.868e-06
0.0001756
0.006692
4.243e-05
0.005903
0.0067
1.707e-05
7.439e-05
4.515e-06
0.00669
7.819e-06
0.006696
3.249e-06
9.529e-05
9.387e-05
5.188e-05
6.525e-06
7.92e-06
5.763e-05
1.021e-05
0.002988
0.00103
1.033e-05
5.562e-06
0.0001233
9.14e-05
4.373e-07
7.069e-05
4.587e-07
3.365e-05
4.814e-07
2.009e-05
8.301e-06
8.377e-06
3.199e-06
4.652e-05
0.004985
3.683e-05
0.0001807
8.588e-06
0.001931
3.902e-06
4.859e-05
8.353e-06
4.967e-06
1.41e-05
0.0001468
2.853e-05
1.864e-05
8.355e-06
0.0001152
2.244e-07
0.000104
0.006598
1.369e-05
3.555e-05
0.002196
4.215e-05
2.733e-05
0.006738
4.437e-05
0.0001108
0.0006851
2.873e-06
2.431e-05
6.805e-05
0.000102
0.006727
5.248e-05
8.372e-05
0.005703
4.073e-06
9.75e-05
8.148e-05
6.723e-05
4.787e-05
0.0004736
3.841e-05
7.653e-08
3.518e-06
7.685e-06
0.0001414
1.71e-07
0.001646
8.39e-06
0.006697
0.0001445
4.878e-06
4.235e-05
4.959e-06
5.144e-05
1.187e-05
0.006699
4.167e-10
3.387e-05
3.464e-05
9.037e-06
3.162e-07
2.149e-05
5.365e-05
1.44e-06
7.943e-06
4.44e-05
1.629e-10
0.0002948
4.212e-06
5.1e-06
7.498e-06
3.892e-06
9.575e-05
7.427e-06
6.284e-06
0.0001778
1.333e-05
8.784e-06
8.308e-06
5.893e-05
4.27e-08
0.0002571
2.397e-06
0.0001705
8.297e-06
0.006713
0.006691
2.003e-05
1.759e-07
0.0002843
0.0008532
4.863e-06
4.539e-05
0.006697
1.075e-05
7.616e-06
1.674e-05
8.521e-08
2.484e-05
0.0002199
1.151e-12
9.486e-05
4.175e-06
0.0001633
8.086e-06
1.677e-05
7.863e-06
2.127e-06
7.896e-06
3.49e-05
0.0009159
0.0001319
1.326e-05
0.0001116
3.856e-05
7.069e-06
0.0002635
3.411e-06
0.0003465
9.525e-05
0.0004649
1.961e-06
1.171e-05
3.547e-05
4.387e-08
3.23e-05
1.448e-05
1.965e-05
0.0001898
0.0002007
0.006696
0.0001516
1.605e-05
1.338e-05
1.724e-05
7.346e-07
1.528e-06
0.006684
6.948e-06
3.069e-05
4.976e-05
2.906e-06
6.039e-06
3.465e-05
5.92e-05
0.001891
4.741e-05
0.0002028
1.313e-05
5.404e-05
0.001556
3.081e-05
0.003831
5.222e-06
3.165e-06
0.0002726
7.082e-05
3.509e-05
0.006491
0.006675
7.217e-05
0.0004931
8.938e-05
5.64e-05
0.002407
0.002165
1.006e-06
8.129e-05
3.33e-05
1.592e-05
8.468e-06
3.09e-06
2.808e-05
8.472e-06
0.0001854
0.0001151
0.006678
2.969e-06
0.000103
7.566e-06
2.998e-06
2.313e-05
2.297e-05
0.0001614
8.657e-06
2.614e-05
5.4e-09
7.856e-05
6.709e-05
0.0003853
2.083e-05
6.87e-05
7.445e-06
3.842e-09
4.053e-05
5.483e-05
0.006683
6.565e-06
7.95e-07
0.00669
7.175e-07
1.118e-05
0.0002236
8.004e-06
0.006687
2.031e-05
1.343e-09
0.002414
4.884e-06
6.071e-05
8.349e-06
1.483e-07
5.171e-05
7.694e-05
4.952e-05
1.457e-07
0.0001822
3.577e-05
9.792e-06
4.549e-06
4.618e-06
7.479e-08
2.838e-06
0.000122
0.006693
5.521e-06
3.462e-05
2.176e-06
3.429e-06
0.0001627
0.0001578
0.006668
0.000121
0.0001289
0.006319
0.000342
0.00633
1.007e-07
0.0002226
1.855e-07
0.000164
7.777e-06
5.267e-06
4.965e-05
6.794e-06
6.042e-07
1.967e-06
7.583e-05
0.0001189
9.463e-06
3.358e-05
0.0002526
0.006702
0.000219
0.0007801
9.994e-05
0.006699
0.0004603
0.006688
5.85e-06
0.0001988
0.006734
0.006641
0.0001164
5.659e-05
3.677e-05
7.647e-05
0.006764
8.789e-06
6.778e-05
4.618e-05
6.183e-11
1.504e-05
2.042e-08
7.588e-06
1.063e-05
8.492e-06
6.109e-06
0.0002777
7.969e-05
7.456e-07
0.0004238
4.006e-05
3.388e-05
1.853e-05
6.969e-06
4.832e-05
0.006689
1.831e-06
6.183e-05
5.014e-08
0.006699
2.859e-06
5.523e-06
8.119e-06
0.0001676
0.00665
0.006649
0.0001432
7.014e-05
0.0003706
8.98e-05
8.399e-06
5.423e-05
3.223e-06
0.000427
9.393e-05
8.236e-08
1.048e-05
0.0001831
8.765e-05
6.647e-05
2.502e-05
4.221e-05
4.639e-06
8.386e-06
0.0001653
0.001845
0.0001913
0.0001392
6.883e-06
7.598e-06
0.0006422
6.977e-06
0.0003809
8.089e-06
0.000241
1.95e-05
0.0001783
0.006693
0.0003545
1.795e-05
3.35e-06
6.19e-07
9.199e-05
0.0001181
3.559e-05
9.259e-05
0.006625
1.272e-06
5.471e-05
5.836e-09
2.635e-05
3.049e-08
0.0002045
0.006694
2.017e-05
3.02e-05
2.997e-05
6.806e-06
1.878e-05
4.969e-05
8.48e-06
7.93e-06
0.0004273
1.593e-06
0.0001608
5.132e-06
3.014e-05
3.414e-06
0.002739
0.002737
8.229e-06
7.006e-06
3.393e-08
4.888e-06
6.484e-06
2.03e-06
2.329e-06
0.0004041
0.0001152
0.0002579
0.002291
0.006691
0.0003544
0.00648
9.911e-09
0.006695
2.065e-07
3.659e-05
5.997e-06
6.809e-06
2.869e-06
0.001453
9.028e-08
4.083e-05
8.965e-07
0.0001051
3.911e-06
0.005802
5.058e-05
6.732e-05
0.0001117
2.154e-05
3.727e-05
0.0002058
1.183e-06
7.712e-07
0.0002762
0.006665
1.951e-06
0.001506
0.006748
4.992e-05
5.434e-06
0.006666
9.017e-07
0.006697
1.045e-05
1.027e-05
3.114e-05
9.797e-07
0.006675
0.0002777
4.076e-05
7.749e-05
1.748e-05
3.129e-05
3.001e-05
0.005008
0.006686
1.047e-05
1.311e-10
2.482e-05
7.576e-06
0.000614
2.248e-07
8.137e-05
4.42e-05
0.002145
1.672e-05
0.0001346
3.201e-06
0.0004588
6.284e-06
0.0006432
1.304e-05
0.006704
2.279e-06
8.506e-06
0.0003437
4.704e-07
7.364e-07
7.289e-05
0.006688
9.761e-06
3.371e-06
9.29e-05
2.813e-06
7.565e-06
2.514e-05
0.0005346
1.18e-05
1.213e-08
7.776e-06
8.302e-07
4.051e-06
0.001977
3.129e-05
0.0067
1.119e-05
2.669e-06
6.924e-06
0.006696
3.777e-05
0.006694
0.0001681
0.0001405
0.006712
2.77e-05
0.0001693
8.037e-06
2.603e-05
0.0006423
8.293e-06
0.006697
4.821e-07
1.856e-07
7.347e-05
8.775e-05
7.32e-06
0.001184
1.742e-05
0.0002621
3.588e-06
9.03e-06
0.0002662
7.844e-06
3.66e-05
2.34e-05
4.273e-07
0.0002174
2.019e-05
1.183e-05
0.0002272
7.908e-06
9.832e-05
6.599e-06
8.235e-06
0.0002071
0.001128
1.477e-05
9.737e-05
1.831e-05
0.000188
3.197e-06
0.0002374
7.267e-06
0.0001139
0.006666
7.498e-06
5.777e-06
0.0001799
8.498e-06
0.0004544
1.017e-05
0.006705
2.208e-05
7.297e-06
4.725e-05
6.099e-06
5.612e-06
6.21e-06
0.006696
8.434e-06
5.148e-06
8.258e-06
1.726e-05
0.0004129
8.374e-06
8.153e-06
0.006694
0.0001508
0.000226
0.001807
6.825e-06
3.272e-05
3.525e-05
4.801e-06
0.0001092
0.0004435
0.002298
2.907e-05
2.488e-05
0.0066
2.106e-05
5.649e-06
1.616e-06
0.006739
0.0001117
3.138e-07
3.976e-05
1.42e-05
0.0001982
8.321e-06
1.784e-06
0.002099
0.00124
0.000181
0.000909
2.868e-05
4.473e-06
0.0003763
7.201e-07
3.351e-05
0.0003949
2.294e-05
4.295e-10
8.874e-10
0.0001922
0.0001671
4.683e-05
0.0001545
0.0003727
2.862e-05
0.0003878
2.993e-05
8.433e-05
0.0001197
8.528e-06
1.749e-06
0.0001222
0.000145
0.003227
1.563e-06
0.0001562
0.0001219
5.799e-06
4.729e-05
3.319e-06
0.0001953
3.619e-05
0.006744
3.596e-07
7.544e-06
2.7e-05
2.87e-05
9.861e-05
3.07e-06
1.421e-06
0.000107
4.305e-05
1.769e-06
3.343e-05
7.236e-06
4.186e-06
0.006636
1.035e-05
1.461e-06
8.192e-06
0.004706
0.0003185
0.0002403
5.136e-06
3.229e-05
0.0005331
7.442e-06
0.005399
4.418e-06
7.228e-06
0.0001682
0.0004731
0.004047
8.347e-06
8.494e-08
7.952e-06
1.965e-06
2.706e-08
0.0003565
6.988e-06
0.001451
1.31e-06
1.647e-05
0.0003394
7.766e-05
6.076e-05
1.181e-05
0.0003372
8.315e-06
0.002559
3.415e-06
2.921e-08
4.615e-07
0.0002369
2.551e-05
2.997e-05
1.032e-05
0.001115
0.000116
9.468e-06
8.264e-05
0.003985
8.297e-06
8.324e-06
8.487e-06
0.0001287
4.041e-05
1.749e-06
1.821e-05
7.771e-07
4.473e-07
1.93e-07
0.0001566
6.282e-06
3.49e-08
9.018e-05
8.22e-06
6.457e-05
2.645e-05
1.381e-05
5.392e-11
2.117e-05
2.387e-05
0.003131
0.0002904
1.02e-06
0.0002105
0.003836
0.006698
9.581e-05
7.725e-06
0.0004882
5.964e-06
8.465e-08
1.309e-06
0.001071
7.013e-06
0.0003508
0.0001801
7.881e-06
3.596e-05
0.0002984
7.749e-06
8.433e-05
0.0001092
3.102e-05
0.006697
3.457e-05
0.0002634
8.063e-06
0.000118
7.711e-06
1.154e-05
4.406e-05
7.07e-06
2.056e-05
2.96e-05
8.403e-06
1.472e-05
8.63e-06
0.0001897
0.0001972
0.0001565
2.973e-05
0.0001675
2.127e-07
6.998e-05
0.00496
0.0001405
6.465e-05
8.369e-06
6.435e-06
0.0007845
1.895e-05
4.465e-05
1.401e-05
0.003011
0.0001824
0.0004191
0.000241
0.0003377
1.103e-05
9.281e-05
9.273e-07
0.0001682
0.0001953
4.094e-05
0.006676
0.0003946
4.067e-05
0.0001311
4.455e-05
0.006688
0.0001314
5.074e-06
1.603e-05
0.006697
0.0007385
0.0003879
1.781e-05
9.226e-06
0.0008151
1.075e-05
0.0002692
2.601e-07
4.061e-06
7.07e-05
8.499e-06
2.696e-05
0.001191
8.272e-06
6.573e-08
4.452e-05
1.104e-07
3.747e-06
4.137e-05
3.003e-06
0.00335
0.006666
1.077e-05
7.851e-05
3.02e-06
0.006697
1.903e-05
4.784e-05
9.105e-09
6.259e-05
6.683e-06
0.006294
0.006445
8.29e-06
4.709e-05
0.0002572
2.212e-06
3.914e-05
4.779e-05
0.0001608
0.006705
7.635e-06
1.638e-06
7.647e-06
0.000316
1.24e-06
0.0001726
2.065e-05
0.006728
3.232e-05
2.192e-06
7.282e-06
5.283e-07
6.255e-05
2.099e-06
4.661e-05
1.519e-05
7.347e-06
4.188e-05
7.407e-05
0.0001279
6.398e-06
2.006e-06
0.00459
0.005161
9.038e-05
0.0001491
3.788e-07
7.956e-06
2.166e-06
3.589e-05
0.00126
0.005507
6.546e-06
0.006702
7.856e-05
5.024e-08
4.06e-06
0.0001084
7.562e-06
0.0001378
2.883e-07
2.009e-06
0.002079
2.622e-05
3.636e-05
7.622e-06
0.0003746
1.33e-05
7.691e-05
2.736e-05
3.083e-05
0.0002403
2.052e-05
0.0001641
1.406e-07
2.655e-06
7.962e-05
0.0001376
5.26e-08
0.0001748
5.008e-05
5.951e-05
6.225e-07
6.766e-06
2.379e-05
7.879e-06
0.0001342
2.909e-05
0.001082
0.0004123
0.006703
7.752e-06
7.574e-05
6.277e-06
8.76e-05
4.319e-05
2.065e-05
3.059e-09
1.722e-06
2.95e-05
8.429e-06
2.416e-06
1.531e-05
0.0007233
0.000365
1.103e-05
3.9e-06
0.0001137
0.0002047
0.0002316
7.462e-05
0.004106
1.008e-05
1.039e-07
7.202e-05
4.859e-05
0.0004536
6.463e-05
1.98e-05
0.006713
1.375e-05
0.000118
0.0005608
9.074e-07
0.0001507
3.603e-05
0.0002087
3.072e-05
6.315e-06
1.462e-05
4.23e-06
2.571e-05
5.978e-06
0.00671
0.0002759
1.566e-05
4.087e-06
4.024e-07
1.107e-05
3.312e-05
2.118e-05
0.003294
3.936e-06
2.481e-06
7.191e-06
5.635e-06
7.94e-06
1.626e-05
7.838e-06
1.896e-06
5.512e-06
2.29e-05
1.032e-06
1.782e-06
4.658e-05
5.638e-05
8.853e-08
0.001729
4.876e-05
0.002584
0.006699
5.875e-06
0.002047
3.8e-05
1.024e-05
3.45e-05
1.033e-05
8.154e-06
1.7e-05
0.0001406
2.758e-06
9.692e-05
0.000482
4.274e-10
7.921e-05
0.0001349
0.0004205
6.976e-09
3.324e-05
1.55e-06
3.187e-07
0.003132
3.251e-05
7.102e-06
8.537e-05
4.608e-05
4.525e-06
2.9e-06
3.17e-05
0.0001225
7.959e-05
0.0001204
3.728e-05
0.006701
4.726e-05
4.852e-05
6.699e-05
1.52e-05
7.273e-06
1.465e-07
0.0001245
0.003669
3.525e-05
0.00011
6.585e-05
9.63e-06
5.349e-05
9.817e-07
8.411e-06
1.515e-07
6.918e-06
0.0001123
7.155e-06
4.037e-05
0.0001378
0.0001254
1.831e-05
3.378e-09
3.69e-05
8.084e-06
8.078e-06
0.006601
4.241e-06
4.151e-05
0.000374
8.876e-05
7.836e-06
2.722e-05
4.236e-06
3.576e-05
3.01e-05
1.106e-07
0.006616
1.865e-05
4.202e-05
7.513e-05
2.235e-05
3.832e-07
0.005216
4.906e-05
6.595e-05
3.212e-05
3.174e-07
2.097e-05
2.807e-05
2.809e-06
0.0001979
8.439e-06
0.006743
0.006731
7.432e-06
1.867e-05
2.092e-05
1.784e-05
8.011e-06
0.006688
1.619e-05
5.762e-06
1.079e-05
0.002549
0.003098
8.883e-06
2.382e-05
6.999e-06
1.606e-07
3.009e-07
0.006118
4.001e-06
5.524e-08
9.072e-05
7.389e-06
4.337e-06
0.001891
0.0001042
2.929e-05
6.699e-05
0.0003185
0.006652
0.006613
0.006635
0.006364
0.001298
0.0004141
2.375e-05
1.731e-06
5.322e-05
0.0001058
5.101e-05
1.897e-05
0.0061
5.707e-05
0.000277
2.011e-05
2.392e-05
1.022e-05
0.0001632
8.7e-06
8.273e-06
1.072e-05
7.39e-06
0.0003571
8.129e-06
9.162e-10
1.583e-06
6.085e-06
2.763e-06
6.793e-06
0.005745
5.614e-09
0.000113
1.346e-06
4.741e-05
0.0001137
3.61e-09
0.006696
0.0002462
2.956e-05
0.005021
3.362e-05
0.0001931
2.599e-05
0.0001754
3.949e-06
4.829e-05
5.457e-05
0.006632
5.991e-06
1.275e-05
0.0001167
0.0002486
1.044e-05
0.006713
0.003231
2.442e-05
7.311e-05
3.234e-05
0.0005
4.309e-05
2.562e-05
0.0001059
1.612e-06
8.283e-06
3.391e-05
0.0003009
0.0004422
0.0001913
0.0001725
1.273e-08
1.956e-06
0.00508
1.62e-08
0.004753
0.006585
4.112e-05
0.001451
1.295e-06
0.0001459
1.896e-06
0.0002517
6.038e-06
0.006697
0.000298
8.025e-05
7.323e-06
0.0003589
0.003449
5.767e-05
1.08e-08
1.633e-05
0.006702
1.274e-05
1.471e-05
4.92e-10
0.001986
3.33e-05
1.578e-05
0.0001018
0.0004458
4.117e-05
4.835e-06
2.602e-08
5.179e-06
8.181e-06
1.063e-10
0.005266
7.08e-06
2.141e-05
7.435e-06
0.006696
7.692e-06
2.673e-08
7.904e-09
5.614e-07
0.0001722
1.609e-05
6.421e-08
0.0004345
0.0001764
0.00669
4.632e-05
2.31e-05
2.75e-05
4.129e-05
6.65e-07
5.483e-05
0.0002094
1.09e-05
0.006706
0.002138
3.499e-06
2.528e-05
5.432e-05
4.236e-06
2.94e-05
0.0001552
0.0001878
1.072e-05
9.229e-05
0.0002083
0.005428
7.4e-06
9.61e-06
7.047e-06
8.182e-05
7.483e-06
4.14e-06
1.164e-06
8.922e-08
5.181e-06
6.902e-11
5.044e-06
0.0002801
1.049e-06
0.0002915
8.084e-06
3.332e-07
0.004845
5.715e-09
0.006705
0.0001276
4.674e-06
1.399e-06
6.434e-05
4.025e-06
7.595e-05
4.893e-06
0.006647
1.454e-09
8.398e-06
0.002125
0.000152
0.0001817
8.79e-09
6.739e-06
6.697e-09
3.073e-05
9.56e-07
5.207e-07
2.023e-05
1.847e-05
8.135e-06
1.225e-05
0.006672
0.0002013
8.828e-06
0.0001304
9.307e-06
0.0003328
0.0003268
8.041e-06
7.431e-06
2.571e-06
7.228e-06
0.003856
7.448e-06
2.803e-05
8.991e-06
0.0001294
0.00257
6.81e-05
1.035e-05
2.997e-05
3.239e-05
7.834e-08
0.002154
0.0022
6.937e-05
7.235e-06
1.717e-05
0.000318
3.314e-05
0.006493
0.0002245
8.451e-06
0.006338
7.534e-05
5.95e-07
0.0001156
6.593e-05
0.0002927
8.445e-08
7.264e-08
2.878e-06
6.268e-05
7.158e-06
0.0002139
3.615e-05
4.719e-05
2.297e-05
2.556e-06
0.0002477
1.583e-07
7.483e-06
2.444e-06
5.092e-06
4.311e-05
8.456e-09
0.0004381
8.137e-06
1.348e-05
0.002634
8.934e-06
0.0001158
0.001317
1.655e-05
8.252e-07
0.0001052
5.554e-06
1.025e-05
1.074e-08
2.08e-09
0.000346
4.857e-10
0.0007922
4.087e-05
9.277e-05
0.0001455
2.161e-05
0.006705
5.782e-06
2.672e-07
8.54e-05
9.93e-06
4.423e-05
1.337e-05
5.76e-06
7.276e-05
0.0001915
2.539e-05
0.0004848
1.529e-05
3.612e-05
0.005147
0.0001742
7.183e-06
0.0067
0.0005133
2.332e-06
0.006697
2.305e-05
5.943e-05
7.282e-06
5.253e-05
6.16e-06
0.001426
6.18e-05
3.035e-05
2.152e-06
1.474e-05
1.011e-06
8.602e-06
0.006687
1.878e-06
0.006713
0.000198
0.0001167
4.993e-05
2.873e-06
7.418e-05
8.208e-06
2.63e-05
9.128e-07
2.049e-05
0.0008962
0.0001184
8.811e-05
0.006674
7.625e-05
0.006696
2.293e-06
2.141e-05
4.424e-06
0.0002119
0.006657
4.315e-05
8.316e-06
1.261e-05
5.078e-06
2.99e-05
1.579e-05
0.0003916
4.035e-05
9.606e-05
4.742e-05
3.637e-05
1.196e-05
0.0001888
6.413e-06
0.0001243
3.396e-06
7.895e-06
0.006631
0.006742
0.001462
0.0003253
3.94e-06
2.501e-05
5.161e-05
0.001519
8.307e-06
6.636e-06
8.075e-06
0.006698
4.671e-06
2.603e-05
6.61e-06
0.002312
2.069e-09
1.738e-05
6.942e-06
0.003212
0.0009658
7.299e-07
0.0002581
8.286e-06
1.882e-06
1.671e-06
9.303e-05
4.627e-05
0.006697
4.468e-06
7.634e-05
6.969e-06
0.0002279
1.085e-05
4.218e-05
0.0002455
5.763e-06
4.101e-07
0.006698
4.647e-05
9.655e-06
1.45e-05
4.732e-06
0.006702
2.056e-05
1.868e-05
0.0001089
4.015e-05
2.65e-05
3.207e-06
0.0001691
1.18e-05
7.142e-05
0.0003889
0.0001354
2.239e-05
0.005174
4.474e-06
2.762e-06
0.0002085
0.0001431
1.449e-05
1.173e-05
5.243e-05
0.006695
0.0002333
0.0002613
0.003225
5.876e-08
9.242e-05
0.006698
0.0007223
8.457e-06
1.141e-08
0.006698
0.0002912
1.004e-06
8.067e-06
4.111e-05
3.54e-05
4.126e-07
3.255e-05
4.811e-06
8.39e-06
1.828e-08
1.712e-05
0.00128
9.925e-05
1.375e-05
9.949e-05
0.006685
0.00019
0.0001349
0.0003843
0.0001033
6.954e-06
5.003e-08
0.0001221
4.395e-05
2.338e-08
2.311e-05
2.987e-06
0.0002688
3.691e-05
9.856e-05
1.119e-06
1.53e-07
0.00669
2.714e-05
6.575e-06
0.006698
1.029e-05
0.0001353
8.175e-06
0.000255
8.082e-06
8.4e-06
9.471e-05
1.733e-05
0.004921
0.001703
9.435e-05
0.0001406
0.006764
2.078e-05
0.0002145
3.332e-07
0.0003887
9.669e-05
3.921e-06
8.494e-06
8.597e-05
6.824e-06
0.00671
3.634e-07
7.494e-06
3.976e-07
8.586e-06
6.431e-05
1.457e-06
1.74e-05
3.301e-05
2.061e-06
5.154e-05
1.809e-06
0.006698
0.00669
0.0001832
3.118e-05
0.006685
6.679e-09
7.747e-06
1.431e-06
1.573e-05
1.879e-05
6.796e-05
0.005047
7.418e-09
0.0009078
5.397e-06
0.006745
1.149e-05
5.735e-05
0.0002784
8.583e-05
8.066e-06
0.0002755
4.139e-05
0.006661
6.099e-05
6.98e-06
9.335e-07
1.444e-05
0.0002871
0.0003202
2.213e-05
0.006699
4.466e-05
4.759e-05
0.0001723
0.000201
0.0002193
2.567e-06
0.005925
0.006713
1.597e-05
1.302e-05
0.0004188
1.675e-07
0.006701
4.962e-06
0.00011
6.641e-06
0.006701
7.076e-05
8.556e-06
1.962e-06
2.785e-05
0.0001001
2.259e-06
0.006714
3.957e-07
0.004763
2.736e-05
6.15e-08
0.00111
0.0001631
5.734e-05
1.579e-05
2.746e-07
3.608e-05
7.973e-05
0.006661
1.987e-05
9.806e-05
0.0067
3.688e-05
5.067e-06
2.135e-05
0.006763
0.0001894
7.185e-05
0.000104
6.302e-06
0.0001596
0.004265
2.052e-06
5.473e-06
3.503e-05
0.0004701
0.006697
0.006705
0.0008696
2.225e-05
7.803e-05
8.345e-06
2.794e-06
2.351e-07
5.752e-06
2.762e-08
1.252e-06
0.00145
3.028e-06
2.506e-05
1.549e-05
0.0002813
6.965e-05
1.459e-05
4.817e-06
2.625e-05
8.224e-08
9.166e-05
0.0003524
9.116e-05
2.49e-06
7.608e-06
1.077e-05
0.0001951
0.0001236
3.028e-05
1.145e-06
0.004123
6.915e-05
3.512e-05
1.643e-05
4.972e-06
2.966e-05
2.956e-06
1.11e-05
0.006665
3.207e-08
6.689e-05
0.006748
4.603e-06
0.006696
3.285e-05
5.314e-05
0.001544
3.185e-05
7.202e-06
0.006707
2.935e-05
2.75e-05
3.137e-07
0.0006658
1.106e-05
7.281e-06
6.704e-05
0.006691
1.13e-06
0.0003111
0.0006017
1.293e-05
5.883e-05
8.391e-06
4.782e-08
8.786e-06
3.27e-05
1.766e-05
7.679e-05
3.561e-06
0.0067
0.0002794
3.518e-06
8.325e-06
5.948e-05
0.006701
1.457e-08
8.542e-06
1.111e-05
0.0001467
0.0001229
2.168e-05
0.006668
0.0005421
7.65e-05
8.61e-05
2.663e-05
7.03e-06
7.397e-06
2.693e-05
6.492e-06
6.74e-06
9.935e-05
4.56e-05
0.0001037
1.199e-05
2.047e-05
3.144e-05
0.006701
3.599e-05
0.001062
0.0002983
6.307e-05
8.095e-05
6.114e-06
0.0001057
1.549e-08
1.861e-05
1.375e-05
0.002232
0.006691
5.919e-05
1.416e-05
1.004e-06
1.761e-05
0.0001576
7.542e-06
5.349e-07
7.593e-06
2.189e-05
2.848e-05
3.401e-06
7.989e-06
1.064e-05
8.016e-05
8.28e-06
5.145e-05
2.747e-06
2.388e-05
2.929e-05
0.0004076
8.363e-06
0.006694
0.0001299
0.0003546
0.006691
8.565e-05
8.3e-06
0.0003812
5.944e-11
7.317e-06
4.804e-05
0.006697
8.467e-06
5.055e-05
0.003009
1.347e-05
1.004e-05
1.661e-05
0.0001038
2.112e-05
0.006697
2.307e-05
0.006714
8.113e-05
3.718e-05
2.466e-06
5.869e-05
3.325e-06
4.209e-11
0.006611
0.006694
1.064e-05
5.481e-06
8.521e-06
0.0001582
6.077e-06
8.256e-06
3.548e-05
0.0003066
0.001351
3.419e-06
1.431e-06
1.471e-05
0.0002523
0.00669
7.872e-06
5.014e-05
6.969e-06
7.879e-06
8.993e-05
0.0007384
2.669e-06
1.624e-05
0.0002913
8.033e-05
3.397e-05
8.949e-05
0.006705
0.006375
7.542e-06
5.102e-07
1.729e-05
3.208e-05
0.0001825
0.0004135
8.108e-06
2.204e-05
0.006629
5.096e-06
1.319e-05
6.933e-07
1.476e-05
2.11e-05
0.006684
8.47e-06
7.346e-06
1.974e-05
2.815e-05
6.967e-06
2.275e-05
7.639e-06
5.971e-06
8.098e-06
8.167e-06
8.367e-07
8.043e-05
0.002052
7.643e-05
5.934e-05
4.463e-08
0.0005099
0.0004412
8.641e-06
1.242e-05
0.0003615
2.266e-06
4.364e-05
5.871e-07
0.0001202
9.253e-07
1.749e-05
6.68e-05
2.641e-05
6.971e-07
0.0003182
1.95e-06
2.056e-08
0.00516
1.395e-06
4.132e-06
1.094e-06
1.68e-05
7.488e-06
5.839e-05
0.0001257
8.441e-06
3.257e-05
3.024e-05
1.479e-05
0.0001906
0.0002317
0.0003916
0.000191
1.274e-05
0.0001489
7.534e-05
5.536e-07
3.419e-05
2.336e-07
8.396e-06
8.341e-06
0.006656
3.444e-05
7.271e-05
1.133e-05
4.29e-05
7.379e-06
3.895e-05
4.598e-06
0.0001016
1.802e-05
7.575e-05
3.428e-05
7.975e-05
0.0008195
0.0001154
0.0001384
1.717e-05
0.0001778
0.0001229
1.823e-05
7.566e-06
0.0002956
6.71e-06
1.997e-05
6.213e-09
2.712e-05
4.035e-05
0.0001538
2.316e-05
9.793e-05
2.359e-06
0.004221
0.00228
0.005656
0.0002754
8.328e-06
6.576e-05
0.0002145
4.921e-06
0.0003246
4.872e-05
1.297e-09
7.674e-06
5.597e-07
6.671e-06
7.345e-05
7.73e-06
6.21e-07
0.0008404
3.403e-05
0.006697
9.719e-06
0.0001984
6.453e-05
5.328e-05
0.006684
0.006686
4.508e-05
0.0001278
0.000112
1.461e-06
8.105e-06
0.006678
0.006697
9.068e-06
0.0002202
3.798e-07
4.434e-07
0.005801
4.101e-05
7.261e-05
1.835e-06
2.717e-05
1.603e-06
8.182e-06
0.0001868
1.031e-05
8.51e-06
1.329e-05