/*--------------------------------*- C++ -*----------------------------------*\
  =========                 |
  \\      /  F ield         | OpenFOAM: The Open Source CFD Toolbox
   \\    /   O peration     | Website:  https://openfoam.org
    \\  /    A nd           | Version:  8
     \\/     M anipulation  |
\*---------------------------------------------------------------------------*/
FoamFile
{
    version     2.0;
    format      ascii;
    class       volScalarField;
    location    "60";
    object      omega;
}
// * * * * * * * * * * * * * * * * * * * * * * * * * * * * * * * * * * * * * //

dimensions      [0 0 -1 0 0 0 0];

internalField   nonuniform List<scalar> 
127143
(
2.183e+06
4.105e+06
4.682e+06
1.997e+06
1.676e+05
2.021e+06
6.622e+04
1.157e+05
1.848e+05
2.697e+04
9.739e+04
1.521e+05
5.509e+06
1.69e+06
119.8
6124
5.655e+05
2.215
17.47
4441
63.53
4480
0.1248
152
4548
625.2
1784
1964
1282
1.006
242
643.2
4256
450
0.05695
4152
41.21
5.397
104.9
741.5
17.44
2.048
1.288
7.844e+05
2.227
440.5
1222
58.43
131.3
118.3
5276
0.02836
53.77
0.3846
0.02096
250.9
0.02095
0.3952
0.02285
0.3806
0.8861
22.49
35.61
0.02211
635.9
0.9349
0.06985
42.48
42.33
0.06933
177.9
1765
45.83
0.02284
0.0218
1897
0.02437
69.67
247.7
0.02222
1062
3922
317.1
602.7
36.04
69.85
77.48
2406
0.7704
416.7
0.02363
0.5798
231.8
63.56
188
0.5987
1.811
318.3
95.7
0.06861
0.02221
122.8
1865
2.311
71.3
97.05
41.51
0.06956
3.866
0.02133
117.2
2433
108.6
30.92
0.02182
1.31
0.02469
0.0218
0.02418
1.685e+04
0.02134
278.3
12.98
0.218
1082
761.8
36.38
0.02524
142
241.1
114.3
200.4
19.67
69.79
6.419e+04
114.4
0.06468
37.09
558.8
0.0581
0.2038
0.02345
31.15
17.93
51.8
62.92
5845
0.02213
201.4
2627
4.636
110.5
4.313
0.1109
41.37
37.12
0.395
274.8
58.89
429.6
154.8
5338
0.02369
113.3
554
597.3
45.5
1.424
1656
0.02974
106.1
17.91
1.718
7.392
0.2091
27.69
55
141.6
126.4
0.03576
7.379
0.03647
26.4
27.47
242.6
21.33
0.1799
33.13
139.3
0.03549
87.17
187.3
0.05835
128.2
1.171e+05
26.61
0.01953
0.01947
1.731e+04
0.02203
0.02181
0.02975
0.2086
41.33
6.339e+05
59.01
0.06166
6.838
0.8129
0.02182
0.2254
29.3
0.02182
1665
119.5
1.465e+04
253
7.08
148.4
0.06199
44.32
0.02184
110.5
44.08
416.9
116.8
427.8
5.213
62.95
71.51
70.04
0.0362
43.5
1.12e+04
69.81
0.1116
114
2.561e+05
0.02181
64.17
176.6
571.6
30.08
271.6
13.81
1.345e+04
65.96
1721
9734
0.08337
11.19
614.7
8.6
36.14
172.8
3.973
0.02516
1185
3.575
0.08763
23.97
0.0299
0.543
0.02329
35.62
588.2
84.72
53.68
1.76
4.645
457.6
0.2072
61.21
64.83
22.11
81.18
108.1
94.18
0.3548
3.668
0.04834
1.84
2.273
0.02178
0.0218
1.088e+05
147.1
0.02184
105.8
0.03725
4.078
0.3831
0.1113
2.339
0.02215
6.389
216.8
52.67
30.15
4.038
327.5
0.7654
0.6513
1.2
496.9
25.33
6.804
0.02185
4.27
9.676
45.95
78.4
311.3
0.03895
0.0218
239.7
8.679
321.7
0.3002
0.7799
0.1162
188.1
0.03267
8.621
250
14.34
0.03793
160.2
196.8
46.04
52.08
0.0218
0.05585
0.01954
0.01948
0.108
3.755
1.716
52.24
159.5
0.05634
7.084
40.48
72.92
25.7
105.5
259.1
132.9
316.2
184.3
275.6
6.533
29.77
80.64
0.0331
239
36.12
47.83
0.02434
196.6
62.52
29.94
0.7603
110.7
116
0.02192
0.02201
1.068
416.3
0.3908
4.336
0.03287
450.8
124.8
0.03363
0.1157
200.5
8229
90.05
0.3343
1.198
733.6
239
0.7569
0.02455
1888
0.04861
708.9
27.92
3.24
0.02225
0.4062
78.23
158.9
137.8
234.3
0.421
194.7
0.03282
0.02942
613.9
0.02185
52.77
26.02
0.05036
6.979
74.85
17.9
0.02222
109.2
11.33
305.9
0.2059
67.65
11.13
186.3
111.7
470.7
5.278
45.93
45.23
377.4
130.4
0.06408
72.42
0.1058
1.077
0.1272
528.6
0.07589
0.02116
124.5
30.94
0.3599
25.48
0.02192
8.147
276
0.02794
0.02212
0.02173
102.5
0.06563
4.519
0.02613
315.2
0.02187
46.22
1.095
29.25
79.43
208.1
5.906
454.1
0.04861
38.12
362.1
440.5
43.72
3.679
16.04
64.72
6.904
11.94
74.87
0.1624
0.02255
51.03
222.8
0.02079
77.41
0.5621
0.218
8.256
0.05263
0.02029
46.28
0.5181
71.04
25.69
948.1
44.66
353.7
313.8
9.075
25.44
17.85
0.0217
342.4
0.02354
153.5
68.61
62.54
64.75
1.99e+05
105.1
9.854
0.1263
18.71
0.02175
914.9
0.02262
30.25
24.04
2.882e+05
1.482e+04
4.687e+04
0.02194
237.6
104.5
0.0218
63.46
16.67
70.73
2.557
80.66
209.9
77.29
773.7
0.1394
26.13
9871
62.67
320.1
93.78
0.02263
4.246
0.175
5.872
0.02378
364.5
3280
78.47
0.01971
50.97
0.1266
145.8
10.98
2500
4.527
0.02375
50.26
7.333
0.02082
0.7609
4.293
186.5
110.1
225.6
92.58
27.33
9.181
31.67
57.76
124.6
0.02238
609.8
136.3
323.9
22.53
33.36
0.02213
0.02207
0.08084
258.5
27.29
0.02183
0.02714
5.204
128.9
70.87
9.052
102.4
311.5
1.929
0.02361
0.02134
79.06
90.31
19.84
0.02998
1730
16.36
177.1
0.3311
454.9
0.02184
76.9
25.61
3.019
0.02392
65.97
24.01
2159
0.02027
38.59
248.2
0.02172
6.966
0.02186
72.5
17.85
0.02178
276
180.3
71.05
154.9
24.56
276.6
239.6
39.8
95.07
191.3
103.9
31.74
50.65
408.9
0.02595
256.3
0.02178
21.2
0.02574
30.16
0.02116
0.02184
0.4866
45.73
98.19
0.02133
0.02117
58.6
2501
291.9
294.3
55.3
4.447
76.2
11.95
71.28
128.4
749.9
0.02135
327.5
65.37
0.6672
1.873
0.02399
0.0271
12.47
464.4
17.85
935.1
0.02563
0.03414
87.3
337.5
0.02935
584.3
0.1821
0.1426
129.4
3.37
59.58
0.1655
4.946e+05
106.5
44.16
38.2
147
232.9
421.4
358.4
0.02707
122.4
41.42
52.52
0.02122
89.61
0.6467
0.5202
0.01969
0.0212
690.7
0.1265
221.4
191.5
29.01
4.273
1.391
355.1
0.1511
150.5
0.02168
0.0209
14.97
0.1112
399.4
0.4492
409.3
58.46
89.97
0.1884
0.7055
0.03066
311.8
0.05289
183.1
6.97e+04
15.32
30.96
87.42
0.0249
30.42
116
626.4
4.374
12.02
71.18
2277
112.2
41.52
23.22
124.2
38.16
9.623
36.03
0.4257
1.067e+06
0.6359
0.02934
41.65
17.78
68.01
0.02156
30.39
6.107
70.86
0.03637
901.8
129.2
445
0.03703
366.6
32.57
312.7
208.1
0.03157
80.97
82.65
218.8
38.64
0.02211
40.5
78.82
0.02217
6.977
1.102
218.2
104.8
0.6507
15.38
540.4
81.84
0.01935
80.69
39.85
669.2
302.9
0.4232
62.68
88.25
0.01941
71.24
127.7
25.18
7765
24.64
75.02
83.44
29.24
2.218
0.02193
7.981e+05
131.2
144.5
127.1
50.63
50.23
72.88
140.7
0.02132
5.994
2.301
0.03213
87.1
153.3
42.34
12.87
0.02049
73.15
28.78
0.02169
0.02043
1.878
26.39
55.53
48.83
75.09
3903
3.418
0.3507
0.02124
95.46
43.2
211.7
408.2
1.162
0.04809
0.02246
3.153
1841
0.02126
0.174
192.7
28.89
585.4
0.02308
25.99
31.67
0.02182
312
0.02121
25.45
1445
307.4
16.32
977.1
0.02311
230.2
0.1851
365
52.33
432.5
3078
0.4182
0.7851
2.56
1393
0.0218
2.62
202.2
710.3
42.25
932.2
0.04637
0.1631
80.68
612.6
1827
132.6
1.985e+04
414.7
3653
187.7
108.7
4.921
1675
0.02428
54.65
0.02545
0.02348
39.67
0.02861
141.2
30.11
28.75
0.8439
0.04353
326.1
43.67
0.02225
2.017
51.56
0.04159
302.2
2163
29.55
5.661
121.3
10.87
55.34
0.02173
62.53
184.4
0.0241
252.6
131.4
17.37
0.0207
1.818
1.352
7326
4.58
2186
68.73
13.42
33.54
316
408.9
0.02168
517.9
1.056
0.02313
4.905
7410
1.723
701.7
5.885
1.641
559.6
3333
147.7
0.02353
0.02184
6.085
8.4
56.26
290.4
67.21
623.4
187.1
0.1209
610.8
0.06187
1150
0.02161
62.69
87.67
30
157.4
92.34
0.02179
0.02228
97.66
0.275
42.75
134
61.02
55.01
13.55
170.3
285.3
879.7
46.68
277
157.9
6.331
67.35
130.7
50.36
113.2
3033
94.48
0.02156
0.02142
80.46
36.71
0.7887
0.02092
13.72
76.18
0.5294
55.64
10.95
102.6
11.32
0.02223
0.4341
0.5534
1296
479.8
32.32
0.5984
2.312
422.8
143.7
15.41
50.9
16.85
73.61
44.66
799.3
0.02412
375.1
335.7
38.07
140.6
132.4
0.02187
656.1
1181
0.02097
0.02155
77.29
87.7
9378
44.45
52.73
120.7
74.19
0.4754
0.5067
0.02466
83.7
33.39
66.46
2.014
172.6
56.2
0.02408
859.9
36.42
0.02172
347.3
0.02277
0.02169
10.53
0.1362
2277
0.02158
307
0.02182
178.1
0.1111
2.032
3.422
251.7
185.9
126.1
20.53
0.05047
0.03926
28.47
100.8
50.13
79.73
1085
85.68
1005
166.7
154.1
653.1
183.8
604.5
0.2897
4.044
0.03104
330.9
35.24
399.9
0.05305
51.52
39.74
44.16
34.94
92.91
0.7798
381.4
12.82
44.24
43.26
284.2
53.15
0.02076
12.86
341.9
0.02269
259.5
551.9
0.02081
1.844
46.25
0.03854
0.3138
8.483
130.4
0.2367
0.0199
230.1
133.3
0.02177
0.2044
0.03633
76.76
199.3
3.982
0.03947
95.3
2118
253.3
138.6
59.95
1636
0.0625
80
0.02178
107.4
11.91
248.6
34.87
90.36
807.9
0.02197
9517
146.3
195.4
28.61
938.1
16.66
3.485
513.3
35.36
0.0402
1.917e+04
35.29
141.6
362.1
90.47
36.05
83.95
209.5
45.1
65
17.85
207.1
168.4
1.832
1767
0.1287
51.28
0.1225
255.1
0.01983
0.02166
10.8
1739
68.19
0.2217
750.9
78.41
0.02181
2569
52.66
13.52
2263
2.732
39.07
1.927e+05
2.016
295
60
39.32
904.7
162.3
421.1
8.958
333.9
0.08583
0.6219
4.642
110.7
3.998
51.98
59.95
480.6
50.56
0.3571
41.98
1.855
1.125
5.186
1682
0.05004
1691
246.9
43.69
68.19
0.02181
48.01
106.1
1.429
144.9
344
504.5
0.02136
195.4
101.5
98.54
877.6
59.43
5.565
67.73
0.02234
73.26
51.95
2890
228.4
0.09185
38.75
0.02251
2356
990.5
46.58
0.7789
3.843
0.02079
0.01983
55.68
26.03
20.83
0.1169
0.04213
0.04543
19.53
119.2
5.845
330.8
130.6
944.2
1.364
435.8
37.45
76.84
0.01986
241.7
49.72
23.59
1128
4.287
13.06
75.62
29.8
69.17
2958
1.087
136.4
61.47
13.15
2.535
114.4
2454
0.2119
81.48
0.0212
147.4
656
0.02036
760.1
15.39
51.11
202.1
0.02139
1.555
1.094e+04
0.02189
110.8
117.3
45.52
967.4
0.8819
2.32
70.1
563
73.83
276.1
0.07871
34.03
263.2
3353
159.8
104.9
0.0217
158.3
5.564
356.6
160.3
39.87
90.2
0.02208
1.446
63.72
0.02386
58.55
0.02134
2181
58.69
1667
49.95
37.07
785.1
95.75
87.6
146.5
4866
144
94.17
26.45
64.92
62.23
0.02211
32.21
0.02287
48.1
0.02201
42.54
0.02148
246.8
39.05
0.02079
0.02171
48.95
0.2129
183.3
0.1323
0.0202
8.467
113.9
0.03896
5.093e+04
238.4
5386
88.05
19.37
157.8
90.89
31.39
0.302
795.7
25.89
96.89
525.5
110.6
48.01
12.9
0.02156
4827
136.8
678.6
0.02181
1032
41.53
159.7
37.85
0.01976
0.01974
0.3579
1.049
5.764
33.23
31.78
1.089
2.216
0.72
1.962
513.4
25.33
2.491
93.09
2.61
603.3
205.6
34.38
171.5
84.29
0.02234
34.17
39.61
1018
41.63
0.03865
24.8
1.087
74.81
30.36
705.7
0.7775
0.02174
40.47
10.65
1452
432.3
0.791
132.3
144.2
0.1589
0.01973
480.1
225.3
5679
0.08653
1789
36.34
0.02155
261.8
115.4
21.29
0.2312
32.69
68.24
27
98.72
47.17
162.6
0.04997
40.73
243.3
296
0.0438
0.04371
196.5
17.86
8107
91.35
343.3
368.9
4853
0.8081
51.78
0.02745
0.02197
0.02151
56.05
0.02187
1353
0.02173
4063
0.4854
17.6
48.72
262.3
0.07445
1638
0.3033
174.5
80.36
847.3
0.02262
228.4
83.24
68.8
182.1
95.09
87.73
513.8
615.4
0.05383
0.02061
389.7
0.06117
0.02014
0.4721
273.5
0.02061
674.4
0.02185
57.72
24.75
33.9
128.1
0.02097
68.87
276.7
128.4
0.1046
5.699
0.2718
0.02178
0.02123
76.81
2.029e+04
8.519
44.45
0.02647
908.3
0.4795
0.1078
0.04891
2.486
79.87
246
0.0276
40.27
0.02342
87.36
0.02217
0.822
28.52
27.34
20.79
339.8
184.4
0.02122
25.7
552.5
67.51
961.9
438.1
8.327
0.03768
4.741
8320
37.13
457.1
505.7
0.05784
0.2471
0.02163
167.4
86.83
74.41
0.02181
116.1
0.02176
0.2487
70.85
0.02151
7.315
0.4377
13.47
36.06
0.3423
169.4
0.0219
152.5
502.4
2.08
17.75
83.94
0.04507
12.97
29.42
76.39
18.03
31.52
304.5
136.5
226.8
539.5
0.09268
0.3074
18.94
0.04007
118
91.62
0.1563
39.28
0.02643
0.1505
156.9
1.353
12.22
50.73
1082
45.15
920.4
0.8204
0.02066
908.6
64.09
0.1248
187.6
0.03104
23.91
0.02223
18.52
840.2
41.14
11.71
28.02
70.66
0.02187
30.76
0.6686
8.162
1214
0.02772
48.15
523.3
0.02161
0.02834
30.97
0.05838
48.6
2.398
1.908
16.19
0.7248
30.44
0.0608
0.8494
137.5
0.02077
0.2725
1233
845
0.02097
56.47
1171
4.881
515.3
49.41
81.81
822.4
0.04993
0.09123
34.43
0.02779
537.8
14.11
34
769.2
275.6
0.02713
287.5
1.477e+04
4.755e+04
36.41
35.82
249.7
0.6963
52.93
5.964
29.31
237.9
50.88
46.81
30.88
502.3
101.1
1.13
0.02182
406.1
1.151
118.2
0.4579
0.05579
63.51
35.71
5.32
0.02052
187.6
444.4
7.749
415.5
64.93
1112
131.5
0.03051
251
468.1
64.84
51.81
1469
0.01939
2573
118.5
81.3
0.0257
55.96
66.84
304.9
353.3
33.42
417.7
0.02601
6.726
96.38
0.06238
46.28
0.02189
213
2495
75.59
409.4
5419
40.37
1080
0.08157
320.4
5.704
55.16
0.04658
10.67
16.19
39.24
57.83
0.04863
39.46
3355
5502
41.85
2.59
1
1.587
0.02232
0.02893
107.6
0.4888
0.02234
38.1
64.6
136.6
42.57
4.854
72.03
11.89
617.1
955
1291
0.115
45.02
2619
33.43
190.6
2.926
6.681
28.76
3.402e+04
7.912
7.119
0.03553
0.06645
776.4
40.41
0.0218
0.02196
50.25
392.3
34.29
50.58
2029
27.45
0.02651
372.9
57.28
38.64
617.5
0.4747
2.023
51.7
163
0.8087
185.9
0.02189
106.7
39.13
397.2
0.7794
106.7
534.2
2.009
390.6
10.45
236.9
69.6
162.5
0.1553
58.84
65.15
94.02
367.4
38.81
1318
77.72
0.0218
40.05
2.921
316.5
27.75
0.1892
10.93
0.1421
842.2
0.03858
40.37
24.88
32.94
53.78
28.89
0.2236
918
0.2748
0.02738
90.85
0.02091
43.23
0.03839
0.845
27.63
0.02152
0.3765
107.3
136.6
0.02178
0.02484
54.24
9.703
295.7
0.2298
22.61
31.4
327.3
229.1
1.065
34.73
7.758
0.09852
53.58
2486
19.14
1898
196.2
21.82
1034
0.02181
0.02061
2.254
2.214
5279
0.02181
11
91.75
1.481e+04
116.4
252.5
0.0196
0.01918
184.9
203
30.14
39.26
0.04053
2.194
1.134
0.02222
369
69.04
37.92
28.62
690
0.2918
3.091
0.01991
5.457
65.71
343.3
157.1
172.5
171.2
70.37
101.7
57.77
341.4
186.3
0.08918
56.08
380.1
0.02598
0.02348
74.77
41.98
1104
3.317
101.3
240.8
0.1183
0.02178
8.572
0.02211
98.24
1958
48.08
0.1826
23.57
0.05541
573.3
268.1
0.05595
6.692
5.022
44.29
31.77
17.14
182.3
133.3
89.92
59.38
8.49
55.66
431
49.06
152.3
39.67
3851
36.7
68.03
78.31
13.43
3.723
7.845
1118
0.5005
264.3
0.02319
47.03
0.02214
68.61
22.17
1045
123.5
0.1257
249.7
3069
438.6
80.61
30.45
316.6
1530
0.2051
31.48
17.19
1964
110.4
75.77
0.2533
0.4333
0.02181
25.71
2526
2.577
94.16
50.24
0.1314
1069
0.01984
16.59
0.562
32.32
205
0.2342
2.214
36.65
0.05096
40.05
12.38
1015
103.2
105.6
0.02155
43.52
94.51
261.7
787.9
17.88
10.87
141.2
0.02185
125.9
98.9
7.343
16.32
35.33
813.1
317.6
91.19
65.27
0.6523
5.728
506.1
4.035
0.1073
1320
0.0576
0.6669
0.02187
0.02199
62.92
0.02232
86.88
19.48
1.014
28.51
310.9
884.9
83.39
65.57
118.1
34.87
8480
105.1
106.3
0.7741
3307
27.59
468.6
1264
0.03546
186.8
295.1
2.171
40.67
283.7
220.1
131.7
90.25
110.4
0.03005
8.895
0.02206
1.034
39.59
61.77
15.28
44.88
1762
59.67
0.02233
342.1
122.1
2.851
22.8
114.3
81.7
257.7
398.9
930.6
59.13
106
79.66
103.5
52.41
0.1055
4137
382.7
39.2
3.255
0.02247
126.7
344.9
52.35
2.1
969.1
386.9
117.8
2.42
113.1
1922
0.02247
192.9
20.33
0.0473
9.828
187.1
0.02181
257.3
45.38
5.665
4736
5.765
155.6
3322
88.28
103.6
0.01982
0.01977
98.13
11.88
3.353
663.2
56.65
0.02151
799.1
344.9
61.13
0.02246
0.02234
63.37
3.679
94.88
1.122e+04
209.7
0.02401
245.6
1735
0.1171
251.4
140.6
0.07059
0.9382
137.9
0.8461
30.15
0.01966
0.01944
0.01945
0.01964
0.08163
25.16
7.853
111.7
3.403
46.82
85.33
879.3
0.02041
181.1
41.88
158.1
622.1
201.5
38.2
30.16
142
51.47
68.4
0.1062
43.19
6286
70.74
704.2
0.7961
26.85
0.02177
3447
122.8
132.3
3.636
0.0365
2863
0.0218
39.77
582.2
0.029
221.6
55.79
35.93
35.83
287.8
0.05506
107.8
0.02068
5.573
89.79
58.18
68.85
16.76
0.02164
0.02189
0.313
65.21
185.4
0.3496
49.86
228.9
1.772
220.5
143.6
5.801
56.47
25
74.49
0.2081
3439
0.8767
0.02178
1197
0.02178
0.02262
0.3424
0.08133
257.8
74.81
407.1
68.83
137.5
0.02188
0.09929
52.23
84.26
52.57
0.03909
0.3527
9882
951.7
0.02213
1564
947.9
9532
0.05797
5.847
13.8
0.1038
0.02536
4.698
97.02
7213
0.1285
275.1
3.65e+04
0.02179
156.3
766.2
54.39
0.02179
329.3
8974
4919
1123
0.4706
14.19
2562
0.05655
66.06
0.02154
48.84
979.1
7.836
241
1088
0.2432
32.77
17.06
0.02225
0.03255
200.1
375.6
3.506
311.7
190.3
0.9857
56.12
51.64
50.27
58.68
0.02179
50.4
69.71
85.52
80.68
25.97
191.5
81.35
1433
1644
2.038e+04
219.5
0.054
163.9
0.02727
347.7
305.5
0.0218
2.213e+04
0.02221
65.73
1217
559.4
119.9
124.9
60.73
40.34
0.01965
9355
33.34
0.04722
47.96
36.3
2586
853.7
3279
24.99
169.5
904.3
34.85
0.109
37.57
1560
0.02089
61.88
28.28
41.03
25.43
30.16
34.55
666.1
52.66
49.06
974.6
0.04141
624
0.1231
21.2
53.11
0.02594
0.1351
18.63
425.4
382.1
1376
0.04581
0.02213
2.578
96.99
1594
45.15
10.89
0.01932
0.03355
394.7
0.01976
108.3
136.5
0.08623
193.9
30.62
2244
1467
862.6
0.04028
232.5
44.48
264.4
4.095
13.04
967.6
68.84
307.4
105.1
324.1
82.36
1.923
1890
25.3
37.8
57.39
0.04135
23.82
0.1753
0.02219
10.78
149.8
126.3
71.75
20.61
2687
4211
55.34
3.123e+04
0.1916
0.3511
0.03675
0.06413
9.599
0.02221
39.52
1231
70.17
255.1
1.445
17.06
36.73
163
60.1
528.6
35.55
2395
270.1
0.02441
39.17
38.35
0.02204
0.04172
484.8
0.02186
287.7
207.1
101.9
3.442
621.1
0.07588
0.6511
0.04976
243.4
232.4
153.4
25.91
0.02144
91.17
0.02164
0.324
91.61
2.801
983.4
183.8
271.8
7.605
2462
1.032
0.1637
90.82
80.43
0.02084
2.502
0.02185
324.3
309.6
113.5
53.59
0.02165
225.2
172.5
158.1
558.7
333.6
126.9
0.02446
1.017
1.948
2.094
372.7
15.05
0.09547
4.707
0.1621
23.49
126.8
0.02071
0.02042
0.02272
0.04136
0.2802
134.1
154.8
0.02208
94.9
12.44
62.26
0.02194
119.5
0.1092
460.3
0.05985
6200
12.97
514.9
0.03521
0.09825
873.3
0.03114
60.7
62.6
77.14
95.25
188
0.02182
116.4
59.04
48.1
43.1
76.62
4.1
74.84
26.48
760.6
0.02154
49.09
18.65
1961
0.1921
0.02209
469.8
589.3
83.65
58.34
6.674
731.9
0.05182
15.56
60.02
57.86
40
4.7
0.02432
10.19
1081
115
38.77
1088
2.995
3.621
0.02168
0.03049
0.1409
0.03656
6960
158
0.02195
0.02359
40.81
4341
0.02194
65.89
507.1
61.14
3.359
285.8
1009
185.8
41.85
282
2488
533.5
0.02224
131.6
16.58
151
0.02139
0.3464
68.72
33.82
59.87
3305
696
1.465
192.2
2410
9.145
82.38
75.28
1.75
0.9112
425.9
1720
0.02158
378
48.93
0.02193
768.5
69.12
3.742
0.07825
34.15
244.8
91.6
12.2
0.02189
0.022
2.021
39.12
0.02018
2.281
0.0275
309.4
49.19
61.13
182
449
1.92
48.69
0.02154
1046
14.66
1125
207.8
0.1086
443
5.243
306.5
820.9
13.36
766.9
0.02081
0.02125
99.19
0.07355
0.0214
2006
86.65
93.08
163.4
11.76
119
0.02435
1945
0.04212
27.96
0.02041
0.218
170
49.39
136.4
34.27
42.55
77.16
0.02048
135.2
201.8
385.9
1071
0.1446
28.06
7.694
0.02195
71.95
223.1
0.1723
0.05103
31.31
844.4
0.02133
0.02164
10.97
143
58.1
1491
0.02206
233
126.8
50.52
0.02208
0.08999
337
68.47
151.7
83.34
25.32
0.02053
178.3
0.02601
377.6
1369
0.07159
37.41
31.37
215.8
814.2
80.96
0.0696
0.02048
109.5
0.2372
0.02167
424.4
86.14
10.14
0.02049
0.08457
0.1111
0.03021
47.08
75.06
0.0218
284.8
28.47
86.43
0.02907
0.02191
0.02168
0.05242
9.694
2.469
240.8
1053
1505
26.57
2293
643.1
0.02498
987.3
147.9
147.8
42.53
0.1829
1.885
275.4
552.1
521.5
68.14
0.06163
103.5
71.45
43.28
7.654
0.235
42.6
0.2426
96.56
0.02957
106.9
5.634
3.842
0.5473
576.9
1610
890.4
0.02062
4601
108
0.02012
105.1
0.02182
110.8
173.6
0.1041
467.4
31.07
0.0223
1.765
7.847
1193
0.02361
0.2418
865.4
2.624
0.02158
602.4
47.51
0.03404
0.2296
3.311
74.46
2747
223.1
170
14.52
64.39
1.598
0.02173
0.0496
62.19
43.08
179.4
0.02207
2322
98.75
17.39
38.54
107.4
159.8
0.0202
0.0631
91
156.8
0.05596
49.74
254.2
7.415
3.833
6.416
31.9
0.04768
26.07
15.91
9.159
6.076
0.02205
137.2
0.1331
46.93
3.112
2.151
216.5
144.1
5902
11.14
0.9234
0.07341
0.02123
3.038
12.64
646.6
1055
56.28
166.9
290.6
40.79
0.8314
153.4
203.5
737.7
72.51
0.05029
417.7
1.099
404.2
7.097
20.72
27.31
99.66
0.02179
40.91
0.2335
0.02164
0.2652
413.5
1.098
4.155e+04
235.9
69.89
0.02167
31.24
252.5
0.03869
57.18
77.4
133.7
52.9
129
0.02188
212.2
0.02073
2.147
323.4
50.44
2.974
208.4
3e+04
0.02186
0.02175
15.76
31.34
367.3
0.9704
102.2
268.4
5.656
55.44
0.02216
166.3
514.7
0.1194
66.17
0.02157
24.29
0.06761
48.22
164.9
151.6
0.2894
78.28
14.18
0.02824
77.11
255.4
0.225
0.02153
0.02365
167.9
985.7
10.4
7.913
73.47
10.35
73.37
8.224
0.01939
0.3796
1.111
1639
1592
236.4
0.02135
228.4
57.56
113
98.95
1100
3.103
45.49
43.19
28.77
276.7
716.9
0.9113
0.0562
12.07
0.03721
3013
0.02361
42.2
207.8
15.27
54.51
244.7
127.5
450.7
50.13
191.2
12.6
2.624
446.4
1587
51.92
888.4
1556
0.02179
983.3
120.6
390.9
569.1
42.63
1.447
44.84
36.46
5.777
0.0489
28.02
77.13
31.24
29.63
74.02
1.01
1.198
0.714
1016
113
1384
42.74
232.6
0.02027
376.5
168.9
478.2
32.19
999.5
325.8
125.4
0.1033
900.5
0.0908
53.24
106.7
0.07039
0.6752
94.42
10.43
34.81
50.11
9.187
76.08
46.32
1079
8.919
6058
0.04688
4.967
42.3
12.79
0.05602
244.3
0.02181
0.02252
0.02177
46.96
64.18
64.44
0.4478
0.1525
36.18
0.04938
5381
512.2
968.9
100.5
0.08993
279.8
595.9
0.08049
108.9
0.02187
25.33
32.28
62.08
2.033
0.0213
0.02184
212.2
32.85
0.04488
1039
67.49
0.02096
0.02182
28.03
0.03598
181.4
1082
0.02484
3.213
62.22
247.3
463.5
1087
9.213
0.1807
20.4
127.4
0.2954
340.7
8.91
2.312
246.2
64.74
3.152e+04
0.03044
24.8
146.8
1198
0.02184
64.26
0.0218
12.82
2.642
11.17
42.47
119.5
53.28
0.2323
401.2
79.63
116.2
285
283.2
73.61
1.231
30.68
336.6
36.62
119.1
0.02125
922.5
993.7
427
19.46
3.84
441
216.5
0.4531
0.1372
7699
48.39
0.04403
0.02889
0.04558
158.1
277.3
2.905
951.7
5.202
0.03314
45.09
26.84
36.56
183.2
5606
627.7
36.07
220.7
47.35
119.3
151.1
47.21
18.16
19.92
440.1
47.18
0.4118
40.24
244.3
0.1861
18.9
0.9855
4.52
1073
68.69
0.02204
854.5
8.752
1176
82.06
0.02153
0.1316
272.6
0.03359
67.08
343.5
670.3
18.21
0.02294
0.2472
32.33
65.39
0.08954
155.1
0.02078
229.4
74.51
58.49
47.68
147.8
154.9
140.5
844.1
0.3839
38.91
0.02182
1449
0.04632
0.02655
48.13
0.02211
31.67
60.9
1.927e+04
0.02196
69.32
34.54
184.4
151.4
0.2335
97.16
33.8
131.8
636.2
101.2
0.1155
0.02254
48.69
337.5
14.12
33.28
88.18
119.8
2.677
0.02115
29.34
70.91
2230
18.96
86.61
3.303
85.73
0.02151
8.06
940.5
396.3
0.02198
0.2743
79.18
0.01992
33.65
441.8
31.76
0.02195
0.02201
22.23
0.02457
0.02014
0.02174
23.34
234.7
396.4
0.3465
60.95
4.627
0.8302
0.02225
82.12
22.23
0.0486
1.026
388.1
2.371
0.02867
112.3
129.7
12.95
922.6
2635
0.02821
31.81
12.01
159.4
149
201.6
0.02194
20.96
1010
2.337
44.24
0.4703
537.5
95.29
75.89
5.649
1170
0.0817
2889
93.32
0.02843
0.03457
0.02
45.62
102.3
693.5
392.5
2402
0.1244
0.01941
36.29
44.78
0.1471
0.02214
311
27.22
425.5
129.5
87.71
31.45
14.1
9.256
103.1
0.01985
738.6
180.7
63.37
5.382
0.09862
0.02241
40.93
45.27
133
1335
17.11
0.04812
23.26
0.7779
0.09384
0.02223
307.3
76.4
253.7
298.2
88.35
0.9825
41.79
43.89
3.128
34.38
0.489
0.1896
0.02192
26.97
1862
1.087
0.8671
3721
0.35
0.02169
4.603
0.03196
0.02203
44.28
0.01948
0.01942
3.06
0.02012
87.95
1468
186.6
4.877
0.2015
0.02113
0.02197
4.8
88.85
12.4
992.1
48.23
0.02898
55.16
10.51
619
0.25
0.02198
3.474
54.34
0.02203
0.02136
28.85
89.81
0.0644
0.03408
171.3
0.02131
0.4266
0.02182
5604
0.2113
78.88
50.44
0.03203
0.1725
11.23
33.23
237.2
28.32
34.34
26.81
0.02215
967.6
60.03
44.94
0.02191
54.18
46.68
184.3
65.24
0.353
57.86
4.576
0.2091
130
0.02205
2.765e+04
5.14
1372
0.02197
86.16
0.02185
0.1025
1.884
251.4
41.55
40.15
2.759
0.086
1032
0.09963
107.2
955.8
8.298
0.1937
0.03899
241.2
0.02163
1.697
75.14
5.907
5.254
0.02216
1374
0.03685
42.3
317.9
21.22
87.89
670.5
52.33
352.8
42.84
1.109
83.96
1.615
0.02178
0.02181
581.5
56.71
237.8
34.36
30.74
0.0218
28.33
0.02181
0.02197
0.03546
466
0.1592
4.529
0.02925
83.83
0.3172
156
107.1
1755
0.02774
241.2
28.32
37.93
0.2315
31.52
0.02187
39.98
0.2505
41.95
4.684
0.03509
104.3
2142
48.47
516.1
94.38
1860
438.2
2.247
13.88
1238
7.502
2616
119.5
88.65
154.5
50.92
124.4
77.61
204.7
0.0355
57.46
0.05961
149.2
1256
33.33
75.21
261.6
71.1
49.45
0.03023
98.3
109.3
3580
50.32
0.02322
86.02
29.78
59.73
0.05022
23.06
65.5
103.3
0.6841
449.3
13.53
355.1
62.77
237.3
71.11
31.34
78.44
0.02729
640.1
6.921
0.02576
35.53
40.68
70.82
303.8
350.7
0.02202
77.61
43.85
0.1338
3.788
51.35
3581
306.4
0.02088
0.02236
1.718
53.24
25.66
0.02161
18.09
55.71
173.6
967.1
0.02104
109.6
892.7
45.01
2753
184.5
211.3
183.8
31.92
6.734
0.02521
87.53
201.3
44.32
130.4
0.9734
51.54
0.02201
0.04648
68.84
65.57
91.75
170
40.29
0.02213
218.9
193
0.3174
114.7
3903
605.8
0.03371
0.2018
0.02726
34.12
184.5
280.6
440.6
41.47
133.1
0.02182
155.4
1.544
48.32
186
0.7047
993.5
20.17
682.7
0.04124
64.06
609.8
0.02178
63.1
37.48
93.98
54.99
0.0219
0.02198
0.03538
117.8
0.02214
27.1
377.7
0.1956
88.99
78.32
0.0467
28.13
63.69
0.1922
487.7
113.4
1111
170.1
0.02205
390.3
703.9
0.02172
1128
6.793
14.15
14.21
205.1
50.3
29.74
39.28
50.65
0.02194
52.59
0.02178
0.06592
511
53.64
19.72
16.99
1.397
147.5
0.0219
0.01974
0.08762
38.33
51.18
28.12
994.8
1.693
0.1183
457.6
0.6276
37.5
0.02137
82.43
286.3
35.29
46.11
248.1
40.29
98.9
102.5
2.328
0.02449
82.13
52.94
51.64
151.7
1081
246.1
0.0215
37.75
110.4
34.89
4637
0.02181
201.8
81.32
25.94
38.61
105.8
2862
62.26
61.02
297.2
3463
5.669
63.91
801.6
5.285
0.02169
142
80.05
90.94
88.72
34.53
9.493
0.03512
91.51
42.69
470.4
8.503
363.2
514
0.02175
286.4
54.37
184.6
2.432
0.01943
147.7
86.35
8.824
25.57
0.02135
54.27
58.03
2.753
28.73
37.59
251.5
59.52
208.3
168.6
0.01993
37.22
43.17
111.1
271.5
44.54
16.39
95.2
35.91
22.23
58.62
141.5
942.4
348.4
228.7
5568
10.53
0.1105
1.294e+05
179.9
679.9
0.03191
654.8
1403
122.4
12.44
0.02313
9.127
0.02181
77.55
17.4
2.53
2.126
37.87
371.6
11.8
1.221e+04
59.47
131.9
99.52
2353
275.6
105.9
83.45
0.153
83.45
40.17
1097
34.12
0.7032
0.9675
283.2
0.8776
0.022
0.02177
17.39
19.49
0.04837
0.02018
0.0223
81.54
511.8
398.9
0.02155
0.02573
28.07
0.01974
0.01985
283.1
0.04396
56.84
348
0.057
159.1
3.871
146.3
11.26
100.8
0.07813
37.86
65.65
3.784e+04
87.56
67.23
126
574.2
2.044
0.02568
56.95
346.3
0.02178
3.498
108.8
325.3
944.5
40.28
138.1
391.2
0.02668
42.12
205.7
120.2
39.32
70.76
0.05955
14.65
33.63
207.2
62.32
88.35
0.03679
448.3
59.89
0.03221
91.31
0.05682
83.94
0.02915
2956
1139
0.03304
78.8
59.1
0.1859
900.4
189.2
0.02329
474.2
33.97
97.16
586.1
0.04575
0.398
4117
37.84
72.2
3.311
88.58
1.693
7.471
78.92
0.05011
1.28
176.1
35.52
80.8
82.24
128.7
2.838
36.16
276.6
84.65
3.033
13.67
0.0218
0.1564
220.7
43.54
0.01945
1.693
15.36
6.84
81.85
33.32
73.05
0.1707
85.38
39.76
0.09174
29.25
171
0.1565
352.5
0.05429
248.9
50.52
0.3782
0.08721
59.57
312.9
160
0.02106
147.9
63.15
48.58
0.06556
0.02234
30.52
138.6
432.2
7.55
29.78
63.24
83.22
2.013
1.816
1280
7.61
1.327
3737
108.8
35.71
81.73
0.02204
2.452e+04
0.02265
108.8
50.64
40.29
47.38
43.03
1363
17.75
5.351
0.5022
1.109e+04
283.1
70.94
8365
1069
281.8
49.21
0.1489
0.6105
0.3943
28.17
0.02187
178.2
1175
0.05893
22.13
2.961
72.78
50.65
246.4
2313
562.7
100.7
0.01943
0.01914
0.02179
86.88
2353
0.6392
0.0216
0.2169
824
3.835
2557
37.54
0.02268
6741
0.01947
1.172
50.34
0.0496
38.69
0.4635
1.02
0.09125
626.8
71.93
26.64
53.99
8060
59.16
402.1
98.56
59.38
0.02213
5211
235.2
485.9
39.18
120.2
35.19
252.5
0.0984
27.69
139.6
47.64
167.3
0.02729
646.2
50.99
471.7
8.224
0.1042
0.1715
0.02216
120.1
97.07
55.94
50.6
27.95
794.3
33.31
29.34
36.76
104.2
0.2163
116.5
50.43
37.83
2.119
0.07428
4.645
0.1917
28.78
1.917
206.7
7.323
223.6
25.69
6.95
145.5
0.4449
734.7
27.36
1.428
0.1229
2039
96.3
83.06
29.17
1257
0.02204
453.5
304.9
32.17
38.28
32.64
27.89
263.4
83.56
93.64
36.36
41.33
2692
0.04653
0.02187
0.02208
52.65
224.6
1.875
1413
437.7
1713
93.45
44.87
737.4
1049
5.718
264
426.8
31.75
1094
0.02175
134.8
281.5
266.7
0.02157
267.8
14.78
109.4
131.8
68.09
0.02202
0.3266
130.9
683.4
0.02093
98
3.626
0.4929
1.76e+04
0.03016
27.67
48.8
135.5
189.8
0.4474
24.51
6.069
212
343.8
285.8
0.01949
40.08
3.778e+04
0.02863
0.02406
486
777.1
172.4
73.97
0.07326
27.3
175.7
17.19
15.95
89.03
0.02004
41.65
9.137
0.2639
0.02354
84.05
0.02134
6277
43.71
4.514
13.36
2419
0.02258
381.4
0.02
0.02216
195
0.5423
148.9
19.18
0.06055
158.3
67.33
84.89
7.796
81.47
231.8
417.5
90.96
294.6
564.4
950.5
109
27.44
205.3
145.2
89.22
0.525
0.0212
0.02119
1570
33
64.43
2442
0.02224
548.7
0.4898
0.02039
40.77
8487
7.178
247.8
3574
0.02206
239.3
133.1
83.81
56.44
25.97
2231
362.5
0.02176
2654
549.4
0.07935
0.0252
136.3
434.9
87.65
291.2
61.81
51.37
0.02178
211
0.02124
266.4
286.4
2354
0.01945
0.01916
0.2311
33.29
0.0369
31.41
1.29
33.74
95.53
32.36
114.6
0.07427
0.02974
1252
1832
32.55
398.5
0.04818
62.72
0.02154
63.7
1853
75.94
202.3
811.6
276.9
201.5
1.075
31.87
115.4
0.02827
0.02213
0.02183
69.46
94.13
128
3093
169
0.02704
70.53
112.8
172.5
4338
16.99
81.54
530
21.11
0.07242
1.737
6.224
3.189
0.09911
443
38.05
19.78
40.86
282.2
0.2463
0.01976
993.9
41.05
54.51
72.54
1207
37.02
0.02085
47.08
112.8
94.36
3.447
43.08
67.39
4.562
113.4
2.041
0.05491
86.25
0.0551
0.1102
0.2279
753.7
11.37
526.4
96.55
25.19
131.6
0.03432
268.6
164.9
0.512
36.73
14.32
3521
0.03769
0.02579
264.6
46.54
83.36
44.61
0.4891
220.4
0.06671
0.02184
8.836
170.7
0.02748
1.874
12.35
0.02173
1058
0.06604
26.64
38.96
16.65
0.6722
291.7
165.8
2.271
0.07652
0.02221
96.84
26.53
56.25
59.7
0.02152
0.0202
0.02178
35.49
97.23
80.55
0.04362
428.4
35.94
280
23.33
350.6
0.355
0.03652
1114
0.02235
177.7
94.57
0.03785
56.29
36.56
61.04
234.9
91.91
81.69
2.914
0.05087
2360
150.4
481
0.2396
1.282
0.02185
1330
0.02173
48.49
721
0.02291
3.803
10.09
204.5
0.06848
51.83
6248
26.4
0.02168
64.09
176.8
78.09
70.42
62.69
131.9
1254
12.33
0.02073
0.02463
6726
10.53
215.4
5.584
24.6
0.02121
0.02193
1.6
3895
677.4
309.2
169.1
0.8453
184.5
686.6
26.35
109.8
0.0219
336.1
7.204
119.5
99.06
88.87
0.02161
369.8
73.34
1481
7489
16.88
7.272
1.078
121.3
0.02328
26.19
2473
74.89
152.8
190.4
1179
43.1
100.4
0.2014
441
480.4
1168
54.22
0.03041
769.9
625.3
0.02178
204.8
307.1
83.3
291.3
116.7
10.09
72.03
20.91
0.02793
41
0.02211
43.15
0.206
1927
0.2467
2866
20.61
259.1
38.49
73.14
107.4
9.238
119.5
1054
36.68
33.55
48.6
4.845
76.37
72
20.86
0.02725
11.23
8.887
50.28
52.52
86.27
631.7
146.8
0.02792
165.2
1265
73.97
56.42
375.9
0.04406
135.8
0.02168
49.44
3.274e+04
1.977e+04
516.1
83.03
20.38
0.02111
0.04145
95.02
37.08
69.66
3.011
0.0222
54.88
216.8
5.838
86.47
0.02181
452
109
3489
6.536
14.34
33.92
247.4
0.03433
413.1
5681
0.9483
8.544
0.3915
185.5
2872
4.065
41.92
4.921
131.1
0.02727
57.02
0.01989
941.1
72.22
14.81
106.1
3.303
289.8
54.52
1.816
0.07811
0.02199
0.02168
20.2
54.66
46.28
36.34
28.16
34.76
3032
1.344
62.72
0.3342
0.02206
474.3
0.02228
67.26
374.2
3.366
67.44
27.77
2748
208.8
52.51
145.2
26.5
136.1
0.1753
989.1
0.02177
4243
877.7
34.82
56.44
0.02224
83.52
73.85
139.1
1.151
95.81
770
924.1
0.02176
38.74
0.02193
0.02176
648.3
0.02892
48.52
7.727
1407
97.11
76.28
41.76
116.1
1.523
57.77
1.666
3.956
8.331
0.02512
53.74
0.07296
1390
39.85
30.87
0.3855
13.86
178.5
612.2
166
39.53
7.477
0.4049
130.8
44.77
315.2
99.06
0.5931
54.5
72.63
34.68
37.31
4.563
57.07
6.759
161
3364
33.24
0.1959
0.03842
598.9
29.87
0.02179
357.4
0.4317
1274
151.5
0.01967
107.3
215.5
212.9
367.9
338.4
30.28
144.5
0.03841
430.7
267.8
55.18
147.1
32.16
79.63
0.02227
0.0238
0.02224
113
0.264
0.02197
0.1104
2.108e+04
0.02194
154.3
432.2
1.035
267.3
197.2
88.62
576.2
24.39
86.83
89.09
2.469e+04
0.02174
232.2
14.44
30.52
1.94
5.066
3.254
1.461
974
0.04391
0.02866
1.317
1128
1215
280.3
482.2
0.04803
4386
0.02171
74.91
120.3
47.66
0.02179
0.7558
38.62
182
198.5
246.9
2.565
335.6
1876
10.59
44.85
0.02765
4.474
5.762
0.5031
1.075
10.11