/*--------------------------------*- C++ -*----------------------------------*\
  =========                 |
  \\      /  F ield         | OpenFOAM: The Open Source CFD Toolbox
   \\    /   O peration     | Website:  https://openfoam.org
    \\  /    A nd           | Version:  8
     \\/     M anipulation  |
\*---------------------------------------------------------------------------*/
FoamFile
{
    version     2.0;
    format      ascii;
    class       volScalarField;
    location    "60";
    object      p;
}
// * * * * * * * * * * * * * * * * * * * * * * * * * * * * * * * * * * * * * //

dimensions      [0 2 -2 0 0 0 0];

internalField   nonuniform List<scalar> 
127143
(
-0.01311
-0.01306
-0.01261
-0.01253
-2.239
-0.01249
-2.618
-2.433
-2.441
-1.297
-2.95
-2.716
-0.01229
-0.01248
0.2549
-0.009956
-0.01283
0.01763
-0.01585
-0.01293
-0.3303
-0.01382
0.1256
0.02611
-0.01382
0.0793
-1.136
-1.162
0.398
0.008905
-0.003453
0.08456
-2.058
-0.387
0.1896
-2.062
-0.04519
-0.4533
0.02602
-0.01059
-0.01466
-1.006
-0.9313
-0.01234
0.01868
-0.385
0.3959
-0.05096
0.09926
0.01551
-0.0106
0.07482
-0.6709
-0.4839
-0.001923
0.1835
-0.001803
0.03345
-0.01456
-0.4868
0.4076
-0.0823
0.01191
-0.007219
-0.8242
0.2504
-0.2987
0.01342
0.01345
-3.195e-05
0.01506
-1.143
0.0125
-0.01507
-0.009699
-1.156
-0.04649
-0.08267
0.1832
-0.003094
0.3882
-0.01275
-0.3856
-0.007595
-0.0125
-0.07704
0.03215
-1.403
0.2507
-2.303
0.02486
-0.2422
-2.171
-0.3306
-0.4799
0.03324
-0.9875
0.008877
-0.1283
-0.3003
-0.003261
0.09953
-2.738
0.04879
-0.07665
-0.1295
0.0819
1.272e-05
0.3904
0.004844
0.2648
-1.419
-0.4017
-0.4123
-0.0001094
0.0941
-0.02271
-0.00963
-0.04492
-0.01265
0.004934
-0.3452
0.3093
0.04481
0.3871
0.06041
-0.125
-0.05154
-0.7989
0.2252
-0.1575
-0.3953
0.02447
-0.08372
-0.01285
-0.1598
-0.05963
-0.3449
0.4671
-0.1085
0.1594
-0.006178
-0.5736
-0.4068
-0.6694
-1.582
-0.7728
-0.007163
-0.3935
-2.817
0.04103
0.1211
-0.4596
0.2502
0.4754
-0.01291
0.03299
0.2907
-0.05027
0.01464
0.001082
0.4116
0.02442
-0.1572
0.1949
-0.8291
-0.05332
0.3948
-1.862
0.02412
-0.01575
-0.4049
0.1035
0.2226
0.0002678
-0.01522
-1.635
-0.7966
0.03415
-0.01107
0.2234
0.02752
-0.01389
-0.01544
0.2253
-0.08229
-0.4853
-0.437
0.02479
-0.02826
-0.6538
-0.6914
-0.05966
-1.45
-0.01282
-0.1949
0.0001928
-0.0001763
-0.01387
0.003062
-0.02227
0.07769
-0.002008
-0.04517
-0.01238
0.003698
0.08821
0.101
0.006331
0.0001719
-0.1092
-0.01476
0.0234
-1.889
-0.1684
-0.01431
-0.01774
0.1189
-0.3246
0.08655
-1.587
-0.005002
0.1207
-0.6776
0.01128
-0.0177
0.1938
-0.4537
-0.02314
-0.1175
-0.3443
0.02859
0.01151
-0.01226
-0.3422
0.04998
-0.157
-0.009763
-0.0223
-0.6284
-0.6924
-0.8976
-0.02232
0.291
-0.6216
-0.01264
0.1237
-1.094
-0.02608
6.192e-05
-1.195
0.0401
0.1595
-0.3941
0.1702
0.3788
-0.04992
-1.985
0.1854
-0.1165
-0.2328
0.04111
-0.2423
-0.004764
-0.7303
-0.86
-0.1054
0.4682
0.4453
-0.6349
0.1154
0.0004868
-0.04243
-0.6277
0.01126
-0.6524
-0.4022
0.0832
0.0002581
0.2365
-0.0003087
0.03281
0.04879
0.01018
-0.0114
-0.01292
-0.2312
-0.001292
0.06713
-0.01016
-0.456
0.1428
0.05087
0.1213
0.02461
0.4009
0.01785
-0.01323
-0.02234
-0.6319
0.04497
0.2034
0.3168
0.09445
0.01019
0.4873
0.1008
0.02396
-0.1526
0.03809
0.07857
-0.01306
0.1694
-0.0003764
0.01408
-1.946
-0.4804
0.0363
-0.265
-0.0007684
0.1258
0.004563
-0.08723
0.1589
-1.953
-0.5618
0.1335
-0.01023
-0.008986
-1.656
-0.07845
-0.01183
0.186
0.0001476
-0.0001346
0.2484
0.3828
0.1041
-0.07861
-0.2534
-0.1053
0.1185
-0.6525
-0.6527
0.2322
0.06703
-0.3765
-0.475
0.04773
-0.8652
0.04518
-0.04332
-0.01737
-0.6532
0.04354
-0.3561
-0.393
-1.494
-0.005083
-0.009033
-0.03482
0.01214
-0.03379
0.006584
0.0183
-0.006725
0.003194
0.0007721
-0.5366
-0.0001396
0.4178
-0.08616
0.04018
0.01017
-0.02892
-0.2258
0.0294
-0.01209
-0.1099
-0.0005751
-0.1312
0.0614
0.05652
0.2049
-0.02227
-0.008782
-0.1275
-0.009597
-0.1994
-0.2941
-0.01669
0.3335
-0.01933
0.1808
0.0246
0.007649
0.3305
-0.002767
0.04785
0.04141
0.003795
-0.005063
-0.3802
-0.01367
-0.1377
0.05114
-0.07789
0.02917
0.0008101
0.03429
0.3925
0.07581
0.1583
-0.05496
0.3099
-0.4827
-0.216
0.1171
-0.5478
0.3426
-0.05273
-0.0486
-0.1857
9.231e-05
-0.1193
-0.2556
-0.8899
0.1843
-0.9021
0.1101
0.002699
-0.1754
-0.01786
-0.09768
-0.861
-0.006896
0.07887
-0.422
0.07316
0.02468
0.01109
0.01532
-0.05574
0.3837
0.01877
0.009939
0.01821
0.4995
7.238e-05
-0.01387
-0.2556
0.04959
0.05127
-0.5696
0.06936
-0.03902
0.04787
-0.9159
-0.0458
-0.5239
0.02456
-0.7675
-0.28
-0.3454
-0.7681
0.0004545
-0.0262
-0.4928
-0.3023
-0.001182
-0.1326
-0.2837
0.04448
-0.4772
0.07928
0.0004633
0.4318
-0.2821
-0.03072
-0.6364
0.4562
0.4991
-0.6605
0.1697
0.3913
-0.8565
-0.6145
-0.01788
0.01525
0.03016
-1.87
0.03226
-0.69
-1.564
-0.01238
-0.1464
-0.00103
0.03877
-1.47
0.01984
0.4552
-0.02752
-0.02237
-0.1953
-0.01288
-0.01318
-0.01232
0.008064
-0.3569
-1.105
0.01351
-0.04838
0.3098
-0.09366
0.07319
-0.257
0.05211
-0.139
-0.5332
0.000509
-0.01312
-0.01381
0.3498
0.03002
-0.01576
-0.01576
0.04105
-0.003291
-0.2793
0.007398
0.01766
-2.386
-0.02193
-1.933e-05
-0.4911
0.06227
-0.01369
0.4105
-2.087
-0.2147
0.04073
-0.03806
0.3295
-0.001312
0.2036
-0.5294
0.01905
0.006372
-0.3029
-0.07682
-0.1984
-0.7294
0.333
-0.07148
-0.1758
-0.0267
-0.01192
-0.2126
0.07027
0.03914
-0.02596
-0.0002785
0.0004937
-0.1119
-0.3773
-1.514
0.01463
4.748e-05
0.3202
0.3783
-0.07331
0.392
-0.05044
-0.1077
0.1531
-0.03995
-0.003963
-0.02531
-0.1633
0.1577
0.001024
-1.1
0.0337
-0.2719
-0.0007126
0.0631
0.01507
-0.07652
-0.01287
-0.2524
-7.077e-06
-0.07179
-0.234
0.4141
0.0004553
0.08214
-0.01773
0.01109
0.05136
0.005304
0.009035
-0.5896
0.0103
-0.3637
0.06139
-0.01308
-0.6028
-0.5672
0.04552
0.05627
0.3552
0.02541
-2.141
-0.005615
-0.01903
-0.7268
0.01957
0.001095
0.1369
0.01188
0.2241
-0.06467
-0.571
0.002793
-0.0005745
0.03192
0.3436
-0.3483
0.0008958
-0.003693
-0.02314
-1.589
-0.3859
0.0197
-0.02091
0.3836
-0.2497
0.3925
-0.651
-0.1715
-0.8822
0.0008828
-0.9453
-0.6373
0.09523
-0.4609
0.02061
5.935e-05
-0.5606
0.4676
-0.6136
-0.01807
-0.06446
-1.643e-05
-0.1178
-0.8153
0.07434
-0.7509
0.09263
0.01634
-0.1478
0.1688
-0.6365
0.2615
-0.01235
-0.01764
-0.04592
-0.03896
-0.2313
-0.6304
0.06652
-0.626
0.07238
-0.763
-0.0137
-0.379
-0.004115
0.08342
0.2656
0.3359
-6.041e-05
-0.004051
-0.01288
0.03882
0.1114
-0.67
0.4706
-0.1544
-0.666
0.01084
0.2888
0.1943
-0.01699
0.002113
-1.276
-0.2677
-0.5351
0.3425
0.3555
-0.02414
0.354
-0.1083
-0.03597
1.491e-05
-0.001084
0.07766
0.1573
-0.01289
0.08123
-0.7283
-0.1109
-2.688e-05
0.03916
0.02052
-0.02943
-0.00829
-0.3248
-0.65
-2.803
-0.2118
0.4531
-0.03721
0.1704
0.03867
0.03835
-0.1249
0.1201
-0.01087
0.2678
0.02781
0.151
0.3769
0.03579
-0.01028
-0.01388
-0.04436
-0.07132
-1.026e-05
-0.01803
-0.1864
0.05395
-9.805e-07
-0.6268
-0.0226
-0.5222
-0.7505
-2.149e-05
-0.07878
-0.01382
-0.2703
-0.4075
0.003728
-0.6528
0.1207
-0.02916
0.1098
0.1428
-0.6269
-0.1455
0.2029
0.08125
0.05658
-0.1053
2.185e-05
-0.07722
-0.05592
0.001861
0.07794
-0.4734
-0.04756
-0.07693
6.102e-06
-0.09255
-0.1479
-0.6283
-0.01225
-0.6282
-0.02191
-0.4664
-0.02058
0.1605
0.008039
-0.01302
-0.194
-0.6039
-0.02746
-0.05256
-0.048
-0.098
0.01548
-0.003859
-0.03013
0.05397
2.264e-05
-0.1175
-1.863
0.07861
0.2977
0.0006959
-0.2495
-0.01555
-0.01749
0.0006831
-0.4568
-0.07748
-0.02184
-0.0432
-0.0753
-0.01423
0.06072
0.3649
-0.004354
-0.1182
-0.04833
-0.0006377
0.01079
0.3924
0.0003117
-0.01562
0.0115
-1.162
-0.004508
-0.09237
0.4855
0.05556
0.07715
-0.001173
-0.01466
0.04986
-0.00499
0.04848
-0.002733
0.4388
0.1494
-0.675
-0.6681
-0.01335
0.0258
-0.2897
0.2709
0.01647
-0.01356
0.05834
-2.788
-0.4787
0.119
0.351
0.05388
-0.00368
-0.372
0.2603
-1.703
-0.01375
0.07416
0.0003373
-0.02903
-0.0253
0.1635
-0.8981
-1.252
0.3318
-1.445
-1.528
-0.3544
-0.02867
-0.03077
0.001605
-0.03754
0.07217
1.023e-05
-5.541e-06
-0.5606
-0.08903
-0.6834
0.03397
-0.3563
0.03891
-0.04128
-2.025
0.155
-0.01607
-0.05642
-0.06248
-0.04119
-0.394
-0.04086
-0.01038
0.1313
0.2898
-0.3769
-0.04214
0.01601
-0.6898
0.1577
-0.005185
-0.3417
-0.1981
-0.09028
-0.001119
0.002725
-0.07843
-0.01432
0.2908
-0.0412
-0.1613
0.3872
0.1469
-0.01666
-0.8735
-1.04e-05
0.4728
-0.8535
2.202e-05
0.3627
-0.01254
-0.2014
-1.3
0.01276
0.0864
-0.01526
0.01386
0.03284
-0.03834
0.005253
0.1201
0.4144
-0.0717
-0.3895
-0.8744
0.3603
0.01591
-0.3674
0.3608
-0.1156
-0.9676
-0.01082
-0.05455
-0.01318
-0.4565
-0.2299
-0.1638
0.01012
0.03099
-0.02991
0.1795
-0.03155
0.05997
-0.03582
-0.03423
-0.6057
-1.047
-0.8262
0.0631
-0.6383
0.004622
-0.1788
0.05344
-0.04796
-1.436
-0.05116
-0.01302
-0.01348
-0.1546
-0.01015
-0.007302
-0.07719
-0.03456
0.09646
0.0006253
0.4131
-0.2468
0.02845
-0.045
-0.5657
-0.1293
-1.332
0.001047
0.1154
0.02599
0.3255
0.00835
-0.02022
0.3637
-0.3422
-0.5594
0.02352
0.01803
-0.03423
0.4074
0.04473
-0.05092
0.3761
-0.008973
-0.1013
-0.01501
-0.05579
-0.6167
0.2463
-0.01168
-0.3158
0.1228
-0.0002896
-0.004559
-0.6985
-0.3416
-0.01297
-0.0135
0.07202
0.3185
-0.07678
0.108
0.06809
0.02755
-0.08481
-0.002618
-0.07924
0.1371
-0.01424
-0.0657
-0.0007569
0.05548
-0.0242
0.008372
-0.6624
-0.000256
0.01634
0.06423
0.119
-0.8017
0.009084
0.04841
-0.008732
-1.925
0.107
-0.04036
0.0474
0.1185
0.06991
-0.1413
0.04173
0.001695
0.03113
-0.4653
0.1114
-0.04546
-0.09328
-0.002277
-0.08927
-0.1236
-0.6009
0.2107
-1.177
0.03524
0.06215
-0.364
-0.03908
-0.003395
-0.4957
-0.01445
0.09692
-1.447e-05
0.4989
-0.2118
0.02832
0.2086
-0.6629
0.05914
-0.4402
-0.212
0.02844
-0.021
0.2036
-0.01355
-0.0006312
0.01437
-0.5287
0.02658
-0.4595
-0.7878
-0.0003684
0.1488
-0.0154
0.04556
-0.3889
-0.3882
-0.01108
0.09196
-5.073e-05
-0.375
-0.1861
-0.01716
-0.3909
-0.1433
-0.2376
-0.2893
0.1011
-0.04355
-0.01438
-0.01436
0.1371
0.08371
-0.1126
0.001975
1.725e-05
0.03409
-0.01049
-0.1448
0.4449
-0.5442
0.2077
-0.01319
-0.6095
0.001417
-0.01718
-0.124
-0.1943
0.02131
-1.978
-0.1839
-0.01288
0.01071
0.0659
0.1233
-0.003256
-0.03316
0.002272
0.1396
0.07676
0.4904
-0.01054
-0.03868
0.09437
-0.08537
-0.6757
0.05408
0.03528
-0.1949
-0.05142
0.04298
0.1387
0.06201
0.0924
3.045e-05
-0.008661
-0.5204
-0.004152
-0.06149
-0.002759
-0.448
-0.03761
0.006238
-1.669
0.06263
-0.62
-0.01273
0.2235
-0.0393
-0.01246
-0.05849
-0.0485
-0.09238
0.0544
-0.7914
0.0704
0.02007
0.3801
-0.6072
0.04095
-0.01709
-0.6396
-0.1559
0.172
0.009985
-0.03377
-0.01321
-0.03646
0.0825
-0.02328
-1.014
-0.6313
0.08743
-0.0519
-0.1987
-1.247
-0.1831
-0.04733
-0.08617
-0.009006
-0.07946
-0.6726
-0.6149
-0.05014
0.1572
0.01736
0.005152
0.1124
-0.0154
-0.39
0.07363
-0.836
-0.07374
-0.03583
-0.03344
-0.0306
-0.06375
-1.684
-0.4963
0.01709
-0.2881
0.01909
-1.18
0.134
-0.05122
0.1184
0.1835
0.0004119
5.9e-05
-0.01855
-0.01041
-0.03868
-0.2204
-3.186e-05
-9.716e-05
-1.438
-0.2148
-0.1764
-1.037
0.05249
0.03889
0.2003
0.05066
-0.03017
-0.09913
0.0001198
-0.001958
-0.1341
0.1809
0.06996
-0.5311
-0.1398
-0.102
0.0132
-0.4559
0.4456
-0.119
-0.3123
-0.03333
-0.1663
0.02651
0.08506
0.3674
-0.3104
-0.01357
0.004224
0.02018
-2.446
0.0002733
-2.542
0.09878
-0.06261
0.08842
-0.00666
0.2431
-0.002642
-0.01155
0.006607
-0.1312
0.02806
0.446
0.1236
0.04238
-0.01758
0.196
-0.09628
-0.5972
0.04076
0.1726
-0.0128
-2.799
-1.251
-0.143
-0.01021
-1.053
-0.07216
0.01091
-2.162
-0.05455
-0.1197
-0.005936
0.07469
-0.07793
0.005805
-0.02829
-0.0003473
-2.618
-0.02628
-0.009905
-0.05652
-0.6555
-1.575
-0.3855
0.01596
0.2492
-1.579
-0.225
-0.1302
-0.6145
-0.3877
-0.04328
-0.005575
-0.02015
-0.02537
-0.1314
0.006998
-0.01681
-0.007302
-1.176
-0.037
-0.0005435
0.0184
-0.01345
-0.2122
-0.1807
0.1204
-8.135e-05
0.3804
-0.2803
0.002949
-0.01246
-0.1359
-0.01257
0.0665
0.03921
0.04879
0.1014
-0.01196
-0.1377
-0.003784
-0.01499
-0.05876
-0.7542
-0.6464
-0.735
-0.03717
0.008281
-1.567
-0.2688
0.3339
0.001188
0.06453
0.3237
0.06172
-0.02657
0.0001183
0.0001225
-0.02566
-0.1353
0.01634
-0.09139
0.05468
0.1391
0.4456
-0.0003759
0.06394
0.2654
-1.065
0.03322
-0.249
0.0245
-0.7749
-0.2417
0.1183
0.05843
-0.101
-0.03399
-0.01434
-0.01647
0.07497
-0.6459
0.04477
0.1745
0.002618
0.04704
-0.01791
-0.8183
-0.002194
-0.007742
-0.0355
0.2795
0.03725
0.4933
0.09563
-0.1954
-0.1243
-0.1308
0.0001119
-2.513
-0.3105
-0.01315
-0.3365
-0.03825
-0.03063
-0.01045
-0.8872
-0.01297
-0.1646
-0.5674
-0.3436
-0.01915
0.07156
-0.8407
0.02383
0.4744
0.09668
0.4846
-0.2429
0.01772
-2.807e-05
-2.267e-05
0.03553
-1.187
-2.201
-1.725
0.02789
0.005975
-1.549
-0.0001902
-0.04617
-0.08056
-0.02578
-0.008759
-0.04144
-0.00127
0.2897
-0.01087
-2.14
0.1794
0.4383
-1.117
0.008355
-6.101e-05
0.2926
-0.2602
-1.281
-0.1781
-0.3875
0.0105
-0.5
-0.08017
-0.1673
-0.01281
-0.01463
-0.09601
-2.585
-1.216
0.06093
-0.00101
-0.03165
-6.485e-05
8.167e-05
0.1475
-0.01552
-0.001052
-0.00219
-0.004332
-0.5908
-0.7199
-0.2574
-1.354
0.001871
-0.06124
-0.3593
-0.009146
-0.3958
0.06283
0.1966
-0.01232
-0.002729
-0.6825
0.2933
0.2168
0.06799
-0.06346
-0.0529
0.09314
0.1702
-1.886e-05
0.2579
-0.1076
0.01543
-0.06611
0.3576
0.02838
-0.6616
0.001945
-0.7427
0.3169
-0.01222
-0.5328
0.1606
-0.2766
-0.004005
-0.6378
0.02594
-0.06962
0.06518
0.06174
-0.115
0.05096
0.3221
-2.418
-0.6572
-1.798
-0.01258
-8.398e-06
-0.3476
-0.0145
-0.9053
0.1285
-0.8032
0.00946
-0.01304
-0.008661
0.04785
-0.09315
-0.004743
-0.0908
0.02798
0.3864
-0.3014
-0.0016
0.03254
-0.007465
0.2103
0.4419
0.1043
-0.02262
0.0805
-0.01531
-0.6686
-0.01722
0.5011
0.3872
-0.02434
0.04662
-0.5365
-0.8004
0.4608
-0.05212
-0.4606
0.3596
0.08359
0.06195
-0.2295
0.294
0.04608
0.02018
-0.000908
-0.01541
-0.076
-0.7163
-0.06149
0.1042
-0.05283
0.03943
0.06452
-0.001078
0.04144
0.1001
0.05642
0.04421
0.0634
-0.593
-0.0001997
-0.1975
0.07607
-0.2215
0.4364
0.1167
0.09622
0.008827
0.05778
0.3993
0.3797
-1.378
0.07222
0.02393
0.05438
-0.01157
-0.02257
-0.01659
3.188e-05
-0.7508
0.1774
0.1682
0.4417
0.07587
-0.01918
0.0005684
-0.4228
-0.6336
-0.0006598
0.2446
-1.677
-0.2345
0.0002199
-0.05508
0.003111
-0.1615
-1.202
-0.06011
0.03285
-0.2362
4.276e-05
-6.529e-05
-0.01714
-0.04585
-0.6489
0.4504
-0.02589
0.003372
-0.5477
0.07172
-0.872
-0.01344
-3.366
-0.01313
-0.01728
-0.4568
0.03
-0.03683
0.03573
-0.02079
-0.2357
-0.01913
-0.01399
0.3981
-0.08134
-0.1537
0.05362
0.01899
-2.548
0.0361
-0.1748
-0.7046
-0.2434
0.1239
-0.01319
-0.06058
-0.0005872
0.228
0.06735
-0.5626
-0.7335
-0.1776
0.1045
0.1399
-0.05764
-0.3945
-0.01589
-0.3885
0.07691
0.0167
6.15e-06
-1.622
0.298
0.05033
1.949e-05
-0.05059
-0.0489
0.02657
-0.6005
-0.01151
0.02881
-0.0006869
0.4472
0.08807
0.08551
-0.02123
-0.02131
0.03143
-2.279
0.02021
-0.008621
-3.207
-0.03823
0.05748
-9.364e-07
-1.449
0.2957
-0.02681
-0.1914
0.002112
0.03368
-0.02935
0.02797
-6.531e-05
0.1329
0.01398
-2.194
-0.04617
-0.446
0.1866
0.3193
-0.0004358
0.003038
-0.8188
0.09579
0.01886
0.04483
0.02889
0.04178
-0.02602
0.1264
0.2087
-0.4893
-1.242
-0.1247
-0.01518
0.06401
0.09415
0.01321
-0.09147
-0.01841
-0.04501
0.0578
0.03361
-0.01335
0.03761
0.03111
1.397e-06
-0.05166
-0.01265
-0.04209
-0.01318
0.007646
-0.1433
0.07515
-0.01703
0.09753
0.003219
0.3914
0.03538
0.02628
-0.02639
-0.03229
0.047
-0.3067
0.003924
-0.6679
-0.2678
0.07155
-0.6544
-0.005495
-0.013
-0.02131
0.06026
-0.01569
0.07312
-0.4043
0.1378
0.02845
-0.5
-0.2365
0.02663
-0.01504
-0.4703
-0.06621
-0.08045
-0.1074
-0.5003
-0.02983
-0.4925
-0.0719
-0.0206
-0.02382
-0.04341
0.07056
0.1033
3.439e-05
-0.3174
-0.2787
-0.7155
-1.196e-05
-0.0378
-0.01271
-0.02552
-0.02062
-0.4478
-0.116
-0.1698
0.0599
-0.05088
-0.05051
-0.001617
-0.0329
-0.004797
0.06395
-0.1539
0.004871
0.06414
0.008764
-0.01704
-0.01064
-0.05585
-0.02085
0.03513
-1.141
0.01066
-0.6196
-0.02404
0.1837
0.01803
-0.131
-1.072
-0.5657
0.04011
0.03629
-0.004362
-0.09313
-2.381
0.01326
-0.1216
0.1045
0.01206
-0.00105
0.3125
0.03059
-1.386
0.008383
-0.2495
-0.06703
-2.398
-0.1311
0.1191
-9.269e-06
5.719e-06
0.03425
-0.5373
-0.01932
0.4764
0.02943
-0.2372
0.0533
0.001413
0.03094
0.1542
0.07229
-0.01931
0.01849
-0.01992
0.2269
-3.36e-05
0.05385
0.2326
0.1148
0.2492
-0.3286
0.5018
-0.01938
-0.6716
0.01395
-0.526
-0.3562
0.08539
-1.32
-0.0413
2.737e-05
-2.477e-05
-0.08296
-0.03348
0.008443
0.382
0.4058
-0.6699
0.000672
-0.0129
0.4008
-0.007398
-0.2706
0.1944
-1.66
0.09186
0.1803
0.09613
0.4977
-1.912
3.988e-05
0.05248
0.07944
0.06688
-0.02468
0.3273
-0.3011
-0.6049
-0.4852
-0.06971
0.04499
-0.08619
0.3461
0.1345
-0.3185
-0.0171
-3.084
-0.02468
-0.0221
-0.05882
-0.4022
0.3835
0.1208
0.07895
0.06609
-0.7618
-0.04562
-0.03149
-0.0003336
0.05719
-0.05891
0.07352
-0.1664
0.186
-0.1915
0.3754
0.01393
-0.4662
0.05956
0.01201
-1.247
0.0001652
-0.02441
0.008483
-0.8272
-0.1562
-0.09364
0.03402
0.1165
0.0001861
-0.4764
-1.862
0.07276
-0.01321
-0.0181
-0.2364
-0.9842
1.194e-05
-0.5568
0.07131
-0.006254
0.4367
0.03735
0.1613
-0.03054
-0.197
0.3568
0.04469
-0.4434
-0.03334
0.001552
0.007636
-0.04775
0.0169
-0.02956
-1.919
0.0294
-0.05886
-0.6828
0.01844
0.1257
0.4257
0.3938
0.4403
-0.6229
-0.7199
0.02805
0.3261
-1.679
-0.435
0.1981
-0.01501
-0.03781
-0.2097
-0.06402
2.811e-05
-0.245
0.008513
-0.0003194
-1.573
-0.0342
-0.03775
0.2075
-0.3068
-0.4669
0.04461
-0.7862
-0.1111
0.4925
-0.1677
-0.01673
-0.0228
-0.2933
-0.1476
0.0001607
-0.02724
-0.2019
-0.04653
-0.01291
4.661e-06
-0.1708
0.02674
0.06901
-0.2248
-0.01639
-2.237
-0.09719
-0.1799
-0.2996
-0.03511
-0.02558
0.006497
0.1517
-0.2101
-0.01584
-0.869
-0.7034
0.0004646
-0.1274
-0.02049
-0.5618
-0.1921
-0.1951
0.04328
-0.3357
0.04178
0.07343
0.3544
0.05789
-0.06124
0.01941
-0.01712
-0.1433
-0.05202
0.2629
-0.0245
-0.6893
0.0543
0.3768
0.005965
-1.076
-0.5174
-0.03849
0.07345
0.05562
-0.4396
-1.638
-0.3892
-0.5459
-2.381
0.01103
-0.01284
-0.1083
-0.1957
0.2179
0.2413
-0.02188
-0.42
-0.1847
0.2073
-2.224
0.2553
-0.6344
-1.304
-0.1031
0.04048
-6.632e-05
6.381e-05
0.01925
-0.5897
0.2364
-1.21
0.01821
0.006924
-0.7156
0.1316
-0.5962
0.02661
-0.01968
-0.6727
-0.519
0.01842
-2.134
0.1881
-0.001912
0.01814
-0.03489
0.111
0.1092
0.008549
-0.0001674
0.08426
-0.0989
-0.147
-0.02266
-6.521e-05
-3.237e-05
-2.575e-05
-2.864e-05
0.03939
-0.01428
0.1201
0.3782
0.061
-0.02538
-0.3573
-0.9963
2.444e-05
-0.3616
-0.04477
-0.01353
-0.7541
-0.01503
-0.01399
0.04813
0.05748
-0.5578
0.01545
-0.02308
0.04889
0.5006
0.1745
0.03588
0.401
0.4397
-0.01288
-0.02789
-0.1783
0.1399
0.03097
0.1229
0.3744
-0.009689
-0.04247
-0.7243
-0.001113
-0.6702
-0.07073
-0.3001
-0.02226
-0.0128
-0.2394
-0.1067
0.0008887
0.4
0.01721
-0.061
-0.05473
0.3769
0.01233
-0.02583
-0.369
-0.01396
-0.1706
0.033
-0.2793
-0.7705
0.07983
0.4653
0.05761
-0.2164
-0.03134
-0.0131
-0.09464
0.05082
0.005734
-0.7593
0.01225
0.3475
-0.01727
0.009928
-0.2906
5.746e-05
0.4906
-0.1133
0.009945
-0.07136
0.113
0.006595
0.04312
-0.02056
0.08069
-0.03106
-0.0002288
0.1433
-2.923
-0.8144
0.006278
-1.065
-0.7622
-0.003804
7.296e-05
-0.1779
-0.3503
0.08773
-0.06448
-0.1489
-1.682
-2.745
-0.1186
0.04542
-0.01306
-0.01048
0.101
-0.7676
0.01359
-0.009859
0.04863
-2.435
0.006978
0.1547
0.04508
-0.6385
0.001312
-0.03654
-0.08811
-0.0083
-0.2608
-1.185
-0.07657
-0.3204
0.1554
-0.214
-0.01391
0.3591
0.006365
0.01574
0.008174
-0.4083
-0.07849
-0.01549
-0.6757
0.05874
-0.07672
-0.5611
-0.02585
-0.07204
-0.007446
-0.6895
-0.6738
0.08898
-0.08959
0.4186
0.0161
0.2366
-0.06072
-0.904
-0.00373
0.02154
0.06014
0.4055
0.06894
0.05512
0.3897
0.003231
-3.056
-0.0008029
-0.08222
-0.5556
-0.01182
-0.01015
-2.006
-0.03925
0.4853
-5.632e-05
0.4274
-0.8717
3.101e-05
-0.07975
-0.02522
0.5005
0.03371
-0.03108
-0.1922
0.1495
-1.946
-0.3436
0.2618
0.05445
-1.07
0.00207
-0.07691
0.04959
-0.01648
0.01795
-0.02348
0.01466
0.04702
0.07166
0.1599
0.1296
-0.004709
0.04189
0.2189
0.08421
-0.0551
0.01861
-0.1925
0.0763
-0.5724
-0.6756
-0.06128
-8.7e-06
0.03037
0.0459
0.08789
-1.278
-0.04492
-0.05986
-1.648e-06
-0.1085
0.09746
1.101e-06
-0.1326
0.1774
0.09096
-0.3155
-0.02357
-0.01229
-0.07517
0.03415
0.1443
0.02445
-0.05124
-0.6863
-0.1386
-0.1388
-0.3835
-0.05057
0.226
0.08213
-0.03351
-0.003468
0.1543
0.316
-0.01422
0.014
-0.5341
3.992e-06
0.07331
-0.0887
-0.01027
0.07659
-1.079
-0.1789
-1.355
0.0267
-0.03498
0.3696
-0.01856
-0.0122
-0.0001218
-0.2853
0.1285
-0.09649
0.2516
0.001185
0.4742
-0.1673
-0.07
-0.1075
-0.2311
-0.5448
0.2839
-0.2693
-0.07581
-0.7448
-0.01748
-1.554
-0.5651
4.557e-05
-0.03223
0.00048
-0.002575
-0.03924
0.01973
-0.004674
-0.8691
-0.3096
0.0891
0.1178
0.03672
-4.848e-05
-0.1641
-0.1842
0.1379
-0.01275
0.3693
0.07289
-0.006681
0.3164
-0.01319
0.02949
-0.1253
-0.2932
0.05614
-0.2777
0.04373
-0.1368
-2.055
0.2408
0.0004535
-0.1438
-0.09332
0.001343
0.09292
0.008202
-0.004164
-0.2686
-1.775
-0.06575
-0.002047
-0.2717
0.02729
-0.863
-0.01241
-0.8144
-0.02226
-0.04068
-0.3031
0.07653
0.1477
-0.6453
0.00866
0.05845
-0.9112
0.08045
0.4863
-0.903
0.0009126
2.584e-05
-0.04038
-0.06672
0.2811
-0.0137
-0.1788
0.003728
0.05038
0.4126
0.04688
-0.007836
0.003037
-0.3694
0.03312
-0.0003655
0.4953
-0.6369
0.03578
9.397e-06
0.04029
-0.1382
0.08251
0.0327
0.1527
0.2264
-0.1228
-0.5339
-0.004662
-0.006429
-0.03539
-0.7361
-0.04836
-0.6684
0.03557
-0.07873
0.1418
-1.916
-0.01062
-0.2634
0.08957
-1.407
0.3007
0.00457
-1.062
-0.6276
-0.1742
-0.3291
0.05794
-1.596
-0.09661
0.008724
-0.0156
-0.02419
-0.01721
-0.5446
4.493e-05
0.4467
0.08851
0.04052
-0.01735
-0.8917
0.319
0.1451
-0.01228
0.0877
0.03811
-8.05e-06
-2.406
-0.2402
0.007365
-0.0493
0.02051
0.007679
0.002132
-0.05865
-0.02572
0.04646
0.1684
-0.6932
-2.487
-0.6387
-1.579
0.04674
-0.02095
-0.5046
-0.01394
-0.1993
-0.5545
-0.232
-0.005052
0.03066
-0.08917
-0.02683
-0.05801
-1.623
0.3309
-0.03951
-0.2203
-0.02275
-0.1587
0.4116
-0.06858
0.1707
0.09153
0.1561
-0.009575
-0.008143
-0.8711
0.001501
0.007706
-0.5362
-0.1328
0.3536
0.05602
-0.6621
0.08137
-0.1174
0.2941
-0.0212
0.001997
-0.03651
-0.01723
-0.0002432
-0.5189
0.06931
0.39
-0.009958
-0.1715
0.01314
0.05023
-0.1241
-0.7533
0.007456
-0.1278
-1.081
-2.713
0.03844
-0.2045
-1.572
-0.6568
-0.5548
0.1412
-0.03595
-0.2274
-0.000784
0.002611
-0.1205
-0.3057
-0.005679
0.313
0.02017
0.2592
-0.05827
-0.7567
-0.2587
-1.264e-05
0.3121
0.03053
0.144
1.712e-05
-0.5381
-0.01051
-0.05352
-0.256
-0.6543
-0.02493
-0.02494
0.0007925
-0.3199
-0.02712
0.2778
-0.8881
0.0376
-0.01853
0.03438
-0.007259
-0.02002
-0.3104
-0.03248
-0.08562
-0.01568
-0.3496
3.741e-05
0.01262
0.03235
-0.02328
-0.02404
-2.109
-0.007699
-0.02013
-0.1847
0.003929
0.0004903
0.1317
0.03867
0.2184
-0.1108
-0.2122
0.4884
0.0002341
0.2263
-1.226e-05
-0.4434
0.2099
0.01676
-0.02374
-0.1392
-0.01275
-0.02902
-0.01995
0.1318
0.0008169
-0.6259
0.09103
-0.01502
-0.6912
-1.484
-0.1775
0.0005717
0.06454
-0.1749
-0.0138
0.4226
-0.09691
-0.0127
-2.06
0.1577
-0.01719
0.06176
-0.00712
-0.01662
0.02819
-0.6007
-0.1782
0.04158
0.08761
-0.01254
0.1422
-0.02605
0.157
0.03092
0.1274
-0.6534
-0.04502
-0.02353
0.1163
-0.6095
-0.01605
-0.6995
0.2705
-0.07015
-0.04123
-0.2069
0.2991
0.0112
-0.8464
0.0366
-0.02344
-0.3928
0.2238
-1.838e-05
-0.326
0.136
-0.6504
-0.7298
-0.7246
-0.6748
-0.6862
-0.001083
-1.27
-0.3324
0.0002262
-1.754
-0.00924
-0.06367
-0.4544
0.001437
-0.8174
0.4292
-0.002014
0.1918
-0.07755
-0.003017
0.03907
0.3161
0.07337
0.03509
-0.009612
0.005205
-0.04828
0.04748
0.3137
-0.1654
0.03601
0.01147
0.05119
-0.6148
-0.2262
-0.01378
0.4415
0.01568
-0.08669
0.3494
0.03639
-0.3301
0.00111
-0.03295
0.02662
0.0158
-0.0162
-0.1451
-0.7154
0.000258
0.04459
-0.1034
-0.2294
-0.2078
0.08122
0.1096
-0.1224
0.3922
0.3951
-0.07847
0.1695
-0.05074
0.03462
-0.7289
0.1196
-0.004743
-0.1161
0.0002324
-0.04827
0.1184
0.01807
-0.02773
-0.2319
0.01779
-0.3128
-0.5816
-0.00244
-0.003735
0.05323
0.03065
0.005537
-1.135
-0.06947
0.09662
0.4362
-0.6586
0.2361
-0.6268
0.005339
0.09735
-0.6571
-0.1896
0.1059
0.1436
0.01954
0.0305
-0.1637
-0.0173
0.03167
0.008255
-0.02138
0.0358
-0.008522
-0.1045
0.1005
0.002017
-0.01293
0.1125
-0.02307
-0.01413
-0.6315
-0.4229
9.362e-06
-0.5323
-0.6997
-0.01707
-0.04209
-0.05028
-0.001683
-0.7801
0.0006438
0.01806
-0.5344
0.4859
0.1206
-0.003831
-0.01464
0.002799
-0.009647
0.1239
0.1954
0.09474
0.04569
-0.9209
0.06369
-0.3171
-0.03345
0.0204
-1.909
0.00986
-0.4294
-0.06603
0.009106
0.209
0.1748
-0.7391
0.07094
-0.2311
0.002748
0.4794
-0.7634
-0.08693
-0.0801
-0.7
-0.112
-0.009327
-0.00742
0.09612
-2.596
0.06243
-0.03954
-0.09632
0.01624
0.04518
0.1066
-5.919e-06
0.3774
-0.6342
0.02689
-1.315
-0.1818
0.00564
0.03237
0.01395
-0.02272
-0.03232
0.06658
0.2257
-0.6454
0.09812
0.07636
0.04572
0.006935
-0.07871
-4.014e-05
0.005302
0.1186
0.01436
-0.01115
-0.01688
0.04244
0.06108
-0.032
-1.909
-0.4755
0.4884
-0.1108
-1.15
-0.5329
0.03276
-0.7682
0.02577
-0.04873
-0.2982
0.2701
0.008121
-0.3003
-1.959
0.1485
-0.4995
-0.6773
-0.2275
-0.03163
0.03877
0.1078
-0.1531
-0.3678
-0.07666
-0.0191
-0.02146
-0.09499
0.2918
0.0262
-0.1274
-0.1527
-0.5113
-0.9612
0.03165
0.02848
-0.0004525
-0.4915
-0.3356
-0.375
-0.1885
0.03141
-0.5017
0.008468
0.0996
-0.8065
0.129
-0.3375
-0.2959
0.03706
0.06463
-0.1583
0.07021
-0.01875
-0.04524
0.0132
0.06502
-0.04759
0.031
0.07796
-0.01381
0.06241
-0.3841
-0.03564
-0.1337
-0.1615
-1.964
0.0118
-0.02939
-0.01218
-0.05182
0.03526
-0.01517
-0.006319
0.08261
-0.03405
0.1776
-0.03202
0.1226
-0.1539
0.01653
-0.2068
0.03648
-0.2045
0.0414
-0.06377
-0.002772
-0.5942
-0.0233
-0.03091
-0.2236
-0.00507
0.004594
-0.4346
-0.05571
0.1161
0.1445
0.04966
-0.001591
0.008011
0.03018
0.08806
0.196
0.01094
-0.00127
0.186
-0.03921
-1.59
-0.8446
0.1464
0.3814
0.04221
0.02059
0.03548
-0.5368
-0.5555
0.2217
0.2973
0.08137
-0.08509
-0.01474
0.01202
0.1753
-0.01298
-2.003
-0.008206
-0.06651
-0.003733
-0.3042
-0.343
0.2173
-0.6648
0.001888
0.3359
0.06617
0.01689
0.4854
-0.118
0.2072
0.02577
-0.0907
-0.4259
0.05775
-0.5803
-0.02888
0.1813
-0.0005846
-0.2068
0.0363
0.02968
0.01134
0.1358
0.2251
-0.008048
0.1218
-0.01713
-1.755
-0.05607
-5.23e-06
2.435e-06
0.0006095
0.031
-2.041
-0.2503
-2.305
-0.6177
-2.855e-05
0.118
0.07612
0.02382
0.05359
-1.741
-0.7613
-0.03193
-1.955
-0.04884
-0.1695
0.4716
-0.05328
-0.4224
-0.1035
0.03129
-0.04498
0.1291
-0.04278
0.019
-0.5203
-0.6913
-0.4013
-0.2157
-0.1771
-0.03074
0.006831
-1.362
-0.2967
0.173
-0.02607
-0.004455
0.07022
0.04953
-0.08799
-0.07247
0.3337
-0.8964
-0.1034
0.007675
0.0571
-0.2218
-0.179
0.02603
0.05885
0.001556
0.02419
-0.3435
-0.05093
-0.0161
-0.6506
-0.6336
0.1273
-1.349
0.3778
0.009204
-0.007449
0.1431
-0.1269
-4.537e-06
-0.01824
0.007009
-1.473
-0.04921
-0.01612
0.002975
-0.8643
-0.01758
0.005436
0.06625
0.04058
-0.1319
-0.02937
0.1073
0.003736
-0.378
-0.1729
-0.03772
-0.03599
-0.4776
0.02942
-0.02894
-0.04829
-0.01362
0.4561
-0.003609
-0.02101
0.1752
-0.03618
0.09877
-0.1142
-1.106
0.05434
-0.00667
0.0152
-0.6163
0.002437
0.0003294
0.06088
-0.02664
-6.365e-06
0.06611
0.05191
-0.6255
0.007929
0.005464
-0.02777
-0.01293
-0.0003132
-0.009854
-0.05316
-1.56
0.02869
-0.2852
0.03267
0.01767
-0.001499
-7.574e-05
-0.1168
0.1308
0.06046
0.009975
0.02229
0.01568
0.06994
-0.03645
-0.3808
-0.03881
-0.2215
-0.006267
0.0367
-0.01715
-0.3382
-0.2057
-0.2657
-0.02714
-0.00719
-0.7218
-0.1316
0.1477
0.4995
0.04545
0.02993
-0.1241
0.06493
0.05574
0.2242
-0.2382
-1.676
-0.5579
0.05867
0.05435
0.0001091
-0.03443
-0.1513
-0.6117
-1.098
-0.02356
-0.2197
2.892e-05
0.1906
-0.9547
-0.4434
-0.02682
0.03542
-0.1121
-0.4434
-0.3878
0.4702
0.3326
0.2964
0.4059
0.001687
-2.536e-06
-0.0169
-0.2726
-0.07782
0.06514
-0.1176
-0.03696
-0.03855
-0.1858
0.141
-1.016
0.04255
-0.06456
-1.051
0.0003809
0.2381
-0.01308
0.2674
0.007909
-0.02995
-0.5458
-0.3488
0.09093
-0.04598
-0.03195
0.0223
0.08638
0.05608
0.07014
-0.007515
-0.01436
-1.159
-0.1161
0.2341
-2.054
0.0004151
-0.01015
-0.2528
0.02565
-0.002439
-1.593
4.228e-05
-3.738e-05
0.2246
-0.0002902
-0.1072
-0.01269
0.007558
-0.163
0.08168
0.002823
0.008078
-0.4014
0.03862
0.4007
0.03089
-0.2433
0.001388
-0.0221
-0.8244
0.006039
-0.1067
0.001894
0.008371
-1.546
-0.007701
0.003873
-0.01584
0.07697
0.08903
-0.0716
-0.6191
-0.005143
-0.0009691
0.009993
-0.0235
-0.02381
-0.04464
-0.03826
0.1008
-0.05282
-0.1203
-0.0256
0.08763
-0.01478
0.03296
-0.3569
-0.00605
0.09928
-0.2283
-0.9631
-0.004292
-0.01861
-0.03276
-0.3043
-0.02227
0.09493
-0.05433
0.06009
0.08809
-0.01312
0.006671
-3.029
0.1455
0.2541
0.007903
-1.49
0.005686
-0.03712
0.1033
-0.01378
-0.01638
-0.0138
-0.1369
-1.128e-05
-2.61
-1.176e-05
-0.01745
-2.287
-0.07131
-0.3525
-0.0002364
-1.816
0.01139
0.03329
-0.07505
-0.6611
0.1681
0.03167
0.4145
0.0331
-0.01889
-0.4078
-0.6327
-0.04804
0.4827
-0.4472
-2.281
0.02722
0.002293
-0.08889
0.003662
0.0135
0.007323
-0.7687
-0.06088
0.5018
-1.274
0.4898
0.009956
0.01451
0.005966
0.02792
0.01807
-1.051
0.1114
-0.2188
-2.493e-05
-0.1054
0.133
-0.6338
0.008277
-1.937
-0.047
-0.3357
0.4569
0.07245
0.05107
-0.02211
0.007298
0.01274
3.317e-05
-0.04626
0.2778
-0.007168
0.02878
-0.9363
-0.02045
0.04094
-0.1108
0.02625
0.1206
-0.658
0.3963
-1.181
-0.7222
-0.01417
-0.1357
-0.09631
-0.6302
-0.06084
-0.2704
-0.01355
0.0003768
0.0008756
-0.5864
-0.0003617
0.194
0.25
0.06215
-0.01347
-2.351
-0.1017
-0.02238
-8.059e-07
0.04912
-0.1478
-1.39
-0.08438
-0.007629
-0.0896
-0.5438
0.05765
-3.135e-06
-0.6433
0.0544
-0.1313
-0.481
-1.186
0.4096
0.4963
-0.07208
-0.5045
-0.4556
-0.01927
-0.02976
0.07358
-0.9198
0.3658
-0.02525
-0.03309
-0.04429
-0.07662
-0.3924
-0.828
0.006857
0.392
-1.688
-0.1963
0.3521
0.3841
-0.02616
-0.7325
-0.001615
-6.005e-05
-0.9224
-0.04522
0.05003
0.01244
-1.437
-0.04248
0.2185
0.1234
0.002957
0.02334
0.01635
-0.05099
-0.8937
-0.3037
-0.3589
0.01566
-0.02588
-0.6884
0.03817
-0.1184
0.4909
-0.006068
0.02655
0.04515
-0.05007
-0.005965
-0.0004505
-0.07059
-0.08241
-0.103
-0.1364
-0.04257
0.02966
-0.02014
-0.6683
-0.3624
0.1856
-2.532
-0.01834
-2.36e-05
0.08094
0.07032
0.09244
-0.02274
-0.3364
0.1297
-1.105
-1.105
0.009717
-0.6317
0.0006173
-0.03147
-0.0128
0.1333
-0.1393
-0.6139
-1.802
0.1491
0.1005
0.01791
-0.02029
0.04244
-0.02953
-1.735
-0.01895
-0.007305
0.02777
0.0008876
-0.1786
0.02931
-0.2508
-0.01295
0.2439
-0.1323
-0.08732
0.1043
0.05699
-0.03981
0.0002806
-0.3958
-0.01086
0.05415
-0.3558
0.02763
-0.664
0.002645
-0.01227
0.005954
-0.1696
0.3101
0.05993
-2.057
0.02585
0.3974
-0.01224
-0.08536
-0.005686
-0.1127
-0.007606
0.05523
0.1291
-0.001622
0.08466