/*--------------------------------*- C++ -*----------------------------------*\
  =========                 |
  \\      /  F ield         | OpenFOAM: The Open Source CFD Toolbox
   \\    /   O peration     | Website:  https://openfoam.org
    \\  /    A nd           | Version:  8
     \\/     M anipulation  |
\*---------------------------------------------------------------------------*/
FoamFile
{
    version     2.0;
    format      ascii;
    class       volVectorField;
    location    "60";
    object      U;
}
// * * * * * * * * * * * * * * * * * * * * * * * * * * * * * * * * * * * * * //

dimensions      [0 1 -1 0 0 0 0];

internalField   nonuniform List<vector> 
127143
(
(0.007081 -0.0003069 0)
(-0.0001864 -0.0008602 -6.258e-24)
(-0.0001383 -0.0006801 1.129e-23)
(-0.0001825 -0.0008327 -9.891e-27)
(0.07661 0.01275 -9.932e-21)
(-0.0001583 -0.0008378 2.374e-26)
(0.3096 0.1843 0)
(0.1423 0.06483 -9.183e-21)
(0.1009 0.04819 4.31e-20)
(0.08564 0.001585 0)
(0.4328 0.613 1.366e-20)
(0.2152 0.14 2.825e-20)
(-0.0006952 0.0002632 -2.295e-24)
(-0.0002346 -0.0008978 0)
(-0.3429 0.6083 3.738e-21)
(0.1464 -0.01131 0)
(-0.0002519 -0.001179 -1.85e-23)
(0.9764 -0.1062 -4.442e-21)
(0.9935 -0.198 0)
(0.1477 -0.004957 0)
(1.245 -0.2761 1.188e-20)
(-0.01951 0.006941 0)
(0.8617 -0.09491 0)
(0.8957 -0.08563 0)
(-0.01915 0.007096 -1.773e-22)
(0.6868 -0.1115 0)
(0.5396 -0.01325 2.477e-20)
(0.5305 0.006483 -3.934e-22)
(0.3627 -0.1624 0)
(0.9874 -0.08127 6.984e-21)
(0.7978 -0.05219 0)
(0.6644 -0.1067 2.007e-21)
(0.4524 0.1133 1.119e-20)
(0.3029 -0.07393 -1.129e-20)
(0.7873 0.04065 4.578e-20)
(0.3863 0.1044 -3.605e-23)
(0.07637 -0.02124 1.153e-21)
(1.366 -0.1999 -9.102e-21)
(0.9358 -0.08806 2.928e-22)
(0.5114 -0.02942 1.259e-24)
(0.9929 -0.1979 0)
(1.607 0.6612 -2.716e-20)
(1.562 0.6538 2.175e-20)
(-0.001419 0.0004537 0)
(0.9758 -0.1037 4.132e-21)
(0.3092 -0.07463 3.68e-21)
(0.3741 -0.1704 0)
(0.2609 -0.06668 -3.942e-22)
(0.8897 -0.1521 -7.422e-22)
(0.9202 -0.07699 1.061e-22)
(0.1683 -0.0117 -4.897e-23)
(0.9232 0.002582 1.253e-19)
(1.518 -0.1648 0)
(1.403 -0.03825 -1.831e-20)
(0.999 -0.002316 5.579e-20)
(0.782 -0.197 1.3e-21)
(0.999 -0.002304 -5.017e-20)
(0.9638 -0.0782 0)
(1.014 -0.01659 -2.568e-20)
(1.405 -0.03385 -3.623e-20)
(0.3198 0.2847 -7.604e-20)
(1.05 -0.2358 -1.174e-21)
(0.987 -0.07552 -3.723e-22)
(1.001 0.0005948 1.747e-19)
(1.016 -0.09034 0)
(0.694 -0.1388 -2.504e-20)
(1.261 0.1004 8.378e-20)
(0.9842 -0.07804 0)
(0.9847 -0.0779 -1.129e-22)
(0.9985 -7.608e-06 0)
(0.8601 -0.07071 0)
(0.5685 0.001469 -1.173e-20)
(0.5574 -0.1343 1.11e-21)
(1.014 -0.01645 -1.394e-20)
(1.007 0.003623 -6.201e-23)
(0.5668 0.01175 1.24e-20)
(1.044 0.04692 -1.084e-19)
(0.2429 -0.06713 0)
(0.7905 -0.1999 -2.555e-21)
(1.001 0.001297 0)
(0.3896 -0.171 -4.444e-24)
(0.1713 -0.009145 2.203e-23)
(0.4426 -0.1017 4.285e-21)
(0.5849 -0.03958 0)
(0.152 -0.04349 2.857e-22)
(0.264 -0.07088 0)
(0.9538 -0.096 7.73e-22)
(0.6011 0.03765 7.081e-21)
(0.6945 -0.1358 0)
(2.061 1.163 0)
(0.9761 -0.01874 0)
(1.203 -0.1875 0)
(2.01 1.135 0)
(1.248 -0.2758 -1.193e-20)
(1.16 -0.2217 0)
(0.9653 -0.05824 -1.546e-20)
(1.603 0.6452 5.882e-20)
(0.7206 -0.05662 0)
(0.691 -0.1778 2.367e-21)
(1.26 0.107 0)
(1.001 0.001253 0)
(0.8911 -0.1524 0)
(1.888 1.722 -4.453e-21)
(0.9449 -0.1033 0)
(0.2796 -0.07533 -8.069e-22)
(0.6602 -0.1721 3.277e-21)
(0.9048 -0.1364 3.959e-21)
(0.9983 6.605e-06 0)
(0.46 -0.09672 0)
(1.001 -0.001725 7.96e-20)
(-0.3367 0.5935 -1.255e-21)
(0.6241 0.04251 1.416e-20)
(1.247 -0.2595 -9.051e-21)
(0.285 1.323 0)
(1 0.02187 6.573e-23)
(0.8921 -0.1314 1.066e-21)
(1.021 0.07099 1.697e-20)
(1.007 0.003847 -9.951e-20)
(1.043 0.04549 8.652e-20)
(-0.001816 -0.007958 0)
(1.001 -0.001836 -1.114e-19)
(0.4028 -0.1031 -1.293e-21)
(0.589 -0.1893 0)
(0.9521 -0.08126 -7.867e-21)
(0.39 -0.1726 1.431e-21)
(0.5933 -0.0825 3.182e-21)
(1.071 -0.2548 0)
(1.05 -0.01046 1.596e-19)
(1.608 -0.1245 -2.475e-21)
(0.7297 -0.2066 -2.462e-21)
(0.4096 -0.1139 0)
(0.9311 -0.204 -4.491e-21)
(0.9715 -0.08785 2.256e-21)
(0.2472 -0.06773 0)
(-0.0003705 -0.00212 -1.004e-22)
(0.4252 -0.1171 -1.426e-21)
(1.054 -0.07749 0)
(1.269 -0.2699 4.215e-21)
(0.229 -0.1218 -1.855e-20)
(1.102 -0.07462 9.455e-21)
(0.8194 -0.1103 4.532e-20)
(1.005 0.05743 -1.946e-20)
(1.45 -0.1962 7.981e-22)
(1.323 -0.2428 -9.775e-21)
(1.517 -0.1644 -3.736e-21)
(1.954 0.581 1.443e-20)
(-0.3191 1.573 -2.601e-21)
(1.001 0.0005189 -1.585e-19)
(0.9099 -0.1972 3.615e-21)
(2.04 1.697 -1.942e-21)
(0.9533 -0.09867 1.7e-21)
(0.8685 -0.1655 0)
(1.373 -0.1883 3.032e-20)
(0.709 -0.009434 0)
(-0.07079 0.2091 0)
(0.1622 -0.0446 0)
(0.9642 -0.07771 1.709e-21)
(0.626 -0.2139 0)
(0.2669 -0.06872 -7.91e-22)
(0.701 -0.06093 -1.447e-22)
(0.8641 -0.05971 0)
(0.1833 -0.08944 3.147e-20)
(0.9767 -0.01937 2.33e-21)
(0.4098 -0.1099 -3.339e-21)
(0.6924 -0.1809 0)
(1.094 -0.1015 8.399e-21)
(0.07766 -0.02193 -6.803e-22)
(0.4591 -0.03773 4.452e-20)
(2.094 0.4697 -5.634e-21)
(0.9673 0.1263 -2.773e-21)
(-0.03795 0.01306 0)
(1.321 -0.2433 4.814e-21)
(0.8804 -0.1387 3.438e-21)
(0.7224 -0.1861 -1.044e-20)
(0.9947 -0.002688 1.297e-20)
(-0.003807 -0.002852 5.133e-24)
(1.934 0.7209 -2.934e-21)
(1.606 -0.1255 -2.475e-21)
(0.9234 -0.09373 0)
(1.011 -0.02854 1.058e-20)
(0.7211 -0.1862 -3.52e-21)
(0.9726 -0.03721 0)
(-0.00898 -0.01282 6.482e-23)
(-0.003396 -0.0033 -5.239e-24)
(0.7295 -0.2079 4.963e-21)
(1.05 -0.2349 2.584e-21)
(1.346 0.4119 -3.129e-20)
(0.3169 1.34 4.235e-21)
(0.9052 -0.08738 5.927e-22)
(1.027 -0.03908 4.758e-20)
(1.503 -0.1845 2.524e-21)
(1.508 -0.1795 -9.974e-21)
(1.055 -0.07684 5.078e-20)
(0.6901 1.858 6.795e-21)
(-0.000222 -0.002201 1.679e-22)
(1.145 -0.2699 0)
(1.006 -3.224e-06 0)
(0.9945 -2.111e-06 1.09e-21)
(0.04574 0.001432 0)
(0.9968 0.0333 1.342e-21)
(1.021 0.006488 7.327e-20)
(0.9162 0.08363 1.175e-19)
(1.001 -0.04888 -2.666e-21)
(0.08377 -0.02324 -5.676e-22)
(-0.000315 -0.001591 2.41e-24)
(0.9827 -0.06811 -1.218e-22)
(0.906 -0.06534 1.767e-20)
(0.8821 -0.144 -1.092e-21)
(0.9903 -0.08144 -4.18e-21)
(1 0.02132 1.643e-22)
(1.094 -0.1482 1.24e-20)
(0.07977 -0.02485 1.728e-22)
(0.9785 -0.0001655 3.206e-20)
(2.118 0.4802 -5.694e-21)
(0.3277 -0.09287 -2.09e-23)
(0.09193 -0.004706 0)
(-0.04382 0.01585 -4.323e-22)
(0.86 -0.1539 5.488e-21)
(0.9699 -0.2271 -6.785e-21)
(0.9078 -0.06505 4.277e-21)
(1.913 0.7144 -6.763e-21)
(1.004 0.008945 5.952e-20)
(0.8693 -0.1657 -8.672e-22)
(1.524 -0.1562 3.685e-21)
(0.6661 -0.05723 0)
(-0.04005 0.01442 0)
(0.7336 -0.1911 -2.886e-21)
(1.367 -0.1976 1.087e-20)
(-0.02507 0.009518 3.072e-22)
(0.8907 -0.2216 4.3e-21)
(1.251 -0.2742 6.818e-21)
(0.9715 -0.0368 3.587e-20)
(0.6217 -0.1474 -2.129e-21)
(-0.002109 -0.009154 0)
(1.252 -0.275 0)
(0.9468 -0.07192 -1.064e-20)
(0.4107 -0.1096 1.648e-21)
(0.01868 -0.002952 7.183e-23)
(1.021 0.00617 -6.719e-20)
(1.486 -0.1896 1.133e-20)
(1.518 -0.1799 7.296e-21)
(1.34 -0.08535 -1.054e-20)
(0.04858 -0.01075 -9.032e-23)
(0.6298 -0.2141 -9.571e-24)
(1.489 -0.1477 0)
(-0.001518 -0.00818 4.114e-26)
(0.8544 -0.1642 5.016e-21)
(0.5278 -0.00171 0)
(-0.0141 0.005121 3.404e-21)
(1.001 -0.0002256 -2.477e-21)
(1.792 0.4156 -4.953e-20)
(0.6572 -0.07257 -1.358e-21)
(0.8079 -0.1723 0)
(1.309 -0.2585 0)
(0.8106 -0.1921 3.582e-21)
(0.4819 -0.111 0)
(1.049 -0.01086 -1.254e-19)
(2.22 0.6533 0)
(0.7754 -0.1727 0)
(1.021 0.4369 -1.016e-20)
(1.177 -0.2715 -6.14e-21)
(0.959 -0.02968 -3.248e-20)
(1.204 -0.1844 6.921e-22)
(1.003 0.0568 1.168e-20)
(1.561 -0.1195 0)
(1.24 -0.08944 -3.573e-21)
(0.1283 -0.03897 2.562e-21)
(-0.1143 0.2246 0)
(0.3198 0.09653 8.706e-20)
(1.505 -0.08988 -1.458e-20)
(0.7665 -0.143 0)
(0.994 -0.002781 -1.535e-20)
(0.3244 -0.07869 -6.405e-22)
(1.485 -0.1904 -1.046e-20)
(0.9869 -0.0718 -6.106e-22)
(1.502 -0.1836 -1.022e-20)
(1.253 -0.2612 0)
(0.9092 -0.1404 -4.326e-21)
(0.9917 -0.006105 -1.276e-21)
(0.7054 -0.1768 1.032e-20)
(0.9993 -0.001067 2.975e-21)
(0.9634 -0.05792 -1.827e-22)
(0.945 -0.103 6.371e-24)
(0.9913 0.01196 0)
(1.011 0.01665 3.573e-20)
(-0.0009416 -0.002302 -2.414e-23)
(0.5824 -0.1536 0)
(1.001 0.0232 -2.317e-21)
(0.9232 -0.1271 -2.255e-21)
(1.01 -0.02861 1.594e-20)
(1.37 -0.1881 -4.616e-20)
(0.8362 -0.1272 0)
(0.9459 -0.07213 1.085e-20)
(0.8582 -0.1486 0)
(0.9769 -0.00931 -2.947e-20)
(0.4328 -0.1073 -1.546e-21)
(0.8144 -0.06812 -3.266e-22)
(-0.02021 -0.01669 -5.003e-23)
(0.04838 -0.01117 3.423e-22)
(1.502 -0.08834 9.845e-21)
(0.779 -0.09018 4.731e-22)
(0.7584 -0.1424 -4.566e-21)
(0.5993 -0.08812 -2.941e-20)
(0.8919 -0.131 -1.04e-20)
(0.6359 -0.04687 0)
(0.1617 -0.00252 1.644e-23)
(0.8824 -0.1437 -3.615e-22)
(0.9778 5.569e-05 0)
(1.117 -0.2374 3.15e-23)
(0.9563 -0.09841 1.808e-21)
(0.91 -0.1344 4.272e-21)
(-0.01781 -0.01016 -8.586e-24)
(0.8014 -0.1919 0)
(0.9991 -0.001125 2.16e-21)
(0.9872 0.01636 -3.1e-20)
(2.07 0.7712 2.851e-21)
(1.385 -0.2017 4.597e-21)
(0.7633 -0.08404 -9.029e-22)
(1.228 -0.1499 3.351e-20)
(1.001 -0.02333 1.101e-21)
(0.8613 -0.09337 0)
(0.8294 -0.06086 1.359e-22)
(1.084 -0.02234 3.319e-20)
(0.8087 -0.1722 2.834e-21)
(2.074 0.7701 0)
(1.444 -0.1797 -1.091e-20)
(0.856 0.05003 8.05e-20)
(0.004155 -0.01441 -1.231e-23)
(0.8396 -0.04344 8.479e-23)
(1.89 0.8495 2.178e-20)
(0.9207 -0.2158 0)
(1.011 0.01632 -3.114e-20)
(0.7931 0.03516 -1.669e-19)
(1.006 6.4e-06 0)
(0.9943 5.849e-06 0)
(0.7116 -0.004905 0)
(0.4748 -0.1047 -9.955e-21)
(0.8797 -0.1386 3.482e-21)
(0.9156 -0.2142 -1.038e-21)
(0.5935 -0.1513 -1.408e-20)
(1.098 -0.0731 -4.177e-20)
(0.8606 -0.1538 0)
(1.507 -0.166 3.174e-21)
(1.502 -0.1823 2.869e-21)
(-0.0313 0.7326 -7.39e-22)
(0.9225 -0.1261 1.502e-21)
(0.5722 -0.1303 -3.617e-21)
(1.306 -0.2442 3.612e-21)
(0.8131 -0.09846 8.6e-22)
(1.654 -0.09701 0)
(0.8229 -0.09467 -6.346e-22)
(1.022 -0.2018 3.384e-21)
(-0.001422 0.001086 -1.154e-22)
(1.503 -0.1827 9.223e-21)
(0.9443 0.1478 0)
(0.5753 -0.1331 -8.335e-21)
(1.308 -0.2592 -5.473e-21)
(1.928 0.5119 -1.234e-20)
(1.004 -0.01245 1.282e-20)
(0.8282 -0.04257 0)
(0.4124 -0.09786 -1.259e-21)
(0.9866 -0.07532 -1.148e-22)
(1.021 -0.1584 -9.818e-21)
(0.9222 -0.06949 0)
(0.9243 -0.0805 3.609e-22)
(1.004 0.003712 9.13e-22)
(0.9968 0.03248 -4.641e-21)
(0.9736 -0.01382 0)
(0.624 -0.114 3.143e-21)
(0.989 -0.005832 0)
(0.1504 0.3793 7.667e-20)
(1.082 -0.02462 -6.704e-20)
(0.7123 -0.08043 1.183e-21)
(0.9132 -0.07056 -2.27e-22)
(1.028 -0.03801 0)
(1.201 -0.09804 -6.639e-22)
(0.854 -0.08452 -4.903e-22)
(-0.003901 -0.003423 -1.222e-26)
(0.6544 -0.1667 -6.097e-21)
(0.9953 -0.006838 1.352e-21)
(1.104 -0.2074 -4.329e-20)
(0.6349 -0.08268 -3.081e-21)
(0.8388 -0.1045 0)
(0.7551 -0.1439 -1.716e-20)
(1.02 0.06854 0)
(0.2866 -0.02243 0)
(1.091 0.2531 0)
(0.5308 -0.03186 0)
(1.149 -0.2714 -1.723e-21)
(1.238 -0.2309 -4.01e-20)
(1.015 -0.01395 -7.436e-20)
(0.5756 -0.03696 0)
(-0.03484 0.01284 2.57e-22)
(0.7945 -0.197 3.862e-21)
(0.9025 -0.08423 -8.423e-22)
(0.801 -0.05846 -1.459e-22)
(0.5806 -0.04258 -2.357e-20)
(0.8213 -0.05321 0)
(0.9394 0.1464 0)
(0.9587 -0.02869 0)
(0.5726 -0.04503 1.815e-23)
(1.004 0.008518 -2.228e-20)
(1.297 -0.268 0)
(-0.007384 -0.01326 0)
(1.101 0.2514 0)
(0.9414 -0.1089 -1.805e-21)
(0.3216 -0.08666 -4.15e-21)
(0.9662 -0.09195 -1.923e-21)
(1 0.001398 -2.696e-20)
(0.9351 -0.09564 0)
(0.4432 -0.1433 0)
(0.8139 -0.1153 2.368e-21)
(0.8215 -0.1096 -4.845e-20)
(0.3618 -0.08963 0)
(0.5884 -0.1865 0)
(1.184 -0.225 -4.152e-21)
(0.8737 -0.2219 -5.785e-21)
(0.7394 -0.1411 0)
(1.439 -0.1551 8.688e-21)
(0.5272 -0.1942 -4.848e-21)
(0.08119 -0.02308 0)
(-0.01595 0.005563 -6.564e-21)
(0.3233 -0.08964 0)
(1.002 -0.0001436 8.548e-22)
(0.8692 -0.2143 -4.625e-21)
(1.143 0.4546 2.192e-20)
(1.541 0.6366 9.411e-22)
(0.7923 -0.08198 -2.996e-20)
(1.397 -0.1042 1.32e-20)
(0.8814 -0.07336 -1.527e-20)
(1.005 -0.0004824 0)
(0.3074 -0.08641 0)
(-0.005515 0.002575 0)
(1.08 -0.1634 7.25e-20)
(1.65 -0.02235 1.532e-21)
(1.004 0.003581 -2.747e-20)
(0.9089 -0.1302 -4.375e-21)
(0.6915 -0.152 -7.763e-21)
(0.9252 0.002942 -4.638e-20)
(0.9769 -0.008502 0)
(0.9929 0.001173 -9.286e-21)
(0.9313 -0.0785 -1.518e-22)
(1.052 -0.08043 -1.656e-20)
(0.4713 -0.1123 1.956e-20)
(0.9785 0.08952 0)
(0.7378 -0.05743 1.113e-23)
(0.9828 0.01832 7.599e-20)
(0.04495 0.04939 0)
(0.976 -0.01392 6.834e-22)
(0.08013 -0.02452 1.454e-22)
(1.121 -0.2693 0)
(0.8724 -0.1082 -1.022e-23)
(0.9415 -0.1082 5.232e-21)
(0.6456 -0.1109 1.962e-20)
(0.8959 0.2481 -1.945e-21)
(0.0765 -0.01909 -1.977e-22)
(0.7779 -0.09324 4.645e-22)
(1.562 -0.08243 0)
(0.1187 -0.03112 0)
(1.424 -0.1492 7.368e-21)
(0.9713 -0.08764 -7.146e-22)
(1.583 -0.123 6.475e-21)
(1.224 -0.2482 0)
(0.3609 1.231 1.081e-20)
(1.583 -0.1243 -9.838e-24)
(0.9978 -0.00235 0)
(1.025 0.03661 0)
(1.385 -0.2367 0)
(0.4165 -0.1069 3.845e-21)
(0.9949 -0.0003204 0)
(0.8738 -0.2178 2.749e-21)
(1.239 -0.1755 2.261e-20)
(0.9526 -0.08049 1.173e-20)
(1.383 -0.2008 -1.587e-21)
(0.9168 -0.05675 2.288e-20)
(1.005 -0.0002665 0)
(-0.1344 0.3382 -2.541e-20)
(1.239 -0.173 -2.644e-20)
(-0.01584 0.006283 -3.004e-22)
(1.498 -0.1594 7.576e-22)
(0.2471 -0.1299 1.38e-21)
(0.02514 0.0731 -2.004e-20)
(1.17 -0.165 2.437e-21)
(0.799 -0.192 0)
(0.4476 -0.1347 0)
(1.646 -0.02246 -1.64e-21)
(1.483 -0.1603 -6.634e-22)
(1.016 -0.00104 7.314e-20)
(0.7429 -0.06536 2.184e-22)
(0.969 0.04792 4.31e-20)
(2.035 0.773 9.217e-22)
(0.9583 -0.09637 -6.897e-22)
(1.53 -0.161 0)
(1.953 0.5489 6.517e-21)
(-0.0005005 -0.002575 0)
(0.329 -0.09243 3.706e-21)
(0.1945 0.983 -2.154e-22)
(0.9595 -0.05762 -5.633e-23)
(1.606 1.163 2.789e-20)
(0.9823 0.003901 -1.512e-19)
(0.2524 -0.1331 0)
(1.027 0.03619 1.29e-22)
(0.02841 -0.006029 0)
(1.146 -0.2685 -7.607e-21)
(-0.0002147 -0.001248 0)
(-0.003234 -0.009664 1.356e-22)
(-0.004934 0.001539 -4.516e-23)
(0.9991 -0.0001975 -6.371e-20)
(0.5854 -0.1374 0)
(1.786 0.07045 0)
(0.9878 0.01623 5.774e-20)
(0.6432 -0.15 1.857e-21)
(0.5876 -0.1913 1.792e-20)
(0.2025 -0.05627 2.336e-21)
(0.9163 -0.1223 0)
(1.108 -0.2657 0)
(0.8664 -0.1063 7.371e-22)
(0.8802 -0.222 -2.756e-21)
(0.3241 -0.05937 1.69e-21)
(0.9993 -0.002141 0)
(0.04256 -0.02534 -1.7e-22)
(-0.01427 0.005076 0)
(0.5131 -0.1943 3.291e-21)
(0.7753 -0.07635 -1.73e-22)
(-0.03712 0.01275 8.564e-23)
(1.015 -0.01577 -2.286e-20)
(0.9534 -0.09846 1.855e-21)
(1.003 -0.04859 -1.545e-21)
(1.223 -0.2469 1.351e-20)
(0.9942 -0.01425 0)
(0.7004 -0.05569 0)
(2.095 0.9596 0)
(-0.03042 0.01124 -4.649e-22)
(0.9932 5.835e-05 0)
(1.384 -0.2372 -4.38e-21)
(0.9331 -0.08264 1.138e-20)
(-0.03145 0.008666 -2.332e-26)
(0.4067 -0.124 8.308e-21)
(1.94 0.5621 1.795e-21)
(1.17 -0.2448 -3.788e-21)
(0.9587 0.04124 3.396e-21)
(0.01167 -0.002136 -2.727e-22)
(0.5602 -0.1693 -1.031e-20)
(0.9948 -0.0003205 8.161e-21)
(0.7569 -0.144 2.285e-20)
(1.426 -0.1578 -4.205e-20)
(0.84 -0.07333 2.554e-22)
(0.9282 -0.06901 -8.522e-23)
(0.3902 -0.09952 -4.06e-21)
(0.04836 -0.0158 4.528e-22)
(1.148 -0.2704 3.882e-21)
(1.566 -0.06721 0)
(0.5455 -0.195 4.629e-21)
(0.1532 -0.04306 0)
(0.3206 -0.08852 9.233e-23)
(1.026 -0.01102 -1.121e-20)
(0.5648 -0.03298 4.031e-23)
(0.6219 -0.1641 -3.163e-21)
(0.8086 -0.121 -2.451e-21)
(0.955 -0.101 2.607e-21)
(0.07987 -0.02011 4.609e-22)
(1 0.00272 0)
(1 0.003613 2.885e-21)
(1.025 0.418 1.688e-20)
(0.5567 -0.1281 -1.795e-21)
(1.59 1.231 0)
(0.9864 0.01911 -3.994e-20)
(1.004 7.424e-06 -7.765e-22)
(0.5784 -0.1628 0)
(0.4575 -0.1877 0)
(0.2887 -0.07644 1.215e-21)
(0.4456 -0.1347 0)
(0.006973 -0.001672 1.872e-21)
(0.03666 -0.01155 0)
(0.8183 -0.1581 -3.913e-21)
(1.038 0.04224 0)
(0.9976 -0.0009049 1.38e-20)
(-0.02636 0.009679 4.604e-22)
(0.8753 -0.2211 -2.785e-21)
(0.8095 -0.1751 8.031e-21)
(1.001 -0.002463 2.454e-20)
(0.5633 0.004014 5.987e-21)
(0.9611 -0.09515 0)
(0.5351 -0.1392 5.097e-21)
(0.9961 -0.006449 3.445e-21)
(0.7096 -0.0901 -1.429e-22)
(0.9859 0.01883 7.435e-20)
(0.3499 -0.09447 -8.101e-22)
(-0.004211 -0.02056 0)
(1.203 -0.2359 5.406e-22)
(0.9969 2.103e-05 5.83e-22)
(0.06736 -0.02002 -1.759e-21)
(1.178 -0.2712 -1.572e-21)
(0.2396 -0.1266 -2.187e-20)
(1.005 -0.0002408 -3.175e-21)
(0.9041 -0.1363 -4.134e-21)
(-0.0437 0.01591 1.95e-22)
(0.9928 0.0009316 0)
(0.9412 -0.109 0)
(0.995 0.0246 -5.173e-22)
(0.9657 -0.07195 -1.727e-22)
(1.465 -0.1732 0)
(0.9913 0.01151 3.882e-20)
(0.4506 -0.1088 1.001e-20)
(0.8883 -0.119 -9.619e-22)
(-0.01571 -0.01296 0)
(1.439 -0.2119 -1.087e-20)
(1.446 -0.1934 -1.291e-21)
(0.8339 -0.09677 1.914e-21)
(0.8449 -0.1055 7.841e-22)
(-0.132 0.5145 -1.254e-20)
(0.9423 -0.08972 2.435e-22)
(1.997 1.129 3.115e-21)
(0.9376 -0.05502 -6.888e-23)
(-0.002231 0.00283 -1.306e-22)
(1.558 -0.1335 -2.215e-21)
(0.7129 -0.06682 -1.414e-22)
(1.001 -0.002397 0)
(0.8343 -0.1741 -2.206e-21)
(0.9895 0.01405 -1.627e-20)
(-0.00852 0.7493 -6.815e-21)
(1.063 0.005831 7.351e-20)
(1.448 -0.1957 1.22e-20)
(1.004 -0.0005745 0)
(1.001 0.02309 -5.768e-22)
(0.9653 -0.07769 -7.49e-21)
(0.5258 -0.1935 2.428e-21)
(1.186 -0.2643 4.424e-21)
(1.003 -0.001234 2.03e-20)
(1 -0.00309 -3.1e-20)
(-0.02336 0.009075 -2.846e-22)
(0.9519 0.1183 0)
(0.5027 -0.1139 4.513e-21)
(0.7599 -0.06704 3.489e-22)
(0.4436 -0.1047 0)
(0.4715 -0.111 -1.565e-20)
(1.11 -0.2665 -6.689e-22)
(0.4424 -0.1445 0)
(1.501 -0.1819 -2.508e-22)
(0.2558 -0.07262 -1.148e-20)
(1.019 -0.07117 0)
(1.002 -0.001305 -3.542e-21)
(1.696 -0.06886 1.015e-20)
(1.492 -0.1853 1.121e-21)
(0.8918 -0.1248 2.886e-21)
(1.378 -0.1553 0)
(0.9805 -0.02008 -9.911e-20)
(1.004 3.113e-06 8.578e-23)
(1.444 -0.1785 -1.047e-20)
(0.2332 -0.1221 -5.364e-24)
(1.482 -0.1606 3.318e-21)
(-0.03774 0.013 7.203e-22)
(1.062 0.007477 0)
(1.003 2.899e-05 3.665e-22)
(0.2463 -0.06984 0)
(1.479 -0.1275 0)
(0.9202 0.08164 -9.386e-20)
(0.924 -0.1152 -4.74e-21)
(0.8981 -0.1019 0)
(0.9835 -0.04122 -4.144e-20)
(0.1731 -0.05132 4.082e-21)
(0.7973 -0.1685 -2.454e-21)
(1.492 -0.1847 6.93e-21)
(0.689 -0.03737 -8.844e-20)
(-0.001536 0.0004626 0)
(-0.03929 0.01417 0)
(0.1229 -0.03212 -2.105e-22)
(0.07541 -0.02014 3.533e-22)
(0.587 -0.153 0)
(1.375 -0.1981 6.347e-21)
(0.7464 -0.09651 3.249e-22)
(1.061 -0.1601 0)
(0.9256 0.01699 -2.174e-20)
(1.581 -0.1407 1.203e-20)
(-0.0224 -0.007194 0)
(1.297 -0.2677 -6.604e-21)
(0.9995 -0.002299 7.17e-20)
(0.9087 -0.14 3.174e-21)
(0.6749 -0.1207 0)
(0.4308 0.3752 -3.657e-20)
(0.9931 2.862e-05 -3.63e-23)
(0.9996 -0.002367 -9.559e-20)
(-0.002919 -0.01421 0)
(0.9596 -0.05711 3.154e-21)
(0.8637 -0.1583 -3.253e-21)
(1.476 -0.1887 -6.952e-22)
(0.2315 -0.07678 0)
(1.119 -0.2378 1.535e-20)
(1.527 0.01243 0)
(0.7062 -0.06019 -1.033e-22)
(0.5963 0.2615 6.831e-20)
(0.7721 -0.1996 0)
(1.015 -0.001176 -2.631e-20)
(1.003 -0.001395 0)
(1.825 0.4669 0)
(1.157 0.452 0)
(0.6738 -0.1236 7.137e-22)
(0.4329 0.35 0)
(0.5038 -0.2033 7.42e-21)
(0.5828 -0.1334 0)
(0.5042 -0.1943 -8.728e-21)
(1.094 -0.1453 8.079e-20)
(1.023 -0.1575 1.403e-20)
(0.9977 4.34e-05 -2.958e-23)
(0.7451 -0.05207 -1.966e-24)
(0.9185 -0.0572 3.18e-21)
(0.8314 -0.188 -2.199e-21)
(-0.0005538 -0.002572 2.356e-23)
(0.9059 -0.1334 -1.358e-21)
(1.561 -0.1178 -1.391e-20)
(0.6892 -0.1782 6.627e-21)
(0.997 3.422e-05 -5.604e-22)
(0.9558 -0.1018 -4.582e-23)
(0.9198 -0.08324 4.817e-22)
(-0.0347 0.01194 0)
(0.9923 -0.1756 1.194e-21)
(1.258 -0.2534 1.081e-20)
(1.501 -0.1821 -3.762e-21)
(2.019 1.675 0)
(0.8619 -0.2181 5.763e-21)
(0.2834 -0.1215 1.765e-20)
(1.004 -0.2099 -9.959e-22)
(0.8033 -0.1903 9.942e-22)
(0.9573 -0.102 -1.225e-21)
(0.956 -0.0984 -8.675e-22)
(1.076 -0.255 5.693e-21)
(0.8628 -0.1266 1.313e-20)
(0.01003 -0.00058 0)
(0.6712 -0.121 0)
(0.9649 0.1213 1.592e-20)
(0.8161 -0.1746 -2.262e-21)
(0.4686 -0.1705 1.421e-20)
(0.9577 -0.09937 2.559e-22)
(1.007 -0.002928 0)
(-0.01773 -0.009665 -4.147e-23)
(1.023 -0.2018 -6.966e-21)
(0.2932 -0.07711 -1.141e-21)
(1.003 1.517e-05 -3.118e-22)
(-0.03757 0.01325 0)
(0.3366 -0.09439 0)
(0.7161 -0.09107 -1.944e-21)
(0.9983 3.16e-05 1.969e-22)
(1.014 -0.1566 6.399e-21)
(0.0073 -4.263e-05 0)
(0.9199 -0.1683 7.704e-21)
(1.559 -0.1554 -6.136e-21)
(0.9979 1.753e-05 -1.685e-22)
(0.4728 -0.1204 -2.706e-21)
(-0.02897 0.005778 0)
(0.3307 -0.08882 7.061e-21)
(1.319 -0.2572 0)
(0.996 0.03603 -1.127e-21)
(1.507 -0.1655 3.176e-21)
(-0.268 0.8248 0)
(1.028 -0.004486 -2.42e-20)
(0.8713 -0.1494 4.088e-21)
(0.833 -0.1477 0)
(1.398 -0.1958 -7.34e-21)
(0.3301 -0.09187 0)
(0.7596 -0.1408 -1.383e-20)
(0.9058 -0.1336 0)
(0.6509 -0.08154 -3.587e-22)
(0.1396 -0.04116 0)
(0.9939 9.261e-06 -4.983e-22)
(0.4612 -0.1171 2.551e-21)
(0.9579 -0.2118 4.386e-22)
(0.5434 -0.04298 0)
(0.8352 -0.1203 -1.79e-21)
(1.395 -0.05511 0)
(0.6613 -0.1549 0)
(0.05125 -0.01643 1.06e-22)
(0.9935 4.317e-05 -1.167e-22)
(0.2117 -0.05931 -2.407e-21)
(0.1736 -0.04943 0)
(1.491 -0.164 0)
(-0.002393 -0.009546 -2.394e-23)
(1.491 -0.1632 -3.67e-21)
(-0.03008 0.01102 6.765e-22)
(1.361 -0.2531 -1.493e-21)
(0.05 -0.01107 0)
(0.8084 -0.1621 0)
(0.9992 -0.000221 3.14e-20)
(-0.001472 0.0005534 -1.85e-23)
(0.5127 -0.1388 5.931e-21)
(1.449 -0.2135 9.379e-21)
(-0.03027 0.01083 5.246e-22)
(0.1724 -0.04531 -1.959e-21)
(0.0341 -0.009198 1.125e-21)
(0.1665 -0.0474 -8.275e-22)
(0.8802 -0.07355 0)
(0.9974 -0.0008378 0)
(1.011 -0.1932 0)
(0.9388 -0.108 -1.106e-23)
(0.9979 1.925e-05 0)
(0.1874 -0.05389 -3.428e-21)
(2.033 0.7695 0)
(0.9094 -0.1342 -2.967e-21)
(0.6077 -0.1902 -5.619e-21)
(1.006 -0.0001409 -1.315e-20)
(1.126 -0.2706 0)
(-0.006182 -0.0006054 0)
(1.016 -0.0008624 -8.544e-20)
(1.006 -0.0001568 0)
(1.374 -0.1574 0)
(1.041 -0.2339 3.691e-21)
(0.4458 -0.1054 -8.323e-22)
(0.02532 -0.006623 4.999e-22)
(0.34 -0.08999 1.862e-21)
(0.177 -0.009618 9.597e-24)
(0.9306 -0.1145 0)
(0.5175 0.05093 -5.983e-20)
(0.9998 -0.002414 0)
(0.4247 -0.113 -2.381e-21)
(0.07726 -0.02117 0)
(0.8135 -0.05665 -3.68e-24)
(0.6732 -0.05532 0)
(0.4646 -0.03542 -4.403e-20)
(1.002 -0.0007693 0)
(1.015 -0.01525 2.612e-21)
(0.983 -0.04347 2.228e-20)
(0.5799 0.00582 7.064e-21)
(0.9998 -0.002284 1.257e-20)
(1.08 -0.1363 -2.839e-20)
(0.1581 -0.08086 4.46e-21)
(0.9362 -0.1154 -3.357e-21)
(0.6809 -0.09403 2.238e-21)
(0.9996 -0.00283 0)
(0.0314 -0.01289 -2.182e-22)
(0.9431 -0.1112 1.721e-21)
(1.004 0.01099 0)
(0.8197 -0.09916 -8.436e-22)
(0.9957 -0.0003843 0)
(0.3286 -0.1253 2.225e-20)
(-0.4409 0.726 -1.099e-21)
(1.318 -0.1717 -1.477e-22)
(1.522 -0.1273 0)
(0.4551 -0.02735 7.494e-23)
(0.9755 -0.01679 4.939e-21)
(0.3617 -0.09458 0)
(0.6752 -0.04509 -2.103e-20)
(0.7069 -0.0599 0)
(-0.02239 -0.006568 -4.776e-23)
(0.7578 -0.09964 -5.17e-22)
(1.529 2.117 -6.744e-21)
(1.399 -0.05028 -1.671e-20)
(0.8631 -0.1365 -6.526e-21)
(0.5338 -0.1191 3.063e-23)
(0.3591 -0.06702 0)
(1.003 0.01414 0)
(1.303 -0.2077 2.335e-20)
(0.673 -0.2112 0)
(2.098 0.3921 5.413e-22)
(-0.02247 -0.00674 1.793e-23)
(0.5723 -0.09378 0)
(1.002 -0.0007245 0)
(1.024 -0.099 1.266e-20)
(-0.02655 0.009992 -2.255e-22)
(0.607 -0.1396 -7.199e-21)
(0.3592 -0.01907 3.234e-20)
(1.862 0.1644 0)
(-0.1726 0.2005 -2.09e-21)
(1.964 0.2354 -1.98e-21)
(0.1738 0.02809 2.35e-20)
(0.8452 -0.1946 -2.997e-21)
(-0.02684 0.009913 9.167e-22)
(1.011 -0.1929 3.188e-21)
(0.3191 -0.02415 -3.891e-23)
(1.035 0.05601 -1.424e-20)
(0.9188 -0.1307 0)
(1.004 3.48e-05 0)
(0.9967 2.644e-05 0)
(1.439 -0.2071 5.653e-21)
(1.085 0.02494 3.754e-21)
(1.529 -0.1819 9.56e-21)
(0.8229 -0.1513 5.302e-21)
(0.2583 1.28 0)
(0.9567 -0.08995 6.591e-21)
(1.039 -0.0534 -2.183e-20)
(2.088 0.8207 7.973e-21)
(0.8102 -0.1769 3.968e-21)
(1.015 -0.01372 5.215e-20)
(1.037 -0.1923 -1.504e-22)
(0.1307 -0.03644 -3.733e-22)
(1.039 -0.05142 3.181e-20)
(0.4805 -0.1091 -1.114e-20)
(-0.01923 0.00583 -3.475e-21)
(-0.01248 -0.02786 0)
(0.8444 -0.1595 0)
(-0.3309 0.5571 -4.21e-21)
(1.301 -0.2407 0)
(0.0145 -0.003411 0)
(0.9864 0.004904 5.131e-20)
(1.531 -0.1596 5.583e-21)
(0.831 -0.1886 2.226e-21)
(1.004 -0.01214 0)
(0.4513 -0.1103 4.946e-21)
(0.5899 -0.1527 0)
(1.059 -0.2365 -2.54e-21)
(0.995 -0.0002937 4.101e-21)
(0.9643 -0.02121 3.123e-21)
(1.058 -0.1941 0)
(0.1247 -0.008754 3.068e-23)
(0.625 -0.1698 -1.313e-20)
(-0.01946 0.005949 0)
(0.9895 -0.2444 3.123e-21)
(0.4513 -0.154 0)
(0.8219 -0.1727 -7.986e-22)
(-0.04309 0.01548 0)
(1.511 -0.102 1.993e-21)
(0.9964 2.312e-05 5.365e-23)
(0.2091 -0.1143 0)
(1.607 0.3558 -3.132e-20)
(1.004 3.2e-05 0)
(0.5082 -0.1345 4.083e-22)
(-0.01236 0.004067 1.825e-22)
(1.163 -0.2237 -6.885e-21)
(1.882 0.1209 -6.601e-21)
(0.9855 -0.06023 -6.709e-22)
(0.9011 -0.1289 -1.489e-21)
(-0.03977 0.01439 -8.886e-25)
(0.1308 -0.0184 6.842e-23)
(0.9012 -0.09447 0)
(1.037 0.04261 -3.719e-20)
(0.9962 0.009544 6.285e-21)
(0.8587 -0.1538 0)
(0.4011 -0.1063 -4.371e-21)
(0.1148 -0.03219 -2.478e-21)
(0.5102 -0.1149 0)
(0.4352 1.607 1.58e-20)
(0.4811 -0.199 -4.053e-21)
(0.7123 -0.004284 -2.468e-22)
(1.317 0.01222 -3.957e-20)
(0.4862 -0.1993 -4.016e-21)
(1.106 -0.0817 4.723e-20)
(0.6746 -0.04661 0)
(1.008 -0.001659 0)
(0.2839 -0.07251 1.997e-22)
(-0.01267 -0.01288 -3.052e-24)
(1.36 -0.2396 -1.356e-20)
(0.4239 -0.1134 0)
(0.8478 -0.2141 0)
(0.9919 0.008498 -2.987e-20)
(0.9697 0.02107 2.382e-20)
(-0.02339 0.00874 0)
(0.7922 -0.1172 3.193e-20)
(0.007081 6.09e-05 0)
(0.9141 -0.1181 0)
(-0.001656 0.001412 -7.311e-22)
(0.2869 -0.06927 -9.419e-22)
(1.478 -0.1557 -2.988e-21)
(1.753 0.01386 -1.765e-21)
(1.56 -0.1218 -1.038e-20)
(0.3378 -0.051 1.194e-21)
(1.496 -0.1773 -7.916e-21)
(0.7717 -0.05685 -5.045e-23)
(0.2043 -0.05807 4.926e-21)
(0.9388 -0.1103 4.136e-21)
(0.5048 -0.1192 3.191e-21)
(0.716 1.848 -7.788e-21)
(0.04362 -0.013 -3.345e-23)
(-0.01226 -0.01199 1.761e-23)
(-0.02231 0.007687 0)
(0.8119 -0.2066 0)
(1.007 -0.002806 0)
(1.005 -0.00509 4.297e-20)
(0.59 -0.1472 2.284e-21)
(0.08938 -0.02267 0)
(0.8901 -0.1277 -1.856e-20)
(1.006 3.02e-05 0)
(0.3986 -0.1299 -1.461e-20)
(1.108 -0.2672 3.327e-21)
(0.969 -0.07411 5.248e-21)
(0.01956 -0.004663 0)
(1.449 -0.1711 -1.859e-20)
(0.1654 -0.0481 -3.76e-21)
(1.693 0.905 -3.877e-20)
(0.9999 0.001382 -2.346e-20)
(0.8682 -0.1254 0)
(0.9727 -0.05611 2.634e-21)
(0.465 -0.1814 0)
(0.6362 -0.04801 0)
(-0.0007165 0.002677 7.388e-23)
(0.5227 -0.02634 3.365e-20)
(1.28 -0.212 4.48e-20)
(0.6898 -0.1234 0)
(0.8954 -0.08357 1.597e-22)
(0.9787 -0.07981 0)
(0.7801 -0.1715 0)
(0.4081 -0.1445 1.606e-20)
(0.9485 -0.1089 -1.243e-21)
(0.0742 -0.02106 0)
(0.4505 -0.194 -5.29e-21)
(1.008 -0.01637 -1.943e-21)
(0.01922 -0.007569 0)
(-0.04006 0.01431 0)
(0.9703 -0.2149 0)
(1.467 -0.2083 1.284e-20)
(-0.3503 0.6172 -4.763e-21)
(1.011 0.02409 -5.319e-21)
(0.09305 -0.02113 7.973e-21)
(0.3333 -0.06511 0)
(0.9975 -0.0003434 0)
(0.9971 -9.587e-05 -2.792e-20)
(1.535 -0.1616 1.708e-24)
(1.216 -0.2695 1.298e-20)
(-0.01335 0.004896 -1.886e-22)
(-0.02231 -0.01126 1.934e-23)
(0.9184 -0.1304 6.593e-22)
(0.5709 -0.2036 0)
(0.06551 -0.02005 -2.461e-21)
(0.8773 -0.1245 0)
(0.9235 -0.1082 0)
(0.9732 -0.02159 -5.425e-20)
(0.07091 -0.02242 -4.518e-21)
(0.09444 -0.04851 0)
(0.08723 -0.02696 -2.201e-21)
(0.8382 -0.154 0)
(-0.03567 0.0115 8.504e-23)
(0.1748 -0.04844 -2.392e-21)
(0.9991 -0.001784 -1.607e-21)
(0.3493 -0.04813 0)
(-0.0007847 0.002007 -4.805e-22)
(0.9977 -0.0007998 -1.056e-19)
(1.197 -0.1707 -3.83e-21)
(0.9978 -0.0003713 -1.121e-20)
(0.9864 0.0008739 4.761e-20)
(0.9261 -0.1201 -1.655e-21)
(0.8688 -0.09905 0)
(0.3156 -0.03017 -4.039e-20)
(0.9958 -0.002187 1.072e-20)
(0.8193 -0.09786 9.784e-23)
(1.007 0.006629 0)
(2.044 0.8167 0)
(0.8829 -0.09084 -2.485e-20)
(1.023 -0.1836 1.714e-21)
(0.9461 -0.1035 2.445e-21)
(0.8456 -0.1638 5.125e-22)
(0.8894 -0.1283 0)
(0.152 -0.04382 9.638e-21)
(0.9518 -0.1032 -2.901e-21)
(1 -0.005545 1.084e-20)
(0.9687 -0.04004 -6.317e-20)
(1.367 -0.2361 6.87e-21)
(0.8757 -0.1597 -1.437e-21)
(0.028 -0.007364 -1.351e-22)
(0.1021 -0.03099 0)
(0.4151 -0.02988 -2.719e-24)
(0.0779 -0.02324 -1.67e-21)
(0.009124 -0.0009239 -6.927e-20)
(1.423 -0.21 1.18e-20)
(0.7494 -0.2043 0)
(1.736 0.03492 -1.503e-20)
(0.8714 -0.09198 1.334e-22)
(0.6562 -0.08024 0)
(1.094 0.7276 -1.349e-20)
(1.02 -0.1938 0)
(1.003 -0.01268 9.387e-21)
(0.7529 -0.1449 1.366e-20)
(-0.02004 -0.0007348 5.758e-23)
(0.7515 -0.1268 0)
(0.9987 2.249e-05 3.805e-22)
(0.06799 0.001733 6.1e-20)
(1.154 -0.2747 0)
(0.969 -0.09331 -1.127e-22)
(0.7389 -0.1929 1.522e-21)
(1.511 -0.1818 -9.432e-22)
(0.9335 -0.1069 4.36e-21)
(0.4689 -0.1011 0)
(1.162 -0.2613 7.072e-21)
(0.9687 -0.09342 -3.417e-22)
(-0.01787 0.007648 -9.115e-24)
(0.7557 -0.2019 -5.582e-21)
(-0.02225 -0.00688 5.094e-23)
(0.9978 -0.0008315 0)
(0.9829 -0.07345 5.245e-22)
(0.8002 -0.1485 0)
(0.9746 -0.01391 0)
(0.8696 -0.1758 0)
(1.045 -0.1086 1.625e-21)
(0.9966 -6.309e-06 4.509e-21)
(0.8239 -0.1566 9.457e-21)
(-0.02676 0.007021 0)
(0.9537 -0.04017 0)
(1.127 0.7165 4.942e-20)
(1.312 -0.2331 0)
(0.007399 -0.02309 0)
(0.8987 -0.1077 1.931e-20)
(1.007 4.604e-05 -2.757e-22)
(0.7068 -0.1594 -1.52e-22)
(0.32 -0.08836 -2.441e-22)
(1.016 -0.007331 4.66e-20)
(1.186 0.6074 -4.119e-20)
(1.133 0.07146 1.973e-20)
(1.086 -0.2645 5.045e-21)
(0.4749 -0.1195 -5.27e-21)
(0.8824 -0.1422 4.209e-21)
(1.042 -0.0495 0)
(-0.0332 0.009523 -3.289e-23)
(-0.02731 0.01002 5.537e-22)
(0.8441 -0.1761 -2.564e-22)
(0.905 -0.1411 1.988e-21)
(0.937 -0.2289 -1.775e-21)
(0.3129 -0.02725 0)
(0.9981 -2.657e-07 -4.073e-22)
(0.9501 -0.09836 -8.993e-22)
(1.009 0.008389 1.009e-21)
(0.5009 -0.1315 0)
(0.3262 -0.07786 -1.4e-20)
(1.159 -0.1995 0)
(0.7401 -0.1929 1.367e-20)
(-0.02167 -0.002245 -2.518e-23)
(0.3915 -0.06481 0)
(0.9994 0.005751 -6.019e-21)
(-0.01348 0.005184 0)
(0.09511 -0.02962 0)
(0.193 -0.05338 3.837e-21)
(0.9761 -0.08624 -8.52e-22)
(2.176 0.6442 0)
(1.137 -0.262 -5.435e-21)
(0.997 -0.1764 1.232e-21)
(0.6174 -0.04797 0)
(0.9241 -0.1244 0)
(0.8589 0.127 -9.711e-20)
(0.06034 -0.001772 6.693e-23)
(0.06182 -0.01581 3.516e-22)
(0.8906 -0.06478 0)
(0.7909 -0.1639 -3.127e-21)
(0.9153 -0.1355 0)
(0.1419 -0.02305 -6.107e-20)
(-0.01371 -0.02171 3.512e-22)
(-0.02016 0.007291 1.729e-22)
(0.8893 -0.1449 8.411e-22)
(0.1605 -0.047 0)
(1.527 -0.1252 0)
(0.8666 -0.1051 -1.183e-21)
(0.8867 -0.09046 4.465e-22)
(1.157 -0.2257 0)
(-0.01608 0.003996 0)
(0.9546 -0.06827 -4.91e-21)
(0.8318 -0.1699 -4.467e-21)
(0.9335 -0.08183 0)
(0.8402 -0.1424 1.418e-21)
(0.9939 4.388e-05 0)
(1.004 -0.001151 1.526e-19)
(1.415 -0.1908 -1.549e-20)
(0.2999 -0.01953 2.935e-23)
(0.3086 -0.08108 1.855e-21)
(1.002 -0.02769 6.545e-21)
(0.1491 -0.02901 -8.052e-21)
(-0.005593 0.002981 6.259e-22)
(0.9951 0.01129 -1.898e-20)
(1.154 0.1571 0)
(0.9303 -0.1229 3.695e-22)
(1.488 -0.1471 0)
(-0.002574 -0.01534 0)
(0.7252 -0.1701 -1.146e-20)
(0.04774 -0.01222 2.013e-22)