/*--------------------------------*- C++ -*----------------------------------*\
  =========                 |
  \\      /  F ield         | OpenFOAM: The Open Source CFD Toolbox
   \\    /   O peration     | Website:  https://openfoam.org
    \\  /    A nd           | Version:  8
     \\/     M anipulation  |
\*---------------------------------------------------------------------------*/
FoamFile
{
    version     2.0;
    format      ascii;
    class       volScalarField;
    location    "40";
    object      k;
}
// * * * * * * * * * * * * * * * * * * * * * * * * * * * * * * * * * * * * * //

dimensions      [0 2 -2 0 0 0 0];

internalField   nonuniform List<scalar> 
127143
(
1.008e-14
8.649e-14
6.141e-13
3.137e-12
2.768e-12
3.312e-12
5.883e-11
1.442e-11
6.884e-12
4.956e-12
1.444e-10
1.787e-11
4.339e-12
5.41e-12
2.466e-05
1.613e-10
3.177e-12
0.06644
0.02942
1.375e-08
0.003233
8.68e-08
0.0001541
6.04e-06
7.837e-08
1.267e-07
3.001e-09
3.099e-09
1.112e-07
0.06313
2.107e-06
1.223e-07
3.727e-08
1.082e-06
0.000151
3.653e-08
0.002304
0.01207
1.206e-05
7.579e-08
0.02972
0.0001533
0.0001528
3.256e-11
0.06447
1.315e-06
1.139e-07
0.00862
7.527e-06
9.748e-06
3.767e-10
0.0001495
0.00077
0.0001542
0.0001396
2.75e-06
0.0001395
0.0001656
0.0001473
0.0001541
0.0001531
0.01573
4.829e-05
0.0001482
6.831e-07
0.0001587
0.0001512
4.23e-05
4.281e-05
0.0002082
4.372e-06
6.574e-09
0.02947
0.0001473
0.0001458
6.585e-09
0.0001476
0.001905
2.726e-06
0.000149
8.901e-08
1.321e-08
8.699e-06
1.688e-07
0.02032
0.002859
1.993e-05
1.685e-08
0.0001575
4.16e-05
0.0001468
0.0007375
8.002e-05
0.00329
0.000228
0.0001723
0.0001532
7.875e-07
0.003397
0.0001512
0.0001489
8.677e-06
8.053e-06
0.0001116
0.00315
0.003171
3.388e-05
0.0002091
0.0001673
0.0001424
3.236e-05
1.512e-08
0.001145
0.0001683
0.0001455
0.0001513
0.0001477
0.0001459
0.0001475
6.409e-09
0.0001425
1.087e-05
7.044e-05
0.0001626
1.044e-07
3.364e-08
0.009944
0.0001488
4.334e-05
2.279e-06
0.0005902
0.0002437
6.082e-05
0.002012
1.02e-10
0.0006506
0.0001555
0.005237
3.059e-07
0.0001535
0.0001546
0.0001469
0.002147
0.006956
0.000813
0.0001559
4.154e-07
0.0001483
0.0002108
3.319e-06
8.501e-05
1.067e-05
0.009189
0.0001519
0.0001191
0.02047
0.0001657
1.879e-06
0.008874
5.815e-07
5.154e-06
4.741e-10
0.0001468
0.0006003
3.036e-07
1.112e-06
0.001123
0.0001559
2.075e-06
0.000149
9.061e-05
0.006976
0.0001426
9.374e-05
0.0006043
0.00927
0.0001798
4.511e-05
9.473e-06
0.0001563
9.457e-05
0.0001549
0.01042
0.00952
2.632e-06
0.01629
0.0001515
0.0001677
8.004e-06
0.0001551
0.0005607
9.727e-05
0.0001551
0.0001932
5.45e-11
0.01024
0.000129
0.0001282
1.317e-09
0.0001458
0.0001453
0.0001491
0.003366
0.002824
2.407e-11
3.061e-05
0.0001531
7.785e-05
0.05312
0.0001455
0.0001682
0.01804
0.0001448
2.323e-06
0.0002141
3.298e-10
1.058e-05
8.079e-05
0.0007415
0.0001532
0.0001842
0.0001462
1.001e-05
0.0007636
3.81e-07
5.991e-05
7.011e-07
0.01236
0.0002439
0.006396
0.002763
0.0001547
0.03001
7.086e-08
0.002845
0.0001573
0.0005951
2.224e-13
0.0001453
0.0009522
0.0001116
1.027e-06
0.01128
2.022e-06
0.001828
7.615e-09
2.034e-05
2.726e-09
3.952e-09
0.0002555
0.0001668
1.693e-07
7.649e-05
0.004536
6.027e-06
0.0001693
0.0001488
5.435e-06
0.0001337
0.0001508
0.01024
0.0001515
0.0003191
0.0001468
0.0004449
9.215e-07
5.989e-05
7.157e-05
0.0001553
0.0001315
5.45e-07
0.0005968
0.01172
0.000906
6.098e-05
0.0006195
0.001206
1.309e-05
0.001126
0.0001538
0.0002162
0.0001848
0.0001124
0.0001455
0.0001455
5.029e-11
0.0004871
0.0001456
1.159e-05
0.0001568
0.009453
0.0001579
0.0001572
0.0001339
0.0001451
0.0001755
2.665e-06
0.001655
0.01122
0.0001331
9.28e-07
0.0001598
0.0001549
0.0001549
2.944e-07
0.0001372
7.83e-05
0.0001449
0.02955
6.83e-05
3.055e-05
0.000217
1.723e-06
0.0001915
0.0001454
5.656e-05
0.007757
8.17e-07
0.0001585
0.005484
0.0001539
3.277e-06
0.0001514
7.578e-05
5.32e-05
0.004474
0.0001502
0.003575
4.588e-06
0.0001863
0.01112
0.0001455
0.000151
0.0001291
0.0001283
0.0001519
0.0001676
0.0001429
0.01113
0.0003386
0.0001535
8.033e-05
0.001227
0.0006885
0.0001762
1.098e-05
3.647e-05
0.0005403
1.252e-06
1.546e-05
1.615e-06
0.03059
0.007596
0.0006395
0.0001494
5.101e-05
0.004453
0.0001628
0.0001488
4.509e-06
0.0146
5.333e-05
0.06018
1.084e-05
1.078e-05
0.0001468
0.0001457
0.003485
5.52e-06
0.001142
0.0001555
0.0001515
3.574e-07
9.55e-06
0.0001545
0.0001535
3.285e-06
2.673e-07
0.004453
0.001171
0.05853
7.727e-08
1.828e-06
0.0001596
0.0001476
3.583e-09
0.0001503
9.878e-08
0.009603
0.03026
0.0001462
0.0001534
0.0001567
6.277e-06
7.843e-06
2.062e-06
0.0001535
2.935e-06
0.0001494
0.0001513
1.666e-07
0.0001462
0.003194
0.01098
0.0001504
7.401e-05
0.003744
6.081e-05
0.000149
1.179e-05
0.0001363
1.035e-06
0.0001546
0.009157
8.318e-05
0.0002504
0.002008
3.285e-07
0.001875
1.744e-05
0.00127
3.948e-07
0.0001291
0.0002171
0.006094
0.000151
0.0001526
0.000153
1.455e-06
0.0001532
0.0001413
0.0001295
0.006301
0.002537
0.0001482
0.0001468
7.143e-05
4.735e-05
0.0001494
0.0001451
0.0001453
1.254e-05
0.0001556
0.0001717
0.0001482
9.787e-07
0.0001454
4.6e-05
0.003741
0.01812
0.003556
3.08e-06
7.92e-05
3.562e-06
0.0001502
0.004224
7.706e-07
1.941e-06
0.004339
0.0003985
6.342e-05
0.0001535
0.01884
0.000157
0.0001387
0.0004698
0.0001463
0.001989
2.915e-05
0.0001386
0.004955
0.0001806
0.0001627
0.008417
0.0001529
0.0001347
0.000149
0.00017
9.82e-05
0.001767
1.267e-07
5.47e-05
3.017e-05
1.876e-06
0.0001622
0.0001477
0.002542
0.0001447
9.754e-07
0.0001469
8.951e-05
2.33e-05
0.0004775
0.0001492
2.315e-10
0.0004278
0.000157
0.0001601
0.0001605
0.0001449
1.165e-07
0.0001464
0.008477
0.01091
1.915e-12
1.048e-09
4.343e-09
0.000147
5.718e-05
5.637e-05
0.0001454
0.01461
5.369e-05
0.0007444
0.0001123
0.003334
2.951e-06
0.005029
8.121e-08
0.0004097
0.01737
2.015e-08
1.168e-05
1.1e-06
0.0001243
0.000147
8.833e-05
0.001943
0.02
0.0001457
5.751e-07
9.951e-07
0.0001303
0.0001304
0.001974
0.0001569
4.894e-05
0.0001533
1.049e-06
0.0263
0.000147
0.0003074
0.0001475
0.0001387
0.0001597
0.001239
3.508e-06
1.159e-05
2.197e-05
1.257e-05
0.01005
0.00015
2.436e-05
0.001119
0.0001536
0.0001464
1.384e-07
0.0007951
7.657e-07
5.481e-05
0.0112
0.0001483
0.0001479
0.0001508
3.154e-05
0.0001666
0.0001454
0.0001409
0.0001668
4.968e-06
0.003904
0.0001613
1.134e-05
2.23e-07
0.0001577
0.0001471
0.0001426
0.0001068
0.003627
4.96e-05
0.0001567
6.054e-09
6.161e-05
0.0001876
0.001151
2.691e-07
0.0001454
0.004167
0.013
0.03255
0.0001335
8.492e-05
0.01029
7.259e-09
0.0001346
3.595e-05
1.164e-05
0.0001453
7.435e-05
0.0001455
2.27e-05
0.003498
0.0001455
1.358e-05
3.783e-06
0.000312
0.0002327
0.00268
1.961e-06
2.105e-06
0.0002025
1.497e-05
9.675e-05
1.223e-05
0.0055
0.0003283
5.118e-07
0.0001485
2.172e-06
0.0001454
0.0001677
0.0001488
0.002279
0.0001413
0.0001456
0.0001634
1.855e-05
0.001649
0.0001383
0.0001412
0.0003125
1.372e-07
1.733e-05
1.134e-06
0.02024
0.000171
0.003645
0.0001306
0.0007316
7.092e-05
3.092e-07
0.0001385
4.418e-06
0.0009334
0.0001651
0.0002166
0.0001469
0.0001407
0.004748
5.958e-07
0.002585
8.788e-07
0.0001487
0.0001431
0.0004091
7.342e-06
0.0001491
1.684e-06
0.0001566
0.0001642
2.507e-05
0.0001306
0.00101
0.0001524
5.485e-11
7.842e-05
0.004515
0.004136
0.0005155
9.822e-05
4.647e-07
2.609e-05
0.0001489
8.211e-05
0.001945
0.003402
0.0001417
1.468e-05
0.0001561
0.0001522
0.0001303
0.0001415
2.484e-07
0.0001602
3.886e-06
0.0001264
6.29e-05
0.02928
0.0001588
6.032e-07
0.0001514
6.556e-06
0.0001447
0.0001393
0.0001702
0.000151
8.341e-06
0.0001522
8.022e-07
0.01833
8.802e-06
0.0001614
0.0584
0.0001405
1.194e-06
0.000153
5.009e-06
1.096e-10
5.709e-05
0.0004872
0.004823
0.000135
4.783e-05
1.09e-05
4.531e-07
0.0443
0.01209
0.000743
4.895e-06
0.001946
1.935e-05
0.02242
8.973e-06
4.091e-05
6.859e-05
0.01032
0.0001604
1.648e-14
0.000156
0.0001489
3.121e-05
6.037e-05
2.314e-05
0.000144
0.00624
0.03128
0.004018
0.0001464
7.365e-07
0.0001627
2.565e-07
0.000157
2.036e-05
0.00466
3.915e-05
3.84e-05
0.0001482
0.005667
0.0002132
1.644e-05
0.004061
0.0001459
0.001222
0.0001631
0.000146
7.805e-05
0.0001661
0.0001154
0.0004454
0.0001587
5.669e-05
9.577e-08
9.033e-05
0.0001278
0.005616
0.01633
1.244e-07
1.382e-06
0.0001547
0.01491
1.68e-05
0.0001283
0.0008392
2.658e-05
0.002097
1.36e-07
0.002107
0.0001504
0.001261
0.01308
0.0001537
0.0001469
2.276e-11
0.0006119
0.0002717
2.421e-05
0.005353
0.0002795
0.000288
6.152e-06
0.0001424
0.03462
0.0001115
0.0001429
0.0001603
9.068e-05
3.308e-05
7.004e-05
0.0001364
0.003986
0.008111
0.0001447
0.000136
0.0002198
0.01535
0.02014
0.0003456
0.004415
1.224e-09
9.647e-05
0.0001527
0.0001418
0.00191
0.001644
2.597e-06
4.566e-07
0.0001554
0.0001918
0.0001467
0.002394
5.989e-09
0.0001419
0.0001605
1.498e-06
4.618e-05
1.08e-07
0.0001479
0.01523
4.459e-05
0.0001459
1.324e-06
0.0001416
5.707e-05
1.271e-06
4.36e-05
0.0009679
3.799e-08
0.0001463
1.774e-05
0.0001526
6.799e-07
0.0008551
5.385e-07
4.57e-06
0.0001546
0.0001655
0.0001636
7.948e-10
0.0001458
0.02298
3.805e-06
8.945e-06
0.001804
1.488e-08
0.0001878
0.0002043
0.0001018
8.731e-08
8.738e-10
5.15e-05
4.269e-10
1.208e-05
1.565e-10
0.0002776
3.196e-05
0.03544
5.741e-09
0.0001475
2.748e-05
0.0001336
0.0001322
0.001782
0.0001497
0.0001843
0.03793
0.0001657
0.0001505
0.0001551
3.919e-05
2.854e-05
0.0001462
0.04705
0.00169
0.000155
1.115e-05
1.332e-08
0.01307
8.879e-05
2.932e-05
0.01025
0.0001846
0.000145
0.0004913
5.412e-06
0.0001484
1.95e-05
0.0008125
0.01713
0.0001379
0.006328
0.05818
5.538e-10
0.0001643
1.261e-08
0.005145
0.0001088
3.642e-05
6.972e-06
2.582e-06
0.00013
4.722e-07
0.0001532
0.0001311
0.0001744
6.705e-08
0.04898
2.893e-06
8.124e-05
0.0001375
2.876e-06
9.24e-11
5.887e-06
0.000147
0.0001461
8.656e-05
0.0001746
0.0005412
1.81e-05
0.0001965
5.095e-07
0.003206
0.0001522
4.442e-07
0.0001536
1.575e-08
0.0001445
0.007467
0.0001379
0.003852
0.0001395
0.003574
0.0001457
0.0001459
3.819e-05
0.000155
0.0008527
6.971e-06
0.0001488
0.01462
0.002529
2.334e-05
7.813e-06
8.088e-10
0.001332
1.511e-06
1.673e-05
7.701e-05
0.013
0.0001953
0.0002874
6.522e-05
2.131e-07
0.003317
0.0001441
0.0001429
0.006781
0.00757
0.0001647
0.0001393
0.0001297
0.003567
0.0001623
0.0001617
0.004569
5.17e-05
0.0001574
0.000149
0.0001609
0.0001633
8.062e-08
3.374e-07
0.004957
0.0001538
0.0282
5.905e-06
6.959e-06
6.543e-05
0.01872
9.184e-05
2.195e-05
0.001171
4.259e-07
0.0001489
1.275e-07
6.528e-06
0.0167
0.0002731
2.376e-05
0.0001456
8.191e-09
9.683e-10
0.0001362
0.0001441
0.0003495
0.002042
3.313e-08
0.001614
2.886e-05
7.837e-06
4.315e-05
0.0001625
0.0001647
0.0001478
2.59e-05
0.02272
0.0001089
0.0001489
3.031e-05
0.002519
0.0001502
1.046e-09
0.002344
0.0001453
3.516e-05
0.0001413
0.0001447
6.59e-05
0.0001545
1.661e-09
0.0001442
1.411e-06
0.000146
8.012e-05
0.0001542
0.04848
9.623e-05
2.196e-06
4.218e-06
2.031e-05
5.577e-05
0.0001982
0.0001554
0.003765
1.375e-05
0.0002877
5.247e-05
2.511e-08
2.429e-05
7.363e-09
0.0001932
5.966e-06
1.47e-06
3.903e-06
9.758e-08
0.0001516
0.03716
0.0001705
2.165e-05
0.003468
3.704e-07
0.0001787
1.884e-05
0.007541
3.762e-05
3.505e-05
0.000462
0.0001573
4.349e-06
0.01558
3.798e-05
0.001177
1.85e-06
0.0008103
0.0001371
6.773e-05
2.051e-05
0.0001459
7.855e-05
1.628e-06
0.000138
0.0001578
0.001246
0.0001536
0.0001516
0.01134
0.005317
0.0001581
0.0001318
0.0001022
0.0001098
0.0001449
0.0001514
0.0001503
0.003632
6.728e-05
9.834e-05
0.0001546
0.0001341
2.651e-07
2.306e-06
7.237e-06
0.007449
5.637e-09
0.0001996
1.771e-05
0.0001456
0.001491
0.0001719
9.411e-05
3.451e-05
0.0001762
1.24e-07
0.0001471
4.903e-09
4.994e-06
8.095e-06
5.293e-05
7.524e-06
0.01399
0.04514
2.202e-07
3.944e-05
0.0001501
7.43e-12
0.005369
6.717e-06
8.39e-07
1.324e-05
6.021e-05
0.006152
3.944e-06
3.146e-05
0.0005325
0.0008883
3.045e-06
5.036e-06
0.04752
1.036e-08
0.0001589
2.535e-05
0.0001567
1.451e-06
0.0001309
0.0001448
0.005805
3.885e-09
0.006025
0.002351
5.549e-09
5.173e-05
0.0001458
2.067e-07
2.947e-05
0.001817
1.168e-07
0.0001651
0.001936
1.764e-10
0.04756
9.777e-07
0.008427
3.834e-05
7.635e-08
5.789e-06
5.647e-07
0.0001572
3.228e-05
0.0001581
0.05251
0.0001319
0.0002487
0.0001185
3.467e-05
0.01775
4.595e-06
0.01179
0.0001623
0.01753
0.0001531
0.0001579
8.595e-05
1.016e-08
0.0001505
2.199e-08
1.977e-06
0.0009283
0.001015
0.0001459
0.01146
0.0003363
0.0001606
4.023e-06
1.222e-06
3.556e-07
0.0001427
3.801e-06
0.0001013
0.001296
1.286e-09
0.0001411
0.02983
0.0001037
0.0001463
9.231e-05
0.0008612
7.645e-08
0.0001258
0.0001613
0.00615
0.0001453
7.186e-11
1.329e-09
0.003139
0.0001655
0.0001272
0.0001354
0.0001315
0.0005185
0.01738
0.02274
0.0001536
0.0001539
0.0001561
0.0001608
0.001597
0.02491
4.894e-06
8.164e-06
8.238e-10
0.0001665
4.361e-07
0.001834
0.0001115
0.0001317
2.318e-06
0.008049
4.545e-05
7.195e-10
0.001119
0.01704
0.0004307
5.376e-05
0.001794
1.037e-09
0.05982
0.0009075
0.01625
0.01657
0.0001062
9.921e-06
7.293e-10
0.0001546
0.0002269
0.0001413
6.49e-06
2.708e-05
0.0001354
2.313e-05
5.638e-05
0.00137
3.257e-06
0.0001428
0.0001652
6.918e-11
0.0001456
1.147e-05
2.071e-05
3.72e-05
6.772e-07
0.0001656
0.0001116
0.0002539
2.099e-07
0.00075
5.941e-05
0.0001507
3.487e-05
2.814e-06
2.752e-06
3.885e-05
0.0006493
0.0001451
2.849e-05
0.02934
6.147e-07
0.0001427
0.01617
0.0006357
0.0001452
0.0001391
0.0001594
0.0001456
0.01834
0.0001377
3.552e-06
0.01898
5.955e-09
0.000434
0.001206
4.72e-06
0.001438
1.685e-05
5.866e-06
1.377e-10
0.000562
0.0001749
0.002459
0.002475
0.01187
0.0001482
0.005035
0.0001466
0.008389
0.0001474
0.01978
0.0001435
1.951e-05
0.001571
0.0001379
0.0001445
0.001128
0.000157
8.128e-06
0.0001544
0.0001339
0.0001628
0.001535
0.0001499
2.733e-09
1.145e-06
6.057e-08
1.533e-05
5.757e-05
6.251e-06
1.549e-05
0.01038
0.0002169
6.146e-08
0.01525
1.134e-05
3.283e-06
0.0003699
0.0003095
0.02598
0.0001441
1.248e-10
0.0008673
2.346e-07
0.0001458
8.036e-10
2.06e-05
4.8e-06
0.001871
0.000131
0.0001308
0.01254
0.05812
0.01307
0.01258
4.356e-05
0.0001661
0.0001563
0.006453
0.0001213
4.512e-07
0.0001233
0.0001893
0.00262
0.0001052
9.757e-07
1.235e-05
3.517e-05
5.095e-06
0.005405
0.0001463
0.003892
0.002176
1.321e-08
0.001348
0.0001537
4.419e-05
0.002992
2.1e-05
0.006905
3.505e-07
0.05716
0.0001455
0.008806
7.927e-05
6.041e-10
4.652e-07
0.0001646
0.0006252
6.204e-06
0.0001575
0.0001305
4.319e-05
3.357e-05
3.741e-10
0.0001516
1.492e-08
0.002327
0.0001439
6.706e-06
8.785e-05
0.01214
0.0001517
0.006055
0.000251
4.504e-05
5.243e-05
0.0292
2.748e-06
0.0001523
2.677e-05
5.343e-06
1.258e-06
0.0001778
0.0001772
3.413e-06
0.0001742
1.157e-09
0.0001367
7.644e-07
6.773e-07
1.183e-10
0.003555
0.00024
0.0001491
0.0001457
0.0001437
0.01075
0.0001431
1.503e-09
0.0001454
3.645e-07
0.0001576
0.0001209
9.048e-05
1.557e-06
0.0002322
4.188e-07
0.0001586
0.0001351
0.004231
9.329e-08
0.0001448
0.0001369
2.723e-05
0.005193
3.356e-05
0.0001318
0.002797
4.261e-05
2.579e-05
0.0001538
0.0001372
2.167e-06
0.0001835
0.0001329
0.0001593
1.048e-05
0.0001372
1.471e-07
0.0001462
0.001075
0.0005917
0.007619
0.0001935
0.0001392
0.006086
1.44e-05
0.006545
0.0001515
8.03e-05
0.0001546
0.0001454
0.0001417
0.0004516
2.42e-09
8.412e-05
3.342e-05
0.0001493
9.356e-08
0.0001636
0.0001528
0.0001723
0.0001694
0.0002038
1.894e-06
0.00015
2.06e-05
0.0001468
0.0005183
0.0001486
0.0001522
3.209e-05
0.01225
0.0001615
1.224e-06
0.0001281
0.0001415
0.001727
2.025e-07
6.646e-05
8.393e-10
4.769e-07
0.0224
0.000153
0.0001701
5.153e-07
0.001158
2.109e-05
3.069e-06
0.0002036
0.0001545
0.0001444
2.199e-05
1.407e-05
0.0001119
0.0001459
0.0003197
0.0001456
0.0001632
0.0002148
0.000143
0.0253
0.0001669
0.0001062
0.006266
0.002212
5.089e-06
0.0001466
6.418e-06
5.136e-07
0.0001328
0.0273
1.538e-05
0.0001581
0.0007111
0.008022
2.824e-06
6.513e-05
0.006071
1.237e-06
0.0003777
1.947e-05
1.159e-06
0.0001571
0.0001537
5.115e-05
0.0001518
8.931e-06
0.002987
0.0001515
3.84e-05
0.0001483
0.0007525
3.362e-05
0.05771
0.0002905
0.0006744
9.483e-10
0.001786
9.921e-09
0.0001575
0.0001376
1.025e-08
2.136e-05
0.0001573
4.41e-06
0.000151
0.00286
0.0001491
0.01282
2.058e-08
0.007399
0.0001669
4.062e-05
2.043e-05
0.0001464
4.41e-05
0.0001533
0.0001654
6.944e-07
0.0001493
3.614e-05
2.105e-07
0.0001444
0.0001488
0.006183
0.000194
0.0002653
0.0001559
0.000162
0.0001364
0.0001626
0.0157
0.0002225
0.0001586
0.0002578
0.0001372
0.0001539
3.338e-06
9.18e-09
0.0001397
0.0001515
1.768e-08
0.02708
3.276e-06
0.01421
1.897e-05
8.472e-09
0.0001712
0.0002705
0.003876
0.0001508
3.007e-06
0.0001647
0.01219
7.595e-08
6.888e-05
0.0001489
6.204e-06
5.225e-11
5.306e-10
0.005112
0.003247
8.926e-05
0.0001557
0.01182
7.861e-05
0.01301
6.03e-06
0.0006926
0.001243
2.636e-05
8.659e-08
0.00281
0.0001428
0.0001453
5.142e-05
0.0001385
0.00139
0.0001524
0.0001511
2.2e-05
0.005021
0.03051
0.0001358
4.336e-06
4.893e-07
0.00309
9.027e-06
0.00557
9.199e-10
7.958e-06
0.0001492
6.997e-05
3.94e-06
0.002544
2.774e-05
4.271e-10
0.0001282
1.496e-07
2.162e-05
1.788e-05
0.0001349
0.007388
0.01339
8.012e-07
2.563e-05
0.02045
3.967e-07
0.0001565
0.0001722
1.316e-05
0.0001532
0.01898
0.0001454
2.616e-06
1.409e-06
2.194e-05
4.074e-07
8.332e-07
0.008984
7.717e-09
0.0002637
5.919e-05
0.0001505
0.01969
0.0001512
0.03804
6.199e-05
0.0127
2.866e-05
0.0001952
3.159e-05
9.971e-11
2.023e-08
0.001968
0.002683
0.0001641
0.0001598
0.0001461
0.0001489
5.273e-05
0.0001635
0.000145
4.021e-05
2.574e-05
7.745e-06
0.001042
9.526e-05
1.764e-05
0.00594
2.597e-05
7.584e-09
6.586e-07
0.0001563
3.121e-05
1.208e-10
0.01228
1.978e-05
0.04077
7.568e-05
0.0002242
1.293e-11
8.418e-05
7.524e-05
0.0001493
0.0001559
1.889e-05
0.001535
0.0001455
0.000147
0.007532
4.003e-07
0.01808
2.824e-05
4.36e-09
0.0001887
0.0001493
6.111e-07
0.01904
0.001565
9.912e-08
0.0001606
0.02664
0.0008403
0.0003846
0.0001598
0.0001423
0.0001465
0.0001093
0.02395
6.458e-07
0.06054
1.035e-05
3.066e-07
0.0001494
5.623e-07
0.006581
6.291e-06
2.226e-05
3.15e-05
0.0001514
0.01118
0.001332
0.002576
9.678e-06
0.001512
4.558e-06
2.997e-05
0.0001451
0.00147
0.04149
1.123e-06
4.135e-05
0.0005825
0.01354
0.0001536
1.364e-07
0.0001613
0.00119
0.01454
0.004553
0.01905
0.004058
0.0001675
8.109e-09
0.0001624
0.0001487
1.74e-05
0.0001395
0.01223
0.0001498
0.0001565
0.01095
0.0001439
0.0001641
1.223e-05
4.213e-05
0.0001456
0.0001483
0.02047
6.9e-05
1.061e-05
0.0001957
0.002428
0.006234
1.326e-06
2.361e-06
0.05867
0.0001027
0.003005
0.0001591
3.125e-05
2.031e-09
0.0161
3.468e-06
3.548e-06
0.01357
9.661e-10
0.0001454
0.0001372
0.0001658
0.0001226
9.119e-11
0.0001459
0.01554
1.319e-05
2.264e-09
2.315e-05
1.892e-06
0.0001247
0.0001243
3.97e-06
0.0001651
0.007248
0.0001371
0.0001499
0.04114
0.0001425
0.000149
5.794e-07
1.966e-05
3.669e-05
0.01019
7.781e-08
0.004371
0.0001613
0.0001319
8.053e-05
1.95e-05
9.89e-07
5.387e-06
0.0003998
3.415e-07
0.000218
0.0003717
3.114e-05
2.173e-05
0.0002951
0.0001543
0.0001078
1.396e-06
0.0001342
0.000132
5.294e-05
0.0008822
2.095e-08
0.000165
6.071e-06
7.834e-05
0.0003576
0.0001454
0.0001693
0.0001482
0.002264
5.729e-09
0.0001869
0.0001567
4.521e-05
0.0001526
1.848e-07
4.461e-05
0.0001942
7.501e-05
8.603e-05
3.316e-05
0.01126
5.27e-05
0.0002804
0.0003291
0.001003
0.002084
7.06e-05
0.009762
1.248e-06
2.647e-05
0.0007084
0.002135
2.01e-06
0.002246
0.000209
2.566e-05
0.0001578
0.0001673
7.7e-05
7.932e-09
0.0001646
2.119e-05
0.0001471
0.01433
0.0001484
2.131e-05
0.01892
7.404e-09
8.332e-05
0.0001529
1.987e-06
7.217e-10
3.63e-07
0.001378
4.387e-05
6.969e-07
7.404e-08
0.0005881
0.01078
6.514e-05
1.317e-10
0.0002911
0.00145
0.0001682
0.0001608
0.0001455
0.003858
3.99e-06
0.0001112
0.0001591
0.01977
0.0001539
4.568e-08
0.000131
0.00393
0.0001643
0.02173
2.464e-06
0.0001644
0.0001541
0.02175
0.0001505
2.112e-05
6.397e-05
4.269e-09
2.747e-05
0.0001644
0.0001429
0.003409
0.000755
3.365e-06
9.562e-06
6.099e-05
0.02356
0.0001986
0.0001454
8.298e-06
6.57e-06
0.0001748
0.000136
0.001928
1.618e-07
1.127e-06
9.374e-06
0.0001706
0.0001598
0.0001557
3.32e-06
0.03799
0.0001536
1.014e-08
0.0001828
0.001106
0.0001455
0.0001473
0.0001557
0.0001462
3.832e-05
4.974e-05
0.003432
0.003775
1.174e-06
9.623e-08
0.0003044
1.494e-05
0.0002874
0.01815
5.215e-09
0.001892
0.000424
0.005387
1.229e-08
0.009975
5.443e-07
1.725e-08
0.0001489
5.623e-06
1.269e-06
0.0001179
0.007327
9.978e-06
8.783e-05
3.179e-06
0.003379
0.001595
0.0001491
0.03109
0.0001478
0.000166
0.007597
0.0004416
0.0001158
0.0004973
4.709e-09
0.006881
0.0001464
2.355e-05
0.001336
0.03584
5.263e-05
0.001161
0.000188
1.713e-06
1.119e-06
1.172e-08
0.0001327
1.186e-05
0.0001747
0.0004947
0.0002191
0.0001516
1.133e-08
1.765e-05
3.846e-05
0.0001656
0.000144
4.065e-05
2.097e-05
0.01186
0.0001205
1.12e-08
4.925e-06
8.386e-05
0.01446
0.0005189
3.943e-06
0.0001447
2.275e-05
0.01479
0.0001512
7.533e-05
4.77e-06
0.0001452
7.14e-05
0.007237
0.0001067
1.236e-07
0.0001265
0.0002105
9.289e-11
0.001916
1.264e-05
0.0001311
0.0001302
1.503e-05
0.003174
0.0001588
2.174e-06
3.12e-05
0.0001438
1.294e-07
1.094e-06
0.001025
0.0001456
0.0001464
0.0006397
0.0003994
1.38e-05
1.663e-10
2.848e-06
0.0001523
1.934e-06
9.558e-08
0.0001543
2.632e-06
7.343e-06
0.0002677
0.0001597
2.92e-06
0.04826
0.009002
0.0001302
0.0001284
0.0001287
0.0001264
0.0001585
0.01469
7.643e-05
6.533e-06
9.718e-05
0.0006909
0.002045
1.501e-07
0.0001272
0.000368
0.003521
4.158e-05
9.211e-07
1.996e-05
0.002565
4.637e-05
6.917e-06
0.001415
2.444e-05
0.0001611
3.599e-05
8.442e-10
1.764e-05
4.87e-08
0.0001529
4.91e-05
0.0001454
1.127e-08
0.0005191
7.483e-06
9.323e-05
0.0001503
6.674e-09
0.0001458
0.002465
1.926e-06
0.0001725
9.655e-05
0.0007146
0.006354
0.002699
2.215e-06
0.0001511
1.191e-05
0.0001369
0.0001737
0.0005115
0.0001475
0.009612
6.759e-05
0.0001436
0.0001455
0.0001557
0.0004261
5.626e-06
0.0001692
0.005204
2.642e-05
0.0001308
2.947e-06
6.227e-06
0.02323
0.01799
0.01541
0.0009588
0.0001614
6.566e-10
0.0001523
0.0001454
7.799e-08
0.0001453
0.0001448
0.0001588
0.0002626
9.039e-07
0.006325
4.384e-07
0.004171
7.226e-06
0.0001464
0.0001576
0.000565
1.562e-05
0.01651
0.0001869
0.0001574
2.721e-07
4.09e-08
0.0001483
6.688e-09
5.085e-08
9.531e-11
0.0001976
0.02476
0.01012
0.0001547
0.0001483
0.02791
0.0001135
1.32e-07
0.0001511
1.586e-06
3.547e-09
0.0001455
5.148e-06
2.384e-07
3.3e-05
0.0001458
1.201e-06
2.645e-08
4.082e-10
1.016e-09
0.000164
0.001398
1.44e-09
0.0001564
0.0005373
0.000144
0.00571
5.63e-07
0.02511
2.506e-05
1.068e-09
0.0001587
0.004691
5.91e-05
0.0001492
0.0001529
3.328e-06
4.36e-06
0.0353
7.522e-06
0.0001128
0.0001498
0.01109
0.001378
0.0005
0.00136
0.0001455
0.0005903
0.0005799
1.569e-05
3.783e-05
4.112e-05
3.344e-06
0.0001054
1.012e-08
8.371e-11
6.696e-12
2.593e-06
0.0001538
3.83e-06
0.0001487
6.835e-07
1.654e-06
0.0001456
2.594e-09
0.0001489
0.0001502
4.041e-08
1.921e-07
0.00443
0.0001598
0.0001328
2.949e-05
0.0001301
1.066e-09
0.0001767
0.0001638
0.01163
0.002363
1.151e-08
9.051e-09
1.005e-08
0.01069
5.064e-06
1.781e-05
0.005608
0.0001516
3.975e-05
6.215e-09
0.0001392
0.001517
4.742e-05
0.001885
5.636e-05
0.009684
0.03234
5.985e-08
2.831e-05
2.637e-05
1.442e-08
0.000183
1.48e-07
0.0001524
4.863e-05
0.0002267
0.0001485
0.0001546
5.364e-05
6.328e-06
1.884e-05
1.069e-08
0.0001591
0.0001455
0.0001069
1.284e-05
1.062e-07
0.005968
0.02346
0.000126
0.0001509
7.372e-07
0.0001265
3.722e-05
7.851e-06
0.000154
0.0001725
0.007634
1.052e-07
6.744e-09
6.972e-10
0.0001503
1.836e-06
0.001245
5.389e-05
0.03051
0.0172
4.451e-08
0.01136
1.474e-06
1.079e-05
2.126e-06
2.083e-05
0.0001582
8.878e-09
0.01556
4.622e-05
0.001462
0.0001598
4.851e-05
0.0001608
0.000146
6.534e-05
0.0001567
0.0006608
9.385e-05
5.929e-05
1.146e-08
5.043e-10
0.02093
1.1e-08
0.0006039
0.0001596
0.0001502
0.0001541
8.094e-05
0.0001489
2.41e-05
5.286e-09
5.272e-05
5.335e-07
0.04548
0.003749
2.61e-05
0.0004222
0.01026
2.575e-06
0.01798
9.741e-08
7.691e-05
0.000136
0.001436
4.595e-05
0.0001477
0.0001552
2.757e-07
0.0001463
5.555e-06
9.818e-05
1.197e-05
0.0001107
1.104e-07
0.0002354
0.0198
0.0001504
2.221e-06
1.656e-05
5.188e-06
4.64e-05
0.0001432
1.029e-05
0.0001442
0.0001676
0.0001562
0.03294
7.418e-10
0.0001252
1.876e-06
0.0227
1.339e-06
0.0001601
0.0004749
0.003783
4.684e-05
0.000139
0.0001182
0.0001463
1.182e-06
2.703e-06
0.0001116
0.001199
0.0001427
1.219e-05
5.351e-06
2.065e-05
5.892e-06
8.837e-06
3.472e-05
0.0001476
0.00341
0.0001252
0.000151
2.384e-05
6.7e-05
0.0001559
0.0001638
0.0001569
0.0001426
2.812e-05
0.000137
0.000135
0.0001467
0.0001536
0.0001518
6.036e-05
2.062e-05
0.0001458
1.366e-05
0.0001405
2.526e-05
0.0001469
0.0001176
0.0001519
2.61e-07
0.0002506
1.088e-09
0.001326
2.051e-07
0.0001504
0.0001589
7.773e-09
0.0001502
2.623e-05
2.205e-05
1.584e-05
7.098e-05
0.0002257
0.000146
2.202e-05
0.0001645
0.0003189
0.001646
0.0005688
8.966e-05
0.003587
4.181e-05
1.119e-05
0.0001437
0.005569
5.19e-05
9.417e-08
0.0001516
0.0001481
2.096e-06
1.526e-06
0.003874
0.003802
7.598e-05
5.842e-06
0.0001535
6.644e-05
0.0004944
0.01893
0.002054
0.001067
0.0001359
0.0001789
9.705e-10
0.02334
0.002305
1.821e-08
0.0001693
0.0001151
0.0001449
0.0001499
0.0001605
0.0001585
4.976e-08
0.0002173
0.000147
0.0001472
4.288e-05
6.158e-11
0.0001469
0.006301
1.66e-06
2.687e-05
0.0001312
4.116e-05
1.601e-05
0.0001579
0.0001846
1.524e-06
1.229e-07
1.175e-06
0.000146
0.0008601
0.003714
0.0003174
0.0001429
0.0001686
0.0001757
0.0116
0.0001032
4.024e-09
2.596e-07
0.0577
1.337e-05
9.166e-08
0.0198
8.839e-06
0.005852
0.000165
0.000162
5.265e-07
5.05e-09
0.0001443
3.308e-06
3.768e-05
0.0001469
2.028e-07
0.005787
0.000171
0.0001553
0.001085
1.723e-06
7.234e-05
7.367e-05
0.0001454
0.0001457
0.05066
0.002209
0.0001337
0.0001443
0.0001488
1.602e-06
0.02528
0.005898
3.93e-06
2.867e-07
0.0469
0.0002568
0.0001428
6.688e-09
0.0001692
1.228e-05
3.186e-06
0.0001537
1.411e-05
0.0001317
5.117e-05
1.379e-09
0.02574
8.4e-09
0.0001384
0.000142
0.002362
0.0001514
0.000143
1.127e-09
1.804e-05
1.274e-05
2.222e-06
0.0001489
0.001503
0.0001354
9.511e-10
0.000156
4.02e-05
0.0001349
0.0001522
0.004706
0.003546
0.000997
0.001262
0.02205
0.0001214
0.0001362
0.0009115
9.379e-06
5.075e-06
1.249e-08
0.0001608
0.01075
7.251e-05
0.0001471
0.0001948
4.354e-05
0.0002212
0.0001537
0.005779
5.704e-09
0.0001304
0.0001437
6.829e-05
2.644e-05
0.01884
4.341e-06
0.0001478
9.918e-06
0.0002704
3.58e-05
0.000148
0.0001531
9.734e-07
1.946e-05
2.467e-06
0.003387
0.0001806
0.0001365
4.873e-06
0.0001401
6.502e-06
1.01e-09
0.0001598
0.002086
0.01041
2.456e-05
3.916e-07
0.0001342
0.0001524
0.0001363
0.0003969
0.0001582
0.0001447
1.161e-05
9.47e-05
0.01841
0.000136
0.0001551
0.0001543
0.0001491
1.739e-05
0.0008699
0.0001455
5.087e-05
4.061e-05
0.0001381
0.0001502
0.0001467
0.0001447
0.000158
0.001923
0.04044
2.224e-06
1.103e-09
7.562e-09
4.152e-05
7.472e-08
1.835e-07
0.0001481
1.386e-09
0.0002312
5.309e-06
0.02248
0.0001556
0.0001615
9.963e-06
2.396e-06
5.183e-07
6.388e-05
0.0001564
0.00248
1.394e-05
4.145e-05
0.0001563
0.0001645
0.001106
0.0001539
1.3e-05
0.0001465
0.001548
8.962e-05
0.00014
0.0001526
1.921e-06
7.943e-10
1.192e-07
0.0001373
6.924e-07
0.001345
0.0001327
0.00012
0.000146
7.363e-06
0.0003406
0.0003138
2.961e-06
2.873e-05
0.0001495
0.0001667
0.02512
2.313e-08
0.0001469
0.0001527
1.379e-08
0.0001061
0.0001443
1.903e-07
0.005686
0.0001527
0.0001525
0.03331
2.05e-05
1.361e-09
2.386e-06
0.0002065
0.01436
0.0004501
0.0001549
0.0001451
0.0001536
1.272e-05
3.854e-05
0.000333
0.0001479
1.453e-08
1.463e-05
6.397e-05
0.002443
0.001652
0.0001027
0.0001342
0.0001558
2.775e-05
0.0001525
0.0001506
2.813e-05
2.526e-06
0.02385
0.0001672
0.0001755
0.01414
0.0001506
0.01912
6.197e-05
0.0001375
8.66e-05
0.0001477
5.248e-06
0.0003915
0.00469
0.0001156
0.0001163
8.45e-06
0.0006465
4.283e-11
0.01349
0.0001577
0.0004635
0.0001414
0.0001
6.634e-05
1.365e-07
2.306e-07
0.0003342
5.065e-06
1.514e-06
0.001111
0.0001586
0.0002249
2.962e-06
2.859e-08
0.0006583
0.0001516
5.779e-07
0.0001661
5.419e-07
7.498e-05
0.01261
0.01463
1.348e-05
0.0001459
0.001439
0.0001676
0.0001448
0.0003237
5.426e-07
0.003008
2.42e-09
3.178e-06
0.0001739
0.0001448
0.001892
9.452e-05
0.0001618
0.001468
0.0003453
4.482e-05
0.0002285
5.207e-06
0.0001465
2.899e-05
0.000138
0.0001163
3.501e-05
5.527e-05
0.0001186
2.567e-06
1.413e-09
0.000142
0.0001455
5.45e-05
3.722e-05
7.141e-07
0.0001466
4.513e-05
1.657e-06
0.01945
0.01488
0.0001458
8.606e-05
2.643e-07
0.0001516
0.004785
0.0001442
4.289e-05
0.0001517
0.0002958
4.971e-06
0.000333
0.0006314
9.555e-06
0.0001785
0.0001497
4.275e-05
5.44e-05
0.000168
0.0001435
0.0001483
5.322e-06
1.924e-05
6.608e-05
0.0291
0.0007621
0.05124
2.152e-05
7.265e-05
0.0001281
0.0001524
0.0001577
2.856e-10
1.642e-07
3.053e-06
0.0001426
2.477e-06
3.136e-05
4.066e-05
4.028e-05
6.228e-09
0.0001604
0.001274
3.265e-05
4.347e-05
1.801e-06
1.121e-07
0.06182
0.0002009
0.03742
0.0001499
1.35e-10
0.000147
0.01936
3.305e-06
5.895e-05
0.01501
4.991e-05
0.0005973
5.82e-07
0.00873
0.0001107
0.004959
0.0001059
5.31e-06
2.78e-10
0.006713
6.335e-09
1.274e-08
0.0001455
5.727e-09
0.0001502
9.211e-07
7.9e-07
0.000776
0.0463
0.0006733
4.3e-05
8.437e-05
0.0001504
0.006139
0.00781
0.00595
0.01306
0.0009442
0.0001573
0.0001371
0.04376
6.757e-09
0.0006187
6.99e-06
3.904e-05
2.242e-06
0.0001348
8.604e-06
0.0004428
5.684e-07
0.009016
6.609e-09
3.17e-05
8.791e-06
0.0001543
8.56e-08
0.0001531
0.004025
0.001761
0.0001582
0.0001618
0.003384
6.602e-05
0.003531
0.0002938
7.195e-05
1.914e-05
0.005169
7.051e-09
6.997e-05
5.349e-08
0.0001502
0.01824
0.0008403
0.01756
0.0001524
5.614e-05
0.0001454
0.0001466
0.0001454
0.003268
2.578e-05
0.0004079
0.02591
0.0001512
0.006862
0.0001508
6.395e-09
3.002e-07
7.08e-09
1.366e-05
0.0001532
1.305e-06
9.69e-06
0.0001576
7.701e-06
0.0001464
0.002694
0.02443
0.0001609
0.0438
0.0001422
0.0001428
0.0001861
0.01681
0.0001515
1.174e-09
2.37e-05
0.0001398
0.0001459
5.178e-05
0.0001512
4.768e-06
2.107e-08
0.0001555
0.0001416
0.0001178
3.908e-05
2.343e-06
1.154e-09
0.0001544
0.0001614
6.11e-05
8.574e-06
0.0001529
2.549e-05
8.244e-05
0.0001668
1.895e-06
0.0004988
1.408e-09
0.0001512
4.489e-05
4.667e-05
4.655e-06
0.0001462
0.00387
0.0001456
0.01244
0.02879
6.95e-05
0.0009679
9.748e-06
0.0001945
0.0001604
4.183e-07
8.154e-06
1.294e-05
2.48e-06
1.24e-06
0.001229
0.0001623
4.433e-05
2.752e-05
0.01177
9.52e-06
0.0001386
7.292e-09
8.156e-09
3.651e-07
6.311e-05
0.0001094
6.693e-07
3.123e-06