/*--------------------------------*- C++ -*----------------------------------*\
  =========                 |
  \\      /  F ield         | OpenFOAM: The Open Source CFD Toolbox
   \\    /   O peration     | Website:  https://openfoam.org
    \\  /    A nd           | Version:  8
     \\/     M anipulation  |
\*---------------------------------------------------------------------------*/
FoamFile
{
    version     2.0;
    format      ascii;
    class       volScalarField;
    location    "40";
    object      nut;
}
// * * * * * * * * * * * * * * * * * * * * * * * * * * * * * * * * * * * * * //

dimensions      [0 2 -1 0 0 0 0];

internalField   nonuniform List<scalar> 
127143
(
6.596e-23
3.01e-22
1.874e-21
2.245e-20
2.359e-19
2.341e-20
1.269e-17
1.781e-18
5.321e-19
2.625e-18
2.118e-17
1.679e-18
1.125e-20
4.572e-20
1.047e-08
5.116e-16
8.026e-20
0.004961
0.003388
1.094e-13
0.0001352
3.043e-13
6.646e-05
1.61e-08
2.55e-13
2.845e-11
1.299e-13
1.359e-13
7.166e-12
0.004664
2.331e-09
2.435e-11
1.489e-12
3.127e-10
4.998e-05
1.5e-12
2.249e-05
0.0001571
4.742e-08
9.465e-12
0.003401
4.03e-06
4.371e-06
5.929e-19
0.004971
4.992e-10
7.931e-12
0.0003561
1.952e-08
3.221e-08
1.9e-15
0.0004507
2.234e-05
4.363e-05
0.006671
2.438e-09
0.006671
9.084e-05
0.00546
4.246e-05
3.948e-06
0.001704
4.169e-07
0.006702
5.855e-10
2.191e-05
6.143e-05
3.539e-07
3.631e-07
0.002504
8.74e-09
4.226e-13
0.002287
0.004806
0.006693
4.167e-13
0.0007734
3.297e-05
2.546e-09
0.006705
5.675e-12
1.182e-13
8.898e-09
3.74e-11
0.001325
6.294e-05
1.046e-07
1.038e-12
2.24e-05
3.173e-08
0.00665
6.841e-05
1.106e-07
0.0001396
1.996e-06
0.0001181
4.377e-06
5.398e-10
0.0001279
5.365e-05
0.006705
2.451e-08
1.341e-09
8.928e-06
7.502e-05
0.0001131
2.419e-07
0.002504
8.767e-06
0.00668
1.696e-08
7.547e-13
2.509e-05
7.596e-07
0.006694
2.876e-05
0.0005613
0.006693
0.0008311
5.563e-15
0.006681
1.129e-08
5.244e-07
0.0001113
6.995e-12
3.7e-12
0.0008707
0.0009439
5.197e-07
1.676e-09
6.353e-06
1.881e-06
7.108e-07
3.609e-05
2.28e-17
7.492e-06
0.0001966
0.0003197
2.349e-11
0.0001598
5.178e-05
0.0009627
7.75e-05
0.0004127
2.356e-05
1.341e-06
6.188e-12
0.006702
1.489e-06
3.56e-10
3.748e-06
3.057e-08
9.341e-05
2.798e-05
4.221e-07
0.001367
7.255e-05
1.036e-09
0.000379
3.345e-10
1.016e-08
1.269e-15
0.006646
6.545e-06
7.891e-11
1.269e-09
7.989e-06
8.277e-06
8.592e-10
0.0001871
2.762e-08
0.0004185
1.685e-05
1.499e-06
0.002221
0.0001039
2.545e-06
5.472e-07
3.212e-08
0.002046
1.522e-06
0.0007707
0.0001428
0.0001111
2.064e-09
0.001799
1.269e-05
7.953e-07
2.502e-08
0.0008126
1.309e-05
8.603e-07
0.0002069
5.942e-07
6.641e-18
0.0009281
0.006652
0.006631
1.491e-15
0.002727
0.006698
0.0001962
0.00104
3.234e-05
5.425e-19
1.718e-07
0.0001272
1.782e-06
0.003923
0.006694
0.0001045
0.0009106
0.006692
9.994e-10
1.21e-06
3.608e-16
1.025e-09
1.713e-06
1.074e-05
0.0001254
2.83e-06
0.006694
2.771e-08
1.913e-05
1.671e-10
1.659e-08
2.917e-10
0.0001476
2.289e-07
0.0003941
0.0001046
0.000954
0.002425
9.001e-14
0.0001098
0.0001061
6.491e-06
1.241e-20
0.005994
2.92e-05
1.081e-06
1.639e-09
0.0002723
1.193e-09
1.465e-05
8.343e-15
8.809e-08
1.219e-13
5.801e-15
0.002536
6.159e-06
4.925e-11
1.195e-06
0.0002702
1.015e-08
7.762e-06
0.001127
2.933e-09
6.436e-06
1.494e-05
0.0009064
0.0009473
4.661e-05
0.0009275
4.436e-06
1.237e-09
1.31e-07
1.215e-07
5.036e-06
3.486e-06
2.616e-10
0.002218
0.000672
2.71e-05
6.564e-07
1.539e-05
2.725e-05
5.023e-08
0.002191
1.07e-05
0.002982
0.000179
9.221e-06
0.006691
0.006694
6.651e-18
4.665e-06
0.006695
4.327e-08
0.002097
9.578e-05
4.567e-05
0.0001067
1.026e-05
0.006702
7.286e-06
3.861e-09
3.544e-06
0.0002699
4.039e-06
7.905e-10
3.286e-05
1.385e-05
3.622e-05
1.077e-10
1.094e-06
1.823e-06
0.006693
0.002226
1.597e-06
1.863e-07
6.351e-08
1.37e-09
0.003369
0.006692
8.532e-08
0.0001443
6.455e-10
0.0001055
0.002419
8.386e-05
5.165e-09
0.0003944
1.175e-06
7.674e-08
7.232e-05
0.0001072
2.374e-05
7.978e-09
2.283e-06
0.000922
0.006694
5.495e-05
0.006652
0.006631
3.088e-05
9.343e-06
1.699e-05
0.0009196
2.678e-06
0.0001827
1.7e-06
3.549e-05
1.829e-05
1.161e-06
4.02e-08
8.281e-08
8.313e-06
1.227e-09
1.265e-07
1.881e-09
0.003735
7.295e-05
1.627e-05
0.0001317
1.42e-07
0.0002618
1.953e-06
0.006397
7.789e-09
0.001091
4.811e-07
0.002968
3.622e-08
3.774e-08
0.006697
0.003086
0.002425
4.942e-09
0.002228
2.455e-06
0.0003648
1.658e-10
2.934e-08
0.0009679
9.976e-05
6.041e-09
4.321e-13
0.0001937
0.00217
0.001582
1.374e-11
2.315e-09
2.783e-05
0.0006228
7.184e-14
4.155e-05
1.47e-11
0.0008375
0.000694
0.006706
1.326e-05
8.88e-08
9.983e-09
2.373e-08
2.407e-09
1.368e-05
4.035e-09
0.0001273
0.0007164
3.95e-11
0.006694
0.0001448
0.0001682
4.084e-05
2.157e-06
0.0001048
7.376e-07
0.006705
4.551e-08
2.283e-06
8.673e-10
4.647e-05
0.0004552
7.77e-07
2.338e-06
5.257e-05
1.154e-10
1.672e-05
3.384e-08
9.815e-06
2.093e-11
5.31e-07
0.002853
0.0003613
1.239e-05
4.252e-06
3.862e-05
2.856e-09
9.615e-05
0.006678
5.345e-07
4.827e-05
0.0002932
8.923e-07
0.006697
1.563e-06
1.336e-07
0.0004768
0.006701
0.006691
4.838e-08
0.0001533
8.176e-06
0.00032
7.667e-10
0.005753
6.849e-08
0.002441
0.0009188
0.0001453
5.283e-09
2.674e-06
2.573e-09
3.591e-05
5.715e-05
5.489e-10
4.878e-09
7.524e-05
6.748e-06
1.071e-06
2.456e-06
0.001027
8.062e-07
2.296e-06
0.002319
0.001395
8.503e-05
5.199e-08
0.006668
0.000259
4.416e-05
9.606e-05
0.0001442
0.0001425
0.006645
6.952e-07
5.721e-05
7.408e-08
3.164e-05
6.842e-12
9.202e-08
9.747e-08
1.515e-09
5.538e-06
9.037e-07
3.473e-05
0.006692
7.654e-10
0.00087
2.134e-07
1.343e-07
1.255e-05
1.184e-06
1.673e-17
3.737e-06
1.152e-06
0.0001032
1.318e-06
0.006688
6.037e-12
0.001405
0.0001303
0.00102
9.491e-20
1.038e-15
1.326e-15
0.006697
1.69e-07
1.555e-07
0.006692
0.001256
2.924e-07
7.472e-06
7.25e-06
0.0001297
4.877e-09
0.0002668
6.499e-12
0.002394
0.0007425
3.028e-14
1.737e-08
1.028e-09
4.652e-08
0.005787
4.242e-06
0.0009139
0.001016
0.006607
3.239e-10
1.027e-10
7.733e-08
0.00664
8.355e-05
0.0001172
7.706e-09
3.414e-06
2.368e-10
0.001568
0.0008666
6.171e-07
4.685e-06
0.006668
3.506e-05
1.371e-05
6.142e-09
4.029e-08
3.256e-08
8.102e-09
0.0008984
1.753e-06
6.292e-08
1.162e-05
7.059e-07
0.003297
2.581e-11
1.071e-05
5.473e-10
5.867e-07
0.0003291
0.006702
0.006701
1.629e-05
6.541e-08
1.208e-06
0.006694
0.004811
1.161e-05
3.783e-09
0.0001055
5.321e-06
4.174e-09
1.844e-11
2.511e-05
0.001121
0.006682
6.582e-08
0.0001496
4.255e-07
0.004971
4.084e-13
9.878e-07
1.025e-06
0.002167
1.039e-10
0.006556
0.0001282
0.0003053
0.0009732
0.004918
1.664e-07
0.0009126
8.961e-14
0.006644
2.629e-07
1.173e-09
0.00669
2.182e-06
0.004954
1.162e-07
6.067e-05
0.006691
1.698e-08
7.63e-09
1.689e-07
2.722e-06
8.332e-05
2.523e-09
2.875e-09
1.429e-06
6.64e-08
1.672e-07
4.172e-08
4.089e-05
5.653e-06
2.895e-10
0.005568
2.25e-09
0.006691
1.169e-06
0.0008169
7.986e-05
0.006677
0.005284
6.682e-05
3.721e-08
4.227e-05
0.006479
0.006677
3.457e-07
1.802e-11
2.568e-08
9.9e-10
0.001864
8.71e-06
0.0001511
1.946e-06
2.008e-05
1.962e-07
2.148e-10
0.006479
1.801e-08
2.833e-05
8.364e-05
8.256e-06
0.006624
0.004813
6.769e-05
7.102e-11
3.553e-05
2.044e-11
0.0007619
0.003742
3.203e-06
2.647e-08
0.00019
1.539e-09
9.426e-05
0.0008475
3.609e-08
6.446e-06
3.183e-05
2.322e-05
1.584e-18
2.589e-08
8.173e-05
5.525e-05
5.098e-06
6.638e-07
2.582e-10
7.202e-08
0.000413
1.177e-06
3.128e-06
0.0001608
0.006678
6.015e-08
1.835e-05
4.475e-06
0.006639
0.006678
5.591e-12
0.0001022
6.358e-09
1.115e-06
1.862e-07
0.002201
2.786e-05
3.503e-10
9.848e-06
1.073e-08
0.006691
0.006668
5.541e-06
1.326e-05
9.781e-09
4.897e-06
2.167e-10
0.00177
1.068e-08
0.0001054
0.002419
0.003833
9.094e-10
0.0001562
8.058e-09
2.259e-17
8.018e-07
4.24e-06
0.0002246
0.004716
4.674e-07
3.876e-08
1.289e-11
0.004324
0.0008002
2.048e-05
6.596e-10
4.958e-05
2.489e-08
0.002782
1.924e-08
3.194e-07
1.634e-06
0.0009241
5.526e-05
2.206e-22
2.108e-05
0.0001739
1.69e-07
2.914e-07
1.352e-07
0.006687
3.579e-05
0.003778
0.0001104
0.003567
1.601e-11
7.835e-07
9.615e-11
0.003409
4.74e-08
3.547e-05
1.201e-07
2.849e-07
0.003844
0.0002377
8.472e-08
2.004e-08
0.0002301
0.002418
3.471e-05
5.262e-07
0.003308
1.699e-06
4.877e-05
8.658e-07
3.962e-06
3.42e-05
7.851e-07
1.783e-11
2.513e-07
0.006609
0.0002325
0.001738
2.533e-11
1.387e-09
4.446e-05
0.001314
1.305e-08
0.006622
9.107e-06
3.898e-08
4.116e-05
2.487e-13
4.019e-05
9.809e-08
3.465e-05
0.0003783
1.822e-05
0.006697
4.074e-19
6.918e-06
3.547e-06
6.571e-09
0.0001301
7.153e-07
1.619e-06
1.53e-08
0.006681
0.003961
8.597e-06
0.003692
6.719e-07
2.212e-07
2.349e-07
5.363e-07
0.00666
0.0001773
7.564e-05
0.006691
0.006657
8.343e-06
0.001635
0.001858
8.897e-07
0.000138
6.222e-15
4.859e-06
8.353e-06
0.006679
4.305e-05
1.386e-05
3.367e-09
2.213e-10
8.36e-06
0.003473
0.005981
0.001081
3.38e-13
0.006679
0.0001121
2.893e-10
3.955e-07
2.183e-11
0.00561
0.0004912
4.171e-07
0.006693
1.358e-09
0.006679
1.855e-07
6.823e-11
1.947e-07
6.646e-06
2.971e-12
0.00668
2.341e-08
1.989e-05
4.314e-10
6.792e-07
2.981e-10
4.058e-10
4.729e-05
5.915e-05
1.113e-05
9.935e-15
0.006692
0.0002998
3.633e-09
8.938e-09
2.725e-06
9.756e-13
0.003541
0.0001646
6.053e-08
1.057e-11
2.01e-14
1.209e-07
3.072e-16
1.951e-08
6.121e-16
2.211e-06
1.075e-08
0.004003
1.674e-13
0.000788
1.675e-07
0.004901
0.004997
7.357e-05
0.000442
2.383e-06
0.002772
7.354e-07
4.888e-05
0.0003914
4.278e-08
1.41e-07
0.006091
0.003615
1.925e-05
0.0004533
1.25e-08
8.797e-14
0.0003128
2.111e-06
1.507e-08
0.0005053
3.042e-07
0.006688
1.297e-05
8.918e-09
0.006432
2.913e-08
1.103e-05
0.001933
0.006665
0.00257
0.002362
1.226e-15
1.351e-05
8.239e-14
0.0002846
1.127e-06
2.288e-07
4.631e-10
7.126e-09
0.005512
4.698e-11
9.128e-06
0.005401
9.331e-06
1.382e-13
0.001264
4.058e-09
3.784e-06
1.606e-05
9.782e-11
3.96e-16
1.548e-08
0.0008522
0.006694
2.078e-06
7.573e-06
3.414e-06
2.679e-08
6.717e-07
9.468e-11
2.468e-05
5.282e-05
8.015e-11
0.0001518
2.091e-12
0.006688
0.0002908
4.54e-08
0.0002197
6.094e-07
0.0001462
0.006692
0.002236
1.519e-08
4.084e-05
2.613e-06
1.908e-08
1.752e-07
0.0009715
2.442e-05
1.082e-07
3.371e-08
1.313e-14
4.456e-05
1.453e-09
1.948e-08
2.428e-06
0.0009491
5.523e-07
8.366e-07
1.071e-08
1.195e-12
0.0001276
0.006687
0.006683
0.0003468
0.0001674
7.66e-05
0.006697
1.657e-06
0.0001459
6.195e-05
2.627e-07
5.179e-05
1.137e-07
2.167e-06
0.006705
6.757e-05
5.231e-05
5.566e-12
1.244e-10
3.495e-05
1.103e-05
0.0004011
5.758e-09
1.967e-08
1.189e-06
0.002003
6.29e-07
1.183e-07
8.307e-06
6.878e-11
0.006521
7.302e-12
3.604e-10
0.001812
3.628e-06
9.838e-09
0.00432
1.784e-13
1.377e-14
0.006217
0.00669
8.262e-06
6.131e-05
5.099e-14
2.264e-06
1.83e-07
9.265e-09
5.884e-08
6.979e-05
9.725e-05
0.004195
2.836e-08
0.001175
2.767e-07
1.701e-05
3.883e-09
4.097e-05
0.005196
2.268e-14
1.071e-05
0.006691
1.256e-07
0.005529
0.006686
1.3e-06
7.621e-05
3.57e-14
0.006687
1.461e-09
0.006694
1.592e-07
9.047e-05
0.003899
5.377e-06
2.402e-09
8.368e-09
2.448e-08
7.015e-07
0.003622
0.0006539
0.0002106
4.857e-08
6.932e-07
9.862e-08
1.704e-12
2.776e-08
1.047e-13
1.993e-06
8.544e-09
2.143e-09
8.029e-09
1.89e-11
5.259e-06
0.004033
0.003832
4.425e-08
1.109e-05
1.514e-10
0.002724
1.495e-08
0.0005601
2.979e-07
1.667e-07
9.973e-06
6.592e-05
3.065e-09
0.001517
3.017e-07
2.745e-06
1.338e-09
6.117e-07
0.006505
1.472e-06
4.211e-08
0.006696
3.258e-07
1.876e-09
0.006676
2.651e-05
2.011e-06
0.0003304
5.219e-06
0.0004242
4.609e-05
0.0001009
0.00667
4.452e-07
4.049e-07
0.006702
7.107e-06
0.0001511
0.0001499
2.03e-07
3.631e-06
0.0004196
4.432e-08
1.903e-12
2.589e-09
1.985e-08
0.0005139
1.639e-13
0.002569
8.755e-08
0.006692
3.022e-05
5.552e-06
5.224e-07
1.631e-07
4.435e-08
1.262e-11
0.006698
7.361e-15
2.52e-09
5.866e-09
5.127e-07
4.734e-09
0.001434
0.004319
7.017e-11
3.274e-07
6.391e-05
5.538e-18
7.706e-05
1.676e-08
5.036e-10
5.191e-08
1.423e-07
6.011e-05
5.287e-10
2.038e-07
4.041e-06
6.141e-06
5.055e-09
1.19e-08
0.001189
8.377e-14
9.802e-05
1.217e-07
0.0001196
1.461e-09
0.006647
0.00669
9.612e-05
8.759e-14
0.0002125
0.00174
1.056e-13
3.412e-08
0.006692
3.119e-11
1.915e-07
1.428e-05
7.574e-13
2.496e-05
1.383e-05
1.307e-17
0.002948
8.594e-11
0.000597
3.068e-07
1.497e-11
1.415e-08
3.388e-10
4.888e-06
1.009e-07
0.0001195
0.00283
3.477e-06
1.526e-06
4.224e-06
2.449e-07
0.001613
1.517e-10
0.0005809
7.779e-05
0.001158
3.755e-06
3.177e-05
2.621e-06
8.63e-14
5.654e-05
2.096e-12
6.405e-10
5.023e-06
1.192e-05
0.006693
0.0009813
6.198e-06
3.179e-05
7.96e-10
8.047e-10
1.423e-10
0.006681
6.183e-09
3.194e-08
3.084e-05
2.866e-14
9.946e-07
0.003386
9.625e-08
0.00245
6.504e-08
6.485e-06
5.494e-12
7.819e-07
0.0008653
0.0003956
0.006699
4.356e-16
2.547e-14
4.673e-05
6.56e-05
5.197e-06
0.006491
0.006651
6.048e-07
0.000714
0.002852
8.228e-05
0.003006
0.002984
1.446e-06
3.546e-05
0.001994
1.835e-08
2.533e-08
1.539e-14
3.022e-05
2.247e-10
9.058e-06
3.433e-07
0.006653
2.739e-09
0.000617
3.154e-07
1.084e-14
1.256e-05
0.001867
3.202e-06
4.536e-07
6.241e-05
5.01e-15
0.001944
1.467e-05
0.00137
0.001752
9.236e-06
3.176e-08
4.245e-15
6.808e-05
8.678e-08
0.006675
1.684e-08
1.34e-08
0.006667
4.949e-09
7.241e-07
1.339e-05
5.184e-09
0.006683
2.251e-05
1.591e-16
0.004329
3.948e-08
2.548e-08
2.81e-07
3.813e-11
5.22e-05
9.441e-06
1.726e-07
4.605e-11
7.857e-06
2.737e-07
1.763e-05
1.935e-07
2.328e-10
1.561e-10
1.008e-07
7.358e-06
0.006691
1.182e-07
0.003386
3.63e-10
3.403e-07
0.00171
6.78e-06
0.006705
1.918e-05
5.043e-07
0.006587
0.001786
0.00608
5.325e-10
0.001781
1.62e-13
1.806e-06
2.992e-05
4.532e-09
3.638e-05
7.694e-08
7.629e-09
4.042e-16
5.945e-06
8.354e-07
6.098e-05
9.401e-05
0.0006991
0.006702
3.623e-05
0.001235
0.0006612
0.006699
0.001444
0.006685
6.081e-08
8.954e-06
0.006676
0.006686
1.185e-06
8.641e-05
5.994e-09
7.456e-05
0.006686
6.177e-06
3.401e-05
6.318e-05
7.865e-16
2.224e-10
1.679e-13
6.756e-08
6.323e-07
1.598e-08
6.185e-08
0.0001761
0.0001209
7.337e-12
0.0004928
5.101e-09
4.741e-09
6.27e-06
4.79e-06
0.003286
0.006686
3.692e-16
1.29e-05
3.398e-11
0.006692
1.327e-14
4.741e-08
1.076e-08
7.838e-06
0.006638
0.006637
0.0009503
0.001739
0.002088
0.0012
3.506e-07
5.136e-05
4.765e-06
0.002386
1.09e-05
1.259e-10
1.461e-06
0.0002008
8.439e-05
9.045e-06
7.58e-10
1.206e-08
2.257e-07
1.164e-08
0.0002658
0.002552
1.353e-05
5.872e-06
7.316e-13
4.154e-05
0.0003527
3.059e-07
0.002318
1.117e-07
5.868e-05
1.885e-10
0.003424
0.006692
0.0002598
7.626e-07
7.064e-15
2.669e-11
7.592e-05
7.178e-06
3.597e-09
9.776e-05
0.006617
1.757e-08
6.724e-08
1.196e-15
5.256e-05
1.192e-13
1.395e-05
0.006687
3.531e-08
4.353e-08
0.00121
1.308e-05
0.0004059
1.906e-07
4.361e-07
6.051e-07
0.0006761
8.347e-10
0.0001333
3.417e-08
3.157e-09
1.148e-09
0.003131
0.003129
6.339e-09
8.157e-06
3.832e-15
6.973e-07
5.5e-10
3.914e-10
3.481e-16
0.002384
5.207e-07
0.0003779
0.003601
0.006686
0.000524
0.006199
1.587e-14
0.006692
3.086e-11
3.989e-05
1.109e-06
4.56e-07
1.526e-09
0.002461
1.294e-11
7.58e-05
1.762e-07
0.0001998
6.072e-12
0.006688
9.034e-07
2.904e-08
0.0002899
2.129e-09
4.471e-08
7.576e-05
1.883e-08
5.154e-09
0.0001796
0.006661
1.498e-10
0.002518
0.006658
5.415e-05
8.2e-10
0.006661
3.088e-11
0.006694
3.682e-05
4.17e-06
0.000563
5.517e-07
0.006659
0.0002185
1.859e-08
6.513e-05
3.197e-05
2.614e-06
3.606e-05
0.006692
0.00668
1.118e-05
3.935e-15
1.157e-06
2.086e-07
0.0008364
2.335e-12
7.268e-05
4.766e-05
0.002843
1.857e-05
9.658e-07
2.27e-09
0.0006176
4.338e-08
0.001056
1.206e-05
0.006703
3.929e-06
1.049e-07
0.000266
7.44e-07
8.493e-10
5.789e-07
0.006678
3.078e-05
6.516e-11
1.085e-07
1.518e-14
2.656e-10
0.002487
0.0003382
1.245e-05
9.536e-12
2.91e-05
2.5e-08
8.075e-11
0.002713
5.454e-05
0.006689
1.834e-07
4.777e-08
1.407e-06
0.006693
3.78e-07
0.006692
9.757e-05
9.794e-07
0.006693
0.00291
5.616e-05
1.058e-06
0.0004145
0.002087
1.188e-08
0.006696
9.861e-09
6.498e-11
1.127e-05
0.003259
6.599e-08
0.0009446
4.816e-06
8.322e-05
5.886e-10
3.259e-07
6.534e-05
1.216e-09
5.338e-06
1.323e-07
9.321e-11
0.0001644
4.017e-05
2.259e-07
0.0002138
2.884e-08
0.0001054
1.002e-05
2.867e-07
0.0003156
0.002063
5.304e-09
0.002339
2.234e-06
4.071e-06
1.634e-14
1.739e-05
5.531e-13
6.296e-05
0.006663
5.691e-13
1.039e-07
9.932e-05
9.753e-09
0.0004414
7.253e-05
0.006705
0.001271
1.863e-12
0.0005372
4.732e-06
3.259e-07
9.698e-08
0.006695
3.938e-07
7.523e-06
7.051e-06
3.706e-10
0.0004553
2.506e-07
6.184e-11
0.006688
0.0002358
4.359e-05
0.002648
3.364e-06
1.819e-05
3.173e-05
1.623e-06
8.813e-05
0.0006613
0.003155
5.464e-05
3.341e-06
0.006509
2.595e-05
2.187e-09
1.552e-13
0.006695
3.103e-07
1.047e-12
0.00214
5.972e-09
0.001348
9.607e-08
1.472e-13
0.002949
0.002422
1.787e-05
0.0009588
2.376e-09
3.761e-06
0.0004133
1.136e-11
3.113e-07
0.0004704
2.976e-08
5.884e-17
1.594e-16
2.863e-05
1.281e-05
4.081e-07
6.979e-05
0.0006049
2.904e-06
0.0003747
3.69e-09
1.012e-06
1.575e-06
5.547e-08
3.099e-12
9.448e-05
2.828e-05
0.006535
2.667e-08
2.763e-05
2.771e-05
1.459e-05
7.41e-05
1.005e-07
2.635e-05
0.003602
0.00667
4.928e-09
2.74e-10
2.475e-05
2.136e-08
0.0003289
1.468e-14
1.799e-08
0.0001818
2.461e-07
1.703e-10
9.879e-05
1.713e-07
4.153e-15
0.006609
1.822e-11
8.951e-09
8.593e-08
0.004896
0.0002563
0.001045
5.995e-10
6.976e-08
0.001244
1.99e-10
0.004719
5.636e-06
5.008e-08
0.0001354
0.00143
0.00572
4.184e-09
2.113e-10
1.174e-07
1.582e-10
2.242e-11
0.0002705
3.581e-13
0.002439
2.615e-08
6.382e-06
0.002021
0.0001137
0.003925
1.014e-06
0.0005417
1.81e-07
0.002988
1.863e-07
4.246e-16
3.221e-13
1.761e-05
4.045e-05
3.266e-05
1.245e-05
0.001872
0.0001979
6.79e-07
7.523e-05
0.0067
3.384e-07
1.547e-07
2.345e-08
2.854e-06
2.695e-06
5.04e-08
0.0001518
5.322e-09
1.134e-13
9.075e-12
0.0001098
2.018e-07
6.593e-16
0.001154
2.852e-09
0.003753
2.229e-06
3.761e-06
5.56e-18
3.943e-06
2.411e-06
0.003444
0.0002062
1.623e-08
1.011e-05
0.006661
0.006698
0.0005578
1.997e-10
0.001049
1.688e-07
1.132e-13
1.69e-06
0.001468
3.838e-10
0.001877
7.44e-06
1.986e-11
6.83e-05
0.003595
2.453e-05
3.357e-06
7.235e-05
1.27e-06
0.006696
5.733e-08
0.002695
4.44e-10
0.003242
3.508e-08
3.822e-11
1.731e-05
3.406e-10
0.0001217
3.89e-09
1.245e-07
4.605e-09
1.88e-05
0.0008827
1.749e-05
7.037e-05
1.194e-08
6.244e-06
3.411e-10
3.051e-08
0.006702
4.633e-06
0.003988
9.946e-10
3.433e-07
0.002183
0.0008323
7.788e-05
2.052e-11
0.003329
5.757e-06
0.0004239
3.887e-05
0.001597
0.0002358
0.000117
1.262e-13
0.000108
0.0003346
8.369e-09
0.006671
0.0005509
6.615e-05
5.789e-05
0.00104
0.006687
9.046e-05
4.354e-08
8.951e-09
0.006692
0.0009905
0.001845
1.638e-06
3.567e-08
0.001176
4.514e-05
6.854e-05
7.59e-10
3.286e-09
0.001932
7.51e-07
2.399e-05
0.0001073
2.075e-07
3.065e-14
0.001771
7.727e-10
6.168e-09
0.001405
1.695e-14
0.006465
0.006662
1.3e-05
1.67e-05
2.468e-16
0.006692
0.001313
7.918e-09
6.749e-15
3.095e-08
1.885e-09
0.006294
0.006364
8.118e-09
1.319e-06
7.42e-05
6.437e-07
5.444e-05
0.001021
2.804e-05
0.006705
3.697e-10
7.31e-08
2.842e-07
0.0001699
1.316e-11
0.0005722
1.777e-05
0.00667
2.843e-06
5.667e-08
6.812e-10
6.771e-09
3.893e-06
1.987e-11
1.513e-07
7.314e-06
2.045e-07
4.66e-08
2.439e-06
0.000111
6.597e-07
1.164e-10
0.004801
0.004989
8.756e-08
2.999e-06
1.516e-12
9.192e-06
4.505e-09
4.978e-07
0.002544
0.006693
7.091e-06
0.006702
6.535e-05
1.481e-13
2.19e-06
9.266e-05
3.142e-07
0.000127
7.584e-12
6.217e-08
0.002958
2.248e-06
2.827e-06
2.346e-07
0.0003062
2.711e-07
2.06e-06
4.96e-06
2.462e-05
3.213e-05
1.819e-06
0.0007535
4.226e-10
1.33e-07
9.956e-06
5.86e-06
9.703e-11
1.02e-05
1.643e-07
1.9e-08
9.799e-07
8.102e-06
1.495e-06
3.774e-13
0.0001001
1.116e-07
0.001493
0.000829
0.006703
1.141e-07
0.002256
3.461e-13
2.64e-07
4.143e-05
6.447e-10
3.359e-15
1.461e-10
4.05e-05
3.749e-07
4.462e-10
1.386e-11
0.002217
0.00027
1.075e-06
9.58e-16
1.988e-06
2.293e-05
7.031e-05
7.312e-05
0.006693
0.000204
2.332e-10
7.062e-06
3.793e-08
0.001612
8.757e-05
1.107e-11
0.006648
8.198e-05
9.405e-05
0.001167
8.948e-10
7.338e-05
1.853e-05
0.00256
5.319e-05
4.586e-08
1.213e-06
6.011e-14
1.054e-08
1.04e-06
0.006677
4.946e-05
6.281e-06
2.866e-10
7.386e-09
8.768e-07
0.002981
2.718e-06
0.006043
1.995e-08
4.66e-09
7.978e-06
1.628e-06
6.118e-05
3.08e-11
1.066e-09
1.292e-08
1.675e-06
5.337e-05
1.477e-06
1.209e-10
0.004052
0.0001001
1.098e-13
0.002699
7.815e-05
0.004811
0.006699
1.358e-06
0.002802
2.082e-08
3.442e-07
0.0001093
0.0002104
1.145e-09
2.111e-11
1.915e-06
7.946e-09
1.956e-06
0.001073
8.785e-15
4.978e-05
3.692e-06
0.002423
5.31e-14
0.000888
2.906e-11
7.556e-13
0.003445
3.286e-09
1.252e-09
9.153e-06
0.0005278
8.129e-10
1.188e-07
1.084e-09
0.0001328
3.718e-05
0.000188
0.003697
0.0067
4.477e-05
0.0005669
3.717e-07
1.494e-06
9.241e-06
1.242e-13
0.000466
0.004922
5.632e-08
2.588e-05
0.001536
4.873e-07
2.312e-05
8.538e-07
1.954e-09
3.699e-10
7.27e-13
2.815e-07
4.368e-08
9.097e-08
4.661e-06
5.449e-07
2.151e-05
3.914e-14
4.871e-08
3.092e-07
9.002e-06
0.006678
1.51e-07
4.348e-08
0.0006049
9.617e-06
6.433e-13
3.51e-09
2.559e-07
0.0001766
9.458e-06
9.147e-10
0.006693
1.403e-09
0.001576
0.0001233
8.62e-07
5.548e-09
0.006703
2.609e-07
0.0005249
2.388e-06
5.44e-12
3.46e-06
2.379e-06
3.995e-16
4.06e-05
5.155e-08
0.006667
0.006641
6.345e-08
3.055e-05
1.417e-05
3.205e-09
2.079e-07
0.006685
2.162e-11
7.482e-10
3.411e-05
0.006701
0.004092
1.806e-05
6.827e-06
5.596e-08
2.118e-16
2.838e-09
0.005372
2.353e-09
1.333e-12
8.616e-05
3.461e-09
1.885e-08
0.002553
6.078e-05
9.322e-10
0.001347
0.0001515
0.006632
0.006585
0.006612
0.006261
0.0001397
0.0004283
1.478e-06
5.876e-09
4.949e-06
1.402e-06
6.315e-05
7.558e-11
0.006117
3.512e-06
4.898e-05
5.702e-09
5.742e-10
2.204e-09
5.632e-06
4.234e-07
1.921e-08
5.509e-05
1.382e-07
0.0001878
2.298e-07
1.919e-15
5.725e-08
7.123e-12
3.943e-06
1.382e-07
0.006692
4.671e-14
5.195e-06
1.62e-08
5.545e-06
0.0001309
1.012e-13
0.006693
2.365e-05
1.708e-09
0.004063
7.156e-07
5.363e-06
0.0004227
1.243e-05
1.546e-10
7.878e-05
9.646e-09
0.006625
8.044e-06
4.238e-06
3.345e-07
0.0005121
3.709e-07
0.00668
0.004986
5.751e-05
2.657e-07
3.28e-09
0.0001108
0.0002931
1.716e-07
1.313e-05
4.389e-10
1.607e-08
0.001591
0.001825
0.0005074
1.168e-05
0.0001053
5.926e-15
3.55e-06
0.006691
5.072e-12
0.006694
0.006687
7.052e-05
0.002439
7.47e-11
0.0003748
2.016e-10
0.0001149
1.727e-08
0.006695
0.0001001
7.897e-07
6.674e-08
0.001206
0.003367
6.134e-05
5.246e-12
5.766e-12
0.006702
5.014e-13
5.773e-12
2.563e-16
0.002895
0.001976
0.0006578
9.208e-05
0.000627
0.002287
4.704e-07
2.798e-12
9.492e-06
1.883e-09
1.392e-15
0.006692
1.092e-08
7.59e-11
2.262e-07
0.006693
1.123e-09
2.958e-13
2.777e-15
1.292e-14
9.87e-05
1.011e-05
1.811e-14
0.0002881
4.165e-06
0.006687
0.000341
4.446e-10
0.003031
4.172e-08
1.403e-14
8.24e-05
1.862e-05
3.015e-07
0.006706
0.005334
5.32e-09
2.681e-09
0.003345
4.74e-10
9.666e-07
3.856e-05
0.0008987
5.315e-05
8.265e-07
1.604e-05
0.006693
1.413e-05
1.579e-05
6.571e-08
5.753e-08
1.11e-07
5.691e-09
1.8e-07
1.008e-13
7.275e-16
4.694e-18
3.94e-09
0.0001592
2.141e-09
0.0003406
4.94e-10
6.275e-10
0.006692
3.499e-15
0.006705
4.861e-07
2.26e-12
4.587e-11
3.369e-05
6.361e-07
1.62e-07
4e-08
0.006629
1.628e-15
8.715e-07
0.002836
0.001005
1.141e-05
1.008e-13
4.537e-13
4.379e-14
0.0009907
8.151e-09
2.774e-09
0.0003581
2.513e-05
2.945e-07
4.77e-13
0.006668
2.024e-05
4.347e-07
4.582e-06
6.41e-07
0.0001843
0.002933
9.748e-12
1.774e-07
1.205e-07
7.904e-13
0.002856
3.738e-11
3.979e-05
5.289e-07
6.097e-07
0.006412
0.0001022
6.707e-07
6.565e-09
4.987e-08
1.109e-13
0.002855
0.004371
7.896e-06
4.761e-08
2.234e-11
0.0001396
0.002964
0.006424
0.0002855
4.817e-10
0.00634
6.587e-08
1.504e-08
9.004e-05
9.568e-07
0.0001037
3.853e-12
6.569e-14
1.155e-14
8.467e-05
2.351e-09
9.123e-06
3.014e-07
0.002282
0.001888
1.874e-12
0.0007243
8.304e-10
3.763e-08
1.734e-10
9.797e-08
2.584e-05
1.806e-13
0.0005239
4.191e-07
5.645e-05
0.003123
4.807e-07
0.0001103
0.002176
1.191e-06
2.83e-07
7.878e-06
4.348e-07
7.029e-07
6.09e-14
1.711e-15
0.002018
5.049e-15
0.002181
7.319e-05
0.0001126
0.0001693
9.008e-07
0.006704
3.1e-08
6.132e-14
7.428e-08
7.12e-11
0.0009778
9.228e-05
8.107e-08
3.931e-06
0.0007716
3.105e-09
0.001068
1.125e-11
3.849e-07
0.005269
6.463e-06
4.045e-07
0.0067
0.0004374
1.051e-10
0.006695
2.452e-08
3.876e-07
4.243e-08
4.722e-06
2.668e-11
0.002447
0.0006326
5.101e-05
2.194e-09
7.91e-10
4.323e-09
4.635e-07
0.006684
1.496e-08
0.006692
7.371e-05
6.763e-07
0.0007774
1.295e-14
5.514e-07
2.432e-09
0.002344
3.559e-10
2.38e-05
0.002321
0.00016
8.175e-08
0.00667
7.523e-06
0.006694
8.99e-10
1.035e-09
3.971e-07
1.166e-05
0.006624
1.247e-08
1.285e-08
1.911e-07
1.013e-10
3.588e-08
9.11e-09
0.0006031
0.0001095
1.097e-05
1.753e-05
6.522e-08
1.371e-06
0.0001114
1.734e-05
0.0001007
1.274e-06
2.413e-07
0.006623
0.006667
0.002007
0.0003096
5.329e-06
1.085e-08
2.713e-08
0.002452
5.675e-08
2.248e-06
1.49e-07
0.006698
6.497e-07
4.842e-05
9.969e-11
0.002699
2.506e-15
9.294e-06
6.687e-11
0.003488
0.0001175
1.272e-13
0.0003103
1.635e-07
8.942e-08
4.072e-08
1.884e-07
2.204e-06
0.006693
8.465e-08
2.08e-07
4.542e-06
1.379e-05
1.476e-05
4.618e-06
9.764e-05
3.151e-07
9.197e-09
0.006686
0.0003271
6.153e-07
1.297e-11
6.94e-06
0.006701
4.923e-09
6.963e-10
0.0001695
0.0001786
2.246e-06
5.789e-09
0.0001882
1.211e-06
4.352e-07
0.001738
5.5e-06
1.145e-05
0.005292
5.308e-06
1.534e-14
0.0003158
6.9e-06
2.502e-12
1.407e-05
4.529e-06
0.00669
0.0003054
8.77e-05
0.003462
8.497e-13
1.261e-06
0.006697
0.001054
3.636e-07
2.026e-16
0.006697
0.0002238
7.697e-11
1.556e-07
6.606e-06
1.989e-07
5.962e-09
1.473e-06
2.791e-06
1.768e-09
1.075e-12
3.704e-10
0.002076
1.213e-05
8.471e-05
2.304e-06
0.006683
5.971e-05
6.924e-07
0.0003651
1.805e-07
5.373e-14
3.582e-11
0.00234
1.34e-08
7.657e-13
0.00204
8.207e-09
0.0002256
3.537e-05
7.318e-05
2.147e-10
1.214e-13
0.006688
1.07e-08
2.354e-07
0.006697
2.701e-11
0.0003426
1.104e-05
0.0001375
2.248e-05
2.072e-09
1.815e-07
6.008e-07
0.006707
0.003018
0.002686
6.425e-06
0.006685
6.317e-06
0.0003718
5.773e-10
0.002388
0.0003656
7.191e-09
1.216e-10
0.002192
3.186e-06
0.006676
9.132e-14
9.756e-06
2.711e-09
5.667e-09
9.261e-05
1.963e-08
3.018e-06
1.902e-07
2.399e-14
0.003251
1.565e-13
0.006672
0.006684
6.457e-05
5.472e-05
0.006683
8.023e-15
8.615e-08
2.659e-08
3.677e-10
1.496e-06
3.221e-05
0.004858
6.985e-15
0.0005942
2.843e-07
0.006667
2.456e-05
3.757e-05
6.227e-05
1.607e-05
2.747e-05
0.002487
8.282e-08
0.006656
1.519e-05
1.404e-09
7.501e-10
1.361e-12
9.277e-05
0.0001839
2.067e-06
0.006699
1.303e-07
1.007e-07
0.000193
0.0002129
3.522e-05
9.65e-14
0.005957
0.006681
1.542e-06
6.309e-09
0.001731
1.709e-09
0.006701
1.096e-09
1.788e-06
2.257e-07
0.006701
6.986e-05
8.558e-10
5.782e-08
7.545e-10
0.0001335
2.468e-06
0.006679
5.784e-09
0.004602
5.619e-09
1.054e-14
0.001193
8.438e-06
0.0009566
1.732e-09
1.046e-11
7.172e-08
8.777e-05
0.006657
6.881e-06
8.484e-05
0.00669
2.468e-08
3.872e-07
0.00186
0.006693
0.000116
9.5e-05
0.0001758
2.367e-08
1e-05
0.006694
5.984e-08
2.765e-07
6.205e-08
0.0005639
0.006696
0.006691
0.0004263
1.418e-05
0.001541
3.137e-09
1.815e-14
2.102e-13
3.082e-07
6.378e-13
3.618e-11
0.003048
2.678e-14
2.874e-06
1.032e-09
0.002523
6.821e-05
3.461e-05
8.188e-10
1.997e-09
1.503e-10
1.034e-07
0.0002744
7.603e-05
2.693e-08
3.387e-07
8.835e-06
9.321e-05
2.821e-06
5.171e-05
2.922e-08
0.004087
3.737e-05
2.109e-06
6.313e-06
1.144e-05
1.661e-09
7.049e-15
1.469e-11
0.006662
1.176e-11
2.968e-05
0.006657
4.806e-07
0.006694
2.729e-09
3.647e-06
0.002667
6.184e-09
5.37e-08
0.006707
3.166e-05
0.003021
1.489e-12
0.0009156
1.585e-05
8.689e-13
8.399e-06
0.006688
5.02e-11
0.000136
0.000446
1.684e-05
0.00202
1.105e-07
1.915e-14
3.542e-09
2.254e-06
0.001366
2.69e-07
4.979e-06
0.006688
0.000197
2.003e-08
3.137e-07
2.894e-06
0.006701
8.94e-14
6.426e-08
8.973e-07
7.152e-06
3.609e-05
1.149e-06
0.006656
0.0001576
3.737e-08
6.994e-07
4.565e-05
1.779e-07
3.129e-09
0.002518
8.289e-06
8.369e-06
0.001425
5.291e-05
0.002274
9.107e-07
1.746e-06
2.092e-06
0.0067
2.626e-09
0.002404
9.495e-05
5.563e-06
1.352e-05
1.223e-09
7.445e-06
1.037e-16
0.0008673
3.393e-05
0.001939
0.006678
5.897e-06
1.336e-06
2.908e-11
1.225e-10
1.497e-06
1.036e-08
3.959e-10
2.946e-05
2.334e-05
2.647e-06
4.321e-09
2.761e-12
1.739e-05
0.0001245
3.014e-10
4.821e-05
3.186e-10
2.419e-06
0.001275
0.000457
5.651e-08
0.006693
4.018e-06
6.92e-05
0.00669
0.0001735
2.839e-10
0.002311
8.598e-16
4.415e-09
1.305e-07
0.00669
4.601e-05
4.115e-07
0.003328
5.644e-05
8.165e-06
9.937e-09
4.312e-07
1.225e-09
0.006695
2.25e-07
0.006683
1.359e-05
1.016e-07
7.807e-08
6.045e-06
3.253e-09
6.73e-16
0.006611
0.006692
6.082e-07
1.994e-07
4.645e-10
3.716e-05
3.304e-07
1.884e-09
0.0007008
0.001014
0.002665
1.864e-07
9.158e-11
3.127e-05
0.0001385
0.006686
2.492e-07
6.098e-05
4.287e-06
1.11e-08
2.512e-06
0.001986
3.31e-09
1.458e-06
0.000397
5.96e-08
3.361e-07
0.0001143
0.006687
0.006575
1.088e-08
4.138e-09
1.339e-06
0.003617
7.997e-06
0.003101
1.152e-07
1.422e-06
0.006603
8.536e-06
3.084e-05
2.489e-15
4.423e-11
1.362e-09
0.00668
3.749e-09
2.086e-07
1.203e-08
1.829e-08
2.505e-13
1.688e-05
4.103e-05
2.191e-07
3.895e-07
2.25e-09
2.102e-11
0.002514
0.002751
0.003829
8.839e-05
6.4e-16
0.0008057
0.001386
5.785e-09
9.038e-07
0.001019
7.384e-08
9.84e-06
3.764e-11
0.0006786
1.022e-07
9.164e-05
8.583e-06
1.129e-08
2.502e-15
0.0002001
1.019e-13
3.773e-13
0.006692
8.32e-14
5.837e-07
5.217e-10
2.306e-10
1.865e-05
0.001011
1.752e-06
3.217e-07
2.184e-06
4.784e-05
0.0004197
0.0004451
4.826e-05
0.0003882
1.127e-05
1.599e-05
2.788e-05
0.001336
9.501e-14
1.171e-05
6.069e-10
3.183e-07
3.282e-09
0.006649
9.626e-09
4.616e-06
1.045e-10
0.0007614
2.858e-13
8.264e-08
2.591e-08
8.882e-05
1.92e-11
8.035e-05
0.0002013
4.401e-05
0.0001803
8.801e-05
0.0001325
1.268e-06
1.672e-05
7.077e-07
2.155e-06
9.473e-08
0.0001112
3.102e-13
1.466e-06
1.406e-13
3.917e-05
0.0003613
2.993e-06
0.001941
0.0001355
8.083e-08
0.006693
0.003061
0.006692
5.059e-05
1.594e-07
3.015e-07
0.001811
8.096e-06
0.0001334
5.622e-05
1.698e-14
9.352e-11
1.044e-13
5.445e-08
9.737e-05
1.38e-09
1.4e-09
0.0001267
3.009e-09
0.006695
6.809e-05
0.002846
1.628e-07
0.001139
0.00668
0.006679
1.284e-06
0.00185
0.0001449
1.615e-14
1.34e-07
0.006673
0.006693
4.973e-07
0.0002586
6.357e-09
1.668e-12
0.005015
8.551e-06
1.361e-07
6.51e-08
4.938e-09
1.518e-14
4.362e-06
9.324e-05
7.519e-07
2.818e-08
3.209e-05
6.378e-08
1.054e-06
1.421e-05
2.296e-09
3.589e-06
6.382e-16
0.005696
3.138e-07
4.001e-09
2.302e-09
0.006695
9.449e-05
0.006692
0.0009198