/*--------------------------------*- C++ -*----------------------------------*\
  =========                 |
  \\      /  F ield         | OpenFOAM: The Open Source CFD Toolbox
   \\    /   O peration     | Website:  https://openfoam.org
    \\  /    A nd           | Version:  8
     \\/     M anipulation  |
\*---------------------------------------------------------------------------*/
FoamFile
{
    version     2.0;
    format      ascii;
    class       volScalarField;
    location    "40";
    object      omega;
}
// * * * * * * * * * * * * * * * * * * * * * * * * * * * * * * * * * * * * * //

dimensions      [0 0 -1 0 0 0 0];

internalField   nonuniform List<scalar> 
127143
(
1.528e+08
2.873e+08
3.278e+08
1.398e+08
1.173e+07
1.415e+08
4.635e+06
8.099e+06
1.294e+07
1.888e+06
6.817e+06
1.065e+07
3.857e+08
1.183e+08
2356
3.152e+05
3.958e+07
13.39
8.684
1.256e+05
23.92
2.853e+05
0.08343
375.1
3.073e+05
4454
2.311e+04
2.281e+04
1.551e+04
13.54
903.7
5023
2.503e+04
3460
0.0417
2.436e+04
102.4
76.84
254.4
8007
8.738
0.435
0.3103
5.491e+07
12.97
2634
1.436e+04
24.21
385.6
302.7
1.983e+05
0.02521
34.47
0.1488
0.02092
1128
0.02091
0.6543
0.0221
0.1479
0.3034
9.226
105.7
0.02211
1167
0.4446
0.04367
119.5
117.9
0.08316
500.2
1.556e+04
12.89
0.0221
0.02179
1.58e+04
0.02274
57.77
1071
0.02222
1.569e+04
1.118e+05
977.6
4514
15.33
45.42
190.6
1.624e+04
0.3604
1311
0.02207
10.78
723.5
23.57
114.2
0.3919
0.3976
1459
26.56
0.04326
0.02221
354
6006
12.5
41.99
28.04
138.1
0.0835
2.256
0.02132
1908
2.003e+04
45.64
10.5
0.02174
5.26
0.02295
0.02179
0.02265
1.152e+06
0.02134
962.3
134.3
0.1737
1.493e+04
9091
11.42
0.02327
83.39
1360
92.9
129.5
68.51
55.75
4.474e+06
86.83
0.04849
16.38
1.302e+04
0.04211
0.1195
0.02227
27.7
16.85
34.51
116.2
6.713e+04
0.02213
141.6
9320
22.68
349
98.38
0.06778
282.1
14.98
0.6533
1813
23.41
1739
507.2
3.737e+05
0.02209
91.71
3848
876.1
140.6
0.5116
2415
0.02582
3281
16.67
8.463
62.55
0.2721
89.22
70.66
82.43
295
0.03195
62.13
0.03325
72.94
85.71
1275
9.055
0.08042
10.14
319.9
0.03128
42.82
113.1
0.0449
261.1
8.206e+06
11.04
0.0194
0.01934
8.832e+05
0.02177
0.02169
0.02593
3.236
87.33
4.437e+07
159.5
0.04809
43.7
13.54
0.02174
0.4856
19.81
0.02164
2324
176.9
9.14e+05
1.033e+04
47.17
69.01
0.04834
43.58
0.02184
361.2
39.92
2280
3610
2404
83.76
1066
16.23
26.42
0.03303
12.38
7.872e+05
25.92
0.08774
91.69
1.793e+07
0.02169
32.61
103.3
626.8
41.43
1695
124.9
9.128e+05
231
2.236e+04
6.814e+05
0.1008
4.368
3438
63.98
16.78
593.8
2.617
0.02324
1853
20.78
0.05132
11.3
0.02653
6.847
0.02221
100.3
744.8
457.2
589
0.6193
37.72
2083
0.269
17.44
33.43
73.06
40.26
44.25
260.7
0.5139
14.38
0.0725
0.8152
12.19
0.02175
0.02173
7.561e+06
104.4
0.02174
267.9
0.03336
98.7
0.2189
0.08725
13.05
0.02166
8.102
690.2
467.1
41.57
32.96
1174
0.4132
0.2792
4.278
2735
125.5
42.96
0.02165
13.28
42.76
150.5
3416
1258
0.05686
0.02172
662.9
53.75
1266
0.2632
2.268
0.0783
634.3
0.02795
64.5
693.2
61.86
0.03083
150.6
575.1
39.13
12.06
0.02173
0.04132
0.01941
0.01935
0.06636
2.226
8.409
12.1
126.5
0.04152
47.25
34.59
37.64
11.76
273.2
440.4
65
1021
122.3
858.9
8.189
104.1
39.31
0.02763
359.3
17.01
83.37
0.02326
578.9
13.38
93.53
19.67
299.4
285.8
0.02192
0.02177
1.437
1117
0.5126
1.003
0.02809
2155
325.5
0.02973
0.06421
543.7
6.186e+05
22.99
0.5396
28.97
5624
789.8
0.4118
0.02286
4.988e+04
0.0352
6719
11.47
38.23
0.02181
0.185
1764
628.8
330.5
856.3
0.1887
727.4
0.02756
0.02616
4218
0.02184
22.06
65.31
0.03609
34.31
35.71
67.36
0.02222
259.1
59.69
1193
0.1202
20.12
107
107.1
38.19
2848
112.1
515.4
129.4
1.886e+04
243
0.07609
16.87
0.05804
0.2713
0.08009
509.4
0.05604
0.02115
242.3
130.5
8.651
166.1
0.02192
45.69
354.4
0.0249
0.02166
0.02172
259.3
0.04921
3.532
0.02376
1277
0.02172
671.6
1.532
19.72
24.48
583
29.62
1385
0.03564
73.92
1404
397.9
57.67
59.05
59.23
62.48
18.34
2.713
60.42
0.2026
0.02195
23.39
560.7
0.02078
19.13
4.089
0.1742
58.38
0.04268
0.02028
214.4
2.972
1326
55.85
1.851e+04
594.4
309.5
1238
29.28
163.4
73.19
0.02163
1274
0.02228
419.5
173.4
38.04
126.1
1.384e+07
114.5
2.392
0.1085
4.38
0.02166
1.929e+04
0.02198
65.07
10.7
2.017e+07
1.01e+06
3.276e+06
0.02194
338.4
309.4
0.02172
11.63
183.6
99.63
15.48
25.7
605.1
18.85
1.25e+04
0.1712
23.4
6.654e+05
672.6
1070
2673
0.02199
20.82
2.127
19.7
0.02205
1776
9685
1684
0.01964
23.63
0.09351
6351
44.89
4428
16.78
0.02238
498.2
31.49
0.02081
0.4146
90.42
571.1
287.7
674.9
1551
11.18
85.59
387.1
96.3
217.6
0.02189
5363
74.26
1399
82.03
34.04
0.02212
0.02207
0.04913
482.1
8.589
0.02172
0.02928
12.88
1313
37.02
30.32
2716
1.209e+04
6.279
0.02236
0.02134
1622
24.24
116.6
0.03153
1.482e+04
62.37
183.1
0.5311
2591
0.02172
32.5
42.59
30.16
0.02715
510.2
11.28
8.1e+04
0.02026
131.1
9916
0.02171
34.07
0.02174
191.1
57.65
0.02175
799.5
495.8
1847
85.51
32.17
777.2
732.1
54.66
225.4
578.6
293.1
134.5
58.07
1768
0.02666
965.1
0.02173
7.319
0.02352
28.54
0.02116
0.02174
1.074
498.6
39
0.02135
0.02115
904.2
7617
674.6
1146
10.86
3.259
24.12
67.11
36.44
361.5
1439
0.02137
245.3
32.95
0.8773
26.24
0.02218
0.02923
70.14
8390
72.75
4.299e+04
0.02347
0.03825
127.7
277.3
0.02569
1094
0.1204
0.08296
694.6
20.26
31.74
0.09088
3.463e+07
3030
55.24
74.87
101.1
148
1800
362.3
0.02433
69.75
621.9
21.16
0.02121
244.1
0.2944
0.1791
0.01963
0.02119
4.442e+04
0.1092
611.3
113.3
337.8
13.31
0.6457
1722
0.08001
610.9
0.02162
0.02089
6.585
0.05988
852.8
0.1758
3701
10.36
824.4
0.2278
20.3
0.03665
1313
0.04292
621.6
4.85e+06
71.2
114.9
21.47
0.02863
99.42
281.3
3.515e+04
10.24
15.1
36.27
7421
39.26
777.4
8.058
466.3
116.4
41.98
11.17
0.2695
7.471e+07
0.2929
0.02561
184.7
207.2
171.2
0.02154
174.4
8.279
36.38
0.04105
4.601e+04
207.6
2668
0.04606
429.4
131.4
325.8
134.8
0.03855
23.84
2516
820.5
17.65
0.0218
35.21
310
0.02181
45.93
1.584
133.3
112.4
0.348
72.21
5371
359.5
0.01934
24.16
9.397
4910
996.7
0.1665
11.35
1287
0.01937
92.15
681.9
49.67
5.467e+05
52.43
1533
36.39
34.57
8.438
0.02193
5.587e+07
88.45
76.61
3684
41.16
390.7
177.9
402.1
0.02132
8.738
12.97
0.03871
238.6
410
140.8
130.6
0.02048
22.49
107.2
0.02163
0.02042
26.35
9.386
10.84
388.4
32
1.967e+05
19.85
0.1577
0.02123
44.38
118.6
771.3
2063
0.4488
0.05522
0.02191
2.215
1.772e+04
0.02125
0.1691
5176
102.6
4949
0.02636
31
106
0.0218
975.2
0.0212
307.6
1.863e+04
224
145.6
1.279e+04
0.0219
758.1
0.101
1576
1259
1806
1.126e+04
0.1652
0.9115
1.288
8e+04
0.02178
76.66
1047
1001
662
1.525e+04
0.05304
0.462
1682
8257
4.347e+04
375.2
1.39e+06
619.2
2.557e+05
125.5
2973
8.854
3.429e+04
0.02269
164.1
0.02726
0.02645
24.23
0.02528
77.36
13.68
8.472
3.079
0.03644
916.1
202.5
0.0218
13.01
87.82
0.03521
892.3
1.514e+05
41.79
42.07
1946
20.29
606.8
0.02169
37.88
606.9
0.02308
669.4
73.69
8.861
0.02069
2.463
19.93
4.518e+05
12.16
1.531e+05
18.07
96.57
159.1
1.505e+04
362.3
0.02358
1.005e+04
0.2707
0.02428
5.397
4.851e+05
34.94
712.9
21.47
8.565
2.94e+04
2.333e+05
380.3
0.02234
0.02183
41.65
16.88
158.5
675.7
47.37
5382
129.9
0.06318
5542
0.04414
7532
0.0216
25.68
3037
17.53
228.9
24.44
0.02177
0.02181
2514
0.1494
326.3
365.5
849.1
15.05
103.6
215.7
231.8
6.158e+04
29.89
1039
858.7
31.72
13.7
242
343.5
6089
1.783e+05
26
0.02154
0.02139
19.56
45.23
1.352
0.0208
78.31
24.44
1.295
615.7
88.23
454.6
2.172
0.02223
0.2812
1.38
1.448e+04
2712
141.8
0.2459
70.29
1025
353.8
55.02
9.343
146
185.6
140.9
6192
0.02284
1.746e+04
1.811e+04
9.217
75.27
2415
0.02174
4.593e+04
7.034e+04
0.02191
0.02154
42.3
33.3
6.497e+05
712.8
157.8
845.9
733.4
0.3479
0.6824
0.02254
913.4
19.34
393.7
8.755
7806
61.48
0.02892
4.612e+04
218.8
0.02172
280
0.02555
0.02164
50.68
0.09035
4.652e+04
0.02157
966.1
0.02181
503.4
0.07689
12.43
17.9
914
504
829.8
78.71
0.05473
0.03654
17.88
283
415
532
1.474e+04
875.3
7.036e+04
96.98
698.2
686.2
486.1
5164
0.1152
9.213
0.04449
489.3
312.8
2447
0.06559
1260
13.46
126.3
210.2
46.33
2.386
1419
10.27
125.9
428.8
1382
1325
0.02108
46.01
487.2
0.02179
241.1
868.2
0.02066
5.953
619.5
0.03451
0.1202
26.73
115.4
0.1534
0.01976
229.7
271.1
0.02161
0.09021
0.02926
24.23
331.4
27.08
0.03352
3026
1.393e+05
890.5
364.6
14.5
3.439e+04
0.07769
202.3
0.02176
49.33
30.96
180.2
211.5
3973
9823
0.02196
6.662e+05
1982
1380
91.24
1589
9.757
10.45
3138
120.5
0.032
1.342e+06
69.67
400.7
1666
255
423
102.3
7459
154.4
131.8
144.6
602.4
423.3
31.51
1.237e+05
0.1033
208
0.09091
992.7
0.01969
0.02165
60.39
4.436e+04
28.35
1.351
5.257e+04
1516
0.02179
6629
153.9
127.3
1.543e+05
6.398
140
1.349e+07
13.39
1.138e+04
14.12
125
5100
409
1667
32.17
319.9
0.07857
18.56
37.95
163
28.05
141.5
11
3.028e+04
20.29
0.2645
15.14
0.4098
0.4881
32.79
1.178e+05
0.03553
1.049e+04
3086
184.8
85.15
0.0218
11.68
54.26
0.9525
5054
1518
2499
0.02135
614.8
3171
42.03
4.489e+04
128.9
8.811
1078
0.02188
1419
132.8
1.391e+04
160.9
0.06752
15.55
0.02169
1.649e+05
5.217e+04
67.18
0.8914
24.47
0.02085
0.01977
857.3
24.35
7.972
0.0646
0.05118
0.05233
4.474
45.05
12.49
266.8
322.4
5.354e+04
1.231
1941
202.5
324.7
0.0198
846.2
13.04
144.1
6.637e+04
89.03
9.126
134.5
92.84
28.75
2.07e+05
28.41
61.86
11.86
9.457
11.5
312.4
1.718e+05
0.1064
2614
0.02118
385.3
2021
0.02031
4674
77.87
102.3
628.3
0.02138
1.105
4.349e+05
0.02175
290.5
812.6
128.5
1.776e+04
1.19
11.82
1471
4558
95.45
217.1
0.04914
180.2
1.208e+04
1.764e+04
385.4
88.24
0.02169
227.9
8.664
1694
419.3
9.458
93.75
0.02166
7.253
316.1
0.0221
10.27
0.02265
6671
10.65
3.675e+04
240.3
40.31
1042
39.52
219
768.9
3.406e+05
94.53
209.4
40.33
26.33
16.98
0.02211
139
0.02206
12.69
0.022
13.7
0.02147
320.9
175.5
0.02066
0.02161
952.5
0.1321
1356
0.08768
0.02002
26.36
45.13
0.03081
3.475e+06
5149
3.608e+05
226.9
73.93
391.2
250.5
58.92
1.795
8377
30.95
2224
692.5
58.99
64.6
7.905
0.02155
3.379e+05
67.23
6903
0.02178
6.054e+04
434.5
446
238.7
0.01973
0.01971
13.19
31.44
6.26
10.49
110.2
1.608
0.7563
2.705
11.13
3585
84.4
0.8682
31.04
11.63
1287
1024
146
437.8
20.34
0.02188
287.7
370.5
1.806e+04
32.45
0.03472
144.4
1.291
188
117.7
1859
16.69
0.02174
33.89
104
8.551e+04
1.743e+04
1.381
87.09
1725
0.1129
0.01972
2458
499.2
3.128e+05
0.05019
1.252e+05
166.8
0.02152
189.9
2018
10.03
0.09405
14.92
1317
103.3
86.65
36.27
3292
0.03997
783.4
1693
1096
0.05677
0.05663
538.5
15.5
3.019e+05
196
1390
1730
3.397e+05
1.491
460.9
0.02456
0.02175
0.0215
20.52
0.02308
9.468e+04
0.02173
1.181e+04
0.2616
109
198.4
1021
0.09439
3.236e+04
0.2659
766.5
21.17
1.536e+04
0.02166
151.5
937.4
17.91
1.577e+04
2948
36.91
2264
5005
0.04504
0.0206
1.447e+04
0.07287
0.01996
0.277
1.278e+04
0.0206
4764
0.02184
29.2
141.9
13.53
268.9
0.02091
27.85
775
100.5
0.05638
30.72
0.1466
0.02173
0.02122
40.4
6.15e+05
72.71
140.8
0.02395
4.006e+04
0.4073
0.07116
0.06059
3.143
211.1
834.3
0.02476
474.9
0.02222
42.98
0.02217
0.2268
305.9
46.05
5.991
1441
221.3
0.02119
56.1
3108
612.4
5.53e+04
1796
9.008
0.03325
9.593
5.404e+04
39.81
843.9
3.801e+04
0.07505
0.115
0.02159
119.9
294.6
79.5
0.0218
845.6
0.02175
0.2032
219.4
0.02136
8.695
0.8716
100.4
15.12
1.06
428.3
0.0219
650.9
7904
11.78
8.378
233
0.03983
147.7
96.39
4798
199.8
92.91
1017
70.75
147.2
1.243e+04
0.06648
0.1238
226.4
0.03346
309.7
28.32
0.08235
123.3
0.02393
0.3648
6338
19.43
130.1
165.7
5.805e+04
102.7
1.794e+04
2.502
0.02066
1.8e+04
205.5
0.09417
452.1
0.02731
39.43
0.02223
10.09
1.105e+04
13.77
35.27
124.6
210.6
0.02187
108.3
0.2433
23.46
1874
0.02476
133.6
3404
0.02159
0.025
141.8
0.07324
78.87
8.57
5.107
84.05
1.577
23.75
0.07054
2.796
77.19
0.02109
0.1465
1527
5.915e+04
0.02086
488.4
1.69e+04
12.66
548.5
10.54
197.4
5.757e+04
0.05804
0.1117
217
0.02495
1266
43.8
29.49
6684
221.3
0.02437
208.4
8.88e+05
3.328e+06
178.6
253.4
218.7
2.19
19.55
27.07
34.72
1634
684.2
789
475.2
2.794e+04
29.75
5.05
0.0217
1928
5.012
50.17
0.149
0.03825
219
190.5
8.471
0.02035
880
1786
124.9
422.6
16.94
6.264e+04
442.4
0.02614
284.3
2.313e+04
25.76
161.9
1.029e+05
0.01939
8211
2415
208
0.02755
28.82
12.82
1337
367.4
16.43
1994
0.03317
4.514
262.7
0.04869
13.28
0.02167
625.3
6670
186.8
2576
3.716e+04
33.21
2.155e+04
0.1081
2263
23.58
9.743
0.0345
9.692
61.11
23.44
153.1
0.06532
169.6
2.349e+05
6.28e+04
111.8
66.32
0.715
0.7158
0.02186
0.02533
77.67
0.4146
0.02165
118.8
166.4
330.3
365.1
35.35
350.1
39.13
4880
6.685e+04
7.258e+04
0.08558
154.7
1.833e+05
10.64
6935
10.25
33.95
59.61
2.326e+06
21.35
31.21
0.04334
0.05003
1164
151.7
0.02173
0.02196
13.5
2004
17.24
167.3
3.851e+04
17.65
0.02366
1592
10.15
210.4
4992
1.086
7.41
34.26
114.5
2.209
112.1
0.02188
1907
8.889
1454
17.86
295.1
8023
8.629
1651
54.07
1617
178.9
6840
0.07349
12.66
76.13
36.61
810.3
242.1
1.336e+04
982.1
0.02165
317.2
10.4
1129
120.4
0.2668
16.26
0.07484
6649
0.04844
206.7
34.31
117.1
11.93
17.21
0.4715
6.426e+04
0.2138
0.02445
2080
0.02091
22.2
0.03044
2.703
10.53
0.02151
0.3652
280.8
4707
0.02176
0.02301
11.1
42.14
297.4
0.1665
53.8
90.96
1747
718.4
30.38
136.8
125.2
0.08993
144
6.626e+04
9.086
4489
575.2
9.655
5.701e+04
0.02173
0.0206
1.488
7.341
3.695e+05
0.0218
11.83
1666
3.355e+05
747.8
1004
0.01981
0.01952
489
125.2
97.68
213
0.03147
35.82
5.082
0.02222
1567
268.9
129.1
59.94
5911
7.639
9.075
0.01978
28.33
344
1452
795.6
102.7
1.719e+04
1441
50.82
152.3
466.3
121
0.06602
163.4
1.199e+04
0.02794
0.02646
604.6
294.2
1.381e+04
1.719
1348
157.4
0.1406
0.02173
22.43
0.02211
34.64
3.867e+04
39.58
0.1207
143.9
0.04348
2.437e+04
717.6
0.06567
33.37
30.43
141.4
36.76
194.4
136.1
66.36
40.72
64.85
38.81
12.96
2952
199
71.15
364.2
2.072e+04
220.3
1273
1350
3.21
2.166
51.5
2.102e+04
0.6902
189.9
0.02225
17.28
0.02214
186.7
8.389
2.139e+04
315.6
0.07926
3082
2.149e+05
2485
34.03
108.9
1562
5342
0.2653
39.92
57.97
1.375e+05
146.4
63.25
0.2802
0.2808
0.02174
18.91
1.711e+04
15.75
4195
12.26
0.0719
4128
0.01971
47.94
0.8767
18.61
2754
0.2086
8.319
8.494
0.03596
460.5
52.76
7.103e+04
2606
158.1
0.0214
68.91
120.2
1.174e+04
1295
66.4
7.903
73.07
0.02171
416.1
1410
12.73
83.56
31.5
5254
1057
725.5
101.9
0.6379
1.457
2.747e+04
9.374
0.06212
9.239e+04
0.0677
14.15
0.02174
0.02199
114.7
0.02188
1840
144.5
31.4
17.94
1026
4559
158.9
1881
147
16.93
5.936e+05
38
114.8
2.224
2.315e+05
11.23
1.873e+04
2.283e+04
0.04323
1711
1014
12.88
13.88
1.227e+04
739.2
2933
25.44
42.89
0.02594
8.41
0.02206
1.164
13.4
1188
77.52
53.82
3.793e+04
14.77
0.02185
418.2
51.63
21.73
86.81
50.23
209.8
876.6
3026
1.612e+04
471.2
271.6
1921
106.1
402
0.06439
2.896e+05
362.4
124.4
1.769
0.02157
269.2
482.4
19.61
12.53
1.74e+04
1403
327.8
81.87
54.86
4311
0.02162
1.622e+04
9.383
0.03484
87.4
859.7
0.02166
273.7
13.79
44.69
2.271e+04
36.57
88.48
2.325e+05
47.19
245.1
0.01967
0.01961
236.8
103.9
11.21
678.5
150.1
0.02151
5985
1463
30.06
0.02173
0.02186
35.42
58.5
246.6
7.852e+05
1003
0.02836
821.9
7.171e+04
0.07994
760.6
389.5
0.1049
2.628
3133
35.83
59.41
0.01963
0.01949
0.01946
0.02019
0.07755
34.29
51.73
1112
19.64
492.7
32.39
1986
0.02079
104.8
71.89
7292
1604
9056
455.5
101.5
360.1
25.69
176.8
0.09171
131.9
4.4e+05
308.2
6837
0.2722
355.3
0.02173
2.413e+05
99.92
462
16.81
0.03021
6.594e+04
0.02179
104.2
1128
0.04245
134.9
133.2
15.03
217.1
1.433e+04
0.03794
1235
0.02066
5.225
120.7
440.9
18.77
182.2
0.0215
0.0217
0.1626
1604
1715
0.2422
17.76
154
9.962
6714
387.4
14.6
9.859
30.38
82.12
0.1583
1.108e+05
0.2368
0.02173
1.538e+04
0.02171
0.02165
0.3592
0.1077
1.21e+04
16.88
2174
36.31
418.5
0.02187
0.08344
715.5
234
13.7
0.05551
0.201
5.187e+04
7093
0.02213
1.334e+04
8808
3.719e+05
0.06825
12.53
15.38
0.07476
0.0233
12.2
241.2
4.719e+04
0.06732
842.3
2.548e+06
0.02174
471.3
3141
145.9
0.02178
1069
8.942e+04
1.47e+05
7.861e+04
0.861
138.4
7.953e+04
0.04568
129
0.02153
16.74
1266
8.286
600.5
7.615e+04
0.2023
251.9
196
0.02225
0.02866
625.6
1626
10.55
1.587e+04
116.7
3.884
12.34
25.94
605
84.78
0.02175
41.78
36.72
238.7
657.5
370.6
587.6
585.5
1.003e+05
1.151e+05
1.426e+06
658
0.04527
1789
0.02439
1384
2636
0.02175
7.412e+05
0.02221
309
1.788e+04
4188
131.5
251.2
819.6
737.3
0.01963
6.548e+05
202.8
0.05776
11.57
207
1.142e+05
1.995e+04
2.295e+05
10.79
621.3
6419
15.66
0.06554
121.3
1.303e+04
0.02088
74.97
98.33
411.4
84
52.55
11.03
6140
159.6
218.9
1.825e+04
0.06407
3958
0.07529
91.94
371.8
0.02317
0.07546
79.98
963.8
377.8
9.635e+04
0.05574
0.02171
13.54
269.6
4753
42.75
7.915
0.01962
0.0282
1530
0.01995
565.1
521.9
0.06377
180.3
73.59
2.73e+04
1.027e+05
6.038e+04
0.03215
781
136.5
178.8
12.66
9.111
2.375e+04
15.69
1775
286.8
1.226e+04
212.6
6.123
4.915e+04
29.7
110.3
25.9
0.05117
94.44
0.172
0.02183
54.88
553.8
83.88
215.9
73.33
1.881e+05
2.948e+05
10.37
2.179e+06
0.2769
0.4985
0.0302
0.04606
89.86
0.02221
777.3
8.62e+04
709.7
7493
46.52
40.63
322
107.4
13.29
829.1
16.84
8655
199.8
0.02581
222.2
113.6
0.02204
0.03537
2622
0.02185
226.5
253.3
282.1
23.44
4137
0.09617
31.3
0.03544
1012
2.093e+04
1200
100.1
0.02143
687.9
0.02154
0.4434
231
42.37
5.727e+04
227.1
771.1
9.686
3761
0.5187
0.2046
23.65
573
0.02083
15.71
0.02185
1315
2612
281
102.8
0.02154
977
416.3
108.1
5.814e+04
246.3
3812
0.0228
31.14
11.41
8.617
365.5
48.87
0.07444
2.565
0.1121
111.9
116.6
0.02068
0.02025
0.02205
0.03397
0.1253
5562
760
0.02179
240.7
62.49
169.5
0.02194
181
0.05849
2618
0.09285
4.34e+05
142.7
3068
0.04314
0.08914
6.113e+04
0.02706
160.5
246.6
389
376.8
102.4
0.02181
260.1
790.5
70.21
119.4
38.53
19.41
36.74
132.7
1217
0.0215
17.03
84.35
7261
0.09349
0.02209
425.7
2191
22.85
21.29
33.83
1009
0.03929
52.7
1136
10.9
373.4
93.16
0.02569
17.27
6.327e+04
73.92
334.1
7279
2.456
25.42
0.02166
0.02659
0.1175
0.04579
5.856e+04
172.4
0.02195
0.02239
117.9
3.039e+05
0.02194
28.15
2.156e+04
162.8
19.86
206.9
2685
107.2
35.99
861.9
1.143e+05
3173
0.02184
70.91
43.85
137.8
0.02139
0.5345
253.8
31.77
571.8
7.489e+04
7247
15.77
997.8
1.197e+05
9.708
1077
25.95
3.711
2.213
2452
4.161e+04
0.02157
309.1
137.3
0.02193
7510
16.89
2.979
0.06321
48.26
832
398.5
122.6
0.02167
0.02177
12.92
343.8
0.02
22.84
0.0245
2774
10.58
16.13
546.5
2358
19.65
80.6
0.02139
7.324e+04
17.34
4529
562.2
0.06261
718.8
43.63
269
5.746e+04
7.917
5.368e+04
0.02075
0.02124
36.58
0.04516
0.02139
1.404e+05
209.4
479.1
6041
99.48
46.67
0.02787
1.362e+05
0.0394
141.4
0.02023
0.09047
125.2
56.95
62.03
42.6
8.868
1466
0.02046
59.99
6678
6765
9180
0.121
58.47
35.08
0.02195
1495
432.4
0.5769
0.03929
164.1
5.911e+04
0.02189
0.0215
44.3
4191
10.89
2540
0.02206
9051
151.2
142.6
0.02208
0.06306
1137
336.5
3270
25.37
67.86
0.02044
842.5
0.03044
1157
9.584e+04
0.05687
247.2
10.88
1.418e+04
3.742e+04
1872
0.05085
0.02047
57.68
0.1537
0.02163
470.6
244.6
9.899
0.02032
0.06595
0.06602
0.02605
734.9
86.98
0.02173
850.1
146.9
2225
0.02565
0.02191
0.02163
0.05095
135.6
22.79
709
6.074e+04
3.597e+04
134.7
1.172e+05
5073
0.02272
5.176e+04
80.45
5143
8.912
0.1163
2.732
1.217e+04
1200
3448
617.5
0.04869
32.62
517.6
122.4
17.69
0.2107
392.1
0.1091
445
0.03586
41.42
42.5
22.17
0.1663
1157
1.127e+05
8120
0.02061
5.889e+04
45.32
0.01994
249.6
0.02181
2698
93.41
0.1177
478.8
534.9
0.0223
3.004
8.315
1.553e+04
0.02231
0.1232
1.587e+04
12.64
0.02157
3790
41.82
0.03029
0.1164
16.49
185.6
7.11e+04
673.7
91.61
10.51
1673
0.5356
0.02169
0.03835
635.2
122.8
115.1
0.02207
1.625e+05
227.7
61.53
341.6
45.76
89.34
0.02017
0.05633
742.4
218
0.03821
158.1
807.2
9.469
2.235
8.866
9.922
0.03625
8.407
60.85
78.78
41.39
0.02205
1999
0.1629
49.4
20.77
8.599
6911
86.84
4.131e+05
15.55
0.4242
0.2391
0.02118
16.96
49.66
4696
1883
223.3
489.1
3825
37.72
0.4109
84.95
685.4
1.036e+04
37.85
0.03646
1917
1.549
1701
31
9.889
32.01
238.6
0.02179
358.1
0.2472
0.02164
1.866
1911
1.301
2.814e+06
719.9
1332
0.02165
37.59
229.7
0.04861
26.01
42.28
4511
529.9
4251
0.02188
128.8
0.02065
8.554
344.5
708
19.62
789.1
2.1e+06
0.02148
0.02174
89.61
186.7
1537
3.944
136.6
879.4
26.54
14.67
0.02179
461.8
2885
0.06134
34.56
0.02156
172.1
0.04822
69
447.8
132.6
0.3179
2887
122.5
0.02512
717.3
161.9
0.4813
0.02146
0.02255
489.3
4650
49.36
8.044
95.3
16.52
186.7
51.1
0.0194
0.1564
0.476
1.148e+05
3712
2242
0.02134
660.6
150.3
3380
2202
2.486e+04
9.499
31.06
149
107.9
800.4
5334
23.99
0.07304
9.773
0.03001
2.109e+05
0.02234
13.97
571.3
65.22
14.73
676
60.7
1.546e+04
12.86
1082
54.11
12.34
470.4
1.111e+05
33.55
6.219e+04
3.376e+04
0.02175
6.883e+04
257.4
1766
3425
41.62
45.79
384.3
111.5
38.63
0.03519
14.63
17.55
123.3
33.65
83.76
0.4289
4.918
32.76
7.111e+04
52.84
1.152e+04
122.7
683.1
0.02027
893.9
95.93
5439
11.84
2.312e+04
383.6
339.2
0.07303
4458
0.06355
19.99
40.01
0.06775
1.57
25.54
52.06
211.2
415.1
33.39
202.1
46.48
2.273e+04
47.73
3.805e+05
0.03488
50.48
280.7
9.049
0.03985
694.5
0.02173
0.02196
0.02173
64.61
161.8
1353
14.31
0.07658
51.43
0.03741
3.767e+05
3211
6.782e+04
250.9
0.05519
945.7
6922
0.07359
2560
0.02187
36.6
8.583
988.5
35.36
0.02128
0.02138
144.9
9.088
0.03596
7.271e+04
176.9
0.02095
0.0218
91.64
0.03038
750
1.263e+04
0.031
16.56
865.4
558.6
474.6
7.606e+04
35.39
0.1428
69.51
304.3
0.1141
399.7
78.19
1.66
825.2
139
2.207e+06
0.02655
143.1
1.167e+04
2022
0.02183
40.95
0.02176
13.53
64.05
99.18
37.49
333.7
107.6
0.1653
2108
3058
1185
1212
1013
71.74
12.98
107.9
361.6
27.67
488.1
0.02221
6.457e+04
2.051e+04
2326
65.53
27.2
2846
723.8
0.2906
0.2711
7.419e+04
185.5
0.05447
0.03166
0.05156
399.4
806.3
31.69
5247
63.94
0.037
172.1
101.9
78.39
481.6
3.924e+05
1348
145.4
634.8
48.19
115
3752
72.88
17.88
9.312
2312
38.24
0.2468
65.29
805.1
0.08119
151
0.2715
17.79
7.513e+04
1240
0.02204
1008
16.01
2.848e+04
1824
0.02136
0.09481
842.8
0.02857
43.94
2453
951.5
9.138
0.02174
0.1868
12.42
17.2
0.08027
423.4
0.02077
680.6
28
624.8
636.5
83.35
86.66
460
924
0.16
114.5
0.02182
1.014e+05
0.03406
0.03092
609.7
0.02179
29.93
11.17
1.349e+06
0.02196
137.8
214.9
566
389.2
0.2539
85.38
38.5
366.8
3920
40.9
0.0683
0.02196
468.9
698.5
22.03
89.28
1978
4768
0.7821
0.02113
60.75
298.6
1.561e+05
90.31
98.63
0.6297
230.5
0.0215
30.36
9022
1958
0.02197
0.2124
1682
0.01979
117.7
2272
35.18
0.02195
0.022
8.203
0.02309
0.02013
0.02173
8.286
1448
2159
0.3625
162.3
18.27
16.63
0.02225
19.72
114.9
0.04137
0.6893
1849
13.3
0.02523
3099
58.89
7.871
6.458e+04
7.791e+04
0.02494
151.4
16.34
583.1
75.95
6721
0.02194
158.2
7.071e+04
11
655.2
0.859
3303
71.99
201.9
29.14
2.85e+04
0.05003
2.212e+04
45.8
0.0253
0.02858
0.02006
386.8
30.96
4852
342.8
1.124e+05
0.0689
0.01942
205.1
228.9
0.07057
0.02181
1106
10.08
1865
57.14
2942
367.9
146.6
26.48
267.5
0.01972
3.591e+04
221.1
75.99
30.44
0.06354
0.02191
31.29
13.4
457.3
7359
68.82
0.03799
75.32
16.56
0.05709
0.02184
1791
203.5
9528
281.7
33.86
2.755
82.5
20.74
13.59
126.2
0.7771
0.1319
0.02192
88.02
2.854e+04
28.38
0.4352
8372
0.5036
0.02168
20.74
0.02847
0.02203
44.34
0.01937
0.01932
9.169
0.02011
54.33
9.701e+04
592.7
13.22
0.1355
0.02113
0.02197
59.2
217.6
68.67
6.945e+04
17.09
0.03004
10.29
53.48
4331
1.086
0.02198
2.862
95.99
0.02203
0.02136
104.4
245.4
0.04986
0.02804
96.07
0.0213
1.616
0.02148
3.923e+05
2.019
1557
9.576
0.02722
0.2978
8.913
26.56
801.5
20.38
105.7
14.05
0.02214
4.835e+04
18.19
229
0.02191
801.5
423.3
135.5
1173
0.2401
551.1
25.5
0.1378
6121
0.02205
8.498e+05
38.86
2.974e+04
0.02197
241.9
0.02174
0.07744
10.14
1.316e+04
14.12
554.4
16.81
0.1136
3475
0.1279
3229
5490
8.146
0.0867
0.05531
632.6
0.02162
7.975
31.25
49.93
40.23
0.02176
1.898e+04
0.03371
413.8
1076
71.03
2004
1.394e+04
22.66
1157
123.1
1.467
21.31
0.4797
0.02172
0.02181
987.6
12.05
2.22e+04
70.42
156.2
0.02179
90.51
0.02179
0.02169
0.03166
421.7
0.1041
17.44
0.03496
61.53
0.1854
92.32
290.6
2680
0.02491
468.7
380.3
127.8
0.1787
25.24
0.02187
114.7
0.4115
110.1
16.3
0.03246
249.1
1.499e+05
593
3118
32.25
3.967e+04
1918
3.591
95.17
2733
55.08
1.769e+05
747.1
35.3
86.66
170.9
51.7
2422
707
0.03865
28.54
0.09234
570.6
3.332e+04
114.1
3229
952.9
16.21
611.3
0.03333
251.9
52.58
8.164e+04
11.9
0.0223
27.27
24.43
169.6
0.05845
73.09
176
38.26
0.4829
460.5
83.27
1.465e+04
400.5
159.8
30.7
20.53
1676
0.02447
800
16.28
0.02356
113.9
115.7
592.9
944.1
282.9
0.02202
941.9
27.96
0.07499
2.995
671
2.507e+05
220.2
0.02084
0.02468
0.3871
522.3
92.27
0.0215
4.018
632.7
731.5
1.798e+04
0.02103
261.4
8565
83.08
1.927e+05
141.8
184.2
134.9
36.29
55.27
0.02324
108.9
7464
44.67
315.8
3.968
36.93
0.02162
0.07308
638
292.4
35.06
2460
136.2
0.02171
8631
120
0.1636
487.4
1.652e+04
2.662e+04
0.04198
0.1358
0.02442
131.3
7120
1040
2686
164.6
297.8
0.02181
91.28
5.012
9.155
1.168e+04
0.5823
6.954e+04
61.57
5344
0.03279
200.7
3514
0.02169
161.2
206.3
205.6
10.54
0.0219
0.02169
0.03826
48.68
0.0217
12.13
2.457e+04
0.1072
22.9
636.1
0.03756
103.8
12.01
0.2704
5025
120.2
2.089e+04
97.17
0.02174
404.1
6121
0.0217
1.386e+04
10.88
151.6
61.95
775
38.15
439.6
14.46
12.13
0.02194
13.26
0.02178
0.05467
3007
148.8
87.86
70.48
1.899
288.4
0.02175
0.01965
0.05135
224.6
66.58
126.4
6.964e+04
17.61
0.7517
530.2
1.079
49.36
0.02135
1688
952.6
20.77
13.72
179.1
172.7
49.54
31.1
1.677
0.02238
146
23.6
143
4938
6.412e+04
756.5
0.02149
125.9
34.37
17.98
3.246e+05
0.02165
124.2
31.17
24.97
139
33.92
2.003e+05
134.6
49.59
930.5
8638
29.47
62.2
7228
4.187
0.02168
383.5
23.72
45.33
84.16
18.23
1.929
0.04478
1940
579.1
2477
26.44
1876
563.9
0.02171
355.6
58.32
104.9
15.09
0.01935
414.8
84.61
70.18
13.51
0.02133
846.5
13.25
14.45
105
207.8
171.9
62.85
740.6
652.3
0.01992
257.6
78.29
231.7
876.5
655.3
67.37
31.01
53.34
8.421
166.8
1422
6.597e+04
1371
555.9
3.754e+04
30.63
0.07642
9.055e+06
503.2
5160
0.03545
4855
4720
392.2
60.6
0.0219
2.46
0.02178
20.13
179.4
15.66
0.8391
14.9
1486
43.35
8.445e+05
15.64
358.4
2413
6.05e+04
878
284.6
23.99
0.08794
521.7
14.96
7.68e+04
188.8
0.386
0.7612
4460
3.183
0.022
0.0217
60.27
96.18
0.03823
0.02017
0.02186
1845
496.4
3.604e+04
0.02155
0.03092
101.4
0.01976
0.01991
886
0.05437
154.2
937.2
0.05308
4907
27.65
77.74
7.968
44.52
0.04799
107.3
27.94
2.56e+06
60.98
1205
3270
4013
12.45
0.03085
10.04
1477
0.02171
10.81
364.5
1348
5.204e+04
563.6
62.09
1795
0.02445
391.1
9368
290.4
122.1
147.6
0.07148
63.76
15.16
6416
168.3
215.5
0.04825
2303
1031
0.03577
32.01
0.06682
42.62
0.02598
6263
6.649e+04
0.02754
1679
177.8
0.1532
1238
116.7
0.02231
2.268e+04
168.3
229.4
1692
0.03373
14.97
2.027e+05
109.9
1280
16.43
28.28
7.945
32.5
194.1
0.05831
5.738
102.4
172.7
50.78
20.02
82.89
16.91
186.6
944.6
119
14.6
2.707
0.0218
0.09008
1340
26.8
0.01936
8.387
71.52
14.41
194.3
115.6
77.99
0.09388
1835
117.5
0.1074
77.64
220.3
0.07349
1628
0.03914
2202
9.276
0.1805
0.06496
10.44
1365
89.01
0.02093
164.6
948.2
308.8
0.1871
0.02188
11.51
586.2
1872
39
91.53
12.91
1703
13.3
33
8.96e+04
9.82
4.638
1.813e+05
1240
14.14
19.27
0.02204
4.659e+05
0.02202
49.46
165.7
364.3
405.2
474.1
7.81e+04
9.45
41.74
24.84
1.099e+05
1002
16.17
1.68e+05
2.169e+04
932.8
197.6
0.1859
1.712
13.86
143.2
0.02187
659.4
8.228e+04
0.04344
127
17.23
21.4
997.5
941.4
1.619e+05
4113
254.8
0.01954
0.01933
0.02178
1824
8003
0.4178
0.02158
0.1807
7378
24.15
1.79e+05
238.6
0.02203
1.549e+05
0.01938
5.259
11.92
0.03722
15.49
0.6288
4.293
0.05592
1068
27.85
101.2
145.2
9.504e+04
13.97
413.1
248.8
10.98
0.02213
2.541e+04
777.1
675.8
295.2
3293
554.1
366.8
0.05412
37.89
343.7
24.27
667.4
0.02906
1749
69.2
759.4
28.09
0.2074
0.2861
0.0218
308.9
69.15
309.5
808.8
11.54
2442
36.03
25.66
11.5
317.6
0.1837
3140
240.2
212.7
37.86
0.06435
24.39
0.09023
108.6
20.61
272
13.14
608.1
13.48
33.71
681.8
0.2181
6080
48.72
0.5598
0.08812
1.427e+05
527.8
355.8
54.57
2.168e+04
0.02204
2.36e+04
1119
111.6
149.4
195
140.2
194.8
21.75
183
217.3
420.3
9375
0.07315
0.02186
0.02172
147.6
521.1
7.832
9.893e+04
352.9
3.482e+04
3616
142.1
6266
7.345e+04
24.38
889.5
1880
34.7
7.657e+04
0.02166
251.5
1200
1170
0.02157
1107
45.95
261.7
451.6
270
0.02168
11.05
306.9
2857
0.02089
497.8
10.5
0.156
1.232e+06
0.03324
10.69
12.33
318.7
484.8
0.446
32.22
6.555
523.6
1633
329.8
0.0194
16.54
2.629e+06
0.02516
0.02259
5448
3151
100.9
1625
0.06136
26.26
102.8
109.6
152.2
212.6
0.01999
32.95
9.649
0.1214
0.02198
41.86
0.0212
3.276e+05
31.29
3.632
8.003
5.196e+04
0.02166
360.1
0.02
0.02216
507.3
0.4897
3790
9.106
0.04061
85.34
1179
37.04
48.61
58.42
694.4
363.2
1525
1157
1596
1.637e+04
3274
99.35
756.3
385.2
240.6
0.2359
0.02113
0.02118
1.222e+04
18.1
983.5
1.71e+05
0.02179
846.2
1.1
0.02038
22.8
1.821e+05
8.369
887.4
1.006e+04
0.02206
1695
67.96
24.31
10.11
21.62
4806
307.7
0.02174
1.858e+05
5046
0.06243
0.02332
4402
467.1
1961
924.3
172.1
684.1
0.02169
671.8
0.02118
450.4
941.2
1.648e+05
0.01956
0.01935
0.1493
200.5
0.03066
20.22
6.221
19.88
42.64
144.9
394.4
0.04618
0.02655
7.134e+04
8.262e+04
158.3
1763
0.04631
1066
0.02216
170.7
4814
1891
8485
847.2
852.8
598.9
0.2968
22.97
47.89
0.02499
0.02177
0.02174
14.39
274.6
2382
1.206e+05
433.1
0.0244
1395
2866
787.6
1.311e+05
67.52
2020
898.6
281.1
0.05367
8.64
18.03
1.07
0.08277
2515
41.92
77.79
37.36
1207
0.3436
0.01973
6.957e+04
14.53
11.65
79.73
8.446e+04
18.67
0.02082
338.2
42.63
225.8
23.52
190.9
1352
4.295
270.1
12.65
0.06434
230.7
0.04324
0.07665
1.586
1296
41.58
3116
31.2
85.47
68.59
0.02827
184.4
550
0.2326
102.5
5.546
6.932e+04
0.03004
0.02364
211.3
195.9
202.3
44.59
8.015
8598
0.06532
0.02183
62.46
7140
0.0245
0.5644
104.8
0.02159
7.408e+04
0.04958
75.55
122.2
169.9
1.617
1202
8484
7.178
0.0598
0.02172
27.53
87.26
230
21.04
0.02132
0.02019
0.02173
330.4
244.6
402
0.05354
2133
77.88
872.9
93.85
1798
0.5132
0.03006
1.509e+04
0.02187
2114
46.61
0.03001
167
247.2
1231
283.1
388.2
18.94
18.56
0.07002
8447
4463
6872
0.176
0.7197
0.02169
7.487e+04
0.02159
698.3
6355
0.02212
14.79
134.6
931.9
0.08176
18.61
5.017e+04
23.17
0.02166
22.85
868.4
73.28
229.9
18.49
59.65
5.847e+04
11.42
0.0207
0.02253
4.21e+04
50.48
625.9
8.777
96.08
0.02117
0.02193
7.241
2.727e+05
6440
1097
553.6
2.707
502.4
5837
329.4
592.2
0.02189
1541
8.227
815.4
28.12
23.86
0.0216
1587
17.57
5.909e+04
6.222e+04
10.16
33.41
4.429
4062
0.027
9.226
6.199e+04
1381
445.2
7135
2.534e+04
562.7
239
0.1113
2527
701.1
2491
89.29
0.02625
4123
2.556e+04
0.02172
511.4
1.36e+04
1099
2378
60.11
25.1
268.2
81.07
0.03319
170.9
0.02211
186.3
0.09762
5.582e+04
0.1182
1.572e+04
89.98
698.4
17.18
16.02
1621
11.54
302.9
2924
107.9
68.61
9.181
55.68
201.8
2517
75.72
0.0244
101
47.14
438.8
325.6
197.3
957.7
79.53
0.02492
90.98
8.855e+04
24.41
12.54
335.7
0.03918
67.77
0.02156
105.4
2.271e+06
3.325e+05
1493
45.03
77.08
0.021
0.05258
32.39
41.49
127.1
19.77
0.02181
29.88
132.4
46.31
112.8
0.02166
2614
5778
2.337e+05
8.796
51.83