/*--------------------------------*- C++ -*----------------------------------*\
  =========                 |
  \\      /  F ield         | OpenFOAM: The Open Source CFD Toolbox
   \\    /   O peration     | Website:  https://openfoam.org
    \\  /    A nd           | Version:  8
     \\/     M anipulation  |
\*---------------------------------------------------------------------------*/
FoamFile
{
    version     2.0;
    format      ascii;
    class       volScalarField;
    location    "40";
    object      p;
}
// * * * * * * * * * * * * * * * * * * * * * * * * * * * * * * * * * * * * * //

dimensions      [0 2 -2 0 0 0 0];

internalField   nonuniform List<scalar> 
127143
(
-0.193
-0.2072
-0.1952
-0.1948
-0.5628
-0.1947
-0.6206
-0.599
-0.5962
-0.3355
-0.4503
-0.6234
-0.1846
-0.195
0.5011
-0.1919
-0.1983
-0.0811
-0.2003
-0.1985
-0.2648
-0.1853
0.00897
-0.1216
-0.1853
-0.04601
-0.3119
-0.3098
0.2234
-0.0144
-0.1843
-0.04483
-0.501
-0.2669
0.1195
-0.5012
-0.2135
-0.2642
-0.1218
-0.1919
-0.2005
-0.2077
-0.1809
-0.1837
-0.07746
-0.2671
0.2191
-0.2159
-0.03156
-0.1435
-0.1924
0.02729
-0.275
-0.214
-0.0008366
0.03464
-0.0007815
-0.109
-0.008778
-0.2126
0.3757
-0.2261
-0.1558
-0.002138
-0.2805
0.102
-0.1032
-0.1536
-0.1524
-0.0001568
-0.143
-0.3117
-0.1905
-0.00914
-0.003111
-0.3101
-0.009396
-0.227
0.02933
0.0004585
0.2082
-0.1979
-0.267
-0.1891
-0.1935
-0.2257
-0.11
-0.3624
0.1032
-0.582
0.003087
-0.2336
-0.5523
-0.2648
-0.2689
-0.03739
-0.2038
-0.1565
-0.2392
-0.1004
0.0003676
-0.03322
-0.5893
-0.08419
-0.2256
-0.2391
-0.04799
-2.493e-06
0.2305
0.0021
0.5022
-0.3625
-0.2674
0.319
0.00592
-0.03655
0.01179
-0.003014
-0.009222
-0.1953
0.002133
-0.2653
0.1365
-0.08578
0.2117
-0.06566
-0.2375
-0.03396
-0.2801
0.06627
-0.2452
-0.2671
-0.1256
-0.2268
-0.1987
-0.245
-0.0854
-0.2655
0.3071
-0.1115
0.0344
0.01483
-0.2716
-0.2672
-0.2751
-0.4132
0.3519
-0.002102
-0.2672
-0.6256
-0.09649
-0.0173
-0.2664
0.1449
0.4456
-0.1932
-0.11
0.1206
-0.2157
-0.1412
-0.1762
0.2396
0.002958
-0.2448
0.04102
-0.2804
-0.2166
0.2504
-0.458
0.05693
-0.1858
-0.2672
-0.02902
0.06456
0.0005067
-0.187
-0.4182
-0.2802
-0.1074
-0.00562
0.06496
-0.004337
-0.188
-0.1866
0.06761
-0.2255
-0.07141
0.3085
-0.1246
-0.02527
-0.2742
-0.2752
-0.08309
-0.00103
-0.1979
-0.2519
0.000117
-4.24e-05
-0.2098
0.01097
-0.009736
0.0692
0.01053
-0.2136
-0.1939
-0.1751
-0.01285
-0.03349
-0.01283
0.005916
-0.1809
-0.1914
0.008346
-0.4608
-0.2465
-0.198
-0.1873
-0.0176
-0.2644
-0.01436
-0.402
0.0004546
-0.01453
-0.2748
-0.15
-0.1867
0.04152
-0.2658
-0.1937
-0.2359
-0.2654
-0.005304
-0.1897
-0.193
-0.2654
-0.07098
-0.2449
-0.1904
-0.00992
-0.2733
-0.2751
-0.2847
-0.195
0.1181
-0.2738
-0.1952
-0.018
-0.3061
-0.1983
-4.492e-05
-0.3106
-0.09513
0.01381
-0.2668
0.02312
0.2167
-0.03319
-0.5066
0.03676
0.0992
-0.2572
-0.007905
-0.2325
0.01526
-0.277
-0.2834
-0.2332
0.4536
0.3383
-0.2639
-0.02248
0.001725
-0.2129
-0.2733
-0.1634
-0.2742
-0.2673
-0.04941
0.002413
0.0794
-0.0001261
-0.03563
-0.08421
0.007649
-0.001069
-0.2013
-0.2562
0.00568
-0.05986
-0.00472
-0.2756
0.01255
-0.06953
-0.01465
0.005781
0.2369
-0.14
-0.1897
-0.195
-0.2634
-0.09034
0.06145
0.1715
-0.0359
-0.1552
0.3545
-0.03253
0.008549
-0.2434
-0.1006
-0.0568
-0.1892
0.02154
-0.0002155
0.01039
-0.513
-0.2689
-0.1007
-0.2149
0.0003233
0.01014
-0.1691
-0.06368
0.01312
-0.5097
-0.2707
0.08676
-0.1882
-0.1904
-0.411
-0.2254
-0.001416
0.1158
9.191e-05
-3.015e-05
0.1451
0.2218
-0.02834
-0.2257
-0.2594
-0.1083
-0.01943
-0.2742
-0.2742
0.473
-0.05986
-0.2669
-0.2688
-0.08267
-0.284
-0.08692
-0.2099
-0.1877
-0.2742
0.07585
-0.2659
-0.2669
-0.3908
-0.00236
-0.1897
-0.2098
-0.1543
-0.1879
-0.1661
-0.1375
-0.001361
0.01076
-0.004107
-0.2697
-0.0003031
0.4311
-0.06464
-0.09539
-0.1586
-0.02543
-0.1718
-0.1145
-0.1875
-0.2338
-0.0009657
-0.2347
-0.06487
-0.07483
0.06205
0.01121
-0.1915
0.02881
-0.1907
-0.2528
-0.2609
-0.01009
0.2003
-0.1888
0.02813
-0.1248
-0.1626
0.1964
-0.1822
0.0771
-0.006933
-0.1676
0.0003631
-0.2668
-0.1881
0.02352
-0.08102
-0.2257
-0.1186
0.00233
-0.1075
0.2211
-0.05555
0.03375
-0.2179
0.139
-0.2689
-0.2549
-0.02148
-0.2682
0.1661
-0.2168
-0.2143
-0.2493
2.766e-05
-0.236
0.03734
-0.1692
0.06545
-0.2846
0.004177
0.001175
-0.2482
-0.1872
-0.1944
-0.2963
-0.00148
-0.05343
-0.2675
0.02636
0.00602
0.005357
-0.1441
-0.08321
0.2209
0.0398
-0.1568
0.01263
0.3932
-0.003958
-0.1925
-0.2596
-0.08116
-0.08112
-0.271
0.1278
-0.2098
-0.08296
-0.2878
-0.2144
-0.2661
-0.1251
-0.2792
-0.263
0.3137
-0.2793
0.0006619
-0.002751
-0.2689
-0.2633
-0.0004992
-0.2404
-0.2345
-0.08623
-0.2687
-0.01614
0.0002171
0.4736
-0.231
-0.2023
-0.2743
0.2905
0.402
-0.2734
0.02304
0.2221
-0.2957
-0.2729
-0.008822
-0.1409
0.02877
-0.4961
-0.1116
-0.2753
-0.4089
-0.1945
-0.242
0.4093
-0.09128
-0.2733
0.008667
0.287
-0.003648
-0.1945
-0.2519
-0.2003
-0.2096
-0.1842
0.003965
-0.2658
-0.3142
0.01011
-0.2145
0.1388
-0.2296
-0.05666
-0.2596
-0.07868
-0.2405
-0.2704
0.0004855
-0.1901
-0.1853
0.1746
-0.1148
-0.1859
-0.00959
-0.09634
0.008844
-0.2613
0.002865
-0.1439
-0.5905
-0.1928
-1.8e-06
-0.269
-0.0565
-0.1857
0.2416
-0.507
-0.2539
0.03134
-0.2085
0.1602
-0.0005702
0.0611
-0.2644
-0.137
-0.1673
-0.2633
-0.2259
-0.2524
-0.2809
0.1577
-0.2246
-0.2484
-0.01673
-0.194
-0.2539
-0.05922
-0.1016
-0.1996
0.001923
0.002345
0.09582
-0.2668
-0.2694
0.01135
3.661e-05
0.1536
0.198
-0.2242
0.2226
-0.2164
-0.2329
0.01213
-0.008072
-0.001722
-0.1966
-0.2463
0.01093
0.0004222
-0.3061
-0.1121
-0.2605
-0.002746
-0.07251
0.01145
-0.2257
-0.1896
-0.2621
-1.652e-07
-0.2242
-0.2575
0.2363
0.0002128
-0.04839
-0.1866
0.005308
-0.08086
0.009193
-0.1608
-0.2732
0.007596
-0.2659
-0.06952
-0.1901
-0.272
-0.2713
-0.08641
-0.07432
0.4856
-0.1238
-0.5403
-0.1893
-0.1895
-0.2772
-0.1295
0.0004717
-0.006163
0.008788
0.468
-0.03641
-0.2714
0.001222
0.005951
-0.1125
0.1702
-0.2655
0.0003926
-0.001657
-0.1938
-0.3959
-0.267
-0.1324
-0.2
0.221
-0.2589
0.2207
-0.2742
-0.247
-0.2837
0.0003835
-0.2893
-0.2738
-0.0331
-0.2566
0.003463
2.142e-05
-0.2714
0.3056
-0.274
-0.1871
-0.03547
-1.326e-05
-0.236
-0.2797
0.06637
-0.2771
-0.02714
0.009469
-0.2427
0.02306
-0.2738
0.1429
-0.1843
-0.187
-0.2144
-0.2098
-0.2561
-0.2732
-0.07108
-0.2727
0.03426
-0.2784
-0.1867
-0.2668
-0.001825
-0.04983
0.1202
0.3483
-1.561e-05
-0.001801
-0.1997
-0.09068
-0.02495
-0.2741
0.3154
-0.2421
-0.2395
-0.1511
0.271
0.03788
-0.008331
0.0009233
-0.3298
0.02961
-0.2697
0.3463
0.1784
-0.2061
0.175
-0.1778
-0.1954
1.718e-05
-0.1795
-0.01823
0.01294
-0.2006
-0.05285
-0.2757
-0.2337
-1.115e-05
-0.1006
-0.1318
-0.2006
-0.1949
-0.2649
-0.2742
-0.6286
-0.2548
0.2847
-0.2104
0.02211
-0.1011
-0.09931
-0.237
-0.008378
-0.1915
0.1221
0.05768
0.002926
0.2024
-0.1015
-0.00478
-0.1869
-0.2121
-0.2242
9.576e-06
-0.1872
-0.249
-0.07771
-1.858e-05
-0.2726
-0.1937
-0.2698
-0.2776
-3.446e-05
-0.2261
-0.1856
-0.2607
-0.2675
0.01219
-0.2743
0.4915
-0.01691
-0.02641
0.005701
-0.2733
-0.2422
0.06148
-0.04985
-0.07154
-0.2334
2.124e-05
-0.226
-0.2185
-0.1721
-0.05365
-0.2174
-0.2143
-0.226
1.501e-05
-0.2298
-0.2423
-0.2736
-0.1924
-0.2734
-0.1931
-0.2686
-0.193
0.01759
0.003918
-0.1854
-0.2509
-0.2719
-0.1988
-0.2166
-0.2148
-0.231
-0.1423
-0.001676
-0.2082
-0.07743
4.582e-05
-0.2357
-0.493
-0.05583
0.1283
0.0003091
-0.2587
-0.1869
-0.00855
0.0003037
-0.2553
-0.2246
-0.2003
-0.2121
-0.2248
-0.1971
-0.06975
0.2533
-0.001942
-0.2353
-0.2154
-0.1771
-0.1554
0.2497
0.0002159
-0.009438
0.01317
-0.3148
-0.002009
-0.1656
0.3375
-0.07591
-0.06079
-0.0004934
-0.1898
-0.08241
0.0008751
-0.08303
-0.001196
0.2694
0.5022
-0.2744
-0.2752
-0.1949
0.003539
-0.2623
0.1478
-0.1445
-0.1873
-0.07014
-0.4704
-0.2164
-0.01288
0.1907
-0.05024
0.002232
-0.2601
0.0952
-0.426
-0.1867
-0.05188
0.0002348
-0.08833
-0.1964
0.01744
-0.2846
-0.3424
0.4987
-0.3863
-0.3843
-0.2656
-0.2002
-0.2031
-0.1718
-0.001296
-0.06327
3.994e-06
3.537e-06
-0.2712
-0.04158
-0.275
-0.1754
0.3367
-0.0991
-0.04618
-0.5357
0.008538
-0.009599
-0.2146
-0.2208
-0.04467
-0.267
-0.2106
-0.1913
-0.008452
0.5005
-0.2679
-0.2107
0.007767
-0.2755
0.01305
-0.002436
-0.2658
-0.2525
-0.2267
-0.0004814
0.0005161
-0.2144
-0.1971
0.1272
-0.211
-0.2461
0.214
5.559e-05
-0.1863
-0.2841
7.385e-08
0.3161
-0.2155
1.307e-05
0.1971
-0.1853
-0.2504
-0.3388
-0.1642
-0.04387
-0.1855
-0.1497
-0.1077
-0.007188
0.005219
-0.01774
0.2494
-0.224
-0.2669
0.1962
0.1849
-0.1852
-0.1605
0.1837
-0.1201
-0.2898
-0.004852
-0.2184
-0.191
-0.2684
-0.2564
-0.2453
0.006802
0.01844
-0.2016
0.04888
-0.2034
-0.07327
-0.2062
-0.207
-0.2722
-0.3028
-0.2813
-0.06541
-0.2741
-0.1689
-0.2484
-0.07878
-0.215
-0.0007757
-0.217
-0.1909
-0.1854
-0.2448
-0.00469
-0.003493
-0.2264
-0.2062
-0.03279
0.0002921
0.2429
-0.2589
-0.1208
-0.2128
-0.2719
-0.2379
-0.2793
0.002429
-0.0127
-0.1379
0.1515
-0.1619
-0.1905
0.2277
-0.2598
-0.2709
-0.125
-0.1437
-0.2089
0.2331
-0.09165
-0.2165
0.199
-0.004738
-0.2319
-0.1854
-0.218
-0.2723
0.5002
0.0008752
-0.264
-0.01677
-0.0001211
-0.001917
-0.2756
-0.2655
-0.1854
-0.1881
-0.06047
0.1494
-0.2254
-0.01985
-0.05872
0.001822
-0.228
-0.1916
-0.2262
-0.001339
-0.1854
-0.2216
-0.0002962
-0.07233
-0.1951
0.003919
-0.2734
-0.0001132
0.006811
-0.0666
0.0009311
-0.28
0.003907
-0.08209
-0.00199
-0.5113
-0.007565
-0.2108
-0.08678
-0.01616
-0.05805
-0.241
-0.09264
0.0007893
-0.01052
-0.2684
-0.0285
-0.2136
-0.2303
-0.1793
-0.2291
-0.2372
-0.2722
0.04899
-0.315
-0.104
-0.07554
0.07614
-0.2141
-0.001255
-0.2694
-0.1861
-0.0351
-0.0001601
0.3776
-0.2543
-0.1191
0.05181
-0.2745
-0.07005
-0.2683
-0.2545
-0.1185
-0.1909
0.04768
-0.1875
-0.0002601
-0.1538
-0.2698
0.004445
-0.2683
-0.2785
-0.0001515
0.008572
-0.1858
-0.02378
0.06164
-0.267
-0.1905
-0.03025
-3.059e-05
-0.2663
-0.2502
-0.009552
0.02549
-0.0484
-0.2576
-0.2624
-0.03248
-0.04576
-0.1854
-0.1853
-0.003325
-0.04885
-0.2346
-0.1733
0.0002057
-0.1091
-0.002571
-0.2413
0.2855
-0.2704
0.04921
-0.1867
-0.2722
0.002975
-0.1865
-0.2374
-0.2515
-0.13
-0.5022
-0.2499
-0.1984
-0.1529
-0.06804
0.1131
-0.1825
-0.2058
-0.1741
-0.004291
-0.05784
0.3543
-0.1894
-0.209
-0.03926
-0.228
-0.2757
-0.07824
-0.1076
-0.2453
-0.2166
-0.08406
-0.001544
-0.05629
-0.04075
2.934e-06
-0.003625
-0.2698
-0.185
-0.2213
0.0006721
-0.2683
-0.2082
0.005957
-0.4123
-0.0675
-0.2756
-0.1954
0.07049
-0.2099
-0.1851
-0.2113
-0.2146
-0.2302
-0.07849
-0.2787
-0.06068
-0.1345
0.21
-0.2717
-0.06985
-0.1678
-0.2649
-0.2436
0.02517
-0.1606
-0.2055
-0.1855
-0.2093
-0.04218
-0.1977
-0.1964
-0.2375
-0.0444
-0.2168
-0.02557
-0.3255
-0.2488
-0.2143
-0.2284
-0.002153
-0.226
-0.2747
-0.2424
-0.2161
0.01403
-0.1378
0.002236
-0.02116
-0.1857
-0.2672
-0.05197
-0.2832
-0.2225
-0.2063
-0.01839
-0.2019
-0.2218
-0.4194
-0.2694
0.008328
-0.2621
0.004222
-0.3169
-0.006845
-0.2171
-0.01309
0.03486
0.0001889
2.774e-05
-0.1884
-0.192
-0.212
-0.1712
-0.000302
-0.0003118
-0.2687
-0.2546
-0.2487
-0.2984
-0.07874
-0.09107
0.05387
-0.07933
-0.2019
-0.2314
5.854e-05
-0.1806
-0.2393
0.02816
-0.06125
-0.2659
-0.2406
-0.2322
-0.1545
-0.2685
0.2752
-0.2316
-0.2637
-0.208
-0.2465
-0.1236
-0.04951
0.1903
-0.2008
-0.1859
0.001789
-0.1303
-0.5967
0.0001317
-0.3415
-0.03536
-0.2209
-0.04256
-0.00305
0.09127
-0.1794
0.001141
-0.1646
-0.2387
-0.1174
0.4695
-0.009579
-0.09375
-0.1867
0.04412
-0.2309
-0.2716
0.1641
0.02477
-0.1965
-0.4397
-0.3411
-0.2412
-0.004158
-0.3038
-0.2201
-0.1544
-0.4829
-0.2175
-0.2363
-0.002928
-0.05471
-0.226
0.002408
-0.2065
-0.0001361
-0.6193
-0.2027
-0.189
-0.2192
-0.2747
-0.3973
-0.2669
-0.1412
0.08793
-0.3941
-0.2555
-0.2385
-0.2733
-0.2669
-0.2131
-0.0009366
-0.1907
0.0002703
-0.2389
0.004512
-0.1947
-0.003259
-0.3238
-0.208
-0.0002099
0.006651
-0.1884
-0.2014
-0.2488
0.003264
-3.666e-05
0.2108
-0.2613
0.07787
-0.1851
-0.2402
-0.1949
-0.06685
-0.1009
-0.08286
-0.03104
-0.1903
-0.201
-0.1814
-0.1894
-0.2196
-0.2772
-0.2738
-0.2777
-0.2109
0.003604
-0.391
-0.2613
0.16
0.004449
-0.06593
0.1466
-0.06835
-0.197
6.231e-05
6.679e-05
-0.1402
-0.2306
0.01608
-0.2288
-0.07567
0.002988
0.3252
0.001139
-0.06585
0.0974
-0.3065
-0.02804
-0.2593
-0.1287
-0.2783
-0.2583
-0.01993
-0.07073
-0.2318
-0.01861
-0.1862
-0.1863
-0.04782
-0.274
-0.02477
0.0236
0.004689
-0.08673
-0.187
-0.2804
-0.1316
-0.003153
-0.2083
0.1119
-0.06917
0.4244
-0.03363
-0.2519
-0.2374
-0.1784
6.269e-05
-0.4498
-0.2637
-0.1909
-0.1241
-0.2087
-0.2023
-0.004971
-0.2851
-0.1917
-0.2465
-0.1144
-0.2656
-0.1882
-0.06206
-0.2829
-0.1885
0.3142
0.004992
0.3394
-0.258
-0.1327
-5.718e-05
5.846e-05
-0.1026
-0.3192
-0.5435
-0.4509
-0.1191
-0.1672
-0.3876
-0.001478
-0.2131
-0.02881
-0.008891
-0.00404
-0.2125
-0.0005294
0.1186
-0.004143
-0.543
0.0432
0.2723
-0.324
-0.1617
-0.0002399
0.5017
-0.2149
0.1144
-0.2479
-0.2671
0.003497
-0.2693
-0.2258
-0.2463
-0.1883
-0.1855
-0.2311
-0.5265
0.1908
-0.0361
-0.0004277
-0.2025
-0.000282
3.245e-05
0.01484
-0.1856
-0.000447
-0.1796
0.0008609
-0.2718
-0.2749
-0.2599
0.05381
0.0008161
-0.2214
-0.2665
-0.1897
-0.1186
-0.06789
0.06409
-0.002302
-0.001182
-0.2751
0.5021
0.05907
-0.0657
-0.03945
-0.2173
-0.03375
0.05626
-7.664e-05
0.1008
-0.2337
-0.1423
-0.04312
0.179
0.02784
-0.2745
0.002825
-0.07098
0.1397
-0.19
0.2622
0.01176
-0.2617
-0.001828
-0.2741
-0.1213
-0.2233
-0.06594
-0.06672
-0.2353
-0.02158
0.156
-0.2405
-0.2747
-0.4627
-0.1936
0.0001499
-0.2039
-0.007096
-0.2877
-0.01262
-0.2814
0.005824
-0.1901
-0.00342
-0.08188
-0.2307
-0.002267
-0.226
-0.1336
0.2129
-0.2632
-0.002984
-0.1082
-0.001881
0.05165
0.2692
-0.02855
-0.2041
-0.04544
-0.01019
-0.277
-0.1881
0.3893
0.2119
-0.1953
-0.08375
-0.2702
-0.2796
0.4633
-0.09886
-0.2041
0.1828
0.003451
-0.06865
-0.2561
0.2678
-0.08669
0.04134
-0.0008123
-0.1856
-0.2188
-0.2671
-0.2206
-0.03073
-0.2167
-0.09195
-0.06403
-0.0004588
-0.09038
-0.03381
-0.06375
-0.08801
0.001542
-0.2729
0.001883
-0.2516
-0.05384
-0.2559
0.2742
-0.01988
-0.03303
0.004809
-0.07212
0.2852
0.2103
-0.349
0.02725
-0.1243
-0.07493
-0.005286
0.02832
-0.1866
0.0001801
-0.279
0.03158
0.02485
0.2777
-0.05195
-0.1932
0.0003184
-0.241
-0.2733
-0.0002732
0.1097
-0.423
-0.2571
5.516e-05
-0.2178
-0.172
-0.2437
-0.3237
-0.2199
-0.1085
-0.2574
0.0001279
-0.0004487
-0.187
-0.03641
-0.2737
0.2926
-0.1993
-0.1713
-0.2704
0.03258
-0.2839
-0.1936
-0.3907
-0.1892
-0.1868
-0.2686
-0.1166
-0.21
-0.1053
-0.1931
-0.2574
-0.1889
-0.186
0.2161
-0.2266
-0.2444
-0.07729
0.01146
-0.5025
-0.1044
-0.2477
-0.1815
-0.09348
-0.02006
-0.1893
-0.2178
-0.0001861
0.06534
-0.06522
-0.2708
-0.2763
-0.2485
-0.03197
-0.004365
0.01391
-0.2671
-0.1855
-0.2669
-0.05422
-0.09699
1.418e-05
-0.409
0.4998
-0.0829
7.417e-06
-0.2164
-0.2154
-0.1218
-0.272
-0.1925
-0.1135
-0.0002738
0.3009
-0.04408
-0.01653
-0.1972
-0.01231
-0.1088
-0.5753
-0.1332
-0.1903
-0.5749
-0.2079
-0.07252
0.0003058
0.08141
0.1296
-0.2047
-0.09033
-0.1922
-0.1115
-0.2027
-0.1223
-4.416e-05
-0.006741
-0.1496
-0.5381
-0.2142
-0.2735
0.04398
0.1627
0.01204
0.04384
-0.2819
-0.03107
0.004309
-0.0927
-0.1173
-0.09374
-0.1969
-0.01251
0.05348
-0.2691
0.1903
-0.2375
-0.1855
-0.05314
-0.04039
-0.1523
-0.2287
-0.1877
-0.2121
-0.0745
-0.1674
-0.1921
-0.1592
-0.116
-2.279e-05
-0.08041
-0.1917
-0.211
-0.001988
0.004697
-0.2418
-0.05632
-0.194
-0.03738
-0.1697
0.4748
-0.001435
-0.1185
-0.2046
-0.2036
-0.07938
-0.2287
0.01878
-0.2746
-0.2607
-0.05655
-0.2738
-0.0002911
-0.1913
-0.2021
-0.06783
-0.176
-0.0583
-0.2673
-0.0008303
-0.1153
-0.2688
-0.257
-0.1205
-0.1855
-0.06897
-0.2229
-0.2267
-0.234
-0.2689
-0.201
0.4094
-0.2241
-0.01115
-0.1941
-0.2084
-0.05872
-0.0319
0.0003685
-0.2645
-0.1832
-0.2755
1.245e-05
-0.2083
-0.1903
-0.1971
-0.1996
-0.2683
-0.1849
-0.2469
-0.0659
0.004334
-0.2166
-0.0007023
-0.2058
0.07249
-0.06472
-0.2434
0.002126
-0.06215
-0.1597
-0.1866
-0.002957
-0.03239
-0.1982
-0.1073
-0.315
0.009876
-0.2737
-0.1953
0.03175
-0.1356
-0.2372
-0.3152
-0.2713
-0.07696
-0.1005
-0.1852
-0.2289
-0.5904
-0.1469
-0.236
-0.03199
0.01036
-0.0004452
0.1523
-0.1536
-0.3616
0.006257
-0.2602
-0.2224
-0.5828
-0.2391
-0.01981
-5.345e-06
-1.028e-06
-0.1024
-0.2703
-0.1896
0.4445
0.09392
-0.2576
-0.0776
0.002583
-0.1129
0.009232
-0.05967
-0.19
-0.1317
-0.1071
0.07241
-1.442e-05
-0.0778
0.07279
-0.01842
0.08435
-0.2651
0.3927
-0.1886
-0.2747
-0.147
-0.2699
-0.2653
-0.02478
-0.353
-0.2115
1.703e-05
1.322e-06
-0.2274
-0.2044
-0.1637
0.223
0.2296
-0.2743
0.0004694
-0.002667
0.2333
-0.002308
-0.2611
0.04268
-0.4048
-0.02762
0.02965
-0.0004526
0.37
-0.4995
4.789e-05
-0.07831
-0.05103
-0.06641
-0.1976
0.1525
-0.2631
-0.2721
-0.2689
-0.2234
-0.09065
-0.228
0.1695
-0.007811
-0.2644
-0.1865
-0.5706
-0.1956
-0.1923
-0.2194
0.298
0.2226
-0.01801
-0.05233
-0.06093
-0.2779
-0.02419
-0.2045
0.001884
-0.06956
-0.2186
-0.05372
-0.2468
0.06796
-0.2513
0.2016
-0.1554
-0.2687
-0.06935
-0.1518
-0.3293
-0.0003476
-0.1973
-0.169
-0.2806
-0.2435
-0.2298
-0.1185
-0.01175
0.005692
-0.2686
-0.0005301
-0.05719
-0.1868
-0.1976
-0.179
-0.2913
4.218e-06
-0.2707
-0.05575
-0.1917
0.2629
-0.09997
0.01829
-0.207
-0.0207
0.1825
-0.09018
-0.2682
-0.2053
-0.1851
0.002841
-0.2148
-0.1782
-0.2007
-0.4813
-0.1171
-0.218
-0.275
0.01248
-0.01135
0.2522
0.2275
0.2763
-0.2732
-0.2759
-0.1165
0.1534
-0.4318
-0.2338
0.4377
-0.1853
-0.2116
-0.1678
-0.2216
8.679e-05
-0.2359
0.01059
0.002147
-0.4108
-0.01848
-0.2087
0.05009
-0.2534
-0.2684
-0.08835
-0.2787
-0.2355
0.4261
-0.2467
-0.194
-0.1943
-0.2624
-0.2426
-1.69e-05
-0.1985
-0.2527
-0.2139
-0.194
2.645e-05
-0.2473
-0.1209
-0.06078
-0.256
-0.1862
-0.549
-0.2312
-0.2492
-0.263
0.0272
-0.206
0.004327
0.01384
-0.2542
-0.1857
-0.2838
-0.2762
-0.1757
-0.2387
-0.01275
-0.2706
-0.2504
-0.2506
-0.09472
-0.2652
0.4776
-0.05604
0.177
-0.07153
-0.2206
-0.133
-0.1867
-0.2414
-0.217
0.1707
-0.1952
-0.2749
-0.07981
0.2168
0.002337
-0.3066
-0.2696
-0.2099
-0.05626
-0.07214
-0.2683
-0.4352
-0.2583
-0.2702
-0.5951
0.003576
-0.1907
-0.233
-0.09513
0.06324
0.07627
-0.01184
-0.2676
-0.2498
0.05299
-0.5435
0.09331
-0.2733
-0.3384
-0.2328
-0.09623
-3.162e-05
2.292e-05
-0.1328
-0.2732
0.07976
-0.3235
-0.1413
0.003041
-0.2761
-0.01089
-0.2722
0.00521
-0.01222
-0.2749
-0.2671
-0.1384
-0.5251
0.03885
-0.0009464
-0.1342
-0.2057
-0.004053
-0.02995
-0.1611
-1.33e-05
-0.04442
-0.2315
-0.2322
-0.1947
-1.697e-05
-7.964e-06
-3.538e-06
-1.14e-05
-0.05731
-0.1893
-0.01849
0.1992
-0.06934
-0.1967
-0.266
-0.2918
1.16e-05
-0.266
-0.2138
-0.1856
-0.2768
-0.1854
-0.1865
-0.08823
-0.0734
-0.2708
-0.1471
-0.04772
-0.08394
0.3799
0.02676
-0.1024
0.3697
0.2707
-0.002767
-0.1992
-0.2477
0.003798
-0.1143
0.06564
0.2012
-0.002944
-0.2119
-0.276
-0.000408
-0.2744
-0.2238
-0.263
-0.1926
-0.1961
-0.08856
-0.233
0.0003881
0.2374
-0.1842
-0.2206
-0.2179
0.2016
0.004091
-0.01294
-0.2143
-0.1861
-0.2472
-0.03347
-0.2617
-0.2781
-0.0502
0.4583
-0.07306
-0.2561
-0.2088
-0.1894
-0.2306
-0.07629
-0.1688
-0.08312
0.00889
0.1725
-0.00555
0.003392
-0.2196
0.0005355
0.4305
-0.2341
-0.1473
-0.2235
-0.02678
0.005049
-0.07897
-0.1909
-0.05037
-0.2029
-4.702e-05
0.01371
-0.5882
-0.2792
0.004209
-0.3009
-0.2771
-0.1825
0.0001637
-0.2481
-0.2656
-0.02559
-0.0267
-0.2402
-0.4417
-0.6271
0.1321
-0.08703
-0.1853
-0.001067
-0.0355
-0.2779
-0.1512
-0.003098
-0.08206
-0.5948
-0.1662
0.009633
-0.08808
-0.2762
-0.1743
-0.05035
-0.2282
-0.00368
-0.2603
-0.3177
-0.2232
-0.2644
0.009292
-0.2052
-0.1872
0.1833
0.004171
0.004609
-0.1594
-0.2673
-0.2229
-0.1857
-0.2746
-0.07075
-0.2249
-0.2709
-0.197
-0.2246
0.001053
-0.2756
-0.275
-0.04615
-0.229
0.2442
-0.1418
0.4986
-0.2203
-0.2857
-0.1817
-0.1291
-0.0369
0.2328
0.05105
-0.07883
0.2112
0.006443
-0.6146
0.001612
-0.2269
-0.2707
-0.1928
-0.1889
-0.4825
-0.2091
0.34
-1.33e-05
0.4758
-0.2872
0.0002058
-0.2258
-0.1961
0.3801
-0.1015
-0.2026
-0.2506
0.006932
-0.05819
-0.2654
0.1676
-0.07394
-0.3003
0.000903
-0.2253
-0.08385
-0.1864
-0.1402
-0.1947
-0.1899
-0.09184
-0.05627
0.01194
-0.008344
-0.001431
-0.08817
0.1036
-0.04949
-0.2176
0.003556
-0.1804
-0.05506
-0.2708
-0.2745
-0.2206
-0.0002242
0.01019
-0.08825
-0.04838
-0.3386
-0.2137
-0.2184
4.531e-06
-0.06643
-0.03513
6.886e-06
-0.239
0.02671
-0.01863
-0.2635
-0.1945
-0.1971
-0.2252
-0.1012
0.09461
-0.1233
-0.2162
-0.2749
-0.2375
-0.241
-0.2667
-0.2166
0.06464
-0.04633
-0.2059
-0.1839
0.01325
0.1421
-0.1898
-0.1477
-0.2701
3.033e-05
-0.05798
-0.1638
0.005618
-0.05437
0.1843
-0.2493
-0.3695
-0.1232
-0.2061
0.1978
-0.1998
-0.1839
0.0003349
-0.2226
0.08329
-0.115
0.08743
0.002496
0.3176
-0.2464
-0.2235
-0.233
-0.2491
-0.2711
0.1124
-0.261
-0.2249
-0.2775
-0.1952
-0.3859
-0.2706
3.699e-05
-0.2038
-0.1835
0.0009171
-0.04246
-0.1294
0.00055
-0.2839
-0.2641
-0.04428
-0.01835
-0.09686
-0.0002352
-0.2371
-0.0137
0.00092
-0.1905
0.1924
-0.06096
-0.002983
0.1421
-0.007005
-0.1213
-0.2374
-0.2594
-0.07777
-0.2615
-0.08938
-0.2392
-0.502
0.09192
0.0003384
-0.2418
-0.23
0.0005855
-0.03868
0.005328
-0.183
-0.2603
-0.4647
-0.2225
-0.0009521
-0.2612
-0.1191
-0.2841
-0.1883
-0.2796
-0.1928
-0.002757
-0.2451
-0.05328
0.007278
-0.273
-0.1787
-0.05658
-0.2684
-0.03887
0.3533
-0.2874
0.0004004
1.399e-05
-0.02186
-0.06889
0.3243
-0.1855
-0.2483
0.01182
-0.083
0.243
-0.08511
-0.002928
-0.1855
-0.1468
-0.1048
-0.000429
0.4226
-0.2729
-0.09849
-1.072e-05
-0.07727
-0.2404
0.02594
-0.1123
0.007267
0.07118
-0.2369
-0.2701
0.001018
-0.191
-0.2072
-0.2783
-0.2154
-0.2747
-0.1057
-0.2258
-0.002928
-0.4826
-0.005254
-0.2605
-0.04405
-0.3598
0.293
0.003808
-0.3003
-0.2721
-0.2483
-0.2648
-0.07284
-0.4059
-0.1016
-0.1669
-0.1857
-0.203
-0.1863
-0.2705
3.293e-05
0.2919
-0.04174
-0.1817
-0.1869
-0.2849
0.1571
0.003253
-0.005193
0.03593
-0.09514
2.419e-05
-0.587
-0.2576
0.004691
-0.02077
-0.1328
-0.1679
0.003352
-0.2204
-0.1962
-0.08553
0.023
-0.275
-0.6044
-0.2733
-0.3968
-0.08498
-0.1907
-0.2691
0.003573
-0.2527
-0.2706
-0.2568
-0.002216
-0.1269
-0.2292
-0.1996
-0.2197
-0.404
0.1589
-0.2078
-0.2554
-0.1935
-0.2447
0.2363
-0.2236
0.02763
-0.03777
0.01017
-0.1898
-0.003542
-0.2843
-0.1789
0.004741
-0.2702
-0.2397
0.1902
-0.05544
-0.2751
-0.05134
-0.2357
0.1239
-0.01213
0.009957
-0.209
-0.1871
-0.0001283
-0.2564
0.04994
0.2127
-0.1951
-0.2474
-0.1472
-0.07683
-0.228
-0.2784
0.002776
-0.2383
-0.3028
-0.5732
-0.09897
-0.1668
-0.3965
-0.2662
-0.2702
-3.99e-05
-0.2103
-0.2562
-0.000339
0.001129
-0.2368
-0.1107
-0.002494
0.1396
-0.1319
0.09144
-0.2191
-0.2816
-0.2598
1.368e-06
0.1372
-0.01038
-0.00318
4.639e-07
-0.1651
-0.1902
-0.218
-0.2595
-0.2741
-0.2041
-0.1949
0.0003544
-0.2646
-0.1978
0.5004
-0.2848
-0.09664
-0.1888
-0.1076
-0.002941
-0.1896
-0.2634
-0.1032
-0.09532
-0.1863
-0.2656
2.209e-05
0.004202
-0.1104
-0.1937
-0.2035
-0.5286
-0.002909
-0.1898
-0.2493
-0.1737
0.002324
0.02212
-0.09341
0.05957
-0.2345
-0.254
0.4185
9.625e-05
0.06275
5.652e-06
-0.2681
0.05477
0.007183
-0.194
-0.2401
-0.1862
-0.2012
-0.1898
0.02939
0.0003606
-0.273
-0.03089
-0.006944
-0.275
-0.3956
-0.2479
0.0003149
-0.04708
-0.1649
0.04185
0.2463
-0.2311
-0.001851
-0.5564
0.009494
-0.1869
0.007538
-0.001589
-0.008055
-0.00878
-0.27
-0.2501
-0.09155
-0.04233
-0.1933
-0.001651
-0.1976
0.0121
0.0009618
-0.01212
-0.2738
-0.2127
-0.2033
-0.004773
-0.2467
-0.1859
-0.275
0.104
-0.2236
-0.0603
-0.2533
0.1292
-0.1583
-0.2716
-0.1016
-0.1942
-0.2029
0.0674
-4.644e-06
-0.2647
-0.004669
-0.2606
-0.1875
-0.2761
-0.2745
-0.2747
-0.0004664
0.2359
-0.2653
7.345e-05
-0.4602
-0.003006
-0.2212
-0.2685
0.0005789
-0.2802
0.2566
0.0009987
0.04518
-0.2218
-0.181
0.03022
0.1937
-0.05262
-0.1067
-0.004299
-0.1631
-0.2151
-0.01664
0.1941
-0.2434
-0.101
-0.1584
-0.07929
-0.2726
-0.2566
-0.1862
0.3357
0.007782
-0.09316
0.1752
-0.1061
-0.2649
0.002601
-0.2043
-0.1214
-0.1499
-0.1864
-0.2411
-0.2761
0.0001209
-0.05857
-0.2328
-0.2565
-0.01986
-0.04846
-0.02758
-0.2363
0.2324
0.2299
-0.2245
0.1238
-0.2163
-0.1051
-0.2745
-0.01652
-0.0003525
-0.2351
-0.0001762
-0.216
-0.01751
-0.1499
-0.199
-0.2567
-0.1405
-0.264
-0.2342
-0.0005624
-0.00171
-0.07824
-0.1142
-0.1651
-0.3107
-0.2231
-0.03562
0.2636
-0.2747
0.08956
-0.2729
-0.1669
-0.04251
-0.2743
-0.1043
-0.03063
0.006617
-0.1304
-0.1152
-0.2463
-0.1898
-0.1104
0.003936
-0.1923
-0.1125
-0.003567
-0.1884
-0.03307
0.001817
-0.1854
-0.02224
-0.1934
-0.006253
-0.2741
-0.2676
3.619e-05
-0.2701
-0.2757
-0.1867
-0.2106
-0.2163
0.001953
-0.2788
0.0002991
-0.1504
-0.2701
0.4343
-0.01594
-0.184
-0.1853
0.001168
-0.003726
-0.01308
0.04315
-0.03819
-0.08811
-0.2889
-0.06476
-0.2638
-0.2066
0.01754
-0.5074
-0.1519
-0.1271
-0.2221
0.00388
0.05518
0.07915
-0.2784
-0.06031
-0.2567
0.001697
0.4446
-0.2805
-0.04407
-0.2258
-0.2752
-0.1841
-0.004718
-0.003743
-0.03641
-0.4529
-0.07003
-0.2109
-0.2307
0.02566
-0.08657
-0.02918
5.672e-06
0.287
-0.2363
-0.1223
-0.3385
-0.2492
0.002393
-0.1113
-0.1471
-0.1934
-0.2038
-0.06209
0.07099
-0.2744
-0.03759
-0.05759
-0.0869
-0.1644
-0.2145
-6.416e-05
-0.1905
0.09982
-0.1489
0.01324
-0.1959
-0.09104
-0.06862
-0.2062
-0.5064
-0.2688
0.4311
-0.2343
0.1759
-0.2701
-0.111
-0.2778
-0.1217
-0.2158
-0.2628
0.1067
0.008014
-0.263
-0.4899
0.00563
-0.2691
-0.275
-0.2548
-0.2031
-0.1001
-0.02813
0.009345
-0.2661
-0.2254
-0.1897
-0.1933
-0.2306
0.1409
-0.1252
-0.23
-0.2435
-0.2695
0.2786
-0.1104
-0.1155
-0.0001816
-0.269
-0.2649
-0.2665
-0.2506
-0.1094
-0.2693
-0.1615
-0.01306
-0.2793
0.01921
-0.2652
-0.2625
-0.04161
-0.06347
-0.2448
-0.06025
-0.1887
-0.2131
-0.1573
-0.06577
-0.215
-0.1084
-0.05448
-0.1853
0.1229
-0.2648
-0.2068
-0.2383
-0.1205
-0.5263
0.0101
-0.0185
-0.002523
-0.217
-0.1036
-0.1854
-0.09954
0.2318
-0.2062
0.115
-0.2049
-0.0161
-0.2438
-0.1391
-0.1589
-0.1033
0.4583
-0.06738
-0.2216
0.001493
-0.2724
-0.2035
-0.2021
-0.2548
-0.00227
0.001817
-0.2681
-0.2176
0.0331
0.002591
-0.0817
-0.000695
0.00612
-0.1178
0.01664
0.03911
-0.1546
-0.0005264
0.03746
-0.2096
-0.4272
-0.2817
0.001967
0.2109
-0.08901
-0.1354
-0.1032
-0.194
-0.2706
0.06266
0.138
-0.04844
-0.228
-0.1853
0.004602
0.02639
-0.1895
-0.5008
-0.003133
-0.2226
0.002883
-0.2642
-0.2618
0.06086
-0.2748
-0.1742
0.492
-0.05726
-0.1427
0.4372
-0.2357
0.04833
-0.1206
-0.2301
-0.2485
-0.07589
-0.2715
-0.2023
0.03055
-0.0002409
-0.2531
-0.1006
-0.1174
-0.1608
-0.004242
0.06522
-0.1906
-0.007392
-0.03872
0.04616
-0.2188
2.659e-05
-9.698e-06
0.0002907
-0.1133
-0.5442
-0.2623
-0.2586
-0.2675
2.999e-05
-0.02043
-0.0527
-0.1853
-0.07807
-0.4276
-0.2779
-0.2033
-0.5236
-0.2159
-0.2472
0.3117
-0.2179
-0.2678
-0.2323
-0.116
-0.2143
-0.0002805
-0.2118
-0.1347
-0.1329
-0.2761
0.1482
-0.2551
-0.2482
-0.2027
0.004425
-0.3505
-0.2644
0.02321
-0.1972
-0.002123
-0.0478
-0.08036
-0.06712
-0.224
0.1606
-0.2857
-0.2317
0.00291
-0.06896
-0.2558
-0.2487
-0.005769
-0.07226
0.0006826
-0.1244
-0.2654
-0.2162
-0.1858
-0.2739
-0.2731
-0.01699
-0.3505
0.3144
-0.1624
-0.001015
-0.008346
0.02106
-1.48e-05
-0.1877
0.01331
-0.3798
-0.2152
-0.1858
0.003582
-0.2862
-0.1876
-0.1683
-0.06261
-0.09226
-0.2388
-0.2011
-0.02772
-0.17
-0.2667
-0.1686
-0.01717
-0.207
-0.2687
1.795e-05
-0.201
-0.2142
-0.1856
0.3614
-0.001615
-0.192
0.02636
-0.2071
-0.03422
-0.2354
-0.2458
-0.07514
-0.002906
-0.1506
0.3816
-0.1726
0.002489
-0.06467
-0.198
-2.658e-06
-0.06169
-0.07991
-0.2733
0.004657
0.004213
-0.2062
-0.007619
-0.0001214
-0.003855
-0.2164
0.02741
-0.1186
-0.22
-0.1109
-0.1466
-0.142
0.001931
-0.2361
-0.013
-0.03214
0.01122
-0.1356
-0.1262
0.06051
-0.2077
-0.267
-0.2111
-0.2553
-0.187
0.05519
-0.1877
-0.2644
-0.2538
-0.2605
-0.1984
-0.002866
-0.2801
-0.239
0.006972
0.3915
-0.0876
-0.1057
-0.2372
-0.06654
-0.07534
0.06648
-0.1493
-0.4175
-0.2707
0.005294
0.08595
6.328e-05
-0.2052
-0.2431
-0.2718
-0.306
-0.1941
-0.1756
1.859e-05
0.03754
-0.2865
-0.06474
-0.007366
-0.1022
-0.2342
-0.2681
-0.2667
0.4526
0.1547
0.1264
0.2384
-0.174
-4.157e-07
-0.1865
-0.2611
-0.2261
-0.06532
-0.1486
-0.01801
-0.2078
-0.25
-0.001296
-0.295
-0.09813
-0.07555
-0.305
-0.1131
0.2209
0.0043
0.09692
-0.1648
-0.201
-0.2701
-0.2654
-0.03861
-0.2139
-0.2054
-0.1338
-0.04578
-0.07269
-0.05148
-0.002031
-0.1873
-0.3145
-0.2254
0.08707
-0.5022
0.001851
-0.004174
-0.2603
-0.0007003
0.001002
-0.4037
2.065e-05
-1.413e-05
0.07025
-0.0001107
-0.2338
-0.1954
-0.1625
-0.2446
-0.03949
0.001229
0.004557
-0.2682
-0.09807
0.2293
-0.1088
-0.2584
0.0006526
-0.1994
-0.2779
-0.1625
-0.1864
0.003137
0.01153
-0.4037
-0.002925
0.001679
-0.1867
-0.05666
-0.01364
0.01918
-0.2725
-0.002296
-0.001465
0.003388
-0.194
-0.0952
-0.2133
-0.2119
0.07496
-0.1365
-0.2355
-0.197
-0.04324
-0.1907
-0.113
-0.266
-0.001282
-0.03579
-0.2565
-0.301
0.0003543
-0.1884
-0.2041
-0.2633
-0.1929
-0.03031
-0.2181
-0.07076
-0.03296
-0.1858
0.004366
-0.6086
0.002728
0.0902
0.003855
-0.4003
0.00917
-0.08074
-0.02937
-0.1855
-0.1959
-0.1869
-0.2384
0.000193
-0.6343
7.608e-05
-0.1866
-0.2449
-0.2212
0.04007
-9.74e-05
-0.4744
0.004884
-0.1098
-0.2248
-0.2679
0.0214
0.01514
0.4807
-0.01061
-0.1888
-0.2674
-0.2738
-0.216
0.3303
-0.2682
-0.5777
-0.1199
0.001678
-0.2287
0.3499
0.009376
0.003372
-0.2785
-0.2217
0.3964
-0.3436
0.42
0.005987
-0.15
0.005927
0.01106
0.004274
-0.3001
-0.007438
-0.2558
-1.034e-05
-0.2325
0.005129
-0.2732
-0.1626
-0.4841
-0.03684
-0.265
0.2932
-0.05816
-0.07659
-0.1941
0.005154
-0.1531
0.001244
-0.2143
0.115
-0.002883
-0.1178
-0.2882
-0.1901
-0.09511
-0.2338
-0.1224
-0.02049
-0.2522
0.2235
-0.3184
-0.2708
-0.1853
-0.2403
-0.2312
-0.2731
-0.2211
-0.2611
-0.1861
-0.1773
0.0004803
-0.2718
-0.0002239
0.03722
0.08599
-0.06675
-0.1884
-0.5518
-0.232
-0.193
2.099e-05
-0.08127
-0.2423
-0.3618
-0.2268
-0.003899
-0.2291
-0.2706
-0.07637
-0.000105
-0.2737
-0.081
-0.239
-0.2323
-0.3205
0.2383
0.36
-0.2239
-0.2692
-0.2685
-0.1927
-0.2013
0.03259
-0.2872
0.197
0.01481
-0.2046
-0.2127
-0.2254
-0.2672
-0.2814
0.004462
0.2145
-0.3646
-0.179
0.1891
0.2065
-0.1972
-0.2767
-0.0006944
-2.237e-05
-0.2335
-0.2139
-0.08242
0.004213
-0.2562
-0.2115
0.05944
-0.01342
0.001281
-0.1259
-0.146
-0.2166
-0.2851
-0.2632
-0.266
-0.1835
-0.1975
-0.27
0.04004
-0.2357
0.4304
-0.1894
-0.1213
-0.089
-0.2165
-0.002946
-0.0001245
-0.2237
-0.227
-0.2327
-0.2397
-0.2117
0.009919
-0.1895
-0.2743
-0.2135
0.03503
-0.6238
-0.1877
-1.971e-05
-0.04006
0.02613
-0.04098
-0.1927
-0.265
-0.008761
-0.3191
-0.3151
0.005474
-0.2732
0.008496
-0.2082
-0.1864
-3.371e-05
-0.2408
-0.2734
-0.00552
0.09688
-0.03427
-0.1348
-0.008333
-0.09323
-0.2012
-0.4533
-0.1992
-0.001722
0.01073
0.0003471
-0.2475
0.008956
-0.2594
-0.1857
0.117
-0.2398
-0.2288