/*--------------------------------*- C++ -*----------------------------------*\
  =========                 |
  \\      /  F ield         | OpenFOAM: The Open Source CFD Toolbox
   \\    /   O peration     | Website:  https://openfoam.org
    \\  /    A nd           | Version:  8
     \\/     M anipulation  |
\*---------------------------------------------------------------------------*/
FoamFile
{
    version     2.0;
    format      ascii;
    class       surfaceScalarField;
    location    "40";
    object      phi;
}
// * * * * * * * * * * * * * * * * * * * * * * * * * * * * * * * * * * * * * //

dimensions      [0 3 -1 0 0 0 0];

internalField   nonuniform List<scalar> 
189008
(
3.321e-08
-3.321e-08
4.245e-09
-4.245e-09
8.466e-09
-8.466e-09
1.224e-08
-1.224e-08
-1.095e-06
1.095e-06
1.249e-08
-1.249e-08
4.545e-06
-4.545e-06
-1.702e-06
1.702e-06
-1.028e-06
1.028e-06
6.459e-07
-6.46e-07
5.479e-06
-5.479e-06
-2.011e-06
2.011e-06
-4.078e-09
4.078e-09
-1.374e-08
1.374e-08
-7.085e-06
-4.462e-06
1.155e-05
2.933e-06
-3.336e-06
4.034e-07
-2.763e-08
2.763e-08
0.00375
-0.004024
0.0002738
-0.001199
0.000643
0.0005562
-3.49e-06
3.747e-06
-2.572e-07
0.0004836
-0.0004048
-7.875e-05
1.721e-08
-1.37e-08
-3.505e-09
-0.003232
0.01032
-0.007085
1.237e-05
0.000281
-0.0002934
6.766e-09
1.044e-08
-0.0001335
7.575e-05
5.775e-05
-1.049e-05
1.155e-05
-1.052e-06
-1.157e-05
1.075e-06
0.0001019
-7.991e-05
-2.197e-05
0.006832
-0.01602
0.009188
-2.508e-05
-0.0001151
0.0001402
-3.564e-05
-9.786e-05
2.294e-05
-1.59e-05
-7.036e-06
-2.474e-05
1.497e-05
9.769e-06
0.0114
0.01084
-0.02223
6.545e-06
1.639e-05
2.956e-05
0.0001886
-0.0002181
-0.0007312
0.001099
-0.0003673
-2.759e-05
0.0003499
-0.0003223
-2.64e-05
3.003e-05
-3.631e-06
-0.0008325
-0.0003666
0.001968
-0.003785
0.001817
0.0005557
-0.004536
0.00398
1.17e-08
-1.17e-08
0.001747
0.002002
-1.308e-05
-1.166e-05
6.772e-05
3.417e-05
-0.0004009
0.0004114
-1.049e-05
-0.0004834
0.0005802
-9.678e-05
-1.806e-05
0.0002801
-0.0002621
1.02e-06
1.913e-06
-0.01407
-0.03038
0.04445
-3.579e-05
-2.845e-05
6.425e-05
-0.01282
0.0114
0.001425
1.083
-0.1282
-0.9544
0.0005493
-0.0004444
-0.0001049
-0.1466
1.229
0.01212
-0.007524
-0.004597
-0.3125
0.01866
0.2938
-0.005581
-0.007243
-0.002319
0.0001474
0.002171
-0.0003492
0.0006912
-0.000342
-0.0001746
0.00137
-0.001195
-0.81
0.9551
-0.145
-1.785e-05
4.041e-05
-2.256e-05
-0.0003162
-0.003181
0.003497
-0.02872
0.0229
0.005818
0.001619
-0.001348
-0.0002718
0.0004537
0.001166
-1.278
0.4804
0.7972
-3.981e-05
-0.0001727
0.0002125
4.455e-06
7.091e-06
-0.0008317
-0.0004926
0.001324
-0.1157
-0.1968
-0.2736
0.5159
-0.2424
-4.775e-06
-6.794e-06
-0.05152
0.09172
-0.04021
-0.0003865
0.0003637
2.281e-05
0.0002962
0.0002531
0.1599
-0.6341
0.4742
-9.912e-05
7.711e-05
2.201e-05
-1.514e-06
-1.976e-06
2.461e-05
2.808e-05
-5.269e-05
5.285e-06
2.359e-05
-2.888e-05
0.0001132
-0.0002891
0.0001758
-0.00022
0.0003508
-0.0001308
-0.0004269
0.0008021
-0.0003752
3.009e-06
-1.357e-06
-1.651e-06
-0.003121
0.002805
-0.0003513
0.000617
-0.0002657
0.1857
-0.02118
-0.1645
-0.005481
-0.006279
0.01176
-0.0002713
0.0008998
-0.0006285
0.0002824
0.0002012
0.0001307
-0.0001325
1.763e-06
0.02832
0.01454
-0.04286
0.003369
-0.0014
0.000138
-0.0001396
1.542e-06
-0.0003094
-5.571e-05
0.0003651
-0.01885
-0.009864
0.6862
-0.5263
-2.859e-06
-0.0004806
-5.109e-05
-0.0001654
0.0002165
0.004356
-0.005289
0.0009326
7.99e-05
-0.0002999
-0.0004037
9.428e-05
-0.0008572
0.001221
-0.0003638
-1
-0.2773
-0.001211
0.0006054
0.0006055
-1.154
0.8761
0.2778
2.204e-05
-2.913e-05
1.972e-06
1.036e-06
-0.0002895
3.773e-05
0.0002518
0.0007429
-0.001091
0.0003484
-0.2119
0.09599
0.1159
0.0006253
0.002509
-0.003135
-0.1067
0.05837
0.04832
0.1657
-0.4393
0.02322
-0.07474
2.814e-07
-2.245e-07
-5.695e-08
-1.253
0.09881
1.522e-05
2.656e-05
-4.178e-05
-0.0003895
-0.0007207
0.00111
0.01399
-0.01197
-0.002014
-6.62e-05
-3.293e-05
9.474e-05
-8.812e-05
-6.626e-06
-0.0004066
-0.0002121
0.0006187
0.08796
-0.1031
0.01509
-0.0001414
5.642e-05
8.493e-05
-0.0003759
0.0003052
7.063e-05
0.0002528
-7.937e-05
-0.0001734
0.0001255
-4.802e-05
-7.746e-05
-0.0003409
-0.001156
0.001497
-0.0001603
-0.0002262
6.782e-08
-5.313e-08
-1.469e-08
0.0002657
-1.295e-05
-0.0049
0.03627
-0.03137
-0.0001452
0.0003132
-0.0001679
-9.772e-05
0.0001121
-1.441e-05
0.03391
-0.05527
0.02135
0.009158
0.0003015
-0.009459
-0.04786
-0.04219
0.09006
-0.0001193
0.0001555
-3.623e-05
-0.0004276
0.0002655
0.0001621
-6.979e-05
3.4e-05
0.001527
-0.0006117
-0.0009149
-2.717e-05
-1.013e-05
3.73e-05
-0.02782
-0.7822
0.0001557
-3.025e-05
0.0001449
-0.0002108
6.585e-05
0.002569
-0.003781
0.001212
0.000697
-0.000195
-0.000502
0.002656
-0.003205
0.0005494
-0.00893
0.0002866
0.008643
0.0001469
-0.0003169
0.00017
0.0002718
-0.0001585
0.008022
0.004099
0.000379
-0.0003113
-6.772e-05
-7.795e-05
-0.0003229
6.025e-05
-0.0001146
5.433e-05
-0.0001601
0.0002928
-0.0001328
-1.587e-05
1.587e-05
0.1919
-0.00618
0.0003201
-9.761e-05
-0.0002225
7.047e-05
-0.00015
7.956e-05
1.419e-05
-3.204e-05
-0.0001926
1.981e-05
0.0001728
0.0001192
0.001619
-0.001738
-0.0001569
0.0001275
2.94e-05
-0.04183
0.03376
0.008072
8.297e-07
2.935e-06
-3.764e-06
-0.00023
-0.0001976
-0.004568
0.001921
0.002647
-0.002702
0.0008573
0.001845
1.021
-1.194
0.1731
-6.75e-05
4.7e-05
2.05e-05
-0.0008209
0.000438
0.0003829
-7.776e-05
-6.36e-05
-0.0002516
0.0004861
-0.0002345
0.12
-0.1479
0.02794
-0.001766
-0.0009365
-0.1223
-0.002522
0.1248
-3.07e-05
4.301e-05
-1.231e-05
-4.371e-05
-2.379e-05
-0.0001603
-0.0002155
0.0002976
-0.0006468
0.0007056
-0.007141
0.006435
-0.0001333
0.0008762
0.0002998
-0.0002874
-0.004892
0.08602
-0.08113
-3.422e-06
6.88e-05
-6.538e-05
-4.811e-05
-1.062e-05
5.873e-05
-0.04385
0.03895
0.000842
-0.0009808
0.0001389
4.019e-08
0.0001539
0.0004454
-0.0005993
-1.47
1.199
0.2712
-1.463
1.193
0.2701
8.579e-07
1.511e-07
-1.009e-06
-0.1669
0.1322
0.03468
0.2045
-0.03804
-0.1665
-0.0582
0.04878
0.009419
0.02695
-0.06995
0.043
0.0001952
-0.0001657
-3.401e-08
3.401e-08
0.0002233
-0.0007628
0.0005395
0.02607
-0.007634
-0.01844
0.002755
-0.0006421
-0.002112
0.02956
-0.02273
-0.2086
-0.003292
0.002376
-0.02157
0.01919
-0.0002913
0.0002102
8.109e-05
-0.05973
0.2027
-0.143
-7.103e-05
-8.587e-05
3.73e-06
-0.0001036
9.983e-05
7.336e-07
-9.598e-07
2.262e-07
-4.902e-06
4.436e-06
4.652e-07
0.003475
-0.002091
-0.001384
-5.078e-05
0.0001853
-0.0001345
0.02213
0.00394
-0.0007166
0.0002825
0.0004341
-0.471
0.222
0.249
0.0006151
8.189e-05
4.928e-05
-5.852e-05
9.243e-06
5.583e-05
3.133e-05
-8.717e-05
-9.163e-06
7.541e-06
1.622e-06
-0.0001275
0.0001979
0.0003879
-0.001119
3.035e-05
-3.124e-05
8.914e-07
0.000428
-0.0003907
-3.726e-05
-0.0004156
0.0001035
0.0003121
-0.04738
-0.07494
-0.001363
0.0005309
-3.175e-07
3.85e-07
-6.742e-08
-0.0002578
-0.0001578
-0.02376
0.01873
0.005028
9.939e-05
0.0002207
2.355e-07
-2.355e-07
0.2259
-0.02137
-0.0001293
2.734e-05
0.000102
-8.692e-05
3.881e-05
-2.878e-05
5.95e-05
-3.072e-05
0.000273
-0.0001885
-8.452e-05
0.0001852
0.0001939
0.000245
3.676e-05
-0.0002818
1.82e-07
9.936e-08
0.0006925
0.0003021
-0.0009945
1.193e-05
-1.08e-05
-1.134e-06
1.242e-06
-1.242e-06
0.197
-0.9677
0.7707
-0.0004341
-0.001871
0.002305
-3.516e-05
8.622e-05
-5.106e-05
0.002236
-0.001058
-0.001178
-0.0004418
0.000157
0.0002848
-0.0001013
0.0004516
-0.0003503
0.0006775
-0.0003979
-0.0002796
0.1167
-0.02877
5.296e-05
-0.0001762
0.0001232
-0.0001989
0.001426
-0.001228
-0.009093
-0.0008943
0.009987
0.0007133
-0.0003947
-0.0003186
-0.06493
0.09741
-0.03248
-0.01424
0.008755
-0.08805
0.04019
-3.143e-06
-0.0001203
0.0001234
-4.467e-06
-3.612e-05
4.058e-05
4.984e-05
-9.821e-05
4.837e-05
9.068e-05
-0.0002312
0.0001405
-0.001015
-0.000719
0.001734
0.002944
-0.005818
0.002874
-0.0001839
-5.521e-06
0.0001895
0.8566
0.1644
0.0003893
-0.000495
0.0001057
-0.0001363
6.965e-06
0.001085
-0.001844
0.0007594
8.223e-05
-8.565e-05
-0.0001612
-0.0001283
0.0006815
-0.0007891
0.0001076
-0.3774
-0.4337
0.8111
0.000765
0.001282
-0.002047
-0.5426
-0.3509
0.8936
0.04442
-0.0161
0.004403
-4.674e-05
-0.09062
-0.1658
0.2564
0.04531
0.121
-0.1663
8.794e-08
-2.763e-08
-6.032e-08
-0.0002356
0.0001927
4.281e-05
-0.0749
-0.1019
0.1768
0.0007938
-0.0005822
-0.0002116
0.1734
-0.05343
-1.628e-05
0.002672
-0.002437
0.005418
-0.002981
-0.01101
-0.01275
0.0009916
0.001369
-0.00236
-0.2063
0.2373
-0.03101
-0.0005104
0.0008611
-0.0003507
-0.0001075
-7.262e-05
0.0001801
8.844e-06
3.116e-06
-1.196e-05
0.0001054
0.0001676
0.003969
-0.001025
-7.693e-05
-0.0001256
0.0002025
-0.003931
0.00114
0.002792
-0.001195
-0.001774
0.002969
0.003697
-0.003072
-4.641e-05
7.819e-05
-3.177e-05
0.0005213
0.0001108
-0.0006321
0.002515
0.0002398
-0.1832
0.1234
0.0003481
-7.783e-05
-0.0002703
-0.003191
0.003226
-3.509e-05
0.0009316
7.517e-05
-0.001007
-6.665e-07
4.762e-06
-4.096e-06
-0.0003559
0.0002402
0.0001158
-0.8565
0.3139
-0.2574
0.1339
0.1235
0.000284
0.0001288
-0.0004127
0.0003654
-0.000309
-5.641e-05
-6.216e-05
-9.949e-05
0.0001617
0.0184
-0.009352
-0.009047
0.1954
-0.1855
-0.009946
0.00905
-0.01228
-0.0001979
-1.226e-05
0.0002101
0.09561
-0.05329
-0.04232
0.001576
0.0006606
0.0004477
-0.0001637
3.805e-05
8.872e-05
-0.0001268
-0.01664
0.03201
-0.01537
6.971e-06
-4.049e-05
3.352e-05
0.0003596
-0.0001357
-0.0002239
-0.001778
0.0005286
0.001249
-0.0009023
0.0005092
0.0003931
0.1938
-0.1485
-0.006051
0.01745
-0.5007
-0.9696
-0.498
-0.965
-0.0108
0.001869
-0.0009868
0.0008008
0.000186
-0.004362
-0.0002062
-0.0003173
-0.000585
-1.501e-05
-0.0001497
0.0001647
-0.0127
0.04661
0.002376
0.001099
7.419e-05
-3.745e-05
-3.674e-05
-1.53e-05
-3.917e-05
5.447e-05
-0.0004141
2.54e-05
0.0003887
0.0002195
0.0005744
-6.82e-05
2.876e-05
3.943e-05
0.0001342
-0.0001647
3.041e-05
0.0002631
-0.0001878
-7.533e-05
2.34e-05
-0.000106
8.256e-05
-0.0003587
0.0002874
7.137e-05
0.0005044
-0.0006113
0.0001069
-2.563e-06
5.894e-05
-5.638e-05
6.693e-05
-0.001789
-0.02726
0.02905
-9.422e-05
8.4e-05
1.021e-05
-0.0003328
-0.000109
-0.0001841
-0.00119
0.001374
0.3007
-0.4092
0.1085
0.0003181
4.158e-05
0.0002283
-0.0004404
0.0002121
-0.001616
0.001441
-0.004
-0.004077
0.008077
0.0005437
-0.0005669
2.32e-05
-5.138e-05
0.0004018
-0.0003505
0.3809
0.1362
-0.5171
-0.1186
-0.04836
-0.1714
0.2401
-0.06865
-2.496e-05
2.957e-05
-4.603e-06
0.4308
-0.8083
-0.001481
0.001475
6.165e-06
0.06043
0.03518
8.328e-05
-0.0001184
3.908e-05
-0.000323
0.0002839
0.1167
-0.1216
0.03107
-0.01376
-0.01731
-8.302e-05
0.0003542
-0.0002712
1.771e-07
1.518e-07
-3.289e-07
-0.0002703
0.0004913
-0.0002209
0.9229
-0.692
-0.2309
0.001244
0.002533
-0.003778
2.198e-05
7.276e-05
-0.0003728
0.0002736
9.924e-05
0.006297
-0.004822
-0.001475
-0.08605
-0.02065
5.871e-06
8.017e-07
-6.673e-06
0.01637
-0.02055
0.004175
1.498e-06
-2.79e-05
-0.0004111
0.0005858
-0.0001746
0.0001405
-0.0006833
0.0005428
0.246
-0.2555
0.009516
0.005803
-0.004992
-0.0008114
4.115e-06
-1.696e-05
1.285e-05
0.0001351
0.0003289
-0.000464
-0.0003926
0.0004319
-3.925e-05
-7.143e-05
0.0001437
-7.225e-05
0.003819
0.001984
-0.000169
0.0001439
-0.02297
0.02118
0.009396
-0.07433
3.068e-05
-5.007e-05
1.939e-05
-0.5079
0.03697
-0.000414
-3.034e-05
0.0004443
-5.796e-05
2.726e-05
-0.0003839
0.01676
-0.00445
0.003533
0.0009168
-0.0001227
0.0004298
-0.000307
-0.002125
0.002101
2.388e-05
0.111
0.4877
-0.5987
0.0002648
-0.0005165
-0.0002699
-0.0001909
0.0004608
-0.0003114
-3.386e-06
0.0003148
0.001201
0.007957
-4.286e-05
-0.0002744
0.0003173
-0.001072
0.0006821
4.649e-05
8.423e-05
-0.000452
0.0003827
6.934e-05
-0.0002186
3.469e-05
-0.000114
0.002162
-0.002048
-0.0006419
0.0001118
0.0005301
-0.0002201
2.753e-05
-1.402e-05
1.302e-05
1e-06
-0.0001257
0.0001346
-8.878e-06
-0.6754
0.8724
0.0005823
-0.0001543
0.008395
-0.01099
0.002598
-0.003677
0.004233
-0.01214
0.0007076
0.01144
-4.12e-05
1.242e-05
-0.01095
-0.007204
0.01815
-1.275
1.437
-0.1617
0.0001687
-0.0001704
1.703e-06
-5.474e-05
-3.027e-05
8.501e-05
0.006513
0.01154
-0.01806
0.003007
-0.002883
-0.0001236
0.5727
-0.1918
0.001042
-0.002065
0.001023
-1.336e-05
5.913e-05
-4.577e-05
-0.06011
0.04604
-0.02537
-0.1809
0.7011
-0.6552
-0.04592
0.0004096
-0.0004276
0.06622
-0.02995
-0.0003465
-0.0001116
0.0004581
0.05173
-0.05493
0.003193
1.843e-05
0.0001196
-0.01012
-0.134
0.1442
0.0003969
-0.000292
-0.0001049
0.05434
-0.2258
-0.000145
-0.0001463
0.0003715
-0.0004114
3.987e-05
-0.0003973
0.0002331
0.0001642
-0.001351
0.003024
-0.001673
-1.476e-05
2.79e-05
-1.314e-05
-0.01942
0.007692
0.01173
0.0003167
-0.0001685
-0.0001482
0.000162
5.132e-05
-0.0002133
5.631e-05
-5.889e-06
-5.042e-05
0.0003621
-8.527e-05
-0.0002768
0.0001146
0.007933
-0.008047
-0.00249
0.002149
-3.897e-05
-2.598e-05
6.496e-05
0.0001221
0.0001474
-0.0002695
0.002021
-0.001719
-0.0003022
3.223e-05
-7.12e-05
0.3528
-0.9427
0.5899
0.1192
-0.0005227
-0.1186
-0.0003124
0.0001277
0.0001846
5.916e-05
-6.402e-05
4.861e-06
-1.539
0.1226
1.416
0.0006117
-0.0003723
-0.0002394
-0.002408
0.01197
-0.009561
0.00507
0.008915
7.475e-05
0.0002906
0.03115
-0.01698
-0.01417
1.412
-0.2683
-1.144
1.888e-05
-0.0001939
0.000175
-0.01191
0.009501
4.792e-05
-4.227e-05
-5.654e-06
-2.133e-05
2.774e-05
-6.405e-06
8.769e-05
-6.267e-05
-2.503e-05
0.0003273
-2.493e-05
-0.0003023
-5.335e-05
7.698e-06
4.565e-05
-0.0002068
-0.0001491
-0.0006965
7.116e-05
0.0006253
0.0009334
0.002074
0.0001332
-5.951e-05
-7.37e-05
-0.1253
0.2553
-0.13
-9.881e-05
0.0001591
-0.1021
0.08383
0.0183
0.0007226
-0.0005895
-0.0001331
0.0004139
-0.0008409
9.287e-05
-7.756e-05
-1.531e-05
0.0002758
-0.001518
0.001242
-8.417e-09
-2.56e-08
-0.0002696
0.00013
0.0001396
-0.0002504
0.0007464
-0.000496
0.03055
-0.01834
-0.01221
0.001922
-0.00242
0.0004983
-0.287
0.2314
0.05565
6.485e-05
2.285e-05
0.1166
0.002597
0.0001401
1.691e-05
-0.000157
0.0005181
-0.0003642
-4.882e-08
4.882e-08
7.411e-08
-1.985e-08
-5.426e-08
6.904e-08
-6.394e-08
-5.099e-09
1.196
-0.8184
-0.3779
-4.694e-05
-4.728e-05
4.414e-05
0.0003709
-0.000415
-0.145
-0.1124
-0.0005602
1.823e-05
0.000542
-0.0002734
0.0008459
-0.0005725
-0.0001858
0.000202
-1.617e-05
0.003413
-0.000298
-0.003114
-7.371e-06
0.0003789
-0.0003405
-5.678e-05
0.0003793
0.0002324
9.8e-06
-9.089e-06
-7.107e-07
-0.437
0.7898
-0.0002304
0.0001326
9.78e-05
9.869e-10
-1.641e-09
6.549e-10
0.0003967
-0.0004502
5.35e-05
0.0001964
-4.414e-05
-0.0001522
5.481e-06
-4.652e-06
0.06341
-0.1791
0.003416
-0.0008465
-0.05117
0.07812
-0.0001135
0.0002356
0.04275
0.2462
-0.289
-0.0001506
3.535e-05
0.0001152
-3.781e-05
-5.734e-05
9.516e-05
3.339e-05
-3.16e-05
-1.792e-06
1.525
-0.9016
-0.6237
-0.0002441
-6.829e-05
0.009444
0.00394
-0.01338
-4.11e-07
1.604e-07
2.506e-07
-0.0006246
-2.346e-05
0.000648
0.000107
-7.764e-06
-9.923e-05
0.000328
-0.0001826
-0.0001454
-0.1073
0.1025
0.004832
1.584e-05
-7.133e-05
5.55e-05
0.0008953
0.0006961
-0.001591
-0.8031
-0.7357
0.002366
-0.0046
-6.244e-05
0.004663
-0.0002187
0.0001112
0.0001861
0.0003576
3.519e-07
5.881e-05
5.258e-05
-8.261e-06
-4.432e-05
-0.0005279
0.0001168
-0.003042
0.003675
-0.000633
0.0006802
6.639e-07
-0.0006808
0.0001193
-0.0002444
0.0001251
4.555e-05
0.0001232
0.1127
0.05536
-0.1681
-3.894e-05
2.895e-05
9.99e-06
3.392e-05
-0.0001881
0.0001542
0.0002364
-0.0002611
2.476e-05
0.0009361
-0.001985
0.001049
0.0001152
-0.0002101
9.496e-05
-0.7909
0.1141
0.6768
-0.7883
0.6297
0.1586
0.002518
-0.01161
-6.372e-05
-4.476e-06
-0.0005313
-0.001308
0.00184
0.1381
-0.2084
0.07031
1.473
-0.6491
-0.8237
-0.001438
0.002332
-0.0008943
0.0001724
-0.0002516
7.917e-05
-0.0005143
0.0002075
0.0003068
-0.0006747
-2.186e-05
3.45e-05
2.992e-06
-3.749e-05
-1.658e-05
1.544e-05
1.139e-06
-0.00307
0.002929
0.0001405
-0.1415
0.1003
0.04122
1.4
-1.277
-0.1228
-3.777e-05
1.885e-05
1.892e-05
-0.0001153
-0.0002403
0.0003556
0.0004886
-0.001501
0.001012
0.3137
0.5219
-0.8357
4.016e-06
7.919e-06
0.002296
-0.002677
0.0003803
-0.0001154
0.000114
1.364e-06
0.4892
-0.0001658
0.0001895
-2.366e-05
-0.02733
0.1654
0.0001936
-0.0003163
-0.0001069
3.858e-05
6.835e-05
0.0008637
-0.0007102
-0.0001534
0.9785
0.1618
-1.14
-1.517e-05
-5.547e-05
7.063e-05
0.0004933
0.00022
-3.818e-05
2.231e-05
0.3911
1.021
0.000351
-0.001208
-3.641e-06
-1.26e-06
0.395
0.3061
-0.001702
-0.002747
-0.1647
0.005307
0.1593
-0.0002453
-0.0002825
0.0005278
0.0001207
-5.746e-05
-6.324e-05
-0.2801
0.1895
5.357e-05
-4.868e-05
-4.887e-06
0.0001418
0.0002568
-0.0003985
-1.228e-06
8.223e-06
-6.995e-06
-5.239e-05
-4.189e-05
9.428e-05
-0.0001388
6.766e-05
7.109e-05
-0.0001046
-0.0002542
-0.0001234
-0.0002494
1.991e-05
0.0001827
-0.0002026
0.0004199
-0.0004475
0.0006336
-0.0009049
0.0003697
-0.000571
0.0002013
7.043e-05
-7.872e-05
8.284e-06
6.053e-05
-3.412e-05
-2.642e-05
0.0001594
-0.0001187
-4.066e-05
-0.5999
0.9136
0.0004216
-0.0002931
-0.0001285
0.1079
-0.194
0.0861
-0.000497
8.295e-05
-0.1247
0.03489
0.08976
4.797e-05
-0.0001673
-0.3423
-0.9327
-0.1525
0.07759
-0.002551
-0.005062
0.007613
-0.0003166
-0.0003252
-0.000174
-0.0001396
0.0003136
-1.04
0.128
0.9122
1.107
-0.899
-0.2078
4.789e-05
-1.754e-05
9.535e-06
3.32e-06
-1.286e-05
-2.515e-05
4.976e-05
-0.0002516
9.262e-05
0.0001589
0.0006894
-0.0002343
-0.0004551
0.0002796
-0.0006261
-0.000316
0.0004713
-0.0001554
-0.0006901
0.0004202
-8.734e-05
4.817e-05
-3.148e-05
8.474e-05
-5.326e-05
-1.813e-05
-5.102e-06
2.323e-05
-1.16
0.1201
1.707e-05
4.644e-05
-6.351e-05
1.481e-05
-8.023e-05
6.541e-05
-3.764e-05
-0.004959
0.004997
0.009554
-0.005974
-0.00358
0.1782
-0.2393
0.06108
1.03
0.443
0.0002622
-0.0002242
-5.888e-06
-9.183e-05
2.91e-05
0.0001041
3.472e-06
-2.323e-06
-1.149e-06
-0.07651
-0.04814
-0.9855
-0.4035
1.389
-9.275e-05
-6.645e-05
0.0001592
-7.111e-05
1.412e-06
6.97e-05
-0.0509
-0.007293
1.072e-05
1.296e-05
-2.368e-05
0.01436
-0.002163
-0.01219
-0.03464
0.08738
-0.05274
-0.0001105
3.974e-05
7.08e-05
0.002274
-0.002805
0.000531
-7.338e-05
8.82e-05
0.004385
-0.009044
0.004659
-2.057e-08
2.057e-08
-1.16e-05
2.433e-06
4.91e-05
0.000313
0.0002308
8.591e-05
-0.0001234
-0.0001122
6.209e-05
2.565e-05
-8.773e-05
-0.0001595
-6.303e-06
-3.195e-05
5.935e-05
-2.74e-05
0.05576
0.007113
-0.06287
0.0001176
-4.054e-05
-7.706e-05
2.465e-06
3.112e-06
-5.577e-06
-8.214e-05
-0.0003318
0.7437
-1.068
0.3245
0.0008267
-0.0001452
-0.004612
0.004064
0.0005482
0.001072
-0.002891
0.001819
1.076
0.4496
-0.02564
0.7694
4.555e-07
-4.509e-07
-4.622e-09
0.02321
0.007332
0.0002144
-0.0003726
0.0001582
4.808e-05
-5.065e-05
2.569e-06
-0.0002966
0.0005201
-0.0002235
0.0003355
1.263e-05
0.004214
0.002905
-0.007119
0.0001241
-6.824e-05
0.003213
-0.006437
0.003224
0.0006072
-0.0005184
-8.872e-05
-0.1495
-0.1993
0.3488
1.05
-0.04452
-1.006
-0.002254
-0.0004988
0.002752
-0.0008145
0.009209
8.549e-06
-3.351e-05
-0.001833
0.002905
0.0001923
-0.0002132
2.093e-05
0.0007889
-0.0002586
-0.0005303
0.0002051
0.0001189
-0.000324
-0.02078
0.02316
0.003976
-0.007977
-1.125
-0.3859
1.511
-6.327e-05
0.0001186
-5.529e-05
0.02266
0.008495
-0.0006434
0.0004874
0.0001559
3.913e-08
-0.002226
0.000645
0.001581
-0.0002893
0.0002861
0.000167
-0.0004373
1.257
-0.2787
-0.001441
0.001632
-0.0001911
-0.0002046
-0.0003122
0.0005168
-7.728e-06
7.987e-06
-2.592e-07
-0.0005045
-0.0001218
0.0006263
0.000292
7.492e-06
-0.0002995
-6.264e-05
-2.471e-05
-7.159e-05
0.0002165
-0.0002191
-0.0002329
9.772e-05
-0.0003257
0.000228
0.0004586
0.0002808
-0.0007394
0.0003787
-0.00048
0.001033
-0.001756
0.0007235
-0.003402
0.0002113
5.629e-05
-0.0004629
0.003081
-0.00591
0.002829
-6.83e-08
6.83e-08
-0.0009644
-0.003648
-0.06613
0.0243
0.0001409
-0.001098
0.0009573
0.000162
0.0002904
-0.0004523
1.956e-06
0.0007095
-0.0007115
0.1016
0.3722
-0.4738
-2.872e-05
1.841e-05
1.031e-05
3.021e-05
0.0004742
-0.0004579
-5.642e-05
-1.511
0.5253
8.997e-07
2.572e-06
-0.000157
3.133e-05
0.0001645
-0.0001882
2.374e-05
-0.388
-0.6374
1.025
3.979e-06
-3.593e-05
9.113e-05
-0.0001096
1.848e-05
1.862e-05
-5.691e-05
3.83e-05
1.784e-05
-7.517e-05
5.733e-05
-1.198
0.8098
-0.0004771
0.0002803
0.0001968
7.005e-07
-1.471e-06
7.701e-07
4.821e-05
-7.334e-05
2.513e-05
-0.0003344
0.0003469
-1.255e-05
-0.1579
0.06299
0.09491
4.945e-05
2.474e-05
0.0001393
-0.0001718
3.249e-05
-0.1619
0.1681
-0.006156
0.002696
0.0005077
-0.003204
-0.003803
0.003717
8.595e-05
7.561e-05
-1.352e-05
-0.0001793
-9.023e-05
-0.002589
0.003728
-0.002517
0.0002912
-5.59e-06
-0.0001089
0.0001145
-3.873e-05
8.856e-05
0.2818
0.5867
-0.8685
-0.0003403
-0.0001368
-0.0003812
0.0006517
-0.0002705
5.26e-05
-5.335e-05
7.502e-07
-6.434e-05
-0.0002471
-0.01379
0.01207
0.001717
-0.0006711
0.0001108
1.189e-05
4.069e-05
1.028
-0.7459
2.647e-05
-0.0002122
-4.493e-05
-6.561e-05
2.198e-05
-2.275e-05
7.683e-07
1.515e-07
-4.69e-07
3.031e-05
-8.331e-06
1.446e-05
1.892e-05
0.000192
2.897e-05
-0.0002209
0.0002229
-0.0001426
-8.033e-05
-0.004483
0.001164
0.003319
0.1728
1.024
-4.25e-09
4.25e-09
8.055e-05
0.0001065
-0.000187
4.571e-05
-9.81e-05
2.695e-05
-2.451e-05
-2.441e-06
-0.0001011
0.000261
-0.0001599
1.492e-05
-8.092e-05
6.6e-05
-0.0001562
2.485e-05
0.0001314
-0.0002873
0.0002475
0.5591
0.841
0.0001182
0.0003211
-0.0004393
-0.004403
0.001239
0.003164
-1.503
0.3788
-8.377e-05
0.0001423
-5.854e-05
0.0001623
0.0005603
0.001526
-0.0005942
0.0008242
0.0003128
-0.001137
0.1375
-1.017
0.8798
8.938e-05
-0.0004053
6.569e-05
-1.327e-05
-5.242e-05
-0.2748
-0.7146
0.852
0.006994
0.00256
-0.0006915
0.0008989
-0.0002074
0.0003526
0.0003368
-9.134e-05
-4.28e-06
9.562e-05
-0.0004656
0.0004042
6.142e-05
2.822e-06
-1.773e-07
-2.645e-06
-0.004047
0.0009905
0.003057
-0.003949
0.005253
-0.001304
-0.7988
-0.2694
-0.000341
8.914e-05
0.0002518
-0.0002552
0.0001241
0.0001311
0.0002143
-0.0001774
-3.693e-05
5.05e-05
-9.692e-05
0.001861
-0.001741
1.085
0.08575
-1.17
0.2753
-0.2119
0.07738
-0.1338
0.05644
-9.335e-06
2.314e-06
7.021e-06
0.04533
-0.8442
0.03313
-0.01876
-0.01437
-6.92e-05
0.0001416
-7.243e-05
-0.0007029
-0.0008344
0.001537
6.682e-05
2.752e-05
-9.434e-05
-0.2159
0.8473
-0.6314
-0.0001541
0.0001064
4.776e-05
-0.0003138
0.001746
-0.001432
-0.2388
-0.01726
0.2561
0.0001332
0.0001299
0.6914
0.4734
-1.165
-0.0003522
-0.0002154
0.0005676
8.228e-06
2.501e-07
-8.478e-06
7.298e-05
-3.556e-05
-3.742e-05
-0.000311
-0.0005252
0.0008362
1.062e-05
7.396e-06
-1.802e-05
0.1852
-0.04882
-0.1363
4.009e-05
3.105e-05
-7.113e-05
-0.008908
0.008954
-4.568e-05
-0.000117
-3.361e-05
7.57e-06
-2.256e-06
-5.314e-06
-0.0001136
-0.0001032
0.0002168
0.0002032
5.997e-05
-0.0002632
-0.007284
-0.006506
0.005292
-0.005854
0.0005623
0.00181
-0.0003569
-0.001453
3.271e-05
-3.271e-05
-0.3403
0.197
0.1433
-0.001615
0.003103
-0.001488
0.0004833
-0.0003128
-0.0001704
-0.0001577
0.0002895
-0.0001319
-2.363e-06
4.828e-06
6.038e-05
-5.299e-05
-7.389e-06
-0.1176
1.202
0.04626
-0.02828
-0.01798
-2.676e-05
-1.101e-05
-0.0001089
4.305e-06
0.0001046
-3.203e-06
4.622e-06
-1.418e-06
-0.0003967
0.001049
-0.0006522
1.434e-06
-1.434e-06
-0.0002495
0.000281
-3.153e-05
4.987e-07
-4.988e-07
-0.0002106
6.73e-05
0.0001433
1.925e-05
1.151e-05
-3.076e-05
0.000346
-0.0002278
2.056e-05
-1.452e-05
-6.034e-06
0.09822
-0.07374
-0.02448
0.001298
-0.0009903
-0.0003082
1.092
-1.516
0.4242
1.318
-1.741
0.4228
-4.799e-05
-0.0001722
0.0002202
-0.04337
0.09247
-0.0491
7.899e-05
-3.743e-06
-7.525e-05
-0.003394
0.001507
0.001887
-0.001172
8.036e-05
-0.007699
0.008685
-0.0009865
0.04605
-0.101
0.05496
-0.0005436
2.875e-05
0.0005149
0.0004858
0.0007735
-0.001259
0.2521
-0.00615
-0.000911
0.001063
-0.0001517
0.0001559
-0.0002795
0.0001236
0.09349
-0.04744
4.947e-05
-2.469e-05
-2.478e-05
6.362e-06
-6.362e-06
-9.665e-05
2.07e-05
7.595e-05
0.0008659
-0.002797
0.001931
4.803e-05
-3.4e-05
-1.403e-05
-8.016e-05
0.0002135
-0.0001334
-8.269e-05
7.889e-05
3.803e-06
-0.3381
0.1232
0.2149
0.0001082
-1.532e-05
-0.0003167
-0.0003267
-0.04999
0.3507
5.999e-05
-4.477e-05
0.0002846
-2.55e-05
-0.0002591
0.0003972
-0.0007433
0.0003461
-0.4772
-0.5492
1.026
0.2174
0.0004878
-0.2178
0.002723
-0.001805
-0.000918
7.226e-07
4.294e-07
-1.152e-06
0.0001424
-0.002133
0.001991
-6.28e-06
6.28e-06
0.000606
-0.0003147
-0.0002914
0.0006999
-0.0001834
-0.0005165
-0.001586
0.001448
0.000138
1.64e-06
1.069e-06
-2.709e-06
6.222e-05
1.834e-05
-8.057e-05
-0.4116
1.372
-0.9607
-8.528e-05
0.0001171
-3.18e-05
0.005667
-0.0004761
-0.005191
-0.3004
1.333
-1.033
-0.0005882
-0.0007985
0.001387
-1.704e-07
8.9e-08
8.141e-08
0.001025
0.001246
-0.002271
-3.113e-05
2.2e-05
9.127e-06
0.006588
-0.003721
-0.002867
0.001239
0.00311
-0.004349
-3.453e-07
-5.36e-07
8.814e-07
1.22e-05
-1.22e-05
0.0003124
0.0001352
-0.0004477
-0.08803
-0.05348
-0.4603
0.2234
0.237
0.002818
-0.001074
-0.001744
-0.001334
0.001018
0.0003159
-5.086e-05
-8.81e-05
0.000139
6.923e-05
-3.975e-05
-2.947e-05
-0.0005588
-0.0002102
0.0007689
0.0001711
-8.16e-05
-8.95e-05
-0.001536
0.001382
0.0001545
-0.009614
0.01751
-0.007897
6.638e-05
0.0001047
-0.03242
-0.01503
0.04746
1.979e-05
1.171e-06
-2.096e-05
0.1368
-0.5757
0.4389
-0.0002022
-0.0002835
0.0004856
-1.806e-06
8.89e-06
-7.084e-06
0.0002806
-0.0003363
5.566e-05
-0.0001743
0.0001442
3.015e-05
0.0004644
-0.0002276
-0.0002368
-0.3821
0.09726
0.2849
-0.1888
0.05556
0.1333
2.154e-05
-3.571e-05
1.417e-05
0.007716
-0.008739
0.001023
-6.504e-05
0.0001275
-6.241e-05
0.0002528
-0.0004307
0.0001779
3.295e-05
-6.45e-05
3.156e-05
-0.0004525
0.0004424
1.012e-05
0.0002984
-9.425e-05
-0.0002041
-0.0001388
0.0001413
-2.579e-06
-9.158e-06
6.203e-05
-5.287e-05
4.31e-05
-4.31e-05
-4.992e-06
-6.558e-05
7.057e-05
-1.992e-05
0.000139
-0.0001191
-9.628e-05
7.964e-05
1.664e-05
-0.002736
0.004109
-0.001374
-0.0003038
0.0006417
-0.0003379
0.0001439
0.0006981
0.0001129
-0.0001176
4.727e-06
-7.528e-08
-4.127e-06
4.202e-06
-6.212e-08
4.341e-08
1.871e-08
0.0005646
-0.000263
-0.0003016
-0.3196
0.4212
0.5901
0.2173
-0.8074
0.0003754
-0.0005018
0.0001264
-7.342e-05
-0.0002135
0.0002869
0.004795
-0.000884
-0.003911
-0.1886
1.18
-0.9918
0.0002618
0.0005884
-0.0008502
0.0004373
3.406e-05
-0.002513
-0.005731
0.008244
-4.129e-05
-2.648e-05
6.777e-05
0.0006538
-0.0004642
-0.0001896
1.709e-05
-7.103e-05
5.394e-05
0.002826
-0.003315
0.0004888
0.7873
-0.6762
-0.008327
0.002782
0.005546
0.01221
0.0005723
-0.01279
6.843e-05
-7.946e-06
-6.048e-05
2.384e-05
3.992e-05
-6.376e-05
0.0001072
-8.06e-05
-2.66e-05
-0.004301
0.001703
0.002598
0.0004389
-0.003431
0.002992
-1.489e-05
3.798e-05
-2.309e-05
-0.0003585
0.0005338
-0.0001753
-0.002038
-0.001344
0.003383
-0.0009424
0.0003717
0.0005707
-0.0006578
-0.0001426
0.0008004
0.001116
-0.0009072
-0.0002088
-0.0002383
0.0002033
3.505e-05
0.0001367
-9.768e-05
-3.899e-05
0.2599
-0.3214
0.06142
1.5e-05
-8.58e-06
-6.418e-06
2.599e-07
8.789e-07
-1.139e-06
-0.0005814
0.0002002
3.873e-06
-0.0001243
0.0001204
-1.55e-05
1.104e-05
0.02152
-0.1184
0.09684
1.202e-05
-1.202e-05
-4.735e-05
4.735e-05
-0.1666
-1.047
1.214
1.259
0.2309
-1.489
0.0001197
-6.849e-05
-5.122e-05
-6.416e-05
0.0004301
-0.0003659
-7.381e-08
8.546e-08
-1.165e-08
-1.281e-05
6.569e-06
6.241e-06
-0.0001479
0.001446
-0.0003113
0.0004042
-9.29e-05
-6.809e-05
-6.868e-06
7.495e-05
-0.001098
-0.004151
0.005249
0.003595
0.00515
-0.008745
-0.1895
0.06251
0.1269
-7.1e-05
4.741e-05
2.359e-05
6.49e-05
0.000425
-0.0004899
5.559e-05
-0.0001126
5.701e-05
-0.004623
0.001022
0.003601
1.766e-07
-5.48e-07
3.713e-07
-0.0002357
0.0003215
-8.584e-05
0.816
-1.147
0.3313
-5.492e-05
5.492e-05
-0.0001299
8.458e-05
4.531e-05
0.1661
0.5627
-0.7288
-5.862e-05
5.272e-06
-1.287
1.12
0.2419
-0.4262
0.1843
-0.002973
0.002077
0.0008957
-0.01114
-0.002111
0.01325
-5.344e-06
3.281e-06
2.063e-06
0.7806
-0.9459
0.1653
0.0002881
-0.0001529
-0.0001352
0.476
-0.1361
-0.3399
0.0004794
-0.000892
0.0004127
-0.01671
0.005542
0.01117
0.001198
-0.0009831
-0.0002147
0.00617
-0.003229
-0.002941
-7.167e-05
-0.0003016
0.0003733
-0.0003212
-0.0001281
0.0004493
-5.662e-05
-1.715e-05
7.377e-05
0.001533
0.0003373
-0.00187
0.1499
0.6503
-0.8002
0.01041
0.06108
-0.07148
0.0003643
-0.000215
-0.0001494
-0.0001081
-0.0005443
0.0006523
-3.069e-05
0.0001017
-7.1e-05
-8.979e-05
5.11e-05
3.869e-05
2.398e-05
-1.437e-05
-9.613e-06
4.772e-05
1.236e-05
-6.008e-05
9.996e-06
-9.996e-06
5.624e-05
-9.812e-05
0.0007005
-0.0005136
-0.0001869
1.332e-05
-2.982e-05
1.651e-05
-0.0003925
0.0002547
0.0001378
5.834e-05
2.636e-05
-8.47e-05
0.005662
-0.006472
0.0008105
-0.000308
8.509e-05
0.0002229
0.4952
-0.3659
-0.1293
5.988e-05
-6.486e-05
4.981e-06
3.032e-06
-1.435e-05
1.132e-05
-0.0001665
1.145e-06
0.0001654
0.496
-1.094
0.5979
-0.000347
0.0001186
0.0002285
-0.0006852
0.0003693
0.0003159
-0.001625
0.0004095
0.001216
0.001213
-0.0005536
-0.0006592
2.464e-05
-9.715e-05
7.251e-05
0.001425
0.00671
-0.008135
-3.494e-05
3.993e-05
-4.994e-06
9.54e-05
0.0003626
-0.000458
-0.0008248
-0.0008005
2.113e-05
3.845e-05
-5.958e-05
-0.0002675
-4.015e-05
0.0003076
1.408e-06
6.162e-06
-1.181
0.5417
0.639
0.002177
-0.004243
0.002065
5.169e-05
-1.868e-05
-3.301e-05
0.1289
0.05699
-0.1859
7.651e-05
-2.195e-05
-5.456e-05
-3.092e-05
-7.749e-06
3.867e-05
-1.246
1.246
0.001501
0.002328
-0.003829
1.1e-05
-1.541e-05
4.402e-06
0.06812
-0.05238
-0.01574
0.006676
-0.001015
0.0001367
-3.669e-05
-0.0001
6.964e-05
-1.596e-05
-5.368e-05
0.01225
-0.009456
-0.00279
-1.27
0.5237
0.7458
-7.065e-05
0.000113
-4.239e-05
4.691e-05
-0.0001126
6.565e-05
0.4035
-0.2561
-0.1474
-0.008618
0.00608
0.002538
0.001001
-0.03137
0.03037
0.0003607
0.0001386
-0.0004993
7.637e-05
2.593e-05
-0.0001023
-0.001517
-0.0007666
0.002284
-0.05372
-0.05461
0.1083
-4.273e-07
1.677e-06
-1.25e-06
1.204e-08
1.989e-07
-2.109e-07
0.0001086
0.0003129
0.0002061
-0.0006905
0.0004844
0.0004628
-0.000734
0.0002712
1.401e-05
6.549e-06
-0.3926
1.24
-0.8473
0.0001406
-0.0007072
0.0005666
0.3501
-0.007041
-0.343
-0.0002056
0.0002909
-8.53e-05
-0.0009251
0.0009077
1.734e-05
-4.187e-05
-5.451e-05
9.637e-05
0.0003216
0.0008912
-2.838e-06
3.241e-06
-4.034e-07
-1.038e-05
1.124e-05
-8.585e-07
-0.5585
0.2187
0.3399
-8.252e-07
8.252e-07
4.755e-05
-3.573e-05
-1.182e-05
-1.494e-05
5.766e-05
-4.272e-05
-0.001406
-0.0001589
0.001565
-0.000133
0.000186
0.0003641
0.0002543
-0.0006184
-0.0003885
0.0001424
0.0002461
-0.0001019
8.441e-05
1.744e-05
0.001597
-0.001116
-0.0004813
-0.009409
0.02469
-0.01528
2.533e-06
-2.533e-06
0.0001868
-0.0002303
4.342e-05
-0.0004359
0.0001948
0.0002411
0.0001499
7.5e-05
-0.0002249
0.0008596
-0.0007161
-0.0001435