/*--------------------------------*- C++ -*----------------------------------*\
  =========                 |
  \\      /  F ield         | OpenFOAM: The Open Source CFD Toolbox
   \\    /   O peration     | Website:  https://openfoam.org
    \\  /    A nd           | Version:  8
     \\/     M anipulation  |
\*---------------------------------------------------------------------------*/
FoamFile
{
    version     2.0;
    format      ascii;
    class       volVectorField;
    location    "40";
    object      U;
}
// * * * * * * * * * * * * * * * * * * * * * * * * * * * * * * * * * * * * * //

dimensions      [0 1 -1 0 0 0 0];

internalField   nonuniform List<vector> 
127143
(
(0.0008975 -3.853e-05 0)
(-2.373e-05 -0.0001179 -1.414e-24)
(-4.947e-05 -0.0002429 2.498e-24)
(-6.433e-05 -0.0002938 -1.066e-27)
(0.005803 0.001813 -5.172e-23)
(-5.433e-05 -0.0003021 3.638e-27)
(0.01696 0.01082 0)
(0.008683 0.003997 -7.131e-23)
(0.007079 0.00342 2.354e-22)
(-0.001815 -6.584e-05 0)
(0.01875 0.02594 2.824e-22)
(0.01133 0.007551 2.599e-22)
(0.000134 -5.071e-05 -4.96e-25)
(-8.348e-05 -0.0003299 0)
(0.0331 0.00331 5.333e-21)
(0.01995 -0.001862 0)
(-0.000111 -0.0005454 -4.048e-24)
(0.06155 -0.07874 2.57e-20)
(-0.1496 0.009356 0)
(0.0311 0.00955 0)
(-0.1523 0.044 1.901e-20)
(-0.0001122 -2.686e-06 0)
(0.9839 -0.1431 0)
(0.3489 -0.03398 0)
(-0.0001339 1.401e-05 -4.715e-23)
(0.1174 -0.01891 0)
(-0.01741 0.0001698 4.622e-21)
(-0.01742 -0.0004757 -6.93e-23)
(0.1252 -0.05426 0)
(0.4223 -0.0903 -4.226e-21)
(0.2748 -0.01717 0)
(0.1129 -0.01678 -1.272e-21)
(0.05059 0.01248 1e-21)
(-0.01935 0.005288 -6.284e-21)
(0.872 -0.07247 2.351e-20)
(0.04912 0.01449 -2.405e-24)
(-0.1633 0.05777 8.829e-21)
(0.2242 0.02402 -1.425e-20)
(0.4343 -0.03933 -1.301e-21)
(0.1116 -0.003082 1.149e-25)
(-0.1502 0.007976 0)
(1.097 0.4694 -7.002e-21)
(1.076 0.4582 5.424e-21)
(0.0002794 -9.582e-05 0)
(0.04481 -0.07394 -2.147e-20)
(-0.02017 0.004611 1.992e-21)
(0.1279 -0.05859 0)
(-0.1965 0.0693 -1.329e-21)
(0.433 -0.07633 2.798e-22)
(0.4116 -0.03285 -8.116e-22)
(0.02376 -0.001686 -4.548e-23)
(0.9747 -0.03202 4.253e-20)
(-0.06981 0.01574 0)
(1.186 0.1569 -9.395e-21)
(1.001 -0.001037 2.419e-20)
(0.3238 -0.08029 2.672e-22)
(1.001 -0.001031 -2.175e-20)
(1.104 -0.08035 0)
(1.01 -0.008945 -1.515e-20)
(1.185 0.1583 -1.829e-20)
(0.5054 -0.04918 -6.601e-20)
(-0.1512 0.05663 -1.571e-21)
(0.7926 -0.05316 4.559e-21)
(1.001 0.0004927 5.167e-20)
(-0.04167 0.003482 0)
(0.8652 -0.2324 -7.185e-21)
(1.09 0.1484 3.302e-20)
(0.7349 -0.05478 0)
(0.7459 -0.05423 1.247e-21)
(0.9909 -2.439e-05 0)
(0.3144 -0.02342 0)
(-0.01873 0.0001753 -2.176e-21)
(-0.1806 -0.02851 -7.148e-21)
(1.011 -0.008806 -8.374e-21)
(1.004 0.002886 -3.74e-22)
(-0.01878 -0.00038 2.166e-21)
(1.011 0.03723 -2.25e-20)
(-0.167 0.05613 0)
(0.3349 -0.08814 -4.895e-22)
(1 0.0006943 0)
(0.1219 -0.05629 7.24e-24)
(0.03423 0.008823 1.046e-23)
(-0.03618 0.008747 3.987e-21)
(0.1376 -0.009529 0)
(-0.1468 -0.0009982 1.615e-21)
(-0.1793 0.06133 0)
(0.5172 -0.05074 -2.94e-21)
(-0.005147 0.0001829 1.413e-21)
(0.8644 -0.2298 0)
(0.9895 0.606 0)
(0.9996 -0.006355 0)
(1.214 0.03267 0)
(1.144 0.7059 0)
(-0.1521 0.04394 -1.943e-20)
(-0.07957 0.01742 0)
(1.039 0.05414 1.521e-20)
(1.097 0.4614 1.477e-20)
(0.193 -0.01378 0)
(-0.1847 0.05682 5.99e-21)
(1.087 0.1492 0)
(1 0.000674 0)
(0.4575 -0.0829 0)
(0.6007 0.5593 -7.53e-22)
(1.078 -0.1234 0)
(-0.1821 0.06258 -2.991e-21)
(-0.1837 0.0566 8.554e-21)
(0.7449 -0.1164 -1.99e-21)
(0.9901 4.316e-05 0)
(0.6885 -0.2637 0)
(1.002 -0.0007786 3.444e-20)
(0.04183 -1.01e-05 -1.699e-21)
(-0.004997 -5.852e-07 2.707e-21)
(-0.1223 0.03138 -1.971e-20)
(0.2483 0.5503 0)
(0.9961 0.009857 1.42e-20)
(1.026 -0.1672 -3.383e-22)
(0.9897 0.04102 -7.177e-21)
(1.004 0.003012 -3.158e-20)
(1.011 0.03623 1.77e-20)
(-0.0007285 -0.003117 0)
(1.002 -0.0008289 -4.817e-20)
(-0.04235 0.01134 -9.89e-22)
(0.7596 -0.2789 0)
(1.082 -0.08812 1.339e-20)
(0.128 -0.05669 3.468e-22)
(0.08004 -0.01029 -3.492e-21)
(-0.1707 0.05405 0)
(1.035 0.005061 1.055e-19)
(-0.07881 0.006117 -3.395e-21)
(0.3254 -0.09384 -6.363e-22)
(-0.1409 0.04245 0)
(-0.08956 0.0224 -7.485e-21)
(0.9491 -0.08016 -8.917e-21)
(-0.1687 0.05662 0)
(-0.0001658 -0.0009884 -2.252e-23)
(-0.1444 0.04357 -3.721e-21)
(1.082 -0.04777 0)
(-0.1394 0.04266 4.138e-21)
(0.1535 -0.08682 -2.898e-21)
(1.108 -0.006116 9.355e-21)
(0.9527 -0.172 7.763e-21)
(0.9868 0.02868 4.629e-20)
(-0.06934 0.01494 1.092e-21)
(-0.08792 0.03249 -1.197e-20)
(-0.06756 0.01565 -3.228e-21)
(1.261 0.476 4.11e-21)
(-0.03059 0.1702 6.518e-22)
(1.001 0.000428 -4.669e-20)
(-0.08622 0.02141 6.265e-21)
(0.497 0.434 -4.68e-22)
(1.08 -0.1151 -3.21e-21)
(0.4944 -0.09817 0)
(0.5278 0.05092 3.427e-20)
(0.8363 -0.134 0)
(0.2743 -0.18 0)
(-0.1488 -0.0008016 0)
(1.105 -0.0794 -4.919e-21)
(0.3139 -0.1101 0)
(-0.1965 0.0692 -2.475e-21)
(0.1683 -0.0151 8.925e-22)
(0.3463 -0.02132 0)
(0.02867 -0.01511 2.265e-21)
(0.9997 -0.006138 2.295e-22)
(-0.142 0.04284 -9.178e-21)
(0.1899 -0.04892 0)
(-0.04608 0.004076 4.556e-21)
(-0.142 0.04925 -4.582e-21)
(0.6746 -0.2232 1.589e-20)
(0.2132 0.05938 -2.694e-21)
(0.9421 0.04964 -6.465e-21)
(-0.0153 0.004321 0)
(-0.08871 0.0331 5.561e-21)
(1.018 -0.1775 -8.211e-22)
(0.8843 -0.2552 -2.122e-21)
(0.9786 -0.0007899 3.634e-20)
(-0.07148 0.005131 8.362e-23)
(1.243 0.541 -6.869e-22)
(-0.07892 0.006328 -3.358e-21)
(0.4021 -0.04065 0)
(1.007 -0.01903 5.583e-21)
(0.8833 -0.2556 -7.266e-22)
(1.007 0.001997 0)
(-0.05616 -0.01106 1.143e-21)
(-0.07152 0.004353 -8.391e-23)
(0.3363 -0.09835 1.332e-21)
(-0.1484 0.05587 2.772e-21)
(1.03 0.3024 -5.972e-21)
(0.2673 0.5666 -3.71e-21)
(0.3764 -0.03695 -2.372e-21)
(1.026 -0.02805 4.37e-20)
(-0.09334 0.01655 1.948e-21)
(-0.07771 0.01131 -8.644e-21)
(1.08 -0.04685 6.937e-20)
(0.3772 0.9303 5.067e-24)
(-8.788e-05 -0.001022 3.755e-23)
(-0.16 0.04942 0)
(1.003 3.922e-07 0)
(0.9984 -1.555e-06 2.821e-22)
(0.01382 0.007539 0)
(0.991 0.01411 4.507e-21)
(1.011 0.007433 3.08e-20)
(0.9312 0.00705 1.079e-19)
(0.9913 -0.04419 9.379e-21)
(-0.1692 0.05985 -4.448e-21)
(-0.0001138 -0.0006282 5.445e-25)
(0.6391 -0.03946 4.573e-21)
(1.011 -0.09391 -1.938e-21)
(0.9942 -0.1763 2.685e-22)
(0.5441 -0.1138 1.614e-21)
(0.9962 0.009541 -7.303e-21)
(1.167 -0.0395 1.916e-20)
(-0.1287 0.002983 1.086e-21)
(0.9945 -0.004346 1.026e-20)
(0.2246 0.0606 -2.886e-21)
(-0.111 0.03375 4.313e-24)
(0.01849 0.001782 0)
(-0.01446 0.004893 -3.996e-22)
(0.9768 -0.1905 -6.514e-22)
(-0.1309 0.03576 -1.322e-20)
(1.012 -0.09272 -5.979e-22)
(1.234 0.5361 -1.364e-21)
(1.001 0.00493 -5.062e-21)
(0.4819 -0.09462 1.345e-22)
(-0.05024 0.01401 3.577e-21)
(0.1547 -0.01471 0)
(-0.02296 0.007768 0)
(0.2353 -0.05986 -4.635e-22)
(0.2795 0.03277 1.497e-20)
(-0.06044 0.02068 1.51e-21)
(-0.1841 0.05817 7.615e-21)
(-0.1485 0.04213 1.226e-20)
(1.008 0.001193 -6.194e-21)
(-0.1843 -0.02826 1.423e-20)
(-0.000131 -0.007172 0)
(-0.1489 0.04225 0)
(1.069 -0.07401 1.346e-20)
(-0.1419 0.04306 4.422e-21)
(0.002259 -0.0003471 2.309e-23)
(1.011 0.007224 -2.864e-20)
(-0.09338 0.01525 1.027e-20)
(-0.07954 0.01174 8.128e-21)
(-0.05667 0.003172 -7.678e-21)
(-0.1501 0.04131 -7.037e-22)
(0.3254 -0.1153 4.179e-25)
(0.2923 0.04303 0)
(-0.0005819 -0.003216 1.74e-26)
(0.6301 -0.1281 -6.457e-22)
(-0.0175 0.0003231 0)
(-0.003344 0.000923 5.391e-22)
(1.001 -3.702e-05 -1.072e-21)
(1.214 0.3901 -1.575e-20)
(0.1167 -0.01303 2.572e-21)
(0.9323 -0.2192 0)
(-0.1227 0.03649 0)
(0.435 -0.105 4.062e-22)
(0.7071 -0.268 0)
(1.034 0.004515 -8.277e-20)
(0.4085 0.1345 0)
(0.937 -0.2359 0)
(0.8686 0.2272 1.157e-20)
(-0.1506 0.04885 -5.565e-21)
(1.01 -0.01349 6.325e-21)
(1.21 0.03355 1.545e-22)
(0.9862 0.02772 -3.751e-20)
(0.0914 0.01783 0)
(-0.05175 0.004103 -2.412e-21)
(-0.07257 0.02347 6.148e-21)
(0.2353 -0.1691 0)
(0.5495 -0.1699 3.93e-20)
(1.22 0.1787 -6.014e-21)
(0.2007 -0.03557 0)
(0.9746 -0.001471 -4.38e-20)
(-0.1939 0.06635 -1.722e-21)
(-0.09421 0.01502 -1.072e-20)
(0.9404 -0.05975 7.312e-21)
(-0.09286 0.01675 -9.406e-21)
(-0.1236 0.03207 0)
(0.5035 -0.07981 2.619e-21)
(0.9562 -0.002375 -7.94e-22)
(0.8843 -0.2579 2.196e-21)
(1.003 -0.0004031 4.077e-22)
(1.036 0.05783 2.456e-21)
(1.079 -0.1229 -9.622e-24)
(0.995 0.002994 0)
(1.003 0.0104 3.068e-21)
(-0.0004011 -0.001026 -5.452e-24)
(-0.1342 0.03879 0)
(0.9963 0.01076 7.691e-21)
(0.4608 -0.0653 2.417e-21)
(1.006 -0.01906 7.355e-21)
(0.5876 0.04712 -4.584e-20)
(0.9742 -0.1804 0)
(1.067 -0.07492 -1.326e-20)
(1.001 -0.1925 0)
(0.997 -0.006312 -6.218e-21)
(0.675 -0.2773 -3.684e-22)
(0.261 -0.02066 1.878e-21)
(0.008111 -0.03247 -7.793e-22)
(-0.1505 0.04173 2.716e-21)
(1.222 0.1786 4.278e-21)
(0.1914 -0.02102 -1.02e-21)
(0.9149 -0.2168 -9.048e-22)
(0.7835 -0.2219 -1.074e-20)
(1.026 -0.1668 3.262e-21)
(0.1471 -0.01069 0)
(0.4675 -0.2659 3.531e-23)
(0.9984 -0.1765 8.985e-23)
(0.9943 -0.004493 0)
(-0.03984 0.02659 -8.452e-24)
(1.019 -0.1066 -3.928e-21)
(0.6946 -0.1096 -2.53e-21)
(0.01042 -0.03163 -7.676e-23)
(0.2977 -0.0726 0)
(1.002 -0.0005216 9.294e-22)
(0.9921 0.003605 -2.116e-20)
(1.093 0.4711 5.859e-22)
(0.0668 0.02187 8.368e-21)
(0.1819 -0.01987 2.414e-21)
(1.196 0.05336 2.617e-20)
(0.9139 -0.01517 -5.273e-22)
(0.9825 -0.1419 0)
(0.3007 -0.02064 -3.193e-21)
(1.063 0.01312 2.388e-20)
(0.9314 -0.2183 1.576e-22)
(1.071 0.4573 0)
(0.06349 0.01825 -1.701e-20)
(0.9113 -0.03759 4.948e-20)
(0.04651 -0.01451 -6.577e-24)
(0.3277 -0.003514 1.874e-21)
(1.208 0.6012 6.406e-21)
(-0.1767 0.0629 0)
(1.003 0.01026 -3.359e-21)
(0.8773 -0.07374 -9.044e-20)
(1.003 7.641e-06 0)
(0.9984 -8.035e-07 0)
(0.836 -0.1302 0)
(0.7005 -0.2654 -2.43e-21)
(1.017 -0.1776 -7.928e-22)
(-0.1769 0.06324 -2.27e-21)
(-0.1213 0.03457 -2.502e-20)
(1.105 -0.007947 -4.211e-20)
(0.977 -0.1907 0)
(-0.0536 0.01823 2.967e-21)
(-0.09154 0.017 1.587e-21)
(0.1902 0.1421 -1.747e-22)
(0.4517 -0.0629 -1.572e-21)
(-0.05533 0.014 -4.142e-21)
(-0.09686 0.0221 6.7e-21)
(0.2152 -0.02557 -1.954e-21)
(-0.07142 0.006541 0)
(0.228 -0.0249 1.623e-21)
(-0.07542 0.03226 5.69e-21)
(-0.09139 0.02039 -1.734e-21)
(-0.09231 0.01687 6.897e-21)
(0.9217 0.05162 0)
(-0.064 0.01629 -1.062e-20)
(-0.1236 0.03667 -6.51e-21)
(1.258 0.4436 -3.649e-21)
(1.004 -0.006246 5.736e-21)
(0.3137 -0.002774 0)
(-0.1885 0.06048 -2.578e-21)
(0.831 -0.05577 1.331e-21)
(0.5213 -0.07527 -3.36e-20)
(0.432 -0.03074 0)
(0.4173 -0.03511 -2.545e-21)
(1.002 0.002404 1.804e-22)
(0.9913 0.0138 -1.352e-20)
(0.8916 -0.001686 0)
(-0.03011 0.005521 2.082e-21)
(0.96 -0.001765 0)
(0.3816 -0.02871 5.558e-20)
(1.064 0.01091 -5.096e-20)
(0.1435 -0.0157 -2.47e-21)
(0.4089 -0.02916 3.086e-21)
(1.026 -0.02665 0)
(1.159 0.05063 -6.256e-22)
(0.2854 -0.02481 2.133e-21)
(0.00563 -0.008774 1.992e-26)
(-0.1867 0.05973 -1.48e-20)
(0.963 -0.005154 3.721e-21)
(0.3953 -0.0215 -5.675e-20)
(0.093 -0.01199 3.516e-21)
(0.2444 -0.03102 0)
(0.9128 -0.219 -3.785e-21)
(0.9902 0.0395 0)
(0.04485 -0.003256 0)
(0.9599 0.1567 0)
(0.1185 -0.00382 0)
(-0.1624 0.05008 -1.676e-21)
(0.1514 0.01972 -3.866e-20)
(1.011 -0.006848 -4.35e-20)
(0.7523 -0.193 0)
(-0.03847 0.01276 1.044e-21)
(0.4371 -0.1121 4.957e-22)
(0.3733 -0.03367 4.79e-21)
(0.2588 -0.0165 2.041e-21)
(0.7568 -0.1953 -8.925e-21)
(0.2986 -0.01833 0)
(0.9203 0.04988 0)
(1.009 -0.01378 0)
(0.1245 -0.0106 -6.164e-22)
(1.001 0.004684 1.816e-21)
(-0.1355 0.03838 0)
(-0.05945 -0.01048 0)
(0.9655 0.1586 0)
(1.038 -0.1255 2.362e-21)
(-0.1861 0.06398 -1.53e-20)
(0.9282 -0.08565 6.52e-21)
(1 0.0005931 -7.936e-20)
(0.4337 -0.04493 0)
(0.6861 -0.2974 0)
(0.2166 -0.0285 -2.094e-21)
(0.954 -0.1708 -8.02e-21)
(-0.1957 0.06946 0)
(0.7731 -0.2827 0)
(-0.08142 0.0179 -6.951e-21)
(-0.1762 0.05158 -1.433e-20)
(0.1724 -0.03319 0)
(0.8273 0.08797 7.381e-21)
(0.5381 -0.2165 -1.253e-21)
(-0.1461 0.05117 0)
(-0.01679 0.005859 -1.592e-21)
(-0.09781 0.02871 0)
(1.003 0.000161 -7.919e-23)
(-0.1847 0.05836 -9.449e-21)
(0.9242 0.271 -3.903e-21)
(1.07 0.4461 3.879e-22)
(0.9213 -0.159 -9.176e-21)
(-0.05983 0.003974 7.797e-21)
(0.9921 -0.1152 -3.051e-22)
(1.003 -0.0002041 0)
(-0.09827 0.02913 0)
(-0.08672 0.02 0)
(1.181 -0.05415 1.132e-19)
(0.8994 0.1636 7.16e-22)
(1.002 0.002354 -5.955e-21)
(1.001 -0.1548 2.174e-21)
(-0.05562 0.01327 -7.779e-21)
(0.9755 -0.03091 -1.61e-20)
(0.9967 -0.006219 0)
(0.9981 -0.0007492 -4.459e-21)
(0.4404 -0.03527 1.314e-21)
(1.081 -0.05246 -2.409e-20)
(0.7008 -0.2713 3.49e-21)
(0.9617 0.03451 0)
(0.2054 -0.0149 -1.237e-22)
(0.9898 0.002931 4.865e-20)
(0.339 -0.2278 0)
(0.8764 -0.005166 -2.351e-21)
(-0.1286 0.001574 1.059e-21)
(-0.1752 0.05229 0)
(0.2845 -0.03705 -8.834e-24)
(1.055 -0.1265 -6.564e-21)
(-0.02903 0.004955 1.177e-20)
(0.8607 0.08853 -1.261e-22)
(-0.1762 0.06089 -1.512e-21)
(0.184 -0.02232 -1.029e-21)
(-0.0651 0.003737 0)
(-0.1847 0.06496 0)
(1.119 0.1262 4.518e-21)
(0.9737 -0.08377 2.99e-21)
(-0.04527 0.0106 8.321e-21)
(-0.0443 0.03623 0)
(0.3191 0.5107 -1.775e-20)
(-0.05361 0.01032 -1.03e-24)
(0.9932 -0.0009354 0)
(1.004 0.0252 0)
(-0.1043 0.02451 0)
(-0.05887 0.01612 4.196e-21)
(0.9991 -0.000145 0)
(-0.1858 0.05696 6.304e-21)
(1.211 0.05431 2.153e-20)
(1.083 -0.08661 -2.029e-20)
(0.09011 0.02168 -2.791e-21)
(1.015 -0.07824 -3.667e-21)
(1.004 -0.0001041 0)
(0.2115 -0.115 -1.597e-20)
(1.208 0.05441 -2.109e-20)
(-0.06254 0.02173 -9.588e-22)
(0.01802 0.02168 8.103e-22)
(0.1196 -0.06307 2.496e-22)
(0.3333 -0.2262 -1.846e-21)
(-0.05827 0.009107 2.126e-21)
(0.2987 -0.07039 0)
(0.6903 -0.2919 0)
(0.9292 0.1678 -7.107e-22)
(0.09502 0.02371 -6.022e-22)
(1.01 0.001784 3.606e-20)
(0.1949 -0.01669 -1.762e-21)
(0.9731 0.01065 4.005e-20)
(1.212 0.5359 2.077e-22)
(0.5545 -0.05503 2.587e-21)
(-0.07656 0.01283 0)
(1.263 0.461 1.824e-21)
(-0.0001923 -0.001057 0)
(-0.1285 0.03932 1.017e-20)
(0.265 0.3364 5.548e-21)
(1.09 -0.02849 -2.766e-22)
(1.012 0.7209 6.675e-21)
(0.9942 -0.00226 -6.368e-20)
(0.1169 -0.06567 0)
(1.005 0.02526 1.854e-23)
(-0.1424 0.04256 0)
(-0.1561 0.04857 -5.78e-21)
(-9.188e-05 -0.0005567 0)
(0.001098 0.0003558 3.194e-23)
(0.001078 -0.0003966 -9.968e-24)
(1 -0.0002744 -3.128e-20)
(-0.06584 0.01687 0)
(0.451 0.09528 0)
(0.9924 0.003736 4.109e-20)
(-0.185 0.06341 3.842e-21)
(0.7312 -0.2696 4.364e-21)
(-0.136 0.04403 9.494e-21)
(1.048 -0.1513 0)
(-0.1749 0.05203 0)
(0.2788 -0.03434 -1.528e-21)
(-0.1857 0.05693 -6.392e-21)
(-0.009934 0.001871 5.03e-22)
(0.9983 -0.0006421 0)
(-0.1075 -0.008326 -1.412e-21)
(-2.494e-05 -8.34e-06 0)
(0.4851 -0.198 7.896e-22)
(0.2074 -0.02024 7.492e-22)
(-0.01682 0.004556 3.689e-22)
(1.011 -0.008294 -1.318e-20)
(1.083 -0.1146 -3.482e-21)
(0.9939 -0.04476 -2.641e-21)
(-0.03171 0.03441 1.104e-20)
(0.9999 -0.004989 0)
(0.1717 -0.01336 0)
(0.2866 0.1349 0)
(-0.04871 0.01648 -1.682e-21)
(0.9982 2.48e-05 0)
(-0.1044 0.02482 -6.807e-21)
(1.054 -0.09803 -9.37e-21)
(-0.0003232 -0.001599 7.386e-26)
(0.6587 -0.2943 1.833e-21)
(0.2054 0.06101 6.266e-22)
(-0.02796 0.02947 -3.759e-21)
(0.9708 0.003381 2.661e-21)
(-0.09335 0.03263 -1.469e-21)
(0.7756 -0.2889 -2.722e-21)
(0.999 -0.0001457 3.523e-21)
(0.914 -0.2186 5.077e-21)
(0.9348 0.1003 -3.166e-20)
(0.2845 -0.02361 -1.708e-21)
(0.4451 -0.03027 2.017e-21)
(-0.05406 0.01481 -4.138e-21)
(-0.04463 0.0152 7.612e-22)
(-0.1604 0.04951 2.941e-21)
(1.124 0.1797 0)
(0.5898 -0.2343 1.107e-21)
(-0.1482 0.05056 0)
(-0.1026 0.03032 1.882e-22)
(1.018 -0.003065 -6.858e-21)
(0.1313 -0.004743 2.023e-22)
(-0.1517 0.0446 -5.888e-21)
(0.2083 -0.03323 2.546e-21)
(0.8818 -0.09493 -5.87e-21)
(-0.1696 0.05138 2.743e-21)
(1 0.001237 0)
(0.9998 0.001571 1.369e-20)
(0.8753 0.2181 -1.883e-20)
(-0.05359 0.01334 -1.982e-21)
(0.9903 0.7559 0)
(0.9911 0.004461 -2.803e-20)
(1.003 1.132e-05 -4.98e-22)
(0.7876 -0.2807 0)
(0.3817 -0.1678 0)
(-0.187 0.06486 4.809e-21)
(0.6888 -0.2925 0)
(-0.04111 0.01406 2.638e-21)
(-0.01626 0.005356 0)
(0.9689 -0.2124 -2.326e-22)
(1.009 0.0323 0)
(1 -0.0003921 5.99e-21)
(-0.05359 0.01898 1.479e-21)
(-0.1857 0.05566 -5.541e-21)
(0.8609 -0.2021 4.023e-22)
(1.002 -0.001054 1.004e-20)
(-0.01915 0.0004003 1.051e-21)
(0.9606 -0.09504 0)
(-0.1015 0.02881 7.19e-21)
(0.9633 -0.00396 9.008e-21)
(0.14 -0.01656 2.071e-22)
(0.9909 0.004205 5.15e-20)
(-0.1881 0.06488 -2.561e-21)
(-0.06706 -0.01388 0)
(0.1014 0.02394 6.991e-22)
(1 1.141e-05 1.976e-22)
(-0.07401 0.02447 -5.66e-21)
(-0.1499 0.04836 -1.323e-21)
(0.05125 -0.03169 -3.202e-21)
(1.004 -9.553e-05 -1.458e-21)
(0.7709 -0.1227 2.008e-21)
(-0.01466 0.004875 1.859e-22)
(0.9982 -0.0008331 0)
(1.041 -0.1267 0)
(0.9929 0.009465 -8.902e-22)
(0.5573 -0.03586 2.64e-21)
(0.04363 0.01687 0)
(0.9951 0.002804 2.864e-20)
(-0.0444 0.01147 9.424e-21)
(0.3236 -0.04459 1.259e-21)
(0.00913 -0.0342 0)
(-0.08593 0.01275 -1.138e-20)
(-0.05117 0.0151 -2.309e-21)
(0.2411 -0.02541 -4.86e-21)
(0.2526 -0.02954 -1.484e-21)
(0.1748 -0.0129 -2.169e-20)
(0.461 -0.0431 -1.124e-21)
(1.166 0.7224 8.215e-22)
(0.4755 -0.02073 -2.343e-21)
(-0.1012 0.02827 -1.888e-21)
(-0.0297 0.0104 -4.025e-21)
(0.1667 -0.01495 8.511e-22)
(1.002 -0.001021 0)
(0.3106 -0.06428 9.247e-23)
(0.9938 0.003303 -1.178e-20)
(0.2062 0.1602 -1.582e-20)
(1.037 0.02059 4.198e-20)
(-0.06607 0.01512 1.553e-20)
(1.003 -0.0002405 0)
(0.9961 0.01059 2.01e-20)
(1.108 -0.07939 2.337e-20)
(0.5471 -0.2208 6.485e-22)
(-0.1429 0.03943 9.061e-21)
(1.003 -0.0005233 8.854e-21)
(1.002 -0.001367 -1.385e-20)
(-0.06482 0.02186 -1.532e-21)
(0.02114 0.00452 0)
(-0.04355 0.01045 4.158e-21)
(0.201 -0.01647 -2.92e-21)
(-0.1757 0.02766 0)
(0.7004 -0.2703 -3.208e-21)
(-0.1767 0.05274 -1.218e-21)
(0.6847 -0.298 0)
(-0.09103 0.01704 -2.182e-22)
(-0.0839 0.02526 -1.748e-20)
(-0.04123 0.003233 0)
(1.003 -0.0005519 -1.567e-21)
(-0.06695 0.003849 7.776e-21)
(-0.09125 0.0163 8.022e-22)
(1.024 -0.1608 -8.071e-22)
(1.219 0.1217 0)
(0.9993 -0.005419 -1.537e-20)
(1.003 1.319e-05 4.761e-23)
(0.09465 0.01912 -1.587e-20)
(0.1782 -0.1008 2.451e-24)
(0.0946 0.02509 3.021e-21)
(-0.007704 0.002366 3.185e-22)
(1.036 0.02146 0)
(1.004 -1.744e-05 4.191e-23)
(-0.1229 0.03857 0)
(-0.0666 0.005457 0)
(0.9342 0.00707 -8.576e-20)
(-0.03665 0.004204 -2.173e-21)
(1.02 -0.1357 0)
(0.9935 0.00536 -2.212e-20)
(-0.06274 0.01906 6.412e-21)
(0.9533 -0.2268 -2.458e-22)
(-0.08959 0.01635 5.149e-21)
(0.8327 -0.1604 -3.495e-20)
(0.000268 -8.5e-05 0)
(-0.02446 0.008092 0)
(-0.1858 0.06535 -1.356e-21)
(-0.1755 0.06127 2.837e-21)
(-0.135 0.03863 0)
(-0.07549 0.01171 7.313e-21)
(0.159 -0.02224 -4.63e-22)
(-0.05413 0.008142 0)
(0.9674 -0.024 -9.971e-21)
(-0.08209 0.007758 1.506e-20)
(-0.003308 -0.01958 0)
(-0.1355 0.0388 -1.002e-20)
(1.001 -0.0009935 3.177e-20)
(0.5367 -0.08332 -1.961e-21)
(0.8453 -0.2243 0)
(0.5498 0.02904 -2.857e-20)
(0.9982 8.621e-06 3.274e-23)
(1.001 -0.001027 -4.233e-20)
(0.002839 -0.004671 0)
(1.09 -0.02624 -6.67e-21)
(0.3526 -0.06737 7.146e-22)
(-0.08009 0.013 -5.045e-22)
(0.493 -0.2751 0)
(-0.04137 0.02595 1.472e-20)
(1.2 0.208 0)
(0.1753 -0.01441 8.601e-22)
(0.6803 0.004101 4.547e-20)
(0.4438 -0.121 0)
(1.009 0.001561 -1.304e-20)
(1.003 -0.0005951 0)
(1.221 0.4151 0)
(0.9338 0.2724 0)
(-0.03342 0.006462 5.109e-22)
(0.5568 0.01621 0)
(0.241 -0.0989 2.187e-21)
(-0.1801 0.0469 0)
(0.4533 -0.1893 -1.742e-21)
(1.164 -0.03909 1.21e-19)
(0.5789 -0.07823 4.903e-20)
(1.001 4.996e-05 -8.119e-23)
(0.2282 -0.01468 -5.695e-22)
(1.017 -0.07746 -6.232e-22)
(0.404 -0.09435 -1.701e-22)
(-0.0002165 -0.001128 5.341e-24)
(0.9412 -0.148 6.935e-22)
(0.1301 0.02743 -2.124e-20)
(-0.1869 0.05986 1.487e-20)
(1 2.158e-05 -1.857e-22)
(0.8041 -0.08629 1.066e-22)
(0.4079 -0.03464 -3.327e-21)
(-0.01422 0.004871 0)
(-0.05757 -0.01744 7.878e-21)
(-0.0872 0.03858 6.807e-21)
(-0.09112 0.01702 -3.317e-21)
(0.5497 0.4722 0)
(-0.1757 0.05139 1.375e-20)
(0.4406 -0.2377 2.957e-21)
(-0.1495 0.04468 -1.894e-21)
(0.4798 -0.1178 9.173e-23)
(0.7364 -0.07859 3.145e-21)
(1.03 -0.108 1.863e-21)
(-0.1692 0.05355 5.084e-21)
(0.9971 -0.1711 -8.336e-22)
(0.001165 -6.949e-05 0)
(0.8426 -0.2255 0)
(0.9423 0.04582 3.225e-20)
(0.7435 -0.1703 -3.374e-23)
(0.6594 -0.2849 2.781e-21)
(0.5615 -0.05852 -7.324e-22)
(1.005 -0.0006442 0)
(-0.0315 -0.01425 -9.619e-22)
(-0.069 0.03212 -1.13e-20)
(-0.1878 0.06518 -4.511e-21)
(1.004 -5.042e-06 -9.888e-23)
(-0.007539 0.002817 0)
(-0.1029 0.031 0)
(0.1406 -0.01842 3.537e-21)
(1.002 5.544e-05 4.828e-22)
(-0.05075 0.007881 4.448e-21)
(-0.1242 0.03929 0)
(-0.05114 0.009849 7.942e-21)
(-0.07628 0.007457 -5.782e-21)
(1.001 1.119e-06 -4.137e-22)
(-0.1909 0.06605 -7.607e-21)
(-0.002274 -0.003233 0)
(-0.05433 0.01589 7.457e-21)
(-0.1211 0.03494 0)
(0.9898 0.01512 -5.294e-21)
(-0.05204 0.01809 2.727e-21)
(0.03207 0.1449 0)
(1.018 0.002057 -1.385e-20)
(0.9848 -0.1837 -7.77e-22)
(0.9778 -0.1994 0)
(-0.0775 0.01163 -7.538e-21)
(-0.1296 0.0393 0)
(0.915 -0.2152 -2.966e-21)
(0.9302 -0.1466 0)
(0.1024 -0.01291 5.066e-22)
(-0.07983 0.02519 0)
(0.9987 -4.005e-06 -4.632e-22)
(-0.1909 0.06609 7.269e-21)
(-0.1665 0.06152 7.365e-22)
(0.1177 -0.009303 0)
(0.237 -0.03306 1.587e-21)
(1.19 0.1503 0)
(-0.1842 0.06294 0)
(-0.04727 0.01608 1.968e-22)
(0.9985 1.75e-05 1.864e-22)
(-0.1404 0.04598 -9.542e-21)
(-0.06331 0.01853 0)
(0.006298 0.02074 0)
(0.0003452 -0.008481 -5.847e-24)
(0.01364 0.02188 -2.88e-21)
(-0.04946 0.01715 2.631e-21)
(-0.111 0.02683 -2.401e-21)
(-0.1418 0.03347 0)
(0.9616 -0.2186 0)
(1 -0.0002676 1.533e-20)
(6.554e-05 -2.576e-05 -3.789e-24)
(-0.1435 0.0427 1.181e-20)
(-0.08804 0.01337 1.098e-20)
(-0.03962 0.01415 7.746e-22)
(-0.1923 0.06785 -9.679e-21)
(-0.09687 0.03369 5.917e-21)
(-0.1078 0.03468 -2.89e-21)
(0.3399 -0.02577 0)
(1 -0.0003656 0)
(-0.06932 0.01647 0)
(1.071 -0.1304 -1.822e-23)
(1.002 1.69e-05 0)
(-0.09618 0.02981 -9.281e-21)
(1.216 0.5359 0)
(0.7264 -0.1113 1.931e-21)
(0.774 -0.2762 -1.342e-21)
(1.004 -5.397e-05 -5.856e-21)
(-0.1766 0.05281 0)
(-0.07083 0.007787 0)
(1.01 0.00183 -4.206e-20)
(1.004 -6.035e-05 0)
(1.217 0.1196 0)
(-0.1557 0.05854 5.925e-21)
(-0.1758 0.02859 -2.38e-21)
(-0.0996 0.03478 2.796e-21)
(-0.1893 0.06557 6.81e-21)
(0.03027 0.0006259 5.385e-24)
(1.057 -0.1386 0)
(0.6897 -0.1505 -2.558e-20)
(1.002 -0.001042 0)
(-0.1715 0.05388 -7.142e-21)
(-0.1545 0.05411 0)
(0.2831 -0.01691 -1.717e-21)
(0.1654 -0.01332 0)
(0.6771 -0.2207 -1.501e-20)
(1.004 -0.0003161 0)
(1.011 -0.007909 1.906e-21)
(0.9977 -0.000794 2.622e-20)
(-0.01824 -3.073e-05 1.128e-21)
(1.002 -0.0009797 5.579e-21)
(1.153 -0.04941 -4.569e-20)
(0.2055 -0.1234 5.705e-22)
(0.8142 -0.1046 3.978e-21)
(0.1092 -0.01808 -1.682e-21)
(1.001 -0.00128 0)
(-0.105 0.004169 -1.922e-21)
(0.7988 -0.09691 -2.597e-21)
(1.001 0.005941 0)
(0.2197 -0.02592 1.806e-21)
(0.9992 -0.0001785 0)
(0.5543 -0.2817 4.701e-21)
(-0.009843 0.02647 -1.749e-21)
(-0.06448 0.00963 -1.077e-22)
(0.3877 0.05303 0)
(0.09099 -0.002122 2.073e-22)
(0.9991 -0.006827 6.092e-22)
(-0.05264 0.01434 0)
(0.8244 -0.1699 -9.198e-21)
(0.1773 -0.0128 0)
(0.006236 -0.02133 -7.035e-22)
(0.1672 -0.01993 7.897e-22)
(0.4111 0.5737 -1.264e-21)
(1.189 0.1522 -8.583e-21)
(1 -0.1803 5.452e-22)
(0.7457 -0.2602 5.178e-23)
(0.03021 -0.002123 0)
(0.9996 0.007171 0)
(0.4903 0.0315 2.898e-20)
(0.3841 -0.1238 0)
(0.3405 0.0839 2.746e-22)
(-0.002967 -0.0188 3.42e-22)
(0.06204 -0.01119 0)
(1.003 -0.0002962 0)
(1.079 -0.105 3.507e-20)
(-0.05313 0.01818 -7.106e-22)
(0.1198 -0.02925 -6.332e-22)
(-0.008443 0.0001645 4.195e-21)
(0.6418 0.1449 0)
(0.003249 -0.003267 -3.558e-22)
(0.294 0.06493 -1.026e-21)
(-0.001 -8.908e-06 1.199e-21)
(-0.09895 0.02604 -5.746e-21)
(-0.04362 0.01523 1.653e-21)
(-0.06074 0.01654 5.12e-21)
(0.05046 -0.003749 7.065e-22)
(1.003 0.03881 -7.413e-22)
(0.6624 -0.09637 0)
(1.003 2.711e-05 0)
(1 5.82e-06 0)
(-0.08696 0.01668 8.187e-21)
(1.042 0.04103 1.464e-21)
(-0.08535 0.01326 8.419e-21)
(-0.1893 -0.03712 -2e-20)
(0.2465 0.5187 0)
(1.094 -0.1021 -1.526e-20)
(1.046 -0.03749 -2.48e-20)
(0.9676 0.4255 2.183e-21)
(0.7117 -0.1652 1.64e-22)
(1.011 -0.006749 3.05e-20)
(0.08686 0.005924 1.79e-22)
(-0.1592 0.05526 -2.142e-21)
(1.044 -0.0356 3.419e-20)
(-0.03922 0.009287 -1.021e-20)
(-0.006462 0.002307 -6.663e-22)
(-0.05532 -0.01449 0)
(0.9731 -0.2017 0)
(0.05148 -0.01549 -5.31e-21)
(-0.05856 0.03403 0)
(-0.08352 0.02915 0)
(0.9952 -0.0008665 2.46e-20)
(-0.07406 0.01281 6.449e-21)
(0.4132 -0.09472 1.854e-22)
(1.004 -0.006059 0)
(-0.04985 0.01272 4.714e-21)
(-0.1524 0.04465 0)
(-0.1397 0.05216 -2.796e-21)
(0.9991 -0.0001282 1.662e-21)
(0.8612 -0.004166 4.681e-21)
(0.2484 -0.01919 0)
(0.02256 0.0009699 1.063e-23)
(0.8231 -0.2737 -3.387e-21)
(-0.006404 0.002093 0)
(-0.1848 0.05556 6.51e-21)
(0.6857 -0.2985 0)
(0.7831 -0.1747 -8.144e-24)
(-0.009857 0.003322 0)
(-0.06554 0.004618 1.947e-21)
(1 1.115e-05 -8.428e-23)
(0.1622 -0.09503 0)
(1.15 0.3373 -1.037e-20)
(1.004 2.585e-05 0)
(0.7315 -0.2777 1.102e-22)
(0.001592 -0.0006295 4.485e-23)
(0.3095 -0.002457 -7.883e-21)
(0.03259 0.009191 -5.729e-21)
(1.138 -0.05085 6.669e-21)
(1.035 -0.1622 6.454e-22)
(-0.004246 0.001336 3.171e-26)
(0.01634 -0.001605 -1.337e-22)
(0.3434 -0.03764 0)
(1.008 0.032 -6.675e-21)
(0.9974 0.003261 6.255e-21)
(0.9835 -0.1918 0)
(0.6522 -0.2842 -1.147e-21)
(-0.1228 0.04095 -1.247e-20)
(-0.0442 0.01028 0)
(0.2836 0.7379 -3.861e-21)
(0.2054 -0.08638 -1.193e-21)
(0.3412 0.002364 -1.048e-22)
(1.143 0.1376 -2.006e-20)
(0.201 -0.08395 -1.152e-21)
(1.115 -0.006215 4.593e-20)
(-0.02457 0.001863 0)
(1.005 0.0001263 0)
(-0.1964 0.06961 6.887e-22)
(0.00731 -0.03236 -2.201e-23)
(-0.09996 0.02977 -1.674e-20)
(-0.09902 0.0293 0)
(-0.1857 0.05581 0)
(0.996 0.001782 -1.968e-20)
(0.984 -0.0006959 1.364e-20)
(-0.04744 0.01669 0)
(0.9346 -0.1864 6.696e-21)
(-0.1108 0.03813 0)
(0.3797 -0.04816 0)
(-0.07443 0.027 -2.774e-21)
(-0.1873 0.05711 -2.518e-21)
(0.2273 0.03373 -2.488e-21)
(0.08662 0.02308 -1.943e-21)
(-0.07213 0.005435 -9.172e-21)
(0.02918 -0.004364 -7.793e-22)
(-0.07447 0.01781 -5.95e-21)
(0.2412 -0.01662 1.157e-21)
(-0.05848 0.01749 6.011e-21)
(1.047 -0.1294 -4.941e-21)
(-0.19 0.06589 6.761e-21)
(0.3962 0.9301 -5.777e-24)
(-0.1 0.0347 -1.723e-22)
(0.005847 -0.0301 9.528e-23)
(0.0003643 -0.0002026 0)
(-0.1851 0.05568 0)
(1.005 -0.0006128 0)
(1.004 -0.002133 2.06e-20)
(-0.1899 0.06574 5.26e-21)
(-0.1825 0.0618 0)
(1.023 -0.1641 5.148e-21)
(1.003 1.929e-05 0)
(0.6508 -0.2982 -3.233e-21)
(-0.1765 0.05262 6.338e-21)
(1.116 -0.07259 -1.925e-20)
(-0.08224 0.02795 0)
(0.177 0.02615 -2.701e-20)
(-0.07341 0.02317 -6.974e-21)
(1.099 0.6023 -1.062e-20)
(0.9999 0.0005809 -5.072e-20)
(1.002 -0.1685 0)
(1.133 -0.03503 -1.19e-20)
(0.1269 -0.04968 0)
(0.1512 -0.01106 0)
(-0.1073 0.0313 9.853e-22)
(0.7141 -0.2003 1.365e-20)
(0.4987 0.03235 4.976e-20)
(-0.03233 0.005782 0)
(0.3567 -0.02994 -1.035e-21)
(1.003 -0.07511 0)
(-0.1755 0.05063 0)
(0.6442 -0.2971 3.472e-21)
(0.5536 -0.06359 3.027e-21)
(-0.1431 0.04989 0)
(0.1978 -0.08585 -1.344e-21)
(1.006 -0.008902 -1.022e-21)
(-0.01211 0.004317 0)
(-0.004678 0.001403 0)
(-0.1646 0.06089 0)
(-0.08927 0.01307 1.643e-20)
(0.02867 0.00794 -7.333e-21)
(1.001 0.01424 9.255e-22)
(-0.006812 0.001746 1.747e-21)
(0.03378 -0.006116 0)
(1.001 -0.0001593 0)
(0.9995 -5.978e-05 -1.191e-20)
(-0.08207 0.01168 3.481e-25)
(-0.1468 0.04091 2.801e-20)
(0.0007284 -0.00031 -4.527e-23)
(0.003063 -0.02921 3.531e-22)
(0.6848 -0.09956 -5.432e-22)
(0.4462 -0.166 0)
(-0.06222 0.02029 -6.218e-21)
(1.01 -0.1648 0)
(1.052 -0.1338 0)
(1.001 -0.006774 -2.851e-21)
(-0.05525 0.01837 -9.317e-21)
(-0.123 -0.02016 0)
(-0.07949 0.02673 -7.14e-21)
(0.9847 -0.2033 0)
(-0.003597 0.0002719 1.985e-22)
(-0.1743 0.06095 -1.261e-20)
(1.001 -0.0008159 -6.469e-22)
(0.03173 -0.00428 0)
(-0.1133 0.03794 -5.028e-21)
(1 -0.0006942 -4.894e-20)
(-0.05993 0.009407 -3.446e-21)
(1.001 -0.0001671 -4.829e-21)
(0.9963 -0.002092 1.97e-20)
(0.9922 -0.1361 1.414e-21)
(0.9916 -0.1443 0)
(-0.006988 0.0009964 -6.068e-21)
(0.9999 -0.001414 4.654e-21)
(0.2222 -0.02581 -2.32e-22)
(1.003 0.004388 0)
(1.188 0.5441 0)
(1.002 -0.131 1.501e-21)
(0.08412 -0.002479 5.727e-21)
(1.076 -0.123 -3.708e-21)
(0.3002 -0.05966 -8.36e-23)
(0.3303 -0.04727 0)
(-0.05795 0.01679 1.322e-20)
(0.8961 -0.1004 5.378e-21)
(1.002 -0.002329 4.962e-21)
(1.013 0.003339 1.933e-20)
(-0.09583 0.02866 8.664e-21)
(0.5558 -0.1036 3.069e-22)
(-0.09558 0.03323 -7.032e-22)
(-0.06874 0.02222 0)
(0.0759 -0.00482 2.157e-25)
(-0.05478 0.0177 -3.357e-21)
(-0.006999 0.002262 -6.031e-21)
(-0.0832 0.0126 1.416e-20)
(0.4383 -0.122 0)
(-0.02777 0.003111 -1.218e-20)
(0.2959 -0.03176 -5.02e-22)
(0.1015 -0.01456 0)
(0.8315 0.3956 2.389e-21)
(-0.02847 0.01795 0)
(1.003 -0.006291 3.821e-21)
(-0.0426 0.00866 1.606e-20)
(-0.03007 -0.003357 1.201e-21)
(0.1656 -0.02692 0)
(0.9976 3.017e-05 3.551e-21)
(0.3112 -0.2065 3.739e-21)
(-0.1711 0.05177 0)
(0.6872 -0.06481 5.031e-22)
(0.732 -0.2034 2.683e-22)
(-0.09182 0.01632 -9.352e-22)
(1.064 -0.1299 -4.56e-21)
(-0.02782 0.00615 0)
(-0.1219 0.04241 3.908e-21)
(0.6951 -0.06578 1.509e-21)
(-0.07872 0.02545 -8.64e-23)
(0.2981 -0.08241 -1.163e-21)
(0.006893 -0.02221 7.346e-22)
(1.001 -0.0003657 0)
(1.05 -0.06915 -4.63e-21)
(-0.04279 0.007928 0)
(0.9982 -0.007211 0)
(-0.0622 0.01406 0)
(-0.0426 0.004392 1.017e-21)
(0.9989 -9.638e-06 1.945e-21)
(0.9731 -0.2096 3.628e-22)
(-0.02985 0.004703 0)
(1.026 -0.01853 0)
(0.8508 0.3972 -1.063e-20)
(-0.02463 0.02904 0)
(0.0414 -0.0123 0)
(1.023 -0.1416 -5.411e-21)
(1.004 2.313e-05 -1.226e-22)
(-0.07401 0.01858 -2.09e-22)
(-0.09558 0.02784 -4.107e-22)
(1.011 -0.002251 2.571e-20)
(0.9076 0.3561 3.547e-21)
(1.046 0.08476 6.984e-21)
(-0.179 0.05308 9.502e-21)
(-0.07605 0.02091 -6.875e-21)
(1.013 -0.1784 -1.07e-21)
(1.046 -0.03176 0)
(-0.007 0.0001932 -1.749e-22)
(-0.001064 0.0003346 1.653e-22)
(0.3226 -0.06879 -2.293e-23)
(0.4214 -0.06753 -1.392e-21)
(-0.1818 0.05794 -3.596e-21)
(0.05055 -0.004232 0)
(0.9931 -9.06e-06 -3.572e-21)
(0.499 -0.0536 3.053e-21)
(1.004 0.005729 2.428e-22)
(-0.168 0.0509 0)
(0.5945 -0.283 -3.46e-21)
(-0.06508 0.01166 0)
(0.7246 -0.2014 2.361e-21)
(0.01056 -0.01424 -1.881e-22)
(-0.01266 0.001898 0)
(0.9993 0.002377 -1.219e-20)
(-0.001723 0.0006334 0)
(-0.03853 0.01226 0)
(-0.04668 0.01347 3.553e-21)
(0.83 -0.06926 4.686e-21)
(0.4584 0.1481 0)
(-0.1399 0.04519 -3.549e-21)
(-0.02576 -0.01527 8.27e-21)
(0.135 -0.009731 0)
(0.7722 -0.1085 0)
(0.8817 0.007841 -8.153e-20)
(0.007644 -0.0003836 1.669e-22)
(-0.1729 0.05926 3.069e-21)
(0.3815 -0.02743 0)
(0.2344 -0.05113 8.49e-23)
(0.5003 -0.0768 0)
(0.429 -0.2612 -6.185e-21)
(0.01767 -0.01365 3.88e-21)