/*--------------------------------*- C++ -*----------------------------------*\
  =========                 |
  \\      /  F ield         | OpenFOAM: The Open Source CFD Toolbox
   \\    /   O peration     | Website:  https://openfoam.org
    \\  /    A nd           | Version:  8
     \\/     M anipulation  |
\*---------------------------------------------------------------------------*/
FoamFile
{
    version     2.0;
    format      ascii;
    class       volScalarField;
    location    "40";
    object      nut;
}
// * * * * * * * * * * * * * * * * * * * * * * * * * * * * * * * * * * * * * //

dimensions      [0 2 -1 0 0 0 0];

internalField   nonuniform List<scalar> 
127143
(
7.516e-16
8.868e-18
2.334e-17
2.25e-16
1.153e-11
2.189e-16
7.6e-10
2.849e-11
2.855e-12
5.412e-08
2.662e-10
6.408e-11
2.343e-16
4.021e-16
1.265e-06
6.134e-09
2.108e-15
9.692e-05
5.969e-05
1.306e-08
4.294e-05
1.332e-09
7.037e-05
7.912e-06
1.285e-09
7.897e-06
1.131e-05
9.959e-06
2.371e-08
0.0002046
2.96e-06
6.371e-06
1.461e-06
1.464e-05
3.837e-05
1.57e-06
0.0002211
3.362e-05
8.294e-06
1.022e-06
5.972e-05
2.071e-06
2.261e-06
1.251e-14
9.665e-05
1.495e-05
2.365e-08
0.0002954
6.869e-06
5.632e-06
8.372e-09
0.0003323
8.034e-06
1.867e-05
0.006683
2.779e-07
0.006683
0.0002109
0.003969
2.147e-05
2.954e-06
4.834e-05
7.995e-06
0.006702
2.979e-05
1.953e-05
3.098e-05
7.729e-06
7.728e-06
0.001424
4.262e-06
1.2e-05
0.0003267
0.003366
0.006696
1.04e-05
0.0004503
0.0001746
2.779e-07
0.006705
2.393e-08
1.912e-08
3.208e-05
1.35e-06
0.0003324
0.0001936
8.192e-06
1.217e-05
1.822e-05
1.396e-06
0.002145
5.169e-05
2.678e-06
4.282e-05
5.318e-05
0.0002527
2.289e-06
2.458e-06
0.0001233
3.443e-05
0.006705
6.713e-06
1.777e-07
7.739e-05
0.0001438
0.0001253
7.059e-06
0.001424
6.617e-06
0.006683
1.398e-06
1.21e-05
5.153e-05
5.921e-07
0.003316
7.161e-05
0.0003743
0.006696
0.0005645
6.491e-11
0.006683
3.371e-05
1.32e-05
0.0002018
2.401e-08
7.082e-06
6.512e-05
0.0006572
1.462e-05
2.298e-07
0.0001074
5.5e-05
1.045e-05
0.0001761
5.866e-13
0.0001216
0.0002206
2.127e-05
1.673e-07
0.0001449
4.428e-05
0.0005875
8.692e-06
1.31e-05
7.927e-06
5.855e-06
1.958e-08
0.006703
6.582e-05
8.676e-08
3.716e-05
4.258e-06
2.889e-05
2.152e-05
2.015e-06
0.000285
0.0001729
2.437e-07
0.0002692
1.804e-06
3.982e-06
1.661e-09
0.00194
0.0001313
1.401e-07
2.28e-05
0.0001766
6.538e-06
1.856e-06
0.0001019
2.122e-06
1.309e-05
6.419e-05
2.522e-05
0.0006854
0.00013
5.87e-06
1.463e-05
8.181e-06
0.001962
2.197e-05
0.0008239
0.0002581
0.0001421
2.304e-07
4.602e-05
6.048e-06
7.095e-07
8.054e-06
0.0008497
1.369e-05
2.771e-05
0.0003143
1.046e-06
1.757e-13
3.108e-05
0.006717
0.006707
1.436e-10
0.001523
0.004609
0.0001317
0.0006775
0.0002235
4.475e-15
6.092e-06
0.0001403
2.656e-05
0.0002486
0.003665
8.889e-05
0.0002745
0.003579
1.833e-06
7.713e-05
5.217e-10
5.106e-07
2.626e-05
7.189e-05
0.0001475
4.981e-06
0.006697
4.265e-06
7.628e-06
1.954e-06
1.841e-06
1.601e-07
3.597e-05
4.179e-05
0.000136
4.49e-05
0.0008724
0.0002851
6.468e-10
4.487e-05
0.0002181
0.0001312
3.483e-13
0.004035
1.034e-05
2.646e-05
3.013e-05
0.0002394
2.437e-07
1.708e-05
9.971e-11
3.173e-06
1.052e-05
4.448e-10
0.001381
3.389e-06
6.213e-06
2.285e-05
1.611e-05
4.522e-07
5.907e-06
0.0008219
2.447e-07
2.661e-05
8.717e-06
2.272e-05
0.0007305
4.705e-05
0.000555
8.028e-06
2.923e-05
7.691e-05
1.976e-06
3.708e-06
1.726e-05
7.541e-06
0.0006851
0.000317
1.051e-05
9.546e-06
1.261e-05
5.15e-05
7.287e-06
0.0004974
2.105e-05
0.002838
0.0001541
7.866e-05
0.006701
0.004806
1.845e-13
9.958e-05
0.003271
7.67e-06
0.001886
3.148e-05
4.066e-05
0.0002085
5.41e-05
0.00273
6.501e-06
3.889e-06
0.0001035
0.0002405
1.763e-05
8.427e-06
2.908e-05
9.944e-06
8.923e-05
1.557e-06
3.273e-06
2.669e-05
0.003262
4.735e-05
1.781e-05
7.128e-06
3.666e-05
3.343e-07
0.003551
0.003787
2.38e-06
2.513e-05
7.275e-06
3.638e-05
0.0003723
8.058e-05
3.577e-06
0.0002939
2.277e-05
2.267e-06
1.605e-05
7.706e-05
4.929e-05
3.433e-06
3.836e-06
0.0001299
0.003976
4.128e-05
0.006716
0.006707
2.163e-05
6.654e-06
6.771e-05
0.0001311
8.562e-05
0.0001687
2.623e-05
7.749e-06
1.108e-05
1.068e-06
7.669e-06
5.145e-05
4.497e-05
7.77e-06
1.522e-05
8.225e-06
3.402e-05
7.045e-05
1.247e-05
7.603e-05
5.742e-05
1.614e-05
6.718e-06
0.00621
3.442e-06
0.0002115
8.49e-06
7.629e-05
4.801e-06
6.197e-06
0.006698
0.0018
0.0003051
2.871e-05
0.0004603
1.746e-06
0.0003104
8.051e-06
4.656e-06
0.001096
4.922e-05
8.381e-06
1e-08
0.0001326
0.0005362
6.497e-05
7.367e-06
8.701e-06
2.182e-05
0.0003952
1.497e-07
2.395e-05
1.093e-06
3.238e-05
5.067e-05
0.004983
9.763e-06
1.13e-05
4.741e-07
7.716e-06
3.139e-06
1e-05
3.456e-06
7.362e-05
0.001013
1.122e-06
0.006697
2.743e-05
0.0002679
2.524e-05
2.49e-05
0.0001985
1.101e-05
0.006705
8.231e-06
8.269e-06
7.832e-06
4.245e-05
0.0001884
1.184e-05
4.97e-05
0.0001087
7.543e-06
2.352e-05
4.944e-06
0.0001849
9.706e-07
8.749e-05
0.001879
0.0001373
7.877e-06
2.129e-06
3.475e-05
2.29e-05
0.0001079
0.00668
8.866e-05
5.981e-05
9.147e-05
1.063e-05
0.006698
2.167e-05
4.235e-05
0.0003625
0.00291
0.006694
6.079e-06
0.0001817
6.479e-06
0.0002272
2.48e-06
0.002776
2.913e-06
0.0003023
0.0002892
7.386e-05
8.713e-06
2.951e-05
2.993e-05
2.285e-05
0.0002438
7.489e-06
2.374e-05
0.0002645
1.99e-05
1.175e-05
7.316e-06
2.956e-05
5.18e-07
8.068e-06
0.0008579
0.0008823
1.445e-05
4.968e-05
0.006673
0.0001309
4.434e-05
0.0001729
2.634e-05
0.0001829
0.006651
1.746e-06
4.454e-05
4.051e-05
9.915e-06
5.592e-08
2.722e-06
3.36e-05
3.34e-07
6.898e-06
1.064e-05
1.343e-05
0.006653
2.344e-06
0.000539
3.603e-06
8.189e-06
8.583e-06
5.833e-06
1.334e-13
0.0001239
9.024e-07
0.0004119
9.012e-07
0.004783
5.475e-08
0.0009176
0.0002024
2.748e-05
2.882e-15
2.081e-11
2.588e-11
0.006698
5.762e-05
3.817e-06
0.003687
0.0002721
1.368e-05
0.0001392
7.222e-05
7.469e-05
8.707e-06
0.0001302
9.931e-06
0.0009955
0.0003558
1.881e-10
3.37e-06
7.627e-06
2.866e-06
0.004053
4.069e-05
0.000726
3.485e-05
0.006315
2.158e-06
5.83e-08
2.439e-05
0.006676
1.446e-05
0.0001843
2.783e-06
6.541e-06
5.999e-07
4.478e-05
0.0004989
8.936e-05
1.268e-05
0.006673
2.887e-05
2.411e-05
4.48e-06
4.806e-06
4.819e-05
2.183e-05
3.176e-05
1.989e-05
7.629e-06
0.0001684
9.098e-05
0.002437
1.336e-06
7.582e-05
8.349e-06
9.773e-06
0.0002755
0.006703
0.006701
9.948e-06
5.108e-05
1.049e-06
0.003256
0.004594
9.622e-06
1.349e-06
0.0002012
8.341e-06
1.57e-05
7.313e-06
3.799e-05
0.0006931
0.006683
3.337e-05
9.822e-05
8.585e-06
0.004715
1.072e-05
1.169e-05
6.267e-05
0.0005361
8.377e-06
0.003152
0.0001378
0.0003227
5.272e-05
0.005066
5.933e-05
2.273e-05
5.428e-09
0.00665
7.114e-06
5.015e-07
0.006694
2.496e-05
0.002738
5.92e-06
1.326e-05
0.0067
4.046e-05
8.048e-06
4.368e-05
3.192e-05
1.002e-05
8.209e-06
8.687e-06
1.27e-06
8.286e-06
3.188e-06
4.672e-06
9.209e-05
7.186e-06
2.686e-06
0.005428
3.211e-06
0.005757
8.523e-07
0.0005543
8.831e-06
0.00668
0.002802
0.000166
4.987e-06
5.974e-05
0.006474
0.006684
4.629e-05
1.133e-05
3.715e-05
3.373e-06
0.0003325
7.05e-06
7.358e-05
7.937e-06
1.082e-05
6.367e-05
1.674e-05
0.006473
2.086e-05
1.028e-05
8.531e-05
2.356e-05
0.002215
0.004596
1.832e-05
2.327e-07
1.342e-05
6.78e-08
0.0006176
0.003226
0.0001175
3.042e-05
0.0001518
2.078e-05
9.307e-05
0.0007522
5.567e-05
3.237e-05
9.352e-06
1.898e-05
3.814e-14
2.131e-06
0.0002673
0.0002434
8.029e-05
3.93e-05
8.442e-06
4.334e-05
0.0003068
1.392e-05
0.0001184
2.737e-05
0.006682
7.243e-06
1.48e-05
2.889e-06
0.006676
0.006681
1.134e-07
0.0005532
7.099e-06
3.062e-05
4.9e-06
4.737e-05
1.197e-05
2.243e-06
6.62e-06
5.024e-07
0.006708
0.006673
3.455e-06
7.889e-06
3.066e-05
3.136e-06
1.448e-07
0.000302
2.057e-06
9.925e-05
8.954e-05
0.003658
2.372e-06
0.0001981
5.835e-07
6.396e-13
1.168e-05
8.793e-06
0.0001257
0.00483
8.753e-06
7.229e-06
4.776e-07
4.912e-05
1.782e-05
1.082e-05
1.16e-07
7.521e-05
6.4e-06
7.825e-05
6.503e-07
8.34e-06
1.792e-05
6.448e-05
5.351e-05
5.261e-15
1.768e-05
0.0001161
3.159e-06
9.472e-06
8.297e-06
0.006693
0.0001935
3.544e-05
0.0002128
0.002986
7.339e-08
9.036e-05
8.354e-06
0.003088
3.154e-05
0.0001462
3.918e-05
2.525e-05
0.003738
0.0001436
8.177e-06
4.312e-05
1.632e-05
0.001344
7.75e-06
1.057e-06
0.002351
2.633e-05
4.281e-05
3.772e-05
0.0001247
2.88e-05
1.166e-05
7.984e-06
7.979e-05
0.006636
0.0001676
0.0001302
9.385e-07
7.824e-06
1.954e-05
0.0002728
2.343e-05
0.006653
0.0001286
5.583e-05
1.003e-05
1.619e-09
1.021e-05
2.595e-05
3.078e-05
0.0002399
4.13e-05
0.006697
3.754e-15
8.88e-05
3.018e-05
1.568e-05
0.0002249
0.0001053
0.0001113
5.136e-06
0.006683
3.703e-05
7.836e-05
0.003462
9.899e-05
3.607e-06
7.206e-06
1.652e-05
0.006666
7.125e-05
7.682e-05
0.006708
0.006662
2.386e-05
6.136e-05
0.0002799
0.0001041
0.0002084
1.761e-08
5.255e-05
6.287e-06
0.006682
0.0001411
0.0002034
3.321e-06
1.956e-06
5.703e-06
0.002765
0.004322
0.0002649
1.154e-05
0.006683
9.699e-05
1.362e-06
8.639e-06
8.145e-06
0.00619
0.0002527
8.493e-06
0.006698
7.787e-06
0.006683
6.235e-06
1.161e-07
4.003e-05
1.489e-05
6.444e-07
0.002096
4.374e-05
1.618e-05
2.153e-06
8.075e-05
8.239e-06
8.56e-08
2.006e-05
5.6e-05
9.712e-06
2.856e-06
0.0067
3.221e-05
3.7e-07
1.201e-06
0.0001133
7.23e-06
0.002864
0.0001939
2.47e-05
6.001e-07
5.888e-06
3.195e-06
5.97e-10
2.357e-06
5.398e-06
6.199e-05
1.714e-05
4.268e-05
1.846e-07
0.0004222
7.384e-06
0.00471
0.005141
8.727e-06
0.0003089
2.17e-05
0.0001946
5.542e-07
0.0001785
0.0004825
1.686e-06
2.954e-06
0.004162
0.0001018
0.0001763
0.0005697
3.681e-05
4.846e-08
0.0003163
3.416e-05
1.295e-06
1.946e-05
7.452e-05
0.006702
8.566e-06
5.836e-07
0.006256
4.636e-05
0.0001138
3.467e-05
0.006669
0.0002768
8.901e-05
3.153e-09
1.52e-05
4.09e-08
0.0001028
8.733e-06
4.225e-06
2.579e-07
2.859e-05
0.005683
2.153e-07
4.076e-06
0.005301
7.685e-06
1.204e-09
5.35e-05
1.44e-05
2.731e-05
9.037e-05
8.266e-08
3.023e-08
8.304e-06
0.0005577
0.006697
3.103e-05
6.345e-06
0.0001331
4.007e-05
8.146e-07
7.256e-08
3.353e-05
3.059e-05
7.244e-08
0.0001348
1.714e-05
0.006694
0.0002735
2.371e-05
1.11e-05
8.186e-05
0.0001159
0.006698
0.001269
2.127e-05
3.684e-05
0.0001234
8.085e-06
5.748e-05
0.0003407
1.724e-05
6.225e-06
2.614e-05
2.762e-06
7.91e-06
2.681e-06
4.386e-05
2.757e-05
0.000262
1.178e-06
0.0001091
1.234e-05
4.169e-09
0.0001333
0.006693
0.006695
0.0001382
0.0002709
7.805e-05
0.006755
6.501e-06
7.323e-05
0.0001977
6.86e-05
2.073e-05
7.031e-05
1.202e-06
0.006705
6.635e-05
0.0002869
1.577e-08
1.607e-06
0.0001046
7.992e-06
3.679e-05
2.877e-05
7.692e-06
1.2e-05
0.0002283
6.507e-06
8.071e-06
0.0001828
5.153e-08
0.006269
4.721e-06
1.917e-07
0.0001244
2.783e-05
1.539e-06
0.002404
4.544e-06
3.356e-06
0.006409
0.006694
1.032e-05
5.525e-05
3.997e-10
0.0001126
7.395e-06
1.192e-06
4.558e-05
6.728e-05
0.0001112
0.001511
3.793e-05
0.0003412
7.384e-05
4.904e-05
1.022e-06
0.0001954
0.005851
2.85e-06
0.0001212
0.006693
4.245e-05
0.005904
0.006701
1.693e-05
7.289e-05
4.673e-06
0.00669
7.778e-06
0.006697
3.229e-06
9.45e-05
9.381e-05
5.146e-05
6.398e-06
7.886e-06
4.339e-05
1.017e-05
0.002943
0.0008625
1.047e-05
5.441e-06
9.732e-05
6.491e-05
4.753e-07
4.541e-05
4.746e-07
3.398e-05
4.694e-07
1.965e-05
8.145e-06
8.255e-06
3.179e-06
5.081e-05
0.005014
3.652e-05
8.305e-05
8.59e-06
0.00191
3.9e-06
4.617e-05
8.275e-06
4.84e-06
1.443e-05
0.0001354
2.802e-05
1.884e-05
8.277e-06
5.938e-05
2.176e-07
7.941e-05
0.0066
1.357e-05
3.537e-05
0.002051
4.192e-05
2.757e-05
0.006743
3.95e-05
1.567e-05
0.000614
2.857e-06
2.48e-05
6.791e-05
0.0001003
0.006732
5.221e-05
7.889e-05
0.005491
4.046e-06
9.554e-05
7.82e-05
6.545e-05
4.747e-05
0.0004519
3.43e-06
6.613e-09
3.206e-06
7.663e-06
0.0001191
1.86e-07
0.001627
8.314e-06
0.006698
0.0001279
4.828e-06
4.235e-05
4.832e-06
2.934e-05
1.188e-05
0.006699
4.661e-11
3.124e-05
3.185e-05
8.968e-06
3.128e-07
2.103e-05
6.064e-05
1.485e-06
7.901e-06
4.396e-05
1.584e-10
0.00024
4.15e-06
4.836e-06
7.471e-06
3.857e-06
0.0001068
3.6e-06
6.196e-06
0.0001338
1.378e-05
8.739e-06
8.083e-06
5.586e-05
4.173e-08
0.0002968
2.35e-06
0.0001715
8.286e-06
0.006715
0.006692
2.064e-05
1.962e-07
0.0002423
0.0008816
4.762e-06
3.224e-05
0.006698
1.008e-05
7.587e-06
1.74e-05
1.123e-08
2.374e-05
0.0001937
2.11e-13
0.000102
1.136e-06
0.0001309
8.06e-06
1.681e-05
7.832e-06
2.117e-06
7.617e-06
3.487e-05
0.0005829
0.0001108
1.317e-05
0.0001063
3.404e-05
6.934e-06
0.0002228
2.737e-07
0.0002866
8.679e-05
0.0003341
1.958e-06
1.17e-05
3.519e-05
3.045e-08
3.188e-05
1.427e-05
1.713e-05
0.0001681
0.0001548
0.006697
0.000117
1.641e-05
1.347e-05
5.987e-06
6.727e-07
1.535e-06
0.006684
6.832e-06
2.55e-06
4.953e-05
2.867e-06
6.123e-06
3.656e-05
4.583e-05
0.001841
3.801e-05
0.0001448
1.199e-05
5.367e-05
0.0009363
3.025e-05
0.003576
5.363e-06
3.085e-06
0.0002373
6.571e-05
3.173e-05
0.00649
0.006678
2.069e-05
0.0002847
6.706e-05
5.532e-05
0.002382
0.002163
9.967e-07
7.92e-05
3.437e-05
1.584e-05
8.44e-06
2.997e-06
2.661e-05
8.388e-06
0.0001547
8.687e-05
0.006681
2.961e-06
8.903e-05
7.401e-06
2.99e-06
2.312e-05
2.253e-05
0.0001267
8.555e-06
2.608e-05
5.384e-09
7.41e-05
6.67e-05
0.0003285
2.075e-05
6.776e-05
7.418e-06
3.786e-09
4.059e-05
1.59e-05
0.006684
6.434e-06
7.898e-07
0.006693
7.086e-07
1.107e-05
0.0001664
7.992e-06
0.006688
1.968e-05
1.398e-09
0.002343
4.798e-06
4.545e-05
8.266e-06
1.439e-07
4.769e-05
7.632e-05
6.548e-06
1.387e-07
0.0001393
3.582e-05
9.706e-06
4.461e-06
1.042e-06
7.336e-08
2.8e-06
0.0001084
0.006694
5.501e-06
3.652e-05
2.22e-06
3.383e-06
0.0001296
0.0001406
0.006668
0.0001239
8.699e-05
0.006293
0.0002983
0.006332
1.004e-07
0.0001857
2.086e-07
0.0001148
7.909e-06
4.587e-06
4.941e-05
6.662e-06
5.865e-07
1.99e-06
7.322e-05
0.000101
9.589e-06
3.344e-05
0.0002236
0.006702
0.0001071
0.0007606
8.633e-05
0.0067
0.0002584
0.006688
5.705e-06
0.0001591
0.006738
0.006292
9.484e-05
5.521e-05
3.202e-05
7.61e-05
0.00677
8.511e-06
6.725e-05
4.567e-05
7.788e-12
8.374e-06
1.46e-09
7.566e-06
1.059e-05
8.445e-06
6.015e-06
0.0002651
7.647e-05
7.978e-07
0.0002599
1.136e-05
3.394e-05
1.889e-05
7.095e-06
3.884e-05
0.006689
1.866e-06
6.067e-05
4.877e-08
0.0067
2.84e-06
5.357e-06
8.101e-06
0.0001254
0.006651
0.00665
0.0001218
6.521e-05
0.0002749
7.009e-05
8.369e-06
5.057e-05
3.207e-06
0.0003872
9.351e-05
8.082e-08
1.069e-05
0.0001564
8.483e-05
6.545e-05
2.523e-05
3.946e-05
4.542e-06
8.384e-06
0.0001456
0.00179
0.0001086
2.032e-05
6.841e-06
7.74e-06
0.0005537
6.836e-06
0.000314
8.052e-06
6.327e-05
1.971e-05
0.0001517
0.006693
0.0002939
1.676e-05
3.197e-06
5.99e-07
7.943e-05
0.0001123
3.218e-05
8.834e-05
0.006625
1.257e-06
5.338e-05
6.075e-09
2.604e-05
6.775e-08
0.00017
0.006695
2.041e-05
1.579e-05
2.824e-05
6.757e-06
1.868e-05
1.397e-05
8.417e-06
8.115e-06
0.0003757
1.591e-06
0.0001612
5.021e-06
2.821e-05
3.371e-06
0.002715
0.002713
8.056e-06
6.75e-06
2.712e-08
4.861e-06
6.267e-06
2.079e-06
2.362e-06
0.0003472
9.053e-05
0.0002517
0.002222
0.006691
0.0003214
0.006489
9.843e-09
0.006695
1.622e-07
3.579e-05
5.865e-06
6.867e-06
2.895e-06
0.001433
8.952e-08
4.037e-05
8.899e-07
0.0001022
3.922e-06
0.005326
5.047e-05
3.222e-05
0.0001025
9.511e-06
2.991e-06
0.000158
1.166e-06
7.718e-07
0.000272
0.006665
1.485e-06
0.001496
0.006751
4.757e-05
2.983e-07
0.006666
9.542e-07
0.006697
1.065e-05
1.052e-05
3.037e-05
9.715e-07
0.006676
0.0002357
4.03e-05
7.644e-05
1.73e-05
3.103e-05
2.958e-05
0.004841
0.006686
1.076e-05
1.287e-10
2.375e-05
7.539e-06
0.0005957
4.679e-08
7.472e-05
4.398e-05
0.002122
1.612e-05
0.0001138
3.184e-06
0.0004442
6.106e-06
0.0006265
1.336e-05
0.006704
2.271e-06
8.297e-06
0.0003095
4.701e-07
6.744e-07
7.121e-05
0.006689
9.917e-06
3.245e-06
5.105e-05
2.79e-06
7.524e-06
2.594e-05
0.0004906
1.125e-05
1.192e-08
7.908e-06
8.392e-07
1.84e-07
0.001955
3.108e-05
0.006702
1.138e-05
2.511e-06
7.073e-06
0.006696
3.373e-05
0.006694
0.0001559
0.0001053
0.006714
2.892e-05
0.0003253
7.649e-06
2.565e-05
0.0006208
8.068e-06
0.006697
4.701e-07
1.821e-07
6.642e-05
5.922e-05
7.29e-06
0.001074
1.823e-05
7.552e-05
3.574e-06
8.653e-06
0.0001816
7.802e-06
3.666e-05
2.38e-05
4.147e-07
0.0002019
2.013e-05
1.138e-05
0.0002242
7.885e-06
9.461e-05
6.568e-06
8.205e-06
0.0002033
0.00113
9.163e-07
9.612e-05
1.918e-05
0.000134
3.195e-06
0.0002021
7.184e-06
0.0001018
0.006667
6.955e-06
5.678e-06
0.0001808
8.46e-06
0.0004339
1.029e-05
0.006705
2.154e-05
7.225e-06
4.518e-05
5.999e-06
5.52e-06
6.127e-06
0.006696
8.399e-06
5.17e-06
8.01e-06
1.707e-05
0.000405
8.276e-06
8.082e-06
0.006694
0.000148
4.207e-05
0.001786
6.941e-06
3.007e-05
3.221e-05
4.718e-06
9.351e-05
0.0002768
0.002266
2.908e-05
2.53e-05
0.006603
2.085e-05
4.673e-06
1.82e-06
0.006746
7.377e-05
3.371e-07
4.13e-05
1.376e-05
0.0001596
8.21e-06
2.056e-06
0.00209
0.001218
3.891e-05
0.0008734
2.841e-05
4.436e-06
0.0002857
7.626e-07
3.35e-05
0.000385
2.323e-05
4.524e-10
8.51e-10
0.0001812
3.466e-05
4.659e-05
0.0002378
0.000311
2.841e-05
0.0002408
2.782e-05
2.933e-05
5.947e-05
8.459e-06
3.051e-07
0.0001166
0.000161
0.003117
1.542e-06
0.0001557
0.0001131
5.77e-06
4.653e-05
3.186e-06
0.0001817
3.826e-05
0.006748
3.505e-07
7.504e-06
2.846e-05
2.88e-05
9.12e-05
3.088e-06
1.313e-06
0.0001051
4.287e-05
1.736e-07
3.329e-05
7.194e-06
4.157e-06
0.006636
9.617e-06
1.466e-06
8.162e-06
0.004704
0.0002866
0.0002258
5.008e-06
3.224e-05
0.000336
7.243e-06
0.005419
4.374e-06
7.193e-06
0.0001694
0.0003056
0.003868
8.077e-06
8.146e-08
7.818e-06
2.005e-06
2.652e-08
0.0002943
6.928e-06
0.00143
1.3e-06
1.567e-05
0.0002674
7.632e-05
4.219e-05
1.176e-05
0.0002622
8.21e-06
0.00254
3.356e-06
2.866e-08
3.084e-07
0.0002123
2.592e-05
2.859e-05
1.013e-05
0.001085
0.0001139
9.712e-06
7.634e-05
0.00372
8.266e-06
8.211e-06
8.446e-06
9.759e-05
3.988e-05
1.705e-06
1.862e-05
7.776e-07
4.253e-07
1.446e-08
0.0001567
6.194e-06
3.44e-08
7.032e-05
1.335e-06
6.977e-05
2.624e-05
1.416e-05
5.207e-11
1.834e-05
2.371e-05
0.003098
0.0002708
1.106e-06
0.0001852
0.003712
0.006698
8.437e-05
7.674e-06
0.0003157
5.869e-06
8.991e-08
1.301e-06
0.0009788
6.794e-06
0.000285
0.0001542
7.804e-06
3.582e-05
0.000237
7.924e-06
8.246e-05
9.582e-05
3.149e-05
0.006697
1.901e-05
0.0001631
8.048e-06
9.738e-05
7.68e-06
1.144e-05
3.982e-05
6.86e-06
2.117e-05
2.755e-05
8.279e-06
8.193e-07
8.572e-06
0.0001638
0.0001522
0.0001344
2.95e-05
0.0001395
2.136e-07
3.447e-05
0.004787
9.451e-05
6.988e-05
8.339e-06
6.337e-06
0.0007502
1.924e-05
4.388e-05
1.405e-05
0.002981
0.0001595
0.0003436
0.0001742
0.000241
1.115e-05
8.732e-05
9.676e-07
0.0001551
0.0001912
2.031e-05
0.006676
0.0003189
4.013e-05
0.0001215
4.061e-05
0.006689
0.0001146
4.983e-06
1.012e-06
0.006697
0.0007182
0.000285
1.772e-05
9.06e-06
0.0007676
1.091e-05
0.0001827
2.477e-07
4.005e-06
6.711e-05
8.624e-06
2.843e-05
0.0005988
8.233e-06
7.288e-08
3.758e-05
1.12e-07
3.715e-06
3.65e-05
3.01e-06
0.003239
0.006666
1.051e-05
7.14e-05
3.185e-06
0.006697
1.938e-05
1.323e-05
8.087e-09
4.588e-05
6.561e-06
0.006295
0.006439
8.134e-06
4.698e-05
0.0001137
2.203e-06
3.87e-05
4.68e-05
0.0001604
0.006705
7.456e-06
1.605e-06
7.598e-06
0.0001545
1.227e-06
0.0001552
1.978e-05
0.006732
3.206e-05
2.128e-06
7.154e-06
5.129e-07
6.23e-05
2.124e-06
1.424e-05
1.554e-05
7.217e-06
4.164e-05
7.36e-05
0.0001289
6.414e-06
9.097e-07
0.004589
0.005133
5.272e-05
0.000129
4.04e-07
8.008e-06
2.106e-06
3.63e-05
0.00122
0.005325
6.354e-06
0.006702
7.856e-05
4.679e-08
3.996e-06
0.0001082
7.397e-06
0.0001379
2.984e-07
2.026e-06
0.002061
2.602e-05
3.607e-05
7.586e-06
0.0002616
1.243e-05
7.565e-05
2.77e-05
3.078e-05
0.0001912
2.04e-05
0.0001283
1.356e-07
2.595e-06
7.94e-05
2.304e-05
5.163e-08
0.0001234
3.004e-05
2.414e-05
6.212e-07
6.629e-06
2.351e-05
8.066e-06
0.0001137
2.956e-05
0.001049
0.0003348
0.006703
7.737e-06
6.022e-05
6.615e-06
7.926e-05
4.278e-05
1.923e-05
3.037e-09
1.776e-06
2.944e-05
8.39e-06
2.442e-06
1.5e-05
0.0006851
0.0002546
1.089e-05
4.027e-06
0.0001083
0.0001581
0.0004275
7.121e-05
0.003974
1.023e-05
1.031e-07
7.159e-05
2.668e-05
0.0002883
6.366e-05
1.99e-05
0.006715
1.398e-05
9.765e-05
0.0003702
8.888e-07
0.0001557
3.283e-05
0.0001442
3.032e-05
6.136e-06
1.455e-05
4.186e-06
1.724e-05
5.845e-06
0.006713
0.0002478
1.546e-05
2.999e-06
3.972e-07
1.103e-05
3.008e-05
2.161e-05
0.003175
3.76e-06
2.431e-06
7.048e-06
5.564e-06
8.071e-06
1.627e-05
7.65e-06
1.825e-06
5.501e-06
2.302e-05
1.026e-06
7.624e-08
5.089e-05
5.528e-05
4.058e-08
0.00172
4.978e-05
0.002499
0.006699
5.869e-06
0.001983
2.512e-05
9.979e-06
3.442e-05
1.046e-05
8.087e-06
1.703e-05
0.0001143
2.72e-06
8.793e-05
0.0002812
4.47e-10
7.755e-05
0.0001272
0.0003723
1.558e-08
3.172e-05
7.513e-07
3.39e-07
0.0031
2.769e-05
6.89e-06
8.494e-05
4.413e-05
4.054e-07
2.867e-06
2.491e-05
0.0001149
7.804e-05
0.0001182
3.322e-05
0.006701
4.377e-05
4.611e-05
7.555e-06
1.54e-05
7.409e-06
1.595e-07
0.000108
0.003495
3.516e-05
0.0001043
6.131e-05
9.597e-06
5.368e-05
9.791e-07
8.373e-06
1.458e-07
6.863e-06
6.629e-05
7.017e-06
3.967e-06
0.0001235
9.588e-05
1.825e-05
4.549e-09
3.702e-05
8.058e-06
8.027e-06
0.006592
4.224e-06
4.126e-05
0.0003292
8.833e-05
7.776e-06
2.669e-05
4.212e-06
3.597e-05
3.021e-05
1.122e-07
0.006432
4.717e-06
3.644e-05
7.385e-05
2.195e-05
3.729e-07
0.005026
4.882e-05
6.121e-05
2.817e-05
2.302e-07
1.913e-05
2.853e-05
3.026e-06
0.0001664
8.396e-06
0.006746
0.006732
7.292e-06
1.936e-05
1.956e-05
1.732e-05
7.889e-06
0.006688
1.62e-05
5.525e-06
1.1e-05
0.002394
0.002956
9.111e-06
2.491e-05
6.862e-06
4.745e-08
2.921e-07
0.006141
3.944e-06
5.505e-08
9.007e-05
7.289e-06
4.281e-06
0.001877
9.031e-05
2.405e-05
6.351e-05
0.0002103
0.006652
0.006613
0.006635
0.006356
0.0006496
0.0002943
2.346e-05
1.666e-06
5.282e-05
8.07e-05
5.062e-05
1.905e-05
0.0061
5.7e-05
0.0002488
2.625e-06
2.391e-05
4.647e-07
0.0001137
8.668e-06
8.268e-06
1.089e-05
7.256e-06
0.0003254
8.1e-06
8.804e-10
1.552e-06
5.751e-06
2.766e-06
6.568e-06
0.005558
1.296e-08
0.0001042
1.247e-06
4.691e-05
0.0001128
3.577e-09
0.006696
0.0002192
2.947e-05
0.005062
3.41e-05
0.0001449
2.562e-05
0.000108
8.366e-07
4.759e-05
4.685e-05
0.006633
5.888e-06
1.231e-05
6.996e-05
0.0002257
1.002e-05
0.006715
0.003124
2.428e-05
1.865e-05
2.773e-05
0.0004157
4.213e-05
2.607e-05
0.0001055
1.572e-06
8.278e-06
3.479e-05
0.0002647
0.0003575
0.0001467
0.0001673
1.286e-08
1.948e-06
0.004886
1.585e-08
0.004599
0.006571
4.052e-05
0.001429
1.254e-06
0.0001384
1.921e-06
0.0001971
5.916e-06
0.006697
0.0003211
3.976e-05
7.293e-06
0.0002529
0.003447
5.648e-05
1.05e-08
1.654e-05
0.006702
1.283e-05
1.469e-05
5.426e-10
0.001969
3.438e-05
1.598e-05
0.0001022
0.000435
4.287e-05
4.805e-06
2.504e-08
5.136e-06
8.121e-06
1.261e-11
0.005085
7.015e-06
2.124e-05
7.306e-06
0.006696
7.609e-06
2.373e-08
8.101e-09
4.993e-07
0.0001606
1.674e-05
6.942e-08
0.0004103
0.0001333
0.00669
4.5e-05
2.268e-05
2.814e-05
4.043e-05
5.913e-07
5.381e-05
0.0001711
1.047e-05
0.006706
0.001876
3.49e-06
2.497e-05
5.76e-05
2.728e-07
2.99e-05
0.0001498
0.0001462
1.089e-05
7.201e-05
0.0001694
0.005253
7.558e-06
9.864e-06
7.005e-06
5.225e-05
7.25e-06
4.09e-06
1.165e-06
3.212e-08
4.989e-06
6.794e-11
4.948e-06
0.0002825
1.017e-06
0.0002868
8.023e-06
3.218e-07
0.004675
5.45e-09
0.006705
8.533e-05
4.973e-06
1.458e-06
6.994e-05
3.988e-06
5.648e-05
4.779e-06
0.006647
1.427e-09
8.556e-06
0.002103
0.0001172
0.0001313
9.041e-09
6.249e-06
1.238e-08
2.928e-05
8.887e-07
5.176e-07
2.009e-05
1.839e-05
8.108e-06
1.236e-05
0.006673
0.0001616
8.796e-06
1.937e-05
9.235e-06
0.0002212
0.0001757
7.979e-06
7.394e-06
2.53e-06
7.002e-06
0.003871
7.436e-06
2.802e-05
8.899e-06
9.042e-05
0.002335
6.638e-05
1.026e-05
2.981e-05
3.245e-05
1.985e-08
0.002133
0.002105
6.883e-05
7.2e-06
1.674e-05
0.0002851
3.009e-05
0.006489
0.0002186
8.447e-06
0.006339
5.71e-05
5.798e-07
0.0001156
6.475e-05
0.0001946
9.296e-08
5.173e-08
2.698e-06
6.213e-05
6.976e-06
0.0001862
3.655e-05
4.948e-05
2.253e-05
2.689e-06
0.0002314
1.55e-07
7.458e-06
1.233e-06
4.952e-06
3.769e-05
8.409e-09
0.0003135
8.026e-06
1.361e-05
0.002605
8.861e-06
0.0001084
0.001281
1.64e-05
8.202e-07
9.807e-05
5.552e-06
1.021e-05
3.011e-08
2.077e-09
0.0002549
1.331e-10
0.0007581
4.028e-05
9.214e-05
0.0001388
2.068e-05
0.006705
5.597e-06
3.018e-07
4.557e-05
1.105e-05
4.332e-05
1.357e-05
5.59e-06
7.092e-05
0.0001551
2.551e-05
0.0003214
1.454e-05
3.61e-05
0.005143
0.00015
7.02e-06
0.006701
0.0004881
2.293e-06
0.006697
2.335e-05
5.825e-05
7.247e-06
4.916e-05
6.085e-06
0.001406
5.887e-05
2.994e-05
1.924e-06
3.15e-06
9.704e-07
8.535e-06
0.006687
1.813e-06
0.006714
0.000239
9.679e-05
4.811e-05
2.851e-06
7.237e-05
8.147e-06
2.725e-05
6.011e-07
1.998e-05
0.0008581
0.0001096
6.281e-05
0.006674
7.58e-05
0.006697
2.32e-06
1.991e-05
4.391e-06
0.0001472
0.006661
4.112e-05
8.136e-06
1.287e-05
1.607e-06
3.033e-05
1.136e-05
0.0003824
4.028e-05
9.565e-05
4.123e-05
3.639e-05
1.161e-05
0.0001945
6.498e-06
0.0001203
3.383e-06
8.042e-06
0.006631
0.006746
0.001419
0.0003131
3.919e-06
3.177e-06
4.516e-05
0.001477
8.275e-06
6.45e-06
8.041e-06
0.006698
4.573e-06
2.574e-05
6.299e-06
0.002308
2.076e-09
1.814e-05
6.724e-06
0.00318
0.0006086
7.404e-07
0.0002525
8.211e-06
1.846e-06
1.624e-06
8.65e-05
4.618e-05
0.006698
4.361e-06
6.103e-05
7.094e-06
0.000203
1.113e-05
4.181e-05
0.0001824
5.682e-06
4.108e-07
0.006699
4.514e-05
9.554e-06
1.408e-05
4.72e-06
0.006702
2.038e-05
1.86e-05
0.0001061
3.97e-05
2.628e-05
2.667e-06
0.0001629
1.164e-05
8.665e-06
0.0003148
2.314e-05
2.234e-05
0.00517
4.441e-06
2.756e-06
0.0001768
2.806e-05
1.459e-05
1.149e-05
4.617e-05
0.006695
0.0002282
0.0002802
0.003195
5.006e-08
8.948e-05
0.006698
0.000703
8.364e-06
1.137e-08
0.006698
0.0002495
9.629e-07
8.033e-06
3.789e-05
3.518e-05
4.109e-07
3.3e-05
4.718e-06
8.362e-06
1.757e-08
1.723e-05
0.001244
9.528e-05
1.397e-05
9.596e-05
0.006685
0.0003348
9.959e-05
0.0002811
5.916e-05
6.798e-06
4.866e-08
9.059e-05
4.188e-05
2.406e-08
2.371e-05
2.914e-06
0.0002079
3.442e-05
8.26e-05
1.014e-06
1.717e-07
0.00669
2.747e-05
6.421e-06
0.006698
1.031e-05
0.0001211
8.197e-06
0.0002622
8.219e-06
8.378e-06
8.753e-05
1.639e-05
0.004727
0.001651
0.000103
2.825e-05
0.006769
2.117e-05
0.0002094
3.22e-07
0.0002908
8.885e-05
3.882e-06
8.403e-06
7.87e-05
6.941e-06
0.006713
3.745e-07
7.122e-06
3.914e-07
8.483e-06
6.323e-05
1.29e-06
1.709e-05
3.295e-05
1.808e-06
4.048e-05
1.979e-06
0.0067
0.006691
0.0001651
3.077e-05
0.006685
6.599e-09
7.608e-06
1.386e-06
3.139e-06
1.928e-05
6.707e-05
0.005019
7.343e-09
0.0007467
5.321e-06
0.006749
1.144e-05
5.39e-05
0.0002392
8.415e-05
8.201e-06
0.0001832
2.479e-05
0.006661
6.087e-05
6.721e-06
9.299e-07
1.454e-05
0.0003159
0.0001297
2.2e-05
0.006699
1.696e-05
4.653e-05
0.0001545
0.0001925
4.471e-05
2.878e-06
0.005924
0.006715
1.589e-05
1.237e-05
0.0003276
1.623e-07
0.006701
2.425e-06
0.0001042
6.496e-06
0.006701
7.061e-05
8.554e-06
1.909e-06
2.748e-05
9.516e-05
2.247e-06
0.006719
3.857e-07
0.004736
2.702e-05
5.868e-08
0.0009021
0.0001096
5.068e-05
5.264e-06
2.175e-07
1.251e-05
7.959e-05
0.006661
2.021e-05
9.596e-05
0.006701
3.69e-05
5.05e-06
2.181e-05
0.006771
0.0001944
7.02e-05
0.0001023
6.231e-06
0.0001194
0.004123
2.054e-06
5.38e-06
3.233e-06
0.0004453
0.006698
0.006706
0.0007207
2.338e-05
7.53e-05
8.285e-06
2.787e-06
2.591e-07
5.67e-06
2.365e-08
1.127e-06
0.00133
3.078e-06
2.551e-05
7.289e-06
0.0001847
6.804e-05
1.472e-05
3.577e-07
2.614e-05
8.068e-08
4.867e-05
0.0003306
8.901e-05
2.408e-06
7.481e-06
1.056e-05
0.00019
8.275e-05
2.988e-05
1.114e-06
0.004094
6.823e-05
3.458e-05
1.678e-05
4.97e-06
2.957e-05
3.045e-06
1.109e-05
0.006665
3.198e-08
6.613e-05
0.006751
4.57e-06
0.006696
8.08e-06
5.314e-05
0.001493
3.198e-05
6.957e-06
0.006707
2.702e-05
2.815e-05
3.429e-07
0.0006505
1.101e-05
7.179e-06
6.636e-05
0.006692
1.184e-06
0.0002798
0.0005413
1.288e-05
6.146e-05
8.336e-06
4.931e-08
8.737e-06
3.307e-05
1.777e-05
3.086e-05
3.548e-06
0.006701
0.0002674
3.39e-06
8.289e-06
5.907e-05
0.006701
4.281e-08
8.392e-06
1.103e-05
2.155e-05
0.0001088
2.212e-05
0.006669
0.0004434
6.221e-05
8.265e-05
2.629e-05
6.978e-06
7.297e-06
2.804e-05
6.371e-06
6.625e-06
7.69e-05
4.534e-05
8.136e-05
1.194e-05
1.929e-05
3.107e-05
0.006701
3.705e-05
0.001025
0.0002673
5.947e-05
7.863e-05
5.386e-06
0.0001025
1.495e-08
1.89e-05
1.377e-05
0.002304
0.006692
5.874e-05
1.409e-05
1.056e-06
1.748e-05
0.0001063
7.504e-06
5.242e-07
7.732e-06
2.14e-05
2.893e-05
3.393e-06
7.927e-06
1.091e-05
7.874e-05
8.259e-06
4.683e-05
2.704e-06
2.372e-05
2.762e-05
0.0001905
8.216e-06
0.006694
7.369e-05
0.0005932
0.006691
8.002e-05
8.282e-06
0.000314
5.978e-12
7.214e-06
3.382e-05
0.006698
8.594e-06
5.033e-05
0.002979
1.36e-05
1.032e-05
1.027e-06
8.336e-05
6.884e-06
0.006698
2.349e-05
0.006719
7.879e-05
3.705e-05
2.437e-06
5.385e-05
3.296e-06
2.493e-12
0.00661
0.006694
1.051e-05
5.347e-06
8.506e-06
0.000186
6.155e-06
8.231e-06
3.655e-05
0.0002414
0.001308
3.396e-06
1.476e-06
1.458e-05
0.0001979
0.00669
7.669e-06
4.996e-05
7.095e-06
7.848e-06
8.634e-05
0.0006781
2.651e-06
1.693e-05
0.0002843
4.214e-05
3.442e-05
8.412e-05
0.006707
0.006367
7.504e-06
5.02e-07
1.715e-05
3.123e-05
0.0001391
0.000281
8.068e-06
2.182e-05
0.006629
5.081e-06
1.319e-05
6.365e-07
1.452e-05
1.808e-05
0.006685
8.268e-06
7.216e-06
1.372e-05
2.183e-05
6.952e-06
2.102e-05
7.799e-06
5.874e-06
8.031e-06
8.108e-06
8.839e-07
7.51e-05
0.00203
4.826e-05
5.866e-05
4.434e-08
0.0004972
0.0002628
8.606e-06
1.234e-05
0.0002788
2.278e-06
4.347e-05
5.678e-07
9.973e-05
9.229e-07
1.793e-05
6.608e-05
2.658e-05
6.369e-07
0.0002756
2.09e-06
2.045e-08
0.004976
1.505e-06
4.093e-06
9.902e-07
1.669e-05
7.63e-06
5.719e-05
8.639e-05
8.405e-06
3.224e-05
2.986e-05
1.48e-05
0.0001553
9.765e-05
0.0002483
0.0001463
1.259e-05
0.0001477
7.185e-05
8.235e-07
3.418e-05
2.338e-07
8.338e-06
8.161e-06
0.006656
3.414e-05
7.254e-05
1.128e-05
4.029e-05
7.188e-06
3.871e-05
4.527e-06
0.000101
1.816e-05
7.55e-05
3.396e-05
7.809e-05
0.0005197
9.998e-05
0.0001325
1.702e-05
6.207e-05
9.632e-05
1.796e-05
7.541e-06
0.0002453
6.357e-06
1.979e-05
6.054e-10
2.685e-05
4.164e-05
0.0001341
2.272e-05
9.558e-05
2.362e-06
0.004082
0.002197
0.005473
0.0002376
8.28e-06
7.463e-06
0.0001828
4.89e-06
0.0002627
4.85e-05
3.647e-09
7.567e-06
8.11e-07
6.542e-06
7.207e-05
7.517e-06
6.241e-07
0.0005921
8.001e-06
0.006698
9.84e-06
0.0001242
3.776e-05
5.161e-05
0.006684
0.006686
4.499e-05
0.000101
0.0001113
1.283e-06
8.075e-06
0.006678
0.006697
9.024e-06
0.0002164
3.696e-07
4.681e-07
0.005829
3.674e-05
5.325e-05
1.835e-06
2.735e-05
1.408e-06
7.837e-06
0.0001887