/*--------------------------------*- C++ -*----------------------------------*\
  =========                 |
  \\      /  F ield         | OpenFOAM: The Open Source CFD Toolbox
   \\    /   O peration     | Website:  https://openfoam.org
    \\  /    A nd           | Version:  8
     \\/     M anipulation  |
\*---------------------------------------------------------------------------*/
FoamFile
{
    version     2.0;
    format      ascii;
    class       volScalarField;
    location    "40";
    object      omega;
}
// * * * * * * * * * * * * * * * * * * * * * * * * * * * * * * * * * * * * * //

dimensions      [0 0 -1 0 0 0 0];

internalField   nonuniform List<scalar> 
127143
(
2.183e+06
4.105e+06
4.682e+06
1.997e+06
1.676e+05
2.021e+06
6.622e+04
1.157e+05
1.848e+05
2.697e+04
9.739e+04
1.521e+05
5.509e+06
1.69e+06
119.5
5910
5.655e+05
1.97
13.4
4161
63.07
4409
0.1237
151.5
4793
623
1814
2002
1288
0.9227
243.6
640.8
4408
458.9
0.05732
4310
57.05
5.029
104.6
742.9
13.36
2.034
1.285
7.844e+05
1.974
449.3
1229
68.38
130.8
118.1
5024
0.02854
54.59
0.3785
0.02096
250.4
0.02095
0.3963
0.0229
0.3749
0.8818
19.74
35.6
0.02211
641.8
0.909
0.07032
42.42
42.26
0.06977
177.8
1794
39.32
0.02289
0.0218
1934
0.02447
74
247.2
0.02222
1069
3707
321.4
603.8
47.33
73.81
77.15
2452
0.752
404.4
0.0238
0.5499
225.1
63.1
187.6
0.7466
1.802
318.5
91.88
0.06909
0.02221
122.3
1838
2.295
75.2
93.87
41.32
0.07
3.725
0.02133
117.1
2479
108.4
30.77
0.02183
1.313
0.02478
0.0218
0.02427
1.647e+04
0.02134
283.4
12.94
0.217
1089
758.8
32.57
0.02539
144.8
241.6
118.7
200.1
19.65
73.99
6.391e+04
118.7
0.065
37.18
560
0.05844
0.2012
0.02353
31.75
18.27
52.53
60.32
5824
0.02213
201
2594
4.615
109.8
3.982
0.1112
41.23
48.77
0.396
277.1
68.51
428.4
155.5
5338
0.02386
117.7
553.2
603.2
66.07
1.395
1621
0.02992
171.1
18.25
1.725
7.453
0.2082
44.73
53.23
144.3
125.8
0.036
7.439
0.0373
28.07
42.14
243.2
18.81
0.1813
32.95
138.8
0.03579
88.92
190.3
0.05871
127
1.172e+05
25.82
0.01952
0.01947
1.647e+04
0.02205
0.02182
0.02994
0.2042
56.95
6.339e+05
59.1
0.06158
6.815
0.7538
0.02182
0.2207
38.82
0.02184
1630
130
1.438e+04
416.8
7.094
147
0.06189
42.95
0.02185
109.7
44.21
416.6
226.3
427.3
4.847
59
64.52
69.59
0.037
35.09
1.373e+04
69.36
0.1101
118.5
2.561e+05
0.02182
65.63
179.5
579.2
34.25
273.9
13.01
1.331e+04
65.43
1749
9734
0.08361
10.86
612.2
8.709
36.53
172.2
3.822
0.02531
1156
3.596
0.08849
23.69
0.03034
0.5171
0.02336
34.64
594.9
102.2
53.71
1.745
4.314
455.4
0.2064
68.44
66.3
22.17
82.9
107.9
93.89
0.35
3.628
0.04805
2.269
2.258
0.02179
0.0218
1.081e+05
147.9
0.02184
105.5
0.0375
3.762
0.376
0.1098
2.36
0.02219
6.215
216.7
49.51
34.41
3.761
326.5
0.7485
0.6389
1.203
495.1
25.16
6.781
0.02187
4.135
9.646
45.76
115.6
310.4
0.03873
0.02181
230.1
8.281
320.1
0.2928
0.7204
0.1153
188.6
0.03289
8.729
239.9
13.94
0.03821
120.1
200.9
45.03
44.41
0.0218
0.05621
0.01954
0.01948
0.1083
3.614
1.723
44.57
160
0.05668
7.096
40.81
74.52
25.79
105.2
260.8
132.8
314.9
187.7
274.6
5.992
50.95
82.36
0.03333
240.4
36.51
45.73
0.02438
200.6
65.87
29.94
0.7102
110.7
115.8
0.02193
0.02203
1.05
418.8
0.3878
4.331
0.0331
449
124.9
0.03391
0.1154
199.7
9923
83.41
0.3274
1.109
730.7
238.2
0.7399
0.02464
1812
0.04904
710.6
27.09
3.033
0.02228
0.4018
103.3
158.4
137.3
234.7
0.4164
196
0.03304
0.02984
609.9
0.02185
52.88
27.61
0.05081
6.943
78.44
17.86
0.02222
108.7
11.11
304.9
0.2032
71.96
11.01
185.9
108.6
468.4
4.856
46.79
65.28
540.9
136.2
0.06426
65.42
0.1069
1.078
0.1267
535.9
0.07566
0.02116
132.7
53.55
0.3476
23.92
0.02192
8.091
276.9
0.02812
0.02216
0.02173
102.4
0.06597
4.352
0.02626
315.4
0.02188
46.22
1.071
38.36
77.51
207.3
5.875
456.6
0.04901
49.37
360.7
447.3
59.36
3.398
16.03
64.77
6.84
11.95
75.41
0.1622
0.02259
51.68
226.9
0.02079
70.92
0.5355
0.217
7.854
0.05266
0.02029
46.28
0.4951
93.44
25.28
951.5
44.49
354.8
312.9
8.856
23.88
17.29
0.02171
341.9
0.02363
147.8
68.34
63.53
62.01
1.99e+05
108.3
9.812
0.1251
18.48
0.02176
918.4
0.02267
31.67
23.43
2.882e+05
1.475e+04
4.875e+04
0.02194
238.9
101.7
0.02181
62.04
16.77
76.26
2.541
78.74
209.2
70.77
784.2
0.1394
28.59
9406
63.92
318.8
148.2
0.02267
4.227
0.1722
5.75
0.02395
364.3
3191
79.16
0.01971
51.62
0.1251
241.1
10.77
2418
4.407
0.02384
71.39
7.112
0.02082
0.744
3.954
186.4
110.2
229.7
122
26.51
8.5
32.16
61.59
132.4
0.02242
612.7
136
322.9
22.47
41.64
0.02213
0.02207
0.08161
260.3
27
0.02184
0.02717
5.036
131.2
75.2
8.835
178.3
355.2
1.932
0.02369
0.02134
85.01
85.71
19.94
0.03007
1758
16.32
178.3
0.3244
453.6
0.02185
79.88
25.99
2.842
0.02403
71.48
23.73
2165
0.02027
38.4
416.4
0.02172
6.931
0.02186
72.48
17.53
0.02178
279.7
179.7
94.39
156.1
24.8
275.5
238.8
39.73
94.78
186.1
104.9
40.48
50.48
407.5
0.02601
253.9
0.02179
21.33
0.02586
30.71
0.02116
0.02184
0.4892
46.58
97.28
0.02134
0.02117
54.89
2532
294.8
293.8
52.8
4.283
74.19
11.73
72.85
141
757.5
0.02136
332.6
66.85
0.6664
1.749
0.02419
0.02712
11.97
465.4
17.3
865.7
0.02576
0.03421
100.4
342.4
0.02953
588.1
0.1794
0.1509
143.1
3.399
60.96
0.1652
4.946e+05
209
59.74
49.57
147.7
234.3
420.2
358.6
0.02723
124.9
45.89
52.63
0.02122
89.33
0.6332
0.5241
0.01969
0.0212
626.3
0.1253
220.6
194.1
28.71
4.134
1.341
355.1
0.1522
150.4
0.02169
0.0209
14.52
0.1123
401.3
0.4516
413.6
53.5
91.8
0.1853
0.6603
0.03093
312.9
0.05291
182.4
6.938e+04
15.22
29.82
79.83
0.02504
30.34
115.7
808.5
3.88
12.16
72.74
2245
109
41.23
19.68
123.7
38.05
9.592
32.26
0.42
1.067e+06
0.6228
0.02951
41.59
17.62
67.78
0.02156
32.85
5.613
75.14
0.03647
921.3
134.7
443.7
0.03734
366.7
31.65
312
211.5
0.03179
80.11
200.9
226.2
39.07
0.02213
40.8
78.63
0.0222
6.971
1.095
219.7
108
0.6362
15.27
538.1
97.37
0.01934
80.11
36.71
663.8
301.9
0.4147
61.08
119.7
0.01941
76.65
141.2
24.86
1.103e+04
24.27
76.19
83.66
34.72
2.222
0.02193
7.981e+05
132.6
145.7
162
65.26
77.31
81.47
140.6
0.02132
5.375
2.284
0.03243
105.8
147.5
42.15
12.86
0.02049
71.17
61.87
0.0217
0.02044
1.753
22.77
52.97
73.49
78.36
3738
3.394
0.3497
0.02124
99.28
61.53
212.5
408
1.138
0.04821
0.0225
3.292
1871
0.02126
0.1715
190.6
28.79
584.3
0.02302
32.54
31.56
0.02182
310.8
0.02121
25.11
1439
309.5
15.32
970.2
0.02323
237
0.1847
364.8
61.45
431.4
3047
0.4102
0.7806
2.473
1384
0.02181
2.417
203.6
705.1
47.37
923.7
0.04648
0.1631
87.35
611.2
1838
129
1.985e+04
412.9
3653
187
156.6
4.489
1626
0.02437
54.47
0.02546
0.02359
40.67
0.02877
143.5
21.69
28.65
0.8385
0.04386
313.1
43.62
0.02228
1.873
65.99
0.04191
305.1
2163
27.68
5.707
121.3
10.89
86.49
0.02173
63.49
183.7
0.02414
255.9
131.2
15.7
0.0207
1.772
1.252
7180
4.465
2186
64.48
13.21
33.52
483.4
415.1
0.02174
518
1.05
0.02314
4.718
8066
1.597
700.5
5.991
1.643
702.5
3333
147.1
0.02361
0.02184
6.106
8.228
59.61
293.2
66.82
628.4
192.4
0.1214
615.8
0.06221
1163
0.02161
70.27
149.5
30.63
161.7
87.38
0.02179
0.02232
140.1
0.2713
44.43
133.6
88.48
64
12.87
170.5
289.9
1092
47.61
277.4
170.8
6.298
68.44
129.4
77.26
258.9
3120
89.4
0.02156
0.02142
75.25
46.92
0.7883
0.02094
13.47
74.17
0.5334
94.69
10.38
122
11.17
0.02223
0.4286
0.5652
1302
478.3
37.19
0.5915
2.135
424.3
143.2
15.42
44.88
16.58
73.35
64.7
805.3
0.02418
361.8
527.2
34.97
142
132.1
0.02189
656.1
1005
0.02097
0.02155
78.76
86.95
9497
47.76
52.55
122.5
87.09
0.4711
0.5067
0.0249
102.8
37.97
72.57
2.024
267.3
66.44
0.024
854.6
33.06
0.02172
348.4
0.02276
0.02169
10.47
0.1348
2304
0.02158
305.9
0.02182
171.6
0.1101
1.868
3.402
250.5
185.3
138.9
20.46
0.05087
0.04012
29.1
100.2
79.1
94.38
1066
103.4
1005
167.8
154.3
655.8
183
602.1
0.2923
3.73
0.03091
330.9
59.12
399
0.05357
51.31
38.45
44.02
35.34
94.75
0.7804
384.8
12.77
44.1
45.38
284.2
62.34
0.02075
12.91
341.9
0.02278
259.2
556.1
0.02082
1.847
117.4
0.03902
0.3168
8.34
96.46
0.2334
0.0199
230.5
139.4
0.02178
0.2061
0.0366
74.52
202.2
3.979
0.03978
182.3
2046
250.9
138.1
52.9
1592
0.06302
79.7
0.02178
107.8
11.65
247.9
35.27
132
815.8
0.02197
9517
168.8
213.1
28.56
914.8
16.32
3.137
511.3
35.23
0.04049
1.917e+04
42.28
141.9
359.5
90.18
35.73
60.75
392.6
44.82
68.02
16.82
206.4
167.5
1.701
1767
0.1271
51.07
0.1209
254.4
0.01983
0.02166
10.37
1674
73.39
0.2046
750.9
130.6
0.02181
2588
52.49
12.72
2196
2.698
50.26
1.927e+05
1.869
539.1
50.43
39.19
915.3
161.8
419.9
8.726
333.8
0.08534
0.5897
4.313
117
4.038
51.93
58.06
647.3
62.72
0.3543
55.31
1.847
1.087
5.158
1682
0.05046
1721
273.2
62.98
72.2
0.02181
40.47
108.1
1.369
266.4
342.9
502.2
0.02136
194.5
164.3
98.37
869.3
58.33
5.274
102.6
0.02238
97.38
64.62
2928
227.4
0.09705
38.39
0.02258
2356
972.2
63.57
0.7746
3.87
0.0208
0.01983
76.44
28.04
17.96
0.1166
0.04259
0.04564
19.28
116.4
5.756
335.2
130.2
957.5
1.339
434.6
36.69
88.76
0.01987
242.9
44.48
23.8
1123
3.949
12.56
83.71
29.79
69.47
2958
1.007
134.8
61.78
12.85
2.53
114.1
2454
0.2094
178.7
0.0212
147
638.9
0.02037
747.4
15.28
65.81
201.6
0.02139
1.519
1.056e+04
0.0219
110.8
136.9
45.38
975.4
0.8777
2.305
121.3
562.2
80.41
276.1
0.0794
34.18
350.8
3322
156.5
108.4
0.0217
157.9
5.275
356.6
157
36.72
101.6
0.0221
1.444
68.13
0.02402
53.55
0.02133
2146
55.51
1607
73.41
37.08
780.3
95.54
87.41
147.5
4866
144.6
110.8
26.41
64.96
68.85
0.02211
36.81
0.02293
43.04
0.02201
55.33
0.02148
246.7
47.5
0.0208
0.02172
54.27
0.209
200.2
0.131
0.0202
8.235
111.8
0.03926
5.493e+04
287.4
5296
87.78
19.31
157.2
90.42
29.09
0.2928
789
31.87
139.3
529.1
112.4
47.62
11.31
0.02156
4827
134.9
683.4
0.02181
1027
42.26
159.3
33.96
0.01976
0.01974
0.3492
0.9732
5.662
28.01
31.68
1.083
2.195
0.6559
1.948
515.6
23.87
3.019
90.93
2.61
607.5
214.5
34.15
171
75.51
0.02237
48.67
87.45
1013
42.18
0.03916
24.98
1.084
74.56
52.89
711.8
0.7278
0.02174
53.31
10.63
1508
440.3
0.7905
133.4
167.6
0.1568
0.01973
470.9
228.5
5472
0.08712
1789
36.17
0.02155
266.3
157.3
20.48
0.2324
32.86
91.64
26.87
99.54
42.47
162.1
0.05012
40.33
255.8
295.5
0.04403
0.04395
195.6
17.12
9088
87.96
341.8
368.7
4853
0.7751
82.19
0.02759
0.02199
0.02151
66.37
0.02185
1353
0.02174
3940
0.4753
17.3
46.09
262.7
0.07484
1636
0.2957
172.3
76.07
868.2
0.02271
227.4
103.7
64.58
327.3
176.8
88.14
503.7
607.1
0.05376
0.02061
589.9
0.06168
0.02014
0.464
452.3
0.02061
668
0.02185
58.99
23.57
33.46
127
0.02097
73.82
280.4
94.9
0.1054
5.663
0.2685
0.02178
0.02123
78.39
2.031e+04
8.624
44.3
0.02661
1032
0.4767
0.1076
0.04939
2.435
91.71
245.9
0.02777
40.9
0.0235
89.15
0.02217
0.8263
28.95
26.74
20.78
338.8
185.7
0.02122
25.27
550.1
72.93
954.4
436.8
8.013
0.03805
4.588
8269
37.11
445.8
1612
0.05817
0.2444
0.02164
170.2
86.09
74.42
0.02181
101.2
0.02176
0.2478
78.25
0.02152
6.946
0.446
13.27
35.87
0.3201
168.5
0.0219
152.7
505.9
2.089
14.08
83.68
0.04542
12.05
49.43
75.81
17.83
31.03
303.3
136.5
230.5
545.6
0.09294
0.3046
18.92
0.04029
117.6
88.9
0.1572
39.15
0.02656
0.1443
270.8
1.253
11.33
66.7
1083
64.11
927.9
0.8215
0.02066
1000
63.7
0.1232
187
0.03128
23.92
0.02223
18.18
836
39.97
11.46
27.85
70.29
0.02187
30.66
0.6664
7.925
1215
0.0279
48.03
521.2
0.02161
0.02849
69.39
0.05887
48.01
2.394
1.902
15.88
0.7256
39.33
0.06098
0.8078
139.3
0.02076
0.27
1220
845
0.02099
86.1
1149
4.757
516.4
46.27
81.46
822.4
0.05016
0.09151
64.4
0.02799
540.2
13.82
43.59
760.5
274.8
0.02729
292.2
1.438e+04
4.755e+04
34.6
67.09
249.3
0.6976
64.15
5.946
34.76
250.8
64.86
74.96
30.79
780.2
96.58
1.123
0.02183
397.9
1.138
117.9
0.4588
0.05621
63.01
34.46
5.014
0.02053
188.1
443
7.184
418.3
61.33
1113
130.8
0.0307
251.5
573.9
64.9
51.62
1469
0.01939
2593
118.6
81.04
0.02571
67.73
66.53
304.1
353.3
41.31
416
0.02589
6.602
96.06
0.06227
56.84
0.02191
211.8
2410
75.35
412.7
5376
53.09
1073
0.08173
315.5
5.556
47.98
0.04692
8.382
16.15
52.2
57.62
0.04875
39.29
3355
5600
58.59
2.395
0.9824
1.538
0.02236
0.02909
109.1
0.4859
0.02241
37.97
64.35
136.1
38.16
4.889
72.43
11.62
608.5
955
1359
0.1135
44.74
2619
28.14
285.7
2.726
6.643
33.49
3.384e+04
9.082
7.107
0.03587
0.06684
776.9
54.05
0.02181
0.02196
45.53
390.9
47.6
50.26
1982
27.37
0.02685
371.2
51.46
40.09
615.5
0.4558
1.748
52.44
162.7
0.81
188.2
0.02189
144.3
29.01
395.8
0.729
106.4
544.5
2.019
389
10.06
249.6
69.36
286.8
0.1568
53.29
68.67
94.8
368.7
37.55
1306
89.53
0.02181
36.32
2.723
315.6
27.55
0.1877
11.02
0.1416
849.9
0.03889
50.48
25.83
31.21
56.85
29.5
0.2189
918
0.2734
0.02753
160.2
0.02092
56.55
0.03867
0.846
26.04
0.02152
0.3757
107.3
278.8
0.02178
0.02498
53.04
9.68
297.7
0.2417
22.27
31.03
326.7
228.9
0.986
32.71
7.188
0.09779
53.42
2381
17.24
1849
196.3
20.13
1032
0.02182
0.02061
2.192
2.36
5279
0.02181
11.08
128.8
1.515e+04
136.7
251.3
0.0196
0.01919
184.1
202.5
37.49
39.12
0.04084
2.043
1.126
0.02222
367.5
68.8
37.76
34.88
686.6
0.2877
3.056
0.01992
5.427
66.44
341.9
158.2
171.5
168.4
91.71
103.6
57.66
341.4
185.6
0.08843
53.27
643.4
0.02599
0.02359
85.95
46.71
1085
3.189
102.8
243.4
0.1186
0.02178
8.372
0.02211
96.27
1956
47.12
0.1799
23.78
0.05549
560.2
257.2
0.05615
6.658
4.989
44.14
38.01
17.22
182.3
134.6
90.09
65.18
8.455
46.59
435
48.81
150.9
79.78
3815
33.05
69.15
104.9
13.41
3.584
7.861
1116
0.5006
268.3
0.02326
59.56
0.02214
68.41
19.81
1065
136.8
0.1252
271.9
3069
437.6
80.85
30.34
316.7
1550
0.2043
36.94
17.3
1964
116.3
80.71
0.2558
0.4278
0.02182
26.27
2504
2.562
140.6
55.83
0.1309
1081
0.01984
16.36
0.5622
37.1
206.9
0.2335
2.218
29.25
0.05139
40.69
12.34
1015
173.4
112.9
0.02156
59.97
102.7
384.3
770.3
17.84
10.04
143.5
0.02186
125
99.8
7.143
16.02
35.78
821
316.4
92.85
63.19
0.6263
5.716
702.1
3.724
0.1071
1320
0.05793
0.6295
0.02188
0.02199
60.31
0.02236
152
19.77
0.9478
29.14
309.8
895.2
95.55
65.87
126.3
48.43
8480
103.4
109.3
0.7156
3307
26.83
707.2
1241
0.0358
207.7
293.8
2.157
39.56
412.9
214.4
166.3
86.1
108.8
0.03023
7.689
0.02206
1.024
38.31
113.7
14.28
44.66
1710
53.67
0.02236
341.7
120.5
2.701
22.73
113
81.44
256.9
403.2
924.9
75.38
105.7
143.7
107.4
81.19
0.1059
4137
384.7
39.08
3.127
0.02254
124.9
345.1
63.75
2.089
963
391.1
112.9
2.234
113.4
1872
0.02254
539.4
18.58
0.04765
9.961
188
0.02182
257.8
43.05
5.71
4683
5.703
157.5
3322
91.63
103.2
0.01982
0.01977
97.84
11.24
3.312
664
56.5
0.02152
806.9
342.7
62.45
0.02253
0.02238
64.58
3.398
94.64
1.122e+04
209.4
0.02394
245.3
2480
0.116
250.4
140.8
0.07025
0.9402
170.7
0.7877
31.99
0.01966
0.01944
0.01945
0.01966
0.0815
28.23
7.869
113.7
3.379
42.45
84.83
889.4
0.0204
180.4
57.36
265.3
626.1
367.9
46.97
30.06
141.6
52.55
68.24
0.1067
43.05
6286
70.67
701
0.7929
26.51
0.02178
3447
127.1
131.5
3.628
0.03674
2868
0.0218
53.33
585.3
0.02874
224.3
59.73
35.75
34.64
376.2
0.0555
133.8
0.02068
5.408
97
74.23
72.23
16.6
0.02165
0.0219
0.3076
159.5
205.8
0.4182
49.15
232.5
1.768
223.2
143.2
5.72
51.14
26.07
80.4
0.2067
3396
0.8805
0.02179
1203
0.02179
0.02271
0.3332
0.08149
262.8
66.1
406.3
73.78
136.8
0.02188
0.09795
54.98
83.99
61.44
0.03896
0.346
9824
962.4
0.02213
1588
957.6
9224
0.05818
5.755
14
0.1028
0.02547
4.569
93.06
7141
0.1297
274.1
3.641e+04
0.02179
155.7
774.3
54.28
0.02179
328.1
9072
4832
1123
0.4711
13.31
2482
0.05704
69.42
0.02154
47.94
984.7
7.394
245
1088
0.2374
35.52
16.99
0.02225
0.03326
200.4
380.6
3.326
466.6
193.1
0.984
49.04
52.73
47.04
62.65
0.0218
50.71
71.12
85.21
96.97
25.65
191.4
81.23
1433
1644
2.038e+04
219
0.05392
166.4
0.02742
346.5
309.5
0.02181
2.21e+04
0.02221
70.71
1232
561.5
85.95
122.1
96.61
39.95
0.01965
9355
31.55
0.04772
40.46
32.68
2532
853.5
3279
24.27
168.7
891.5
34.97
0.1094
37.45
1583
0.02089
65.25
28.18
87.42
25.41
32.67
24.34
664.1
52.48
49.01
959.2
0.04133
622
0.1229
21.06
80.45
0.02628
0.1343
18.51
427
383.5
1376
0.04631
0.02217
2.561
96.67
1612
59.78
10.06
0.01933
0.03377
393.5
0.01976
125.7
136.1
0.08561
193.7
31.3
2131
1467
862.6
0.04057
231.6
64.27
267.3
3.944
12.54
980.7
70.84
308.1
104.8
569.4
84.1
1.926
1892
28.05
37.75
58.26
0.04176
23.7
0.1731
0.02222
10.71
148.3
128.3
68.4
20.58
2687
4211
49.06
3.171e+04
0.1897
0.3414
0.03701
0.06444
9.636
0.02221
39.1
1231
76.52
286.6
1.338
16.89
37.38
162.4
52.63
532.1
49.29
2429
269.3
0.02443
40.8
38.64
0.02204
0.04206
482.7
0.02186
292.3
207.9
101.5
3.463
618.6
0.07626
0.6127
0.05018
241.9
698.3
156.3
25.78
0.02144
92.69
0.02164
0.3257
111
2.607
976.8
185.1
270.8
7.422
2382
1.006
0.1635
84.39
95.23
0.02085
2.499
0.02185
325.4
323.6
109.2
63.09
0.02165
232.4
171.8
161
922.3
338.5
134.2
0.02456
0.9503
1.94
2.104
373.1
15.44
0.09428
4.509
0.1599
23.25
128.2
0.02071
0.02042
0.02277
0.04166
0.2821
230.3
167.6
0.0221
94.59
12.21
62.06
0.02194
127.4
0.1098
458.1
0.05939
6200
12.11
512.6
0.03553
0.09762
873.3
0.03136
60.48
62.4
77.8
117.8
187.6
0.02182
120
84.82
47.67
61.34
78.25
4.085
78.57
26.48
742.6
0.02154
48.17
18.52
1992
0.1931
0.02209
475
592.9
79.43
57.93
6.636
728
0.05219
15.69
116.1
55.54
79.15
4.327
0.02434
9.961
1078
102.5
72.66
1101
2.909
3.662
0.02168
0.03069
0.1396
0.03683
6980
160
0.02195
0.02368
40.71
4341
0.02194
72.04
634.2
60.94
3.389
288.7
984.8
187.8
40.68
281.1
2098
539.3
0.02227
131.2
16.36
152.9
0.02139
0.3512
74.19
42.79
81.42
3360
700.7
1.349
203.5
2580
8.976
83.37
78.32
1.739
0.9124
424.5
1653
0.02158
383.9
49.19
0.02194
779
62.72
3.6
0.07748
33.86
244
114.7
12.18
0.0219
0.02201
1.863
72.13
0.02018
2.132
0.02766
313.5
40.73
57.49
182.1
447.6
1.795
48.07
0.02155
1046
13.98
1105
207
0.1084
439.6
4.864
305.8
820.9
11.61
766.9
0.02081
0.02125
100
0.07404
0.0214
2006
86.38
94.19
212.9
10.92
116.8
0.02446
1945
0.04312
27.96
0.02041
0.2188
127.6
65.41
134.7
34.12
33.11
81.99
0.02048
133.7
262.2
384.9
1084
0.1435
39.2
7.675
0.02195
85.97
226.3
0.1719
0.0514
82.14
844.4
0.02133
0.02165
10.95
144
55.81
1444
0.02206
281.1
131
50.64
0.02208
0.08964
336
69.01
187.4
80.11
25.19
0.02054
178.8
0.02613
380.9
1369
0.07529
34.15
28.81
359.2
1116
102.9
0.06962
0.02048
111
0.2339
0.02167
426
82.38
10.01
0.02051
0.08371
0.1106
0.03039
47.06
81.31
0.0218
274.2
28.55
159.4
0.02931
0.02191
0.02168
0.05371
9.009
2.327
239.9
1049
1464
26.58
2863
641.4
0.02523
965.6
150.1
253.5
32.91
0.1803
1.791
437.2
554.6
523.6
75.08
0.06207
99.91
72.66
43.23
7.209
0.2342
38.66
0.2408
97.14
0.02974
105.5
5.688
3.596
0.5469
580
1610
899.2
0.02062
4575
106.8
0.02012
101.1
0.02182
167.1
173.4
0.1051
473.1
30.75
0.0223
1.743
7.402
1166
0.02369
0.2412
858
2.612
0.02158
598.4
62.44
0.03446
0.2291
3.17
74.21
2716
222.3
171.3
14.5
120
1.587
0.02173
0.04999
63.43
42.95
178.6
0.02207
2322
98.42
17.41
88.13
107.5
162.4
0.0202
0.06291
110.8
161
0.05645
49.54
253.3
7.181
3.693
6.227
27.17
0.04804
23.34
15.87
8.484
6.096
0.02205
168.4
0.1332
62.39
3.133
2.168
302.1
144.1
5902
11.25
0.8935
0.07039
0.02123
3.018
12.62
641.2
1064
60.36
166.4
293
41
0.8101
155.1
203.9
735.6
74.09
0.05065
416.7
1.092
402.9
7.085
19.93
39.3
99.19
0.02179
40.8
0.2355
0.02165
0.2585
412.5
1.094
4.332e+04
235
68.74
0.02168
31.27
252.9
0.03899
58.04
78.87
278.7
80.94
246.1
0.02188
215.7
0.02074
2.163
322.9
50.43
2.996
210
3e+04
0.02189
0.02175
15.75
31.66
366.2
0.9634
101.9
267.5
5.479
64.1
0.02219
160.2
512.7
0.1203
72.42
0.02157
24.63
0.06788
47.76
164.3
153.4
0.2938
78.52
13.18
0.02841
92.43
258.6
0.2204
0.02153
0.0237
167.4
970.4
10.34
7.24
79.97
9.071
73.12
8.201
0.01939
0.3796
1.075
1639
1610
262.8
0.02135
227.4
57.44
118.6
150.4
1097
3.069
46.25
42.89
28.62
275.6
709.7
0.8439
0.0565
9.215
0.03749
3013
0.02369
55.45
207.2
15.19
63.57
234.7
127.5
458.7
43.85
188.8
12.2
2.614
450.7
1587
65.53
888.4
1558
0.0218
983.3
117.7
389.5
577
42.65
1.34
47.48
36.36
5.776
0.04932
28.38
72.21
39.52
35.28
79.96
0.9824
1.187
0.6684
1016
113.1
1370
42.6
231.6
0.02027
378.4
167.9
487.2
30.92
998.1
325.6
125.5
0.1024
910.6
0.09044
53.02
105.1
0.07107
0.6762
89.41
10.37
48.58
79.29
9.267
75.85
61.64
1078
8.858
6022
0.04727
4.673
50.79
12.25
0.0564
234.7
0.02182
0.02256
0.02178
63.71
63.97
131.1
0.4324
0.1538
45.57
0.04973
5381
510.9
968.9
100.3
0.09007
278.4
590.1
0.07999
169.9
0.02187
25.43
24.03
78.77
1.89
0.0213
0.02187
212
29.62
0.04511
1039
67.26
0.02096
0.02182
27.96
0.03621
181.2
1067
0.02472
3.223
100.3
240.8
469.6
1087
8.984
0.1796
20.39
126.9
0.2944
340.3
9.013
2.254
245.5
67.72
3.152e+04
0.03102
24.98
293.5
1167
0.02184
70.88
0.0218
13
2.441
11.33
42.7
119.8
53.28
0.2304
400.5
79.9
145.4
285.1
282
78.73
1.159
30.58
336.4
48.16
118.8
0.02123
922.5
993
425.1
19.53
3.882
441.8
220.3
0.4471
0.1374
7661
70.7
0.04448
0.02892
0.04571
157.4
266.9
2.729
938.2
4.804
0.0332
44.74
26.7
41.04
182.6
5606
632.3
37.36
212.1
62.73
125.5
150.6
64.6
18.49
18.1
438.1
61.67
0.4053
53.92
244
0.1872
17.82
0.9922
4.396
1073
90.06
0.02204
851.7
8.746
1175
93.52
0.02154
0.1299
271.7
0.03382
71.95
346.8
678.6
16.61
0.02304
0.2458
31.61
61.75
0.09376
154.6
0.02078
228.5
73.94
92.93
101.6
149.9
156.7
139.4
841.5
0.3856
38.91
0.02183
1449
0.0467
0.02674
73.38
0.02213
30.49
59.3
1.927e+04
0.02196
68.29
58
184.8
150.9
0.2422
108
41.88
131.2
631.6
100.8
0.1149
0.02258
64.14
338.5
12.73
34.73
159.4
229.1
2.66
0.02116
32.18
70.86
2230
18.82
96.11
3.263
85.47
0.02151
8.114
929.9
396.5
0.02198
0.2728
91.78
0.01993
33.53
440.3
31.92
0.02195
0.02201
17.73
0.02466
0.02014
0.02174
20.9
231.1
394.5
0.3371
60.72
4.664
0.7748
0.02225
75.09
22.21
0.04866
1.08
387.4
2.122
0.02884
204.7
129.2
11.37
922.6
2529
0.02837
56.89
12.14
168.2
147.8
263.8
0.02194
19.77
1010
2.352
44.26
0.4709
535.1
105.1
75.66
5.617
1170
0.08196
2945
93.97
0.02867
0.03482
0.02
55.78
97.55
699.2
396
2506
0.124
0.0194
36.58
42.62
0.1485
0.02217
309.6
24.42
431
129.1
88.12
31.94
14.15
9.057
103.3
0.01985
708.7
182.1
66.83
5.346
0.09855
0.02245
53.76
42.98
132.2
1354
17.05
0.04848
21.92
0.7286
0.09449
0.02226
309
76.38
385.1
297.5
87.59
0.9844
57.71
57.12
3.134
34.18
0.4891
0.1874
0.02192
31.22
1893
1.008
0.8447
3680
0.3453
0.02169
4.455
0.03259
0.02203
42.94
0.01948
0.01942
3.028
0.02012
92.44
1494
186.9
4.749
0.199
0.02113
0.02197
4.492
88.62
12.18
992.1
47.05
0.02908
48.85
9.83
614.6
0.2442
0.02198
3.572
52.03
0.02203
0.02136
66.51
89.53
0.06426
0.03431
172.7
0.02131
0.3922
0.02185
5604
0.21
155.3
46.33
0.03225
0.1714
10.73
42.81
236.5
34.78
34.24
27.15
0.02215
970.3
58.08
42.74
0.02191
74.46
52.4
184.1
64.12
0.349
88.75
4.547
0.2064
261.8
0.02205
2.759e+04
5.206
1373
0.02197
82.39
0.02186
0.1029
1.892
348.8
55.02
45.82
2.615
0.08616
1011
0.09983
211.2
942.5
7.798
0.1954
0.03886
231.8
0.02164
1.686
78.33
5.47
5.338
0.0222
1382
0.03763
56.88
320.5
20.61
165.3
667.6
52.75
342.7
42.72
1.093
76.8
1.622
0.02179
0.02181
585.4
52.28
241.7
32.66
30.63
0.0218
28.32
0.02181
0.02199
0.03631
471.1
0.1571
4.402
0.02947
88.35
0.3115
157.9
107.1
1695
0.02794
244.2
27.99
37.78
0.2303
40.21
0.02187
39.93
0.2454
58.75
4.583
0.03524
103.9
2142
52.99
514.4
93.52
1853
436.3
2.135
13.66
1250
6.964
2754
135.2
88.62
156.3
66.61
122.4
161.5
205.9
0.03562
58.72
0.05916
149.1
1256
33.21
101.9
255.4
61.22
46.38
0.03027
97.96
109.5
3650
42.27
0.02327
82.61
30.4
59.56
0.05038
22.4
65.3
103.8
0.6588
451.3
13.28
347.1
66.53
236.3
71.39
42.05
106.7
0.02746
648.4
6.678
0.02587
39.1
55.85
82.5
306.7
356.1
0.02202
78.75
43.27
0.133
3.646
52
3581
310.2
0.02088
0.02239
1.695
87.08
25.57
0.02162
17.88
88.71
173.9
952.8
0.02104
109.2
884.1
62.91
2753
184.3
211.1
189.7
38.34
6.241
0.02533
99.32
205.2
36.14
129.9
0.9662
65.49
0.02203
0.04607
75.92
70.66
91.73
198.1
54.28
0.02217
284.7
195.7
0.3118
114.5
3823
682.8
0.03392
0.1992
0.02744
33.89
198.1
286.6
437.7
39.13
131
0.02182
157.3
1.386
41.68
313.5
0.6972
993.5
19.76
672.4
0.04154
63.66
606.7
0.02179
62.89
36.17
90.52
50.04
0.0219
0.022
0.03551
117.5
0.02218
26.83
584.5
0.1948
83.29
90.79
0.04689
28.03
64.1
0.1907
495.6
82.38
1135
169.1
0.02208
391.3
697
0.02172
1108
6.71
14.16
14.14
201.9
43.26
29.63
50.03
42.32
0.02194
45.79
0.02178
0.06553
508.4
55.05
19.58
16.91
1.381
153.7
0.02191
0.01974
0.0879
37.4
66.84
27.95
994.8
1.577
0.1137
459.6
0.7138
35.92
0.02137
146
285.3
47.4
57.42
251.9
40.14
100.3
99.01
2.27
0.02472
81.21
65
53.11
283.7
1080
245.1
0.0215
46.6
108
39.79
4637
0.02182
204.5
80.7
27.71
48.74
102.1
2862
65.24
60.37
295.9
3321
5.637
56.86
800.4
5.128
0.02169
142.2
79.84
92.48
63.15
47.34
9.541
0.03528
210.2
42.97
468.3
7.994
361.6
520.6
0.02175
286.6
54.28
184.1
2.293
0.01943
147.9
93.92
8.96
24.84
0.02135
95.5
48.83
2.735
63.96
35.56
255.3
65.47
207.8
168.1
0.01993
38.77
59.98
110.4
270.5
44.53
16.33
92.88
44.88
16.93
58.44
169
942.4
346.8
221.7
5638
10.36
0.1095
1.294e+05
179.1
673.3
0.03197
653
1420
121.5
12.35
0.02326
8.904
0.02181
73.36
17.57
2.543
2.06
48.43
370.4
11.82
1.25e+04
55.63
131.5
182.8
2254
274.4
105.5
80.71
0.1529
83.29
46.47
1097
41.62
0.6885
1.008
285.4
0.8709
0.022
0.02177
17.43
19.37
0.04873
0.02018
0.02234
92.88
518.9
397.9
0.02155
0.02573
27.97
0.01974
0.01985
286.7
0.04441
56.76
334.4
0.05736
318.2
3.912
148.6
10.4
100.9
0.07844
33.8
71.86
3.894e+04
92.82
64.11
291.9
571.1
1.875
0.02568
51.06
345.1
0.02178
3.319
116.5
324.3
942.8
45.39
136.4
390.2
0.02683
41.77
369.7
119.8
39.19
77.74
0.06009
14.58
33.66
291.1
62.11
88.04
0.03685
447
70.46
0.03227
90.04
0.05722
85.7
0.02937
2908
1128
0.03326
90.07
58.9
0.185
892.9
192.3
0.02337
651.3
32.78
96.72
589
0.04613
0.3831
3917
37.8
122.2
3.172
86.24
1.682
7.461
78.68
0.05028
1.281
178.5
32.67
84.5
74.59
131
2.82
33.38
275.4
95.24
3.019
13.49
0.0218
0.1562
222.8
56.88
0.01944
1.68
15.26
6.601
81.6
33.21
72.14
0.1706
153.1
39.94
0.09207
36.3
171.1
0.1582
351.8
0.05466
271.5
44.5
0.374
0.08652
56.04
312.2
162.7
0.02107
150.5
63.22
73.06
0.06306
0.02238
29.4
139
437.9
7.247
30.04
65.44
147.1
1.87
1.687
1280
7.426
1.347
3603
137.9
35.22
74.82
0.02204
2.446e+04
0.0227
108.8
50.31
61.03
64.99
90.88
1409
16.99
5.411
0.4774
1.103e+04
282.3
61.13
8516
1181
281
48.96
0.1488
0.6138
0.3796
28.16
0.02187
177.4
1175
0.05923
22.25
2.94
70.21
50.33
247.7
2313
562.6
100.7
0.01943
0.01915
0.02179
145.4
2387
0.6165
0.0216
0.239
822.8
3.862
2557
33.59
0.02273
6716
0.01947
1.161
42.11
0.04996
38.33
0.4637
1.012
0.09138
632.3
76.14
26.51
53.85
7990
52.15
403.3
98.23
57.04
0.02213
5169
234.5
483.8
35.71
152.7
35.12
251.3
0.09916
37.25
139.1
48.73
166.8
0.02732
624.6
66.8
468.2
8.473
0.1046
0.1702
0.02219
119.7
105.9
67.9
138.2
27.12
801.6
33.45
37.88
26.88
76.58
0.2153
174.5
48.14
35.94
1.97
0.07364
4.618
0.1935
28.62
1.79
207.6
7.127
214.6
25.93
6.916
146
0.4381
730.6
42.25
1.389
0.1212
2039
97.6
83.17
32.35
1231
0.02204
555.3
304.1
32.06
46.51
88.3
27.9
263
78.84
110.3
33.08
42.06
2654
0.0461
0.02187
0.02211
52.48
227.9
1.884
1413
444.5
1649
174
44.72
731.5
1049
5.722
262.9
425.3
31.92
1094
0.02176
132.9
281.3
267.1
0.02157
267.3
14.49
109.1
131.2
64.99
0.02205
0.3183
130.5
688.9
0.02093
122.3
3.243
0.4937
1.76e+04
0.0302
26.06
50.18
135.1
189.1
0.4461
24.76
5.904
216.9
342.7
285.9
0.01949
53.86
3.991e+04
0.0288
0.02415
490.3
784.2
171.2
117.8
0.07257
27.77
178.7
17.33
15.75
88.8
0.02004
42.18
8.968
0.2613
0.02367
85.68
0.02134
6490
44.41
4.345
12.23
2445
0.02266
382.9
0.02
0.02216
188.9
0.5393
148
17.27
0.06111
157.6
87.03
85.28
7.77
85.65
231
424.1
121.8
292.8
566.6
947.2
196.5
27.35
206.4
139.7
88.93
0.517
0.0212
0.0212
1556
33.66
98.87
2442
0.02228
552.7
0.493
0.02039
54.03
8614
6.776
248.1
3566
0.02206
251.1
134.3
80.43
49.9
26.49
2144
367.2
0.02177
2654
542
0.07866
0.02535
142.8
437.1
156.1
289.9
61.62
52.02
0.02179
217
0.02124
264
285.4
2354
0.01944
0.01917
0.2279
31.51
0.03715
42.25
1.279
33.16
98.87
39.19
114
0.07498
0.02997
1019
2392
32.44
397.3
0.04914
59.35
0.02154
63.46
1877
140.8
251.8
814
275.7
201
1.082
32.6
115
0.02843
0.02216
0.02184
67.87
93.75
163.8
2936
168.4
0.0272
73.55
177.8
172.8
4209
16.56
152.2
532.4
20.93
0.07227
1.744
6.129
3.148
0.09781
441.3
49.46
19.7
41.05
281.3
0.244
0.01976
993.9
40.19
56.58
77.79
1207
37.74
0.02085
69.23
110.8
93.94
3.467
40.74
119.5
4.385
109.5
1.871
0.05528
86.85
0.05519
0.1092
0.2246
733.3
11.42
524
93.84
25.12
132
0.03456
273
164.1
0.5044
44.29
13.91
3532
0.03796
0.02596
269
68.87
83.11
59.33
0.467
270.1
0.0681
0.02184
8.915
411.9
0.02762
1.862
12.54
0.02174
1058
0.0664
33.06
38.83
16.45
0.6732
285.6
314.3
2.147
0.08061
0.02225
93.62
26.49
60.41
68.54
0.02153
0.0202
0.02178
52.71
97.16
81.3
0.04409
428.3
43.49
279.1
23.21
350.7
0.345
0.03679
1091
0.02239
180.1
95.37
0.03814
56.1
41.13
70.7
235.8
115.1
72.98
2.899
0.0509
2390
200.1
485.2
0.238
1.25
0.02186
1317
0.02174
116.9
713.5
0.02296
3.665
9.327
213.4
0.06877
63.33
6174
28.83
0.02169
63.19
177.4
78.1
69.92
69.53
129.9
1668
12.41
0.02073
0.02486
6675
10.47
214.4
5.29
24.47
0.02121
0.02193
1.607
3895
674.1
308.1
168.4
0.8462
183.5
691.8
26.63
128.7
0.0219
334.6
6.786
140.1
94.27
82.44
0.02161
368.9
66.99
2107
7452
16.72
7.245
1.068
191
0.02323
22.64
2450
147
161.7
243.8
1196
119.5
100.1
0.2001
438.5
481.8
1132
63.58
0.03061
776.5
721.5
0.02178
204.2
459.9
105.1
294.6
118.8
11.88
71.62
20.83
0.02812
55.24
0.02211
43.01
0.2076
1848
0.247
2911
20.48
263.6
38.91
63.88
135.7
9.242
115.2
1067
37.04
37.77
42.03
4.545
76.56
101.2
20.21
0.02739
11.07
8.826
50.28
77
103.2
638.3
149.1
0.02809
164.1
1265
77.47
49.17
379.8
0.04439
135.9
0.02169
66.69
3.766e+04
1.978e+04
518
85.8
20.31
0.02112
0.04175
93.99
47.78
66.96
3.028
0.02223
56.16
220.5
5.412
86.18
0.02182
453.5
164.8
3315
5.77
14.35
41.84
247.4
0.03436
413.7
5681
0.9505
8.526
0.3908
185.4
3394
3.926
55.37
4.604
129.6
0.02743
75.03
0.01989
941.1
71.34
14.74
159.8
3.327
290.1
64.22
1.815
0.07862
0.02199
0.02169
20.09
66.68
47.38
29
29.36
31.72
2885
1.333
64.92
0.3327
0.02208
472
0.02231
60.94
372.8
3.395
71.59
37.7
2748
215
66.08
144.8
26.79
140.7
0.1742
989.1
0.02178
3641
875.2
34.6
56
0.02224
84.6
134.4
146
1.139
101.3
770
1031
0.02176
50.88
0.02194
0.02178
653.3
0.02915
63.83
7.534
1407
99.7
141.9
37.41
117.8
1.4
71.7
1.643
3.935
8.101
0.02523
57.67
0.07337
1376
53.39
28.42
0.3812
13.64
178.6
913.2
167.9
36.28
7.434
0.3997
133.1
56.06
313.4
98.66
0.5909
65.82
81.03
32.65
56.69
4.536
57.56
6.536
159.9
3251
33.81
0.1978
0.03871
597.5
29.79
0.0218
356.2
0.4308
1253
181.5
0.01966
104.9
215.2
212.1
373
340.3
33.97
145
0.03851
534.5
256.9
55
147.2
31.41
89.82
0.02231
0.02398
0.02224
211.3
0.2596
0.02197
0.1101
2.108e+04
0.02194
154.4
433.7
1.013
268.6
196.6
154.6
650.9
24.36
86.56
88.8
2.635e+04
0.02174
231.4
10.8
39.38
1.932
5.031
3.001
1.46
1201
0.04424
0.02914
1.223
1128
1216
280.3
479.8
0.04839
3852
0.02172
187.9
241.5
59.88
0.0218
0.7029
36.18
279.4
193.5
246.7
2.548
522.3
1876
10.02
34.4
0.0278
4.121
5.822
0.4797
1.076
9.346
185.9
21.6
0.3253
132.8