/*--------------------------------*- C++ -*----------------------------------*\
  =========                 |
  \\      /  F ield         | OpenFOAM: The Open Source CFD Toolbox
   \\    /   O peration     | Website:  https://openfoam.org
    \\  /    A nd           | Version:  8
     \\/     M anipulation  |
\*---------------------------------------------------------------------------*/
FoamFile
{
    version     2.0;
    format      ascii;
    class       volVectorField;
    location    "40";
    object      U;
}
// * * * * * * * * * * * * * * * * * * * * * * * * * * * * * * * * * * * * * //

dimensions      [0 1 -1 0 0 0 0];

internalField   nonuniform List<vector> 
127143
(
(0.005634 -0.0002493 0)
(-0.0001588 -0.0007309 9.931e-24)
(0.0001319 0.000649 -1.794e-23)
(0.0002097 0.001019 3.426e-26)
(0.1039 0.01951 -9.064e-21)
(0.000204 0.001051 -8.606e-26)
(0.3194 0.1899 0)
(0.1612 0.0735 -8.627e-21)
(0.1179 0.05545 4.075e-20)
(0.09683 0.002085 0)
(0.4285 0.6069 1.386e-20)
(0.2221 0.1439 2.787e-20)
(0.004564 -0.001732 4.35e-24)
(0.0003074 0.001171 0)
(-0.346 0.6115 3.626e-21)
(0.1257 -0.01002 0)
(-7.479e-05 -0.0001944 3.111e-23)
(0.9636 -0.109 -3.945e-21)
(0.9699 -0.2258 0)
(0.1228 -0.004627 0)
(1.259 -0.2817 1.23e-20)
(0.02887 -0.01169 0)
(0.8581 -0.0936 0)
(0.8902 -0.0853 0)
(0.02843 -0.01202 2.877e-22)
(0.6835 -0.1109 0)
(0.5665 -0.01357 2.405e-20)
(0.5575 0.006907 -3.815e-22)
(0.3668 -0.1643 0)
(0.9737 -0.08475 5.723e-21)
(0.7792 -0.05246 0)
(0.6612 -0.1062 2.168e-21)
(0.5153 0.1292 1.009e-20)
(0.3183 -0.07765 -1.13e-20)
(0.784 0.0441 4.685e-20)
(0.4528 0.1189 -4.149e-23)
(0.06997 -0.01852 2.603e-21)
(1.358 -0.2018 -9.414e-21)
(0.9301 -0.08776 4.445e-22)
(0.4801 -0.02903 1.214e-24)
(0.9678 -0.2244 0)
(1.611 0.6666 -2.749e-20)
(1.566 0.6596 2.2e-20)
(0.009532 -0.003167 0)
(0.9641 -0.1066 3.641e-21)
(0.3249 -0.07842 3.69e-21)
(0.3784 -0.1724 0)
(0.3309 -0.07648 -7.672e-22)
(0.8858 -0.1514 -7.938e-22)
(0.9127 -0.07671 2.225e-22)
(0.1456 -0.01016 1.199e-22)
(0.9203 0.003494 1.313e-19)
(1.52 -0.1666 0)
(1.407 -0.03871 -1.871e-20)
(0.9988 -0.002424 5.873e-20)
(0.7802 -0.1966 1.34e-21)
(0.9988 -0.002415 -5.279e-20)
(0.9617 -0.08109 0)
(1.014 -0.01747 -2.723e-20)
(1.409 -0.03423 -3.703e-20)
(0.3167 0.2901 -7.584e-20)
(1.048 -0.2384 -1.264e-21)
(0.977 -0.07598 -9.891e-22)
(1.001 0.0006287 1.823e-19)
(1.035 -0.09186 0)
(0.6913 -0.137 -2.561e-20)
(1.266 0.1025 8.572e-20)
(0.9752 -0.07819 0)
(0.9756 -0.07807 -2.674e-22)
(0.9993 7.642e-05 0)
(0.8527 -0.07032 0)
(0.5959 0.001517 -1.139e-20)
(0.7061 -0.1599 3.399e-21)
(1.014 -0.01731 -1.477e-20)
(1.007 0.00379 -7.268e-23)
(0.5951 0.01215 1.204e-20)
(1.046 0.04823 -1.124e-19)
(0.3245 -0.09426 0)
(0.7888 -0.1996 -2.634e-21)
(1.001 0.001361 0)
(0.3937 -0.1728 -4.183e-24)
(0.1436 -0.008531 -3.742e-23)
(0.4596 -0.1058 4.341e-21)
(0.5591 -0.03912 0)
(0.2629 -0.0633 -7.651e-22)
(0.3422 -0.08935 0)
(0.9487 -0.0956 1.055e-21)
(0.6259 0.03979 6.935e-21)
(0.6916 -0.1339 0)
(2.05 1.153 0)
(0.9754 -0.0202 0)
(1.204 -0.1924 0)
(2.002 1.128 0)
(1.262 -0.2813 -1.235e-20)
(1.174 -0.2243 0)
(0.9761 -0.06796 -1.563e-20)
(1.607 0.6507 5.96e-20)
(0.7098 -0.05595 0)
(0.7639 -0.1986 2.493e-21)
(1.264 0.1092 0)
(1.001 0.001315 0)
(0.8872 -0.1517 0)
(1.873 1.707 -4.526e-21)
(0.9452 -0.104 0)
(0.359 -0.09358 -8.666e-22)
(0.7353 -0.1924 3.445e-21)
(0.9011 -0.1359 4.313e-21)
(0.999 9.566e-05 0)
(0.458 -0.09322 0)
(1.001 -0.00182 8.403e-20)
(-0.3401 0.5968 -1.218e-21)
(0.6493 0.04462 1.388e-20)
(1.261 -0.2636 -9.299e-21)
(0.2823 1.331 0)
(1 0.02269 1.549e-22)
(0.8956 -0.1326 1.165e-21)
(1.021 0.07297 1.768e-20)
(1.007 0.004022 -1.038e-19)
(1.045 0.04676 8.97e-20)
(0.0006692 0.004901 0)
(1.001 -0.001937 -1.176e-19)
(0.4231 -0.1086 -1.317e-21)
(0.593 -0.1905 0)
(0.9491 -0.08319 -9.745e-21)
(0.3943 -0.1745 1.428e-21)
(0.5902 -0.08213 3.593e-21)
(1.085 -0.2693 0)
(1.052 -0.01102 1.664e-19)
(1.627 -0.1262 -2.487e-21)
(0.7311 -0.2073 -2.512e-21)
(0.4679 -0.1332 0)
(0.9478 -0.2086 -4.598e-21)
(0.965 -0.0878 3.54e-21)
(0.3289 -0.09465 0)
(-0.0001171 -0.0002401 1.68e-22)
(0.4844 -0.1361 -1.533e-21)
(1.055 -0.08105 0)
(1.29 -0.2764 4.335e-21)
(0.2299 -0.1221 -1.854e-20)
(1.104 -0.07761 9.883e-21)
(0.8164 -0.1087 4.711e-20)
(1.005 0.05919 -2.069e-20)
(1.451 -0.1982 8.133e-22)
(1.328 -0.2457 -1.005e-20)
(1.518 -0.1662 -3.805e-21)
(1.945 0.5784 1.466e-20)
(-0.3174 1.563 -2.669e-21)
(1.001 0.0005485 -1.654e-19)
(0.9267 -0.2018 3.7e-21)
(2.022 1.679 -1.975e-21)
(0.9502 -0.09881 2.129e-21)
(0.8646 -0.1648 0)
(1.366 -0.1904 3.133e-20)
(0.7055 -0.005905 0)
(-0.07483 0.2131 0)
(0.2725 -0.067 0)
(0.962 -0.0807 2.358e-21)
(0.6315 -0.216 0)
(0.3384 -0.07985 -1.559e-21)
(0.6921 -0.06032 -2.956e-22)
(0.8487 -0.06006 0)
(0.1848 -0.0902 3.147e-20)
(0.9761 -0.0209 2.491e-21)
(0.4685 -0.1302 -3.552e-21)
(0.6897 -0.1802 0)
(1.114 -0.1031 8.401e-21)
(0.07115 -0.006116 -1.355e-21)
(0.456 -0.03369 4.491e-20)
(2.115 0.4773 -5.647e-21)
(0.967 0.1295 -2.756e-21)
(0.1504 -0.05851 0)
(1.327 -0.2463 4.95e-21)
(0.8843 -0.14 3.684e-21)
(0.7266 -0.1877 -1.069e-20)
(0.9958 -0.00285 1.47e-20)
(0.0763 0.03199 -1.451e-23)
(1.928 0.7193 -2.974e-21)
(1.625 -0.1273 -2.486e-21)
(0.9186 -0.09327 0)
(1.01 -0.03014 1.145e-20)
(0.7253 -0.1878 -3.599e-21)
(0.9728 -0.04088 0)
(0.06478 -0.003479 -1.182e-22)
(0.07681 0.03099 1.393e-23)
(0.7311 -0.2087 5.064e-21)
(1.05 -0.2379 2.808e-21)
(1.35 0.4175 -3.173e-20)
(0.3142 1.349 4.324e-21)
(0.8996 -0.08706 9.137e-22)
(1.027 -0.04103 5.048e-20)
(1.529 -0.1859 2.528e-21)
(1.533 -0.1809 -1e-20)
(1.055 -0.08036 5.354e-20)
(0.6885 1.863 6.884e-21)
(-0.0001332 -0.0003403 -2.804e-22)
(1.161 -0.2804 0)
(1.006 3.046e-06 0)
(0.9945 2.431e-06 1.078e-21)
(0.03663 0.0008022 0)
(0.9967 0.03446 1.386e-21)
(1.022 0.006695 7.66e-20)
(0.9147 0.08645 1.197e-19)
(0.9944 -0.05161 -3.654e-21)
(0.0817 -0.02198 -1.296e-21)
(0.0004521 0.002075 -3.692e-24)
(0.969 -0.06938 -8.551e-22)
(0.9012 -0.06491 1.902e-20)
(0.8861 -0.1452 -1.156e-21)
(0.9772 -0.08508 -3.044e-21)
(1 0.02212 1.302e-22)
(1.093 -0.1549 1.322e-20)
(0.1773 -0.02212 -4.301e-22)
(0.9776 -0.0002869 3.4e-20)
(2.136 0.4874 -5.7e-21)
(0.3745 -0.1036 -2.177e-23)
(0.07493 -0.003923 0)
(0.1107 -0.03785 3.742e-22)
(0.865 -0.1554 5.74e-21)
(0.9916 -0.2341 -7e-21)
(0.9031 -0.06468 4.615e-21)
(1.909 0.7142 -6.851e-21)
(1.004 0.009326 6.168e-20)
(0.8654 -0.1649 -9.15e-22)
(1.518 -0.1582 3.768e-21)
(0.6556 -0.05658 0)
(0.1602 -0.05517 0)
(0.7313 -0.1906 -2.972e-21)
(1.359 -0.1995 1.122e-20)
(0.08442 -0.04196 8.293e-23)
(0.9502 -0.2467 4.853e-21)
(1.265 -0.2795 7.053e-21)
(0.9716 -0.04042 3.871e-20)
(0.7549 -0.1698 -6.785e-21)
(0.01013 -0.02347 0)
(1.266 -0.2803 0)
(0.9418 -0.07418 -1.272e-20)
(0.4693 -0.1294 1.756e-21)
(0.01541 -0.002459 -1.66e-22)
(1.022 0.006365 -7.024e-20)
(1.506 -0.1917 1.139e-20)
(1.544 -0.1813 7.315e-21)
(1.366 -0.08685 -1.052e-20)
(0.09981 -0.05964 -3.074e-23)
(0.6355 -0.2163 -9.528e-24)
(1.478 -0.1508 0)
(0.0006852 0.004876 1.373e-27)
(0.8517 -0.1638 5.276e-21)
(0.553 -0.002062 0)
(-0.03129 0.01344 1.811e-21)
(1.003 -0.0002259 -2.436e-21)
(1.793 0.417 -5.027e-20)
(0.6531 -0.07218 -1.703e-21)
(0.8135 -0.1742 0)
(1.332 -0.2639 0)
(0.8094 -0.192 3.702e-21)
(0.4803 -0.1078 0)
(1.05 -0.01144 -1.308e-19)
(2.193 0.6448 0)
(0.7786 -0.1738 0)
(1.022 0.4432 -1.052e-20)
(1.197 -0.2808 -6.464e-21)
(0.9569 -0.03203 -3.539e-20)
(1.205 -0.1892 7.049e-22)
(1.003 0.05854 1.249e-20)
(1.548 -0.1219 0)
(1.263 -0.09126 -3.569e-21)
(0.1723 -0.05844 3.133e-21)
(-0.1186 0.2285 0)
(0.3163 0.1008 8.69e-20)
(1.501 -0.09193 -1.495e-20)
(0.7628 -0.1423 0)
(0.9946 -0.002933 -1.749e-20)
(0.4073 -0.1082 -1.335e-21)
(1.506 -0.1924 -1.051e-20)
(0.9756 -0.07311 -1.756e-21)
(1.526 -0.185 -1.026e-20)
(1.267 -0.2654 0)
(0.9054 -0.1398 -4.704e-21)
(0.9899 -0.006292 -8.409e-22)
(0.7064 -0.1771 1.057e-20)
(0.9986 -0.001132 3.289e-21)
(0.9749 -0.06743 -2.184e-22)
(0.9456 -0.1037 7.598e-24)
(0.991 0.01246 0)
(1.011 0.01727 3.732e-20)
(-0.0003741 -0.000601 4.042e-23)
(0.6208 -0.1649 0)
(1.001 0.02406 -2.376e-21)
(0.9196 -0.1266 -2.519e-21)
(1.009 -0.03024 1.731e-20)
(1.363 -0.1902 -4.768e-20)
(0.8342 -0.1263 0)
(0.9408 -0.07427 1.291e-20)
(0.8624 -0.1499 0)
(0.976 -0.01002 -3.136e-20)
(0.4313 -0.1043 -1.564e-21)
(0.807 -0.06768 -6.109e-22)
(0.02265 -0.01928 8.472e-23)
(0.09958 -0.05978 1.369e-22)
(1.498 -0.09042 1.008e-20)
(0.7749 -0.08975 5.742e-22)
(0.7565 -0.1412 -4.708e-21)
(0.5959 -0.08489 -2.991e-20)
(0.8952 -0.1321 -1.13e-20)
(0.6241 -0.04608 0)
(0.1588 0.0004562 1.33e-23)
(0.8865 -0.1449 -3.831e-22)
(0.9769 -5.417e-05 0)
(1.112 -0.2463 3.292e-23)
(0.9512 -0.09811 2.321e-21)
(0.9061 -0.1338 4.677e-21)
(0.03087 -0.02486 2.247e-23)
(0.7984 -0.1913 0)
(0.9985 -0.001167 2.321e-21)
(0.9867 0.01701 -3.261e-20)
(2.053 0.7608 2.893e-21)
(1.375 -0.2034 4.746e-21)
(0.7592 -0.08369 -1.172e-21)
(1.231 -0.1533 3.484e-20)
(0.9934 -0.02477 2.055e-21)
(0.8576 -0.09202 0)
(0.8166 -0.06068 7.544e-22)
(1.086 -0.02335 3.449e-20)
(0.8142 -0.1742 2.917e-21)
(2.056 0.7593 0)
(1.434 -0.1817 -1.118e-20)
(0.8533 0.05291 8.232e-20)
(0.0324 -0.01458 -5.795e-24)
(0.8138 -0.04801 -2.46e-22)
(1.888 0.8495 2.205e-20)
(0.9606 -0.223 0)
(1.012 0.01693 -3.249e-20)
(0.7898 0.03853 -1.705e-19)
(1.006 1.387e-05 0)
(0.9943 1.121e-05 0)
(0.7081 -0.00133 0)
(0.4729 -0.1013 -1.009e-20)
(0.8835 -0.1399 3.727e-21)
(0.9571 -0.221 -1.049e-21)
(0.6271 -0.1614 -1.47e-20)
(1.1 -0.07607 -4.365e-20)
(0.8655 -0.1553 0)
(1.502 -0.168 3.241e-21)
(1.523 -0.1836 2.884e-21)
(-0.03586 0.7391 -7.383e-22)
(0.9189 -0.1256 1.678e-21)
(0.5904 -0.1347 -3.688e-21)
(1.319 -0.2468 3.68e-21)
(0.8093 -0.098 1.022e-21)
(1.675 -0.09885 0)
(0.8189 -0.09421 -7.665e-22)
(1.031 -0.2267 4.422e-21)
(0.09469 -0.02846 3.433e-22)
(1.525 -0.1841 9.26e-21)
(0.9438 0.1515 0)
(0.5958 -0.1388 -8.508e-21)
(1.331 -0.2647 -5.578e-21)
(1.92 0.5101 -1.254e-20)
(1.004 -0.01315 1.367e-20)
(0.8018 -0.04725 0)
(0.5157 -0.1499 -2.618e-21)
(0.9765 -0.07587 -3.029e-22)
(1.007 -0.1682 -1.058e-20)
(0.9112 -0.06948 0)
(0.9174 -0.0802 6.706e-22)
(1.004 0.003887 9.5e-22)
(0.9968 0.03362 -4.805e-21)
(0.9728 -0.0146 0)
(0.6397 -0.1171 3.164e-21)
(0.9902 -0.006186 0)
(0.1462 0.3842 7.666e-20)
(1.085 -0.02571 -6.972e-20)
(0.7082 -0.08002 1.482e-21)
(0.9036 -0.07033 -7.082e-22)
(1.028 -0.0399 0)
(1.205 -0.1006 -6.946e-22)
(0.8492 -0.08417 -6.881e-22)
(0.07882 -0.0664 -4.066e-25)
(0.7471 -0.2072 -6.571e-21)
(0.9917 -0.00724 2.366e-22)
(1.098 -0.2157 -4.741e-20)
(0.6317 -0.0823 -3.479e-21)
(0.835 -0.104 0)
(0.7531 -0.1427 -1.766e-20)
(1.021 0.07047 0)
(0.2597 -0.02088 0)
(1.093 0.2576 0)
(0.4999 -0.03163 0)
(1.164 -0.2816 -1.847e-21)
(1.232 -0.2348 -4.213e-20)
(1.016 -0.01467 -7.861e-20)
(0.572 -0.03306 0)
(0.1446 -0.0599 -2.629e-22)
(0.7945 -0.1972 3.975e-21)
(0.8968 -0.08386 -1.312e-21)
(0.7896 -0.05799 -5.718e-22)
(0.577 -0.03876 -2.402e-20)
(0.803 -0.05366 0)
(0.9388 0.1501 0)
(0.9566 -0.03091 0)
(0.5577 -0.04421 2.333e-22)
(1.004 0.008884 -2.308e-20)
(1.315 -0.273 0)
(0.06715 -0.003847 0)
(1.104 0.2559 0)
(0.9386 -0.1088 -2.124e-21)
(0.4067 -0.1059 -4.165e-21)
(0.9604 -0.09179 -2.754e-21)
(0.9999 0.001466 -3.032e-20)
(0.9302 -0.09518 0)
(0.443 -0.1418 0)
(0.8105 -0.1148 2.601e-21)
(0.8184 -0.108 -5.041e-20)
(0.449 -0.09203 0)
(0.592 -0.1874 0)
(1.198 -0.2276 -4.223e-21)
(0.9104 -0.2355 -6.086e-21)
(0.7356 -0.1404 0)
(1.431 -0.1575 8.924e-21)
(0.5319 -0.1959 -4.875e-21)
(0.07666 -0.008083 0)
(-0.08643 0.02991 -5.063e-21)
(0.3663 -0.1037 0)
(1.003 -0.0001633 8.831e-22)
(0.9324 -0.2404 -5.192e-21)
(1.145 0.4609 2.239e-20)
(1.545 0.6425 9.466e-22)
(0.7886 -0.07968 -3.086e-20)
(1.424 -0.1061 1.318e-20)
(0.877 -0.07218 -1.619e-20)
(1.005 -0.0005041 0)
(0.3507 -0.09815 0)
(0.09989 -0.03278 0)
(1.077 -0.1714 7.894e-20)
(1.638 -0.02497 1.567e-21)
(1.004 0.00375 -2.86e-20)
(0.9099 -0.1307 -4.766e-21)
(0.7076 -0.1557 -7.913e-21)
(0.9224 0.003826 -4.856e-20)
(0.9759 -0.009155 0)
(0.9925 0.001198 -9.808e-21)
(0.9238 -0.07823 -3.197e-22)
(1.052 -0.08415 -1.754e-20)
(0.4699 -0.1092 1.986e-20)
(0.9783 0.09206 0)
(0.7272 -0.05678 3.253e-23)
(0.9821 0.01904 7.977e-20)
(0.04139 0.05139 0)
(0.973 -0.01499 5.097e-22)
(0.1796 -0.02154 -4.335e-22)
(1.141 -0.2775 0)
(0.8685 -0.1078 -1.015e-23)
(0.9395 -0.1082 6.155e-21)
(0.6595 -0.1139 1.976e-20)
(0.8953 0.253 -2e-21)
(0.08434 -0.03274 -4.648e-22)
(0.7742 -0.09279 5.536e-22)
(1.593 -0.08356 0)
(0.1343 -0.0331 0)
(1.419 -0.1514 7.566e-21)
(0.9646 -0.0876 -1.122e-21)
(1.576 -0.1249 6.605e-21)
(1.219 -0.2522 0)
(0.3582 1.239 1.114e-20)
(1.579 -0.1259 -8.783e-24)
(1 -0.002444 0)
(1.026 0.03773 0)
(1.409 -0.2408 0)
(0.4417 -0.1136 3.944e-21)
(0.9947 -0.0003271 0)
(0.9246 -0.2394 2.923e-21)
(1.241 -0.1793 2.349e-20)
(0.9495 -0.08253 1.456e-20)
(1.373 -0.2025 -1.638e-21)
(0.912 -0.05685 2.478e-20)
(1.005 -0.0002562 0)
(-0.1391 0.3426 -2.494e-20)
(1.241 -0.1768 -2.752e-20)
(-0.01153 7.036e-06 -5.402e-22)
(1.487 -0.1621 7.776e-22)
(0.2488 -0.1307 1.376e-21)
(0.02208 0.0757 -1.947e-20)
(1.182 -0.1664 2.465e-21)
(0.796 -0.1913 0)
(0.447 -0.1328 0)
(1.635 -0.02509 -1.68e-21)
(1.472 -0.1631 -6.807e-22)
(1.017 -0.001112 7.659e-20)
(0.7345 -0.06482 4.59e-22)
(0.9681 0.0496 4.451e-20)
(2.021 0.7653 9.353e-22)
(0.9532 -0.09597 -9.415e-22)
(1.535 -0.1627 0)
(1.944 0.5463 6.624e-21)
(0.0005879 0.003143 0)
(0.3862 -0.1185 3.9e-21)
(0.191 0.9907 -2.963e-22)
(0.9552 -0.06509 6.261e-24)
(1.608 1.168 2.823e-20)
(0.9815 0.004004 -1.601e-19)
(0.2542 -0.134 0)
(1.027 0.0373 1.34e-22)
(0.09053 -0.05583 0)
(1.162 -0.2792 -8.114e-21)
(-9.522e-05 -0.0003701 0)
(-0.002879 -0.008381 -2.174e-22)
(0.0318 -0.01083 7.45e-23)
(0.9991 -0.0002117 -6.734e-20)
(0.6061 -0.1432 0)
(1.768 0.06651 0)
(0.9873 0.01687 6.074e-20)
(0.7412 -0.1832 3.488e-21)
(0.5922 -0.1928 1.82e-20)
(0.285 -0.09123 2.638e-21)
(0.9195 -0.1234 0)
(1.129 -0.2741 0)
(0.8626 -0.1058 8.636e-22)
(0.9298 -0.2436 -2.925e-21)
(0.3371 -0.06184 1.675e-21)
(1.001 -0.002322 0)
(0.1464 -0.02193 3.596e-22)
(0.02072 -0.007653 0)
(0.5179 -0.1961 3.306e-21)
(0.7705 -0.07597 -2.459e-22)
(0.1535 -0.05893 -3.104e-22)
(1.015 -0.01659 -2.427e-20)
(0.9506 -0.0986 2.322e-21)
(0.9964 -0.05132 -1.687e-21)
(1.218 -0.2509 1.427e-20)
(0.9948 -0.01524 0)
(0.6908 -0.05503 0)
(2.106 0.9582 0)
(0.09561 -0.04283 1.57e-23)
(0.993 7.029e-05 0)
(1.408 -0.2414 -4.419e-21)
(0.929 -0.08339 1.303e-20)
(0.1065 -0.04026 -1.052e-24)
(0.4056 -0.1218 8.39e-21)
(1.98 0.5738 1.769e-21)
(1.165 -0.251 -4.036e-21)
(0.9575 0.04281 3.507e-21)
(-0.01199 0.001839 -6.568e-22)
(0.5615 -0.1689 -1.045e-20)
(0.9946 -0.000328 8.59e-21)
(0.755 -0.1429 2.352e-20)
(1.419 -0.16 -4.319e-20)
(0.833 -0.07295 4.767e-22)
(0.9171 -0.06903 -3.437e-22)
(0.4147 -0.106 -4.17e-21)
(0.1352 -0.04606 5.994e-22)
(1.163 -0.2808 4.151e-21)
(1.559 -0.06946 0)
(0.5503 -0.1967 4.661e-21)
(0.2149 -0.0577 0)
(0.3648 -0.1006 9.935e-23)
(1.026 -0.01159 -1.177e-20)
(0.5349 -0.03286 -6.991e-23)
(0.6649 -0.1789 -3.333e-21)
(0.8051 -0.1205 -2.713e-21)
(0.9503 -0.1007 3.305e-21)
(0.1209 -0.0627 5.771e-22)
(1 0.002849 0)
(1 0.003783 3.375e-21)
(1.026 0.4241 1.75e-20)
(0.5749 -0.1326 -1.831e-21)
(1.592 1.237 0)
(0.9859 0.01986 -4.195e-20)
(1.004 5.462e-05 -7.658e-22)
(0.5783 -0.1619 0)
(0.4619 -0.1896 0)
(0.3647 -0.08908 1.285e-21)
(0.445 -0.1328 0)
(-0.05651 0.02371 4.501e-21)
(0.01966 -0.008367 0)
(0.8207 -0.1589 -4.088e-21)
(1.039 0.04346 0)
(0.9975 -0.0009441 1.449e-20)
(0.04383 -0.023 3.706e-22)
(0.9241 -0.2395 -2.983e-21)
(0.8145 -0.1769 8.264e-21)
(1.002 -0.002591 2.569e-20)
(0.589 0.003773 5.833e-21)
(0.9557 -0.09487 0)
(0.5655 -0.1479 5.286e-21)
(0.992 -0.006792 3.236e-21)
(0.7061 -0.08969 -1.626e-22)
(0.9854 0.01957 7.812e-20)
(0.4368 -0.1141 -8.391e-22)
(0.06778 -0.01854 0)
(1.197 -0.2406 5.737e-22)
(0.9965 5.269e-05 4.321e-22)
(0.1431 -0.04594 -2.544e-21)
(1.198 -0.2805 -1.653e-21)
(0.2416 -0.1277 -2.184e-20)
(1.005 -0.0002302 -3.343e-21)
(0.9006 -0.1357 -4.503e-21)
(0.1124 -0.03746 -1.835e-22)
(0.9925 0.0009437 0)
(0.9385 -0.1089 0)
(0.9949 0.02552 -5.421e-22)
(0.955 -0.07212 -5.823e-22)
(1.455 -0.1756 0)
(0.9909 0.01199 4.087e-20)
(0.4693 -0.1136 1.018e-20)
(0.8846 -0.1185 -1.089e-21)
(0.02514 -0.02359 0)
(1.456 -0.2146 -1.098e-20)
(1.442 -0.1952 -1.321e-21)
(0.8299 -0.09631 2.309e-21)
(0.841 -0.1051 9.046e-22)
(-0.1369 0.5196 -1.228e-20)
(0.9367 -0.08941 3.722e-22)
(1.99 1.123 3.158e-21)
(0.9174 -0.05835 3.044e-22)
(0.1029 -0.0525 1.567e-22)
(1.549 -0.1356 -2.267e-21)
(0.7058 -0.06623 -2.36e-22)
(1.002 -0.002521 0)
(0.8309 -0.1734 -2.309e-21)
(0.9891 0.01462 -1.718e-20)
(-0.01304 0.7558 -6.59e-21)
(1.064 0.005834 7.633e-20)
(1.447 -0.1975 1.243e-20)
(1.005 -0.0006004 0)
(1.001 0.02394 -5.157e-22)
(0.9634 -0.08069 -1.051e-20)
(0.5304 -0.1951 2.441e-21)
(1.202 -0.27 4.572e-21)
(1.003 -0.001283 2.138e-20)
(1 -0.003238 -3.264e-20)
(0.08629 -0.04326 -7.992e-23)
(0.9863 0.1222 0)
(0.5202 -0.1182 4.592e-21)
(0.7528 -0.06651 6.351e-22)
(0.5787 -0.1805 0)
(0.47 -0.1079 -1.587e-20)
(1.13 -0.2755 -7.069e-22)
(0.4423 -0.1431 0)
(1.521 -0.1833 -2.522e-22)
(0.2941 -0.08112 -1.276e-20)
(1.04 -0.07294 0)
(1.003 -0.001357 -3.754e-21)
(1.726 -0.06945 1.013e-20)
(1.511 -0.187 1.127e-21)
(0.8929 -0.1254 3.129e-21)
(1.375 -0.1574 0)
(0.9801 -0.02166 -1.056e-19)
(1.004 5.229e-05 8.135e-23)
(1.433 -0.1805 -1.075e-20)
(0.234 -0.1223 -5.319e-24)
(1.471 -0.1634 3.405e-21)
(0.05046 -0.01756 -5.11e-22)
(1.064 0.00754 0)
(1.004 9.35e-05 3.365e-22)
(0.3079 -0.08775 0)
(1.506 -0.1294 0)
(0.9187 0.08442 -9.562e-20)
(0.9409 -0.1167 -4.755e-21)
(0.8951 -0.1015 0)
(0.9885 -0.04516 -4.341e-20)
(0.218 -0.07013 4.174e-21)
(0.801 -0.1699 -2.539e-21)
(1.509 -0.1864 6.983e-21)
(0.6853 -0.03393 -9.045e-20)
(0.009502 -0.003073 0)
(0.1648 -0.05681 0)
(0.1406 -0.03423 -4.567e-22)
(0.08258 -0.03348 8.184e-22)
(0.6257 -0.1645 0)
(1.389 -0.2003 6.414e-21)
(0.7428 -0.09609 3.716e-22)
(1.073 -0.1623 0)
(0.9232 0.01829 -2.263e-20)
(1.6 -0.1423 1.21e-20)
(0.03788 -0.004459 0)
(1.315 -0.2728 -6.777e-21)
(0.9995 -0.002405 7.54e-20)
(0.9049 -0.1394 3.451e-21)
(0.6718 -0.1183 0)
(0.4275 0.381 -3.638e-20)
(0.993 4.056e-05 -5.217e-23)
(0.9995 -0.002477 -1.005e-19)
(-0.00598 -0.0088 0)
(0.9555 -0.06491 3.929e-21)
(0.86 -0.1575 -3.448e-21)
(1.497 -0.1902 -6.989e-22)
(0.2294 -0.07443 0)
(1.114 -0.2467 1.669e-20)
(1.529 0.01208 0)
(0.6963 -0.05958 -2.639e-22)
(0.5936 0.2669 6.897e-20)
(0.7734 -0.2003 0)
(1.016 -0.001249 -2.752e-20)
(1.003 -0.001458 0)
(1.825 0.4682 0)
(1.16 0.4582 0)
(0.6898 -0.1268 7.187e-22)
(0.4297 0.3556 0)
(0.5095 -0.2056 7.422e-21)
(0.6965 -0.2074 0)
(0.509 -0.1961 -8.763e-21)
(1.093 -0.1519 8.572e-20)
(1.01 -0.1671 1.521e-20)
(0.9972 7.799e-05 -3.294e-24)
(0.7267 -0.05196 1.569e-22)
(0.9137 -0.05739 3.453e-21)
(0.8288 -0.1875 -2.283e-21)
(-0.0002943 -0.0007874 -3.928e-23)
(0.9052 -0.1335 -1.477e-21)
(1.547 -0.1202 -1.426e-20)
(0.7778 -0.2173 7.15e-21)
(0.9967 6.431e-05 -4.103e-22)
(0.9513 -0.1015 -5.803e-23)
(0.9135 -0.08288 8.156e-22)
(-0.08336 0.02816 0)
(0.9753 -0.1867 4.542e-22)
(1.26 -0.2572 1.127e-20)
(1.521 -0.1834 -3.781e-21)
(2.001 1.658 0)
(0.8993 -0.232 6.065e-21)
(0.283 -0.1204 1.787e-20)
(1.021 -0.2513 -1.589e-21)
(0.803 -0.1904 1.026e-21)
(0.9529 -0.1017 -1.555e-21)
(0.951 -0.09813 -1.109e-21)
(1.088 -0.2693 6.445e-21)
(0.8616 -0.1263 1.389e-20)
(0.008172 -0.000492 0)
(0.668 -0.1186 0)
(0.9646 0.1244 1.592e-20)
(0.8184 -0.1756 -2.339e-21)
(0.4703 -0.1706 1.443e-20)
(0.953 -0.09897 3.344e-22)
(1.007 -0.003058 0)
(0.05007 -0.00139 7.643e-23)
(1.03 -0.2259 -9.101e-21)
(0.3692 -0.08913 -1.215e-21)
(1.004 8.497e-05 -2.737e-22)
(0.05062 -0.02006 0)
(0.3802 -0.1087 0)
(0.7126 -0.09067 -2.265e-21)
(0.9977 5.768e-05 2.623e-22)
(1.026 -0.1588 6.476e-21)
(0.09029 -0.05351 0)
(0.9358 -0.1719 7.784e-21)
(1.588 -0.1572 -6.138e-21)
(0.9974 4.589e-05 -2.245e-22)
(0.5704 -0.1414 -2.605e-21)
(0.08255 -0.01592 0)
(0.3579 -0.09646 7.265e-21)
(1.342 -0.2622 0)
(0.996 0.03727 -1.148e-21)
(1.503 -0.1676 3.243e-21)
(-0.272 0.83 0)
(1.029 -0.00476 -2.533e-20)
(0.8759 -0.1508 4.301e-21)
(0.834 -0.1481 0)
(1.413 -0.1979 -7.414e-21)
(0.3873 -0.1178 0)
(0.7575 -0.1395 -1.425e-20)
(0.9048 -0.1337 0)
(0.6475 -0.08113 -4.116e-22)
(0.1888 -0.06249 0)
(0.9938 2.679e-05 -4.576e-22)
(0.5581 -0.1373 2.485e-21)
(1.016 -0.2221 6.909e-22)
(0.5272 -0.04213 0)
(0.8317 -0.1198 -1.968e-21)
(1.399 -0.05584 0)
(0.7582 -0.1893 0)
(0.1385 -0.04619 1.411e-22)
(0.9934 5.816e-05 -1.418e-22)
(0.2953 -0.09443 -2.697e-21)
(0.2196 -0.06871 0)
(1.481 -0.1664 0)
(0.01763 -0.03596 3.1e-23)
(1.481 -0.1658 -3.761e-21)
(0.09587 -0.04363 -2.561e-23)
(1.378 -0.2564 -1.519e-21)
(0.1033 -0.05876 0)
(0.811 -0.1631 0)
(0.9992 -0.0002362 3.319e-20)
(0.00347 -0.001407 3.668e-23)
(0.5607 -0.1542 6.305e-21)
(1.467 -0.2166 9.463e-21)
(-0.01341 -0.0004092 6.424e-22)
(0.215 -0.04325 -3.997e-21)
(-0.004582 0.008677 2.653e-21)
(0.2402 -0.07918 -9.67e-22)
(0.8729 -0.07319 0)
(0.9973 -0.0008738 0)
(1.005 -0.2182 0)
(0.9398 -0.1087 -1.119e-23)
(0.9974 5.866e-05 0)
(0.2319 -0.06633 -4.127e-21)
(2.019 0.7618 0)
(0.9056 -0.1336 -3.247e-21)
(0.612 -0.1916 -5.704e-21)
(1.006 -0.0001355 -1.382e-20)
(1.145 -0.2793 0)
(0.07473 0.03178 0)
(1.016 -0.0009234 -8.933e-20)
(1.006 -0.0001514 0)
(1.372 -0.1595 0)
(1.044 -0.2335 4.067e-21)
(0.5805 -0.1815 -3.369e-22)
(-0.01124 0.004605 1.25e-21)
(0.4239 -0.1053 1.899e-21)
(0.1499 -0.008448 -1.514e-23)
(0.9316 -0.1151 0)
(0.5142 0.05539 -6.074e-20)
(0.9998 -0.002525 0)
(0.513 -0.1423 -2.714e-21)
(0.0683 -0.0117 0)
(0.7991 -0.05648 3.158e-22)
(0.6617 -0.05461 0)
(0.4614 -0.03131 -4.452e-20)
(1.003 -0.0007837 0)
(1.015 -0.01604 2.747e-21)
(0.9911 -0.04719 2.223e-20)
(0.6073 0.005884 6.859e-21)
(0.9998 -0.002389 1.322e-20)
(1.079 -0.1427 -3.03e-20)
(0.1571 -0.07976 4.49e-21)
(0.9321 -0.1149 -3.879e-21)
(0.6775 -0.09358 2.469e-21)
(0.9991 -0.002983 0)
(0.124 0.01065 5.024e-22)
(0.9389 -0.1108 2.034e-21)
(1.005 0.01144 0)
(0.8159 -0.0987 -1.005e-21)
(0.9955 -0.0003997 0)
(0.3278 -0.1239 2.247e-20)
(-0.4403 0.7243 -1.043e-21)
(1.333 -0.1731 -1.49e-22)
(1.51 -0.1301 0)
(0.4221 -0.02664 -1.25e-22)
(0.9746 -0.0181 5.276e-21)
(0.3866 -0.101 0)
(0.6715 -0.04168 -2.142e-20)
(0.6973 -0.05927 0)
(0.03636 -0.008267 1.039e-22)
(0.754 -0.09917 -5.896e-22)
(1.517 2.1 -6.847e-21)
(1.402 -0.05092 -1.709e-20)
(0.8638 -0.1368 -6.897e-21)
(0.5308 -0.1161 2.905e-23)
(0.3573 -0.06667 0)
(1.004 0.01471 0)
(1.298 -0.2104 2.424e-20)
(0.6779 -0.213 0)
(2.087 0.3892 5.506e-22)
(0.03821 -0.003544 -3.705e-23)
(0.5692 -0.09328 0)
(1.003 -0.0007423 0)
(1.019 -0.1037 1.376e-20)
(0.04353 -0.02241 -1.895e-22)
(0.6037 -0.1389 -7.483e-21)
(0.3743 -0.01996 3.163e-20)
(1.843 0.1588 0)
(-0.1729 0.201 -2.052e-21)
(1.951 0.23 -2.018e-21)
(0.1812 0.02943 2.3e-20)
(0.8659 -0.2009 -3.071e-21)
(-0.02046 0.004353 1.4e-21)
(1.004 -0.2172 3.488e-21)
(0.3022 -0.02305 -4.747e-22)
(1.036 0.05758 -1.477e-20)
(0.9149 -0.1302 0)
(1.004 9.178e-05 0)
(0.9964 5.928e-05 0)
(1.45 -0.2099 5.725e-21)
(1.087 0.0255 3.863e-21)
(1.557 -0.1834 9.581e-21)
(0.8869 -0.1552 6.315e-21)
(0.2554 1.288 0)
(0.957 -0.09146 8.274e-21)
(1.039 -0.05593 -2.314e-20)
(2.07 0.8081 8.087e-21)
(0.8124 -0.1778 4.099e-21)
(1.015 -0.01443 5.511e-20)
(1.029 -0.2062 -1.838e-22)
(0.1649 -0.02318 -5.839e-22)
(1.039 -0.05386 3.367e-20)
(0.4975 -0.1133 -1.131e-20)
(-0.07305 0.02483 -2.452e-21)
(0.05257 -0.02795 0)
(0.8498 -0.1612 0)
(-0.3343 0.5604 -4.096e-21)
(1.298 -0.2433 0)
(-0.02961 0.009647 0)
(0.9858 0.005076 5.409e-20)
(1.534 -0.1613 5.67e-21)
(0.8285 -0.1882 2.31e-21)
(1.004 -0.01283 0)
(0.4723 -0.116 5.045e-21)
(0.6364 -0.1676 0)
(1.061 -0.2452 -2.713e-21)
(0.9948 -0.000299 4.336e-21)
(0.964 -0.02273 2.787e-21)
(1.05 -0.2041 0)
(0.1031 -0.007471 -4.88e-23)
(0.6246 -0.1691 -1.337e-20)
(-0.07262 0.02382 0)
(1.026 -0.2615 3.411e-21)
(0.4517 -0.1531 0)
(0.8247 -0.1738 -8.263e-22)
(0.08034 -0.02804 0)
(1.54 -0.1039 1.988e-21)
(0.9961 5.225e-05 4.044e-23)
(0.2094 -0.1143 0)
(1.611 0.3592 -3.181e-20)
(1.005 8.442e-05 0)
(0.5075 -0.1323 4.136e-22)
(0.05008 -0.01906 -2.603e-22)
(1.158 -0.2302 -7.382e-21)
(1.907 0.1211 -6.592e-21)
(0.9708 -0.06597 -1.795e-21)
(0.9051 -0.1302 -1.61e-21)
(0.06862 -0.0244 -3.317e-24)
(0.1248 -0.01797 1.798e-22)
(0.8967 -0.09405 0)
(1.038 0.04384 -3.857e-20)
(0.996 0.009953 6.654e-21)
(0.8639 -0.1553 0)
(0.3995 -0.1035 -4.417e-21)
(0.1758 -0.04852 -3.174e-21)
(0.5276 -0.1191 0)
(0.4333 1.614 1.608e-20)
(0.4863 -0.2013 -4.055e-21)
(0.6527 -0.01649 -2.603e-22)
(1.322 0.01273 -4.051e-20)
(0.4915 -0.2016 -4.017e-21)
(1.108 -0.08496 4.944e-20)
(0.6944 -0.04766 0)
(1.008 -0.001729 0)
(0.3624 -0.06971 3.306e-22)
(0.02533 -0.0276 9.21e-24)
(1.375 -0.2429 -1.379e-20)
(0.4591 -0.123 0)
(0.901 -0.2353 0)
(0.9916 0.008856 -3.149e-20)
(0.9686 0.02193 2.491e-20)
(-0.0251 0.006512 0)
(0.7892 -0.1156 3.304e-20)
(0.03117 -0.02032 0)
(0.9103 -0.1176 0)
(-0.02669 0.003663 -1.596e-21)
(0.3753 -0.1242 -1.844e-21)
(1.466 -0.1586 -3.068e-21)
(1.744 0.01168 -1.795e-21)
(1.59 -0.1236 -1.036e-20)
(0.3359 -0.05097 1.341e-21)
(1.5 -0.1789 -8.039e-21)
(0.7588 -0.05647 -2.791e-22)
(0.2409 -0.06927 5.254e-21)
(0.937 -0.1103 4.813e-21)
(0.6039 -0.1458 5.924e-21)
(0.7145 1.852 -7.882e-21)
(0.01391 0.006471 -7.658e-23)
(0.02861 -0.03561 -6.904e-23)
(0.0442 -0.0164 0)
(0.8689 -0.2296 0)
(1.007 -0.002931 0)
(1.005 -0.005339 4.52e-20)
(0.6838 -0.1691 2.155e-21)
(0.1142 -0.05131 0)
(0.8918 -0.1284 -2.004e-20)
(1.006 3.296e-05 0)
(0.3975 -0.1279 -1.48e-20)
(1.129 -0.276 3.518e-21)
(0.9661 -0.07771 7.57e-21)
(-0.02755 0.01359 0)
(1.438 -0.1733 -1.913e-20)
(0.202 -0.0508 -4.465e-21)
(1.696 0.9099 -3.923e-20)
(0.9999 0.001449 -2.583e-20)
(0.8672 -0.1252 0)
(0.9671 -0.0659 4.066e-21)
(0.4684 -0.1827 0)
(0.6234 -0.04723 0)
(0.1023 -0.05644 -4.779e-23)
(0.5194 -0.02224 3.412e-20)
(1.276 -0.2151 4.667e-20)
(0.7044 -0.1266 0)
(0.8897 -0.0832 2.526e-22)
(0.9701 -0.08023 0)
(0.8677 -0.2357 0)
(0.4079 -0.1433 1.624e-20)
(0.9443 -0.1084 -1.508e-21)
(0.06386 -0.006874 0)
(0.4556 -0.1963 -5.282e-21)
(1.008 -0.01727 -2.07e-21)
(0.00999 -0.004751 0)
(0.08925 -0.03224 0)
(1.025 -0.225 0)
(1.487 -0.2109 1.294e-20)
(-0.3534 0.6203 -4.598e-21)
(1.012 0.02494 -5.544e-21)
(0.1034 -0.02381 7.655e-21)
(0.3307 -0.0645 0)
(0.9971 -0.000343 0)
(0.997 -0.0001007 -2.931e-20)
(1.547 -0.163 2.2e-24)
(1.231 -0.2751 1.343e-20)
(0.03476 -0.01358 3.033e-22)
(0.02973 -0.01481 -3.555e-23)
(0.9145 -0.1298 7.294e-22)
(0.577 -0.2059 0)
(0.1508 -0.04967 -3.172e-21)
(0.8766 -0.1244 0)
(0.9244 -0.1091 0)
(0.9723 -0.02332 -5.809e-20)
(0.1525 -0.05286 -5.294e-21)
(0.2342 -0.06639 0)
(0.17 -0.05516 -2.559e-21)
(0.8415 -0.1551 0)
(0.1173 -0.04795 -3.877e-22)
(0.2261 -0.04185 -3.348e-21)
(0.9986 -0.001877 -1.697e-21)
(0.3473 -0.04787 0)
(0.08377 -0.0488 -2.88e-22)
(0.9976 -0.0008535 -1.116e-19)
(1.209 -0.1721 -3.875e-21)
(0.9974 -0.0003713 -1.197e-20)
(0.9859 0.0008416 5.027e-20)
(0.9242 -0.1201 -1.861e-21)
(0.8653 -0.09791 0)
(0.3298 -0.03213 -3.957e-20)
(0.9957 -0.00233 1.132e-20)
(0.8154 -0.09741 1.166e-22)
(1.007 0.006916 0)
(2.031 0.808 0)
(0.8791 -0.08985 -2.644e-20)
(1.01 -0.1996 1.985e-21)
(0.9452 -0.1038 2.93e-21)
(0.8419 -0.163 5.408e-22)
(0.8859 -0.1278 0)
(0.2063 -0.06538 1.083e-20)
(0.9471 -0.1028 -3.606e-21)
(1.001 -0.00588 1.134e-20)
(0.9686 -0.04422 -6.872e-20)
(1.38 -0.2389 6.995e-21)
(0.8718 -0.1589 -1.524e-21)
(-0.0117 0.008665 -3.428e-22)
(0.1699 -0.05843 0)
(0.3927 -0.0286 -3.529e-24)
(0.1489 -0.05147 -1.903e-21)
(0.02112 -0.004174 -6.063e-20)
(1.439 -0.2126 1.192e-20)
(0.7519 -0.2053 0)
(1.769 0.03575 -1.494e-20)
(0.867 -0.09157 1.749e-22)
(0.6529 -0.07983 0)
(1.095 0.7353 -1.371e-20)
(1.014 -0.2155 0)
(1.002 -0.01344 1.008e-20)
(0.7695 -0.1485 1.378e-20)
(0.05666 0.02799 -1.959e-22)
(0.7479 -0.1262 0)
(0.9976 7.664e-05 3.858e-22)
(0.06462 0.003868 6.4e-20)
(1.168 -0.2845 0)
(0.9635 -0.09305 -1.629e-22)
(0.745 -0.1951 1.548e-21)
(1.537 -0.1832 -9.453e-22)
(0.9361 -0.1081 5.01e-21)
(0.4846 -0.1045 0)
(1.177 -0.2704 7.497e-21)
(0.9633 -0.09316 -4.919e-22)
(0.1141 -0.05779 3.08e-24)
(0.7548 -0.2018 -5.729e-21)
(0.03566 -0.009557 -1.106e-22)
(0.9975 -0.0008574 0)
(0.9721 -0.07474 1.222e-21)
(0.8165 -0.1519 0)
(0.9736 -0.01498 0)
(0.8851 -0.179 0)
(1.064 -0.1106 1.627e-21)
(0.9965 -5.696e-06 4.787e-21)
(0.8263 -0.1575 9.87e-21)
(0.1141 -0.02386 0)
(0.9508 -0.04352 0)
(1.128 0.7243 5.051e-20)
(1.305 -0.2353 0)
(0.03565 -0.0214 0)
(0.8964 -0.1075 2.087e-20)
(1.007 5.263e-05 -3.408e-22)
(0.7259 -0.1643 -1.554e-22)
(0.3624 -0.1022 -2.602e-22)
(1.016 -0.007701 4.899e-20)
(1.188 0.6146 -4.202e-20)
(1.136 0.07311 2.031e-20)
(1.108 -0.2741 5.342e-21)
(0.5021 -0.1267 -5.431e-21)
(0.887 -0.1435 4.461e-21)
(1.042 -0.05182 0)
(0.1249 -0.04413 2.389e-22)
(0.03054 -0.01187 -8.99e-22)
(0.8408 -0.1754 -2.689e-22)
(0.9013 -0.1405 2.16e-21)
(0.9865 -0.2554 -1.996e-21)
(0.2955 -0.02608 0)
(0.9969 4.757e-05 -2.606e-22)
(0.9453 -0.09793 -1.192e-21)
(1.009 0.008737 1.05e-21)
(0.5663 -0.1592 0)
(0.324 -0.07501 -1.413e-20)
(1.173 -0.2026 0)
(0.7461 -0.1951 1.39e-20)
(0.04536 -0.01002 7.684e-23)
(0.402 -0.06664 0)
(0.9994 0.006012 -6.556e-21)
(0.004321 -0.001245 0)
(0.109 -0.02904 0)
(0.2232 -0.06212 4.011e-21)
(0.9694 -0.08616 -1.44e-21)
(2.148 0.6348 0)
(1.156 -0.2736 -5.801e-21)
(0.9789 -0.1888 8.958e-22)
(0.6058 -0.0472 0)
(0.9201 -0.1239 0)
(0.857 0.1308 -9.859e-20)
(0.05269 -0.001354 -5.435e-22)
(0.08234 -0.04176 7.56e-22)
(0.8776 -0.06493 0)
(0.7876 -0.1631 -3.274e-21)
(0.9116 -0.135 0)
(0.1392 -0.02029 -6.192e-20)
(0.0273 -0.01992 -6.73e-22)
(-0.1133 0.03917 2.071e-22)
(0.886 -0.1444 9.03e-22)
(0.2412 -0.07877 0)
(1.516 -0.1279 0)
(0.8627 -0.1046 -1.376e-21)
(0.8822 -0.09001 5.979e-22)
(1.151 -0.2325 0)
(-0.03405 0.01317 0)
(0.9495 -0.07196 -6.059e-21)
(0.8316 -0.1701 -4.653e-21)
(0.9292 -0.08261 0)
(0.8366 -0.1418 1.522e-21)
(0.9938 4.86e-05 0)
(1.004 -0.001194 1.599e-19)
(1.405 -0.1926 -1.595e-20)
(0.2744 -0.01811 -1.545e-22)
(0.3841 -0.0777 2.398e-21)
(0.998 -0.02938 7.934e-21)
(0.1586 -0.03114 -7.881e-21)
(-0.05621 0.01842 1.399e-21)
(0.9949 0.01177 -2.004e-20)
(1.189 0.162 0)
(0.9265 -0.1224 4.173e-22)
(1.477 -0.1501 0)
(-0.001398 -0.0008144 0)
(0.7254 -0.17 -1.175e-20)
(0.04195 -0.01794 4.612e-22)
(0.01231 -0.00402 0)
(1.031 -0.2058 -1.712e-22)
(-0.09063 0.03194 4.839e-21)
(0.9416 -0.2456 3.812e-21)
(0.9349 -0.115 0)