/*--------------------------------*- C++ -*----------------------------------*\
| =========                 |                                                 |
| \\      /  F ield         | OpenFOAM: The Open Source CFD Toolbox           |
|  \\    /   O peration     | Version:  v2012                                 |
|   \\  /    A nd           | Website:  www.openfoam.com                      |
|    \\/     M anipulation  |                                                 |
\*---------------------------------------------------------------------------*/
FoamFile
{
    version     2.0;
    format      ascii;
    class       volScalarField;
    location    "5";
    object      nut;
}
// * * * * * * * * * * * * * * * * * * * * * * * * * * * * * * * * * * * * * //

dimensions      [0 2 -1 0 0 0 0];


internalField   nonuniform List<scalar> 
100503
(
2.976e-15
7.782e-15
3.716e-13
2.026e-12
7.641e-15
1.002e-14
3.707e-12
2.124e-10
9.407e-10
3.786e-13
1.512e-09
9.878e-09
6.498e-08
8.594e-08
1.278e-09
2.372e-08
1.028e-07
1.768e-09
3.348e-11
9.562e-08
4.73e-08
4.813e-08
5.246e-15
7.882e-10
3.649e-13
6.416e-08
5.629e-08
0.000172
1.857e-06
1.269e-09
6.616e-15
1.553e-06
1.567e-06
2.303e-06
0.000204
2.917e-05
2.341e-06
0.002067
0.004334
1.86e-06
2.561e-06
0.001512
4.17e-12
1.962e-05
0.000129
0.001839
2.317e-05
0.0001265
3.266e-06
0.0001639
3.974e-05
1.794e-06
1.597e-05
3.183e-06
1.973e-05
5.025e-05
3.889e-06
0.002121
1.168e-06
0.0001071
0.001032
0.000338
4.548e-06
1.242e-06
2.485e-08
1.42e-05
0.006697
0.001719
1.248e-07
6.445e-07
6.105e-06
9.478e-05
0.0001591
0.0001685
5.27e-05
1.403e-06
0.0001249
0.006383
0.006402
1.211e-06
1.902e-06
6.25e-05
5.703e-05
0.001689
0.0002937
0.004328
0.0009685
1.013e-05
9.237e-07
1.702e-07
2.164e-05
0.001336
0.0006898
0.001478
0.006691
8.333e-07
7.26e-05
3.89e-06
0.006393
0.006412
0.001019
1.227e-09
3.182e-06
1.399e-06
1.502e-05
0.001697
0.0001083
3.281e-08
5.342e-05
3.12e-06
9.356e-07
0.0002165
3.613e-06
4.199e-06
0.000605
1.414e-06
0.001995
3.064e-06
6.967e-06
0.0001455
0.001198
4.838e-05
4.643e-06
4.131e-06
5.851e-06
9.626e-07
5.283e-05
4.13e-05
3.236e-06
3.627e-07
5.028e-06
1.282e-05
0.006681
0.0004229
0.0001681
7.306e-06
1.219e-06
9.142e-06
9.168e-05
1.905e-05
0.0003933
6.714e-06
2.986e-06
6.092e-05
0.0001632
8.144e-07
0.0003256
2.901e-06
1.548e-06
0.006692
2.688e-05
0.000305
0.003531
0.005052
2.815e-06
2.125e-12
0.0001697
0.0006919
2.674e-05
4.065e-07
1.201e-06
1.272e-06
3.165e-06
3.447e-05
0.003977
0.001019
4.252e-06
0.003208
0.0004421
0.002209
6.605e-06
0.0001134
1.554e-05
5.445e-07
0.006694
3.017e-09
3.265e-06
0.00603
4.25e-05
0.002407
3.714e-06
0.000115
8.643e-06
2.229e-06
3.529e-05
2.899e-06
0.006682
4.39e-06
1.398e-06
3.327e-08
2.508e-05
1.909e-06
0.001812
0.00669
9.904e-06
6.282e-05
0.0003433
1.299e-06
0.0001576
1.341e-05
0.0001528
1.243e-06
1.26e-06
2.9e-05
0.0001696
0.000169
1.591e-05
1.541e-06
4.165e-06
2.81e-06
0.0005686
8.231e-07
1.4e-08
0.002081
0.0001186
3.422e-05
2.092e-05
0.001862
3.256e-06
1.387e-06
3.113e-05
2.475e-05
0.004424
4.154e-05
7.003e-09
3.356e-08
2.399e-06
8.139e-10
4.39e-06
0.006704
2.875e-06
2.55e-06
1.35e-06
0.001386
6.757e-05
3.183e-06
9.353e-06
0.001228
1.766e-06
9.349e-06
1.091e-07
0.0001549
7.011e-07
0.0001552
0.001082
0.006144
0.0001509
0.00669
1.001e-06
1.561e-06
0.001991
1.14e-10
0.006693
6.516e-05
0.002683
0.0005306
3.249e-06
1.431e-06
0.0006363
3.458e-05
1.096e-07
3.604e-06
0.005052
3.609e-06
7.069e-06
3.378e-05
1.355e-06
0.005883
0.00397
5.471e-05
5.47e-07
6.31e-05
2.853e-06
7.303e-06
1.423e-06
2.821e-06
3.353e-06
0.0002184
9.873e-07
3.042e-05
1.402e-06
3.009e-06
0.006177
2.48e-05
0.0001815
0.0003903
1.025e-06
0.006568
0.006685
2.387e-06
0.001103
0.0001162
0.0003582
2.204e-05
7.317e-07
7.517e-09
8.339e-05
0.004376
2.453e-06
0.0002371
2.516e-06
4.853e-06
0.006698
5.359e-05
3.37e-06
0.000303
4.277e-06
2.25e-06
0.006704
0.001514
3.712e-06
3.209e-06
2.213e-08
1.481e-06
0.0001242
2.267e-06
3.455e-05
0.0001948
0.004371
0.001205
0.002401
0.0001449
7.761e-07
8.383e-05
1.212e-05
0.002816
9.862e-05
5.257e-06
5.294e-05
2.474e-07
0.001388
3.264e-06
0.0001534
0.005617
4.435e-07
8.601e-05
0.001165
0.006692
0.006703
6.497e-05
0.004481
0.006674
3.749e-07
1.56e-05
2.687e-06
0.006605
0.001816
1.313e-05
9.506e-09
1.23e-06
3.021e-06
2.099e-05
0.0002224
2.136e-06
3.232e-06
0.005919
0.004817
0.002495
1.638e-06
1.407e-06
0.0001816
7.011e-07
0.001791
7.451e-07
4.69e-05
6.772e-05
7.015e-07
1.19e-06
6.505e-05
0.006698
0.0005364
1.736e-05
0.0002893
0.006689
3.985e-06
9.107e-07
4.352e-06
0.006691
4.447e-05
2.594e-05
0.0002083
0.0003014
0.001083
0.0001105
1.278e-06
0.006687
1.625e-05
2.944e-05
2.764e-06
1.425e-06
0.006693
0.0004792
1.547e-06
1.887e-06
2.206e-05
1.095e-05
0.0003501
0.006689
1.081e-06
0.0005563
9.463e-06
1.443e-07
9.288e-05
0.0003465
3.276e-06
2.103e-06
0.0001984
5.248e-05
1.726e-06
7.52e-05
1.653e-06
2.709e-11
1.707e-05
0.0001309
6.291e-06
0.006687
3.77e-07
4.579e-07
0.004711
0.0002713
0.006707
1.983e-05
0.0002025
3.078e-05
1.853e-05
8.89e-05
0.005387
0.008914
1.815e-06
2.884e-06
2.44e-06
2.802e-06
1.626e-06
0.0009669
3.291e-07
0.006708
0.0001214
0.0006959
0.006697
1.285e-11
6.049e-05
9.495e-05
0.0001175
3.825e-09
2.313e-05
8.207e-08
0.0001378
1.664e-06
0.006684
4.899e-06
1.421e-06
8.677e-08
0.005999
0.006698
1.911e-08
4.176e-06
0.006688
3.68e-06
0.0002207
2.046e-06
1.469e-06
0.006699
9.007e-08
4.413e-07
0.00416
3.309e-07
3.284e-06
0.0003195
4.096e-06
0.0008805
0.0005439
3.699e-06
0.001287
6.188e-05
0.004386
4.771e-07
0.001138
9.818e-06
7.433e-05
3.278e-06
8.037e-05
0.0002227
4.392e-06
6.959e-05
0.004779
4.187e-05
0.0002294
0.006692
0.002144
2.636e-06
3.226e-06
6.934e-05
0.006694
0.0003027
3.602e-05
1.24e-05
7.095e-05
1.447e-06
0.004845
0.0008281
7.161e-05
0.0009473
6.72e-05
4.616e-05
0.001257
0.0001091
7.905e-05
1.667e-06
0.006698
0.0005719
0.004479
5.232e-06
4.337e-07
4.576e-07
0.004425
0.003425
2.863e-06
0.0001814
1.146e-05
7.11e-05
2.841e-05
0.0002339
0.0001554
1.354e-05
0.00668
5.09e-05
1.566e-05
0.002561
0.0001064
0.0007494
6.954e-07
1.293e-06
0.0001985
0.006632
0.002234
0.0004733
4.164e-06
0.006697
2.852e-06
6.528e-05
1.104e-07
3.099e-06
0.002268
2.045e-05
0.0001157
0.0001633
0.004383
2.59e-06
1.623e-06
6.966e-06
1.608e-06
3.89e-07
0.006695
1.185e-06
0.0001593
0.0004865
9.979e-05
2.785e-05
2.429e-06
7.074e-05
0.0001456
3.16e-06
1.096e-05
0.000194
0.0005481
3.354e-06
1.228e-06
1.567e-06
0.002744
0.004777
0.0009695
0.0001243
2.466e-06
0.006685
2.398e-06
0.001086
0.002797
5.8e-06
0.0005016
0.006681
1.333e-05
0.005875
0.0001273
0.0001259
0.006605
0.0002446
4.167e-05
0.00132
0.004774
3.145e-06
0.0004765
0.0002815
0.0001206
1.71e-07
9.035e-08
3.679e-05
8.558e-06
5.342e-05
0.006679
0.0001528
0.006684
3.618e-06
1.404e-06
9.086e-05
6.118e-06
3.209e-06
8e-07
0.006682
0.006687
1.82e-06
3.609e-05
0.006579
3.987e-06
0.001043
1.356e-05
0.0007547
2.627e-06
5.569e-05
1.202e-06
0.00668
1.734e-06
1.45e-06
8.451e-05
7.602e-05
0.004708
3.062e-05
8.068e-05
0.002053
8.341e-05
0.0004783
8.176e-07
0.006698
0.0005876
6.361e-05
0.0001257
0.00669
6.565e-06
0.006691
2.548e-06
0.0005904
0.006689
0.0001951
5.532e-06
4.076e-06
7.852e-07
3.175e-06
3.427e-05
2.595e-06
0.0006154
3.988e-06
0.0002663
1.469e-05
0.0004892
6.638e-05
2.286e-05
0.006684
3.514e-05
0.00669
0.0001225
0.0001082
0.006688
0.004638
3.893e-05
0.0002988
0.006685
0.006699
3.16e-05
0.0001131
0.0001208
1.113e-06
2.143e-06
1.701e-06
0.005249
3.61e-06
0.005876
3.315e-06
1.134e-06
8.778e-05
2.699e-06
0.0003223
0.006393
0.0001844
1.402e-05
2.035e-06
1.898e-05
2.108e-05
5.19e-07
3.538e-06
7.093e-05
0.0003517
0.006699
2.451e-05
3.478e-06
9.311e-07
0.000339
1.571e-06
1.219e-06
0.0002899
0.006687
4.453e-06
1.704e-05
2.01e-07
0.00372
1.623e-06
4.427e-06
7.234e-07
9.623e-07
0.001658
1.087e-06
8.192e-05
3.91e-05
0.002121
3.78e-05
0.005744
3.167e-06
5.199e-05
1.044e-06
0.006704
2.686e-06
0.006703
3.792e-07
7.919e-06
0.006703
0.004413
0.0009387
1.564e-06
8.018e-05
2.475e-06
1.924e-05
5.782e-06
1.893e-06
2.609e-06
7.743e-06
8.354e-07
0.00667
0.006678
0.0067
3.866e-09
0.006281
9.932e-06
2.42e-05
4.274e-05
3.444e-06
3.457e-06
6.662e-07
5.958e-07
1.739e-05
6.168e-08
1.646e-06
0.006656
1.668e-06
3.181e-06
0.005697
1.434e-05
0.002105
2.596e-06
0.0002791
0.001376
1.954e-06
5.325e-05
4.418e-06
3.361e-06
2.431e-06
4.581e-07
1.099e-06
3.583e-05
0.0003536
6.824e-05
1.676e-06
2.842e-06
2.68e-05
0.002522
0.0003565
5.849e-05
4.337e-06
0.004988
0.005537
0.00594
2.305e-06
4.495e-07
0.003261
6.281e-06
6.834e-05
1.094e-05
1.316e-05
2.87e-06
2.175e-07
0.0001078
0.006415
0.006707
6.808e-05
2.163e-07
0.006669
0.0006878
2.104e-06
0.000255
3.065e-06
4.607e-08
3.582e-08
0.0009707
4.016e-06
1.436e-07
0.0002453
5.28e-05
4.47e-08
2.342e-06
2.43e-06
0.006671
2.4e-06
2.374e-05
0.001204
9.086e-08
0.006693
0.006704
4.374e-06
0.001387
2.068e-05
0.001495
9.942e-05
0.004292
0.0001864
2.125e-06
0.0003727
6.502e-06
0.0001015
0.006163
2.731e-07
2.23e-06
1.067e-07
0.007968
0.006703
1.176e-11
0.006696
3.319e-06
2.07e-05
1.052e-05
0.006504
2.44e-06
0.00038
5.038e-05
5.339e-08
2.406e-05
4.254e-06
1.599e-06
9.166e-09
1.149e-05
6.567e-07
0.006694
0.006252
2.902e-06
2.962e-06
0.005832
0.0005462
0.006694
2.806e-07
1.943e-06
0.0001505
3.832e-06
0.004426
6.542e-05
1.306e-06
4.773e-06
1.016e-09
0.004201
1.193e-05
2.118e-06
6.985e-05
0.0001996
7.661e-06
1.337e-06
0.004375
0.004369
1.669e-05
4.264e-06
2.037e-05
0.0003584
6.985e-05
1.425e-05
0.004364
0.006689
1.685e-06
2.635e-06
1.932e-07
0.0001288
7.915e-05
0.006665
0.005735
0.002254
2.951e-05
7.674e-05
0.0001489
5.11e-07
5.679e-05
1.439e-06
0.006693
8.708e-07
0.0003525
9.081e-05
2.17e-07
0.006688
3.226e-06
0.006693
7.842e-07
0.004313
0.0001862
1.894e-08
1.699e-07
2.37e-09
2.549e-06
8.441e-07
3.042e-06
0.0001071
0.002114
1.559e-05
3.766e-05
0.0003736
2.827e-06
2.93e-06
8.055e-06
1.704e-07
3.961e-05
4.31e-07
1.854e-07
0.004649
1.681e-05
6.844e-07
0.006684
3.154e-06
4.468e-07
4.407e-06
2.008e-06
2.019e-06
0.006671
1.77e-07
0.002335
9.034e-05
0.006684
0.001142
0.000107
8.81e-06
2.541e-05
5.235e-06
0.0008153
1.576e-06
4.19e-06
4.899e-08
1.123e-05
4.083e-05
1.049e-05
0.001763
0.006694
0.006669
0.002194
0.000105
0.001144
2.276e-05
0.003106
4.136e-06
6.185e-05
0.0001487
4.668e-05
4.05e-05
2.7e-06
1.194e-05
0.000308
7.432e-08
4.745e-07
0.0002458
6.539e-05
0.002498
0.0002567
0.0002699
8.467e-06
0.0003845
7.193e-06
7.376e-05
1.506e-05
0.0005223
0.005133
2.043e-07
0.006694
3.743e-06
3.589e-06
0.000162
2.953e-06
3.285e-07
0.0007739
3.036e-06
0.006081
0.006698
9.106e-08
0.0001806
0.0003528
0.0003321
2.95e-06
0.0006426
0.004421
0.004412
0.006693
2.713e-06
7.359e-05
1.96e-05
1.108e-06
6.513e-05
9.384e-05
0.001465
6.36e-05
2.552e-06
5.249e-06
6.932e-07
1.006e-05
0.001211
4.439e-07
3.175e-05
3.635e-07
0.003255
0.001157
3.026e-06
1.718e-06
3.574e-07
0.006694
0.006693
0.0001657
7.561e-05
3.064e-06
3.091e-06
1.36e-05
7.608e-05
0.00108
1.604e-05
0.006697
3.271e-06
1.778e-06
0.005563
0.0008099
2.835e-06
0.0006889
0.0001983
3.695e-05
6.626e-06
2.374e-09
2.375e-06
0.0003255
4.223e-05
1.254e-05
3.444e-06
8.473e-06
1.078e-06
8.224e-07
0.0006631
0.0004236
0.0007244
0.006703
0.00565
0.00667
2.539e-06
1.408e-05
3.243e-06
0.002232
5.31e-05
0.006697
2.837e-06
0.0005908
1.433e-05
3.28e-06
1.24e-06
0.0002864
0.000161
8.264e-05
4.842e-05
2.025e-06
7.202e-05
2.809e-06
3.283e-06
0.0002204
0.0001135
3.588e-05
0.0001808
6.686e-07
0.00669
1.08e-05
0.0008236
1.852e-07
3.554e-06
0.004994
9.928e-06
0.001678
1.581e-05
6.313e-05
5.558e-05
0.006703
5.264e-05
4.441e-07
3.118e-06
0.006704
6.705e-05
0.0002113
1.89e-05
1.498e-05
0.0001532
3.507e-05
3.306e-06
6.496e-05
5.409e-05
6.083e-07
0.0001943
1.309e-07
6.82e-05
0.004685
1.237e-06
0.006691
0.0004947
1.539e-10
1.759e-05
6.586e-09
0.0002752
1.309e-05
7.527e-05
0.006664
0.0002932
3.595e-05
0.006679
0.0002832
7.596e-06
4.661e-07
8.269e-07
2.14e-05
1.482e-06
0.004367
4.61e-07
0.0001468
0.0005645
0.001018
4.005e-05
0.006695
0.0001897
0.000106
1.154e-09
0.0001096
2.726e-06
2.871e-06
4.839e-06
0.006689
0.0004278
9.47e-07
3.849e-05
2.893e-07
1.398e-06
0.0001701
9.724e-07
0.006638
2.887e-05
0.006599
9.866e-06
8.007e-05
2.611e-07
0.006682
8.304e-06
2.988e-06
0.0002405
0.0004263
0.004829
0.006696
0.004905
3.374e-05
0.0004689
2.771e-06
3.244e-06
0.0002894
9.408e-07
0.006698
1.331e-06
3.828e-05
7.138e-06
0.003146
2.949e-06
0.00662
0.001974
1.923e-06
3.131e-05
7.398e-05
1.878e-07
0.0067
1.116e-07
3.416e-06
3.725e-06
0.0003928
0.006637
1.578e-06
9.953e-05
0.00669
0.0001714
0.0001046
0.004529
1.491e-05
2.171e-05
7.113e-05
0.006683
7.619e-05
1.952e-05
2.844e-05
5.654e-07
0.005621
6.291e-09
5.666e-07
0.0005657
0.000243
2.335e-05
0.0001029
3.241e-06
1.38e-06
8.974e-05
9.061e-06
0.0006144
0.0005572
2.885e-06
0.006684
1.133e-05
3.182e-05
3.266e-06
3.095e-05
0.0002654
0.0003225
3.082e-06
7.319e-05
0.0001259
1.642e-07
6.251e-06
0.006646
0.006703
0.001627
2.249e-05
0.006693
2.664e-09
6.366e-06
9.542e-05
4.456e-08
1.855e-05
1.447e-05
9.045e-06
8.729e-05
1.433e-05
1.265e-07
0.006694
2.538e-06
7.962e-07
1.756e-06
0.0001942
6.257e-06
2.015e-05
0.006701
0.0001773
0.000672
4.059e-07
3.177e-06
6.903e-06
0.005074
2.64e-06
6.53e-06
0.006695
0.006608
0.00501
0.002634
8.625e-06
3.68e-09
2.806e-08
8.616e-07
5.341e-05
2.138e-06
0.001613
3.976e-06
2.218e-06
1.86e-06
8.642e-05
2.89e-08
0.0002073
7.037e-05
3.537e-06
1.08e-05
0.006687
0.006696
2.55e-06
0.000208
5.599e-05
7.09e-07
9.865e-06
0.0005689
0.005888
0.0005247
1.505e-06
5.123e-07
0.0005341
4.037e-06
9.521e-05
2.723e-06
0.000662
0.006651
4.182e-07
3.097e-05
2.413e-06
0.005854
2.409e-08
4.025e-06
0.006698
3.65e-07
6.356e-07
2.745e-06
5.991e-07
3.09e-06
0.0004184
2.863e-06
1.452e-05
1.27e-06
3.105e-06
9.972e-05
6.981e-07
1.595e-05
0.004842
2.184e-05
4.837e-05
0.004363
1.02e-05
0.000252
0.006671
3.185e-06
0.006115
7.883e-05
2.046e-06
8.073e-05
3.263e-06
0.006695
0.004299
0.00604
1.124e-07
5.004e-05
3.792e-06
0.0006634
1.808e-06
3.448e-09
0.0001074
2.173e-07
9.084e-06
8.444e-06
0.0009057
1.672e-05
0.006696
0.0001269
3.18e-06
8.163e-05
6.554e-08
0.004324
0.0001192
8.174e-05
1.866e-06
1.215e-05
2.429e-07
0.003871
0.006678
2.817e-05
0.004527
3.755e-07
9.473e-07
0.0045
2.827e-06
1.168e-05
0.0003333
7.834e-05
8.227e-06
2.031e-05
5.261e-06
3.017e-06
2.391e-05
5.18e-07
1.587e-06
5.031e-06
9.104e-07
0.0002845
1.278e-05
7.723e-05
1.566e-06
2.594e-06
0.0001374
3.01e-06
1.087e-06
0.006681
0.0001508
7.528e-05
2.931e-05
8.151e-05
0.001509
3.773e-06
1.205e-07
0.006698
0.006706
1.354e-05
5.413e-07
0.00443
6.281e-06
2.419e-06
6.917e-07
1.847e-05
1.87e-06
1.307e-06
8.036e-06
2.861e-06
0.0001064
0.0001511
4.624e-07
0.0003089
7.224e-07
1.174e-05
5.758e-06
4.129e-07
1.6e-07
1.415e-07
0.006695
2.837e-06
0.0006514
6.75e-06
0.0001946
0.004345
5.144e-06
3.445e-06
3.041e-05
0.0004169
5.569e-06
1.758e-05
2.643e-07
7.364e-06
2.725e-05
1.038e-06
3.179e-06
0.0008963
7.198e-05
0.0003175
2.913e-06
0.005669
0.006669
0.006612
3.433e-05
4.177e-07
0.006475
0.0001805
4.196e-06
8.555e-06
1.257e-05
3.234e-06
2.547e-07
1.954e-06
5.303e-06
3.93e-06
9.55e-08
0.0001005
5.7e-05
7.167e-06
0.001905
0.006694
3.109e-06
0.002126
3.072e-06
3.08e-06
3.178e-06
6.236e-07
1.652e-06
0.004382
1.204e-05
0.0002123
5.02e-07
3.664e-05
1.618e-06
0.004156
9.903e-06
6.672e-05
2.214e-06
3.399e-05
7.875e-05
8.919e-06
4.618e-05
1.893e-06
3.682e-08
0.001572
0.006689
1.054e-05
7.829e-06
3.769e-07
0.0001553
1.298e-05
9.458e-05
0.006703
6.031e-05
1.93e-05
0.004686
3.123e-06
1.112e-06
6.144e-06
2.132e-06
0.006619
5.369e-05
0.006694
5.015e-05
0.006367
0.001799
3.023e-06
0.000129
0.003244
0.0001491
0.0001321
0.000123
3.034e-06
7.595e-07
3.263e-05
3.304e-07
2.507e-07
1.349e-06
0.006588
3.305e-06
5.808e-05
1.205e-06
8.933e-07
0.004484
8.513e-05
1.941e-06
3.988e-09
0.006675
7.488e-05
3.318e-06
0.006705
0.0006749
3.948e-05
2.614e-05
2.614e-06
2.102e-05
2e-06
8.339e-07
0.0001108
3.193e-06
0.0003783
5.619e-05
2.396e-07
0.0007911
0.006704
1.449e-05
2.031e-05
3.292e-06
0.006694
0.005551
7.186e-05
0.006689
6.205e-06
0.004947
1.835e-05
0.004251
2.577e-06
1.504e-07
0.0002695
0.004035
6.532e-05
4.843e-06
2.569e-06
2.549e-08
1.784e-05
0.0001091
6.614e-05
0.003565
5.759e-05
3.001e-06
4.481e-06
0.0007559
1.067e-07
0.0001041
2.261e-06
2.141e-05
1.333e-06
2.139e-05
2.151e-06
6.497e-05
0.0005201
0.001992
6.497e-08
2.614e-06
4.405e-06
9.448e-05
3.131e-07
0.0001666
2.96e-06
3.514e-06
8.831e-06
2.212e-07
0.00119
0.0001526
0.0002708
0.0001135
9.537e-05
3.248e-05
2.812e-06
4.658e-07
2.966e-06
1.638e-06
0.004761
0.0008682
2.654e-06
2.209e-07
5.744e-07
0.00646
1.388e-06
0.0007442
0.006696
2.543e-05
4.079e-06
1.247e-06
3.903e-06
9.085e-05
3.841e-06
7.945e-05
0.006674
0.00019
1.458e-06
6.366e-05
2.039e-05
0.0001654
1.071e-07
0.0005706
3.581e-06
0.006692
0.006686
0.006697
3.011e-06
2.25e-06
0.000335
2.839e-06
2.15e-06
0.0045
1.607e-05
0.005623
0.0001652
0.006693
0.006692
0.001447
0.0008042
7.886e-05
5.076e-05
7.806e-05
4.537e-05
0.0007634
6.694e-05
1.338e-06
9.209e-08
1.594e-05
2.549e-06
4.091e-06
3.98e-07
4.542e-05
0.0002199
6.679e-05
0.000112
3.622e-06
9.326e-06
0.001324
0.0001047
1.958e-06
0.006682
8.669e-05
2.854e-07
3.65e-05
1.833e-06
0.006695
6.021e-05
0.0007629
0.0003813
2.478e-07
2.034e-05
4.792e-06
0.0007416
0.006693
0.0003821
6.943e-06
4.053e-06
2.736e-05
2.503e-06
0.001966
8.023e-05
1.701e-06
3.268e-06
0.0001022
6.409e-07
1.334e-05
6.672e-05
0.0009979
8.569e-07
0.00015
3.59e-08
0.002338
0.003429
0.0001101
0.006691
0.0001551
6.303e-06
0.006662
0.0001272
5.964e-05
1.054e-06
2.384e-06
1.062e-05
1.062e-06
2.827e-05
1.706e-05
3.203e-09
0.00354
0.0008188
6.337e-05
1.642e-06
8.126e-05
3.574e-07
1.481e-06
7.882e-05
0.00529
6.841e-05
5.256e-07
7.462e-05
2.726e-05
2.151e-06
2.608e-05
3.184e-06
5.215e-06
2.402e-06
0.006696
1.501e-06
9.744e-07
0.0003174
5.58e-06
6.525e-05
0.002382
0.0002639
0.0001038
3.632e-06
9.748e-10
9.341e-06
0.0006282
3.827e-07
9.755e-05
7.284e-08
3.769e-06
0.006649
1.31e-05
3.222e-06
2.629e-08
1.325e-06
3.428e-05
1.251e-06
0.0001453
0.006374
6.334e-09
8.608e-06
0.004379
3.395e-05
0.006703
0.00798
2.382e-06
0.006695
0.001499
0.006694
1.572e-05
1.177e-06
2.222e-07
0.001126
0.00669
0.0002652
1.381e-06
4.94e-08
3.037e-06
4.943e-05
0.0001836
0.006693
8.155e-05
0.004349
0.0001045
5.145e-05
2.759e-06
0.0004518
0.004358
3.643e-06
1.606e-05
7.863e-05
2.898e-06
4.093e-06
2.142e-05
1.835e-06
5.851e-06
0.0007695
0.0001984
3.483e-05
4.179e-06
3.1e-07
3.311e-05
0.0001702
0.004295
2.734e-08
0.0001301
0.001196
0.0001424
2.108e-06
0.0001495
0.001752
7.24e-05
1.444e-05
0.006697
1.324e-06
0.0002543
3.575e-08
2.771e-06
0.004489
0.0003457
0.0009824
2.28e-06
0.006696
1.76e-08
0.006673
6.001e-05
1.244e-05
0.006701
0.0002344
2.582e-08
8.525e-05
4.221e-07
0.006652
2.032e-06
7.09e-06
6.913e-07
0.0001751
0.004365
2.341e-06
0.004621
0.006116
4.437e-08
0.00311
7.192e-07
3.108e-07
0.002
2.132e-06
0.006691
0.0002607
1.879e-06
1.612e-07
2.148e-06
3.495e-07
4.096e-08
0.002771
1.697e-07
0.006695
0.001281
7.153e-05
4.624e-12
0.006696
0.002773
2.21e-05
0.00668
0.002132
0.0067
0.006679
0.006681
3.356e-06
0.006697
0.0001323
0.001169
3.638e-05
5.554e-05
1.307e-05
6.68e-07
1.623e-06
1.936e-07
0.005929
1.868e-05
6.87e-06
0.006697
2.244e-08
0.006705
1.086e-06
2.655e-06
0.0003038
0.004865
0.004863
0.002015
3.735e-07
5.303e-05
0.006667
0.001843
1.763e-05
1.139e-05
2.363e-07
1.457e-05
8.846e-05
0.004732
3.206e-06
3.252e-06
8.056e-07
8.031e-06
0.006623
1.327e-06
0.0001256
8.917e-06
8.316e-05
1.678e-05
2.965e-06
0.006707
3.139e-05
1.196e-06
1.242e-05
3.768e-05
3.403e-06
0.005122
0.003136
0.001028
1.307e-07
3.843e-06
0.006693
1.19e-06
1.346e-05
0.006668
2.834e-07
8.556e-05
2.908e-06
0.001157
0.005187
5.518e-05
2.634e-06
1.828e-06
0.004332
2.89e-05
4.879e-05
0.006675
7.098e-05
1.96e-10
0.001076
2.038e-06
4.132e-05
4.764e-06
4.79e-08
0.0067
0.0001778
1.136e-05
2.082e-07
0.006685
0.006668
9.864e-06
5.328e-06
1.494e-06
0.0001727
1.761e-06
3.644e-05
0.0005353
3.94e-06
0.0005606
0.004623
5.006e-07
0.006706
3.69e-06
0.006705
5.921e-07
2.319e-05
2.695e-06
0.00149
0.00656
1.982e-07
8.966e-07
0.0001054
2.382e-06
3.782e-05
2.764e-06
0.0005423
1.144e-06
0.004269
5.987e-05
0.004323
0.0001127
2.923e-06
0.003505
0.001242
3.766e-06
0.004289
4.915e-05
1.07e-07
4.319e-06
2.637e-06
0.00453
0.0002679
6.34e-05
1.04e-06
7.936e-05
2.908e-06
3.189e-05
2.527e-07
2.107e-07
1.475e-06
0.0001681
1.687e-06
1.422e-05
1.786e-05
3.431e-06
1.551e-06
0.004312
1.74e-07
1.317e-05
2.358e-06
3.627e-06
4.58e-05
0.0007821
0.001341
2.876e-05
0.002415
0.004945
9.326e-05
8.075e-05
0.004368
0.00665
3.71e-06
2.544e-06
0.004351
0.001711
7.017e-05
0.006692
2.543e-05
1.772e-05
6.189e-07
9.129e-07
3.528e-11
2.385e-06
3.835e-05
4.642e-05
0.00309
5.857e-06
0.006696
9.537e-07
0.0008449
2.838e-06
1.911e-05
2.332e-06
0.006694
0.0005086
2.015e-05
3.41e-06
9.213e-05
6.568e-06
3.255e-06
9.182e-06
8.847e-07
0.001661
3.72e-07
0.0003321
2.234e-06
7.536e-06
7.302e-05
8.291e-05
3.522e-06
0.006702
7.649e-05
6.872e-05
1.264e-06
0.002334
2.812e-06
7.58e-07
4.116e-08
0.006687
6.613e-05
4.487e-09
0.004286
0.006699
6.621e-05
8.153e-06
0.0006645
6.22e-08
5.679e-07
0.006694
0.006694
4e-06
2.081e-06
2.891e-07
0.006691
3.969e-06
0.005932
7.38e-05
5.787e-07
3.429e-06
7.001e-05
0.001507
2.134e-06
0.006681
1.682e-07
1.775e-06
0.00587
9.071e-05
8.831e-05
1.64e-05
1.219e-05
1.599e-07
3.237e-06
1.998e-07
1.176e-06
0.006695
0.001649
8.865e-05
0.00178
1.114e-05
0.0008765
2.395e-07
7.009e-06
2.618e-06
0.0005488
8.359e-05
5.7e-05
0.001815
5.239e-06
1.397e-05
2.389e-07
0.004634
1.242e-06
0.005562
0.0009144
0.006693
1.018e-06
2.398e-07
4.723e-07
5.996e-06
0.0001159
1.659e-06
5.913e-05
6.321e-05
2.906e-07
5.969e-06
1.043e-07
0.006648
0.001831
3.182e-06
1.624e-05
2.433e-05
0.001806
0.00665
2.525e-06
3.95e-07
5.202e-06
2.83e-07
6.666e-08
7.989e-06
0.001335
4.511e-05
0.0001159
0.0005728
0.006688
5.306e-06
3.855e-05
0.0003103
1.927e-07
2.493e-06
7.172e-08
8.12e-07
2.87e-06
2.229e-07
7.828e-07
2.922e-06
3.279e-06
5.917e-06
6.588e-06
7.015e-05
5.424e-07
1.449e-05
0.004509
2.07e-05
7.455e-05
3.269e-06
1.844e-05
7.105e-05
1.11e-06
2.434e-06
4.413e-06
8.844e-07
3.164e-06
2.306e-06
0.006691
0.0004156
0.002206
1.071e-07
0.0001511
1.964e-06
2.749e-06
6.386e-06
3.251e-06
5.138e-08
4.192e-06
0.001475
0.004535
5.642e-08
0.0004019
6.276e-06
0.001586
0.0003442
4.641e-05
0.0002555
3.449e-07
6.743e-05
5.202e-05
0.00669
0.006692
0.002411
0.0001039
0.006565
0.006679
2.789e-06
1.188e-05
8.529e-05
2.175e-06
1.05e-08
3.591e-06
0.006699
5.714e-06
0.001535
8.818e-06
0.001816
1.34e-06
4.668e-06
0.00665
7.399e-06
0.001191
0.000203
5.882e-06
0.004546
0.006694
7.938e-07
3.416e-06
2.493e-06
1.917e-06
0.006676
2.874e-06
1.601e-05
0.0004796
0.006698
1.296e-05
0.0001258
0.006701
0.001489
0.004378
0.006686
6.58e-06
2.087e-06
0.004607
0.006433
0.006447
0.006703
6.567e-05
2.691e-06
1.604e-06
2.091e-06
0.001992
1.497e-06
4.862e-06
0.006671
1.91e-05
9.809e-07
0.001652
0.006687
3.12e-06
4.301e-08
1.69e-05
0.004415
0.00293
3.951e-07
5.646e-06
0.000394
2.523e-05
8.532e-06
1.932e-05
1.791e-05
2.569e-06
0.006701
1.358e-05
0.006698
1.778e-05
2.433e-06
1.261e-05
3.987e-05
3.816e-14
2.398e-07
0.006492
0.006694
4.571e-06
1.429e-06
0.006681
1.576e-06
0.000615
0.004412
0.0007198
1.459e-06
0.0002287
0.000284
0.001031
0.001151
3.16e-07
0.006703
0.0002341
0.006696
6.904e-05
3.109e-06
0.005095
5.71e-07
5.866e-06
0.002345
2.305e-05
1.234e-05
7.919e-07
3.629e-05
1.581e-07
7.25e-05
7.733e-05
2.28e-06
9.379e-07
2.896e-06
3.741e-06
1.228e-05
2.337e-05
0.006688
0.004597
1.438e-12
0.006676
0.0006538
2.885e-06
1.057e-07
3.369e-06
0.0008465
9.347e-05
7.609e-05
0.006687
1.017e-06
3.527e-06
4.211e-06
4.258e-06
0.006704
0.0008181
3.341e-06
5.42e-06
8.054e-07
2.409e-06
0.000576
1.085e-07
3.342e-06
7.086e-05
3.02e-07
3.179e-06
1.903e-05
1.78e-07
2.205e-09
8.747e-05
2.874e-05
0.006099
5.375e-05
0.0004244
0.004355
1.482e-05
0.000744
2.777e-07
7.194e-05
3.102e-06
1.885e-06
0.001552
0.0001278
0.00159
1.644e-06
2.712e-05
6.122e-07
0.0001876
2.143e-05
0.0002172
0.005985
0.0006232
0.006631
2.26e-07
8.034e-05
1.431e-06
2.522e-06
2.279e-06
0.0002337
0.006695
3.09e-06
1.923e-06
1.378e-06
1.242e-06
0.0001972
0.004435
6.634e-06
7.998e-08
7.265e-05
2.654e-06
4.304e-06
5.703e-06
3.104e-07
9.982e-06
3.812e-06
0.006686
2.855e-06
1.967e-06
3.929e-05
8.694e-05
3.485e-06
0.006705
0.0003259
6.66e-05
1.839e-06
0.0001282
0.004156
0.0067
0.006692
5.286e-08
1.061e-05
5.683e-05
1.847e-06
0.0006053
4.383e-05
0.0008909
8.624e-05
0.005676
0.0001376
0.004081
0.003123
9.69e-08
7.307e-07
1.058e-05
0.0002033
0.006702
1.913e-08
0.0001053
0.004361
2.835e-06
3.49e-06
7.573e-07
5.502e-06
1.059e-06
5.514e-05
3.69e-06
4.335e-07
0.0001582
0.004458
8.143e-05
0.001053
1.266e-06
0.006704
1.962e-07
5.15e-06
8.678e-07
2.412e-06
0.0001249
0.0003419
0.006706
4.031e-05
1.891e-06
9.039e-07
0.00183
1.678e-06
0.0001318
2.566e-06
0.006671
8.944e-06
2.14e-07
9.056e-05
0.00636
1.034e-05
0.006693
0.006685
0.0002871
1.442e-06
3.732e-05
2.731e-07
1.929e-06
8.988e-07
4.742e-05
0.006695
5.794e-05
0.006631
8.47e-06
2.523e-06
2.693e-07
9.018e-05
0.003924
7.567e-06
5.16e-06
1.169e-05
2.196e-06
7.484e-07
3.835e-05
8.182e-07
0.003446
2.149e-07
0.005548
0.006583
6.96e-05
5.805e-05
5.361e-05
2.362e-06
8.689e-08
1.625e-07
3.69e-07
8.391e-05
6.598e-07
2.675e-06
0.002805
8.237e-08
1.884e-06
2.609e-06
0.001827
0.005437
0.006696
0.004358
5.182e-08
0.00453
0.0001775
2.385e-06
2.633e-06
1.194e-06
9.345e-07
4.031e-05
1.821e-06
2.441e-06
1.43e-06
0.006691
3.707e-07
0.002187
7.322e-05
0.006665
7.427e-05
3.063e-06
1.704e-05
1.086e-05
2.488e-05
1.249e-05
2.027e-05
3.223e-06
6.165e-06
4.158e-07
0.0001788
2.199e-06
0.005028
0.004389
8.124e-05
0.0001215
0.0009557
0.006699
0.0001783
0.0002597
4.081e-05
0.0008584
0.006693
0.005805
0.000882
2.327e-06
1.202e-06
5.42e-05
7.257e-05
5.326e-07
6.003e-08
3.024e-06
0.004338
2.925e-06
2.342e-05
2.863e-06
0.0002173
6.536e-05
3.334e-06
3.429e-06
4.741e-06
3.3e-06
0.001163
0.006694
6.211e-06
3.255e-06
0.000356
3.386e-08
0.006647
0.0004206
0.0002981
0.006692
2.598e-06
3.192e-06
1.949e-06
3.257e-06
7.872e-05
6.873e-05
4.849e-05
6.691e-06
8.741e-08
0.000239
1.928e-05
4.883e-06
0.0001535
0.0002532
3.817e-06
0.0004209
9.083e-07
3.634e-06
0.0002802
0.0005789
2.524e-11
0.006669
0.0067
4.02e-06
0.0005143
8.959e-05
7.581e-07
4.489e-05
0.0009894
6.219e-05
3.705e-05
4.405e-07
0.002831
6.532e-05
6.748e-07
6.063e-05
4.534e-07
8.322e-05
0.006689
0.0001307
8.955e-05
2.299e-05
2.995e-06
0.006667
8.034e-05
3.752e-05
2.041e-06
0.0001809
0.00493
0.006694
0.006678
6.16e-06
0.006707
0.000124
0.006638
1.388e-07
5.818e-06
1.332e-06
1.673e-06
0.0002393
3.026e-06
1.944e-06
7.378e-05
2.117e-06
3.953e-07
2.557e-06
0.0003016
0.0002396
5.229e-05
0.006695
2.56e-06
3.146e-06
0.0004188
1.628e-07
1.877e-07
1.17e-05
8.736e-05
3.264e-06
0.0002128
0.0006169
6.105e-05
0.002345
0.006699
2.242e-05
2.363e-06
1.739e-06
8.01e-07
2.74e-06
6.574e-06
0.004805
4.811e-06
7.027e-07
0.005739
3.4e-06
3.38e-06
4.374e-06
0.006663
0.006699
3.109e-06
8.427e-07
0.0004131
0.001859
0.002086
0.006703
0.0001093
4.907e-08
3.677e-06
5.317e-05
0.0002719
0.0009799
1.427e-07
0.0001836
6.728e-09
2.318e-06
0.0001038
0.006696
7.932e-05
0.0003817
1.541e-06
0.005913
1.226e-05
3.281e-08
6.24e-05
0.006692
2.449e-06
6.474e-07
7.421e-07
6.84e-05
1.012e-08
9.575e-05
1.934e-05
9.414e-07
8.882e-05
0.006693
1.915e-07
9.139e-05
0.0001151
8.178e-08
3.652e-07
1.831e-07
0.006693
0.0007009
4.494e-08
1.295e-05
0.006697
6.882e-05
0.006675
2.916e-06
0.0002144
1.524e-06
0.0001109
0.001195
2.561e-05
0.006693
7.951e-07
0.0004693
2.203e-06
0.006693
0.006653
9.688e-08
1.659e-06
4.025e-06
1.163e-07
0.0003044
6.252e-05
1.679e-07
0.006658
9.665e-07
0.0004707
2.25e-08
8.334e-05
0.006685
0.0001532
0.006703
0.006672
2.368e-05
0.0001938
0.0003244
0.0004167
1.541e-06
5.201e-05
0.0005158
8.792e-07
0.00144
1.959e-06
4.587e-07
0.0004611
0.0003577
3.1e-06
8.712e-07
3.67e-05
6.553e-06
0.006698
0.0001479
0.003254
5.246e-08
1.958e-06
0.006696
3.57e-07
4.562e-05
0.0004457
1.243e-07
4.281e-05
0.004337
5.88e-06
2.996e-06
0.006421
1.414e-05
2.091e-06
1.173e-06
3.235e-06
0.0001126
6.673e-06
6.754e-05
5.887e-05
0.0003004
0.006689
1.524e-07
2.386e-06
1.373e-06
3.243e-06
2.438e-06
6.146e-05
4.441e-07
0.0003721
6.57e-06
9.954e-09
5.846e-06
2.504e-06
0.0001287
2.891e-06
1.508e-06
4.034e-05
8.285e-07
0.005309
3.38e-06
3.234e-06
0.0004915
8.85e-05
2.476e-06
5.285e-08
2.798e-06
2.035e-06
2.236e-07
0.0003836
3.43e-06
1.386e-05
8.154e-05
7.233e-07
6.938e-05
1.454e-05
4.147e-07
0.0003054
8.118e-07
0.0007283
3.772e-05
1.424e-06
1.343e-10
7.535e-06
5.701e-07
0.0002233
1.881e-06
1.059e-07
2.796e-05
2.784e-05
1.302e-06
1.44e-07
0.001633
3.512e-11
6.589e-07
5.376e-06
0.000623
3.38e-06
0.0001833
0.0002141
2.238e-06
1.108e-08
4.702e-07
0.006685
1.56e-05
0.0001185
8.483e-07
4.104e-05
0.0009436
1.795e-06
2.271e-06
0.0001496
0.0006817
0.006689
0.0002517
0.006694
0.0001004
0.0003957
2.986e-06
4e-06
3.404e-05
0.005964
7.128e-05
0.0004718
1.817e-07
2.329e-05
5.897e-05
3.176e-06
0.000167
1.935e-06
0.0007823
0.006694
0.006708
2.271e-06
0.004739
4.907e-05
1.389e-06
0.001264
5.786e-05
3.472e-06
2.238e-06
8.006e-07
1.447e-06
0.006703
0.004243
4.875e-05
2.768e-05
0.0004133
2.024e-06
0.004222
0.000171
0.004432
5.351e-06
5.284e-06
6.565e-05
2.091e-06
9.425e-06
8.479e-06
1.465e-05
0.0002189
1.541e-05
9.752e-05
1.455e-06
2.472e-06
0.0001778
2.383e-06
5.025e-08
0.002391
0.0067
9.485e-05
4.513e-06
0.0002396
2.129e-06
5.673e-07
7.655e-05
2.111e-08
7.82e-07
0.006693
2.231e-08
0.0001154
1.296e-05
0.006699
0.006696
0.005395
7.316e-05
1.756e-06
2.175e-06
5.422e-06
0.0004119
1.463e-05
3.302e-06
0.006682
1.801e-07
1.946e-06
2.341e-06
0.006216
0.0002989
2.1e-05
2.559e-06
8.535e-07
1.265e-06
0.0003241
5.09e-06
1.119e-06
0.001692
5.501e-06
3.956e-07
0.000827
0.006652
1.908e-05
0.001014
4.965e-06
0.00489
9.593e-07
0.004279
2.761e-06
2.897e-07
0.003879
8.571e-06
2.084e-10
9.31e-07
0.00331
0.00605
5.524e-06
0.0002991
0.00664
0.006694
1.074e-05
2.127e-06
3.517e-08
3.998e-06
0.006694
0.006698
5.573e-05
1.829e-06
3.445e-06
0.0003301
3.114e-06
6.215e-06
2.074e-06
4.968e-05
1.415e-07
0.006656
7.109e-06
0.0001615
0.0001876
3.901e-06
3.454e-05
1.971e-07
0.0007242
0.0001873
0.0001288
3.477e-06
3.122e-06
8.379e-05
6.23e-06
1.854e-06
1.954e-06
0.006688
1.646e-06
4.535e-08
0.005686
3.705e-07
1.647e-06