/*--------------------------------*- C++ -*----------------------------------*\
| =========                 |                                                 |
| \\      /  F ield         | OpenFOAM: The Open Source CFD Toolbox           |
|  \\    /   O peration     | Version:  v2012                                 |
|   \\  /    A nd           | Website:  www.openfoam.com                      |
|    \\/     M anipulation  |                                                 |
\*---------------------------------------------------------------------------*/
FoamFile
{
    version     2.0;
    format      ascii;
    class       volScalarField;
    location    "5";
    object      omega;
}
// * * * * * * * * * * * * * * * * * * * * * * * * * * * * * * * * * * * * * //

dimensions      [0 0 -1 0 0 0 0];


internalField   nonuniform List<scalar> 
100503
(
2.058e+06
4.47e+06
6.368e+06
2.8e+06
4.049e+06
1.663e+06
1.639e+06
1.127e+05
2.216e+05
1.394e+06
2.829e+04
2.47e+05
1.68e+04
1.685e+04
9.63e+04
2.492e+04
1.264e+04
3.011e+04
4.993e+05
1.365e+04
4607
4608
1.435e+06
3.757e+04
1.238e+06
3312
3078
98.16
126
1.085e+04
2.478e+06
119.2
119
752.4
17.2
1.723
738.8
7.141
0.1137
122.7
381.3
0.02367
4.147e+05
8.757
125.2
12.72
0.05027
107.4
143.9
107.4
383.3
340
0.1631
58.59
8.709
325
38.35
11.97
128.3
121.1
0.02453
149.4
809.8
708.3
3843
11.43
0.0216
7.126
1.315e+04
192.6
23.98
94.72
23.96
102.3
3.203
360.6
88.61
0.02
0.0199
711.5
110
182
2.053
0.02317
31.21
0.1133
18.96
87.79
748.6
771.5
0.9356
8.727
9.627
0.02392
0.02168
602
37.1
38.24
0.01992
0.01983
8.654
1.141e+04
109.9
322.7
0.1599
0.02196
24.2
3495
0.1968
357.2
733.6
16.71
58.9
38.45
22.05
1227
12.06
50.34
14.96
0.0578
11.73
64.46
828
52.59
28.88
982.5
3.197
0.3199
333.3
1108
32.16
0.4105
0.0213
0.0349
21.89
18.34
388
14.88
83.44
7.901
0.0264
0.1375
150.7
0.6479
86.68
622.8
1.413
85.92
520.4
0.02166
205
31.08
0.02202
0.03534
280.7
1.446e+05
0.04011
10.39
0.04865
1095
739.9
363.3
634.5
4.986
0.2907
66.02
46.91
0.02203
0.02747
6.915
22.13
23.87
10.55
236.4
0.02175
1.069e+04
144.4
0.02309
0.392
0.592
38.7
61.2
17.24
134.9
0.3902
85.69
0.02132
1154
361.1
3450
0.1381
104.2
9.803
0.02168
88.18
1.97
0.03472
123.1
0.0728
140.4
100.2
721
706.4
1.608
123.9
84.82
9.652
523.2
36.73
282.6
41.79
616.3
7512
11.81
59.93
4.765
4.764
0.02192
288.6
597.7
67.25
6.379
0.08856
241.9
1.184e+04
3426
116.4
4.74e+04
37.8
0.02219
116.1
383.2
743.9
8.886
2.529
110.2
0.8478
0.02461
990.2
94.05
2595
95.87
348.3
4.194
0.7864
0.02217
44.18
0.02164
328.9
13.13
0.02187
1.076e+05
0.02179
0.3618
0.02181
19.47
45.91
39.18
21.31
2.198
2689
620.6
0.03543
51.46
97.35
45.57
327.3
5.453
0.2932
0.1268
237.9
0.2085
277
18.35
105.5
120.3
75.17
0.02756
141.8
206
321.5
271.3
0.02393
6.372
21.33
0.02419
134.4
0.02195
0.02134
462.7
8.35
0.05857
0.02718
8.501
711.8
1.066e+04
0.1007
0.1182
467.6
17.85
174
190.4
0.02195
0.2678
43.39
17.02
46.6
242.5
0.0222
0.02395
38.79
334.6
3724
152.3
0.07389
105.8
4.978
0.03855
0.1176
9.284
0.5891
20.64
161
1.312
463.2
0.02183
79.88
38.58
0.3085
1474
8.585
10.29
20.41
0.02714
1030
0.1335
11.79
0.02165
0.02216
1.381
0.05893
0.02117
388.8
0.3184
59.75
0.01948
14.53
11.19
8512
386.6
125.1
7.261
208
604.1
283.6
0.024
0.0408
0.02183
319.2
117.6
0.0348
343.1
7.21
676.3
3.68
0.04519
701.7
424.4
0.04456
0.02196
44.05
0.8391
19.87
0.02165
36.98
1048
36.16
0.02172
0.3046
52.59
0.06062
30.93
0.8171
0.8175
121.7
0.02156
8.153
0.3598
56.54
105.9
0.02179
41.65
583.5
299.7
8.49
12.79
17.58
0.02163
1294
6.854
14.43
2740
131.1
14.28
72.11
618.5
0.02692
0.6317
1028
0.04596
959.6
4.572e+04
0.0681
20.99
29.37
0.02126
2022
359.8
0.04432
25.21
0.02232
112.7
1.222
2.191
124.8
0.09036
5.621
6.735
339.5
0.5881
85.63
0.436
355.6
0.02232
1212
0.02234
23.54
10.34
0.02194
7.261e+04
0.1275
1.517
43.84
8639
7.068
2.235e+04
21.34
337
0.02132
184.4
1447
7782
5.448
0.02197
4217
36.74
0.0213
51
16.56
249.1
296.7
0.02198
3231
1038
0.1087
1196
206.7
29.77
37.53
8.711
11.66
48.52
19.25
0.2415
0.2074
936.9
53.13
15.35
162.2
72.28
0.1342
16.5
37.85
0.4409
0.04452
0.9032
0.05542
0.02173
0.02184
80.38
285.2
1.304
0.02175
0.045
4.496
11.4
0.1342
300.1
10.68
0.02579
0.3328
0.02477
1.377
331.9
11.36
0.08977
0.1349
203.6
0.02196
24.99
0.05885
27.93
815.1
363.4
0.08889
0.02179
129.7
91.35
494.5
0.1852
0.1307
214.9
43.36
10.65
0.02124
0.2663
9.495
0.03191
0.2588
9.289
298.8
105.4
21.22
0.02103
6.372
11.43
33.43
0.02192
265.9
0.2346
2107
99.7
11.45
0.5285
1.525
19.88
0.2054
52.34
441.9
29.31
1025
776
0.02159
350.7
19.73
14.36
31.23
212
441.3
0.3143
20.05
403.9
12.78
66.63
19.04
75.31
388.9
247.1
0.02183
0.04445
0.02472
23.33
460.5
0.02151
286.5
17.57
0.02185
28.59
40.73
0.0213
11.85
0.02496
0.04976
66.31
0.01946
15.91
250.2
13.22
0.0328
226.4
41.73
142.1
43.14
1930
1.271e+04
43.86
15.74
3.253
0.02126
20.16
0.02135
39.01
988.5
0.7364
24.44
163.9
230.3
0.02132
0.02154
153.8
4.489
0.02133
28.27
7.214
11.57
0.7979
271.9
36.66
680.9
0.02123
279
38.65
1.237
0.4043
0.04356
88.17
56.24
10.85
0.8157
14.43
292.2
0.0216
24.62
57.69
22.4
0.02163
1147
0.02169
68.27
19.61
0.02161
18.28
25.7
37.09
5.341
399
4.762
63.82
0.5714
37
19.87
10.17
0.02398
0.184
6.913
0.02134
63.07
0.02162
0.144
31.03
0.02161
0.4206
0.9006
20.51
0.02149
0.02199
46.69
0.07469
0.4301
757.8
134.6
260.2
1.671
51.57
0.025
599.8
74.22
0.1347
99.13
0.04075
0.02331
23.89
10.55
211.4
9.496
136.9
353.3
62.04
142.5
13.54
0.02199
7.623
41.64
992.6
20.08
129.8
941.1
0.03364
0.02161
0.7922
6.192
1316
0.04311
114.3
29
55.72
170.2
0.02204
83.03
55.53
4.19
21.63
300.9
0.02747
309.6
38.11
50.84
0.02217
59.61
0.02172
324.6
0.8307
0.02217
0.2191
0.02742
698.8
117.6
224.6
0.07748
22.8
495.8
119.1
663.2
183.1
0.02096
0.02129
0.02163
1.58e+04
0.02254
14.03
0.1072
4.011
377.6
66.98
3449
663.7
9.682
4841
342.4
0.02036
303.2
267.9
0.02832
98.42
22.66
594
14.99
0.02301
72.23
3.347
31.44
40.56
5.535
1571
405.5
0.1032
101
1.175
580.1
188.4
117.9
14.27
58.73
0.2559
30.46
0.04154
0.02177
0.02541
117.5
934.9
9.256
0.1294
0.4051
13.29
0.9192
179.2
878.4
26.82
0.02322
0.02078
163.6
889.2
0.0202
94.1
300.7
0.02554
155.1
4652
912.4
0.02567
450.1
2872
15.84
0.7044
2364
334.8
480
0.02098
110
0.3709
0.02226
935.3
0.02175
0.02217
38.41
16.66
0.1721
26.91
0.06069
0.08068
21.66
153.6
0.03841
2.181
0.7942
0.02429
842.9
61.6
7823
4.82
0.02214
9.647e+04
0.02188
36.44
96.31
0.08517
5.47
454.9
57.82
66.67
1213
673.6
38.1
175.8
6868
0.305
476
0.02184
5.462
134.9
67.27
3.919
35.96
0.02157
1422
542.8
59.87
35.38
0.0853
0.7525
161.6
0.2624
2.58e+04
6.972
519
185.9
2.496
0.02587
18.85
361.4
0.1315
0.1356
9.144
35.54
7.403
13.56
53.53
0.3027
0.1344
0.02164
227
65.43
866
0.05394
0.345
0.02074
0.02753
0.02186
267.2
115.3
21.06
961.2
0.4932
299.2
0.02178
310.3
13.12
0.09903
786.9
0.02155
339.5
0.02175
1449
0.07181
0.03304
1450
2731
8813
68.52
177.9
302.9
112.5
8.383
0.6616
0.04827
0.03865
345
249.8
17.29
655.2
4.156
1094
749.8
0.04593
0.05917
241.1
0.02113
325.2
1329
36.64
70.29
197.2
0.02104
1939
20.41
43.31
0.02143
7.973
1.135
94.08
296.4
28.74
12.78
1034
31.47
1067
12.44
0.0827
740.9
0.02193
0.02166
0.02091
6.826
100.4
14.26
6.842
6.485
33.85
0.406
20.57
69.47
0.06076
248.7
88.91
25.1
2929
1270
0.0273
0.5704
0.02184
60.89
21.87
17.6
52.23
18.33
71.62
0.07208
15.91
7.279
663.1
0.02182
52.05
48.53
92.51
92.84
666.5
13.45
54.25
5.514
0.02196
975.9
37.46
0.02858
29.2
46.02
23.74
0.05796
0.05779
0.02174
159.7
139.3
0.6485
421.9
2.682
1.888
8.663
0.1861
693
27.47
711.3
87.86
0.02271
268.7
5.208
996
0.02183
68.79
62.02
86.61
1212
0.0218
0.02169
26.24
0.04838
82.87
341.5
11.54
0.2972
19.66
66.48
0.02195
123.2
250
0.02721
0.02421
251.7
10.8
61.65
137.3
22.21
1.008e+04
59.49
19.67
0.04693
131.5
303
15.88
125.4
148.1
12.91
29.71
25.66
0.02216
0.0287
0.02088
165
226.3
589.1
13.25
0.2007
0.02192
162.5
6.033
10.8
139.3
104.1
0.02711
0.1904
0.1103
0.04607
88.17
0.1624
350
54.46
0.7965
61.06
4.504
32.25
277.3
0.02168
15.45
9.635
1695
278.1
8.849
14.02
19.71
96.43
0.482
1.233
0.02215
0.1481
271
113.4
0.0222
0.3601
62.33
74.38
28.57
24.57
0.0574
252.8
0.2651
3.343
458.4
18.21
1222
0.1182
0.04729
606.4
0.02172
0.02554
2.388e+04
0.8157
6161
0.04239
11.31
0.8681
0.02078
23.51
4.678
0.02127
0.03559
352.8
896.5
1304
7.14
486.3
0.07803
937.5
3.787
15.91
20.56
1.7
0.02187
66.01
0.04412
2.27e+04
0.06293
484.6
301
0.6837
0.02157
0.02771
525
0.4487
1318
591.1
0.03766
529.4
0.02015
3.994
0.02176
0.1271
39.36
1772
0.02141
16.7
510.4
1.822
121.6
0.05235
0.02186
0.03967
5.279
25.15
66.28
70.13
0.07287
450
0.02197
545.2
4.386
119.4
9.525
94.23
0.0195
0.4659
299.6
5.704
94.32
1711
0.02203
2231
72.5
40.22
48.48
0.02014
566.2
0.3157
0.02163
89.64
0.06933
0.06762
581.5
59.27
0.03943
0.02111
0.4504
7.713
5.854
221.1
0.02736
1.185e+04
218.6
20.55
27.55
0.1546
38.03
53.85
725.6
0.09062
0.1641
21.5
39.46
74.08
0.02139
16.5
78.22
88.17
5.463
1.414
1.499
1.797
0.2219
1.235
798.7
22.09
0.01954
0.02214
12.78
6.792
0.02175
8806
0.1387
0.1453
2947
3.202
9.999
0.1027
0.07607
87.69
2963
0.02182
92.14
297.9
557.7
0.02824
0.2367
7.873
0.02167
90.13
0.02312
286.8
67.19
26.39
0.03912
659.7
19.87
0.02188
0.02052
0.03969
0.02232
17.19
1.426e+04
6914
1309
40.28
781.7
9.176
33.46
172.3
514.9
38.63
1520
63.27
0.8278
61.91
4.469
0.02133
0.02036
75.22
78.44
139.3
640.9
17.26
26.87
0.02179
0.1139
87.99
926.7
11.11
16.21
1.839
235.8
13.07
0.02021
1337
1.238
79.97
0.02506
1595
210.6
0.02195
901.5
1553
51.22
650
308.5
0.02374
329.2
10.81
234.9
317.8
39.98
707.9
70.61
0.05148
7.105
279.8
0.06446
13.74
16.25
0.02098
147.9
0.02268
0.343
177.5
0.1043
113.2
0.02188
0.1028
0.02514
2985
0.4609
51.73
11.12
179.7
4.351e+04
135.5
2098
0.08892
175.5
35.72
1.885
0.02187
41.36
203.5
0.3871
4893
0.1393
0.08514
227.1
146.2
77.47
1818
6.493
0.02129
4.248
0.06761
1597
427.7
0.03498
78.22
17.63
17.91
0.53
96.78
121.9
26.1
77.23
6.797
295.1
92.81
494.6
122.3
20.39
2.523
0.3127
247.3
53.47
38.74
440.3
124.3
0.02143
46.16
2.299
204.8
0.09812
7.913
36.15
2678
0.02196
0.02117
78.65
1514
0.0877
4.483
75.99
820.2
3.067
316.4
162.7
17.67
170.1
86.67
44.86
1112
30.94
468
17.56
25.36
676.7
560
1962
0.02177
29.53
47.43
13.57
17.9
0.04039
29.31
274.5
47.75
12.68
26.62
9.058
802.6
28.86
0.2988
42.87
391.7
0.02278
0.4944
143.1
311.6
7.42
0.02104
0.02199
0.1434
1324
0.02018
59.63
1.676
16.02
80.94
121.2
1452
200.9
26.83
45.98
2474
42.1
36.42
100.6
0.023
0.02182
47.76
9.683
310.3
257.2
306.3
1948
283.1
0.07122
7.368
0.05056
815.1
4.42
356.5
0.02253
17.02
0.08141
164.4
47.37
0.07731
16.22
3.67
72.82
3363
0.8
0.02166
97.8
21.37
1078
0.0551
143.4
1.848
0.02171
32.55
7.915
0.04738
58.06
436.5
24.07
186.9
0.02156
1.6
0.0218
0.7037
5.487
20.47
186.8
106.9
0.02177
36.74
105.1
109.8
60.09
317.3
98.95
2316
1039
265.2
0.02007
259.5
0.351
294.9
26.25
1.176
0.04691
131.9
7327
0.02117
0.1985
94.09
0.02222
12.5
46.63
59.87
84.01
7.203
113.7
333.2
1.517
289.8
19.64
0.9457
819.1
0.02265
0.02219
10.46
7.446
98.89
0.02179
0.02707
0.1956
0.02165
308
0.03874
8.093
5.644
57.31
2370
0.02769
0.1276
0.3267
28.9
584.4
6981
8.375
37.28
0.1994
5.819
0.1648
128.6
48.44
25.08
926.5
1.152
88.35
112.8
337.7
0.261
168.7
0.4002
39.83
14.79
3619
138.5
36.55
0.6654
917.7
89.01
248.7
0.8888
16.36
1178
13.68
20.02
15.55
43.91
1.833
0.9611
54.49
857.5
0.3817
158.4
1.26
0.02257
222
1489
289.3
0.02312
328.1
18.42
0.02191
6.249
32.06
395.4
35.85
30.33
44.22
30.54
0.02094
0.05108
12.28
0.6155
7.401
0.03605
573.6
11.12
277.1
0.02161
0.02145
0.02191
92.61
228
1.227
117.2
87.79
0.08532
0.8522
3.404
0.03075
0.02176
0.02169
0.02205
11.84
113.2
41.28
0.1355
46.69
9.226
0.8165
354.6
4533
9.351
307.7
38.22
587
0.112
79.15
0.03461
0.4629
28.03
116.9
18.45
140.3
481.9
0.02149
29.49
2087
126.8
84.68
0.02185
2.817
18.64
33.05
899.5
319.2
41.17
0.8485
0.02176
13.47
13.59
37.92
0.296
67.12
2.269
0.04213
1046
224.5
122.5
370.9
10.81
0.537
0.02442
913
75.33
2118
0.0219
7.031
0.05797
0.02171
0.02858
116
0.02053
24.57
38.56
1637
333.3
13.58
144.3
276.9
162.6
1.531e+04
23.45
12.69
33.93
583.5
2.147
1133
1284
0.1357
0.02177
0.4786
561.8
0.7558
0.4733
151.5
6.504
281.4
26.57
792.3
0.02192
85.55
681.6
24.54
24.11
278.2
6.393
1.45
44.6
184.9
4.562e+04
168.5
35.55
1175
108.4
768.3
49.44
0.02026
119.9
320.3
3047
196.2
223.7
379.4
23.22
11.14
1.723e+04
17.51
0.07091
1.241
0.02214
4.661
6.921
0.02158
7.278
0.0218
8.126
407.4
1140
10.08
0.02162
21.84
6.696
5614
30.13
3.378
85.7
0.02179
2.177
0.1402
1.374
0.3435
323.1
13.96
0.1499
55.68
11.46
0.5369
79.75
38.36
0.2037
106.6
25.06
11.58
31.16
44.9
36.15
1113
4.837
0.05751
0.1021
2578
147.2
0.02214
64.03
299.1
37.26
10.97
0.322
586.8
0.02194
1335
35.98
2053
192.9
0.0551
43.57
8.46
227.8
0.0219
7085
0.02092
2.824
11.55
0.02209
24.81
6687
1.844
768.2
0.02009
64.88
1.715
1520
40.51
0.06258
80.93
0.05002
0.0227
1470
0.05985
1044
377.3
8.295
214.4
0.02171
0.02717
993.7
679.5
865.9
813.9
5756
0.02181
1398
0.02187
7.605
0.4409
1.096e+05
0.0219
13.34
86.34
0.02079
0.02189
0.02196
0.02077
0.0214
40.51
0.02192
0.1953
9.996
4.501
1.72
10.93
791.3
81.66
843.7
0.02575
62.44
20.43
0.02193
4237
0.02223
481.2
641.8
26.09
0.04377
0.04371
0.02191
812.8
143
0.02072
18.23
10.09
12.29
558.8
145
0.9238
0.04389
136.8
161.5
50.8
17.66
0.0195
338.4
0.6071
0.2729
0.08288
66.47
247.2
0.02232
0.1416
1.434
7.352
4.396
225.3
0.03853
11.82
9.995
761.8
18.76
0.02177
90.32
141.1
0.02089
1386
0.1125
442.2
9.83
7.164
37.29
67.37
194.9
0.1369
57.43
56.31
0.02098
0.1387
7.021e+04
13.71
155
0.4463
32.43
1101
0.02162
35.5
10.51
558.8
0.02156
0.02003
15.27
28.12
394.7
0.06824
103.4
4.653
19.17
32.64
10.57
0.0562
1254
0.02226
59.99
0.02222
317.3
0.1453
351
0.02198
4.072
1369
195.2
39.06
89.45
44.09
109.4
11.04
192.3
0.02177
2.83
0.08186
0.03174
408.7
6.241
15.32
46.01
0.08969
203
960.1
29.4
65.54
0.0676
60.83
0.1756
2.275
33.35
405.4
59.49
1456
983
1066
91.42
408
11.56
0.4214
64.43
504
0.07154
1380
145
418.3
53.42
0.3631
9.858
6.742
5.602
0.02231
0.04315
1.007
0.05581
0.1437
0.01983
52.73
96.6
0.0801
0.0224
0.233
0.0217
5.627
1.766
306.2
84.52
1.418e+05
56.22
0.4024
154.4
6.473
4.426
0.02187
296.3
0.4744
413.4
68.89
218.4
0.02184
19.67
68
147.7
0.6614
13.77
249.3
6.477
156.5
0.02215
310.9
0.02629
93.12
19.14
0.1306
0.2382
53.08
0.02213
0.1242
0.5058
101.6
7.437
360.8
361.8
5111
0.0215
0.03942
8734
0.0893
0.022
0.3102
16.44
20.43
816.5
1425
0.02184
0.02184
43.36
113.1
1797
0.02175
519.4
0.02566
0.1228
1144
200.6
0.03227
10.59
213.6
0.02133
3611
833.7
0.02173
58.91
29.19
2.906
0.6542
3605
359.1
1654
435.8
0.02187
11.83
26.88
7.971
13.56
8.908
3042
0.1154
388.1
0.02375
1.088
0.274
8.167
28.77
12.7
1372
0.415
120.2
0.02719
0.02267
0.02178
337.1
1632
879.4
24.58
0.04346
215.7
2.997
0.4766
1399
336.9
5622
0.02016
19.92
81.48
94.79
0.3743
11.65
0.02003
512.9
357.4
1016
832.5
6027
0.2588
8.705
171
0.07719
31.09
0.02154
1.731
0.4191
32.87
1692
659.8
1316
423.5
241.8
1457
80.71
250.9
0.871
24.96
21.67
0.2172
895.2
9.994
0.3071
3.073
0.04151
195.5
0.06799
0.1422
465.6
120.1
33.88
158.1
248.8
132.1
0.02164
16.87
0.02192
2738
30.75
1074
172.6
608.5
184.2
6307
39.15
7.893
0.06664
1110
39.05
23.12
7.117
14.3
3.573
20.31
619.6
2.571
187.7
0.02162
0.02173
0.4792
26.8
0.01962
0.02125
73.64
11.45
0.08932
558
1.798e+04
356.8
0.02199
22.57
7.168
16.7
8.777
361
372.3
0.02002
672.3
7.991
0.038
191.5
0.06523
0.0218
283.2
42.38
72.37
328
0.02107
87.38
0.5298
15.98
0.02055
622.2
113.8
0.02057
41.49
0.1434
0.02145
0.5253
117.2
0.05962
0.01996
0.01987
0.02216
0.649
335.2
265.4
86.8
7.58
278.5
521.8
0.02101
7.826
168.9
17.17
0.02162
315.2
2799
12.34
0.1236
14.21
598.8
174.5
12.44
2.563
17.21
10.86
8.763
95.97
0.02178
11.2
0.02172
65.08
119.7
0.2496
4.628
1.634e+06
2886
0.01995
0.02183
33.51
238.7
0.02133
89.09
0.03572
0.1227
0.08739
67.61
22.64
0.06414
11.12
1.275
1648
0.02216
24.66
0.0219
0.1581
47.89
0.03399
521.6
124.5
12.01
319.1
12.31
975
4.645
650.9
1.67
149.5
123.5
97.13
434.5
39.44
190.6
0.07484
0.02163
0.05106
7.132e+05
0.02127
13.41
411.2
4214
103.3
27.51
0.7807
0.298
0.02161
248.6
502.1
1.026
38.67
0.02099
91.43
113.5
27.13
621.6
92.27
38.12
5551
162.4
0.1939
1683
213.4
9.467
1864
1.43e+04
0.665
346.5
0.02369
41.39
0.02662
0.1312
72.69
25.14
2112
0.1605
430.7
74.36
12.8
71.88
20.76
428.7
2.024
506.5
18.41
0.0543
18.37
2.016
22.92
0.01942
1707
1.515
890.7
66.34
229.2
0.052
0.02187
343.4
52.76
325.7
121
21.12
0.1088
0.2475
736.9
0.1632
119.8
38.99
229.2
1301
89.76
47.1
0.02155
291.8
1883
0.1759
29.31
796.6
0.02223
53.67
0.1798
192.8
70.87
0.1089
0.02203
0.02174
2852
11.27
1.106
214.8
10.94
214.3
0.03875
0.06408
0.02176
29.96
0.1407
9.506
4419
289.5
13.7
0.04466
0.02213
7630
25.31
0.1415
3.357
61.85
366
26.95
143.8
36.35
39.47
1115
21.1
0.05988
0.07468
27.66
227.4
0.02167
755.1
27.65
995.7
77.33
65.12
0.05827
0.02228
4.199
405.6
151.3
7.092
214.7
70.88
402.9
0.02103
327.7
613.7
0.0717
0.02231
256.8
0.02175
0.02148
22.66
218.9
304.1
947
71.86
927.5
177.8
0.02185
0.4873
0.01941
17.58
66.46
1817
33.2
0.02204
19.4
537.8
78.27
106.3
1105
42.52
530.2
0.2433
541.5
0.02706
0.01963
0.06365
0.2901
36.83
131.4
2.907e+04
2034
817.9
2.128
376.6
76.67
11.12
759.7
146.6
78.24
9.514
0.02859
0.02189
0.1322
1466
0.02177
113.3
101.4
77.41
243.5
537.2
3.237
338
522
295.4
0.02168
1382
15.02
0.03667
0.02063
0.09981
700.3
0.9534
4.283
107.9
12.41
7.848
112
297.3
289.1
0.02836
146.5
0.0347
0.07795
0.3299
35.87
10.35
0.02164
18.7
19.77
100.9
8.776
0.0218
0.02169
9.422
268.2
398.9
0.04522
32.23
910.7
5758
214.3
0.08898
477.2
93.98
171.7
0.02641
34
71.05
53.87
33.47
294.3
21.28
0.0218
298.6
48.48
14.6
4215
0.02014
12.68
0.1622
0.02168
76.33
278.8
79.76
232.5
0.3091
164.9
0.1327
0.528
4595
21.44
6.981
31.59
0.04288
0.02818
50.87
19.23
723.4
45.02
19.8
26.51
9.118e+05
0.02049
0.02203
49.42
28.09
35.65
1009
3.956
19.52
0.1554
0.3623
265.7
6.71
34.05
1511
1.646
1422
0.04303
0.02158
22.9
0.1042
2.062
84.08
0.02076
0.2365
4.341
624.8
27.07
0.04333
0.0218
0.02134
15.98
0.02232
0.04021
0.0199
2704
22.85
340.3
211.1
74.4
121.4
138.1
32.09
173.5
1821
5.064
17.66
1.863
1.481
0.02186
187.1
287.1
16.95
2815
1731
15.86
26.94
108.9
59.94
27.67
32.38
0.02783
0.022
8.377
94.36
567.7
1062
420.1
21.92
0.5626
118.5
653.6
0.02565
74.51
150.2
38.32
0.02063
0.02202
266.1
989.6
18.13
0.022
10.69
0.02215
0.1178
6194
149.2
0.2984
16.63
25.83
730.1
109.8
2.132e+04
42.49
28.07
0.02187
30.01
0.02573
93.7
0.02493
1.885
3472
0.06317
0.02172
58.18
1243
303.8
0.1305
8416
0.06781
9.169
3.244
1.148
0.02172
743.2
27.82
1.41
948.2
822.5
2757
0.02176
10.86
6726
1.104
0.02192
0.3771
0.02116
88.15
21.71
509.9
103.9
10.17
0.148
0.02181
1077
15.92
111.9
0.02175
0.02
753
93.71
44.94
862.5
32.07
0.2019
606.2
0.02008
353.4
27.35
1.199e+04
141.5
0.02147
21.42
0.02214
0.02094
5.076
23.28
15.52
24.6
733.8
456.7
37.04
930.8
7.871
86.2
310
17.37
42.24
99.89
40.05
0.2162
137.4
0.02197
111.2
0.02196
860.8
85.82
0.02189
614.6
1.056
112.9
2492
109.2
5.739
260.6
84.55
0.02015
10.17
73.89
126.9
271.9
30.55
21.04
2.532
118.5
124.4
0.02166
780
56.37
125.4
250.2
90.22
0.2427
937.9
67.73
104.6
4596
7.552
282
81.37
254
239.8
0.4515
159
0.03558
61.21
143.2
43.93
0.09614
120.2
1140
143.7
424.7
2013
57.17
52.22
11.03
2.139
1135
0.07418
10.8
325
0.02468
75.38
0.02324
251.7
706.4
2.374e+04
19.55
4035
17.49
162.5
763.7
5.715
6.145
355.4
1824
8.338
1.146e+05
750.6
21.13
10.52
150.8
264.1
21.65
99.1
5136
1662
0.02145
4.539
0.0602
598.2
82.39
0.02239
356
94.49
0.02815
10.57
0.02166
32.97
0.02178
1.148
53.95
287.8
32.86
262.3
1.953
0.2402
15.01
728.8
70.97
38.7
275.9
20.87
69.24
0.02296
0.02183
0.02233
94.89
0.04829
218.6
100.9
9.607
0.1431
9.843
98.9
232.1
245.2
0.02216
0.08313
47.63
6.016
12.96
84.56
0.02254
0.03357
0.1081
172.1
28.47
2.663
86.45
16.04
94.39
12.28
0.04054
9.668
1.399
106.4
741.5
19.47
337.2
1182
15
0.02204
0.07702
35.31
23.43
102.8
222.3
0.2393
1.22e+04
1115
0.02181
6630
115.6
2.539
0.02202
0.02188
7.675
0.2347
77.56
644.8
27.15
19.67
10.61
186.1
0.02138
1832
246.9
110
0.02421
16.03
0.06069
187.9
593.6
319.5
36.25
30.76
245.4
7.146
27.02
2454
10.85
0.01982
6.938
8.422
25.76
0.04501
1259
0.07235
168.7
1299
6.735
0.08971
2.118e+05
277.9
0.02177
6.228
1126
0.03367
0.01975
0.02182
115.4
187
4427
43.96
0.0218
0.02196
17.41
131.6
155.6
41.11
298.2
25.61
625.3
235.4
708.6
0.02016
108.7
19.95
0.04713
48.39
47.03
506.9
9.645
25.31
0.0556
374.8
327.8
0.03218
21.01
102.1
270.9
0.02156
246.2
5243
8.458
821.2
559.7
951.5
320
45.75
87.65
1800
0.0578
0.02181
0.02172
0.1877
411.2
77.61
2206
0.02798
2.279
167.7
0.09164
6.933
9.76
42.9
0.02186
0.0459
2586
0.4752
1.349
0.05756
46.05
37.68
204.5
78.62
6.188
0.02223
0.01966
735.5
1.605
0.02105
40.25
0.3072
0.04406
10.7
22.35
241
9.407
2160
4743
0.1362
0.02182
76.03
3.213
0.02169
968.5
670.7
0.1189
633.6
191
6.19
7.716
0.01964
130.5
92.23
10.38
0.02102
26.15
0.02128
2146
0.01932
0.02168
16.95
79.15
1684
0.3177
0.05238
2.105
4451
52
50.59
0.02197
27.59
82.92
79.4
78.89
4344
37.82
1612
1149
80.66
33.83
520.8
134.9
19.46
2225
17.07
1.021
0.08823
0.03643
81.06
0.02677
32.62
86.43
1036
0.03179
0.02184
21.9
0.03245
98.51
226.3
321.2
76.35
0.02095
0.03225
30.53
138.1
27.76
375.1
0.02178
0.02149
38.11
0.05361
20.04
0.02176
547.3
0.04582
1731
94.98
0.02664
0.04346
27.82
0.3979
745.1
118.9
0.02145
249.8
10.5
291.2
75.03
227.1
4210
0.5458
0.02032
0.02168
2043
52.17
36.95
14.99
0.02115
647.1
126.3
13.69
92.39
87.17
132.2
22.8
1251
12.69
48.93
1.028
77.62
0.1077
265.9
0.01967
16.11
0.02188
470.1
802.7
0.02184
0.0209
1690
21.57
0.02201
20.01
2274
67.49
58.54
0.0209
0.1987
28.27
22.04
99.59
17.81
18.1
54.96
4543
0.02206
101.8
16.32
0.323
52.38
0.03232
13.77
0.0215
0.2702
0.02142
12.22
30.53
202.9
7.127
0.02198
0.02034
55.6
1086
4081
6.657
0.02497
0.02287
89.89
0.5484
0.02761
149.7
420.6
19.65
6981
20.82
0.01991
153.6
222.7
0.544
496.3
719.9
11.11
30.57
22.09
15.51
359.9
1188
332.5
9.893
324.1
0.6193
7.483
742.3
0.05345
0.04356
19.89
0.02447
12.28
73.98
0.3882
4.238
2478
0.02224
0.4566
22.47
11.23
194.5
0.03145
92.03
12.12
10.53
92.29
2414
0.2266
1387
269.4
5.878
51.8
0.02315
0.4126
73.04
42.29
1.789
0.2697
134.8
0.02174
240.5
0.2805
4785
2.239
0.2032
3.536
4167
61.78
0.02217
0.9338
41.31
0.02182
1447
23.69
55.35
43.55
0.02006
424.5
391.1
724
1901
39.71
828.7
0.02093
892.6
302.2
62.65
0.0218
70.43
18.06
286.2
27.87
0.02142
29.35
28.6
0.02228
5167
775.4
31.19
0.1114
0.1037
44.31
1278
0.7502
19.35
15.27
675.7
0.2359
60.53
94.62
8.881
2252
269.3
10.42
0.03279
92.52
0.4951
7.804
1309
114.7
0.05611
0.5211
8.185
190.1
108.1
422.7
1.338
0.7498
29.53
10.52
57.44
11.53
214.7
731.4
0.0215
112.8
13.23
22.76
323.4
284.7
23.02
18.9
0.0753
86.59
718.2
1.604e+06
351.4
5487
117.1
0.07833
1160
7.799
320.4
28.46
0.02203
55.35
292.5
708.4
0.9553
29.99
9.372
0.02348
18.92
76.11
0.09719
13.81
1106
10.36
889.6
1.942
0.04983
9.163
1.471
17.89
11.19
7.528
61.34
901.3
745.8
0.09971
83.68
0.06983
5.312
203.8
0.9538
0.02072
0.144
1013
0.03293
0.04597
293.2
1062
18.04
115.3
0.2093
20.31
0.02124
0.01928
1048
112.6
718.2
898.7
53.62
0.1378
0.02201
2.774
0.361
0.02037
2.498
416.6
0.02249
1.978
0.1175
1123
641
0.02178
0.02156
136.7
8.739
772.3
0.0205
1033
217.9
0.04045
0.025
4.192
8.264
52.42
42.57
391.4
1159
2640
13.67
97.84
0.02187
1781
171.3
0.02281
0.0287
0.01985
0.01981
529
0.02167
0.08215
103.2
76.53
20.31
1119
0.1311
9.824
0.0425
0.1452
0.2973
0.2974
51.37
220.5
941.7
19.26
10.82
0.02612
0.02144
7.575
251.5
393.4
223
310.5
3.95
3.262
3044
0.1174
0.02206
52.31
420.1
274.6
0.02177
257.5
92.11
46.31
551
5682
787.6
0.04019
58.1
751.4
1.015
1208
0.5122
114.8
20.52
1.025
90.23
37.53
130.4
572.6
352
0.09481
0.06569
33.58
14.62
1112
96.69
1.712
2429
0.0503
384
68.19
0.02055
0.02195
3.845
0.02051
0.02226
165.5
2447
6975
161.1
923.6
177
39.47
33.9
278.2
9.786
0.02006
49.31
0.2901
6.856
0.1616
74.77
5.299
0.1418
0.02089
1.781
70.21
0.0861
0.02193
565.9
11.91
24.29
218.5
3137
0.02176
53.22
127.2
0.02133
30.39
3269
13.36
0.02145
5.978
3515
2250
1234
0.09137
233.6
0.02189
324.6
6.693
1.978
28.85
22.36
447
10.35
12.11
248.1
295.1
0.2754
29.95
504.5
18.61
36.83
18.06
4706
138.6
45.71
867.7
0.5441
1.716
616
30.71
1014
4.103
950.5
0.1079
0.02174
13.18
450.4
363.3
0.02505
693.5
9.678
816.8
24.89
298.4
82.88
0.1516
892.7
48.4
0.02176
10.4
78.61
1903
823.6
16.82
102.8
55.3
10.08
3302
3241
43.14
26.08
0.2999
0.03451
1.095
1050
57.82
13.32
8.914
0.02175
0.1224
50
0.0814
1146
2498
353.7
322.1
0.6546
1302
1552
552.6
62.84
0.03158
189.4
32.58
0.9639
74.01
0.02181
23.53
62.67
0.6836
0.022
1.6
0.05644
407.9
1959
693.5
225.6
349.7
2.424
2886
233.5
21.29
744.4
35.33
1.837
77.43
1778
43.47
6155
6.003
141.7
1389
0.05864
3.389e+04
0.02183
0.02069
0.02138
5475
754.5
0.02182
1761
4077
0.0219
84.94
83.38
389.6
34.1
0.02105
8.598
104.7
35.96
0.02135
7087
0.06923
323.1
3055
0.02227
17.19
28.51
9.894
46.32
2.314e+04
61.45
11.26
628.2
0.14
273.1
37.01
132.4
3.306
0.05259
0.02156
0.1545
1.514
0.02183
48.23
257.2
0.02209
10.55
0.02206
0.112
304.7
64.31
0.02192
86.66
1.844
604.9
98.03
1.158e+05
402.2
2.191
1020
149.7
0.03669
5.134
72.02
0.866
453.6
12.06
1291
199.8
0.02198
0.04441
0.04848
0.02115
67.57
10.55
57.31
0.03168
78.41
628.4
7.469
6.896
77.11
0.02172
1033
0.02205
27.12
1184
0.3523
1695
30.38
0.8985
16.9
0.022
0.83
0.08499
0.02223
0.7757
1396
0.02194
11.09
0.04755
0.9188
215
57.42
0.0217
18.83
16.38
0.03926
0.02175
2.016
0.02573
50.39
352.1
23.58
0.7304
49.55
2.308e+04
9.522
0.02175
96.44
343.6
15.17
1879
427.6
0.02187
619.7
5.489e+04
320.1
248.1
6.937
310.6
246.4
0.03518
0.6533
1046
590
14.16
0.02224
238.5
9.441
1431
15.14
10.34
194.2
2.511e+04
0.04071
302
0.4757
20.27
0.432
54.54
1745
0.05223
141.7
1066
19.12
7.817
265.6
0.02186
0.02179
29.8
187.9
202.5
408.1
0.02174
3431
2970
1.091
18.11
170.9
35.16
169.9
0.02179
78.12
9.044
2.867
50.78
7811
0.08595
1121
20.81
41.74
3.009
0.04037
16.89
0.03289
1031
13.07
6.754
0.1473
0.02193
78.8
240.5
8.43
1272
3889
18.3
30.44
12.97
0.0219
0.02165
142.1
3.553
0.02184
28.09
14.38
1145
13.99
35.33
3655
7.46
2.207
4805
101.3
8.247
193.9
351.8
196.1
26.57
348.8
1920
8.322
22.86
5.462
16.62
272.7
0.02172
385.5
31.22
17.13
0.02204
0.02188
0.02218
0.02359
4158
16.86
40.83
112
5.037e+04
15.48
173.9
368.3
10.78
1.048e+04
6.614
256.8
1.248
2005
19.27
0.0218
14.68
809.1
29.83
48.31
0.02221
962.9
0.02707
0.0337
1.329e+04
1981
0.06158
124.2
882.3
1.094
824
1.124e+04
10.44
8.744
3.986
131.5
25.93
698.7
312.4
2302
2322
26.07
305.3
18.96
106.2
2.908
167.7
316
37.26
205.4
24.67
0.02182
2.533e+04
2.126
22.25
13.75
0.02175
78.71
126.9
28.63
74.15
593.6
37.13
92.04
29.33
0.5371
15.26
46.25
991.5
549.4
7.798
66.79
0.02184
69.35
18.96
2843
15.77
708.9
282.4
0.01995
0.08147
24.79
0.07332
65.94
337.7
149.1
15.49
1300
20.54
17.54
0.02173
366.9
18.48
66.78
0.03392
0.02245
0.02158
7.436
1.57
12.22
420.7
110.2
326.7
0.0292
0.0202
30.89
0.02098
242.1
20.93
0.02203
0.02191
0.05793
47.72
29.06
0.1973
72.88
566.6
101.5
256.1
1.178
0.02185
0.0218
0.03262
611.5
59.4
607.6
25.09
0.02235
0.05426
0.07122
17.16
1333
59.04
53.76
0.08468
0.1788
8.656
120.1
0.02189
2.471e+04
111.2
0.02196
28.6
6.069
31.85
39.5
385.4
28.33
74.03
5.706
37.03
9.458
11.21
0.2103
257.8
17.65
0.7184
23.08
76.17
1.054
357.2
101
417.8
0.2683
0.8298
140.2
25.72
891.6
1086
20.03
173.9
8.269
710.4
0.02096
289
0.05748
16.05
0.04631
147.4
7.753
81.21
0.05778
2.049
0.2295
1.488
1880
0.02257
917.2
75.22
2024
0.4
807.5
13.34
707.5
0.04089
63.81
419.6
0.02099
0.4653
96.95
0.0215
1.778
0.3754
0.1035
106.3
0.02683
1554
22.23
0.07647
25.31
0.1191
789.3
1477
76.89
0.03136
4.82
82.38
1178
0.02177
0.08877
241.2
2299
20.87
17.76
5.644
22.11
431.8
48.48
1430
1054
17.1
0.02392
30.93
0.02115
0.02113
5577
2.007e+04
1298
509.2
139
0.06548
283.2
0.02213
48.9
30.83
299.5
0.153
246.9
72.11
331.8
24.6
1398
0.02183
350.4
31.95
39.5
78.76
3862
353.5
22.74
16.47
0.02179
0.07081
155.7
0.02566
405.1
7.253
0.2073
0.02231
287.6
681
0.02768
44.51
0.4955
0.0219
0.02005
36.05
2.737
168.1
92.12
0.7501
0.02873
95.03
37.86
3.784
3011
1.132
0.02081
68.72
7.597
10.66
0.02084
0.01992
541.5
793.4
61.94
1.565
84.19
21.11
0.04075
14.7
0.02597
5722
40.47
0.02096
196.2
873.2
92
4.023
0.06415
45.39
4580
38.48
9.218
56.38
1736
0.02183
0.05782
0.4538
0.02138
2827
1311
995.7
986
130.8
7.132
0.413
729
311
112.1
8.206
0.02175
0.01993
86.48
0.04762
1137
13.11
0.4491
863.4
42.81
102.2
37.39
50.74
0.02164
81.72
289.9
0.02144
1492
0.02177
10.37
0.02168
6.878
0.02194
432.8
642.3
0.8818
17.66
0.02616
292.9
164.4
19.56
0.3793
112.5
38.24
334.9
556.9
168.8
26.89
0.02181
0.02194
0.1244
0.1013
106.6
558.5
667.1
587.4
0.3373
38.15
30.69
26.53
30.35
0.02182
334.7
0.04835
21.93
46.91
261.8
54.5
0.02549
16.7
0.3636
152.8
668.2
0.02085
1023
1459
37.32
39.77
0.02181
0.02158
95.65
0.04222
98.6
40.64
30.6
3.392
69.7
539.1
4.145
317.9
0.02208
7.938
1.727
0.2791
0.02131
1069
31.41
0.02171
12.53
0.08393
0.04461
263.7
0.02164
9.234
6.931
0.4153
45.84
0.115
17.18
18.88
1406
1.366
66.14
0.02226
295.5
9.771
0.335
35.45
96.63
217.9
37.27
153.9
1579
427.8
135.1
10.49
7.974
0.02199
275.4
239.4
6.221
6.341
215.2
0.02175
60.26
44.97
0.02198
0.02079
1244
0.2989
5.703
100.1
0.01948
60.08
49.94
156.2
26.84
92.41
127.4
154.4
18.36
195.6
373.2
0.2555
0.05049
18.07
0.7627
23.17
1043
145.2
21.62
10.69
726
341.5
5.438
246.7
8.456
0.0231
0.02079
27.75
1.386e+04
0.02177
75.42
0.0355
36.75
2678
3.452e+04
9.896
128.3
35.18
1.022e+04
0.02072
1115
30.3
0.02173
94.83
4372
13.93
0.0206
3.816
2621
0.1392
0.2328
0.02173
0.02237
1.183
0.02184
1.685e+04
179.7
0.1815
356.8
34.63
0.02132
97.32
952.4
1245
954.5
555.3
114.5
0.0219
0.08184
6436
78.01
1328
0.0218
164.4
0.02186
1.383
571.3
8.97
194.6
80.41
141.6
335.6
43.35
289.6
49.72
25.19
55.62
90.21
19.91
5162
10.51
417.2
128
61.18
0.02198
816.7
0.02197
35.76
179.7
72.55
2.94
0.03976
1339
0.08603
251.4
23.22
1.558
47
0.4629
790.8
106.1
0.02175
10.88
18.21
0.04115
0.02019
0.1635
0.851
7.805
0.4077
0.9197
15.34
326
0.2756
944
0.04003
805.1
0.02046
431.1
220.8
418.3
293.4
0.02198
0.725
191.8
0.02202
7.39
75.28
106.5
9.723
5.319
0.6883
16.88
9.481
64.53
538.8
1267
207.6
1512
51.31
253.6
0.02169
287.8
358.9
9.116
9.047
529.7
23.47
1194
145.4
412
0.02012
78.22
1522
315
5175
113.7
1.817
0.02172
31.58
0.02191
16.59
179.3
0.4672
0.7963
0.9312
155
402.7
0.3369
8.264
0.02126
409.4
0.02184
33.08
0.02224
3430
0.02188
6.382
0.02973
59.14
667.5
12.49
56.34
0.3343
6.083
1.718
8.428
371.1
0.05105
1.973
1217
11.42
11.16
106.6