/*--------------------------------*- C++ -*----------------------------------*\
| =========                 |                                                 |
| \\      /  F ield         | OpenFOAM: The Open Source CFD Toolbox           |
|  \\    /   O peration     | Version:  v2012                                 |
|   \\  /    A nd           | Website:  www.openfoam.com                      |
|    \\/     M anipulation  |                                                 |
\*---------------------------------------------------------------------------*/
FoamFile
{
    version     2.0;
    format      ascii;
    class       volScalarField;
    location    "5";
    object      p;
}
// * * * * * * * * * * * * * * * * * * * * * * * * * * * * * * * * * * * * * //

dimensions      [0 2 -2 0 0 0 0];


internalField   nonuniform List<scalar> 
100503
(
-0.245
-0.2461
-0.2428
-0.2417
-0.2459
-0.2446
-0.2421
-0.3475
-0.6001
-0.2396
-0.3313
-0.3585
-0.3448
-0.5222
-0.4111
-0.3409
-0.495
-0.3366
-0.2318
-0.4334
-0.344
-0.3415
-0.2447
-0.3269
-0.2415
-0.3418
-0.3429
-0.3015
0.03538
-0.2438
-0.2453
0.3508
0.3519
-0.09617
-0.2633
0.1167
-0.09268
-0.2622
0.0003691
0.03476
-0.1087
-0.006027
-0.2397
0.05126
-0.3092
-0.2622
0.1034
-0.308
-0.0821
-0.2971
-0.2419
0.05096
0.2385
0.2885
0.05111
-0.3298
-0.1486
-0.2608
0.0986
-0.2446
-0.03877
-0.315
-0.2385
0.08609
-0.3289
0.03353
0.002668
-0.2619
-0.4614
0.2403
-0.007324
-0.236
-0.2599
-0.3005
-0.09719
-0.1861
-0.2482
-6.73e-06
2.512e-05
0.08214
-0.3014
-0.2384
-0.1395
-0.005297
-0.2704
0.0003699
-0.2619
-0.2635
0.09445
0.4884
0.1798
-0.2622
-0.2651
-0.007006
0.009312
-0.2167
-0.2601
-0.1492
-5.478e-06
-1.666e-05
-0.2593
-0.2428
-0.04144
-0.238
0.2423
0.01169
-0.265
-0.2445
0.01122
-0.0935
0.0965
-0.2632
0.3401
-0.1106
-0.2686
-0.2439
-0.2629
0.01408
0.3351
-0.06744
-0.2701
-0.2354
-0.2382
0.3414
0.3824
-0.1575
-0.09639
0.07896
-0.05357
-0.2201
0.1506
-0.1935
-0.002723
-0.03331
-0.294
-0.1703
-0.2129
-0.1801
-0.2621
-0.1215
-0.05137
0.3333
-0.1183
-0.1675
-0.2405
-0.2007
-0.08305
-0.1413
-0.1481
-0.007
-0.3343
-0.2947
-0.01968
5.425e-05
0.001735
-0.2439
-0.01456
-0.2595
0.1071
-0.2426
-0.159
-0.3066
-0.2447
0.006784
-0.0003679
-0.2545
0.2948
-0.01951
-0.0611
-0.262
-0.006953
-0.2638
0.03336
0.3155
0.01274
-0.2314
-0.08288
1.655e-05
0.06964
0.001084
0.09838
-0.2687
0.01469
0.01559
0.07125
-0.1421
-0.002707
-0.2392
-0.1849
-0.2441
0.1558
0.03214
-0.2597
0.009163
-0.2623
-0.1399
-0.03224
0.4182
-0.07176
-0.3228
-0.2455
0.06417
0.07034
0.1169
-0.2991
-0.2403
0.1841
-0.1468
0.134
-0.004761
-0.2485
-0.1986
-0.3251
-0.2627
-0.2687
-0.09148
0.1344
0.01084
-0.06306
-0.1684
-0.2632
-0.08668
-0.0002317
-0.2383
-0.2457
0.4268
0.4917
-0.24
-0.08138
0.001745
-0.01311
-0.1024
-0.3403
-0.2639
-0.1423
-0.04155
0.2983
-0.03667
-0.3509
-0.2614
-0.2047
-0.2393
0.1414
-0.1812
0.005163
1.295e-05
-0.2706
0.006878
0.4561
0.4782
0.01967
-0.2383
0.008029
-0.1222
0.01997
-0.2704
-0.1821
-0.2968
-0.2687
0.07847
-0.2043
-0.2447
8.479e-05
-0.1172
-0.2645
-0.2632
-0.2262
-0.2762
6.982e-05
0.04077
0.3161
0.03681
-0.01639
-0.1701
0.2746
0.4912
-0.04633
0.05732
0.1266
-0.3346
-0.2406
-0.0707
0.001044
-0.08622
-0.2942
0.0109
0.2725
0.001151
-0.003434
-0.1122
-0.2588
-0.01627
-0.05838
0.1195
-0.2427
-0.2456
0.00909
-0.0002459
-0.1206
-0.2599
-0.1416
-0.2636
0.004772
0.04348
0.01428
-0.2788
0.2944
-0.1459
0.001805
-0.006959
0.09888
-0.05228
-0.3288
-0.3186
-0.1702
0.01621
0.007277
-0.01415
-0.000387
-0.2625
-0.0002084
-0.2622
0.2414
-0.003203
-0.2385
0.005446
-0.2621
0.2884
0.03672
-0.2458
-0.2623
0.4374
-0.264
6.941e-06
-0.2001
-0.0615
-0.2429
-0.006911
0.004278
-0.1473
0.0001061
0.001677
0.2263
-0.1799
-0.2083
2.436e-05
-0.2551
-0.0851
-0.3261
-0.2014
-0.1176
-0.1216
-0.2576
-0.1108
-0.06185
9.157e-06
6.029e-05
0.006396
0.05175
0.07667
0.03881
0.1422
-0.2616
-0.2194
-0.01416
-0.07727
-0.2159
-0.2392
-0.07005
-0.001355
-0.2492
0.1791
-0.2885
0.007819
-0.1488
-0.3527
-0.1102
0.01021
0.07887
-0.2631
-0.1061
-0.2704
0.005754
-0.07496
0.4203
0.003155
0.2051
0.1049
-0.2075
0.2757
0.007814
-0.2429
-0.1336
-0.1537
0.119
-0.2161
-0.2791
0.003081
-0.3586
-0.07025
-0.1804
0.3263
-0.2388
-0.2604
-0.1158
-0.1093
0.02028
-0.1657
-0.2439
-0.08008
-0.03371
-0.2447
0.2552
-0.2378
-0.2649
-0.002212
-0.1537
0.1906
0.0001604
-0.268
0.00476
-0.3144
-0.1633
0.07955
-0.323
-0.06232
-0.2757
-0.0001464
-0.1558
-0.04253
0.4999
0.391
-0.1717
0.02013
-0.2194
0.004737
-0.2643
-0.2595
0.004568
-0.2432
0.03872
-0.04464
-0.2696
-0.2308
-0.01573
-0.5692
-0.2629
-0.1739
-0.003366
-0.2632
-0.02628
-0.2233
-0.2771
0.004652
-0.2449
0.1347
-0.002109
-0.04244
-0.2641
-0.1544
-0.1978
-0.001355
-0.4186
-0.2002
-0.0003139
-0.2194
-0.08308
-0.2704
-0.01198
-0.2645
-0.2595
-0.1165
-0.2506
-0.1457
0.0005278
-0.2212
-0.2536
-0.01845
-0.2385
-0.1158
-0.06247
-0.2642
-0.08117
-0.08265
0.0006068
0.06904
-0.1062
-0.00345
0.01948
-0.1666
-0.06644
-0.002295
0.01261
-0.04203
-0.1753
-0.1609
-0.01197
-0.2129
-0.2389
-0.04896
-0.1219
-0.008699
-0.1479
-0.2459
-0.2702
-0.06302
-0.01372
0.04824
0.00476
-0.2654
0.0001668
0.06057
-0.3331
0.1906
5.41e-05
0.01924
-0.01151
-0.2421
-0.2382
0.01262
0.1554
-0.2629
-0.2706
-0.1192
-0.001671
0.04521
-0.1014
-0.001404
-0.1309
-0.2653
-0.2661
0.09938
-0.2599
-0.0006074
0.0005329
-0.2654
0.04809
-0.002583
-0.02244
-0.1232
-0.2397
-0.1148
-0.2613
0.1757
-0.04449
-0.2647
9.604e-05
0.07513
-0.1533
-0.2694
-0.1102
-0.4855
0.002733
-0.2626
-0.2622
-0.2667
-0.2601
-0.2498
-0.1141
-0.08071
-0.2317
-0.02437
-0.2169
-0.248
-0.2703
-0.04598
-0.199
-0.223
0.01783
0.0005337
-0.007459
-0.2643
-0.1227
0.0035
-0.3065
-0.2622
0.01764
0.1505
-0.2424
-0.002571
0.01487
8.687e-06
-0.03579
-0.2823
2.073e-05
-0.2652
-0.2391
-0.06795
0.001686
-0.02615
-0.2428
-0.3124
-0.2695
-0.1893
-0.2435
-0.2632
-0.1952
-0.01416
0.001878
-0.2625
-0.003442
-0.1819
-0.254
-0.0558
0.06121
-0.04217
0.1226
-0.002591
0.00307
-0.237
-0.1756
-0.0005682
0.4379
-0.2279
0.004999
-0.1024
-0.1194
-0.2907
-0.1555
-0.001612
0.05011
-0.2885
-0.07432
-0.02732
-4.741e-05
-0.2687
-0.2702
-0.2671
-0.07421
-0.267
0.4884
0.002096
-0.2653
-0.2685
-0.265
0.006631
-0.365
-0.003464
0.01618
-0.2706
0.005324
-0.2638
-0.1194
-0.136
0.1223
-0.02242
-0.09092
-0.2106
-0.01085
-0.1482
-0.2926
-0.08081
0.01211
-0.1314
-0.07346
-0.003371
-0.2631
0.005806
-0.1143
-0.2607
0.00546
0.002487
0.07003
-0.2887
0.003418
-0.002785
-0.2652
-0.171
-0.1147
-0.1655
-0.3689
-0.184
0.004122
-0.1168
8.51e-06
-0.2551
0.4214
-0.1252
0.4491
-0.03977
0.001951
-0.2611
-0.08516
-0.1674
0.09469
-0.2703
-0.2633
-0.05059
-0.2414
-0.2635
0.006157
0.1104
0.1184
-0.157
-0.283
0.053
-0.1175
-0.02886
0.005439
0.3911
0.1895
0.2967
0.003128
0.05205
-0.2153
0.09711
-0.03231
-0.003879
-0.2162
-0.2699
-0.1116
-0.2621
-0.2419
0.0001221
-0.0275
-0.2617
0.4274
0.0007565
-0.2093
0.001689
0.341
0.2962
0.004219
-0.0003161
-0.01441
-0.1301
-0.2472
0.008647
0.238
-0.1802
-0.1278
0.0008347
-0.238
0.1299
0.001007
0.002234
0.002136
-0.3513
0.0002145
-0.139
0.1847
-0.01571
-0.04827
-0.1037
-0.2401
0.1396
0.04529
-0.1838
-0.3142
-0.0002504
-0.2654
-0.037
0.0007196
-0.3076
-0.2633
0.009906
-0.265
-0.03146
0.1893
0.01888
-0.1585
-0.215
0.4532
0.1975
-0.3057
0.1526
-0.303
-0.1792
-0.1228
-0.01503
-0.2707
-0.2569
-0.2483
-0.1426
-0.1904
7.263e-05
0.01395
0.00169
0.01295
0.1943
-0.2572
0.3234
-0.02834
-0.07684
0.2058
-0.009786
-0.2626
-0.2601
0.001782
0.0001569
-0.2446
-0.2625
0.0001046
-0.2553
-0.146
0.06333
-0.1063
-0.2453
-0.2677
-0.009838
-0.2439
0.289
-0.2621
0.03667
0.4298
0.02622
-0.2679
0.001089
0.007172
0.1523
0.0202
0.4669
-0.00167
0.005002
-0.06407
-0.256
-0.1614
-0.2592
0.003981
0.0005843
-0.2597
-0.1801
-0.03743
0.3355
-0.05777
-0.006532
-0.2704
0.1335
-0.358
0.0103
0.004807
-0.2417
0.0003835
0.4635
-0.2665
0.2688
-0.2767
-0.1219
-0.2845
-0.2688
-0.2613
-0.3467
-0.04197
-0.3583
-0.3267
0.2702
-0.3068
0.007561
-0.2749
-0.02191
-0.1536
0.01856
-0.2634
-0.008522
-0.2017
0.04228
-0.2638
-0.1914
-0.0002216
-0.1737
0.07607
-0.04107
-0.2459
-0.2698
-0.2433
-0.2835
-0.2087
0.05387
-0.05809
-0.1888
0.0001905
5.436e-05
-0.07021
-0.012
-0.1582
-0.2627
-0.2681
0.2213
0.000533
0.004495
-0.2005
-0.1961
0.281
-0.01582
-0.02667
0.000631
0.0001674
0.005322
-0.239
-0.25
-0.264
-0.2699
0.006618
-0.212
-0.003301
-0.277
-0.2649
-0.06577
0.2807
-0.004878
-0.07928
-0.003564
-0.1233
-0.0007099
0.03824
-0.2716
-0.2539
-0.2468
0.01697
0.1288
-0.07597
-0.2404
-0.2702
0.2228
-0.008194
-0.0368
0.005996
-0.007687
-0.1129
-0.264
-0.1019
-0.1797
0.4997
-5.49e-07
0.09772
0.15
-0.0006637
-0.08329
-0.1222
-0.04975
0.05576
-0.1757
0.001248
-0.1945
-0.2589
-0.2663
0.002216
-0.2655
-0.09573
-0.2745
-0.2387
-0.03947
-0.2664
-0.1149
-0.199
-0.2841
-0.1564
0.126
-0.2444
0.02505
-0.008641
0.0009577
-0.2572
-0.2467
-0.2696
-0.2137
-0.2684
0.05341
-0.1095
-0.2628
-0.2687
0.1464
-0.2648
-0.2598
-0.2695
-0.2485
0.08621
0.05489
0.0131
-0.000167
-0.2427
-0.3023
-0.02364
-0.2425
-0.2219
-0.2704
0.09646
-0.2654
-0.2632
0.288
0.007336
-0.05561
-0.1284
-0.2455
-0.1351
0.2234
-0.2672
-0.1725
-0.2758
0.003034
0.4659
-0.2705
0.002047
-0.2703
0.06611
-0.2641
-0.0004329
-0.0005227
-0.003217
-0.2627
-0.2413
0.1907
-0.3066
-0.02173
-0.2057
-0.264
-0.1376
-0.01768
-0.1173
-0.2097
-0.2754
0.01275
0.2172
-0.05163
-0.3303
0.005416
-0.2479
-0.1556
0.2221
-0.2687
0.004484
-0.006223
-0.3088
0.07949
-0.1318
-0.0756
0.004796
-0.031
-0.2651
-0.3047
0.005825
-0.0883
-0.2595
3.205e-05
0.0004443
-0.1135
-0.2344
-0.2523
-0.2636
-0.03206
-0.2367
0.0384
-0.2639
0.0005464
-0.2672
-0.05296
-0.1902
0.1218
0.2167
-0.26
-0.2659
-0.2549
-0.0004579
0.0008333
-0.000983
-0.1437
-0.33
-0.3441
-0.2683
0.03564
0.0008946
-0.01612
-0.2295
-0.03055
-0.04753
0.1267
-0.03108
-0.06242
-0.08044
0.161
0.0299
-0.1099
-0.1008
-0.1441
-0.2049
-0.2688
-0.153
-0.2683
0.103
0.005952
0.08373
-0.2631
0.2549
-0.05733
-0.2791
-0.1395
-0.2546
-0.264
0.00041
0.02136
0.005644
-0.1865
0.2166
-0.1104
-0.001619
-0.08554
-0.2488
-0.2601
-0.2291
-0.26
-0.06015
-0.06385
-0.1024
-0.2075
-0.4218
-0.2645
0.4511
0.0203
8.791e-05
-0.3304
0.01018
0.01787
-0.2447
0.2068
-0.2444
-0.04617
0.2546
-0.189
0.0007218
-0.2672
-0.03209
0.001963
-0.0255
-0.2443
-0.2702
-0.2427
-0.1972
-0.1637
0.0006259
-0.3304
-0.2217
-0.2669
-0.2553
0.07171
0.004879
-0.2495
0.04867
-0.2458
-0.05305
-0.06696
-0.3244
0.3892
-0.005929
0.002953
-0.218
0.07611
-0.2215
-0.1635
-0.003541
-0.1988
-0.0001133
0.1354
0.002617
0.3157
-0.3079
-0.1427
0.002976
-0.1267
-0.244
-0.2125
-0.2971
-0.0001049
-0.003111
3.19e-08
0.04349
-0.2693
-0.1725
-0.1208
-0.03891
-0.3063
0.003158
-0.1671
-0.2139
-0.2598
-0.263
-0.1357
2.071e-05
-0.0006648
-0.1535
-0.2471
-0.2626
-0.2213
0.005994
-0.2046
-0.09739
0.1386
-0.2413
-9.581e-05
-0.1344
-0.1136
0.006333
-0.2395
-0.05636
-1.092e-05
-0.3541
-0.2629
0.1378
-0.0007865
-0.03791
-0.1384
-0.01528
0.3084
-0.004742
-0.2387
0.3084
-0.2705
-0.2686
0.1737
-0.3065
-0.151
0.06297
0.009647
0.3292
-0.269
-0.244
-0.005433
-0.003652
-0.2665
-0.2669
-0.1085
-0.002736
-0.1398
-0.07512
0.4323
-0.06848
-0.07496
0.348
-0.1325
6.46e-05
0.005723
-0.2622
-0.1676
-0.003604
-0.2408
0.07069
-0.114
-0.2448
0.1512
-0.1457
0.1043
-0.1637
-0.3085
0.3302
0.008384
0.4081
-0.2629
0.05141
0.07706
-0.04125
-0.04809
0.004714
-0.2447
0.03998
0.2829
-0.02278
0.1926
5.854e-05
-0.05341
0.3826
0.00689
0.0002282
4.255e-05
-0.001514
-0.01226
-0.2384
-0.1982
-0.1238
-0.2597
-0.0294
-0.2689
-0.199
-0.1601
-0.1354
-0.263
-0.2673
-0.2488
0.01482
-0.05091
0.2811
-0.003231
0.0002236
-0.187
-0.2401
-0.2505
0.1495
0.1094
-0.262
0.001324
-0.01165
0.1669
-0.2439
-0.2616
0.4319
-0.06272
0.001806
-0.2631
-0.0001538
-0.1242
0.1013
-0.2008
4.074e-05
-0.2677
-0.3069
0.002091
0.2163
-0.1392
0.02928
0.1504
-0.07165
0.03821
-0.07248
-0.00532
0.08196
-0.06707
-0.2656
-0.2026
-0.2757
-6.454e-05
-0.09294
-0.2446
0.0003432
-0.1203
-0.2627
0.001081
-0.04048
3.478e-05
-0.03484
-0.1784
-0.03478
-0.08338
0.007116
0.0002303
-0.005211
-0.3692
0.01464
-0.08466
-0.2593
-0.2073
-0.242
-0.2421
-0.2429
0.2722
-0.2693
-0.2561
0.2184
0.0002086
-0.2693
-0.07093
-0.02262
0.4151
-0.000447
-0.09145
-0.2481
-0.2321
-0.2653
-0.2628
-0.2589
0.002262
0.1238
0.0002014
-0.1374
-0.3057
0.002113
-0.154
0.2397
-0.2617
-0.07132
-0.2747
-0.2703
0.4064
-0.1376
-0.03348
0.1845
0.07493
-0.2446
-0.2151
-0.2628
0.22
-0.06797
-0.2227
0.03729
-0.2689
-0.03169
0.119
0.002359
-0.3036
-0.08355
-0.2498
-0.03235
-0.2652
-0.1911
-0.5223
0.0006832
0.0006524
-0.2631
-0.151
-0.0001079
0.3392
-0.2085
0.02042
0.1704
-0.1617
0.0764
-0.091
-0.01885
-0.2957
-0.304
-0.2421
-0.2914
-0.1942
0.2412
-0.08719
0.4159
-0.2605
-0.2053
0.01015
0.4734
-0.2555
0.3601
-0.2653
-0.001995
-0.05131
-0.05134
-0.2651
-0.2619
-0.0571
-0.01694
-0.2631
0.2944
0.1429
0.4215
-0.07757
-0.009834
0.005434
-0.3122
-0.0695
-0.2612
0.001125
-0.002266
-0.1692
-0.1727
1.019e-05
-0.305
0.3805
-0.1436
-0.2619
-0.08029
-0.2429
-0.2791
-0.1273
-0.09641
-0.2092
-0.2669
-0.2904
-0.2645
-0.00325
0.007153
-0.1931
-0.2258
-0.07117
-0.2669
-0.0309
-0.2394
-0.1846
-0.0002021
0.2533
-0.0576
-0.2446
-0.1625
-0.1706
-0.002187
0.09974
0.06367
0.02031
-0.2629
0.01232
-0.06448
-0.06048
0.1959
-0.2449
-0.004723
0.007567
-0.2599
0.3298
-0.2702
-0.06561
-0.2698
-0.06357
0.001856
-0.2643
-0.09285
1.667e-05
-0.006328
-0.2286
-0.01832
-0.1635
0.00102
0.04128
0.002904
0.03725
-0.2767
-0.2602
-0.02387
-0.2454
0.01705
-0.3066
-0.2447
-0.2452
-0.004049
0.1256
-0.2708
0.1974
-0.2447
-0.2606
7.916e-05
-0.05766
0.02318
-0.2608
0.3619
0.000824
-0.1054
-0.229
-0.2459
0.00171
-0.001337
-0.07839
-0.001475
-0.2621
-0.3087
-0.2598
0.003218
-0.1606
-0.2347
-0.3921
-0.0437
-0.09741
-0.2663
0.01398
0.4824
0.03281
0.0008733
-0.06055
0.1638
-0.04821
0.004745
-4.538e-08
-0.01988
0.004529
-0.2692
4.045e-05
-0.1678
-0.2663
0.02717
-0.2455
0.04876
0.001166
-0.01833
0.4049
-0.337
-0.2399
-0.1241
-0.2649
-0.002997
-0.2626
0.049
-0.1217
0.3354
-0.2549
0.4482
-0.03008
0.02189
-0.3209
-0.2201
-0.1965
-0.1674
-0.176
-0.2423
-0.2511
0.4129
-0.1431
-0.04998
-0.06059
-0.5102
-0.2393
-0.1017
0.4278
-0.06494
-0.27
-0.27
-0.2638
-0.2634
-0.2693
-0.07775
0.1039
-0.2095
-0.3284
0.3846
0.4701
-0.002661
0.03413
0.002796
-0.2302
0.1691
-0.00686
-0.1957
-0.1671
0.006766
-0.2169
-0.2084
-0.2407
0.06046
-0.2598
0.2103
-0.3015
-0.0007524
-0.05867
0.4828
0.01292
-0.1574
0.009705
-0.3066
-0.2613
-0.05653
0.004342
-0.004338
-0.002677
-0.1318
-0.2602
-0.07811
-0.1357
-0.2356
-7.955e-05
-0.2112
0.006041
0.07063
-0.003232
-0.00553
0.02372
-0.2597
-0.2499
-0.2598
-0.08023
-0.26
-0.2652
0.003356
-0.2647
-0.2263
-0.1007
-0.1213
-0.1256
0.1962
0.07871
-0.2429
0.141
-0.1108
0.4393
-0.308
-0.2508
-0.3234
-0.1183
0.00308
-0.2612
-0.2414
-0.267
0.4817
-0.002454
-0.124
-0.2691
-0.2642
-0.4082
-0.2403
0.4312
-0.09561
-0.003355
-0.2608
0.3587
-0.009582
0.1448
-0.2196
-0.005541
0.1036
-0.2426
-0.06135
-0.3217
0.1543
-0.1212
-0.1237
-0.0401
-0.3408
-0.2505
-0.3025
0.02233
-0.2558
-0.03456
0.01037
0.08783
-0.2613
0.0003748
-0.2972
-0.2597
-0.2397
0.01691
-0.08887
0.3223
-0.2387
-0.2699
-0.2381
-0.2039
-0.2665
-0.2627
-0.1386
-0.05675
0.1427
-0.0281
-0.01421
0.009205
-0.04024
0.1754
-0.004059
0.1173
0.02473
0.01713
-0.03519
-0.1402
-0.03068
0.006557
0.1223
0.1124
-0.2873
-0.1562
-0.2465
-0.258
-0.1362
-0.3045
-0.2606
-0.2399
-0.2689
-0.2428
-0.2653
-0.2454
-0.2644
-0.105
0.00023
-0.3064
-0.065
-0.2447
-0.3368
-0.2415
-0.3063
-0.2973
-0.1375
-0.2385
0.02712
2.603e-05
0.1004
-0.001024
0.005703
0.4736
0.002207
-0.2592
0.004889
0.2047
-0.2116
-0.3487
-0.2642
0.005458
-0.3027
0.4743
-0.2381
0.4722
-0.1241
-0.2455
0.006588
-0.007012
0.0001401
-0.1067
0.03741
-0.1264
-0.2596
2.31e-05
-0.09868
0.1255
-0.1227
-0.146
-0.1253
0.2011
0.4849
-0.01593
-0.2616
-0.3099
-0.2665
-0.1331
-0.2691
-0.1529
-0.0685
0.0001264
-0.33
-0.3147
0.01477
-0.2618
-0.1418
-0.3062
-0.2611
-0.1624
-0.2444
0.004604
-0.2398
-0.2696
-0.3032
-0.00474
-5.527e-05
-0.2514
-0.2612
-0.1445
0.005202
-0.2451
-0.0006729
-0.1317
-0.2225
-0.0001871
-0.3068
-0.2411
0.003808
0.2003
-7.552e-05
0.0783
0.3384
-0.1228
-0.2569
-0.0003712
-0.2138
8.275e-05
3.621e-05
-0.284
0.002743
-0.01144
0.2884
-0.2697
-0.1566
0.01063
0.0478
-0.09718
-0.2608
-0.03452
0.2216
-0.2384
0.02077
-0.3535
0.007036
-0.2637
-0.03705
-0.2452
0.004366
-0.2601
-0.2647
0.000406
0.02292
0.003872
0.0003786
0.002865
0.0556
0.005171
-0.06755
-0.2651
-0.09485
0.04456
-0.2049
-0.1814
0.1134
0.2877
-5.238e-05
-0.263
-0.1076
0.005757
-0.2389
0.005092
-0.2376
-0.006824
-0.2943
1.776e-05
-1.009e-05
0.02326
0.2184
-0.2504
-0.0004895
-0.2541
0.08878
-0.2031
-0.2607
-0.2703
-0.02503
-3.287e-05
-0.07882
-0.04384
0.3076
-0.09145
-3.104e-05
-0.2216
-0.2074
0.3058
-0.08875
-0.2651
-0.1028
0.00564
0.1274
0.4008
0.2544
-0.07804
-0.3074
-0.0003652
-0.2567
-0.2619
-0.2604
0.4312
0.004406
0.4008
-0.3226
0.0009124
-0.2008
-0.0304
-0.001251
-0.2636
-0.2658
-0.2857
0.0116
0.0365
-0.0002379
-0.2598
-0.2646
-0.0007972
-0.1151
-0.2379
-0.2707
-0.1886
0.07732
-0.09472
-0.2635
0.002352
-0.3095
0.274
0.3036
0.004504
6.117e-05
-0.01848
-0.07386
-0.1736
-0.06894
0.3348
-0.01674
-0.2703
-0.2299
-0.2654
0.0002844
-0.2436
0.0009974
-0.06975
0.005162
-0.2633
0.1819
0.008946
0.02121
0.01839
-0.3302
0.266
-0.2657
-0.1909
-0.2982
0.4794
-0.2617
-0.3139
0.002818
-0.1328
0.00015
-0.001302
-0.01104
-0.2578
-0.2652
-0.02945
5.594e-05
-0.2386
0.4461
-0.2235
-0.1959
-3.242e-05
-0.2416
0.0122
0.2232
-0.2597
-0.06275
-0.2606
-0.2444
-0.2678
-0.02113
-0.2396
-0.1471
0.04438
0.1867
-0.1104
-0.1592
-0.0003534
-0.3304
-0.27
0.0295
-0.1103
0.05271
-0.2592
-0.04668
-0.2149
-0.001059
5.887e-05
-0.08522
0.03778
0.0006242
7.499e-05
-0.09808
0.4999
0.0003043
-0.0256
-0.1496
-0.00527
0.1284
0.1783
0.4583
-0.2344
-0.2468
0.08408
0.09342
-0.251
-0.268
0.3413
-0.002526
0.4358
0.00269
-0.01619
-0.2597
-0.1432
0.007503
-0.2665
-0.26
-0.2649
-0.1595
0.3345
-0.07961
0.3167
0.139
0.01454
0.2618
-0.03149
0.02183
-0.06332
0.002088
-0.03093
-0.02825
0.005726
-0.07257
-0.08688
0.1223
-0.2681
0.0008433
0.1396
-0.2438
0.002012
0.1282
-0.2353
-0.000154
0.001714
-0.113
-0.2145
-0.269
-0.2634
-0.09329
0.005958
0.007289
-0.05447
-0.2151
-0.1646
0.007515
-0.2557
-3.881e-05
-0.01433
-0.09928
-0.05983
0.1176
-0.2651
-0.1547
0.002099
-0.165
-0.02241
-0.005517
-0.2706
-0.2916
0.1933
0.226
-0.1648
-0.05363
-0.2432
-0.1894
0.002618
-0.2684
-0.2625
-0.2648
-0.03271
-0.2612
-0.1568
0.2319
-0.1107
0.04066
-0.1376
-0.1332
-0.2663
-0.03904
0.106
-0.2611
8.683e-06
0.09144
1.136e-05
-0.01123
0.006725
0.09484
0.2005
-0.2446
-0.04585
0.04814
-0.2214
0.006776
0.008008
-0.2653
-0.2675
-0.1682
-0.0001404
-0.2597
-0.03355
-0.2632
0.1499
-0.2671
-4.691e-05
-0.07259
0.2258
-0.239
-0.4164
-0.5225
0.3332
-0.2613
-0.246
-0.08451
-0.2577
-0.004949
0.3766
0.08533
-0.2907
-0.2129
-0.04493
0.4158
-0.3067
-0.1155
-0.2581
0.01864
-0.008448
0.4312
-0.03823
-0.09264
-0.0827
-0.1919
-0.1452
-0.0008587
0.1691
0.1069
-0.06814
0.03203
-0.09262
-0.2382
-0.1601
-0.007663
0.1399
-0.08176
-0.1668
-0.006562
-0.2633
-0.01307
-0.5095
-0.2646
-0.2399
-0.003528
-0.2404
-0.2601
-0.1869
-0.1068
-0.265
-3.417e-05
-0.2853
-0.2523
0.0394
-0.2618
-0.2605
-0.1342
-0.2976
-0.2644
-0.05364
-0.2391
0.005531
-0.00404
0.004047
-0.297
3.251e-05
0.001736
-0.1602
0.2614
-0.06194
-0.1062
-0.2149
-0.2696
-0.00191
-0.2275
-0.2622
0.3212
-0.2696
-0.1902
-0.2644
-6.634e-05
-0.238
-0.2594
-0.00707
-0.3107
9.043e-05
-0.001172
0.1221
0.4733
-0.2033
-0.1488
-0.001186
-0.008949
0.1966
-0.2685
9.097e-05
-0.2404
-0.2448
6.894e-05
-0.1931
5.441e-05
-0.002375
-0.1588
-0.2083
-6.131e-05
1.127e-05
2.469e-05
0.002258
-0.1683
-0.1168
0.04946
0.02826
-0.2655
-0.2143
-0.2489
0.001184
-0.1492
-0.0298
-0.2483
0.006049
-0.0701
-0.2447
0.2384
-0.0007707
-0.2627
-0.3069
-0.2652
-0.2633
0.1526
-0.04154
-0.2224
-0.0429
-0.1601
-0.007632
-0.04722
-0.005904
-0.2652
-0.1599
0.2648
0.07081
-0.2476
-0.157
3.303e-05
0.005552
0.1245
-0.272
-0.001646
0.07684
-0.02358
0.0004529
-0.01631
0.4759
-0.2625
-0.03633
-0.2664
0.003949
0.1707
0.004928
-0.2653
-0.00303
0.01377
-0.1926
-4.98e-06
-0.3066
-0.2604
-0.2575
-0.2384
0.2377
0.0006757
-0.02893
0.372
0.01129
-0.2387
-0.1744
0.2256
-0.09444
-0.1611
-0.3272
0.2358
0.006335
0.0001136
-0.2468
0.001928
-0.2309
-0.008605
-0.1749
-0.07185
-0.2452
-0.03788
-0.0321
0.005389
-0.2864
-0.2595
0.3956
-0.05425
0.0003608
-0.2496
-0.05119
-0.09711
-0.2075
0.01161
-0.2424
-0.1596
-0.06395
-0.1037
0.1701
-0.03804
0.09396
-0.261
-0.2455
-0.1268
-0.24
0.0001019
-0.309
0.01101
-0.0002929
-0.2634
-0.255
-0.1474
-0.07361
-0.3307
0.06232
-0.2671
-0.2594
-0.2526
-0.1543
0.1256
0.1458
-0.2652
0.09117
-0.2602
-0.0001362
-0.2666
8.138e-06
-0.2627
-0.09476
-0.3534
-0.2179
-0.1467
-0.05658
0.007154
-0.09999
0.4973
-0.2356
0.09205
-0.2597
-0.0003343
-0.0614
-0.2639
-0.1104
-0.1459
-0.08515
-0.2705
-0.2435
-0.2813
-0.04273
0.003409
0.008777
-0.245
0.08362
-0.3002
-0.2404
0.0008665
-0.2419
-0.000198
0.4966
-0.2601
7.887e-05
0.005709
-0.003988
-0.2458
0.2556
-0.1499
-0.2652
-0.26
-0.2386
-0.02105
-0.007535
0.008694
-0.3094
0.0009806
-0.2637
-0.1749
-0.3066
-0.07849
-0.05153
0.004883
-0.2399
-0.2641
-4.614e-05
0.4476
-0.0438
0.1391
-0.04145
0.321
-0.302
-0.1667
-0.2395
-0.274
0.0004081
0.04238
-0.2512
-0.2664
-0.006558
-0.2641
0.04399
0.1088
0.01665
-0.2762
-0.02974
0.001115
-0.03756
-0.1428
0.1375
-0.261
-0.2644
-0.2594
-0.09975
0.001254
-0.2593
-0.2614
-0.05354
-0.0001758
-0.2648
-0.001995
0.002821
-0.3
-0.2617
-0.239
-0.2678
0.1906
-0.02311
-0.2429
0.005403
-0.1556
-8.115e-06
-0.0241
-0.2172
0.2549
-0.2601
-0.000346
-0.003954
-0.2446
-0.2649
-0.201
-0.06511
-0.2652
0.1157
-0.0005599
0.4181
1.904e-06
-7.138e-06
0.02136
-0.1374
-0.3017
-0.1612
-0.3395
-0.2579
0.2242
0.0006286
0.1077
-0.1665
-0.257
-0.2653
-0.2276
-0.1728
-0.2709
1.175e-05
0.001724
0.0005036
-0.2856
0.003328
-0.248
0.4998
-0.1705
-0.265
-0.3258
0.06903
-0.1568
-0.0725
-0.226
0.003112
-0.2647
-0.2505
-0.001085
-0.0003827
-0.06828
-0.3468
0.1728
0.2735
-0.2701
-0.002655
-0.04291
-0.1057
-0.2678
0.3371
0.08031
0.01897
-2.077e-05
-0.000364
-0.03107
-0.2653
-0.2618
0.004045
-0.2653
-0.2924
-0.2699
-0.2654
0.005399
-0.01133
-0.2636
0.02346
-0.2132
0.1593
-0.305
-0.197
0.2318
-0.1039
-0.0002882
-0.05812
-0.2676
-0.01882
0.01786
-0.2896
-0.03946
0.4598
-0.07502
-0.08247
-0.2475
-0.00186
-0.2682
0.001812
-0.2597
0.3995
-0.0001178
-0.2623
-0.02655
-0.005628
-0.2368
-0.0314
0.04464
-0.08616
-0.09399
-0.2446
0.06235
0.3348
-0.4787
-0.2619
0.1844
-0.08746
-0.01992
0.03477
-0.08549
-0.274
0.1459
0.1981
-0.2895
-0.2621
-0.244
1.482e-05
-0.002737
0.3002
-0.2629
-0.2614
-0.01055
0.02438
-0.2657
0.01964
0.1034
0.2025
-0.2683
-0.2893
-0.0126
0.01742
-0.09561
0.08809
-0.00571
-0.2628
0.002955
0.1542
-0.1357
0.0005993
-0.1285
-0.1817
-0.3391
-0.3093
0.0001299
0.001935
0.002071
0.3642
0.003968
0.03945
-6.074e-05
-0.242
-0.1692
-0.2121
-0.2188
-0.2428
-0.1175
-0.2171
-0.2856
-0.1687
-0.1208
0.4552
-0.2602
-0.2135
0.0503
-0.0004204
0.005847
-0.3245
-0.2636
-0.3811
-0.2429
0.1579
-0.2632
-0.07891
-0.251
-0.2595
-0.2646
-0.0039
0.004481
0.1212
-0.1871
0.04505
0.007763
0.007959
-0.07208
0.0008021
-0.3029
0.1349
1.547e-06
-0.0998
-0.04983
-0.06377
-0.0004529
0.004542
-0.02311
-0.1523
-0.2655
-0.003557
-0.2673
-0.0005898
-0.1129
-0.1795
-0.2654
0.0375
-0.2599
-0.2636
0.4417
-0.2899
0.3814
0.4958
-0.2598
-0.0002532
-0.2626
0.0347
0.07912
5.994e-05
0.2408
-0.2432
0.09068
-0.004523
0.03216
-0.1058
-0.265
0.007227
-0.2454
-0.05173
0.1485
0.235
-0.02923
-0.004578
-0.2637
-0.2742
-0.02836
-0.2628
0.2195
0.3019
-0.001801
-0.2594
-0.1959
0.2379
0.0009765
-0.1728
0.001694
0.4998
-0.2608
-0.1605
-0.2431
-0.2661
0.177
0.00783
0.009422
-0.269
-0.1935
-0.003332
-8.31e-07
-0.2647
0.2728
-0.0801
0.4321
-0.2952
0.03352
0.3821
-9.157e-05
-0.2814
-0.2666
-0.2025
-0.2447
0.002651
-0.2743
0.004865
-0.0009533
0.1536
-0.2611
-0.2595
-0.2706
-0.2447
-0.2378
-0.245
-0.02564
-0.2582
0.03664
0.4126
-0.2661
-0.2519
-0.1147
0.3715
0.08483
-0.2616
0.0008411
-0.2467
0.001751
-0.2631
0.03667
-0.001508
0.231
0.05871
-0.2955
-0.08061
-0.2677
-0.2715
-0.2709
-0.1358
2.602e-05
-0.1599
0.03739
0.1035
-0.03844
-0.2607
-0.1085
-0.1229
-0.2577
-0.2575
0.007794
-0.2614
0.0848
0.07451
-0.08099
0.3853
-0.1459
0.07825
-0.2908
-0.2634
-0.3304
0.3579
0.008645
-0.2521
-0.008435
-0.2607
0.07437
0.1616
-0.000238
-0.1195
-0.08095
-0.2435
-0.07163
-0.1566
-0.2667
-0.008311
-0.1289
-0.3558
-0.2476
-0.1344
-0.04393
-0.05706
0.1375
0.04037
-0.004953
0.2022
0.0616
0.2855
0.0289
-0.2445
-0.1377
-0.2447
-0.03228
-0.2409
-0.2689
-0.2068
-0.2651
-0.09033
0.02004
-0.2327
0.3282
-0.2647
-0.2387
-0.2002
0.4058
-0.2609
-0.05011
-0.3082
-0.2607
-0.2021
-0.3303
-0.1092
0.002286
0.2102
-0.05163
-0.1995
-0.2703
0.01839
-0.154
0.01931
0.07266
-0.2352
0.007887
-0.2706
-0.003377
-0.1084
-0.2483
-0.01065
-0.2318
-0.339
-0.002874
-0.07996
-0.2677
-0.2602
-0.2612
-0.3088
-0.03386
-0.2607
0.1537
0.002811
0.007916
0.005633
0.01929
2.799e-05
-0.2386
0.2191
-0.2649
0.05133
0.4393
-0.2027
0.1238
-0.2718
0.005108
0.000133
-0.3085
-0.01219
-0.2609
0.03286
-0.00202
0.04843
-0.0003957
-0.263
0.3926
-0.02092
0.02808
0.01604
-0.2635
0.2224
-0.1115
-0.2226
-0.09867
0.2819
-0.06865
-0.2627
0.00857
-0.2624
-0.257
0.005503
-0.06492
-0.04952
-0.2642
-0.2195
0.3097
-0.07837
-0.2059
-0.07043
0.008381
-0.243
-0.239
0.2178
0.005531
0.004934
-0.2607
-0.009792
0.1844
0.01293
-0.09674
-0.2676
-0.03251
-0.09414
0.00215
-0.266
-0.2604
-0.1752
0.001497
-0.2597
0.2406
0.00605
-0.2014
-0.2625
-0.2885
0.127
-0.2638
-0.2574
-0.0412
-0.2385
-0.2612
6.418e-05
0.1861
-0.2603
-0.2147
7.323e-05
0.08078
-0.0002792
-0.1308
-0.217
-0.2716
0.1562
-0.2396
-0.3027
0.01734
-0.2687
-0.2447
-0.01738
7.29e-05
0.005491
-0.3076
-0.1637
-0.219
-0.09798
0.002615
-0.0003265
-0.2202
0.03579
-0.05937
-0.2889
-0.08643
0.1088
-0.1028
-0.3306
-0.2645
-6.369e-05
-0.2719
-0.2652
-0.05315
-0.08044
-0.2642
-0.2641
-0.2619
-0.3084
-0.06524
-0.05441
-0.0393
0.1214
-0.1932
0.0373
-0.1605
0.0034
-0.2006
-0.197
-0.2811
0.2202
-0.3323
-0.01687
-0.2659
-0.2493
-0.2626
0.1171
-0.006123
0.0004194
-0.007853
0.1344
-0.2083
-0.2649
-0.4493
0.03713
-0.009669
-0.08235
-2.309e-05
0.002283
-0.1186
-0.1162
0.003895
-0.08128
-0.2264
0.001549
-0.1892
0.01499
-0.0965
-0.3068
-0.3263
-0.2632
0.1887
0.002731
3.08e-05
0.05017
-0.05299
-0.001266
0.1392
0.3448
-0.03651
-0.265
-0.2579
-0.2649
0.2222
-0.2423
-0.2418
-0.08198
0.00819
-0.2599
0.2219
-0.01074
-0.03388
0.06887
-0.1135
0.01155
-0.2391
-0.05496
-0.2594
1.978e-05
0.2791
-0.2627
-0.2641
0.001071
-0.2597
0.002103
-0.2448
1.029e-05
-0.007683
-0.1079
-0.2232
0.1823
-0.0005601
-0.01743
-0.01488
-0.4673
0.08519
-0.2251
0.005387
-0.2705
0.3079
0.04419
-0.02421
0.1178
0.4724
-0.1709
0.3707
-0.1663
-0.1331
0.05699
-0.181
-0.07359
-0.5191
-0.2483
0.1692
-0.1669
-0.02066
-0.262
-0.00335
-0.123
-0.1649
-0.2649
-0.004212
0.007532
-0.2659
-0.004292
-0.2707
0.1836
-0.2012
0.05832
-0.001217
-0.001975
-0.2587
-0.2435
-0.1643
-0.05027
0.004091
0.002947
-0.2652
0.002699
-0.2466
-0.003409
-0.0281
-1.123e-05
-0.136
-0.2079
-0.02799
0.0001291
-0.2959
-0.1745
-0.2606
-0.1382
0.003169
-0.2598
-0.2665
-0.01176
-0.2639
-0.2399
0.1114
0.1438
-0.000132
0.007342
-0.1289
-0.2416
-0.02532
-0.07336
0.001405
-0.2648
0.1029
-0.2611
-0.1323
-0.2703
0.3178
-0.2824
-0.07459
-0.262
-0.2679
0.1232
-0.265
0.18
-0.3402
2.427e-05
0.2609
-0.00287
0.1942
-0.1191
-0.002575
-0.001047
-0.2178
0.464
0.001384
-0.1248
0.3068
-0.03195
-0.2657
0.0006707
-0.1383
0.3947
-0.2994
-0.3057
-0.2605
-0.2601
-0.2444
-0.2203
0.005159
-0.01276
-0.1129
-0.01607
0.04349
0.04685
-0.2605
0.002251
-0.01974
-0.003659
-0.2619
-0.2635
-0.2626
-0.1336
-0.001976
-8.951e-05
-0.2641
-0.03703
-0.2445
-0.2646
7.025e-05
7.318e-05
0.08276
0.2776
0.07951
-0.2974
0.3359
-0.291
-0.1944
0.4345
9.84e-05
-0.1732
-0.2695
-0.1613
-0.2156
-0.2488
-0.2704
-0.2859
-0.2603
-0.2706
-0.1983
0.3435
-0.146
-0.2609
-0.05328
-0.04793
-0.01463
-0.2591
-0.1233
-0.01281
-0.2597
-0.02725
-0.2486
-0.2615
-0.1624
0.1246
-0.2431
0.002775
-0.107
-0.2473
-0.2627
-0.03952
-0.06209
-0.2661
-0.2682
-0.2622
0.1546
-0.31
0.2129
-0.09387
-0.3031
-0.2731
-0.3092
0.042
0.1402
-0.2622
-0.2647
-0.199
-0.01606
-0.2437
0.01077
-0.163
0.3011
-0.2449
0.04539
0.0005198
0.1158
-0.3256
-0.268
-0.002511
0.002035
-0.06873
0.008099
-0.09478
-0.1619
0.06413
0.1277
7.629e-05
0.005517
-0.07908
-0.1258
-0.3274
0.4804
-0.2602
4.009e-05
-0.2601
-0.02567
-0.2599
0.008282
-0.2013
-0.2496
-0.3079
-0.2452
0.00189
-0.05104
-0.02189
0.001751
-0.2449
-0.3515
-0.2647
-0.003298
0.005307
-0.3109
-0.2691
-0.1712
0.3614
0.2634
-0.155
-0.1239
-0.123
-0.2663
-0.2596
-0.1387
0.2032
-0.266
-0.000286
-0.2279
0.3961
-0.2747
-0.239
-0.27
-0.05883
0.09535
0.1205
-0.3082
-0.01127
-0.2698
0.3117
0.2049
-0.2692
0.03289
-0.2581
-0.2236
-0.2207
-0.1624
0.002943
0.4584
-0.2649
-0.3052
-0.2666
0.06823
-0.2639
-0.2734
0.0006992
0.4806
-0.2599
-0.2458
-0.1045
-0.1798
-0.2639
0.1678
0.04618
-0.2679
-0.1601
0.1294
0.00561
-0.1531
-0.04555
0.4713
0.1058
0.1807
-0.2707
0.0005272
-0.2842
-0.1684
-0.03618
-0.1372
0.0466
-0.2611
-0.3291
-0.2041
-0.03188
-0.2582
-0.1125
0.4464
-0.2632
0.1099
0.1907
0.2806
0.4934
0.2686
0.002536
-0.0003194
-0.09556
-0.2613
0.07427
-0.0004763
0.01499
-0.2446
-0.05218
-0.1042
-0.3279
-0.02417
0.1463
0.3441
-0.03758
-0.05545
0.001682
1.421e-05
-0.02477
0.4128
-0.3283
0.4959
-0.2647
-0.06982
-0.001165
0.0002019
-0.1221
-0.0002618
-0.1513
-0.2141
0.03095
-0.1418
0.0001092
-0.2384
0.1253
-0.003323
-0.008229
-0.2705
-0.2655
-0.2679
0.000225
0.03973
0.05737
-0.04203
0.001413
-0.08776
-0.2605
-0.3049
-0.1639
-0.07863
0.1123
-0.2447
-0.1958
-0.02713
-0.001671
-0.3078
-0.1194
-0.03113
-0.01361
-2.158e-05
-2.312e-05
-0.2447
0.004487
-0.0004305
-0.1368
-0.2644
-0.2622
-0.2351
-0.1231
-0.01692
0.172
0.158
0.2251
-0.07954
-5.312e-05
-0.229
-0.3384
0.1058
-0.2654
1.617e-05
0.003164
-0.2642
-0.2532
-0.08021
0.1226
-0.284
-0.122
-0.1676
-0.5297
-0.03889
0.005851
-0.2603
0.1415
0.4376
-0.003004
0.02825
-0.07099
-0.263
-0.2457
-0.1953
-0.1061
0.000145
0.05489
-0.2707
0.1705
-0.2361
0.02261
-0.2413
0.1369
-0.1776
-0.2465
-0.308
-0.08139
0.4942
-0.2335
-0.06133
0.2502
-0.2435
-0.2597
-0.2705
-0.1458
0.1425
-0.2082
0.002065
-0.103
0.2966
0.0002375
0.006349
0.2004
0.000219
-0.0001355
0.02031
-0.2714
-0.1918
-0.2704
-0.2691
0.1282
-0.2706
-0.04578
-0.2633