/*--------------------------------*- C++ -*----------------------------------*\
| =========                 |                                                 |
| \\      /  F ield         | OpenFOAM: The Open Source CFD Toolbox           |
|  \\    /   O peration     | Version:  v2012                                 |
|   \\  /    A nd           | Website:  www.openfoam.com                      |
|    \\/     M anipulation  |                                                 |
\*---------------------------------------------------------------------------*/
FoamFile
{
    version     2.0;
    format      ascii;
    class       surfaceScalarField;
    location    "5";
    object      phi;
}
// * * * * * * * * * * * * * * * * * * * * * * * * * * * * * * * * * * * * * //

dimensions      [0 3 -1 0 0 0 0];
oriented        oriented;


internalField   nonuniform List<scalar> 
149048
(
-9.508e-09
9.641e-09
-1.995e-08
2.002e-08
-2.098e-07
2.099e-07
5.733e-07
-5.732e-07
2.02e-08
-2.015e-08
-2.748e-08
2.759e-08
-6.988e-07
6.99e-07
4.572e-06
-4.574e-06
-8.989e-06
8.993e-06
1.442e-07
-1.441e-07
-1.063e-05
1.063e-05
-2.767e-05
2.767e-05
0.0001622
-0.0001622
0.0001622
-8.164e-06
8.166e-06
-3.554e-05
-0.0001267
0.0002077
-4.549e-05
1.147e-05
-1.146e-05
1.848e-06
-1.848e-06
0.0002077
-4.151e-05
4.15e-05
-4.151e-05
-1.093e-08
1.109e-08
-7.514e-06
7.504e-06
-4.975e-07
2.877e-07
-8.964e-06
-3.255e-05
7.566e-06
3.393e-05
0.0001214
-0.0001034
-1.816e-05
0.001369
-0.001356
-1.315e-05
-1.256e-05
7.735e-06
4.827e-06
1.855e-08
-1.845e-08
-0.0004885
0.0004513
3.717e-05
-0.0001625
-0.000326
0.0007176
-0.0003509
-0.0003667
0.0003744
-0.0003273
-4.711e-05
0.001236
0.0007991
-0.002035
0.0003978
0.0003198
0.0003011
0.0006042
-0.0009053
0.7709
-1.162
0.3914
-6.199e-05
0.001431
-0.001042
0.0009394
0.0001022
0.01753
0.1128
-0.1303
3.722e-07
-3.72e-07
0.002512
-0.002562
5.001e-05
-0.0001998
0.0001612
3.868e-05
-0.0001781
-0.0003619
0.00054
-0.03267
0.01969
0.01298
-0.0002053
5.563e-06
-0.001501
0.001191
0.0003106
0.0001668
-4.538e-05
7.406e-05
-3.132e-05
-4.273e-05
0.0004214
0.0004997
-0.0009211
-0.008364
0.005262
0.003101
0.0001308
0.0004015
-0.0005323
0.0006034
0.001908
4.04e-05
-4.64e-05
6.054e-06
0.00197
-0.001561
-0.0004084
-2.579e-06
0.0004719
-0.0004693
-0.0004507
0.0011
-0.0006488
-4.608e-06
1.295e-05
-8.343e-06
0.2199
-0.2704
0.05053
0.001409
0.001409
-0.002817
-8.599e-07
8.355e-06
-7.494e-06
-0.0008028
0.0002113
0.0005915
-3.876e-05
3.877e-05
0.001931
6.38e-05
-0.001995
0.2689
-0.03904
-0.2298
2.112e-05
-0.0007041
0.000683
0.0001163
9.139e-05
-0.0007583
0.000966
-0.0002077
-0.001909
-0.0003659
0.002274
-0.001946
0.00629
-0.004344
1.204e-05
-0.0002779
0.0002658
0.0001003
-0.0002036
-0.004425
0.00369
0.0007354
-0.0006981
0.0006766
2.158e-05
-1.642e-06
-7.115e-05
7.28e-05
1.603
-0.6682
-0.9349
1.596
-0.6654
-0.9301
-0.0004446
-0.0003582
0.0008203
0.001377
-0.002198
-4.705e-06
4.995e-06
-2.89e-07
0.00396
-0.004717
0.0007568
-0.08414
0.1017
-0.0003966
0.0003633
3.321e-05
-0.1723
0.9432
-0.0001169
0.0004597
-0.0003428
0.0001075
-0.0001848
7.727e-05
0.0007496
-0.0004484
-0.0003012
-1.333e-05
-3.863e-05
5.196e-05
0.00131
-0.002365
0.001056
-0.0007639
0.0007859
-2.194e-05
0.0002656
-0.0005239
0.0002583
0.1563
-0.04345
-0.09751
-0.1736
0.2711
-6.883e-05
-0.0002236
0.0002924
-6.98e-05
-0.0001573
0.0002271
0.001582
0.0003875
1.738
-0.1351
1.73
-0.1342
-0.0002359
0.0006757
-0.0004398
-1.022e-05
-2.342e-06
-0.001374
0.001217
0.0001567
0.0006514
-0.0005847
-6.673e-05
-0.004406
-0.003957
-0.0921
-0.05696
0.1491
-0.0002622
0.0002856
-2.337e-05
3.705e-05
-2.874e-05
-8.307e-06
-0.004905
-0.003693
0.008598
0.0003756
0.0005868
-0.0009624
0.0004621
0.0002875
9.799e-05
0.0002765
-0.0005502
0.000636
-8.58e-05
-0.001485
0.002188
-0.0007025
0.0006899
-0.0006418
-4.815e-05
4.541e-05
-3.929e-05
-6.115e-06
-0.0007461
0.0005681
-0.001042
0.001681
-0.0006391
0.0003653
-0.0005791
0.0002139
0.01621
-0.03207
0.01586
0.0008617
-0.0009168
5.504e-05
0.003059
-0.005005
-4.585e-07
-5.96e-06
6.42e-06
-0.0002619
-0.0002883
9.069e-07
0.0004104
-0.0004113
0.0001232
-0.0003223
0.0001991
-0.002419
-0.002006
0.004369
-0.006961
0.002592
-0.001221
0.001088
0.0001332
-4.154e-06
0.0001393
-0.0001351
0.000911
0.0004407
-0.001352
0.0006685
0.009729
-0.0104
0.085
0.585
-0.67
-0.09595
0.08405
0.01191
0.0001265
-0.0001817
5.518e-05
-0.002242
0.001136
0.001106
-8.259e-05
-0.0002945
0.0003771
0.002191
-0.002612
0.0004206
0.0002649
-8.24e-05
-0.0001825
0.002457
-0.003593
0.001136
0.05812
0.06263
-0.1207
-0.007533
0.004509
0.003024
-0.0008107
0.001476
-0.0006656
-0.006961
0.007788
-0.0008278
-5.427e-05
3.923e-05
1.504e-05
0.0004086
-0.0003763
-3.237e-05
0.0463
-0.0325
-0.0138
0.001715
-0.00126
-0.0004544
-0.0009357
0.0006839
0.0002518
0.3796
-0.4866
0.107
0.0001058
-0.0001219
1.611e-05
-0.0001381
9.787e-05
4.02e-05
0.4277
-0.1908
-0.2368
-1.656
0.3942
1.262
-0.001498
0.001039
0.0004586
2.269e-06
-2.547e-06
2.79e-07
0.00244
-0.03076
0.02832
0.0008439
-0.0004782
-0.0003658
-0.01338
-0.0193
-4.149e-05
0.0001134
-7.19e-05
-0.0002629
0.0003861
5.501e-05
-0.0001083
5.329e-05
-2.925e-06
3.149e-06
-2.237e-07
-0.004136
0.003439
0.0006966
0.7305
-0.6517
-0.07884
-0.0007598
0.001809
-0.001049
0.000676
-0.0007512
7.515e-05
0.385
0.0426
-0.1657
0.171
-0.005289
0.001118
-0.0008169
-0.000194
-0.001715
0.0003077
-0.0002753
-3.235e-05
0.002641
-0.00071
-0.0005418
0.0004104
0.0001313
-0.3128
0.2716
0.0412
3.008e-05
-3.137e-05
1.288e-06
-0.0004632
-0.001038
0.6822
-1.16
0.4777
-0.008437
0.006075
0.002362
0.2844
-0.2535
-0.03087
-0.001543
0.0009292
0.0006139
0.0003414
-0.0002012
-0.0001402
0.0003982
-0.001971
0.001573
-7.552e-05
0.001167
-0.001092
-0.004697
-0.00374
0.001075
0.0006396
0.6696
-0.5846
5.687e-07
1.9e-06
-2.468e-06
-0.0001154
-0.0005827
2.009e-05
1.696e-05
-0.005003
-0.002074
0.007077
-0.0003958
0.001165
-0.0007695
0.0004276
-0.0008408
0.0004132
-0.2844
0.1869
0.0001085
-0.0001879
7.942e-05
0.004751
-0.0007904
-0.04467
-0.05128
-9.997e-05
2.988e-05
7.009e-05
0.01992
0.02293
-0.04284
0.0001046
-0.0001753
7.073e-05
-1.189e-05
2.006e-05
-8.166e-06
0.0007623
-0.0004215
-0.0003409
0.0004269
0.0003355
0.002754
-0.001518
0.000105
6.187e-05
-3.346e-05
-2.081e-05
-0.0002022
0.001113
-0.000911
-0.0004705
-0.0004652
-0.001508
0.0003846
0.001124
-0.0005611
-0.0009365
2.079e-05
-5.5e-05
3.42e-05
-1.484e-06
0.0004101
-2.755e-05
2.751e-05
-8.893e-05
-0.0006572
0.0001189
0.0002225
-0.004018
0.001163
0.002856
-0.001148
0.002054
-0.0009058
-0.1809
0.08881
0.000772
0.0001864
-0.0009584
0.000616
-0.0005229
-9.306e-05
-0.0002873
0.0003287
-4.145e-05
-0.00448
0.00326
0.00122
-1.328
0.9369
0.3909
-9.807e-07
1.806e-06
-8.249e-07
1.212e-06
-5.282e-07
-6.835e-07
-7.957e-05
-8.529e-06
8.81e-05
9.454e-05
-6.838e-05
-2.616e-05
-9.171e-07
6.789e-07
2.384e-07
-0.002346
0.002084
0.0002611
-0.8703
0.6466
0.2237
-0.0009516
-0.0004923
0.001444
-0.0004594
-0.0005823
6.307e-05
4.215e-06
-6.725e-05
-0.0009972
0.001076
-7.91e-05
-5.356e-05
0.003469
-0.003415
-0.0002036
-0.00117
0.001595
-0.002259
0.0006641
-0.00627
0.2262
-3.825e-05
-1.844e-05
5.67e-05
-0.0001067
0.0001888
-8.209e-05
-0.0001833
0.0001089
7.446e-05
-1.989e-05
4.129e-06
1.576e-05
0.001153
-0.0008638
-0.0002892
0.0218
-0.01203
-0.00977
0.1291
-0.05539
-0.07368
-0.4507
1.133
0.000454
-9.796e-05
-0.0003561
0.1746
-0.2717
0.09718
0.0001104
-5.609e-05
-5.431e-05
-0.0004004
0.0002933
0.0001071
-0.1417
-0.006256
0.1479
-2.038e-07
1.587e-07
4.568e-08
-0.4467
0.1645
0.2822
0.0024
-0.007386
0.004986
-0.02469
0.1227
-0.098
0.0006766
-0.0006142
-6.245e-05
0.000522
0.0009845
-0.001506
-0.002476
0.00188
0.0005964
0.0002047
0.0004852
-0.003606
0.001216
0.00239
-4.315e-05
-0.0001402
-2.31e-07
-2.694e-06
-1.757
0.1008
-0.001977
0.0009837
0.0009935
8.55e-05
-0.0001566
7.108e-05
-0.0002518
0.0002687
-1.686e-05
0.0002713
-0.0004659
0.0001945
-0.002313
0.001915
0.0003976
0.6927
0.03788
0.01684
-0.01006
-0.006783
-0.0002948
-0.000247
0.007084
0.0001034
-0.007187
0.001223
-0.001538
0.0003144
-0.0004853
-0.001757
-0.0007152
0.0004814
0.0002338
5.971e-05
3.483e-05
-0.001757
0.001701
5.563e-05
0.01096
-0.04294
0.03198
-0.0003764
-0.0004625
0.0008389
2.147e-05
8.433e-05
0.0003812
0.0002703
0.0001704
0.0007083
-0.0008787
-0.2437
0.6447
-0.401
-0.00254
-0.00194
-8.242e-05
0.000209
-0.1516
0.09777
0.05381
-0.0001218
-0.0003673
0.0004891
0.3785
-0.6222
0.5182
0.2595
-0.7776
-0.0006787
0.0007405
-6.179e-05
-0.0006515
0.0004156
0.003708
-0.02416
0.02045
-0.1075
0.001915
-0.001767
-0.0001474
0.0001472
-0.0001717
2.45e-05
5.558e-07
6.567e-07
0.001237
0.01236
-0.0136
1.21
-0.828
-0.382
0.0008411
-0.000756
-8.515e-05
0.0002315
-0.0004021
0.0001706
0.0009961
-0.0009975
1.42e-06
0.0002621
-6.87e-05
-0.0001934
-0.6167
0.3422
0.2745
-0.009118
0.002514
0.006604
0.0002234
-0.001265
-0.000193
0.0003868
-0.0001937
0.0001706
0.0005054
0.0009188
-0.0002882
-0.0006306
-0.3838
-0.4865
0.1285
0.02773
-0.001521
-2.237e-05
-8.547e-05
-0.001136
-2.316e-05
-1.56e-05
-0.002195
0.00183
0.0003649
0.06912
-0.04251
-0.02661
0.0009424
-0.001018
-0.001998
-0.002138
-0.03874
0.04118
1.112
0.09848
-0.000215
-0.0004395
0.0006545
0.112
0.1723
0.0002685
-0.000339
7.052e-05
-2.838e-05
-0.0007299
-0.005358
0.0001615
0.005196
-1.279e-05
1.193e-05
-0.1186
0.1714
-0.05277
0.0002161
4.883e-05
-0.0004728
0.0006036
-0.004763
-0.001041
0.005804
0.0001263
-0.0001008
-2.554e-05
-0.0007082
-5.575e-05
-0.0005819
3.023e-05
0.0005516
0.0002012
-0.0002418
4.057e-05
-0.5795
1.126
-0.5462
-0.0003683
0.0002794
8.89e-05
0.01768
-0.00361
-0.01407
0.01825
-0.04143
0.02318
-0.07198
0.4516
-0.9681
0.4373
0.5308
0.005972
-0.0005745
-0.005397
1.649
-0.8941
-0.7552
0.07322
-0.6422
0.569
-0.0005163
0.0006343
-0.0001181
-0.009802
0.01047
-0.001066
0.001657
-0.0005913
1.318
-0.4584
-0.8601
0.0004004
6.401e-05
-0.0004644
0.00231
-0.002672
0.0003617
-2.109e-05
2.109e-05
-0.0005873
0.0002154
0.0003719
-0.001034
0.0002237
-0.000979
0.003436
0.001296
-0.001092
-0.0002041
-0.0007113
5.36e-05
0.0006577
-0.001456
0.001005
0.0004516
0.6782
-1.258
-1.027
-0.5141
1.541
0.08779
-0.2064
0.000647
0.0003667
-0.001014
-0.000441
-0.0007053
0.001146
-0.005439
-0.02844
0.03388
0.000581
0.000572
-0.0007693
0.0007904
-9.975e-05
0.0002842
-0.0001844
0.002077
-0.003011
0.0009339
-0.04937
0.04154
0.007838
-0.0001948
-5.397e-05
0.0002488
0.0002139
0.0001499
-0.0003638
-0.0266
-0.02278
-0.4075
0.6296
-0.222
-2.189e-05
4.268e-05
0.002773
-0.001463
8.484e-05
0.0001637
-0.0002486
-0.3044
0.3325
-0.02806
-0.001578
1.66e-05
1.902e-05
8.416e-06
-2.742e-05
0.0004904
-0.001975
0.3078
-0.1103
-0.1975
-0.002167
0.006536
-0.0001713
0.0002091
-3.782e-05
-0.1314
-0.03542
0.1669
0.0004632
-0.0003945
-6.867e-05
0.08349
0.04558
-0.006466
0.001482
0.004985
3.886e-06
-0.0001039
1.125
-0.8711
-0.2535
0.001565
-0.001786
0.0002215
0.005615
-0.0007899
-0.004825
-4.788e-05
-0.001018
-0.0004077
-0.0003075
-0.2907
-0.1561
9.818e-05
-2.665e-05
-7.153e-05
-0.0005508
0.0005964
-4.551e-05
0.0005184
0.0001132
-0.0006317
0.0009132
0.001002
0.003669
-0.001948
-0.001721
0.0003638
-0.0005121
0.0001484
-0.5436
0.9527
-0.409
9.46e-07
1.133e-05
-1.225e-05
0.001989
0.0419
-0.04389
-0.0003793
0.002571
-0.0001863
9.8e-05
8.833e-05
-2.981e-06
1.83e-05
-1.532e-05
0.0003643
-0.0004817
0.0001174
-0.002237
0.0005836
0.001653
-0.0008477
0.0001364
-0.0439
-0.02223
0.06613
-6.372e-05
-0.006897
1.487e-05
3.054e-05
0.02646
0.01508
0.0002736
-0.0004931
0.0002195
1.115e-07
-1.195e-07
8.566e-09
-0.01528
0.008876
0.006408
0.01875
-0.005273
-0.01348
0.004424
-0.002355
-0.002069
0.3681
-0.9888
0.6207
0.0001238
-0.0002193
9.548e-05
-0.0009418
0.0007783
0.0001635
-1.434
0.4069
-0.0002582
-0.0001079
0.0003661
-1.304
0.6879
0.6157
-1.746e-05
0.0001327
-0.0001152
-0.003395
0.01823
-0.01483
-0.001367
-0.002239
-2.526e-05
0.0001299
-0.01873
0.004101
0.01463
-0.001223
-0.0008849
0.002108
-0.008903
0.03398
-0.02507
0.0009339
-0.0004155
0.005875
-0.005771
-0.0001034
6.405e-06
-1.823e-05
1.182e-05
-0.0004814
0.001755
-0.001273
0.0005317
-0.0007705
0.0002388
-0.1746
0.05581
0.1188
0.0002875
-0.0001608
-0.0001266
-0.3372
-0.0003862
0.0002948
9.134e-05
0.0004123
0.0004316
-0.95
1.034
-0.08364
-4.279e-07
2.697e-06
0.01101
0.005827
-0.004422
0.001074
0.003348
0.000465
-0.0001547
-0.0003103
4.053e-06
2.603e-05
-0.0006426
-0.001872
0.002515
6.915e-05
-9.818e-05
2.903e-05
-0.0002798
7.136e-06
0.0002727
-0.0001096
0.0006413
-0.2747
0.7929
0.0001508
0.0001113
-0.000277
0.0004925
-0.0002155
0.0002507
-0.000248
-2.711e-06
-0.0006
-0.001713
-0.402
-0.548
2.357e-05
-2.616e-05
2.589e-06
-0.00139
-0.0001178
0.8061
-0.4381
0.001041
0.0005807
-0.001622
-0.0004641
0.0003446
0.0001195
0.0004552
-0.0008215
0.0003663
-0.0004224
0.0004711
-4.87e-05
-0.7916
0.3841
0.0002414
-0.0003134
7.197e-05
-0.00018
-0.0001883
1.266
-0.6523
-0.6141
0.0001631
0.0001244
0.0005875
0.0006694
-0.001257
6.664e-05
0.0009753
0.0004795
-0.001455
-0.0006926
7.058e-05
0.0006221
0.000359
-0.0005281
0.000169
0.001199
-0.0002817
-0.0009174
0.0001726
-0.0003131
0.0001405
0.01681
-0.002882
-0.01393
1.115
-1.198
0.08309
0.0001419
-0.0001461
-6.823e-05
-0.0006916
0.002423
0.0003597
-0.002783
-4.259e-06
-4.457e-07
-0.001029
-0.001208
0.003732
0.01395
-0.0003248
-0.0001393
-0.001062
-0.001283
-0.00208
-0.003929
0.006009
1.544
-0.6412
-0.9026
-0.005116
0.001445
0.003671
-0.01476
-0.1167
0.7839
0.256
-1.04
-0.2174
0.07573
0.001013
-0.001633
0.0006203
-0.0004695
-0.0009867
-0.001255
-0.004102
-0.3473
0.03443
0.08293
0.009156
-0.09209
0.004848
-0.00482
-2.773e-05
-0.001722
0.003631
-0.001909
0.01598
-0.006055
-0.009921
0.0004367
-0.0005193
0.005934
-0.004679
-0.001255
-0.09465
0.1573
-0.006073
0.008473
-0.1361
0.05332
0.08278
0.005153
0.0008189
8.636e-05
-1.229e-05
7.421e-05
0.0007875
-0.02653
0.007792
0.01118
0.004797
-5.051e-05
0.001075
-0.001024
-0.5691
-0.04752
-0.000573
0.0004394
0.0001336
1.206
0.4432
-0.001105
-0.0005003
0.001605
-0.001119
0.001314
-0.0001948
-0.0004863
-0.0004555
-1.252
-0.07581
0.1797
-0.2044
-0.0005515
-0.0005687
0.00112
-1.204e-05
1.147e-05
5.714e-07
-8.927e-06
8.469e-06
0.003807
-0.008712
0.004239
-0.009242
0.0007486
0.0005478
0.0002195
0.0002345
-0.002372
0.003377
-0.001004
1.304
-0.4751
-0.8285
-0.004312
-0.004806
-0.002716
0.002831
-0.0001146
0.02356
0.1042
-0.1278
-0.01997
0.0342
-0.01423
-0.0002445
0.0005101
8.739e-05
-0.0001041
1.668e-05
0.0005661
-0.001017
0.0003323
-0.0003203
0.7548
0.1091
-0.8639
0.01389
0.07339
-0.08728
-0.0001584
0.0004126
-0.0002542
0.0006417
-0.001426
0.0007841
0.5428
0.07428
-0.617
0.001307
-8.391e-05
0.01372
-0.00248
-0.01124
5.825e-05
-3.527e-05
-2.298e-05
-0.001391
0.001392
-9.051e-07
0.000588
-0.0005905
-0.001932
-0.001602
0.003533
-0.005018
0.0005964
0.0003596
-0.0002719
-8.769e-05
0.8763
0.2385
-0.0009846
0.00142
-0.0004358
-0.0006859
0.000724
-3.806e-05
0.002505
0.00192
-0.0005085
0.0001974
0.0003111
0.0004637
9.411e-05
-0.0005578
0.4393
-0.1704
0.0001351
-0.0001182
-1.698e-05
0.0002641
4.351e-06
0.0005244
-0.0003146
-0.0002097
-0.0003956
0.0003258
0.0001397
-0.0001087
-3.1e-05
1.936e-05
-0.0006981
-0.005854
0.00887
-0.003015
0.01904
-0.0009975
-0.01804
0.001352
-0.0008627
-0.0004894
0.001996
0.001673
-5.153e-06
0.0001016
-9.647e-05
0.0002744
0.0004022
-0.0003359
-0.001421
-0.0004223
-0.000165
-0.0007032
0.0005879
0.0001153
0.04446
-0.1418
0.09737
0.6676
0.8762
-0.1154
-0.02065
-0.0002116
-0.0001746
9.679e-05
0.0007443
0.8033
-0.2284
-0.5748
-3.173e-05
8.673e-05
-0.0004862
0.0003692
-0.1011
0.1455
-0.0003205
0.001231
-9.939e-05
6.288e-05
3.65e-05
-0.03665
0.7063
-0.001658
0.002056
-1.359
0.1794
1.179
-0.01948
-0.01433
0.03381
0.009964
-0.009991
2.71e-05
1.157
0.1615
-0.0003723
0.0001386
0.0002337
-1.605e-06
5.753e-07
1.03e-06
0.03606
-0.03407
0.07951
0.06207
-0.1416
0.000288
-0.001148
0.0008601
5.232e-05
4.586e-05
-0.002998
0.004407
0.0002071
0.0002579
-0.0001644
-2.535e-06
0.0001669
-1.78e-06
-1.576e-06
3.356e-06
-0.0001378
-0.000114
0.0006785
0.001358
-0.002036
0.003028
-0.0009511
-1.221
0.3628
0.8584
-0.0002496
1.31e-05
0.0002365
0.9608
-1.186
0.2256
-0.001156
0.001678
8.384e-05
-7.28e-05
-1.104e-05
-0.001285
0.004043
-0.002758
0.0006693
-0.001774
-0.001207
0.001793
-0.0005862
-0.001275
0.0007742
0.0005003
-0.7304
0.6937
0.702
0.4226
0.0006501
-0.0008665
0.0002164
0.0013
0.003548
0.9819
-0.2271
-0.0003794
0.0001646
0.0002148
0.07044
-0.04845
-0.02199
0.00309
-0.002421
-0.0006692
0.1369
-0.05868
-0.0782
-0.0004894
-0.0005797
0.001069
-0.0002479
0.0001317
0.0001162
-0.0004844
0.0004909
-6.463e-06
0.3134
0.9902
-0.0003281
0.0007495
-0.001343
-0.001133
0.007054
-0.003621
-0.003433
0.00825
-0.004227
-0.004023
-1.039
-0.2614
1.3
-0.0001036
-0.000136
0.0002396
0.0004648
-0.0002979
-0.0001669
0.001012
-0.0008561
-0.0001558
-0.003504
-0.002962
0.0004219
0.0001025
5.502e-05
-6.836e-05
-0.06257
-0.2031
0.2657
-0.0003103
-0.0002627
0.0004008
-0.000305
-9.579e-05
-0.0003801
0.0001178
0.3455
-0.1709
-0.0006421
0.0003256
0.0003166
-0.2825
1.066
-0.001819
0.0006525
0.001167
0.0004115
0.0001022
-0.0005137
-0.2069
-0.172
0.3789
-0.000349
-4.36e-05
0.0003926
0.001695
-0.002095
0.0004002
-9.458e-05
0.00128
-0.001185
0.0001434
-0.001674
0.00153
0.0006013
0.0007508
-0.002622
-0.001396
0.000487
0.0004719
-0.0009588
0.05466
-0.07315
0.0185
-4.496e-05
-0.001533
-0.0001713
0.000177
-5.637e-06
-0.0008898
0.001989
-0.001099
-0.07772
-0.07387
0.01266
-0.0136
0.0009434
-0.003031
0.003496
-0.0004643
0.6861
-0.0001096
-0.0001777
0.3843
-0.2546
-0.1297
0.04136
-0.01871
-0.02265
-0.000386
0.0003129
7.311e-05
-0.2853
0.0784
1.057
-0.4268
-0.6306
-0.002438
-0.002678
-0.0001091
0.000194
0.7072
0.09604
-0.4589
0.7904
-0.3315
-0.0002575
0.0001462
0.0001113
0.03914
0.02998
-0.02051
0.03174
-0.01122
0.0004379
-0.0004409
3.006e-06
-0.0006979
0.001359
-0.0006612
-0.0003098
0.0007538
-0.000444
-0.02599
-0.1766
0.2026
-0.000778
0.03352
-1.392
-0.0001048
0.0001202
-1.53e-05
9.169e-05
1.216e-05
-0.0001038
0.000137
0.02694
-0.02708
-8.033e-05
-0.0001705
0.0002508
0.02908
-0.07457
0.0455
-0.2845
-0.01832
0.3028
0.0004736
-0.0004676
-5.989e-06
0.003011
-0.0007007
-0.0003813
-0.0003472
0.0007285
0.002444
-0.001542
-0.0009021
0.000189
-0.0002818
9.277e-05
8.491e-05
-8.221e-05
-2.733e-06
0.00192
-0.001774
-0.0001456
-5.734e-05
4.276e-05
1.458e-05
0.0006164
-0.0006045
-1.19e-05
0.1507
-0.6482
0.4975
0.002111
-0.001871
-0.0002403
-0.001349
0.00162
-0.0002711
-0.0003512
2.886e-05
-0.0002601
0.0004637
-0.0002035
0.0009696
0.0001901
-0.00116
-0.0004862
-1.129e-05
0.0004975
0.009777
-0.05445
0.09307
0.2247
-0.3178
-0.001468
-0.0002165
0.001685
0.001928
-0.001764
-0.000164
-0.000273
3.874e-05
0.0002343
0.1413
0.02129
-0.1626
-0.001446
0.0009139
0.0005316
0.0002597
0.001447
-0.001707
-0.0007651
0.0007229
4.223e-05
-0.0004185
0.0002089
0.0002095
-0.184
0.2166
-0.03262
0.001198
-0.0008011
-0.0003968
0.0002872
0.0001776
-0.001505
0.004217
-0.002711
-0.001886
0.000443
0.001443
-0.002213
2.055e-05
0.002193
1.441
-1.173
-0.2681
0.001416
-0.0007946
-0.0006212
9.747e-05
0.0001541
-0.0002516
-0.000314
0.0002185
9.551e-05
-0.6301
-0.171
0.8011
0.0008402
0.0008166
0.2006
-0.2824
0.0818
-0.000341
0.0002969
4.408e-05
-0.0004285
0.002023
-0.7629
-0.2052
0.02068
0.6654
-0.686
-0.05453
0.1214
-0.06683
-5.09e-05
-0.0005102
0.0005611
-0.0001239
0.0001116
1.228e-05
-0.000398
-0.0008878
0.001286
-0.0129
0.01051
0.002397
-0.002322
0.002259
6.311e-05
-0.0003737
-0.0001965
0.0005703
0.0009239
-0.00173
0.0008062
1.328e-06
1.666e-06
-2.993e-06
0.001141
3.569e-05
-0.001176
0.7902
-1.311
0.5208
0.1048
0.7463
-0.851
-0.2471
0.3279
-0.08077
1.373e-05
-1.372e-05
0.4596
0.8329
-1.293
0.003659
-0.002377
-0.001282
0.009214
-0.01195
0.002734
-0.0006908
0.003851
-0.00316
0.001106
-0.001267
0.0001609
0.002152
-0.001329
-0.000823
-6.106e-07
2.76e-06
-2.149e-06
0.0009018
-0.0004504
-0.0004514
0.001685
0.0008926
-0.002578
9.609e-05
-2.19e-05
-7.419e-05
6.455e-06
-0.0001176
0.0001112
-0.8968
1.072
-0.1755
3.994e-05
-0.0001412
0.0001012
0.0006851
-0.0013
0.0006148
1.017
-0.9642
-0.05312
0.0001346
5.766e-06
-0.0001403
-0.002135
0.0002493
0.0003971
0.0002225
-0.0006195
-0.0003294
-1.881e-05
0.0003482
-0.03086
0.2093
-0.1784
-0.0007067
-0.0001667
0.0008734
-0.001708
0.003653
-0.001944
0.002406
-0.0009408
-0.001465
0.0005961
0.00102
-0.001616
-0.0006692
0.0004092
0.0002599
-0.0003044
1.99e-05
0.0002845
-0.0001475
9.199e-05
5.549e-05
-0.005366
0.009653
-0.004287
0.0002237
-0.0001022
-0.000121
-0.003129
0.005212
-0.002083
-0.0006038
-0.0002717
0.0008754
-0.001164
-0.0004381
0.001602
-0.0001061
0.000246
-0.0001399
-0.0003042
-0.000324
0.0006283
-4.09e-05
1.046e-05
3.044e-05
-0.003318
-0.007213
0.01053
0.0002405
0.001345
-0.001585
0.7124
-1.26
0.548
-0.299
0.06189
0.2371
0.6338
-0.2769
-0.3569
0.001729
-0.001713
-1.529e-05
0.0001332
0.0003308
-0.000464
0.0004562
-0.0009342
0.0004778
-0.004826
-0.002706
0.004274
0.003976
-0.002759
0.001409
0.001349
-0.0009354
-0.001239
0.002174
0.0009723
0.0003491
-0.001321
-7.141e-05
7.14e-05
-0.0001095
-0.0002255
0.000335
-0.03129
-0.2532
-1.162
0.2295
0.932
-1.164e-05
6.933e-06
4.706e-06
7.03e-05
-7.031e-05
1.313
-0.5205
-0.7929
-0.003699
0.007535
-0.003837
0.001156
-0.000671
-0.0004846
-0.08572
0.07665
0.009071
0.001197
0.0002658
-0.001463
2.632e-05
-2.632e-05
4.137e-05
-4.619e-05
4.823e-06
-0.07404
0.1274
3.719e-07
1.417e-06
-1.787e-06
-0.0002065
0.0002065
0.0001268
0.0002162
-0.000343
-0.004868
0.00158
0.003288
-9.184e-05
1.228e-05
-0.0007183
0.001243
-0.0005246
0.0001581
-1.218e-05
-0.0001459
0.8266
0.0318
-0.8584
-0.0003647
-0.001082
0.001447
0.005942
-0.00045
-0.005492
-0.1203
-0.05427
-0.0001677
7.953e-05
8.82e-05
0.1932
-0.3861
0.193
1.016
-0.3606
-0.6553
0.002774
-0.0007864
-0.001987
-0.0001908
-0.0002758
0.0004666
-0.01993
0.01788
0.002048
-0.001134
0.0003956
0.0007382
0.02151
-0.03022
0.00871
-1.168
-0.1783
1.347
-0.0005227
0.0003724
0.0001503
0.0007651
-8.839e-05
-0.0006767
0.08445
-0.05537
-0.0008188
0.001576
-0.0007572
0.004969
-0.006041
0.001072
0.3309
0.03975
-0.3707
-8.513e-05
8.665e-05
-1.525e-06
0.0006028
-0.001277
0.0006742
7.474e-05
0.0001182
-0.0001929
0.07074
-0.1068
0.0361
-0.7618
0.965
-0.2032
-1.125e-06
-1.22e-06
2.346e-06
0.5029
-0.5556
0.05276
5.398e-06
-0.0001975
0.0001921
-5.006e-05
-0.0001536
0.0002037
0.0006093
-0.006885
0.006275
0.0006793
0.001865
-0.002544
-1.015e-06
-0.0006896
0.0006906
0.0001185
-0.0001418
2.345e-05
-0.0003012
8.75e-05
0.0002137
-4.88e-05
4.882e-05
8.579e-05
-3.692e-05
-4.889e-05
0.0002994
-0.002205
0.001906
0.001655
-0.0005187
-0.001136
2.598e-05
-2.595e-05
0.002456
-0.004141
0.001685
-9.495e-05
9.942e-05
-4.49e-06
-0.4083
0.4669
-0.05859
0.0003512
-0.002156
0.001805
-0.001712
-2.056e-05
0.001732
0.0004635
-0.001574
0.00111
0.1052
-0.1824
0.0772
0.0002652
6.723e-05
-0.000332
0.6752
-0.3652
-0.31
0.0003368
-0.0002384
-9.835e-05
-0.001042
0.0006144
0.0004275
-1.56e-05
0.000241
-0.0002254
-0.00176
0.002001
1.37
-0.857
-0.5128
0.005697
0.001628
-0.007325
-0.001114
0.0003476
0.0007665
0.009973
-0.008562
-0.001411
8.702e-07
-5.711e-07
-2.986e-07
0.001828
-0.000171
-0.001657
9.439e-06
-2.323e-05
1.379e-05
9.11e-05
-0.0001654
7.433e-05
0.007144
0.004222
-0.01137
-0.07405
0.02484
0.04921
0.002537
-0.000425
-0.002112
0.0006668
-0.0004419
-0.0002249
-0.9399
1.476
-0.5358
0.03733
-0.9772
-0.001458
0.002849
-0.001391
0.001579
-0.0006036
-0.004023
0.001375
0.002648
6.442e-05
0.0002932
-0.0003576
0.0002068
7.037e-05
-0.0002772
-0.006226
0.001974
0.004252
-0.08417
1.26
-1.176
-0.4892
0.7042
-0.215
-0.0004956
-0.0001103
0.0006059
-0.001717
0.0004976
0.001219
-0.0003762
0.0006509
-0.0002747
-0.02093
0.02464
0.00475
0.003222
-0.007972
1.605
-0.9768
-0.6283
1.043
0.3976
-0.2188
0.2147
0.004097
5.158e-06
-1.647e-05
1.131e-05
0.000149
-0.000114
-3.498e-05
-0.0001282
-0.0002041
0.0003323
0.0001124
-0.0001124
0.007814
-0.006235
-0.001579
2.126e-05
-0.0004604
0.0004391
0.2431
-0.4854
0.2423
0.0001248
-4.905e-05
-7.572e-05
-0.0004365
0.0004278
8.695e-06
0.0271
-0.0151
-0.01199
-0.0003774
-1.838e-06
0.0003792
1.001
-0.8656
-0.1359
-0.0001047
-0.0006394
0.0007442
-0.04173
-0.4556
0.4974
0.0003502
-0.0003101
-4.011e-05
1.716
-0.5217
-1.194
0.03199
-0.03743
-3.361e-05
4.151e-06
2.955e-05
5.039e-05
-5.039e-05
9.689e-06
-1.476e-06
-8.213e-06
-0.001276
-0.0005434
0.001194
-5.377e-05
-0.001157
0.0007047
0.0004527
4.967e-06
3.211e-05
-3.707e-05
0.0007879
-0.001353
0.0005651
-0.004779
0.002963
0.001816
-0.03603
0.03355
0.002486
0.03951
0.04494
-0.001024
0.001515
-0.0004912
-0.001355
0.001033
0.0003219
0.002163
-0.002212
4.912e-05
8.041e-05
-8.041e-05
-0.003952
0.00392
3.173e-05
-2.015e-06
-0.0002876
0.0002896
5.065e-06
-7.914e-06
2.837e-06
-1.502
0.4634
-0.02164
0.01997
0.001672
-0.0009203
0.0009616
-4.138e-05
1.615
-0.9086
-0.706
-0.0007173
0.001399
-0.0006815
0.0003502
0.002434
-0.002106
-0.0003277
0.0005146
-0.001568
0.001053
0.00101
-2.041e-05
-0.0009899
0.6334
-0.8929
0.2595
-0.0001252
-8.166e-05
0.0002069
-0.0005221
-0.001613
0.0003643
-0.000396
3.175e-05
-1.377
0.8451
0.5317
-0.0001987
-0.0004559
0.0006546
-0.004968
0.00383
0.001139
0.0001595
-0.0002072
4.771e-05
2.238e-05
-1.698e-05
-5.397e-06
-0.002873
0.002506
0.0003667
0.001001
-0.0006021
-0.0003985
-0.0001979
-0.0003105
-0.001204
-0.0006343
0.001839
-6.536e-05
6.383e-05
1.583e-06
0.002203
-0.003885
0.001682
-0.01018
-0.006594
0.01677
2.161e-06
3.068e-06
-5.229e-06
0.09458
-0.2085
0.1139
0.2839
0.05852
-0.3425
1.424
-0.6342
0.001158
-0.001245
8.632e-05
0.0001103
-0.0001296
1.934e-05
-0.0006138
-1.465e-06
0.0006153
-0.0003851
0.004339
-0.003954
0.00195
-0.000691
-0.001259
-0.001009
0.001847
-0.0008378
-0.002166
-0.005372
0.007539
-0.0002694
-1.037e-05
-0.0003551
5.384e-05
-0.02081
0.01738
0.003428
-8.018e-05
-9.241e-05
0.0001726
0.0001124
0.00011
-0.0002224
-0.0003761
0.0005876
-0.0002115
-2.485e-05
-1.876e-06
2.673e-05
0.0003838
-0.0003838
-0.04267
0.05362
-0.002455
0.006229
-0.003774
0.1703
-0.2696
0.09927
9.464e-05
-9.603e-05
1.388e-06
0.0002223
-0.0002253
3.05e-06
0.002769
-0.0004906
-0.002278
-1.076e-05
-1.042e-05
2.118e-05
0.004807
-0.002529
-0.002278
0.0003697
-0.000209
-0.0001607
-0.0007416
0.0126
-0.01185
0.0002277
-0.0005495
0.0003217
0.001466
-0.002373
0.0009068
0.0001209
-0.0004971
-0.1121
-0.2802
0.3922
0.0005171
0.001636
-0.002153
-4.88e-05
0.001416
-0.001367
2.273e-07
-1.535e-05
1.512e-05
-0.001296
-9.49e-05
0.001391
-0.0004968
4.47e-05
0.0004521
-0.0007926
-1.31e-05
0.0008057
-0.0009567
-0.0006398
0.001596
-0.001745
0.002096
-0.4075
-0.1387
0.5463
-0.0001046
-6.316e-05
-0.000111
0.0003695
-0.0002585
-0.01671
0.07779
-0.06108
-3.31e-05
-0.0003614
-0.001902
0.0007953
0.001107
0.0003949
-0.0003719
-2.307e-05
-1.077
-0.5915
-1.074
-0.5933
-1.154
0.9683
0.1858
0.0001106
-0.000163
5.234e-05
-4.006e-05
-1.728e-05
-0.0009872
0.004055
-0.003068
-7.365e-05
-7.387e-05
-0.003814
0.003841
-2.651e-05
0.01448
-0.007339
-0.001069
7.142e-05
-0.00284
0.0168
-0.01396
8.586e-05
-0.0007346
0.0006487
-0.001378
-0.0004295
0.001807
0.0004401
-0.0002646
-0.0001755
0.0001222
-0.000183
6.075e-05
0.09271
-0.1566
0.06391
-0.0006851
0.0003272
0.0003579
-0.001304
0.004162
-0.002858
3.84e-05
-7.551e-05
3.713e-05
-0.1956
0.2381
-0.04245
-0.0002627
0.004535
-0.004272
0.001104
-0.00164
0.0005351
-0.0005628
-0.0004228
0.0009856
9.763e-05
-9.763e-05
0.5817
0.1755
-0.7572
0.3765
-0.07091
-0.3056
0.0001261
-0.0002381
0.0001119
-0.009362
0.02751
-0.01814
-0.001097
0.001844
-0.0007465
0.000809
0.0002415
-0.001051
0.002177
0.0009135
0.008742
-0.006723
-0.002019
0.0003923
-0.0003843
-8.085e-06
-7.553e-05
0.000137
-6.143e-05
0.6486
-0.8866
0.238
0.001138
0.0003744
-0.001512
-0.000131
0.0001116
1.944e-05
1.851
-0.22
-1.631
0.1026
-0.1192
0.0166
0.001227
-0.0002232
-0.001004
0.04531
0.007208
-0.05252
-3.414e-05
-0.0001166
0.0001508
-0.0001657
-5.232e-05
0.000218
0.00158
-0.001839
0.0002591
1.455e-05
8.683e-06
-2.323e-05
-0.000436
0.001301
-0.0008649
0.0006541
-0.0002752
-0.0003789
-0.008797
-0.02723
-0.0001476
-0.0001151
0.0002626
0.001009
0.0003771
-0.001386
0.001816
-0.002671
0.0008551
-0.0006151
0.0009837
-0.0003686
-0.0007972
0.0004251
0.0003721
8.766e-05
0.000386
-0.0004736
-0.0003292
-3.807e-06
0.000333
0.0003518
-0.0002943
-5.754e-05
0.8567
-0.892
0.03532
0.03929
0.978
-1.345
0.7659
0.5787
0.001261
-0.0002648
0.0001651
-3.875e-05
-0.0001264
2.442e-05
5.562e-05
-8.004e-05
0.07639
-0.01787
-0.05852
0.01303
-0.005949
-0.6774
0.4294
0.2479
0.0002346
-0.001399
0.01865
0.034
-0.05265
0.003542
-0.003519
-2.26e-05
0.00189
-0.001179
-0.0007115
0.0007274
-0.001104
-7.512e-05
-0.09638
0.09646
-0.06202
0.06939
-0.007368
-0.00537
0.0162
-0.01083
-0.02875
0.01387
0.01488
-0.001894
0.001174
0.0007201
0.02193
-0.006846
-0.01509
-0.0009623
0.000671
0.0002913
-0.001823
0.0002224
0.001601
-0.05661
0.02109
0.03552
0.0003428
-0.0003466
3.812e-06
-0.002909
-0.0009038
0.003813
0.0001552
-0.0004332
0.000278
-0.0002284
-0.0001877
0.0004161
-0.4438
0.3625
0.08123
0.001179
0.0008873
-0.002066
-0.0005016
-0.0001454
0.0006469
-0.0003026
0.0003026
0.001207
-0.0005
-0.0007066
-0.002818
0.001513
0.001305
0.001556
0.002103
-7.67e-05
-0.0002246
0.0003013
-0.0001759
0.000234
-5.805e-05
-0.005424
0.005747
-0.0003223
-0.001173
-0.002855
0.004027
-0.21
-0.6546
0.8646
-0.01026
0.02502
-0.01476
-0.0001245
-0.0005605
-0.001416
0.001276
0.0001393
-0.956
0.2065
0.7496
-0.00452
0.009049
-0.004529
-0.0002009
0.0001159
8.498e-05
0.0002397
-0.0002705
3.081e-05
-0.005746
0.00713
-0.001384
-0.0004012
0.0001215
0.0002796
-0.0234
-0.002731
0.02614
0.001353
-0.0005807
-0.001235
-0.01156
0.01279
-0.004221
0.01268
-0.008455
0.0003177
0.0005348
-0.0008525
0.0003307
-2.945e-05
-0.0003013
-8.804e-05
4.648e-06
8.339e-05
-0.007047
0.01355
-0.006507
0.4186
-1.109
0.6902
3.064e-05
5.279e-05
-8.343e-05
0.3083
-0.0005205
0.09331
-0.02618
-0.06713
1.588e-07
-4.7e-08
0.001806
-0.002741
-9.059e-06
1.494e-05
-5.883e-06
0.07456
-0.05584
-0.01872
-0.00157
0.001252
0.0003171
-0.006568
0.00969
-0.003122
1.118
-1.118
-0.0007112
-0.0006324
0.0001648
0.0004675
-0.001635
-0.00156
0.003195
-1.186
-0.03527
-0.08194
0.03721
0.04473
2.385e-06
-2.685e-06
3.006e-07
0.0001165
-0.0001165
0.0002858
-0.0002498
-3.593e-05
0.003687
-0.00354
-0.0001469
-7.523e-05
-0.0005436
0.0006188
0.991
-1.335
0.3444
-3.547e-05
6.61e-05
0.0301
-0.02642
-0.003689
-0.0006168