/*--------------------------------*- C++ -*----------------------------------*\
| =========                 |                                                 |
| \\      /  F ield         | OpenFOAM: The Open Source CFD Toolbox           |
|  \\    /   O peration     | Version:  v2012                                 |
|   \\  /    A nd           | Website:  www.openfoam.com                      |
|    \\/     M anipulation  |                                                 |
\*---------------------------------------------------------------------------*/
FoamFile
{
    version     2.0;
    format      ascii;
    class       volVectorField;
    location    "5";
    object      U;
}
// * * * * * * * * * * * * * * * * * * * * * * * * * * * * * * * * * * * * * //

dimensions      [0 1 -1 0 0 0 0];


internalField   nonuniform List<vector> 
100503
(
(-5.62e-05 -0.0002218 2.945e-22)
(-0.0001732 -0.0007569 2.245e-22)
(0.008478 -0.001285 1.294e-22)
(0.01297 -0.002421 -5.893e-22)
(-0.000234 -0.0006732 2.366e-22)
(-0.0001872 -0.0005662 0)
(0.0137 -0.001684 7.201e-22)
(-0.02596 -0.005747 0)
(0.05746 0.0212 1.329e-20)
(0.002546 -0.001291 -6.624e-23)
(-0.03387 -0.00267 4.14e-21)
(0.1289 0.2581 6.107e-22)
(0.2884 0.5254 1.726e-21)
(0.3022 0.5284 -1.748e-21)
(-0.06097 -0.02166 -1.34e-20)
(0.3508 0.6524 -2.145e-21)
(0.4809 0.8673 5.704e-21)
(-0.04227 -0.004011 -1.183e-20)
(0.0221 -0.003707 -4.607e-22)
(0.2961 0.5445 -3.617e-21)
(-0.07877 -0.009882 3.051e-20)
(-0.08443 -0.007455 3.41e-20)
(-6.37e-05 -0.0002356 3.378e-22)
(-0.02974 -4.032e-06 -1.007e-21)
(0.02383 -0.006313 4.177e-22)
(-0.1064 -0.01298 -3.073e-20)
(-0.1113 -0.01981 -1.555e-20)
(-0.05277 0.02842 0)
(0.9223 -0.274 0)
(0.1932 -0.03668 0)
(-0.0001679 -0.000461 1.412e-22)
(0.4808 -0.2982 -6.432e-21)
(0.4781 -0.2962 3.218e-21)
(0.6709 -0.1437 3.746e-23)
(-0.1604 0.05063 1.393e-20)
(0.8436 -0.2888 -2.441e-22)
(0.6681 -0.1443 -4.701e-21)
(-0.1562 0.07861 -1.135e-20)
(0.977 -0.0008196 1.206e-20)
(0.9207 -0.2734 -2.747e-23)
(0.9162 -0.1875 9.632e-22)
(1.012 -0.01513 -3.046e-21)
(0.005879 -0.002748 -3.904e-22)
(0.9222 -0.2791 -2.818e-21)
(-0.07387 0.006152 0)
(-0.1951 0.07215 1.84e-21)
(0.8667 0.2068 -3.23e-20)
(-0.0921 0.004027 1.461e-21)
(1.061 -0.2284 0)
(-0.04491 0.02277 0)
(0.08275 -0.02167 0)
(0.8625 -0.2696 -7.503e-22)
(0.708 -0.1798 -3.363e-20)
(0.5895 -0.3154 -9.512e-21)
(0.9227 -0.2789 3.219e-21)
(-0.0248 0.02018 0)
(1.14 -0.2136 0)
(-0.1896 0.06398 -3.231e-21)
(0.8519 -0.304 0)
(0.01142 -0.03562 9.848e-22)
(1.04 -0.001722 1.227e-19)
(0.6217 0.1386 0)
(-0.03806 0.01739 0)
(0.6637 -0.2266 1.443e-21)
(-0.06243 -0.004168 -1.78e-20)
(0.9397 -0.2716 -1.343e-21)
(1.003 -0.005669 -2.271e-20)
(-0.118 0.04975 -8.475e-21)
(0.3848 0.7402 5.812e-22)
(0.6697 -0.3369 -4.541e-21)
(0.9693 -0.2483 -1.229e-22)
(1.239 -0.121 1.028e-20)
(-0.1817 0.07498 1.477e-20)
(-0.04907 0.03299 -9.17e-21)
(1.074 -0.2119 -1.513e-21)
(0.9621 -0.174 0)
(-0.1353 0.06003 0)
(1.005 0.000104 -1.569e-22)
(1.001 0.0001149 5.318e-22)
(0.6865 -0.2356 -4.762e-22)
(1.101 0.5456 9.923e-21)
(-0.01468 0.000725 1.304e-21)
(1.119 -0.1949 0)
(1.011 -0.0148 3.827e-21)
(-0.2194 0.09938 9.519e-21)
(0.9748 -0.00101 -1.307e-20)
(-0.1977 0.08194 6.389e-21)
(-0.1486 0.05397 9.919e-21)
(0.6586 -0.2399 -1.78e-21)
(0.12 -0.1169 -9.111e-21)
(0.7636 -0.2781 1.22e-21)
(-0.1707 0.08066 0)
(-0.1539 0.05499 1.799e-20)
(1.013 -0.01433 -1.371e-20)
(0.9957 -0.004915 -1.042e-21)
(0.8704 -0.1514 0)
(-0.1805 0.0743 0)
(1.139 -0.2134 0)
(1.005 0.000102 -1.448e-23)
(1.001 0.0001132 1.907e-23)
(-0.1566 0.06557 1.733e-20)
(0.1894 -0.03554 1.088e-22)
(1.028 -0.2436 -2.71e-22)
(1.03 -0.1593 -2.583e-23)
(0.7037 -0.1752 -4.84e-22)
(0.9914 0.02334 2.287e-20)
(-0.1651 0.05517 -1.986e-20)
(0.3623 -0.06141 8.615e-22)
(0.977 -0.2183 -3.868e-21)
(0.9126 -0.1948 2.172e-21)
(0.6601 -0.2401 0)
(-0.16 0.05055 -1.161e-20)
(0.5009 -0.2963 0)
(1.091 -0.2184 0)
(-0.2153 0.09616 0)
(-0.07756 0.037 0)
(-0.1952 0.07089 0)
(0.9388 -0.2596 3.766e-23)
(0.515 -0.2868 -1.484e-20)
(1.075 -0.053 0)
(-0.2089 0.09633 4.869e-21)
(1.242 -0.1274 1.303e-20)
(-0.02983 0.01354 -6.083e-21)
(0.4993 -0.2943 0)
(0.4238 -0.2625 1.553e-20)
(0.6615 -0.1224 -2.163e-21)
(1.074 -0.212 1.514e-21)
(0.8965 -0.2479 -1.948e-20)
(0.9071 -0.2051 -4.247e-22)
(0.7002 -0.1244 -5.022e-21)
(0.794 -0.3167 -8.026e-21)
(1.117 0.344 -4.49e-20)
(1.003 -0.00122 1.009e-19)
(1.04 -0.03036 0)
(-0.1646 0.03065 -5.136e-21)
(1.144 -0.1999 2.764e-21)
(0.9973 -0.1738 -2.523e-21)
(1.151 -0.1946 0)
(-0.1932 0.08836 -1.13e-20)
(1.089 -0.2067 -4.868e-21)
(1.052 0.02994 0)
(0.572 0.1155 -2.572e-20)
(1.08 -0.2166 -3.636e-21)
(1.159 -0.1641 1.192e-23)
(-0.06617 0.02407 -5.195e-22)
(0.8413 -0.1497 -2.062e-21)
(1.105 0.0502 -3.205e-20)
(1.132 -0.2178 1.884e-21)
(0.8748 -0.1696 0)
(1.009 0.003573 -3.965e-20)
(-0.1578 -0.01792 -6.669e-22)
(-0.1173 0.02694 1.401e-21)
(1.022 -0.000687 -1.061e-19)
(1.002 0.0002463 6.45e-22)
(0.9323 -0.252 1.606e-23)
(0.06091 -0.01579 0)
(1.018 -0.0917 0)
(-0.1653 0.0676 0)
(0.8655 0.1953 0)
(0.7146 -0.1111 0)
(0.7298 -0.1351 4.008e-23)
(-0.1575 0.01432 0)
(-0.001311 -0.02698 2.07e-21)
(0.9729 -0.2564 0)
(1.005 -0.004612 -1.721e-21)
(0.1691 -0.02584 0)
(0.5791 -0.3137 3.488e-21)
(1.022 -0.001774 9.233e-20)
(1.06 0.03038 2.107e-19)
(-0.1521 0.07795 -1.505e-20)
(0.9705 -0.2488 -1.331e-22)
(-0.158 0.04154 0)
(0.9406 -0.2714 9.223e-22)
(0.5518 -0.3217 0)
(0.9916 0.0014 -2.248e-20)
(0.1821 -0.0376 -3.279e-21)
(1.063 -0.2294 0)
(1.006 -5.415e-05 3.711e-22)
(0.9062 -0.2519 -2.356e-21)
(1.006 -0.02095 1.806e-21)
(0.8574 -0.3015 -3.484e-21)
(-0.2139 0.09746 -1.025e-20)
(0.9562 -0.2616 5.352e-22)
(0.948 -0.2664 4.801e-22)
(0.9046 -0.2516 0)
(1.133 -0.2179 -3.023e-21)
(1.003 -0.001137 4.735e-20)
(0.02205 -0.01637 0)
(0.9813 -0.1778 -1.197e-21)
(0.3664 -0.06244 -5.727e-22)
(0.8131 -0.2078 -3.202e-21)
(0.9227 -0.2723 -7.675e-22)
(-0.06834 0.03974 0)
(0.9959 -0.004657 6.648e-20)
(-0.149 0.05545 3.921e-20)
(1.121 -0.194 0)
(1.039 -0.03183 -2.362e-20)
(-0.08744 0.384 6.328e-21)
(1.082 -0.01554 0)
(-0.1905 0.002353 5.541e-21)
(0.01501 -0.03367 1.269e-21)
(0.681 -0.2287 -1.2e-21)
(0.6829 -0.2293 8.019e-22)
(0.8434 -0.288 1.84e-22)
(-0.02151 0.02973 5.555e-21)
(-0.06587 0.02352 1.875e-21)
(0.7511 -0.3126 1.546e-20)
(0.8813 -0.1708 0)
(0.8143 -0.3136 0)
(0.9376 -0.2526 -3.927e-24)
(-0.02443 -0.03308 3.61e-21)
(0.8659 -0.156 2.194e-21)
(-0.05872 0.0008134 0)
(-0.1943 0.06904 -5.827e-21)
(-0.2141 0.09752 9.682e-21)
(1.065 -0.2144 1.609e-21)
(0.8198 -0.3022 -8.832e-21)
(0.9925 0.02335 0)
(0.9462 -0.2188 0)
(0.8255 -0.1601 -5.254e-22)
(-0.1844 0.0787 0)
(1.058 -0.2163 -2.765e-21)
(1.003 -0.000154 0)
(-0.0085 -0.001032 5.825e-22)
(-0.003447 -0.02066 0)
(-0.1354 0.3107 -2.572e-21)
(0.1112 -0.08816 -1.891e-20)
(0.01636 -0.008563 -2.155e-22)
(1.052 -0.2241 6.335e-22)
(1 0.001079 4.761e-22)
(0.9861 -0.2536 -3.66e-22)
(0.9272 -0.1935 -1.752e-21)
(-0.1817 -0.02311 0)
(-0.1768 0.08398 8.491e-21)
(1.12 -0.1943 7.405e-23)
(1.028 -0.2438 5.488e-22)
(0.6005 -0.2358 -1.916e-20)
(1.038 -0.00332 -2.397e-19)
(-0.1724 -0.03573 -2.706e-21)
(-0.1488 0.05696 5.522e-21)
(0.4228 -0.07298 2.461e-21)
(-0.03214 0.005534 -5.917e-22)
(0.7874 -0.3159 -1.425e-22)
(1.181 -0.01704 9.353e-21)
(1.01 0.01548 3.068e-21)
(1.006 -4.385e-05 9.363e-23)
(-0.2186 0.09862 -5.823e-21)
(0.9984 -0.006433 -2.015e-20)
(-0.09664 0.2683 -6.13e-21)
(0.117 0.1785 -4.227e-20)
(0.9838 0.01215 -1.875e-20)
(0.002294 -0.0009848 3.253e-21)
(0.9958 0.006447 2.054e-20)
(1.118 -0.1799 1.866e-20)
(0.9844 -0.003214 -2.334e-20)
(-0.2165 0.09821 2.76e-21)
(1.173 -0.2071 2.197e-21)
(0.9531 0.8097 -4.713e-21)
(-0.2154 0.09609 1.032e-21)
(0.8916 -0.2825 0)
(0.4065 -0.06608 0)
(-0.0007444 -0.02837 -2.065e-21)
(1.002 0.0002486 0)
(1.109 -0.2207 3.25e-21)
(-0.143 0.04625 -3.03e-20)
(-0.1551 0.04199 -9.981e-21)
(1.033 -0.1741 1.088e-21)
(-0.136 0.05549 -1.962e-20)
(1.001 -0.005429 2.233e-21)
(0.9457 -0.2069 2.925e-21)
(0.5497 -0.3212 0)
(0.9471 -0.2282 -8.56e-21)
(0.9514 -0.2471 1.679e-22)
(1.144 -0.2001 -2.759e-21)
(0.6108 -0.3228 3.49e-21)
(0.1133 -0.09146 1.869e-20)
(1.024 -0.2391 2.377e-22)
(0.9449 -0.04638 -7.342e-20)
(0.8208 -0.3147 -5.501e-21)
(-0.1505 -0.0167 0)
(1.04 -0.1602 0)
(0.9915 -0.2206 1.492e-21)
(1.005 -0.002885 -7.844e-21)
(1.057 -0.2164 2.731e-21)
(-0.1631 0.03063 9.069e-21)
(0.9901 0.0571 2.165e-20)
(0.6157 -0.3248 0)
(1.004 -0.002761 8.053e-21)
(1.005 -0.002399 -1.985e-20)
(0.8586 -0.1718 3.113e-21)
(-0.1542 0.065 -8.243e-21)
(1.017 -0.1339 6.915e-21)
(1.057 0.03146 -1.652e-19)
(0.8382 -0.3036 5.4e-21)
(0.8291 -0.1333 -1.141e-21)
(-0.003178 -0.0198 0)
(0.9836 -0.1868 -3.309e-21)
(1.005 -0.0001082 4.853e-21)
(0.8577 -0.1759 -3.054e-22)
(-0.175 0.0695 -1.044e-20)
(1.076 -0.2079 -1.281e-21)
(-0.1423 0.06038 4.016e-21)
(0.9991 0.002872 0)
(0.9381 -0.2365 8.142e-21)
(0.9397 -0.26 2.046e-22)
(-0.1543 0.03069 -4.452e-21)
(0.5803 -0.3133 0)
(1.035 -0.2009 -2.886e-21)
(1 0.001006 0)
(1.013 -0.01321 2.021e-20)
(0.8565 -0.3016 2.909e-21)
(0.9287 -0.2147 0)
(-0.08443 -0.006185 2.412e-20)
(1.085 0.6067 3.193e-23)
(1.151 0.09154 4.427e-20)
(0.9429 -0.2647 7.321e-23)
(0.9726 -0.2566 -1.339e-22)
(1.017 -0.08942 0)
(1.005 -2.967e-05 -4.954e-21)
(-0.1751 0.08196 2.461e-21)
(1.006 -0.01993 -1.81e-21)
(-0.1581 0.04603 0)
(0.6647 -0.3326 2.908e-21)
(0.9892 -0.2472 0)
(-0.04025 0.01812 0)
(0.9975 0.02065 4.38e-21)
(-0.1937 0.08846 9.35e-21)
(0.5905 -0.3143 1.67e-20)
(0.9459 -0.2384 -4.717e-22)
(0.6168 -0.1011 1.031e-21)
(-0.1701 0.08059 2.556e-20)
(0.3243 -0.1619 2.663e-20)
(-0.1572 0.04092 1.384e-20)
(1.001 4.94e-06 0)
(0.6891 -0.1228 -3.054e-22)
(1.057 -0.1766 1.616e-20)
(1.189 0.01505 9.531e-20)
(1.009 0.003213 5.226e-20)
(0.9998 0.001007 -2.025e-20)
(1.131 -0.1888 0)
(1.003 2.857e-05 0)
(1.004 -0.001636 -1.794e-20)
(0.6865 -0.3342 1.633e-21)
(1.109 0.3376 1.535e-22)
(1.193 -0.2004 0)
(1.006 -7.595e-06 0)
(-0.1649 0.04868 6.307e-21)
(1.051 -0.2176 0)
(-0.04656 -0.001833 4.54e-20)
(0.9891 -0.1774 7.668e-22)
(1.095 -0.2187 3.096e-21)
(1.09 -0.2061 5.71e-21)
(0.2676 -0.04958 2.922e-20)
(0.7923 -0.1609 0)
(0.9529 -0.2139 -9.98e-23)
(1.001 -4.994e-06 0)
(1.003 0.0003559 2.877e-21)
(0.9967 0.02015 -2.333e-20)
(0.8546 -0.2713 9.247e-22)
(0.8738 -0.2939 2.295e-21)
(0.963 -0.09017 0)
(0.7953 -0.3197 0)
(-0.1122 0.04823 0)
(0.8498 -0.1432 -8.596e-22)
(0.9968 -0.2454 -3.099e-22)
(1.06 0.1684 0)
(0.8144 -0.1412 -2.402e-22)
(0.9676 -0.1511 0)
(1.053 0.1676 0)
(1.002 0.001987 0)
(-0.02212 -0.03347 -2.541e-21)
(0.7654 -0.2767 8.176e-21)
(-0.1508 0.02736 1.361e-21)
(0.9974 -0.005342 6.521e-21)
(1.139 -0.2135 2.565e-21)
(-0.09648 -0.03445 0)
(1.088 -0.2175 -8.863e-22)
(0.9946 -0.002047 3.548e-20)
(0.8968 -0.2466 6.88e-21)
(-0.1538 0.04146 0)
(1.098 -0.04544 4.546e-20)
(-0.2194 0.09934 0)
(1.009 0.01461 4.144e-21)
(1.067 -0.2156 0)
(-0.08503 0.379 -1.025e-21)
(1.003 -0.0009031 0)
(0.7207 -0.3123 -1.205e-20)
(0.8646 -0.2536 6.797e-22)
(1.193 -0.2 -8.845e-22)
(0.6092 -0.3223 -3.491e-21)
(0.996 0.006272 0)
(-0.07743 0.01942 0)
(0.8 -0.1548 0)
(0.9983 -0.19 -2.78e-22)
(0.839 -0.3032 -5.374e-21)
(1.187 -0.1616 -4.296e-21)
(-0.1489 0.02857 0)
(1.003 -0.0005463 -6.09e-20)
(-0.03316 -0.01466 0)
(1.096 0.0641 5.3e-20)
(1.15 -0.1935 5.065e-21)
(0.293 -0.1934 3.87e-21)
(-0.04378 0.01503 -1.808e-21)
(-0.1713 0.06713 8.112e-21)
(1.113 -0.223 -9.482e-22)
(0.7446 -0.1582 0)
(0.9785 0.08347 -6.309e-21)
(1.158 -0.164 3.33e-21)
(-0.08323 0.03904 -2.003e-21)
(1.065 0.1641 -2.46e-21)
(0.4459 -0.126 1.045e-21)
(-0.000853 -0.002239 0)
(0.7072 -0.008053 -3.996e-20)
(1.172 0.2245 5.691e-20)
(1.066 0.5967 8.876e-21)
(1.004 -0.002689 0)
(0.3251 -0.07492 6.048e-21)
(0.7237 -0.3286 0)
(1.004 0.0003065 -2.336e-21)
(-0.2105 0.09406 1.018e-20)
(1 0.0001021 6.891e-20)
(-0.1818 0.005269 1.083e-20)
(1.173 -0.008124 0)
(0.8903 -0.2823 3.118e-21)
(-0.1871 0.002307 0)
(1.063 -0.1445 3.078e-20)
(-0.1509 0.06415 -2.021e-21)
(0.4349 -0.06284 1.896e-22)
(0.9676 -0.1827 0)
(0.8684 0.5672 0)
(0.0308 0.009855 -4.322e-20)
(0.4203 0.2073 1.293e-19)
(0.973 -0.1789 -2.032e-21)
(0.9826 0.02914 6.8e-20)
(0.6839 -0.1207 2.542e-21)
(1 4.387e-05 3.329e-20)
(-0.1689 0.06047 0)
(-0.165 0.06735 -8.049e-21)
(1.001 -0.000451 4.103e-20)
(0.08238 -0.01334 0)
(0.9481 -0.2066 5.292e-21)
(1.033 -0.2298 0)
(-0.2144 0.09584 -1.866e-20)
(0.2271 -0.03916 2.962e-21)
(0.9924 -0.2456 8.593e-22)
(0.2964 0.4159 1.487e-21)
(-0.1575 0.04274 -9.21e-21)
(0.9991 -0.1854 2.434e-21)
(1.005 -0.00229 0)
(-0.1454 0.06203 -2.427e-20)
(0.4772 -0.1142 0)
(0.2144 1.001 2.313e-22)
(-0.1353 0.05247 -1.78e-20)
(1.001 -0.0003768 4.525e-20)
(0.3139 -0.05471 3.129e-23)
(0.8138 -0.3135 3.24e-21)
(1.004 -0.002788 -2.315e-20)
(1.005 -0.235 -4.762e-22)
(-0.1616 0.05265 0)
(1.036 -0.1964 0)
(1.028 -0.1814 -7.126e-22)
(1.002 0.001855 8.524e-21)
(0.6293 0.3963 -2.99e-21)
(0.6958 -0.1216 -2.11e-21)
(1.004 -0.002173 4.89e-22)
(0.6887 -0.1201 -1.707e-21)
(1.025 -0.2237 0)
(-0.2194 0.09935 -8.814e-21)
(0.9669 -0.246 -6.021e-22)
(-0.1507 0.05627 -1.816e-20)
(-0.1688 0.06794 1.025e-20)
(1.106 -0.2198 -1.756e-21)
(-0.142 0.04094 2.477e-21)
(1.146 -0.1268 4.009e-20)
(0.9625 0.000526 -3.76e-21)
(0.7295 -0.1284 1.616e-21)
(0.07519 -0.03063 0)
(0.9864 -0.2444 9.598e-22)
(-0.01509 0.0003062 -1.156e-21)
(1.113 -0.223 1.892e-21)
(1.059 -0.1752 -7.792e-21)
(-0.1617 0.05285 0)
(1.051 -0.2238 0)
(1.077 -0.2044 3.836e-21)
(1.006 -0.0007516 -6.44e-21)
(0.904 -0.2684 0)
(1.098 -0.03904 -1.544e-20)
(1.003 -4.811e-05 -3.067e-20)
(0.9843 0.0111 1.247e-20)
(1.154 -0.2117 1.855e-21)
(0.9618 -0.2157 9.041e-22)
(0.9886 -0.2471 0)
(0.9918 0.001834 0)
(1.051 -0.01083 -8.537e-21)
(1.145 -0.1842 -1.026e-20)
(1.129 -0.1979 -2.011e-22)
(1.004 -0.1973 -2.898e-23)
(1.026 -0.1787 2.769e-21)
(-0.2241 -0.0567 -1.339e-19)
(1.049 0.02845 1.87e-19)
(1.118 -0.1784 0)
(1.015 -0.02328 4.411e-21)
(1.132 -0.188 0)
(0.07758 -0.02687 -4.688e-21)
(-0.2078 0.09613 -2.397e-21)
(1.062 -0.1458 -1.623e-20)
(1.006 -0.1972 2.897e-23)
(0.9048 -0.2795 8.121e-22)
(0.9991 0.002759 0)
(-0.2069 0.09104 0)
(1.002 3.385e-05 2.165e-22)
(0.9027 -0.2851 -1.355e-21)
(1.088 0.6183 2.305e-21)
(0.7296 -0.3313 -1.86e-21)
(1.001 -0.0001689 2.053e-22)
(0.9852 -0.003307 -1.272e-20)
(0.9852 -0.2534 2.772e-22)
(-0.004978 -0.02057 -1.15e-22)
(-0.03202 0.01415 3.096e-21)
(0.9751 -0.2174 3.485e-21)
(0.8133 -0.2033 0)
(0.3096 -0.04872 -3.58e-20)
(-0.2187 0.09871 9.302e-21)
(1.086 -0.2081 -2.538e-21)
(1.001 -0.0003752 4.185e-22)
(0.9362 -0.2363 0)
(1.068 -0.2128 6.434e-22)
(1.009 0.001429 2.056e-21)
(1.143 -0.005824 0)
(-0.152 0.05458 1.751e-20)
(-0.0987 0.02545 1.068e-20)
(0.8502 -0.3029 0)
(-0.1818 0.07516 -1.301e-20)
(1.003 -0.0007156 1.68e-21)
(0.9928 0.04006 -4.844e-22)
(-0.1584 0.05494 9.48e-21)
(0.913 -0.2784 0)
(1.003 0.001147 -2.35e-21)
(0.9688 -0.2517 -2.736e-22)
(1.121 -0.1593 0)
(0.5076 -0.085 -1.035e-21)
(1.104 -0.2219 -3.769e-22)
(-0.19 0.06288 7.675e-22)
(0.7726 -0.2623 0)
(1.032 -0.2301 0)
(-0.1684 0.05989 0)
(0.9639 0.0004495 0)
(0.879 -0.2914 1.875e-21)
(0.8987 -0.1653 1.919e-21)
(1.073 0.5898 -8.873e-21)
(0.5822 -0.1091 0)
(0.9534 0.9901 -5.86e-21)
(1.003 -0.005536 2.034e-20)
(-0.1027 0.04597 0)
(-0.1578 0.04593 5.318e-22)
(-0.1373 0.03257 1.619e-21)
(-0.182 0.07515 5.084e-21)
(-0.1372 0.06375 -1.682e-21)
(0.8862 -0.1805 -2.153e-21)
(1.076 -0.1975 -1.022e-20)
(1.168 0.2093 0)
(0.8772 -0.2181 0)
(1.188 -0.1609 0)
(-0.1356 0.05868 -9.726e-22)
(-0.2162 0.0981 0)
(1.022 -0.2384 0)
(0.9818 -0.1763 0)
(1.082 -0.1827 -7.148e-22)
(0.9857 0.01269 0)
(1.005 -0.0006525 6.715e-21)
(1.014 -0.02383 -4.387e-21)
(-0.1689 0.06057 -1.718e-20)
(0.8835 -0.1807 0)
(1.002 -0.001941 2.056e-20)
(-0.1677 0.01397 6.584e-21)
(-0.1978 0.08136 -5.579e-21)
(0.9858 0.01322 -1.708e-20)
(0.7951 -0.3158 1.086e-21)
(-0.07234 0.0157 1.526e-21)
(1.003 -0.001129 0)
(0.9582 -0.2619 -5.106e-22)
(1.001 -0.0001708 0)
(1.039 -0.1031 0)
(1.151 0.2575 0)
(1.006 -8.137e-06 3.672e-22)
(-0.1648 0.05654 -9.544e-21)
(0.0002455 -0.006873 9.776e-22)
(1.081 0.07289 -3.197e-20)
(1.005 5.809e-05 -6.624e-22)
(0.9942 -0.2468 2.87e-22)
(-0.07802 0.02002 -7.19e-22)
(0.7934 0.1705 1.512e-20)
(-0.2144 0.09594 1.446e-20)
(0.4227 -0.07299 1.258e-21)
(0.04821 -0.05078 0)
(-0.1559 0.04204 0)
(1.167 -0.1884 -3.438e-21)
(0.9975 -0.2451 0)
(1.004 -0.0008046 1.441e-20)
(-0.159 0.04798 8.486e-21)
(1.005 -0.00199 -5.637e-20)
(1.172 -0.2067 0)
(-0.116 0.05533 2.91e-20)
(1.048 -0.2219 0)
(0.9044 -0.2855 3.112e-22)
(1.022 -0.2433 0)
(0.824 -0.3139 0)
(1.003 -0.0009923 6.677e-20)
(1.003 -0.0008657 0)
(1.158 -0.1789 -6.686e-24)
(1.146 -0.1834 1.025e-20)
(1.003 -0.0006794 -2.621e-21)
(0.3024 -0.2005 0)
(1.199 -0.02233 5.738e-20)
(0.968 -0.2565 -2.284e-22)
(1.092 -0.08733 -1.067e-19)
(0.999 -0.2022 -1.033e-21)
(-0.176 0.03183 0)
(0.7656 -0.1445 3.203e-21)
(1.001 -0.0003483 5.478e-22)
(0.8836 -0.2748 -3.053e-22)
(0.9349 0.8203 0)
(1.063 -0.218 -2.876e-21)
(1.018 -0.2239 1.91e-21)
(1.006 0.0001968 3.254e-22)
(-0.2049 0.09096 2.716e-21)
(-0.2143 0.09594 0)
(-0.2057 0.08216 3.157e-21)
(1.066 -0.2156 -1.537e-21)
(-0.1382 0.03221 1.051e-20)
(0.1239 -0.1144 7.097e-21)
(1.003 -0.004721 -8.133e-21)
(-0.2067 0.09077 -1.137e-21)
(-0.2081 0.09195 0)
(-0.1653 0.05542 1.57e-20)
(0.9986 -0.006229 1.053e-20)
(0.7338 0.4058 -2.851e-22)
(1.003 -7.486e-05 -7.484e-21)
(0.936 -0.2619 3.672e-22)
(-0.2184 0.09878 2.538e-21)
(1 -0.005919 0)
(-0.1694 0.06165 0)
(1.093 -0.2135 -2.08e-21)
(1.122 -0.2145 3.832e-21)
(0.4431 0.7407 2.444e-21)
(0.8838 -0.2203 3.362e-22)
(1.065 -0.2145 1.602e-21)
(1.194 -0.1996 0)
(1.028 0.03479 -5.708e-21)
(1.137 -0.2132 -3.416e-21)
(-0.1522 0.0288 0)
(1.048 -0.2183 4.321e-21)
(0.9893 0.05382 0)
(1.132 -0.1269 2.774e-21)
(1.045 -0.221 -1.4e-21)
(1.005 -0.002071 0)
(-0.1866 0.07952 1.922e-20)
(0.9995 -0.006341 -8.779e-21)
(1.124 -0.0236 0)
(-0.1857 0.0778 9.773e-21)
(0.9999 -0.005733 0)
(0.9425 -0.005568 -5.325e-21)
(0.9028 -0.2683 1.985e-21)
(-0.1481 0.02725 4.265e-21)
(1.002 -0.001909 -5.11e-21)
(1.002 0.0004523 6.437e-20)
(-0.161 0.05357 1.102e-20)
(1.152 0.08777 4.639e-20)
(1.13 0.02178 -1.631e-20)
(0.7451 -0.1435 -4.351e-22)
(1.025 0.7917 2.386e-21)
(1.04 -0.1889 -2.773e-22)
(0.8619 0.002002 -4.053e-21)
(1.109 -0.2206 0)
(1.002 -0.0001925 8.581e-24)
(-0.1359 0.06288 0)
(-0.03943 0.3859 6.804e-24)
(1.131 -0.05766 -1.094e-20)
(0.2661 -0.204 2.267e-20)
(1.048 -0.02303 -7.907e-20)
(1.004 -0.003031 6.661e-21)
(-0.1888 0.08029 2.976e-21)
(1.052 -0.2174 0)
(1.068 -0.1968 -2.324e-21)
(0.8703 -0.296 -5.433e-21)
(-0.2069 0.0939 -1.194e-20)
(-0.08315 0.02613 -2.513e-20)
(1.022 -0.2346 0)
(-0.08361 0.03668 0)
(-0.167 0.06143 6.601e-21)
(0.9989 0.0004956 -4.393e-20)
(0.8503 -0.3009 0)
(0.8324 -0.3091 2.669e-21)
(0.6181 -0.1171 -5.729e-24)
(-0.1463 0.02722 -8.382e-21)
(0.9009 -0.2836 -8.349e-22)
(0.6144 -0.129 -5.63e-22)
(1.036 -0.03125 3.173e-20)
(1 -0.003656 -3.625e-20)
(0.4601 -0.1282 -3.346e-20)
(0.7436 -0.3095 0)
(0.4848 -0.2827 0)
(1.004 0.0009108 5.126e-21)
(0.9002 -0.2821 7.494e-22)
(1.201 -0.1866 -4.602e-21)
(0.2845 0.8444 0)
(0.2699 0.9816 -2.888e-22)
(1.006 0.02814 9.919e-21)
(0.6374 1 8.987e-22)
(-0.2142 0.09601 -2.511e-21)
(1.085 -0.2074 9.321e-22)
(-0.113 -0.05702 9.511e-20)
(1.131 -0.1383 3.725e-21)
(1.004 0.0001155 2.575e-21)
(0.9462 -0.2319 0)
(-0.1677 0.06352 1.735e-20)
(0.007233 0.3759 -3.042e-21)
(1.001 0.001019 2.05e-21)
(1.194 -0.2002 -4.614e-21)
(1.004 -0.00723 7.486e-21)
(0.5102 -0.3177 -4.503e-21)
(0.6049 -0.2353 0)
(0.9998 0.0009455 3.988e-22)
(1.002 -0.001032 -3.207e-22)
(1.022 -0.01277 9.401e-22)
(0.777 -0.1572 -9.972e-22)
(-0.128 0.05787 1.867e-21)
(0.9478 -0.2623 0)
(0.7261 -0.08191 1.3e-19)
(1.161 -0.2011 4.219e-21)
(0.8712 -0.17 -4.025e-21)
(0.9669 -0.2586 -1.015e-23)
(-0.0147 0.00565 -4.834e-21)
(0.8168 -0.3169 -4.034e-21)
(1.005 -0.0003874 -2.865e-20)
(1.003 -0.002008 0)
(1.003 -0.005669 0)
(-0.03878 -0.01121 -3.248e-20)
(1.005 5.393e-05 0)
(1.107 -0.2053 -2.753e-21)
(0.7806 -0.1775 5.479e-20)
(0.9973 -0.245 -1.53e-21)
(0.8688 -0.1976 -4.021e-22)
(1.098 -0.226 -1.755e-21)
(0.03255 -0.02275 -8.754e-25)
(0.6912 -0.2836 0)
(0.9285 -0.2768 -1.256e-21)
(0.2695 -0.04901 6.105e-21)
(-0.1652 0.007129 2.721e-21)
(1.001 -1.706e-05 4.486e-21)
(-0.1309 0.05654 -3.011e-20)
(0.9646 -0.2346 7.951e-22)
(1.004 -0.0008945 7.755e-22)
(-0.178 0.02168 2.321e-20)
(-0.1063 -0.05811 -1.087e-20)
(0.7365 -0.1952 6.219e-23)
(-0.1664 0.059 -1.289e-20)
(1.033 0.005685 -1.791e-19)
(0.7393 -0.3255 -1.958e-21)
(0.9618 -0.2612 0)
(1.144 -0.2089 -6.023e-22)
(1.203 -0.1931 -6.072e-21)
(0.2989 -0.08778 -2.426e-20)
(0.4285 -0.1929 0)
(-0.1513 0.01605 0)
(0.8204 -0.1862 0)
(0.06746 0.02084 0)
(1.163 -0.1639 0)
(0.8265 -0.1662 0)
(0.9843 -0.2518 0)
(-0.2086 0.0934 2.422e-20)
(-0.1237 -0.04315 -2.806e-21)
(-0.006593 -0.0329 -9.707e-22)
(1.142 -0.1374 -1.565e-20)
(1.177 -0.2017 2.192e-21)
(1.005 0.0001598 -1.21e-21)
(0.9899 0.009164 -7.841e-20)
(1.004 -0.003653 1.198e-20)
(0.9481 -0.2641 0)
(0.5911 -0.2787 0)
(0.02151 0.04509 0)
(0.5876 0.1161 7.515e-22)
(1.019 -0.2237 -1.909e-21)
(1.042 -0.2203 2.012e-21)
(0.7297 -0.2733 0)
(0.9827 -0.2525 -1.646e-22)
(-0.04647 0.02085 0)
(-0.1737 0.06799 -9.958e-21)
(1.004 -0.00304 -8.633e-21)
(1.003 5.895e-05 2.687e-21)
(0.01249 -0.0369 3.051e-22)
(-0.04582 0.02149 -5.976e-20)
(1.005 5.463e-05 -4.763e-21)
(0.7366 -0.02582 7.65e-20)
(0.9954 -0.1918 -1.149e-21)
(0.9374 0.03601 0)
(1.071 -0.2188 -6.7e-22)
(-0.03869 0.01725 1.539e-20)
(-0.06534 0.01691 2.292e-20)
(1.016 -0.02339 0)
(0.002403 -0.01244 -3.47e-25)
(0.2324 -0.1345 -6.114e-21)
(-0.1551 0.04415 -5.547e-21)
(0.9445 -0.2549 1.016e-21)
(-0.1369 0.3262 2.466e-21)
(0.8841 -0.2563 0)
(-0.1613 0.07521 6.891e-21)
(1.005 -0.0004759 1.448e-21)
(0.955 -0.261 1.954e-22)
(0.8053 -0.2562 7.419e-21)
(0.9828 0.02792 -3.381e-20)
(0.203 -0.1838 -7.632e-22)
(1.004 0.009025 6.805e-22)
(1 -0.0001626 4.628e-20)
(1.029 -0.2276 -1.263e-21)
(-0.1742 0.06134 -3.466e-21)
(1.105 0.2965 -4.249e-20)
(-0.09171 -0.05754 2.285e-20)
(0.9924 -0.1525 0)
(0.9866 0.0004964 0)
(-0.1807 0.07433 -1.167e-20)
(1.115 -0.2033 -4.244e-21)
(1.045 -0.02243 1.433e-21)
(0.5354 -0.2351 -3.077e-20)
(1.05 -0.2218 2.552e-21)
(1.009 -0.01112 -1.003e-20)
(-0.1065 0.04949 7.858e-22)
(0.8119 -0.3143 -3.779e-21)
(0.4932 1.103 0)
(0.5657 -0.02652 0)
(1.001 -0.0001498 -8.188e-20)
(0.07115 -0.01341 2.081e-22)
(1.002 0.004497 0)
(0.2322 -0.159 -2.846e-20)
(-0.194 0.08429 -1.81e-21)
(0.6674 0.1449 0)
(-0.1241 0.03524 -4.852e-20)
(0.8927 -0.1781 7.777e-22)
(-0.01401 0.02408 0)
(-0.2085 0.09261 8.298e-21)
(-0.03851 0.01564 4.098e-20)
(0.01433 0.04329 2.746e-20)
(1 -0.2335 -3.463e-22)
(1.051 0.7354 0)
(-0.05025 -0.00286 6.321e-22)
(0.6553 -0.2009 1.886e-20)
(-0.1409 0.01702 2.558e-20)
(0.9967 0.003179 2.677e-20)
(-0.1346 0.04283 0)
(0.9975 -0.2506 0)
(1.147 -0.2153 0)
(0.8618 -0.03649 -1.262e-20)
(-0.03353 0.02353 0)
(1.01 -0.001116 5.679e-20)
(0.6073 -0.1084 6.607e-22)
(0.7667 -0.2345 -1.687e-22)
(-0.2007 0.09107 4.178e-21)
(1.18 -0.2027 -1.74e-21)
(1.003 -0.0005843 -3.675e-21)
(1.164 -0.1605 0)
(0.8756 -0.2956 -1.549e-21)
(0.9195 0.4796 -1.52e-21)
(-0.002878 -0.01354 -1.029e-21)
(-0.1916 0.06278 0)
(0.06123 -0.02178 -1.222e-21)
(-0.157 0.03182 1.406e-20)
(1.189 -0.1025 1.034e-20)
(0.9471 0.0559 5.306e-20)
(1.02 -0.2269 0)
(0.9845 -0.1776 -1.287e-21)
(0.9788 -0.0003203 2.26e-22)
(0.9736 -0.0006695 2.933e-21)
(1.039 -0.2222 -1.76e-21)
(0.9676 -0.2459 -3.116e-24)
(1.126 -0.1954 -5.671e-21)
(-0.1495 0.04001 8.435e-21)
(-0.2075 0.09171 3.603e-21)
(0.7191 -0.2281 -1.046e-20)
(0.9811 0.0003437 0)
(1.001 -0.001859 8.889e-20)
(1.083 -0.1897 -9.256e-23)
(1.182 -0.2048 -4.176e-21)
(0.5581 -0.3143 -1.995e-21)
(1.016 -0.1318 -7.501e-22)
(1.018 -0.2208 0)
(1.005 -0.0001539 -7.779e-21)
(1.004 8.76e-05 4.635e-22)
(0.9977 0.0223 0)
(-0.05213 0.02233 2.791e-21)
(-0.1422 0.06491 -2.765e-21)
(-0.1693 0.06119 6.172e-21)
(-0.07634 0.03315 0)
(0.98 -0.239 4.257e-22)
(1.024 -0.1774 0)
(1.005 0.003026 0)
(-0.1278 0.02922 -2.818e-20)
(-0.1604 0.05433 -1.681e-20)
(1.064 -0.1535 0)
(0.5608 -0.3094 1.683e-21)
(1.006 -0.0002066 -4.642e-20)
(0.9474 -0.2051 0)
(1.005 0.004133 -3.971e-20)
(0.4719 -0.09985 -1.493e-21)
(0.99 0.0004153 5.387e-21)
(0.9639 -0.08826 0)
(-0.06181 0.01453 -6.241e-20)
(-0.05861 0.02674 5.993e-22)
(0.1969 -0.03219 -3.047e-23)
(0.9357 -0.262 -4.175e-23)
(0.8174 -0.3167 1.99e-21)
(0.9506 -0.2091 0)
(-0.07291 0.02959 -4.782e-21)
(-0.1963 0.0934 0)
(0.7074 -0.2615 1.357e-20)
(0.9862 0.21 0)
(1.045 -0.02054 3.256e-20)
(0.8886 -0.2374 -9.03e-23)
(0.948 -0.2435 0)
(1.079 -0.2121 0)
(-0.04648 0.01747 -3.393e-21)
(1.076 -0.2108 0)
(0.6773 -0.1285 -2.726e-21)
(-0.01062 0.02582 -6.652e-20)
(1.007 0.0002489 0)
(0.8638 0.2457 0)
(0.7879 -0.3237 1.433e-21)
(0.9989 -4.923e-05 1.492e-20)
(0.9314 -0.2032 -2.061e-21)
(0.2947 -0.06622 0)
(1.01 -0.2311 0)
(0.8948 -0.2818 2.61e-21)
(1.069 -0.1977 2.374e-21)
(1.004 -0.001061 2.61e-20)
(0.4637 -0.08326 1.548e-21)
(-0.1268 -0.0579 0)
(-0.2038 0.0894 0)
(1.003 -0.0004233 1.472e-20)
(-0.1375 0.05173 0)
(1.084 -0.2094 2.587e-21)
(-0.1599 0.03641 -1.864e-20)
(-0.0449 0.01943 1.468e-25)
(0.9978 -0.2341 2.014e-21)
(-0.1986 0.09108 -4.686e-24)
(0.5807 -0.1039 -9.07e-22)
(1.186 -0.1985 0)
(-0.09584 0.01974 -3.603e-20)
(1.124 -0.2 -2.914e-21)
(0.8547 -0.1754 -3.733e-20)
(0.0147 -0.04802 -1.127e-21)
(0.9792 -0.0025 0)
(1.011 0.004448 -1.435e-20)
(1.005 -0.0004096 1.305e-20)
(-0.1007 0.04934 -4.303e-20)
(-0.1259 0.05622 -3.734e-21)
(-0.2148 0.09504 9.784e-21)
(1.182 -0.1504 1.778e-21)
(-0.1624 0.08685 1.729e-20)
(0.9068 -0.2812 6.527e-23)
(1.105 -0.1906 -1.62e-20)
(-0.1572 0.04281 -9.216e-21)
(-0.2068 0.09192 -1.603e-20)
(0.8375 -0.136 7.87e-22)
(-0.1344 0.05811 6.162e-21)
(-0.1526 0.06043 0)
(-0.2147 0.09672 -8.61e-21)
(-0.06831 0.0328 0)
(0.298 -0.1088 0)
(0.9481 -0.04666 1.939e-20)
(0.9721 -0.2441 6.289e-22)
(1.003 0.02161 8.38e-22)
(-0.09411 0.03632 0)
(-0.1467 0.02962 2.026e-21)
(0.9884 -0.241 6.127e-22)
(-0.02917 -0.01163 -7.59e-22)
(1.2 -0.1599 0)
(-0.2162 0.09808 0)
(0.8565 0.282 -5.571e-20)
(-0.1996 0.08977 0)
(-0.1886 -0.007814 -1.212e-20)
(0.5981 -0.3348 2.6e-21)
(0.9966 0.00453 -1.996e-20)
(1.023 -0.2325 -1.887e-21)
(1.12 -0.2186 4.926e-21)
(0.007909 -0.03439 -2.937e-22)
(1.123 -0.2182 4.428e-21)
(0.6198 -0.3021 2.019e-21)
(-0.2017 0.09255 0)
(1.165 -0.2103 4.942e-22)
(-0.144 0.0452 0)
(1 0.003322 -2.571e-20)
(0.1972 -0.179 -1.905e-22)
(-0.2181 0.0984 1.418e-20)
(1.003 -0.05383 -1.173e-21)
(-0.2194 0.09932 -4.567e-21)
(0.8895 -0.2876 2.543e-21)
(-0.2037 0.08871 -4.744e-21)
(1.002 0.0003764 0)
(1.001 0.0004266 0)
(1.002 -0.000128 0)
(-0.1265 0.03623 -5.153e-20)
(-0.08311 0.03624 0)
(0.7523 -0.2661 1.674e-21)
(-0.1535 0.0147 -1.744e-20)
(1.006 -0.2414 7.776e-22)
(1.19 -0.1009 -1.639e-20)
(-0.1757 0.08403 -1.593e-20)
(1.139 -0.1126 -1.923e-20)
(0.7285 -0.1912 1.395e-22)
(1.092 -0.2149 0)
(0.8205 -0.1448 -1.07e-21)
(-0.1611 0.03646 2.034e-20)
(0.9923 -0.02547 -6.299e-21)
(0.7052 -0.3359 7.228e-22)
(1.028 -0.229 -3.487e-21)
(-0.146 -0.01047 -1.779e-20)
(1 -0.01291 1.024e-20)
(0.3997 -0.00455 5.736e-20)
(1.15 -0.2144 1.733e-21)
(0.6925 -0.3272 5.126e-22)
(-0.07376 0.03353 0)
(1.001 -0.000802 0)
(1.008 0.006162 3.684e-20)
(-0.1675 0.02483 -4.54e-21)
(0.9146 -0.1326 0)
(1.125 -0.2201 0)
(0.91 -0.1986 -6.847e-22)
(0.9689 -0.2564 2.283e-22)
(1.022 -0.2156 9.645e-22)
(-0.02826 0.03464 0)
(-0.1794 0.03207 -1.74e-20)
(0.9997 -0.0005195 -3.372e-20)
(1.078 -0.2295 3.323e-23)
(-0.1007 0.03929 0)
(1.001 0.000149 2.069e-22)
(1.005 -0.03123 -5.476e-23)
(1.02 -0.211 -2.546e-23)
(1.185 0.06311 0)
(-0.1578 0.06967 0)
(-0.1938 0.08903 0)
(0.9924 -0.2371 0)
(0.1852 -0.03324 -1.084e-21)
(0.9137 -0.2725 0)
(-0.1978 0.08701 9.463e-22)
(0.9774 0.2103 6.309e-22)
(-0.1862 0.08145 -3.311e-20)
(0.9495 -0.2247 -6.972e-22)
(1.162 -0.1908 5.157e-21)
(0.8247 -0.312 -1.14e-21)
(0.7039 -0.3331 0)
(-0.1209 0.03603 0)
(-0.2086 0.09306 -7.996e-21)
(-0.1699 0.06801 4.387e-21)
(1.001 0.0008814 0)
(1.005 -0.0009449 5.764e-21)
(1.002 -0.0006054 0)
(1.086 -0.2105 -1.036e-21)
(-0.1746 -0.01373 0)
(-0.1719 -0.03475 -2.151e-20)
(1.007 -0.04452 -2.151e-19)
(0.9483 -0.2262 9.343e-21)
(1.002 0.003867 2.771e-21)
(0.9904 -0.2518 1.087e-22)
(1.214 0.02255 -1.93e-20)
(1.001 -0.2384 4.675e-22)
(1.035 -0.2427 9.062e-22)
(0.8178 -0.3128 4.195e-21)
(1.031 0.07016 -1.178e-19)
(1.08 0.03278 -2.482e-20)
(1.079 -0.1481 -2.249e-20)
(0.8271 -0.07586 -5.125e-20)
(0.9243 -0.2709 0)
(1.108 -0.1485 2.23e-22)
(0.9253 -0.1924 2.851e-21)
(1.139 -0.2171 0)
(1.175 0.08504 0)
(-0.2143 0.09765 -9.691e-21)
(1.124 -0.1937 0)
(-0.2115 0.09429 -3.149e-21)
(0.07513 0.8706 -1.618e-21)
(0.9995 -0.002606 1.514e-20)
(0.8823 -0.2943 0)
(-0.1333 0.04702 -2.898e-20)
(0.2686 -0.1433 -3.774e-21)
(0.9606 -0.2213 0)
(0.08667 -0.006563 0)
(1.107 -0.2052 2.772e-21)
(-0.08735 -0.03931 0)
(-0.1788 0.07616 0)
(0.9868 -0.2371 1.004e-23)
(0.9614 -0.2564 -2.774e-21)
(0.9997 0.0002525 -1.209e-19)
(1.151 0.1855 3.532e-20)
(0.7035 -0.3358 -7.126e-22)
(1.096 -0.2225 1.42e-21)
(1.001 0.0004196 -1.623e-20)
(1.08 -0.1993 1.059e-20)
(-0.1399 0.06057 -4.126e-22)
(-0.1657 0.06707 0)
(1.218 -0.127 9.407e-21)
(-0.1823 0.07533 -3.971e-21)
(1.035 0.2199 2.062e-20)
(0.9792 -0.2233 -8.402e-22)
(1.099 -0.1809 0)
(1.19 -0.07736 1.91e-20)
(1.056 0.7911 4.586e-21)
(-0.1685 0.06028 0)
(-0.1169 0.2725 5.412e-21)
(0.9698 -0.1999 -7.054e-21)
(1.007 9.195e-05 2.152e-21)
(-0.1691 -0.01331 -1.936e-21)
(0.9947 -0.002321 3.673e-20)
(0.987 -0.04322 -1.398e-20)
(-0.001247 -0.00283 2.56e-22)
(0.7284 -0.2706 0)
(0.2451 -0.04191 -4.773e-23)
(1.054 -0.0347 -2.253e-20)
(0.6472 -0.3102 -2.844e-21)
(1.178 -0.1399 1.642e-20)
(1.005 -0.0003879 -1.255e-20)
(-0.2082 0.093 8.316e-21)
(1.012 -0.2374 1.385e-21)
(1.004 -0.0007978 0)
(1.031 -0.06165 -1.345e-20)
(0.0001217 -0.02083 1.385e-21)
(-0.07742 0.03503 4.395e-20)
(0.5579 -0.08377 3.503e-21)
(1.164 -0.1757 -1.921e-21)
(0.8823 -0.164 0)
(0.9988 -0.000362 1.326e-20)
(-0.1478 -0.01257 0)
(1.177 0.1781 5.394e-22)
(-0.2036 0.09212 -7.446e-21)
(-0.1705 0.06404 -5.684e-21)
(0.9004 -0.2776 0)
(1.001 -0.000782 0)
(-0.1438 0.0629 1.864e-21)
(0.9491 -0.1235 -1.564e-20)
(-0.0026 -0.01308 0)
(1.054 -0.1178 0)
(0.8429 -0.1907 -5.692e-22)
(-0.1849 0.001748 5.122e-24)
(0.4672 -0.1159 -3.734e-20)