/*--------------------------------*- C++ -*----------------------------------*\
  =========                 |
  \\      /  F ield         | OpenFOAM: The Open Source CFD Toolbox
   \\    /   O peration     | Website:  https://openfoam.org
    \\  /    A nd           | Version:  8
     \\/     M anipulation  |
\*---------------------------------------------------------------------------*/
FoamFile
{
    version     2.0;
    format      ascii;
    class       volScalarField;
    location    "15";
    object      nut;
}
// * * * * * * * * * * * * * * * * * * * * * * * * * * * * * * * * * * * * * //

dimensions      [0 2 -1 0 0 0 0];

internalField   nonuniform List<scalar> 
127143
(
7.389e-16
2.415e-17
7.765e-18
4.144e-17
1.263e-11
3.31e-17
7.701e-10
2.968e-11
2.989e-12
5.276e-08
2.636e-10
6.575e-11
1.13e-16
5.064e-17
1.282e-06
6.22e-09
1.203e-14
9.976e-05
5.02e-05
1.374e-08
4.32e-05
9.593e-10
6.994e-05
7.9e-06
9.308e-10
7.901e-06
1.128e-05
9.951e-06
2.337e-08
0.0002076
2.926e-06
6.353e-06
1.335e-06
1.405e-05
3.846e-05
1.431e-06
0.0001874
3.303e-05
8.284e-06
1.038e-06
5.021e-05
2.078e-06
2.266e-06
5.947e-15
9.948e-05
1.433e-05
2.33e-08
0.0002348
6.847e-06
5.617e-06
8.762e-09
0.0003325
8.11e-06
1.873e-05
0.006683
2.777e-07
0.006683
0.0002487
0.003928
2.155e-05
2.956e-06
4.411e-05
7.983e-06
0.006702
2.971e-05
1.945e-05
3.097e-05
7.718e-06
7.717e-06
0.00143
4.25e-06
1.198e-05
0.0002609
0.003327
0.006696
1.039e-05
0.0004503
0.0001656
2.777e-07
0.006705
2.359e-08
2.019e-08
3.112e-05
1.364e-06
0.000251
0.0001718
8.198e-06
1.193e-05
1.812e-05
1.401e-06
0.002119
5.146e-05
2.672e-06
4.308e-05
5.346e-05
0.0002425
2.298e-06
2.44e-06
0.0001217
3.443e-05
0.006705
6.691e-06
1.791e-07
7.742e-05
0.0001224
0.000122
7.042e-06
0.00143
6.58e-06
0.006683
1.418e-06
1.187e-05
5.194e-05
5.867e-07
0.003317
7.773e-05
0.0003747
0.006696
0.0005645
2.351e-11
0.006683
3.35e-05
1.319e-05
0.0002071
2.366e-08
7.074e-06
6.202e-05
0.0006565
1.452e-05
2.289e-07
0.0001038
5.483e-05
1.044e-05
0.0001664
3.274e-12
0.0001171
0.0002178
2.15e-05
1.632e-07
0.000144
4.424e-05
0.0005876
8.784e-06
1.325e-05
8.007e-06
5.852e-06
1.975e-08
0.006703
6.568e-05
8.769e-08
3.718e-05
4.211e-06
2.817e-05
2.154e-05
2.029e-06
0.0001882
0.0002031
2.418e-07
0.0002237
1.803e-06
3.937e-06
1.67e-09
0.001914
0.0001261
1.406e-07
2.279e-05
0.0001293
6.546e-06
1.728e-06
0.000102
1.077e-06
1.324e-05
7.114e-05
2.613e-05
0.0006803
3.59e-05
5.784e-06
1.453e-05
8.186e-06
0.001904
2.245e-05
0.0008023
0.0001586
3.612e-05
2.295e-07
4.201e-05
6.063e-06
7.012e-07
8.042e-06
0.0008404
1.383e-05
2.786e-05
0.0003101
1.034e-06
1.006e-12
3.067e-05
0.006714
0.006704
1.466e-10
0.001524
0.00461
0.0001319
0.0006536
0.0001795
3.629e-16
6.059e-06
0.0001406
2.645e-05
0.0002518
0.003668
8.648e-05
0.0002048
0.003573
1.707e-06
7.811e-05
5.192e-10
4.838e-07
2.619e-05
7.122e-05
0.0001478
4.877e-06
0.006697
4.218e-06
7.723e-06
1.952e-06
1.74e-06
1.605e-07
3.487e-05
3.384e-05
0.0001295
4.522e-05
0.0008443
0.0002245
3.915e-11
4.519e-05
0.0002172
0.0001263
3.279e-13
0.004035
1.045e-05
2.661e-05
2.98e-05
0.0002068
2.418e-07
1.727e-05
3.782e-11
3.131e-06
1.058e-05
4.379e-10
0.001382
3.337e-06
6.209e-06
2.28e-05
1.633e-05
4.505e-07
5.816e-06
0.0008207
2.46e-07
2.685e-05
8.73e-06
2.265e-05
0.0007163
4.668e-05
0.000555
8.131e-06
2.913e-05
8.631e-05
1.995e-06
3.716e-06
1.717e-05
7.528e-06
0.0006802
0.0002711
1.063e-05
9.527e-06
1.273e-05
5.191e-05
7.267e-06
0.0004896
2.09e-05
0.002839
0.0001463
7.87e-05
0.006701
0.004805
1.096e-12
9.875e-05
0.003271
7.659e-06
0.001838
3.084e-05
4.01e-05
0.0002066
5.905e-05
0.002712
6.427e-06
3.88e-06
7.468e-05
0.0002076
1.759e-05
8.434e-06
2.895e-05
9.953e-06
9.458e-05
1.552e-06
3.24e-06
2.658e-05
0.003258
4.867e-05
1.781e-05
7.113e-06
1.029e-05
3.323e-07
0.003552
0.003785
2.39e-06
2.546e-05
7.274e-06
3.616e-05
0.0003613
8.047e-05
3.536e-06
0.0002929
2.273e-05
2.279e-06
1.628e-05
7.722e-05
5.519e-05
3.394e-06
3.743e-06
0.0001142
0.003974
4.137e-05
0.006713
0.006704
2.167e-05
6.607e-06
7.142e-05
0.000115
8.431e-05
0.0001676
2.616e-05
7.852e-06
1.118e-05
1.061e-06
7.658e-06
5.041e-05
4.582e-05
7.769e-06
1.505e-05
8.243e-06
3.515e-05
7.907e-05
1.258e-05
7.614e-05
5.722e-05
1.637e-05
6.728e-06
0.006215
3.405e-06
0.0001822
8.478e-06
7.666e-05
4.76e-06
6.186e-06
0.006698
0.0018
0.0002921
2.899e-05
0.0004519
1.747e-06
0.0003094
8.052e-06
4.622e-06
0.00109
4.897e-05
8.371e-06
1.69e-09
0.0001311
0.0005288
6.353e-05
7.361e-06
8.696e-06
2.166e-05
0.0003955
1.584e-07
2.397e-05
1.11e-06
3.197e-05
4.959e-05
0.004961
9.776e-06
1.167e-05
4.729e-07
7.705e-06
3.104e-06
1.001e-05
3.416e-06
7.368e-05
0.0009949
1.125e-06
0.006697
2.774e-05
0.0001689
2.526e-05
2.492e-05
0.0001748
1.1e-05
0.006705
8.236e-06
8.194e-06
7.819e-06
4.239e-05
0.0001643
1.186e-05
4.981e-05
0.0001071
7.528e-06
2.31e-05
4.872e-06
0.0001368
7.709e-07
8.249e-05
0.00188
0.0001307
7.887e-06
2.133e-06
3.465e-05
2.287e-05
0.0001076
0.00668
8.826e-05
6.861e-05
8.815e-05
1.074e-05
0.006698
2.162e-05
4.241e-05
0.0003625
0.002894
0.006694
6.064e-06
0.000181
6.389e-06
0.0002275
2.462e-06
0.002775
2.858e-06
0.0002891
0.0002231
7.37e-05
8.713e-06
2.952e-05
3.016e-05
2.289e-05
0.0002095
7.486e-06
2.371e-05
0.0002203
1.982e-05
1.174e-05
7.35e-06
3.012e-05
5.176e-07
8.076e-06
0.0008535
0.0008822
1.474e-05
4.856e-05
0.006673
0.0001267
4.424e-05
0.0001766
2.667e-05
0.0001825
0.006651
1.761e-06
4.458e-05
3.249e-05
1.006e-05
5.474e-08
2.661e-06
3.398e-05
3.321e-07
6.841e-06
1.075e-05
1.362e-05
0.006648
2.341e-06
0.0005392
3.6e-06
8.194e-06
8.638e-06
5.831e-06
1.03e-14
0.0001203
9.029e-07
0.0003817
8.921e-07
0.004772
5.362e-08
0.0009175
0.0001791
2.716e-05
2.392e-14
4.855e-11
1.142e-11
0.006698
5.744e-05
3.847e-06
0.003685
0.0002382
1.39e-05
0.000145
7.219e-05
7.453e-05
8.706e-06
0.000126
9.943e-06
0.0009912
0.0002323
1.481e-10
3.312e-06
7.607e-06
1.442e-06
0.004016
4.071e-05
0.000693
3.55e-05
0.006314
2.155e-06
5.849e-08
2.119e-05
0.006675
1.476e-05
0.0001814
8.315e-07
6.46e-06
5.664e-07
4.573e-05
0.0004989
7.344e-05
1.258e-05
0.006673
2.868e-05
2.391e-05
4.47e-06
4.765e-06
4.738e-05
1.514e-05
3.135e-05
1.95e-05
7.538e-06
0.0001313
9.018e-05
0.002433
1.348e-06
7.463e-05
8.334e-06
9.765e-06
0.000202
0.006703
0.006701
9.965e-06
5.005e-05
1.031e-06
0.003254
0.004597
9.571e-06
1.319e-06
0.0001674
8.279e-06
1.035e-05
7.731e-06
3.789e-05
0.0006931
0.006683
2.902e-05
9.671e-05
8.548e-06
0.004714
1.078e-05
1.168e-05
6.261e-05
0.0005288
8.381e-06
0.003148
0.00012
0.0002828
5.108e-05
0.005052
3.03e-05
2.266e-05
5.422e-09
0.00665
7.097e-06
4.785e-07
0.006694
2.498e-05
0.002738
5.893e-06
1.346e-05
0.0067
4.018e-05
8.042e-06
1.441e-05
3.239e-05
1.015e-05
8.226e-06
8.682e-06
1.273e-06
8.278e-06
3.174e-06
4.627e-06
0.0001008
7.259e-06
2.688e-06
0.005428
3.121e-06
0.005754
8.474e-07
0.0005527
8.927e-06
0.00668
0.002801
0.0002212
4.913e-06
6.005e-05
0.006474
0.006684
4.571e-05
1.105e-05
3.656e-05
3.373e-06
0.000272
6.979e-06
7.336e-05
7.862e-06
1.092e-05
6.378e-05
1.664e-05
0.006473
2.058e-05
1.039e-05
8.454e-05
2.366e-05
0.00219
0.004599
1.856e-05
2.266e-07
1.361e-05
8.139e-08
0.0006169
0.003239
0.000101
3.029e-05
0.000152
2.093e-05
9.24e-05
0.000709
5.328e-05
3.298e-05
9.447e-06
1.902e-05
2.063e-14
2.009e-06
0.0002212
0.0002093
7.954e-05
3.982e-05
8.443e-06
4.388e-05
0.0003069
1.385e-05
5.099e-05
2.768e-05
0.006682
7.223e-06
1.474e-05
2.9e-06
0.006675
0.006681
4.056e-07
0.0005072
7.091e-06
3.087e-05
4.839e-06
4.868e-05
1.202e-05
2.238e-06
6.637e-06
5.007e-07
0.006707
0.006673
3.382e-06
7.899e-06
3.096e-05
3.144e-06
1.424e-07
0.0002493
2.018e-06
9.65e-05
8.952e-05
0.003644
2.353e-06
0.0001976
5.773e-07
3.995e-12
1.166e-05
8.906e-06
0.0001242
0.004816
8.747e-06
7.22e-06
3.845e-07
5.169e-05
1.805e-05
1.092e-05
1.171e-07
7.427e-05
6.306e-06
6.536e-05
6.481e-07
8.336e-06
1.792e-05
6.136e-05
5.253e-05
5.038e-15
1.762e-05
0.0001163
3.144e-06
9.422e-06
8.298e-06
0.006693
0.0001016
3.687e-05
0.0001804
0.002999
8.683e-08
8.605e-05
8.353e-06
0.003079
3.196e-05
0.0001378
3.954e-05
2.521e-05
0.003726
0.0001303
3.016e-06
4.337e-05
1.657e-05
0.001344
7.853e-06
1.059e-06
0.002346
2.623e-05
4.233e-05
3.82e-05
0.0001214
2.861e-05
1.164e-05
7.991e-06
8.83e-05
0.006635
0.0001508
0.0001088
9.435e-07
7.81e-06
1.963e-05
0.0002353
1.623e-05
0.006652
0.000131
5.408e-05
1.018e-05
9.967e-11
1.037e-05
2.592e-05
3.138e-05
0.0002107
4.164e-05
0.006697
3.457e-15
8.637e-05
3.062e-05
1.381e-05
0.0001625
8.911e-05
0.0001232
5.121e-06
0.006683
3.849e-05
7.839e-05
0.003448
9.258e-05
3.605e-06
7.191e-06
1.66e-05
0.006666
7.105e-05
3.745e-05
0.006708
0.006661
2.392e-05
5.437e-05
0.000239
9.243e-05
0.0001816
1.825e-08
5.255e-05
6.303e-06
0.006682
0.0001313
0.0001679
3.284e-06
1.946e-06
5.717e-06
0.002763
0.004307
0.0002458
1.151e-05
0.006683
9.463e-05
1.328e-06
8.631e-06
8.141e-06
0.006192
0.0001153
8.485e-06
0.006698
7.786e-06
0.006683
6.192e-06
1.187e-07
4.05e-05
1.506e-05
6.621e-07
0.00208
4.433e-05
1.619e-05
2.151e-06
2.231e-05
8.231e-06
8.599e-08
2.012e-05
5.562e-05
9.632e-06
2.85e-06
0.0067
3.226e-05
3.675e-07
1.147e-06
3.499e-05
7.216e-06
0.002862
0.00019
1.996e-05
5.913e-07
5.987e-06
3.219e-06
5.922e-10
2.278e-06
5.331e-06
6.195e-05
1.425e-05
4.485e-05
1.894e-07
0.0004223
7.372e-06
0.004719
0.005128
8.8e-06
0.000309
2.184e-05
0.0001526
5.497e-07
0.0002134
0.0004782
1.697e-06
2.941e-06
0.004145
0.0001006
0.000159
0.0005665
3.625e-05
4.832e-08
0.0002953
3.415e-05
1.31e-06
1.98e-05
6.625e-05
0.006702
8.621e-06
5.775e-07
0.00626
4.633e-05
0.0001107
3.27e-05
0.006669
0.0002606
8.454e-05
3.172e-09
1.498e-05
4.148e-08
0.0001004
8.634e-06
4.206e-06
1.978e-07
2.829e-05
0.005673
2.102e-07
4.091e-06
0.005306
7.618e-06
5.606e-10
5.351e-05
1.416e-05
2.707e-05
0.0001023
1.009e-07
3.016e-08
8.31e-06
0.0005578
0.006697
3.097e-05
6.295e-06
9.833e-05
3.924e-05
8.044e-07
7.145e-08
3.118e-05
3.064e-05
7.134e-08
0.0001337
1.691e-05
0.006693
0.0002294
5.544e-06
1.123e-05
8.21e-05
0.0001132
0.006698
0.001268
1.759e-05
3.666e-05
8.352e-05
8.077e-06
4.851e-05
0.0002919
1.745e-05
6.149e-06
2.594e-05
3.084e-06
7.994e-06
2.655e-06
4.268e-05
2.759e-05
0.0002418
1.165e-06
7.912e-05
2.273e-06
3.146e-09
0.00013
0.006693
0.006694
0.0001255
0.0002324
7.862e-05
0.006755
6.449e-06
7.303e-05
0.0002838
6.068e-05
2.097e-05
6.631e-05
1.199e-06
0.006705
6.514e-05
0.0003098
1.568e-08
1.601e-06
0.0001108
8.007e-06
3.686e-05
2.9e-05
7.681e-06
1.198e-05
0.0001861
6.451e-06
8.07e-06
0.0001432
5.065e-08
0.006258
3.581e-06
1.748e-07
0.0001042
2.82e-05
1.55e-06
0.002405
4.221e-06
2.905e-06
0.006408
0.006694
1.036e-05
5.558e-05
3.23e-10
6.609e-05
7.383e-06
1.177e-06
3.247e-05
6.547e-05
0.0001135
0.001495
4.482e-05
0.0002968
6.337e-05
5.025e-05
5.248e-07
0.0001822
0.005854
2.851e-06
0.0001136
0.006693
4.299e-05
0.005903
0.006701
1.694e-05
7.226e-05
4.73e-06
0.00669
7.78e-06
0.006697
3.227e-06
9.403e-05
9.059e-05
5.148e-05
6.362e-06
7.874e-06
5.29e-05
1.017e-05
0.00294
0.0008324
1.057e-05
5.415e-06
8.445e-05
7.473e-05
4.885e-07
4.921e-05
4.821e-07
3.447e-05
4.672e-07
1.947e-05
8.149e-06
8.252e-06
3.185e-06
5.364e-05
0.005026
3.689e-05
2.025e-05
8.574e-06
0.001909
3.796e-06
4.563e-05
8.278e-06
4.808e-06
1.456e-05
0.0001641
2.818e-05
1.891e-05
8.28e-06
6.402e-05
2.176e-07
2.814e-05
0.0066
1.353e-05
3.575e-05
0.002035
4.223e-05
2.763e-05
0.006742
3.947e-05
8.543e-06
0.0005947
2.862e-06
2.522e-05
7.27e-05
9.964e-05
0.00673
5.17e-05
7.476e-05
0.00549
4.053e-06
9.544e-05
7.773e-05
6.568e-05
4.74e-05
0.000449
1.883e-06
5.422e-09
3.117e-06
7.643e-06
0.0001129
1.909e-07
0.001628
8.318e-06
0.006698
0.0001282
4.793e-06
4.267e-05
4.801e-06
6.599e-06
1.198e-05
0.006699
8.28e-11
2.175e-05
2.932e-05
8.964e-06
3.173e-07
2.089e-05
6.39e-05
1.483e-06
7.893e-06
4.403e-05
1.558e-10
0.0002045
4.104e-06
4.706e-06
7.457e-06
3.796e-06
0.0001149
3.175e-06
6.169e-06
0.0001328
1.394e-05
8.742e-06
8.085e-06
5.636e-05
2.101e-09
0.0003081
2.335e-06
0.0001705
8.269e-06
0.006713
0.006692
2.091e-05
2.065e-07
0.000215
0.0008847
4.775e-06
2.852e-05
0.006698
9.838e-06
7.578e-06
1.76e-05
8.578e-09
2.35e-05
0.0001628
1.068e-13
0.0001061
8.947e-07
0.000121
8.051e-06
1.677e-05
7.819e-06
2.119e-06
7.538e-06
3.525e-05
0.0005013
0.0001123
1.307e-05
9.512e-05
3.571e-05
6.917e-06
0.0001975
1.392e-07
0.0002305
8.518e-05
0.0002723
1.964e-06
1.174e-05
3.507e-05
2.303e-09
3.19e-05
1.422e-05
1.516e-05
0.0001427
0.0001527
0.006697
0.0001027
1.654e-05
1.352e-05
4.369e-06
6.617e-07
1.536e-06
0.006684
6.817e-06
1.348e-06
4.992e-05
2.863e-06
6.175e-06
3.836e-05
3.893e-05
0.001846
3.037e-05
0.0001342
1.161e-05
5.448e-05
0.0008441
3.039e-05
0.00355
5.354e-06
3.213e-06
0.0001793
6.512e-05
3.225e-05
0.006489
0.006677
2.249e-05
0.000257
5.673e-05
5.503e-05
0.002377
0.002176
9.84e-07
7.811e-05
3.518e-05
1.563e-05
8.431e-06
3.096e-06
2.62e-05
8.389e-06
0.0001302
9.986e-05
0.006681
2.929e-06
8.515e-05
7.363e-06
2.988e-06
2.297e-05
2.241e-05
0.0001359
8.544e-06
2.659e-05
5.379e-09
7.095e-05
6.622e-05
0.0002777
2.072e-05
6.777e-05
7.399e-06
3.755e-09
4.072e-05
3.837e-06
0.006684
6.427e-06
7.945e-07
0.006693
7.096e-07
1.102e-05
0.0001489
7.971e-06
0.006688
1.948e-05
1.425e-09
0.002344
4.758e-06
4.97e-05
8.268e-06
1.448e-07
4.73e-05
7.635e-05
6.52e-06
1.392e-07
0.0001486
3.625e-05
9.729e-06
4.439e-06
9.512e-07
7.368e-08
2.808e-06
0.0001062
0.006693
5.445e-06
3.831e-05
2.206e-06
3.337e-06
0.0001085
0.0001192
0.006668
0.0001288
7.08e-05
0.006294
0.0002481
0.006332
1.018e-07
0.0001638
2.197e-07
4.357e-05
8.022e-06
4.384e-06
4.979e-05
6.649e-06
5.824e-07
1.981e-06
7.226e-05
0.000101
9.734e-06
3.378e-05
0.0001935
0.006702
0.0001128
0.0007611
8.254e-05
0.0067
0.0002071
0.006688
5.615e-06
0.0001224
0.006737
0.006265
4.194e-05
5.466e-05
2.997e-05
7.589e-05
0.006768
8.446e-06
6.698e-05
4.572e-05
3.308e-12
1.452e-05
2.559e-10
7.556e-06
1.058e-05
8.442e-06
5.988e-06
0.0002478
7.452e-05
8.123e-07
0.0001126
4.451e-06
3.413e-05
1.911e-05
7.174e-06
3.524e-05
0.006689
1.863e-06
6.037e-05
4.828e-08
0.0067
2.839e-06
5.29e-06
8.093e-06
0.0001124
0.00665
0.00665
0.000121
6.405e-05
0.0002508
6.376e-05
8.36e-06
5.02e-05
3.212e-06
0.0003776
9.359e-05
8.045e-08
1.078e-05
0.0001478
8.449e-05
6.544e-05
2.533e-05
3.912e-05
4.509e-06
8.381e-06
0.0001483
0.00179
2.105e-05
2.163e-05
6.828e-06
7.838e-06
0.0005366
6.803e-06
0.0003003
8.049e-06
7.192e-05
1.97e-05
0.0001572
0.006693
0.0002528
1.693e-05
3.984e-06
5.873e-07
8.06e-05
0.0001096
2.26e-05
8.646e-05
0.006625
1.255e-06
5.193e-05
6.217e-09
2.605e-05
6.863e-08
0.0001427
0.006695
2.018e-05
2.984e-06
2.776e-05
6.768e-06
1.888e-05
1.455e-05
8.41e-06
8.075e-06
0.0003373
1.548e-06
0.0001612
4.946e-06
2.805e-05
3.371e-06
0.00271
0.002708
8.06e-06
6.581e-06
2.57e-08
4.851e-06
6.249e-06
2.065e-06
2.343e-06
0.0003354
7.82e-05
0.0002515
0.002222
0.006691
0.0002744
0.00649
9.829e-09
0.006695
1.583e-07
3.557e-05
5.805e-06
6.919e-06
2.865e-06
0.001434
9.141e-08
4.024e-05
8.831e-07
0.0001016
3.865e-06
0.005249
5.075e-05
2.896e-05
0.0001001
2.557e-06
1.847e-06
0.0001527
1.165e-06
7.761e-07
0.0002686
0.006665
1.26e-06
0.001504
0.006749
4.694e-05
2.427e-07
0.006666
9.629e-07
0.006697
1.079e-05
1.064e-05
3.036e-05
9.613e-07
0.006676
0.0001893
4.001e-05
8.049e-05
1.733e-05
3.103e-05
2.949e-05
0.00484
0.006686
1.081e-05
1.283e-10
2.418e-05
7.528e-06
0.0005943
6.877e-09
7.361e-05
4.393e-05
0.002119
1.595e-05
0.0001151
3.177e-06
0.000443
6.013e-06
0.0006267
1.347e-05
0.006704
2.276e-06
8.213e-06
0.0002812
4.686e-07
6.633e-07
7.145e-05
0.006689
1.007e-05
3.239e-06
2.885e-05
2.787e-06
7.544e-06
2.639e-05
0.0004802
1.11e-05
1.194e-08
8.021e-06
8.536e-07
1.038e-08
0.001953
3.108e-05
0.006702
1.124e-05
2.465e-06
7.087e-06
0.006696
1.156e-05
0.006694
0.0001591
0.0001146
0.006714
2.986e-05
0.0003914
7.574e-06
2.58e-05
0.000615
8.07e-06
0.006697
4.679e-07
1.78e-07
7.522e-05
4.999e-05
7.274e-06
0.001048
1.844e-05
8.37e-05
3.479e-06
8.592e-06
0.0001616
7.805e-06
3.736e-05
2.367e-05
4.147e-07
0.0001986
2.018e-05
1.133e-05
0.0002241
7.878e-06
9.358e-05
6.582e-06
8.199e-06
0.0002034
0.001129
6.211e-07
9.195e-05
1.943e-05
0.0001093
3.174e-06
0.0001536
7.264e-06
0.0001168
0.006667
7.501e-06
5.65e-06
0.0001793
8.469e-06
0.0004308
1.045e-05
0.006705
2.139e-05
7.216e-06
4.481e-05
5.969e-06
5.486e-06
6.101e-06
0.006696
8.391e-06
5.179e-06
7.964e-06
1.676e-05
0.0004051
8.273e-06
8.093e-06
0.006694
0.0001482
4.65e-05
0.001786
7.017e-06
2.994e-05
3.178e-05
4.684e-06
9.945e-05
0.0002391
0.002264
2.914e-05
2.559e-05
0.006602
2.081e-05
4.434e-06
1.98e-06
0.006746
1.895e-05
3.432e-07
4.242e-05
1.358e-05
0.0001339
8.215e-06
2.2e-06
0.0021
0.001219
4.599e-05
0.0008698
2.877e-05
4.399e-06
0.0002314
7.69e-07
3.374e-05
0.000385
2.3e-05
4.647e-10
8.455e-10
0.0001616
4.036e-05
4.701e-05
0.0002545
0.0002506
2.842e-05
0.0002112
2.892e-05
3.241e-05
1.032e-05
8.457e-06
7.814e-07
0.0001129
0.0001617
0.003116
1.541e-06
0.000156
0.0001118
5.781e-06
4.649e-05
3.146e-06
0.0001607
4.022e-05
0.006747
3.487e-07
7.523e-06
2.877e-05
2.898e-05
8.936e-05
3.081e-06
1.287e-06
0.0001051
4.267e-05
1.107e-07
3.363e-05
7.18e-06
4.163e-06
0.006635
9.348e-06
1.482e-06
8.155e-06
0.004711
0.0002284
0.0002128
5.004e-06
3.26e-05
0.0002654
7.221e-06
0.005422
4.36e-06
7.172e-06
0.0001694
0.0002491
0.003852
8.075e-06
8.191e-08
7.809e-06
1.998e-06
2.666e-08
0.0002529
6.932e-06
0.001429
1.288e-06
1.552e-05
0.0002272
7.626e-05
3.859e-05
1.175e-05
0.0002071
8.211e-06
0.002537
3.337e-06
2.857e-08
2.918e-07
0.0001793
2.597e-05
2.823e-05
1.006e-05
0.001086
0.000114
9.648e-06
7.508e-05
0.003695
8.261e-06
8.214e-06
8.446e-06
8.96e-05
3.99e-05
1.695e-06
1.89e-05
7.819e-07
3.933e-07
2.227e-08
0.0001554
6.168e-06
3.427e-08
6.398e-05
1.186e-06
7.338e-05
2.626e-05
1.406e-05
5.09e-11
1.744e-05
2.37e-05
0.003087
0.0002663
1.201e-06
0.0001468
0.003711
0.006698
8.162e-05
7.662e-06
0.0002718
5.842e-06
9.141e-08
1.302e-06
0.0009665
6.771e-06
0.0002452
0.0001297
7.827e-06
3.581e-05
0.0002233
8.004e-06
8.222e-05
0.0001048
3.181e-05
0.006697
3.762e-06
0.0001265
8.053e-06
0.0001003
7.667e-06
1.148e-05
4.031e-05
6.835e-06
2.146e-05
2.869e-05
8.276e-06
6.162e-07
8.59e-06
0.0001407
0.0001445
0.0001353
2.977e-05
0.000118
2.169e-07
1.494e-05
0.004786
9.15e-05
7.35e-05
8.325e-06
6.304e-06
0.0007458
1.952e-05
4.369e-05
1.415e-05
0.002972
0.0001374
0.0002856
0.0001529
0.0002042
1.127e-05
8.462e-05
1.12e-06
0.0001557
0.0001912
1.38e-05
0.006676
0.0002743
4.018e-05
0.0001408
3.963e-05
0.006689
0.0001148
4.949e-06
8.731e-07
0.006697
0.0007179
0.0002457
1.771e-05
8.921e-06
0.0007644
1.108e-05
0.0001626
2.477e-07
4e-06
6.497e-05
8.688e-06
2.865e-05
0.0004919
8.231e-06
7.674e-08
3.539e-05
1.138e-07
3.702e-06
3.507e-05
3.01e-06
0.003238
0.006666
1.043e-05
6.922e-05
3.166e-06
0.006697
1.956e-05
7.953e-06
7.947e-09
5.117e-05
6.53e-06
0.006297
0.006435
8.139e-06
4.779e-05
0.0001204
2.212e-06
3.876e-05
4.565e-05
0.0001611
0.006705
7.44e-06
1.597e-06
7.588e-06
0.0001535
1.231e-06
0.0001551
1.963e-05
0.006731
3.208e-05
2.112e-06
7.128e-06
5.094e-07
6.222e-05
2.151e-06
1.484e-05
1.566e-05
7.204e-06
4.212e-05
7.35e-05
0.0001289
6.441e-06
8.382e-07
0.004598
0.005119
5.532e-05
9.915e-05
4.08e-07
7.993e-06
2.057e-06
3.668e-05
0.001215
0.005324
6.287e-06
0.006702
7.732e-05
4.702e-08
3.905e-06
0.0001078
7.359e-06
0.0001379
3.033e-07
2.044e-06
0.002065
2.603e-05
3.598e-05
7.576e-06
0.0002223
1.25e-05
7.522e-05
2.81e-05
3.142e-05
0.0001604
2.04e-05
0.0001158
1.336e-07
2.576e-06
7.853e-05
2.618e-05
5.193e-08
0.0001142
2.695e-05
1.24e-05
6.212e-07
6.57e-06
2.343e-05
8.039e-06
0.0001168
2.951e-05
0.001048
0.000288
0.006703
7.727e-06
5.19e-05
6.605e-06
7.938e-05
4.259e-05
1.725e-05
3.019e-09
1.766e-06
3.002e-05
8.383e-06
2.431e-06
1.484e-05
0.0006803
0.0002166
1.085e-05
4.019e-06
9.894e-05
0.000163
0.0006702
7.018e-05
0.003973
1.032e-05
1.036e-07
7.155e-05
6.078e-06
0.0002382
6.338e-05
1.961e-05
0.006714
1.419e-05
0.0001005
0.0002874
8.67e-07
0.000166
3.278e-05
0.0001153
3.035e-05
6.042e-06
1.454e-05
4.231e-06
1.488e-05
5.648e-06
0.006712
0.0002045
1.494e-05
2.391e-06
4.031e-07
1.102e-05
2.896e-05
2.175e-05
0.003172
3.699e-06
2.375e-06
7.026e-06
5.513e-06
8.177e-06
1.635e-05
7.63e-06
1.798e-06
5.492e-06
2.311e-05
1.028e-06
8.546e-08
5.373e-05
5.495e-05
4.128e-08
0.001729
4.982e-05
0.002497
0.006699
5.866e-06
0.001982
2.223e-05
9.922e-06
3.45e-05
1.056e-05
8.099e-06
1.699e-05
0.0001031
2.765e-06
8.913e-05
0.0002046
5.618e-10
7.77e-05
0.0001217
0.0003613
1.713e-08
3.134e-05
6.453e-07
3.471e-07
0.003089
2.912e-05
6.873e-06
8.497e-05
4.38e-05
2.611e-07
2.856e-06
3.072e-05
0.0001126
7.817e-05
0.0001183
3.255e-05
0.006701
4.314e-05
4.557e-05
4.351e-06
1.498e-05
7.499e-06
1.64e-07
0.0001034
0.003475
3.557e-05
0.0001017
5.878e-05
9.589e-06
5.299e-05
9.792e-07
8.357e-06
1.435e-07
6.864e-06
4.852e-05
7.009e-06
3.719e-06
0.0001222
6.262e-05
1.829e-05
4.818e-09
3.736e-05
8.049e-06
7.975e-06
0.006592
4.218e-06
4.161e-05
0.0002676
8.841e-05
7.78e-06
2.686e-05
4.227e-06
3.601e-05
3.08e-05
1.14e-07
0.006312
6.349e-07
3.479e-05
7.376e-05
2.19e-05
3.707e-07
0.005022
4.895e-05
6.011e-05
2.91e-05
2.216e-07
1.904e-05
2.884e-05
2.948e-06
0.0001623
8.4e-06
0.006742
0.006729
7.284e-06
1.959e-05
1.929e-05
1.713e-05
7.881e-06
0.006688
1.628e-05
5.399e-06
1.115e-05
0.00238
0.002943
9.178e-06
2.5e-05
6.852e-06
4.11e-08
2.918e-07
0.006147
3.942e-06
4.78e-08
8.968e-05
7.282e-06
4.24e-06
0.001876
9.522e-05
2.923e-05
6.212e-05
0.0001847
0.006652
0.006612
0.006634
0.006352
0.0005714
0.0001036
2.339e-05
1.629e-06
5.282e-05
7.512e-05
5.1e-05
1.885e-05
0.006103
5.685e-05
0.0002096
7.44e-07
2.411e-05
4.098e-07
1.77e-05
8.661e-06
8.263e-06
1.105e-05
7.244e-06
0.0003197
8.094e-06
9.487e-10
1.546e-06
5.74e-06
2.763e-06
6.494e-06
0.005558
1.358e-08
0.0001027
1.223e-06
4.693e-05
0.000113
3.556e-09
0.006696
0.0001889
2.964e-05
0.005069
3.441e-05
0.0001126
2.577e-05
0.0001078
9.108e-07
4.758e-05
5.223e-05
0.006632
5.883e-06
1.178e-05
5.007e-05
0.0001937
9.964e-06
0.006715
0.003122
2.428e-05
5.381e-06
2.914e-05
0.0004074
4.228e-05
2.6e-05
0.0001058
1.569e-06
8.273e-06
3.555e-05
0.0002213
0.0002988
0.0001545
0.000168
1.288e-08
1.951e-06
0.004881
1.571e-08
0.0046
0.006571
4.035e-05
0.001429
1.229e-06
0.0001389
1.921e-06
0.0001634
5.89e-06
0.006697
0.0003175
4.295e-05
7.276e-06
0.0002085
0.003446
5.617e-05
1.055e-08
1.654e-05
0.006702
1.281e-05
1.478e-05
5.709e-10
0.001973
3.52e-05
1.617e-05
0.0001019
0.0004351
4.407e-05
4.803e-06
2.506e-08
5.147e-06
8.136e-06
1.179e-11
0.005081
6.994e-06
2.129e-05
7.293e-06
0.006696
7.606e-06
2.332e-08
8.143e-09
4.863e-07
0.0001793
1.693e-05
7.146e-08
0.0004062
0.0001338
0.00669
4.496e-05
2.25e-05
2.896e-05
4.019e-05
5.756e-07
5.338e-05
8.686e-05
1.043e-05
0.006706
0.00182
3.455e-06
2.498e-05
6.04e-05
2.265e-07
3.013e-05
0.0001848
0.0001276
1.105e-05
4.923e-05
0.0001358
0.005252
7.637e-06
9.926e-06
6.984e-06
6.214e-05
7.186e-06
4.079e-06
1.169e-06
4.081e-08
5.008e-06
6.711e-11
4.945e-06
0.0002805
9.916e-07
0.0002872
8.021e-06
3.146e-07
0.004672
5.482e-09
0.006705
8.268e-05
4.999e-06
1.468e-06
7.726e-05
3.964e-06
4.917e-05
4.698e-06
0.006646
1.392e-09
8.651e-06
0.002101
0.0001028
0.0001196
9.513e-09
6.23e-06
9.57e-09
2.89e-05
8.735e-07
5.195e-07
2.031e-05
1.845e-05
8.099e-06
1.232e-05
0.006673
0.0001362
8.788e-06
2.079e-05
9.229e-06
0.0001925
0.0001359
7.992e-06
7.382e-06
2.519e-06
7.161e-06
0.003883
7.44e-06
2.809e-05
8.878e-06
2.75e-05
0.002297
6.57e-05
1.025e-05
3.008e-05
3.283e-05
2.711e-08
0.002131
0.0021
6.886e-05
7.179e-06
1.647e-05
0.0002379
2.897e-05
0.006486
0.0002181
8.44e-06
0.00634
6.414e-05
5.78e-07
0.0001149
6.407e-05
0.0001727
1.005e-07
4.378e-08
2.691e-06
6.225e-05
6.963e-06
0.000147
3.688e-05
5.102e-05
2.24e-05
2.648e-06
0.0002088
1.545e-07
7.44e-06
1.088e-06
4.902e-06
3.731e-05
8.395e-09
0.0001302
8.015e-06
1.387e-05
0.002598
8.855e-06
0.0001059
0.001281
1.638e-05
8.143e-07
9.602e-05
5.578e-06
1.02e-05
2.781e-08
2.075e-09
0.0002185
5.988e-11
0.0007534
4.013e-05
9.23e-05
0.0001371
2.098e-05
0.006705
5.504e-06
3.493e-07
2.354e-05
1.157e-05
4.316e-05
1.378e-05
5.536e-06
7.085e-05
0.0001357
2.568e-05
0.0002438
1.414e-05
3.636e-05
0.005146
0.0001229
6.981e-06
0.006701
0.0004844
2.294e-06
0.006697
2.311e-05
5.744e-05
7.226e-06
5.516e-05
6.081e-06
0.001407
5.763e-05
2.996e-05
1.873e-06
3.679e-07
9.496e-07
8.528e-06
0.006687
1.791e-06
0.006714
0.0003262
9.009e-05
4.836e-05
2.871e-06
7.273e-05
8.162e-06
2.777e-05
5.676e-07
1.983e-05
0.0008535
0.0001104
7.351e-05
0.006674
7.591e-05
0.006697
2.302e-06
1.962e-05
4.384e-06
0.0001444
0.006662
4.171e-05
8.122e-06
1.273e-05
2.857e-07
3.019e-05
9.388e-06
0.0003825
4.039e-05
9.581e-05
4.139e-05
3.68e-05
1.146e-05
0.0001942
6.526e-06
0.0001185
3.344e-06
7.962e-06
0.006631
0.006745
0.001419
0.0003117
3.928e-06
9.318e-07
4.414e-05
0.001478
8.269e-06
6.396e-06
8.037e-06
0.006698
4.455e-06
2.575e-05
6.292e-06
0.002308
1.994e-09
1.835e-05
6.716e-06
0.003169
0.0005057
1.077e-06
0.0002523
8.215e-06
1.836e-06
1.612e-06
6.95e-05
4.702e-05
0.006698
4.304e-06
5.209e-05
7.172e-06
0.0001681
1.121e-05
4.183e-05
0.000157
5.657e-06
4.176e-07
0.006699
4.51e-05
9.521e-06
1.374e-05
4.725e-06
0.006702
2.014e-05
1.881e-05
0.0001055
3.994e-05
2.63e-05
2.529e-06
0.0001617
1.158e-05
4.475e-06
0.0002711
2.642e-05
2.212e-05
0.005172
4.42e-06
2.749e-06
0.0001638
3.249e-05
1.449e-05
1.143e-05
5.161e-05
0.006695
0.0002282
0.0002823
0.003186
4.889e-08
8.89e-05
0.006698
0.0007031
8.359e-06
1.134e-08
0.006698
0.0002239
8.092e-07
8.029e-06
3.837e-05
3.567e-05
4.148e-07
3.337e-05
4.601e-06
8.366e-06
1.858e-08
1.733e-05
0.001244
9.319e-05
1.418e-05
9.606e-05
0.006685
0.0004941
0.000106
0.0002386
2.834e-05
6.693e-06
4.817e-08
9.132e-05
4.033e-05
2.745e-08
2.398e-05
2.85e-06
0.0001745
3.397e-05
8.536e-05
9.933e-07
1.817e-07
0.00669
2.717e-05
6.385e-06
0.006698
1.032e-05
0.0001165
8.183e-06
0.0002614
8.34e-06
8.366e-06
7.495e-05
1.64e-05
0.004718
0.00165
0.0001046
3.275e-05
0.006767
2.133e-05
0.0002094
3.147e-07
0.0002306
8.695e-05
3.867e-06
8.407e-06
7.687e-05
7.016e-06
0.006712
4.911e-07
6.918e-06
3.933e-07
8.478e-06
6.294e-05
1.263e-06
1.694e-05
3.322e-05
1.752e-06
3.641e-05
2.166e-06
0.006699
0.006691
0.0001539
3.078e-05
0.006685
6.575e-09
7.599e-06
1.375e-06
1.114e-06
1.875e-05
6.639e-05
0.005006
7.322e-09
0.0007166
5.297e-06
0.006748
1.148e-05
5.678e-05
0.0001579
8.336e-05
8.321e-06
0.0001436
1.811e-05
0.006661
6.025e-05
6.079e-06
9.518e-07
1.445e-05
0.0003212
0.0001334
2.199e-05
0.006699
1.774e-05
4.554e-05
0.0001519
0.0001906
2.905e-05
2.915e-06
0.005926
0.006715
1.588e-05
1.016e-05
0.0002706
1.64e-07
0.006701
2.401e-06
9.959e-05
6.466e-06
0.006701
7.049e-05
8.553e-06
1.896e-06
2.523e-05
9.364e-05
2.238e-06
0.006719
3.836e-07
0.004725
2.714e-05
5.907e-08
0.0008583
0.0001053
4.898e-05
1.033e-06
1.822e-07
1.273e-05
7.966e-05
0.006661
2.048e-05
9.513e-05
0.006701
3.726e-05
5.067e-06
2.2e-05
0.00677
0.0001941
6.959e-05
0.0001024
6.143e-06
0.000124
0.004122
2.061e-06
5.356e-06
3.021e-06
0.0004419
0.006698
0.006706
0.0006933
2.363e-05
7.359e-05
8.295e-06
2.781e-06
2.71e-07
5.645e-06
2.219e-08
1.102e-06
0.001314
3.076e-06
2.576e-05
6.626e-06
0.0001441
6.737e-05
1.48e-05
2.088e-07
2.649e-05
8.03e-08
2.43e-05
0.0003257
8.807e-05
2.382e-06
7.468e-06
1.044e-05
0.0002044
8.081e-05
2.981e-05
1.107e-06
0.004083
6.834e-05
3.458e-05
1.681e-05
4.987e-06
2.974e-05
3.091e-06
1.119e-05
0.006665
3.22e-08
6.633e-05
0.006749
4.562e-06
0.006696
5.728e-06
5.319e-05
0.001487
3.205e-05
6.888e-06
0.006707
2.652e-05
2.897e-05
3.535e-07
0.0006508
1.102e-05
7.166e-06
6.639e-05
0.006692
1.183e-06
0.000228
0.0005275
1.289e-05
6.288e-05
8.338e-06
4.946e-08
8.73e-06
3.352e-05
1.781e-05
6.114e-06
3.558e-06
0.006701
0.0002655
3.332e-06
8.286e-06
5.899e-05
0.006701
4.46e-08
8.386e-06
1.102e-05
2.228e-05
0.0001101
2.217e-05
0.006669
0.0004099
7.143e-05
8.277e-05
2.631e-05
6.961e-06
7.288e-06
2.865e-05
6.328e-06
6.598e-06
6.716e-05
4.541e-05
6.862e-05
1.193e-05
1.888e-05
3.101e-05
0.006701
2.566e-05
0.001021
0.0002141
6.263e-05
7.826e-05
4.718e-06
0.0001018
1.49e-08
1.916e-05
1.381e-05
0.002317
0.006692
5.875e-05
1.408e-05
1.059e-06
1.738e-05
8.003e-05
7.482e-06
5.119e-07
7.835e-06
2.124e-05
2.927e-05
3.354e-06
7.917e-06
1.1e-05
7.862e-05
8.254e-06
4.619e-05
2.706e-06
2.371e-05
2.716e-05
0.0001771
8.222e-06
0.006694
7.728e-05
0.000694
0.006691
7.725e-05
8.276e-06
0.0003001
4.466e-12
7.204e-06
2.991e-05
0.006698
8.722e-06
5.054e-05
0.002971
1.386e-05
1.035e-05
8.924e-07
7.36e-05
5.026e-06
0.006698
2.339e-05
0.006719
7.843e-05
3.743e-05
2.456e-06
5.906e-05
3.257e-06
3.936e-12
0.00661
0.006694
1.046e-05
5.315e-06
8.492e-06
0.0001868
6.132e-06
8.225e-06
3.713e-05
0.0002036
0.001308
3.393e-06
1.475e-06
1.459e-05
0.0001673
0.00669
7.622e-06
5.005e-05
7.172e-06
7.835e-06
8.6e-05
0.0006677
2.688e-06
1.715e-05
0.0002841
3.72e-05
3.466e-05
8.169e-05
0.006707
0.00637
7.483e-06
5.031e-07
1.716e-05
3.145e-05
0.0001483
0.0002484
8.067e-06
2.173e-05
0.006628
5.096e-06
1.322e-05
6.34e-07
1.429e-05
1.606e-05
0.006685
8.273e-06
7.203e-06
1.068e-05
1.903e-05
6.948e-06
2.072e-05
7.887e-06
5.846e-06
8.021e-06
8.123e-06
8.879e-07
7.201e-05
0.002028
4.26e-05
5.876e-05
4.438e-08
0.0004973
0.0002131
8.611e-06
1.234e-05
0.0002335
2.294e-06
4.431e-05
5.563e-07
9.439e-05
9.181e-07
1.818e-05
6.611e-05
2.668e-05
6.339e-07
0.0002097
2.041e-06
2.045e-08
0.004973
1.456e-06
4.071e-06
9.684e-07
1.676e-05
7.728e-06
5.695e-05
5.417e-05
8.401e-06
3.214e-05
2.988e-05
1.496e-05
0.0001351
0.0001058
0.0002159
0.000154
1.257e-05
0.0001477
6.917e-05
6.781e-07
3.488e-05
2.36e-07
8.34e-06
8.146e-06
0.006656
3.453e-05
7.239e-05
1.081e-05
3.963e-05
7.414e-06
3.902e-05
4.485e-06
0.0001003
1.816e-05
7.545e-05
3.423e-05
7.823e-05
0.0004761
0.0001074
0.0001292
1.702e-05
7.051e-05
8.401e-05
1.788e-05
7.532e-06
0.0001926
6.323e-06
1.976e-05
4.354e-10
2.691e-05
4.055e-05
0.000103
2.26e-05
9.51e-05
2.371e-06
0.004082
0.002192
0.005474
0.0001741
8.28e-06
3.638e-06
0.0001861
4.899e-06
0.000225
4.858e-05
3.576e-09
7.518e-06
6.907e-07
6.531e-06
7.173e-05
7.518e-06
6.35e-07
0.0005199
5.694e-06
0.006698
9.984e-06
9.818e-05
3.001e-05
5.086e-05
0.006684
0.006686
4.52e-05
8.483e-05
0.0001115
1.243e-06
8.069e-06
0.006678
0.006697
9.021e-06
0.0002163
3.688e-07
4.712e-07
0.005834
3.678e-05
4.664e-05
1.862e-06
2.732e-05
1.364e-06