/*--------------------------------*- C++ -*----------------------------------*\
  =========                 |
  \\      /  F ield         | OpenFOAM: The Open Source CFD Toolbox
   \\    /   O peration     | Website:  https://openfoam.org
    \\  /    A nd           | Version:  8
     \\/     M anipulation  |
\*---------------------------------------------------------------------------*/
FoamFile
{
    version     2.0;
    format      ascii;
    class       volScalarField;
    location    "15";
    object      omega;
}
// * * * * * * * * * * * * * * * * * * * * * * * * * * * * * * * * * * * * * //

dimensions      [0 0 -1 0 0 0 0];

internalField   nonuniform List<scalar> 
127143
(
2.183e+06
4.105e+06
4.682e+06
1.997e+06
1.676e+05
2.021e+06
6.622e+04
1.157e+05
1.848e+05
2.697e+04
9.739e+04
1.521e+05
5.509e+06
1.69e+06
118.9
5791
5.655e+05
1.919
12.18
3998
63.38
4575
0.1228
151.4
4992
620.8
1819
2007
1293
0.9063
244.8
640
4438
460.8
0.0571
4340
65.46
4.982
104.5
748.3
12.15
1.989
1.26
7.844e+05
1.923
451
1233
69.99
130.6
118.1
4881
0.02852
54.38
0.3717
0.02096
250.7
0.02095
0.3928
0.02289
0.3682
0.8723
18.59
35.62
0.02211
641.8
0.8967
0.06998
42.43
42.27
0.06994
177.8
1798
36.27
0.02288
0.0218
1940
0.02446
77.7
247.5
0.02222
1073
3576
321
607.5
53.53
77.69
77.15
2461
0.742
400.6
0.0238
0.5381
222.6
63.43
188.9
0.7766
1.763
318.7
88.5
0.06876
0.02221
122.1
1828
2.292
78.84
90.62
41.26
0.07016
3.65
0.02133
116.5
2487
108.6
30.29
0.02183
1.302
0.02477
0.0218
0.02427
1.669e+04
0.02134
284.7
12.95
0.2153
1093
758.5
31.52
0.02538
144.2
241.8
119.1
199.3
19.65
77.62
6.527e+04
118.9
0.06479
37.33
566.5
0.05824
0.1993
0.02352
31.47
18.02
52.34
59.31
5799
0.02213
200.2
2585
4.613
109.7
3.927
0.1104
41.5
54.44
0.3925
277.6
69.96
428.5
155.9
5338
0.02387
118.6
553.5
602.9
74.64
1.37
1614
0.02989
235.8
18.01
1.71
7.431
0.208
61.96
52.3
143.7
125.8
0.03594
7.419
0.03737
40.56
63.32
243.4
17.7
0.1797
32.45
138.8
0.03573
88.93
190.9
0.05854
125.8
1.186e+05
25.6
0.01952
0.01946
1.611e+04
0.02205
0.02182
0.02991
0.2029
65.09
6.339e+05
59.2
0.06127
6.815
0.7422
0.02182
0.2187
45.65
0.02184
1623
129.1
1.423e+04
484.4
7.077
146.4
0.06158
42.15
0.02185
109.6
44.13
417
252.5
427.6
4.799
57.03
61.96
70.03
0.03707
31.8
1.335e+04
69.8
0.1096
119.1
2.561e+05
0.02182
65.39
180
577.2
37.89
274.4
12.92
1.413e+04
65.4
1757
9734
0.08368
10.58
612
8.674
36.52
172.4
3.757
0.02529
1155
3.58
0.08801
23.6
0.03036
0.5062
0.02335
34.6
593.8
116.3
54.01
1.709
4.207
454.9
0.2062
68.7
66.08
22.2
82.8
108.1
93.75
0.3491
3.62
0.04801
2.355
2.256
0.02179
0.0218
1.077e+05
147.1
0.02184
105.4
0.03742
3.707
0.3724
0.1093
2.337
0.02219
6.093
216.7
65.25
38.14
3.665
326.5
0.741
0.629
1.191
495.6
24.83
6.781
0.02186
4.034
9.636
45.68
281.6
310.6
0.0387
0.02181
228
8.239
320.1
0.2877
0.7119
0.1145
188.8
0.03284
8.694
237.8
13.88
0.03813
91.08
204.7
44.24
39.63
0.0218
0.056
0.01953
0.01948
0.1075
3.547
1.708
39.72
160
0.0565
7.08
40.67
74.31
25.4
105.1
260.2
134
314.9
186.7
274.6
5.649
39.71
82.24
0.03328
240.7
36.49
44.85
0.02436
204.5
64.09
29.96
0.7002
110.7
115.7
0.02193
0.02202
1.046
418.3
0.387
4.257
0.03305
448.9
124.8
0.03386
0.1145
199.7
1.187e+04
82.47
0.3263
1.088
730.4
238.2
0.7323
0.02463
1780
0.0489
715.9
26.87
2.999
0.02228
0.3967
104.2
158.7
137.3
234.9
0.411
196.9
0.03299
0.02986
610.4
0.02185
53.11
38.85
0.05065
6.939
80.42
17.86
0.02222
108.7
11.04
304.7
0.2013
74.56
11
187.3
106.8
468.1
4.775
47.14
73.57
522.2
138.9
0.0643
62.74
0.1063
1.059
0.1257
533.9
0.07522
0.02116
135.3
42.32
0.3442
23.62
0.02192
8.098
277
0.02809
0.02216
0.02173
102.3
0.06575
4.275
0.02624
315.6
0.02188
45.44
1.067
45.89
77.04
207.3
5.872
456.2
0.04886
56.48
360.7
444.4
66.41
3.326
16.03
64.72
6.75
11.67
75.26
0.1621
0.02259
51.86
228.2
0.02079
68.92
0.5235
0.2152
7.811
0.05245
0.02029
46.53
0.4843
108.5
25.21
959.8
44.2
356.8
313.2
8.762
23.59
17.23
0.02171
342
0.02362
146.1
68.35
63.31
60.99
1.999e+05
115.6
9.6
0.1246
18.09
0.02176
926.5
0.02266
33.52
23.24
2.882e+05
1.487e+04
5.044e+04
0.02194
239.2
101.5
0.02181
59.16
16.81
83.18
2.535
78.25
209.1
68.87
784.3
0.1393
35.42
9426
64.46
318.7
198.2
0.02267
4.225
0.1712
5.681
0.02394
364.5
3184
79.12
0.01971
51.8
0.1244
283.3
10.68
2412
4.337
0.02383
84.41
7.062
0.02082
0.7364
3.88
186.4
110.1
230.8
135
26.29
8.308
32.36
67.03
135
0.02241
617.9
134.7
322.7
22.45
46.76
0.02213
0.02207
0.0812
259.7
26.5
0.02184
0.02717
4.998
132.5
78.17
8.74
183.9
332.8
1.921
0.02369
0.02134
96.63
84
19.95
0.03006
1765
16.31
177.1
0.3233
453.4
0.02185
80.54
27.15
2.807
0.0241
86.87
23.64
2169
0.02027
38.35
485.4
0.02172
6.927
0.02186
72.48
17.45
0.02178
280.6
179.6
260.1
157.5
24.61
275.6
238.8
39.69
94.74
184
105.6
35.11
50.45
407.5
0.02601
253.7
0.02179
20.95
0.02585
30.44
0.02116
0.02184
0.4849
46.95
97.77
0.02134
0.02117
52.77
2537
293.9
293.8
48.84
4.206
73.78
11.66
72.63
142.9
756.5
0.02136
330.2
66.6
0.6613
1.705
0.02419
0.02712
11.91
471.4
17.24
957.6
0.02574
0.03419
106.6
341.8
0.0295
588.5
0.1782
0.1514
153.4
3.378
60.65
0.1636
4.946e+05
232.1
66.66
56.71
146.9
236.2
420.2
360.6
0.02721
124.4
90.27
52.86
0.02122
89.19
0.6248
0.5169
0.01969
0.0212
534.8
0.1247
220.6
195
28.47
4.034
1.302
355.3
0.151
150.6
0.02169
0.0209
14.16
0.1116
401
0.4461
415.3
49.47
92.59
0.1836
0.6517
0.03108
314.1
0.0527
182.5
7.009e+04
15.23
29.76
78.79
0.02512
30.33
115.6
832.5
3.705
11.98
72.52
2236
107.3
41.25
17.57
123.9
38.04
9.582
31.18
0.4173
1.067e+06
0.6145
0.02948
41.66
17.63
67.79
0.02156
55.84
5.294
77.96
0.03644
1014
137.3
443.8
0.03751
368.6
30.77
313.2
211.3
0.03192
76.02
177.3
226.5
39.07
0.02213
40.67
78.34
0.0222
6.962
1.09
221.5
115.1
0.6296
15.28
538.1
112.5
0.01934
76.11
31.8
664
301.7
0.4067
58.12
132.5
0.01941
83.34
151.5
24.78
1.113e+04
24.2
76.05
84.4
37.94
2.21
0.02193
7.981e+05
132
147
176.8
70.09
87.93
93.25
140.6
0.02132
5.078
2.281
0.0326
110
145.9
42.09
12.87
0.02049
70.8
56.29
0.0217
0.02044
1.71
20.99
48.99
84.2
79.61
3644
3.392
0.3452
0.02124
100.6
70.14
213
408.5
1.119
0.04821
0.0225
3.303
1874
0.02126
0.1701
193.4
28.75
583.7
0.023
46.81
31.53
0.02182
310.8
0.02121
24.92
1425
311.5
15.2
973.1
0.02323
239.3
0.1828
365
155.9
431.5
3034
0.4025
0.7758
2.432
1382
0.02181
2.375
203.8
701.6
103.4
922.7
0.04648
0.1625
99.49
611.5
1842
128.5
1.985e+04
410.7
3653
186.9
174.1
4.255
1612
0.02436
54.38
0.02544
0.02366
40.31
0.02874
144
19.59
28.18
0.8316
0.04376
310.5
43.7
0.02227
1.808
58.79
0.04182
303.9
2163
27.03
5.675
120.6
10.76
98.22
0.02173
63.29
183.9
0.02412
256.5
130
15.02
0.0207
1.763
1.223
7094
4.445
2186
63.27
13.17
33.56
590.5
413.5
0.02178
524.5
1.028
0.02312
4.656
8721
1.571
701.4
6.026
1.628
753
3333
147.1
0.0236
0.02184
6.084
8.111
66.02
292.2
66.09
630.5
195.8
0.1204
617.9
0.06198
1165
0.02161
73.15
452.6
30.37
161.6
85.75
0.02179
0.02232
155
0.2682
52.59
133.6
102.5
64.03
12.81
169.7
289
879.7
47.31
277.8
177.3
6.295
67.45
128.2
88.34
642.9
3267
87.97
0.02156
0.02142
69.2
52.91
0.7814
0.02094
13.39
73.76
0.5295
107.2
10.33
118.6
10.9
0.02223
0.426
0.562
1303
479
33.36
0.5822
2.098
424.1
143.1
15.43
40.54
16.53
73.34
73.18
808.6
0.02416
451.8
569.5
30.35
143.2
131.2
0.02188
656.1
1187
0.02097
0.02155
78.49
87.42
9588
67.4
52.46
123.1
91.2
0.4686
0.5016
0.0249
111.4
40.52
72.6
2.008
347.8
64.71
0.02398
854.5
31.64
0.02172
350.5
0.02276
0.02169
10.47
0.1338
2310
0.02158
305.8
0.02182
169.7
0.1093
1.802
3.4
250.5
185.2
150.6
20.44
0.05083
0.0402
28.81
100.2
90.6
108.8
1063
116.6
1005
169.4
154.5
653.6
183
601.8
0.2893
3.544
0.03083
332.2
107.6
398.7
0.05384
50.4
38.1
44.02
35.38
94.77
0.7735
386
12.57
44.1
40.79
284.4
152.1
0.02075
12.92
342.5
0.02278
259.8
556.6
0.02081
1.835
96.53
0.03902
0.3134
8.267
76.94
0.232
0.0199
230.6
141.8
0.02178
0.2044
0.03654
74
203.7
3.964
0.0397
177.9
2211
250.7
138
50.77
1579
0.06327
79.71
0.02178
107.9
11.55
250.3
35.31
243.3
817.8
0.02197
9517
179.2
218.3
28.56
913.9
16.14
3.003
511.8
35.17
0.0404
1.917e+04
48.41
142
359.1
90.06
35.3
50.61
414.3
44.78
71.51
16.7
206.3
167.5
1.673
1767
0.1265
51.14
0.1203
254.3
0.01982
0.02166
10.32
1646
75.15
0.202
750.9
145.2
0.02181
2589
52.43
12.63
2577
2.69
58.74
1.927e+05
1.805
521.7
47.92
39.15
917.2
161.7
420
8.642
335.5
0.08524
0.5833
4.205
121.4
4.014
51.94
54.36
706.4
65.84
0.3522
56.67
1.808
1.057
5.159
1682
0.0503
1722
284.7
72.35
76.64
0.02181
36.36
108.3
1.33
255.7
343.2
502.2
0.02136
194.5
195.2
98.62
868.2
58.28
5.019
117.1
0.02237
113
58.27
2939
229.7
0.09765
38.53
0.02258
2356
982.4
69.86
0.7699
3.851
0.0208
0.01983
71.58
30.24
16.13
0.1157
0.04282
0.04564
18.88
114.6
5.625
332.1
130.1
941.9
1.332
434.6
41.13
103.8
0.01987
243.9
43.06
23.81
1122
3.873
12.31
96.75
29.82
70.01
2958
0.9876
135.1
58.78
12.64
2.531
113.9
2454
0.2065
186.3
0.0212
147
633.6
0.02037
741.1
15.3
57.83
201.3
0.02139
1.506
1.037e+04
0.0219
110.8
138.5
45.38
964.5
0.8725
2.303
125.4
562.5
89.1
278.4
0.07901
34.22
463.8
3308
156.1
112.5
0.0217
157.2
5.02
356.9
155.2
31.78
105.3
0.02209
1.432
68.19
0.02402
49.54
0.02132
2140
51.45
1583
70.16
37
775
95.88
87.39
147.7
4866
143.6
105.6
26.29
65.22
68.86
0.02211
33.14
0.02293
41.67
0.02201
55.35
0.02148
246.1
56.09
0.0208
0.02172
91.21
0.2061
208.3
0.13
0.0202
8.143
111.1
0.03918
5.813e+04
281.7
5556
87.7
19.3
157.2
90.31
28.81
0.2889
790
47.87
144.1
529.8
112.8
47.61
10.47
0.02156
4827
133.6
684.9
0.02181
1024
42.53
159.1
33.71
0.01976
0.01974
0.3472
0.955
5.636
26.28
31.63
1.077
2.145
0.6465
1.941
516
23.36
3.12
90.32
2.611
608.2
219.1
34.16
171
74.01
0.02237
114.9
72.3
1012
41.98
0.03917
24.99
1.081
74.54
41.48
711.9
0.7171
0.02174
59.1
10.62
1222
441.1
0.7836
132.6
178.7
0.1554
0.01973
466.5
227.8
5358
0.08662
1789
40.8
0.02155
264.9
514.4
20.25
0.23
32.93
90.73
26.84
99.21
41.94
164.4
0.04993
39.9
260.7
295.5
0.04416
0.04408
195.6
16.69
9292
86.69
341.7
369.3
4853
0.7702
94.11
0.02756
0.02199
0.02151
68.38
0.02184
1353
0.02174
3931
0.4703
17.21
45.55
263
0.07503
1619
0.2906
170.8
74.83
878.1
0.02271
229.7
109.3
63.38
446.6
167.5
91.09
499
601.5
0.05355
0.02061
608.7
0.06187
0.02014
0.4603
524.6
0.02061
668
0.02185
58.82
23.46
33.46
125.9
0.02097
75.42
281.3
75.79
0.1047
5.663
0.2654
0.02178
0.02123
78.13
2.023e+04
8.597
44.22
0.02659
1203
0.4739
0.1068
0.04965
2.421
107
245.9
0.02774
41.25
0.0235
89.09
0.02217
0.8134
29.1
27.11
20.34
339
185.6
0.02122
25.2
549.9
89.62
954.5
436.8
7.773
0.03802
4.55
8239
37.03
444.4
1442
0.05835
0.2409
0.02164
169
86.03
74.33
0.02181
229.6
0.02176
0.2457
88.39
0.02152
6.66
0.4434
13.23
36
0.3169
168.5
0.0219
152.9
510.5
2.07
12.77
83.55
0.04533
11.89
38.72
75.79
17.81
32.02
303.3
138.3
230
540.5
0.09259
0.2998
18.97
0.04019
117.6
87.61
0.156
39.13
0.02654
0.1434
313.7
1.224
11.13
55.21
1078
71.64
919.5
0.8133
0.02066
907.3
63.63
0.1226
187
0.03125
23.78
0.02223
18.01
835.4
39.7
11.35
27.87
70.19
0.02187
30.61
0.6561
7.831
1215
0.02788
48.02
521.2
0.02161
0.02847
50.87
0.05912
48
2.385
1.894
15.8
0.7181
43.96
0.06096
0.7871
140.1
0.02076
0.267
1212
845
0.02099
107.2
1145
4.642
515
39.98
81.47
822.4
0.0502
0.0916
51.51
0.02796
540.9
13.73
48.8
759.8
277
0.02728
291.1
1.417e+04
4.755e+04
36.67
54.99
250
0.6919
66.54
5.941
38.11
255.5
59.2
145.5
30.9
676.7
95.51
1.114
0.02183
394
1.135
116.7
0.4521
0.05601
62.98
36.91
4.753
0.02053
188.3
443.1
7.108
419.9
60.42
1112
130.8
0.03066
250
687.2
65.15
51.54
1469
0.01939
2595
117.9
81
0.0257
70.33
64.45
304
354.8
49.81
415.8
0.02587
6.471
95.93
0.06196
55.91
0.0219
211.7
2404
75.33
416.1
5360
58.82
1074
0.08183
312.4
5.529
43.69
0.04678
7.825
16.14
57.02
57.62
0.04884
39.34
3355
5609
67.17
2.345
0.9759
1.513
0.02236
0.02906
108.7
0.483
0.02241
37.96
64.35
136.1
37.29
4.859
72.54
11.56
603
955
1410
0.1129
44.7
2619
26.41
323.7
2.61
6.641
35.87
3.375e+04
9.578
7.1
0.03606
0.06663
789.8
62.97
0.02181
0.02196
44.55
390.6
52.62
50.21
1968
27.3
0.02686
371.1
47.27
46.54
615.5
0.4457
1.704
52.24
161.2
0.8017
189.2
0.02189
484.9
25.36
395.4
0.7186
106.3
548.3
2.004
388.8
10.01
254.3
69.35
293.5
0.1555
46
71.66
95.71
369.8
41.63
1295
111.8
0.0218
33.89
2.607
315.4
27.56
0.1874
10.87
0.1402
851.1
0.03906
59.65
27.73
32.31
53.7
29.24
0.2168
918
0.2715
0.0275
166.2
0.02092
61.01
0.0386
0.8379
25.65
0.02152
0.3725
107.2
330
0.02178
0.02496
49.24
9.67
296.3
0.2408
22.19
32.02
327
228.9
0.9671
32.19
7.11
0.0976
53.43
2332
16.55
1845
196.2
19.62
1032
0.02182
0.02061
2.167
2.424
5279
0.02181
10.9
158.4
1.523e+04
138
251.3
0.01959
0.0192
184.1
204.9
33.11
39.37
0.04074
2.013
1.118
0.02222
367.4
68.92
37.7
32.31
686.6
0.2864
3.048
0.01992
5.425
66.55
341.8
158.4
170.5
167.6
90.99
103.7
57.65
342
185.5
0.08787
52.47
664.9
0.02597
0.02366
90.42
55.48
1081
3.126
103.9
244.7
0.1185
0.02178
8.265
0.02211
95.66
1956
46.3
0.1787
23.79
0.05525
564.4
255.4
0.0562
6.654
4.992
44.07
42.68
17.26
182.9
135.7
91.1
69.05
8.447
43.08
436.5
48.86
150.4
67.27
3803
31.89
68.14
90.23
13.11
3.517
7.846
1120
0.4956
268.2
0.02325
62.04
0.02214
68.36
17.87
1064
136.4
0.1243
280.4
3069
438.2
81.58
30.29
316.8
1551
0.2041
41.46
17.36
1964
120.9
86.57
0.255
0.4252
0.02182
25.98
2490
2.556
239.9
53.21
0.1297
1081
0.01984
16.27
0.5565
40.88
209.3
0.2311
2.207
25.7
0.05123
41.03
12.32
1015
188.7
119.2
0.02156
67.46
108
403.6
769.1
17.84
9.434
143.9
0.02186
124.9
100.9
7.028
15.93
35.57
822.2
316.3
93.42
62.11
0.611
5.594
786.2
3.538
0.1063
1320
0.05802
0.6158
0.02188
0.02199
59.3
0.02235
167.2
19.76
0.926
28.86
309.7
896.8
107.5
65.17
125.3
53.19
8480
103.7
115.9
0.7073
3307
26.62
710.6
1236
0.03599
214.1
293.7
2.15
39.31
532.9
212.1
182.7
84.86
109.3
0.03019
7.216
0.02206
1.018
37.97
121.3
13.96
44.64
1693
51.77
0.02236
343
119.4
2.659
22.71
113
81.11
256.7
404.8
924.7
63.72
105.7
155.4
113
94.27
0.1051
4137
386.9
39.04
3.067
0.02253
124.6
345.7
66.31
2.08
963
392.3
111.7
2.191
114.8
1868
0.02254
1009
18.03
0.0475
9.934
188.2
0.02182
257.5
42.48
5.692
4680
5.692
158.5
3322
96.5
103.2
0.01982
0.01976
97.81
11.18
3.304
662.6
56.49
0.02152
808.2
342.2
62.31
0.02253
0.02237
64.33
3.326
94.62
1.122e+04
209.7
0.02391
245.2
2532
0.1152
250.5
140.7
0.07021
0.9307
187.5
0.7727
34.21
0.01966
0.01944
0.01945
0.01967
0.08156
53.39
7.854
114.9
3.377
41.59
85.49
885.4
0.0204
180.7
65.08
298.5
626.4
386.7
145.2
30.04
141.5
52.4
68.23
0.1063
43.03
6286
70.81
700.7
0.7845
26.32
0.02178
3447
127.5
131.6
3.626
0.03667
2872
0.0218
61.36
586.3
0.02869
225.4
65.42
35.87
32.15
453.5
0.0553
140.7
0.02068
5.289
102
62.43
74.8
16.59
0.02165
0.0219
0.3024
154.6
212.2
0.4317
49.3
232.3
1.755
222.2
143.2
5.619
47.13
27.5
87.96
0.2054
3381
0.8666
0.02179
1205
0.02179
0.02271
0.3271
0.0816
263.6
64.37
406.5
76.61
136.7
0.02188
0.09754
50.33
83.87
60.75
0.03895
0.3427
9806
963.5
0.02213
1594
959.2
9061
0.05824
5.625
13.8
0.1021
0.02546
4.453
91.82
7135
0.1289
274.1
3.629e+04
0.02179
155.5
776
54.28
0.02179
328
9100
4800
1123
0.4663
13.2
2452
0.0569
74.14
0.02154
47.87
982.6
7.044
243.2
1088
0.2337
62.7
17.02
0.02225
0.03331
200.4
382.3
3.192
533.5
193.9
0.9741
43.05
52.57
47.27
68.01
0.0218
50.62
70.85
85.09
109.5
25.55
191.4
81.14
1433
1644
2.038e+04
219
0.05371
168.2
0.0274
346.5
311.9
0.02181
2.211e+04
0.02221
71.44
1235
565.7
68.44
120.6
110.7
39.53
0.01964
9355
31.3
0.04798
36.31
32.06
2545
853.4
3279
24.06
168.8
884.3
35.08
0.1086
37.41
1590
0.02089
69.41
28.15
73.45
25.41
35.46
21.6
664.1
52.39
49.1
962.1
0.0412
622.6
0.1219
21.07
100.2
0.02628
0.1331
18.51
426.9
385.8
1376
0.04656
0.02217
2.559
96.54
1613
66.08
9.451
0.01934
0.03372
393.1
0.01975
125.6
136.3
0.08508
193.3
32.76
2050
1467
862.6
0.04048
231.5
72.66
268.7
3.835
12.3
988.4
71.57
308.4
104.6
595.4
85.7
1.915
1893
48.34
37.76
58.42
0.04198
23.67
0.1717
0.02222
10.71
147.1
128.4
67.56
20.58
2687
4211
44.68
3.231e+04
0.1894
0.3352
0.03694
0.06421
9.618
0.02221
38.87
1231
95.3
276.2
1.314
16.8
37.52
160.9
46.15
532.8
53.43
2434
271.8
0.02442
47.46
38.88
0.02204
0.04197
482.7
0.02186
291.2
207
101.4
3.435
618.4
0.07645
0.6011
0.05003
241.9
1243
157.6
25.75
0.02144
93.13
0.02164
0.3233
106.1
2.574
979.5
185
270.8
7.225
2375
0.9933
0.1634
83.07
109.9
0.02085
2.482
0.02185
326.7
327.3
107.8
61.2
0.02164
233.2
171.8
160.1
1099
337.9
145.6
0.02455
0.9285
1.928
2.089
375.2
15.66
0.09376
4.38
0.1589
22.99
127.5
0.02071
0.02042
0.02277
0.04156
0.2792
268.2
174
0.0221
94.55
12.12
62.04
0.02194
134.3
0.109
458
0.05932
6200
11.99
512.4
0.03571
0.09744
873.3
0.03133
60.49
62.5
77.92
113.6
189.9
0.02182
123.7
99.34
47.66
69.98
78.02
4.083
80.64
26.51
741.5
0.02154
48.1
18.54
1991
0.1915
0.02209
470.6
593.3
78.21
58.21
6.634
723.1
0.05205
15.75
116.8
51.62
66.98
4.247
0.02433
9.844
1076
97.82
61.11
1103
2.877
3.633
0.02168
0.03065
0.1388
0.03698
6990
161
0.02195
0.02367
40.71
4341
0.02194
74.38
672.2
60.92
3.368
290.3
978.7
189.1
39.93
281.1
2246
538.9
0.02227
130
16.28
152.5
0.02139
0.3494
81.84
47.97
63.94
3380
702.3
1.312
206.6
2739
8.773
84.28
77.76
1.732
0.9035
424.7
1625
0.02158
382.3
49.4
0.02194
779.1
60.67
3.551
0.07708
33.81
243.8
115.7
12.18
0.0219
0.02201
1.797
60.82
0.02018
2.078
0.02764
315.9
36.78
56.58
182
447.4
1.755
48.06
0.02155
1046
13.62
1098
207
0.1075
437.4
4.743
307.6
820.9
10.72
766.9
0.02081
0.02125
99.5
0.07366
0.0214
2006
86.35
94.38
253.8
10.69
115.8
0.02453
1945
0.04324
28
0.02041
0.2163
99.12
71.46
133.9
34.05
29.07
92.19
0.02048
133.4
278.5
379.3
1086
0.1426
33.25
7.668
0.02195
84.39
225.8
0.1713
0.05127
61.88
844.4
0.02132
0.02165
10.94
162.8
51.88
1443
0.02206
313.6
132.6
50.76
0.02208
0.08905
336.1
69.11
182.9
78.76
25.24
0.02054
179
0.0262
382.1
1369
0.07574
32.13
28.2
372.3
1164
104.6
0.06924
0.02048
111.7
0.2325
0.02167
428.1
81.38
9.802
0.0205
0.08322
0.1097
0.03035
47.38
89.86
0.0218
271.5
28.58
174.1
0.02929
0.02191
0.02168
0.05395
8.917
2.287
239.9
1047
1448
26.6
2935
641.5
0.02524
963.9
150.8
268.5
28.87
0.1789
1.74
573.8
555.8
524
94.63
0.06191
98.13
72.96
43.24
7.011
0.2318
35.96
0.2375
97.28
0.02984
105.5
5.654
3.5
0.5382
581
1610
900.9
0.02062
4555
106.9
0.02012
99.81
0.02182
182.1
174.3
0.1049
472.5
30.69
0.0223
1.737
7.051
1160
0.02369
0.2387
857
2.612
0.02158
598.8
68.3
0.03446
0.2268
3.107
74.22
2708
222.2
172.9
14.31
175
1.555
0.02173
0.04986
63.97
42.96
177.5
0.02207
2322
98.39
17.42
71.04
107.2
162.6
0.0202
0.06279
123.5
160.9
0.05625
49.46
253.4
6.967
3.618
6.107
24.65
0.0479
20.64
15.86
8.289
6.074
0.02205
173.4
0.1331
68.39
3.105
2.178
323.8
143.2
5902
11.09
0.8708
0.06986
0.02123
3.016
12.61
641.4
1062
67.79
166.2
296
40.89
0.8001
156.2
204.1
734.3
73.87
0.05048
416.2
1.086
402.9
7.078
19.7
35.99
99.19
0.02179
36.91
0.2346
0.02165
0.2561
412.1
1.091
4.467e+04
235.1
68.48
0.02168
31.15
252.6
0.03916
58.2
78.6
328.8
92.61
235.7
0.02188
215.3
0.02074
2.172
324.1
50.83
2.968
211.2
3e+04
0.02188
0.02175
15.76
31.69
366.1
0.9564
101.6
267.4
5.428
63.96
0.02219
158.4
513
0.1194
74.27
0.02157
24.64
0.06753
47.75
164.2
153.1
0.2932
78.53
12.94
0.02838
95.49
259.7
0.2184
0.02153
0.02368
167.2
962.8
10.33
6.82
88.5
8.81
73.1
8.203
0.01939
0.3749
1.046
1639
1611
273.9
0.02135
227.4
57.44
128.4
163.3
1096
3.061
46.01
42.87
28.59
275.6
709.4
0.8289
0.05667
8.559
0.03742
3013
0.02368
55.63
207.2
15.18
63.55
232.9
128.7
458.7
42.01
187.1
12.15
2.613
451.1
1587
69.88
888.4
1558
0.0218
983.3
116.1
389.7
577.4
42.59
1.316
57.05
36.35
5.765
0.04917
28.28
65.05
34.46
39.09
87.4
0.9664
1.186
0.6566
1016
114.6
1360
42.61
231.6
0.02027
379.4
167.1
488.4
30.6
977.4
327
125.5
0.1017
911.8
0.08984
53.33
105.4
0.07127
0.669
87.93
10.37
41.41
90.85
9.288
75.78
67.91
1078
8.865
6234
0.04713
4.636
60.88
11.98
0.0562
232.6
0.02181
0.02255
0.02178
69.87
63.98
122.8
0.4289
0.1527
51.65
0.04957
5381
510.7
968.9
100.2
0.0895
278.4
583.3
0.07988
186.4
0.02187
25.28
21.13
93.55
1.861
0.0213
0.02187
212.1
25.79
0.04497
1039
67.24
0.02096
0.02182
27.96
0.03614
181.5
1065
0.0247
3.21
114.2
239.7
468.6
1087
8.902
0.1784
20.39
126.9
0.2902
341.6
8.988
2.231
245.3
71.01
3.152e+04
0.03106
25
479.4
1166
0.02184
73.26
0.0218
12.8
2.404
11.31
42.6
119.9
53.29
0.2292
400.7
79.61
144
285.4
281.9
84.49
1.129
30.53
338
53.36
119
0.02123
922.5
992.9
424.9
19.57
3.848
442.1
223.4
0.4443
0.1369
7633
74.09
0.04472
0.02889
0.0457
157.4
264.3
2.694
930.7
4.695
0.03318
44.74
26.67
43.65
182.5
5606
633
42.91
210
68.66
125.2
152.7
71.34
18.25
17.51
438
67.52
0.4023
61.2
243.9
0.1854
17.69
0.9776
4.327
1073
105.2
0.02204
850.8
8.622
1175
106.1
0.02153
0.1292
271.7
0.03376
75.99
348
676.3
16.05
0.02304
0.2442
31.46
60.83
0.09444
154.5
0.02078
228.4
74.37
104.4
93.4
150.7
157.8
139.3
840.8
0.3806
38.95
0.02183
1449
0.04657
0.02685
66.93
0.02213
29.85
55.69
1.927e+04
0.02196
68.21
47.69
184.9
150.8
0.2429
104.8
47.13
131.1
632
101.4
0.114
0.02258
76.69
338.5
12.43
38.9
175.8
228
2.603
0.02115
32.52
70.99
2230
18.84
105.8
3.177
85.42
0.02151
8.122
921.1
397.4
0.02198
0.271
103.5
0.01993
33.47
440.2
31.78
0.02195
0.02201
15.87
0.02464
0.02014
0.02174
18.65
228.9
394.3
0.3309
60.74
4.671
0.7627
0.02225
72.43
22.22
0.0485
1.082
387.4
2.063
0.02882
221.1
129.5
10.52
922.6
2479
0.02835
44.99
11.97
170.6
146.3
279.7
0.02194
19.62
1010
2.334
43.37
0.4661
534.9
104.5
75.59
5.615
1170
0.08148
2963
94.96
0.02866
0.03476
0.02
68.64
96.89
700
393
2605
0.1229
0.0194
36.62
42.33
0.1474
0.02216
309.5
23.61
432.4
129.4
88.25
32.15
14.16
8.952
103.4
0.01985
835.6
181.3
70.01
5.346
0.098
0.02244
59.31
42.41
132.3
1359
17.03
0.04836
21.43
0.7179
0.09393
0.02226
309.4
76.38
406.3
299.3
88.07
0.9747
65.77
61.19
3.135
34.15
0.4838
0.1864
0.02192
82.6
1896
0.9884
0.8345
3677
0.3444
0.02169
4.402
0.03263
0.02203
42.14
0.01947
0.01942
3.02
0.02012
98.8
1784
186.9
4.635
0.1979
0.02113
0.02197
4.452
88.6
12.11
992.1
46.88
0.02907
44.48
9.579
615.1
0.242
0.02198
3.577
51.08
0.02203
0.02136
52.73
89.41
0.06393
0.03426
174.2
0.02131
0.3873
0.02185
5604
0.2091
170
41.92
0.03221
0.1706
10.45
47.78
236.3
46.64
34.25
27.04
0.02215
975.4
57.59
42.44
0.02191
69.49
62.91
184.5
62.43
0.3472
112.9
4.546
0.2052
240.1
0.02205
2.762e+04
5.169
1373
0.02197
81.38
0.02186
0.1025
1.875
472.5
55.46
120
2.553
0.08626
1004
0.09994
235.5
934.9
7.401
0.1938
0.03885
230.2
0.02164
1.684
79.5
5.336
5.301
0.0222
1368
0.0377
49.98
320.9
20.54
181
676
53.01
339.4
42.72
1.089
73.31
1.596
0.02179
0.02181
586.1
45.03
242.5
31.98
30.77
0.0218
28.34
0.02181
0.02199
0.03639
466.8
0.1559
4.333
0.0296
96.58
0.3086
158.9
107
1689
0.02791
244
27.76
37.72
0.2286
45.24
0.02187
39.94
0.2445
67.3
4.569
0.03516
103.9
2142
47.94
514.4
93.73
1852
436.3
2.074
13.61
1248
6.792
3048
141.8
91.23
157.4
55.38
121.2
184.3
206.5
0.03561
58.55
0.0591
149.3
1256
33.16
245.1
252.8
59.31
43.02
0.03025
97.94
110
3661
38.27
0.02326
82.01
30.11
59.5
0.05042
22.34
65.26
102.3
0.6426
449.6
13.21
349.6
79.29
238.6
71.94
47.17
123.2
0.02744
645.3
6.593
0.02586
45.19
64.28
86.92
305.6
355.1
0.02202
79.56
42.58
0.1319
3.598
52.48
3581
310.9
0.02088
0.02241
1.654
99.42
25.54
0.02162
17.5
100.6
174.1
953
0.02104
109.2
883.6
70.07
2753
184.7
211.2
193.6
43.04
6.089
0.02531
105.8
205.4
33.11
129.8
0.9594
69.91
0.02203
0.046
95.14
71.56
93.35
203.3
62.82
0.02217
317
196.6
0.3065
114.7
3812
768.6
0.03404
0.1982
0.02743
33.88
220.8
287.6
437.6
38.59
130.7
0.02182
158.3
1.362
37.41
331.5
0.6932
993.5
19.69
666.5
0.04144
63.6
606.7
0.02179
62.88
39.96
89.22
45.8
0.0219
0.022
0.0355
116.3
0.02218
26.79
629.3
0.1927
80.3
101.2
0.04673
27.99
61.55
0.1904
497.4
66.58
1024
169.3
0.02208
393.2
696.9
0.02172
1104
6.552
14.18
14.13
199.9
42.33
29.73
54.44
38.81
0.02194
43.87
0.02178
0.06524
508.1
56.25
19.59
16.89
1.374
155
0.02191
0.01974
0.08734
41.91
65.7
27.96
994.8
1.536
0.1128
461.6
0.7382
35.19
0.02137
162.7
285.3
51.99
57.17
251.6
40.19
100.9
97.26
2.248
0.02472
81.06
68.53
54.36
301.2
1080
245
0.0215
54.44
106.5
42.91
4637
0.02182
205.4
81.21
29.22
57.13
100.4
2862
66.07
59.56
295.8
3312
5.635
55.05
800.7
5.013
0.02169
142.2
75.8
92.8
52.4
52.19
9.306
0.03537
226.8
43.31
468.1
7.776
361.6
519.3
0.02175
287.2
54.25
183.6
2.228
0.01943
147.8
103.9
8.925
24.32
0.02135
91.96
44.99
2.734
55.01
35.24
255.4
69.11
207.6
168.3
0.01992
34.95
67.83
109.5
270.5
43.49
16.31
92.32
50.97
15.17
58.37
173
942.4
346.6
220.6
5642
10.29
0.1088
1.294e+05
179.1
673.2
0.03194
651.1
1420
121.3
12.36
0.02326
8.666
0.02181
72.17
17.61
2.52
2.018
53.94
370.3
11.82
1.261e+04
54.64
131.5
199.8
2211
274.3
105.4
79.49
0.1515
83.2
50.15
1097
36.42
0.682
1.009
288.7
0.8666
0.022
0.02177
17.45
19.39
0.04862
0.02018
0.02233
93.13
517.2
393.5
0.02155
0.02573
27.93
0.01973
0.01985
287
0.04465
56.75
331.6
0.05739
335.5
3.879
149.2
9.767
101.6
0.078
33.57
74.26
3.971e+04
100.8
63.64
310.3
571.7
1.812
0.02569
46.91
344.8
0.02178
3.185
128
324.1
941.8
108.9
135
390.1
0.0268
37.78
387.5
119.7
39.17
86.9
0.06031
14.56
33.75
312.4
62.1
88.03
0.03691
446.9
66.46
0.03227
91.26
0.05734
85.46
0.02934
2904
1125
0.03321
103.1
58.8
0.1834
887.4
192.2
0.02336
681
31.06
96.73
589.8
0.04601
0.38
3808
37.81
138
3.109
85.7
1.68
7.453
78.64
0.05032
1.27
179.4
33.76
90.14
70.63
130.4
2.816
34.82
275.3
106.1
3.018
13.17
0.0218
0.1548
223.3
62
0.01944
1.678
15.27
6.514
81.58
33.15
71.17
0.169
169.2
40.1
0.09201
32.46
170.3
0.1569
351.8
0.05448
280.4
40.21
0.3695
0.08598
52.44
312.5
162.9
0.02107
150.4
63.53
82.76
0.06264
0.02238
29.11
139.2
439.3
7.205
30.23
63.35
162.7
1.806
1.659
1280
7.228
1.362
3534
139.5
35.22
72.05
0.02204
2.449e+04
0.02269
109
50.27
52.89
77.05
78.79
1421
16.74
5.386
0.4718
1.102e+04
282.2
59.26
8548
1197
281
49.01
0.1487
0.6085
0.3761
27.53
0.02187
177.5
1175
0.05897
22.26
2.938
69.24
50.09
248.8
2313
562.9
100.6
0.01942
0.01915
0.02179
171.3
2392
0.6018
0.0216
0.2432
823.1
3.844
2557
32.36
0.02272
6685
0.01947
1.156
38.6
0.04981
38.47
0.4589
1.005
0.09082
632.3
76.82
26.48
53.83
7984
50.1
405.5
98.2
53.19
0.02213
5155
234.3
481
33.38
169.3
35.28
251.1
0.09852
34.32
139.1
48.48
167.1
0.02732
620.4
64.62
465.8
8.584
0.1042
0.1694
0.02219
119.7
104.4
63.24
104.6
26.9
802.5
33.32
41.16
24
79.47
0.2133
184.8
47.86
35.68
1.941
0.0734
4.616
0.1919
28.6
1.75
206.7
7.011
213
25.86
6.912
146.1
0.4328
730.5
34.45
1.364
0.1205
2039
97.85
83.32
33.24
1226
0.02204
594.2
304.1
32.02
54.64
63.71
27.93
265.5
77.25
105
31.61
42.32
2646
0.04603
0.02187
0.02211
52.46
227.3
1.869
1413
441.7
1622
505.7
44.64
731.8
1049
5.719
262.9
425.2
31.78
1094
0.02176
131.4
281.5
267.3
0.02157
267.6
14.43
109.1
131.4
64.51
0.02205
0.3165
130.4
689.8
0.02093
119.9
3.106
0.4865
1.76e+04
0.03018
25.67
47.6
135.1
189.2
0.4428
24.57
5.78
218.8
342.9
286.5
0.01949
56.31
4.084e+04
0.02877
0.02414
493.8
785.8
171
121.8
0.07224
27.52
178.6
17.32
15.73
88.77
0.02004
41.98
8.767
0.2575
0.02367
85.76
0.02134
6518
44.17
4.274
11.44
2449
0.02266
385.2
0.02
0.02216
187.8
0.536
149.9
16.58
0.06087
158.4
104.5
88.24
7.773
92.92
231
421.5
156.6
292.8
567.9
951.2
216.7
27.31
207
138.1
88.81
0.51
0.0212
0.0212
1544
33.44
112.4
2442
0.02228
553.3
0.4894
0.02039
58.73
8643
6.444
248.1
3569
0.02206
255.5
135.5
77.61
45.62
26.21
2139
363.8
0.02177
2654
536.6
0.07822
0.02534
154.6
439
169.8
289.7
61.55
52.5
0.02179
217.3
0.02124
263.2
285.1
2354
0.01944
0.01917
0.2265
31.26
0.03707
47.31
1.271
32.57
100
34.53
114.2
0.07463
0.02994
1249
2464
32.62
397
0.04928
57.3
0.02153
63.48
1875
138.7
392.2
812.1
275.6
200.8
1.066
32.28
115.6
0.02841
0.02216
0.02184
60.62
93.63
179.1
2850
168.3
0.02718
71.33
188.1
173
4158
16.49
168.4
533.9
20.95
0.07187
1.729
6.051
3.118
0.0974
441.1
55.45
19.68
40.95
281.5
0.2435
0.01976
993.9
40.07
53.34
83.72
1207
37.57
0.02085
79.7
110.1
93.95
3.439
40.29
123.8
4.325
108.1
1.807
0.05536
87.31
0.05495
0.1085
0.2235
732.3
11.43
524.6
92.51
25.11
133.7
0.03451
272.2
164.3
0.4977
51.42
13.56
3541
0.03788
0.02594
266.9
78.33
83.1
65.78
0.4581
361.5
0.0684
0.02184
8.887
543.3
0.0276
1.838
12.52
0.02173
1058
0.06618
78.08
38.81
16.43
0.6662
282.7
290.7
2.087
0.08112
0.02225
90.37
26.49
67.56
69.59
0.02153
0.0202
0.02178
116.7
97.1
81.43
0.04434
429.5
50.02
279.2
23.19
350.9
0.3387
0.03672
1086
0.02239
182.1
96.28
0.03806
56.01
36.44
161.2
236
115.9
71.6
2.892
0.05096
2395
217.8
488.6
0.2366
1.235
0.02186
1318
0.02174
99.28
713.2
0.02296
3.584
9.191
218
0.06886
65.73
6166
31.96
0.02169
63.53
177.6
78.12
69.87
69.66
128.8
1691
12.22
0.02073
0.02486
6675
10.46
214.2
5.034
24.45
0.02121
0.02193
1.592
3895
674.1
308.1
168.5
0.8381
183.5
691.9
26.79
128.3
0.0219
334.4
6.437
142.7
93.04
81.66
0.02161
369
65.77
2144
7424
16.56
7.239
1.065
269.1
0.02322
20.88
2445
161.8
162.7
271.7
1195
105.5
100
0.1981
437.7
483.7
1131
62.14
0.03057
777.6
673.9
0.02178
204.2
530.5
123
295.7
119
12.66
71.69
20.8
0.02823
64.45
0.02211
43.06
0.2058
1811
0.2444
2925
20.48
264.2
38.92
58.45
152.9
9.064
113.8
1065
37.33
42.93
37.71
4.507
76.71
257.8
20.15
0.02737
11.05
8.833
50.57
67.87
108.8
637.5
149.7
0.02807
163.5
1265
76.84
43.2
380.6
0.04435
137.6
0.02169
59.48
3.722e+04
1.984e+04
518.2
90.83
20.29
0.02113
0.04192
93.85
53.65
65.87
3.001
0.02223
55.82
219.9
5.277
85.99
0.02182
456
275.3
3908
5.451
14.36
36.56
247.7
0.03427
415.2
5681
0.9409
8.406
0.3872
185.4
3747
3.834
56.86
4.48
128
0.02741
59.6
0.01989
941.1
71.25
14.56
277.9
3.295
290.7
62.37
1.8
0.0782
0.02199
0.02169
20.11
69.86
47.08
25.5
29.55
31.62
2813
1.327
72.47
0.3302
0.02208
471.8
0.02231
58.91
372.8
3.374
76
36.1
2748
214.9
70.15
144.7
26.94
140.3
0.1731
989.1
0.02178
4009
875.7
34.61
55.98
0.02224
84.79
145.2
149.9
1.135
102.3
770
922.1
0.02176
54.9
0.02194
0.02177
655.3
0.02913
69.38
7.42
1407
99.72
153.9
36.62
118.2
1.359
63.72
1.635
3.931
7.88
0.02522
60.69
0.073
1366
60.94
27.83
0.3766
13.59
178.5
944.8
168.9
31.37
7.432
0.3974
133.4
55.02
313.4
98.67
0.5825
68.54
92.5
32.14
48.29
4.534
57.96
6.482
160.3
3205
33.9
0.1961
0.03863
597.7
29.77
0.0218
356.3
0.4273
1234
188.7
0.01966
104.8
214.4
214.1
369.7
340.7
31.7
145.3
0.03841
605.4
255.1
54.98
147.1
30.81
105
0.0223
0.02398
0.02224
234.8
0.2577
0.02197
0.1095
2.108e+04
0.02194
154.2
435.9
0.9951
270.7
196.6
419
696.3
24.36
86.51
88.67
2.765e+04
0.02174
231.4
10.07
44.12
1.921
5.033
2.94
1.447
1347
0.04413
0.02917
1.208
1128
1216
282.6
480.1
0.04825
4234
0.02172
167.3
231.6
62.09
0.0218
0.6925
35.61
350
191.2
243.5
2.546
552.8
1876
9.961
30.22
0.02778
4.054
5.835
0.4713
1.055
9.207
186
23.14
0.3227
130.7
268.3
0.639
1.873
142.4
0.02245
0.05264
1060
0.02132