/*--------------------------------*- C++ -*----------------------------------*\
  =========                 |
  \\      /  F ield         | OpenFOAM: The Open Source CFD Toolbox
   \\    /   O peration     | Website:  https://openfoam.org
    \\  /    A nd           | Version:  8
     \\/     M anipulation  |
\*---------------------------------------------------------------------------*/
FoamFile
{
    version     2.0;
    format      ascii;
    class       surfaceScalarField;
    location    "15";
    object      phi;
}
// * * * * * * * * * * * * * * * * * * * * * * * * * * * * * * * * * * * * * //

dimensions      [0 3 -1 0 0 0 0];

internalField   nonuniform List<scalar> 
189008
(
1.812e-07
-1.811e-07
3.816e-08
-3.809e-08
-4.488e-08
4.468e-08
-5.608e-08
5.608e-08
-1.375e-05
1.375e-05
-5.699e-08
5.683e-08
7.346e-05
-7.346e-05
-2.471e-05
2.471e-05
-1.466e-05
1.466e-05
-3.182e-05
3.182e-05
0.0001037
-0.0001037
-3.293e-05
3.293e-05
-2.474e-07
2.473e-07
6.542e-08
-6.556e-08
-0.0004574
0.0004118
4.563e-05
1.661e-05
-1.917e-05
2.562e-06
1.506e-07
-1.508e-07
0.03921
-0.01642
-0.0228
0.008002
-0.005041
-0.00296
-9.142e-06
1.174e-05
-2.594e-06
-0.003892
0.003382
0.0005102
-6.232e-06
3.328e-06
2.905e-06
-0.003292
0.009169
-0.005877
2.429e-05
0.0007325
-0.0007568
-4.016e-06
-2.217e-06
-0.0007755
0.000389
0.0003865
0.0003385
-0.0003801
4.159e-05
0.0003738
-3.529e-05
0.0002997
-0.0002174
-8.233e-05
0.02168
-0.03887
0.01719
-6.329e-05
-0.000334
0.0003973
-0.0002549
-0.0005206
0.0002265
-0.0001659
-6.059e-05
0.0004161
-0.0002367
-0.0001795
0.007726
0.01126
-0.01899
6.042e-05
0.0001661
4.065e-07
-0.0001129
0.0001125
-0.005975
0.007144
-0.001169
-5.633e-05
0.0007576
-0.0007013
-0.0001055
0.0001246
-1.907e-05
0.004702
0.0033
0.002783
-0.0055
0.002717
0.0007823
-0.006581
0.005799
7.154e-07
-7.155e-07
0.001376
0.03784
0.0002358
0.0001803
0.0001775
0.0001222
0.0008597
-0.0007963
-6.332e-05
-0.0009693
0.001182
-0.0002126
-3.451e-05
0.0006288
-0.0005942
5.665e-06
1.095e-05
-0.01604
-0.02698
0.04302
0.0009954
0.0004314
-0.001427
-0.01577
0.01241
0.003355
1.081
-0.1293
-0.9521
0.001305
-0.001011
-0.0002948
-0.1448
1.226
0.01057
-0.00665
-0.003922
-0.3148
0.02058
0.2942
-0.008361
-0.007406
-0.002738
0.001649
0.001088
0.002997
-0.004837
0.00184
-0.0001838
0.001696
-0.001513
-0.8103
0.9555
-0.1452
0.0004332
-0.001007
0.000574
-0.0005366
-0.002313
0.00285
-0.03342
0.02528
0.008135
0.00214
-0.00176
-0.0003797
0.0005916
0.001548
-1.289
0.4838
0.8049
-9.675e-05
-0.0004861
0.0005828
-0.0001384
-0.0002417
0.0007882
0.004058
-0.004846
-0.1179
-0.1969
-0.275
0.5179
-0.2429
0.0001489
0.0002249
-0.05237
0.09466
-0.04229
0.0008409
-0.000799
-4.194e-05
0.0006328
0.0006726
0.1607
-0.6345
0.4739
-0.00031
0.0002201
8.992e-05
-1.09e-06
-8.054e-06
-0.0002979
-0.000382
0.0006799
2.166e-05
9.507e-05
-0.0001167
-0.0004545
0.0006812
-0.0002267
0.0004973
-0.00076
0.0002627
-0.0007584
0.001477
-0.0007189
-0.000406
0.0001322
0.0002738
-0.002612
0.002075
-0.0007538
0.001271
-0.0005171
0.179
-0.01797
-0.1611
-0.009128
-0.003234
0.01236
-0.0005485
0.001591
-0.001042
-0.002145
-0.001748
-0.00189
0.00195
-6.037e-05
0.0213
0.01805
-0.03934
0.004897
-0.002114
0.0004993
-0.0005041
4.82e-06
0.001246
0.0002934
-0.00154
-0.02283
-0.01059
0.6867
-0.5261
-2.002e-05
-0.0009493
-0.000166
-0.0005283
0.0006942
0.003796
-0.004627
0.0008313
-0.0001555
0.0006528
0.001667
-0.0004207
-0.001033
0.001481
-0.0004482
-1.009
-0.2801
-0.0007596
0.0004413
0.0003183
-1.154
0.8753
0.2786
-0.0003261
-0.0001313
-0.0002944
-0.0001116
0.00302
-0.0004888
-0.002531
0.002122
-0.002557
0.0004345
-0.2141
0.09893
0.1151
0.0004778
0.002247
-0.002725
-0.1093
0.06162
0.04769
0.1657
-0.4408
0.02487
-0.07724
-1.569e-06
1.265e-06
3.031e-07
-1.251
0.0975
-0.0001419
-0.0002777
0.0004196
-0.000335
-0.0005262
0.0008612
0.01234
-0.01051
-0.001831
-0.0001877
-0.0001223
0.000677
-0.0006169
-6.017e-05
0.002785
0.001175
-0.00396
0.08764
-0.1049
0.01728
0.002927
-0.001155
-0.001772
-0.0008345
0.0006594
0.0001751
-0.0008582
0.0002595
0.0005987
-0.001354
0.0005434
0.0008109
-0.0003247
-0.0012
0.001525
0.0003509
0.00049
-4.411e-07
3.926e-07
4.901e-08
-0.000916
5.778e-05
-0.006727
0.03616
-0.02943
0.001655
-0.002963
0.001308
-0.000144
0.0001687
-2.472e-05
0.03084
-0.05478
0.02394
0.007464
0.0005379
-0.008002
-0.05195
-0.0396
0.09156
0.002807
-0.003299
0.0004924
0.006156
-0.00334
-0.002816
0.001615
-0.0006198
0.002223
-0.0007702
-0.001453
-0.0002131
-0.0001148
0.0003279
-0.02773
-0.7826
-0.00166
0.0003056
0.000529
-0.0008316
0.0003026
0.002248
-0.003325
0.001078
0.001248
-0.0003349
-0.0009132
0.004569
-0.008131
0.003562
-0.00859
0.001541
0.007049
-0.0002349
0.0002296
5.254e-06
-0.000582
0.0001275
0.006924
0.003648
0.0007475
-0.0005955
-0.000152
0.0002703
0.0005894
0.0002396
-0.0004736
0.000234
-0.0003765
0.000715
-0.0003385
-9.61e-05
9.609e-05
0.1877
-0.008659
-0.001083
0.0003196
0.0007634
0.0002431
-0.000557
0.0003139
-0.0003455
0.0007787
0.0001794
-7.314e-05
-0.0001062
-0.0003677
0.00127
-0.0009022
-0.001528
0.001166
0.0003626
-0.04606
0.03414
0.01192
-2.135e-05
-3.696e-05
5.832e-05
0.003995
0.002161
-0.004002
0.001723
0.002279
-0.002214
0.0007397
0.001474
1.039
-1.216
0.1764
0.0001373
-9.601e-05
-4.129e-05
-0.001245
0.0006286
0.0006165
0.001628
0.001299
-0.0005576
0.001119
-0.000561
0.1225
-0.1485
0.02596
-0.001472
-0.0007416
-0.1152
-0.006278
0.1214
5.943e-05
-9.25e-05
3.305e-05
8.714e-05
5.017e-05
-0.0003287
-0.0005058
-0.001353
0.00435
0.001145
-0.009562
0.008417
0.0002697
0.001853
0.0007011
-0.0006768
-0.00673
0.08708
-0.08035
0.0001355
-0.00114
0.001005
0.0009782
0.0001749
-0.001153
-0.04386
0.03713
0.0017
-0.001947
0.0002477
-2.907e-07
-0.0008036
-0.0034
0.004203
-1.474
1.202
0.2717
-1.457
1.188
0.2693
2.501e-06
-4.818e-07
-2.019e-06
-0.1674
0.1346
0.03285
0.2065
-0.03828
-0.1682
-0.06065
0.04704
0.01362
0.02611
-0.06998
0.04387
-0.0001204
0.0001208
1.794e-07
-1.796e-07
0.0003602
-0.001179
0.0008188
0.02302
-0.006412
-0.0166
0.002423
-0.0005425
-0.001881
0.05406
-0.03238
-0.2087
-0.005426
-0.0009809
-0.01873
0.01972
0.0004256
-0.0002376
-0.0001879
-0.05763
0.1991
-0.1414
-0.0006653
-0.0008629
-1.371e-06
0.000356
-0.0003547
3.201e-06
-3.695e-06
4.944e-07
5.031e-05
-4.599e-05
-4.318e-06
0.003064
-0.001857
-0.001207
0.0004501
-0.001436
0.0009855
0.01986
0.003154
-0.001044
0.0003564
0.0006872
-0.4715
0.2206
0.2509
0.001091
0.0001572
-0.001179
0.001659
-0.0004795
0.000228
0.0001418
-0.0003697
8.071e-05
-6.715e-05
-1.356e-05
-0.0003704
0.0006135
-1.519e-05
-0.00596
-6.203e-05
5.391e-05
8.118e-06
-0.002312
0.001973
0.0003389
0.003535
-0.00103
-0.002505
-0.04151
-0.07366
0.004969
-0.00418
9.151e-07
-5.092e-07
-4.058e-07
0.002082
0.001452
-0.02089
0.0166
0.004285
-0.0003451
-0.0007378
1.48e-06
-1.48e-06
0.2283
-0.02175
0.002005
-0.0003628
-0.001642
0.001689
-0.0007109
0.0006797
-0.001435
0.0007554
-0.0002562
0.000145
0.0001112
0.0004029
0.0003446
0.0007988
0.000557
-0.001356
-9.517e-07
-6.181e-07
0.0008999
0.0004397
-0.00134
-0.0003706
0.0003281
4.251e-05
1.376e-05
-1.378e-05
0.1977
-0.9707
0.773
-0.001124
-0.002393
0.003516
-0.0001835
0.0004961
-0.0003126
0.001951
-0.0009049
-0.001046
0.004604
-0.001422
-0.003181
-0.0001873
0.0008719
-0.0006846
0.0004536
-0.0003049
-0.0001487
0.1184
-0.03076
0.0002248
-0.0009514
0.0007266
-0.0002341
0.001221
-0.0009869
-0.009502
-0.003435
0.01294
-0.005583
0.002873
0.00271
-0.05961
0.09167
-0.03206
-0.01586
0.006732
-0.09085
0.0389
-0.001446
-0.001354
0.0028
0.0001145
0.0008798
-0.0009943
-0.0001065
0.0002193
-0.0001128
-0.0001807
0.000226
-4.529e-05
-0.001392
0.0002747
0.001117
0.002075
-0.006339
0.004264
-0.000733
-8.721e-06
0.0007417
0.8735
0.1659
-0.0008811
0.001191
-0.0003097
0.002178
-0.0001734
0.001151
-0.00193
0.0007792
-0.001293
0.001428
0.001583
0.001436
0.001172
-0.001383
0.0002111
-0.3871
-0.45
0.8371
0.0005251
0.001055
-0.00158
-0.5411
-0.3484
0.8895
0.04054
-0.01925
0.003857
-6.117e-05
-0.0933
-0.1629
0.2562
0.04766
0.1204
-0.168
-4.246e-07
1.508e-07
2.717e-07
0.001115
-0.0009044
-0.0002103
-0.07837
-0.101
0.1793
0.001591
-0.001178
-0.0004121
0.1745
-0.05198
-0.001458
0.006027
-0.002294
0.004714
-0.00242
-0.009551
-0.01133
0.0007874
0.001226
-0.002013
-0.2014
0.2326
-0.03118
-0.0004106
0.0005567
-0.0001461
-0.0003161
-0.0002345
0.0005505
3.213e-05
-2.613e-05
-6e-06
-5.839e-05
-0.0001978
0.004609
-0.002534
-0.000299
-0.0005342
0.0008332
-0.003066
0.0006925
0.002373
-0.001282
-0.001043
0.002325
0.003175
-0.002698
-0.0001916
0.0003316
-0.0001401
5.326e-05
0.0001062
-0.0001595
0.00224
0.0001836
-0.1793
0.1217
-0.008751
0.004337
0.004414
-0.002964
0.002993
-2.885e-05
0.00118
0.0001225
-0.001302
2.731e-05
-1.672e-06
-2.564e-05
-0.0009533
0.0006179
0.0003354
-0.8533
0.3122
-0.2556
0.1305
0.1251
0.0005822
0.0001765
-0.0007588
0.004171
-0.005634
0.001463
-0.000254
-0.0004332
0.0006871
0.01874
-0.01125
-0.007481
0.2096
-0.2001
-0.009474
0.007471
-0.01076
-0.0005216
-3.979e-05
0.0005614
0.09704
-0.05219
-0.04484
0.001344
0.0006068
0.0008611
-0.0002788
-0.001463
0.003686
-0.002223
-0.01989
0.03142
-0.01154
2.088e-05
-6.406e-05
4.318e-05
0.0008689
-0.000277
-0.0005919
-0.002773
0.0008914
0.001882
0.004823
-0.00256
-0.002263
0.1967
-0.149
-0.00785
0.01558
-0.502
-0.972
-0.4959
-0.9614
-0.009113
0.0005231
-0.000659
0.0004827
0.0001762
-0.003771
-0.0002308
0.001383
0.00344
0.0001192
0.0007639
-0.0008831
-0.016
0.04684
0.002061
0.001003
-0.001854
0.0006688
0.001185
0.0001517
0.0007142
-0.0008659
0.0007224
-0.001622
0.0008997
0.0004629
0.001128
0.0007266
-0.0002877
-0.0004389
-0.00174
0.002219
-0.0004789
0.000985
-0.0006796
-0.0003054
-0.0004594
0.002411
-0.001951
-0.001257
0.0009815
0.0002755
-0.005262
0.007557
-0.002295
2.464e-05
-0.0001154
9.078e-05
-0.001141
-0.006096
-0.02583
0.03193
0.000877
-0.0007713
-0.0001057
0.003733
0.000871
-0.0006069
-0.00157
0.002177
0.2978
-0.4088
0.1109
0.0008004
6.845e-05
-0.0006689
0.001319
-0.0006503
-0.00186
0.001676
-0.007973
-0.008045
0.01602
0.001132
-0.00118
4.775e-05
-0.0001078
0.0008953
-0.0007875
0.3824
0.1358
-0.5181
-0.1167
-0.05075
-0.192
0.2615
-0.06955
0.0005245
-0.0006255
0.000101
0.4453
-0.8324
-0.001482
0.0002444
0.001237
0.06336
0.03367
0.000387
-0.0005705
9.358e-05
-0.0007296
0.000636
0.1153
-0.1221
0.03084
-0.01119
-0.01965
-0.0002211
0.001074
-0.0008529
5.992e-06
-5.748e-07
-5.418e-06
0.001245
-0.00206
0.0008148
0.9484
-0.7105
-0.2379
0.0007909
0.009362
-0.01015
0.0001332
0.0005438
-0.001257
0.0008914
0.000366
0.005103
-0.004023
-0.00108
-0.09001
-0.0193
3.278e-05
4.273e-06
-3.705e-05
0.02048
-0.02378
0.003305
9.991e-06
-0.0001155
0.003177
-0.004184
0.001007
-0.002117
-0.003808
0.005925
0.2453
-0.2573
0.01193
0.00408
-0.004029
-5.114e-05
-2.805e-05
8.684e-05
-5.879e-05
0.0002249
0.0006338
-0.0008587
-0.0009328
0.001036
-0.0001032
-0.0002073
0.0004398
-0.0002325
0.002185
0.001896
-0.0004424
0.0003791
-0.02582
0.01973
0.01061
-0.07022
0.0001339
-0.0002244
9.056e-05
-0.51
0.03851
0.00415
6.302e-05
-0.004213
0.0001122
-5.273e-05
0.001525
0.01895
-0.004024
0.003177
0.0008474
0.0003403
-0.001059
0.0007185
-0.002172
0.002154
1.78e-05
0.1101
0.4884
-0.5985
0.0005454
-0.001103
-0.0001287
-0.0001487
0.0002773
-0.001113
-2.465e-05
0.001138
0.0006211
0.006843
0.0003531
0.0005278
-0.000881
-0.0008243
0.0004893
-0.0006174
-0.001273
0.002303
-0.001988
-0.0003144
-0.0009057
0.0001727
-0.001581
0.004509
-0.002927
-0.0006275
0.0001287
0.0004988
0.0001492
3.023e-05
-5.609e-05
5.27e-05
3.252e-06
0.0004949
-0.0005212
2.633e-05
-0.6751
0.8728
-0.002982
0.0006701
0.01215
-0.01434
0.002194
-0.00529
0.006072
-0.01075
0.001086
0.009666
0.0009823
-0.0003027
-0.01039
-0.005767
0.01616
-1.277
1.439
-0.1618
-0.0006156
0.0006285
-1.294e-05
7.222e-05
7.631e-05
-0.0001485
0.003133
0.01203
-0.01516
0.004713
-0.005118
0.0004049
0.5738
-0.1915
0.0009106
-0.001868
0.0009574
0.0001881
-0.0007682
0.00058
-0.05834
0.0423
-0.0241
-0.1773
0.6966
-0.6519
-0.04468
0.000846
-0.0008805
0.06422
-0.02806
-0.0002894
-2.027e-05
0.0003097
0.05065
-0.05653
0.005888
6.692e-05
0.0004324
-0.01404
-0.1309
0.145
-7.839e-06
-3.078e-05
3.861e-05
0.05672
-0.2487
0.0001693
0.0002563
-0.002511
0.002601
-9.09e-05
-0.001218
0.0006731
0.0005446
-0.001222
0.002708
-0.001486
0.000325
-0.0006376
0.0003126
-0.01872
0.004493
0.01423
-0.0002034
0.0001093
9.412e-05
0.0006476
0.0002362
-0.0008838
-0.001368
0.0001402
0.001228
-0.000313
4.056e-05
0.0002725
0.001891
0.008535
-0.01043
-0.00244
0.002116
0.0008274
0.001325
-0.002152
0.001773
-0.005819
0.004046
0.004532
-0.003169
-0.001363
-0.001162
0.001989
0.3568
-0.9515
0.5947
0.1228
-0.001794
-0.121
0.004108
-0.001797
-0.002311
-0.000458
0.0004812
-2.326e-05
-1.532
0.1224
1.41
-0.003057
0.001952
0.001105
-0.005702
0.01463
-0.008929
0.004567
0.007772
-0.001205
0.005376
0.02797
-0.01552
-0.01245
1.414
-0.2689
-1.146
-0.000344
0.0004525
-0.0001085
-0.01222
0.006514
1.153e-05
-1.066e-05
-8.665e-07
-0.001874
0.0009113
0.0009631
0.0001866
-0.0001226
-6.403e-05
-8.818e-05
6.729e-05
2.089e-05
0.001093
-0.0001719
-0.0009211
-0.0005193
-0.000434
-0.0003892
-3.241e-06
0.0003924
0.0008939
0.003819
0.002032
-0.0006468
-0.001385
-0.1271
0.2574
-0.1303
-0.0003575
0.0005971
-0.1001
0.08505
0.01504
0.001135
-0.0009619
-0.0001734
0.0006915
-0.00145
-0.001779
0.001602
0.0001768
0.0001945
-0.002167
0.001972
2.295e-08
1.559e-07
0.0008535
-0.0004171
-0.0004364
0.001159
0.0008046
-0.001964
0.02659
-0.01526
-0.01134
0.003073
-0.00385
0.0007779
-0.2849
0.228
0.05691
0.0001233
6.336e-05
0.1189
0.003877
-0.0001657
3.048e-05
0.0001352
-0.00371
0.002906
1.717e-07
-1.725e-07
1.113e-07
-4.001e-07
2.89e-07
3.527e-06
-3.225e-06
-3.026e-07
1.195
-0.8175
-0.3773
0.0004415
0.0004356
-0.0003667
0.001792
-0.001425
-0.1461
-0.1095
0.002585
-0.0003381
-0.002247
-0.0002605
0.0007104
-0.0004498
0.0004147
-0.0004574
4.27e-05
0.00302
-0.0002952
-0.002724
-9.733e-05
-0.002413
-0.001027
-0.0001905
-0.001944
-0.001112
-0.000319
0.0002916
2.744e-05
-0.4358
0.7926
0.0004136
-0.0002122
-0.0002015
-3.712e-06
3.514e-06
1.993e-07
0.0004039
-0.0004734
6.957e-05
0.0007272
-0.0001757
-0.0005514
-7.803e-05
5.667e-05
0.06117
-0.1791
0.002997
-0.0007497
-0.05153
0.07764
0.005912
-0.00414
0.04729
0.2425
-0.2898
-0.0006001
0.0001472
0.0004529
-0.0002794
-0.0004398
0.0007192
-8.497e-05
7.61e-05
8.881e-06
1.517
-0.897
-0.6204
0.00334
0.0007681
0.008293
0.003513
-0.01181
-3.766e-05
4.613e-05
-8.464e-06
-0.0004152
3.051e-05
0.0003847
0.001005
-6.881e-05
-0.0009361
-0.008145
0.001654
0.006491
-0.1093
0.1009
0.008331
-7.582e-07
-9.119e-06
9.882e-06
0.0005566
0.0005627
-0.001119
-0.7996
-0.7326
0.002037
-0.007765
0.001224
0.006541
-0.0006331
0.000317
0.0003835
0.0007488
-1.281e-05
-0.0004451
-0.0002209
4.159e-05
0.0001793
0.00367
-0.0004932
-0.005062
0.005037
2.573e-05
0.0006018
1.877e-05
-0.0006206
-0.000185
0.0004262
-0.0002412
-0.0001544
-0.0004612
0.1119
0.05738
-0.1692
-0.0001528
0.0001152
3.763e-05
-0.0001173
0.0008183
-0.000701
0.0008816
-0.001001
0.0001198
0.0009908
-0.002146
0.001155
-0.0001652
0.000225
-5.972e-05
-0.7902
0.1129
0.6773
-0.7889
0.6291
0.1598
0.004997
-0.0145
0.0006858
4.073e-05
-0.0008095
-0.002145
0.002955
0.1344
-0.2066
0.07225
1.474
-0.6497
-0.8243
-0.001113
0.001694
-0.000581
0.0001948
-0.0003019
0.0001071
0.001159
-0.0004949
-0.0006642
-0.0004284
3.917e-05
3.633e-05
-5.971e-06
-3.043e-05
3.573e-05
-3.236e-05
-3.391e-06
-0.002645
0.00246
0.0001855
-0.1462
0.103
0.04324
1.396
-1.274
-0.1218
3.575e-05
-2.123e-05
-1.452e-05
0.0006704
0.001121
-0.001792
0.0004242
-0.001407
0.0009832
0.3156
0.5201
-0.8357
-0.000111
-0.0002595
0.002267
-0.002654
0.0003872
0.0006604
-0.0006389
-2.145e-05
0.4984
-0.0007895
0.0009398
-0.0001503
-0.03074
0.1651
-0.0004673
0.0008076
0.0001571
-2.76e-05
-0.0001295
0.006596
-0.008297
0.001702
0.9746
0.1612
-1.136
4.439e-05
0.0001585
-0.0002028
-0.0041
-0.001483
-0.0001708
7.471e-05
0.3919
1.023
0.0003836
-0.001416
3.695e-05
1.335e-05
0.3917
0.3049
-0.00154
-0.002484
-0.1674
0.007754
0.1596
-0.000397
-0.0005069
0.0009039
0.002781
-0.0007813
-0.002
-0.2804
0.1871
-0.0005629
0.0005157
4.718e-05
0.0003641
0.0007427
-0.001107
2.491e-05
5.324e-06
-3.023e-05
0.0008885
0.000716
-0.001604
0.004009
-0.00222
-0.001789
-0.0003277
-0.0009293
-0.0003819
-0.0008755
-0.001045
0.0002561
0.0007889
0.0008415
-0.0008979
0.0009867
-0.001535
0.0007144
-0.001095
0.0003806
-0.0001318
0.0001117
2.009e-05
-0.002971
0.002237
0.0007335
0.0006727
-0.0004876
-0.0001851
-0.5986
0.9142
0.001118
-0.0007445
-0.0003739
0.1047
-0.1923
0.0876
-0.000647
0.001369
-0.1281
0.03696
0.09111
-0.0006065
0.003413
-0.3433
-0.9341
-0.1536
0.07522
-0.002103
-0.004494
0.006597
-0.0003113
-0.0003162
0.001595
0.001036
-0.002631
-1.041
0.1289
0.9121
1.104
-0.8981
-0.206
-8.225e-05
2.022e-05
0.0003505
0.000226
-0.0005765
0.0003036
-0.0006014
-0.000933
0.0003636
0.0005695
-0.002668
0.001087
0.001581
0.0001369
-0.0004263
0.00217
-0.003043
0.0008728
-0.0004111
0.0002824
0.001457
-0.000743
0.0001231
-0.0003161
0.000193
0.0004667
0.0001213
-0.0005881
-1.16
0.1192
-0.0003956
-0.001219
0.001614
-0.0001331
0.001269
-0.001136
-0.0001297
-0.004269
0.004399
0.01091
-0.005089
-0.005823
0.1781
-0.2346
0.05658
1.031
0.4434
0.002322
-0.003785
-1.304e-05
-0.0001309
0.0008782
0.001154
-3.178e-05
2.082e-05
1.096e-05
-0.07956
-0.0485
-0.9852
-0.4039
1.389
0.0002758
0.0001516
-0.0004273
0.001598
-2.725e-05
-0.001571
-0.04898
-0.01168
-0.0002796
-0.0003311
0.0006107
0.01247
-0.001732
-0.01074
-0.0283
0.08443
-0.05613
0.0003849
-0.0001448
-0.0002401
0.001874
-0.002357
0.0004826
0.001307
-0.00144
0.00242
-0.00685
0.00443
-1.252e-06
1.251e-06
0.0001033
-2.255e-05
-1.529e-05
-0.0002978
-0.0001556
-4.787e-05
0.0006027
0.000512
-0.001122
-0.0004932
0.001615
-0.0007489
-4.059e-05
0.0006403
-0.00118
0.0005396
0.05098
0.009561
-0.06054
-0.002296
0.0007822
0.001514
-3.868e-05
1.942e-05
1.926e-05
0.001066
0.003084
0.7438
-1.067
0.3228
0.001404
-0.0002315
-0.003381
0.003224
0.0001572
-0.001798
-0.0007529
0.002551
1.07
0.4473
-0.02393
0.7677
-4.365e-06
3.053e-06
1.314e-06
0.02092
0.005674
0.0004828
-0.0008978
0.000415
-0.0009375
0.0009502
-1.265e-05
-0.0001783
0.0002457
-6.736e-05
-0.006606
-0.002145
0.003457
0.005144
-0.008601
0.0004857
-0.0002577
0.0001168
-0.004985
0.004868
0.001027
-0.0008685
-0.0001581
-0.1497
-0.2015
0.3511
1.051
-0.04549
-1.006
-0.00358
-0.0004029
0.003983
0.0004021
0.01174
-0.0001685
0.0006931
-0.003859
0.002061
0.0003901
-0.000442
5.19e-05
-0.003369
0.001147
0.002222
0.000211
0.0001487
-0.0003597
-0.02184
0.02086
0.005976
-0.01395
-1.12
-0.3843
1.504
-0.0001932
0.0003752
-0.000182
0.02011
0.007861
-0.001304
0.0009521
0.0003519
-2.531e-07
-0.002137
0.000599
0.001538
-0.003814
0.002368
-0.0006529
0.001898
1.252
-0.2776
-0.001682
0.001911
-0.0002293
-0.0004302
-0.0007254
0.001156
-4.675e-05
4.965e-05
-2.891e-06
0.00146
0.007204
-0.008664
-0.002835
-0.001529
0.004364
0.0009698
0.0004874
-0.0002519
0.0007809
0.001039
0.001264
2.994e-05
-0.0001954
0.0001655
-0.002848
-0.002104
0.004952
0.0005986
-0.0007859
0.001301
-0.00227
0.0009692
-0.003153
0.0001885
-4.206e-05
0.002827
0.002481
-0.005037
0.002556
-4.163e-07
4.164e-07
-0.0004434
-0.002937
-0.0681
0.02204
0.0001287
-0.001206
0.001077
8.3e-05
0.0002246
-0.0003076
-1.69e-08
0.001222
-0.001222
0.1004
0.3736
-0.474
8.579e-05
-4.568e-05
-4.012e-05
0.001581
-0.006842
0.0009602
0.0001989
-1.511
0.5254
-7.402e-06
-2.438e-05
0.0006018
-0.0001069
0.0007816
-0.0009261
0.0001446
-0.3862
-0.6345
1.021
-8.245e-05
0.0007228
-0.0001102
0.0001043
5.906e-06
-0.0003221
0.001036
-0.0007141
-0.0003727
0.001573
-0.001201
-1.193
0.8065
0.001489
-0.0009128
-0.0005764
-5.054e-05
1.437e-05
3.617e-05
-0.0003122
0.0004913
-0.0001791
0.003932
-0.003711
-0.0002215
-0.1592
0.06601
0.09318
-0.001496
-0.0003577
0.0008452
-0.0006513
-0.0001939
-0.1643
0.1696
-0.0053
0.002354
0.0004848
-0.002839
-0.003312
0.003165
0.0001463
-0.001378
0.0002562
0.0005585
0.000295
-0.002363
0.003056
-0.002442
0.0003043
-4.087e-05
-0.0006381
0.0006789
9.437e-05
-0.0002009
0.2804
0.5838
-0.8643
0.001136
0.0003532
0.002759
-0.003941
0.001182
0.0002321
-0.0002358
3.692e-06
-0.0002112
-0.0009021
-0.01654
0.01255
0.003982
0.002856
-0.0002706
-5.236e-05
-0.0001686
1.022
-0.742
-6.764e-05
0.0004823
0.0001581
0.0002267
-0.0009827
-0.0004183
0.001401
1.759e-06
-8.436e-07
0.0005251
-0.001508
-4.069e-05
-4.428e-05
-0.002216
-0.0005148
0.00273
-0.0002179
9.662e-05
0.0001213
-0.0038
0.001031
0.002768
0.1726
1.022
-3.225e-07
3.222e-07
-0.0003033
-0.0004366
0.0007399
-0.000749
0.001637
1.009e-05
-1.027e-05
1.717e-07
0.000252
-0.000379
0.000127
1.585e-05
-5.627e-06
-1.024e-05
0.0003603
-5.627e-05
-0.000304
-0.0007174
0.0006206
0.5569
0.839
-0.001558
-0.004536
0.006094
-0.003871
0.001108
0.002763
-1.497
0.377
0.0002368
-0.0003735
0.0001367
0.0002083
0.0009271
0.0019
-0.0007205
0.0006889
0.000194
-0.0008829
0.1376
-1.02
0.8822
-0.0004096
0.00258
-0.0001481
4.051e-05
0.0001076
-0.2767
-0.7163
0.854
0.00656
0.004353
0.004972
-0.005729
0.000757
-0.001081
-0.001587
4.151e-08
-2.467e-06
2.441e-06
0.001185
-0.0009925
-0.0001927
1.319e-05
-1.41e-06
-1.178e-05
-0.003581
0.0009045
0.002676
-0.00342
0.003529
-0.0001088
-0.7989
-0.2677
0.001114
-0.0003227
-0.000791
0.0001515
-6.018e-05
-9.136e-05
0.0006016
-0.0004901
-0.0001115
0.0001939
-0.0003854
0.0009145
-0.001282
1.085
0.08504
-1.17
0.2748
-0.2136
0.07138
-0.1313
0.05989
0.0003155
-7.368e-05
-0.0002419
0.044
-0.8429
0.0308
-0.01946
-0.01134
-5.614e-05
0.0001127
-5.652e-05
-0.000801
-0.0009702
0.001771
0.0003633
0.0001987
-0.000562
-0.2174
0.8461
-0.6287
0.0002043
-0.000133
-7.126e-05
-0.000367
0.002079
-0.001712
-0.2413
-0.01489
0.2562
0.0004714
0.0005136
0.6885
0.472
-1.16
-0.0001704
-0.0001578
0.0003282
0.0002208
9.312e-05
-0.0003139
-0.001517
0.0007321
0.0007852
-0.0006924
-0.002536
0.003229
5.013e-05
3.062e-05
-8.075e-05
0.1806
-0.04975
-0.1309
-0.0002803
-0.0002384
0.0005188
-0.007537
0.006649
0.0008876
-0.0004785
-0.0001216
3.296e-05
-3.55e-05
2.538e-06
-0.000465
-0.000528
0.000993
0.0006827
0.0002461
-0.0009288
-0.01039
-0.006145
0.004524
-0.005099
0.0005749
0.001359
-0.0004191
-0.0009397
0.0003837
-0.0003836
-0.3423
0.1965
0.1458
-0.006284
0.00928
-0.002996
0.0008601
-0.0005306
-0.0003294
-0.0009713
0.001793
-0.0008212
-2.522e-05
-1.346e-05
0.0005901
-0.0005292
-6.09e-05
-0.117
1.202
0.04364
-0.02629
-0.01735
2.334e-05
1.242e-05
-0.0005113
2.596e-05
0.0004853
0.0001736
-0.0002242
5.069e-05
-0.001402
0.003149
-0.001747
-7.626e-05
7.627e-05
-0.001587
0.001668
-8.043e-05
-0.0001212
0.0001212
0.001847
-0.0006294
-0.001217
7.879e-06
1.261e-05
-2.048e-05
-0.005603
0.004045
0.0001182
-8.249e-05
-3.571e-05
0.1014
-0.0746
-0.02676
0.001769
-0.001336
-0.0004336
1.093
-1.518
0.4245
1.312
-1.734
0.4211
0.0005902
0.003075
-0.003665
-0.04686
0.0971
-0.05024
-0.001377
1.517e-05
0.001362
0.01463
-0.003209
-0.01143
-0.002247
-0.0003096
-0.006738
0.00758
-0.0008423
0.04423
-0.1001
0.05586
-0.001141
0.000106
0.001035
0.0005846
0.0008407
-0.001425
0.2535
-0.008156
-0.01194
0.01098
0.0009601
-0.0002417
0.0003763
-0.0001347
0.09255
-0.04833
-0.0006405
0.000327
0.0003135
7.16e-05
-7.161e-05
0.0002063
-0.0001287
-7.767e-05
0.0007944
-0.002459
0.001664
-0.0004694
6.713e-06
0.0004627
0.003824
-0.004765
0.0009411
-2.523e-05
2.482e-05
4.197e-07
-0.3338
0.12
0.2138
-0.002245
0.0004654
-0.0006036
-0.0007005
-0.05259
0.3504
-0.000564
0.0004221
-0.001199
8.942e-05
0.00111
-0.002262
0.005146
-0.002884
-0.4749
-0.547
1.022
0.2446
-0.003164
-0.2414
0.0123
-0.007332
-0.00497
3.912e-06
1.167e-06
-5.079e-06
-1.967e-05
-0.001546
0.001565
-7.1e-05
7.102e-05
-0.003357
0.001625
0.001733
0.0004744
-0.0001582
-0.0003163
-0.001678
0.001554
0.0001236
-1.979e-05
-1.17e-05
3.149e-05
-0.001457
-0.0004369
0.001894
-0.4101
1.367
-0.9566
-0.0001075
0.0001537
-4.622e-05
0.008114
-0.001365
-0.00675
-0.3006
1.334
-1.034
-0.0005004
-0.0004691
0.0009695
-8.867e-06
4.796e-06
4.072e-06
0.001614
0.006777
-0.008391
-0.001769
0.0006782
0.00109
0.005611
-0.003313
-0.002298
0.00103
0.002753
-0.003783
5.812e-06
1.384e-05
-1.965e-05
8.695e-05
-8.695e-05
0.0007885
0.0003797
-0.001168
-0.09006
-0.05614
-0.4594
0.2211
0.2384
0.002458
-0.0009159
-0.001542
-0.0008319
0.0005612
0.0002708
0.0001151
0.000149
-0.0002642
-0.0008398
0.0004701
0.0003697
-0.000925
-0.0006314
0.001556
0.0004116
-0.0001764
-0.0002353
-0.00273
0.00252
0.0002108
-0.01388
0.0212
-0.00732
0.000181
0.0002307
-0.03445
-0.01131
0.04576
-0.0005488
-3.98e-05
0.0005886
0.1359
-0.5768
0.4409
0.0006079
0.000407
-0.001015
-3.433e-05
4.67e-05
-1.238e-05
-0.003447
0.00466
-0.001213
0.0008266
-0.0006749
-0.0001517
-0.002284
0.001031
0.001252
-0.3821
0.09955
0.2825
-0.1851
0.05169
0.1334
1.131e-05
-2.782e-05
1.652e-05
0.006739
-0.007228
0.0004884
3.176e-05
-5.227e-05
2.051e-05
0.0005929
-0.001042
0.0004494
2.102e-05
-2.744e-05
6.419e-06
0.001075
-0.001082
6.661e-06
0.001761
-0.0002813
-0.00148
-0.002704
0.002121
0.0005835
0.0002073
-0.001361
0.001154
0.0004598
-0.0004598
-9.198e-05
0.001453
-0.001361
-5.646e-05
0.0004419
-0.0003855
0.0004106
-0.0003327
-7.787e-05
-0.002453
0.003672
-0.001219
0.00131
-0.002286
0.0009753
0.0003489
0.001351
-1.046e-05
4.836e-05
-3.792e-05
2.417e-05
-3.075e-05
6.579e-06
-9.981e-06
5.455e-06
4.53e-06
-0.00267
0.001173
0.001497
-0.3214
0.4218
0.5924
0.2148
-0.8072
-0.00131
0.001867
-0.0005564
8.287e-05
0.0001633
-0.0002462
0.004215
-0.0008416
-0.003373
-0.1892
1.183
-0.994
9.483e-05
0.0003879
-0.0004827
-0.00272
-0.0003235
-0.002309
-0.004824
0.007132
-2.214e-05
1.312e-06
2.082e-05
0.004344
-0.003839
-0.0005048
-5.087e-05
0.0002245
-0.0001736
0.004285
-0.005085
0.0007999
0.7865
-0.6764
-0.007178
0.002266
0.004912
0.01068
9.51e-05
-0.01077
0.0002736
-3.056e-05
-0.0002431
9.938e-05
0.0001679
-0.0002673
-0.0001445
8.483e-05
5.967e-05
-0.003156
0.001724
0.001432
0.003604
-0.008766
0.005161
0.0003292
-0.0008213
0.0004921
-0.0008599
0.001328
-0.0004681
-0.001919
-0.001341
0.00326
0.004876
-0.001906
-0.00297
-0.0004229
-5.719e-05
0.0004801
0.001933
-0.001595
-0.000338
0.0001553
-9.83e-05
-5.699e-05
0.0003273
-0.0002449
-8.232e-05
0.258
-0.3217
0.06376
-2.279e-06
-9.999e-06
1.229e-05
-3.938e-06
-2.626e-05
3.021e-05
0.003431
-0.0006717
-7.18e-05
0.002075
-0.002003
0.0004546
-4.282e-05
0.02002
-0.1189
0.09891
-0.0001803
0.0001803
-0.0004294
0.0004294
-0.1656
-1.044
1.209
1.256
0.2304
-1.486
-0.002244
0.001227
0.001017
0.0007238
-0.003627
0.002903
-4.879e-06
5.779e-06
-9.015e-07
-1.411e-05
3.286e-05
-1.875e-05
-0.0001955
0.001965
-0.0003979
0.0005212
-0.0001234
0.0002136
3.424e-05
-0.0002478
-0.00111
-0.00348
0.00459
0.003103
0.004581
-0.007684
-0.1838
0.05768
0.1261
0.0002143
-0.0001482
-6.605e-05
-0.0006292
-0.0007041
0.001333
-0.0001622
0.0003142
-0.000152
-0.003955
0.0009185
0.003037
-2.387e-05
3.603e-05
-1.216e-05
0.0004276
-0.0005219
9.426e-05
0.8148
-1.144
0.3292
-0.0005439
0.000544
0.0001219
-9.595e-05
-2.59e-05
0.1659
0.5611
-0.727
0.001182
-8.851e-05
-1.282
1.116
0.2402
-0.4218
0.1816
-0.002769
0.001908
0.0008608
-0.01
-0.001493
0.01149
0.0002446
-0.0001305
-0.000114
0.7766
-0.9419
0.1653
0.001069
-0.0005282
-0.000541
0.4787
-0.1377
-0.341
0.0007182
-0.001486
0.0007681
-0.01475
0.005169
0.009582
0.01295
-0.01174
-0.001204
0.005413
-0.002846
-0.002567
-0.000218
-0.0008118
0.00103
-0.0008265
-0.0003759
0.001202
0.0001908
6.178e-05
-0.0002525
0.001641
0.0003385
-0.00198
0.1532
0.6468
-0.8
0.004506
0.0631
-0.06761
-0.00498
0.002474
0.002506
-0.0001666
-0.0008719
0.001039
-1.216e-05
3.117e-06
9.04e-06
0.0002178
-0.0001189
-9.891e-05
0.0001216
-7.142e-05
-5.02e-05
-0.0001318
-2.888e-05
0.0001607
-4.6e-05
4.61e-05
-0.0009884
0.001704
0.001185
-0.0008455
-0.0003399
-0.00065
0.001738
-0.001088
-0.001147
0.0007156
0.0004312
0.0003319
0.0001928
-0.0005247
0.008949
-0.008824
-0.0001246
0.01281
-0.005441
-0.007374
0.4938
-0.3674
-0.1264
-0.001056
0.001157
-0.0001013
-3.927e-05
8.413e-05
-4.485e-05
-0.0007065
3.833e-07
0.0007061
0.4958
-1.095
0.5988
-4.389e-05
4.168e-05
2.208e-06
0.004683
-0.002373
-0.00231
-0.002264
0.0005926
0.001671
0.001244
-0.0005711
-0.0006734
-0.0003274
0.001568
-0.001241
0.001287
0.005888
-0.007175
0.0005948
-0.0006886
9.388e-05
-0.001507
-0.002889
0.004396
-0.001109
-0.001155
-5.728e-05
-6.1e-05
0.0001183
-0.0006468
-0.0001058
0.0007526
2.872e-05
4.241e-06
-1.177
0.5404
0.6365
0.002041
-0.003945
0.001904
-0.0009851
0.000361
0.000624
0.1272
0.05426
-0.1815
-0.001098
0.0002928
0.0008048
0.0007694
0.0001986
-0.000968
-1.243
1.243
0.001348
0.001892
-0.003241
-7.074e-05
0.0001155
-4.477e-05
0.06204
-0.04888
-0.01315
0.009018
-6.92e-05
-0.005453
0.005437
1.618e-05
0.000109
-2.308e-05
-8.59e-05
0.01062
-0.008334
-0.002286
-1.273
0.5254
0.7479
0.0007232
-0.001122
0.000399
-0.0001743
0.0004401
-0.0002658
0.4049
-0.2584
-0.1465
-0.0114
0.009005
0.002392
-4.031e-05
-0.03353
0.03357
-0.002112
-0.0009938
0.003106
-0.0004836
-0.0001875
0.0006711
-0.001351
-0.0006324
0.001984
-0.05211
-0.05604
0.1082
-1.189e-05
-3.706e-05
4.895e-05
-1.81e-07
-1.054e-05
1.072e-05
0.0002532
0.0008653
0.0004058
-0.001494
0.001088
-0.002353
0.003908
-0.001555
8.043e-05
3.777e-05
-0.3932
1.245
-0.852
0.0002887
-0.001335
0.001046
0.3529
-0.008376
-0.3446
0.0007593
-0.001035
0.0002757
-0.0005545
0.0004456
0.0001089
0.0007519
0.0009801
-0.001732
0.0003626
0.0008819
-3.458e-05
2.258e-05
1.2e-05
0.0003104
-0.0003422
3.179e-05
-0.5591
0.2205
0.3386
5.043e-06
-5.041e-06
-0.0001832
0.0001344
4.876e-05
7.403e-05
-0.0003021
0.0002281
-0.001616
-0.0002052
0.001822
-0.0006122
0.000837
-0.002449
-0.002441
0.00489
0.01275
-0.01166
-0.001087
-0.0004519
0.0003702
8.167e-05
0.001891
-0.001312
-0.0005797
-0.004419
0.0232
-0.01878
1.615e-05
-1.615e-05
-0.000143
0.0001571
-1.409e-05
-0.001009
0.0004389
0.0005699
0.0005375
0.000221
-0.0007584
0.001532
-0.001268
-0.0002644
-2.066e-05
0.0001194
-9.874e-05
6.836e-06
-7.592e-05
6.908e-05
-4.851e-05
-3.91e-05
8.762e-05
0.002026
-0.001478
-0.0005477
0.0004831
-0.0001359
-0.0003471
0.001112
-0.003876
0.002765
-0.0004422
-0.0005528
0.000995
-0.001337
0.0007052
0.0006321
-0.008415
-0.0001916
0.008606
-1.542e-05
1.67e-05
-0.01945
0.005993
0.01346
0.0008538
0.0003463
-0.0012
-0.005597
0.01389
0.0008456
-0.001161
0.0003156
-1.264
0.512
0.7525
0.55
-0.7849
0.2349
0.003713
-0.006089
0.002376
6.901e-05