/*--------------------------------*- C++ -*----------------------------------*\
  =========                 |
  \\      /  F ield         | OpenFOAM: The Open Source CFD Toolbox
   \\    /   O peration     | Website:  https://openfoam.org
    \\  /    A nd           | Version:  8
     \\/     M anipulation  |
\*---------------------------------------------------------------------------*/
FoamFile
{
    version     2.0;
    format      ascii;
    class       volVectorField;
    location    "15";
    object      U;
}
// * * * * * * * * * * * * * * * * * * * * * * * * * * * * * * * * * * * * * //

dimensions      [0 1 -1 0 0 0 0];

internalField   nonuniform List<vector> 
127143
(
(0.004913 -0.0002216 0)
(-0.000219 -0.001028 1.623e-23)
(0.0002715 0.001339 -3.055e-23)
(0.0002997 0.001362 4.68e-27)
(0.1099 0.02127 -8.852e-21)
(0.0002492 0.001398 -1.652e-26)
(0.325 0.1931 0)
(0.1672 0.07632 -8.413e-21)
(0.1233 0.05778 3.983e-20)
(0.09614 0.002053 0)
(0.4275 0.6054 1.378e-20)
(0.2264 0.1465 2.739e-20)
(0.008299 -0.003162 6.844e-24)
(0.0003892 0.001593 0)
(-0.3417 0.6054 3.713e-21)
(0.1143 -0.009337 0)
(0.0004341 0.00357 5.03e-23)
(0.9637 -0.1085 -3.814e-21)
(0.9635 -0.2252 0)
(0.1112 -0.004139 0)
(1.267 -0.2842 1.233e-20)
(0.03887 -0.0151 0)
(0.8589 -0.09394 0)
(0.8896 -0.08523 0)
(0.03893 -0.01562 4.021e-22)
(0.6829 -0.1108 0)
(0.5696 -0.01353 2.392e-20)
(0.5606 0.007072 -3.794e-22)
(0.3696 -0.1656 0)
(0.9722 -0.08473 5.459e-21)
(0.773 -0.05318 0)
(0.6606 -0.1061 2.18e-21)
(0.526 0.1318 9.874e-21)
(0.327 -0.07974 -1.117e-20)
(0.7844 0.04378 4.682e-20)
(0.464 0.1213 -4.234e-23)
(0.09655 -0.02241 2.934e-21)
(1.357 -0.2025 -9.455e-21)
(0.9295 -0.0877 4.773e-22)
(0.4654 -0.02875 1.166e-24)
(0.9616 -0.2236 0)
(1.608 0.6647 -2.747e-20)
(1.563 0.6579 2.199e-20)
(0.01729 -0.005773 0)
(0.9637 -0.1062 3.5e-21)
(0.3336 -0.08051 3.651e-21)
(0.3812 -0.1738 0)
(0.3992 -0.08202 -7.869e-22)
(0.8854 -0.1513 -7.971e-22)
(0.9117 -0.0767 2.525e-22)
(0.1331 -0.009306 2.011e-22)
(0.9203 0.003324 1.318e-19)
(1.528 -0.1664 0)
(1.405 -0.03954 -1.876e-20)
(0.9987 -0.002434 5.905e-20)
(0.7806 -0.1967 1.338e-21)
(0.9987 -0.002426 -5.307e-20)
(0.9616 -0.08192 0)
(1.014 -0.01757 -2.738e-20)
(1.407 -0.03504 -3.712e-20)
(0.3181 0.2878 -7.595e-20)
(1.046 -0.2537 -1.264e-21)
(0.9747 -0.07632 -1.167e-21)
(1.001 0.0006327 1.826e-19)
(1.04 -0.09237 0)
(0.6931 -0.1378 -2.554e-20)
(1.265 0.102 8.585e-20)
(0.9734 -0.07835 0)
(0.9738 -0.07824 -3.102e-22)
(0.9994 0.0001589 0)
(0.8519 -0.07031 0)
(0.5991 0.001663 -1.133e-20)
(0.7429 -0.1607 3.828e-21)
(1.014 -0.01741 -1.484e-20)
(1.007 0.0038 -7.518e-23)
(0.5982 0.01235 1.198e-20)
(1.046 0.04815 -1.126e-19)
(0.3627 -0.1255 0)
(0.7892 -0.1997 -2.63e-21)
(1.001 0.001366 0)
(0.3962 -0.174 -4.157e-24)
(0.1304 -0.007715 -6.399e-23)
(0.4669 -0.1073 4.329e-21)
(0.5485 -0.03934 0)
(0.2863 -0.08146 -1.37e-21)
(0.3861 -0.1227 0)
(0.9482 -0.09558 1.109e-21)
(0.6322 0.03996 6.875e-21)
(0.6933 -0.1347 0)
(2.042 1.146 0)
(0.9756 -0.02047 0)
(1.202 -0.1943 0)
(1.995 1.122 0)
(1.27 -0.2839 -1.238e-20)
(1.178 -0.2262 0)
(0.9792 -0.06945 -1.536e-20)
(1.604 0.6488 5.955e-20)
(0.7087 -0.05595 0)
(0.7869 -0.2154 2.569e-21)
(1.264 0.1087 0)
(1.001 0.00132 0)
(0.8869 -0.1517 0)
(1.866 1.699 -4.517e-21)
(0.9447 -0.104 0)
(0.4045 -0.1275 -8.102e-22)
(0.7589 -0.2099 3.551e-21)
(0.9016 -0.136 4.339e-21)
(0.999 0.0001774 0)
(0.4603 -0.09414 0)
(1.001 -0.001827 8.445e-20)
(-0.3359 0.5907 -1.247e-21)
(0.6557 0.0449 1.378e-20)
(1.266 -0.2654 -9.286e-21)
(0.2822 1.325 0)
(1 0.0227 2.412e-22)
(0.8974 -0.1331 1.154e-21)
(1.021 0.0729 1.77e-20)
(1.007 0.004033 -1.04e-19)
(1.045 0.04669 8.987e-20)
(0.005051 0.01713 0)
(1.001 -0.001945 -1.182e-19)
(0.4263 -0.1098 -1.326e-21)
(0.5966 -0.1921 0)
(0.9501 -0.08403 -1.005e-20)
(0.3968 -0.1757 1.416e-21)
(0.5899 -0.08209 3.636e-21)
(1.091 -0.2774 0)
(1.052 -0.01121 1.668e-19)
(1.63 -0.1262 -2.483e-21)
(0.7315 -0.2074 -2.507e-21)
(0.4831 -0.1384 0)
(0.9517 -0.2098 -4.598e-21)
(0.9633 -0.08775 3.832e-21)
(0.3673 -0.1267 0)
(0.0004541 0.007166 2.656e-22)
(0.4993 -0.1417 -1.568e-21)
(1.053 -0.08164 0)
(1.291 -0.2771 4.367e-21)
(0.2339 -0.1244 -1.821e-20)
(1.103 -0.07848 9.913e-21)
(0.8175 -0.1091 4.71e-20)
(1.005 0.05915 -2.064e-20)
(1.458 -0.1986 8.109e-22)
(1.333 -0.2469 -1.006e-20)
(1.526 -0.166 -3.788e-21)
(1.939 0.5744 1.467e-20)
(-0.3147 1.551 -2.648e-21)
(1.001 0.0005521 -1.657e-19)
(0.9307 -0.2032 3.7e-21)
(2.016 1.673 -1.971e-21)
(0.9504 -0.09892 2.203e-21)
(0.8652 -0.1649 0)
(1.364 -0.191 3.149e-20)
(0.7063 -0.006352 0)
(-0.07226 0.209 0)
(0.3012 -0.08569 0)
(0.9619 -0.08155 2.449e-21)
(0.6327 -0.2165 0)
(0.4073 -0.08615 -1.582e-21)
(0.6913 -0.0603 -3.331e-22)
(0.8442 -0.06071 0)
(0.1862 -0.09084 3.122e-20)
(0.9763 -0.02117 2.504e-21)
(0.4846 -0.1344 -3.634e-21)
(0.69 -0.1803 0)
(1.118 -0.1036 8.381e-21)
(0.1048 0.007896 -1.46e-21)
(0.458 -0.03459 4.47e-20)
(2.125 0.4792 -5.606e-21)
(0.967 0.1293 -2.764e-21)
(0.2121 -0.08267 0)
(1.331 -0.2476 4.956e-21)
(0.8861 -0.1406 3.655e-21)
(0.7295 -0.1889 -1.061e-20)
(0.9962 -0.002877 1.499e-20)
(0.1461 -0.01372 -5.961e-23)
(1.922 0.715 -2.974e-21)
(1.628 -0.1272 -2.483e-21)
(0.9181 -0.09325 0)
(1.009 -0.03032 1.154e-20)
(0.7283 -0.189 -3.575e-21)
(0.9737 -0.04154 0)
(0.1177 0.01893 -3.074e-22)
(0.1451 -0.00883 6.058e-23)
(0.7314 -0.2088 5.054e-21)
(1.047 -0.2524 2.765e-21)
(1.349 0.4167 -3.172e-20)
(0.314 1.343 4.289e-21)
(0.899 -0.08699 9.834e-22)
(1.026 -0.04127 5.067e-20)
(1.526 -0.1863 2.535e-21)
(1.535 -0.1815 -9.998e-21)
(1.054 -0.08094 5.359e-20)
(0.6864 1.855 6.86e-21)
(-0.0002273 0.00693 -4.472e-22)
(1.165 -0.2836 0)
(1.006 6.828e-06 0)
(0.9946 4.996e-06 1.053e-21)
(0.03253 4.962e-06 0)
(0.9967 0.03445 1.404e-21)
(1.022 0.006675 7.679e-20)
(0.9147 0.08628 1.199e-19)
(0.992 -0.05181 -3.812e-21)
(0.1109 -0.02648 -1.484e-21)
(0.0005681 0.003577 -6.584e-24)
(0.9651 -0.07043 -1.101e-21)
(0.9014 -0.06522 1.916e-20)
(0.8859 -0.1452 -1.161e-21)
(0.9752 -0.08501 -2.805e-21)
(1 0.02213 8.702e-23)
(1.09 -0.1569 1.323e-20)
(0.1759 -0.04531 -8.405e-22)
(0.9776 -0.000371 3.418e-20)
(2.145 0.4893 -5.658e-21)
(0.39 -0.1121 -2.195e-23)
(0.06653 -0.003446 0)
(0.1479 -0.05257 5.373e-22)
(0.8653 -0.1555 5.751e-21)
(0.9941 -0.2357 -7.057e-21)
(0.9032 -0.06501 4.651e-21)
(1.904 0.7103 -6.857e-21)
(1.004 0.009345 6.161e-20)
(0.866 -0.1651 -9.161e-22)
(1.525 -0.1579 3.754e-21)
(0.6546 -0.05654 0)
(0.2075 -0.07459 0)
(0.7316 -0.1907 -2.967e-21)
(1.357 -0.2003 1.127e-20)
(0.1024 -0.05158 -1.818e-23)
(0.9627 -0.2525 4.949e-21)
(1.273 -0.282 7.073e-21)
(0.9724 -0.04107 3.887e-20)
(0.7863 -0.1693 -7.682e-21)
(0.01175 0.003866 0)
(1.275 -0.2828 0)
(0.9423 -0.07514 -1.306e-20)
(0.4852 -0.134 1.796e-21)
(0.01363 -0.002182 -2.651e-22)
(1.022 0.006345 -7.042e-20)
(1.505 -0.1917 1.141e-20)
(1.545 -0.1819 7.314e-21)
(1.369 -0.08655 -1.05e-20)
(0.1234 -0.07329 2.496e-24)
(0.6367 -0.2168 -9.504e-24)
(1.477 -0.1514 0)
(0.004838 0.01802 -4e-26)
(0.8525 -0.164 5.28e-21)
(0.5588 -0.0026 0)
(-0.03457 0.0148 1.312e-21)
(1.003 -0.000233 -2.349e-21)
(1.788 0.4146 -5.026e-20)
(0.6526 -0.07214 -1.76e-21)
(0.8149 -0.1747 0)
(1.328 -0.2641 0)
(0.8098 -0.1921 3.697e-21)
(0.4827 -0.1087 0)
(1.05 -0.01162 -1.311e-19)
(2.198 0.6457 0)
(0.7816 -0.1749 0)
(1.022 0.4423 -1.048e-20)
(1.197 -0.2832 -6.563e-21)
(0.9571 -0.03257 -3.569e-20)
(1.203 -0.1911 7.083e-22)
(1.003 0.05851 1.245e-20)
(1.549 -0.1219 0)
(1.267 -0.09105 -3.561e-21)
(0.1652 -0.04884 3.254e-21)
(-0.1158 0.2243 0)
(0.3186 0.0992 8.679e-20)
(1.497 -0.09293 -1.5e-20)
(0.7622 -0.1422 0)
(0.9948 -0.002958 -1.786e-20)
(0.4758 -0.1242 -1.366e-21)
(1.505 -0.1925 -1.053e-20)
(0.9723 -0.07383 -2.098e-21)
(1.524 -0.1854 -1.028e-20)
(1.273 -0.2671 0)
(0.9046 -0.1397 -4.737e-21)
(0.9895 -0.006304 -7.279e-22)
(0.7093 -0.1784 1.051e-20)
(0.9982 -0.001163 3.353e-21)
(0.978 -0.06884 -2.017e-22)
(0.9451 -0.1036 7.793e-24)
(0.991 0.01246 0)
(1.011 0.01728 3.737e-20)
(0.001223 0.005107 6.45e-23)
(0.6319 -0.1711 0)
(1.001 0.02407 -2.333e-21)
(0.9186 -0.1264 -2.549e-21)
(1.008 -0.03043 1.747e-20)
(1.361 -0.1909 -4.792e-20)
(0.8358 -0.1269 0)
(0.9413 -0.07519 1.326e-20)
(0.8644 -0.1505 0)
(0.9761 -0.01018 -3.153e-20)
(0.434 -0.1055 -1.553e-21)
(0.8063 -0.06768 -6.81e-22)
(0.06729 -0.02383 1.846e-22)
(0.1234 -0.07331 1.105e-23)
(1.495 -0.09142 1.011e-20)
(0.7745 -0.08972 5.909e-22)
(0.7583 -0.142 -4.693e-21)
(0.5975 -0.08561 -2.981e-20)
(0.897 -0.1327 -1.124e-20)
(0.6227 -0.04604 0)
(0.1619 -0.001108 1.38e-23)
(0.8864 -0.1449 -3.846e-22)
(0.9769 -0.0001401 0)
(1.115 -0.2508 3.16e-23)
(0.9514 -0.09822 2.412e-21)
(0.9061 -0.1339 4.709e-21)
(0.1157 -0.07003 9.567e-23)
(0.7987 -0.1914 0)
(0.9981 -0.001188 2.338e-21)
(0.9867 0.017 -3.28e-20)
(2.046 0.7561 2.89e-21)
(1.376 -0.2041 4.754e-21)
(0.7587 -0.08365 -1.22e-21)
(1.23 -0.1548 3.508e-20)
(0.9917 -0.02488 2.216e-21)
(0.8584 -0.09234 0)
(0.8138 -0.06093 9.588e-22)
(1.086 -0.02373 3.458e-20)
(0.8156 -0.1746 2.911e-21)
(2.049 0.7547 0)
(1.437 -0.1821 -1.117e-20)
(0.8534 0.05269 8.238e-20)
(0.07187 -0.01576 2.477e-24)
(0.8009 -0.0535 -3.999e-22)
(1.883 0.8454 2.203e-20)
(0.9706 -0.2478 0)
(1.012 0.01694 -3.253e-20)
(0.7902 0.03823 -1.704e-19)
(1.006 1.82e-05 0)
(0.9943 1.418e-05 0)
(0.7089 -0.001767 0)
(0.4753 -0.1022 -1.003e-20)
(0.8854 -0.1405 3.708e-21)
(0.9671 -0.2456 -1.01e-21)
(0.6362 -0.1623 -1.481e-20)
(1.1 -0.07691 -4.377e-20)
(0.8658 -0.1554 0)
(1.51 -0.1677 3.229e-21)
(1.523 -0.1839 2.886e-21)
(-0.03414 0.735 -7.413e-22)
(0.918 -0.1255 1.698e-21)
(0.5948 -0.1344 -3.708e-21)
(1.326 -0.2492 3.673e-21)
(0.8091 -0.09799 1.045e-21)
(1.678 -0.09824 0)
(0.8186 -0.09418 -7.863e-22)
(1.021 -0.2279 4.167e-21)
(0.1401 -0.06628 4.91e-22)
(1.524 -0.1845 9.274e-21)
(0.9438 0.1513 0)
(0.5985 -0.1394 -8.58e-21)
(1.327 -0.2648 -5.615e-21)
(1.914 0.5065 -1.254e-20)
(1.003 -0.01323 1.377e-20)
(0.7883 -0.05331 0)
(0.5839 -0.1721 -2.664e-21)
(0.9741 -0.07623 -3.572e-22)
(1.002 -0.1684 -1.014e-20)
(0.9087 -0.06973 0)
(0.9164 -0.0802 7.47e-22)
(1.004 0.0039 9.508e-22)
(0.9967 0.03362 -4.862e-21)
(0.9726 -0.01466 0)
(0.6397 -0.1172 3.17e-21)
(0.9905 -0.006225 0)
(0.148 0.3815 7.677e-20)
(1.085 -0.0261 -6.99e-20)
(0.7077 -0.07999 1.532e-21)
(0.9017 -0.07043 -8.506e-22)
(1.027 -0.04014 0)
(1.205 -0.1018 -7.026e-22)
(0.8487 -0.08414 -7.276e-22)
(0.1371 -0.08215 1.415e-25)
(0.7801 -0.2102 -6.81e-21)
(0.9909 -0.00728 -8.526e-23)
(1.095 -0.2198 -4.815e-20)
(0.6314 -0.08226 -3.521e-21)
(0.8348 -0.104 0)
(0.755 -0.1434 -1.761e-20)
(1.021 0.07041 0)
(0.2462 -0.0202 0)
(1.093 0.2572 0)
(0.4856 -0.03149 0)
(1.169 -0.285 -1.872e-21)
(1.231 -0.2362 -4.251e-20)
(1.016 -0.01475 -7.897e-20)
(0.5734 -0.03376 0)
(0.1779 -0.07525 -4.583e-22)
(0.7947 -0.1973 3.97e-21)
(0.8961 -0.0838 -1.416e-21)
(0.7878 -0.05809 -7.041e-22)
(0.5784 -0.03945 -2.393e-20)
(0.7969 -0.05448 0)
(0.9388 0.1498 0)
(0.9568 -0.03142 0)
(0.5547 -0.04415 3.024e-22)
(1.004 0.008903 -2.306e-20)
(1.32 -0.2738 0)
(0.1192 0.01885 0)
(1.103 0.2555 0)
(0.9391 -0.1089 -2.169e-21)
(0.4546 -0.1416 -3.906e-21)
(0.9591 -0.0917 -2.928e-21)
(0.9999 0.001471 -3.124e-20)
(0.9298 -0.09516 0)
(0.4463 -0.1434 0)
(0.8099 -0.1147 2.623e-21)
(0.8195 -0.1084 -5.039e-20)
(0.5096 -0.09467 0)
(0.5957 -0.1891 0)
(1.202 -0.2296 -4.229e-21)
(0.9192 -0.2404 -6.142e-21)
(0.735 -0.1403 0)
(1.428 -0.1581 8.951e-21)
(0.5351 -0.1974 -4.843e-21)
(0.1113 0.004831 0)
(-0.07099 0.02665 -5.37e-21)
(0.3812 -0.1054 0)
(1.004 -0.0001728 8.491e-22)
(0.9457 -0.2465 -5.28e-21)
(1.145 0.46 2.234e-20)
(1.543 0.6408 9.452e-22)
(0.7894 -0.08 -3.085e-20)
(1.427 -0.1055 1.316e-20)
(0.8773 -0.07243 -1.627e-20)
(1.005 -0.0005045 0)
(0.3652 -0.1014 0)
(0.1467 -0.069 0)
(1.073 -0.1738 7.925e-20)
(1.634 -0.0258 1.568e-21)
(1.004 0.003763 -2.863e-20)
(0.9098 -0.1307 -4.803e-21)
(0.713 -0.1575 -7.905e-21)
(0.9224 0.003656 -4.877e-20)
(0.976 -0.009305 0)
(0.9925 0.001183 -9.863e-21)
(0.9227 -0.07823 -3.63e-22)
(1.05 -0.08472 -1.756e-20)
(0.4724 -0.1102 1.977e-20)
(0.9783 0.09196 0)
(0.7261 -0.05679 3.871e-23)
(0.9821 0.01903 8.02e-20)
(0.04498 0.05041 0)
(0.9724 -0.01508 4.471e-22)
(0.1783 -0.04212 -8.649e-22)
(1.146 -0.28 0)
(0.8682 -0.1077 -1.011e-23)
(0.9398 -0.1083 6.286e-21)
(0.6609 -0.1137 1.975e-20)
(0.8953 0.2524 -1.997e-21)
(0.1124 -0.0422 -5.217e-22)
(0.7739 -0.09277 5.664e-22)
(1.594 -0.08305 0)
(0.1737 -0.03848 0)
(1.416 -0.1521 7.592e-21)
(0.9631 -0.08758 -1.214e-21)
(1.584 -0.1249 6.575e-21)
(1.223 -0.2543 0)
(0.358 1.234 1.101e-20)
(1.588 -0.1259 -9.7e-24)
(1.001 -0.00246 0)
(1.026 0.0377 0)
(1.405 -0.241 0)
(0.4449 -0.112 4.018e-21)
(0.9947 -0.0003262 0)
(0.9416 -0.2505 3.058e-21)
(1.239 -0.1808 2.364e-20)
(0.9505 -0.0834 1.502e-20)
(1.374 -0.2031 -1.641e-21)
(0.912 -0.05723 2.5e-20)
(1.005 -0.0002527 0)
(-0.1361 0.3383 -2.534e-20)
(1.239 -0.1783 -2.773e-20)
(-0.01923 0.003532 -6.096e-22)
(1.491 -0.162 7.761e-22)
(0.2525 -0.1327 1.355e-21)
(0.02473 0.07367 -2.003e-20)
(1.186 -0.1674 2.456e-21)
(0.7963 -0.1914 0)
(0.4501 -0.1342 0)
(1.631 -0.02595 -1.682e-21)
(1.474 -0.1632 -6.797e-22)
(1.017 -0.001131 7.683e-20)
(0.7337 -0.06481 5.19e-22)
(0.9681 0.04954 4.467e-20)
(2.014 0.7602 9.354e-22)
(0.9527 -0.09595 -9.901e-22)
(1.543 -0.1626 0)
(1.937 0.5424 6.629e-21)
(0.0008322 0.006071 0)
(0.4085 -0.1176 4.06e-21)
(0.1915 0.9862 -2.609e-22)
(0.9562 -0.06736 2.633e-23)
(1.605 1.164 2.818e-20)
(0.9815 0.003954 -1.609e-19)
(0.258 -0.1361 0)
(1.027 0.03726 1.342e-22)
(0.1086 -0.06828 0)
(1.165 -0.2822 -8.243e-21)
(3.292e-05 0.002226 0)
(-0.002776 -0.01047 -3.51e-22)
(0.05658 -0.01931 1.046e-22)
(0.9991 -0.0002148 -6.771e-20)
(0.6089 -0.1439 0)
(1.769 0.06556 0)
(0.9873 0.01686 6.11e-20)
(0.8008 -0.1947 3.388e-21)
(0.5958 -0.1944 1.806e-20)
(0.3067 -0.1044 2.871e-21)
(0.9195 -0.1234 0)
(1.134 -0.2766 0)
(0.8623 -0.1058 8.808e-22)
(0.9466 -0.254 -3.061e-21)
(0.3381 -0.06209 1.676e-21)
(1.002 -0.002358 0)
(0.1936 -0.004817 7.612e-22)
(0.02703 -0.009651 0)
(0.5211 -0.1976 3.284e-21)
(0.77 -0.07593 -2.604e-22)
(0.2204 -0.0844 -4.185e-22)
(1.015 -0.01668 -2.44e-20)
(0.9506 -0.09872 2.403e-21)
(0.9942 -0.05153 -1.701e-21)
(1.222 -0.2528 1.437e-20)
(0.9952 -0.01536 0)
(0.6899 -0.05498 0)
(2.113 0.9607 0)
(0.1155 -0.05209 1.998e-22)
(0.9931 7.268e-05 0)
(1.405 -0.2416 -4.445e-21)
(0.9297 -0.08401 1.327e-20)
(0.186 -0.07547 -3.062e-25)
(0.4088 -0.1232 8.33e-21)
(1.989 0.5764 1.754e-21)
(1.168 -0.2539 -4.073e-21)
(0.9575 0.04275 3.519e-21)
(-0.01079 0.002403 -8.028e-22)
(0.5648 -0.1705 -1.037e-20)
(0.9946 -0.0003273 8.639e-21)
(0.7568 -0.1436 2.345e-20)
(1.416 -0.1606 -4.333e-20)
(0.8322 -0.07294 5.313e-22)
(0.9146 -0.0693 -4.245e-22)
(0.4181 -0.1046 -4.232e-21)
(0.186 -0.06964 5.039e-22)
(1.168 -0.284 4.205e-21)
(1.555 -0.07035 0)
(0.5535 -0.1982 4.632e-21)
(0.2695 -0.07582 0)
(0.3797 -0.1039 1.007e-22)
(1.026 -0.01168 -1.181e-20)
(0.5214 -0.03293 -1.178e-22)
(0.6794 -0.1838 -3.357e-21)
(0.8046 -0.1204 -2.738e-21)
(0.9494 -0.1006 3.429e-21)
(0.1586 -0.07702 5.816e-22)
(1 0.002859 0)
(1 0.003794 3.529e-21)
(1.026 0.4233 1.743e-20)
(0.5793 -0.1323 -1.842e-21)
(1.588 1.233 0)
(0.9859 0.01985 -4.218e-20)
(1.004 6.994e-05 -7.181e-22)
(0.5812 -0.1633 0)
(0.4655 -0.1913 0)
(0.4212 -0.1141 1.084e-21)
(0.4481 -0.1343 0)
(-0.03287 0.02626 5.416e-21)
(0.03262 -0.008838 0)
(0.8234 -0.1598 -4.079e-21)
(1.039 0.0434 0)
(0.9975 -0.0009454 1.456e-20)
(0.04729 -0.02535 2.936e-22)
(0.936 -0.2455 -3.054e-21)
(0.8147 -0.1769 8.261e-21)
(1.002 -0.002608 2.567e-20)
(0.595 0.003214 5.764e-21)
(0.9549 -0.09486 0)
(0.5734 -0.1529 5.32e-21)
(0.991 -0.006827 3.061e-21)
(0.7058 -0.08966 -1.652e-22)
(0.9853 0.01956 7.856e-20)
(0.4866 -0.1504 -7.836e-22)
(0.1119 -0.007717 0)
(1.198 -0.2427 5.803e-22)
(0.9964 7.009e-05 3.513e-22)
(0.2045 -0.06439 -2.84e-21)
(1.198 -0.2827 -1.677e-21)
(0.2434 -0.1286 -2.165e-20)
(1.005 -0.0002269 -3.354e-21)
(0.9012 -0.1359 -4.529e-21)
(0.1506 -0.05221 -2.645e-22)
(0.9925 0.0009278 0)
(0.939 -0.109 0)
(0.9948 0.02553 -5.474e-22)
(0.9526 -0.07243 -7.074e-22)
(1.458 -0.1758 0)
(0.9909 0.01199 4.113e-20)
(0.4714 -0.1135 1.028e-20)
(0.8841 -0.1184 -1.104e-21)
(0.09439 -0.06643 0)
(1.462 -0.2152 -1.093e-20)
(1.449 -0.1957 -1.317e-21)
(0.8296 -0.09628 2.368e-21)
(0.8408 -0.105 9.204e-22)
(-0.1343 0.5156 -1.245e-20)
(0.9361 -0.08936 4.001e-22)
(1.983 1.117 3.154e-21)
(0.9095 -0.06144 4.551e-22)
(0.1344 -0.07499 2.643e-22)
(1.555 -0.1356 -2.258e-21)
(0.7052 -0.0662 -2.575e-22)
(1.002 -0.002536 0)
(0.8311 -0.1735 -2.31e-21)
(0.9891 0.01462 -1.729e-20)
(-0.01141 0.7517 -6.704e-21)
(1.064 0.00565 7.652e-20)
(1.454 -0.198 1.24e-20)
(1.005 -0.0006008 0)
(1.001 0.02396 -4.037e-22)
(0.9628 -0.08147 -1.074e-20)
(0.5337 -0.1966 2.425e-21)
(1.208 -0.2722 4.595e-21)
(1.003 -0.001289 2.148e-20)
(1 -0.003248 -3.281e-20)
(0.1045 -0.05318 9.83e-24)
(0.9993 0.1238 0)
(0.5269 -0.1195 4.588e-21)
(0.7522 -0.06648 7.021e-22)
(0.6366 -0.2002 0)
(0.4724 -0.1089 -1.58e-20)
(1.136 -0.2777 -7.147e-22)
(0.4456 -0.1447 0)
(1.522 -0.1836 -2.524e-22)
(0.3085 -0.08734 -1.287e-20)
(1.044 -0.07286 0)
(1.003 -0.001363 -3.779e-21)
(1.726 -0.06884 1.012e-20)
(1.511 -0.1871 1.128e-21)
(0.895 -0.1261 3.141e-21)
(1.373 -0.1582 0)
(0.9804 -0.02192 -1.061e-19)
(1.004 6.901e-05 7.569e-23)
(1.435 -0.1809 -1.074e-20)
(0.2382 -0.1247 -5.303e-24)
(1.473 -0.1635 3.399e-21)
(0.06928 -0.02483 -7.428e-22)
(1.064 0.007363 0)
(1.004 0.0001578 5.017e-22)
(0.3298 -0.08591 0)
(1.507 -0.1296 0)
(0.9187 0.08426 -9.578e-20)
(0.9442 -0.1173 -4.738e-21)
(0.8962 -0.102 0)
(0.9908 -0.04574 -4.31e-20)
(0.2198 -0.06445 4.459e-21)
(0.8038 -0.1709 -2.526e-21)
(1.51 -0.1865 6.983e-21)
(0.6863 -0.03441 -9.022e-20)
(0.0171 -0.005599 0)
(0.2127 -0.07679 0)
(0.1813 -0.03951 -5.03e-22)
(0.1103 -0.04282 9.118e-22)
(0.6369 -0.1708 0)
(1.395 -0.201 6.386e-21)
(0.7425 -0.09605 3.777e-22)
(1.076 -0.1625 0)
(0.9232 0.01815 -2.271e-20)
(1.603 -0.1424 1.208e-20)
(0.09614 0.0004908 0)
(1.319 -0.2735 -6.784e-21)
(0.9995 -0.002411 7.575e-20)
(0.9042 -0.1393 3.474e-21)
(0.6733 -0.119 0)
(0.4285 0.3789 -3.647e-20)
(0.993 4.36e-05 -5.937e-23)
(0.9995 -0.002483 -1.01e-19)
(-0.03026 0.0216 0)
(0.9566 -0.06726 4.084e-21)
(0.8597 -0.1575 -3.458e-21)
(1.501 -0.1912 -6.974e-22)
(0.2327 -0.0762 0)
(1.117 -0.2512 1.696e-20)
(1.526 0.01109 0)
(0.6954 -0.05954 -3.071e-22)
(0.5944 0.2656 6.882e-20)
(0.7736 -0.2004 0)
(1.016 -0.001267 -2.76e-20)
(1.003 -0.001461 0)
(1.821 0.4656 0)
(1.159 0.4574 0)
(0.6896 -0.1269 7.201e-22)
(0.4308 0.3536 0)
(0.512 -0.2067 7.374e-21)
(0.748 -0.2272 0)
(0.5123 -0.1976 -8.7e-21)
(1.09 -0.1539 8.583e-20)
(1.005 -0.1674 1.463e-20)
(0.9971 0.000122 7.337e-23)
(0.721 -0.05242 2.168e-22)
(0.9137 -0.05779 3.486e-21)
(0.8293 -0.1877 -2.28e-21)
(-2.763e-05 0.005057 -6.275e-23)
(0.9055 -0.1336 -1.486e-21)
(1.548 -0.1204 -1.426e-20)
(0.8095 -0.2205 7.426e-21)
(0.9965 8.323e-05 -3.276e-22)
(0.9502 -0.1014 -6.02e-23)
(0.9127 -0.08285 8.929e-22)
(-0.09486 0.03199 0)
(0.9701 -0.1847 8.668e-23)
(1.265 -0.2588 1.131e-20)
(1.521 -0.1837 -3.785e-21)
(1.995 1.651 0)
(0.9085 -0.2368 6.12e-21)
(0.2867 -0.1224 1.768e-20)
(1.019 -0.2544 -1.516e-21)
(0.8033 -0.1905 1.024e-21)
(0.9519 -0.1016 -1.615e-21)
(0.9513 -0.09826 -1.152e-21)
(1.094 -0.2771 6.624e-21)
(0.8634 -0.127 1.391e-20)
(0.007174 -0.0004456 0)
(0.6695 -0.1193 0)
(0.9646 0.1243 1.596e-20)
(0.8182 -0.1755 -2.339e-21)
(0.4738 -0.1724 1.432e-20)
(0.9525 -0.09895 3.488e-22)
(1.007 -0.003066 0)
(0.1065 0.01953 2.399e-22)
(1.022 -0.2272 -8.585e-21)
(0.4267 -0.1135 -1.019e-21)
(1.004 0.000156 -3.983e-22)
(0.06921 -0.02759 0)
(0.3953 -0.1105 0)
(0.7123 -0.09064 -2.306e-21)
(0.9974 7.54e-05 2.113e-22)
(1.029 -0.159 6.453e-21)
(0.1071 -0.06556 0)
(0.9353 -0.1716 7.805e-21)
(1.587 -0.1574 -6.143e-21)
(0.9972 6.316e-05 -1.808e-22)
(0.6203 -0.179 -2.391e-21)
(0.1899 -0.07181 0)
(0.3667 -0.1009 7.227e-21)
(1.339 -0.2627 0)
(0.996 0.03726 -1.165e-21)
(1.51 -0.1673 3.232e-21)
(-0.2692 0.8244 0)
(1.029 -0.004833 -2.541e-20)
(0.8759 -0.1508 4.313e-21)
(0.8364 -0.1489 0)
(1.418 -0.1985 -7.382e-21)
(0.4098 -0.1173 0)
(0.7593 -0.1402 -1.422e-20)
(0.9051 -0.1337 0)
(0.6472 -0.08109 -4.182e-22)
(0.1838 -0.05293 0)
(0.9938 3.265e-05 -4.355e-22)
(0.6084 -0.1748 2.294e-21)
(1.022 -0.2231 6.338e-22)
(0.5233 -0.04204 0)
(0.8311 -0.1197 -1.985e-21)
(1.397 -0.05669 0)
(0.816 -0.2005 0)
(0.1899 -0.07028 1.211e-22)
(0.9934 6.237e-05 -1.477e-22)
(0.3185 -0.1086 -2.939e-21)
(0.2206 -0.06226 0)
(1.485 -0.1662 0)
(0.02139 -0.007606 5.946e-23)
(1.485 -0.1656 -3.753e-21)
(0.1159 -0.05308 -3.055e-22)
(1.385 -0.2585 -1.517e-21)
(0.123 -0.07714 0)
(0.8138 -0.164 0)
(0.9992 -0.0002391 3.337e-20)
(0.004932 -0.002072 5.762e-23)
(0.575 -0.1587 6.388e-21)
(1.472 -0.217 9.431e-21)
(-0.02161 0.001709 5.942e-22)
(0.2707 -0.0402 -4.464e-21)
(0.009987 0.01127 2.905e-21)
(0.2484 -0.08107 -1.028e-21)
(0.872 -0.07318 0)
(0.9973 -0.0008749 0)
(0.9962 -0.2184 0)
(0.9394 -0.1087 -1.085e-23)
(0.9973 0.0001092 0)
(0.2517 -0.06397 -4.257e-21)
(2.012 0.7568 0)
(0.9058 -0.1337 -3.269e-21)
(0.6155 -0.1932 -5.661e-21)
(1.006 -0.0001327 -1.387e-20)
(1.151 -0.2817 0)
(0.1514 -0.0328 0)
(1.016 -0.0009409 -8.96e-20)
(1.006 -0.0001486 0)
(1.369 -0.1603 0)
(1.038 -0.2483 3.887e-21)
(0.6385 -0.2013 -1.047e-22)
(-0.005447 0.003992 1.402e-21)
(0.4762 -0.1369 1.662e-21)
(0.1359 -0.007588 -2.664e-23)
(0.9313 -0.115 0)
(0.5157 0.05445 -6.046e-20)
(0.9998 -0.002531 0)
(0.5458 -0.1436 -2.696e-21)
(0.09804 -0.01044 0)
(0.7955 -0.05679 4.264e-22)
(0.6604 -0.0546 0)
(0.4634 -0.03221 -4.43e-20)
(1.003 -0.0007967 0)
(1.015 -0.01613 2.754e-21)
(0.9936 -0.04768 2.176e-20)
(0.6105 0.005886 6.825e-21)
(0.9998 -0.002394 1.327e-20)
(1.076 -0.1444 -3.034e-20)
(0.161 -0.08209 4.396e-21)
(0.9318 -0.1149 -3.949e-21)
(0.6772 -0.09354 2.492e-21)
(0.9989 -0.003008 0)
(0.1366 -0.01194 1.587e-21)
(0.9382 -0.1107 2.081e-21)
(1.005 0.01146 0)
(0.8156 -0.09869 -1.027e-21)
(0.9955 -0.0003999 0)
(0.331 -0.1255 2.225e-20)
(-0.4349 0.7159 -1.088e-21)
(1.338 -0.174 -1.489e-22)
(1.509 -0.1307 0)
(0.4063 -0.02606 -2.137e-22)
(0.9748 -0.01835 5.304e-21)
(0.388 -0.1011 0)
(0.6726 -0.0422 -2.137e-20)
(0.6964 -0.05923 0)
(0.1076 -0.02125 5.141e-22)
(0.7537 -0.09911 -5.984e-22)
(1.511 2.09 -6.832e-21)
(1.401 -0.05177 -1.714e-20)
(0.866 -0.1375 -6.902e-21)
(0.5328 -0.1171 2.91e-23)
(0.3569 -0.0666 0)
(1.004 0.01473 0)
(1.296 -0.2113 2.438e-20)
(0.6786 -0.2133 0)
(2.092 0.3897 5.472e-22)
(0.09789 0.0003646 -1.733e-22)
(0.5688 -0.0932 0)
(1.003 -0.0007551 0)
(1.016 -0.104 1.373e-20)
(0.0467 -0.02483 -1.546e-22)
(0.6033 -0.1389 -7.483e-21)
(0.3811 -0.02036 3.111e-20)
(1.842 0.1586 0)
(-0.1703 0.1981 -2.098e-21)
(1.957 0.2313 -2.005e-21)
(0.1849 0.02975 2.265e-20)
(0.8692 -0.2022 -3.096e-21)
(-0.03117 0.008096 1.388e-21)
(0.9971 -0.2176 3.131e-21)
(0.2967 -0.02273 -6.305e-22)
(1.036 0.05752 -1.479e-20)
(0.9144 -0.1301 0)
(1.004 0.0001294 0)
(0.9963 7.866e-05 0)
(1.454 -0.2102 5.724e-21)
(1.087 0.02528 3.873e-21)
(1.556 -0.184 9.591e-21)
(0.8966 -0.1523 6.295e-21)
(0.2554 1.283 0)
(0.9565 -0.09165 8.485e-21)
(1.038 -0.05628 -2.321e-20)
(2.063 0.8035 8.076e-21)
(0.8122 -0.1778 4.099e-21)
(1.015 -0.01451 5.537e-20)
(1.025 -0.2085 -1.858e-22)
(0.218 -0.053 -4.869e-22)
(1.038 -0.0542 3.378e-20)
(0.5048 -0.1156 -1.125e-20)
(-0.07873 0.0269 -2.283e-21)
(0.08939 -0.02366 0)
(0.8508 -0.1614 0)
(-0.3301 0.5545 -4.189e-21)
(1.303 -0.2445 0)
(-0.02901 0.01081 0)
(0.9858 0.005048 5.438e-20)
(1.542 -0.1612 5.647e-21)
(0.829 -0.1884 2.307e-21)
(1.003 -0.01291 0)
(0.476 -0.1173 5.073e-21)
(0.6512 -0.1729 0)
(1.06 -0.2581 -2.766e-21)
(0.9948 -0.0002982 4.372e-21)
(0.9637 -0.02284 2.707e-21)
(1.045 -0.2076 0)
(0.09231 -0.006652 -8.385e-23)
(0.6274 -0.1705 -1.331e-20)
(-0.07808 0.02571 0)
(1.036 -0.2667 3.498e-21)
(0.4552 -0.1548 0)
(0.8244 -0.1737 -8.266e-22)
(0.1141 -0.03977 0)
(1.541 -0.1034 1.988e-21)
(0.996 6.616e-05 1.381e-23)
(0.2134 -0.1166 0)
(1.609 0.3579 -3.18e-20)
(1.005 0.0001153 0)
(0.5102 -0.1336 4.112e-22)
(0.08226 -0.0323 -3.323e-22)
(1.157 -0.2329 -7.484e-21)
(1.913 0.1229 -6.571e-21)
(0.9678 -0.06901 -2.116e-21)
(0.9062 -0.1305 -1.594e-21)
(0.09238 -0.03752 -5.633e-24)
(0.1233 -0.01793 2.119e-22)
(0.8962 -0.09402 0)
(1.038 0.04379 -3.864e-20)
(0.996 0.009966 6.712e-21)
(0.8644 -0.1555 0)
(0.4024 -0.1048 -4.382e-21)
(0.2316 -0.06369 -3.136e-21)
(0.5344 -0.1208 0)
(0.4324 1.607 1.599e-20)
(0.4887 -0.2024 -4.03e-21)
(0.6242 -0.02219 -2.685e-22)
(1.321 0.01208 -4.059e-20)
(0.4938 -0.2026 -3.992e-21)
(1.108 -0.08593 4.962e-20)
(0.7042 -0.04787 0)
(1.008 -0.001733 0)
(0.4178 -0.06884 2.91e-22)
(0.1123 -0.09832 2.889e-23)
(1.375 -0.2439 -1.384e-20)
(0.4701 -0.1289 0)
(0.9133 -0.241 0)
(0.9916 0.008856 -3.169e-20)
(0.9685 0.02188 2.502e-20)
(-0.03647 0.01049 0)
(0.7904 -0.116 3.3e-20)
(0.03956 -0.02367 0)
(0.9097 -0.1175 0)
(-0.0324 0.004796 -1.812e-21)
(0.4435 -0.1486 -1.851e-21)
(1.466 -0.1591 -3.066e-21)
(1.751 0.0113 -1.784e-21)
(1.59 -0.1237 -1.037e-20)
(0.3357 -0.0507 1.362e-21)
(1.507 -0.1787 -8.01e-21)
(0.7563 -0.05663 -3.536e-22)
(0.2504 -0.06993 5.341e-21)
(0.9373 -0.1104 4.907e-21)
(0.6734 -0.1577 5.631e-21)
(0.7123 1.845 -7.857e-21)
(0.04098 0.01816 -8.538e-23)
(0.1387 -0.1197 -1.989e-22)
(0.0574 -0.02144 0)
(0.882 -0.2348 0)
(1.007 -0.002939 0)
(1.005 -0.005357 4.541e-20)
(0.7282 -0.2052 2.08e-21)
(0.1489 -0.06394 0)
(0.894 -0.1291 -2.008e-20)
(1.006 3.344e-05 0)
(0.4007 -0.1294 -1.466e-20)
(1.135 -0.2781 3.556e-21)
(0.9649 -0.07867 7.715e-21)
(-0.02287 0.01451 0)
(1.439 -0.1736 -1.914e-20)
(0.2324 -0.07233 -4.51e-21)
(1.693 0.9068 -3.918e-20)
(0.9999 0.001454 -2.641e-20)
(0.869 -0.1258 0)
(0.9655 -0.06926 4.39e-21)
(0.4695 -0.1832 0)
(0.6215 -0.04722 0)
(0.1284 -0.07533 -9.576e-23)
(0.5211 -0.02306 3.397e-20)
(1.274 -0.2161 4.699e-20)
(0.7052 -0.1263 0)
(0.8891 -0.08314 2.732e-22)
(0.9678 -0.08038 0)
(0.9039 -0.2504 0)
(0.4112 -0.1449 1.61e-20)
(0.9436 -0.1084 -1.55e-21)
(0.09629 0.00182 0)
(0.4584 -0.1976 -5.242e-21)
(1.007 -0.01738 -2.085e-21)
(0.000674 0.001948 0)
(0.1266 -0.05168 0)
(1.028 -0.2256 0)
(1.491 -0.2116 1.29e-20)
(-0.3492 0.6141 -4.719e-21)
(1.012 0.02494 -5.543e-21)
(0.1101 -0.02608 7.334e-21)
(0.3301 -0.06466 0)
(0.997 -0.0003527 0)
(0.997 -0.0001011 -2.943e-20)
(1.552 -0.1631 1.776e-24)
(1.238 -0.2774 1.349e-20)
(0.05095 -0.02036 4.16e-22)
(0.08172 -0.01654 -9.44e-23)
(0.9141 -0.1298 7.362e-22)
(0.5795 -0.207 0)
(0.2055 -0.07616 -2.947e-21)
(0.8785 -0.1251 0)
(0.9262 -0.1096 0)
(0.9726 -0.02365 -5.841e-20)
(0.1642 -0.06159 -4.885e-21)
(0.2847 -0.06785 0)
(0.214 -0.08261 -2.402e-21)
(0.8439 -0.1559 0)
(0.1806 -0.06991 -4.905e-22)
(0.2802 -0.06531 -2.76e-21)
(0.9984 -0.001898 -1.709e-21)
(0.3472 -0.04785 0)
(0.09945 -0.05899 -1.606e-22)
(0.9976 -0.0008623 -1.122e-19)
(1.213 -0.1731 -3.86e-21)
(0.9972 -0.0003823 -1.218e-20)
(0.9859 0.0007991 5.053e-20)
(0.9247 -0.1201 -1.884e-21)
(0.8662 -0.09827 0)
(0.3334 -0.03255 -3.916e-20)
(0.9957 -0.00235 1.138e-20)
(0.8151 -0.09739 1.192e-22)
(1.007 0.006932 0)
(2.024 0.8028 0)
(0.8798 -0.09018 -2.656e-20)
(1.006 -0.2006 1.867e-21)
(0.945 -0.1039 3.006e-21)
(0.8418 -0.163 5.417e-22)
(0.8851 -0.1277 0)
(0.1984 -0.05889 1.058e-20)
(0.9465 -0.1028 -3.726e-21)
(1.001 -0.005925 1.137e-20)
(0.9694 -0.04501 -6.907e-20)
(1.382 -0.2401 7.011e-21)
(0.8724 -0.1591 -1.527e-21)
(-0.002509 0.009151 -3.828e-22)
(0.1637 -0.05797 0)
(0.3841 -0.02825 -4.054e-24)
(0.1436 -0.05172 -1.935e-21)
(0.03241 -0.008211 -4.38e-20)
(1.445 -0.2133 1.187e-20)
(0.7521 -0.2054 0)
(1.772 0.0352 -1.49e-20)
(0.8666 -0.09154 1.825e-22)
(0.6526 -0.07979 0)
(1.094 0.7336 -1.368e-20)
(1.009 -0.2167 0)
(1.001 -0.01354 1.017e-20)
(0.7685 -0.1477 1.384e-20)
(0.1503 -0.02041 -8.679e-22)
(0.7472 -0.1261 0)
(0.9977 0.0001522 2.192e-22)
(0.0682 0.002864 6.178e-20)
(1.174 -0.2884 0)
(0.9627 -0.09299 -1.733e-22)
(0.7458 -0.1954 1.545e-21)
(1.534 -0.1836 -9.475e-22)
(0.9369 -0.1084 4.992e-21)
(0.4869 -0.105 0)
(1.177 -0.2731 7.622e-21)
(0.9625 -0.0931 -5.23e-22)
(0.1409 -0.07228 7.803e-24)
(0.7551 -0.2019 -5.719e-21)
(0.1067 -0.02288 -5.36e-22)
(0.9974 -0.000866 0)
(0.969 -0.07535 1.418e-21)
(0.8158 -0.1518 0)
(0.9737 -0.01519 0)
(0.8877 -0.1796 0)
(1.067 -0.1108 1.623e-21)
(0.9965 -5.455e-06 4.848e-21)
(0.8289 -0.1584 9.844e-21)
(0.207 -0.06729 0)
(0.9511 -0.04435 0)
(1.127 0.7226 5.035e-20)
(1.308 -0.2363 0)
(0.07104 -0.02041 0)
(0.8978 -0.108 2.1e-20)
(1.007 5.47e-05 -3.973e-22)
(0.729 -0.1632 -1.562e-22)
(0.3773 -0.1045 -2.685e-22)
(1.016 -0.007745 4.916e-20)
(1.187 0.6133 -4.191e-20)
(1.136 0.07284 2.035e-20)
(1.115 -0.2774 5.421e-21)
(0.5053 -0.1273 -5.503e-21)
(0.8873 -0.1436 4.477e-21)
(1.041 -0.05217 0)
(0.1993 -0.07768 3.281e-22)
(0.05468 -0.02015 -1.121e-21)
(0.841 -0.1754 -2.691e-22)
(0.9004 -0.1403 2.175e-21)
(1 -0.2604 -2.085e-21)
(0.2896 -0.02576 0)
(0.9968 0.0001054 -1.715e-22)
(0.9449 -0.09791 -1.246e-21)
(1.009 0.008751 1.052e-21)
(0.5955 -0.1649 0)
(0.3269 -0.07642 -1.4e-20)
(1.175 -0.2026 0)
(0.7468 -0.1954 1.387e-20)
(0.1521 -0.07051 2.98e-22)
(0.4058 -0.06722 0)
(0.9993 0.006026 -6.684e-21)
(0.009169 -0.002635 0)
(0.1497 -0.04789 0)
(0.2397 -0.06767 4.035e-21)
(0.968 -0.08614 -1.578e-21)
(2.151 0.6354 0)
(1.154 -0.276 -5.934e-21)
(0.9749 -0.1876 6.463e-22)
(0.6045 -0.04714 0)
(0.9201 -0.1239 0)
(0.8571 0.1304 -9.863e-20)
(0.04884 -0.001134 -8.064e-22)
(0.1104 -0.05233 8.318e-22)
(0.8743 -0.06535 0)
(0.7875 -0.1631 -3.279e-21)
(0.9106 -0.1348 0)
(0.1421 -0.02191 -6.11e-20)
(0.0656 -0.01843 -8.707e-22)
(-0.1285 0.04466 1.926e-22)
(0.8868 -0.1446 9.062e-22)
(0.2703 -0.1006 0)
(1.514 -0.1285 0)
(0.8624 -0.1046 -1.402e-21)
(0.8817 -0.08997 6.265e-22)
(1.151 -0.2353 0)
(0.01918 -0.002879 0)
(0.9501 -0.0733 -6.253e-21)
(0.8319 -0.1701 -4.653e-21)
(0.9299 -0.08323 0)
(0.8359 -0.1416 1.53e-21)
(0.9939 4.946e-05 0)
(1.004 -0.001194 1.604e-19)
(1.407 -0.193 -1.596e-20)
(0.2622 -0.01748 -2.356e-22)
(0.4456 -0.09863 1.963e-21)
(0.9963 -0.02957 8.14e-21)
(0.16 -0.03136 -7.859e-21)
(-0.06593 0.02165 1.48e-21)
(0.9949 0.01178 -2.02e-20)
(1.203 0.1638 0)
(0.9257 -0.1223 4.232e-22)
(1.476 -0.1507 0)
(0.0148 0.04578 0)
(0.7282 -0.1712 -1.17e-20)
(0.06035 -0.02347 5.296e-22)
(0.02106 -0.006827 0)
(1.027 -0.2083 -1.664e-22)
(-0.07739 0.03008 5.182e-21)
(0.967 -0.2628 4.238e-21)
(0.9341 -0.1149 0)
(0.6195 -0.0663 9.837e-21)
(0.897 -0.1282 6.099e-22)