/*--------------------------------*- C++ -*----------------------------------*\
  =========                 |
  \\      /  F ield         | OpenFOAM: The Open Source CFD Toolbox
   \\    /   O peration     | Website:  https://openfoam.org
    \\  /    A nd           | Version:  8
     \\/     M anipulation  |
\*---------------------------------------------------------------------------*/
FoamFile
{
    version     2.0;
    format      ascii;
    class       volScalarField;
    location    "15";
    object      epsilon;
}
// * * * * * * * * * * * * * * * * * * * * * * * * * * * * * * * * * * * * * //

dimensions      [0 2 -3 0 0 0 0];

internalField   nonuniform List<scalar> 
127143
(
38.15
7.649
12.42
8.229
311.5
8.198
209.4
317.9
346.3
40.74
318.2
398.6
31.16
7.341
13.71
10.54
10.01
0.07709
0.11
10.78
0.3769
3.03
0.1317
0.6747
3.087
3.333
10.39
10.35
12.73
0.06256
0.8879
3.446
37.03
2.216
0.06438
35.3
0.279
0.363
0.565
2.101
0.1097
1.16
0.9522
15.42
0.07778
2.155
12.23
0.1919
1.042
0.5882
10.06
0.02158
0.8269
0.2286
0.005275
2.257
0.005087
0.1363
0.01309
0.2269
0.8999
0.1496
0.3358
0.09658
2.629
0.4795
0.06463
0.3601
0.3541
0.0008089
0.7404
10.33
0.1294
0.01311
0.02705
9.618
0.01719
0.2677
2.213
0.1318
10.52
9.599
1.331
1.708
0.1582
0.2457
0.5111
17.18
0.4602
12.21
0.01588
0.1448
9.705
0.3758
0.7442
0.08384
1.084
1.122
0.2482
0.06307
0.1332
0.9988
26.83
0.2353
0.2399
0.2522
0.5827
0.0008156
1.147
0.01752
12.84
17.18
0.5107
5.38
0.02068
0.3069
0.01767
0.02705
0.01713
1.489
0.0167
1.127
1.548
0.119
10.07
3.937
0.1881
0.01658
1.298
2.703
0.3672
0.6429
0.2888
0.2641
3.249
0.3607
0.03616
0.3541
11.29
0.038
0.1948
0.01736
0.6056
0.37
0.8189
3.829
46.08
0.1068
0.6572
30.16
0.2458
1.102
0.3575
0.1493
5.661
0.1564
0.1358
3.527
0.1898
1.331
0.7195
43.28
0.01607
0.3661
3.886
2.408
0.317
0.8292
9.954
0.02245
0.6738
0.3686
0.3516
0.9265
0.003699
0.2695
4.071
1.29
0.6356
0.01842
0.928
0.0295
0.2808
0.2679
2.624
0.1479
0.2139
5.175
0.6283
0.02095
0.8623
1.128
0.03511
11.5
4.014
0.223
0.112
0.112
22.14
0.0184
0.01692
0.02299
0.03648
0.2679
5.072
0.4152
0.06532
0.4605
0.0601
0.02086
0.0762
0.1787
0.01554
9.897
0.4557
17.08
1.032
0.5239
0.4779
0.06448
3.736
0.02938
1.13
0.8168
1.435
0.7196
3.174
0.3597
0.5199
0.2082
0.3981
0.02893
0.1256
3.968
0.3951
0.08771
0.3659
35.71
0.01683
0.7702
1.105
2.467
0.216
3.449
0.6143
1.476
0.926
10.95
5.796
0.001442
1.73
2.107
0.7033
0.398
1.693
1.129
0.01645
10.39
0.6445
0.1107
0.2439
0.02345
0.1421
0.01737
0.8868
2.417
0.5245
6.949
1.13
0.5473
2.486
0.003608
0.1719
0.7744
0.2826
0.8504
0.5053
0.8148
0.006091
0.7788
0.002486
0.08771
0.2306
0.02255
0.02042
3.528
0.4444
0.02031
0.7554
0.01874
0.3492
0.2469
0.08727
0.4161
0.01441
1.421
0.8752
0.8128
0.216
0.5314
1.299
0.3871
0.5045
0.2994
1.543
3.42
0.4531
0.01556
0.1552
0.2835
0.6025
0.9162
2.378
0.002565
0.01981
7.323
0.4121
1.29
0.1273
0.01975
0.1266
0.7995
0.0219
0.7046
7.446
0.532
0.03474
1.636
0.7552
4.184
0.167
0.02042
0.06242
0.1016
0.1016
0.1418
1.119
0.3489
0.1669
0.4834
0.03677
0.5237
0.7605
0.8388
4.107
0.7699
0.9158
0.6444
1.299
1.564
1.184
0.1109
0.2717
0.8473
0.02641
0.8116
0.3989
3.245
0.01074
0.7795
0.1564
0.3198
0.08288
0.5745
0.5825
0.04063
0.01851
0.01299
1.617
0.006196
1.834
0.02199
1.628
0.593
0.02027
0.07599
0.8307
3.939
0.2238
0.006498
0.1227
3.59
1.139
0.4005
0.01758
5.089
0.04654
1.971
0.2292
0.2227
0.01287
0.426
0.5837
1.752
0.6355
0.8974
0.4256
0.8151
0.02635
0.02282
1.918
0.03011
0.4143
0.2736
0.04706
0.2986
0.2302
0.3021
0.1375
0.5973
1.811
1.509
0.1902
0.1835
1.486
0.7322
0.3297
2.71
0.4582
2.64
0.308
2.067
0.5265
0.001485
0.211
0.1382
0.8564
0.1545
2.322
0.08358
0.05465
0.5099
0.2855
0.08544
1.142
0.04023
0.3983
0.9087
0.02114
0.01444
0.02275
0.5518
0.03689
1.196
0.01883
1.071
0.0185
5.866
0.01321
0.1786
0.3212
1.002
0.2854
1.862
0.05025
0.2529
1.533
2.265
0.2392
0.4104
0.2791
1.063
0.234
3.757
1.08
0.00337
0.01719
0.538
0.8523
0.03247
0.2308
0.1592
0.1175
0.4043
0.05327
0.006091
6.054
0.1552
0.5883
0.6871
13.01
5.795
1.304
2.357
1.612
1.117
0.6254
0.01563
1.151
0.0173
6.338
0.4844
0.8929
3.72
2.794
0.3888
3.228
0.08233
3.692
0.01706
13.36
0.01714
0.2413
0.2198
7.31
1.359
6.385
0.07079
0.7981
2.171
0.02002
0.1513
1.681
0.3233
0.3002
0.3264
1.021
0.2305
3.789
0.003357
0.1978
3.788
2.96
1.143
0.6298
0.01302
0.2404
0.03531
0.2304
0.01234
1.234
22.61
0.5979
0.04393
0.5382
0.1019
0.8033
1.872
14.68
0.1876
0.01732
0.4528
1.282
0.03629
0.3977
0.4264
0.8041
0.5592
0.8945
0.7559
0.2259
0.7576
2.332
0.2972
0.4943
0.01426
1.768
0.3885
1.6
0.3441
0.2037
0.08465
0.06712
0.1013
0.938
4.234
0.01928
0.001686
1.088
4.112
0.2289
1.636
0.8542
2.115
0.4659
0.01699
0.03758
0.6312
0.2635
0.821
0.003967
10.74
0.2988
0.5546
0.006301
1.874
0.01917
0.2239
0.2641
0.1988
0.001634
0.5026
0.2443
23.07
0.006371
0.5656
1.024
0.02218
0.2961
0.01967
0.4594
0.5871
0.02269
1.094
0.9841
1.222
0.8756
0.5765
1.145
1.109
5.301
0.534
9.159
0.5525
0.2869
0.9312
1.389
0.003993
1.924
0.02104
3.797
0.01723
0.5955
0.04642
0.02037
0.1408
2.606
0.436
0.003494
0.007785
0.4956
11.63
1.139
1.078
0.1376
1.182
0.3155
1.852
0.8308
0.5784
3.002
0.003492
2.066
0.7874
0.248
0.3143
0.01599
0.001693
0.5244
10.11
0.6237
1.806
0.01716
0.001042
0.3687
1.704
0.02234
2.26
0.1437
0.03957
0.7343
0.5928
0.7785
0.204
20.34
0.6828
0.2361
0.2537
0.4396
1.047
1.679
1.27
0.02015
1.17
0.4383
0.4082
0.01072
0.7785
0.4335
0.5795
0.04474
0.01005
1.796
0.08241
1.402
1.066
3.751
0.1563
0.4676
1.264
0.2253
1.816
0.01567
0.007672
2.046
0.1365
1.488
0.5586
5.48
0.1391
3.19
0.07394
0.08217
0.001032
1.044
0.05369
1.667
3.206
0.451
0.8711
0.2193
0.001491
0.3741
0.5863
1.802
0.09505
0.2827
0.8278
27.54
0.3315
4.313
0.122
1.536
0.4048
0.278
0.1859
0.2382
43.32
0.4428
0.0221
0.9355
2.24
0.492
0.01482
0.334
0.1104
0.2262
0.0009366
1.853
0.5014
1.91
0.0009827
1.321
0.2863
1.065
1.314
0.001079
0.2059
0.605
0.9165
0.4165
0.01813
0.7601
9.165
0.01483
0.4958
0.3717
1.022
0.3849
0.3739
0.4592
2.631
0.4824
0.01875
0.2066
0.1418
2.028
1.427
0.2303
0.1497
0.7259
0.02551
0.3141
0.7214
0.6725
5.275
0.6694
0.5826
0.5582
0.2072
0.5063
0.07265
16.33
0.3933
0.856
0.8055
0.2221
0.4232
0.3906
0.679
0.04009
0.1043
0.2502
0.0009383
0.4454
6.245
0.58
1.47
0.02827
0.3092
0.278
0.01577
0.02036
0.312
0.1494
0.1377
0.4195
0.2211
9.493
0.2881
0.4278
0.01081
0.2727
0.2952
0.8647
1.337
0.7888
0.002226
0.01288
0.04144
11.48
0.01156
0.06749
9.693
0.4297
2.839
0.00434
0.2093
0.4159
0.02653
1.272
0.0685
3.139
25.96
1.251
0.7011
2.661
0.01548
0.9228
0.2372
1.183
0.5236
1.908
35.29
0.2299
0.2988
0.905
7.358
0.02423
0.268
2.662
6.641
0.4417
6.519
0.002217
0.05143
0.6384
4.291
14.11
2.864
73.79
4.722
51.8
0.5892
0.7487
0.1036
4.709
0.01733
0.6006
0.001783
0.001738
0.6068
0.01934
1.024
0.1203
5.141
0.172
0.02593
8.67
1.004
0.01273
0.1031
0.2827
0.02499
1.218
5.851
0.3082
0.5578
12.72
0.3226
0.4948
0.01894
0.8877
1.643
0.01053
0.9594
0.3791
0.1486
0.02612
0.01988
0.105
13.17
0.9504
7.215
0.2439
1.955
0.8648
1.122
2.039
0.002207
12.06
0.661
0.002207
1.172
3.875
0.1589
4.335
0.1996
0.3073
1.411
12.72
0.7312
0.01701
0.02864
0.5128
1.666
0.344
1.148
7.753
7.06
0.8452
0.1043
7.024
0.0412
5.874
0.01692
0.1972
1.655
0.4525
0.5628
0.2612
0.02428
0.01692
0.7001
0.2378
0.3775
0.8471
0.5254
0.1616
0.5911
2.142
1.686
7.427
0.751
0.9959
0.815
0.2947
0.1605
10.98
0.4133
1.731
2.757
0.2637
0.01504
0.01056
0.1955
0.2212
0.2656
0.1799
2.068
0.3172
0.1419
0.489
0.5247
0.5659
2.604
0.1382
0.2338
0.1335
9.761
1.591
0.291
0.5541
0.2428
1.665
0.6557
0.2636
0.1344
2.305
0.551
0.3142
8.066
0.01261
2.709
1.16
0.1404
0.8802
13.92
0.01905
4.894
9.846
0.002476
0.1533
0.9397
0.4164
3.747
0.5231
0.5831
2.925
0.5791
0.2341
0.1923
0.0173
0.6622
0.1809
0.478
0.4431
0.8672
0.2564
0.003406
5.809
0.3297
0.02968
1.27
0.002217
0.01712
0.3655
0.1378
11.81
0.01724
1.264
0.02722
6.957
0.1146
0.09736
0.2479
1.66
1.054
0.7404
0.3458
0.006187
0.03276
0.459
0.9519
0.4297
0.5545
2.912
0.6402
3.782
0.8969
2.009
3.671
0.8286
2.544
0.4164
0.1041
0.01088
1.172
0.3536
2.147
0.0007236
6.76
0.2496
0.3973
1.236
0.8933
0.2084
1.688
0.2094
0.3945
0.3902
2.596
0.534
0.003162
0.245
1.205
0.01501
0.8598
2.235
0.2081
0.4515
0.4141
0.03306
0.4145
0.323
1.267
0.1637
0.1056
0.7361
0.5426
0.01341
0.2874
0.02674
0.3081
0.6957
0.4189
0.02413
0.6449
2.214
1.851
0.9545
0.1978
4.489
0.0008085
0.5391
0.02349
0.3018
2.114
0.947
1.242
0.6874
3.94
0.04514
3.261
0.9665
1.008
0.3269
9.725
0.2005
0.09456
1.676
0.4964
0.03691
9.326
0.2464
0.6529
2.23
0.7819
4.472
0.8424
1.264
0.6615
0.3419
0.7189
1.014
0.756
0.1583
4.692
0.09016
0.9509
0.09927
1.538
0.1056
0.02166
0.4667
4.602
0.2062
0.02174
6.551
0.6792
0.02574
12.31
0.5506
0.6093
1.263
0.6536
0.303
10.9
0.1034
1.832
0.1854
0.4699
4.583
0.9493
1.345
1.569
1.189
0.06596
0.0739
0.5581
0.4318
0.6436
0.3884
0.1429
1.383
0.1781
0.1849
0.1593
1.206
0.4224
0.3954
4.781
0.04509
10.29
1.448
0.3342
0.3016
0.02682
0.1655
0.939
0.4224
1.018
2.466
1.687
0.01803
1.384
0.6619
0.4889
7.093
1.2
0.1217
0.5694
0.01536
0.5894
0.319
16.34
0.8396
0.03824
0.3069
0.01397
24.97
9.82
0.2529
0.2918
0.6614
0.002845
0.04596
0.4629
0.2057
0.1215
0.07467
0.0006758
0.0006794
3.511
0.3435
0.1722
2.407
0.759
5.604
0.4846
1.766
0.3249
0.4754
0.05511
0.8744
0.2026
0.9705
7.229
0.4253
0.1703
0.3558
0.3158
0.519
45.13
0.1165
0.4501
0.1487
0.1838
0.1921
0.9088
28.64
0.1228
0.609
0.00819
0.6825
15.31
0.06451
26.99
0.5241
0.2953
1.316
0.01158
0.5627
12.45
0.01899
0.5635
0.6956
0.3971
20.19
0.3158
0.2186
0.5381
4.071
0.3208
1.068
0.101
1.037
2.421
44.19
2.978
0.3549
0.02193
2.121
0.1216
1.198
9.971
0.1425
0.338
0.009824
0.2771
0.4421
0.0117
0.1387
0.002434
24.33
0.1391
4.506
0.3699
0.7541
6.178
0.4769
0.5113
2.366
67.76
0.4246
0.4426
0.6546
0.4392
0.1705
0.08411
0.2896
0.01719
0.1999
0.05474
0.1513
0.01472
2.814
0.3218
0.1778
0.01533
0.5867
0.1003
0.9936
0.1332
0.1978
1.532
0.3895
0.03415
7.513
1.512
1.319
0.6896
0.3327
0.8316
0.8635
0.3575
0.09156
2.243
0.2097
0.763
1.986
0.8982
0.9408
0.1154
0.01759
58.05
0.4216
6.755
0.02491
6.875
2.343
0.9202
0.3376
0.01958
0.01812
0.06697
0.1211
0.04655
0.1629
0.4416
0.3623
1.195
0.02288
0.2621
4.63
1.648
0.08699
0.3382
0.1905
2.529
0.9239
0.7407
0.9301
0.2103
0.01544
0.3495
0.3637
5.366
0.7505
0.03379
0.9537
0.01436
0.5569
0.2792
3.015
0.07084
0.03718
0.2057
1.333
7.131
18.9
0.2675
0.3944
0.9503
0.07395
0.01022
20.4
0.8414
11.64
0.0798
5.355
0.3086
0.01395
1.799
3.059
0.1979
0.2562
0.3427
0.533
0.4893
1.322
0.3104
7.863
0.05117
5.194
1.159
1.062
0.001158
0.001128
0.8585
1.829
55.73
4.874
1.24
1.252
51.6
0.01309
0.4456
0.0188
0.01723
0.01391
0.1801
0.004438
19.74
0.02292
20.55
0.3103
2.462
1.985
0.9638
0.001034
29.62
0.1265
14.7
0.2616
4.549
0.01274
0.8292
0.6733
0.244
1.111
0.6393
0.2458
18.98
24.69
0.05179
0.01023
1.553
0.0006133
0.1978
0.2785
1.071
0.006607
1.943
0.02967
0.692
0.8287
0.2759
11.92
0.004942
0.2052
1.08
1.104
0.1059
0.3135
0.2565
0.02074
0.09323
0.9037
79.54
0.9257
0.5404
0.01739
4.114
0.2202
0.1285
0.0007493
0.7036
0.4113
0.9212
0.01798
2.67
0.01729
0.88
0.1056
0.8331
2.034
0.2939
4.777
2.416
0.5981
0.007646
0.6895
1.703
0.5288
6.818
1.94
0.1485
0.03281
1.059
58.9
0.7601
6.681
2.929
0.001065
0.1413
0.01517
1.618
1.053
1.159
0.02736
2.837
0.02856
0.1295
0.4098
0.008421
0.1338
0.1256
1.979
0.3145
0.01456
0.7591
0.03857
1.937
10.03
0.3692
0.1127
0.756
0.02294
0.6797
0.2672
11.16
2.3
0.2635
1.282
0.7462
1.452
18.48
0.04467
0.1959
2.142
0.03751
0.7963
0.3131
0.2221
0.4444
0.01903
0.007338
0.8338
0.1046
0.7592
0.3406
8.069
0.2865
4.904
0.2193
0.01853
5.138
0.7921
0.09737
0.8771
0.02512
0.6124
0.1442
0.2122
4.239
0.2568
2.037
0.6848
0.7788
0.03596
0.456
0.6204
1.501
5.928
0.02065
0.4004
2.209
0.01644
0.0205
0.292
0.0008343
0.9766
0.5513
0.4878
2.378
0.23
0.1867
0.003006
0.2434
0.917
0.003274
0.2925
7.464
4.478
0.1727
0.4793
3.378
0.162
3.626
0.1508
0.5198
4.526
0.0007997
0.001333
0.3199
0.01767
2.089
2.238
0.1964
2.308
1
0.02008
1.778
16
231.4
0.4559
0.3319
0.8447
0.1551
0.1764
0.2435
0.2074
1.226
0.4366
0.4421
3.065
3.256
0.2727
0.2162
0.01847
17.98
0.182
0.3248
0.4018
0.04731
0.8906
0.4424
0.1162
0.1661
2.308
1.959
0.4976
1.66
0.2473
8.245
1.325
0.02224
0.8016
1.338
0.4371
0.6156
6.204
0.0173
12.35
13.36
0.604
0.001758
0.2014
0.1574
1.152
1.24
0.1636
1.523
0.00329
1.619
0.8418
0.0661
0.1505
0.01391
0.8923
19.23
0.4735
1.318
50.52
0.2048
5.978
0.001426
19.92
1.089
0.1337
0.03628
0.1012
0.2921
0.184
0.44
0.001409
0.8372
13.69
31.67
0.2874
0.3227
0.4191
0.7131
0.01778
0.02118
1.285
0.2221
0.01378
0.4269
0.4661
0.7316
0.3829
0.5194
1.521
0.4365
24.45
3.335
1.936
0.09615
0.6607
8.649
0.1644
0.8998
0.1031
0.3096
0.3086
19.96
0.2043
0.2455
0.0008541
0.03702
2.528
0.3119
0.01996
0.04583
0.2116
1.912
0.1672
0.7056
5.549
4.057
0.01952
1.295
0.1369
0.3311
2.665
0.16
0.04119
0.8141
0.4821
0.2282
1.028
0.03504
2.755
0.1207
1.628
0.07787
0.8226
2.612
0.4417
1.358
0.4405
1.229
0.4785
0.839
0.1984
0.1658
0.2862
0.2528
1.425
0.3403
28.03
0.6234
0.01458
0.3658
0.1023
1.478
0.6336
0.003547
0.272
0.09607
4.177
0.001015
0.3394
0.2358
0.2783
0.1446
0.4433
0.07869
4.172
0.1478
0.01925
0.801
0.04251
0.182
0.03346
0.2217
0.1975
0.08386
0.1692
0.5564
0.7713
0.02387
0.0166
0.1382
0.272
2.788
0.03178
0.6498
0.2619
2.686
0.8945
0.1206
1.763
0.5039
0.07178
0.4496
5.905
0.1525
18.23
0.7667
0.1716
8.33
0.01992
0.007711
0.7986
0.1618
50.69
0.02609
0.2285
0.7961
86.54
0.6826
1.735
0.007586
0.007571
0.8328
0.8494
0.2668
5.297
0.03658
0.182
0.2158
0.1344
1.344
1.13
0.5405
0.2387
2.268
0.06034
0.6955
0.116
0.2879
1.61
2.018
2.382
0.537
21.33
0.5473
0.9266
0.417
1.194
0.5816
0.08887
2.694
1.444
0.001621
0.001606
0.5603
0.3666
3.237
1.062
4.451
1.139
0.003939
0.02052
1.614
0.0994
0.359
11.23
4.268
0.1414
0.9676
0.05896
16
7.086
0.001192
0.2984
0.3581
0.5423
0.2085
1.811
0.5431
0.8352
0.5927
0.2645
0.2876
0.1756
4.914
0.9132
0.4782
0.363
41.37
0.3302
0.5496
0.6326
3.963
1.113
0.5363
5.719
0.1898
1.439
0.016
0.1685
0.09005
0.5962
0.1344
6.587
0.5509
0.1509
1.463
31.87
1.422
0.5496
0.4603
1.19
8.018
0.003491
0.213
0.2609
16.01
0.4185
0.2828
0.1066
0.2359
0.02109
0.463
39.81
0.3039
0.6957
0.1448
0.08367
5.153
0.1162
0.5356
0.2049
0.1758
6.51
0.1166
0.5044
0.1242
0.04656
2.632
0.3134
7.71
0.7259
0.6162
0.01008
0.2534
0.5527
1.209
8.755
0.2974
0.1246
1.014
0.01851
1.225
4.879
1.457
2.351
0.6934
3.892
1.131
2.828
4.389
0.2376
2.466
1.352
0.1032
0.0712
3.783
0.0007496
0.1487
0.01938
0.0495
3.753
0.01551
0.7332
1.074
0.1936
0.46
1.26
4.44
0.3838
8.947
0.4298
0.1659
4.192
0.3844
0.3869
0.01912
2.163
0.2284
1.907
3.482
0.0008716
1.073
1.069
0.2851
0.259
1.026
10.76
1.007
0.2784
0.401
0.022
0.1073
0.06798
0.3726
0.2484
0.4955
1.079
0.8657
4.645
0.21
0.01345
1.239
0.3387
0.1679
0.3676
0.4511
8.742
1.335
5.11
5.184
0.4808
0.5764
0.579
0.3729
0.4389
0.1432
2.419
1.446
0.4656
1.045
0.01048
2.157
1.191
0.1766
0.2931
5.658
1.697
4.495
0.2749
0.7171
18.06
0.0127
1.851
0.1621
0.03739
0.9916
2.373
0.0148
0.8352
0.2363
0.8188
23.7
0.9699
0.9432
40.18
0.2673
0.615
0.1914
0.1914
0.538
0.5609
0.7539
3.882
0.4216
0.01977
3.911
2.151
0.7059
0.01476
0.01339
0.8559
0.3993
0.5464
132.5
2.147
0.006358
0.9456
5.269
0.1201
1.563
0.6447
0.002188
0.2583
1.054
0.1206
0.236
0.02066
0.01007
0.01434
0.004297
0.06164
0.2203
0.5402
3.859
0.2845
0.4185
0.4287
3.843
0.004307
0.5695
0.2539
0.8423
2.554
0.9269
0.3935
0.4008
0.8361
0.6256
0.4583
0.04192
0.4668
76.71
1.306
2.662
0.81
3.301
0.02058
2.246
0.3955
1.364
0.213
0.03318
24.7
0.02663
0.2793
2.298
0.004795
1.107
0.3261
0.3124
0.3256
2.133
0.04672
0.7423
0.003924
1.343
0.5174
0.4701
0.1802
2.169
0.01204
0.01577
0.1674
0.5317
1.071
0.07796
0.3133
1.391
0.3035
14.8
0.8766
0.1937
0.1379
0.2273
0.3051
0.1212
14.37
0.8099
0.02092
9.394
0.01889
0.01254
0.1408
0.001401
17.04
0.2053
1.392
0.2254
1.154
0.03322
0.07746
0.4507
0.752
0.155
0.002091
0.2402
78.73
5.129
0.09195
9.015
4.918
9.211
0.001157
0.1732
0.3081
0.1013
0.01731
0.1553
4.628
43.08
0.1809
1.16
5.001
0.02129
1.153
3.632
0.405
0.0263
1.368
51.91
7.682
12.33
0.1584
0.6396
6.065
0.03166
0.3416
0.01614
0.2964
4.482
0.1285
0.918
11.55
0.1043
0.3599
2.061
0.1686
0.02193
0.7893
1.567
0.1188
1.134
1.09
0.2161
0.1666
0.6314
0.4475
0.2866
0.02157
0.8507
0.8695
0.7988
0.5885
3.07
0.81
9.674
4.341
15.4
10.53
0.8764
0.05167
4.895
0.02007
1.501
5.466
0.02191
103.9
0.1308
0.4461
6.224
1.634
1.213
7.602
0.556
5.083
0.01586
131
1.2
0.0006608
0.1645
0.3241
50.51
5.206
2.01
0.219
1.579
29.57
0.3481
0.1444
0.461
9.215
0.008263
0.2816
0.4036
0.3732
0.3118
0.2295
0.1149
2.719
0.5942
1.056
8.334
0.01506
2.581
0.1567
0.5062
0.4373
0.01767
0.07903
0.4522
1.646
1.435
3.576
0.0006276
0.0156
0.2327
0.857
7.589
0.2203
0.1251
0.005691
0.02314
1.933
0.005704
0.6133
1.633
0.08805
0.6055
0.2491
6.175
3.583
5.991
0.03822
0.9239
0.3109
1.217
0.1477
0.1693
5.953
0.1691
3.02
0.8384
1.333
0.484
0.4613
18.81
0.2117
0.3466
0.6038
0.0008209
0.4694
0.06694
0.01787
0.4085
13.51
0.3776
2.966
0.3032
6.077
36.59
0.1339
6.076
0.003811
0.1419
0.03316
0.04096
1.146
0.127
4.813
4.073
0.5526
1.877
0.1684
0.522
1.88
0.4776
0.1711
2.049
0.1656
13.2
0.9941
0.001931
0.3366
0.3474
0.0596
0.02478
1.623
0.0307
1.801
0.6703
0.8825
0.4493
2.187
0.00104
0.121
0.04507
1.902
2.013
3.801
0.4835
0.01419
2.709
0.01255
0.1207
0.451
0.2192
6.749
0.5988
1.115
0.1574
14.02
0.4929
0.003483
0.2496
0.5672
0.04475
0.3545
0.03167
1.04
1.468
5.312
0.2975
0.006042
0.9635
0.7175
1.509
1.653
1.656
0.7998
0.01739
0.1914
0.2996
0.4652
1.35
0.2463
0.08248
0.9487
0.1289
3.283
1.569
0.00388
0.1642
0.01572
0.02644
0.4161
0.7713
0.784
0.01822
0.653
1.983
0.5359
0.06912
0.6508
0.09923
1.785
0.002644
104.1
0.6317
1.885
0.0009131
0.07162
3.861
0.02488
0.4656
1.077
1.676
0.5296
0.7987
0.02694
0.6453
0.513
0.9384
0.296
0.8712
0.2288
0.2328
0.7852
8.482
0.01272
0.2992
0.5013
11.18
0.2867
0.07641
2.785
2.367
0.2675
0.3646
0.3093
6.263
0.03484
0.2518
0.4877
0.1403
0.3653
0.4491
0.002051
1.932
8.879
0.4507
0.3551
5.867
0.8802
0.5486
0.01923
0.02417
0.08997
0.001066
37.91
0.5186
0.04471
0.01655
0.3674
17.21
0.04135
0.2046
1.897
0.5146
0.5827
1.274
16.91
0.9875
3.682
1.189
2.946
2.463
0.01775
0.3743
0.5353
0.4782
0.02328
0.1166
0.4231
0.2002
0.4826
27.69
6.809
0.09246
0.8983
2.957
0.1728
4.213
0.2056
0.4726
0.271
2.8
4.777
0.01853
1.968
0.3824
0.0432
3.684
0.2212
1.045
0.07219
0.7573
1.326
0.5233
1.441
0.01402
0.01861
0.09515
0.3574
0.1716
0.3737
0.02005
5.576
0.1253
0.2409
0.7559
1.844
0.1295
0.9832
0.00992
4.143
1.527
24.34
0.8915
0.07066
5.358
0.5858
1.063
9.574
0.1156
4.306
0.1012
0.1028
0.2629
0.067
0.01788
25.62
0.5052
1.976
1.06
0.823
0.377
0.001549
22.69
0.03434
0.8224
0.1632
0.2055
1.541
0.2438
0.4024
0.7447
0.1248
0.6183
0.008202
0.4601
1.012
18.84
5.848
0.09099
0.2385
0.2625
0.1648
0.5632
0.8027
0.05392
0.03348
0.3032
4.923
0.003077
0.01221
0.2664
0.832
0.1404
12.23
0.1397
1.017
0.4515
0.3946
0.07035
0.1016
1.304
1.517
1.056
0.2964
3.927
0.09957
2.237
0.001468
1.605
15.02
0.03491
0.3406
0.1925
1.008
1.77
0.6074
0.08004
0.01034
0.8539
0.1608
0.01681
1.559
3.589
0.1847
0.1567
0.07846
0.06707
0.02267
3.836
0.3104
0.02021
8.902
0.8868
0.6056
0.02216
0.03845
0.01585
0.04053
0.5634
0.1566
1.051
8.205
4.295
0.799
3.298
3.946
0.01781
9.192
0.9617
1.043
0.124
0.159
0.4366
1.09
2.092
4.656
0.5324
0.03374
0.312
2.311
0.3614
0.9152
0.1178
0.3871
0.1567
1.73
0.001196
0.4216
0.5772
0.5439
0.4374
2.282
10.39
4.67
0.01037
54.69
0.4398
0.1716
5.16
0.0291
0.9386
0.6724
0.00667
1.982
3.597
0.2052
0.5164
0.129
3.224
0.01724
0.3078
6.152
0.2077
0.01656
1.859
0.2214
0.02905
0.2884
0.157
0.5238
11.81
1.054
0.9129
0.2211
0.5383
1.05
0.01923
0.03253
2.862
0.4036
0.5565
0.06825
6.009
0.5381
0.2728
0.3563
0.295
1.13
0.03423
0.05723
0.6196
0.5526
0.05179
0.6255
1.604
0.1494
1.156
1.406
0.1537
0.05003
0.132
0.2973
0.7499
0.5078
0.06472
0.9299
0.003101
0.2316
0.4401
0.1692
1.003
0.4194
4.43
0.2694
0.3597
0.01233
0.007272
0.2602
0.273
2.019
4.691
0.3801
1.139
7.331
0.769
0.4461
0.9208
0.8284
4.172
0.8474
0.03869
2.239
0.3671
1.37
0.2434
0.1954
0.2064
0.5753
0.03873
0.3724
0.1014
0.02206
0.08053
2.237
0.01466
8.025
1.501
0.5627
0.0178
0.6971
0.7996
0.001007
0.6008
0.9417
0.7639
0.4729
1.002
0.03388
1.372
0.1178
0.168
1.098
6.809
0.4446
0.8314
5.98
0.00679
0.02525
0.644
1.131
1.891
0.1931
1.566
1.309
0.2533
0.1601
0.01768
6.709
1.645
0.1241
0.2188
0.0165
1.168
0.08085
0.9506
1
0.473
0.0124
10.6
0.849
0.01922
0.6053
1.232
0.07826
0.01101
0.01181
1.134
25.73
0.3549
0.1117
0.3208
0.07312
0.5577
0.4911
0.01343
0.4457
0.4184
6.922
7.253
1.376
0.01214
0.913
0.4124
0.7613
0.7668
6.421
0.7092
0.7596
0.664
0.5067
1.144
2.182
0.09992
0.001092
0.1023
0.03271
14.73
0.01736
0.153
0.9508
0.3788
0.16
7.018
0.6341
19.08
0.1891
15.85
0.4894
0.2
1.829
6.67
0.2092
5.132
14.29
0.02175
5.304
6.928
2.639
2.718
0.8117
0.1668
0.3977
0.3904
0.4638
0.04516
0.3564
0.1876
0.2812
0.2054
0.3067
0.5522
0.1663
0.1104
4.064
0.6642
31.8
0.396
0.9155
0.006036
1.48
0.5294
2.388
0.2263
5.266
1.104
0.6073
0.1041
4.568
0.1025
0.3677
0.3913
0.05468
0.2062
0.263
0.3864
0.3191
0.4309
0.2237
0.6499
0.2273
5.615
0.3966
3.428
0.04771
0.2977
0.3671
0.1658
0.04131
7.669
0.02008
0.01452
0.02115
0.2499
0.4782
0.512
0.06238
0.219
0.2282
0.0548
3.094
2.974
3.999
0.55
0.06463
1.133
22.42
0.06379
0.938
0.03232
0.6191
0.1186
0.539
0.1738
0.01096
0.008771
0.7231
0.1403
0.04624
9.549
0.552
0.05485
0.02653
0.3363
0.03187
1.987
3.183
0.004825
0.6269
0.5651
4.757
2.059
10.86
1.605
0.1066
0.2881
0.6619
0.2305
1.224
0.9766
0.7627
1.341
0.3475
6.535
0.01902
0.9456
1.196
10.81
0.04004
0.2305
0.02235
0.27
0.2474
1.031
0.7883
0.6041
6.291
0.1407
1.357
10.65
0.7553
2.536
1.067
0.2911
0.2654
0.4503
1.203
0.1929
1.591
0.002978
4.462
5.517
1.536
0.2737
0.5141
3.677
0.7887
0.2457
0.04428
56
0.3429
0.0007697
0.00138
0.00304
0.7267
8.563
0.1956
26.79
0.5409
0.001084
0.7864
0.4934
0.3522
0.9161
72.76
2.541
0.2977
7.42
0.2301
0.403
8.106
0.2613
0.3852
0.1592
1.55
0.2149
0.2445
0.2457
0.9419
0.1973
0.7507
1.083
0.1869
3.871
0.5814
0.06156
5.133
0.2538
10.54
0.6366
0.008231
0.1093
1.197
0.02265
0.2382
4.472
2.88
0.157
0.01206
0.1385
0.2482
0.2492
0.04997
0.9045
0.009854
0.8748
0.4023
0.5093
0.4176
0.9654
0.935
1.275
4.994
0.4869
0.3518
0.02788
12.44
0.04194
0.001374
0.419
0.01815
3.053
0.1496
4.873
0.04482
1.308
0.3191
0.7613
0.9045
0.09324
0.3403
0.2107
1.102
1.869
0.4707
0.06877
0.01617
0.4322
1.239
0.08782
0.2598
0.7863
0.7321
1.359
0.007695
0.2384
1.267
5.693
0.5536
0.3373
1.384
0.6559
0.01993
0.2222
26.39
1.318
0.04671
0.1475
0.6209
0.1026
0.4973
1.785
0.6891
0.04695
0.05297
0.1167
0.01387
0.01312
0.02445
0.1314
18.15
1.486
0.1386
0.4737
0.1965
0.07244
0.1591
0.2207
0.7208
0.04672
0.03275
1.329
0.08087
0.0214
0.7914
0.5176
0.1164
3.966
6.172
0.02085
0.295
0.2924
0.7164
0.431
1.008
0.1633
0.818
3.436
0.4809
5.771
0.159
1.994
0.3173
0.6486
0.2936
12.24
0.06313
18.85
0.7068
0.02179
0.02868
0.004151
0.4057
0.2719
3.267
2.8
2.759
0.07816
0.01053
1.153
1.466
0.173
0.01723
1.242
0.171
1.955
0.5152
11.06
2.256
1.518
1.691
0.5423
0.1028
1.545
0.5856
0.285
0.3264
0.05633
0.016
0.2014
0.2346
1.346
6.659
0.3354
0.02985
1.581
0.07039
0.1255
0.01776
3.417
0.4745
1.108
1.042
0.4216
0.2766
0.2635
0.1783
0.1928
0.5769
0.1752
0.133
0.04201
0.2786
12.5
0.1149
0.4577
19.94
0.005872
0.02122
0.2094
0.0244
0.05712
3.782
0.06529
0.06519
0.6944
0.01294
0.2815
1.266
0.7735
0.1617
0.1447
0.03383
0.05188
0.3112
0.5736
1.92
5.971
0.2864
0.004783
0.1329
0.9315
1.977
0.07924
0.04714
0.04141
3.557
0.12
0.07077
0.2756
0.7566
0.06817
0.02627
0.9262
0.01189
0.01858
0.01126
2.915
0.05578
0.6691
0.1383
0.02577
0.05909
0.1557
0.1913
1.454
0.1821
0.3682
0.3417
0.106
7.772
0.2816
1.484
0.03743
0.455
0.4086
0.547
0.5358
0.198
0.4999
0.2999
0.1507
0.7907
0.06592
134.5
0.5908
14.41
0.103
3.593
0.01979
0.04451
0.3605
1.026
0.1537
0.4193
0.1399
0.001439
20.24
0.001425
0.689
27.36
0.1267
0.2671
0.002061
6.173
0.01776
0.1898
0.2189
0.6027
0.6563
0.01649
23.9
0.03002
0.3787
1.257
0.666
0.7663
15.45
0.4845
11.7
0.3896
0.01424
0.2059
1.548
0.02041
0.0835
2.335
0.1614
19.24
2.336
4.557
0.02649
0.3158
0.02555
0.01605
0.02514
2.761
0.1433
0.1894
0.001144
0.2867
0.2241
0.9501
0.5678
11.76
0.01766
0.8762
3.566
0.5339
0.1272
0.1893
0.03331
0.3507
0.005847
0.2856
0.9442
0.01621
0.5701
19.68
0.426
2.023
0.2463
5.94
2.506
0.5103
2.01
5.738
0.7146
2.596
0.6967
0.2421
0.9305
0.3438
0.3949
0.5957
0.8258
0.003764
0.6828
0.002589
1.746
13.61
0.4749
0.7154
12.57
0.1971
0.4378
0.001238
0.677
0.3106
30.06
0.1673
0.01155
0.2217
0.5567
0.5668
0.001196
0.6901
0.5606
0.2721
0.2669
3.395
2.091
14.68
0.463
0.8441
0.5265
0.1783
0.6135
0.02039
2.804
1.362
0.01826
0.279
0.2885
0.5445
1.22
1.771
0.05825
3.838
4.794
0.07869
1.031
3.292
2.274
1.419
0.004777
0.001878
0.8266
0.462
0.394
0.01225
3.588
0.506
2.074
7.848
0.007741
0.5688
2.904
0.2683
18.31
0.5563
0.6667
0.8348
0.2079
0.6538
0.01818
0.3524
14.46
0.4055
0.6343
0.1937
0.2159
0.009637
0.002932
0.5371
0.4398
0.2468
1.088
0.3011
0.01552
1.028
1.08
0.1632
1.609
30.11
1.459
0.001143
0.143
0.02024
0.6121
1.001
1.2
2.754
1.892
2.25
0.02847
0.9436
0.03095
0.132
0.9457
0.3068
3.992
0.6311
27.76
0.04058
0.7753
2.102
0.01755
0.4939
0.3252
4.955
0.1344
0.03783
0.01596
0.003865
0.3214
0.01532
0.261
1.272
0.2312
0.2417
0.5747
0.04734
0.4457
0.1507
0.003614
2.434
1.148
5.372
0.5541
0.01707
1.416
2.081
0.02079
3.188
0.1729
1.607
0.3713
14.7
0.3147
2.965
0.1527
0.1704
0.04183
0.191
0.04363
0.06246
2.954
0.4153
0.5014
0.3906
0.444
0.5765
0.01903
0.06054
0.07057
0.3345
0.2574
0.6933
9.649
0.1122
0.02258
1.696
0.1169
3.088
0.01164
0.7163
1.235
0.1775
0.1533
1.457
0.8528
0.8184
0.3071
0.7555
0.01613
1.444
0.1876
0.4131
0.9479
7.732
1.577
0.0742
0.2917
0.2935
0.1713
44.61
0.01598
1.08
0.4151
0.2102
0.3014
0.3075
25.64
0.3415
6.243
1.048
18.65
0.2976
0.2591
5.564
1.305
0.02312
0.64
0.2052
0.8225
0.7803
0.1706
3.35
0.001286
0.6984
3.226
1.634
0.9428
2.256
2.233
0.02046
0.9608
0.9595
0.6247
0.124
0.05041
0.662
0.3203
0.7806
3.014
0.01015
0.4557
0.1762
0.2355
0.2765
1.385
1.364
0.2613
1.371
1.816
0.006694
0.34
0.262
10.92
1.22
5.653
0.3491
0.3316
0.2308
0.1139
0.5773
0.8843
5.719
2.008
4.94
29.14
0.3778
0.1133
13.52
1.277
1.983
0.001165
3.099
6.976
1.184
0.4185
0.01548
1.741
0.02492
0.2571
1.591
0.399
0.9139
0.1552
1.559
0.2437
4.162
0.2346
0.8404
0.7431
5.853
1.019
0.7998
0.2981
0.1938
9.537
0.1518
7.71
0.3118
0.3657
0.02788
7.773
0.1595
0.05709
0.01872
0.2669
0.5995
0.03003
0.006624
0.01777
0.6102
2.227
27.98
0.08112
0.001947
0.4381
0.006334
0.004797
1.115
0.0007558
0.4156
8.922
0.0499
0.9984
0.5233
0.9978
0.1272
0.5505
0.0639
0.4665
0.204
6.016
0.2904
0.5438
0.9169
1.81
0.08992
0.001949
0.136
1.762
0.0191
0.1176
0.5468
1.586
7.389
0.423
0.4062
1.551
0.01533
0.3816
0.9386
0.6051
0.4384
0.3661
0.0006106
0.3818
0.331
0.9922
0.5319
0.6023
0.001487
1.876
0.4975
0.00127
0.2402
0.0005833
0.9169
0.01824
14.64
10.12
0.02552
0.6232
0.6418
0.1044
6.958
1.277
0.01577
1.65
0.3046
0.5651
2.36
0.04056
0.08282
9.663
0.3441
0.6456
0.1559
0.3246
0.1893
0.2478
0.4935
0.001192
0.2709
1.009
0.3074
0.2656
0.2017
1.325
0.2917
0.3132
1.581
0.3553
0.2129
2.917
0.03123
0.196
3.217
0.1928
0.04386
0.2059
0.4529
1.338
0.478
0.4805
6.706
0.2291
0.7444
0.3541
0.003949
0.2532
2.152
0.2031
1.263
0.03987
1.441
0.1337
0.3552
0.08645
0.1429
2.436
1.131
0.231
0.4975
8.119
0.3991
0.008636
0.01417
0.224
1.892
1.999
0.3538
0.3111
0.1546
0.7214
0.102
0.1576
16.05
0.1577
0.1481
7.068
0.7355
0.2818
0.2194
0.06008
121.6
0.01528
0.3037
0.6985
0.3648
0.4228
0.3869
2.088
0.1801
0.7506
0.09288
80.11
1.043
0.1973
108.3
6.301
1.342
0.9074
0.003015
0.1461
0.08616
3.787
0.04084
1.6
14.62
0.06834
0.8572
0.2711
0.2898
6.655
0.9087
11.62
4.356
0.5329
0.007535
0.007601
0.02473
0.7824
12.74
0.2554
0.0161
0.07622
5.741
0.6578
8.921
0.3384
0.0146
61.87
0.05107
0.1922
0.1689
0.03505
0.3059
0.1762
0.1974
0.06353
2.563
0.2084
0.4809
0.4177
50.23
0.1943
1.468
0.667
0.1423
0.09464
51.22
1.429
5.003
0.358
0.7786
3.298
3.109
0.09833
0.2145
0.7549
0.6119
1.837
0.002189
12.76
0.2615
5.542
0.2132
0.03395
0.05864
0.0149
0.7534
0.3157
0.4173
0.4431
0.2305
3.484
0.7025
0.1916
0.1176
1.725
0.1134
0.9715
1.533
1.283
0.1832
0.06323
0.2774
0.2876
0.5178
0.1296
0.6833
1.476
6.25
0.3207
0.2916
2.064
0.3834
2.688
0.2295
0.7911
0.1071
6.594
2.176
1.426
0.2324
3.484
0.06248
2.753
1.453
0.4524
0.308
0.3142
0.8152
1.012
0.2571
0.4251
0.3294
2.293
27.67
0.003001
0.03236
0.01247
0.4869
0.8498
0.4221
4.811
2.209
4.511
1.724
0.5502
2.293
4.131
0.2221
1.087
1.745
0.6882
6.182
0.01727
10.45
2.391
2.489
0.08593
2.257
0.5025
0.6208
1.416
2.193
0.01554
0.07074
0.6127
2.883
0.005168
0.5779
0.09401
0.4812
316.6
0.001281
0.1985
0.1367
0.7159
0.9083
0.1941
0.5706
1.388
0.8037
2.457
0.9449
0.04418
0.1647
3.239
0.02127
0.01727
7.442
3.749
0.5146
0.5614
0.06521
0.5554
1.242
0.8466
2.134
0.5596
0.0366
0.7499
0.1721
0.1644
0.01122
0.8247
0.006333
62.33
0.7535
1.182
0.1286
13.85
0.01342
1.423
0.005135
0.1048
4.551
0.2396
8.383
0.1532
0.06632
0.5538
0.555
0.2429
0.4751
0.2801
1.074
2.182
0.7531
1.165
2.264
6.654
0.7028
0.4225
0.8485
6.026
0.7438
0.4362
0.1713
0.008549
31.87
0.4673
0.543
11.51
0.01701
2.223
0.1394
0.008261
0.1829
118.7
0.1268
0.935
18.02
0.06423
1.135
0.8363
0.2116
0.1349
0.5058
16.45
2.387
0.02229
7.787
24.41
0.07582
0.01633
0.8328
1.688
0.7294
1.732
0.5922
3.342
0.01739
0.8405
0.1587
3.658
1.542
12.3
0.00829
0.008374
0.1618
1.179
0.03358
0.1774
0.2169
4.034
0.2683
0.293
1.331
0.08344
0.01834
7.575
2.449
4.619
2.007
0.04124
0.5206
0.002811
0.4876
9.524
0.5642
1.311
4.089
1.011
1.118
1.175
0.5626
0.4872
0.02121
0.01717
0.02002
0.1702
0.8728
0.9849
8.005
0.7282
0.01794
0.5584
0.9646
2.155
8.719
0.5966
0.5869
2.064
2.514
0.07981
0.3552
0.2276
1.653
0.07758
2.141
0.217
0.374
0.775
2.196
0.004534
0.01519
3.926
0.2728
0.1432
0.3003
9.975
0.4794
0.004909
0.4011
0.382
0.5573
0.4491
1.72
0.5253
1.14
5.677
0.09009
0.0005934
0.4971
0.05832
0.1126
0.06679
8.871
0.2394
1.662
0.321
0.3353
0.7701
0.02504
1.621
1.496
0.4391
0.2759
1.977
15.79
0.03259
0.01658
1.983
0.348
0.5517
0.2232
0.1249
1.304
0.04827
0.02924
0.6443
2.17
0.01983
1.274
1.004
0.01324
4.491
0.03641
0.2648
0.4461
2.215
0.204
14.92
0.8861
0.4493
0.03642
0.01543
0.2502
0.3208
0.3831
0.1832
0.007328
0.007088
0.02053
0.3599
0.5239
1.725
0.0007055
1.316
0.2552
1.135
0.4797
2.924
0.1398
0.0327
3.161