/*--------------------------------*- C++ -*----------------------------------*\
  =========                 |
  \\      /  F ield         | OpenFOAM: The Open Source CFD Toolbox
   \\    /   O peration     | Website:  https://openfoam.org
    \\  /    A nd           | Version:  8
     \\/     M anipulation  |
\*---------------------------------------------------------------------------*/
FoamFile
{
    version     2.0;
    format      ascii;
    class       surfaceScalarField;
    location    "15";
    object      phi;
}
// * * * * * * * * * * * * * * * * * * * * * * * * * * * * * * * * * * * * * //

dimensions      [0 3 -1 0 0 0 0];

internalField   nonuniform List<scalar> 
189008
(
2.733e-06
-2.733e-06
3.852e-07
-3.852e-07
-2.798e-07
2.798e-07
-4.271e-07
4.271e-07
-7.27e-05
7.27e-05
-4.167e-07
4.167e-07
0.0001243
-0.0001243
-8.885e-05
8.885e-05
-6.502e-05
6.502e-05
-0.0001617
0.0001617
8.176e-05
-8.177e-05
-7.707e-05
7.707e-05
-1.016e-06
1.016e-06
4.411e-07
-4.411e-07
0.0002305
-0.0002511
2.06e-05
9.831e-05
-0.0001174
1.908e-05
-9.714e-07
9.714e-07
0.0305
-0.01245
-0.01805
0.005522
-0.003448
-0.002075
-6.414e-05
8.438e-05
-2.023e-05
-0.002901
0.002496
0.0004046
-4.586e-05
2.168e-05
2.417e-05
-0.003204
0.01074
-0.007538
2.076e-05
0.0009331
-0.0009539
-2.5e-05
-2.086e-05
-0.001248
0.0006024
0.0006452
0.0006903
-0.0007756
8.528e-05
0.000773
-8.274e-05
0.0007407
-0.0005124
-0.0002283
0.01883
-0.03206
0.01323
-8.812e-05
-0.0004801
0.0005682
-0.0004381
-0.0008094
0.0005662
-0.0003254
-0.0002407
0.001128
-0.0006125
-0.0005157
0.01189
0.01101
-0.0229
0.0002385
0.0003276
-8.978e-05
-0.0007536
0.0008434
-0.004677
0.005537
-0.0008596
-7.265e-05
0.0009214
-0.0008488
-0.0002399
0.000282
-4.204e-05
0.003298
0.002225
0.001201
-0.003336
0.002135
-0.0002535
-0.003878
0.004131
3.005e-06
-3.005e-06
0.0004631
0.03004
0.0006871
0.0004411
0.0004244
0.0003162
0.001375
-0.001375
2.285e-07
-0.001251
0.001528
-0.0002762
-4.42e-05
0.0007752
-0.000731
3.097e-05
6.733e-05
-0.01336
-0.02982
0.04318
0.0007308
0.000337
-0.001068
-0.01234
0.009514
0.002831
1.083
-0.1295
-0.953
0.001863
-0.001434
-0.0004293
-0.1444
1.227
0.01223
-0.007755
-0.004475
-0.3112
0.02059
0.2906
-0.006762
-0.005582
-0.002625
-0.0003755
0.003
0.002027
-0.003445
0.001418
-0.0002104
0.00196
-0.001749
-0.8104
0.956
-0.1457
0.0004594
-0.001143
0.0006838
-0.0003453
-0.003749
0.004094
-0.02815
0.02015
0.007994
0.002475
-0.002036
-0.0004397
0.0006853
0.00179
-1.287
0.4826
0.8047
-0.0001252
-0.0006412
0.0007664
-0.0002453
-0.0005303
0.00091
0.003228
-0.004138
-0.1167
-0.1945
-0.2763
0.5186
-0.2423
0.0002588
0.0005142
-0.05165
0.09267
-0.04102
0.00164
-0.001522
-0.0001173
0.000893
0.0009701
0.1608
-0.6346
0.4738
-0.0007331
0.0005048
0.0002283
-1.073e-05
-5.341e-05
-0.000568
-0.0008129
0.001381
3.837e-05
0.0001904
-0.0002287
-0.0008172
0.001309
-0.0004917
0.0008915
-0.001382
0.0004909
-0.0009027
0.001759
-0.0008562
-0.0007851
0.000293
0.0004921
-0.003633
0.003288
-0.0004784
0.0007555
-0.0002771
0.1814
-0.01662
-0.1648
-0.007384
-0.002471
0.009855
-0.0003977
0.0009697
-0.0005719
-0.001619
-0.001282
-0.001636
0.00168
-4.373e-05
0.02421
0.01835
-0.04256
0.00325
-0.002049
0.0007568
-0.0007647
7.84e-06
0.001283
0.0002506
-0.001533
-0.02025
-0.007899
0.6868
-0.526
-2.451e-05
-0.001227
-0.000108
-0.0002511
0.0003591
0.004572
-0.005549
0.0009774
-0.0002613
0.001153
0.001697
-0.0004143
-0.001308
0.00188
-0.0005721
-1.008
-0.2795
-0.00159
0.0007899
0.0008004
-1.158
0.8785
0.279
0.0002525
-2.204e-05
-0.0005036
-0.0002815
0.00232
-0.0003636
-0.001956
6.932e-05
-0.0005448
0.0004755
-0.2131
0.09838
0.1147
0.0006701
0.002764
-0.003434
-0.1073
0.05946
0.04783
0.1646
-0.4409
0.02398
-0.07562
-4.555e-06
3.301e-06
1.255e-06
-1.256
0.09831
-0.0002781
-0.0006201
0.0008982
-0.000537
-0.0009588
0.001496
0.01435
-0.01211
-0.00224
-0.0004214
-0.0003117
0.001149
-0.00105
-9.876e-05
0.001946
0.0009049
-0.002851
0.08619
-0.1027
0.01653
0.002141
-0.0008263
-0.001314
-0.001255
0.0009902
0.0002649
-0.001395
0.0004461
0.0009487
-0.001377
0.0005296
0.0008469
-0.0003812
-0.001409
0.00179
0.0006865
0.0009531
1.917e-06
-1.38e-06
-5.371e-07
-0.001471
7.585e-05
-0.006224
0.03263
-0.0264
0.00119
-0.002183
0.0009935
-0.0005075
0.0006029
-9.536e-05
0.02755
-0.0491
0.02154
0.009972
0.0002676
-0.01024
-0.05007
-0.04018
0.09024
0.002091
-0.002488
0.0003975
0.004662
-0.002562
-0.002101
0.001208
-0.000477
0.001428
-0.0004342
-0.0009938
-1.825e-05
1.596e-07
1.806e-05
-0.02745
-0.7829
-0.001713
0.0003362
0.0002596
-0.0004228
0.0001632
0.002697
-0.00397
0.001273
0.001647
-0.0004417
-0.001205
0.003482
-0.006296
0.002815
-0.009456
9.915e-05
0.009356
0.0003456
-0.0006949
0.0003493
-0.001091
0.0002742
0.007968
0.004261
0.001244
-0.0009894
-0.0002546
0.0003088
0.001066
0.0003636
-0.0007487
0.0003851
-0.0004901
0.0009389
-0.0004488
-0.0003323
0.0003323
0.1917
-0.01028
-0.001769
0.0005556
0.001214
0.0003796
-0.0009062
0.0005266
-0.0003513
0.0008108
0.0008822
-0.0001064
-0.0007758
0.0002481
0.00203
-0.002278
-0.0009734
0.0007159
0.0002575
-0.04241
0.03399
0.008418
-3.656e-05
-8.163e-05
0.0001182
0.002998
0.001664
-0.00507
0.002148
0.002922
-0.00332
0.00108
0.002239
1.035
-1.208
0.1736
0.0004616
-0.0003794
-8.22e-05
-0.0007984
0.0003746
0.0004238
0.001178
0.0009625
-0.0006808
0.001372
-0.0006911
0.1171
-0.1409
0.02383
-0.002176
-0.001144
-0.1206
-0.006859
0.1275
7.566e-06
-0.0003198
0.0003122
0.0002221
0.0002395
-0.0004923
-0.0007627
-0.001121
0.003148
-0.0009008
-0.006056
0.006957
-0.000504
0.0005733
0.0008613
-0.0008406
-0.006938
0.08295
-0.07601
8.762e-05
-0.0008422
0.0007545
0.0007135
0.0001433
-0.0008568
-0.03977
0.03355
0.0004772
-0.000652
0.0001748
9.456e-07
-0.000664
-0.002435
0.003099
-1.467
1.196
0.2706
-1.465
1.195
0.2704
3.229e-05
-5.699e-06
-2.659e-05
-0.1663
0.1333
0.03295
0.2072
-0.03948
-0.1677
-0.05833
0.04839
0.009935
0.02381
-0.06186
0.03805
-0.0007187
0.0006289
9.502e-07
-9.502e-07
0.0004188
-0.001374
0.0009557
0.02635
-0.008064
-0.01829
0.003134
-0.0007188
-0.002415
0.04522
-0.02639
-0.2078
-0.005259
-0.0008916
-0.01545
0.01634
0.001309
-0.0007507
-0.0005584
-0.05968
0.2002
-0.1405
-0.0004281
-0.0005454
-1.654e-05
0.0007457
-0.0007292
2.993e-05
-3.571e-05
5.783e-06
0.0001483
-0.0001334
-1.49e-05
0.004032
-0.002427
-0.001605
0.0003927
-0.001329
0.0009359
0.022
0.004354
-0.0006324
0.0001649
0.0004674
-0.4707
0.2199
0.2509
0.00144
0.0002067
-0.0009057
0.001254
-0.0003486
0.0003624
0.0002471
-0.0006095
0.0001782
-0.0001465
-3.168e-05
-0.0005469
0.0009266
-5.923e-05
-0.004618
-0.0002578
0.0002645
-6.645e-06
-0.001818
0.001614
0.0002042
0.002626
-0.0007424
-0.001884
-0.04296
-0.07767
0.003974
-0.003064
1.193e-06
5.721e-07
-1.765e-06
0.001569
0.001058
-0.0236
0.01901
0.004594
-0.0005776
-0.001192
1.845e-05
-1.845e-05
0.2279
-0.02067
0.001511
-0.0002894
-0.001222
0.001247
-0.0005338
0.0005806
-0.001281
0.0007001
-0.001051
0.0007032
0.0003483
0.000668
0.000576
0.0005983
0.0004376
-0.001036
-2.534e-06
-2.022e-06
0.001214
0.0005856
-0.001799
-0.0007704
0.0006825
8.792e-05
-0.000119
0.000119
0.195
-0.9656
0.7706
-0.001045
-0.001467
0.002512
-0.0002991
0.0008313
-0.0005321
0.002695
-0.001268
-0.001426
0.003444
-0.001088
-0.002356
-0.0002554
0.001211
-0.0009555
0.0008813
-0.0005147
-0.0003666
0.116
-0.02982
0.000109
-0.0005629
0.000454
-0.000261
0.00169
-0.001429
-0.01029
0.0004951
0.009792
-0.004121
0.002146
0.001974
-0.0604
0.095
-0.0346
-0.01269
0.005308
-0.08913
0.03906
-0.001142
-0.0009927
0.002135
9.189e-05
0.0008568
-0.0009486
-0.0004591
0.0009754
-0.0005163
0.0002341
-0.0005643
0.0003302
-0.001143
-0.001188
0.002331
0.001486
-0.00478
0.003294
-0.001092
-8.148e-06
0.0011
0.8677
0.1669
-0.001275
0.001667
-0.000392
0.001621
-0.0001101
0.001339
-0.002241
0.0009017
-0.0009685
0.001056
0.001249
0.001071
0.001482
-0.001749
0.0002673
-0.3866
-0.4439
0.8305
0.0008972
0.001556
-0.002453
-0.5373
-0.3458
0.8831
0.04341
-0.0192
0.004613
-4.177e-05
-0.09223
-0.1633
0.2556
0.04831
0.1193
-0.1676
2.848e-06
-9.714e-07
-1.877e-06
0.001485
-0.001196
-0.0002883
-0.07783
-0.1005
0.1784
0.001973
-0.001463
-0.0005106
0.1654
-0.04833
-0.001182
0.004664
-0.002636
0.005929
-0.003293
-0.01048
-0.01312
0.001089
0.001557
-0.002646
-0.202
0.2353
-0.03329
-0.0006801
0.001152
-0.0004715
-0.0004277
-0.0003252
0.0007529
0.0001607
-0.0001274
-3.334e-05
-0.0003842
-0.0006673
0.0035
-0.002014
-0.0004244
-0.0007758
0.0012
-0.004508
0.001317
0.003191
-0.001358
-0.002172
0.00353
0.004037
-0.003367
-0.0003213
0.0005752
-0.000254
0.0008356
0.0001814
-0.001017
0.00288
0.0002546
-0.181
0.1213
-0.006647
0.003242
0.003405
-0.00353
0.003571
-4.162e-05
0.001494
0.0001521
-0.001646
8.403e-05
-1.224e-05
-7.178e-05
-0.001346
0.0008657
0.0004807
-0.8474
0.3101
-0.2551
0.1311
0.1241
0.0003967
8.093e-05
-0.0004776
0.003173
-0.004337
0.001164
-0.000367
-0.0006397
0.001007
0.0151
-0.009156
-0.005946
0.1994
-0.1885
-0.0109
0.009609
-0.01281
-0.0006982
-5.603e-05
0.0007542
0.09177
-0.04914
-0.04263
0.001875
0.00082
0.0005527
-0.0001561
-0.001165
0.002843
-0.001678
-0.01661
0.03196
-0.01535
0.0001866
-0.0003893
0.0002027
0.001221
-0.0004069
-0.0008139
-0.001795
0.0006575
0.001138
0.003685
-0.001998
-0.001687
0.1965
-0.1482
-0.005991
0.01789
-0.4994
-0.9673
-0.4988
-0.9664
-0.01162
0.002162
-0.001285
0.001047
0.0002383
-0.004827
-0.0002431
0.001157
0.002527
0.0001266
0.001074
-0.001201
-0.0146
0.04215
0.002728
0.001304
-0.001406
0.000518
0.0008885
0.0001273
0.0005221
-0.0006494
-0.00122
0.0009389
0.0002809
0.0005765
0.001397
0.001167
-0.0004536
-0.0007137
-0.001357
0.001719
-0.0003612
0.00136
-0.0009275
-0.0004323
-0.0003572
0.001761
-0.001404
-0.001714
0.001323
0.0003904
-0.003803
0.005364
-0.001561
4.396e-05
-0.0003665
0.0003225
-0.0008412
-0.001819
-0.02758
0.0294
0.001341
-0.001173
-0.0001683
0.002766
0.0006784
-0.0005529
-0.0009554
0.001508
0.2904
-0.3996
0.1092
0.001087
0.0001336
-0.0007549
0.001498
-0.0007436
-0.002152
0.001942
-0.00622
-0.006288
0.01251
0.001382
-0.001441
5.941e-05
-0.0001342
0.001099
-0.0009653
0.3829
0.1353
-0.5182
-0.1162
-0.05005
-0.1886
0.2594
-0.07079
0.0008065
-0.0009885
0.000182
0.4389
-0.8255
-0.001873
0.002405
-0.0005324
0.05997
0.0318
0.0005818
-0.0008809
0.0001149
-0.0009054
0.0007905
0.1097
-0.1166
0.02577
-0.009142
-0.01663
-0.0002878
0.001426
-0.001138
1.312e-05
-8.937e-07
-1.222e-05
0.001127
-0.001989
0.0008621
0.9367
-0.6994
-0.2372
0.000473
0.007392
-0.007865
0.0002149
0.0009338
-0.001682
0.001181
0.0005005
0.007222
-0.005523
-0.001698
-0.0874
-0.01989
0.000115
1.871e-05
-0.0001337
0.0152
-0.02071
0.005506
1.598e-05
-0.0002559
0.002267
-0.003058
0.0007913
-0.001715
-0.002903
0.004618
0.2443
-0.2559
0.01156
0.006924
-0.005845
-0.001079
-5.481e-05
0.0002225
-0.0001676
0.0003231
0.000892
-0.001215
-0.001165
0.001292
-0.0001272
-0.0002857
0.0006173
-0.0003316
0.004649
0.002275
-0.0006081
0.00052
-0.02327
0.02145
0.01252
-0.07293
0.0002444
-0.0004255
0.000181
-0.5096
0.03885
0.003046
8.16e-05
-0.003127
0.0003431
-0.0003355
-0.002253
0.01746
-0.004868
0.00385
0.001017
0.0005107
-0.001659
0.001149
-0.002565
0.002543
2.164e-05
0.1102
0.4883
-0.5985
0.0006545
-0.001335
-0.0003578
-0.0002638
0.0006216
-0.00153
-3.367e-05
0.001564
0.001387
0.008585
0.0002312
0.000893
-0.001124
-0.001422
0.0008854
-0.0005345
-0.001102
0.002148
-0.001844
-0.0003047
-0.00137
0.0002783
-0.001274
0.003495
-0.002221
-0.001185
0.0002283
0.0009567
0.000983
-0.0001008
0.0004296
-0.0003941
-3.556e-05
0.001002
-0.001081
7.858e-05
-0.6738
0.8688
-0.002425
0.0006064
0.006871
-0.01067
0.003797
-0.003999
0.003746
-0.01288
0.0006621
0.01222
0.0008294
-0.0002488
-0.01077
-0.007633
0.01841
-1.277
1.439
-0.162
-0.001329
0.001346
-1.671e-05
0.0002924
0.0002128
-0.0005053
0.002464
0.00977
-0.01223
0.003489
-0.003833
0.0003436
0.5738
-0.1909
0.00116
-0.00235
0.001191
0.0002381
-0.001059
0.000821
-0.05845
0.04509
-0.02238
-0.1796
0.6985
-0.6527
-0.04577
0.00102
-0.001064
0.05774
-0.02511
-0.0004501
-0.000149
0.0005991
0.05122
-0.05517
0.003952
9.861e-05
0.0006582
-0.01256
-0.1313
0.1439
0.0007942
-0.0005802
-0.000214
0.05886
-0.2475
0.0004863
0.0008229
-0.001916
0.002028
-0.0001112
-0.001584
0.0008636
0.0007208
-0.001458
0.003268
-0.00181
0.0004797
-0.00101
0.0005307
-0.02046
0.008701
0.01176
-0.001119
0.0005972
0.0005213
0.0009152
0.0003532
-0.001268
-0.001063
0.0001154
0.0009476
-0.00124
0.0002736
0.0009668
0.00153
0.006531
-0.008061
-0.002866
0.002485
0.0006472
0.0009774
-0.001625
0.001287
-0.004414
0.003127
0.001144
-0.001445
0.0003009
-0.0008441
0.001491
0.3511
-0.9429
0.5918
0.1214
-0.001847
-0.1196
0.003075
-0.001327
-0.001748
-0.0009285
0.0009864
-5.786e-05
-1.54
0.1226
1.417
-0.002573
0.00159
0.0009836
-0.00465
0.01171
-0.007058
0.005482
0.008871
-0.0009776
0.004151
0.03092
-0.01639
-0.01453
1.418
-0.2689
-1.149
0.0001678
-0.0005775
0.0004097
-0.009724
0.005074
-0.0004232
0.0003687
5.446e-05
-0.001426
0.000686
0.0007401
0.0006189
-0.0003888
-0.0002302
0.0006445
-4.703e-05
-0.0005975
0.001008
-0.0001549
-0.0008527
-0.0007211
-0.0006253
-0.0009287
9.032e-05
0.0008384
0.0006232
0.002866
0.00155
-0.0004857
-0.001064
-0.1256
0.2572
-0.1316
-0.000525
0.0008886
-0.1002
0.08367
0.01654
0.0006943
-0.0006109
-8.347e-05
0.0008167
-0.001719
-0.001345
0.001192
0.0001521
3.089e-05
-0.001381
0.001351
1.998e-07
7.504e-07
0.001615
-0.0008069
-0.0008082
-0.001199
0.001014
0.0001849
0.0299
-0.01697
-0.01292
0.001589
-0.00233
0.0007408
-0.2841
0.2288
0.05531
0.0003996
0.0002194
0.1174
0.004021
-0.0005768
-4.867e-05
0.0006255
-0.002751
0.002087
-1.973e-06
1.973e-06
1.075e-06
-3.09e-06
2.015e-06
1.235e-05
-1.121e-05
-1.134e-06
1.196
-0.8182
-0.3779
0.0006471
0.0006937
-0.0003028
0.001323
-0.00102
-0.1452
-0.11
0.0021
-0.0001628
-0.001937
-0.0004046
0.001211
-0.0008059
0.0009785
-0.00106
8.137e-05
0.003702
-0.0003341
-0.003368
-3.671e-05
-0.00188
-0.001332
-0.0002526
-0.001619
-0.0009546
-0.000857
0.000783
7.409e-05
-0.4345
0.7855
0.001094
-0.0004087
-0.0006851
-3.298e-05
3.129e-05
1.693e-06
0.0007929
-0.0009148
0.0001219
0.001045
-0.0002588
-0.0007858
-0.0001517
0.0001152
0.06061
-0.1774
0.003571
-0.0008746
-0.04548
0.06929
0.004516
-0.003229
0.04765
0.2452
-0.2928
-0.0009426
0.000237
0.0007056
-0.0001749
-0.0002664
0.0004414
-0.0003479
0.0003263
2.163e-05
1.527
-0.9025
-0.6245
0.002482
0.0005929
0.009936
0.003692
-0.01363
-7.619e-05
9.783e-05
-2.164e-05
-0.000862
-2.622e-05
0.0008882
0.000642
-2.724e-05
-0.0006147
-0.006298
0.00133
0.004968
-0.107
0.1008
0.006241
-9.133e-05
0.0004621
-0.0003708
0.001126
0.0009115
-0.002037
-0.8035
-0.736
0.002714
-0.006025
0.0009966
0.005028
-0.0008433
0.0004156
0.000466
0.0009158
-1.671e-05
-0.0009118
-0.0007539
0.0001275
0.0006264
0.002712
-0.0004449
-0.003889
0.003813
7.619e-05
0.001133
1.41e-05
-0.001148
-0.000518
0.00113
-0.0006121
-0.0003357
-0.0009937
0.1123
0.05631
-0.1686
-0.0003149
0.0002314
8.357e-05
-0.0001619
0.001033
-0.0008714
0.001228
-0.001402
0.0001746
0.001188
-0.002568
0.00138
-0.000423
0.0007453
-0.0003224
-0.7902
0.1129
0.6772
-0.7887
0.629
0.1597
0.001345
-0.01163
0.00109
7.748e-05
-0.0008316
-0.0009323
0.001764
0.1349
-0.2063
0.07136
1.475
-0.6506
-0.8239
-0.001826
0.002947
-0.001121
0.0004226
-0.0006404
0.0002178
0.001924
-0.0008141
-0.00111
-0.0009065
-2.217e-05
-0.0004853
-5.534e-05
0.0005406
0.0006112
-0.0005588
-5.245e-05
-0.003522
0.003342
0.0001802
-0.1435
0.1011
0.04238
1.402
-1.279
-0.1228
0.0003756
-0.0001794
-0.0001962
0.0005254
0.001024
-0.001549
0.0006102
-0.001966
0.001355
0.3137
0.5217
-0.8354
-0.0002166
-0.0005538
0.002694
-0.003151
0.0004576
0.0009722
-0.0009472
-2.503e-05
0.4927
-0.001189
0.001431
-0.0002426
-0.02953
0.1644
-0.0006748
0.001185
0.000618
-2.39e-05
-0.0005941
0.005057
-0.006432
0.001375
0.9746
0.1613
-1.136
0.0001327
0.0005299
-0.0006626
-0.002984
-0.001137
-0.0005481
0.0002158
0.3922
1.026
0.0004932
-0.001801
0.000104
4.424e-05
0.3938
0.3047
-0.001854
-0.003014
-0.1661
0.007347
0.1588
-0.0004643
-0.0005992
0.001063
0.002106
-0.0005747
-0.001531
-0.2796
0.1874
-0.001086
0.0009807
0.0001055
0.0004632
0.0009626
-0.001426
8.185e-05
1.961e-06
-8.381e-05
0.0006445
0.0005612
-0.001206
0.003036
-0.001659
-0.001378
-0.0004318
-0.001282
-0.000501
-0.001181
0.0005544
0.0002601
-0.0008144
0.001004
-0.001077
0.0005323
-0.00093
0.0008649
-0.001351
0.0004863
-0.0003907
0.0004128
-2.203e-05
-0.002248
0.001679
0.0005697
0.001038
-0.0007417
-0.0002966
-0.6007
0.9143
0.001524
-0.001003
-0.0005212
0.1054
-0.1922
0.08685
-0.000612
-0.0006078
-0.1247
0.03588
0.08884
-0.0004981
0.002589
-0.3429
-0.9344
-0.1528
0.07502
-0.002365
-0.005255
0.007621
-0.0005734
-0.0006117
0.001206
0.000851
-0.002057
-1.043
0.128
0.9152
1.109
-0.9015
-0.2071
-0.0003923
0.0001344
0.0004061
0.0003496
-0.0007557
0.0005078
-0.001076
-0.001365
0.0005451
0.0008195
-0.002538
0.001007
0.001531
0.0003685
-0.0008186
0.001629
-0.002343
0.0007146
-0.0009338
0.000576
0.001083
-0.0005613
0.0002911
-0.0008101
0.0005189
0.0005013
0.0001621
-0.0006634
-1.164
0.121
-0.0003023
-0.0008625
0.001165
-0.0001176
0.0009536
-0.000836
-3.226e-05
-0.005389
0.005421
0.008477
-0.003875
-0.004602
0.1829
-0.2396
0.05662
1.031
0.4431
0.001753
-0.002918
-2.91e-05
-0.0004784
0.0006776
0.0008725
-0.0001859
0.0001059
7.997e-05
-0.07746
-0.04726
-0.9836
-0.4041
1.388
0.0005529
0.0004087
-0.0009616
0.001236
-6.178e-06
-0.00123
-0.0504
-0.007931
-0.0003247
-0.0004198
0.0007444
0.01511
-0.002369
-0.01274
-0.03125
0.08764
-0.05639
0.001326
-0.0005332
-0.0007931
0.002629
-0.003264
0.0006351
0.0009644
-0.001082
0.005021
-0.01006
0.005037
-5.191e-06
5.191e-06
0.0002248
-4.664e-05
-0.0001449
-0.001096
-0.0007974
-0.0003211
0.0007661
0.0007186
-0.000896
-0.0003922
0.001288
-0.001119
-6.976e-05
0.000671
-0.001199
0.0005282
0.05433
0.00708
-0.06141
-0.0017
0.0005909
0.001109
-0.0001585
0.000111
4.754e-05
0.0007539
0.002292
0.7465
-1.071
0.3248
0.001775
-0.0002928
-0.005416
0.004741
0.0006753
0.002269
-0.004144
0.001874
1.077
0.4502
-0.02479
0.7713
-5.235e-06
-1.057e-06
6.292e-06
0.02363
0.006269
0.0006398
-0.001191
0.000551
-0.0006954
0.0007126
-1.715e-05
-0.0004955
0.0008648
-0.0003693
-0.005103
-0.001544
0.002326
0.004093
-0.006419
0.000757
-0.0003945
0.004363
-0.007477
0.003113
0.001487
-0.001257
-0.0002297
-0.1514
-0.2002
0.3516
1.055
-0.04479
-1.01
-0.002592
-8.816e-05
0.00268
-0.0024
0.009271
-0.0002413
0.001048
-0.001419
0.003688
0.000755
-0.0008551
0.0001001
-0.002864
0.0009691
0.001894
0.0004296
0.0002806
-0.0007102
-0.01822
0.01733
0.00472
-0.01094
-1.119
-0.3841
1.503
-0.0002886
0.0005681
-0.0002795
0.02299
0.007927
-0.00178
0.001301
0.0004791
8.756e-07
-0.002705
0.0007644
0.00194
-0.002918
0.001776
-0.0006396
0.001767
1.252
-0.2776
-0.002009
0.002283
-0.0002744
-0.0005249
-0.0008931
0.001418
0.0002403
-0.0002544
1.411e-05
0.001195
0.005143
-0.006338
-0.002204
-0.001096
0.003301
0.0007308
0.0003525
-0.0001467
0.0004063
0.001026
0.001122
0.0001733
-0.0006375
0.0004643
-0.001974
-0.00137
0.003344
0.0008496
-0.001105
0.001552
-0.002706
0.001154
-0.003763
0.0002329
-0.0001366
0.002082
0.003386
-0.006454
0.003068
-5.624e-06
5.624e-06
-0.001168
-0.004249
-0.06659
0.02418
0.0001937
-0.001685
0.001491
0.0002203
0.0004343
-0.0006546
-9.075e-07
0.001453
-0.001453
0.1024
0.3744
-0.4768
0.0002993
-6.177e-05
-0.0002375
0.001046
-0.004849
0.001673
0.0002514
-1.509
0.525
-5.894e-05
-0.000127
0.001219
-0.0002173
0.001172
-0.001409
0.0002374
-0.3855
-0.6335
1.019
-8.598e-05
0.000757
-0.0004112
0.000488
-7.681e-05
-0.0003593
0.001173
-0.0008139
-0.0002923
0.001174
-0.0008814
-1.191
0.8056
0.001756
-0.001075
-0.0006808
-0.0001114
3.478e-05
7.664e-05
-0.0006962
0.001133
-0.0004371
0.002906
-0.00278
-0.0001258
-0.1579
0.06502
0.09287
-0.001123
-0.0002831
-0.0002239
5.483e-07
0.0002234
-0.1632
0.1693
-0.006107
0.003083
0.0006125
-0.003695
-0.004291
0.004185
0.0001059
-0.001081
0.0001848
0.001096
0.0005187
-0.002935
0.004252
-0.003082
0.0003778
-7.395e-05
-0.001024
0.001098
0.0003284
-0.0007875
0.2819
0.5868
-0.8687
0.001299
0.0004568
0.001773
-0.002737
0.0009643
0.0004502
-0.0004607
1.05e-05
-0.0002859
-0.001244
-0.01292
0.009592
0.003325
0.002421
-0.0003209
-0.0001498
-0.0006041
1.028
-0.7465
-0.000115
0.001093
0.0006071
0.0007192
-0.0007629
-0.0003046
0.001067
6.382e-06
-5.189e-06
0.0003878
-0.001151
-0.0001461
-0.0002019
-0.001665
-0.0003559
0.002021
-0.0008978
0.0005337
0.0003641
-0.005165
0.001357
0.003808
0.1728
1.023
-2.61e-06
2.61e-06
-0.0004339
-0.0006262
0.00106
-0.0005683
0.001213
-0.0003514
0.0003163
3.51e-05
0.0003894
-0.0009074
0.000518
-8.27e-05
0.0005287
-0.0004461
0.001033
-0.0001773
-0.0008556
-0.0009108
0.0007856
0.5597
0.842
-0.00111
-0.00323
0.004339
-0.004656
0.001315
0.003341
-1.496
0.3765
0.0006191
-0.001095
0.0004757
9.949e-05
0.0005948
0.002402
-0.0009083
0.001131
0.0003875
-0.001518
0.1382
-1.019
0.8812
-0.0003532
0.001982
-0.0005068
0.0001597
0.0003471
-0.277
-0.7165
0.8547
0.005036
0.003441
0.003468
-0.004151
0.0006832
-0.001123
-0.001414
0.0005531
2.019e-05
-0.0005733
0.001742
-0.001472
-0.0002695
7.799e-05
-8.467e-06
-6.952e-05
-0.00435
0.001079
0.003271
-0.004582
0.00636
-0.001778
-0.8018
-0.2695
0.001498
-0.0004064
-0.001092
0.001061
-0.0004983
-0.0005625
0.0008264
-0.0006693
-0.0001571
0.0003059
-0.0006271
0.002433
-0.002185
1.081
0.08681
-1.168
0.2726
-0.2119
0.07425
-0.1316
0.05738
0.0006471
-0.0001374
-0.0005097
0.0449
-0.8467
0.02581
-0.01638
-0.009432
-0.000249
0.0005575
-0.0003085
-0.0009765
-0.001189
0.002166
0.0005629
0.0003318
-0.0008947
-0.2167
0.8398
-0.6231
0.0008239
-0.0004498
-0.0003741
-0.0004417
0.002521
-0.00208
-0.2411
-0.01439
0.2555
0.0006348
0.000725
0.6921
0.4736
-1.166
-0.0005528
-0.0003476
0.0009005
-8.652e-05
-6.595e-05
0.0001525
-0.001276
0.0006326
0.0006436
-0.0005022
-0.001961
0.002463
0.000122
8.548e-05
-0.0002075
0.1838
-0.05243
-0.1314
-0.0006008
-0.0005576
0.001158
-0.009862
0.01008
-0.0002211
-0.0007572
-0.0001854
0.0001426
-0.0001306
-1.195e-05
-0.0006614
-0.0008127
0.001474
0.0002925
0.0001175
-0.00041
-0.008327
-0.00459
0.005844
-0.006472
0.0006277
0.002283
-0.0004361
-0.001847
0.0007259
-0.0007259
-0.3415
0.1959
0.1456
-0.004961
0.007241
-0.002279
0.001362
-0.0008375
-0.0005243
-0.0006476
0.001159
-0.0005118
-0.0001345
-2.4e-05
0.001083
-0.0009795
-0.0001038
-0.1189
1.2
0.03723
-0.02226
-0.01496
0.0002572
0.0001184
-0.000882
4.991e-05
0.0008321
0.0004952
-0.0006045
0.0001093
-0.001034
0.002252
-0.001218
0.0001029
-0.0001029
-0.001087
0.001133
-4.536e-05
-0.0005416
0.0005416
0.001971
-0.0006933
-0.001278
-0.0002199
-0.0001552
0.0003751
-0.004011
0.002901
0.0003797
-0.0002397
-0.0001399
0.09921
-0.07373
-0.02549
0.002216
-0.001672
-0.0005437
1.094
-1.518
0.424
1.313
-1.734
0.4215
0.0004769
0.002279
-0.002756
-0.04561
0.09307
-0.04746
-0.001022
2.426e-05
0.0009979
0.01097
-0.002868
-0.008106
-0.000957
0.0004122
-0.007932
0.00886
-0.0009276
0.04104
-0.09332
0.05227
-0.0007211
9.374e-05
0.0006274
0.0008092
0.001186
-0.001995
0.252
-0.007708
-0.008994
0.008194
0.0008004
-0.0006942
0.001181
-0.0004866
0.08658
-0.04553
-0.001201
0.000646
0.000555
-0.0003172
0.0003172
0.001075
-0.0006259
-0.0004491
0.001033
-0.003262
0.002229
0.0004047
-0.0001117
-0.000293
0.002876
-0.003635
0.0007581
0.0005911
-0.000559
-3.209e-05
-0.3349
0.1216
0.2133
-0.001676
0.0003312
-0.0008242
-0.0009558
-0.05272
0.3431
-0.001059
0.0007807
-0.001521
0.0001322
0.001389
-0.00176
0.003778
-0.002018
-0.4774
-0.5494
1.027
0.2404
-0.0001249
-0.2403
0.009477
-0.005543
-0.003934
2.845e-05
1.129e-05
-3.974e-05
0.0001547
-0.002639
0.002485
0.000317
-0.000317
-0.002651
0.001342
0.001309
0.000968
-0.0002622
-0.0007058
-0.002323
0.002139
0.0001842
-6.929e-05
-4.851e-05
0.0001178
-0.001137
-0.0003444
0.001482
-0.4103
1.368
-0.9576
-0.0004021
0.0005932
-0.0001911
0.006013
-0.001688
-0.004325
-0.3001
1.334
-1.034
-0.0007613
-0.001033
0.001794
-3.022e-05
1.688e-05
1.334e-05
0.001183
0.005341
-0.006524
-0.001219
0.0004487
0.0007707
0.006523
-0.003846
-0.002677
0.001336
0.003405
-0.004741
2.606e-05
5.705e-05
-8.311e-05
0.0003933
-0.0003933
0.0009785
0.0004858
-0.001464
-0.08859
-0.05495
-0.459
0.2213
0.2377
0.00324
-0.001228
-0.002013
-0.001822
0.001387
0.0004352
0.000286
0.0004949
-0.0007809
-0.001479
0.0007818
0.0006971
-0.0006064
6.895e-05
0.0005374
0.0008306
-0.0003448
-0.0004858
-0.003947
0.003545
0.0004019
-0.01204
0.01746
-0.005411
0.0003721
0.0004585
-0.03081
-0.009862
0.04067
-0.0008881
-7.445e-05
0.0009625
0.1383
-0.5793
0.4411
0.0007536
0.0009167
-0.00167
-6.721e-05
8.425e-05
-1.705e-05
-0.00262
0.003493
-0.0008736
0.00146
-0.001179
-0.0002809
-0.002012
0.0009662
0.001046
-0.3813
0.09853
0.2828
-0.1853
0.05325
0.1321
-0.000234
0.0004153
-0.0001814
0.008446
-0.009635
0.001189
0.0003485
-0.0006655
0.000317
0.0007389
-0.001305
0.0005662
-0.0002751
0.0005026
-0.0002276
0.001534
-0.001501
-3.298e-05
0.001343
-0.000204
-0.00114
-0.001969
0.001526
0.0004433
0.000172
-0.001027
0.0008546
0.0008714
-0.0008714
-5.381e-05
0.00108
-0.001027
-7.958e-05
0.0006423
-0.0005627
0.001259
-0.001004
-0.0002554
-0.002961
0.004453
-0.001491
0.001158
-0.00228
0.001122
-3.798e-05
0.0005152
-0.0006916
0.000734
-4.233e-05
4.578e-05
-5.182e-05
6.037e-06
-5.418e-05
3.223e-05
2.195e-05
-0.002434
0.001121
0.001313
-0.3212
0.4236
0.5939
0.2171
-0.811
-0.001336
0.001877
-0.0005406
0.0002344
0.0007271
-0.0009614
0.005226
-0.000963
-0.004263
-0.1883
1.178
-0.9902
0.0003521
0.0008274
-0.00118
-0.002119
-0.0002247
-0.002722
-0.00552
0.008242
0.0003247
0.0001958
-0.0005206
0.003311
-0.002961
-0.0003501
-0.0001508
0.0007195
-0.0005686
0.002289
-0.003086
0.0007965
0.7866
-0.6764
-0.009065
0.003047
0.006019
0.01228
9.955e-05
-0.01238
0.0006026
-5.682e-05
-0.0005457
0.0001677
0.0002964
-0.0004641
-0.0005388
0.0003897
0.0001491
-0.005223
0.001969
0.003254
0.002876
-0.006842
0.003965
0.0005143
-0.001203
0.0006882
-0.001075
0.001669
-0.0005937
-0.002237
-0.001567
0.003804
0.00356
-0.001404
-0.002156
-0.000939
-0.0001949
0.001134
0.002326
-0.001919
-0.0004065
0.001068
-0.0008908
-0.0001769
0.0006975
-0.0005308
-0.0001667
0.2516
-0.3148
0.06317
-0.000739
0.000494
0.0002449
-1.842e-05
-7.455e-05
9.298e-05
0.002409
-0.0006362
-3.827e-05
0.00152
-0.001482
-0.0003204
6.935e-05
0.01956
-0.1181
0.09855
-0.0008382
0.0008382
-0.0008516
0.0008516
-0.1652
-1.043
1.208
1.259
0.231
-1.49
-0.001674
0.000926
0.0007476
0.0005086
-0.002769
0.002261
-2.217e-05
2.773e-05
-5.562e-06
-9.864e-05
0.0001705
-7.186e-05
-0.0002422
0.002458
-0.0007018
0.0009299
-0.0002281
0.0007121
8.239e-05
-0.0007945
-0.001162
-0.00453
0.005693
0.003836
0.005422
-0.009258
-0.1882
0.05753
0.1306
0.0008706
-0.0005401
-0.0003305
-0.001055
-0.001517
0.002572
-0.0004403
0.000971
-0.0005307
-0.005246
0.001176
0.00407
-4.977e-05
7.935e-05
-2.958e-05
0.0009427
-0.001258
0.0003156
0.8097
-1.137
0.327
-0.001021
0.001021
0.0006331
-0.0004062
-0.0002269
0.1668
0.562
-0.7288
0.001092
-8.405e-05
-1.279
1.114
0.2396
-0.4228
0.1832
-0.003415
0.002362
0.001052
-0.01157
-0.002359
0.01393
0.000696
-0.0003365
-0.0003595
0.7785
-0.9449
0.1664
0.001475
-0.0007127
-0.0007623
0.479
-0.1384
-0.3407
0.0004034
-0.0009259
0.0005225
-0.01725
0.005584
0.01167
0.009672
-0.008795
-0.000877
0.00649
-0.00339
-0.0031
-0.0003012
-0.001089
0.00139
-0.001057
-0.0004902
0.001547
0.0006814
0.000257
-0.0009383
0.001968
0.0004096
-0.002377
0.1508
0.6467
-0.7975
0.004305
0.06716
-0.07147
-0.00376
0.001896
0.001864
-0.0002152
-0.001146
0.001361
0.0002025
-0.0006524
0.0004499
0.0009285
-0.0005598
-0.0003687
0.0003153
-0.0001739
-0.0001414
-0.0005743
-0.00017
0.0007443
-0.0005524
0.0005524
-0.0007459
0.001307
0.001751
-0.00125
-0.0005003
-0.000477
0.001281
-0.0008036
-0.001482
0.000914
0.0005679
0.0005274
0.0003289
-0.0008563
0.004692
-0.006581
0.001888
0.009261
-0.003883
-0.005378
0.4787
-0.357
-0.1217
-0.001354
0.001491
-0.0001372
-0.0001841
0.0002903
-0.0001061
-0.001034
-4.227e-06
0.001038
0.4953
-1.093
0.5979
-0.0007916
0.0002929
0.0004987
0.003421
-0.001778
-0.001642
-0.002658
0.0006984
0.001959
0.001845
-0.0008303
-0.001014
-0.0002551
0.001168
-0.0009126
0.001493
0.007087
-0.00858
0.001142
-0.001336
0.0001938
-0.001049
-0.002221
0.00327
-0.001305
-0.001353
-0.0001437
-0.000259
0.0004027
-0.0009395
-0.0001594
0.001099
0.0001101
3.253e-05
-1.176
0.5398
0.6359
0.002386
-0.004599
0.002213
-0.001239
0.0004875
0.0007512
0.1308
0.05369
-0.1845
-0.001229
0.000358
0.0008714
0.0008064
0.0002352
-0.001042
-1.248
1.248
0.001734
0.002631
-0.004365
-0.0001552
0.0002593
-0.0001041
0.06539
-0.05236
-0.01302
0.006955
-0.002262
-0.004208
0.004154
5.389e-05
0.0005953
-2.353e-05
-0.0005718
0.013
-0.00996
-0.003036
-1.267
0.5225
0.7441
0.0008833
-0.001444
0.0005609
-0.0003812
0.0009586
-0.0005774
0.4062
-0.2581
-0.1481
-0.008819
0.005128
0.003691
-0.002068
-0.02963
0.0317
-0.001673
-0.0007402
0.002413
-0.0008317
-0.0003309
0.001163
-0.001713
-0.0008386
0.002551
-0.04871
-0.05299
0.1017
-1.994e-05
-8.172e-05
0.0001017
-1.663e-06
-5.965e-05
6.131e-05
0.0003425
0.001182
0.0005127
-0.001899
0.001386
-0.001883
0.003054
-0.001171
0.000229
0.0001507
-0.3924
1.244
-0.8519
0.0003485
-0.001595
0.001246
0.3535
-0.009511
-0.344
0.000955
-0.001351
0.0003959
-0.001319
0.001292
2.696e-05
0.0007057
0.0008493
-0.001555
0.0005249
0.00132
-8.748e-05
5.319e-05
3.429e-05
0.0007148
-0.0008056
9.084e-05
-0.5587
0.2202
0.3386
9.853e-05
-9.853e-05
-0.0008667
0.0006202
0.0002465
0.0002168
-0.001006
0.0007896
-0.001888
-0.0002378
0.002125
-0.0004057
0.0005147
-0.001908
-0.001721
0.003629
0.009401
-0.008537
-0.0008634
-0.0007924
0.0006379
0.0001545
0.002351
-0.001628
-0.0007231
-0.009716
0.02512
-0.01541
0.0001277
-0.0001277
-0.0006439
0.0008053
-0.0001613
-0.001284
0.0005532
0.0007304
0.0007863
0.0003054
-0.001092
0.001922
-0.00159
-0.0003318
0.0003081
0.000557
-0.0008651
-3.882e-05
-0.0004412
0.0004801
0.0002273
0.0001562
-0.0003836
0.00262
-0.001908
-0.0007113
0.001233
-0.0002896
-0.0009437
0.0008114
-0.002941
0.00213
-0.0005712
-0.0007289
0.0013
-0.001698
0.0008813
0.0008164
-0.006615
-7.677e-05
0.006692
-0.0003654
0.0003654
-0.02226
0.00711
0.01515
0.00118
0.0004648
-0.001645
-0.00612
0.01606
0.001135
-0.001576
0.0004411
-1.272
0.5152
0.7567
0.553
-0.7874
0.2344
0.002818
-0.004681
0.001863
0.0002322
-0.0002734
4.122e-05
-0.00189
0.0003952
0.001495
-0.1962