/*--------------------------------*- C++ -*----------------------------------*\
  =========                 |
  \\      /  F ield         | OpenFOAM: The Open Source CFD Toolbox
   \\    /   O peration     | Website:  https://openfoam.org
    \\  /    A nd           | Version:  8
     \\/     M anipulation  |
\*---------------------------------------------------------------------------*/
FoamFile
{
    version     2.0;
    format      ascii;
    class       volVectorField;
    location    "15";
    object      U;
}
// * * * * * * * * * * * * * * * * * * * * * * * * * * * * * * * * * * * * * //

dimensions      [0 1 -1 0 0 0 0];

internalField   nonuniform List<vector> 
127143
(
(0.07779 -0.002233 1.415e-22)
(-0.002293 -0.01081 -1.108e-22)
(0.001715 0.008481 1.078e-22)
(0.002314 0.01046 0)
(0.6781 0.2272 0)
(0.002083 0.01035 0)
(0.6806 0.4106 6.188e-22)
(0.6956 0.3181 0)
(0.6084 0.2763 1.799e-21)
(0.6655 0.02744 3.225e-21)
(0.3762 0.546 0)
(0.6236 0.3851 8.481e-23)
(0.0357 -0.01372 3.145e-23)
(0.003068 0.01124 0)
(0.3175 -0.3259 0)
(0.7131 -0.05134 3.991e-23)
(-0.004587 -0.01801 1.459e-22)
(0.7574 -0.06923 0)
(0.6664 -0.1471 -7.412e-22)
(0.7904 -0.006019 1.001e-22)
(0.9373 -0.2242 0)
(0.2927 -0.106 1.197e-22)
(1.03 -0.162 6.613e-22)
(1.118 -0.1031 8.384e-23)
(0.29 -0.1057 3.577e-22)
(1.093 -0.176 0)
(1.167 -0.01164 8.005e-23)
(1.165 0.01487 -5.765e-21)
(0.9192 -0.424 0)
(0.8021 -0.05411 5.451e-21)
(1.1 -0.07636 8.368e-24)
(1.069 -0.1775 9.459e-22)
(1.245 0.3167 8.094e-22)
(0.8881 -0.2183 -1.169e-21)
(0.8949 -0.08373 6.137e-23)
(1.26 0.3236 7.921e-22)
(0.6374 -0.2104 -8.858e-22)
(1.048 -0.1666 6.435e-22)
(1.122 -0.1036 3.924e-23)
(1.064 -0.04996 6.731e-23)
(0.666 -0.1453 -2.503e-22)
(1.12 0.2893 0)
(1.098 0.2771 5.464e-22)
(0.07235 -0.0239 -3.284e-22)
(0.7596 -0.06515 0)
(0.8953 -0.2185 1.134e-21)
(0.9306 -0.426 0)
(0.6658 -0.2101 -3.511e-22)
(1.145 -0.1966 -2.322e-23)
(1.117 -0.09288 -2.913e-23)
(0.766 -0.05579 4.929e-23)
(0.9504 -0.03545 2.879e-21)
(1.144 -0.1382 -3.3e-22)
(1.094 -0.06283 -7.444e-24)
(0.9998 -0.002553 -5.93e-21)
(1.117 -0.2831 -2.047e-21)
(0.9992 -0.002744 5.662e-21)
(1.111 -0.1026 -1.365e-22)
(1.001 -0.01853 4.169e-22)
(1.095 -0.05935 9.183e-22)
(0.6763 -0.181 -6.732e-22)
(0.7478 -0.2099 0)
(1.127 -0.08909 2.854e-23)
(1.002 0.001074 0)
(1.177 -0.113 3.52e-21)
(1.014 -0.2758 -5.49e-22)
(1.062 0.02103 1.052e-21)
(1.126 -0.09099 0)
(1.126 -0.09095 0)
(0.9984 0.0006418 3.138e-21)
(1.111 -0.09282 3.639e-23)
(1.192 -0.001188 -2.306e-21)
(0.6167 -0.1039 2.63e-22)
(1.002 -0.01782 0)
(1.008 0.006021 8.86e-21)
(1.2 0.01308 4.931e-21)
(1.023 0.0425 0)
(0.7103 -0.2237 4.193e-22)
(1.118 -0.283 1.021e-21)
(1.001 0.001469 -4.291e-21)
(0.9333 -0.4185 -2.537e-21)
(0.8332 -0.01209 -2.251e-22)
(0.9344 -0.2199 2.472e-21)
(1.064 -0.0708 -3.701e-23)
(0.5633 -0.1396 0)
(0.7058 -0.222 -7.873e-22)
(1.128 -0.1123 -1.244e-22)
(1.252 0.1017 7.039e-22)
(1.01 -0.2732 0)
(1.219 0.6127 0)
(0.9953 -0.02955 -6.44e-21)
(0.9565 -0.1615 -2.392e-21)
(1.203 0.5917 0)
(0.9382 -0.2238 -4.22e-22)
(1.021 -0.2059 1.831e-21)
(1.05 -0.04338 1.033e-21)
(1.119 0.2822 0)
(1.086 -0.08501 6.604e-23)
(0.7759 -0.2296 6.397e-22)
(1.061 0.02542 0)
(1.001 0.001425 7.875e-21)
(1.145 -0.1968 -1.89e-22)
(0.9731 0.835 0)
(1.131 -0.1303 1.248e-22)
(0.7065 -0.2218 7.294e-22)
(0.7746 -0.2297 0)
(1.145 -0.1751 -1.18e-22)
(0.9982 0.0006441 -2.347e-21)
(0.9011 -0.3531 -2.573e-22)
(1.005 -0.001301 3.533e-20)
(0.3264 -0.3266 -3.397e-21)
(1.24 0.1095 6.407e-22)
(0.9784 -0.2175 7.706e-22)
(0.3534 0.2422 9.166e-22)
(0.9957 0.02194 -1.658e-21)
(1.125 -0.1803 1.169e-22)
(0.9984 0.05461 0)
(1.008 0.006266 -4.658e-21)
(1.023 0.0418 -2.709e-22)
(0.009954 0.05188 1.231e-22)
(1.005 -0.001487 -2.947e-20)
(0.9007 -0.2257 1.231e-21)
(1.029 -0.3634 -5.11e-22)
(1.096 -0.1109 -7.193e-23)
(0.9309 -0.4271 4.804e-21)
(1.023 -0.136 7.574e-23)
(0.7858 -0.2227 0)
(1.03 -0.007686 0)
(1.193 -0.107 -2.856e-22)
(1.1 -0.3142 0)
(0.7873 -0.2328 1.841e-21)
(0.9624 -0.2207 0)
(1.131 -0.103 -7.185e-23)
(0.7105 -0.2234 -2.056e-22)
(-0.007335 -0.02552 -5.93e-22)
(0.7883 -0.2329 -1.935e-21)
(0.949 -0.0771 -1.655e-21)
(0.9539 -0.2183 -2.142e-21)
(0.8411 -0.4644 2.417e-21)
(0.9894 -0.07431 -3.899e-21)
(1.029 -0.194 -2.603e-22)
(0.9904 0.04746 -7.634e-22)
(1.099 -0.1616 0)
(1.006 -0.1981 -1.089e-21)
(1.144 -0.1379 4.895e-22)
(1.295 0.3095 4.493e-22)
(0.007939 0.07879 -2.658e-21)
(1.002 0.0009035 -1.937e-23)
(0.9618 -0.2207 -8.531e-23)
(1.056 0.8329 -7.063e-24)
(1.133 -0.1217 -1.304e-22)
(1.143 -0.2195 3.487e-22)
(1.056 -0.1587 0)
(0.9021 -0.162 0)
(0.5717 -0.4077 -8.823e-22)
(0.5657 -0.1399 0)
(1.111 -0.1018 -1.304e-22)
(1.052 -0.3631 0)
(0.6658 -0.2098 -4.867e-25)
(1.088 -0.09149 1.552e-22)
(1.107 -0.07984 2.783e-24)
(0.6439 -0.3183 2.029e-21)
(0.9967 -0.03042 5.825e-21)
(0.7863 -0.2327 0)
(1.104 -0.2898 -3.826e-22)
(1.18 -0.1133 -7.182e-22)
(0.6503 -0.214 -1.023e-21)
(0.8603 -0.3102 2.638e-21)
(1.356 0.269 -8.045e-23)
(0.9495 0.05596 2.605e-22)
(0.4404 -0.154 1.61e-22)
(1.005 -0.1986 0)
(1.128 -0.1918 -5.789e-22)
(1.088 -0.3025 7.799e-22)
(0.9897 -0.001089 0)
(0.4919 -0.1514 4.631e-24)
(1.263 0.3733 -3.06e-23)
(1.192 -0.1078 -2.773e-22)
(1.124 -0.1134 -2.046e-22)
(0.9558 -0.03346 0)
(1.088 -0.3033 -8.017e-22)
(1.022 -0.04795 5.112e-21)
(0.4708 -0.1348 3.049e-23)
(0.4917 -0.1506 -4.73e-24)
(1.1 -0.3156 -7.879e-22)
(0.7483 -0.2092 0)
(1.046 0.1507 0)
(0.372 0.2593 0)
(1.12 -0.1033 0)
(0.9748 -0.04339 2.119e-22)
(1.13 -0.1519 1.271e-22)
(1.14 -0.1487 -1.175e-22)
(0.953 -0.07561 0)
(0.3949 0.5864 -3.115e-22)
(-0.004791 -0.02934 5.361e-22)
(0.8495 -0.2251 -2.424e-21)
(1.001 1.821e-05 -2.165e-22)
(0.9998 3.589e-06 -5.074e-23)
(0.4411 0.0136 2.313e-24)
(0.9893 0.03112 4.272e-22)
(1.02 0.01311 -1.844e-21)
(0.9263 0.01812 8.851e-22)
(0.8777 -0.03944 2.581e-21)
(0.639 -0.2104 9.497e-26)
(0.003792 0.01867 5.651e-22)
(1.124 -0.08185 2.775e-24)
(1.012 -0.1136 -8.902e-22)
(1.14 -0.1945 -6.455e-22)
(0.8062 -0.05664 -1.303e-20)
(0.9957 0.02137 7.961e-22)
(0.902 -0.133 1.826e-21)
(0.5436 -0.1453 -1.056e-22)
(0.9815 -0.007247 -1.302e-20)
(1.356 0.2724 8.275e-23)
(0.7884 -0.2334 0)
(0.653 -0.01983 3.313e-23)
(0.4413 -0.1556 -9.367e-23)
(1.136 -0.2136 3.316e-22)
(0.9195 -0.2292 0)
(1.013 -0.1126 -6.262e-22)
(1.255 0.3672 -2.104e-23)
(1.003 0.01038 0)
(1.143 -0.2192 -3.865e-22)
(1.149 -0.1324 0)
(1.078 -0.08888 -4.94e-23)
(0.4601 -0.1617 -9.123e-23)
(1.11 -0.2918 2.758e-22)
(1.049 -0.1649 0)
(0.5239 -0.182 -1.674e-22)
(0.7699 -0.2258 4.498e-22)
(0.9452 -0.2231 1.276e-21)
(1.021 -0.0486 -2.276e-21)
(0.6218 -0.1053 0)
(0.0392 -0.03045 -3.759e-22)
(0.9447 -0.2231 -2.904e-22)
(1.07 -0.1048 3.87e-22)
(0.7866 -0.2327 -1.082e-21)
(0.1908 -0.01568 1.626e-22)
(1.021 0.0126 2.858e-21)
(1.12 -0.1561 -4.237e-23)
(1.141 -0.1484 0)
(1.214 -0.08644 9.437e-22)
(0.567 -0.1818 -1.771e-22)
(1.053 -0.3629 -5.156e-22)
(1.13 -0.1276 0)
(0.009864 0.0517 -2.399e-22)
(1.144 -0.2232 0)
(1.164 -0.02099 0)
(0.3352 -0.1019 -6.281e-22)
(0.9987 0.0009012 -2.118e-21)
(1.244 0.2047 0)
(1.08 -0.116 0)
(1.124 -0.2535 0)
(0.9889 -0.2096 0)
(1.128 -0.2726 7.89e-22)
(0.9192 -0.3537 -1.145e-22)
(1.029 -0.007824 0)
(1.347 0.3472 -9.208e-22)
(1.102 -0.2689 4.709e-22)
(0.9156 0.131 -3.943e-22)
(0.8804 -0.2238 5.948e-24)
(0.9981 -0.0505 1.47e-21)
(0.959 -0.1594 6.433e-23)
(0.989 0.04699 0)
(1.174 -0.1066 -1.494e-21)
(1.196 -0.09969 6.375e-22)
(0.7155 -0.2254 9.261e-22)
(0.5486 -0.4193 0)
(0.749 -0.2909 0)
(1.142 -0.08985 -7.372e-22)
(1.125 -0.2111 -9.069e-23)
(0.9888 -0.001137 0)
(0.6585 -0.2047 0)
(1.12 -0.1568 0)
(1.128 -0.08691 0)
(1.13 -0.1515 0)
(0.978 -0.2175 -7.647e-22)
(1.143 -0.1762 1.402e-24)
(0.9807 -0.003681 -5.102e-21)
(1.067 -0.3026 -6.33e-22)
(0.9909 -0.001105 0)
(1.042 -0.03903 0)
(1.13 -0.1301 0)
(0.9896 0.009503 -6.781e-21)
(1.008 0.01997 -1.575e-22)
(-0.01614 -0.03421 4.279e-22)
(0.8449 -0.2345 -5.408e-22)
(0.9965 0.02327 9.096e-22)
(1.139 -0.1562 -1.234e-24)
(0.9529 -0.03408 1.474e-21)
(1.054 -0.1576 -1.649e-22)
(1.068 -0.2027 0)
(1.069 -0.1055 -7.413e-22)
(1.125 -0.2106 0)
(0.9859 -0.01868 1.345e-21)
(0.903 -0.3733 -2.09e-23)
(1.107 -0.09375 0)
(0.3354 -0.1244 -6.493e-23)
(0.5674 -0.1822 3.428e-22)
(1.14 -0.08877 0)
(1.11 -0.1224 -3.451e-22)
(1.046 -0.25 1.562e-21)
(0.934 -0.2787 1.441e-21)
(1.124 -0.18 1.253e-22)
(1.068 -0.08356 -1.263e-22)
(0.7512 -0.4271 -1.059e-21)
(1.139 -0.1941 5.348e-22)
(0.9808 -0.007299 7.983e-21)
(0.8439 -0.204 4.27e-24)
(1.134 -0.1194 -8.814e-25)
(1.144 -0.1706 0)
(0.3349 -0.1675 -7.399e-23)
(1.126 -0.2727 -7.039e-22)
(0.9912 -0.001143 -1.595e-21)
(0.9845 0.01273 0)
(1.311 0.4179 4.138e-23)
(1.06 -0.1676 3.373e-22)
(1.105 -0.116 4.998e-22)
(0.9914 -0.1349 -2.711e-22)
(0.9395 -0.01527 2.384e-21)
(1.026 -0.1602 1.534e-22)
(1.099 -0.0827 -3.661e-24)
(1.028 -0.02538 2.764e-21)
(1.124 -0.253 2.92e-22)
(1.312 0.4178 0)
(1.1 -0.1506 0)
(0.91 -0.03768 -4.486e-21)
(0.4212 -0.0445 -8.376e-23)
(1.101 -0.03649 -2.15e-22)
(1.218 0.4286 1.644e-22)
(0.7333 -0.2159 5.317e-22)
(1.008 0.01964 1.039e-21)
(0.8983 -0.08359 -1.858e-22)
(1.001 1.404e-05 0)
(0.9998 2.807e-06 0)
(0.899 -0.1565 0)
(0.9113 -0.3521 0)
(1.127 -0.1923 0)
(0.7323 -0.2157 -2.579e-22)
(0.8604 -0.234 2.142e-25)
(0.9897 -0.07246 5.206e-21)
(1.137 -0.2131 -6.205e-22)
(1.137 -0.1397 2.847e-22)
(1.131 -0.1505 0)
(0.399 -0.1293 1.38e-21)
(1.139 -0.1559 3.577e-22)
(0.9391 -0.2251 -1.638e-21)
(1.024 -0.2047 -6.886e-25)
(1.12 -0.1339 -4.141e-22)
(1.217 -0.08584 0)
(1.122 -0.129 0)
(0.7209 -0.1717 5.885e-22)
(0.5124 -0.1651 9.886e-23)
(1.131 -0.1509 0)
(0.9332 0.05221 0)
(0.9242 -0.2257 -2.554e-21)
(0.9879 -0.2103 6.312e-22)
(1.294 0.2705 -5.64e-22)
(0.981 -0.01554 1.257e-21)
(1.096 -0.03445 1.329e-22)
(0.6519 -0.1977 1.866e-22)
(1.127 -0.08918 0)
(0.7833 -0.1306 7.654e-22)
(1.113 -0.08508 0)
(1.118 -0.09568 2.632e-23)
(1.004 0.005025 9.762e-23)
(0.9897 0.03039 4.973e-22)
(0.9686 -0.008159 -1.338e-21)
(1.023 -0.1956 3.684e-21)
(0.9831 -0.003418 -1.333e-22)
(0.5872 -0.2146 9.825e-22)
(1.026 -0.02702 -4.234e-21)
(1.098 -0.1199 4.314e-24)
(1.113 -0.08715 0)
(0.9792 -0.04201 -8.818e-21)
(1.01 -0.09671 -1.373e-22)
(1.117 -0.1084 -1.286e-22)
(0.3085 -0.1967 -8.011e-23)
(0.7543 -0.2264 0)
(0.978 -0.004676 -8.148e-22)
(0.8532 -0.1809 -1.2e-21)
(1.055 -0.1377 0)
(1.119 -0.1396 1.7e-22)
(1.046 -0.2532 1.976e-21)
(0.9985 0.05374 0)
(0.9075 -0.0663 8.583e-24)
(0.9845 0.09391 -4.4e-24)
(1.069 -0.05082 -8.126e-23)
(0.8519 -0.2258 2.274e-22)
(0.9552 -0.1919 0)
(1.01 -0.01339 3.864e-21)
(0.8886 -0.2513 0)
(0.4873 -0.1699 2.448e-22)
(1.123 -0.2808 -3.061e-22)
(1.118 -0.1021 0)
(1.095 -0.0836 -3.144e-23)
(0.893 -0.2525 -1.975e-21)
(1.103 -0.07638 1.353e-23)
(0.9314 0.05039 5.172e-22)
(0.9964 -0.04936 -3.973e-22)
(1.048 -0.07984 3.845e-23)
(1.003 0.009955 -2.168e-22)
(0.9738 -0.2162 0)
(0.4738 -0.1348 0)
(0.9888 0.09324 0)
(1.137 -0.1356 -2.907e-22)
(0.7095 -0.2217 0)
(1.132 -0.1081 -6.819e-23)
(0.9999 0.001383 -4.543e-21)
(1.126 -0.1136 9.134e-23)
(0.9328 -0.3944 0)
(1.128 -0.1609 -2.629e-22)
(1.029 -0.1924 0)
(0.6795 -0.2115 0)
(1.026 -0.362 -5.108e-22)
(1.022 -0.2055 -1.363e-21)
(0.8452 -0.2334 6.909e-23)
(1.117 -0.2096 -1.791e-22)
(1.099 -0.1345 1.885e-21)
(1.006 -0.3929 5.992e-22)
(0.6508 -0.214 6.821e-22)
(0.5475 -0.1891 4.068e-21)
(0.7995 -0.2337 0)
(0.9995 0.001015 0)
(0.7696 -0.2262 0)
(0.9609 0.1519 5.154e-22)
(1.092 0.2662 -3.264e-22)
(0.9826 -0.1816 0)
(1.215 -0.08668 0)
(1.009 -0.1324 -6.545e-22)
(1.005 -4.781e-05 4.77e-21)
(0.792 -0.2332 0)
(0.5095 -0.1654 0)
(0.8695 -0.1444 -3.149e-21)
(1.224 -0.04039 2.485e-23)
(1.004 0.004923 0)
(1.141 -0.1691 1.051e-22)
(0.967 -0.2182 -1.412e-21)
(0.9511 -0.03449 -1.516e-21)
(0.9851 -0.01764 1.393e-21)
(0.9943 -0.0008483 -1.92e-20)
(1.118 -0.09312 0)
(0.9437 -0.07875 6.112e-22)
(0.9169 -0.359 2.347e-22)
(0.9627 0.05096 -1.242e-21)
(1.089 -0.08542 -4.876e-23)
(0.9796 0.01327 -1.863e-22)
(0.6861 -0.4541 -2.819e-22)
(0.9657 -0.008802 -5.458e-22)
(0.5434 -0.1437 -9.933e-23)
(0.8806 -0.2307 0)
(1.127 -0.1365 6.483e-26)
(1.136 -0.1353 -9.735e-23)
(1.047 -0.1887 3.107e-21)
(0.894 0.05856 8.51e-22)
(0.625 -0.2057 -4.077e-22)
(1.115 -0.1324 -2.462e-22)
(1.226 -0.07365 1.662e-21)
(0.6473 -0.2106 0)
(1.093 -0.1312 2.991e-21)
(1.131 -0.103 0)
(1.186 -0.1072 8.52e-22)
(0.9348 -0.2048 0)
(0.4261 0.2301 -1.622e-21)
(1.186 -0.108 0)
(0.9925 -0.0005431 4.083e-21)
(1.014 0.0385 -2.046e-23)
(1.047 -0.192 9.862e-22)
(0.8779 -0.2299 1.818e-21)
(0.9995 -6.762e-05 0)
(0.7858 -0.2288 0)
(0.9843 -0.1525 0)
(1.096 -0.1102 2.878e-22)
(1.059 -0.1668 0)
(1.007 -0.1006 0)
(1.008 0.0004581 1.127e-20)
(0.494 -0.365 0)
(0.9862 -0.1502 0)
(0.5595 -0.1942 -6.001e-22)
(1.134 -0.1354 0)
(0.8348 -0.4571 3.009e-21)
(0.6681 -0.4497 4.827e-22)
(1.11 -0.1655 3.701e-22)
(1.125 -0.2729 -6.234e-22)
(0.9279 -0.3854 -3.912e-22)
(1.222 -0.03997 -5.251e-22)
(1.125 -0.1365 -1.378e-22)
(1.018 0.004314 0)
(1.095 -0.09229 -1.702e-22)
(0.9619 0.02964 0)
(1.297 0.4142 2.704e-23)
(1.129 -0.1125 1.682e-22)
(1.151 -0.1355 5.712e-22)
(1.3 0.2937 -5.137e-22)
(0.005386 0.02916 -5.136e-22)
(0.7726 -0.2322 4.612e-22)
(0.4177 0.06918 4.102e-21)
(1.077 -0.08494 -1.276e-21)
(1.016 0.519 -2.422e-22)
(0.9833 -0.001431 0)
(0.8383 -0.4545 -3.029e-21)
(1.015 0.03815 2.305e-24)
(0.5607 -0.1837 -2.311e-22)
(0.8512 -0.2244 -8.228e-22)
(-0.004956 -0.02314 0)
(-0.01638 -0.07499 2.085e-22)
(0.2015 -0.06752 1.154e-22)
(1 -0.0003667 0)
(0.9247 -0.226 8.063e-23)
(1.288 0.02713 0)
(0.985 0.01276 4.289e-23)
(0.6755 -0.2018 4.8e-22)
(1.031 -0.366 2.639e-22)
(0.7176 -0.2255 1.686e-22)
(1.134 -0.1602 0)
(0.8806 -0.2309 0)
(1.127 -0.1365 2.76e-22)
(0.7866 -0.2288 0)
(0.9204 -0.178 -4.855e-22)
(0.994 -0.0003334 -4.085e-21)
(0.5217 -0.1289 0)
(0.2525 -0.09068 -4.978e-22)
(1.001 -0.3993 -7.613e-22)
(1.108 -0.1076 3.247e-23)
(0.4437 -0.1545 0)
(1.005 -0.01661 0)
(1.132 -0.1217 -1.518e-22)
(0.8813 -0.04061 3.199e-21)
(0.9353 -0.2039 0)
(1.006 -0.01497 1.662e-21)
(1.084 -0.08851 0)
(1.28 0.5599 0)
(0.5105 -0.178 1.225e-22)
(0.9994 3.755e-06 -1.055e-21)
(1.047 -0.1927 6.14e-22)
(1.07 -0.12 1.225e-21)
(0.4042 -0.1449 -4.725e-23)
(0.9062 -0.3976 5.391e-22)
(1.341 0.3404 -2.54e-22)
(0.892 -0.2057 0)
(0.9556 0.0201 1.381e-22)
(0.6006 -0.2037 0)
(0.9971 -0.3611 -6.496e-22)
(0.9995 -6.742e-05 0)
(1.047 -0.2518 -2.895e-21)
(1.092 -0.1365 3.155e-21)
(1.109 -0.09422 0)
(1.114 -0.08506 5.628e-24)
(0.8749 -0.2296 -2.003e-21)
(0.6642 -0.2171 1.116e-22)
(0.8519 -0.2253 0)
(1.177 -0.07322 -2.418e-21)
(1.014 -0.3866 9.664e-22)
(0.6902 -0.2213 3.028e-22)
(0.7937 -0.2333 0)
(1.022 -0.00711 6.327e-22)
(1.076 -0.05286 3.748e-23)
(0.8338 -0.2345 0)
(1.126 -0.1696 -3.23e-22)
(1.135 -0.1213 1.393e-22)
(0.5915 -0.1901 0)
(1 0.002835 0)
(0.9997 0.003676 0)
(0.9199 0.1268 -1.979e-23)
(0.9372 -0.2254 2.897e-21)
(0.9905 0.551 0)
(0.9831 0.01518 2.147e-21)
(1.005 0.000715 -2.21e-22)
(0.9971 -0.3489 0)
(0.9738 -0.4179 0)
(0.7017 -0.2206 1.006e-21)
(0.9271 -0.3865 4.981e-22)
(0.6098 -0.2042 2.976e-22)
(0.6336 -0.2073 -2.928e-21)
(1.109 -0.2375 0)
(1.02 0.04086 0)
(1.001 -0.0004429 3.171e-21)
(0.531 -0.1843 -1.448e-22)
(0.8083 -0.2313 4.216e-22)
(1.129 -0.2546 0)
(1.002 -0.0008808 0)
(1.185 -0.0225 0)
(1.134 -0.1136 0)
(0.8671 -0.2336 0)
(0.9782 -0.004554 1.546e-21)
(1.089 -0.135 1.33e-21)
(0.9826 0.01467 1.127e-21)
(0.7107 -0.2216 0)
(0.4786 -0.1221 4.47e-23)
(0.9271 -0.197 -2.616e-21)
(0.9966 0.0001036 2.705e-22)
(0.6707 -0.2187 1.281e-21)
(0.8813 -0.2236 -7.094e-24)
(0.8034 -0.4185 -1.617e-22)
(1.008 0.0004364 -1.118e-20)
(1.145 -0.1752 0)
(0.4419 -0.1559 -1.87e-22)
(0.9944 -0.001105 1.866e-20)
(1.136 -0.1359 2.081e-22)
(0.9898 0.02293 1.125e-22)
(1.12 -0.08638 2.102e-23)
(1.112 -0.1456 0)
(0.9897 0.009087 6.541e-21)
(0.9164 -0.225 2.028e-21)
(1.135 -0.1516 4.074e-22)
(0.2802 -0.1535 2.534e-24)
(1.096 -0.1739 2.851e-22)
(1.097 -0.1599 -8.76e-22)
(1.123 -0.1298 0)
(1.12 -0.1392 0)
(0.4272 -0.2787 -2.127e-21)
(1.123 -0.1038 -3.245e-23)
(1.197 0.5867 -8.003e-24)
(1.124 -0.06152 0)
(0.5245 -0.1731 -1.653e-22)
(1.171 -0.1162 0)
(1.093 -0.09864 0)
(1.003 -0.0008923 -6.412e-21)
(1.136 -0.2383 -9.424e-22)
(0.9873 0.01103 3.895e-21)
(0.408 -0.1077 0)
(1.036 0.006393 2.615e-21)
(1.098 -0.1613 2.528e-23)
(1.005 -6.021e-05 0)
(0.9959 0.02309 -1.654e-21)
(1.114 -0.1014 0)
(1.005 -0.3932 3.022e-22)
(0.9415 -0.225 0)
(1.006 -6.287e-06 5.301e-21)
(1.004 -0.002812 -2.886e-21)
(0.5265 -0.1824 9.307e-25)
(1.315 0.1671 1.464e-21)
(0.94 -0.2211 2.234e-21)
(1.1 -0.09651 -6.424e-23)
(0.6164 -0.1677 0)
(0.9159 -0.3578 -2.537e-22)
(0.8755 -0.2309 0)
(0.9337 -0.3956 1.261e-22)
(1.131 -0.1504 -2.169e-22)
(0.7837 -0.2326 5.517e-22)
(1.192 -0.09925 -1.948e-21)
(1.006 -3.742e-05 2.395e-21)
(1.237 -0.06346 7.806e-25)
(1.125 -0.1532 0)
(1.111 -0.1755 0)
(1.065 -0.1359 -4.54e-22)
(1.001 -0.02902 -9.645e-21)
(1.005 0.0006791 2.082e-22)
(1.099 -0.1497 0)
(0.8412 -0.4675 -4.116e-21)
(1.125 -0.1367 5.902e-23)
(0.4067 -0.1436 -4.591e-22)
(1.037 0.008093 -3.85e-21)
(1.003 0.0005168 -5.291e-22)
(0.7438 -0.2293 -1.024e-21)
(1.184 -0.1164 -1.492e-22)
(0.9279 0.01857 -3.947e-22)
(1.141 -0.138 0)
(1.068 -0.1529 8.5e-22)
(1.019 -0.02878 -1.608e-21)
(0.7561 -0.2302 -1.312e-24)
(1.11 -0.2556 2.188e-22)
(1.125 -0.1527 -3.535e-22)
(0.9155 -0.1929 0)
(0.07397 -0.02495 0)
(0.4624 -0.1621 0)
(0.6482 -0.2106 -9.091e-23)
(0.625 -0.2061 3.745e-22)
(0.8448 -0.2343 0)
(1.106 -0.1682 4.249e-22)
(1.1 -0.1368 -1.338e-21)
(1.094 -0.1727 7.557e-22)
(0.9443 -0.02134 -2.459e-21)
(1.179 -0.119 -5.829e-22)
(0.4207 -0.1464 0)
(0.9735 -0.2158 -1.892e-24)
(1.004 -0.001693 -1.713e-20)
(1.144 -0.1763 -8.144e-22)
(0.9851 -0.2685 -2.29e-21)
(0.6855 -0.08984 3.033e-21)
(0.9994 1.708e-05 2.879e-22)
(1.004 -0.001824 1.454e-20)
(-0.04272 -0.0526 8.086e-23)
(1.077 -0.08404 4.92e-22)
(1.141 -0.2118 0)
(1.128 -0.1561 5.099e-23)
(0.8174 -0.4449 1.313e-21)
(0.8451 -0.2045 -3.246e-21)
(1.152 -0.0289 -2.082e-21)
(1.085 -0.08895 6.694e-23)
(0.7739 -0.06625 0)
(1.118 -0.2916 0)
(1.018 0.003944 8.908e-21)
(1.008 -0.0006188 1.786e-20)
(1.252 0.234 1.594e-22)
(0.968 0.1501 0)
(1.027 -0.1965 -2.527e-21)
(0.6915 -0.09736 -5.599e-21)
(0.9909 -0.4073 3.449e-21)
(0.6434 -0.1845 6.372e-22)
(0.997 -0.4029 8.837e-22)
(0.9057 -0.1307 0)
(0.7881 -0.1303 0)
(0.9965 0.0001728 0)
(1.088 -0.07764 1.768e-23)
(1.009 -0.1004 0)
(1.131 -0.2582 -7.035e-22)
(-0.01092 -0.03863 -1.295e-22)
(1.143 -0.1729 2.931e-22)
(1.174 -0.1056 9.186e-22)
(0.7551 -0.2261 0)
(0.9964 0.0001084 -2.483e-22)
(1.135 -0.1216 -1.8e-22)
(1.12 -0.09979 6.366e-23)
(0.4886 -0.1698 -6.736e-22)
(0.7072 -0.1262 -4.808e-22)
(0.9573 -0.2073 1.435e-24)
(1.13 -0.1506 0)
(1.059 0.8246 2.979e-23)
(0.8443 -0.2336 -1.037e-21)
(0.8601 -0.4496 0)
(0.6847 -0.1805 9.331e-22)
(1.129 -0.2724 0)
(1.134 -0.1212 8.638e-23)
(1.134 -0.1196 8.299e-23)
(0.786 -0.2223 6.095e-22)
(1.086 -0.1898 3.471e-22)
(0.1038 -0.004161 -4.971e-23)
(0.984 -0.2706 2.058e-21)
(0.9488 0.05409 -2.645e-22)
(1.135 -0.2504 2.528e-22)
(0.9641 -0.4023 4.246e-22)
(1.131 -0.1172 0)
(1.011 -0.0002994 1.997e-20)
(0.4495 -0.1398 -4.52e-23)
(0.7239 -0.1714 6.387e-22)
(0.7016 -0.2203 3.077e-22)
(1.002 0.0005144 4.098e-22)
(0.4039 -0.1445 6.351e-22)
(0.8004 -0.2338 7.216e-25)
(1.091 -0.1327 8.78e-22)
(0.9958 0.0002031 -1.312e-21)
(1.092 -0.1732 0)
(0.5498 -0.1837 -6.425e-23)
(1.036 -0.1978 2.714e-21)
(1.167 -0.13 2.138e-22)
(0.9958 0.0001784 -1.252e-21)
(0.7174 -0.221 4.411e-22)
(0.4207 -0.1487 0)
(0.8494 -0.2319 0)
(0.9965 -0.2083 -7.775e-22)
(0.988 0.03304 4.037e-22)
(1.138 -0.1391 1.277e-22)
(0.2716 -0.1853 3.311e-21)
(1.026 0.001438 0)
(1.139 -0.2043 0)
(1.102 -0.2225 5.263e-22)
(1.107 -0.1677 -8.273e-22)
(0.7725 -0.232 4.181e-22)
(1.043 -0.2483 1.484e-21)
(1.143 -0.1731 -2.771e-22)
(1.067 -0.1356 7.914e-22)
(0.7184 -0.2258 8.569e-22)
(0.999 2.634e-05 -8.09e-22)
(0.7165 -0.2209 -5.623e-22)
(0.7044 -0.2023 0)
(1.038 -0.07854 0)
(1.131 -0.1628 2.356e-22)
(1.089 -0.07278 0)
(0.6757 -0.201 0)
(0.6667 -0.2176 2.592e-22)
(0.9992 3.904e-06 1.001e-21)
(0.7182 -0.2255 0)
(0.7558 -0.2304 -1.262e-25)
(1.129 -0.1386 5.178e-23)
(0.072 -0.07407 3.716e-22)
(1.129 -0.1381 -1.029e-22)
(0.5113 -0.1783 -5.7e-23)
(1.024 -0.2037 -6.868e-22)
(0.5579 -0.175 0)
(1.107 -0.2455 1.31e-22)
(1 -0.0003428 0)
(0.04101 -0.01717 2.846e-22)
(0.8166 -0.2342 4.718e-22)
(1.096 -0.1737 0)
(0.5286 -0.185 0)
(0.6625 -0.2127 0)
(0.6287 -0.2101 3.37e-22)
(0.7179 -0.226 -1.366e-22)
(1.113 -0.09307 -3.297e-23)
(1.001 -0.0003872 -5.416e-21)
(0.7099 -0.1553 0)
(1.132 -0.137 1.762e-22)
(0.9965 0.0001984 -9.544e-23)
(0.7366 -0.2284 1.068e-21)
(1.297 0.4122 -1.447e-23)
(1.144 -0.1706 -2.064e-22)
(1.039 -0.356 -4.186e-22)
(1.006 0.0001982 -1.544e-21)
(0.8759 -0.2305 0)
(0.4926 -0.1542 7.89e-23)
(1.018 0.004388 0)
(1.007 0.0002022 -1.36e-20)
(1.063 -0.1378 4.621e-22)
(0.7401 -0.2098 -8.659e-22)
(0.6171 -0.1685 -2.83e-22)
(0.6159 -0.2073 0)
(0.7069 -0.2208 0)
(0.8292 -0.03213 1.424e-23)
(1.135 -0.146 1.96e-22)
(0.8234 -0.2215 2.232e-21)
(1.004 -0.001781 1.81e-20)
(0.7531 -0.2289 0)
(0.6438 -0.2119 0)
(1.097 -0.08087 -5.65e-25)
(1.076 -0.08476 8.389e-23)
(0.8588 -0.3053 -3.021e-23)
(1.001 0.0007177 -6.43e-22)
(1.006 -0.01582 0)
(0.983 -0.01794 -2.302e-21)
(1.202 0.007376 -1.347e-21)
(1.004 -0.001644 -1.628e-20)
(0.9021 -0.1236 0)
(0.7869 -0.4733 0)
(1.14 -0.1422 -1.182e-22)
(1.082 -0.1487 1.368e-23)
(0.9914 -0.003674 -7.261e-22)
(0.5204 -0.1477 8.182e-23)
(1.139 -0.1356 -2.077e-22)
(1.003 0.01245 3.185e-22)
(1.12 -0.1336 3.646e-22)
(1 -9.923e-05 4.316e-21)
(0.8813 -0.433 3.377e-22)
(0.2314 -0.3019 1.09e-21)
(1.124 -0.1571 -5.144e-22)
(1.151 -0.1132 0)
(1.045 -0.04846 8.598e-23)
(0.9924 -0.02825 -6.317e-21)
(0.8665 -0.2304 9.62e-22)
(0.9178 -0.2077 -2.772e-21)
(1.086 -0.08866 0)
(0.4038 -0.1517 6.796e-23)
(1.114 -0.1473 0)
(0.6922 0.8998 2.865e-22)
(1.09 -0.0693 0)
(1.106 -0.1988 1.039e-21)
(0.9424 -0.3351 7.277e-22)
(0.6942 -0.1309 6.239e-22)
(1.001 0.01531 -2.079e-21)
(1.008 -0.1734 3.714e-21)
(1.074 -0.3432 5.553e-22)
(1.352 0.2315 0)
(0.421 -0.1472 0)
(1.023 -0.169 -1.434e-21)
(1.002 0.0007233 0)
(0.8667 -0.09119 0)
(0.5307 -0.1839 2.846e-22)
(1.079 -0.2481 -1.679e-21)
(1.009 -0.06153 -7.748e-21)
(1.315 0.08965 0)
(0.2482 -0.3048 0)
(1.341 0.1453 -1.364e-21)
(0.8418 0.05839 -3.067e-21)
(0.9329 -0.227 1.817e-21)
(0.538 -0.1873 0)
(0.7134 -0.155 -4.316e-22)
(0.9379 -0.07513 -6.962e-24)
(1.014 0.04836 0)
(1.144 -0.164 -6.137e-22)
(1.004 0.0004862 -1.206e-21)
(0.9967 9.7e-05 -1.824e-21)
(1.09 -0.1697 4.974e-22)
(1.04 0.01637 -7.356e-21)
(1.139 -0.1487 6.311e-22)
(0.664 -0.07985 1.441e-21)
(0.3577 0.2164 -8.181e-22)
(1.121 -0.1146 3.352e-22)
(0.9688 -0.05616 3.734e-21)
(1.309 0.4457 3.08e-22)
(1.134 -0.2547 -6.333e-22)
(1.01 -0.01297 0)
(0.7673 -0.1647 0)
(0.6738 -0.2179 -1.469e-22)
(0.9721 -0.05429 -5.884e-21)
(0.9393 -0.2168 -2.365e-21)
(0.3502 -0.135 4.102e-21)
(0.4736 -0.1015 -4.348e-22)
(1.133 -0.2259 0)
(0.3434 -0.34 5.999e-22)
(0.9936 -0.1972 -1.613e-24)
(0.6079 -0.2052 0)
(0.9869 0.000986 7.161e-21)
(1.152 -0.1345 -7.078e-22)
(1.132 -0.2584 0)
(0.9826 -0.01549 -4.125e-22)
(0.9063 -0.2263 0)
(0.8252 -0.2344 0)
(0.7615 -0.2095 -7.493e-22)
(0.9995 -7.1e-05 0)
(0.9557 -0.01126 7.078e-21)
(0.8017 -0.1694 0)
(0.7369 -0.03063 0)
(1.023 -0.3327 0)
(0.3522 -0.1331 0)
(0.812 -0.23 -6.041e-22)
(0.9444 -0.3984 -1.379e-22)
(1.136 -0.2464 0)
(0.4214 -0.1503 0)
(1.211 -0.0924 0)
(0.9969 7.674e-05 -9.617e-22)
(0.8206 -0.4792 2.345e-21)
(1.159 0.1492 8.289e-22)
(1.005 0.0004867 -3.757e-22)
(0.9469 -0.3586 0)
(0.2811 -0.1035 -8.281e-23)
(0.901 -0.19 1.093e-21)
(1.315 0.06714 -1.493e-21)
(1.126 -0.07889 0)
(1.13 -0.1733 -3.914e-22)
(0.3888 -0.1384 -3.053e-22)
(0.5795 -0.03463 0)
(1.122 -0.1156 -3.956e-22)
(1.02 0.04133 7.892e-22)
(0.995 0.008617 0)
(1.135 -0.2141 -3.553e-22)
(0.8907 -0.387 -7.486e-22)
(0.6832 -0.2207 -8.379e-22)
(0.9418 -0.2205 2.283e-21)
(0.3508 0.4052 0)
(0.9857 -0.4104 -1.465e-21)
(0.9474 -0.02673 0)
(1.071 -0.03082 0)
(0.9872 -0.4108 1.471e-21)
(0.9851 -0.0804 2.262e-21)
(1.187 -0.07222 -2.592e-21)
(1.011 0.001146 -1.004e-20)
(0.6769 -0.2132 0)
(0.2306 -0.1594 -1.216e-22)
(1.031 -0.1947 0)
(0.8371 -0.234 9.648e-22)
(0.8037 -0.2311 -3.35e-22)
(0.9911 0.006335 -1.173e-20)
(0.9675 0.009732 1.799e-21)
(0.5451 -0.1904 0)
(1.027 -0.2122 0)
(0.582 -0.1981 -2.29e-22)
(1.135 -0.1483 0)
(0.5856 -0.201 0)
(0.635 -0.1946 0)
(1.122 -0.1336 0)
(1.274 -0.008829 1.755e-22)
(1.195 -0.1054 6.627e-22)
(0.6446 -0.09435 8.249e-22)
(1.129 -0.1475 -3.272e-22)
(1.09 -0.08194 -5.893e-24)
(0.78 -0.2311 0)
(1.136 -0.1381 -3.292e-22)
(0.673 -0.2045 0)
(0.4151 0.5903 0)
(0.6379 -0.2128 -1.927e-23)
(0.2441 -0.1755 -5.556e-23)
(0.312 -0.1118 -1.787e-22)
(0.8008 -0.2312 0)
(1.011 -0.0002425 -5.197e-21)
(1.009 -0.003726 7.075e-21)
(0.7233 -0.2204 -4.378e-22)
(0.616 -0.201 0)
(1.115 -0.1785 0)
(1.001 1.721e-05 4.959e-21)
(0.9075 -0.4053 1.137e-21)
(0.876 -0.231 0)
(1.115 -0.09701 3.301e-22)
(0.6148 -0.2076 -4.162e-22)
(1.104 -0.1447 6e-22)
(0.7404 -0.228 1.288e-24)
(1.113 0.4192 -9.335e-23)
(0.9999 0.001365 4.21e-21)
(1.089 -0.1864 -6.815e-22)
(1.11 -0.08089 -5.069e-23)
(1.001 -0.3895 2.28e-21)
(1.068 -0.08249 2.103e-23)
(0.5318 -0.1767 0)
(0.8681 -0.2716 -1.481e-21)
(0.9922 -0.1771 0)
(1.048 -0.1887 -1.358e-21)
(1.117 -0.1018 -1.546e-22)
(1.13 -0.095 -2.181e-23)
(0.6618 -0.1875 2.896e-22)
(0.9213 -0.4117 -9.123e-23)
(1.135 -0.1298 4.212e-22)
(0.6468 -0.2132 5.249e-22)
(0.9758 -0.4228 1.759e-21)
(0.9855 -0.02043 0)
(0.576 -0.2155 3.81e-22)
(0.3961 -0.1422 -5.252e-23)
(0.7049 -0.2016 5.068e-23)
(1.104 -0.1699 -9.831e-22)
(0.3092 -0.323 -2.626e-21)
(1.006 0.02696 -2.389e-22)
(0.5279 -0.1363 -4.051e-21)
(0.671 -0.1281 0)
(0.9957 -0.0004348 4.76e-21)
(1 -3.632e-05 0)
(1.154 -0.1355 0)
(0.9417 -0.2244 -3.385e-21)
(0.2595 -0.09642 -1.707e-22)
(0.3912 -0.1442 -2.824e-23)
(1.144 -0.1638 4.318e-22)
(1.032 -0.3804 0)
(0.6747 -0.219 -1.208e-21)
(1.096 -0.1824 0)
(1.112 -0.1461 -1.982e-22)
(0.9966 -0.03421 0)
(0.6843 -0.2205 -2.079e-21)
(0.5559 -0.1008 0)
(0.685 -0.2211 -1.942e-22)
(1.118 -0.2249 7.705e-22)
(0.406 -0.1442 0)
(0.6829 -0.2187 -7.78e-22)
(0.9921 -0.002244 2.043e-21)
(0.6618 -0.08741 -5.803e-22)
(0.5513 -0.1869 -1.837e-22)
(0.9997 -0.001343 -2.849e-20)
(1.11 -0.1656 6.475e-22)
(0.995 -0.0004278 -9.514e-22)
(0.9883 -0.003175 1.49e-20)
(1.14 -0.1523 0)
(1.04 -0.1631 6.316e-22)
(0.9372 -0.09997 6.382e-21)
(0.9988 -0.00331 -3.516e-21)
(1.12 -0.1333 3.806e-22)
(1.007 0.008948 0)
(1.293 0.4375 -1.27e-22)
(1.036 -0.1486 -1.343e-21)
(0.7513 -0.152 0)
(1.133 -0.1296 -1.271e-22)
(1.138 -0.2206 1.261e-21)
(1.138 -0.1641 5.718e-22)
(0.745 -0.2272 -5.028e-23)
(1.136 -0.1246 0)
(0.9991 -0.00335 1.503e-20)
(1.026 -0.05261 -4.521e-22)
(1.037 -0.1923 0)
(1.144 -0.2111 6.529e-22)
(0.6214 -0.209 0)
(0.7015 -0.2233 0)
(0.9896 -0.07263 -1.278e-23)
(0.6879 -0.2211 1.445e-21)
(0.4227 -0.1348 -4.106e-21)
(1.095 -0.1744 -1.639e-21)
(1.11 -0.3044 0)
(1.288 0.01512 1.915e-21)
(1.12 -0.1167 0)
(1.068 -0.1317 -1.294e-21)
(0.8853 0.2352 0)
(0.7292 -0.1612 -4.128e-22)
(0.9701 -0.01538 2.935e-21)
(1.017 -0.2042 -3.353e-21)
(0.4584 -0.1493 -6.298e-23)
(1.113 -0.1904 1.327e-21)
(0.9964 0.000363 0)
(0.7132 -0.4648 1.518e-21)
(0.8565 -0.2282 4.811e-22)
(1.13 -0.1075 -1.812e-23)
(1.107 -0.2994 0)
(1.134 -0.1499 6.396e-23)
(1.122 -0.1395 5.236e-25)
(0.9673 -0.2092 -3.133e-21)
(0.8738 -0.218 0)
(1.13 -0.1076 1.78e-23)
(0.5218 -0.1784 0)
(1.106 -0.2994 0)
(0.4008 -0.1524 -6.487e-23)
(0.9962 -0.0009833 -1.045e-21)
(1.129 -0.08948 0)
(1.032 -0.1973 0)
(0.9884 -0.02508 1.471e-21)
(0.9958 -0.2116 -2.402e-21)
(1.162 -0.1247 -2.171e-21)
(0.9999 2.576e-06 -9.929e-22)
(1.11 -0.2335 0)
(0.4618 -0.1554 -2.56e-23)
(1.013 -0.06527 0)
(0.9014 0.2367 -7.674e-22)
(1.004 -0.1911 1.307e-21)
(0.459 -0.04876 0)
(1.08 -0.1583 0)
(1.001 2.292e-05 0)
(0.9406 -0.2257 4.695e-22)
(0.801 -0.2333 -8.819e-22)
(1.018 -0.003262 -2.544e-22)
(0.9477 0.2066 -4.554e-22)
(1.043 0.03043 0)
(0.8675 -0.2314 2.007e-22)
(0.8783 -0.2317 0)
(1.137 -0.193 5.323e-22)
(0.9789 -0.05202 4.904e-21)
(0.4248 -0.1488 -3.205e-23)
(0.3337 -0.1207 4.319e-22)
(1.137 -0.2385 7.948e-22)
(1.142 -0.1767 -5.495e-22)
(0.7678 -0.2243 7.072e-22)
(0.9428 -0.07395 8.37e-26)
(0.9961 0.0004191 1.261e-21)
(1.129 -0.1159 1.434e-22)
(1.008 0.01144 -2.686e-21)
(0.779 -0.2316 0)
(0.8475 -0.4034 0)
(1.058 -0.1909 -9.544e-22)
(1.107 -0.2988 1.752e-21)
(0.3942 -0.158 1.869e-23)
(1.011 -0.1678 0)
(0.9988 0.005636 -7.985e-23)
(0.2334 -0.08284 0)
(0.7164 -0.225 0)
(0.7862 -0.2298 0)
(1.13 -0.1 -8.988e-23)
(1.347 0.3471 -5.768e-22)
(0.848 -0.2205 -1.62e-21)
(0.7159 -0.1307 0)
(1.068 -0.08301 0)
(1.143 -0.1558 1.773e-22)
(0.895 0.004737 1.17e-21)
(0.4469 -0.03194 -1.284e-22)
(0.6087 -0.201 -2.061e-22)
(1.109 -0.08285 9.548e-24)
(1.124 -0.2346 1.279e-21)
(1.142 -0.169 4.839e-23)
(0.7553 -0.4497 0)
(0.4264 -0.06455 8.149e-23)
(0.5605 -0.1913 -6.012e-23)
(1.146 -0.19 -2.766e-22)
(0.7056 -0.2244 0)
(1.154 -0.1115 1.463e-21)
(1.126 -0.1361 -3.159e-22)
(1.119 -0.1132 -2e-24)
(0.8936 -0.1922 0)
(0.3637 -0.1403 0)
(1.078 -0.09778 1.408e-21)
(1.14 -0.2388 -5.897e-22)
(1.068 -0.1192 -6.278e-22)
(1.134 -0.1894 -1.77e-21)
(0.9997 3.526e-06 -1.061e-21)
(1.007 0.0004178 0)
(1.08 -0.1591 1.111e-21)
(0.9124 -0.06341 0)
(0.6901 -0.2168 6.494e-23)
(0.9266 -0.02474 -6.05e-21)
(0.5878 -0.127 0)
(0.5849 -0.2006 -3.554e-22)
(0.9935 0.01001 -1.478e-20)
(1.338 0.1893 3.543e-22)
(1.142 -0.152 2.763e-22)
(1.129 -0.1273 1.667e-22)
(-0.01075 0.026 9.264e-23)
(1.068 -0.2885 2.314e-22)
(0.6182 -0.2059 -1.215e-22)
(0.09768 -0.03199 -1.508e-22)
(0.7696 -0.1656 9.027e-22)
(0.563 -0.1936 -2.437e-21)
(0.7497 -0.2213 -1.062e-21)
(1.139 -0.1407 -3.434e-23)
(1.122 -0.1146 -2.223e-21)
(1.14 -0.1628 0)
(1.087 -0.09337 0)
(0.9424 -0.3828 0)
(1.08 -0.1789 2.508e-21)
(1.061 -0.07792 -8.363e-22)
(0.7869 -0.1098 0)
(1.144 -0.08932 0)
(0.7773 -0.2323 0)
(1.112 -0.2608 -9.356e-22)
(1.124 -0.08766 0)
(0.6394 -0.1856 0)
(0.3692 -0.1346 0)
(0.6395 -0.2011 1.944e-22)
(1.099 -0.156 3.926e-22)
(0.5943 -0.1744 0)
(1.09 0.3154 2.974e-22)
(1.141 -0.04066 9.25e-22)
(1.139 -0.1786 1.922e-22)
(0.3672 -0.1391 3.908e-21)
(1.027 0.07223 3.404e-22)
(1.266 0.03982 0)
(0.7515 -0.2239 0)
(0.6351 -0.2109 -2.149e-22)
(0.7118 -0.2246 -2.839e-22)
(1.007 0.008843 3.327e-22)
(0.7359 -0.2156 0)