/*--------------------------------*- C++ -*----------------------------------*\
  =========                 |
  \\      /  F ield         | OpenFOAM: The Open Source CFD Toolbox
   \\    /   O peration     | Website:  https://openfoam.org
    \\  /    A nd           | Version:  8
     \\/     M anipulation  |
\*---------------------------------------------------------------------------*/
FoamFile
{
    version     2.0;
    format      ascii;
    class       volScalarField;
    location    "30";
    object      k;
}
// * * * * * * * * * * * * * * * * * * * * * * * * * * * * * * * * * * * * * //

dimensions      [0 2 -2 0 0 0 0];

internalField   nonuniform List<scalar> 
127143
(
2.464e-13
9.895e-13
1.773e-11
9.139e-11
3.922e-11
9.691e-11
1.219e-09
2.205e-10
1.109e-10
1.84e-10
1.902e-09
3.063e-10
1.332e-10
1.59e-10
0.0001485
4.779e-09
6.753e-11
0.06504
0.03686
5.434e-08
0.01099
2.63e-06
0.0001534
3.699e-05
2.371e-06
2.031e-06
4.927e-07
5.741e-07
1.264e-06
0.06969
2.548e-05
2.133e-06
4.562e-07
5.267e-05
0.0001506
4.423e-07
0.008803
0.05103
5.02e-05
1.855e-06
0.03707
0.0001524
0.000152
1.001e-09
0.06371
6.047e-05
1.141e-06
0.01491
2.784e-05
4.931e-05
1.11e-08
0.0001492
0.01682
0.0001534
0.0001395
1.651e-05
0.0001394
0.0001659
0.0001468
0.0001533
0.0001522
0.02143
5.897e-05
0.0001482
0.0004778
0.0001563
0.0001508
6.035e-05
6.02e-05
0.0002552
3.402e-05
1.029e-06
0.03663
0.0001468
0.0001458
1.183e-06
0.0001471
0.006951
1.638e-05
0.000149
1.136e-06
5.28e-08
0.0003571
3.855e-06
0.03247
0.008302
5.31e-05
1.922e-07
0.0001555
0.0001301
0.0001469
0.007044
0.0001835
0.01112
0.004848
0.0001711
0.0001523
1.284e-05
0.009421
0.0001507
0.0001489
2.917e-05
4.744e-05
0.0001424
0.008682
0.009106
4.647e-05
0.0002563
0.0001591
0.0001424
0.0001679
1.687e-07
0.008097
0.000157
0.0001454
0.0001649
0.0001472
0.0001459
0.000147
1.844e-07
0.0001425
0.0004166
0.0001378
0.0001607
1.305e-06
7.2e-07
0.01633
0.0001481
0.007341
1.417e-05
0.004604
0.004151
5.949e-05
0.007129
2.203e-09
0.004807
0.000155
0.01442
3.457e-06
0.000153
0.0001537
0.0001465
0.01759
0.02259
0.01737
0.0001842
4.976e-06
0.0001483
0.003877
2.554e-05
0.000115
3.267e-05
0.0506
0.0001514
0.0002119
0.03256
0.000166
1.385e-05
0.01517
7.493e-06
4.149e-05
8.005e-09
0.0001469
0.004629
2.962e-06
0.000717
0.006146
0.0001543
1.875e-05
0.0001486
0.002417
0.02242
0.0001631
0.0001473
0.0007855
0.02329
0.0001775
0.007452
4.198e-05
0.0001556
0.0001476
0.0001548
0.02439
0.02351
1.469e-05
0.02195
0.000151
0.0001568
4.122e-05
0.0001544
0.009247
0.005901
0.0001546
0.0001998
1.147e-09
0.01728
0.0001287
0.000128
6.109e-09
0.0001456
0.0001451
0.0001488
0.01091
0.00951
7.135e-10
6.45e-05
0.0001526
0.0001149
0.06731
0.0001454
0.0004347
0.03064
0.0001447
1.99e-05
0.002812
1.927e-09
0.0003014
0.00012
0.005943
0.0001527
0.0001714
0.0001462
3.252e-05
0.01994
7.105e-06
0.001633
6.287e-06
0.0521
0.004301
0.01265
0.01046
0.0001547
0.03689
2.143e-06
0.01059
0.0001564
0.004621
6.708e-12
0.0001451
0.01053
0.006221
0.0005984
0.02167
1.381e-05
0.04511
2.18e-07
4.219e-05
6.865e-07
1.151e-07
0.0003113
0.0001574
2.387e-06
0.0001216
0.01526
2.405e-05
0.0001601
0.0001481
3.406e-05
0.0001658
0.0001504
0.01786
0.0001515
0.003439
0.0001464
0.02443
0.0005416
0.001112
0.0001988
0.0001538
0.000333
4.996e-06
0.0007757
0.01836
0.01011
5.771e-05
0.009773
0.008264
3.526e-05
0.001526
0.0001714
0.0002617
0.0001921
0.0001428
0.0001455
0.0001454
1.021e-09
0.004353
0.0001454
3.572e-05
0.0001561
0.04999
0.0001563
0.0001563
0.0001614
0.0001451
0.0001668
2.58e-05
0.01336
0.02158
0.0002885
1.055e-05
0.0001571
0.0001537
0.0001655
5.495e-06
0.000193
0.000115
0.0001448
0.03396
8.216e-05
4.482e-05
0.005217
1.212e-05
0.0002238
0.0001453
0.0001405
0.042
1.078e-05
0.0001585
0.008389
0.0001532
3.29e-05
0.0001509
0.0001212
0.0001352
0.03624
0.0001498
0.01541
3.514e-05
0.0001691
0.01697
0.0001454
0.0001506
0.0001287
0.0001281
0.0001513
0.0001593
0.0001632
0.01697
0.003798
0.000153
0.0001197
0.01988
0.01059
0.0001596
3.56e-05
0.001241
0.007011
1.164e-05
0.00419
1.578e-05
0.03534
0.02094
0.01013
0.000149
0.001476
0.015
0.0001793
0.0001483
3.442e-05
0.02194
5.77e-05
0.06079
5.337e-05
4.988e-05
0.0001468
0.0001456
0.0046
0.000391
0.001501
0.0001538
0.0001509
4.591e-06
4.94e-05
0.0001537
0.000153
2.597e-05
8.406e-06
0.01043
0.001632
0.05755
9.732e-07
1.73e-05
0.0001569
0.0001472
1.003e-07
0.0001499
2.304e-06
0.01663
0.04888
0.0001458
0.0001526
0.003412
2.65e-05
4.096e-05
2.39e-05
0.0001527
3.296e-05
0.000149
0.0001513
3.169e-06
0.0001462
0.01208
0.02483
0.0001499
9.998e-05
0.00938
6.058e-05
0.000149
4.618e-05
0.000181
1.067e-05
0.0001538
0.01519
0.0001531
0.005061
0.007934
4.642e-06
0.03935
5.86e-05
0.006471
1.011e-05
0.002186
0.0002545
0.01233
0.0001505
0.0001519
0.0001524
0.0007969
0.0001526
0.0001412
0.002174
0.01986
0.01589
0.001435
0.0001468
0.0001009
0.001639
0.0001491
0.0001451
0.0001453
5.37e-05
0.0001551
0.0001616
0.0001478
1.37e-05
0.0001453
0.0001455
0.004993
0.03075
0.01031
2.152e-05
0.0001077
0.0002478
0.0001498
0.01188
9.287e-06
0.0008911
0.01116
0.01073
6.347e-05
0.01306
0.0318
0.0001539
0.01233
0.0005924
0.000146
0.01328
0.0007986
0.0001386
0.01127
0.001051
0.0001608
0.04405
0.0001525
0.0001347
0.0002174
0.0006367
0.001846
0.0291
1.568e-06
0.0001594
0.001083
1.252e-05
0.0001784
0.001408
0.03651
0.0001446
1.221e-05
0.0001466
0.0001803
5.472e-05
0.01484
0.0001848
6.867e-09
0.003968
0.0001543
0.0001589
0.0001548
0.0001448
1.309e-06
0.0001461
0.0193
0.01798
3.683e-11
9.979e-09
1.336e-07
0.000147
0.001564
0.001095
0.0001453
0.02129
0.0001156
0.004622
0.0001453
0.00999
2.143e-05
0.01136
7.756e-06
0.0005074
0.03023
6.102e-07
4.64e-05
1.215e-05
0.003216
0.0001464
0.0001188
0.00655
0.03337
0.0001459
9.871e-06
9.553e-06
0.002824
0.0001303
0.01314
0.0001559
0.001441
0.0001809
1.105e-05
0.0347
0.0001467
0.003542
0.0001772
0.0001387
0.000157
0.03004
3.089e-05
5.364e-05
0.0006809
0.0002445
0.0171
0.001117
7.316e-05
0.005547
0.002342
0.000146
3.249e-06
0.005388
8.234e-06
5.693e-05
0.02042
0.0001483
0.0001479
0.0001503
0.001161
0.0001561
0.0001453
0.0001472
0.0001719
2.632e-05
0.009572
0.0001784
0.0002551
7.172e-06
0.0001681
0.0001467
0.0001426
0.002147
0.009913
8.183e-05
0.0001615
1.467e-06
6.332e-05
0.002918
0.001602
4.106e-06
0.0001453
0.009862
0.02637
0.04512
0.0001406
0.001219
0.01796
8.807e-08
0.0001346
4.768e-05
0.0003362
0.0001453
0.0001003
0.0001454
6.339e-05
0.03226
0.0001455
0.0005536
2.29e-05
0.006298
0.004846
0.02141
1.65e-05
1.786e-05
0.000186
5.315e-05
0.0001971
5.568e-05
0.01829
0.01783
7.617e-06
0.0001509
1.567e-05
0.0001454
0.0001577
0.0001482
0.01862
0.0001413
0.0001454
0.0001662
5.952e-05
0.008446
0.0001386
0.0001411
0.005007
1.112e-06
0.0006783
1.45e-05
0.03082
0.0001612
0.01035
0.0001808
0.0109
0.001428
0.0002248
0.0001387
0.001578
0.01115
0.0001637
0.003443
0.0001472
0.0001469
0.04026
4.912e-06
0.03644
2.6e-05
0.0001481
0.0001568
0.00369
0.0031
0.0001487
0.00101
0.0001556
0.0001629
0.0006663
0.0001641
0.01175
0.0001518
1.684e-09
0.002037
0.01134
0.01177
0.004458
0.002603
5.285e-06
0.001036
0.0001486
0.009138
0.01599
0.01246
0.0001416
3.615e-05
0.0001546
0.0001515
0.0001302
0.0001415
4.323e-06
0.0001589
1.909e-05
0.004058
0.0001535
0.03382
0.0001559
1.018e-05
0.0001509
2.638e-05
0.0001446
0.0001393
0.0001586
0.0001506
0.0005227
0.0001516
6.897e-06
0.02726
3.628e-05
0.0002363
0.0611
0.0001554
1.719e-05
0.0001525
2.169e-05
2.145e-09
7.442e-05
0.02658
0.01085
0.0001433
5.338e-05
4.79e-05
1.35e-05
0.04713
0.0254
0.01088
3.25e-05
0.007798
7.134e-05
0.03006
3.073e-05
5.244e-05
8.271e-05
0.0167
0.0001581
4.902e-13
0.0001545
0.0001486
5.535e-05
0.0001373
5.296e-05
0.000144
0.02121
0.0357
0.009731
0.000162
2.136e-05
0.002436
4.369e-06
0.0001793
0.0008595
0.01604
0.001833
0.006689
0.0001645
0.01147
0.005322
0.0005258
0.01475
0.0001457
0.02025
0.0002322
0.0001457
0.0001167
0.0001645
0.002868
0.004026
0.0001564
7.435e-05
1.886e-06
0.001504
0.0001278
0.01141
0.0226
2.543e-06
1.151e-05
0.0001538
0.02165
0.0002988
0.0001282
0.004865
0.000707
0.02764
4.114e-06
0.02862
0.003034
0.009735
0.02399
0.0001683
0.0001469
6.834e-10
0.004755
0.005278
0.0006109
0.01176
0.003043
0.002971
4.257e-05
0.0001424
0.03931
0.0001433
0.0001594
0.00228
0.0001804
4.617e-05
0.0001346
0.0001363
0.01079
0.02227
0.0001446
0.0001359
0.003598
0.02109
0.03066
0.003822
0.01012
1.397e-08
0.0001315
0.000152
0.0001417
0.007177
0.007448
2.896e-05
7.717e-06
0.000154
0.0002125
0.0001462
0.002287
7.911e-07
0.0001419
0.0001984
1.23e-05
5.297e-05
1.488e-06
0.0001529
0.02809
5.144e-05
0.0001459
1.168e-05
0.0001416
0.0001382
1.367e-05
0.002046
0.03638
9.107e-07
0.0001463
0.0005975
0.000152
1.052e-05
0.01216
6.178e-06
3.186e-05
0.0001537
0.0001632
0.000158
1.735e-08
0.0001457
0.05466
1.991e-05
5.106e-05
0.01567
2.268e-07
0.0002072
0.0008945
0.002118
1.654e-06
7.523e-07
0.0001717
6.442e-09
9.839e-05
1.47e-09
0.00406
0.0007258
0.03977
2.152e-07
0.0001471
4.384e-05
0.0001391
0.0001387
0.01492
0.0001492
0.007154
0.04335
0.0001564
0.0001627
0.0001546
0.000115
5.404e-05
0.0001457
0.04427
0.006836
0.0001545
0.0005091
3.655e-07
0.02631
0.0001327
0.0001611
0.02838
0.002606
0.000145
0.01537
2.21e-05
0.000148
0.0006783
0.00537
0.02268
0.0001379
0.008212
0.05142
4.565e-09
0.0001722
3.309e-07
0.01164
0.0001761
6.145e-05
0.0002065
0.001343
0.000134
4.471e-06
0.0001523
0.0001346
0.0001655
2.025e-06
0.05533
6.225e-05
0.0001049
0.0001606
8.595e-05
3.207e-09
3.611e-05
0.0001466
0.0001461
0.0001271
0.0001729
0.003923
0.0007467
0.0001647
4.749e-06
0.01099
0.0001517
4.388e-06
0.0001531
9.908e-06
0.0001444
0.01354
0.003373
0.01751
0.002263
0.009828
0.0001457
0.0001457
0.0008217
0.000154
0.007191
3.206e-05
0.00234
0.02257
0.04581
0.002581
0.003077
2.422e-08
0.01566
1.934e-05
0.0004893
0.0001052
0.01945
0.0002006
0.003099
0.001773
6.433e-06
0.009508
0.000144
0.0001429
0.01261
0.01573
0.0001649
0.000139
0.0001816
0.01026
0.0001665
0.002157
0.04556
0.001061
0.0001541
0.000149
0.0001585
0.0001683
7.897e-07
5.59e-06
0.0173
0.0001529
0.05592
0.0004354
3.929e-05
6.501e-05
0.02694
0.0001678
4.958e-05
0.006336
3.664e-06
0.0001482
3.88e-06
0.0001961
0.023
0.005047
0.0001554
0.0001454
5.128e-07
2.694e-08
0.0001378
0.0001441
0.01307
0.009241
9.965e-07
0.01471
4.418e-05
3.238e-05
0.0007619
0.0001599
0.0001638
0.0001479
0.0005782
0.03342
0.001516
0.0001667
0.000895
0.008024
0.0001578
3.401e-08
0.01258
0.0001453
0.001198
0.000146
0.0001447
8.693e-05
0.0001538
1.472e-06
0.0001442
1.293e-05
0.000146
0.0001745
0.0001536
0.04642
0.0001287
1.421e-05
2.152e-05
0.0005489
5.797e-05
0.0002108
0.0001551
0.01809
3.422e-05
0.003259
0.0009073
5.817e-07
0.000508
2.711e-07
0.004405
2.431e-05
0.0001361
2.881e-05
1.738e-06
0.000151
0.03989
0.0001919
0.001206
0.01848
5.026e-06
0.0002157
8.387e-05
0.01453
5.63e-05
6.92e-05
0.009288
0.0001647
0.0002469
0.0233
5.635e-05
0.01064
1.205e-05
0.01188
0.0001376
7.094e-05
0.00115
0.0001459
0.002479
0.001059
0.0001378
0.0001679
0.01319
0.0001532
0.0001511
0.03351
0.01836
0.0001567
0.0001314
0.002495
0.001927
0.0001446
0.0001509
0.0001498
0.01027
0.001586
0.0001381
0.000154
0.003567
7.992e-06
1.558e-05
2.743e-05
0.01371
2.033e-07
0.0002454
5.184e-05
0.0001456
0.006717
0.0001784
0.003359
6.862e-05
0.004618
8.157e-06
0.0001471
1.531e-07
0.0001481
0.0002534
5.615e-05
4.188e-05
0.02102
0.0475
5.092e-06
4.919e-05
0.0001497
2.054e-10
0.0139
4.508e-05
8.774e-06
3.63e-05
0.000158
0.01937
9.809e-05
4.718e-05
0.003907
0.03536
2.196e-05
3.213e-05
0.05223
2.966e-07
0.0001578
4.764e-05
0.0001558
1.272e-05
0.0001307
0.0001448
0.04034
1.191e-07
0.01191
0.004513
4.813e-07
0.001003
0.0001458
1.812e-06
4.592e-05
0.04533
3.246e-06
0.0001691
0.00883
5.373e-09
0.04448
2.201e-05
0.01446
5.034e-05
6.293e-05
2.493e-05
6.952e-06
0.0001793
0.001421
0.0001573
0.06188
0.0003326
0.003107
0.0001595
6.344e-05
0.02662
0.0001388
0.01903
0.00016
0.02804
0.0001522
0.0001554
0.0001231
2.815e-07
0.0001501
1.273e-06
7.397e-05
0.005879
0.005303
0.0001459
0.01732
0.00874
0.0001577
9.21e-05
9.105e-06
5.989e-06
0.0001427
2.038e-05
0.002738
0.00845
4.252e-08
0.01409
0.03298
0.001829
0.0001459
0.001727
0.005017
7.233e-07
0.003731
0.0001609
0.01409
0.0001454
8.928e-09
7.119e-08
0.009399
0.0001632
0.0001637
0.0001356
0.0001313
0.007944
0.03015
0.0301
0.0001531
0.0001801
0.0001806
0.000155
0.007212
0.03094
0.0009886
3.466e-05
3.337e-08
0.0001621
4.88e-06
0.01011
0.001722
0.0001316
2.624e-05
0.01448
8.02e-05
1.98e-08
0.02772
0.02318
0.003645
5.78e-05
0.01111
3.648e-08
0.05855
0.006269
0.02432
0.02317
0.0001361
3.155e-05
1.585e-08
0.0001539
0.005606
0.0001413
3.903e-05
0.0001002
0.0001352
0.0001156
7.894e-05
0.006221
1.934e-05
0.0001428
0.0001602
1.719e-09
0.0001455
5.364e-05
0.0005466
5.684e-05
6.23e-06
0.000164
0.0001411
0.0054
2.807e-06
0.004671
0.002283
0.0001503
6.449e-05
5.892e-05
2.369e-05
0.0002731
0.004732
0.0001451
0.002933
0.03271
1.029e-05
0.0002092
0.02241
0.004514
0.0001447
0.0001604
0.001989
0.0001458
0.02721
0.0001399
2.49e-05
0.02866
1.728e-07
0.003677
0.02261
4.225e-05
0.00868
5.8e-05
2.487e-05
1.207e-09
0.004666
0.002441
0.02399
0.01088
0.0185
0.0001482
0.01735
0.0001462
0.01484
0.0001474
0.03153
0.0001435
0.0007572
0.008448
0.0001377
0.0001444
0.01301
0.0001563
0.0002397
0.0001536
0.0001334
0.0001778
0.007409
0.0001495
8.299e-08
3.31e-05
1.757e-06
3.907e-05
6.014e-05
3.128e-05
3.579e-05
0.02385
0.001644
1.329e-06
0.02814
0.0002134
0.001715
0.006287
0.01817
0.03278
0.0001441
1.077e-09
0.00588
2.798e-06
0.0001458
2.402e-08
6.332e-05
2.664e-05
0.01112
0.0001309
0.0001308
0.03632
0.06038
0.0142
0.0185
5.152e-05
0.0001647
0.0001543
0.01038
0.0001505
5.094e-06
0.0001542
0.0001965
0.009016
0.0001352
0.0007266
0.0003741
5.478e-05
2.652e-05
0.0114
0.0001459
0.01906
0.0153
2.653e-07
0.01872
0.0001533
7.754e-05
0.00372
4.874e-05
0.02039
0.0002566
0.06582
0.0001455
0.01642
0.0001435
2.012e-08
5.213e-06
0.000165
0.004805
0.0001691
0.0001609
0.0001305
0.0001588
0.0009741
6.261e-09
0.0001511
4.595e-07
0.01097
0.0001439
0.002491
0.001877
0.01889
0.0001512
0.01571
0.004974
5.455e-05
0.008028
0.04298
1.805e-05
0.0001518
0.0001032
0.0001829
1.503e-05
0.0002085
0.0002079
2.663e-05
0.0001647
2.387e-08
0.0001907
1.018e-05
1.149e-05
1.081e-09
0.005018
0.002944
0.0001486
0.0001455
0.0001437
0.01746
0.0001449
5.428e-08
0.0001454
4.446e-06
0.0001559
0.0001837
0.0001145
2.009e-05
0.0002903
5.531e-06
0.0001588
0.0002314
0.01059
7.178e-06
0.0001449
0.00389
0.0005094
0.0117
0.001023
0.003474
0.008279
0.0001515
0.0001405
0.0001533
0.0001372
5.966e-05
0.0002242
0.0001326
0.0001571
0.0003102
0.0001372
2.834e-06
0.0001462
0.01087
0.03022
0.01523
0.0002028
0.0001392
0.01198
0.0005502
0.02021
0.000151
0.000112
0.0001537
0.0001454
0.0001417
0.01262
3.102e-08
0.0001373
4.623e-05
0.0001486
2.301e-06
0.0001612
0.0001523
0.0002056
0.0001651
0.002521
2.202e-05
0.0001493
6.466e-05
0.0001465
0.009954
0.0001486
0.0001516
8.351e-05
0.02562
0.0001552
8.964e-06
0.002346
0.0001414
0.02911
3.034e-06
0.001085
3.13e-08
5.446e-06
0.02722
0.0001527
0.00017
4.424e-06
0.0222
6.483e-05
8.841e-05
0.0002483
0.0001538
0.0001443
0.004683
3.664e-05
0.0119
0.0001459
0.004942
0.0001456
0.0001612
0.002481
0.0001427
0.02931
0.0001687
0.0001756
0.01458
0.003538
3.204e-05
0.0001466
2.439e-05
5.028e-06
0.0001599
0.03517
3.714e-05
0.0001576
0.02901
0.02127
2.219e-05
0.0001437
0.01693
1.238e-05
0.006667
0.005151
1.259e-05
0.0001567
0.000153
0.0001202
0.0001514
3.4e-05
0.009376
0.000151
5.198e-05
0.0001479
0.001124
0.0009729
0.05094
0.008732
0.004481
2.859e-08
0.007469
2.028e-07
0.0001649
0.0001376
2.097e-07
4.117e-05
0.0001563
2.622e-05
0.0001506
0.02382
0.0001491
0.02003
5.611e-07
0.01448
0.0001798
6.02e-05
3.967e-05
0.0001464
5.181e-05
0.0001525
0.0001769
1.065e-05
0.0001489
5.899e-05
3.084e-06
0.0001444
0.0001484
0.02026
0.0002369
0.01793
0.000169
0.000168
0.0001856
0.0001651
0.02696
0.000251
0.000176
0.004712
0.0001377
0.0001531
2.706e-05
3.813e-07
0.0001394
0.002038
5.453e-07
0.03225
0.0001529
0.02021
5.233e-05
3.757e-07
0.0001988
0.0003359
0.01757
0.00015
0.0001298
0.0001833
0.0214
1.919e-06
0.002791
0.0001486
0.002464
1.127e-09
1.257e-08
0.01917
0.01673
0.002808
0.0001648
0.01894
0.0001031
0.02388
0.0001926
0.008963
0.01394
8.232e-05
2.211e-06
0.008802
0.0001604
0.0001452
0.0001698
0.0001579
0.006637
0.0001518
0.0001507
4.305e-05
0.01921
0.034
0.0001355
1.999e-05
5.734e-06
0.04948
0.002964
0.01215
2.228e-08
2.805e-05
0.0001488
0.002049
0.0001167
0.01109
4.385e-05
1.472e-08
0.0001282
1.247e-06
0.000142
4.552e-05
0.0001405
0.01371
0.0198
1.208e-05
0.001151
0.03252
5.985e-06
0.0001681
0.0001609
3.439e-05
0.0001527
0.03004
0.000145
2.39e-05
1.358e-05
5.915e-05
8.299e-06
8.234e-06
0.01661
1.354e-07
0.0003332
0.0002049
0.000175
0.02911
0.0001507
0.04247
6.356e-05
0.02123
5.77e-05
0.0002328
5.324e-05
3.603e-09
3.854e-07
0.008167
0.02899
0.0001599
0.0001566
0.0001458
0.0001485
0.008155
0.0001611
0.0001451
5.21e-05
5.687e-05
3.638e-05
0.008979
0.000138
4.468e-05
0.03418
0.0001387
2.888e-07
1.979e-05
0.0001555
4.702e-05
4.773e-09
0.01821
0.000567
0.0415
0.0001039
0.0004471
2.342e-10
0.0001059
9.55e-05
0.0001694
0.0001554
5.047e-05
0.007802
0.0001453
0.000147
0.0141
5.871e-06
0.02989
4.505e-05
1.257e-07
0.0001651
0.0001494
7.291e-06
0.02838
0.009212
1.54e-06
0.0002004
0.03424
0.01744
0.004095
0.0001653
0.003538
0.0001465
0.002343
0.03331
6.109e-06
0.06315
3.404e-05
1.943e-05
0.0001668
7.577e-06
0.03988
0.0002042
5.803e-05
0.0009244
0.0001509
0.01699
0.00596
0.008118
0.0005964
0.009461
4.088e-05
0.000614
0.0001448
0.01084
0.04204
8.786e-06
5.844e-05
0.0007763
0.02731
0.000153
5.007e-05
0.0001854
0.007425
0.02778
0.01504
0.02952
0.01749
0.0004199
3.381e-07
0.0001605
0.0001483
0.0003341
0.0001394
0.02016
0.0001494
0.0001648
0.01762
0.0001439
0.0001622
5.427e-05
0.001187
0.0001456
0.0001477
0.0313
8.181e-05
0.000734
0.0001906
0.02941
0.01712
1.128e-05
2.287e-05
0.05954
0.0001316
0.04947
0.0001581
5.335e-05
5.298e-08
0.02175
2.483e-05
3.078e-05
0.01973
3.103e-08
0.0001453
0.0001372
0.0001595
0.0001475
1.232e-09
0.0001458
0.02483
0.0002635
3.912e-08
0.0005653
1.37e-05
0.0001253
0.000125
2.896e-05
0.004527
0.01978
0.0002086
0.0001495
0.05207
0.0001603
0.000149
8.108e-06
4.403e-05
4.826e-05
0.02212
1.44e-06
0.02002
0.0001703
0.0001316
0.0001112
4.773e-05
8.116e-06
2.339e-05
0.004618
2.969e-06
0.004462
0.0092
6.237e-05
0.001184
0.004161
0.0001537
0.0001584
2.814e-05
0.0001402
0.0001385
0.0009512
0.007101
5.173e-07
0.0001583
3.054e-05
0.00284
0.0004277
0.0001453
0.0001759
0.0001482
0.008631
9.674e-08
0.0001691
0.0001556
7.988e-05
0.0001521
2.471e-06
0.0001155
0.0002255
0.0001022
0.0001221
4.657e-05
0.02096
0.0001176
0.003647
0.005787
0.00925
0.007304
9.011e-05
0.0157
8.268e-06
4.863e-05
0.005798
0.01498
1.788e-05
0.01226
0.003916
0.0004871
0.0001543
0.0001592
0.0001154
1.259e-07
0.0001639
0.005377
0.0001467
0.02268
0.0001484
4.548e-05
0.02497
1.35e-07
0.001641
0.0001523
6.887e-05
1.626e-08
6.949e-06
0.01018
5.196e-05
1.26e-05
3.283e-06
0.0007641
0.02056
6.221e-05
1.337e-07
0.003336
0.006189
0.0001656
0.0001584
0.0001454
0.01996
3.079e-05
0.0001448
0.004247
0.03088
0.0001533
2.525e-05
0.0001308
0.03059
0.0001641
0.03289
1.691e-05
0.0001623
0.0001683
0.0304
0.0001501
6.475e-05
7.469e-05
3.781e-07
0.0005853
0.0003945
0.0001428
0.01003
0.002191
9.382e-05
4.735e-05
6.078e-05
0.02902
0.007531
0.0001453
2.976e-05
3.195e-05
0.0001713
0.0001857
0.019
6.382e-05
1.213e-05
3.633e-05
0.0001825
0.0001577
0.0001538
9.99e-05
0.04051
0.000153
3.061e-07
0.000218
0.009716
0.0001454
0.0001473
0.0001842
0.0001459
0.0007661
9.103e-05
0.02092
0.01831
1.222e-05
8.096e-05
0.003192
8.617e-05
0.003316
0.02992
1.715e-07
0.008249
0.003963
0.008229
4.069e-07
0.01707
1.458e-05
3.944e-07
0.000169
0.000171
1.394e-05
0.0001491
0.01442
0.0002933
0.0001969
8.261e-05
0.009616
0.00773
0.0001487
0.03738
0.0001478
0.0001631
0.01459
0.00807
0.0001383
0.02034
1.364e-07
0.01327
0.0001459
0.001319
0.006573
0.04182
5.545e-05
0.007255
0.0002238
1.295e-05
7.473e-06
1.882e-07
0.001862
5.135e-05
0.004156
0.004193
0.002619
0.0001511
3.241e-07
0.001625
5.028e-05
0.0001586
0.0001441
0.002373
0.001113
0.01902
0.0001512
1.69e-07
0.0002679
0.0001607
0.04838
0.007706
2.585e-05
0.0001448
0.0006727
0.02068
0.0001508
0.000129
2.06e-05
0.0001449
0.002218
0.01398
0.0001549
2.105e-06
0.0001695
0.004182
3.076e-09
0.007066
4.491e-05
0.0001307
0.0001299
5.371e-05
0.04758
0.0001708
0.0001023
6.175e-05
0.0001438
5.454e-05
7.803e-06
0.01052
0.0001456
0.000146
0.0143
0.01072
5.509e-05
2.178e-09
1.761e-05
0.0001589
2.041e-05
2.729e-06
0.0001536
1.572e-05
4.541e-05
0.0003392
0.0001657
7.546e-05
0.05896
0.01971
0.0001302
0.0001285
0.0001287
0.0001275
0.0001577
0.02784
0.000115
3.028e-05
0.0001319
0.007404
0.009469
7.797e-05
0.0001283
0.004668
0.01035
0.001231
0.000586
0.0005908
0.01729
5.236e-05
3.126e-05
0.01269
6.169e-05
0.0001709
5.15e-05
1.308e-08
4.382e-05
9.198e-07
0.0001521
0.0001291
0.0001453
3.653e-07
0.0044
2.799e-05
0.0001234
0.00015
1.053e-07
0.0001458
0.009343
0.0007877
0.0001933
0.003469
0.004536
0.01468
0.01377
4.79e-05
0.0001506
0.000303
0.0001369
0.0001634
0.001528
0.001942
0.01562
0.0001458
0.0001436
0.0001452
0.0001547
0.008512
0.0001749
0.0001674
0.01268
0.005899
0.0001573
2.725e-05
3.085e-05
0.03167
0.02617
0.02851
0.005189
0.0001596
1.971e-08
0.0001516
0.0001453
7.073e-07
0.0001452
0.0001449
0.00016
0.0003318
8.365e-06
0.01249
8.726e-06
0.009895
2.814e-05
0.0001464
0.0001567
0.007704
3.734e-05
0.02559
0.0002176
0.0001559
2.24e-06
3.735e-05
0.0001483
1.93e-06
4.715e-05
2.758e-09
0.0002308
0.03087
0.02419
0.000154
0.0001478
0.03246
0.0001867
1.646e-06
0.0001506
1.542e-05
1.067e-07
0.0001454
2.372e-05
0.0001989
6.238e-05
0.0001458
1.174e-05
3.398e-07
1.026e-08
3.385e-08
0.000165
0.04144
4.143e-08
0.0001559
0.003954
0.000144
0.013
4.928e-05
0.0294
0.0007947
3.238e-08
0.0001599
0.01984
0.0001324
0.0001492
0.0001534
3.026e-05
0.0002239
0.03649
0.0002246
0.00441
0.0001629
0.01692
0.01253
0.006223
0.006037
0.0001455
0.01895
0.01356
3.663e-05
0.0007224
0.000113
3.026e-05
0.000242
2.762e-07
7.72e-08
2.052e-10
2.38e-05
0.0001534
2.044e-05
0.0001483
9.134e-06
1.128e-05
0.0001455
2.975e-08
0.0001489
0.001989
4.355e-06
4.256e-06
0.01694
0.0002003
0.001982
0.0001061
0.0001301
1.508e-08
0.006397
0.000195
0.01749
0.01233
1.366e-07
1.764e-07
2.846e-07
0.01772
2.319e-05
0.0001004
0.01497
0.0001511
5.06e-05
1.939e-06
0.0001392
0.006302
5.272e-05
0.01462
5.645e-05
0.02019
0.03825
9.684e-07
4.413e-05
5.157e-05
2.162e-07
0.0002216
2.079e-06
0.0001518
6.225e-05
0.002675
0.0001489
0.000154
6.693e-05
0.0004182
0.001115
2.986e-07
0.0001888
0.0001453
0.0001382
3.445e-05
2.954e-06
0.01285
0.02888
0.0001266
0.0001504
5.902e-06
0.0001271
0.0008563
2.912e-05
0.0001534
0.002956
0.0185
3.446e-07
1.855e-07
2.465e-08
0.00015
2.071e-05
0.006495
0.003462
0.03415
0.0233
2.306e-06
0.01752
9.482e-06
3.291e-05
5.363e-05
6.071e-05
0.0001681
1.169e-07
0.02863
5.934e-05
0.0124
0.000186
5.819e-05
0.0002011
0.0001458
8.887e-05
0.0002263
0.004908
0.0001481
5.843e-05
3.531e-07
8.343e-09
0.03145
3.416e-07
0.0008099
0.0001696
0.0001498
0.0001537
0.0001407
0.0001489
8.843e-05
2.026e-07
0.0009039
1.575e-05
0.05849
0.02912
6.816e-05
0.004305
0.01609
0.001419
0.02955
7.9e-07
0.002982
0.0001401
0.008904
6.051e-05
0.0001477
0.0001547
5.254e-06
0.0001463
0.002339
0.00206
3.354e-05
0.000149
1.792e-06
0.0002945
0.04419
0.00015
1.575e-05
0.0004915
2.442e-05
5.609e-05
0.0001432
3.998e-05
0.0001439
0.0001665
0.002258
0.05242
3.047e-08
0.002322
1.583e-05
0.02794
1.225e-05
0.000157
0.000599
0.009964
0.0008661
0.0001389
0.0001517
0.0001462
1.618e-05
9.461e-05
0.0001892
0.005807
0.0001426
0.0003814
3.365e-05
0.004883
0.0001846
0.00341
0.0008333
0.0001472
0.02097
0.0001542
0.0001673
0.0009055
6.753e-05
0.0001552
0.0001581
0.0001558
0.0001925
0.005369
0.000137
0.0001348
0.0001463
0.0001531
0.0001512
0.001761
0.0005593
0.0001456
4.24e-05
0.0001819
5.092e-05
0.0001469
0.0002016
0.0001514
4.78e-06
0.0003138
1.956e-08
0.04059
3.419e-06
0.0001705
0.000158
2.876e-07
0.0001499
5.517e-05
4.602e-05
4.247e-05
0.001398
0.005262
0.000146
5.637e-05
0.002421
0.01884
0.007459
0.01199
0.0001195
0.009183
6.73e-05
4.934e-05
0.0001436
0.01282
6.844e-05
1.134e-06
0.000151
0.0001481
0.0004752
8.095e-05
0.0102
0.0118
0.0001041
4.531e-05
0.000153
6.535e-05
0.008672
0.02874
0.01478
0.02843
0.0001399
0.0001737
3.014e-08
0.04387
0.01518
1.36e-05
0.0001619
0.0001553
0.0001449
0.0001496
0.0001591
0.0001806
6.855e-07
0.002989
0.000147
0.0001468
5.909e-05
2.294e-09
0.0001469
0.01225
4.66e-05
5.125e-05
0.0001642
0.003314
6.735e-05
0.003508
0.0001691
1.427e-05
3.603e-06
8.639e-05
0.0001458
0.005519
0.02923
0.003534
0.0001429
0.000168
0.002187
0.02075
0.001468
3.373e-08
3.064e-06
0.05212
0.0003794
2.982e-06
0.02598
3.78e-05
0.01163
0.0001672
0.0001657
5.167e-06
1.427e-07
0.0001443
0.001542
6.371e-05
0.0001469
1.714e-05
0.01216
0.0001618
0.0001547
0.02467
1.395e-05
0.001452
0.0001381
0.000145
0.0001456
0.04819
0.01496
0.0001332
0.0006343
0.0001484
1.136e-05
0.03481
0.01249
3.384e-05
3.95e-06
0.04549
0.01781
0.0001427
2.414e-07
0.0001654
7.004e-05
2.475e-05
0.0001531
7.906e-05
0.0003846
0.002275
3.356e-08
0.03271
3.572e-07
0.0001384
0.0001419
0.007925
0.0001509
0.000143
3.143e-08
5.655e-05
3.816e-05
5.476e-05
0.001034
0.007224
0.000143
2.493e-08
0.0001557
6.595e-05
0.0001346
0.0001516
0.01746
0.009733
0.0061
0.02366
0.03142
0.002456
0.0001362
0.006457
0.0002537
4.854e-05
1.026e-05
0.0001594
0.0231
9.127e-05
0.0001471
0.004116
0.001164
0.001136
0.0001533
0.02032
3.658e-07
0.000132
0.0001436
7.758e-05
0.000623
0.02858
2.891e-05
0.0001478
0.000288
0.003272
6.39e-05
0.000148
0.0001525
9.762e-06
4.692e-05
6.946e-05
0.009766
0.0001871
0.0001363
2.125e-05
0.0001497
0.0003381
2.771e-08
0.0001596
0.01229
0.01697
0.0007414
1.126e-05
0.003016
0.0001519
0.0001363
0.006026
0.0001568
0.0001446
0.001153
0.0001603
0.02517
0.0001356
0.0001545
0.0001537
0.0001487
5.888e-05
0.004981
0.0001453
0.0001401
6.81e-05
0.003407
0.0001499
0.0001467
0.0001446
0.0001575
0.04686
0.04432
1.925e-05
2.934e-08
1.877e-07
6.743e-05
2.175e-06
2.233e-06
0.0001482
5.345e-08
0.004851
0.0001259
0.03196
0.0001546
0.00016
0.0002893
0.0003558
5.606e-06
0.0009843
0.0001559
0.008517
4.705e-05
6.124e-05
0.0001624
0.0001624
0.009677
0.0001532
3.67e-05
0.0001606
0.008058
0.0001342
0.0001725
0.0001519
0.0008007
5.568e-08
1.202e-05
0.0001373
9.138e-06
0.007721
0.0001324
0.0001908
0.000146
0.0001731
0.005471
0.0003545
0.001609
9.207e-05
0.0001495
0.0001659
0.02938
5.055e-07
0.0001466
0.000152
2.151e-07
0.000136
0.0001442
3.423e-06
0.01233
0.0001523
0.0001519
0.03773
5.191e-05
4.282e-08
1.946e-05
0.004327
0.02245
0.008861
0.0001535
0.000145
0.0001531
4.675e-05
5.297e-05
0.004245
0.0001479
4.481e-07
5.189e-05
6.147e-05
0.01589
0.00702
0.008177
0.0001341
0.0001552
0.0006287
0.002349
0.0001502
4.36e-05
1.581e-05
0.02853
0.000159
0.0001678
0.01994
0.0001501
0.02571
6.455e-05
0.0006503
0.000127
0.0001477
0.0001497
0.0004836
0.01128
0.0001525
0.0001434
0.0002247
0.004935
1.328e-09
0.02669
0.0001555
0.0007313
0.0001413
0.0001339
7.194e-05
2.987e-06
3.475e-05
0.003044
2.273e-05
1.257e-05
0.02112
0.0001563
0.004391
3.015e-05
7.157e-07
0.01096
0.0001511
4.613e-06
0.0001644
7.563e-06
9.512e-05
0.01935
0.02686
4.88e-05
0.0001459
0.01127
0.000165
0.0001447
0.002674
4.406e-06
0.00373
7.257e-08
1.756e-05
0.0033
0.0001448
0.02257
0.002602
0.0001861
0.01239
0.01315
0.001236
0.002843
0.0001098
0.0001465
0.006139
0.0001378
0.0001435
0.001714
0.0001747
0.0001544
3.056e-05
4.253e-08
0.000142
0.0001455
8.321e-05
7.041e-05
6.496e-06
0.0001614
0.006669
1.376e-05
0.03768
0.02292
0.0001456
0.0001783
5.689e-06
0.0001511
0.01063
0.0001441
8.177e-05
0.0001512
0.01814
2.434e-05
0.003614
0.0007051
6.499e-05
0.002064
0.0001492
0.0007449
0.004758
0.0004327
0.0001433
0.0001475
2.304e-05
9.495e-05
8.69e-05
0.03468
0.004696
0.05992
4.977e-05
0.000108
0.0001281
0.0001518
0.0001553
9.955e-09
4.488e-06
0.0001085
0.0001425
2.196e-05
6.213e-05
0.001078
0.0008395
8.882e-08
0.0001704
0.01703
4.801e-05
5.362e-05
1.603e-05
2.346e-06
0.05864
0.0002441
0.04193
0.0001495
4.813e-09
0.0001466
0.03098
2.376e-05
7.126e-05
0.02316
0.000127
0.007341
5.593e-06
0.01499
0.0002381
0.03668
0.0001356
0.002623
9.992e-09
0.01319
3.111e-07
1.905e-07
0.0001455
2.978e-07
0.0001981
7.622e-06
6.009e-05
0.02064
0.05878
0.006453
5.258e-05
0.000124
0.0001499
0.01712
0.01361
0.01869
0.02379
0.005141
0.0001554
0.0001571
0.05743
2.691e-07
0.008009
5.692e-05
5.525e-05
2.107e-05
0.0001347
0.0005096
0.004853
3.498e-05
0.01593
1.534e-07
0.001503
4.924e-05
0.0001536
6.354e-05
0.0001526
0.0123
0.007971
0.0001575
0.0001651
0.009603
8.853e-05
0.01637
0.003312
8.459e-05
4.161e-05
0.01186
1.489e-07
9.75e-05
1.621e-06
0.0001498
0.0492
0.006584
0.02354
0.0001519
0.0001428
0.0001453
0.0001462
0.0001454
0.009554
5.313e-05
0.007858
0.04991
0.0001507
0.01515
0.0001503
2.033e-07
3.294e-06
2.984e-07
5.392e-05
0.0001527
1.471e-05
7.823e-05
0.0001568
0.0001691
0.0001464
0.02241
0.03335
0.002641
0.05285
0.0001422
0.0001427
0.003914
0.02299
0.0001511
2.217e-08
4.884e-05
0.0001398
0.0001459
5.457e-05
0.0001508
2.176e-05
4.698e-07
0.0001649
0.0001676
0.001846
8.231e-05
0.001258
3.363e-08
0.0001798
0.0001597
5.942e-05
4.067e-05
0.0001523
0.001369
0.0001364
0.0001604
1.379e-05
0.003797
4.236e-08
0.0001518
7.811e-05
0.001376
3.287e-05
0.0001462
0.009614
0.0001455
0.02416
0.05646
0.0001219
0.02029
5.141e-05
0.0002027
0.0001586
8.273e-06
5.67e-05
0.000358
1.262e-05
1.484e-05
0.005763
0.001086
5.178e-05
0.001377
0.02041
3.28e-05
0.0001401
3.193e-07
1.597e-07
6.486e-06
6.001e-05
0.0001503
5.005e-06
3.054e-05
0.0001584
0.0004822
4.88e-06
0.004671
0.0001922
0.0001449
0.0002065
3.507e-05
0.000142
0.04679
9.84e-05
0.003108
0.0001561
4.883e-05
5.56e-05
0.0002921
2.596e-05
1.41e-09
0.0006568
0.01123
0.000152
0.01135
0.003946
1.814e-05
0.008689
0.02314
0.02092
4.594e-06
0.01315
0.0001573
0.01154
2.017e-05
0.0001512
0.03281
0.0001516
0.03583
2.313e-07
0.001935
0.0001476
2.88e-05
0.02805
1.418e-07
0.00185
0.0001427
0.0001556
1.577e-05
0.0001511
0.008853
1.098e-05
0.0003062
0.02157
0.000145
0.00016
0.01582
0.01201
0.0001607
2.763e-05
0.0001384
2.167e-05
0.01007
0.001706
0.01221
0.004665
0.004266
2.737e-05
3.336e-05
0.0001517
6.051e-05