/*--------------------------------*- C++ -*----------------------------------*\
  =========                 |
  \\      /  F ield         | OpenFOAM: The Open Source CFD Toolbox
   \\    /   O peration     | Website:  https://openfoam.org
    \\  /    A nd           | Version:  8
     \\/     M anipulation  |
\*---------------------------------------------------------------------------*/
FoamFile
{
    version     2.0;
    format      ascii;
    class       volScalarField;
    location    "30";
    object      nut;
}
// * * * * * * * * * * * * * * * * * * * * * * * * * * * * * * * * * * * * * //

dimensions      [0 2 -1 0 0 0 0];

internalField   nonuniform List<scalar> 
127143
(
6.448e-21
1.377e-20
2.163e-19
2.616e-18
1.337e-17
2.74e-18
1.052e-15
1.089e-16
3.429e-17
3.898e-16
1.116e-15
1.151e-16
1.382e-18
5.374e-18
3.148e-07
6.029e-14
6.825e-18
0.005522
0.004127
1.668e-12
0.0006208
3.687e-11
6.758e-05
1.432e-07
3.086e-11
1.276e-09
8.353e-11
1.002e-10
2.434e-10
0.005959
6.271e-08
1.218e-09
5.934e-11
5.649e-08
5.293e-05
6.422e-11
0.000198
0.0006692
2.341e-07
8.698e-10
0.004137
4.916e-06
5.238e-06
7.291e-17
0.005453
7.166e-08
2.446e-10
0.0008951
1.01e-07
1.805e-07
2.198e-13
0.0004438
0.0004228
5.478e-05
0.006668
2.95e-08
0.006667
9.754e-05
0.006184
5.278e-05
4.374e-06
0.002383
8.273e-07
0.006702
1.406e-06
2.22e-05
7.215e-05
6.978e-07
7.007e-07
0.003001
9.701e-08
2.572e-10
0.002709
0.005611
0.006693
2.903e-10
0.0009133
0.0002361
2.973e-08
0.006705
2.358e-10
1.817e-12
1.192e-06
2.893e-09
0.001994
0.0003337
3.433e-07
4.193e-11
2.305e-05
2.578e-07
0.004292
0.0003277
8.513e-07
0.0006329
0.0001128
0.0001149
5.307e-06
2.358e-08
0.0005388
6.13e-05
0.006705
1.163e-07
1.91e-08
3.001e-05
0.0003685
0.0005029
5.11e-07
0.003001
9.186e-06
0.00668
4.534e-07
3.261e-11
0.0003321
7.868e-07
0.006691
6.787e-05
0.0006274
0.006693
0.0009067
6.397e-13
0.00668
1.473e-06
3.045e-06
0.0001136
2.751e-10
2.632e-10
0.001536
0.001125
0.0001548
2.273e-08
0.0001155
8.88e-05
1.596e-06
0.0002482
1.969e-15
0.0001264
0.0001961
0.0009234
9.543e-10
0.0001847
5.413e-05
0.001079
0.0005065
0.001104
0.0004267
5.475e-06
2.858e-10
0.006702
7.741e-05
7.488e-09
1.167e-05
1.36e-07
0.0006397
2.952e-05
2.534e-06
0.002042
7.728e-05
1.756e-08
0.0009307
1.137e-08
1.445e-07
8.569e-14
0.004718
0.0001168
2.142e-09
2.773e-06
0.0001077
8.951e-06
1.673e-08
0.0002165
2.983e-06
0.00111
6.737e-05
7.101e-06
0.002806
0.0005624
3.461e-06
0.0001583
1.73e-07
0.00221
7.145e-06
0.000613
0.0006015
0.0005773
2.385e-08
0.002468
1.511e-05
8.522e-07
1.537e-07
0.0008616
0.0002921
0.0001461
0.0001928
6.471e-07
5.59e-16
0.001526
0.006638
0.006624
2.749e-14
0.003077
0.006693
0.0002095
0.002207
0.0002419
6.432e-17
5.065e-07
0.0001293
5.959e-06
0.005598
0.006691
0.0002246
0.001576
0.006689
1.747e-08
4.226e-05
8.424e-15
1.147e-07
5.826e-06
0.000196
0.0001271
3.468e-06
0.006694
1.211e-07
0.0003958
9.041e-09
1.799e-06
6.466e-09
0.000602
1.457e-05
0.0009705
0.0005623
0.0007693
0.002856
1.087e-11
0.0005745
0.0001069
0.0001167
1.497e-18
0.006693
0.0003601
0.0001593
3.183e-06
0.0008641
1.79e-08
0.0002675
9.547e-13
2.712e-07
1.199e-10
6.757e-13
0.003024
7.916e-06
2.05e-09
4.466e-06
0.0008983
6.328e-08
7.042e-06
0.001284
2.505e-08
2.96e-05
1.681e-05
0.001491
0.0008014
0.0002249
0.001041
0.0001622
2.34e-06
7.604e-06
1.796e-06
5.407e-06
1.102e-05
5.602e-09
0.002803
0.001344
0.0003461
1.411e-06
0.0003114
0.0003449
1.802e-07
0.002857
2.382e-05
0.003405
0.0001279
3.063e-05
0.00669
0.006691
5.401e-16
0.0001027
0.006692
1.694e-07
0.002201
0.0006316
4.705e-05
0.0001074
4.227e-05
0.006698
7.094e-06
6.356e-08
0.0001083
0.0008603
1.131e-05
2.041e-08
3.387e-05
1.486e-05
8.484e-05
6.047e-09
4.028e-06
6.008e-06
0.00669
0.002966
4.131e-06
4.427e-07
6.838e-06
1.911e-08
0.003711
0.00669
5.276e-07
0.000693
2.039e-08
0.0001861
0.003394
8.633e-05
9.304e-08
0.0004348
4.435e-06
4.745e-07
0.0003713
0.0001141
0.0001358
1.007e-07
2.589e-06
0.001606
0.006691
5.798e-05
0.006639
0.006624
3.286e-05
9.301e-06
6.765e-05
0.001603
7.918e-05
0.0002066
5.811e-06
0.0004702
0.0003381
1.091e-06
1.684e-07
9.152e-06
0.0002313
2.414e-08
7.104e-05
3.715e-08
0.004258
0.0004843
0.0003225
0.0001459
1.296e-05
0.0008833
6.807e-06
0.006358
1.003e-07
0.001861
9.862e-07
0.003111
2.432e-07
2.074e-07
0.006697
0.003488
0.003148
1.199e-06
0.002854
2.647e-06
0.0004011
5.927e-09
1.6e-07
0.0009794
0.0001478
8.12e-08
5.437e-11
0.0006529
0.00287
0.001864
4.847e-10
4.473e-08
2.869e-05
0.0006944
7.89e-12
4.803e-05
1.247e-09
0.001432
0.001055
0.006699
1.428e-05
7.471e-06
7.027e-08
1.723e-07
5.715e-08
1.481e-05
8.58e-08
0.0001454
0.0005985
2.462e-09
0.006694
0.0006765
0.0006411
4.632e-05
6.386e-06
0.0004436
1.745e-06
0.006705
1.93e-07
1.008e-05
2.063e-08
4.876e-05
0.001033
5.066e-06
0.0001224
0.0003664
4.668e-09
0.0003494
2.498e-07
0.0001199
2.148e-09
2.638e-05
0.003279
0.0009234
1.369e-05
5.116e-06
4.028e-05
5.115e-06
9.804e-05
0.006677
2.592e-05
0.0004063
0.0009154
8.127e-06
0.006697
4.83e-06
1.437e-05
0.0004803
0.006697
0.00669
2.518e-07
0.0001735
7.851e-06
0.000349
2.636e-08
0.006316
7.78e-07
0.0032
0.001578
0.0005952
6.289e-08
8.111e-06
6.213e-07
3.983e-05
0.0003441
1.592e-08
7.194e-06
0.0003808
0.0001414
2.097e-06
0.0002165
0.001622
8.898e-07
0.0002188
0.002853
0.001591
0.000614
4.541e-06
0.006667
0.000777
0.0001293
9.733e-05
0.0005529
0.0001427
0.006645
2.088e-06
0.0001189
4.747e-06
0.0004815
2.855e-10
1.023e-06
1.147e-05
1.96e-08
8.491e-06
8.076e-06
0.0004594
0.006688
2.314e-08
0.0009435
1.447e-06
3.909e-07
0.0003799
6.065e-06
1.985e-15
8.55e-05
1.126e-06
0.0001015
1.46e-06
0.006686
2.399e-10
0.001612
0.000601
0.001612
7.302e-18
3.947e-14
1.632e-13
0.006697
1.408e-05
2.764e-06
0.00669
0.002014
1.616e-06
0.0001047
2.555e-05
0.0005613
6.2e-08
0.0007895
2.384e-09
0.002896
0.001302
3.669e-12
1.503e-07
2.46e-08
4.945e-06
0.006679
1.321e-05
0.001819
0.001641
0.006602
1.567e-08
2.786e-09
6.243e-06
0.006636
0.0006088
0.0001185
9.319e-07
7.792e-06
6.208e-09
0.002325
0.0009487
2.092e-05
1.42e-05
0.006668
3.606e-05
0.0002933
8.315e-08
2.512e-07
3.496e-06
5.59e-07
0.001494
1.37e-05
4.367e-07
0.0001267
2.98e-05
0.003755
2.189e-09
0.0001632
1.445e-08
1.245e-06
0.0009406
0.006702
0.006701
1.796e-05
8.097e-06
1.279e-06
0.006691
0.004989
1.269e-05
4.532e-08
0.000441
1.067e-05
3.416e-07
2.378e-09
4.534e-05
0.001265
0.006682
4.717e-06
0.0005932
1.341e-06
0.005081
3.819e-10
1.968e-06
4.708e-05
0.002866
4.854e-09
0.006691
0.0004966
0.0007678
0.001545
0.005055
6.869e-06
0.001497
4.323e-12
0.006644
5.623e-07
1.332e-07
0.00669
6.413e-06
0.005586
3.503e-07
0.0004839
0.00669
2.435e-06
7.272e-08
1.462e-05
0.0001216
0.0005223
3.923e-08
4.642e-08
1.43e-06
2.917e-07
1.328e-06
2.682e-07
0.0003687
0.000271
1.14e-08
0.005635
2.99e-08
0.006689
1.299e-06
0.0009161
0.0005106
0.006677
0.006432
7.316e-05
2.568e-07
0.0003809
0.006489
0.006675
1.962e-05
5.44e-10
3.203e-06
3.06e-08
0.002686
8.732e-06
0.0006025
9.315e-06
0.0003491
1.206e-05
5.581e-07
0.006488
1.876e-05
0.0003715
8.552e-05
0.0001043
0.00555
0.00499
0.0003859
1.762e-09
0.0004401
2.381e-09
0.0008268
0.004051
7.179e-05
3.444e-05
0.0002017
3.313e-06
9.728e-05
0.000636
3.315e-06
3.055e-05
0.0003903
2.448e-05
1.946e-16
2.629e-06
0.0003989
0.0003377
0.0001074
4.621e-05
7.401e-09
9.095e-06
0.0004207
0.0002222
0.0001265
0.0007096
0.006677
1.936e-07
1.897e-05
4.888e-06
0.006635
0.006677
3.854e-10
0.0001031
4.783e-08
9.304e-05
1.647e-06
0.002909
2.93e-05
1.606e-08
1.075e-05
7.159e-08
0.006687
0.006667
7.144e-06
1.498e-05
1.994e-06
5.402e-06
5.175e-09
0.002601
9.081e-08
0.0002087
0.002554
0.004124
3.341e-08
0.0001553
5.562e-08
1.769e-15
2.008e-06
0.000223
0.0007088
0.004878
8.613e-07
2.162e-07
1.533e-09
0.004874
0.001527
0.0003496
1.126e-08
0.000354
2.284e-07
0.003518
9.406e-08
6.679e-07
4.183e-06
0.001593
5.613e-05
2.624e-20
2.229e-05
0.0001895
4.905e-07
2.112e-06
3.847e-07
0.006686
0.0003612
0.004286
0.0004546
0.003898
1.844e-09
3.24e-05
5.053e-09
0.003755
6.601e-06
0.0003279
1.74e-05
0.0001429
0.004121
0.0007062
9.352e-06
2.232e-06
0.0008412
0.00274
0.0004677
1.103e-06
0.003745
5.803e-06
5.157e-05
5.427e-05
8.772e-05
3.55e-05
1.993e-06
1.251e-09
1.244e-05
0.006607
0.0006958
0.002477
1.704e-09
2.307e-08
5.736e-05
0.002077
7.813e-07
0.006619
0.0001159
3.557e-06
0.0004227
3e-11
0.0004255
7.173e-06
0.0004203
0.001028
5.292e-05
0.006697
4.893e-17
0.000126
0.0001413
6.091e-07
0.000503
2.211e-05
4.335e-05
1.283e-07
0.006681
0.004551
2.964e-05
0.004003
2.698e-05
1.468e-06
4.952e-07
2.928e-06
0.006659
0.0006508
0.0004952
0.006688
0.006656
0.0001071
0.002326
0.002682
2.953e-05
0.000514
2.836e-13
1.654e-05
9.001e-06
0.006678
0.0002968
0.0001488
7.53e-08
1.068e-08
9.125e-06
0.00378
0.006689
0.001145
1.736e-10
0.006678
0.0001455
6.784e-09
8.53e-07
9.661e-10
0.005582
0.001118
7.688e-07
0.006692
2.479e-08
0.006679
1.427e-06
2.984e-09
3.081e-05
0.000255
2.709e-10
0.004491
2.77e-06
2.114e-05
1.728e-08
5.102e-05
8.166e-09
7.753e-09
6.066e-05
6.05e-05
1.137e-05
8.674e-13
0.006691
0.0008363
3.745e-08
6.011e-08
0.0001178
4.484e-11
0.003839
0.0004673
4.536e-06
7.642e-10
6.745e-11
4.432e-07
1.854e-14
1.561e-07
2.299e-14
8.779e-05
8.991e-07
0.00458
2.428e-11
0.0009148
3.703e-07
0.00507
0.005127
0.0005262
0.0004935
0.000199
0.002824
7.953e-07
8.462e-05
0.0003934
2.861e-07
4.446e-07
0.006699
0.004286
0.0001691
0.0004602
1.839e-06
9.658e-12
0.0006811
8.114e-06
4.112e-07
0.001211
1.356e-05
0.006687
0.0003795
5.658e-08
0.006396
3.303e-06
0.0001625
0.002569
0.006664
0.003303
0.003368
4.037e-14
1.547e-05
8.648e-12
0.0008161
8.428e-06
6.588e-07
5.457e-08
1.148e-05
0.005587
1.389e-09
1.077e-05
0.005517
9.092e-06
1.669e-11
0.001537
2.594e-07
1.051e-05
6.232e-05
1.166e-08
5.499e-14
1.176e-07
0.0009974
0.006693
7.3e-06
8.024e-06
5.945e-05
3.721e-06
6.328e-07
2.292e-09
6.127e-05
6.421e-05
2.162e-09
0.0001855
5.217e-09
0.006687
0.0007879
4.418e-06
0.0008565
2.85e-05
0.0005861
0.006691
0.002418
1.174e-06
4.256e-05
6.757e-05
8.916e-08
8.692e-06
0.001742
0.0003753
1.827e-05
3.785e-05
1.573e-12
0.0004721
4.268e-08
2.081e-06
7.304e-06
0.001668
6.183e-07
2.517e-05
1.14e-06
1.443e-10
0.0005487
0.006686
0.006681
0.0008803
0.0006274
7.997e-05
0.006687
7.425e-06
0.0005926
6.799e-05
1.028e-05
0.0004622
7.189e-06
2.566e-06
0.006705
6.867e-05
5.874e-05
1.69e-10
6.116e-09
0.0003382
1.215e-05
0.001047
1.445e-06
1.597e-07
2.313e-06
0.002814
4.609e-06
3.35e-07
0.0001107
1.5e-09
0.006516
8.535e-10
4.336e-08
0.002549
0.0001346
3.462e-07
0.005046
4.467e-11
1.532e-12
0.006229
0.00669
0.0003555
0.000451
6.135e-12
0.0001035
3.88e-07
7.646e-08
3.427e-06
7.096e-05
0.0001014
0.002656
2.193e-06
0.001588
1.105e-05
5.851e-05
4.642e-07
0.0002593
0.005233
2.95e-12
0.0001773
0.006691
1.357e-05
0.005588
0.006685
3.545e-06
7.913e-05
1.221e-10
0.006686
2.754e-08
0.006693
1.101e-06
9.29e-05
0.004554
1.73e-05
3.036e-08
6.669e-08
2.3e-06
1.37e-06
0.003814
0.0005276
0.0008452
1.638e-07
2.265e-05
5.239e-06
1.497e-10
1.964e-06
1.541e-11
0.0001027
6.131e-08
7.124e-07
9.538e-08
1.116e-09
5.894e-06
0.004559
0.003545
8.095e-06
0.000226
6.048e-09
0.00319
2.023e-07
0.001141
6.155e-07
6.023e-07
0.0002861
0.0001094
5.594e-07
0.002091
6.158e-07
8.933e-05
1.843e-08
4.746e-05
0.006502
3.106e-06
7.35e-06
0.00492
3.024e-05
4.007e-06
0.006671
4.518e-05
9.162e-05
0.0002957
5.933e-06
0.00112
0.0001913
0.0001055
0.006656
3.316e-05
2.101e-05
0.006693
8.135e-06
0.0001745
0.0005981
1.516e-05
1.343e-05
0.0004479
4.975e-06
2.294e-10
3.054e-08
1.034e-07
0.001131
2.297e-11
0.003062
2.767e-07
0.006691
0.0002634
6.069e-06
5.357e-05
5.98e-07
5.258e-06
3.277e-09
0.006698
9.192e-13
2.738e-07
6.592e-07
1.001e-06
3.012e-08
0.002007
0.004883
4.922e-09
6.395e-07
6.989e-05
6.125e-16
0.0004221
1.747e-07
1.214e-08
1.895e-07
1.415e-06
0.0002436
4.978e-08
4.658e-07
6.901e-05
0.0002473
6.374e-08
1.131e-07
0.001631
9.59e-12
9.948e-05
3.624e-07
0.0001231
2.621e-08
0.00664
0.006689
0.0006168
1.055e-11
0.0006535
0.002536
3.663e-11
2.29e-06
0.006692
1.05e-09
4.06e-07
0.000375
8.414e-11
2.725e-05
0.0001592
1.593e-15
0.003599
7.298e-09
0.001229
5.939e-07
4.459e-08
8.61e-08
1.04e-08
9.277e-06
1.323e-05
0.0001155
0.003254
1.102e-05
5.126e-05
2.017e-05
5.778e-07
0.002442
1.838e-08
0.00125
7.99e-05
0.001955
4.554e-06
3.412e-05
8.919e-06
9.562e-12
6.547e-05
4.795e-10
9.148e-08
8.156e-05
0.0001347
0.006693
0.001672
0.0002615
3.653e-05
6.786e-08
1.257e-08
6.753e-09
0.006681
5.473e-08
3.554e-06
0.0003631
3.789e-12
0.0001066
0.003511
5.508e-06
0.002786
4.157e-06
8.881e-05
2.057e-10
6.559e-05
0.0007999
0.0009774
0.006696
2.165e-13
5.459e-12
0.0002876
6.693e-05
2.511e-05
0.006501
0.006645
3.691e-05
0.001225
0.003566
0.0001166
0.003429
0.0034
1.66e-06
0.0003019
0.002702
1.089e-05
1.444e-07
2.493e-12
3.087e-05
6.303e-09
0.0001428
1.56e-05
0.006647
6.602e-08
0.001247
1.06e-06
1.193e-12
0.000272
0.002442
6.644e-05
9.941e-07
0.000526
7.049e-13
0.002259
0.0002201
0.002178
0.002314
2.899e-05
1.365e-07
3.691e-13
9.799e-05
9.619e-06
0.006674
1.515e-07
1.195e-07
0.006662
9.227e-08
1.955e-06
0.0001364
5.213e-08
0.006681
2.316e-05
1.556e-14
0.005101
2.377e-07
2.355e-06
6.023e-07
1.228e-09
5.347e-05
3.045e-05
1.508e-05
1.903e-09
0.0001103
3.019e-05
1.995e-05
6.391e-07
1.887e-08
3.911e-09
5.954e-07
0.0001246
0.00669
1.684e-05
0.003762
1.678e-08
1.163e-06
0.002448
0.0001103
0.00669
7.223e-05
1.757e-05
0.006585
0.002616
0.006096
9.082e-09
0.002616
1.827e-11
3.923e-05
0.0004508
6.473e-08
0.0003841
3.219e-07
6.06e-08
1.417e-14
0.0001189
3.229e-05
0.0005102
0.0005677
0.001378
0.006702
0.0003434
0.001412
0.001302
0.006699
0.002204
0.006684
2.737e-06
0.0001279
0.00667
0.006684
7.053e-05
0.0001475
6.405e-07
7.677e-05
0.006669
1.036e-05
0.0003113
6.891e-05
9.548e-14
2.445e-08
1.945e-11
2.153e-07
1.527e-06
9.72e-08
1.9e-07
0.0005272
0.0002498
5.89e-10
0.001116
3.387e-07
8.664e-06
0.000185
0.0002516
0.003945
0.006686
1.275e-14
0.0001944
1.186e-09
0.006691
1.587e-12
3.124e-07
8.109e-08
0.0001452
0.006635
0.006635
0.002341
0.001784
0.002334
0.001897
7.509e-07
5.318e-05
5.207e-06
0.003444
3.839e-05
3.702e-09
4.316e-06
0.0001279
0.000462
2.834e-05
1.906e-06
1.226e-06
6.243e-07
8.822e-08
0.0007727
0.002903
0.0002475
0.0001591
4.763e-11
0.0004861
0.0003158
1.005e-06
0.002868
3.193e-07
0.0004418
4.829e-07
0.004196
0.006692
0.000785
4.307e-06
9.411e-13
1.066e-09
7.802e-05
0.0001291
3.494e-07
0.0001289
0.006617
2.319e-07
6.339e-06
7.993e-14
6.267e-05
1.468e-11
0.0001809
0.006685
3.469e-05
3.19e-06
0.001821
1.489e-05
0.001034
1.463e-05
9.104e-07
0.0001201
0.0008066
1.439e-08
0.0001325
4.081e-07
3.863e-07
3.175e-08
0.003524
0.003522
8.356e-08
1.088e-05
3.113e-13
4.618e-06
1.81e-08
1.834e-08
1.273e-14
0.003225
1.886e-05
0.0004376
0.004141
0.006685
0.001154
0.006171
2.293e-12
0.006691
1.24e-09
4.096e-05
6.429e-06
8.76e-07
4.595e-08
0.002978
6.899e-10
0.0001405
5.963e-07
0.0006749
1.724e-09
0.006685
7.11e-05
1.764e-06
0.0008237
2.683e-07
4.934e-06
0.0003846
2.202e-07
1.212e-07
0.000176
0.006661
1.555e-08
0.003012
0.006648
5.598e-05
9.64e-08
0.00666
1.971e-09
0.006694
0.0003989
0.0002113
0.001149
6.17e-07
0.006657
0.000665
2.438e-06
0.0002275
3.689e-05
8.186e-06
3.811e-05
0.00669
0.00668
0.0003662
1.991e-13
5.131e-06
4.777e-07
0.00092
2.209e-10
7.377e-05
4.963e-05
0.003289
1.914e-05
3.259e-05
5.605e-08
0.0007222
2.964e-07
0.00113
0.0003091
0.006703
4.453e-06
6.122e-07
0.0006764
7.816e-07
1.27e-08
3.111e-05
0.006675
0.0004747
2.877e-09
5.518e-06
2.264e-12
7.444e-09
0.002999
0.0003097
1.294e-05
2.717e-10
0.0004462
9.856e-08
9.145e-09
0.003184
7.553e-05
0.006686
6.719e-05
1.81e-07
0.0001599
0.006692
1.739e-05
0.006692
9.958e-05
3.028e-05
0.006683
0.003028
6.022e-05
8.203e-06
0.001006
0.002891
1.129e-07
0.006696
6.285e-08
1.862e-09
4.563e-05
0.004015
2.096e-07
0.0009691
0.0001786
0.0005125
1.424e-08
2.393e-06
0.0004291
2.637e-08
0.000201
8.925e-05
3.454e-09
0.0001554
4.956e-05
1.459e-06
0.0002106
1.224e-07
0.0005075
1.098e-05
6.162e-07
0.0003523
0.002742
6.156e-07
0.003336
5.761e-05
6.518e-05
1.97e-12
0.0001661
3.668e-11
9.317e-05
0.006663
3.743e-11
2.893e-07
0.0001008
8.679e-08
0.0004108
0.0005165
0.006705
0.001845
1.795e-10
0.001118
7.357e-06
8.265e-07
2.606e-07
0.006695
7.816e-07
8.202e-06
1.06e-05
2.101e-08
0.0004468
5.9e-07
2.751e-09
0.006687
0.000259
0.0003932
0.003128
0.0002162
3.41e-05
4.034e-05
5.89e-06
9.126e-05
0.001382
0.00349
8.803e-05
0.000123
0.006505
2.762e-05
2.92e-08
2.579e-11
0.006687
1.216e-05
1.205e-10
0.002865
8.912e-07
0.002075
3.092e-07
2.61e-11
0.003368
0.002938
0.0002649
0.001024
3.706e-07
5.54e-06
0.001065
1.03e-09
3.779e-05
0.0004539
3.167e-05
5.066e-15
1.511e-14
0.0002855
0.0002273
3.88e-05
8.188e-05
0.001276
8.438e-06
0.001022
4.257e-07
5.069e-05
8.502e-05
4.263e-07
3.062e-10
0.0004694
9.749e-05
0.00669
3.163e-07
9.006e-05
0.0002569
1.761e-05
8.777e-05
2.873e-07
0.0002836
0.004045
0.006662
4.199e-08
7.697e-09
0.000453
2.745e-05
0.0008734
1.423e-12
9.56e-08
0.0002076
2.203e-05
2.011e-08
0.000584
3.843e-07
5.725e-13
0.006607
5.803e-10
2.91e-07
2.753e-07
0.005066
0.0007385
0.001773
2.328e-08
9.432e-06
0.001858
8.095e-09
0.004816
5.792e-06
1.711e-07
0.000136
0.002227
0.006679
7.004e-08
5.162e-09
3.897e-07
1.024e-08
7.17e-10
0.0008037
2.092e-11
0.002972
4.539e-07
1.802e-05
0.002854
0.0001351
0.004471
2.003e-06
0.001232
4.79e-07
0.003412
5.145e-07
6.136e-14
2.464e-11
0.000171
0.0004
3.299e-05
1.307e-05
0.002141
0.0002317
0.0001452
7.683e-05
0.006697
6.468e-07
4.273e-07
1.535e-07
8.307e-05
1.037e-05
2.139e-07
0.0006429
1.204e-07
1.728e-11
1.088e-09
0.0001124
4.645e-07
1.042e-13
0.001849
3.202e-07
0.004537
6.683e-06
1.033e-05
4.027e-16
9.324e-06
6.763e-06
0.003791
0.0001934
6.385e-08
0.0001296
0.006691
0.006697
0.001179
7.929e-09
0.001794
4.008e-07
1.217e-11
1.613e-06
0.001129
1.187e-08
0.00271
0.0001255
9.909e-10
0.000157
0.004806
0.0004308
9.261e-05
9.117e-05
7.832e-05
0.006695
4.28e-06
0.003505
9.316e-09
0.00376
1.508e-07
9.588e-09
5.026e-05
1.168e-08
0.00057
4.537e-07
4.008e-07
5.461e-07
2.177e-05
0.001562
0.0001644
0.0003815
2.414e-06
0.0001161
1.234e-08
2.152e-06
0.006694
0.0001143
0.004559
1.649e-08
8.47e-07
0.002799
0.001572
0.0001107
2.941e-08
0.003687
9.726e-05
0.0009322
0.0003285
0.002418
0.0008778
0.0002288
2.104e-11
0.0001111
0.000378
5.374e-07
0.006671
0.00123
7.476e-05
0.0001048
0.001676
0.006687
9.366e-05
2.497e-07
9.943e-07
0.006691
0.001119
0.002658
4.174e-06
5.1e-06
0.001284
0.0004014
0.0004398
1.512e-08
6.215e-08
0.002178
1.648e-06
0.00045
0.0001035
4.866e-07
3.111e-12
0.002423
1.187e-08
9.507e-08
0.00206
2.177e-12
0.006691
0.00666
1.311e-05
4.669e-05
1.334e-14
0.006692
0.001961
5.439e-07
4.402e-13
2.537e-06
2.833e-08
0.006321
0.006376
9.169e-08
9.57e-05
0.0004799
2.274e-06
5.857e-05
0.001437
9.7e-05
0.006705
1.331e-08
2.515e-07
5.806e-07
0.0006973
8.588e-10
0.001654
2.278e-05
0.006657
8.879e-06
2.352e-07
1.27e-08
5.39e-08
0.000116
5.352e-10
1.217e-05
0.0002779
5.22e-07
7.852e-06
9.193e-05
0.0001134
2.557e-06
8.549e-09
0.004982
0.00512
4.966e-06
7.098e-05
1.332e-10
9.423e-06
5.312e-08
5.373e-05
0.002979
0.00669
7.575e-06
0.006702
0.0004194
8.42e-12
2.474e-06
9.474e-05
1.058e-06
0.0001285
3.583e-10
3.495e-07
0.003372
6.742e-06
9.443e-06
4.822e-07
0.0009108
1.616e-06
7.38e-05
0.000166
0.0003766
0.0002272
4.959e-06
0.001414
6.503e-09
3.862e-07
0.0001872
0.0001573
2.686e-09
0.0001711
1.12e-05
1.276e-06
1.076e-06
7.715e-06
4.985e-06
1.934e-11
0.0001047
9.084e-05
0.001694
0.001585
0.006703
3.073e-07
0.002937
2.069e-11
1.579e-05
4.214e-05
8.237e-08
3.026e-13
8.565e-09
0.000451
7.877e-07
2.292e-08
2.342e-09
0.002801
0.0008526
2.043e-06
3.889e-12
5.928e-05
0.0001977
7.184e-05
7.526e-05
0.006691
0.0008285
6.055e-09
2.516e-05
4.53e-06
0.002412
0.0001218
2.289e-08
0.006641
0.0005088
9.79e-05
0.00164
1.526e-08
7.427e-05
4.043e-05
0.003358
6.119e-05
3.012e-07
2.879e-06
2.13e-11
7.938e-07
2.43e-06
0.006674
0.0003015
1.668e-05
3.129e-08
4.232e-08
1.757e-06
0.003539
0.000213
0.006373
9.764e-08
5.313e-08
8.513e-06
6.475e-06
0.0005171
4.443e-08
2.489e-08
9.941e-08
3.513e-06
7.371e-05
1.49e-06
1.453e-08
0.004589
0.0001453
1.325e-11
0.003161
0.0003794
0.005522
0.006698
5.726e-06
0.003111
1.421e-06
1.304e-06
0.0005102
0.0008441
2.564e-08
5.94e-08
5.318e-05
1.58e-07
5.877e-05
0.001822
1.156e-12
0.0003804
8.506e-05
0.003404
7.031e-12
0.001481
3.026e-09
6.741e-11
0.003792
3.6e-07
3.037e-08
3.309e-05
0.001106
9.483e-08
1.042e-06
1.049e-07
0.0005547
0.0003345
0.0002096
0.004368
0.0067
4.509e-05
0.00115
2.934e-05
2.717e-06
0.0003165
1.379e-11
0.001064
0.005652
9.989e-06
0.0002513
0.002201
1.164e-06
0.0002875
1.099e-06
2.932e-08
6.068e-09
3.686e-11
1.213e-05
2.091e-07
8.835e-06
9.556e-05
1.873e-05
2.243e-05
4.478e-12
1.719e-05
5.954e-07
8.742e-06
0.006676
8.168e-06
7.177e-06
0.001277
3.548e-05
3.09e-11
6.421e-07
1.387e-06
0.000744
0.0002604
1.228e-08
0.00669
1.64e-07
0.002229
0.0001497
3.868e-06
4.283e-08
0.006695
2.538e-05
0.001113
1.14e-05
3.544e-10
2.009e-05
0.000102
5.292e-14
0.0002796
2.296e-07
0.00665
0.006631
2.434e-07
0.0003829
2.125e-05
5.128e-07
5.273e-07
0.006685
3.292e-08
1.145e-08
0.0003825
0.005827
0.004686
0.0004032
0.0001426
2.334e-07
1.109e-14
3.528e-08
0.00524
5.159e-08
1.463e-10
8.853e-05
3.482e-08
1.39e-07
0.003071
8.607e-05
9.285e-08
0.002102
0.0006462
0.00663
0.006584
0.00661
0.006277
0.0001303
0.001015
4.965e-06
5.889e-08
1.666e-05
5.12e-05
0.0004639
1.461e-07
0.006162
0.0001154
0.0003031
6.919e-07
1.271e-06
2.618e-07
0.0001687
8.262e-07
1.193e-07
0.0004932
3.971e-07
0.0001893
5.54e-07
1.189e-13
2.3e-07
4.488e-10
4.344e-06
1.127e-06
0.00669
6.056e-12
0.000107
9.393e-08
1.725e-05
0.0001347
5.448e-12
0.006693
0.0002094
2.487e-06
0.00416
7.261e-05
8.009e-05
0.001018
0.0001995
1.307e-08
9.179e-05
9.044e-07
0.006626
8.346e-06
1.191e-05
1.297e-05
0.001108
2.696e-06
0.006678
0.005891
8.284e-05
2.47e-05
3.619e-07
0.0001019
0.0008367
0.0001106
5.041e-05
1.36e-08
1.151e-07
0.002339
0.00264
0.001013
0.0001363
0.0001066
6.753e-13
4.079e-06
0.006689
1.463e-10
0.006691
0.006684
0.0001291
0.002971
2.313e-09
0.000942
1.201e-08
0.0004618
8.354e-08
0.006695
9.933e-05
4.05e-05
2.096e-07
0.002016
0.003716
6.42e-05
1.306e-10
2.063e-08
0.006702
5.671e-10
2e-08
2.909e-14
0.003321
0.002685
0.001376
9.511e-05
0.0007234
0.002994
3.208e-06
1.145e-10
1.068e-05
3.696e-08
1.675e-13
0.00669
7.353e-08
2.219e-07
5.522e-07
0.006693
2.297e-08
1.39e-11
2.66e-13
1.722e-12
0.0001065
0.0003134
2.035e-12
0.0002755
7.216e-05
0.006686
0.0008918
1.426e-07
0.003462
4.358e-06
1.701e-12
0.0001439
0.0002815
2.011e-06
0.006706
0.003622
9.002e-08
4.816e-07
0.003922
5.647e-08
0.0001023
0.0001204
0.00158
0.0004837
3.558e-05
0.0001524
0.006691
0.0003632
0.0003905
2.019e-07
3.477e-06
8.656e-07
9.478e-08
1.25e-06
1.102e-11
2.684e-12
5.755e-16
6.778e-08
0.0001556
2.641e-08
0.0003469
1.6e-08
1.041e-08
0.00669
1.548e-13
0.006705
1.818e-05
9.045e-10
3.468e-09
0.0001743
1.499e-06
7.51e-06
4.319e-07
0.006627
9.214e-14
2.499e-05
0.003285
0.001698
0.0001793
4.241e-12
2.909e-11
4.96e-12
0.001589
6.159e-08
5.875e-08
0.0009729
2.695e-05
6.245e-07
5.705e-10
0.006667
0.0001758
8.858e-07
0.0001402
1.154e-06
0.0007091
0.0034
5.158e-10
3.867e-07
3.824e-07
3.663e-11
0.002521
1.504e-09
4.311e-05
1.243e-06
2.062e-05
0.005492
0.0001485
1.556e-06
1.512e-06
1.083e-05
1.24e-11
0.003302
0.00427
2.577e-05
1.697e-07
2.345e-09
0.0005363
0.00352
0.00643
0.0003232
8.238e-09
0.006364
5.054e-06
8.92e-08
9.118e-05
4.876e-05
0.000538
4.369e-11
7.228e-12
1.633e-12
9.016e-05
5.57e-08
0.0001157
6.479e-05
0.002587
0.002462
3.663e-10
0.001389
1.202e-08
1.531e-07
1.644e-08
3.66e-07
4.319e-05
7.927e-12
0.001116
7.791e-07
0.0005173
0.003519
1.091e-06
0.0001467
0.002476
3.341e-06
6.289e-07
0.0001355
1.611e-06
1.47e-06
7.51e-12
1.132e-13
0.002839
6.272e-13
0.002804
0.0001536
0.0001193
0.0002013
4.665e-06
0.006704
3.077e-07
9.4e-12
4.072e-06
8.132e-09
0.00162
0.000554
4.337e-07
0.0001032
0.001434
6.064e-06
0.001826
3.47e-10
4.331e-05
0.005398
0.0001164
7.704e-07
0.0067
0.0004569
5.956e-09
0.006694
2.867e-05
2.43e-05
1.589e-07
1.847e-05
1.41e-09
0.002967
0.001429
5.844e-05
3.119e-08
9.248e-08
4.186e-08
9.709e-07
0.006683
1.162e-07
0.006686
7.796e-05
2.743e-05
0.001151
2.128e-12
3.021e-05
3.878e-08
0.002899
7.313e-09
2.466e-05
0.002855
0.000607
4.811e-06
0.006669
2.881e-05
0.006694
3.056e-08
1.332e-07
2.721e-06
0.0001267
0.0066
1.345e-06
1.195e-07
8.441e-05
1.28e-08
4.098e-05
8.036e-07
0.0006931
0.000515
4.134e-05
4.973e-05
8.233e-06
2.631e-06
0.000112
1.995e-05
0.0001009
3.934e-06
7.196e-05
0.006624
0.006659
0.002254
0.000333
5.769e-06
1.309e-06
2.546e-06
0.002729
2.245e-07
7.9e-06
3.896e-07
0.006697
1.061e-06
5.837e-05
5.239e-09
0.003181
1.803e-13
0.0003007
3.53e-09
0.003825
0.0001146
1.882e-11
0.0003091
4.375e-07
2.88e-07
1.855e-07
1.128e-05
0.0001273
0.006693
2.574e-07
9.144e-06
0.0002436
0.0001483
0.000364
1.427e-05
0.0004256
8.968e-07
5.254e-08
0.006684
0.0008706
1.503e-06
5.975e-10
7.492e-06
0.006701
3.859e-06
1.366e-07
0.0006255
0.0006998
6.7e-06
6.179e-08
0.000216
2.395e-06
3.334e-05
0.002571
0.0001522
0.0002655
0.005419
5.414e-06
1.906e-12
0.0004333
0.000169
7.018e-09
1.442e-05
2.005e-05
0.006689
0.0003036
8.738e-05
0.003797
4.255e-11
4.894e-05
0.006697
0.001229
7.061e-07
3.02e-14
0.006697
0.0006747
8.32e-09
4.019e-07
3.088e-05
5.727e-05
5.396e-08
7.723e-05
3.377e-06
3.268e-08
1.234e-10
9.724e-08
0.00237
0.0001716
0.0005412
6.669e-05
0.006683
6.265e-05
2.3e-05
0.0009938
7.678e-06
1.795e-12
1.225e-09
0.003334
1.263e-06
9.812e-11
0.002604
7.857e-08
0.000676
3.813e-05
7.839e-05
5.544e-09
1.369e-11
0.006687
1.458e-05
6.168e-07
0.006697
8.316e-09
0.0009007
1.118e-05
0.0001373
0.0004175
3.283e-08
1.191e-05
3.287e-06
0.006699
0.003542
0.00369
0.0001628
0.006668
2.934e-05
0.0004011
1.023e-08
0.003107
0.0009252
1.103e-07
4.839e-09
0.002952
0.0002112
0.006673
1.319e-11
1.731e-05
4.159e-08
6.757e-08
0.0001305
1.076e-07
1.074e-05
2.541e-05
2.336e-12
0.003924
2.662e-11
0.006669
0.006683
0.0003721
6.484e-05
0.006683
8.952e-13
3.332e-07
1.36e-07
3.613e-08
1.086e-05
0.0002968
0.004998
7.323e-13
0.0004984
8.289e-07
0.006658
2.786e-05
0.0001613
0.0003349
0.0002102
0.0004502
0.003307
5.924e-06
0.006655
0.000232
1.395e-07
2.83e-08
4.212e-09
9.32e-05
0.0007249
5.831e-06
0.006699
1.07e-05
8.634e-06
0.000479
0.000232
0.000362
2.475e-11
0.006018
0.006678
3.604e-06
5.379e-07
0.002564
2.007e-08
0.006701
1.218e-07
5.804e-05
5.689e-07
0.006701
7.233e-05
1.835e-08
2.317e-07
8.146e-08
0.0005593
2.687e-06
0.006671
4.609e-08
0.004772
8.99e-07
1.156e-12
0.0008522
0.0001591
0.001613
2.136e-07
1.179e-09
6.141e-06
9.128e-05
0.006656
0.0001793
8.714e-05
0.006687
9.283e-06
1.846e-06
0.002425
0.006678
0.0001163
0.000127
0.0001996
1.777e-07
0.0001254
0.006691
4.273e-07
8.189e-07
6.17e-06
0.0005198
0.006696
0.006687
0.0003442
0.0003857
0.002271
5.158e-08
1.932e-12
2.067e-11
8.92e-07
7.327e-11
1.216e-09
0.002118
4.131e-12
0.0001266
9.658e-08
0.003343
6.973e-05
4.135e-05
9.412e-08
1.123e-06
4.036e-09
4.804e-06
0.0002624
0.0004272
1.734e-07
6.856e-07
2.609e-05
9.509e-05
8.389e-05
6.773e-05
1.362e-07
0.004326
0.0003566
8.25e-06
1.243e-05
1.362e-05
2.482e-06
1.976e-12
5.664e-09
0.006661
5.956e-10
0.000324
0.006647
3.302e-06
0.006694
2.295e-07
0.0001458
0.002976
1.057e-05
4.58e-07
0.006707
3.448e-05
0.003487
1.201e-10
0.0009584
1.74e-05
4.256e-11
2.648e-05
0.006687
2.8e-09
0.0005212
0.0004007
1.796e-05
0.002768
3.493e-07
2.209e-12
5.367e-08
0.0001032
0.00195
2.523e-05
5.445e-06
0.006687
0.0002016
1.542e-07
6.021e-07
9.854e-05
0.006701
1.103e-11
2.767e-07
1.93e-06
0.0001759
0.0002894
0.0002212
0.006653
0.000151
2.872e-06
3.022e-05
5.172e-05
4.004e-07
3.434e-08
0.00305
8.377e-06
8.55e-06
0.002127
5.521e-05
0.002991
2.054e-06
9.056e-06
7.314e-06
0.0067
2.839e-07
0.002902
0.000427
2.242e-05
4.061e-05
1.191e-07
0.0001332
1.286e-14
0.001604
3.764e-05
0.002385
0.006675
1.983e-05
2.935e-06
2.095e-09
6.875e-08
3.46e-05
7.209e-08
8.62e-09
0.000447
2.349e-05
0.0001091
8.37e-08
2.621e-10
0.0003453
0.0001544
5.584e-09
4.962e-05
1.156e-08
6.769e-06
0.001883
0.001114
2.177e-07
0.006693
0.0001095
6.783e-05
0.006689
0.0003907
5.422e-09
0.002857
1.031e-13
4.056e-08
8.804e-06
0.006688
0.0004332
3.422e-05
0.003686
0.000519
0.0003543
1.078e-06
1.574e-05
9.368e-08
0.006695
0.0001206
0.006676
4.073e-05
1.51e-05
1.129e-06
2.479e-05
8.382e-08
8.102e-14
0.006611
0.006692
1.814e-06
6.94e-07
9.183e-09
0.0001104
6.41e-05
3.104e-08
0.001295
0.001793
0.003059
1.266e-06
5.698e-09
3.611e-05
0.0005125
0.006686
9.537e-07
6.444e-05
0.0002406
8.232e-08
6.996e-05
0.002231
8.076e-08
1.611e-05
0.0004541
3.306e-06
9.907e-05
0.0002268
0.006682
0.006567
7.251e-08
5.941e-08
3.619e-06
0.004193
0.000111
0.003432
3.356e-07
4.584e-06
0.006601
9.523e-06
3.267e-05
3.47e-13
4.453e-09
1.64e-07
0.00668
6.147e-08
5.234e-07
1.214e-06
1.287e-06
1.203e-11
2.296e-05
0.0004772
4.932e-07
8.37e-07
3.833e-08
1.492e-09
0.002901
0.003215
0.004357
9.629e-05
9.126e-14
0.0009052
0.002156
7.164e-08
2.107e-06
0.001801
4.371e-07
0.0002512
1.203e-09
0.00133
6.314e-07
0.0005343
2.676e-05
1.983e-05
3.598e-13
0.0006434
2.001e-11
1.773e-11
0.00669
1.73e-11
1.895e-06
9.326e-09
6.295e-08
0.0003924
0.001547
5.282e-05
7.046e-07
7.571e-06
5.382e-05
0.001076
0.001017
0.000397
0.001042
0.0001331
1.701e-05
7.784e-05
0.002176
1.514e-11
0.0002834
1.897e-08
6.284e-07
5.837e-08
0.006647
1.86e-06
0.0001285
2.425e-08
0.001366
2.227e-11
1.184e-05
1.837e-07
9.122e-05
4.954e-08
8.335e-05
0.0007413
0.0003565
0.000167
9.181e-05
0.0005599
3.526e-06
0.0002479
2.321e-05
5.285e-06
2.615e-07
0.0004679
2.15e-11
4.335e-06
1.704e-11
4.219e-05
0.000907
6.758e-05
0.002515
0.0001689
5.265e-07
0.00669
0.003502
0.00669
0.0003007
4.105e-07
2.548e-05
0.003496
9.054e-06
0.0005586
5.843e-05
2.159e-12
2.891e-09
1.76e-11
2.406e-07
0.0001321
3.304e-08
5.195e-08
0.000121
2.343e-07
0.006695
0.0004827
0.003646
8.798e-06
0.001529
0.006679
0.006675
7.657e-05
0.002576
0.0001533
1.22e-12
3.473e-07
0.006672
0.006692
9.818e-07
0.0002611
4.775e-08
1.328e-10
0.00501
3.826e-05
6.742e-06
2.019e-07
8.087e-06
1.769e-12
9.489e-06
9.397e-05
1.549e-06
1.543e-07
3.644e-05
1.047e-05
4.779e-06
1.453e-05
3.18e-08
6.482e-05
7.678e-14
0.00566
1.013e-06
4.828e-07
2.664e-08
0.006695
0.0004136
0.006691
0.001619
0.0009716
3.087e-06
0.0004309
2.25e-07
1.345e-06
0.0001044
1.158e-08
6.236e-08
1.099e-06
1.915e-08
3.269e-08
0.0001675
7.026e-05
7.839e-07
1.164e-05