/*--------------------------------*- C++ -*----------------------------------*\
  =========                 |
  \\      /  F ield         | OpenFOAM: The Open Source CFD Toolbox
   \\    /   O peration     | Website:  https://openfoam.org
    \\  /    A nd           | Version:  8
     \\/     M anipulation  |
\*---------------------------------------------------------------------------*/
FoamFile
{
    version     2.0;
    format      ascii;
    class       volScalarField;
    location    "30";
    object      omega;
}
// * * * * * * * * * * * * * * * * * * * * * * * * * * * * * * * * * * * * * //

dimensions      [0 0 -1 0 0 0 0];

internalField   nonuniform List<scalar> 
127143
(
3.821e+07
7.184e+07
8.194e+07
3.494e+07
2.933e+06
3.537e+07
1.159e+06
2.025e+06
3.234e+06
4.719e+05
1.704e+06
2.662e+06
9.642e+07
2.958e+07
471.6
7.927e+04
9.896e+06
11.78
8.931
3.258e+04
17.7
7.132e+04
0.07713
258.2
7.682e+04
1592
5899
5732
5191
11.69
406.3
1752
7687
932.4
0.0402
6888
44.46
66.88
199.2
2133
8.96
0.3043
0.2287
1.373e+07
11.68
843.9
4663
16.66
265.1
224.1
5.051e+04
0.02511
39.79
0.1261
0.02092
559.6
0.0209
0.3037
0.02203
0.1254
0.2371
8.992
71.29
0.02211
339.8
0.3209
0.04113
86.49
85.91
0.08505
298.8
4000
13.52
0.02203
0.02179
4074
0.02252
29.44
551.1
0.02222
4815
2.907e+04
299.7
1333
16.29
24.88
154.7
4584
0.2733
504.4
0.02216
21.5
215.5
17.57
42.96
0.2584
0.2797
544.4
17.48
0.04076
0.02221
250.7
2484
4.744
23.56
18.11
90.95
0.0854
0.9653
0.02132
370.4
5175
24.38
3.378
0.02173
1.498
0.02273
0.02179
0.02245
2.882e+05
0.02134
282.8
45.25
0.1439
4745
2735
10.63
0.02298
47.42
623.4
39.87
46.75
37.27
28.72
1.119e+06
38.03
0.04753
15.62
3622
0.04041
0.1067
0.02215
34.73
20.47
40.7
21.68
1.741e+04
0.02213
50.08
3411
9.853
240.2
79.11
0.06317
43.59
15.95
0.3041
789.1
16.3
659
287.2
9.342e+04
0.02218
39.63
1383
258.6
57.06
0.3794
1121
0.02542
810.1
20.19
2.421
20.74
0.28
41.42
12.68
47.09
225.4
0.03174
20.66
0.03383
40.55
40.73
615.9
8.893
0.07119
3.236
238.4
0.03093
31.66
40.38
0.04397
48.06
2.051e+06
11.33
0.01938
0.01933
2.223e+05
0.02175
0.02168
0.02559
4.946
39.31
1.109e+07
125.6
0.04665
19.28
12.02
0.02174
1.936
19.45
0.02163
1139
66.54
2.288e+05
2627
20.6
30.33
0.04689
8.072
0.02184
242.2
50.36
785.9
908.1
972.2
70.07
295.2
13.03
18.61
0.0336
12.92
1.971e+05
18.43
0.08081
39.59
4.482e+06
0.02168
29.25
39.05
188
25.08
771.6
114.1
2.284e+05
155.6
5727
1.703e+05
0.1029
1.286
1164
27.23
16.99
380.1
1.04
0.02295
1214
5.391
0.04763
11.98
0.0269
15.29
0.02211
106.7
231.4
146.3
110.7
0.4432
30.22
891.8
0.2767
13.66
29.22
40.89
31.38
23.96
195.7
0.5342
2.943
0.07686
0.5558
4.661
0.02175
0.02173
1.891e+06
42.4
0.02173
210.8
0.03324
79.14
0.1775
0.08041
3.819
0.02166
2.129
355.3
123.4
25.09
25.52
516.8
0.2924
0.2262
1.228
908.8
20.08
19.14
0.02164
11.45
19.89
101.2
763
634.2
0.06031
0.02172
266.3
58.1
528.9
0.2398
2.472
0.07284
327
0.02735
27.32
285
68.05
0.03021
113.4
340
7.759
10.57
0.02173
0.0399
0.01939
0.01935
0.062
0.9528
2.412
10.59
47.97
0.03994
20.6
42.28
31.33
3.87
211.4
135.6
30.3
482.1
58.98
424.8
8.3
43.24
31.4
0.02708
113.9
16.98
15.49
0.02333
343.2
11.79
58.51
15.62
215.5
218.1
0.02192
0.02175
1.461
326.2
0.5259
0.6926
0.02749
774.5
233.9
0.02938
0.05866
319.8
1.546e+05
15.97
0.5687
21.71
2008
386.8
0.2902
0.02265
1.271e+04
0.03371
1848
11.61
33.08
0.02176
0.1572
456.7
377.2
237.7
393.9
0.1598
345.5
0.02702
0.02654
1287
0.02184
17.86
38.72
0.03448
15.66
21.14
34.72
0.02222
205
11.56
517.4
0.1073
14.71
30.21
41.36
21.65
994.4
112.6
234.6
53.96
4708
82.83
0.07762
13.35
0.05316
0.2028
0.07415
155.8
0.05373
0.02115
83.85
48.88
17.35
176.5
0.02192
20.9
114.1
0.0248
0.02166
0.02172
199.7
0.04823
1.242
0.02352
519.8
0.02171
187.1
1.56
19.48
17.32
342.1
13.28
398.8
0.03431
34.53
583.2
123.9
29.32
75.88
30.26
60.35
18.08
1.246
56.34
0.2076
0.02189
21.63
175.9
0.02078
14.51
8.128
0.1444
60.69
0.04179
0.02028
35.83
5.356
388.9
60.43
5491
155.8
94.39
638.5
5.413
174.4
69.69
0.02162
527.7
0.02218
124.6
140
39.07
24.6
3.46e+06
46.41
1.34
0.09915
1.58
0.02165
5456
0.02191
32.11
11.15
5.043e+06
2.529e+05
8.191e+05
0.02194
111.1
396.2
0.02172
10.57
71.53
44.13
5.686
17.8
345.7
14.39
3254
0.1752
23.21
1.663e+05
308.8
493.8
650.4
0.02193
8.99
3.6
19.09
0.0221
630.1
3428
452.3
0.01964
21.59
0.08517
1546
8.117
1779
14.92
0.02229
169.3
5.91
0.02081
0.2914
102.4
314.1
213.6
194.8
437.4
11.45
81.58
167.5
43.78
78.59
0.02183
1485
33.01
570
45.74
21.71
0.02212
0.02207
0.0459
143.4
2.406
0.02171
0.0295
2.639
580.7
21.7
5.462
746.6
3016
1.537
0.02221
0.02134
455.2
16.71
61
0.03178
3841
32.18
61.98
0.559
845.9
0.02171
19.86
34.35
25.26
0.02781
177.5
11.99
2.037e+04
0.02026
84.8
2523
0.02171
15.63
0.02173
153
61.31
0.02175
227.3
313.1
430.8
39.85
40.98
420.7
384.8
15.36
182.2
148.4
207.6
49.6
65.77
668.2
0.02679
524
0.02173
2.802
0.02318
36.46
0.02116
0.02173
0.432
231.8
22.18
0.02136
0.02114
255.3
2044
211.8
474
11.47
1.187
17.18
13.21
31.22
118.4
402.8
0.02138
84.12
30
0.3832
33.01
0.02229
0.02945
74.75
2788
69.31
1.092e+04
0.02314
0.0387
51.39
90.03
0.02537
304.8
0.1065
0.07653
201
5.371
30.1
0.08302
8.656e+06
774.8
28.44
34.85
41.52
56.33
714.2
114
0.0242
41.12
126.3
17.56
0.02121
186.7
0.2348
0.1472
0.01962
0.02119
1.122e+04
0.09972
399.2
43.62
93.2
11.48
0.3608
633.7
0.07215
368.5
0.02162
0.02089
1.702
0.05468
262.1
0.1484
1333
10.48
399.6
0.7611
16.25
0.03768
514.6
0.04201
390
1.213e+06
37.06
119.2
15.31
0.02937
61.97
212.3
8808
9.669
16.63
31.11
2886
22.03
312.4
8.546
300.7
78.52
19.77
10.48
0.2045
1.868e+07
0.233
0.02523
112.8
65.02
137.7
0.02154
58.71
8.329
21.41
0.04157
1.158e+04
75.19
864.6
0.04776
130.2
48.91
105.3
46.79
0.03992
16.24
569.1
235.6
17.53
0.02177
43.29
49.94
0.02176
20.11
0.5715
52.85
45.89
0.2581
37.3
1507
120.9
0.01935
16.39
9.126
1492
498.8
0.1385
10.42
382.4
0.01938
41.97
198.8
53.02
1.371e+05
55.26
423
23.16
23.35
2.01
0.02193
1.397e+07
37.75
37.35
1003
23.38
137.6
68.54
256.8
0.02132
8.637
4.835
0.03983
84.5
122.9
93.24
45.97
0.02048
16.58
44.97
0.02162
0.02042
33.59
9.066
11.43
129.4
19.7
4.926e+04
7.951
0.1344
0.02123
24.18
50.06
369.8
722.7
0.3422
0.05621
0.02185
1.996
4556
0.02125
0.4716
1813
62.1
1541
0.02739
25.12
66.9
0.0218
471.1
0.0212
96.85
4580
66.39
142.7
3362
0.02195
215.7
0.09122
609
238.4
756.6
4109
0.1376
0.4082
0.6836
2e+04
0.02178
58.36
531.5
849.5
133.1
5057
0.05396
1.914
466.9
2165
1.115e+04
387.4
3.474e+05
630.4
6.393e+04
46.25
807.3
8.684
8860
0.02249
118.4
0.02744
0.02705
28.34
0.02483
35.95
15.35
2.834
1.063
0.03595
401.8
121.5
0.02176
10.33
40.41
0.03475
276.8
3.784e+04
38.63
16.35
391.8
23.44
192.2
0.02168
40.51
390.6
0.02313
205.3
33.04
8.827
0.02069
2.486
14.54
1.131e+05
2.527
3.826e+04
14.26
20.9
93.27
3784
116.9
0.02399
3219
0.2002
0.02439
1.595
1.213e+05
27.24
239.9
9.984
2.576
7374
5.832e+04
258.7
0.02219
0.02183
17.41
3.53
65.99
200.7
10.25
2072
179.3
0.05771
2029
0.0422
1899
0.0216
17.19
763.5
20.44
79.41
16.77
0.02177
0.02178
700.1
0.1302
106.4
259.1
269.2
12.96
94.09
141.3
81.3
1.54e+04
33.18
453.2
235.2
14.41
11.66
48.7
123.1
1555
4.457e+04
17.33
0.02154
0.02138
14.33
25.08
0.4923
0.02078
15.63
17.31
0.5013
209.9
85.7
147.6
0.9666
0.02223
0.2104
0.5517
4673
913.9
51.14
0.201
53.41
301.2
246.1
28.1
9.574
36.41
148
57.26
2443
0.02274
4546
4522
9.024
37.49
449.1
0.02173
1.148e+04
1.758e+04
0.02212
0.02154
36.78
20.49
1.624e+05
142.2
113.9
423.4
222.4
0.239
0.3175
0.02269
263.6
21.04
137.2
2.197
1928
30.94
0.03015
1.153e+04
70.97
0.02172
88.28
0.02613
0.02164
24.52
0.08278
1.205e+04
0.02157
469.4
0.02181
158.5
0.07165
10.19
7.437
467.9
321.4
238.7
42.3
0.05527
0.03697
21.41
208.9
143.9
173.2
3886
258.7
1.759e+04
42.9
396.5
191.1
302
1557
0.09906
8.749
0.05414
149
81.75
831.1
0.06762
414.6
12.73
91.47
114.9
32.46
0.7759
441.3
11.15
91.51
119.1
654
250.3
0.02117
22.84
156.4
0.02181
81.98
264.4
0.02065
1.464
144
0.03457
0.1027
29.93
95.98
0.1309
0.01975
75.25
91.74
0.0216
0.079
0.02842
17.16
104.7
10.28
0.03304
716.9
3.483e+04
510.1
265.3
12.13
8853
0.08015
161.2
0.02176
25.5
5.439
62.7
114.7
878.3
2490
0.02196
1.665e+05
540.7
384.5
56.07
1092
10.47
9.728
1034
76.92
0.03119
3.354e+05
32.94
258.1
722.7
191.6
111.7
79.49
1970
101.3
56.61
142.9
344.5
279.8
24.17
3.092e+04
0.09391
131.5
0.08306
485.6
0.01968
0.02165
65.41
1.129e+04
18.23
1.779
1.314e+04
438.2
0.02179
1726
113.1
115.9
3.858e+04
1.504
55.45
3.373e+06
10.5
3016
11.77
84.76
1411
289.5
668.5
5.884
107.4
0.07422
15.58
30.17
60.62
7.905
109.8
10.9
7550
15.23
0.1957
14.34
0.2901
0.298
13.8
2.944e+04
0.03398
2656
808.6
72.08
39.36
0.0218
10.36
33.43
0.4572
1357
724.4
886.9
0.02135
372.4
770.5
23.27
1.122e+04
126.1
8.606
332
0.02183
415.4
56.49
3516
56.88
0.06537
14.42
0.02171
4.124e+04
1.304e+04
32.68
0.4054
6.519
0.02086
0.01976
215.3
24.61
8.443
0.05894
0.05253
0.0531
1.643
23.89
11.45
90.79
240.1
1.338e+04
0.5513
774.3
70.8
110.4
0.0198
397.4
11.61
75.67
1.659e+04
101.9
9.49
54.86
58.15
21.11
5.176e+04
21.36
28.48
11.16
10.01
4.694
231.2
4.295e+04
0.09393
582.9
0.02118
253.6
838.2
0.0203
1253
40.38
45.63
370.9
0.02137
0.553
1.105e+05
0.02173
214.5
232.1
94.38
5074
0.4733
4.635
358
1476
42.36
75.64
0.04609
100.9
3123
6057
458.7
37.97
0.02169
174.2
8.541
613.2
82.69
9.156
40.93
0.02162
2.22
113.2
0.02214
10.4
0.02294
2741
10.95
9460
93.72
50.15
652.7
22.6
175.7
410.4
8.516e+04
39.23
75.6
44.46
19.17
13.42
0.02211
50.51
0.02198
11.4
0.022
14.3
0.02147
276.7
66.04
0.02065
0.02161
184.5
0.1183
374.2
0.08067
0.02
4.818
23.8
0.02995
8.692e+05
1354
9.036e+04
181.5
39.37
274.7
188.4
45.24
6.579
2256
25.22
630.1
197.9
33.99
72.21
8.308
0.02155
8.447e+04
30.25
2360
0.02178
1.513e+04
202.7
288.1
76.61
0.01973
0.01971
15.51
24.13
6.084
9.754
68.6
0.5731
0.5162
3.015
3.92
1376
35.74
0.618
19.51
4.77
381.1
305
87.75
300.2
14.76
0.02183
77.02
96.15
5571
38.5
0.03479
77.18
1.297
152.6
46.16
531.3
14.37
0.02174
20.92
33.32
2.138e+04
4890
0.496
37.23
484
0.1507
0.01972
684.8
153.7
7.834e+04
0.04666
3.13e+04
60.62
0.02152
71.8
588.2
10.37
0.08208
15.2
340.1
59.91
66.83
48.15
1255
0.03914
252.9
473.4
473.2
0.05916
0.05901
318.7
3.144
7.665e+04
41.26
562.4
626.7
8.492e+04
1.556
156.1
0.02417
0.02173
0.02149
15.13
0.02348
2.367e+04
0.02172
3585
0.2066
21.54
130.8
437.1
0.09748
8017
0.2445
118.6
15.69
4163
0.02168
54.71
288.7
14.2
3813
704.1
21.52
688
1159
0.04412
0.0206
3837
0.07443
0.01994
0.2122
3218
0.0206
1438
0.02184
27.25
143
13.25
48.91
0.02091
18.01
225.7
88.85
0.05181
13.69
0.1279
0.02173
0.02122
34.46
1.558e+05
26.76
96.76
0.02356
1.042e+04
0.2547
0.06665
0.06253
0.9975
77.34
392.9
0.0243
218.2
0.02214
32.2
0.02217
0.1755
136.4
37.87
2.147
705.7
75.4
0.02118
61.09
1055
196.6
1.383e+04
731.6
9.078
0.03326
2.058
1.628e+04
49.75
657.8
9668
0.07799
0.1006
0.02159
69.7
202.5
74.44
0.0218
284.1
0.02175
0.1598
81.92
0.02135
8.685
0.3931
21.41
14.49
1.224
281.1
0.0219
388.1
2700
3.504
8.759
177.2
0.03968
162.5
41.5
1558
60.04
39.46
469.5
33.17
57.71
3644
0.06579
0.1072
82.39
0.03312
231.9
18.48
0.07433
84.36
0.02367
0.41
1580
14.17
151.6
68.75
1.451e+04
44.96
5528
0.7997
0.02066
5603
142.3
0.08583
302.1
0.02732
46.12
0.02223
10.85
3126
12.96
6.153
72.83
152.2
0.02187
66.28
0.2019
4.387
507
0.02465
99.99
1121
0.02159
0.02463
51.53
0.07573
82.93
1.976
1.272
15.75
0.5434
19.51
0.07193
1.999
38.31
0.02117
0.1279
816.4
1.479e+04
0.02085
167.6
4526
11.26
171.6
9.738
161.7
1.439e+04
0.05902
0.1143
66.34
0.02454
350.1
7.731
20.1
1863
73.84
0.02426
77.82
2.225e+05
8.321e+05
67.16
73.62
72.37
0.7762
14.84
12.22
23.36
452.3
176.8
164
193.1
7221
18.75
1.645
0.0217
536.8
1.754
25.84
0.1214
0.03638
149.8
67.74
8.407
0.02034
475.9
745.1
109.2
108
13.9
1.566e+04
293.4
0.02564
92.99
5805
18.99
114.1
2.572e+04
0.0194
2149
488.2
165.3
0.02774
18.57
11.17
519.1
122
17.5
739.4
0.03489
1.624
201
0.04721
13.49
0.02165
341.3
2630
151.8
810.3
1.148e+04
20.66
6475
0.1121
451.4
4.236
10.2
0.0331
9.497
31.73
17.23
120.5
0.06823
103.5
5.871e+04
1.564e+04
47.75
72.47
0.4019
0.4704
0.02182
0.02495
56.15
0.2578
0.02166
80.56
133.1
237
108.1
13.32
208.9
47.73
1152
1.671e+04
1.819e+04
0.07873
101.2
4.583e+04
9.849
1771
9.148
15.55
43.3
5.816e+05
11.36
14.12
0.0447
0.04912
790.4
60.21
0.02172
0.02196
11.96
740.5
16.67
112.4
1.033e+04
5.354
0.02393
614.2
10.47
73.37
1554
1.277
7.125
40.48
44.22
0.7128
45.17
0.02188
547.4
9.503
655.7
14.73
218
2026
2.177
648.9
59.72
450
144.8
1693
0.06525
10.88
36.26
21.28
247.1
81.51
3313
285.3
0.02163
94.86
9.221
532.8
69
0.2774
17.38
0.06775
1702
0.05029
76.35
29.8
45.78
12.21
19.92
1.835
1.607e+04
0.1663
0.0241
621.7
0.0209
16.39
0.02959
0.8559
10.51
0.02151
0.2255
209
1194
0.02176
0.02276
11.78
19.6
143.9
0.1484
54.74
38.92
746.1
367.9
23.1
79.88
110
0.08398
109.6
1.703e+04
8.978
2092
323.8
9.578
1.425e+04
0.02172
0.0206
0.6969
3.16
9.238e+04
0.02179
12.66
484.4
8.885e+04
222.8
483.5
0.01983
0.0196
303.7
47.3
41.21
33.32
0.03058
28.72
1.652
0.02222
609.2
175.1
83.11
31.72
1677
12.11
1.981
0.01976
12.53
202.9
639.2
433.9
39.81
5547
366.7
33.11
119.5
150.8
45.26
0.06249
61.96
3292
0.02814
0.02706
191.5
100
3883
0.8292
574.9
52.85
0.1435
0.02172
4.406
0.02211
20.58
1.149e+04
8.094
0.1069
75.52
0.0424
6895
330.6
0.06686
15.16
12.93
96.57
23.01
72.75
49.42
34.87
24.56
32.15
18.17
11.1
1271
125.9
30.98
95.21
6659
71.62
349.7
381.7
1.481
0.9456
23.15
6508
0.3181
59.19
0.02213
14.31
0.02214
148
8.503
6526
103.9
0.07349
836.1
5.372e+04
811.3
22.58
65.96
549.8
1402
0.2728
24.12
30.46
3.438e+04
56.28
31.31
0.1951
0.2098
0.02174
24.09
5084
5.755
937.6
12.8
0.06522
1103
0.0197
56.88
0.3669
20.05
1108
0.161
1.995
9.052
0.03439
215
25.95
1.776e+04
737.3
162.4
0.0214
33.26
131.4
2999
971.6
34.6
8.198
35.35
0.02171
270.3
601.4
2.891
15.78
36.75
1436
487.3
365.4
18.63
0.3735
0.9266
6877
8.827
0.05699
2.31e+04
0.06897
25.61
0.02173
0.02199
21.61
0.02182
538.9
69.78
41.01
21.7
476.5
1363
60.01
545.4
56.43
16.42
1.484e+05
21.68
46.59
2.418
5.788e+04
11.52
4818
5852
0.04458
475.1
458.9
4.506
13.04
3093
188.9
787.5
17.34
23.11
0.02548
8.558
0.02206
0.4926
12.68
275.1
50.92
64.26
9891
12.47
0.0218
132
26.16
17.6
47.63
25.24
43.67
441.5
1232
5107
153.5
201.4
470.5
43.88
139.8
0.06013
7.239e+04
94.5
84.46
0.841
0.02158
290.6
155.1
14.89
4.263
5467
417.2
115.9
65.03
29.6
2106
0.02164
4102
9.278
0.03338
33.35
481.1
0.02164
87.41
12.56
13.59
5938
8.438
41.02
5.813e+04
25.27
195.6
0.01965
0.0196
186.7
95.28
2.32
199.6
117.1
0.02151
1657
681.5
27.51
0.02174
0.02181
35.48
75.18
189.5
1.963e+05
499.2
0.03032
395.6
1.865e+04
0.07421
451.5
256.8
0.1104
0.8115
812.7
28.05
30.5
0.01964
0.01951
0.01947
0.02031
0.07376
27.43
23.17
514.1
7.916
144.6
20.41
533.7
0.02083
40.44
34.16
1780
461.1
2256
102.5
63.37
262
25.73
141.3
0.1455
92.98
1.1e+05
190.5
2049
0.2166
114.6
0.02172
6.032e+04
41.13
298
7.155
0.02973
1.932e+04
0.02179
44.62
316.7
0.04647
47.77
56.64
14.42
69.03
3666
0.03609
335
0.02066
1.589
128.3
149.7
14.1
54.06
0.0215
0.02168
0.1332
344.7
483.2
0.1825
15.15
53.34
3.121
2004
265.8
13.54
9.911
28.15
38.06
0.1342
2.919e+04
0.1823
0.02173
4836
0.0217
0.02168
0.3225
0.1117
3617
13.25
726.4
21.43
279.3
0.02187
0.07767
190.2
178.2
12.69
0.05856
0.1659
1.715e+04
1811
0.02213
3403
2357
9.481e+04
0.06951
11.5
17.58
0.06984
0.02299
10.84
58.2
1.438e+04
0.06118
417.3
6.369e+05
0.02174
309.2
896.3
113
0.02178
511
2.444e+04
3.857e+04
1.965e+04
0.3591
129.9
2.036e+04
0.04517
54.79
0.02153
14.58
345.7
8.405
182.4
1.904e+04
0.2198
70.48
65.8
0.02225
0.02911
336.1
464.8
9.305
3978
43.11
1.243
10.71
25.9
174.9
39.61
0.02174
52.18
34.72
181.4
207.8
130.5
319.2
71.78
2.508e+04
2.877e+04
3.566e+05
351.2
0.04434
774.1
0.02418
571
1084
0.02175
1.922e+05
0.02221
109.4
4815
1227
97.16
49.21
263.9
245.7
0.01964
1.637e+05
256
0.05937
10.3
68.79
3.222e+04
6065
5.738e+04
11.16
368.1
1708
15.39
0.0611
81.02
3399
0.02088
35.84
59.52
104.2
48.92
28.48
11.25
1877
114.1
134.8
5904
0.08793
1383
0.06985
50.09
129.7
0.02339
0.06849
43.02
276.6
103
2.409e+04
0.05719
0.02171
5.363
203
1260
23.96
8.203
0.01969
0.02754
716.4
0.01997
169.4
326.5
0.06055
60.62
34.38
7886
2.567e+04
1.51e+04
0.03144
371.9
56.15
53.42
10.95
9.463
6293
12.62
788.8
215
3262
165.9
1.519
1.474e+04
25.67
76.16
23.97
0.05286
53.35
0.4962
0.02179
26.6
81.97
36.23
91.93
39.74
4.702e+04
7.37e+04
11.07
5.447e+05
0.2889
0.5468
0.02964
0.0443
30.17
0.02221
287.4
2.155e+04
222
1937
36.09
51.73
157.1
41.72
11.22
234
16.18
2277
68.85
0.02595
76.49
78.54
0.02204
0.03492
882.2
0.02185
81.58
84.77
211.1
8.065
1272
0.09929
30.94
0.03392
505.1
5315
583.5
57.77
0.02143
344
0.02153
0.2487
82.33
36.2
1.432e+04
76.86
408.3
9.637
1676
0.3523
0.2098
16.42
180
0.02083
5.266
0.02185
529.6
710.1
69.54
45.83
0.0216
283.6
281.7
57.85
1.442e+04
83.21
1037
0.02259
40.72
3.73
2.146
110
25.67
0.06966
0.8681
0.09975
18.73
74.6
0.02069
0.02024
0.02196
0.03322
0.1086
1346
219.7
0.02176
188.9
11.86
130.7
0.02194
190
0.05368
912.4
0.09864
1.085e+05
135
968.5
0.04457
0.08324
1.528e+04
0.02689
126.1
159.8
228.9
123.9
41.33
0.02181
219
264.7
77.35
50.29
32.94
8.369
21.58
75.04
938.9
0.02149
14.72
45.54
1898
0.0829
0.02209
123.1
592.4
16.31
16.86
15.54
733.3
0.03799
27.28
260.1
11.18
97.12
107.1
0.02583
4.053
1.582e+04
101.2
89.81
1938
0.9524
7.745
0.02166
0.02639
0.1058
0.04756
1.611e+04
61.07
0.02195
0.02223
83.68
7.597e+04
0.02194
18.16
5600
127.5
5.317
57.86
1248
45.42
6.985
436.5
2.92e+04
888.5
0.0218
32.15
54
52.99
0.02139
0.2856
95.08
20.87
191.2
1.879e+04
2502
12.08
300.3
3.04e+04
9.976
481
17.21
0.9971
0.6936
931.9
1.042e+04
0.02157
105.7
103.3
0.02193
2061
13.5
1.107
0.06013
59.1
425
122
42.02
0.02165
0.02175
10.52
91.9
0.01998
21.61
0.02428
1111
11.2
13.5
306.8
816.3
14.73
84.3
0.02139
1.831e+04
3.765
1684
330.1
0.05734
734.6
35.82
89.51
1.437e+04
8.335
1.342e+04
0.02074
0.02123
21.3
0.04241
0.02139
3.511e+04
169.7
280.5
1516
95.16
24.34
0.02861
3.404e+04
0.03974
79.57
0.02022
0.07947
108.2
29.07
29.02
52.57
9.501
414.6
0.02046
27.83
1819
1715
2437
0.1085
31.86
15.65
0.02195
384.7
134.8
2.372
0.03815
56.12
1.478e+04
0.02194
0.0215
21.53
1158
11.14
1440
0.02206
2364
56.37
107.4
0.02208
0.05983
531.9
202.5
852.6
17.46
11.63
0.02043
461
0.03136
376.1
2.396e+04
0.05579
77.26
10.52
3471
9550
491.1
0.04893
0.02047
33.62
0.1313
0.02163
124.3
86.79
10.38
0.0203
0.06249
0.06052
0.0256
331.4
39.72
0.02172
327.8
83.16
552.2
0.02564
0.02191
0.02162
0.05077
121.5
17.89
373.2
1.519e+04
9079
75.6
2.968e+04
1837
0.02288
1.294e+04
38.31
1304
9.559
0.1035
1.134
3074
316.8
1389
204.9
0.04821
19.94
271.4
89.32
6.097
0.1618
115.4
0.09586
269.4
0.03713
22.59
16.26
13.88
0.1342
322.5
2.817e+04
2122
0.02061
1.534e+04
23.83
0.01992
57.78
0.02181
754.1
37.52
0.1191
152.3
201
0.0223
0.8778
8.425
4208
0.02223
0.1087
5054
5.136
0.02157
1223
23.66
0.03043
0.1032
13.63
148.6
1.938e+04
362.6
41.94
11.51
351.2
0.3905
0.02169
0.03721
303.1
87.97
43.08
0.02207
4.063e+04
187.6
31.85
90.38
24.26
36.97
0.02016
0.05456
218.9
77.75
0.03633
108.9
460.4
9.354
0.9602
2.229
9.372
0.03515
8.594
31.44
71.81
17.36
0.02205
527.3
0.1666
26.41
6.803
3.532
1887
37.06
1.033e+05
16.65
0.269
0.3066
0.02117
6.75
24.51
1426
505.5
87.98
315.3
1459
47.26
0.2999
40.26
345.8
2730
31.74
0.03484
826.1
0.5678
654.4
14.05
10.27
24.11
191.4
0.02179
103
0.1814
0.02164
6.844
812.6
1.306
7.037e+05
430.5
374.8
0.02165
43.12
76.05
0.05048
23.88
37.11
1147
180.6
1172
0.02188
50.92
0.02064
3.524
113.5
154.7
6.231
364.6
5.25e+05
0.02147
0.02174
45.87
101.5
707.4
1.31
104
443.1
25.87
12.78
0.02177
140.8
998.3
0.05591
20.74
0.02156
85.73
0.04631
75.4
295.7
51.66
0.3161
804.7
128.2
0.02467
225.3
48.02
1.908
0.02145
0.02247
317.7
1598
24.01
8.273
42.31
17.46
148.3
23.56
0.01941
0.1321
0.2948
2.869e+04
1008
661.5
0.02134
357.2
118.7
887.9
652.3
7385
2.014
35.68
97.33
64.07
418.2
1573
17.98
0.07593
9.624
0.02936
5.274e+04
0.02221
14.37
331.6
33.82
12.86
290.5
29.22
4650
11.27
164.1
62.12
5.068
132.3
2.777e+04
20.49
1.555e+04
1.074e+04
0.02174
1.721e+04
52.18
817.3
954.6
52.6
35.61
122.2
74.62
16.38
0.03372
15.91
13.39
47.07
22.84
38.61
0.3222
1.809
26.4
1.778e+04
28.26
3000
87.93
361
0.02027
274
37.77
1442
11.66
6889
126.9
236.1
0.06843
1282
0.06024
16.6
22.36
0.06537
0.546
17.15
25.11
66.04
142.7
16
159.1
25.36
6926
22.49
9.512e+04
0.03365
47.47
97.42
9.361
0.03789
271.3
0.02172
0.02189
0.02173
31.78
129.4
308.4
14.28
0.06861
27.13
0.03628
9.416e+04
1139
1.696e+04
194.5
0.05113
445.4
1506
0.06987
721.9
0.02186
43.77
9.146
300.2
27.98
0.02128
0.02138
51.12
8.925
0.03523
1.818e+04
140.6
0.02095
0.0218
55.58
0.03012
436.3
3538
0.03293
4.089
273.8
407.7
155.6
1.901e+04
6.376
0.1239
38.35
230.6
0.09865
130.8
28.55
0.7394
433.4
58.58
5.517e+05
0.02682
77.09
2850
1234
0.02183
23.25
0.02175
14.92
50.97
39.49
47.1
228.5
24.37
0.1391
714.5
909.2
325.8
659.3
454.1
34.4
15.45
66.05
118.3
19.02
295
0.02244
1.614e+04
6268
790.6
35.39
9.098
1147
365.4
0.2162
0.9889
2.14e+04
72.82
0.05623
0.03196
0.05244
267.1
313.9
26.26
1621
69.87
0.03742
110.9
59.89
59.79
308.8
9.811e+04
400
54.75
235
25.96
46.68
1268
34.65
22.23
9.193
820.8
22.34
0.1932
31.86
392.6
0.07189
153.5
0.2081
15.65
1.878e+04
372.5
0.02204
321.7
16.62
8785
493.1
0.02135
0.08604
431
0.02794
24.35
1026
269.9
9.089
0.02176
0.1522
12.35
14.04
0.07715
282.1
0.02077
360.2
19.09
208.9
150.8
38.95
40.67
294.9
306.8
0.1379
79.81
0.02181
2.535e+04
0.03273
0.0317
153.9
0.02177
5.33
10.27
3.372e+05
0.02196
129.4
66.19
316.2
273
0.1876
37.55
23.09
260.8
1273
22.89
0.0625
0.02189
161
202.1
22.35
38.43
548.9
1141
0.531
0.02113
31.31
188.9
3.903e+04
48.39
42.68
0.4001
178.3
0.0215
14.25
2191
692.4
0.02197
0.1655
486.9
0.01977
73.45
830.9
40.35
0.02195
0.022
8.704
0.02296
0.02013
0.02173
8.492
243.1
737.9
0.3271
126.6
8.212
14.21
0.02225
14.63
62.83
0.04077
0.6066
671.1
11.72
0.02493
857.9
27.73
8.283
1.615e+04
2.013e+04
0.02461
53.25
18.12
183.8
32.89
1821
0.02194
169.5
1.768e+04
2.759
185.3
0.3585
1072
33.59
158.9
13.07
9070
0.04665
5656
28.09
0.02533
0.02797
0.02006
128
19.16
1254
109.8
2.878e+04
0.06267
0.01942
113.7
272.3
0.06307
0.02177
510.5
9.721
553.3
27.24
895.2
164.2
54.39
5.023
203.3
0.01971
9072
74.81
36.19
13.12
0.05959
0.02185
19.91
12.38
298.6
1946
35.28
0.03713
31.17
14.29
0.05311
0.0218
800.1
161.5
2548
88.89
20.72
0.8314
37.79
15.79
5.722
77.58
0.3368
0.1153
0.02192
42.44
7198
21.46
0.3111
2662
0.5228
0.02168
18.89
0.02908
0.02203
8.105
0.01935
0.01931
1.968
0.02011
27.8
2.432e+04
319.4
11.57
0.1179
0.02113
0.02197
53.75
175.2
13.39
1.736e+04
14.58
0.03021
11.02
31.73
1317
4.549
0.02198
2.658
17.46
0.02203
0.02136
44.22
189.2
0.04826
0.02736
42.92
0.0213
1.885
0.02148
9.808e+04
5.991
466.2
9.512
0.02681
1.379
9.112
19.32
426.2
20.23
69.46
15.52
0.02214
1.209e+04
14.87
267.1
0.02191
203.2
138.6
49.8
320.3
0.1851
190.7
10.85
0.1196
1461
0.02205
2.156e+05
14.21
9689
0.02197
85.95
0.02173
0.08531
2.975
3265
14.53
116.7
13.31
0.1177
1373
0.1318
810.7
1660
8.316
0.07622
0.05834
313.8
0.02162
3.003
19.36
42.54
14.02
0.02174
5506
0.03416
111
294.8
73.59
579.4
4555
19.67
414.3
88.24
1.488
15.18
0.3359
0.02172
0.02181
319
10.55
6508
16.67
23.93
0.02179
55.27
0.02179
0.02168
0.0322
123.1
0.094
15.47
0.03604
30.39
0.1539
41.97
210.6
1329
0.0245
140.6
120.6
82.94
0.1473
19.45
0.02187
81.14
0.4367
47.28
3.121
0.03327
196.4
3.748e+04
157.3
1025
19.74
1.123e+04
876.9
1.413
20.67
722.9
43.37
4.423e+04
220.5
20.85
40.7
69.88
25.71
532.2
357.6
0.03919
27.09
0.09806
360.5
1.035e+04
71.98
678.3
251.8
12.86
167.7
0.03366
193.2
26.51
2.081e+04
10.49
0.02223
17.74
32.37
131.1
0.05944
78.16
139.2
21.78
0.2905
147
16.18
4363
136.3
57.41
21.57
18.35
482.6
0.02435
244.4
3.196
0.02329
46
48.51
195.1
288
97.1
0.02202
427.3
5.743
0.06809
1.117
305.1
6.267e+04
61.39
0.02084
0.02519
0.2687
180.2
53.84
0.0215
1.51
206
428.4
5802
0.02103
203.7
2530
38.2
4.817e+04
50.93
62.2
182
22.81
46.81
0.02306
45.65
2431
45.94
230.3
1.316
21.84
0.02159
0.07819
207.6
106.6
20.77
643.5
54.99
0.0217
2227
44.72
0.1339
292.6
5510
6810
0.04361
0.1181
0.02433
79.08
1829
302.8
971.5
101.3
356.2
0.02181
41.78
5.066
9.519
2835
0.3323
1.739e+04
60.04
1329
0.03204
141.2
1260
0.02168
128.2
71.26
43.85
11.28
0.0219
0.02168
0.03873
25.31
0.0217
12.58
6114
0.09658
16.09
209.7
0.03682
60.87
11.02
0.2811
1368
92.71
6149
38.41
0.02173
117.2
1701
0.0217
4032
10.62
53.86
31.53
137.1
51.42
181.6
15.51
10.64
0.02194
11.48
0.02178
0.05283
1119
111.3
47.13
37.51
0.6615
97.08
0.02173
0.01964
0.04775
76.34
32.59
73.39
1.741e+04
13.2
1.152
133.5
0.5171
8.33
0.02135
499.7
451.6
17.05
13.47
60.71
105.9
31.57
19.36
0.7442
0.02252
130.1
16.5
106.6
1332
1.603e+04
441.8
0.02149
50.8
20.45
19.43
8.115e+04
0.02164
46.08
19.97
25.3
54.98
20.35
5.008e+04
57.28
9.848
456.8
2820
13.12
71.17
2418
1.399
0.02168
258.1
16.22
30.95
73.36
16.65
0.9794
0.04666
621.1
265.8
865.8
11.06
724.3
171.3
0.02171
115.1
65.07
40.48
11.88
0.01934
266.4
38.35
28.78
2.938
0.02133
203.3
11.24
5.804
44.46
228.7
52.09
31.44
395.9
388.2
0.01992
78.08
36.46
41.88
432.1
178
34.75
19.47
27.8
8.846
125.6
396.7
1.649e+04
630.6
366.7
1.035e+04
37.22
0.07129
2.264e+06
340.2
1500
0.03583
1664
1227
261.9
30.15
0.02196
0.8992
0.02178
15.22
73.68
4.927
0.5454
15.96
611.5
21.36
2.111e+05
13.2
251.6
711.5
1.553e+04
424.4
216.2
16.95
0.08064
63.07
16
1.92e+04
61.48
0.2778
0.6951
1554
1.135
0.022
0.02169
31.53
51.71
0.03736
0.02017
0.02182
487.1
156.7
1.015e+04
0.02155
0.03196
60.55
0.01977
0.01991
248.8
0.05611
120.5
415.8
0.05192
1290
9.202
36.79
8.235
24.63
0.04491
59.44
18.07
6.402e+05
30.13
343.5
953.7
1224
10.77
0.03188
10.42
627.5
0.0217
9.393
120.7
565.1
1.301e+04
117.7
28.78
659.3
0.02427
110.1
2341
217.4
84.16
58.59
0.07313
32.73
14.9
1773
130.4
172.3
0.05039
831.1
259.5
0.03615
19.62
0.06804
33.99
0.02554
1940
1.662e+04
0.02695
463
129.7
0.1313
818.7
43.71
0.02218
5818
57.67
187.1
435.1
0.03242
20.14
5.076e+04
76.16
401.4
13.53
18.63
2.997
14.74
157.9
0.05929
1.731
43.02
60.19
26.7
14.57
51.77
6.499
64.27
498.6
48.95
6.08
1.144
0.0218
0.0825
637
18.11
0.01936
3.083
37.25
2.979
162
72.27
14.73
0.08509
548.5
82.57
0.1096
36.4
149
0.06568
602.6
0.03732
639.5
9.547
0.154
0.06159
10.1
684.7
37.01
0.02091
59.51
213.4
112.6
0.2281
0.02182
11.5
354.6
549.7
42.72
57.69
11.53
508.8
10.48
25.49
2.24e+04
9.712
1.863
4.54e+04
339.5
13.55
14.42
0.02204
1.221e+05
0.02194
25.43
112.2
98.09
136.6
117.2
1.957e+04
9.754
13.11
23.07
3.091e+04
457.8
12.85
4.309e+04
6554
460.7
125.9
0.1905
0.6335
20.28
24.6
0.02187
383.8
2.057e+04
0.04194
67.52
6.713
16.04
307.2
410.5
4.049e+04
1595
199.3
0.01955
0.01938
0.02178
509.8
2178
0.2631
0.02158
0.1503
2607
6.473
4.475e+04
76.02
0.02195
3.869e+04
0.01937
1.808
10.52
0.03578
14.38
0.2999
1.422
0.05174
325.5
18.03
58.99
112.5
2.329e+04
11.84
114.2
193.4
10.98
0.02213
9110
422.5
663.5
89.5
929.1
230
356.1
0.0499
25.65
241.4
26.2
389.2
0.02929
816.9
33.52
755.4
13.58
0.5339
1.296
0.02176
234.6
32.61
115.4
180.8
11.67
701
41.77
20.64
11.86
140
0.1486
873.4
289.2
269.2
30.4
0.06152
10.5
0.07946
64.73
15.36
88.91
2.909
272.2
14.65
15.38
386.3
0.1816
1989
29.52
0.409
0.08071
3.568e+04
305.4
225.8
29.6
5572
0.02204
6044
512.2
69.57
57.6
61.96
79.2
67.59
15.8
69.05
70.46
200
3514
0.07831
0.02186
0.02169
110.6
158
2.022
2.473e+04
113.3
9256
919
97.65
1837
1.836e+04
10.87
415.7
743.7
39.88
1.914e+04
0.02166
47.06
613.3
626.6
0.02157
594.3
56.3
205.4
298.6
219.6
0.02168
16.01
229.1
774.5
0.02089
159.2
9.809
0.1261
3.08e+05
0.03357
10.6
13.15
234.3
307.9
0.2564
41.61
1.848
154.2
719.9
111.2
0.01939
14.97
6.577e+05
0.02482
0.02242
2000
876.2
39.48
405.8
0.05872
35.25
41.51
54.66
40.64
174.6
0.01999
39.33
9.925
0.1052
0.02201
30.57
0.02119
8.245e+04
36.34
1.249
8.26
1.343e+04
0.02169
99
0.02
0.02216
334.3
0.2836
1347
8.999
0.03859
34.77
355.6
21.6
22.15
29.34
371.9
116.2
448.3
483.5
414.3
5297
835.2
58.99
363.2
112.6
185.4
0.1949
0.02112
0.02118
3300
20.82
300.8
4.274e+04
0.02177
261.8
0.44
0.02038
16.83
4.928e+04
8.435
410.2
2826
0.02206
459.1
35.25
16.47
10.62
28.63
2050
100.7
0.02174
4.644e+04
1138
0.05945
0.02306
1156
116.8
554.4
510.8
131.5
306.9
0.02168
202
0.02117
514.7
491.1
4.12e+04
0.01957
0.0194
0.128
253.4
0.03029
18.25
2.07
4.034
23.5
51.87
262.7
0.0432
0.02619
1.784e+04
2.13e+04
23.95
758.3
0.04607
295.9
0.02221
133.1
1275
439
2190
236.3
425.6
349.3
0.2257
29.46
24.73
0.02471
0.02175
0.02173
11.8
200.7
656.1
3.037e+04
280.3
0.02398
370.1
805.9
434.4
3.355e+04
67.07
497
238.4
99.35
0.05161
2.47
17.5
0.7106
0.07705
900.8
23.87
42.14
46.85
595.1
0.3566
0.01973
1.739e+04
13.51
11.98
37.16
2.111e+04
21
0.02082
118.5
22.97
183.7
8.079
148.9
331.1
1.388
62.22
10.83
0.06548
176.3
0.04217
0.07143
5.909
932.3
20.29
997.4
19.45
50.11
33.51
0.02753
69.73
353.7
0.1926
43.21
1.538
1.899e+04
0.02928
0.02333
76.32
76.51
165.6
24.67
19.03
2252
0.0636
0.02183
27.62
1862
0.02419
0.4043
44.09
0.02158
1.852e+04
0.04861
39.04
83.34
46.29
0.5587
299.8
2069
3.439
0.05844
0.02172
17.89
51.58
89.93
15.27
0.02131
0.02019
0.02172
84.19
192.3
238.9
0.05512
749.8
35.6
433.2
52.59
810.9
0.5905
0.02953
4108
0.02183
868.3
28.73
0.02916
121.5
74.84
269.4
95.3
120.3
14.19
6.825
0.0733
2268
1243
2207
0.1458
0.4274
0.02167
1.872e+04
0.02159
160.1
1811
0.02202
12.4
151
282.2
0.08345
14.5
1.313e+04
23.66
0.02166
17.12
462.4
83.52
158.5
14.11
28.02
1.516e+04
12.42
0.0207
0.02268
1.167e+04
24.52
390.3
8.606
54.97
0.02117
0.02193
2.033
6.816e+04
1806
478.2
362.4
0.8571
305.3
1465
139.3
182
0.02189
660.8
8.35
244.2
18.07
16.3
0.0216
602.3
13.88
1.542e+04
1.845e+04
11.06
15.33
1.585
1005
0.0279
8.973
1.704e+04
430.2
133.2
1855
6702
127.9
190.8
0.1005
955.5
185.6
1343
41
0.0259
1066
6597
0.02172
322.8
3451
326
941.3
34.04
14.28
178.4
44.66
0.03423
66.56
0.02211
113.8
0.08585
1.41e+04
0.1039
4010
48.31
212.8
17.4
12.66
433.9
11.88
73.93
780.2
74.03
32.57
9.518
50.76
158.3
560.4
77.86
0.02412
26.67
22.37
74.84
118.5
72.29
280.6
37
0.02478
36.75
2.214e+04
16.56
10.82
90.84
0.03894
32.47
0.02155
46.44
5.687e+05
8.662e+04
403.8
24.58
42.48
0.02098
0.05465
19.72
23.77
23.85
6.558
0.02178
30.64
54.89
37.7
91.99
0.02164
855.5
1321
5.849e+04
8.73
26.17
60.5
582.4
0.04892
146
9.941e+04
0.8444
17.09
0.2376
308.2
5.204e+04
11.91
14.42
10.52
29.7
0.02412
151
0.01988
1.647e+04
112
11.15
1286
7.434
120.7
38.12
3.164
0.04393
0.02199
0.02148
53.91
17.8
26.9
9.041
28.5
58.27
1.959e+04
0.6995
293.2
0.197
0.02176
978
0.02181
13.13
637.6
5.352
25.12
23.6