/*--------------------------------*- C++ -*----------------------------------*\
  =========                 |
  \\      /  F ield         | OpenFOAM: The Open Source CFD Toolbox
   \\    /   O peration     | Website:  https://openfoam.org
    \\  /    A nd           | Version:  8
     \\/     M anipulation  |
\*---------------------------------------------------------------------------*/
FoamFile
{
    version     2.0;
    format      ascii;
    class       volScalarField;
    location    "30";
    object      p;
}
// * * * * * * * * * * * * * * * * * * * * * * * * * * * * * * * * * * * * * //

dimensions      [0 2 -2 0 0 0 0];

internalField   nonuniform List<scalar> 
127143
(
-0.2071
-0.2104
-0.2056
-0.2056
-0.4028
-0.2055
-0.4659
-0.4407
-0.4382
-0.2513
-0.2932
-0.4688
-0.1997
-0.2057
0.4899
-0.2048
-0.2063
-0.1129
-0.219
-0.2082
-0.1911
-0.1973
-0.01054
-0.1352
-0.1973
-0.06788
-0.2458
-0.2451
0.1766
-0.03622
-0.1964
-0.06626
-0.3469
-0.1949
0.1015
-0.3469
-0.2123
-0.1943
-0.135
-0.2055
-0.2196
-0.1142
-0.09355
-0.1992
-0.1082
-0.1951
0.1729
-0.2126
-0.05311
-0.1561
-0.2052
0.01791
-0.2176
-0.1577
-0.0005676
0.005285
-0.0005287
-0.1221
-0.007268
-0.1565
0.3465
-0.2054
-0.1674
-0.0009111
-0.2337
0.07165
-0.06668
-0.1649
-0.164
-0.0001802
-0.1558
-0.2457
-0.2139
-0.007571
-0.001511
-0.2452
-0.001731
-0.2052
-0.002868
0.001249
0.1642
-0.2082
-0.1949
-0.2021
-0.2125
-0.2065
-0.124
-0.2596
0.07289
-0.4078
-0.002093
-0.1707
-0.3722
-0.1909
-0.2032
-0.0594
-0.1118
-0.1693
-0.1968
-0.06391
0.001178
-0.05504
-0.418
-0.09884
-0.2065
-0.1968
-0.06841
-7.181e-06
0.1914
0.001407
0.4895
-0.2597
-0.1963
0.3718
0.006905
-0.05582
0.01718
-0.001412
-0.001803
-0.2057
0.001426
-0.192
0.1015
-0.09965
0.1658
-0.08363
-0.1973
-0.0277
-0.2331
0.03195
-0.1945
-0.1957
-0.1385
-0.2052
-0.2065
-0.1943
-0.08519
-0.1921
0.2573
-0.09769
0.0118
0.01782
-0.2121
-0.1967
-0.2177
-0.2688
0.4201
-0.0008813
-0.1958
-0.4554
-0.1099
-0.04102
-0.201
0.1198
0.4084
-0.2116
-0.123
0.08387
-0.2126
-0.1544
-0.189
0.1904
-0.002212
-0.1945
0.009061
-0.2336
-0.2116
0.2128
-0.3091
0.05853
-0.1962
-0.1966
-0.04933
0.03452
0.000563
-0.2028
-0.2698
-0.2333
-0.1207
-0.004738
0.03507
-0.01348
-0.2053
-0.2018
0.03459
-0.2048
-0.02108
0.3625
-0.1383
-0.02415
-0.2138
-0.2183
-0.08247
0.1291
-0.2061
-0.1908
9.619e-05
-1.083e-05
-0.2134
0.01199
-0.006496
0.06384
0.01326
-0.2124
-0.2053
-0.1867
-0.02826
-0.05353
-0.0321
0.006849
-0.1657
-0.209
0.004977
-0.3126
-0.1936
-0.2099
-0.1964
-0.04094
-0.1911
-0.02965
-0.2583
0.00164
-0.03745
-0.2178
-0.1625
-0.196
0.01025
-0.1966
-0.2009
-0.1982
-0.192
-0.01463
-0.213
-0.205
-0.192
-0.08507
-0.1945
-0.2041
-0.0067
-0.2114
-0.2183
-0.2373
-0.2053
0.08052
-0.2067
-0.2056
-0.04104
-0.2445
-0.2045
-6.446e-05
-0.2041
-0.1103
-0.01209
-0.1951
-0.004559
0.178
-0.0272
-0.3486
0.009184
0.1187
-0.1888
-0.01754
-0.1692
0.01806
-0.2272
-0.2362
-0.2012
0.4174
0.3008
-0.2014
-0.04688
0.001954
-0.2132
-0.2117
-0.1725
-0.2137
-0.1963
-0.06976
0.003011
0.04836
-9.895e-05
-0.05827
-0.09879
0.006869
0.001178
-0.2078
-0.1902
0.006855
-0.0769
-0.003887
-0.2107
-0.0098
-0.08365
-0.03674
0.001545
0.1965
-0.1517
-0.2053
-0.205
-0.2004
-0.1053
0.03411
0.1382
-0.05515
-0.1685
0.3112
-0.05361
0.005114
-0.192
-0.1146
-0.07365
-0.203
-0.007295
-0.0001862
0.009269
-0.3428
-0.2049
-0.1161
-0.1586
0.001574
-0.009258
-0.1821
-0.05249
-0.01257
-0.3445
-0.2085
0.07437
-0.2051
-0.2025
-0.2616
-0.2045
0.000867
0.098
7.627e-05
-5.685e-06
0.1204
0.1829
-0.04869
-0.2054
-0.1902
-0.09521
-0.04118
-0.2124
-0.2136
0.4671
-0.07603
-0.1945
-0.2028
-0.09966
-0.2365
-0.1028
-0.218
-0.1999
-0.2135
0.07596
-0.1929
-0.1951
-0.255
-0.001748
-0.2025
-0.2133
-0.1663
-0.211
-0.1785
-0.1497
-0.0001052
0.01172
-0.005053
-0.2074
2.911e-05
0.4031
-0.05374
-0.1107
-0.1701
-0.02406
-0.1309
-0.1287
-0.2024
-0.2
-0.0008555
-0.1938
-0.08319
-0.09214
0.0346
0.01649
-0.2032
0.0477
-0.2047
-0.1911
-0.1843
-0.00826
0.1675
-0.1972
-0.0006168
-0.1376
-0.1758
0.1638
-0.1953
0.07671
-0.0164
-0.1805
0.001547
-0.1949
-0.2055
0.04336
-0.09671
-0.2062
-0.1307
0.002608
-0.1209
0.18
-0.07439
0.01127
-0.2118
0.1026
-0.2032
-0.1907
-0.04548
-0.2038
0.1261
-0.2117
-0.2118
-0.1923
1.412e-05
-0.1984
0.06894
-0.08517
0.04228
-0.2372
-0.01315
0.0007871
-0.1932
-0.1988
-0.1857
-0.2442
-0.0002075
-0.07072
-0.1975
0.01713
0.001835
0.003957
-0.1567
-0.08425
0.1816
0.04093
-0.1689
0.01105
0.3493
-0.004259
-0.211
-0.1898
-0.0998
-0.09639
-0.2106
0.1276
-0.212
-0.09986
-0.2388
-0.2125
-0.2003
-0.1384
-0.2318
-0.1893
0.3604
-0.2323
0.0006784
0.002025
-0.204
-0.1906
-0.0003307
-0.1961
-0.1697
-0.1001
-0.2043
-0.03055
0.0001522
0.4429
-0.1679
-0.2078
-0.21
0.2429
0.3601
-0.2137
-0.005208
0.1814
-0.2421
-0.207
-0.006396
-0.1536
0.02706
-0.3245
-0.1256
-0.2203
-0.2668
-0.2055
-0.1954
0.4262
-0.1063
-0.1443
0.00609
0.2404
0.001275
-0.2035
-0.1907
-0.2072
-0.2117
-0.1995
0.002939
-0.1928
-0.2443
0.009057
-0.2145
0.1011
-0.2032
-0.07406
-0.1898
-0.09588
-0.196
-0.2081
0.0004342
-0.2087
-0.1974
0.1331
-0.1287
-0.1963
-0.007924
-0.1098
0.009529
-0.1865
0.001541
-0.1561
-0.4311
-0.2001
1.177e-06
-0.2042
-0.0714
-0.1979
0.2
-0.3518
-0.1855
0.02813
-0.2112
0.1229
-0.0003859
0.03373
-0.1973
-0.1495
-0.1794
-0.1906
-0.2072
-0.1907
-0.222
0.1184
-0.208
-0.1932
-0.01367
-0.2065
-0.1909
-0.07887
-0.1137
-0.2076
0.002363
0.002693
0.1147
-0.1944
-0.138
0.01026
3.149e-05
0.1174
0.1553
-0.2074
0.1818
-0.2124
-0.2006
-0.01254
-0.001393
-0.001159
-0.2033
-0.1935
-0.01473
0.0002757
-0.2444
-0.1229
-0.19
-0.003183
-0.09015
0.01029
-0.2062
-0.208
-0.1887
8.711e-07
-0.2083
-0.189
0.1898
0.0001489
-0.06826
-0.1959
0.003897
-0.09642
0.009577
-0.1732
-0.2143
0.006783
-0.193
-0.08794
-0.2042
-0.2121
-0.2114
-0.1023
-0.09208
0.4654
-0.1367
-0.363
-0.201
-0.1996
-0.2285
-0.1428
0.0003127
-0.03486
0.007849
0.463
-0.02764
-0.2113
0.0008223
0.007025
-0.1254
0.1285
-0.1923
0.0002626
-0.001147
-0.2011
-0.2733
-0.195
-0.1447
-0.2145
0.1818
-0.19
0.1796
-0.2139
-0.1934
-0.2366
0.000255
-0.2396
-0.2125
-0.0521
-0.1902
-0.0009664
1.221e-05
-0.21
0.2557
-0.21
-0.1962
-0.02667
-1.447e-05
-0.1991
-0.2329
0.06125
-0.2261
-0.04473
0.003003
-0.1955
-0.002942
-0.2124
0.1156
-0.1994
-0.1962
-0.2125
-0.2119
-0.1903
-0.2129
-0.08858
-0.2128
0.0261
-0.2303
-0.2016
-0.1952
-0.00125
-0.07006
0.08965
0.3271
-5.953e-06
-0.001236
-0.2072
-0.1058
-0.04749
-0.2151
0.2694
-0.1901
-0.1813
-0.163
0.2512
0.004124
-0.006019
0.0006186
-0.2148
0.06212
-0.2073
0.324
0.1352
-0.2154
0.1343
-0.1633
-0.2169
1.653e-05
-0.1926
-0.03259
-0.01502
-0.2074
-0.06956
-0.2249
-0.1999
-8.476e-06
-0.1139
-0.1442
-0.2065
-0.2178
-0.1904
-0.2136
-0.4575
-0.1908
0.2403
-0.2186
-0.005548
-0.1148
-0.1141
-0.197
-0.02913
-0.2049
0.09127
0.05881
-0.02207
0.16
-0.1152
-0.00336
-0.2036
-0.22
-0.2075
1.228e-05
-0.1963
-0.1921
-0.09496
-2.494e-05
-0.2127
-0.2022
-0.2069
-0.228
-3.819e-05
-0.2057
-0.1978
-0.19
-0.1973
0.01323
-0.213
0.4945
-0.01328
-0.04702
-0.01766
-0.2129
-0.1958
0.03423
-0.06941
-0.08901
-0.2013
1.968e-05
-0.2058
-0.2134
-0.1846
-0.07197
-0.1604
-0.2145
-0.2073
1.584e-05
-0.2033
-0.1954
-0.208
-0.2047
-0.207
-0.2003
-0.2018
-0.2049
-0.00773
0.002887
-0.1983
-0.1918
-0.2121
-0.2051
-0.2121
-0.2123
-0.2022
-0.1552
-0.001129
-0.2241
-0.09285
5.104e-05
-0.1991
-0.3229
-0.07402
0.09207
0.0002092
-0.1899
-0.2019
-0.006163
0.0002056
-0.1892
-0.2058
-0.2145
-0.2121
-0.2068
-0.2091
-0.08636
0.221
-0.001336
-0.1989
-0.2122
-0.1901
-0.1685
0.2124
0.0001836
-0.007763
0.00975
-0.2464
-0.00138
-0.1591
0.2885
-0.09323
-0.07856
-0.0003274
-0.207
-0.0988
0.00212
-0.09963
-0.000811
0.2248
0.4992
-0.2155
-0.2182
-0.2075
-0.001614
-0.1902
0.1196
-0.1569
-0.2017
-0.08837
-0.3072
-0.1596
-0.0341
0.1538
-0.07045
0.003411
-0.1866
0.05885
-0.2878
-0.2015
-0.07112
0.0001992
-0.1035
-0.2032
-0.01091
-0.2373
-0.2568
0.4782
-0.276
-0.2686
-0.1925
-0.2061
-0.2181
-0.1848
0.005496
-0.08026
2.511e-06
4.444e-06
-0.2118
-0.02883
-0.2172
-0.2024
0.3844
-0.1126
-0.04545
-0.3632
-0.0173
-0.007822
-0.2181
-0.21
-0.0436
-0.1955
-0.2119
-0.2104
-0.03177
0.4849
-0.1974
-0.2116
0.005807
-0.2213
-0.01524
-0.001807
-0.1924
-0.1916
-0.201
-0.0003234
-0.001053
-0.2059
-0.2097
0.09276
-0.212
-0.1933
0.1727
-0.02426
-0.1961
-0.2367
2.325e-06
0.2667
-0.1379
1.02e-05
0.1587
-0.1993
-0.1853
-0.2524
-0.174
-0.06242
-0.1963
-0.1623
-0.1235
-0.0007089
0.005049
-0.03975
0.208
-0.2082
-0.1951
0.2825
0.1411
-0.2003
-0.1145
0.1407
-0.1045
-0.2399
-0.003317
-0.2114
-0.2043
-0.2019
-0.1904
-0.194
0.005893
0.01531
-0.2072
0.02442
-0.2086
-0.09079
-0.2097
-0.2134
-0.2071
-0.2437
-0.2344
-0.0835
-0.2125
-0.1817
-0.1929
-0.09409
-0.2137
0.1269
-0.2123
-0.2041
-0.1977
-0.1941
-0.003282
-0.002521
-0.205
-0.2109
-0.05201
0.0002052
0.2008
-0.1895
-0.1333
-0.2121
-0.2112
-0.1974
-0.1593
0.002673
-0.03307
-0.1513
0.1102
-0.1739
-0.2002
0.1928
-0.185
-0.2102
-0.1392
-0.154
-0.2161
0.1921
-0.1081
-0.2121
0.1545
-0.003748
-0.2018
-0.1964
-0.213
-0.2125
0.4904
0.003411
-0.1908
-0.0408
-8.006e-05
-0.001256
-0.2217
-0.192
-0.1984
-0.2037
-0.0786
0.1089
-0.2069
-0.03973
-0.07515
-0.004209
-0.2052
-0.213
-0.2064
-0.02461
-0.1971
-0.2093
-0.000183
-0.08991
-0.2027
0.002812
-0.2137
-7.778e-05
0.004581
-0.08355
-0.01832
-0.2327
0.002629
-0.09875
-0.0004121
-0.3365
-0.02563
-0.2235
-0.1009
-0.04091
-0.07812
-0.1962
-0.1086
0.0005308
-0.02133
-0.202
-0.05192
-0.2125
-0.2035
-0.1931
-0.2043
-0.1983
-0.2119
0.01512
-0.2464
-0.1184
-0.09306
0.1182
-0.2258
-0.0007908
-0.205
-0.2004
-0.05784
-0.00019
0.3338
-0.1904
-0.1326
0.02031
-0.2148
-0.08585
-0.1999
-0.1888
-0.1324
-0.1991
0.01685
-0.2019
-0.00017
-0.1639
-0.2073
-0.0005347
-0.2008
-0.2305
-9.91e-05
-0.0157
-0.1974
-0.03588
0.1059
-0.1961
-0.209
-0.04811
-2.602e-05
-0.1939
-0.1925
-0.007445
0.06904
-0.02829
-0.1898
-0.1903
-0.05284
-0.04406
-0.197
-0.1968
-0.03019
-0.06975
-0.1984
-0.1858
0.0002433
-0.1243
-0.0007175
-0.1956
0.2429
-0.209
0.01983
-0.2002
-0.2123
0.003234
-0.196
-0.1983
-0.192
-0.1435
-0.347
-0.1909
-0.2189
-0.1657
-0.08495
0.1046
-0.1952
-0.2104
-0.1868
-0.02939
-0.07828
0.3097
-0.2072
-0.2114
-0.0608
-0.2048
-0.2214
-0.0936
-0.121
-0.1815
-0.2121
-0.09801
-0.02737
-0.07113
-0.06468
-4.477e-06
-0.002354
-0.207
-0.1987
-0.2094
0.0004966
-0.2001
-0.2111
0.005704
-0.2812
-0.08565
-0.2106
-0.2056
0.04048
-0.2118
-0.1994
-0.2147
-0.212
-0.2011
-0.0953
-0.2308
-0.07824
-0.1471
0.1698
-0.2118
-0.08551
-0.1952
-0.2023
-0.1946
-0.001453
-0.1726
-0.2143
-0.1982
-0.2126
-0.05961
-0.2101
-0.1023
-0.1795
-0.06365
-0.2121
5.802e-05
-0.2488
-0.1924
-0.2122
-0.2046
-0.0005441
-0.2047
-0.2159
-0.1837
-0.2122
-0.01536
-0.1508
0.0015
-0.04358
-0.1963
-0.1954
-0.071
-0.2353
-0.2108
-0.2099
-0.01402
-0.2074
-0.2098
-0.2856
-0.205
0.001604
-0.189
0.0005422
-0.2468
-0.03075
-0.212
-0.03422
0.00749
0.0001306
1.857e-05
-0.1972
-0.2117
-0.2197
-0.1309
-0.0003541
-0.0003466
-0.1423
-0.1907
-0.1905
-0.2423
-0.09644
-0.1057
0.02602
-0.09705
-0.2078
-0.2022
4.178e-05
-0.1939
-0.197
0.001612
-0.07917
-0.1994
-0.1939
-0.2017
-0.1652
-0.2009
0.2296
-0.1962
-0.1906
-0.2144
-0.1922
-0.1358
-0.07078
0.1478
-0.1478
-0.1985
0.001167
-0.1438
-0.4251
9.35e-05
-0.1735
-0.05625
-0.2101
-0.06336
-0.002133
0.06077
-0.1933
0.003684
-0.1783
-0.1973
-0.1311
0.4335
-0.03127
-0.1076
-0.196
0.01163
-0.2025
-0.2118
0.169
-0.00404
-0.2059
-0.2751
-0.2537
-0.1958
-0.002632
-0.244
-0.2085
-0.1675
-0.3065
-0.2111
-0.1987
-0.002201
-0.07209
-0.2066
0.001403
-0.2159
-8.553e-05
-0.4586
-0.213
-0.203
-0.2113
-0.2147
-0.2731
-0.1951
-0.1542
0.05385
-0.2726
-0.1906
-0.1975
-0.2108
-0.1952
-0.2132
0.0001453
-0.2005
0.005177
-0.1963
0.003843
-0.2104
-0.002232
-0.2489
-0.211
-0.0001289
0.003939
-0.2036
-0.1541
-0.1928
-0.01599
-2.679e-05
0.1707
-0.19
0.08339
-0.1994
-0.1969
-0.2055
-0.08473
-0.1136
-0.1
-0.05252
-0.2081
-0.1705
-0.1943
-0.2065
-0.2109
-0.2265
-0.2132
-0.2293
-0.2208
0.002444
-0.2712
-0.19
0.1185
0.004981
-0.08411
0.109
-0.0862
-0.2041
4.635e-05
5.078e-05
-0.1678
-0.1894
0.01138
-0.203
-0.09224
-0.02004
0.2866
-0.0001832
-0.08237
0.0599
-0.2277
-0.05048
-0.1898
-0.1403
-0.2297
-0.1903
-0.0426
-0.0882
-0.201
-0.01415
-0.201
-0.1973
-0.06793
-0.2109
-0.03699
-0.002904
0.004444
-0.1023
-0.1982
-0.2334
-0.1602
-0.002002
-0.2119
0.07745
-0.08638
0.3824
-0.05277
-0.1916
-0.1982
-0.1547
4.818e-05
-0.2603
-0.1908
-0.2064
-0.08371
-0.2113
-0.208
-0.003549
-0.2372
-0.2046
-0.1932
-0.05779
-0.1921
-0.1969
-0.07843
-0.2355
-0.2127
0.2677
-0.01006
0.2916
-0.1902
-0.1456
-6.739e-05
7.548e-05
-0.1169
-0.217
-0.3832
-0.2935
-0.133
-0.1798
-0.2699
-0.001523
-0.2119
-0.01685
-0.004833
-0.00283
-0.213
-0.000347
0.08196
-0.002465
-0.3836
0.01798
0.2289
-0.24
-0.1749
-0.0002687
0.4839
-0.1588
0.2327
-0.193
-0.1954
0.001538
-0.205
-0.2059
-0.1933
-0.2021
-0.1969
-0.2021
-0.34
0.3019
-0.04979
-0.000284
-0.2079
-0.0003176
1.983e-05
-0.008086
-0.1962
-0.0002976
-0.1918
0.001971
-0.2111
-0.2236
-0.1892
0.178
0.000544
-0.2093
-0.1934
-0.2082
-0.07507
-0.0845
0.03848
-4.138e-05
-0.0007956
-0.2183
0.4826
0.02995
-0.08239
-0.03121
-0.212
-0.05235
0.0345
-8.559e-05
0.06895
-0.2007
-0.1556
-0.0347
0.139
0.02634
-0.2153
0.002946
0.001737
0.1038
-0.2085
0.3231
-0.01606
-0.1902
-0.001284
-0.2091
-0.135
-0.2085
-0.08403
-0.08535
-0.1985
-0.0336
0.1197
-0.08045
-0.215
-0.3127
-0.2051
0.000183
-0.1496
-0.005135
-0.2386
-0.03555
-0.2338
0.004877
-0.2044
-0.00211
-0.09602
-0.2035
-0.001657
-0.2017
-0.1474
0.1715
-0.1898
-0.002695
-0.1235
-0.0005548
0.01821
0.2217
-0.04908
-0.2205
-0.06418
-0.009752
-0.2211
-0.2008
0.3418
0.17
-0.2041
-0.101
-0.2083
-0.2324
0.4249
-0.1044
-0.1495
0.144
-0.009827
-0.08685
-0.1902
0.2471
-0.1019
0.04238
-0.0007993
-0.1962
-0.211
-0.2126
-0.2104
-0.05238
-0.2118
-0.1062
-0.08039
-0.000306
-0.1054
-0.0563
-0.07823
-0.1052
-0.009201
-0.2132
0.002299
-0.1892
-0.07303
-0.19
0.2318
-0.04452
-0.05452
0.003795
-0.09084
0.2505
0.1704
-0.2551
0.01828
-0.1377
-0.09356
-0.003661
0.03471
-0.1991
0.0002036
-0.2319
0.004986
-0.0009103
0.2349
-0.06924
-0.2069
0.0002394
-0.1772
-0.2128
-0.000179
0.08136
-0.2879
-0.1904
1.141e-05
-0.2114
-0.1849
-0.1898
-0.2483
-0.2108
-0.1226
-0.1904
0.000141
-0.0005248
-0.1979
-0.03198
-0.2139
0.2497
-0.2075
-0.1841
-0.2089
0.02433
-0.2366
-0.2075
-0.2459
-0.2066
-0.1974
-0.2014
-0.1292
-0.2128
-0.1187
-0.205
-0.1905
-0.1975
-0.1995
0.1767
-0.2059
-0.1943
-0.09249
0.009552
-0.3218
-0.1176
-0.193
-0.116
-0.06169
-0.04283
-0.207
-0.2151
-8.994e-05
0.03131
-0.08317
-0.2082
-0.2232
-0.1924
-0.05352
-0.03049
0.02438
-0.1956
-0.1959
-0.1949
-0.0733
-0.1106
1.479e-05
-0.2799
0.4836
-0.09952
4.379e-06
-0.2122
-0.2134
-0.135
-0.2121
-0.2121
-0.128
-0.0001657
0.2595
-0.06391
-0.03186
-0.2116
-0.009734
-0.1241
-0.4134
-0.1455
-0.2034
-0.4132
-0.212
-0.08995
0.000377
0.2104
0.09461
-0.2157
-0.06345
-0.2154
-0.1229
-0.21
-0.1359
-4.436e-05
-0.03234
-0.162
-0.378
-0.2124
-0.2004
0.01741
0.1277
0.01379
0.04756
-0.2347
-0.04986
0.0007284
-0.1075
-0.1321
-0.1098
-0.2039
-0.03502
0.02132
-0.2064
0.2967
-0.1982
-0.1963
-0.06808
-0.06084
-0.1648
-0.2022
-0.1965
-0.2218
-0.08976
-0.1848
-0.2069
-0.1759
-0.127
-2.882e-05
-0.08263
-0.2041
-0.2119
0.0004809
0.003922
-0.195
-0.0754
-0.2095
-0.05919
-0.1822
0.4504
-0.009241
-0.1326
-0.2151
-0.2088
-0.09677
-0.1663
0.01809
-0.2155
-0.19
-0.07352
-0.2138
0.0008806
-0.2045
-0.2181
-0.0868
-0.2023
-0.07798
-0.1963
-0.02413
-0.1296
-0.2046
-0.1903
-0.134
-0.1964
-0.0199
-0.2066
-0.2058
-0.2002
-0.2041
-0.207
0.4586
-0.2082
-0.00851
-0.2018
-0.2183
-0.07825
-0.05339
0.0004407
-0.1898
-0.136
-0.2195
1.817e-05
-0.2111
-0.2092
-0.2047
-0.212
-0.2009
-0.1662
-0.1935
-0.08119
0.01345
-0.2125
-0.0004747
-0.2122
0.07873
-0.08106
-0.1927
0.001434
-0.07804
-0.1729
-0.1961
-0.001132
-0.025
-0.2126
-0.1199
-0.2465
0.006998
-0.2088
-0.2039
0.00363
-0.1488
-0.1953
-0.2322
-0.2078
-0.0931
-0.1155
-0.1978
-0.2019
-0.4293
-0.1594
-0.1967
-0.05336
0.009619
-0.0002961
0.1174
-0.1688
-0.2597
0.005613
-0.189
-0.2092
-0.4251
-0.1974
-0.04504
-4.682e-06
-2.546e-06
-0.1176
-0.2085
-0.2002
0.4073
0.09691
-0.1861
-0.0928
0.002775
-0.1268
-0.01766
-0.07765
-0.2011
-0.145
-0.1285
0.0422
-1.075e-05
-0.09354
0.0387
-0.04449
0.04918
-0.1916
0.3459
-0.1971
-0.2161
-0.16
-0.2072
-0.1924
-0.04081
-0.2455
-0.2123
1.406e-05
6.07e-06
-0.2057
-0.2093
-0.1765
0.1844
0.1849
-0.2149
0.0003911
-0.0003412
0.1923
-0.001073
-0.1899
0.009226
-0.2565
-0.04513
0.001753
-0.01594
0.3225
-0.3362
4.684e-05
-0.0951
-0.0696
-0.0838
-0.2066
0.1159
-0.1905
-0.2119
-0.2037
-0.2082
-0.1044
-0.2028
0.1282
-0.03168
-0.1911
-0.1973
-0.4057
-0.2031
-0.1998
-0.2108
0.3485
0.1837
-0.03972
-0.0725
-0.07719
-0.229
-0.01799
-0.2122
0.002329
-0.08668
-0.2115
-0.07304
-0.194
0.04483
-0.1922
0.1564
-0.1679
-0.2018
-0.08714
-0.1644
-0.2498
-0.0004933
-0.2061
-0.1788
-0.2338
-0.1945
-0.2031
-0.1339
-0.03223
0.006589
-0.2035
0.1321
-0.07457
-0.2003
-0.2122
-0.1355
-0.2404
1.486e-06
-0.2098
-0.07251
-0.2123
0.2159
-0.1134
-0.007062
-0.2182
0.00475
0.1403
-0.1049
-0.1997
-0.2098
-0.2023
0.001598
-0.2123
-0.1944
-0.2066
-0.3305
-0.1301
-0.2129
-0.2174
0.01083
-0.03396
0.2054
0.1872
0.2333
-0.2097
-0.2206
-0.1307
0.1127
-0.2797
-0.1724
0.4343
-0.1963
-0.2238
-0.1295
-0.2099
9.534e-05
-0.1734
0.01055
0.002632
-0.2675
-0.01396
-0.2114
0.02083
-0.1791
-0.2019
-0.104
-0.2309
-0.2002
0.3841
-0.1937
-0.2086
-0.2011
-0.19
-0.1955
-0.001139
-0.2047
-0.1901
-0.2123
-0.2072
2.945e-05
-0.1936
-0.1345
-0.07774
-0.1895
-0.1961
-0.3664
-0.2027
-0.1923
-0.1903
0.03524
-0.2225
0.003733
-0.01021
-0.1905
-0.1963
-0.2222
-0.2254
-0.188
-0.1964
-0.0105
-0.2095
-0.1919
-0.1867
-0.1076
-0.1916
0.49
-0.07625
0.1332
-0.08969
-0.2103
-0.1454
-0.1962
-0.1959
-0.2121
0.1463
-0.2021
-0.217
-0.0958
0.1784
0.001322
-0.2429
-0.2063
-0.2131
-0.07364
-0.08929
-0.1995
-0.2834
-0.1872
-0.2091
-0.4389
0.001517
-0.2038
-0.1996
-0.06753
0.02965
0.04095
-0.009026
-0.1975
-0.192
0.02347
-0.384
0.06091
-0.2128
-0.2521
-0.2011
-0.112
-2.346e-05
1.304e-05
-0.1462
-0.212
0.04876
-0.2483
-0.1544
0.00207
-0.2207
-0.03523
-0.212
0.0004397
-0.01007
-0.2171
-0.1999
-0.1499
-0.3629
0.009615
-0.0007305
-0.1467
-0.2098
-0.02244
-0.05472
-0.1736
1.163e-05
-0.06254
-0.2025
-0.1862
-0.2039
-6.703e-06
-3.156e-06
6.08e-07
-7.56e-06
-0.07372
-0.2071
-0.04027
0.1555
-0.08598
-0.2034
-0.193
-0.2406
7.901e-06
-0.1931
-0.2124
-0.198
-0.2254
-0.1964
-0.2014
-0.1025
-0.09061
-0.2103
-0.1604
-0.05645
-0.1002
0.334
-0.002923
-0.1172
0.3411
0.2254
-0.0004598
-0.2054
-0.1929
-0.02026
-0.1271
0.05277
0.1565
-0.001318
-0.2122
-0.2216
-0.0002451
-0.2151
-0.2083
-0.1894
-0.2008
-0.2058
-0.0574
-0.2008
0.0002595
0.1973
-0.2
-0.2105
-0.2118
0.1604
0.002042
-0.009421
-0.1572
-0.1985
-0.1935
-0.05409
-0.1894
-0.23
-0.06809
0.42
-0.09032
-0.1883
-0.2153
-0.2076
-0.2027
-0.09061
-0.1812
-0.009351
0.007895
0.1294
-0.002744
0.001562
-0.1608
0.0006317
0.3881
-0.1998
-0.1603
-0.208
-0.05096
0.004569
-0.09319
-0.1988
-0.07027
-0.2121
-3.398e-06
-0.008611
-0.4292
-0.2319
0.00364
-0.2432
-0.2269
-0.1954
0.0001765
-0.1891
-0.1915
-0.04214
-0.01723
-0.1902
-0.2887
-0.4698
0.1526
-0.1029
-0.1983
0.0009975
-0.05796
-0.2286
-0.1637
-0.001461
-0.09906
-0.4369
-0.179
-0.01744
-0.1021
-0.2136
-0.1871
-0.0527
-0.2042
-0.002504
-0.1896
-0.247
-0.2084
-0.1912
-0.01783
-0.1564
-0.204
0.1438
0.003574
0.0006164
-0.1722
-0.1965
-0.2084
-0.1962
-0.2158
-0.08658
-0.2062
-0.2106
-0.2037
-0.208
0.002807
-0.2223
-0.2177
-0.06703
-0.2041
0.201
-0.1543
0.4907
-0.2106
-0.2378
-0.195
-0.1423
-0.05057
0.1876
0.0453
-0.09354
0.1666
0.006857
-0.4468
0.002111
-0.2056
-0.21
-0.2054
-0.206
-0.3118
-0.2114
0.2933
-4.355e-06
0.442
-0.2358
0.0002387
-0.2049
-0.2034
0.3336
-0.1156
-0.2078
-0.1897
-0.01916
0.0899
-0.1915
0.143
-0.09161
-0.243
0.0006044
-0.2069
-0.09937
-0.1973
-0.1531
-0.2039
-0.2137
-0.1072
-0.07504
-0.01489
-0.03244
-0.0008269
-0.1039
0.07904
-0.06768
-0.2111
-0.0007324
-0.1416
-0.07363
-0.2104
-0.2157
-0.2105
-0.0002674
0.00585
-0.1027
-0.0701
-0.2523
-0.2125
-0.2127
5.488e-06
-0.05126
-0.05853
7.299e-06
-0.197
-0.001179
-0.03502
-0.1907
-0.2033
-0.2073
-0.2074
-0.1153
0.08129
-0.1371
-0.212
-0.2168
-0.1919
-0.1951
-0.1946
-0.2124
0.02967
-0.06635
-0.2101
-0.1967
-0.01148
0.1027
-0.2078
-0.16
-0.2085
3.603e-05
-0.07626
-0.1592
0.008422
-0.07274
0.289
-0.1927
-0.2497
-0.1351
-0.21
0.154
-0.2144
-0.1998
0.0004917
-0.1627
0.07132
-0.1049
0.05595
0.002722
0.2722
-0.1937
-0.2086
-0.2007
-0.1792
-0.2118
0.07776
-0.1901
-0.2057
-0.2264
-0.2105
-0.2691
-0.2101
3.199e-05
-0.2089
-0.1942
0.001674
-0.04164
-0.1426
0.001683
-0.2366
-0.1909
-0.06585
-0.04037
-0.1117
-0.0002713
-0.1873
0.01052
-0.0256
-0.2037
0.1496
-0.07773
-0.002046
0.1035
-0.00535
-0.1346
-0.1981
-0.1824
-0.09412
-0.1902
-0.1054
-0.1938
-0.348
0.06192
0.0002417
-0.1954
-0.2034
0.0003914
-0.05814
0.004557
-0.1962
-0.19
-0.3051
-0.2093
-0.0006848
-0.1902
-0.1336
-0.2366
-0.2024
-0.2328
-0.2001
0.004429
-0.1691
-0.0709
-0.01698
-0.2133
-0.1889
-0.07097
-0.1963
-0.05546
0.3098
-0.2384
0.0002685
9.535e-06
-0.01646
-0.06357
0.3086
-0.1977
-0.1929
0.01281
-0.09971
0.2012
-0.1003
-0.001712
-0.1988
-0.1025
-0.1193
-0.0004562
0.3803
-0.2069
-0.1139
-1.528e-05
-0.09315
-0.1965
0.01519
-0.1267
-0.0207
0.03534
-0.1983
-0.208
0.002219
-0.2058
-0.2107
-0.2308
-0.2123
-0.2159
-0.1189
-0.2061
-0.02633
-0.3288
-0.003852
-0.1898
-0.06332
-0.2585
0.273
0.003538
-0.243
-0.2125
-0.1926
-0.1911
-0.08956
-0.2764
-0.09071
-0.1785
-0.1965
-0.2151
-0.197
-0.2048
2.761e-05
0.2495
-0.06247
-0.2011
-0.1976
-0.2373
0.1216
-0.02103
-0.003388
0.02549
-0.1094
3.007e-05
-0.4283
-0.1903
0.003977
-0.01352
-0.1459
-0.1806
0.003523
-0.21
-0.2031
-0.101
-0.003008
-0.2174
-0.4371
-0.2131
-0.2537
-0.1016
-0.1985
-0.205
0.006812
-0.1915
-0.2103
-0.1905
-0.001502
-0.1413
-0.2043
-0.2078
-0.2112
-0.2773
0.1167
-0.2237
-0.1908
-0.2007
-0.1918
0.192
-0.2077
0.001794
-0.05659
-0.01756
-0.2042
-0.002374
-0.2368
-0.1905
0.003961
-0.2081
-0.1962
0.1526
-0.06958
-0.2174
-0.0701
-0.1991
0.08914
-0.009538
0.01104
-0.2249
-0.1978
-9.99e-05
-0.191
0.04402
0.1674
-0.2155
-0.1925
-0.1601
-0.09587
-0.1899
-0.2306
0.001559
-0.1978
-0.2162
-0.4081
-0.114
-0.1293
-0.2654
-0.2059
-0.2089
-0.02652
-0.2205
-0.1906
-0.0002293
0.0007529
-0.1981
-0.07317
-0.00169
0.1008
-0.1445
0.05801
-0.2108
-0.2251
-0.1899
3.932e-06
0.09903
-0.0214
-0.02619
-4.872e-06
-0.1119
-0.2086
-0.2116
-0.19
-0.2121
-0.2174
-0.2021
0.0002411
-0.1911
-0.2043
0.4851
-0.2373
-0.111
-0.2013
-0.1211
-0.00186
-0.1977
-0.1906
-0.1195
-0.08718
-0.1998
-0.1924
1.68e-05
0.002121
-0.1246
-0.2009
-0.2158
-0.3705
-0.001721
-0.1978
-0.1924
-0.1858
0.002668
0.003095
-0.1098
0.0277
-0.2003
-0.1907
0.379
6.002e-05
0.02726
9.782e-06
-0.1996
0.02164
0.001377
-0.2018
-0.1941
-0.1999
-0.2069
-0.1979
0.01116
0.0002429
-0.2125
-0.04865
-0.004833
-0.217
-0.2627
-0.1894
0.0002469
-0.06172
-0.1322
0.04779
0.2035
-0.2026
0.0005445
-0.3696
-0.01552
-0.1963
-0.002264
-0.0002864
-0.005777
-0.02057
-0.2026
-0.1905
-0.1083
-0.06298
-0.2067
-0.02635
-0.204
-0.01661
-0.005743
-0.03564
-0.2137
-0.2119
-0.2171
-0.02426
-0.1872
-0.1961
-0.2176
0.06771
-0.2085
-0.06292
-0.1911
0.09018
-0.1698
-0.2101
-0.115
-0.2015
-0.1487
0.03302
-3.001e-06
-0.1911
-0.02841
-0.2008
-0.1201
-0.2216
-0.2155
-0.2163
-0.0003139
0.3253
-0.1916
3.581e-05
-0.3004
-0.001488
-0.2099
-0.201
0.0003473
-0.2332
0.2114
0.001651
0.01779
-0.2056
-0.1934
0.02716
0.163
-0.07144
-0.1197
-0.002939
-0.1758
-0.2124
-0.02793
0.1639
-0.1878
-0.1152
-0.1711
-0.09743
-0.2123
-0.1885
-0.1989
0.2987
0.005893
-0.08453
0.1334
-0.1197
-0.1915
0.002861
-0.209
-0.1356
-0.1593
-0.1978
-0.1956
-0.2231
8.419e-05
-0.073
-0.2016
-0.1906
0.006603
-0.06919
-0.05181
-0.1971
0.1931
0.1896
-0.2049
0.1093
-0.215
-0.1206
-0.2174
-0.04007
0.0006513
-0.1993
-0.0002188
-0.2123
-0.03962
-0.1612
-0.2053
-0.1905
-0.1556
-0.189
-0.1758
-0.000508
-0.001206
-0.09384
-0.1278
-0.178
-0.2454
-0.2085
-0.05778
0.2152
-0.2152
0.06009
-0.2125
-0.1801
-0.06422
-0.2138
-0.0767
-0.05192
-0.0168
-0.1436
-0.128
-0.1935
-0.2046
-0.1255
0.00286
-0.2002
-0.1284
-0.002317
-0.1749
-0.05579
0.001611
-0.1985
-0.04418
-0.2006
-0.004219
-0.2103
-0.1976
3.834e-05
-0.2081
-0.2224
-0.1962
-0.2115
-0.2123
0.002689
-0.2313
0.0002094
-0.1619
-0.208
0.395
-0.038
-0.1966
-0.1966
0.0007299
-0.002248
-0.03817
0.01141
-0.05868
-0.1023
-0.239
-0.08422
-0.1883
-0.2131
0.01622
-0.3324
-0.1651
-0.08113
-0.2091
0.002591
0.02195
0.0592
-0.2315
-0.07807
-0.1903
0.001263
0.404
-0.2226
-0.03177
-0.2059
-0.2189
-0.1673
-0.003523
-0.002891
-0.05914
-0.2689
-0.08551
-0.2201
-0.2025
0.008583
-0.1001
-0.0494
7.27e-06
0.2557
-0.1783
-0.1357
-0.252
-0.1926
0.001573
-0.125
-0.1604
-0.2006
-0.2086
-0.07981
0.04069
-0.2125
-0.05829
-0.07433
-0.1029
-0.1777
-0.2057
-6.852e-05
-0.2136
0.09092
-0.1613
0.01691
-0.2116
-0.108
-0.08681
-0.213
-0.3351
-0.203
0.3893
-0.1987
0.2857
-0.2078
-0.1238
-0.2286
-0.1353
-0.2123
-0.1904
0.07036
0.007701
-0.1904
-0.3194
-0.02343
-0.2044
-0.2186
-0.1828
-0.2083
-0.1146
-0.0481
0.03058
-0.1931
-0.2059
-0.2001
-0.2045
-0.203
0.1082
-0.1373
-0.1945
-0.195
-0.2061
0.3681
-0.1241
-0.1299
-0.0001158
-0.2039
-0.1916
-0.194
-0.1914
-0.123
-0.2052
-0.1742
-0.03038
-0.232
0.0002947
-0.1919
-0.1901
-0.05769
-0.07975
-0.194
-0.07816
-0.1988
-0.2121
-0.1682
-0.08424
-0.2124
-0.1227
-0.07146
-0.1974
0.1233
-0.1915
-0.2106
-0.1939
-0.09536
-0.3474
0.009372
-0.0151
-0.0003213
-0.2119
-0.119
-0.1965
-0.1276
0.2346
-0.2109
0.09845
-0.2094
-0.04172
-0.1948
-0.1528
-0.1226
-0.1175
0.4868
-0.08279
-0.2101
0.002382
-0.2116
-0.2189
-0.2076
-0.1837
-0.001564
0.00107
-0.1989
-0.2104
0.01786
-0.02448
-0.09854
-0.000472
0.00553
-0.1296
0.004035
0.007713
-0.1674
-0.0003402
0.009993
-0.2118
-0.2847
-0.235
-0.02498
0.1706
-0.1027
-0.1471
-0.1176
-0.1399
-0.2096
0.03311
0.1039
-0.0696
-0.2051
-0.1965
0.001902
-0.001738
-0.2029
-0.3433
-0.001872
-0.2088
0.004161
-0.1904
-0.1865
0.02885
-0.2164
-0.1874
0.4738
-0.07298
-0.1549
0.3958
-0.199
0.01592
-0.1347
-0.2037
-0.1829
-0.09177
-0.2114
-0.2099
0.001426
-0.0001576
-0.1913
-0.115
-0.1316
-0.1716
-0.02751
0.03
-0.2027
-0.02836
-0.04848
0.1761
-0.2113
3.296e-05
-1.177e-05
0.000199
-0.1268
-0.3645
-0.1891
-0.08389
-0.2024
3.929e-05
-0.04438
-0.0731
-0.1975
-0.09471
-0.2901
-0.2281
-0.2087
-0.3451
-0.2122
-0.1935
0.2635
-0.2117
-0.1987
-0.2014
-0.13
-0.2125
-0.0217
-0.2123
-0.1469
-0.08074
-0.2232
0.1952
-0.1868
-0.193
-0.208
0.003776
-0.2555
-0.1907
-0.005132
-0.2038
-0.001551
-0.06334
-0.09653
-0.05601
-0.2077
0.1179
-0.2378
-0.2008
0.001537
-0.08392
-0.1895
-0.1925
-0.01908
-0.09207
0.0004587
-0.1379
-0.192
-0.2121
-0.1966
-0.2137
-0.2128
-0.04107
-0.2556
0.2855
-0.1747
0.0004479
-0.03398
0.03975
-1.696e-05
-0.197
0.01389
-0.2462
-0.214
-0.196
0.003614
-0.2376
-0.1981
-0.1811
-0.08079
-0.1116
-0.1971
-0.2084
-0.05166
-0.183
-0.1944
-0.1356
-0.01175
-0.2106
-0.2026
-0.02719
-0.2074
-0.2117
-0.1979
0.3242
-0.001117
-0.202
-0.00318
-0.2105
-0.05615
-0.1995
-0.1442
-0.09152
-0.001954
-0.1625
0.4403
-0.1848
0.002895
-0.08005
-0.2045
-2.737e-06
-0.08117
-0.09714
-0.2095
0.00381
0.003824
-0.2199
-0.006331
-7.553e-05
-0.002354
-0.2138
0.1658
-0.1319
-0.1611
-0.126
-0.1576
-0.17
0.00233
-0.1981
-0.03421
-0.04557
0.008548
-0.1473
-0.1553
0.05554
-0.211
-0.1948
-0.2196
-0.1907
-0.1988
0.05484
-0.1998
-0.1889
-0.1915
-0.19
-0.2048
-0.001787
-0.2294
-0.1973
-0.01735
0.3479
-0.1017
-0.1202
-0.1981
-0.08427
-0.09162
0.03387
-0.1116
-0.2842
-0.2099
-0.004361
0.08523
4.94e-05
-0.2097
-0.1949
-0.212
-0.2443
-0.2012
-0.1344
1.463e-05
0.007335
-0.2289
-0.01791
-0.00294
-0.1171
-0.1989
-0.1995
-0.1949
0.4153
0.1173
0.09052
0.1973
-0.1879
-8.886e-07
-0.1961
-0.1901
-0.2064
-0.08228
-0.1319
-0.01285
-0.2119
-0.192
-0.02768
-0.2416
-0.109
-0.07192
-0.2258
-0.1438
0.2045
0.007462
0.06058
-0.1766
-0.2068
-0.2084
-0.1922
-0.05741
-0.2124
-0.2119
-0.1454
-0.06577
-0.08788
-0.06739
-0.0007194
-0.2044
-0.2463
-0.1933
0.05759
-0.3468
0.002087
-0.002664
-0.1873
-0.008095
0.001745
-0.2594
1.478e-05
-8.826e-06
0.0401
-6.797e-05
-0.2005
-0.2056
-0.1759
-0.1902
-0.0564
0.0008241
0.003656
-0.1982
-0.113
0.1879
-0.1227
-0.1895
0.0004561
-0.2141
-0.2197
-0.175
-0.172
0.003322
0.009167
-0.263
-0.001739
0.001124
-0.201
-0.07553
-0.02925
0.03158
-0.2124
-0.001578
-0.001713
0.00166
-0.2012
-0.1151
-0.2126
-0.2149
0.06654
-0.1487
-0.197
-0.2066
-0.06411
-0.2091
-0.1258
-0.1928
-0.0001584
-0.05724
-0.1901
-0.2461
0.001378
-0.1972
-0.209
-0.1906
-0.2002
-0.04882
-0.2118
-0.08721
-0.05037
-0.1988
0.00374
-0.4413
-0.02136
0.05474
0.002841
-0.2629
0.009479
-0.08998
-0.04969
-0.1975
-0.2121
-0.202
-0.1938
0.0002425
-0.444
9.659e-05
-0.1959
-0.07749
-0.2091
0.08062
-6.238e-05
-0.3161
0.003307
-0.1227
-0.2069
-0.2073
-0.004642
0.0114
0.448
-0.02099
-0.1978
-0.1966
-0.2069
-0.2132
0.2834
-0.2
-0.3999
-0.1332
0.0007267
-0.2037
0.364
0.008209
0.002385
-0.23
-0.2074
0.3485
-0.2343
0.3796
0.004963
-0.1614
0.005725
0.007341
-0.0008628
-0.2429
-0.0263
-0.1875
-7.655e-06
-0.2011
-0.01635
-0.2128
-0.1751
-0.3306
-0.03216
-0.1916
0.2479
-0.07632
-0.09096
-0.205
0.004544
-0.165
0.001495
-0.2124
0.08145
-0.002121
-0.1297
-0.2391
-0.1984
-0.1099
-0.2002
-0.1367
-0.04508
-0.1938
0.1821
-0.2472
-0.2136
-0.197
-0.197
-0.2021
-0.2128
-0.2106
-0.19
-0.1988
-0.19
0.0003576
-0.2119
-0.0001825
0.004719
0.05147
-0.08579
-0.2023
-0.3656
-0.2011
-0.2006
2.381e-05
-0.09874
-0.1953
-0.2594
-0.205
-0.00302
-0.2033
-0.2101
-0.09521
-0.0001236
-0.209
-0.09753
-0.197
-0.172
-0.2475
0.1962
0.3142
-0.208
-0.2052
-0.201
-0.2073
-0.2069
0.02404
-0.2386
0.1579
0.02078
-0.2095
-0.2123
-0.2069
-0.1956
-0.2344
0.003814
0.1698
-0.2187
-0.1399
0.1515
0.1642
-0.2038
-0.2248
-0.0004662
-1.537e-05
-0.1502
-0.2126
-0.09825
0.002186
-0.1293
-0.212
0.0265
-0.03684
0.0008525
-0.1389
-0.1582
-0.2121
-0.2375
-0.1904
-0.1931
-0.1987
-0.2066
-0.2115
0.03815
-0.1988
0.3872
-0.2091
-0.1354
-0.1031
-0.2121
-0.002211
-4.496e-05
-0.2085
-0.2055
-0.2008
-0.1966
-0.2121
0.00566
-0.1976
-0.2152
-0.1566
0.003846
-0.4657
-0.1965
-2.049e-05
-0.05689
0.01733
-0.06142
-0.2001
-0.1916
-0.0339
-0.2362
-0.2482
0.004401
-0.2128
0.01084
-0.2167
-0.1999
-0.02229
-0.1964
-0.2092
0.1296
0.08305
-0.05687
-0.1473
-0.0053
-0.1091
-0.2072
-0.2955
-0.2143
-0.0004023
0.006979
0.000221
-0.193
0.004567
-0.1891
-0.1987
0.08967
-0.1964
-0.2048
0.002127
-0.09134
-0.2144