/*--------------------------------*- C++ -*----------------------------------*\
  =========                 |
  \\      /  F ield         | OpenFOAM: The Open Source CFD Toolbox
   \\    /   O peration     | Website:  https://openfoam.org
    \\  /    A nd           | Version:  8
     \\/     M anipulation  |
\*---------------------------------------------------------------------------*/
FoamFile
{
    version     2.0;
    format      ascii;
    class       surfaceScalarField;
    location    "30";
    object      phi;
}
// * * * * * * * * * * * * * * * * * * * * * * * * * * * * * * * * * * * * * //

dimensions      [0 3 -1 0 0 0 0];

internalField   nonuniform List<scalar> 
189008
(
6.883e-08
-6.883e-08
1.621e-08
-1.621e-08
1.214e-08
-1.214e-08
1.773e-08
-1.773e-08
-1.542e-06
1.542e-06
1.825e-08
-1.825e-08
8.391e-06
-8.391e-06
-2.705e-06
2.705e-06
-1.61e-06
1.61e-06
1.127e-06
-1.127e-06
9.461e-06
-9.461e-06
-3.583e-06
3.584e-06
-9.577e-09
9.577e-09
-2.027e-08
2.027e-08
5.951e-05
-7.43e-05
1.48e-05
6.176e-06
-7.032e-06
8.561e-07
-5.531e-08
5.531e-08
-0.0003038
-0.002158
0.002462
-0.001319
0.0006059
0.0007126
-5.144e-06
5.898e-06
-7.54e-07
0.0004303
-0.0003649
-6.536e-05
7.274e-08
-5.393e-08
-1.882e-08
-0.003302
0.01053
-0.007228
1.973e-05
0.0004953
-0.000515
3.871e-08
3.402e-08
-0.0002583
0.0001451
0.0001131
-1.285e-05
1.414e-05
-1.293e-06
-1.42e-05
1.347e-06
0.0001988
-0.0001545
-4.422e-05
0.002604
-0.008969
0.006365
-4.535e-05
-0.0002059
0.0002513
-6.976e-05
-0.0001885
2.664e-05
-1.907e-05
-7.575e-06
-5.978e-05
3.559e-05
2.418e-05
0.01197
0.01088
-0.02285
6.493e-06
2.015e-05
4.23e-05
0.0002715
-0.0003138
-0.00116
0.001698
-0.0005372
-4.681e-05
0.0005867
-0.0005399
-5.01e-05
5.797e-05
-7.87e-06
-0.001048
-0.0002707
0.001712
-0.003464
0.001752
0.0003789
-0.004139
0.00376
2.735e-08
-2.735e-08
0.001618
-0.001922
-3.204e-05
-2.774e-05
0.0001312
6.758e-05
-0.0004731
0.0004898
-1.678e-05
-0.0008031
0.0009686
-0.0001655
-2.98e-05
0.0004738
-0.000444
2.149e-06
4.027e-06
-0.01378
-0.03096
0.04473
-5.073e-05
-1.456e-07
5.087e-05
-0.01227
0.0109
0.001375
1.083
-0.1279
-0.9548
0.0009607
-0.0007724
-0.0001883
-0.147
1.23
0.01227
-0.007617
-0.004655
-0.3119
0.01816
0.2937
-0.005354
-0.006919
-0.002358
-5.976e-05
0.002417
-0.0002992
0.0006983
-0.0003991
-0.0002232
0.001836
-0.001613
-0.81
0.9549
-0.145
-3.906e-05
9.739e-05
-5.832e-05
-0.0003411
-0.003296
0.003637
-0.02785
0.02208
0.005766
0.002238
-0.001854
-0.0003834
0.0006182
0.001619
-1.276
0.4797
0.7959
-6.907e-05
-0.0003056
0.0003746
5.502e-06
8.643e-06
-0.00112
-0.0003224
0.001442
-0.1151
-0.1968
-0.2732
0.5154
-0.2423
-6.005e-06
-8.192e-06
-0.05156
0.0912
-0.03963
-0.0004761
0.0004505
2.556e-05
0.0005085
0.0004522
0.1597
-0.634
0.4743
-0.0001937
0.0001477
4.6e-05
-1.677e-06
-3.468e-06
5.476e-05
6.619e-05
-0.0001209
1.034e-05
4.579e-05
-5.613e-05
8.059e-05
-0.0002993
0.0002188
-0.0002549
0.0004177
-0.0001629
-0.0006721
0.00128
-0.0006077
1.844e-05
-5.706e-06
-1.273e-05
-0.003247
0.002906
-0.0004132
0.0007148
-0.0003016
0.187
-0.02169
-0.1653
-0.004661
-0.006284
0.01095
-0.0002981
0.0009031
-0.000605
0.0002436
0.0001867
0.0002251
-0.0002299
4.841e-06
0.02916
0.01469
-0.04384
0.003135
-0.001423
0.0002571
-0.00026
2.903e-06
-0.0003196
-4.971e-05
0.0003693
-0.0184
-0.009445
0.6861
-0.5264
-7.126e-06
-0.000796
-7.627e-05
-0.0002396
0.0003159
0.004398
-0.005353
0.0009556
0.0001009
-0.0003558
-0.0004106
9.094e-05
-0.001143
0.001641
-0.0004976
-0.9988
-0.2768
-0.001298
0.0006504
0.0006477
-1.154
0.8762
0.2777
8.932e-05
-2.981e-05
1.294e-05
5.499e-06
-0.0003292
5.02e-05
0.000279
0.0004856
-0.0008701
0.0003846
-0.2115
0.09534
0.1161
0.0006157
0.002577
-0.003193
-0.1064
0.05771
0.04866
0.1657
-0.4389
0.02266
-0.07422
4.054e-07
-3.234e-07
-8.197e-08
-1.253
0.0991
2.808e-05
5.195e-05
-8.004e-05
-0.0004376
-0.0007971
0.001235
0.01417
-0.01213
-0.002035
-0.0001281
-6.566e-05
0.0001858
-0.000172
-1.375e-05
-0.0003698
-0.0002215
0.0005913
0.08783
-0.1024
0.0146
-0.000155
5.473e-05
0.0001002
-0.0006578
0.0005323
0.0001255
0.0002988
-9.607e-05
-0.0002028
0.0002023
-7.811e-05
-0.0001242
-0.0003928
-0.001366
0.001759
-0.0001916
-0.0002845
1.315e-07
-1.004e-07
-3.11e-08
0.0003128
-1.391e-05
-0.003998
0.03591
-0.03192
-0.0001344
0.0002704
-0.000136
-0.0001886
0.0002176
-2.902e-05
0.03432
-0.05469
0.02037
0.00938
0.0003162
-0.009696
-0.04698
-0.04289
0.08987
1.4e-05
5.731e-05
-7.132e-05
-0.0002571
0.000158
9.918e-05
-5.662e-05
5.887e-06
0.001385
-0.0005414
-0.0008431
-3.412e-05
-1.235e-05
4.647e-05
-0.02784
-0.7821
0.0002511
-4.884e-05
0.0002205
-0.0003293
0.0001087
0.002606
-0.003855
0.001249
0.001127
-0.0003085
-0.000819
0.002679
-0.003387
0.000707
-0.009118
0.0001686
0.00895
0.0001985
-0.0004227
0.0002243
0.000297
-0.0002164
0.008122
0.00415
0.0006652
-0.0005443
-0.000121
-8.658e-05
-0.0003865
0.0001142
-0.0002178
0.0001036
-0.0002739
0.0005051
-0.0002311
-3.59e-05
3.589e-05
0.1928
-0.005839
0.0003785
-0.0001184
-0.0002601
0.0001317
-0.0002787
0.0001471
3.569e-05
-7.476e-05
-0.0002956
2.825e-05
0.0002674
0.0001499
0.001723
-0.001873
-0.0002332
0.000194
3.925e-05
-0.04115
0.03384
0.007311
2.504e-06
7.787e-06
-1.029e-05
-0.000126
-0.0001311
-0.004673
0.001978
0.002694
-0.002854
0.0009225
0.001932
1.019
-1.191
0.1726
-9.146e-05
6.168e-05
2.978e-05
-0.0007476
0.0003908
0.0003568
-7.384e-05
-8.111e-05
-0.0004221
0.0008236
-0.0004015
0.1193
-0.1478
0.02848
-0.001866
-0.0009885
-0.1239
-0.002089
0.126
-3.96e-05
5.827e-05
-1.867e-05
-6.063e-05
-3.083e-05
-0.0002749
-0.0003829
0.0003803
-0.0006795
0.0003935
-0.006644
0.00625
-0.0002577
0.0007433
0.0005098
-0.0004901
-0.004202
0.0856
-0.0814
-4.672e-06
5.468e-05
-5.001e-05
-6.773e-05
-1.624e-06
6.936e-05
-0.04341
0.03941
0.0006857
-0.0008342
0.0001485
7.624e-08
0.0001521
0.0003734
-0.0005255
-1.469
1.198
0.271
-1.464
1.194
0.2703
1.409e-06
4.993e-08
-1.458e-06
-0.1669
0.1318
0.03511
0.2039
-0.03791
-0.166
-0.05796
0.04924
0.008713
0.02683
-0.06825
0.04142
0.0002684
-0.0002261
-5.076e-08
5.076e-08
0.0003309
-0.001132
0.000801
0.02649
-0.007771
-0.01871
0.00287
-0.0006644
-0.002206
0.01814
-0.01554
-0.2087
-0.002804
0.003622
-0.02187
0.01825
-0.0003266
0.0002551
7.149e-05
-0.06021
0.2034
-0.1432
-0.0001034
-0.0001299
5.082e-06
-0.000137
0.0001319
1.362e-06
-1.703e-06
3.412e-07
-1.242e-05
1.123e-05
1.187e-06
0.003646
-0.00219
-0.001456
-6.136e-05
0.000212
-0.0001506
0.02247
0.00402
-0.0006435
0.0002407
0.0004028
-0.4709
0.2223
0.2485
0.0009934
0.000134
4.797e-06
-2.764e-05
2.284e-05
0.0001065
6.034e-05
-0.0001668
-2.308e-05
1.891e-05
4.175e-06
-0.000232
0.0003636
0.0004354
-0.001596
6.756e-05
-6.951e-05
1.953e-06
0.0004169
-0.0003947
-2.216e-05
-0.0003839
0.0001049
0.000279
-0.04833
-0.07554
-0.001515
0.0003952
-4.88e-07
6.038e-07
-1.158e-07
-0.0002343
-0.0001496
-0.02408
0.01898
0.005099
0.0001197
0.0002588
5.032e-07
-5.032e-07
0.2253
-0.02133
-0.0001073
3.778e-05
6.951e-05
-0.0001018
3.408e-05
-4.607e-05
0.0001034
-5.735e-05
0.0003386
-0.0002379
-0.0001007
0.0003324
0.0003329
0.0002661
7.049e-05
-0.0003366
2.627e-07
1.427e-07
0.0009898
0.0004512
-0.001441
1.467e-05
-1.327e-05
-1.392e-06
3.242e-06
-3.242e-06
0.197
-0.9676
0.7706
-0.0004322
-0.001716
0.002148
-6.726e-05
0.0001657
-9.844e-05
0.00238
-0.001125
-0.001255
-0.0003801
0.0001263
0.0002538
-0.0001659
0.0007548
-0.0005889
0.0007241
-0.0004266
-0.0002975
0.1161
-0.02829
9.73e-05
-0.000309
0.0002117
-0.0002247
0.001482
-0.001258
-0.00924
-0.0003225
0.009563
0.0005885
-0.0003319
-0.0002566
-0.06569
0.09842
-0.03273
-0.01332
0.008656
-0.08754
0.04056
-4.156e-05
-0.0001607
0.0002022
-5.796e-06
-7.331e-05
7.911e-05
7.785e-05
-0.0001518
7.395e-05
0.0001311
-0.0003328
0.0002018
-0.001039
-0.0008554
0.001894
0.002756
-0.005528
0.002773
-0.0003496
-8.041e-06
0.0003576
0.8543
0.1643
0.0004669
-0.0005888
0.0001219
-9.409e-05
-1.32e-05
0.001297
-0.002214
0.000917
6.1e-05
-6.568e-05
-0.0001806
-0.0001485
0.001079
-0.001256
0.0001766
-0.3763
-0.4289
0.8052
0.0007771
0.001339
-0.002116
-0.5429
-0.3514
0.8943
0.04552
-0.01636
0.00446
-6.218e-05
-0.09005
-0.1664
0.2565
0.0447
0.1212
-0.1659
1.801e-07
-5.531e-08
-1.248e-07
-0.0002704
0.0002196
5.083e-05
-0.07412
-0.1022
0.1763
0.001311
-0.000966
-0.0003452
0.1732
-0.05384
-6.059e-05
0.00274
-0.002514
0.005554
-0.00304
-0.01116
-0.01292
0.000993
0.001414
-0.002407
-0.2073
0.2384
-0.03108
-0.0005542
0.0009279
-0.0003737
-0.0001931
-0.0001305
0.0003236
1.326e-06
7.149e-06
-8.475e-06
0.0001369
0.0002017
0.00376
-0.001005
-0.0001445
-0.0002387
0.0003832
-0.004045
0.001157
0.002887
-0.001243
-0.001871
0.003114
0.003753
-0.003137
-8.832e-05
0.0001487
-6.039e-05
0.0005958
0.0001333
-0.0007291
0.002632
0.0002382
-0.184
0.1238
0.0001131
8.554e-05
-0.0001986
-0.003431
0.003465
-3.346e-05
0.001289
0.000116
-0.001405
-1.766e-06
5.459e-06
-3.693e-06
-0.0006364
0.0004241
0.0002123
-0.8572
0.3143
-0.2578
0.1347
0.1232
0.0003185
0.0001271
-0.0004456
0.0007554
-0.0007592
3.811e-06
-0.0001174
-0.0001886
0.000306
0.01761
-0.008766
-0.008843
0.187
-0.1769
-0.01009
0.009232
-0.01253
-0.0003475
-2.174e-05
0.0003692
0.09477
-0.05317
-0.0416
0.001662
0.000718
0.0004971
-0.0001786
2.785e-05
0.0002491
-0.0002769
-0.01624
0.03226
-0.01601
8.184e-07
-2.724e-05
2.642e-05
0.000616
-0.0002171
-0.0003989
-0.00164
0.0005134
0.001127
-0.0009721
0.0005686
0.0004034
0.1932
-0.1485
-0.005871
0.01784
-0.5003
-0.9689
-0.4985
-0.9659
-0.01115
0.002036
-0.001056
0.0008554
0.0002005
-0.004446
-0.0002267
-0.0003677
-0.0006044
-1.972e-05
-0.0001828
0.0002026
-0.01166
0.04598
0.002473
0.001173
2.71e-05
-2.859e-06
-2.424e-05
-8.029e-06
-3.108e-05
3.911e-05
-0.0006645
0.00032
0.0003445
0.0003668
0.0009445
-0.0001391
5.601e-05
8.309e-05
0.0001829
-0.0002292
4.634e-05
0.0004835
-0.0003434
-0.0001401
3.814e-05
-0.0001374
9.927e-05
-0.0006595
0.0005268
0.0001327
0.0005556
-0.0006658
0.0001102
-9.275e-07
7.703e-05
-7.611e-05
5.297e-05
-0.0009573
-0.02769
0.02865
-0.0001717
0.0001514
2.03e-05
-0.0002931
-8.706e-05
-0.0001928
-0.001071
0.001264
0.3013
-0.4092
0.1079
0.0005573
5.873e-05
0.0002716
-0.0005226
0.000251
-0.002078
0.001855
-0.00251
-0.002914
0.005423
0.0008962
-0.0009353
3.91e-05
-8.715e-05
0.00068
-0.0005928
0.3805
0.1363
-0.5168
-0.1191
-0.04786
-0.1697
0.2391
-0.06939
-7.445e-05
8.906e-05
-1.461e-05
0.4294
-0.8057
-0.00157
0.001742
-0.0001713
0.05948
0.03529
0.0001587
-0.0002259
6.651e-05
-0.0005435
0.000477
0.1172
-0.1214
0.03023
-0.01368
-0.01655
-0.0001442
0.0006376
-0.0004933
3.372e-07
2.36e-07
-5.732e-07
-0.0002683
0.0005074
-0.0002391
0.9141
-0.6847
-0.2294
0.001311
0.001676
-0.002988
4.205e-05
0.0001437
-0.000674
0.0004895
0.0001845
0.006495
-0.004984
-0.001511
-0.08529
-0.02108
1.222e-05
1.625e-06
-1.384e-05
0.01553
-0.02008
0.004545
3.946e-06
-5.404e-05
-0.0003425
0.000507
-0.0001644
6.131e-05
-0.0008053
0.000744
0.2461
-0.255
0.00889
0.006122
-0.005231
-0.0008911
9.735e-06
-4.069e-05
3.095e-05
0.0002209
0.0005538
-0.0007747
-0.0006714
0.0007399
-6.853e-05
-0.0001279
0.0002605
-0.0001325
0.00406
0.002063
-0.0002979
0.0002525
-0.02254
0.02159
0.009375
-0.07506
5.912e-05
-9.685e-05
3.774e-05
-0.5075
0.0366
-0.0003885
-1.779e-05
0.0004063
-7.54e-05
3.58e-05
-0.001013
0.01655
-0.004655
0.003681
0.000974
-0.0001327
0.0004919
-0.0003592
-0.002498
0.00247
2.794e-05
0.1113
0.4876
-0.5988
0.0004372
-0.0008594
-0.0002857
-0.00021
0.0004956
-0.0005751
-1.053e-05
0.0005856
0.001225
0.008154
-3.693e-05
-0.0003281
0.000365
-0.001173
0.0007352
7.506e-05
0.00015
-0.0004305
0.0003644
6.612e-05
-0.0004151
6.545e-05
-0.0001621
0.002116
-0.001954
-0.0009082
0.000165
0.0007432
-0.0003384
4.282e-05
-2.866e-05
2.658e-05
2.081e-06
-0.0001665
0.000179
-1.249e-05
-0.6755
0.8725
0.0005819
-0.000165
0.007647
-0.01049
0.002847
-0.003516
0.003895
-0.01245
0.0007086
0.01174
-7.026e-05
2.419e-05
-0.01112
-0.007353
0.01847
-1.274
1.436
-0.1617
0.0002261
-0.000228
1.866e-06
-7.884e-05
-4.128e-05
0.0001201
0.0074
0.01002
-0.01742
0.003484
-0.003337
-0.0001467
0.5724
-0.1919
0.001084
-0.002186
0.001101
-3.12e-05
0.0001339
-0.0001027
-0.06046
0.04669
-0.02553
-0.1817
0.7021
-0.6559
-0.0462
0.0006742
-0.000704
0.06645
-0.03053
-0.0003734
-0.0001173
0.0004907
0.05211
-0.05474
0.002631
3.423e-05
0.0002229
-0.009321
-0.1347
0.144
0.0005344
-0.0003896
-0.0001448
0.05414
-0.2238
-0.000177
-0.0001496
0.0003317
-0.0003642
3.251e-05
-0.000712
0.0004133
0.0002987
-0.001403
0.003131
-0.001728
-3.842e-05
7.652e-05
-3.81e-05
-0.01976
0.008381
0.01138
0.0004225
-0.000223
-0.0001994
0.0003006
9.648e-05
-0.0003971
8.919e-05
-1.126e-05
-7.793e-05
0.0004642
-0.0001125
-0.0003518
0.0001473
0.007648
-0.007795
-0.002835
0.002442
-4.866e-05
-2.825e-06
5.149e-05
0.0001665
-6.082e-05
-0.0001056
0.001641
-0.001551
-8.964e-05
9.42e-06
-5.808e-05
0.3524
-0.9423
0.5899
0.1183
-0.0001246
-0.1182
-0.000306
0.0001255
0.0001805
9.715e-05
-0.0001038
6.672e-06
-1.54
0.1227
1.418
0.0006023
-0.0003592
-0.0002431
-0.00196
0.01112
-0.009162
0.00513
0.00904
3.365e-05
0.0007217
0.0316
-0.0172
-0.0144
1.412
-0.2682
-1.143
5.72e-05
-0.0003007
0.0002435
-0.01132
0.009357
0.0001115
-9.801e-05
-1.347e-05
-6.298e-05
3.349e-05
2.949e-05
0.0001747
-0.0001237
-5.094e-05
0.0004287
-3.156e-05
-0.0003972
-7.698e-05
1.083e-05
6.615e-05
-0.0003655
-0.0002709
-0.0007431
7.137e-05
0.0006718
0.001062
0.002421
0.0001885
-7.139e-05
-0.0001171
-0.1249
0.2548
-0.1299
-0.0001826
0.0002968
-0.1026
0.08369
0.01896
0.0006849
-0.0005653
-0.0001196
0.0006366
-0.001309
5.754e-05
-7.263e-05
1.509e-05
0.0002316
-0.001376
0.001144
-1.215e-08
-3.861e-08
-0.00034
0.0001662
0.0001738
-0.0005633
0.0008112
-0.000248
0.03098
-0.01857
-0.0124
0.001703
-0.002239
0.0005352
-0.2875
0.2321
0.05537
0.000127
4.765e-05
0.1161
0.002186
0.0001741
2.794e-05
-0.000202
0.0004503
-0.0002982
-1.033e-07
1.033e-07
1.376e-07
-1.585e-07
2.091e-08
1.55e-07
-1.429e-07
-1.213e-08
1.197
-0.8186
-0.378
-8.544e-05
-8.628e-05
7.526e-05
0.0004272
-0.0005025
-0.1449
-0.113
-0.0006422
7.46e-06
0.0006347
-0.0003247
0.0009902
-0.0006655
-0.0002516
0.0002774
-2.581e-05
0.003482
-0.0003171
-0.003165
-3.931e-06
0.0003356
-0.000609
-0.000103
0.0003664
0.0002359
3.313e-05
-3.076e-05
-2.372e-06
-0.4376
0.79
-0.0002609
0.0001647
9.618e-05
1.53e-08
-1.637e-08
1.077e-09
0.0005888
-0.000672
8.32e-05
0.0003624
-8.269e-05
-0.0002797
1.491e-05
-1.24e-05
0.06398
-0.1791
0.003475
-0.0008692
-0.05097
0.0778
0.0001103
5.621e-05
0.04179
0.2471
-0.2889
-0.0002842
6.821e-05
0.000216
-6.867e-05
-0.0001017
0.0001704
7.819e-05
-7.391e-05
-4.283e-06
1.527
-0.9027
-0.6245
-0.000236
-7.008e-05
0.009568
0.004011
-0.01358
6.008e-07
-1.447e-06
8.457e-07
-0.0006813
-2.009e-05
0.0007014
0.0001795
-1.586e-05
-0.0001637
6.425e-05
-0.0001459
8.167e-05
-0.107
0.1028
0.00418
3.232e-05
-0.0001478
0.0001155
0.0009323
0.0007502
-0.001683
-0.8039
-0.7364
0.002451
-0.004408
-7.602e-06
0.004415
-0.0003916
0.0001985
0.0003051
0.0005911
1.382e-06
9.577e-05
8.833e-05
-1.396e-05
-7.437e-05
-0.0004635
0.0001209
-0.003115
0.003771
-0.0006555
0.0009037
4.527e-06
-0.0009082
0.0001695
-0.0003466
0.0001771
6.07e-05
0.0001654
0.1128
0.05483
-0.1677
-7.455e-05
5.593e-05
1.862e-05
3.567e-05
-0.000203
0.0001674
0.0004352
-0.0004828
4.76e-05
0.001128
-0.002431
0.001302
0.0001347
-0.0002573
0.0001226
-0.791
0.1144
0.6767
-0.7882
0.6298
0.1584
0.001986
-0.01123
-0.0001307
-8.405e-06
-0.0005862
-0.001114
0.001701
0.1389
-0.2088
0.06992
1.472
-0.6489
-0.8235
-0.001525
0.002458
-0.0009328
0.0002809
-0.0004138
0.0001328
-0.0005985
0.0002382
0.0003603
-0.000726
-1.712e-05
7.252e-05
6.07e-06
-7.859e-05
-2.003e-05
1.864e-05
1.387e-06
-0.003164
0.003002
0.0001616
-0.1405
0.09983
0.04063
1.401
-1.278
-0.123
-8.996e-05
4.438e-05
4.558e-05
-0.000104
-0.0002344
0.0003384
0.0005478
-0.001734
0.001186
0.3133
0.5225
-0.8358
4.95e-06
9.718e-06
0.00261
-0.003057
0.0004475
-0.0001537
0.0001503
3.45e-06
0.4852
-0.0003078
0.0003525
-4.469e-05
-0.02662
0.1655
0.0002287
-0.0003614
-0.0001289
4.772e-05
8.115e-05
0.001022
-0.0009279
-9.38e-05
0.9793
0.1619
-1.141
-2.579e-05
-0.0001008
0.0001266
0.0004024
0.0001861
-8.195e-05
4.606e-05
0.3909
1.021
0.0004479
-0.001591
-9.241e-06
-3.179e-06
0.3958
0.3063
-0.001776
-0.002879
-0.1641
0.004767
0.1593
-0.0003749
-0.0004436
0.0008185
0.0002496
-0.0001173
-0.0001323
-0.2801
0.19
0.0001079
-9.878e-05
-9.128e-06
0.0002465
0.0004576
-0.0007041
-2.077e-06
8.227e-06
-6.15e-06
-4.808e-05
-7.347e-05
0.0001216
1.375e-05
-5.481e-05
4.107e-05
-0.0001899
-0.0004696
-0.0002199
-0.0004541
0.0001771
0.0002089
-0.000386
0.0006849
-0.0007317
0.0005747
-0.0008728
0.000595
-0.0009183
0.0003234
9.552e-05
-0.0001107
1.516e-05
6.925e-06
8.153e-06
-1.508e-05
0.0003017
-0.0002242
-7.758e-05
-0.6003
0.9136
0.0007589
-0.0005254
-0.0002335
0.1086
-0.1944
0.08579
-0.0005204
-0.0001441
-0.1236
0.03447
0.08917
0.0001014
-8.735e-05
-0.342
-0.9323
-0.1523
0.07817
-0.002582
-0.005123
0.007706
-0.0004401
-0.0004681
-0.0001797
-0.000134
0.0003137
-1.04
0.1279
0.9123
1.107
-0.8992
-0.2082
0.0001051
-3.753e-05
-3.68e-06
-6.516e-06
1.02e-05
-5.645e-05
0.0001112
-0.0004718
0.0001766
0.0002952
0.0007646
-0.0002313
-0.0005333
0.0002974
-0.0006708
-0.000281
0.0004182
-0.0001372
-0.0007435
0.0004578
-6.413e-05
3.304e-05
-4.295e-05
0.0001162
-7.325e-05
-3.458e-05
-1.133e-05
4.591e-05
-1.16
0.1203
2.78e-05
6.321e-05
-9.101e-05
1.919e-05
-5.885e-05
3.966e-05
-6.163e-05
-0.005041
0.005102
0.009065
-0.00569
-0.003375
0.1785
-0.2405
0.06192
1.03
0.4429
0.0004496
-0.0004218
-1.027e-05
-0.0001783
5.798e-05
0.0001305
8.777e-06
-5.877e-06
-2.9e-06
-0.07581
-0.04784
-0.9854
-0.4035
1.389
-0.0001217
-9.25e-05
0.0002142
-0.0001242
-3.615e-06
0.0001278
-0.0514
-0.006551
3.06e-05
3.965e-05
-7.025e-05
0.0146
-0.002184
-0.01242
-0.03607
0.08857
-0.0525
-0.000151
5.321e-05
9.782e-05
0.002331
-0.002888
0.0005579
-4.163e-05
6.082e-05
0.004638
-0.009419
0.004781
-4.861e-08
4.861e-08
-2.908e-05
5.995e-06
6.402e-05
0.0004002
0.0003058
0.0001166
-0.0001397
-0.0001307
8.934e-05
2.985e-05
-0.0001192
-0.0002967
-1.11e-05
-6.001e-05
0.0001042
-4.424e-05
0.05661
0.006732
-0.06334
0.0001325
-5.143e-05
-8.105e-05
1.291e-05
-3.534e-06
-9.373e-06
-8.665e-05
-0.0003019
0.7437
-1.068
0.3248
0.001301
-0.0002213
-0.004798
0.004228
0.0005692
0.001552
-0.003325
0.001774
1.077
0.4501
-0.02604
0.7697
1.944e-07
-7.947e-07
6.003e-07
0.02357
0.007407
0.0003661
-0.0006438
0.0002777
5.474e-05
-5.463e-05
-1.03e-07
-0.0003629
0.0006361
-0.0002732
0.0002249
-0.0001119
0.003992
0.002803
-0.006795
0.0002345
-0.000128
0.003751
-0.006797
0.003046
0.0009915
-0.0008443
-0.0001472
-0.1494
-0.1988
0.3482
1.05
-0.04429
-1.006
-0.002106
-0.0004359
0.002542
-0.001238
0.008884
2.536e-05
-9.981e-05
-0.001581
0.003133
0.0003486
-0.0003873
3.874e-05
0.0009036
-0.0002856
-0.000618
0.0003129
0.0001897
-0.0005026
-0.01965
0.02327
0.003149
-0.005659
-1.126
-0.3863
1.512
-0.0001157
0.0002179
-0.0001022
0.023
0.008597
-0.001081
0.0008116
0.0002692
7.68e-08
-0.002498
0.000711
0.001787
-0.0004082
0.0003666
0.0001824
-0.0004507
1.258
-0.2789
-0.001858
0.002109
-0.0002506
-0.0003403
-0.0005317
0.000872
-1.922e-05
1.988e-05
-6.623e-07
-0.0009696
-7.389e-05
0.001044
0.0001691
-1.174e-05
-0.0001573
-4.471e-05
-1.941e-05
-0.0001105
0.0003311
-0.0002118
-0.0002187
0.0001323
-0.0004633
0.000331
0.0004955
0.0003282
-0.0008237
0.0006022
-0.0007681
0.001396
-0.002408
0.001012
-0.003649
0.0002181
8.934e-05
-0.0004591
0.003122
-0.006028
0.002907
-1.448e-07
1.448e-07
-0.0009999
-0.003798
-0.06602
0.02487
0.0001766
-0.001442
0.001265
0.0001801
0.0003424
-0.0005225
1.006e-06
0.001107
-0.001108
0.1019
0.3719
-0.4737
-4.664e-05
2.482e-05
2.182e-05
4.762e-05
0.000508
-0.0005407
-5.784e-05
-1.511
0.5253
2.286e-06
6.491e-06
-0.0002074
4.086e-05
0.0003057
-0.0003496
4.394e-05
-0.3883
-0.638
1.026
3.235e-06
-6.325e-05
0.0001256
-0.0001548
2.919e-05
4.701e-05
-0.0001456
9.862e-05
2.438e-05
-0.0001126
8.824e-05
-1.199
0.8105
-0.0005337
0.0003062
0.0002275
5.261e-06
-3.95e-06
-1.31e-06
7.117e-05
-0.0001093
3.809e-05
-0.0003015
0.0003021
-6.521e-07
-0.1577
0.06236
0.09536
3.22e-05
-5.097e-06
2.61e-05
-0.0001162
9.01e-05
-0.1613
0.1676
-0.006332
0.002807
0.0005492
-0.003356
-0.003914
0.00381
0.0001038
9.824e-05
-8.9e-06
-0.0002297
-0.0001103
-0.002688
0.003845
-0.00284
0.0003417
-9.32e-06
-0.0002062
0.0002155
-5.953e-05
0.0001374
0.2821
0.5874
-0.8695
-0.0003719
-0.0001619
-0.0004044
0.0007329
-0.0003286
0.0001021
-0.0001033
1.242e-06
-0.0001166
-0.0004585
-0.01319
0.01154
0.001646
-0.0007829
0.0001408
2.089e-05
6.744e-05
1.029
-0.7468
3.97e-05
-0.0002913
-6.053e-05
-9.05e-05
-2.322e-05
-1.526e-05
3.848e-05
2.63e-07
-7.51e-07
2.693e-05
-5.016e-05
3.33e-05
4.489e-05
0.0002111
3.946e-05
-0.0002505
0.0002723
-0.0001801
-9.218e-05
-0.004613
0.00121
0.003404
0.1728
1.024
-1.059e-08
1.059e-08
9.043e-05
0.0001213
-0.0002117
6.732e-05
-0.0001154
6.625e-05
-6.02e-05
-6.054e-06
-0.0001181
0.0003186
-0.0002005
2.989e-05
-0.000161
0.0001312
-0.0002349
3.697e-05
0.0001979
-0.0004987
0.0004297
0.5596
0.8415
2.2e-05
0.0004802
-0.0005022
-0.004471
0.00127
0.0032
-1.505
0.3791
-0.0001206
0.0002081
-8.753e-05
0.0001433
0.0005416
0.002082
-0.000793
0.0009308
0.0003297
-0.00126
0.1374
-1.017
0.8792
7.67e-05
-0.0003577
9e-05
-1.71e-05
-7.29e-05
-0.2743
-0.7142
0.8516
0.006654
0.002411
-0.0006891
0.0009612
-0.0002721
0.0004274
0.0003372
-0.0001768
-9.424e-06
0.0001862
-0.0005295
0.0004657
6.382e-05
5.373e-06
-4.539e-07
-4.919e-06
-0.004134
0.001027
0.003107
-0.004127
0.005597
-0.00147
-0.7987
-0.2697
-0.0003748
9.538e-05
0.0002794
-0.0003787
0.0001828
0.0001959
0.0003831
-0.0003163
-6.683e-05
9.478e-05
-0.0001831
0.002005
-0.001855
1.085
0.08594
-1.171
0.2754
-0.2114
0.07918
-0.135
0.05585
-1.179e-05
2.766e-06
9.023e-06
0.04564
-0.8444
0.03309
-0.01786
-0.01523
-0.0001257
0.0002643
-0.0001386
-0.0008938
-0.001082
0.001976
0.0001303
5.712e-05
-0.0001874
-0.2155
0.8474
-0.6319
-0.0001802
0.000133
4.723e-05
-0.0004042
0.002291
-0.001887
-0.2383
-0.01784
0.2561
0.0002441
0.0002394
0.6921
0.4737
-1.166
-0.0004245
-0.0002611
0.0006856
-6.296e-06
-1.294e-05
1.924e-05
9.73e-05
-4.601e-05
-5.129e-05
-0.0003203
-0.0006346
0.0009549
2.153e-05
1.371e-05
-3.524e-05
0.1861
-0.04881
-0.1373
6.265e-05
4.981e-05
-0.0001125
-0.009223
0.009337
-0.0001136
-0.0002219
-6.227e-05
8.354e-07
4.481e-06
-5.317e-06
-0.0002084
-0.0001963
0.0004047
0.0002823
9.317e-05
-0.0003755
-0.006973
-0.006212
0.005399
-0.005993
0.0005944
0.00192
-0.0003827
-0.001537
6.849e-05
-6.849e-05
-0.3399
0.1972
0.1427
-0.00173
0.003371
-0.001641
0.000811
-0.0005179
-0.0002931
-0.0002411
0.0004553
-0.0002141
5.795e-06
7.112e-06
0.0001215
-0.0001099
-1.156e-05
-0.1178
1.202
0.04691
-0.02961
-0.0173
-6.323e-05
-2.673e-05
-0.0002146
1.147e-05
0.0002032
-6.61e-06
9.225e-06
-2.615e-06
-0.0005103
0.001446
-0.0009356
6.205e-06
-6.205e-06
-0.0003418
0.0003951
-5.328e-05
7.514e-06
-7.514e-06
-0.0002989
0.0001038
0.0001951
4.652e-05
2.806e-05
-7.458e-05
0.0003715
-0.0003495
4.133e-05
-2.923e-05
-1.21e-05
0.09767
-0.07381
-0.02386
0.001856
-0.001407
-0.0004489
1.092
-1.516
0.424
1.319
-1.742
0.4231
-8.287e-05
-7.545e-05
0.0001583
-0.04289
0.09138
-0.04849
6.805e-05
8.621e-06
-7.667e-05
-0.003652
0.001833
0.001819
-0.001064
0.0001934
-0.00779
0.008801
-0.001011
0.04671
-0.1011
0.05436
-0.0006542
4.118e-05
0.000613
0.0006672
0.001016
-0.001684
0.2517
-0.005637
-0.0007341
0.00106
-0.0003258
0.0002158
-0.0003877
0.0001718
0.09366
-0.04694
0.0001153
-5.797e-05
-5.737e-05
1.416e-05
-1.416e-05
-0.0001046
1.375e-05
9.086e-05
0.0009189
-0.002922
0.002004
0.0001534
-5.891e-05
-9.453e-05
4.604e-05
3.1e-05
-7.704e-05
-0.0001729
0.0001653
7.559e-06
-0.339
0.1239
0.2151
9.354e-05
-3.6e-05
-0.0005221
-0.0005586
-0.04937
0.3507
0.0001117
-8.366e-05
0.0003056
-2.835e-05
-0.0002772
0.0004741
-0.0007798
0.0003057
-0.4777
-0.5497
1.027
0.2169
0.001566
-0.2185
0.001989
-0.001656
-0.0003325
1.469e-06
6.792e-07
-2.148e-06
0.0001295
-0.002227
0.002097
-1.396e-05
1.396e-05
0.0005697
-0.0003032
-0.0002666
0.0007691
-0.0002066
-0.0005624
-0.002013
0.001845
0.0001681
4.205e-06
2.712e-06
-6.916e-06
0.000108
2.743e-05
-0.0001354
-0.412
1.374
-0.9615
-0.0001635
0.0002266
-6.308e-05
0.005375
-0.0005396
-0.004835
-0.3003
1.332
-1.032
-0.0006334
-0.0008446
0.001478
-3.92e-07
2.081e-07
1.839e-07
0.001012
0.001044
-0.002056
2.876e-05
-4.645e-06
-2.412e-05
0.006721
-0.003831
-0.002891
0.001243
0.003178
-0.004421
-8.985e-07
-1.412e-06
2.311e-06
2.477e-05
-2.477e-05
0.0005457
0.0002405
-0.0007861
-0.0877
-0.05276
-0.4605
0.2239
0.2367
0.002931
-0.001115
-0.001816
-0.001448
0.001099
0.0003488
-7.549e-05
-0.0001445
0.00022
0.0001552
-8.78e-05
-6.736e-05
-0.0005557
-0.0001078
0.0006635
0.000318
-0.0001505
-0.0001675
-0.002305
0.002077
0.0002279
-0.009275
0.01687
-0.007593
0.0001262
0.0001918
-0.03145
-0.0158
0.04725
3.155e-05
1.755e-06
-3.33e-05
0.137
-0.5754
0.4384
-0.000228
-0.0003419
0.0005699
-2.211e-06
9.987e-06
-7.775e-06
0.0002196
-0.0002692
4.96e-05
-0.0002278
0.0001868
4.108e-05
0.0004459
-0.0002242
-0.0002216
-0.3822
0.09677
0.2854
-0.1896
0.05633
0.1333
5.144e-05
-8.596e-05
3.452e-05
0.007935
-0.008979
0.001043
-0.0001218
0.000233
-0.0001112
0.0004364
-0.0007437
0.0003073
7.418e-05
-0.0001429
6.874e-05
-0.0005427
0.0005258
1.682e-05
0.0003597
-9.962e-05
-0.0002601
-3.706e-05
5.352e-05
-1.646e-05
-2.263e-05
0.0001027
-8.003e-05
8.441e-05
-8.441e-05
-3.034e-06
-3.514e-05
3.817e-05
-3.563e-05
0.000254
-0.0002184
-0.0001277
0.0001062
2.15e-05
-0.002831
0.004252
-0.001421
-0.0003423
0.0007467
-0.0004044
7.455e-05
0.0006111
0.0002141
-0.000222
7.98e-06
1.292e-07
-5.451e-06
5.322e-06
-9.378e-08
8.134e-08
1.242e-08
0.0005488
-0.0002604
-0.0002883
-0.3191
0.421
0.5895
0.2179
-0.8074
0.0004259
-0.0005517
0.0001258
-9.071e-05
-0.0002707
0.0003614
0.004897
-0.0009195
-0.003978
-0.1885
1.18
-0.9913
0.0002768
0.0006481
-0.0009249
0.0003858
3.241e-05
-0.002548
-0.005794
0.008342
-8.887e-05
-5.373e-05
0.0001426
0.0009272
-0.0006681
-0.0002591
2.542e-05
-0.0001028
7.738e-05
0.002508
-0.003033
0.0005245
0.7874
-0.6762
-0.0085
0.00282
0.00568
0.01239
0.0005386
-0.01293
0.0001349
-1.619e-05
-0.0001187
4.573e-05
7.575e-05
-0.0001215
0.0001521
-0.0001157
-3.649e-05
-0.004557
0.001775
0.002782
0.0005282
-0.003527
0.002998
-4.338e-05
0.0001059
-6.255e-05
-0.0006163
0.0009261
-0.0003099
-0.002268
-0.00154
0.003809
-0.001086
0.0004364
0.0006497
-0.0007347
-0.0001554
0.0008901
0.001747
-0.001428
-0.0003185
-0.000369
0.0003146
5.443e-05
0.0002568
-0.0001844
-7.233e-05
0.2604
-0.3212
0.06083
1.844e-05
-1.023e-05
-8.211e-06
6.789e-07
2.433e-06
-3.112e-06
-0.0006618
0.0002575
-9.38e-06
-0.0001268
0.0001362
-0.0001025
2.819e-05
0.02193
-0.1183
0.09637
2.098e-05
-2.098e-05
-9.043e-05
9.043e-05
-0.1668
-1.048
1.215
1.259
0.231
-1.49
0.0001062
-4.7e-05
-5.924e-05
-6.998e-05
0.0004178
-0.0003479
-1.661e-07
1.933e-07
-2.715e-08
-6.694e-06
-3.175e-06
9.869e-06
-0.0002052
0.002061
-0.0004868
0.0006385
-0.0001518
-0.0001177
-1.248e-05
0.0001302
-0.001147
-0.004214
0.005361
0.003634
0.005251
-0.008884
-0.1907
0.06332
0.1274
-0.0001168
7.89e-05
3.789e-05
-8.685e-06
0.0004852
-0.0004765
9.7e-05
-0.0001951
9.815e-05
-0.004739
0.00106
0.003679
1.091e-06
-2.229e-06
1.139e-06
-0.0002949
0.0004091
-0.0001142
0.8161
-1.148
0.3317
-0.0001058
0.0001058
-0.0002059
0.0001304
7.554e-05
0.1662
0.5631
-0.7292
-8.538e-05
8.403e-06
-1.288
1.121
0.2423
-0.4271
0.1849
-0.003209
0.002224
0.0009842
-0.01137
-0.002142
0.01351
-1.725e-05
1.055e-05
6.702e-06
0.7814
-0.9468
0.1653
0.0005275
-0.0002773
-0.0002502
0.4754
-0.1357
-0.3397
0.0004493
-0.000876
0.0004267
-0.01702
0.005651
0.01137
0.0009308
-0.000701
-0.0002297
0.006265
-0.003286
-0.002979
-0.0001296
-0.000538
0.0006675
-0.0005617
-0.0002282
0.00079
-7.702e-05
-2.293e-05
9.995e-05
0.001864
0.0003911
-0.002255
0.1491
0.6512
-0.8004
0.01106
0.06129
-0.07235
0.0002844
-0.000174
-0.0001104
-0.0001643
-0.0008427
0.001007
-6.318e-05
0.0002019
-0.0001387
-0.0001441
8.079e-05
6.333e-05
4.817e-05
-2.884e-05
-1.933e-05
7.742e-05
1.917e-05
-9.659e-05
1.158e-05
-1.158e-05
6.946e-05
-0.0001429
0.001144
-0.0008291
-0.0003148
2.437e-05
-6.484e-05
4.047e-05
-0.0007018
0.0004516
0.0002502
0.0001104
5.21e-05
-0.0001625
0.005093
-0.006206
0.001113
-0.000428
0.0001463
0.0002817
0.4953
-0.3654
-0.1299
0.0001613
-0.0001757
1.437e-05
1.111e-05
-3.201e-05
2.09e-05
-0.0003134
2.304e-06
0.0003111
0.496
-1.094
0.5977
-0.0005224
0.0001865
0.0003359
-0.0006005
0.000329
0.0002715
-0.002313
0.0005961
0.001717
0.001549
-0.0006925
-0.0008566
1.24e-05
-7.625e-05
6.385e-05
0.001464
0.006803
-0.008267
-9.788e-05
0.0001124
-1.448e-05
4.039e-05
0.000295
-0.0003354
-0.001156
-0.001157
3.71e-05
7.259e-05
-0.0001097
-0.0004711
-7.275e-05
0.0005438
-4.46e-06
5.295e-06
-1.181
0.5419
0.6396
0.00236
-0.004633
0.002273
0.0001415
-5.355e-05
-8.79e-05
0.1293
0.05746
-0.1868
0.0001666
-4.797e-05
-0.0001186
-8.089e-05
-2.465e-05
0.0001055
-1.247
1.247
0.00156
0.002368
-0.003928
2.465e-05
-3.543e-05
1.078e-05
0.06898
-0.05301
-0.01598
0.00644
-0.001347
-0.0001355
0.0002255
-9.005e-05
5.745e-05
-2.081e-05
-3.665e-05
0.01245
-0.009635
-0.002819
-1.269
0.5233
0.7453
-0.0001257
0.0002013
-7.561e-05
6.321e-05
-0.0001512
8.8e-05
0.403
-0.2554
-0.1476
-0.008299
0.005547
0.002752
0.0007105
-0.03064
0.02993
0.0003204
0.0001245
-0.000445
0.0001133
4.093e-05
-0.0001542
-0.001566
-0.0007741
0.00234
-0.05421
-0.05391
0.1081
-1.837e-07
5.46e-06
-5.277e-06
3.1e-08
5.482e-07
-5.793e-07
0.0001901
0.0005688
0.0003412
-0.001172
0.0008303
0.0004853
-0.0007462
0.0002608
2.799e-05
1.333e-05
-0.3923
1.239
-0.8462
0.0002321
-0.00114
0.000908
0.3493
-0.006672
-0.3427
-0.0002177
0.0003131
-9.541e-05
-0.001021
0.000995
2.642e-05
-9.217e-05
-0.0001036
0.0001958
0.0004271
0.001122
-1.72e-06
3.267e-06
-1.547e-06
-2.245e-05
2.452e-05
-2.067e-06
-0.5584
0.2183
0.3402
-2.058e-06
2.058e-06
6.324e-05
-4.765e-05
-1.559e-05
-1.943e-05
7.35e-05
-5.407e-05
-0.0018
-0.0002119
0.002012
-0.0002233
0.0003206
0.0003396
0.0001814
-0.000521
-0.0009829
0.0004661
0.0005168
-0.000196
0.0001622
3.386e-05
0.002103
-0.00146
-0.0006434
-0.0103
0.0251
-0.0148
5.246e-06
-5.246e-06
0.0002437
-0.0003028
5.91e-05
-0.0007393
0.0003253
0.000414
0.0002836
0.0001363
-0.0004199
0.001376
-0.001144
-0.0002319
0.0002204
0.000393
-0.0006134
1.755e-05