/*--------------------------------*- C++ -*----------------------------------*\
  =========                 |
  \\      /  F ield         | OpenFOAM: The Open Source CFD Toolbox
   \\    /   O peration     | Website:  https://openfoam.org
    \\  /    A nd           | Version:  8
     \\/     M anipulation  |
\*---------------------------------------------------------------------------*/
FoamFile
{
    version     2.0;
    format      ascii;
    class       volVectorField;
    location    "30";
    object      U;
}
// * * * * * * * * * * * * * * * * * * * * * * * * * * * * * * * * * * * * * //

dimensions      [0 1 -1 0 0 0 0];

internalField   nonuniform List<vector> 
127143
(
(0.001859 -8.119e-05 0)
(-9.483e-05 -0.0004452 -5.74e-24)
(-7.086e-05 -0.000348 1.053e-23)
(-9.259e-05 -0.0004255 -1.129e-27)
(0.00812 0.002531 -1.467e-22)
(-7.835e-05 -0.0004413 4.858e-27)
(0.03128 0.01927 0)
(0.0137 0.006338 -2.087e-22)
(0.01105 0.005289 6.913e-22)
(-0.003153 -0.0001284 0)
(0.03238 0.04441 7.089e-22)
(0.0201 0.01324 7.757e-22)
(0.000315 -0.0001192 -2.143e-24)
(-0.0001219 -0.0004851 0)
(0.1151 -0.0896 1.436e-20)
(0.04207 -0.003884 0)
(-0.0002317 -0.001062 -1.708e-23)
(-0.0422 -0.06951 3.257e-20)
(-0.1697 -0.0139 0)
(0.05176 0.008559 0)
(-0.1377 0.03605 5.932e-21)
(-0.0004671 5.149e-05 0)
(1.004 -0.1458 0)
(0.613 -0.0589 0)
(-0.0005101 0.0001071 -2.007e-22)
(0.2267 -0.03498 0)
(-0.02128 0.0002202 1.361e-20)
(-0.02129 -0.0007216 -2.046e-22)
(0.2453 -0.1096 0)
(0.2475 -0.07622 -1.898e-20)
(0.4911 -0.02926 0)
(0.2203 -0.03241 -3.124e-21)
(0.05898 0.0151 2.421e-21)
(-0.04693 0.0123 -1.345e-20)
(0.8912 -0.08816 1.965e-20)
(0.05517 0.0177 -5.765e-24)
(-0.2324 0.08273 5.045e-21)
(0.3409 0.02059 -4.719e-21)
(0.7269 -0.06531 -1.75e-21)
(0.2156 -0.00987 3.101e-25)
(-0.1705 -0.01604 0)
(1.03 0.4086 -4.601e-21)
(1.014 0.3982 3.311e-21)
(0.0006568 -0.0002224 0)
(-0.04993 -0.06342 -2.898e-20)
(-0.04878 0.01123 4.319e-21)
(0.2478 -0.1152 0)
(-0.233 0.08522 -6.86e-22)
(0.7238 -0.127 4.703e-22)
(0.6938 -0.05537 -1.188e-21)
(0.04993 -0.003591 -1.881e-22)
(0.9845 -0.0376 2.766e-20)
(-0.05404 -0.009422 0)
(1.135 0.1486 -7.429e-21)
(1.002 -0.0007101 1.639e-20)
(0.5668 -0.1403 5.06e-23)
(1.002 -0.0007057 -1.475e-20)
(1.118 -0.08128 0)
(1.009 -0.00669 -1.241e-20)
(1.134 0.1498 -1.443e-20)
(0.5538 -0.09875 -6.881e-20)
(-0.1543 0.07177 -1.081e-21)
(1.057 -0.07367 4.737e-21)
(1.001 0.0004515 2.201e-20)
(-0.1014 0.0119 0)
(0.8993 -0.2392 -5.458e-21)
(1.057 0.1368 2.237e-20)
(1.018 -0.07622 0)
(1.026 -0.0758 1.259e-21)
(0.9895 -8.262e-06 0)
(0.5539 -0.04123 0)
(-0.02305 0.0001946 -6.421e-21)
(-0.1896 -0.05556 -7.037e-21)
(1.01 -0.006552 -6.882e-21)
(1.003 0.002603 -4.243e-22)
(-0.02299 -0.0005839 6.413e-21)
(1.003 0.03262 -4.571e-21)
(-0.207 0.07245 0)
(0.5866 -0.1516 -6.506e-24)
(1 0.000536 0)
(0.2382 -0.1078 1.727e-23)
(0.05798 0.007222 4.281e-23)
(-0.0834 0.01946 6.67e-21)
(0.2666 -0.01881 0)
(-0.164 -0.01809 1.264e-21)
(-0.2135 0.07649 0)
(0.8239 -0.08194 -3.233e-21)
(-0.02947 -0.002575 3.618e-21)
(0.8982 -0.2367 0)
(1.145 0.6696 0)
(1.005 -0.004353 0)
(1.146 0.0635 0)
(1.135 0.6574 0)
(-0.1372 0.03582 -6.101e-21)
(-0.1398 0.02927 0)
(1.062 0.05961 2.411e-20)
(1.031 0.4019 9.685e-21)
(0.3606 -0.02701 0)
(-0.1862 0.06061 2.338e-21)
(1.053 0.137 0)
(1 0.0005217 0)
(0.7532 -0.1353 0)
(0.865 0.7961 -9.907e-22)
(1.092 -0.122 0)
(-0.2141 0.07703 -1.357e-21)
(-0.1865 0.06058 3.352e-21)
(1 -0.1558 -2.835e-21)
(0.9886 6.864e-05 0)
(0.7386 -0.2813 0)
(1.002 -0.0005434 2.306e-20)
(0.1262 -0.09305 -4.424e-21)
(-0.02944 -0.002189 6.958e-21)
(-0.1393 0.0323 -6.148e-21)
(0.2794 0.4282 0)
(0.9955 0.006896 1.652e-20)
(1.047 -0.1663 -5.361e-22)
(0.9848 0.03268 -1.108e-20)
(1.003 0.002703 -1.51e-20)
(1.004 0.03178 3.375e-21)
(-0.001045 -0.00449 0)
(1.002 -0.0005792 -3.225e-20)
(-0.08129 0.0213 -1.897e-21)
(0.8473 -0.3042 0)
(1.097 -0.08861 1.583e-20)
(0.2523 -0.1126 5.528e-22)
(0.1566 -0.02077 -9.357e-21)
(-0.1635 0.0592 0)
(1.029 0.008426 8.646e-20)
(-0.087 0.01564 -1.712e-21)
(0.5719 -0.1659 -3.416e-22)
(-0.1669 0.05096 0)
(-0.1418 0.03254 -4.562e-21)
(1.109 -0.09521 -1.072e-20)
(-0.2076 0.07284 0)
(-0.0003456 -0.001876 -9.365e-23)
(-0.1685 0.05151 -2.192e-21)
(1.084 -0.0314 0)
(-0.1193 0.03233 1.446e-21)
(0.2995 -0.1701 -4.77e-21)
(1.095 0.01316 8.278e-21)
(0.9766 -0.1755 2.691e-21)
(0.9842 0.02145 5.558e-20)
(-0.02575 0.03109 3.2e-22)
(-0.05184 0.02172 -4.425e-21)
(-0.05094 -0.009814 -7.484e-22)
(1.155 0.4184 3.603e-21)
(-0.03581 0.2129 2.502e-21)
(1.001 0.0003918 -1.974e-20)
(-0.1408 0.0324 4.047e-21)
(0.789 0.6717 -5.66e-22)
(1.102 -0.1147 -3.986e-21)
(0.7946 -0.1586 0)
(0.5629 0.03968 1.558e-20)
(0.8638 -0.1489 0)
(0.3602 -0.2417 0)
(-0.1662 -0.01813 0)
(1.119 -0.0804 -5.613e-21)
(0.5518 -0.1918 0)
(-0.2328 0.08511 -1.288e-21)
(0.3186 -0.02859 1.914e-21)
(0.5966 -0.03793 0)
(0.06546 -0.03312 6.3e-21)
(1.005 -0.003954 -2.113e-22)
(-0.1677 0.05125 -5.683e-21)
(0.347 -0.09287 0)
(-0.1089 0.01346 9.64e-21)
(-0.2209 0.07874 -3.498e-21)
(0.7213 -0.2442 1.531e-20)
(0.3151 0.09921 -3.684e-21)
(0.9413 0.03339 -6.763e-21)
(-0.04126 0.01226 0)
(-0.05316 0.02249 2.051e-21)
(1.039 -0.1767 -1.407e-21)
(0.9351 -0.2637 -1.252e-21)
(0.9764 -0.0002993 4.072e-20)
(-0.09702 0.003796 3.237e-23)
(1.141 0.4685 -6.882e-22)
(-0.08738 0.0164 -1.647e-21)
(0.6796 -0.06841 0)
(1.007 -0.01595 4.714e-21)
(0.9343 -0.2642 -4.237e-22)
(1.017 0.007242 0)
(-0.0756 -0.01321 4.928e-22)
(-0.0966 0.002675 -3.28e-23)
(0.5849 -0.1728 8.133e-22)
(-0.151 0.07117 1.937e-21)
(0.9891 0.263 -2.304e-21)
(0.2937 0.444 -7.34e-21)
(0.6415 -0.06248 -3.778e-21)
(1.026 -0.02306 4.22e-20)
(-0.07309 0.01074 5.863e-22)
(-0.09375 0.0006421 -4.17e-21)
(1.081 -0.03065 6.99e-20)
(0.3735 0.7803 -1.178e-21)
(-0.000213 -0.001975 1.562e-22)
(-0.1376 0.04716 0)
(1.003 9.211e-07 0)
(0.9993 -2.024e-06 9.338e-23)
(0.02107 0.007743 0)
(0.9904 0.009536 4.876e-21)
(1.008 0.007265 2.051e-20)
(0.9371 -0.006756 1.007e-19)
(0.9674 -0.04265 1.03e-20)
(-0.2338 0.08328 -2.367e-21)
(-0.0001671 -0.0009397 2.297e-24)
(0.941 -0.05916 5.279e-21)
(1.027 -0.09627 -4.611e-21)
(1.041 -0.1803 4.8e-22)
(0.339 -0.09565 1.689e-20)
(0.9956 0.006644 -8.549e-21)
(1.154 0.008803 1.732e-20)
(-0.1476 -0.009107 7.579e-22)
(0.998 -0.005322 5.998e-21)
(0.3376 0.104 -3.847e-21)
(-0.1458 0.04439 4.049e-24)
(0.03205 0.001449 0)
(-0.03665 0.01234 -1.542e-21)
(1.027 -0.1956 -1.582e-21)
(-0.1472 0.03751 -5.346e-21)
(1.028 -0.09504 -1.258e-21)
(1.133 0.4649 -1.456e-21)
(1 0.003851 -1.913e-20)
(0.782 -0.1531 3.086e-22)
(-0.02934 -0.01007 8.653e-22)
(0.2955 -0.02741 0)
(-0.05785 0.01934 0)
(0.4297 -0.1111 -1.645e-22)
(0.39 0.02752 5.214e-21)
(-0.1359 0.0467 3.183e-21)
(-0.1835 0.06345 3.389e-21)
(-0.138 0.0352 3.751e-21)
(1.018 0.006133 -1.706e-20)
(-0.1942 -0.05564 1.401e-20)
(1.323e-05 -0.01135 0)
(-0.1377 0.03526 0)
(1.084 -0.07491 1.62e-20)
(-0.1676 0.05128 2.728e-21)
(0.004825 -0.0007433 9.827e-23)
(1.009 0.007092 -1.91e-20)
(-0.06332 0.02365 2.947e-21)
(-0.09316 0.0003128 3.734e-21)
(-0.09977 0.009572 -1.56e-20)
(-0.1885 0.04636 -3.259e-22)
(0.5722 -0.2007 1.916e-24)
(0.3532 0.02589 0)
(-0.0008347 -0.004633 2.541e-26)
(0.9145 -0.1834 -1.451e-21)
(-0.02144 0.0004008 0)
(-0.008718 0.002402 2.195e-21)
(1.001 1.883e-05 -7.525e-22)
(1.129 0.3535 -1.287e-20)
(0.224 -0.02475 6.486e-21)
(0.9922 -0.2274 0)
(-0.1067 0.02764 0)
(0.7221 -0.1745 -1.16e-22)
(0.7561 -0.284 0)
(1.029 0.007901 -6.779e-20)
(0.7064 0.2413 0)
(0.9679 -0.2375 0)
(0.8561 0.1824 1.484e-20)
(-0.1238 0.04275 -2.845e-21)
(1.02 -0.01235 1.355e-20)
(1.152 0.06509 -5.819e-23)
(0.9838 0.0205 -4.451e-20)
(0.1366 0.01593 0)
(-0.1014 0.01108 -5.005e-21)
(-0.1119 0.03668 1.059e-20)
(0.3333 -0.2434 0)
(0.6037 -0.2052 4.002e-20)
(1.161 0.1617 -5.174e-21)
(0.375 -0.06857 0)
(0.9715 -0.00107 -4.914e-20)
(-0.23 0.08098 -1.008e-21)
(-0.06509 0.02377 -3.178e-21)
(1.125 -0.07337 8.046e-21)
(-0.07114 0.0106 -2.779e-21)
(-0.139 0.03232 0)
(0.8092 -0.1286 3.73e-21)
(0.9487 -0.001096 -2.822e-22)
(0.9196 -0.2622 1.509e-21)
(1.004 -0.0002348 -6.659e-23)
(1.06 0.0635 2.683e-21)
(1.093 -0.1216 -1.188e-23)
(0.9959 0.0009714 0)
(1.001 0.008547 -3.581e-21)
(-0.0008647 -0.002084 -2.262e-23)
(-0.154 0.04384 0)
(0.9955 0.007668 9.291e-21)
(0.7613 -0.1086 2.961e-21)
(1.006 -0.01599 5.984e-21)
(0.6073 0.03639 -2.062e-20)
(0.9977 -0.1821 0)
(1.082 -0.07581 -1.601e-20)
(1.024 -0.192 0)
(1.001 -0.005961 -1.603e-21)
(0.7275 -0.295 -4.075e-22)
(0.4699 -0.03558 3.333e-21)
(-0.005758 -0.02188 -6.598e-22)
(-0.1891 0.0469 1.257e-21)
(1.16 0.1615 3.747e-21)
(0.3605 -0.04243 -1.82e-21)
(0.9447 -0.2209 -5.193e-22)
(0.8223 -0.2351 -9.288e-21)
(1.046 -0.1659 5.158e-21)
(0.281 -0.02021 0)
(0.5414 -0.303 5.361e-23)
(1.041 -0.18 1.616e-22)
(0.9979 -0.005545 0)
(-0.007006 0.03118 -1.709e-23)
(1.101 -0.1137 -4.676e-21)
(0.9738 -0.1502 -3.489e-21)
(0.007677 -0.03309 -2.536e-22)
(0.5339 -0.1277 0)
(1.003 -0.0003597 6.848e-22)
(0.9935 0.0007868 -1.879e-20)
(1.185 0.4893 6.635e-22)
(0.1752 0.01989 2.459e-21)
(0.3428 -0.03864 4.692e-21)
(1.143 0.07392 2.015e-20)
(0.8723 -0.01269 -1.405e-21)
(1.003 -0.1447 0)
(0.5302 -0.03652 -5.415e-21)
(1.053 0.0201 1.98e-20)
(0.9928 -0.2271 -1.88e-22)
(1.185 0.4878 0)
(0.1413 0.02635 -5.191e-21)
(0.9244 -0.05098 4.245e-20)
(0.03148 -0.0121 -5.243e-24)
(0.5658 -0.02266 2.464e-21)
(1.114 0.5175 5.382e-21)
(-0.1879 0.07632 0)
(1.001 0.008459 2.406e-21)
(0.8962 -0.08875 -7.674e-20)
(1.003 7.326e-06 0)
(0.9993 -3.155e-06 0)
(0.8632 -0.1454 0)
(0.7497 -0.282 -2.659e-21)
(1.038 -0.1768 -1.378e-21)
(-0.1884 0.07681 -1.349e-21)
(-0.147 0.04097 -1.688e-20)
(1.093 0.01084 -3.769e-20)
(1.027 -0.1953 0)
(-0.02893 -0.006822 6.825e-22)
(-0.06864 0.009333 4.29e-22)
(0.2537 0.05367 -4.389e-23)
(0.7497 -0.1039 -1.935e-21)
(-0.1134 0.02683 -5.607e-21)
(-0.136 0.02904 2.351e-21)
(0.3958 -0.04838 -3.011e-21)
(-0.08733 0.01453 0)
(0.4216 -0.04611 2.325e-21)
(-0.08169 0.03589 5.288e-21)
(-0.1253 0.02337 -6.496e-22)
(-0.07043 0.009612 1.955e-21)
(0.9226 0.03236 0)
(-0.1175 0.02865 -1.346e-20)
(-0.1081 0.02804 -2.131e-21)
(1.152 0.3941 -3.256e-21)
(1.004 -0.004594 4.198e-21)
(0.5472 -0.02169 0)
(-0.2233 0.07202 -1.681e-21)
(1.078 -0.07488 1.394e-21)
(0.3615 -0.03949 -3.904e-20)
(0.715 -0.05172 0)
(0.7032 -0.05912 -3.337e-21)
(1.001 0.002019 8.869e-24)
(0.9907 0.009348 -1.45e-20)
(0.8883 0.0007482 0)
(-0.09109 0.01723 4.025e-21)
(0.9571 -0.0007386 0)
(0.4387 -0.08989 5.804e-20)
(1.054 0.01823 -4.291e-20)
(0.2734 -0.02967 -5.459e-21)
(0.684 -0.04975 4.514e-21)
(1.026 -0.02168 0)
(1.121 0.06777 -4.44e-22)
(0.5119 -0.04817 2.968e-21)
(0.01021 -0.01467 2.867e-26)
(-0.1933 0.06643 -6.211e-21)
(0.9537 -0.004486 2.878e-21)
(0.3005 0.007526 -4.403e-20)
(0.183 -0.0211 9.253e-21)
(0.4431 -0.05414 0)
(0.9429 -0.2231 -2.178e-21)
(0.9854 0.03143 0)
(0.09288 -0.007033 0)
(0.9438 0.1299 0)
(0.2288 -0.0114 0)
(-0.1401 0.04741 -8.497e-22)
(0.1917 0.01056 -1.921e-20)
(1.01 -0.004811 -3.536e-20)
(0.7908 -0.2107 0)
(-0.09187 0.03054 2.837e-21)
(0.7266 -0.1864 -2.504e-23)
(0.6396 -0.05666 5.91e-21)
(0.4704 -0.03109 3.982e-21)
(0.7951 -0.2124 -7.589e-21)
(0.5264 -0.03057 0)
(0.9218 0.03066 0)
(1.019 -0.01275 0)
(0.24 -0.02009 -1.729e-21)
(1 0.003655 7.087e-21)
(-0.1261 0.03113 0)
(-0.07826 -0.01314 0)
(0.9484 0.1321 0)
(1.087 -0.1287 2.947e-21)
(-0.2139 0.07738 -7.036e-21)
(1.099 -0.1015 7.309e-21)
(1 0.000396 -8.904e-20)
(0.7226 -0.07496 0)
(0.743 -0.3149 0)
(0.4037 -0.05559 -3.621e-21)
(0.9778 -0.1744 -2.782e-21)
(-0.2273 0.08529 0)
(0.8464 -0.3025 0)
(-0.1396 0.02927 -3.515e-21)
(-0.1673 0.04941 -5.334e-21)
(0.3287 -0.06649 0)
(0.7955 0.07348 3.939e-21)
(0.7673 -0.3067 -1.1e-21)
(-0.2228 0.07983 0)
(-0.0343 0.01207 -5.412e-21)
(-0.1307 0.03874 0)
(1.003 0.000231 -2.578e-22)
(-0.1844 0.06356 -4.2e-21)
(0.901 0.2262 -7.838e-21)
(1.009 0.3877 3.428e-22)
(0.9458 -0.1655 -6.105e-21)
(-0.1034 0.01076 1.626e-20)
(1.01 -0.1183 1.821e-21)
(1.003 -0.0001332 0)
(-0.1319 0.03953 0)
(-0.1228 0.02455 0)
(1.116 0.0004458 9.577e-20)
(1.044 0.1924 5.805e-22)
(1.001 0.001989 -8.904e-22)
(1.06 -0.1592 3.32e-21)
(-0.1238 0.02802 -9.994e-21)
(0.985 -0.03641 -1.054e-20)
(1.001 -0.005995 0)
(0.9993 -0.001184 -3.294e-21)
(0.7292 -0.05913 1.702e-21)
(1.083 -0.03567 -2.438e-20)
(0.7507 -0.2876 4.742e-21)
(0.9609 0.02256 0)
(0.3811 -0.02761 -2.406e-22)
(0.9916 -0.0003746 4.206e-20)
(0.4592 -0.3066 0)
(0.867 -0.003389 -2.185e-21)
(-0.1472 -0.01082 7.46e-22)
(-0.1552 0.0453 0)
(0.509 -0.06611 -2.244e-23)
(1.088 -0.1279 -8.557e-21)
(-0.08006 0.01509 2.502e-20)
(0.8634 0.05823 9.365e-23)
(-0.2344 0.08158 -7.299e-22)
(0.3426 -0.04057 -1.748e-21)
(-0.1002 0.008557 0)
(-0.2364 0.08457 0)
(1.08 0.1181 3.31e-21)
(1.113 -0.0958 3.421e-21)
(-0.02962 0.01782 3.148e-21)
(0.001841 0.02301 0)
(0.344 0.3932 -3.003e-20)
(-0.04009 0.01785 1.384e-24)
(0.9931 -0.0005309 0)
(0.9999 0.02131 0)
(-0.1016 0.02489 0)
(-0.0957 0.02529 6.793e-21)
(1 -0.0001005 0)
(-0.1815 0.05955 2.62e-21)
(1.15 0.07529 1.659e-20)
(1.097 -0.08716 -2.392e-20)
(0.2042 0.01805 -8.731e-22)
(1.03 -0.08052 -7.334e-21)
(1.003 -5.97e-05 0)
(0.2934 -0.1836 -2.621e-20)
(1.148 0.07535 -1.611e-20)
(-0.1456 0.05086 -2.166e-21)
(0.05005 -0.005968 1.732e-22)
(0.2382 -0.127 4.383e-22)
(0.444 -0.2987 -2.72e-21)
(-0.08498 0.01399 3.62e-21)
(0.532 -0.1278 0)
(0.7436 -0.3082 0)
(1.073 0.1985 -5.747e-22)
(0.1355 0.01116 -1.554e-22)
(1.008 0.002364 2.617e-20)
(0.3642 -0.03281 -3.227e-21)
(0.9752 0.003033 3.759e-20)
(1.173 0.4911 2.207e-22)
(0.8618 -0.08588 2.799e-21)
(-0.06714 -0.008755 0)
(1.156 0.4075 1.602e-21)
(-0.0002832 -0.001591 0)
(-0.1622 0.05 7.305e-21)
(0.3064 0.2387 8.176e-21)
(1.105 -0.03044 -2.482e-22)
(0.948 0.6175 4.356e-21)
(0.9969 -0.003614 -4.482e-20)
(0.2338 -0.1296 0)
(1.001 0.02144 -4.444e-24)
(-0.1854 0.05062 0)
(-0.1328 0.04628 -3.091e-21)
(-0.0002029 -0.001153 0)
(0.0005471 -0.003048 1.293e-22)
(0.002443 -0.0008766 -4.313e-23)
(1.001 -0.0002899 -2.319e-20)
(-0.1194 0.02925 0)
(0.5444 0.1259 0)
(0.9937 0.0009689 3.69e-20)
(-0.2144 0.07776 2.589e-21)
(0.8464 -0.3055 4.063e-21)
(-0.1872 0.06326 6.802e-21)
(1.066 -0.15 0)
(-0.1558 0.04531 0)
(0.5004 -0.06151 -2.116e-21)
(-0.1812 0.0593 -2.674e-21)
(-0.03378 0.006289 1.293e-21)
(0.9986 -0.0002888 0)
(-0.1213 -0.01997 -9.96e-22)
(-0.0001447 7.898e-06 0)
(0.7295 -0.2963 7.532e-22)
(0.3832 -0.03815 1.22e-21)
(-0.04519 0.01294 1.213e-21)
(1.01 -0.006109 -1.061e-20)
(1.102 -0.1144 -4.361e-21)
(0.9866 -0.04247 -3.876e-21)
(0.01543 0.02131 5.362e-21)
(1.001 -0.002731 0)
(0.325 -0.02429 0)
(0.5134 0.24 0)
(-0.1145 0.03856 -4.212e-21)
(0.9994 1.513e-05 0)
(-0.102 0.02544 -1.772e-21)
(1.069 -0.09859 -1.197e-20)
(-0.007835 -0.0006043 1.693e-25)
(0.7155 -0.3128 2.096e-21)
(0.3333 0.1081 9.287e-22)
(0.0138 0.02429 -2.019e-21)
(0.9744 -0.003988 2.408e-21)
(-0.1915 0.06743 -2.313e-21)
(0.8232 -0.2993 -2.412e-21)
(1 -0.0001014 2.379e-21)
(0.9441 -0.2226 2.941e-21)
(0.8896 0.08531 -2.022e-20)
(0.5109 -0.04235 -2.656e-21)
(0.7307 -0.05058 2.354e-21)
(-0.08882 0.02354 -7.124e-21)
(-0.0742 0.02572 1.912e-21)
(-0.1377 0.0469 1.513e-21)
(1.155 0.1799 0)
(0.7973 -0.3113 1.016e-21)
(-0.2077 0.0731 0)
(-0.1367 0.04088 2.002e-22)
(1.016 -0.0009331 -5.54e-21)
(0.2524 -0.01226 5.871e-22)
(-0.1627 0.04767 -2.83e-21)
(0.3847 -0.06068 4.606e-21)
(1.077 -0.1145 -6.535e-21)
(-0.2113 0.05956 1.319e-21)
(1 0.0008682 0)
(0.9998 0.001068 1.573e-20)
(0.8628 0.1749 -2.385e-20)
(-0.1105 0.02611 -2.798e-21)
(0.9277 0.647 0)
(0.9924 0.001242 -2.514e-20)
(1.003 1.578e-05 -4.026e-22)
(0.8317 -0.29 0)
(0.6271 -0.2752 0)
(-0.2177 0.07921 2.292e-21)
(0.7424 -0.3087 0)
(-0.08595 0.02954 6.906e-21)
(-0.01943 0.00645 0)
(0.9957 -0.2131 2.652e-22)
(1.003 0.02808 0)
(1.001 -0.0002616 4.039e-21)
(-0.1278 0.04475 3.596e-21)
(-0.1768 0.05543 -2.036e-21)
(0.9934 -0.2287 -5.77e-22)
(1.003 -0.0006839 6.546e-21)
(-0.02363 0.000387 3.141e-21)
(1.1 -0.1077 0)
(-0.136 0.03721 6.493e-21)
(0.9531 -0.003113 9.692e-21)
(0.2602 -0.03222 4.148e-22)
(0.9923 0.001001 4.62e-20)
(-0.2139 0.07771 -1.134e-21)
(-0.08055 -0.01834 0)
(0.1334 0.0158 3.535e-22)
(1.001 4.239e-06 1.344e-22)
(-0.1328 0.04498 -1.119e-20)
(-0.123 0.04204 -6.751e-22)
(0.1087 -0.06332 -7.233e-21)
(1.003 -5.547e-05 -1.008e-21)
(1.013 -0.1588 2.917e-21)
(-0.03718 0.0123 7.205e-22)
(0.9994 -0.001233 0)
(1.087 -0.1289 0)
(0.9929 0.005922 -9.179e-22)
(0.8633 -0.05746 3.309e-21)
(0.09881 0.02701 0)
(0.996 0.0008415 2.562e-20)
(-0.09008 0.02202 1.584e-20)
(0.5698 -0.07746 1.909e-21)
(0.006398 -0.03231 0)
(-0.1093 0.02783 -6.289e-21)
(0.002356 0.03021 -6.802e-22)
(0.4422 -0.04856 -6.969e-21)
(0.4564 -0.0554 -2.107e-21)
(0.2519 -0.09109 -3.141e-20)
(0.7556 -0.07046 -1.443e-21)
(1.129 0.6537 8.024e-22)
(0.7643 -0.03816 -2.646e-21)
(-0.1439 0.03631 -7.453e-22)
(-0.001528 0.008533 -1.311e-21)
(0.3159 -0.02869 1.507e-21)
(1.003 -0.0006629 0)
(0.5593 -0.1176 6.755e-22)
(0.9949 0.0009053 -1.055e-20)
(0.2675 0.07014 -2.091e-20)
(1.029 0.02217 3.217e-20)
(-0.02024 0.03091 4.55e-21)
(1.003 -0.0001558 0)
(0.9954 0.007495 2.301e-20)
(1.122 -0.0804 2.695e-20)
(0.7715 -0.3091 5.663e-22)
(-0.1434 0.03587 2.841e-21)
(1.003 -0.0003343 5.91e-21)
(1.002 -0.0009263 -9.584e-21)
(-0.1418 0.04808 -2.707e-21)
(-0.01916 -0.0006094 0)
(-0.09732 0.02238 6.768e-21)
(0.3783 -0.03108 -4.357e-21)
(-0.2009 0.01732 0)
(0.7503 -0.2866 -3.994e-21)
(-0.1567 0.04604 -4.227e-22)
(0.7429 -0.3159 0)
(-0.06708 0.009513 -6.013e-23)
(-0.1153 0.03492 -2.711e-20)
(-0.08203 0.008005 0)
(1.003 -0.0003521 -1.059e-21)
(-0.09461 0.008213 1.209e-20)
(-0.06094 0.01795 2.186e-22)
(1.044 -0.1604 -1.344e-21)
(1.157 0.119 0)
(1.004 -0.002751 3.541e-21)
(1.003 1.845e-05 3.622e-23)
(0.1813 0.02675 -5e-21)
(0.3399 -0.1933 4.506e-24)
(0.1353 0.01202 7.829e-22)
(-0.01949 0.005967 1.276e-21)
(1.028 0.02278 0)
(1.004 -2.375e-05 1.985e-23)
(-0.1656 0.0532 0)
(-0.1228 0.01654 0)
(0.9399 -0.006427 -7.997e-20)
(-0.1087 0.01219 -4.51e-21)
(1.039 -0.1365 0)
(1.001 0.01521 -5.915e-21)
(-0.08552 0.02608 1.134e-20)
(0.9825 -0.2279 4.052e-23)
(-0.05807 0.01767 1.38e-21)
(0.8625 -0.1741 -2.849e-20)
(0.0006411 -0.0002037 0)
(-0.06141 0.02 0)
(-0.2365 0.08468 -6.497e-22)
(-0.2343 0.08174 1.361e-21)
(-0.1544 0.04387 0)
(-0.09976 0.02177 7.198e-21)
(0.2975 -0.04214 -9.488e-22)
(-0.09419 0.01877 0)
(0.9759 -0.03082 -7.654e-21)
(-0.0905 0.01354 5.621e-21)
(-0.03053 -0.01301 0)
(-0.125 0.03115 -3.028e-21)
(1.002 -0.0006604 2.179e-20)
(0.8406 -0.131 -2.67e-21)
(0.8796 -0.2329 0)
(0.5876 -0.0238 -2.7e-20)
(0.9994 2.388e-06 4.138e-23)
(1.002 -0.0006857 -2.903e-20)
(0.00035 -0.01203 0)
(1.105 -0.02825 -7.793e-21)
(0.6119 -0.1141 1.649e-21)
(-0.08636 0.00979 -3.396e-22)
(0.6011 -0.3296 0)
(-0.008107 0.03058 9.31e-21)
(1.147 0.1941 0)
(0.3338 -0.02839 1.853e-21)
(0.7082 -0.03572 4.229e-20)
(0.7307 -0.1982 0)
(1.008 0.002132 -9.486e-21)
(1.003 -0.0003894 0)
(1.131 0.3728 0)
(0.9095 0.2281 0)
(-0.09897 0.0196 9.366e-22)
(0.5948 -0.03517 0)
(0.4398 -0.1811 2.382e-21)
(-0.2096 0.04892 0)
(0.7034 -0.2911 -1.913e-21)
(1.152 0.007758 1.101e-19)
(0.413 -0.04048 5.783e-20)
(1.002 4.643e-05 -1.043e-22)
(0.4191 -0.02762 -1.202e-21)
(1.032 -0.07964 -1.145e-21)
(0.6814 -0.1593 2.611e-22)
(-0.0005043 -0.00234 2.207e-23)
(1.055 -0.1625 9.753e-22)
(0.1805 0.02445 -8.945e-21)
(-0.1926 0.06646 6.261e-21)
(1.001 1.438e-05 -1.24e-22)
(1.046 -0.1118 1.166e-22)
(0.6881 -0.05896 -3.907e-21)
(-0.03546 0.01221 0)
(-0.09502 -0.03711 7.83e-21)
(-0.04611 0.02435 2.934e-21)
(-0.06669 0.01025 -9.162e-22)
(0.8442 0.7098 0)
(-0.1674 0.04942 5.111e-21)
(0.6242 -0.3318 3.672e-21)
(-0.1678 0.04695 -1.61e-21)
(0.7742 -0.1901 -3.948e-23)
(1.011 -0.1078 3.315e-21)
(1.101 -0.1138 2.21e-21)
(-0.1617 0.05879 2.74e-21)
(1.019 -0.1718 -2.757e-21)
(0.002473 -0.000148 0)
(0.8772 -0.2342 0)
(0.9419 0.02999 3.302e-20)
(0.97 -0.2197 2.577e-22)
(0.7656 -0.3248 3.298e-21)
(0.8712 -0.09017 -8.617e-22)
(1.005 -8.704e-05 0)
(-0.05647 -0.01159 -3.738e-22)
(-0.07423 0.03652 -1.054e-20)
(-0.218 0.07954 -2.129e-21)
(1.004 -6.134e-06 -9.229e-23)
(-0.01907 0.007059 0)
(-0.1361 0.04136 0)
(0.2627 -0.03576 7.005e-21)
(1.003 5.739e-05 5.77e-22)
(-0.09062 0.01804 8.512e-21)
(-0.177 0.05239 0)
(-0.1289 0.02554 9.668e-21)
(-0.1145 0.009622 -2.853e-21)
(1.002 -6.26e-06 -4.946e-22)
(-0.2107 0.07785 -3.576e-21)
(-0.01964 -0.0003413 0)
(-0.08117 0.02268 1.323e-20)
(-0.1077 0.02759 0)
(0.9892 0.01017 -5.795e-21)
(-0.02761 -0.007645 6.243e-22)
(0.1045 0.04122 0)
(1.015 0.003513 -1.083e-20)
(1.034 -0.1881 -1.487e-21)
(1.003 -0.2001 0)
(-0.09925 0.0221 -6.903e-21)
(-0.163 0.05008 0)
(0.9446 -0.2194 -1.763e-21)
(1.054 -0.1625 0)
(0.1943 -0.02288 1.185e-21)
(-0.1236 0.0393 0)
(0.9999 -9.374e-06 -4.268e-22)
(-0.2112 0.078 3.39e-21)
(-0.1865 0.07758 5.334e-22)
(0.2276 -0.01858 0)
(0.4391 -0.06343 2.779e-21)
(1.138 0.1431 0)
(-0.2133 0.07712 0)
(-0.07907 0.02756 4.849e-22)
(0.9997 9.046e-06 2.374e-22)
(-0.1898 0.06451 -6.41e-21)
(-0.08658 0.02573 0)
(0.04246 0.0005693 0)
(0.0008614 -0.01349 -2.473e-23)
(0.04959 0.0006418 -6.966e-22)
(-0.1162 0.03956 6.45e-21)
(-0.1268 0.02806 -6.362e-22)
(-0.1754 0.03449 0)
(0.9891 -0.2195 0)
(1.001 -0.0002762 1.132e-20)
(0.0001656 -6.489e-05 -1.622e-23)
(-0.1621 0.04859 6.691e-21)
(-0.1083 0.02792 5.556e-21)
(-0.09749 0.03486 2.245e-21)
(-0.2347 0.08548 -4.464e-21)
(-0.1902 0.06709 8.821e-21)
(-0.1627 0.05363 -3.005e-21)
(0.5929 -0.04576 0)
(1.001 -0.0002453 0)
(-0.08504 0.006534 0)
(1.086 -0.1287 -1.415e-23)
(1.002 1.044e-05 0)
(-0.1406 0.04456 -1.1e-20)
(1.172 0.4897 0)
(0.9906 -0.1515 2.438e-21)
(0.8599 -0.2995 -1.19e-21)
(1.003 -3.062e-05 -3.971e-21)
(-0.1558 0.04592 0)
(-0.09882 0.008052 0)
(1.008 0.002378 -3.047e-20)
(1.003 -3.437e-05 0)
(1.155 0.1168 0)
(-0.1621 0.07425 4.079e-21)
(-0.2013 0.01871 -1.862e-21)
(-0.1962 0.06929 3.847e-21)
(-0.2159 0.07887 3.161e-21)
(0.05648 -0.0009801 2.229e-23)
(1.078 -0.1379 0)
(0.7297 -0.1765 -2.268e-20)
(1.002 -0.0006917 0)
(-0.1899 0.06243 -3.137e-21)
(-0.2284 0.08151 0)
(0.5056 -0.03122 -2.858e-21)
(0.3126 -0.02566 0)
(0.7233 -0.2419 -1.436e-20)
(1.004 -0.0001871 0)
(1.01 -0.005776 1.659e-21)
(1.002 0.01084 2.002e-20)
(-0.02335 -0.0002795 3.338e-21)
(1.002 -0.0006471 3.828e-21)
(1.149 -0.006089 -4.398e-20)
(0.3818 -0.2324 8.358e-22)
(1.042 -0.1316 4.863e-21)
(0.2179 -0.03358 -4.41e-21)
(1.002 -0.000884 0)
(-0.1255 -0.003506 -1.102e-21)
(1.04 -0.1248 -2.985e-21)
(1 0.004597 0)
(0.4023 -0.04888 2.936e-21)
(1 -0.0001259 0)
(0.6692 -0.3339 5.114e-21)
(0.03333 -0.02989 -6.307e-21)
(-0.08581 0.00897 -1.358e-22)
(0.4425 0.03736 0)
(0.1774 -0.008273 7.203e-22)
(1.005 -0.005304 -2.668e-22)
(-0.08348 0.02229 0)
(0.8555 -0.1835 -7.52e-21)
(0.3331 -0.02603 0)
(-0.01508 -0.01596 -1.005e-21)
(0.3112 -0.03945 1.472e-21)
(0.6013 0.8262 -1.338e-21)
(1.137 0.1447 -6.752e-21)
(1.023 -0.1805 1.542e-21)
(0.79 -0.2735 6.15e-23)
(0.06114 -0.005575 0)
(0.9989 0.005367 0)
(0.5218 0.02544 1.318e-20)
(0.6429 -0.208 0)
(0.5399 0.15 2.75e-22)
(-0.03017 -0.01238 2.638e-22)
(0.1262 -0.02631 0)
(1.003 -0.0001745 0)
(1.098 -0.08945 3.937e-20)
(-0.1265 0.04361 -1.753e-21)
(0.2385 -0.0544 7.804e-22)
(-0.01709 0.0004765 1.33e-20)
(0.8868 0.2224 0)
(0.01379 -0.014 -1.327e-21)
(0.3928 0.1052 -1.154e-21)
(-0.01156 -0.0009226 3.221e-21)
(-0.1413 0.03451 -3.561e-21)
(-0.1059 0.03703 4.495e-21)
(-0.07616 0.007461 4.881e-21)
(0.1019 -0.007416 2.418e-21)
(0.9962 0.03278 1.829e-21)
(0.9525 -0.1387 0)
(1.003 2.551e-05 0)
(1.001 -3.972e-06 0)
(-0.05922 0.02842 2.328e-21)
(1.03 0.04048 9.064e-22)
(-0.08869 0.0003859 3.247e-21)
(-0.1973 -0.06143 -2.295e-20)
(0.2789 0.3987 0)
(1.108 -0.1018 -1.746e-20)
(1.046 -0.02898 -2.475e-20)
(1.177 0.5038 2.085e-21)
(0.9552 -0.2195 -3.735e-22)
(1.01 -0.004757 2.48e-20)
(0.08126 0.02609 1.751e-22)
(-0.2204 0.07893 -1.316e-21)
(1.044 -0.02746 3.352e-20)
(-0.09117 0.02119 -1.704e-20)
(-0.01434 0.005175 -2.51e-21)
(-0.06273 -0.02075 0)
(1.016 -0.2055 0)
(0.1392 -0.1098 -1.093e-20)
(-0.008617 0.01898 0)
(-0.1762 0.06195 0)
(0.9972 -0.002139 1.836e-20)
(-0.06345 -0.008578 1.612e-21)
(0.6921 -0.1624 -2.378e-22)
(1.004 -0.004443 0)
(-0.09357 0.0233 7.974e-21)
(-0.1643 0.04849 0)
(-0.1364 0.06626 -1.967e-21)
(1 -8.65e-05 1.07e-21)
(0.8599 -0.0007028 3.563e-21)
(0.1937 0.01698 0)
(0.04083 -5.448e-05 4.512e-23)
(0.8638 -0.281 -2.867e-21)
(-0.01414 0.004721 0)
(-0.1729 0.05517 2.669e-21)
(0.7509 -0.3194 0)
(0.9844 -0.2182 1.009e-22)
(-0.02514 0.008512 0)
(-0.1098 0.0125 3.104e-21)
(1.001 3.412e-06 -1.122e-22)
(0.3138 -0.1847 0)
(1.087 0.305 -7.532e-21)
(1.003 2.486e-05 0)
(0.7796 -0.2914 1.078e-22)
(0.003664 -0.001448 1.925e-22)
(0.2773 0.008485 -5.229e-21)
(-0.03129 0.001125 -1.469e-20)
(1.161 -0.05632 7.382e-21)
(1.054 -0.161 9.341e-22)
(-0.01114 0.003561 1.97e-25)
(0.03332 -0.003587 -4.958e-22)
(0.6031 -0.06539 0)
(1.002 0.02768 -2.648e-22)
(0.9977 0.001787 6.06e-21)
(1.026 -0.196 0)
(0.7076 -0.3033 -1.168e-21)
(-0.1934 0.06694 -1.21e-20)
(-0.09917 0.02291 0)
(0.298 0.5983 -9.502e-21)
(0.3823 -0.1589 -1.443e-21)
(0.5101 0.002891 -2.042e-22)
(1.101 0.132 -1.511e-20)
(0.375 -0.1554 -1.407e-21)
(1.101 0.01507 4.026e-20)
(-0.03888 0.00317 0)
(1.004 0.0005364 0)
(-0.2301 0.08556 3.454e-22)
(0.008444 -0.03631 -7.713e-23)
(-0.0808 0.02323 -5.101e-21)
(-0.1298 0.03728 0)
(-0.1783 0.05601 0)
(0.9971 0.0002656 -1.695e-20)
(0.9874 -0.005071 1.131e-20)
(-0.1143 0.03981 0)
(0.9605 -0.1906 3.338e-21)
(-0.2029 0.07021 0)
(0.6561 -0.08332 0)
(-0.1656 0.05971 -5.524e-21)
(-0.2241 0.06625 -1.602e-21)
(0.2796 0.02353 -7.524e-22)
(0.02066 0.0165 -3.734e-21)
(-0.1171 0.01545 -1.042e-20)
(0.05748 -0.01033 -2.899e-21)
(-0.04105 0.009959 -1.441e-21)
(0.4393 -0.03051 2.165e-21)
(-0.07748 0.02332 1.156e-20)
(1.085 -0.1308 -6.268e-21)
(-0.2215 0.08103 4.278e-21)
(0.3893 0.7802 1.409e-21)
(-0.1906 0.06747 -2.368e-22)
(0.008647 -0.03853 3.781e-22)
(0.0005509 -0.0003811 0)
(-0.1793 0.0563 0)
(1.004 -7.833e-05 0)
(1.004 -0.00137 1.49e-20)
(-0.2062 0.07718 2.537e-21)
(-0.2308 0.07678 0)
(1.043 -0.1636 8.558e-21)
(1.002 1.64e-05 0)
(0.7116 -0.3185 -3.399e-21)
(-0.1566 0.04582 2.195e-21)
(1.129 -0.0741 -2.204e-20)
(-0.1727 0.06016 0)
(0.2595 0.02771 -9.087e-21)
(-0.1062 0.03391 -1.279e-20)
(1.026 0.5184 -7.404e-21)
(0.9999 0.0003853 -5.55e-20)
(1.023 -0.169 0)
(1.147 -0.03937 -1.331e-20)
(0.2453 -0.09723 0)
(0.286 -0.02144 0)
(-0.1542 0.04152 4.082e-22)
(0.7567 -0.2205 1.2e-20)
(0.5214 0.02616 2.403e-20)
(-0.0901 0.01736 0)
(0.6196 -0.05477 -1.237e-21)
(1.129 -0.08596 0)
(-0.2021 0.05585 0)
(0.7212 -0.3254 3.75e-21)
(0.8616 -0.09951 3.216e-21)
(-0.2225 0.07937 0)
(0.3686 -0.1598 -1.829e-21)
(1.006 -0.006807 -8.128e-22)
(-0.01498 0.005305 0)
(-0.01274 0.003943 0)
(-0.1842 0.07685 0)
(-0.1014 0.02714 8.721e-21)
(0.111 -0.0842 -1.756e-20)
(0.9988 0.01144 2.045e-21)
(-0.01185 0.003032 4.582e-21)
(0.06297 -0.0142 0)
(1.001 -0.0001103 0)
(1 -4.966e-05 -7.915e-21)
(-0.07846 -0.006966 1.589e-24)
(-0.1419 0.03592 8.715e-21)
(0.001662 -0.0007094 -1.936e-22)
(-0.01872 -0.0198 3.052e-22)
(0.9672 -0.1406 -6.539e-22)
(0.7067 -0.2625 0)
(-0.1077 0.03601 -1.284e-20)
(1.031 -0.165 0)
(1.069 -0.1333 0)
(1.007 -0.00459 8.295e-21)
(-0.0906 0.03035 -2.015e-20)
(-0.1281 -0.03975 0)
(-0.1369 0.047 -1.133e-20)
(1.01 -0.2032 0)
(-0.01306 0.002591 8.152e-22)
(-0.2223 0.08026 -6.474e-21)
(1.002 -0.0005728 -4.115e-22)
(0.06158 -0.009713 0)
(-0.1803 0.0579 -2.955e-21)
(1.001 -0.0006657 -3.494e-20)
(-0.08641 0.01468 -5.553e-21)
(1.002 -0.0001129 -3.265e-21)
(0.9985 -0.002768 1.326e-20)
(1.072 -0.1445 1.848e-21)
(1.012 -0.1464 0)
(-0.02245 0.003285 -1.835e-20)
(1.001 -0.001231 3.165e-21)
(0.4075 -0.04799 -3.491e-22)
(1.002 0.003709 0)
(1.176 0.51 0)
(1.02 -0.133 5.149e-21)
(0.06369 0.006602 5.231e-21)
(1.094 -0.1219 -4.548e-21)
(0.5404 -0.1067 -2.407e-22)
(0.5831 -0.08351 0)
(-0.07839 0.02286 2.758e-20)
(1.079 -0.1188 6.483e-21)
(1.002 -0.00147 3.273e-21)
(1.025 0.008147 4.059e-20)
(-0.07503 0.02301 2.628e-21)
(0.8547 -0.1575 6.142e-22)
(-0.1906 0.06695 -1.01e-21)
(-0.1102 0.03636 0)
(0.1525 -0.009752 1.123e-25)
(-0.08744 0.0288 -7.517e-21)
(-0.007931 0.002641 -1.92e-20)
(-0.1112 0.02746 8.534e-21)
(0.7157 -0.2018 0)
(-0.06524 -0.0005321 -2.697e-20)
(0.5287 -0.0568 -6.49e-22)
(0.1958 -0.02608 0)
(0.8089 0.3271 4.768e-21)
(-0.03717 0.01831 0)
(1.003 -0.00463 2.638e-21)
(-0.1175 0.02394 2.107e-20)
(-0.06129 0.000741 5.727e-22)
(0.3139 -0.05179 0)
(0.9974 3.026e-05 4.178e-21)
(0.4696 -0.3106 4.614e-21)
(-0.1497 0.04774 0)
(0.9814 -0.09229 4.997e-22)
(0.931 -0.2579 1.107e-22)
(-0.07665 0.005159 -2.894e-22)
(1.08 -0.1289 -5.606e-21)
(-0.07877 0.01736 0)
(-0.08887 0.03781 2.277e-21)
(0.9862 -0.09313 1.493e-21)
(-0.1447 0.04566 -7.672e-23)
(0.53 -0.1461 -5.546e-22)
(-0.01372 -0.01684 1.099e-21)
(1.002 -0.0002457 0)
(1.144 -0.07695 -5.037e-21)
(-0.1175 0.02254 0)
(1.003 -0.006285 0)
(-0.1352 0.02903 0)
(-0.1171 0.0146 1.917e-21)
(0.9995 -1.027e-05 1.331e-21)
(0.9995 -0.21 -8.685e-22)
(-0.0673 0.01301 0)
(1.038 -0.01782 0)
(0.8257 0.3301 -1.943e-20)
(0.03823 0.01591 0)
(0.02869 -0.01392 0)
(1.042 -0.142 -8.711e-21)
(1.003 1.72e-05 -9.883e-23)
(-0.1314 0.03117 -1.995e-22)
(-0.1279 0.03755 -5.178e-22)
(1.009 -0.0009321 2.009e-20)
(0.8789 0.2984 1.003e-20)
(1.027 0.0783 4.249e-21)
(-0.1595 0.04728 3.34e-21)
(-0.1155 0.0309 -8.893e-21)
(1.041 -0.1787 -1.937e-21)
(1.045 -0.02347 0)
(-0.02563 0.004709 -6.007e-22)
(-0.002888 0.000928 6.999e-22)
(0.5803 -0.1233 2.681e-23)
(0.7131 -0.1137 -1.931e-21)
(-0.1811 0.06403 -1.739e-21)
(0.1014 -0.008092 0)
(0.9921 -7.22e-06 -4.149e-21)
(0.8048 -0.08567 3.553e-21)
(1.003 0.00489 6.293e-23)
(-0.181 0.05665 0)
(0.6546 -0.3062 -3.75e-21)
(-0.1324 0.02665 0)
(0.93 -0.257 9.702e-22)
(0.004254 -0.01582 -6.602e-22)
(-0.02764 0.004452 0)
(0.9993 0.001556 -1.322e-20)
(-0.004288 0.001578 0)
(-0.05075 0.01674 0)
(-0.06003 0.01723 7.792e-21)
(1.069 -0.08961 5.03e-21)
(0.7882 0.2639 0)
(-0.1142 0.04408 -2.101e-21)
(-0.06306 -0.03177 8.075e-21)
(0.2603 -0.01896 0)
(1.02 -0.1419 0)
(0.8915 -0.01242 -7.544e-20)
(0.01586 -0.0008193 6.948e-22)
(-0.2283 0.07685 1.366e-21)
(0.6466 -0.04491 0)
(0.4399 -0.09327 9.163e-22)
(0.8068 -0.1235 0)
(0.535 -0.321 -7.53e-21)
(0.005183 -0.01418 2.58e-21)
(-0.06695 0.0234 3.374e-22)
(0.9869 -0.1683 -4.626e-22)
(-0.1841 0.06287 0)
(0.4219 0.04286 0)
(0.5012 -0.06089 3.11e-21)
(0.5716 -0.05855 -2.228e-21)
(0.2167 0.009268 0)