/*--------------------------------*- C++ -*----------------------------------*\
  =========                 |
  \\      /  F ield         | OpenFOAM: The Open Source CFD Toolbox
   \\    /   O peration     | Website:  https://openfoam.org
    \\  /    A nd           | Version:  8
     \\/     M anipulation  |
\*---------------------------------------------------------------------------*/
FoamFile
{
    version     2.0;
    format      ascii;
    class       volScalarField;
    location    "5";
    object      epsilon;
}
// * * * * * * * * * * * * * * * * * * * * * * * * * * * * * * * * * * * * * //

dimensions      [0 2 -3 0 0 0 0];

internalField   nonuniform List<scalar> 
63564
(
134.5
100.1
331.8
277.4
291
56.67
626.1
280.7
18.28
130.5
0.2222
0.5546
18.87
1.237
32.35
33.21
16.29
17.28
2.406
6.243
2.049
0.9395
4.981
0.5529
321.1
0.2195
6.081
1.274
1.646
16.37
2.018
0.4244
0.4187
0.6981
1
5.114
0.1185
1.067
1.049
1.99
15.37
0.6942
15.47
1.613
16.91
3.98
4.087
1.252
1.491
22.61
0.3568
1.229
2.439
2.912
1.23
0.1151
1.451
1.258
22.42
1.64
31.85
3.765
0.8422
2.353
1.81
2.153
1.588
39.67
1.769
0.07784
1.095
0.07758
1.86
1.039
1.994
2.209
0.9015
1.226
1.257
3.047
2.015
1.806
4.686
2.239
7.938
1.036
2.939
2.346
3.084
2.918
0.6841
2.608
3.211
0.07461
47.04
0.8389
50.77
1.963
221.3
1.232
0.1949
1.561
2.204
33.42
10.7
1.679
1.85
3.387
7.748
0.9243
4.7
1.018
1.295
0.6663
56.69
1.284
1.804
90.88
2.436
3.131
4.353
1.863
1.402
30.43
15.52
15.65
2.162
1.184
0.844
0.3482
1.567
4.505
2.985
0.9585
1.136
2.477
0.841
2.551
1.62
41.83
1.867
0.874
2.266
6.672
1.859
0.9318
3.576
0.5126
10.83
1.107
0.295
2.184
1.45
3.508
2.422
0.862
0.8646
1.965
0.07446
1.92
2.47
2.996
2.086
2.656
0.478
2.799
2.515
2.756
1.19
2.557
1.019
0.9537
0.2682
1.663
1.63
5.317
1.713
0.1652
55.36
1.17
0.366
9.217
4.698
0.8635
0.5867
5.901
2.422
2.254
4.126
1.287
2.971
1.375
1.161
2.398
1.373
1.096
2.172
11.22
2.442
1.037
4.093
2.427
2.97
0.2332
1.636
2.931
1.561
0.08033
2.774
1.558
1.2
6.777
1.91
3.945
1.712
0.9493
1.884
0.66
1.929
1.684
3.099
1.096
0.3793
1.077
0.3679
4.734
1.672
5.333
1.6
1.554
2.75
2.066
112
1.951
2.13
0.8172
89.63
29.3
78.22
2.703
3.008
0.9092
1.906
1.225
1.091
10.9
1.784
42.31
7.457
0.6455
3.073
5.459
1.685
10.22
0.5624
3.426
1.02
2.132
1.619
3.27
4.4
0.8468
1.181
1.897
2.339
4.335
1.683
1.644
3.077
1.4
5.503
9.188
5.067
1.196
14.72
2.212
1.33
2.6
0.5453
3.179
0.8421
10.6
1.36
1.573
3.58
10.32
3.448
1.712
1.628
2.833
1.752
1.813
1.454
4.474
17.2
3.514
0.9222
1.195
2.44
2.756
5.515
3.437
2.401
0.725
1.412
1.554
16.18
2.024
3.363
5.396
3.384
2.35
289.5
7.373
1.682
1.916
1.846
4.218
5.518
2.271
5.675
1.262
28.86
3.573
0.5153
0.7261
3.075
2.515
4.925
0.8775
0.1875
0.2627
2.734
37.97
1.527
1.139
13.17
0.3893
0.7999
2.441
1.388
0.6303
0.828
133.5
3.962
0.4701
1.382
16.47
2.324
5.806
2.597
3.655
2.836
1.185
7.818
3.518
1.243
1.905
4.07
1.934
2.769
1.193
0.7537
4.535
0.4374
0.8944
4.186
1.849
3.351
1.702
52.94
1.683
5.308
1.761
1.824
259.5
1.787
3.336
6.669
1.517
3.063
2.269
1.864
0.4488
2.442
1.164
3.041
0.7234
0.717
0.9211
3.131
1.327
16.58
1.463
2.124
2.308
3.257
16.18
0.1708
2.026
4.427
1.35
5.888
3.419
2.946
7.046
0.433
0.6707
5.749
0.1314
5.139
26.33
3.844
6.552
72.09
2.031
5.857
0.4402
8.82
1.952
2.927
0.4668
0.3718
1.882
3.923
31.59
2.42
0.8802
3.6
2.03
3.328
1.686
0.6566
0.3455
23.47
33.39
1.078
12.25
3.651
0.9299
42.78
0.4429
6.327
0.5711
15.44
22.57
2.224
3.546
1.205
0.2001
0.08611
8.956
1.275
12.26
1.333
2.357
1.202
5.604
3.089
4.073
1.113
1.433
3.141
3.17
2.105
2.54
3.596
0.9955
2.943
14.06
29.58
1.226
1.094
1.697
1.201
3.565
1.369
2.973
0.3482
3.611
2.799
0.6082
5.938
0.7694
0.791
2.241
11.29
13.31
0.7405
3.39
20.58
2.164
1.378
40.92
6.413
3.513
3.764
1.181
2.929
10.64
1.669
2.938
5.164
22.88
0.3591
3.591
1.353
3.159
3.15
6.028
3.722
22.55
3.574
5.582
0.4214
3.843
4.278
0.9504
2.61
4.962
0.6994
3.762
7.194
0.7177
4.134
2.802
4.828
4.916
0.865
2.921
2.471
2.489
1.192
2.63
8.019
25.7
0.96
10.29
1.505
3.422
9.725
14.58
93.42
4.838
4.21
0.7284
0.3794
3.808
23.16
1.936
1.84
3.159
7.359
2.075
1.357
0.4497
28.66
1.271
8.941
1.291
23.64
4.898
16.83
1.388
18.6
2.312
189.4
0.371
9.43
0.9403
9.16
3.102
4.962
0.2297
0.9694
2.167
1.157
0.924
16.61
1.248
1.203
0.6774
28.54
14.53
5.604
2.451
1.817
0.8436
2.682
0.6974
6.553
3.567
7.886
1.574
1.877
0.4804
4.382
4.817
2.126
23.14
2.818
1.02
43.41
1.764
4.895
1.798
0.6148
0.1626
1.449
0.5611
3.745
2.697
2.722
2.367
0.9222
1.005
0.6544
2.077
0.9381
1.609
0.3508
1.612
0.962
0.6697
0.2673
8.073
1.973
25.03
1.633
3.566
5.94
1.869
4.411
22.43
4.055
1.801
3.08
0.4845
3.051
0.7571
1.837
2.738
0.87
0.9063
8.286
2.59
1.818
8.744
1.538
1.453
90.25
1.796
2.351
1.764
1.378
1.119
2.778
0.9047
1.146
3.995
2.495
7.121
0.2362
4.228
1.457
101.4
6.555
26.81
3.032
0.2353
4.955
2.033
5.045
4.673
3.026
1.722
0.5505
78.37
1.625
2.948
0.193
0.354
0.7799
2.156
1.297
5.541
3.762
1.111
4.242
4.098
1.97
2.891
5.949
0.2155
1.525
1.772
4.629
0.1812
3.017
19.99
0.1483
34.12
2.544
3.092
13.5
0.7727
1.045
5.509
2.172
0.8049
4.509
2.301
3.069
73.43
3.26
1.223
2.614
2.583
0.2943
1.152
11.53
2.781
3.876
1.075
15.81
7.872
1.384
10.3
12.09
4.217
2.341
1.438
0.9491
1.28
3.537
2.57
0.1902
2.266
18.12
2.368
2.385
2.539
2.713
2.321
1.672
3.399
0.5687
1.827
19.99
0.3002
2.596
1.937
9.486
2.409
0.529
0.322
1.019
0.5738
1.251
2.736
2.315
2.628
2.807
0.1053
0.3672
1.254
9.719
0.3463
1.23
2.289
2.016
1.724
0.7614
0.957
8.604
3.147
1.705
1.603
0.5383
3.398
10.61
20.24
3.252
6.617
0.5356
5.392
0.8153
20.01
3.439
8.666
1.574
5.526
3.596
3.121
30.5
4.57
3.584
2.756
1.223
1.822
4.533
4.502
5.699
16.06
1.289
1.517
0.6098
0.08568
4.602
0.4729
1.226
4.276
1.053
2.707
14.48
1.366
17.42
1.348
0.9562
5.224
1.304
1.109
3.383
1.518
0.8289
0.06423
0.4577
1.393
24.15
2.102
0.7839
2.191
3.353
1.205
22.47
20.5
21.33
0.7895
9.301
0.3987
0.6737
46.73
0.5056
0.08127
6.175
2.35
0.9408
1.367
7.376
0.8649
2.703
0.3712
1.994
1.909
3.73
12.98
0.6905
0.252
7.579
1.197
4.537
9.943
0.8962
1.747
1.371
4.421
2.862
3.892
3.294
0.3943
0.7639
0.2062
11.99
2.62
2.297
2.422
1.009
1.301
0.2007
21.77
5.099
1.334
0.8055
1.62
8.563
0.9404
4.072
1.661
2.302
2.331
0.3561
2.321
1.239
10.33
0.6783
2.087
0.7294
0.4386
79.39
0.7035
4.624
3.462
3.04
2.591
0.4962
2.255
0.1662
1.887
5.563
2.627
1.225
4.102
2.004
3.429
10.27
3.322
2.97
6.609
4.008
1.334
1.73
2.022
3.195
1.904
1.689
0.8967
1.689
4.021
2.928
5.014
4.31
3.104
1.214
0.6551
2.629
5.715
3.465
1.727
2.932
11.88
1.779
0.7727
35.16
2.093
1.649
0.2608
1.358
9.839
1.036
0.1838
8.484
1.504
1.262
0.6905
25.19
5.746
1.37
1.81
1.006
8.735
0.559
2.864
1.93
11.04
0.5041
15.16
0.4157
0.1553
26.45
0.3671
5.206
0.4706
1.355
8.968
2.172
2.092
1.346
68.4
1.382
1.945
39.33
0.8494
11.13
7.256
4.586
0.9611
11.69
5.254
1.223
1.437
0.4962
0.9468
5.862
1.501
1.735
9.325
0.9804
4.502
1.525
0.4961
1.547
3.172
6.586
1.892
3.088
42.12
4.84
3.07
3.976
1.227
4.73
0.6782
2.53
17.65
0.7026
0.06696
2.722
0.9621
3.551
59.41
1.497
1.397
5.796
1.223
11.44
2.388
2.163
0.9209
1.546
22.66
1.839
5.373
0.3377
2.071
2.193
3.66
1.394
6.536
1.938
1.845
10.75
6.231
10.83
4.982
2.086
1.316
39.26
1.873
2.095
6.11
3.762
2.117
1.012
3.017
21.99
0.08416
4.049
1.004
3.105
1.131
0.3574
6.885
4.614
1.078
2.895
0.5909
0.8318
2.139
1.779
26.97
0.3236
1.032
3.316
1.391
4.397
1.087
10.14
13.29
11.27
19.93
0.5632
0.8659
0.5234
59.84
7.74
1.192
14.49
1.356
11.91
2.062
1.048
6.825
0.5306
3.181
0.2474
4.388
2.186
4.731
0.4418
12.87
3.5
0.8768
2.112
3.86
1.821
1.845
2.211
3.402
2.119
27.36
32
26.73
2.714
17.18
3.96
3.452
3.981
1.74
0.8379
2.857
37.2
0.8229
1.07
13.96
1.75
4.213
0.9132
1.995
0.5757
2.999
0.1806
6.075
5.203
26.74
11.93
1.561
0.5599
3.157
2.22
2.194
11.98
25.39
2.216
3.854
0.4996
0.6512
15.78
1.05
9.627
1.581
2.053
1.026
1.994
0.1701
1.761
3.778
34.89
0.8748
69.31
0.3298
0.08751
22.06
3.551
7.78
0.4449
1.489
1.875
0.9132
4.917
1.335
17.95
3.764
2.751
1.037
3.191
2.447
0.3253
18.97
0.3026
2.424
0.5734
2.336
0.5697
1.191
3.233
2.718
5.175
1.955
3.698
2.537
23.87
3.253
7.403
0.4661
5.703
0.7425
1.287
2.499
9.81
3.457
1.508
0.1859
1.331
22.41
2.832
2.816
1.974
3.977
1.695
2.133
2.345
1.393
1.059
15.22
4.387
10.08
1.178
1.186
8.769
0.743
5.813
0.9266
4.041
1.059
0.7269
3.877
10.28
2.167
37.8
1.295
7.794
3.962
3.784
26.21
6.938
1.658
1.517
2.014
0.2926
2.53
1.606
3.34
37.31
0.3232
3.765
39.92
0.6138
1.236
8.728
3.49
1.137
9.91
1.042
1.738
2.863
0.3489
3.898
0.8159
0.7765
1.032
2.089
0.4141
1.706
23.12
1.973
0.1547
7.357
0.9941
3.797
0.5571
20.42
1.373
0.124
6.856
1.249
1.467
0.3477
2.819
1.67
1.599
1.788
0.7248
5.408
1.613
8.193
10.4
2.317
5.571
2.873
0.1397
3.389
20.72
7.166
0.9254
9.741
2.114
1.175
5.377
1.22
4.626
3.069
0.8225
14.06
10.28
5.98
3.099
5.26
4.507
0.6405
0.1504
1.802
6.859
1.307
0.4672
8.492
8.418
3.335
7.029
0.7219
0.7346
12.1
7.051
3.4
1.321
1.076
1.272
3.493
0.3166
1.446
0.9083
0.6552
6.15
53.01
15.77
1.498
5.561
2.178
3.909
0.5301
6.318
3.909
1.544
0.4941
19.85
3.583
0.727
7.133
1.961
37.41
0.802
4.025
1.467
2.729
3.47
2.31
0.5535
0.7526
0.6758
1.162
4.762
1.618
0.4674
8.221
1.756
6.86
0.7623
0.6117
4.415
7.301
2.485
1.862
3.522
2.226
2.438
0.07108
0.7589
1.936
3.522
0.2115
91.27
5.044
1.828
2.594
1.979
2.152
8.496
3.45
6.348
2.721
0.4635
3.887
2.311
64.07
2.407
0.6801
1.099
3.68
0.2203
1.375
1.712
1.988
1.289
3.553
3.531
0.2006
0.4991
1.871
0.6689
11.22
5.252
1.212
7.416
5.604
2.044
4.791
0.315
0.4679
28.49
1.164
1.105
2.048
0.9
1.351
4.085
1.429
21.49
22.18
7.287
1.822
0.4423
3.245
1.052
1.05
2.762
1.786
1.791
0.3136
21.79
2.226
4.472
1.858
7.054
0.883
3.606
1.746
8.838
1.176
1.411
1.219
3.247
3.173
0.6505
1.595
36.13
0.7673
2.897
0.6434
0.08121
1.738
6.178
0.1748
1.76
50.17
21.58
1.554
0.1381
5.493
1.762
0.6529
4.323
0.4785
2.35
0.7254
6.413
4.053
6.201
3.911
0.8396
0.3952
4.416
2.116
63.68
15.19
1.455
0.7828
0.6241
1.876
1.732
3.282
3.995
1.71
0.6069
4.885
1.492
23.15
0.8133
2.334
2.403
0.5346
1.044
0.7812
98.25
5.694
2.428
1.602
1.944
1.812
1.081
0.697
1.506
1.816
0.3298
1.351
0.5553
22.36
4.632
7.337
0.7207
5.328
1.476
5.025
0.6802
0.9045
1.062
1.319
3.543
4.849
3.386
3.533
7.124
1.055
4.467
0.8798
48.34
2.015
3.368
2.091
1.789
1.683
4.243
1.529
0.1556
3.369
3.897
2.156
5.024
9.434
2.168
35.51
1.866
0.644
3.289
5.235
1.855
0.6059
0.6565
0.3199
0.5574
0.2241
1.103
3.267
0.259
5.937
1.704
0.555
21.19
11.03
3.105
0.8164
3.13
1.685
8.226
1.38
22.58
1.697
0.1289
25.61
2.528
3.221
1.307
12.19
4.246
27.68
0.1727
2.059
0.759
5.313
1.692
1.573
14.99
2.323
1.756
0.1299
1.485
0.9472
10.62
2.07
0.2125
1.401
8.114
3.749
1.396
1.914
1.303
0.5394
3.114
17
0.3456
0.5936
1.568
18.33
2.136
0.5295
0.7983
1.054
0.8639
1.323
4.105
0.2062
2.985
3.654
46.74
0.148
4.751
0.7986
0.1535
0.6081
1.554
1.605
1.008
1.08
2.07
4.79
3.333
2.02
4.903
3.353
10.59
4.5
0.1067
12.54
1.176
5.4
0.452
7.573
0.5333
1.311
1.02
3.906
4.082
1.593
5.014
1.477
1.135
5.086
0.877
2.93
0.9333
4.358
0.5629
1.628
3.611
1.65
3.01
1.585
1.041
2.085
36.61
4.19
1.327
0.815
8.717
1.101
27.97
3.46
1.356
3.539
2.314
1.503
7.935
2.245
2.306
9.762
1.009
4.039
1.543
40.67
0.8529
1.246
1.713
1.595
1.382
0.5309
5.04
2.963
2.84
1.641
1.513
4.999
4.892
2.239
2.145
3.296
3.988
3.349
0.1787
40.03
3.417
1.125
3.379
3.625
5.754
1.89
39.37
2.056
2.287
1.226
1.718
1.06
1.932
1.823
1.474
3.422
2.663
1.356
5.032
2.269
9.634
3.629
0.3498
14.86
10.74
3.882
2.486
3.15
3.602
0.7735
13.28
22.47
1.608
2.733
0.8877
1.499
0.8862
15.77
1.176
3.367
0.9529
7.153
3.243
1.892
5.738
4.575
6.42
0.585
0.7683
1.166
0.8643
0.9172
1.337
2.529
0.1407
2.791
1.728
46.65
0.3748
4.962
0.2693
4.869
1.415
1.125
3.003
2.932
1.296
2.196
1.289
1.311
6.887
2.25
1.343
1.139
3.708
1.362
1.82
2.312
1.336
2.096
0.4548
1.806
1.187
2.839
2.605
1.385
5.189
1.31
4.146
3.13
1.775
2.053
0.42
1.874
1.784
5.074
0.907
3.012
1.938
3.115
1.666
3.231
1.878
1.29
1.788
0.5917
4.308
21.87
1.023
150.5
4.299
10.55
1.127
1.2
0.7068
49.68
1.015
5.561
10.66
1.189
1.065
28.13
3.07
0.7885
5.909
4.003
3.665
1.232
6.859
3.093
0.5702
1.746
0.1268
3.921
1.292
88.22
1.611
4.866
6.142
4.174
0.3354
0.8561
0.4354
2.752
5.455
1.585
3.622
10.89
2.151
1.035
8.112
4.996
1.32
2.321
5.167
9.82
2.729
11.86
2.793
7.573
0.2331
16.64
1.018
4.642
0.4922
1.26
3.612
2.66
1.528
1.105
2.303
2.702
1.983
1.403
1.37
5.181
1.055
2.436
3.147
0.07785
5.51
0.7849
0.862
2.712
2.139
2.838
0.8656
5.4
0.9384
0.927
0.998
5.086
0.3665
0.444
0.5669
0.3986
13.49
4.044
0.9738
1.091
1.504
3.833
3.223
4.385
21.29
0.7147
0.2676
1.008
0.241
1.147
2.458
20.13
1.545
4.913
17.35
0.5099
20.88
3
0.8541
0.06743
1.018
0.1369
5.141
1.276
0.9408
5.422
0.9268
6.942
3.224
6.434
4.36
0.177
2.008
2.009
1.758
7.618
0.6272
0.151
1.679
2.765
5.388
0.8672
6.582
1.853
1.686
0.5899
5.882
5.852
2.145
1.842
0.4948
0.4106
2.501
0.9652
2.243
31.85
2.103
6.915
13.06
2.388
3.532
4.016
1.158
2.252
2.939
3.051
26.07
3.815
8.504
12.77
4.49
22.94
1.862
1.41
2.925
0.2017
10.02
3.049
0.3784
0.7066
0.8165
0.9251
1.692
3.038
3.063
1.261
89.54
7.927
1.857
6.01
1.689
2.639
1.954
0.6143
0.3352
2.713
2.02
0.5843
24.63
5.094
5.9
0.6795
1.858
4.58
1.384
1.607
3.803
4.478
9.101
7.424
2.304
1.389
4.225
19.98
4.896
1.367
0.5171
2.463
4.329
3.213
1.196
0.8605
1.519
3.829
19.11
7.753
4.607
4.992
3.27
5.041
22.03
1.712
1.504
1.436
2.859
26.53
4.716
13.09
6.827
7.826
6.141
1.758
1.593
0.9708
5.006
13.73
5.35
5.707
18.25
1.547
6.693
5.682
0.6464
1.641
1.872
24.82
0.98
0.9875
1.771
52.45
1.435
2.997
1.423
2.306
5.806
0.3344
1.459
0.1782
0.6974
3.726
1.293
2.844
2.98
2.143
2.431
3.279
2.465
1.59
0.3142
7.787
17.05
23.06
0.07909
2.892
11.51
0.7853
1.248
0.9386
2.508
1.216
4.4
1.518
3.223
1.988
0.3262
6.332
2.652
3.249
8.864
2.556
2.84
1.081
17.76
7.14
5.08
5.265
0.5033
1.213
3.65
1.211
1.734
1.193
0.5379
1.156
1.566
19.9
0.7186
0.4874
64.23
13.28
3.235
0.5184
3.535
1.255
1.184
3.036
1.061
21.69
0.7485
8.469
0.705
16.07
4.605
2.936
9.013
19.55
4.955
6.315
1.869
10.36
15.12
11.33
4.067
2.762
0.5198
2.438
9.854
22.27
3.408
1.221
1.003
4.459
0.6521
7.687
0.9976
1.976
0.7766
0.7579
1.396
10.36
1.574
2.855
2.306
4.861
3.102
1.828
19.06
1.218
0.8863
3.787
2.58
1.998
94.52
8.736
1.475
1.318
1.65
2.24
2.712
1.011
2.191
3.413
10.98
19.84
0.4572
0.7594
3.06
6.217
85.77
0.7075
2.068
32.59
0.5071
1.212
0.9985
1.613
3.072
22.71
2.069
0.7271
10.96
3.139
1.814
0.1318
1.329
2.034
0.6844
1.654
2.682
11.51
4.539
1.019
1.506
1.89
24.7
3.231
1.444
2.186
22.3
49.04
6.325
0.9168
1.524
21.41
1.195
1.583
29.71
1.419
6.424
3.288
0.328
3
2.039
1.042
1.899
0.8099
2.004
14.31
2.234
0.7499
2.68
1.112
1.253
2.231
2.253
3.567
1.645
1.845
11.92
8.343
4.748
2.29
2.656
3.794
2.481
1.918
11.76
1.831
2.534
2.2
7.619
0.1271
49.55
1.902
5.539
4.49
12.25
15.21
0.9027
64.69
0.2667
1.601
0.8643
18.01
22.5
8.611
4.378
33.91
7.47
10.25
1.194
0.9078
11.28
15.5
33.65
1.338
0.73
0.9747
0.587
0.3011
1.227
2.096
0.4632
0.2966
3.515
3.038
18.83
5.364
13.66
2.269
33.87
3.335
3.693
0.1769
1.319
0.7846
2.271
4.485
2.155
2.821
2.24
2.645
0.1769
0.4893
14.54
4.305
21.76
18.94
1.466
5.176
0.8203
22.32
0.3885
1.239
3.002
2.564
5.019
7.986
4.045
0.8513
6.283
12.92
1.674
4.641
5.072
1.23
2.327
1.624
3.269
38.52
4.787
3.554
1.979
1.337
1.089
5.221
2.318
2.379
1.883
0.8042
8.201
14.03
6.792
3.41
5.053
17.26
2.994
5.105
0.571
1.847
2.464
2.21
6.474
26.02
1.591
2.361
6.465
1.454
91.66
1.638
1.593
21.98
47.75
84.59
0.1386
1.125
21.95
1.945
91.02
3.283
0.1683
1.74
1.537
2.444
0.5577
3.132
5.461
0.9902
4.107
38.14
24.68
3.062
4.097
4.367
2.123
0.5179
1.332
1.288
2.164
1.519
1.295
10.01
2.496
1.82
2.055
0.153
2.817
2.483
2.833
0.8024
6.452
10.15
9.357
4.08
2.121
27.26
49.94
1.466
4.556
4.333
3.81
1.034
6.548
29.26
3.815
1.372
2.506
2.054
3.451
7.869
0.811
7.613
2.648
0.9603
1.289
1.481
1.515
6.579
1.358
1.591
3.408
1.807
0.8498
3.784
164.1
1.741
33.46
1.961
0.9754
1.873
1.573
2.519
3.899
5.396
3.765
1.502
25.63
4.997
0.9951
1.877
2.254
3.621
7.136
2.13
2.442
1.279
1.73
1.883
0.9392
3.794
11.47
3.517
3.299
0.3141
0.4577
0.2556
6.007
0.3158
1.854
0.5406
1.942
17.26
2.765
1.341
1.809
1.212
6.54
1.389
2.809
3.399
2.066
0.6191
17.87
4.637
3.008
0.543
1.609
2.248
1.507
20.79
0.1547
52.2
13.41
1.064
2.405
0.4197
2.072
1.773
1.02
2.575
0.8675
1.7
7.479
2.876
23.08
3.409
14.62
1.913
7.027
2.167
12.58
0.3603
2.499
6.822
1.086
2.02
3.156
2.244
1.983
3.389
0.4902
4.819
0.2701
3.641
396.4
1.493
6.902
5.524
7.903
0.9387
3.213
0.8978
1.302
0.8044
1.005
4.857
0.8016
1.514
3.161
0.3289
1.824
1.445
2.237
35.36
14.68
0.4932
11.15
68.51
2.282
1.433
15.29
3.902
2.804
2.233
2.9
27.36
9.687
2.461
54.33
5.716
2.854
8.619
31.91
6.564
2.043
4.833
4.64
3.47
5.81
0.6869
21.14
3.98
10.18
3.143
2.307
8.608
0.5307
3.763
2.062
0.8637
0.5775
1.548
4.684
1.967
0.3845
0.5445
5.339
5.556
10.79
5.333
2.52
3.559
20.67
6.361
6.569
6.495
1.513
13.39
9.894
0.4961
0.1273
1.229
4.055
8.283
14.12
5.322
4.821
4.79
1.145
3.751
2.419
3.624
2.932
0.8826
0.07778
8.407
5.224
1.367
26.9
0.1999
1.752
4.512
1.051
0.7239
0.6721
2.205
0.9509
0.6737
0.3807
11.96
14.1
3.33
0.6787
6.298
4.511
1.66
0.1891
4.883
13.04
10.07
0.08078
1.953
3.33
7.033
0.1277
46.59
5.717
3.978
2.666
1.824
35.43
31.77
1.063
5.957
1.934
50.8
21.05
2.23
0.7752
4.832
0.5029
21.34
3.012
10.14
1.353
0.765
0.5844
2.232
1.277
1.279
1.292
4.487
1.764
1.097
31.78
17.57
14.81
3.57
3.706
10.22
5.66
0.4903
0.7918
2.267
21.31
1.655
0.5212
2.355
0.7628
2.837
3.831
1.445
0.516
3.75
2.641
37.3
19.65
3.284
0.5424
16.07
19.01
10.46
3.844
1.072
0.08508
1.551
73.12
1.727
5.103
3.984
14.19
3.169
1.279
1.185
0.2252
2.746
1.752
1.137
7.573
4.066
0.1667
13.56
0.3911
3.256
3.107
2.686
1.459
4.909
0.6255
1.17
2.582
1.483
4.713
0.818
4.252
1.193
2.024
15.64
3.544
4.789
11.75
68.27
4.611
3.806
2.833
2.465
0.25
1.639
1.203
0.5446
2.698
2.143
1.866
1.2
1.544
2.243
0.3525
20.63
2.072
7.608
30.61
0.3212
3.98
2.344
8.154
1.573
3.241
1.281
1.5
1.667
0.8633
1.031
0.9896
2.093
1.845
28.12
14.48
14.96
4.38
5.1
3.012
0.6107
1.352
0.1307
0.5641
0.08791
5.003
7.5
17.44
14.84
3.155
3.152
1.417
17.54
1.276
1.487
0.6513
5.037
22.28
4.53
0.8867
2.138
1.052
2.692
4.539
1.016
41.57
0.6979
44.04
3.05
0.1686
6.005
1.055
5.392
3.938
2.044
20.38
2.746
0.7183
2.804
3.9
1.537
4.79
1.866
2.351
6.176
1.524
9.583
1.993
3.005
1.934
3.338
2.667
2.44
3.39
4.577
2.948
25.73
3.368
3.874
5.34
7.914
0.8068
1.25
1.169
1.077
1.809
1.027
0.747
3.278
25.12
0.2205
1.1
0.6124
8.211
0.4712
2.531
6.112
0.7456
5.619
1.137
1.199
4.682
1.886
0.4195
11.87
2.454
27.24
1.375
4.308
2.3
16.94
1.246
4.52
0.5537
11.25
1.334
4.242
1.861
23.22
2.609
1.275
23.55
0.5345
2.1
5.37
1.419
0.6562
0.5707
9.357
0.622
4.568
4.847
22.29
2.784
1.604
1.03
5.35
2.884
3.981
0.9477
1.785
1.966
5.786
9.785
3.277
5.144
0.8221
3.05
3.567
17.69
5.855
1.857
1.219
12.64
1.97
6.426
1.546
1.03
1.545
3.525
8.063
2.129
1.115
2.88
3.784
0.4976
7.761
0.4758
1.415
1.089
2.102
9.569
0.8739
14.95
0.3238
1.283
12.08
1.206
1.361
0.7519
21.54
6.139
0.6474
8.743
0.604
1.951
10.83
0.9324
21.89
2.036
3.883
4.892
3.343
1.568
0.9179
0.4888
8.205
1.814
1.669
3.257
25.6
2.542
0.1762
3.971
2.864
1.858
2.261
2.289
3.06
2.297
3.182
4.136
3.199
0.5392
12.07
18.35
1.363
3.424
5.946
0.4044
0.9171
12.04
2.737
2.188
4.057
6.199
39.91
0.5803
2.072
2.955
2.109
10.37
0.8611
2.57
2.089
1.789
5.19
17.97
0.5471
2.224
42.57
21.34
0.4615
14.96
0.6209
41.55
3.102
2.036
1.736
2.001
6.978
6.269
0.9716
1.214
1.897
6.445
1.608
21.82
1.194
10.09
0.1665
0.6533
4.162
4.14
1.223
0.7802
2.534
6.755
4.566
9.44
1.05
4.923
0.3414
0.9865
0.8171
8.559
9.449
2.046
4.649
4.808
0.1589
3.755
1.045
1.505
0.431
2.749
2.245
0.7952
1.479
4.066
0.4968
3.416
1.064
5.105
1.203
0.1672
1.918
5.447
4.128
1.97
8.591
2.797
2.285
38.88
5.772
1.186
1.922
18.15
0.8128
4.371
6.617
1.229
4.599
0.726
3.509
21.85
15.51
2.818
5.11
1.309
2.119
5.005
2.858
0.9269
2.335
3.323
0.903
0.828
1.251
0.8414
2.329
3.775
1.617
1.193
10.4
0.4541
4.657
10.21
1.498
0.7505
2.725
0.9182
6.861
0.7135
1.768
17.64
1.114
1.007
1.129
6.107
2.702
0.234
1.529
25.65
2.052
1.955
5.073
4.334
1.073
2.26
3.919
19.79
2.836
0.1652
50.94
21.44
2.23
1.835
21.48
6.196
1.129
0.9362
1.44
1.481
1.833
2.861
3.065
1.895
1.477
0.286
1.414
9.519
4.448
3.348
8.913
6.813
1.285
3.674
9.362
1.335
0.3532
8.518
0.2536
3.874
12.65
16.76
2.984
0.3732
3.693
1.805
1.315
0.2547
1.711
3.489
3.059
1.754
13.36
7.428
14.09
1.798
7.282
2.045
1.182
21.24
1.828
3.919
10.62
0.7776
8.041
2.325
10.74
9.926
1.416
2.089
2.506
1.235
2.809
13.07
1.851
1.041
8.518
9.733
12.25
21.92
7.131
0.9758
2.492
2.322
3.952
2.034
1.267
19.9
19.31
6.38
2.101
42.63
1.923
1.358
3.177
22.02
0.7804
1.969
24.5
18.19
4.382
0.2528
67.31
8.481
4.361
7.827
1.449
2.29
9.399
2.599
7.677
1.044
2.49
4.509
0.419
3.05
0.501
0.9798
11.14
4.499
3.061
0.2266
11.17
3.124
1.228
5.16
22.72
1.609
0.1376
2.922
5.094
14.14
66.15
1.595
0.9164
0.7899
10.37
0.7426
1.098
1.57
78.48
1.051
2.306
2.677
0.9301
2.474
3.912
19.52
1.57
2.842
2.646
0.9987
1.964
5.691
2.835
8.758
2.914
2.782
1.91
10.91
5.154
4.63
0.7287
0.4751
3.889
14.75
1.821
16.92
0.3461
4.836
21.98
2.704
1.055
3.592
1.216
2.721
2.491
6.904
1.222
2.256
0.9323
0.8912
1.2
3.271
4.779
4.502
1.697
4.103
2.9
4.961
0.8421
2.865
0.3635
0.7529
2.208
1.297
2.278
0.6511
1.337
0.2099
2.174
5.981
1.538
0.7627
14.54
0.9373
7.656
1.297
0.9618
1.34
0.8027
14.97
0.468
6.585
6.076
1.896
0.3051
1.593
0.8378
8.611
4.366
7.908
2.609
3.214
0.7433
2.607
15.79
0.1166
0.5195
2.432
1.266
12.09
4.637
3.284
1.529
1.415
5.619
4.329
1.308
2.27
3.434
15.56
4.886
5.395
0.6496
56.84
4.545
29.08
7.454
2.817
0.5337
3.6
5.975
1.156
1.145
1.411
0.3176
2.153
1.15
0.2184
1.001
15.83
1.672
19.3
12.19
1.71
2.979
2.13
1.126
2.567
2.389
2.048
4.093
5.362
1.824
1.387
2.181
70.17
1.24
1.822
5.926
1.702
0.677
3.652
2.112
23.91
0.2079
0.07806
2.701
4.334
0.7044
15.3
14.09
15.51
4.334
32.29
2.507
4.962
1.128
2.993
1.924
61.36
4.193
0.4178
1.718
4.22
14.07
0.6193
8.077
19.48
5.078
6.76
1.195
4.574
2.024
1.683
11.9
1.801
1.226
4.891
0.7899
2.789
0.4068
1.411
1.779
1.266
2.688
6.735
1.459
10.12
5.428
1.548
1.992
3.104
2.086
1.135
32.88
2.806
2.166
1.713
2.39
2.2
8.086
14.47
14.79
0.2968
1.455
2.567
5.569
3.073
1.265
7.599
0.2679
8.271
1.218
3.673
3.184
1.269
1.381
1.082
1.763
5.693
51.29
4.154
6.795
1.836
2.44
5.132
2.922
0.2892
3.944
6.127
1.842
2.913
8.869
1.876
8.695
3.931
1.152
0.273
1.96
9.539
0.9382
5.498
1.43
2.235
1.524
6.312
20
1.216
2.22
2.661
1.681
17.43
1.154
5.471
47.43
0.6167
3.215
1.863
21.12
4.596
0.3051
8.085
19.64
1.991
12.5
4.197
1.392
3.885
1.945
4.962
8.929
2.311
7.32
13.79
3.731
1.652
2.262
11.9
9.181
1.56
1.065
4.675
0.5644
1.505
0.498
3.632
36.81
0.5694
5.016
0.5129
9.432
2.24
7.657
3.075
5.229
0.3869
1.349
6.951
4.716
0.8252
0.2828
1.824
0.6771
0.2265
13.27
7.055
4.75
2.774
1.452
1.747
27.53
1.46
3.455
1.22
14.56
32.78
0.2436
1.022
7.562
4.395
0.2215
0.2448
0.1428
22.4
0.9726
2.731
1.584
3.882
9.582
2.784
5.18
3.999
2.595
0.6279
0.3528
5.955
0.972
0.4984
0.263
0.8551
1.814
2.155
26.91
2.991
2.84
0.9015
1.23
1.752
4.679
0.5441
42.64
6.233
1.258
2.116
0.3051
15.68
2.162
6.332
3.289
2.04
3.364
0.7479
0.4431
1.45
4.94
0.8971
3.345
3.216
1.989
2.327
8.911
1.663
2.724
12.83
0.3476
1.091
0.8804
2.635
1.822
23.24
16.53
1.242
1.892
0.9727
0.888
3.594
0.5582
1.811
38.72
15.87
2.307
0.1817
0.9378
0.6934
4.475
1.027
1.903
3.204
36.1
0.9537
6.302
0.7462
2.846
0.8682
1.688
2.192
0.7975
1.453
6.646
2.977
1.366
19.2
1.202
0.2569
1.866
4.29
15.17
1.566
2.013
18.91
0.786
19.68
2.371
53.06
4.417
3.643
1.751
1.689
4.663
0.259
2.973
0.8988
20.91
0.6074
1.904
1.998
2.168
1.918
1.8
0.4169
1.105
2.723
0.875
3.276
0.498
0.06726
0.9244
21.93
4.367
0.8748
2.827
3.078
2.145
7.224
25.46
2.309
1.691
13.21
2.6
1.09
22.79
0.9713
1.873
3.572
1.271
0.3386
14.18
1.296
2.066
57.65
5.814
4.598
0.3812
1.973
2.177
2.134
0.9111
2.077
0.08965
1.355
3.903
3.491
0.8218
1.34
2.169
0.463
8.115
4.912
7.767
5.765
1.016
1.335
6.562
0.7531
0.9354
21.47
2.699
7.797
1.178
7.764
12.47
1.345
19.59
2.1
10.48
1.455
3.613
2.79
1.841
23.88
2.222
0.9037
1.53
2.246
2.582
45.29
0.9757
2.634
0.08572
8.101
1.211
4.483
1.222
5.25
10.73
3.064
1.274
1.695
0.7822
3.658
4.415
2.732
2.377
7.588
3.75
2.907
16.26
2.1
0.7033
0.381
0.6102
3.662
2.216
10.73
14.12
1.171
3.297
0.638
8.617
1.806
9.917
9.323
3.671
2.307
14.39
1.807
0.946
17.88
0.6435
17.19
0.5964
5.079
1.706
0.8056
0.7147
4.575
4.523
20.44
1.537
1.716
1.035
3.871
6.094
2.847
2.003
4.308
2.161
27.18
1.796
1.854
6.798
1.485
17.1
19.6
1.529
1.357
9.669
7.173
38.88
1.341
5.326
2.126
1.413
1.616
2.045
4.533
1.818
2.216
2.092
3.646
0.4088
2.607
14.14
2.51
4.287
0.7826
0.9071
2.247
8.958
2.807
23.1
0.1758
3.287
0.537
7.132
0.4377
10.65
0.242
2.718
3.266
33.92
1.665
1.187
8.883
5.463
2.117
2.227
62.59
1.678
2.389
2.951
3.306
8.019
4.909
0.78
3.849
2.061
5.52
0.4084
0.8003
0.6596
3.245
1.808
25.57
6.282
1.406
0.6476
3.241
4.757
8.02
4.372
5.62
0.9309
3.043
2.027
6.269
0.8331
1.87
16.27
1.679
1.716
0.486
12.86
1.376
2.019
0.2305
4.59
1.075
0.07955
3.836
1.251
5.22
7.736
2.534
4.661
0.1841
2.796
1.153
5.709
5.204
6.2
2.771
1.108
3.472
0.7436
4.027
1.551
4.304
2.161
0.5124
1.06
1.186
18.62
1.656
2.431
0.1771
0.1852
32.44
1.835
2.726
0.2534
1.59
1.457
1.407
0.6726
6.096
0.9672
19.19
2.078
1.05
2.278
0.4857
12.97
4.558
2.031
2.46
2.628
6.197
4.725
1.874
2.353
5.49
3.381
0.2529
0.5616
1.81
1.784
0.1396
1.703
1.455
23.44
5.937
2.556
3.3
0.885
3.178
1.205
0.539
1.947
2.43
2.024
32.86
0.354
2.722
12.4
1.493
6.247
4.437
1.563
34.14
3.284
1.42
2.12
3.315
0.4872
1.138
17.87
0.8571
13.61
0.1477
2.804
3.877
6.345
3.64
3.568
0.712
1.249
1.827
2.206
4.369
0.3555
1.254
8.639
0.6293
4.388
3.137
0.8496
0.6331
2.855
28.97
8.777
2.916
28.15
1.219
4.842
1.806
2.286
4.604
1.951
3.865
0.2871
3.204
4.566
2.275
31.59
1.445
1.215
16.59
1.19
1.206
1.575
21.26
4.334
0.7146
1.341
0.4948
1.494
14.05
8.84
27.48
1.225
3.314
1.211
3.455
3.462
3.056
6.426
0.9872
26.37
2.68
2.417
0.8647
0.7486
5.167
6.276
1.741
6.992
5.675
1.172
0.9649
2.593
1.189
11.05
1.184
4.537
2.725
3.674
1.488
2.475
1.408
0.4596
22.09
5.857
3.007
1.003
1.624
2.398
0.8155
7.144
1.215
5.413
46.05
0.3243
3.593
2.813
6.17
0.8915
0.6214
1.162
0.3938
6.001
2.722
35.63
3.375
24.06
2.152
11.78
0.6918
0.5665
0.1067
0.06255
1.321
8.03
5.023
1.362
0.6928
1.009
4.89
3.376
3.054
2.457
4.075
1.4
2.488
1.021
2.235
0.2673
29
4.138
5.668
0.2072
2.195
2.599
1.896
1.623
9.592
0.6276
1.459
2.714
4.682
3.011
8.198
1.451
33.92
1.525
0.4748
1.478
5.965
4.297
2.11
0.4089
1.54
2.804
4.208
0.0821
0.1248
2.232
12.26
1.337
25.17
1.439
9.994
3.088
2.893
1.958
0.1316
0.5173
1.549
33.95
5.095
4.729
32.62
2.071
14.06
1.699
2.084
4.418
13.76
15.28
0.3908
32.81
1.988
1.519
0.4538
0.9142
1.638
1.454
2.815
43.3
9.551
0.8691
0.8361
3.769
4.757
6.049
1.236
2.062
1.777
0.7755
0.6299
0.4346
21.74
4.059
1.305
1.476
4.496
3.102
0.3678
5.604
1.074
9.958
1.024
5.226
0.7805
2.891
3.266
0.5617
1.61
1.779
0.4974
1.545
1.874
3.821
0.679
1.276
5.082
1.584
7.46
1.421
7.994
32.7
7.298
2.377
7.6
15.88
22.77
5.05
3.1
3.43
34.92
2.056
1.093
20.91
7.307
3.214
3.121
2.52
1.182
1.68
1.393
1.217
32.74
0.9217
3.165
1.971
5.103
0.1959
2.209
6.96
1.128
2.003
0.4983
2.918
3.727
1.203
4.716
1.473
9.234
1.737
2.702
4.207
9.84
6.309
3.186
7.166
3.595
2.966
1.045
2.141
1.588
0.5781
1.73
0.08741
1.206
5.202
30.91
2.948
1.379
2.146
1.044
2.52
5.013
4.334
1.829
3.052
4.943
10.85
5.914
33.12
3.069
1.452
1.679
2.369
2.851
16.51
0.531
4.204
0.6532
21.6
13.74
0.1079
1.212
3.167
1.945
12.62
4.035
1.922
0.2191
0.6028
7.184
1.962
0.6339
2.66
0.2968
2.82
2.22
24.84
10.04
1.121
5.555
1.358
0.6853
0.6266
2.422
0.2398
0.9665
1.374
1.749
3.098
4.496
2.279
1.205
5.185
0.332
2.595
2.337
0.9824
7.417
3.332
2.711
32.23
2.119
1.301
3.157
0.9951
9.351
1.8
0.6782
1.272
11
8.433
5.81
0.8023
0.4537
21.59
3.509
0.5842
2.227
0.2285
3.379
1.852
0.6179
5.655
1.962
8.48
2.773
0.5406
1.501
5.452
1.609
21.6
1.898
0.07348
3.411
8.882
0.7309
0.8151
4.076
2.717
4.026
3.343
0.9605
1.764
3.096
45.81
2.767
5.426
1.326
0.8455
1.272
17.83
4.009
0.3293
45.17
1.32
1.491
1.161
2.293
0.6262
1.541
0.7977
0.5908
4.004
1.785
4.104
1.057
6.291
2.454
1.314
3.454
0.6011
3.866
1.494
3.869
2.191
10.05
0.4588
2.859
39.31
5.612
4.119
4.512
3.824
2.179
6.936
1.97
1.004
0.4606
1.202
3.557
0.9777
4.573
2.898
8.533
3.587
40.92
1.917
0.8919
2.27
0.3846
47.44
2.429
20.91
1.462
6.313
3.068
1.719
1.36
40.7
21.38
1.526
0.8167
0.4404
1.183
0.5632
1.308
2.294
5.543
1.492
0.2017
6.009
0.7001
3.584
0.2718
10.11
6.93
0.4223
10.89
1.262
16.96
2.069
3.032
2.581
5.494
6.222
4.684
0.3514
1.246
4.945
5.917
0.8756
34.99
7.404
1.534
4.722
3.191
19.88
1.016
1.134
4.812
0.7267
23.02
4.955
21.78
2.523
13.08
0.7568
0.2695
4.564
0.124
0.3101
0.7858
0.04789
0.2107
0.6308
3.283
0.8535
2.66
1.312
8.533
1.775
31.81
0.6514
5.105
37.73
9.821
1.147
1.899
3.599
3.346
2
1.366
0.5719
1.17
2.122
2.456
53.5
25.29
2.372
14.45
2.602
22.65
0.1326
2.894
0.5349
0.08157
0.996
2.062
0.9043
4.34
0.6917
15.91
2.255
1.51
1.89
3.59
0.08612
1.049
6.852
5.307
2.827
22.03
1.228
1.228
3.473
2.316
1.639
2.825
0.07468
1.794
0.7796
1.031
1.881
4.481
3.492
0.1872
1.972
4.305
1.593
6.816
0.7039
0.5423
2.371
1.73
1.825
20.61
0.2496
2.07
8.823
0.7264
1.771
0.9322
6.108
5.308
3.107
4.339
17.04
1.906
2.978
4.136
2.879
7.035
0.3558
38.36
1.566
5.284
2.825
2.779
0.1304
6.998
46.97
2.224
0.2489
5.577
14.13
3.461
8.482
3.592
7.017
15.93
0.8216
3.406
4.42
1.001
1.731
6.177
5.393
38.23
0.4613
0.1907
2.873
4.994
1.366
16.14
3.975
3.317
25.67
7.386
4.786
10.87
2.877
1.277
2.339
1.568
1.697
0.7553
2.404
1.062
2.734
2.007
0.5554
2.619
1.633
4.63
1.257
7.749
1.714
2.71
1.562
0.4486
3.723
2.453
0.9219
1.523
0.2816
5.401
3.421
0.9038
0.9177
3.979
6.398
10.93
2.131
1.171
0.8144
3.618
0.7477
0.5154
1.02
2.619
1.034
0.4024
6.271
2.192
0.7317
0.1095
0.6395
4.289
3.751
3.088
3.005
1.138
3.297
0.4184
3.793
1.71
9.142
3.57
1.412
1.597
0.6127
2.5
2.194
15.64
1.774
2.639
1.825
3.189
0.1755
5.317
0.4427
0.634
5.096
0.9096
2.152
2.463
4.098
1.162
0.1792
4.597
0.8479
2.509
38.61
1.303
2.299
1.345
6.707
2.402
3.611
12.07
2.921
1.688
0.5891
0.8883
4.095
18.46
1.434
3.294
3.978
1.221
4.661
1.625
0.3253
5.253
1.541
4.01
0.8353
0.8375
15.31
1.345
1.027
4.63
4.503
0.3234
2.054
0.899
2.127
0.7626
0.782
1.376
16.53
1.049
2.043
1.455
3.322
0.7125
2.318
2.296
14.02
2.229
9.917
1.435
4.476
1.794
2.168
2.971
6.266
10.8
2.637
2.771
2.375
0.9577
19.59
2.877
0.5293
1.461