/*--------------------------------*- C++ -*----------------------------------*\
  =========                 |
  \\      /  F ield         | OpenFOAM: The Open Source CFD Toolbox
   \\    /   O peration     | Website:  https://openfoam.org
    \\  /    A nd           | Version:  8
     \\/     M anipulation  |
\*---------------------------------------------------------------------------*/
FoamFile
{
    version     2.0;
    format      ascii;
    class       volScalarField;
    location    "5";
    object      nut;
}
// * * * * * * * * * * * * * * * * * * * * * * * * * * * * * * * * * * * * * //

dimensions      [0 2 -1 0 0 0 0];

internalField   nonuniform List<scalar> 
63564
(
4.059e-09
8.526e-10
2.176e-09
1.001e-08
1.024e-08
1.122e-05
2.967e-09
1.413e-08
1.938e-05
5.87e-08
0.06416
0.03583
4.906e-05
0.009534
4.196e-05
4.008e-05
0.0001087
9.353e-05
0.0009925
0.0003441
0.004573
0.02372
0.0002969
0.03582
7.508e-08
0.0632
0.0003648
0.0107
0.002132
2.485e-05
0.01251
0.05414
0.05476
0.02644
0.005398
0.0009333
0.1642
0.004877
0.005031
0.001454
0.0001257
0.02238
0.0001177
0.006215
5.681e-05
0.0009214
0.00037
0.01266
0.00731
9.341e-05
0.0619
0.009662
0.003706
0.0006904
0.009713
0.1682
0.0077
0.009315
9.576e-05
0.00627
1.833e-05
0.0009843
0.01909
0.004849
0.004536
0.003481
0.006407
2.113e-06
0.004745
0.211
0.0124
0.2198
0.01375
0.01661
0.01282
0.003302
0.02574
0.01303
0.01096
0.0005976
0.001396
0.004559
0.001128
0.00374
0.0006465
0.01659
0.003848
0.004895
0.003567
0.003896
0.02726
0.009893
0.00525
0.2176
1.277e-06
0.01881
7.745e-06
0.00496
7.923e-08
0.003522
0.1088
0.009528
0.003057
1.431e-05
0.0003216
0.005124
0.01308
0.0005008
0.0006039
0.02433
0.001193
0.01386
0.008843
0.0237
2.426e-05
0.008976
0.00457
1.993e-07
0.01128
0.005551
0.001325
0.006654
0.02202
1.965e-05
0.0001062
3.715e-05
0.01239
0.01215
0.01847
0.06345
0.01166
0.001212
0.001783
0.02454
0.01322
0.01096
0.007261
0.01028
0.006407
1.183e-06
0.004078
0.02658
0.001136
0.001016
0.006662
0.0253
0.0004522
0.04006
0.0005162
0.02022
0.07424
0.001201
0.01892
0.001992
0.001349
0.01905
0.01897
0.003665
0.2262
0.01502
0.01081
0.001667
0.005123
0.003779
0.04483
0.003898
0.01049
0.001897
0.01196
0.001294
0.01606
0.005886
0.07864
0.00205
0.002201
0.0009608
0.001962
0.1224
3.954e-05
0.01089
0.06026
7.307e-05
0.0003269
0.01787
0.0345
0.0009104
0.0009859
0.001122
0.0003337
0.009749
0.003763
0.008485
0.01238
0.00387
0.007548
0.02498
0.003966
0.0001358
0.002476
0.01342
0.001516
0.002501
0.003525
0.09374
0.01058
0.001924
0.002365
0.2054
0.0007608
0.009533
0.009659
0.0008847
0.005445
0.001753
0.006355
0.02765
0.007842
0.02848
0.007503
0.009388
0.001435
0.01194
0.05834
0.02084
0.06015
0.001013
0.01857
0.00286
0.01095
0.021
0.0007428
0.01041
1.268e-06
0.003929
0.005272
0.01966
1.551e-07
4.845e-06
8.033e-06
0.001974
0.004788
0.01877
0.004415
0.009297
0.01204
0.0001827
0.007614
2.358e-05
0.0007276
0.02945
0.0006049
0.0009211
0.009293
0.0004641
0.03531
0.001804
0.02587
0.001283
0.002159
0.001281
0.0008517
0.01849
0.017
0.00469
0.002696
0.000371
0.005099
0.007786
0.001574
0.008307
0.0006215
0.0001609
0.0009465
0.01002
0.0001237
0.002891
0.009023
0.004358
0.0372
0.001702
0.01854
0.0003294
0.003021
0.01931
0.001114
0.0005317
0.005278
0.01512
0.002111
0.003572
0.01007
0.01408
0.007007
0.001312
0.0002686
0.001209
0.0192
0.009733
0.01106
0.001952
0.0007881
0.002415
0.01164
0.03352
0.0195
0.02099
0.000133
0.003782
0.002326
0.001103
0.001294
0.01204
1.702e-07
0.0006659
0.006558
0.005405
0.004176
0.004266
0.002409
0.005679
0.001446
0.0101
3.84e-05
0.005499
0.03976
0.03121
0.000612
0.01084
0.001132
0.02034
0.1123
0.08039
0.0007775
1.696e-06
0.01216
0.01144
0.0001237
0.05079
0.02169
0.0111
0.0074
0.03183
0.01964
1.685e-08
0.002478
0.04571
0.00851
0.0001266
0.002735
0.002171
0.003725
0.002065
0.003937
0.01107
0.0007732
0.001124
0.01151
0.01509
0.004566
0.003996
0.002073
0.01095
0.02457
0.0002948
0.05281
0.01926
0.0009478
0.004687
0.001316
0.01885
3.106e-05
0.01908
0.000973
0.007064
0.007175
5.86e-08
0.004599
0.005578
0.0005433
0.007793
0.002074
0.003106
0.001656
0.04723
0.002607
0.01022
0.003616
0.03344
0.0255
0.01922
0.002054
0.009124
4.183e-05
0.007129
0.004199
0.001074
0.000549
0.000111
0.1211
0.006661
0.003639
0.01776
0.000224
0.001188
0.0006578
0.001032
0.05324
0.03183
0.001416
0.1328
0.0009246
2.509e-05
0.004018
0.001887
1.258e-05
0.003562
0.0006641
0.04831
7.865e-05
0.01154
0.006726
0.03118
0.05951
0.00495
0.001003
1.355e-05
0.004315
0.02061
0.001569
0.01061
0.001273
0.00511
0.02879
0.06463
2.449e-05
1.37e-05
0.01213
0.0002642
0.00191
0.02812
3.137e-05
0.04848
0.001346
0.01329
0.0001771
9.766e-06
0.003455
0.001211
0.006983
0.1055
0.2038
0.0002693
0.01048
0.0003958
0.01241
0.002549
0.009945
0.0007133
0.002329
0.001306
0.01413
0.02235
0.003734
0.002556
0.01419
0.000887
0.001116
0.01625
0.002205
0.0003184
5.654e-05
0.009593
0.0127
0.006946
0.009639
0.001569
0.02079
0.001724
0.02855
0.0004485
0.003531
0.03478
0.001065
0.009011
0.02342
0.003753
9.215e-05
0.0002417
0.02522
0.005929
2.602e-05
0.009117
0.007786
2.875e-05
0.001177
0.001356
0.001155
0.01136
0.001946
0.0004059
0.006147
0.002874
0.003039
3.324e-05
0.06073
0.001159
0.01261
0.001979
0.001622
0.0001654
0.001175
2.019e-05
0.004923
0.001307
0.05136
0.001566
0.002164
0.01504
0.009409
0.000688
0.02533
0.002005
0.0009992
0.009751
0.001617
0.002413
0.001164
0.001618
0.02202
0.002588
0.002462
0.002382
0.009779
0.002026
0.0006943
6.912e-05
0.01539
6.72e-05
0.006558
0.002984
0.0006053
0.0002516
7.076e-06
0.0006389
0.000808
0.02387
0.05336
0.0003908
9.071e-06
0.005499
0.001666
0.00248
0.000352
0.003793
0.01705
0.04757
1.501e-05
0.01913
7.901e-05
0.009933
2.49e-05
0.0008886
0.0003306
0.02221
5.384e-05
0.003798
7.335e-07
0.05971
0.0002
0.01619
0.0002903
0.0005895
0.002379
0.08388
0.02405
0.003185
0.004103
0.0189
0.0001885
0.0116
0.01322
0.0336
1.549e-05
0.0001867
0.0004368
0.003213
0.00489
0.0197
0.008434
0.03279
0.0004229
0.0004426
0.0006655
0.006653
0.007666
0.04447
0.00113
0.000982
0.003886
0.0001924
0.003059
0.01338
1.423e-05
0.005891
0.001365
0.007251
0.03291
0.124
0.006805
0.03541
0.002387
0.003061
0.002161
0.001024
0.01628
0.02634
0.02831
0.003693
0.006117
0.00814
0.06317
0.00551
0.01765
0.02721
0.08147
0.0007594
0.00452
1.156e-05
0.002125
0.001182
0.001014
0.004553
0.002962
9.423e-05
0.00351
0.004615
0.003948
0.04403
0.0006266
0.02439
0.004564
0.002237
0.02058
0.01954
9.652e-05
0.002756
0.01551
0.001213
0.006865
0.002723
1.12e-05
0.004428
0.002757
0.01806
0.008653
0.01355
0.003571
0.01683
0.01448
0.002974
0.003345
0.0009972
0.09086
0.0008174
0.006663
3.574e-06
0.0003228
3.839e-05
0.003207
0.09248
0.000243
0.006624
0.0007037
0.001469
0.007906
0.01001
0.03774
1.074e-05
0.005355
0.002761
0.09969
0.06247
0.02211
0.009311
0.008325
0.0009049
0.000977
0.01205
0.00221
0.002114
0.01513
0.003693
0.0006883
0.08022
0.008293
0.004645
0.0006999
0.1152
0.00153
2.704e-05
0.1362
1.557e-05
0.003405
0.00279
0.0003099
0.02168
0.01356
0.001062
0.005688
0.01424
0.0006742
0.01073
0.0006138
1.048e-05
0.001854
0.01173
0.006952
0.0008707
0.07438
0.01073
8.388e-05
0.003173
0.001103
0.01219
0.0002875
0.0007033
0.008086
0.0001969
0.0002903
0.0003332
0.01016
0.01351
0.015
0.01008
0.001149
0.003082
0.1114
0.009864
4.655e-05
0.002815
0.001007
0.009852
0.003922
0.002612
0.01847
0.001502
0.03505
0.01526
0.000124
0.07382
0.004227
0.007108
0.0005156
0.002776
0.03897
0.0318
0.01354
0.03503
0.01865
0.004042
0.004452
0.004942
0.003422
0.1677
0.06168
0.008925
0.0004451
0.06446
0.01641
0.003405
0.004579
0.01723
0.02213
0.01478
0.0007459
0.003312
0.009617
0.008938
0.04382
0.006408
0.0009979
2.186e-05
0.001782
0.0001328
0.0377
0.001596
0.02163
2.217e-05
0.002775
0.001113
0.008408
0.0002195
0.002657
0.002672
1.079e-05
0.001857
0.002581
0.002563
0.01195
0.007169
0.0006646
0.00155
0.001384
4.565e-05
0.008741
0.006365
0.04088
0.2119
0.001861
0.04559
0.0232
0.002116
0.01267
0.002161
0.0002002
0.008841
0.000304
0.00965
0.01727
0.002217
0.01167
0.01498
0.000539
0.008374
0.02206
0.2627
0.04058
0.01
9.004e-06
0.004332
0.02997
0.005534
0.002172
0.01821
2.086e-05
9.833e-05
1.034e-05
0.02166
0.0003981
0.05482
0.01303
5.515e-06
0.01763
0.2018
0.0005066
0.00362
0.0156
0.0114
7.893e-05
0.02079
0.002995
0.05988
0.01298
0.003886
0.00545
0.0003354
0.02787
0.07773
0.0002311
0.01933
0.00066
0.0004311
0.01818
0.005365
0.008128
0.001106
0.00276
0.001129
0.002345
0.0554
0.02326
0.1018
0.0003254
0.003033
0.005305
0.004006
0.01696
0.01254
0.1061
2.119e-05
0.0007293
0.0106
0.02025
0.002177
0.0005168
0.01872
0.002581
0.01956
0.004507
0.001075
0.06207
0.008148
0.02316
5.562e-05
0.02735
0.001335
0.02414
0.01999
1.016e-05
0.02521
0.0007987
0.001257
0.003648
0.004158
0.0421
0.005251
0.1083
0.004075
0.001023
0.008766
0.003787
0.001659
0.003659
0.006127
0.0001868
0.001495
0.002469
0.0001247
0.004521
0.0079
0.007286
0.003466
0.006129
0.006602
0.005898
0.01766
0.005044
0.002145
0.002871
0.00109
0.0009719
0.003147
0.01246
0.02987
0.002139
0.000422
0.0004861
0.007398
0.0006665
0.000335
0.00695
0.008122
1.497e-05
0.003416
0.005844
0.04153
0.01341
0.0005904
0.01646
0.112
0.0003519
0.01756
0.01095
0.02815
2.081e-05
0.0006665
0.004948
0.005699
0.008243
0.0002796
0.03703
0.006953
0.01613
0.0003608
0.04683
0.0001864
0.05203
0.1288
1.775e-05
0.06013
0.0007884
0.04657
0.0127
0.0003077
0.003317
0.003393
0.01164
8.057e-06
0.007441
0.003951
1.098e-05
0.01837
0.0001475
0.0001603
0.0006826
0.01466
0.0002983
0.0005519
0.009617
0.006889
0.04181
0.01515
0.001145
0.01272
0.01163
7.644e-05
0.01465
0.00181
0.006292
0.04193
0.006127
0.001792
0.0008629
0.004188
0.002003
9.659e-06
0.002653
0.004251
0.001619
0.01189
0.0007497
0.03241
0.005705
0.0002276
0.02576
0.2541
0.002248
0.0149
0.005935
1.263e-05
0.006912
0.02208
0.00137
0.003873
0.0003384
0.01017
0.01134
0.02823
0.002444
2.781e-05
0.001698
0.0005176
0.06563
0.005524
0.005923
0.001849
0.007812
0.0006271
0.003982
0.005562
0.0004298
0.0008386
0.0003643
0.001746
0.009818
0.003308
1.067e-05
0.00421
0.004472
0.001113
0.004976
0.003809
0.01369
0.002879
8.965e-05
0.2151
0.0009551
0.007994
0.001872
0.01294
0.06332
0.0009795
0.0006735
0.01199
0.003504
0.03285
0.02182
0.005796
0.005029
1.169e-05
0.06814
0.01363
0.0005223
0.008461
0.001513
0.01493
0.0002277
0.0001459
0.0002223
1.479e-05
0.03523
0.01969
0.03896
1.077e-05
0.0004647
0.003984
2.221e-05
0.02065
4.829e-05
0.003825
0.01251
0.0008775
0.03911
0.001367
0.08724
0.002132
0.001227
0.000684
0.04916
0.0002575
0.005378
0.01863
0.009826
0.001654
0.005069
0.01193
0.01087
0.001405
0.001271
1.7e-05
1.634e-05
9.262e-06
0.002246
8.114e-05
0.0004066
0.00211
0.001317
0.009443
0.01994
0.002979
1.084e-05
0.01946
0.01292
0.0001365
0.005418
0.002008
0.006648
0.005877
0.02884
0.002092
0.1142
0.001114
0.002623
1.733e-05
0.0003506
0.00757
0.03691
0.001516
0.00288
0.004968
0.0001135
1.632e-05
0.00384
0.004128
0.04151
0.02854
3.828e-05
0.01475
0.0002324
0.002839
0.006471
0.005254
0.008931
0.1214
0.004756
0.00544
1.212e-05
0.02058
1.395e-05
0.06688
0.2004
1.75e-05
0.001374
0.000234
0.04832
0.01673
0.004027
0.01742
0.001333
0.01174
0.0002337
0.002842
0.002893
0.004706
0.002542
0.002365
0.06819
0.0002023
0.03737
0.002617
0.03563
0.002577
0.03472
0.01019
0.001538
0.0007859
0.0004936
0.004525
0.001013
0.004162
0.0001493
0.0025
0.0005241
0.04699
0.002467
0.008753
0.01794
0.004569
0.0005001
0.001209
0.004232
0.1125
0.02097
2.212e-05
0.001918
0.004052
0.002444
0.001369
0.01018
0.004169
0.01057
0.008274
0.01228
0.0002448
0.001742
0.0007025
0.01029
0.01032
0.001299
0.008672
0.001177
0.01896
0.002121
0.02569
0.01429
0.002251
0.0002082
0.003013
9.065e-06
0.009979
0.000249
0.003727
0.005322
4.836e-05
0.0004338
0.005277
0.01714
0.003502
0.03612
0.002542
0.00809
0.001643
4.968e-05
0.0672
0.0009897
2.524e-05
0.03103
0.01048
9.62e-05
0.002109
0.004006
0.0002321
0.01312
0.01549
0.001893
0.06209
0.002223
0.03137
0.02302
0.01314
0.001344
0.05242
0.009536
1.982e-05
0.01151
0.1291
0.001846
0.02286
0.002373
0.03716
2.339e-05
0.007983
0.1579
0.0003797
0.0155
0.006548
0.06583
0.002622
0.006464
0.00553
0.01593
0.02637
0.000904
0.005551
0.0003605
0.0001963
0.005185
0.0009919
0.001692
0.1297
0.003026
2.204e-05
0.0005128
0.01899
0.0003269
0.003308
0.003836
0.0005129
0.009499
0.0008014
0.002683
0.01969
0.0003095
0.0001552
0.0008657
0.00738
0.002246
0.004812
0.02918
0.1326
0.00489
0.0007952
0.0235
0.04527
0.0001163
0.0001112
0.00664
0.0003992
0.02647
0.03136
0.0002859
0.001183
0.001497
0.008176
0.004708
0.01643
0.002105
0.07061
0.006934
0.02497
0.03831
0.001112
1.961e-05
0.0002646
0.006541
0.000571
0.004185
0.001671
0.03914
0.0001516
0.0003658
0.007638
0.04206
1.609e-05
0.005355
0.02377
0.0009541
0.003766
1.315e-05
0.008232
0.002195
0.006891
0.005506
0.001317
0.002656
0.03628
0.02367
0.02889
0.01736
0.0006681
0.006976
0.01898
0.000353
0.004602
3.256e-05
0.02319
0.03776
0.0002953
0.0006637
0.0028
0.01486
0.005852
0.001152
0.0108
0.2412
0.02233
0.006981
0.002211
0.1017
4.366e-06
0.001045
0.01729
0.002496
0.008907
0.009087
0.0005266
0.001709
0.0004578
0.003799
0.0191
0.002014
0.001073
1.024e-05
0.005126
0.02826
0.01444
0.00042
0.09836
0.00878
0.009912
0.003593
0.01477
0.00132
0.004211
0.1062
0.04251
0.004549
0.03405
0.0004003
0.0005036
0.003864
0.0005422
0.0007178
0.0145
0.00026
0.07097
0.03902
1.046e-05
0.01417
0.01436
0.005355
0.01721
0.01836
0.001796
0.008746
2.157e-05
2.037e-05
0.0003738
0.01329
0.04864
0.002118
0.01414
0.01376
0.00373
0.007341
0.004962
0.07088
1.981e-05
0.005718
0.001048
0.004213
0.0002579
0.01729
0.001812
0.001867
0.0003063
0.01062
0.007137
0.009698
0.002862
0.001969
0.01123
0.007207
3.323e-05
0.02674
0.00254
0.02914
0.2151
0.006058
0.001075
0.09422
0.006504
8.612e-06
2.039e-05
0.002411
0.1416
0.0005857
0.01676
0.02998
0.001215
0.04405
0.003258
0.02587
0.0001398
0.001269
0.00289
0.001629
0.007876
0.05762
0.001858
0.003654
9.221e-06
0.0003052
0.007867
0.02193
0.03356
0.0141
0.00186
0.000524
0.0009639
0.005456
0.03891
0.002124
0.008953
2.156e-05
0.007691
0.001218
0.003201
0.03821
0.0246
0.01073
1.054e-05
0.0009135
0.00368
0.007096
0.003923
0.005556
0.01634
0.02613
0.008032
0.005846
0.07017
0.01595
0.03596
1.927e-05
0.001059
0.001094
0.02506
0.0008657
0.007541
0.0009876
0.02711
0.01636
0.01247
0.008492
0.001528
0.0016
0.006481
0.005951
0.001158
0.004821
0.001651
0.01968
1.874e-05
0.006868
0.002812
0.001306
0.004743
0.007335
0.0003397
0.006743
0.1291
0.001885
0.001287
0.004714
0.0007666
0.0005466
0.005356
1.38e-05
0.004457
0.01171
0.0005555
0.0008943
0.01707
0.03314
0.03
0.06884
0.01501
0.07753
0.012
0.0005389
0.06071
0.0005986
0.005493
0.03743
2.093e-05
4.931e-05
0.003284
0.0214
0.001457
0.00498
0.0003572
0.01408
2.013e-05
0.005306
0.1502
0.0001348
0.006528
0.002088
0.008534
0.000384
0.002062
2.573e-05
0.118
0.007791
0.02277
0.0005895
0.005591
0.002241
0.000165
0.002614
0.005344
0.1496
0.008701
0.01531
0.0002242
0.00981
0.07971
0.00285
0.0003123
0.002279
0.007601
0.005177
0.01105
0.01671
0.003555
9.477e-05
0.06421
0.03292
0.006308
7.039e-05
0.001256
0.0383
0.02631
0.01233
0.02092
0.01483
0.0003326
0.1039
0.003695
0.005206
8.305e-06
0.1194
0.0008815
0.02295
0.1276
0.03181
0.008764
0.009088
0.01496
0.01184
0.00786
0.001417
0.001994
0.003473
0.001132
0.001677
0.0004828
0.004883
0.1594
0.0003039
0.01398
0.001555
0.04716
0.0006457
0.03895
0.009332
0.02212
0.002035
0.0009369
0.01965
0.0007689
0.009424
0.01174
0.001078
0.01897
0.007888
0.006254
0.001754
0.03527
0.005901
0.005744
0.002098
0.001571
0.008817
0.00506
0.004392
1.431e-05
0.001678
0.008631
0.02745
0.0005225
0.01869
5.852e-05
0.001251
0.008403
0.005884
0.003328
0.006251
0.0007896
0.001138
0.01015
0.0006177
0.01427
0.001644
0.006223
2.678e-05
0.01932
0.009912
0.01303
0.01856
0.007805
0.04476
0.00176
0.001961
0.003086
0.007775
0.009846
0.0009105
0.001104
0.004239
0.004232
0.001545
0.0009687
0.002277
0.115
1.053e-05
0.003106
0.02369
0.001734
0.001548
0.0001666
0.00519
1.242e-05
0.00335
0.00282
0.006678
0.007351
0.02029
0.004149
0.005501
0.008228
0.001477
0.002333
0.008332
0.0005679
0.003848
0.0003338
0.005318
0.06447
0.0001599
0.0002944
0.0009247
0.007514
0.004324
0.005731
0.02418
0.0003445
2.032e-05
0.02025
0.003013
0.02019
0.006517
0.01694
0.0002191
0.01052
0.001444
0.01776
0.0002898
0.002301
0.004145
0.002465
0.0002854
0.0001297
0.03331
0.01485
0.01378
0.01882
0.01667
0.003857
0.00225
0.1407
0.002872
0.005927
2.59e-05
0.05921
0.001984
0.03677
0.0008701
0.01029
0.01456
0.003163
0.007968
0.008487
0.006048
0.01071
0.00414
0.0004406
0.004054
0.008046
0.01215
0.005216
0.008016
0.007043
0.003822
0.008071
0.003764
0.02393
0.001737
0.01107
0.00868
0.003181
0.01103
0.0007407
0.01571
0.001447
0.001895
0.009498
0.003991
0.05183
0.001641
0.004884
0.001382
0.01735
0.003662
0.008582
0.003501
0.006057
0.002629
0.005322
0.008397
0.006328
0.03374
0.0007988
2.086e-05
0.01953
1.294e-06
0.0003193
0.0003621
0.01118
0.01324
0.01044
1.894e-05
0.01353
0.0006894
5.459e-05
0.0099
0.01433
2.05e-05
0.003051
0.008276
0.000867
0.001567
0.001065
0.003688
0.0004217
0.006865
0.03595
0.006344
0.153
0.002199
0.01003
4.603e-06
0.005971
0.001107
0.0005317
0.0003349
0.06065
0.0211
0.05002
0.001984
0.001533
0.005624
0.002102
0.0003581
0.00347
0.01343
0.0003631
0.001233
0.008783
0.009471
0.0009155
0.001167
0.004251
0.0001591
0.003287
0.000931
0.0937
3.619e-05
0.005338
0.0009901
0.04227
0.008785
0.005766
0.0033
0.006742
0.01233
0.004993
0.003184
0.003958
0.009584
0.003127
0.0007908
0.004575
0.004628
0.003753
0.222
0.0004712
0.02368
0.02061
0.005505
0.003135
0.00238
0.01788
0.0005709
0.02176
0.005738
0.01656
0.000827
0.06034
0.04832
0.03494
0.02278
3.365e-05
0.0009508
0.01434
0.01223
0.006539
0.002173
0.002031
0.001872
9.295e-05
0.02466
0.08299
0.01429
0.09112
0.01061
0.0009511
1.148e-05
0.002398
0.0007855
0.0002465
0.04637
1.056e-05
0.002739
0.0192
0.2457
0.0134
0.1425
0.0009646
0.009984
0.01596
0.002482
0.01885
0.001799
0.002446
0.0005852
0.00278
0.1184
0.006502
0.01039
0.005733
0.001769
0.01142
0.1298
0.005401
0.002326
0.001408
0.01773
0.0005491
0.01698
0.008385
0.02753
0.001025
0.0005203
0.00741
0.008786
0.04231
0.05293
0.00226
0.01552
0.005569
1.413e-05
0.00564
0.0001453
7.184e-05
0.003637
0.002815
0.00299
0.01064
0.00301
0.002877
0.001492
1.688e-05
0.001885
8.784e-05
0.0003689
0.0002631
1.973e-05
0.01698
0.01751
0.005745
0.1017
0.0006204
0.00165
0.05247
0.03696
0.01981
0.01815
0.01517
0.001519
0.001979
0.01228
9.797e-06
0.0004472
0.004147
0.0009454
0.01368
0.004572
0.01523
0.031
0.06712
0.009516
0.01477
0.03482
2.861e-05
0.002702
0.003141
0.02725
0.004438
0.00111
0.00814
0.006081
0.001868
0.000851
0.0009778
0.0006317
0.001081
0.01196
0.001202
1.071e-05
0.001193
0.01027
0.04044
0.0009635
0.0007091
0.006008
0.01076
0.02102
0.01322
0.002132
1e-05
0.0004775
0.002062
0.0007678
0.001305
0.002565
1.136e-05
0.009662
0.009945
0.007392
0.003458
3.144e-05
0.001192
0.000342
0.0008929
0.000281
0.001163
0.01222
0.006191
0.01618
0.000613
4.554e-05
0.001025
0.0005477
2.143e-05
0.02038
0.0008422
0.001342
0.02923
0.007328
0.0146
2.1e-05
0.01411
0.01746
0.005096
2.368e-05
0.01155
0.00224
0.006977
0.007634
0.001062
0.06134
0.002529
0.1154
0.01042
0.0004121
0.008403
0.005248
0.002906
0.00448
0.01133
0.002672
0.003106
0.007334
0.07036
0.0002842
0.000171
1.965e-05
0.2068
0.00397
0.0003997
0.02998
0.009461
0.006373
0.002752
0.01168
0.002085
0.002513
0.0005659
0.005186
0.06757
0.0001547
0.0067
0.002692
0.0006797
0.00222
0.001924
0.01256
0.0002472
0.0004732
0.001523
0.0002384
0.04102
0.02142
0.001037
0.01225
0.00765
0.009977
0.01927
0.01277
0.00576
3.76e-05
0.02434
0.04362
1.16e-05
0.0004006
0.001444
0.04041
0.001205
0.009184
0.01074
0.0006166
0.01258
2.935e-05
0.0227
0.000569
0.02618
1.732e-05
0.0009395
0.001691
0.0003808
4.504e-05
0.001672
0.001738
0.004927
0.0004491
4.198e-05
0.0002712
0.001026
0.007888
0.01738
0.003371
8.222e-05
0.0001772
0.001214
0.01186
0.01466
0.0007991
0.02827
0.0004823
0.005052
0.005432
0.02404
0.02736
0.002797
0.0005448
0.01982
0.00227
0.002924
0.001026
0.006763
0.004369
1.637e-05
0.01088
0.01829
0.002344
0.005061
0.004481
1.111e-05
0.0009371
0.007205
0.008721
0.007301
0.01298
0.003665
0.02192
0.005814
0.0005101
0.0004989
4.353e-05
0.04556
0.009281
0.003082
0.002086
9.932e-06
0.02577
0.001364
6.776e-05
0.04063
0.01305
0.02127
0.005536
0.001926
2.114e-05
0.006491
0.02377
0.0005031
0.001856
0.005228
0.1503
0.009988
0.01074
0.02846
0.007202
0.003342
4.717e-05
0.001197
0.01365
0.00723
0.007162
1.076e-05
0.001341
0.008528
0.003054
2.033e-05
1.797e-05
0.0009366
0.009769
0.006563
2.37e-05
0.01354
0.007229
1.769e-05
0.007528
0.0009057
0.002253
0.06609
0.001989
0.0132
0.007186
0.005377
0.02019
0.001459
0.0001038
0.002828
0.02464
0.007024
0.01507
0.01128
0.003214
0.008457
0.002476
0.009051
0.004381
4.476e-05
0.0002055
0.0006562
0.003175
0.003307
0.002065
0.00433
0.001533
0.0002299
0.001728
0.003885
0.003258
0.000628
0.1505
1.604e-05
0.001605
0.002051
0.003872
0.0004063
4.214e-05
0.006892
1.665e-05
0.04775
0.008935
0.02839
4.144e-05
1.868e-05
0.0007522
0.002912
3.293e-05
0.0008473
0.0005147
0.01279
0.0165
0.0003854
0.0002363
1.521e-05
0.02102
0.026
0.02551
0.01344
0.07362
0.02095
0.001297
0.02087
0.03809
0.001225
0.003265
3.376e-05
0.0007986
0.0002268
0.003688
1.883e-05
0.002694
0.00445
0.1126
0.009764
0.02244
0.0107
0.00076
0.00366
0.001759
0.005808
0.003341
0.1169
0.0427
5.168e-05
0.0003434
1.981e-05
0.0001349
0.008385
0.002985
0.02033
2.056e-05
0.05646
0.009765
0.003754
0.003311
0.001477
0.0007383
0.00241
0.01851
0.001772
0.0004136
0.005371
0.001062
0.0008666
0.009296
0.003806
0.002171
0.0005545
1.048e-05
0.0009621
0.001187
0.006895
0.01057
0.01258
0.0005544
0.002996
0.01037
0.01136
0.02951
0.000552
0.0001833
0.0001311
0.001384
0.0009492
0.0001407
0.0006446
0.0008137
0.03483
0.00428
0.005538
0.002987
0.0001582
3.921e-05
0.008429
0.005351
0.001296
0.006817
1.472e-05
0.007359
0.01808
2.106e-05
1.436e-05
2.182e-06
0.1436
0.01106
0.000118
0.004904
4.735e-06
0.0005525
0.1206
0.009842
0.002301
0.004662
0.03728
0.002249
0.002672
0.0169
0.001879
1.937e-05
7.651e-06
0.002366
0.00257
0.0002872
0.01161
0.03951
0.01057
0.01057
0.003281
0.006247
0.01114
0.0005839
0.003848
0.005575
0.004509
0.1338
0.003623
0.01083
0.0007229
0.0202
0.0005544
0.0003387
0.0005166
0.00215
0.004318
3.327e-05
9.476e-06
0.01319
0.001097
0.0008656
0.001719
0.01286
0.001031
9.634e-06
0.001588
0.01434
0.002848
0.006552
0.005575
0.0008162
0.02047
0.0007906
0.003673
0.01676
0.01087
0.01446
0.006167
0.001004
0.008434
0.01844
0.0004978
0.01531
0.006684
0.004036
1.114e-06
0.01008
1.301e-05
0.004878
0.01426
0.01007
0.005716
0.002631
0.001905
0.001118
0.0011
0.008609
3.951e-05
0.000249
0.01904
0.01424
0.004303
0.00112
0.0009489
0.003135
0.002495
0.009041
0.01296
0.005777
0.02832
0.0004139
0.0001448
0.0004931
0.000532
0.06911
0.04734
0.08652
0.0001499
0.07079
0.004518
0.03974
0.005984
0.0002576
0.001871
0.01457
0.001788
0.01989
0.001681
0.00732
0.004091
0.002943
0.003999
0.03126
5.937e-05
0.001337
0.001824
0.04358
0.005715
0.003451
0.02146
4.29e-05
0.1298
9.225e-06
0.0002353
0.004959
0.0009889
0.05184
0.003484
0.009901
0.005453
0.002237
0.01933
0.007528
0.0008399
0.003927
0.0001245
0.002614
0.0002093
0.005085
0.0003066
0.004416
0.0002267
0.06185
0.01019
0.0007854
0.01182
0.003884
0.001384
0.00674
0.004045
0.00173
0.04252
0.001378
0.04028
0.005697
5.419e-08
0.008594
0.0004182
0.002638
0.0007859
0.01591
0.0005801
0.02595
0.003375
0.02067
0.02108
0.001317
0.02108
0.006476
0.0005763
0.06828
0.01043
0.02169
0.004515
1.123e-05
0.0001608
0.04251
0.0002454
1.622e-05
0.001104
0.006856
0.0003352
0.001808
0.0007428
0.005822
0.002283
1.563e-05
0.0008415
0.002565
7.4e-06
0.001202
0.003135
0.001094
8.231e-06
0.001906
0.001352
0.0002552
0.001257
0.003219
0.0001643
0.03176
5.766e-05
0.000868
7.025e-05
0.005086
0.002844
0.0004669
0.03829
0.0009597
0.003477
0.02224
0.03394
0.00427
0.0006301
0.004191
0.05768
0.03718
0.0006813
0.001835
5.406e-05
0.0009666
0.002297
0.003181
2.222e-05
0.001435
0.0005338
0.001034
0.006406
5.138e-05
0.0002612
0.04195
0.152
0.01151
0.0008895
8.684e-05
3.986e-05
0.0007901
0.0006381
0.000707
0.01056
0.0004356
0.0009828
0.001119
0.002904
0.01812
0.2236
0.0005781
0.00115
0.01003
1.681e-05
0.1019
0.01289
0.002044
0.01709
0.0241
0.02908
0.003059
0.01497
0.01333
0.0583
5.971e-05
5.292e-05
0.006619
0.011
0.001849
0.001074
0.002083
0.1106
0.0002132
0.0003372
0.0004509
0.2059
0.00412
0.00484
0.0009802
0.1515
1.473e-05
0.0006133
0.00361
0.002739
0.006564
1.329e-05
2.074e-05
0.01245
0.0008121
0.006204
1.61e-05
3.836e-05
0.00555
0.022
0.001218
0.04165
4.36e-05
0.002007
0.0005689
0.005174
0.03059
0.01295
0.002831
0.009253
0.01005
0.009433
0.001363
0.01234
0.01177
7.241e-05
0.0001607
5.114e-05
0.002149
0.003032
0.0004728
0.0007632
0.019
0.02826
0.004614
0.0001147
0.007561
0.04586
0.002538
0.02363
0.005343
0.00231
0.02017
0.04335
0.001291
0.006841
1.406e-05
0.0001106
0.00624
0.04232
4.444e-05
2.537e-05
0.0002502
0.001561
0.01316
0.2047
0.0195
1.152e-05
0.004943
0.002151
0.002247
0.0003177
0.002968
0.01145
0.01285
0.09491
0.001867
0.00547
0.01703
0.0002
0.001242
0.123
0.0002263
0.05646
0.001416
0.00327
0.0007977
0.01322
0.00179
0.03305
0.01777
0.002637
0.01177
0.0006245
0.0214
0.0003799
0.01007
0.001418
0.0003101
0.005748
0.001016
0.0002683
6.089e-06
0.001273
0.001098
0.002982
0.003386
0.08673
0.005911
0.004005
0.03792
0.002238
0.00127
0.008604
0.01119
0.01162
0.003182
0.06127
0.0001271
0.004417
0.0007943
5.292e-05
0.03165
0.004898
0.002687
0.0005691
0.007323
0.0005595
0.02043
0.007293
0.008653
0.0212
0.00533
0.02091
0.006303
0.008696
6.12e-05
4.994e-05
2.773e-05
0.002725
0.001003
0.00376
0.03187
0.008567
0.15
0.0367
0.2018
0.0002148
0.0005251
0.0002581
0.0002429
0.002282
0.005573
0.007261
3.826e-05
0.02145
0.006374
0.0192
0.002849
2.056e-05
0.0012
0.02015
0.006142
0.004857
0.001948
0.0009241
0.01552
1.49e-05
0.02766
2.951e-05
0.002054
0.09648
0.0006816
0.01372
0.0008279
0.0004088
0.004189
3.049e-05
0.002152
0.02671
0.00361
0.00219
0.002407
0.000291
0.001679
0.004828
0.000612
0.01122
0.0001874
0.004414
0.003484
0.01192
0.0004987
0.002138
0.004737
0.004899
0.0002721
0.001613
2.463e-05
0.002592
0.001803
0.0008627
0.0003485
0.02066
0.01128
0.003823
0.01203
0.01667
0.01305
0.02536
0.005621
1.003e-05
0.09604
0.01169
0.033
0.0001261
0.04577
0.002453
0.000528
0.03072
0.001048
0.01439
0.01198
0.001781
0.005597
0.05162
0.0003103
0.004762
2.389e-05
0.0099
0.0008427
0.003183
4.628e-05
0.01203
0.002273
0.01417
0.0002816
0.007995
0.0009017
0.001686
1.069e-05
0.00472
0.008603
2.87e-05
0.01614
0.01429
0.0006892
0.008845
0.03284
0.03575
0.0007985
0.03093
0.001535
0.0008772
1.592e-05
0.00769
0.01492
0.01322
0.001532
0.003919
0.001971
0.0181
0.005207
0.01425
0.0009422
0.0005806
0.001615
0.0002417
0.008203
0.001493
0.001179
3.75e-05
0.0009195
0.005202
0.009659
0.0003492
0.004009
0.0009009
0.006921
0.01659
0.006205
0.00416
0.000202
0.003763
0.01125
0.002341
0.001032
0.04199
0.000685
0.04444
0.0076
0.004701
0.001299
0.0005793
0.01738
0.0003116
0.06906
0.01107
4e-05
0.01306
0.007993
0.03225
1.932e-05
0.001045
0.03
0.0004261
0.03222
0.001522
0.000172
0.01606
1.269e-05
0.009624
0.00244
0.001864
0.0005236
0.01844
0.0159
0.04291
0.0004157
0.00464
0.0076
0.003278
2.452e-05
0.002438
0.1177
0.002371
0.002561
0.004101
0.005738
0.004194
0.003663
0.008792
0.001509
0.001908
0.002986
0.01585
0.0003636
0.0001262
0.008877
0.002966
0.0004282
0.05619
0.01935
5.396e-05
0.002036
0.005862
0.0003522
0.0004023
1.252e-05
0.03533
0.001342
0.001884
0.009195
0.0005519
0.03019
0.002177
0.005542
0.0113
0.0008359
3.264e-05
0.0369
0.003097
1.312e-05
2.073e-05
0.05054
0.0003505
0.03068
6.395e-06
0.002046
0.003422
0.005456
0.006389
0.0004386
0.001278
0.02206
0.003862
0.004993
0.001052
0.007595
0.0001037
0.01012
0.0003736
0.1236
0.02826
0.0008847
0.001978
0.01032
0.02138
0.00443
0.000296
0.0006588
0.0004966
0.01323
0.001685
0.06345
0.01483
0.0214
0.0008465
0.0009365
0.004673
0.002246
0.0002729
0.1264
0.0003988
0.01286
0.006243
0.0501
0.002221
0.004391
0.02247
0.006624
0.002362
0.04183
0.006259
0.0131
0.001008
0.009745
0.1225
0.007021
0.001487
0.002894
0.004765
0.0004274
0.008867
0.01117
7.969e-06
0.001147
0.01701
0.004045
1.445e-05
0.02254
0.0008309
0.0009913
0.009323
0.0006515
0.02382
0.002551
8.645e-05
3.922e-05
0.0007327
0.001532
0.009904
0.009256
0.0002037
0.002662
0.01658
0.001049
0.001442
0.01953
0.02211
0.01556
0.02934
0.002607
0.001104
0.00609
0.01753
0.000178
0.05131
0.001472
0.0005216
0.02105
0.02259
0.004746
0.02234
0.002229
0.02467
0.004686
0.0002326
0.01329
0.01373
0.01902
0.0007837
0.00431
0.08158
0.006616
0.0001362
0.001352
0.005356
0.003056
0.0008399
0.01502
0.009897
0.001744
9.924e-05
0.00548
0.1224
2.218e-05
2.008e-05
0.00364
0.006484
1.945e-05
0.001244
0.01332
0.01775
0.007548
0.01365
0.001692
0.002474
0.001839
0.001616
0.01493
0.07826
0.02227
0.0003394
0.0007727
0.006409
0.0001134
0.001213
0.008816
0.002382
0.0004198
0.01051
0.06285
0.0007862
0.08517
0.0009195
0.0003469
0.0002631
0.001605
0.05395
0.002321
0.001712
0.01171
0.04331
0.01283
0.002073
0.002798
0.0181
5.204e-05
0.0005118
5.582e-05
0.01504
0.0004174
0.009839
0.02268
2.1e-05
0.004525
0.0009415
5.378e-05
0.02127
0.0008718
0.002782
0.0002103
0.000338
0.009711
0.01389
0.000922
0.009139
0.002039
0.0002451
0.004755
0.01397
0.0001745
0.000882
0.0003919
8.564e-05
0.0009277
0.01427
0.002262
0.001088
0.001711
0.008025
0.01152
9.718e-05
1.001e-05
0.0008759
0.003633
1.716e-05
0.01025
0.01625
0.0005977
0.0001632
0.02204
0.005269
8.833e-05
0.0001136
0.0008472
0.08615
7.516e-06
0.000983
0.001504
0.0008707
0.007694
0.003943
0.0002654
0.00265
0.0002629
0.02524
0.005388
0.000271
0.05455
0.001646
0.04211
0.0169
0.0003177
0.002008
0.004872
0.09609
0.0006644
0.002693
0.01659
0.0006708
3.006e-05
0.005733
0.1422
0.008129
0.001376
5.023e-05
7.729e-06
0.006331
0.01745
0.02832
0.0003736
0.02556
0.01227
0.005836
6.662e-06
0.02534
0.005444
0.002871
0.00649
0.002382
0.002437
9.623e-06
0.005966
0.000712
0.002017
0.01366
0.001465
0.001222
0.002971
0.0003948
0.005863
0.001904
0.005307
5.421e-05
0.0008533
0.001175
0.02384
0.01907
0.0003741
4.044e-05
0.004392
1.286e-05
0.06399
0.0006543
1.88e-05
0.002929
0.01232
0.001043
0.01055
0.009383
0.004394
0.0008146
0.01923
0.01283
0.01586
0.007098
0.01695
0.001429
0.002442
0.001293
0.01201