/*--------------------------------*- C++ -*----------------------------------*\
  =========                 |
  \\      /  F ield         | OpenFOAM: The Open Source CFD Toolbox
   \\    /   O peration     | Website:  https://openfoam.org
    \\  /    A nd           | Version:  8
     \\/     M anipulation  |
\*---------------------------------------------------------------------------*/
FoamFile
{
    version     2.0;
    format      ascii;
    class       volScalarField;
    location    "5";
    object      p;
}
// * * * * * * * * * * * * * * * * * * * * * * * * * * * * * * * * * * * * * //

dimensions      [0 2 -2 0 0 0 0];

internalField   nonuniform List<scalar> 
63564
(
-0.2137
-0.5554
-0.4353
-0.4396
-0.4417
-0.2814
-0.311
-0.4438
-0.1188
-0.4836
-0.1356
-0.258
-0.4
-0.3517
-0.3038
-0.3055
-0.2999
-0.3137
-0.07696
-0.3804
-0.2928
-0.3394
-0.1839
-0.2616
-0.3054
-0.1331
-0.379
-0.2979
-0.02872
-0.1249
-0.3159
-0.1907
-0.1938
-0.2974
-0.0404
-0.3143
-0.06596
-0.03738
-0.03612
-0.02807
-0.305
-0.2158
-0.3162
-0.3048
-0.3971
-0.3788
-0.1014
-0.2694
-0.3024
-0.2775
-0.2586
-0.3499
-0.397
-0.04027
-0.3119
-0.06339
-0.3028
-0.3134
-0.2849
-0.3745
-0.4354
-0.3691
-0.306
-0.2832
-0.3235
-0.378
-0.3068
-0.4817
-0.3241
-0.1429
-0.3563
-0.125
-0.4133
-0.36
-0.3119
-0.3762
-0.3548
-0.2711
-0.2966
-0.02546
-0.06243
-0.3235
-0.3141
-0.2989
-0.2973
-0.3566
-0.2909
-0.284
-0.2812
-0.2939
-0.2923
-0.3779
-0.3469
-0.131
-0.4813
-0.319
-0.5247
-0.2926
-0.4492
-0.05955
-0.2196
-0.2843
-0.33
-0.3895
-0.2937
-0.3602
-0.2785
-0.03343
-0.2952
-0.3467
-0.2888
-0.3071
-0.3581
-0.2136
-0.4395
-0.3573
-0.3229
-0.1129
-0.3978
-0.3423
-0.3135
-0.2844
-0.2921
-0.4352
-0.3086
-0.2897
-0.08314
-0.3583
-0.3194
-0.2431
-0.2583
-0.311
-0.3146
-0.2288
-0.2857
-0.3999
-0.04991
-0.376
-0.3779
-0.4962
-0.3415
-0.3702
-0.02556
-0.275
-0.2843
-0.2417
-0.03901
-0.2874
-0.3279
-0.3725
-0.2118
-0.05142
-0.3883
-0.1533
-0.1353
-0.2879
-0.2954
-0.3461
-0.1251
-0.3054
-0.3779
-0.3762
-0.3931
-0.2969
-0.2509
-0.2904
-0.3733
-0.37
-0.3585
-0.1339
-0.2794
-0.03811
-0.2032
-0.04905
-0.02259
-0.4158
-0.04254
-0.1733
-0.367
-0.3113
-0.2697
-0.09861
-0.1805
-0.326
-0.3143
-0.2912
-0.04611
-0.07481
-0.05105
-0.3685
-0.2849
-0.3024
-0.2951
-0.3969
-0.3326
-0.3619
-0.2972
-0.2973
-0.335
-0.3094
-0.3134
-0.3302
-0.2938
-0.247
-0.2463
-0.3866
-0.02932
-0.1227
-0.04058
-0.2792
-0.341
-0.4289
-0.2893
-0.3083
-0.2907
-0.3285
-0.2804
-0.334
-0.286
-0.3816
-0.3582
-0.3124
-0.2604
-0.3747
-0.2844
-0.2893
-0.2929
-0.4131
-0.2453
-0.3409
-0.0261
-0.2938
-0.4503
-0.3228
-0.2841
-0.3188
-0.4966
-0.5672
-0.3087
-0.3704
-0.2781
-0.2953
-0.3103
-0.3424
-0.3159
-0.4086
-0.2831
-0.3033
-0.2967
-0.3239
-0.02935
-0.2883
-0.3837
-0.3006
-0.2915
-0.2923
-0.342
-0.02292
-0.05019
-0.3585
-0.3055
-0.3241
-0.2254
-0.3007
-0.3303
-0.1697
-0.3375
-0.2825
-0.3763
-0.3025
-0.2969
-0.3174
-0.2889
-0.3196
-0.3087
-0.3516
-0.3002
-0.273
-0.3161
-0.3044
-0.3226
-0.2956
-0.04292
-0.4219
-0.3737
-0.3109
-0.4254
-0.4047
-0.1033
-0.2882
-0.255
-0.4067
-0.3655
-0.2884
-0.2482
-0.3782
-0.2794
-0.3415
-0.3669
-0.3314
-0.3187
-0.3082
-0.397
-0.3149
-0.3965
-0.3658
-0.2986
-0.3165
-0.3053
-0.3232
-0.3263
-0.3958
-0.3076
-0.2944
-0.2905
-0.2889
-0.3429
-0.4214
-0.4284
-0.2866
-0.2965
-0.3738
-0.4678
-0.3774
-0.2804
-0.1863
-0.03483
-0.08015
-0.416
-0.2717
-0.2045
-0.2279
-0.06904
-0.4934
-0.2436
-0.3103
-0.2895
-0.2281
-0.3445
-0.3717
-0.3339
-0.2787
-0.3053
-0.1312
-0.2913
-0.2646
-0.2997
-0.2964
-0.3355
-0.4318
-0.2868
-0.411
-0.3039
-0.2997
-0.3012
-0.3531
-0.3746
-0.3006
-0.4209
-0.3215
-0.3141
-0.2978
-0.2953
-0.05315
-0.2013
-0.2922
-0.3054
-0.3088
-0.3264
-0.3453
-0.4276
-0.3301
-0.2878
-0.3862
-0.2864
-0.3074
-0.334
-0.4256
-0.2896
-0.2983
-0.2958
-0.3112
-0.02726
-0.2684
-0.3174
-0.3422
-0.2901
-0.3106
-0.2901
-0.2811
-0.2936
-0.302
-0.3009
-0.3174
-0.2927
-0.06044
-0.03882
-0.2997
-0.1921
-0.2859
-0.3822
-0.2391
-0.197
-0.3575
-0.03039
-0.2924
-0.2021
-0.3216
-0.2955
-0.16
-0.2888
-0.3392
-0.2553
-0.2489
-0.3095
-0.3678
-0.2896
-0.2354
-0.05419
-0.416
-0.347
-0.176
-0.2573
-0.2998
-0.3781
-0.2965
-0.2373
-0.3702
-0.2943
-0.2872
-0.3666
-0.3318
-0.2788
-0.2492
-0.3373
-0.2957
-0.3154
-0.2961
-0.3081
-0.04755
-0.3078
-0.2813
-0.2897
-0.0625
-0.2995
-0.04352
-0.3041
-0.3775
-0.119
-0.1489
-0.141
-0.3299
-0.2926
-0.3191
-0.3816
-0.3422
-0.3231
-0.2889
-0.2888
-0.2921
-0.289
-0.3563
-0.2887
-0.3031
-0.3782
-0.05142
-0.3335
-0.2945
-0.2959
-0.3422
-0.3051
-0.3179
-0.2943
-0.2892
-0.3324
-0.2954
-0.4015
-0.3217
-0.04244
-0.04554
-0.2887
-0.3123
-0.4241
-0.02684
-0.282
-0.295
-0.2942
-0.3012
-0.2912
-0.4221
-0.3692
-0.2841
-0.3593
-0.31
-0.2897
-0.3062
-0.309
-0.2314
-0.3067
-0.3012
-0.3018
-0.2883
-0.4122
-0.3068
-0.2536
-0.3243
-0.3767
-0.2944
-0.3103
-0.06822
-0.3095
-0.3261
-0.4208
-0.3058
-0.2801
-0.4054
-0.2929
-0.3276
-0.3557
-0.3924
-0.3165
-0.2894
-0.2927
-0.04017
-0.4119
-0.394
-0.3134
-0.2954
-0.3536
-0.1854
-0.375
-0.3338
-0.3351
-0.356
-0.3011
-0.3019
-0.2991
-0.06166
-0.3238
-0.4156
-0.3008
-0.441
-0.2958
-0.3203
-0.3372
-0.3151
-0.2423
-0.03809
-0.08232
-0.2859
-0.05668
-0.1877
-0.2917
-0.3066
-0.2336
-0.2684
-0.3022
-0.3753
-0.08502
-0.2929
-0.4019
-0.2922
-0.2572
-0.3155
-0.4389
-0.2909
-0.3094
-0.2484
-0.296
-0.2927
-0.3185
-0.02015
-0.4304
-0.2075
-0.2141
-0.3268
-0.04368
-0.2899
-0.3041
-0.2838
-0.2872
-0.1798
-0.3013
-0.3132
-0.3351
-0.295
-0.305
-0.293
-0.3505
-0.198
-0.295
-0.02533
-0.2977
-0.3683
-0.268
-0.2839
-0.2921
-0.2896
-0.2994
-0.2555
-0.3997
-0.3372
-0.3332
-0.2931
-0.2908
-0.2601
-0.2845
-0.1793
-0.3344
-0.2946
-0.306
-0.2882
-0.3128
-0.07094
-0.3175
-0.348
-0.2931
-0.3125
-0.03923
-0.3817
-0.2696
-0.3552
-0.2835
-0.3096
-0.2211
-0.2999
-0.3001
-0.07124
-0.04673
-0.3223
-0.2951
-0.3086
-0.427
-0.3998
-0.2621
-0.3235
-0.2935
-0.2689
-0.0397
-0.2765
-0.3167
-0.3058
-0.2791
-0.2829
-0.1173
-0.2978
-0.2877
-0.2437
-0.3699
-0.02495
-0.268
-0.3412
-0.3203
-0.3902
-0.3686
-0.2879
-0.2876
-0.3071
-0.282
-0.2882
-0.2911
-0.2941
-0.2055
-0.3345
-0.3514
-0.3102
-0.3211
-0.435
-0.2369
-0.2239
-0.07069
-0.2879
-0.3004
-0.319
-0.3964
-0.2638
-0.278
-0.2706
-0.3458
-0.2903
-0.1822
-0.2633
-0.2994
-0.2232
-0.3388
-0.3171
-0.3464
-0.3036
-0.2931
-0.2944
-0.3238
-0.2952
-0.3174
-0.1812
-0.284
-0.3325
-0.3213
-0.2046
-0.3618
-0.2556
-0.08765
-0.2949
-0.2887
-0.3003
-0.2921
-0.3152
-0.3571
-0.2921
-0.2821
-0.155
-0.3477
-0.1555
-0.05033
-0.2753
-0.296
-0.2848
-0.2434
-0.04541
-0.2254
-0.3291
-0.3447
-0.4025
-0.3085
-0.32
-0.3157
-0.2996
-0.3048
-0.2928
-0.2983
-0.06459
-0.4109
-0.2331
-0.3329
-0.2914
-0.372
-0.1748
-0.05865
-0.3118
-0.2988
-0.3138
-0.02797
-0.358
-0.2587
-0.3519
-0.2947
-0.3035
-0.298
-0.2907
-0.4083
-0.2225
-0.2984
-0.2743
-0.2355
-0.3088
-0.2769
-0.0344
-0.344
-0.2725
-0.2477
-0.2887
-0.2887
-0.4082
-0.2953
-0.138
-0.1893
-0.3377
-0.2984
-0.2596
-0.213
-0.2997
-0.298
-0.4183
-0.3087
-0.3293
-0.295
-0.2935
-0.257
-0.2849
-0.263
-0.4104
-0.2305
-0.352
-0.299
-0.05255
-0.2809
-0.3028
-0.2913
-0.3519
-0.2925
-0.4229
-0.2837
-0.05348
-0.4164
-0.3028
-0.2314
-0.2676
-0.2937
-0.3931
-0.2835
-0.2869
-0.3463
-0.2904
-0.2965
-0.3096
-0.3188
-0.3268
-0.02953
-0.06802
-0.2676
-0.2747
-0.3719
-0.3272
-0.32
-0.3791
-0.2988
-0.3647
-0.2629
-0.2925
-0.2915
-0.4305
-0.2694
-0.2845
-0.1181
-0.2941
-0.281
-0.07478
-0.231
-0.2853
-0.0379
-0.2924
-0.3296
-0.2813
-0.2892
-0.3779
-0.3256
-0.3005
-0.04965
-0.2939
-0.2933
-0.2632
-0.08107
-0.2493
-0.07068
-0.1142
-0.1878
-0.2935
-0.3119
-0.2811
-0.05142
-0.2789
-0.2898
-0.256
-0.292
-0.3488
-0.4043
-0.2811
-0.2815
-0.2074
-0.3825
-0.3696
-0.3457
-0.3003
-0.2834
-0.3045
-0.3084
-0.4047
-0.2892
-0.3045
-0.2895
-0.2397
-0.3358
-0.1887
-0.3514
-0.2917
-0.2703
-0.2872
-0.2764
-0.3764
-0.2062
-0.3369
-0.296
-0.2884
-0.3002
-0.04298
-0.2947
-0.2832
-0.2932
-0.3661
-0.2875
-0.02114
-0.2755
-0.2293
-0.3695
-0.07951
-0.2917
-0.03175
-0.2977
-0.05361
-0.232
-0.328
-0.3031
-0.3222
-0.4104
-0.2891
-0.302
-0.2889
-0.1626
-0.362
-0.2915
-0.3538
-0.03092
-0.4123
-0.3693
-0.2023
-0.2919
-0.3082
-0.2907
-0.04821
-0.3867
-0.347
-0.2846
-0.356
-0.42
-0.3941
-0.3007
-0.2926
-0.3583
-0.2944
-0.2882
-0.2893
-0.3007
-0.3045
-0.2896
-0.2812
-0.329
-0.3317
-0.04068
-0.384
-0.03686
-0.3069
-0.2841
-0.05825
-0.3281
-0.3274
-0.3092
-0.03432
-0.3841
-0.2985
-0.2771
-0.1935
-0.3182
-0.3938
-0.2432
-0.2783
-0.3993
-0.2897
-0.1056
-0.2935
-0.1017
-0.2911
-0.2735
-0.3419
-0.3777
-0.3533
-0.2643
-0.3015
-0.2638
-0.1528
-0.3053
-0.2728
-0.2916
-0.2739
-0.374
-0.3221
-0.3131
-0.3287
-0.2791
-0.2839
-0.3515
-0.3227
-0.2923
-0.3169
-0.2921
-0.2223
-0.3326
-0.3269
-0.2964
-0.311
-0.3231
-0.354
-0.2654
-0.3262
-0.297
-0.2325
-0.2714
-0.06105
-0.3047
-0.4213
-0.3314
-0.2872
-0.3586
-0.3004
-0.2943
-0.3237
-0.297
-0.291
-0.3685
-0.2808
-0.4099
-0.2891
-0.3933
-0.3182
-0.4131
-0.3458
-0.3019
-0.08291
-0.3855
-0.3242
-0.4121
-0.3192
-0.3089
-0.3936
-0.3041
-0.02334
-0.3559
-0.4185
-0.3199
-0.3469
-0.02403
-0.2937
-0.04438
-0.3146
-0.2538
-0.2851
-0.2843
-0.2882
-0.3639
-0.3168
-0.3708
-0.2902
-0.3016
-0.3244
-0.3003
-0.2922
-0.4054
-0.02997
-0.2922
-0.3315
-0.2918
-0.3388
-0.3836
-0.3025
-0.3387
-0.2883
-0.4027
-0.05618
-0.3163
-0.1094
-0.3001
-0.2947
-0.2359
-0.2954
-0.3309
-0.3407
-0.2971
-0.3076
-0.276
-0.2791
-0.3077
-0.0689
-0.2427
-0.3132
-0.03311
-0.3017
-0.2888
-0.2923
-0.3155
-0.323
-0.3289
-0.08005
-0.2911
-0.3446
-0.2754
-0.3064
-0.3188
-0.03372
-0.04788
-0.2688
-0.05345
-0.3093
-0.338
-0.3095
-0.2839
-0.3627
-0.2175
-0.2846
-0.04311
-0.3852
-0.2761
-0.2987
-0.3691
-0.2959
-0.4076
-0.2888
-0.3019
-0.2875
-0.3122
-0.3099
-0.0263
-0.3024
-0.3298
-0.07931
-0.3075
-0.3832
-0.1283
-0.1756
-0.2926
-0.2563
-0.2933
-0.2885
-0.2916
-0.3096
-0.3529
-0.3241
-0.3047
-0.2939
-0.02194
-0.2884
-0.2225
-0.299
-0.187
-0.43
-0.3851
-0.3039
-0.302
-0.2894
-0.2755
-0.3227
-0.3614
-0.2883
-0.3398
-0.3071
-0.2963
-0.3653
-0.2789
-0.3004
-0.3852
-0.2895
-0.2926
-0.0955
-0.2819
-0.03115
-0.4003
-0.2021
-0.3281
-0.1961
-0.2941
-0.2732
-0.3152
-0.2368
-0.1325
-0.3342
-0.3042
-0.3158
-0.2734
-0.4003
-0.3484
-0.2923
-0.319
-0.2789
-0.271
-0.4222
-0.2892
-0.08013
-0.3044
-0.3596
-0.265
-0.3541
-0.03141
-0.32
-0.3036
-0.3522
-0.2867
-0.3154
-0.3107
-0.07383
-0.353
-0.2996
-0.3536
-0.2961
-0.323
-0.3034
-0.2892
-0.2662
-0.4241
-0.07001
-0.1919
-0.296
-0.3012
-0.3332
-0.1034
-0.1054
-0.2471
-0.3275
-0.3195
-0.4119
-0.1114
-0.2902
-0.2619
-0.2929
-0.3375
-0.3037
-0.3439
-0.29
-0.3082
-0.4449
-0.3241
-0.3566
-0.2372
-0.05446
-0.2972
-0.28
-0.2953
-0.3602
-0.1367
-0.2932
-0.3388
-0.3454
-0.05374
-0.29
-0.293
-0.3616
-0.4173
-0.2773
-0.4093
-0.3323
-0.393
-0.3407
-0.04024
-0.3085
-0.2858
-0.299
-0.2838
-0.2437
-0.342
-0.2723
-0.2942
-0.2948
-0.1506
-0.3085
-0.06767
-0.4093
-0.3117
-0.2997
-0.3173
-0.2547
-0.2919
-0.3191
-0.2691
-0.3172
-0.03185
-0.2489
-0.2469
-0.3242
-0.1894
-0.1687
-0.2298
-0.2221
-0.42
-0.2749
-0.3473
-0.312
-0.07543
-0.2987
-0.237
-0.3453
-0.09668
-0.1868
-0.2937
-0.3429
-0.295
-0.2801
-0.2902
-0.3573
-0.2899
-0.3465
-0.2917
-0.2908
-0.3632
-0.1448
-0.2929
-0.377
-0.2886
-0.2795
-0.2936
-0.3323
-0.05816
-0.315
-0.3305
-0.3924
-0.2893
-0.2956
-0.3042
-0.2886
-0.2903
-0.4163
-0.3704
-0.1673
-0.295
-0.1799
-0.3099
-0.2942
-0.3118
-0.2947
-0.21
-0.2774
-0.397
-0.2957
-0.2812
-0.2051
-0.2973
-0.3682
-0.304
-0.3324
-0.04289
-0.2145
-0.2883
-0.2065
-0.357
-0.2169
-0.04327
-0.3399
-0.4056
-0.3811
-0.3561
-0.3019
-0.3908
-0.3085
-0.2698
-0.0664
-0.04701
-0.2941
-0.2697
-0.0562
-0.4183
-0.3174
-0.297
-0.3623
-0.2932
-0.03726
-0.2929
-0.3244
-0.3064
-0.3128
-0.3418
-0.2932
-0.2875
-0.2856
-0.2165
-0.3182
-0.2898
-0.0472
-0.2894
-0.34
-0.0242
-0.3323
-0.1967
-0.04743
-0.31
-0.3034
-0.296
-0.4137
-0.04946
-0.3608
-0.09689
-0.3177
-0.2895
-0.2872
-0.2043
-0.309
-0.2892
-0.3616
-0.3859
-0.3975
-0.2832
-0.2946
-0.2944
-0.295
-0.3009
-0.05022
-0.4149
-0.08394
-0.3062
-0.2863
-0.3301
-0.2875
-0.03843
-0.05881
-0.2986
-0.2644
-0.3414
-0.2462
-0.3084
-0.3438
-0.199
-0.2688
-0.3088
-0.1793
-0.3022
-0.3305
-0.02955
-0.2889
-0.2903
-0.3588
-0.04804
-0.2427
-0.2309
-0.0399
-0.2773
-0.2843
-0.3954
-0.3015
-0.3824
-0.3141
-0.2912
-0.3628
-0.3643
-0.4061
-0.2787
-0.2795
-0.2896
-0.3542
-0.2964
-0.2881
-0.2881
-0.3082
-0.2685
-0.3316
-0.4006
-0.403
-0.3639
-0.3759
-0.3212
-0.4053
-0.04455
-0.3255
-0.3607
-0.3532
-0.3197
-0.2897
-0.2951
-0.04433
-0.2926
-0.3033
-0.3314
-0.2908
-0.29
-0.1238
-0.294
-0.2992
-0.1713
-0.2875
-0.286
-0.3324
-0.02379
-0.1696
-0.3023
-0.4067
-0.2771
-0.2899
-0.2914
-0.3875
-0.2735
-0.04061
-0.2921
-0.1902
-0.3082
-0.01785
-0.146
-0.419
-0.3066
-0.3071
-0.3192
-0.2983
-0.3451
-0.3104
-0.28
-0.05781
-0.02874
-0.3193
-0.3053
-0.3084
-0.4269
-0.2848
-0.3429
-0.04512
-0.1435
-0.2975
-0.3188
-0.2312
-0.1029
-0.2385
-0.3224
-0.2898
-0.2912
-0.3277
-0.2942
-0.3655
-0.309
-0.2884
-0.2927
-0.0204
-0.2299
-0.2957
-0.3358
-0.289
-0.2854
-0.3436
-0.2891
-0.3027
-0.3127
-0.3032
-0.3223
-0.3234
-0.3609
-0.297
-0.296
-0.4034
-0.4129
-0.286
-0.04423
-0.2921
-0.2916
-0.2978
-0.2726
-0.2909
-0.05082
-0.3207
-0.2893
-0.05222
-0.3717
-0.1798
-0.291
-0.4007
-0.2867
-0.2973
-0.3015
-0.2874
-0.2942
-0.3138
-0.03593
-0.05408
-0.2891
-0.3608
-0.2705
-0.2819
-0.2339
-0.03774
-0.1887
-0.3043
-0.02123
-0.1462
-0.2919
-0.3706
-0.2727
-0.347
-0.08378
-0.2894
-0.3291
-0.337
-0.3473
-0.2901
-0.2411
-0.3271
-0.3173
-0.1454
-0.264
-0.4115
-0.2913
-0.3197
-0.4416
-0.3034
-0.2909
-0.1909
-0.2649
-0.3021
-0.3926
-0.3738
-0.05768
-0.2921
-0.3508
-0.3022
-0.1735
-0.2959
-0.3246
-0.3275
-0.2218
-0.1512
-0.04849
-0.2889
-0.4175
-0.3636
-0.2927
-0.2858
-0.02404
-0.2858
-0.3037
-0.2539
-0.3075
-0.3106
-0.4312
-0.04562
-0.2861
-0.3482
-0.3345
-0.2832
-0.228
-0.04645
-0.2061
-0.2919
-0.4222
-0.292
-0.1607
-0.2942
-0.2772
-0.178
-0.2956
-0.2915
-0.2868
-0.356
-0.3344
-0.2668
-0.2908
-0.2902
-0.3574
-0.2885
-0.298
-0.3047
-0.1674
-0.1368
-0.3027
-0.2763
-0.2897
-0.2878
-0.2954
-0.2802
-0.3006
-0.2219
-0.2902
-0.385
-0.3011
-0.2946
-0.3749
-0.3034
-0.3155
-0.2791
-0.1734
-0.03266
-0.3081
-0.3046
-0.313
-0.4118
-0.04596
-0.3663
-0.2892
-0.03823
-0.2923
-0.3347
-0.29
-0.3136
-0.2
-0.3126
-0.2163
-0.3051
-0.3218
-0.3055
-0.4191
-0.2977
-0.3463
-0.298
-0.06302
-0.4188
-0.2936
-0.3073
-0.2883
-0.3227
-0.2069
-0.3007
-0.3017
-0.399
-0.2561
-0.3181
-0.2554
-0.2995
-0.3052
-0.4055
-0.3852
-0.29
-0.2883
-0.3121
-0.2895
-0.2929
-0.3063
-0.3785
-0.305
-0.1837
-0.293
-0.3173
-0.03418
-0.294
-0.2939
-0.03341
-0.2949
-0.3329
-0.3579
-0.3702
-0.1113
-0.2895
-0.2209
-0.3171
-0.1864
-0.2916
-0.3047
-0.3076
-0.3078
-0.3216
-0.2927
-0.2917
-0.3831
-0.2419
-0.2916
-0.2907
-0.3667
-0.2362
-0.2812
-0.4149
-0.277
-0.3038
-0.3262
-0.3785
-0.2879
-0.2792
-0.3292
-0.3306
-0.305
-0.3123
-0.3087
-0.2903
-0.3739
-0.1915
-0.3679
-0.4083
-0.06048
-0.05219
-0.2813
-0.1559
-0.2699
-0.2951
-0.3113
-0.09933
-0.3378
-0.136
-0.2881
-0.2974
-0.4603
-0.266
-0.3502
-0.06683
-0.2915
-0.2842
-0.2812
-0.3026
-0.412
-0.332
-0.2818
-0.2887
-0.0828
-0.292
-0.2894
-0.3283
-0.2344
-0.3887
-0.3605
-0.2708
-0.2922
-0.3261
-0.3058
-0.1109
-0.04936
-0.2989
-0.4086
-0.1899
-0.2897
-0.2947
-0.2243
-0.3106
-0.3926
-0.2648
-0.3816
-0.2661
-0.04436
-0.3125
-0.2941
-0.2907
-0.291
-0.2627
-0.3083
-0.3012
-0.2896
-0.2943
-0.3358
-0.2885
-0.2702
-0.3217
-0.3692
-0.3623
-0.3094
-0.06248
-0.3197
-0.3245
-0.2671
-0.02546
-0.3064
-0.3201
-0.2923
-0.06529
-0.3331
-0.2617
-0.4126
-0.2892
-0.0411
-0.2902
-0.3101
-0.3748
-0.03871
-0.2939
-0.3656
-0.2775
-0.3832
-0.1361
-0.2444
-0.2915
-0.3052
-0.3123
-0.2888
-0.2943
-0.04399
-0.2297
-0.2873
-0.2692
-0.324
-0.2895
-0.3475
-0.2867
-0.2997
-0.3108
-0.3487
-0.29
-0.29
-0.3122
-0.3134
-0.2895
-0.2255
-0.3055
-0.2899
-0.2878
-0.3612
-0.2203
-0.2516
-0.03178
-0.2921
-0.2911
-0.3427
-0.4019
-0.2894
-0.3074
-0.3019
-0.2863
-0.2873
-0.3139
-0.2902
-0.0226
-0.292
-0.06995
-0.2873
-0.2885
-0.1223
-0.3374
-0.2842
-0.2817
-0.3082
-0.3385
-0.2963
-0.3225
-0.3938
-0.367
-0.07716
-0.2856
-0.2924
-0.2738
-0.2708
-0.2838
-0.05237
-0.08412
-0.3163
-0.3428
-0.3057
-0.321
-0.2915
-0.2926
-0.2941
-0.3002
-0.3242
-0.2437
-0.3028
-0.2202
-0.3305
-0.0726
-0.0281
-0.0402
-0.2988
-0.2688
-0.2385
-0.03323
-0.2891
-0.3004
-0.1211
-0.3425
-0.1621
-0.3141
-0.3016
-0.3118
-0.3896
-0.2887
-0.2441
-0.2898
-0.2895
-0.2781
-0.05133
-0.2875
-0.4109
-0.2992
-0.2285
-0.07027
-0.1789
-0.3164
-0.3018
-0.2981
-0.311
-0.3172
-0.3524
-0.2871
-0.2217
-0.2045
-0.3005
-0.2684
-0.2652
-0.2888
-0.2626
-0.3603
-0.3447
-0.2923
-0.2969
-0.2847
-0.1458
-0.2952
-0.2922
-0.2946
-0.4253
-0.3229
-0.3207
-0.2887
-0.3618
-0.3102
-0.3098
-0.08869
-0.3344
-0.03872
-0.3263
-0.3763
-0.3847
-0.2524
-0.2005
-0.3684
-0.3203
-0.2392
0.04385
-0.2983
-0.2633
-0.3959
-0.3561
-0.3935
-0.2836
-0.4457
-0.3234
-0.3587
-0.2934
-0.3976
-0.2979
-0.325
-0.2985
-0.2181
-0.4089
-0.3532
-0.2841
-0.3103
-0.3835
-0.1897
-0.2847
-0.3722
-0.2892
-0.3047
-0.3099
-0.3063
-0.3049
-0.4101
-0.2926
-0.06449
-0.379
-0.2915
-0.03386
-0.3161
-0.2873
-0.2808
-0.03742
-0.348
-0.4148
-0.3066
-0.2797
-0.3919
-0.3079
-0.03557
-0.2896
-0.3377
-0.2962
-0.3537
-0.2675
-0.03127
-0.257
-0.2878
-0.3131
-0.2897
-0.2911
-0.2883
-0.2877
-0.2982
-0.2989
-0.3087
-0.4
-0.3688
-0.2818
-0.3114
-0.1886
-0.2897
-0.3016
-0.009647
-0.4017
-0.2951
-0.3403
-0.3278
-0.2841
-0.2982
-0.3143
-0.3326
-0.2801
-0.3058
-0.4415
-0.3887
-0.2935
-0.3511
-0.247
-0.2948
-0.2204
-0.08773
-0.1996
-0.03839
-0.05112
-0.3372
-0.4144
-0.3016
-0.291
-0.06566
-0.3046
-0.2948
-0.2884
-0.2523
-0.2993
-0.3688
-0.336
-0.1104
-0.2885
-0.3023
-0.2159
-0.3135
-0.01659
-0.3028
-0.2893
-0.2942
-0.03529
-0.06754
-0.2887
-0.2619
-0.06247
-0.4078
-0.2866
-0.2856
-0.37
-0.3176
-0.3082
-0.2571
-0.2897
-0.2975
-0.05838
-0.2862
-0.2465
-0.3462
-0.2882
-0.2563
-0.3589
-0.1088
-0.2879
-0.3457
-0.2931
-0.3154
-0.2719
-0.2969
-0.4328
-0.3216
-0.2815
-0.3231
-0.3163
-0.3045
-0.02454
-0.315
-0.2953
-0.3239
-0.2971
-0.2983
-0.04445
-0.2951
-0.338
-0.2907
-0.4087
-0.2964
-0.3826
-0.2978
-0.3563
-0.3258
-0.293
-0.3057
-0.3495
-0.08212
-0.2932
-0.1722
-0.2415
-0.3664
-0.3778
-0.3062
-0.3113
-0.3121
-0.3228
-0.08217
-0.2878
-0.2802
-0.3342
-0.05748
-0.3082
-0.2955
-0.2978
-0.3175
-0.3115
-0.3625
-0.3638
-0.3928
-0.3019
-0.296
-0.3168
-0.4105
-0.2973
-0.4422
-0.4432
-0.3087
-0.3092
-0.2884
-0.3858
-0.2975
-0.2237
-0.2806
-0.08257
-0.2992
-0.4402
-0.2578
-0.02288
-0.2903
-0.4262
-0.2687
-0.3354
-0.02382
-0.317
-0.2779
-0.2845
-0.212
-0.3362
-0.2991
-0.3328
-0.2797
-0.3013
-0.3057
-0.3923
-0.2991
-0.07432
-0.29
-0.412
-0.2786
-0.24
-0.2899
-0.07746
-0.2892
-0.3101
-0.3027
-0.2874
-0.03088
-0.3533
-0.2884
-0.3345
-0.3568
-0.3008
-0.2955
-0.1324
-0.3133
-0.3624
-0.2776
-0.2896
-0.3068
-0.3144
-0.2951
-0.2887
-0.2274
-0.3001
-0.0955
-0.09622
-0.2914
-0.3016
-0.03072
-0.2943
-0.3448
-0.2846
-0.3266
-0.2786
-0.2902
-0.3115
-0.2297
-0.2901
-0.3928
-0.3665
-0.06747
-0.2774
-0.3206
-0.3805
-0.399
-0.3066
-0.2878
-0.06396
-0.2946
-0.03986
-0.2884
-0.3139
-0.2942
-0.1734
-0.3031
-0.03971
-0.3716
-0.4191
-0.3227
-0.3249
-0.01563
-0.3174
-0.1235
-0.2856
-0.342
-0.2985
-0.3243
-0.2916
-0.4251
-0.2931
-0.3004
-0.3035
-0.2925
-0.3051
-0.3034
-0.3063
-0.3234
-0.3807
-0.2763
-0.3428
-0.04561
-0.2532
-0.2216
-0.0488
-0.1039
-0.03039
-0.321
-0.3052
-0.3012
-0.2888
-0.2992
-0.2958
-0.3298
-0.3045
-0.3645
-0.185
-0.2962
-0.3314
-0.4099
-0.3163
-0.3033
-0.3576
-0.2818
-0.2885
-0.1898
-0.2893
-0.3215
-0.1202
-0.3347
-0.3054
-0.3752
-0.4237
-0.3021
-0.3358
-0.2572
-0.3113
-0.2905
-0.2893
-0.4232
-0.2983
-0.2883
-0.3349
-0.383
-0.4422
-0.323
-0.2874
-0.2897
-0.3357
-0.2898
-0.04164
-0.03277
-0.2926
-0.2898
-0.3233
-0.281
-0.2857
-0.3001
-0.3148
-0.3094
-0.332
-0.3996
-0.2242
-0.2952
-0.2946
-0.06188
-0.3096
-0.3174
-0.3001
-0.05443
-0.2911
-0.2916
-0.3631
-0.4071
-0.3364
-0.1259
-0.4342
-0.2921
-0.2885
-0.2908
-0.3291
-0.2646
-0.2908
-0.2786
-0.3362
-0.3689
-0.3451
-0.09966
-0.3219
-0.4034
-0.2974
-0.3074
-0.03217
-0.1719
-0.2477
-0.09172
-0.2921
-0.2761
-0.2894
-0.4212
-0.2818
-0.4182
-0.3473
-0.09393
-0.2891
-0.2934
-0.03232
-0.315
-0.2764
-0.2875
-0.373
-0.3201
-0.3304
-0.2854
-0.4409
-0.287
-0.2956
-0.2914
-0.04412
-0.2921
-0.389
-0.04797
-0.3175
-0.3143
-0.293
-0.301
-0.2941
-0.2917
-0.3518
-0.2874
-0.2439
-0.2902
-0.3096
-0.4116
-0.3416
-0.2481
-0.04661
-0.2881
-0.2224
-0.3009
-0.2841
-0.3696
-0.301
-0.3031
-0.299
-0.2898
-0.2842
-0.2883
-0.3953
-0.339
-0.2988
-0.3037
-0.2564
-0.06139
-0.2882
-0.07239
-0.3552
-0.3099
-0.258
-0.2955
-0.2949
-0.3199
-0.4062
-0.3479
-0.3063
-0.3113
-0.2917
-0.3164
-0.2895
-0.3316
-0.09873
-0.3642
-0.2833
-0.2872
-0.3266
-0.2986
-0.3594
-0.3715
-0.3141
-0.1878
-0.2885
-0.3206
-0.0442
-0.2964
-0.1068
-0.04151
-0.2674
-0.2681
-0.232
-0.04083
-0.1978
-0.3154
-0.2944
-0.2859
-0.4206
-0.367
-0.2239
-0.03455
-0.1456
-0.3889
-0.3392
-0.2946
-0.2928
-0.305
-0.282
-0.4402
-0.2896
-0.3077
-0.2895
-0.3203
-0.3021
-0.3349
-0.2912
-0.1909
-0.2904
-0.3001
-0.07928
-0.05062
-0.2712
-0.3235
-0.2526
-0.02603
-0.3303
-0.297
-0.2884
-0.2999
-0.2894
-0.3091
-0.303
-0.3007
-0.1718
-0.3108
-0.2892
-0.3355
-0.238
-0.358
-0.4253
-0.3462
-0.312
-0.3484
-0.2948
-0.3121
-0.2951
-0.2665
-0.2923
-0.09016
-0.4164
-0.3148
-0.2844
-0.3967
-0.4237
-0.2991
-0.3079
-0.05326
-0.1535
-0.02689
-0.2987
-0.2036
-0.2067
-0.3536
-0.317
-0.03147
-0.2108
-0.4011
-0.3941
-0.2867
-0.2946
-0.2967
-0.2799
-0.2931
-0.2648
-0.04519
-0.3441
-0.4263
-0.3122
-0.03938
-0.2788
-0.2961
-0.3044
-0.4295
-0.3166
-0.2951
-0.2969
-0.2885
-0.4096
-0.03667
-0.2523
-0.07955
-0.06665
-0.2898
-0.2911
-0.03503
-0.3095
-0.4235
-0.3553
-0.1475
-0.423
-0.3212
-0.2932
-0.2975
-0.3664
-0.3341
-0.3482
-0.2901
-0.1003
-0.3691
-0.3072
-0.2681
-0.3123
-0.2965
-0.2852
-0.06121
-0.2891
-0.3377
-0.4212
-0.3567
-0.3655
-0.2905
-0.2983
-0.3313
-0.3462
-0.2899
-0.2855
-0.1771
-0.2518
-0.3763
-0.05351
-0.3515
-0.2895
-0.3216
-0.3082
-0.3436
-0.1047
-0.08223
-0.3278
-0.4073
-0.2907
-0.1174
-0.2969
-0.4201
-0.2893
-0.3045
-0.1875
-0.1858
-0.2897
-0.3715
-0.3058
-0.2762
-0.3269
-0.3393
-0.09554
-0.2541
-0.3838
-0.3315
-0.4134
-0.03179
-0.4325
-0.1565
-0.04245
-0.1371
-0.02801
-0.3016
-0.3008
-0.1183
-0.313
-0.4208
-0.298
-0.1738
-0.3396
-0.2951
-0.2628
-0.3947
-0.2873
-0.3314
-0.2899
-0.3215
-0.2893
-0.2874
-0.443
-0.2953
-0.2741
-0.3038
-0.3155
-0.293
-0.4185
-0.2986
-0.2916
-0.09644
-0.3427
-0.05404
-0.3562
-0.3115
-0.2984
-0.3655
-0.3125
-0.3934
-0.3231
-0.3162
-0.3693
-0.3754
-0.2897
-0.4213
-0.3028
-0.2895
-0.03172
-0.183
-0.2848
-0.4011
-0.2897
-0.1022
-0.3537
-0.3332
-0.4159
-0.2406
-0.2425
-0.2888
-0.3015
-0.4071
-0.3288
-0.2963
-0.4198
-0.1707
-0.3154
-0.2068
-0.29
-0.2882
-0.2975
-0.1345
-0.4095
-0.3065
-0.332
-0.3616
-0.2948
-0.305
-0.3078
-0.2879
-0.3643
-0.1701
-0.3437
-0.2993
-0.365
-0.3557
-0.2934
-0.1199
-0.3419
-0.266
-0.3244
-0.2925
-0.05975
-0.2308
-0.2941
-0.3229
-0.2143
-0.3893
-0.2571
-0.3706
-0.2898
-0.164
-0.3221
-0.03756
-0.411
-0.4166
-0.4088
-0.2959
-0.449
-0.2895
-0.3146
-0.2877
-0.29
-0.1993
-0.3069
-0.01531
-0.2715
-0.309
-0.04329
-0.2701
-0.299
-0.2722
-0.3108
-0.2478
-0.3135
-0.2945
-0.3
-0.3068
-0.04446
-0.4123
-0.3347
-0.2952
-0.2983
-0.06291
-0.2357
-0.3014
-0.2838
-0.3651
-0.01999
-0.3617
-0.2912
-0.2611
-0.3732
-0.3836
-0.04694
-0.2788
-0.4121
-0.4084
-0.2759
-0.3036
-0.1246
-0.2731
-0.1317
-0.03875
-0.2898
-0.2628
-0.3039
-0.4018
-0.3477
-0.3283
-0.3048
-0.3702
-0.3459
-0.1497
-0.3874
-0.3292
-0.2891
-0.2823
-0.2871
-0.04392
-0.3419
-0.2993
-0.2863
-0.3391
-0.2833
-0.3116
-0.298
-0.1585
-0.2888
-0.293
-0.3144
-0.1263
-0.3002
-0.451
-0.3099
-0.2843
-0.2984
-0.2936
-0.04373
-0.1416
-0.03285
-0.2833
-0.2902
-0.2467
-0.2949
-0.2984
-0.2727
-0.1789
-0.03811
-0.3209
-0.2913
-0.4195
-0.04451
-0.3421
-0.2921
-0.2894
-0.2906
-0.3156
-0.2925
-0.3071
-0.2873
-0.06656
-0.3321
-0.3288
-0.3323
-0.2743
-0.42
-0.05718
-0.2252
-0.3212
-0.3175
-0.2171
-0.2696
-0.3769
-0.2952
-0.2032
-0.324
-0.2702
-0.2886
-0.3019
-0.2891
-0.2786
-0.2274
-0.2873
-0.4355
-0.2388
-0.3191
-0.3866
-0.2989
-0.2676
-0.3426
-0.05398
-0.2954
-0.3517
-0.3096
-0.02332
-0.08644
-0.2921
-0.3355
-0.3213
-0.03262
-0.3792
-0.2947
-0.2902
-0.3302
-0.2601
-0.4417
-0.2988
-0.2914
-0.2931
-0.4734
-0.3455
-0.2641
-0.317
-0.3002
-0.2932
-0.2908
-0.2854
-0.3031
-0.3078
-0.2908
-0.2979
-0.3042
-0.04974
-0.01729
-0.3522
-0.3222
-0.3033
-0.2902
-0.3813
-0.3246
-0.4427
-0.3142
-0.2939
-0.3685
-0.2816
-0.3195
-0.343
-0.2991
-0.3056
-0.3243
-0.2955
-0.3766
-0.2642
-0.2977
-0.2787
-0.3665
-0.03254
-0.04888
-0.3004
-0.3304
-0.3221
-0.2549
-0.2835
-0.08247
-0.2834
-0.3169
-0.2319
-0.3728
-0.4261
-0.2722
-0.2031
-0.2947
-0.03864
-0.2943
-0.2987
-0.04037
-0.2321
-0.278
-0.2988
-0.04918
-0.2824
-0.3344
-0.2916
-0.4159
-0.3166
-0.2864
-0.3152
-0.2918
-0.3148
-0.1962
-0.2964
-0.2931
-0.3468
-0.2815
-0.2869
-0.3097
-0.3062
-0.3195
-0.2924
-0.2903
-0.03652
-0.3037
-0.2981
-0.2988
-0.2947
-0.3123
-0.2574
-0.284
-0.06199
-0.3197
-0.4037
-0.0504
-0.3171
-0.3314
-0.2708
-0.04673
-0.308
-0.2307
-0.3188
-0.3077
-0.3386
-0.2865
-0.2677
-0.2896
-0.3987
-0.2971
-0.3741
-0.3253
-0.3737
-0.2374
-0.4116
-0.2999
-0.05106
-0.2949
-0.3531
-0.3011
-0.2899
-0.2917
-0.2924
-0.2137
-0.02876
-0.2981
-0.3
-0.2839
-0.3791
-0.3562
-0.3376
-0.1946
-0.3019
-0.3198
-0.3193
-0.3054
-0.3293
-0.288
-0.3384
-0.3501
-0.2261
-0.3029
-0.2955
-0.2551
-0.3501
-0.2874
-0.3677
-0.4238
-0.2918
-0.3478
-0.1167
-0.1712
-0.0464
-0.32
-0.3363
-0.2721
-0.3061
-0.288
-0.2824
-0.3323
-0.4194
-0.2815
-0.417
-0.3019
-0.2902
-0.3292
-0.2196
-0.2865
-0.3422
-0.2848
-0.2972
-0.2901
-0.41
-0.416
-0.05165
-0.4262
-0.2278
-0.3227
-0.07825
-0.2802
-0.3134
-0.2978
-0.3519
-0.3513
-0.3019
-0.3133
-0.3007
-0.3238
-0.0234
-0.2959
-0.2939
-0.2372
-0.02527
-0.2904
-0.2906
-0.04803
-0.3135
-0.2809
-0.284
-0.2366
-0.2419
-0.3532
-0.3161
-0.3086
-0.208
-0.2866
-0.2361
-0.2912
-0.2901
-0.307
-0.3237
-0.416
-0.3596
-0.2198
-0.3023
-0.3636
-0.3114
-0.289
-0.3175
-0.1962
-0.3185
-0.2898
-0.1816
-0.3115
-0.2746
-0.058
-0.2911
-0.4205
-0.3151
-0.2836
-0.4179
-0.3062
-0.2924
-0.2684
-0.1872
-0.2711
-0.3554
-0.3867
-0.2891
-0.3546
-0.2844
-0.2878
-0.2629
-0.3102
-0.3998
-0.1063
-0.2923
-0.3048
-0.03137
-0.2304
-0.06965
-0.3701
-0.2912
-0.3193
-0.202
-0.2298
-0.2935
-0.3221
-0.2914
-0.2967
-0.2921
-0.2471
-0.367
-0.2123
-0.3526
-0.4427
-0.3253
-0.3373
-0.2525
-0.2918
-0.09286
-0.2866
-0.03581
-0.1975
-0.3042
-0.4108
-0.3268
-0.06562
-0.3261
-0.3285
-0.2718
-0.2902
-0.2289
-0.3552
-0.3545
-0.3198
-0.3313
-0.06972
-0.3155
-0.3667
-0.372
-0.2892
-0.2913
-0.2845
-0.3489
-0.08544
-0.3384
-0.3138
-0.2992
-0.3039
-0.3028
-0.3695
-0.2587
-0.3073
-0.3014
-0.298
-0.3321
-0.3559
-0.1122
-0.2875
-0.2598
-0.2853
-0.2976
-0.03866
-0.2951
-0.3096
-0.2938
-0.2714
-0.2007
-0.1044
-0.2549
-0.2897
-0.2876
-0.3059
-0.292
-0.3104
-0.204
-0.2892
-0.4404
-0.2891
-0.2953
-0.3038
-0.2901
-0.3267
-0.3007
-0.3093
-0.245
-0.3003
-0.04467
-0.145
-0.3196
-0.2743
-0.2819
-0.2957
-0.2781
-0.2735
-0.2385
-0.4257
-0.2896
-0.2233
-0.3006
-0.2942
-0.3193
-0.1592
-0.3852
-0.2928
-0.3268
-0.2896
-0.3716
-0.2892
-0.1846
-0.2441
-0.2776
-0.3058
-0.3377
-0.2924
-0.2419
-0.4067
-0.2936
-0.01631
-0.3368
-0.2953
-0.02596
-0.3244
-0.04813
-0.3424
-0.3301
-0.09746
-0.2963
-0.2887
-0.29
-0.2522
-0.3286
-0.2909
-0.0674
-0.2889
-0.4112
-0.3002
-0.04374
-0.04649
-0.3318
-0.333
-0.05394
-0.2649
-0.3133
-0.37
-0.2906
-0.3451
-0.1399
-0.2985
-0.3941
-0.289
-0.2967
-0.2438
-0.3888
-0.3419
-0.01967
-0.2321
-0.3206
-0.3594
-0.2891
-0.2669
-0.3138
-0.3061
-0.4259
-0.2782
-0.289
-0.1482
-0.2877
-0.2927
-0.3131
-0.2963
-0.2084
-0.2983
-0.1914
-0.3142
-0.4042
-0.02178
-0.1833
-0.3243
-0.293
-0.06
-0.3101
-0.3127
-0.09639
-0.3041
-0.3754
-0.2385
-0.2965
-0.1923
-0.2899
-0.2193
-0.296
-0.0259
-0.2959
-0.3021
-0.01873
-0.2945
-0.3184
-0.02569
-0.2925
-0.3415
-0.1631
-0.2792
-0.4155
-0.02504
-0.388
-0.2963
-0.2892
-0.2546
-0.3189
-0.2955
-0.2918
-0.2847
-0.3911
-0.2902
-0.3695
-0.4266
-0.04499
-0.2856
-0.3034
-0.3778
-0.3073
-0.2911
-0.2689
-0.2817
-0.3558
-0.386
-0.3327
-0.3673
-0.02055
-0.2371
-0.04346
-0.3502
-0.1849
-0.2885
-0.3113
-0.3022
-0.07741
-0.05559
-0.2755
-0.3043
-0.3498
-0.3687
-0.2945
-0.3806
-0.3193
-0.3985
-0.3777
-0.2683
-0.3436
-0.3001
-0.2706
-0.3692
-0.3198
-0.04576
-0.3085
-0.1022
-0.4144
-0.2856
-0.3336
-0.1867
-0.1329
-0.2965
-0.3197
-0.2746
-0.3263
-0.3559
-0.3635
-0.3164
-0.04596
-0.298
-0.2902
-0.3476
-0.2883
-0.2926
-0.2468
-0.2895
-0.2697
-0.3119
-0.02621
-0.328
-0.2873
-0.2735
-0.06833
-0.3121
-0.2965
-0.2897
-0.3384
-0.3297
-0.0456
-0.3064
-0.3078
-0.3005
-0.3113
-0.2846
-0.2987
-0.04447
-0.2971
-0.3167
-0.2968
-0.2954
-0.289
-0.3758
-0.3005
-0.3426
-0.3248
-0.3057
-0.299
-0.3142
-0.3545
-0.04004
-0.3692
-0.3758
-0.2907
-0.09399
-0.295
-0.2999
-0.3119
-0.3464
-0.2637
-0.2472
-0.4071
-0.3099
-0.3569
-0.3333
-0.1097
-0.1019
-0.427
-0.3603
-0.3064
-0.3008
-0.3421
-0.2382
-0.03411
-0.3411
-0.2892
-0.304
-0.3896
-0.2975
-0.2922
-0.288
-0.4215
-0.3218
-0.2415
-0.3067
-0.2962
-0.2893
-0.2748
-0.2953
-0.2857
-0.3226
-0.2884
-0.3551
0.001936
-0.335
-0.2999
-0.3359
-0.3464
-0.3857
-0.3711
-0.08874
-0.04342
-0.2931
-0.2956
-0.2915
-0.4055
-0.3664
-0.3088
-0.3431
-0.4104
-0.297
-0.2661
-0.4139
-0.2918
-0.2427
-0.4196
-0.2415
-0.2995
-0.4218
-0.2913
-0.3067
-0.292
-0.04971
-0.2963
-0.3813
-0.3169
-0.4252
-0.2872
-0.2931
-0.3305
-0.3999
-0.314
-0.2911
-0.2902
-0.2984
-0.3841
-0.2875
-0.2966
-0.2919
-0.06329
-0.2693
-0.2962
-0.5556
-0.2636
-0.4113
-0.2798
-0.3246
-0.3866
-0.3001
-0.294
-0.3133
-0.2119
-0.3607
-0.3216
-0.3263
-0.1675
-0.2301
-0.2602
-0.2807
-0.2122
-0.3019
-0.2922
-0.2898
-0.292
-0.384
-0.3885
-0.08369
-0.3077
-0.3525
-0.2852
-0.2485
-0.3329
-0.183
-0.2831
-0.2902
-0.2903
-0.07748
-0.2046
-0.1885
-0.2904
-0.3586
-0.03192
-0.3493
-0.313
-0.2957
-0.2914
-0.2897
-0.1664
-0.4165
-0.2957
-0.2529
-0.2925
-0.3329
-0.2884
-0.09839
-0.286
-0.2639
-0.2803
-0.3579
-0.2967
-0.4132
-0.2907
-0.1832
-0.3178
-0.3446
-0.2793
-0.3344
-0.4348
-0.3009
-0.2842
-0.2443
-0.3109
-0.2902
-0.3829
-0.2894
-0.2935
-0.06147
-0.2872
-0.269
-0.06207
-0.03508
-0.3448
-0.03265
-0.3029
-0.2913
-0.3739
-0.2913
-0.3879
-0.2882
-0.3411
-0.2506
-0.3262
-0.2913
-0.4014
-0.1126
-0.3816
-0.3023
-0.3096
-0.2566
-0.2957
-0.01761
-0.3076
-0.285
-0.1107
-0.07838
-0.3301
-0.2885
-0.1984