/*--------------------------------*- C++ -*----------------------------------*\
  =========                 |
  \\      /  F ield         | OpenFOAM: The Open Source CFD Toolbox
   \\    /   O peration     | Website:  https://openfoam.org
    \\  /    A nd           | Version:  8
     \\/     M anipulation  |
\*---------------------------------------------------------------------------*/
FoamFile
{
    version     2.0;
    format      ascii;
    class       volVectorField;
    location    "5";
    object      U;
}
// * * * * * * * * * * * * * * * * * * * * * * * * * * * * * * * * * * * * * //

dimensions      [0 1 -1 0 0 0 0];

internalField   nonuniform List<vector> 
63564
(
(0.1213 -0.004342 3.063e-22)
(-0.007314 -0.03577 -4.924e-22)
(0.0007594 0.003481 3.724e-22)
(0.001366 0.006368 0)
(0.001376 0.006304 0)
(0.6019 0.02362 1.55e-21)
(0.04293 -0.01612 1.033e-22)
(0.001656 0.006931 0)
(0.6202 -0.04327 7.123e-23)
(-0.01424 -0.05569 5.097e-22)
(0.6006 -0.06326 0)
(0.4437 -0.1311 -1.049e-21)
(0.8002 0.1797 1.266e-22)
(0.5717 -0.135 0)
(0.2339 -0.08352 1.695e-22)
(0.2335 -0.0836 4.843e-22)
(0.9072 -0.004193 3.612e-23)
(0.9104 0.00982 -2.592e-21)
(0.7241 -0.04767 2.754e-23)
(0.5354 -0.1286 -6.615e-22)
(0.3403 -0.1132 -6.365e-22)
(0.7636 -0.1109 3.234e-22)
(0.7644 0.004855 7.812e-23)
(0.4437 -0.1302 -3.641e-22)
(0.08995 -0.02992 -1.015e-21)
(0.6045 -0.05796 0)
(0.5364 -0.1288 6.26e-22)
(0.3676 -0.1176 -2.63e-22)
(0.7419 -0.06276 2.147e-23)
(0.6442 -0.04445 7.108e-23)
(0.7534 -0.07284 -7.766e-23)
(0.9593 0.01182 6.714e-24)
(0.9607 0.01507 3.461e-22)
(0.4621 -0.1285 0)
(0.7654 -0.06185 -4.968e-23)
(0.8245 -0.07659 1.131e-21)
(0.9696 0.06867 3.06e-22)
(0.7613 -0.0635 0)
(0.7623 -0.06351 0)
(0.7366 -0.06222 -2.575e-23)
(0.9216 0.0003646 -9.812e-22)
(0.4226 -0.07261 4.468e-22)
(0.9283 0.008522 2.045e-21)
(0.3821 -0.1195 2.605e-22)
(0.807 0.164 -2.411e-22)
(0.5479 -0.1301 1.156e-21)
(0.72 -0.04151 -5.292e-23)
(0.3491 -0.1045 0)
(0.3812 -0.1192 -5.002e-22)
(0.9906 0.08012 3.087e-22)
(0.791 -0.1061 -1.413e-21)
(0.5726 -0.1349 -2.067e-22)
(0.6092 -0.1228 8.615e-22)
(0.716 -0.05689 -1.01e-22)
(0.4362 -0.1265 3.611e-22)
(0.9685 0.07096 0)
(0.3823 -0.1193 4.6e-22)
(0.4344 -0.1264 0)
(0.983 0.08919 2.661e-22)
(0.5909 -0.1306 3.736e-22)
(-0.0002046 0.0111 1.194e-22)
(0.5298 -0.1323 5.416e-22)
(0.4688 -0.1285 0)
(0.8372 -0.06207 -8.348e-23)
(0.4367 -0.1275 9.73e-22)
(0.5708 -0.1304 0)
(0.3824 -0.1193 -1.29e-22)
(-0.01844 -0.06832 -1.263e-21)
(0.4377 -0.1276 -1.021e-21)
(0.8975 -0.06668 -2.124e-21)
(0.5968 -0.1342 -1.059e-21)
(0.9473 -0.03651 -3.509e-21)
(0.7208 -0.09022 0)
(0.6676 -0.1278 -5.569e-22)
(0.7535 -0.07216 1.139e-22)
(0.57 -0.1303 -4.028e-23)
(0.7873 -0.1041 0)
(0.3504 -0.1051 0)
(0.3682 -0.1177 -1.021e-24)
(0.7249 -0.06116 -8.463e-23)
(0.7266 -0.0513 9.713e-23)
(0.436 -0.1274 0)
(0.8252 -0.07604 -2.198e-22)
(0.3445 -0.1136 -6.823e-22)
(0.2812 -0.09916 1.845e-22)
(0.6664 -0.1277 0)
(0.3035 -0.09759 7.235e-24)
(0.8361 -0.06227 -8.279e-23)
(0.3031 -0.07573 5.92e-23)
(0.3036 -0.09702 -7.419e-24)
(0.4647 -0.129 0)
(0.724 -0.08241 3.393e-23)
(0.7455 -0.09402 -3.017e-23)
(0.9036 -0.06435 0)
(-0.0132 -0.07831 1.309e-21)
(0.5232 -0.1325 -1.304e-21)
(0.8001 0.2289 1.238e-23)
(0.3417 -0.1135 4.036e-26)
(0.003162 0.007054 1.672e-21)
(0.7528 -0.05389 3.207e-24)
(0.7984 -0.1053 1.723e-21)
(0.3338 -0.1038 -1.776e-22)
(0.4371 -0.128 0)
(0.8426 0.06772 4.814e-23)
(0.2816 -0.1005 -9.356e-23)
(0.5446 -0.1348 0)
(0.769 -0.0661 0)
(0.7181 -0.05936 3.997e-23)
(0.2868 -0.1024 -9.237e-23)
(0.7689 -0.1094 0)
(0.3017 -0.1066 -1.466e-22)
(0.4418 -0.1264 2.618e-22)
(0.5754 -0.1344 6.282e-22)
(0.4255 -0.07566 0)
(0.03498 -0.06832 -1.532e-22)
(0.5755 -0.1343 -1.439e-22)
(0.4362 -0.1274 -5.761e-22)
(0.2296 -0.01603 4.525e-22)
(0.7144 -0.07846 -1.313e-23)
(0.745 -0.09332 0)
(0.8704 -0.05828 3.104e-22)
(0.3261 -0.1126 -1.89e-22)
(0.7959 -0.05114 0)
(-0.0006868 0.01095 -2.344e-22)
(0.9063 -0.01383 0)
(0.2228 -0.06092 -2.069e-21)
(1.018 0.1824 0)
(0.6259 -0.1308 0)
(0.5511 -0.1337 2.479e-24)
(0.7978 -0.1039 8.193e-23)
(0.8351 -0.04357 -3.74e-22)
(0.8501 -0.06716 2.099e-22)
(0.3841 -0.1201 5.168e-22)
(0.8941 -0.007366 -2.087e-22)
(0.3719 -0.1193 0)
(0.7133 -0.079 0)
(0.7801 -0.06077 0)
(0.7244 -0.0816 0)
(0.5912 -0.1307 -3.713e-22)
(-0.0308 -0.08211 1.043e-21)
(0.4843 -0.1331 -2.675e-22)
(0.7905 -0.104 -8.775e-23)
(0.7357 -0.0629 0)
(0.2789 -0.00366 -1.127e-22)
(0.326 -0.1127 3.638e-22)
(0.8974 -0.006503 0)
(0.7095 -0.05666 1.556e-22)
(0.5874 -0.1322 4.478e-24)
(0.2177 -0.05586 -1.005e-22)
(0.7509 -0.1096 1.718e-22)
(0.8666 -0.07841 -1.611e-22)
(0.7204 -0.05463 1.537e-23)
(0.7618 -0.08858 0)
(0.4345 0.04017 -1.219e-22)
(0.71 0.03827 -5.83e-22)
(0.4298 -0.1254 3.651e-22)
(0.4291 -0.1252 -1.79e-22)
(0.4972 -0.1336 -8.635e-25)
(0.9488 -0.03567 4.682e-21)
(0.7481 -0.07025 6.758e-23)
(0.7257 -0.08083 0)
(0.551 -0.1323 -7.407e-22)
(0.6182 -0.1234 1.158e-24)
(0.8749 -0.0516 0)
(0.497 -0.1383 6.084e-22)
(0.3073 -0.1061 1.251e-22)
(0.7253 -0.08135 0)
(0.5421 -0.1322 -1.16e-21)
(0.6244 -0.1309 3.115e-22)
(0.7002 0.04459 3.676e-22)
(0.378 -0.1216 1.609e-22)
(0.7689 -0.06217 0)
(0.6154 -0.1348 9.946e-22)
(0.7337 -0.05687 0)
(0.7459 -0.06488 -1.516e-23)
(0.6039 -0.1152 1.572e-21)
(0.7336 -0.05836 0)
(0.9339 -0.03712 -1.344e-22)
(0.1686 -0.1175 -5.681e-23)
(0.4226 -0.1243 0)
(0.657 -0.1296 -8.795e-22)
(0.6681 -0.04664 1.347e-23)
(0.7622 0.003231 -9.36e-23)
(0.5229 -0.1325 1.213e-22)
(0.697 -0.1269 0)
(0.294 -0.1045 2.403e-22)
(0.7194 -0.05547 6.845e-23)
(0.727 -0.04744 5.255e-23)
(0.6996 -0.05253 -1.015e-22)
(0.6024 -0.1322 0)
(0.3049 -0.07626 0)
(0.386 -0.1198 0)
(0.3786 -0.1192 0)
(0.6107 -0.1226 -6.387e-22)
(0.4894 -0.1324 3.553e-23)
(0.825 -0.07736 8.345e-22)
(0.345 -0.1137 4.623e-22)
(0.3115 -0.1067 3.864e-21)
(0.4467 -0.1294 0)
(0.4405 -0.1263 0)
(0.8709 -0.05802 0)
(0.4407 -0.1285 0)
(0.3057 -0.1057 0)
(0.7404 -0.1195 -2.986e-21)
(0.9344 -0.004806 7.196e-24)
(0.5698 -0.1283 -6.098e-22)
(0.7439 -0.06306 0)
(0.8889 -0.07056 7.327e-22)
(0.7173 -0.05719 7.414e-23)
(0.3341 -0.1026 -1.703e-22)
(0.525 -0.1342 0)
(0.6269 -0.1107 1.309e-21)
(0.3373 -0.1128 -3.144e-22)
(0.8898 -0.04841 5.545e-22)
(0.3484 -0.1144 0)
(0.8466 -0.07465 1.36e-21)
(0.8348 -0.05382 2.345e-22)
(0.6455 -0.1319 0)
(0.8327 -0.05498 0)
(0.6604 -0.1195 4.771e-22)
(0.5126 -0.1331 8.313e-22)
(0.4494 -0.1276 0)
(0.8231 -0.09666 0)
(0.754 -0.1095 0)
(0.8306 -0.0942 0)
(0.3087 -0.1075 -4.564e-22)
(0.7624 -0.0624 0)
(0.7155 -0.09702 1.191e-22)
(0.9338 -0.003496 -1.549e-22)
(0.7675 -0.06381 -3.854e-23)
(0.7279 -0.06164 9.721e-23)
(0.7648 -0.07412 1.309e-22)
(0.003016 0.004741 -8.843e-22)
(0.4245 -0.1265 2.472e-22)
(0.3203 -0.1114 -2.331e-22)
(0.5276 -0.1326 -4.453e-22)
(-0.0178 -0.06519 0)
(-0.003825 -0.07333 5.032e-22)
(0.1725 -0.05768 1.444e-22)
(0.5425 -0.1323 3.705e-23)
(0.9893 0.03045 0)
(0.3962 -0.1235 3.996e-22)
(0.3843 -0.1197 9.846e-23)
(0.5241 -0.1341 0)
(0.4502 -0.128 0)
(0.5712 -0.1077 -3.028e-22)
(0.3311 -0.08315 0)
(0.2212 -0.07926 -7.768e-22)
(0.2822 -0.0993 0)
(0.65 -0.1319 0)
(0.7217 -0.06012 0)
(0.2985 -0.1059 1.127e-22)
(0.6598 -0.1195 3.001e-22)
(0.2631 -0.09014 -6.016e-23)
(0.6224 -0.1313 0)
(0.3214 -0.1098 0)
(0.8284 -0.08128 1.43e-21)
(0.7373 -0.06328 0)
(0.7348 -0.0569 -1.626e-23)
(0.5112 -0.133 -9.07e-22)
(0.353 -0.1149 6.108e-23)
(0.5246 -0.1326 0)
(0.8986 -0.009666 -6.302e-22)
(0.3671 -0.1172 1.901e-22)
(0.4418 -0.1286 0)
(0.7581 -0.002791 4.504e-23)
(0.4758 -0.1319 0)
(0.3346 -0.1144 0)
(0.55 -0.1323 1.301e-21)
(0.3808 -0.1192 6.691e-22)
(0.3259 -0.1099 1.935e-22)
(0.3637 -0.1172 -2.256e-21)
(0.3017 -0.1064 -1.25e-22)
(0.4635 -0.1292 2.26e-22)
(0.9158 -0.01464 0)
(0.5025 -0.1343 0)
(0.388 -0.1202 0)
(0.3189 -0.05997 9.36e-23)
(0.6715 -0.129 -1.537e-21)
(0.3545 -0.1151 7.246e-22)
(0.5522 -0.1341 -7.43e-24)
(0.2819 -0.1006 -1.808e-22)
(0.7442 -0.05813 -4.153e-23)
(0.7569 -0.0776 0)
(0.5376 -0.1324 9.23e-22)
(0.2096 -0.01482 -8.151e-25)
(0.6805 -0.09321 1.099e-22)
(0.7299 -0.09141 -3.739e-22)
(0.7521 -0.01916 0)
(0.3084 -0.1079 -1.841e-22)
(0.8141 -0.05504 0)
(0.7227 -0.09086 1.047e-23)
(0.5664 -0.1343 0)
(0.3024 -0.1067 2.021e-25)
(1.038 0.1349 5.129e-22)
(0.5513 -0.1303 9.672e-22)
(0.378 -0.1237 0)
(0.5211 -0.134 0)
(0.7256 -0.08025 -5.745e-23)
(0.4348 -0.1281 2.642e-22)
(0.8505 -0.06832 -6.221e-22)
(0.9048 -0.04003 8.97e-25)
(0.7196 -0.07821 0)
(0.8524 -0.08198 -2.306e-22)
(0.7669 -0.08827 0)
(0.7673 -0.06394 1.893e-23)
(0.2732 -0.09971 -5.027e-22)
(0.4029 -0.1231 -5.592e-22)
(0.8221 -0.07476 -4.527e-23)
(0.7741 -0.09176 0)
(0.4142 -0.126 -7.645e-25)
(0.7206 -0.07775 -1.019e-22)
(0.08691 -0.03388 0)
(0.2875 -0.1026 0)
(0.3491 -0.1145 -6.698e-23)
(0.3371 -0.1131 2.875e-22)
(0.4842 -0.1329 0)
(0.6982 -0.09164 1.48e-22)
(0.6875 -0.09809 2.852e-22)
(0.8114 -0.06772 -1.611e-22)
(0.274 -0.07155 0)
(0.6032 -0.132 -6.336e-24)
(0.07587 0.1354 1.323e-22)
(0.7276 -0.09315 1.362e-23)
(0.5875 -0.1326 -1.983e-21)
(0.9568 0.03517 -5.926e-22)
(0.7206 -0.05932 -6.926e-23)
(1.021 0.2027 2.093e-23)
(0.6059 -0.1155 -1.085e-21)
(0.389 -0.1254 6.704e-22)
(0.8061 -0.1033 0)
(0.6231 -0.1343 0)
(0.7148 -0.04983 9.367e-23)
(-0.02578 -0.08521 -2.99e-22)
(0.8385 -0.04148 2.321e-22)
(0.4243 -0.1246 0)
(0.2886 -0.1017 -8.233e-22)
(0.5027 -0.1256 -7.42e-22)
(0.6414 -0.1325 7.329e-25)
(0.7251 -0.0801 0)
(0.4884 -0.1324 -5.292e-22)
(0.4401 -0.1325 9.36e-22)
(0.4705 -0.1288 3.585e-22)
(0.1344 -0.005525 -1.045e-22)
(0.2912 -0.07435 -8.322e-23)
(0.501 -0.1381 6.536e-22)
(0.3811 -0.1191 2.029e-22)
(0.2737 -0.09862 7.305e-22)
(0.4473 -0.1294 3.437e-25)
(0.6869 -0.09902 0)
(0.3135 -0.1097 -6.239e-23)
(0.6137 -0.1164 1.208e-21)
(0.7903 -0.08001 5.866e-23)
(0.3972 -0.1213 2.886e-22)
(0.2693 -0.0893 0)
(0.4928 -0.1341 0)
(0.6294 -0.1299 -3.858e-22)
(0.7493 -0.06961 2.891e-23)
(0.699 -0.09092 -2.822e-22)
(0.4245 -0.1263 2.216e-22)
(0.3855 -0.1203 4.694e-22)
(0.3963 -0.1212 -3.671e-22)
(0.4281 -0.1272 0)
(0.6935 -0.05237 0)
(0.9539 0.000708 0)
(0.3974 -0.1237 0)
(0.3538 -0.1151 1.424e-22)
(0.385 -0.1198 0)
(0.4138 -0.1259 -6.089e-25)
(0.7548 -0.06571 1.408e-23)
(0.0482 -0.08006 1.586e-22)
(0.7567 -0.06497 -2.665e-23)
(0.2987 -0.106 -5.236e-23)
(0.628 -0.1245 -3.269e-22)
(0.326 -0.1124 0)
(0.07675 -0.02898 8.978e-22)
(0.461 -0.1307 2.339e-22)
(0.6809 -0.09303 0)
(0.3019 -0.1059 0)
(0.3585 -0.1159 0)
(0.3325 -0.1112 2.196e-22)
(0.3837 -0.1201 -7.817e-23)
(0.7383 -0.06246 2.428e-23)
(0.4954 -0.1386 0)
(0.3977 -0.1223 5.789e-22)
(0.5225 -0.1341 0)
(0.3026 -0.09953 1.188e-22)
(0.8491 -0.08376 2.354e-22)
(0.454 -0.1281 -6.33e-22)
(0.3781 -0.124 -3.581e-22)
(0.3276 -0.1108 0)
(0.3859 -0.1199 0)
(0.811 0.0323 1.555e-23)
(0.4138 -0.124 0)
(0.3422 -0.1131 0)
(0.7187 -0.05278 1.939e-23)
(0.7122 -0.05702 -9.951e-23)
(0.9324 0.005822 -5.571e-22)
(0.8083 -0.104 0)
(0.3194 -0.1004 1.343e-22)
(0.7325 -0.09829 -1.463e-22)
(0.8265 -0.03595 0)
(0.7698 0.008237 8.769e-23)
(0.5048 -0.1336 4.502e-22)
(0.7223 -0.05983 0)
(0.2629 -0.07014 1.07e-22)
(0.9557 0.004612 0)
(0.758 -0.1158 2.031e-21)
(0.2737 -0.07263 0)
(0.7575 -0.1013 0)
(0.3016 -0.1062 2.439e-22)
(0.7953 -0.0544 -4.138e-21)
(1.022 0.07707 0)
(1.044 0.1166 -4.169e-22)
(0.7012 0.06086 -1.685e-21)
(0.5504 -0.1336 8.687e-22)
(0.3029 -0.1059 0)
(0.5 -0.1385 -5.16e-22)
(0.6649 -0.054 1.305e-22)
(0.7049 -0.09792 2.186e-22)
(0.7401 -0.09108 1.586e-22)
(0.4941 -0.05074 2.131e-21)
(0.569 -0.139 0)
(0.3585 -0.1159 -9.739e-23)
(0.554 -0.1281 -1.11e-21)
(0.228 -0.08288 8.673e-21)
(0.3541 -0.02477 -9.437e-22)
(0.6772 -0.1285 -8.317e-25)
(0.3239 -0.11 0)
(0.767 -0.07272 -1.651e-22)
(0.5324 -0.1325 0)
(0.4688 -0.1313 0)
(0.4794 -0.1297 -5.155e-22)
(0.6126 -0.136 0)
(0.8236 0.04546 0)
(0.2273 -0.07875 0)
(0.4717 -0.1295 -3.314e-22)
(0.2769 -0.0992 0)
(0.8652 -0.06105 0)
(0.9814 0.1539 1.037e-22)
(0.2083 -0.07438 -1.036e-22)
(0.6776 -0.1266 6.532e-22)
(1.011 0.0544 -5.125e-22)
(0.8199 -0.04957 0)
(0.2661 -0.09477 -3.316e-22)
(0.4636 -0.03129 0)
(0.3616 -0.1164 -5.096e-22)
(0.5528 -0.1299 1.027e-21)
(0.5897 0.02334 0)
(0.9737 0.03553 0)
(0.9395 -0.04164 1.973e-21)
(0.8789 -0.052 -1.052e-21)
(0.3721 -0.118 0)
(0.1712 -0.01047 -1.452e-22)
(0.6659 -0.1235 0)
(0.4771 -0.1329 4.655e-22)
(0.4595 -0.1289 -1.82e-22)
(0.3049 -0.1066 0)
(0.3168 -0.1092 -1.798e-22)
(0.3162 -0.1089 0)
(0.3664 -0.1201 0)
(0.7844 -0.06257 0)
(0.9626 0.001634 5.805e-23)
(0.8398 -0.06722 2.049e-22)
(0.7304 -0.07467 -9.021e-23)
(0.715 -0.05425 2.32e-23)
(0.4354 -0.1285 0)
(0.3872 -0.1214 0)
(0.3371 -0.1124 -1.254e-23)
(0.1499 -0.03603 -5.265e-23)
(0.2352 -0.08424 -2.362e-22)
(0.4563 -0.1286 0)
(0.4054 -0.1223 -2.857e-22)
(0.3383 -0.1137 0)
(0.5213 -0.1342 0)
(0.3269 -0.1105 -2.73e-22)
(0.778 -0.08394 2.592e-22)
(0.4027 -0.1233 -2.408e-25)
(0.8798 -0.05468 7.257e-23)
(0.708 -0.05505 -3.813e-23)
(0.3095 -0.1085 0)
(0.7497 -0.1181 0)
(0.6247 -0.1107 -5.948e-22)
(0.7903 -0.06926 1.715e-23)
(0.405 -0.1273 2.862e-22)
(0.3429 -0.1132 3.605e-22)
(0.3423 -0.1204 5.763e-23)
(0.2675 -0.09559 -5.808e-23)
(0.4302 -0.1276 4.073e-23)
(0.6903 -0.08936 -3.6e-22)
(0.3571 -0.0931 -4.609e-21)
(0.7667 -0.07636 0)
(0.5689 -0.1342 -1.665e-21)
(0.2146 -0.07745 -2.199e-22)
(0.2653 -0.05466 -4.854e-23)
(0.3568 -0.1155 -6.731e-22)
(0.3635 -0.1169 -1.151e-21)
(0.3875 -0.04979 0)
(0.3623 -0.1168 -1.133e-22)
(0.2672 -0.09336 0)
(0.3655 -0.1169 -5.12e-22)
(0.3113 -0.1091 -1.721e-22)
(0.7146 -0.09631 2.086e-22)
(0.7166 -0.07564 3.616e-21)
(0.5564 -0.1401 0)
(0.4084 -0.124 -2.457e-23)
(0.6723 -0.122 0)
(0.3296 -0.1111 0)
(0.3734 -0.1183 0)
(0.6766 -0.04894 -5.754e-23)
(0.3668 -0.117 8.005e-22)
(0.2779 -0.09181 -5.906e-21)
(0.6789 -0.0939 -6.379e-22)
(0.9784 0.01463 6.782e-22)
(0.5182 -0.1403 -4.775e-22)
(0.5997 -0.1201 -1.55e-21)
(0.2884 -0.09022 -9.806e-23)
(0.5183 -0.1331 2.531e-22)
(0.7298 -0.08444 1.636e-23)
(0.5717 -0.1238 -1.531e-21)
(0.568 -0.1333 0)
(0.3034 -0.1072 0)
(0.2615 -0.06918 -1.017e-22)
(0.7958 -0.06419 0)
(0.6103 -0.1157 0)
(0.5886 -0.1249 -1.083e-21)
(0.7988 -0.08312 -6.62e-22)
(0.2882 -0.09831 -3.412e-23)
(0.6964 -0.1261 6.877e-22)
(0.4461 0.03367 0)
(0.5535 -0.1324 2.145e-22)
(0.4478 -0.1296 -4.212e-22)
(0.5141 -0.1338 1.02e-22)
(0.5107 -0.1343 0)
(0.2734 -0.09407 -4.016e-23)
(0.2485 -0.08885 5.487e-22)
(0.4441 -0.1266 4.253e-22)
(0.666 -0.04886 -2.289e-23)
(0.4326 -0.1267 0)
(0.6328 -0.1119 -4.337e-22)
(0.2512 -0.07651 2.478e-23)
(0.6535 -0.1076 0)
(0.2037 -0.08669 0)
(0.3922 -0.1224 0)
(0.4435 -0.1297 0)
(0.5379 -0.1325 -8.916e-22)
(0.5134 -0.1304 0)
(0.7127 -0.05631 0)
(0.4189 -0.03214 -5.625e-22)
(0.3321 -0.1125 -1.672e-22)
(0.7286 -0.05469 -9.294e-23)
(0.4141 0.02779 1.243e-22)
(0.3099 -0.1057 -4.801e-23)
(0.3756 -0.1187 0)
(0.8295 -0.03491 3.415e-22)
(0.6659 -0.1277 0)
(0.2358 -0.08553 0)
(0.76 -0.101 5.277e-22)
(0.6632 -0.04544 0)
(0.378 -0.1188 4.514e-23)
(0.3944 -0.08675 0)
(0.3161 -0.1086 -2.457e-22)
(1.053 0.1484 1.156e-22)
(0.798 -0.05083 4.663e-23)
(-0.008904 0.01245 1.047e-22)
(0.3312 -0.1116 -8.897e-23)
(0.1136 -0.04008 -4.075e-22)
(0.5715 -0.139 9.015e-22)
(0.3142 -0.1067 -1.9e-21)
(0.4331 -0.1253 -6.63e-22)
(0.7891 -0.08055 -8.808e-22)
(0.7284 -0.06321 0)
(0.6626 -0.1012 1.038e-21)
(0.6247 -0.12 0)
(0.8941 -0.007279 0)
(0.4282 -0.1268 0)
(0.7544 -0.05988 0)
(0.3831 -0.1243 0)
(0.2477 -0.08624 0)
(0.3596 -0.1178 1.626e-22)
(0.3531 -0.1188 0)
(0.9528 0.02969 2.719e-22)
(0.2369 -0.0822 7.794e-21)
(0.9792 0.03249 0)
(0.43 -0.1256 0)
(0.3367 -0.1121 -1.5e-22)
(0.3809 -0.1192 -1.732e-22)
(0.4335 -0.1257 0)
(0.7352 -0.08706 4.145e-24)
(0.9425 0.01851 -1.291e-21)
(0.3229 -0.1081 -9.364e-22)
(0.7264 -0.06131 0)
(0.2797 -0.09813 1.4e-22)
(0.589 -0.1313 -1.238e-22)
(0.8902 -0.03475 3.859e-22)
(0.5264 -0.1348 6.695e-24)
(0.3155 -0.1087 -2.556e-23)
(0.3082 -0.1075 0)
(0.3565 -0.1155 -2.433e-22)
(1.067 0.1615 4.366e-23)
(0.6122 -0.1203 -8.258e-22)
(0.5647 -0.1356 -6.049e-22)
(0.6314 0.003741 -2.586e-21)
(0.3519 -0.1148 3.128e-22)
(0.2961 -0.1048 0)
(0.3374 -0.07031 1.06e-22)
(0.4457 -0.1331 0)
(0.9328 -0.03765 -5.447e-22)
(0.4857 -0.1324 -8.473e-22)
(0.5878 -0.132 0)
(0.9451 -0.01472 3.709e-22)
(0.3182 -0.1098 0)
(0.3809 -0.12 -5.346e-22)
(0.722 -0.04921 -1.43e-22)
(0.4626 -0.1287 -2.26e-22)
(0.8342 -0.0787 -1.054e-21)
(0.522 -0.1319 1.424e-21)
(0.3896 -0.1207 5.431e-22)
(0.7705 -0.06324 9.971e-24)
(0.6305 -0.1255 -4.472e-22)
(0.6548 -0.1302 -2.615e-21)
(0.5384 -0.1353 0)
(0.3813 -0.1228 3.424e-24)
(0.5391 -0.1324 0)
(0.9229 -0.0429 1.916e-21)
(0.2654 -0.08589 1.056e-23)
(0.3571 -0.1156 0)
(0.5622 -0.0484 0)
(0.7347 -0.05692 -6.942e-23)
(0.4013 -0.1235 2.795e-21)
(0.2907 -0.1033 5.366e-23)
(0.3883 -0.1206 -4.04e-22)
(0.6639 -0.1005 -7.76e-22)
(0.1216 0.1652 -1.252e-22)
(1.019 0.06945 2.322e-22)
(0.4246 -0.1264 -1.125e-22)
(0.9656 0.004811 -2.274e-22)
(0.5231 -0.1347 6.718e-22)
(0.7149 -0.05664 -6.792e-23)
(0.4279 -0.1271 -1.547e-22)
(0.4073 -0.1236 -4.514e-22)
(0.3626 -0.1169 -1.986e-22)
(0.3898 -0.1255 -6.15e-22)
(0.3825 -0.1247 0)
(0.6953 -0.04186 -1.386e-22)
(0.3448 -0.1136 -3.184e-22)
(0.758 -0.06599 0)
(1.05 0.1379 0)
(0.5875 -0.1317 3.504e-22)
(0.748 -0.064 0)
(0.6672 0.08427 -3.44e-22)
(0.4812 -0.1325 2.486e-22)
(0.4082 -0.124 0)
(0.7433 -0.07078 -1.689e-23)
(0.5993 -0.1317 -6.42e-22)
(0.3735 -0.1195 -7.008e-23)
(0.3097 -0.1086 0)
(0.464 -0.1287 0)
(0.3552 -0.1166 0)
(0.998 0.03647 2.874e-22)
(0.3268 -0.111 1.929e-22)
(0.2578 -0.05196 0)
(0.8639 -0.07922 0)
(0.4348 -0.1285 0)
(0.5253 -0.1349 1.593e-22)
(0.1703 -0.06095 -4.761e-22)
(0.3936 -0.1211 -1.068e-24)
(0.004225 0.005482 -2.786e-25)
(0.3354 -0.02415 2.47e-22)
(0.787 -0.1076 -1.921e-21)
(0.6866 -0.04911 1.158e-22)
(0.3193 -0.09939 -6.73e-23)
(0.3344 -0.1118 6.772e-25)
(0.7771 -0.09077 0)
(0.7149 -0.08471 1.491e-22)
(0.8225 -0.05237 -4.03e-22)
(0.4637 -0.1355 3.707e-22)
(0.6628 0.07865 1.698e-21)
(0.5163 -0.1347 -1.963e-22)
(0.313 -0.1091 3.092e-22)
(0.6767 -0.1186 0)
(0.6709 -0.1282 -1.728e-21)
(0.4519 -0.127 -3.574e-22)
(1.006 0.06647 1.963e-23)
(0.5176 -0.134 -1.298e-22)
(0.7937 -0.08554 2.972e-23)
(0.4757 -0.1318 0)
(0.4204 -0.1239 1.062e-21)
(0.2883 -0.08751 0)
(0.2956 -0.1023 -5.514e-23)
(0.7411 -0.07189 0)
(0.3063 -0.1059 0)
(0.8175 -0.07973 -5.542e-22)
(0.615 -0.1013 3.32e-21)
(0.3459 -0.1152 0)
(0.4645 -0.1313 0)
(0.3932 -0.1226 -8.505e-23)
(0.8371 -0.09207 -3.518e-21)
(0.5188 -0.1347 0)
(0.7665 -0.003933 -8.776e-23)
(0.9726 0.06128 5.556e-22)
(0.2288 -0.07898 5.868e-21)
(0.3202 -0.1102 1.352e-22)
(0.8796 -0.05179 -4.102e-23)
(0.2195 0.09952 -9.064e-23)
(0.5127 -0.1315 0)
(0.6031 -0.1339 3.129e-22)
(0.2948 -0.1046 2.143e-22)
(0.876 -0.04603 3.018e-22)
(0.5136 -0.004478 1.132e-21)
(0.4725 -0.1313 -1.389e-21)
(1.025 0.1458 0)
(0.7093 -0.05374 -2.71e-23)
(0.6625 0.08065 1.771e-21)
(0.3296 -0.1109 0)
(0.3651 -0.118 1.676e-22)
(1.008 0.06189 -4.621e-22)
(0.7173 -0.05548 3.309e-23)
(0.8636 -0.07929 -2.438e-21)
(0.4728 -0.1301 -4.174e-22)
(0.4912 -0.1252 -4.585e-21)
(0.6132 -0.1204 7.527e-22)
(0.3585 -0.1158 7.311e-22)
(0.4725 -0.1297 0)
(0.2126 -0.0783 0)
(0.2755 -0.09565 0)
(0.402 -0.122 4.451e-22)
(0.2973 -0.1055 0)
(0.2724 -0.09689 0)
(0.6927 -0.05037 6.445e-23)
(0.7 -0.08861 4.595e-22)
(0.8441 -0.03583 2.209e-22)
(0.5522 -0.1342 1.5e-22)
(0.3786 -0.1189 -1.644e-22)
(0.5385 -0.1325 -9.443e-22)
(0.4534 0.03095 -3.285e-22)
(0.9645 0.08476 -1.021e-22)
(0.7509 -0.08009 1.359e-22)
(0.3162 -0.1049 -4.543e-21)
(0.3906 -0.1212 0)
(0.7312 -0.06128 0)
(0.7305 -0.08339 -7.866e-26)
(0.3277 -0.0426 4.289e-22)
(0.5071 -0.1343 -4.184e-22)
(0.7628 -0.06229 2.732e-23)
(0.3511 -0.1148 0)
(0.5285 -0.132 0)
(0.7583 -0.0664 0)
(0.04469 -0.02423 -8.073e-23)
(0.933 -0.03357 0)
(0.9028 -0.03688 0)
(0.8602 -0.04742 0)
(0.3092 0.082 3.593e-22)
(0.379 -0.1194 -9.828e-22)
(0.5217 -0.1328 -1.929e-21)
(0.8894 -0.05534 0)
(0.5739 -0.1354 0)
(0.4432 -0.1337 0)
(0.8452 -0.02733 8.27e-23)
(0.308 -0.1062 -5.508e-23)
(0.318 -0.1109 -9.652e-23)
(0.6445 -0.113 -5.132e-22)
(0.8229 -0.07097 -2.969e-22)
(0.8421 -0.08818 -1.336e-21)
(0.9636 0.01597 1.254e-21)
(0.5024 -0.1331 -7.696e-24)
(0.2761 -0.0974 0)
(0.6095 -0.1361 2.177e-22)
(0.8788 -0.01807 0)
(0.3521 -0.1149 1.306e-22)
(0.3473 -0.114 3.861e-22)
(0.7406 -0.07906 -1.44e-22)
(0.5411 -0.133 -3.475e-22)
(0.5252 -0.1332 2.819e-22)
(1.022 0.0679 0)
(0.3027 -0.1033 -3.375e-23)
(0.8381 -0.04766 3.063e-24)
(0.3325 -0.1133 0)
(0.8853 -0.06737 2.35e-21)
(0.704 -0.08667 -2.12e-22)
(1.064 0.1711 2.28e-22)
(0.3243 -0.09682 5.367e-21)
(0.3387 -0.1126 -1.349e-22)
(0.6758 -0.05282 -3.276e-23)
(0.5845 -0.132 1.206e-23)
(0.9949 0.03112 -5.297e-22)
(0.421 -0.1254 -1.802e-22)
(0.3246 -0.09415 -1.06e-20)
(0.3011 -0.1047 -2.045e-23)
(0.7203 -0.1039 1.26e-22)
(0.3367 -0.1148 1.09e-22)
(0.6904 -0.05299 -9.285e-23)
(0.63 -0.1123 -9.236e-22)
(0.8679 -0.05779 -6.871e-22)
(0.675 -0.02553 0)
(0.2976 -0.03132 -1.508e-23)
(0.3002 -0.1045 -4.38e-23)
(0.5916 -0.1249 4.559e-22)
(0.362 -0.1183 2.081e-25)
(0.326 -0.1125 0)
(0.4697 -0.1324 7.166e-22)
(0.2982 -0.1054 -3.688e-23)
(0.2769 -0.08501 7.668e-23)
(0.3425 -0.1115 -8.326e-21)
(0.4515 -0.1285 0)
(0.455 -0.1292 7.683e-25)
(0.9713 0.1321 -4.252e-23)
(0.9751 0.05864 -5.579e-22)
(0.2942 -0.03678 1.147e-22)
(0.5168 -0.1366 3.113e-22)
(0.8051 -0.07804 4.302e-22)
(0.7674 -0.09302 0)
(0.4828 -0.1306 6.158e-22)
(0.5623 -0.1297 -1.013e-21)
(0.2713 -0.09671 0)
(0.6007 -0.1317 7.561e-22)
(1.05 0.1385 1.486e-22)
(0.3646 -0.1169 3.509e-22)
(0.3924 -0.1223 -9.812e-23)
(0.6647 -0.101 1.078e-21)
(0.3484 -0.09416 5.727e-22)
(0.3591 -0.12 -2.28e-22)
(0.7375 -0.03113 -7.997e-23)
(0.346 -0.115 1.905e-22)
(0.394 -0.1268 1.686e-22)
(0.9832 0.04328 -4.915e-22)
(0.4674 -0.1133 1.191e-21)
(0.3464 -0.1166 -2.248e-22)
(0.4506 -0.03676 5.808e-22)
(0.3405 -0.1129 -2.042e-22)
(0.8131 -0.09847 2.648e-22)
(0.8588 -0.05245 1.613e-22)
(0.31 -0.1084 -1.96e-22)
(0.7377 -0.1106 4.691e-22)
(0.2785 -0.09005 5.895e-21)
(0.2588 -0.09259 -3.025e-22)
(0.4676 -0.0383 5.429e-22)
(0.4509 -0.1272 6.787e-22)
(0.2865 -0.1024 -3.493e-23)
(0.5371 -0.1402 0)
(0.6959 0.008948 6.936e-22)
(0.6246 -0.02477 7.508e-23)
(0.7603 -0.002672 -2.681e-21)
(0.8819 -0.0724 1.032e-21)
(0.5904 0.1191 0)
(0.3326 -0.1118 0)
(0.4697 -0.1292 5.084e-22)
(0.3426 -0.1143 2.287e-22)
(0.6594 -0.04694 0)
(0.3896 -0.1257 0)
(0.3202 -0.1099 0)
(0.8548 -0.08494 8.893e-22)
(0.7524 -0.07213 -5.266e-23)
(0.5067 -0.1343 -7.364e-22)
(0.7171 -0.09047 -1.123e-22)
(0.2149 0.08462 -1.641e-22)
(0.4132 -0.1293 -1.092e-21)
(0.6041 -0.1233 0)
(0.5363 -0.1245 1.302e-21)
(0.7532 -0.1057 0)
(0.4693 -0.1321 -2.139e-21)
(0.2735 -0.09675 1.303e-22)
(0.4177 -0.1242 -1.893e-22)
(0.3771 -0.1188 0)
(0.4118 -0.1233 0)
(0.5937 -0.1197 0)
(0.3163 -0.1095 1.425e-22)
(0.3512 -0.1144 8.101e-22)
(0.3083 -0.1083 9.929e-23)
(0.5384 -0.1402 4.555e-22)
(0.6459 -0.132 0)
(0.9386 -0.0304 0)
(0.7535 -0.1033 -1.325e-21)
(0.3263 -0.1109 8.183e-23)
(0.32 -0.07161 2.963e-22)
(0.3178 -0.1104 -2.285e-22)
(0.3693 -0.1223 -4.038e-22)
(0.6626 -0.125 3.399e-22)
(0.7999 -0.1047 3.071e-21)
(0.2988 -0.09438 0)
(0.3273 -0.1102 0)
(0.3513 -0.117 8.328e-23)
(0.4977 -0.1308 0)
(0.7357 -0.05798 -1.294e-22)
(0.2841 -0.1011 9.303e-23)
(0.3749 -0.123 -4.429e-22)
(0.9837 0.02027 0)
(0.7557 -0.06626 0)
(0.3181 -0.1108 3.978e-22)
(0.7364 -0.06435 -2.508e-23)
(0.6643 -0.1294 -2.68e-21)
(1.003 0.05805 6.468e-22)
(0.8047 -0.07708 -2.124e-22)
(0.6489 -0.04736 2.817e-22)
(0.4764 -0.1294 -2.623e-22)
(0.7324 -0.06089 0)
(0.4869 -0.13 1.451e-22)
(0.8219 -0.02319 2.773e-22)
(0.684 0.08551 2.531e-21)
(0.5999 -0.1336 1.748e-22)
(0.3433 -0.1133 1.02e-21)
(0.4022 -0.1237 -7.952e-22)
(0.6351 -0.1133 5.881e-22)
(0.3111 -0.1085 -2.08e-22)
(0.6813 -0.1272 1.311e-21)
(0.3162 -0.1096 -1.749e-22)
(0.6962 -0.1091 0)
(0.5437 -0.1344 -5.584e-22)
(0.2949 -0.1047 3.065e-22)
(0.7353 -0.0863 -7.506e-23)
(0.7532 -0.06357 0)
(0.6108 -0.1159 -3.942e-22)
(0.5503 -0.1334 -2.832e-22)
(1.037 0.1326 3.982e-22)
(0.3112 -0.1022 0)
(0.3635 -0.1171 9.096e-22)
(0.3192 -0.1096 -3.646e-22)
(0.6875 -0.05246 2.304e-22)
(0.7276 -0.09534 -1.06e-22)
(0.5272 -0.1346 -5.853e-22)
(0.3307 -0.1136 -1.199e-22)
(0.5225 -0.1346 -3.03e-22)
(0.6842 -0.09144 3.331e-22)
(0.633 -0.122 6.608e-22)
(0.3693 -0.1176 0)
(0.4318 -0.1252 2.278e-22)
(0.5422 -0.1347 9.538e-22)
(0.2968 -0.1034 -5.625e-23)
(0.3117 -0.1091 -2.427e-22)
(0.2996 -0.1062 4.817e-23)
(0.3369 -0.1124 4.792e-22)
(0.7942 -0.08102 6.993e-23)
(0.3573 -0.1187 2.889e-22)
(0.4533 -0.1299 -5.829e-23)
(0.4329 -0.1279 -8.847e-22)
(0.4371 -0.1267 0)
(0.7093 -0.0564 -2.932e-23)
(0.6304 -0.1242 0)
(0.7197 -0.05818 -3.851e-23)
(0.9768 0.03828 -4.95e-22)
(0.3294 -0.1133 2.842e-22)
(0.7898 -0.05387 -1.827e-22)
(0.5438 -0.0547 3.347e-21)
(0.4288 -0.1269 0)
(0.3898 -0.1204 -1.981e-22)
(0.9116 -0.05424 -3.539e-22)
(0.6858 -0.1197 -1.103e-21)
(0.2514 -0.07734 2.501e-23)
(0.3651 -0.1207 -4.239e-22)
(0.9266 -0.04151 2.455e-21)
(0.8959 -0.04144 -5.004e-22)
(0.7506 -0.0918 0)
(0.3697 -0.06169 -6.114e-22)
(0.4207 -0.1312 0)
(0.3806 -0.08396 0)
(0.3087 -0.1068 0)
(0.6457 0.0235 -4.663e-22)
(0.3472 -0.1141 -2.092e-22)
(0.6348 0.01909 3.588e-22)
(0.2969 -0.1051 -1.619e-21)
(0.4811 -0.1331 0)
(0.7408 -0.09032 -1.106e-22)
(0.7334 -0.07249 -1.401e-22)
(0.7564 -0.1004 1.598e-23)
(0.9116 -0.04974 0)
(0.2647 -0.09471 -1.453e-22)
(0.5194 -0.1398 4.749e-22)
(0.9322 -0.03886 1.131e-21)
(0.2444 -0.08328 0)
(0.7868 -0.1068 -8.803e-22)
(0.3155 -0.1084 -7.418e-23)
(0.7876 -0.1089 0)
(0.6737 -0.1219 1.98e-22)
(0.7906 -0.084 -1.352e-21)
(0.3972 -0.1225 2.851e-22)
(0.4384 -0.1281 0)
(0.3434 -0.1146 -3.06e-22)
(0.2351 -0.06227 -8.789e-23)
(0.537 -0.1354 2.814e-22)
(0.4261 -0.1266 0)
(0.2156 -0.07839 -2.819e-21)
(0.5267 -0.1326 0)
(0.3104 -0.1048 3.657e-21)
(0.7802 0.01585 1.138e-22)
(0.4259 -0.1272 0)
(0.527 -0.1333 -5.554e-22)
(0.2767 -0.09892 0)
(0.3684 -0.1164 0)
(0.4736 -0.1306 -1.103e-21)
(0.5381 -0.1351 4.865e-22)
(0.4714 -0.1365 0)
(0.518 -0.1327 -5.366e-22)
(0.2864 -0.09987 4.945e-23)
(0.9556 0.01467 8.634e-22)
(0.7977 -0.05743 2.132e-22)
(0.6579 -0.04952 0)
(0.4551 -0.1279 6.304e-23)
(0.6273 -0.1116 0)
(0.4656 -0.1308 -8.324e-23)
(0.6372 -0.1298 2.028e-21)
(0.5563 -0.1346 -6.696e-22)
(0.3454 -0.1138 6.616e-23)
(0.2885 -0.1024 -1.641e-22)
(0.4233 -0.1261 4.504e-22)
(0.337 -0.1124 7.058e-22)
(0.2172 -0.07565 -3.108e-21)
(0.7431 -0.1012 5.416e-23)
(0.977 0.01594 3.853e-22)
(0.6066 -0.1176 0)
(0.3616 -0.1181 2.966e-22)
(0.5703 -0.1271 7.201e-22)
(0.7791 -0.1103 4.722e-22)
(0.653 -0.111 -3.941e-22)
(0.1458 -0.0654 -7.003e-23)
(0.4824 -0.1296 0)
(0.9832 0.04014 4.986e-22)
(0.5721 -0.1286 -5.508e-22)
(0.4972 -0.1314 -3.507e-22)
(0.7037 -0.08775 3.632e-22)
(0.6553 0.02363 -2.912e-21)
(0.4036 -0.1223 2.788e-22)
(0.7853 -0.07121 -5.526e-23)
(0.9941 0.03041 -3.088e-22)
(0.7598 -0.0671 0)
(0.7549 -0.1026 -2.453e-21)
(0.7012 -0.08647 -2.428e-22)
(0.7477 -0.07736 9.079e-23)
(0.8488 -0.07446 -5.108e-22)
(0.7478 -0.06519 -1.551e-23)
(0.2905 -0.105 2.659e-21)
(0.7297 -0.05674 -3.611e-23)
(0.3682 -0.1184 0)
(0.6981 -0.1243 -1.618e-21)
(0.3214 -0.1115 1.452e-22)
(0.3164 -0.09269 0)
(0.3078 -0.108 0)
(0.577 -0.1336 -2.884e-22)
(0.9032 -0.04002 -1.35e-21)
(0.5564 -0.133 0)
(0.3443 -0.1138 1.832e-22)
(0.2604 -0.08881 -2.65e-25)
(0.7705 -0.09264 -8.783e-22)
(0.2718 -0.0964 7.126e-26)
(0.281 -0.08052 -3.572e-23)
(0.6912 -0.1014 5.981e-22)
(0.7529 -0.06475 -1.028e-22)
(0.2168 -0.07801 0)
(0.4479 -0.1289 0)
(0.3369 -0.1127 5.65e-23)
(0.7617 -0.09779 0)
(0.7289 -0.09452 -2.937e-22)
(0.3626 -0.1166 0)
(0.5739 -0.1351 5.489e-22)
(0.3091 -0.1087 2.014e-23)
(0.0916 0.1479 0)
(0.974 0.06112 0)
(0.3794 -0.1193 -9.11e-22)
(0.6486 0.01816 0)
(0.3456 -0.1139 4.684e-22)
(0.3806 -0.1197 0)
(0.9229 -0.04262 0)
(0.2721 -0.08847 6.407e-23)
(0.4256 -0.1267 0)
(0.5517 -0.1354 -6.953e-22)
(0.8011 -0.0775 0)
(0.6122 -0.1318 4.273e-22)
(0.3985 -0.1261 5.782e-22)
(0.3257 -0.06908 -1.454e-22)
(0.3887 -0.1205 -7.846e-25)
(0.6577 -0.03919 1.938e-22)
(0.8703 -0.07726 0)
(0.4341 -0.1254 7.414e-23)
(0.7205 -0.05962 1.014e-22)
(0.3793 -0.119 -1.73e-22)
(0.3005 -0.1066 -8.172e-23)
(0.3653 -0.1208 4.732e-22)
(0.7944 -0.07986 7.474e-22)
(0.9078 -0.009939 0)
(0.7646 -0.09843 1.458e-21)
(0.5825 -0.03948 0)
(0.5883 -0.1324 7.835e-22)
(0.6487 -0.1317 0)
(0.5782 -0.1324 4.929e-23)
(0.1937 -0.06629 0)
(0.7828 -0.09115 8.353e-22)
(0.7546 -0.06354 4.744e-23)
(0.6112 -0.05344 -2.117e-22)
(0.8119 -0.04152 -8.38e-23)
(0.638 -0.04946 6.397e-23)
(0.3774 -0.1187 -2.462e-22)
(0.5423 -0.1343 0)
(0.9794 0.01584 -3.202e-25)
(0.508 -0.1334 9.608e-22)
(0.5224 -0.133 -6.713e-22)
(0.8547 -0.08344 0)
(0.2863 -0.07327 -7.342e-24)
(0.7242 -0.05682 -2.214e-23)
(0.5529 -0.1284 7.821e-22)
(0.5513 -0.1357 5.101e-22)
(0.271 -0.09664 0)
(0.7328 -0.0945 2.058e-22)
(0.4246 -0.1249 4.336e-22)
(0.6922 -0.1001 4.58e-22)
(0.3073 -0.1077 1.378e-22)
(0.3685 -0.1174 -1.91e-22)
(0.7782 -0.06468 -1.471e-22)
(0.7472 -0.07864 -1.79e-22)
(0.3683 -0.1172 -6.292e-22)
(0.7351 -0.0629 1.479e-23)
(0.2417 -0.07985 0)
(0.5651 -0.0384 0)
(0.4099 -0.01973 6.669e-23)
(0.3662 -0.1174 8.667e-23)
(0.5615 -0.1237 2.99e-21)
(0.7389 -0.02801 -6.594e-23)
(0.4235 0.03726 5.151e-22)
(0.3201 -0.1091 4.461e-22)
(0.9284 -0.01097 5.979e-22)
(0.4339 -0.1259 0)
(0.3128 -0.1092 -1.391e-22)
(0.2183 -0.07702 -5.646e-21)
(0.5243 -0.1326 3.96e-22)
(0.5991 -0.1341 3.4e-22)
(0.905 -0.01921 0)
(0.3731 -0.118 3.367e-22)
(0.2951 -0.1024 1.124e-22)
(0.7763 -0.0682 -4.534e-23)
(0.3231 -0.112 -1.667e-22)
(0.4375 -0.08698 0)
(0.3399 -0.1129 -1.329e-23)
(0.8977 -0.06236 0)
(0.6294 -0.1104 -1.723e-21)
(0.7368 -0.1011 0)
(0.2415 -0.08275 5.378e-21)
(0.9988 0.04589 -4.677e-22)
(0.3517 -0.1153 0)
(0.4814 -0.1336 0)
(0.4041 -0.124 1.217e-21)
(0.5269 -0.135 0)
(0.3193 -0.111 1.497e-22)
(0.7434 0.1725 6.695e-23)
(0.2478 -0.08131 0)
(0.343 -0.1131 5.791e-22)
(0.74 -0.09772 1.322e-22)
(0.5801 -0.1325 0)
(0.5219 -0.1313 0)
(0.5156 -0.1267 8.976e-21)
(0.3849 -0.1206 1.266e-22)
(0.3016 -0.106 1.075e-22)
(0.7147 0.01518 0)
(0.32 -0.0916 1.738e-24)
(0.7643 -0.06426 -3.905e-23)
(0.6757 -0.1104 0)
(0.8044 -0.1048 -1.32e-21)
(0.4539 -0.1296 -8.819e-22)
(1.041 0.1384 0)
(0.2225 -0.08069 1.238e-21)
(0.3836 -0.1249 0)
(0.1819 -0.06847 0)
(0.8593 -0.0826 3.118e-21)
(0.9242 -0.05338 4.853e-21)
(0.2927 -0.08777 1.007e-20)
(0.3506 -0.115 7.44e-22)
(0.3667 -0.117 0)