/*--------------------------------*- C++ -*----------------------------------*\
  =========                 |
  \\      /  F ield         | OpenFOAM: The Open Source CFD Toolbox
   \\    /   O peration     | Website:  https://openfoam.org
    \\  /    A nd           | Version:  8
     \\/     M anipulation  |
\*---------------------------------------------------------------------------*/
FoamFile
{
    version     2.0;
    format      ascii;
    class       volScalarField;
    location    "30";
    object      p;
}
// * * * * * * * * * * * * * * * * * * * * * * * * * * * * * * * * * * * * * //

dimensions      [0 2 -2 0 0 0 0];

internalField   nonuniform List<scalar> 
63564
(
-0.0904
-0.1168
-0.1203
-0.1238
-0.125
-0.602
-0.08948
-0.126
-0.04578
-0.1074
-0.05522
-0.09914
-0.1039
-0.3957
-0.07724
-0.08065
-0.6122
-0.6437
-0.01064
-0.4382
-0.1778
-0.4376
-0.06467
-0.1004
-0.08472
-0.05274
-0.4292
-0.1815
0.02175
-0.05394
-0.5322
-0.3867
-0.392
-0.2156
0.01718
-0.5919
-0.2146
0.01918
0.0195
0.02121
-0.628
-0.06484
-0.6399
-0.2282
-0.09891
-0.4367
-0.02878
-0.071
-0.2214
-0.6166
-0.3073
-0.3966
-0.4755
0.01491
-0.2712
-0.2225
-0.2216
-0.2716
-0.6256
-0.4354
-0.1188
-0.4142
-0.2577
-0.5682
-0.2953
-0.4363
-0.2285
-0.1073
-0.2958
-0.1038
-0.4019
-0.1311
-0.4974
-0.4259
-0.5304
-0.4356
-0.4357
-0.07437
-0.1814
0.02349
0.0003922
-0.2942
-0.5914
-0.1915
-0.08558
-0.4231
-0.074
-0.5675
-0.06154
-0.07621
-0.2144
-0.5317
-0.5488
-0.09639
-0.1069
-0.3102
-0.1248
-0.1777
-0.129
0.005251
-0.1837
-0.07581
-0.3045
-0.1198
-0.0969
-0.3987
-0.5326
0.01985
-0.09787
-0.439
-0.1225
-0.2575
-0.4045
-0.06761
-0.1313
-0.403
-0.2944
-0.03331
-0.522
-0.5474
-0.6006
-0.1145
-0.5016
-0.1189
-0.6072
-0.1208
-0.3993
-0.4246
-0.3322
-0.3006
-0.5425
-0.5933
-0.254
-0.4806
-0.1664
-0.5214
0.01566
-0.5303
-0.4358
-0.11
-0.345
-0.4339
0.02203
-0.04599
-0.1158
-0.4846
0.0173
-0.2615
-0.07465
-0.4503
-0.2874
0.008589
-0.4907
-0.011
-0.02605
-0.2144
-0.2148
-0.3594
-0.1315
-0.5225
-0.5313
-0.4317
-0.4715
-0.5846
-0.1379
-0.09105
-0.5309
-0.4182
-0.4239
-0.02333
-0.156
0.01769
-0.1047
0.01081
0.02462
-0.5016
0.0145
-0.2412
-0.1212
-0.2524
-0.233
-0.0309
-0.06082
-0.3148
-0.3598
-0.1054
0.01207
-0.008711
0.008813
-0.4216
-0.06237
-0.2209
-0.1898
-0.476
-0.3326
-0.4723
-0.1904
-0.1861
-0.317
-0.2569
-0.6
-0.3093
-0.09342
-0.1891
-0.5368
-0.4508
0.02154
-0.08907
0.0151
-0.07043
-0.3553
-0.5169
-0.1634
-0.5996
-0.1778
-0.4499
-0.5584
-0.3581
-0.5595
-0.47
-0.3889
-0.2733
-0.3293
-0.4519
-0.3339
-0.1468
-0.508
-0.5419
-0.5348
-0.497
0.02296
-0.5393
-0.1293
-0.2868
-0.1176
-0.3105
-0.1093
-0.1182
-0.08724
-0.4183
-0.588
-0.1708
-0.2406
-0.3564
-0.2752
-0.4852
-0.06539
-0.07588
-0.08478
-0.3579
0.02251
-0.1163
-0.4691
-0.07556
-0.3086
-0.1652
-0.4603
0.02418
0.0102
-0.3893
-0.2238
-0.3151
-0.5196
-0.2167
-0.3094
-0.05993
-0.3326
-0.1307
-0.4321
-0.216
-0.1868
-0.2543
-0.1298
-0.2969
-0.6116
-0.3699
-0.2212
-0.05385
-0.3321
-0.2182
-0.3337
-0.09871
0.01392
-0.4939
-0.4224
-0.06538
-0.5217
-0.4913
-0.02069
-0.1017
-0.541
-0.498
-0.4092
-0.1218
-0.6073
-0.4351
-0.1066
-0.3515
-0.5266
-0.3078
-0.6018
-0.6004
-0.5253
-0.4218
-0.489
-0.4965
-0.09958
-0.2639
-0.5806
-0.5712
-0.2905
-0.5246
-0.08157
-0.09645
-0.1774
-0.1643
-0.3452
-0.5315
-0.5329
-0.5616
-0.06472
-0.4218
-0.1131
-0.542
-0.2628
-0.457
0.01759
-0.4077
-0.502
-0.1278
-0.1769
-0.1183
-0.004946
-0.109
-0.5386
-0.2519
-0.1398
-0.09327
-0.3868
-0.528
-0.3333
-0.1464
-0.26
-0.0547
-0.06354
-0.1462
-0.2144
-0.1007
-0.3172
-0.5341
-0.1181
-0.4964
-0.5646
-0.2208
-0.07595
-0.3722
-0.4341
-0.5209
-0.5305
-0.2857
-0.2535
-0.2198
-0.1821
0.006101
-0.3844
-0.168
-0.2238
-0.2398
-0.2902
-0.5143
-0.1289
-0.5134
-0.1158
-0.4653
-0.1054
-0.07987
-0.3208
-0.5211
-0.1377
-0.1884
-0.1844
-0.246
0.02173
-0.1278
-0.2639
-0.352
-0.07628
-0.4174
-0.2068
-0.109
-0.1752
-0.2172
-0.1088
-0.2615
-0.1823
0.001622
0.01812
-0.6101
-0.1529
-0.07261
-0.545
-0.5147
-0.0726
-0.384
0.02142
-0.06612
-0.3915
-0.3962
-0.06519
-0.08873
-0.1296
-0.6418
-0.5826
-0.597
-0.6628
-0.4148
-0.1417
-0.1162
0.003531
-0.4946
-0.5436
-0.05927
-0.1521
-0.2042
-0.4386
-0.1717
-0.03896
-0.4108
-0.1732
-0.5369
-0.4119
-0.324
-0.2168
-0.1753
-0.1143
-0.1696
-0.2936
-0.09183
-0.5948
-0.3279
-0.07884
-0.2903
-0.6207
0.01455
-0.08429
0.0215
-0.2174
-0.4354
0.007151
-0.318
-0.1505
-0.6297
-0.19
-0.06787
-0.4541
-0.3457
-0.2942
-0.145
-0.148
-0.1612
-0.146
-0.4937
-0.5945
-0.5827
-0.5205
0.008197
-0.3129
-0.1747
-0.189
-0.08251
-0.07479
-0.2906
-0.2213
-0.1537
-0.3496
-0.1795
-0.4831
-0.2753
0.02776
0.01295
-0.1071
-0.3769
-0.5131
0.0249
-0.1428
-0.1875
-0.2114
-0.08337
-0.1815
-0.5243
-0.4094
-0.5409
-0.4058
-0.08023
-0.05845
-0.2238
-0.2342
-0.05419
-0.227
-0.07819
-0.2075
-0.125
-0.5415
-0.5596
-0.131
-0.285
-0.4578
-0.1798
-0.242
-0.006561
-0.2381
-0.2765
-0.5206
-0.6218
-0.1417
-0.4883
-0.07123
-0.3242
-0.5341
-0.4613
-0.3194
-0.1127
-0.06737
0.02002
-0.4976
-0.4662
-0.5784
-0.08
-0.412
-0.02144
-0.4274
-0.3173
-0.3449
-0.3826
-0.07876
-0.08052
-0.2503
-0.001206
-0.2839
-0.5036
-0.0759
-0.5382
-0.09833
-0.2717
-0.3233
-0.3018
-0.1008
0.01706
-0.01956
-0.1516
0.005183
-0.02111
-0.1655
-0.2331
-0.5136
-0.2864
-0.1929
-0.4685
-0.0143
-0.2004
-0.4804
-0.1648
-0.6247
-0.4968
-0.1138
-0.1661
-0.0818
-0.1519
-0.1856
-0.2339
-0.5901
0.02836
-0.524
-0.09996
-0.4774
-0.2946
0.01498
-0.1397
-0.0765
-0.1571
-0.1123
-0.4434
-0.1912
-0.6473
-0.3143
-0.1821
-0.2329
-0.2168
-0.5385
-0.4551
-0.1854
0.0217
-0.08298
-0.431
-0.562
-0.1895
-0.1612
-0.1468
-0.2068
-0.6386
-0.4836
-0.3702
-0.654
-0.1876
-0.09981
-0.05169
-0.1446
-0.2397
-0.3337
-0.2816
-0.6086
-0.1434
-0.248
-0.006195
-0.2682
-0.4607
-0.2603
-0.2499
0.01879
-0.4587
-0.22
-0.3899
-0.1453
-0.2868
-0.3217
-0.07474
-0.2046
-0.005843
0.01174
-0.2772
-0.09619
-0.2434
-0.521
-0.1074
-0.5886
-0.2847
-0.5983
-0.1846
0.01663
-0.1774
-0.2653
-0.2252
-0.1317
-0.1301
-0.04229
-0.1974
-0.5187
-0.6022
-0.4283
0.02289
-0.6309
-0.3413
-0.2746
-0.5066
-0.4262
-0.1693
-0.1065
-0.2647
-0.09353
-0.605
-0.1621
-0.05858
-0.255
-0.3156
-0.3713
-0.08216
-0.2749
-0.1227
-0.04017
-0.2104
-0.008676
-0.07363
-0.2017
-0.5694
-0.531
-0.545
-0.1438
-0.628
-0.3685
-0.1336
-0.09392
-0.234
-0.2249
-0.5268
-0.3542
-0.5796
-0.3532
-0.2425
-0.06944
-0.08725
-0.5214
-0.09495
-0.5936
-0.0837
-0.1555
-0.3228
-0.2737
-0.1965
-0.396
-0.09224
-0.2539
-0.1678
-0.1452
-0.5906
-0.0674
-0.2877
-0.4011
-0.1047
-0.5721
-0.02995
-0.356
-0.4706
0.009015
-0.6443
-0.1816
-0.1654
-0.5543
0.01267
-0.2934
-0.3043
-0.3691
-0.4853
-0.2285
-0.2952
-0.08763
-0.07907
-0.2414
-0.1518
-0.08487
-0.002347
-0.5103
-0.5311
-0.3518
-0.2011
-0.4219
-0.01392
-0.2507
-0.5384
-0.1984
-0.2551
0.02065
-0.533
-0.04707
-0.3745
-0.5108
-0.2155
-0.2356
-0.5209
-0.1166
-0.3419
-0.5874
-0.5615
-0.0368
-0.2414
-0.2089
0.02616
-0.3777
-0.1144
-0.5095
-0.08926
-0.123
-0.497
-0.5739
-0.09206
-0.3777
-0.34
-0.08392
-0.175
-0.5159
-0.2039
-0.1906
-0.5023
-0.3098
-0.3311
-0.6347
-0.08642
-0.5438
-0.09802
-0.3969
-0.5287
-0.604
-0.3553
-0.1956
0.007659
-0.2692
-0.6249
-0.1913
-0.3576
-0.09149
-0.5459
-0.1298
0.006266
-0.5044
-0.5892
-0.09589
-0.045
-0.09267
-0.4674
-0.158
-0.1061
-0.3512
-0.1031
-0.07051
-0.2354
-0.2905
-0.3054
-0.2824
-0.1869
-0.04405
-0.1708
-0.474
-0.5643
-0.3021
-0.4378
-0.08791
-0.427
-0.6254
-0.1823
-0.1748
-0.524
-0.06642
-0.1031
-0.03649
-0.1582
-0.1274
-0.161
-0.08445
-0.1394
0.02079
-0.1788
-0.4225
-0.569
-0.1315
-0.4592
-0.2799
-0.08427
-0.0007424
-0.2245
-0.1008
-0.1448
0.01995
-0.09646
0.01943
-0.07942
-0.03034
-0.1721
-0.2771
-0.08992
0.0049
-0.1262
-0.15
-0.3351
-0.5298
-0.368
-0.5397
-0.06337
-0.112
-0.09818
-0.4452
-0.4619
-0.3511
-0.08251
-0.2057
-0.227
-0.2527
-0.4855
-0.1432
-0.2187
-0.1237
-0.1311
-0.3776
-0.2872
-0.567
-0.1635
-0.05434
-0.1287
-0.1124
-0.4484
-0.1817
-0.3119
-0.1856
-0.1453
-0.28
0.01411
-0.093
-0.1073
-0.6079
-0.5071
-0.1226
0.02614
-0.2315
-0.5374
-0.4767
-0.0119
-0.2214
0.01952
-0.2519
0.02272
-0.5519
-0.3411
-0.2118
-0.2774
-0.5001
-0.1024
-0.3214
-0.1023
-0.08422
-0.4039
-0.1057
-0.5392
0.02072
-0.4982
-0.4147
-0.5385
-0.171
-0.2316
-0.1536
0.005215
-0.5432
-0.3667
-0.1244
-0.3858
-0.5196
-0.4736
-0.2132
-0.2259
-0.396
-0.08987
-0.1266
-0.1182
-0.2021
-0.5688
-0.1405
-0.1828
-0.3037
-0.3106
0.01717
-0.4642
0.01659
-0.6375
-0.1247
0.01024
-0.6055
-0.2947
-0.2399
0.03131
-0.4638
-0.07535
-0.1007
-0.2661
-0.6137
-0.486
-0.05656
-0.1296
-0.477
-0.1541
0.009859
-0.181
0.01108
-0.1425
-0.1705
-0.5423
-0.5136
-0.5793
-0.3922
-0.08356
-0.1315
-0.2196
-0.2159
-0.3105
-0.1646
-0.3399
-0.4562
-0.5862
-0.2589
-0.3037
-0.0923
-0.114
-0.3783
-0.2877
-0.138
-0.315
-0.1799
-0.08163
-0.3081
-0.3338
-0.08904
-0.2421
-0.3081
-0.3825
-0.1174
-0.3224
-0.08492
-0.5195
-0.5378
-0.003344
-0.2655
-0.5097
-0.3171
-0.2897
-0.4041
-0.2047
-0.0927
-0.285
-0.1908
-0.1325
-0.5513
-0.5905
-0.4949
-0.1586
-0.4648
-0.4035
-0.4984
-0.09058
-0.2414
-0.1749
-0.45
-0.3075
-0.53
-0.6471
-0.2492
-0.4881
-0.627
0.02548
-0.5729
-0.5128
-0.5351
-0.4532
0.02423
-0.1634
0.0133
-0.2503
-0.234
-0.1175
-0.06731
-0.1298
-0.4121
-0.6132
-0.4186
-0.1765
-0.07588
-0.5689
-0.08252
-0.06641
-0.4978
0.02203
-0.1439
-0.3093
-0.1721
-0.5663
-0.5429
-0.2157
-0.3753
-0.1172
-0.1088
-0.1728
-0.2552
0.01149
-0.204
-0.1883
-0.3458
-0.07281
-0.3061
-0.3669
-0.5674
-0.3129
-0.1444
-0.06086
-0.2416
-0.01824
-0.3177
-0.2518
0.01795
-0.2126
-0.1105
-0.1355
-0.5876
-0.6278
-0.5782
-0.01501
-0.2817
-0.3985
-0.2597
-0.07791
-0.5786
0.01965
0.01163
-0.5054
0.01033
-0.236
-0.3557
-0.6277
-0.1947
-0.3995
-0.2639
-0.06096
0.01313
-0.4481
-0.1881
-0.08487
-0.5431
-0.2127
-0.4992
-0.1316
-0.2171
-0.5354
-0.5335
-0.2381
0.02289
-0.2017
-0.6189
-0.01425
-0.2303
-0.434
-0.04474
-0.01213
-0.1675
-0.551
-0.2158
-0.1288
-0.1536
-0.3085
-0.4022
-0.6248
-0.2217
-0.0869
0.0251
-0.1198
-0.07261
-0.1957
-0.2297
-0.5177
-0.5479
-0.2116
-0.6306
-0.1753
-0.1705
-0.2785
-0.3945
-0.121
-0.09312
-0.2227
-0.1877
-0.5485
-0.2526
-0.2604
-0.4486
-0.1813
-0.1568
-0.002789
-0.06642
0.0206
-0.4879
-0.1573
-0.3114
-0.5286
-0.1645
-0.1057
-0.09424
-0.3217
-0.125
-0.3112
-0.2166
-0.255
-0.3052
-0.4828
-0.3692
-0.2136
-0.567
-0.09159
-0.631
-0.5102
-0.1498
-0.003928
-0.5901
-0.3946
-0.2491
-0.09511
0.03722
-0.2715
-0.3551
-0.3742
-0.2537
-0.2809
-0.2422
-0.009176
-0.3696
-0.2094
-0.3722
-0.5825
-0.09912
-0.5793
-0.1189
-0.3372
-0.5379
0.0106
-0.4862
-0.5859
-0.07558
-0.3127
0.01324
-0.2738
-0.5059
-0.2883
-0.2695
-0.4982
0.002142
-0.1587
-0.5422
-0.1822
-0.5348
-0.2219
-0.3584
-0.6331
-0.6131
-0.5449
-0.3051
-0.3984
-0.5987
0.01019
-0.08332
-0.1183
-0.09129
-0.468
-0.01275
-0.09139
-0.6393
-0.3522
0.002326
-0.1964
-0.1314
-0.5512
-0.5336
-0.09613
-0.4915
-0.3246
-0.4826
-0.3456
0.03033
-0.2373
-0.1317
-0.1996
-0.6597
-0.126
-0.3407
-0.1035
-0.2722
-0.2097
-0.05403
-0.594
-0.0006478
-0.4897
-0.2712
-0.5233
-0.2639
-0.1295
-0.09063
-0.4454
-0.08543
-0.2992
0.01965
-0.225
-0.5423
-0.279
-0.5002
-0.2261
-0.5893
-0.4889
-0.506
-0.1377
-0.3456
-0.264
-0.2283
-0.1983
-0.5185
-0.3607
-0.34
-0.01556
-0.1908
-0.3577
-0.5242
-0.1214
-0.13
-0.3978
-0.1369
-0.6403
-0.0957
-0.1088
-0.3959
-0.08177
-0.07948
-0.4266
-0.1238
-0.1164
-0.1093
-0.3147
0.005583
-0.2553
-0.3276
-0.4626
-0.1233
-0.2681
-0.08117
-0.1363
-0.1083
-0.5264
-0.5524
-0.5155
-0.2881
-0.216
-0.2443
-0.09312
-0.4906
-0.2794
-0.07989
-0.1098
-0.5361
-0.1808
-0.1197
-0.4495
-0.08772
-0.5577
-0.2167
-0.3265
0.01616
-0.5095
-0.1229
-0.3534
-0.3973
-0.4863
-0.3057
-0.5652
-0.5544
-0.5506
-0.4023
-0.2087
-0.4642
-0.5853
-0.1917
-0.005502
0.01024
-0.1813
-0.2637
0.0004631
-0.5244
-0.3266
-0.0726
-0.4041
-0.1562
0.02204
-0.08488
-0.284
-0.551
-0.251
-0.3451
-0.2428
-0.2111
-0.1681
-0.5156
-0.2645
-0.1815
0.02143
-0.1383
-0.3446
0.03681
-0.376
-0.4348
0.009989
-0.6239
-0.2152
-0.5228
-0.5271
0.009789
-0.532
-0.1799
-0.2881
-0.08748
-0.1136
-0.1728
-0.07782
-0.1222
-0.5155
-0.4497
-0.488
-0.5406
-0.09318
-0.1732
-0.1854
-0.5713
0.02069
-0.5023
-0.01473
-0.08199
-0.5819
-0.3742
-0.1459
0.01561
-0.2636
-0.2065
-0.5427
-0.3465
-0.5281
-0.2285
-0.5518
-0.1727
-0.1446
-0.2431
-0.4467
-0.6331
-0.3059
0.02118
-0.1203
-0.1513
-0.524
0.01005
-0.1678
-0.08155
0.01584
-0.09207
-0.1425
-0.473
-0.2494
-0.4748
-0.5747
-0.181
-0.3937
-0.3991
-0.4853
-0.5309
-0.3051
-0.149
-0.4114
-0.2161
-0.1011
-0.1097
-0.2415
-0.2244
-0.2978
-0.4855
-0.485
-0.405
-0.4283
-0.308
-0.488
0.01309
-0.5986
-0.4012
-0.3795
-0.2915
-0.09916
-0.1799
0.01676
-0.1809
-0.0766
-0.4037
-0.1589
-0.2577
-0.1746
-0.1881
-0.0819
-0.08307
-0.153
-0.1429
-0.3008
0.02391
-0.2312
-0.2094
-0.5042
-0.1181
-0.1477
-0.309
-0.4563
-0.1799
0.007883
-0.1673
-0.5492
-0.5879
0.02843
-0.3768
-0.5075
-0.2327
-0.08285
-0.08357
-0.2091
-0.3733
-0.3786
-0.5232
0.003839
0.02008
-0.2657
-0.2376
-0.4127
-0.52
-0.1365
-0.3375
0.01573
-0.03722
-0.1966
-0.331
-0.482
0.01395
-0.6071
-0.5778
-0.1485
-0.1826
-0.3051
-0.1907
-0.4337
-0.2375
-0.1764
-0.1719
-0.2378
-0.5192
-0.3081
-0.3114
-0.1466
-0.6245
-0.3662
-0.1327
-0.2159
-0.6016
-0.2361
-0.3289
-0.3032
-0.4057
-0.1884
-0.08581
-0.5364
-0.5297
-0.6244
0.01376
-0.09804
-0.1728
-0.08893
-0.5655
-0.09372
0.009492
-0.2754
-0.1383
0.008255
-0.4246
-0.2131
-0.1599
-0.4788
-0.14
-0.1864
-0.07554
-0.1109
-0.1631
-0.2601
0.02
0.0056
-0.1343
-0.511
-0.1246
-0.1737
-0.3158
0.02327
-0.08712
-0.2581
0.02601
-0.06082
-0.1611
-0.4285
-0.1408
-0.3487
-0.02455
-0.08869
-0.3891
-0.3292
-0.3657
-0.1375
-0.5253
-0.2841
-0.2688
-0.2357
-0.6441
-0.5029
-0.1561
-0.2863
-0.5326
-0.6134
-0.1251
-0.2549
-0.5687
-0.2454
-0.4637
-0.4293
0.004773
-0.08866
-0.3715
-0.2229
-0.1655
-0.1591
-0.3072
-0.6257
-0.5266
-0.06833
0.01203
-0.1458
-0.5047
-0.4074
-0.1782
-0.1438
0.03054
-0.0655
-0.6137
-0.2107
-0.3323
-0.253
-0.1172
0.01281
-0.2712
-0.4111
-0.3472
-0.1102
-0.5228
0.01009
-0.1758
-0.07973
-0.5263
-0.126
-0.08623
-0.1777
-0.154
-0.1124
-0.2467
-0.1246
-0.07276
-0.4068
-0.3378
-0.5626
-0.1003
-0.1523
-0.388
-0.1181
-0.1943
-0.0773
-0.5156
-0.08208
-0.07708
-0.0893
-0.06436
-0.2474
-0.09593
-0.1907
-0.2164
-0.4886
-0.1014
-0.4478
-0.5113
-0.1834
-0.4526
-0.2315
-0.5781
-0.1969
-0.5009
0.02074
-0.6126
-0.3126
-0.2507
-0.5299
0.01294
-0.4089
-0.1134
0.01842
-0.1792
-0.6245
-0.11
-0.2541
-0.4721
-0.632
-0.5052
-0.08087
-0.2786
-0.2424
-0.5299
-0.2031
-0.3678
-0.07313
-0.0001811
-0.5084
-0.0691
-0.2419
-0.1182
-0.2866
-0.527
-0.2201
-0.2327
-0.4877
-0.511
-0.2739
-0.4124
-0.6194
-0.219
-0.4872
-0.4601
-0.09535
-0.1444
-0.6015
-0.1519
-0.1755
-0.2242
-0.4354
-0.5841
-0.2328
-0.1363
-0.5619
-0.3217
-0.1794
-0.1738
0.0189
-0.1871
-0.6262
-0.389
-0.4189
0.01056
-0.127
-0.5039
-0.2641
-0.03358
-0.184
-0.2176
-0.2309
-0.2483
-0.2818
-0.1727
-0.1115
-0.5422
-0.3497
-0.1004
-0.1214
-0.4088
-0.5479
-0.5914
-0.5295
-0.1342
-0.08031
-0.2855
-0.5063
-0.1421
-0.1049
-0.3058
-0.3467
-0.07795
-0.2728
-0.2366
-0.1594
-0.4263
-0.02071
-0.4156
-0.5448
0.003746
-0.0003527
-0.2787
-0.0336
-0.07276
-0.2211
-0.253
0.002344
-0.3306
-0.2475
-0.1436
-0.1982
-0.5548
-0.1894
-0.5604
0.01902
-0.1665
-0.1181
-0.1109
-0.5711
-0.5219
-0.3254
-0.5749
-0.1706
0.007721
-0.1612
-0.1615
-0.3048
-0.05795
-0.5423
-0.4065
-0.05528
-0.1652
-0.3184
-0.2284
-0.01259
0.01026
-0.2187
-0.5235
-0.02338
-0.1061
-0.1766
-0.5195
-0.5932
-0.4657
-0.5451
-0.4435
-0.2078
0.01351
-0.2582
-0.09321
-0.2229
-0.07777
-0.5546
-0.5623
-0.213
-0.1139
-0.182
-0.3494
-0.1528
-0.1144
-0.2763
-0.4117
-0.4387
-0.07732
-0.000445
-0.6433
-0.3021
-0.07066
0.0253
-0.07714
-0.2963
-0.1625
-0.002525
-0.3348
-0.06684
-0.5016
-0.1052
0.01887
-0.1116
-0.5967
-0.4266
0.01725
-0.1747
-0.5402
-0.1813
-0.4548
-0.2484
-0.03677
-0.196
-0.07734
-0.2551
-0.1231
-0.1745
0.01364
-0.1001
-0.1296
-0.1877
-0.285
-0.06449
-0.3643
-0.1131
-0.0825
-0.243
-0.3929
-0.14
-0.107
-0.2481
-0.5386
-0.1332
-0.5977
-0.5645
-0.1421
-0.1181
-0.5616
-0.1551
-0.09389
0.02029
-0.1644
-0.2689
-0.3497
-0.5368
-0.1351
-0.2408
-0.2298
-0.572
-0.1358
-0.2596
-0.156
0.02583
-0.1635
-0.0008327
-0.1004
-0.5963
-0.1726
-0.3256
-0.1409
-0.1557
-0.5524
-0.3387
-0.1869
-0.3089
-0.465
-0.4307
9.746e-05
-0.1576
-0.1658
-0.1584
-0.2852
-0.2563
0.02356
-0.01528
-0.2577
-0.3562
-0.259
-0.2857
-0.09862
-0.1654
-0.08754
-0.08442
-0.2738
-0.1808
-0.2422
-0.1655
-0.3336
-0.007384
0.02251
0.01649
-0.1932
-0.6278
-0.3967
0.02189
-0.1277
-0.2214
-0.149
-0.3695
-0.2203
-0.5861
-0.2092
-0.254
-0.5481
-0.1353
-0.5974
-0.1238
-0.1377
-0.604
-0.2386
-0.0936
-0.4942
-0.1994
-0.5891
0.01461
-0.1146
-0.2695
-0.2086
-0.07863
-0.3144
-0.5952
-0.5153
-0.09816
-0.06929
-0.02336
-0.2042
-0.5666
-0.5623
-0.3126
-0.2279
-0.3946
-0.391
-0.09181
-0.1755
-0.1083
-0.0569
-0.2244
-0.1622
-0.08193
-0.5165
-0.2965
-0.275
-0.1247
-0.3951
-0.2296
-0.6001
-0.02233
-0.07603
0.01761
-0.2859
-0.5108
-0.4764
-0.5693
-0.1144
-0.5525
-0.2686
-0.09932
-0.2164
-0.2784
-0.07439
-0.4911
-0.3825
-0.4656
-0.1146
-0.1335
-0.5865
-0.3938
-0.1004
-0.4877
-0.5615
-0.5195
-0.2705
-0.3585
-0.5273
-0.5219
-0.1843
-0.5805
-0.5482
-0.5481
-0.2221
-0.4246
-0.1428
-0.237
-0.2458
-0.597
-0.2193
-0.5524
-0.09823
-0.001103
-0.4602
-0.1611
0.02419
-0.5789
-0.1415
-0.1949
0.01766
-0.3564
-0.517
-0.2293
-0.1217
-0.4718
-0.6069
0.0107
-0.1193
-0.5628
-0.1871
-0.3727
-0.6031
0.02253
-0.5494
-0.09446
-0.2596
-0.105
-0.1435
-0.1209
-0.6347
-0.08068
-0.199
-0.6298
-0.486
-0.4244
-0.1962
-0.2449
-0.07494
-0.1132
-0.2062
0.07567
-0.4967
-0.0927
-0.5647
-0.3483
-0.1538
-0.5235
-0.2452
-0.3445
-0.111
-0.238
-0.553
-0.4621
-0.1751
-0.3708
-0.5543
-0.09547
-0.09774
-0.01253
-0.13
0.02242
0.008198
-0.34
-0.5057
-0.5815
-0.1593
-0.3934
-0.5983
-0.1895
-0.1744
-0.2799
-0.1965
-0.1019
-0.3036
-0.07849
-0.0697
-0.07709
-0.4669
-0.271
0.0271
-0.2144
-0.1745
-0.07079
0.01828
-0.00487
-0.1553
-0.3191
-6.921e-06
-0.5048
-0.1072
-0.05636
-0.4178
-0.2645
-0.2512
-0.616
-0.1392
-0.08164
0.002936
-0.2673
-0.5007
-0.3543
-0.1557
-0.05496
-0.3824
-0.007522
-0.174
-0.3678
-0.1643
-0.3383
-0.1895
-0.6444
-0.5262
-0.2768
-0.1906
-0.2789
-0.2905
-0.244
0.02268
-0.2814
-0.1771
-0.3198
-0.08608
-0.2092
0.004387
-0.1796
-0.3298
-0.1117
-0.4935
-0.07489
-0.5508
-0.2082
-0.5685
-0.2887
-0.09874
-0.2224
-0.5401
0.01472
-0.1719
-0.06696
-0.6147
-0.4085
-0.4329
-0.2273
-0.2429
-0.3181
-0.6234
-0.004103
-0.1428
-0.1378
-0.4063
0.004719
-0.0671
-0.5101
-0.1975
-0.2641
-0.5927
-0.5399
-0.4067
-0.4601
-0.2068
-0.2125
-0.5662
-0.4965
-0.1996
-0.1361
-0.5415
-0.2413
-0.2545
-0.1523
-0.5193
-0.5739
-0.5011
-0.5717
-0.01613
-0.07723
-0.1135
-0.1102
0.02607
-0.1053
-0.5373
-0.6357
-0.3648
0.02356
-0.09587
-0.2633
-0.1129
-0.4867
-0.3318
-0.2017
-0.3026
-0.5723
-0.3139
-0.07806
-0.4646
-0.2085
-0.2284
-0.1781
-0.4966
-0.1292
-0.04915
-0.1295
-0.01931
-0.133
-0.2704
-0.2176
-0.09037
0.0204
-0.372
-0.1836
-0.3238
-0.3776
-0.09748
-0.09307
-0.008078
-0.2637
-0.389
-0.07731
-0.1836
-0.236
-0.2623
-0.09331
-0.1316
-0.1173
-0.2062
-0.4161
0.01273
-0.1715
-0.2706
0.02065
-0.1582
-0.3572
-0.1812
-0.5452
-0.09434
-0.1692
-0.2459
-0.5365
-0.09645
-0.4685
-0.4153
-0.009233
-0.08409
-0.2725
-0.4432
-0.4805
-0.6038
-0.1076
-0.0001452
-0.1017
0.01621
-0.1198
-0.2553
-0.09575
-0.129
-0.08774
0.01649
-0.5519
-0.5345
-0.07274
-0.2797
0.02776
-0.09725
-0.04375
-0.09863
-0.4365
-0.1842
-0.2775
-0.632
-0.5193
-0.09518
-0.07465
-0.0766
-0.1414
-0.288
-0.07762
-0.0784
-0.584
-0.4821
-0.1107
-0.4442
0.01956
-0.2517
-0.4978
0.01077
0.002249
0.03587
-0.2746
-0.5694
-0.2004
-0.141
-0.08341
-0.1854
-0.5939
-0.6003
-0.5477
-0.1081
-0.1945
-0.3809
-0.5097
-0.2634
-0.2184
-0.3864
-0.5597
-0.1343
-0.2112
-0.2854
-0.2678
-0.0377
-0.3103
-0.07795
-0.4407
-0.5372
-0.232
-0.3153
-0.2185
-0.2557
-0.06828
-0.1496
-0.5114
-0.07407
-0.06334
-0.3627
-0.5492
-0.5503
-0.2801
-0.1424
-0.1525
-0.3352
-0.162
0.0149
0.01857
-0.148
-0.1539
-0.2808
-0.5682
-0.1444
-0.2353
-0.2561
-0.2419
-0.5335
-0.4897
-0.4648
-0.09549
-0.09281
0.002731
-0.2395
-0.6016
-0.08466
0.005457
-0.1623
-0.2355
-0.4073
-0.4954
-0.3256
-0.04785
-0.1225
-0.1257
-0.07267
-0.6227
-0.3232
-0.5552
-0.1554
-0.5105
-0.3121
-0.5736
-0.1154
-0.2476
-0.3244
-0.115
-0.1904
-0.07702
0.01914
-0.2581
-0.5526
-0.01534
-0.1005
-0.1704
-0.1515
-0.537
-0.1462
-0.506
-0.584
-0.02145
-0.1486
-0.6088
0.0171
-0.5347
-0.2587
-0.1507
-0.4334
-0.2716
-0.3264
-0.1446
-0.5327
-0.1259
-0.1872
-0.1794
-0.2212
-0.1035
-0.5313
0.0109
-0.3206
-0.5924
-0.09849
-0.07887
-0.08517
-0.1755
-0.5961
-0.1364
-0.5363
-0.1475
-0.2376
-0.4944
-0.3589
-0.03637
0.009098
-0.1421
-0.5272
-0.2052
-0.5692
-0.5425
-0.07447
-0.2454
-0.07604
-0.1164
-0.1894
-0.1635
-0.476
-0.3426
-0.07713
-0.2375
-0.5117
0.0006032
-0.5237
0.0007816
-0.549
-0.07887
-0.5441
-0.168
-0.1847
-0.3352
-0.4873
-0.3591
-0.2265
-0.5752
-0.1027
-0.258
-0.1525
-0.5625
-0.0277
-0.4274
-0.5227
-0.1413
-0.29
-0.07386
-0.3955
-0.4229
-0.2714
-0.489
-0.1527
-0.4537
0.01095
-0.1833
-0.03188
0.01607
-0.1381
-0.1634
-0.1675
0.0127
-0.3448
-0.2606
-0.3552
-0.1248
-0.5552
-0.4115
-0.5242
0.01841
-0.4414
-0.55
-0.3413
-0.07996
-0.08386
-0.2168
-0.221
-0.1136
-0.1142
-0.2317
-0.394
-0.2925
-0.2107
-0.5024
-0.1645
-0.2169
-0.1264
-0.08379
0.001871
0.008855
-0.2121
-0.2873
-0.5483
0.02575
-0.3069
-0.2022
-0.1257
-0.07485
-0.07771
-0.08689
-0.6007
-0.08028
-0.02886
-0.2431
-0.1568
-0.5694
-0.3336
-0.5329
-0.5139
-0.3684
-0.2506
-0.3571
-0.5551
-0.2496
-0.1798
-0.1207
-0.1037
-0.01261
-0.5327
-0.09326
-0.1567
-0.4706
-0.5379
-0.07452
-0.2578
0.006829
-0.4292
0.02284
-0.2476
-0.5041
-0.02109
-0.3779
-0.2822
0.0192
-0.3565
-0.485
-0.4962
-0.1343
-0.1634
-0.1044
-0.3188
-0.1015
-0.6344
0.01274
-0.3599
-0.5566
-0.6032
0.01619
-0.5748
-0.1863
-0.2069
-0.5383
-0.2638
-0.1109
-0.08458
-0.1197
-0.5515
0.002643
-0.6024
-0.01135
-0.004469
-0.1205
-0.6017
0.008334
-0.4019
-0.5173
-0.3759
-0.06057
-0.5141
-0.2818
-0.1011
-0.292
-0.396
-0.3155
-0.4161
-0.2791
0.01184
-0.4141
-0.235
-0.3327
-0.3237
-0.1873
-0.6163
-0.001436
-0.1189
-0.3293
-0.5094
-0.3732
-0.5556
-0.1419
-0.07662
-0.3142
-0.3453
-0.1277
-0.2913
-0.1674
-0.05991
-0.4341
0.002785
-0.3605
-0.1522
-0.2733
-0.2304
-0.3529
-0.032
-0.01416
-0.2966
-0.4883
-0.2249
-0.1852
-0.08549
-0.5097
-0.1562
-0.2047
-0.1057
-0.4911
-0.06433
-0.4354
-0.2827
-0.1683
-0.2995
-0.3539
0.01105
-0.1683
-0.4293
-0.3023
-0.5291
0.02338
-0.5362
-0.004101
0.01486
-0.3005
0.01904
-0.06551
-0.07776
-0.08875
-0.2542
-0.5149
-0.6238
-0.1854
-0.6681
-0.1751
-0.5874
-0.4676
-0.13
-0.6293
-0.132
-0.301
-0.1144
-0.1188
-0.5468
-0.173
-0.05685
-0.2478
-0.5794
-0.3286
-0.497
-0.1999
-0.06231
0.0149
-0.422
0.01426
-0.3834
-0.2549
-0.2041
-0.4195
-0.578
-0.4901
-0.3059
-0.09547
-0.1007
-0.4206
-0.1166
-0.5109
-0.07637
-0.1349
0.02905
-0.4624
-0.1234
-0.1141
-0.1374
-0.3635
-0.375
-0.3827
-0.5051
-0.0424
-0.5067
-0.3707
-0.2041
-0.5047
-0.6208
-0.09191
-0.5232
-0.4211
-0.2501
-0.08613
-0.1214
-0.1427
-0.2225
-0.1286
-0.4923
-0.6571
-0.31
-0.5562
-0.08554
-0.0828
-0.5712
-0.1395
-0.432
-0.2943
-0.3476
-0.215
-0.4463
-0.3861
-0.172
-0.274
-0.5729
-0.1922
-0.2853
-0.09196
0.001881
-0.5215
-0.06669
-0.3727
-0.5025
-0.4565
-0.5467
-0.4164
-0.1936
-0.05759
-0.3083
0.01793
-0.5453
-0.5267
-0.4946
-0.09601
-0.1289
-0.1197
-0.2496
-0.1308
-0.1633
-0.3306
-0.2397
0.02731
-0.1855
-0.2377
0.0138
-0.5497
-0.2064
-0.5361
-0.2469
-0.1236
-0.09467
-0.1824
-0.07624
-0.07908
0.03081
-0.5359
-0.3177
-0.09275
-0.186
-0.0002043
-0.5031
-0.2169
-0.07319
-0.4104
0.02576
-0.4358
-0.08381
-0.5586
-0.112
-0.4516
0.006676
-0.6041
-0.4973
-0.4994
-0.2174
-0.2315
-0.2493
-0.1449
-0.1701
0.01879
-0.1203
-0.623
-0.07672
-0.4831
-0.5473
-0.307
-0.2163
-0.4788
-0.3624
-0.03956
-0.5474
-0.2938
-0.1335
-0.129
-0.07051
0.01449
-0.3422
-0.1942
-0.1811
-0.6366
-0.1684
-0.08295
-0.1911
-0.07694
-0.1289
-0.2126
-0.5959
-0.04187
-0.2073
-0.1096
-0.2389
-0.1545
-0.5895
-0.09439
0.0142
-0.05027
0.01903
-0.574
-0.1417
-0.5468
-0.1901
-0.2049
-0.05195
-0.4871
0.01741
-0.2758
-0.09759
-0.5162
0.01517
-0.3438
-0.1399
-0.1042
-0.1191
-0.5917
-0.151
-0.2449
-0.17
0.0002374
-0.3216
-0.5165
-0.358
-0.12
-0.5176
-0.001323
-0.1332
-0.3052
-0.3635
-0.08237
-0.168
-0.4347
-0.1801
-0.4485
-0.5693
-0.07398
-0.1743
-0.6161
-0.162
-0.2372
-0.03504
-0.5822
-0.1167
-0.05339
-0.2645
-0.4479
-0.1938
-0.06197
-0.5616
0.01729
-0.0941
-0.3813
-0.2365
0.02394
-0.01912
-0.5592
-0.3457
-0.6092
0.02371
-0.5204
-0.179
-0.1811
-0.3942
-0.121
-0.5379
-0.2325
-0.1019
-0.1717
-0.1079
-0.5405
-0.5264
-0.2865
-0.07242
-0.07921
-0.1014
-0.1438
-0.2211
-0.5258
-0.1055
-0.07488
-0.2164
0.007859
0.02881
-0.3677
-0.2776
-0.2122
-0.1053
-0.4488
-0.3056
-0.5394
-0.2602
-0.09252
-0.4309
-0.1042
-0.2875
-0.5523
-0.1443
-0.2181
-0.3246
-0.184
-0.4343
-0.1221
-0.08335
-0.2209
-0.4135
0.01996
0.01023
-0.07576
-0.3472
-0.08334
-0.1761
-0.1567
-0.01784
-0.07658
-0.2768
-0.4476
-0.4144
-0.5144
-0.1054
-0.02087
-0.2363
0.01666
-0.1805
-0.2573
0.001413
-0.5348
-0.05024
-0.6174
0.009731
-0.5167
-0.3491
-0.3121
-0.498
-0.2704
-0.1283
-0.5628
-0.1414
-0.257
-0.1874
-0.07849
-0.1639
-0.3597
-0.5746
-0.1406
-0.5625
-0.5418
-0.2681
-0.09769
-0.09791
0.0238
-0.07687
-0.08146
-0.2074
-0.08146
-0.2402
-0.3541
-0.1072
0.001598
-0.2734
-0.485
0.009253
-0.2521
-0.6398
-0.1382
0.01209
-0.2339
-0.5331
-0.06986
-0.4545
-0.3321
-0.1144
-0.5369
-0.1499
-0.4787
-0.2417
-0.4291
-0.6291
-0.4171
-0.3971
-0.5572
-0.3286
0.007366
-0.1806
-0.3785
-0.2229
-0.1016
-0.1594
-0.6189
-0.4851
0.02253
-0.1977
-0.07696
-0.1544
-0.1054
-0.3938
-0.5729
-0.1594
-0.2834
-0.2682
-0.5668
-0.2298
-0.3534
-0.09563
-0.3276
-0.3632
-0.03152
-0.2498
-0.07488
-0.1308
-0.3919
-0.1937
-0.5513
-0.5481
-0.1724
-0.5597
-0.04018
-0.2557
0.01134
-0.3066
-0.3424
-0.2859
-0.225
-0.139
-0.1884
-0.3213
-0.5093
-0.2505
-0.5284
-0.2355
-0.1299
-0.3281
-0.1518
-0.08859
-0.5655
-0.6061
-0.1913
-0.1134
-0.5235
-0.5082
-0.01147
-0.5153
-0.519
-0.2884
-0.01137
-0.1475
-0.2503
-0.07682
-0.372
-0.3655
-0.3151
-0.5704
-0.08427
-0.2803
0.02454
-0.0786
-0.1934
-0.5484
0.0247
-0.1534
-0.2346
0.01124
-0.2519
-0.1381
-0.1268
-0.512
-0.4674
-0.3789
-0.2559
-0.2366
-0.4945
-0.1379
-0.3923
-0.1022
-0.631
-0.5001
-0.3339
-0.5004
-0.4285
-0.5797
-0.2999
-0.4075
-0.09029
-0.1855
-0.2994
-0.4823
-0.6191
-0.07852
-0.08569
-0.2536
-0.6607
0.003506
-0.1564
-0.5346
-0.2491
-0.1434
-0.5053
-0.5973
-0.09725
-0.5817
-0.2555
-0.6152
-0.3653
-0.4554
-0.1314
-0.3641
-0.05728
-0.1696
-0.07274
-0.2414
-0.4721
-0.02473
-0.1715
-0.2176
0.02012
-0.5203
-0.2788
-0.4951
-0.1128
-0.2643
-0.5364
-0.08647
-0.6283
-0.2866
-0.09562
-0.09606
-0.1523
-0.1536
-0.5555
-0.3083
-0.3733
-0.5369
-0.09137
-0.3303
-0.1056
-0.0987
-0.0181
-0.1084
0.03328
-0.4978
-0.5858
-0.4921
-0.5093
-0.001733
-0.5835
-0.2917
-0.5195
-0.1503
-0.5388
-0.471
-0.3655
-0.2773
-0.3094
-0.004701
-0.3324
-0.5587
-0.4247
-0.1172
-0.1226
-0.1412
-0.5246
-0.01672
-0.3479
-0.2501
-0.08855
-0.23
-0.2166
-0.4209
-0.616
-0.06609
-0.08549
-0.07332
-0.3325
-0.3824
-0.02987
-0.1179
-0.5647
-0.147
-0.097
0.01832
-0.09723
-0.2427
-0.1066
-0.5373
-0.4967
-0.03053
-0.611
-0.2254
-0.1558
-0.07767
-0.6141
-0.2374
-0.2427
-0.1136
-0.5381
-0.1133
-0.06414
-0.2226
-0.1599
-0.5952
-0.2052
-0.2359
-0.4789
-0.5586
0.01648
-0.3801
-0.2683
-0.1921
-0.1603
-0.09101
-0.05289
-0.5842
-0.1852
-0.5467
-0.1184
-0.511
-0.2054
-0.1041
-0.2856
-0.1215
-0.5361
-0.09145
-0.2889
-0.1144
-0.4288
-0.2085
-0.455
-0.0486
-0.1289
-0.2444
-0.3325
-0.1046
-0.4816
-0.4884
-0.1676
0.02718
-0.3292
-0.07776
0.02008
-0.3001
0.01177
-0.3452
-0.3386
-0.02103
-0.08273
-0.1321
-0.1206
-0.5722
-0.3016
-0.172
-0.01012
-0.1445
-0.4955
-0.2752
0.02517
0.01058
-0.3024
-0.3246
-0.004336
-0.2355
-0.2488
-0.4091
-0.1558
-0.352
-0.009285
-0.2223
-0.5316
-0.1035
-0.0897
-0.5087
-0.5216
-0.372
0.02898
-0.517
-0.2723
-0.5563
-0.1232
-0.5377
-0.2509
-0.2231
-0.5149
-0.1559
-0.1471
-0.3647
-0.1664
-0.1729
-0.496
-0.5431
-0.06275
-0.206
-0.2834
-0.5361
-0.5477
0.02566
-0.4544
-0.2791
-0.1741
0.00311
-0.2437
-0.2677
-0.01428
-0.2745
-0.4261
-0.08723
-0.08941
-0.01801
-0.1568
-0.3432
-0.202
0.02443
-0.0904
-0.2097
0.03013
-0.589
-0.2635
0.02555
-0.1016
-0.3379
-0.1401
-0.1923
-0.502
0.024
-0.5533
-0.1867
-0.1133
-0.5402
-0.2778
-0.0701
-0.06671
-0.1216
-0.4645
-0.1496
-0.0972
-0.5202
0.01448
-0.1743
-0.08085
-0.4363
-0.0784
-0.1518
-0.05085
-0.1878
-0.3822
-0.5504
-0.3435
-0.4388
0.02653
-0.2659
0.0135
-0.395
-0.3175
-0.1204
-0.1121
-0.2147
-0.01293
0.00574
-0.5231
-0.2188
-0.3685
-0.4247
-0.1856
-0.4441
-0.271
-0.4776
-0.4407
-0.556
-0.3658
-0.212
-0.6401
-0.438
-0.2777
0.001053
-0.2393
0.009926
-0.5228
-0.1431
-0.1013
-0.3147
-0.107
-0.578
-0.5669
-0.2089
-0.2843
-0.382
-0.4
-0.2583
0.0006419
-0.2024
-0.1506
-0.3756
-0.1288
-0.1777
-0.5959
-0.1114
-0.1892
-0.2576
0.02262
-0.2896
-0.1906
-0.6181
-0.007031
-0.6003
-0.6231
-0.1501
-0.3303
-0.302
0.01283
-0.06727
-0.5211
-0.2336
-0.5998
-0.164
-0.198
0.02819
-0.2085
-0.2808
-0.2059
-0.1862
-0.1203
-0.4534
-0.0793
-0.3341
-0.3005
-0.2243
-0.1996
-0.2596
-0.3928
0.006282
-0.4165
-0.4293
-0.1761
-0.02126
-0.189
-0.08096
-0.6546
-0.3503
-0.2401
-0.5234
-0.4967
-0.6237
-0.3832
-0.3397
-0.03772
-0.02092
-0.5466
-0.4773
-0.6026
-0.5841
-0.3575
-0.5305
0.01966
-0.5143
-0.1224
-0.08297
-0.544
-0.07411
-0.1847
-0.1446
-0.5108
-0.5523
-0.1226
-0.5875
-0.08152
-0.1462
-0.5823
-0.1863
-0.126
-0.6186
-0.1145
-0.3964
-0.2178
-0.5201
-0.1946
-0.3731
-0.35
-0.4733
-0.4199
-0.01405
0.006007
-0.1691
-0.2107
-0.1662
-0.5257
-0.5062
-0.08809
-0.366
-0.5446
-0.0876
-0.1413
-0.5286
-0.1791
-0.6095
-0.5344
-0.2181
-0.07536
-0.1196
-0.16
-0.6207
-0.09778
0.01118
-0.6073
-0.5124
-0.2581
-0.5445
-0.1119
-0.168
-0.2973
-0.4773
-0.5145
-0.1706
-0.155
-0.08481
-0.4686
-0.135
-0.1858
-0.2761
0.001134
-0.1304
-0.07563
-0.1176
-0.1123
-0.4965
-0.2251
-0.5838
-0.4527
-0.07812
-0.1785
-0.6023
-0.08118
-0.4061
-0.6231
-0.2931
-0.4508
-0.2972
-0.5551
-0.1453
-0.2043
-0.6321
-0.1601
-0.1188
-0.08536
-0.4642
-0.4583
-0.01412
-0.2493
-0.3732
-0.1664
-0.6108
-0.5982
-0.08207
-0.1147
-0.1406
-0.6118
-0.001495
-0.3167
-0.1404
-0.1514
-0.41
0.01973
-0.3803
-0.5742
-0.1859
-0.1673
-0.1342
-0.03811
-0.5025
-0.3305
-0.1298
-0.1002
-0.445
-0.3358
-0.01552
-0.1681
-0.5561
-0.574
-0.3901
-0.1931
-0.5218
-0.1745
-0.4801
-0.2817
-0.3349
-0.1853
-0.1118
-0.5358
-0.2078
-0.5707
-0.1686
-0.08764
-0.5434
-0.4423
-0.157
-0.5295