/*--------------------------------*- C++ -*----------------------------------*\
  =========                 |
  \\      /  F ield         | OpenFOAM: The Open Source CFD Toolbox
   \\    /   O peration     | Website:  https://openfoam.org
    \\  /    A nd           | Version:  8
     \\/     M anipulation  |
\*---------------------------------------------------------------------------*/
FoamFile
{
    version     2.0;
    format      ascii;
    class       volScalarField;
    location    "10";
    object      epsilon;
}
// * * * * * * * * * * * * * * * * * * * * * * * * * * * * * * * * * * * * * //

dimensions      [0 2 -3 0 0 0 0];

internalField   nonuniform List<scalar> 
63579
(
306.3
206.3
312.2
339.1
313.3
391.8
13.59
0.1312
0.6779
3.317
12.67
0.06573
3.429
37.26
0.06415
35.47
0.5668
1.135
0.9323
12.18
1.038
0.02156
0.005274
2.247
0.005086
0.1359
0.01307
0.8906
0.09658
0.4768
0.0008085
0.01309
0.02705
0.01717
2.204
0.1318
10.46
0.5113
0.4575
11.98
0.01588
9.518
0.08584
1.061
0.1332
0.9951
26.37
0.2347
0.5808
0.0008152
1.139
0.01752
12.72
5.296
0.02067
0.3057
0.01764
0.02705
0.0171
0.0167
1.539
0.1186
10.02
3.92
0.01653
2.691
0.2891
11.19
0.1939
0.01734
3.747
47.93
0.1068
29.8
0.2453
1.097
0.1485
5.613
0.1354
3.51
43.01
0.01607
3.874
0.823
9.764
0.02239
0.3501
0.9218
0.003694
3.984
0.6356
0.01844
0.9234
0.02949
2.613
0.2104
5.093
0.6309
0.02089
11.32
0.112
0.112
0.0184
0.01691
0.02295
0.03716
0.06516
0.4587
0.06286
0.02085
0.01554
9.708
0.5218
0.06432
3.656
0.02937
1.126
3.164
0.02891
0.08744
0.01683
3.432
0.9224
0.001441
2.099
0.7002
1.685
1.121
0.01641
10.16
0.6413
0.1095
0.02342
0.01735
6.891
1.12
2.475
0.003603
0.8121
0.006085
0.7747
0.002483
0.09036
0.23
0.02255
0.02042
0.02031
0.7533
0.01876
0.2458
0.087
0.4142
0.01441
1.411
1.295
0.385
0.5012
0.2982
3.394
0.4513
0.01556
0.2832
0.6007
2.368
0.002563
0.0198
7.178
1.287
0.01988
0.1261
0.02178
0.7015
7.298
0.03466
4.096
0.02042
0.0622
0.1016
0.1016
0.1411
1.111
0.3474
0.5216
4.057
0.7678
1.29
1.181
0.02633
3.174
0.01073
0.04063
0.0185
0.01302
0.00619
1.814
0.02187
1.623
0.0202
0.8308
0.006491
3.573
1.136
0.3984
0.01755
0.04618
0.01285
0.4231
1.744
0.6365
0.4228
0.02627
0.02279
0.03011
0.04669
0.2979
0.3022
0.1375
0.5974
1.799
1.503
0.1893
1.477
2.698
2.625
0.001484
0.1364
0.8387
0.1538
0.08332
0.05466
0.04023
0.3969
0.02112
0.01444
0.02275
1.187
0.01881
0.0185
5.825
0.01324
0.9994
0.2848
0.04996
1.526
0.2793
3.697
0.003367
0.01717
0.03247
0.1171
0.05316
0.006093
5.998
13.24
5.75
2.347
1.601
0.01563
0.01729
6.211
0.4846
3.64
3.18
0.08211
3.617
0.01706
13.55
0.01713
0.07079
0.02002
1.671
0.2991
1.018
0.003354
2.943
1.142
0.013
0.24
0.03592
0.01234
22.18
0.04393
0.1016
1.86
14.31
0.01731
1.274
0.03629
0.3956
2.319
0.01424
1.594
0.3438
0.08465
0.06712
0.1002
4.148
0.01928
0.001686
1.082
4.087
1.625
0.4637
0.01697
0.03758
0.8174
0.003968
0.2987
0.006294
1.866
0.01917
0.001634
22.96
0.006372
0.5638
0.02218
0.2955
0.01967
0.02269
0.9814
1.142
1.106
5.246
0.5356
8.981
1.423
0.003994
1.916
0.02104
3.749
0.01718
0.04642
0.02036
0.1404
2.591
0.003496
0.007783
1.083
1.174
1.84
0.003493
0.2469
0.01598
0.001693
10
0.01711
0.001042
0.0223
0.1431
0.04002
0.59
0.2029
1.672
0.02013
0.01072
0.776
0.4309
0.5732
0.04474
0.01005
0.08219
1.397
3.725
0.2234
1.809
0.01567
0.007675
0.1347
0.5527
5.454
3.176
0.001032
0.05358
1.66
0.4495
0.001492
0.3738
0.5886
27.19
4.281
1.529
0.4046
0.2777
0.2371
0.4402
0.02205
0.9315
2.226
0.492
0.01482
0.0009365
1.903
0.0009826
0.001079
0.01812
9.071
0.01482
0.4938
0.3699
0.3719
0.4577
2.621
0.01875
1.422
0.02552
0.5039
0.07265
0.04009
0.2495
0.0009384
6.119
0.5782
1.462
0.02827
0.01576
0.02037
0.2873
0.4245
0.0108
0.7829
0.002225
0.01287
0.04223
0.01155
9.85
0.4288
2.826
0.004337
0.4153
0.02653
1.263
0.0685
3.118
24.62
0.01547
0.2359
1.901
35.02
0.2974
0.899
7.329
0.02423
2.649
6.502
6.496
0.002216
4.273
73.06
0.01731
0.5989
0.001783
0.001738
0.01927
5.063
0.1715
0.02582
8.499
0.9998
0.01272
0.02488
0.5554
12.6
0.01894
1.636
0.01053
0.02612
0.02001
0.9449
1.942
0.8612
0.002207
11.11
0.002207
1.164
0.306
0.7309
0.01699
0.02864
0.5106
1.654
7.628
6.8
6.785
0.01691
0.02428
0.01692
0.2366
0.8451
7.412
0.294
10.8
0.01504
0.01055
0.2644
0.1799
2.054
0.1416
2.548
0.1382
0.2327
9.717
0.5501
0.6563
2.29
0.5504
8.025
0.0126
13.8
0.01904
9.809
0.002476
0.1533
0.5815
2.909
0.233
0.1916
0.01729
0.4411
0.003404
5.797
0.02968
0.002217
0.01712
0.3645
0.1373
0.01724
1.254
0.02721
6.818
0.1141
0.2473
1.653
1.05
0.3454
0.006186
0.03274
0.9483
2
0.8285
2.533
0.4095
0.01088
2.139
0.0007233
6.699
0.3976
1.23
0.2076
0.3949
2.559
0.003162
0.01501
0.2081
0.4493
0.033
0.4076
0.163
0.1056
0.0134
0.2828
0.02659
0.4172
0.02401
1.843
0.9512
0.0008081
0.5391
0.02349
2.099
1.236
0.04514
0.3275
9.521
0.4951
0.03679
2.22
0.7795
4.438
0.6592
1.012
0.7558
0.08989
0.9471
0.09894
1.532
0.1056
0.02166
0.0219
0.02574
0.5493
0.6502
0.4691
0.9464
1.559
0.0658
0.6406
0.1841
1.181
0.394
0.04471
0.02682
2.455
0.01803
1.379
7.073
0.01534
0.03859
0.01397
9.783
0.2904
0.6582
0.002846
0.04596
0.0006757
0.0006793
3.439
0.7576
5.598
0.4821
1.759
0.05511
0.9661
7.209
44.8
0.1919
0.9057
28.18
0.008193
0.6845
15.01
0.06451
26.32
0.5221
1.312
0.01158
0.5595
0.01899
0.3975
20.06
0.3143
0.2181
4.057
0.1
1.033
43.19
0.02192
9.782
0.009815
0.2761
0.01171
0.002433
23.91
2.354
0.08411
0.01717
0.05474
0.01472
0.1778
0.01533
0.1327
0.1978
1.522
0.03398
0.6877
0.3324
0.8299
0.8604
0.0176
6.72
0.02491
6.859
2.33
0.9179
0.01958
0.01812
0.04782
0.4407
0.3606
1.185
0.02308
0.2612
4.609
0.08988
0.1904
0.7378
0.9277
0.01543
5.343
0.03374
0.9495
0.0144
0.5561
0.03717
1.326
7.108
18.85
0.2663
0.01022
20.04
0.01395
0.2517
0.4879
7.74
0.05107
5.176
1.067
0.001158
0.001127
0.8581
54.76
4.772
1.239
0.01311
0.01874
0.01722
0.01391
0.004435
19.64
0.02292
20.17
0.3088
2.445
0.001034
29.34
14.47
0.01274
18.61
24.21
0.05168
0.01024
0.000613
0.1978
0.2771
0.006608
0.02967
11.73
0.004945
0.3126
0.2552
0.02074
0.09323
78.88
0.9211
0.5389
0.01733
0.2192
0.128
0.0007491
0.6996
0.01792
2.657
0.01728
0.1056
0.8166
2.022
4.698
2.406
0.007644
1.717
6.802
1.933
0.03276
1.053
57.7
6.547
0.001064
0.01517
1.049
0.02737
0.02856
0.129
0.008416
1.966
0.0146
0.7589
0.03857
1.928
9.968
0.3676
0.7536
0.02297
10.99
2.286
1.272
18.33
2.129
0.03746
0.7943
0.2202
0.4439
0.019
0.007331
8.041
4.893
0.2185
0.01853
5.126
0.7893
0.09704
0.8754
0.02509
0.1442
4.22
2.022
0.6822
0.776
0.03596
0.4551
0.6153
1.491
0.02064
0.4011
2.202
0.01644
0.02045
0.0008339
0.5486
0.4854
2.362
0.2291
0.003005
0.003274
0.2909
0.1727
0.5199
0.0007994
0.001332
0.0176
2.222
0.02006
233.2
0.1548
0.2432
3.046
0.2156
0.01847
17.64
0.1816
0.8871
0.1661
2.297
1.951
8.216
1.32
0.02217
0.6138
6.19
0.01731
13.24
0.603
0.001758
1.154
1.52
0.003287
1.607
0.839
0.06593
0.0139
0.892
19.07
0.4747
50.97
5.957
0.001425
19.54
1.082
0.292
0.4405
0.001408
0.8339
31.04
0.417
0.7086
0.01777
0.02113
0.2211
0.01378
0.4264
0.4665
0.7306
0.5172
1.514
24.01
0.09583
0.6584
0.3088
0.2454
0.000854
0.01995
0.04583
1.905
0.7031
4.015
0.0195
1.294
2.653
0.04227
0.2273
0.03504
1.621
0.8202
0.4396
1.356
0.4791
0.1952
27.61
0.01457
1.473
0.6312
0.003542
0.001015
0.1472
0.01921
0.04252
0.0333
0.2209
0.08386
0.1685
0.02387
0.01656
0.2717
0.03209
2.674
0.07162
0.4495
17.89
8.301
0.01992
0.007712
0.7936
0.02609
87.08
1.729
0.007586
0.007572
0.8327
5.252
0.03641
0.2151
0.1344
1.342
1.126
0.5389
2.219
0.6918
0.116
0.2872
1.603
2.01
2.371
19.48
0.08859
0.001621
0.001606
1.055
4.433
0.003937
0.02051
1.603
0.0994
11.18
4.179
0.1408
0.9633
0.05883
19.31
6.945
0.001192
0.2978
0.3568
0.5409
1.8
0.2871
4.887
0.9095
41.59
3.899
1.105
0.5341
5.694
0.1891
0.01598
0.09005
0.595
6.56
0.1502
31.67
0.4593
0.003487
0.2348
0.02108
38.15
0.3029
0.1162
0.2041
6.473
0.1163
0.502
0.04616
2.618
0.3129
0.01008
8.572
0.2974
0.01851
1.221
4.857
1.447
2.335
1.13
2.813
4.296
2.432
0.0007494
0.01938
0.0495
3.672
0.0155
1.069
1.257
8.892
0.01923
0.0008716
1.069
0.2841
10.55
0.02193
0.06798
0.3708
0.01343
0.3671
8.644
1.33
5.091
5.166
0.5779
0.1424
0.4647
1.038
0.01048
0.2921
5.64
4.399
17.71
0.0127
0.9867
2.362
0.01479
0.8148
23.24
0.9647
0.6145
0.1914
0.1914
0.5394
0.7499
0.01978
2.142
0.01476
0.01337
129.6
2.138
0.006352
0.9485
0.1196
1.557
0.002185
0.2572
0.02067
0.01007
0.01435
0.004298
0.06154
0.538
3.836
0.2837
0.004307
0.4002
0.8341
0.04214
0.4662
75.95
1.3
2.65
0.8017
3.28
0.02058
1.358
0.2128
0.03312
24.56
0.02663
0.004791
0.003926
1.334
2.156
0.01205
0.01576
0.0794
0.3023
14.68
0.8745
0.1208
0.7939
0.02092
9.356
0.01888
0.01255
0.0014
17.01
1.15
0.03322
0.07724
0.7496
0.00209
0.2391
77.18
0.09195
0.001157
0.1009
0.01727
4.53
42.18
0.1786
1.158
0.02128
1.149
0.0263
1.362
50.88
12.28
0.1579
0.03157
0.01614
11.5
2.049
0.1686
0.02195
0.2154
0.02157
0.7961
3.05
9.586
0.8626
0.05156
4.878
0.02004
1.5
5.434
0.02191
102.3
0.1308
7.452
5.062
0.01586
129.8
0.0006606
50.03
5.197
1.572
28.36
0.1437
0.4601
0.008266
0.4029
2.708
0.5925
1.051
8.3
0.01509
2.57
0.1559
0.5045
0.01766
0.4508
0.0006275
0.0156
0.2321
0.8541
0.005691
0.02301
1.925
0.005704
1.626
0.08778
5.989
0.03812
0.9175
3.006
0.8356
0.4591
18.71
0.0008207
0.468
0.01787
0.4072
13.31
0.3034
36.37
0.003805
0.03309
1.14
0.127
4.778
1.87
0.001931
0.0596
0.02468
1.731
0.0307
0.8795
0.4474
2.179
0.001039
0.04469
1.894
3.754
0.4821
0.01418
2.695
0.01255
6.736
1.112
13.64
0.4901
0.00348
0.04476
0.3531
0.03167
5.202
0.006038
0.7184
0.01737
0.2985
0.4631
0.08223
0.1284
3.259
0.003882
0.1642
0.0157
0.02627
0.4116
0.01822
0.6519
1.97
0.5352
0.06912
1.781
0.002641
103.3
1.88
0.000913
0.07144
0.02486
0.4658
1.072
1.668
0.02694
0.2284
0.782
8.305
0.01272
0.4996
0.2841
0.07641
0.3085
0.03456
0.002051
1.918
8.849
0.8747
0.5461
0.01923
0.02414
0.08972
0.001066
37.19
0.04471
0.01652
0.3681
0.04135
0.5139
0.5799
16.58
3.603
1.187
0.01774
0.02328
6.774
4.173
0.4703
0.2699
2.788
0.01853
0.0432
1.038
0.07199
1.322
1.433
0.01401
0.0186
0.1716
0.02003
5.543
1.836
0.009923
23.92
0.8905
9.536
0.1012
0.1028
0.01788
25.48
0.5065
1.966
0.001549
22.57
0.03432
0.819
0.1632
0.008204
18.66
0.09074
0.2623
0.1648
0.03323
0.003077
0.01222
0.2663
12
0.1397
0.07035
0.1013
1.3
1.51
3.893
0.09957
2.227
0.001468
14.95
0.03515
0.0798
0.01034
0.1602
0.01681
0.1567
0.07823
0.0226
3.806
0.0202
8.729
0.883
0.02214
0.03844
0.01584
0.0406
1.048
8.177
0.7957
3.928
0.0178
9.158
0.1583
4.635
0.03363
2.299
0.1174
1.721
0.001196
0.5747
0.01037
52.97
0.1716
5.053
0.0291
0.006669
3.574
0.2052
0.5137
0.01723
0.3058
6.129
0.2074
0.01655
0.02901
0.2865
0.5238
1.051
1.04
0.01923
0.03229
2.845
0.4034
0.06825
0.5386
0.03423
0.05709
0.05131
0.6235
1.598
1.147
1.396
0.04986
0.2972
0.5057
0.06472
0.003098
0.4382
0.01234
0.00727
0.2595
0.273
1.135
7.291
0.4436
4.153
2.23
0.3653
1.402
0.2432
0.5755
0.03874
0.1012
0.02206
2.227
0.0147
1.496
0.0178
0.001007
0.03388
0.1178
6.756
0.4427
0.006792
0.02525
0.6414
1.126
1.883
0.1925
1.304
0.01768
6.575
0.0165
1.163
0.08058
0.9975
0.01242
10.52
0.01915
0.01101
0.0118
1.13
25.35
0.3539
0.07749
0.5571
0.4892
0.01343
0.442
6.931
0.01215
0.9126
6.398
0.7055
0.6616
0.5051
1.141
0.001092
0.03262
0.01734
0.9498
0.3779
6.878
19.05
15.62
0.1997
6.67
14.23
0.02175
6.79
2.628
0.3902
0.4619
0.0448
0.5488
0.166
30.02
0.3962
0.9154
0.006037
5.259
0.1037
0.1021
0.05465
0.2054
0.3853
0.6483
5.61
0.3953
0.04744
7.518
0.02008
0.0145
0.02114
0.4781
0.2165
0.05462
2.961
1.131
22.29
0.06364
0.03232
0.01096
0.008774
0.04614
9.513
0.5512
0.05485
0.02653
0.3364
0.03182
1.982
0.00482
0.6239
10.82
1.594
0.1062
0.6618
0.9718
0.758
1.336
0.01904
0.9414
10.57
0.04004
0.02235
1.026
6.228
0.1401
10.58
2.524
1.077
0.4493
1.584
0.002977
5.507
1.535
0.5119
3.66
0.2446
0.04472
76.39
0.0007695
0.00138
0.00304
0.7271
8.396
26.31
0.001084
0.7833
0.4919
0.9142
7.273
7.893
1.548
0.2433
0.9443
1.064
0.06156
10.49
0.008226
0.109
1.195
0.02252
4.448
0.01207
0.138
0.05035
0.9022
0.009857
0.8689
1.27
0.4825
0.02787
12.39
0.04163
0.001374
0.01815
2.986
0.04482
0.9019
0.09357
1.098
0.01615
0.09413
1.346
0.007694
1.262
0.5516
1.354
0.6546
0.01993
25.14
0.04671
0.1469
0.1026
0.496
1.779
0.04695
0.05297
0.01385
0.01312
0.02444
17.83
1.485
0.4739
0.1591
0.7179
0.04663
0.03314
0.02137
0.02081
0.1633
0.4786
5.732
0.1585
1.986
0.647
0.2929
12.18
0.02177
0.02859
0.004151
0.01053
1.148
0.1704
0.01722
1.239
10.97
2.244
1.51
1.68
0.1028
0.3254
0.01598
1.34
0.335
0.02965
0.1246
0.01776
3.401
0.2754
0.575
0.1746
0.1325
0.04201
0.4551
19.48
0.005865
0.02122
0.02438
0.05712
3.701
0.06529
0.06519
0.6907
0.01294
0.1442
0.03383
0.05188
0.5734
1.907
5.973
0.004784
0.04714
0.04227
3.479
0.12
0.07077
0.7543
0.06799
0.02615
0.01188
0.01868
0.01126
0.02572
1.448
0.3683
0.106
7.748
0.03743
0.1971
0.2991
0.1501
0.06592
131.9
0.5882
14.34
0.103
0.01979
0.359
0.001438
19.85
0.001423
26.85
0.2629
0.00206
6.048
0.01777
0.1894
0.6533
0.01649
23.93
0.02998
15.71
11.48
0.39
0.01428
1.525
0.02041
0.0835
18.97
4.519
0.02649
0.02555
0.01605
0.02517
0.1427
0.001144
0.223
11.48
0.0176
3.541
0.5324
0.1268
0.03331
0.005839
0.9388
0.01623
0.5707
2.015
5.934
2.496
1.996
0.003763
0.002586
1.739
13.55
0.4737
12.34
0.001238
0.6761
0.01154
0.5656
0.001196
0.5595
2.077
15.67
0.02037
1.353
0.01823
0.05825
3.814
4.696
1.024
3.272
0.004776
0.001878
0.3933
0.01226
3.515
2.064
7.816
0.007744
0.5699
0.01816
14.41
0.6347
0.1931
0.009629
0.002929
0.01552
1.602
29.54
0.001143
0.1425
0.02022
0.61
2.743
0.02847
0.03144
0.3053
26.54
0.04047
0.7725
2.121
0.01754
0.4934
4.852
0.03782
0.01596
0.003865
0.01532
0.2299
0.04725
0.4448
0.003609
5.351
0.01707
0.02079
1.598
0.3704
14.44
2.947
0.04183
0.04363
0.0623
2.941
0.4997
0.3896
0.4418
0.01902
0.06054
0.6906
0.02274
3.02
0.01164
1.233
0.8493
0.7509
0.01612
7.709
1.571
0.0742
44.29
0.01598
25.48
6.12
1.047
18.29
0.2969
5.512
1.296
0.02312
3.297
0.001286
3.206
1.631
2.247
0.02046
0.05041
0.777
2.949
0.01016
0.235
1.366
1.808
0.006695
10.77
1.219
5.614
0.3485
0.5761
1.999
4.836
28.56
0.1129
1.273
0.001165
3.085
1.18
0.4171
0.01547
1.703
0.02492
1.583
0.3973
0.9075
1.555
0.8385
1.019
0.7975
0.1928
9.448
0.3638
0.02814
7.717
0.1592
0.0571
0.01871
0.5973
0.02984
0.006625
0.01776
26.01
0.08112
0.001946
0.4371
0.006335
0.004798
0.0007556
8.747
0.0498
0.521
0.001948
1.755
0.01909
1.58
7.369
1.546
0.0153
0.6066
0.4378
0.0006103
0.3808
0.5312
0.6017
0.001487
1.87
0.00127
0.0005831
0.01817
14.35
10.09
0.02543
0.6399
0.1041
0.01574
0.5653
0.04026
0.1889
0.2477
0.4945
0.001192
0.2698
0.2907
1.574
0.2125
2.856
0.03123
0.195
3.201
0.04386
0.2054
0.4514
1.33
0.4794
6.574
0.2278
0.003947
0.2001
1.279
0.3531
0.08618
2.425
0.231
8.052
0.008631
0.01415
1.884
15.97
0.06008
119.2
0.01526
0.6961
0.747
78.49
1.041
107.7
6.275
1.338
0.9038
0.003012
0.1458
3.758
0.04084
1.593
14.56
0.06813
0.8535
0.2703
6.608
4.337
0.007536
0.007602
0.02473
0.0161
0.07735
5.684
0.6546
0.01458
61.12
0.05107
0.1917
0.1755
0.1969
0.4795
0.4185
49.21
0.666
0.09465
50.41
1.423
3.278
0.7537
1.829
0.002189
12.51
0.03431
0.01489
0.7518
0.1131
0.06307
0.2767
0.2841
0.5161
1.466
6.123
0.291
2.054
0.3812
2.727
0.7855
0.1067
2.165
1.42
0.06247
1.449
0.4515
0.8118
2.28
27.22
0.002998
0.03236
0.01245
0.4863
0.4202
0.5487
0.222
1.085
1.74
6.179
0.01727
10.26
2.384
2.478
0.08593
2.248
0.6205
1.41
0.01554
0.6133
0.00517
313.9
0.001281
0.7149
0.9065
0.1933
1.378
2.446
0.04418
0.02123
0.01724
7.485
0.06505
0.8429
2.12
0.5593
0.0366
0.01122
0.00633
61.14
1.174
0.01342
0.005136
0.1048
0.2385
8.332
0.06579
0.4732
1.071
1.164
6.629
0.4217
5.903
0.7416
0.4335
0.1713
0.008553
29.36
0.01701
0.1391
0.008262
118.3
17.63
0.06423
16.15
0.02228
23.49
0.07561
0.01629
1.725
0.5908
3.322
0.01738
0.1587
1.535
0.00829
0.008374
0.1611
0.03353
0.2162
3.949
1.326
0.08253
0.01828
7.548
4.581
1.998
0.04121
0.002811
0.4878
1.01
1.114
1.154
0.02118
0.01717
0.02001
0.8698
0.7271
0.01788
2.146
2.498
0.07958
0.3537
1.637
0.07736
2.132
0.3732
2.186
0.004528
0.01519
0.004909
0.5574
0.4472
1.133
5.561
0.0005932
0.05818
0.1122
8.69
0.3352
0.0249
1.49
0.4364
15.73
0.03245
0.01654
0.5513
0.04839
0.02924
0.6415
0.01979
1.261
0.9988
0.01324
0.4455
2.201
0.2033
14.65
0.0367
0.01543
0.007323
0.007089
0.02053
1.717
0.0007054
1.133
0.4783
2.918
0.03263
0.0177
5.263
0.0307
0.605
0.3324
0.001573
8.014
0.1387
0.5329
0.01555
5.439
0.01432
0.01583
0.001091
34.27
0.01849
2.262
0.8773
0.004901
0.01725
45.63
0.364
1.368
0.4741
0.007324
0.04386
0.3463
2.402
1.274
1.528
0.2189
0.8226
2.301
0.03524
2.116
0.01722
82.82
0.2698
0.1706
0.003013
0.5586
0.2125
2.602
13.18
0.02362
0.02028
0.9002
4.424
1.059
0.3852
0.001247
0.0804
0.8997
0.3017
0.3148
0.4929
5.618
0.0198
1.55
0.3902
6.396
0.02117
0.03991
0.0127
103.1
0.3577
0.1785
0.001025
4.132
0.4237
0.01766
0.01466
2.423
0.01416
0.2557
0.1694
0.01811
0.008319
0.4549
0.3115
0.04888
0.0102
0.607
0.4196
0.1643
0.01759
2.667
0.0157
1.625
0.5908
0.8832
2.333
0.1047
0.02065
3.599
0.7277
0.8583
0.1513
1.886
0.182
6.595
0.02314
0.01877
0.01325
6.691
0.02214
1.521
2.718
0.5035
0.3635
0.01771
0.09446
29.41
0.351
2.026
0.3293
0.2266
1.208
0.5783
0.6114
0.2863
1.244
1.687
0.2585
0.03103
3.847
0.3677
0.0161
2.38
0.185
0.01138
9.844
3.753
0.01651
6.956
0.5196
0.01784
0.01394
0.1568
0.187
0.04488
0.04092
0.681
0.9788
0.6289
0.7774
0.02918
1.07
0.2977
0.3337
0.281
0.02868
0.01835
0.0226
2.113
0.05099
0.01512
0.01626
0.06046
9.847
15.6
0.229
0.02009
0.8972
0.1635
0.3345
1.891
0.01514
0.0308
0.06561
0.0007544
0.02504
0.1416
0.0317
0.3951
0.0249
10.93
0.01471
0.008447
6.599
1.816
0.01337
0.1682
0.06518
2.459
21.19
18.78
0.04681
1.317
21.23
6.663
0.4404
20.54
0.5124
1.462
1.307
0.3536
1.462
1.108
0.0172
0.1535
7.672
0.04434
2.023
0.003225
0.001336
0.3123
2.956
0.01415
4.814
5.105
0.01451
0.397
0.06964
0.2307
0.02463
0.1919
0.8631
0.01422
0.3636
0.01661
0.972
0.0928
0.007665
0.4768
0.361
2.301
1.329
0.143
0.8035
43.69
0.01564
1.782
0.9364
0.01612
15.56
0.01859
0.1806
0.01324
0.007365
0.02805
0.02147
0.2446
2.68
0.01798
0.004726
2.658
3.059
1.865
0.02461
83.01
1.247
2.661
0.5237
0.02254
0.00115
5.007
0.0134
2.134
1.936
0.1834
0.07841
17.48
0.02834
4.563
0.02257
0.2267
0.7575
0.8855
1.913
10.52
5.625
15.37
1.058
0.03228
0.01643
1.35
0.1729
0.09958
2.088
1.125
0.01977
0.02266
0.3202
0.1214
67.69
5.102
0.9089
17
44.25
19.08
0.01625
2.983
0.697
1.561
0.0572
6.558
0.398
7.703
2.232
8.245
0.01541
0.02581
0.2404
1.64
0.168
0.3686
0.8171
1.32
0.006501
0.03139
0.0206
1.227
1.707
0.3808
1.541
0.01349
0.3284
21.81
0.008664
0.01292
0.01076
8.9
0.03033
0.03174
0.03346
0.04245
0.02192
0.4203
1.01
0.2726
0.3684
0.02563
0.165
18.6
1.288
0.326
5.76
0.01245
0.4676
5.303
0.03261
0.0499
3.049
5.187
4.191
0.04622
0.1851
0.1057
0.3697
2.817
0.5704
51.22
0.46
4.733
0.001287
0.2046
1.347
1.28
1.642
0.01827
0.002053
0.002083
0.02019
28.12
0.001767
0.00169
0.001293
0.01531
0.5068
0.00144
4.23
0.8745
0.4949
1.333
0.4151
0.1153
0.007698
0.3351
0.5622
4.324
256
81.37
12.43
0.1347
0.1855
0.04224
0.02313
3.479
0.0005447
1.817
0.01711
1.721
0.6615
0.02817
1.118
0.9673
1.072
0.03886
41.41
24.23
7.142
0.01658
85.64
0.1164
1.88
0.5885
0.1751
0.0185
0.01563
2.715
11.02
105.4
27.71
0.2405
0.02876
0.02942
0.01245
0.006097
0.04343
0.4969
0.2791
11.02
1.368
0.08415
2.793
3.39
0.2402
1.24
0.5581
0.2987
0.2644
0.01469
0.6546
0.02524
0.03685
0.836
0.03087
1.243
19.28
0.9002
0.05402
3.449
1.119
1.25
0.01847
0.1227
3.061
0.001218
0.01823
0.03668
14.02
1.051
0.01594
0.2913
0.006859
0.017
0.8688
0.01573
1.002
0.01832
0.2834
0.02143
3.592
0.0215
4.452
0.01122
0.008067
8.113
48.45
0.4819
0.3116
0.2034
2.788
0.508
1.671
0.5599
0.5664
5.043
0.004017
1.112
3.048
0.02507
4.728
0.2162
1.628
1.79
0.01649
0.2156
3.083
35.47
0.01709
0.01721
0.3566
0.02178
1.87
0.05969
0.5528
0.2718
0.3694
0.0217
0.02842
0.02816
0.2614
0.01522
0.06279
0.01289
1.781
0.01269
0.3391
0.1039
0.858
0.4785
0.01816
0.02217
0.02559
0.2406
0.6998
1.485
0.02491
0.01891
0.2146
11.2
0.2173
5.094
0.6334
0.385
1.741
0.1983
33.16
0.01959
0.4014
0.7833
0.00175
1.082
1.062
1.889
1.464
1.615
0.7812
0.2744
6.293
11.2
0.0388
0.02149
0.001222
9.835
4.766
0.07611
0.4363
1.298
0.2566
12.37
0.8685
0.8469
0.02539
0.05485
6.902
0.01814
0.615
0.04369
7.927
1.133
0.2615
0.643
1.63
0.394
1.004
0.1878
0.3181
1.403
1.284
1.069
1.966
0.02387
2.138
0.05332
0.01707
0.3471
1.004
0.002167
0.1775
0.007532
21.61
4.1
6.543
360.1
0.03844
8.161
14
1.584
0.2471
0.01077
0.07826
0.01002
0.0541
0.452
4.115
4.482
0.02245
26.49
0.07864
1.504
7.349
0.01829
4.382
0.01113
0.04594
0.3289
1.297
0.8354
0.6809
0.02284
0.08242
0.7459
0.6691
0.3553
0.03138
0.01647
0.007959
0.2075
0.01748
1.157
0.9928
0.01392
0.03565
0.08898
0.00439
0.2937
0.2994
0.9434
1.553
0.01649
82.85
0.07717
4.03
0.0009315
0.02276
0.03245
0.01502
39.76
0.03038
0.4033
0.5451
0.9873
0.3542
37.69
1.692
1.219
0.4079
10.86
0.4079
0.004604
2.499
1.149
0.688
0.3997
14.55
0.7025
0.06591
0.0042
2.914
0.9286
3.821
0.03746
0.0338
2.256
70
3.326
6.135
0.1366
0.005098
324.8
0.01702
6.959
1.06
18.15
0.02861
0.5381
0.03193
0.003628
2.383
0.01726
0.06616
18.45
4.929
0.01235
0.8334
0.03005
0.03857
0.5903
1.232
0.7422
0.3967
0.02509
0.01694
0.0425
0.0187
0.008096
0.09468
0.1091
0.322
23.66
0.009492
0.002398
0.2279
0.02291
0.004994
0.004949
0.1856
0.5308
1.137
5.914
2.329
0.02145
0.4081
0.2598
7.179
0.03664
1.327
0.0281
0.242
0.5207
0.004701
0.001971
0.0101
0.6763
1.45
4.496
0.008676
2.9
9.204
0.4159
24.46
0.01024
0.2963
1.481
0.08084
0.3292
0.885
12.95
1.097
0.01395
0.01967
0.001367
1.507
0.005326
0.02531
0.02732
1.18
46.6
0.007629
1.619
0.01819
0.01706
2.072
14.3
2.387
2.167
0.5862
0.09138
4.324
4.004
0.006627
0.0219
0.01358
0.3216
6.78
0.01909
0.005499
0.8697
0.9059
0.4153
0.4464
1.563
0.02129
0.02445
36.28
0.7901
7.19
4.654
44.35
0.07853
0.01701
14.09
0.07742
1.029
0.0009269
0.07038
0.01737
0.6276
0.3088
0.5353
0.01542
2.198
1.685
31.59
0.7987
0.5292
2.69
0.6562
0.2002
0.01686
0.01568
0.3425
0.2665
0.4155
0.02669
0.01317
0.66
17.48
0.02202
26.43
1.132
0.9178
0.02338
220.3
1.079
0.08142
0.01618
0.0226
1.183
44.46
0.8794
0.01611
0.01909
0.02316
0.5559
0.1298
2.696
0.07644
3.019
1.606
3.801
0.01936
2.881
0.3381
0.1694
0.3399
0.09634
0.08617
0.889
1.105
0.005803
0.007663
0.01946
10.51
1.927
90.91
0.01785
0.02534
0.09916
0.7198
1.838
0.03485
0.8233
0.03608
0.5429
0.02553
0.3019
1.093
0.403
0.02732
0.1743
0.01954
0.01629
0.8964
2.792
0.06107
2.44
0.3645
21.56
0.006785
0.01342
0.01785
0.0229
9.789
0.03947
1.028
0.001272
0.269
0.01739
1.016
2.57
0.3394
0.2528
0.6726
0.6301
1.748
0.007498
0.4063
1.212
0.1157
1.23
0.04649
0.1709
0.0181
0.6163
0.03823
0.002351
0.03638
9.187
0.1036
0.02376
0.5733
0.01354
0.1019
8.019
0.005525
0.006676
42.08
1.172
0.9725
155.8
4.855
1.909
0.009678
0.82
0.08277
0.2933
4.287
0.2602
0.01863
0.02542
0.01383
22.22
0.02073
0.01354
6.412
1.728
2.734
0.1608
0.02172
0.07147
10.59
0.2305
0.0503
5.285
0.7337
0.01463
0.01714
0.01402
0.01357
0.03169
14.87
0.02345
1.43
0.02016
2.225
0.06921
0.5879
0.8339
0.6414
0.09291
0.03449
0.01665
0.8133
0.008309
0.0231
1.144
16.52
0.3773
1.408
0.001285
0.01665
0.1819
0.7019
0.001763
0.001555
0.4902
0.007702
0.4927
0.7446
1.087
1.093
0.1248
0.1721
0.7716
0.03295
22.65
1.102
0.4747
0.2669
0.04912
4.045
1.315
21.76
0.0164
7.893
0.008457
0.04223
0.02231
0.1029
12.21
0.1349
0.03893
0.05248
0.01619
0.4834
0.489
16.63
0.3589
0.03159
0.04833
136
1.11
0.009314
0.02439
0.03229
0.1634
2.494
0.2981
0.005351
0.06657
0.06645
1.379
0.2465
9.129
0.03271
0.04065
7.807
2.263
1.943
1.54
0.206
0.02087
2.308
4.104
6.15
0.4896
1.27
5.788
0.02988
0.6266
0.09202
11.37
0.897
0.01849
1.057
0.01901
0.9518
0.2348
1.264
2.049
0.6855
3.558
3.963
1.409
15.99
0.4049
7.545
0.1592
0.3637
0.006684
0.5943
0.4076
0.8419
0.02754
0.5326
0.3266
0.002878
0.9933
176.5
7.726
0.01703
0.01848
1.708
19.74
0.314
0.01511
0.6795
0.07121
14.03
19.42
31.48
0.00871
8.481
0.665
0.001402
0.001444
0.01331
17.48
0.1998
1.023
0.4167
0.674
0.01166
0.003868
141.8
1.148
0.0285
0.01836
0.1051
0.6299
0.009278
0.2569
7.879
1.147
0.001322
4.454
0.5765
0.03461
0.03142
0.01592
1.509
0.006168
0.01952
0.8242
49.75
0.04174
2.292
4.212
0.7057
0.09951
0.3815
2.194
0.2488
0.01224
0.0807
2.327
0.01708
1.001
0.002368
0.003537
0.003539
0.634
0.6109
0.01574
14.17
0.03943
0.01706
0.01611
0.5772
0.6284
0.8118
1.615
0.07845
0.4844
2.863
0.1243
0.0266
0.006264
0.02686
0.5584
0.001588
0.001611
0.04436
0.2808
0.008026
7.076
0.1924
6.434
0.5738
2.999
0.02177
7.22
0.3012
0.7767
0.2244
2.26
0.959
0.2786
0.3677
0.02986
0.1979
0.05235
1.42
0.07054
0.09757
0.123
0.09378
54.22
1.16
0.271
0.4801
0.6049
0.01985
0.04512
0.3126
1.769
1.44
0.5774
0.01575
0.01922
0.01731
1.27
0.03122
10.35
0.0192
2.692
0.01738
0.01591
0.3803
3.9
0.4051
0.02152
0.006126
11.68
0.02557
12.46
11.71
0.7084
0.1043
0.5301
0.02013
0.006233
0.6335
4.65
0.2868
2.175
0.175
5.136
0.2018
0.01113
0.1254
1.018
0.3113
0.2222
0.5528
0.01514
0.06344
1.454
0.01108
0.009515
0.8811
0.3256
17.24
0.2953
0.9115
0.482
10.64
0.8535
0.01749
0.01179
9.961
1.497
0.7369
1.003
3.828
9.739
0.01957
166.9
0.3542
0.01226
0.08815
1.476
0.01739
43.82
0.02121
0.02462
0.6148
0.007332
13.39
5.896
0.03935
0.4181
10.98
7.78
11
2.114
0.01747
0.09504
2.545
7.209
0.07991
1.02
0.2789
0.08174
0.02327
0.02198
3.551
1.088
0.5262
0.01125
19.65
6.516
0.1043
0.4775
0.4985
0.01867
21.17
0.2451
0.7291
7.292
4.378
0.00135
0.008552
0.01566
0.1257
0.01644
1.07
1.465
1.937
0.6881
0.1612
1.218
0.04796
0.00135
0.03822
0.0174
3.946
0.4302
0.564
0.01735
0.1034
0.254
0.2154
0.2935
4.9
0.007288
1.161
0.7344
0.6111
3.193
2.332
0.7829
0.0006336
0.8383
3.739
0.2909
0.08966
8.302
8.883
0.02265
0.3563
0.01837
0.073
10.74
0.01407
0.01231
1.029
0.7321
54.36
0.03197
2.263
0.02246
1.078
0.02077
0.9158
0.03797
0.5098
0.175
1.086
0.05864
0.3079
0.9697
1.723
3.519
0.05234
0.01896
51.75
0.01953
0.07852
0.0007755
0.0007771
3.802
0.0152
16.05
0.04544
0.4485
0.154
0.1963
0.2031
0.3927
0.01716
0.01459
0.641
0.1227
1.153
1.23
0.02142
0.002521
0.2726
0.4626
0.01219
0.4995
0.2909
0.4957
1.012
0.04753
1.942
0.02711
7.198
0.02774
0.2784
0.071
3.257
7.218
0.1699
0.622
40.95
0.002364
1.084
1.586
0.1739
0.007998
1.301
0.0177
0.7422
0.0267
1.196
0.07929
0.9216
0.01845
0.4126
0.02756
0.3596
0.01487
0.04639
9.894
4.094
1.435
0.0145
0.0265
1.371
0.2756
9.279
0.3245
0.01442
0.07814
0.4083
0.05526
0.3244
1.797
4.997
0.01258
0.01929
0.2078
0.002819
3.844
4.825
0.8072
0.005604
0.1642
0.01884
0.463
0.01724
0.008443
0.01811
15.28
0.0118
4.523
1.355
0.01138
8.275
2.211
0.6803
0.0731
0.02494
4.881
1.913
0.5194
0.02931
1.503
0.01883
0.006133
0.05518
0.002977
0.01584
7.317
25.2
8.398
0.01284
0.01721
0.02351
6.373
0.1907
1.78
0.1944
0.2125
1.565
0.01429
17.77
0.01757
0.1329
0.8745
0.09
0.2161
0.06956
0.02257
1.255
27.93
1.763
14.51
4.54
0.1173
0.02225
0.1218
0.1795
2.005
0.2277
0.5033
0.006073
1.249
35.07
0.01836
1.699
0.01324
0.2771
0.484
0.4066
0.8818
1.707
1.046
0.4049
0.4949
0.03712
0.004433
0.02254
0.01701
3.873
17.76
0.8931
0.4919
0.1934
0.3778
1.707
0.7597
0.03131
0.03466
0.01353
0.03786
2.13
35.31
0.7466
0.2921
0.004352
0.1212
7.96
0.01871
0.01639
0.02754
0.5662
41.93
0.143
0.2747
0.03189
0.1841
3.46
37.59
0.7098
36.63
0.01786
0.107
0.4304
1.752
0.8709
0.1944
0.06502
0.02367
0.05194
0.01026
0.005172
0.2681
0.0285
0.0163
0.2431
0.01363
0.02715
0.02843
0.01868
0.4731
0.3991
0.01066
0.2418
0.4349
0.03425
0.5632
0.4135
0.05611
10.69
1.191
0.1305
0.01658
0.8415
0.01784
0.2075
3.012
0.5889
0.006063
0.2682
26.7
0.4167
4.03
1.456
8.406
3.768
0.1189
0.234
2.027
0.002463
1.275
0.05341
0.151
0.3979
8.633
0.005921
0.9398
62.63
0.001127
1.125
0.01626
0.005075
13.22
0.005937
0.01322
0.02013
0.6021
0.1495
5.62
0.101
1.044
5.904
4.897
0.02074
0.01758
0.002836
66.42
0.007952
0.4271
0.02131
13.66
0.1401
0.01469
3.605
1.594
0.02064
0.00213
0.8611
0.08725
7.245
3.574
0.04163
0.01838
0.7043
0.01699
0.1549
1.422
1.215
40.17
9.368
0.01831
0.1965
0.6178
0.001928
0.1058
0.5138
0.4545
1.002
0.03468
0.01685
0.002633
1.757
0.02204
0.09146
0.0935
0.01642
0.04044
0.02696
0.007394
1.217
0.01597
0.02521
0.3778
0.133
0.02975
0.01733
1.518
0.01236
1.502
2.488
0.032
0.009329
0.01382
0.654
3.009
0.9094
0.4561
0.2187
0.08043
0.1161
8.608
4.44
0.3075
7.15
0.3833
0.04819
0.9791
8.349
1.254
0.05366
0.1818
0.468
0.01706
0.5406
0.02898
0.7357
2.171
18.98
0.3788
0.4992
0.4361
0.01802
0.5128
6.865
0.04063
0.0675
0.549
0.4029
0.001842
5.861
161.5
8.59
0.04116
1.784
21.29
0.1579
4.097
0.07887
0.01173
19.2
0.008894
1.496
4.342
1.089
0.5327
0.4556
2.535
0.3584
0.428
0.3102
1.101
1.864
0.007992
0.01904
0.3235
1.443
0.01721
0.006205
0.01907
3.172
0.01177
0.2073
0.6265
0.5547
5.463
0.002358
4.658
0.1463
0.02131
0.01187
0.7476
23.89
0.05182
0.281
0.002328
0.01756
0.001987
0.002149
0.01723
1.034
0.01689
21.42
0.6622
7.931
0.4234
0.01887
0.5889
0.01963
8.458
0.1972
0.08966
2.834
0.8416
0.06166
0.06047
1.026
0.0201
0.002652
0.5854
0.1171
0.0384
3.051
0.002194
0.003061
0.003057
0.4057
0.1385
26.53
1.123
0.1596
0.0008877
0.0008817
0.01369
0.02611
0.02272
2.016
0.3209
1.86
0.1831
0.1791
0.01738
0.1939
1.829
2.28
1.12
0.9303
0.6736
0.01648
1.287
0.01085
0.3079
1.175
0.1303
0.1326
0.9204
0.6679
0.03743
68.09
1.899
0.003986
1.026
0.7429
6.934
0.01122
0.6592
0.6373
1.091
3.547
0.1934
6.901
6.821
0.01955
0.5347
0.01232
0.01077
29.63
10.62
0.2736
58.68
0.08337
0.05645
1.171
0.01459
1.017
0.1877
0.3651
24.51
0.6569
0.01307
15.78
0.5762
0.6127
0.2987
0.6519
1.643
0.09183
1.618
27.14
0.04139
0.02329
1.413
0.00113
0.03299
0.4363
0.8804
15.84
0.1435
1.025
0.2488
0.002634
0.596
43.53
0.07151
0.2779
0.005663
0.405
0.3864
43.26
0.2635
0.2035
4.672
3.278
0.0255
0.2177
0.01683
6.79
18.71
0.02284
4.073
17.55
0.1743
2.009
3.901
0.7007
1.116
0.03616
0.002818
24.71
0.008868
0.8659
0.01657
11.77
0.01964
12.63
0.8573
3.071
0.05519
0.00146
0.03088
0.1493
0.4091
0.4624
0.0006965
47
3.888
0.008569
0.01762
0.301
0.5917
0.5582
4.113
0.9451
0.01483
2.077
3.994
0.01727
36.17
0.01067
2.514
8.824
0.3052
0.01635
0.625
0.01726
2.057
4.989
0.107
0.004627
0.01832
0.2353
2.767
0.5095
2.084
0.214
0.4663
2.226
1.794
0.003116
0.01557
0.01797
15.76
5.724
0.0531
1.351
0.01237
0.02592
1.083
0.002659
0.6386
0.9104
0.0169
1.689
0.8925
0.4313
0.2043
3.077
2.408
0.0008959
0.0007427
90.65
0.7935
0.3712
0.01679
0.01684
0.3726
4.707
0.02183
0.01404
0.8656
0.05048
0.01499
2.166
5.832
38.24
0.07546
1.064
0.5217
0.01803
1.916
3.128
0.02181
0.03569
0.01271
0.07941
0.6957
9.285
0.7333
1.722