/*--------------------------------*- C++ -*----------------------------------*\
  =========                 |
  \\      /  F ield         | OpenFOAM: The Open Source CFD Toolbox
   \\    /   O peration     | Website:  https://openfoam.org
    \\  /    A nd           | Version:  8
     \\/     M anipulation  |
\*---------------------------------------------------------------------------*/
FoamFile
{
    version     2.0;
    format      ascii;
    class       volScalarField;
    location    "10";
    object      nut;
}
// * * * * * * * * * * * * * * * * * * * * * * * * * * * * * * * * * * * * * //

dimensions      [0 2 -1 0 0 0 0];

internalField   nonuniform List<scalar> 
63579
(
1.57e-06
6.761e-06
3.358e-06
1.43e-06
4.757e-06
2.438e-06
0.0008942
0.06148
0.0009035
8.942e-05
8.443e-05
0.05276
8.67e-05
4.514e-05
0.1567
4.732e-05
0.001318
0.01482
0.0175
8.771e-05
0.0011
0.4062
0.5089
0.0005401
0.5052
0.02804
0.479
0.01801
0.6153
0.018
0.4
0.4849
0.5791
0.5386
0.0005603
0.6344
9.605e-05
0.001804
0.01907
0.001265
0.4407
0.001835
0.03954
0.01559
0.6353
0.001214
0.0005151
0.01227
0.003063
0.4009
0.009043
0.5105
0.0009891
0.005221
0.5746
0.01366
0.5337
0.5792
0.5414
0.5133
0.003274
0.04102
0.0001019
5.103e-05
0.4935
0.000517
0.005403
0.0001897
0.04286
0.556
0.003984
0.0001834
0.6205
0.0003703
0.009839
0.001317
0.07172
0.002187
0.02808
0.0004911
8.226e-06
0.4299
0.0001746
0.01456
0.0005098
0.4222
0.01168
0.004932
0.3652
0.004275
0.001161
0.2922
0.004953
0.2031
0.0005546
0.05732
0.005447
0.00105
0.319
0.002511
0.5573
0.5572
0.5711
0.5686
0.4089
0.1083
0.1228
0.006585
0.0579
0.5747
0.5631
0.0005265
0.00621
0.1239
0.004738
0.5835
0.001242
0.000277
0.2115
0.06802
0.5685
0.0005152
0.001968
0.4153
9.962e-05
0.005148
0.0009024
0.008761
0.4954
0.0007013
0.007593
0.1047
0.3136
0.5568
0.001624
0.0128
0.0002224
0.366
0.001528
0.3142
0.007579
0.4262
0.0354
0.01279
0.5761
0.5742
0.5742
0.001415
0.2803
0.02893
0.0691
0.01013
0.5329
0.006798
0.0002962
0.0201
0.02114
0.01437
0.002987
0.006792
0.5627
0.006934
0.002717
0.0004323
0.4314
0.5729
0.001845
0.0002801
0.1585
0.06463
0.3765
0.005098
0.001782
0.2744
0.004632
0.5742
0.1606
0.5386
0.5385
0.0754
0.009055
0.01194
0.00618
0.005426
0.001354
0.0003396
0.0003904
0.3637
0.00457
0.4016
0.5907
0.5714
0.2075
0.312
0.009987
0.3732
0.0001717
0.3335
0.0006278
0.31
5.804e-05
0.0004743
0.01936
0.5376
0.216
0.5175
0.02734
0.0009149
0.001022
0.02713
0.3643
0.3245
0.5842
0.2134
0.007804
0.005234
0.6365
0.001325
0.004233
0.0003602
0.04395
0.003568
0.0001842
0.001385
0.4155
0.08582
0.01903
0.06066
0.09961
0.4991
0.5906
0.006571
0.4139
0.5376
0.5732
0.008179
0.5
0.5712
0.001462
0.2051
0.0006186
0.008573
0.2061
0.0002473
0.005819
0.007142
0.378
0.5642
0.4411
0.04167
0.1497
0.383
0.002394
0.0001213
0.001583
0.0004443
0.005183
0.566
0.5495
0.002376
0.002022
0.003985
0.007664
0.06189
0.006474
0.5683
0.0001163
0.5637
0.5882
0.5732
0.002783
0.01092
0.000595
0.3855
0.001147
0.0003192
0.494
0.01031
0.1161
0.3734
0.0002786
0.4457
0.06137
0.004492
0.0003362
0.5407
0.005356
0.4487
0.01943
0.001667
0.537
0.000314
0.004675
0.6171
0.6087
0.1127
0.005844
0.5723
0.3412
0.006847
0.0007313
0.005076
0.01092
0.5508
0.4921
0.003667
0.4338
0.005742
0.314
0.0001657
0.5722
0.3017
1.952e-05
0.3826
0.003279
0.5728
0.007976
0.5732
0.5761
0.0007511
0.0004245
0.0005052
0.003443
0.001485
0.002011
0.0001988
0.4446
0.0004934
0.5743
0.005942
0.4973
0.4887
0.5742
0.0258
0.001434
0.4645
0.5347
0.0003307
0.008331
0.004067
0.4635
0.02047
0.4095
0.3394
0.0002444
0.5013
0.3015
0.4199
0.04711
0.1013
0.007843
0.05271
0.0002089
0.4431
0.5247
0.001687
0.02186
0.02708
0.4513
0.5246
0.06114
0.0007186
0.00201
0.05734
0.0009434
0.5661
0.4792
0.08647
0.0277
0.0003148
0.00101
0.3032
0.1476
0.0008091
0.005234
0.3043
0.003916
0.001185
0.0004401
0.00125
0.001111
0.003286
0.007266
0.02669
0.02143
0.4283
0.002587
0.002524
0.002078
0.5626
0.3116
0.0001599
0.358
0.3483
0.5702
0.002075
0.5532
0.006289
0.01511
0.0211
0.005041
9.106e-05
0.3798
0.0004096
0.4006
0.00994
0.5903
0.4972
0.0118
0.3123
0.00242
0.002947
0.003345
0.4263
0.5663
0.4103
0.009817
0.02997
0.5279
0.0154
0.4247
0.5016
0.07817
0.5269
0.0003461
0.003877
9.197e-05
0.4514
0.003794
0.581
0.000354
0.5156
0.002097
0.0003113
0.4631
0.04562
0.0001911
0.0003843
0.01832
0.01075
1.275e-05
0.5785
0.0007005
0.000979
2.258e-05
0.4276
0.0001082
2.668e-05
0.5405
0.002505
0.2916
0.2935
0.4545
0.005392
0.01968
0.2692
0.001465
0.002329
0.5188
0.2804
0.006249
0.0009651
0.571
0.0008414
0.4121
0.4259
0.1476
0.007359
0.003544
0.002927
0.2928
0.0002055
0.2918
0.007589
0.01243
0.0008928
0.5523
0.5823
0.006569
0.005653
0.003809
0.0002094
0.0002069
0.5659
0.5776
0.5634
0.03571
0.001004
1.523e-05
0.008322
0.002653
0.5625
0.5521
0.01835
0.6139
0.003819
0.02416
0.008011
0.6368
0.02668
7.174e-05
0.02177
0.0009588
0.00299
0.001941
0.0001786
0.4174
0.0008853
0.5725
1.531e-05
0.4231
0.6045
0.002665
0.00094
0.02516
0.02398
0.4059
0.01048
0.4505
1.702e-05
0.5685
0.4299
0.5679
0.006328
0.05674
0.5623
0.0003599
0.5805
0.002162
0.06808
0.01081
0.0005485
0.0007612
0.004858
0.3841
0.1854
0.001616
0.0008853
0.0006993
9.149e-05
0.03656
0.3393
0.0002219
0.3793
0.001011
0.002898
0.002438
0.01839
0.002948
0.0004736
0.4575
0.495
0.6385
0.01116
0.2156
0.03652
0.03887
0.5476
0.5563
0.0478
0.3399
0.007995
0.2963
0.0005317
0.001106
0.3975
0.001688
0.577
0.004609
0.002391
0.5959
0.004015
0.0007997
0.003405
0.267
0.0003271
0.001532
0.001867
0.002777
0.0006018
0.0008051
0.0605
0.002207
0.06355
0.0004593
0.5488
0.567
0.1709
0.5796
0.002595
0.009603
0.003137
0.0009458
0.005077
0.08319
0.006866
0.02972
0.01478
0.007556
0.2168
0.5802
0.0003502
0.5166
0.0007309
1.852e-05
0.5549
0.1098
0.4823
1.866e-05
0.01896
0.00713
0.4248
0.4564
0.3334
0.3316
0.006686
0.001109
1.523e-05
0.01397
0.0001894
0.4785
0.003191
1.436e-05
1.236e-05
0.01306
0.001279
1.213e-05
0.5367
0.000865
0.0009817
0.4915
0.0007464
0.004866
0.0006277
0.5532
0.01372
0.5725
0.002882
0.0002242
0.01727
0.01286
0.0001589
0.1141
0.002589
0.0002934
0.5714
0.002274
0.4745
0.01308
0.3568
0.4336
0.0004082
0.0008652
0.6148
0.5611
0.5992
0.5558
0.6118
0.5643
0.05961
0.6317
0.005303
0.2884
0.0017
0.005031
0.0008969
0.001741
0.56
0.0001665
0.5793
1.501e-05
0.001552
0.0008401
0.3841
0.3788
0.06264
0.00361
0.01536
0.01163
0.1422
0.01251
0.0002254
0.03472
0.01292
0.00297
0.0008148
0.5549
2.75e-05
0.2086
0.003141
0.1959
0.001965
0.5658
0.003594
1.207e-05
0.0001845
0.01795
0.3427
0.001029
0.5616
0.04823
0.003838
0.000469
0.1653
0.001257
0.0003425
0.3984
0.3982
0.0006452
3.216e-05
0.003263
0.0002618
0.2091
0.4772
0.5688
0.5596
0.4632
1.582e-05
0.5742
0.0002072
0.02492
0.003322
0.4119
0.0001905
0.001784
0.4248
0.001061
0.0007833
0.1423
0.4126
0.3807
0.6319
0.02489
0.4341
0.5838
0.002394
0.4955
0.00852
0.03438
0.5745
0.542
2.177e-05
0.00473
0.002938
0.4827
0.02465
0.07204
0.373
0.01032
0.4624
0.001512
0.5517
0.626
0.02087
0.001983
0.005944
0.0003622
0.5365
0.0001282
1.59e-05
0.0001928
0.2264
0.007219
0.0001687
0.001344
0.4072
0.5648
0.001572
0.5806
0.5731
0.03721
0.5107
0.003444
0.2117
0.0008014
0.5892
0.0009546
0.0002111
0.01074
0.001708
0.2495
0.0004171
0.00258
0.0003456
0.0002692
0.002422
0.2237
0.001185
0.05775
0.003098
0.4947
0.3161
1.628e-05
1.785e-05
0.01798
0.4172
1.843e-05
0.00205
0.06232
0.0007415
0.326
0.6394
4.985e-05
0.00462
0.003438
0.002018
0.5855
0.003558
0.02176
0.005474
0.4251
0.002692
0.0001223
0.5656
0.4579
0.3945
0.009607
0.01124
0.003653
0.01903
0.4172
0.4603
0.03358
0.6051
0.001765
0.366
0.4136
0.4343
0.004329
0.4431
1.507e-05
0.02098
0.009167
0.001574
0.01577
0.571
0.001166
0.01684
0.002139
0.6088
0.0007521
0.0001927
1.559e-05
0.001105
0.4207
0.002535
1.019e-05
0.3694
0.0008653
0.001746
0.3
0.0002953
0.0001765
0.4435
0.007317
0.001563
0.1198
0.5547
0.0005605
0.0003445
0.001839
0.000194
1.666e-05
0.4159
0.001147
0.00592
0.006026
0.002328
0.4165
0.00271
8.687e-05
0.01642
0.0134
0.5684
0.4455
0.0248
0.4924
0.003289
0.002103
0.001011
0.006852
0.001576
0.0007987
0.06749
0.002776
0.008059
0.008356
0.3332
0.5736
0.5933
0.0002181
0.002528
0.004573
0.3753
0.0002327
7.818e-05
0.07597
0.01831
0.5882
0.0002487
0.001294
0.01062
0.0002138
0.001911
0.06094
0.0004555
0.5619
0.0003748
0.00348
0.3681
0.3663
0.03425
0.4823
0.4629
0.2935
0.01745
0.5434
0.02862
0.577
0.5118
0.007181
0.1199
0.000369
0.07185
0.002549
0.0004677
1.665e-05
0.5732
0.4255
0.01092
0.5796
2.524e-05
0.0004977
0.3058
0.3058
0.0006951
0.002417
0.2717
0.01573
0.6351
0.0002285
0.001793
0.003139
7.479e-05
0.008782
0.561
0.008795
0.001702
0.0003589
0.0008447
0.0001432
0.08444
0.2921
0.2931
0.009745
0.0007661
0.3821
0.5742
0.005478
0.6143
1.818e-05
0.004686
0.0479
0.003196
0.1414
0.0001178
0.001719
0.4014
0.007982
0.008293
0.002863
0.002698
0.00759
0.0003791
0.002299
0.0002816
0.006884
0.009159
0.00603
2.047e-05
0.02393
0.5417
0.6194
0.001997
1.741e-05
0.0625
1.075e-05
0.003599
0.3692
0.02655
0.5751
0.0003765
0.01057
0.5626
0.02223
0.000477
0.03857
0.01008
0.2114
0.00155
0.006303
0.5267
0.0008965
0.00543
0.5712
0.001109
0.0007572
0.006265
0.003685
0.0003252
0.001059
0.003908
0.009041
0.3757
0.5728
0.599
0.004048
0.5558
0.003229
0.0003295
0.0008368
0.1643
0.33
0.0003538
0.01141
0.001778
0.4276
0.6067
0.01609
0.5265
0.004382
0.002376
0.0004696
0.0003665
2.125e-05
0.001209
0.0774
0.003195
0.009742
0.4147
0.01149
1.867e-05
0.002784
0.0004882
0.4357
0.004142
0.000787
0.5624
0.00561
0.0001467
0.005669
0.001398
0.6276
0.6276
0.001403
0.008039
0.549
0.0003583
0.5134
0.5226
7.243e-06
0.000616
0.422
0.0004386
0.06521
0.000573
0.4161
0.01693
0.3893
0.3364
0.3552
0.2942
0.08579
0.005903
0.0008338
0.01014
0.2937
0.003981
0.001003
0.136
0.002931
9.041e-06
0.001625
6.007e-05
0.01974
0.001915
0.5742
0.001044
0.01125
0.2803
1.66e-05
0.579
0.4211
0.458
0.007413
0.002687
0.5449
0.5649
0.04561
0.01168
0.0004035
0.0009065
0.04271
0.02118
0.5742
8.564e-05
0.5719
0.4225
0.4155
0.0002468
0.001074
0.586
0.07379
0.001735
0.4283
0.03023
8.832e-05
0.6183
0.4022
0.07288
0.5151
0.003095
0.0001079
0.07058
0.0003977
0.5752
0.0009109
0.5788
0.000316
5.617e-05
1.532e-05
0.02519
0.2088
0.561
1.531e-05
0.00261
0.6424
0.2419
0.01701
0.5756
0.001756
0.001858
0.001672
0.0005352
0.1419
0.0006277
0.4608
0.0002595
0.0004263
0.5759
2.444e-05
0.6349
0.002789
0.001329
0.3711
8.181e-06
0.3549
1.618e-05
1.66e-05
0.0008159
0.0006691
0.07647
0.003283
0.4717
0.004023
6.414e-05
0.002551
0.002214
2.216e-05
0.2753
8.011e-05
0.06453
0.004293
0.3443
0.004847
0.3452
0.555
0.01201
0.001509
0.3049
0.3687
0.0002837
0.3043
0.001042
0.08758
1.438e-05
0.2518
0.0004722
0.0004153
0.001392
0.01121
1.563e-05
0.3523
0.004295
0.5694
0.006035
0.001944
0.005015
9.113e-06
0.3648
0.2862
0.003989
0.6338
0.001278
0.001834
0.3267
0.6046
0.2807
0.0001394
0.5848
0.001432
0.008393
8.912e-05
0.4123
0.2183
0.0005112
0.0007855
0.00401
0.551
0.001085
0.5558
1.549e-05
0.0004335
0.0003707
0.01664
0.3751
0.4735
0.01014
0.5845
0.002855
0.4545
0.0008203
0.5366
0.01147
0.01045
0.07933
0.0505
0.003165
0.46
0.6026
0.5482
0.2869
0.03583
0.5706
0.001481
0.004105
0.002115
0.5928
0.0001382
0.4181
9.965e-06
0.0001298
0.3387
0.07315
0.3514
0.002218
0.001956
0.001475
0.5813
0.01044
0.003413
0.0009727
0.5591
0.004728
0.0473
0.614
0.008103
0.2222
0.3262
0.005445
1.587e-05
0.009693
0.007402
0.5701
0.3686
0.05569
0.3658
8.621e-05
0.5933
0.5435
0.003126
0.5936
0.002295
0.00808
0.0008015
0.004934
0.0003952
0.569
0.5095
0.0001655
0.000916
0.01211
0.01676
0.0002423
0.5612
0.5923
0.008743
0.09228
0.0005041
0.003401
0.5562
0.5716
0.608
0.4602
0.0004123
0.0001686
0.5204
0.0006157
0.0006228
1.735e-05
0.5469
0.5513
0.5291
1.327e-05
0.001601
0.001337
0.3158
1.301e-05
0.1724
0.003162
0.6043
0.4031
0.0004832
0.054
0.007649
0.6201
0.2273
0.304
0.5475
0.007183
0.0006078
0.619
0.6107
0.08517
0.0002948
0.001707
0.003368
0.5403
0.0007891
0.3377
1.433e-05
0.127
0.111
0.3974
0.03967
0.5677
0.5976
0.08801
0.4172
0.001221
0.5739
0.001588
0.003121
0.3749
0.589
0.5663
0.1304
0.0004829
1.588e-05
0.003298
0.0001209
0.4048
1.835e-05
0.0467
0.0002301
0.1973
0.001329
0.03758
0.001351
0.3536
0.00612
0.4128
0.0001968
0.6082
0.002982
0.5803
0.3484
0.00148
0.6543
0.01189
0.5443
0.03772
2.134e-05
0.01265
0.5639
0.2546
0.04032
0.001832
0.0005535
0.01381
0.5714
0.2357
0.001229
0.003198
0.6098
0.001499
0.4374
0.1091
0.1925
0.0026
0.0005433
0.00901
0.006694
0.2004
0.005896
0.006672
0.6069
0.3904
0.008806
0.2776
0.5305
0.01076
0.006636
0.0008888
0.0003685
0.01888
5.684e-05
0.0002254
0.01555
0.000204
0.008445
0.001412
0.5728
0.03937
0.567
0.0002229
0.1944
0.000626
0.5688
0.3693
0.5879
0.5652
0.001479
0.00881
0.4475
0.5749
0.00427
0.002621
0.0002952
0.01743
0.0004407
0.5685
0.00228
0.561
0.002751
0.12
0.0008452
0.2417
0.0006948
0.4526
0.5503
0.4235
0.0009011
0.0007089
0.006532
0.03429
0.001883
0.006177
0.3516
0.03041
9.835e-06
0.5412
0.0005245
1.601e-05
0.008399
0.002909
0.003808
0.0004161
0.4065
0.296
0.5529
0.0005943
0.00557
0.0018
0.0002044
0.001554
0.01318
9.924e-06
2.272e-05
0.5754
0.002858
0.0002924
0.003555
0.007049
0.2202
0.0173
0.01739
0.0004857
0.003064
0.000504
0.3873
1.501e-05
0.07412
0.0838
0.09746
0.02025
0.006184
0.001906
1.538e-05
0.006549
0.2155
0.001792
0.5734
0.5367
0.5749
0.002219
0.06104
0.1819
0.0001617
0.0003689
0.0005847
0.08831
0.5864
0.541
0.4528
0.1932
1.482e-05
0.002091
0.4889
0.58
0.004232
0.2703
0.0007918
0.4365
0.008036
1.501e-05
0.00491
0.04721
0.001121
0.004403
0.01103
0.0005166
0.2605
0.003216
0.0006509
0.5784
0.5766
0.003804
0.002808
0.03971
0.0006556
0.0005382
0.0003497
0.00365
0.001124
0.456
1.733e-05
0.0001692
0.007726
0.0002685
0.02573
0.1206
0.0001163
0.3587
0.2854
0.4261
0.0008308
0.001682
0.0007288
0.3124
0.002609
0.00402
0.0007457
0.001893
0.0004317
0.0001608
0.02724
0.0004424
0.01839
0.6032
1.756e-05
0.5018
0.05915
0.0004192
0.3611
0.0004177
0.392
0.03705
0.08937
0.0008764
0.4389
0.0005325
0.001026
0.02935
0.5816
1.296e-05
0.2361
0.2864
0.5703
0.005276
0.5956
0.0009553
0.04104
0.001164
0.5581
0.02663
0.0111
0.5336
0.001742
0.004337
0.01257
0.001538
0.5446
0.0005767
0.5974
0.03477
0.539
0.003407
0.0001758
0.5939
0.6003
0.425
0.3757
0.5736
0.001352
0.0001775
0.00214
0.6432
0.003635
0.1596
0.1088
0.4367
0.4522
0.6258
0.009824
0.001488
0.02518
0.0001084
0.00191
0.008712
1.928e-05
0.3782
0.3375
0.3306
0.336
0.002405
0.06813
0.5679
0.0003112
0.0006844
0.001779
0.003109
0.005223
0.5413
0.008145
0.5582
0.00108
0.00525
0.2481
0.0932
0.5689
0.0004378
0.01603
0.003378
0.02437
0.04484
0.5907
0.01805
0.0001667
0.3186
0.5704
0.2538
0.6039
0.00469
0.4881
0.4878
0.008661
0.3754
0.04326
0.4744
0.5948
0.001567
0.00402
1.308e-05
0.4294
0.5969
0.07528
0.004241
0.6069
0.5294
0.001642
0.1172
0.3607
0.5371
0.1778
0.5028
0.365
0.0005011
0.003644
0.6238
1.816e-05
0.5902
0.02975
0.008936
0.04269
0.6064
1.816e-05
0.006419
1.964e-05
0.6022
0.5733
0.01108
0.415
0.0007231
0.4132
0.0006996
0.05079
0.43
0.001854
0.5665
0.01484
0.006387
0.5619
0.0002054
0.2126
0.0001299
0.001373
0.002971
0.1948
0.01391
0.5736
0.5716
0.0001465
0.002685
0.5793
0.5795
0.5626
0.2117
0.05217
0.3183
0.03173
0.0004785
0.4374
0.001907
0.003233
0.03976
0.586
0.3269
0.006885
0.291
0.001329
0.0001164
1.224e-05
0.0002328
0.003587
0.4188
0.4204
0.001024
1.82e-05
0.003511
0.001592
0.3088
0.00137
0.4374
0.002246
0.3962
0.002159
0.003653
0.0001687
0.4354
0.005969
0.5136
0.6019
0.0009367
0.004842
0.008851
0.001214
0.4996
0.3531
0.004263
0.5504
0.006701
0.0008685
2.193e-05
0.5119
0.001282
0.5162
0.0003392
0.001053
0.01719
0.4819
0.423
0.5553
0.001133
0.0002138
0.3691
0.04375
0.4326
0.003197
0.0002053
0.5801
0.103
0.01952
0.0007248
0.2382
0.002159
9.272e-05
0.5698
0.00231
0.003198
0.5888
0.5621
0.423
0.552
0.04414
0.1835
0.00368
0.3661
2.329e-05
0.5667
0.5725
0.003052
0.005694
0.001806
0.001677
0.5926
0.5673
0.1097
0.0001738
0.004418
0.005354
0.01372
0.5725
0.4831
0.003364
0.1762
0.004887
0.5482
0.0003665
0.002691
0.01109
0.3885
1.502e-05
0.000559
0.5326
9.127e-06
0.5652
1.047e-05
0.004086
0.0003726
0.0002601
0.008415
9.111e-05
0.007777
0.5691
0.00782
0.3913
0.001392
0.0001412
0.0002885
0.5732
0.4645
0.004887
0.005989
0.5489
0.01185
0.0005684
0.0008359
0.3433
0.002443
0.0004022
0.001459
0.005507
0.002273
0.0003512
0.001985
0.0001009
0.06945
0.0008717
0.3061
6.99e-05
0.001202
0.005711
0.4558
0.009286
0.5794
0.002833
0.009748
0.01197
0.0002516
0.0009729
0.0003951
0.001373
0.05518
0.001742
0.02067
0.1251
0.0003517
0.01973
0.5996
0.5716
0.004126
0.2447
0.3682
0.5686
7.964e-05
0.5453
0.423
0.003961
0.3235
0.3216
0.3589
0.001493
0.1216
0.007488
0.4214
0.0002986
0.5722
0.0003218
1.701e-05
0.0002066
0.3974
0.001136
0.003201
0.3805
0.005558
0.002155
0.001595
0.4142
0.00017
0.3414
0.3677
0.4154
0.0002595
1.604e-05
0.3745
0.00229
0.04528
0.5301
0.001478
0.2428
0.015
0.008086
0.001731
0.3949
0.01413
0.01072
0.0005406
0.01215
0.007564
0.5791
0.05318
0.0006242
0.4429
0.01407
0.005221
0.006176
0.003409
0.003644
0.0499
0.3938
0.06304
0.0002397
0.02883
0.087
0.0004578
0.6463
0.001296
0.3133
0.5384
0.001047
1.532e-05
0.6043
2.164e-05
0.5443
0.002595
0.005862
5.223e-05
0.0003689
1.648e-05
1.691e-05
0.000388
0.002344
0.3859
0.02274
0.002876
0.5829
0.0007822
1.573e-05
0.1409
0.003399
0.01074
0.001185
0.0001694
0.3121
0.3118
0.578
0.565
0.04885
9.023e-05
0.007252
0.5326
9.398e-05
0.4654
0.01663
0.02532
0.01669
0.004
0.002432
8.069e-05
0.001417
0.6191
0.0001964
0.000517
0.001435
0.0009667
0.0008127
0.4245
0.0009732
0.1469
0.5549
0.001168
0.04076
0.09823
0.009138
0.04935
0.003883
0.00616
0.001929
0.007944
0.0009076
0.02529
5.947e-05
0.01411
0.06299
0.001251
0.001553
0.6053
0.0003281
0.003545
0.003211
0.001615
0.0003188
0.4233
0.5864
0.5242
0.0025
0.01107
0.002846
0.009423
0.0004085
0.0001817
1.24e-05
0.5686
0.002595
0.0005197
0.0005747
0.5496
0.0005564
0.001328
0.0011
0.5574
0.001107
0.5004
7.213e-06
0.3064
0.001058
0.0006896
0.02595
0.007078
0.0003415
0.4434
0.4434
0.5434
0.0002681
0.09998
0.003727
0.002951
0.001654
0.4346
0.3655
0.4929
2.208e-05
0.008145
0.4431
0.3471
0.6258
0.02295
0.0004296
0.1617
0.006322
0.0004842
0.000321
2.202e-05
0.00397
0.002494
0.001637
0.02362
0.6062
0.536
0.0004717
0.5645
0.02517
0.3891
1.586e-05
0.0001723
0.6074
0.0003801
0.5757
0.0007471
0.09201
0.4826
0.0004528
0.002271
0.001183
0.5695
0.6055
0.0004292
0.3201
0.3198
0.04002
0.2668
0.01513
0.005248
0.001246
0.1301
0.3815
1.389e-05
0.00267
0.0002588
0.1411
0.3043
0.00202
0.0004049
0.0006259
0.0173
0.4411
0.5664
0.5738
0.001527
0.0007815
0.4778
0.0007913
0.002135
0.105
0.0116
0.009987
0.07448
0.0001655
0.004999
0.0004588
0.3459
0.3665
0.4992
0.001533
0.008355
0.007954
0.002865
0.3635
0.1439
0.06857
0.0009536
0.004595
0.3599
0.000928
0.02367
3.249e-05
0.3011
0.4762
0.001735
0.1042
0.5829
0.005231
0.4748
0.01289
0.003778
0.5567
0.003115
0.002773
0.02003
0.001477
0.1198
0.5497
0.486
0.3713
0.5736
0.001473
0.3467
0.0003942
0.004182
0.0003718
0.289
0.5677
0.0005657
0.3126
0.002394
0.00984
0.4218
0.00023
0.03809
0.01478
0.5648
1.206e-05
0.5593
0.5451
0.4068
0.0001374
0.5696
0.0007575
0.001903
0.4815
0.4125
9.549e-05
0.006378
0.0007566
0.004202
0.5329
0.5916
0.01219
6.613e-05
0.0003148
0.0009297
0.01767
0.0006799
0.001916
0.5888
0.0003423
0.5658
0.0001103
0.008075
0.01822
0.4534
0.001387
0.04462
0.000232
0.0006661
0.3968
0.5734
0.0006665
0.0004334
0.001726
0.004812
0.3242
0.6146
0.00246
0.04704
0.04037
0.004295
0.002731
0.4746
0.003621
0.006702
0.001834
0.4218
0.1761
0.5548
2.588e-05
0.004992
0.6123
0.3807
0.003777
0.008939
0.5682
0.5618
0.0005591
0.3027
0.01679
0.02765
0.47
0.3487
0.008348
0.01166
0.5983
0.5218
0.004189
0.01377
0.0301
0.5694
0.0001948
0.5583
0.0002431
0.007879
0.0009454
0.001849
0.04886
0.5736
4.12e-05
0.003118
0.002249
0.6413
0.001489
0.01694
1.641e-05
0.5757
0.5718
0.5555
0.000188
0.3768
0.005945
0.000994
0.01255
0.008728
0.5245
0.1102
0.0004964
0.02878
0.003515
0.007452
0.02643
0.0002992
0.001454
0.02214
0.00941
0.0058
0.002021
0.05052
0.3029
0.0001332
0.004068
0.5669
0.0003592
0.02629
0.347
0.0004168
0.0003879
0.2731
0.001691
0.002371
0.5689
0.3856
0.6406
0.03553
0.5958
0.592
0.01657
0.0006735
0.001636
0.001669
0.5711
0.0005233
0.0116
0.008507
0.01317
0.2679
0.2793
0.1367
0.000137
0.1997
0.5636
0.5672
0.06142
0.001954
0.0006469
0.01243
0.4681
0.01658
0.02148
0.01168
0.001001
0.5516
0.2291
0.5213
0.3537
0.5794
0.03871
0.2698
0.002778
0.357
0.002176
0.2982
0.4831
0.0008792
0.0002396
0.4531
0.06168
0.4926
0.00103
9.528e-06
1.181e-05
0.5971
0.003675
1.188e-05
0.001489
0.02183
0.0004727
0.001918
0.003178
0.0004871
0.006576
0.006584
0.003722
0.2614
0.03896
1.498e-05
0.14
0.002592
0.3973
0.4007
0.008708
0.001655
0.2825
0.00197
0.0003391
0.5494
0.00889
0.5
0.03284
0.2651
0.6532
0.001028
0.2175
0.02688
0.5669
0.00473
0.1056
0.3138
0.02242
0.008121
0.0001166
0.00109
0.03666
0.002022
0.0003308
0.4165
0.003524
0.001981
0.5587
0.001627
0.5714
0.0182
0.4584
0.5154
0.5823
0.2451
0.01592
0.0009162
0.5701
0.4961
0.001125
0.006979
0.004167
0.579
8.06e-05
0.000258
5.985e-05
0.001521
0.3591
0.385
0.002076
0.535
0.01018
0.0009617
0.02508
0.1175
0.0006418
0.2746
0.005327
0.5767
0.009679
0.0008563
0.002765
0.003078
1.516e-05
1.442e-05
0.001027
0.0006184
0.1837
0.5603
0.0002611
0.03787
0.06868
0.002415
0.001569
0.5735
0.1333
0.006396
0.08539
0.0001183
0.000104
0.0104
0.0001149
0.0002442
0.0001457
0.4802
0.0002306
0.0009361
0.01009
0.1693
1.311e-05
0.003671
1.487e-05
0.0001458
0.003238
0.5521
0.3166
0.02153
0.01101
0.01833
0.007254
0.01319
0.002079
0.3213
0.2599
0.4341
0.005709
0.002626
0.003935
0.0072
0.5507
0.007526
8.346e-05
0.2924
0.3592
0.3458
1.017e-05
0.3045
0.2358
0.224
0.594
0.2684
0.002683
0.004084
0.04777
0.009908
0.5753
0.6002
0.0004611
0.001467
0.01094
0.002727
0.5177
0.002315
0.001751
0.5669
0.1473
0.001876
0.0001055
0.0008574
0.137
0.02603
0.07824
0.005919
0.00709
0.001603
0.0001473
0.004386
1.885e-05
0.292
0.01882
0.0003788
0.0005089
0.004416
0.5461
0.341
0.3394
0.3598
1.309e-05
0.3728
0.373
0.2906
0.5546
0.005203
0.395
0.0002727
0.0009355
0.004464
0.0007969
0.003683
0.0681
0.5375
0.003923
0.002394
0.005956
6.828e-06
8.899e-05
0.0004925
0.02997
0.6476
0.5899
0.388
0.006087
0.3673
0.0001101
0.4904
0.0002728
0.001281
0.2717
0.008233
0.0009112
0.0008288
0.2044
0.0001085
6.399e-05
1.396e-05
0.5567
9.862e-06
0.6216
0.0005188
0.007075
0.01895
0.1644
0.5574
0.002204
0.0001908
5.334e-05
0.000132
0.02433
0.1652
0.5828
0.5526
0.3861
0.5938
0.01042
0.03535
0.002162
0.006286
0.1309
0.0001759
0.001519
0.02759
0.0009006
0.001692
0.01728
0.01527
0.5202
0.0009348
0.5793
0.2671
0.0127
0.5814
0.006832
0.0002063
0.004372
0.1787
0.0009635
0.0003786
0.0004432
0.5289
0.03161
0.008301
0.3159
0.5706
0.5695
1.511e-05
0.0004375
0.5403
0.005955
0.3159
0.4069
0.0009495
0.5508
0.005278
0.5708
0.00587
0.5753
0.005226
0.5753
0.0007816
0.5467
0.3527
2.125e-05
0.0001562
0.00404
0.005412
0.02222
0.000433
0.006335
0.001392
0.00308
0.001513
0.005681
0.4738
0.007377
9.915e-05
0.4031
0.0008105
0.0435
0.001366
0.0008945
0.5663
0.03845
4.705e-05
6.537e-05
0.556
0.5402
0.009979
0.5758
0.009549
0.1107
0.002385
0.01357
0.02689
0.3779
0.262
0.5826
0.01628
0.5649
0.5959
0.2453
0.0004547
0.5041
0.00383
0.5944
0.003875
0.001809
0.3882
0.5448
0.3474
0.6644
0.001308
0.002188
0.5751
0.567
0.01042
0.002339
0.0166
0.0006987
0.02612
0.007019
0.0004522
0.6331
0.0004922
0.4241
0.02997
0.00107
0.3017
0.003683
0.002034
0.0001184
0.0005189
0.004247
0.004033
0.01271
1.858e-05
0.0001839
0.1932
0.5728
0.3241
0.0005759
0.0003096
0.5058
0.008311
0.001317
0.008015
0.0009761
0.0005423
0.002606
0.3047
0.6019
1.179e-05
0.571
0.002138
0.123
1.491e-05
0.00246
0.008146
0.004062
0.005835
0.007014
0.002761
0.01337
0.02201
0.003626
0.001393
0.001256
0.002089
0.578
0.0001448
0.6004
0.5656
0.008484
0.0005303
0.4196
0.01545
0.3199
0.0001652
0.005914
1.273e-05
6.809e-06
0.259
1.525e-05
0.0004135
0.005175
0.01211
0.5223
0.517
0.3301
0.1157
0.002156
0.0002548
0.001503
0.4181
0.0002003
0.08459
0.0007383
0.0007369
0.5047
0.0005404
0.3372
0.5961
0.04252
0.0008321
0.007079
0.0164
0.3753
0.596
0.02251
0.002417
0.006671
0.5854
0.5464
0.3193
0.6375
0.5687
0.01516
0.0004437
0.3004
0.5891
0.6118
0.4647
0.006942
0.005604
0.0004423
0.0001636
0.5639
1.44e-05
0.5083
9.352e-05
0.3683
0.5762
0.1954
0.5646
0.0001088
0.5846
0.01069
0.004161
0.0166
0.006792
1.069e-05
0.0001411
0.001308
0.008044
0.000342
0.004295
0.3449
0.000252
0.01189
0.004671
0.02392
0.000322
0.003876
0.4894
0.4626
6.121e-05
0.02029
0.0007741
0.5903
0.2292
0.0031
4.351e-05
0.0003947
0.001638
0.03507
0.3116
7.158e-06
0.5687
0.001944
0.004248
0.0003628
0.5816
0.02248
0.3023
0.3336
0.000311
0.5076
0.6073
0.0005398
0.005792
0.4252
0.001274
0.5814
0.1729
0.001386
0.003947
0.002486
0.00334
0.3793
0.5659
0.5932
0.4666
0.4029
0.08852
0.6263
0.01151
0.0007453
0.5204
0.4326
0.03364
0.4309
0.3067
0.3055
0.02536
0.002136
0.0022
1.342e-05
0.009426
0.5752
0.008423
0.01062
1.793e-05
0.5871
0.0002377
0.5768
0.008593
0.01839
0.4916
0.3255
0.3328
0.001033
0.0002791
0.001475
0.5268
0.000234
0.0004481
0.02017
0.000447
0.549
0.01328
0.006217
0.1355
0.004932
0.002893
1.281e-05
0.003822
0.5617
0.4741
0.4146
0.002164
0.5001
0.3078
0.2772
0.0009369
0.0002528
0.3135
0.005698
0.5141
0.556
0.001396
0.001247
0.0005553
0.0004471
0.003323
0.116
0.000853
0.004268
0.4504
0.5746
0.4636
0.005023
1.28e-05
0.4905
0.4958
0.001444
0.001354
0.002764
0.003721
0.006001
0.5752
0.5703
9.838e-06
0.001157
2.04e-05
0.003853
9.504e-05
0.1236
0.4849
0.001213
0.1414
0.005099
0.3669
0.1525
0.5516
0.001641
0.008331
0.01002
0.5621
0.001038
0.001228
0.0004646
0.001377
0.002146
0.0002204
0.001128
0.04322
0.5458
0.4656
0.004504
0.007283
0.003005
0.4467
0.5286
0.001715
0.001028
0.5734
0.0007339
0.0003689
0.01036
0.4401
9.921e-06
0.00138
0.09711
0.5659
0.3739
0.001186
0.0002176
0.001823
0.5662
0.5726
0.5767
0.005584
0.03716
0.001167
0.532
0.007147
0.004695
0.0009928
0.3579
0.0002359
0.004645
0.07031
0.009351
0.09048
0.05143
0.001326
0.006255
0.3108
0.3215
0.5728
0.000667
0.0009763
5.985e-05
0.432
0.3006
0.06961
0.00123
0.001915
0.223
0.002169
0.589
0.003698
0.3582
0.005098
0.005197
0.008828
0.5759
0.6176
0.5729
0.5404
0.001193
0.0001901
0.1132
0.002775
0.007372
0.000421
0.5237
0.5584
0.569
0.412
0.001085
0.5895
0.002153
0.4149
0.04694
0.5075
0.000683
0.006264
0.02828
0.6658
0.00665
0.004461
0.001296
0.3043
0.01239
0.004319
0.09435
0.0021
0.06387
0.04352
0.1651
0.001096
0.5089
0.4339
0.5897
0.002451
0.6255
0.5779
0.001376
0.4625
0.06289
0.0001746
0.5033
0.3346
0.0002773
0.005496
0.001371
3.621e-05
0.0003806
0.003067
0.3889
0.001025
0.5201
0.0086
0.0005337
0.0163
0.5691
0.5779
0.5581
0.0009753
0.5226
0.3775
0.004577
0.004958
0.00219
0.07611
0.431
0.1437
9.889e-06
0.02788
0.5953
0.001732
0.003074
0.5601
0.5202
0.5379
0.4338
0.1922
0.000481
0.5775
0.004867
0.4642
0.002259
0.1381
0.005139
0.003531
0.005131
0.6183
0.1411
0.5488
0.0006956
0.307
0.5763
0.008447
0.0001219
0.01012
0.0002789
0.414
0.568
0.02673
0.001034
0.3283
0.3343
0.00347
0.3363
0.001743
0.002217
0.003676
0.0003882
0.05277
0.02466
0.01455
0.5846
0.00069
0.001265
0.004241
0.01438
0.1998
0.004741
0.0003508
0.0002723
0.5633
9.829e-06
0.4883
0.5915
0.5761
0.6247
0.0005916
0.04068
0.59
0.105
0.5505
0.008165
0.008362
0.0001195
0.01693
0.3076
0.1704
1.935e-05
0.0003259
0.3731
0.5775
0.5848
0.6431
0.009109
0.01908
0.3707
0.4877
0.4872
0.0005855
0.01083
0.002594
0.1773
0.09498
1.77e-05
0.0004783
0.0004418
0.000455
0.01881
0.573
0.001206
0.0004582
0.001566
0.001752
0.0006689
0.002578
0.5842
0.001037
0.03908
0.001791
0.007848
0.5713
0.0004302
0.5623
0.000442
0.02342
0.0003183
0.0001616
0.007049
0.001142
0.005927
0.002883
0.0002509
0.004352
1.456e-05
0.04595
0.003737
0.526
0.001356
0.005215
0.0007009
0.2424
0.004583
0.005097
0.4222
0.002498
3.75e-05
0.0002363
0.566
0.5712
0.002643
0.000506
0.005402
0.5529
0.01033
0.09456
0.001114
0.001213
0.000346
0.5392
0.002384
0.00221
0.4109
0.4087
0.4488
0.0006252
0.0247
0.001387
0.002594
0.0009753
0.5287
0.3607
8.62e-06
0.003289
0.1911
0.4209
0.04765
0.007146
0.5437
0.05231
0.001326
0.002846
0.4139
0.0007065
0.001248
0.5882
0.5846
0.5531
0.0002162
0.3264
0.151
0.005304
9.133e-06
0.4638
0.0003459
0.0005194
0.01006
0.04972
0.006124
0.0002195
0.02202
0.5124
0.1322
0.002083
0.4715
0.0005706
0.4175
0.2884
0.2884
0.001
0.001373
0.564
0.0006708
0.5861
0.5078
0.5116
0.003378
0.02276
0.001686
0.005014
0.1136
0.01707
6.311e-05
0.09223
0.581
0.327
0.2112
0.003212
0.3368
0.3349
0.1975
0.007461
0.3188
1.382e-05
0.05703
1.361e-05
0.001778
0.001138
0.57
0.0007366
0.005323
0.001471
0.01844
0.0009479
0.0009215
0.01184
0.01943
0.571
0.0122
0.6014
0.0005378
0.09425
0.03831
0.07549
0.1104
0.0001924
0.00826
0.009235
0.002118
0.006707
0.5736
0.1969
0.005007
0.004698
0.0001849
0.001808
0.5454
0.4233
0.2519
0.004705
0.5013
2.728e-05
0.5724
0.0006717
0.3668
0.5499
0.005469
0.006839
0.02127
0.5751
0.4888
0.0006004
0.3501
0.0002132
0.001821
0.02388
0.1047
0.006435
0.4269
0.444
0.003434
0.0032
0.008176
0.000221
0.01706
0.001938
0.636
0.4967
0.08492
0.003328
0.01176
0.01916
0.001514
0.555
0.606
0.00781
0.4298
0.4307
0.001127
0.01116
0.0007328
0.0187
0.001337
0.0066
1.693e-05
0.002025
0.5692
0.556
2.04e-05
0.001972
0.002177
0.0009506
5.698e-05
0.002807
0.5732
3.321e-05
0.004066
0.4024
0.1114
0.000764
0.5344
6.86e-05
0.4391
0.3338
0.001379
0.5005
0.0009441
9.292e-05
0.5918
0.007402
1.443e-05
1.726e-05
1.715e-05
0.0001647
0.5414
0.03938
0.0007093
1.376e-05
0.5149
0.002745
0.00677
0.6165
0.2401
0.4087
0.002212
0.01395
0.0033
0.4097
0.0003605
1.62e-05
0.07895
0.002596
0.007992
0.2359
8.502e-05
0.6644
0.001042
2.035e-05
0.003247
0.2897
0.5401
0.3104
0.08222
0.5146
0.002999
0.009097
0.0003048
0.004098
0.02223
0.005718
0.2049
0.2889
0.5849
0.5628
6.955e-05
0.003569
0.002387
0.5592
0.5438
0.01328
0.02383
0.00698
0.003362
0.5095
0.0004242
0.01128
0.003056
0.0003488
0.003602
0.001997
0.3428
0.000594
0.003469
0.005514
0.09041
0.001648
0.0009624
0.3688
0.004672
0.4441
0.1486
0.0006954
0.5297
0.5573
0.0004083
0.000767
0.0001061
0.226
0.0008397
0.5766
0.008792
0.5747
0.008956
0.5848
0.004607
0.02446
0.00211
0.09221
0.01802
0.004392
0.002033
0.006569
0.5981
0.4882
0.000221
0.474
0.03371
0.3182
0.317
0.004586
0.488
0.001579
0.592
0.01347
0.02095
0.04779
0.01307
0.003902
0.5632
0.2934
0.001704
0.03284
0.00328
0.0002597
0.5751
0.433
0.02571
0.004962
0.3017
0.01316
0.005281
0.02893
0.002005