/*--------------------------------*- C++ -*----------------------------------*\
  =========                 |
  \\      /  F ield         | OpenFOAM: The Open Source CFD Toolbox
   \\    /   O peration     | Website:  https://openfoam.org
    \\  /    A nd           | Version:  8
     \\/     M anipulation  |
\*---------------------------------------------------------------------------*/
FoamFile
{
    version     2.0;
    format      ascii;
    class       surfaceScalarField;
    location    "10";
    object      phi;
}
// * * * * * * * * * * * * * * * * * * * * * * * * * * * * * * * * * * * * * //

dimensions      [0 3 -1 0 0 0 0];

internalField   nonuniform List<scalar> 
94454
(
-7.206e-05
7.207e-05
0.0001232
-0.0001232
-8.798e-05
8.798e-05
-6.435e-05
6.435e-05
8.074e-05
-8.074e-05
-7.629e-05
7.629e-05
0.0002357
-0.0002561
2.034e-05
-0.003189
0.01074
-0.007548
2.057e-05
0.0009277
-0.0009483
-0.001243
0.0006001
0.0006429
0.0007418
-0.0005132
-0.0002286
0.01847
-0.03145
0.01298
-0.0004366
-0.0008064
0.0005618
-0.0003224
-0.0002394
0.01196
0.01098
-0.02295
0.0002366
0.0003252
-7.23e-05
0.0009161
-0.0008438
0.001185
-0.003303
0.002118
-0.0002582
-0.003838
0.004096
0.0004251
0.0003167
-0.001247
0.001522
-0.0002753
-0.01323
-0.02996
0.04319
1.083
-0.1295
-0.9534
0.00186
-0.001431
-0.0004286
-0.1445
1.227
0.01222
-0.007738
-0.004478
-0.311
0.02034
0.2907
-0.002615
-0.0003959
0.003011
-0.8104
0.956
-0.1457
-0.0003406
-0.003752
0.004092
-1.287
0.4824
0.8045
-0.1165
-0.1945
-0.2763
0.5185
-0.2422
-0.05158
0.09244
-0.04086
0.0008914
0.0009683
0.1607
-0.6346
0.4738
-0.0007341
0.0005055
0.0002286
-0.0008974
0.001749
-0.0008512
-0.003631
0.00329
-0.0004741
0.0007483
-0.0002742
0.1817
-0.01671
-0.165
-0.0003945
0.0009605
-0.000566
0.02426
0.01804
-0.0423
0.00322
-0.002036
0.6868
-0.526
-2.436e-05
-0.001223
-0.0001071
-0.0002482
0.0003552
0.004555
-0.005528
0.0009732
-0.001302
0.001872
-0.00057
-1.007
-0.2794
-0.001593
0.0007904
0.0008025
-1.158
0.8789
0.2791
0.0002568
-2.104e-05
4.957e-05
-0.0005241
0.0004746
-0.2129
0.09813
0.1147
0.0006703
0.002755
-0.003425
-0.1071
0.05924
0.04787
0.1645
-0.4408
0.02384
-0.07542
-1.256
0.09839
-0.0005367
-0.0009591
0.001496
0.01434
-0.01211
-0.002234
-0.000422
-0.0003121
0.001144
-0.001046
-9.835e-05
0.08624
-0.1025
0.01627
-0.001253
0.0009889
0.0002645
-0.0003802
-0.001401
0.001782
-0.0005091
0.0006048
-9.568e-05
0.00998
0.0002603
-0.01024
-0.04977
-0.04036
0.09013
0.001414
-0.0004298
-0.0009846
-1.669e-05
1.122e-06
1.558e-05
-0.02745
-0.7829
0.0002567
-0.0004183
0.0001616
0.002686
-0.003953
0.001268
0.001642
-0.0004403
-0.001202
-0.009443
7.443e-05
0.009368
0.0003498
-0.000701
0.0003512
0.007966
0.00425
0.001244
-0.000989
-0.0002546
-0.0003328
0.0003328
0.1919
-0.0102
0.000379
-0.0009047
0.0005257
0.0002545
0.002031
-0.002285
-0.0009653
0.0007099
0.0002553
-0.04222
0.03396
0.008252
-0.005057
0.002141
0.002915
-0.003316
0.001079
0.002237
1.033
-1.207
0.1732
-0.0007907
0.0003708
0.0004198
-0.0006768
0.001364
-0.000687
0.1168
-0.1407
0.02398
-0.002173
-0.001143
-0.1207
-0.006671
0.1273
-0.0004917
-0.0007618
-0.0009082
-0.006001
0.006909
-0.00051
0.0005595
0.0008563
-0.0008357
-0.006617
0.08278
-0.07616
0.000465
-0.0006385
0.0001736
-1.467
1.196
0.2706
-1.465
1.195
0.2704
-0.1662
0.1331
0.03309
0.2071
-0.03949
-0.1676
-0.05819
0.04843
0.009761
0.02368
-0.06141
0.03773
0.02639
-0.008088
-0.0183
0.003125
-0.0007171
-0.002408
0.04446
-0.02598
-0.2078
-0.005088
-0.05996
0.2005
-0.1405
-0.0004244
-0.0005408
0.004021
-0.00242
-0.001601
0.02202
0.004374
-0.0006261
0.000163
0.0004631
-0.4707
0.22
0.2507
0.001436
0.0002061
-0.000546
0.000925
-0.04313
-0.07755
-0.02362
0.01901
0.004608
0.2277
-0.0206
0.0006678
0.0005759
0.00121
0.0005838
-0.001794
0.1948
-0.9651
0.7702
-0.0002975
0.0008269
-0.0005294
0.002689
-0.001266
-0.001423
-0.0002548
0.001208
-0.0009536
0.0008823
-0.0005148
-0.0003675
0.1158
-0.02958
0.000108
-0.0005581
0.0004501
-0.0002596
0.001687
-0.001428
-0.01027
0.0005451
0.009721
-0.06054
0.09514
-0.0346
-0.08892
0.03915
0.0002371
-0.0005696
0.0003325
-0.001136
-0.001199
0.002335
-0.001088
-8.098e-06
0.001096
0.8666
0.1667
0.001476
-0.001742
0.0002661
-0.386
-0.4429
0.829
0.0008976
0.001555
-0.002452
-0.5371
-0.3456
0.8827
0.04311
-0.01885
0.004596
-4.089e-05
-0.09197
-0.1636
0.2555
0.04814
0.1193
-0.1674
-0.07755
-0.1006
0.1782
0.001964
-0.001456
-0.0005081
0.1651
-0.04839
-0.002628
0.005922
-0.003294
-0.0105
-0.01312
0.001088
0.001552
-0.00264
-0.2022
0.2356
-0.0334
-0.00068
0.001153
-0.0004731
-0.000422
-0.0007714
0.001193
-0.004509
0.001321
0.003188
-0.001354
-0.002178
0.003531
0.004028
-0.003358
0.00084
0.0001814
-0.001021
0.002871
0.0002543
-0.1813
0.1214
-0.003513
0.003554
-4.156e-05
0.001488
0.0001513
-0.001639
-0.001344
0.0008639
0.0004797
-0.8471
0.31
-0.2553
0.1313
0.1239
0.0003932
7.999e-05
-0.0004732
-0.0003648
-0.000636
0.001001
0.1985
-0.1876
-0.01096
0.009625
-0.01281
0.09161
-0.04923
-0.04238
0.001871
0.0008181
0.0005477
-0.0001545
-0.01649
0.03194
-0.01546
-0.001778
0.0006518
0.001127
0.1963
-0.1481
-0.005938
0.0179
-0.4994
-0.9673
-0.4988
-0.9664
-0.01163
0.002184
-0.001287
0.001049
0.0002379
-0.004815
-0.0002412
0.002721
0.0013
-0.001234
0.0009599
0.0002745
0.0005737
0.00139
0.001352
-0.0009225
-0.00043
-0.001704
0.001316
0.0003883
-0.001664
-0.02762
0.02928
-0.0005482
-0.0009462
0.001494
0.2905
-0.3994
0.109
0.3828
0.1353
-0.5181
-0.1164
-0.04985
-0.1877
0.2584
-0.07068
0.4378
-0.8239
-0.001871
0.002419
-0.000548
0.05967
0.03194
0.0005785
-0.000876
0.1099
-0.1166
-0.0002861
0.001417
-0.001131
0.9349
-0.698
-0.2369
0.000214
0.00093
-0.001673
0.001175
0.0004979
0.007219
-0.005519
-0.0017
-0.08713
-0.01998
0.01508
-0.0206
0.005524
0.2446
-0.2558
0.01121
0.006935
-0.005846
-0.001089
0.0003225
0.0008903
-0.001213
-0.001158
0.001284
-0.0001264
0.004665
0.002271
-0.02315
0.02149
0.01249
-0.07303
-0.5094
0.03874
-0.002304
0.01738
-0.004846
0.003833
0.001012
-0.002552
0.00253
2.17e-05
0.1103
0.4882
-0.5985
0.0006507
-0.001327
-0.0003587
-0.0002639
0.0006225
-0.001523
-3.355e-05
0.001557
0.001397
0.008583
-0.001422
0.0008857
-0.001366
0.0002775
-0.001186
0.0002282
0.0009573
-0.6736
0.8684
0.006789
-0.01059
0.0038
-0.003968
0.003709
-0.01288
0.000651
0.01223
-0.01075
-0.00766
0.01841
-1.277
1.439
-0.162
0.5737
-0.1909
0.001156
-0.002342
0.001186
-0.05846
0.04523
-0.02232
-0.1799
0.699
-0.653
-0.04595
-0.0004499
-0.0001498
0.0005997
0.05126
-0.05507
0.003807
-0.01221
-0.1316
0.1438
0.0007989
-0.0005833
-0.0002156
0.05888
-0.2466
-0.001576
0.0008591
0.000717
-0.001451
0.003253
-0.001802
-0.02046
0.008772
0.01169
0.0009103
0.0003514
-0.001262
-0.002853
0.002473
0.001109
-0.001424
0.0003158
0.3505
-0.9418
0.5913
0.1211
-0.00174
-0.1194
-1.54
0.1227
1.418
0.005471
0.008871
0.03096
-0.0164
-0.01456
1.418
-0.2689
-1.149
0.000172
-0.0005851
0.0004131
0.0006204
-0.0003897
-0.0002307
0.000649
-4.786e-05
-0.0006011
-0.0007196
-0.000624
-0.0009305
9.098e-05
0.0008395
-0.1253
0.257
-0.1316
-0.1003
0.08356
0.01675
0.0006876
-0.0006051
-8.252e-05
0.0008119
-0.001709
3.021e-05
-0.001368
0.001338
-0.001218
0.001013
0.0002051
0.02991
-0.01704
-0.01287
0.001569
-0.002306
0.0007367
-0.2842
0.2291
0.0551
0.0004006
0.0002198
0.1172
0.003913
1.196
-0.8184
-0.378
-0.1451
-0.1102
-0.0004042
0.00121
-0.000806
0.003688
-0.0003319
-0.003356
-0.001325
-0.0002513
-0.4342
0.7847
0.0007935
-0.0009154
0.0001219
0.001038
-0.0002573
-0.0007812
0.06096
-0.1774
0.003556
-0.0008707
-0.04517
0.06885
0.04726
0.2452
-0.2925
-0.0001734
-0.000264
0.0004375
1.527
-0.9027
-0.6247
0.009939
0.003691
-0.01363
-0.000863
-2.673e-05
0.0008897
0.0006367
-2.698e-05
-0.0006097
-0.1069
0.1008
0.006017
0.001127
0.0009111
-0.002038
-0.8039
-0.7363
0.00271
0.001134
1.392e-05
-0.001148
0.1125
0.05603
-0.1685
0.001222
-0.001396
0.0001739
0.001182
-0.002554
0.001372
-0.7902
0.113
0.6772
-0.7886
0.629
0.1596
0.001293
-0.01156
-0.0008277
-0.000918
0.001746
0.1352
-0.2064
0.07118
1.474
-0.6505
-0.8238
-0.001825
0.002948
-0.001122
0.0004232
-0.0006412
0.000218
-0.0009077
-2.278e-05
-0.003515
0.003336
0.0001787
-0.1431
0.1009
0.04222
1.402
-1.279
-0.1229
0.0006092
-0.001962
0.001352
0.3133
0.5217
-0.835
0.00268
-0.003136
0.0004553
0.4919
-0.001183
0.001424
-0.0002414
-0.02923
0.1644
0.9748
0.1613
-1.136
-0.000549
0.0002162
0.3923
1.026
0.0004915
-0.001794
0.3942
0.3047
-0.001845
-0.003001
-0.1659
0.007149
0.1588
-0.2796
0.1876
0.000461
0.0009579
-0.001419
-0.0004294
-0.001275
-0.0004984
-0.001174
0.0005671
0.0002594
-0.0008266
0.000998
-0.00107
0.0005266
-0.0009211
0.001032
-0.0007375
-0.0002949
-0.6006
0.9139
0.00152
-0.001
-0.0005199
0.1056
-0.1923
0.0867
-0.00061
-0.0006243
-0.1244
0.03568
0.08871
-0.3429
-0.9346
-0.1527
0.0752
-0.002374
-0.00524
0.007614
-0.0005735
-0.0006121
-1.043
0.1279
0.9152
1.109
-0.9019
-0.2073
-0.001357
0.0005422
0.0008149
0.0003695
-0.0008194
-0.0009353
0.0005766
-1.164
0.1211
-2.89e-05
-0.00538
0.005409
0.1829
-0.2397
0.0568
1.031
0.443
-2.914e-05
-0.00048
-0.07717
-0.04722
-0.9834
-0.404
1.387
-0.05045
-0.007744
0.01511
-0.002374
-0.01273
-0.03143
0.08734
-0.05591
0.002625
-0.003258
0.0006335
0.005046
-0.01008
0.00503
-0.001113
-6.942e-05
0.05452
0.006948
-0.06147
0.7468
-1.072
0.3251
0.001768
-0.0002915
-0.005422
0.004741
0.0006801
0.002309
-0.00417
0.001861
1.077
0.4502
-0.02492
0.7717
0.02358
0.006331
0.0006378
-0.001187
0.0005492
-0.0004967
0.0008675
-0.0003708
0.004408
-0.00749
0.003082
0.001484
-0.001255
-0.0002294
-0.1515
-0.1999
0.3514
1.056
-0.04474
-1.011
-0.002421
0.00921
-0.001386
0.003695
0.0007556
-0.0008558
0.0001002
0.0004301
0.0002807
-0.0007107
-1.119
-0.3842
1.504
0.02303
0.007928
-0.001776
0.001298
0.000478
-0.002694
0.0007618
0.001933
1.252
-0.2776
-0.001998
0.002271
-0.000273
-0.0005221
-0.000888
0.00141
-0.0001453
0.000402
0.000174
-0.0006394
0.0004654
0.000848
-0.001103
0.001544
-0.002691
0.001147
-0.003745
0.000232
0.003387
-0.006448
0.003061
-0.001173
-0.004249
-0.06648
0.02426
0.0001935
-0.001681
0.001488
0.0002208
0.0004346
-0.0006554
-8.626e-07
0.001445
-0.001444
0.1026
0.3743
-0.477
-1.508
0.5249
0.001166
-0.001402
0.0002363
-0.3855
-0.6335
1.019
-1.191
0.8057
-0.1578
0.06477
0.09299
-0.0002327
6.233e-06
0.0002265
-0.1629
0.1691
-0.006238
0.003074
0.0006102
-0.003684
-0.004283
0.004178
0.0001042
-0.002929
0.00425
-0.00307
0.0003761
-7.364e-05
-0.001019
0.001093
0.282
0.5869
-0.8689
-0.0002846
-0.001239
1.029
-0.7467
-0.005156
0.001354
0.003802
0.1728
1.024
0.5599
0.8424
-0.004638
0.001309
0.003329
-1.496
0.3766
9.835e-05
0.0005893
0.002392
-0.0009045
0.00113
0.0003879
-0.001518
0.1382
-1.02
0.8813
-0.2768
-0.7166
0.8549
-0.004332
0.001073
0.003259
-0.004581
0.006373
-0.001793
-0.8021
-0.2697
0.002441
-0.002187
1.08
0.08687
-1.167
0.2728
-0.2118
0.07396
-0.1307
0.05679
0.04501
-0.8471
-0.0002499
0.0005596
-0.0003097
-0.0009714
-0.001184
0.002155
0.0005604
0.0003305
-0.0008909
-0.2167
0.8397
-0.623
-0.0004392
0.002508
-0.002069
-0.241
-0.01456
0.2555
0.0006314
0.0007211
0.6923
0.4738
-1.166
-0.0005544
-0.0003481
0.0009026
-8.884e-05
-6.709e-05
0.0001559
0.1841
-0.05245
-0.1316
-0.009864
0.0101
-0.0002375
-0.0006581
-0.0008089
0.001467
0.0002885
0.0001161
-0.0004046
0.005836
-0.00646
0.0006241
0.002284
-0.0004342
-0.00185
0.0007236
-0.0007236
-0.3413
0.1959
0.1454
0.001361
-0.0008368
-0.0005239
-0.0006419
0.001149
-0.0005074
0.00108
-0.0009761
-0.0001034
-0.119
1.199
-0.0008801
4.98e-05
0.0008303
0.0001043
-0.0001043
0.09898
-0.07366
-0.02532
0.002206
-0.001664
-0.0005414
1.094
-1.518
0.424
1.313
-1.735
0.4215
-0.04535
0.09271
-0.04736
-0.0009419
0.0004178
-0.007911
0.008838
-0.0009269
0.04133
-0.09337
0.05204
-0.0007145
9.305e-05
0.0006215
0.0008073
0.001183
-0.00199
0.252
-0.007417
0.08667
-0.04535
0.00103
-0.003254
0.002224
0.000411
-0.0001124
-0.0002986
-0.3353
0.1219
0.2133
-0.0008223
-0.0009537
-0.05254
0.343
-0.4776
-0.5497
1.027
0.239
7.898e-05
-0.2391
0.0001563
-0.00264
0.002484
0.000969
-0.0002621
-0.0007069
-0.002318
0.002133
0.000184
-0.4103
1.368
-0.9579
-0.0004034
0.0005952
-0.0001918
-0.3
1.334
-1.034
-0.0007607
-0.001035
0.001796
0.001334
0.003394
-0.004728
0.0009727
0.0004829
-0.001456
-0.08842
-0.05473
-0.459
0.2214
0.2376
0.003232
-0.001225
-0.002007
-0.001825
0.00139
0.0004351
-0.0006016
7.509e-05
0.0005265
0.0008314
-0.0003451
-0.0004863
0.0003724
0.000459
0.1385
-0.5794
0.4409
-0.3813
0.0983
0.283
-0.1855
0.05354
0.132
0.008439
-0.009636
0.001197
0.0007354
-0.001299
0.0005633
0.0008682
-0.0008682
-0.002948
0.004433
-0.001485
-4.126e-05
0.0005062
-0.3211
0.4237
0.5939
0.2175
-0.8113
0.005214
-0.0009586
-0.004255
-0.1883
1.179
-0.9902
0.0003534
0.0008285
-0.001182
-0.002704
-0.00553
0.008234
0.002263
-0.003054
0.0007916
0.7866
-0.6764
-0.009054
0.003047
0.006007
0.0006026
-5.68e-05
-0.0005458
-0.005229
0.001964
0.003265
-0.001069
0.001659
-0.0005902
-0.0009404
-0.0001955
0.001136
0.002313
-0.001909
-0.0004042
0.0006984
-0.0005315
-0.0001669
0.2518
-0.3147
0.06295
-0.0003262
7.012e-05
0.01968
-0.118
0.09837
-0.0008494
0.0008494
-0.1651
-1.043
1.208
1.259
0.231
-1.491
-0.000241
0.002447
-0.0007017
0.00093
-0.0002282
-0.001156
-0.004527
0.005683
0.003831
0.005407
-0.009238
-0.1884
0.05769
0.1307
-0.005235
0.001172
0.004063
0.8096
-1.137
0.3269
-0.001017
0.001017
0.1669
0.5622
-0.7291
-1.279
1.114
0.2396
-0.4231
0.1835
-0.0034
0.002353
0.001047
-0.01156
-0.00237
0.01393
0.7788
-0.9454
0.1665
0.001467
-0.0007088
-0.0007582
0.4788
-0.1383
-0.3406
0.0003993
-0.0009172
0.0005179
-0.01725
0.005573
0.01168
0.006464
-0.003376
-0.003088
-0.0003004
-0.001086
0.001386
-0.001052
-0.0004881
0.00154
0.001957
0.0004077
-0.002365
0.1503
0.6464
-0.7967
0.004552
0.06691
-0.07146
-0.0002144
-0.001142
0.001356
0.001748
-0.001249
-0.0004996
-0.001473
0.0009086
0.0005645
0.0005249
0.0003274
-0.0008522
0.00463
-0.006533
0.001902
0.4781
-0.3565
-0.1216
-0.00103
-4.248e-06
0.001035
0.4952
-1.093
0.5979
-0.0007957
0.0002942
0.0005015
-0.002643
0.0006945
0.001948
0.001842
-0.0008289
-0.001013
0.001487
0.007068
-0.008555
-0.001298
-0.001345
-0.000938
-0.0001592
0.001097
-1.176
0.54
0.6361
0.131
0.05376
-0.1847
-1.248
1.248
0.00173
0.002628
-0.004357
0.0655
-0.0524
-0.0131
0.006907
-0.002276
0.01299
-0.00995
-0.003039
-1.267
0.5225
0.7441
0.4062
-0.2578
-0.1483
-0.008758
0.005069
0.003689
-0.002012
-0.02951
0.03152
-0.001707
-0.0008368
0.002544
-0.04894
-0.05273
0.1017
0.0003416
0.001179
0.0005107
-0.001891
0.001381
-0.3923
1.244
-0.8517
0.0003465
-0.001585
0.001239
0.3533
-0.009447
-0.3438
-0.001321
0.001295
2.6e-05
0.0005239
0.001318
-0.5587
0.22
0.3387
-0.001879
-0.0002362
0.002115
-0.0004022
0.0005102
0.00234
-0.00162
-0.00072
-0.00985
0.02514
-0.01529
0.0007842
0.0003046
-0.001089
0.001914
-0.001583
-0.0003305
0.0003101
0.0005591
-0.0008692
0.00261
-0.001901
-0.0007089
-0.0005681
-0.0007251
0.001293
-0.001688
0.0008761
0.0008115
-0.02226
0.00708
0.01518
0.001177
0.0004634
-0.001641
-0.006121
0.01606
0.001131
-0.00157
0.0004395
-1.272
0.5152
0.7567
0.5532
-0.7875
0.2343
-0.1954
-0.0118
0.2072
0.07524
0.2805
-0.3558
-0.0004957
0.001857
-0.001362
0.0006091
-0.003087
0.002478
0.00275
-0.002301
-0.0004482
-0.001441
-8.613e-06
0.00145
-0.0002948
-0.0007051
0.0009999
-0.01575
0.03342
-0.01767
-0.002768
5.808e-05
0.00271
0.001492
0.005149
-0.006641
-0.005295
0.002455
0.00284
-0.002971
-0.000655
0.003626
-0.008217
-0.02011
0.02833
0.4241
0.0547
0.001363
-0.0009831
-0.0003798
-0.9801
-0.2762
-0.001564
0.00177
-0.0002069
0.00108
-0.1122
-0.03217
0.1443
0.03702
-0.06845
0.04602
-0.1955
0.1495
0.001021
-0.001021
0.006034
-0.0001982
-0.003364
0.002906
0.0004576
0.6752
0.1793
-0.8545
-0.9758
-0.1963
1.172
-1.073
-0.5879
-1.076
-0.592
0.0018
-0.0002307
-0.002174
0.0004875
0.001687
0.0009213
-0.0009213
-0.0004592
-0.002844
0.003303
5.26e-05
0.0547
-1.031
0.002179
-0.001049
-0.00113
0.0008307
-0.0008307
0.0004822
-0.0004822
0.001344
-0.005478
0.004134
0.002398
-0.001522
-0.0008754
-0.0005394
0.0005394
0.1945
-0.7675
0.573
-0.0006511
0.001322
-0.0006711
-0.0004057
-0.00023
0.0006356
-0.3904
1.187
-0.797
0.0003776
8.853e-05
-0.0004662
-0.001069
-0.0009076
0.001976
0.001865
-0.0001325
-0.001733
-0.5043
-0.3737
0.8779
-0.0002744
0.003844
-0.00357
-0.1124
0.1321
0.0002795
0.001491
-0.001771
-2.935e-05
0.0002271
-0.0001978
-0.003824
0.005829
-0.002004
-0.002556
0.005693
-0.003136
-0.001014
0.0001089
-0.01486
0.007948
0.006912
-0.001917
3.282e-06
0.001914
0.0002232
0.0001024
-0.0003256
0.6398
-0.3852
-0.2546
0.0006629
-0.001166
0.0005033
0.4304
-0.5594
0.129
-0.003324
-0.0002667
0.003591
0.03653
0.2924
-0.3289
0.265
0.8379
-1.103
-0.0002041
0.000547
-0.0003429
-0.001249
0.001113
0.0001361
-0.5425
0.8074
-0.2649
-0.1372
0.1253
0.01185
-0.8764
0.8418
0.03459
0.2919
0.4146
-0.7064
-0.3023
-0.9457
0.3934
-0.2187
-0.1747
-0.01664
0.005074
1.432
-1.432
0.0005777
-0.0008725
-0.008315
0.02662
-0.0183
-0.001957
0.001086
0.0008705
0.002353
-0.001171
0.0005032
-0.001579
0.001076
7.744e-05
0.001532
-0.001609
0.8713
-0.4587
-0.4126
-0.001001
0.0005361
0.0004649
-0.08318
0.324
-0.2408
-0.0008646
0.0008646
0.001187
-0.0002828
-0.0009039
0.0014
-0.001649
0.000249
1.522
-1.094
-0.428
1.073
0.4486
0.1014
-0.0458
-0.05559
0.001091
0.001244
-0.002335
0.003425
-0.005585
0.002159
0.002997
-0.0006077
-0.00239
-0.1895
0.1429
0.04666
-0.0004088
-0.003161
0.00357
-0.001078
0.0009252
0.0001524
0.04675
-0.003637
-0.005873
-0.0009831
0.0005713
0.001604
-0.002175
-0.0005234
0.001513
-0.0009899
-0.1892
0.07699
0.001157
-0.0004329
0.06677
-0.00127
-0.002319
0.001932
0.0003878
-0.3096
0.1044
0.2052
0.00177
1.916e-05
-0.001789
-0.1502
0.8528
-0.7025
-0.001744
0.0006509
0.001093
0.0007009
-0.0007009
0.0002719
6.399e-05
-0.0003359
0.0003631
0.004851
-0.5455
-0.9646
1.51
0.0001118
0.0003771
-0.0004889
0.3338
-0.5507
0.2169
0.002566
-0.00928
0.006714
-0.002623
0.002732
-0.0001096
-0.0005333
0.0001437
0.0003895
0.003672
0.02297
-0.02664
-0.0008191
0.0006876
0.0001315
-0.0008714
-0.0004858
1.398
-1.142
-0.2557
1.085
0.3128
-0.0004158
0.001279
-0.0008635
-9.376e-05
0.0003051
-0.0002114
-0.0005386
0.0007967
-0.0002581
-0.0006047
0.001233
-0.0006282
0.3016
-0.2427
-0.03697
0.08296
-0.04599
0.1449
-0.1895
0.04461
-0.7043
0.2926
0.4118
-0.8007
0.584
-0.0007657
0.0007657
-0.02202
-0.3712
0.3933
4.606e-05
0.0002962
-0.0003423
0.003582
-0.006951
0.00337
0.0008361
-0.001339
0.0005032
-1.066
-0.09691
1.163
0.0002113
-0.0001855
-2.579e-05
-0.000253
0.0003703
-0.0001172
-0.2241
0.3042
-0.08002
-0.0005699
-0.0001676
0.0007374
0.0001737
-0.0001544
-1.928e-05
0.03249
-0.0133
-0.01919
-1.32
0.8575
0.4627
0.3911
0.703
-1.094
1.43
-1.43
-0.006885
0.007802
-0.0009167
0.4924
0.4546
-0.947
-0.5538
0.4084
0.1454
0.0005436
-0.0006662
0.0001226
-0.2886
1.023
-0.7342
0.0003626
0.002984
-0.003347
0.000744
0.00801
-0.008754
0.207
0.04643
-0.2534
1.238
-0.5458
-3.779e-06
7.234e-05
-6.857e-05
-0.002679
0.002105
0.0005741
5e-05
-0.001551
0.001501
-0.05657
-0.04728
0.1039
-0.001173
-0.005345
0.006518
-0.01389
0.01629
-0.002402
-0.4983
0.9935
0.004364
-0.001209
-0.003155
-0.09446
0.02556
0.06889
0.001128
-0.000634
-0.000494
-0.0292
-0.07111
0.09927
-0.684
0.5847
0.003557
-0.004005
0.0004479
0.001582
-0.0002824
-0.0013
-0.0006859
-9.806e-05
0.000784
0.0007137
0.0006492
0.3359
0.4936
-0.8295
-2.365e-05
-0.0007834
0.000807
0.0009072
-0.0009072
-0.001479
0.0005121
0.0009672
-0.03812
0.05887
-0.02074
-0.001697
-0.0001283
-1.722e-05
-0.0001686
0.0001858
-0.001183
0.0001655
0.001018
-0.7396
1.182
-0.442
-0.07091
-0.2252
0.2961
0.001086
0.001014
-0.002101
0.4376
-0.1579
-0.2796
0.6473
-0.751
0.1037
-0.0113
0.00643
0.004868
0.5795
0.1828
-0.7623
0.0009577
1.128e-05
0.2832
-0.06674
-0.2165
-0.0008376
-0.00085
0.5305
-0.5661
0.0356
0.001385
0.0003632
0.0002549
-0.0005488
0.0002939
0.001394
0.003536
-0.00493
-0.002383
0.001242
0.001142
-0.01999
0.1436
-0.1236
-0.000445
0.0004631
-1.806e-05
0.0002238
-0.0007511
0.0005272
0.001136
0.0003307
-0.0001277
-0.0001999
0.0003276
0.000514
0.0003299
-0.000844
0.01877
-0.0381
0.01934
-0.0005077
0.001702
-0.001194
-0.002619
0.007026
-0.002364
0.0006477
0.001716
0.01095
0.04031
-0.4653
0.6571
-0.1917
0.0009172
-0.0009172
0.0008244
9.691e-05
0.006513
-0.0048
-0.001714
-1.411
0.9335
-0.0008208
-0.0001005
-0.001899
0.0004344
0.001465
0.005146
0.0115
-0.01664
-0.00201
0.001465
0.0005456
0.01204
-0.05425
0.04221
-0.8431
0.08271
0.7604
0.001064
-0.00101
-5.404e-05
0.0011
-0.001543
0.0004426
-0.002877
0.002176
0.0007009
-0.001512
-0.0006219
0.002134
0.1534
-0.7431
0.5897
0.002179
-0.002352
0.0001734
-0.004651
0.003087
0.001565
0.0009811
-0.0004034
-0.003233
-0.05523
0.00233
-0.001897
-0.000433
-0.0007634
-0.0004354
0.001199
0.4938
-0.4584
-0.03531
-0.04504
0.05468
-0.009638
-0.9652
0.5729
0.002189
0.0007323
-0.002922
-0.001927
-0.001691
0.003618
0.001359
-0.001032
-0.0003277
-0.00752
0.005116
0.002404
0.6096
0.3811
-0.9907
-1.536
0.3603
-0.005234
-0.0008518
0.006086
-1.002
1.51
-0.5078
-0.0006346
-0.000815
0.00145
0.002978
0.9036
-0.9066
1.109
-0.02681
-1.083
-0.1271
0.07688
0.05026
0.0001256
-0.00099
0.0008644
0.06742
-0.01289
0.0001398
-0.0001399
0.0007162
-0.007719
0.007003
-0.003946
8.064e-05
0.003866
0.000783
-0.0006945
-8.852e-05
0.007325
-0.005487
-0.001838
0.2055
-0.08729
-0.1182
-0.0001716
-0.0003983
-0.006786
0.00656
0.0002266
-0.0001402
0.001351
-1.361
0.9891
0.3718
0.0003508
0.0007147
-0.001066
-0.001056
-0.0004232
-0.0008684
0.0008684
-0.001563
0.000959
0.0006035
-0.03164
-0.01822
0.04986
-0.001084
-0.0007461
0.00183
0.0005974
-0.0005974
-0.8822
1.262
-0.3802
8.938e-05
0.0003217
-0.0009377
0.002255
-0.001318
-1.217
0.917
0.0001614
-0.001029
0.0008673
-0.0007991
0.001252
-0.0004525
0.9599
-0.1503
0.00161
0.0005588
-0.002169
-0.002145
0.001681
0.0004648
0.01872
0.003295
-0.3094
0.08754
0.2218
0.001451
-0.0009563
-0.0004943
-0.0003575
0.0006444
-0.0002869
-0.001939
0.00112
0.000819
0.0001051
0.0001984
-0.0003034
-0.0008296
0.0001656
0.000664
1.48
-1.067
-0.4135
-0.0001346
-0.0001201
0.0002546
0.0005259
-0.002539
0.002013
-6.285e-05
0.002743
0.0009682
-0.001949
0.0009812
0.1452
-1.116
0.9706
0.002051
-0.001388
-0.0006634
0.0004126
-0.0004262
1.357e-05
-0.005091
0.0007823
0.004309
-0.003874
-0.0002233
0.004098
-0.138
0.1095
0.02846
-0.05493
0.02134
0.03359
0.001794
-0.007033
0.00524
0.2331
-0.1871
0.002763
-0.0007825
-0.001981
-0.001312
0.001886
-0.0005737
0.001862
-0.001561
-0.0003004
-0.001822
-0.0007807
0.002603
-0.001078
-0.0004308
0.001509
6.553e-05
0.0001082
-0.01161
0.01963
-0.008019
0.001828
0.0007827
-0.004613
0.001211
0.003402
0.00492
-0.004068
-0.0008521
1.609
-0.2212
-1.388
-0.2299
0.1378
0.09203
0.3591
0.3781
-0.7372
0.001424
-0.001548
0.0001242
-0.002324
0.0003755
0.001949
-0.0003316
-0.0004796
0.0008112
0.006152
0.09056
-0.09671
0.0003143
0.0005035
-0.0008178
-0.0005471
-0.0006093
0.001156
0.09209
-0.04212
-0.04997
1.439e-05
0.004699
-0.004714
0.5079
-0.3555
-0.1524
3.004e-05
-0.001301
0.001271
0.001765
-0.001748
-1.684e-05
-0.002483
-0.002752
-0.0005939
-0.0003982
0.0009921
0.00103
-0.001875
0.0008449
0.006271
-0.00718
-2.593e-05
3.835e-06
2.21e-05
-0.1391
0.299
-0.1598
8.784e-05
0.001134
0.002745
-0.0008945
-0.00185
-0.8517
0.9975
-0.1458
-1.378
1.109
0.2693
-0.009554
0.0003151
0.009239
-0.02258
0.0609
-0.03832
-0.9256
-0.2348
1.16
-0.02479
0.01648
0.007265
-0.0007516
1.343
-0.4873
-0.8552
-0.00271
0.007831
-0.005121
-0.4507
0.4172
0.03343
0.05243
-0.1137
0.06132
0.00216
0.001034
-0.003194
0.06092
0.08616
-0.1471
0.001058
-0.001596
0.0005384
-0.03796
0.02364
0.01432
-0.001337
-0.0006647
0.002002
-0.0007563
0.000221
0.0005353
0.0009176
-0.0009176
-0.1854
0.1826
0.002839
1.237
-0.7448
-0.002239
-0.0003536
0.002592
-0.3897
0.396
-0.006269
-6.816e-05
0.000308
-0.0002399
0.001187
7.985e-05
-0.001267
-1.061
-0.7671
1.828
-1.055
-0.7628
1.818
-0.001033
-0.00044
0.000654
-0.0003043
0.02971
-0.02377
-0.005945
0.005507
0.001818
0.09506
-0.747
0.652
-0.0009513
0.001084
-0.0001324
0.000979
-0.001712
0.0007334
-0.002598
0.002357
0.0007391
-7.527e-05
-0.0006638
0.002384
-0.003459
0.001075
-1.252
-0.01434
0.0006652
-0.003613
-0.0009176
-0.000529
0.001447
0.0009413
-0.001242
-0.001031
-0.000176
0.001207
0.0003265
-0.0004515
0.000125
0.01413
0.001056
-0.01518
-0.1442
1.238
0.08403
1.229
0.000815
-0.001462
0.000647
-1.208e-05
0.0004721
-0.00046
0.3976
0.6151
-1.013
0.01451
0.1925
-0.0005124
-0.0004293
0.0009417
-0.619
0.8747
-0.2557
0.000674
-0.000193
-0.0004811
0.001651
-0.0004817
-0.001169
0.004695
0.01041
0.001047
0.001132
-0.03317
0.01041
0.02277
-0.0001918
-0.0002242
0.0004161
0.0008534
-0.0003583
-0.0004951
0.8905
0.19
-1.081
-0.003089
-0.0004741
0.003564
-0.004523
0.003314
0.001209
-0.001676
0.002325
-0.0006492
0.000319
-0.001195
0.0008757
-0.004535
0.003499
0.001036
-0.0001446
-0.0004058
0.0005505
-0.002344
0.0007288
0.001615
0.0004123
-0.0003073
-3.661e-05
0.001145
-0.0004217
-0.0008649
0.003353
-0.00196
-0.001392
0.0008902
-0.0001891
-0.0007011
0.002779
0.004379
-0.007158
0.1375
-0.1068
-0.03075
-0.2235
-0.5667
0.00114
-0.002324
0.001184
-0.0008636
0.0001711
0.0006925
-0.004229
-0.008651
0.0004833
-0.0004833
0.001662
0.0009016
-0.002564
0.1807
0.6859
-0.004584
-0.00447
-0.107
-0.1008
4.601e-05
-0.0001584
0.0001124
0.0038
-0.0001118
-1.256
-0.01627
0.007573
-0.004599
-0.002974
0.0004996
0.0001949
-0.0006945
0.01324
-0.00316
-0.01008
-0.002656
-0.0025
-0.02922
0.021
0.0008127
0.0003152
-0.001764
0.003967
-0.002203
0.5367
-0.6407
0.1041
-0.000826
0.0008836
-5.752e-05
-0.000261
-0.002291
-0.1655
0.1533
0.001667
-0.00155
-0.0001166
-0.0008428
0.0001608
0.000682
-0.0009846
0.000246
0.0007386
0.0006499
0.0007093
0.0007262
0.0003123
-0.001006
-1.722e-05
0.001023
-0.0003982
-0.0001605
0.0005587
-0.001295
0.0003175
0.0009774
1.11
-1.107
-0.09668
-0.08832
0.185
0.5379
-0.221
-0.3169
0.001284
0.0001308
-0.1524
-0.03671
-3.189e-05
-0.001632
0.001664
-0.0006537
0.001414
-0.0007598
0.0005329
-0.0005141
-1.888e-05
0.07555
0.123
1.307
0.302
-0.001007
0.0004024
0.004657
0.0007218
-0.005378
0.0005679
-0.001052
0.0004841
-0.0002981
-0.03848
0.03878
0.6296
0.07569
-0.7053
0.002724
-0.006035
0.003311
0.254
-0.1211
-0.1329
0.001908
-0.002559
0.0006505
0.0003501
-2.902e-05
-0.0003211
0.001713
-0.0006815
-0.001031
0.0001559
0.0005997
-0.0008581
-0.0001584
-0.0002581
-0.001103
0.001361
0.01356
-0.01041
-0.003151
0.00154
0.001209
-7.467e-05
0.0009484
-0.0008737
-0.3984
0.4566
-0.05819
0.002004
-0.002336
-0.0009358
0.0008621
-0.0005918
-0.001074
0.001666
-0.0004745
-0.0002819
-0.01287
-0.2113
0.001754
0.0008751
-0.002629
0.0007231
-0.001353
0.0006295
0.3098
-0.1919
-0.1179
0.00261
-0.0002438
-0.002366
0.0003504
-0.0004998
0.0001494
-0.0005514
-0.001627
0.002178
0.0007881
-0.00186
0.001072
1.537
-1.537
1.536
-1.536
-0.0009414
0.001602
-0.0006607
-0.001405
0.002302
1.062
0.03082
-1.093
-0.0007324
-0.0002753
0.001008
-0.09025
-0.07409
0.1643
0.265
-0.01095
0.0003058
-0.0003059
-0.001117
0.001119
-2.743e-06
0.9189
-0.6047
-0.3142
0.001337
-0.0008421
-0.0004946
0.004929
0.007423
-0.01235
-0.001797
0.0009312
0.0008656
0.9917
-0.1775
-0.8142
0.00444
-0.006015
0.001575
-0.7209
1.179
-0.4584
-0.2807
-0.9361
1.217
0.914
-1.195
-0.6459
1.558
-0.9117
0.02205
-0.03952
0.01747
0.002755
0.0005982
-0.0001949
0.0006181
0.0001792
-0.004511
-0.6556
1.574
-0.9179
-0.001923
-0.0006171
0.00254
-0.001566
0.001383
0.0001826
0.004856
0.05043
-0.05528
-0.0006676
-0.001036
0.001703
0.0002815
-0.0002816
-0.001877
0.00177
0.0001068
-0.0001988
0.0008625
-0.0006638
-0.004345
0.00173
-0.0009859
0.0004314
-0.1583
0.1728
-0.00198
0.001127
0.0008529
-0.0007968
0.002986
-0.002189
-0.04839
0.01101
0.03738
-0.0003826
-0.0001244
0.000507
0.3657
-0.4718
0.1061
0.3977
-0.8445
0.4468
-1.194
1.3
-0.1064
-0.0009549
-0.0006016
0.001556
0.0007754
-0.0005546
-0.5107
0.355
0.1558
0.05166
0.151
-0.2027
-0.03621
0.05425
-0.005004
-8.929e-06
0.005013
-0.0002242
-0.0001079
0.0003322
-0.001704
0.0001382
0.005616
0.008294
-0.01391
-0.0009342
0.004491
-0.1074
0.213
6.587e-05
-0.0005784
0.0005125
-0.2442
0.09522
0.149
0.1414
0.1628
0.5897
0.8907
0.0002397
5.983e-05
-0.0002995
0.001158
0.0002843
-0.001442
-0.4773
0.1804
0.2969
-0.03272
0.0167
0.01602
-0.0008114
-0.001572
1.142
0.02837
-1.171
0.004124
-0.006752
-0.0004025
0.0002647
0.0001378
0.3141
0.467
-0.7811
-0.2186
1.109
-0.006118
0.02147
-0.01535
-0.07811
-0.008386
0.0865
0.0006494
0.0003094
-0.0009588
-0.0004074
0.0004803
-7.294e-05
0.00935
-0.008394
-0.0009558
0.001155
-0.001389
0.0002344
0.0119
-0.2254
0.2135
0.0007624
0.0006472
-0.00141
0.5303
0.001177
-0.0002671
-2.269e-06
0.0003247
-0.0003225
0.0008112
-0.0008112
-0.009202
0.005505
0.003697
0.05462
0.0224
-0.07702
-0.9744
0.5509
0.4235
-0.0008238
0.0008238
-0.0006175
0.001132
1.089
-1.061
-0.0282
0.2108
-0.08071
-0.1301
0.006615
-0.005128
-0.18
-0.02515
0.2051
0.001152
-0.001936
0.0007832
-0.001095
0.0007449
0.0003503
-0.000358
0.0002649
9.311e-05
0.000619
0.0002751
-0.0008941
0.01689
0.0156
0.0005715
-0.0005835
0.0427
-0.06093
0.01823
0.001471
-0.001703
0.0002321
-0.0008857
0.0004395
0.0004463
0.07767
0.1699
-0.2475
9.398e-05
-0.0002002
0.0001062
0.8004
-0.7339
-0.0665
-0.001132
0.001162
-2.99e-05
-0.0002625
-0.0005567
-1.226
0.505
0.0001857
-0.0001857
-0.6105
1.577
-0.9661
0.0003053
-2.378e-05
-0.0008705
0.0007888
8.177e-05
-0.001379
0.001496
-0.0001175
0.0001552
0.0001046
-0.0002598
0.006326
0.007237
-0.00121
1.421
-0.3658
-0.0009765
-0.001399
0.002375
-0.0002098
0.0009004
-0.0006906
0.001771
0.0006757
0.0006609
-0.001622
0.000961
0.0008703
0.0001502
0.09231
-0.2762
0.1839
-0.0003838
0.001236
-0.0008518
0.01267
0.003038
-0.0157
0.002958
-0.002383
-0.0005747
0.08216
0.1319
-0.2141
-0.002923
0.002111
0.0008118
-1.904
0.8304
0.1211
-0.2056
0.08441
-0.004269
0.000234
0.004035
-0.0009929
0.7502
-1.396
0.03857
-0.07041
0.03184
0.0001697
-0.001414
0.001244
0.758
-1.414
0.001009
-0.001796
0.0007869
-0.008429
0.01914
-0.01071
-0.0008705
0.03031
-0.03402
0.003705
0.0009951
0.0001105
-0.001106
-0.0002944
0.001116
-0.0008217
0.0008252
0.001053
-0.001878
-0.0005935
-0.002922
-0.0005997
0.0001248
0.0004749
0.1956
0.9465
-1.142
0.002614
-0.002336
-0.0002777
0.02016
0.1003
-0.1205
0.00118
0.001318
-0.002498
-1.917e-05
-0.0002589
0.0002781
0.002736
-0.002266
-0.0004704
-0.0003826
-1.005
1.329
-0.3248
0.0145
-0.03098
0.002143
-0.002395