/*--------------------------------*- C++ -*----------------------------------*\
  =========                 |
  \\      /  F ield         | OpenFOAM: The Open Source CFD Toolbox
   \\    /   O peration     | Website:  https://openfoam.org
    \\  /    A nd           | Version:  8
     \\/     M anipulation  |
\*---------------------------------------------------------------------------*/
FoamFile
{
    version     2.0;
    format      ascii;
    class       volVectorField;
    location    "10";
    object      U;
}
// * * * * * * * * * * * * * * * * * * * * * * * * * * * * * * * * * * * * * //

dimensions      [0 1 -1 0 0 0 0];

internalField   nonuniform List<vector> 
63579
(
(0.6718 0.2252 0)
(0.6765 0.4072 5.138e-22)
(0.6884 0.3148 0)
(0.6017 0.2732 1.632e-21)
(0.3714 0.5389 0)
(0.617 0.3811 6.582e-23)
(0.3224 -0.333 0)
(1.03 -0.163 6.429e-22)
(1.111 -0.1025 6.054e-23)
(1.089 -0.1753 0)
(0.9206 -0.4247 0)
(0.7872 -0.05327 6.149e-21)
(1.065 -0.1769 9.147e-22)
(1.236 0.3147 7.577e-22)
(0.8956 -0.08639 6.086e-23)
(1.25 0.321 7.434e-22)
(1.116 -0.1029 2.835e-23)
(1.11 0.2853 0)
(1.088 0.2731 4.437e-22)
(0.9321 -0.4267 0)
(1.14 -0.1959 -2.232e-23)
(0.9519 -0.03726 2.812e-21)
(1 -0.00251 -4.015e-21)
(1.115 -0.2826 -2.003e-21)
(0.9996 -0.002711 3.834e-21)
(1.11 -0.1014 -1.047e-22)
(1.001 -0.01736 4.049e-22)
(0.6779 -0.1854 -6.682e-22)
(1.002 0.001081 0)
(1.014 -0.2765 -5.4e-22)
(0.998 0.0006327 3.569e-21)
(1.002 -0.01664 0)
(1.007 0.00605 6.288e-21)
(1.02 0.04158 0)
(1.116 -0.2825 9.993e-22)
(1.001 0.001428 -5.221e-21)
(0.9346 -0.4191 -2.505e-21)
(1.122 -0.1117 -1.003e-22)
(1.01 -0.274 0)
(1.207 0.6063 0)
(0.9964 -0.02918 -6.032e-21)
(1.191 0.5853 0)
(1.043 -0.03786 6.571e-22)
(1.109 0.2783 0)
(1.001 0.001387 9.8e-21)
(1.141 -0.1962 -1.817e-22)
(0.9626 0.8253 0)
(1.127 -0.1299 1.124e-22)
(1.14 -0.1745 -1.124e-22)
(0.9979 0.000634 -2.654e-21)
(0.9022 -0.3546 -2.545e-22)
(1.005 -0.001267 3.514e-20)
(0.3312 -0.3336 -3.39e-21)
(0.3532 0.2312 9.206e-22)
(0.9952 0.02091 -1.858e-21)
(1.122 -0.1802 1.123e-22)
(0.9962 0.05246 0)
(1.007 0.006287 -3.265e-21)
(1.02 0.04092 -2.323e-22)
(1.005 -0.001451 -2.931e-20)
(1.028 -0.3636 -5.038e-22)
(1.095 -0.1103 -6.279e-23)
(0.9321 -0.4277 4.746e-21)
(1.019 -0.1354 7.117e-23)
(1.028 -0.005667 0)
(1.099 -0.3139 0)
(1.126 -0.1023 -5.051e-23)
(0.8438 -0.4659 2.392e-21)
(1.029 -0.195 -2.545e-22)
(0.9889 0.04528 -8.533e-22)
(1.283 0.3063 4.232e-22)
(0.01081 0.0673 -1.748e-21)
(1.002 0.0009101 -1.967e-23)
(1.045 0.8239 -1.434e-23)
(1.128 -0.1213 -1.135e-22)
(1.14 -0.2189 3.378e-22)
(0.9027 -0.1642 0)
(0.5757 -0.412 -8.776e-22)
(1.11 -0.1005 -9.716e-23)
(1.052 -0.363 0)
(0.6448 -0.3187 2e-21)
(0.9977 -0.02995 5.451e-21)
(1.103 -0.2893 -3.748e-22)
(0.8615 -0.3122 2.609e-21)
(1.344 0.2668 -7.711e-23)
(0.948 0.05258 2.708e-22)
(1.125 -0.1917 -5.583e-22)
(1.087 -0.3024 7.657e-22)
(0.9884 -0.0009564 0)
(1.251 0.3693 -2.827e-23)
(1.118 -0.1128 -1.672e-22)
(0.955 -0.0325 0)
(1.086 -0.3032 -7.871e-22)
(1.022 -0.04584 4.523e-21)
(1.098 -0.3153 -7.736e-22)
(1.038 0.1483 0)
(0.3715 0.2483 0)
(1.113 -0.1027 0)
(0.9748 -0.04107 2.078e-22)
(0.3911 0.5734 -3.159e-22)
(1.001 1.856e-05 -2.205e-22)
(0.9999 2.355e-06 -3.607e-23)
(0.9887 0.0295 4.562e-22)
(1.019 0.01337 -1.647e-21)
(0.9264 0.01488 8.823e-22)
(0.8711 -0.03893 2.765e-21)
(1.013 -0.1145 -8.559e-22)
(1.136 -0.194 -6.218e-22)
(0.7924 -0.05608 -1.454e-20)
(0.9952 0.02036 9.128e-22)
(0.9827 -0.00805 -1.278e-20)
(1.345 0.2701 7.933e-23)
(1.133 -0.2132 3.213e-22)
(1.014 -0.1134 -6.002e-22)
(1.243 0.3632 -1.912e-23)
(1.003 0.01008 0)
(1.14 -0.2186 -3.744e-22)
(1.108 -0.2913 2.702e-22)
(1.021 -0.04659 -2.008e-21)
(1.071 -0.1041 3.435e-22)
(1.02 0.01288 2.548e-21)
(1.053 -0.3628 -5.079e-22)
(1.141 -0.2226 0)
(0.9982 0.0009262 -2.43e-21)
(1.074 -0.1154 0)
(1.122 -0.2532 0)
(1.126 -0.2721 7.71e-22)
(0.9201 -0.355 -1.131e-22)
(1.027 -0.005829 0)
(1.335 0.3442 -8.734e-22)
(1.1 -0.2688 4.609e-22)
(0.9115 0.1265 -4.076e-22)
(0.9993 -0.0499 1.359e-21)
(0.9876 0.04478 0)
(0.5528 -0.4238 0)
(0.7509 -0.2939 0)
(1.121 -0.2105 -8.783e-23)
(0.9875 -0.001026 0)
(1.139 -0.1755 1.408e-24)
(0.9788 -0.003447 -5.496e-21)
(1.066 -0.3027 -6.22e-22)
(0.9905 -0.001163 0)
(1.033 -0.03333 0)
(1.126 -0.1298 0)
(0.9898 0.008666 -6.943e-21)
(1.007 0.01948 8.826e-23)
(0.996 0.02223 1.007e-21)
(1.134 -0.1555 -1.217e-24)
(0.9519 -0.03321 1.488e-21)
(1.067 -0.2032 0)
(1.07 -0.1049 -6.61e-22)
(1.123 -0.2104 0)
(0.9873 -0.01903 1.296e-21)
(0.9042 -0.3747 -2.068e-23)
(1.104 -0.1217 -3.037e-22)
(1.045 -0.2505 1.532e-21)
(0.9346 -0.2802 1.422e-21)
(1.121 -0.1799 1.204e-22)
(0.7541 -0.4297 -1.051e-21)
(1.136 -0.1937 5.152e-22)
(0.9821 -0.008129 7.827e-21)
(1.129 -0.1189 -1.005e-24)
(1.14 -0.17 0)
(1.124 -0.2722 -6.878e-22)
(0.9909 -0.001194 -1.974e-21)
(0.9847 0.01156 0)
(1.299 0.4137 3.866e-23)
(1.098 -0.1153 4.238e-22)
(0.9348 -0.01467 2.593e-21)
(1.026 -0.1613 1.493e-22)
(1.025 -0.02189 2.611e-21)
(1.122 -0.2527 2.85e-22)
(1.3 0.4136 0)
(0.9107 -0.04047 -4.432e-21)
(1.206 0.4237 1.472e-22)
(1.007 0.01918 5.361e-22)
(0.899 -0.08621 -1.831e-22)
(1.001 1.428e-05 0)
(0.9998 1.882e-06 0)
(0.8997 -0.1587 0)
(0.9123 -0.3535 0)
(1.124 -0.1921 0)
(1.133 -0.2127 -6.011e-22)
(0.4019 -0.1369 1.377e-21)
(1.133 -0.1552 3.353e-22)
(1.114 -0.1332 -3.715e-22)
(1.115 -0.1283 0)
(0.9319 0.04862 0)
(1.282 0.2677 -5.328e-22)
(0.9805 -0.01511 1.233e-21)
(1.004 0.004965 -2.586e-22)
(0.9891 0.02881 5.215e-22)
(0.965 -0.007546 -1.575e-21)
(0.9812 -0.003139 -1.389e-22)
(0.5897 -0.2198 9.763e-22)
(1.024 -0.02346 -4.003e-21)
(1.092 -0.1192 4.153e-24)
(0.9792 -0.03966 -8.671e-21)
(1.111 -0.1078 -9.998e-23)
(0.9761 -0.004485 -8.165e-22)
(1.05 -0.1372 0)
(1.113 -0.1389 1.564e-22)
(1.046 -0.2537 1.939e-21)
(0.9964 0.05162 0)
(0.98 0.09109 1.21e-23)
(1.01 -0.01223 3.696e-21)
(0.8894 -0.2533 0)
(1.121 -0.2803 -2.995e-22)
(1.112 -0.1015 0)
(0.8938 -0.2544 -1.95e-21)
(0.9302 0.0468 5.212e-22)
(0.9977 -0.04884 -3.706e-22)
(1.003 0.009674 -2.994e-22)
(0.9842 0.09053 0)
(1.131 -0.1351 -2.644e-22)
(1.126 -0.1075 -5.252e-23)
(0.9999 0.001317 -4.929e-21)
(1.119 -0.1129 7.473e-23)
(0.9339 -0.3954 0)
(1.123 -0.1602 -2.487e-22)
(1.029 -0.1933 0)
(1.026 -0.3623 -5.036e-22)
(1.114 -0.209 -1.735e-22)
(1.007 -0.3933 5.915e-22)
(0.999 0.001046 0)
(0.9554 0.1479 5.829e-22)
(1.083 0.2623 -2.66e-22)
(0.9829 -0.183 0)
(1.01 -0.1336 -6.343e-22)
(1.005 -4.102e-05 4.773e-21)
(1.004 0.004872 0)
(1.137 -0.1687 9.983e-23)
(0.9527 -0.03629 -1.483e-21)
(0.9866 -0.01804 1.339e-21)
(0.9948 -0.001171 -1.922e-20)
(0.9179 -0.3603 2.32e-22)
(0.9616 0.0479 -1.266e-21)
(0.98 0.01186 -1.714e-22)
(0.6897 -0.4571 -2.803e-22)
(0.9621 -0.008217 -6.609e-22)
(1.121 -0.1358 5.793e-26)
(1.131 -0.1348 -8.85e-23)
(0.8923 0.05447 8.532e-22)
(1.11 -0.1317 -2.224e-22)
(1.126 -0.1023 0)
(0.4255 0.2198 -1.633e-21)
(0.9914 -0.0004069 4.351e-21)
(1.012 0.03744 -1.654e-23)
(1 -7.582e-05 0)
(1.095 -0.1095 2.507e-22)
(1.008 -0.1013 0)
(1.008 0.0004812 1.181e-20)
(0.4981 -0.3702 0)
(0.8368 -0.4583 3.017e-21)
(0.6717 -0.4529 4.799e-22)
(1.123 -0.2724 -6.092e-22)
(0.9289 -0.3865 -3.869e-22)
(1.018 0.004836 0)
(0.9619 0.02706 0)
(1.285 0.4099 2.512e-23)
(1.123 -0.1118 1.355e-22)
(1.288 0.2906 -4.852e-22)
(0.4187 0.06013 4.098e-21)
(1.077 -0.08139 -9.754e-22)
(1.007 0.5113 -2.884e-22)
(0.9842 -0.002277 0)
(0.8404 -0.4557 -3.028e-21)
(1.013 0.03714 1.843e-24)
(1 -0.0003998 0)
(0.9853 0.01162 4.643e-23)
(1.031 -0.3662 2.602e-22)
(1.13 -0.16 0)
(1.121 -0.1358 2.516e-22)
(0.993 -0.0001795 -4.356e-21)
(1.002 -0.3997 -7.518e-22)
(1.101 -0.107 2.515e-23)
(1.005 -0.01543 0)
(1.127 -0.1212 -1.32e-22)
(0.8754 -0.04009 3.413e-21)
(1.005 -0.01414 1.531e-21)
(1.268 0.5548 0)
(0.9996 -1.071e-06 -1.148e-21)
(1.07 -0.1202 1.14e-21)
(0.9076 -0.3988 5.337e-22)
(1.33 0.3375 -2.391e-22)
(0.956 0.01756 1.379e-22)
(0.9973 -0.3616 -6.409e-22)
(1 -7.341e-05 0)
(1.046 -0.2524 -2.84e-21)
(1.014 -0.3869 9.536e-22)
(1.021 -0.005755 5.981e-22)
(1.122 -0.1689 -3.062e-22)
(1.129 -0.1208 1.201e-22)
(1 0.002716 0)
(0.9997 0.003508 0)
(0.9158 0.1225 -2.055e-23)
(0.9809 0.5428 0)
(0.9834 0.01386 2.184e-21)
(1.004 0.0007324 -2.465e-22)
(0.9973 -0.3495 0)
(0.975 -0.4185 0)
(0.9282 -0.3875 4.927e-22)
(1.107 -0.2375 0)
(1.018 0.03994 0)
(1.002 -0.0004284 2.75e-21)
(1.127 -0.2542 0)
(1.002 -0.0006833 0)
(1.128 -0.113 0)
(0.9763 -0.004371 1.689e-21)
(1.084 -0.1343 1.232e-21)
(0.9828 0.01335 1.146e-21)
(0.9967 7.105e-05 2.939e-22)
(0.8047 -0.4191 -1.597e-22)
(1.008 0.0004569 -1.171e-20)
(1.14 -0.1746 0)
(0.9949 -0.001419 1.867e-20)
(1.131 -0.1354 1.894e-22)
(0.9895 0.02163 1.189e-22)
(0.9899 0.008267 6.696e-21)
(1.129 -0.1509 3.794e-22)
(1.117 -0.1291 0)
(1.114 -0.1385 0)
(0.4311 -0.285 -2.119e-21)
(1.117 -0.1031 -2.345e-23)
(1.185 0.5803 -6.713e-24)
(1.087 -0.0981 0)
(1.003 -0.0006992 -6.554e-21)
(1.133 -0.2377 -9.167e-22)
(0.9875 0.01004 3.974e-21)
(0.4107 -0.1154 0)
(1.034 0.007856 2.448e-21)
(1.005 -4.945e-05 0)
(0.9954 0.02203 -1.857e-21)
(1.113 -0.1001 0)
(1.006 -0.3935 2.984e-22)
(1.006 9.918e-05 5.463e-21)
(1.004 -0.002671 -2.528e-21)
(1.094 -0.09595 -3.63e-23)
(0.9168 -0.3591 -2.509e-22)
(0.9349 -0.3966 1.247e-22)
(1.006 7.503e-05 2.469e-21)
(1.108 -0.1756 0)
(1.001 -0.02837 -9.029e-21)
(1.004 0.0006947 2.321e-22)
(0.8438 -0.469 -4.075e-21)
(1.034 0.009452 -3.58e-21)
(1.003 0.000522 -5.252e-22)
(0.928 0.01537 -3.944e-22)
(1.068 -0.1535 8.168e-22)
(1.014 -0.02582 -1.15e-21)
(1.108 -0.2554 2.139e-22)
(0.9161 -0.1949 0)
(1.095 -0.1361 -1.238e-21)
(0.9457 -0.0235 -2.407e-21)
(1.005 -0.001591 -1.497e-20)
(1.139 -0.1756 -7.763e-22)
(0.9852 -0.2695 -2.254e-21)
(0.6863 -0.09481 3.012e-21)
(0.9996 9.741e-06 3.25e-22)
(1.005 -0.001718 1.271e-20)
(1.077 -0.0803 3.836e-22)
(1.137 -0.2111 0)
(0.82 -0.4468 1.301e-21)
(0.7742 -0.07043 0)
(1.116 -0.2912 0)
(1.017 0.004449 8.079e-21)
(1.008 -0.0005626 1.797e-20)
(0.9624 0.1463 0)
(0.6924 -0.1022 -5.56e-21)
(0.9917 -0.4077 3.418e-21)
(0.9976 -0.4034 8.724e-22)
(0.9966 0.0001412 0)
(1.01 -0.1011 0)
(1.129 -0.2577 -6.864e-22)
(1.139 -0.1724 2.792e-22)
(0.9966 7.404e-05 -2.705e-22)
(1.129 -0.121 -1.553e-22)
(1.113 -0.09915 4.17e-23)
(1.048 0.8157 4.189e-23)
(0.8624 -0.451 0)
(1.126 -0.2719 0)
(1.128 -0.1205 7.436e-23)
(1.129 -0.1191 7.095e-23)
(1.085 -0.1902 3.368e-22)
(0.9841 -0.2716 2.026e-21)
(0.9475 0.05071 -2.711e-22)
(1.132 -0.2499 2.464e-22)
(0.965 -0.403 4.197e-22)
(1.124 -0.1165 0)
(1.011 6.329e-05 1.788e-20)
(1.002 0.0005177 3.695e-22)
(1.085 -0.132 8.049e-22)
(0.9958 0.0001631 -1.421e-21)
(0.9958 0.0001383 -1.372e-21)
(0.9874 0.0313 4.315e-22)
(0.2756 -0.1937 3.307e-21)
(1.025 0.002487 0)
(1.135 -0.2039 0)
(1.1 -0.2226 5.126e-22)
(1.043 -0.2489 1.455e-21)
(1.139 -0.1726 -2.64e-22)
(1.062 -0.135 7.288e-22)
(0.9992 1.401e-05 -8.663e-22)
(1.127 -0.1621 2.226e-22)
(0.9994 -3.135e-06 1.136e-21)
(1.105 -0.2454 1.279e-22)
(1 -0.0003688 0)
(1.002 -0.0003802 -4.671e-21)
(1.128 -0.1367 1.615e-22)
(0.9965 0.0001685 -1.014e-22)
(1.285 0.4079 -1.345e-23)
(1.14 -0.17 -1.961e-22)
(1.038 -0.3562 -4.125e-22)
(1.006 0.0002029 -1.606e-21)
(1.018 0.004891 0)
(1.007 0.0002076 -1.415e-20)
(1.131 -0.1457 1.821e-22)
(0.8244 -0.2242 2.207e-21)
(1.005 -0.001668 1.593e-20)
(0.86 -0.3073 -2.997e-23)
(1 0.0007959 -6.886e-22)
(1.006 -0.01465 0)
(0.9755 -0.01528 -1.485e-21)
(1.005 -0.001539 -1.432e-20)
(0.7898 -0.4753 0)
(1.134 -0.1416 -1.086e-22)
(1.078 -0.1481 1.348e-23)
(0.9912 -0.003673 2.681e-22)
(1.133 -0.135 -1.882e-22)
(1.002 0.01207 4.077e-22)
(1.114 -0.1329 3.265e-22)
(1 -0.0001018 3.67e-21)
(0.8833 -0.4344 3.347e-22)
(0.2363 -0.3096 1.11e-21)
(0.9937 -0.02806 -5.978e-21)
(0.9184 -0.2095 -2.731e-21)
(1.108 -0.1466 0)
(0.6836 0.8876 2.951e-22)
(1.104 -0.1989 1.008e-21)
(0.943 -0.3363 7.184e-22)
(0.6921 -0.1304 5.652e-22)
(1.001 0.01475 -2.447e-21)
(1.074 -0.343 5.464e-22)
(1.34 0.2296 0)
(1.02 -0.1684 -1.354e-21)
(1.001 0.0008004 0)
(1.076 -0.2475 -1.638e-21)
(0.2515 -0.3087 0)
(1.011 0.04692 0)
(1.139 -0.1634 -5.794e-22)
(1.004 0.000495 -1.387e-21)
(0.9969 6.636e-05 -1.993e-21)
(1.037 0.01749 -6.816e-21)
(0.3577 0.2056 -8.215e-22)
(1.118 -0.1142 2.835e-22)
(0.9691 -0.05278 3.655e-21)
(1.297 0.4413 2.869e-22)
(1.131 -0.2542 -6.176e-22)
(1.01 -0.01185 0)
(0.9723 -0.05096 -5.758e-21)
(1.13 -0.2255 0)
(0.3482 -0.3467 5.999e-22)
(0.9876 0.0002618 7.155e-21)
(1.129 -0.2579 0)
(0.9821 -0.01507 -4.049e-22)
(0.9999 -8.249e-05 0)
(0.9506 -0.01035 8.047e-21)
(1.023 -0.3331 0)
(0.9454 -0.3993 -1.364e-22)
(1.133 -0.2459 0)
(0.9971 4.527e-05 -1.037e-21)
(0.8233 -0.4809 2.323e-21)
(1.005 0.000497 -4.338e-22)
(0.9475 -0.3596 0)
(1.126 -0.1731 -3.745e-22)
(1.115 -0.1149 -3.286e-22)
(1.017 0.04034 6.715e-22)
(0.995 0.008051 0)
(1.132 -0.2137 -3.443e-22)
(0.8921 -0.3884 -7.41e-22)
(0.3491 0.393 0)
(0.9867 -0.4109 -1.462e-21)
(0.9881 -0.4113 1.467e-21)
(1.011 0.001455 -8.862e-21)
(0.9914 0.005671 -1.196e-20)
(0.9683 0.007893 1.79e-21)
(1.026 -0.2131 0)
(1.129 -0.1476 0)
(0.6422 -0.09398 7.693e-22)
(1.131 -0.1376 -3.013e-22)
(0.4111 0.5774 0)
(1.011 0.0001044 -4.646e-21)
(1.009 -0.003345 6.505e-21)
(1.112 -0.1786 0)
(1.001 1.737e-05 5.178e-21)
(0.9089 -0.4065 1.126e-21)
(1.114 -0.09514 2.289e-22)
(1.103 0.4135 -5.719e-23)
(0.9999 0.001299 4.568e-21)
(1.088 -0.1868 -6.604e-22)
(1.001 -0.3896 2.248e-21)
(0.8691 -0.2736 -1.463e-21)
(1.111 -0.1012 -1.098e-22)
(0.9227 -0.4127 -9.03e-23)
(1.129 -0.1291 3.751e-22)
(0.9771 -0.4234 1.739e-21)
(0.9852 -0.01968 0)
(0.314 -0.3302 -2.612e-21)
(1.005 0.02612 -5.988e-22)
(0.6693 -0.1278 0)
(0.9959 -0.0005003 5.704e-21)
(1 -4.149e-05 0)
(1.139 -0.1632 4.077e-22)
(1.032 -0.3805 0)
(1.094 -0.1827 0)
(1.11 -0.1462 -1.861e-22)
(0.9977 -0.0337 0)
(1.115 -0.2248 7.498e-22)
(0.992 -0.002282 2.644e-21)
(0.6592 -0.08706 -5.305e-22)
(1 -0.001405 -2.849e-20)
(0.9952 -0.0004921 -1.147e-21)
(0.9891 -0.003735 1.474e-20)
(1.135 -0.1518 0)
(1.04 -0.164 6.124e-22)
(0.9994 -0.003394 -3.49e-21)
(1.114 -0.1326 3.422e-22)
(1.006 0.008835 0)
(1.281 0.433 -1.174e-22)
(1.036 -0.1496 -1.298e-21)
(1.128 -0.1292 -1.14e-22)
(1.135 -0.22 1.221e-21)
(1.133 -0.1634 5.395e-22)
(1.13 -0.124 0)
(0.9981 -0.002949 1.519e-20)
(1.025 -0.05035 -4.006e-22)
(1.141 -0.2105 6.308e-22)
(1.108 -0.304 0)
(1.113 -0.116 0)
(1.063 -0.1311 -1.207e-21)
(0.8798 0.2291 0)
(0.9689 -0.01512 2.982e-21)
(1.109 -0.1898 1.277e-21)
(0.9962 0.000333 0)
(0.7167 -0.4676 1.509e-21)
(1.124 -0.1068 -1.384e-23)
(1.105 -0.2991 0)
(1.119 -0.1394 2.5e-25)
(1.124 -0.107 1.359e-23)
(1.104 -0.299 0)
(0.9965 -0.001033 -1.377e-21)
(0.9898 -0.02516 1.399e-21)
(0.9999 1.603e-06 -1.224e-21)
(1.108 -0.2334 0)
(1.014 -0.06412 0)
(0.8956 0.2308 -7.941e-22)
(1.079 -0.1588 0)
(1.001 2.339e-05 0)
(1.018 -0.002404 -2.514e-22)
(0.9416 0.2017 -4.938e-22)
(1.038 0.03107 0)
(1.133 -0.1927 5.127e-22)
(0.979 -0.04856 4.775e-21)
(1.134 -0.2379 7.731e-22)
(1.138 -0.1761 -5.239e-22)
(0.9958 0.0003871 1.426e-21)
(1.122 -0.1153 1.19e-22)
(1.008 0.0113 -1.557e-21)
(0.8495 -0.4051 0)
(1.106 -0.2985 1.719e-21)
(0.9988 0.005351 -7.893e-23)
(1.124 -0.09933 -5.866e-23)
(1.335 0.3441 -5.474e-22)
(1.137 -0.1552 1.661e-22)
(0.8949 0.00124 1.164e-21)
(1.121 -0.2339 1.243e-21)
(1.137 -0.1683 4.59e-23)
(0.7584 -0.4521 0)
(1.142 -0.1894 -2.655e-22)
(1.12 -0.1354 -2.883e-22)
(1.112 -0.1125 -1.979e-24)
(1.079 -0.09624 1.198e-21)
(1.137 -0.2382 -5.736e-22)
(1.069 -0.1193 -5.854e-22)
(1.129 -0.1887 -1.699e-21)
(0.9998 1.757e-06 -1.112e-21)
(1.007 0.0005892 0)
(0.9225 -0.02434 -6.435e-21)
(0.9935 0.009326 -1.537e-20)
(1.136 -0.1514 2.576e-22)
(1.067 -0.2887 2.272e-22)
(1.134 -0.1401 -3.146e-23)
(1.135 -0.1621 0)
(0.9433 -0.3837 0)
(1.061 -0.07433 -6.827e-22)
(1.11 -0.2606 -9.147e-22)
(1.097 -0.1564 3.754e-22)
(1.081 0.3108 2.308e-22)
(1.135 -0.1782 1.839e-22)
(1.021 0.07104 3.021e-22)
(1.007 0.008743 1.611e-22)
(1.123 -0.2556 0)
(1.005 -0.001393 -1.826e-20)
(1.135 -0.2116 0)
(0.691 -0.1129 6.831e-22)
(1.027 0.007601 0)
(1.018 -0.02789 -2.761e-22)
(0.9971 -0.02242 -4.092e-21)
(0.6956 -0.1482 0)
(1.102 -0.1974 6.166e-25)
(1.102 -0.2687 -2.16e-22)
(1.007 0.0006901 7.024e-21)
(1.003 3.697e-05 0)
(0.9968 0.0002636 0)
(1.001 0.0005068 5.602e-22)
(1.023 0.4972 -2.83e-22)
(1.127 -0.1374 -2.661e-22)
(0.6442 -0.07637 6.456e-23)
(1.068 -0.2635 2.822e-22)
(1.095 -0.1321 -9.6e-22)
(1.003 8.434e-05 0)
(1.118 -0.2755 5.444e-22)
(0.6365 -0.0913 0)
(0.5903 -0.3239 0)
(1.124 -0.1009 -5.032e-23)
(1.141 -0.1794 0)
(0.6288 -0.263 9.575e-21)
(1.006 -0.00308 1.563e-20)
(1.109 -0.09895 -2.598e-23)
(1.154 0.6748 0)
(1.003 1.03e-05 -9.13e-21)
(0.517 0.8275 0)
(1.14 -0.1931 6.548e-22)
(1.136 -0.1854 -1.77e-21)
(1.008 -0.001925 5.127e-21)
(1.035 -0.2864 -7.76e-22)
(1.004 0.02657 2.474e-23)
(1.124 -0.1064 1.131e-22)
(0.4984 -0.4497 0)
(1.104 -0.2041 0)
(1.125 -0.1219 1.978e-22)
(1.093 -0.2893 0)
(0.8606 0.08304 1.155e-21)
(1.124 -0.2703 6.469e-25)
(0.6137 0.869 0)
(1.009 0.002629 9.642e-21)
(1.032 0.6789 1.585e-22)
(0.9943 -0.01207 2.433e-21)
(1.126 -0.1602 0)
(1.004 -0.01165 3.317e-22)
(0.9955 -0.0005493 0)
(1.155 0.7014 4.5e-23)
(1.085 -0.335 0)
(1.002 0.002146 0)
(1.008 0.04146 0)
(0.9979 0.001388 -1.876e-21)
(1.007 -0.001065 2.045e-20)
(0.9999 3.463e-06 0)
(0.9881 -0.007686 3.861e-22)
(1.035 -0.1624 -5.8e-22)
(1 -2.925e-06 5.901e-22)
(0.9415 -0.382 1.317e-22)
(0.9374 0.07028 7.011e-22)
(1.135 -0.1556 2.776e-22)
(1.129 -0.1208 6.029e-23)
(1.125 -0.1354 0)
(1.143 -0.1985 9.073e-22)
(1.001 -0.002971 3.209e-20)
(1.007 -0.3925 -2.619e-21)
(0.9967 0.01312 0)
(0.6368 -0.08736 -8.716e-22)
(1.025 -0.3821 -1.273e-22)
(1.127 -0.149 -4.692e-22)
(1.005 0.0001772 0)
(1.005 0.0002513 -9.464e-22)
(0.941 -0.01094 -4.347e-21)
(1.134 -0.1406 -1.146e-22)
(1.101 -0.2189 0)
(0.7705 -0.3163 -4.291e-21)
(0.9237 -0.01757 -1.01e-22)
(1.127 -0.148 -2.293e-25)
(1.064 -0.3444 -3.465e-21)
(1.024 -0.03016 -2.209e-23)
(1.124 -0.09811 0)
(1.14 -0.2158 0)
(1.129 -0.1457 4.393e-22)
(1.027 0.008484 -1.174e-21)
(0.897 -0.09526 0)
(1.016 -0.06426 -7.026e-22)
(1.121 -0.2707 -5.014e-22)
(0.969 -0.007539 1.823e-22)
(1.13 -0.1316 0)
(1.004 7.035e-05 0)
(1.052 -0.3446 -3.698e-22)
(0.699 -0.1205 3.495e-22)
(0.6096 -0.4772 -2.274e-21)
(1.113 -0.1781 -1.993e-22)
(1.006 0.0003161 -2.105e-21)
(0.7183 0.8346 0)
(1.012 -0.0004565 0)
(1.068 0.1387 2.949e-22)
(1.139 -0.1621 -3.599e-23)
(0.8224 -0.4759 3.964e-24)
(0.9887 -0.1031 2.608e-21)
(0.7873 -0.4614 -1.247e-21)
(1.094 -0.0964 4.028e-23)
(0.9946 0.0001337 4.5e-21)
(0.9946 0.0001645 -4.327e-21)
(1.112 -0.1151 -2.824e-22)
(1.128 0.2983 -1.232e-22)
(1.279 0.3688 -3.94e-23)
(1.091 -0.1031 1.335e-22)
(0.9587 -0.00887 -2.694e-21)
(1.032 0.03208 -4.73e-23)
(1.019 0.02278 2.281e-21)
(1.01 -0.0009125 7.479e-21)
(0.9926 -0.003618 -4.536e-22)
(0.6813 -0.2349 0)
(1.009 0.004832 4.172e-22)
(1.294 0.4328 6.25e-22)
(1.05 -0.2298 0)
(0.8736 -0.4194 0)
(0.9947 0.0004039 0)
(0.3455 -0.3847 -2.995e-21)
(0.2278 0.464 -5.945e-22)
(1.005 -0.01746 5.853e-22)
(0.8688 0.8166 0)
(0.08163 0.3323 8.406e-22)
(1.025 -0.09137 -4.323e-22)
(1 -0.0002986 1.442e-22)
(0.9979 0.0004651 -2.913e-22)
(1 -6.165e-07 -6.67e-22)
(1.072 -0.212 0)
(1 -0.0005583 0)
(1.002 0.01016 0)
(0.3259 0.5251 1.678e-21)
(1.007 -0.001306 0)
(1.133 -0.1489 1.553e-23)
(1.014 -0.2221 0)
(1.008 0.01702 3.53e-22)
(1 -5.973e-05 6.315e-21)
(0.3144 -0.3497 -1.528e-20)
(1.092 -0.2992 4.355e-22)
(1.138 -0.1576 5.081e-22)
(1.032 -0.0005314 0)
(1.101 -0.1704 0)
(0.983 -0.1686 -6.643e-22)
(0.9961 0.0003018 0)
(1.037 -0.3052 0)
(1.031 -0.005682 -1.583e-21)
(0.9917 -0.4018 2.822e-22)
(0.9634 0.02785 1.183e-21)
(0.9996 0.001782 2.738e-20)
(0.9767 0.3058 -3.267e-22)
(1.028 -0.3748 -1.464e-22)
(0.4213 0.3093 0)
(1.123 -0.2561 6.62e-22)
(1.004 -0.003563 1.829e-21)
(1.069 -0.09917 1.323e-22)
(0.6392 -0.08644 -1.364e-21)
(1.117 -0.1553 5.271e-23)
(1.008 -0.06725 3.592e-21)
(0.9942 -0.3475 0)
(0.3012 0.7602 6.128e-22)
(1.338 0.2861 -1.019e-21)
(0.9945 0.0002513 5.71e-22)
(1.015 0.002288 8.55e-22)
(1.14 -0.2285 0)
(0.9937 0.002954 0)
(1.006 0.001199 -2.519e-21)
(1.099 -0.1166 4.274e-22)
(1 -0.007705 9.602e-21)
(0.9469 -0.3999 1.511e-22)
(0.9485 -0.01337 0)
(1.112 -0.1122 -1.106e-22)
(1.005 0.004561 3.736e-22)
(1.108 -0.3033 -5.35e-23)
(0.8902 -0.4635 3.233e-21)
(1.127 -0.1936 -1.662e-22)
(1.138 -0.1736 -4.858e-22)
(0.9435 -0.04256 7.286e-21)
(0.7068 -0.4789 -1.027e-21)
(0.9523 -0.4077 -5.949e-22)
(1.112 -0.1326 0)
(0.5196 -0.4605 0)
(0.9844 -0.3955 4.342e-22)
(0.9813 -0.08309 -1.519e-21)
(1.133 -0.1513 0)
(0.7789 -0.07867 0)
(1.131 -0.1301 1.116e-22)
(0.9598 0.04723 9.722e-23)
(0.9725 -0.006678 -1.639e-21)
(0.6573 -0.117 0)
(0.9584 -0.1012 0)
(1.119 -0.1458 0)
(1 -0.0001372 -7.201e-22)
(0.9578 -0.114 0)
(1.143 -0.1971 -1.987e-22)
(1.072 -0.1137 -7.63e-22)
(1.122 -0.1299 3.19e-22)
(0.9785 -0.05777 2.235e-21)
(1 0.001233 -2.906e-20)
(1.019 -0.1507 0)
(0.865 -0.4034 5.67e-22)
(1.139 -0.2138 -3.907e-22)
(1.142 -0.1924 -7.135e-22)
(0.9972 0.0002002 -1.704e-20)
(1.135 -0.1444 1.958e-22)
(0.7982 -0.2498 -1.662e-21)
(0.9411 -0.3805 -3.084e-22)
(0.9514 -0.0328 2.495e-21)
(1.122 -0.1025 4.928e-23)
(1.079 -0.1336 -1.116e-21)
(1.012 0.001742 1.22e-21)
(0.9811 0.06189 0)
(0.9956 0.0003411 -1.683e-21)
(1.098 -0.2584 3.826e-22)
(1.098 -0.2485 0)
(0.8631 -0.4167 -4.422e-23)
(1.116 -0.1576 0)
(0.9989 0.0001515 8.166e-21)
(0.9968 -0.001052 0)
(0.9735 -0.2353 2.335e-21)
(1.001 -0.0001226 4.734e-21)
(1.122 -0.1126 0)
(1 0.0006139 4.761e-24)
(0.9961 0.0007823 -1.728e-22)
(1.014 -0.02309 0)
(0.8422 -0.4091 6.048e-22)
(0.9469 -0.02444 2.905e-21)
(0.2446 0.7998 -1.665e-21)
(1.117 -0.1005 -3.86e-23)
(1.127 -0.1147 0)
(0.9447 -0.4216 0)
(1.123 -0.1344 -1.24e-22)
(0.9809 0.007416 4.673e-21)
(0.8563 0.8125 0)
(1.121 -0.1118 1.097e-22)
(1.14 -0.2224 -3.007e-22)
(0.9999 1.031e-05 6.8e-22)
(1.098 -0.3175 0)
(1.113 -0.1579 6.6e-22)
(0.6467 -0.1117 0)
(1.137 -0.2397 0)
(0.9967 0.06404 0)
(1.139 -0.1684 -4.803e-22)
(0.6536 -0.09713 0)
(0.9991 -1.47e-05 -7.181e-22)
(0.3525 -0.3558 1.521e-23)
(1.13 -0.1365 1.911e-22)
(1.004 0.0005421 8.504e-23)
(1.092 -0.09826 0)
(1.087 -0.1062 2.412e-22)
(0.9913 -0.002256 -4.268e-21)
(0.8182 -0.3714 -7.27e-22)
(1.141 -0.1831 0)
(1.017 -0.1143 8.412e-22)
(1.02 -0.001723 7.996e-21)
(1.108 -0.1118 -3.515e-22)
(1.31 0.4883 -1.787e-22)
(1.118 -0.09865 5e-23)
(0.8354 0.9441 0)
(0.919 -0.1214 -6.972e-22)
(0.9929 0.0002244 -6.85e-21)
(0.172 0.4838 -1.283e-22)
(1.026 -0.3423 -9.931e-22)
(1.128 -0.113 -1.853e-23)
(1.122 -0.1065 -1.278e-22)
(0.9936 -1.17e-05 2.874e-21)
(1.138 -0.2319 8.569e-22)
(1.245 0.3983 -4.455e-22)
(1.069 -0.2503 4.618e-22)
(0.9641 -0.3155 -1.78e-21)
(0.9893 0.03576 -1.329e-21)
(0.9627 0.0583 7.799e-22)
(1.1 -0.1722 4.993e-22)
(0.9966 -0.02168 3.599e-21)
(1.131 -0.1283 2.766e-22)
(1.122 -0.1081 0)
(1.123 -0.1254 3.074e-23)
(1.13 -0.2196 2.046e-23)
(1.107 -0.301 0)
(0.09023 0.3438 -8.278e-22)
(1.064 -0.1196 4.838e-22)
(1.142 -0.1892 2.665e-22)
(1.132 -0.1428 0)
(1.127 -0.1089 0)
(0.9963 0.0002029 -5.907e-22)
(1.008 0.01982 1.479e-22)
(0.9974 0.001243 1.73e-20)
(1.112 -0.1601 -1.649e-22)
(1.143 -0.1933 -3.168e-22)
(0.4813 -0.2798 4.291e-21)
(0.9955 -0.04083 1.797e-21)
(1.093 -0.1053 0)
(1.064 -0.1298 -7.112e-22)
(0.8746 -0.02332 1.228e-20)
(1.118 -0.1535 5.982e-22)
(1.003 0.007248 2.828e-21)
(1.116 -0.1493 -2.857e-22)
(1.136 -0.1648 2.182e-22)
(1.115 -0.2254 5.597e-22)
(1.094 -0.1051 -2.145e-22)
(1.12 -0.1049 -9.462e-23)
(1.036 0.1438 -2.924e-22)
(0.05945 -0.02053 1.772e-21)
(1.02 0.002353 -5.612e-21)
(1.125 -0.1678 0)
(1.142 -0.1997 0)
(0.9858 -0.001232 0)
(0.9956 0.0001578 -6.874e-22)
(1.099 -0.1313 7.975e-22)
(1.005 0.05672 -2.143e-22)
(1 -7.715e-05 -1.306e-21)
(0.942 0.07175 0)
(1.12 -0.1454 -3.754e-24)
(1.003 -0.0001431 -3.219e-20)
(1.105 -0.1392 3.197e-22)
(1.008 0.009788 -3.391e-21)
(1.032 0.006014 -2.167e-21)
(1.128 -0.1145 0)
(1 -0.01844 -8.119e-22)
(1.112 -0.2816 -7.074e-22)
(1.067 -0.07331 6.792e-22)
(1.126 -0.1178 6.442e-23)
(1.26 0.5616 -4.377e-22)
(0.6537 -0.1135 0)
(0.9855 0.01443 1.096e-21)
(1 -0.0004786 -9.453e-22)
(0.9844 -0.3252 -2.101e-21)
(0.9928 0.006524 1.056e-20)
(1.268 0.4873 -1.803e-21)
(1.134 -0.2165 0)
(1.004 0.0002092 0)
(0.9986 8.007e-06 -1.873e-23)
(1.113 -0.116 -7.091e-23)
(0.5802 -0.4075 8.738e-22)
(0.9222 0.06357 4.632e-22)
(1.123 -0.1338 -1.974e-22)
(0.9998 0.001307 -5.63e-21)
(1.093 -0.1065 2.401e-22)
(1.132 -0.2544 0)
(1.139 -0.1633 0)
(1.036 -0.09435 0)
(1.068 -0.2934 -5.455e-22)
(1.001 4.418e-06 0)
(1.131 -0.1378 6.262e-22)
(1.094 -0.3205 0)
(1.132 -0.2207 0)
(1.086 -0.3336 0)
(0.7083 -0.4924 -8.074e-21)
(1.038 -0.1282 -2.817e-22)
(1.004 0.0005385 1.501e-21)
(0.9968 7.636e-05 2.397e-21)
(0.9097 -0.3478 -3.761e-22)
(0.9412 -0.4307 0)
(0.994 -0.0008073 -1.03e-20)
(1.009 0.01702 -3.388e-22)
(0.9141 -0.3865 0)
(1.002 0.0009236 2.37e-21)
(0.9593 -0.2573 -3.287e-21)
(1.189 0.4432 -2.614e-22)
(1.068 -0.1523 -1.112e-21)
(1.118 -0.275 0)
(0.9982 -0.111 -7.54e-22)
(0.7212 -0.4852 3.827e-21)
(1.316 0.377 -1.843e-22)
(1.001 0.0008703 -2.991e-21)
(1.132 -0.1367 4.134e-22)
(1.134 -0.1685 -3.114e-22)
(1.137 -0.1563 -1.861e-22)
(1.015 -0.3769 -6.524e-22)
(1.13 -0.1271 -1.566e-22)
(1.006 -0.4 -2.132e-21)
(1.138 -0.2341 -2.448e-22)
(0.836 0.9235 0)
(0.4277 0.2379 -3.963e-21)
(0.9113 -0.3529 2.138e-22)
(1.133 -0.215 0)
(0.9559 -0.14 -2.879e-21)
(1.111 -0.1439 3.916e-22)
(1.031 0.01238 3.96e-21)
(1 0.002536 -8.363e-21)
(1.133 -0.1438 3.912e-22)
(0.9487 -0.1433 -1.811e-21)
(0.9801 -0.1808 0)
(0.6272 -0.2787 5.331e-21)
(1.136 -0.147 4.116e-22)
(0.9888 -0.0007346 2.475e-21)
(1.087 -0.1882 6.859e-22)
(0.9955 0.01977 1.135e-21)
(0.1195 0.5755 0)
(1.13 -0.1597 0)
(0.9999 -1.416e-06 0)
(1.112 -0.1506 0)
(0.8983 -0.4502 1.123e-21)
(1.099 -0.1003 -3.976e-22)
(1.105 -0.2459 3.918e-22)
(1.017 0.07547 2.561e-22)
(0.9925 -0.401 0)
(1.131 -0.1273 -1.959e-22)
(1.003 -0.009702 -2.594e-21)
(1.338 0.3232 4.804e-22)
(1.127 -0.1077 3.226e-23)
(0.9802 0.01121 0)
(1.139 -0.2253 8.582e-22)
(0.9116 -0.444 0)
(0.9176 -0.3776 4.121e-23)
(0.8657 -0.4156 6.983e-22)
(1.101 -0.1071 0)
(1.024 -0.3872 2.034e-21)
(1.257 0.3771 -2.833e-23)
(0.4732 -0.05531 3.92e-21)
(0.9997 0.0006056 -9.375e-22)
(0.9868 0.0207 0)
(0.9999 0.005151 5.312e-21)
(1.284 0.3012 -2.333e-22)
(1.027 0.009393 -1.136e-21)
(1.103 -0.296 -3.243e-22)
(1.11 -0.1266 -1.621e-22)
(0.6193 -0.4611 5.58e-22)
(0.9359 -0.01487 -3.732e-21)
(0.9964 0.0001849 2.807e-22)
(1.099 -0.1034 -1.642e-22)
(1.129 -0.1548 3.942e-22)
(1.135 0.6411 3.9e-23)
(0.9825 0.06481 0)
(0.9984 0.001234 7.701e-21)
(1.092 -0.2275 -1.701e-22)
(1.015 -0.01016 3.743e-21)
(1.131 -0.1258 -1.548e-22)
(0.2588 -0.142 -2.077e-21)
(1.125 -0.1664 2.244e-22)
(0.9945 -0.408 -1.966e-21)
(0.9707 -0.1317 1.065e-21)
(1.113 -0.09686 1.686e-23)
(0.8719 -0.143 1.878e-21)
(1.134 -0.1399 1.213e-22)
(0.9171 -0.3471 0)
(1.005 -0.01105 -7.96e-21)
(1.129 -0.1598 2.66e-22)
(0.9588 -0.1194 1.373e-22)
(1.314 0.275 4.817e-22)
(1.257 0.564 1.919e-22)
(1.004 -0.01766 0)
(1.094 -0.3016 0)
(1.088 -0.3282 0)
(1.021 0.00349 2.662e-21)
(1.094 -0.2897 -3.574e-22)
(1.283 0.4097 -8.132e-22)
(1.061 -0.3211 0)
(1.123 -0.1231 8.976e-23)
(1 1.026e-05 5.977e-23)
(1 1.85e-06 -1.526e-22)
(1.115 -0.09791 0)
(1.064 -0.3012 0)
(1.002 -0.001925 -4.187e-20)
(1.128 -0.2298 1.485e-22)
(0.9879 -0.02263 -5.642e-21)
(1.013 -0.01118 -6.423e-21)
(0.9393 0.2482 -2.733e-21)
(1.114 -0.2841 0)
(0.9854 -0.007217 -3.639e-22)
(1.099 -0.09482 -3.218e-25)
(1.037 -0.1533 5.45e-22)
(1.135 -0.2116 0)
(0.9902 -0.0006194 -8.766e-22)
(1.118 -0.1676 0)
(0.9993 -6.223e-06 9.918e-22)
(0.9988 1.703e-06 1.853e-21)
(0.999 4.908e-06 1.54e-21)
(0.998 2.254e-05 -3.426e-21)
(1.057 -0.06706 -1.003e-21)
(1.134 -0.2146 -3.495e-22)
(0.9748 -0.4176 8.159e-22)
(1.131 -0.146 -2.296e-23)
(1.005 0.0003613 0)
(1.132 -0.1324 0)
(1.13 -0.1442 -3.982e-22)
(0.8869 -0.07439 1.64e-21)
(1.132 -0.134 1.264e-22)
(0.4872 -0.3199 -7.187e-21)
(1.124 -0.2733 3.746e-25)
(1.028 -0.1063 -2.95e-22)
(0.6826 -0.1766 -8.836e-22)
(0.8834 -0.4372 3.257e-22)
(1.009 0.01665 0)
(1.137 -0.2412 0)
(1.125 -0.1076 0)
(0.9258 -0.05484 -3.138e-21)
(0.8403 -0.3326 -9.207e-21)
(1.007 0.006871 -7.764e-22)
(0.987 -0.004451 -3.236e-22)
(1.008 0.000212 1.146e-21)
(0.9006 -0.3696 1.972e-23)
(0.9638 -0.4018 -5.282e-22)
(0.9978 -0.01206 -2.133e-20)
(1.023 0.009911 2.977e-21)
(1.048 -0.04115 -5.964e-22)
(1.128 -0.1666 0)
(0.532 -0.4619 2.204e-21)
(1.129 -0.1442 4.283e-22)
(1.092 -0.1171 0)
(0.9886 0.2999 3.72e-22)
(0.9872 0.009685 6.472e-23)
(0.987 -0.3939 0)
(1.013 0.01663 8.452e-24)
(1.005 -0.01677 -5.334e-22)
(0.993 0.0002811 -3.503e-22)
(0.6094 -0.4718 9.496e-22)
(1.137 -0.2118 3.996e-22)
(0.9955 0.004669 -9.066e-21)
(1.069 -0.08895 -8.027e-22)
(1.138 -0.1735 2.533e-24)
(0.9917 -0.0006573 0)
(1.064 -0.2021 7.366e-22)
(0.9183 0.8583 3.802e-22)
(0.999 0.0008425 0)
(1 0.0008453 3.035e-21)
(1.045 -0.136 0)
(1.032 0.02633 2.459e-21)
(1.298 0.3207 0)
(1.168 0.7098 -2.106e-22)
(0.8731 0.1478 -1.734e-21)
(1.114 -0.1275 -3.043e-22)
(1.006 0.01747 0)
(1.14 -0.1974 3.776e-22)
(1.008 0.006608 0)
(1.115 -0.133 -1.03e-22)
(1.18 0.5353 5.552e-22)
(0.6692 -0.1581 -1.086e-21)
(1.112 -0.1193 0)
(0.9421 -0.06376 0)
(1.008 -0.0004146 -5.922e-21)
(0.6705 -0.1516 1.217e-21)
(0.9837 -0.3943 6.33e-22)
(0.9997 0.0002933 -1.641e-21)
(1.014 -0.02913 -2.664e-21)
(1.121 -0.1396 -8.647e-22)
(1.003 0.01848 -2.454e-22)
(1.142 -0.1836 -3.884e-22)
(0.9151 -0.4296 -1.181e-21)
(0.321 -0.2802 8.182e-22)
(1.102 -0.09851 2.13e-23)
(1.026 -0.0906 0)
(0.9417 -0.431 -7.826e-22)
(0.9361 0.005995 0)
(1.105 -0.1376 0)
(0.9575 -0.4282 -9.534e-22)
(0.9935 0.01662 2.353e-21)
(0.7843 0.7066 2.268e-22)
(1 0.001498 -1.634e-20)
(1.134 0.5842 9.294e-24)
(0.7847 -0.4603 0)
(0.9991 6.895e-06 -2.551e-22)
(0.3674 -0.3001 1.279e-20)
(0.9967 0.0002818 -1.904e-22)
(0.704 -0.4781 1.364e-20)
(0.9633 -0.09504 -7.877e-22)
(1.132 -0.2502 0)
(0.2088 0.6223 5.551e-23)
(0.8745 -0.1453 -1.875e-21)
(1.134 -0.1404 0)
(1.008 -0.0004448 -8.793e-21)
(1.133 -0.1345 -1.954e-22)
(1.026 -0.1125 0)
(1.139 -0.163 0)
(1.129 -0.2587 0)
(1.022 -0.2135 3.552e-22)
(0.9531 -0.02175 3.893e-21)
(1.073 -0.1326 2.223e-22)
(0.9434 -0.1814 4.793e-21)
(1.14 -0.1763 -3.799e-23)
(1.007 -0.02951 0)
(1.139 -0.167 -6.534e-23)
(0.9969 0.0002887 -2.788e-22)
(0.9764 -0.0108 -2.818e-21)
(1.127 -0.1266 -1.096e-22)
(1.141 -0.1832 0)
(0.9983 1.395e-05 1.137e-21)
(1.034 -0.01008 -2.136e-21)
(1.126 -0.1944 0)