/*--------------------------------*- C++ -*----------------------------------*\
  =========                 |
  \\      /  F ield         | OpenFOAM: The Open Source CFD Toolbox
   \\    /   O peration     | Website:  https://openfoam.org
    \\  /    A nd           | Version:  8
     \\/     M anipulation  |
\*---------------------------------------------------------------------------*/
FoamFile
{
    version     2.0;
    format      ascii;
    class       volScalarField;
    location    "35";
    object      nut;
}
// * * * * * * * * * * * * * * * * * * * * * * * * * * * * * * * * * * * * * //

dimensions      [0 2 -1 0 0 0 0];

internalField   nonuniform List<scalar> 
127143
(
6.687e-23
4.605e-22
2.952e-21
3.532e-20
2.324e-19
3.682e-20
1.251e-17
1.757e-18
5.253e-19
2.651e-18
2.038e-17
1.653e-18
1.62e-20
7.188e-20
9.937e-09
4.874e-16
1.251e-19
0.004834
0.00347
1.604e-13
3.878e-05
4.348e-13
6.541e-05
1.602e-08
3.641e-13
3.035e-11
1.309e-13
1.36e-13
7.32e-12
0.005366
2.234e-09
2.595e-11
1.419e-12
6.381e-11
5.09e-05
1.436e-12
2.731e-05
0.000174
4.733e-08
9.129e-12
0.003466
4.274e-06
4.627e-06
8.542e-19
0.004853
1.046e-10
8.098e-12
0.0004236
2.112e-08
3.152e-08
1.81e-15
0.0004362
1.022e-05
5.254e-05
0.006667
2.594e-09
0.006666
9.18e-05
0.006033
5.056e-05
4.13e-06
0.001615
4.195e-07
0.006702
4.648e-10
2.213e-05
6.916e-05
3.521e-07
3.612e-07
0.002948
8.554e-09
4.272e-13
0.002301
0.005333
0.006693
4.191e-13
0.000869
3.713e-05
2.71e-09
0.006705
5.819e-12
1.71e-13
1.86e-09
3.572e-11
0.00174
7.212e-05
1.064e-07
1.035e-12
2.281e-05
3.145e-08
0.004798
4.02e-05
1.1e-07
3.996e-05
4.185e-07
0.000104
4.619e-06
5.229e-10
0.0001168
5.946e-05
0.006705
2.656e-08
1.325e-09
8.993e-06
8.62e-05
0.0001035
2.607e-07
0.002949
9.09e-06
0.00668
1.595e-08
7.488e-13
5.635e-06
7.932e-07
0.006691
2.866e-05
0.0006066
0.006693
0.0008873
8.783e-15
0.00668
2.879e-09
5.233e-07
0.0001087
7.173e-12
3.905e-12
0.0007075
0.00106
4.717e-07
1.765e-09
5.273e-06
3.969e-07
7.371e-07
4.086e-05
3.558e-17
6.265e-06
0.0001955
0.0001006
2.364e-11
0.0001778
5.211e-05
0.001045
7.194e-05
0.0002723
1.113e-05
1.302e-06
5.757e-12
0.006702
3.11e-07
3.508e-10
3.875e-06
3.315e-08
7.653e-05
2.831e-05
3.952e-07
0.00179
7.304e-05
1.073e-09
0.000451
3.275e-10
9.758e-09
1.296e-15
0.005135
5.452e-06
8.353e-11
1.008e-09
9.402e-06
8.486e-06
8.14e-10
0.000205
3.918e-08
0.0002715
1.679e-05
1.508e-06
0.002721
0.0001509
2.371e-06
4.924e-07
3.25e-08
0.002103
1.53e-06
0.0005937
0.0002101
0.0001613
2.174e-09
0.00169
1.381e-05
8.312e-07
2.491e-08
0.0008299
3.206e-06
2.138e-07
0.0001948
6.136e-07
1.035e-17
0.0004987
0.006636
0.006624
2.211e-15
0.002998
0.006693
0.0002031
0.001695
3.922e-05
8.506e-19
1.678e-07
0.0001243
1.848e-06
0.004805
0.006691
0.0001506
0.001236
0.006688
9.431e-10
9.722e-07
4.958e-16
1.39e-09
1.765e-06
3.084e-06
0.0001222
2.996e-06
0.006694
3.003e-08
1.081e-05
1.624e-10
2.272e-08
3.088e-10
0.0001554
3.001e-07
0.0003621
2.825e-05
0.0007398
0.002416
1.402e-13
2.99e-05
0.0001025
5.422e-06
1.181e-20
0.00664
9.421e-06
2.692e-07
1.535e-09
0.0003556
1.236e-09
1.518e-05
1.317e-14
9.577e-08
1.213e-13
7.381e-15
0.002963
6.477e-06
5.03e-11
1.226e-06
9.366e-05
1.087e-08
7.921e-06
0.001233
2.778e-09
6.4e-06
1.586e-05
0.0004108
0.0008026
2.746e-05
0.001008
3.355e-06
1.106e-09
1.327e-07
1.139e-07
5.151e-06
2.503e-06
2.815e-10
0.002719
0.0008089
8.713e-06
6.7e-07
3.85e-06
6.201e-06
5.434e-08
0.002768
1.068e-05
0.003516
0.000135
9.282e-06
0.00669
0.006691
1.035e-17
2.391e-06
0.006692
4.621e-08
0.002193
7.75e-05
4.599e-05
0.0001032
1.023e-05
0.006697
7.449e-06
3.787e-09
5.813e-06
0.0003523
2.974e-06
8.107e-10
3.311e-05
1.427e-05
3.61e-05
1.041e-10
1.058e-06
1.889e-06
0.006689
0.001372
1.645e-06
2.011e-07
1.022e-07
1.462e-09
0.003852
0.00669
8.165e-08
0.0001847
6.543e-10
0.0001411
0.003235
8.298e-05
4.97e-09
0.000423
1.206e-06
7.337e-08
8.1e-05
0.0001099
3.621e-05
7.816e-09
2.381e-06
0.0009636
0.006691
5.588e-05
0.006636
0.006624
3.147e-05
9.699e-06
1.693e-05
0.0009638
1.2e-06
0.0002
1.753e-06
1.718e-05
4.706e-06
1.186e-06
4.289e-08
1.778e-08
1.908e-06
1.274e-09
1.262e-07
1.944e-09
0.003334
0.0001028
4.105e-06
0.0001399
3.399e-08
8.938e-05
1.924e-06
0.006306
7.953e-09
0.001334
4.871e-07
0.002668
3.5e-08
3.71e-08
0.006697
0.003397
0.002999
1.066e-09
0.00274
2.572e-06
0.0003899
1.694e-10
2.843e-08
0.0009682
0.000128
6.057e-09
6.581e-13
0.0001945
0.0028
0.001416
1.452e-11
2.416e-09
2.857e-05
0.0006723
6.859e-14
4.533e-05
1.412e-11
0.000444
0.0005707
0.006687
1.36e-05
1.203e-07
1.066e-08
2.359e-08
2.323e-09
1.411e-05
3.872e-09
0.000138
0.0006006
3.805e-11
0.006694
3.949e-05
0.0002453
4.411e-05
2.274e-06
0.0001199
7.708e-07
0.006705
4.613e-08
2.257e-06
9.221e-10
4.681e-05
0.0005348
7.724e-07
5.029e-07
2.932e-05
1.236e-10
8.848e-06
3.463e-08
1.161e-05
2.432e-11
3.606e-07
0.003224
0.0003334
1.305e-05
4.518e-06
3.894e-05
2.681e-09
9.412e-05
0.006677
3.932e-07
6.859e-05
0.0002939
5.589e-07
0.006697
1.653e-06
2.584e-08
0.0004705
0.006696
0.00669
4.742e-08
0.0001666
8.396e-06
0.0003382
7.417e-10
0.00626
6.575e-08
0.003051
0.001246
6.018e-05
5.517e-09
2.794e-06
6.215e-10
3.794e-05
7.064e-05
5.702e-10
4.716e-09
9.112e-05
2.845e-06
1.123e-06
2.349e-06
0.0006749
8.558e-07
2.367e-06
0.002762
0.001537
3.524e-05
1.647e-08
0.006667
0.0002215
2.837e-05
9.364e-05
0.0001809
0.0001373
0.006644
6.301e-07
3.815e-05
9.294e-08
2.578e-05
6.891e-12
8.743e-08
1.95e-08
1.618e-09
5.503e-06
5.642e-07
3.041e-05
0.006688
7.499e-10
0.0009209
2.054e-07
1.369e-07
6.213e-06
1.158e-06
2.624e-17
3.222e-06
1.14e-06
9.816e-05
1.385e-06
0.006686
6.077e-12
0.001554
0.0001712
0.0005418
1.475e-19
1.584e-15
1.912e-15
0.006697
4.104e-08
1.316e-07
0.00669
0.001487
2.941e-07
7.97e-06
7.294e-06
5.334e-05
5.092e-09
0.0002268
1.374e-12
0.002806
0.0009992
4.329e-14
1.781e-08
1.029e-09
6.617e-08
0.006431
4.365e-06
0.001432
0.0006983
0.006621
3.159e-10
1.009e-10
1.011e-07
0.006636
3.409e-05
0.000113
1.129e-08
3.371e-06
2.267e-10
0.0009967
0.0009237
7.566e-07
4.578e-06
0.006668
3.561e-05
6.107e-06
6.028e-09
3.89e-08
9.966e-09
8.854e-09
0.0004756
1.068e-06
6.419e-08
1.324e-05
5.306e-07
0.003627
2.47e-11
6.285e-06
5.827e-10
6.174e-07
0.0004205
0.006702
0.006701
1.715e-05
1.389e-08
1.265e-06
0.006691
0.004979
1.215e-05
3.867e-09
0.0001216
5.289e-06
4.832e-09
1.78e-11
2.498e-05
0.001225
0.006682
8.469e-08
0.0001113
4.496e-07
0.005053
4.076e-13
1.043e-06
3.997e-07
0.002797
1.082e-10
0.006691
0.0001465
0.000428
0.0007538
0.00512
1.861e-07
0.0004117
9.144e-14
0.006644
2.822e-07
1.593e-09
0.00669
2.299e-06
0.005466
1.131e-07
5.265e-05
0.00669
3.912e-09
8.071e-09
2.761e-07
8.583e-07
9.15e-05
2.61e-09
3.004e-09
1.491e-06
6.639e-08
1.656e-07
3.999e-08
5.677e-05
5.732e-06
2.859e-10
0.005617
2.415e-09
0.006689
1.242e-06
0.0008877
7.889e-05
0.006677
0.006132
6.966e-05
3.802e-08
1.1e-05
0.006485
0.006674
4.541e-07
1.745e-11
5.358e-09
9.762e-10
0.00239
8.96e-06
6.549e-05
1.925e-06
5.249e-06
1.515e-07
1.94e-10
0.006484
1.805e-08
8.374e-06
8.413e-05
4.587e-06
0.0063
0.00498
7.362e-05
7.104e-11
3.085e-05
2.753e-11
0.0008098
0.004019
3.088e-06
1.995e-08
0.0001955
6.833e-10
9.369e-05
0.0006118
3.057e-08
6.419e-06
9.659e-06
2.366e-05
2.284e-18
3.554e-08
9.903e-05
6.826e-05
2.647e-06
1.612e-07
2.694e-10
1.691e-08
0.0004124
8.645e-07
4.948e-06
4.455e-05
0.006677
6.518e-08
1.869e-05
4.639e-06
0.006635
0.006677
8.771e-12
9.839e-05
6.871e-09
2.229e-07
1.812e-07
0.001356
3.262e-05
3.404e-10
1.024e-05
1.141e-08
0.006687
0.006667
5.82e-06
1.413e-05
2.136e-09
5.115e-06
2.229e-10
0.002207
1.094e-08
0.0001188
0.0024
0.004165
8.722e-10
0.0001496
8.641e-09
3.512e-17
8.671e-07
4.151e-06
0.0002248
0.004942
4.926e-07
3.838e-08
1.611e-11
0.003602
0.0004687
5.393e-06
6.524e-10
2.762e-05
2.459e-08
0.003077
2.061e-08
3.353e-07
1.736e-06
0.0007467
5.515e-05
2.099e-22
2.138e-05
0.0001831
1.816e-07
2.917e-07
1.389e-07
0.006686
5.53e-05
0.003312
0.0001277
0.003863
2.156e-11
5.468e-07
1.002e-10
0.003793
1.103e-08
4.736e-05
2.732e-08
1.541e-07
0.004178
0.0002672
1.265e-07
7.944e-09
7.93e-05
0.002665
1.745e-05
4.9e-07
0.003635
1.759e-06
5.131e-05
2.137e-07
3.439e-06
3.457e-05
8.492e-07
1.864e-11
2.543e-07
0.006609
0.0002614
0.001929
2.433e-11
1.478e-09
5.41e-05
0.001555
1.439e-08
0.006619
9.857e-06
3.278e-08
2.124e-05
3.871e-13
2.21e-05
1.283e-07
9.008e-06
0.0005015
1.81e-05
0.006697
5.808e-19
4.56e-06
1.148e-06
8.331e-09
0.0001555
8.467e-07
1.676e-06
1.5e-08
0.006681
0.003516
8.652e-06
0.00404
6.425e-07
2.129e-07
2.564e-07
5.368e-07
0.006659
7.694e-05
0.0001101
0.006688
0.006656
4.61e-06
0.00161
0.002381
1.067e-06
0.0001583
7.669e-15
4.949e-06
8.644e-06
0.006678
4.293e-05
1.663e-05
3.232e-09
2.141e-10
8.705e-06
0.003727
0.006656
0.001176
3.439e-13
0.006678
0.0001235
2.877e-10
4.215e-07
2.31e-11
0.005722
0.000682
4.436e-07
0.006692
1.41e-09
0.006679
1.828e-07
6.544e-11
3.727e-08
5.009e-06
2.903e-12
0.004962
8.058e-09
2.039e-05
4.204e-10
1.072e-06
3.131e-10
3.976e-10
5.716e-05
6.045e-05
1.125e-05
1.057e-14
0.006691
0.0002677
3.787e-09
8.336e-09
4.304e-06
1.039e-12
0.003788
0.0002737
7.79e-08
1.123e-11
1.843e-14
1.124e-07
3.081e-16
1.842e-08
6.081e-16
5.501e-07
1.353e-08
0.003494
1.61e-13
0.0008771
1.817e-07
0.005059
0.005189
5.83e-05
0.0004784
5.764e-07
0.002433
7.747e-07
4.884e-05
0.0003867
4.133e-08
1.514e-07
0.006687
0.002625
2.243e-05
0.0004506
2.523e-09
1.049e-13
0.0004173
2.152e-06
1.42e-08
0.0004004
3.654e-07
0.006687
6.814e-06
9.569e-09
0.006346
7.449e-09
6.895e-06
0.001685
0.006664
0.00316
0.002097
1.6e-15
1.333e-05
9.82e-14
0.0002042
1.115e-06
2.455e-07
6.392e-10
6.599e-09
0.005643
4.711e-11
9.719e-06
0.005512
9.58e-06
1.976e-13
0.001107
4.051e-09
3.906e-06
1.6e-05
1.372e-10
3.856e-16
1.572e-08
0.0009519
0.006693
2.128e-06
7.889e-06
3.841e-06
5.413e-09
6.959e-07
9.727e-11
3.384e-05
6.132e-05
8.237e-11
0.0001753
1.983e-12
0.006687
0.0003428
7.395e-08
0.000117
3.211e-07
0.0001128
0.006691
0.002386
1.907e-08
4.113e-05
3.31e-06
2.016e-08
2.156e-07
0.001211
2.421e-05
1.088e-07
2.895e-08
1.379e-14
1.553e-05
1.397e-09
1.37e-08
2.544e-06
0.001126
5.719e-07
9.762e-07
1.728e-08
1.714e-12
0.0001008
0.006686
0.00668
0.0003816
0.0002089
7.9e-05
0.006687
1.632e-06
6.283e-05
6.481e-05
3.131e-07
5.184e-05
1.069e-07
2.308e-06
0.006705
6.722e-05
5.579e-05
5.735e-12
1.2e-10
4.786e-05
1.146e-05
0.0003539
1.366e-09
1.955e-08
1.237e-06
0.002413
6.226e-07
1.239e-07
9.845e-06
7.039e-11
0.006446
7.23e-12
5.092e-10
0.002004
1.087e-06
9.625e-09
0.004871
4.904e-14
1.47e-14
0.00629
0.006689
3.867e-06
1.638e-05
7.282e-14
3.661e-06
1.987e-07
9.532e-09
6.413e-08
6.953e-05
9.868e-05
0.002812
3.027e-08
0.001333
3.034e-07
1.693e-05
5.6e-09
4.783e-05
0.005398
2.369e-14
1.425e-05
0.006691
2.557e-08
0.005707
0.006685
1.39e-06
7.584e-05
2.476e-14
0.006686
1.517e-09
0.006693
1.545e-07
8.922e-05
0.002931
5.484e-06
2.586e-09
8.94e-09
2.117e-08
7.4e-07
0.003767
0.000516
0.0001224
5.282e-08
8.247e-07
1.049e-07
1.632e-12
2.964e-08
9.356e-14
6.158e-07
9.047e-09
2.28e-09
8.152e-09
1.967e-11
5.503e-06
0.003307
0.003749
8.901e-09
1.709e-05
1.62e-10
0.003174
1.455e-08
0.0002886
3.044e-07
1.751e-07
2.402e-06
6.583e-05
5.599e-10
0.0007524
3.085e-07
3.712e-06
1.416e-09
9.677e-07
0.006529
1.53e-06
9.374e-09
0.005426
6.238e-08
1.146e-09
0.006671
2.639e-05
2.979e-06
0.0002905
5.525e-06
0.0004059
6.672e-05
0.0001011
0.006654
9.809e-08
2.818e-07
0.006692
7.547e-06
0.0001673
6.96e-05
7.08e-08
3.682e-06
0.0004323
6.48e-08
2.701e-12
2.782e-09
2.14e-08
0.000473
1.575e-13
0.003038
8.946e-08
0.006691
2.689e-05
5.457e-06
1.333e-07
1.715e-07
6.786e-08
2.913e-12
0.006698
1.002e-14
2.324e-09
3.736e-09
5.274e-07
4.49e-09
0.000774
0.003541
6.8e-11
3.553e-07
6.7e-05
5.308e-18
9.696e-05
1.612e-08
5.396e-10
5.601e-08
1.371e-07
8.716e-05
6.396e-10
2.223e-07
4.451e-06
4.734e-06
5.275e-09
1.201e-08
0.001034
9.597e-14
9.493e-05
1.291e-07
0.000117
1.571e-09
0.00664
0.006689
0.0001207
8.376e-14
0.000248
0.00239
1.823e-14
4.157e-08
0.006692
2.989e-11
2.063e-07
1.43e-05
1.198e-12
2.595e-05
1.708e-05
1.876e-17
0.00247
1.003e-10
0.0005948
3.292e-07
9.369e-12
1.515e-08
3.323e-10
4.834e-06
2.709e-08
0.0001104
0.00288
2.506e-06
1.262e-06
4.22e-06
2.406e-07
0.002023
2.191e-10
0.0007126
7.815e-05
0.001518
3.982e-06
3.754e-05
2.699e-06
9.875e-14
6.217e-05
2.138e-12
4.355e-10
6.008e-06
1.308e-05
0.006693
0.001014
1.506e-06
3.857e-05
9.196e-10
8.592e-10
1.397e-10
0.006681
6.672e-09
4.562e-08
7.101e-06
3.042e-14
7.148e-07
0.002611
1.183e-07
0.002693
8.164e-08
7.444e-06
5.316e-12
1.711e-07
0.000691
0.000142
0.006695
4.414e-16
2.711e-14
5.592e-05
6.594e-05
5.179e-06
0.006498
0.006644
8.356e-07
0.0009435
0.003099
0.0001025
0.003428
0.003352
1.533e-06
1.992e-05
0.001172
1.936e-08
2.656e-08
1.58e-14
3.109e-05
2.345e-10
1.159e-05
3.515e-07
0.006646
2.627e-09
0.0005029
3.319e-07
1.145e-14
5.541e-06
0.001196
3.284e-06
4.602e-07
1.747e-05
5.083e-15
0.001694
4.513e-06
0.001696
0.0009975
9.335e-06
3.432e-08
4.368e-15
8.46e-05
1.303e-07
0.006674
1.667e-08
1.331e-08
0.006661
4.849e-09
7.477e-07
1.552e-05
5.567e-09
0.006681
2.305e-05
1.524e-16
0.004908
3.815e-08
2.293e-08
2.88e-07
3.732e-11
5.368e-05
9.514e-06
2.398e-07
4.865e-11
8.339e-06
7.587e-08
1.879e-05
2.059e-07
3.712e-10
1.523e-10
9.063e-08
6.434e-06
0.00669
9.942e-08
0.002648
3.516e-10
3.365e-07
0.001896
6.615e-06
0.006675
1.912e-05
5.55e-07
0.006607
0.002222
0.006175
5.253e-10
0.002259
1.545e-13
2.088e-06
1.763e-05
4.32e-09
8.482e-06
7.568e-08
7.979e-09
4.011e-16
3.288e-06
7.706e-07
2.826e-05
2.385e-05
0.0008408
0.006702
4.953e-05
0.001361
0.0005367
0.006699
0.001912
0.006684
5.907e-08
1.116e-05
0.006671
0.006684
1.92e-06
0.0001182
4.275e-09
7.372e-05
0.006666
6.129e-06
1.254e-05
6.629e-05
1.128e-15
1.942e-10
2.651e-13
7.234e-08
6.645e-07
1.668e-08
6.729e-08
0.0002487
7.797e-05
7.034e-12
0.0006845
5.806e-09
2.155e-09
1.497e-06
3.952e-06
0.003349
0.006686
3.659e-16
5.042e-06
3.5e-11
0.006691
1.394e-14
4.849e-08
1.139e-08
1.028e-05
0.006635
0.006634
0.001398
0.001529
0.00236
0.001147
3.742e-07
5.283e-05
5e-06
0.003244
1.091e-05
1.307e-10
1.331e-06
0.0001435
3.583e-05
9.153e-06
4.323e-10
5.753e-09
2.385e-07
1.226e-08
0.000273
0.002809
2.095e-05
8.627e-06
7.789e-13
1.74e-05
0.0003063
3.23e-07
0.002748
1.172e-07
8.313e-05
1.447e-10
0.00353
0.006692
0.0003206
7.668e-07
7.43e-15
2.639e-11
7.961e-05
4.613e-06
3.365e-09
0.000122
0.006617
1.755e-08
2.03e-08
1.351e-15
5.993e-05
1.439e-13
1.787e-05
0.006685
3.443e-08
7.116e-08
0.00074
1.402e-05
0.0001372
2.606e-07
4.751e-07
6.41e-07
0.0006959
8.295e-10
0.0001281
3.354e-08
1.485e-09
1.131e-09
0.003574
0.003572
6.433e-09
8.673e-06
3.788e-15
6.634e-07
5.491e-10
3.773e-10
3.442e-16
0.003098
6.18e-07
0.0004185
0.004009
0.006685
0.0006328
0.006244
1.642e-14
0.006691
3.021e-11
4.004e-05
1.089e-06
3.833e-07
1.473e-09
0.002958
1.305e-11
0.0001035
1.777e-07
0.0001372
1.173e-12
0.006686
2.017e-07
3.152e-08
0.0002066
3.307e-09
6.494e-08
8.16e-05
1.873e-08
4.993e-09
0.0001694
0.00666
1.866e-10
0.002963
0.006649
5.451e-05
1.153e-09
0.00666
2.955e-11
0.006694
1.918e-05
3.542e-06
0.0002298
5.649e-07
0.006657
0.0002549
4.341e-09
9.081e-05
3.568e-05
2.72e-06
3.671e-05
0.00669
0.00668
3.995e-06
3.935e-15
1.17e-06
2.244e-07
0.0008972
2.673e-12
7.265e-05
4.789e-05
0.003283
1.906e-05
9.634e-07
2.221e-09
0.0006869
4.424e-08
0.001108
2.995e-06
0.006703
4.105e-06
1.068e-07
0.0003697
7.87e-07
9.072e-10
2.197e-07
0.006675
2.123e-05
6.486e-11
1.203e-07
1.594e-14
2.799e-10
0.001674
0.0003023
1.309e-05
9.253e-12
1.74e-05
2.322e-08
1.285e-10
0.003198
6.8e-05
0.006686
2e-07
5.182e-08
1.49e-06
0.006692
6.211e-07
0.006692
9.625e-05
1.037e-06
0.006679
0.00217
5.814e-05
1.049e-06
0.0001443
0.002803
1.2e-08
0.006696
1.045e-08
6.526e-11
1.124e-05
0.003447
7.147e-08
0.0009406
2.611e-06
0.000117
5.794e-10
3.256e-07
8.6e-05
1.263e-09
1.543e-06
1.012e-07
9.113e-11
0.0001576
4.78e-05
2.27e-07
0.0002041
3.064e-08
5.362e-05
1.047e-05
3.039e-07
0.000339
0.002741
7.506e-09
0.002086
1.101e-06
4.699e-06
1.745e-14
2.066e-05
5.677e-13
6.285e-05
0.006663
5.844e-13
1.132e-07
9.611e-05
1.011e-08
0.0004044
4.288e-05
0.006705
0.0006535
1.979e-12
0.000261
4.658e-06
3.523e-07
1.056e-07
0.006695
4.217e-07
7.863e-06
7.001e-06
3.764e-10
0.0004401
2.545e-07
6.458e-11
0.006687
0.0002507
6.329e-05
0.003115
2.896e-06
1.809e-05
3.159e-05
1.588e-06
9.409e-05
0.0008831
0.003422
4.192e-05
8.587e-07
0.006531
2.643e-05
2.057e-09
7.21e-14
0.006687
3.568e-07
1.006e-12
0.0013
6.377e-09
0.001498
9.781e-08
6.659e-14
0.003318
0.002881
2.58e-05
0.001001
4.552e-10
3.687e-06
0.0005285
1.092e-11
7.783e-08
0.0004494
2.809e-08
6.201e-17
1.52e-16
4.519e-05
1.852e-05
7.807e-08
7.14e-05
0.0007394
3.031e-06
0.0004962
1.777e-09
1.397e-06
2.437e-06
5.598e-08
3.282e-12
7.579e-05
2.819e-05
0.00669
2.659e-08
2.759e-05
2.037e-05
1.588e-05
8.362e-05
1.093e-07
4.175e-05
0.002936
0.006662
5.191e-09
2.887e-10
1.887e-05
7.763e-09
0.0002151
1.568e-14
1.941e-08
0.0001987
5.092e-08
2.368e-10
2.523e-05
1.865e-07
4.255e-15
0.006609
1.767e-11
8.685e-09
9.05e-08
0.005056
0.0003056
0.001232
5.955e-10
1.832e-08
0.001608
1.996e-10
0.004993
5.869e-06
5.429e-08
0.0001309
0.00188
0.006426
4.219e-09
2.069e-10
1.168e-07
1.511e-10
2.183e-11
0.0003338
3.744e-13
0.002971
2.612e-08
6.284e-06
0.002515
0.0001283
0.003497
1.076e-06
0.0006857
1.842e-07
0.003475
2.015e-07
4.135e-16
3.167e-13
2.126e-05
2.193e-05
3.335e-05
1.282e-05
0.002069
0.0002189
6.931e-07
7.513e-05
0.006696
3.588e-07
1.57e-07
2.42e-08
3.735e-06
2.735e-06
5.334e-08
0.000158
5.187e-09
1.002e-13
1.273e-11
0.0001075
2.2e-07
6.412e-16
0.001104
3.858e-09
0.003091
2.341e-06
5.001e-06
6.153e-18
4.115e-06
2.528e-06
0.003819
0.0001947
2.554e-08
1.236e-05
0.006691
0.006697
0.0004308
2.121e-10
0.001407
1.841e-07
1.089e-13
1.735e-06
0.001153
3.836e-10
0.00235
9.452e-06
2.064e-11
0.0001015
0.004563
1.14e-05
1.361e-06
7.227e-05
2.67e-07
0.006695
9.382e-08
0.003142
4.681e-10
0.003072
3.769e-08
7.1e-12
1.722e-05
3.41e-10
0.0001592
1.866e-09
1.253e-07
6.552e-09
2.015e-05
0.0009647
1.972e-05
7.259e-05
2.327e-09
7.994e-06
3.2e-10
3.336e-08
0.006693
6.16e-06
0.003094
1.062e-09
3.728e-07
0.00275
0.0005204
9.682e-05
5.323e-12
0.003726
7.14e-06
0.0005883
5.094e-05
0.00207
0.0001205
0.0001561
9.193e-14
0.0001073
0.0003644
9.737e-09
0.006671
0.0006877
7.107e-05
5.776e-05
0.0006916
0.006687
9.132e-05
4.221e-08
1.237e-08
0.006691
0.00108
0.002374
1.674e-06
3.687e-08
0.001294
2.711e-05
9.027e-05
8.059e-10
3.23e-09
0.001576
6.532e-07
1.836e-05
9.915e-05
2.157e-07
2.932e-14
0.001544
7.584e-10
6.01e-09
0.001076
1.809e-14
0.006691
0.00666
1.331e-05
1.692e-05
2.432e-16
0.006692
0.0006693
8.856e-09
6.658e-15
2.86e-08
2.029e-09
0.006319
0.006392
8.245e-09
3.462e-07
0.000102
5.959e-07
5.656e-05
0.0008678
2.795e-05
0.006705
3.708e-10
7.868e-08
3.095e-07
0.0002304
1.3e-11
0.0009281
1.781e-05
0.006654
2.96e-06
5.954e-08
7.328e-10
7.083e-09
1.091e-06
1.955e-11
2.056e-07
1.812e-06
2.021e-07
1.043e-08
6.172e-07
0.0001087
6.312e-07
1.393e-10
0.004969
0.005182
9.407e-08
3.773e-06
1.463e-12
9.38e-06
4.57e-09
9.689e-08
0.002883
0.00669
7.38e-06
0.006702
2.506e-05
1.564e-13
2.288e-06
9.099e-05
3.308e-07
0.0001239
7.611e-12
5.869e-08
0.003322
2.365e-06
2.916e-06
2.541e-07
0.0003952
2.726e-07
6.77e-07
1.665e-06
6.727e-06
3.712e-05
1.93e-06
0.0007668
4.34e-10
1.441e-07
2.926e-06
8.495e-06
9.456e-11
1.348e-05
2.154e-07
2.154e-08
1.033e-06
8.29e-06
1.547e-06
4.009e-13
0.0001023
6.229e-08
0.001636
0.001045
0.006703
1.214e-07
0.002334
3.678e-13
2.111e-07
4.091e-05
4.153e-10
3.455e-15
1.413e-10
1.095e-05
4.013e-07
4.34e-10
1.417e-11
0.002717
0.0003487
1.101e-06
7.563e-16
1.678e-06
2.479e-05
7.011e-05
7.292e-05
0.006691
0.0001498
2.262e-10
7.109e-06
5.782e-08
0.002108
0.0001071
1.047e-11
0.006641
9.342e-05
9.712e-05
0.001382
8.96e-10
7.198e-05
1.84e-05
0.002991
5.821e-05
4.673e-08
1.298e-06
1.059e-14
1.306e-08
1.532e-06
0.006673
5.97e-05
9.062e-06
3.589e-10
6.964e-09
9.125e-07
0.002808
6.741e-07
0.006383
2.157e-08
4.685e-09
8.231e-06
1.593e-06
2.719e-05
8.82e-12
1.067e-09
1.327e-08
1.575e-06
6.738e-05
1.481e-06
1.705e-10
0.003308
0.000127
1.206e-13
0.003106
4.545e-05
0.005382
0.006698
1.32e-06
0.003042
2.536e-08
3.579e-07
6.272e-05
0.000126
1.182e-09
1.304e-11
1.863e-06
7.713e-09
1.532e-06
0.001438
1.134e-14
1.699e-05
3.201e-06
0.003242
6.711e-14
0.0004605
3.4e-11
7.674e-13
0.00382
2.502e-09
1.249e-09
9.182e-06
0.0002531
1.126e-09
1.178e-07
1.1e-09
8.862e-05
1.228e-05
0.0002019
0.003558
0.0067
4.554e-05
0.0002935
5.369e-07
1.209e-06
6.646e-06
1.19e-13
0.0003931
0.005443
1.361e-08
1.715e-05
0.001093
5.158e-07
6.216e-06
8.396e-07
2.086e-09
3.798e-10
7.607e-13
3.178e-07
4.32e-08
1.267e-07
4.136e-06
6.341e-07
2.175e-05
4.999e-14
1.01e-08
3.318e-07
9.089e-06
0.006679
1.361e-07
9.403e-09
0.0007399
9.634e-06
6.727e-13
6.388e-10
2.483e-07
0.000134
3.017e-06
8.978e-10
0.00669
2.231e-09
0.001277
0.000141
8.769e-07
5.821e-09
0.006694
5.06e-08
0.0003182
2.392e-06
5.345e-12
3.442e-06
5.997e-07
4.022e-16
4.228e-05
5.314e-08
0.006648
0.006632
6.285e-08
2.912e-05
1.417e-05
3.402e-09
2.074e-07
0.006685
6.046e-12
8.055e-10
1.671e-05
0.006413
0.004526
6.67e-06
2.873e-06
5.513e-08
2.052e-16
3.018e-09
0.005423
2.316e-09
1.632e-12
8.49e-05
3.735e-09
1.823e-08
0.003128
6.069e-05
9.385e-10
0.001198
0.0001987
0.006631
0.006589
0.006612
0.006302
0.0001245
0.0005998
1.53e-06
5.998e-09
5.036e-06
1.831e-06
1.601e-05
7.147e-11
0.00616
8.582e-07
5.945e-05
8.35e-09
2.428e-10
3.128e-09
8.824e-06
4.491e-07
2.026e-08
3.327e-05
1.366e-07
0.0001741
2.442e-07
1.915e-15
6.127e-08
7.212e-12
4.146e-06
1.366e-07
0.00669
5.88e-14
3.756e-06
1.745e-08
5.668e-06
0.0001306
1.038e-13
0.006693
2.891e-05
5.382e-10
0.004361
1.418e-07
6.037e-06
0.0001477
1.671e-05
2.462e-10
8.797e-05
9.534e-09
0.006625
8.36e-06
6.177e-06
3.796e-07
0.0006005
3.703e-07
0.006677
0.005643
7.348e-05
4.01e-07
2.5e-09
9.379e-05
0.000107
1.046e-07
1.311e-05
4.274e-10
1.693e-08
0.0009575
0.00222
0.0006924
1.255e-05
0.0001024
5.709e-15
3.755e-06
0.006689
5.217e-12
0.006691
0.006686
9.514e-05
0.00297
7.336e-11
0.0003613
1.969e-10
0.0001331
1.869e-08
0.006695
9.538e-05
1.065e-06
7.232e-08
0.001536
0.003847
6.136e-05
5.135e-12
3.979e-12
0.006702
4.948e-13
2.699e-12
2.457e-16
0.00327
0.001158
0.0003944
9.139e-05
0.000693
0.001403
4.573e-07
2.753e-12
1.003e-05
1.945e-09
1.989e-15
0.006691
1.18e-08
3.912e-11
2.237e-07
0.006693
1.168e-09
2.911e-13
2.675e-15
1.371e-14
0.0001014
8.665e-06
1.736e-14
0.000273
4.543e-06
0.006686
0.0001355
4.652e-10
0.00247
1.172e-08
1.489e-14
0.0001124
2.916e-05
3.018e-07
0.006706
0.003697
5.137e-09
5.034e-10
0.00243
6.654e-10
1.985e-07
3.843e-05
0.0009574
3.229e-05
1.075e-06
1.833e-05
0.006691
9.337e-06
5.578e-06
7.135e-08
6.18e-08
1.106e-07
5.576e-09
1.733e-07
1.121e-13
6.764e-16
4.501e-18
3.892e-09
0.0001498
2.171e-09
0.0003403
5.137e-10
6.403e-10
0.00669
3.411e-15
0.006705
5.246e-07
5.152e-13
4.378e-11
5.069e-05
6.238e-07
1.971e-07
3.904e-08
0.006628
1.635e-15
5.606e-07
0.003274
0.001038
1.505e-05
1.002e-13
4.605e-13
5.44e-14
0.000537
8.747e-09
2.721e-09
0.000116
2.585e-05
3.146e-07
4.689e-13
0.006667
2.302e-05
4.62e-07
6.709e-06
6.584e-07
0.0002408
0.002818
9.983e-12
1.926e-07
1.293e-07
8.456e-13
0.002697
3.862e-11
4.106e-05
5.74e-07
7.029e-07
0.005923
0.0001297
7.281e-07
1.599e-09
9.476e-09
1.228e-13
0.003292
0.004401
7.977e-06
5.159e-08
2.287e-11
0.0001692
0.002781
0.006446
0.0003116
5.172e-10
0.006363
5.983e-08
1.609e-08
8.785e-05
2.868e-07
0.0001365
5.709e-12
7.083e-14
1.173e-14
8.677e-05
2.342e-09
1.083e-05
6.434e-08
0.001504
0.001214
3.927e-13
0.0008522
8.738e-10
4.064e-08
2.14e-10
9.409e-08
2.568e-05
1.862e-13
0.0007278
4.192e-07
2.72e-05
0.003534
5.08e-07
0.0001131
0.0024
1.272e-06
2.842e-07
5.552e-06
4.108e-07
7.312e-07
7.449e-14
1.756e-15
0.002557
7.299e-15
0.002758
0.0001008
0.0001149
0.0001933
9.092e-07
0.006704
3.039e-08
4.586e-14
8.215e-08
6.977e-11
0.0008174
0.0001005
8.343e-08
1.533e-06
0.0008289
1.387e-09
0.001428
1.101e-11
1.006e-07
0.005393
8.204e-06
3.978e-07
0.0067
0.0004431
1.04e-10
0.006694
2.28e-08
1.192e-07
4.596e-08
4.749e-06
2.725e-11
0.002946
0.0005486
5.573e-05
2.351e-09
1.255e-09
4.419e-09
5.025e-07
0.006683
1.54e-08
0.006685
7.472e-05
6.365e-07
0.0006845
1.346e-14
2.085e-07
2.514e-09
0.00144
3.385e-10
2.436e-05
0.002764
0.0001356
8.572e-08
0.006669
7.539e-06
0.006694
8.612e-10
4.086e-10
3.799e-07
1.345e-05
0.006603
4.795e-09
1.284e-08
1.932e-07
1.553e-10
2.706e-08
1.185e-08
0.0006652
6.273e-05
1.098e-05
1.741e-05
1.402e-08
1.413e-06
0.0001073
1.907e-05
9.799e-05
1.224e-06
2.619e-07
0.006623
0.006659
0.002189
0.000324
5.493e-06
1.594e-08
1.942e-08
0.002666
5.958e-08
2.215e-06
1.567e-07
0.006697
9.653e-07
5.592e-05
1.009e-10
0.003269
2.509e-15
6.888e-06
6.803e-11
0.003858
0.0001098
1.084e-13
0.0003021
1.672e-07
9.632e-08
4.292e-08
1.776e-07
5.914e-07
0.006693
1.04e-07
2.562e-07
3.723e-06
1.653e-05
4.281e-06
4.743e-06
0.0001114
3.374e-07
8.637e-09
0.006683
0.0001295
6.666e-07
1.285e-11
7.24e-06
0.006701
5.058e-09
1.566e-10
0.0001156
5.246e-05
2.356e-06
5.47e-09
0.0002081
1.238e-06
6.321e-07
0.002214
7.959e-06
5.066e-06
0.005414
5.46e-06
1.635e-14
0.0003354
9.945e-06
2.297e-12
1.447e-05
4.539e-06
0.006689
0.0002976
8.443e-05
0.003845
8.366e-13
6.036e-07
0.006697
0.001175
3.678e-07
1.954e-16
0.006697
0.0002625
9.826e-11
1.642e-07
6.575e-06
4.393e-08
5.926e-09
3.542e-07
2.928e-06
1.832e-09
1.402e-12
7.196e-11
0.002293
7.677e-06
0.0001031
1.2e-06
0.006682
6.061e-05
7.445e-07
0.000466
2.067e-07
5.224e-14
3.69e-11
0.002238
7.416e-09
9.889e-13
0.001175
8.289e-09
0.0002585
3.678e-05
7.315e-05
2.289e-10
1.159e-13
0.006687
1.003e-08
2.309e-07
0.006697
5.76e-12
0.000291
1.146e-05
0.0001309
1.399e-05
2.215e-09
1.676e-07
6.015e-07
0.006697
0.003412
0.002545
9.247e-06
0.006666
4.393e-06
0.0003889
5.894e-10
0.002764
0.0002455
7.012e-09
1.267e-10
0.001647
3.424e-06
0.006673
8.098e-14
9.024e-06
2.677e-09
5.773e-09
0.0001152
1.825e-08
2.139e-06
4.69e-08
2.55e-14
0.003349
7.844e-14
0.00667
0.006683
6.271e-05
6.203e-05
0.006683
8.28e-15
8.546e-08
2.77e-08
4.13e-10
9.069e-07
1.337e-05
0.005069
7.208e-15
0.0004762
3.045e-07
0.006659
2.742e-05
5.464e-05
7.427e-05
6.878e-06
1.418e-05
0.002977
1.067e-07
0.006655
4.355e-06
1.781e-09
7.34e-10
1.244e-12
8.963e-05
0.0002525
2.15e-06
0.006699
1.754e-07
3.09e-08
0.0003491
0.0002272
5.205e-05
2.256e-14
0.006017
0.006678
1.633e-06
8.19e-09
0.002202
1.647e-09
0.006701
1.452e-09
1.226e-06
2.214e-07
0.006701
6.961e-05
8.787e-10
6.102e-08
7.169e-10
7.42e-05
2.532e-06
0.006671
6.098e-09
0.004849
1.037e-09
1.108e-14
0.0008452
1.125e-05
0.000708
2.563e-09
1.31e-11
9.629e-08
8.757e-05
0.006656
1.987e-06
8.389e-05
0.006687
5.152e-09
3.752e-07
0.001011
0.006677
0.0001114
0.0001158
0.0001905
2.366e-08
1.078e-05
0.006691
5.873e-08
2.945e-07
8.611e-08
0.0005136
0.006696
0.006687
0.0003345
1.085e-05
0.00115
3.241e-09
1.935e-14
2.104e-13
3.299e-07
8.121e-13
3.854e-11
0.002203
2.855e-14
6.338e-07
1.216e-09
0.003015
6.771e-05
4.252e-05
1.138e-09
4.303e-10
1.561e-10
1.156e-07
0.0002614
4.44e-05
2.776e-08
3.353e-07
7.461e-06
9.203e-05
3.742e-06
6.269e-05
3.084e-08
0.004397
1.077e-05
2.146e-06
4.905e-06
1.24e-05
5.127e-10
1.255e-15
2.764e-12
0.006661
1.087e-11
8.057e-06
0.006648
4.594e-07
0.006694
3.045e-09
7.521e-07
0.002899
4.81e-09
5.351e-08
0.006707
3.346e-05
0.002441
1.425e-12
0.0009426
1.65e-05
9.247e-13
8.494e-06
0.006687
4.842e-11
0.0001637
0.0003925
1.721e-05
0.001288
1.134e-07
1.852e-14
3.699e-09
6.575e-07
0.0006549
4.091e-07
5.175e-06
0.006687
0.0002003
2.049e-08
3.271e-07
7.945e-07
0.006701
1.104e-13
6.441e-08
9.251e-07
1.054e-05
3.23e-05
4.359e-07
0.006652
0.0001451
3.763e-08
3.779e-07
4.96e-05
1.94e-07
3.374e-09
0.001625
8.558e-06
8.696e-06
0.001428
5.345e-05
0.00248
9.498e-07
1.121e-06
2.143e-06
0.0067
2.459e-09
0.002812
0.0001143
5.58e-06
1.364e-05
1.546e-09
3.827e-06
1.013e-16
0.0005221
4.025e-05
0.0024
0.006674
5.987e-06
1.413e-06
2.804e-11
1.251e-10
1.684e-06
1.118e-08
3.978e-10
1.521e-05
2.348e-05
7.198e-07
4.162e-09
2.938e-12
4.5e-06
0.0001442
3.238e-10
4.958e-05
3.146e-10
2.536e-06
0.0007772
0.0006256
5.726e-08
0.006693
5.391e-06
6.677e-05
0.006689
0.0001312
3.05e-10
0.002741
1.224e-15
4.767e-09
1.707e-07
0.006688
1.948e-05
8.083e-08
0.003726
2.689e-05
3.927e-06
1.372e-08
5.194e-07
1.42e-09
0.006695
1.563e-07
0.006676
1.371e-05
2.366e-08
7.396e-08
6.057e-06
3.117e-09
9.487e-16
0.00661
0.006692
6.471e-07
2.103e-07
4.995e-10
3.708e-05
3.155e-07
1.994e-09
0.0005067
0.001266
0.002973
1.813e-07
8.878e-11
3.487e-05
0.0001616
0.006686
2.605e-07
6.183e-05
4.318e-06
1.186e-08
1.318e-06
0.002186
3.215e-09
8.058e-07
0.000436
6.475e-08
8.461e-08
0.0001791
0.006681
0.006508
1.175e-08
4.117e-09
1.431e-06
0.003393
8.472e-06
0.003387
1.206e-07
1.484e-06
0.006604
8.981e-06
3.62e-05
2.476e-15
4.575e-11
9.554e-10
0.00668
3.768e-09
2.061e-07
1.566e-08
2.276e-08
2.648e-13
1.694e-05
1.518e-05
2.389e-07
4.157e-07
2.325e-09
2.028e-11
0.002074
0.003234
0.003434
9.246e-05
6.231e-16
0.0008758
0.001839
5.967e-09
9.756e-07
0.001276
6.986e-08
2.323e-06
3.686e-11
0.0006114
1.021e-07
0.000115
8.677e-06
5.973e-09
2.493e-15
0.0002396
3.162e-14
3.913e-13
0.00669
2.505e-14
5.772e-07
5.574e-10
4.424e-11
1.14e-05
0.0008458
2.217e-06
3.378e-07
2.242e-06
5.15e-05
0.0001618
0.0004915
6.685e-05
0.0005128
1.209e-05
1.641e-05
2.793e-05
0.001248
7.476e-14
3.338e-06
5.768e-10
3.282e-07
3.289e-09
0.006648
1.833e-09
1.27e-06
2.176e-11
0.000435
2.879e-13
1.715e-08
2.502e-08
8.765e-05
1.32e-11
8.004e-05
5.875e-05
1.48e-05
0.0001576
9.256e-05
0.0001042
1.355e-06
2.351e-05
8.43e-07
2.245e-06
1.016e-07
0.0001341
3.123e-13
1.553e-06
2.01e-13
4.063e-05
0.0003895
3.726e-06
0.001276
0.0001576
7.794e-08
0.00669
0.00337
0.00669
6.06e-05
1.642e-07
4.401e-07
0.002474
8.535e-06
0.0001671
5.653e-05
2.107e-14
1.002e-10
8.09e-14
5.362e-08
0.0001187
1.399e-09
1.307e-09
0.0001161
3.374e-09
0.006695
3.923e-05
0.003242
2.046e-07
0.0009833
0.006679
0.006674
2.54e-07
0.00201
0.0001468
1.717e-14
1.415e-07
0.006672
0.006692
5.178e-07
0.0002529
6.755e-09
1.616e-12
0.005188
8.501e-06
1.654e-07
6.423e-08
4.267e-09
1.613e-14
4.317e-06
9.036e-05
7.784e-07
2.868e-08
3.681e-05
1.548e-08
1.067e-06
1.472e-05
2.46e-09
3.922e-06
8.972e-16
0.005714
3.309e-07
6.32e-09
2.193e-09
0.006695
0.0001102
0.006691
0.0004853
0.0004147
7.158e-07
1.514e-05
2.808e-08
1.25e-06
0.000101
1.942e-10