/*--------------------------------*- C++ -*----------------------------------*\
  =========                 |
  \\      /  F ield         | OpenFOAM: The Open Source CFD Toolbox
   \\    /   O peration     | Website:  https://openfoam.org
    \\  /    A nd           | Version:  8
     \\/     M anipulation  |
\*---------------------------------------------------------------------------*/
FoamFile
{
    version     2.0;
    format      ascii;
    class       volScalarField;
    location    "35";
    object      omega;
}
// * * * * * * * * * * * * * * * * * * * * * * * * * * * * * * * * * * * * * //

dimensions      [0 0 -1 0 0 0 0];

internalField   nonuniform List<scalar> 
127143
(
1.528e+08
2.873e+08
3.278e+08
1.398e+08
1.173e+07
1.415e+08
4.635e+06
8.099e+06
1.294e+07
1.888e+06
6.817e+06
1.065e+07
3.857e+08
1.183e+08
2398
3.152e+05
3.958e+07
13
8.725
1.257e+05
24.41
2.853e+05
0.08491
376.1
3.073e+05
4450
2.308e+04
2.28e+04
1.553e+04
12.96
905.7
5017
2.537e+04
3451
0.04177
2.455e+04
103.1
65.79
254.9
8010
8.778
0.4232
0.3003
5.491e+07
12.71
2590
1.437e+04
24.02
384.3
303.6
1.983e+05
0.02527
33.65
0.1575
0.02092
1125
0.02091
0.6476
0.02214
0.1558
0.2955
9.239
105.1
0.02211
1164
0.453
0.0435
119.1
117.5
0.08335
501.7
1.553e+04
13.2
0.02214
0.02179
1.577e+04
0.02262
58.88
1068
0.02222
1.569e+04
1.118e+05
966
4518
15.35
45.79
190.5
1.612e+04
0.3711
1298
0.02213
15.47
718.1
24.03
111.9
0.3647
0.385
1461
27.15
0.04303
0.02221
352.6
5957
12.45
42.22
28.77
137.3
0.08367
2.294
0.02132
1956
2e+04
45.35
10.28
0.02174
5.236
0.02283
0.02179
0.02254
1.152e+06
0.02134
946.6
134.9
0.1728
1.494e+04
9089
11.58
0.02318
81.46
1358
94.08
126
67.9
56.69
4.474e+06
87.66
0.05192
16.4
1.303e+04
0.04347
0.1218
0.0222
22.51
14.33
33.61
118
6.698e+04
0.02213
137.9
9286
22.6
347.5
94.95
0.06839
289.6
15
0.6465
1811
23.22
1741
508.3
3.737e+05
0.02215
93.08
3845
874.3
142.3
0.5329
2419
0.02568
3282
14.22
8.428
62.45
0.2712
88.81
74.54
80.55
295.5
0.0331
62.06
0.03412
72.29
85.29
1273
9.065
0.07854
9.567
320.8
0.03221
42.45
112.3
0.0476
255.6
8.206e+06
11.23
0.0194
0.01934
8.832e+05
0.02176
0.02168
0.02583
3.844
87.81
4.437e+07
159.3
0.04895
43.62
13.13
0.02174
0.7661
19.79
0.02163
2332
174.9
9.14e+05
1.033e+04
47.06
68.02
0.0492
45.96
0.02184
359.8
37.49
2284
3612
2401
73.41
1068
16.45
26.88
0.03389
12.67
7.872e+05
26.38
0.08663
92.91
1.793e+07
0.02168
32.05
102.6
625.5
41.25
1693
109.8
9.128e+05
229.8
2.233e+04
6.814e+05
0.1006
4.583
3438
63.95
16.39
591.6
2.567
0.02315
1854
20.76
0.05047
11.45
0.027
9.904
0.02215
89.28
741.7
454
601.3
0.6238
45.19
2079
0.2681
17.31
32.89
72.32
39.92
43.88
259.7
0.511
14.28
0.07157
0.722
12.14
0.02175
0.02173
7.561e+06
104.3
0.02174
267.2
0.03467
95.69
0.2161
0.08619
13.01
0.02166
8.087
692
462.4
41.39
39.55
1174
0.4095
0.292
4.258
2738
126.5
42.89
0.02164
11.89
42.48
149.6
3406
1255
0.05622
0.02172
670.5
44.05
1267
0.3337
2.271
0.07979
635.8
0.02803
64.47
700.4
51.39
0.03078
152.2
580.1
39.61
12.06
0.02173
0.04143
0.01941
0.01936
0.06689
2.226
8.378
12.1
123.9
0.04286
47.14
33.42
37.32
11.01
272.6
432.3
63.5
1021
119.2
859.2
8.243
104
38.97
0.02746
352.6
16.64
83.44
0.02353
584.7
13.31
92.85
18.81
300.3
286.6
0.02192
0.02176
1.413
1110
0.51
1.025
0.02818
2155
326.5
0.03049
0.06614
544.8
6.186e+05
23.27
0.5368
25.65
5620
789.8
0.4093
0.02275
4.988e+04
0.03479
6722
11.69
31.68
0.02181
0.188
1766
626.7
331.3
858.5
0.1917
728.6
0.0274
0.02662
4222
0.02184
22.12
64.83
0.03562
34.16
35.83
66.76
0.02222
259.4
59.51
1193
0.1225
19.96
107.5
104.4
39.2
2846
118
515.5
130.8
1.886e+04
242.5
0.07614
17.1
0.05689
0.2601
0.08173
508.4
0.05712
0.02115
240
130.4
13.24
171.2
0.02192
45.53
348.2
0.02493
0.02166
0.02172
259.9
0.05276
3.469
0.02365
1279
0.02171
678.9
1.505
19.7
25.34
582.9
29.5
1377
0.03537
73.99
1404
395.8
57.68
69.55
58.69
56.26
15.06
2.473
55.11
0.2025
0.02192
22.52
547.7
0.02078
19.5
5.812
0.1733
48.07
0.04344
0.02028
225.9
4.165
1328
51.17
1.853e+04
603.5
306.4
1235
29.11
168.8
68.33
0.02163
1277
0.02222
428.7
173.3
37.23
127.1
1.384e+07
116.3
2.23
0.1077
4.386
0.02166
1.93e+04
0.02194
64.96
10.87
2.017e+07
1.01e+06
3.276e+06
0.02194
329.9
303
0.02172
11.57
184.2
102.4
15.43
26.65
605
19.21
1.248e+04
0.1714
23.43
6.654e+05
672.4
1071
2674
0.02202
20.75
2.632
16.07
0.02202
1778
9688
1687
0.01964
22.76
0.09223
6351
44.82
4448
14.29
0.02233
500.3
31.84
0.02081
0.4116
100.5
572.5
288.6
667.7
1547
11.38
95.33
387.5
98.06
213.7
0.02188
5365
74.89
1398
81.36
33.85
0.02212
0.02207
0.04842
475.7
8.573
0.02172
0.02924
13.07
1313
37.12
30.14
2714
1.209e+04
6.265
0.02228
0.02134
1624
24.97
116.4
0.03167
1.48e+04
61.86
180.7
0.5282
2591
0.02171
32.54
42.58
24.45
0.02726
509.8
11.42
8.1e+04
0.02026
130.4
9917
0.02171
33.92
0.02173
191.3
49.51
0.02175
790.6
495.2
1840
84.53
25.07
777.5
731.9
55.4
225.8
576.5
293.7
134.6
51.02
1771
0.02674
962.6
0.02173
7.1
0.02339
22.87
0.02116
0.02174
1.061
498.9
39.12
0.02136
0.02115
906.5
7649
664.7
1148
10.86
3.206
24.98
66.89
36.13
355.8
1437
0.02138
242.1
32.43
0.8753
32.37
0.02225
0.02919
59.92
8406
67.91
4.299e+04
0.02334
0.03826
130
276.8
0.02559
1092
0.1192
0.07955
685
20.23
31.21
0.09206
3.463e+07
3031
55.2
74.96
100.7
145.8
1799
358.7
0.02432
68.53
619.8
21.21
0.02121
243
0.3064
0.1726
0.01963
0.02119
4.442e+04
0.1084
609.1
112.8
340
11.89
0.7338
1726
0.07881
609
0.02162
0.02089
6.903
0.05856
845.5
0.1721
3702
10.34
824.6
0.3399
19.47
0.03678
1314
0.04369
619.3
4.85e+06
70.79
104.5
21.7
0.02875
98.71
282
3.515e+04
10.44
12.96
35.92
7381
40.39
781.6
8.071
464.5
115.7
41.72
11.32
0.2629
7.471e+07
0.3051
0.02548
184
207.1
171
0.02154
172.6
8.33
36.42
0.04106
4.601e+04
205.8
2668
0.04634
425.9
131.7
320.8
133.8
0.03877
23.8
2516
804.5
17.19
0.02178
33.94
319.6
0.02179
45.84
1.579
131
113.9
0.3481
71.81
5371
357.6
0.01935
24.13
9.37
4916
995.4
0.1797
11.29
1279
0.01938
94.3
672
46.76
5.467e+05
49.2
1536
35.9
34.38
8.425
0.02193
5.587e+07
89.51
75.88
3687
40.98
392.7
180.8
403.2
0.02132
8.808
12.93
0.03885
238.6
419.1
140
131
0.02048
23.27
106.8
0.02163
0.02042
32.49
9.389
10.84
391
32
1.967e+05
19.8
0.1572
0.02123
45.78
119.5
773.4
2066
0.4675
0.0555
0.02193
1.926
1.769e+04
0.02125
0.2305
5192
101.9
4947
0.02648
30.87
105.3
0.0218
975.2
0.0212
308.7
1.856e+04
222
135.3
1.279e+04
0.02193
745.7
0.1024
1579
1256
1805
1.121e+04
0.1776
0.9065
1.311
8e+04
0.02178
72.04
1046
997.8
660
1.524e+04
0.05329
0.7615
1684
8257
4.345e+04
371.8
1.39e+06
613
2.557e+05
122.4
2975
8.93
3.43e+04
0.02258
163.3
0.02724
0.02654
21.14
0.02516
76.8
15.07
8.13
3.057
0.03796
916
201.7
0.02181
12.28
88.93
0.03656
875.5
1.514e+05
42.48
42
1997
16.26
609.1
0.02168
36.91
604.5
0.02332
655.7
74.53
8.885
0.02069
2.4
17.89
4.518e+05
12.22
1.531e+05
18.57
96.39
158.6
1.505e+04
360.9
0.02365
1.007e+04
0.2657
0.02426
5.364
4.851e+05
30.23
713.6
21.25
8.534
2.94e+04
2.333e+05
380.8
0.02225
0.02183
41.55
16.86
161.1
667.2
45.03
5387
130.5
0.06316
5546
0.04567
7532
0.0216
25.48
3030
15.94
224.1
25.15
0.02177
0.02179
2515
0.1527
328
365.1
852
14.97
95.87
206.4
230.5
6.158e+04
29.29
1042
853.9
31.6
13.61
235.8
346.1
6080
1.783e+05
26.75
0.02154
0.02139
19.55
45.07
1.348
0.02079
78.29
25.33
1.277
617.8
78.32
449.5
2.154
0.02223
0.2745
1.349
1.449e+04
2716
142
0.2515
66.18
1018
354.7
54.5
9.331
145.8
185.2
142.4
6201
0.02302
1.736e+04
1.811e+04
9.191
74.73
2433
0.02173
4.593e+04
7.034e+04
0.02186
0.02154
41.7
33.51
6.497e+05
707.2
156.9
845.7
734.3
0.342
0.6816
0.02265
910.7
19.83
394.3
8.725
7807
62.05
0.02889
4.612e+04
219.6
0.02172
276.4
0.02542
0.02164
50.45
0.0916
4.65e+04
0.02157
966.1
0.02181
509.2
0.07799
12.07
17.83
912.2
503.2
818.3
78.07
0.05494
0.03754
16.05
281.6
417.5
529
1.474e+04
871.8
7.036e+04
95.63
696.3
680.7
486.8
5164
0.112
9.245
0.04896
485.8
311.8
2446
0.06593
1271
13.8
125.8
209.8
46.01
2.372
1401
10.06
125.4
429.8
1380
1321
0.02106
45.53
480.4
0.0218
235.6
865.9
0.02066
5.938
619.7
0.03518
0.1163
21.09
117
0.1502
0.01976
225.3
266
0.02161
0.08788
0.02905
25.04
323.4
27.02
0.03458
3027
1.393e+05
887.9
363.5
14.66
3.439e+04
0.07804
202.2
0.02176
50.88
31.1
176.9
211.2
3971
9818
0.02196
6.662e+05
1965
1360
90.62
1586
9.835
10.64
3142
119.7
0.03189
1.342e+06
69.64
401.8
1663
254.1
428.1
103.4
7458
153.5
134.1
133.9
602.4
424.1
26.76
1.237e+05
0.1019
207.1
0.08975
991
0.01969
0.02165
50.24
4.437e+04
28.16
1.495
5.257e+04
1518
0.02179
6660
153.2
112.8
1.543e+05
6.323
140.9
1.349e+07
12.54
1.136e+04
14.2
124.2
5095
408.1
1670
32.11
316
0.07846
18.14
45.35
164.2
28.01
141.2
10.97
3.028e+04
20.15
0.2613
15.08
0.3973
0.5557
32.71
1.178e+05
0.03521
1.049e+04
3068
186.5
87.32
0.0218
11.68
53.94
1.156
5049
1515
2503
0.02135
613
3172
41.69
4.489e+04
119.8
8.728
1081
0.02186
1422
134.8
1.394e+04
157.6
0.06793
15.82
0.0217
1.649e+05
5.217e+04
67.45
0.887
24.43
0.02086
0.01977
858.7
24.45
7.985
0.06653
0.0513
0.05235
4.483
46.24
11.2
262
322.1
5.354e+04
1.205
1940
203.6
326.1
0.0198
847.8
13.25
143.7
6.637e+04
98.94
9.174
137.3
92.16
28.31
2.07e+05
25.41
61.33
11.82
9.434
11.43
311.3
1.718e+05
0.1136
2613
0.02118
386.2
1999
0.0203
4652
77.6
103.7
626.9
0.02138
1.09
4.349e+05
0.02174
291.4
805.1
128
1.783e+04
1.186
11.77
1472
4556
97.74
214.7
0.04856
179.6
1.209e+04
1.753e+04
379.5
90.37
0.02169
218.3
8.615
1696
417.6
9.431
95.9
0.02169
7.223
318
0.02205
10.25
0.02258
6651
10.64
3.676e+04
242.7
38.03
1042
39.3
219.4
767.1
3.406e+05
93.84
210
37.39
26.52
16.86
0.02211
139.2
0.02201
12.89
0.022
13.7
0.02147
313.9
176.5
0.02065
0.02161
946
0.1524
1335
0.08903
0.02002
26.26
45.71
0.0306
3.475e+06
5112
3.608e+05
226.2
73.32
391.1
249.3
59.19
3.012
8379
30.83
2219
689.8
58.37
57.11
7.931
0.02155
3.379e+05
66.72
6904
0.02178
6.054e+04
434.7
445.5
239.6
0.01973
0.01971
15.14
28.75
5.861
10.52
109.5
1.604
0.7757
2.737
11.1
3583
90.35
0.7672
32.08
11.56
1284
999.7
145.3
437.5
20.48
0.02186
286.5
370.4
1.805e+04
31.62
0.03542
144
1.267
187.6
117.5
1856
16.3
0.02174
33.68
103.8
8.551e+04
1.746e+04
1.377
87.54
1702
0.1368
0.01972
2423
487.3
3.128e+05
0.04982
1.252e+05
167.6
0.02152
188.4
2018
10.19
0.0922
14.76
1318
102.7
80.91
37.56
3305
0.04053
787.9
1666
1098
0.05684
0.05671
539.2
16.18
3.021e+05
203.4
1392
1733
3.397e+05
1.47
463.6
0.02444
0.02174
0.0215
20.36
0.02312
9.468e+04
0.02172
1.182e+04
0.2617
109
205.9
1023
0.09439
3.235e+04
0.337
750.8
21.92
1.53e+04
0.02166
148
933.8
18.4
1.576e+04
2949
37.53
2237
4956
0.04587
0.0206
1.447e+04
0.07307
0.01996
0.2712
1.278e+04
0.0206
4769
0.02184
28.01
129.6
13.78
264.5
0.02091
27.67
763.3
102.1
0.05569
30.64
0.1506
0.02173
0.02122
39.95
6.155e+05
72.67
140
0.02383
4.002e+04
0.4039
0.07253
0.06091
3.115
212.4
836.2
0.02466
474.9
0.02217
42.66
0.02217
0.2166
306.2
46.29
5.619
1438
215.2
0.02119
51.34
3111
613.5
5.53e+04
1795
8.991
0.03384
9.723
5.384e+04
37.59
838.2
3.801e+04
0.07511
0.1226
0.02159
113.4
293.2
72.42
0.0218
846.1
0.02175
0.202
221.5
0.02137
8.65
0.8524
100.2
15.3
1.095
429.1
0.0219
649
7918
11.74
8.417
232.1
0.04195
146.3
96.17
4816
199.6
92.98
1017
69.84
146.4
1.249e+04
0.07365
0.1281
226.7
0.03387
309.1
29.26
0.08116
122.6
0.02381
0.3699
6339
17.46
136.3
167.7
5.805e+04
103.8
1.794e+04
2.487
0.02066
1.801e+04
204.4
0.09277
452.3
0.02755
33.17
0.02223
10.18
1.104e+04
14.1
35.36
124.1
209.6
0.02187
107.6
0.2462
23.37
1868
0.02478
133.2
3403
0.02159
0.02486
141.5
0.07359
69.62
8.551
5.097
84.35
1.57
23.64
0.07099
3.683
76.09
0.02107
0.1508
1529
5.915e+04
0.02085
490.1
1.69e+04
11.32
542.2
10.51
197.4
5.757e+04
0.0581
0.1115
216.9
0.02501
1256
44.01
29.32
6686
217.6
0.02438
206.5
8.88e+05
3.328e+06
175.6
253.4
214.3
2.163
19.41
26.95
34.53
1611
685.4
788
474.9
2.785e+04
30.77
5.028
0.0217
1904
4.982
51.91
0.1451
0.03806
217.9
187.2
8.483
0.02035
878.1
1785
121.2
420
17.44
6.264e+04
440.5
0.02597
277
2.313e+04
25.93
161.1
1.029e+05
0.01939
8213
2444
207.6
0.02753
28.59
12.75
1338
363.2
16.47
1995
0.0331
4.722
261.6
0.04957
13.26
0.02167
626.2
6678
187
2578
3.706e+04
33.01
2.154e+04
0.1075
2226
23.7
9.739
0.0344
9.854
60.61
23.28
152.9
0.06498
168.9
2.349e+05
6.279e+04
112.7
74.97
0.6969
0.7442
0.02184
0.0252
73.04
0.4108
0.02166
118.1
166.3
330.5
366.2
35.27
349
31.51
4826
6.685e+04
7.257e+04
0.08475
153.9
1.833e+05
10.68
6937
10.07
33.82
58.96
2.326e+06
20.94
31.03
0.04355
0.05379
1179
152.9
0.02172
0.02196
13.74
2003
17.21
166.4
3.853e+04
18.74
0.02391
1594
10.14
211.6
4991
1.481
7.096
33.38
112.1
2.196
111.1
0.02188
1906
8.926
1453
17.29
294.3
8019
8.604
1653
43.95
1593
178.9
6841
0.07156
12.63
77.62
37.38
802.2
243.3
1.33e+04
982.2
0.02164
318.3
10.22
1128
119.9
0.2649
13.68
0.07746
6644
0.04871
208
34.27
117.4
11.91
15.74
0.7511
6.426e+04
0.2121
0.02431
2076
0.02091
22.05
0.03023
2.688
10.71
0.02151
0.3641
281.5
4709
0.02176
0.02291
11.1
41.86
290.2
0.1496
50.42
90.99
1744
720.2
27.42
145.3
121.7
0.08951
143.5
6.627e+04
9.121
4481
577.2
9.752
5.701e+04
0.02172
0.0206
1.498
7.183
3.695e+05
0.02179
10.94
1659
3.357e+05
735.6
1002
0.01981
0.01953
489.6
123
97.58
221
0.03129
29.99
5.059
0.02222
1569
267.8
128.3
59.72
5913
9.525
8.987
0.01978
28.24
343.1
1449
793.8
99.33
1.724e+04
1442
50.52
152.1
460.2
117.4
0.06687
166.5
1.198e+04
0.02792
0.02656
604.1
296
1.382e+04
1.752
1348
156.3
0.1413
0.02173
22.34
0.02211
35.28
3.866e+04
39.71
0.1194
143.5
0.04419
2.44e+04
723.2
0.06566
33.23
30.32
140.6
36.56
195
132.6
65.56
39.93
65.65
38.61
13
2955
198.1
69.7
364.4
2.064e+04
221.1
1275
1351
2.976
2.179
51.39
2.101e+04
0.6892
188.8
0.0222
17.18
0.02214
186.1
8.379
2.138e+04
310.2
0.08085
3038
2.149e+05
2487
33.47
108.2
1563
5326
0.2644
39.72
57.26
1.375e+05
147
64.99
0.2774
0.2741
0.02174
16.24
1.7e+04
15.7
4193
12.26
0.07464
4120
0.01971
38.92
0.875
18.94
2761
0.2076
8.312
8.509
0.03564
460.6
52.4
7.103e+04
2608
159.5
0.0214
69.16
121
1.174e+04
1290
65.82
7.918
72.43
0.02171
414.5
1412
12.6
83.83
30.22
5246
1059
725.6
106.6
0.823
1.411
2.747e+04
9.386
0.06415
9.239e+04
0.06781
19.77
0.02173
0.02199
116.3
0.02185
1841
144.5
40.04
16.01
1026
4549
161.4
1899
147.1
16.88
5.936e+05
38.57
116
2.224
2.315e+05
11.45
1.872e+04
2.283e+04
0.04344
1688
1016
12.83
14.2
1.228e+04
734.9
2915
26.39
43.13
0.02578
8.456
0.02206
1.155
13.74
1189
86.53
47.29
3.793e+04
15.02
0.02186
414.3
53.25
18.36
86.13
50.12
216.2
875.4
3028
1.611e+04
473.5
272.1
1922
107.3
404.3
0.06467
2.896e+05
359
123.6
1.785
0.02156
260.2
476.4
19.49
12.49
1.74e+04
1388
327
84.09
54.15
4302
0.02162
1.62e+04
9.456
0.03472
87.36
857.7
0.02165
269
14.13
44.64
2.272e+04
36.46
87.03
2.325e+05
48.58
245.2
0.01967
0.01961
237.3
95.59
11.12
674.1
149.8
0.02151
5974
1459
29.06
0.02174
0.02186
34.92
68.83
247.1
7.852e+05
1001
0.02891
824.1
7.169e+04
0.08118
758.1
390.7
0.1035
2.614
3126
35.47
59.27
0.01964
0.01949
0.01946
0.02021
0.07776
34.17
51.62
1112
19.59
494.1
32.67
1983
0.02078
101.6
72.07
7291
1601
9057
454
100.8
359.7
24.02
176.8
0.1057
131.2
4.4e+05
306.9
6838
0.2644
356.4
0.02172
2.413e+05
101.7
460.2
16.74
0.03025
6.597e+04
0.02179
104.9
1122
0.043
133.9
135.7
15.22
217.7
1.433e+04
0.03771
1232
0.02066
5.23
121.5
442.5
18.63
182.2
0.0215
0.02169
0.1822
1604
1685
0.2321
18.22
153.2
9.926
6754
387.2
12.62
9.836
30.43
84.09
0.1569
1.108e+05
0.2252
0.02173
1.538e+04
0.0217
0.02166
0.4661
0.1071
1.214e+04
17.04
2177
36.31
416.9
0.02187
0.08271
717
233
13.64
0.0549
0.1994
5.177e+04
7092
0.02213
1.333e+04
8803
3.719e+05
0.06824
11.24
13.15
0.07544
0.02315
11.05
244.4
4.721e+04
0.06599
842.6
2.548e+06
0.02174
469.8
3136
145.6
0.02178
1069
8.949e+04
1.47e+05
7.861e+04
0.855
125.5
7.953e+04
0.04876
131.6
0.02153
17.22
1260
8.296
588.6
7.615e+04
0.2547
250
196.4
0.02225
0.02896
627.8
1615
9.963
1.587e+04
115.9
3.866
12.33
24.25
606.6
86.28
0.02174
38.8
36.25
237.7
653.5
371.1
589.2
592.4
1.003e+05
1.151e+05
1.426e+06
659.6
0.0461
1791
0.02432
1384
2638
0.02175
7.411e+05
0.02221
311.4
1.784e+04
4191
132.6
252
822
743.2
0.01963
6.548e+05
199.6
0.05796
11.58
207.8
1.143e+05
1.995e+04
2.295e+05
10.97
619.5
6376
15.6
0.06579
120.6
1.3e+04
0.02088
76.27
97.63
411.3
83.34
52.39
11.26
6141
158.8
218.1
1.823e+04
0.07575
3958
0.07639
91.47
373.9
0.02329
0.07984
79.5
959.3
373.9
9.635e+04
0.05587
0.02171
13.49
268.5
4736
42.54
7.929
0.01963
0.02823
1527
0.01995
561.5
519.9
0.06475
176.2
73.5
2.734e+04
1.027e+05
6.038e+04
0.03211
782.3
137.9
176.9
11.53
9.159
2.367e+04
15.58
1772
285.8
1.226e+04
213.2
6.114
4.916e+04
29.61
109.8
24.99
0.05144
93.88
0.2346
0.02181
54.64
543.8
85.27
219.1
72.69
1.881e+05
2.948e+05
10.38
2.179e+06
0.2749
0.6718
0.03015
0.04823
89.75
0.02221
782.5
8.62e+04
710.3
7461
43.46
33.25
321.7
105.5
13.28
826.7
16.79
8695
197.6
0.02578
223.5
112.9
0.02204
0.03674
2625
0.02185
225.1
245.1
281
23.36
4137
0.09614
37.56
0.0351
1010
2.092e+04
1201
99.5
0.02143
687.6
0.02154
0.437
231.7
35.79
5.727e+04
220.6
771.4
9.44
3783
0.5198
0.2046
24.23
571.7
0.02083
15.67
0.02185
1318
2584
289.6
104.4
0.02159
959
417.4
104.5
5.813e+04
245.5
3813
0.02268
39.72
11.37
8.604
361.9
48.11
0.07431
2.815
0.1105
113.5
109.6
0.02069
0.02025
0.02201
0.03477
0.1228
5561
749.4
0.02177
240.4
62.49
169.1
0.02194
183
0.05809
2619
0.0916
4.34e+05
133.3
3068
0.04338
0.08869
6.113e+04
0.02715
160.2
245.5
387.9
373.7
100.5
0.02181
262.9
793.3
61.79
120.4
38.2
19.34
36.93
132.3
1213
0.0215
17.49
84.03
7237
0.0917
0.02209
423.1
2182
23.64
21.73
33.72
1007
0.04049
52.05
1137
10.88
373.6
103.4
0.02566
17.57
6.327e+04
73.71
334.3
7271
2.464
25.36
0.02166
0.02663
0.1166
0.04603
5.862e+04
169.3
0.02195
0.02231
117.4
3.039e+05
0.02194
27.93
2.156e+04
162.2
19.83
205
2657
105.6
37.4
862.1
1.143e+05
3161
0.02182
71.37
35.92
134.6
0.02139
0.5239
255.9
31.59
573.2
7.493e+04
7249
14.89
971.4
1.197e+05
9.473
1078
25.87
3.696
2.201
2449
4.161e+04
0.02157
307.2
136.8
0.02193
7490
17.18
2.951
0.06363
43.94
830.8
399.7
122.8
0.02167
0.02175
12.6
344
0.02
27.91
0.02442
2777
10.62
16.58
548.1
2358
17.04
71.21
0.02139
7.324e+04
18.49
4491
562.9
0.06463
714.4
51.54
264.4
5.746e+04
7.944
5.368e+04
0.02075
0.02123
37.65
0.04498
0.02139
1.404e+05
209.7
478.1
6044
109
47.5
0.02799
1.362e+05
0.04048
140.9
0.02023
0.08925
127.2
57.01
62.78
39.93
8.888
1469
0.02046
59.5
6679
6831
9170
0.1201
58.23
34.88
0.02195
1497
420.7
0.9615
0.04066
163.7
5.911e+04
0.02187
0.0215
43.98
4194
10.87
2540
0.02206
9052
151.7
142.2
0.02208
0.0643
1138
335.5
3257
26.33
69.61
0.02043
840.5
0.03056
1137
9.584e+04
0.05743
248.1
11.04
1.418e+04
3.742e+04
1874
0.05169
0.02047
57.04
0.1505
0.02163
465.3
244.7
9.666
0.02032
0.06643
0.06907
0.0259
737.3
88.7
0.02173
845.6
146.6
2226
0.02578
0.02191
0.02162
0.05221
129.1
19.41
709.3
6.074e+04
3.597e+04
134.4
1.172e+05
5066
0.02285
5.176e+04
79.66
5145
8.936
0.1165
3.481
1.217e+04
1194
3446
616.3
0.05242
33.83
517.2
121.9
20.57
0.2097
393.5
0.1139
443.7
0.03603
41.33
42.44
26.95
0.1626
1151
1.127e+05
8106
0.02061
5.88e+04
45.18
0.01994
257.7
0.02181
2689
91.02
0.118
477.2
536.4
0.0223
2.98
8.329
1.554e+04
0.02227
0.1244
1.586e+04
12.58
0.02157
3795
41.63
0.03076
0.1171
14.41
185.4
7.112e+04
673.6
90.26
10.28
1673
0.5315
0.02169
0.03951
635.5
122.2
112.2
0.02207
1.625e+05
228
60.93
341.5
47.11
88.77
0.02017
0.05701
739.4
211.2
0.03776
157.2
804.8
9.278
2.282
8.801
9.922
0.03619
8.397
60.36
88.67
41.3
0.02205
1992
0.1631
49.27
20.7
8.504
6912
86.33
4.131e+05
13.23
0.4851
0.2635
0.02118
16.91
49.26
4701
1877
225.7
487.5
3833
35.94
0.417
83.68
687.1
1.036e+04
37.55
0.03647
1914
1.545
1703
30.82
10.03
31.87
238.8
0.02179
359.2
0.2452
0.02164
3.344
1908
1.275
2.814e+06
717.6
1335
0.02165
35.99
224.5
0.04888
25.12
41.64
4512
531.9
4245
0.02188
128.1
0.02065
8.459
340.1
720.7
19.55
790.6
2.1e+06
0.02147
0.02174
89.34
186.3
1534
3.922
129.7
878.6
21.43
14.6
0.02177
467.4
2890
0.0605
34.46
0.02156
171.9
0.04869
60.89
447
128.9
0.3136
2903
130.9
0.025
716.6
160.4
0.7669
0.02146
0.02269
487.7
4588
49.13
8.087
97.65
17.1
186.4
51
0.0194
0.1538
0.5371
1.148e+05
3689
2176
0.02134
661.9
150.2
3382
2205
2.486e+04
9.401
30.47
148.2
107.2
800.7
5337
22
0.07306
9.956
0.02989
2.109e+05
0.02226
13.95
571.7
64.86
14.65
683.8
59.09
1.552e+04
13.01
1067
45.32
12.28
468.5
1.111e+05
33.32
6.219e+04
3.375e+04
0.02174
6.883e+04
256.7
1762
3414
38.68
42.55
386.2
110.8
38.57
0.03484
14
17.52
123.3
33.46
85.78
0.4475
4.872
33.3
7.111e+04
52.08
1.145e+04
122.2
684.3
0.02027
884.8
93.1
5418
12.09
2.313e+04
377.5
340.3
0.07403
4451
0.06479
20.29
40.7
0.06832
1.562
26.25
51.83
211.5
417.7
33.05
201.4
46.33
2.274e+04
47.52
3.805e+05
0.03463
41.71
282.6
9.105
0.04024
699.8
0.02172
0.02194
0.02173
64.79
161.5
1354
14.85
0.07469
51.27
0.03745
3.767e+05
3209
6.782e+04
251.4
0.05654
946.6
6883
0.07366
2550
0.02186
30.97
8.618
990.8
29.99
0.02128
0.02138
141
9.067
0.03624
7.271e+04
176.3
0.02095
0.0218
90.96
0.03061
747.9
1.264e+04
0.03129
16.53
867.8
554.4
472.2
7.606e+04
35.3
0.1419
68.9
304.7
0.1145
394.6
78.1
1.665
823.8
141.7
2.207e+06
0.02657
142.7
1.165e+04
2022
0.02183
41.01
0.02176
12.01
57.54
99.17
35.71
334.6
112.3
0.1628
2110
3078
1176
1209
1015
73.59
16.42
107.2
357.2
27.5
486.3
0.02217
6.457e+04
2.052e+04
2327
64.83
27.14
2843
726.1
0.2836
0.4101
7.388e+04
187.7
0.05475
0.03166
0.05189
400.2
801.7
25.89
5184
74.95
0.03699
171.2
101.3
77.74
481.5
3.924e+05
1344
146.2
640.3
48.04
115.9
3758
73.33
15.11
9.372
2314
38.05
0.2409
65.39
807.4
0.07966
141.3
0.257
15.06
7.513e+04
1243
0.02204
1010
13.48
2.846e+04
1826
0.02137
0.09364
842.8
0.02869
44.14
2454
949.2
9.193
0.02173
0.185
12.69
17.72
0.08123
422.9
0.02077
682.1
28.51
626.4
636.9
82.56
85.23
458.3
927.3
0.1591
113.9
0.02181
1.014e+05
0.03373
0.03101
610.5
0.02177
31.21
11.11
1.349e+06
0.02196
128.6
215
567.5
388.6
0.2504
87.6
38.34
365.3
3926
40.74
0.07172
0.02193
471.4
694.5
21.96
89.33
1979
4767
0.7912
0.02113
60.57
297.4
1.561e+05
89.94
100.7
0.6218
230.1
0.0215
30.08
8946
1962
0.02197
0.2107
1685
0.01979
117
2272
33.64
0.02195
0.022
8.231
0.02326
0.02013
0.02173
8.278
1435
2160
0.4692
162
18.13
16.17
0.02225
20.01
114.6
0.04216
0.5979
1851
13.05
0.02513
3100
57.66
7.895
6.458e+04
7.792e+04
0.02481
151.3
13.7
568.7
74.93
6722
0.02194
150.5
7.071e+04
10.98
662.7
0.853
3304
74.23
201.2
29.05
2.849e+04
0.05069
2.215e+04
45.15
0.02545
0.02842
0.02006
388.8
32.02
4845
337.5
1.124e+05
0.07153
0.01942
204.5
226.8
0.06874
0.02179
1107
10.17
1846
55.89
2973
368.5
146.9
26.38
268.2
0.01972
3.59e+04
215.2
77.42
30.35
0.06781
0.02189
31.08
13.73
455.5
7343
68.26
0.03943
80.7
16.16
0.05654
0.02182
1789
203.7
9529
278.5
34.14
2.74
82.91
20.61
13.5
125.5
0.7747
0.1293
0.02192
87.35
2.852e+04
25.54
0.4396
8418
0.5006
0.02168
16.97
0.0291
0.02203
46.61
0.01937
0.01932
9.08
0.02011
56.15
9.702e+04
594.4
11.76
0.133
0.02113
0.02197
48.99
217.6
68.41
6.945e+04
17.59
0.03013
10.31
60.93
4335
1.908
0.02198
2.581
96.92
0.02203
0.02136
104
244.5
0.05076
0.02784
95
0.0213
1.676
0.02148
3.923e+05
3.149
1558
9.554
0.02712
0.4837
8.943
26.4
800.1
20.37
105
13.46
0.02214
4.835e+04
18.73
227.9
0.02191
802.8
425.6
131.8
1175
0.2355
551.7
25.43
0.1353
6120
0.02205
8.497e+05
38.83
2.973e+04
0.02197
241.4
0.02173
0.08727
10.1
1.316e+04
14.11
552.5
14.85
0.1129
3442
0.1272
3231
5429
8.155
0.0844
0.0547
630.8
0.02162
7.931
31.22
58.51
40.25
0.02175
1.909e+04
0.03455
414.6
1071
63.78
2003
1.396e+04
22.23
1146
122.5
1.441
21.39
0.4457
0.02172
0.02181
983.2
12.01
2.225e+04
71.46
160.5
0.02179
89.85
0.02179
0.02168
0.03223
419.3
0.1047
14.78
0.03514
63.48
0.1833
90.97
291.4
2682
0.02495
459.9
382.6
127.1
0.1774
25.1
0.02187
114.2
0.4105
111
16.29
0.03396
249.6
1.499e+05
594.4
3118
33.03
3.968e+04
1914
4.493
94.87
2724
63.82
1.769e+05
736.2
35.8
85.34
173
51.81
2421
708.8
0.03895
27.2
0.09108
568.7
3.331e+04
113.4
3221
945.7
16.34
612.9
0.03331
251.7
54.47
8.153e+04
11.91
0.02241
27.43
20.21
169
0.05844
63.57
175.4
39.29
0.5929
456.3
83.04
1.467e+04
402.7
156.1
30.28
20.46
1678
0.02447
795.7
16.34
0.02343
114.4
116.5
591.4
928.7
280.9
0.02202
942
27.6
0.07916
2.968
670.5
2.507e+05
218.5
0.02084
0.02469
0.3867
524.6
91.59
0.0215
3.977
634.6
729.4
1.796e+04
0.02103
262
8570
83.67
1.927e+05
139.1
180.3
136
36.08
64.05
0.02315
111.4
7514
46.15
316.6
3.945
36.76
0.02165
0.07221
636.7
294
35.78
2446
137.2
0.0217
8632
119.3
0.1832
485.7
1.652e+04
2.662e+04
0.04217
0.1332
0.02444
130.7
7122
1023
2684
172.7
289.9
0.02181
89.97
4.862
9.149
1.168e+04
0.573
6.954e+04
57.11
5317
0.03277
199.6
3519
0.02168
160.7
207.2
213.3
10.56
0.0219
0.02168
0.03851
50.22
0.0217
12.26
2.457e+04
0.1093
23.4
631.6
0.03797
103.1
11.95
0.2686
5004
121.5
2.088e+04
94.75
0.02173
400.1
6124
0.0217
1.387e+04
10.11
152.2
61.63
764.3
39.49
439.5
14.49
12.16
0.02194
13.41
0.02178
0.05543
3003
148.5
87.43
70.06
1.885
281.6
0.02174
0.01965
0.05176
225.7
67.01
125.9
6.964e+04
15.88
0.9075
526.4
1.019
50.5
0.02135
1690
952.8
20.66
13.68
178.4
171.9
48.88
32.13
1.68
0.02245
136.6
23.41
142.6
4938
6.412e+04
754.5
0.02149
126.6
35.6
18.36
3.246e+05
0.02164
123.4
31.5
25.13
139.9
35.12
2.003e+05
137.1
49.13
932.5
8641
29.38
61.59
7223
4.206
0.02168
384.8
23.68
44.82
85.72
18.17
1.751
0.04482
1939
579.4
2479
30.43
1874
562.2
0.02171
349.9
52.11
101.2
13.58
0.01935
416.3
86.82
70.18
14.09
0.02133
847.3
13.29
14.39
104.6
208.8
171
63.54
739.2
650.1
0.01992
258.3
78.74
224.2
876.5
661.7
66.88
32.05
53.22
8.46
166.1
1405
6.597e+04
1369
550.7
3.763e+04
24.73
0.07759
9.055e+06
501.3
5163
0.03544
4853
4711
390.6
60.32
0.02194
2.594
0.02178
20.78
179.6
15.61
0.8912
14.94
1486
42.97
8.445e+05
16.04
358.1
2414
6.051e+04
879.5
283.7
24.8
0.08915
525.1
15.07
7.68e+04
189
0.3815
0.6883
4467
3.149
0.022
0.0217
59.64
95.84
0.03969
0.02017
0.02183
1847
494.4
3.608e+04
0.02155
0.03073
100.7
0.01976
0.0199
880.2
0.05465
154.1
932.4
0.05387
4908
27.59
77.32
7.978
43.8
0.04841
106.2
27.72
2.56e+06
62.76
1207
3268
4016
12.44
0.03066
10.04
1475
0.02171
10.14
357.7
1347
5.204e+04
561.7
61.89
1796
0.02479
392.1
9368
291.1
121.4
150.8
0.0717
63.4
15.2
6418
167.8
215.3
0.04802
2303
1032
0.03573
32.59
0.06691
42.23
0.02613
6282
6.649e+04
0.02736
1681
176.9
0.1526
1235
116
0.02227
2.268e+04
168.8
229.7
1688
0.0334
19.57
2.027e+05
109.4
1282
14.34
29.35
7.9
32.3
194.2
0.0583
5.715
101.4
173.3
51.85
20.05
79.41
16.86
187.4
942.2
120.9
14.54
2.692
0.0218
0.09153
1338
26.62
0.01936
8.348
71.14
14.45
194.5
114.9
77.34
0.09457
1837
116.8
0.1081
77.46
211.4
0.07167
1631
0.03957
2143
9.266
0.1861
0.06584
10.4
1362
88.39
0.02092
162.5
969.9
310.9
0.1995
0.02186
11.74
584.4
1855
31.39
90.66
12.84
1704
12.58
28.3
8.96e+04
9.513
4.549
1.813e+05
1233
14.41
19.54
0.02204
4.659e+05
0.02199
50.92
164.8
364.7
407.3
474.1
7.81e+04
9.553
41.68
27.61
1.098e+05
1004
16.3
1.68e+05
2.168e+04
932.4
196.6
0.1857
1.688
18.98
145.7
0.02187
657.6
8.228e+04
0.04375
126.7
17.19
22.12
1006
942.8
1.619e+05
4108
255.4
0.01954
0.01934
0.02178
1825
8034
0.5064
0.02158
0.1786
7370
24.12
1.79e+05
239.4
0.02202
1.55e+05
0.01939
5.23
11.95
0.03784
15.75
0.6275
4.269
0.05738
1065
27.75
100.6
145
9.504e+04
14.13
408.9
248.6
10.96
0.02213
2.532e+04
775.6
671.8
296.2
3296
554.1
359.8
0.05342
37.7
343.9
22.21
665.3
0.02912
1733
69.77
754.5
27.69
0.2847
0.4674
0.02179
308.6
71.37
311.6
809
11.77
2437
34.62
25.53
11.81
317.7
0.1829
3131
237.4
209.2
31.98
0.06471
24.31
0.0876
108
17.81
263.9
13
609.7
13.15
33.56
679.9
0.227
6086
48.46
0.5936
0.08754
1.427e+05
526.8
354.5
54.39
2.169e+04
0.02204
2.351e+04
1119
110.8
150.2
194.6
139.8
192.4
22.42
183.1
217.9
420.7
9360
0.07236
0.02186
0.02173
147
509.5
7.806
9.893e+04
350.6
3.483e+04
3609
141.3
6270
7.345e+04
24.22
890.2
1880
33.17
7.657e+04
0.02166
247.6
1198
1168
0.02157
1104
38.31
261.9
449.8
272.9
0.02168
14.2
307.7
2846
0.02089
493.3
10.71
0.1522
1.232e+06
0.03322
10.89
12.37
318.8
485
0.4448
25.27
6.551
514
1630
322.9
0.0194
16.47
2.629e+06
0.02503
0.02249
5456
3148
97.93
1626
0.0618
21.2
102.2
109.4
152.1
212.5
0.01999
32.04
9.443
0.1285
0.02193
41.31
0.02121
3.277e+05
30.63
3.542
8.008
5.194e+04
0.02167
356.1
0.02
0.02216
502.3
0.4854
3798
9.143
0.04018
83.48
1181
37.6
48.52
60.14
694.7
360.9
1517
1158
1591
1.636e+04
3276
98.67
757.9
394.8
239.7
0.2452
0.02113
0.02118
1.21e+04
16.57
986
1.71e+05
0.02178
842.9
1.086
0.02038
22.65
1.823e+05
8.36
889.8
1.009e+04
0.02206
1680
67.21
24.36
10.1
18.23
4809
304.9
0.02174
1.858e+05
5004
0.06308
0.02328
4404
463.4
1960
922
171.3
683.5
0.02168
657.3
0.02118
444.3
939.6
1.648e+05
0.01955
0.01936
0.1464
197.5
0.03083
20.15
6.194
19.77
43.77
145
392.8
0.04543
0.02694
7.134e+04
8.262e+04
163
1761
0.04734
1068
0.02214
170.5
4813
1892
8479
839.9
854.5
598.3
0.2815
19.58
47.39
0.02489
0.02176
0.02173
14.32
273.4
2363
1.206e+05
434.2
0.02425
1397
2857
785.6
1.311e+05
60.61
2021
893.9
280.8
0.05468
8.606
14.86
1.101
0.08207
2514
41.7
77.21
35.63
1205
0.342
0.01974
6.957e+04
14.9
11.64
81.92
8.446e+04
17.16
0.02082
340.4
42.95
226
23.44
198
1353
4.242
277.5
12.59
0.06443
231
0.04393
0.07769
2.772
1292
41.19
3119
32.21
84.82
67.51
0.02811
183
548.1
0.2417
102.9
5.819
6.934e+04
0.02987
0.02359
208
197.9
202.2
44.41
12.12
8587
0.06612
0.02183
62.43
7141
0.02437
0.5524
104.9
0.02159
7.408e+04
0.05319
75.09
121.5
169.6
1.608
1186
8483
9.033
0.06034
0.02172
28.21
86.64
232.3
20.87
0.02134
0.02019
0.02172
329.1
245.2
400.7
0.05375
2137
77.97
873.5
93.27
1796
0.6916
0.03003
1.51e+04
0.02184
2117
45.93
0.02977
166.2
247.9
1224
275.2
388
19.12
18.5
0.06944
8470
4465
6877
0.1739
0.7124
0.02168
7.487e+04
0.02159
698.6
6359
0.02208
13.05
138.6
908.8
0.08175
18.48
5.017e+04
23.28
0.02166
23.49
866.6
72.82
228.8
18.35
59.21
5.844e+04
10.77
0.02071
0.02264
4.211e+04
50.25
623.8
8.695
95.48
0.02117
0.02193
7.209
2.727e+05
6441
1098
551.5
2.692
503.2
5837
329.6
584
0.02189
1539
8.233
803
28.94
24.07
0.0216
1590
17.92
5.906e+04
6.194e+04
10.18
33.24
4.395
4063
0.0269
9.23
6.201e+04
1382
438.5
7136
2.529e+04
562.3
239.4
0.114
2524
695.7
2486
90.58
0.02616
4119
2.543e+04
0.02172
511.7
1.36e+04
1094
2378
59.76
24.65
267
80.48
0.03336
172.2
0.02211
185.6
0.09492
5.583e+04
0.1171
1.578e+04
89.46
682.8
16.69
16.05
1618
10.58
311.6
2915
107.1
68.61
9.175
46.5
201.9
2508
67.27
0.02429
101.5
46.94
450
328.5
197.9
955.4
79.13
0.02493
88.16
8.855e+04
24.29
12.54
334
0.03995
66.78
0.02156
106.8
2.271e+06
3.325e+05
1487
45.95
76.5
0.02099
0.05282
33.08
41.29
131.3
19.71
0.02179
29.32
131.3
54.4
105
0.02165
2618
5775
2.337e+05
8.866
51.35
184.5