/*--------------------------------*- C++ -*----------------------------------*\
  =========                 |
  \\      /  F ield         | OpenFOAM: The Open Source CFD Toolbox
   \\    /   O peration     | Website:  https://openfoam.org
    \\  /    A nd           | Version:  8
     \\/     M anipulation  |
\*---------------------------------------------------------------------------*/
FoamFile
{
    version     2.0;
    format      ascii;
    class       volScalarField;
    location    "35";
    object      p;
}
// * * * * * * * * * * * * * * * * * * * * * * * * * * * * * * * * * * * * * //

dimensions      [0 2 -2 0 0 0 0];

internalField   nonuniform List<scalar> 
127143
(
-0.2088
-0.2231
-0.2108
-0.2105
-0.4826
-0.2103
-0.5178
-0.508
-0.5057
-0.2849
-0.3197
-0.5188
-0.1989
-0.2107
0.496
-0.208
-0.214
-0.1137
-0.2131
-0.2143
-0.2118
-0.1982
-0.008055
-0.1397
-0.1982
-0.06492
-0.2615
-0.26
0.1952
-0.02954
-0.2009
-0.06376
-0.4331
-0.2137
0.1072
-0.4333
-0.2105
-0.2127
-0.1399
-0.2077
-0.2135
-0.1571
-0.1327
-0.1979
-0.1089
-0.2138
0.1908
-0.2109
-0.0509
-0.1615
-0.2085
0.0195
-0.2242
-0.1721
-0.0006263
0.01232
-0.0005838
-0.1268
-0.007377
-0.1709
0.3603
-0.2084
-0.1736
-0.001287
-0.2302
0.07978
-0.07792
-0.1715
-0.1703
-0.0001617
-0.1611
-0.2614
-0.2092
-0.0077
-0.001994
-0.2602
-0.00409
-0.2088
0.007046
0.0009354
0.1801
-0.2136
-0.2138
-0.2053
-0.2087
-0.2095
-0.1281
-0.3102
0.08102
-0.4863
-0.000844
-0.1903
-0.4589
-0.2119
-0.2169
-0.05724
-0.1539
-0.1743
-0.2067
-0.07522
0.0008608
-0.05255
-0.4699
-0.1021
-0.2094
-0.2066
-0.0667
-4.162e-06
0.2048
0.00156
0.4969
-0.3103
-0.2144
0.3569
0.006447
-0.05522
0.01549
-0.001899
-0.004086
-0.211
0.001583
-0.2121
0.1103
-0.103
0.1836
-0.08398
-0.2062
-0.02941
-0.2298
0.04263
-0.2068
-0.214
-0.1438
-0.2087
-0.2143
-0.2066
-0.08539
-0.2124
0.2784
-0.1017
0.01596
0.0168
-0.2207
-0.2148
-0.2243
-0.3495
0.4018
-0.001256
-0.2141
-0.5086
-0.1146
-0.03737
-0.2149
0.128
0.424
-0.208
-0.1278
0.09483
-0.2109
-0.1593
-0.193
0.2114
-0.0009345
-0.2066
0.01833
-0.23
-0.2104
0.2265
-0.396
0.05824
-0.1971
-0.2148
-0.04805
0.04115
0.0005115
-0.1994
-0.3495
-0.2298
-0.1255
-0.00429
0.04156
-0.01098
-0.2027
-0.199
0.04395
-0.2081
-0.04038
0.3475
-0.1427
-0.02375
-0.2229
-0.2242
-0.08276
0.08413
-0.2134
-0.2069
9.872e-05
-2.166e-05
-0.2259
0.0115
-0.007417
0.0655
0.01431
-0.2106
-0.2096
-0.1922
-0.02748
-0.0528
-0.0256
0.006405
-0.1688
-0.2055
0.005586
-0.3989
-0.2067
-0.2138
-0.197
-0.0372
-0.2115
-0.02895
-0.3347
0.0012
-0.03462
-0.2242
-0.168
-0.1965
0.01884
-0.2144
-0.2002
-0.2067
-0.2123
-0.01222
-0.2082
-0.2086
-0.2123
-0.08734
-0.2068
-0.2064
-0.00761
-0.2219
-0.2242
-0.2345
-0.2021
0.09225
-0.2219
-0.2108
-0.03816
-0.2558
-0.2037
-5.464e-05
-0.2574
-0.1131
-0.007428
-0.2142
0.001277
0.1909
-0.02881
-0.438
0.01496
0.113
-0.2082
-0.01624
-0.1897
0.0171
-0.2262
-0.233
-0.2077
0.4325
0.3162
-0.2136
-0.04242
0.001771
-0.2108
-0.2219
-0.181
-0.2229
-0.2143
-0.06818
0.002633
0.05606
-0.0001015
-0.05587
-0.1021
0.006866
0.0004333
-0.2171
-0.2081
0.006346
-0.07823
-0.003416
-0.2235
-0.006466
-0.08585
-0.03432
0.00242
0.2105
-0.1581
-0.2051
-0.2019
-0.213
-0.1083
0.0404
0.1489
-0.05455
-0.173
0.3276
-0.05167
0.00573
-0.2046
-0.1186
-0.07543
-0.2045
-0.0002729
-0.000184
0.009322
-0.4368
-0.2178
-0.1187
-0.1759
0.001435
-0.006755
-0.1863
-0.05575
-0.008173
-0.4342
-0.2196
0.07802
-0.2041
-0.2059
-0.3384
-0.2082
0.000116
0.1036
7.803e-05
-1.422e-05
0.1284
0.1961
-0.0474
-0.2087
-0.2091
-0.09901
-0.03933
-0.2232
-0.2229
0.4735
-0.07823
-0.2136
-0.2169
-0.1007
-0.2337
-0.1049
-0.2141
-0.1978
-0.2229
0.07634
-0.2126
-0.2142
-0.3303
-0.001774
-0.2052
-0.2105
-0.1721
-0.2073
-0.1837
-0.1556
-0.0005202
0.01124
-0.00423
-0.2184
-0.0001058
0.4171
-0.05691
-0.1134
-0.1763
-0.02377
-0.1431
-0.1326
-0.2026
-0.2072
-0.0008441
-0.2036
-0.0832
-0.09291
0.04089
0.01483
-0.2078
0.04173
-0.2066
-0.2071
-0.2089
-0.008517
0.1788
-0.1975
0.005917
-0.1429
-0.1801
0.1749
-0.1987
0.07724
-0.01512
-0.1851
0.00111
-0.2137
-0.2028
0.03705
-0.09888
-0.2092
-0.1367
0.002405
-0.1256
0.1938
-0.07408
0.01539
-0.211
0.113
-0.217
-0.2079
-0.04145
-0.2171
0.1388
-0.2107
-0.21
-0.2068
1.817e-05
-0.2066
0.05807
-0.1225
0.04761
-0.2344
-0.0113
0.0008749
-0.2069
-0.1972
-0.1843
-0.2446
-0.0006246
-0.07212
-0.2148
0.01868
0.002688
0.004185
-0.1622
-0.08411
0.1949
0.04058
-0.1746
0.0112
0.367
-0.003763
-0.2072
-0.2091
-0.09919
-0.09903
-0.2198
0.1288
-0.2094
-0.101
-0.2375
-0.2109
-0.2154
-0.1432
-0.2287
-0.2103
0.3474
-0.2289
0.0006409
0.0005242
-0.2175
-0.2108
-0.0003695
-0.2064
-0.1903
-0.1034
-0.2176
-0.03
0.0001663
0.4569
-0.1877
-0.2057
-0.2229
0.2617
0.3761
-0.2221
0.001212
0.1951
-0.2439
-0.2212
-0.00702
-0.159
0.02729
-0.4202
-0.1297
-0.2247
-0.3465
-0.2101
-0.2064
0.4252
-0.109
-0.2001
0.006519
0.2581
-0.0002655
-0.2012
-0.2069
-0.216
-0.2256
-0.1984
0.003113
-0.2126
-0.2636
0.009097
-0.2118
0.1127
-0.2081
-0.07488
-0.2091
-0.09674
-0.2063
-0.2189
0.0004358
-0.2058
-0.1982
0.1473
-0.1329
-0.1972
-0.008098
-0.1144
0.01156
-0.2093
0.002017
-0.1618
-0.5019
-0.1999
3.73e-07
-0.2175
-0.07289
-0.1988
0.2143
-0.4391
-0.2061
0.02872
-0.2088
0.1341
-0.0004276
0.03999
-0.214
-0.1551
-0.1849
-0.2108
-0.2098
-0.207
-0.2288
0.1307
-0.2103
-0.2069
-0.01434
-0.2099
-0.2076
-0.07772
-0.1196
-0.2047
0.002121
0.002468
0.1092
-0.2135
-0.1934
0.0103
3.167e-05
0.1281
0.17
-0.2096
0.1956
-0.2112
-0.2072
-0.008478
-0.003452
-0.001291
-0.2021
-0.2067
-0.01041
0.0003134
-0.2558
-0.1301
-0.2095
-0.002846
-0.09061
0.01035
-0.2094
-0.2054
-0.2101
4.543e-07
-0.2102
-0.2082
0.208
0.0001629
-0.06711
-0.1964
0.004129
-0.09873
0.009256
-0.1784
-0.2219
0.00679
-0.2127
-0.08773
-0.2056
-0.2209
-0.2204
-0.1044
-0.09241
0.4757
-0.1419
-0.4478
-0.2053
-0.1982
-0.2268
-0.1476
0.0003525
-0.02681
0.007872
0.4693
-0.03021
-0.2205
0.0009124
0.006541
-0.1303
0.1431
-0.2123
0.0002936
-0.001257
-0.2004
-0.3415
-0.2137
-0.1505
-0.2097
0.1951
-0.2088
0.1934
-0.2229
-0.2067
-0.2334
0.000286
-0.2392
-0.2223
-0.05146
-0.207
0.0002788
1.51e-05
-0.2203
0.2767
-0.2223
-0.1967
-0.02925
-1.484e-05
-0.2071
-0.2293
0.06281
-0.2265
-0.04424
0.006921
-0.2067
0.001686
-0.2223
0.1242
-0.1984
-0.1969
-0.2108
-0.2094
-0.2081
-0.2218
-0.08919
-0.2214
0.02765
-0.2278
-0.201
-0.2136
-0.001379
-0.06859
0.09825
0.3382
-8.917e-06
-0.001362
-0.2154
-0.1085
-0.04468
-0.2229
0.2873
-0.2038
-0.1938
-0.1692
0.2608
0.01526
-0.006611
0.0006891
-0.2744
0.05088
-0.2183
0.3354
0.1509
-0.2111
0.1474
-0.1663
-0.2132
1.559e-05
-0.1961
-0.03214
-0.008486
-0.2163
-0.07159
-0.2244
-0.2071
-9.285e-06
-0.1186
-0.15
-0.2045
-0.2141
-0.2118
-0.2228
-0.5119
-0.2079
0.256
-0.214
0.0002637
-0.1191
-0.1172
-0.2061
-0.02699
-0.2075
0.1
0.05866
-0.01824
0.1749
-0.1195
-0.003703
-0.2012
-0.2157
-0.2098
1.042e-05
-0.1968
-0.2067
-0.09579
-2.158e-05
-0.2214
-0.2004
-0.2183
-0.227
-3.476e-05
-0.2091
-0.1987
-0.2096
-0.2148
0.01273
-0.2233
0.4971
-0.01419
-0.04605
-0.01427
-0.2219
-0.2066
0.0405
-0.06841
-0.08969
-0.2078
1.953e-05
-0.2092
-0.2118
-0.1894
-0.0722
-0.175
-0.2118
-0.2099
1.498e-05
-0.2083
-0.2065
-0.222
-0.2079
-0.2217
-0.2002
-0.2167
-0.2014
-0.003334
0.003065
-0.1989
-0.2071
-0.2208
-0.2035
-0.2108
-0.2107
-0.2079
-0.1603
-0.001257
-0.2183
-0.09536
4.666e-05
-0.207
-0.4175
-0.07443
0.1027
0.0002321
-0.2088
-0.1989
-0.00678
0.0002281
-0.2061
-0.2085
-0.2098
-0.2101
-0.2093
-0.2129
-0.08774
0.2334
-0.001472
-0.2067
-0.2108
-0.1942
-0.1732
0.226
0.0001833
-0.007956
0.01325
-0.2645
-0.001522
-0.1601
0.309
-0.09397
-0.07919
-0.0003629
-0.2033
-0.1004
0.001653
-0.101
-0.0008993
0.2411
0.504
-0.2232
-0.2245
-0.2108
-0.0004459
-0.2103
0.1285
-0.1625
-0.2019
-0.08831
-0.3449
-0.1742
-0.03197
0.1657
-0.0691
0.002941
-0.2089
0.07042
-0.3677
-0.201
-0.07055
0.0002001
-0.1013
-0.202
-0.004201
-0.2343
-0.2912
0.4876
-0.3339
-0.3306
-0.2125
-0.2044
-0.2142
-0.1889
0.003385
-0.0817
3.054e-06
3.519e-06
-0.2203
-0.03268
-0.224
-0.1998
0.3716
-0.1169
-0.04521
-0.4565
-0.01276
-0.008074
-0.2154
-0.2105
-0.04345
-0.2139
-0.2097
-0.208
-0.0286
0.4934
-0.2147
-0.2093
0.006109
-0.2249
-0.008374
-0.001841
-0.2124
-0.2075
-0.2063
-0.0003595
4.177e-05
-0.2063
-0.2129
0.1024
-0.2099
-0.2066
0.1865
-0.02097
-0.1969
-0.2338
1.486e-06
0.2874
-0.171
1.079e-05
0.1711
-0.1993
-0.2046
-0.2882
-0.1818
-0.06242
-0.1972
-0.1676
-0.1257
-0.002711
0.004918
-0.03764
0.2225
-0.2101
-0.2138
0.256
0.1573
-0.2029
-0.1276
0.1561
-0.109
-0.2397
-0.003708
-0.2109
-0.2064
-0.2165
-0.2082
-0.2065
0.005939
0.01579
-0.2053
0.02955
-0.2063
-0.09142
-0.2075
-0.2096
-0.2209
-0.2528
-0.2309
-0.0837
-0.2226
-0.1863
-0.2068
-0.09678
-0.2114
0.08348
-0.2114
-0.2064
-0.1985
-0.2065
-0.003624
-0.002723
-0.2089
-0.208
-0.05129
0.0002241
0.2154
-0.209
-0.1387
-0.2101
-0.2206
-0.2066
-0.2152
0.002479
-0.03121
-0.1566
0.1247
-0.1796
-0.1986
0.2053
-0.2083
-0.2196
-0.1431
-0.1617
-0.2118
0.2052
-0.1096
-0.211
0.1709
-0.00376
-0.2078
-0.1974
-0.2116
-0.2211
0.4967
0.002556
-0.2112
-0.03691
-8.944e-05
-0.001418
-0.225
-0.2123
-0.199
-0.2032
-0.07891
0.1229
-0.2096
-0.03827
-0.07641
-0.002828
-0.2091
-0.2092
-0.2095
-0.02147
-0.198
-0.2101
-0.0002103
-0.09046
-0.2011
0.003015
-0.2221
-8.492e-05
0.00498
-0.08481
-0.01622
-0.2295
0.002889
-0.1001
-0.0009213
-0.4326
-0.02414
-0.2194
-0.1048
-0.03628
-0.07651
-0.2066
-0.1106
0.0006076
-0.01897
-0.2168
-0.04818
-0.2106
-0.2085
-0.1959
-0.2087
-0.2069
-0.221
0.02581
-0.2649
-0.122
-0.09362
0.104
-0.2199
-0.0008056
-0.2176
-0.1991
-0.0544
-0.0001688
0.3502
-0.2075
-0.1372
0.02881
-0.2233
-0.08782
-0.2158
-0.2071
-0.1366
-0.1986
0.02476
-0.2021
-0.0001912
-0.1716
-0.2184
0.0005196
-0.216
-0.228
-0.0001113
-0.01186
-0.1976
-0.03512
0.09048
-0.2145
-0.2068
-0.04769
-2.635e-05
-0.2131
-0.2072
-0.007893
0.0533
-0.03449
-0.2085
-0.2103
-0.05167
-0.04413
-0.1979
-0.1977
-0.02402
-0.06765
-0.2066
-0.1905
0.0002173
-0.1272
-0.001307
-0.2063
0.2582
-0.2191
0.02608
-0.2012
-0.221
0.003022
-0.1967
-0.207
-0.2073
-0.1481
-0.4338
-0.2064
-0.2157
-0.1707
-0.08631
0.1079
-0.1991
-0.2078
-0.1913
-0.02494
-0.07639
0.3267
-0.2055
-0.209
-0.05835
-0.2089
-0.225
-0.09629
-0.1256
-0.2015
-0.211
-0.1009
-0.02224
-0.07261
-0.0599
-1.509e-06
-0.002686
-0.2188
-0.2013
-0.2105
0.001282
-0.2158
-0.2087
0.005584
-0.3566
-0.08572
-0.2238
-0.2109
0.04777
-0.2095
-0.1992
-0.2125
-0.2103
-0.2073
-0.09654
-0.2282
-0.07911
-0.1526
0.1831
-0.2205
-0.08687
-0.1953
-0.2145
-0.2064
0.003675
-0.1783
-0.2101
-0.1989
-0.2097
-0.05985
-0.2061
-0.1447
-0.1919
-0.06306
-0.2111
-0.008254
-0.2753
-0.2068
-0.2105
-0.2088
-0.00106
-0.2084
-0.2236
-0.196
-0.2111
-0.007443
-0.1559
0.001662
-0.04098
-0.1973
-0.2142
-0.07063
-0.2328
-0.2102
-0.2075
-0.0152
-0.2054
-0.2108
-0.3625
-0.2177
0.005416
-0.2102
0.001501
-0.2668
-0.02743
-0.2112
-0.03212
0.01304
0.0001438
2.059e-05
-0.1975
-0.2087
-0.2146
-0.143
-0.0003161
-0.0003167
-0.1973
-0.2078
-0.2055
-0.2482
-0.09679
-0.1091
0.03224
-0.09739
-0.2054
-0.2079
4.518e-05
-0.1972
-0.2063
0.005999
-0.07965
-0.2151
-0.2052
-0.2078
-0.1723
-0.2164
0.2465
-0.2035
-0.211
-0.2106
-0.2058
-0.1417
-0.06833
0.1626
-0.1634
-0.1994
0.001314
-0.1484
-0.4939
0.0001018
-0.2194
-0.05455
-0.2106
-0.06156
-0.00234
0.0686
-0.196
0.002824
-0.1822
-0.2067
-0.1356
0.45
-0.02887
-0.1117
-0.1966
0.0214
-0.2081
-0.2205
0.1692
0.002997
-0.2121
-0.3118
-0.2901
-0.2064
-0.003047
-0.2537
-0.2092
-0.1722
-0.3828
-0.2105
-0.2069
-0.002281
-0.0729
-0.2096
0.001774
-0.2114
-9.865e-05
-0.5147
-0.2091
-0.205
-0.2112
-0.2238
-0.3426
-0.2139
-0.1593
0.06347
-0.3398
-0.208
-0.2067
-0.2216
-0.2139
-0.2109
-0.0002221
-0.1988
0.003625
-0.2061
0.003876
-0.2067
-0.002477
-0.2737
-0.2087
-0.0001497
0.004464
-0.2035
-0.1684
-0.2069
-0.01378
-2.857e-05
0.1839
-0.2097
0.08223
-0.1993
-0.2068
-0.2105
-0.08513
-0.1189
-0.1009
-0.05044
-0.2064
-0.1783
-0.1981
-0.203
-0.2109
-0.2266
-0.2224
-0.2271
-0.2156
0.002681
-0.3369
-0.2099
0.133
0.004664
-0.0842
0.1197
-0.08657
-0.2022
4.933e-05
5.361e-05
-0.1639
-0.2003
0.0163
-0.2076
-0.09376
-0.01684
0.3019
0.001072
-0.0839
0.07229
-0.2556
-0.04706
-0.2091
-0.1469
-0.2278
-0.2088
-0.03987
-0.08889
-0.2074
-0.01536
-0.1994
-0.197
-0.06671
-0.2227
-0.03621
0.001617
0.004533
-0.1047
-0.1969
-0.2299
-0.1623
-0.002305
-0.2091
0.08666
-0.08744
0.3993
-0.05213
-0.2074
-0.207
-0.1609
5.067e-05
-0.3283
-0.211
-0.2066
-0.09592
-0.2089
-0.2056
-0.003883
-0.2348
-0.2071
-0.2062
-0.07983
-0.2124
-0.197
-0.08049
-0.2325
-0.2087
0.2854
-0.008553
0.3115
-0.2087
-0.1508
-6.017e-05
6.541e-05
-0.1207
-0.2669
-0.4679
-0.381
-0.1373
-0.1847
-0.3337
-0.00127
-0.2099
-0.0205
-0.006054
-0.003115
-0.2106
-0.0003869
0.09288
-0.002943
-0.4653
0.02312
0.2444
-0.2716
-0.1793
-0.0002454
0.4937
-0.1761
0.1937
-0.2066
-0.2139
0.002186
-0.2176
-0.209
-0.2065
-0.2033
-0.1978
-0.208
-0.4072
0.2655
-0.05012
-0.0003171
-0.2055
-0.000286
2.343e-05
-0.004522
-0.1971
-0.0003319
-0.1966
0.001546
-0.2208
-0.2236
-0.2092
0.1355
0.0006095
-0.2105
-0.213
-0.2062
-0.08901
-0.08606
0.04437
-0.0007708
-0.0008853
-0.2243
0.4932
0.03578
-0.08402
-0.03358
-0.2111
-0.05187
0.03918
-7.733e-05
0.07731
-0.2075
-0.1603
-0.03711
0.1514
0.02652
-0.2233
0.00278
-0.02767
0.113
-0.2062
0.3055
-0.009704
-0.21
-0.001396
-0.2228
-0.1395
-0.2101
-0.08422
-0.08499
-0.2059
-0.03299
0.1305
-0.1209
-0.2239
-0.3997
-0.2092
0.0001615
-0.165
-0.00562
-0.2375
-0.03297
-0.2311
0.004955
-0.2055
-0.002467
-0.09912
-0.2087
-0.001754
-0.2062
-0.1525
0.1855
-0.2107
-0.002458
-0.1262
-0.000978
0.02847
0.2403
-0.04763
-0.2144
-0.06421
-0.008793
-0.2258
-0.1983
0.3626
0.1841
-0.2014
-0.1018
-0.2189
-0.2291
0.443
-0.1034
-0.1639
0.1552
-0.00856
-0.08687
-0.2081
0.2568
-0.1047
0.04206
-0.000727
-0.1972
-0.21
-0.2176
-0.2107
-0.05021
-0.2107
-0.1099
-0.08188
-0.000341
-0.1084
-0.05313
-0.08015
-0.106
-0.008103
-0.2215
0.002065
-0.2066
-0.07251
-0.2079
0.2469
-0.03966
-0.05226
0.003926
-0.09022
0.2643
0.1835
-0.298
0.01981
-0.1425
-0.09303
-0.004072
0.03281
-0.1975
0.0001844
-0.2286
0.01016
0.003824
0.2499
-0.06997
-0.2031
0.0002546
-0.1944
-0.2219
-0.0002008
0.08929
-0.3659
-0.2084
2.645e-05
-0.2107
-0.1892
-0.2041
-0.2734
-0.2107
-0.1266
-0.2085
0.0001295
-0.0004668
-0.1972
-0.03299
-0.2223
0.2653
-0.2046
-0.1886
-0.2191
0.02586
-0.2336
-0.2094
-0.2611
-0.2047
-0.1969
-0.2163
-0.1346
-0.21
-0.1233
-0.2014
-0.2085
-0.1976
-0.1996
0.1876
-0.2092
-0.2065
-0.0951
0.009785
-0.3845
-0.1223
-0.2067
-0.1413
-0.0714
-0.04021
-0.2048
-0.2128
-0.000119
0.04155
-0.0835
-0.2195
-0.2256
-0.2067
-0.05141
-0.02512
0.02119
-0.214
-0.1967
-0.214
-0.07279
-0.115
1.415e-05
-0.3532
0.4921
-0.1009
5.354e-06
-0.2109
-0.2114
-0.1399
-0.2208
-0.2085
-0.1316
-0.0001921
0.2751
-0.06302
-0.03125
-0.2073
-0.01031
-0.1269
-0.4913
-0.1514
-0.2064
-0.4464
-0.2087
-0.09066
0.0003301
0.168
0.1044
-0.2111
-0.07157
-0.211
-0.1296
-0.2067
-0.1404
-4.221e-05
-0.02714
-0.1676
-0.4634
-0.2107
-0.2222
0.02295
0.1385
0.0131
0.04655
-0.2315
-0.04922
0.001649
-0.1107
-0.1354
-0.1117
-0.2022
-0.03257
0.03042
-0.2181
0.2651
-0.2069
-0.1973
-0.06938
-0.0595
-0.1702
-0.2073
-0.197
-0.2174
-0.09272
-0.1876
-0.2078
-0.1808
-0.1343
-2.512e-05
-0.0822
-0.207
-0.2096
-0.0003198
0.003983
-0.2062
-0.07483
-0.2057
-0.0566
-0.1871
0.4628
-0.00786
-0.1366
-0.2106
-0.2063
-0.09743
-0.1855
0.02154
-0.2238
-0.2096
-0.0745
-0.2225
0.000463
-0.2067
-0.2123
-0.08606
-0.2017
-0.07677
-0.2143
-0.02095
-0.1334
-0.2178
-0.2083
-0.1386
-0.1974
-0.03855
-0.2092
-0.2093
-0.2075
-0.2171
-0.2047
0.4457
-0.2101
-0.00915
-0.2003
-0.2153
-0.07722
-0.05128
0.0003939
-0.2115
-0.1499
-0.2245
1.542e-05
-0.2086
-0.2062
-0.2025
-0.2081
-0.2163
-0.1704
-0.2067
-0.08316
0.01065
-0.2114
-0.0005264
-0.2084
0.07728
-0.08259
-0.2058
0.001585
-0.07963
-0.1774
-0.1968
-0.001701
-0.02712
-0.2082
-0.1254
-0.2649
0.009172
-0.2219
-0.2015
0.009466
-0.1538
-0.2055
-0.2629
-0.2201
-0.09482
-0.1185
-0.2017
-0.207
-0.5003
-0.1649
-0.2057
-0.05142
0.009577
-0.0003303
0.1278
-0.174
-0.3089
0.005596
-0.209
-0.2104
-0.4973
-0.2069
-0.03985
-4.694e-06
-1.897e-06
-0.1204
-0.219
-0.1982
0.423
0.09672
-0.2075
-0.09547
0.002593
-0.131
-0.01203
-0.07811
-0.1988
-0.1499
-0.1278
0.0495
-1.144e-05
-0.09585
0.04896
-0.03851
0.05991
-0.2119
0.3659
-0.1973
-0.2236
-0.165
-0.2184
-0.2123
-0.0405
-0.3
-0.2103
1.455e-05
3.38e-06
-0.2092
-0.2067
-0.1813
0.1976
0.2014
-0.223
0.000402
-0.001085
0.2063
-0.001445
-0.2097
0.01998
-0.3311
-0.04467
0.007563
-0.0146
0.3424
-0.4278
4.256e-05
-0.09619
-0.06949
-0.0847
-0.2035
0.1257
-0.2107
-0.2209
-0.2172
-0.2099
-0.1087
-0.2078
0.1421
-0.02837
-0.2114
-0.1969
-0.443
-0.2015
-0.1994
-0.2107
0.3346
0.1969
-0.03798
-0.07096
-0.0786
-0.2274
-0.01977
-0.2083
0.002086
-0.08771
-0.2109
-0.07235
-0.2069
0.05021
-0.2073
0.1736
-0.1731
-0.2167
-0.08751
-0.1697
-0.2787
-0.0004075
-0.2032
-0.1863
-0.2303
-0.2064
-0.2082
-0.1379
-0.03029
0.006157
-0.2171
0.09837
-0.0754
-0.2012
-0.2081
-0.1485
-0.2412
2.555e-06
-0.2198
-0.07355
-0.2088
0.2341
-0.1174
-0.002629
-0.2129
-0.003541
0.1551
-0.1081
-0.2157
-0.2076
-0.2019
0.001937
-0.2106
-0.1964
-0.2045
-0.4153
-0.1352
-0.2115
-0.224
0.01099
-0.03163
0.2238
0.2009
0.2486
-0.2216
-0.225
-0.1346
0.1266
-0.3618
-0.1887
0.4405
-0.1973
-0.2185
-0.1409
-0.2107
8.737e-05
-0.1924
0.01033
0.002371
-0.3476
-0.0152
-0.209
0.02704
-0.2047
-0.2167
-0.1063
-0.2282
-0.2077
0.4017
-0.2068
-0.2053
-0.201
-0.2103
-0.2066
-0.000259
-0.2033
-0.2071
-0.2105
-0.2099
2.656e-05
-0.2068
-0.1391
-0.07901
-0.208
-0.197
-0.4501
-0.2082
-0.2069
-0.2106
0.03285
-0.2165
0.003748
-0.006306
-0.2075
-0.1971
-0.2328
-0.2258
-0.1928
-0.2064
-0.01088
-0.2193
-0.207
-0.2052
-0.1127
-0.2121
0.4885
-0.07459
0.1494
-0.08967
-0.2108
-0.1511
-0.197
-0.2065
-0.2111
0.1549
-0.2011
-0.2238
-0.09786
0.1914
0.001658
-0.2563
-0.218
-0.21
-0.07454
-0.09028
-0.2156
-0.3723
-0.2075
-0.219
-0.5046
0.002182
-0.206
-0.2064
-0.07585
0.04036
0.05206
-0.009721
-0.2148
-0.2068
0.03027
-0.4677
0.06911
-0.222
-0.2877
-0.2076
-0.1142
-2.486e-05
1.587e-05
-0.151
-0.2221
0.05647
-0.2732
-0.1594
0.002272
-0.2251
-0.03137
-0.221
0.001418
-0.01042
-0.224
-0.2158
-0.1565
-0.4559
0.01638
-0.0007463
-0.1524
-0.2074
-0.02073
-0.04961
-0.1787
2.85e-06
-0.06269
-0.2081
-0.199
-0.2014
-9.682e-06
-4.543e-06
-7.186e-07
-8.702e-06
-0.07405
-0.2036
-0.03844
0.1712
-0.08733
-0.2022
-0.2128
-0.2417
8.877e-06
-0.2127
-0.2107
-0.1989
-0.2262
-0.1973
-0.2003
-0.1062
-0.09153
-0.2199
-0.1652
-0.05382
-0.1019
0.3525
0.004842
-0.1204
0.3547
0.2424
-0.001196
-0.2037
-0.2066
-0.01706
-0.1323
0.05595
0.173
-0.001816
-0.2101
-0.2252
-0.0002818
-0.2232
-0.2101
-0.2107
-0.1996
-0.2117
-0.06696
-0.2074
0.0002899
0.2112
-0.2022
-0.2108
-0.211
0.174
0.002556
-0.01038
-0.1732
-0.1993
-0.2068
-0.05152
-0.21
-0.2277
-0.06863
0.4372
-0.09119
-0.2074
-0.2116
-0.2052
-0.2082
-0.09334
-0.1862
-0.03946
0.007931
0.145
-0.003595
0.002167
-0.1787
0.0005633
0.406
-0.2069
-0.1654
-0.2098
-0.04653
0.004531
-0.0956
-0.1987
-0.06907
-0.208
-1.841e-05
-0.005222
-0.4639
-0.2288
0.003651
-0.2507
-0.2266
-0.1991
0.0001619
-0.2051
-0.2126
-0.04176
-0.02008
-0.2035
-0.3757
-0.5248
0.147
-0.105
-0.1988
0.0003096
-0.05484
-0.2273
-0.1691
-0.001959
-0.1001
-0.5044
-0.1836
-0.01169
-0.1057
-0.2248
-0.1914
-0.05163
-0.2085
-0.002793
-0.2093
-0.2675
-0.2092
-0.2115
-0.012
-0.1712
-0.2016
0.1558
0.003596
0.002301
-0.1772
-0.2144
-0.2091
-0.1972
-0.2234
-0.08859
-0.209
-0.22
-0.2024
-0.2102
0.002182
-0.2252
-0.2241
-0.06508
-0.2086
0.2159
-0.1599
0.4964
-0.2108
-0.2354
-0.1983
-0.1472
-0.05093
0.2046
0.04672
-0.09688
0.183
0.006549
-0.4899
0.001858
-0.2091
-0.2195
-0.2088
-0.2048
-0.3923
-0.2089
0.3119
-6.961e-06
0.4574
-0.2371
0.0002141
-0.2085
-0.2017
0.3526
-0.1195
-0.2058
-0.2066
-0.01421
0.04568
-0.2124
0.1516
-0.09202
-0.2502
0.0006735
-0.2095
-0.1019
-0.1971
-0.1583
-0.2013
-0.2088
-0.1098
-0.07472
-0.009532
-0.0289
-0.0007226
-0.1062
0.0859
-0.06828
-0.2105
0.0006673
-0.1531
-0.07358
-0.2197
-0.2233
-0.2109
-0.0002376
0.006592
-0.1061
-0.06726
-0.2877
-0.2106
-0.2114
4.925e-06
-0.05579
-0.05446
6.934e-06
-0.2066
0.004613
-0.03435
-0.2109
-0.2009
-0.2127
-0.2099
-0.1192
0.08534
-0.1414
-0.2107
-0.2238
-0.2032
-0.2055
-0.2136
-0.2111
0.04087
-0.06511
-0.2081
-0.1996
-0.00736
0.1155
-0.2045
-0.1656
-0.219
3.199e-05
-0.07641
-0.1597
0.00746
-0.07288
0.2544
-0.2071
-0.3139
-0.1413
-0.2077
0.1696
-0.2099
-0.1982
0.0004079
-0.1812
0.07479
-0.1079
0.06296
0.002531
0.289
-0.2067
-0.2102
-0.2073
-0.201
-0.2202
0.08679
-0.2098
-0.2089
-0.2268
-0.2064
-0.3322
-0.2195
3.187e-05
-0.2065
-0.1999
0.001358
-0.04136
-0.1476
0.001258
-0.2335
-0.2113
-0.06324
-0.03797
-0.1148
-0.0002442
-0.2021
0.002655
-0.01991
-0.2058
0.1646
-0.07942
-0.002267
0.1156
-0.005689
-0.1395
-0.2068
-0.2077
-0.09583
-0.2099
-0.1074
-0.2046
-0.4341
0.06966
0.000276
-0.2065
-0.2084
0.0004364
-0.05746
0.004597
-0.1996
-0.2094
-0.3942
-0.2106
-0.0007265
-0.2098
-0.1372
-0.2338
-0.2034
-0.2292
-0.1997
0.002202
-0.1964
-0.07166
-0.0132
-0.2218
-0.1958
-0.07246
-0.2205
-0.05573
0.3264
-0.2372
0.0002996
1.102e-05
-0.01798
-0.06501
0.3177
-0.1986
-0.2068
0.01232
-0.101
0.2155
-0.1031
-0.002051
-0.202
-0.1154
-0.1228
-0.0004199
0.3976
-0.2215
-0.1165
-1.294e-05
-0.09494
-0.2066
0.01691
-0.1303
-0.0139
0.04763
-0.2069
-0.2187
0.001763
-0.2068
-0.2086
-0.2279
-0.2109
-0.2237
-0.1236
-0.2092
-0.02376
-0.4162
-0.00416
-0.2093
-0.06297
-0.3082
0.283
0.003467
-0.2503
-0.221
-0.2067
-0.2118
-0.09079
-0.3503
-0.09389
-0.1842
-0.1972
-0.2104
-0.1967
-0.2193
2.787e-05
0.2651
-0.06078
-0.2028
-0.197
-0.2345
0.1322
-0.0174
-0.003879
0.02744
-0.1126
2.628e-05
-0.5001
-0.2085
0.004018
-0.01569
-0.1509
-0.1853
0.00333
-0.2106
-0.2016
-0.1035
0.001667
-0.2239
-0.5021
-0.222
-0.3289
-0.103
-0.1984
-0.2175
0.005735
-0.2075
-0.2197
-0.2083
-0.00167
-0.1459
-0.2087
-0.2047
-0.2112
-0.3487
0.1319
-0.2189
-0.208
-0.2003
-0.2052
0.208
-0.2099
0.00661
-0.05623
-0.01119
-0.2057
-0.002666
-0.2339
-0.1956
0.004022
-0.2188
-0.2064
0.1646
-0.07094
-0.2246
-0.07004
-0.2071
0.09819
-0.01012
0.01054
-0.2198
-0.1972
-0.0001043
-0.2071
0.04546
0.1846
-0.2101
-0.2066
-0.1652
-0.0949
-0.1997
-0.2278
0.001895
-0.2069
-0.2524
-0.4552
-0.117
-0.1405
-0.3406
-0.2159
-0.2189
-0.02093
-0.2152
-0.2082
-0.000254
0.0008388
-0.2068
-0.08463
-0.001881
0.1132
-0.15
0.06663
-0.2107
-0.2298
-0.2092
2.816e-06
0.1108
-0.01889
-0.02412
-2.458e-06
-0.1288
-0.2066
-0.2111
-0.2091
-0.2233
-0.2121
-0.2007
0.000267
-0.2116
-0.2026
0.4933
-0.2344
-0.1143
-0.1985
-0.1256
-0.002144
-0.1978
-0.2109
-0.1172
-0.08956
-0.1979
-0.2124
1.777e-05
0.002634
-0.1284
-0.2002
-0.2109
-0.454
-0.00205
-0.198
-0.2069
-0.1908
0.002446
0.005977
-0.1114
0.03617
-0.2075
-0.2076
0.3952
6.919e-05
0.03907
8.015e-06
-0.2156
0.03155
0.004505
-0.2003
-0.2057
-0.2005
-0.2053
-0.1981
0.01415
0.0002702
-0.2217
-0.04828
-0.005388
-0.2238
-0.3378
-0.2055
0.0002571
-0.06268
-0.1418
0.04613
0.2177
-0.2081
-0.0002355
-0.4716
-0.01191
-0.197
-0.001066
-0.0007105
-0.006364
-0.01738
-0.2187
-0.2062
-0.1095
-0.06135
-0.2092
-0.02243
-0.2029
-0.00928
-0.004366
-0.03245
-0.2225
-0.21
-0.2118
-0.02232
-0.1995
-0.197
-0.224
0.07894
-0.2102
-0.06203
-0.2075
0.1032
-0.1761
-0.2227
-0.1191
-0.2006
-0.1635
0.04389
-3.574e-06
-0.2116
-0.02505
-0.2112
-0.1466
-0.2252
-0.2232
-0.2235
-0.0003486
0.3058
-0.2121
4.759e-05
-0.3898
-0.001944
-0.2105
-0.2162
0.0004256
-0.2298
0.2282
0.001367
0.02358
-0.2076
-0.1978
0.02771
0.1737
-0.07128
-0.1246
-0.003278
-0.1808
-0.2108
-0.02703
0.1745
-0.2034
-0.1191
-0.1761
-0.09734
-0.2213
-0.2078
-0.1998
0.3139
0.006176
-0.08704
0.1479
-0.1241
-0.2118
0.002658
-0.2067
-0.1395
-0.1679
-0.1974
-0.2062
-0.2254
9.235e-05
-0.074
-0.2078
-0.2083
-0.002084
-0.06715
-0.04727
-0.2052
0.2067
0.2034
-0.2082
0.1143
-0.2125
-0.1231
-0.2237
-0.03618
0.0002916
-0.207
-0.0001988
-0.2111
-0.03712
-0.168
-0.2036
-0.2083
-0.1584
-0.2111
-0.189
-0.0003435
-0.001306
-0.09611
-0.1323
-0.1827
-0.2606
-0.2101
-0.05488
0.2349
-0.2239
0.06767
-0.2216
-0.1843
-0.06147
-0.2231
-0.08497
-0.0501
-0.01335
-0.1486
-0.1333
-0.2062
-0.2011
-0.1285
0.003052
-0.1996
-0.1321
-0.002642
-0.177
-0.0525
0.001811
-0.1991
-0.04202
-0.1999
-0.004767
-0.2224
-0.2148
3.502e-05
-0.219
-0.2251
-0.197
-0.2092
-0.2112
0.002356
-0.2283
0.000229
-0.1685
-0.2187
0.4109
-0.03574
-0.2004
-0.1975
0.0008552
-0.002661
-0.03302
0.02065
-0.05737
-0.1059
-0.2386
-0.08307
-0.211
-0.2094
0.0163
-0.429
-0.1698
-0.09596
-0.2103
0.002856
0.03227
0.06426
-0.2281
-0.07875
-0.2083
0.001472
0.4218
-0.2288
-0.03546
-0.209
-0.2243
-0.1708
-0.003755
-0.002914
-0.05565
-0.3284
-0.0883
-0.2155
-0.208
0.01867
-0.1046
-0.04871
6.57e-06
0.2686
-0.1909
-0.1404
-0.2879
-0.207
0.001759
-0.1294
-0.1651
-0.2002
-0.2065
-0.08048
0.04804
-0.223
-0.05686
-0.07617
-0.1049
-0.1819
-0.2068
-6.278e-05
-0.2093
0.09405
-0.1669
0.01571
-0.2076
-0.109
-0.08669
-0.2093
-0.4331
-0.2169
0.4066
-0.2066
0.2491
-0.2191
-0.1292
-0.2272
-0.1398
-0.211
-0.2105
0.08142
0.007571
-0.2106
-0.4037
-0.0156
-0.2173
-0.2245
-0.2063
-0.2061
-0.1181
-0.04775
0.02376
-0.2132
-0.209
-0.1984
-0.2013
-0.2082
0.1178
-0.1432
-0.2029
-0.2066
-0.2181
0.3406
-0.1285
-0.1336
-0.0001316
-0.2171
-0.2118
-0.2133
-0.2068
-0.1275
-0.2176
-0.1791
-0.02929
-0.2289
0.003046
-0.212
-0.2103
-0.05677
-0.08126
-0.2064
-0.07853
-0.1977
-0.2102
-0.175
-0.08405
-0.2108
-0.1265
-0.07309
-0.1982
0.1243
-0.2128
-0.2081
-0.2048
-0.1028
-0.4472
0.00933
-0.01588
-0.001028
-0.211
-0.1216
-0.1973
-0.1293
0.2366
-0.208
0.1038
-0.2078
-0.03628
-0.2066
-0.1572
-0.1334
-0.1213
0.4807
-0.08405
-0.2108
0.002012
-0.2211
-0.2133
-0.2054
-0.2059
-0.001723
0.001298
-0.2154
-0.2102
0.02045
-0.01843
-0.09972
-0.0005222
0.0055
-0.1359
0.0057
0.01641
-0.1724
-0.0003788
0.0156
-0.2094
-0.3683
-0.2314
-0.01902
0.1839
-0.1061
-0.1535
-0.1212
-0.1546
-0.2194
0.03924
0.1137
-0.06723
-0.209
-0.1975
0.003094
0.004525
-0.2047
-0.432
-0.002221
-0.2103
0.003653
-0.2111
-0.21
0.03783
-0.224
-0.1912
0.4835
-0.07438
-0.1607
0.4137
-0.207
0.02522
-0.1388
-0.2087
-0.2005
-0.09401
-0.2204
-0.2064
0.008347
-0.000177
-0.2075
-0.1186
-0.1355
-0.1785
-0.02453
0.04144
-0.2063
-0.02611
-0.04523
0.1401
-0.211
2.918e-05
-1.025e-05
0.0002191
-0.1314
-0.461
-0.2104
-0.1402
-0.2165
3.361e-05
-0.04032
-0.07119
-0.2045
-0.09612
-0.3701
-0.2273
-0.2061
-0.4447
-0.2109
-0.2068
0.2829
-0.2111
-0.2156
-0.207
-0.1341
-0.2109
-0.01907
-0.21
-0.1528
-0.09915
-0.2255
0.1808
-0.2068
-0.2068
-0.206
0.003806
-0.2994
-0.2111
0.001236
-0.2024
-0.001639
-0.06427
-0.09839
-0.05924
-0.2098
0.1336
-0.2354
-0.2067
0.002019
-0.08614
-0.2079
-0.2066
-0.01479
-0.09042
0.0005104
-0.1425
-0.2122
-0.2108
-0.197
-0.2225
-0.2218
-0.03725
-0.2994
0.2982
-0.1799
-4.753e-05
-0.02869
0.03385
-1.529e-05
-0.1971
0.01351
-0.3188
-0.2117
-0.1968
0.003457
-0.2361
-0.1974
-0.1855
-0.08094
-0.1141
-0.2066
-0.2052
-0.04731
-0.1872
-0.2134
-0.1453
-0.01333
-0.2082
-0.2167
-0.01914
-0.205
-0.21
-0.1988
0.3396
-0.001224
-0.1997
0.004407
-0.2082
-0.05338
-0.2073
-0.1924
-0.09323
-0.002186
-0.1684
0.4244
-0.1899
0.00265
-0.08193
-0.2031
-2.604e-06
-0.07998
-0.09795
-0.2217
0.003895
0.003779
-0.2144
-0.006322
-8.691e-05
-0.002771
-0.2119
0.1185
-0.1367
-0.1792
-0.129
-0.1646
-0.1728
0.0021
-0.2068
-0.03346
-0.04568
0.01068
-0.1537
-0.1595
0.05695
-0.2087
-0.2138
-0.2147
-0.208
-0.2035
0.05505
-0.1978
-0.2117
-0.2078
-0.2095
-0.2033
-0.002073
-0.2297
-0.2068
-0.01356
0.365
-0.1052
-0.1237
-0.2069
-0.08481
-0.09326
0.04267
-0.1228
-0.3611
-0.2196
-0.003204
0.08598
5.158e-05
-0.207
-0.2065
-0.2207
-0.2558
-0.2004
-0.1467
1.533e-05
0.01513
-0.2365
-0.03544
-0.004298
-0.1202
-0.2063
-0.2156
-0.2137
0.4307
0.1277
0.1007
0.2114
-0.1912
-5.141e-07
-0.1969
-0.2098
-0.2095
-0.08351
-0.1365
-0.01433
-0.2086
-0.2068
-0.02211
-0.2449
-0.1161
-0.07292
-0.2539
-0.1461
0.2121
0.006403
0.07185
-0.1823
-0.2047
-0.2188
-0.2122
-0.05708
-0.2106
-0.2083
-0.1519
-0.06463
-0.09026
-0.06845
-0.001132
-0.2011
-0.2642
-0.2002
0.0651
-0.4346
0.00191
-0.003072
-0.209
-0.00596
0.001432
-0.3361
1.602e-05
-1.038e-05
0.04739
-7.866e-05
-0.2075
-0.211
-0.18
-0.2044
-0.05663
0.0009159
0.003762
-0.216
-0.1161
0.2018
-0.1268
-0.2087
0.0005037
-0.2094
-0.2277
-0.1801
-0.1747
0.003129
0.01244
-0.3415
-0.002066
0.001248
-0.1984
-0.07522
-0.02848
0.0278
-0.2212
-0.001742
-0.001124
0.002156
-0.2004
-0.1126
-0.2106
-0.2118
0.06902
-0.1459
-0.2053
-0.2032
-0.06221
-0.2055
-0.1311
-0.2129
-0.0005285
-0.05507
-0.2082
-0.2504
0.0009922
-0.1975
-0.2066
-0.2108
-0.1999
-0.04822
-0.2112
-0.08886
-0.05018
-0.1997
0.003764
-0.4867
-0.01804
0.06555
0.003017
-0.3415
0.009177
-0.0882
-0.04845
-0.1984
-0.208
-0.2011
-0.2037
0.0002111
-0.5214
8.389e-05
-0.1966
-0.1273
-0.2097
0.06618
-7.073e-05
-0.4076
0.003609
-0.1278
-0.2095
-0.2173
-9.807e-05
0.012
0.4632
-0.01899
-0.1976
-0.2144
-0.2223
-0.2117
0.3017
-0.2161
-0.4817
-0.1381
0.00131
-0.2084
0.3639
0.008283
0.002575
-0.2279
-0.2093
0.3697
-0.2899
0.3964
0.005059
-0.1679
0.005592
0.007961
0.001279
-0.25
-0.02462
-0.207
-8.471e-06
-0.2075
-0.0135
-0.2219
-0.1803
-0.418
-0.03326
-0.2119
0.2648
-0.07661
-0.09372
-0.202
0.00454
-0.171
0.001341
-0.2107
0.0904
-0.001916
-0.1359
-0.2381
-0.1981
-0.1131
-0.2072
-0.1405
-0.04051
-0.2044
0.1959
-0.268
-0.2204
-0.1979
-0.2068
-0.208
-0.2217
-0.2111
-0.2098
-0.1996
-0.1941
0.0003841
-0.2208
-0.0001855
0.0146
0.06138
-0.08494
-0.2033
-0.4462
-0.2073
-0.1999
2.154e-05
-0.09929
-0.2064
-0.3097
-0.2085
-0.003061
-0.2083
-0.2198
-0.09446
-0.0001122
-0.2225
-0.09903
-0.2067
-0.1873
-0.2705
0.2108
0.3317
-0.2099
-0.2176
-0.2163
-0.2034
-0.205
0.02562
-0.237
0.1705
0.01894
-0.2069
-0.2102
-0.2096
-0.2141
-0.231
0.003842
0.1864
-0.2849
-0.1515
0.1636
0.1785
-0.2024
-0.2261
-0.0005168
-1.708e-05
-0.1871
-0.2109
-0.1004
0.002678
-0.1838
-0.2098
0.03602
-0.03373
0.000952
-0.144
-0.164
-0.2111
-0.2348
-0.2107
-0.2127
-0.2011
-0.2033
-0.2194
0.03855
-0.2069
0.4061
-0.2065
-0.1394
-0.1068
-0.2111
-0.002299
-6.935e-05
-0.2102
-0.2091
-0.2075
-0.2065
-0.2099
0.006394
-0.1977
-0.2231
-0.1726
0.01269
-0.527
-0.1971
-1.91e-05
-0.05716
0.01881
-0.06002
-0.1994
-0.2119
-0.02925
-0.2674
-0.2649
0.004526
-0.2218
0.01113
-0.2122
-0.2006
-0.01941
-0.2067
-0.2217
0.09221
0.08726
-0.05358
-0.1529
-0.006175
-0.1112
-0.205
-0.383
-0.2097
-0.0008282
0.007609
0.0002548
-0.2066
0.005342
-0.209
-0.1994
0.09752
-0.2066
-0.209
0.004105