/*--------------------------------*- C++ -*----------------------------------*\
  =========                 |
  \\      /  F ield         | OpenFOAM: The Open Source CFD Toolbox
   \\    /   O peration     | Website:  https://openfoam.org
    \\  /    A nd           | Version:  8
     \\/     M anipulation  |
\*---------------------------------------------------------------------------*/
FoamFile
{
    version     2.0;
    format      ascii;
    class       surfaceScalarField;
    location    "35";
    object      phi;
}
// * * * * * * * * * * * * * * * * * * * * * * * * * * * * * * * * * * * * * //

dimensions      [0 3 -1 0 0 0 0];

internalField   nonuniform List<scalar> 
189008
(
3.453e-08
-3.453e-08
4.556e-09
-4.557e-09
8.942e-09
-8.942e-09
1.295e-08
-1.295e-08
-1.221e-06
1.221e-06
1.323e-08
-1.323e-08
4.639e-06
-4.639e-06
-1.803e-06
1.803e-06
-1.091e-06
1.091e-06
4.042e-07
-4.042e-07
5.171e-06
-5.171e-06
-2.049e-06
2.049e-06
-4.534e-09
4.534e-09
-1.458e-08
1.458e-08
3.052e-05
-4.019e-05
9.669e-06
3.032e-06
-3.449e-06
4.174e-07
-2.912e-08
2.912e-08
-0.0001188
-0.002375
0.002493
-0.00138
0.0007255
0.0006543
-3.606e-06
3.876e-06
-2.7e-07
0.0003246
-0.0002757
-4.885e-05
-3.377e-08
1.357e-08
2.02e-08
-0.003236
0.01047
-0.007238
1.229e-05
0.000284
-0.0002963
-2.43e-08
-9.482e-09
-0.0001317
7.474e-05
5.698e-05
-8.1e-06
8.912e-06
-8.118e-07
-8.919e-06
8.187e-07
0.0001039
-8.149e-05
-2.238e-05
0.003574
-0.01103
0.007459
-2.569e-05
-0.0001177
0.0001434
-3.516e-05
-9.656e-05
2.703e-05
-1.865e-05
-8.383e-06
-1.37e-05
8.27e-06
5.43e-06
0.01185
0.01082
-0.02267
7.892e-06
1.914e-05
3.178e-05
0.000185
-0.0002168
-0.0008071
0.001195
-0.000388
-2.804e-05
0.0003531
-0.0003251
-2.718e-05
3.092e-05
-3.737e-06
-0.0009869
-0.0003929
0.001825
-0.003612
0.001788
0.0004519
-0.004318
0.003866
1.297e-08
-1.297e-08
0.001705
-0.001824
-7.229e-06
-6.471e-06
6.907e-05
3.48e-05
-0.0004062
0.0004231
-1.695e-05
-0.0004778
0.0005734
-9.558e-05
-1.847e-05
0.0002843
-0.0002658
1.054e-06
1.978e-06
-0.01383
-0.03085
0.04468
-3.051e-05
-1.468e-05
4.519e-05
-0.01244
0.01104
0.001395
1.083
-0.128
-0.9546
0.0005445
-0.0004406
-0.0001039
-0.1468
1.229
0.0123
-0.007632
-0.004667
-0.3119
0.01831
0.2936
-0.005428
-0.007007
-0.002297
-1.316e-05
0.00231
-0.0002896
0.00067
-0.0003804
-0.0001766
0.00138
-0.001204
-0.81
0.955
-0.145
-1.558e-05
3.533e-05
-1.975e-05
-0.0002966
-0.003288
0.003585
-0.02813
0.02233
0.005804
0.001632
-0.001358
-0.0002737
0.0004564
0.001175
-1.277
0.4801
0.7968
-4.052e-05
-0.0001755
0.000216
3.413e-06
5.5e-06
-0.0009032
-0.0004576
0.001361
-0.1152
-0.1967
-0.2732
0.5155
-0.2423
-3.592e-06
-5.327e-06
-0.05158
0.09137
-0.03979
-0.0003262
0.0003101
1.618e-05
0.0002939
0.0002506
0.1598
-0.634
0.4743
-0.0001008
7.844e-05
2.237e-05
-1.558e-06
-2.047e-06
1.343e-05
1.556e-05
-2.899e-05
5.405e-06
2.427e-05
-2.967e-05
9.561e-05
-0.0002821
0.0001865
-0.0001899
0.0003103
-0.0001204
-0.0004289
0.0008055
-0.0003767
-2.309e-06
1.481e-07
2.161e-06
-0.003192
0.002896
-0.000344
0.0005992
-0.0002552
0.1867
-0.02169
-0.1651
-0.004947
-0.006378
0.01133
-0.000269
0.0008675
-0.0005985
0.0001884
0.0001361
8.614e-05
-8.785e-05
1.706e-06
0.0294
0.01434
-0.04374
0.003246
-0.001421
0.0001408
-0.0001424
1.586e-06
-0.0002407
-3.611e-05
0.0002768
-0.01857
-0.009566
0.6861
-0.5263
-2.827e-06
-0.000475
-5.039e-05
-0.0001578
0.0002082
0.004403
-0.005346
0.0009424
7.993e-05
-0.0002698
-0.0003053
6.464e-05
-0.0008514
0.001212
-0.0003609
-0.9998
-0.2772
-0.001268
0.000628
0.0006397
-1.154
0.8761
0.2777
5.261e-05
-2.21e-05
-1.898e-06
-4.113e-07
-0.0001861
2.616e-05
0.00016
0.000597
-0.0009491
0.000352
-0.2116
0.09551
0.1161
0.000641
0.002545
-0.003186
-0.1065
0.0579
0.04858
0.1657
-0.439
0.0228
-0.07438
2.972e-07
-2.371e-07
-6.018e-08
-1.253
0.09903
7.606e-06
1.362e-05
-2.123e-05
-0.0003977
-0.0007407
0.001138
0.0142
-0.01215
-0.002045
-6.733e-05
-3.347e-05
9.383e-05
-8.727e-05
-6.561e-06
-0.0003323
-0.0002029
0.0005351
0.0878
-0.1026
0.0148
-0.0001072
4.34e-05
6.383e-05
-0.0003739
0.0003037
7.021e-05
0.0001489
-4.667e-05
-0.0001023
7.248e-05
-2.845e-05
-4.403e-05
-0.0003434
-0.001157
0.0015
-0.0001332
-0.000193
7.147e-08
-5.597e-08
-1.551e-08
0.0001556
-6.682e-06
-0.004328
0.03606
-0.03173
-0.0001225
0.0002439
-0.0001215
-0.000102
0.000117
-1.505e-05
0.03417
-0.05487
0.0207
0.009373
0.0002783
-0.009652
-0.04722
-0.04272
0.08994
-6.141e-05
9.773e-05
-3.631e-05
-0.0003484
0.0002067
0.0001417
-4.916e-05
1.865e-05
0.001461
-0.0005752
-0.0008862
-2.226e-05
-8.023e-06
3.029e-05
-0.02784
-0.7822
8.927e-05
-1.678e-05
0.0001398
-0.0002041
6.43e-05
0.002584
-0.003804
0.001219
0.0006894
-0.000193
-0.0004965
0.00269
-0.003268
0.0005781
-0.009006
0.000151
0.008855
0.0001864
-0.0003767
0.0001904
0.0002721
-0.0001765
0.008141
0.004157
0.00038
-0.0003121
-6.786e-05
-7.143e-05
-0.0003348
6.126e-05
-0.0001166
5.529e-05
-0.0001634
0.0002988
-0.0001355
-1.619e-05
1.619e-05
0.1925
-0.005799
0.0001888
-5.719e-05
-0.0001316
6.98e-05
-0.0001486
7.876e-05
1.234e-05
-2.792e-05
-0.0001792
1.668e-05
0.0001625
0.000169
0.001668
-0.001837
-0.0001777
0.0001432
3.448e-05
-0.04133
0.03381
0.007525
6.251e-07
2.639e-06
-3.264e-06
-0.000196
-0.0001524
-0.00464
0.001948
0.002692
-0.002756
0.0008715
0.001885
1.021
-1.194
0.1728
-6.578e-05
4.457e-05
2.121e-05
-0.0007875
0.0004161
0.0003714
-5.772e-05
-4.951e-05
-0.000253
0.0004886
-0.0002356
0.1194
-0.1477
0.02832
-0.0018
-0.000956
-0.1236
-0.001988
0.1256
-3.327e-05
4.095e-05
-7.678e-06
-4.419e-05
-2.16e-05
-0.0001596
-0.0002143
0.0003655
-0.0006551
0.0004973
-0.00683
0.006333
-0.0001887
0.0007857
0.0003025
-0.0002903
-0.004484
0.0857
-0.08122
-7.267e-06
5.004e-05
-4.277e-05
-3.952e-05
-5.604e-06
4.512e-05
-0.04358
0.03925
0.0007551
-0.0008896
0.0001345
4.236e-08
0.0001397
0.0003538
-0.0004935
-1.469
1.198
0.271
-1.464
1.194
0.2702
8.898e-07
1.545e-07
-1.044e-06
-0.1669
0.1319
0.03501
0.2041
-0.0379
-0.1662
-0.05799
0.04911
0.008882
0.02704
-0.06941
0.04237
0.0001953
-0.0001635
-3.613e-08
3.613e-08
0.0002258
-0.0007723
0.0005466
0.02647
-0.007792
-0.01868
0.002777
-0.0006475
-0.002129
0.02226
-0.01869
-0.2087
-0.002922
0.003228
-0.02178
0.01855
-0.0002899
0.0002171
7.282e-05
-0.06004
0.2033
-0.1432
-8.056e-05
-9.711e-05
2.356e-06
-5.513e-05
5.278e-05
7.621e-07
-9.965e-07
2.344e-07
-4.608e-06
4.165e-06
4.431e-07
0.003507
-0.00211
-0.001396
-2.89e-05
0.0001012
-7.234e-05
0.02243
0.004042
-0.0006826
0.0002624
0.0004202
-0.4709
0.2223
0.2486
0.0006085
8.096e-05
2.332e-05
-2.834e-05
5.023e-06
5.69e-05
3.194e-05
-8.884e-05
-8.735e-06
7.162e-06
1.573e-06
-0.0001263
0.0001961
0.0003881
-0.001195
3.07e-05
-3.162e-05
9.242e-07
0.0003479
-0.0003335
-1.441e-05
-0.000276
7.099e-05
0.000205
-0.04829
-0.07528
-0.001422
0.0005193
-3.385e-07
4.111e-07
-7.257e-08
-0.0001669
-0.0001091
-0.0241
0.019
0.005102
5.702e-05
0.0001318
2.436e-07
-2.436e-07
0.2254
-0.02138
-8.828e-05
1.738e-05
7.091e-05
-6.686e-05
2.734e-05
-2.427e-05
5.049e-05
-2.622e-05
0.0002855
-0.0001977
-8.78e-05
0.0001854
0.0001945
0.0002796
5.476e-05
-0.0003344
1.924e-07
1.049e-07
0.0006873
0.0002994
-0.0009867
9.408e-06
-8.51e-06
-8.974e-07
1.223e-06
-1.223e-06
0.1969
-0.9675
0.7706
-0.0004664
-0.001776
0.002242
-3.526e-05
8.644e-05
-5.118e-05
0.002262
-0.001071
-0.001191
-0.000351
0.0001181
0.0002329
-0.0001005
0.0004478
-0.0003473
0.0007063
-0.0004111
-0.0002952
0.1163
-0.02847
5.431e-05
-0.0001866
0.0001323
-0.0001975
0.001453
-0.001256
-0.009173
-0.0005325
0.009705
0.0005815
-0.00032
-0.0002615
-0.06569
0.09829
-0.0326
-0.01364
0.008689
-0.08768
0.04047
-3.779e-05
-0.0001836
0.0002214
-3.76e-06
-3.101e-05
3.477e-05
3.115e-05
-5.988e-05
2.873e-05
0.0001172
-0.0002785
0.0001613
-0.0009895
-0.0008279
0.001817
0.002816
-0.005605
0.002789
-0.0001813
-5.453e-06
0.0001868
0.8561
0.1647
0.0004159
-0.0005188
0.0001029
-9.458e-05
6.293e-06
0.001088
-0.001851
0.0007634
5.539e-05
-6.265e-05
-0.0001
-8.613e-05
0.0006744
-0.0007809
0.0001065
-0.3777
-0.4318
0.8095
0.0007919
0.001312
-0.002104
-0.5427
-0.3512
0.8939
0.0454
-0.016
0.004451
-4.788e-05
-0.09021
-0.1662
0.2565
0.04483
0.1211
-0.166
9.277e-08
-2.912e-08
-6.365e-08
-0.0001212
9.948e-05
2.167e-05
-0.07431
-0.1022
0.1765
0.0007871
-0.0005772
-0.0002099
0.1731
-0.0537
-6.608e-06
0.002696
-0.002462
0.005513
-0.003051
-0.01117
-0.01294
0.001014
0.001388
-0.002402
-0.2071
0.2381
-0.03097
-0.0005262
0.0009001
-0.000374
-0.0001092
-7.374e-05
0.000183
1.088e-05
2.093e-06
-1.297e-05
0.0001108
0.0001747
0.003823
-0.001006
-7.704e-05
-0.0001257
0.0002028
-0.004041
0.001191
0.00285
-0.001195
-0.001861
0.003055
0.003762
-0.003121
-4.738e-05
7.981e-05
-3.243e-05
0.0005729
0.000114
-0.0006869
0.002534
0.0002431
-0.1837
0.1237
0.000418
-9.144e-05
-0.0003266
-0.003196
0.003229
-3.324e-05
0.0009242
7.462e-05
-0.0009989
-3.505e-07
5.067e-06
-4.717e-06
-0.0003522
0.0002377
0.0001145
-0.8569
0.3142
-0.2577
0.1345
0.1233
0.0002821
0.0001214
-0.0004035
0.0004638
-0.0004375
-2.624e-05
-6.25e-05
-9.998e-05
0.0001625
0.01788
-0.008961
-0.008918
0.1918
-0.1815
-0.01025
0.009249
-0.01248
-0.000202
-1.245e-05
0.0002145
0.09501
-0.05317
-0.04184
0.001596
0.0006662
0.0004402
-0.0001581
1.907e-05
0.0001678
-0.0001868
-0.01628
0.03215
-0.01587
7.138e-06
-4.354e-05
3.64e-05
0.000366
-0.0001374
-0.0002286
-0.001711
0.000519
0.001192
-0.0008832
0.0005211
0.0003621
0.1933
-0.1485
-0.005861
0.01771
-0.5004
-0.969
-0.4984
-0.9656
-0.01103
0.002025
-0.001029
0.00084
0.000189
-0.004434
-0.0002056
-0.0003361
-0.0005471
-7.788e-06
-7.427e-05
8.206e-05
-0.01201
0.04618
0.0024
0.001107
3.93e-05
-1.667e-05
-2.263e-05
-4.991e-06
-3.18e-05
3.68e-05
-0.0005469
0.0002048
0.0003421
0.0002177
0.0005695
-3.692e-05
1.545e-05
2.146e-05
9.043e-05
-0.0001121
2.168e-05
0.0002624
-0.0001873
-7.51e-05
1.814e-05
-7.707e-05
5.894e-05
-0.0003583
0.000287
7.132e-05
0.0006891
-0.0008027
0.0001135
-1.857e-06
5.849e-05
-5.663e-05
5.039e-05
-0.001193
-0.02756
0.02875
-4.927e-05
4.382e-05
5.453e-06
-0.0002738
-7.721e-05
-0.0002053
-0.001128
0.001333
0.3011
-0.4091
0.108
0.0003243
4.169e-05
0.000252
-0.0004717
0.0002197
-0.001626
0.001449
-0.002658
-0.003203
0.005861
0.0005529
-0.0005766
2.368e-05
-5.225e-05
0.0004073
-0.0003551
0.3806
0.1363
-0.5169
-0.1189
-0.04799
-0.1714
0.2408
-0.06934
-1.72e-05
2.036e-05
-3.158e-06
0.4305
-0.8082
-0.001496
0.001621
-0.0001251
0.05979
0.03522
8.345e-05
-0.0001187
3.961e-05
-0.0003285
0.0002889
0.1169
-0.1214
0.0305
-0.0137
-0.01679
-8.377e-05
0.0003572
-0.0002734
1.918e-07
1.625e-07
-3.543e-07
-0.0002133
0.0004062
-0.0001929
0.9197
-0.689
-0.2308
0.001218
0.001622
-0.00284
2.177e-05
7.206e-05
-0.0003709
0.0002722
9.876e-05
0.006454
-0.004931
-0.001522
-0.0855
-0.02097
6.052e-06
8.286e-07
-6.88e-06
0.01581
-0.02023
0.004422
1.539e-06
-2.872e-05
-0.0003237
0.0004715
-0.0001478
0.0001253
-0.0005928
0.0004675
0.246
-0.2551
0.009095
0.006021
-0.005125
-0.0008957
3.987e-06
-1.665e-05
1.266e-05
0.0001343
0.0003263
-0.0004606
-0.0003968
0.0004364
-3.959e-05
-7.293e-05
0.0001467
-7.374e-05
0.004014
0.002007
-0.0001726
0.0001469
-0.02265
0.02146
0.00927
-0.07496
3.136e-05
-5.119e-05
1.983e-05
-0.5076
0.03668
-0.0003089
-1.423e-05
0.0003231
-5.662e-05
2.335e-05
-0.0008076
0.01662
-0.004465
0.003545
0.00092
-0.0001026
0.0003834
-0.0002808
-0.002128
0.002102
2.509e-05
0.1112
0.4876
-0.5988
0.0002658
-0.0005188
-0.0002855
-0.0001973
0.0004828
-0.0003081
-3.334e-06
0.0003114
0.001267
0.008107
-2.784e-05
-0.0002884
0.0003163
-0.0011
0.0007027
2.998e-05
5.617e-05
-0.0002729
0.0002294
4.357e-05
-0.0002155
3.418e-05
-0.000117
0.002221
-0.002104
-0.0006536
0.0001133
0.0005404
-0.0002072
2.809e-05
-1.208e-05
1.122e-05
8.562e-07
-6.329e-05
6.791e-05
-4.613e-06
-0.6753
0.8722
0.0004883
-0.0001404
0.007922
-0.01067
0.002752
-0.003594
0.004046
-0.01234
0.00067
0.01167
-3.471e-05
1.045e-05
-0.01103
-0.007383
0.01842
-1.274
1.436
-0.1616
8.693e-05
-8.771e-05
7.858e-07
-5.566e-05
-2.966e-05
8.531e-05
0.007396
0.01092
-0.01831
0.003091
-0.002978
-0.000113
0.5725
-0.1919
0.001047
-0.002074
0.001026
-8.164e-06
3.487e-05
-2.671e-05
-0.06039
0.04657
-0.02558
-0.1815
0.7018
-0.6557
-0.0461
0.000415
-0.0004335
0.06639
-0.03033
-0.0003558
-0.0001215
0.0004773
0.05201
-0.05479
0.002783
1.878e-05
0.000122
-0.009534
-0.1345
0.1441
0.0004396
-0.0003215
-0.000118
0.05485
-0.2263
-0.0001507
-0.0001393
0.0002396
-0.0002655
2.591e-05
-0.0003955
0.000232
0.0001635
-0.00136
0.003039
-0.001679
-1.002e-05
1.911e-05
-9.093e-06
-0.01963
0.008154
0.01147
0.0003245
-0.000172
-0.0001526
0.0001615
5.118e-05
-0.0002127
4.586e-05
-5.104e-06
-4.076e-05
0.0003666
-8.907e-05
-0.0002775
0.0001079
0.007761
-0.007869
-0.002495
0.002152
-2.691e-05
5.483e-06
2.143e-05
8.217e-05
0.0001549
-0.0002371
0.001778
-0.001593
-0.0001849
7.638e-06
-3.455e-05
0.3525
-0.9426
0.5902
0.1185
-0.0002158
-0.1183
-0.0002471
0.0001034
0.0001437
2.851e-05
-3.08e-05
2.293e-06
-1.54
0.1227
1.417
0.0004847
-0.0002893
-0.0001954
-0.002101
0.01141
-0.009307
0.005147
0.00905
5.459e-05
0.0004092
0.03157
-0.01717
-0.0144
1.411
-0.2682
-1.143
5.587e-05
-0.0002637
0.0002078
-0.01153
0.009425
4.808e-05
-4.24e-05
-5.686e-06
-6.73e-05
4.592e-05
2.138e-05
9.092e-05
-6.497e-05
-2.594e-05
0.000369
-3.167e-05
-0.0003373
-3.509e-05
5.502e-06
2.959e-05
-0.0002047
-0.0001476
-0.000733
7.867e-05
0.0006543
0.0009367
0.002155
0.0001866
-7.329e-05
-0.0001133
-0.125
0.2549
-0.1299
-0.0001005
0.0001618
-0.1025
0.08373
0.01879
0.0006945
-0.0005697
-0.0001248
0.000415
-0.0008439
6.359e-05
-5.752e-05
-6.071e-06
0.0002469
-0.001451
0.001204
-8.903e-09
-2.722e-08
-0.000158
7.476e-05
8.328e-05
-0.000418
0.00076
-0.000342
0.03103
-0.01865
-0.01238
0.00181
-0.002314
0.0005037
-0.2874
0.2319
0.05548
6.727e-05
2.365e-05
0.1163
0.002278
0.0001457
1.81e-05
-0.0001638
0.0004343
-0.0002946
-5.149e-08
5.149e-08
7.754e-08
-2.259e-08
-5.495e-08
7.621e-08
-7.051e-08
-5.705e-09
1.196
-0.8185
-0.3779
-2.474e-05
-2.453e-05
3.459e-05
0.0004365
-0.0004711
-0.1449
-0.1128
-0.0005755
-2.865e-07
0.0005758
-0.0002775
0.0008634
-0.0005859
-0.000138
0.0001518
-1.378e-05
0.003452
-0.0003001
-0.003152
-4.175e-06
0.0002438
-0.000339
-5.65e-05
0.0002902
0.0001946
6.851e-06
-6.353e-06
-4.984e-07
-0.4373
0.7897
-0.0002267
0.0001372
8.946e-05
-3.032e-08
2.817e-08
2.152e-09
0.0004041
-0.0004582
5.406e-05
0.0001981
-4.453e-05
-0.0001536
4.794e-06
-4.169e-06
0.06377
-0.179
0.003439
-0.0008551
-0.05105
0.07809
-0.0001237
0.0002059
0.04197
0.2468
-0.2888
-0.0001534
3.603e-05
0.0001173
-3.95e-05
-5.904e-05
9.854e-05
3.35e-05
-3.173e-05
-1.775e-06
1.527
-0.9024
-0.6242
-0.0001965
-5.063e-05
0.009596
0.003988
-0.01358
-7.409e-07
5.712e-07
1.697e-07
-0.0006522
-2.829e-05
0.0006805
0.0001178
-8.187e-06
-0.0001096
0.0003658
-0.0001809
-0.0001849
-0.1071
0.1028
0.00434
1.593e-05
-7.012e-05
5.42e-05
0.0009341
0.0007155
-0.00165
-0.8037
-0.7361
0.002413
-0.004604
-6.572e-05
0.00467
-0.0002221
0.0001129
0.0001891
0.0003638
1.948e-07
2.831e-05
3.683e-05
-5.8e-06
-3.103e-05
-0.0004326
0.0001089
-0.003015
0.003629
-0.0006136
0.0006939
1.622e-08
-0.0006939
0.0001059
-0.00021
0.0001041
2.402e-05
6.29e-05
0.1127
0.05502
-0.1677
-4.005e-05
2.976e-05
1.028e-05
1.94e-05
-0.0001024
8.297e-05
0.0002338
-0.0002583
2.449e-05
0.0009337
-0.001982
0.001048
0.0001218
-0.0002216
9.977e-05
-0.791
0.1143
0.6767
-0.7882
0.6298
0.1584
0.002177
-0.01135
-3.461e-05
-2.31e-06
-0.0005421
-0.001214
0.001756
0.1387
-0.2087
0.07003
1.472
-0.6489
-0.8235
-0.001482
0.002414
-0.0009316
0.0001763
-0.0002569
8.061e-05
-0.0004726
0.0001841
0.0002885
-0.0007056
-2.741e-05
3e-05
2.515e-06
-3.252e-05
-8.795e-06
8.2e-06
5.951e-07
-0.003127
0.002989
0.0001378
-0.1408
0.09998
0.04078
1.401
-1.278
-0.1229
-3.819e-05
1.908e-05
1.911e-05
-7.723e-05
-0.0001743
0.0002515
0.0004924
-0.001508
0.001016
0.3134
0.5222
-0.8356
3.166e-06
6.242e-06
0.002295
-0.002677
0.0003814
-5.645e-05
5.571e-05
7.466e-07
0.4879
-0.000165
0.0001885
-2.354e-05
-0.02681
0.1655
0.0001868
-0.0002894
-0.0001033
4.092e-05
6.238e-05
0.0006978
-0.0005549
-0.0001429
0.979
0.1618
-1.141
-1.09e-05
-4.248e-05
5.338e-05
0.0004002
0.0001812
-3.897e-05
2.278e-05
0.3909
1.021
0.0003487
-0.0012
-3.437e-06
-1.172e-06
0.3955
0.3063
-0.00171
-0.002755
-0.1643
0.004902
0.1594
-0.0002488
-0.0002865
0.0005353
0.0001874
-7.93e-05
-0.0001081
-0.2801
0.1899
2.801e-05
-2.553e-05
-2.481e-06
0.0001406
0.0002548
-0.0003954
-8.764e-07
8.742e-06
-7.866e-06
-3.418e-05
-3.027e-05
6.444e-05
-6.341e-05
1.95e-05
4.391e-05
-0.0001045
-0.0002539
-0.0001228
-0.0002481
0.0001326
0.0001808
-0.0003134
0.0004232
-0.0004512
0.0006
-0.000869
0.0003757
-0.0005802
0.0002045
7.118e-05
-8.021e-05
9.031e-06
-7.66e-06
2.15e-05
-1.384e-05
0.0001616
-0.0001204
-4.123e-05
-0.6001
0.9135
0.0004163
-0.0002895
-0.0001268
0.1085
-0.1943
0.08588
-0.0004904
-5.647e-05
-0.1239
0.03462
0.08932
4.972e-05
-0.0001111
-0.342
-0.9323
-0.1524
0.07804
-0.002591
-0.005132
0.007723
-0.0003223
-0.0003314
-0.0001097
-8.047e-05
0.0001901
-1.04
0.1279
0.9121
1.107
-0.899
-0.2081
4.853e-05
-1.783e-05
1.498e-05
7.051e-06
-2.203e-05
-1.404e-05
2.747e-05
-0.0002553
9.403e-05
0.0001613
0.0007154
-0.0002338
-0.0004816
0.0002963
-0.0006521
-0.0002079
0.0003076
-9.975e-05
-0.0007232
0.0004377
-6.275e-05
3.095e-05
-1.569e-05
4.235e-05
-2.666e-05
-1.566e-05
-4.411e-06
2.007e-05
-1.16
0.1203
1.383e-05
3.304e-05
-4.687e-05
5.634e-06
-5.409e-05
4.846e-05
-2.932e-05
-0.005049
0.005079
0.009217
-0.005789
-0.003428
0.1783
-0.2401
0.06181
1.029
0.4429
0.0003294
-0.0003103
-6.028e-06
-9.596e-05
5.445e-05
0.0001322
3.242e-06
-2.177e-06
-1.066e-06
-0.07605
-0.04789
-0.9852
-0.4034
1.389
-5.855e-05
-4.345e-05
0.000102
-6.071e-05
1.303e-06
5.941e-05
-0.05126
-0.006726
9.286e-06
1.132e-05
-2.061e-05
0.0146
-0.002216
-0.01239
-0.03582
0.08809
-0.05228
-5.573e-05
1.966e-05
3.606e-05
0.002321
-0.002859
0.0005385
-5.388e-05
5.951e-05
0.004615
-0.009319
0.004704
-2.297e-08
2.297e-08
-1.101e-05
2.276e-06
5.304e-05
0.0003136
0.0002383
8.623e-05
-6.394e-05
-5.721e-05
4.024e-05
1.668e-05
-5.692e-05
-0.0001587
-6.293e-06
-2.058e-05
3.807e-05
-1.749e-05
0.05644
0.006804
-0.06324
9.161e-05
-3.266e-05
-5.894e-05
7.598e-07
4.741e-06
-5.501e-06
-7.014e-05
-0.0002387
0.7436
-1.068
0.3247
0.0008182
-0.0001438
-0.004766
0.004175
0.0005911
0.001395
-0.003155
0.00176
1.077
0.4499
-0.02593
0.7695
4.694e-07
-4.765e-07
7.068e-09
0.02356
0.007464
0.0002118
-0.0003679
0.0001562
3.559e-05
-3.554e-05
-4.464e-08
-0.0003127
0.0005525
-0.0002398
0.0004263
-8.286e-06
0.004021
0.002853
-0.006874
0.0001264
-6.954e-05
0.003581
-0.006646
0.003066
0.0006038
-0.0005155
-8.822e-05
-0.1494
-0.199
0.3484
1.05
-0.04434
-1.005
-0.002202
-0.0004494
0.002652
-0.00108
0.009002
5.822e-06
-2.302e-05
-0.001629
0.003024
0.0001948
-0.0002159
2.114e-05
0.0008383
-0.0002757
-0.0005626
0.0002092
0.0001206
-0.0003298
-0.02001
0.02324
0.003435
-0.006092
-1.125
-0.3861
1.511
-6.479e-05
0.0001214
-5.658e-05
0.023
0.008573
-0.0006372
0.0004829
0.0001543
4.127e-08
-0.002224
0.0006452
0.001579
-0.0004355
0.0003977
0.0001529
-0.0003663
1.258
-0.2788
-0.001439
0.001629
-0.0001902
-0.000207
-0.0003157
0.0005228
-7.595e-06
7.848e-06
-2.526e-07
-0.0006078
-0.0004642
0.001072
0.0002285
3.265e-05
-0.0002612
-4.092e-05
-2.183e-05
-6.994e-05
0.0002097
-0.0001315
-0.0001415
0.000104
-0.0003421
0.0002381
0.0005204
0.0002931
-0.0008135
0.0003761
-0.0004766
0.001031
-0.001754
0.0007233
-0.003406
0.0002101
8.804e-05
-0.0004203
0.003154
-0.006023
0.002869
-7.067e-08
7.067e-08
-0.001023
-0.003743
-0.06604
0.0247
0.0001412
-0.001096
0.0009546
0.0001695
0.0002992
-0.0004687
1.564e-06
0.0007111
-0.0007127
0.1017
0.3719
-0.4737
-2.634e-05
1.899e-05
7.35e-06
6.66e-05
0.0006226
-0.0004279
-4.467e-05
-1.51
0.5252
8.384e-07
2.404e-06
-7.979e-05
1.65e-05
0.0001636
-0.0001872
2.363e-05
-0.3882
-0.6377
1.026
2.411e-06
-2.299e-05
9.433e-05
-0.0001137
1.933e-05
1.25e-05
-3.888e-05
2.638e-05
1.49e-05
-6.326e-05
4.836e-05
-1.198
0.8102
-0.0004489
0.0002543
0.0001947
2.066e-08
-1.288e-06
1.267e-06
2.24e-05
-3.402e-05
1.162e-05
-0.0002776
0.000276
1.615e-06
-0.1578
0.06253
0.09526
3.012e-05
9.181e-06
6.647e-05
-0.0001255
5.902e-05
-0.1614
0.1677
-0.006245
0.002721
0.0005101
-0.003231
-0.003872
0.003791
8.109e-05
4.914e-05
-8.893e-06
-0.0001049
-5.315e-05
-0.002627
0.003817
-0.002515
0.0002907
-5.552e-06
-0.0001082
0.0001137
-2.375e-05
5.49e-05
0.282
0.5872
-0.8692
-0.0003116
-0.0001374
-0.0003737
0.0006805
-0.0003068
5.381e-05
-5.459e-05
7.725e-07
-6.368e-05
-0.0002444
-0.01336
0.01169
0.00167
-0.0007092
0.0001337
8.584e-06
2.825e-05
1.029
-0.7465
2.374e-05
-0.0001618
-2.228e-05
-3.345e-05
-1.16e-05
-2.129e-05
3.289e-05
1.634e-07
-5.019e-07
3.414e-05
-4.574e-05
1.45e-05
1.9e-05
0.0001363
2.394e-05
-0.0001602
0.0002315
-0.0001494
-8.209e-05
-0.004572
0.001183
0.003389
0.1728
1.024
-5.739e-09
5.739e-09
4.542e-05
5.723e-05
-0.0001027
3.294e-05
-6.711e-05
2.698e-05
-2.453e-05
-2.444e-06
-9.386e-05
0.0002585
-0.0001646
1.463e-05
-7.537e-05
6.074e-05
-0.0001074
1.625e-05
9.115e-05
-0.0002918
0.0002513
0.5594
0.8413
0.0001821
0.0004564
-0.0006385
-0.004451
0.001252
0.003199
-1.504
0.3789
-5.021e-05
8.568e-05
-3.547e-05
0.0001518
0.0005427
0.001515
-0.0005903
0.0008414
0.0003236
-0.001165
0.1374
-1.017
0.8793
6.063e-05
-0.0002685
6.314e-05
-1.163e-05
-5.152e-05
-0.2744
-0.7142
0.8516
0.006765
0.002452
-0.0006562
0.0009131
-0.0002569
0.0003767
0.0003387
-8.701e-05
-4.585e-06
9.16e-05
-0.000428
0.0003788
4.916e-05
2.927e-06
-1.847e-07
-2.743e-06
-0.004084
0.0009987
0.003085
-0.004032
0.005471
-0.001439
-0.7987
-0.2696
-0.0002517
6.179e-05
0.0001899
-0.0002467
0.0001213
0.0001254
0.0002189
-0.0001812
-3.77e-05
5.153e-05
-9.891e-05
0.001971
-0.001802
1.084
0.08587
-1.17
0.2752
-0.2115
0.07846
-0.1342
0.05575
-7.048e-06
1.797e-06
5.251e-06
0.04555
-0.8442
0.0331
-0.01814
-0.01496
-7.304e-05
0.0001498
-7.674e-05
-0.0007006
-0.0008302
0.001531
6.614e-05
2.725e-05
-9.339e-05
-0.2156
0.8473
-0.6317
-0.0001522
0.0001086
4.354e-05
-0.0003135
0.001739
-0.001426
-0.2384
-0.01772
0.2561
0.0001328
0.0001296
0.6919
0.4736
-1.165
-0.0003716
-0.0002242
0.0005958
5.842e-07
-4.779e-06
4.195e-06
5.146e-05
-2.395e-05
-2.751e-05
-0.0003605
-0.0006226
0.0009831
1.095e-05
7.633e-06
-1.858e-05
0.1859
-0.04869
-0.1372
1.89e-05
1.469e-05
-3.359e-05
-0.009096
0.009241
-0.0001449
-0.0001191
-3.424e-05
9.536e-06
-3.624e-06
-5.912e-06
-0.0001128
-0.0001024
0.0002153
0.0001909
5.697e-05
-0.0002478
-0.007068
-0.006293
0.005394
-0.005958
0.0005644
0.00187
-0.000354
-0.001516
3.225e-05
-3.225e-05
-0.34
0.1971
0.1429
-0.001501
0.002917
-0.001416
0.000483
-0.0003128
-0.0001703
-0.0001763
0.0003222
-0.0001459
-4.235e-06
4.995e-06
5.963e-05
-5.232e-05
-7.306e-06
-0.1177
1.202
0.04681
-0.02918
-0.01763
-2.708e-05
-1.11e-05
-0.0001076
4.239e-06
0.0001033
-2.842e-06
4.103e-06
-1.262e-06
-0.0004363
0.001137
-0.000701
2.525e-06
-2.525e-06
-0.0002884
0.0003223
-3.396e-05
-1.648e-06
1.648e-06
-0.0001131
3.631e-05
7.68e-05
1.927e-05
1.144e-05
-3.071e-05
0.0005391
-0.000357
2.104e-05
-1.487e-05
-6.176e-06
0.09784
-0.07382
-0.02403
0.001288
-0.0009826
-0.0003056
1.092
-1.516
0.424
1.318
-1.741
0.423
-4.515e-05
-0.0001173
0.0001625
-0.04308
0.09173
-0.04865
5.547e-05
1.005e-06
-5.647e-05
-0.003665
0.001613
0.002052
-0.001081
0.0001317
-0.007803
0.008805
-0.001002
0.04641
-0.101
0.0546
-0.0005369
3.158e-05
0.0005053
0.0004838
0.0007722
-0.001256
0.2518
-0.005805
-0.0004032
0.0007638
-0.0003607
0.0001383
-0.0002544
0.0001161
0.09354
-0.04713
2.773e-05
-1.375e-05
-1.398e-05
5.797e-06
-5.797e-06
-8.261e-05
1.044e-05
7.217e-05
0.0008736
-0.002828
0.001955
9.359e-05
-4.003e-05
-5.357e-05
-7.245e-05
0.0001673
-9.484e-05
-7.872e-05
7.531e-05
3.41e-06
-0.3387
0.1237
0.2151
7.763e-05
-1.404e-05
-0.0003138
-0.0003234
-0.0495
0.3506
3.054e-05
-2.294e-05
0.0001585
-1.444e-05
-0.000144
0.0004644
-0.0007685
0.0003041
-0.4775
-0.5496
1.027
0.2183
0.001259
-0.2195
0.00181
-0.001488
-0.0003223
7.511e-07
4.45e-07
-1.196e-06
0.000158
-0.002206
0.002048
-5.709e-06
5.708e-06
0.0004551
-0.0002411
-0.000214
0.0007278
-0.0001882
-0.0005396
-0.001584
0.001446
0.0001384
1.475e-06
9.722e-07
-2.447e-06
5.17e-05
1.541e-05
-6.711e-05
-0.4118
1.373
-0.9612
-8.929e-05
0.0001226
-3.332e-05
0.005524
-0.0005583
-0.004966
-0.3003
1.332
-1.032
-0.0006029
-0.0008382
0.001441
-1.975e-07
1.024e-07
9.511e-08
0.0008754
0.0008651
-0.001741
-6.243e-05
3.534e-05
2.709e-05
0.006623
-0.00374
-0.002883
0.001262
0.003153
-0.004415
-2.837e-07
-4.109e-07
6.945e-07
1.243e-05
-1.243e-05
0.0003136
0.0001359
-0.0004495
-0.08781
-0.05295
-0.4605
0.2237
0.2368
0.002849
-0.001086
-0.001763
-0.001398
0.001074
0.0003247
-4.034e-05
-7.356e-05
0.0001139
3.844e-05
-2.222e-05
-1.622e-05
-0.0005368
-0.0001606
0.0006973
0.0001733
-8.267e-05
-9.062e-05
-0.001542
0.001392
0.0001499
-0.009399
0.01707
-0.007673
6.717e-05
0.0001061
-0.03177
-0.01554
0.04731
1.691e-05
9.986e-07
-1.791e-05
0.1369
-0.5754
0.4385
-0.0001923
-0.000294
0.0004864
-2.135e-06
9.719e-06
-7.583e-06
0.0002226
-0.0002772
5.463e-05
-8.417e-05
6.989e-05
1.428e-05
0.0003309
-0.0001658
-0.0001651
-0.3822
0.09691
0.2853
-0.1895
0.05614
0.1333
2.155e-05
-3.564e-05
1.409e-05
0.007851
-0.008933
0.001082
-6.644e-05
0.00013
-6.354e-05
0.0002509
-0.0004276
0.0001767
3.217e-05
-6.342e-05
3.125e-05
-0.0004772
0.0004712
5.96e-06
0.0003515
-0.0001032
-0.0002482
-0.0002198
0.0002103
9.42e-06
-8.056e-06
5.221e-05
-4.415e-05
4.273e-05
-4.273e-05
3.046e-06
-4.845e-05
4.541e-05
-2.037e-05
0.000142
-0.0001217
-4.591e-05
3.813e-05
7.775e-06
-0.00275
0.004128
-0.001378
-0.0003
0.0006646
-0.0003646
0.0001156
0.0006395
0.0001034
-0.0001069
3.485e-06
3.303e-08
-4.509e-06
4.476e-06
-1.31e-07
8.073e-08
5.023e-08
0.0004035
-0.0001898
-0.0002137
-0.3192
0.421
0.5896
0.2177
-0.8073
0.0003715
-0.0004756
0.0001042
-7.944e-05
-0.000221
0.0003004
0.004874
-0.0008928
-0.003981
-0.1885
1.18
-0.9914
0.0002796
0.0006144
-0.0008941
0.0002862
2.141e-05
-0.002546
-0.005816
0.008361
-3.87e-05
-2.442e-05
6.312e-05
0.0007741
-0.0005589
-0.0002152
9.788e-06
-3.874e-05
2.896e-05
0.002667
-0.003168
0.0005009
0.7874
-0.6762
-0.008479
0.002845
0.005634
0.01239
0.0005743
-0.01297
6.87e-05
-7.959e-06
-6.074e-05
2.434e-05
4.078e-05
-6.512e-05
0.0001099
-8.301e-05
-2.693e-05
-0.004452
0.001715
0.002737
0.0003779
-0.003157
0.002779
-1.032e-05
2.626e-05
-1.594e-05
-0.0003623
0.0005395
-0.0001772
-0.002045
-0.001346
0.003391
-0.001001
0.0003861
0.0006145
-0.0006867
-0.0001511
0.0008379
0.001113
-0.0009049
-0.0002086
-0.0002256
0.000194
3.157e-05
0.0001389
-9.929e-05
-3.959e-05
0.2602
-0.3212
0.06096
8.082e-06
-4.577e-06
-3.505e-06
2.172e-07
6.633e-07
-8.805e-07
-0.0006173
0.0002436
1.58e-06
-8.281e-05
8.123e-05
-5.654e-05
1.636e-05
0.02185
-0.1183
0.09649
5.82e-06
-5.82e-06
-4.663e-05
4.663e-05
-0.1667
-1.048
1.214
1.259
0.2309
-1.49
9.039e-05
-4.937e-05
-4.102e-05
-4.583e-05
0.0002685
-0.0002227
-9.482e-08
1.109e-07
-1.606e-08
-1.493e-05
8.9e-06
6.032e-06
-0.000147
0.001435
-0.0003143
0.0004082
-9.394e-05
-4.902e-05
-5.114e-06
5.414e-05
-0.001102
-0.004236
0.005338
0.003657
0.005226
-0.008883
-0.1904
0.06327
0.1271
-4.774e-05
3.24e-05
1.534e-05
3.76e-05
0.0004199
-0.0004575
4.181e-05
-8.255e-05
4.074e-05
-0.004708
0.001037
0.003672
-8.158e-09
-2.548e-07
2.629e-07
-0.0002134
0.0002952
-8.183e-05
0.816
-1.148
0.3315
-5.457e-05
5.457e-05
-0.0001342
8.74e-05
4.681e-05
0.1661
0.5629
-0.729
-3.795e-05
2.858e-06
-1.287
1.121
0.2422
-0.4269
0.1847
-0.002977
0.00208
0.0008965
-0.0113
-0.002184
0.01348
-4.74e-06
2.904e-06
1.836e-06
0.7812
-0.9465
0.1653
0.0002873
-0.0001525
-0.0001348
0.4755
-0.1358
-0.3398
0.0004565
-0.0008623
0.0004057
-0.01697
0.005597
0.01137
0.0006906
-0.0004078
-0.0002828
0.006223
-0.00326
-0.002963
-7.071e-05
-0.0002977
0.0003684
-0.000318
-0.0001267
0.0004448
-2.877e-05
-8.521e-06
3.729e-05
0.001531
0.0003357
-0.001867
0.1493
0.6509
-0.8001
0.01122
0.06096
-0.07218
0.0002921
-0.0001667
-0.0001254
-0.000107
-0.0005387
0.0006457
-2.916e-05
9.566e-05
-6.65e-05
-5.849e-05
3.254e-05
2.594e-05
2.461e-05
-1.475e-05
-9.86e-06
3.14e-05
7.873e-06
-3.928e-05
4.821e-06
-4.821e-06
3.741e-05
-6.767e-05
0.0006975
-0.0005115
-0.000186
4.741e-06
-6.249e-06
1.508e-06
-0.0003942
0.0002557
0.0001384
5.805e-05
2.624e-05
-8.429e-05
0.005317
-0.006295
0.0009778
-0.0006819
0.0001836
0.0004983
0.4952
-0.3655
-0.1298
3.99e-05
-4.334e-05
3.439e-06
5.184e-07
-1.123e-05
1.071e-05
-0.0001642
1.129e-06
0.0001631
0.496
-1.094
0.5979
-0.0003788
0.0001279
0.0002509
-0.0005235
0.0002894
0.0002342
-0.001631
0.0004116
0.001219
0.001218
-0.0005561
-0.000662
1.256e-05
-6.739e-05
5.483e-05
0.001444
0.00681
-0.008254
-2.158e-05
2.465e-05
-3.065e-06
7.834e-05
0.0003286
-0.0004069
-0.0008278
-0.0008029
2.128e-05
3.907e-05
-6.035e-05
-0.0002654
-3.985e-05
0.0003053
2.544e-06
6.992e-06
-1.181
0.5418
0.6394
0.002181
-0.004253
0.002072
3.545e-05
-1.272e-05
-2.273e-05
0.1291
0.05742
-0.1865
4.807e-05
-1.343e-05
-3.464e-05
-2.684e-05
-6.764e-06
3.36e-05
-1.247
1.247
0.001524
0.002382
-0.003906
1.011e-05
-1.358e-05
3.467e-06
0.06897
-0.05292
-0.01604
0.006519
-0.001202
6.888e-05
4.198e-06
-7.308e-05
7.613e-05
-1.766e-05
-5.847e-05
0.01246
-0.009607
-0.002853
-1.269
0.5234
0.7454
-3.889e-05
6.148e-05
-2.259e-05
2.385e-05
-5.619e-05
3.234e-05
0.4031
-0.2556
-0.1475
-0.008415
0.005756
0.002659
0.0007738
-0.03085
0.03008
0.0002395
8.831e-05
-0.0003278
3.67e-05
1.259e-05
-4.929e-05
-0.001534
-0.0007767
0.002311
-0.05398
-0.05417
0.1082
-5.453e-07
1.265e-06
-7.196e-07
1.046e-08
1.021e-07
-1.126e-07
0.0001073
0.000309
0.0002038
-0.0006826
0.0004789
0.0004292
-0.0006503
0.0002212
1.434e-05
6.704e-06
-0.3926
1.24
-0.8471
0.0001413
-0.0007091
0.0005678
0.3495
-0.006728
-0.3428
-0.0001354
0.0001934
-5.808e-05
-0.0009737
0.0009637
9.997e-06
-2.928e-05
-3.834e-05
6.762e-05
0.000322
0.0008961
-3.486e-06
3.739e-06
-2.524e-07
-6.723e-06
7.29e-06
-5.671e-07
-0.5585
0.2184
0.3401
-7.397e-07
7.397e-07
2.449e-05
-1.845e-05
-6.042e-06
-6.883e-06
2.618e-05
-1.93e-05
-0.001412
-0.0001586
0.001571
-0.0001412
0.0001955
0.0003432
0.0002032
-0.0005464
-0.001061
0.0007478
0.0003129
-0.0001039
8.611e-05
1.78e-05
0.001587
-0.001109
-0.000478
-0.01006
0.02496
-0.01489
2.599e-06
-2.599e-06
0.0001959
-0.0002398
4.393e-05
-0.0004442
0.0001983
0.0002459
0.0001478
7.403e-05
-0.0002219