/*--------------------------------*- C++ -*----------------------------------*\
  =========                 |
  \\      /  F ield         | OpenFOAM: The Open Source CFD Toolbox
   \\    /   O peration     | Website:  https://openfoam.org
    \\  /    A nd           | Version:  8
     \\/     M anipulation  |
\*---------------------------------------------------------------------------*/
FoamFile
{
    version     2.0;
    format      ascii;
    class       volVectorField;
    location    "35";
    object      U;
}
// * * * * * * * * * * * * * * * * * * * * * * * * * * * * * * * * * * * * * //

dimensions      [0 1 -1 0 0 0 0];

internalField   nonuniform List<vector> 
127143
(
(0.0009334 -3.993e-05 0)
(-2.554e-05 -0.0001265 -1.523e-24)
(-5.225e-05 -0.0002566 2.698e-24)
(-6.801e-05 -0.0003108 -1.084e-27)
(0.006481 0.002025 -4.449e-23)
(-5.745e-05 -0.00032 3.8e-27)
(0.01733 0.01105 0)
(0.009208 0.00423 -6.041e-23)
(0.007516 0.003629 1.994e-22)
(-0.001144 -4.013e-05 0)
(0.01772 0.02449 2.006e-22)
(0.01155 0.007689 2.159e-22)
(0.000149 -5.636e-05 -5.343e-25)
(-8.842e-05 -0.0003497 0)
(0.06752 -0.04714 5.059e-21)
(0.02063 -0.001922 0)
(-0.0001171 -0.0005747 -4.369e-24)
(-0.03706 -0.07139 3.684e-20)
(-0.1729 0.006347 0)
(0.0322 0.009807 0)
(-0.103 0.02779 2.499e-20)
(0.0002136 -0.0001163 0)
(1 -0.1489 0)
(0.3525 -0.03423 0)
(0.0001863 -0.0001055 -5.044e-23)
(0.1158 -0.01866 0)
(-0.01345 0.0001176 3.892e-21)
(-0.01348 -0.0002967 -5.837e-23)
(0.1276 -0.05533 0)
(0.3013 -0.08694 -1.453e-20)
(0.2809 -0.01746 0)
(0.1114 -0.01656 -1.821e-21)
(0.0597 0.01461 8.585e-22)
(-0.01072 0.002905 -5.127e-21)
(0.8847 -0.08608 2.058e-20)
(0.05813 0.01681 -2.407e-24)
(-0.1612 0.05859 8.457e-21)
(0.2429 0.02142 -1.074e-20)
(0.4381 -0.03954 -1.487e-21)
(0.1149 -0.003163 1.121e-25)
(-0.1738 0.004643 0)
(1.062 0.4355 -5.496e-21)
(1.043 0.4243 4.154e-21)
(0.0003103 -0.0001061 0)
(-0.04949 -0.06611 -3.22e-20)
(-0.01116 0.002523 1.623e-21)
(0.1303 -0.05974 0)
(-0.2005 0.07517 -1.147e-21)
(0.4279 -0.07541 4.399e-22)
(0.4175 -0.03321 -9.087e-22)
(0.02457 -0.001739 -4.929e-23)
(0.9826 -0.03661 2.995e-20)
(-0.04912 0.005839 0)
(1.15 0.1502 -7.751e-21)
(1.002 -0.0007869 1.809e-20)
(0.3209 -0.07959 9.67e-23)
(1.002 -0.0007821 -1.627e-20)
(1.12 -0.08126 0)
(1.009 -0.00739 -1.263e-20)
(1.149 0.1513 -1.507e-20)
(0.5307 -0.08586 -6.348e-20)
(-0.1481 0.06857 -1.519e-21)
(0.7983 -0.05323 5.046e-21)
(1.001 0.0004477 3.108e-20)
(-0.03644 0.003049 0)
(0.888 -0.2433 -5.508e-21)
(1.067 0.1395 2.545e-20)
(0.7408 -0.05486 0)
(0.7518 -0.0543 1.387e-21)
(0.9904 -1.283e-05 0)
(0.3194 -0.02374 0)
(-0.01441 0.000143 -1.831e-21)
(-0.1843 -0.03456 -7.779e-21)
(1.009 -0.00726 -7.018e-21)
(1.003 0.002605 -3.934e-22)
(-0.01452 -0.0002155 1.824e-21)
(1.006 0.03369 -1.006e-20)
(-0.141 0.04997 0)
(0.3319 -0.08742 -1.427e-22)
(1 0.0005673 0)
(0.1239 -0.05724 7.338e-24)
(0.03544 0.009055 1.128e-23)
(-0.01996 0.004743 3.321e-21)
(0.1414 -0.009735 0)
(-0.1482 -0.007964 1.36e-21)
(-0.1587 0.05771 0)
(0.5193 -0.05078 -3.41e-21)
(0.003275 0.0009791 1.212e-21)
(0.8872 -0.2408 0)
(0.9612 0.581 0)
(1.004 -0.00416 0)
(1.177 0.05431 0)
(1.101 0.6687 0)
(-0.1034 0.02795 -2.57e-20)
(-0.05271 0.01103 0)
(1.058 0.06738 2.296e-20)
(1.063 0.4279 1.145e-20)
(0.1969 -0.01404 0)
(-0.1399 0.04654 5.727e-21)
(1.064 0.1399 0)
(1 0.0005516 0)
(0.4523 -0.08195 0)
(0.5775 0.5344 -6.063e-22)
(1.09 -0.1246 0)
(-0.1624 0.05955 -2.7e-21)
(-0.138 0.04582 8.17e-21)
(0.7397 -0.1154 -2.776e-21)
(0.9896 5.596e-05 0)
(0.7181 -0.2828 0)
(1.002 -0.0005879 2.558e-20)
(0.0778 -0.05139 -1.626e-21)
(0.003377 0.0005847 2.321e-21)
(-0.0781 0.01851 -2.009e-20)
(0.2538 0.4739 0)
(0.9957 0.007612 1.54e-20)
(1.043 -0.1709 -5.06e-22)
(0.9863 0.0349 -9.823e-21)
(1.003 0.002711 -2.009e-20)
(1.006 0.0328 7.767e-21)
(-0.000768 -0.003292 0)
(1.002 -0.0006261 -3.577e-20)
(-0.0216 0.00568 -8.177e-22)
(0.7785 -0.2874 0)
(1.098 -0.08945 1.586e-20)
(0.1302 -0.05766 2.994e-22)
(0.07927 -0.01019 -4.478e-21)
(-0.148 0.05496 0)
(1.031 0.006966 9.142e-20)
(-0.05983 0.004956 -2.916e-21)
(0.3237 -0.09337 -4.036e-22)
(-0.08238 0.02532 0)
(-0.05158 0.01229 -6.607e-21)
(0.9506 -0.07969 -1.019e-20)
(-0.143 0.0507 0)
(-0.0001748 -0.001041 -2.429e-23)
(-0.08504 0.02633 -3.602e-21)
(1.083 -0.03739 0)
(-0.1078 0.0293 6.397e-21)
(0.1602 -0.09073 -2.607e-21)
(1.099 0.006607 8.545e-21)
(0.9709 -0.1793 3.508e-21)
(0.985 0.02333 5.224e-20)
(-0.04374 0.01536 9.655e-22)
(-0.07245 0.02319 -1.313e-20)
(-0.04657 0.00569 -2.982e-21)
(1.216 0.4454 3.59e-21)
(-0.02396 0.1378 7.493e-22)
(1.001 0.0003886 -2.8e-20)
(-0.04957 0.01174 5.542e-21)
(0.4828 0.4194 -3.841e-22)
(1.087 -0.1155 -3.792e-21)
(0.4891 -0.09715 0)
(0.5384 0.05091 2.798e-20)
(0.8541 -0.1485 0)
(0.3147 -0.2209 0)
(-0.1504 -0.007864 0)
(1.121 -0.08029 -5.641e-21)
(0.3146 -0.1104 0)
(-0.2007 0.07527 -2.136e-21)
(0.1712 -0.01534 1.005e-21)
(0.3533 -0.0217 0)
(0.02924 -0.01541 1.998e-21)
(1.004 -0.003789 -9.795e-23)
(-0.08356 0.02573 -9.003e-21)
(0.1881 -0.04845 0)
(-0.04017 0.003547 3.765e-21)
(-0.1328 0.04753 -4.473e-21)
(0.7021 -0.244 1.379e-20)
(0.2421 0.0653 -2.274e-21)
(0.9413 0.03797 -6.652e-21)
(-0.01353 0.003578 0)
(-0.07335 0.02359 6.16e-21)
(1.034 -0.1814 -1.335e-21)
(0.9017 -0.2616 -1.324e-21)
(0.9782 -0.0004508 3.694e-20)
(-0.06962 0.002554 7.327e-23)
(1.197 0.5069 -5.888e-22)
(-0.06004 0.005195 -2.881e-21)
(0.4041 -0.04073 0)
(1.006 -0.01675 4.335e-21)
(0.9007 -0.262 -4.591e-22)
(1.014 0.008243 0)
(-0.05242 -0.01452 9.728e-22)
(-0.0696 0.001674 -7.312e-23)
(0.3346 -0.09789 8.657e-22)
(-0.1459 0.06824 2.705e-21)
(1.006 0.2768 -3.699e-21)
(0.2716 0.4899 -4.497e-21)
(0.38 -0.03721 -2.71e-21)
(1.025 -0.02511 4.133e-20)
(-0.06664 0.006666 1.774e-21)
(-0.05996 0.005747 -7.253e-21)
(1.081 -0.03657 6.933e-20)
(0.3579 0.8407 -4.943e-22)
(-9.29e-05 -0.001076 4.051e-23)
(-0.1302 0.04337 0)
(1.003 4.803e-07 0)
(0.999 -1.996e-06 1.569e-22)
(0.01431 0.007768 0)
(0.9907 0.01068 4.677e-21)
(1.009 0.007111 2.336e-20)
(0.9352 -0.003404 1.025e-19)
(0.9839 -0.04293 1.194e-20)
(-0.1679 0.06109 -4.214e-21)
(-0.0001207 -0.0006675 5.884e-25)
(0.647 -0.03982 4.991e-21)
(1.025 -0.09759 -4.402e-21)
(1.002 -0.178 4.233e-22)
(0.4147 -0.1107 1.06e-20)
(0.9958 0.007344 -7.966e-21)
(1.158 -0.00649 1.766e-20)
(-0.1295 -0.002226 8.91e-22)
(0.9972 -0.004865 6.766e-21)
(0.2538 0.0664 -2.432e-21)
(-0.05924 0.01823 3.674e-24)
(0.01919 0.001835 0)
(-0.0136 0.004561 -4.207e-22)
(0.9855 -0.1928 -1.354e-21)
(-0.07144 0.01889 -1.268e-20)
(1.027 -0.0963 -1.21e-21)
(1.188 0.5021 -1.163e-21)
(1.001 0.004073 -1.391e-20)
(0.4766 -0.09361 2.792e-22)
(-0.02372 0.00712 3.249e-21)
(0.1577 -0.01499 0)
(-0.02183 0.007283 0)
(0.2331 -0.05932 -2.093e-22)
(0.2956 0.03021 1.156e-20)
(-0.06115 0.02088 1.558e-21)
(-0.155 0.05525 7.238e-21)
(-0.09853 0.02596 1.542e-20)
(1.015 0.007173 -1.431e-20)
(-0.19 -0.03412 1.556e-20)
(-0.000127 -0.007665 0)
(-0.09929 0.02609 0)
(1.085 -0.0751 1.635e-20)
(-0.08339 0.02592 4.315e-21)
(0.002336 -0.0003588 2.502e-23)
(1.009 0.006927 -2.17e-20)
(-0.06488 0.009424 1.012e-20)
(-0.06125 0.005824 6.883e-21)
(-0.04809 0.002759 -6.408e-21)
(-0.1573 0.0426 -6.056e-22)
(0.3261 -0.1157 4.67e-25)
(0.3487 0.04079 0)
(-0.0006127 -0.003397 1.844e-26)
(0.625 -0.1272 -1.362e-21)
(-0.01381 0.000269 0)
(-0.003293 0.0009083 5.537e-22)
(1.001 2.914e-07 -8.344e-22)
(1.175 0.3626 -1.332e-20)
(0.117 -0.01305 3.057e-21)
(0.943 -0.2226 0)
(-0.0992 0.0252 0)
(0.4314 -0.1042 1.345e-23)
(0.7363 -0.2862 0)
(1.03 0.006436 -7.171e-20)
(0.4346 0.1401 0)
(0.9564 -0.2425 0)
(0.8595 0.1986 1.344e-20)
(-0.1227 0.03982 -8.342e-21)
(1.019 -0.0113 1.258e-20)
(1.172 0.05476 6.568e-23)
(0.9846 0.02237 -4.198e-20)
(0.15 0.01942 0)
(-0.04434 0.003561 -2.005e-21)
(-0.04407 0.01462 5.792e-21)
(0.274 -0.2086 0)
(0.5795 -0.1992 3.548e-20)
(1.177 0.1679 -5.038e-21)
(0.1979 -0.03507 0)
(0.9739 -0.001152 -4.455e-20)
(-0.202 0.07352 -1.466e-21)
(-0.06538 0.009462 -1.047e-20)
(0.9443 -0.05961 8.082e-21)
(-0.06651 0.006641 -8.696e-21)
(-0.07925 0.01898 0)
(0.4982 -0.07892 3.629e-21)
(0.954 -0.001498 -4.291e-22)
(0.9068 -0.2669 1.52e-21)
(1.003 -0.0002828 8.944e-23)
(1.055 0.07177 2.958e-21)
(1.091 -0.1242 -1.155e-23)
(0.9957 0.001507 0)
(1.001 0.008921 -1.371e-21)
(-0.0004235 -0.001082 -5.88e-24)
(-0.06899 0.02008 0)
(0.9958 0.008414 8.574e-21)
(0.4569 -0.06466 3.158e-21)
(1.005 -0.01676 5.278e-21)
(0.5937 0.04831 -3.795e-20)
(0.9925 -0.1866 0)
(1.083 -0.07607 -1.615e-20)
(1.017 -0.1969 0)
(1 -0.005651 -2.564e-21)
(0.7058 -0.2966 -3.186e-22)
(0.2652 -0.02094 2.116e-21)
(0.01179 -0.0355 -8.234e-22)
(-0.1576 0.04309 2.335e-21)
(1.178 0.1678 3.584e-21)
(0.1916 -0.02102 -1.214e-21)
(0.9359 -0.2255 -5.631e-22)
(0.8078 -0.2372 -9.104e-21)
(1.043 -0.1705 4.887e-21)
(0.1502 -0.01091 0)
(0.5044 -0.2943 3.628e-23)
(1.006 -0.1784 1.418e-22)
(0.9971 -0.005068 0)
(-0.04726 0.03466 -1.28e-23)
(1.02 -0.1062 -4.621e-21)
(0.6891 -0.1087 -3.382e-21)
(0.01263 -0.03473 -8.286e-23)
(0.2947 -0.07188 0)
(1.003 -0.000397 7.225e-22)
(0.9932 0.001527 -1.89e-20)
(1.071 0.4524 5.034e-22)
(0.09839 0.01828 5.793e-21)
(0.1829 -0.01994 2.838e-21)
(1.161 0.06749 2.182e-20)
(0.8954 -0.01299 -2.311e-21)
(0.999 -0.1477 0)
(0.3069 -0.02099 -3.502e-21)
(1.056 0.01739 2.093e-20)
(0.9418 -0.2217 -1.213e-22)
(1.053 0.4403 0)
(0.09771 0.018 -1.266e-20)
(0.9204 -0.04863 4.413e-20)
(0.0505 -0.01618 -6.042e-24)
(0.3339 -0.004369 2.013e-21)
(1.162 0.5634 5.427e-21)
(-0.1704 0.07053 0)
(1.002 0.008819 4.967e-22)
(0.8899 -0.08687 -7.983e-20)
(1.003 6.854e-06 0)
(0.999 -2.432e-06 0)
(0.8536 -0.1448 0)
(0.7297 -0.2839 -2.095e-21)
(1.033 -0.1816 -1.311e-21)
(-0.1708 0.0709 -2.027e-21)
(-0.06056 0.01714 -2.293e-20)
(1.097 0.004442 -3.875e-20)
(0.9856 -0.1931 0)
(-0.03147 0.005571 2.895e-21)
(-0.06601 0.006445 1.485e-21)
(0.2192 0.08033 -7.112e-23)
(0.4479 -0.0623 -2.065e-21)
(-0.03004 0.007459 -3.501e-21)
(-0.06624 0.01417 6.125e-21)
(0.2146 -0.02547 -2.382e-21)
(-0.0504 0.005769 0)
(0.2277 -0.02485 1.961e-21)
(-0.09752 0.04582 6.381e-21)
(-0.09214 0.01928 -1.571e-21)
(-0.06641 0.006501 6.441e-21)
(0.9219 0.03784 0)
(-0.03345 0.008352 -9.087e-21)
(-0.09949 0.02522 -9.201e-21)
(1.214 0.4139 -3.152e-21)
(1.003 -0.004966 4.243e-21)
(0.3197 -0.003671 0)
(-0.1988 0.06736 -2.162e-21)
(0.8362 -0.05578 1.477e-21)
(0.3932 -0.03964 -4.279e-20)
(0.4394 -0.03119 0)
(0.4229 -0.03545 -2.863e-21)
(1.002 0.002074 6.577e-23)
(0.991 0.01046 -1.394e-20)
(0.8951 -0.0001765 0)
(-0.02074 0.003773 1.712e-21)
(0.9601 -0.001055 0)
(0.4105 -0.07274 5.048e-20)
(1.057 0.01541 -4.513e-20)
(0.1438 -0.01572 -2.935e-21)
(0.4159 -0.02957 3.409e-21)
(1.025 -0.02371 0)
(1.133 0.062 -4.971e-22)
(0.2877 -0.02498 2.464e-21)
(0.006076 -0.009427 2.162e-26)
(-0.155 0.05475 -1.357e-20)
(0.9596 -0.004467 3.298e-21)
(0.2894 0.004415 -5.995e-20)
(0.09211 -0.01187 4.51e-21)
(0.2431 -0.03084 0)
(0.934 -0.2278 -2.42e-21)
(0.9868 0.03356 0)
(0.04626 -0.003346 0)
(0.9491 0.1387 0)
(0.122 -0.00392 0)
(-0.1305 0.04296 -2.271e-21)
(0.1312 0.01735 -3.587e-20)
(1.01 -0.005489 -3.647e-20)
(0.7758 -0.2108 0)
(-0.03788 0.01245 1.092e-21)
(0.4339 -0.1113 1.047e-22)
(0.3772 -0.03391 5.458e-21)
(0.2642 -0.01682 2.253e-21)
(0.7803 -0.2128 -7.675e-21)
(0.305 -0.01864 0)
(0.9209 0.0361 0)
(1.017 -0.01174 0)
(0.1273 -0.01082 -6.789e-22)
(1.001 0.003867 5.132e-21)
(-0.09925 0.02478 0)
(-0.05583 -0.01394 0)
(0.954 0.1408 0)
(1.042 -0.1256 2.874e-21)
(-0.1676 0.06181 -1.382e-20)
(0.9289 -0.08516 7.514e-21)
(1 0.0004423 -8.202e-20)
(0.4357 -0.045 0)
(0.7162 -0.3145 0)
(0.2143 -0.02818 -2.815e-21)
(0.9721 -0.1781 -3.614e-21)
(-0.198 0.0759 0)
(0.7937 -0.2921 0)
(-0.05418 0.01133 -6.081e-21)
(-0.1062 0.03168 -1.534e-20)
(0.1699 -0.03271 0)
(0.8457 0.08974 5.955e-21)
(0.5476 -0.221 -1.037e-21)
(-0.1372 0.04972 0)
(-0.01445 0.005061 -1.564e-21)
(-0.04916 0.01461 0)
(1.003 0.0001997 -1.835e-22)
(-0.1546 0.05482 -8.951e-21)
(0.9092 0.2429 -6.229e-21)
(1.038 0.4126 3.608e-22)
(0.9391 -0.1681 -6.653e-21)
(-0.05044 0.003373 6.494e-21)
(1.007 -0.1203 1.576e-21)
(1.003 -0.0001496 0)
(-0.05035 0.01503 0)
(-0.08715 0.01897 0)
(1.175 -0.01405 1.061e-19)
(0.9331 0.1609 5.766e-22)
(1.002 0.002039 -2.549e-21)
(1.004 -0.1556 2.936e-21)
(-0.0327 0.007579 -6.5e-21)
(0.9832 -0.03541 -1.142e-20)
(1 -0.005675 0)
(0.999 -0.001008 -3.481e-21)
(0.4465 -0.03564 1.47e-21)
(1.082 -0.04181 -2.424e-20)
(0.7304 -0.2896 3.026e-21)
(0.9611 0.02578 0)
(0.2096 -0.01517 -1.373e-22)
(0.9913 0.0004949 4.255e-20)
(0.3724 -0.2549 0)
(0.8775 -0.003775 -1.706e-21)
(-0.1293 -0.003777 8.721e-22)
(-0.1138 0.03384 0)
(0.2832 -0.03685 -8.76e-24)
(1.06 -0.1268 -7.982e-21)
(-0.01991 0.003471 9.681e-21)
(0.8613 0.06761 2.71e-23)
(-0.18 0.06373 -1.41e-21)
(0.1834 -0.02223 -1.252e-21)
(-0.05253 0.003498 0)
(-0.1851 0.06749 0)
(1.097 0.1249 3.746e-21)
(0.9751 -0.08327 3.416e-21)
(-0.01235 0.01052 7.259e-21)
(-0.04262 0.02955 0)
(0.3238 0.4386 -2.152e-20)
(-0.02316 0.01 -4.172e-25)
(0.9932 -0.0006423 0)
(1.001 0.0222 0)
(-0.0833 0.01755 0)
(-0.02839 0.00774 3.564e-21)
(0.9997 -0.000111 0)
(-0.1456 0.04876 6.194e-21)
(1.172 0.06918 1.841e-20)
(1.099 -0.0879 -2.4e-20)
(0.1203 0.0183 -1.934e-21)
(1.029 -0.08119 -7.103e-21)
(1.003 -7.319e-05 0)
(0.252 -0.1632 -1.421e-20)
(1.17 0.06913 -1.781e-20)
(-0.06267 0.02183 -9.742e-22)
(0.05416 0.01018 6.669e-22)
(0.124 -0.06544 2.24e-22)
(0.3684 -0.2558 -1.656e-21)
(-0.03801 0.005315 1.784e-21)
(0.2957 -0.06967 0)
(0.7208 -0.3097 0)
(0.9585 0.1647 -5.718e-22)
(0.1341 0.01507 -4.779e-22)
(1.008 0.002054 2.87e-20)
(0.1982 -0.01695 -1.98e-21)
(0.9748 0.004946 3.783e-20)
(1.175 0.5078 1.797e-22)
(0.5564 -0.05502 3.001e-21)
(-0.05613 0.005885 0)
(1.218 0.4311 1.598e-21)
(-0.0002039 -0.001124 0)
(-0.07505 0.02361 9.966e-21)
(0.2809 0.2714 5.721e-21)
(1.107 -0.02786 -2.681e-22)
(0.972 0.6706 5.048e-21)
(0.9963 -0.003137 -4.789e-20)
(0.1211 -0.0681 0)
(1.002 0.02231 2.738e-24)
(-0.1487 0.04405 0)
(-0.1286 0.0432 -7.975e-21)
(-9.685e-05 -0.0005868 0)
(0.001127 0.0003163 3.44e-23)
(0.001193 -0.0004354 -1.074e-23)
(1 -0.0002712 -2.455e-20)
(-0.03443 0.008631 0)
(0.5178 0.1003 0)
(0.9935 0.001694 3.699e-20)
(-0.1932 0.07223 3.266e-21)
(0.7474 -0.2769 3.5e-21)
(-0.102 0.03468 9.073e-21)
(1.061 -0.1536 0)
(-0.112 0.03312 0)
(0.2776 -0.03415 -1.877e-21)
(-0.1455 0.04895 -6.307e-21)
(-0.006949 0.001312 4.092e-22)
(0.9983 -0.0003847 0)
(-0.1055 -0.01325 -1.184e-21)
(0.0002043 -9.116e-05 0)
(0.4934 -0.202 6.605e-22)
(0.2093 -0.0204 8.643e-22)
(-0.01495 0.003765 3.917e-22)
(1.01 -0.006799 -1.091e-20)
(1.091 -0.115 -4.109e-21)
(0.9917 -0.04307 -3.264e-21)
(-0.03192 0.02826 1.242e-20)
(1.001 -0.003199 0)
(0.1749 -0.01359 0)
(0.2962 0.1383 0)
(-0.0489 0.01648 -1.743e-21)
(0.999 1.722e-05 0)
(-0.08336 0.01768 -7.409e-21)
(1.069 -0.1002 -1.189e-20)
(0.001349 -0.002228 1.1e-25)
(0.6903 -0.3133 1.584e-21)
(0.2276 0.06651 5.338e-22)
(-0.0343 0.02932 -4.536e-21)
(0.9736 -0.002189 2.447e-21)
(-0.09151 0.03233 -1.472e-21)
(0.8023 -0.3021 -2.223e-21)
(0.9997 -0.0001117 2.638e-21)
(0.9352 -0.2273 3.262e-21)
(0.9381 0.1013 -2.581e-20)
(0.2889 -0.02392 -1.923e-21)
(0.4527 -0.03071 2.212e-21)
(-0.026 0.007092 -3.496e-21)
(-0.03107 0.01072 7.241e-22)
(-0.1299 0.043 4.04e-21)
(1.111 0.1713 0)
(0.6005 -0.2394 9.022e-22)
(-0.1262 0.04498 0)
(-0.05291 0.0158 1.759e-22)
(1.016 -0.001799 -5.824e-21)
(0.135 -0.004854 2.184e-22)
(-0.08256 0.02467 -5.592e-21)
(0.206 -0.03285 3.355e-21)
(0.8806 -0.09438 -6.925e-21)
(-0.1787 0.05438 2.345e-21)
(1 0.000952 0)
(0.9998 0.001185 1.441e-20)
(0.8661 0.1904 -2.177e-20)
(-0.02906 0.007089 -1.671e-21)
(0.9495 0.7028 0)
(0.9921 0.002077 -2.522e-20)
(1.003 1.143e-05 -4.135e-22)
(0.8144 -0.2941 0)
(0.3894 -0.1716 0)
(-0.1714 0.06343 4.358e-21)
(0.7194 -0.3103 0)
(-0.03558 0.01228 2.596e-21)
(-0.008592 0.002845 0)
(0.988 -0.2184 1.699e-22)
(1.005 0.02904 0)
(1.001 -0.0002949 4.496e-21)
(-0.05418 0.01918 1.519e-21)
(-0.1316 0.04187 -5.696e-21)
(0.8647 -0.2035 -3.651e-22)
(1.002 -0.0007731 7.45e-21)
(-0.01503 0.0003611 8.816e-22)
(0.9607 -0.09452 0)
(-0.04947 0.01399 6.373e-21)
(0.9594 -0.003239 8.858e-21)
(0.1393 -0.01647 2.588e-22)
(0.9921 0.001835 4.635e-20)
(-0.1709 0.06341 -2.267e-21)
(-0.06313 -0.0172 0)
(0.079 0.02243 7.02e-22)
(1.001 4.813e-06 1.551e-22)
(-0.05641 0.01917 -5.432e-21)
(-0.1223 0.03956 -1.989e-21)
(0.05229 -0.03232 -2.819e-21)
(1.003 -6.771e-05 -1.109e-21)
(0.7659 -0.1219 2.801e-21)
(-0.01379 0.004537 1.957e-22)
(0.9991 -0.001064 0)
(1.045 -0.1269 0)
(0.993 0.006804 -8.869e-22)
(0.565 -0.03625 2.909e-21)
(0.07665 0.01541 0)
(0.9959 0.001363 2.56e-20)
(-0.02324 0.005895 7.883e-21)
(0.3211 -0.0442 1.595e-21)
(0.01113 -0.03714 0)
(-0.05867 0.009805 -9.778e-21)
(-0.02423 0.01528 -1.995e-21)
(0.2408 -0.02535 -5.869e-21)
(0.2513 -0.02936 -1.845e-21)
(0.2124 -0.06842 -1.874e-20)
(0.4648 -0.0433 -1.284e-21)
(1.12 0.6827 6.971e-22)
(0.4831 -0.02127 -2.52e-21)
(-0.1033 0.02815 -1.788e-21)
(0.007115 0.01041 -3.52e-21)
(0.169 -0.01515 9.677e-22)
(1.002 -0.0007487 0)
(0.3067 -0.06347 4.835e-22)
(0.9947 0.001538 -1.056e-20)
(0.2338 0.09841 -1.51e-20)
(1.031 0.02126 3.496e-20)
(-0.04024 0.01543 1.353e-20)
(1.003 -0.0001754 0)
(0.9956 0.008243 2.156e-20)
(1.124 -0.08023 2.669e-20)
(0.5571 -0.2256 5.387e-22)
(-0.08682 0.02261 9.923e-21)
(1.003 -0.0003817 6.614e-21)
(1.002 -0.001036 -1.05e-20)
(-0.0657 0.0221 -1.58e-21)
(0.03719 0.006495 0)
(-0.02404 0.005637 3.46e-21)
(0.204 -0.0167 -3.302e-21)
(-0.1842 0.02446 0)
(0.73 -0.2886 -2.775e-21)
(-0.1154 0.03445 -1.495e-21)
(0.7145 -0.3149 0)
(-0.06561 0.006445 -2.069e-22)
(-0.04213 0.01281 -1.564e-20)
(-0.03563 0.002781 0)
(1.003 -0.0004022 -1.176e-21)
(-0.0484 0.003862 6.586e-21)
(-0.06404 0.007919 7.882e-22)
(1.041 -0.1648 -1.242e-21)
(1.176 0.1213 0)
(1.002 -0.002784 -1.831e-21)
(1.003 1.361e-05 3.856e-23)
(0.1294 0.01867 -1.195e-20)
(0.1862 -0.1055 2.678e-24)
(0.1334 0.01676 2.404e-21)
(-0.007193 0.002193 3.349e-22)
(1.03 0.02195 0)
(1.004 -2.209e-05 5.118e-23)
(-0.07873 0.02565 0)
(-0.05683 0.004536 0)
(0.9381 -0.003155 -8.141e-20)
(-0.03191 0.003624 -1.786e-21)
(1.037 -0.1398 0)
(0.9962 0.01437 -1.558e-20)
(-0.03155 0.009658 5.921e-21)
(0.9716 -0.2327 -1.17e-23)
(-0.06287 0.007838 5.126e-21)
(0.852 -0.1746 -2.959e-20)
(0.0003003 -9.474e-05 0)
(-0.0233 0.007577 0)
(-0.1862 0.06803 -1.24e-21)
(-0.1791 0.06415 2.645e-21)
(-0.06956 0.01994 0)
(-0.04899 0.007535 6.245e-21)
(0.1581 -0.02211 -5.76e-22)
(-0.03468 0.005371 0)
(0.9741 -0.02949 -8.063e-21)
(-0.06383 0.006831 1.284e-20)
(0.001549 -0.02319 0)
(-0.1002 0.02523 -1.352e-20)
(1.002 -0.0007461 2.403e-20)
(0.5313 -0.08241 -2.726e-21)
(0.8681 -0.2363 0)
(0.5687 -0.008361 -2.586e-20)
(0.999 3.822e-06 3.766e-23)
(1.002 -0.0007728 -3.201e-20)
(0.002911 -0.00501 0)
(1.107 -0.02553 -7.874e-21)
(0.3481 -0.06652 1.293e-21)
(-0.05607 0.006315 -4.24e-22)
(0.5238 -0.2957 0)
(-0.04849 0.0338 1.912e-20)
(1.161 0.1937 0)
(0.1787 -0.01468 9.601e-22)
(0.6949 -0.02493 4.241e-20)
(0.4411 -0.1203 0)
(1.008 0.001833 -1.038e-20)
(1.003 -0.0004374 0)
(1.181 0.3866 0)
(0.9181 0.2445 0)
(-0.02298 0.004395 4.209e-22)
(0.576 -0.02032 0)
(0.244 -0.1002 1.842e-21)
(-0.191 0.05025 0)
(0.461 -0.193 -1.463e-21)
(1.156 -0.007058 1.123e-19)
(0.4457 -0.04164 5.998e-20)
(1.002 4.387e-05 -9.489e-23)
(0.2335 -0.01496 -6.199e-22)
(1.031 -0.08028 -1.115e-21)
(0.4001 -0.09349 1.455e-22)
(-0.0002288 -0.00119 5.759e-24)
(0.9408 -0.148 9.436e-22)
(0.1932 0.03048 -1.505e-20)
(-0.1565 0.05563 1.358e-20)
(1.001 1.471e-05 -1.441e-22)
(0.803 -0.0858 1.262e-22)
(0.4126 -0.03493 -3.769e-21)
(-0.01396 0.004782 0)
(-0.1078 -0.009917 1.008e-20)
(-0.07591 0.02831 8.483e-21)
(-0.06552 0.006552 -3.152e-21)
(0.5332 0.4555 0)
(-0.1055 0.0314 1.454e-20)
(0.4615 -0.2505 2.61e-21)
(-0.1636 0.05176 -1.748e-21)
(0.4763 -0.117 -6.922e-24)
(0.7356 -0.07819 3.711e-21)
(1.032 -0.1077 2.194e-21)
(-0.1474 0.05501 5.308e-21)
(1.015 -0.1763 -2.41e-21)
(0.001205 -7.185e-05 0)
(0.8655 -0.2376 0)
(0.9418 0.03441 3.274e-20)
(0.7419 -0.1702 1.953e-22)
(0.6817 -0.2965 2.362e-21)
(0.5625 -0.05842 -8.596e-22)
(1.005 -0.0002932 0)
(-0.02696 -0.01771 -9.108e-22)
(-0.09128 0.04633 -1.287e-20)
(-0.1728 0.06403 -4.071e-21)
(1.004 -6.979e-06 -1.124e-22)
(-0.007039 0.002625 0)
(-0.05221 0.01598 0)
(0.1398 -0.01832 4.355e-21)
(1.002 5.181e-05 5.138e-22)
(-0.03249 0.005178 3.698e-21)
(-0.1289 0.04051 0)
(-0.0351 0.006598 6.624e-21)
(-0.0642 0.006198 -4.82e-21)
(1.002 -4.983e-06 -4.405e-22)
(-0.1767 0.06661 -6.668e-21)
(0.0003574 -0.004281 0)
(-0.0252 0.007361 6.384e-21)
(-0.09762 0.02418 0)
(0.9895 0.01141 -5.553e-21)
(-0.02959 0.005661 2.63e-21)
(0.067 0.07592 0)
(1.016 0.002828 -1.157e-20)
(0.9928 -0.1858 -1.34e-21)
(0.9969 -0.2052 0)
(-0.0504 0.007471 -6.412e-21)
(-0.076 0.02355 0)
(0.9359 -0.224 -1.901e-21)
(0.9293 -0.1465 0)
(0.1017 -0.01283 6.349e-22)
(-0.04925 0.01592 0)
(0.9995 -8.078e-06 -4.25e-22)
(-0.1768 0.06661 6.361e-21)
(-0.1732 0.07288 6.489e-22)
(0.1204 -0.009503 0)
(0.2344 -0.03267 2.132e-21)
(1.153 0.1447 0)
(-0.1925 0.07181 0)
(-0.033 0.01142 1.872e-22)
(0.9993 1.081e-05 2.111e-22)
(-0.1065 0.03674 -9.115e-21)
(-0.0319 0.009276 0)
(0.03854 0.007784 0)
(0.0003874 -0.00907 -6.317e-24)
(0.04733 0.009164 -2.605e-21)
(-0.04968 0.01716 2.726e-21)
(-0.08054 0.01778 -2.446e-21)
(-0.1477 0.0334 0)
(0.9808 -0.2247 0)
(1.001 -0.0002602 1.201e-20)
(8.903e-05 -3.465e-05 -4.065e-24)
(-0.0785 0.02392 1.113e-20)
(-0.06054 0.01043 9.541e-21)
(-0.03962 0.01417 7.93e-22)
(-0.1914 0.07099 -8.631e-21)
(-0.08976 0.03182 5.844e-21)
(-0.07395 0.02462 -2.781e-21)
(0.3452 -0.02611 0)
(1 -0.0002758 0)
(-0.1012 0.02451 0)
(1.082 -0.1318 -1.979e-23)
(1.002 1.046e-05 0)
(-0.058 0.01852 -8.865e-21)
(1.178 0.5075 0)
(0.7211 -0.1104 2.582e-21)
(0.7922 -0.2843 -1.057e-21)
(1.003 -3.777e-05 -4.402e-21)
(-0.1174 0.03524 0)
(-0.06919 0.005555 0)
(1.008 0.002081 -3.344e-20)
(1.003 -4.23e-05 0)
(1.175 0.1196 0)
(-0.1539 0.07032 5.568e-21)
(-0.1844 0.02566 -1.985e-21)
(-0.09505 0.03373 2.78e-21)
(-0.1741 0.06475 6.079e-21)
(0.03139 0.0006356 5.817e-24)
(1.067 -0.1398 0)
(0.7129 -0.1732 -2.275e-20)
(1.002 -0.0007822 0)
(-0.1272 0.04266 -6.764e-21)
(-0.149 0.05377 0)
(0.2891 -0.01724 -1.873e-21)
(0.1688 -0.0136 0)
(0.7042 -0.2414 -1.299e-20)
(1.004 -0.000224 0)
(1.01 -0.006454 1.693e-21)
(0.9969 0.008478 2.722e-20)
(-0.01363 5.923e-05 9.517e-22)
(1.002 -0.0007339 4.224e-21)
(1.15 -0.01948 -4.398e-20)
(0.2173 -0.1309 5.16e-22)
(0.8106 -0.1039 4.936e-21)
(0.1081 -0.01789 -2.192e-21)
(1.002 -0.0009738 0)
(-0.105 0.0004266 -1.573e-21)
(0.7958 -0.09626 -3.173e-21)
(1 0.004883 0)
(0.2191 -0.02582 2.199e-21)
(0.9998 -0.0001378 0)
(0.5814 -0.298 4.101e-21)
(0.008968 -0.002026 -1.765e-21)
(-0.04541 0.005078 -9.085e-23)
(0.4564 0.05632 0)
(0.09383 -0.002173 2.24e-22)
(1.003 -0.005041 -5.623e-23)
(-0.02489 0.006717 0)
(0.8444 -0.1844 -7.789e-21)
(0.1806 -0.01303 0)
(0.01048 -0.02465 -7.528e-22)
(0.1661 -0.01978 9.952e-22)
(0.3887 0.5399 -9.434e-22)
(1.152 0.1463 -7.083e-21)
(1.018 -0.1854 1.364e-21)
(0.7731 -0.2765 5.475e-23)
(0.02979 -0.002092 0)
(0.9991 0.005774 0)
(0.4626 0.03204 2.504e-20)
(0.3839 -0.1238 0)
(0.3786 0.09011 2.288e-22)
(0.001874 -0.02235 3.626e-22)
(0.06126 -0.01104 0)
(1.003 -0.0002087 0)
(1.094 -0.09614 3.905e-20)
(-0.05371 0.01835 -7.301e-22)
(0.1183 -0.02889 1.762e-22)
(-0.007484 0.0001438 3.456e-21)
(0.692 0.1472 0)
(0.005575 -0.005665 -3.481e-22)
(0.3416 0.07118 -8.422e-22)
(0.002199 0.000285 1.031e-21)
(-0.05304 0.0136 -5.262e-21)
(-0.04353 0.01523 1.688e-21)
(-0.09337 0.02528 6.049e-21)
(0.05166 -0.003837 7.764e-22)
(0.9981 0.0343 1.026e-21)
(0.6571 -0.09548 0)
(1.003 2.269e-05 0)
(1.001 -1.839e-06 0)
(-0.06361 0.01566 7.561e-21)
(1.033 0.0402 1.08e-21)
(-0.0645 0.005824 7.209e-21)
(-0.2034 -0.0404 -2.492e-20)
(0.2539 0.4433 0)
(1.109 -0.1033 -1.777e-20)
(1.046 -0.03255 -2.444e-20)
(0.9571 0.4132 1.87e-21)
(0.7096 -0.1649 -2.749e-22)
(1.01 -0.00541 2.556e-20)
(0.05294 0.03255 1.977e-22)
(-0.1446 0.05222 -2.057e-21)
(1.044 -0.03088 3.326e-20)
(-0.02197 0.005102 -8.488e-21)
(-0.005871 0.002102 -6.64e-22)
(-0.04987 -0.01712 0)
(0.9841 -0.2047 0)
(0.08709 -0.06416 -4.896e-21)
(-0.04595 0.02407 0)
(-0.07951 0.02806 0)
(0.9968 -0.001722 1.931e-20)
(-0.05296 0.006143 5.757e-21)
(0.4092 -0.09385 -1.399e-22)
(1.003 -0.004809 0)
(-0.02548 0.006365 3.946e-21)
(-0.08436 0.0251 0)
(-0.1355 0.06452 -2.864e-21)
(0.9998 -9.665e-05 1.208e-21)
(0.8662 -0.00182 4.391e-21)
(0.1775 0.01545 0)
(0.02341 0.0009931 1.149e-23)
(0.8485 -0.2855 -2.675e-21)
(-0.005803 0.001894 0)
(-0.1379 0.04449 6.98e-21)
(0.7138 -0.314 0)
(0.7824 -0.1748 8.238e-23)
(-0.008926 0.002974 0)
(-0.05465 0.003861 1.634e-21)
(1.001 4.21e-06 -9.768e-23)
(0.1699 -0.09966 0)
(1.116 0.3123 -8.449e-21)
(1.003 2.21e-05 0)
(0.7603 -0.2943 9.298e-23)
(0.001846 -0.000717 4.825e-23)
(0.2353 0.008456 -7.648e-21)
(0.06641 0.0121 -4.608e-21)
(1.144 -0.05135 7.359e-21)
(1.05 -0.1654 9.075e-22)
(-0.003358 0.001012 5.865e-26)
(0.01665 -0.001636 -1.487e-22)
(0.3448 -0.03772 0)
(1.004 0.02867 -2.249e-21)
(0.9977 0.002161 5.896e-21)
(0.9936 -0.1943 0)
(0.6841 -0.3043 -9.916e-22)
(-0.1009 0.03477 -1.202e-20)
(-0.02453 0.005555 0)
(0.2784 0.6531 -5.372e-21)
(0.208 -0.08752 -1.013e-21)
(0.3431 0.0006807 -1.155e-22)
(1.114 0.1327 -1.628e-20)
(0.2036 -0.08504 -9.747e-22)
(1.105 0.007917 4.164e-20)
(-0.02102 0.001615 0)
(1.005 0.0003607 0)
(-0.1965 0.07452 5.982e-22)
(0.00856 -0.03488 -2.374e-23)
(-0.08234 0.02157 -1.931e-20)
(-0.04771 0.01425 0)
(-0.1327 0.04233 0)
(0.9968 0.0006822 -1.71e-20)
(0.9867 -0.003943 1.164e-20)
(-0.04733 0.01669 0)
(0.9536 -0.1945 3.909e-21)
(-0.1128 0.03912 0)
(0.377 -0.04776 0)
(-0.07316 0.02681 -2.794e-21)
(-0.198 0.06245 -2.106e-21)
(0.2712 0.03006 -1.923e-21)
(0.1389 0.0273 -1.463e-21)
(-0.06067 0.004889 -7.663e-21)
(0.02893 -0.004324 -9.996e-22)
(-0.05123 0.006337 -6.117e-21)
(0.2464 -0.01693 1.27e-21)
(-0.0278 0.008389 5.357e-21)
(1.052 -0.1298 -6.053e-21)
(-0.1974 0.07423 5.75e-21)
(0.3762 0.8414 5.664e-22)
(-0.09061 0.03217 -1.701e-22)
(0.006783 -0.03241 1.029e-22)
(0.0007645 -0.0003446 0)
(-0.1314 0.0419 0)
(1.004 -0.0002759 0)
(1.004 -0.001589 1.608e-20)
(-0.177 0.06778 4.588e-21)
(-0.1904 0.06607 0)
(1.04 -0.1681 7.931e-21)
(1.002 1.642e-05 0)
(0.6819 -0.3167 -2.78e-21)
(-0.1149 0.03429 7.734e-21)
(1.132 -0.07332 -2.18e-20)
(-0.07682 0.0264 0)
(0.214 0.02585 -2.029e-20)
(-0.03986 0.01283 -6.379e-21)
(1.059 0.5614 -8.5e-21)
(0.9999 0.0004314 -5.153e-20)
(1.019 -0.1735 0)
(1.149 -0.03608 -1.332e-20)
(0.1274 -0.04992 0)
(0.1544 -0.0113 0)
(-0.1103 0.0316 9.443e-22)
(0.7394 -0.22 1.194e-20)
(0.4578 0.03377 4.361e-20)
(-0.02234 0.004026 0)
(0.3605 -0.03019 -1.177e-21)
(1.005 -0.07465 0)
(-0.1866 0.0564 0)
(0.6726 -0.3133 2.977e-21)
(0.5522 -0.06327 3.616e-21)
(-0.1351 0.04856 0)
(0.2011 -0.08733 -1.153e-21)
(1.005 -0.007329 -8.138e-22)
(-0.006513 0.002351 0)
(-0.003599 0.0009959 0)
(-0.1716 0.07243 0)
(-0.06015 0.009748 1.442e-20)
(0.06312 -0.04271 -6.839e-21)
(0.9995 0.01206 1.654e-21)
(-0.003302 0.0008446 1.41e-21)
(0.03326 -0.006022 0)
(1.001 -0.0001232 0)
(0.9998 -5.077e-05 -8.878e-21)
(-0.06304 0.005696 9.372e-25)
(-0.09209 0.02398 3.265e-20)
(0.0009583 -0.0003948 -4.859e-23)
(0.007417 -0.03313 3.75e-22)
(0.6796 -0.09867 -7.138e-22)
(0.4506 -0.1679 0)
(-0.04473 0.01484 -5.962e-21)
(1.027 -0.1695 0)
(1.069 -0.1367 0)
(1.006 -0.004244 5.676e-21)
(-0.03695 0.01259 -8.85e-21)
(-0.1178 -0.02537 0)
(-0.05793 0.02005 -6.889e-21)
(1.003 -0.2084 0)
(-0.002082 -0.0002501 2.12e-22)
(-0.1601 0.05869 -1.176e-20)
(1.002 -0.0006271 -4.655e-22)
(0.03152 -0.004252 0)
(-0.1171 0.03912 -5.023e-21)
(1.001 -0.0006401 -3.752e-20)
(-0.03905 0.005473 -2.896e-21)
(1.001 -0.0001276 -3.595e-21)
(0.998 -0.002466 1.44e-20)
(0.9934 -0.1361 1.796e-21)
(1.008 -0.1497 0)
(-0.006204 0.0008814 -4.978e-21)
(1.001 -0.001217 3.464e-21)
(0.2216 -0.02572 -2.826e-22)
(1.002 0.003811 0)
(1.153 0.517 0)
(1.018 -0.1359 4.749e-21)
(0.04226 0.01892 7.612e-21)
(1.086 -0.1238 -4.445e-21)
(0.2962 -0.05888 -1.783e-22)
(0.327 -0.04676 0)
(-0.02925 0.008454 1.197e-20)
(0.8946 -0.09976 6.43e-21)
(1.002 -0.001681 3.77e-21)
(1.022 0.009761 3.575e-20)
(-0.07817 0.02081 9.601e-21)
(0.5503 -0.1026 5.437e-22)
(-0.08978 0.03163 -6.983e-22)
(-0.04458 0.01487 0)
(0.07788 -0.004932 1.972e-25)
(-0.03568 0.01165 -3.163e-21)
(-0.003344 0.001089 -5.297e-21)
(-0.05652 0.009572 1.216e-20)
(0.4363 -0.1215 0)
(-0.003169 0.004326 -1.066e-20)
(0.2972 -0.03183 -5.886e-22)
(0.101 -0.01449 0)
(0.8154 0.3551 3.728e-21)
(-0.05876 0.03241 0)
(1.002 -0.004972 2.661e-21)
(-0.02846 0.005668 1.345e-20)
(-0.02579 -0.005868 1.225e-21)
(0.1633 -0.02655 0)
(0.9976 2.652e-05 3.723e-21)
(0.3381 -0.2268 3.356e-21)
(-0.1304 0.0414 0)
(0.6896 -0.06471 5.783e-22)
(0.7354 -0.2047 1.491e-22)
(-0.06711 0.006125 -8.481e-22)
(1.079 -0.1322 -5.644e-21)
(-0.0172 0.003758 0)
(-0.108 0.03888 5.825e-21)
(0.6974 -0.06567 1.734e-21)
(-0.07989 0.02559 -8.897e-23)
(0.2958 -0.08181 -6.14e-22)
(0.01107 -0.02556 7.865e-22)
(1.001 -0.0002757 0)
(1.053 -0.0688 -5.157e-21)
(-0.02936 0.005356 0)
(1.002 -0.005963 0)
(-0.03905 0.008533 0)
(-0.03703 0.00383 8.395e-22)
(0.9993 -9.573e-06 1.461e-21)
(0.9921 -0.2153 -6.334e-22)
(-0.02681 0.003181 0)
(1.037 -0.01628 0)
(0.8336 0.3575 -1.555e-20)
(-0.0117 0.02051 0)
(0.04571 -0.01378 0)
(1.04 -0.1456 -8.361e-21)
(1.003 1.807e-05 -1.016e-22)
(-0.04022 0.0098 -1.804e-22)
(-0.04765 0.01407 -3.701e-22)
(1.009 -0.001432 2.126e-20)
(0.8892 0.3215 7.335e-21)
(1.033 0.07984 5.06e-21)
(-0.117 0.0351 1.14e-20)
(-0.03666 0.009947 -5.963e-21)
(1.025 -0.1809 -1.683e-21)
(1.045 -0.02687 0)
(-0.004779 -0.0006083 -1.868e-22)
(-0.0005588 0.0001462 1.764e-22)
(0.3186 -0.06795 2.635e-23)
(0.4167 -0.06674 -1.948e-21)
(-0.1568 0.05731 -3.423e-21)
(0.05175 -0.004332 0)
(0.9929 -9.145e-06 -3.721e-21)
(0.5003 -0.05358 3.556e-21)
(1.003 0.005014 1.203e-22)
(-0.112 0.03532 0)
(0.6282 -0.3057 -3.033e-21)
(-0.04564 0.008166 0)
(0.7276 -0.2025 1.257e-21)
(0.01336 -0.0161 -2.024e-22)
(-0.008219 0.001248 0)
(0.9993 0.001752 -1.235e-20)
(-0.00154 0.0005646 0)
(-0.01978 0.006364 0)
(-0.02121 0.006097 3.076e-21)
(0.833 -0.06903 5.32e-21)
(0.484 0.1534 0)
(-0.1215 0.04344 -4.985e-21)
(-0.07643 -0.005882 1.058e-20)
(0.1377 -0.009916 0)
(0.7676 -0.1077 0)
(0.8876 -0.007378 -7.692e-20)
(0.007841 -0.0003932 1.821e-22)