/*--------------------------------*- C++ -*----------------------------------*\
  =========                 |
  \\      /  F ield         | OpenFOAM: The Open Source CFD Toolbox
   \\    /   O peration     | Website:  https://openfoam.org
    \\  /    A nd           | Version:  8
     \\/     M anipulation  |
\*---------------------------------------------------------------------------*/
FoamFile
{
    version     2.0;
    format      ascii;
    class       volScalarField;
    location    "5";
    object      epsilon;
}
// * * * * * * * * * * * * * * * * * * * * * * * * * * * * * * * * * * * * * //

dimensions      [0 2 -3 0 0 0 0];

internalField   nonuniform List<scalar> 
127143
(
134.5
100.1
331.8
277.4
295.3
291
239.7
359.2
379.6
56.67
354.9
429.7
626.1
280.7
17.35
18.28
130.5
0.2222
0.5546
18.87
1.237
32.35
0.2583
1.856
33.21
6.406
16.29
17.28
19.18
0.1555
2.406
6.606
50.23
6.243
0.1151
51.52
2.049
0.9395
1.587
4.981
0.5529
1.481
1.25
321.1
0.2195
6.081
18.57
1.274
2.338
1.646
16.37
0.03019
2.018
0.4244
0.005434
4.278
0.005257
0.3446
0.01602
0.4187
1.295
0.6981
1
0.09658
5.114
0.8728
0.1185
1.067
1.049
0.0008394
1.99
15.37
0.6942
0.01588
0.02703
15.47
0.01914
1.613
4.177
0.1318
20.87
16.91
3.98
4.087
1.252
1.491
1.438
22.61
0.8374
13.34
0.01996
0.3568
10.5
1.229
2.439
0.172
1.399
2.912
1.23
0.1151
0.1332
2.238
28.9
0.6187
1.451
1.258
1.405
0.0008465
1.853
0.01756
16.27
22.42
1.64
6.198
0.02062
0.6745
0.01991
0.02703
0.01891
31.85
0.01674
3.765
3.018
0.2815
20.04
8.169
0.8422
0.02054
2.353
4.969
1.81
2.153
0.8339
1.588
39.67
1.769
0.07784
1.095
16.07
0.07758
0.371
0.01837
1.86
1.039
1.994
4.543
50.62
0.1068
2.209
36.58
0.6694
2.354
0.9015
0.2723
7.499
1.226
0.3434
6.708
1.257
3.047
2.015
78.56
0.02048
1.806
6.789
4.686
2.239
1.308
13.78
0.03076
7.938
1.036
0.7575
1.732
0.00412
2.939
4.644
2.346
1.74
0.03029
1.735
0.05088
3.084
2.918
4.821
0.6841
0.3482
5.956
1.747
0.03578
2.608
3.211
0.07461
12.66
47.04
0.8389
0.112
0.112
50.77
0.01844
0.01693
0.032
0.07459
1.963
221.3
1.232
0.1285
1.022
0.1501
0.0208
0.1949
1.561
0.01573
13.59
2.204
33.42
10.7
1.113
1.679
0.1269
4.278
0.02934
2.421
1.85
3.387
7.748
5.673
0.9243
4.7
1.018
1.295
0.04961
0.6663
56.69
1.284
0.1936
1.804
90.88
0.01685
2.436
3.131
4.353
1.863
6.546
1.402
30.43
1.97
15.52
15.65
0.001507
2.162
4.387
1.389
1.184
3.251
1.887
0.02029
13.42
1.225
0.1878
0.844
0.03665
0.3482
0.01833
1.567
4.505
2.985
9.209
1.631
0.9585
4.685
0.004016
1.136
2.477
0.841
2.551
1.62
1.926
0.007313
1.443
0.002652
0.1772
0.6044
0.02251
0.02037
41.83
1.867
0.02026
1.91
0.03111
0.874
0.478
0.192
0.8634
0.01556
2.251
2.266
6.672
1.859
0.9318
3.064
0.7145
0.8867
0.6557
3.576
4.774
1.005
0.01577
0.5126
0.7921
1.483
10.83
4.433
0.002731
0.01977
8.339
1.107
3.073
0.295
0.0315
0.2479
2.184
0.03394
1.393
8.498
1.45
0.05666
3.508
2.422
4.64
0.862
0.02037
0.1115
0.1016
0.1016
0.2587
1.847
0.7491
0.8646
1.965
0.07446
1.114
1.92
2.47
5.069
1.952
2.996
2.086
3.025
2.656
2.842
0.478
2.799
2.515
0.03891
2.756
1.19
3.915
0.01372
2.557
1.019
0.9537
0.2682
1.663
1.63
0.04061
0.01854
0.01826
5.317
0.007429
2.445
0.0343
3.688
1.713
0.0338
0.1652
2.168
55.36
1.17
0.007909
0.366
7.086
2.838
0.7385
0.01961
9.217
0.07839
4.698
0.8635
0.5867
0.01457
0.7296
5.901
3.362
1.761
2.422
0.7315
2.254
0.03879
0.03516
4.126
0.03008
1.287
2.971
0.07947
0.8007
1.375
0.8663
0.1375
1.647
2.987
3.504
0.3625
1.161
2.89
2.398
1.373
5.215
1.096
5.378
2.172
11.22
2.442
0.001548
1.037
0.2322
1.143
0.291
4.093
0.1637
0.05468
2.427
2.97
0.2332
1.636
0.04021
0.961
2.931
0.02924
0.01545
0.02274
1.561
0.08033
1.981
0.02276
2.774
0.0185
8.087
0.0187
1.558
1.2
2.551
0.7619
6.777
0.08447
1.91
3.491
3.945
1.712
0.9493
0.8051
1.884
0.66
4.414
1.929
0.003703
0.01765
1.684
3.099
0.03253
1.096
0.3793
0.2776
1.077
0.103
0.006153
7.84
0.3679
4.734
1.672
18.77
7.919
5.333
4.39
2.65
1.6
1.554
0.01565
2.75
0.0186
7.155
1.369
2.066
4.451
112
1.951
3.91
0.1862
4.092
0.01707
19.18
0.01763
2.13
0.8172
89.63
29.3
78.22
0.07079
2.703
3.008
0.01998
0.9092
3.296
1.906
0.725
1.225
2.609
1.091
10.9
0.003668
1.784
42.31
6.007
2.768
7.457
0.0155
0.6531
0.07226
0.6455
0.01535
3.073
25.35
5.459
0.04395
1.685
0.2224
10.22
2.922
20
0.5624
0.01903
3.426
2.434
0.03634
0.7337
1.02
2.132
1.619
3.27
4.4
0.8468
1.181
4.733
1.897
2.339
0.01563
4.335
1.683
3.667
0.9659
1.644
0.08464
0.06711
0.1725
3.077
4.645
0.01925
0.001723
2.037
7.596
1.4
2.684
5.503
9.188
0.9099
0.01826
0.03762
5.067
1.196
1.634
0.004229
14.72
0.8475
2.212
0.007626
4.259
0.01914
1.33
2.6
0.5453
0.001668
3.179
0.8421
38.57
0.006431
1.36
10.6
0.02218
0.7926
0.01963
1.36
1.573
0.02265
3.58
2.449
10.32
3.448
1.712
2.731
2.751
6.702
1.51
9.889
1.628
2.833
1.752
3.165
0.004229
3.721
0.021
4.688
0.02118
1.813
0.04645
0.02032
0.3605
5.296
1.454
0.003608
0.007881
4.474
17.2
3.514
2.756
0.9222
1.957
1.195
3.057
2.44
2.756
5.515
0.003611
3.437
2.401
0.5312
0.725
0.02069
0.001729
1.412
14.61
1.554
16.18
0.02091
0.001064
2.024
3.363
0.03063
5.396
0.2977
0.07097
3.384
1.146
2.35
0.3699
289.5
7.373
1.682
1.916
1.846
4.218
3.808
5.518
0.02664
2.271
5.675
1.262
0.01077
1.839
0.7838
0.8654
0.04476
0.0101
28.86
0.1867
2.972
3.573
5.407
0.5153
0.7261
3.075
0.3746
3.415
0.01568
0.007742
2.515
0.2296
4.925
0.8396
11.19
0.8775
6.448
0.1875
0.2627
0.001057
2.734
0.1041
3.238
37.97
1.084
1.527
1.139
0.001524
1.052
1.635
13.17
0.3893
0.7999
2.441
32.69
1.388
6.469
0.6303
2.979
1.139
0.7741
0.828
0.477
133.5
0.8003
0.03003
1.886
4.001
1.377
0.01483
3.962
0.4701
1.382
0.0009588
16.47
2.324
4.391
0.001015
5.806
2.597
3.655
2.836
0.001113
1.185
7.818
3.518
1.243
0.01822
1.905
11.27
0.01556
1.078
0.7298
4.07
1.934
0.6905
1.105
6.095
2.769
0.01878
1.193
0.7537
4.535
3.266
0.4374
0.8944
4.186
0.02554
1.849
3.351
1.702
52.94
1.683
5.308
1.761
1.824
0.9816
0.07265
259.5
1.787
3.336
6.669
1.517
3.063
2.269
1.864
0.04011
0.4488
0.6498
0.0009636
2.442
7.053
1.426
2.839
0.02832
1.164
3.041
0.01577
0.02041
0.7234
0.717
0.9211
3.131
1.327
16.58
0.7402
0.6986
0.01085
1.463
2.124
2.308
3.257
1.249
0.002335
0.01509
0.07295
16.18
0.0116
0.1708
13.91
1.156
6.021
0.004696
2.026
1.136
0.02649
2.98
0.06853
4.735
47.22
4.427
1.35
5.888
0.01886
3.419
0.4277
2.946
7.046
4.129
39.23
0.433
0.6074
1.586
16.63
0.02419
0.6707
4.948
9.148
5.749
14.09
0.00232
0.1314
5.139
8.106
26.33
3.844
332.4
6.552
72.09
2.031
5.857
0.4402
8.82
0.0192
1.513
0.00181
0.00177
1.952
0.02587
2.927
0.4668
5.959
0.4469
0.04898
9.846
2.011
0.01436
0.3718
1.882
0.04629
3.923
31.59
2.42
1.154
16.23
0.8802
3.6
0.01892
2.03
3.189
0.01327
3.328
1.686
0.6566
0.02618
0.03091
0.3455
23.47
1.775
33.39
1.078
3.305
1.762
12.25
3.651
0.002242
16.84
0.9299
0.002236
2.056
42.78
0.4429
6.327
0.5711
0.6962
15.44
22.57
1.965
0.01818
0.02861
1.084
2.561
2.224
3.546
8.698
13.61
1.205
0.2001
13.65
0.08611
8.956
0.01691
1.275
12.26
1.333
2.357
1.202
0.02424
0.01733
5.604
0.446
3.089
2.192
4.073
1.113
1.433
3.141
3.17
19.81
2.105
2.54
3.596
0.7824
0.9955
12.06
2.943
14.06
29.58
1.226
0.01505
0.01065
1.094
1.697
0.5703
0.1799
3.218
1.201
0.3681
3.565
1.369
2.973
2.978
0.1382
0.4719
0.3482
17.42
3.611
2.799
0.9153
0.6082
5.938
1.811
0.7694
0.791
3.665
1.484
2.241
14.24
0.0166
11.29
13.31
0.7405
3.39
17.59
0.01901
20.58
22.21
0.002558
0.1533
2.164
1.378
40.92
6.413
1.469
5.867
3.513
0.4811
0.4479
0.02303
3.764
1.181
2.929
0.8888
10.64
1.669
0.003632
16.02
2.938
0.02969
5.164
0.002303
0.01712
0.9432
0.2724
22.88
0.01726
2.987
0.02719
7.788
0.2287
0.3591
0.6595
3.449
2.557
3.591
0.9593
0.006998
0.05856
1.353
2.084
3.159
3.15
6.028
3.722
22.55
3.574
3.771
5.582
2.161
5.625
0.6181
0.4214
0.01455
3.843
4.278
4.588
0.0007502
9.422
0.9504
1.138
2.342
2.61
0.5133
4.962
0.6994
1.13
3.762
4.717
7.194
0.003274
0.7177
4.134
0.01742
2.802
4.828
0.2081
0.8868
4.916
0.05923
0.615
0.865
2.921
0.3426
0.1056
2.471
2.489
0.01374
0.4473
0.04195
1.192
2.63
0.924
0.04352
8.019
25.7
3.573
2.213
0.96
10.29
0.00084
1.503
0.02345
1.505
3.097
3.422
2.355
9.725
14.58
0.04512
93.42
4.838
4.21
0.9527
12.52
0.7284
0.3794
3.808
1.288
0.05998
23.16
1.936
1.84
4.34
1.903
6.282
3.159
7.359
1.53
2.075
1.357
2.567
2.021
0.4497
28.66
0.204
1.971
0.216
3.352
0.1056
0.02167
1.271
8.941
1.291
0.03687
23.64
4.898
0.0257
16.83
1.444
1.388
18.6
1.207
2.312
189.4
0.371
9.43
0.9403
1.27
9.16
2.32
3.102
2.677
4.962
0.1419
0.2297
0.9694
2.167
1.245
1.157
0.924
16.61
1.248
0.4034
1.203
1.527
0.6774
0.9148
28.54
0.07724
14.53
5.604
2.451
1.817
0.02679
0.8436
2.682
0.6974
6.553
4.62
3.567
0.01806
2.99
7.886
1.574
17.75
1.877
0.4804
4.382
0.01609
4.817
2.126
23.14
2.818
0.06852
1.02
0.0162
43.41
21.6
1.764
0.5929
1.262
0.002915
0.04598
4.895
1.798
0.6148
0.1626
0.0006973
0.000699
3.903
1.449
0.5611
3.745
2.007
15.77
0.8989
3.944
2.697
2.722
0.05512
2.367
0.9222
1.886
18.62
1.005
0.6544
2.077
0.9381
1.609
70.1
0.3508
1.612
0.962
0.6697
0.5307
2.089
59.94
0.2673
8.073
0.008272
1.869
16.71
0.06452
30.05
1.182
1.973
2.909
0.01162
1.029
25.03
0.01896
1.633
3.566
1.138
25.3
0.6378
0.5832
5.94
7.173
1.869
4.411
0.1721
2.036
22.43
46.41
4.055
1.801
0.02192
3.08
0.4845
3.051
10.67
0.7571
1.837
0.01138
0.6579
2.738
0.01458
0.87
0.002523
26.46
0.9063
8.286
2.59
1.818
8.744
1.538
1.453
4.405
90.25
1.796
2.351
1.764
1.378
1.119
0.0841
2.778
0.01786
0.9047
0.05473
1.146
0.01474
3.995
2.495
0.1778
0.0154
7.121
0.2362
4.228
0.2625
0.1978
2.607
1.457
0.05421
101.4
6.555
26.81
1.767
0.933
2.131
1.929
3.032
0.2353
4.955
2.033
5.045
4.673
3.026
1.722
0.5505
0.01761
78.37
1.625
13.5
0.02486
17.85
4.729
2.363
2.948
0.01961
0.01815
0.193
0.354
0.08377
0.7799
1.191
0.7146
1.728
0.03814
0.6537
8.031
2.156
0.1733
1.297
0.5288
5.541
3.762
1.599
2.343
1.111
0.01619
4.242
4.098
11.01
1.97
0.06103
1.866
0.02048
1.506
2.891
5.949
0.2155
0.03718
1.525
2.539
17.63
27.32
0.5767
1.772
4.629
0.1812
0.01026
22.22
3.017
19.99
0.1483
34.12
2.544
0.01397
3.092
13.5
0.7727
0.4101
1.045
5.509
1.235
2.172
0.8049
11.36
0.09603
7.446
4.509
2.702
0.001204
0.001172
2.232
2.301
67.29
5.588
3.055
3.069
73.43
0.0186
3.26
0.02403
0.01731
0.01393
1.223
0.004762
38.26
0.0229
24.06
0.5808
3.672
2.614
2.583
0.001079
38.94
0.2943
16.52
1.152
11.53
0.01533
2.781
3.876
1.075
15.81
7.872
1.384
20.63
29.53
0.1024
0.01031
10.3
0.0006354
0.1978
0.5369
12.09
0.006688
4.217
0.02964
2.341
1.438
0.9491
13.22
0.005087
1.28
3.537
2.57
0.1902
0.804
0.4767
0.02069
0.09323
2.266
101
1.736
1.386
0.02208
18.12
0.4696
0.2439
0.0007763
1.294
2.368
2.385
0.02383
5.274
0.01848
2.539
0.1056
1.113
4.053
2.713
5.475
4.52
2.321
0.007793
1.672
3.945
3.399
18.03
4.282
0.5687
0.05831
1.974
67.64
1.827
8.653
19.99
0.001109
0.3002
0.01518
2.596
2.215
1.937
0.02734
9.486
0.02856
0.3074
2.409
0.009057
0.529
0.322
3.359
1.019
0.02155
2.023
0.03856
3.63
15.16
0.7959
0.5738
1.833
0.04197
1.251
2.736
15.43
3.941
2.315
3.057
2.628
2.807
25.27
0.1053
0.3672
4.094
0.06662
2.039
1.254
0.3706
1.217
0.02323
0.00912
9.719
0.3463
1.23
2.289
18.85
2.016
11.83
0.5303
0.01859
12
1.785
0.2146
2.229
0.03935
1.724
0.1442
0.7614
8.61
0.957
3.019
1.482
1.79
0.03595
1.222
0.9635
2.557
8.604
0.02807
1.158
4.895
0.01644
0.02677
3.147
0.0008666
1.705
1.05
0.9341
3.516
0.5293
1.603
0.003203
0.5383
3.398
0.003387
0.5335
10.61
20.24
0.1727
3.252
6.617
0.5356
5.392
0.8153
1.458
20.01
0.0008249
0.001395
3.439
0.02478
8.666
3.26
1.574
5.526
3.596
0.02655
3.121
30.5
260.6
4.57
3.584
2.756
0.4079
1.223
0.6755
1.822
4.533
4.502
5.699
5.131
16.06
1.289
0.5498
0.01846
19.52
0.4834
1.517
0.6098
0.08568
1.894
4.602
0.4729
0.1661
4.264
4.298
1.226
4.276
1.053
18.84
2.708
0.0308
2.707
14.48
1.366
1.519
15.03
0.01734
17.42
17.2
1.626
0.001787
1.348
0.9562
2.916
5.224
1.304
3.497
0.003518
2.346
1.943
0.1308
1.109
0.0144
2.356
24.56
1.353
3.383
70.52
1.518
13.41
0.001499
22.53
2.056
0.8289
0.06423
0.4577
0.827
1.393
1.253
0.001472
1.748
24.15
39.28
2.102
0.7839
0.7826
1.277
0.018
0.02811
2.191
0.4705
0.01572
1.171
1.32
1.947
3.353
1.083
2.883
1.205
29.39
22.47
20.5
0.2071
1.528
21.33
0.7895
9.301
0.3987
0.8113
0.6737
46.73
0.5056
0.6911
0.00088
0.08127
6.175
2.35
0.01991
0.04582
0.9408
4.335
1.367
1.615
7.376
5.174
0.0277
3.157
0.8649
2.703
5.363
0.3712
0.07929
1.994
1.909
0.5358
3.73
0.03501
12.98
0.6905
3.667
0.252
2.04
7.579
0.8842
3.194
1.197
4.537
1.359
9.943
0.3258
0.8962
1.747
1.371
4.421
2.862
36.44
3.892
0.01477
3.294
0.3943
3.366
1.412
0.003954
0.7639
0.2062
11.99
0.00105
2.62
2.297
2.422
1.009
1.301
0.2007
21.77
0.3429
0.02422
5.099
0.04257
1.334
0.05291
0.5389
0.8055
0.08387
0.3937
1.62
8.563
0.02384
0.01972
0.9404
0.764
4.072
0.05397
1.661
2.302
5.014
2.331
0.3561
2.321
1.239
0.1577
1.268
10.33
0.6783
20.61
2.087
0.7294
19.19
0.01988
0.007788
1.455
0.4386
79.39
0.02605
0.7035
4.624
93.13
3.462
3.618
0.007609
0.007598
2.173
3.04
2.591
7.013
0.05884
0.4962
0.5492
0.1344
3.226
2.265
1.363
2.255
4.608
0.1662
1.286
0.116
0.761
3.01
4.103
4.416
1.887
27.02
5.563
2.627
1.225
4.102
2.004
0.1812
3.429
10.27
0.001647
0.001636
3.322
2.97
6.609
1.753
7.364
4.008
0.004341
0.02046
2.574
0.0994
1.334
19.3
4.704
0.2932
1.882
0.1132
28.24
8.342
0.001235
0.7967
0.8522
1.399
1.73
3.592
2.022
3.195
1.904
1.689
0.7827
0.8967
10
1.899
1.689
4.021
53.73
2.928
5.014
4.31
4.619
1.833
1.136
12.42
0.4456
3.104
0.01756
1.214
0.09004
1.579
0.6551
13.59
2.629
0.284
5.715
65.12
3.465
1.727
1.228
2.932
11.88
0.00387
1.779
0.7727
35.16
2.093
1.649
0.2608
0.475
0.02103
1.358
49.21
0.7374
9.839
1.036
0.1838
8.484
0.1162
1.504
0.4745
1.262
9.848
0.2817
0.9765
0.6905
0.07981
5.201
0.8588
25.19
5.746
1.37
0.0105
1.81
1.006
8.735
11.37
0.8513
0.559
2.864
0.0185
2.6
7.624
2.362
3.483
1.93
11.04
2.754
5.75
4.989
0.5041
3.101
15.16
0.4157
0.1553
26.45
0.0007749
0.3671
0.01935
0.04948
4.461
0.01622
5.206
2.032
0.4706
1.355
2.973
8.968
2.172
12.26
2.092
1.346
68.4
1.382
1.945
0.03026
39.33
0.8494
11.13
7.256
0.0008979
4.586
2.707
0.6996
0.9611
11.69
11.58
5.254
1.223
1.437
0.03007
0.4962
0.06797
0.7203
0.9468
5.862
1.501
1.735
9.325
0.9804
0.01503
4.502
1.525
0.4961
1.015
1.547
10.62
3.083
10.35
11.8
3.172
1.632
6.586
1.892
3.088
0.2573
42.12
4.84
1.257
1.748
0.01227
3.07
3.976
1.227
0.7054
13.28
4.73
5.539
0.6782
2.53
20.4
0.01512
17.65
0.7026
0.06696
1.864
4.357
0.01498
2.722
0.9621
1.54
28.42
1.81
3.551
59.41
1.497
1.67
0.1914
0.1914
1.528
1.397
1.395
5.796
1.223
0.0198
11.44
4.295
2.388
0.01659
0.0151
2.163
0.9209
1.546
181.7
4.152
0.007284
2.456
22.66
0.2389
3.245
1.839
0.002333
0.5793
5.373
0.3377
2.071
0.0207
0.01011
0.01438
0.004331
0.1304
2.193
1.146
7.125
0.728
3.66
1.394
6.536
0.004336
1.938
1.845
10.75
6.231
10.83
4.982
1.098
2.141
2.086
1.316
0.0992
1.276
100.4
2.551
5.438
1.178
4.984
0.02053
39.26
1.873
2.795
0.5897
0.05413
43.51
0.0266
2.095
6.11
0.00534
3.762
2.117
1.012
3.017
21.99
0.08416
4.049
0.004009
2.128
1.004
3.105
1.131
3.866
0.0124
0.01594
0.3574
6.885
4.614
0.1607
1.078
2.895
0.7094
20.84
2.247
0.5909
0.8318
2.139
1.779
0.2816
26.97
1.086
0.02088
18.16
0.01884
0.01507
0.3236
0.001472
22.99
1.032
3.316
1.391
2.52
0.0332
0.1706
4.397
1.817
1.087
0.00221
0.4644
80.04
10.14
0.09195
13.29
11.27
19.93
0.001199
0.5632
0.8659
0.2074
0.02043
0.5234
5.494
48.37
0.2963
2.79
59.84
0.02123
2.529
7.74
1.192
0.02627
3.134
56.03
14.49
25.89
0.3954
1.356
11.91
0.0663
2.062
0.01615
1.048
6.825
0.5306
3.181
23.73
0.2474
4.388
3.926
0.1686
0.03394
2.186
4.731
0.4418
12.87
3.5
0.5367
0.8768
2.112
3.86
1.821
0.02152
1.845
2.211
1.85
3.402
4.795
2.119
12.12
27.36
32
26.73
2.263
0.1022
8.086
0.02585
3.605
9.662
0.02186
108
0.1308
2.714
17.18
3.96
3.452
8.148
3.981
7.269
0.0159
174.1
1.74
0.0006835
0.8379
2.857
65.19
12.32
37.2
0.8229
3.149
32.36
1.07
0.2599
1.244
13.96
0.00833
1.75
1.103
4.213
0.9132
1.995
0.5757
5.672
1.501
2.099
16.44
0.0228
5.238
0.2903
1.201
2.999
0.02462
0.1806
1.113
6.075
5.203
26.74
0.0006486
0.01622
0.6175
1.977
11.93
1.561
0.5599
0.005724
0.03593
3.936
0.005732
3.157
3.151
0.1776
2.22
2.194
11.98
25.39
16.51
0.06365
2.419
2.216
3.854
0.4996
0.6512
15.78
1.05
5.502
2.001
9.627
1.581
0.8984
35.1
2.053
1.026
1.994
0.0008483
1.173
0.1701
0.01802
0.9987
15.3
1.761
3.778
0.8718
34.89
68.47
0.8748
69.31
0.004282
0.3298
0.05347
0.08751
2.148
0.127
6.952
22.06
3.551
7.78
0.4449
1.489
3.613
1.875
0.9132
4.917
1.335
17.95
3.764
0.001967
2.751
1.037
0.05959
0.04582
3.681
0.03067
3.191
2.447
2.039
0.9472
4.628
0.001085
0.3253
0.07675
3.801
18.97
7.361
1.213
0.01421
5.421
0.01277
0.3026
2.424
0.5734
17.36
2.336
2.674
0.5697
18.86
0.8997
0.003839
1.191
3.233
0.04479
0.7943
0.03165
2.718
5.175
6.108
1.955
0.006694
3.698
1.934
2.537
23.87
3.253
7.403
0.01946
0.4661
0.7109
0.9174
5.703
0.7425
0.1765
1.287
0.2739
4.585
2.499
0.003968
0.1642
0.01688
0.04833
0.6418
9.81
3.457
0.0183
1.746
3.086
1.458
0.06912
1.508
0.1859
4.023
0.00284
136.2
1.331
4.272
0.0009413
0.1572
22.41
0.0376
1.317
2.165
3.146
2.832
2.816
0.0269
1.974
3.977
1.695
2.133
2.345
0.6305
1.393
1.617
10.92
0.01277
1.059
1.167
15.22
0.4648
0.07641
4.387
10.08
1.178
1.186
0.8099
8.769
0.06977
0.743
5.813
0.9266
4.041
1.059
0.002088
2.814
20.34
0.7269
3.877
10.28
1.609
1.101
0.01921
0.03565
0.2069
0.001102
55.49
2.167
0.0447
0.01812
1.068
37.8
0.04133
1.295
7.794
1.399
1.126
3.962
18.52
3.784
4.189
2.868
26.21
6.938
0.01792
1.658
1.517
2.014
0.0233
0.2926
2.53
1.606
3.34
37.31
13.52
0.3232
3.765
39.92
0.6138
6.757
1.236
0.9003
0.5939
5.236
8.728
0.01854
3.49
1.137
0.04319
9.91
1.042
1.846
0.1524
1.738
3.065
2.863
2.776
0.01445
0.01862
0.3489
3.898
0.1716
0.8159
0.02585
9.829
0.7765
1.032
2.089
4.172
0.4141
1.706
0.0104
23.12
1.973
26.34
2.305
0.1547
7.357
0.9941
3.797
20.26
0.5571
20.42
0.1012
0.1028
1.373
0.124
0.01791
50.1
1.441
3.703
6.856
1.249
1.467
0.001585
43.48
0.06218
1.689
0.1632
0.3477
2.819
1.67
1.599
1.788
0.7248
5.408
0.008265
1.613
8.193
24.3
10.4
0.2103
2.317
0.7372
0.1648
5.571
2.873
0.1397
0.06706
3.389
20.72
0.003112
0.01253
0.7527
7.166
0.9254
14.57
0.1397
9.741
2.114
1.175
0.07034
0.1968
3.134
2.85
5.377
1.22
5.257
0.09958
4.14
0.001508
4.626
28.17
0.06156
3.069
0.8225
14.06
10.28
5.98
0.1531
0.0104
3.099
0.3368
0.0168
5.26
4.507
0.6405
0.1567
0.1647
0.1504
0.03136
5.983
1.802
0.02015
9.9
1.767
6.859
0.0324
0.03843
0.01585
0.07618
1.307
0.4672
2.586
18.69
8.492
1.646
8.418
7.131
0.02399
20.53
3.335
7.029
0.7219
0.3162
0.7346
12.1
7.051
8.033
3.4
0.07228
1.321
4.497
1.076
1.272
0.2858
3.493
0.3166
3.237
0.001233
1.446
1.184
0.9083
0.6552
6.15
53.01
15.77
0.01044
67.31
1.498
0.1716
5.931
0.02908
5.561
2.178
0.007788
3.909
5.538
0.2052
0.9662
0.5301
6.318
0.01877
0.536
13.55
0.5661
0.01656
3.909
1.544
0.04959
0.503
0.4941
1.463
19.85
2.681
3.583
0.727
7.133
1.524
0.01921
0.06416
5.789
1.139
1.961
0.06824
37.41
1.507
0.802
4.025
1.467
2.729
0.03426
0.1186
3.47
2.31
0.08954
1.515
3.336
0.5535
1.859
2.267
0.7526
0.08627
0.6758
0.8418
1.162
1.074
0.06471
4.762
0.003366
1.618
0.9244
0.4674
8.221
1.756
6.86
0.7623
0.6117
0.01744
0.007478
0.6814
0.7757
4.415
7.301
2.485
2.575
11.08
1.862
0.814
3.522
2.226
8.023
2.438
0.07108
4.551
0.7188
3.138
0.6852
0.7589
1.936
1.604
0.03874
3.522
0.2446
0.02206
0.2115
4.562
0.02097
91.27
3.148
5.044
0.01778
1.828
2.594
0.001042
1.979
2.152
8.496
3.45
6.348
0.03385
2.721
0.1178
0.4635
3.887
9.143
0.9294
2.311
64.07
0.007388
0.02524
1.367
2.162
3.945
0.4983
2.407
3.071
0.6801
1.099
0.01786
7.508
3.68
0.2203
1.375
0.01652
2.215
0.1501
1.712
2.446
1.988
0.01676
14.27
1.289
0.02584
3.553
3.531
0.2006
0.01124
0.01515
2.556
28.22
0.9218
0.4991
1.871
0.1473
1.506
1.075
0.01346
0.7092
0.6689
18.23
11.22
5.252
0.01219
2.348
1.212
7.416
5.604
14.55
1.314
2.044
1.512
1.252
2.729
4.791
0.315
0.001138
0.4679
0.05187
28.49
0.01855
1.164
2.4
0.9954
1.105
8.18
2.048
25.6
0.9
18.02
1.351
0.5455
4.085
17.2
1.429
21.49
24.84
0.02171
22.18
7.466
4.964
7.287
1.822
0.4423
3.245
1.097
1.009
0.07625
1.052
1.05
2.762
1.786
1.791
0.9935
0.4484
0.3136
21.79
2.226
39.82
1.129
2.362
0.006111
4.472
1.858
7.054
0.883
12.36
3.606
1.746
0.2093
8.838
0.1988
1.176
1.411
0.1121
0.4932
1.219
0.9728
3.247
3.173
0.6505
1.683
1.595
12.96
0.9605
36.13
0.07976
0.7673
2.897
0.6434
0.08121
8.666
0.02004
0.01598
0.0211
1.738
1.342
6.178
0.1748
0.3549
1.76
0.09634
50.17
5.519
21.58
1.554
0.1381
2.781
30.1
0.1361
5.493
0.03229
1.762
0.6529
4.323
0.4785
0.01101
0.009722
2.35
0.7254
0.08338
21.32
1.494
0.05488
0.02649
0.9625
0.05342
3.709
6.413
0.005317
1.19
4.053
6.201
3.911
23.12
2.732
0.249
0.8396
1.788
0.3952
4.416
1.831
1.395
3.037
2.116
63.68
0.02802
1.848
15.19
14.06
0.04004
1.455
0.0223
0.7828
0.6241
1.942
1.876
1.732
7.94
0.3156
3.282
14.46
3.995
4.6
2.703
1.71
0.6069
1.204
4.885
1.492
3.079
0.003095
23.15
12.35
3.626
0.8133
1.045
6.618
2.334
0.4911
0.1068
76.9
2.403
0.0007961
0.001404
0.003223
1.96
9.511
0.5346
30.85
1.044
0.001109
1.697
1.219
0.7812
2.363
98.25
5.694
2.428
8.375
1.602
1.944
11.9
1.812
1.081
0.697
3.631
1.506
0.482
1.816
2.437
0.3298
1.351
1.418
0.5553
22.36
4.632
0.06156
7.337
0.7207
19.11
5.328
0.008946
0.2353
2.937
0.03607
1.476
9.067
5.025
0.6802
0.01474
0.3213
0.9045
1.062
0.09665
2.329
0.009917
2.289
1.319
3.543
4.849
3.386
3.533
2.685
7.124
0.7566
1.055
0.02784
26.44
0.06991
0.001401
4.467
0.01824
3.635
0.8798
48.34
0.0448
2.015
3.368
2.091
2.271
0.2158
1.789
1.683
2.364
4.243
1.529
0.1556
0.01686
3.369
3.897
0.1758
2.156
5.024
9.434
1.917
0.00779
2.168
2.472
35.51
1.251
1.866
1.73
1.749
0.01994
0.644
31.71
3.289
0.04669
0.3406
5.235
0.1026
1.289
3.991
1.855
0.04694
0.05296
0.6059
0.01861
0.01318
0.02444
0.6565
20.3
3.538
0.3199
1.341
0.5574
0.2241
0.1591
1.103
1.51
0.09051
0.05568
3.267
0.259
0.02864
5.937
1.704
0.555
21.19
11.03
0.02732
3.105
0.8164
3.13
1.685
8.226
0.1633
1.38
22.58
0.9499
7.963
0.3964
4.234
1.697
1.68
0.7718
22.54
0.1289
25.61
2.528
0.03168
0.04346
0.004196
3.221
1.307
12.19
4.246
27.68
0.1727
0.01056
2.219
2.059
0.2885
0.0174
3.02
0.759
5.313
1.692
15.02
4.562
2.935
2.659
1.573
0.1028
14.99
2.323
1.756
0.8301
0.1299
0.01665
1.485
0.9472
2.752
10.62
0.9276
0.05834
2.07
0.2125
0.2172
0.01794
6.14
1.401
8.114
3.749
1.396
0.6089
1.914
1.303
0.5394
1.356
0.4249
0.2921
0.042
3.114
17
0.3456
0.836
28.04
0.007011
0.02121
0.5936
0.03927
0.0571
4.323
0.0653
0.0652
1.285
0.013
1.568
18.33
2.136
0.5295
0.3092
0.03387
0.05188
0.7983
1.595
3.088
16.47
1.054
0.005157
0.8639
1.323
4.105
0.2062
0.04712
0.07306
4.254
0.12
0.07079
2.985
1.841
0.1346
0.03919
3.654
0.01192
0.02955
0.01224
46.74
0.148
4.751
0.7986
0.03796
0.1535
0.6081
1.554
3.137
1.605
1.051
1.008
0.106
19.42
1.08
2.07
0.0374
4.79
3.333
2.02
4.903
0.4163
3.353
0.7764
0.317
10.59
0.06592
139.9
1.189
25.01
0.1029
4.5
0.01975
0.1067
0.7795
12.54
1.176
5.4
0.452
0.001514
22.01
0.001499
7.573
31.61
0.5333
0.4194
0.002175
7.591
0.01777
0.5122
1.311
1.02
1.276
0.01692
31.69
0.05222
3.906
4.082
1.593
5.014
21.06
1.477
12.74
1.12
0.02041
1.135
1.994
0.02037
0.0835
5.086
0.877
26.83
2.93
6.111
0.02647
0.9333
0.02551
0.01635
0.04084
4.358
0.2865
0.5629
0.001174
1.628
0.4381
3.611
1.65
15.63
0.02462
3.01
5.256
1.344
0.2975
1.585
0.03329
1.041
0.006979
2.085
1.763
0.02521
1.593
36.61
4.19
4.323
1.327
12.01
4.832
0.815
3.288
8.717
1.101
27.97
3.46
1.356
3.539
2.314
1.503
7.935
2.245
0.004039
2.306
0.002776
3.286
24.1
1.253
9.762
13.5
1.009
4.039
0.001264
1.804
1.543
40.67
0.8529
0.01452
1.246
1.713
1.505
0.001237
1.595
1.504
1.382
0.5309
5.04
3.287
21.65
2.963
2.84
1.641
1.513
4.999
0.02728
4.892
2.409
0.02155
2.239
2.145
3.296
3.988
3.349
0.05825
6.673
5.206
0.1787
1.826
5.86
40.03
3.417
0.004928
0.001928
1.125
3.379
1.077
0.0125
3.987
3.625
3.846
15.66
0.007812
1.593
5.754
1.89
39.37
2.056
2.287
1.226
1.718
1.06
0.0212
1.932
19.66
1.823
1.747
0.5013
1.474
0.01102
0.003157
3.422
2.663
1.356
5.032
2.269
0.01611
9.634
3.629
0.3498
3.119
29.9
14.86
0.001182
0.306
0.02719
1.425
10.74
3.882
5.287
2.486
3.15
0.02846
3.602
0.05522
0.7735
13.28
0.6064
22.47
1.608
31.03
0.06843
1.743
4.319
0.01753
1.355
2.733
5.677
0.8877
0.03781
0.01627
0.004143
1.499
0.01601
0.8862
15.77
0.4229
1.176
3.367
0.08679
1.196
0.9529
0.004036
7.153
3.243
11.93
1.892
0.01727
5.738
4.575
0.02077
6.42
0.585
3.145
0.9804
16.01
0.7683
4.961
1.166
0.8643
0.04181
0.9172
0.04363
0.129
5.374
1.337
1.187
1.02
0.8414
2.529
0.019
0.06056
0.1407
2.791
1.728
1.5
46.65
0.3748
0.03927
4.962
0.2693
3.724
0.01169
4.869
2.977
1.415
1.125
3.003
1.768
2.932
1.296
1.382
0.02125
2.196
1.289
1.311
6.887
18.82
3.252
0.07422
2.25
1.343
1.139
77.64
0.0161
3.708
1.362
1.82
2.312
1.336
57.95
2.096
6.714
2.592
21.96
0.7852
0.4548
9.323
2.062
0.02312
1.806
1.187
2.839
2.605
1.385
3.972
0.001334
5.189
5.466
3.701
1.31
4.62
4.146
0.02043
3.13
1.775
2.053
0.42
0.05042
1.874
1.784
1.511
3.497
0.01022
5.074
0.907
0.6241
3.012
1.938
3.115
1.666
3.1
3.478
0.006744
3.231
1.878
12.49
2.993
7.847
0.9487
1.29
1.788
0.5917
1.535
4.308
21.87
3.965
6.378
35.38
1.023
0.2256
150.5
2.739
4.299
0.00119
6.207
10.55
2.499
1.026
0.01901
2.151
0.02488
1.127
3.081
0.8529
1.503
1.2
3.652
0.7068
49.68
1.015
2.167
5.561
10.66
2.567
1.982
1.189
0.3525
11.93
1.065
28.13
3.07
0.6796
0.04577
11.93
0.4225
0.05709
0.01868
0.7885
1.322
0.05909
0.006681
0.01798
5.909
4.003
35.91
0.08113
0.002025
1.168
0.006376
0.004839
3.665
0.0007818
1.232
10.03
0.1005
6.859
1.065
3.093
0.5702
1.746
0.1268
3.921
1.292
88.22
1.611
4.866
6.142
4.174
0.3354
0.002025
0.8561
3.832
0.01905
0.4354
2.752
3.637
18.63
5.455
1.585
3.667
0.02191
3.622
10.89
1.693
1.2
2.151
0.0006328
0.9998
1.035
8.112
1.447
1.616
0.001551
4.26
4.996
0.001301
1.32
0.0006034
2.321
0.02654
19.36
22.49
0.0372
5.167
1.586
0.2473
9.82
2.729
0.01784
11.86
2.793
1.576
7.573
0.0674
0.2331
16.64
1.018
4.642
0.4922
1.26
0.5099
0.7001
1.408
0.001233
0.6328
3.612
2.66
1.528
1.105
2.303
0.7219
2.702
3.363
1.983
0.5806
3.294
0.03122
0.3589
6.102
1.403
0.04388
0.5489
1.086
2.358
1.37
1.27
7.2
0.4052
5.181
1.055
0.004319
2.436
3.147
0.329
3.122
0.07785
5.51
0.7849
0.6391
0.1761
0.862
4.513
2.712
0.231
2.139
10.75
2.838
0.01108
0.01547
0.8656
3.537
5.4
0.9384
0.927
0.998
5.086
0.3665
0.444
30.85
0.5669
0.3986
13.49
4.044
0.9738
1.091
0.06007
123.5
0.01656
1.504
1.595
3.833
3.223
4.385
21.29
0.7147
1.428
0.2676
82.07
2.632
1.008
116.8
13.28
3.183
1.884
0.003281
0.3818
0.241
5.211
0.04084
3.202
29.57
0.1256
1.706
0.6973
1.147
9.166
2.458
20.13
7.726
1.545
0.007561
0.007631
0.0247
4.913
17.35
0.5099
0.0161
0.1588
9.549
1.253
20.88
3
0.01626
83.76
0.05108
0.503
0.8541
0.06743
1.018
0.4205
0.5115
0.1369
5.141
1.276
1.211
1.204
54.99
0.9408
5.422
1.779
0.9268
0.09464
56.86
3.074
6.942
3.224
6.434
5.39
4.36
0.177
2.008
1.985
2.009
3.509
0.002259
14.23
1.758
7.618
0.6272
0.07224
0.151
0.01556
1.961
1.679
2.765
5.388
0.8672
6.582
1.853
1.686
0.5899
5.882
0.2718
5.852
2.145
1.842
0.4948
0.1334
0.7378
0.4528
1.253
0.4106
2.501
2.388
7.54
0.9652
0.7852
3.839
0.6941
5.328
2.243
1.315
0.2269
31.85
4.071
2.726
2.103
6.915
0.06246
13.06
3.412
1.213
2.388
3.532
1.674
4.016
1.158
2.252
2.939
4.617
29.75
0.003235
0.03233
0.01383
1.329
3.051
0.8511
26.07
3.815
8.504
12.77
1.41
4.49
22.94
0.6289
2.706
3.862
1.862
17.42
0.01728
11.23
4.39
4.582
0.08594
4.254
1.41
1.709
2.818
2.925
0.01603
0.2017
1.706
10.02
0.005294
3.049
0.3784
0.7066
345.7
0.001307
0.8165
0.9251
1.903
2.306
0.4354
1.692
2.194
3.038
4.64
3.063
0.0442
1.261
89.54
0.02824
0.01897
12.06
7.927
1.857
6.01
0.1369
1.689
2.639
1.668
3.662
1.555
0.03664
1.954
0.6143
0.3352
0.01379
2.713
0.00679
73.2
2.02
1.983
0.5843
24.63
0.01606
5.094
0.005187
0.1048
5.9
0.5021
12.21
0.6795
0.1132
1.858
4.58
1.384
1.049
1.607
2.666
3.803
4.478
2.92
9.101
14.61
7.424
1.139
2.304
6.842
1.844
0.7782
0.1713
0.008621
35.75
1.389
4.225
19.98
0.01737
4.896
0.3597
0.008335
1.367
130.2
0.5171
2.463
24.29
0.06422
4.329
3.213
1.196
0.8605
1.519
19.08
3.829
0.02224
19.11
28.56
0.1584
0.0207
7.753
4.607
4.992
3.507
1.546
5.94
0.01737
3.27
0.1587
5.041
3.265
22.03
0.008316
0.008404
0.3368
1.712
0.05609
1.504
0.557
4.44
1.436
2.859
2.658
0.1438
0.02817
17.53
26.53
6.185
4.156
0.07878
4.716
0.002846
1.377
13.09
6.827
7.826
6.141
2.536
2.702
1.519
1.758
1.593
0.0282
0.01742
0.01996
0.9708
2.012
5.006
13.73
1.97
0.02301
5.35
5.707
4.015
18.25
1.547
6.693
5.682
4.368
0.1558
0.7629
0.6464
2.261
0.1706
4.717
1.641
1.01
1.872
4.195
0.005201
0.01523
24.82
0.98
0.9875
1.771
52.45
1.435
0.005044
2.997
1.423
1.548
0.948
2.306
5.806
1.992
6.365
0.3344
0.0006134
1.459
0.1116
0.2258
0.1782
11.32
0.6974
3.726
1.293
0.9515
2.844
0.03845
2.98
2.97
0.7818
2.143
2.431
19.88
0.05113
0.02133
3.279
2.465
1.518
1.59
0.3142
7.787
0.09464
0.0292
1.311
17.05
0.0251
1.78
1.897
0.01353
23.06
0.07909
2.892
1.224
3.79
0.4927
16.11
11.51
0.7853
0.0648
0.01625
1.248
0.9386
2.508
1.216
0.00802
0.007145
0.02049
4.4
1.518
3.217
0.000729
3.223
1.988
2.757
1.194
5.231
0.3262
0.05263
6.332
0.01798
8.558
2.652
0.04822
1.538
3.249
8.864
2.556
2.84
1.081
0.7817
0.00165
17.76
7.14
12.99
0.3189
0.9795
0.0157
16.18
0.01452
5.08
5.265
0.0172
0.5033
1.213
3.65
0.001134
1.211
49.03
1.734
0.01848
1.193
4.215
0.5379
1.941
1.156
1.566
19.9
0.7186
0.005005
0.02286
46.57
0.9404
2.864
0.4874
1.187
0.007504
0.04385
0.7435
64.23
5.027
3.04
3.018
0.534
2.171
13.28
4.603
3.235
0.03522
4.367
0.5184
3.535
1.255
1.184
0.01722
3.036
1.061
21.69
77.97
0.7485
0.7435
0.4532
8.469
0.003185
0.705
16.07
4.605
2.936
9.013
19.55
4.955
1.563
0.3962
5.081
6.315
15.53
1.869
0.03348
10.36
15.12
0.02024
2.272
11.33
4.067
9.108
2.762
0.5198
2.193
1.037
0.00128
2.438
0.0804
1.871
0.4783
9.854
0.526
22.27
1.195
3.408
1.221
1.003
4.459
0.6521
6.483
7.687
0.9976
1.976
0.7766
0.7579
1.396
10.36
1.574
0.02509
3.046
0.9484
8.538
2.855
2.306
4.861
3.102
0.02897
1.828
19.06
1.218
0.8863
3.787
0.07571
2.58
0.013
1.998
94.52
105.5
8.736
1.475
0.9809
0.1785
0.001063
1.318
1.65
4.912
0.9048
0.01787
2.24
2.712
1.011
2.191
0.01488
3.413
10.98
19.84
0.4572
0.7594
3.06
4.447
0.02082
6.217
85.77
0.5798
0.7075
0.4
2.068
32.59
0.5071
1.212
0.9985
1.613
0.02368
3.072
0.008365
22.71
2.069
0.7271
10.96
0.9566
3.139
1.814
0.7173
0.1318
0.04886
0.01103
1.333
1.329
2.034
0.6844
1.654
2.682
11.51
0.8102
4.539
0.3814
0.01769
5.105
0.01631
1.019
3.705
1.146
1.506
1.89
24.7
3.231
1.444
2.239
4.686
2.186
0.2439
22.3
0.02062
49.04
7.239
1.57
1.847
0.1513
3.545
6.325
0.9168
0.4836
1.524
21.41
15.41
0.02312
1.195
0.01877
0.01361
13.47
0.03233
1.583
2.446
29.71
1.419
6.424
3.288
5.339
0.328
3
0.9437
0.843