/*--------------------------------*- C++ -*----------------------------------*\
| =========                 |                                                 |
| \\      /  F ield         | OpenFOAM: The Open Source CFD Toolbox           |
|  \\    /   O peration     | Version:  v2012                                 |
|   \\  /    A nd           | Website:  www.openfoam.com                      |
|    \\/     M anipulation  |                                                 |
\*---------------------------------------------------------------------------*/
FoamFile
{
    version     2.0;
    format      ascii;
    class       volScalarField;
    location    "5";
    object      epsilon;
}
// * * * * * * * * * * * * * * * * * * * * * * * * * * * * * * * * * * * * * //

dimensions      [0 2 -3 0 0 0 0];


internalField   nonuniform List<scalar> 
127143
(
753.3
196.7
290.2
243.2
468.9
253.6
417.6
405.4
468.7
109.3
467.7
546.8
985.5
243
17.63
24.58
134.6
0.227
0.5677
22.84
1.279
36.46
0.2645
1.942
37.16
6.68
16.95
18
21.05
0.1588
2.502
6.888
47.97
6.552
0.1188
48.21
2.131
0.9538
1.658
5.501
0.566
1.508
1.274
349.7
0.2243
6.38
20.29
1.316
2.439
1.719
21.69
0.03092
2.057
0.4342
0.005453
4.447
0.005279
0.3542
0.01629
0.4285
1.326
0.7156
1.037
0.09658
5.352
0.8913
0.1222
1.108
1.089
0.000847
2.085
15.96
0.7127
0.01614
0.02703
16.14
0.01934
1.675
4.34
0.1318
20.06
20.05
4.169
4.39
1.289
1.547
1.501
23.54
0.8553
13.49
0.02031
0.3634
10.62
1.271
2.529
0.1761
1.425
3.005
1.273
0.1188
0.1332
2.333
28.91
0.638
1.504
1.302
1.461
0.0008542
1.888
0.01756
16.52
23.73
1.699
6.274
0.02062
0.6935
0.02014
0.02703
0.0191
34.37
0.01674
3.946
3.091
0.2887
19.12
8.523
0.8659
0.02091
2.436
5.152
1.885
2.242
0.8654
1.649
46.37
1.842
0.0799
1.128
17.21
0.07983
0.3796
0.01848
1.885
1.063
2.031
4.591
62.71
0.1068
2.302
33.05
0.6918
2.45
0.9145
0.28
7.635
1.262
0.353
6.923
1.298
3.201
2.084
81.69
0.02085
1.881
7.047
4.9
2.333
1.337
13.99
0.03152
8.199
1.059
0.7794
1.781
0.004181
3.038
4.69
2.428
1.818
0.03103
1.783
0.05227
3.203
3.017
4.997
0.701
0.3579
6.03
1.827
0.03673
2.658
3.325
0.07661
12.8
55.23
0.8626
0.112
0.112
94.33
0.01845
0.01694
0.03282
0.07623
2.04
193.2
1.275
0.1319
1.056
0.1533
0.0208
0.1988
1.608
0.01575
13.83
2.3
46.08
11.06
1.149
1.747
0.1303
4.323
0.02934
2.521
1.888
3.562
7.991
5.892
0.9383
4.929
1.049
1.34
0.05097
0.684
62.55
1.329
0.1984
1.878
168.1
0.01686
2.473
3.239
4.533
1.927
6.754
1.412
32.72
2.047
16.16
63.87
0.001521
2.192
4.587
1.433
1.217
3.377
1.918
0.02065
13.47
1.259
0.194
0.868
0.03759
0.3546
0.01844
1.608
4.693
3.124
9.365
1.668
0.9773
4.876
0.004076
1.171
2.516
0.8703
2.598
1.678
2.009
0.00745
1.478
0.002679
0.1812
0.6231
0.02251
0.02037
59.03
1.947
0.02026
1.994
0.03186
0.8867
0.489
0.1967
0.8884
0.01568
2.297
2.368
6.968
1.923
0.95
3.206
0.7303
0.9056
0.674
3.717
4.879
1.038
0.01579
0.5233
0.8207
1.543
11.5
4.607
0.002758
0.01976
8.429
1.123
3.214
0.301
0.03221
0.254
2.253
0.03488
1.437
8.592
1.465
0.05844
3.598
2.56
4.696
0.8862
0.02036
0.1151
0.1016
0.1016
0.2662
1.879
0.7705
0.889
2.05
0.07662
1.15
1.945
2.514
5.143
2.038
3.135
2.156
3.164
2.746
2.972
0.4879
2.89
2.561
0.04
2.883
1.224
3.961
0.01397
2.699
1.048
0.9886
0.2734
1.72
1.703
0.04061
0.01854
0.01866
5.532
0.007566
2.494
0.03526
3.858
1.77
0.0347
0.1696
2.269
65.78
1.21
0.00806
0.3728
7.378
2.97
0.7549
0.01982
10.62
0.08098
5.17
0.8884
0.5982
0.01475
0.7467
6.165
3.491
1.842
2.498
0.7486
2.344
0.03988
0.03605
4.256
0.03008
1.328
3.085
0.0821
0.8284
1.424
0.8994
0.1375
1.721
3.05
3.667
0.3709
1.197
2.959
2.484
1.425
5.432
1.108
5.525
2.263
11.78
2.551
0.001561
1.069
0.2395
1.166
0.2983
4.258
0.168
0.05468
2.536
3.067
0.2376
1.671
0.04021
0.9942
3.062
0.02993
0.01555
0.02274
1.63
0.08242
2.014
0.02314
2.865
0.0185
8.25
0.01912
1.606
1.243
2.667
0.7876
7.022
0.08731
1.983
3.648
4.084
1.776
0.9611
0.8353
1.941
0.6747
4.478
1.989
0.003753
0.0177
1.725
3.247
0.03253
1.132
0.3863
0.2847
1.093
0.1058
0.00616
7.972
0.3748
4.963
1.686
20.42
8.074
5.515
4.562
2.701
1.633
1.561
0.01565
2.889
0.01874
7.228
1.428
2.119
4.5
113.3
2.033
3.972
0.1912
4.146
0.01708
20.47
0.01769
2.206
0.8399
84.63
15.84
101.3
0.07079
2.828
3.07
0.01998
0.9342
3.379
1.985
0.7473
1.268
2.728
1.127
11.38
0.003715
1.842
49.03
6.176
2.899
7.703
0.01573
0.6747
0.07385
0.6598
0.01561
3.247
25.68
5.764
0.04395
1.727
0.2278
10.86
2.989
19.68
0.5745
0.01921
3.573
2.485
0.03635
0.7501
1.032
2.229
1.674
3.427
4.616
0.8709
1.206
4.859
1.974
2.443
0.01578
4.745
1.751
3.836
1.003
1.7
0.08464
0.06711
0.1782
3.221
4.704
0.01924
0.00173
2.079
7.847
1.45
2.737
5.775
9.631
0.9344
0.0184
0.03762
5.491
1.238
1.689
0.004264
15.3
0.8792
2.311
0.00777
4.456
0.01914
1.377
2.695
0.5564
0.001674
3.327
0.866
39.97
0.006438
1.414
10.95
0.02217
0.8198
0.01963
1.408
1.584
0.02265
3.75
2.56
10.86
3.535
1.734
2.855
2.878
6.802
1.577
10
1.704
2.932
1.802
3.309
0.00426
3.87
0.021
4.758
0.02156
1.837
0.04646
0.02031
0.3707
5.44
1.508
0.003623
0.007893
4.688
17.8
3.679
2.875
0.9471
1.99
1.237
3.122
2.482
2.882
5.74
0.003627
3.554
2.436
0.5449
0.7359
0.02108
0.001736
1.426
15.29
1.561
17.6
0.02127
0.001069
2.111
3.505
0.03139
5.664
0.3047
0.07269
3.543
1.178
2.383
0.3797
331.7
7.6
1.745
1.99
1.924
4.339
3.982
5.698
0.02722
2.352
5.959
1.302
0.01078
1.917
0.8004
0.8878
0.04476
0.01011
27.83
0.1917
3.096
3.682
5.544
0.5262
0.7406
3.23
0.386
3.544
0.01569
0.007748
2.549
0.2369
5.121
0.8616
11.54
0.9009
6.634
0.1914
0.2677
0.001063
2.839
0.107
3.365
46.48
1.123
1.566
1.176
0.00153
1.094
1.706
13.66
0.3979
0.8193
2.482
30.26
1.44
6.6
0.6449
3.094
1.185
0.8017
0.8511
0.4884
381.4
0.8173
0.03075
1.955
4.099
1.437
0.01483
4.131
0.4799
1.432
0.0009638
17.99
2.427
4.594
0.001022
5.998
2.695
3.791
2.95
0.00112
1.225
8.252
3.688
1.278
0.01824
1.93
11.41
0.01565
1.113
0.7484
4.184
2.016
0.7059
1.146
6.389
2.896
0.01878
1.233
0.7727
4.506
3.415
0.4473
0.9189
4.389
0.02554
1.925
3.509
1.713
58.89
1.693
5.6
1.815
1.883
1.008
0.07265
360.5
1.861
3.418
7.008
1.572
3.202
2.368
1.952
0.04012
0.4583
0.6702
0.0009689
2.551
7.126
1.483
2.909
0.02832
1.205
3.142
0.01578
0.02042
0.7343
0.7351
0.9461
3.273
1.373
19.82
0.7641
0.7166
0.01086
1.518
2.211
2.395
3.372
1.277
0.002354
0.0153
0.07453
16.79
0.0116
0.1743
14.2
1.201
6.293
0.004741
2.09
1.181
0.02649
3.118
0.06853
4.855
35.1
4.587
1.376
6.585
0.01915
3.585
0.4386
3.112
7.439
4.312
39.31
0.443
0.6229
1.615
17.47
0.02418
0.6822
5.116
9.326
6.038
14.71
0.002338
0.1342
5.549
8.458
26.37
3.917
210.7
6.689
74
2.118
6.454
0.4494
8.926
0.01939
1.576
0.001816
0.001776
1.985
0.02645
3.017
0.4778
6.034
0.4598
0.05033
9.941
2.085
0.01452
0.3789
1.958
0.04757
4.106
33.29
2.501
1.19
16.45
0.8994
3.768
0.01892
2.081
3.314
0.01351
3.487
1.755
0.6725
0.02618
0.0316
0.3519
29.09
1.813
35.14
1.113
3.378
1.825
12.61
3.794
0.002247
17.02
0.948
0.002241
2.091
49.64
0.4513
6.467
0.5904
0.7167
16.26
22.59
2.056
0.01832
0.0286
1.119
2.618
2.32
3.709
8.785
14.03
1.232
0.2057
14.08
0.08857
9.911
0.01691
1.318
12.92
1.365
2.464
1.244
0.02424
0.01738
6.048
0.4562
3.227
2.29
4.267
1.147
1.439
3.222
3.297
20.81
2.128
2.638
3.767
0.8089
1.024
12.2
3.076
14.89
32.94
1.269
0.01505
0.01067
1.129
1.758
0.5853
0.1799
3.295
1.243
0.3786
3.731
1.381
3.111
3.022
0.1382
0.4832
0.359
17.9
3.65
2.9
0.9362
0.619
6.153
1.895
0.7974
0.8112
3.757
1.548
2.335
14.68
0.01692
11.84
14.08
0.759
3.471
17.82
0.01901
21.68
23.3
0.002571
0.1533
2.226
1.428
48.16
6.744
1.529
6.034
3.68
0.4928
0.4595
0.0235
3.944
1.215
3.064
0.9137
11.22
1.734
0.003663
16.88
3.058
0.0297
5.337
0.002317
0.01712
0.9765
0.279
23.97
0.01726
3.126
0.02718
7.87
0.2343
0.3661
0.6808
3.597
2.672
3.762
0.996
0.007089
0.06018
1.383
2.169
3.305
3.297
6.475
3.901
23.73
3.666
3.91
5.743
2.261
5.885
0.6346
0.4299
0.01484
4
4.454
4.798
0.0007566
9.624
0.9795
1.186
2.419
2.667
0.5276
5.188
0.717
1.177
3.905
4.899
7.599
0.00329
0.7426
4.294
0.01764
2.919
5.059
0.2081
0.9108
5.097
0.06085
0.6314
0.8824
2.994
0.3507
0.1056
2.581
2.601
0.01378
0.46
0.04317
1.234
2.753
0.9533
0.04474
8.414
27.14
3.716
2.31
0.9891
8.897
0.0008476
1.569
0.02345
1.563
3.17
3.533
2.434
10.38
15.14
0.04512
71.27
5.075
4.414
0.9901
12.6
0.7471
0.3875
4.017
1.339
0.0619
41.01
2.01
1.904
4.525
1.984
6.42
3.246
8.113
1.59
2.163
1.385
2.683
2.114
0.4583
30.19
0.2092
2.046
0.2212
3.501
0.1056
0.02167
1.288
10.24
1.335
0.03771
24.85
5.112
0.0257
17.67
1.504
1.398
19.48
1.236
2.408
222.2
0.378
9.899
0.9682
1.321
9.618
2.423
3.243
2.726
5.119
0.1458
0.2343
0.9887
2.262
1.281
1.198
0.9492
17.96
1.288
0.4133
1.239
1.556
0.6914
0.9449
30.07
0.07973
14.72
5.874
2.556
1.891
0.02679
0.867
2.75
0.712
6.883
4.805
3.742
0.01806
3.118
8.192
1.631
18.66
1.928
0.4904
4.593
0.01618
5.047
2.215
23.17
2.921
0.07021
1.052
0.0164
45.54
22.63
1.832
0.608
1.297
0.002925
0.04598
5.05
1.857
0.6288
0.1669
0.0007023
0.0007038
3.955
1.505
0.5734
3.863
2.097
16.63
0.92
4.123
2.809
2.846
0.05512
2.456
0.9497
1.949
19.59
1.017
0.6703
2.165
0.9728
1.657
71.36
0.3573
1.677
0.9889
0.6861
0.5478
2.179
62.12
0.2735
8.544
0.00828
1.951
16.81
0.06452
30.34
1.224
2.054
3.035
0.01162
1.052
31
0.01896
1.688
3.737
1.186
28
0.6542
0.6015
6.116
7.449
1.946
4.544
0.1779
2.107
23.68
47.97
4.136
1.876
0.02192
3.158
0.4946
3.155
10.77
0.7763
1.913
0.01153
0.6773
2.862
0.01483
0.8931
0.002537
26.7
0.9307
9.648
2.704
1.842
8.928
1.593
1.517
4.555
82.88
1.872
2.456
1.775
1.424
1.153
0.0841
2.878
0.01794
0.9314
0.05473
1.179
0.01474
4.082
2.601
0.1778
0.01541
7.5
0.2412
4.43
0.2689
0.1978
2.655
1.513
0.05591
124
6.874
28.61
1.843
0.9686
2.227
2.008
3.141
0.2399
5.244
2.098
5.295
4.899
3.094
1.771
0.5626
0.01761
77.37
1.692
13.92
0.02486
18.77
4.855
2.472
3.07
0.01962
0.01816
0.1969
0.3606
0.08553
0.8007
1.238
0.7329
1.767
0.039
0.6734
8.294
2.191
0.1771
1.344
0.5458
5.812
3.944
1.659
2.449
1.147
0.01628
4.42
4.23
11.51
1.992
0.0627
1.929
0.02094
1.571
2.985
6.234
0.22
0.03718
1.578
2.603
18.5
25.85
0.592
1.845
4.855
0.1851
0.01027
22.35
3.16
24.97
0.1529
35.74
2.649
0.01397
3.203
14.12
0.7933
0.4209
1.076
5.694
1.283
2.238
0.822
11.65
0.09879
7.612
4.729
2.818
0.001214
0.001181
2.336
2.333
108.8
5.64
3.121
3.143
74.46
0.01901
3.415
0.02451
0.01733
0.01393
1.262
0.004803
39.66
0.0229
25.27
0.5939
3.761
2.659
2.651
0.001089
39.51
0.3003
16.68
1.191
12.08
0.01556
2.882
4.061
1.11
17.12
8.245
1.435
20.92
28.45
0.1051
0.01031
10.84
0.0006411
0.1978
0.5494
12.58
0.006698
4.397
0.02963
2.381
1.474
0.9782
13.35
0.005104
1.323
3.705
2.633
0.1959
0.8306
0.4875
0.02069
0.09324
2.323
126.7
1.786
1.442
0.02251
19.02
0.4814
0.2502
0.0007827
1.322
2.473
2.498
0.02435
5.418
0.01861
2.592
0.1056
1.137
4.159
2.812
5.546
4.701
2.426
0.007811
1.686
4.142
3.559
18.96
4.472
0.5814
0.05991
2.014
69.03
1.853
8.769
21.11
0.001119
0.3072
0.01518
2.675
2.304
1.995
0.02734
9.833
0.02856
0.3153
2.516
0.009127
0.5404
0.3319
3.434
1.05
0.02204
2.116
0.03856
3.762
15.45
0.8193
0.5872
1.912
0.04302
1.276
2.825
15.73
4.038
2.402
3.2
2.703
2.917
24.91
0.1078
0.3761
4.194
0.06856
2.129
1.299
0.3818
1.267
0.02363
0.009297
10.1
0.3528
1.257
2.388
19.78
2.097
12.4
0.545
0.0186
12.55
1.857
0.2199
2.33
0.04039
1.738
0.1442
0.7816
8.987
0.9866
3.091
1.537
1.863
0.03595
1.27
0.9871
2.602
8.9
0.02872
1.206
5.126
0.01644
0.02734
3.248
0.0008743
1.753
1.078
0.9585
3.6
0.5435
1.653
0.003233
0.5479
3.481
0.003403
0.5457
10.82
21.32
0.1727
3.402
6.901
0.5471
5.514
0.8368
1.522
21.08
0.0008311
0.001409
3.551
0.02536
8.998
3.337
1.627
5.048
3.716
0.02712
3.236
43.93
518.8
4.765
3.7
2.869
0.4198
1.261
0.6986
1.881
4.751
4.659
5.978
5.27
16.84
1.335
0.5659
0.01846
19.78
0.4979
1.576
0.6235
0.08841
1.967
4.802
0.4825
0.1661
4.417
4.489
1.237
4.475
1.087
19.76
2.816
0.03156
2.828
14.92
1.411
1.581
15.8
0.01734
18.25
17.36
1.696
0.001792
1.394
0.9832
3.057
5.39
1.343
3.659
0.00355
2.398
2.025
0.1343
1.141
0.01446
2.467
22.68
1.41
3.623
60.76
1.57
14.03
0.001514
22.78
2.102
0.8505
0.06625
0.4687
0.8577
1.439
1.307
0.001485
1.812
22.73
41.64
2.187
0.7954
0.8009
1.302
0.01804
0.02875
2.261
0.4822
0.0159
1.218
1.377
2.036
3.495
1.117
2.985
1.224
28.15
23.69
22.24
0.2121
1.589
21.54
0.8108
9.693
0.4065
0.8388
0.6907
66.46
0.5199
0.7152
0.0008857
0.08336
6.394
2.448
0.0199
0.04582
0.9693
4.534
1.407
1.679
10.25
5.258
0.02833
3.309
0.8879
2.818
5.601
0.3783
0.08099
2.031
1.991
0.5504
3.836
0.03501
13.58
0.7076
3.837
0.2571
2.13
7.959
0.9089
3.346
1.214
4.755
1.418
10.43
0.3351
0.9216
1.816
1.421
4.608
2.979
36.59
4.08
0.01479
3.431
0.4021
3.52
1.464
0.004014
0.7819
0.2115
12.6
0.001057
2.732
2.378
2.516
1.037
1.332
0.2048
22.9
0.3515
0.02469
5.349
0.04257
1.377
0.05456
0.554
0.8277
0.08387
0.4037
1.675
8.861
0.02384
0.02003
0.966
0.7914
4.171
0.05525
1.67
2.388
5.212
2.44
0.3627
2.36
1.25
0.1621
1.321
12.25
0.695
20.79
2.184
0.7481
20.13
0.01988
0.007797
1.484
0.4534
79.32
0.02605
0.7208
4.851
134.3
3.627
3.773
0.007612
0.007601
2.274
3.135
2.68
7.141
0.06072
0.506
0.5653
0.1344
3.379
2.35
1.418
2.33
4.868
0.1696
1.317
0.116
0.7864
3.109
4.281
4.566
1.967
27.1
5.796
2.691
1.275
4.258
2.09
0.1857
3.48
10.78
0.001652
0.001641
3.479
3.099
6.922
1.784
7.614
4.139
0.004397
0.02046
2.627
0.0994
1.384
20.05
4.763
0.3001
1.945
0.1164
24.84
8.439
0.001244
0.824
0.8801
1.456
1.789
3.68
2.11
3.27
1.961
1.755
0.8101
0.9226
10.31
1.971
1.758
4.148
48.25
3.047
5.282
4.521
4.685
1.865
1.173
13.02
0.4572
3.235
0.01773
1.251
0.09004
1.646
0.6705
14.19
2.749
0.2912
5.985
67.68
3.601
1.778
1.277
3.078
11.87
0.003926
1.841
0.7991
37.09
2.183
1.714
0.2686
0.4865
0.02103
1.386
46.14
0.7602
10.5
1.065
0.1885
8.835
0.1162
1.521
0.4869
1.3
10.17
0.2892
1.003
0.7073
0.0824
5.342
0.8901
26.48
6.036
1.41
0.01055
1.88
1.03
9.627
11.51
0.8835
0.5712
2.95
0.01851
2.707
7.835
2.406
3.566
1.946
11.61
2.885
5.911
5.037
0.5139
3.155
16.1
0.4241
0.1594
27.87
0.0007812
0.3738
0.01935
0.04948
4.51
0.0163
5.433
2.096
0.4789
1.385
3.112
9.415
2.266
12.38
2.182
1.386
69.75
1.434
2.027
0.03094
41.56
0.8736
11.4
8.26
0.0009036
4.807
2.786
0.721
0.9909
12.1
11.69
5.514
1.266
1.493
0.03079
0.5071
0.06797
0.7381
0.9758
6.06
1.529
1.78
9.489
1.011
0.01519
4.657
1.584
0.5061
1.055
1.607
10.75
3.223
10.67
12.34
3.32
1.705
6.708
1.971
3.229
0.265
44.98
5.044
1.308
1.778
0.01244
3.141
4.133
1.266
0.7269
13.91
4.948
5.608
0.6892
2.597
20.54
0.01534
18.91
0.7202
0.06908
1.919
4.508
0.01501
2.842
0.9914
1.583
31
1.854
3.64
59.73
1.554
1.745
0.1914
0.1914
1.595
1.406
1.429
5.924
1.275
0.0198
12.03
4.476
2.428
0.01676
0.01527
2.209
0.9327
1.614
145.8
4.317
0.007383
2.57
23.81
0.2447
3.381
1.898
0.002358
0.5951
5.639
0.3439
2.145
0.0207
0.01012
0.01439
0.004336
0.1341
2.265
1.184
7.356
0.7513
3.822
1.444
6.796
0.00434
2.019
1.916
11.46
6.548
11.38
5.214
1.14
2.237
2.125
1.372
0.1015
1.328
91.16
2.645
5.688
1.207
5.112
0.02053
41.56
1.951
2.907
0.6091
0.0558
44.6
0.0266
2.179
6.411
0.005407
3.883
2.206
1.043
3.131
23.1
0.08684
4.244
0.004019
2.17
1.029
3.249
1.166
3.958
0.01243
0.01596
0.3651
7.246
4.836
0.1646
1.113
3.013
0.7308
20.03
2.349
0.6041
0.8535
2.213
1.851
0.2887
20.72
1.11
0.02088
18.71
0.01884
0.0153
0.3302
0.001487
23.44
1.064
3.491
1.441
2.626
0.0332
0.175
4.566
1.895
1.119
0.00223
0.4751
74.31
10.63
0.09195
14.2
11.86
29.61
0.001209
0.5755
0.8869
0.2124
0.02074
0.5346
5.551
50.18
0.3056
2.92
76.04
0.02123
2.637
8.119
1.24
0.02627
3.273
57.49
20.66
27.07
0.4062
1.373
12.81
0.06804
2.149
0.01615
1.082
7.021
0.542
3.334
24.8
0.2525
4.582
4.02
0.1686
0.03479
2.245
4.955
0.4506
13.41
3.612
0.5519
0.9016
2.152
4.045
1.895
0.02152
1.889
2.26
1.926
3.563
4.926
2.232
12.27
28.81
33.69
42.3
2.361
0.1049
8.376
0.02639
3.774
9.911
0.02185
202
0.1307
2.838
17.82
4.294
3.544
8.233
4.166
7.426
0.0159
146
1.779
0.000689
0.8611
2.97
60.83
12.9
39.23
0.8459
3.277
33.12
1.103
0.2676
1.294
14.59
0.008336
1.819
1.146
4.348
0.9484
2.065
0.5905
5.937
1.563
2.175
17.14
0.02332
5.463
0.298
1.246
3.135
0.02517
0.1849
1.154
6.29
5.41
28.18
0.0006537
0.01628
0.637
2.06
11.64
1.617
0.5722
0.005729
0.03694
4.108
0.005736
3.306
3.27
0.1821
2.319
2.274
13.44
26.75
17.39
0.06569
2.536
2.308
3.998
0.51
0.6669
16.53
1.082
5.706
2.088
10.16
1.656
0.9224
36.17
2.121
1.065
2.037
0.0008546
1.217
0.1736
0.01804
1.034
15.43
1.833
3.835
0.9052
36.79
70.82
0.8981
86.89
0.004349
0.3364
0.05513
0.08993
2.206
0.127
7.132
23.27
3.72
8.154
0.4531
1.509
3.716
1.955
0.9396
5.158
1.374
18.22
3.883
0.001974
2.869
1.078
0.05958
0.04708
3.873
0.03067
3.31
2.559
2.124
0.976
4.844
0.001096
0.3312
0.07925
3.958
20.37
7.591
1.259
0.01421
5.574
0.0128
0.3112
2.533
0.5846
18.23
2.442
2.798
0.5824
18.53
0.9191
0.003892
1.232
3.385
0.04479
0.8184
0.03165
2.829
5.426
6.167
2.035
0.006767
3.878
2.016
2.621
26.42
3.39
7.414
0.01968
0.4743
0.7324
0.9426
5.894
0.7722
0.1809
1.308
0.2804
4.686
2.574
0.003979
0.1642
0.01701
0.04973
0.6596
10.42
3.621
0.01831
1.822
3.159
1.52
0.06912
1.554
0.1913
4.21
0.002872
115.7
1.348
4.471
0.0009474
0.1615
23.6
0.03862
1.373
2.246
3.254
2.963
2.903
0.0269
2.053
4.166
1.743
2.22
2.394
0.6515
1.443
1.674
11.04
0.01278
1.094
1.209
15.4
0.4785
0.07641
4.534
10.44
1.219
1.226
0.8373
8.984
0.07181
0.7683
6.022
0.9518
4.169
1.07
0.002094
2.879
21.32
0.7412
4.002
10.56
1.64
1.134
0.01921
0.0366
0.2124
0.00111
49.05
2.263
0.0447
0.01829
1.112
27.19
0.04133
1.339
12.56
1.458
1.157
4.117
18.59
3.886
4.235
3
26.91
7.236
0.01795
1.725
1.535
2.101
0.0233
0.3014
2.644
1.66
3.497
37.31
13.94
0.3294
3.948
26.13
0.6281
6.97
1.278
0.9233
0.61
5.453
10.13
0.01854
3.624
1.178
0.04319
10.32
1.075
1.879
0.1562
1.765
3.205
2.996
2.845
0.0145
0.01863
0.3557
4.025
0.1716
0.8278
0.02639
10.09
0.7971
1.064
2.173
4.364
0.4222
1.755
0.01045
24.32
2.003
26.37
2.412
0.1588
7.51
1.014
3.927
21.22
0.5695
21.52
0.1012
0.1028
1.423
0.1278
0.01791
51.76
1.503
3.821
7.203
1.276
1.524
0.001592
44.94
0.0639
1.749
0.1632
0.3567
2.887
1.733
1.663
1.812
0.7429
5.47
0.008272
1.677
8.623
24.62
10.7
0.2158
2.392
0.7634
0.1648
5.789
3.008
0.1427
0.06899
3.503
21.86
0.003118
0.01256
0.7798
7.566
0.9506
14.97
0.1397
10.13
2.206
1.216
0.07034
0.2019
3.281
2.947
5.642
1.263
5.359
0.09958
4.289
0.001515
4.834
29.33
0.06312
3.194
0.8454
15.24
14.73
6.21
0.1573
0.01041
3.167
0.3448
0.0168
5.488
4.569
0.6557
0.1567
0.1688
0.1542
0.03214
6.152
1.875
0.02015
10.02
1.828
6.988
0.03321
0.03843
0.01585
0.07826
1.316
0.4764
2.707
19.6
9.842
1.705
23.32
7.422
0.02448
21.53
3.42
7.389
0.7399
0.3236
0.7498
12.43
7.387
8.293
3.561
0.07414
1.37
4.625
1.116
1.294
0.2934
3.641
0.3243
3.348
0.00124
1.5
1.221
0.9268
0.6696
6.454
55.51
16.48
0.01045
64.64
1.555
0.1716
5.988
0.02908
5.836
2.259
0.007909
4.082
5.685
0.2052
0.99
0.5416
6.615
0.01893
0.5496
14.17
0.5842
0.01656
4.135
1.6
0.05094
0.516
0.5042
1.527
17.49
2.806
3.673
0.7457
7.526
1.559
0.01921
0.06603
5.95
1.185
2.045
0.06824
38.52
1.574
0.8312
4.155
1.523
2.829
0.03426
0.1217
3.635
2.414
0.09246
1.577
3.475
0.5657
1.895
2.31
0.7722
0.08912
0.6919
0.8732
1.187
1.108
0.06471
4.996
0.003407
1.677
0.9522
0.4823
8.646
1.829
30.03
0.7804
0.6247
0.01782
0.007503
0.7032
0.804
4.537
7.564
2.595
2.689
11.46
1.889
0.8315
3.61
2.308
8.363
2.483
0.07332
4.75
0.7369
3.273
0.7091
0.7789
1.996
1.676
0.03874
3.655
0.2518
0.02206
0.2156
4.761
0.02143
112.7
3.279
5.285
0.01778
1.841
2.706
0.00105
2.023
2.214
8.75
3.611
6.665
0.03385
2.827
0.1178
0.4782
4.028
9.325
0.9573
2.414
105.6
0.007452
0.02524
1.415
2.234
4.119
0.5128
2.474
3.214
0.6944
1.132
0.01788
7.587
3.89
0.2267
1.424
0.01652
2.287
0.1546
1.761
2.556
2.074
0.01712
14.6
1.317
0.02643
3.721
3.668
0.2046
0.01127
0.01543
2.668
28.26
0.9543
0.5097
1.948
0.1502
1.571
1.111
0.01347
0.728
0.6827
19.2
10.96
5.504
0.01219
2.458
1.261
7.027
5.847
15.22
1.346
2.068
1.571
1.301
2.855
4.673
0.3208
0.001148
0.4792
0.05349
25.02
0.01868
1.197
2.511
1.032
1.138
8.274
2.116
26.27
0.9262
18.17
1.368
0.5628
4.274
18.18
1.478
22.65
25.67
0.0217
23.37
7.552
5.164
7.602
1.859
0.4505
3.392
1.142
1.041
0.07876
1.082
1.083
2.858
1.845
1.864
1.014
0.462
0.3193
22.93
2.291
36.68
1.176
2.474
0.00612
4.664
1.936
7.396
0.9087
12.95
3.749
1.806
0.2145
9.258
0.2039
1.215
1.465
0.1152
0.5065
1.262
1.007
3.36
3.318
0.6724
1.755
1.653
13.55
0.9937
41.45
0.08243
0.7811
3.025
0.6588
0.08369
8.756
0.02004
0.01614
0.0211
1.804
1.4
6.429
0.1784
0.3659
1.825
0.0995
52.93
5.742
22.73
1.622
0.142
2.909
28.27
0.1398
5.765
0.03228
1.777
0.6687
4.529
0.4878
0.01101
0.009816
2.445
0.7434
0.08591
22.36
1.557
0.05488
0.02649
1
0.05499
3.848
6.576
0.005378
1.222
4.243
6.299
4.077
24.18
2.783
0.2554
0.8712
1.869
0.4048
4.569
1.884
1.424
3.176
2.206
108.8
0.02868
1.91
16.33
14.09
0.04004
1.508
0.0223
0.8023
0.6353
2
1.907
1.793
8.054
0.3232
3.422
14.8
4.187
4.769
2.809
1.778
0.6169
1.252
5.043
1.542
3.197
0.003112
24.37
12.92
3.728
0.8416
1.077
6.866
2.478
0.503
0.1092
75.86
2.507
0.0008022
0.001409
0.00325
2.051
9.622
0.5454
30.51
1.061
0.001114
1.761
1.266
0.8015
2.47
95.85
5.974
2.529
8.462
1.661
2.026
12.01
1.883
1.105
0.7144
3.804
1.56
0.4934
1.885
2.55
0.3387
1.381
1.449
0.5672
23.55
4.856
0.06156
7.532
0.7376
19.88
5.672
0.009024
0.2409
3.072
0.03709
1.531
9.336
5.232
0.697
0.01497
0.3293
0.9315
1.096
0.09915
2.435
0.009922
2.398
1.366
3.709
5.008
3.474
3.621
2.797
7.314
0.7766
1.092
0.02784
27.67
0.07219
0.001407
4.618
0.01826
3.677
0.9037
84.24
0.0448
2.068
3.481
2.159
2.374
0.222
1.862
1.742
2.461
4.189
1.585
0.1595
0.01694
3.524
4.069
0.1793
2.238
5.271
10.01
1.959
0.007802
2.243
2.562
37.42
1.296
1.944
1.76
1.826
0.01994
0.6658
32.19
3.291
0.04669
0.3491
5.494
0.1026
1.34
4.173
1.869
0.04694
0.05296
0.6201
0.01899
0.01318
0.02444
0.6719
20.56
3.716
0.3264
1.399
0.5756
0.2288
0.1591
1.139
1.564
0.09294
0.05697
3.412
0.2648
0.02931
6.237
1.769
0.5672
22.33
13.05
0.02792
3.206
0.8358
3.278
1.755
8.658
0.1633
1.414
23.8
0.9764
8.124
0.4072
4.426
1.765
1.751
0.7976
23.44
0.1327
26.66
2.589
0.03246
0.04474
0.004202
3.367
1.354
12.63
4.377
29.32
0.1771
0.01057
2.296
2.103
0.2969
0.01742
3.159
0.779
5.555
1.756
15.02
4.681
3.009
2.717
1.627
0.1028
16.26
2.429
1.826
0.8578
0.1331
0.01673
1.536
0.9758
2.861
10.99
0.9626
0.06
2.104
0.217
0.2242
0.01796
6.343
1.449
9.371
3.882
1.447
0.6256
1.989
1.344
0.5569
1.409
0.4361
0.2991
0.042
3.231
17.68
0.352
0.8541
26.76
0.007141
0.02121
0.6064
0.0403
0.0571
4.368
0.0653
0.0652
1.317
0.013
1.628
19.19
2.213
0.5408
0.3165
0.03387
0.05188
0.8119
1.666
3.158
17.36
1.089
0.005203
0.8869
1.348
4.332
0.2102
0.04712
0.07464
4.302
0.12
0.07079
3.083
1.919
0.1382
0.04029
3.748
0.01193
0.03022
0.01233
49.64
0.1511
4.984
0.8191
0.03903
0.1567
0.6222
1.605
3.273
1.655
1.093
1.036
0.106
20.43
1.115
2.113
0.0374
4.944
3.476
2.108
5.139
0.4264
3.509
0.802
0.3245
11.34
0.06592
175.8
1.226
25.88
0.1029
4.562
0.01975
0.1092
0.8023
13.41
1.21
5.664
0.461
0.00153
22.31
0.001515
7.795
31.27
0.5448
0.4315
0.002195
7.676
0.01777
0.5281
1.357
1.041
1.314
0.01697
32.74
0.05365
4.042
4.275
1.605
5.261
21.41
1.519
12.88
1.166
0.02086
1.173
2.034
0.02037
0.0835
5.33
0.9015
27.12
2.971
6.229
0.02647
0.9684
0.02551
0.01638
0.04191
4.505
0.2933
0.5751
0.00118
1.692
0.4483
3.704
1.706
15.58
0.0252
3.151
5.382
1.398
0.305
1.635
0.03329
1.081
0.007107
2.17
1.803
0.02579
1.664
38.47
4.352
4.524
1.375
12.63
5.029
0.8316
3.363
8.978
1.124
32.18
3.624
1.405
3.627
2.415
1.562
8.398
2.321
0.004077
2.346
0.002806
3.408
24.97
1.302
10.39
13.64
1.04
4.218
0.00127
1.883
1.603
38.12
0.8768
0.01477
1.289
1.741
1.568
0.001246
1.612
1.568
1.433
0.5417
5.161
3.366
21.02
3.099
2.943
1.691
1.558
5.33
0.0279
5.074
2.452
0.02188
2.329
2.232
3.452
4.175
3.486
0.05825
6.851
5.268
0.183
1.859
6.034
42.76
3.565
0.004947
0.001936
1.145
3.539
1.118
0.01252
4.041
3.794
3.985
16.33
0.007818
1.666
5.922
1.965
40.53
2.146
2.387
1.254
1.778
1.083
0.0215
2.013
19.93
1.87
1.827
0.5159
1.526
0.01116
0.003192
3.584
2.784
1.405
5.277
2.363
0.01618
10.02
3.742
0.3575
3.238
35.2
15.34
0.001189
0.3132
0.02779
1.48
8.89
4.07
5.502
2.528
3.217
0.02846
3.693
0.05643
0.7932
14.35
0.6213
23.65
1.615
31.35
0.07064
1.812
4.519
0.01753
1.412
2.845
5.73
0.9115
0.03781
0.01631
0.004181
1.557
0.01609
0.9122
17.18
0.4333
1.216
3.526
0.08935
1.243
0.9794
0.004097
7.495
3.328
12.47
1.971
0.0173
5.946
4.749
0.02077
6.876
0.5982
3.222
1.016
16.22
0.7843
5.094
1.199
0.8887
0.04181
0.9442
0.04363
0.1323
5.586
1.395
1.231
1.057
0.8622
2.645
0.019
0.06056
0.1449
2.908
1.795
1.555
48.51
0.3818
0.04016
5.193
0.2766
3.769
0.01169
5.155
3.115
1.459
1.158
3.127
1.833
2.992
1.343
1.41
0.02167
2.255
1.331
1.366
7.238
19.75
3.387
0.07423
2.342
1.393
1.172
73.7
0.01612
3.823
1.411
1.88
2.408
1.385
60.25
2.185
6.788
2.71
22.78
0.8116
0.4635
9.666
2.104
0.02312
1.87
1.227
2.894
2.673
1.426
4.034
0.001343
5.444
5.613
3.878
1.333
4.822
4.316
0.02043
3.265
1.827
2.136
0.4282
0.05043
1.935
1.857
1.558
3.538
0.01023
5.225
0.9333
0.6439
3.112
1.978
3.246
1.731
3.237
3.612
0.00675
3.352
1.951
12.6
3.13
8.01
0.9838
1.337
1.855
0.6056
1.599
4.516
23.05
4.13
6.475
37.72
1.042
0.2311
193.1
2.853
4.505
0.001195
6.469
10.81
2.602
1.063
0.01931
2.182
0.02487
1.165
3.159
0.8784
1.532
1.235
3.821
0.7318
55.68
1.048
2.264
5.84
11.4
2.693
2.069
1.231
0.3618
12.07
1.096
29.56
3.18
0.6949
0.04682
12.07
0.4351
0.05709
0.01868
0.8164
1.369
0.06076
0.006687
0.01801
6.11
4.163
36.22
0.08113
0.002038
1.213
0.006381
0.004844
3.841
0.0007878
1.279
10.14
0.1033
7.207
1.097
3.18
0.5828
1.806
0.1306
4.069
1.336
98.9
1.674
5.099
6.449
4.204
0.3424
0.002038
0.8787
4.009
0.01905
0.4441
2.879
3.806
19.58
5.722
1.649
3.842
0.0224
3.76
11.44
1.771
1.249
2.244
0.0006385
1.036
1.066
8.53
1.509
1.688
0.001563
4.456
5.194
0.001308
1.367
0.0006086
2.38
0.0272
20.23
23.55
0.03822
5.532
1.652
0.2538
10.02
2.837
0.01805
12.31
2.898
1.647
7.944
0.06959
0.2374
20.86
1.057
4.847
0.5023
1.306
0.5257
0.7247
1.47
0.001242
0.6509
3.712
2.769
1.586
1.141
2.38
0.7444
2.813
3.512
2.067
0.5993
3.341
0.03122
0.3682
6.289
1.45
0.04389
0.5658
1.125
2.399
1.428
1.32
7.277
0.4162
5.426
1.093
0.004371
2.518
3.228
0.339
3.262
0.08023
5.767
0.805
0.6535
0.1805
0.8849
4.688
2.812
0.231
2.234
10.93
2.965
0.0113
0.01561
0.8904
3.664
5.645
0.9549
0.9617
1.026
5.313
0.3735
0.4524
32.11
0.5795
0.4119
17.29
4.241
1.004
1.127
0.06007
155.9
0.0167
1.562
1.659
3.964
3.361
4.526
22.44
0.7329
1.47
0.2725
84.88
2.757
1.039
100.1
13.88
3.327
1.955
0.003323
0.3929
0.2455
5.32
0.04084
3.333
30.89
0.1295
1.765
0.7193
1.186
9.353
2.553
20.75
8.02
1.605
0.007564
0.007635
0.0247
5.154
17.64
0.5204
0.0161
0.1627
9.897
1.288
22
3.122
0.01644
85.69
0.05108
0.5179
0.878
0.06947
1.05
0.4315
0.5265
0.1407
5.383
1.32
1.257
1.255
58.93
0.9689
5.638
1.857
0.952
0.09464
54.9
3.207
7.082
3.357
6.758
5.548
4.456
0.1823
2.071
2.075
2.047
3.644
0.002271
14.38
1.826
7.781
0.6512
0.07388
0.1542
0.01563
2.048
1.746
2.89
5.609
0.8923
6.897
1.867
1.738
0.6052
6.067
0.2789
6.144
2.19
1.883
0.5044
0.1368
0.7624
0.4663
1.301
0.4186
2.616
2.434
7.622
0.9926
0.8123
3.977
0.7092
5.576
2.314
1.341
0.2323
33.53
4.194
2.825
2.175
7.872
0.06246
13.71
3.566
1.261
2.487
3.651
1.734
4.137
1.197
2.351
3.06
4.739
30.22
0.003271
0.03233
0.01397
1.385
3.196
0.8748
27.44
3.948
9.67
13.47
1.467
4.953
24.15
0.6504
2.832
4.038
1.876
18.33
0.01728
11.35
4.558
4.753
0.08594
4.419
1.428
1.786
2.929
2.978
0.01609
0.2056
1.784
10.5
0.005308
3.192
0.3867
0.7223
286.9
0.001313
0.8391
0.9509
1.989
2.41
0.4464
1.713
2.238
3.183
4.827
3.195
0.0442
1.299
101.5
0.02889
0.01915
12.47
8.312
1.936
6.188
0.1404
1.715
2.741
1.723
3.748
1.624
0.03664
1.976
0.6286
0.3431
0.01401
2.763
0.006843
101.5
2.042
2.015
0.5974
25.84
0.0163
5.297
0.005193
0.1048
5.992
0.5146
12.54
0.6963
0.117
1.934
4.805
1.435
1.084
1.669
2.788
3.939
4.697
3.058
9.474
15.27
7.676
1.183
2.383
6.911
1.923
0.795
0.1713
0.008627
36.44
1.421
4.429
20.99
0.01741
5.13
0.3699
0.008343
1.411
108.3
0.5282
2.556
24.28
0.06422
4.545
3.289
1.236
0.8833
1.546
19.4
3.956
0.02224
19.98
28.15
0.1623
0.0211
7.765
4.821
5.239
3.652
1.61
6.116
0.01738
3.427
0.1587
5.144
3.408
23.2
0.008319
0.008408
0.3447
1.75
0.05779
1.549
0.5735
4.496
1.489
2.96
2.761
0.1486
0.02889
18.43
25.87
6.305
4.342
0.08097
4.938
0.002851
1.437
13.29
7.117
8.219
6.29
2.66
2.825
1.551
1.788
1.653
0.02885
0.01745
0.01996
0.9994
2.097
5.252
17.19
2.063
0.02347
5.555
5.99
4.163
19.15
1.555
6.821
5.96
4.482
0.1599
0.7849
0.6608
2.308
0.1749
4.929
1.7
1.048
1.901
4.364
0.005288
0.01523
26.14
1.011
1.015
1.843
54.71
1.469
0.005061
3.131
1.478
1.617
0.977
2.348
5.975
2.026
6.431
0.3413
0.0006186
1.517
0.1147
0.2313
0.1817
11.42
0.7218
3.834
1.341
0.9885
2.919
0.03953
3.095
3.089
0.7987
2.229
2.464
37.08
0.05272
0.02176
3.389
2.572
1.585
1.647
0.32
8.18
0.09722
0.0292
1.354
17.96
0.0256
1.819
1.955
0.01356
24.27
0.08116
2.994
1.274
3.881
0.5062
16.27
12.34
0.8011
0.06643
0.01634
1.292
0.9752
2.62
1.255
0.008095
0.007152
0.02048
4.587
1.578
3.324
0.0007345
3.342
2.065
2.884
1.239
5.425
0.3327
0.05426
6.632
0.01801
8.84
2.714
0.04969
1.601
3.369
9.321
2.673
2.972
1.116
0.8062
0.001664
18.47
7.502
13.44
0.3268
1.001
0.01572
17.1
0.01454
5.267
4.894
0.01735
0.5138
1.233
3.828
0.001144
1.248
49.61
1.791
0.01848
1.234
4.367
0.5484
2.018
1.192
1.629
20.9
0.7367
0.005018
0.02331
49.78
0.9736
2.986
0.4975
1.233
0.007525
0.04385
0.7647
66.1
5.244
3.183
3.137
0.5489
2.271
13.79
4.722
3.387
0.03521
4.556
0.5295
3.704
1.3
1.224
0.01722
3.187
1.095
22.76
73.02
0.7681
0.7694
0.4667
8.735
0.00321
0.7226
15.73
4.829
3.072
9.332
20.45
5.164
1.633
0.4057
5.3
6.587
15.69
1.945
0.03436
10.88
15.85
0.02024
2.376
11.91
4.264
9.377
2.836
0.5337
2.278
1.076
0.001287
2.541
0.0804
1.94
0.4924
11.61
0.5406
23.79
1.24
3.571
1.255
1.034
4.676
0.6677
6.548
7.984
1.036
2.051
0.7963
0.7712
1.444
10.96
1.586
0.02559
3.116
0.9811
8.686
2.985
2.408
5.071
3.19
0.02965
1.905
20.07
1.259
0.9116
3.96
0.07776
2.653
0.01304
2.08
110.5
137.5
9.048
1.531
1.018
0.1785
0.001071
1.365
1.71
4.959
0.9323
0.0179
2.268
2.817
1.032
2.253
0.01491
3.597
11.77
20.85
0.4671
0.787
3.169
4.613
0.02128
6.431
80.47
0.5957
0.7238
0.4103
2.17
37.39
0.5177
1.248
1.019
1.678
0.02418
3.215
0.008371
23.92
2.126
0.7458
11.74
0.9856
3.276
1.887
0.7388
0.1359
0.04886
0.01112
1.38
1.373
2.07
0.701
1.704
2.788
13.77
0.8307
4.751
0.391
0.01771
5.315
0.01638
1.051
3.875
1.179
1.562
1.949
23.68
3.385
1.495
2.34
4.808
2.282
0.2501
23.49
0.02061
43.58
7.55