/*--------------------------------*- C++ -*----------------------------------*\
  =========                 |
  \\      /  F ield         | OpenFOAM: The Open Source CFD Toolbox
   \\    /   O peration     | Website:  https://openfoam.org
    \\  /    A nd           | Version:  8
     \\/     M anipulation  |
\*---------------------------------------------------------------------------*/
FoamFile
{
    version     2.0;
    format      ascii;
    class       volScalarField;
    location    "5";
    object      nut;
}
// * * * * * * * * * * * * * * * * * * * * * * * * * * * * * * * * * * * * * //

dimensions      [0 2 -1 0 0 0 0];

internalField   nonuniform List<scalar> 
127143
(
4.059e-09
8.526e-10
2.176e-09
1.001e-08
1.483e-06
1.024e-08
7.87e-06
3.863e-06
1.6e-06
1.122e-05
5.388e-06
2.671e-06
2.967e-09
1.413e-08
0.001012
1.938e-05
5.87e-08
0.06416
0.03583
4.906e-05
0.009534
4.196e-05
0.07044
0.001766
4.008e-05
0.0002131
0.0001087
9.353e-05
0.0001487
0.08175
0.0009925
0.0001999
6.695e-05
0.0003441
0.1605
6.561e-05
0.004573
0.02372
0.002422
0.0002969
0.03582
0.01994
0.02329
7.508e-08
0.0632
0.0003648
0.0001574
0.0107
0.001917
0.002132
2.485e-05
0.4126
0.01251
0.05414
0.5196
0.000886
0.5164
0.03499
0.5049
0.05476
0.02183
0.02644
0.005398
0.6153
0.0009333
0.02221
0.1642
0.004877
0.005031
0.4126
0.001454
0.0001257
0.02238
0.5121
0.5791
0.0001177
0.5874
0.006215
0.0009293
0.6344
0.0001483
5.681e-05
0.0009214
0.00037
0.01266
0.00731
0.003179
9.341e-05
0.02342
0.001581
0.4395
0.0619
0.002319
0.009662
0.003706
0.05693
0.02095
0.0006904
0.009713
0.1682
0.6353
0.002102
0.0006203
0.0177
0.0077
0.009315
0.004977
0.4136
0.01268
0.5113
0.00112
9.576e-05
0.00627
0.006226
0.5759
0.01941
0.5801
0.5791
0.5895
1.833e-05
0.514
0.0009843
0.004388
0.04953
0.0001578
0.0001185
0.01909
0.5341
0.004849
0.0008101
0.004536
0.003481
0.008234
0.006407
2.113e-06
0.004745
0.211
0.0124
0.0002585
0.2198
0.0509
0.5934
0.01375
0.01661
0.01282
0.005977
0.0002325
0.6205
0.003302
0.0004065
0.01442
0.002164
0.02574
0.07832
0.002585
0.01303
0.03498
0.0007377
0.01096
0.0005976
0.001396
1.005e-05
0.4269
0.004559
0.0003362
0.001128
0.00374
0.01859
0.0007781
0.4476
0.0006465
0.01659
0.01663
0.006703
0.3751
0.003848
0.006423
0.004895
0.002209
0.3031
0.00672
0.1957
0.003567
0.003896
0.0008682
0.02726
0.06876
0.006515
0.001996
0.331
0.009893
0.00525
0.2176
0.002918
1.277e-06
0.01881
0.5573
0.5573
7.745e-06
0.5817
0.5773
0.424
0.1359
0.00496
7.923e-08
0.003522
0.1291
0.009838
0.08626
0.5758
0.1088
0.009528
0.5734
0.0008089
0.003057
1.431e-05
0.0003216
0.009149
0.005124
0.1302
0.007023
0.5834
0.002041
0.01308
0.0005008
0.0006039
0.0005032
0.02433
0.001193
0.01386
0.008843
0.2033
0.0237
2.426e-05
0.008976
0.07629
0.00457
1.993e-07
0.5773
0.01128
0.005551
0.001325
0.006654
0.0007762
0.02202
1.965e-05
0.00313
0.0001062
3.715e-05
0.4264
0.01239
0.0003271
0.007403
0.01215
0.001467
0.01274
0.5361
0.001069
0.01042
0.1151
0.01847
0.3062
0.06345
0.5934
0.01166
0.001212
0.001783
0.001902
0.01581
0.02454
0.0004967
0.3762
0.01322
0.01096
0.007261
0.01028
0.006407
0.002661
0.3264
0.00996
0.4395
0.05504
0.01837
0.5761
0.5754
1.183e-06
0.004078
0.576
0.002605
0.2917
0.02658
0.03649
0.07744
0.01438
0.5477
0.009642
0.001136
0.001016
0.006662
0.0253
0.000746
0.0253
0.02576
0.0203
0.0004522
0.003695
0.01013
0.5738
0.04006
0.0105
0.004465
0.0005162
0.0007657
0.4447
0.5745
0.002746
0.02022
0.0007038
0.07424
0.1868
0.07352
0.001201
0.3988
0.007342
0.002656
0.01892
0.2764
0.001992
0.001349
0.006386
0.01905
0.5753
0.1642
0.5386
0.5386
0.08197
0.01298
0.01697
0.01897
0.003665
0.2262
0.009113
0.01502
0.01081
0.006438
0.002492
0.001667
0.005123
0.0008477
0.003779
0.000922
0.04483
0.003898
0.01049
0.3808
0.001897
0.01196
0.006701
0.4148
0.001294
0.01606
0.005886
0.07864
0.00205
0.002201
0.5906
0.581
0.2284
0.0009608
0.3231
0.01216
0.3949
0.0004835
0.001962
0.3464
0.1224
0.001347
3.954e-05
0.01089
0.3234
0.06026
0.0001604
0.00103
0.02439
0.5835
7.307e-05
0.2287
0.0003269
0.01787
0.0345
0.5488
0.03274
0.0009104
0.001451
0.001948
0.0009859
0.0325
0.001122
0.3811
0.3177
0.0003337
0.5841
0.009749
0.003763
0.2264
0.01179
0.008485
0.008049
0.6365
0.002469
0.006483
0.0007698
0.05207
0.01238
0.004765
0.00387
0.007548
0.0003902
0.02498
0.002053
0.003966
0.0001358
0.002476
0.4262
0.01342
0.09685
0.02518
0.06815
0.001516
0.1071
0.4993
0.002501
0.003525
0.09374
0.01058
0.5905
0.01011
0.001924
0.4211
0.5528
0.5732
0.002365
0.2054
0.01204
0.5379
0.0007608
0.5761
0.001766
0.227
0.009533
0.009659
0.001286
0.01284
0.0008847
0.2146
0.005445
0.0006423
0.001753
0.006355
0.02765
0.008776
0.007842
0.02848
0.008654
0.007503
0.3872
0.5946
0.009388
0.001435
0.4419
0.01194
0.05834
0.05013
0.02084
0.1537
0.3864
0.002802
0.06015
0.001013
0.01857
0.0001667
0.001908
0.00286
0.0007859
0.007894
0.01095
0.021
0.5728
0.0007428
0.5817
0.003536
0.00351
0.01041
0.005931
1.268e-06
0.003929
0.00926
0.06751
0.008354
0.5721
0.0001617
0.5949
0.005272
0.01966
1.551e-07
4.845e-06
8.033e-06
0.5883
0.001974
0.004788
0.5746
0.01877
0.003757
0.004415
0.01621
0.009297
0.001231
0.01204
0.0001827
0.3942
0.007614
2.358e-05
0.001757
0.0008108
0.0007276
0.5225
0.01503
0.1423
0.02945
0.3675
0.0006049
0.0003712
0.0009211
0.446
0.009293
0.07117
0.0004641
0.00633
0.0004986
0.03531
0.5714
0.001804
0.007228
0.4495
0.0245
0.02587
0.001283
0.002159
0.001281
0.0008517
0.01849
0.017
0.002384
0.00469
0.002696
0.5746
0.000371
0.005099
0.0006891
0.00742
0.007786
0.6171
0.6087
0.1231
0.001574
0.007476
0.5753
0.3482
0.009015
0.001187
0.008307
0.007714
0.0006215
0.0001609
0.01502
0.5951
0.4924
0.0009465
0.01002
0.005394
0.4398
0.0001237
0.008807
0.002891
0.3273
0.0004323
0.5753
0.009023
0.004358
0.0372
0.3084
0.001702
0.01854
2.888e-05
0.3858
0.005304
0.0003294
0.5728
0.01203
0.5763
0.003021
0.01931
0.5761
0.001114
0.001522
0.0005317
0.005278
0.01512
0.001009
0.0011
0.004028
0.002674
0.002546
0.002111
0.003572
0.01007
0.0005765
0.4505
0.0009099
0.5748
0.007078
0.5414
0.01408
0.4891
0.5759
0.03245
0.002129
0.007007
0.4708
0.5416
0.001312
0.0002686
0.001209
0.0007801
0.0192
0.0122
0.009733
0.00623
0.01106
0.001952
0.0007881
0.4699
0.002415
0.01164
0.02779
0.03352
0.4028
0.3463
0.0195
0.0003276
0.02099
0.000133
0.5461
0.3086
0.003782
0.002326
0.4364
0.001103
0.05717
0.1161
0.001294
0.0109
0.01204
0.05919
1.702e-07
0.0006659
0.006558
0.005405
0.004176
0.004266
0.0005533
0.002409
0.4557
0.005679
0.001446
0.0101
0.5273
0.002925
0.02648
0.03229
0.4516
0.5277
3.84e-05
0.06665
0.001292
0.005499
0.002538
0.03976
0.03121
0.000612
0.06461
0.001483
0.5716
0.4822
0.01084
0.09765
0.001132
0.03297
0.0005245
0.02034
0.001577
0.1123
0.08039
0.3113
0.0007775
0.1517
0.001362
1.696e-06
0.008155
0.01216
0.01144
0.3115
0.006328
0.002231
0.0001237
0.05079
0.02169
0.0111
0.0004915
0.0074
0.001605
0.03183
0.001755
0.005425
0.01097
0.01964
0.03439
1.685e-08
0.02599
0.454
0.00393
0.004004
0.003621
0.564
0.002478
0.04571
0.00851
0.3194
0.0001266
0.002735
0.0004088
0.3686
0.002171
0.003725
0.002065
0.003937
0.3584
0.01107
0.0007732
0.001124
0.01151
0.584
0.01509
0.002366
0.5866
0.00931
0.02043
0.004566
0.003996
0.02642
0.00786
0.0002206
0.002073
0.3806
0.01095
0.02457
0.0002948
0.0008935
0.05281
0.01926
0.0009478
0.4011
0.004687
0.001316
0.01885
3.106e-05
0.01908
0.000973
0.007064
0.007175
0.01367
0.5903
5.86e-08
0.004599
0.005578
0.0005433
0.007793
0.002074
0.003106
0.001656
0.4975
0.04723
0.01713
0.321
0.002607
0.003614
0.004816
0.004464
0.4271
0.01022
0.003616
0.5721
0.4113
0.03344
0.0255
0.01922
0.002054
0.009124
4.183e-05
0.01463
0.03561
0.5304
0.007129
0.004199
0.001074
0.000549
0.01955
0.4336
0.531
0.1056
0.000111
0.5289
0.1211
0.0004495
0.006316
0.0002351
0.4648
0.006661
0.006167
0.5809
0.0008781
0.5158
0.002746
0.0002249
0.003639
0.01776
0.000224
0.466
0.001188
0.05188
0.0006578
0.001032
0.0005133
0.0004459
0.05324
0.02462
0.01435
1.674e-05
0.5784
0.03183
0.001047
0.001437
0.001416
4.024e-05
0.4364
0.1328
0.0009246
0.0001957
2.509e-05
0.004018
6.307e-06
0.001887
1.258e-05
0.003562
0.0006641
0.04831
7.865e-05
0.588
0.004213
0.2966
0.2996
0.01154
0.4934
0.006726
0.03118
0.00643
0.02628
0.2819
0.002075
0.00354
0.5495
0.05951
0.00495
0.2931
0.001003
1.355e-05
0.004315
0.009087
0.00109
0.02061
0.001569
0.5718
0.01061
0.001413
0.4257
0.001273
0.00511
0.02879
0.427
0.1758
0.06463
2.449e-05
0.009501
1.37e-05
0.01213
0.005526
0.004406
0.0002642
0.00191
0.2982
0.0002614
0.02812
0.2962
0.01096
3.137e-05
0.04848
0.001346
0.01329
0.01793
0.0001771
9.766e-06
0.001765
0.5957
0.5822
0.009634
0.007752
0.003455
0.001211
0.004487
0.0003675
0.006983
0.1055
0.0003612
0.2038
0.0002693
0.5664
0.01048
0.0003958
0.01241
0.002549
0.009945
0.5775
0.5821
0.0007133
0.04285
0.002329
0.001907
0.001306
0.01413
0.02235
0.003734
0.002556
2.113e-05
0.01419
0.000887
0.001116
0.01254
0.01625
0.003094
0.002205
0.0003184
5.654e-05
0.009593
0.5637
0.5598
0.0127
0.006946
0.0252
0.6139
0.005352
0.009639
0.03034
0.001569
0.02079
0.001724
0.0107
0.6368
0.03449
0.02855
0.0001402
0.0004485
0.003531
0.02676
0.03478
0.001065
0.001844
0.009011
0.02342
0.004308
0.003456
0.003753
0.0003378
0.4325
9.215e-05
0.0002417
0.02522
0.005929
0.001001
0.5777
2.602e-05
2.009e-05
0.4338
0.6045
0.009117
0.007786
2.875e-05
0.001177
0.004464
0.001358
0.001356
0.03299
0.03243
0.4009
0.001155
0.01136
0.001946
0.01466
0.0004059
0.006147
0.4637
2.387e-05
0.002874
0.5686
0.003039
0.4415
0.5695
0.009887
0.06589
3.324e-05
0.5626
0.0008794
0.5804
0.003092
0.07745
0.06073
0.01577
0.0009869
0.001476
0.001159
0.007716
0.3875
0.1794
0.01261
0.002649
0.001979
0.001622
0.0001654
0.001175
2.019e-05
0.004923
0.001346
0.001307
0.001459
0.0002436
0.04439
0.05136
0.3526
0.001566
0.002164
0.0004555
0.3916
0.001229
0.01504
0.004787
0.003474
0.009409
0.02551
0.000688
0.02533
0.004864
0.002005
0.000782
0.0009992
0.4687
0.009751
0.001617
0.5044
0.002413
0.001164
0.6385
0.01538
0.001618
0.2106
0.04446
0.02202
0.002588
0.04857
0.5477
0.002462
0.002382
0.5774
0.05712
0.3644
0.009779
0.002026
0.01176
0.3096
0.0006943
6.912e-05
0.0009839
0.002015
0.01539
6.72e-05
0.4106
0.003018
0.5769
0.006558
0.005948
0.002984
0.003412
0.0006053
0.0002516
0.5958
7.076e-06
0.0006389
0.000808
0.006304
0.001214
0.02387
0.05336
0.0003908
0.005625
0.2727
9.071e-06
0.005499
0.001666
0.0006299
0.0027
0.002302
0.00248
0.000352
0.004435
0.003793
0.01705
0.001257
0.001629
0.04757
1.501e-05
0.06811
0.00339
0.07326
0.000895
0.5489
0.5671
0.01913
7.901e-05
0.009933
0.1958
2.49e-05
0.0008886
0.5795
0.0003306
0.00441
0.02221
5.384e-05
0.01257
0.003798
7.335e-07
0.05971
0.0002
0.01619
0.005215
0.0002903
0.001799
0.0005895
0.007905
0.002379
0.087
0.08388
0.02405
0.003185
0.009583
0.004103
0.0189
0.0001885
0.0116
0.03896
0.01322
0.0197
0.0336
0.01136
1.549e-05
0.2324
0.0001867
0.0004368
0.003213
0.00489
0.5801
0.0197
0.008434
0.03279
0.0004229
0.0006486
0.0004426
0.5172
0.001277
0.0006655
0.006653
2.515e-05
0.007666
0.04447
0.00113
0.5897
0.000982
0.003886
0.0001924
0.003059
0.1218
0.01338
0.4862
1.423e-05
2.429e-05
0.005891
0.02542
0.009836
0.4313
0.4566
0.001365
0.007251
0.03291
0.124
0.3435
0.3412
0.008674
0.006805
0.03541
0.002387
0.002095
2.15e-05
0.01815
0.0005185
0.003061
0.002161
0.4787
0.001024
0.01628
0.004618
1.969e-05
0.02634
0.02831
0.003693
0.006117
0.00814
1.452e-05
0.06317
0.00551
0.01765
0.02721
0.01788
0.002288
1.542e-05
0.08147
0.0007594
0.54
0.001706
0.001205
0.4917
0.0008298
0.007455
0.00452
0.001191
0.5557
0.01732
1.156e-05
0.578
0.002125
0.001182
0.004759
0.0002766
0.02329
0.0183
0.001014
0.0002967
0.004553
0.002962
0.1233
0.003811
9.423e-05
0.0003521
0.00351
0.004615
0.5714
0.003948
0.04403
0.0006266
0.002794
0.02439
0.004564
0.4923
0.01905
0.002237
0.3525
0.02058
0.4449
0.000512
0.01954
9.652e-05
0.002756
0.01551
0.001213
0.006865
0.002723
0.001273
1.12e-05
0.004428
0.002757
0.01806
0.008653
0.01355
0.6148
0.003571
0.5961
0.01683
0.5992
0.01448
0.5565
0.002974
0.003345
0.6118
0.57
0.0009972
0.09086
0.0008174
0.06869
0.6317
0.008237
0.006663
0.3015
3.574e-06
0.0003228
3.839e-05
0.003044
0.007915
0.001797
0.002893
0.003207
0.09248
0.000243
0.006624
0.0007037
0.001469
0.007906
0.01001
0.03774
0.5603
1.074e-05
0.005355
0.0002801
0.5792
2.064e-05
0.002191
0.001629
0.002761
0.3849
0.3796
0.09969
0.06247
0.09591
0.02211
0.005921
0.0208
0.01447
0.1721
0.01829
0.0003892
0.009311
0.0559
0.008325
0.01761
0.0009049
0.000977
0.004589
0.001629
0.01205
0.5902
0.00221
0.002114
5.111e-05
0.01513
0.2037
0.004567
0.2159
0.003467
0.003693
0.0006883
0.08022
0.5658
0.008293
0.004783
1.633e-05
0.0002076
0.02472
0.004645
0.0006999
0.1152
0.3443
0.001192
0.00153
2.704e-05
0.1362
1.557e-05
0.003405
0.5642
0.00279
0.0003099
0.02168
0.05937
0.01356
0.001062
0.006223
0.005688
0.01424
0.0006019
0.1681
0.001561
0.0006742
0.0008134
0.4107
0.4105
0.001362
0.01073
4.597e-05
0.00505
0.0006615
0.0006138
1.048e-05
0.2315
0.001854
0.5224
0.5836
0.561
0.01173
0.4766
1.975e-05
0.5741
0.0003137
0.03116
0.004349
0.006952
0.0008707
0.4252
0.0002093
0.07438
0.002036
0.01073
8.388e-05
0.4201
0.003173
0.001103
0.01219
0.0002875
0.0007033
0.008086
0.00124
0.0008403
0.1462
0.4159
0.0001969
0.3931
0.6319
0.03189
0.0002903
0.4395
0.0003332
0.5837
0.01016
0.01351
0.015
0.002766
0.5008
0.01008
0.001149
0.003082
0.1114
0.01294
0.04108
0.5751
0.5421
0.009864
2.608e-05
0.006471
0.004932
0.523
4.655e-05
0.03278
0.07955
0.385
0.01316
0.002815
0.001007
0.4987
0.002348
0.5836
0.009852
0.6259
0.02681
0.002737
0.003922
0.00717
0.0006765
0.002612
0.5461
0.01847
0.0003682
0.001502
2.2e-05
0.0004979
0.03505
0.2224
0.009494
0.0001907
0.01526
0.00202
0.000124
0.4203
0.07382
0.569
0.004227
0.002526
0.007108
0.5805
0.0005156
0.5731
0.04586
0.002776
0.5281
0.03897
0.0318
0.005379
0.01354
0.2343
0.001629
0.5892
0.001452
0.0002882
0.01538
0.03503
0.002925
0.2606
0.01865
0.004042
0.0005072
0.004037
0.004452
0.0008361
0.004942
0.003422
0.0003032
0.1677
0.06168
0.00373
0.2229
0.002217
0.008925
0.06501
0.005159
0.5315
0.3307
0.0004451
0.06446
0.01641
0.003405
2.162e-05
0.004579
3.418e-05
0.02518
0.4188
3.603e-05
0.003354
0.07161
0.001549
0.3246
0.01723
0.6394
0.02213
0.0001124
0.01478
0.006043
0.005277
0.003292
0.5855
0.005826
0.02646
0.00849
0.0007459
0.4339
0.004455
0.0003295
0.5665
0.4948
0.003312
0.4074
0.009617
0.01309
0.01524
0.004751
0.02655
0.008938
0.4249
0.04382
0.006408
0.4712
0.03941
0.0009979
2.186e-05
0.6052
0.001782
0.0001328
0.0377
0.001596
0.02163
0.00313
2.217e-05
0.3768
0.4258
0.002775
0.463
0.001113
0.005563
0.008408
0.0002195
0.002657
0.4555
0.002672
1.079e-05
1.662e-05
0.001857
0.002581
0.002563
0.02707
0.01195
0.01339
0.007169
0.0006646
0.00155
0.001384
0.002369
4.565e-05
0.008741
0.02216
0.5747
0.001365
0.0228
0.006365
0.04088
0.2119
0.003388
0.001861
0.04559
0.6089
0.001147
0.0004951
0.0232
0.002116
0.01267
2.054e-05
0.001802
0.4543
0.002161
0.0002002
0.008841
0.004224
1.369e-05
0.3703
0.000304
0.0009709
0.003114
0.3054
0.00965
0.01727
0.0006932
0.002217
0.01167
0.0004973
0.4568
0.009315
0.002689
0.1264
0.01498
0.5813
0.001191
0.0004184
0.003227
0.000539
0.0001839
0.008374
3.01e-05
0.4292
0.001294
0.007718
0.02206
0.2627
0.04058
0.0092
0.01
0.003966
0.4295
0.004157
9.004e-06
0.0001304
0.004332
0.02997
0.02126
0.01692
0.5882
0.4767
0.005534
0.03287
0.4981
0.005466
0.003634
0.001961
0.002172
0.009943
0.002297
0.01821
0.0008536
2.086e-05
9.833e-05
0.07722
0.004439
1.034e-05
0.02166
0.0003981
0.05482
0.01223
0.01303
5.515e-06
0.01763
0.01223
0.3431
0.2018
0.0005066
0.00362
0.5752
0.5933
0.0156
0.0004935
0.0114
0.004055
7.893e-05
0.005422
0.37
0.0006077
0.02079
0.002995
0.0002422
0.05988
0.1108
0.01298
0.003886
0.0257
0.00545
0.5881
0.0003354
0.02787
0.0006445
0.07773
0.002321
0.0002311
0.01483
0.0005892
0.01933
0.00066
0.003326
0.0004311
0.07261
0.01818
0.005365
0.008128
0.001106
0.00276
0.0004603
0.001129
0.5795
0.002345
0.0554
0.0008292
0.005437
0.3795
0.02326
0.1018
0.0003254
0.3772
0.003033
0.005305
0.004006
0.01696
0.01254
0.1061
2.119e-05
0.0435
0.5271
0.0007293
0.4635
0.0106
0.3071
0.0245
0.02025
0.5435
0.03759
0.002177
0.0005168
0.577
0.5567
0.01872
0.01077
0.002581
0.1359
0.01956
0.004507
0.000631
0.001075
0.06207
0.008148
0.02316
0.07624
0.004319
5.562e-05
0.02735
0.0005981
0.001335
0.02414
2.201e-05
0.575
0.4301
0.01392
0.01999
1.016e-05
0.5796
0.02521
0.0007987
2.846e-05
0.001257
0.0008958
0.307
0.3073
0.001447
0.003648
0.004158
0.002863
0.2831
0.0421
0.02212
0.6351
0.0005963
0.002782
0.005155
0.005251
0.0002436
0.1083
0.01152
0.561
0.01319
0.002434
0.0006878
0.001252
0.004075
0.0001792
0.001023
0.008766
0.003787
0.001659
0.003659
0.09387
0.006127
0.0001868
0.2975
0.2996
0.001495
0.002469
0.0001247
0.0137
0.001127
0.004521
0.3896
0.575
0.00796
0.6143
0.0079
3.046e-05
0.006344
0.05803
0.004627
0.146
0.0001405
0.002657
0.4121
0.01205
0.01252
0.004819
0.007286
0.003739
0.003466
0.006129
0.006602
0.005898
0.0115
0.01766
0.0006295
0.00356
0.005044
0.002145
0.0002849
0.002871
0.00109
0.0009719
0.008345
0.01306
0.008887
3.934e-05
0.03231
0.003147
0.5859
0.01246
0.6194
0.00351
0.02987
2.967e-05
0.002139
0.06992
0.000422
1.366e-05
0.0004861
0.007398
0.005882
0.0006665
0.000335
0.3792
0.00695
0.008122
1.497e-05
0.003416
0.005844
0.04153
0.0343
0.5759
0.01341
0.0003791
0.01574
0.0005904
0.01646
0.112
0.0003519
0.5627
0.01756
0.03043
0.01095
0.0006513
0.04619
0.01384
0.02815
0.2264
0.0024
0.009726
2.081e-05
0.0006665
0.004948
0.5334
0.005699
0.008243
0.0002796
0.001362
0.008329
0.03703
0.006953
0.5758
0.00182
0.001035
0.009283
0.004804
0.01613
0.0003608
0.0008194
0.00153
0.0059
0.04683
0.01096
0.0001864
0.05203
0.1288
1.775e-05
0.387
0.06013
0.5765
0.599
0.006053
0.5906
0.0007884
0.004552
0.04657
0.0127
0.0008209
0.0003077
0.003317
0.0009805
0.003393
0.01164
8.057e-06
0.007441
0.003951
0.192
1.098e-05
0.01837
0.0001475
0.0001603
0.3396
0.0006826
0.0008452
0.01688
0.01466
0.0002983
0.002206
0.0005519
0.009617
0.006889
0.46
0.04181
0.6067
0.02147
0.01515
0.001145
0.01272
0.01163
7.644e-05
0.01465
0.5609
0.00181
0.006292
0.04193
0.007041
0.006127
0.002717
0.0009869
0.0006156
4.141e-05
0.001792
0.002227
0.0008629
0.004188
0.002003
0.08415
9.659e-06
0.002653
0.005309
0.01375
0.4119
0.004251
0.001619
0.01189
0.01697
3.431e-05
0.0007497
0.004146
0.03241
0.005705
0.0006228
0.432
0.0002276
0.02576
0.2541
0.005689
0.001194
0.5802
0.002248
0.0149
0.007675
0.0002271
0.007478
0.005935
1.263e-05
0.006912
0.002595
0.6276
0.6276
0.002538
0.02208
0.01053
0.00137
0.003873
0.5493
0.0003384
0.0006704
0.01017
0.5263
0.5567
0.01134
0.02823
0.002444
8.098e-06
0.0009747
0.4356
0.0009868
2.781e-05
0.07454
0.001078
0.001698
0.4293
0.02378
0.0005176
0.06563
0.005524
0.3902
0.3381
0.3564
0.2972
0.08906
0.005923
0.008709
0.001347
0.01509
0.001849
0.007812
0.0006271
0.2962
0.003982
0.005562
0.0004298
0.0008386
0.0003643
0.001746
0.006452
0.001941
0.009818
0.003308
0.1562
0.004902
9.784e-06
0.00246
0.0001874
0.02385
0.002503
0.5749
1.067e-05
0.00421
0.001697
0.01589
0.2811
2.65e-05
0.5789
0.004472
0.001113
0.4344
0.004976
0.003809
0.01369
0.002879
8.965e-05
0.2151
0.0009551
0.4635
0.01042
0.007994
0.001872
0.01294
0.004259
0.5537
0.5832
0.06332
0.0009795
0.0006735
0.06112
0.01199
0.003504
0.01707
0.0004431
0.001759
0.03285
0.02182
0.005796
0.005029
0.05171
1.169e-05
0.02726
0.5747
0.0001675
0.5745
0.4178
0.06814
0.4288
0.0002939
0.01363
0.0005223
0.008461
0.00181
0.586
0.08013
0.001513
0.002979
0.01493
0.4415
0.0379
0.0001124
0.0002277
0.6183
0.0001459
0.0002223
1.479e-05
0.4132
0.03523
0.01969
0.0828
0.5641
0.03896
0.004732
0.0001385
0.08011
0.0009433
1.077e-05
0.5756
0.001642
0.0004647
0.003984
0.5787
0.0008077
7.862e-05
2.221e-05
1.963e-05
0.03284
0.02065
4.829e-05
0.2232
0.003825
0.5615
0.01251
0.0008775
0.03911
0.001367
1.948e-05
0.08724
0.002132
0.004005
0.6424
0.2337
0.001227
0.000684
0.04916
0.0002575
0.005378
0.02383
0.01863
0.009826
0.001654
0.005069
0.576
0.01193
0.01087
0.002981
0.001405
0.002568
0.001271
0.001905
1.7e-05
1.634e-05
9.262e-06
0.001167
0.1457
0.0009334
0.4811
0.0006153
0.0006887
0.5762
2.757e-05
0.6349
0.002246
8.114e-05
0.0004066
0.00211
0.003538
0.001317
0.00165
0.3723
9.071e-06
0.009443
0.366
0.01994
0.002979
2.016e-05
3.175e-05
1.084e-05
0.01946
0.001362
0.0007532
0.01292
0.08321
0.005437
0.0001365
0.4744
0.005418
0.006497
0.002008
0.006648
0.005877
0.02884
0.0001935
0.004275
0.003353
3.493e-05
0.2897
0.0002522
0.07127
0.006787
0.002092
0.3326
0.1142
0.007656
0.001114
0.002623
1.733e-05
0.356
0.5728
0.01732
0.0026
0.0003506
0.00757
0.03691
0.3072
0.3916
0.0006305
0.3062
0.001516
0.001636
0.09664
0.00288
0.004968
0.0001135
1.632e-05
2.014e-05
0.2536
0.001029
0.00384
0.004128
0.04151
0.02854
3.828e-05
0.01475
0.0006694
0.002451
0.0002324
0.002839
0.01539
2.359e-05
0.006471
0.005254
0.008931
0.363
0.006883
0.1214
0.5869
0.009366
0.002222
0.004756
0.00544
0.007737
1.212e-05
1.134e-05
0.02058
1.395e-05
0.3765
0.06688
0.2884
0.2004
0.005361
0.6338
0.001615
1.75e-05
0.001374
0.000234
0.04832
0.01673
0.002514
0.004027
0.01742
0.001333
0.01174
0.0002337
0.002842
0.3328
0.002893
0.004706
0.6046
0.2933
0.0004212
0.5847
0.002542
0.002365
0.002459
0.01212
0.0002853
0.4256
0.06819
0.2332
0.0008891
0.0002023
0.001267
0.006453
0.552
0.001547
0.5718
0.03737
0.002617
0.03563
2.122e-05
0.002577
0.001033
0.03472
0.0005579
0.02073
0.3843
0.01019
0.001538
0.4739
0.01481
0.5845
0.0007859
0.0004936
0.004429
0.004525
0.4686
0.001013
0.00166
0.004162
0.0001493
0.0025
0.0005241
0.5851
0.04699
0.0169
0.01449
0.002467
0.008753
0.08795
0.01794
0.0611
0.003922
0.004569
0.4657
0.6026
0.5892
0.3007
0.04202
0.0005001
0.001209
0.5831
0.002704
0.005755
0.003677
0.5928
0.004232
0.1125
0.0003966
0.4314
1.106e-05
0.02097
0.0003623
0.3486
0.07756
2.212e-05
0.3523
0.003814
0.00302
0.002126
0.001918
0.004052
0.5812
0.002444
0.001369
0.01018
0.004169
0.01057
0.01501
0.008274
0.005086
0.001484
0.5655
0.01228
0.007329
0.0002448
0.05419
0.614
0.001742
0.0007025
0.01029
0.01032
0.01229
0.001299
0.2363
0.008672
0.001177
0.01896
0.002121
0.02569
0.332
0.006997
2.094e-05
0.01429
0.002251
0.0002082
0.01251
0.01052
0.5704
0.3718
0.0621
0.3766
9.181e-05
0.003013
0.5933
0.5898
0.005071
9.065e-06
0.5935
0.009979
0.000249
0.003968
0.01122
0.003727
0.0009861
0.005322
0.007169
0.0009371
4.836e-05
0.0004338
0.588
0.005277
0.01714
0.003502
0.51
0.03612
0.002542
0.00809
0.001643
4.968e-05
0.00028
0.0672
0.0009897
2.524e-05
0.03103
0.001311
0.01048
0.0163
0.02335
0.0004692
9.62e-05
0.5614
0.002109
0.004006
0.5923
0.0002321
0.01312
0.0121
0.09966
0.01549
0.00102
0.001893
0.004531
0.5815
0.5804
0.06209
0.002223
0.6081
0.03137
0.4801
0.0006625
0.02302
0.01314
0.001344
0.0004494
0.05242
0.009536
0.5266
1.982e-05
0.01151
0.000735
0.001328
0.1291
0.001846
0.02286
0.002373
2.229e-05
0.03716
2.339e-05
0.547
0.5514
0.007983
0.1579
0.5298
1.662e-05
0.002849
0.001912
0.0003797
0.0155
0.006548
0.3233
1.618e-05
0.1675
0.004723
0.6043
0.06583
0.002622
0.006464
0.00553
0.01593
0.02637
0.000904
0.4059
0.005551
0.0003605
0.0005387
0.0001963
0.06027
0.005185
0.01136
0.6201
0.0009919
0.001692
0.1297
0.2416
0.003026
2.204e-05
0.3079
0.5562
0.01071
0.0005128
0.01899
0.0009264
0.6189
0.0003269
0.003308
0.003836
0.6107
0.09304
0.0007373
0.002475
0.0005129
0.009499
0.004064
0.5404
0.001202
0.3464
0.0008014
1.769e-05
0.1351
0.002683
0.01969
0.0003095
0.0001552
0.0008657
0.1172
0.3995
0.00738
0.04947
0.5697
0.002246
0.004812
0.02918
0.5976
0.09654
0.1326
0.4457
0.001673
0.00489
0.5753
0.002128
0.004637
0.0007952
0.3768
0.5889
0.571
0.1312
0.0235
0.04527
0.001099
2.091e-05
0.0001163
0.004917
0.0001112
0.0002457
0.4009
2.401e-05
0.00664
0.0003992
0.02647
0.05584
0.03136
0.0002859
0.001183
0.0003976
0.001497
0.2129
0.008176
0.001864
0.004708
0.01643
0.0451
0.002105
0.07061
0.001974
0.3637
0.006934
0.008857
0.02497
0.03831
0.001112
1.961e-05
0.0002646
0.4161
0.0002029
0.006541
0.6082
0.004624
0.5802
0.000571
0.004185
0.3531
0.001671
0.00198
0.6543
0.01575
0.03914
0.0001516
0.5747
0.04378
3.68e-05
0.01775
0.5644
0.0003658
0.007638
0.2488
0.04653
0.04206
0.003232
1.609e-05
0.001166
0.005355
0.02377
0.0009541
0.01703
0.5721
0.2497
0.00188
0.005294
0.003766
0.6098
1.315e-05
0.002723
0.008232
0.002195
0.006891
0.005506
0.4379
0.1122
0.001317
0.002656
0.207
0.004281
0.001018
0.03628
0.01258
0.009766
0.02367
0.2038
0.02889
0.009025
0.01736
0.009786
0.6068
0.0006681
0.3992
0.006976
0.01267
0.01898
0.000353
0.004602
3.256e-05
0.02319
0.03776
0.294
0.5422
0.01576
0.009973
0.0002953
0.0006637
0.0028
0.001579
0.0005082
0.01486
0.02336
0.005852
0.001152
0.0001264
0.0108
0.2412
0.0004935
0.02097
0.0005917
0.01234
0.02233
0.006981
0.002572
0.5729
0.002211
0.0447
0.5671
0.1017
0.0004878
0.214
4.366e-06
0.001152
0.001045
0.5697
0.01729
0.002496
0.3804
0.008907
0.009087
0.0005266
0.001709
0.0004578
0.5878
0.003799
0.5653
0.0191
0.002014
0.001745
0.01266
0.001073
1.024e-05
0.4503
0.5749
0.006402
0.003789
0.0006343
0.024
0.005126
0.0009834
0.02826
0.01444
0.5831
0.003277
0.00042
0.09836
0.00878
0.5613
0.003886
0.125
0.009912
0.001615
0.003593
0.2515
0.0008111
0.01477
0.4903
0.00132
0.004211
0.1062
0.5648
0.4385
0.001606
0.0008196
0.01017
0.04251
0.004549
0.06835
0.00335
0.009215
0.3528
0.03599
0.03405
1.357e-05
0.0004003
0.0005036
0.5424
0.001163
0.003864
0.0005422
0.0007178
2.711e-05
0.01105
0.0145
0.004627
0.006128
0.0009946
0.00026
0.07097
0.4194
0.03902
0.3015
1.046e-05
0.5929
0.01417
0.001288
0.008776
0.01436
0.002777
0.005355
0.0002434
0.01721
0.001766
0.01836
0.01831
0.001796
1.36e-05
0.008746
2.157e-05
3.479e-05
0.5757
2.037e-05
0.0037
0.0005575
0.0003738
0.01329
0.04864
0.002118
0.005824
0.01039
0.234
0.01414
0.01376
0.00373
0.007341
0.004962
0.02129
0.02284
0.07088
1.981e-05
0.005718
0.0004831
0.005043
0.001121
0.3924
0.001048
0.004213
0.0002579
0.01729
2.858e-05
0.001812
0.001867
0.08352
0.0003063
0.09183
0.01062
0.007137
0.09993
0.02793
0.009698
0.009655
0.002862
0.001969
0.01123
0.003341
0.007207
2.986e-05
0.01009
3.323e-05
0.2243
0.02674
0.00254
0.02914
0.2151
0.002585
0.5749
0.5755
0.5753
0.006058
0.003828
0.001075
0.09422
0.06926
0.006504
0.185
8.612e-06
0.0003472
2.039e-05
0.002411
0.1416
0.000876
0.0005867
0.09189
0.0005857
0.5863
0.01676
0.02998
0.001215
0.04405
0.5434
0.4539
0.003258
0.02587
0.1941
1.938e-05
0.003644
0.4893
0.5799
0.006704
0.2684
0.001267
0.0001398
0.45
0.01098
0.001269
0.00289
0.001629
1.932e-05
0.007651
0.05534
0.007876
0.002153
0.05762
0.001858
0.006014
0.01399
0.001036
0.003654
9.221e-06
0.2532
0.004671
0.0003052
0.0009842
0.5784
0.007867
0.5768
0.02193
0.03356
0.005245
0.0141
0.00186
0.003257
0.04972
0.000524
0.0007655
0.0009639
0.0008818
0.0008323
0.005456
0.03891
0.005978
0.002124
0.008953
0.001737
0.4677
2.156e-05
3.447e-05
0.0004625
0.007691
0.01106
0.0004529
0.001218
0.03326
0.1422
0.0001553
0.003201
0.3699
0.291
0.4336
0.001656
0.00227
0.03821
0.0007973
0.0246
0.3199
0.004081
0.006441
0.01073
0.001496
1.054e-05
0.0009135
0.00368
0.002738
0.007096
0.003923
0.0005425
0.005556
0.01634
0.02613
0.0004526
0.008032
0.03485
0.005846
0.001002
0.07017
0.01595
0.02297
0.03596
1.927e-05
0.001059
0.6032
0.001094
0.02506
2.665e-05
0.0008657
0.5188
0.06957
0.0009468
0.3813
0.007541
0.0006591
0.0009876
0.02711
0.3867
0.04635
0.01636
0.01247
0.09872
0.00169
0.4412
0.001155
0.008492
0.001528
0.0016
0.006481
0.005951
0.001709
0.001158
0.0348
0.004821
0.5815
1.668e-05
0.25
0.2928
0.001651
0.5832
0.007707
0.01968
1.874e-05
0.5955
0.006868
0.002812
0.001306
0.001839
0.04834
0.004743
0.007335
0.002016
0.0003397
0.006743
0.1291
0.5938
0.001885
0.001287
0.05882
0.004714
0.0007666
0.0005466
0.01368
0.5404
0.005356
0.002633
1.38e-05
0.006703
0.004457
0.01713
0.002779
0.545
0.01171
0.0006127
0.0005555
0.5973
0.04412
0.0008943
0.5391
0.005622
0.0004834
0.01707
0.5939
0.6002
0.03314
0.4423
0.3778
0.5736
0.03
0.001535
0.0004747
0.06884
0.003681
0.01501
0.07753
0.6432
0.012
0.005465
0.1619
0.1294
0.0005389
0.06071
0.4553
0.0005986
0.005493
0.03743
2.093e-05
4.931e-05
0.4798
0.003284
0.0214
0.001457
0.00498
0.0003572
0.6258
0.01408
2.013e-05
0.01369
0.0018
0.03287
0.0003372
0.005306
0.003353
0.01309
2.876e-05
0.1502
0.0001348
0.006528
0.38
0.3516
0.3343
0.002088
0.008534
0.000384
0.002062
2.573e-05
0.118
0.3371
0.003506
0.007791
0.08022
0.5882
0.0007606
0.02277
0.0005895
0.005591
0.0007841
0.00254
0.004159
0.007438
0.002241
0.5414
0.000165
0.002614
0.005344
0.01244
0.1496
0.5928
0.008701
0.01531
0.00176
0.0002242
0.008269
0.262
0.00981
0.07971
0.1008
0.5881
0.0006972
0.00285
0.0003123
0.002279
0.007601
0.02245
0.005177
0.01105
0.01671
0.005428
0.03249
0.05521
0.5907
0.003555
9.477e-05
0.06421
0.02242
0.0002477
0.3308
0.5705
0.03292
0.2427
0.6039
0.006945
0.4882
0.4879
0.01139
0.3775
0.006308
7.039e-05
0.001256
0.0383
0.05361
0.4749
0.5948
0.02631
0.002817
0.005941
1.834e-05
0.01233
0.4343
0.02092
0.01483
0.0003326
0.1039
0.5969
0.105
0.006282
0.6069
0.5295
0.003695
0.002885
0.1241
0.385
0.005206
0.5389
0.2035
0.5078
8.305e-06
0.1194
0.0008815
0.02295
0.3731
0.1276
0.03181
0.008764
0.001002
0.009088
0.005881
0.01496
0.6238
2.466e-05
0.01184
0.00786
0.5902
0.001417
0.001994
0.003473
0.001132
0.03851
0.001677
0.01344
0.05278
0.0004828
0.6064
2.226e-05
0.009193
2.967e-05
0.6022
0.004883
0.5761
0.1594
0.01585
0.0003039
0.01398
0.001555
0.04716
0.4283
0.0008738
0.4262
0.0006457
0.0007631
0.03895
0.06025
0.4432
0.002836
0.5668
0.02033
0.009332
0.02212
0.008991
0.5795
0.0002372
0.2045
0.002035
0.0009369
0.01965
0.0007689
0.0001839
0.009424
0.001719
0.004871
0.2164
0.01174
0.01708
0.5744
0.5716
0.001078
0.01897
0.0001788
0.007888
0.003224
0.5793
0.006254
0.5794
0.5767
0.2054
0.001754
0.06159
0.03527
0.3268
0.005901
0.03973
0.005744
0.002098
0.0007372
0.4667
0.001571
0.002438
0.0053
0.04872
0.008817
0.586
0.00506
0.3397
0.004392
0.008921
0.3031
0.002442
1.431e-05
0.001678
0.00035
0.008631
2.543e-05
0.0004869
0.02745
0.005416
0.0005225
0.01869
5.852e-05
0.001251
0.008403
0.005884
0.003328
0.006251
0.0007896
0.001138
0.4253
0.01015
0.4337
0.001605
2.633e-05
0.005778
0.0006177
0.001945
0.01427
0.001644
0.3158
0.002519
0.006223
2.678e-05
0.01932
0.4535
0.009912
0.01303
0.003888
0.4066
0.01856
0.003757
0.007805
0.04476
0.00176
0.005195
0.0002151
0.001961
0.003086
0.007775
0.009846
0.0009105
0.4464
0.001104
0.008941
0.5599
0.004239
0.004232