/*--------------------------------*- C++ -*----------------------------------*\
  =========                 |
  \\      /  F ield         | OpenFOAM: The Open Source CFD Toolbox
   \\    /   O peration     | Website:  https://openfoam.org
    \\  /    A nd           | Version:  8
     \\/     M anipulation  |
\*---------------------------------------------------------------------------*/
FoamFile
{
    version     2.0;
    format      ascii;
    class       volScalarField;
    location    "5";
    object      p;
}
// * * * * * * * * * * * * * * * * * * * * * * * * * * * * * * * * * * * * * //

dimensions      [0 2 -2 0 0 0 0];

internalField   nonuniform List<scalar> 
127143
(
-0.2137
-0.5554
-0.4353
-0.4396
0.008834
-0.4417
0.3329
0.1994
0.1663
-0.2814
1.203
0.3879
-0.311
-0.4438
1.648
-0.1188
-0.4836
-0.1356
-0.258
-0.4
-0.3517
-0.3038
0.2242
-0.007792
-0.3055
0.1246
-0.2999
-0.3137
0.7286
-0.09861
-0.07696
0.1314
-0.1579
-0.3804
0.3257
-0.1366
-0.2928
-0.3394
-0.007153
-0.1839
-0.2616
0.1954
0.1712
-0.3054
-0.1331
-0.379
0.7249
-0.2979
0.1636
-0.02872
-0.1249
0.1277
-0.3159
-0.1907
0.002897
0.3188
0.00233
-0.004713
-0.01802
-0.1938
1.038
-0.2974
-0.0404
0.01285
-0.3143
0.4439
-0.06596
-0.03738
-0.03612
0.0007208
-0.02807
-0.305
-0.2158
-0.01641
0.0125
-0.3162
0.01976
-0.3048
0.319
0.02154
0.7138
-0.3971
-0.3788
-0.1014
-0.2694
-0.3024
0.006232
-0.2775
0.4429
0.2512
0.0149
-0.2586
0.2641
-0.3499
-0.397
-0.04773
0.1903
-0.04027
-0.3119
-0.06339
0.02129
0.1637
0.6813
0.04063
-0.3028
-0.3134
0.1285
0.0008742
0.7313
0.01144
1.642
-0.2849
-0.3745
1.449
0.03802
0.158
0.06428
0.01334
0.02394
-0.4354
0.01147
-0.3691
0.534
0.01908
0.7129
0.08802
-0.306
-0.03956
-0.2832
0.3828
-0.3235
-0.378
-0.0105
-0.3068
-0.4817
-0.3241
-0.1429
-0.3563
0.9235
-0.125
0.2904
0.05113
-0.4133
-0.36
-0.3119
-0.06429
2.035
0.01311
-0.3762
0.5578
0.01656
0.2055
-0.3548
0.4726
1.302
-0.2711
-0.004894
0.4975
-0.2966
-0.02546
-0.06243
0.7873
0.01392
-0.3235
0.3377
-0.3141
-0.2989
0.7666
-0.1942
0.09378
-0.2973
-0.3566
0.1806
0.387
0.003404
-0.2909
0.05208
-0.284
0.007888
-0.02097
0.3876
-0.005507
-0.2812
-0.2939
0.3878
-0.2923
0.1387
1.428
-0.01009
-0.06714
-0.3779
-0.3469
-0.131
1.452
-0.4813
-0.319
0.0004495
0.0002828
-0.5247
0.05225
0.003808
0.1855
-0.05461
-0.2926
-0.4492
-0.05955
0.1388
0.1682
-0.1019
0.03909
-0.2196
-0.2843
0.041
-0.1943
-0.33
-0.3895
-0.2937
0.2065
-0.3602
0.1325
0.07533
0.02444
0.206
-0.2785
-0.03343
-0.2952
0.3362
-0.3467
-0.2888
-0.3071
-0.3581
-0.001078
-0.2136
-0.4395
-0.3573
0.03811
-0.3229
-0.1129
0.002027
-0.3978
-0.3423
-0.3135
-0.2844
0.4981
-0.2921
-0.4352
0.2104
-0.3086
-0.2897
0.001845
-0.08314
0.02528
0.2793
-0.3583
0.2961
0.6787
-0.0336
-0.1221
0.3239
0.2973
-0.3194
0.02867
-0.2431
0.04935
-0.2583
-0.311
-0.3146
1.34
0.9703
-0.2288
0.1988
0.004692
-0.2857
-0.3999
-0.04991
-0.376
-0.3779
0.1289
0.003028
0.4117
0.003624
-0.05072
0.04381
0.03984
0.02504
-0.4962
-0.3415
0.03698
0.09075
-0.02682
-0.3702
0.2536
0.03639
0.2087
0.02931
0.7572
-0.02556
-0.275
-0.2843
-0.2417
0.0299
0.3644
0.5738
0.154
-0.03901
1.037
0.1711
0.0392
-0.2874
0.02029
0.1158
-0.3279
0.2948
0.003846
0.04733
0.004021
-0.3725
0.01662
-0.2118
-0.023
0.2249
-0.05142
-0.06297
0.2781
-0.004881
-0.3883
0.2589
-0.1533
-0.1353
0.1343
-0.2879
0.0219
0.342
0.0004158
0.0002725
0.4539
0.6962
0.1826
-0.2954
-0.3461
-0.1251
0.2044
-0.3054
-0.3779
1.453
0.08928
-0.3762
-0.3931
0.04521
-0.2969
0.03877
-0.2509
-0.2904
-0.3733
0.1387
-0.37
-0.3585
-0.09469
-0.01298
-0.1339
-0.2794
-0.03811
-0.2032
-0.04905
-0.02259
0.01713
0.05342
-0.00846
-0.4158
0.002358
1.219
-0.06509
0.02596
-0.04254
-0.07196
-0.1733
-0.0002175
-0.367
-0.3113
0.000537
-0.2697
0.09204
0.06218
0.3615
0.05656
-0.09861
0.09393
-0.1805
-0.326
-0.3143
-0.01962
0.6061
-0.2912
0.3133
-0.0101
-0.04611
0.6059
-0.07481
0.1262
0.03077
-0.05105
0.02334
-0.3685
-0.2849
0.09892
0.05712
-0.3024
-0.002036
0.02584
0.007878
0.7313
0.106
0.2911
-0.2951
0.533
-0.3969
-0.3326
0.2015
-0.3619
0.5945
-0.2972
-0.2973
-0.335
0.002272
-0.3094
0.2036
0.1684
0.3157
-0.3134
0.1955
0.007217
-0.3302
-0.2938
-0.247
-0.2463
0.01673
0.1173
-0.3866
0.1179
0.03095
0.02806
-0.02932
-0.1227
0.7136
0.1137
-0.04058
0.05057
1.142
-0.008003
-0.2792
-0.341
0.0532
0.05443
-0.4289
0.2672
-0.2893
0.04751
-0.3083
-0.2907
-0.3285
-0.008084
-0.2804
-0.334
1.266
-0.286
0.003778
0.0192
-0.3816
-0.3582
0.002158
-0.3124
-0.2604
0.02243
-0.3747
0.1096
0.002671
1.416
-0.2844
-0.2893
-0.2929
0.8995
1.18
-0.4131
0.295
0.7347
-0.2453
-0.3409
-0.001804
-0.0261
0.08654
0.05391
0.005351
-0.2938
-0.08869
-0.4503
-0.3228
1.428
-0.008859
0.4577
0.04226
0.8998
0.01905
-0.2841
-0.3188
-0.4966
-0.5672
-0.3087
0.02303
-0.3704
-0.2781
0.04805
-0.2953
0.5332
-0.3103
0.1127
-0.3424
0.05405
-0.3159
-0.4086
0.003841
-0.2831
-0.3033
0.6086
-0.0008827
-0.2967
-0.02325
0.02081
-0.06301
-0.3239
0.0006968
-0.02935
0.1156
-0.2883
0.0009074
-0.3837
0.0716
-0.3006
0.7742
-0.1332
-0.2915
0.1034
-0.2923
0.5735
0.001682
0.362
-0.342
-0.02292
-0.05019
-0.3585
-0.3055
-0.3241
-0.2254
0.5772
-0.3007
-0.3303
-0.02244
-0.1697
-0.3375
0.1114
0.01933
-0.2825
0.02528
0.02636
0.3048
-0.3763
0.5835
0.04788
0.0009905
0.5506
0.6798
-0.3025
0.7319
-0.2969
-0.3174
0.2683
0.01304
0.002105
-0.2889
-0.3196
0.2747
0.004964
-0.3087
0.004076
-0.3516
0.000214
0.06089
0.04833
-0.3002
-0.273
-0.3161
0.0005171
-0.3044
-0.3226
0.825
0.002691
0.1283
-0.2956
0.02777
0.05706
0.04575
-0.04292
-0.4219
0.03979
-0.3737
0.07774
-0.3109
-0.4254
-0.4047
0.03919
0.06151
1.449
-0.009215
0.268
-0.1033
-0.2882
-0.255
-0.01748
0.004059
0.2372
0.04176
1.441
-0.03296
-0.4067
0.007739
0.03808
-0.01168
0.5951
-0.3655
0.003766
0.001017
-0.2884
-0.2482
-0.3782
-0.01936
-0.2794
0.7083
-0.3415
0.7317
-0.3669
-0.3314
-0.3187
0.003838
-0.3082
-0.397
0.1575
-0.3149
0.01082
0.001242
-0.3965
0.9262
-0.3658
-0.2986
-0.02768
2.318e-05
-0.3165
-0.3053
0.1794
-0.3232
0.1559
-0.02294
-0.3263
0.2965
-0.3958
0.4585
-0.3076
-0.2944
-0.2905
-0.2889
-0.3429
-0.4214
0.06299
-0.4284
0.1062
-0.2866
-0.2965
-0.3738
0.001444
0.1294
0.4669
0.8565
0.0008711
0.001203
-0.4678
-0.01412
0.1878
-0.3774
0.9458
-0.2804
-0.1863
-0.03483
0.6742
0.3356
-0.001267
0.006106
-0.08015
0.2054
-0.416
0.8666
0.6247
-0.2717
0.6207
-0.2045
-0.2279
0.0001068
-0.06904
0.1072
0.2751
-0.4934
0.1254
-0.2436
-0.3103
0.0006144
0.02207
-0.01704
-0.2895
-0.2281
-0.3445
-0.3717
0.558
-0.3339
0.8931
-0.2787
0.2968
0.02119
0.02153
-0.3053
0.214
-0.1312
0.4756
0.1348
0.2609
0.6751
0.01605
0.001126
-0.2913
-0.2646
-0.2997
-1.318e-05
-0.2964
-0.3355
0.06033
0.0006313
-0.4318
-0.2868
-0.411
-0.3039
0.0007751
-0.2997
-0.3012
-0.3531
-0.3746
0.05372
-0.3006
1.696
-0.0157
0.188
0.2521
-0.4209
-0.3215
0.3583
0.1278
0.06021
-0.3141
0.000696
-0.2978
-0.2953
-0.05315
0.1078
-0.2013
-0.2922
-0.3054
0.0007009
-0.3088
-0.3264
-0.3453
-0.4276
-0.3301
-0.2878
-0.3862
-0.2864
0.2827
0.02261
-0.3074
-0.334
-0.4256
-0.2896
-0.2983
-0.2958
-0.3112
-0.02726
0.002292
-0.2684
0.05932
5.318e-05
-0.3174
0.04622
0.1178
0.5123
0.002788
-0.3422
-0.2901
-0.0007416
0.002816
-0.3106
-0.2901
-0.2811
-0.2936
-0.302
-0.3009
0.07554
0.689
0.001216
-0.3174
-0.2927
-0.06044
-0.03882
0.7686
0.002764
-0.02405
-0.024
-0.2997
0.001092
-0.1921
1.008
0.06099
0.1102
0.002841
-0.2859
0.04904
0.02576
0.04622
0.00159
0.8482
1.758
-0.3822
-0.2391
-0.197
0.02278
-0.3575
0.4758
-0.03039
-0.2924
0.07043
1.073
-0.2021
0.2097
0.6192
0.06731
0.02953
-0.3216
0.4486
-0.2089
-0.2955
0.1105
0.002845
-0.16
-0.2888
0.2705
-0.3392
-0.2553
1.628
-0.2489
-0.3095
-0.3678
-0.2896
-0.2354
-0.05419
0.03404
0.1021
0.0003973
0.0004513
-0.416
-0.02676
-0.347
-0.176
1.497
0.01804
-0.09215
0.03811
0.269
-0.01753
-0.2573
-0.2998
-0.09138
-0.3781
-0.2965
-0.2373
0.2298
1.604
-0.3702
-0.2943
0.03735
-0.2872
0.2751
-0.01636
-0.3666
-0.3318
-0.2788
0.001813
-0.02039
-0.2492
-0.3373
0.5033
-0.2957
-0.3154
0.7043
0.2542
-0.2961
-0.3081
0.0005074
0.9547
-0.04755
0.0004708
0.6371
-0.3078
-0.2813
-0.2897
-0.0625
0.14
-0.2995
-0.04352
0.01113
0.009883
0.03456
0.206
0.7822
-0.3041
-0.3775
1.592
0.6331
-0.119
-0.1489
0.6359
-0.141
-0.3299
0.002635
-0.2926
-0.3191
-0.3816
-0.3422
-0.3231
0.03721
0.06859
-0.2889
0.3219
-0.2888
0.0711
-0.2921
-0.289
-0.3563
-0.2887
-0.3031
0.07315
-0.3782
-0.05142
-0.3335
0.0576
-0.2945
1.462
-0.2959
-0.3422
-0.3051
-0.3179
0.0009914
-0.001574
-0.2943
-0.2892
0.1641
0.002896
0.7837
-0.3324
-0.02072
-0.2954
-0.4015
-0.3217
0.304
0.02615
0.2037
-0.04244
0.5641
-0.04554
-0.2887
0.6797
-0.3123
-0.4241
-0.00994
-0.02684
-0.282
0.7687
0.03688
-0.295
0.6758
-0.02217
-0.2942
-0.3012
-0.2912
-0.4221
1.622
0.03168
-0.3692
0.1997
0.002079
0.002411
-0.2841
-0.3593
-0.31
-0.2897
0.1039
0.5459
-0.3062
0.1885
0.09685
0.01753
-0.309
-0.2314
-0.3067
0.244
-0.3012
-0.3018
0.003532
0.05064
-0.2883
0.02189
-0.4122
0.00173
0.03324
0.08411
0.2079
-0.3068
0.01968
0.04522
0.01648
0.07257
0.183
-0.2536
0.04162
0.2035
0.1021
-0.3243
0.03328
0.004606
-0.007684
-0.3767
0.1882
-0.2944
-0.3103
-0.06822
-0.3095
-0.3261
-0.4208
0.3621
-0.3058
0.01397
0.07298
0.4633
-0.2801
-0.01174
-0.4054
-0.2929
0.1643
0.0004456
1.114
-0.3276
-0.003491
0.3613
-0.3557
0.07852
-0.3924
-0.3165
-0.002089
-0.2894
0.3527
-0.2927
0.003295
-0.04017
-0.4119
0.02535
-0.394
-0.3134
0.001772
0.2628
-0.2954
0.02332
0.4382
-0.3536
-0.1854
0.1507
0.0002292
-0.375
-0.3338
-0.009704
0.2998
-0.01875
-0.3351
-0.356
0.1692
-0.07987
-0.3011
-0.3019
0.2385
0.1309
-0.2991
-0.06166
0.0009117
0.009979
0.01699
-0.3238
0.8643
-0.4156
0.3602
-0.3008
-0.441
0.02801
-0.2958
-0.3203
-0.3372
-0.01344
-0.1242
-0.3151
-0.2423
-0.03809
0.08681
0.2617
-0.08232
-0.2859
-0.05668
0.2342
0.1135
1.044
-0.1877
-0.2917
0.1553
-0.3066
-0.2336
0.05325
0.008715
-0.2684
-0.3022
0.006927
0.2398
0.07221
0.1545
0.0005124
0.00485
-0.3753
-0.08502
-0.2929
-0.03041
-0.4019
-0.2922
0.03581
-0.2572
0.07977
-0.3155
-0.4389
0.3915
-0.2909
-0.3094
-0.2484
-0.296
-0.2927
0.05837
-0.3185
0.1002
-0.02015
0.6865
-0.4304
-0.0113
-0.2075
-0.2141
-0.3268
0.3011
-0.04368
-0.2899
-0.3041
-0.2838
0.1286
-0.2872
0.1904
-0.1798
0.1449
-0.3013
0.04097
-0.3132
-0.3351
-0.295
-0.305
0.01639
-0.293
-0.3505
-0.198
-0.295
0.2742
-0.02533
0.01208
0.1913
-0.2977
-0.3683
0.0975
-0.268
-0.2839
-0.2921
-0.0123
-0.2896
-0.2994
-0.2555
-0.3997
-0.02504
-0.3372
0.01502
-0.3332
0.2162
-0.2931
0.2065
0.3227
0.002906
0.0007677
-0.2908
-0.2601
-0.2845
-0.1793
4.729e-05
-9.134e-05
0.4823
-0.3344
-0.2946
-0.306
0.05472
0.0148
0.3501
0.05658
-0.2882
-0.3128
0.000672
-0.07094
-0.3175
0.3148
0.08575
-0.348
-0.2931
-0.3125
-0.03923
-0.3817
0.8581
-0.2696
-0.3552
-0.2835
-0.3096
-0.01097
0.1339
0.6329
-0.2211
-0.2999
0.009305
-0.01591
0.3543
0.002293
1.283
0.1632
-0.3001
0.1433
0.0004043
0.4248
-0.07124
0.031
-0.04673
-0.3223
-0.00136
1.419
0.2182
0.03041
-0.2951
0.3402
-0.3086
-0.427
0.385
0.3004
-0.3998
1.177
-0.2621
-0.3235
0.006383
-0.2935
-0.2689
-0.0397
0.5525
-0.2765
-0.3167
-0.008616
0.1165
-0.3058
0.0005471
-0.2791
0.002775
0.3516
-0.2829
-0.1173
-0.2978
-0.2877
-0.2437
-0.3699
-0.02495
0.4274
-0.268
-0.3412
-0.3203
-0.3902
-0.3686
-0.2879
0.01759
-0.2876
0.03339
-0.3071
0.02892
-0.282
0.001586
-0.2882
-0.2911
0.00187
0.03018
-0.2941
-0.2055
-0.3345
0.2152
0.0004557
0.6918
-0.3514
0.1796
-0.3102
-0.3211
-0.435
0.0867
0.02053
0.04793
0.1692
-0.2369
-0.2239
-0.07069
-0.2879
-0.3004
-0.319
-0.3964
-0.2638
-0.278
0.01839
-0.2706
-0.3458
0.569
0.03383
0.07471
0.5584
0.07675
-0.2903
0.001194
0.001271
-0.1822
-0.2633
-0.0381
-0.2994
0.05841
0.246
0.9168
-0.02857
0.07899
0.4568
-0.2232
-0.0669
-0.3388
-0.0152
-0.3171
-0.3464
0.2013
0.06715
-0.3036
-0.01181
-0.2931
-0.2944
0.0979
-0.3238
0.02303
0.3042
-0.004996
0.04125
-0.2952
-0.3174
-0.1812
0.005016
-0.284
0.4803
0.0206
1.268
0.1602
-0.3325
-0.3213
-0.2046
0.001146
1.029
-0.3618
-0.2556
-0.08765
-0.2949
-0.2887
-0.0002252
-0.3003
-0.2921
-0.3152
0.03704
-0.3571
-0.2921
0.1029
-0.2821
-0.155
0.9631
0.1563
1.004
-0.3477
-0.01949
0.001321
0.001328
0.01416
-0.1555
-0.09973
0.001773
-0.003836
-0.05033
-0.2753
-0.007465
-0.296
-0.01031
0.01183
0.0006328
-0.2848
0.002692
0.4738
0.008774
-0.01567
0.323
0.8521
-0.2434
-0.04541
0.001441
1.617
-0.2254
1.745
-0.3291
-0.3447
0.005681
-0.4025
-0.3085
-0.32
-0.3157
-0.2996
-0.3048
0.7857
1.892
0.06599
0.002136
-0.2928
0.0002222
0.0005602
0.2628
-0.2983
0.002117
-0.06459
0.02483
-0.4109
-0.2331
-0.3329
1.546
0.005962
-0.2914
-0.372
-0.1748
-0.05865
0.07924
0.3447
0.02036
0.001906
-0.3118
1.615
0.3781
0.09001
-0.03491
-0.2988
0.1614
0.3033
0.0005874
0.4457
-0.3138
-0.02797
-0.04509
0.6279
0.07698
-0.358
0.02688
0.3698
0.5457
-0.2587
1.435
0.2729
-0.3519
0.0005755
-0.2947
-0.008331
-0.3035
0.07195
0.0837
-0.298
0.04196
0.5582
1.594
-0.2907
-0.1549
-0.4083
0.001447
-0.2225
-0.001052
-0.2984
0.2195
-0.2743
0.03297
-0.2355
0.006652
0.03688
-0.3088
-0.001027
-0.2769
-0.0344
0.6991
-0.344
-0.01206
0.008087
0.01554
0.3619
0.8533
0.1787
-0.2725
0.1264
-0.05379
-0.2477
-0.2887
1.131
0.7055
-0.2887
0.0457
-0.4082
-0.2953
1.387
-0.138
-0.1893
0.6357
0.1283
0.07808
-0.3377
0.6801
0.03989
0.1011
-3.049e-05
-0.2984
-0.2596
-0.213
-0.2997
0.1623
-0.298
0.01728
0.08961
0.002136
0.02443
0.1663
0.05695
0.03957
0.08446
-0.4183
0.02495
-0.3087
0.125
-0.3293
0.8519
0.2
0.1598
0.02797
0.06873
0.8077
0.6876
-0.295
0.1073
-0.009527
0.06174
0.002018
0.07912
-0.2935
0.0008706
-0.257
0.3122
0.2954
0.8573
0.1228
-0.2849
0.003192
-0.263
-0.4104
0.002339
0.4369
-0.2305
-0.352
0.002422
-0.299
-0.05255
-0.2809
-0.3028
-0.2913
0.008015
-0.3519
0.0005859
0.001856
-0.2925
-0.04884
-0.4229
0.8919
-0.2837
-0.05348
-0.4164
0.09734
-0.3028
-0.2314
1.371
-0.2676
-0.2937
-0.3931
-0.01239
-0.2835
0.01292
-0.2869
-0.3463
-0.2904
-0.2965
0.7426
-0.3096
-0.3188
0.0646
0.05145
0.8103
0.01031
-0.3268
-0.02953
-0.06802
0.2095
-0.2676
-0.2747
0.001679
0.3921
0.08462
-0.3719
-0.3272
-0.32
0.164
0.2398
0.05893
-0.3791
-0.2988
-0.3647
0.1149
-0.03079
0.000731
-0.2629
1.596
0.04954
0.0005292
-0.2925
-0.2915
-0.009564
-0.4305
-0.2694
0.001481
0.004297
0.8869
0.1419
0.1359
-0.2845
-0.01433
0.006622
0.0324
-0.01807
-0.1181
0.8575
-0.2941
0.0635
0.002211
1.79
0.5098
-0.281
-0.07478
-0.231
0.006727
-0.2853
-0.00577
0.001664
0.2291
-0.0379
-0.05617
-0.2924
-0.3296
0.3288
0.553
0.05166
0.09717
-0.2813
0.1591
0.01589
0.03464
-0.001079
0.03098
-0.2892
0.2177
0.361
-0.3779
1.899
-0.3256
-0.3005
0.07777
0.1536
-0.04965
-0.2939
-0.2933
-0.2632
0.06538
-0.08107
-0.2493
-0.07068
-0.003261
0.0002618
-0.1142
-0.1878
-0.2935
0.02339
0.02913
-0.3119
0.107
-0.2811
0.1607
-0.05142
1.397
0.02752
-0.004327
-0.2789
-0.2898
0.04859
-0.256
-0.05199
-0.292
-0.3488
0.11
-0.4043
0.02098
-0.2811
-0.2815
0.07782
-0.2074
0.1064
-0.3825
0.2449
-0.001489
-0.3696
-0.3457
-0.005195
-0.3003
0.131
-0.2834
-0.3045
-0.3084
-0.4047
-0.2892
1.958
-0.3045
-0.00909
-0.2895
-0.2397
0.1095
0.1734
0.003536
-0.3358
-0.1887
-0.3514
0.0007164
-0.2917
-0.2703
-0.2872
-0.2764
-0.3764
-0.2062
-0.3369
0.06525
0.03987
-0.296
0.001737
-0.2884
0.1503
0.08742
-0.3002
0.0115
0.08396
-0.04298
-0.2947
0.01592
-0.02545
-0.2832
0.008147
-0.2932
-0.02341
-0.3661
-0.2875
0.3174
-0.02114
-0.2755
-0.2293
-0.3695
-0.01302
0.01813
-0.07951
-0.2917
0.1468
-0.03175
-0.2977
0.1595
0.04997
0.001947
0.5403
-0.05361
-0.232
0.03593
-0.328
-0.3031
-0.03282
-0.3222
0.202
-2.281e-05
7.564e-05
0.01479
-0.4104
-0.2891
1.297
0.2226
-0.302
0.05216
0.02642
0.0007423
0.2679
0.105
-0.2889
-0.0168
-0.1626
0.3963
0.0005543
0.05741
0.4015
0.2015
0.4257
-0.362
1.134
-0.2915
-0.3538
-0.03092
-0.4123
-0.3693
0.1334
-0.2023
-0.2919
0.0004269
0.0005764
-0.3082
-0.2907
-0.04821
0.7265
0.7551
-0.3867
0.004621
0.01981
0.7536
0.01242
-0.347
0.3342
0.1954
0.155
0.314
0.148
1.094
-0.06325
0.001425
0.05877
0.1233
0.08821
-0.2846
0.5659
-0.356
-0.42
-0.3941
-0.3007
0.03633
-0.2926
0.5952
0.2312
-0.3583
-0.2944
0.8645
-0.2882
-0.2893
-0.3007
1.295
0.6987
0.2074
0.1133
0.08542
-0.3045
-0.01636
-0.2896
0.02517
0.06697
-0.2812
0.105
-0.329
0.3249
-0.3317
0.6494
-0.04068
-0.384
0.07241
-0.03686
-0.3069
0.003503
-0.2841
-0.05825
-0.3281
-0.3274
-0.3092
-0.03432
0.2052
0.03882
-0.3841
1.85
0.1117
-0.2985
-0.2771
-0.1935
-0.3182
0.0006583
-0.3938
0.101
-0.2432
0.8399
0.006198
0.286
-0.2783
0.04037
0.6251
0.03753
-0.3993
-0.2897
-0.1056
0.01002
-0.2935
-0.1017
-0.2911
-0.1395
-0.0003038
-0.2735
-0.3419
0.05158
0.2146
0.8137
0.7466
0.8596
-0.3777
-0.3533
-0.001881
0.562
0.04763
-0.2643
1.317
-0.3015
-0.2638
-0.1528
-0.3053
0.0005666
-0.2728
0.04738
0.0263
-0.07669
-0.01291
-0.2916
0.3602
-0.2739
-0.374
0.03718
-0.3221
-0.3131
1.25
-0.3287
-0.2791
-0.2839
-0.3515
-0.3227
-0.01945
-0.2923
-0.3169
-0.2921
-0.2223
0.0002315
-0.3326
-0.004967
0.09552
-0.3269
-0.2964
0.3821
-0.311
-0.3231
-0.354
0.06402
-0.2654
0.02862
0.2701
-0.3262
-0.297
-0.2325
-0.2714
-0.06105
-0.3047
-0.02142
-0.4213
-0.3314
-0.2872
0.03195
-0.3586
1.664
0.1118
0.6211
0.06168
-0.3004
-0.01862
-0.2943
-0.3237
-0.297
0.4488
-0.291
-0.3685
0.05711
0.6993
0.003587
-0.2808
-0.4099
-0.2891
0.1047
0.0585
-0.3933
-0.1288
-0.3182
-0.4131
0.1503
0.005244
-0.3458
-0.3019
-0.08291
0.3768
0.4158
-0.008706
-0.3855
-0.3242
0.3613
-0.05996
0.4407
-0.4121
-0.3192
-0.3089
0.02736
5.758e-05
9.868e-05
-0.01826
-0.3936
0.4099
-0.3041
-0.02334
0.01619
-0.3559
0.2251
-0.4185
0.03091
-0.02017
-0.3199
-0.3469
-0.02403
-0.2839
0.3266
-0.001711
-0.02063
-0.2937
0.1969
0.187
-0.04438
0.002776
0.1359
-0.3146
-0.2538
-0.2851
0.001077
0.0008195
0.0008526
0.0004785
-0.02361
-0.2843
0.2075
0.6786
0.07864
-0.2882
-0.3639
-0.3168
0.0003364
-0.3708
-0.2902
-0.3016
-0.3244
-0.3003
-0.2922
0.04411
0.06555
-0.4054
-0.02997
-0.1249
0.04669
1.138
0.3039
0.01334
0.9979
0.8495
0.02031
-0.2922
-0.3315
0.2419
0.00274
0.2066
0.624
0.01372
-0.2918
-0.3388
0.001577
-0.3836
-0.3025
-0.3387
-0.2883
-0.4027
-0.05618
-0.3163
0.004235
0.763
-0.1094
-0.3001
-0.2947
0.6777
0.0151
-0.003996
-0.2359
-0.2954
-0.3309
-0.05714
-0.3407
-0.2971
0.1266
1.377
0.06558
-0.3076
-0.276
-0.2791
-0.3077
0.04212
-0.0689
0.3244
0.04267
0.6008
0.01463
0.004372
-0.2427
0.002108
1.27
-0.3132
-0.03311
-0.3017
0.191
0.03214
0.009616
-0.2888
0.1249
-0.2923
0.002856
0.2554
0.7432
-0.3155
0.02833
-0.323
-0.3289
-0.08005
0.001598
-0.2911
-0.3446
0.1399
-0.009462
-0.2754
-0.07167
0.2856
0.4398
0.03834
-0.3064
0.0228
0.1662
-0.3188
-0.03372
0.01309
0.04787
0.1536
-0.04788
0.256
0.03162
-0.2688
-0.05345
-0.1044
-0.3093
0.002401
-0.338
-0.3095
-0.2839
-0.3627
0.253
-0.2175
-0.2846
0.6329
0.02799
-0.01095
-0.04311
-0.3852
-0.2761
-0.2987
-0.3691
0.07096
-0.2959
-0.4076
-0.2888
-0.3019
0.02983
-0.2875
-0.3122
0.1422
-0.3099
0.796
-0.0263
1.616
-0.3024
-0.3298
-0.07931
-0.01497
0.06428
0.7558
0.1133
0.05186
0.7168
0.0387
0.7112
0.02435
-0.3075
-0.3832
-0.1283
-0.1756
0.3492
-0.2926
1.009
0.001118
1.432
-0.2563
0.000203
-0.2933
-0.2885
1.108
0.001945
-0.2916
-0.3096
0.2576
1.736
-0.3529
0.4544
0.06029
-0.3241
0.005973
-0.3047
0.04821
-0.2939
-0.02194
-0.2884
-0.2225
0.03436
0.1042
0.2781
0.2151
-0.02221
0.03879
0.3901
0.1322
-0.299
0.00464
-0.187
0.1147
-0.43
-0.3851
-0.3039
-2.036e-05
0.04279
0.04254
0.1406
-0.302
-0.2894
-0.2755
0.0004804
-0.05875
0.1644
0.0004465
-0.3227
0.3076
0.1455
-0.3614
-0.2883
-0.3398
-0.3071
0.001646
0.2833
-0.009187
-0.2963
-0.3653
-0.2789
-0.3004
-0.3852
-0.2895
0.3882
0.1292
-0.2926
-0.0955
0.2711
0.5267
-0.2819
-0.03115
-0.4003
0.0004147
0.1073
-0.2021
0.03973
0.1162
1.746
-0.3281
-0.1961
-0.00468
-0.2941
0.5919
-0.2732
-0.3152
0.003604
-0.2368
0.2386
-0.1325
0.4351
0.0263
0.9622
-0.3342
-0.3042
-0.3158
-0.2734
-0.4003
0.4881
-0.3484
-0.2923
-0.319
-0.2789
-0.271
-0.4222
0.001052
-0.2892
-0.08013
0.02317
-0.07648
-0.01424
0.02343
-0.3044
-0.3596
0.1436
0.2041
0.02563
0.001417
-0.265
0.04717
0.2382
-0.3541
0.655
0.1063
0.001392
0.5443
-0.007622
-0.03141
-0.32
-0.3036
0.049
-0.3522
0.03692
-0.2867
-0.1336
0.4202
0.004394
-0.3154
-0.3107
0.004511
0.1598
0.03189
-0.07383
-0.353
-0.03409
-0.2996
0.0007846
-0.3536
-0.003962
-0.2961
-0.323
-0.3034
-0.2892
0.0258
-0.2662
0.1149
0.2599
-0.4241
-0.07001
0.06071
-0.1919
0.1222
1.036
-0.296
0.004107
0.00128
-0.01619
-0.102
0.8187
-0.3012
-0.3332
0.05445
0.04904
0.7872
0.04225
0.008392
-0.1034
-0.1054
0.01414
0.002976
1.261
-0.2471
0.01897
0.0003594
-0.01485
-0.3275
0.1266
0.006731
0.2645
0.3898
-0.3195
-0.4119
0.02589
-0.1114
-0.2902
-0.2619
-0.2929
-0.3375
0.01502
-0.3037
0.2452
-0.1341
-0.002667
-0.3439
0.1438
-0.29
0.7776
0.0285
-0.3082
-0.4449
-0.3241
-0.3566
0.0719
-0.2372
-0.1254
-0.05446
-0.2972
-0.28
-0.2953
-0.3602
0.001062
0.8879
0.1343
-0.1367
-0.2932
-0.3388
0.5575
0.2511
0.005133
0.1418
-0.005339
0.0008979
0.05357
-0.3454
0.02947
-0.004507
-0.01672
-0.05374
0.0291
-0.29
-0.293
0.041
0.2961
-0.3616
0.3257
-0.4173
0.09878
0.0418
-0.2773
-0.4093
0.03564
-0.3323
-0.393
-0.3407
0.00154
-0.04024
-0.3085
-0.2858
-0.299
-0.2838
0.572
-0.2437
-0.342
-0.2723
-0.2942
0.7741
-0.2948
0.3002
0.1488
0.2722
-0.1506
0.002606
-0.3085
-0.06767
0.02927
-0.4093
-0.3117
0.6213
0.05139
-0.2997
0.1245
-0.3173
0.506
-0.01149
0.04632
-0.2547
-0.2919
0.0001735
-0.3191
0.1076
0.7155
-0.2691
-0.3172
-0.03185
0.05953
-0.2489
-0.2469
0.00929
-0.3242
-0.1894
0.6744
0.02082
-0.1687
-0.2298
-0.2221
-0.42
0.2293
-0.2749
-0.3473
0.001838
0.006354
-0.312
-0.07543
0.00189
0.5249
-0.01725
0.4463
-0.2987
-0.237
-0.3453
0.0006478
0.5249
-0.009765
0.2499
0.001099
-0.09668
-0.1868
-0.2937
-0.3429
-0.295
-0.2801
-0.2902
0.003458
-0.3573
-0.2899
1.615
-0.3465
-0.01201
-0.2917
0.009619
0.005263
-0.2908
-0.3632
-0.1448
-0.1161
-0.2929
-0.377
0.000718
0.01607
0.009032
-0.2886
-0.2795
-0.05462
0.007657
-0.2936
-0.3323
-0.05816
0.0262
0.2312
0.03091
0.3776
-0.315
-0.3305
1.192
0.001624
0.388
0.0006645
-0.3924
0.3418
-0.02593
-0.2893
-0.2956
-0.3042
-0.2886
-0.2903
0.2199
0.003206
-0.4163
0.1532
0.002048
-0.3704
-0.1673
-0.295
0.001544
0.08054
-0.1799
0.1173
0.8078
-0.3099
0.02145
0.111
0.2747
-0.2942
0.08421
0.01657
-0.00111
-0.02655
-0.3118
-0.2947
0.03489
0.1274
-0.21
0.2458
-0.2774
0.2781
0.02301
0.2046
-0.397
-0.2957
-0.2812
0.2056
-0.2051
-0.2973
-0.3682
0.4612
-0.304
-0.1155
-0.3324
0.5127
-0.04289
-0.2145
0.009044
-0.2883
-0.2065
0.3859
0.0009739
-0.357
0.2356
-0.2169
-0.04327
-0.3399
-0.4056
-0.3811
0.001893
2.026
-0.3561
0.0004322
-0.00905
0.01205
-0.3019
-0.3908
0.002878
-0.3085
0.8223
0.02284
0.3348
-0.2698
-0.0664
0.09473
0.5924
0.1018
0.01386
0.002222
-0.04701
-0.2941
0.03177
0.5692
-0.2697
0.01641
-0.0562
0.05468
-0.4183
-0.3174
-0.297
0.938
0.03715
-0.1267
0.608
0.01509
-0.3623
0.02685
-0.2932
-0.005891
-0.03726
-0.2929
-0.3244
-0.3064
0.00215
0.008153
-0.3128
-0.3418
0.05271
0.1272
0.1886
-0.2932
0.7389
0.7411
-0.2875
0.305
-0.2856
0.01452
-0.2165
0.2073
0.01961
-0.3182
0.003384
-0.2898
0.2046
-0.0472
-0.2894
-0.34
-0.0242
-0.3323
-0.1967
-0.0113
0.0007195
0.05717
0.005428
-0.04743
-0.31
-0.3034
0.1592
0.8368
-0.296
0.4145
-0.4137
-0.04946
0.1545
-0.3608
-0.09689
0.1696
0.2534
-0.01691
0.0004137
-0.3177
-0.2895
0.006168
0.02198
-0.2872
-0.04155
0.004759
-0.2043
0.1701
-0.008751
-0.309
0.1896
-0.2892
0.003826
-0.3616
-0.3859
0.0006971
-0.3975
-0.2832
-0.2946
-0.2944
-0.295
0.02663
-0.3009
0.002719
-0.05022
-0.4149
1.266
0.2063
-0.08394
-0.3062
0.004626
0.007578
0.2134
0.3386
0.1535
0.04031
-0.2863
0.08587
-0.3301
-0.2875
0.06436
0.07538
-0.03843
-0.05881
-0.2986
0.01957
0.3619
0.2975
-0.2644
0.1005
-0.3414
-0.006502
1.312
-0.2462
-0.03466
-0.3084
-0.3438
-0.199
-0.00542
-0.01443
0.1588
1.086
0.07451
-0.2688
-0.3088
-0.07943
0.03793
0.1792
0.0007734
0.7625
-0.1793
-0.0166
-0.3022
-0.3305
0.01217
0.003513
-0.02955
-0.2889
-0.2903
0.08285
0.3924
-0.3588
0.1616
0.112
0.03819
-0.04804
-0.2427
0.001341
-0.2309
0.2252
-0.0399
0.05384
-0.2773
0.03413
0.07839
-0.2843
-0.03633
-0.3954
1.274
-0.3015
1.788
-0.3824
-0.005302
-0.3141
-0.01738
-0.2912
-0.3628
0.4259
0.04216
-0.3643
0.2497
0.265
-0.4061
-0.2787
-0.2795
-0.2896
0.02343
0.1824
0.08604
-0.3542
-0.2964
-0.2881
-0.2881
-0.3082
0.5115
-0.01135
-0.2685
-0.3316
-0.4006
1.997
0.004965
-0.0008363
0.002008
-0.403
-0.3639
-0.3759
-0.3212
-0.002421
-0.4053
-0.04455
0.167
-0.3255
0.2282
-0.3607
-0.3532
-0.01944
0.08985
-0.3197
0.1011
-0.2897
-0.2951
-0.04433
0.08591
-0.2926
0.002272
0.1158
-0.3033
0.297
-0.3314
-0.2908
-0.29
-0.1238
0.05161
0.04851
-0.02434
0.01912
-0.294
0.01558
-0.2992
-0.1713
0.575
-0.2875
0.327
-0.286
0.2116
-0.3324
-0.02379
-0.1696
0.01492
1.902
-0.01098
-0.3023
0.02589
-0.4067
-0.2771
-0.2899
-0.2914
0.001203
0.005359
-0.3875
-0.2735
0.2052
0.2376
0.04866
0.001724
0.03535
-0.001318
0.1406
0.3386
-0.04061
0.001377
0.3246
-0.2921
-0.1902
-0.3082
0.2407
0.6886
0.01433
-0.01785
0.01444
-0.146
-0.419
0.3854
0.511
0.1283
-0.3066
-0.3071
-0.005916
0.3051
-0.3192
-0.1223
0.007569
-0.2983
0.0317
-0.3451
-0.3104
0.3757
-0.28
-0.05781
1.505
0.09034
-0.02874
1.281
-0.3193
0.3582
-0.005557
-0.3053
-0.3084
0.06526
-0.4269
-0.2848
0.314
0.002519
-0.3429
0.01109
-0.003432
-0.04512
0.2376
0.3887
-0.1435
0.2168
-0.1245
1.918
-0.2975
0.000423
0.0001062
0.003284
0.0005094
0.107
-0.3188
1.476
-0.2312
-4.372e-05
0.2013
0.1153
-0.1029
0.05426
-0.2385
-0.3224
-0.2898
0.05368
-0.2912
-0.3277
0.9495
-0.2942
-0.3655
-0.309
-0.003155
-0.2884
0.2315
-0.2927
-0.0203
-0.0204
-0.2299
0.7621
-0.2957
-0.3358
-0.289
0.02873
-0.2854
-0.3436
0.2864
-0.2891
-0.002269
0.09435
0.05129
-0.07769
-0.3027
0.5784
-0.3127
-0.3032
0.001726
0.07183
-0.3223
-0.3234
-0.03633
0.07261
0.005183
-0.009916
-0.3609
-0.297
-0.296
-0.4034
-0.4129
0.2147
-0.286
0.7855
-0.04423
0.01995
0.2503
0.09947
0.0001344
-0.2921
0.05256
-0.05516
-0.2916
-0.2978
0.02933
-0.2726
-0.2909
-0.05082
0.08744
-0.03481
-0.3207
-0.2893
0.1823
-0.05222
-0.3717
-0.1798
-0.001195
-0.291
-0.4007
-0.07747
-0.2867
-0.2973
-0.3015
0.9705
0.001192
-0.2874
0.3046
-0.2942
0.1659
-0.3138
0.1132
0.05763
0.002302
-0.03593
1.961
-0.05408
0.02723
0.07378
-0.2891
0.0006499
0.08956
0.05261
-0.3608
0.02845
0.02946
-0.2705
-0.02854
0.001758
0.007076
-0.2819
1.683
-0.003363
-0.2339
0.007576
-0.03774
-0.1887
0.02505
-0.3043
0.2256
0.06287
-0.0277
-0.02123
-0.1462
0.1292
-0.2919
-0.3706
-0.2727
-0.347
-0.08378
0.1243
-0.2894
-0.3291
-0.337
-0.3473
-0.2901
0.005855
-0.2411
-0.3271
0.2601
1.143
0.03955
0.01227
-0.3173
0.08503
0.06566
0.3707
-0.1454
-0.264
-0.4115
0.06595
0.2013
0.001259
-0.2913
-0.3197
-0.4416
-0.3034
-0.2909
-0.1909
0.0006045
0.3309
-0.2649
0.1035
0.01642
0.01517
-0.3021
-0.3926
-0.3738
1.357
0.5765
0.509
0.7673
-0.05768
0.0007228
-0.2921
-0.3508
-0.3022
0.08593
-0.1735
-0.007753
-0.2959
-0.3246
0.242
-0.3275
0.02912
-0.102
-0.2218
-0.1512
0.5334
0.03789
0.4571
-0.04849
-0.2889
-0.4175
-0.3636
0.1515
-0.2927
-0.2858
-0.02404
0.1376
0.05815
0.1014
0.01467
-0.2858
-0.3037
-0.2539
0.4076
-0.1372
0.002112
0.006008
-0.3075
0.0006406
0.02338
0.07882
0.0001307
0.0002692
0.3904
0.00186
-0.3106
-0.4312
-0.04562
-0.2861
0.127
0.007254
0.02754
-0.3482
0.02279
0.7536
-0.006089
-0.3345
0.00452
-0.2832
-0.228
-0.04645
-0.2061
0.02846
-0.02446
-0.08698
0.00774
0.00887
-0.2919
0.1139
0.1384
0.0618
-0.4222
0.001154
-0.01845
0.009416
-0.292
-0.1607
-0.2942
-0.2772
0.1827
-0.178
-0.2956
-0.2915
0.1403
-0.2868
0.004494
-0.356
0.01645
0.1525
-0.3344
-0.2668
0.02265
-0.2908
-0.2902
-0.3574
-0.2885
0.1595
-0.298
0.07081
0.142
-0.3047
0.0286
0.6835
0.2547
0.4306
0.02262
-0.1674
0.04535
-0.1368
0.1775
-0.3027
-0.2763
-0.2897
-0.2878
0.002316
0.4744
0.0021
-0.2954
1.48
-0.2802
0.3168
0.002506
-0.1131
0.02439
0.01184
-0.3006
-0.2219
0.2933
0.05863
1.46
0.004498
-0.2902
-0.385
-0.3011
-0.2946
0.9951
-0.3749
0.277
-0.003772
-0.006112
-0.3034
1.126
0.04441
0.01861
-0.3155
-0.2791
1.15
-0.1734
1.204
0.03321
-0.03266
0.03557
0.04672
-0.007025
-0.3081
0.1994
-0.3046
0.0005363
-0.313
0.2383
-0.4118
-0.04596
-0.1489
-0.04905
-0.3663
0.9028
0.1065
0.04908
-0.2892
0.03206
-0.03823
0.003207
-0.2923
0.4831
-0.02595
-0.003621
-0.3347
-0.29
0.03114
-0.3136
-0.009596
0.2034
-0.2
0.738
-0.3126
-0.2163
-0.3051
-0.3218
-0.3055
-0.4191
-0.2977
-0.3463
-0.298
-0.06302
0.004552
-0.4188
0.003068
0.3353
0.4199
0.07933
-0.2936
0.4906
-0.3073
-0.2883
0.0001815
0.05005
-0.3227
-0.2069
-0.3007
-0.01447
-0.3017
-0.399
0.06524
0.00119
-0.2561
0.05497
-0.3181
-0.2554
-0.2995
0.7664
1.088
-0.3052
-0.4055
-0.3852
-0.29
-0.2883
0.1209
-0.3121
0.6426
0.05208
-0.2895
-0.2929
-0.3063
-0.3785
-0.305
0.02895
0.7207
0.3893
-0.1837
0.6257
0.6973
-0.293
-0.3173
0.00166
0.001321
-0.03418
-0.294
0.04879
0.01665
0.4724
-0.2939
0.3774
0.2036
0.007494
-0.01104
-0.03341
-0.2949
-0.3329
-0.3579
-0.3702
-0.1113
-0.2895
-0.2209
0.1019
-0.3171
1.267
-0.1864
-0.005469
0.04282
-0.2916
-0.007251
0.002836
-0.3047
-0.3076
-0.3078
-0.3216
-0.2927
0.04697
-0.2917
-0.3831
-0.2419
0.3229
0.1877
-0.2916
0.0009764
0.1257
0.1171
0.1502
-0.2907
-0.3667
0.2258
-0.2362
-0.2812
0.03095
-0.4149
-0.0378
-0.277
-0.3038
0.2356
-0.3262
-0.3785
1.767
0.2864
0.167
-0.02217
0.006739
0.03102
-0.2879
0.01294
-0.2792
0.01617
0.0444
0.005697
-0.3292
0.04094
-0.3306
-0.305
0.449
-0.3123
-0.3087
0.1578
0.06523
-0.2903
0.004321
-0.3739
-0.1915
0.04631
-0.3679
0.06042
-0.4083
-0.06048
0.007529
-0.05219
-0.2813
0.5358
0.06979
1.254
-0.1559
0.7389
-0.2699
-0.2951
0.01928
-0.3113
0.005821
0.04285
0.2242
-0.09933
0.1337
0.07916
0.305
-0.3378
0.03334
0.0007092
-0.136
-0.2881
-0.2974
0.1989
-0.4603
-0.266
-0.03459
-0.3502
-0.06683
-0.09438
0.0128
-0.2915
0.04095
-0.2842
-0.2812
-0.3026
0.2338
-0.412
-0.332
0.5134
0.005808
-0.2818
-0.2887
-0.0828
-0.292
0.09698
0.1818
0.01148
-0.2894
-0.3283
-0.2344
0.7944
0.03972
-0.3887
-0.3605
-0.2708
-0.2922
-0.3261
0.657
-0.3058
0.6108
-0.005668
-0.01772
0.06524
-0.1109
0.3312
0.7535
0.02318
-0.04936
-0.2989
-0.4086
-0.1899
-0.2897
1.354
0.001377
-0.2947
0.732
-0.001261
-0.2243
0.1978
-0.3106
0.03953
-0.3926
-0.2648
-0.3816
-0.2661
0.0005222
-0.04436
-0.3125
0.3104
0.05024
0.01212
-0.2941
-0.2907
0.03549
-0.291
-0.2627
-0.3083
-0.3012
0.1467
0.3067
0.001802
-0.2896
-0.2943
1.758
0.04986
1.117
0.04839
-0.3358
-0.2885
-0.2702
0.077
-0.3217
-0.3692
0.2003
-0.1833
-0.06773
-0.3623
0.1836
-0.3094
0.1866
-0.06248
5.069e-05
0.07952
-0.3197
0.2148
0.1166
0.02034
-0.01509
0.03244
-0.3245
0.5114
0.1912
0.7009
-0.2671
0.05793
-0.02546
-0.3064
-0.3201
0.06569
-0.2923
-0.06529
-0.002618
0.1057
-0.3331
0.476
1.642
-0.2617