/*--------------------------------*- C++ -*----------------------------------*\
  =========                 |
  \\      /  F ield         | OpenFOAM: The Open Source CFD Toolbox
   \\    /   O peration     | Website:  https://openfoam.org
    \\  /    A nd           | Version:  8
     \\/     M anipulation  |
\*---------------------------------------------------------------------------*/
FoamFile
{
    version     2.0;
    format      ascii;
    class       surfaceScalarField;
    location    "5";
    object      phi;
}
// * * * * * * * * * * * * * * * * * * * * * * * * * * * * * * * * * * * * * //

dimensions      [0 3 -1 0 0 0 0];

internalField   nonuniform List<scalar> 
189008
(
4.225e-06
-4.225e-06
1.186e-06
-1.186e-06
-1.077e-07
1.076e-07
-2.285e-07
2.283e-07
-6.111e-05
6.11e-05
-2.211e-07
2.209e-07
0.0001038
-0.0001038
-7.634e-05
7.634e-05
-5.593e-05
5.593e-05
-0.0001395
0.0001395
6.658e-05
-6.66e-05
-6.546e-05
6.546e-05
-1.186e-06
1.186e-06
2.216e-07
-2.217e-07
0.0002689
-0.0002848
1.599e-05
8.366e-05
-0.0001013
1.761e-05
-2.824e-06
2.824e-06
0.02438
-0.01019
-0.01419
0.003735
-0.002471
-0.001264
-8.052e-05
9.281e-05
-1.23e-05
-0.001767
0.001524
0.0002429
-3.685e-05
1.679e-05
2.005e-05
-0.002349
0.00965
-0.007301
1.59e-05
0.0006281
-0.000644
-1.91e-05
-1.775e-05
-0.0009691
0.0004619
0.0005072
0.0005373
-0.0006025
6.522e-05
0.0006028
-6.546e-05
0.0006731
-0.0004623
-0.0002109
0.01504
-0.0263
0.01125
-6.029e-05
-0.0003144
0.0003747
-0.0003495
-0.0006197
0.0004708
-0.0002666
-0.000204
0.0006788
-0.0003646
-0.0003142
0.0122
0.009816
-0.02201
0.0002003
0.0002706
-4.943e-05
-0.0004017
0.0004511
-0.003354
0.004019
-0.0006657
-4.732e-05
0.0006216
-0.0005743
-0.0001804
0.0002017
-2.128e-05
0.002068
0.001667
0.001052
-0.002821
0.001769
-0.0001703
-0.003302
0.003472
3.688e-06
-3.688e-06
0.0004751
0.0239
0.0004177
0.0002611
0.0003818
0.0002913
0.0007583
-0.0007606
2.253e-06
-0.0009599
0.001174
-0.0002138
-2.8e-05
0.0005141
-0.0004861
2.539e-05
5.827e-05
-0.01007
-0.031
0.04107
0.0005014
0.0002034
-0.0007048
-0.01067
0.008672
0.001994
1.092
-0.1317
-0.9602
0.001532
-0.001178
-0.0003533
-0.1438
1.236
0.009917
-0.00632
-0.003597
-0.3088
0.01947
0.2893
-0.005414
-0.005252
-0.00229
-0.0005581
0.002848
0.001259
-0.002128
0.0008685
-0.0001401
0.001329
-0.001189
-0.8106
0.9572
-0.1466
0.0003245
-0.0008019
0.0004774
-0.0001937
-0.00345
0.003643
-0.02564
0.01928
0.006365
0.001677
-0.001377
-0.0002993
0.0004681
0.001209
-1.278
0.479
0.7993
-8.206e-05
-0.0004256
0.0005077
-0.0001862
-0.0004163
0.0005971
0.002218
-0.002815
-0.1149
-0.1939
-0.2793
0.5202
-0.2409
0.0001998
0.000403
-0.04829
0.08891
-0.04063
0.0008826
-0.0008186
-6.398e-05
0.0007351
0.0007965
0.1611
-0.6347
0.4736
-0.0006622
0.0004544
0.0002079
-2.974e-05
-5.078e-05
-0.0003341
-0.0004765
0.0008106
2.315e-05
0.0001309
-0.000154
-0.0005552
0.0008361
-0.0002809
0.0004831
-0.0007466
0.0002635
-0.0006168
0.001205
-0.000588
-0.0006221
0.0002364
0.0003857
-0.00322
0.003026
-0.0003823
0.0006033
-0.000221
0.1803
-0.01431
-0.166
-0.005665
-0.002389
0.008054
-0.0003182
0.0007744
-0.0004562
-0.000985
-0.0007821
-0.0009766
0.001003
-2.601e-05
0.02059
0.01396
-0.03455
0.002737
-0.001685
0.0004994
-0.000504
4.667e-06
0.000715
0.0001459
-0.0008609
-0.01776
-0.007877
0.687
-0.5258
-1.647e-05
-0.0009435
-8.803e-05
-0.0001976
0.0002857
0.003497
-0.004209
0.0007117
-0.0001401
0.0006232
0.000951
-0.0002361
-0.0009803
0.001417
-0.0004363
-1.001
-0.2774
-0.001454
0.0007041
0.0007503
-1.17
0.8876
0.282
0.000278
-9.128e-06
-0.0003951
-0.000227
0.001402
-0.0002203
-0.001182
-0.0001305
-0.0002978
0.0004284
-0.2106
0.09698
0.1136
0.0006142
0.002172
-0.002786
-0.103
0.05726
0.04574
0.162
-0.4412
0.02491
-0.07319
-9.532e-07
6.016e-07
3.516e-07
-1.269
0.09896
-0.0001628
-0.0003655
0.0005283
-0.0004596
-0.0008392
0.001299
0.01238
-0.01035
-0.002027
-0.0003793
-0.0002828
0.0008774
-0.0008031
-7.423e-05
0.001174
0.0005277
-0.001701
0.08787
-0.101
0.01311
0.001504
-0.0005933
-0.0009104
-0.001048
0.0008266
0.0002212
-0.0007716
0.0002449
0.0005267
-0.0008164
0.0003149
0.0005015
-0.0002561
-0.0009898
0.001246
0.0003711
0.0005115
4.967e-06
-3.891e-06
-1.076e-06
-0.0008161
4.455e-05
-0.005526
0.03067
-0.02514
0.0007515
-0.001367
0.0006155
-0.0004713
0.0005615
-9.026e-05
0.02781
-0.04717
0.01935
0.009406
-7.592e-06
-0.009398
-0.04825
-0.03905
0.0873
0.001407
-0.001631
0.0002245
0.003087
-0.001693
-0.001394
0.0007991
-0.0002977
0.001142
-0.0003518
-0.0007899
6.627e-07
9.982e-06
-1.073e-05
-0.02684
-0.7837
-0.001015
0.0001985
0.0002056
-0.0003365
0.0001309
0.002018
-0.002936
0.0009172
0.001295
-0.0003451
-0.0009502
0.002686
-0.004696
0.00201
-0.008451
-0.000399
0.00885
0.0003613
-0.0007
0.0003386
-0.000683
0.0001278
0.00641
0.003507
0.001061
-0.0008433
-0.0002176
0.0001678
0.0005905
0.0002423
-0.0004992
0.0002569
-0.0003229
0.0006167
-0.0002939
-0.0003113
0.0003113
0.1923
-0.01198
-0.0009796
0.0003058
0.0006739
0.000315
-0.0007516
0.0004367
-0.0002432
0.0005676
0.0004672
-5.604e-05
-0.0004112
0.0003515
0.001818
-0.00217
-0.000771
0.0005683
0.0002028
-0.03964
0.03232
0.007329
-2.37e-05
-5.204e-05
7.574e-05
0.001999
0.001087
-0.004077
0.001691
0.002387
-0.002824
0.0009098
0.001914
1.005
-1.173
0.1676
0.0002848
-0.0002362
-4.856e-05
-0.0006386
0.0003016
0.000337
0.0008414
0.0006622
-0.0004641
0.0009384
-0.0004742
0.1122
-0.1341
0.02197
-0.001845
-0.0009795
-0.1168
-0.006071
0.1229
1.671e-05
-0.0002076
0.0001909
0.0001346
0.0001502
-0.0004106
-0.0006371
-0.0006932
0.001953
-0.0005913
-0.005446
0.006037
-0.0005216
0.0003911
0.0005827
-0.0005668
-0.006202
0.07982
-0.07362
7.007e-05
-0.000542
0.0004719
0.0004689
9.11e-05
-0.00056
-0.03753
0.03201
0.0003115
-0.0004593
0.0001478
2.143e-06
-0.0003837
-0.001512
0.001895
-1.468
1.197
0.2708
-1.466
1.196
0.2706
5.115e-05
-1.225e-06
-4.992e-05
-0.1634
0.1306
0.03283
0.2091
-0.04249
-0.1666
-0.05474
0.04661
0.008125
0.01999
-0.05406
0.03407
-0.0003853
0.0003358
3.246e-07
-3.248e-07
0.0002784
-0.0009189
0.0006405
0.02569
-0.00859
-0.0171
0.002483
-0.0005835
-0.0019
0.03719
-0.02214
-0.2057
-0.004841
-0.0004515
-0.0138
0.01425
0.0008128
-0.0004449
-0.0003679
-0.06469
0.2021
-0.1374
-0.0003372
-0.0004338
-6.885e-06
0.0004121
-0.0004053
3.292e-05
-4.414e-05
1.122e-05
9.463e-05
-8.529e-05
-9.337e-06
0.003235
-0.001938
-0.001297
0.0002344
-0.0007872
0.0005528
0.02065
0.005041
-0.0005107
0.0001373
0.0003734
-0.4689
0.2182
0.2507
0.001134
0.000161
-0.0005774
0.0008305
-0.0002531
0.0002413
0.0001652
-0.0004065
0.0001107
-9.145e-05
-1.923e-05
-0.0004505
0.0007654
1.398e-05
-0.003368
-0.0001496
0.0001524
-2.831e-06
-0.001048
0.000922
0.0001261
0.001599
-0.0004536
-0.001145
-0.04183
-0.07495
0.002721
-0.002124
-5.545e-07
2.959e-06
-2.404e-06
0.0009516
0.0006474
-0.02129
0.0174
0.003892
-0.0003213
-0.0006584
2.094e-05
-2.094e-05
0.2271
-0.01796
0.0009335
-0.0001542
-0.0007792
0.0008146
-0.0003457
0.0004202
-0.00092
0.0004998
-0.0006109
0.0004023
0.0002086
0.0005689
0.0004921
0.0004641
0.0002707
-0.0007348
-6.34e-07
-3.193e-07
0.0009649
0.0004603
-0.001425
-0.0005966
0.0005285
6.806e-05
-8.017e-05
8.054e-05
0.1915
-0.9548
0.7633
-0.0008095
-0.001233
0.002042
-0.0002096
0.0005879
-0.0003783
0.00222
-0.001052
-0.001167
0.002176
-0.0006863
-0.00149
-0.0002068
0.0009873
-0.0007805
0.000796
-0.000454
-0.0003421
0.1146
-0.02675
8.818e-05
-0.0004489
0.0003608
-0.0001935
0.001414
-0.00122
-0.009372
0.0006188
0.008753
-0.002574
0.001326
0.001248
-0.05802
0.09372
-0.0357
-0.01036
0.00469
-0.08626
0.038
-0.000708
-0.0007784
0.001486
6.857e-05
0.0006066
-0.0006752
-0.000245
0.0005229
-0.0002779
0.0002468
-0.0005722
0.0003254
-0.000935
-0.001221
0.002156
0.001479
-0.003904
0.002425
-0.0008617
-4.709e-06
0.0008664
0.8427
0.1625
-0.0007296
0.0009446
-0.000215
0.001033
-9.907e-05
0.0009285
-0.001549
0.0006206
-0.0006106
0.0006807
0.0007521
0.0006502
0.001119
-0.001316
0.0001972
-0.3705
-0.424
0.7945
0.0008022
0.001334
-0.002136
-0.5333
-0.3392
0.8726
0.03486
-0.01427
0.00349
6.961e-06
-0.08939
-0.1645
0.2539
0.04985
0.1167
-0.1665
6.499e-06
-2.824e-06
-3.675e-06
0.0008513
-0.0006852
-0.0001662
-0.07662
-0.09947
0.1761
0.00144
-0.001069
-0.0003712
0.157
-0.04483
-0.000817
0.003503
-0.002128
0.005153
-0.003025
-0.009197
-0.01209
0.0009397
0.001239
-0.002178
-0.2009
0.2381
-0.03722
-0.0005932
0.001039
-0.0004458
-0.0002837
-0.0002167
0.0005004
0.0001191
-0.0001276
8.44e-06
-0.0002152
-0.0003958
0.002805
-0.001326
-0.0002961
-0.0005403
0.0008364
-0.004096
0.001308
0.002788
-0.001125
-0.002092
0.003217
0.003331
-0.002717
-0.0002123
0.0003824
-0.0001701
0.0008069
0.000161
-0.000968
0.002265
0.000218
-0.1844
0.1197
-0.004606
0.002294
0.002312
-0.002531
0.002575
-4.41e-05
0.001126
0.0001086
-0.001234
6.131e-05
-1.832e-05
-4.299e-05
-0.001097
0.0007056
0.0003914
-0.839
0.3056
-0.2538
0.1324
0.1214
0.0003156
6.314e-05
-0.0003788
0.00229
-0.003078
0.0007883
-0.0002526
-0.000441
0.0006936
0.01323
-0.007704
-0.005523
0.1808
-0.171
-0.00976
0.009422
-0.01177
-0.0004573
-3.708e-05
0.0004944
0.08969
-0.0499
-0.03979
0.001554
0.0006658
0.0004386
-0.000123
-0.0007454
0.001934
-0.001189
-0.01407
0.02986
-0.01579
0.0003105
-0.0004426
0.000132
0.0008152
-0.0003203
-0.000495
-0.001443
0.000524
0.0009193
0.002158
-0.001172
-0.0009864
0.1961
-0.1462
-0.004743
0.01694
-0.4999
-0.968
-0.4993
-0.9671
-0.01089
0.002438
-0.001164
0.0009633
0.0002003
-0.003925
-0.0001519
0.0006714
0.001487
7.66e-05
0.0006182
-0.0006948
-0.01233
0.04014
0.002205
0.00103
-0.0009093
0.0003174
0.0005918
6.527e-05
0.0003448
-0.00041
-0.001263
0.00107
0.0001925
0.0004188
0.001021
0.000685
-0.0002665
-0.0004186
-0.0008196
0.001037
-0.0002177
0.0009595
-0.0006543
-0.0003052
-0.0002405
0.001256
-0.001015
-0.001201
0.0009276
0.000273
-0.002783
0.003761
-0.0009775
3.045e-05
-0.0002251
0.0001946
-0.0005453
-0.0009156
-0.02644
0.02735
0.0007865
-0.0006877
-9.879e-05
0.001753
0.000423
-0.0004288
-0.0007738
0.001203
0.2829
-0.3904
0.1075
0.0006687
0.0001466
-0.0004597
0.0008824
-0.0004227
-0.001468
0.001328
-0.005578
-0.004645
0.01022
0.000912
-0.0009504
3.842e-05
-8.788e-05
0.0007321
-0.0006442
0.3842
0.1341
-0.5183
-0.1147
-0.04867
-0.1738
0.24
-0.06622
0.0004763
-0.0005835
0.0001072
0.4183
-0.7888
-0.001684
0.002331
-0.0006466
0.05661
0.03309
0.0004054
-0.0006149
7.71e-05
-0.0005973
0.0005202
0.1069
-0.1131
0.02432
-0.009487
-0.01483
-0.0001942
0.0009672
-0.0007729
6.995e-06
-5.518e-08
-6.94e-06
0.0006381
-0.001115
0.0004767
0.8945
-0.668
-0.2265
0.0005146
0.005571
-0.006086
0.0001639
0.0007134
-0.001201
0.0008443
0.0003566
0.006448
-0.004874
-0.001574
-0.08415
-0.01885
8.362e-05
1.446e-05
-9.808e-05
0.01404
-0.01901
0.004968
1.261e-06
-0.0001817
0.00141
-0.001875
0.0004649
-0.001143
-0.002184
0.003327
0.2467
-0.2557
0.008999
0.006516
-0.005343
-0.001173
-3.419e-05
0.0001352
-0.000101
0.0002671
0.0007316
-0.0009987
-0.0007831
0.0008697
-8.657e-05
-0.0001871
0.0004053
-0.0002183
0.004537
0.001979
-0.0004021
0.0003418
-0.02154
0.02063
0.01429
-0.07231
0.0001623
-0.0002841
0.0001218
-0.5084
0.03955
0.001888
4.653e-05
-0.001935
0.0002266
-0.0002099
-0.001889
0.01593
-0.003589
0.002853
0.0007358
0.0002797
-0.000903
0.0006232
-0.001794
0.001786
8.122e-06
0.1104
0.4881
-0.5985
0.0004507
-0.0009148
-0.000329
-0.0002309
0.0005599
-0.001132
-2.67e-05
0.001159
0.00163
0.007775
0.0001252
0.0004995
-0.0006247
-0.001235
0.0007759
-0.0003194
-0.0006572
0.001239
-0.001067
-0.0001719
-0.001082
0.0002204
-0.0008521
0.002573
-0.001721
-0.001032
0.0001948
0.0008372
0.0005211
-5.386e-05
0.0002423
-0.0002215
-2.082e-05
0.0005612
-0.0006035
4.223e-05
-0.6693
0.8608
-0.001388
0.0003396
0.00612
-0.009515
0.003395
-0.003369
0.003199
-0.0117
0.0002742
0.01143
0.0005953
-0.0001751
-0.009089
-0.008081
0.01717
-1.285
1.448
-0.1628
-0.0007383
0.0007489
-1.06e-05
0.000172
0.0001318
-0.0003039
0.002182
0.008261
-0.01044
0.002718
-0.002929
0.0002112
0.5738
-0.1895
0.0009089
-0.001803
0.0008944
0.0001407
-0.0006241
0.0004834
-0.05573
0.04566
-0.01834
-0.1826
0.7038
-0.6547
-0.04907
0.0006802
-0.0007082
0.05441
-0.02374
-0.0003889
-0.0001496
0.0005385
0.0495
-0.05272
0.003216
6.564e-05
0.0004337
-0.009054
-0.132
0.141
0.0007714
-0.0005595
-0.0002119
0.05492
-0.2287
0.0002865
0.0005264
-0.001146
0.001204
-5.721e-05
-0.001128
0.0006159
0.0005117
-0.001057
0.002412
-0.001356
0.0002901
-0.0006058
0.0003157
-0.01923
0.00857
0.01066
-0.0006048
0.0003221
0.0002827
0.0006472
0.0002496
-0.0008968
-0.0007669
7.995e-05
0.0006869
-0.0006694
0.0001487
0.0005207
0.001036
0.005187
-0.006223
-0.002005
0.001749
0.0004119
0.000712
-0.001124
0.0009543
-0.00307
0.002116
0.0007118
-0.001132
0.0004198
-0.0006249
0.001037
0.3401
-0.9181
0.578
0.1196
-0.002971
-0.1166
0.001937
-0.0008363
-0.001101
-0.0005429
0.0005754
-3.247e-05
-1.551
0.124
1.427
-0.001468
0.000914
0.0005541
-0.003467
0.009466
-0.005999
0.004905
0.007471
-0.0006547
0.002944
0.02983
-0.01499
-0.01485
1.429
-0.2701
-1.159
0.0001989
-0.0006087
0.0004098
-0.008199
0.004732
-0.0002336
0.0002033
3.02e-05
-0.0009576
0.0004787
0.0004788
0.0005732
-0.0003597
-0.0002137
0.0006349
-5.296e-05
-0.000582
0.0006537
-0.0001076
-0.0005462
-0.0005872
-0.0005098
-0.0008457
9.233e-05
0.0007533
0.0005368
0.002181
0.00106
-0.0003502
-0.0007094
-0.1218
0.2567
-0.1349
-0.0003486
0.0005909
-0.09834
0.08074
0.01761
0.0005505
-0.0004847
-6.58e-05
0.0005636
-0.00118
-0.0008749
0.0007959
7.906e-05
3.342e-05
-0.001106
0.001072
1.643e-07
1.601e-07
0.000887
-0.0004439
-0.0004431
-0.001285
0.0009243
0.0003609
0.02659
-0.01516
-0.01143
0.001273
-0.00189
0.000617
-0.2814
0.2306
0.05078
0.0003708
0.0002024
0.1142
0.005359
-0.0003403
-2.009e-05
0.0003604
-0.001693
0.00131
-4.981e-06
4.98e-06
2.122e-06
-4.079e-06
1.955e-06
1.029e-05
-9.204e-06
-1.09e-06
1.201
-0.8205
-0.3801
0.0003799
0.0004066
-0.0002156
0.001007
-0.0007914
-0.1429
-0.111
0.001224
-7.917e-05
-0.001145
-0.0003427
0.001044
-0.0007014
0.0005254
-0.0005676
4.222e-05
0.002842
-0.0002236
-0.002618
-2.971e-05
-0.001117
-0.000947
-0.0001807
-0.0009282
-0.0005399
-0.0005256
0.0004806
4.505e-05
-0.4274
0.7674
0.0006953
-0.0002582
-0.0004371
-2.819e-05
2.678e-05
1.414e-06
0.000697
-0.0008001
0.0001031
0.0007097
-0.0001763
-0.0005334
-9.672e-05
7.302e-05
0.06254
-0.1775
0.002641
-0.0006226
-0.04053
0.06052
0.003152
-0.002198
0.04489
0.242
-0.2868
-0.0006271
0.0001573
0.0004697
-0.0001407
-0.0002137
0.0003544
-0.0002042
0.0001909
1.334e-05
1.532
-0.9054
-0.6263
0.001567
0.0003693
0.009392
0.002934
-0.01233
-4.838e-05
6.311e-05
-1.473e-05
-0.0007725
-3.307e-05
0.0008056
0.0005162
-2.3e-05
-0.0004932
-0.00432
0.0008543
0.003466
-0.1026
0.09844
0.004179
-4.97e-05
0.0002479
-0.0001982
0.001013
0.0007875
-0.001801
-0.8098
-0.7412
0.002351
-0.004511
0.0006602
0.003851
-0.0005604
0.0002767
0.0003085
0.0006036
-1.117e-05
-0.0005318
-0.0003999
6.735e-05
0.0003325
0.001655
-0.0002456
-0.002841
0.002915
-7.406e-05
0.0009899
7.557e-06
-0.0009975
-0.0002749
0.0006005
-0.0003256
-0.0001849
-0.0005534
0.116
0.05323
-0.1692
-0.0002245
0.0001578
6.667e-05
-8.865e-05
0.0005874
-0.0004987
0.0009125
-0.001041
0.0001288
0.0008517
-0.001822
0.0009703
-0.0002528
0.0004288
-0.000176
-0.79
0.113
0.677
-0.7881
0.6287
0.1594
0.001091
-0.01046
0.0006397
4.534e-05
-0.0006999
-0.0007253
0.001425
0.1359
-0.205
0.0691
1.475
-0.6517
-0.8231
-0.001602
0.00261
-0.001008
0.0003775
-0.0005707
0.0001932
0.001045
-0.0004417
-0.000603
-0.000814
-3.163e-05
-0.0002594
-2.934e-05
0.0002888
0.000346
-0.0003175
-2.841e-05
-0.002937
0.002823
0.0001142
-0.14
0.09744
0.04257
1.413
-1.289
-0.1239
0.0002139
-0.0001026
-0.0001113
0.0003094
0.0005794
-0.0008888
0.0005096
-0.001613
0.001103
0.3078
0.5195
-0.8274
-0.0001651
-0.0004315
0.001918
-0.002234
0.0003158
0.0005643
-0.0005484
-1.583e-05
0.4705
-0.0008577
0.001034
-0.0001768
-0.02659
0.1625
-0.0003671
0.0006468
0.0004258
-4.255e-05
-0.0003833
0.003746
-0.004652
0.0009057
0.9761
0.1609
-1.137
7.079e-05
0.0002797
-0.0003505
-0.001877
-0.0006977
-0.0005085
0.0001972
0.3945
1.034
0.0003815
-0.001362
6.595e-05
2.868e-05
0.4
0.3037
-0.001358
-0.00223
-0.1633
0.00647
0.1568
-0.0003076
-0.0003986
0.0007062
0.001464
-0.0004291
-0.001035
-0.2775
0.1881
-0.0006375
0.0005751
6.238e-05
0.0003382
0.0006968
-0.001035
7.5e-05
-2.782e-05
-4.719e-05
0.0004221
0.0003239
-0.0007461
0.002023
-0.00113
-0.0008931
-0.0003017
-0.0008989
-0.0003565
-0.0008443
0.0006415
0.0002304
-0.0008719
0.000681
-0.0007283
0.0004248
-0.0007429
0.0005588
-0.0009014
0.0003426
-0.0002362
0.0002441
-7.951e-06
-0.001542
0.001179
0.0003627
0.0006976
-0.0004987
-0.0001989
-0.5998
0.9077
0.001216
-0.0007999
-0.0004157
0.107
-0.1919
0.08488
-0.0005411
-0.0007219
-0.1216
0.03291
0.08872
-0.0002781
0.001685
-0.345
-0.9401
-0.1511
0.07443
-0.001849
-0.004249
0.006098
-0.0004959
-0.0005362
0.0007289
0.0005084
-0.001237
-1.044
0.1264
0.9176
1.122
-0.9121
-0.2098
-0.0002259
7.629e-05
0.0003214
0.0002768
-0.0005982
0.0002971
-0.0006313
-0.0009129
0.0003645
0.0005484
-0.001591
0.0006705
0.0009208
0.0003467
-0.0007357
0.0009772
-0.001395
0.000418
-0.0008419
0.0005129
0.0006946
-0.0003499
0.0001628
-0.0004499
0.0002871
0.0003595
0.0001139
-0.0004734
-1.167
0.1231
-0.000212
-0.0006373
0.0008493
-4.874e-05
0.0005969
-0.0005481
9.769e-05
-0.004559
0.004461
0.006761
-0.003233
-0.003528
0.1842
-0.2397
0.05548
1.032
0.4429
0.001266
-0.002011
-2.581e-05
-0.0004455
0.0004431
0.0006164
-0.0001259
6.948e-05
5.643e-05
-0.07355
-0.04808
-0.9817
-0.4044
1.386
0.0003013
0.0002196
-0.0005209
0.0008633
-9.795e-06
-0.0008535
-0.0487
-0.006039
-0.0002181
-0.0002866
0.0005047
0.01373
-0.002414
-0.01131
-0.03004
0.07849
-0.04844
0.0007264
-0.0002925
-0.0004339
0.00222
-0.002736
0.0005162
0.000632
-0.0006807
0.005157
-0.009602
0.004445
-5.72e-06
5.72e-06
0.0001402
-2.955e-05
-7.972e-05
-0.0005897
-0.0004333
-0.0001715
0.0004414
0.0004099
-0.0005467
-0.0002601
0.0008068
-0.0008073
-5.04e-05
0.0004132
-0.000751
0.0003378
0.05499
0.004636
-0.05963
-0.00116
0.0003905
0.0007699
-0.0001046
6.793e-05
3.67e-05
0.0004725
0.001416
0.7549
-1.084
0.3291
0.001336
-0.000217
-0.005026
0.0043
0.0007255
0.002451
-0.004048
0.001597
1.08
0.4512
-0.02577
0.7807
9.869e-06
4.696e-06
-1.457e-05
0.021
0.005592
0.000501
-0.0009293
0.0004284
-0.0004537
0.0004599
-6.126e-06
-0.0004545
0.0008043
-0.0003499
-0.003489
-0.001116
0.002386
0.003055
-0.005441
0.0005029
-0.0002616
0.004455
-0.007034
0.002579
0.001229
-0.001038
-0.0001908
-0.1559
-0.1969
0.3528
1.066
-0.0445
-1.022
-0.002097
-9.719e-05
0.002194
-0.00213
0.00825
-0.000142
0.0006182
-0.000998
0.003449
0.000667
-0.000754
8.697e-05
-0.001767
0.0006234
0.001144
0.0003814
0.0002433
-0.0006247
-0.01598
0.01552
0.003152
-0.008731
-1.118
-0.3847
1.502
-0.0001902
0.0003735
-0.0001832
0.02307
0.006765
-0.001441
0.001055
0.0003868
1.518e-06
-0.002065
0.0005928
0.001472
-0.002031
0.001323
-0.0003547
0.0009928
1.253
-0.277
-0.001414
0.001612
-0.0001985
-0.0003505
-0.0005997
0.0009502
0.0001404
-0.0001502
9.854e-06
0.000295
0.004072
-0.004367
-0.001449
-0.0007634
0.002212
0.0004566
0.000238
-0.000118
0.0003237
0.0005854
0.0006537
0.0001648
-0.0005896
0.0004248
-0.001371
-0.0008065
0.002177
0.0006955
-0.0009022
0.001095
-0.001898
0.0008035
-0.002713
0.0001826
-6.184e-05
0.001235
0.003148
-0.005673
0.002524
-7.04e-06
7.04e-06
-0.001182
-0.003843
-0.06317
0.02352
0.0001643
-0.00137
0.001206
0.000202
0.000381
-0.0005831
2.86e-06
0.001001
-0.001004
0.1073
0.3763
-0.4837
0.000199
-5.004e-05
-0.0001489
0.0005753
-0.003358
0.0009069
0.0001379
-1.506
0.5244
-4.07e-05
-8.521e-05
0.0006811
-0.0001199
0.0008474
-0.00102
0.0001724
-0.3855
-0.6311
1.017
-6.459e-05
0.0004778
-0.0002395
0.0002799
-4.037e-05
-0.0002117
0.0006939
-0.0004823
-0.0001871
0.0007869
-0.0005999
-1.189
0.8039
0.0009704
-0.0005949
-0.0003755
-7.148e-05
2.404e-05
4.743e-05
-0.0004032
0.0006573
-0.0002541
0.001841
-0.001757
-8.405e-05
-0.1548
0.06318
0.09157
-0.0007456
-0.0001636
-0.0002981
6.06e-05
0.0002375
-0.1612
0.1699
-0.008747
0.00247
0.0004688
-0.002938
-0.003591
0.003553
3.783e-05
-0.0006787
0.0001321
0.0006005
0.0002865
-0.002486
0.003794
-0.002342
0.0002777
-5.714e-05
-0.0007521
0.0008093
0.0001771
-0.0004221
0.2827
0.5892
-0.8719
0.0007203
0.0002501
0.001068
-0.001664
0.000596
0.0003002
-0.0003073
7.051e-06
-0.0002105
-0.0009214
-0.01123
0.008855
0.002376
0.00143
-0.0002059
-7.906e-05
-0.0003208
1.032
-0.749
-5.961e-05
0.000585
0.0003325
0.0003939
-0.0004757
-0.0002321
0.0007078
4.26e-06
-4.814e-06
0.0002871
-0.0007628
-8.629e-05
-0.000118
-0.001021
-0.0002185
0.00124
-0.0005295
0.000306
0.0002235
-0.004338
0.001115
0.003223
0.1738
1.027
-4.101e-06
4.101e-06
-0.0002426
-0.0003549
0.0005975
-0.0003371
0.0007593
-0.0002007
0.0001805
2.025e-05
0.0002091
-0.0004904
0.0002813
-4.389e-05
0.0002798
-0.0002359
0.0005522
-9.528e-05
-0.0004569
-0.0006038
0.0005217
0.5636
0.8492
-0.001059
-0.002048
0.003107
-0.003525
0.0009681
0.002557
-1.494
0.3763
0.0003356
-0.000591
0.0002555
7.869e-05
0.0004718
0.001804
-0.0006778
0.0009722
0.0003447
-0.001317
0.1395
-1.026
0.8862
-0.0002013
0.001178
-0.0003137
0.0001011
0.0002126
-0.2777
-0.7214
0.8609
0.004151
0.00261
0.002133
-0.002547
0.0004143
-0.0006524
-0.0009388
0.0002938
1.128e-05
-0.0003051
0.0009515
-0.0008036
-0.0001479
7.215e-05
-4.294e-06
-6.785e-05
-0.003277
0.0007821
0.002495
-0.004148
0.005996
-0.001849
-0.8106
-0.2735
0.0008246
-0.0002258
-0.0005988
0.0005641
-0.0002654
-0.0002986
0.0005411
-0.0004384
-0.0001027
0.0002027
-0.0004151
0.00234
-0.001988
1.07
0.08814
-1.158
0.2735
-0.211
0.06503
-0.1136
0.04855
0.0005046
-0.0001062
-0.0003984
0.04604
-0.8566
0.02312
-0.01456
-0.008563
-0.0002338
0.0005256
-0.0002919
-0.0006997
-0.0008662
0.001566
0.0004202
0.0002499
-0.0006701
-0.2182
0.8337
-0.6155
0.0005103
-0.0002696
-0.0002407
-0.0003084
0.001804
-0.001495
-0.2407
-0.01332
0.254
0.0004483
0.0005113
0.6954
0.4768
-1.172
-0.0005123
-0.0003116
0.0008238
-0.0001053
-7.339e-05
0.0001787
-0.0008319
0.0004101
0.0004218
-0.0004441
-0.001325
0.001769
8.042e-05
7.163e-05
-0.000152
0.1847
-0.05522
-0.1295
-0.0003489
-0.0003257
0.0006746
-0.009066
0.009628
-0.0005614
-0.0005045
-0.0001226
8.492e-05
-8.464e-05
-2.784e-07
-0.0004775
-0.0005908
0.001068
0.0002257
9.329e-05
-0.000319
-0.006788
-0.004443
0.004983
-0.005424
0.0004411
0.002042
-0.0003479
-0.001694
0.0006145
-0.0006145
-0.3395
0.1944
0.145
-0.003622
0.005403
-0.001781
0.001151
-0.0007068
-0.000444
-0.0005062
0.0009106
-0.0004044
-8.337e-05
-2.125e-05
0.0008778
-0.0007962
-8.151e-05
-0.1206
1.191
0.03269
-0.01841
-0.01428
0.0001457
6.824e-05
-0.0007264
4.135e-05
0.000685
0.0004004
-0.0004804
8.001e-05
-0.0007946
0.001749
-0.0009545
0.0001133
-0.0001133
-0.0008475
0.0008852
-3.767e-05
-0.0004486
0.0004486
0.001163
-0.000409
-0.0007541
-0.0001239
-8.744e-05
0.0002113
-0.002963
0.001904
0.0002688
-0.0001674
-0.0001014
0.09538
-0.07
-0.02538
0.001645
-0.001239
-0.0004066
1.095
-1.519
0.4242
1.315
-1.737
0.4217
0.0002725
0.001503
-0.001776
-0.04079
0.08844
-0.04765
-0.0006585
1.081e-05
0.0006477
0.008223
-0.002285
-0.005938
-0.0007326
0.0004347
-0.006206
0.006868
-0.0006628
0.03996
-0.0897
0.04974
-0.0005735
7.594e-05
0.0004976
0.0006533
0.0009687
-0.001622
0.252
-0.005348
-0.006766
0.006019
0.0007469
-0.0003691
0.0006281
-0.000259
0.08343
-0.04347
-0.0007086
0.0003813
0.0003273
-0.0001946
0.0001946
0.0007578
-0.0003645
-0.0003933
0.0008194
-0.002636
0.001817
0.0004406
-0.00011
-0.0003306
0.001985
-0.002477
0.0004924
0.0003146
-0.0002981
-1.652e-05
-0.3377
0.1259
0.2118
-0.001116
0.0002415
-0.0006667
-0.0007748
-0.05286
0.3358
-0.0006214
0.0004587
-0.0008623
7.269e-05
0.0007896
-0.001098
0.002369
-0.001271
-0.4811
-0.5538
1.035
0.2167
0.0002374
-0.2169
0.007269
-0.004178
-0.003091
2.458e-05
1.776e-05
-4.234e-05
0.0001687
-0.002337
0.002168
0.0001931
-0.0001931
-0.001536
0.0007676
0.0007689
0.0008598
-0.0002261
-0.0006338
-0.001884
0.001728
0.0001561
-4.546e-05
-3.205e-05
7.751e-05
-0.0008066
-0.0002502
0.001057
-0.4102
1.371
-0.9607
-0.000375
0.0005543
-0.0001794
0.00504
-0.001254
-0.003787
-0.2998
1.337
-1.037
-0.0006553
-0.0009458
0.001601
-2.258e-05
1.29e-05
9.677e-06
0.001037
0.003882
-0.004919
-0.0009382
0.0003474
0.0005907
0.004749
-0.002752
-0.001997
0.001124
0.002671
-0.003794
1.772e-05
3.932e-05
-5.705e-05
0.0003093
-0.0003092
0.0006736
0.0003323
-0.001006
-0.08534
-0.05467
-0.4579
0.2218
0.2361
0.002611
-0.001002
-0.001609
-0.001651
0.001274
0.0003769
0.0001521
0.0002612
-0.0004133
-0.0008682
0.0004587
0.0004095
-0.0005091
0.000126
0.0003831
0.0007364
-0.0003046
-0.0004319
-0.002498
0.002109
0.0003889
-0.009749
0.01545
-0.005698
0.0003296
0.0004068
-0.02843
-0.01095
0.03938
-0.0006541
-5.691e-05
0.0007111
0.1438
-0.5854
0.4416
0.0004132
0.0005049
-0.000918
-4.988e-05
3.874e-05
1.115e-05
-0.00169
0.002259
-0.0005687
0.0008323
-0.000672
-0.0001603
-0.001151
0.0005448
0.0006059
-0.3792
0.09572
0.2835
-0.1841
0.05556
0.1285
-0.0001307
0.0002327
-0.000102
0.007466
-0.008823
0.001357
0.000191
-0.000363
0.000172
0.000536
-0.0009428
0.0004068
-0.0001484
0.0002714
-0.000123
0.0008808
-0.0008793
-1.469e-06
0.000951
-0.0001717
-0.0007793
-0.001487
0.001162
0.0003251
0.0001134
-0.0007178
0.0006044
0.000703
-0.000703
-5.742e-05
0.0007121
-0.0006547
-5.181e-05
0.0004213
-0.0003695
0.0007026
-0.0005596
-0.000143
-0.002186
0.003309
-0.001123
0.0006574
-0.00131
0.0006524
-6.791e-05
0.0003795
-0.0003655
0.0003879
-2.246e-05
3.194e-05
-2.389e-05
-8.047e-06
-4.124e-05
2.519e-05
1.605e-05
-0.001384
0.0006316
0.0007528
-0.3208
0.4281
0.5984
0.2232
-0.8216
-0.0007459
0.001051
-0.0003047
0.0001346
0.0003958
-0.0005304
0.00428
-0.0007128
-0.003567
-0.1885
1.179
-0.9909
0.0003314
0.0007422
-0.001074
-0.001256
-0.0001394
-0.002189
-0.004371
0.00656
0.0001729
0.000104
-0.0002768
0.002372
-0.002068
-0.0003035
-8.093e-05
0.0003908
-0.0003099
0.001879
-0.002527
0.0006473
0.7867
-0.6763
-0.007865
0.002811
0.005054
0.009686
0.0001767
-0.009862
0.0005253
-4.927e-05
-0.0004761
0.0001113
0.0001969
-0.0003082
-0.0003161
0.0002254
9.067e-05
-0.004822
0.001678
0.003144
0.002042
-0.005153
0.003111
0.0003045
-0.0007156
0.0004111
-0.000723
0.001123
-0.0004005
-0.001559
-0.0011
0.00266
0.002174
-0.0008157
-0.001358
-0.0008442
-0.0001808
0.001025
0.001635
-0.001351
-0.0002833
0.0005661
-0.0004726
-9.35e-05
0.0006239
-0.0004755
-0.0001484
0.2467
-0.309
0.06226
-0.0004439
0.0003101
0.0001338
-1.266e-05
-5.001e-05
6.267e-05
0.001476
-0.0004074
-4.331e-05
0.000969
-0.0009257
-0.0003569
7.207e-05
0.01835
-0.1161
0.09778
-0.0005516
0.0005516
-0.0007291
0.0007291
-0.1629
-1.047
1.21
1.262
0.232
-1.494
-0.001107
0.0006012
0.0005054
0.0003119
-0.001672
0.00136
-1.731e-05
2.243e-05
-5.123e-06
-4.839e-05
0.0001078
-5.939e-05
-0.0001744
0.00182
-0.0006023
0.0008011
-0.0001988
0.0003765
4.338e-05
-0.0004199
-0.0008011
-0.004021
0.004822
0.003282
0.00434
-0.007621
-0.1883
0.05561
0.1327
0.0004623
-0.0002863
-0.000176
-0.000658
-0.001111
0.001769
-0.0002325
0.0005134
-0.0002809
-0.004354
0.0009459
0.003408
-3.229e-05
5.204e-05
-1.975e-05
0.0005053
-0.0006738
0.0001685
0.8057
-1.129
0.323
-0.0008119
0.0008119
0.0003586
-0.0002326
-0.000126
0.1702
0.5644
-0.7346
0.0006992
-4.542e-05
-1.276
1.114
0.2374
-0.4251
0.1877
-0.002548
0.001779
0.0007693
-0.01022
-0.002616
0.01283
0.0005362
-0.0002494
-0.0002868
0.7831
-0.9535
0.1704
0.001041
-0.0005018
-0.0005391
0.4798
-0.14
-0.3398
0.0003198
-0.0007357
0.0004159
-0.01579
0.004647
0.01114
0.007075
-0.006686
-0.0003892
0.004856
-0.002517
-0.002339
-0.0002385
-0.0008571
0.001096
-0.0007778
-0.0003625
0.00114
0.0003739
0.0001404
-0.0005142
0.001392
0.0003015
-0.001693
0.1439
0.6354
-0.7793
0.00463
0.06435
-0.06898
-0.002435
0.001217
0.001218
-0.0001642
-0.0008979
0.001062
0.0001076
-0.000346
0.0002384
0.0004939
-0.0002984
-0.0001955
0.0002159
-0.0001184
-9.749e-05
-0.0003049
-9.157e-05
0.0003964
-0.0003484
0.0003484
-0.000472
0.0007959
0.001458
-0.00104
-0.0004171
-0.0003587
0.0009715
-0.0006128
-0.001018
0.0006288
0.0003892
0.0003842
0.0002405
-0.0006247
0.00396
-0.005731
0.001771
0.006532
-0.002544
-0.003987
0.4598
-0.345
-0.1148
-0.0007986
0.0008798
-8.12e-05
-0.0001133
0.0001814
-6.811e-05
-0.0007967
-7.257e-06
0.000804
0.4926
-1.088
0.5952
-0.0007625
0.0002788
0.0004837
0.002069
-0.001065
-0.001004
-0.001827
0.0004757
0.001351
0.001541
-0.0006892
-0.0008514
-0.0001529
0.0007438
-0.0005909
0.001118
0.005667
-0.006785
0.0006737
-0.0007899
0.0001162
-0.000718
-0.001406
0.002124
-0.0008949
-0.0009322
-8.621e-05
-0.0001493
0.0002356
-0.0007772
-0.0001324
0.0009095
7.251e-05
1.241e-05
-1.18
0.5431
0.6372
0.00169
-0.003242
0.001552
-0.0007319
0.0002869
0.000445
0.1347
0.05165
-0.1864
-0.0007267
0.0002112
0.0005155
0.0005568
0.0001594
-0.0007162
-1.249
1.249
0.001409
0.002261
-0.00367
-9.658e-05
0.0001622
-6.559e-05
0.06342
-0.05162
-0.0118
0.006045
-0.002085
-0.002911
0.002901
1.06e-05
0.0004759
0.0001098
-0.0005858
0.01161
-0.008675
-0.002932
-1.268
0.5233
0.7448
0.0005206
-0.0008498
0.0003292
-0.0002117
0.0005349
-0.0003233
0.4109
-0.2577
-0.1532
-0.007735
0.004453
0.003282
2.127e-05
-0.02882
0.02879
-0.0009828
-0.0004467
0.001429
-0.0004829
-0.000193
0.0006759
-0.001342
-0.0006893
0.002032
-0.04765
-0.05047
0.09813
-1.224e-05
-5.296e-05
6.521e-05
-1.419e-06
-4.385e-05
4.527e-05
0.0002738
0.0009418
0.0003886
-0.00143
0.001042
-0.001079
0.001759
-0.0006802
0.0001581
0.0001106
-0.3904
1.236
-0.8461
0.0002371
-0.001099
0.0008617
0.3546
-0.01207
-0.3425
0.0005335
-0.0007506
0.0002171
-0.001203
0.001198
4.823e-06
0.0004183
0.000511
-0.0009293
0.0004337
0.001107
-5.441e-05
2.946e-05
2.495e-05
0.0004591
-0.0005157
5.666e-05
-0.5579
0.2194
0.3385
8.397e-05
-8.375e-05
-0.0004742
0.000339
0.0001352
0.0001218
-0.0005682
0.0004464
-0.001296
-0.0001682
0.001464
-0.0003211
0.0004093
-0.001168
-0.001117
0.002285
0.006602
-0.006324
-0.0002779
-0.0005282
0.0004249
0.0001034
0.001733
-0.001195
-0.0005379
-0.01029
0.02391
-0.01362
0.0001139
-0.0001139
-0.0003558
0.0004414
-8.556e-05
-0.0008435
0.000364
0.0004795
0.0006281
0.000244
-0.0008721
0.001434
-0.001184
-0.00025
0.0003029
0.0005243
-0.0008272
-0.0001732
-0.0003269
0.0005001
0.0001248
8.698e-05
-0.0002118
0.002013
-0.001463
-0.0005499
0.0006556
-0.0001531
-0.0005025
0.0007052
-0.002157
0.001451
-0.000405