/*--------------------------------*- C++ -*----------------------------------*\
| =========                 |                                                 |
| \\      /  F ield         | OpenFOAM: The Open Source CFD Toolbox           |
|  \\    /   O peration     | Version:  v2012                                 |
|   \\  /    A nd           | Website:  www.openfoam.com                      |
|    \\/     M anipulation  |                                                 |
\*---------------------------------------------------------------------------*/
FoamFile
{
    version     2.0;
    format      ascii;
    class       surfaceScalarField;
    location    "5";
    object      phi;
}
// * * * * * * * * * * * * * * * * * * * * * * * * * * * * * * * * * * * * * //

dimensions      [0 3 -1 0 0 0 0];
oriented        oriented;


internalField   nonuniform List<scalar> 
189008
(
3.911e-06
-3.911e-06
9.833e-07
-9.835e-07
-9.969e-08
9.963e-08
-2.036e-07
2.035e-07
-5.803e-05
5.803e-05
-1.93e-07
1.93e-07
9.823e-05
-9.823e-05
-6.747e-05
6.747e-05
-4.984e-05
4.984e-05
-0.0001308
0.0001308
6.222e-05
-6.222e-05
-5.917e-05
5.917e-05
-1.197e-06
1.197e-06
1.865e-07
-1.866e-07
0.0002714
-0.0002872
1.574e-05
8.32e-05
-0.0001003
1.712e-05
-3.192e-06
3.192e-06
0.02435
-0.01016
-0.01419
0.003728
-0.002468
-0.00126
-8.322e-05
9.606e-05
-1.284e-05
-0.001755
0.001513
0.0002413
-3.695e-05
1.685e-05
2.009e-05
-0.002317
0.009591
-0.007274
1.572e-05
0.0006223
-0.000638
-1.924e-05
-1.77e-05
-0.0009604
0.0004576
0.0005029
0.0005346
-0.0005989
6.426e-05
0.000601
-6.639e-05
0.0006704
-0.0004606
-0.0002099
0.01503
-0.02626
0.01122
-6.064e-05
-0.0003131
0.0003737
-0.0003466
-0.0006138
0.0004661
-0.0002662
-0.0001999
0.0006744
-0.0003622
-0.0003123
0.01222
0.009746
-0.02197
0.0001991
0.0002671
-4.946e-05
-0.0004006
0.0004501
-0.003327
0.003984
-0.0006569
-4.692e-05
0.0006159
-0.000569
-0.0001824
0.0002029
-2.049e-05
0.002062
0.001666
0.001036
-0.002791
0.001755
-0.0001754
-0.003266
0.003442
3.626e-06
-3.626e-06
0.0004608
0.02389
0.0004151
0.0002594
0.0003803
0.0002902
0.0007559
-0.0007585
2.536e-06
-0.0009509
0.001163
-0.0002118
-2.788e-05
0.0005098
-0.0004819
2.538e-05
5.782e-05
-0.009866
-0.03105
0.04092
0.000496
0.0002013
-0.0006973
-0.01058
0.008605
0.001977
1.092
-0.1319
-0.9604
0.00152
-0.001169
-0.0003507
-0.1436
1.236
0.009831
-0.006263
-0.003568
-0.3084
0.01954
0.2889
-0.00537
-0.005212
-0.002273
-0.0005709
0.002844
0.001252
-0.002118
0.0008658
-0.0001397
0.001318
-0.001179
-0.8106
0.9573
-0.1467
0.0003216
-0.0007946
0.0004731
-0.0001881
-0.003434
0.003622
-0.02548
0.01917
0.006318
0.001662
-0.001366
-0.0002965
0.0004638
0.001199
-1.278
0.4789
0.7991
-8.146e-05
-0.000422
0.0005035
-0.0001849
-0.0004139
0.0006098
0.002214
-0.002823
-0.1149
-0.1935
-0.2796
0.5204
-0.2408
0.0001981
0.0004029
-0.04807
0.08867
-0.0406
0.0008784
-0.0008148
-6.358e-05
0.0007295
0.0007904
0.1612
-0.6347
0.4736
-0.000659
0.0004528
0.0002063
-3.102e-05
-5.22e-05
-0.0003318
-0.0004732
0.0008051
2.272e-05
0.0001314
-0.0001542
-0.000554
0.0008357
-0.0002817
0.0004807
-0.0007432
0.0002625
-0.000611
0.001193
-0.0005824
-0.0006173
0.0002338
0.0003835
-0.003201
0.003012
-0.0003791
0.0005978
-0.0002187
0.1801
-0.01414
-0.166
-0.005629
-0.002361
0.00799
-0.0003158
0.0007671
-0.0004514
-0.0009781
-0.0007765
-0.0009688
0.0009944
-2.565e-05
0.02045
0.01381
-0.03426
0.002711
-0.001675
0.0004966
-0.0005013
4.713e-06
0.000711
0.0001449
-0.0008559
-0.01765
-0.007833
0.687
-0.5258
-1.627e-05
-0.0009346
-8.738e-05
-0.0001958
0.0002832
0.003464
-0.004169
0.0007051
-0.0001397
0.0006204
0.0009455
-0.0002346
-0.0009706
0.001403
-0.0004321
-1.001
-0.2773
-0.001448
0.0007004
0.0007479
-1.17
0.8882
0.2822
0.0002798
-8.406e-06
-0.0003925
-0.0002248
0.001392
-0.0002186
-0.001173
-0.0001426
-0.0002836
0.0004262
-0.2104
0.09695
0.1135
0.0006098
0.002152
-0.002762
-0.1027
0.05712
0.04559
0.1617
-0.4413
0.02496
-0.07304
-8.856e-07
5.576e-07
3.28e-07
-1.269
0.09898
-0.0001617
-0.0003631
0.0005248
-0.0004566
-0.0008344
0.001291
0.01228
-0.01027
-0.002009
-0.0003775
-0.0002815
0.0008694
-0.0007958
-7.352e-05
0.001166
0.0005251
-0.001692
0.0878
-0.1008
0.01302
0.001489
-0.0005878
-0.0009012
-0.00104
0.0008207
0.0002196
-0.0007669
0.0002434
0.0005235
-0.0008105
0.0003126
0.0004979
-0.0002541
-0.0009806
0.001235
0.0003692
0.0005092
5.74e-06
-4.499e-06
-1.24e-06
-0.0008111
4.423e-05
-0.005579
0.03052
-0.02494
0.0007458
-0.001357
0.0006112
-0.0004708
0.0005595
-8.874e-05
0.02763
-0.04691
0.01928
0.009366
-1.621e-05
-0.009349
-0.04817
-0.03893
0.08709
0.001392
-0.001615
0.0002231
0.003062
-0.00168
-0.001382
0.0007905
-0.0002945
0.001131
-0.0003481
-0.0007828
1.663e-06
1.056e-05
-1.223e-05
-0.02679
-0.7838
-0.001008
0.0001971
0.0002039
-0.0003337
0.0001298
0.001999
-0.002908
0.0009087
0.001284
-0.0003419
-0.0009418
0.002658
-0.004653
0.001995
-0.008398
-0.000426
0.008824
0.0003626
-0.000701
0.0003384
-0.000683
0.000129
0.006356
0.003475
0.001054
-0.000838
-0.0002163
0.0001669
0.000589
0.0002403
-0.0004952
0.0002548
-0.0003218
0.0006141
-0.0002923
-0.0003104
0.0003104
0.1922
-0.01208
-0.0009736
0.0003039
0.0006697
0.0003127
-0.0007462
0.0004335
-0.0002409
0.0005625
0.0004657
-5.577e-05
-0.0004099
0.0003564
0.001809
-0.002165
-0.0007656
0.0005642
0.0002014
-0.03946
0.03221
0.007253
-2.39e-05
-5.234e-05
7.624e-05
0.001983
0.001079
-0.004041
0.001675
0.002366
-0.002804
0.0009031
0.001901
1.004
-1.171
0.1673
0.000285
-0.0002362
-4.887e-05
-0.0006323
0.0002984
0.0003339
0.0008335
0.0006555
-0.0004597
0.0009294
-0.0004697
0.1118
-0.1336
0.02174
-0.001832
-0.0009729
-0.1164
-0.006019
0.1224
1.867e-05
-0.0002084
0.0001898
0.000135
0.00015
-0.0004077
-0.0006326
-0.0006921
0.001944
-0.0005983
-0.005396
0.005994
-0.0005235
0.0003809
0.0005773
-0.0005616
-0.006319
0.07954
-0.07322
6.941e-05
-0.0005363
0.0004669
0.0004641
9.027e-05
-0.0005543
-0.03735
0.03177
0.0003023
-0.0004491
0.0001467
2.548e-06
-0.0003816
-0.001502
0.001883
-1.468
1.197
0.2708
-1.466
1.196
0.2706
5.408e-05
-2.579e-06
-5.15e-05
-0.1632
0.1304
0.03278
0.2093
-0.04274
-0.1666
-0.0545
0.04649
0.008009
0.01991
-0.05388
0.03397
-0.0003844
0.0003349
2.383e-07
-2.384e-07
0.0002751
-0.000912
0.0006368
0.02561
-0.008585
-0.01702
0.002461
-0.0005784
-0.001882
0.03712
-0.02209
-0.2056
-0.004864
-0.0004884
-0.01368
0.01417
0.0008129
-0.0004456
-0.0003674
-0.065
0.2022
-0.1372
-0.0003349
-0.0004307
-6.865e-06
0.0004096
-0.0004027
3.372e-05
-4.517e-05
1.145e-05
9.568e-05
-8.628e-05
-9.401e-06
0.003207
-0.00192
-0.001286
0.0002328
-0.0007818
0.000549
0.02056
0.00505
-0.0005053
0.0001353
0.00037
-0.4688
0.218
0.2508
0.001124
0.0001595
-0.0005713
0.0008216
-0.0002504
0.0002401
0.0001635
-0.0004036
0.0001115
-9.212e-05
-1.934e-05
-0.0004471
0.0007598
1.072e-05
-0.003338
-0.0001499
0.0001527
-2.748e-06
-0.001042
0.000917
0.000125
0.001588
-0.0004502
-0.001137
-0.0417
-0.07467
0.00273
-0.00212
-5.364e-07
2.875e-06
-2.339e-06
0.0009449
0.0006426
-0.02115
0.01728
0.003867
-0.0003192
-0.0006544
2.011e-05
-2.011e-05
0.2271
-0.01775
0.0009237
-0.0001525
-0.0007712
0.0008063
-0.0003422
0.0004166
-0.0009121
0.0004955
-0.0006111
0.0004022
0.0002089
0.0005653
0.000489
0.0004591
0.0002681
-0.0007272
-6.144e-07
-2.712e-07
0.0009565
0.0004562
-0.001413
-0.0005927
0.0005251
6.765e-05
-8.008e-05
8.008e-05
0.1913
-0.9543
0.763
-0.0008036
-0.00122
0.002024
-0.0002075
0.0005822
-0.0003746
0.002202
-0.001044
-0.001158
0.002159
-0.0006813
-0.001478
-0.0002051
0.0009795
-0.0007744
0.0007923
-0.0004514
-0.0003409
0.1144
-0.02664
8.767e-05
-0.0004461
0.0003585
-0.0001912
0.001403
-0.001212
-0.009334
0.0006467
0.008687
-0.002557
0.001318
0.00124
-0.05782
0.09353
-0.03571
-0.01027
0.004646
-0.08607
0.03791
-0.0006996
-0.0007713
0.001471
6.806e-05
0.0006013
-0.0006694
-0.0002437
0.0005202
-0.0002765
0.0002477
-0.0005733
0.0003256
-0.0009242
-0.001224
0.002149
0.001467
-0.003868
0.002401
-0.0008542
-4.609e-06
0.0008588
0.8415
0.1623
-0.0007283
0.0009423
-0.000214
0.001022
-9.82e-05
0.0009195
-0.001536
0.0006163
-0.0006041
0.0006735
0.0007466
0.0006453
0.001108
-0.001304
0.0001952
-0.3697
-0.4231
0.7928
0.0007978
0.001325
-0.002122
-0.533
-0.3388
0.8719
0.03459
-0.01414
0.003458
6.623e-06
-0.08924
-0.1645
0.2537
0.05004
0.1164
-0.1665
7.526e-06
-3.192e-06
-4.334e-06
0.0008457
-0.0006806
-0.0001651
-0.07662
-0.09935
0.176
0.001426
-0.001058
-0.0003675
0.1563
-0.04454
-0.0008131
0.003471
-0.002108
0.005116
-0.003008
-0.009137
-0.01201
0.0009327
0.001227
-0.00216
-0.2008
0.2382
-0.03747
-0.0005895
0.001034
-0.0004446
-0.0002813
-0.0002148
0.0004961
0.0001198
-0.00013
1.021e-05
-0.000215
-0.0003961
0.002779
-0.001312
-0.0002932
-0.000535
0.0008282
-0.004075
0.001305
0.002769
-0.001114
-0.002087
0.003202
0.003302
-0.002693
-0.0002114
0.0003806
-0.0001691
0.0008062
0.0001601
-0.0009663
0.002244
0.0002163
-0.1845
0.1195
-0.004577
0.002278
0.002299
-0.002507
0.00255
-4.345e-05
0.001115
0.0001075
-0.001222
6.207e-05
-1.926e-05
-4.281e-05
-0.001088
0.0007001
0.0003883
-0.8383
0.3053
-0.2537
0.1324
0.1213
0.0003131
6.233e-05
-0.0003754
0.002266
-0.00305
0.0007834
-0.0002502
-0.0004367
0.0006869
0.01312
-0.007647
-0.005472
0.1802
-0.1705
-0.009707
0.009392
-0.01171
-0.000455
-3.681e-05
0.0004918
0.0894
-0.04975
-0.03964
0.001542
0.0006602
0.0004348
-0.0001217
-0.0007404
0.001917
-0.001176
-0.01391
0.02972
-0.01582
0.0003145
-0.0004456
0.0001311
0.0008119
-0.0003215
-0.0004903
-0.001429
0.0005197
0.0009096
0.002149
-0.001167
-0.0009814
0.1961
-0.1461
-0.004667
0.01689
-0.4999
-0.9681
-0.4993
-0.9672
-0.01085
0.002454
-0.001158
0.0009595
0.0001988
-0.003891
-0.0001497
0.0006692
0.00148
7.609e-05
0.0006141
-0.0006902
-0.0123
0.03993
0.002186
0.001021
-0.0008995
0.0003141
0.0005855
6.451e-05
0.0003412
-0.0004057
-0.001267
0.00108
0.0001875
0.0004146
0.001011
0.0006803
-0.0002646
-0.0004157
-0.0008131
0.001029
-0.0002158
0.00095
-0.0006477
-0.0003022
-0.0002379
0.001244
-0.001006
-0.001189
0.0009184
0.0002703
-0.00278
0.003749
-0.0009693
3.051e-05
-0.0002254
0.0001949
-0.0005396
-0.0008478
-0.02637
0.02722
0.0007812
-0.0006831
-9.811e-05
0.001739
0.0004201
-0.0004257
-0.0007661
0.001192
0.282
-0.3894
0.1073
0.0006631
0.0001488
-0.0004598
0.0008812
-0.0004214
-0.001456
0.001317
-0.005574
-0.004607
0.01018
0.0009054
-0.0009438
3.84e-05
-8.724e-05
0.0007258
-0.0006385
0.3844
0.134
-0.5184
-0.1145
-0.04862
-0.1733
0.2393
-0.06601
0.000472
-0.0005784
0.0001063
0.4174
-0.7871
-0.001675
0.00233
-0.0006546
0.0564
0.033
0.0004014
-0.0006089
7.63e-05
-0.0005929
0.0005166
0.1063
-0.1126
0.02415
-0.009413
-0.01473
-0.0001924
0.000958
-0.0007656
6.938e-06
-4.315e-08
-6.895e-06
0.0006344
-0.001109
0.0004743
0.8926
-0.6666
-0.226
0.000499
0.005542
-0.006041
0.0001625
0.0007069
-0.001189
0.0008359
0.000353
0.00641
-0.004843
-0.001567
-0.08394
-0.01877
8.365e-05
1.46e-05
-9.825e-05
0.01394
-0.0189
0.004962
2.625e-07
-0.0001827
0.0014
-0.001863
0.0004622
-0.001137
-0.002165
0.003302
0.2465
-0.2555
0.009036
0.006497
-0.00532
-0.001177
-3.438e-05
0.0001358
-0.0001014
0.0002651
0.0007259
-0.000991
-0.000776
0.0008617
-8.577e-05
-0.0001861
0.0004029
-0.0002169
0.004532
0.001965
-0.0004011
0.0003404
-0.02143
0.02058
0.01436
-0.07219
0.0001623
-0.0002835
0.0001212
-0.5084
0.03965
0.001874
4.643e-05
-0.00192
0.000228
-0.0002094
-0.001907
0.01584
-0.003554
0.002825
0.0007287
0.0002782
-0.0008988
0.0006205
-0.001778
0.001769
8.22e-06
0.1104
0.4881
-0.5985
0.0004463
-0.0009061
-0.0003278
-0.0002295
0.0005573
-0.001121
-2.651e-05
0.001147
0.001634
0.007731
0.0001242
0.0004982
-0.0006224
-0.001228
0.0007715
-0.0003171
-0.0006517
0.001231
-0.00106
-0.0001708
-0.001073
0.0002185
-0.000847
0.00255
-0.001703
-0.001026
0.0001936
0.0008326
0.0005195
-5.379e-05
0.0002418
-0.000221
-2.081e-05
0.0005577
-0.0005996
4.196e-05
-0.6691
0.8604
-0.00138
0.0003379
0.006053
-0.009442
0.003389
-0.003341
0.003166
-0.01164
0.0002581
0.01138
0.0005901
-0.0001735
-0.009013
-0.008078
0.01709
-1.286
1.449
-0.1629
-0.0007337
0.0007442
-1.053e-05
0.0001722
0.0001321
-0.0003043
0.002134
0.00822
-0.01035
0.002693
-0.002901
0.0002083
0.5738
-0.1894
0.0009004
-0.001786
0.0008856
0.0001396
-0.0006195
0.0004799
-0.05553
0.04566
-0.01805
-0.1827
0.704
-0.6548
-0.04928
0.0006743
-0.0007021
0.05405
-0.02354
-0.0003864
-0.0001495
0.0005359
0.04938
-0.05255
0.003174
6.521e-05
0.0004314
-0.008875
-0.132
0.1408
0.0007711
-0.000559
-0.0002121
0.05473
-0.2281
0.000287
0.0005259
-0.001139
0.001196
-5.687e-05
-0.001116
0.0006098
0.0005066
-0.001047
0.002389
-0.001342
0.0002872
-0.0005999
0.0003127
-0.01917
0.008581
0.01059
-0.0006037
0.0003214
0.0002823
0.0006407
0.0002471
-0.0008878
-0.0007603
7.918e-05
0.0006811
-0.0006678
0.0001485
0.0005193
0.00103
0.005136
-0.006166
-0.001987
0.001733
0.0004071
0.0007052
-0.001112
0.0009458
-0.003046
0.0021
0.0006868
-0.001115
0.0004277
-0.0006191
0.001026
0.3395
-0.9169
0.5773
0.1195
-0.003079
-0.1164
0.00192
-0.0008287
-0.001092
-0.0005394
0.0005717
-3.225e-05
-1.552
0.1241
1.428
-0.00146
0.0009086
0.000551
-0.003447
0.009392
-0.005945
0.004864
0.007412
-0.0006517
0.002918
0.02973
-0.01491
-0.01482
1.429
-0.2701
-1.159
0.0002007
-0.000611
0.0004103
-0.00813
0.004683
-0.0002336
0.0002033
3.025e-05
-0.0009474
0.0004736
0.0004738
0.000575
-0.0003597
-0.0002153
0.0006352
-5.337e-05
-0.0005818
0.0006475
-0.0001067
-0.0005408
-0.0005826
-0.0005058
-0.000842
9.23e-05
0.0007497
0.0005328
0.00216
0.001049
-0.0003464
-0.0007022
-0.1216
0.2567
-0.1351
-0.0003457
0.000586
-0.09817
0.08053
0.01764
0.0005452
-0.0004802
-6.497e-05
0.0005582
-0.001169
-0.0008657
0.0007874
7.831e-05
3.253e-05
-0.001095
0.001063
1.643e-07
7.398e-08
0.0008817
-0.0004412
-0.0004405
-0.001293
0.0009202
0.0003724
0.0264
-0.01506
-0.01134
0.001256
-0.00187
0.0006137
-0.2811
0.2307
0.05048
0.0003704
0.0002046
0.114
0.005484
-0.0003407
-1.987e-05
0.0003605
-0.001682
0.001301
-5.612e-06
5.612e-06
2.341e-06
-4.911e-06
2.57e-06
1.011e-05
-8.997e-06
-1.114e-06
1.201
-0.8207
-0.3802
0.0003773
0.0004038
-0.0002135
0.0009983
-0.0007849
-0.1427
-0.111
0.00122
-7.772e-05
-0.001143
-0.0003404
0.001038
-0.0006972
0.0005227
-0.0005647
4.206e-05
0.002815
-0.0002213
-0.002593
-2.947e-05
-0.001109
-0.0009375
-0.0001789
-0.0009226
-0.000537
-0.0005213
0.0004766
4.466e-05
-0.427
0.7665
0.0006969
-0.0002607
-0.0004361
-2.819e-05
2.686e-05
1.334e-06
0.0006933
-0.0007957
0.0001024
0.000703
-0.0001746
-0.0005284
-9.731e-05
7.341e-05
0.06237
-0.1772
0.002616
-0.0006171
-0.04039
0.0603
0.003128
-0.002182
0.04475
0.2416
-0.2863
-0.0006226
0.0001564
0.0004662
-0.0001407
-0.0002127
0.0003535
-0.0002049
0.0001915
1.342e-05
1.532
-0.9055
-0.6264
0.001554
0.0003666
0.009333
0.002912
-0.01224
-4.85e-05
6.333e-05
-1.484e-05
-0.0007687
-3.331e-05
0.0008021
0.000513
-2.248e-05
-0.0004906
-0.004291
0.0008496
0.003441
-0.1023
0.09824
0.004068
-4.967e-05
0.0002476
-0.0001979
0.001008
0.0007826
-0.001791
-0.8102
-0.7415
0.002335
-0.004471
0.0006571
0.003814
-0.0005556
0.0002742
0.000306
0.0005994
-1.111e-05
-0.0005283
-0.0003982
6.707e-05
0.0003311
0.001645
-0.0002444
-0.002812
0.002887
-7.529e-05
0.0009843
7.365e-06
-0.0009917
-0.0002738
0.000598
-0.0003241
-0.0001838
-0.0005499
0.1161
0.05313
-0.1692
-0.0002258
0.000158
6.782e-05
-8.81e-05
0.0005835
-0.0004954
0.0009035
-0.001031
0.0001275
0.0008434
-0.001804
0.000961
-0.0002531
0.0004288
-0.0001757
-0.7899
0.113
0.6769
-0.7881
0.6287
0.1594
0.001057
-0.01039
0.0006353
4.502e-05
-0.0006966
-0.0007134
0.00141
0.1359
-0.2049
0.06897
1.475
-0.6518
-0.8231
-0.001593
0.002595
-0.001003
0.0003758
-0.000568
0.0001922
0.00104
-0.0004397
-0.0006005
-0.0008101
-3.192e-05
-0.0002588
-2.925e-05
0.000288
0.0003442
-0.0003159
-2.831e-05
-0.002913
0.002801
0.0001123
-0.1398
0.0972
0.04259
1.414
-1.29
-0.1239
0.0002143
-0.0001028
-0.0001116
0.0003073
0.0005759
-0.0008832
0.0005058
-0.0016
0.001094
0.3075
0.5194
-0.8269
-0.000164
-0.0004287
0.0019
-0.002213
0.000313
0.0005605
-0.0005448
-1.573e-05
0.4694
-0.0008493
0.001024
-0.0001751
-0.02644
0.1624
-0.0003657
0.0006439
0.0004289
-4.543e-05
-0.0003835
0.003716
-0.004616
0.0009005
0.9761
0.1608
-1.137
7.045e-05
0.0002786
-0.000349
-0.001864
-0.0006932
-0.0005069
0.0001966
0.3947
1.035
0.0003779
-0.001349
6.655e-05
2.912e-05
0.4004
0.3036
-0.001345
-0.002209
-0.1631
0.006461
0.1566
-0.0003057
-0.0003953
0.0007011
0.001449
-0.0004242
-0.001025
-0.2773
0.1881
-0.0006332
0.0005712
6.197e-05
0.0003348
0.0006898
-0.001025
7.652e-05
-2.973e-05
-4.68e-05
0.0004179
0.0003207
-0.0007386
0.002003
-0.001118
-0.0008852
-0.0002987
-0.0008899
-0.000353
-0.0008359
0.0006472
0.000229
-0.0008762
0.0006747
-0.0007216
0.0004201
-0.0007358
0.0005541
-0.0008966
0.0003425
-0.0002366
0.0002445
-7.848e-06
-0.001526
0.001167
0.0003587
0.0006919
-0.0004943
-0.0001976
-0.5997
0.9072
0.001205
-0.0007931
-0.0004122
0.1071
-0.1918
0.08476
-0.0005376
-0.0007298
-0.1214
0.03277
0.08861
-0.0002767
0.001669
-0.3452
-0.9405
-0.1509
0.07432
-0.001836
-0.00421
0.006046
-0.0004929
-0.0005333
0.0007236
0.0005049
-0.001229
-1.044
0.1263
0.9177
1.123
-0.9128
-0.2099
-0.0002263
7.636e-05
0.0003194
0.0002747
-0.000594
0.000295
-0.0006269
-0.0009048
0.0003613
0.0005435
-0.00159
0.0006708
0.0009194
0.0003456
-0.0007321
0.0009706
-0.001386
0.0004152
-0.000838
0.0005103
0.0006873
-0.0003461
0.0001618
-0.0004471
0.0002853
0.0003566
0.0001129
-0.0004695
-1.167
0.1233
-0.0002099
-0.0006321
0.000842
-4.811e-05
0.0005906
-0.0005425
9.881e-05
-0.004522
0.004423
0.0067
-0.0032
-0.003501
0.1842
-0.2395
0.05535
1.032
0.4429
0.001252
-0.001993
-2.592e-05
-0.0004448
0.0004387
0.0006099
-0.0001275
7.062e-05
5.69e-05
-0.07333
-0.04805
-0.9817
-0.4045
1.386
0.0002996
0.0002184
-0.000518
0.0008552
-9.823e-06
-0.0008454
-0.04858
-0.00592
-0.000216
-0.0002839
0.0004999
0.01364
-0.002403
-0.01124
-0.02991
0.07801
-0.0481
0.0007221
-0.0002907
-0.0004313
0.002203
-0.002715
0.0005117
0.0006254
-0.0006735
0.005164
-0.009579
0.004415
-5.654e-06
5.654e-06
0.0001412
-2.976e-05
-7.969e-05
-0.0005881
-0.0004326
-0.0001711
0.0004385
0.0004072
-0.000541
-0.0002577
0.0007986
-0.0007994
-4.99e-05
0.000409
-0.0007435
0.0003345
0.055
0.004485
-0.05948
-0.001149
0.0003864
0.0007622
-0.0001049
6.767e-05
3.726e-05
0.0004687
0.001405
0.7556
-1.085
0.3294
0.001323
-0.0002148
-0.005005
0.004278
0.0007266
0.002469
-0.00405
0.001581
1.081
0.4513
-0.02577
0.7813
8.017e-06
5.229e-06
-1.325e-05
0.02084
0.005558
0.0004964
-0.0009209
0.0004245
-0.0004492
0.0004552
-6.014e-06
-0.0004528
0.000802
-0.0003492
-0.00347
-0.001107
0.002371
0.003024
-0.005395
0.0004995
-0.0002594
0.004471
-0.007017
0.002546
0.00122
-0.001031
-0.0001894
-0.1563
-0.1968
0.353
1.067
-0.04448
-1.023
-0.002078
-9.5e-05
0.002173
-0.002139
0.008191
-0.0001408
0.0006128
-0.0009708
0.00344
0.0006636
-0.0007501
8.647e-05
-0.001765
0.0006237
0.001141
0.0003795
0.0002419
-0.0006214
-0.01589
0.0154
0.003109
-0.008683
-1.117
-0.3847
1.502
-0.0001901
0.0003728
-0.0001826
0.02302
0.006714
-0.00143
0.001046
0.0003836
1.914e-06
-0.002045
0.0005872
0.001458
-0.00201
0.00131
-0.000353
0.0009875
1.253
-0.277
-0.0014
0.001597
-0.0001965
-0.0003474
-0.0005943
0.0009416
0.0001415
-0.0001505
8.999e-06
0.000288
0.004064
-0.004352
-0.001439
-0.0007567
0.002195
0.0004517
0.0002355
-0.0001171
0.000321
0.0005815
0.0006493
0.0001646
-0.0005879
0.0004233
-0.001371
-0.0008012
0.002172
0.00069
-0.0008951
0.001084
-0.00188
0.0007958
-0.002688
0.0001806
-6.234e-05
0.001229
0.00313
-0.005633
0.002503
-6.71e-06
6.71e-06
-0.001181
-0.003823
-0.06295
0.02348
0.0001632
-0.001359
0.001196
0.0002013
0.0003789
-0.0005802
2.785e-06
0.0009918
-0.0009946
0.1077
0.3765
-0.4842
0.0002
-5.128e-05
-0.0001487
0.0005656
-0.003345
0.0009032
0.000137
-1.506
0.5244
-4.111e-05
-8.642e-05
0.0006768
-0.0001191
0.0008391
-0.00101
0.0001708
-0.3855
-0.6309
1.016
-6.407e-05
0.0004731
-0.0002398
0.0002801
-4.029e-05
-0.00021
0.000688
-0.000478
-0.0001851
0.000779
-0.0005939
-1.189
0.8038
0.0009662
-0.0005921
-0.0003741
-7.171e-05
2.426e-05
4.744e-05
-0.0004006
0.0006531
-0.0002525
0.001826
-0.001743
-8.288e-05
-0.1545
0.0631
0.09143
-0.0007376
-0.0001619
-0.0003027
6.406e-05
0.0002386
-0.1611
0.17
-0.008875
0.002448
0.0004643
-0.002912
-0.003562
0.003526
3.616e-05
-0.0006719
0.0001309
0.0005969
0.0002847
-0.002466
0.003771
-0.00232
0.0002749
-5.669e-05
-0.0007449
0.0008016
0.0001762
-0.0004199
0.2827
0.5893
-0.872
0.0007169
0.0002493
0.001063
-0.001659
0.0005952
0.0002999
-0.0003069
7.083e-06
-0.0002084
-0.0009123
-0.01114
0.008786
0.002357
0.001427
-0.0002065
-7.873e-05
-0.0003195
1.032
-0.7491
-5.941e-05
0.0005821
0.0003306
0.0003915
-0.0004708
-0.0002295
0.0007003
4.168e-06
-4.704e-06
0.0002839
-0.0007548
-8.658e-05
-0.0001183
-0.001014
-0.0002163
0.00123
-0.0005297
0.000306
0.0002238
-0.004304
0.001106
0.003199
0.1739
1.027
-4.118e-06
4.118e-06
-0.0002411
-0.0003526
0.0005937
-0.0003338
0.0007517
-0.0002009
0.0001807
2.028e-05
0.0002082
-0.0004888
0.0002806
-4.385e-05
0.0002791
-0.0002353
0.0005494
-9.476e-05
-0.0004546
-0.0005987
0.0005173
0.5639
0.8496
-0.001064
-0.002034
0.003098
-0.003492
0.000959
0.002533
-1.494
0.3763
0.0003337
-0.0005878
0.0002541
7.768e-05
0.0004675
0.001786
-0.0006711
0.0009661
0.0003429
-0.001309
0.1396
-1.026
0.8866
-0.0002
0.001171
-0.0003139
0.000101
0.0002129
-0.2778
-0.7218
0.8614
0.00411
0.00259
0.002122
-0.002536
0.0004141
-0.000651
-0.0009391
0.0002932
1.131e-05
-0.0003045
0.0009473
-0.0008003
-0.000147
7.347e-05
-4.059e-06
-6.941e-05
-0.003245
0.0007745
0.002471
-0.004127
0.005982
-0.001855
-0.8112
-0.2737
0.00082
-0.0002244
-0.0005955
0.0005625
-0.0002648
-0.0002977
0.0005386
-0.0004365
-0.0001021
0.0002015
-0.0004129
0.002336
-0.00198
1.069
0.08822
-1.158
0.2732
-0.2108
0.06469
-0.113
0.04827
0.0005014
-0.0001056
-0.0003958
0.04608
-0.8573
0.02295
-0.01448
-0.008466
-0.0002334
0.0005245
-0.0002912
-0.0006928
-0.0008576
0.00155
0.0004162
0.0002475
-0.0006637
-0.2183
0.8331
-0.6148
0.0005104
-0.0002701
-0.0002403
-0.0003054
0.001786
-0.00148
-0.2407
-0.01316
0.2539
0.0004438
0.0005062
0.6956
0.477
-1.173
-0.0005107
-0.0003101
0.0008208
-0.000107
-7.374e-05
0.0001808
-0.0008238
0.0004061
0.0004177
-0.00044
-0.001311
0.001751
8.02e-05
7.314e-05
-0.0001533
0.1847
-0.05536
-0.1293
-0.0003466
-0.0003236
0.0006702
-0.009026
0.009604
-0.0005777
-0.0005009
-0.0001217
8.442e-05
-8.473e-05
3.101e-07
-0.0004728
-0.0005849
0.001058
0.0002232
9.239e-05
-0.0003156
-0.006734
-0.004409
0.004944
-0.00538
0.0004356
0.002032
-0.0003444
-0.001687
0.000611
-0.000611
-0.3393
0.1943
0.145
-0.003595
0.005357
-0.001762
0.001143
-0.0007021
-0.0004411
-0.0005025
0.0009039
-0.0004014
-8.317e-05
-2.176e-05
0.0008713
-0.0007905
-8.082e-05
-0.1207
1.19
0.03249
-0.01823
-0.01426
0.000146
6.838e-05
-0.0007209
4.102e-05
0.0006799
0.0003975
-0.0004761
7.864e-05
-0.0007881
0.001735
-0.0009466
0.0001094
-0.0001094
-0.0008413
0.0008787
-3.734e-05
-0.0004407
0.0004407
0.001155
-0.0004062
-0.0007489
-0.0001241
-8.748e-05
0.0002116
-0.002957
0.001893
0.0002685
-0.0001678
-0.0001008
0.09513
-0.06975
-0.02538
0.001629
-0.001226
-0.0004026
1.095
-1.519
0.4242
1.315
-1.737
0.4217
0.000271
0.001488
-0.001759
-0.04058
0.08814
-0.04757
-0.0006517
1.076e-05
0.000641
0.008244
-0.002302
-0.005942
-0.0007203
0.0004367
-0.006149
0.006807
-0.0006582
0.03965
-0.08923
0.04958
-0.0005687
7.558e-05
0.0004932
0.0006478
0.0009609
-0.001609
0.2519
-0.005359
-0.006738
0.005984
0.0007539
-0.0003676
0.0006258
-0.0002582
0.08298
-0.04333
-0.0007037
0.0003787
0.0003249
-0.0001946
0.0001946
0.0007601
-0.0003616
-0.0003985
0.000812
-0.002613
0.001801
0.0004432
-0.00011
-0.0003332
0.001968
-0.002457
0.0004895
0.000314
-0.0002975
-1.645e-05
-0.3378
0.1261
0.2117
-0.001105
0.0002389
-0.0006612
-0.0007685
-0.05294
0.335
-0.0006173
0.0004556
-0.0008567
7.225e-05
0.0007844
-0.001094
0.002358
-0.001264
-0.4813
-0.5541
1.035
0.216
0.0002009
-0.2162
0.007232
-0.004145
-0.003087
2.482e-05
1.841e-05
-4.323e-05
0.0001689
-0.002323
0.002154
0.0001931
-0.0001931
-0.001527
0.000763
0.000764
0.0008554
-0.0002246
-0.0006307
-0.001868
0.001713
0.000155
-4.598e-05
-3.239e-05
7.837e-05
-0.0007992
-0.0002481
0.001047
-0.4102
1.371
-0.9607
-0.0003742
0.0005524
-0.0001783
0.004997
-0.001246
-0.003751
-0.2998
1.337
-1.037
-0.000651
-0.0009417
0.001593
-2.246e-05
1.281e-05
9.656e-06
0.001025
0.003857
-0.004882
-0.0009317
0.0003449
0.0005868
0.004707
-0.002723
-0.001984
0.001114
0.002646
-0.00376
1.782e-05
3.98e-05
-5.761e-05
0.0002999
-0.0002999
0.0006671
0.0003291
-0.0009962
-0.08513
-0.05466
-0.4578
0.2218
0.236
0.002588
-0.0009937
-0.001594
-0.001644
0.001269
0.0003744
0.0001513
0.0002602
-0.0004115
-0.0008622
0.0004555
0.0004067
-0.0005045
0.0001296
0.0003749
0.0007327
-0.000303
-0.0004298
-0.002486
0.002096
0.0003904
-0.009676
0.01534
-0.005665
0.000328
0.0004048
-0.02829
-0.01084
0.03914
-0.0006495
-5.731e-05
0.0007068
0.1442
-0.5859
0.4417
0.0004113
0.0005036
-0.0009149
-5.038e-05
3.774e-05
1.264e-05
-0.001677
0.00224
-0.000563
0.0008268
-0.0006676
-0.0001592
-0.001144
0.0005416
0.000602
-0.3791
0.09557
0.2835
-0.1839
0.05566
0.1282
-0.0001309
0.0002329
-0.000102
0.007417
-0.008777
0.00136
0.000191
-0.0003628
0.0001719
0.0005306
-0.0009334
0.0004028
-0.0001482
0.0002711
-0.0001229
0.000879
-0.0008783
-6.861e-07
0.0009412
-0.0001696
-0.0007716
-0.001475
0.001153
0.0003222
0.0001122
-0.000711
0.0005988
0.0006982
-0.0006982
-5.683e-05
0.0007046
-0.0006477
-5.16e-05
0.0004194
-0.0003678
0.0006983
-0.0005561
-0.0001422
-0.002165
0.003277
-0.001112
0.0006546
-0.001306
0.0006513
-7.018e-05
0.0003725
-0.0003644
0.0003868
-2.235e-05
3.234e-05
-2.337e-05
-8.967e-06
-4.15e-05
2.531e-05
1.619e-05
-0.001376
0.0006278
0.000748
-0.3208
0.4285
0.5988
0.2235
-0.8223
-0.000743
0.001046
-0.0003029
0.0001348
0.000395
-0.0005298
0.004243
-0.0007054
-0.003537
-0.1885
1.18
-0.991
0.0003305
0.0007386
-0.001069
-0.001247
-0.0001384
-0.002167
-0.004337
0.006504
0.0001725
0.0001037
-0.0002762
0.002348
-0.002049
-0.0002988
-8.049e-05
0.0003886
-0.0003081
0.001856
-0.0025
0.0006437
0.7867
-0.6763
-0.007807
0.002794
0.005013
0.009596
0.0001821
-0.009779
0.0005224
-4.903e-05
-0.0004734
0.0001107
0.0001959
-0.0003066
-0.0003165
0.0002256
9.088e-05
-0.004804
0.001664
0.00314
0.002028
-0.00511
0.003082
0.0003017
-0.0007089
0.0004071
-0.0007163
0.001113
-0.0003968
-0.001547
-0.00109
0.002637
0.002168
-0.0008121
-0.001356
-0.0008402
-0.0001802
0.00102
0.001619
-0.001338
-0.0002805
0.0005645
-0.0004713
-9.315e-05
0.000621
-0.0004733
-0.0001477
0.246
-0.3082
0.06225
-0.0004423
0.0003092
0.0001331
-1.276e-05
-5.042e-05
6.318e-05
0.001471
-0.0004078
-4.299e-05
0.0009594
-0.0009164
-0.0003595
7.231e-05
0.0182
-0.116
0.09777
-0.0005491
0.0005491
-0.0007249
0.0007249
-0.1627
-1.047
1.21
1.262
0.2321
-1.494
-0.001095
0.0005949
0.0005
0.0003095
-0.00166
0.001351
-1.732e-05
2.237e-05
-5.056e-06
-4.712e-05
0.0001076
-6.047e-05
-0.0001727
0.001802
-0.0005986
0.0007963
-0.0001977
0.0003749
4.321e-05
-0.0004181
-0.0007911
-0.003993
0.004784
0.003254
0.004301
-0.007555
-0.1881
0.05544
0.1327
0.0004602
-0.000285
-0.0001752
-0.0006535
-0.001119
0.001773
-0.0002315
0.0005111
-0.0002796
-0.004318
0.0009374
0.003381
-3.245e-05
5.234e-05
-1.988e-05
0.0005031
-0.0006711
0.000168
0.8053
-1.128
0.3226
-0.0008059
0.0008059
0.0003589
-0.0002329
-0.000126
0.1704
0.5645
-0.7349
0.0006923
-4.483e-05
-1.276
1.113
0.2372
-0.4251
0.188
-0.002523
0.001762
0.0007617
-0.01015
-0.002614
0.01276
0.0005331
-0.0002476
-0.0002855
0.7834
-0.954
0.1707
0.001031
-0.0004968
-0.0005338
0.4799
-0.1401
-0.3398
0.0003164
-0.0007289
0.0004125
-0.0157
0.004608
0.01109
0.007036
-0.00666
-0.0003763
0.00481
-0.002493
-0.002317
-0.0002365
-0.0008494
0.001086
-0.0007701
-0.0003589
0.001129
0.0003717
0.0001396
-0.0005112
0.001378
0.0002985
-0.001677
0.1436
0.6346
-0.7782
0.004642
0.06407
-0.06872
-0.002415
0.001208
0.001207
-0.0001626
-0.0008897
0.001052
0.0001074
-0.0003452
0.0002378
0.0004915
-0.0002969
-0.0001945
0.0002165
-0.0001188
-9.77e-05
-0.0003034
-9.113e-05
0.0003945
-0.0003471
0.0003471
-0.0004673
0.000788
0.001447
-0.001033
-0.0004141
-0.0003561
0.0009644
-0.0006083
-0.001008
0.0006227
0.0003855
0.0003805
0.0002382
-0.0006187
0.00391
-0.005686
0.001776
0.006503
-0.002526
-0.003977
0.4585
-0.3441
-0.1143
-0.000792
0.0008725
-8.047e-05
-0.0001129
0.0001814
-6.85e-05
-0.0007894
-7.301e-06
0.0007967
0.4924
-1.088
0.5951
-0.000762
0.0002785
0.0004836
0.002055
-0.001058
-0.0009968
-0.00181
0.0004713
0.001339
0.001529
-0.000684
-0.0008452
-0.0001513
0.000736
-0.0005847
0.001107
0.005616
-0.006723
0.0006688
-0.0007842
0.0001154
-0.0007126
-0.001397
0.00211
-0.0008866
-0.0009234
-8.644e-05
-0.0001496
0.0002361
-0.0007714
-0.0001314
0.0009028
7.266e-05
1.176e-05
-1.18
0.5432
0.6371
0.001674
-0.003214
0.00154
-0.0007255
0.0002845
0.000441
0.1349
0.05149
-0.1864
-0.0007211
0.0002097
0.0005114
0.0005516
0.0001579
-0.0007095
-1.249
1.249
0.001397
0.002244
-0.003641
-9.689e-05
0.0001626
-6.569e-05
0.06321
-0.05148
-0.01173
0.006
-0.00209
-0.002888
0.002876
1.198e-05
0.0004757
0.0001129
-0.0005886
0.01153
-0.008612
-0.002915
-1.268
0.5233
0.7449
0.000517
-0.0008439
0.000327
-0.0002103
0.0005315
-0.0003212
0.4112
-0.2577
-0.1535
-0.007677
0.004404
0.003274
5.52e-05
-0.0287
0.02865
-0.0009763
-0.0004436
0.00142
-0.0004797
-0.0001917
0.0006714
-0.00133
-0.0006834
0.002013
-0.04735
-0.05033
0.09768
-1.222e-05
-5.325e-05
6.546e-05
-1.276e-06
-4.445e-05
4.573e-05
0.0002715
0.0009338
0.0003849
-0.001416
0.001032
-0.001074
0.00175
-0.0006762
0.0001588
0.0001097
-0.3903
1.236
-0.8458
0.0002348
-0.001088
0.0008534
0.3548
-0.01233
-0.3425
0.0005302
-0.0007461
0.0002158
-0.001198
0.001194
3.799e-06
0.0004146
0.0005061
-0.0009207
0.0004304
0.001099
-5.434e-05
2.92e-05
2.514e-05
0.0004547
-0.0005107
5.605e-05
-0.5578
0.2194
0.3385
8.141e-05
-8.141e-05
-0.0004715
0.0003371
0.0001345
0.000121
-0.0005646
0.0004436
-0.001284
-0.0001665
0.001451
-0.0003189
0.0004065
-0.001162
-0.001109
0.002271
0.006577
-0.006305
-0.000272
-0.0005246
0.0004219
0.0001027
0.001716
-0.001183
-0.0005326
-0.01033
0.02384
-0.0135
0.0001067
-0.0001067
-0.0003556
0.0004409
-8.532e-05
-0.0008385
0.0003615
0.000477
0.0006228
0.000242
-0.0008648
0.00142
-0.001172
-0.0002475
0.000303
0.0005231