/*--------------------------------*- C++ -*----------------------------------*\
| =========                 |                                                 |
| \\      /  F ield         | OpenFOAM: The Open Source CFD Toolbox           |
|  \\    /   O peration     | Version:  v2012                                 |
|   \\  /    A nd           | Website:  www.openfoam.com                      |
|    \\/     M anipulation  |                                                 |
\*---------------------------------------------------------------------------*/
FoamFile
{
    version     2.0;
    format      ascii;
    class       volVectorField;
    location    "5";
    object      U;
}
// * * * * * * * * * * * * * * * * * * * * * * * * * * * * * * * * * * * * * //

dimensions      [0 1 -1 0 0 0 0];


internalField   nonuniform List<vector> 
127143
(
(0.1213 -0.005117 0)
(-0.006404 -0.03028 -2.455e-22)
(0.0007684 0.003509 3.6e-22)
(0.00132 0.006129 3.868e-25)
(0.5282 0.1752 1.984e-23)
(0.001322 0.005945 -8.954e-25)
(0.5226 0.3191 0)
(0.5102 0.2383 2.671e-22)
(0.4586 0.2088 -1.409e-21)
(0.527 0.02461 0)
(0.275 0.4125 -7.646e-21)
(0.4691 0.2917 -2.327e-21)
(0.04541 -0.01698 -5.095e-23)
(0.00155 0.006239 0)
(0.3459 -0.3793 1.683e-21)
(0.6138 -0.04346 0)
(-0.01448 -0.06401 -4.427e-22)
(0.6002 -0.06272 3.005e-21)
(0.4427 -0.1313 0)
(0.827 0.1869 0)
(0.5676 -0.134 7.735e-22)
(0.2345 -0.08402 0)
(0.941 -0.1886 0)
(0.7468 -0.06985 0)
(0.2342 -0.08433 -1.758e-22)
(0.8363 -0.1313 0)
(0.9024 -0.002938 2.192e-21)
(0.9065 0.01212 -3.508e-23)
(0.8329 -0.386 0)
(0.66 -0.05157 -5.052e-21)
(0.722 -0.04689 0)
(0.8272 -0.1377 1.231e-21)
(1.03 0.2615 1.67e-22)
(0.532 -0.1277 -1.964e-21)
(0.8423 -0.1217 1.665e-21)
(1.037 0.2599 2.415e-24)
(0.3394 -0.113 4.261e-22)
(0.7568 -0.1106 -3.11e-22)
(0.7514 -0.0705 -5.907e-24)
(0.7695 0.009023 4.032e-25)
(0.4427 -0.1303 0)
(0.9293 0.2489 2.411e-22)
(0.9164 0.2396 -2.421e-22)
(0.09006 -0.02769 0)
(0.6042 -0.05743 -3.079e-21)
(0.5329 -0.1279 6.01e-22)
(0.8405 -0.381 0)
(0.3665 -0.1175 -8.822e-23)
(0.8708 -0.1511 -1.268e-22)
(0.7356 -0.06213 -1.12e-23)
(0.6423 -0.0449 -8.558e-23)
(0.9293 -0.07371 3.541e-21)
(0.7453 -0.07212 0)
(0.9519 0.01191 -3.462e-22)
(1.008 -0.003881 -2.082e-20)
(0.911 -0.2315 3.958e-22)
(1.006 -0.004402 2.074e-20)
(0.8927 -0.08829 0)
(0.9939 -0.01364 -3.78e-21)
(0.9533 0.01518 -6.527e-22)
(0.6321 -0.2146 -4.022e-21)
(0.46 -0.1283 -1.419e-22)
(0.7591 -0.06103 7.413e-23)
(1.003 0.00206 -6.397e-20)
(0.8171 -0.07583 0)
(0.9026 -0.266 -9.275e-22)
(0.9636 0.06867 5.317e-22)
(0.7549 -0.06274 0)
(0.7559 -0.06274 1.963e-23)
(0.9913 0.0008538 0)
(0.7304 -0.06164 0)
(0.916 0.0005341 -8.677e-22)
(0.4235 -0.07153 -9.09e-22)
(0.9962 -0.01221 -2.055e-21)
(1.009 0.01148 -5.396e-22)
(0.9248 0.008259 9.79e-22)
(0.9852 0.05883 1.391e-21)
(0.3803 -0.119 0)
(0.9116 -0.2316 -7.807e-22)
(1.001 0.001809 0)
(0.839 -0.3758 -4.606e-23)
(0.8306 0.172 3.49e-23)
(0.5441 -0.1292 5.712e-22)
(0.7212 -0.04047 0)
(0.3492 -0.104 2.647e-22)
(0.3794 -0.1187 0)
(0.766 -0.07762 9.363e-24)
(0.9841 0.0777 5.41e-22)
(0.9014 -0.265 0)
(0.9646 0.4837 0)
(0.9986 -0.04219 0)
(0.7845 -0.1059 0)
(0.9513 0.4666 0)
(0.5686 -0.134 -8.015e-22)
(0.6042 -0.1219 0)
(0.8399 -0.007129 2.765e-21)
(0.9301 0.244 -4.037e-22)
(0.7122 -0.05654 0)
(0.4337 -0.1259 2.384e-22)
(0.9625 0.07091 0)
(1.001 0.001773 0)
(0.8716 -0.1515 0)
(0.7677 0.6531 1.767e-22)
(0.8469 -0.1049 0)
(0.3806 -0.1189 -1.143e-22)
(0.4319 -0.1257 3.372e-22)
(0.855 -0.1344 3.135e-22)
(0.991 0.0008349 0)
(0.8122 -0.3429 0)
(1.016 -0.001628 5.661e-20)
(0.3532 -0.3791 -4.974e-22)
(0.9754 0.08403 9.784e-22)
(0.5865 -0.1297 -7.281e-22)
(0.3214 0.1074 0)
(0.9839 0.02016 6.546e-21)
(0.8996 -0.1578 4.42e-23)
(0.9561 0.05566 -1.247e-21)
(1.009 0.01178 1.821e-20)
(0.9864 0.05844 -1.043e-21)
(-0.000479 0.01037 0)
(1.016 -0.001913 -8.163e-20)
(0.5263 -0.1314 -1.336e-22)
(0.8863 -0.3186 0)
(0.9287 -0.1068 -1.417e-22)
(0.8369 -0.3808 4.914e-22)
(0.781 -0.1025 2.14e-21)
(0.4662 -0.128 0)
(1.014 0.02063 3.913e-21)
(0.829 -0.0612 -7.856e-23)
(0.9115 -0.2604 -6.324e-22)
(0.434 -0.1267 0)
(0.5667 -0.1295 -3.616e-22)
(0.7831 -0.07434 -3.204e-23)
(0.3806 -0.1188 0)
(-0.02073 -0.0794 -1.152e-21)
(0.435 -0.1268 -1.516e-22)
(0.8919 -0.06787 0)
(0.5924 -0.1333 2.092e-22)
(0.7809 -0.4326 -3.057e-21)
(0.9421 -0.03714 4.385e-22)
(0.9287 -0.2103 2.007e-21)
(0.9565 0.04441 4.402e-21)
(0.7138 -0.08969 2.303e-23)
(0.6622 -0.127 -5.401e-22)
(0.7455 -0.07144 -3.486e-23)
(1.022 0.2495 2.865e-23)
(0.03641 -0.06464 2.034e-21)
(1.003 0.001735 5.389e-20)
(0.5659 -0.1294 3.161e-22)
(0.8364 0.6557 1.132e-22)
(0.8268 -0.09481 3.87e-23)
(0.892 -0.1733 0)
(0.7802 -0.1039 1.2e-21)
(0.8404 -0.1943 0)
(0.5635 -0.4198 0)
(0.3505 -0.1047 0)
(0.8924 -0.08783 -1.349e-23)
(0.8911 -0.3084 0)
(0.3671 -0.1176 -1.653e-22)
(0.719 -0.06075 2.877e-23)
(0.7233 -0.05056 0)
(0.6005 -0.296 1.668e-20)
(0.9988 -0.04181 1.019e-22)
(0.4333 -0.1266 -4.032e-22)
(0.9061 -0.2398 0)
(0.8177 -0.07526 4.131e-22)
(0.3434 -0.1133 -2.283e-22)
(0.7881 -0.3178 1.074e-21)
(1.066 0.2152 -1.371e-22)
(0.8973 0.03734 -1.982e-22)
(0.2829 -0.09991 0)
(0.6609 -0.127 2.519e-22)
(0.9027 -0.1656 2.345e-22)
(0.9179 -0.2609 -9.174e-22)
(0.9596 0.0001444 4.765e-20)
(0.3038 -0.09721 7.251e-24)
(0.9988 0.3002 4.386e-24)
(0.8279 -0.0614 -7.993e-23)
(0.7621 -0.07823 0)
(0.9042 -0.03692 2e-21)
(0.9178 -0.2615 -3.157e-22)
(0.9822 -0.04118 0)
(0.3038 -0.07412 1.187e-22)
(0.3039 -0.09661 -7.436e-24)
(0.9118 -0.2622 1.208e-21)
(0.4626 -0.1288 2.527e-22)
(0.9098 0.1488 1.544e-22)
(0.3354 0.1228 -6.773e-22)
(0.7484 -0.07008 -1.352e-23)
(0.9376 -0.03957 5.021e-21)
(0.7164 -0.08146 3.267e-23)
(0.738 -0.09316 -2.178e-22)
(0.8982 -0.06552 3.99e-21)
(0.3191 0.394 -6.621e-22)
(-0.01445 -0.0901 2.437e-21)
(0.5198 -0.1317 0)
(1.002 3.741e-05 0)
(1.001 -1.665e-05 -5.195e-22)
(0.8334 0.2156 0)
(0.97 0.02623 1.221e-21)
(1.018 0.03042 -8.63e-22)
(0.8847 -0.01063 6.412e-21)
(0.7665 -0.04212 -4.644e-21)
(0.3408 -0.1133 -2.047e-22)
(0.002754 0.004917 5.999e-23)
(0.7475 -0.05293 8.937e-23)
(0.9615 -0.1523 9.15e-22)
(0.8886 -0.1585 -7.196e-23)
(0.6653 -0.05535 7.112e-21)
(0.9842 0.01946 -3.516e-21)
(0.7924 -0.106 8.553e-22)
(0.3339 -0.1034 1.777e-22)
(0.9873 -0.02645 3.485e-21)
(1.067 0.218 -1.411e-22)
(0.4344 -0.1272 -6.706e-25)
(0.8636 0.07059 0)
(0.2848 -0.1019 -1.941e-22)
(0.9017 -0.1767 5.128e-22)
(0.5408 -0.1339 -4.938e-22)
(0.9626 -0.151 2.025e-22)
(0.9961 0.2977 9.975e-24)
(0.9999 0.01294 -3.69e-20)
(0.8915 -0.1729 -1.39e-22)
(0.7607 -0.06542 3.284e-23)
(0.7128 -0.05955 0)
(0.2889 -0.1033 0)
(0.9096 -0.2404 -7.845e-22)
(0.762 -0.109 3.3e-22)
(0.3022 -0.1069 1.965e-22)
(0.4394 -0.1258 3.95e-22)
(0.5713 -0.1335 4.931e-22)
(0.9846 -0.04384 -1.912e-22)
(0.4263 -0.07462 1.852e-21)
(0.03417 -0.06659 0)
(0.5714 -0.1334 0)
(0.9635 -0.1121 -3.518e-22)
(0.4335 -0.1267 1.897e-22)
(0.2294 -0.01784 3.301e-22)
(1.019 0.02993 7.738e-22)
(0.707 -0.07755 1.887e-22)
(0.7374 -0.09247 2.019e-22)
(0.8628 -0.05777 -5.908e-22)
(0.3261 -0.1128 -6.406e-23)
(0.8917 -0.3084 -2.226e-25)
(0.7878 -0.05078 0)
(-0.001089 0.01019 1.138e-25)
(0.8967 -0.1777 5.854e-22)
(0.9006 -0.01372 0)
(0.2201 -0.07346 4.464e-21)
(0.9882 0.001866 -1.768e-20)
(1.009 0.1802 -1.422e-22)
(0.7538 -0.08113 -1.718e-22)
(0.9179 -0.213 0)
(0.6211 -0.13 0)
(0.9134 -0.2218 5.706e-22)
(0.8236 -0.3391 0)
(1.015 0.01994 -3.592e-21)
(1.064 0.2769 0)
(0.9227 -0.2338 0)
(0.8217 0.1033 5.836e-22)
(0.5474 -0.1329 -4.04e-22)
(0.9902 -0.07038 -1.011e-21)
(0.7912 -0.1037 2.825e-23)
(0.9557 0.04323 -3.742e-21)
(0.8266 -0.04276 0)
(0.8427 -0.06649 -1.987e-22)
(0.382 -0.1195 5.176e-22)
(0.5458 -0.4324 0)
(0.6974 -0.3058 2.623e-21)
(0.8857 -0.00689 -1.778e-22)
(0.8777 -0.1666 0)
(0.9584 -0.0003224 -5.47e-20)
(0.3709 -0.1193 -1.496e-22)
(0.7059 -0.07808 -2.019e-22)
(0.7736 -0.05983 1.123e-22)
(0.7168 -0.08066 -1.574e-22)
(0.5868 -0.1298 0)
(0.8517 -0.1334 -5.225e-22)
(0.9353 -0.00274 3.312e-21)
(0.9149 -0.2684 5.006e-22)
(0.9782 -0.003057 -9.531e-21)
(0.8219 -0.00345 1.227e-22)
(0.8489 -0.1051 1.92e-25)
(0.9855 0.001456 0)
(0.9984 0.02709 -4.359e-21)
(-0.03676 -0.09426 -3.287e-22)
(0.4811 -0.1322 0)
(0.9837 0.02222 3.219e-21)
(0.8238 -0.1145 -2.816e-22)
(0.8985 -0.03848 4.643e-21)
(0.7833 -0.1037 -1.467e-21)
(0.9334 -0.2041 0)
(0.9643 -0.1137 3.476e-22)
(0.9108 -0.1818 0)
(0.9952 -0.03743 -2.59e-21)
(0.8118 -0.355 -3.021e-23)
(0.7293 -0.06229 3.56e-23)
(0.2821 0.000796 -1.126e-22)
(0.326 -0.1129 2.433e-22)
(0.889 -0.006046 1.072e-22)
(0.7653 -0.08343 3.932e-23)
(0.9205 -0.2417 -1.611e-22)
(0.853 -0.2833 -9.039e-22)
(0.9015 -0.1584 -5.124e-22)
(0.706 -0.05621 0)
(0.707 -0.4161 2.512e-24)
(0.8889 -0.1587 -2.491e-23)
(0.9862 -0.02693 0)
(0.5836 -0.1317 -7.702e-24)
(0.8075 -0.08913 4.329e-23)
(0.8491 -0.1297 2.846e-22)
(0.2185 -0.05163 -2.472e-23)
(0.91 -0.2209 0)
(0.98 -0.003015 -4.694e-21)
(0.9774 0.001445 -8.041e-21)
(1.031 0.3259 -2.538e-24)
(0.7441 -0.1092 1.656e-22)
(0.7536 -0.0788 -5.396e-23)
(0.8595 -0.07848 1.32e-21)
(0.8492 -0.01541 1.261e-20)
(0.9406 -0.1881 0)
(0.7167 -0.05423 -9.952e-23)
(0.9951 0.01209 1.013e-21)
(0.9177 -0.2125 2.232e-22)
(1.032 0.3257 0)
(0.7544 -0.08826 -2.378e-22)
(0.8658 -0.07459 2.62e-21)
(0.4367 0.0421 -1.393e-23)
(0.7057 0.04152 1.449e-22)
(0.9693 0.346 -1.616e-22)
(0.4278 -0.1251 0)
(0.9992 0.02696 4.076e-21)
(0.8462 -0.1219 -4.93e-21)
(1.002 2.84e-05 0)
(1.001 -1.278e-05 0)
(0.8381 -0.1895 0)
(0.819 -0.34 -1.514e-22)
(0.9036 -0.1665 2.489e-22)
(0.4271 -0.1249 -1.775e-22)
(0.4939 -0.1327 -1.137e-21)
(0.9437 -0.0363 -1.803e-21)
(0.9014 -0.1763 0)
(0.74 -0.06954 3.231e-23)
(0.7181 -0.07991 2.434e-23)
(0.3947 -0.199 4.833e-24)
(0.8233 -0.1142 1.963e-22)
(0.5472 -0.1314 -3.661e-22)
(0.6131 -0.1225 2.501e-22)
(0.7824 -0.09351 1.531e-22)
(0.8669 -0.05089 0)
(0.7781 -0.09005 -1.001e-22)
(0.495 -0.1387 5.949e-22)
(0.3077 -0.1062 -1.254e-22)
(0.7177 -0.08042 1.117e-22)
(0.8779 0.0296 0)
(0.5384 -0.1313 -8.317e-22)
(0.6195 -0.1301 -3.035e-22)
(1.026 0.221 -3.517e-23)
(0.9558 -0.01848 4.076e-21)
(0.6958 0.0478 0)
(0.3772 -0.1217 -2.685e-22)
(0.7626 -0.06133 2.169e-23)
(0.6119 -0.1353 -1.955e-21)
(0.7286 -0.0562 0)
(0.7394 -0.06423 -3.093e-23)
(1.004 0.007839 -4.118e-22)
(0.9709 0.0257 -3.755e-21)
(0.8941 -0.005386 0)
(0.5985 -0.1143 3.086e-22)
(0.938 -0.001621 0)
(0.5593 -0.2518 4.081e-21)
(0.9944 0.009852 -2.288e-21)
(0.759 -0.08268 1.331e-22)
(0.7283 -0.05777 5.985e-23)
(0.9452 -0.03717 0)
(0.9275 -0.03731 -1.341e-22)
(0.7508 -0.07342 7.966e-25)
(0.1673 -0.1168 -9.566e-25)
(0.4203 -0.1238 -6.584e-22)
(0.9317 -0.004979 2.937e-21)
(0.6525 -0.1295 -2.644e-21)
(0.7911 -0.1055 -1.7e-21)
(0.7912 -0.1001 0)
(0.9199 -0.2435 -9.246e-22)
(0.9571 0.05502 0)
(0.6693 -0.04582 0)
(0.8968 0.08882 0)
(0.7668 0.007256 0)
(0.5195 -0.1317 -1.192e-22)
(0.6914 -0.1262 -1.24e-21)
(1.011 -0.004533 -7.131e-21)
(0.8193 -0.2687 0)
(0.2953 -0.105 1.797e-22)
(0.9151 -0.23 5.997e-22)
(0.7459 -0.06924 3.578e-23)
(0.7149 -0.05498 6.682e-23)
(0.823 -0.2691 -8.467e-22)
(0.7246 -0.04661 0)
(0.8771 0.02733 0)
(0.9895 -0.07011 0)
(0.6979 -0.05304 -5.2e-23)
(1 0.01242 1.583e-20)
(0.5979 -0.1313 0)
(0.3056 -0.07468 0)
(0.9 0.08969 0)
(0.8302 -0.1042 -9.442e-23)
(0.3842 -0.1194 -6.606e-22)
(0.7864 -0.07824 5.991e-24)
(0.9998 0.001182 -1.36e-19)
(0.7637 -0.07848 0)
(0.8295 -0.3611 0)
(0.8273 -0.1196 6.289e-22)
(0.9292 -0.2094 -2.029e-21)
(0.3773 -0.119 0)
(0.8857 -0.3183 0)
(0.6057 -0.1217 -3.141e-22)
(0.4862 -0.1316 -5.575e-22)
(0.8745 -0.1656 0)
(0.8172 -0.0773 2.078e-22)
(0.8704 -0.3456 -4.194e-22)
(0.3439 -0.1134 0)
(0.3108 -0.1064 -1.307e-21)
(0.4439 -0.1286 0)
(0.9901 0.002174 5.892e-21)
(0.438 -0.1257 -4.914e-22)
(0.8516 0.1314 -4.398e-22)
(0.9145 0.2317 -4.488e-25)
(0.9067 -0.2089 -1.209e-21)
(0.8634 -0.05747 5.348e-22)
(0.9468 -0.1705 -6.905e-22)
(1.011 5.659e-05 0)
(0.4379 -0.1277 0)
(0.3061 -0.1059 0)
(0.735 -0.1201 4.837e-21)
(0.9256 -0.004284 2.743e-23)
(1.005 0.007818 1.19e-20)
(0.8627 -0.1346 -2.097e-22)
(0.5657 -0.1274 -6.007e-22)
(0.9309 -0.07251 -1.873e-21)
(0.9944 -0.03668 0)
(0.9994 -0.007554 -4.339e-21)
(0.7375 -0.06243 1.867e-23)
(0.8833 -0.07176 -2.221e-21)
(0.8207 -0.3428 1.622e-22)
(0.9194 0.03527 0)
(0.7132 -0.0568 -4.527e-24)
(0.971 -0.001101 1.085e-20)
(0.66 -0.4463 0)
(0.8903 -0.006596 -2.667e-21)
(0.3343 -0.1022 1.652e-22)
(0.5215 -0.1333 0)
(0.7936 -0.09731 -4.808e-25)
(0.8336 -0.1047 1.927e-22)
(0.6209 -0.1097 1.93e-21)
(0.8276 0.0305 7.462e-23)
(0.3367 -0.1128 -7.992e-23)
(0.7808 -0.09295 9.718e-23)
(0.8823 -0.04786 0)
(0.3474 -0.1142 0)
(0.8387 -0.07469 2.669e-22)
(0.7859 -0.07478 1.335e-23)
(0.8264 -0.05294 1.129e-22)
(0.6407 -0.1311 0)
(0.3849 0.1065 -3.39e-21)
(0.8244 -0.0541 -3.367e-25)
(0.9664 0.001187 0)
(0.9879 0.0505 0)
(0.6547 -0.1188 0)
(0.5093 -0.1322 4.116e-22)
(1.008 -0.0002954 0)
(0.4468 -0.127 3.076e-22)
(0.8162 -0.09652 8.676e-22)
(0.9294 -0.1061 2.161e-22)
(0.7472 -0.1091 -5.306e-23)
(0.9672 -0.1393 1.185e-21)
(1.017 0.001281 0)
(0.4956 -0.3917 -2.128e-21)
(0.8236 -0.09408 -7.904e-22)
(0.3087 -0.1075 -1.445e-22)
(0.7543 -0.06183 5.96e-24)
(0.7752 -0.4259 3.393e-22)
(0.6451 -0.4447 -3.949e-22)
(0.7086 -0.0959 1.147e-22)
(0.9098 -0.221 0)
(0.8259 -0.3565 0)
(0.925 -0.00297 -2.774e-23)
(0.7596 -0.06337 -5.412e-24)
(1.024 0.0189 2.935e-22)
(0.7219 -0.06117 -5.085e-23)
(0.9352 0.01006 4.071e-21)
(1.02 0.3241 -1.408e-24)
(0.7679 -0.07803 -7.985e-24)
(0.7566 -0.07339 0)
(1.026 0.2375 1.88e-23)
(0.002665 0.002284 0)
(0.4219 -0.1258 4.941e-22)
(0.3924 -0.02822 4.616e-22)
(0.9511 -0.07347 -2.277e-23)
(0.8187 0.4028 -7.49e-22)
(0.9863 -0.01745 -2.785e-20)
(0.7779 -0.4222 0)
(0.9888 0.05086 -4.237e-24)
(0.3204 -0.1116 0)
(0.5242 -0.1319 -4.374e-22)
(-0.01872 -0.07409 0)
(-0.01175 -0.1015 1.808e-21)
(0.1694 -0.05556 -1.624e-22)
(1.004 -0.001281 -4.664e-20)
(0.5388 -0.1314 0)
(0.9809 0.03035 0)
(0.978 0.001945 1.73e-20)
(0.395 -0.1235 3.933e-22)
(0.8864 -0.3197 1.002e-21)
(0.3824 -0.1191 3.936e-22)
(0.8706 -0.1326 0)
(0.5206 -0.1332 0)
(0.7935 -0.09723 1.195e-22)
(0.4475 -0.1273 -3.163e-22)
(0.5666 -0.1068 2.995e-22)
(0.97 0.001864 0)
(0.3318 -0.08192 -2.363e-22)
(0.2213 -0.07893 0)
(0.8694 -0.3522 2.585e-22)
(0.7454 -0.07271 1.799e-24)
(0.2838 -0.1 8.107e-23)
(1.001 -0.01009 -2.614e-21)
(0.8288 -0.09477 4.077e-23)
(0.773 -0.04373 -8.756e-22)
(0.6451 -0.1311 4.887e-22)
(0.9878 -0.009708 0)
(0.7164 -0.05949 0)
(1.024 0.4459 0)
(0.2994 -0.1063 -2.805e-22)
(1.003 -8.72e-05 0)
(0.654 -0.1188 -2.336e-22)
(0.9578 -0.1327 3.871e-22)
(0.2641 -0.09024 -4.002e-26)
(0.8144 -0.3704 1.972e-22)
(1.071 0.2737 2.724e-23)
(0.6179 -0.1306 -2.042e-22)
(0.9312 -0.003677 2.667e-22)
(0.3209 -0.1096 -1.266e-22)
(0.8717 -0.3255 -4.83e-22)
(1.007 -0.0002503 -4.535e-21)
(0.9203 -0.2426 1.228e-21)
(0.8207 -0.08124 -1.457e-21)
(0.731 -0.06268 -3.094e-23)
(0.7296 -0.05622 4.807e-23)
(0.5079 -0.1321 -4.487e-22)
(0.3515 -0.1144 1.228e-22)
(0.5212 -0.1318 2.132e-22)
(0.8899 -0.008903 0)
(0.8743 -0.3387 3.459e-22)
(0.3655 -0.1168 0)
(0.439 -0.1278 1.154e-23)
(1.023 0.01097 -4.828e-22)
(0.7618 0.0007904 4.743e-23)
(0.4727 -0.131 -2.157e-22)
(0.8282 -0.125 -7.848e-22)
(0.7963 -0.08843 6.728e-23)
(0.3344 -0.1146 2.324e-22)
(0.9997 0.002727 0)
(0.9991 0.003293 3.045e-20)
(0.827 0.1008 -9.815e-22)
(0.5462 -0.1314 -1.837e-22)
(0.7959 0.424 0)
(0.9741 0.003402 -8.402e-21)
(1.005 0.001512 -7.212e-21)
(0.8759 -0.3171 0)
(0.862 -0.372 0)
(0.3792 -0.1188 2.212e-22)
(0.8256 -0.3571 0)
(0.325 -0.1096 5.81e-22)
(0.3619 -0.1166 0)
(0.9231 -0.2097 -2.266e-22)
(0.9878 0.05665 0)
(1.01 -0.000515 -2.046e-21)
(0.3023 -0.1066 2.46e-22)
(0.4606 -0.1285 -2.264e-22)
(0.9157 -0.2109 6.388e-22)
(0.9926 0.0021 3.502e-20)
(0.9098 -0.01454 4.538e-22)
(0.7952 -0.08288 0)
(0.4992 -0.1335 3.91e-22)
(0.9327 -0.004879 -6.506e-21)
(0.7816 -0.09684 -3.643e-23)
(0.9737 0.00257 1.33e-20)
(0.3862 -0.1198 -1.046e-22)
(0.3201 -0.05789 0)
(0.6663 -0.1283 2.545e-23)
(0.9977 -0.0004407 -7.63e-21)
(0.353 -0.1146 -4.841e-22)
(0.5485 -0.1333 -1.011e-22)
(0.7425 -0.3861 -1.064e-20)
(1.017 0.001191 -6.745e-21)
(0.8561 -0.135 -2.981e-22)
(0.2848 -0.102 8.772e-23)
(0.9997 -0.007833 0)
(0.831 -0.1046 0)
(0.9763 0.01718 -2.727e-22)
(0.7386 -0.05742 4.174e-23)
(0.7493 -0.07718 0)
(0.9859 0.001016 1.425e-20)
(0.534 -0.1315 1.173e-21)
(0.8144 -0.11 -1.339e-22)
(0.2117 -0.009323 0)
(0.6737 -0.09227 -3.779e-22)
(0.7229 -0.09094 -4.463e-23)
(0.7792 -0.09041 2.767e-22)
(0.7919 -0.09957 1.471e-22)
(0.4318 -0.324 -2.056e-21)
(0.7531 -0.07084 -5.881e-24)
(0.9468 0.4626 -4.173e-23)
(0.7483 -0.01708 -1.154e-22)
(0.3089 -0.1082 -1.229e-22)
(0.8057 -0.05424 -3.936e-23)
(0.7288 -0.06506 2.127e-23)
(0.9966 0.002057 0)
(0.8984 -0.1887 -6.829e-22)
(0.9818 0.00149 -4.233e-21)
(0.4009 -0.1795 -1.197e-21)
(1.011 0.03773 1.424e-21)
(0.7158 -0.09035 3.232e-22)
(1.012 0.0001136 0)
(0.9833 0.02169 7.145e-21)
(0.8852 -0.08615 9.672e-23)
(0.87 -0.3461 2.115e-22)
(0.5624 -0.1334 3.368e-22)
(1.009 0.00205 2.81e-20)
(1.017 -0.002455 2.718e-21)
(0.3029 -0.1071 -1.877e-22)
(1.032 0.1342 0)
(0.5474 -0.1295 4.768e-22)
(0.7292 -0.06474 -6.726e-23)
(0.3776 -0.124 0)
(0.8203 -0.3423 -1.667e-22)
(0.5176 -0.1331 -5.173e-23)
(0.8303 -0.3618 0)
(0.7179 -0.07934 -3.446e-24)
(0.4321 -0.1273 -1.315e-21)
(0.8436 -0.06769 0)
(1.008 0.002111 -3.818e-21)
(0.8971 -0.03952 3.344e-22)
(0.7121 -0.0773 1.364e-23)
(0.9151 -0.1632 1.416e-22)
(0.8446 -0.08202 0)
(0.9997 -0.03592 -4.799e-21)
(1.005 0.001422 7.697e-22)
(0.7595 -0.08797 -2.331e-22)
(0.7807 -0.4354 -4.754e-24)
(0.7594 -0.0635 2.848e-23)
(0.2771 -0.1003 3.773e-22)
(1.01 0.03906 0)
(1.002 0.0009467 -7.394e-23)
(0.4006 -0.1224 0)
(0.8142 -0.07391 0)
(0.8868 -0.009925 -5.065e-21)
(0.7668 -0.09088 -2.104e-22)
(0.946 -0.1676 0)
(0.8962 -0.006298 6.885e-21)
(0.4117 -0.1252 7.139e-22)
(0.9222 -0.2213 -1.718e-22)
(0.713 -0.07686 8.608e-23)
(0.8489 -0.2198 -3.107e-21)
(0.08974 -0.03433 0)
(0.2895 -0.1034 0)
(0.3482 -0.1143 -6.712e-23)
(0.3365 -0.113 1.444e-22)
(0.481 -0.132 0)
(0.6913 -0.09055 2.882e-22)
(0.7849 -0.09796 6.712e-23)
(0.6808 -0.09701 0)
(0.921 -0.05707 -8.573e-22)
(0.8033 -0.06685 3.007e-22)
(0.2744 -0.06962 0)
(0.5987 -0.1311 -4.263e-22)
(1.017 -0.001101 -6.895e-21)
(0.8523 -0.1337 3.943e-22)
(0.8889 -0.267 0)
(0.6353 -0.1319 -1.289e-21)
(1.003 -0.00011 2.181e-21)
(1.017 -0.001277 7.57e-21)
(0.06094 0.1344 0)
(0.9496 -0.07126 -2.358e-23)
(0.8813 -0.165 -6.04e-22)
(0.7202 -0.09214 -1.319e-23)
(0.758 -0.4217 0)
(0.5837 -0.1321 9.7e-22)
(0.9483 0.03558 0)
(0.7153 -0.05947 3.402e-23)
(0.7151 -0.1033 2.251e-21)
(0.916 -0.2402 0)
(1.024 0.01784 -2.029e-22)
(1.02 9.819e-05 0)
(1.011 0.2002 0)
(0.8571 0.1313 0)
(0.6005 -0.1145 6.666e-23)
(0.6411 -0.1381 0)
(0.8689 -0.3597 1.617e-21)
(0.3883 -0.1257 0)
(0.8683 -0.3562 -5.502e-22)
(0.8001 -0.104 5.082e-21)
(0.6195 -0.1349 2.763e-21)
(0.9957 -0.0002997 1.133e-21)
(0.7131 -0.04913 -3.022e-23)
(0.9685 -0.1385 1.376e-22)
(0.9083 -0.2087 -5.116e-22)
(-0.02771 -0.09851 2.979e-22)
(0.8614 -0.1358 -9.893e-23)
(0.83 -0.04067 -2.02e-22)
(0.422 -0.1241 6.73e-22)
(0.9971 -0.0004653 8.454e-21)
(0.7916 -0.08768 -1.532e-24)
(0.7439 -0.0673 -3.22e-23)
(0.2901 -0.1011 0)
(0.5012 -0.1256 8.14e-22)
(0.6365 -0.1317 3.636e-22)
(0.7174 -0.07919 -5.401e-23)
(0.8385 0.6484 0)
(0.4852 -0.1315 5.228e-22)
(0.7883 -0.4178 8.433e-22)
(0.4388 -0.1329 -2.355e-22)
(0.9141 -0.222 1.31e-22)
(0.7872 -0.0866 -4.524e-23)
(0.8096 -0.08963 -1.984e-23)
(0.4678 -0.1282 3.538e-22)
(0.932 -0.1879 5.921e-22)
(0.1377 -0.006273 0)
(0.8879 -0.2685 0)
(0.8979 0.03486 1.691e-21)
(0.912 -0.2045 -1.85e-22)
(0.8483 -0.3614 4.066e-22)
(0.774 -0.082 5.72e-24)
(1.021 0.006742 0)
(0.2918 -0.07263 -8.397e-23)
(0.4991 -0.1386 -1.187e-21)
(0.3795 -0.1187 -2.052e-22)
(1.001 0.0009049 -5.036e-22)
(0.277 -0.1002 0)
(0.4445 -0.1286 0)
(0.7816 -0.09689 -5.782e-22)
(0.993 -0.0004201 -4.563e-21)
(0.6801 -0.09795 3.257e-22)
(0.3137 -0.11 0)
(0.6083 -0.1154 5.92e-22)
(0.7823 -0.07915 -1.657e-22)
(0.9939 -0.0004628 4.307e-21)
(0.3954 -0.1209 -3.839e-22)
(0.2702 -0.08909 0)
(0.4896 -0.1332 9.048e-22)
(0.6245 -0.129 0)
(0.9671 0.02753 -1.09e-21)
(0.7412 -0.06891 2.743e-23)
(0.2934 -0.2625 0)
(1.026 0.02272 -8.091e-22)
(0.8956 -0.1681 3.582e-22)
(0.9252 -0.2027 0)
(0.692 -0.08983 -2.756e-22)
(0.4219 -0.1256 0)
(0.9201 -0.2411 -4.798e-22)
(0.8609 -0.1357 0)
(0.7844 -0.1001 -1.424e-22)
(0.3834 -0.1197 0)
(1.003 -0.0001882 -4.569e-21)
(0.3945 -0.1208 3.597e-22)
(0.4266 -0.1272 7.638e-23)
(0.6927 -0.05239 0)
(0.8292 -0.1203 -4.188e-22)
(0.9464 0.000706 0)
(0.3963 -0.1238 0)
(0.3523 -0.1146 2.867e-23)
(1.003 -0.0001287 4.024e-21)
(0.3831 -0.1192 -3.875e-22)
(0.4113 -0.1251 0)
(0.7468 -0.06513 0)
(0.0471 -0.07793 -4.2e-23)
(0.7487 -0.06441 -2.587e-23)
(0.2995 -0.1064 4.181e-22)
(0.6229 -0.1236 -7.995e-23)
(0.3261 -0.1126 0)
(0.9232 -0.2155 0)
(1.004 -0.001103 2.295e-20)
(0.0817 -0.03081 -2.899e-22)
(0.4581 -0.1299 4.652e-22)
(0.6741 -0.0921 3.552e-22)
(0.3022 -0.1061 2.075e-22)
(0.3574 -0.1157 -4.613e-22)
(0.3317 -0.111 4.424e-22)
(0.3817 -0.1195 -1.561e-22)
(0.7321 -0.06186 0)
(1.01 -0.0005602 0)
(0.4936 -0.139 0)
(0.8508 -0.1106 -5.57e-24)
(0.9951 -0.0002286 0)
(0.3954 -0.1216 -5.787e-22)
(1.02 0.3227 0)
(0.8498 -0.1299 -2.628e-22)
(0.8925 -0.3107 -3.186e-22)
(1.013 0.0004528 -1.487e-20)
(0.519 -0.1332 0)
(0.3029 -0.09932 0)
(1.024 0.01865 -2.486e-22)
(1.014 0.0004795 0)
(0.8414 -0.08378 0)
(0.452 -0.1279 5.569e-22)
(0.3777 -0.1243 -3.577e-22)
(0.3269 -0.1106 2.153e-22)
(0.3842 -0.1195 3.103e-22)
(0.8288 0.03782 1.85e-23)
(0.8513 -0.1171 0)
(0.7616 -0.2462 -1.936e-21)
(1.017 -0.001039 0)
(0.4114 -0.1233 -2.592e-22)
(0.3413 -0.1129 0)
(0.7157 -0.05225 -6.663e-23)
(0.7085 -0.05654 0)
(0.7875 -0.3142 -9.982e-22)
(0.9914 0.002544 0)
(1.004 -0.008945 6.385e-22)
(0.8394 -0.002535 -9.583e-21)
(0.926 0.005685 5.242e-22)
(1.017 -0.0009198 -8.18e-22)
(0.8023 -0.1049 -2.69e-21)
(0.7402 -0.4475 3.925e-22)
(0.8174 -0.1053 -1.685e-22)
(0.8013 -0.1144 9.461e-22)
(0.9822 -0.006415 0)
(0.3196 -0.09991 -2.68e-22)
(0.8087 -0.09932 9.028e-23)
(0.9981 0.01494 0)
(0.7824 -0.09365 -1.323e-22)
(1.006 -0.0002299 0)
(0.8012 -0.402 1.076e-21)
(0.2693 -0.3675 -1.813e-21)
(0.7254 -0.09729 -3.032e-24)
(0.818 -0.03538 0)
(0.7766 0.01277 9.248e-23)
(0.9978 -0.04327 2.969e-22)
(0.5016 -0.1328 0)
(0.8493 -0.2313 -8.766e-22)
(0.7171 -0.05943 0)
(0.2632 -0.06802 -1.088e-22)
(0.7985 -0.105 -1.476e-22)
(0.5374 0.6896 8.511e-22)
(0.9482 0.004639 -3.598e-22)
(0.9229 -0.1846 -4.385e-22)
(0.8469 -0.321 1.11e-23)
(0.5968 -0.1068 0)
(0.9942 0.01674 0)
(0.7514 -0.1153 9.883e-22)
(0.9019 -0.2894 0)
(1.054 0.1842 1.102e-23)
(0.2741 -0.07078 3.903e-23)
(0.8112 -0.1344 0)
(0.9937 0.00256 0)
(0.7524 -0.102 3.46e-21)
(0.3022 -0.1065 -1.191e-22)
(0.8862 -0.2035 -3.684e-21)
(0.7896 -0.05494 4.016e-21)
(1.014 0.07637 0)
(0.2687 -0.3084 -5.27e-21)
(1.037 0.1157 -4.488e-23)
(0.6862 0.06745 1.257e-21)
(0.5465 -0.1327 -2.854e-22)
(0.3033 -0.1062 3.765e-22)
(0.4981 -0.1389 5.114e-22)
(0.664 -0.05243 1.892e-22)
(0.9746 0.05881 3.297e-22)
(0.8393 -0.1232 0)
(1.006 0.0009748 0)
(0.998 -0.000414 0)
(0.6982 -0.09736 2.12e-22)
(0.997 0.04893 5.885e-23)
(0.7325 -0.09021 1.719e-22)
(0.4951 -0.04985 -2.098e-21)
(0.3282 0.08619 0)
(0.8671 -0.09629 1.363e-22)
(0.9254 -0.04926 -2.997e-21)
(1.032 0.348 -2.274e-23)
(0.9128 -0.208 4.736e-22)
(1.011 -0.00434 5.214e-21)
(0.5661 -0.1395 4.344e-23)
(0.3571 -0.1155 -9.755e-23)
(0.9309 -0.04677 3.708e-21)
(0.5501 -0.1273 -1.37e-21)
(0.2283 -0.083 -2.227e-21)
(0.3563 -0.02239 0)
(0.9096 -0.1887 0)
(0.3689 -0.3886 -1.552e-21)
(0.6717 -0.1278 0)
(0.3232 -0.1099 0)
(0.9891 -0.01137 1.235e-20)
(0.7588 -0.072 7.742e-23)
(0.9088 -0.2088 5.302e-22)
(0.9594 -0.01863 0)
(0.5289 -0.1316 5.195e-22)
(0.4658 -0.1305 0)
(0.477 -0.1295 -2.59e-22)
(1.008 -0.000368 -4.313e-21)
(0.8606 -0.007809 -3.883e-21)
(0.6089 -0.1364 0)
(0.8433 0.05085 6.912e-23)
(0.893 -0.3002 -5.934e-22)
(0.2276 -0.07885 0)
(0.4688 -0.1288 3.277e-22)
(0.8365 -0.3618 0)
(0.9113 -0.2013 -8.842e-23)
(0.2798 -0.1003 0)
(0.8576 -0.06033 1.078e-22)
(0.9992 -0.000465 -3.292e-21)
(0.7644 -0.4469 0)
(0.9727 0.1521 -7.458e-23)
(1.007 0.001007 0)
(0.8409 -0.3356 1.047e-23)
(0.2074 -0.07397 2.285e-22)
(0.6725 -0.1261 -3.19e-22)
(1.004 0.05394 -3.157e-22)
(0.8127 -0.04839 1.918e-22)
(0.8899 -0.1487 -9.594e-23)
(0.2686 -0.09602 1.105e-25)
(0.4465 -0.03508 -1.481e-22)
(0.763 -0.07982 0)
(0.9873 0.05619 8.299e-22)
(0.9919 0.004654 5.57e-21)
(0.9032 -0.178 0)
(0.8044 -0.3668 -1.398e-22)
(0.3601 -0.1159 -6.03e-22)
(0.5489 -0.129 0)
(0.3027 0.2398 -1.563e-21)
(0.8692 -0.3636 -1.042e-21)
(0.5868 0.02415 -1.909e-23)
(0.9672 0.03572 -5.295e-22)
(0.8697 -0.364 -1.036e-21)
(0.9341 -0.0423 1.928e-21)
(0.8731 -0.05091 0)
(1.019 0.008336 0)
(0.3709 -0.1178 4.053e-23)
(0.1728 -0.004493 -9.751e-24)
(0.6603 -0.1228 -6.754e-22)
(0.474 -0.132 0)
(0.4567 -0.1281 0)
(0.9896 -0.001067 -1.238e-20)
(0.9559 -0.01236 2.809e-21)
(0.3052 -0.1068 0)
(0.9226 -0.2224 1.683e-21)
(0.3166 -0.1092 0)
(0.8103 -0.1076 0)
(0.3159 -0.1089 -3.265e-22)
(0.3658 -0.1203 -2.802e-22)
(0.7765 -0.06224 -2.445e-23)
(0.9546 0.001764 -5.401e-23)
(0.832 -0.06644 -3.881e-22)
(0.5245 -0.07262 8.619e-22)
(0.7226 -0.07386 -8.662e-23)
(0.7116 -0.05394 4.489e-23)
(0.4327 -0.1277 7.529e-22)
(0.8353 -0.1073 2.191e-22)
(0.3861 -0.1214 6.477e-22)
(0.3356 0.3984 7.01e-22)
(0.3361 -0.1121 -1.261e-23)
(0.1505 -0.03064 5.369e-23)
(0.2369 -0.08468 0)
(0.4534 -0.1279 0)
(1.021 0.006524 0)
(1.022 0.0005509 1.691e-21)
(0.4035 -0.1219 2.84e-22)
(0.3378 -0.1137 0)
(0.9117 -0.1632 -1.109e-21)
(1.002 3.356e-05 0)
(0.8159 -0.3755 -4.818e-22)
(0.5178 -0.1333 2.632e-22)
(0.8789 -0.07948 -9.935e-23)
(0.3262 -0.1102 0)
(0.7705 -0.08367 -4.854e-22)
(0.4004 -0.1226 -5.88e-22)
(0.902 0.3394 7.247e-22)
(0.9998 0.001144 -9.944e-20)
(0.9311 -0.1843 0)
(0.8721 -0.05353 -2.727e-22)
(0.8628 -0.3351 0)
(0.7042 -0.05477 0)
(0.3099 -0.1087 6.442e-23)
(0.7991 -0.287 1.242e-21)
(0.7433 -0.1176 1.854e-21)
(0.6188 -0.1098 0)
(0.7453 -0.06888 -8.76e-24)
(0.7834 -0.06842 0)
(0.4041 -0.1276 0)
(0.825 -0.3762 5.921e-22)
(0.7907 -0.09203 -8.719e-23)
(0.3419 -0.113 0)
(0.8684 -0.3769 -1.208e-21)
(0.9645 -0.02186 -4.912e-22)
(0.3409 -0.1197 0)
(0.2697 -0.0964 0)
(0.4287 -0.1276 0)
(0.6834 -0.08837 5.012e-22)
(0.338 -0.3778 -2.307e-21)
(0.9911 0.03329 7.062e-22)
(0.3558 -0.09281 2.328e-21)
(0.5809 -0.1105 0)
(0.9975 -0.002037 0)
(1.003 -0.0001652 4.061e-21)
(0.7587 -0.07563 -3.35e-24)
(0.5648 -0.1333 1.088e-21)
(0.2137 -0.07748 -2.447e-22)
(0.2663 -0.05147 4.646e-23)
(0.8398 -0.1233 6.667e-23)
(0.883 -0.3285 0)
(0.3552 -0.115 -6.759e-22)
(0.9278 -0.1772 0)
(0.9046 -0.1352 0)
(0.9968 -0.0471 -2.55e-21)
(0.3618 -0.1164 -1.153e-21)
(0.389 -0.04824 0)
(0.3607 -0.1163 -5.701e-22)
(0.9187 -0.1965 0)
(0.2688 -0.0938 7.93e-23)
(0.3641 -0.1166 -5.121e-22)
(0.9844 -0.004658 2.025e-21)
(0.5309 -0.06913 0)
(0.3115 -0.1093 -3.459e-22)
(1.006 -0.003562 -4.95e-20)
(0.7076 -0.09519 -1.771e-22)
(0.9948 -0.002002 3.054e-20)
(0.9944 -0.01583 1.247e-20)
(0.8424 -0.1182 -1.089e-22)
(0.9436 -0.1863 0)
(0.7121 -0.07517 -5.173e-21)
(1.008 -0.007481 5.43e-21)
(0.7822 -0.0937 1.78e-23)
(1.005 0.01398 0)
(1.018 0.3427 0)
(0.9492 -0.1771 -1.368e-21)
(0.5537 -0.1406 4.15e-22)
(0.8388 -0.1022 1.156e-22)
(0.8887 -0.1733 1.296e-22)
(0.8308 -0.1206 0)
(0.4061 -0.1232 1.596e-21)
(0.801 -0.09131 -9.422e-23)
(0.9764 0.001288 7.552e-21)
(0.9828 -0.04665 8.624e-22)
(0.6665 -0.1213 3.337e-22)
(0.8855 -0.1658 -1.743e-22)
(0.3288 -0.1108 -5.613e-23)
(0.3715 -0.1177 0)
(0.6784 -0.04868 8.509e-25)
(0.3651 -0.1164 -4.018e-22)
(0.2772 -0.09163 -1.191e-20)
(0.6721 -0.09296 4.979e-22)
(0.9164 -0.2525 0)
(0.9713 0.01443 -7.882e-22)
(0.7615 -0.08018 6.868e-24)
(0.7699 -0.09976 0)
(0.7688 0.1806 5.146e-22)
(0.516 -0.1407 0)
(0.9292 -0.01992 4.018e-21)
(0.5947 -0.1192 1.523e-21)
(0.2888 -0.08959 9.872e-23)
(0.8534 -0.149 0)
(0.9913 2.608e-05 -2.899e-21)
(0.6827 -0.4515 1.265e-21)
(0.5149 -0.1323 0)
(0.7693 -0.07536 1.094e-24)
(0.9181 -0.2513 1.517e-22)
(0.7221 -0.08353 -1.574e-23)
(0.8814 -0.1216 2.755e-22)
(0.5675 -0.1229 0)
(0.5642 -0.1325 3.31e-22)
(0.7699 -0.07542 3.511e-24)
(0.304 -0.1075 -7.33e-24)
(0.9085 -0.2465 -1.378e-21)
(0.2619 -0.06694 1.172e-22)
(0.999 -0.002736 0)
(0.789 -0.06324 -8.763e-23)
(0.6049 -0.1148 0)
(0.9957 -0.04297 0)
(0.5841 -0.124 0)
(0.7912 -0.08229 9.024e-23)
(1.001 -1.426e-05 -5.632e-21)
(0.9225 -0.2061 6.511e-22)
(0.289 -0.09841 0)
(0.991 -0.08218 0)
(0.7808 0.1845 -2.009e-21)
(0.6906 -0.1254 0)
(0.4478 0.03538 0)
(0.9393 -0.1659 1.156e-21)
(1.003 4.821e-05 1.951e-21)
(0.5497 -0.1315 -1.32e-23)
(0.445 -0.1288 -2.625e-23)
(1.027 0.01034 2.986e-21)
(0.8251 0.1705 1.159e-21)
(0.9732 0.06259 2.994e-23)
(0.5107 -0.1329 4.073e-22)
(0.5073 -0.1334 -5.055e-22)
(0.8921 -0.1599 2.474e-22)
(0.942 -0.04149 0)
(0.2746 -0.09426 -4.081e-23)
(0.2514 -0.09046 3.911e-22)
(0.8986 -0.1889 -8.008e-23)
(0.8514 -0.1334 3.581e-22)
(0.4417 -0.1261 -2.054e-22)
(0.6667 -0.04887 0)
(0.9894 6.766e-05 -7.271e-21)
(0.77 -0.08074 -1.907e-23)
(1.006 0.01814 -1.826e-22)
(0.43 -0.126 0)
(0.776 -0.386 -4.485e-22)
(0.627 -0.1111 0)
(0.918 -0.2506 1.514e-21)
(0.2513 -0.0751 -5.118e-23)
(0.6472 -0.1065 0)
(0.9974 0.00457 -1.932e-20)
(0.2012 -0.07312 0)
(0.3901 -0.1217 0)
(0.4407 -0.1289 5.687e-22)
(0.77 -0.07061 3.15e-23)
(1.062 0.2767 0)
(0.5344 -0.1318 -2.966e-22)
(0.5116 -0.1305 7.999e-22)
(0.7078 -0.0558 0)
(0.8324 -0.117 0)
(0.843 -0.02686 -2.996e-21)
(0.3794 -0.02546 3.456e-22)
(0.3317 -0.1125 1.68e-22)
(0.7245 -0.05408 0)
(0.8901 -0.1863 -8.619e-22)
(0.8419 -0.1266 0)
(0.7127 -0.4341 -1.369e-21)
(0.4165 0.02987 2.503e-22)
(0.3091 -0.1053 4.21e-23)
(0.8712 -0.1479 9.819e-23)
(0.3738 -0.1182 0)
(0.821 -0.0343 0)
(0.7925 -0.09675 -1.623e-22)
(0.758 -0.07783 1.305e-23)
(0.661 -0.1272 0)
(0.2359 -0.08557 0)
(0.9555 -0.09808 -2.347e-23)
(0.9065 -0.1927 -4.64e-22)
(0.9594 -0.1324 0)
(0.8606 -0.1448 4.046e-22)
(1.001 -2.731e-05 0)
(1.014 0.004147 -1.755e-20)
(0.7529 -0.1007 -6.35e-22)
(0.6646 -0.0452 8.21e-23)
(0.3765 -0.1185 3.607e-22)
(0.8398 -0.02828 1.369e-20)
(0.3926 -0.08644 -2.505e-21)
(0.3157 -0.1085 2.486e-22)
(0.9894 0.005069 -1.212e-20)
(1.048 0.1486 0)
(0.8242 -0.1125 2.946e-23)
(0.7898 -0.05048 0)
(-0.01114 0.01155 0)
(0.918 -0.2592 -5.585e-22)
(0.3305 -0.1115 8.948e-23)