/*--------------------------------*- C++ -*----------------------------------*\
  =========                 |
  \\      /  F ield         | OpenFOAM: The Open Source CFD Toolbox
   \\    /   O peration     | Website:  https://openfoam.org
    \\  /    A nd           | Version:  8
     \\/     M anipulation  |
\*---------------------------------------------------------------------------*/
FoamFile
{
    version     2.0;
    format      ascii;
    class       volVectorField;
    location    "5";
    object      U;
}
// * * * * * * * * * * * * * * * * * * * * * * * * * * * * * * * * * * * * * //

dimensions      [0 1 -1 0 0 0 0];

internalField   nonuniform List<vector> 
127143
(
(0.1213 -0.004342 3.063e-22)
(-0.007314 -0.03577 -4.924e-22)
(0.0007594 0.003481 3.724e-22)
(0.001366 0.006368 0)
(0.5663 0.1923 0)
(0.001376 0.006304 0)
(0.5793 0.3589 -1.277e-21)
(0.6109 0.2773 0)
(0.5365 0.2446 -1.121e-21)
(0.6019 0.02362 1.55e-21)
(0.3135 0.4563 0)
(0.5416 0.3347 -2.483e-22)
(0.04293 -0.01612 1.033e-22)
(0.001656 0.006931 0)
(0.344 -0.3759 0)
(0.6202 -0.04327 7.123e-23)
(-0.01424 -0.05569 5.097e-22)
(0.6006 -0.06326 0)
(0.4437 -0.1311 -1.049e-21)
(0.8002 0.1797 1.266e-22)
(0.5717 -0.135 0)
(0.2339 -0.08352 1.695e-22)
(0.946 -0.1883 6.849e-22)
(0.7538 -0.07052 -1.113e-23)
(0.2335 -0.0836 4.843e-22)
(0.8441 -0.1327 0)
(0.9072 -0.004193 3.612e-23)
(0.9104 0.00982 -2.592e-21)
(0.8355 -0.3876 0)
(0.6611 -0.05192 8.71e-21)
(0.7241 -0.04767 2.754e-23)
(0.8346 -0.139 7.745e-22)
(1.036 0.2702 1.857e-22)
(0.5354 -0.1286 -6.615e-22)
(0.8451 -0.1194 5.594e-23)
(1.043 0.27 1.734e-22)
(0.3403 -0.1132 -6.365e-22)
(0.7636 -0.1109 3.234e-22)
(0.7585 -0.07118 -5.586e-24)
(0.7644 0.004855 7.812e-23)
(0.4437 -0.1302 -3.641e-22)
(0.9379 0.2527 0)
(0.9247 0.2433 -6.744e-22)
(0.08995 -0.02992 -1.015e-21)
(0.6045 -0.05796 0)
(0.5364 -0.1288 6.26e-22)
(0.8436 -0.3831 0)
(0.3676 -0.1176 -2.63e-22)
(0.8791 -0.1525 -1.606e-23)
(0.7419 -0.06276 2.147e-23)
(0.6442 -0.04445 7.108e-23)
(0.931 -0.07159 3.531e-21)
(0.7534 -0.07284 -7.766e-23)
(0.9593 0.01182 6.714e-24)
(1.007 -0.00372 2.209e-20)
(0.918 -0.2333 -1.589e-21)
(1.006 -0.004216 -2.109e-20)
(0.9004 -0.08935 -2.65e-23)
(0.9955 -0.01322 4.922e-22)
(0.9607 0.01507 3.461e-22)
(0.6338 -0.2122 -5.629e-22)
(0.4621 -0.1285 0)
(0.7654 -0.06185 -4.968e-23)
(1.003 0.001982 0)
(0.8245 -0.07659 1.131e-21)
(0.9077 -0.2668 -4.667e-22)
(0.9696 0.06867 3.06e-22)
(0.7613 -0.0635 0)
(0.7623 -0.06351 0)
(0.9916 0.0008312 1.228e-20)
(0.7366 -0.06222 -2.575e-23)
(0.9216 0.0003646 -9.812e-22)
(0.4226 -0.07261 4.468e-22)
(0.9978 -0.01183 0)
(1.009 0.01105 -3.035e-20)
(0.9283 0.008522 2.045e-21)
(0.9875 0.05789 0)
(0.3821 -0.1195 2.605e-22)
(0.9186 -0.2333 7.891e-22)
(1.001 0.001765 -2.368e-20)
(0.8424 -0.3775 -2.029e-21)
(0.807 0.164 -2.411e-22)
(0.5479 -0.1301 1.156e-21)
(0.72 -0.04151 -5.292e-23)
(0.3491 -0.1045 0)
(0.3812 -0.1192 -5.002e-22)
(0.7734 -0.07841 -1.07e-23)
(0.9906 0.08012 3.087e-22)
(0.9064 -0.2657 0)
(0.9734 0.4887 0)
(0.9991 -0.04144 -4.043e-21)
(0.791 -0.1061 -1.413e-21)
(0.9604 0.4719 0)
(0.5726 -0.1349 -2.067e-22)
(0.6092 -0.1228 8.615e-22)
(0.847 -0.007904 -2.765e-21)
(0.9386 0.2476 0)
(0.716 -0.05689 -1.01e-22)
(0.4362 -0.1265 3.611e-22)
(0.9685 0.07096 0)
(1.001 0.00173 4.73e-20)
(0.8799 -0.1529 -1.293e-22)
(0.7745 0.6592 0)
(0.8549 -0.1059 5.186e-23)
(0.3823 -0.1193 4.6e-22)
(0.4344 -0.1264 0)
(0.8634 -0.1357 -7.933e-23)
(0.9913 0.0008133 -8.918e-21)
(0.816 -0.3435 -1.928e-22)
(1.015 -0.00159 5.493e-20)
(0.3513 -0.3758 -3.015e-21)
(0.983 0.08919 2.661e-22)
(0.5909 -0.1306 3.736e-22)
(0.3227 0.1148 8.321e-22)
(0.9847 0.01997 -6.235e-21)
(0.9077 -0.159 9.108e-23)
(0.9587 0.05548 0)
(1.008 0.01133 1.669e-20)
(0.9886 0.05746 1.978e-22)
(-0.0002046 0.0111 1.194e-22)
(1.015 -0.001866 -4.587e-20)
(0.5298 -0.1323 5.416e-22)
(0.8917 -0.3203 -3.92e-22)
(0.9361 -0.1079 -1.859e-23)
(0.8402 -0.3834 3.741e-21)
(0.788 -0.1034 6.482e-23)
(0.4688 -0.1285 0)
(1.016 0.01998 0)
(0.8372 -0.06207 -8.348e-23)
(0.918 -0.2623 0)
(0.4367 -0.1275 9.73e-22)
(0.5708 -0.1304 0)
(0.7903 -0.07514 1.852e-23)
(0.3824 -0.1193 -1.29e-22)
(-0.01844 -0.06832 -1.263e-21)
(0.4377 -0.1276 -1.021e-21)
(0.8975 -0.06668 -2.124e-21)
(0.5968 -0.1342 -1.059e-21)
(0.7823 -0.4351 1.997e-21)
(0.9473 -0.03651 -3.509e-21)
(0.9339 -0.2103 -2.528e-22)
(0.9587 0.04426 -2.485e-21)
(0.7208 -0.09022 0)
(0.6676 -0.1278 -5.569e-22)
(0.7535 -0.07216 1.139e-22)
(1.031 0.2522 5.018e-23)
(0.03491 -0.05779 -2.754e-21)
(1.003 0.001669 -3.832e-23)
(0.57 -0.1303 -4.028e-23)
(0.8433 0.6613 -1.033e-22)
(0.8347 -0.0958 -4.072e-23)
(0.9001 -0.1748 2.547e-22)
(0.7873 -0.1041 0)
(0.8434 -0.1926 0)
(0.5633 -0.4188 -7.488e-22)
(0.3504 -0.1051 0)
(0.9001 -0.0889 1.701e-24)
(0.8967 -0.3103 0)
(0.3682 -0.1177 -1.021e-24)
(0.7249 -0.06116 -8.463e-23)
(0.7266 -0.0513 9.713e-23)
(0.6023 -0.2966 2.089e-21)
(0.9994 -0.04115 3.603e-21)
(0.436 -0.1274 0)
(0.9129 -0.2415 -2.922e-22)
(0.8252 -0.07604 -2.198e-22)
(0.3445 -0.1136 -6.823e-22)
(0.7912 -0.3174 2.152e-21)
(1.074 0.2167 -1.981e-23)
(0.9004 0.03857 4.859e-22)
(0.2812 -0.09916 1.845e-22)
(0.6664 -0.1277 0)
(0.9108 -0.1669 -4.752e-22)
(0.9245 -0.2625 6.202e-22)
(0.961 0.0001124 0)
(0.3035 -0.09759 7.235e-24)
(1.008 0.3039 3.135e-24)
(0.8361 -0.06227 -8.279e-23)
(0.7695 -0.079 -2.167e-23)
(0.9082 -0.03635 0)
(0.9243 -0.2632 -6.39e-22)
(0.9859 -0.0416 -6.921e-22)
(0.3031 -0.07573 5.92e-23)
(0.3036 -0.09702 -7.419e-24)
(0.9183 -0.2641 -6.084e-22)
(0.4647 -0.129 0)
(0.9167 0.1511 0)
(0.3369 0.1303 0)
(0.7554 -0.07075 0)
(0.9418 -0.03867 2.679e-22)
(0.724 -0.08241 3.393e-23)
(0.7455 -0.09402 -3.017e-23)
(0.9036 -0.06435 0)
(0.3223 0.4038 -3.276e-22)
(-0.0132 -0.07831 1.309e-21)
(0.5232 -0.1325 -1.304e-21)
(1.002 3.613e-05 -4.249e-22)
(1.001 -1.581e-05 1.688e-22)
(0.8001 0.2289 1.238e-23)
(0.9713 0.02615 1.173e-21)
(1.018 0.02916 2.931e-22)
(0.8874 -0.008934 1.171e-21)
(0.7691 -0.0422 4.704e-21)
(0.3417 -0.1135 4.036e-26)
(0.003162 0.007054 1.672e-21)
(0.7528 -0.05389 3.207e-24)
(0.9653 -0.1514 -9.309e-22)
(0.8968 -0.1599 -4.835e-22)
(0.6666 -0.0557 -2.137e-20)
(0.985 0.01928 3.344e-21)
(0.7984 -0.1053 1.723e-21)
(0.3338 -0.1038 -1.776e-22)
(0.9872 -0.02527 -1.752e-20)
(1.074 0.2197 2.047e-23)
(0.4371 -0.128 0)
(0.8426 0.06772 4.814e-23)
(0.2816 -0.1005 -9.356e-23)
(0.9098 -0.1781 2.587e-22)
(0.5446 -0.1348 0)
(0.9663 -0.1502 -6.441e-22)
(1.006 0.3015 5.741e-24)
(1 0.01263 0)
(0.8995 -0.1744 -2.827e-22)
(0.769 -0.0661 0)
(0.7181 -0.05936 3.997e-23)
(0.2868 -0.1024 -9.237e-23)
(0.9164 -0.2421 1.992e-22)
(0.7689 -0.1094 0)
(0.3017 -0.1066 -1.466e-22)
(0.4418 -0.1264 2.618e-22)
(0.5754 -0.1344 6.282e-22)
(0.9882 -0.04418 5.368e-22)
(0.4255 -0.07566 0)
(0.03498 -0.06832 -1.532e-22)
(0.5755 -0.1343 -1.439e-22)
(0.97 -0.1129 1.661e-22)
(0.4362 -0.1274 -5.761e-22)
(0.2296 -0.01603 4.525e-22)
(1.018 0.02867 -5.618e-22)
(0.7144 -0.07846 -1.313e-23)
(0.745 -0.09332 0)
(0.8704 -0.05828 3.104e-22)
(0.3261 -0.1126 -1.89e-22)
(0.8973 -0.3103 -3.926e-22)
(0.7959 -0.05114 0)
(-0.0006868 0.01095 -2.344e-22)
(0.9047 -0.1792 0)
(0.9063 -0.01383 0)
(0.2228 -0.06092 -2.069e-21)
(0.9886 0.001806 -8.774e-21)
(1.018 0.1824 0)
(0.7612 -0.08195 0)
(0.9254 -0.2146 0)
(0.6259 -0.1308 0)
(0.9207 -0.2236 5.737e-22)
(0.8276 -0.3399 -8.068e-23)
(1.016 0.01931 0)
(1.071 0.2786 -1.495e-22)
(0.9297 -0.2353 3.766e-22)
(0.8265 0.1063 -5.813e-22)
(0.5511 -0.1337 2.479e-24)
(0.9918 -0.06954 1.032e-21)
(0.7978 -0.1039 8.193e-23)
(0.9579 0.04311 0)
(0.8351 -0.04357 -3.74e-22)
(0.8501 -0.06716 2.099e-22)
(0.3841 -0.1201 5.168e-22)
(0.5453 -0.4312 0)
(0.6995 -0.3046 0)
(0.8941 -0.007366 -2.087e-22)
(0.8855 -0.168 -6.432e-23)
(0.9598 -0.0003379 0)
(0.3719 -0.1193 0)
(0.7133 -0.079 0)
(0.7801 -0.06077 0)
(0.7244 -0.0816 0)
(0.5912 -0.1307 -3.713e-22)
(0.8601 -0.1346 1.188e-24)
(0.9373 -0.002716 -1.347e-20)
(0.9211 -0.2699 -5.078e-22)
(0.979 -0.002951 0)
(0.8286 -0.004058 0)
(0.857 -0.1062 0)
(0.9859 0.001807 -1.423e-20)
(0.9989 0.02635 4.094e-21)
(-0.0308 -0.08211 1.043e-21)
(0.4843 -0.1331 -2.675e-22)
(0.9846 0.02197 3.189e-21)
(0.8321 -0.1157 -7.305e-25)
(0.9025 -0.03793 2.413e-21)
(0.7905 -0.104 -8.775e-23)
(0.9398 -0.2047 0)
(0.9707 -0.1145 -3.771e-22)
(0.9187 -0.1832 0)
(0.995 -0.03626 1.379e-21)
(0.8156 -0.3559 -1.545e-23)
(0.7357 -0.0629 0)
(0.2789 -0.00366 -1.127e-22)
(0.326 -0.1127 3.638e-22)
(0.8974 -0.006503 0)
(0.7729 -0.0843 -9.792e-23)
(0.9263 -0.2425 1.332e-21)
(0.8567 -0.2833 1.226e-21)
(0.9095 -0.1596 9.61e-23)
(0.7095 -0.05666 1.556e-22)
(0.7086 -0.4163 -8.712e-22)
(0.8971 -0.16 4.022e-22)
(0.9861 -0.02572 1.061e-20)
(0.5874 -0.1322 4.478e-24)
(0.8152 -0.09006 -1.927e-24)
(0.8575 -0.1309 0)
(0.2177 -0.05586 -1.005e-22)
(0.9173 -0.2226 -5.298e-22)
(0.9807 -0.002906 -8.82e-21)
(0.978 0.001953 0)
(1.04 0.3293 -8.951e-25)
(0.7509 -0.1096 1.718e-22)
(0.761 -0.07959 8.755e-23)
(0.8666 -0.07841 -1.611e-22)
(0.8517 -0.01532 5.889e-21)
(0.9454 -0.1877 1.538e-22)
(0.7204 -0.05463 1.537e-23)
(0.9984 0.0118 2.031e-21)
(0.9252 -0.2141 2.261e-22)
(1.041 0.3291 0)
(0.7618 -0.08858 0)
(0.8685 -0.07239 -5.408e-21)
(0.4345 0.04017 -1.219e-22)
(0.71 0.03827 -5.83e-22)
(0.9788 0.3505 -7.14e-23)
(0.4298 -0.1254 3.651e-22)
(0.9997 0.02621 -7.118e-21)
(0.849 -0.1196 -2.091e-22)
(1.002 2.736e-05 0)
(1.001 -1.206e-05 0)
(0.8411 -0.1877 0)
(0.8229 -0.3408 0)
(0.9117 -0.1677 0)
(0.4291 -0.1252 -1.79e-22)
(0.4972 -0.1336 -8.635e-25)
(0.9488 -0.03567 4.682e-21)
(0.9094 -0.1777 -4.759e-22)
(0.7481 -0.07025 6.758e-23)
(0.7257 -0.08083 0)
(0.3944 -0.1948 1.18e-21)
(0.8316 -0.1153 1.955e-22)
(0.551 -0.1323 -7.407e-22)
(0.6182 -0.1234 1.158e-24)
(0.7903 -0.09445 -1.584e-22)
(0.8749 -0.0516 0)
(0.7859 -0.09096 0)
(0.497 -0.1383 6.084e-22)
(0.3073 -0.1061 1.251e-22)
(0.7253 -0.08135 0)
(0.8812 0.03118 0)
(0.5421 -0.1322 -1.16e-21)
(0.6244 -0.1309 3.115e-22)
(1.035 0.2235 -8.491e-23)
(0.9581 -0.01806 1.702e-21)
(0.7002 0.04459 3.676e-22)
(0.378 -0.1216 1.609e-22)
(0.7689 -0.06217 0)
(0.6154 -0.1348 9.946e-22)
(0.7337 -0.05687 0)
(0.7459 -0.06488 -1.516e-23)
(1.004 0.007588 -6.128e-21)
(0.9722 0.02561 1.216e-21)
(0.8967 -0.005326 -5.739e-21)
(0.6039 -0.1152 1.572e-21)
(0.9399 -0.001626 -2.84e-22)
(0.5601 -0.2493 8.139e-22)
(0.9977 0.009616 -3.197e-21)
(0.7666 -0.08353 -1.805e-25)
(0.7336 -0.05836 0)
(0.9493 -0.03629 -1.225e-20)
(0.9339 -0.03712 -1.344e-22)
(0.758 -0.07414 1.926e-25)
(0.1686 -0.1175 -5.681e-23)
(0.4226 -0.1243 0)
(0.9337 -0.00492 -1.011e-21)
(0.657 -0.1296 -8.795e-22)
(0.7986 -0.1064 0)
(0.7991 -0.1011 7.734e-23)
(0.9257 -0.2443 1.725e-21)
(0.9597 0.0548 0)
(0.6681 -0.04664 1.347e-23)
(0.9017 0.09042 2.251e-22)
(0.7622 0.003231 -9.36e-23)
(0.5229 -0.1325 1.213e-22)
(0.697 -0.1269 0)
(1.012 -0.004429 3.663e-21)
(0.8224 -0.2679 0)
(0.294 -0.1045 2.403e-22)
(0.9222 -0.2317 -2.254e-22)
(0.7528 -0.0699 0)
(0.7194 -0.05547 6.845e-23)
(0.8261 -0.2684 -1.725e-21)
(0.727 -0.04744 5.255e-23)
(0.8803 0.02893 7.263e-22)
(0.991 -0.06919 -2.868e-22)
(0.6996 -0.05253 -1.015e-22)
(1 0.01212 -1.83e-21)
(0.6024 -0.1322 0)
(0.3049 -0.07626 0)
(0.9049 0.09123 0)
(0.8383 -0.1053 -1.45e-22)
(0.386 -0.1198 0)
(0.7937 -0.07905 2.608e-24)
(0.9998 0.001173 -1.449e-20)
(0.7711 -0.07926 1.053e-23)
(0.8336 -0.3625 0)
(0.8356 -0.1207 -1.586e-22)
(0.9344 -0.2093 0)
(0.3786 -0.1192 0)
(0.8911 -0.32 -3.929e-22)
(0.6107 -0.1226 -6.387e-22)
(0.4894 -0.1324 3.553e-23)
(0.8822 -0.167 -1.405e-22)
(0.825 -0.07736 8.345e-22)
(0.8754 -0.3474 4.219e-22)
(0.345 -0.1137 4.623e-22)
(0.3115 -0.1067 3.864e-21)
(0.4467 -0.1294 0)
(0.9905 0.002104 0)
(0.4405 -0.1263 0)
(0.8571 0.1343 1.356e-21)
(0.9226 0.2353 3.92e-22)
(0.9108 -0.208 0)
(0.8709 -0.05802 0)
(0.9508 -0.1696 -7.016e-22)
(1.011 5.099e-05 7.878e-21)
(0.4407 -0.1285 0)
(0.3057 -0.1057 0)
(0.7404 -0.1195 -2.986e-21)
(0.9344 -0.004806 7.196e-24)
(1.005 0.007563 0)
(0.8711 -0.1358 6.936e-23)
(0.5698 -0.1283 -6.098e-22)
(0.9326 -0.07041 -1.867e-21)
(0.9942 -0.03548 1.423e-21)
(0.9991 -0.007149 -3.263e-20)
(0.7439 -0.06306 0)
(0.8889 -0.07056 7.327e-22)
(0.8247 -0.3436 1.649e-22)
(0.9222 0.03609 -2.023e-21)
(0.7173 -0.05719 7.414e-23)
(0.9718 -0.0004157 -6.065e-23)
(0.6606 -0.4461 -2.37e-22)
(0.8928 -0.006526 -2.659e-21)
(0.3341 -0.1026 -1.703e-22)
(0.525 -0.1342 0)
(0.8016 -0.0983 -4.338e-25)
(0.8418 -0.1058 -4.762e-23)
(0.6269 -0.1107 1.309e-21)
(0.8311 0.0328 1.052e-21)
(0.3373 -0.1128 -3.144e-22)
(0.7887 -0.09387 -9.981e-23)
(0.8898 -0.04841 5.545e-22)
(0.3484 -0.1144 0)
(0.8466 -0.07465 1.36e-21)
(0.7931 -0.07558 0)
(0.8348 -0.05382 2.345e-22)
(0.6455 -0.1319 0)
(0.3866 0.1133 -1.506e-21)
(0.8327 -0.05498 0)
(0.9676 0.001123 1.108e-20)
(0.9894 0.04943 3.15e-23)
(0.6604 -0.1195 4.771e-22)
(0.5126 -0.1331 8.313e-22)
(1.007 -0.0002764 0)
(0.4494 -0.1276 0)
(0.8231 -0.09666 0)
(0.9368 -0.1071 7.826e-23)
(0.754 -0.1095 0)
(0.9705 -0.1384 0)
(1.016 0.001221 2.718e-20)
(0.4949 -0.39 0)
(0.8306 -0.0942 0)
(0.3087 -0.1075 -4.564e-22)
(0.7624 -0.0624 0)
(0.7733 -0.4241 2.993e-21)
(0.6455 -0.4444 4.041e-22)
(0.7155 -0.09702 1.191e-22)
(0.9171 -0.2228 -4.605e-22)
(0.8301 -0.3578 -2.66e-22)
(0.9338 -0.003496 -1.549e-22)
(0.7675 -0.06381 -3.854e-23)
(1.024 0.01795 0)
(0.7279 -0.06164 9.721e-23)
(0.9372 0.01095 0)
(1.029 0.3277 -2.089e-24)
(0.7753 -0.07882 1.424e-23)
(0.7648 -0.07412 1.309e-22)
(1.035 0.2401 -7.226e-23)
(0.003016 0.004741 -8.843e-22)
(0.4245 -0.1265 2.472e-22)
(0.3933 -0.02251 3.523e-21)
(0.9581 -0.07444 3.045e-22)
(0.8269 0.4092 -7.366e-22)
(0.9864 -0.0165 0)
(0.7758 -0.4215 -2.914e-21)
(0.9904 0.04977 -3.932e-24)
(0.3203 -0.1114 -2.331e-22)
(0.5276 -0.1326 -4.453e-22)
(-0.0178 -0.06519 0)
(-0.003825 -0.07333 5.032e-22)
(0.1725 -0.05768 1.444e-22)
(1.004 -0.001222 0)
(0.5425 -0.1323 3.705e-23)
(0.9893 0.03045 0)
(0.9786 0.002424 1.277e-22)
(0.3962 -0.1235 3.996e-22)
(0.8918 -0.3215 2.004e-22)
(0.3843 -0.1197 9.846e-23)
(0.8789 -0.1339 0)
(0.5241 -0.1341 0)
(0.8016 -0.09822 1.224e-22)
(0.4502 -0.128 0)
(0.5712 -0.1077 -3.028e-22)
(0.9711 0.001778 -1.111e-20)
(0.3311 -0.08315 0)
(0.2212 -0.07926 -7.768e-22)
(0.8743 -0.354 -5.19e-22)
(0.7525 -0.07341 -4.065e-25)
(0.2822 -0.0993 0)
(1.002 -0.009784 0)
(0.8367 -0.09576 -5.174e-23)
(0.7757 -0.04377 5.572e-21)
(0.65 -0.1319 0)
(0.9894 -0.009908 2.772e-22)
(0.7217 -0.06012 0)
(1.027 0.4485 0)
(0.2985 -0.1059 1.127e-22)
(1.002 -8.179e-05 -3.247e-21)
(0.6598 -0.1195 3.001e-22)
(0.9643 -0.1334 8.088e-22)
(0.2631 -0.09014 -6.016e-23)
(0.8182 -0.3715 3.996e-22)
(1.076 0.2757 -4.455e-23)
(0.6224 -0.1313 0)
(0.9331 -0.002483 2.002e-22)
(0.3214 -0.1098 0)
(0.8767 -0.327 -4.889e-22)
(1.007 -0.0002346 0)
(0.9261 -0.2434 -2.5e-21)
(0.8284 -0.08128 1.43e-21)
(0.7373 -0.06328 0)
(0.7348 -0.0569 -1.626e-23)
(0.5112 -0.133 -9.07e-22)
(0.353 -0.1149 6.108e-23)
(0.5246 -0.1326 0)
(0.8986 -0.009666 -6.302e-22)
(0.8794 -0.3405 6.976e-22)
(0.3671 -0.1172 1.901e-22)
(0.4418 -0.1286 0)
(1.023 0.01046 4.827e-22)
(0.7581 -0.002791 4.504e-23)
(0.4758 -0.1319 0)
(0.8365 -0.1263 -2.044e-22)
(0.804 -0.08933 3.769e-23)
(0.3346 -0.1144 0)
(0.9998 0.002691 0)
(0.9992 0.003261 0)
(0.8318 0.1036 -3.084e-23)
(0.55 -0.1323 1.301e-21)
(0.804 0.4308 0)
(0.9748 0.003911 4.184e-21)
(1.005 0.001459 -7.897e-22)
(0.8808 -0.3185 0)
(0.8662 -0.3737 0)
(0.3808 -0.1192 6.691e-22)
(0.8297 -0.3585 3.392e-22)
(0.3259 -0.1099 1.935e-22)
(0.3637 -0.1172 -2.256e-21)
(0.9304 -0.211 0)
(0.9898 0.05559 0)
(1.009 -0.0005008 -1.837e-21)
(0.3017 -0.1064 -1.25e-22)
(0.4635 -0.1292 2.26e-22)
(0.9232 -0.2125 0)
(0.9932 0.00195 0)
(0.9158 -0.01464 0)
(0.8028 -0.08375 0)
(0.5025 -0.1343 0)
(0.9346 -0.004816 4.151e-21)
(0.7893 -0.09779 6.116e-22)
(0.9745 0.003104 2.18e-21)
(0.388 -0.1202 0)
(0.3189 -0.05997 9.36e-23)
(0.6715 -0.129 -1.537e-21)
(0.9977 -0.000418 8.193e-22)
(0.3545 -0.1151 7.246e-22)
(0.5522 -0.1341 -7.43e-24)
(0.7449 -0.3872 -1.595e-22)
(1.016 0.001135 -2.696e-20)
(0.8645 -0.1362 0)
(0.2819 -0.1006 -1.808e-22)
(0.9995 -0.007423 3.171e-20)
(0.8391 -0.1056 1.056e-22)
(0.9773 0.01723 2.938e-22)
(0.7442 -0.05813 -4.153e-23)
(0.7569 -0.0776 0)
(0.9863 0.001374 1.371e-20)
(0.5376 -0.1324 9.23e-22)
(0.8227 -0.1111 2.041e-22)
(0.2096 -0.01482 -8.151e-25)
(0.6805 -0.09321 1.099e-22)
(0.7299 -0.09141 -3.739e-22)
(0.787 -0.09134 0)
(0.7999 -0.1006 0)
(0.4311 -0.3212 -1.826e-21)
(0.7601 -0.07152 4.674e-24)
(0.956 0.468 1.003e-23)
(0.7521 -0.01916 0)
(0.3084 -0.1079 -1.841e-22)
(0.8141 -0.05504 0)
(0.7349 -0.06522 0)
(0.9971 0.001903 -1.272e-20)
(0.9061 -0.1903 -6.893e-22)
(0.9823 0.001913 7.891e-21)
(0.4008 -0.1752 0)
(1.013 0.03676 1.472e-21)
(0.7227 -0.09086 1.047e-23)
(1.012 0.0001041 0)
(0.9841 0.02146 -6.253e-21)
(0.8929 -0.08722 0)
(0.875 -0.3479 2.128e-22)
(0.5664 -0.1343 0)
(1.009 0.001925 1.13e-20)
(1.016 -0.002384 1.16e-21)
(0.3024 -0.1067 2.021e-25)
(1.038 0.1349 5.129e-22)
(0.5513 -0.1303 9.672e-22)
(0.7357 -0.06531 3.368e-23)
(0.378 -0.1237 0)
(0.8243 -0.3431 -1.793e-22)
(0.5211 -0.134 0)
(0.8345 -0.3632 8.53e-23)
(0.7256 -0.08025 -5.745e-23)
(0.4348 -0.1281 2.642e-22)
(0.8505 -0.06832 -6.221e-22)
(1.008 0.001982 5.106e-21)
(0.9048 -0.04003 8.97e-25)
(0.7196 -0.07821 0)
(0.9229 -0.1643 0)
(0.8524 -0.08198 -2.306e-22)
(1.001 -0.0355 -5.001e-21)
(1.005 0.001371 7.435e-22)
(0.7669 -0.08827 0)
(0.7824 -0.4367 -3.313e-21)
(0.7673 -0.06394 1.893e-23)
(0.2732 -0.09971 -5.027e-22)
(1.012 0.03806 -1.692e-21)
(1.002 0.0009172 -7.806e-22)
(0.4029 -0.1231 -5.592e-22)
(0.8221 -0.07476 -4.527e-23)
(0.8895 -0.008265 -5.323e-22)
(0.7741 -0.09176 0)
(0.9524 -0.1681 7.551e-22)
(0.902 -0.006809 4.401e-21)
(0.4142 -0.126 -7.645e-25)
(0.9294 -0.2227 1.742e-22)
(0.7206 -0.07775 -1.019e-22)
(0.8521 -0.2185 0)
(0.08691 -0.03388 0)
(0.2875 -0.1026 0)
(0.3491 -0.1145 -6.698e-23)
(0.3371 -0.1131 2.875e-22)
(0.4842 -0.1329 0)
(0.6982 -0.09164 1.48e-22)
(0.7927 -0.09893 -5.603e-22)
(0.6875 -0.09809 2.852e-22)
(0.9228 -0.05507 -3.043e-21)
(0.8114 -0.06772 -1.611e-22)
(0.274 -0.07155 0)
(0.6032 -0.132 -6.336e-24)
(1.016 -0.001091 7.65e-21)
(0.8607 -0.135 -5.344e-22)
(0.8934 -0.2673 -1.982e-21)
(0.6372 -0.1289 2.597e-21)
(1.002 -0.0001035 1.091e-21)
(1.016 -0.001258 -6.506e-21)
(0.07587 0.1354 1.323e-22)
(0.9566 -0.07225 -1.316e-22)
(0.8894 -0.1665 0)
(0.7276 -0.09315 1.362e-23)
(0.7602 -0.4225 1.068e-21)
(0.5875 -0.1326 -1.983e-21)
(0.9568 0.03517 -5.926e-22)
(0.7206 -0.05932 -6.926e-23)
(0.7177 -0.1006 0)
(0.923 -0.242 0)
(1.023 0.01693 7.787e-22)
(1.019 5.875e-05 3.061e-20)
(1.021 0.2027 2.093e-23)
(0.8628 0.1341 0)
(0.6059 -0.1155 -1.085e-21)
(0.6431 -0.1352 -4.812e-21)
(0.8734 -0.3614 2.435e-21)
(0.389 -0.1254 6.704e-22)
(0.8731 -0.3579 5.882e-22)
(0.8061 -0.1033 0)
(0.6231 -0.1343 0)
(0.9958 -0.0002843 0)
(0.7148 -0.04983 9.367e-23)
(0.9718 -0.1376 0)
(0.9158 -0.2103 -5.16e-22)
(-0.02578 -0.08521 -2.99e-22)
(0.8698 -0.1371 2.027e-22)
(0.8385 -0.04148 2.321e-22)
(0.4243 -0.1246 0)
(0.9972 -0.000442 -7.646e-22)
(0.7994 -0.08858 -5.042e-23)
(0.7506 -0.06792 -2.09e-23)
(0.2886 -0.1017 -8.233e-22)
(0.5027 -0.1256 -7.42e-22)
(0.6414 -0.1325 7.329e-25)
(0.7251 -0.0801 0)
(0.8455 0.6541 1.884e-22)
(0.4884 -0.1324 -5.292e-22)
(0.7909 -0.4188 0)
(0.4401 -0.1325 9.36e-22)
(0.9214 -0.2237 0)
(0.7949 -0.08748 2.364e-23)
(0.8173 -0.09057 2.528e-23)
(0.4705 -0.1288 3.585e-22)
(0.939 -0.1887 3.051e-22)
(0.1344 -0.005525 -1.045e-22)
(0.8925 -0.2689 1.778e-21)
(0.901 0.0361 -4.409e-22)
(0.9197 -0.2061 1.871e-22)
(0.8528 -0.363 2.738e-22)
(0.7815 -0.08282 0)
(1.02 0.006324 -2.324e-21)
(0.2912 -0.07435 -8.322e-23)
(0.501 -0.1381 6.536e-22)
(0.3811 -0.1191 2.029e-22)
(1.001 0.000877 -5.386e-23)
(0.2737 -0.09862 7.305e-22)
(0.4473 -0.1294 3.437e-25)
(0.7893 -0.09779 4.383e-22)
(0.9932 -0.000398 -3.901e-21)
(0.6869 -0.09902 0)
(0.3135 -0.1097 -6.239e-23)
(0.6137 -0.1164 1.208e-21)
(0.7903 -0.08001 5.866e-23)
(0.994 -0.0004388 -3.988e-21)
(0.3972 -0.1213 2.886e-22)
(0.2693 -0.0893 0)
(0.4928 -0.1341 0)
(0.6294 -0.1299 -3.858e-22)
(0.9686 0.02748 1.102e-21)
(0.7493 -0.06961 2.891e-23)
(0.2919 -0.2581 2.957e-21)
(1.026 0.02172 0)
(0.9038 -0.1695 0)
(0.9324 -0.2039 4.483e-22)
(0.699 -0.09092 -2.822e-22)
(0.4245 -0.1263 2.216e-22)
(0.9258 -0.2418 1.298e-21)
(0.8693 -0.137 -1.92e-22)
(0.7918 -0.101 4.923e-22)
(0.3855 -0.1203 4.694e-22)
(1.003 -0.0001776 -2.257e-21)
(0.3963 -0.1212 -3.671e-22)
(0.4281 -0.1272 0)
(0.6935 -0.05237 0)
(0.8375 -0.1214 1.404e-22)
(0.9539 0.000708 0)
(0.3974 -0.1237 0)
(0.3538 -0.1151 1.424e-22)
(1.003 -0.0001213 3.883e-21)
(0.385 -0.1198 0)
(0.4138 -0.1259 -6.089e-25)
(0.7548 -0.06571 1.408e-23)
(0.0482 -0.08006 1.586e-22)
(0.7567 -0.06497 -2.665e-23)
(0.2987 -0.106 -5.236e-23)
(0.628 -0.1245 -3.269e-22)
(0.326 -0.1124 0)
(0.9305 -0.2168 1.085e-22)
(1.004 -0.001053 0)
(0.07675 -0.02898 8.978e-22)
(0.461 -0.1307 2.339e-22)
(0.6809 -0.09303 0)
(0.3019 -0.1059 0)
(0.3585 -0.1159 0)
(0.3325 -0.1112 2.196e-22)
(0.3837 -0.1201 -7.817e-23)
(0.7383 -0.06246 2.428e-23)
(1.009 -0.0005413 3.56e-21)
(0.4954 -0.1386 0)
(0.859 -0.1117 9.727e-23)
(0.9952 -0.0002154 -2.498e-22)
(0.3977 -0.1223 5.789e-22)
(1.029 0.3263 9.969e-25)
(0.8582 -0.1311 -1.36e-22)
(0.898 -0.3125 -3.221e-22)
(1.012 0.0004333 -3.541e-21)
(0.5225 -0.1341 0)
(0.3026 -0.09953 1.188e-22)
(1.023 0.01771 0)
(1.014 0.0004581 -3.13e-20)
(0.8491 -0.08376 2.354e-22)
(0.454 -0.1281 -6.33e-22)
(0.3781 -0.124 -3.581e-22)
(0.3276 -0.1108 0)
(0.3859 -0.1199 0)
(0.811 0.0323 1.555e-23)
(0.8595 -0.1182 1.148e-22)
(0.7642 -0.2447 1.96e-21)
(1.016 -0.001036 -6.197e-21)
(0.4138 -0.124 0)
(0.3422 -0.1131 0)
(0.7187 -0.05278 1.939e-23)
(0.7122 -0.05702 -9.951e-23)
(0.7905 -0.3137 -2.485e-23)
(0.9919 0.002442 -1.813e-21)
(1.005 -0.008674 0)
(0.844 -0.002603 9.496e-21)
(0.9324 0.005822 -5.571e-22)
(1.016 -0.0009221 5.747e-21)
(0.8083 -0.104 0)
(0.7416 -0.4485 0)
(0.8256 -0.1064 -5.862e-23)
(0.8091 -0.1153 3.247e-24)
(0.9831 -0.0062 1.505e-20)
(0.3194 -0.1004 1.343e-22)
(0.8168 -0.1003 -9.304e-23)
(0.9984 0.0146 2.119e-21)
(0.7903 -0.09458 1.359e-22)
(1.006 -0.0002194 -3.629e-21)
(0.8043 -0.4031 2.707e-22)
(0.2671 -0.3624 8.37e-22)
(0.7325 -0.09829 -1.463e-22)
(0.8265 -0.03595 0)
(0.7698 0.008237 8.769e-23)
(0.9981 -0.04238 -4.973e-21)
(0.5048 -0.1336 4.502e-22)
(0.8525 -0.2303 -2.611e-21)
(0.7223 -0.05983 0)
(0.2629 -0.07014 1.07e-22)
(0.8066 -0.1061 0)
(0.543 0.697 4.172e-22)
(0.9557 0.004612 0)
(0.9304 -0.1857 8.871e-22)
(0.851 -0.3218 5.561e-22)
(0.5997 -0.1077 1.061e-21)
(0.9946 0.01644 -1.002e-20)
(0.758 -0.1158 2.031e-21)
(0.9079 -0.2913 4.249e-22)
(1.062 0.1857 0)
(0.2737 -0.07263 0)
(0.8177 -0.1355 -1.632e-21)
(0.9941 0.002455 0)
(0.7575 -0.1013 0)
(0.3016 -0.1062 2.439e-22)
(0.8927 -0.2049 -1.476e-21)
(0.7953 -0.0544 -4.138e-21)
(1.022 0.07707 0)
(0.2797 -0.3369 0)
(1.044 0.1166 -4.169e-22)
(0.7012 0.06086 -1.685e-21)
(0.5504 -0.1336 8.687e-22)
(0.3029 -0.1059 0)
(0.5 -0.1385 -5.16e-22)
(0.6649 -0.054 1.305e-22)
(0.977 0.05811 0)
(0.8477 -0.1244 -3.791e-22)
(1.005 0.0009415 -5.075e-21)
(0.9981 -0.0003929 -5.752e-21)
(0.7049 -0.09792 2.186e-22)
(1 0.04811 -2.584e-21)
(0.7401 -0.09108 1.586e-22)
(0.4941 -0.05074 2.131e-21)
(0.3294 0.09338 -7.462e-22)
(0.875 -0.09733 1.161e-22)
(0.9302 -0.04822 4.958e-21)
(1.041 0.3515 -2.03e-23)
(0.9204 -0.2097 -4.784e-22)
(1.012 -0.004247 0)
(0.569 -0.139 0)
(0.3585 -0.1159 -9.739e-23)
(0.9356 -0.04575 -7.805e-21)
(0.554 -0.1281 -1.11e-21)
(0.228 -0.08288 8.673e-21)
(0.3541 -0.02477 -9.437e-22)
(0.9174 -0.1902 0)
(0.3671 -0.3855 5.332e-22)
(0.6772 -0.1285 -8.317e-25)
(0.3239 -0.11 0)
(0.9891 -0.01065 1.196e-20)
(0.767 -0.07272 -1.651e-22)
(0.9162 -0.2105 0)
(0.9617 -0.01818 -5.476e-22)
(0.5324 -0.1325 0)
(0.4688 -0.1313 0)
(0.4794 -0.1297 -5.155e-22)
(1.008 -0.0003443 0)
(0.8633 -0.007703 2.182e-20)
(0.6126 -0.136 0)
(0.8236 0.04546 0)
(0.8984 -0.3017 0)
(0.2273 -0.07875 0)
(0.4717 -0.1295 -3.314e-22)
(0.8408 -0.3634 -9.109e-23)
(0.919 -0.2029 0)
(0.2769 -0.0992 0)
(0.8652 -0.06105 0)
(0.9992 -0.0004412 -2.779e-21)
(0.7664 -0.4491 2.009e-21)
(0.9814 0.1539 1.037e-22)
(1.007 0.0009716 -1.606e-21)
(0.8453 -0.3368 0)
(0.2083 -0.07438 -1.036e-22)
(0.6776 -0.1266 6.532e-22)
(1.011 0.0544 -5.125e-22)
(0.8199 -0.04957 0)
(0.8981 -0.1499 -2.983e-22)
(0.2661 -0.09477 -3.316e-22)
(0.4636 -0.03129 0)
(0.7704 -0.08061 -6.008e-23)
(0.9893 0.05516 -6.39e-22)
(0.9921 0.004769 0)
(0.9112 -0.1794 -2.765e-22)
(0.808 -0.3677 -5.723e-22)
(0.3616 -0.1164 -5.096e-22)
(0.5528 -0.1299 1.027e-21)
(0.3048 0.2485 0)
(0.8736 -0.3654 -1.045e-21)
(0.5897 0.02334 0)
(0.9737 0.03553 0)
(0.8741 -0.3658 1.044e-21)
(0.9395 -0.04164 1.973e-21)
(0.8789 -0.052 -1.052e-21)
(1.018 0.007876 3.472e-21)
(0.3721 -0.118 0)
(0.1712 -0.01047 -1.452e-22)
(0.6659 -0.1235 0)
(0.4771 -0.1329 4.655e-22)
(0.4595 -0.1289 -1.82e-22)
(0.9898 -0.0007149 -2.39e-20)
(0.957 -0.0112 2.699e-21)
(0.3049 -0.1066 0)
(0.9278 -0.2225 0)
(0.3168 -0.1092 -1.798e-22)
(0.8185 -0.1087 0)
(0.3162 -0.1089 0)
(0.3664 -0.1201 0)
(0.7844 -0.06257 0)
(0.9626 0.001634 5.805e-23)
(0.8398 -0.06722 2.049e-22)
(0.5276 -0.07323 8.542e-22)
(0.7304 -0.07467 -9.021e-23)
(0.715 -0.05425 2.32e-23)
(0.4354 -0.1285 0)
(0.8435 -0.1084 -1.701e-22)
(0.3872 -0.1214 0)
(0.3389 0.4082 0)
(0.3371 -0.1124 -1.254e-23)
(0.1499 -0.03603 -5.265e-23)
(0.2352 -0.08424 -2.362e-22)
(0.4563 -0.1286 0)
(1.02 0.006121 7.173e-22)
(1.021 0.0004172 2.298e-21)
(0.4054 -0.1223 -2.857e-22)
(0.3383 -0.1137 0)
(0.9195 -0.1644 0)
(1.002 3.229e-05 1.178e-20)
(0.8196 -0.3767 8.52e-22)
(0.5213 -0.1342 0)
(0.8866 -0.08053 -9.61e-23)
(0.3269 -0.1105 -2.73e-22)
(0.778 -0.08394 2.592e-22)
(0.4027 -0.1233 -2.408e-25)
(0.9108 0.3444 3.345e-22)
(0.9998 0.001137 1.343e-20)
(0.9382 -0.1851 -6.06e-22)
(0.8798 -0.05468 7.257e-23)
(0.8677 -0.3371 1.728e-21)
(0.708 -0.05505 -3.813e-23)
(0.3095 -0.1085 0)
(0.8021 -0.2862 -1.26e-21)
(0.7497 -0.1181 0)
(0.6247 -0.1107 -5.948e-22)
(0.7522 -0.06953 2.942e-23)
(0.7903 -0.06926 1.715e-23)
(0.405 -0.1273 2.862e-22)
(0.8289 -0.3776 -6.657e-23)
(0.7986 -0.09296 1.527e-22)
(0.3429 -0.1132 3.605e-22)
(0.8725 -0.3786 1.214e-21)
(0.967 -0.02131 0)
(0.3423 -0.1204 5.763e-23)
(0.2675 -0.09559 -5.808e-23)
(0.4302 -0.1276 4.073e-23)
(0.6903 -0.08936 -3.6e-22)
(0.336 -0.3744 -2.332e-21)
(0.992 0.03252 -6.676e-21)
(0.3571 -0.0931 -4.609e-21)
(0.5838 -0.1111 0)
(0.9976 -0.001939 2.335e-20)
(1.002 -0.0001568 0)
(0.7667 -0.07636 0)
(0.5689 -0.1342 -1.665e-21)
(0.2146 -0.07745 -2.199e-22)
(0.2653 -0.05466 -4.854e-23)
(0.8482 -0.1246 2.675e-22)
(0.8884 -0.3304 0)
(0.3568 -0.1155 -6.731e-22)
(0.9351 -0.1782 0)
(0.9125 -0.1363 -1.431e-22)
(0.9976 -0.04639 0)
(0.3635 -0.1169 -1.151e-21)
(0.3875 -0.04979 0)
(0.3623 -0.1168 -1.133e-22)
(0.9263 -0.1978 6.222e-22)
(0.2672 -0.09336 0)
(0.3655 -0.1169 -5.12e-22)
(0.9851 -0.00449 1.325e-20)
(0.5344 -0.06965 -5.405e-22)
(0.3113 -0.1091 -1.721e-22)
(1.006 -0.003412 -4.788e-20)
(0.7146 -0.09631 2.086e-22)
(0.995 -0.001908 -4.772e-21)
(0.9942 -0.01505 2.232e-20)
(0.8507 -0.1194 0)
(0.949 -0.1863 6.364e-22)
(0.7166 -0.07564 3.616e-21)
(1.008 -0.007189 -5.426e-21)
(0.79 -0.09463 1.461e-22)
(1.005 0.01353 0)
(1.028 0.3465 1.732e-23)
(0.9543 -0.1769 -1.382e-21)
(0.5564 -0.1401 0)
(0.8469 -0.1033 -5.424e-23)
(0.8967 -0.1748 9.107e-22)
(0.8391 -0.1218 3.364e-22)
(0.4084 -0.124 -2.457e-23)
(0.8088 -0.09224 0)
(0.9778 0.001111 2.616e-20)
(0.9868 -0.04708 4.501e-23)
(0.6723 -0.122 0)
(0.8937 -0.1673 4.679e-22)
(0.3296 -0.1111 0)
(0.3734 -0.1183 0)
(0.6766 -0.04894 -5.754e-23)
(0.3668 -0.117 8.005e-22)
(0.2779 -0.09181 -5.906e-21)
(0.6789 -0.0939 -6.379e-22)
(0.9231 -0.2544 0)
(0.9784 0.01463 6.782e-22)
(0.769 -0.08097 0)
(0.7774 -0.1006 -6.38e-22)
(0.7743 0.185 0)
(0.5182 -0.1403 -4.775e-22)
(0.9319 -0.0196 5.24e-21)
(0.5997 -0.1201 -1.55e-21)
(0.2884 -0.09022 -9.806e-23)
(0.8613 -0.1503 9.78e-22)
(0.9916 3.15e-05 0)
(0.6833 -0.4516 1.278e-21)
(0.5183 -0.1331 2.531e-22)
(0.7765 -0.07612 9.019e-25)
(0.9249 -0.2531 0)
(0.7298 -0.08444 1.636e-23)
(0.8895 -0.1227 -8.925e-24)
(0.5717 -0.1238 -1.531e-21)
(0.568 -0.1333 0)
(0.7771 -0.07619 -8.851e-25)
(0.3034 -0.1072 0)
(0.9153 -0.2483 0)
(0.2615 -0.06918 -1.017e-22)
(0.9991 -0.00261 -7.235e-21)
(0.7958 -0.06419 0)
(0.6103 -0.1157 0)
(0.9958 -0.04189 1.186e-21)
(0.5886 -0.1249 -1.083e-21)
(0.7988 -0.08312 -6.62e-22)
(1.001 -1.335e-05 -5.415e-21)
(0.9299 -0.2075 0)
(0.2882 -0.09831 -3.412e-23)
(0.9939 -0.08181 0)
(0.7865 0.1888 -9.999e-22)
(0.6964 -0.1261 6.877e-22)
(0.4461 0.03367 0)
(0.9461 -0.1666 0)
(1.002 4.64e-05 0)
(0.5535 -0.1324 2.145e-22)
(0.4478 -0.1296 -4.212e-22)
(1.026 0.00975 -4.186e-22)
(0.831 0.1742 -8.621e-22)
(0.9776 0.0623 0)
(0.5141 -0.1338 1.02e-22)
(0.5107 -0.1343 0)
(0.9004 -0.1612 4.051e-22)
(0.9465 -0.04052 6.148e-21)
(0.2734 -0.09407 -4.016e-23)
(0.2485 -0.08885 5.487e-22)
(0.9064 -0.1906 5.784e-22)
(0.8597 -0.1346 -3.629e-22)
(0.4441 -0.1266 4.253e-22)
(0.666 -0.04886 -2.289e-23)
(0.9897 7.286e-05 4.778e-21)
(0.7775 -0.08155 2.061e-23)
(1.006 0.01755 1.543e-20)
(0.4326 -0.1267 0)
(0.7789 -0.3867 0)
(0.6328 -0.1119 -4.337e-22)
(0.9248 -0.2524 1.359e-21)
(0.2512 -0.07651 2.478e-23)
(0.6535 -0.1076 0)
(0.9975 0.004551 -1.167e-22)
(0.2037 -0.08669 0)
(0.3922 -0.1224 0)
(0.4435 -0.1297 0)
(0.777 -0.07134 2.977e-23)
(1.07 0.2784 -9.393e-23)
(0.5379 -0.1325 -8.916e-22)
(0.5134 -0.1304 0)
(0.7127 -0.05631 0)
(0.8407 -0.1182 1.018e-22)
(0.8459 -0.02476 1.426e-21)
(0.4189 -0.03214 -5.625e-22)
(0.3321 -0.1125 -1.672e-22)
(0.7286 -0.05469 -9.294e-23)
(0.8976 -0.1878 8.976e-22)
(0.8502 -0.1278 3.021e-23)
(0.7141 -0.4344 0)
(0.4141 0.02779 1.243e-22)
(0.3099 -0.1057 -4.801e-23)
(0.8796 -0.1492 -1.992e-22)
(0.3756 -0.1187 0)
(0.8295 -0.03491 3.415e-22)
(0.8005 -0.09775 -1.35e-22)
(0.7653 -0.0786 -1.206e-24)
(0.6659 -0.1277 0)
(0.2358 -0.08553 0)
(0.9624 -0.09899 1.782e-22)
(0.9143 -0.1943 -4.414e-22)
(0.9658 -0.1331 -4.051e-22)
(0.8687 -0.1462 -1.223e-21)
(1.001 -2.578e-05 -2.54e-21)
(1.014 0.003913 0)
(0.76 -0.101 5.277e-22)
(0.6632 -0.04544 0)
(0.378 -0.1188 4.514e-23)
(0.8426 -0.0282 -1.294e-20)
(0.3944 -0.08675 0)
(0.3161 -0.1086 -2.457e-22)
(0.9898 0.005225 -3.519e-20)
(1.053 0.1484 1.156e-22)
(0.8325 -0.1136 1.516e-22)
(0.798 -0.05083 4.663e-23)
(-0.008904 0.01245 1.047e-22)
(0.9242 -0.2606 1.879e-22)
(0.3312 -0.1116 -8.897e-23)
(0.1136 -0.04008 -4.075e-22)
(0.5715 -0.139 9.015e-22)
(0.3142 -0.1067 -1.9e-21)
(0.4331 -0.1253 -6.63e-22)