/*--------------------------------*- C++ -*----------------------------------*\
| =========                 |                                                 |
| \\      /  F ield         | OpenFOAM: The Open Source CFD Toolbox           |
|  \\    /   O peration     | Version:  v2012                                 |
|   \\  /    A nd           | Website:  www.openfoam.com                      |
|    \\/     M anipulation  |                                                 |
\*---------------------------------------------------------------------------*/
FoamFile
{
    version     2.0;
    format      ascii;
    class       volScalarField;
    location    "5";
    object      epsilon;
}
// * * * * * * * * * * * * * * * * * * * * * * * * * * * * * * * * * * * * * //

dimensions      [0 2 -3 0 0 0 0];


internalField   nonuniform List<scalar> 
98045
(
1029
1427
1814
312
1274
152.9
990.5
1191
1307
996.4
80.69
377.4
883
1634
757.2
27.69
736
0.5414
0.1883
0.5068
0.184
0.9301
0.1261
32.88
0.1683
1.459
0.07017
0.6035
533.4
0.4875
1.625
19.29
1.146
0.7556
0.1546
0.1621
1.538
31.36
1.362
2.236
0.7754
3.851
1.237
0.03975
0.1213
1.462
2.485
0.6123
0.1143
0.7915
51.72
17.53
0.7767
0.004117
17.14
6.599
11.39
1.68
0.00406
49.67
0.1671
4.669
0.02904
0.001171
0.02769
1.623
0.3207
0.1549
4.556
0.003262
0.4846
0.1626
0.2379
0.008552
48.53
0.144
0.03845
0.7959
0.8188
0.03441
0.08671
31.53
0.8408
1.248
0.1639
0.4978
0.1141
0.02164
0.2093
0.5025
12.27
0.9671
0.2103
0.9014
0.4528
4.164
0.001346
0.7824
6.511
3.664
0.4213
0.03975
0.9316
0.2229
0.1643
1.705
8.578
0.3014
145.7
1.03
1.661
0.1946
0.5235
0.7448
0.8515
0.5467
0.1943
0.3019
0.8092
4.665
38.8
0.1557
0.3985
0.7862
0.01292
0.02916
0.4907
222
0.0087
0.771
3.113
0.2898
12.66
0.03998
1.156
0.1849
0.05197
30.54
0.2349
0.02293
5.13
0.7082
0.1114
2.851
3.882
335.4
0.343
6.689
0.08049
0.06689
10.9
0.4429
1.135
0.06098
0.02154
2.89
4.163
12.58
0.2456
0.578
1.529
0.1582
346.9
3.733
0.8911
10.51
1.495
0.8636
38.17
0.1745
1.133
0.8694
2.709
0.3714
0.8216
0.6947
0.0227
0.3648
0.06995
0.01257
0.1587
1.809
0.7742
0.2849
0.227
0.213
0.7071
737.6
1.204
1.749
0.8756
1.04
0.3916
1.741
0.003342
14.93
0.9569
26.47
0.09698
2.135
2.536
0.7954
3.553
0.04415
0.008566
3.906
0.139
0.01227
26.69
1.508
0.0203
0.8143
0.02659
0.8003
0.002106
1.913
1.568
0.002019
0.2334
0.4089
0.08041
0.02491
0.003509
0.4827
0.4232
0.3194
5.038
0.02378
0.4328
1.352
0.1197
1.227
0.02811
0.2437
0.1899
0.01177
0.1506
0.702
1.598
0.569
0.4849
0.167
8.599
0.493
0.07094
4.195
0.4698
0.0181
0.01217
3.09
0.02309
15.82
1.543
16.18
140.3
0.4838
0.8938
1.25
1.023
0.81
0.01651
2.811
5.494
0.6154
0.5032
0.2433
25.49
0.05401
0.7237
0.3066
86.75
0.003217
4.648
0.08383
25.52
0.9374
0.09409
133.1
1.138
0.2466
1.06
0.5833
5.79
0.4386
0.5081
0.159
1.475
0.8655
0.3568
0.3301
0.02829
38.53
0.5712
0.1984
0.0128
0.03124
23.82
0.6477
98.8
18.27
71.77
54.66
0.5175
7.344
0.3676
0.9242
0.1127
0.3751
1.443
0.1918
0.1271
0.5674
0.498
0.27
0.06826
2.025
0.5403
650.2
0.8628
0.02569
0.4878
1.061
0.09662
2.337
1.547
0.3019
15.71
0.05996
0.7675
5.361
0.3515
4.591
0.8132
27.22
1.516
0.3134
1.439
0.06177
0.1869
0.001065
0.03566
0.1694
0.8659
0.7869
0.1737
122.9
0.472
4.464
4.944
0.1167
197.3
0.5026
0.136
2.583
2.555
0.01597
1.003
0.01204
75.86
12.3
5.535
0.00305
208.2
8.252
0.005781
0.1784
0.04783
0.6806
214.5
0.3663
0.9603
2.404
0.05557
0.4965
1.604
2.53
0.009877
15.03
95.17
0.0009469
1.895
24.73
53.42
2.635
0.4243
0.001694
0.5664
3.069
3.63
2.259
0.05217
0.8449
0.9424
0.04045
0.04229
0.295
2.454
0.2019
0.1254
1.116
0.0009213
0.04742
0.4881
0.6664
0.2518
45.75
0.009126
0.3801
0.3213
0.0496
4.471
0.235
0.072
8.411
0.3662
0.1807
2.194
0.2959
29.25
5.032
0.6229
8.396
0.476
2.688
0.119
0.2233
0.009201
0.1411
0.1452
0.8352
0.3437
0.0728
0.1548
0.1258
0.1585
116.5
0.05254
0.01812
1.024
24.43
2.241
2.674
0.03043
1.274
0.006674
0.5064
0.9594
0.009921
0.008517
0.3757
1.418
1.096
89.75
3.605
101.8
119.5
0.2157
0.6462
0.3824
0.4912
0.008116
0.4607
0.8355
2.633
0.4344
0.03361
0.144
17.13
0.3679
0.383
8.22
1.807
1.381
1.964
0.201
0.01816
0.3512
0.8586
23.47
7.941
0.02594
0.1685
0.8567
0.1164
0.4011
7.433
0.03603
0.05083
0.3001
0.5275
1.701
0.1852
1.472
1.338
0.01516
0.3285
2.673
2.219
2.36
0.5769
0.1694
0.2408
0.1557
5.803
15.44
0.3484
1.52
0.2021
0.3699
0.2988
15.54
9.01
0.6767
4.232
0.754
0.2724
0.6865
0.4987
4.023
1.222
1.869
1.68
0.9109
0.07835
5.93
0.09922
800.1
1.041
23.96
0.01514
3.221
2.42
0.003385
0.7896
0.5288
2.314
6.826
3.732
0.1804
106.4
2.052
0.2154
0.2057
0.8538
2.57
0.5289
8.948
0.06748
0.4707
0.6858
0.1877
1.147
1.345
4.505
0.5141
0.03981
0.2336
0.2722
14.6
0.5926
0.001741
0.2216
19.65
10.99
0.209
18.14
0.04149
0.3891
0.05172
0.2384
0.01891
0.00679
0.1743
0.9689
0.1156
0.178
0.1138
1069
49.21
27.4
0.449
0.01383
26.92
4.093
0.5546
0.1144
0.6969
0.3035
34.05
0.02105
0.5965
5.334
0.0007039
0.4778
0.4865
0.9359
17.32
60.91
22.68
0.241
0.7135
1.189
17.44
0.8533
0.1326
0.01534
0.4896
5.047
0.3335
0.01381
0.006074
16.84
0.5575
1.74
3.255
4.845
1.633
0.7228
6.262
0.01674
2.753
0.004514
1.711
0.6829
1.728
0.1776
0.001652
6.481
0.5262
0.1425
0.006821
0.4965
0.4427
0.02408
1.153
1.054
14.67
0.5025
0.4506
0.01712
13.14
22.55
0.00597
2.03
0.01163
0.829
0.1872
0.4874
0.01964
11.26
0.4499
0.024
38.72
301.6
2.077
1.999
0.2702
0.08209
0.715
0.38
0.5229
0.3186
0.9372
0.001153
51.39
0.3105
0.1604
4.2
0.05184
0.001148
7.037
0.02793
17.71
0.09425
0.5678
0.02533
0.03921
0.52
0.187
1.214
3.109
15.72
7.855
0.4083
0.1869
0.3722
4.203
0.1184
0.3081
0.6596
0.9918
63.46
0.5438
5.834
5.319
1.601
0.2234
0.00617
0.144
0.4196
3.167
0.4345
1.605
0.948
0.01637
4.143
12.86
1.823
2.665
0.7567
0.05108
0.05131
0.9472
50.83
2.058
0.115
0.584
3.742
1.777
0.1407
0.01754
0.5058
0.05943
0.0009643
1.229
0.4604
0.9872
0.004586
0.115
2.323
0.01524
0.002658
40.67
0.4444
0.7924
0.0564
0.5568
0.02043
0.8393
15.6
1.39
0.01699
7.226
9.945
402
4.825
2.034
3.162
2.254
0.00661
8.412
0.6101
0.7193
1.02
1.606
1.382
2.962
4.019
0.4839
0.01441
0.6672
0.1654
2.659
1.505
0.02928
0.02517
0.2616
0.002736
1.305
1.832
0.8173
0.1197
0.2086
0.2677
0.6307
3.4
0.001101
22.47
0.5508
1.056
0.2094
18.19
0.3874
5.35
0.1452
0.2361
0.3472
1.904
3.286
0.1613
0.291
0.1358
0.4148
0.4978
0.5656
11.54
0.365
29.01
0.02254
2.288
0.8798
0.3902
3.669
0.04203
0.3145
6.465
0.002889
0.9613
31.11
28.71
6.546
0.1718
1.278
0.3495
1.262
0.6736
0.9117
0.5327
3.742
0.2711
1.008
2.561
0.4227
1.379
0.4758
8.536
18.1
0.007627
56.87
0.2492
42.95
0.01157
5.315
9.228
0.8311
5.301
0.1882
0.2462
0.05812
0.1346
5.969
0.1374
0.01937
0.1034
0.5294
1.615
1.03
0.3043
5.198
0.6882
0.01401
1.646
0.3171
0.1425
0.4889
1.138
0.4497
43.95
0.1306
0.1582
0.3751
0.2902
1.173
0.1257
0.0009973
4.882
0.01938
174.9
0.2359
0.5836
0.0009865
0.8201
0.7147
0.04325
0.0006715
0.0006721
0.0006806
94.22
109.1
3.137
0.3112
0.5594
0.1343
1.942
0.4313
0.3057
0.7243
20.91
0.282
0.04098
1.039
0.02087
0.6486
7.988
0.02409
0.02449
0.3135
0.2099
0.001662
0.1453
0.7999
0.252
35.31
4.017
0.3208
0.1188
0.2002
7.812
5.775
0.03939
8.84
0.01363
0.4247
0.6801
0.3598
0.119
0.03025
0.05481
1.488
0.3164
18.08
0.6431
1.9
8.024
1.129
0.001059
22.48
0.005183
3.607
0.7628
2.94
22.5
0.01794
0.3741
4.552
0.459
0.1323
0.003834
34.79
0.3071
1.737
9.753
2.392
0.2678
1.263
0.3683
0.929
0.5857
5.418
11.48
20.66
22.23
7.782
0.9528
0.3351
0.2889
0.01992
0.704
2.948
0.02072
22.94
13.04
0.00123
0.001279
0.2651
0.1828
0.9987
0.2725
1.457
0.6775
6.859
0.4643
0.01017
12.55
0.2395
0.01183
1.247
11.77
12.41
34.58
0.3666
382.4
0.07273
0.1336
0.4868
0.2777
0.02029
0.2519
1.791
0.01858
0.1085
2.274
0.4023
0.3202
0.01606
16.5
0.02003
0.1094
1.003
0.694
0.01087
0.04694
12.19
0.03638
0.1397
0.01032
3.646
0.06276
0.0194
0.04224
0.2182
35.28
14.04
0.2499
19.65
0.1803
0.03611
0.4136
38.32
4.254
0.01299
0.617
0.1514
27.92
0.1986
1.165
1.258
0.01184
127.8
0.4833
3.535
0.02661
0.4284
4.049
5.836
1.818
0.3424
71.87
0.9379
0.9349
1.488
2.322
0.02089
4.638
0.7173
19.84
6.236
0.01039
0.01796
3.612
0.01125
2.06
5.423
0.3564
0.5036
16.15
0.1217
8.841
0.0342
0.5183
0.2811
0.4343
0.3313
1.217
1.101
0.3637
2.422
1.954
7.179
0.7679
0.856
1.437
0.09124
0.2472
23.01
0.1877
0.0185
7.622
0.0183
0.8985
0.0355
0.4216
0.2573
119.9
1.15
0.1686
0.117
1.746
1.819
3.031
1.485
0.01813
0.2249
3.488
0.01808
0.01684
3.337
6.163
0.06768
0.9624
1.725
0.2866
0.2217
96.68
2.678
0.0007212
27.21
0.03631
8.687
0.7697
0.5956
1.049
0.06239
0.06736
2.529
0.3825
3.038
1.126
0.1224
3.238
0.6901
0.6517
0.08881
0.2133
0.004547
2.012
0.1386
0.01035
9.06
0.6554
1.051
0.1967
19.13
0.001291
0.03449
0.1494
38.97
0.7474
0.807
0.0951
1.274
0.006645
0.7871
1.775
123.3
0.2678
0.9108
2.351
0.3597
0.5034
2.852
0.6044
3.507
0.285
0.005323
0.5833
1.007
3.993
0.00898
0.3307
0.01598
5.601
0.03828
0.6555
0.3254
0.05616
1.082
0.8328
0.003006
2.984
0.7738
0.3558
0.2486
0.1845
1.087
4.83
10.54
0.451
6.684
0.8548
15.03
1.263
0.009692
5.143
1.47
0.3319
3.861
0.7873
13.28
0.09157
0.003342
1.27
1.123
7.501
0.1923
0.4306
0.2067
0.002217
1.689
0.2826
0.8182
0.002099
1.366
0.5528
5.844
0.06073
20.14
0.6739
256.5
2.374
0.9434
0.02174
5.188
2.454
8.356
0.8606
7.663
0.1783
0.8079
3.594
0.2237
3.579
2.405
0.01725
2.351
0.001646
0.1885
0.1499
51.72
0.4651
19.69
0.8623
0.2528
0.1364
3.416
0.1434
0.005722
0.232
0.5478
1.909
0.6754
0.1666
0.5887
0.9292
2.539
0.2317
0.1384
1.966
0.9846
0.6185
0.03313
0.912
0.7511
5.772
0.4051
0.5432
0.005282
0.03787
1.105
0.01523
9.167
0.2956
0.1878
1.039
0.6466
0.01767
0.01309
26.14
0.002083
0.9246
1.249
0.229
0.02282
2.546
0.1643
61.51
0.01824
0.1178
0.05651
0.08905
0.4781
0.1128
0.3224
25.15
0.1389
6.771
0.5108
0.01661
1.05
0.7465
0.022
0.228
13.61
1.738
0.00665
0.208
0.538
0.5885
0.9698
0.02783
0.1255
0.1982
0.4781
1.21
0.3983
0.00693
15.29
1.997
0.6929
1.431
3.321
1.113
0.0008234
55.45
0.1798
0.3439
23.04
0.03677
0.5119
0.3648
0.04523
0.7832
0.1232
9.935
0.3406
0.2002
0.9655
3.16
0.4425
0.1378
0.02023
0.5247
0.7994
19.62
0.6756
19.47
1.643
0.01984
0.6014
1.702
26.34
0.02798
0.09513
2.839
0.08738
0.7978
0.01928
0.003887
1.426
1.094
0.758
4.241
0.3119
0.01003
0.7987
0.4059
0.06274
0.8358
0.1761
6.407
1.943
0.3689
0.00099
0.1526
2.59
12.71
1.486
0.347
0.1096
0.8333
0.02439
0.03616
1.596
1.322
0.5852
0.1179
8.319
275
0.01238
0.01807
0.3678
0.02631
0.02676
0.02096
1.237
0.6813
1.464
12.32
0.01658
0.002435
1.264
5.234
2.845
8.387
1.918
0.0161
5
0.2859
6.559
1.753
0.2181
5.009
0.2728
0.9849
2.327
0.3284
3.839
1.576
0.2302
0.1612
1.145
22.76
0.2509
1.161
625.1
2.147
11.64
1.151
11.17
0.7599
0.6022
0.144
0.6015
2.001
0.7594
26.79
1.192
0.8035
0.2436
1.866
2.562
0.722
0.006405
0.1765
0.02552
55.53
0.007983
2.123
0.5763
5.141
2.092
0.8673
0.02574
11.45
3.201
83.37
0.3144
0.02303
0.729
21.39
0.1899
0.01822
0.1216
23.06
0.4022
0.6387
17.45
0.1207
33.55
0.2218
0.042
10.92
0.04015
0.08515
0.2813
14.4
0.1268
0.3534
0.1089
1.522
0.01412
0.001093
0.6487
4.765
10.07
3.525
3.38
2.86
17.26
5.986
1.511
0.1843
17.13
0.3183
7.437
0.7993
0.3436
20.49
0.2272
1.684
11.59
5.954
0.5942
0.01351
0.6175
0.302
134.9
0.01937
0.9367
0.1133
1.911
0.442
1.33
13.79
0.3062
34.07
51.29
16.23
0.01823
0.4235
0.9255
0.04868
37.9
0.0994
0.4691
1.913
3.323
0.6467
0.02989
11.66
0.1837
1
1.945
3.283
0.3094
0.3713
2.424
0.468
3.46
0.02189
0.09257
0.1361
2.54
0.1895
0.02128
0.1403
15.53
2.915
0.9728
1.877
0.3168
0.3207
9.757
1.525
8.2
1.68
1.126
0.004831
0.1135
2.038
0.04686
1.637
4.484
0.5869
11.66
4.347
0.1174
1.248
12.63
23.67
0.8996
26.26
0.05313
0.001247
1.07
1.132
0.008404
0.8493
12.9
3.632
0.2522
8.031
7.132
0.3813
1.766
0.5634
8.905
0.002862
1.131
0.03062
1.537
2.878
0.2581
11.5
3.841
6.896
0.3102
0.9276
10.37
1.112
0.02687
0.8724
11.98
0.3875
31.01
1.06
0.173
2.105
109.1
0.517
0.01266
0.8666
0.205
0.4195
0.02442
8.908
0.001532
5.696
1.306
0.3124
31.32
0.448
0.27
0.2538
0.2449
0.7797
1.638
4.545
0.2973
0.0759
0.08177
0.9854
0.753
0.3796
3.922
0.1959
3.817
0.2311
0.4452
0.5726
2.293
6.579
5.724
1.701
0.2354
0.007671
0.5125
2.732
1.964
0.02068
0.04872
0.4552
0.1363
2.691
0.001557
0.8354
0.8552
0.2365
0.412
0.01795
0.0008947
0.4371
1.172
0.2894
0.04133
1.035
0.1305
0.0479
16.81
8.772
0.2056
18.31
0.0006241
0.01806
1.669
9.041
0.01785
0.01611
7.278
0.02633
205.6
0.01073
1.442
2.16
33.15
3.41
0.1347
1.054
0.6996
1.412
1.57
0.08506
0.1954
0.6801
0.6764
0.1995
0.01339
0.4064
10.24
14.21
0.431
0.9742
0.372
0.2531
2.87
0.1228
1.566
0.01092
0.5912
3.842
58.9
0.09442
0.02774
0.09218
0.002814
0.314
0.012
0.5053
0.2155
0.03714
0.4439
4.351
10.32
3.237
0.5696
6.092
0.9834
0.02269
0.4363
0.0007272
1.345
46.51
0.6379
2.118
2.359
2.389
2.691
0.5905
0.5779
0.03763
0.1242
0.8422
1.246
0.4571
0.2674
6.173
4.006
2.567
4.835
0.02769
0.7457
1.615
0.6443
0.271
0.001309
0.001332
0.1057
1.157
0.6145
0.1393
0.0295
0.01873
0.01597
1.762
0.3996
4.533
0.2841
14
0.02691
0.1077
0.3172
0.01191
7.684
0.1233
0.7436
0.05864
1.135
18.05
0.0006697
0.0318
0.01276
0.01976
8.08
3.41
0.739
0.2347
0.9297
0.5643
1.577
0.1572
1.128
1.617
29.85
0.1451
7.656
6.183
0.2408
0.3644
0.5115
0.8181
0.2957
1.473
0.007714
0.3925
0.2415
0.203
8.903
29.06
0.1977
10.79
0.3006
0.3441
3.473
0.5689
0.2958
8.547
0.5768
0.1149
0.01744
0.008282
5.717
0.3169
0.2367
0.4936
31.04
26.92
0.1583
0.08508
0.7317
0.3768
0.2351
0.5244
0.6728
0.01444
0.2609
0.5083
0.04331
1.434
10.21
0.003945
0.9006
0.004513
18.63
4.8
0.01687
12.12
0.4866
4.989
0.4835
0.3687
0.9609
0.2075
0.3135
0.6454
1.186
0.1202
0.1024
0.9109
1.274
1.196
0.1138
0.2843
1.017
1.528
0.4679
32.52
1.223
0.1386
0.4951
0.1655
0.1572
0.6701
4.642
1.251
66.16
0.001054
1.122
0.00124
0.04096
0.1123
0.01243
1.573
0.2775
9.542
0.09269
2.359
0.4237
1.448
2.773
11.82
0.03394
0.3002
0.6498
1.641
13.74
1.722
0.2661
2.479
0.1654
0.7187
106.1
2.074
0.1235
0.4706
2.686
0.7262
0.3492
0.01791
1.448
16.52
0.3691
0.006612
0.05212
1.635
1.59
0.9417
1.551
1.413
0.6058
6.966
0.2335
0.1981
0.5197
0.7459
0.5213
0.03528
4.623
0.591
0.8667
0.3034
0.1314
1.666
0.002863
13.11
0.5314
45.34
28.03
0.04842
0.5822
1.96
0.3481
1.58
0.7486
2.905
0.3919
0.05965
0.2508
4.067
1.219
26.66
0.2921
20.92
0.2798
15.53
0.008489
1.01
0.02305
0.02566
21.12
0.031
4.798
3.093
0.1202
2.547
1.302
0.2435
26.6
0.5906
0.03084
0.6263
0.6787
0.5735
1.567
0.3001
0.1719
0.1801
0.3384
0.2391
1.286
0.3817
0.02891
0.02573
0.02566
0.03612
0.1683
24.6
0.8878
0.4641
0.0025
1.295
2.202
2.292
0.04181
0.07366
7.535
1.418
6.769
1.757
0.5282
0.05745
8.644
225.9
0.003344
0.09771
1.367
0.4217
0.3617
0.002718
0.005948
0.02238
0.08259
0.9991
0.05108
0.3655
0.09574
2.284
0.4662
1.133
0.5239
3.387
3.172
9.658
0.2466
0.1698
8.218
1.425
0.6725
27.93
151.6
2.474
0.01575
21.4
1.788
0.003843
0.5444
0.9027
1.187
7.795
0.4256
0.5643
0.02367
2.427
0.885
5.428
0.001827
0.6977
7.307
0.005097
0.03668
0.7022
1.309
0.3692
2.743
5.265
2.236
0.006009
0.01356
0.2571
0.6235
2.72
0.2346
0.3363
0.1235
0.04261
0.01011
3.836
11.82
0.2411
0.001007
0.02571
0.1765
0.7664
0.05031
0.003376
2.953
0.5722
0.03548
0.9676
0.08556
24.86
0.6538
7.376
4.454
0.5449
0.2476
0.1087
2.042
36.64
0.003134
1.128
0.183
1.273
1.698
6.438
0.03758
1.478
0.8616
7.691
0.3746
5.759
8.081
0.7788
0.9408
0.01618
0.5196
0.01339
0.3599
0.4671
4.406
1.028
0.5129
0.0172
0.1593
0.499
2.919
1.357
0.7948
2.161
0.01174
0.02074
0.01829
2.954
0.1535
1.482
7.053
0.2543
0.6438
0.7924
0.02086
0.0158
0.2749
0.05577
0.9616
0.013
0.08415
0.004123
1.123
8.942
52.1
0.01184
0.8351
2.518
0.5371
0.7545
0.0386
0.01819
0.01602
2.57
0.1783
0.01332
5.103
0.03431
6.226
1.667
1.322
1.259
0.001504
0.4906
0.001697
0.2443
0.4671
1.877
0.01103
0.2612
9.111
0.02045
1.932
0.2428
0.04604
0.6098
0.299
0.001137
7.736
17.92
4.639
10.93
4.351
0.00343
0.8499
0.2669
0.3541
3.577
1.022
0.5673
0.01558
0.5732
3.685
0.02348
0.1943
0.5091
6.128
1.456
6.067
0.1776
0.9286
28.08
8.155
0.4297
1.467
3.225
0.009178
0.7711
0.09617
0.7787
65.92
3.88
0.003008
0.01479
42.31
3.216
32.96
1.573
0.8842
2.736
0.01764
57.62
0.9974
0.9587
0.5499
0.2734
0.04154
1.076
2.078
15.6
206.5
0.04123
1.17
0.4572
0.001039
1.049
5.059
1.493
0.1075
1.113
0.4761
3.689
0.1216
92.92
0.001435
0.04578
2.386
261.8
0.001678
0.3216
0.01556
3.439
1.913
0.6998
0.4465
2.199
1.375
0.06204
32.79
0.2461
0.8207
2.615
0.1357
0.01056
0.4158
6.498
10.64
0.256
32.62
25.34
0.01387
19.46
0.02773
0.3142
0.01214
8.53
3.492
15.95
106.6
0.2584
0.3633
2.329
0.9311
0.02692
25.86
15.3
1.678
0.0006889
12.65
21.35
0.01813
1.305
0.08943
0.8701
0.02741
0.5413
0.01217
0.5463
0.02562
0.005695
397.9
5.174
0.3255
8.897
0.9762
0.3753
0.01783
1.648
23.78
0.3786
6.628
0.5424
0.8438
0.1414
0.02094
1.154
0.6472
12.87
0.5345
4.532
0.1142
2.256
0.001016
5.49
0.02265
0.3221
2.951
4.272
0.6726
3.512
0.2936
0.8593
0.9446
0.009957
0.02793
1.85
1.822
18
2.459
0.1421
0.3288
7.461
9.745
1.181
0.02472
0.4033
16.65
0.2421
1.82
0.8794
0.6885
0.7608
0.3821
0.7697
34.91
1.078
1.961
0.3376
41.53
8.462
0.601
51.46
9.489
0.7052
18.21
6.382
2.292
0.01075
0.02295
4.824
0.02191
0.9401
2.692
6.076
0.375
1.342
27.31
10.97
0.5583
0.0008394
0.9272
0.9402
5.875
0.5294
0.01867
0.01838
7.343
6.936
0.1696
0.2895
0.02235
0.1237
0.7333
29.75
0.03297
18.15
2.032
1.704
0.1837
0.7869
9.596
1.163
0.01549
0.1705
0.02006
1.649
0.02625
27.2
0.195
11.48
1.511
1.077
1.006
0.2785
5.089
0.0185
9.229
148.3
159.5
7.551
2.55
0.8627
0.4927
9.718
0.6988
1.837
0.2469
0.7146
8.838
0.1695
0.1879
8.565
0.05132
15.83
0.05766
0.06626
0.03387
0.02884
0.0103
2.221
2.196
0.5713
0.6979
0.002142
3.801
0.185
2.234
14.79
0.02483
0.1857
1.098
9.498
0.3517
0.546
0.119
17.45
0.2588
1.368
0.0149
0.8857
0.03545
1.074
0.4938
0.6316
0.009745
0.3832
5.289
1.13
11.73
12.84
0.3235
0.006725
0.00323
0.7965
0.9724
0.9178
7.222
0.3535
4.057
0.2943
0.7737
2.318
0.03951
11.66
2.961
16.01
0.008436
39.08
1.005
1.755
3.116
0.6452
0.5468
0.1756
0.5479
6.671
0.4987
23.86
0.12
0.2262
2.179
4.368
0.4225
7.578
11.08
0.8737
0.5809
0.616
0.03578
3.551
0.1531
2.149
0.9526
1.764
2.617
58.08
0.1915
1.379
3.675
4.188
1.628
0.02043
0.01942
21.78
2.283
0.1223
0.5089
0.5227
0.008089
4.688
0.6897
0.8577
0.4504
0.4114
0.4683
0.1998
2.493
1.615
2.99
9.469
0.02662
2.347
0.07013
0.0202
0.5145
31.13
13.75
0.4113
9.755
1.177
0.1179
0.04677
0.8033
0.4
0.04141
0.1847
0.3261
0.05987
34.88
0.8933
0.2439
0.02659
0.3309
0.3787
4.635
5.033
7.115
0.1739
0.02023
1.338
0.109
0.06143
0.1361
0.01387
8.808
0.1408
1.177
21.4
0.02145
0.1052
1.76
0.556
0.2653
1.536
16
1.22
0.336
18.96
9.994
0.2025
2.758
4.167
1.769
0.5041
0.01201
9.915
2.319
12.36
12.46
0.01033
0.4116
0.04637
0.002042
0.2192
0.04438
0.4898
0.5159
0.4497
0.3735
134.9
0.3973
0.7451
0.4969
0.4262
0.07186
0.1065
7.102
0.001034
0.9674
0.202
7.71
0.02541
14.28
0.0103
0.6328
1.133
0.2165
0.4901
0.002029
46.29
1.744
0.00465
0.1686
0.266
0.337
3.735
3.767
0.04187
0.3084
0.8209
0.01594
1.138
1.111
0.3013
0.02647
0.6653
0.3567
0.7335
0.02131
3
0.278
0.4922
0.1369
0.02087
0.009697
0.3817
0.1903
1.382
0.5223
0.5538
0.5402
20.25
1.155
32.43
0.2886
33.42
0.6862
0.01236
1.057
0.1924
0.0106
0.06199
91.08
0.003602
0.03121
1.114
0.5395
0.1939
6.836
0.1358
36.97
12
0.01872
17.75
1.372
0.08335
0.4599
1.043
0.6392
1.96
0.1852
3.169
0.4244
0.4218
2.78
0.3162
1.319
0.7807
0.02254
0.8849
0.7504
0.007244
4.362
0.01775
9.592
10.44
0.01638
0.09887
3.322
1.815
0.3035
0.08848
0.9776
0.6422
0.51
3.161
0.02642
2.263
11.37
0.003951
0.4519
0.1371
0.01974
0.2515
0.3965
1.338
12.9
0.04956
2.514
0.2794
1.021
2.084
3.985
0.02462
1.191
0.5805
0.2446
0.1482
1.313
0.5672
0.2075
0.2436
20.06
32.24
0.006096
17.58
31.14
0.4627
22.3
1.373
0.1826
0.1351
0.1359
0.6933
27.37
0.147
0.3366
4.457
1.86
2.848
1.071
0.6363
2.187
3.953
0.5602
0.5725
0.004055
0.006026
0.795
0.2036
0.1221
0.1496
6.24
0.02675
0.6076
14.78
1.368
0.193
2.361
0.1432
0.02743
0.409
0.002475
56.27
1.989
0.2224
0.1889
0.01884
0.01862
0.3378
0.2212
0.7838
0.01936
0.114
0.6957
0.01654
11.62
4.192
0.2251
1.508
0.001806
3.19
0.09439
0.002882
0.1019
0.0008235
6.294
0.1695
0.5861
98.18
0.07033
1.218
7.062
63.89
1.803
1.358
22.62
0.4713
8.508
0.747
0.01303
1.209
0.3188
0.01961
0.01257
0.4027
0.2647
0.2677
0.5545
0.03076
0.1378
0.001927
16.89
0.02873
3.1
0.01921
5.454
15.22
0.4398
0.9486
2.982
0.3082
0.03346
0.2051
5.731
0.5727
5.277
27.1
6.633
0.01811
0.01979
7.04
0.8064
1.692
10.08
45.13
0.4605
4.489
0.03125
0.8363
265.6
0.003366
0.4043
13.5
0.1885
45.58
10.39
3.268
0.2442
0.1935
0.09609
7.684
0.5709
0.2355
0.6579
19.94
0.1034
16.06
1.05
0.2911
0.1896
0.2222
0.02638
0.02955
0.1932
1.195
0.7704
3.146
0.5046
0.02544
1.714
22.88
0.2028
0.2474
0.1022
0.411
0.01952
0.01074
0.9045
1.686
0.5382
7.804
0.002918
0.001889
0.1884
31.46
19.3
0.5964
26.89
0.04572
31.21
8.045
1.287
0.01733
48.23
11.55
0.2292
0.001921
0.01808
0.1931
0.2258
11.29
7.743
0.02208
0.0156
29.55
0.05763
0.05303
0.01869
0.1509
0.1276
0.02506
1.982
1.031
0.6451
56.04
0.6608
0.02191
1.305
3.057
2.23
0.348
0.1447
4.158
259.5
1.986
0.7096
0.5637
0.003002
0.2161
6.227
0.7583
12.26
0.6001
0.03704
4.205
24.98
18.22
0.3107
0.3455
0.4727
0.02055
0.01446
9.737
24.96
0.0177
1.223
7.036
0.2216
0.3214
0.5151
0.5061
0.2011
1.534
0.9809
1.634
0.2064
5.23
0.006451
0.1315
1.687
0.0197
22.68
21.24
0.03125
1.424
0.2714
0.5223
0.2942
0.004856
34.41
0.01608
8.65
1.029
0.1258
9.288
8.293
12.72
4.428
0.3229
0.2853
0.4435
0.2803
1.147
5.775
0.7835
0.856
3.724
0.03174
2.552
0.02234
0.008683
0.6602
8.411
0.2654
8.708
0.08007
0.8017
0.0378
4.48
0.9194
0.3793
0.1947
0.1081
0.7207
35.5
0.3528
3.378
0.1249
0.2014
3.207
4.053
0.2313
0.103
0.398
1.87
0.01305
0.1432
2.845
0.0009283
0.8644
27.47
0.5108
0.004488
0.1797
0.01987
1.379
0.1364
9.578
1.566
2.647
8.342
0.2168
0.006712
0.29
0.06282
0.7544
0.2665
1.283
1.624
0.662
7.981
24.23
5.999
0.4814
0.01901
1.621
8.435
0.4272
0.7229
0.3274
1.092
0.03369
0.0968
0.7172
96.93
0.02476
0.2955
6.749
3.342
9.896
0.01987
0.6569
0.1323
81.52
0.7568
0.101
0.01956
0.3516
0.06351
0.04876
2.347
0.6545
21.46
0.3923
0.5844
0.00403
1.461
8.237
9.491
0.6339
0.7189
0.5548
0.06115
0.8766
0.001986
0.2184
0.1826
0.02573
0.2875
0.01995
0.01177
2.979
3.065
0.3391
0.3309
3.122
14.68
0.3377
9.907
0.5121
122.4
22.44
1.493
14.3
0.1885
11.49
16.47
0.01897
8.056
71.23
0.6753
1.487
0.8356
4.712
3.772
1.261
0.4069
28.06
1.397
0.1482
0.04669
0.8998
0.004704
0.1019
0.007844
0.01644
1.348
1.125
0.463
0.2773
0.4232
0.01454
38.22
25.87
19.82
8.717
6.38
0.128
0.3775
1.42
0.2721
0.3896
0.001268
1.973
2.359
0.7754
2.291
83.06
0.574
0.8775
0.9166
6.624
6.941
3.18
0.03363
1.958
10.03
0.01806
32.63
1.549
1.044
0.7469
4.853
3.836
1.164
0.771
0.0908
5.674
0.9358
0.5603
0.08748
0.009157
0.01527
1.656
4.022
0.554
1.213
6.447
1.641
0.2583
0.7021
22.92
1.778
0.03319
0.001752
0.001884
10.87
0.8732
0.417
0.3986
0.3751
0.001294
5.279
0.492
0.3706
1.632
0.04145
0.02168
26.16
0.911
2.448
0.04011
165.2
2.542
2.44
0.4096
0.2712
1.43
0.5207
0.6243
1.403
0.1445
0.2909
8.723
6.541
0.1664
0.425
0.1779
0.09436
2.966
0.251
0.872
0.3804
0.1804
1.456
0.2195
4.12
8.271
0.362
2.127
2.133
6.269
16.21
10.61
0.02207
0.113
0.4023
2.309
67.09
33.81
0.689
15.36
0.003299
2.531
2.164
0.4044
0.5393
3.387
0.2498
0.4227
0.003326
0.003332
0.458
268.9
60.47
0.009117
0.0368
19.98
2.315
0.328
0.3323
24.3
0.05981
1.735
0.7762
3.54
0.4875
62.74
0.1611
7.529
7.57
0.01065
1.505
8.768
1.521
9.467
0.4884
0.03665
1.513
0.001761
0.01675
0.03604
0.3003
0.7858
1.329
0.1714
1.44
0.01578
55.73
0.02174
7.569
0.162
9.418
42.51
0.01054
2.784
16.28
0.09409
0.03548
2.636
0.005131
0.04031
0.9324
0.9123
0.5739
0.5586
0.517
0.5688
0.08525
12.04
0.01882
0.09958
59.35
11.08
1.371
0.1449
1.576
14.52
64.23
16.55
3.549
0.8407
0.501
0.6588
0.1269
0.2401
1.838
55.83
13.96
10.64
0.2495
405.6
0.1815
0.07395
0.5775
0.8214
1.354
7.994
0.000642
0.7742
2.891
1.043
0.02173
6.168
0.47
0.6238
0.8815
0.001909
5.294
0.05883
1.28
0.1911
0.03327
1.531
0.004662
2.611
8.776
31.11
0.239
0.03041
0.7048
2.389
0.52
0.6863
4.402
0.4022
0.7673
0.9343
1.671
0.2684
0.05252
0.3777
0.1174
0.2806
0.1888
0.1363
16.97
0.2933
0.2513
1.166
11.89
3.725
0.06875
1.109
9.103
12.4
0.02674
1.047
4.699
11.09
3.807
0.2446
252.2
9.719
39.31
0.01721
1.987
0.3365
0.325
0.7538
1.014
0.1624
0.817
0.2236
0.2574
0.04842
0.01335
10.5
0.01623
69.37
0.006976
0.3792
0.5214
1.897
0.1178
22.31
0.3607
1.908
14.38
0.4163
1.473
1.009
5.027
0.03248
1.617
1.066
2.273
0.6246
0.6965
2.24
3.174
2.471
0.3106
0.001048
0.1992
0.6077
46.43
0.006569
16.96
0.1271
0.2519
0.09257
0.08531
1.063
0.003172
11.09
0.948
4.372
2.734
2.472
0.002972
0.0009464
0.2696
0.2853
0.2624
0.9737
0.3455
0.5848
0.005125
0.04116
0.1497
0.01572
0.2773
0.2345
4.986
6.71
2.428
26.05
13.42
0.4818
0.2416
10.41
0.2472
0.9173
3.534
0.7462
0.7454
0.1947
38.09
2.485
3.276
24.66
0.04458
0.9708
0.2834
5.194
0.01624
1.339
0.5612
0.01866
0.2786
0.04003
57.44
1.089
0.3964
2.133
0.5206
0.7325
0.1498
0.001375
3.793
0.008023
8.264
35.28
17.47
0.3609
48.84
0.1014
0.2138
0.1898
1.987
0.02717
0.3418
0.4419
24.71
17.31
0.2204
0.132
1.727
0.4486
87.61
21.1
26.44
8.528
0.0007679
0.9462
1.229
0.2768
30.08
0.2287
1.587
0.1369
16.05
0.23
0.2539
2.486
10.08
0.001315
0.242
0.02255
0.04271
0.2765
0.6461
0.07466
0.09642
0.01808
2.979
3.855
9.285
89.38
0.1381
0.0008517
0.2221
7.905
0.01733
3.721
0.02066
1.652
0.3659
0.5266
0.1557
3.163
0.6112
0.5441
15.41
1.456
4.807
0.1883
0.002767
0.2347
1.764
3.285
0.2525
0.2758
0.3433
0.02092
4.818
9.07
0.009015
0.03443
0.2922
0.1127
32.04
4.433
77.76
4.62
0.1533
8.048
0.01475
16.62
18.99
19.72
0.1219
0.1762
2.075
0.02385
0.007668
23.53
0.712
1.051
3.03
1.303
0.1333
3.208
0.9434
0.2147
0.001298
0.003198
0.5043
0.02526
1.642
28.92
0.2383
0.762
0.06967
5.404
0.4498
0.2594
0.1716
0.5389
3.018
0.3293
0.02611
4.451
0.1715
0.1574
0.4279
9.258
0.6978
0.02827
5.567
0.09137
0.3553
0.73
0.216
0.3322
0.1691
0.1392
0.366
0.03002
8.236
0.01914
1.121
0.6056
0.002854
0.002761
0.03811
8.685
0.0005455
1.578
2.216
0.1516
0.3916
0.3833
0.1186
0.02367
0.1058
0.001767
2.346
1.064
0.3585
0.7521
302.9
22.14
11.43
0.04706
42.92
11.44
5.357
0.0382
1.173
0.9365
0.1746
16.13
0.6067
0.2027
12.88
0.7019
7.73
1.52
0.0257
0.3881
1.771
0.7221
7.632
0.8942
0.8231
0.1697
4.626
0.002069
1.113
0.6573
0.2484
6.979
3.876
1.913
1.201
0.2678
0.1222
0.5118
18.69
0.3541
29.99
4.81
54.44
0.02969
0.618
0.00109
0.001278
0.946
0.0007647
0.2557
0.211
0.08246
0.2524
0.02718
1.783
0.2831
1.858
0.01656
0.2368
1.445
0.0006818
1.572
3.185
0.01607
0.113
7.486
1.812
32.67
0.4057
0.2285
0.6592
4.845
2.914
0.1877
13.12
79
1.799
0.5696
12.74
1.413
0.7171
0.02277
0.5695
0.09063
0.6183
0.07627
0.4799
0.1072
0.7251
0.2026
0.3196
3.78
3.912
3.864
0.8799
0.7963
0.731
0.0194
1.836
26.23
2.112
8.629
0.3419
2.017
0.6839
0.2283
12.54
0.9525
0.5665
0.4506
1.563
1.104
14.76
4.78
0.01291
0.8022
13.66
1.181
1.053
1.659
3.108
0.1153
10.12
4.986
27.54
1.325
0.2953
0.4233
0.4529
0.0009975
1.162
3.697
0.2969
0.03259
34.78
28.83
0.01459
3.999
0.8033
0.6295
0.6901
19.24
0.04266
0.2105
0.966
12.41
0.3436
1.758
1.134
0.8694
0.5136
0.4972
0.6633
0.02343
1.718
0.1119
9.564
1.304
0.7624
0.4486
0.4742
0.4532
6.162
0.161
0.2222
1.231
0.00111
2.003
1.215
0.5153
0.01348
2.223
0.0006436
0.1581
22.15
0.6304
0.1933
0.01808
24.71
0.5617
0.9585
18
0.3523
0.1054
3.871
1.866
13.61
0.1141
0.03582
31.31
5.947
0.02541
0.4128
87.31
17.44
0.01961
2.332
0.6812
1.362
0.3578
0.01742
4.519
1.044
7.103
1.293
0.4146
16.42
44.85
89.13
0.3383
1.627
230.3
12.8
0.1462
4.011
0.008069
0.2908
6.075
33.84
1.703
0.6822
0.4164
0.6242
0.01553
1.946
0.06809
0.1235
2.258
0.01758
30.47
16.33
0.06346
2.912
1.216
0.2058
0.4465
0.0008265
0.6327
0.7335
6.18
0.4178
0.04639
0.06702
1.135
0.001404
0.0252
0.02058
26.7
0.5025
16.35
1.108
55.67
0.3311
0.04088
0.1184
0.3978
29.79
0.04275
1.621
7.906
0.02801
0.3978
0.4007
0.3585
0.0007512
0.06174
0.07102
0.2085
0.02093
115.9
0.1629
0.04163
0.5953
10.07
0.1449
1.644
2.813
1.393
0.1628
0.9235
0.2184
0.1163
0.001747
0.3278
5.473
1.008
0.2188
0.7439
0.02012
9.924
3.692
0.1238
0.008945
0.5548
1.702
86.15
0.2288
4.281
0.9158
0.3866
21.1
0.02043
0.003033
0.975
8.758
0.736
0.2191
0.1116
0.7643
2.647
0.001964
2.066
0.01571
6.942
0.1809
0.08238
1.124
2.186
4.026
0.3128
9.342
0.3209
9.222
2.142
1.185
1.559
2.078
2.094
7.327
0.3222
0.1617
0.03735
5.477
0.8653
1.275
1.386
19.09
0.9174
0.4255
0.01228
0.3108
4.653
34.89
0.509
0.4665
0.3343
0.1855
0.2245
0.7615
8.018
1.132
0.001512
2.207
1.868
0.3619
0.05455
0.5555
0.5786
1.143
6.378
0.772
5.747
8.097
0.0179
0.4068
0.2933
0.9192
0.6523
0.4071
2.923
0.002819
0.3448
0.8168
1.332
0.2137
0.3676
1.032
0.006237
11.96
0.01833
0.7094
2.322
0.6356
0.2199
5.918
0.02771
0.5358
9.529
15.93
0.02533
4.81
0.7882
307.8
3.856
2.464
0.4518
0.001524
0.387
15.97
0.01768
0.5075
0.001189
0.1076
0.007279
1.411
99.34
9.16
91.52
0.1297
3.22
0.2745
0.1534
0.7648
0.8785
0.01938
0.01918
2.185
0.7873
17.91
3.081
7.977
29.54
0.3783
2.212
0.3845
19.75
0.6495
0.001307
11.45
17.88
0.1086
5.338
18.11
0.5632
0.2811
1.688
1.109
0.649
14.92
0.007694
11.56
0.181
16.6
2.898
0.02084
0.4484
0.09402
1.623
59.66
1.023
4.261
0.004462
0.01202
0.416
10.11
76.37
0.2468
0.02473
1.103
0.02409
15.88
0.03063
16.29
1.194
0.01451
1.459
0.21
0.4548
0.2281
0.7164
0.3867
33.2
0.9739
0.2417
0.02181
0.2243
0.02331
0.7226
0.1303
0.1586
0.512
19.49
44.52
42.1
1.996
14.47
0.1904
1.102
5.683
1.177
1.313
0.147
69.87
1.161
0.8421
11.43
0.378
8.927
0.01226
14.42
0.2452
0.09946
0.07248
0.2735
0.242
29.12
0.1516
0.6355
0.03355
412
60.06
2.103
1.535
0.008164
0.3157
1.081
21.12
4.103
0.635
0.5781
0.2232
0.4579
0.2009
4.104
0.008967
0.3817
0.6434
28.88
0.6668
0.06484
9.509
0.4959
0.7931
0.01459
0.008184
11.24
1.667
0.8066
5.591
2.341
0.07761
0.1957
2.008
15.83
0.2235
0.343
0.4316
3.45
372.3
1.02
19.38
0.5947
11.76
0.7335
0.3608
0.3296
2.289
0.2529
0.005165
0.3668
0.1244
0.1351
0.02812
0.01111
0.2056
0.1661
6.585
0.01287
49.49
6.993
0.9762
0.02525
0.01766
0.2655
7.935
0.09047
0.01826
0.3898
2.608
26.08
0.129
3.333
0.5892
0.1674
2.267
1.56
0.3694
61.79
0.01499
2.882
5.207
0.001085
8.441
5.75
0.1657
1.181
1.563
0.9791
29.16
0.7349
0.02015
0.046
0.5721
0.1604
0.001016
0.2234
0.2664
0.04472
0.1483
0.01994
0.2618
0.013
0.3427
9.061
8.868
0.1287
0.9341
0.442
0.105
0.3296
0.7213
0.01017
0.01136
0.1434
4.171
4.128
0.5863
0.3775
2.231
18.5
0.3334
0.0008276
4.492
0.9714
1.412
1.347
0.4336
0.03113
0.5785
0.4361
0.3979
0.09891
1.037
9.379
32.21
1.647
0.7781
0.1468
2.106
45.71
0.1359
1.084
66.57
0.3326
5.452
1.004
0.3093