/*--------------------------------*- C++ -*----------------------------------*\
| =========                 |                                                 |
| \\      /  F ield         | OpenFOAM: The Open Source CFD Toolbox           |
|  \\    /   O peration     | Version:  v2012                                 |
|   \\  /    A nd           | Website:  www.openfoam.com                      |
|    \\/     M anipulation  |                                                 |
\*---------------------------------------------------------------------------*/
FoamFile
{
    version     2.0;
    format      ascii;
    class       volScalarField;
    location    "5";
    object      p;
}
// * * * * * * * * * * * * * * * * * * * * * * * * * * * * * * * * * * * * * //

dimensions      [0 2 -2 0 0 0 0];


internalField   nonuniform List<scalar> 
98045
(
-0.7067
-1.391
-0.3925
-0.6353
-0.6764
-1.677
-1.831
-0.3756
-0.3853
-0.828
-0.669
-0.4447
-0.9807
-0.3901
-0.4393
1.043
-0.3664
0.3433
-0.4365
0.36
0.5532
0.4007
-0.3796
-0.3326
0.6851
0.9821
-0.04737
0.2605
-0.6669
-0.3182
0.04532
-0.5565
0.4548
0.4294
-0.3683
0.1077
0.02995
-1.669
0.8947
-0.7217
-0.4995
0.38
-0.8186
0.01047
-0.3816
-0.8992
1.289
0.2437
-0.3027
-0.3115
-1.783
-0.3487
-0.4991
0.0008853
-0.3488
-0.3199
-1.514
0.7873
0.0007204
-0.4073
0.2905
-0.4536
0.02874
0.0006126
0.02169
0.04594
0.1507
-0.4177
-0.445
0.004254
-0.3719
-0.3163
-0.5092
-0.004356
-0.4102
0.7278
-0.2166
-0.6814
0.4727
0.02161
0.02544
-0.3781
-0.7596
1.019
0.2051
0.3922
-0.3662
0.00323
-0.4432
0.02828
-1.44
-0.7947
-0.4667
0.401
-0.36
-1.072
0.0007435
0.7055
-0.3203
-0.3162
-0.4197
0.009787
-0.7749
-0.3242
0.1035
0.7881
-1.468
-0.3169
-0.6712
0.3282
1.297
0.3556
0.3443
-0.3117
-0.1814
-0.1593
0.3582
-0.5031
0.4729
-0.4481
0.9429
-0.4298
-0.4854
-0.3077
-0.0162
0.02612
0.3617
-1.685
-0.004458
0.7048
0.0362
-0.3174
-0.399
0.0003944
-0.8081
-0.4395
0.3889
-0.333
-0.07881
-0.03202
-0.1232
0.4296
-0.3049
-1.083
1.291
-1.502
0.2551
1.166
0.04664
-0.0447
-0.3178
-0.3669
-0.8011
0.02316
0.00269
-0.03853
-1.193
-0.4004
-0.5093
0.266
0.04107
-0.3169
0.7121
0.3769
-0.3105
-1.49
0.8114
-0.283
-0.3977
0.5357
1.112
-0.01607
0.9079
0.3061
-0.3076
0.5344
0.00906
0.3536
0.01962
-3.057e-05
-0.3887
1.229
0.9981
0.4517
-0.4577
-0.4808
-0.663
-0.3675
-0.6091
0.435
-0.01804
-0.8071
-0.419
-0.9365
0.005209
1.65
-0.1838
-0.3863
-0.3241
-0.7207
0.308
-0.311
1.455
-0.009731
0.01347
-0.3123
-0.0326
-0.02355
1.095
0.8106
0.08397
-0.6978
-0.004459
-0.6026
0.00228
0.5022
0.3112
0.002581
-0.07492
-0.588
0.04886
0.06512
0.002862
-0.3106
0.3886
0.4726
-0.1239
-0.004787
-0.3666
-0.8721
0.278
-0.8264
0.008144
-0.5096
-0.4259
-5.42e-05
-0.3689
0.3464
0.6964
0.3539
0.1311
0.297
-1.433
0.3097
0.04724
-1.074
0.2885
0.06246
-0.02136
-1.104
0.009946
-0.3326
0.3366
-0.3326
-1.789
0.03042
0.8216
0.5076
0.1037
-0.7305
-0.03097
-1.071
1.166
-0.326
-0.1579
-0.473
-0.3739
0.3951
0.3179
0.1756
0.446
0.002658
-0.3266
0.0252
-0.3882
-0.2818
-0.3196
-0.1951
-0.6081
-0.05529
0.4545
-0.3396
-1.311
-0.3599
-0.08155
0.6787
0.9557
-0.3193
-0.4958
0.3154
0.008021
1.754
0.2664
-0.3317
-0.01515
-0.09503
-0.3521
0.7612
0.4117
0.065
1.592
1.582
-0.3191
-0.3289
-0.5553
0.4699
-0.3653
-0.4848
-0.9005
-0.4646
-0.04394
0.159
-0.354
-0.5227
0.02934
-0.5164
0.2441
-0.7094
-0.769
0.04185
-0.3194
-0.3138
-0.3274
1.189
0.3109
0.1791
-0.3306
0.02297
-0.7334
-0.3269
-0.5376
-0.3255
-0.7432
-0.3824
0.3375
0.1488
0.03125
0.008316
-0.4598
0.001479
-0.1776
-0.3228
-0.312
-0.7018
-0.3631
-0.3606
0.7943
-0.4494
1.013
-0.3718
-0.6654
-0.3104
-0.3797
0.9066
0.6836
-0.03102
0.4405
0.02541
-0.3881
1.381
-1.291
9.982e-05
-1.672
-0.334
0.002762
-0.389
0.02899
-0.4882
-1.834
0.308
-0.02109
0.02139
0.01423
0.05627
-0.3708
-1.051
0.01337
-0.3774
-0.3385
0.0005353
0.7119
-0.3746
-1.426
0.8521
-0.5778
0.002303
-0.3397
-0.3102
0.567
0.3096
0.0001429
-0.3197
0.3271
-0.02432
0.01729
-0.5029
-0.3104
-0.3236
-0.3707
1.099
0.0003884
0.01448
-0.3538
-0.705
-0.454
-1.783
0.01203
0.5626
-0.4085
0.02909
0.4887
-0.5063
0.02919
-1.447
0.3748
0.07864
0.8067
-0.3349
1.73
-1.205
-0.3119
-1.426
0.3928
0.7976
-0.3488
-0.4935
0.01282
-0.3527
-0.4216
0.06116
-0.5596
0.0009814
-0.3885
-0.3731
-0.4416
-0.3599
0.001138
0.06578
-0.3141
-0.4863
-0.7061
-1.008
0.0003779
0.8941
0.002618
-0.5169
-0.7946
0.01415
0.01347
0.6415
0.3243
1.04
-0.3429
-0.315
-1.97
-1.862
-0.3254
-0.3364
-0.03741
0.09909
0.006588
-0.3176
0.3161
-1.003
-0.6131
-0.2
-0.04908
-0.3725
0.3738
0.1552
-0.3352
1.03
0.9782
0.2053
-0.4448
-0.007959
0.3529
-0.3115
-0.3521
-0.3505
0.04195
-0.3235
-0.58
-0.3682
-0.3206
-0.3286
0.0007785
0.03024
-0.1263
-0.6212
0.8162
-0.4027
0.3245
-0.8762
-0.003589
-0.3099
0.03712
-0.31
-0.7369
0.2606
-0.4279
-0.5051
-0.4282
-1.318
-0.33
0.6314
0.1791
-0.4414
-0.4048
-0.3613
-0.3875
-0.3428
0.3459
1.416
-0.5862
-0.3888
-0.3111
0.05428
-1.177
1.103
0.02755
0.7653
-0.7742
0.07598
-0.3506
-0.3187
-1.418
0.6401
-0.4891
0.04955
-0.3118
1.236
0.0001754
-0.3108
-0.6231
0.02103
-0.3526
-0.313
0.3442
-0.2711
-0.3108
-0.4848
-0.228
0.4948
-0.3117
-0.6256
-0.3423
0.01817
-0.635
-0.6636
-0.4258
-0.3105
0.2498
-0.3125
-0.14
0.008946
0.4572
-0.4025
-0.3761
-0.2221
0.002749
-0.459
-1.461
-1.437
-0.4727
-1.346
-0.0233
-0.4391
0.002132
0.3548
0.037
0.0003756
-0.00392
1.079
0.4857
0.08772
0.4804
-0.4409
-0.6311
-1.672
-0.6212
0.001136
-0.4873
-0.3169
-0.3103
-0.285
0.3506
0.2319
-0.3334
0.03932
-0.3129
-0.3176
0.0006446
-0.3107
-0.6409
0.4366
-0.3769
-0.367
-0.633
-0.04608
0.8151
-0.8084
-0.107
-0.7467
0.02621
0.04905
-0.6395
-0.6746
-0.494
0.008243
0.00821
-0.3745
-0.4302
0.01562
-0.09313
-0.325
-0.7014
0.6246
-0.3407
0.06114
-1.039
0.00477
1.142
-0.4195
0.7742
-0.3872
0.0007881
-0.3346
0.2444
-0.4154
-0.002388
0.6227
0.4635
0.006516
0.7003
-0.3106
1.64
-0.4679
-0.5991
-0.02839
0.1358
-0.4868
0.0009379
0.4772
-0.02066
-0.5307
-0.3956
-0.6323
-0.082
1.603
-0.4564
-2.989e-05
-0.4681
0.8387
-0.433
0.2282
-0.3372
0.03407
-0.4846
-0.5854
-0.3071
-0.3392
-0.7436
0.001234
1.496
-0.3168
0.2275
-0.3119
0.035
0.001443
-0.3564
-0.05911
-1.46
-0.01314
-0.3734
0.001271
0.00125
-0.3247
-0.3397
-0.8467
1.102
-0.3743
-0.3637
0.03334
0.02523
-0.5822
-0.04989
-0.3504
-0.4571
0.1859
-0.03085
-0.3872
0.1494
1.199
-0.3114
0.3715
-0.3292
-3.918e-05
0.218
-0.3461
1.341
-0.6158
-0.03387
-0.7568
0.04387
-1.177
-0.1183
-0.9316
-0.3181
0.1726
0.03569
0.01393
0.2911
-0.6326
-0.4425
-0.3228
0.2438
0.5688
-0.9057
-0.3777
0.0698
-0.4534
0.0345
0.0006649
1.096
0.3945
-0.6324
0.0028
-0.3335
-0.3913
-0.04723
0.002913
1.377
-0.3199
0.3011
0.2681
-0.62
0.06186
0.5585
-0.426
-0.3113
-0.02831
0.4473
0.6067
-0.6924
-1.152
0.4514
1.176
-0.565
0.002034
-0.3737
-0.6678
0.8207
0.1491
0.1779
0.4027
0.8635
-0.6826
0.03348
0.007138
-0.4851
-0.4148
-0.225
0.6957
0.03855
0.04472
-0.09057
0.002239
-0.1926
-0.08563
-0.6465
0.2887
-0.3848
-0.485
-0.6985
-0.09386
0.0006698
-0.3466
-0.4265
-0.7504
-0.4663
-0.6582
0.4715
-0.3171
-0.4096
-0.4684
-0.09563
1.13
-0.206
0.0004813
-0.5303
-0.383
-0.2791
-0.5176
-0.6535
-0.3767
-0.3519
-0.05377
0.04514
0.7897
0.5576
0.1708
-0.3256
0.01547
0.4754
-0.3645
0.001148
0.6076
-1.247
-0.623
-1.32
0.01751
0.6026
0.347
0.8505
0.5147
0.7746
0.5337
0.878
-0.5279
0.4047
1.398
0.4058
0.8309
0.03929
0.3095
-0.3337
0.003147
-0.6352
-0.03267
1.454
0.0002948
1.277
-0.3433
0.3398
-0.3252
0.0257
-0.4994
0.2497
-0.4058
-0.3114
-0.3808
0.03047
-0.2741
-0.3218
0.2731
-0.3393
0.3651
1.094
-0.3464
0.04084
0.2241
-0.4062
-0.09557
-0.633
-0.7414
0.2872
1.459
-0.3093
0.0008221
0.2464
-0.09638
0.1344
0.6237
0.0005917
0.9079
0.1485
-1.402
0.1284
0.2047
0.001007
-0.3235
-0.3554
0.3922
0.0003969
8.835e-05
-9.436e-05
1.726
1.726
-0.5608
-0.3399
-0.4876
0.3805
0.204
-0.5998
0.6884
0.5148
1.632
0.705
0.03671
-0.19
0.03706
-0.4346
-1.297
0.009484
0.2224
-0.4008
-0.3798
0.0004996
-0.3779
0.2844
-0.5266
-0.3345
-0.6979
-0.5402
-0.2791
0.1038
-1.075
-0.3239
0.008158
-0.0003723
0.007612
-0.592
-0.187
-0.3105
-0.3855
-0.001032
0.03456
-0.8838
-0.3993
-0.3445
-0.2969
0.3516
1.648
-0.1895
0.001278
-0.3615
0.003053
-0.2448
-0.311
-0.6085
-0.3611
0.116
-0.3657
1.352
0.5567
-0.4008
0.00364
1.589
0.8009
0.2575
-0.4533
-0.3404
0.5312
0.8487
0.3062
0.0513
-0.6832
-1.3
0.6835
-1.593
-1.112
0.00279
-0.5825
-0.3207
-0.1606
0.04305
-0.001933
-0.5568
0.03772
-0.6261
0.9052
0.001308
0.001227
-0.5228
-0.2361
0.2233
-0.4755
-0.3114
1.062
-0.3371
0.4778
-0.008964
-0.3321
-0.3348
0.00466
0.7456
-0.3762
-0.3212
-0.4023
-0.3518
-0.3525
0.007427
0.7218
0.7625
-0.5103
0.001375
0.0083
0.4591
0.05776
-0.331
0.2171
-0.1893
-0.5733
0.05625
-0.5603
0.1432
0.331
-0.7174
0.4556
-0.01213
-0.1425
1.509
-0.1851
-0.3524
-0.01056
-0.3412
-0.01505
0.03754
0.01495
-0.4566
1.182
0.842
-0.4504
-0.4087
-0.001331
-0.005025
0.901
1.596
0.8359
0.001129
-0.6683
-0.4296
-0.3564
-0.3626
1.104
-0.3118
0.02348
-0.637
0.1033
0.02653
-0.05564
-0.5895
-1.087
-0.3183
0.3232
0.8532
-0.3482
0.1641
0.4575
1.217
0.1586
0.02899
-1.234
0.7851
0.05192
1.594
-0.01452
0.001153
1.184
0.001407
-0.3373
1.056
-0.3238
-0.4785
-0.3536
0.007862
-1.284
0.03909
-0.4201
-0.3614
-0.3121
-0.4516
0.9466
1.071
-0.4053
-0.3763
0.2798
1.165
-0.1732
0.9244
0.1829
-0.2085
-0.4982
-0.3431
-0.464
-0.002977
-0.3518
0.03843
-0.187
0.03479
0.2529
-0.4459
-1.809
1.084
-0.4456
-0.3746
-0.9394
0.9599
-1.076
0.7593
-0.06883
-0.04315
1.221
0.04291
0.02497
0.606
-1.111
0.005532
-0.2064
-0.3107
-0.3193
-0.06527
-0.3441
-0.5158
0.0006447
-0.5236
0.02119
0.2555
0.8727
-0.3206
-0.7923
-0.1638
0.05121
0.2587
0.8041
-0.317
0.04157
-0.3173
-0.31
-0.3855
0.5161
0.0009367
-0.09192
0.001544
-0.1875
-0.02054
-0.007079
-0.3403
-0.4753
-0.8203
-0.3742
1.555
0.001023
0.01772
-0.3205
1.732
1.007
-0.06108
-0.3294
0.1687
0.002685
0.8707
0.4702
-0.64
-0.4357
-0.3549
0.2463
0.4816
0.4587
-0.4904
-0.5413
-1.155
0.7222
0.0002081
0.4392
-0.7793
-0.9409
0.001939
-0.5182
0.05382
-0.696
-0.1401
0.5341
-0.5279
0.003241
-0.01938
-0.6841
0.000105
-0.3675
-0.7368
0.5045
0.5693
0.6521
0.7777
-0.3128
0.179
-0.6242
-0.354
-0.754
-0.3613
-0.321
-0.007596
1.028
-0.4082
-0.5318
0.2527
0.3107
1.567
-0.2814
0.001528
-0.3117
0.1297
0.301
-0.4671
-0.6141
-0.4101
0.002446
-0.2156
0.4568
0.3511
0.002689
-0.8831
0.0947
0.00566
0.0122
-0.3534
-0.4078
-0.374
0.5769
-0.7847
0.01233
1.029
-0.3743
-0.3523
0.4366
1.631
0.00813
0.6601
0.5688
-0.5007
0.3652
-0.1008
-0.01161
-0.3801
0.00222
-0.4172
-0.3268
-0.5124
0.5787
-0.3425
0.278
0.1066
-0.02589
0.5797
0.02301
0.003484
-0.4791
0.3414
-0.1195
-0.1187
-0.03092
0.2041
0.05263
-1.007
-0.3333
-0.3844
-0.124
0.0823
-0.6711
0.0006743
0.4164
0.5463
-0.3232
0.2297
0.3531
0.0003619
0.31
0.1363
0.01563
-0.3628
-0.5042
-0.3286
0.2218
0.2383
0.001284
0.001338
-1.471
0.0004313
0.5913
0.337
-0.004418
-0.003771
0.1705
-0.03014
-1.818
-0.004695
-0.3238
0.03139
-0.2116
-0.5205
0.03419
-0.3205
-0.3591
-0.3842
0.05575
-0.3487
-0.007719
-0.3106
0.2095
-0.03188
0.1886
-1.542
1.171
0.003376
-0.03991
0.6264
0.2288
0.6168
0.03997
-0.3338
-0.3627
0.4848
-0.8504
-0.505
0.001369
-0.3853
-0.3556
0.04964
-0.04144
0.5818
1.071
0.0008279
-0.6429
-0.3964
0.2326
-1.167
0.02731
-0.6262
-0.3399
0.07025
0.005998
0.03544
-0.3754
-0.4011
-0.3162
0.8868
-0.3123
0.4642
-0.3172
-5.379e-05
-0.5855
0.7665
-0.3743
-0.3108
-0.4552
0.04929
-0.07754
0.347
1.147
-0.5385
0.01631
-4.4e-05
-0.3575
0.0003258
1.032
0.03707
0.0001321
0.3129
-0.1027
0.3048
-1.031
0.3265
-0.00835
-0.7427
-0.4582
0.1652
0.3505
-0.3888
-0.3513
-0.86
0.4779
0.0003063
-0.4199
-0.2499
-0.3328
0.5176
-0.2638
-0.03099
0.3032
0.2102
0.03692
-0.3
0.07307
0.05183
-0.2992
-1.422
-1.83
0.02124
0.02198
-0.3175
0.02247
0.05689
0.02898
0.6576
-0.3831
-0.283
0.7548
0.05906
0.002236
-0.8455
-0.3053
-1.067
0.3918
1.114
0.05801
-0.321
-0.3431
-0.3208
0.3638
-0.3174
-1.243
-0.3864
-0.7699
-0.4791
0.08795
-0.3102
-0.3171
-0.3631
-0.3524
1.109
-1.255
-0.3918
-0.7996
-0.3792
-0.7527
1.425
-0.767
-1.28
-0.5333
-0.372
0.3713
-0.6305
0.1363
0.5279
-0.6321
0.2739
0.1433
-0.4348
0.1626
1.042
0.3026
0.008283
0.1241
0.0004541
1.539
0.005616
-1.008
0.1782
-1.16
1.104
0.5787
0.02317
1.422
-0.3119
-0.4569
-0.3254
0.0006472
0.5458
-0.2761
-0.4654
0.04132
-0.3823
-0.1107
-0.4917
-0.316
-0.3363
-0.363
-0.629
-0.3552
0.3391
0.6722
0.03555
0.03057
-0.1695
1.461
-0.3323
0.08404
0.3114
0.3117
0.002644
0.001292
0.5078
-0.3106
0.05781
-1.135
-0.8816
0.2446
-0.334
-0.3176
0.4581
-0.4341
0.8789
0.2668
0.5317
0.6204
-0.3112
-0.311
0.0088
0.4374
-0.4078
-0.3142
-0.5127
-0.01309
0.4383
-0.5284
-1.659
0.1332
-0.3309
-0.3633
0.515
-0.6126
0.6253
-0.3929
0.1037
-0.3845
1.523
1.543
-0.01054
-0.4035
0.4167
0.03639
-0.2978
0.01674
0.3695
-0.9011
-0.3111
0.3879
0.03874
-0.3578
-0.3815
-0.5405
0.1113
-0.356
-0.5375
-0.5415
-0.3103
-0.311
0.4268
-0.1105
-0.3074
-0.01591
-0.3758
0.4028
0.05351
0.028
-0.3853
0.9569
-0.531
0.3665
0.2685
-0.4001
-1.216
-0.3033
-0.3108
-0.8923
1.103
0.008023
-0.3499
-0.9328
0.3499
0.6076
-0.3121
-0.4078
-0.314
1.149
-0.3477
-0.824
0.2673
-0.3543
-0.1758
-0.6036
0.0473
0.001559
0.2278
0.6103
0.0008232
0.4946
0.08471
-0.139
0.1073
0.6721
-0.322
-0.2603
-0.3117
-0.4272
0.1912
0.002105
0.8663
-0.01747
0.2567
-0.3626
-0.5229
-0.3251
0.7653
-0.3192
0.003099
-0.752
-0.3705
0.2903
0.03759
0.1555
0.1758
-0.5696
-0.3482
1.087
-0.4358
-0.4076
-0.3502
-0.6276
-0.01861
0.8235
-0.4382
-0.312
0.04539
0.03804
0.002067
-0.3498
0.1993
-0.4583
-1.786
0.3771
0.1315
-0.4093
0.4772
-0.4786
0.04862
0.575
-0.3166
-0.007306
0.03279
-0.0286
-0.7096
-0.4397
-0.3164
0.373
0.9114
-0.3119
0.6639
-0.6489
0.8805
-0.3213
-0.3474
1.138
-0.3132
0.001353
-0.4453
-0.6127
-0.8733
0.06148
0.03274
-0.6297
0.2616
-1.075
0.0002024
-0.311
0.4702
-0.4734
-0.5955
0.06711
0.000662
-0.3723
0.7662
0.5061
0.02022
-0.3347
-0.4014
-0.1388
-1.053
0.716
-0.3798
-0.3395
2.241e-05
0.02584
1.135
-0.361
0.1053
0.04435
1.614
0.01244
1.588
0.01931
-0.7494
-0.9275
-0.4023
-0.0977
-0.3428
0.476
-0.3111
-0.3033
-0.8908
-0.2227
0.3729
-0.3175
0.7884
0.5075
-0.01326
-0.4614
-0.3186
0.95
-0.3976
-0.7198
-0.377
-0.5083
-0.3242
-0.3131
0.3048
0.02004
-0.5272
-0.3222
-1.574
0.02555
0.04029
0.00409
0.002979
-0.3217
0.02325
-0.6427
-0.3387
-0.1785
-0.5139
1.219
-0.3454
-0.3101
-0.3158
-0.3583
-0.7787
0.004973
-0.1498
0.0007262
0.3158
-0.3455
-0.2407
-0.9713
-0.9046
0.8421
-0.367
-0.3344
-0.4311
0.00831
-0.3728
0.4793
-0.8394
-0.4712
-0.4241
-0.3423
-1.14
-0.5223
-0.675
0.1534
-0.3257
0.0645
-0.3345
0.2334
0.00166
0.001832
-0.2493
1.14
-0.681
-0.01446
0.02036
0.03682
0.004754
-0.3104
-0.5757
0.5993
0.2206
0.8103
0.022
-0.2723
-0.4919
0.02376
-0.3636
-0.3657
0.1376
-0.1751
0.6098
-1.647
0.0002506
0.00424
0.02715
0.08207
0.2728
1.336
-0.7345
-0.3536
-0.3144
-0.6737
0.45
-0.4256
0.801
0.5741
-0.3908
-0.09804
0.4102
-0.3398
-0.451
-0.3097
0.2822
0.5138
0.447
0.4705
0.008985
-0.5763
-0.3155
-0.4393
0.28
-0.392
-0.4515
0.7198
-0.3542
-0.3992
1.183
0.2553
0.8125
0.2977
-0.3349
-0.3753
0.02169
0.008459
-0.3218
-0.4
0.002177
-0.1416
-0.3396
-0.3806
-0.4305
0.303
0.705
-0.5868
0.353
0.1995
-0.495
0.003935
-0.429
-0.4701
-0.001012
0.1729
0.658
0.004727
0.2187
0.000377
-0.4232
0.8978
0.01226
-0.3133
0.2863
-0.3427
-0.5904
0.4491
0.5678
-0.4854
-0.5526
-0.2495
0.5616
-0.3
-0.3463
1.031
0.5951
0.4672
-0.2806
-0.4011
0.8871
-0.8535
0.5623
1.633
-0.5153
0.2494
-0.435
0.0005165
-0.4263
0.3109
-1.239
-0.31
-0.3199
0.001621
-0.3102
0.0009314
0.03098
-0.03545
-0.01785
-0.3791
-0.3324
0.1884
-0.3109
-0.5704
0.6743
-0.4319
1.135
-0.3435
0.006982
0.2567
0.05723
-0.3741
-0.3929
1.069
-0.4632
-0.5047
0.3011
0.6789
-1.383
-0.3381
0.03228
0.01951
-0.31
0.05243
0.0871
-0.01274
0.9162
-1.36
-0.592
0.005527
0.03471
0.1681
-0.3734
-0.3302
-0.2082
0.2484
-0.3107
-0.3574
-0.09568
-0.2344
-0.1559
0.5208
0.578
0.005455
1.153
-0.3506
0.9118
0.1767
0.02663
-0.2092
0.002214
-0.3395
0.5446
1.467
-0.3965
0.05265
0.8142
0.2273
0.6323
-0.8311
-0.3563
0.5763
0.3453
0.02507
-0.3453
-1.176
0.2966
-0.5981
0.2002
-0.6358
-0.08959
-0.3545
0.01157
0.9753
0.1997
-0.03026
-0.3456
0.003282
0.2193
-0.3142
0.0004335
0.7637
0.7702
-0.4044
-0.6121
0.5278
-0.07644
-0.6208
-0.6705
-0.3107
0.1564
-0.3601
0.0337
-0.4107
-0.4841
-0.4944
-0.3116
0.1597
0.03946
0.1274
0.02936
0.1449
-0.3921
-0.3127
0.3372
0.2395
0.0005302
-0.3215
0.2196
0.8016
0.1288
0.007947
-0.3128
0.9584
-0.3327
-0.3099
-0.6429
0.0005159
-0.8855
-0.4065
0.001023
-0.304
0.2733
-0.5486
0.9142
0.002365
0.007825
-0.004109
-0.2148
-0.3109
-0.02299
-0.4477
-0.2937
-0.2844
0.5633
0.06077
0.5438
-0.3145
0.4184
0.2147
-0.1153
-0.3911
1.257
0.04223
0.9515
-0.3329
0.01989
0.801
-0.05573
-0.3565
0.3474
0.0006569
-0.6322
-0.1811
-0.3099
-0.3789
-0.3103
-0.357
0.0004152
-1.033
0.4071
-1.289
0.001131
-0.3968
-0.7826
0.0005785
-0.2066
-0.3113
-0.8381
0.5495
-0.9329
-0.3195
0.9215
-0.0007399
0.00784
-0.371
0.5739
-0.3727
-0.3171
-0.4197
-0.3385
-0.06078
0.001414
1.097
-0.4401
-0.3811
0.001198
0.0008981
-0.4572
-0.5791
0.02325
0.001512
0.438
-0.3109
-0.1221
0.5199
-0.0003098
-0.3477
-0.313
-0.3132
0.5782
0.1593
-0.4742
-0.3159
0.1363
-0.3929
7.782e-05
0.2802
-0.4265
-0.8323
0.0326
-0.7386
0.03508
0.2251
0.5781
-0.3237
-0.3239
-0.321
-0.3539
-0.7262
0.5458
0.02582
0.7147
-0.01079
0.9226
0.13
0.1077
-0.7656
-0.1375
0.08442
-0.3499
0.2098
-0.5417
0.6196
0.1724
-0.3944
-0.01902
0.1009
-0.01215
-0.5402
-0.4287
-0.3906
0.1228
-0.5185
-0.405
0.5622
-4.047e-05
-0.004235
0.532
0.04072
-0.2049
-0.03146
-0.1883
0.004323
0.5614
0.4547
-0.5089
0.02489
-0.7614
0.7668
0.9666
-0.311
0.00865
0.09274
-0.02394
0.7599
-0.4563
-0.01042
0.1847
0.03828
-0.3205
1.143
1.206
0.5122
0.001147
0.6226
0.001183
-0.4952
-0.3322
0.8516
-0.01299
-0.3143
0.2131
0.01699
-0.31
-0.3623
0.005616
-0.3124
0.009348
0.001423
-0.3497
-0.3393
0.03527
-1.344
0.767
0.005012
0.6239
-0.3162
-0.3089
0.4296
0.5159
0.2831
-0.004584
0.6929
0.3675
-0.002963
-0.2663
-0.3776
-0.3553
0.8316
0.296
0.0111
0.3699
-0.6018
0.26
0.7059
0.3514
-0.3196
-0.004356
-0.2757
-0.1097
0.4626
-0.3474
-0.3307
0.002655
-0.04759
-0.5487
1.012
-1.698
0.5147
0.3449
1.136
0.1042
-0.178
0.4784
0.7499
0.3784
0.4856
-0.003019
0.3292
-0.7451
-1.429
-0.6719
0.03645
0.1116
-0.5495
4.473e-05
0.7439
0.06824
-0.198
-0.316
-0.3102
-0.05806
1.27
0.0007804
-0.3279
0.001351
-0.002594
-1.03
-0.5602
0.002648
0.203
-0.05231
-0.5724
0.1645
0.07739
-0.4178
-0.3128
0.1468
0.005503
-0.3482
-0.3109
-0.3413
0.265
-0.4109
0.01909
0.4534
-0.1453
-0.9431
-0.5207
-0.4518
-0.3446
0.03121
-0.3106
0.04056
-0.3199
0.01675
0.4043
-1.135
-0.4084
-0.3565
0.8674
0.2313
-0.3899
-0.01996
0.04227
-0.06381
-1.475
-0.4775
0.0004822
-0.4666
-1.467
0.03959
-0.1929
0.03079
0.2576
0.01763
-0.6035
-0.01515
0.7109
0.02605
0.000436
0.6986
0.953
-0.4408
0.2032
1.073
-0.3236
0.1256
0.2381
-0.3248
-0.4904
-0.2142
-0.3107
0.4287
-0.01693
-0.1072
-0.8199
-0.1603
-0.3391
-0.3343
-0.3137
0.001317
1.4
0.001082
1.053
0.02893
-0.009594
-0.2041
-1.097
-0.4766
-0.5684
0.2242
0.4842
-0.3127
-0.01058
0.01076
-0.09272
0.05103
-0.3997
0.8659
-0.3165
0.004967
-0.3244
0.7698
1.014
0.0294
-0.3411
-0.4173
0.1463
-0.8381
0.726
0.1388
0.5123
-0.3243
0.2255
-0.6508
-0.5403
0.05272
0.3447
-0.3678
-0.2332
0.1873
-1.854
-0.3449
-0.3159
-0.3729
-1.086
0.8035
-0.003834
0.03308
0.05286
0.05158
-0.3704
-0.8862
-0.3293
0.17
1.126
-0.5205
-1.269
0.7454
0.0008989
1.179
0.2962
-0.3585
-0.6584
-0.09459
-0.01165
-0.3246
-0.359
-0.4463
-0.491
-0.1143
-0.3362
1.097
-0.3647
0.03914
-0.3448
1.145
-0.9357
-0.4189
0.8478
-0.3239
0.1348
0.02497
-0.4171
-0.006468
-0.3102
0.00114
-0.4024
0.001209
-0.3578
1.081
1.093
-0.3101
-0.3205
-0.3117
-0.004761
0.3335
-0.6442
-0.6393
0.3142
-0.3748
-0.1804
0.1941
0.5753
-0.3111
1.128
-0.448
-0.7123
-1.132
-0.4165
0.4525
0.6174
-0.2541
-0.352
0.03512
-0.2781
0.006805
0.04204
0.001417
-0.3115
-0.7319
0.4478
1.086
0.003191
-0.3284
0.03376
1.156
-1.623
0.04385
-0.4627
1.04
-0.3893
0.1876
-0.3737
-0.3776
-1.073
-0.5021
0.7869
0.01558
0.2903
0.03701
-0.7276
-0.3169
-0.3105
0.001378
0.4147
-0.7008
0.06078
-0.3131
-0.3206
-0.3863
0.0006821
0.002385
-0.7222
-0.7142
0.4405
0.2826
0.5889
0.4967
0.4331
0.7639
-0.9669
0.0004624
-0.3407
0.6188
-0.3883
0.00128
-0.071
1.099
-0.9419
1.422
0.1865
0.6904
-0.4542
-0.3112
-0.3219
0.4915
-0.4365
-0.3879
-0.4291
0.3433
1.099
-0.5741
0.2784
0.6398
-0.3618
-0.6696
-0.4682
0.000133
-1.138
-0.3221
0.09931
0.1034
0.0265
1.309
-0.4783
0.369
0.6025
-0.3113
0.00835
0.5671
-0.00763
0.006774
-1.475
-0.9795
-0.381
-0.3104
-0.5273
0.002362
-0.3238
-0.4163
0.3169
-0.1258
-0.3211
-0.6376
-0.453
0.7386
-0.71
-1.07
0.5503
0.03042
-0.5585
0.001008
0.005528
-0.6272
-0.3331
1.463
-0.5911
0.5843
-0.8122
-0.2834
0.03446
0.1395
-0.4661
0.02582
-0.3288
-0.4959
-0.005979
-0.3346
-0.3129
-0.3111
-0.00463
0.4447
-0.5078
0.6513
-0.3165
-0.402
-0.3325
0.01805
-0.8464
0.004547
-0.1503
-0.3622
0.03882
0.2985
-0.4125
0.4227
-0.3563
-0.004159
-0.03608
-0.8027
-0.6662
-0.4856
-0.03468
-0.4099
0.2466
-0.4188
-0.3416
0.5977
-0.4799
-0.8104
-0.3094
0.7736
-0.6488
-0.0153
-0.06089
-0.9292
0.7713
-1.529
0.0185
-0.3195
0.03585
0.001926
0.387
0.008602
-0.4779
-0.5846
0.5224
-0.4297
-0.7109
0.1841
0.3874
-0.6409
-0.3219
0.03003
-0.3407
-0.3515
0.0009808
0.2295
0.001022
0.4747
-0.1542
-0.4027
0.0188
-0.6046
0.7167
-0.3767
-0.5768
0.003113
-0.3788
-0.9439
0.001667
-0.3604
-0.5212
-0.3599
-0.312
1.238
0.03645
-0.5061
-0.5501
0.07116
0.7315
0.5082
0.5162
0.02729
-0.5539
0.2338
0.3405
-0.07915
0.04832
0.5247
0.3734
0.01536
0.04872
-0.004324
-0.4495
0.3785
0.148
0.3874
0.932
0.3414
-0.6446
1.086
-0.6193
-0.3648
-0.335
-0.4505
-0.01771
-0.3103
-0.3318
-0.01303
0.05487
1.691
0.001521
-0.01335
0.5776
0.02236
-0.3943
-0.3344
-0.4075
-0.4115
0.6952
-0.04691
-1.142
1.043
-0.2068
0.3161
-0.1048
0.1176
-0.3139
-0.3329
-0.3528
-0.3986
-0.3386
-1.078
-0.1365
-0.3122
0.2408
0.008846
0.3451
0.525
0.0008075
0.7041
-0.003739
0.6502
-0.3446
-0.02689
-0.3225
-0.3534
-0.3098
-0.4079
0.07637
0.4574
0.3184
-0.3768
-0.3523
0.04381
1.197
-0.3341
0.005757
-0.3977
-0.3098
0.04384
-0.4238
-0.3113
-0.6367
-1.196
0.03453
0.9279
-0.3612
1.053
-0.4908
-0.6158
-0.03047
0.1544
-0.5113
-0.361
-0.3925
1.119
-0.6666
0.03326
-0.4309
-0.9146
-0.4851
0.006869
-0.3412
-0.4814
-0.5076
-1.473
0.3016
-0.4097
0.1742
-0.3819
0.07677
-0.5942
-0.4231
0.6989
1.198
1.265
0.354
0.2841
0.2557
-0.4084
1.206
0.01694
-0.3751
0.002902
-0.002035
0.2773
-0.4669
-0.3236
-0.3256
-1.244
0.04331
0.06716
-0.01663
-0.4413
-0.3871
1.123
-0.05606
0.2249
0.6825
0.002613
-0.6467
0.5288
-0.4708
0.4034
0.03586
-0.007877
-0.3225
-0.4199
0.7208
0.0004151
-0.3747
0.7569
0.07261
1.271
1.319
-0.3227
1.079
0.0001094
0.1938
-0.3237
0.001583
-0.3401
0.0001901
-0.2626
-0.3628
-0.599
-0.5333
0.03514
0.7461
-0.3631
-0.3843
0.636
0.3019
-1.133
0.2392
1.005
-0.6869
-0.004744
0.7471
0.3153
0.02758
-0.01688
0.3874
-0.525
-0.4861
0.286
0.0008874
0.1154
0.0004005
-1.101
-0.1251
-0.5546
-0.005092
0.08003
1.622
0.4976
0.3009
-1.053
-0.5575
0.02075
0.2556
0.7808
-0.6109
-1.252
-1.225
-1.099
0.06416
0.04278
1.211
0.5161
0.1127
-1.512
-0.38
0.3006
-0.3172
0.0005752
-0.7507
-0.4053
0.0009395
0.6836
-0.382
-0.4631
-1.362
-0.3482
0.1818
0.2183
-0.4
-0.0255
-1.29
-0.3192
-0.3154
-0.4529
-0.3575
-0.3495
-0.3741
-0.6992
-0.4453
-0.3813
-0.4373
0.1632
0.0413
0.0007625
0.4233
0.5641
-1.128
-0.6387
0.02853
-0.7604
-0.3114
-0.3569
-0.4939
-0.3462
0.7759
-1.522e-05
-0.01337
-0.7254
-0.7051
0.2366
-0.01272
0.002222
0.003782
-0.3496
1.256
-0.421
-0.3114
-0.4388
0.2894
-0.3554
0.4461
1.131
-0.007548
-0.3601
0.1441
0.4514
0.003399
0.08375
0.4412
-0.4966
-0.3105
-1.398
-0.002992
-0.009153
-0.3672
0.02959
0.003482
-0.00807
-0.4267
-0.4117
0.0007017
1.027
-0.8033
-0.4519
-0.3705
-0.1582
0.1865
0.658
1.238
0.4181
-0.5612
-0.3838
0.4631
-0.4072
-0.9316
0.7829
-0.3642
0.001493
-0.4491
0.1132
0.1597
-0.344
0.5391
0.004819
-0.3106
-0.3558
-0.3623
-0.5502
-0.4352
0.3756
0.0014
-0.03693
-0.3716
-0.4683
-0.011
-0.8449
-0.3389
-0.32
-0.3405
0.74
-0.3198
0.3569
0.04842
0.5466
-0.3111
-0.3311
-0.3163
0.0009266
-0.4024
-0.3117
0.05908
-0.3275
-0.3462
-0.0004644
0.001849
-0.4985
-0.3287
0.2301
0.0004115
-0.3196
-0.01563
-0.364
0.3892
-0.005956
0.504
0.4911
-0.3484
-1.131
-0.4538
0.03906
-0.4033
-0.4641
0.5965
0.1142
0.472
0.7729
-1.12
0.04083
-0.3348
0.001405
0.0005436
0.3054
-0.3536
0.2348
-1.286
0.02855
0.1551
0.02819
-0.3183
-0.765
-0.42
-0.4133
-0.2734
-0.6394
-0.3831
-0.5188
1.097
-0.3188
-0.4534
-0.3236
-0.9813
-0.4103
0.0009945
-0.3117
-0.1241
-0.01276
-0.4198
-0.7471
0.000391
0.5153
-0.3499
0.2829
0.001639
-0.4342
-0.006257
-0.2478
-0.4102
0.4909
0.9736
0.1241
-1.092
0.7136
0.007819
0.2929
0.02458
-0.3734
-0.5075
0.7698
0.1137
-0.5259
0.3526
-0.3588
0.1134
-0.3193
0.03242
-0.3041
0.6192
-0.5027
-0.3107
-0.3227
-0.3105
0.0205
-0.026
-0.1814
-1.7
0.04616
-0.05816
0.05475
-0.8329
-1.473
0.06139
-0.7063
0.1371
-0.7241
-0.3258
-0.2944
0.06366
-0.5334
0.1003
0.3597
1.101
0.1307
-1.437
0.6029
-0.66
0.005454
-0.62
-1.082
-0.3455
0.4718
-0.717
0.1197
0.01732
0.6514
0.001772
-0.484
-0.3944
0.03281
0.2364
0.05973
0.0208
0.603
-1.106
0.1857
-0.5299
-0.3203
-0.3611
-0.3984
0.2275
0.6781
1.634
-0.4888
-0.3106
-0.6659
-0.3867
-0.3417
-1.645
0.057
0.2052
-0.3863
-0.3131
-0.7603
-0.632
-0.3291
-0.8376
0.4648
-0.389
-0.4653
-0.01946
-0.3445
-0.1513
0.4766
0.002867
-0.3291
-0.001324
0.0534
0.1239
0.2043
0.2149
-0.5106
-0.5643
-0.00664
-0.4947
1.093
-0.4176
-1.358
0.04111
-0.339
-0.3082
0.3508
-0.4939
0.2629
0.001838
0.9202
-0.9217
0.1433
1.119
-0.6394
0.1233
-0.7653
-0.7514
-0.0966
-0.3354
0.2236
-0.02966
0.6744
0.173
0.04197
-0.6369
-0.6609
0.9468
-0.3153
-0.2317
-1.184
-0.8311
-0.3253
-0.2846
-0.9774
-0.748
-0.3153
0.007669
0.001443
-0.02878
-0.3741
-0.3346
-0.1461
-0.7259
1.583
0.2817
-0.4025
-0.712
-0.5142
-0.8694
0.0392
0.001273
0.00127
0.1534
0.2277
-0.4017
-0.5049
0.8149
0.001221
-0.3231
0.3742
-0.4715
-0.2127
0.005736
0.02888
1.115
-0.6556
0.7823
0.03784
-0.4122
-0.04223
-0.2417
-0.3529
0.54
0.7744
-0.6278
0.15
-0.2387
-0.382
-0.4585
-1.463
-1.324
0.02175
-0.5558
-0.3951
-0.3221
-0.3106
-0.3233
-0.311
-0.3246
0.1113
-0.7529
-0.4468
-0.9754
1.66
-0.3259
-0.7067
1.155
-0.3448
-0.3692
-1.492
-0.1203
-0.3762
-0.4188
-0.4559
-0.6334
-1.652
-0.7106
1.67
0.00502
-1.039
-0.4574
-0.6022
0.1314
-0.3468
0.09615
-0.1096
0.002913
0.001603
-0.3664
-1.713
-0.6424
0.01391
-0.1155
-0.3214
-0.4246
-0.3647
-0.5518
-0.3445
0.03505
0.6061
0.6123
-0.8049
0.1949
-0.3873
-0.06146
-1.381
-1.177
-0.01527
0.3481
0.363
0.4347
0.6042
-0.07352
0.02824
0.4367
0.0009767
0.01567
-0.0004767
-0.3254
0.3104
0.5539
-0.4032
-0.6998
0.06714
0.05706
0.005976
0.3533
-0.0583
0.363
-0.519
-0.002409
-0.7322
0.8949
-0.3236
0.009112
0.8764
0.002484
0.03475
-0.7498
0.3025
-0.1873
0.4552
0.4712
-0.5155
0.06258
-0.3586
0.01316
-0.04101
-0.3676
-0.8812
-0.4066
-0.419
-0.3798
-0.3528
-0.3538
0.9104
-1.036
-0.0779
-0.3143
-0.5372
-0.3377
-0.5093
1.178
-0.3656
-1.365
0.162
0.4179
-0.2497
0.01091
0.007954
0.238
-0.2898
0.6907
-0.362
0.0003365
0.3026
-0.7863
0.9225
-0.005284
-0.3195
-0.3573
-0.3361
0.1644
9.627e-05
-0.3277
0.03433
0.2061
-0.3396
0.03704
0.8008
0.001598
-0.3705
0.0359
1.246
-0.5086
-0.1119
0.3051
-0.4743
-0.3213
-0.5988
-0.3153
-0.3747
0.2581
-0.7896
0.3304
-0.4376
0.4067
0.2899
0.2102
0.2726
-0.3938
-0.04564
-0.3363
0.1017
-0.4882
0.1114
-0.362
1.06
-0.136
-0.8005
0.1816
-0.02478
0.00146
0.6851
-1.079
-0.334
-1.121
-0.4829
-1.818
-0.03712
-1.759
0.0835
1.112
-0.3265
-0.3357
1.024
-0.8079
-0.4425
-0.5748
-0.3413
-0.3676
-0.003803
-0.02352
0.7466
-0.02616
-0.3777
0.01059
-0.4608
-0.3189
0.7926
-0.3536
-0.3428
0.2755
-0.3128
-0.667
-0.5858
0.67
0.7447
0.9441
0.319
-0.3202
-0.7286
1.422
0.0746
-0.3117
0.5187
-0.3141
-1.032
-0.5
7.347e-06
-0.3232
0.6369
-0.475
0.002966
-0.2806
-0.3956
-0.5168
0.153
0.03463
-0.8192
0.003666
-0.3256
0.6893
-0.314
0.5678
-0.3127
0.002388
0.0003176
-0.485
-0.3458
-0.3579
-0.1769
0.1808
-0.1598
0.002963
0.03736
-0.4166
0.05369
-0.4657
-0.3319
-0.6706
0.3543
-0.3334
0.007079
-0.3892
-0.3766
-0.4421
-0.3114
-0.03124
-0.7543
-1.106
-0.6226
0.5845
0.02581
1.226
-0.3124
-0.3506
1.108
0.3521
0.04038
-0.3093
-0.3134
0.04025
-0.2493
0.1314
0.01064
-0.5318
0.03031
-0.422
0.5781
-0.3839
-0.556
0.7384
-0.532
-0.04623
0.001186
-0.5978
0.01133
0.1945
-0.3551
0.9189
0.2568
-0.3123
-0.3349
-0.3212
-0.3683
1.305
0.1292
-0.5599
-0.316
-0.6413
-0.4399
-0.3551
0.3854
0.9175
-0.3919
-1.416
-0.471
-0.5302
-0.3644
0.0008086
0.7265
1.126
-0.3155
-1.181
0.03231
0.8926
-0.3705
0.9012
-0.3155
-0.3093
0.9529
0.5806
0.001164
-0.3193
-0.04527
-0.2162
-0.3547
0.4166
-0.1718
-0.2437
0.002348
0.04926
1.242
0.5872
-0.7342
-0.3124
0.001089
-0.3183
1.057
-0.001411
-1.053
0.01688
-0.3909
0.4815
0.6446
-0.4293
-0.3239
-0.4676
-0.3112
1.2
0.379
0.05346
-0.4808
0.003929
0.5155
-0.3127
-0.3124
0.06339
-0.5235
-0.5247
0.0264
-0.3308
1.052
-0.003357
0.3187
0.8948
-0.372
-0.569
-0.3099
-1.887
-0.3169
-0.3116
-1.411
-0.006578
-1.428
-0.3535
-0.1516
-0.3781
0.009026
-0.971
0.007794
-0.002153
0.005139
0.6261
-0.6359
-0.3541
-0.2101
-0.3812
0.9734
0.1683
-0.4151
0.001532
0.002242
-0.3245
-0.03343
-0.7135
-1.661
-0.4503
-0.311
0.2208
-1.112
0.5218
-0.5052
-0.42
0.5375
0.02233
0.4052
0.009101
-0.332
-0.3557
-0.4428
-0.5823
-0.3453
-0.5949
-0.004093
-0.3175
-0.3009
0.5711
-0.7247
0.001573
-0.1209
0.231
-0.3103
0.453
0.003225
-0.3512
-0.006982
0.2038
0.06781
0.001296
0.001224
0.3228
-0.3755
-3.23e-05
-0.9096
-0.1359
0.03226
0.2146
-0.5688
0.01614
-0.0003386
0.01893
0.00053
-0.8675
0.9153
-0.4479
0.6111
-1.977
-0.3257
0.7305
-0.2713
-0.3556
-0.3398
1.014
0.01009
1.092
0.6287
-0.3531
-1.637
-0.6654
-0.4037
-0.3108
-0.1683
0.5006
0.5544
-0.06421
0.36
1.14
-0.3114
0.3174
-0.311
-0.5486
-0.04543
-1.24
0.002394
0.1809
0.3499
-0.4098
0.3663
0.4786
0.3714
-0.3141
-0.5272
-0.3613
-0.3213
-1.637
0.2925
-0.3518
0.8431
1.585
-0.004692
-0.67
0.0002797
0.0004358
0.2349
0.0007675
-0.005029
-0.4824
0.1244
-0.4906
0.03901
-0.5206
0.6355
-0.2896
0.06046
-0.5071
-0.4326
0.0004961
0.5502
-0.08577
-0.02605
-0.3436
0.4559
-0.3088
-1.579
-0.3892
-0.4909
-0.1925
-1.204
1.06
-0.3782
-0.6681
-0.9219
0.9209
-0.602
0.7127
0.4754
0.1399
0.04279
-0.5804
0.0325
-0.1597
0.03422
0.4579
-0.2452
-0.375
-0.3121
-0.3494
-0.3403
-1.18
-0.3114
0.9427
-0.3556
-0.3112
-0.06839
0.2548
-0.5174
0.6076
-0.3572
-0.531
1.107
0.4563
-0.313
-0.3522
-0.7583
0.4989
-0.6188
-0.0505
-0.801
0.1261
-0.6821
0.02606
-0.7512