/*--------------------------------*- C++ -*----------------------------------*\
| =========                 |                                                 |
| \\      /  F ield         | OpenFOAM: The Open Source CFD Toolbox           |
|  \\    /   O peration     | Version:  v2012                                 |
|   \\  /    A nd           | Website:  www.openfoam.com                      |
|    \\/     M anipulation  |                                                 |
\*---------------------------------------------------------------------------*/
FoamFile
{
    version     2.0;
    format      ascii;
    class       surfaceScalarField;
    location    "5";
    object      phi;
}
// * * * * * * * * * * * * * * * * * * * * * * * * * * * * * * * * * * * * * //

dimensions      [0 3 -1 0 0 0 0];
oriented        oriented;


internalField   nonuniform List<scalar> 
145361
(
8.21e-05
-8.21e-05
-4.828e-05
4.828e-05
6.93e-07
-6.93e-07
6.848e-07
-6.848e-07
-7.17e-05
7.17e-05
-0.0001329
0.0001329
-6.498e-05
6.498e-05
-8.029e-06
8.029e-06
1.819e-06
-1.819e-06
-8.541e-05
8.541e-05
1.03e-06
-1.03e-06
-5.287e-06
-6.529e-07
5.94e-06
9.493e-05
-9.493e-05
9.801e-07
-9.801e-07
-5.287e-06
-0.0009197
0.0008282
9.145e-05
7.164e-06
-7.164e-06
-0.001931
0.00265
-0.0007184
0.0008464
0.0002243
-0.001071
-0.002228
0.00276
-0.0005317
-0.002703
-0.01186
0.01457
-0.002358
0.002051
0.0003074
-0.0473
0.04622
0.001073
2.448e-05
-3.965e-05
1.517e-05
-0.00942
-0.006439
0.01586
-0.0004057
-0.0007969
0.001203
0.05925
-0.09524
0.036
-0.0006254
0.001511
-0.0008856
-9.93e-07
9.93e-07
-4.058e-05
-9.993e-05
0.0001405
-0.0008069
0.0005394
0.0002675
2.731e-05
4.028e-05
-6.759e-05
0.001161
-0.001687
0.0005266
-7.162e-05
-0.00138
0.001452
-0.0004481
-0.0002363
0.0006844
-0.0125
0.002975
0.009522
-0.0003852
0.0007708
-0.0003855
0.0003953
-0.0005357
0.0001404
-0.000519
-0.00113
0.001649
-0.0005729
5.088e-05
0.000522
0.0004164
-0.0002525
-0.0001639
-0.0009706
0.0008805
9.002e-05
-0.005817
0.007882
-0.002066
0.3385
0.2185
-0.5569
-0.01533
-0.03196
-0.0002634
-0.0009126
0.001176
-0.0007385
-0.0005718
0.00131
-0.0007748
0.001563
-0.000788
-0.0007834
0.001806
-0.001023
7.838e-05
3.978e-05
-0.0001182
0.0004955
-0.00053
3.449e-05
-4.068e-05
4.776e-05
-7.084e-06
0.0002751
0.0001413
0.7983
-0.9264
0.1281
-7.591e-06
-3.309e-05
3.875e-05
-6.002e-05
2.127e-05
0.001469
-0.002165
0.0006961
-0.001403
0.0008766
0.000526
0.1664
0.6319
2.204e-05
-1.952e-05
-2.52e-06
0.01412
-0.01058
-0.003542
-0.0002547
0.0002206
3.412e-05
0.1437
-0.06457
-0.07917
-0.1726
-0.9655
1.138
0.2756
-0.8597
0.5841
-0.0005261
-0.0002808
0.002539
-0.003545
0.001005
-0.0001999
-0.0004306
0.0006304
-9.492e-05
-0.0001598
-1.056
0.08427
0.972
-0.000103
0.000214
-0.0001109
-0.0006712
0.0008824
-0.0002112
0.0007799
-0.00115
0.0003699
0.4756
-0.8435
0.3679
6.25e-06
1.579e-05
-0.01406
-0.004423
0.01849
0.03848
-0.07056
0.03208
-0.01497
0.006777
0.008192
-0.002372
0.001507
0.0008643
-0.7672
1.043
-0.03587
-0.005184
0.04105
8.887e-05
-0.0001217
3.28e-05
0.001208
-0.002536
0.001328
0.0007211
-0.00167
0.0009493
-0.005288
0.01124
-0.005952
-0.001276
0.002992
-0.001716
-0.0003864
-0.0007578
0.001144
0.178
-0.3651
0.1871
-0.0002252
-0.0003664
0.0005916
-0.0002457
0.001747
-0.001502
8.937e-05
0.0004167
-0.0005061
-0.0004844
0.001339
-0.0008542
0.003649
-0.004337
0.0006874
-0.0008565
-0.001502
-0.0002692
0.000237
3.216e-05
-0.0008331
0.0005344
0.0002988
-0.9542
0.7816
0.003293
-0.00275
-0.0005426
-5.128e-05
9.003e-05
-0.0001917
4.832e-05
0.0001434
0.0003819
-0.0003572
-2.465e-05
0.5224
-0.1839
-0.0003328
0.001118
-0.0007849
-8.738e-05
0.0003121
-0.0002247
-0.01335
0.0008563
-0.00129
-0.0001122
-0.001773
-0.0004197
0.002193
2.915e-05
0.0002296
-0.0002588
0.0005435
-1.367e-05
-0.0005298
0.0004966
0.0007938
-0.00129
1.255e-05
-0.001471
0.001459
-0.01472
0.0122
0.002522
0.0001828
-0.002114
0.0001726
-9.422e-05
0.002995
-0.003795
0.0008005
-0.003708
0.006064
-0.002356
-0.01023
-0.004496
0.0006388
-4.186e-05
-0.0005969
-0.0008715
-0.0015
0.0001931
2.751e-05
-0.0007533
0.000776
-2.269e-05
0.001758
-0.00292
0.001163
0.0004257
-1.627e-05
-0.0004094
0.0007682
-0.0005438
-0.0002244
0.5002
-0.124
-0.3762
0.1008
0.04291
0.0003046
-0.002533
-0.0003428
0.0002444
9.832e-05
-0.3628
0.8384
0.001573
0.00172
-0.0002334
0.0004316
-0.0001981
0.000267
-0.0002379
7.823e-05
-4.88e-05
-2.943e-05
0.4867
-0.8831
0.3964
0.005618
-0.002197
-0.003421
0.0003607
0.0004857
-0.04876
0.006634
0.04213
-1.804e-05
4.252e-05
0.01622
-0.009775
-0.00644
0.2295
-0.0429
-0.1866
0.0004566
-0.0003555
-0.000101
0.001441
-0.001513
0.0007106
-0.001494
0.0002628
0.0007771
-0.00104
-0.0004503
-0.0001175
0.0005678
3.115e-05
0.0001349
-0.0001661
0.0005966
-0.00248
0.001884
-0.0002418
0.0005088
-0.000267
0.04634
-0.02716
-0.01919
-0.001253
0.0605
1.42e-05
3.201e-05
-4.621e-05
0.000341
-0.0002641
-7.691e-05
0.004961
0.0006565
0.2853
-0.619
0.3337
-0.184
0.3619
2.416e-05
0.0002704
-0.0002946
0.004006
-0.003251
-0.0007549
3.8e-05
4.023e-05
0.002514
-0.00165
-0.0008643
-0.002265
0.001732
0.0005325
0.0003222
-0.0006034
0.0002812
9.276e-05
-0.0007639
-0.0002352
0.0002352
-0.0001913
-0.0007792
-1.424e-05
-8.083e-05
9.507e-05
0.002083
-0.00268
0.0005975
0.001852
-0.001047
-0.0008047
0.001172
-0.0008759
-0.0002959
-1.155e-05
2.372e-05
-1.217e-05
-0.01587
0.01317
-0.0007215
-5.86e-05
0.0007801
0.001258
-0.0007114
-0.0005467
-0.00108
0.0008298
0.0002504
-0.004055
0.003398
0.0006567
0.0003137
0.0004545
0.000419
0.001735
-0.002154
-0.4384
0.2869
0.1515
0.001426
-0.003528
0.002102
0.04648
-0.05144
0.004957
1.702
-1.65
-0.05275
-0.0005718
0.0007932
-0.0002214
-3.633e-05
-0.001254
0.001291
-0.003037
0.004366
-0.001329
-0.007554
0.006128
0.001427
-0.0005778
0.0006471
-6.936e-05
-0.001664
0.002934
-0.00127
-0.0008265
0.0008185
8.054e-06
-6.959e-06
6.959e-06
0.0007001
-0.0002172
-0.0004829
-0.0006348
0.001208
-0.0005733
0.0009181
0.0003401
0.001018
0.002149
-0.003167
6.833e-05
0.0003135
0.00107
-0.001306
0.0002364
-0.4903
-0.566
0.00014
6.565e-06
-0.0001466
0.005172
-0.002177
8.541e-06
-2.739e-05
1.885e-05
-0.002544
0.002685
-0.0001408
-0.0001735
-0.0003994
-0.0007886
-9.455e-05
0.0008831
0.0001269
-0.0002046
7.764e-05
0.0005114
0.0001764
-0.0006878
-0.09096
0.02897
0.06199
0.3587
-0.5749
0.2162
4.172e-05
2.354e-05
-6.526e-05
0.02734
-0.01145
-0.01589
0.2085
0.2377
-0.4462
-0.0007991
-0.0001206
0.001396
0.0004554
0.1443
-0.1599
0.01557
-0.01293
-0.002035
0.5109
-0.7039
0.193
-0.0002296
0.0004469
-0.0002174
0.5572
0.4355
-0.9927
0.000654
0.0006421
-0.001296
0.001433
-0.001098
-0.0003349
1.183
-0.6256
0.006976
0.009239
-0.0004999
-0.002982
0.003482
0.02871
0.01763
-0.1201
0.07547
0.04466
0.9834
-1.263
0.28
7.103e-05
0.0001161
-0.0001871
0.0001288
0.002661
-0.00279
-0.006055
0.00615
-9.503e-05
0.0002445
0.0002121
1.118
-0.6068
0.0001771
0.0001639
0.00165
-0.0003447
-0.001305
-0.02253
0.01228
0.01025
-0.0001873
-0.00563
0.09468
-0.3943
0.2996
0.0013
0.001215
0.0008101
-0.0006599
-0.0001502
0.6967
1.006
0.0001612
-0.0006093
0.001765
-0.00205
0.000285
0.001441
-0.001443
2.198e-06
0.001814
-0.002533
0.0007185
0.000514
-0.001594
0.00108
0.01148
0.002638
0.001371
-0.0003024
-0.001068
-0.0021
0.002909
-0.0008089
0.004229
0.04066
-0.04489
-0.0005583
-0.0002748
0.0005714
0.001353
-0.001925
-0.1137
0.1821
-0.06847
-0.2764
0.485
-0.0008998
0.001154
-0.0002545
-0.1994
-0.239
-2.221e-05
3.602e-05
-1.381e-05
0.001718
-0.001192
-0.0005261
1.625e-05
-3.846e-05
0.0004144
-0.0004144
0.001263
-0.001508
0.002235
0.0004999
-0.002735
-5.488e-05
-0.00101
0.001065
-0.0001321
0.0008488
-0.0007166
0.004828
-0.005569
0.0007408
-0.03832
0.2145
-0.1762
0.002643
0.002617
-0.005261
0.000284
-0.0005258
-7.12e-05
-7.992e-05
0.0001511
0.0009793
-0.004687
-0.0004752
-0.0002041
0.0006793
1.434e-05
-3.148e-05
1.714e-05
0.02626
0.01671
-0.04297
0.0004773
-0.001469
0.0009918
-0.004357
0.004942
-0.0005847
0.0005611
-0.0003681
-0.000193
-0.2158
1.199
1.091e-05
4.857e-05
-5.949e-05
0.006121
-0.04199
3.256e-05
-2.402e-05
0.001321
-0.0001489
-0.002381
0.003069
-0.000688
-4.894e-05
4.894e-05
0.0003753
0.0003248
-0.005832
0.007113
-0.001281
-0.0002442
0.001405
-0.0002954
0.0002287
6.668e-05
-0.002391
0.001862
0.0005291
-0.0001282
-0.0001409
0.0002666
-0.001776
0.001509
-0.01374
0.00432
-0.001285
0.001579
-0.0002943
-0.0001667
0.0001218
4.486e-05
1.703e-05
-0.0003426
0.0003255
-0.000359
-0.003109
0.003468
-0.2499
0.3446
-2.044e-05
-8.319e-06
2.876e-05
-0.001366
-0.0008981
-0.0002254
0.0004519
-0.0002265
0.5774
-0.07727
0.1921
-0.1282
-0.06391
3.404e-05
-3.308e-05
-9.604e-07
-0.0021
0.003507
-0.001407
0.0005481
1.297e-05
0.0002559
-0.0001076
-0.0001483
0.00013
-0.00013
0.00013
-0.0001421
0.0002419
-9.987e-05
-1.301e-05
-2.402e-05
3.703e-05
0.01714
-0.01949
0.002358
-0.0002345
-0.0009985
0.001233
0.0008308
-0.001217
-6.031e-05
0.000486
0.001085
-0.001349
-0.0007169
0.00111
-0.0003934
-0.001539
0.01878
-0.01724
-0.0002414
-0.001102
0.001343
0.0003265
-0.0002295
-9.7e-05
0.00297
-0.002751
-0.0002193
-0.821
0.5589
0.2621
-0.0003115
0.0001489
0.0001625
-0.00232
0.002168
0.0001523
-1.175e-06
7.52e-06
-6.346e-06
-0.0003016
0.001192
-0.00089
-0.2001
0.3283
-0.1281
-0.0001786
3.651e-05
-0.0001668
0.0001249
4.193e-05
-0.000379
-0.002165
0.0003477
0.0004113
-0.000759
0.0006729
0.0007601
-0.001632
-0.002725
-6.561e-05
4.56e-05
2.001e-05
-0.2487
0.534
-0.002251
0.001615
0.0006359
-3.703e-05
-1.804e-05
5.507e-05
0.002565
0.01207
-0.01463
5.334e-05
-4.242e-05
0.001236
-0.001315
7.907e-05
-1.608e-05
0.0001049
0.0008394
0.0008786
-0.0009541
0.003493
0.0001362
-0.0005214
-0.06688
0.0603
0.006576
-0.002336
0.0001694
0.002167
0.2485
-1.005
0.7564
-0.06736
0.1258
-0.05842
0.0007543
-0.0006721
-8.219e-05
0.0001765
-9.244e-05
-8.402e-05
-0.002588
0.00766
-0.005072
-0.0005664
0.0004693
9.711e-05
-2.614e-05
1.078e-05
1.536e-05
0.002507
-0.004499
0.001991
0.0001635
2.959e-05
0.0006552
-0.0008591
0.0002038
0.001852
-0.001056
-0.0007957
-3.685e-06
2.692e-06
-0.000361
8.544e-05
0.0002756
-0.0003668
0.0006619
-0.0002951
-0.001035
-4.498e-05
0.0006215
0.000451
-0.001073
0.2029
-0.2412
0.0008424
-0.002019
0.001176
0.5052
-0.1807
-0.3245
-1.33e-05
1.782e-05
-4.522e-06
3.809e-05
-0.0003005
0.0002624
0.001157
-0.00102
-0.0001369
-1.517
-0.01151
1.528
-9.446e-05
9.446e-05
4.954e-05
-1.097e-05
-3.857e-05
0.8045
-1.069
0.2642
0.0005402
-0.0004807
-5.951e-05
-0.5862
0.2148
0.3714
4.905e-05
-0.0002641
0.000215
-0.0001533
-0.0001895
-0.002952
-0.001103
-0.001039
0.0001823
0.0008568
0.0006566
-0.0001061
-0.0005505
0.06244
-0.05571
-0.006734
0.002267
-0.001187
-0.001081
0.0001877
-8.56e-05
-0.0001021
0.001698
0.0001194
-0.001817
-0.2556
0.5113
-0.2557
1.133e-05
3.145e-05
-4.278e-05
3.478e-05
-2.264e-05
-1.214e-05
1.411
-0.6691
-0.7414
-0.00051
0.001066
-0.0005563
-1.364e-05
2.799e-05
0.0006674
-0.0007943
0.000127
0.0005707
-0.0009426
0.000372
-0.001366
0.005075
-0.00371
-1.157
1.219
-0.06146
-0.0001528
-0.0001426
-2.39e-06
-0.0001176
0.00012
0.001213
-0.001022
-0.000191
-0.0009887
0.0002002
0.3099
0.4429
-0.7528
-9.877e-05
-6.791e-05
-0.0008676
0.001364
0.02351
-0.1206
0.09708
0.1006
-0.03118
-0.06944
0.0001103
0.0005284
-7.096e-05
0.0001065
-3.553e-05
0.0005236
-0.0004542
-6.94e-05
-0.001479
0.0005861
0.0008933
-0.00108
0.0003582
0.3147
1.096
1.048
-0.3697
-0.6781
0.0001571
0.0001694
0.001009
-0.001507
0.0004981
0.0004558
-0.0005671
0.0001114
0.0005167
-2.115e-05
-0.3443
0.49
-0.1456
-0.005858
0.001238
0.00462
-0.0003892
0.0004166
-2.74e-05
-0.5078
-0.07844
0.001143
-0.0009936
-0.0001495
0.001285
-0.0005055
-0.6287
-0.1924
-3.05e-05
-0.0009061
0.0009366
0.005228
-0.003626
-0.001602
-0.008001
0.008858
-0.0008571
-0.0003609
-0.0008406
0.001202
1.612e-05
-0.0001941
0.000178
-7.715e-06
-1.049e-07
7.819e-06
0.000853
-0.0001053
-0.0007477
7.722e-05
-0.0001634
8.619e-05
0.0004991
0.0008715
-0.002752
0.001476
-0.0005085
0.0009468
-0.0004383
-0.001308
0.0008267
0.0004812
-0.0009117
0.001498
-0.0005859
-0.4564
0.1121
-0.0009356
0.0008424
9.32e-05
0.002105
-0.002522
0.0004174
-0.000447
-0.0004793
0.0009262
-0.002473
0.002985
-0.0005112
0.964
-1.124
0.1604
-0.0006842
0.0001124
-0.0008449
-0.0006345
0.001316
-0.001589
0.0002728
-1.252e-05
-1.362e-05
0.2726
0.8283
-1.101
0.1197
-0.2334
-6.672e-05
-0.0001001
-3.181e-05
-1.042e-05
4.223e-05
-0.0004931
0.0004267
6.636e-05
0.001146
-0.0004974
-0.0006488
1.305
-0.8188
-0.001601
0.001082
1.273
-0.4683
-0.0005919
0.0004552
0.0001367
0.0007683
-0.001253
0.1076
-0.3631
-0.1909
0.5496
-0.003739
-0.002091
0.005829
0.001258
-0.00131
5.205e-05
0.002324
-0.001375
-0.0009494
1.363e-05
2.114e-05
-0.000108
-8.369e-05
0.0003808
-6.166e-05
-0.0003191
0.000262
0.0001524
0.0002537
-0.000341
0.0002058
-0.0001768
-2.902e-05
0.002357
-0.003772
0.001415
-0.002314
0.00216
0.0001544
0.4078
0.02264
-0.4304
-0.0001973
0.0001567
-0.001375
0.001656
-0.0002809
0.0007424
0.0004038
-0.001312
-0.001801
0.003113
0.006349
-0.07371
-0.003963
-0.01049
0.01445
-4.628e-05
1.303e-06
4.498e-05
0.002421
0.002806
-0.003255
0.002076
0.001178
5.5e-05
-5.458e-06
0.001168
-0.001191
2.274e-05
-0.001466
0.00106
-0.001252
0.00092
0.0003323
-0.02277
-0.0005134
0.02328
-0.4576
-0.02259
0.4802
0.004093
-0.002668
0.0001208
5.567e-05
8.16e-06
2.588e-05
7.558e-06
-3.595e-05
2.839e-05
0.1524
-0.3525
0.0004079
0.0003464
-0.0003475
-4.288e-05
0.0003904
0.0006789
0.001173
0.0001058
0.0001095
-0.0002153
-4.428e-05
3.127e-05
1.244
-0.9714
0.4239
-0.8688
0.4449
-0.002836
-0.01735
0.02018
-0.0009938
0.0006367
0.0003572
0.001014
-0.001405
0.0003907
0.0003507
-0.000574
0.0002233
0.0002873
0.0009704
0.0009753
0.0006745
0.2619
-1.064
0.8017
-0.00024
0.0006453
-0.0004052
-0.0005189
0.0002855
-6.586e-05
-5.1e-06
0.0005349
-0.0004462
-8.868e-05
0.001063
-0.001689
-0.0008139
0.0008551
-4.117e-05
-0.0009217
0.001099
-0.0001778
-0.000574
0.002332
-0.002009
-0.0003824
-3.54e-05
-3.021e-05
-0.007669
0.005769
0.001899
0.0008925
-0.000148
-0.0007445
-0.0006105
0.0003853
-0.0004586
0.0003288
0.0001298
0.0001921
7.291e-05
-0.000265
-3.906e-05
5.015e-05
-1.109e-05
-5.868e-05
3.409e-05
2.459e-05
9.96e-05
0.001665
0.0004882
-0.0002369
-0.0002513
-0.0003848
0.0004412
-5.644e-05
1.972e-05
-0.0002502
0.0002305
0.000361
3.645e-06
-0.0003647
0.001558
0.000709
0.0004351
0.003571
-0.001048
0.000515
0.0005328
0.0005008
-3.803e-05
-0.0004628
-0.0006885
0.001169
-0.0004807
0.000886
-0.001219
-0.001527
-0.03507
0.03659
4.281e-05
-7.33e-05
3.049e-05
-0.00211
0.001542
0.0005681
-7.036e-05
7.036e-05
0.0005788
0.001037
-0.001616
4.239e-06
-3.605e-05
-0.4039
0.2935
0.1104
-0.0001284
0.0001886
-6.023e-05
-0.001122
0.000667
0.0004552
-1.688
0.1711
-3.702e-05
0.000164
-0.0004216
-0.0005723
0.0002118
0.0004448
6.206e-05
-4.309e-05
-1.897e-05
8.648e-05
-4.476e-05
-0.01225
0.001783
0.01047
-4.252e-05
2.179e-05
2.073e-05
9.236e-05
-8.951e-05
-2.848e-06
0.0003701
-0.002034
-0.004941
0.005708
-0.0007675
0.002372
-0.001734
-0.0006383
-4.645e-05
8.436e-05
-3.791e-05
0.006
-0.007152
0.001151
-3.879e-05
-1.989e-05
-0.004399
0.05088
-0.0003483
0.001354
-0.001005
-0.0008022
-2.433e-05
0.0003613
0.0004487
-0.0001262
0.0001429
-1.67e-05
0.001064
-0.0005129
-0.0005508
-8.763e-05
7.692e-05
1.07e-05
0.001394
-0.002787
0.001393
0.396
0.05347
-0.4494
0.008821
-0.001326
-0.007495
0.0003465
-0.000448
0.0001015
5.332e-05
-4.199e-05
-0.01694
0.00672
0.01022
-0.2416
-0.9159
-0.0006935
0.0001157
0.0004058
-0.0001665
-0.0002393
0.0006409
-0.0005515
-0.001886
0.0001177
0.001768
-0.001032
0.002023
-0.0009906
0.1022
-0.07872
-0.0004612
0.0003443
0.000117
0.9195
0.276
-1.195
0.01054
-0.002445
-0.008094
0.5112
-0.5981
0.08688
0.5051
-0.7201
0.215
-1.049
-0.3207
1.37
-0.0002528
0.0006502
-0.0003974
0.02579
-0.0238
-0.001981
-0.008046
4.525e-05
0.01009
0.0157
3.382e-06
-3.383e-06
-8.833e-06
8.457e-06
3.758e-07
0.0004621
-6.684e-05
0.001546
-0.0009283
-0.0006176
1.532
-0.7701
-0.7616
6.682e-05
-6.647e-05
-3.499e-07
4.307e-05
-9.614e-05
5.307e-05
0.000207
-9.984e-05
-0.0001071
-0.001507
0.002628
-0.001121
0.001025
0.0006437
-0.001669
0.001946
-0.004189
0.002243
3.994e-05
-2.012e-05
-1.982e-05
0.06092
0.08336
-3.683e-05
0.0002358
-0.000199
1.108e-05
-0.0001202
0.0001092
0.9116
-1.121
0.2092
-0.0003992
3.814e-05
-0.0008418
-0.001227
0.002069
-0.001057
0.001779
-0.0007216
-2.338e-05
-0.0001142
0.0001376
1.95e-05
-3.394e-05
1.444e-05
-1.19e-06
-4.925e-06
6.115e-06
-0.0002039
-0.005628
0.0006917
-0.002584
0.001892
0.005861
-0.00597
0.0001084
0.0001026
0.0001077
-0.0002102
-0.0006937
-0.0007085
0.001402
0.05652
-0.7512
0.6947
-0.1678
-0.2361
0.00213
-0.002972
-0.0004217
0.0004217
-0.0003971
0.0004141
0.3343
-0.2327
-0.1016
0.5961
0.3176
-0.9137
-4.24e-05
-3.876e-06
-0.0004301
0.0002385
0.0001916
-0.0001685
0.0005798
-0.0004113
-0.000466
0.0001075
0.0003585
-0.0001205
0.0001205
-0.0006507
0.0004682
0.0001825
-0.002813
0.002561
0.0002521
-4.072e-05
5.95e-05
-1.878e-05
0.3131
-0.03164
-0.2815
-0.0005152
0.001062
-0.0005468
-1.184
0.9436
0.2409
-0.001111
0.0009269
0.0001846
7.51e-05
-0.0002127
0.0001376
0.001517
-0.0008085
-0.0007088
4.112e-05
0.0003791
-0.0004202
1.233
-0.4093
-0.8233
5.522e-05
-3.228e-05
-2.294e-05
-4.341e-05
-0.002277
0.001181
-8.449e-05
-0.001097
0.1271
-0.4628
0.3357
0.00542
-0.001307
-0.004113
-0.005357
0.001839
0.003518
0.04331
-0.4317
0.3884
-0.002116
0.00171
0.0004056
0.0001887
-9.108e-05
-9.762e-05
-2.167e-05
-0.0001271
0.0001488
0.0002713
0.0001077
-0.000379
-0.0006172
-0.0004179
0.001035
0.3299
-0.2333
-0.09658
0.0003257
-3.114e-05
-0.0002946
5.539e-05
-2.327e-05
-3.212e-05
-1.329
0.3371
0.992
0.0007506
0.0007489
-0.0015
-0.5211
0.07428
0.4468
-0.0004341
0.0001417
0.0002924
-0.01837
-0.0001592
0.01853
0.001374
-0.0005581
-0.0008155
0.2414
-0.1643
-0.07713
0.000206
-0.0002369
3.092e-05
-0.0002079
0.0004208
-0.0002129
1.045
-1.371
0.3258
-6.771e-05
2.35e-05
4.421e-05
-0.0002784
0.0002784
-0.0002732
0.0002732
-0.001212
0.0009064
0.0003056
4.591e-05
0.0003166
-0.0003625
0.2897
0.4841
-0.7739
0.0003512
-9.384e-05
-0.0002573
0.00144
-0.001302
-0.0001385
0.0006101
-0.0007676
0.0001575
-0.0003652
0.0001411
0.0002241
-0.0005397
-0.0004933
0.001033
1.232
-0.2923
-0.9399
-0.0002328
0.0002328
-7.803e-05
0.0003077
0.004585
-0.009872
-0.0001057
8.093e-06
9.764e-05
0.6091
-0.9321
0.3229
-0.5233
-0.7004
1.224
5.054e-05
7.084e-06
-5.763e-05
0.1228
0.02288
-0.1456
0.0002525
0.0002728
-0.0005254
-0.02545
-0.01343
0.03889
5.648e-05
0.0002015
-0.000258
-0.2057
1.275
-1.069
-1.252
1.047
0.0002308
-0.0002183
-1.252e-05
0.0005351
-4.865e-06
-0.0005302
-0.001111
-0.0007393
0.00185
-0.0003222
0.000678
-0.0003558
-4.813e-05
4.91e-05
-9.64e-07
1.786e-05
4.933e-05
-6.719e-05
0.002395
-0.003576
0.001181
-0.05331
-0.846
0.8993
-0.001066
0.002382
-0.001316
0.000334
-0.0001547
-0.0001793
-0.0005196
-0.0007883
-0.0006807
0.0004561
0.0002246
-0.002014
0.001629
0.0003852
-0.001163
0.0007873
0.0003755
1.614e-05
-7.94e-06
-8.198e-06
-0.0005574
-0.001275
0.001832
-0.0005603
-0.000185
0.0007452
-8.161e-05
4.823e-05
3.338e-05
-0.0005532
-0.0007495
0.001303
-0.0003503
-6.449e-05
0.0004148
-1.261
0.7572
0.5038
0.01985
-0.04168
0.02183
-8.442e-05
-0.0001261
0.0002105
0.0004696
0.0003304
-0.0008
0.001891
-0.0007065
-0.001185
0.0006183
-0.0007043
8.602e-05
0.01043
-0.007157
-0.003276
0.5296
-0.2641
-0.2655
-0.0007264
0.001078
-0.0003518
-0.0001779
-2.091e-05
0.0001989
0.0002351
-0.001057
0.0008216
0.0005281
-0.0003302
-0.0001978
-0.00117
0.001497
-0.0003268
-0.7162
0.3234
0.3928
1.047
0.001119
0.001188
0.0004685
-0.001656
-4.166e-06
-4.667e-06
-0.0002831
0.0002831
-0.0007096
0.001527
-0.0008174
0.001064
-0.001839
-0.001127
0.0009942
0.0001324
0.0008796
-0.001086
0.0002066
-0.0001206
0.0008134
-0.0006929
-0.1486
0.274
-0.1254
6.579e-05
0.0002164
-0.0002822
-0.2702
0.7187
-0.4485
0.5487
0.7897
-1.338
-0.0008006
-0.0002471
-0.003355
-0.000332
0.003687
-4.941e-06
-0.000376
0.0003809
-0.9531
1.305
-0.3522
-0.0005898
0.001196
-0.0006061
-0.0001949
0.0001949
0.3125
-0.04974
-0.2628
-1.079
0.6141
0.4644
0.000336
-0.000336
-0.0002379
0.0001107
0.0001272
-0.001966
0.001782
0.0001842
-0.04008
0.00129
0.03879
-0.0007283
0.0009499
-0.0002216
-0.3732
0.3035
0.06968
0.0009044
0.0006734
-0.001578
4.392e-05
6.025e-05
-0.0001042
0.0001731
-5.94e-05
-0.0001137
0.1855
0.1444
0.0007991
-0.0001681
-0.000631
-0.0009733
0.0009733
0.0002535
-0.0002535
0.0004647
-0.0006887
0.000224
5.699e-06
-0.000908
0.0009023
-0.0009545
0.0007681
0.0001864
0.0003102
-7.933e-05
-0.0002308
-0.9492
-0.494
1.443
2.548e-05
-0.0001538
0.0001284
0.01368
0.000618
-0.01429
-0.0004784
0.002682
-0.002204
0.0004087
0.0004834
-0.0008922
0.000988
-9.556e-05
0.001489
-6.809e-05
-0.00142
-0.0006907
0.001271
-0.0005805
-0.0003384
0.0001088
0.0002296
-0.002299
0.002342
-4.251e-05
-0.501
1.177
-0.6762
6.588e-05
0.0002853
0.0001284
-0.0007167
0.0005883
-0.000467
0.0007562
-0.0002893
2.333e-06
0.001438
-0.3067
-0.03051
0.3372
0.1185
-0.4074
0.2889
0.007115
-0.008375
0.00126
-1.294
0.001761
0.0004037
-0.002165
-0.0004807
0.0004708
9.874e-06
0.0005894
-1.523e-05
-0.0005742
-0.01154
-0.01099
-0.0003026
0.0004723
-0.0001697
0.0004491
-0.0001819
-0.0002672
9.597e-05
-0.001311
0.001215
-0.0003601
-0.0001059
0.2616
0.772
-1.034
-4.178e-05
2.389e-05
1.789e-05
-0.0004219
0.0002305
0.0001914
0.0004474
-0.0007181
0.0002707
0.000479
0.00317
-5.971e-06
1.57e-06
4.4e-06
-0.001674
-0.002377
0.004051
-8.982e-05
4.507e-05
4.474e-05
-0.0001636
-0.0006577
0.0008212
0.0008645
-0.0009057
4.125e-05
0.003327
-0.005445
0.002118
6.1e-05
-0.0005961
0.0005351
-0.0009426
0.000999
-5.643e-05
1.668
-0.9603
-0.7073
-0.0004343
-0.0021
0.002535
0.00113
-0.0006137
-0.0005165
0.0002991
0.0009212
-0.00122
-0.0003183
-0.0002736
-0.002994
-0.0006895
0.003683
3.578e-05
2.559e-05
-6.137e-05
0.000326
-0.0001857
-0.0001403
0.0002065
-0.0002065
-0.2456
0.3263
-0.08072
0.0008675
-0.001272
0.0004041
0.001386
-0.0004815
-0.0006121
-0.001951
0.002563
0.0002436
-0.0002303
-1.334e-05
0.1755
-0.5265
0.351
-0.00481
-0.001245
-0.0001435
0.0001095
3.401e-05
1.227
-1.076
-0.1514
0.000298
0.001493
-0.001791
0.0004111
-0.0004111
0.0001415
-7.039e-05
-7.112e-05
-0.00111
0.0009402
0.0001701
-1.129
-0.3245
1.453
-0.0009477
-0.0002216
0.001169
-0.0007993
-0.002086
0.002886
0.002119
-0.0009043
-0.001215
0.0001094
-0.002349
0.002239
3.714e-05
-0.001878
0.001841
-0.003086
0.003157
-7.112e-05
0.0005258
-0.0009762
0.0004504
-0.001897
0.002281
-0.000384
-0.0005875
0.001563
-0.000976
-0.00113
0.001327
-0.0001964
-0.0002143
0.002977
-0.002762
-0.001231
0.001369
-0.0001374
-0.0008808
-0.001419
-0.0007346
0.0007346
-6.697e-06
-3.226e-05
3.895e-05
0.9192
0.3318
-1.251
0.0006746
-0.0005142
-0.0001604
0.007741
-0.0006283
0.0002671
-0.0002671
-0.5975
1.452
-0.8547
-0.0008447
0.0006765
0.0001682
6.398e-05
-2.989e-05
-2.881e-05
-0.001532
0.001561
1.181e-05
-4.884e-05
-0.9094
0.8561
0.001099
-0.0008392
-0.00026
-0.05524
0.01516
-0.0003524
-0.00108
0.001433
6.598e-05
-6.828e-05
2.302e-06
-0.001019
0.0006783
0.0003409
-0.115
-0.1367
0.2517
0.0002711
-0.003895
0.003623
0.0001813
1.01e-05
-0.0001914
0.0006537
-0.001179
0.0005251
-7.986e-05
-8.8e-05
0.0001679
0.005432
-0.0004051
-0.005027
0.0004308
0.0003196
-0.0007504
1.387e-05
0.0001689
-0.0001828
0.3233
-0.01668
-0.3066
-0.0005783
-0.0002238
0.0008022
-5.098e-05
0.0003719
-0.0003209
-0.02655
0.04637
-0.01982
0.001389
-1.552e-05
-0.0006313
0.0006381
-6.727e-06
0.002755
-0.002183
-0.0002544
0.0002544
0.0003742
0.00109
-0.001464
1.603
-1.215
-0.3877
-0.001576
-0.001575
0.00315
0.007112
-0.008265
0.001153
-0.001195
0.0008614
0.0003337
0.001677
-0.01767
0.01599
-1.021
1.282
-0.0004782
0.000825
-0.0003468
0.08236
0.06435
-0.1467
0.0001478
-0.0003773
0.0002296
0.0002283
0.006124
-0.006352
0.002232
-0.0008531
-0.001379
0.3231
-1.319
0.9958
-2.676e-05
0.0001542
-0.0001274
-3.363e-05
0.0001915
-0.0001579
-0.07853
0.01076
0.06777
-1.555
0.8655
0.6896
-1.069
-0.5857
-1.006
-0.6598
-1.845e-05
1.845e-05
-1.845e-05
-0.0003791
0.0003791
-0.0003323
-3.291e-05
-0.0002241
0.0002732
0.02477
-0.02178
-0.002998
-0.0006094
-0.000643
0.005825
-0.002821
-0.003004
-0.0004543
0.01056
-0.0101
0.00182
-0.00171
0.0001463
-1.275e-05
-0.0001335
-0.01332
0.006697
0.006626
-0.3987
-0.1273
0.526
0.00142
-0.000168
-0.001252
0.1596
-0.2652
0.1057
-7.473e-05
0.0002208
-0.0001461
0.0008931
-0.0006787
-0.0002143
0.2641
0.1841
-0.4482
-0.07436
-0.06221
0.1366
-0.0002371
0.0004103
-0.0001731
0.0005136
-7.708e-05
-0.0004365
-0.8547
1.426
-0.5711
-0.0007403
0.0006198
0.001316
-0.001533
0.0002167
0.02966
-0.005513
-0.02415
3.964e-05
2.974e-07
0.0003063
-0.0003759
6.958e-05
-0.0007627
-0.0001188
0.0008816
-0.02139
0.0319
-0.01051
0.009661
-0.01013
0.0004664
-0.002443
-0.001778
0.004221
-5.24e-05
9.628e-06
4.277e-05
0.5166
-0.1207
9.353e-05
-0.0003541
0.0002605
0.1
0.2343
0.004577
0.001248
0.01375
-0.006299
-0.007448
0.000432
-0.0004688
3.684e-05
-0.001634
0.002554
-0.0009205
-0.8617
0.495
0.3667
-0.03146
0.07206
-0.0406
-0.001569
-0.005439
0.007007
-0.0004091
0.0002356
0.0001735
-5.181e-05
3.231e-05
1.95e-05
0.001315
-0.001063
-0.0002527
0.0008974
-0.001017
0.0001199
1.765e-05
0.0001092
-0.0001268
0.003022
-0.002273
-0.0007485
-0.3068
-0.8
1.107
-5.584e-05
2.6e-05
2.984e-05
0.393
-1.346
-0.0002205
0.0003196
-9.905e-05
-0.000355
0.0002351
0.0001199
0.0003506
-0.0001139
-0.0002367
-3.141e-05
-2.443e-05
-0.1671
0.1661
0.001029
-0.0003095
0.0002259
8.354e-05
-0.000267
0.0007099
-0.0004428
0.001974
0.002142
-0.004116
-0.0004862
-0.0004525
0.0009387
-1.453
0.4727
0.9799
3.842e-05
9.16e-05
-0.01063
0.01217
-0.001539
0.0006851
-0.0009858
0.0003007
0.0001631
-7.192e-05
-9.12e-05
-0.0001317
2.075e-05
0.000111
0.007378
-0.009787
0.002409
0.00132
0.0007986
0.002605
0.0007938
-0.001219
0.0008614
0.0003579
0.000588
0.001574
-0.002162
-0.0007129
0.001834
-0.001121
-0.0008125
0.0008125
0.0007959
-0.0007003
-9.551e-05
-0.0003813
0.0003813
-0.0002881
0.0004711
-0.0001829
0.0004325
-5.446e-05
-0.000378
0.0002223
-0.0003151
9.279e-05
-0.01271
0.009875
0.3612
-0.3776
0.01636
-0.00175
0.0005042
0.001246
-0.000317
0.000317
-0.07354
0.2331
-7.791e-06
9.892e-06
-2.102e-06
0.0004527
-4.799e-05
-0.0004047
-1.281
1.317
-0.03552
-0.0749
-1.206
0.001191
-0.001511
0.0003208
-0.003461
-0.00148
-0.00134
0.0003752
0.0009647
0.009399
-0.002608
-0.006791
0.0001332
3.989e-05
0.003369
-0.004926
0.001557
-3.943e-05
3.424e-06
3.6e-05
0.00314
-0.003862
0.0007224
0.4387
0.02216
-0.4608
-4.514e-05
3e-06
4.214e-05
0.0004639
-0.0004669
3.009e-06
0.363
-0.3491
-0.0139
0.001631
-0.002095
0.0004642
-1.165e-05
4.743e-05
-4.151e-05
5.604e-05
-1.453e-05
1.246e-05
-2.793e-05
1.547e-05
0.000165
0.000161
2.608e-05
-2.608e-05
-0.8239
0.8761
-0.05227
0.00538
-0.01944
-0.004437
0.004863
-0.0004256
-0.001693
0.003677
-0.001984
-1.113
1.426
-0.3135
-0.4894
1.072
0.0006709
0.000698
-0.001369
-0.296
-0.05592
0.3519
0.001374
-0.001494
0.0001201
0.001192
-0.0004493
-0.0007423
0.003996
0.004335
-0.008331
0.02641
-0.008178
-0.01824
-0.2745
0.129
0.1455
7.964e-05
-5.233e-05
0.1303
-0.04794
0.003511
-0.02738
0.02386
0.0008728
-0.0003921
-0.0004807
-0.002489
0.001955
0.0005332
-0.6396
0.4677
0.1719
0.1006
-0.07178
-0.02879
-0.0001358
-5.707e-05
0.0001928
0.04472
0.08105
-0.0004793
-0.0004563
0.1859
-0.6112
0.4253
0.0001664
-0.0001664
0.06579
-0.004016
-0.06177
-0.2073
0.09231
-0.3262
0.5018
-0.004833
0.007348
-0.002514
-0.0003356
0.0003356
-0.0007728
0.0007728
0.0002077
0.0001983
-0.0004061
2.944e-05
1.606e-05
-4.55e-05
-0.01282
0.007724
0.005101
0.09431
-0.01066
-0.08365
0.0004368
0.008505
-0.008942
-3.792e-05
-9.211e-05
0.0004327
0.0005836
-0.001016
0.2846
1.247
-0.001328
0.0007664
0.0005617
0.0001363
-0.001583
0.001447
-1.024e-05
4.589e-05
-3.565e-05
0.0002034
-0.0004254
0.000222
-0.0007352
0.001111
-0.0003753
-1.186e-05
0.0002344
-0.0002225
-0.3172
0.542
-0.2248
-2.301e-06
8.901e-07
1.411e-06
-0.0007213
-0.001593
0.0002961
0.0001876
-0.0004837
-0.05943
0.1822
-0.0008539
0.000237
0.0006169
-0.008304
0.004202
0.004102
0.0001032
-7.231e-05
-3.085e-05
0.001194
-0.0009065
0.01161
-0.01424
0.002633
2.394e-05
2.176e-06
-2.612e-05
0.0004104
-0.0009552
0.0005448
0.002098
-0.001837
-0.0002607
0.002057
-0.002546
0.0004891
-0.0004495
-0.0003877
0.0008372
-0.09556
-0.1105
0.2061
0.0004891
0.0007173
-0.001206
0.004099
-0.001161
-0.002937
0.0002559
0.0001776
-0.0004216
0.0002441
-0.482
-0.07661
0.5586
0.3091
-1.079
0.0007692
-0.0005928
-0.0001765
0.106
-1.037
0.9307
-0.0005393
0.0002532
0.0002861
-0.0007978
0.0004534
0.0003444
-0.0002262
0.0002726
-4.645e-05
0.0005194
-0.0003176
-0.0002018
-3.631e-05
4.091e-05
-4.605e-06
0.7897
-0.9945
0.2048
-0.0008898
0.0006811
0.0002087
-0.1336
0.4648
-0.3312
0.0002988
-0.0002237
-0.0001867
0.0003788
0.0001686
-0.0002596
9.095e-05
-0.0002071
-0.0001171
0.0003242
-0.001169
0.002086
-0.0009169
-0.0009995
3.041e-05
0.0009691
-0.0002357
-0.000223
0.0001819
-0.0001819
-0.0005066
0.001191
-0.0006843
0.000552
-4.316e-05
0.001319
0.002702
-0.004022
-0.00303
0.000715
0.002315
-0.000522
0.001041
-0.0005189
-0.007584
0.01247
-0.004885
0.0008238
0.0002754
-3.818e-05
4.786e-06
3.339e-05
0.0003947
-0.0008413
0.0004466
0.2638
-0.0413
-0.2225
1.072e-05
-5.329e-05
4.257e-05
-0.2089
0.1661
0.04283
0.007649
-0.006392
-0.001256
-0.83
0.8142
0.01578
-0.001321
0.003303
-0.001982
-0.0003699
-0.0001479
0.0005177
0.0003786
-0.0003786
0.0008889
-0.0008918
2.893e-06
-0.001557
0.0009264
0.000631
0.003695
-0.002161
-0.001534
-0.002027
0.001819
0.0002079
-0.0002727
-0.0008541
0.001127
0.001361
-0.0009087
-0.0004523
0.001581
-0.001854
0.0002722
-0.07485
-0.07022
0.1451
0.007428
-0.008871
0.001443
-0.000858
0.0009277
-6.969e-05
0.1698
-0.2017
0.03184
0.01657
0.5994
-0.616
0.0005756
0.0005618
-0.001137
0.0004244
-0.0006827
0.0002583
-0.1288
0.9568
-0.828
0.004698
0.001665
-0.006363
-3.538e-05
8.893e-05
-5.356e-05
0.00015
-0.0003777
0.0002278
0.02821
-0.007125
-0.02109
3.616e-05
-3.121e-05
-4.952e-06
-0.0003115
-1.254
0.1446
1.11
-1.119e-05
1.254e-05
-1.343e-06
-0.5638
0.3295
0.2344
-0.0005149
2.201e-05
0.0004929
0.00297
-0.002908
-6.194e-05
8.764e-05
0.0001068
-0.0001944
-0.002585
-0.001628
0.004214
-0.04561
-0.01008
0.05569
0.03441
-0.03018
0.000852
-8.129e-05
-0.0007707
0.008442
-0.008653
0.0002105
1.349e-05
0.0002545
-0.000268
-0.0003618
0.001155
-0.0007931
-0.0007401
-0.0006107
0.001351
6.354e-05
-0.000108