/*--------------------------------*- C++ -*----------------------------------*\
| =========                 |                                                 |
| \\      /  F ield         | OpenFOAM: The Open Source CFD Toolbox           |
|  \\    /   O peration     | Version:  v2012                                 |
|   \\  /    A nd           | Website:  www.openfoam.com                      |
|    \\/     M anipulation  |                                                 |
\*---------------------------------------------------------------------------*/
FoamFile
{
    version     2.0;
    format      ascii;
    class       volVectorField;
    location    "5";
    object      U;
}
// * * * * * * * * * * * * * * * * * * * * * * * * * * * * * * * * * * * * * //

dimensions      [0 1 -1 0 0 0 0];


internalField   nonuniform List<vector> 
98045
(
(0.4828 0.6465 -9.832e-22)
(0.5492 0.436 0)
(0.03043 -0.02311 -2.871e-23)
(-0.01123 -0.02008 1.169e-21)
(0.4844 0.6626 -3.625e-21)
(0.6297 0.006826 6.095e-21)
(0.6653 0.2959 0)
(0.2062 -0.0882 4.688e-22)
(0.05151 -0.03887 0)
(0.5093 0.6606 4.34e-21)
(-0.01364 -0.02332 1.515e-21)
(0.2476 -0.09389 2.058e-22)
(0.5406 0.7115 0)
(0.03792 -0.02699 -2.398e-22)
(0.1396 -0.05271 0)
(0.07618 0.8886 -1.449e-21)
(0.09926 -0.07707 3.661e-22)
(1.011 -0.4447 -9.384e-22)
(0.2587 -0.1685 -8.341e-22)
(1.003 -0.4443 -3.841e-24)
(0.8595 -0.359 1.945e-21)
(0.9783 -0.4442 1.73e-21)
(1.01 -0.1123 0)
(0.1856 -0.147 2.151e-23)
(0.7397 -0.2571 0)
(0.6713 -0.433 -2.189e-21)
(0.7818 -0.008913 -1.632e-20)
(1.048 -0.4463 9.592e-22)
(-0.009708 -0.02406 1.248e-21)
(0.1701 -0.1295 4.026e-22)
(1.129 -0.4561 0)
(1.295 -0.4112 3.355e-22)
(0.9521 -0.4455 -2.041e-21)
(0.9683 -0.4461 -1.024e-21)
(0.209 -0.1465 -2.01e-21)
(1.13 -0.355 1.062e-21)
(1.139 -0.4578 3.217e-23)
(1.291 0.01441 0)
(0.7262 -0.4449 -1.949e-22)
(0.4616 -0.2392 5.528e-21)
(0.2674 -0.1733 7.144e-21)
(0.9036 -0.4054 0)
(1.022 -0.2238 -3.468e-21)
(1.008 0.01204 -8.734e-21)
(1.02 -0.1036 6.671e-21)
(0.7459 -0.2851 0)
(0.4527 -0.3498 -2.912e-21)
(1.056 -0.4467 6.758e-22)
(0.1992 -0.1445 0)
(0.1683 -0.1301 6.24e-22)
(1.342 0.1578 0)
(0.1861 -0.1466 0)
(0.2666 -0.1734 -5.565e-21)
(0.9639 -0.0076 4.776e-21)
(0.1859 -0.1466 1.132e-23)
(0.1756 -0.1462 -4.096e-23)
(1.475 0.2082 -3.424e-21)
(0.7887 -0.4546 1.658e-21)
(0.966 -0.007875 -4.974e-21)
(0.1869 -0.1658 -1.909e-23)
(1.018 -0.3947 1.485e-21)
(1.384 -0.4035 0)
(1.02 -0.08587 -2.556e-21)
(0.9928 -0.0002363 0)
(1.011 -0.00239 5.23e-20)
(1.128 -0.456 0)
(1.114 -0.4376 -1.79e-22)
(0.2536 -0.166 0)
(1.38 -0.409 1.351e-22)
(0.9762 0.001112 0)
(0.1877 -0.1353 -7.622e-22)
(0.1835 -0.1373 -2.115e-21)
(0.3502 -0.2049 0)
(1.017 -0.005155 1.015e-20)
(0.1863 -0.1675 0)
(0.7034 -0.1749 2.055e-20)
(1.069 -0.001304 1.008e-20)
(1.224 0.06893 1.028e-20)
(0.9479 -0.4464 -5.717e-22)
(1.011 -0.002032 -1.409e-19)
(1.094 -0.1831 -1.554e-21)
(1.033 -0.4045 0)
(0.683 -0.2815 -5.171e-22)
(0.6435 -0.4169 -2.086e-21)
(1.067 -0.3892 -5.268e-22)
(0.9886 -0.4436 -1.254e-21)
(0.2307 -0.154 0)
(1.017 0.03077 1.214e-21)
(0.2567 -0.1685 0)
(1.171 -0.4442 3.807e-23)
(1.119 -0.1574 -3.299e-21)
(0.651 -0.2805 -1.56e-21)
(0.441 -0.2179 -7.367e-21)
(0.9786 -0.4442 -1.092e-21)
(0.1835 -0.1335 0)
(0.8069 -0.2705 -8.216e-22)
(0.9935 -0.0002263 -4.91e-21)
(0.8308 -0.4471 0)
(0.1755 -0.1461 4.439e-23)
(0.1777 -0.1495 9.192e-23)
(0.2157 -0.1489 -2.848e-21)
(1.008 0.01182 -4.673e-21)
(0.6029 -0.2758 -2.286e-21)
(0.1802 -0.1341 4.879e-22)
(1.129 -0.3591 -1.129e-21)
(0.788 -0.4545 9.629e-23)
(1.383 0.0235 8.251e-21)
(0.1745 -0.1327 -4.125e-22)
(0.9235 1.319 3.776e-22)
(1.008 -0.4441 0)
(0.4416 -0.2976 1.818e-21)
(0.987 -0.4061 0)
(1.011 -0.4445 1.807e-21)
(0.1688 -0.1306 -2.795e-22)
(1.171 -0.2144 0)
(1.196 -0.2304 0)
(0.9853 -0.4057 0)
(0.3072 -0.1912 6.244e-23)
(0.9478 -0.4462 -5.473e-22)
(1.387 -0.3948 -3.733e-22)
(0.09558 0.9607 0)
(0.346 -0.1932 -8.406e-21)
(0.2742 -0.1769 0)
(0.1715 -0.148 -8.812e-22)
(1.033 -0.0002754 -2.003e-20)
(1.021 -0.08327 2.229e-21)
(1.003 -0.444 -1.978e-24)
(1.191 0.565 1.179e-21)
(1.017 -0.004786 0)
(0.8316 -0.4467 0)
(1.109 -0.4489 1.358e-22)
(0.1749 -0.133 -3.937e-22)
(0.1803 -0.1558 1.977e-23)
(1 -3.285e-05 1.129e-21)
(0.8898 -0.2678 0)
(0.2596 -0.1687 0)
(0.8268 -0.1603 0)
(0.1858 -0.1473 0)
(1.165 -0.1957 -7.081e-22)
(0.8134 -0.03975 -1.432e-20)
(1.166 -0.463 3.186e-22)
(0.9688 -0.4459 1.811e-21)
(0.2014 -0.1451 -3.297e-24)
(0.8998 -0.2683 0)
(0.4596 -0.3749 -5.153e-21)
(1.071 0.8348 1.776e-21)
(1.058 -0.4409 3.693e-22)
(0.549 -0.4159 2.45e-21)
(1.082 -0.1976 -6.136e-24)
(0.7526 -0.009202 1.789e-20)
(0.1771 -0.1426 2.57e-23)
(0.1866 -0.1347 1.953e-21)
(0.8785 -0.2707 2.549e-21)
(1 0.00848 -2.622e-20)
(1.018 0.02992 0)
(1.15 -0.4604 -3.206e-23)
(1.233 -0.1299 1.386e-21)
(0.1799 -0.1562 0)
(0.3969 -0.2177 -1.979e-21)
(1.046 -0.446 4.833e-22)
(1.133 -0.4566 0)
(0.1843 -0.1376 0)
(0.1055 0.7755 0)
(0.927 -0.4161 0)
(0.1685 -0.1306 0)
(1.464 0.1831 -7.53e-21)
(0.7751 -0.4533 0)
(0.2105 -0.1109 4.218e-21)
(0.1905 -0.1582 -2.622e-23)
(0.8569 -0.3518 0)
(0.5703 -0.3691 3.937e-22)
(1.179 -0.4566 2.079e-23)
(0.717 -0.4508 -2.987e-21)
(1.03 -0.4415 8.224e-22)
(0.1712 -0.1484 8.705e-22)
(0.9197 -0.4467 -1.466e-21)
(1.012 0.03202 3.757e-22)
(1.008 -0.4401 4.789e-22)
(1.071 -0.1302 -1.129e-21)
(1.008 0.0003196 0)
(0.2206 -0.1518 0)
(0.495 -0.3564 0)
(0.6266 -0.3699 -2.464e-21)
(0.9484 -0.4257 1.13e-21)
(0.2709 -0.1749 -1.716e-21)
(0.3907 -0.2123 -6.065e-21)
(0.4642 -0.2473 2.072e-24)
(0.09437 -0.07659 0)
(0.3765 -0.2169 0)
(0.9538 -0.4397 2.997e-21)
(1.18 -0.4566 -1.501e-23)
(0.7723 -0.2824 0)
(0.2166 -0.1492 0)
(0.7597 -0.284 4.059e-22)
(0.977 0.001142 0)
(0.1295 -0.1483 -2.911e-21)
(1.157 -0.2055 0)
(0.1909 -0.1548 4.238e-23)
(0.2339 -0.1518 -6.168e-21)
(0.4692 -0.2423 -7.001e-21)
(0.9853 -0.423 -4.757e-21)
(0.1739 -0.1382 2.431e-22)
(0.3179 -0.263 7.809e-21)
(0.987 0.1624 -3.356e-21)
(1.014 -0.0123 -8.725e-21)
(0.1717 -0.1361 -1.197e-22)
(1.127 -0.1695 8.098e-22)
(1.032 -0.008741 1.644e-20)
(0.06437 0.868 1.326e-21)
(0.7758 -0.4533 2.218e-21)
(0.9499 0.1124 -1.811e-20)
(1.226 0.08277 -1.036e-20)
(1.013 -0.0002301 1.286e-20)
(0.3806 -0.2203 2.253e-21)
(0.9876 -0.001809 1.261e-20)
(0.9235 -0.4456 2.196e-21)
(1.006 -0.4419 -1.604e-21)
(0.9859 -0.0019 -5.695e-22)
(1.163 -0.1924 6.294e-22)
(0.5737 -0.2559 -1.584e-21)
(1.083 -0.193 -1.872e-23)
(0.9494 0.1328 2.148e-21)
(1.017 0.001853 7.492e-21)
(0.173 -0.1356 8.248e-22)
(0.9906 -0.4418 -2.502e-21)
(0.9417 -0.4301 4.181e-21)
(1.169 -0.4644 -3.124e-22)
(1.014 -0.0002703 -2.169e-20)
(0.1869 -0.1349 -1.821e-21)
(0.7165 -0.2851 1.149e-21)
(1.001 -0.347 1.605e-21)
(1.035 -0.2176 1.085e-20)
(1.012 0.01884 2.341e-21)
(0.3965 -0.217 5.86e-21)
(0.2446 -0.163 0)
(1.008 0.0003817 9.866e-22)
(0.2101 -0.1468 -9.483e-22)
(1.007 -0.4454 0)
(0.835 -0.4529 1.419e-21)
(1.006 -0.445 -1.048e-21)
(1.117 -0.4478 -1.294e-24)
(1.021 -0.3947 2.666e-24)
(1.201 -0.1401 -1.807e-21)
(1.027 -0.4445 -8.325e-22)
(1.071 -0.1786 -1.413e-21)
(0.8083 -0.2711 -3.083e-21)
(1.038 -0.4445 -6.914e-22)
(0.9561 0.07234 0)
(1.032 -0.007929 -7.546e-21)
(0.9232 -0.2631 0)
(1.011 0.03111 -3.822e-22)
(0.1832 -0.148 -1.367e-23)
(0.9958 -0.4398 0)
(0.1833 -0.148 2.629e-23)
(0.9044 0.1062 8.528e-21)
(1.172 -0.443 -5.766e-23)
(0.7647 -0.4407 1.459e-21)
(0.9273 -0.4477 1.288e-21)
(1.112 -0.4528 0)
(0.7838 -0.2741 -1.414e-20)
(0.9335 -0.04622 -4.538e-21)
(1.188 -0.1542 0)
(0.55 -0.4162 3.422e-21)
(0.169 -0.1271 8.197e-22)
(1.2 -0.2354 -5.362e-23)
(0.2842 -0.1805 0)
(0.1913 -0.1506 -3.31e-23)
(0.782 -0.1007 1.196e-20)
(1.018 -0.445 2.245e-22)
(1.098 -0.4373 0)
(0.254 1.255 -1.152e-21)
(1.016 0.002029 0)
(0.1764 -0.1493 0)
(1.09 -0.1859 1.478e-21)
(0.1907 -0.1551 -2.514e-23)
(0.2249 -0.1058 2.936e-24)
(0.2596 -0.1585 0)
(0.3982 -0.1476 3.812e-22)
(0.3785 -0.2183 -2.857e-21)
(1.204 -0.3363 -2.556e-22)
(0.9534 -0.4457 0)
(0.1738 -0.1286 -2.662e-21)
(1.232 -0.1327 6.765e-22)
(0.1839 -0.1338 5.91e-22)
(1.227 -0.4126 -9.14e-23)
(0.7378 -0.2472 0)
(0.6852 -0.4369 0)
(0.1651 -0.1253 -1.088e-21)
(0.2882 -0.1834 -1.408e-21)
(1.027 -0.4389 7.192e-22)
(1.012 0.01838 1.218e-20)
(-0.03118 0.07286 5.136e-25)
(1.045 -0.4459 0)
(0.1845 -0.1354 1.511e-21)
(1.033 -0.0004541 1.961e-20)
(0.9014 -0.08678 -3.03e-20)
(0.1892 -0.1475 1.856e-23)
(0.7946 -0.4349 0)
(0.2714 1.284 3.007e-22)
(0.7747 -0.3165 1.137e-22)
(0.1595 -0.191 0)
(0.1782 -0.1845 -2.043e-21)
(0.1697 -0.1287 0)
(0.1754 -0.1434 -4.144e-24)
(0.9877 -0.1745 0)
(0.9482 -0.4465 1.87e-22)
(0.2329 -0.1549 0)
(0.2752 -0.1773 1.714e-21)
(0.7529 -0.2858 4.301e-21)
(0.305 -0.1869 0)
(1.087 -0.1169 -3.636e-22)
(1.099 -0.4489 -2.651e-22)
(0.1805 -0.1319 9.6e-22)
(0.4551 -0.23 1.356e-23)
(0.998 0.006054 -3.303e-20)
(0.2562 -0.164 7.683e-21)
(1.057 -0.4464 0)
(0.418 -0.1293 3.626e-22)
(0.6242 -0.2774 -3.36e-21)
(0.9834 0.01514 4.418e-22)
(0.1703 -0.1291 0)
(0.1635 -0.1254 3.431e-22)
(0.2372 -0.1526 4.114e-21)
(0.5333 -0.3947 -1.306e-21)
(1.007 -0.4424 1.435e-21)
(1.097 -0.4366 0)
(0.1824 -0.1478 4.176e-23)
(1 0.00856 1.93e-20)
(0.6295 -0.2776 -4.608e-21)
(0.1756 -0.1444 1.113e-23)
(0.9125 -0.2039 3.184e-20)
(0.1765 -0.1496 0)
(0.5689 -0.2703 -1.034e-21)
(1.1 -0.4172 1.786e-22)
(0.9967 -0.4402 0)
(1.115 -0.4367 1.854e-24)
(1.14 -0.458 -5.588e-23)
(1.062 -0.1256 2.613e-22)
(0.3566 -0.2013 -2.901e-21)
(0.9851 0.0006906 4.27e-21)
(1.04 -0.04324 0)
(0.1851 -0.1364 -4.601e-25)
(0.1668 -0.1287 3.909e-22)
(0.8797 -0.2544 6.999e-22)
(0.2019 -0.1432 -6.724e-22)
(0.1748 -0.1375 -1.037e-22)
(0.7624 -0.4024 3.69e-21)
(1.388 -0.3881 2.047e-22)
(0.6486 -0.4397 3.036e-21)
(0.2346 -0.156 4.3e-21)
(-0.0174 -0.04859 -1.265e-21)
(0.1747 -0.141 0)
(0.2243 -0.1531 3.452e-25)
(0.717 -0.4497 2.786e-21)
(0.8393 -0.4531 0)
(0.9439 -0.04516 4.15e-21)
(0.9599 -0.4451 0)
(1.005 -0.01884 0)
(0.184 -0.1461 -1.363e-23)
(0.3896 -0.3509 -5.43e-22)
(1.086 -0.2094 1.552e-21)
(1.009 0.0008824 4.102e-22)
(0.5737 0.008546 2.485e-22)
(0.1766 -0.1437 5.969e-27)
(1.02 0.001437 0)
(0.2152 -0.1495 -1.926e-25)
(0.9974 0.01004 2.994e-20)
(0.2657 -0.1721 4.858e-23)
(1.21 0.5557 -2.352e-21)
(1.03 -0.4411 1.644e-21)
(1.18 -0.4583 9.153e-24)
(1.126 -0.4541 4.902e-23)
(1.053 -0.108 0)
(1.152 -0.4472 0)
(0.1643 -0.1177 0)
(0.9468 -0.2641 -2.19e-21)
(1.012 -0.01798 0)
(0.1859 -0.1503 5.055e-24)
(0.1815 -0.1406 0)
(0.992 8.688e-06 2.175e-22)
(0.8281 -0.4541 4.445e-21)
(0.1912 -0.1508 2.061e-23)
(1.38 0.9992 0)
(0.7497 -0.4534 1.554e-21)
(0.6297 -0.2571 0)
(0.9868 0.002142 -1.405e-20)
(0.174 -0.1288 3.484e-21)
(0.1759 -0.1457 0)
(0.8645 -0.4316 7.737e-21)
(0.9954 -0.43 2.654e-21)
(1.009 0.002389 -3.606e-22)
(0.1653 -0.1255 1.225e-21)
(1.01 -0.4447 0)
(0.9133 -0.01469 -1.077e-20)
(1.036 -0.08745 8.411e-22)
(0.308 -0.1914 1.784e-21)
(0.1654 -0.1292 2.406e-22)
(0.1813 -0.1349 -1.058e-22)
(0.2248 -0.1523 6.404e-22)
(0.5697 -0.3671 -3.835e-22)
(0.9919 3.69e-05 2.552e-21)
(1.013 -0.0005118 0)
(0.1807 -0.1319 1.847e-21)
(0.5508 -0.2662 -1.427e-21)
(0.2579 -0.1691 0)
(1.382 0.1601 0)
(1.012 -0.01471 8.56e-21)
(0.8958 -0.4306 0)
(0.2132 -0.1478 -2.87e-21)
(0.9976 0.009802 1.258e-22)
(0.8733 -0.4129 0)
(0.3525 -0.2057 0)
(0.9982 0.005628 0)
(1.244 -0.1165 3.236e-21)
(0.9966 -0.4397 -8.926e-22)
(1.145 -0.3652 -1.233e-22)
(0.7772 -0.4547 -1.071e-21)
(0.1794 -0.1327 -2.961e-22)
(0.02134 -0.01444 1.443e-21)
(0.9411 -0.2488 1.03e-21)
(0.1698 -0.1314 -7.946e-22)
(1.201 -0.1403 1.699e-21)
(0.9885 -0.4432 1.503e-21)
(0.7795 -0.4533 -4.875e-21)
(0.2147 -0.1473 4.929e-22)
(0.3451 -0.2027 -1.287e-21)
(1.012 -0.01516 0)
(0.2041 -0.1437 -1.404e-21)
(0.3203 -0.1863 -4.172e-21)
(1.139 -0.4551 0)
(0.5012 -0.2446 -3.668e-21)
(1.001 -2.97e-05 6.405e-21)
(0.222 -0.1523 1.341e-21)
(0.2248 -0.1527 0)
(0.3081 -0.1849 0)
(0.1767 -0.1374 7.187e-25)
(1.007 0.0002221 0)
(0.9536 0.06898 0)
(0.1638 -0.1256 0)
(0.1146 -0.1642 4.162e-23)
(0.4459 -0.2301 3.217e-21)
(0.7781 -0.2788 -4.551e-21)
(1 -4.452e-05 1.279e-23)
(0.7254 -0.4434 3.648e-22)
(1.02 0.001357 -7.628e-21)
(0.3012 -0.1892 5.276e-21)
(0.6574 -0.2813 -1.451e-21)
(1.012 -0.01825 0)
(1.014 -0.01201 0)
(0.8482 -0.419 0)
(1.002 -0.4424 -6.918e-22)
(0.6121 -0.3932 3.688e-21)
(0.1821 -0.1431 0)
(0.1777 -0.1492 -8.049e-23)
(1.624 0.4828 -2.715e-21)
(1.189 0.1441 4.995e-23)
(0.1807 -0.1343 5.719e-25)
(0.1712 -0.1275 0)
(1.212 -0.4045 1.094e-22)
(1.131 -0.4485 -1.266e-22)
(0.9765 -0.004905 0)
(0.1706 -0.1298 8.854e-23)
(1.017 -0.4448 0)
(0.7782 -0.2778 0)
(0.5498 -0.2574 9.673e-21)
(1.045 -0.03747 2.37e-21)
(1.134 -0.1786 -1.175e-21)
(0.1878 -0.1489 -1.191e-26)
(0.9973 -0.4399 8.759e-22)
(1.107 -0.4435 1.465e-22)
(0.1765 -0.1436 3.963e-24)
(0.6392 -0.4298 0)
(0.6706 -0.4311 1.464e-21)
(1.049 -0.4402 6.564e-22)
(1.128 0.1084 0)
(1.024 0.006941 -6.317e-22)
(1.008 -0.4394 4.246e-22)
(0.1669 -0.1287 -3.899e-22)
(0.1892 -0.1475 8.255e-24)
(0.1765 -0.1437 2.938e-23)
(0.9837 0.01455 1.271e-20)
(0.1851 -0.1364 -6.093e-22)
(0.3469 -0.2076 0)
(0.2343 -0.1557 -8.344e-21)
(0.1723 -0.1304 -1.545e-22)
(0.1755 -0.1435 -3.79e-24)
(1.009 0.0002946 8.834e-21)
(1.003 -0.001894 7.254e-20)
(0.7323 -0.02029 -1.281e-20)
(0.432 -0.2372 4.987e-21)
(0.7729 -0.4544 1.466e-21)
(0.224 -0.1533 9.762e-22)
(1 -0.4415 0)
(0.7155 -0.2848 0)
(1.014 -0.001955 2.197e-22)
(0.1753 -0.1417 7.561e-22)
(1.115 -0.4519 -1.145e-22)
(0.1665 -0.1299 -8.731e-22)
(0.4776 -0.243 5.784e-21)
(1.049 -0.4463 -7.463e-22)
(0.2602 -0.169 -1.335e-21)
(0.3519 -0.2059 7.521e-22)
(0.3499 -0.1943 3.869e-21)
(1.24 -0.1258 0)
(0.1823 -0.1477 -4.627e-23)
(0.8484 -0.4135 2.843e-21)
(1.068 -0.4457 0)
(0.2589 -0.1692 2.169e-21)
(0.2084 -0.1454 9.841e-22)
(0.1894 -0.1369 1.689e-21)
(0.1858 -0.1527 0)
(0.1778 -0.1434 0)
(1.007 -0.4453 8.014e-22)
(0.3583 -0.3108 0)
(0.3638 -0.2142 -2.052e-21)
(0.2038 -0.1437 1.035e-21)
(0.1747 -0.141 0)
(1.153 -0.4473 -3.618e-23)
(1.23 -0.1295 2.686e-21)
(0.5762 -0.3802 2.043e-22)
(1.132 -0.4569 6.737e-24)
(0.8001 -0.4535 -3.215e-21)
(0.6092 -0.2769 4.013e-21)
(0.9372 0.2008 2.125e-21)
(0.1743 -0.1499 1.973e-23)
(0.2224 -0.1484 5.35e-21)
(0.5861 0.4409 -8.608e-21)
(0.8673 -0.4519 0)
(0.1223 -0.1658 0)
(0.9811 -0.02578 -1.507e-20)
(0.1751 -0.1449 0)
(0.4979 -0.3772 2.271e-21)
(1.009 0.0008295 -2.888e-22)
(0.174 -0.1385 -5.088e-22)
(0.4328 -0.2375 -3.594e-21)
(1.128 -0.4549 -4.624e-23)
(0.1752 -0.1444 0)
(0.1722 -0.1367 -1.056e-22)
(0.9868 -0.4001 -3.097e-21)
(0.4975 -0.2104 0)
(0.1599 -0.1232 -8.385e-22)
(0.3981 -0.2139 1.762e-21)
(0.2868 -0.07265 8.947e-21)
(0.9374 -0.447 0)
(0.1722 -0.1364 1.897e-22)
(0.6978 -0.2647 -1.082e-20)
(0.1777 -0.1434 -4.821e-24)
(1.069 -0.1299 8.031e-22)
(0.4945 -0.2523 0)
(0.4672 -0.2475 1.628e-21)
(0.2448 -0.1629 -9.561e-22)
(0.167 -0.1297 2.508e-25)
(1.038 -0.444 0)
(0.171 -0.1353 0)
(1.241 -0.338 3.131e-24)
(1.009 0.01128 8.91e-21)
(0.9401 -0.4114 7.352e-22)
(0.2119 -0.1474 1.257e-21)
(0.1855 -0.1502 9.401e-24)
(1.058 0.344 2.451e-22)
(0.9882 0.002314 1.421e-20)
(0.2727 -0.1755 5.661e-22)
(1.098 -0.1492 -3.235e-21)
(1.133 -0.158 0)
(0.3847 -0.2109 -1.494e-21)
(1.412 0.7615 0)
(0.8894 -0.0121 2.118e-20)
(0.2327 -0.1574 0)
(1.009 0.0003288 -4.223e-21)
(0.9993 -0.4236 -8.463e-23)
(0.9933 -0.01012 -4.64e-20)
(0.9319 -0.01321 0)
(1.001 0.0001441 3.735e-20)
(0.5882 -0.3661 -5.459e-23)
(0.8367 -0.2873 1.091e-20)
(1.141 -0.3661 -7.054e-24)
(0.841 -0.2882 -5.728e-21)
(0.1228 -0.04438 -5.891e-22)
(-0.02838 -0.08816 -1.903e-22)
(1.307 0.01223 0)
(0.4636 -0.245 0)
(1.001 -0.0001384 0)
(1.148 -0.4118 -1.771e-22)
(0.1774 -0.1506 -5.732e-23)
(0.1729 -0.136 5.08e-22)
(0.2029 -0.1399 -4.866e-22)
(1.005 -0.4454 7.402e-22)
(1.072 -0.4376 4.471e-22)
(0.186 -0.1472 7.571e-23)
(0.9521 0.1185 0)
(0.1692 -0.1304 0)
(0.1744 -0.145 3.629e-23)
(0.9946 0.001127 8.39e-22)
(0.1747 -0.141 -2.483e-25)
(0.5508 -0.2614 9.39e-21)
(0.9626 -0.4448 3.708e-21)
(0.2596 -0.08054 -3.547e-22)
(0.1869 -0.1441 0)
(-0.06144 -0.05874 1.238e-22)
(1.202 -0.3383 3.159e-22)
(0.7667 -0.432 -2e-21)
(0.9146 -0.2627 -2.547e-21)
(0.9593 -0.3946 2.637e-22)
(0.5659 -0.2698 -4.814e-21)
(0.9997 0.002772 5.862e-20)
(0.9802 -0.02427 -1.605e-20)
(0.56 -0.2625 5.561e-21)
(0.281 -0.1596 1.202e-20)
(0.2909 -0.1845 3.346e-22)
(1.004 -0.02387 4.685e-21)
(1.02 -0.001524 -2.909e-20)
(0.1875 -0.1488 1.034e-23)
(0.2197 -0.1502 6.787e-21)
(1.141 -0.4579 2.381e-23)
(1.18 -0.4668 1.587e-22)
(0.1127 -0.08744 8.282e-21)
(0.4619 -0.2417 -7.275e-21)
(0.8738 -0.4479 -7.573e-22)
(0.175 -0.1437 0)
(0.9664 -0.01643 5.336e-21)
(0.8254 -0.2759 0)
(0.9775 -3.609e-05 0)
(0.5581 -0.3926 1.628e-21)
(0.2093 -0.1438 0)
(0.7957 -0.4538 0)
(0.2142 -0.1488 -3.705e-21)
(0.9945 -0.0003354 -4.988e-21)
(0.175 -0.1427 -3.077e-24)
(1.057 -0.4462 -3.659e-22)
(0.2608 -0.1681 1.79e-21)
(0.9404 -0.01526 -2.862e-21)
(0.8687 -0.4379 1.94e-21)
(0.9535 -0.4412 0)
(1.014 0.02507 1.136e-21)
(0.8364 -0.4529 2.557e-21)
(0.1706 -0.1336 6.65e-23)
(0.1423 -0.1639 2.652e-21)
(0.2516 -0.1659 -9.478e-21)
(0.4156 -0.2319 0)
(1.041 0.0509 4.482e-21)
(0.8291 -0.342 4.38e-22)
(0.1147 -0.1548 3.899e-23)
(0.9998 -0.0002402 0)
(0.9345 -0.4425 0)
(1.015 -0.01951 0)
(0.3 -0.1886 2.01e-22)
(0.7931 -0.2004 2.926e-20)
(0.4677 -0.247 8.091e-21)
(1.037 -0.0261 9.011e-21)
(0.1816 -0.1941 0)
(0.2432 -0.1623 3.06e-21)
(1.007 0.0002559 0)
(1.01 -0.3807 -4.585e-23)
(0.08779 0.7458 -2.732e-21)
(0.1493 -0.09995 0)
(1.042 -0.4413 7.768e-22)
(0.1815 -0.1337 -1.853e-21)
(0.9977 0.001833 -7.314e-20)
(0.2576 -0.1671 -3.268e-21)
(0.4233 -0.2329 4.466e-21)
(0.1724 -0.1462 8.378e-22)
(0.1803 -0.1327 4.416e-23)
(0.5449 -0.2656 -2.189e-22)
(1.002 0.001722 1.374e-20)
(0.212 -0.2186 0)
(0.1743 -0.1326 4.448e-22)
(1.064 -0.3864 0)
(0.1751 -0.1441 -5.019e-23)
(0.9985 -0.00116 0)
(0.9855 -7.761e-05 0)
(0.1751 -0.1469 -1.557e-23)
(0.8317 -0.07079 4.021e-21)
(1.075 -0.1677 -4.306e-21)
(1.093 -0.1442 -3.778e-22)
(0.1859 -0.1333 3.882e-21)
(1.002 -8.785e-05 0)
(1.001 -5.196e-05 6.314e-21)
(0.1705 -0.1284 0)
(0.1892 -0.1372 -6.299e-25)
(0.6952 -0.2847 2.269e-21)
(0.5939 -0.425 2.5e-21)
(0.1867 -0.1499 2.145e-23)
(0.1762 -0.1468 0)
(1.171 -0.4364 0)
(1 0.00142 5.086e-20)
(0.512 -0.2482 3.836e-21)
(1.138 -0.4564 0)
(0.2152 -0.1475 0)
(0.2544 -0.1676 -2.547e-21)
(1.082 -0.4485 3.807e-22)
(1.184 -0.4585 3.253e-23)
(0.187 -0.1488 0)
(1.104 -0.4489 1.348e-22)
(0.5272 -0.4068 -6.98e-21)
(0.1668 -0.1306 -5.091e-22)
(0.9828 -0.4423 1.751e-21)
(0.1815 -0.1343 0)
(1.01 -0.003252 0)
(0.8626 0.2419 -1.234e-20)
(0.1793 -0.1319 -1.272e-21)
(0.4187 -0.341 0)
(0.4677 -0.2454 0)
(1.171 -0.4631 -2.075e-23)
(0.9776 -0.2315 -1.194e-20)
(0.9843 -0.01698 -1.374e-20)
(0.9584 -0.2506 -1.964e-23)
(1.029 -0.4124 -2.529e-22)
(0.7325 -0.2822 0)
(0.1739 -0.1563 0)
(1.086 -0.449 0)
(0.9953 0.002982 -7.405e-20)
(1.013 -0.0002232 6.699e-20)
(1.026 -0.4451 -4.066e-25)
(-0.02551 -0.09465 1.803e-22)
(0.1527 -0.1036 1.099e-20)
(0.2016 -0.1421 0)
(1.056 -0.4467 -9.294e-22)
(0.8541 -0.4252 2.976e-21)
(0.6911 -0.2814 2.453e-21)
(0.2191 -0.1509 1.008e-21)
(0.9561 -0.004604 -2.087e-20)
(0.2372 -0.1596 0)
(0.9961 0.00344 4.189e-20)
(0.9909 -2.591e-05 -9.724e-22)
(0.5751 -0.38 0)
(0.9869 -0.4429 3.353e-22)
(0.4055 -0.2274 9.923e-21)
(1.019 0.001681 0)
(0.2069 -0.1434 0)
(0.1305 -0.09433 1.383e-20)
(1.053 0.01051 1.608e-20)
(1.013 0.00214 0)
(0.2779 -0.2544 4.106e-20)
(0.1713 -0.1296 0)
(1.025 -0.4451 0)
(0.9358 -0.2229 -4.422e-21)
(0.4217 -0.2342 2.746e-24)
(0.9677 0.01973 1.722e-20)
(0.9079 -0.4481 3.222e-21)
(0.1712 -0.131 -2.408e-22)
(0.1734 -0.1377 0)
(1.043 0.05056 -9.338e-21)
(0.8127 -0.3741 -6.422e-21)
(0.5505 -0.2923 -5.205e-21)
(0.635 0.7648 0)
(0.8841 -0.2603 0)
(0.9417 -0.4403 0)
(0.5435 -0.408 -1.115e-21)
(0.3041 -0.182 -1.132e-20)
(1.019 0.001387 -1.153e-20)
(1.299 -0.4656 2.675e-22)
(1.019 -0.1877 1.661e-20)
(0.762 -0.4307 4.168e-21)
(1.091 -0.4497 0)
(1.066 -0.445 1.316e-22)
(0.9693 -0.4416 1.569e-21)
(0.74 -0.4528 0)
(0.3786 -0.2064 -1.332e-20)
(1.166 -0.4446 0)
(1.021 0.000281 0)
(0.2585 -0.1692 2.931e-21)
(0.2408 -0.1605 -3.919e-22)
(1.225 -0.2874 0)
(0.8361 -0.4531 2.645e-21)
(0.9882 0.01352 4.379e-20)
(0.9832 0.01736 0)
(1.206 -0.2795 -4.172e-22)
(1.014 0.002137 0)
(1.2 -0.2633 -6.299e-23)
(1.198 -0.4665 0)
(0.4276 -0.2355 -3.027e-21)
(0.9962 -0.3468 -1.541e-21)
(0.2083 -0.1461 -1.12e-21)
(0.293 -0.185 0)
(0.5543 -0.2658 0)
(1.176 -0.4663 -1.625e-22)
(1.003 0.00158 7.598e-23)
(0.1881 -0.1476 0)
(0.215 -0.1487 0)
(0.5388 -0.2636 3.97e-23)
(0.4435 -0.2178 7.32e-21)
(-0.005234 -0.08415 0)
(0.9483 -0.4377 6.554e-22)
(0.1743 -0.1446 -3.112e-23)
(0.2485 -0.163 0)
(0.2826 -0.1797 -5.015e-21)
(1.228 -0.3345 2.049e-22)
(0.5714 -0.4044 1.593e-21)
(1.197 -0.28 0)
(1 6.571e-06 3.643e-21)
(0.4869 -0.2353 -7.014e-21)
(0.226 -0.1537 -1.809e-21)
(0.1896 -0.1134 0)
(0.3023 -0.1897 -7.485e-21)
(0.6383 -0.2709 -4.462e-21)
(0.1817 -0.1486 0)
(0.1835 -0.1338 0)
(0.5542 -0.2294 -1.41e-22)
(0.9808 0.02866 -2.462e-20)
(0.7853 -0.454 1.541e-22)
(0.908 -0.4482 -2.565e-21)
(1.1 -0.4439 0)
(0.1755 -0.1571 0)
(1.005 0.01293 0)
(0.9404 -0.4291 -3.738e-21)
(0.174 -0.1533 0)
(0.9978 -0.0005078 -2.571e-21)
(0.8839 -0.4501 1.323e-21)
(0.5689 -0.1437 5.976e-21)
(1.221 -0.2659 5.223e-22)
(1.079 -0.2044 0)
(1.004 -0.0005418 -6.517e-20)
(0.884 -0.45 4.848e-21)
(1.012 -0.4394 0)
(0.7513 -0.4475 -3.199e-21)
(0.9292 -0.4463 9.348e-23)
(0.7943 -0.4464 -2.135e-21)
(0.9183 -0.4435 1.946e-21)
(0.7318 -0.4497 7.89e-21)
(0.4205 -0.2244 0)
(0.9753 -0.4437 -3.848e-21)
(0.3493 -0.2561 -3.11e-21)
(0.9824 -0.4415 0)
(0.7643 -0.4509 -2.768e-21)
(1.165 -0.4441 -2.323e-23)
(0.5989 -0.2686 0)
(0.1843 -0.1481 0)
(1.02 0.00121 0)
(0.9444 1.251 0)
(1.205 -0.3314 0)
(0.2308 -0.224 0)
(1 -9.13e-05 1.855e-21)
(0.4704 -0.3835 -2.303e-21)
(0.1781 -0.1435 -8.867e-24)
(1.007 -0.4444 1.459e-21)
(0.1756 -0.1444 0)
(0.9999 0.001388 2.647e-22)
(0.3231 -0.1966 0)
(0.9306 -0.2277 0)
(0.2605 -0.1671 8.341e-22)
(0.1501 -0.117 7.56e-21)
(0.2228 -0.1522 3.351e-21)
(0.9882 0.05661 -5.355e-21)
(0.226 -0.1334 0)
(0.1698 -0.1283 -5.722e-22)
(1.025 -0.4425 0)
(0.168 -0.1238 0)
(1 -0.435 -1.276e-21)
(0.5975 -0.4294 0)
(0.1744 -0.1284 0)
(0.989 -0.03141 0)
(1.044 -0.4435 0)
(0.2119 -0.1472 1.699e-21)
(0.7814 -0.01032 -1.154e-21)
(0.4644 -0.2461 -6.049e-21)
(0.5222 -0.2592 -6.614e-21)
(1.039 -0.4443 0)
(0.2284 -0.2199 -1.829e-20)
(0.1899 -0.1423 0)
(1 -2.685e-07 1.456e-21)
(1.061 -0.4427 -6.056e-22)
(1.208 -0.2682 0)
(1.094 -0.4501 0)
(0.7452 -0.2154 1.661e-22)
(1.001 0.001577 -1.957e-21)
(0.7052 -0.4499 4.318e-21)
(0.8984 -0.03658 0)
(1.324 1.06 0)
(1.127 -0.4161 0)
(1.075 -0.4475 0)
(0.9894 0.001391 1.845e-20)
(0.166 -0.1253 2.565e-21)
(0.1767 -0.1285 0)
(0.7861 -0.01082 0)
(0.9912 0.0006726 0)
(0.9929 0.0002706 0)
(0.9992 0.001061 2.033e-21)
(0.03851 -0.04186 0)
(0.02806 -0.0353 0)
(0.2194 -0.1308 0)
(0.1805 -0.1329 0)
(0.2692 -0.1738 0)
(0.9395 -0.3543 7.088e-21)
(1.05 -0.4405 0)
(0.581 -0.2589 6.4e-21)
(0.7959 -0.38 -6.093e-21)
(0.9291 -0.4467 2.23e-22)
(0.1555 -0.1825 0)
(0.765 -0.3516 -7.05e-21)
(0.9932 0.004859 0)
(1.242 -0.3226 1.397e-22)
(0.9889 0.04411 0)
(0.2187 -0.1485 -3.39e-21)
(0.9986 -0.2252 -6.02e-21)
(1.012 0.02748 -5.868e-21)
(0.8494 -0.01259 0)
(0.2077 -0.1451 5.872e-22)
(0.2049 -0.1445 1.129e-21)
(0.9952 -0.0002424 4.23e-21)
(0.2173 -0.1502 -3.544e-21)
(1.033 -0.4457 4.239e-22)
(1.111 -0.04468 0)
(0.1861 -0.1471 -5.063e-23)
(0.4079 -0.2221 1.18e-20)
(0.3585 -0.2107 0)
(0.705 -0.1898 -1.05e-23)
(1.137 -0.3914 -6.774e-22)
(1.392 0.5335 -4.335e-21)
(0.175 -0.1429 0)
(1.009 0.01116 -1.243e-20)
(1.019 -0.4138 -1.301e-24)
(1.002 -0.02217 3.847e-21)
(0.58 -0.257 -6.195e-21)
(0.876 -0.06685 -1.324e-21)
(0.1749 -0.1393 0)
(0.2792 -0.1708 0)
(1.015 0.006767 -5.789e-22)
(1.054 -0.1303 0)
(1.098 -0.1897 0)
(0.207 -0.1445 7.781e-22)
(0.186 -0.1471 2.273e-23)
(0.1676 -0.1375 -1.449e-21)
(0.9851 -0.438 1.223e-21)
(0.1275 -0.1048 -6.478e-21)
(1.214 -0.277 0)
(0.9884 -8.33e-05 0)
(0.1899 -0.148 0)
(1.02 0.001515 8.457e-21)
(1.268 -0.4705 -2.323e-22)
(0.1747 -0.1407 1.776e-22)
(0.3301 -0.1937 -1.072e-20)
(0.1898 -0.1479 7.546e-24)
(0.9176 0.03472 2.626e-20)
(0.1883 -0.136 -1.018e-25)
(0.4098 -0.3507 -5.864e-21)
(0.9061 -0.439 0)
(0.252 -0.1638 -3.044e-21)
(1.018 0.001739 1.872e-20)
(0.209 -0.2194 1.094e-21)
(0.7066 -0.3148 -1.484e-20)
(1.02 -0.4377 -4.287e-22)
(1.33 -0.4508 4.778e-22)
(0.1589 -0.1166 5.207e-21)
(0.8986 -0.4107 0)
(0.7525 -0.4476 1.577e-21)
(1.031 -0.4413 3.967e-22)
(1.14 -0.456 5.064e-23)
(0.5862 -0.2681 8.343e-21)
(1.215 -0.1449 0)
(0.5257 -0.2827 1.365e-20)
(1.247 -0.07307 8.853e-22)
(0.4906 -0.164 -1.154e-20)
(1.038 -0.4229 -1.806e-23)
(0.35 -0.2088 -6.928e-21)
(0.1741 -0.1315 0)
(0.6512 -0.017 0)
(0.9849 -0.007737 0)
(1.177 -0.4526 -1.813e-24)
(0.2103 -0.1303 0)
(0.9874 0.04448 0)
(-0.05466 -0.05286 0)
(0.6226 -0.3895 -4.308e-22)
(1.001 0.001985 5.602e-21)
(1.002 0.002021 0)
(0.3673 -0.2113 3.406e-21)
(0.2652 -0.08219 -5.908e-22)
(1.057 -0.4471 0)
(0.6033 -0.2375 0)
(0.1734 -0.1378 0)
(0.5702 -0.2955 0)
(0.1752 -0.1426 2.537e-24)
(0.9468 -0.4416 0)
(0.9535 -0.02645 0)
(0.1811 -0.1473 7.476e-24)
(0.1825 -0.1343 -1.35e-21)
(0.9806 -0.01055 0)
(0.8112 -0.4532 -1.817e-21)
(0.1821 -0.1488 0)
(0.1788 -0.1449 1.632e-22)
(0.1886 -0.1625 2.084e-23)
(0.1834 -0.1337 9.125e-24)
(0.1352 -0.1029 0)
(1.006 0.004693 1.258e-20)
(0.7052 -0.1671 -1.531e-20)
(0.7774 -0.4121 2.106e-21)
(0.4866 -0.234 4.874e-21)
(1.003 -0.0001613 0)
(1 0.0003441 1.33e-20)
(0.9428 -0.4416 2.782e-22)
(0.9698 -0.004912 -5.099e-20)
(0.2111 -0.1449 -3.519e-22)
(1.029 -0.4344 4.546e-22)
(0.5207 -0.03249 -1.239e-20)
(1.109 -0.06807 -5.262e-21)
(0.9768 -0.05678 -2.175e-20)
(1.322 -0.4152 -1.457e-22)
(0.8937 -0.04132 -1.233e-20)
(0.9509 -0.3284 6.48e-21)
(0.4997 -0.2559 0)
(0.957 -0.4458 -8.091e-22)
(1.026 -0.007647 1.452e-20)
(0.8802 -0.1147 3.994e-20)
(0.2753 -0.2811 -1.863e-21)
(1.035 -0.04972 0)
(0.2047 -0.1439 1.45e-21)
(1.024 -0.007348 6.721e-21)
(0.1188 -0.08954 -1.248e-20)
(1.04 -0.07836 0)
(0.9861 0.05601 0)
(1.005 0.01272 -1.83e-20)
(0.4788 -0.2224 6.133e-21)
(0.3938 -0.3213 1.266e-20)
(0.4898 -0.301 1.751e-20)
(0.2548 -0.1676 -3.472e-21)
(0.1833 -0.1618 -1.879e-23)
(1.17 -0.3254 -3.122e-23)
(1.002 -0.04294 0)
(0.6552 -0.3065 0)
(0.1853 -0.2144 -1.747e-20)
(0.7481 -0.4455 0)
(1.001 -0.0001557 0)
(0.4879 -0.2524 -1.684e-21)
(0.2819 -0.1761 2.269e-24)
(0.1905 -0.1479 0)
(0.1976 -0.1412 0)
(0.5745 -0.3751 0)
(0.1747 -0.1411 2.363e-22)
(1.008 -0.01477 0)
(-0.01493 -0.02693 0)
(1.13 -0.4481 0)
(1.101 -0.4465 0)
(0.8439 -0.06889 1.38e-20)
(0.4048 -0.2285 2.977e-21)
(1.385 0.2004 5.543e-21)
(0.1745 -0.1449 4.961e-23)
(0.9939 -0.4397 0)
(0.5767 0.06364 -3.444e-20)
(0.1863 -0.1441 0)
(1.085 -0.4494 0)
(0.9534 -0.4456 1.426e-21)
(0.4837 -0.3287 0)
(1.064 -0.4439 0)
(0.9934 0.04459 0)
(1.038 -0.2289 5.252e-21)
(0.7793 -0.436 0)
(0.5458 -0.2209 -1.194e-22)
(0.1654 -0.1379 -5.912e-21)
(0.9939 -0.02285 2.692e-20)
(1.001 -0.0001129 -3.496e-21)
(0.5376 -0.4075 -2.394e-21)
(1.002 -0.0002712 0)
(1.336 -0.3638 -4.073e-24)
(0.6226 -0.4362 0)
(0.1741 -0.1308 -5.932e-22)
(0.2623 -0.1693 -6.581e-21)
(0.1857 -0.1461 9.945e-24)
(1.003 0.002414 -8.134e-21)
(0.9735 -0.2249 -4.348e-21)
(0.9905 0.007339 0)
(0.2125 -0.1458 -1.634e-21)
(0.1901 -0.1374 -4.738e-23)
(0.1724 -0.1339 0)
(0.2463 -0.1635 -6.902e-25)
(0.69 -0.4322 -3.017e-22)
(0.5934 -0.3825 0)
(0.2088 -0.1458 -4.763e-22)
(0.1244 -0.09048 2.048e-20)
(1.012 -0.4383 0)
(0.5485 -0.4165 -8.626e-21)
(1.209 -0.2574 8.594e-22)
(0.6955 -0.4171 -2.586e-21)
(1.068 -0.446 2.084e-22)
(0.3345 -0.1218 5.455e-22)
(0.3213 -0.196 0)
(0.1875 -0.148 0)
(0.3014 -0.1853 -2.683e-21)
(1.022 0.05307 0)
(0.1761 -0.1436 -1.459e-23)
(0.9977 -0.06659 4.542e-21)
(1.049 -0.1345 -3.263e-21)
(0.9983 -0.002881 2.417e-21)
(1.056 -0.4442 -4.499e-22)
(0.2491 -0.1652 -1.962e-24)
(0.8763 0.02161 7.557e-23)
(0.5839 -0.3802 3.714e-22)
(0.2913 -0.1804 2.111e-21)
(0.3043 -0.1764 0)
(0.7915 -0.2844 -5.24e-21)
(0.6866 -0.4409 0)
(0.8613 -0.2723 0)
(0.8034 -0.4538 0)
(1.059 0.06196 3.212e-21)
(1.199 -0.2967 0)
(0.5102 -0.3964 -4.809e-21)
(0.9791 0.09215 -7.402e-21)
(1.008 -0.006952 7.912e-20)
(0.8574 -0.4393 5.128e-21)
(0.8171 -0.2569 5.562e-21)
(1.01 0.0002427 7.032e-21)
(0.8958 -0.09294 5.79e-21)
(0.171 -0.1345 8.941e-23)
(0.1755 -0.1326 0)
(0.9822 -0.06312 6.84e-22)
(0.183 -0.143 5.929e-22)
(0.1929 -0.1218 -8.883e-21)
(0.9904 0.0007225 -9.39e-22)
(0.04078 -0.04054 5.888e-23)
(1.002 0.01647 0)
(0.8503 -0.3696 -1.947e-21)
(0.7265 -0.4227 -1.238e-21)
(0.1686 -0.1277 1.191e-21)
(0.8227 -0.2776 -6.01e-23)
(0.7676 -0.1393 0)
(1.066 -0.1767 -6.057e-22)
(0.9953 -0.4264 -1.482e-21)
(0.7202 -0.3554 0)
(0.1762 -0.155 2.018e-22)
(1.141 -0.4571 0)
(0.1945 -0.1408 1.889e-21)
(0.1611 -0.1257 0)
(0.1889 -0.133 3.079e-21)
(0.9286 -0.446 -2.721e-21)
(1.001 -7.474e-06 -8.15e-21)
(0.9752 -0.05934 0)
(1.001 -0.0008077 3.977e-21)
(1.254 -0.4642 9.925e-23)
(1.137 -0.1946 -2.114e-22)
(1.022 -0.004112 -1.02e-21)
(0.1778 -0.1435 -9.393e-24)
(0.2551 -0.1669 -1.239e-21)
(0.679 -0.283 3.552e-21)
(0.7869 -0.2037 0)
(-0.06348 0.4449 -1.906e-21)
(0.9907 -0.0003964 0)
(1.004 0.0173 0)
(0.1874 -0.1377 1.922e-21)
(-0.08653 0.2384 0)
(0.6244 -0.3639 -6.965e-21)
(1.209 -0.4494 -5.113e-23)
(0.2599 -0.1588 -1.673e-21)
(1.075 -0.4466 -6.483e-22)
(1.02 0.001334 -1.497e-20)
(0.7294 -0.4251 -1.255e-21)
(0.9376 -0.4423 -4.634e-21)
(-0.01772 -0.0266 -6.449e-23)
(0.2383 -0.1601 2.029e-21)
(0.1739 -0.128 3.07e-21)
(1.024 -0.437 0)
(0.942 -0.4347 8.801e-22)
(0.9565 -0.4435 -3.672e-21)
(0.1758 -0.1132 6.983e-21)
(0.3213 -0.1967 -3.446e-21)
(1.083 -0.2189 4.153e-21)
(0.7611 -0.3503 6.219e-21)
(0.9989 -0.0001338 -2.766e-21)
(0.9655 -0.4448 -3.229e-22)
(0.8345 -0.2747 1.355e-21)
(0.6572 -0.2625 0)
(1.017 0.001077 -1.15e-20)
(0.3216 -0.1972 0)
(0.983 -0.05708 3.033e-21)
(0.2682 -0.1473 -1.778e-20)
(0.9593 -0.08947 1.686e-20)
(0.9199 -0.4463 4.007e-24)
(0.5576 -0.2446 8.307e-21)
(1.052 -0.1044 0)
(1.176 -0.4597 2.149e-23)
(0.4751 -0.2496 -1.292e-21)
(1.01 0.0009258 -4.157e-22)
(1.332 -0.2894 -3.875e-22)
(0.6327 -0.2775 3.211e-21)
(0.9278 -0.4327 4.799e-21)
(0.8632 -0.3911 -3.47e-21)
(0.7698 -0.3002 4.067e-21)
(0.793 -0.4504 -1.271e-21)
(0.1712 -0.1354 -2.907e-22)
(0.6288 -0.267 1.006e-21)
(0.5165 -0.2553 -1.668e-21)
(0.1748 -0.1468 0)
(0.7421 -0.2805 -2.391e-20)
(0.1857 -0.1468 3.993e-24)