/*--------------------------------*- C++ -*----------------------------------*\
| =========                 |                                                 |
| \\      /  F ield         | OpenFOAM: The Open Source CFD Toolbox           |
|  \\    /   O peration     | Version:  v2012                                 |
|   \\  /    A nd           | Website:  www.openfoam.com                      |
|    \\/     M anipulation  |                                                 |
\*---------------------------------------------------------------------------*/
FoamFile
{
    version     2.0;
    format      ascii;
    class       volScalarField;
    location    "5";
    object      epsilon;
}
// * * * * * * * * * * * * * * * * * * * * * * * * * * * * * * * * * * * * * //

dimensions      [0 2 -3 0 0 0 0];


internalField   nonuniform List<scalar> 
127143
(
561.3
292.4
172.3
119.7
844.4
126.5
751.5
627.3
757
220.3
944.6
948.6
703.3
124.9
20.16
68.73
69.22
0.2245
0.5634
75.71
1.347
66.69
0.2681
2.444
67.96
10.7
33.25
34.32
34.93
0.1575
3.271
11.4
88.64
8.968
0.1218
86.88
2.225
0.972
2.021
9.544
0.5614
1.532
1.302
246.4
0.2217
8.607
33.16
1.344
3.147
2.126
55.59
0.03115
2.199
0.4399
0.005454
6.255
0.005279
0.3659
0.01628
0.4342
1.368
0.7247
1.168
0.09658
7.181
0.9039
0.1243
1.262
1.237
0.0008471
2.687
28.4
0.6894
0.01614
0.02703
28.69
0.01938
1.752
6.058
0.1318
36
70.83
5.142
6.901
1.259
1.607
1.788
40.28
0.8667
14.27
0.02031
0.3668
10.78
1.338
2.749
0.175
1.449
4.219
1.324
0.1208
0.1332
2.975
36.15
0.6804
1.56
1.356
1.694
0.0008543
1.921
0.01756
18.62
40.52
1.815
6.351
0.02062
0.7338
0.02021
0.02703
0.01914
57.59
0.01674
4.858
3.333
0.2955
34.3
14.17
0.8861
0.02093
2.71
7.287
2.019
2.474
0.9579
1.722
53.62
1.969
0.08002
1.176
30.29
0.08004
0.385
0.01851
1.957
1.093
2.169
4.566
84.81
0.1068
2.549
47.75
0.7453
3.077
0.9316
0.2865
7.977
1.234
0.3645
9.706
1.325
4.686
2.606
164.1
0.02085
2.013
11.15
6.408
2.464
1.354
18.2
0.03189
9.668
1.09
0.8285
1.928
0.004178
3.013
4.629
2.7
2.244
0.03102
1.93
0.05222
3.061
2.988
6.991
0.7096
0.3702
6.113
2.27
0.03675
2.868
3.74
0.07673
13.05
58.22
0.888
0.112
0.112
276.1
0.01846
0.01694
0.03322
0.07597
2.124
94.65
1.457
0.1331
1.159
0.1523
0.0208
0.1994
1.575
0.01576
17.89
2.519
364.3
15.19
1.261
1.891
0.1315
4.267
0.02934
3.185
2.01
5.366
9.667
8.862
0.9559
5.536
1.08
1.414
0.05092
0.6632
93.24
1.402
0.2008
2.011
189.9
0.01686
2.629
3.629
5.76
1.954
9.353
1.471
52.67
2.47
31.27
70.6
0.001521
2.189
7.075
1.575
1.266
4.369
1.958
0.02067
16.13
1.34
0.202
0.8955
0.03764
0.3579
0.01847
1.698
6.061
3.499
10.04
1.697
1.003
7.262
0.004072
1.189
2.675
0.9565
2.798
1.79
2.483
0.007439
1.548
0.002679
0.1798
0.6634
0.02251
0.02037
54.65
2.116
0.02026
2.446
0.03186
0.9028
0.4994
0.1991
0.9471
0.01568
2.352
3.129
5.629
1.95
0.9738
4.574
0.7443
0.9166
0.7115
5.571
5.091
1.138
0.0158
0.5305
0.8986
1.799
11.52
6.401
0.002757
0.01976
8.616
1.147
4.505
0.3034
0.03211
0.2573
2.916
0.03497
1.581
8.812
1.514
0.05954
2.892
2.717
4.63
0.9017
0.02036
0.1179
0.1016
0.1016
0.2725
1.915
0.818
0.9045
2.249
0.07682
1.263
2.064
2.703
5.219
2.511
3.687
2.302
4.34
3.093
4.018
0.488
2.928
2.757
0.04065
3.341
1.274
3.944
0.01397
2.817
1.058
1.107
0.273
2.095
2.081
0.04061
0.01855
0.01861
6.688
0.007555
2.55
0.03534
5.693
2.18
0.03471
0.1706
2.946
150.4
1.25
0.008048
0.3757
11.43
4.016
0.7696
0.01988
23.38
0.083
8.603
0.9158
0.6087
0.01474
0.759
7.087
4.581
2.294
3.33
0.7605
3.002
0.04053
0.03609
6.728
0.03008
1.393
2.948
0.08413
0.9005
1.474
0.999
0.1375
2.1
3.212
5.131
0.3762
1.222
3.169
2.693
1.508
8.408
1.138
6.478
2.383
17.35
2.844
0.001561
1.101
0.2492
1.193
0.3026
5.317
0.17
0.05469
2.823
3.12
0.2384
1.733
0.04021
1.093
3.553
0.03014
0.01556
0.02274
1.992
0.08254
2.058
0.02329
3.967
0.0185
9.13
0.01907
1.571
1.306
3.462
0.8526
8.448
0.08995
2.054
5.074
4.941
1.835
0.9838
0.9209
2.091
0.6896
4.576
2.148
0.00375
0.01772
1.787
3.837
0.03254
1.172
0.3901
0.2913
1.117
0.1066
0.006162
8.237
0.3784
5.72
1.773
35.58
8.826
6.266
6.32
2.811
1.692
1.631
0.01565
4.086
0.01879
7.248
1.686
2.28
4.485
97.48
2.19
4.065
0.1929
4.159
0.01708
35.76
0.0177
2.254
0.8639
46.58
96.73
201.5
0.0708
3.265
3.26
0.01998
0.9437
3.69
2.105
0.8008
1.335
3.555
1.165
18.57
0.003713
1.766
88.41
7.439
4.005
8.908
0.01573
0.7254
0.07364
0.6738
0.01559
4.73
36.4
6.653
0.04396
1.789
0.2313
13.38
3.115
27.2
0.5849
0.01927
3.915
2.596
0.03635
0.7647
1.058
2.899
2.028
4.103
5.544
0.897
1.243
5.564
2.082
2.705
0.01578
7.511
1.882
5.461
1.122
1.726
0.08464
0.06711
0.1854
3.811
4.715
0.01924
0.00173
2.146
10.15
1.5
2.85
7.084
13.87
0.9835
0.01842
0.03762
6.355
1.29
1.907
0.004263
26.19
0.9718
2.579
0.007759
6.74
0.01914
1.423
2.511
0.5659
0.001674
3.725
0.8934
82.69
0.006441
1.631
14.95
0.02218
0.8903
0.01963
1.655
1.649
0.02265
4.596
3.334
8.911
3.759
1.796
3.802
3.861
6.915
1.904
10.09
1.922
3.012
1.923
4.78
0.00426
5.326
0.021
4.836
0.02159
1.905
0.04646
0.02031
0.3838
6.358
1.607
0.003624
0.007894
5.215
26.55
4.407
4.018
0.943
2.032
1.299
3.297
2.665
3.255
7.977
0.003628
4.177
2.599
0.5671
0.7481
0.02107
0.001737
1.473
24.96
1.631
27.81
0.02131
0.001069
2.27
4.189
0.03175
7.449
0.3103
0.07239
4.113
1.256
2.539
0.3871
211.6
9.036
1.801
2.061
2.089
4.746
5.817
6.383
0.02742
2.597
5.885
1.364
0.01078
2.346
0.8097
0.9265
0.04477
0.01011
16.71
0.1934
4.033
4.099
6.049
0.5335
0.752
4.701
0.4029
4.586
0.01568
0.007751
2.538
0.2462
6.074
0.8986
16.85
0.903
8.141
0.192
0.2674
0.001063
3.871
0.1078
4.43
47.72
1.253
1.65
1.214
0.00153
1.236
2.09
21.93
0.3948
0.8411
2.665
41.42
1.525
7.736
0.6456
3.916
1.354
0.8758
0.8704
0.5016
359
0.8267
0.0311
2.279
4.532
1.691
0.01483
3.98
0.48
1.48
0.0009641
28.57
2.687
6.98
0.001023
6.765
2.789
4.255
3.367
0.00112
1.259
9.187
4.457
1.33
0.01824
2.048
11.75
0.01565
1.22
0.7789
4.564
2.17
0.7188
1.281
10.03
3.21
0.01879
1.268
0.7799
7.319
4.678
0.4531
0.9277
5.19
0.02555
2.036
4.071
1.799
90.63
1.778
6.419
1.91
1.898
1.064
0.07265
290.3
2.002
3.626
8.738
1.618
3.488
2.558
2.476
0.04012
0.4569
0.7158
0.0009692
2.801
7.14
1.718
3.144
0.02833
1.264
3.138
0.01578
0.02042
0.7464
0.7445
0.9423
3.562
1.418
100.1
0.8231
0.7344
0.01086
1.59
2.32
3.117
4.904
1.294
0.002354
0.0153
0.07408
29.51
0.0116
0.1748
20.36
1.359
9.892
0.00474
2.05
1.333
0.02649
4.251
0.06854
5.334
50.38
5.245
1.436
12.96
0.01916
4.31
0.4466
4.476
7.564
6.108
55.6
0.4487
0.6473
1.643
46.86
0.02418
0.6931
6.873
10.86
5.99
19.11
0.002338
0.1343
6.44
15.25
42.9
4.132
256.2
7.506
116.2
2.34
7.796
0.4481
17.18
0.01944
1.84
0.001816
0.001776
2.054
0.02654
3.337
0.4642
6.112
0.4818
0.05038
10.36
2.451
0.01452
0.3793
2.055
0.04762
4.973
37.78
2.233
1.302
18.61
0.9216
4.188
0.01892
2.236
4.343
0.0135
4.187
1.88
0.681
0.02619
0.03148
0.3531
207.9
1.871
37.98
1.155
3.611
2.112
18.03
4.62
0.002248
27.8
0.9626
0.002242
2.149
89.64
0.4571
7.861
0.6183
0.7626
25.27
37.2
2.599
0.01834
0.0286
1.224
2.691
2.482
4.397
8.864
21.07
1.128
0.2085
21.33
0.08882
16.5
0.01691
1.35
10.37
1.408
2.753
1.296
0.02424
0.0174
7.302
0.4627
3.46
2.878
4.799
1.157
1.499
3.546
3.89
31.1
2.26
3.582
4.478
0.8772
1.037
12.42
3.342
13.64
56.12
1.323
0.01505
0.01067
1.158
1.803
0.6115
0.1799
3.468
1.307
0.392
4.154
1.428
3.522
3.028
0.1382
0.4967
0.3673
29.24
5.521
2.992
0.9509
0.6285
7.276
2.375
0.8742
0.8138
4.044
1.834
2.465
22.31
0.01692
16.76
20.35
0.7658
3.707
20.35
0.01901
26.66
37.75
0.002572
0.1533
2.41
1.514
91.14
6.372
1.777
7.401
4.209
0.5082
0.4777
0.0235
4.572
1.143
3.394
0.9682
14.4
1.807
0.003663
26.89
3.212
0.0297
6.034
0.002317
0.01712
1.075
0.2829
39.78
0.01726
4.249
0.02718
7.917
0.2373
0.3657
0.7298
5.019
3.44
4.409
1.112
0.007083
0.06013
1.425
2.633
3.613
3.709
11.86
4.512
29.13
3.906
5.108
7.144
2.919
9.331
0.665
0.4294
0.01483
4.643
4.466
7.599
0.0007568
11.31
1.015
1.365
2.804
2.891
0.554
6.511
0.7343
1.353
4.169
6.9
7.725
0.003291
0.8052
4.918
0.01765
3.294
6.53
0.2081
0.9588
5.327
0.06094
0.6611
0.9021
2.474
0.3586
0.1056
2.931
2.907
0.01378
0.4804
0.04357
1.296
3.166
1.035
0.04478
9.68
50.12
5.083
2.943
1.015
17.08
0.0008478
1.88
0.02345
1.647
3.267
3.834
2.826
11.81
21.65
0.04512
65.05
6.299
5.408
1.113
14.74
0.7649
0.3851
6.205
1.528
0.06332
63.23
2.075
2.353
6.839
2.427
6.991
2.676
11.08
1.865
2.306
1.446
3.504
2.697
0.4642
34.97
0.2119
2.428
0.2245
4.977
0.1056
0.02167
1.321
22.2
1.372
0.03762
31.23
5.973
0.0257
26.04
1.754
1.456
25.36
1.284
2.528
167.3
0.3786
13.95
0.9901
1.514
14.54
3.054
4.675
2.849
5.638
0.1464
0.2336
1.015
2.463
1.376
1.375
0.9522
27.28
1.307
0.4261
1.239
1.585
0.7022
1.031
34.72
0.08136
24.17
7.683
2.712
1.995
0.02679
0.8818
3.001
0.7239
9.051
6.975
5.62
0.01807
4.121
9.564
1.737
29
2.053
0.4931
5.236
0.01618
5.844
2.35
38.51
3.204
0.06996
1.096
0.0164
76.61
34.58
1.902
0.6311
1.387
0.002926
0.04599
5.515
1.757
0.6297
0.1679
0.0007025
0.000704
3.968
1.599
0.583
4.497
2.593
26.5
0.9473
6.043
2.963
3.141
0.05513
3.197
0.9754
2.22
33.33
1.042
0.6822
2.318
1.088
1.737
102.9
0.3597
1.809
0.9951
0.7001
0.5815
2.725
100.8
0.2758
9.46
0.008282
2.46
18.47
0.06453
36.81
1.373
2.164
4.003
0.01162
1.073
50.19
0.01896
2.05
4.382
1.365
44.17
0.6806
0.6408
6.849
12
2.063
4.932
0.1854
2.443
11.11
71.18
4.429
2.005
0.02192
3.453
0.4973
4.497
10.85
0.7837
2.039
0.01153
0.7199
3.141
0.01481
0.8953
0.002538
35.52
0.9308
21.19
2.91
1.951
10.58
1.694
1.823
5.893
130.2
2.028
2.695
1.861
1.5
1.17
0.08411
2.968
0.01796
0.9559
0.05473
1.166
0.01474
4.502
2.746
0.1778
0.01541
7.069
0.2428
5.341
0.2726
0.1978
2.767
1.617
0.05713
138.4
9.241
44.91
2.217
1.079
2.776
2.447
2.769
0.2411
8.988
2.056
6.506
6.211
3.35
1.887
0.5625
0.01762
134.3
1.824
21.55
0.02486
31.49
5.595
3.205
3.242
0.01962
0.01816
0.1966
0.3633
0.08491
0.8139
1.407
0.763
1.793
0.03887
0.7177
12.46
2.224
0.1755
1.42
0.579
7.784
4.808
1.927
3.122
1.181
0.01628
4.402
4.39
22.84
2.114
0.06279
2.197
0.02087
1.85
3.031
8.762
0.2189
0.03718
1.612
2.814
46.05
42.29
0.6191
1.985
5.963
0.1858
0.01027
24.84
3.739
117.1
0.1554
36.16
2.78
0.01397
3.703
8.269
0.8126
0.4337
1.118
6.398
1.455
2.438
0.7709
16.08
0.09979
8.735
5.971
3.914
0.001214
0.001182
3.047
2.333
220.9
5.6
4.421
4.502
135.6
0.01896
3.751
0.02461
0.01733
0.01393
1.283
0.004803
60.7
0.0229
39.85
0.6049
3.961
2.729
3.594
0.001089
64.7
0.3027
17.17
1.241
17.5
0.01555
3.151
4.71
1.151
24.2
9.494
1.49
23.16
31.52
0.1057
0.01032
15.73
0.0006412
0.1978
0.5624
17.29
0.0067
7.003
0.02963
2.489
1.545
1.015
13.62
0.005105
1.36
4.522
2.214
0.2001
0.9007
0.4941
0.02068
0.09324
2.512
259
1.944
1.668
0.02254
23.57
0.4981
0.2538
0.0007828
1.356
2.693
3.387
0.02439
6.333
0.01865
2.804
0.1056
1.177
4.677
2.556
5.639
6.782
2.737
0.007812
1.773
6.425
4.018
30.21
6.201
0.5888
0.06007
2.075
118.4
1.963
9.603
23.34
0.001119
0.3101
0.01518
2.966
2.84
2.149
0.02734
6.414
0.02857
0.3238
2.731
0.009126
0.5452
0.3386
3.68
1.094
0.02199
2.701
0.03856
4.858
24.18
0.8741
0.5841
2.324
0.04302
1.326
2.858
21.67
4.441
2.473
4.383
2.852
3.351
36.96
0.1079
0.381
4.664
0.06915
2.655
1.367
0.3982
1.45
0.02379
0.009284
12.72
0.3539
1.302
2.549
34.73
2.197
17.66
0.5726
0.0186
17.53
2.237
0.2231
2.952
0.04061
1.813
0.1442
0.8021
15.46
1.023
3.19
1.764
2.252
0.03595
1.446
1.009
2.709
11.91
0.02892
1.393
7.953
0.01644
0.02758
3.289
0.0008744
1.866
1.135
1.003
3.763
0.5691
1.652
0.003232
0.5549
3.76
0.003404
0.5527
13.42
27.97
0.1727
3.757
12.51
0.5553
6.565
0.8471
1.816
27.87
0.0008313
0.001409
3.648
0.02538
10.96
3.446
1.648
8.077
4.07
0.02731
3.782
195.3
947.7
4.188
3.817
3.22
0.4377
1.28
0.7548
1.896
5.921
5.047
6.122
6.104
20.65
1.395
0.5975
0.01846
21.59
0.5246
1.669
0.6366
0.08961
2.354
4.27
0.4842
0.1661
5.902
6.207
1.276
5.409
1.127
35.32
3.592
0.03188
3.224
22.5
1.485
1.853
42.78
0.01734
27.07
19.97
2.013
0.001793
1.427
0.9952
4.339
5.972
1.302
5.35
0.00355
2.433
2.476
0.1355
1.136
0.01446
3.248
32.84
1.67
5.171
122.2
1.604
21.01
0.001514
24.36
2.189
0.8503
0.06687
0.4628
0.9456
1.457
1.527
0.001485
2.117
37.83
89.21
2.289
0.8088
0.8228
1.32
0.01804
0.02904
2.479
0.4987
0.01589
1.39
1.621
2.538
3.743
1.216
3.628
1.252
31.19
29.15
36.8
0.215
1.862
34.54
0.8245
12.59
0.4064
0.9118
0.6661
299.7
0.5125
0.7758
0.000886
0.08348
5.308
2.579
0.0199
0.04582
0.9973
6.617
1.396
1.987
19.81
5.329
0.02835
4.786
0.8886
2.979
9.09
0.3819
0.08052
2.168
2.181
0.5775
4.231
0.03501
8.249
0.7034
5.561
0.2562
2.629
12.02
0.9622
4.901
1.242
5.938
1.678
13.24
0.3465
0.9373
1.909
1.48
5.484
3.158
44.46
4.74
0.01479
3.646
0.4018
4.887
1.677
0.004011
0.8016
0.2132
19.48
0.001058
2.898
2.25
2.607
1.034
1.375
0.2055
28.65
0.3618
0.02484
6.42
0.04258
1.396
0.05571
0.5827
0.848
0.08388
0.4175
2.038
10.97
0.02384
0.02005
0.9604
0.865
4.719
0.05502
1.75
2.457
7.692
3.239
0.3654
2.41
1.29
0.163
1.532
25.15
0.7045
25.62
2.848
0.7622
33.24
0.01988
0.0078
1.51
0.4577
147.6
0.02605
0.7389
5.843
289.6
4.23
5.303
0.007614
0.007603
2.934
3.362
2.736
7.413
0.06215
0.5136
0.5969
0.1344
4.828
2.835
1.63
2.359
8.225
0.1694
1.373
0.116
0.8507
3.717
6.245
5.933
2.156
43.11
6.567
2.931
1.486
4.865
2.304
0.1877
3.524
14.82
0.001652
0.001642
3.949
3.315
12.24
1.814
9.879
4.655
0.004394
0.02046
2.717
0.0994
1.467
35.16
4.7
0.3056
2.215
0.1175
43.71
8.755
0.001245
0.8951
0.9557
1.686
1.816
4.023
2.332
3.464
2.063
1.834
0.8828
0.9409
14.5
2.338
1.904
4.32
83.84
3.202
5.978
5.348
4.782
1.899
1.289
21.62
0.4755
3.762
0.01774
1.263
0.09004
1.953
0.6757
22.43
3.078
0.2955
7.682
113.7
5.398
1.868
1.452
4.405
17.63
0.003923
1.872
0.8619
60.56
2.368
1.798
0.2722
0.4999
0.02103
1.424
62.88
0.8159
12.04
1.059
0.1897
13.55
0.1162
1.571
0.5073
1.231
14.05
0.296
1.057
0.7068
0.08416
6.224
0.9789
34.41
7.313
1.311
0.01055
1.95
0.9633
13.77
13.28
0.9794
0.5742
3.257
0.01851
3.466
10.04
2.478
3.727
2.05
17.54
3.985
7.118
4.975
0.5204
3.24
24.52
0.4235
0.1604
32.42
0.0007813
0.3775
0.01934
0.04948
4.486
0.01631
6.415
2.364
0.4847
1.426
4.347
13.96
2.454
14.72
2.376
1.375
66.27
1.525
2.182
0.03085
44.92
0.9002
16.68
18.85
0.0009039
5.964
3.833
0.7712
1.028
16.74
11.93
7.013
1.323
1.593
0.03111
0.505
0.06797
0.7646
1.011
6.591
1.567
1.893
18.47
1.04
0.01519
5.222
1.681
0.5136
1.184
1.724
10.95
4.418
15.15
18.04
3.691
2.089
7.64
2.117
3.53
0.2725
47.93
5.964
1.497
1.811
0.01243
3.392
4.776
1.285
0.7771
19.29
6.221
5.703
0.6998
2.721
25.16
0.01533
22.11
0.732
0.06971
2.112
5.938
0.01501
3.252
1.025
1.707
55.56
1.962
3.944
92.37
1.624
2.123
0.1914
0.1914
1.933
1.46
1.492
7.211
1.481
0.0198
18.49
6.433
2.545
0.01677
0.01527
2.373
0.9538
1.953
330.5
5.99
0.007379
3.452
30.98
0.248
4.489
2.368
0.002358
0.6252
7.292
0.3466
2.189
0.02071
0.01012
0.01439
0.004337
0.1344
2.202
1.304
9.335
0.8081
4.136
1.53
9.707
0.004341
2.215
1.987
14.31
8.884
14.99
5.189
1.284
2.801
2.2
1.619
0.1015
1.523
155.7
3.211
9.734
1.248
5.671
0.02053
45.46
2.105
3.732
0.6518
0.05669
82.19
0.0266
2.276
8.413
0.005404
4.349
2.348
1.086
3.277
11.41
0.08805
5.059
0.004021
2.216
0.9668
3.6
1.189
4.35
0.01244
0.01596
0.3688
7.778
5.999
0.1638
1.164
3.463
0.7804
27.32
2.972
0.6158
0.857
2.089
1.953
0.2953
29.26
1.148
0.02087
33.16
0.01884
0.01529
0.333
0.001487
36
1.094
5.187
1.489
3.359
0.0332
0.1765
4.984
2.3
1.124
0.00223
0.4847
125.7
16.63
0.09195
24.13
18.91
48.42
0.001209
0.5852
0.9114
0.2151
0.02079
0.5419
5.562
99.32
0.3201
3.99
152.5
0.02123
3.447
11.98
1.438
0.02627
4.439
109
34.19
42.67
0.4221
1.43
25.85
0.0681
2.291
0.01616
1.129
9.263
0.5459
3.963
42.65
0.2542
4.434
4.438
0.1686
0.03473
2.922
6.385
0.453
18.92
4.039
0.5812
0.9172
2.229
4.422
1.992
0.02151
2.014
2.434
2.329
4.056
5.552
2.917
12.89
33.32
55.31
66.52
3.098
0.1055
11.24
0.02661
5.206
14.01
0.02185
454.3
0.1308
3.122
25.62
6.595
2.868
8.191
4.688
8.458
0.01591
209
1.857
0.0006892
0.8755
3.118
97.77
18.16
44.26
0.87
4.336
40.47
1.148
0.2751
1.479
24.86
0.008339
1.909
1.289
4.532
1.06
2.103
0.5765
9.857
1.823
2.572
23.37
0.0233
8.227
0.3033
1.41
3.423
0.02514
0.1859
1.292
7.382
6.348
32.91
0.0006539
0.01629
0.6802
2.527
17.54
1.661
0.5753
0.00573
0.03709
6.109
0.005738
3.8
4.175
0.1841
2.599
2.329
25.51
33.36
27.19
0.06702
3.43
2.433
4.564
0.5163
0.6787
21.64
1.099
8.274
2.596
14.11
1.695
0.9693
54.94
2.056
1.208
2.106
0.0008548
1.371
0.1741
0.01805
1.142
15.74
1.967
3.899
1.007
40.93
157.5
0.8934
198.8
0.004345
0.3393
0.05613
0.09013
2.398
0.127
8.229
31.62
4.241
11.27
0.459
1.554
4.27
2.139
0.9571
6.619
1.366
28.08
4.207
0.001974
3.038
1.164
0.05959
0.04712
5.729
0.03067
3.893
2.907
2.611
1.052
7.695
0.001096
0.3338
0.08095
5.558
24.91
9.757
1.425
0.01421
6.713
0.0128
0.3183
2.785
0.5944
28.73
2.757
3.785
0.5909
25.07
0.9342
0.00389
1.281
3.824
0.0448
0.8784
0.03165
3.858
7.152
6.156
2.146
0.006765
4.735
2.557
2.925
49.28
4.019
9.161
0.01973
0.48
0.7829
0.9959
6.684
0.8001
0.1828
1.32
0.2855
4.873
2.834
0.00398
0.1642
0.01702
0.0498
0.6914
12.63
4.273
0.01832
2.188
3.308
1.782
0.06912
1.441
0.1943
6.337
0.002871
158.5
1.403
6.763
0.0009477
0.1624
28.16
0.03896
1.61
2.684
3.982
3.318
3.097
0.0269
1.954
4.665
1.855
2.33
2.583
0.6998
1.495
1.91
12.55
0.01278
1.142
1.356
24.01
0.5
0.07641
5.495
12.79
1.271
1.287
0.91
10.55
0.07197
0.825
6.509
0.9516
4.346
1.099
0.002095
2.944
34.15
0.6986
4.163
17.6
1.674
1.222
0.01921
0.03696
0.2149
0.00111
103
2.508
0.0447
0.01831
1.269
36.74
0.04133
1.375
18.88
1.7
1.232
4.746
21.18
4.235
4.179
4.041
38.7
9.721
0.01795
1.847
1.585
2.302
0.02331
0.3067
2.883
1.685
3.915
75.07
21.77
0.329
4.803
39.35
0.6392
8.759
1.314
0.9627
0.6402
8.444
25.21
0.01854
4.354
1.312
0.04319
15.2
1.109
1.923
0.1575
1.867
4.389
3.363
3.075
0.0145
0.01863
0.355
4.192
0.1716
0.8448
0.02661
14.33
0.7836
1.103
2.822
6.546
0.4258
1.868
0.01045
29.15
2.014
31.62
3.136
0.1597
8.398
1.042
4.338
36.59
0.5692
26.87
0.1012
0.1028
1.487
0.1299
0.01791
76.71
1.801
4.67
9.618
1.316
1.626
0.001592
74.81
0.06384
2.01
0.1632
0.3639
2.393
1.796
1.787
1.917
0.7407
6.307
0.008275
1.808
11.31
32.09
19.13
0.2184
2.41
0.8318
0.1648
6.604
3.533
0.1427
0.06913
3.529
29.89
0.003119
0.01257
0.8522
9.52
0.9507
18.36
0.1397
13.77
2.413
1.379
0.07034
0.2044
4.528
3.555
7.31
1.325
5.487
0.09959
5.705
0.001516
5.963
53.99
0.06292
3.366
0.8656
20.99
23.9
7.201
0.1594
0.01041
3.389
0.3525
0.0168
6.59
4.646
0.6688
0.1567
0.1704
0.1549
0.03252
7.334
1.981
0.02015
10.29
2.093
8.052
0.03338
0.03843
0.01585
0.07817
1.365
0.4827
3.653
33.69
25.02
1.951
38.67
12.22
0.02449
34.07
3.739
9.568
0.7371
0.3289
0.7633
17.27
9.572
12.3
4.027
0.07423
1.443
5.498
1.269
1.315
0.3005
3.897
0.3278
4.148
0.001241
1.601
1.336
0.9484
0.683
8.487
82.26
24.2
0.01045
90.08
1.662
0.1716
5.966
0.02908
7.23
2.451
0.007899
5.07
6.542
0.2052
1.028
0.5456
12.13
0.01899
0.561
19.69
0.6224
0.01656
6.437
1.645
0.05104
0.5273
0.5111
1.814
25.6
3.724
3.935
0.765
8.028
1.588
0.01921
0.06616
7.105
1.354
2.253
0.06824
38.62
1.896
0.9147
4.296
1.602
3.16
0.03427
0.1221
4.163
2.69
0.09459
1.852
4.647
0.573
1.928
2.371
0.7829
0.0914
0.6961
0.9639
1.222
1.211
0.06471
6.22
0.003405
1.73
1.023
0.5022
11.44
1.976
57.4
0.8004
0.6344
0.0178
0.007503
0.7539
0.882
7.19
10.56
2.804
3.538
16.57
2.005
0.8441
3.888
3.014
14.55
2.673
0.07389
7.023
0.766
4.702
0.7687
0.7973
1.985
2.034
0.03875
3.881
0.2548
0.02206
0.2163
7.04
0.02137
110.7
4.34
6.015
0.01778
1.941
3.069
0.00105
2.092
2.397
10.78
3.984
8.544
0.03385
3.222
0.1179
0.4973
4.507
10.15
1.028
3.083
91.78
0.007449
0.02524
1.593
2.579
6.07
0.5397
2.691
4.446
0.7087
1.141
0.01789
7.609
5.95
0.2316
1.469
0.01652
2.619
0.1575
1.876
3.256
2.269
0.01707
17.8
1.361
0.02651
4.249
4.193
0.2053
0.01127
0.01543
3.508
33.73
1.049
0.5095
2.064
0.1485
1.867
1.221
0.01347
0.7505
0.6933
31.99
16.09
7.004
0.01219
3.262
1.468
8.61
6.977
23.28
1.407
2.197
1.836
1.479
3.865
7.525
0.3217
0.001148
0.4725
0.05456
35.53
0.01872
1.187
3.268
1.144
1.147
8.529
2.253
41.56
0.9483
18.77
1.406
0.5984
5.279
31.68
1.516
29.44
40.27
0.0217
29.96
7.491
7.421
10.14
1.977
0.4563
3.661
1.298
1.134
0.08058
1.121
1.108
2.931
1.86
1.968
1.026
0.4843
0.3213
29.22
2.413
41.08
1.349
3.294
0.006122
5.615
2.118
10.33
0.9367
18.46
4.287
2.224
0.2171
13.75
0.2065
1.274
1.561
0.1153
0.5298
1.315
1.111
3.481
3.629
0.7192
2.084
1.702
18.06
1.093
75.1
0.08484
0.7956
3.239
0.6699
0.0841
8.948
0.02004
0.01614
0.02109
1.871
1.639
6.991
0.1778
0.3845
1.875
0.1019
57.81
9.159
28.95
1.966
0.1428
3.96
32.73
0.1404
7.107
0.03228
1.855
0.6655
5.119
0.4948
0.01101
0.009811
2.704
0.7502
0.08705
42.47
1.825
0.05489
0.02649
1.125
0.05551
5.07
11.31
0.005376
1.296
4.789
6.675
5.072
42.95
2.914
0.2603
0.9645
2.311
0.4112
5.115
2.059
1.449
4.418
2.356
91.02
0.02863
2.171
20.31
17.11
0.04005
1.561
0.02229
0.8242
0.6455
2.218
2.027
2.175
8.236
0.3312
5.161
18.37
4.985
6.549
3.873
1.869
0.6255
1.423
5.566
1.564
4.092
0.003112
29.05
18.16
5.55
0.9213
1.161
10.47
2.824
0.5169
0.1091
119.6
2.675
0.0008024
0.001409
0.00325
2.603
9.836
0.5545
36.19
1.092
0.001114
2.069
1.434
0.7686
3.163
167
8.091
2.646
8.608
1.713
2.191
17.02
1.961
1.135
0.7256
5.693
1.601
0.5056
1.95
3.412
0.3473
1.442
1.515
0.5772
30.62
5.568
0.06156
9.402
0.7556
30.69
6.63
0.009022
0.2447
4.059
0.03718
1.588
12.86
6.867
0.7074
0.01496
0.3382
0.9635
1.138
0.0989
3.118
0.009926
3.193
1.444
4.137
5.287
3.798
3.915
3.613
9.047
0.8044
1.233
0.02784
54.65
0.07383
0.001407
4.946
0.01826
3.644
0.9129
78.79
0.0448
2.21
3.586
2.765
3.02
0.2229
1.987
1.775
3.063
6.579
1.688
0.1603
0.01695
3.85
4.897
0.1769
2.313
6.327
11.88
1.992
0.007803
2.281
3.087
38.18
1.466
2.074
1.776
2.208
0.01995
0.7142
37.02
4.733
0.04669
0.3591
6.41
0.1026
1.531
6.174
1.968
0.04694
0.05296
0.6183
0.01899
0.01319
0.02444
0.6761
21.8
5.501
0.3292
1.645
0.6104
0.2275
0.1591
1.177
1.781
0.09341
0.0567
4.924
0.2619
0.02961
7.733
1.901
0.5674
29.63
27.43
0.02819
3.27
0.8576
3.819
1.897
11.38
0.1633
1.477
29.54
1.035
8.975
0.4232
6.923
1.872
2.078
0.8635
34.34
0.1337
46.74
2.7
0.03261
0.04556
0.004204
3.647
1.415
16.48
5.143
37.76
0.1782
0.01057
2.685
2.197
0.3069
0.01743
4.307
0.7937
7.086
1.885
18.36
5.323
3.274
2.812
1.943
0.1028
26.35
2.731
1.918
0.9321
0.1335
0.01673
1.568
1.008
3.654
17.12
1.07
0.06009
2.133
0.2159
0.2334
0.01797
8.874
1.71
12.85
4.299
1.536
0.6579
2.068
1.362
0.5912
1.62
0.4536
0.3055
0.042
3.148
35.88
0.3542
0.8678
41.98
0.007131
0.02121
0.6182
0.04026
0.0571
4.311
0.0653
0.0652
1.374
0.01301
1.709
23.29
2.854
0.5488
0.3233
0.03387
0.05188
0.8266
2.007
3.327
27.36
1.135
0.005202
0.8815
1.38
6.826
0.2109
0.04712
0.07418
4.281
0.12
0.0708
3.085
2.331
0.1395
0.04085
4.023
0.01193
0.03015
0.01233
53.39
0.151
5.877
0.8239
0.03959
0.1569
0.6312
1.621
4.456
1.612
1.24
1.073
0.106
31.26
1.164
2.203
0.0374
5.382
3.766
2.332
5.789
0.4387
3.893
0.8677
0.3313
13.7
0.06592
456.1
1.333
35.83
0.103
4.631
0.01975
0.1093
0.8552
18.4
1.199
5.614
0.4659
0.001529
26.47
0.001515
9.295
37.23
0.5484
0.4509
0.002195
7.999
0.01777
0.5589
1.4
1.07
1.419
0.01698
51.64
0.05362
4.28
5.323
1.682
6.316
34.01
1.584
13.48
1.339
0.0208
1.205
2.118
0.02037
0.08351
6.964
0.9156
47.43
2.98
6.454
0.02647
1.085
0.0255
0.01639
0.04183
5.454
0.2978
0.5855
0.00118
1.777
0.4576
4.015
2.083
20.16
0.02522
3.706
5.96
1.604
0.3127
1.643
0.03329
1.226
0.007098
2.27
1.871
0.02578
2.027
63.29
4.708
7.178
1.43
21.55
7.396
0.8471
3.579
12.85
1.154
49.88
4.222
1.458
3.916
2.58
1.673
9.22
2.985
0.004076
2.449
0.002806
4.367
38.78
1.487
11.18
14.11
1.067
4.587
0.00127
2.274
1.692
78.37
0.8922
0.01477
1.33
1.794
1.843
0.001247
1.693
1.846
1.501
0.5492
6.088
3.56
35.07
3.434
3.223
1.775
1.551
6.236
0.0281
6.417
2.548
0.02198
2.425
2.337
3.899
5.089
4.164
0.05825
8.524
5.236
0.184
1.902
7.276
45.98
4.162
0.004948
0.001937
1.159
3.909
1.254
0.01253
4.061
4.214
5.238
22.96
0.007821
2.029
10
2.048
85.16
2.381
2.68
1.148
1.805
1.113
0.02162
2.154
28.42
1.656
2.266
0.5434
1.568
0.01115
0.003191
4.059
3.054
1.461
6.694
2.483
0.01619
13.54
4.175
0.361
4.142
56.29
22.4
0.00119
0.3198
0.02797
1.711
11.8
5.037
8.405
2.586
3.45
0.02846
3.997
0.05617
0.7947
19.13
0.6423
29.18
1.69
36.86
0.07211
2.17
6.865
0.01753
1.654
3
5.692
0.9059
0.03781
0.01632
0.004179
1.647
0.0161
0.9436
25.72
0.4398
1.262
3.99
0.09037
1.412
0.9874
0.004094
10.21
2.718
23.98
2.157
0.01731
6.886
7.814
0.02077
12.2
0.6085
3.492
1.124
16.88
0.737
5.854
1.171
0.9051
0.04181
0.9672
0.04364
0.1332
8.702
1.409
1.39
1.175
0.894
2.976
0.019
0.06056
0.1463
3.077
1.87
1.789
59.1
0.3836
0.04008
6.368
0.2756
3.748
0.01169
6.082
4.239
1.466
1.156
3.626
2.14
3.184
1.414
1.436
0.02165
2.424
1.356
1.361
9.38
33.06
4.478
0.07423
2.451
1.462
1.11
143.2
0.01612
4.263
1.495
1.77
2.527
1.458
112.1
2.331
6.773
3.693
33.95
0.8801
0.4469
16.12
2.145
0.02313
2.317
1.261
3.091
2.254
1.423
4.134
0.001344
6.519
6.605
5.94
1.357
7.216
5.449
0.02043
3.76
1.953
2.339
0.4313
0.05043
2.428
1.972
1.712
3.5
0.01023
5.652
0.952
0.6878
3.108
2.057
3.751
1.807
4.365
4.717
0.006752
3.519
2.028
12.65
4.144
8.897
1.088
1.412
1.907
0.6024
1.885
5.49
31.02
5.945
6.836
71.59
1.064
0.2341
119.3
3.653
7.252
0.001195
9.907
16.49
3.301
1.178
0.01932
2.178
0.02487
1.211
3.465
0.9401
1.553
1.204
5.507
0.7953
94.72
1.083
2.852
7.065
23.67
3.664
2.538
1.291
0.369
12.63
1.056
37.64
3.299
0.7091
0.04662
17.72
0.4546
0.05709
0.01867
0.8939
1.543
0.06085
0.00669
0.01802
7.082
5.205
60.57
0.08114
0.002038
1.372
0.006383
0.004846
4.738
0.000788
1.486
10.51
0.1035
9.391
1.185
3.504
0.5864
1.918
0.1318
3.479
1.372
125.3
1.762
5.778
8.085
6.662
0.3407
0.002039
0.879
5.88
0.01905
0.4463
3.23
5.429
30.2
5.661
1.772
5.557
0.0224
4.005
15.12
2.188
1.426
2.407
0.0006386
1.149
1.11
11.2
1.767
2.032
0.001563
6.654
5.778
0.001308
1.418
0.0006087
2.58
0.02722
30.3
36.42
0.03879
6.428
1.951
0.2583
12.08
3.217
0.01806
18.49
3.015
1.992
10.67
0.0711
0.2379
83.59
1.197
5.598
0.509
1.376
0.5562
0.7873
1.752
0.001242
0.6896
4.084
2.899
1.657
1.171
2.633
0.7985
2.95
5.011
2.217
0.6397
3.354
0.03123
0.3747
8.411
1.477
0.04389
0.6005
1.256
2.489
1.692
1.511
7.243
0.4262
6.442
1.203
0.004368
2.56
3.548
0.3538
4.721
0.08062
7.136
0.8073
0.6616
0.1824
0.8906
6.7
3.14
0.231
2.469
12.02
3.205
0.01129
0.01561
0.9173
4.704
7.202
0.9745
1.032
1.036
6.228
0.3739
0.4582
54.8
0.588
0.4215
38.12
5.056
1.043
1.163
0.06007
341.1
0.01671
1.646
1.958
4.164
3.653
4.741
38.1
0.7478
1.589
0.2734
188.8
3.776
1.066
167.8
22.05
4.502
2.314
0.003321
0.4077
0.2462
5.539
0.04084
4.461
50.63
0.132
2.005
0.7717
1.241
10.65
3.362
33.47
12.62
1.939
0.007566
0.007637
0.0247
6.135
27.03
0.5273
0.0161
0.1622
16.92
1.375
35.57
3.29
0.01644
128.3
0.05109
0.5461
0.8938
0.06972
1.094
0.4482
0.5551
0.1415
7.147
1.358
1.422
1.456
136.7
0.9934
6.635
2.236
0.9543
0.09464
88.33
4.364
7.966
3.558
8.329
6.514
4.921
0.1862
2.073
2.594
2.116
4.761
0.002271
15.66
1.905
8.757
0.6719
0.0738
0.1544
0.01564
2.539
1.851
3.152
5.899
0.9201
9.966
1.97
1.735
0.5895
4.489
0.2851
7.708
2.291
1.968
0.512
0.1375
0.823
0.4908
1.481
0.4222
2.983
2.507
7.879
1.028
0.8823
5.198
0.7175
8.946
2.316
1.358
0.2357
37.12
5.063
3.464
2.209
16.58
0.06246
19.74
4.901
1.437
2.615
3.695
1.989
4.465
1.246
2.565
3.213
5.438
42.76
0.00327
0.03233
0.01397
1.611
3.797
0.9255
31.93
4.744
19.86
10.98
1.702
8.142
29.64
0.7
3.838
5.795
1.976
30.67
0.01728
11.5
6.342
6.621
0.08595
6.131
1.469
2.181
3.721
3.089
0.01609
0.2057
2.209
14.44
0.005309
3.623
0.384
0.7395
620.2
0.001313
0.86
0.9287
2.469
3.076
0.4625
1.773
2.289
3.734
7.018
3.662
0.04421
1.301
142
0.02919
0.01919
19.46
12.18
2.119
7.01
0.1414
1.769
3.09
1.938
4.072
1.948
0.03665
2.096
0.6397
0.3468
0.014
2.958
0.006842
238.2
2.168
2.062
0.6012
43.66
0.01628
6.205
0.005195
0.1048
6.296
0.5329
17.4
0.706
0.121
2.108
5.476
1.489
1.192
1.75
3.666
4.719
5.612
4.293
12.03
20.78
9.211
1.336
3.087
6.923
2.332
0.8044
0.1713
0.00863
40.25
1.466
5.026
34.86
0.01742
6.638
0.3826
0.008346
1.43
181.8
0.5318
3.454
38.67
0.06422
5.818
3.483
1.272
0.8819
1.588
25.42
4.676
0.02224
36.72
29.8
0.1638
0.02111
9.732
5.884
6.275
4.926
1.89
7.402
0.01738
4.083
0.1588
5.643
4.722
34.09
0.008321
0.00841
0.3522
1.825
0.05852
1.54
0.6065
4.453
1.558
3.052
3.452
0.1536
0.0289
38.01
32.01
6.53
6.564
0.08096
5.541
0.002852
1.697
19.81
7.922
11.46
7.9
3.603
3.741
1.619
1.843
1.767
0.02915
0.01746
0.01996
1.017
2.601
6.552
54.74
2.627
0.02352
6.311
7.454
5.549
31.97
1.621
7.798
7.659
5.03
0.1617
0.8343
0.6751
2.35
0.1765
7.422
1.742
1.166
2.018
6.191
0.005283
0.01524
28.74
1.05
1.013
1.943
71.5
1.516
0.005062
3.387
1.575
1.95
1.053
2.419
6.652
2.079
6.386
0.3398
0.0006187
1.725
0.1159
0.2343
0.182
12.96
0.7821
5.849
1.414
1.106
3.065
0.03985
3.601
4.005
0.8083
2.322
2.454
73.49
0.05383
0.02177
3.936
2.741
1.899
1.694
0.3226
11.4
0.09713
0.0292
1.494
10.34
0.02581
1.862
2.173
0.01356
29.34
0.08127
2.938
1.457
4.239
0.5297
17.09
15.65
0.8171
0.06621
0.01635
1.344
1.093
2.833
1.278
0.008094
0.007154
0.02048
4.585
1.903
4.041
0.0007346
4.802
2.138
3.981
1.399
7.833
0.3355
0.0552
11.91
0.01802
12.11
2.834
0.05057
1.879
3.526
7.81
3.056
3.33
1.149
0.8679
0.001665
27.59
9.506
21.74
0.3353
1.019
0.01572
30.33
0.01454
5.536
8.079
0.01736
0.5208
1.278
4.639
0.001144
1.265
108.4
1.699
0.01848
1.298
5.847
0.526
2.419
1.211
1.751
28.29
0.7556
0.00502
0.02332
88.06
1.071
4.048
0.5005
1.391
0.007526
0.04385
0.8107
115.7
8.667
4.493
4.073
0.5771
2.944
18.75
5.361
3.898
0.03521
6.642
0.5328
4.345
1.356
1.263
0.01722
4.572
1.132
28.5
114.4
0.7883
0.8366
0.4899
10.55
0.00321
0.7315
24.88
5.643
3.51
12.38
24.22
5.308
1.982
0.4112
8.319
8.025
18.59
2.044
0.0348
15.94
20.28
0.02024
3.054
16.93
4.964
12.78
3.107
0.523
2.767
1.202
0.001287
2.686
0.0804
2.279
0.5184
32.13
0.558
38.89
1.402
4.299
1.304
1.057
5.622
0.6825
6.524
11.67
1.113
2.112
0.7981
0.7851
1.684
10.15
1.662
0.0258
3.332
1.078
9.202
3.252
2.625
6.687
3.519
0.0299
2.079
39.28
1.292
0.9277
4.757
0.07795
2.797
0.01304
2.192
159.2
267.7
10.81
1.595
1.132
0.1785
0.001071
1.42
1.75
4.919
1.002
0.01791
2.41
3.215
1.059
2.437
0.01491
5.296
14.09
29
0.4649
0.8617
3.284
6.357
0.02126
7.38
141.9
0.6262
0.741
0.4249
2.79
84.13
0.5247
1.248
1.041
1.797
0.02423
3.555
0.008373
28.59
2.282
0.7648
14.01
1.062
3.769
1.978
0.7886
0.1381
0.04886
0.01112
1.555
1.403
2.144
0.7003
1.564
2.91
28.43
0.8638
5.357
0.4037
0.01771
8.072
0.01639
1.084
5.477
1.256
1.623
1.944
35.35
4.019
1.535
2.979
5.477
2.511
0.2548
30.58
0.02061
51.21
12.31
1.881
2.285
0.1513
4.392
7.279
0.8756
0.5247