/*--------------------------------*- C++ -*----------------------------------*\
| =========                 |                                                 |
| \\      /  F ield         | OpenFOAM: The Open Source CFD Toolbox           |
|  \\    /   O peration     | Version:  v2012                                 |
|   \\  /    A nd           | Website:  www.openfoam.com                      |
|    \\/     M anipulation  |                                                 |
\*---------------------------------------------------------------------------*/
FoamFile
{
    version     2.0;
    format      ascii;
    class       volScalarField;
    location    "5";
    object      p;
}
// * * * * * * * * * * * * * * * * * * * * * * * * * * * * * * * * * * * * * //

dimensions      [0 2 -2 0 0 0 0];


internalField   nonuniform List<scalar> 
127143
(
-0.2492
-0.5154
-0.4569
-0.46
0.0713
-0.4616
0.4134
0.227
0.2237
-0.268
1.287
0.4392
-0.3832
-0.462
1.701
-0.1837
-0.4798
-0.1433
-0.278
-0.4157
-0.362
-0.3528
0.226
-0.01468
-0.3535
0.1302
-0.2664
-0.316
0.7628
-0.1041
-0.121
0.1296
-0.06554
-0.3886
0.3444
-0.05937
-0.3118
-0.3387
-0.01686
-0.2385
-0.2818
0.2602
0.2336
-0.3682
-0.1412
-0.3766
0.7563
-0.3211
0.1712
-0.04578
-0.1863
0.1321
-0.3274
-0.1834
0.003203
0.3306
0.002592
-0.02275
-0.01842
-0.1866
1.096
-0.3158
-0.06534
0.01428
-0.3227
0.4588
-0.05304
-0.06294
-0.05944
0.0007653
-0.04777
-0.2815
-0.2332
-0.0167
0.01405
-0.3041
0.02454
-0.3248
0.3283
0.02336
0.7362
-0.4018
-0.3844
-0.1509
-0.2999
-0.3201
-0.004897
-0.2286
0.4595
0.3493
0.01367
-0.2658
0.3588
-0.3582
-0.3976
-0.05423
0.2546
-0.06461
-0.3264
-0.04992
0.02311
0.1693
0.7806
0.02675
-0.3207
-0.3291
0.1282
0.0009235
0.765
0.01186
1.701
-0.2331
-0.3804
1.533
0.04125
0.1566
0.07126
0.01495
0.02855
-0.4538
0.01187
-0.3807
0.55
0.003425
0.7389
0.0701
-0.3242
-0.0397
-0.2999
0.4033
-0.3347
-0.3863
-0.02684
-0.3286
-0.4743
-0.3389
-0.1491
-0.3668
0.9706
-0.1282
0.2957
0.05583
-0.4092
-0.3657
-0.3285
0.0008613
2.077
0.01456
-0.3822
0.6702
-0.001302
0.2102
-0.3565
0.4977
1.355
-0.3019
-0.02266
0.5197
-0.3186
-0.04566
-0.09465
0.8213
0.01261
-0.3388
0.3481
-0.3286
-0.3213
0.8035
-0.1103
0.1026
-0.3351
-0.3617
0.1828
0.3948
0.003598
-0.3358
0.1269
-0.3025
-0.00226
-0.02164
0.4001
-0.009015
-0.3295
-0.3396
0.4046
-0.31
0.182
1.513
-0.02713
-0.06983
-0.3703
-0.3559
-0.1365
1.545
-0.481
-0.3354
0.0004696
0.0003015
-0.5027
0.05654
0.00533
0.1982
-0.05736
-0.3112
-0.4668
-0.09476
0.1364
0.1599
-0.1077
0.04235
-0.2299
-0.3194
0.04216
-0.1244
-0.3456
-0.3495
-0.3234
0.2072
-0.3713
0.1301
0.1447
0.02662
0.2164
-0.2843
-0.05563
-0.3312
0.3434
-0.3463
-0.312
-0.3235
-0.3682
-0.004103
-0.231
-0.4678
-0.3677
0.02731
-0.3369
-0.1751
0.003471
-0.3769
-0.3562
-0.3248
-0.31
0.5207
-0.2953
-0.4545
0.2066
-0.2761
-0.2993
0.00196
-0.02959
0.01328
0.2858
-0.362
0.3058
0.7155
-0.03337
-0.04864
0.3378
0.3353
-0.3336
0.02582
-0.2496
0.05412
-0.2652
-0.3089
-0.3304
1.392
1.018
-0.2332
0.183
0.004948
-0.3057
-0.3852
-0.07961
-0.3684
-0.387
0.1221
0.003189
0.4217
0.003871
-0.05636
0.03245
0.04225
0.02772
-0.4663
-0.3596
0.04019
0.09392
-0.02783
-0.3746
0.259
0.02482
0.2058
0.0292
0.7925
-0.04683
-0.328
-0.3096
-0.2468
0.0298
0.3705
0.5995
0.1455
-0.05894
1.078
0.1686
0.04028
-0.303
0.00919
0.1022
-0.3964
0.3066
0.004106
0.05009
0.08684
-0.3747
0.01263
-0.2155
-0.02433
0.2257
-0.07811
-0.06283
0.2817
0.08686
-0.3799
0.2738
-0.1947
-0.1955
0.2201
-0.305
0.02442
0.3616
0.0004345
0.0002899
0.4789
0.7379
0.1807
-0.3142
-0.357
-0.1284
0.201
-0.3065
-0.3711
1.527
0.09233
-0.3785
-0.3929
0.03719
-0.2979
0.03201
-0.2687
-0.3259
-0.3624
0.1507
-0.3789
-0.3622
-0.0326
-0.01351
-0.1922
-0.2975
-0.06081
-0.2149
-0.08022
-0.03625
0.01886
0.05754
-0.008863
-0.4125
0.002485
1.282
-0.06522
0.01664
-0.06616
-0.07494
-0.1745
-0.01328
-0.4384
-0.3292
0.0005791
-0.2837
0.0738
0.05746
0.3747
0.0632
-0.1582
0.1133
-0.2297
-0.3435
-0.3228
-0.02008
0.6387
-0.3208
0.316
-0.02426
-0.06855
0.6359
-0.1132
0.1371
0.02748
-0.07925
0.02549
-0.3782
-0.3331
0.1189
0.05079
-0.3221
-0.01714
0.02773
-0.001282
0.7579
0.1046
0.296
-0.3135
0.5556
-0.3967
-0.3464
0.1911
-0.3582
0.6234
-0.3179
-0.3214
-0.352
0.002409
-0.3283
0.2396
0.2314
0.3288
-0.329
0.196
0.007488
-0.3433
-0.3317
-0.2596
-0.2453
0.01844
0.1094
-0.3951
0.1215
0.03085
0.0293
-0.04903
-0.1277
0.7485
0.1221
-0.06574
0.05346
1.196
-0.008431
-0.3132
-0.3554
0.04196
0.04889
-0.4145
0.2905
-0.3092
0.03682
-0.2927
-0.3077
-0.3274
-0.02256
-0.2914
-0.3464
1.348
-0.3013
0.003988
0.02257
-0.3783
-0.3695
0.002357
-0.3291
-0.2657
0.008069
-0.3766
0.1064
0.002799
1.471
-0.2907
-0.3092
-0.3011
0.9325
1.222
-0.4127
0.3056
0.7552
-0.2455
-0.3378
-0.0008545
-0.04676
0.09195
0.1203
-0.007688
-0.3003
-0.01782
-0.4686
-0.3405
1.505
-0.02009
0.5463
0.0439
0.9274
0.02239
-0.3066
-0.3345
-0.4781
-0.5285
-0.3751
0.0241
-0.3811
-0.2577
0.05085
-0.3169
0.5608
-0.3302
0.1117
-0.3576
0.04695
-0.3344
-0.4008
0.004071
-0.3206
-0.3448
0.6404
-0.01356
-0.333
-0.02397
0.005757
-0.06626
-0.3342
-1.67e-05
-0.03947
0.1991
-0.3085
0.0009558
-0.3816
0.06111
-0.3535
0.8123
-0.07102
-0.3038
0.1092
-0.3126
0.5983
0.001841
0.3738
-0.3387
-0.03286
-0.08411
-0.3713
-0.3206
-0.3402
-0.2276
0.6029
-0.3148
-0.3427
-0.02266
-0.2313
-0.3527
0.09292
0.002961
-0.3028
0.0272
0.02832
0.3431
-0.3788
0.6712
0.05066
0.001049
0.5806
0.7025
-0.3226
0.7593
-0.312
-0.3398
0.2709
0.01707
0.002493
-0.3094
-0.333
0.2763
0.005203
-0.2829
-0.01376
-0.3662
0.0002537
0.06319
0.05115
-0.3166
-0.3141
-0.3288
0.0005446
-0.3191
-0.3379
0.8175
0.002823
0.1261
-0.3309
0.02901
0.05007
0.04924
-0.06537
-0.4188
0.04219
-0.3845
0.06878
-0.3697
-0.4161
-0.4004
0.03084
0.05678
1.516
-0.02668
0.3649
-0.1567
-0.3165
-0.2711
-0.0325
0.004238
0.2332
0.04423
1.515
-0.03192
-0.3998
0.008034
0.0412
-0.03042
0.6325
-0.3769
0.003933
0.001289
-0.3106
-0.2044
-0.3815
-0.03124
-0.3056
0.7446
-0.3572
0.7557
-0.3661
-0.3469
-0.322
0.004013
-0.3029
-0.3874
0.1505
-0.315
0.009533
0.001311
-0.39
0.9655
-0.3658
-0.3258
-0.0261
2.767e-05
-0.3318
-0.3287
0.1917
-0.3397
0.1512
-0.02584
-0.3405
0.2981
-0.3855
0.4833
-0.3725
-0.3274
-0.3086
-0.3084
-0.3598
-0.3981
0.07725
-0.4102
0.1103
-0.2959
-0.3609
-0.3872
0.001781
0.1207
0.4874
0.9108
0.0009155
0.00152
-0.4611
-0.02624
0.1895
-0.3953
0.9914
-0.2951
-0.1756
-0.06418
0.7192
0.3389
-0.000364
0.006337
-0.02053
0.2413
-0.4175
0.9212
0.6517
-0.294
0.6432
-0.2139
-0.2409
0.000111
-0.1031
0.1039
0.2835
-0.4728
0.1143
-0.2481
-0.3286
0.0006479
0.008131
-0.03533
-0.311
-0.2429
-0.3543
-0.3703
0.6513
-0.3455
0.9198
-0.2988
0.3054
0.00739
0.0108
-0.321
0.2139
-0.187
0.4949
0.1467
0.2573
0.7121
0.009447
0.0018
-0.3468
-0.2827
-0.3177
-1.167e-05
-0.3265
-0.3563
0.04224
0.0006651
-0.4185
-0.3111
-0.407
-0.3134
0.0008186
-0.3179
-0.3587
-0.3669
-0.3818
0.05806
-0.3059
1.766
-0.01522
0.1844
0.2583
-0.3918
-0.3357
0.3707
0.1222
0.06311
-0.3274
0.0007337
-0.3148
-0.3159
-0.08841
0.1143
-0.1955
-0.3139
-0.3192
0.0007396
-0.3263
-0.3399
-0.3382
-0.4627
-0.3216
-0.3059
-0.3855
-0.3161
0.2889
0.02364
-0.3633
-0.3503
-0.4234
-0.3096
-0.3189
-0.3148
-0.3296
-0.04485
0.002689
-0.2873
0.05098
5.459e-05
-0.3338
0.1162
0.1062
0.5373
0.002918
-0.358
-0.3341
0.000244
0.002948
-0.3112
-0.309
-0.3074
-0.3122
-0.3225
-0.3293
0.06991
0.7292
0.001555
-0.3388
-0.311
-0.1002
-0.05653
0.8031
0.002919
-0.02489
-0.02719
-0.2705
0.001439
-0.2009
1.044
0.05371
0.09726
0.003095
-0.3246
0.0413
0.02807
0.03809
0.001848
0.8829
1.804
-0.378
-0.2485
-0.2564
0.02172
-0.3687
0.5015
-0.04298
-0.3611
0.06132
1.177
-0.1958
0.2085
0.6511
0.1084
0.03213
-0.3256
0.4685
-0.1453
-0.3605
0.1176
0.003003
-0.1677
-0.3095
0.2965
-0.3176
-0.2216
1.631
-0.2282
-0.2066
-0.3802
-0.3098
-0.2522
-0.08298
0.03943
0.08773
0.0004199
0.0004752
-0.4168
-0.02355
-0.344
-0.1899
1.582
0.004351
-0.0958
0.1159
0.2715
-0.01794
-0.2737
-0.3198
-0.09497
-0.3843
-0.3105
-0.2704
0.2375
1.671
-0.381
-0.3169
0.03901
-0.3021
0.2798
-0.01706
-0.3684
-0.3443
-0.2952
0.001971
-0.02164
-0.264
-0.3282
0.5275
-0.3102
-0.3297
0.7409
0.2524
-0.3285
-0.3087
0.0005337
0.9946
-0.001856
0.0004994
0.6716
-0.3744
-0.2934
-0.2586
-0.09479
0.1333
-0.3387
-0.05263
-0.006124
0.01337
0.03685
0.2023
0.8234
-0.3205
-0.3835
1.679
0.6624
-0.1475
-0.1405
0.67
-0.1449
-0.3183
0.003476
-0.3109
-0.3819
-0.3852
-0.3576
-0.3403
0.03936
0.07179
-0.3089
0.3312
-0.3077
0.05494
-0.3158
-0.3124
-0.3524
-0.2742
-0.3119
0.07766
-0.3733
-0.08182
-0.3487
0.04818
-0.3157
1.551
-0.3106
-0.4041
-0.3547
-0.3337
0.001673
-0.001262
-0.3097
-0.3099
0.1607
0.003037
0.8148
-0.3432
-0.04075
-0.3156
-0.3983
-0.343
0.379
0.02804
0.2024
-0.06272
0.5895
-0.0721
-0.317
0.7154
-0.3182
-0.4105
-0.02567
-0.0482
-0.3039
0.7916
0.02205
-0.3131
0.6963
-0.02309
-0.3307
-0.3429
-0.311
-0.4247
1.707
0.03494
-0.372
0.2104
0.002219
0.002866
-0.2933
-0.3672
-0.3648
-0.3507
0.09553
0.5822
-0.3233
0.1868
0.09012
0.01572
-0.3249
-0.2553
-0.3242
0.2471
-0.3472
-0.3234
0.003799
0.06285
-0.3129
0.02284
-0.4109
0.001844
0.03442
0.0772
0.2084
-0.3131
0.02038
0.03925
0.01831
0.1454
0.1831
-0.2699
0.02905
0.2063
0.09998
-0.3396
0.02889
0.004765
-0.01262
-0.3764
0.179
-0.3116
-0.3254
-0.1001
-0.3253
-0.3351
-0.4019
0.3635
-0.2844
0.002444
0.05864
0.5202
-0.2987
-0.01221
-0.4006
-0.3458
0.1582
0.0004683
1.157
-0.3447
-0.01962
0.3714
-0.354
0.07233
-0.3913
-0.3302
-0.01705
-0.3169
0.3624
-0.3614
0.003539
-0.0655
-0.4049
0.02467
-0.4005
-0.3309
0.001889
0.2702
-0.3415
0.01897
0.4968
-0.3605
-0.2231
0.1431
0.0002475
-0.3841
-0.3446
-0.009476
0.3499
-0.01126
-0.349
-0.3667
0.164
-0.08272
-0.3497
-0.3502
0.2462
0.1276
-0.3153
-0.08747
0.0009652
-0.008907
0.01897
-0.3446
0.9062
-0.4076
0.3684
-0.3789
-0.4201
0.03005
-0.3282
-0.3344
-0.3467
-0.02737
-0.04437
-0.3306
-0.2581
-0.05759
0.07781
0.2803
-0.1109
-0.3035
-0.09256
0.246
0.0996
1.088
-0.2281
-0.3107
0.1521
-0.3235
-0.2454
0.04452
0.0006572
-0.2794
-0.3142
-0.008045
0.2466
0.062
0.1456
0.0005311
0.005737
-0.3728
-0.1251
-0.3107
-0.03196
-0.3946
-0.3109
0.03817
-0.2097
0.07431
-0.3237
-0.454
0.4018
-0.3089
-0.3755
-0.2643
-0.3191
-0.3081
0.04978
-0.3369
0.08968
-0.03271
0.7207
-0.4264
-0.02111
-0.2187
-0.2166
-0.3458
0.3108
-0.07069
-0.313
-0.3598
-0.3028
0.1217
-0.3153
0.2568
-0.1705
0.1432
-0.3144
0.05998
-0.2869
-0.3568
-0.315
-0.3209
0.01823
-0.3108
-0.3429
-0.1929
-0.3114
0.2796
-0.03946
0.01251
0.1935
-0.3375
-0.3701
0.1175
-0.2695
-0.3022
-0.3142
-0.01131
-0.3108
-0.3155
-0.1805
-0.3932
-0.028
-0.3475
0.01411
-0.2836
0.2351
-0.3088
0.2026
0.3357
0.00306
0.0008138
-0.3183
-0.2922
-0.306
-0.1817
4.79e-05
-9.138e-05
0.5678
-0.3479
-0.3099
-0.2885
0.04812
0.02411
0.3628
0.03042
-0.3089
-0.3287
0.0007145
-0.108
-0.3376
0.3176
0.09124
-0.3455
-0.3102
-0.329
-0.06366
-0.3802
0.9032
-0.2842
-0.3657
-0.3049
-0.3253
-0.02892
0.1226
0.6827
-0.2215
-0.363
0.009596
-0.02953
0.4571
0.00241
1.405
0.1624
-0.3186
0.1396
0.0008282
0.4406
-0.09936
0.03429
-0.07363
-0.3381
-0.01067
1.464
0.2199
0.01899
-0.331
0.3555
-0.3261
-0.4204
0.4225
0.3101
-0.4336
1.279
-0.2355
-0.3411
0.00749
-0.273
-0.2859
-0.05612
0.6506
-0.2948
-0.3334
-0.008864
0.1142
-0.3223
0.0001144
-0.3022
0.002961
0.4399
-0.3053
-0.1657
-0.3144
-0.3023
-0.1986
-0.3757
-0.04118
0.4496
-0.207
-0.3568
-0.3368
-0.3809
-0.3758
-0.3071
0.01927
-0.3162
0.03791
-0.3251
0.03058
-0.3116
0.002141
-0.2648
-0.3102
0.001996
0.03095
-0.3563
-0.2107
-0.3506
0.2167
0.0004824
0.7216
-0.3682
0.1978
-0.3771
-0.3358
-0.4546
0.07756
0.005251
0.0372
0.1731
-0.2738
-0.2338
-0.1087
-0.3272
-0.3189
-0.3352
-0.385
-0.2753
-0.2977
0.01907
-0.2101
-0.3533
0.618
0.0364
0.07741
0.5785
0.0735
-0.3156
0.001259
0.001342
-0.1915
-0.2767
-0.04092
-0.3191
0.05234
0.2453
0.9618
-0.03021
0.07034
0.4657
-0.1976
-0.07482
-0.3513
-0.03498
-0.3285
-0.3537
0.2
0.06551
-0.3215
-0.01083
-0.3478
-0.3328
0.116
-0.3181
0.01838
0.31
-0.005654
0.03155
-0.3331
-0.3253
-0.1912
0.005872
-0.3022
0.501
0.05688
1.297
0.155
-0.3455
-0.3362
-0.213
0.001209
1.134
-0.3727
-0.2586
-0.07403
-0.3107
-0.3099
0.0003606
-0.2999
-0.362
-0.3327
0.07445
-0.3678
-0.3243
0.09369
-0.2864
-0.1724
0.9915
0.1567
1.055
-0.3624
-0.03607
0.001398
0.001405
0.004945
-0.1074
0.02382
0.07231
-0.01942
-0.08026
-0.2087
-0.007918
-0.3186
-0.006005
0.0144
0.001195
-0.3043
0.00294
0.5197
0.0101
0.07364
0.3298
0.8837
-0.2171
-0.06649
0.001521
1.674
-0.2297
1.831
-0.3485
-0.3812
0.005224
-0.4008
-0.3292
-0.3373
-0.4056
-0.3444
-0.3216
0.9057
1.978
0.06076
0.002318
-0.3146
0.0002374
0.0005874
0.2659
-0.3366
0.002299
-0.1041
0.02704
-0.3994
-0.2388
-0.3455
1.639
0.006219
-0.3081
-0.3747
-0.2118
-0.03867
0.07076
0.3583
0.02278
0.002188
-0.3166
1.665
0.3886
0.07825
-0.03401
-0.3153
0.1592
0.3138
0.0006212
0.4661
-0.3281
-0.04521
-0.04471
0.65
0.08173
-0.3675
0.02877
0.4337
0.5645
-0.2976
1.52
0.2847
-0.362
0.0008411
-0.3013
-0.02179
-0.3208
0.07837
0.07402
-0.3169
0.03718
0.5879
1.642
-0.3046
-0.08714
-0.4488
0.001533
-0.221
-0.0002895
-0.2959
0.2208
-0.2851
0.0348
-0.3026
0.007683
0.02411
-0.3211
-0.0008341
-0.2939
-0.05203
0.7378
-0.3569
-0.01272
-0.005231
0.01719
0.3728
0.8843
0.1762
-0.2939
0.132
-0.0561
-0.2589
-0.3238
1.187
0.7372
-0.3165
0.0372
-0.4022
-0.3109
1.44
-0.144
-0.1823
0.6577
0.1285
0.06945
-0.3545
0.7249
0.0318
0.1086
2.131e-05
-0.3383
-0.2751
-0.2167
-0.3178
0.1735
-0.3184
0.02167
0.08471
0.002322
0.02579
0.1655
0.04638
0.02965
0.08342
-0.4123
0.02684
-0.3219
0.1043
-0.3454
0.8849
0.201
0.1635
0.0294
0.06501
0.8497
0.7202
-0.2638
0.1105
-0.0244
0.04991
0.002857
0.08843
-0.3325
0.0009211
-0.2736
0.3169
0.3042
0.8923
0.1203
-0.316
0.003363
-0.2605
-0.396
0.002516
0.4567
-0.1701
-0.3577
0.002534
-0.3185
-0.08271
-0.295
-0.2698
-0.3102
-0.002591
-0.3583
0.0006182
0.00197
-0.3268
-0.04986
-0.4064
0.9275
-0.305
-0.08624
-0.4098
0.1006
-0.3056
-0.262
1.436
-0.3151
-0.3284
-0.3933
-0.03165
-0.3029
0.00101
-0.3175
-0.3573
-0.3182
-0.3574
0.7463
-0.3262
-0.3344
0.05736
0.0542
0.9353
-0.004347
-0.3436
0.008992
-0.05892
0.2006
-0.3146
-0.2925
0.001788
0.4032
0.07784
-0.3692
-0.3452
-0.3359
0.1705
0.2418
0.06898
-0.3868
-0.3402
-0.3682
0.1093
-0.002545
0.0007716
-0.1907
1.665
0.03713
0.0005596
-0.3125
-0.3119
-0.0168
-0.4155
-0.2997
-0.01386
0.004612
0.928
0.1344
0.1322
-0.3131
-0.01413
-0.004836
0.1299
-0.03445
-0.1722
0.9844
-0.3186
0.05846
0.002345
1.875
0.5337
-0.3044
-0.06922
-0.2469
-0.009338
-0.3068
-0.02466
0.001765
0.2352
-0.0537
0.01614
-0.3104
-0.3308
0.3389
0.585
0.05625
0.1066
-0.2915
0.1516
0.01512
0.02057
-0.01631
0.01624
-0.3129
0.2187
0.3757
-0.3785
1.985
-0.3352
-0.338
0.06943
0.1489
-0.05618
-0.3124
-0.3225
-0.2804
0.05326
-0.1014
-0.263
-0.08744
-0.02228
0.000275
-0.1188
-0.2672
-0.3149
0.02611
0.03075
-0.3289
0.1051
-0.3117
0.1553
-0.08334
1.46
0.02547
-0.01992
-0.3021
-0.3116
0.0382
-0.2595
-0.05528
-0.2934
-0.3612
0.107
-0.3958
0.02294
-0.3528
-0.3051
0.07158
-0.2191
0.09866
-0.3887
0.2506
-0.01485
-0.3677
-0.3599
-0.01744
-0.3427
0.1726
-0.2985
-0.3211
-0.3224
-0.4089
-0.3124
2.02
-0.3202
-0.008566
-0.3165
-0.2559
0.09188
0.1701
0.003764
-0.3462
-0.1884
-0.37
0.0007555
-0.3125
-0.3089
-0.3096
-0.301
-0.3807
-0.2157
-0.3454
0.05372
0.04707
-0.3096
0.001923
-0.3123
0.1664
0.08059
-0.3137
0.01191
0.07645
-0.06657
-0.3278
0.01783
-0.02442
-0.3095
-0.006541
-0.2745
-0.02595
-0.3614
-0.3125
0.3291
-0.03912
-0.2901
-0.2067
-0.3664
-0.02202
0.009954
-0.1218
-0.3104
0.2332
-0.05148
-0.3145
0.1704
0.05312
0.002116
0.5716
-0.07021
-0.2047
0.03811
-0.342
-0.321
0.1484
-0.3358
0.203
-2.238e-05
7.708e-05
0.004574
-0.3991
-0.3201
1.351
0.2442
-0.3133
0.0393
0.02832
-0.01101
0.2739
0.09785
-0.3192
-0.03608
-0.1708
0.4106
0.0005869
0.04902
0.422
0.2022
0.4431
-0.3675
1.203
-0.3219
-0.3621
-0.05164
-0.4077
-0.3848
0.1272
-0.1461
-0.3089
0.0004526
0.0006076
-0.3235
-0.3128
-0.06856
0.7532
0.7895
-0.3841
0.004866
0.02216
0.7883
0.01382
-0.3593
0.3497
0.2765
0.1494
0.3189
0.1476
1.134
0.0245
0.001509
0.05309
0.1169
0.07691
-0.3077
0.59
-0.3661
-0.4113
-0.3947
-0.3197
0.02551
-0.3088
0.6252
0.2311
-0.3673
-0.3347
0.974
-0.312
-0.3122
-0.3205
1.377
0.7414
0.207
0.1145
0.07618
-0.3158
-0.01502
-0.3137
0.02709
0.06913
-0.2993
0.1096
-0.3402
0.3386
-0.3418
0.7078
-0.05199
-0.382
0.06792
-0.05598
-0.2691
0.003729
-0.3065
-0.09151
-0.3223
-0.3475
-0.3279
-0.04921
0.2023
0.04188
-0.3836
1.917
0.1103
-0.3758
-0.3041
-0.1957
-0.3158
0.0006905
-0.3873
0.09291
-0.269
0.8683
-0.009115
0.2964
-0.3005
0.05931
0.6621
0.02809
-0.395
-0.3072
-0.1369
0.01014
-0.3133
-0.1273
-0.311
-0.05852
-0.01414
-0.2924
-0.3436
0.05452
0.2195
0.8467
0.7695
0.8923
-0.3622
-0.3612
-0.01746
0.5939
0.123
-0.2631
1.388
-0.3432
-0.2818
-0.1538
-0.3185
0.000598
-0.2809
0.05071
0.02832
-0.00702
-0.01192
-0.3078
0.368
-0.2803
-0.3747
0.02559
-0.3224
-0.3224
1.301
-0.3422
-0.309
-0.3019
-0.3666
-0.3368
-0.02055
-0.3094
-0.331
-0.3135
-0.2726
0.0002433
-0.3456
-0.02396
0.08715
-0.3399
-0.3282
0.4772
-0.3243
-0.3375
-0.3668
0.07313
-0.285
0.0303
0.2773
-0.3433
-0.3398
-0.2256
-0.286
-0.0941
-0.3199
-0.02178
-0.4172
-0.3486
-0.3003
0.01963
-0.3649
1.742
0.09939
0.6475
0.06442
-0.3182
-0.03239
-0.3278
-0.3402
-0.3141
0.476
-0.3113
-0.372
0.04725
0.7298
0.003305
-0.2613
-0.4072
-0.3105
0.09701
0.06215
-0.3913
-0.06367
-0.3205
-0.4149
0.2226
0.004631
-0.4209
-0.3196
-0.07737
0.399
0.431
-0.008083
-0.3933
-0.3405
0.3734
0.03045
0.4576
-0.394
-0.2632
-0.3247
0.0168
6.124e-05
0.0001025
-0.03429
-0.3902
0.4249
-0.2689
-0.04568
0.01679
-0.3439
0.2196
-0.4119
0.03055
-0.02057
-0.3306
-0.3464
-0.04158
-0.09624
0.3438
-0.001682
-0.03961
-0.3122
0.1956
0.1738
-0.06716
0.002959
0.1291
-0.3297
-0.2665
-0.3089
0.001138
0.0008622
0.0008982
0.0005018
-0.03385
-0.3258
0.208
0.703
0.07268
-0.3086
-0.3741
-0.3106
0.000358
-0.3804
-0.3072
-0.3571
-0.3444
-0.3417
-0.3525
0.03325
0.05734
-0.3977
-0.05675
-0.1306
0.03962
1.16
0.3157
0.005808
1.055
0.8872
0.02267
-0.3091
-0.3502
0.2613
-0.01132
0.2162
0.7043
0.01537
-0.3113
-0.354
0.001746
-0.3766
-0.3197
-0.3494
-0.3152
-0.4323
-0.04569
-0.3331
0.004447
0.7949
-0.1346
-0.3158
-0.3141
0.7068
0.01518
-0.002793
-0.236
-0.3539
-0.3432
-0.06559
-0.3528
-0.3186
0.1206
1.418
0.05842
-0.3213
-0.2962
-0.3189
-0.3248
0.02963
-0.08088
0.3873
0.04521
0.6343
0.01682
0.003722
-0.2464
0.002237
1.318
-0.3336
-0.0528
-0.322
0.1836
0.03413
-0.002111
-0.3127
0.1194
-0.3172
0.003044
0.2559
0.8634
-0.3396
0.03
-0.2939
-0.3438
-0.1104
0.001687
-0.3064
-0.3528
0.1358
-0.00591
-0.2892
-0.004074
0.3915
0.489
0.03373
-0.357
0.02529
0.1623
-0.3261
-0.05699
0.01471
0.03956
0.2267
-0.07392
0.2747
0.01826
-0.2779
-0.08812
-0.1088
-0.3296
0.003072
-0.3526
-0.2802
-0.3022
-0.372
0.2764
-0.2234
-0.3408
0.6588
0.02962
-0.01371
-0.06677
-0.3944
-0.2936
-0.3363
-0.3706
0.06186
-0.3146
-0.4025
-0.3096
-0.3167
0.03266
-0.3015
-0.3255
0.1352
-0.3258
0.8249
-0.04458
1.691
-0.318
-0.3116
-0.1074
-0.02442
0.05806
0.7979
0.1198
0.04972
0.7424
0.04161
0.8128
0.02624
-0.3239
-0.418
-0.1884
-0.2177
0.4426
-0.3129
1.054
0.001181
1.492
-0.2549
0.0002153
-0.3109
-0.3125
1.162
0.007008
-0.3095
-0.322
0.2648
1.822
-0.3608
0.4815
0.05794
-0.2996
0.006203
-0.3235
0.03924
-0.331
-0.04035
-0.3149
-0.2392
0.02519
0.1014
0.2832
0.2302
-0.02323
0.01865
0.4085
0.124
-0.3211
0.002986
-0.1914
0.1096
-0.4215
-0.3809
-0.3175
-2.334e-05
0.04363
0.03432
0.1251
-0.2499
-0.3079
-0.2952
0.0005052
-0.05716
0.1586
0.0004714
-0.3406
0.3172
0.1424
-0.3758
-0.3144
-0.3911
-0.3208
0.008815
0.2992
-0.02692
-0.3163
-0.3656
-0.2932
-0.3186
-0.3864
-0.3078
0.3958
0.1353
-0.3009
-0.1388
0.2755
0.5657
-0.3221
-0.05015
-0.3985
0.0004375
0.1025
-0.2116
0.04369
0.1112
1.836
-0.3395
-0.1542
-0.01969
-0.3099
0.6947
-0.2979
-0.3866
0.003824
-0.2399
0.2526
-0.1368
0.4474
0.02819
0.9984
-0.3458
-0.321
-0.3378
-0.2837
-0.3974
0.5039
-0.3595
-0.3097
-0.3197
-0.3098
-0.2252
-0.4171
0.001114
-0.31
-0.1228
0.02509
-0.07928
-0.03297
0.02557
-0.3043
-0.3652
0.137
0.205
0.006774
0.001498
-0.2773
0.06541
0.2512
-0.4269
0.6899
0.097
0.001898
0.5709
-0.007452
-0.051
-0.3363
-0.3118
0.05058
-0.3632
0.02465
-0.3026
-0.05987
0.4382
0.004642
-0.3307
-0.3269
0.0047
0.1572
0.03373
-0.1146
-0.3673
0.05166
-0.3158
0.0009546
-0.3598
-0.015
-0.2989
-0.417
-0.3269
-0.3118
0.03066
-0.2722
0.1063
0.2665
-0.4158
-0.1022
0.05117
-0.1613
0.1159
1.077
-0.2913
0.004306
0.001354
-0.01503
-0.1054
0.8731
-0.3525
-0.3469
0.05881
0.03829
0.8133
0.03489
0.009514
-0.1411
-0.09326
0.0005607
0.003181
1.291
-0.2513
0.009472
0.0003779
-0.02528
-0.3392
0.13
-0.006715
0.27
0.4143
-0.3354
-0.4065
0.02823
-0.1615
-0.3049
-0.2796
-0.3105
-0.3419
0.002796
-0.3237
0.2357
-0.04961
-0.002254
-0.3606
0.1354
-0.2518
0.8284
0.03033
-0.2974
-0.435
-0.3403
-0.3654
0.06486
-0.1875
-0.1291
-0.08575
-0.3411
-0.3051
-0.3366
-0.358
0.001123
0.9233
0.1424
-0.1565
-0.3312
-0.3122
0.5819
0.2534
0.006277
0.1464
-0.01887
0.0009487
0.1746
-0.3596
0.03114
-0.001835
-0.03298
-0.07756
0.03117
-0.307
-0.3149
0.03405
0.2954
-0.3672
0.4297
-0.405
0.1689
0.03803
-0.3156
-0.4108
0.03941
-0.3444
-0.388
-0.3542
0.001956
-0.05844
-0.3228
-0.3081
-0.3151
-0.1993
0.5978
-0.2589
-0.3502
-0.307
-0.3105
0.8052
-0.312
0.3019
0.1425
0.2785
-0.1964
0.003295
-0.3067
-0.1059
0.0309
-0.4058
-0.3284
0.6527
0.04126
-0.3145
0.1192
-0.3331
0.5262
-0.01112
0.05006
-0.2709
-0.3276
0.0001877
-0.3186
0.1131
0.7368
-0.2932
-0.332
-0.04961
0.0479
-0.2622
-0.2639
0.009315
-0.3357
-0.1505
0.7908
0.01093
-0.1706
-0.162
-0.2259
-0.4205
0.2523
-0.2951
-0.3554
0.001979
0.006577
-0.3288
-0.06254
0.002373
0.5629
-0.03014
0.4594
-0.3212
-0.2394
-0.359
0.0006829
0.5577
-0.01486
0.2455
0.001157
-0.0729
-0.227
-0.3106
-0.3559
-0.2966
-0.3032
-0.3176
0.003618
-0.3629
-0.3121
1.678
-0.3088
-0.02613
-0.3276
-0.004141
0.006119
-0.3184
-0.3746
-0.1516
-0.1198
-0.3364
-0.3774
0.0007601
0.01621
-0.002043
-0.3134
-0.3053
0.03752
0.008721
-0.3143
-0.3487
-0.092
0.02815
0.2353
0.01692
0.3911
-0.3292
-0.346
1.25
0.001708
0.3929
0.0006996
-0.3958
0.3787
-0.02995
-0.3162
-0.3097
-0.3812
-0.3025
-0.3164
0.2255
0.003352
-0.4055
0.147
0.003064
-0.3714
-0.1134
-0.3093
0.001626
0.0726
-0.1841
0.1301
0.8286
-0.326
0.02406
0.1781
0.2781
-0.3253
0.08435
0.01828
-0.0001834
-0.03274
-0.3078
-0.3089
0.01581
0.1419
-0.2613
0.2417
-0.3033
0.2815
0.02146
0.2216
-0.3963
-0.3181
-0.3045
0.2063
-0.2024
-0.3343
-0.3775
0.4817
-0.3213
-0.1204
-0.3469
0.5425
-0.07052
-0.1967
-0.005487
-0.3107
-0.2023
0.405
0.001029
-0.3661
0.2378
-0.2176
-0.002748
-0.3487
-0.3844
-0.3806
0.002059
2.075
-0.3612
0.0004479
0.06562
0.01355
-0.3193
-0.3918
0.002971
-0.3219
0.8538
0.0247
0.3508
-0.2872
-0.1069
0.1003
0.6242
0.1144
0.001402
0.002967
-0.07528
-0.3135
0.02763
0.602
-0.2834
0.007856
-0.0619
0.04158
-0.4042
-0.3314
-0.3625
0.9867
0.03884
-0.1309
0.6439
0.0004865
-0.3715
0.02881
-0.3098
-0.02257
-0.06193
-0.3309
-0.3459
-0.3212
0.002261
-0.0001843
-0.3268
-0.3541
0.07235
0.1255
0.1778
-0.3101
0.7729
0.7784
-0.3047
0.3243
-0.306
0.005363
-0.2162
0.2115
0.0214
-0.3388
0.003582
-0.3062
0.2065
-0.07318
-0.3085
-0.3535
-0.03284
-0.342
-0.1916
-0.0118
0.000979
0.04835
-0.007267
-0.07451
-0.2837
-0.3224
0.1606
0.8634
-0.3078
0.4317
-0.4029
-0.0763
0.1443
-0.3524
-0.09294
0.1724
0.2587
-0.03319
-0.01444
-0.3354
-0.3262
-0.006398
0.02295
-0.3094
-0.05801
0.005636
-0.2144
0.1672
-0.009514
-0.3674
0.1929
-0.314
0.004976
-0.356
-0.3932
0.0007343
-0.392
-0.3003
-0.3277
-0.3179
-0.3132
0.02878
-0.317
0.002851
-0.07682
-0.4083
1.321
0.2016
-0.1269
-0.3445
0.004683
0.008741
0.2163
0.3532
0.1485
0.02954
-0.2802
0.0782
-0.3398
-0.31
0.06822
0.1462
-0.05789
-0.03665
-0.3171
0.02025
0.3803
0.3111
-0.2857
0.09232
-0.3564
-0.007052
1.37
-0.2482
-0.03199
-0.3309
-0.3607
-0.2081
-0.005299
-0.01495
0.1548
1.191
0.06183
-0.2872
-0.3266
-0.08528
0.02956
0.1737
0.0008156
0.8077
-0.1695
-0.02084
-0.2725
-0.3431
0.01256
-0.005869
-0.04748
-0.3102
-0.3099
0.08726
0.4056
-0.3581
0.1574
0.09984
0.03168
-0.07273
-0.257
0.001419
-0.247
0.2401
-0.05273
0.05918
-0.3067
0.01996
0.0753
-0.3066
0.03704
-0.3957
1.32
-0.3178
1.878
-0.3795
-0.02553
-0.3298
-0.01997
-0.3096
-0.3713
0.4963
0.04495
-0.3722
0.3392
0.2595
-0.4135
-0.2869
-0.29
-0.3098
0.0132
0.1729
0.1056
-0.3618
-0.3149
-0.3171
-0.3178
-0.3243
0.5365
-0.02955
-0.2823
-0.3423
-0.3974
2.061
-0.00662
-0.01402
0.002146
-0.4034
-0.375
-0.3828
-0.3373
-0.005661
-0.4016
-0.06543
0.1652
-0.3319
0.2326
-0.3738
-0.3688
-0.02653
0.08403
-0.3379
0.09791
-0.3209
-0.3154
-0.0714
0.07929
-0.3108
-0.002735
0.1053
-0.3475
0.3232
-0.3361
-0.3099
-0.3053
-0.124
0.1251
0.05159
-0.02449
0.02142
-0.3117
0.004315
-0.3442
-0.1804
0.6232
-0.3071
0.3461
-0.2982
0.2056
-0.3423
-0.04204
-0.1713
0.002742
1.962
-0.02139
-0.3186
0.02805
-0.3961
-0.2996
-0.3111
-0.3032
0.001586
0.00531
-0.3906
-0.2908
0.211
0.2588
0.04196
0.001913
0.03749
-0.01738
0.1429
0.3384
-0.05823
0.001546
0.327
-0.3109
-0.1445
-0.3221
0.2573
0.7247
-0.000103
-0.03578
0.004105
-0.1315
-0.4104
0.3951
0.5384
0.122
-0.3219
-0.3429
-0.0075
0.3144
-0.4055
-0.03288
0.008647
-0.3154
0.03445
-0.3592
-0.3162
0.3953
-0.2949
-0.08874
1.574
0.08256
-0.04396
1.342
-0.3382
0.3597
-0.02441
-0.3188
-0.308
0.05537
-0.413
-0.3075
0.3209
0.002711
-0.3541
0.0106
-0.0136
-0.07246
0.2359
0.4016
-0.2026
0.2174
-0.1306
1.962
-0.3145
0.0004468
0.000113
0.003462
-0.008231
0.1809
-0.3322
1.562
-0.2323
-4.266e-05
0.2024
0.1121
-0.1278
0.05047
-0.1692
-0.3242
-0.3118
0.1227
-0.3089
-0.3421
0.9861
-0.311
-0.37
-0.3283
-0.01036
-0.3053
0.2317
-0.3133
-0.03651
0.01014
-0.2389
0.8333
-0.3087
-0.3466
-0.3072
0.03039
-0.2577
-0.3579
0.3044
-0.311
-0.002157
0.08629
0.04131
-0.07842
-0.3222
0.6071
-0.3151
-0.3217
0.001154
0.06421
-0.336
-0.3416
-0.04224
0.05923
0.0054
-0.03219
-0.3707
-0.3151
-0.3365
-0.3922
-0.4018
0.211
-0.2579
0.8339
-0.06988
0.02198
0.2427
0.1198
0.0001406
-0.3244
0.0568
0.01261
-0.3123
-0.3336
0.03134
-0.2749
-0.3232
-0.07544
0.08654
-0.04433
-0.3386
-0.3136
0.1817
-0.08188
-0.3805
-0.1843
0.0007442
-0.31
-0.4033
-0.0836
-0.3067
-0.3196
-0.3552
1.026
0.001476
-0.3147
0.316
-0.3106
0.1645
-0.3289
0.1784
0.05423
0.002879
-0.05969
2.029
-0.09181
0.02928
0.06495
-0.3087
0.0006866
0.0863
0.04334
-0.3502
0.02999
0.03129
-0.2917
-0.02971
0.001871
0.008228
-0.3007
1.776
-0.01966
-0.2373
-0.005059
-0.06215
-0.1992
0.02694
-0.3186
0.2217
0.05662
-0.03007
-0.0358
-0.1544
0.1371
-0.3079
-0.3739
-0.2926
-0.354
-0.1293
0.1344
-0.3244
-0.3358
-0.3451
-0.36
-0.3103
0.00675
-0.2533
-0.3369
0.2647
1.193
0.02827
-0.008383
-0.3335
0.07621
0.0596
0.4043
-0.1436
-0.1851
-0.4047
0.06565
0.2181
0.001329
-0.3131
-0.337
-0.4391
-0.2821
-0.3115
-0.1937
0.00064
0.3383
-0.2452
0.1446
0.01934
0.002635
-0.3203
-0.3961
-0.3838
1.4
0.5919
0.5342
0.7996
-0.09326
0.0007605
-0.3251
-0.3627
-0.3187
0.07838
-0.1798
-0.006151
-0.3211
-0.3419
0.2477
-0.3029
0.01481
-0.1055
-0.1966
-0.1591
0.5704
0.04197
0.4696
-0.0784
-0.3118
-0.414
-0.3765
0.1487
-0.3118
-0.3077
-0.0457
0.1349
0.04625
0.09531
0.01626
-0.3349
-0.2707
-0.2679
0.4262
-0.06627
0.002246
0.007069
-0.3197
-0.002443
0.02531
0.1496
0.0001405
0.0002796
0.4068
0.001981
-0.3265
-0.4497
-0.06524
-0.3006
0.1201
0.007516
0.02899
-0.3544
0.01287
0.7776
-0.003599
-0.3476
0.004716
-0.3089
-0.217
-0.07227
-0.2161
0.03049
-0.02679
-0.02078
0.008806
0.00917
-0.3342
0.1016
0.1361
0.07267
-0.4143
0.00154
-0.01951
0.00918
-0.3114
-0.1686
-0.3094
-0.2973
0.1937
-0.1866
-0.3121
-0.3196
0.139
-0.3229
-0.01456
-0.3645
0.01808
0.1613
-0.35
-0.2581
0.02466
-0.3191
-0.3104
-0.3679
-0.3095
0.1533
-0.3142
0.06156
0.1345
-0.3737
0.03026
0.7794
0.257
0.4578
0.02366
-0.1125
0.04873
-0.1429
0.1786
-0.3527
-0.3055
-0.3519
-0.3036
0.002457
0.5696
0.00223
-0.3314
1.576
-0.2979
0.3688
0.002674
-0.0385
0.02529
-0.002015
-0.3199
-0.2265
0.2992
0.06089
1.517
-0.000499
-0.3194
-0.3928
-0.303
-0.3062
1.037
-0.3749
0.3647
-0.01921
-0.006564
-0.3212
1.199
0.04697
0.01936
-0.3188
-0.2957
1.208
-0.1227
1.264
0.03501
-0.05506
0.03796
0.04827
-0.009673
-0.2912
0.1972
-0.3183
0.000566
-0.3325
0.2397
-0.3973
-0.07475
-0.06076
-0.04993
-0.3773
0.9398
0.1035
0.03787
-0.3171
0.03397
-0.06147
0.003422
-0.3107
0.4966
-0.02707
-0.01442
-0.3143
-0.3184
0.01146
-0.3321
-0.02044
0.2037
-0.1952
0.7652
-0.275
-0.216
-0.3507
-0.3324
-0.3216
-0.4059
-0.3124
-0.3568
-0.3608
-0.09722
0.004786
-0.4146
0.003278
0.3355
0.4466
0.07737
-0.3692
0.5948
-0.327
-0.3111
0.0001936
0.04422
-0.3407
-0.2219
-0.3201
-0.01498
-0.3193
-0.3942
0.05553
0.001262
-0.2615
0.03977
-0.3343
-0.2534
-0.2828
0.8061
1.111
-0.3241
-0.4069
-0.3858
-0.3237
-0.3092
0.1249
-0.308
0.6807
0.05833
-0.31
-0.3132
-0.324
-0.3843
-0.3093
0.03062
0.7468
0.4817
-0.1877
0.6561
0.7253
-0.3095
-0.3299
0.001849
0.001397
0.01303
-0.3092
0.04063
0.01681
0.5612
-0.3131
0.3871
0.2172
0.00775
-0.025
-0.04654
-0.3122
-0.3058
-0.3708
-0.3787
-0.1406
-0.3161
-0.2234
0.1085
-0.3364
1.316
-0.2186
-0.01959
0.03366
-0.3093
-0.007396
0.00304
-0.3216
-0.3257
-0.3247
-0.3398
-0.3125
0.0481
-0.322
-0.3818
-0.2423
0.333
0.2876
-0.3204
0.001031
0.1184
0.1208
0.1444
-0.3161
-0.3792
0.229
-0.2102
-0.2605
0.03256
-0.3988
-0.04019
-0.2994
-0.3825
0.235
-0.339
-0.3702
1.855
0.3027
0.1651
-0.04134
0.008446
0.0221
-0.3094
0.07887
-0.3052
0.01787
0.04574
0.005997
-0.3482
0.04169
-0.3447
-0.3683
0.4688
-0.3276
-0.324
0.1605
0.05897
-0.3112
0.004592
-0.3796
-0.2327
0.06237
-0.3782
0.06314
-0.4044
-0.08574
0.008859
-0.07304
-0.2943
0.5562
0.05943
1.359
-0.1741
0.7516
-0.2996
-0.3138
0.02112
-0.3289
0.006729
0.03311
0.2166
-0.1431
0.1267
0.07126
0.3096
-0.3501
0.03666
0.0007415
-0.1314
-0.3079
-0.3168
0.1926
-0.424
-0.2821
-0.03626
-0.3511
-0.07869
-0.02349
0.01321
-0.3089
0.03143
-0.309
-0.3078
-0.3201
0.2353
-0.4021
-0.3482
0.538
0.004169
-0.2796
-0.3075
-0.1203
-0.308
0.09684
0.1746
0.0119
-0.3069
-0.3469
-0.2587
0.796
0.04096
-0.3793
-0.3707
-0.305
-0.3121
-0.3381
0.6973
-0.3216
0.7051
-0.02687
0.05522
0.059
-0.123
0.3477
0.7921
0.02414
-0.07563
-0.3178
-0.4066
-0.225
-0.3195
1.438
0.001458
-0.3115
0.7609
-0.01227
-0.2073
0.2036
-0.3174
0.04147
-0.3966
-0.2817
-0.3869
-0.2821
0.0005509
-0.06904
-0.3274
0.317
0.1245
0.01247
-0.3306
-0.3074
0.02236
-0.3354
-0.256
-0.3327
-0.3205
0.1376
0.3175
0.001906
-0.3183
-0.3133
1.844
0.04264
1.165
0.03746
-0.3468
-0.3095
-0.2915
0.07721
-0.3381
-0.3765
0.2007
-0.1149
-0.001231
-0.3646
0.1844
-0.3687
0.171
-0.09676
5.678e-05
0.05814