/*--------------------------------*- C++ -*----------------------------------*\
| =========                 |                                                 |
| \\      /  F ield         | OpenFOAM: The Open Source CFD Toolbox           |
|  \\    /   O peration     | Version:  v2012                                 |
|   \\  /    A nd           | Website:  www.openfoam.com                      |
|    \\/     M anipulation  |                                                 |
\*---------------------------------------------------------------------------*/
FoamFile
{
    version     2.0;
    format      ascii;
    class       volVectorField;
    location    "5";
    object      U;
}
// * * * * * * * * * * * * * * * * * * * * * * * * * * * * * * * * * * * * * //

dimensions      [0 1 -1 0 0 0 0];


internalField   nonuniform List<vector> 
127143
(
(0.006856 -0.0002625 0)
(0.000507 0.002209 -3.297e-24)
(0.0001164 0.0005639 5.845e-24)
(0.0001276 0.000508 1.007e-26)
(0.02831 0.008878 3.653e-24)
(0.0001024 0.0004295 -1.268e-26)
(0.0425 0.02664 0)
(0.02889 0.01315 2.798e-23)
(0.02368 0.01137 -9.265e-23)
(0.03934 0.00139 0)
(0.0244 0.03353 -7.944e-22)
(0.02735 0.01804 -1.879e-22)
(0.002512 -0.0009501 -1.049e-24)
(0.0001184 0.0003908 0)
(0.2789 -0.3293 2.414e-21)
(0.09974 -0.008242 0)
(0.0007121 0.003066 -1.061e-23)
(0.5899 -0.06408 3.035e-21)
(0.4293 -0.1353 0)
(0.2851 0.146 0)
(0.5105 -0.1213 8.578e-22)
(0.04239 -0.01497 0)
(0.9374 -0.1931 0)
(0.5648 -0.05282 0)
(0.0415 -0.01576 -8.664e-23)
(0.3905 -0.0623 0)
(0.3064 -0.004903 2.575e-21)
(0.3048 0.007777 -4.198e-23)
(0.3559 -0.1568 0)
(0.6515 -0.05252 -5.11e-21)
(0.5471 -0.02576 0)
(0.3758 -0.05907 1.707e-21)
(0.3381 0.07879 8.799e-23)
(0.2731 -0.0708 -2.677e-21)
(0.8369 -0.1305 1.776e-21)
(0.3333 0.08606 -8.601e-24)
(0.2859 -0.09662 4.862e-22)
(0.7361 -0.106 -3.259e-22)
(0.5941 -0.0551 -1.86e-23)
(0.5024 0.03591 9.155e-25)
(0.4292 -0.1343 0)
(0.9145 0.2696 3.083e-22)
(0.9023 0.2598 -3.054e-22)
(0.00518 -0.001714 0)
(0.5938 -0.05869 -3.108e-21)
(0.2806 -0.06726 8.112e-22)
(0.3646 -0.1663 0)
(0.333 -0.1087 -9.675e-23)
(0.6683 -0.1164 -1.732e-22)
(0.5777 -0.04776 -2.334e-23)
(0.1189 -0.006838 -4.107e-23)
(0.9292 -0.07719 3.621e-21)
(0.6872 -0.0675 0)
(0.9516 0.01647 -3.576e-22)
(1.008 -0.003914 -2.163e-20)
(0.6306 -0.1611 6.006e-22)
(1.006 -0.004444 2.154e-20)
(0.8733 -0.08134 0)
(0.9941 -0.01343 -3.798e-21)
(0.9532 0.01991 -6.716e-22)
(0.6083 -0.2263 -4.343e-21)
(0.4397 -0.1257 -1.513e-22)
(0.6713 -0.04886 1.395e-22)
(1.003 0.002095 -6.66e-20)
(0.5635 -0.05265 0)
(0.8804 -0.2695 -1.003e-21)
(0.9633 0.07596 4.799e-22)
(0.6579 -0.05125 0)
(0.6606 -0.05126 3.732e-23)
(0.9911 0.0008524 0)
(0.5403 -0.04377 0)
(0.3316 -0.003506 -1.04e-21)
(0.4053 -0.07444 -9.11e-22)
(0.9964 -0.01198 -2.065e-21)
(1.009 0.01167 -5.515e-22)
(0.3323 0.007972 1.283e-21)
(0.9839 0.06026 1.54e-21)
(0.3268 -0.1033 0)
(0.6406 -0.1648 -1.152e-21)
(1.001 0.001818 0)
(0.3556 -0.161 3.141e-23)
(0.3072 0.1368 1.99e-23)
(0.3606 -0.08559 7.574e-22)
(0.4554 -0.01524 0)
(0.3284 -0.1095 2.792e-22)
(0.3311 -0.1048 0)
(0.6238 -0.06258 -1.404e-23)
(0.3513 0.02758 5.525e-22)
(0.8806 -0.269 0)
(0.8684 0.4562 0)
(0.9991 -0.04206 0)
(0.7805 -0.1055 0)
(0.8816 0.4562 0)
(0.5118 -0.1215 -8.883e-22)
(0.5009 -0.1008 0)
(0.8228 -0.002689 2.981e-21)
(0.9159 0.2646 -5.202e-22)
(0.4575 -0.03456 0)
(0.3864 -0.1134 2.627e-22)
(0.962 0.07825 0)
(1.001 0.001783 0)
(0.6771 -0.1187 0)
(0.6207 0.5462 3.13e-22)
(0.7978 -0.09801 0)
(0.3337 -0.1056 -1.267e-22)
(0.3834 -0.1129 3.735e-22)
(0.7307 -0.1142 3.772e-22)
(0.9908 0.0008326 0)
(0.7787 -0.3422 0)
(1.016 -0.001613 5.685e-20)
(0.2892 -0.3325 -6.913e-22)
(0.352 0.02424 1.057e-21)
(0.5112 -0.113 -8.177e-22)
(0.2832 0.108 0)
(0.9833 0.02005 6.757e-21)
(0.8554 -0.1509 4.662e-23)
(0.9539 0.05654 -1.328e-21)
(1.009 0.01197 1.904e-20)
(0.9851 0.05985 -1.149e-21)
(0.002273 0.007603 0)
(1.016 -0.001898 -8.197e-20)
(0.3534 -0.08957 -1.766e-22)
(0.7911 -0.2898 0)
(0.917 -0.1027 -4.041e-23)
(0.3691 -0.1633 6.972e-22)
(0.3097 -0.04049 2.055e-21)
(0.4367 -0.1219 0)
(1.015 0.02182 3.889e-21)
(0.7292 -0.05715 -1.016e-22)
(0.6299 -0.1808 -9.614e-22)
(0.3595 -0.1055 0)
(0.4629 -0.1061 -4.278e-22)
(0.7048 -0.06489 -8.977e-23)
(0.3277 -0.1033 0)
(0.001043 0.005501 -5.391e-23)
(0.3618 -0.1062 -1.725e-22)
(0.8912 -0.06836 0)
(0.5456 -0.1234 2.306e-22)
(0.4036 -0.2297 -4.976e-21)
(0.9429 -0.03643 4.492e-22)
(0.9211 -0.2158 2.093e-21)
(0.9546 0.04463 4.612e-21)
(0.6693 -0.08406 2.443e-23)
(0.6278 -0.1199 -5.78e-22)
(0.6885 -0.06706 -4.122e-23)
(0.9786 0.2601 1.547e-24)
(0.01366 -0.03207 2.728e-21)
(1.003 0.001765 5.61e-20)
(0.4592 -0.1052 3.755e-22)
(0.6233 0.5092 2.276e-22)
(0.7699 -0.08749 2.188e-23)
(0.7022 -0.1367 0)
(0.7622 -0.09961 1.268e-21)
(0.8338 -0.2061 0)
(0.5036 -0.3947 0)
(0.33 -0.1101 0)
(0.873 -0.08081 -6.213e-23)
(0.6121 -0.2146 0)
(0.3339 -0.1091 -1.802e-22)
(0.4384 -0.03745 7.167e-23)
(0.567 -0.03167 0)
(0.09542 -0.05151 6.971e-21)
(0.9992 -0.04158 9.403e-23)
(0.3595 -0.1057 -4.65e-22)
(0.5019 -0.1291 0)
(0.5838 -0.05552 6.129e-22)
(0.2817 -0.09375 -2.642e-22)
(0.7661 -0.3256 1.165e-21)
(0.7997 0.1707 -1.496e-22)
(0.8925 0.03715 -2.133e-22)
(0.1981 -0.07352 0)
(0.6265 -0.1197 2.704e-22)
(0.852 -0.1575 2.621e-22)
(0.8364 -0.2416 -1.067e-21)
(0.9586 0.0001947 4.839e-20)
(0.2732 -0.1005 8.371e-24)
(0.9602 0.3123 8.076e-24)
(0.7282 -0.05676 -9.89e-23)
(0.5932 -0.06038 0)
(0.9029 -0.03718 2.023e-21)
(0.8367 -0.242 -3.732e-22)
(0.9795 -0.03885 0)
(0.2704 -0.08163 1.316e-22)
(0.2735 -0.1003 -8.561e-24)
(0.6378 -0.1851 1.841e-21)
(0.4428 -0.1263 2.69e-22)
(0.9021 0.1629 2.01e-22)
(0.2973 0.1238 -7.371e-22)
(0.5758 -0.05414 -4.745e-23)
(0.9372 -0.03957 5.09e-21)
(0.6435 -0.07317 3.645e-23)
(0.6288 -0.0805 -2.72e-22)
(0.8976 -0.06595 4.077e-21)
(0.2781 0.3881 -7.738e-22)
(0.0007557 0.005818 9.022e-23)
(0.487 -0.1251 0)
(1.002 3.776e-05 0)
(1.001 -1.731e-05 -5.319e-22)
(0.1446 0.1099 0)
(0.969 0.02599 1.262e-21)
(1.018 0.03105 -1.003e-21)
(0.8806 -0.01332 6.789e-21)
(0.7615 -0.04272 -4.712e-21)
(0.2894 -0.0977 -2.31e-22)
(0.0001441 0.0003633 1.298e-24)
(0.6496 -0.03568 1.667e-22)
(0.9625 -0.1554 9.102e-22)
(0.8096 -0.1449 -7.953e-23)
(0.6572 -0.05639 7.211e-21)
(0.9836 0.01934 -3.634e-21)
(0.7902 -0.1077 8.886e-22)
(0.3114 -0.1089 1.913e-22)
(0.9878 -0.02732 3.489e-21)
(0.8069 0.172 -1.542e-22)
(0.3438 -0.1013 -3.724e-24)
(0.1709 0.02509 0)
(0.15 -0.05399 -3.216e-22)
(0.821 -0.1615 5.844e-22)
(0.4583 -0.1138 -5.681e-22)
(0.9636 -0.154 2.007e-22)
(0.9612 0.3115 1.568e-23)
(0.9998 0.01302 -3.81e-20)
(0.6977 -0.1358 -1.851e-22)
(0.7072 -0.06258 3.897e-23)
(0.4182 -0.03639 0)
(0.1905 -0.06996 0)
(0.5578 -0.1438 -1.203e-21)
(0.7421 -0.1045 3.468e-22)
(0.2202 -0.07879 2.597e-22)
(0.4029 -0.117 4.32e-22)
(0.511 -0.1201 5.512e-22)
(0.9823 -0.04161 -4.334e-22)
(0.4086 -0.07755 1.86e-21)
(0.005811 -0.01424 0)
(0.5116 -0.1201 0)
(0.9594 -0.1089 -2.514e-22)
(0.3596 -0.1058 2.196e-22)
(0.01178 -0.001773 2.198e-23)
(1.019 0.03055 9.15e-22)
(0.6442 -0.07097 2.009e-22)
(0.6316 -0.08035 2.51e-22)
(0.6446 -0.04234 -8.67e-22)
(0.2949 -0.1063 -7.116e-23)
(0.6217 -0.2181 -1.237e-24)
(0.7576 -0.04942 0)
(0.002032 0.008004 -3.023e-26)
(0.7401 -0.1476 7.276e-22)
(0.3002 -0.006137 0)
(0.02515 -0.006794 7.833e-22)
(0.9878 0.001889 -1.8e-20)
(0.9913 0.1982 -6.921e-23)
(0.3904 -0.04281 -1.47e-22)
(0.8304 -0.1948 0)
(0.5741 -0.1201 0)
(0.6921 -0.1667 8.013e-22)
(0.7881 -0.3369 0)
(1.015 0.0211 -3.569e-21)
(0.8669 0.2362 0)
(0.8602 -0.2215 0)
(0.8092 0.1092 6.606e-22)
(0.5135 -0.1261 -4.405e-22)
(0.9908 -0.07007 -9.201e-22)
(0.7875 -0.1032 3.124e-23)
(0.9538 0.04339 -3.924e-21)
(0.7788 -0.04405 0)
(0.6159 -0.04962 -2.866e-22)
(0.2807 -0.08864 6.477e-22)
(0.4762 -0.395 0)
(0.6734 -0.3161 2.843e-21)
(0.8698 -0.007186 -1.99e-22)
(0.5269 -0.09615 0)
(0.9574 -0.0002891 -5.555e-20)
(0.343 -0.1131 -1.615e-22)
(0.6422 -0.07146 -2.152e-22)
(0.7045 -0.04644 2.025e-22)
(0.6461 -0.07268 -1.745e-22)
(0.5124 -0.1135 0)
(0.6798 -0.1061 -6.388e-22)
(0.9338 -0.002692 3.355e-21)
(0.8584 -0.2576 5.664e-22)
(0.9779 -0.003122 -9.743e-21)
(0.8046 0.0005858 1.432e-22)
(0.8014 -0.09831 1.444e-25)
(0.9854 0.001002 0)
(0.998 0.02738 -4.54e-21)
(0.002784 0.006477 -1.305e-23)
(0.3952 -0.1095 0)
(0.9831 0.02215 3.326e-21)
(0.6514 -0.09056 -3.688e-22)
(0.8971 -0.03878 4.701e-21)
(0.7661 -0.09964 -1.547e-21)
(0.9177 -0.2056 0)
(0.9604 -0.1107 2.504e-22)
(0.8555 -0.1723 0)
(0.996 -0.03798 -2.545e-21)
(0.7696 -0.3487 -3.431e-23)
(0.5146 -0.04357 7.912e-23)
(0.2369 -0.002168 -1.107e-22)
(0.2947 -0.1064 2.688e-22)
(0.874 -0.006234 1.181e-22)
(0.4904 -0.05332 3.899e-23)
(0.8989 -0.2438 -1.721e-22)
(0.8362 -0.2918 -9.795e-22)
(0.8592 -0.1519 -5.296e-22)
(0.4051 -0.0312 0)
(0.6459 -0.3954 4.227e-24)
(0.8114 -0.1455 -2.79e-23)
(0.9867 -0.02783 0)
(0.5689 -0.1311 -8.049e-24)
(0.7351 -0.08037 2.121e-23)
(0.718 -0.1101 3.105e-22)
(0.1626 -0.04575 -3.508e-23)
(0.6153 -0.149 0)
(0.9797 -0.003076 -4.804e-21)
(0.977 0.0007893 -8.201e-21)
(0.9461 0.316 -7.29e-24)
(0.7183 -0.104 1.753e-22)
(0.4758 -0.04987 -4.03e-23)
(0.8587 -0.07703 1.374e-21)
(0.8455 -0.01549 1.286e-20)
(0.9374 -0.1929 0)
(0.5343 -0.03696 -2.053e-22)
(0.9956 0.01375 1.019e-21)
(0.8297 -0.1942 2.587e-22)
(0.945 0.3144 0)
(0.7233 -0.08388 -2.513e-22)
(0.8618 -0.08042 2.771e-21)
(0.3709 0.03549 -1.175e-23)
(0.5672 0.08462 2.183e-22)
(0.9344 0.3597 -2.289e-22)
(0.4016 -0.12 0)
(0.9988 0.02725 4.244e-21)
(0.8412 -0.1305 -5.259e-21)
(1.002 2.869e-05 0)
(1.001 -1.331e-05 0)
(0.8315 -0.2012 0)
(0.785 -0.3389 -1.691e-22)
(0.8538 -0.1584 2.666e-22)
(0.4009 -0.1198 -1.915e-22)
(0.4006 -0.1081 -1.34e-21)
(0.9445 -0.03559 -1.848e-21)
(0.8203 -0.1613 0)
(0.6901 -0.06527 3.646e-23)
(0.65 -0.07228 2.747e-23)
(0.3578 -0.2018 7.255e-24)
(0.6493 -0.09044 2.646e-22)
(0.4027 -0.09674 -4.602e-22)
(0.5273 -0.1053 2.789e-22)
(0.5185 -0.06205 1.88e-22)
(0.7491 -0.04554 0)
(0.5246 -0.05991 -1.134e-22)
(0.4835 -0.1413 6.235e-22)
(0.2735 -0.102 -1.447e-22)
(0.6478 -0.07261 1.236e-22)
(0.8722 0.02896 0)
(0.404 -0.09889 -1.044e-21)
(0.572 -0.1199 -3.287e-22)
(0.9882 0.2336 -1.981e-23)
(0.9552 -0.01857 4.095e-21)
(0.5547 0.08978 0)
(0.3541 -0.1179 -2.871e-22)
(0.6792 -0.04927 3.998e-23)
(0.604 -0.1385 -2.013e-21)
(0.585 -0.0417 0)
(0.581 -0.04958 -6.475e-23)
(1.004 0.007938 -4.268e-22)
(0.9698 0.02547 -3.878e-21)
(0.8912 -0.005243 0)
(0.4032 -0.07601 3.992e-22)
(0.9364 -0.001536 0)
(0.5293 -0.2607 4.42e-21)
(0.995 0.01144 -2.317e-21)
(0.4352 -0.04722 1.149e-22)
(0.5745 -0.04344 1.258e-22)
(0.945 -0.03712 0)
(0.929 -0.03515 -1.382e-22)
(0.5416 -0.05166 2.747e-23)
(0.04727 -0.04222 9.841e-26)
(0.3785 -0.1129 -7.257e-22)
(0.9302 -0.004978 3.076e-21)
(0.6444 -0.131 -2.789e-21)
(0.3472 -0.04606 -1.808e-21)
(0.5439 -0.06908 0)
(0.8975 -0.2453 -9.983e-22)
(0.9549 0.05586 0)
(0.1853 -0.0118 0)
(0.8902 0.09395 0)
(0.5101 0.03579 0)
(0.4854 -0.1246 -1.297e-22)
(0.6768 -0.1239 -1.318e-21)
(1.011 -0.004196 -7.128e-21)
(0.8056 -0.2802 0)
(0.2095 -0.07593 2.549e-22)
(0.6939 -0.1754 8.423e-22)
(0.5725 -0.05298 1.098e-22)
(0.507 -0.03609 1.424e-22)
(0.8094 -0.2805 -9.108e-22)
(0.5598 -0.02544 0)
(0.8714 0.02655 0)
(0.9902 -0.06991 0)
(0.367 -0.02927 -1.392e-22)
(0.9999 0.0125 1.635e-20)
(0.542 -0.1191 0)
(0.2727 -0.08219 0)
(0.8935 0.095 0)
(0.7611 -0.09498 -8.875e-23)
(0.3397 -0.107 -7.334e-22)
(0.7042 -0.06881 5.694e-23)
(0.9998 0.001166 -1.393e-19)
(0.6028 -0.06163 0)
(0.7651 -0.3418 0)
(0.5357 -0.07539 9.18e-22)
(0.9219 -0.2149 -2.114e-21)
(0.3457 -0.1112 0)
(0.7967 -0.292 0)
(0.5046 -0.1012 -3.616e-22)
(0.4238 -0.1154 -6.262e-22)
(0.4903 -0.09127 0)
(0.7966 -0.07401 2.201e-22)
(0.7166 -0.2885 -5.756e-22)
(0.2837 -0.09451 0)
(0.1129 -0.03921 -1.437e-21)
(0.3421 -0.09937 0)
(0.9898 0.002203 6.002e-21)
(0.4007 -0.1165 -5.378e-22)
(0.8402 0.1408 -5.141e-22)
(0.901 0.2517 -1.168e-24)
(0.9026 -0.2177 -1.279e-21)
(0.6579 -0.04536 7.781e-22)
(0.9468 -0.1753 -6.994e-22)
(1.011 6.361e-05 0)
(0.3377 -0.0991 0)
(0.2698 -0.1004 0)
(0.731 -0.1224 5.034e-21)
(0.8882 -0.0008774 3.054e-23)
(1.005 0.007921 1.235e-20)
(0.7836 -0.1223 -2.309e-22)
(0.4261 -0.09648 -7.623e-22)
(0.9308 -0.0759 -1.918e-21)
(0.9951 -0.03727 0)
(0.9996 -0.00785 -4.382e-21)
(0.5869 -0.04861 3.947e-23)
(0.8824 -0.07237 -2.271e-21)
(0.7834 -0.3395 1.829e-22)
(0.9161 0.03492 0)
(0.4685 -0.03597 -1.073e-23)
(0.9706 -0.001959 1.108e-20)
(0.5678 -0.3977 0)
(0.8874 -0.006481 -2.73e-21)
(0.3117 -0.1078 1.772e-22)
(0.4664 -0.1201 0)
(0.5678 -0.07118 -4.168e-24)
(0.7689 -0.09586 1.941e-22)
(0.4137 -0.07094 2.461e-21)
(0.8179 0.02998 8.172e-23)
(0.2903 -0.09843 -9.046e-23)
(0.4911 -0.05819 9.366e-23)
(0.6941 -0.03899 0)
(0.3024 -0.1008 0)
(0.8223 -0.07138 2.808e-22)
(0.7108 -0.06559 3.753e-23)
(0.757 -0.05202 1.378e-22)
(0.6201 -0.1279 0)
(0.3481 0.1077 -3.667e-21)
(0.7523 -0.05293 5.849e-25)
(0.9655 0.001254 0)
(0.9869 0.05131 0)
(0.598 -0.1083 0)
(0.3646 -0.09624 5.354e-22)
(1.008 -0.0003033 0)
(0.4049 -0.1164 3.388e-22)
(0.8127 -0.09517 9.062e-22)
(0.9179 -0.1018 6.323e-23)
(0.7224 -0.104 -5.594e-23)
(0.9687 -0.1418 1.164e-21)
(1.017 0.001311 0)
(0.4441 -0.3739 -2.531e-21)
(0.8206 -0.0927 -8.252e-22)
(0.2123 -0.07446 -1.949e-22)
(0.7148 -0.05901 6.771e-24)
(0.3325 -0.1771 5.052e-22)
(0.5605 -0.4002 -5.157e-22)
(0.5606 -0.07637 1.447e-22)
(0.6156 -0.1477 0)
(0.7709 -0.3428 0)
(0.8887 0.0003798 -3.055e-23)
(0.7261 -0.06074 -5.855e-24)
(1.024 0.01937 1.302e-22)
(0.4652 -0.039 -1.346e-22)
(0.9334 0.008789 4.213e-21)
(0.9529 0.3224 -3.044e-24)
(0.6327 -0.06379 1.251e-23)
(0.6913 -0.06903 0)
(0.9821 0.2481 6.838e-24)
(0.0002132 0.0003811 0)
(0.3438 -0.1032 5.763e-22)
(0.3562 -0.03047 4.974e-22)
(0.9426 -0.06524 -3.549e-23)
(0.788 0.4197 -8.833e-22)
(0.9866 -0.01824 -2.806e-20)
(0.3277 -0.1822 0)
(0.9878 0.0517 -4.528e-24)
(0.2841 -0.1026 0)
(0.4926 -0.1257 -4.759e-22)
(0.0005603 0.00333 0)
(0.01983 0.04679 7.912e-23)
(0.01911 -0.006521 -2.029e-23)
(1.004 -0.001316 -4.714e-20)
(0.4066 -0.0998 0)
(0.9004 0.03379 0)
(0.9777 0.001318 1.766e-20)
(0.3728 -0.12 4.205e-22)
(0.7805 -0.2866 1.255e-21)
(0.3165 -0.09941 4.549e-22)
(0.8154 -0.1242 0)
(0.4641 -0.1197 0)
(0.564 -0.07011 1.373e-22)
(0.4057 -0.117 -3.484e-22)
(0.2262 -0.04373 3.759e-22)
(0.9691 0.001947 0)
(0.3057 -0.0882 -2.492e-22)
(0.0295 -0.01067 0)
(0.6996 -0.2868 3.678e-22)
(0.49 -0.04843 2.06e-23)
(0.2039 -0.07533 1.213e-22)
(1.001 -0.009826 -2.624e-21)
(0.7736 -0.08735 2.823e-23)
(0.7682 -0.04434 -8.993e-22)
(0.6254 -0.1281 5.197e-22)
(0.9868 -0.009121 0)
(0.4385 -0.03585 0)
(0.6657 0.2914 0)
(0.2094 -0.07496 -3.8e-22)
(1.003 -9.022e-05 0)
(0.5972 -0.108 -2.527e-22)
(0.9528 -0.1316 3.475e-22)
(0.1829 -0.06967 4.958e-25)
(0.7561 -0.3536 2.319e-22)
(0.7456 0.1951 2.34e-23)
(0.6012 -0.1289 -2.181e-22)
(0.9296 -0.00542 2.75e-22)
(0.2415 -0.08309 -1.573e-22)
(0.8095 -0.3106 -5.647e-22)
(1.008 -0.0002568 -4.706e-21)
(0.8979 -0.2445 1.328e-21)
(0.802 -0.0777 -1.531e-21)
(0.5272 -0.04518 -6.765e-23)
(0.5895 -0.04164 9.929e-23)
(0.3563 -0.09419 -5.889e-22)
(0.2261 -0.07499 1.678e-22)
(0.4879 -0.1251 2.318e-22)
(0.8668 -0.009187 0)
(0.7332 -0.2892 4.491e-22)
(0.3056 -0.09866 0)
(0.3415 -0.09996 1.391e-23)
(1.023 0.01161 -4.797e-22)
(0.5211 0.03162 1.093e-22)
(0.397 -0.1106 -2.491e-22)
(0.533 -0.07964 -9.491e-22)
(0.7049 -0.07757 2.306e-23)
(0.3029 -0.1074 2.552e-22)
(0.9997 0.002709 0)
(0.9991 0.003258 3.122e-20)
(0.8149 0.1065 -1.111e-21)
(0.3989 -0.09559 -2.329e-22)
(0.7631 0.4395 0)
(0.9736 0.002708 -8.575e-21)
(1.005 0.001532 -7.342e-21)
(0.8245 -0.3074 0)
(0.6575 -0.2859 0)
(0.3349 -0.1063 2.455e-22)
(0.7701 -0.3431 0)
(0.1959 -0.0658 8.051e-22)
(0.1445 -0.04702 0)
(0.8743 -0.2017 -2.527e-22)
(0.9866 0.05787 0)
(1.01 -0.000518 -2.229e-21)
(0.2067 -0.07388 3.386e-22)
(0.4114 -0.116 -2.52e-22)
(0.8066 -0.1875 7.704e-22)
(0.9922 0.002236 3.546e-20)
(0.3297 -0.005834 5.813e-22)
(0.7159 -0.07359 0)
(0.3942 -0.1063 4.756e-22)
(0.9312 -0.004879 -6.62e-21)
(0.4363 -0.05365 -5.716e-23)
(0.9733 0.001857 1.358e-20)
(0.3434 -0.108 -1.146e-22)
(0.2878 -0.06414 0)
(0.652 -0.1267 2.711e-23)
(0.9978 -0.0004602 -7.759e-21)
(0.2585 -0.08448 -6.029e-22)
(0.5147 -0.1267 -1.1e-22)
(0.1605 -0.09821 -8.61e-21)
(1.017 0.001218 -6.829e-21)
(0.736 -0.1156 -3.567e-22)
(0.152 -0.05455 1.458e-22)
(1 -0.008125 0)
(0.7625 -0.09531 0)
(0.9756 0.01685 -2.806e-22)
(0.6197 -0.04385 7.899e-23)
(0.7156 -0.07345 0)
(0.9858 0.000563 1.454e-20)
(0.369 -0.09123 1.575e-21)
(0.5989 -0.0811 -1.653e-22)
(0.1695 -0.002159 0)
(0.5776 -0.0793 -4.259e-22)
(0.6826 -0.08561 -4.731e-23)
(0.5342 -0.06074 3.078e-22)
(0.549 -0.06764 1.871e-22)
(0.3902 -0.3188 -2.338e-21)
(0.6026 -0.0563 -2.184e-23)
(0.8819 0.4556 -6.007e-23)
(0.6384 0.01805 -2.051e-22)
(0.2689 -0.09882 -1.42e-22)
(0.7473 -0.05421 -4.775e-23)
(0.4428 -0.04016 5.028e-23)
(0.9963 0.002193 0)
(0.6217 -0.1298 -9.69e-22)
(0.9816 0.0009461 -4.319e-21)
(0.3644 -0.1829 -1.31e-21)
(1.01 0.03936 1.406e-21)
(0.6723 -0.08476 3.44e-22)
(1.012 0.0001243 0)
(0.9827 0.0216 7.367e-21)
(0.8639 -0.07884 2.719e-22)
(0.7192 -0.2905 2.899e-22)
(0.4926 -0.1176 3.802e-22)
(1.009 0.00214 2.839e-20)
(1.017 -0.002437 3.02e-21)
(0.2245 -0.08012 -2.461e-22)
(0.5442 0.06648 0)
(0.3823 -0.09039 6.134e-22)
(0.475 -0.04125 -1.75e-22)
(0.3606 -0.1263 0)
(0.7835 -0.3394 -1.877e-22)
(0.4632 -0.1201 -5.763e-23)
(0.7638 -0.3415 0)
(0.6512 -0.07201 -3.885e-24)
(0.3226 -0.09567 -1.625e-21)
(0.566 -0.04562 0)
(1.008 0.002204 -3.835e-21)
(0.7407 -0.03375 4.323e-22)
(0.6496 -0.07062 1.488e-23)
(0.8859 -0.1593 1.454e-22)
(0.8338 -0.07858 0)
(0.9997 -0.03547 -4.342e-21)
(1.005 0.00144 7.835e-22)
(0.7295 -0.08363 -2.446e-22)
(0.451 -0.2547 1.508e-24)
(0.7259 -0.06079 3.072e-23)
(0.08925 -0.02884 4.362e-22)
(1.01 0.04069 0)
(1.002 0.0009538 -9.543e-23)
(0.3256 -0.1001 0)
(0.6546 -0.06187 0)
(0.8828 -0.01255 -5.359e-21)
(0.5408 -0.06694 -3.214e-22)
(0.9377 -0.1683 0)
(0.8883 -0.004103 7.3e-21)
(0.2882 -0.08733 9.077e-22)
(0.8593 -0.2095 -1.935e-22)
(0.6523 -0.07038 9.426e-23)
(0.8414 -0.2316 -3.324e-21)
(0.005299 -0.001631 0)
(0.1954 -0.07165 0)
(0.3037 -0.1011 -7.456e-23)
(0.2897 -0.09884 1.616e-22)
(0.3956 -0.1091 0)
(0.5758 -0.07602 3.185e-22)
(0.4647 -0.06095 1.013e-22)
(0.5279 -0.07588 0)
(0.9201 -0.06046 -8.827e-22)
(0.7109 -0.06311 3.771e-22)
(0.2303 -0.07751 0)
(0.5438 -0.1191 -4.687e-22)
(1.017 -0.001082 -7.622e-21)
(0.688 -0.1075 4.811e-22)
(0.8719 -0.2735 0)
(0.6125 -0.1416 -1.4e-21)
(1.003 -0.0001143 2.218e-21)
(1.018 -0.001259 8.369e-21)
(0.05831 0.1138 0)
(0.9407 -0.0628 -7.577e-23)
(0.6413 -0.1195 -8.27e-22)
(0.612 -0.07877 -1.594e-23)
(0.6683 -0.3816 0)
(0.5689 -0.1315 1.033e-21)
(0.9456 0.04149 0)
(0.4423 -0.036 9.369e-23)
(0.6986 -0.1124 2.45e-21)
(0.696 -0.1839 0)
(1.024 0.01828 -1.326e-22)
(1.02 0.0001474 0)
(0.9901 0.218 0)
(0.8462 0.1408 0)
(0.4171 -0.07979 8.664e-23)
(0.6188 -0.1481 0)
(0.5511 -0.2287 2.601e-21)
(0.3704 -0.1253 0)
(0.6878 -0.2864 -7.926e-22)
(0.7981 -0.1057 5.279e-21)
(0.6118 -0.138 2.844e-21)
(0.9957 -0.0003174 1.147e-21)
(0.5077 -0.02864 -6.628e-23)
(0.97 -0.1408 1.346e-22)
(0.6773 -0.1566 -7.17e-22)
(0.001713 0.007529 1.25e-23)
(0.7695 -0.1213 -1.08e-22)
(0.7844 -0.04177 -2.4e-22)
(0.3814 -0.1136 7.404e-22)
(0.9972 -0.0004858 8.595e-21)
(0.6908 -0.0758 -9.83e-25)
(0.5824 -0.05144 -7.637e-23)
(0.09032 -0.03109 0)
(0.4895 -0.1289 8.341e-22)
(0.6089 -0.1264 3.903e-22)
(0.6509 -0.07183 -6.071e-23)
(0.6508 0.5237 0)
(0.4224 -0.1151 5.865e-22)
(0.657 -0.354 1.161e-21)
(0.4246 -0.1342 -2.481e-22)
(0.7095 -0.1718 1.777e-22)
(0.6774 -0.07389 -2.656e-23)
(0.7392 -0.08095 -6.941e-24)
(0.439 -0.1224 3.803e-22)
(0.9127 -0.1871 6.157e-22)
(0.006343 -0.0003562 0)
(0.8707 -0.2749 0)
(0.8933 0.03451 1.81e-21)
(0.7769 -0.1747 -2.259e-22)
(0.7502 -0.3256 5.172e-22)
(0.6383 -0.06719 1.835e-24)
(1.021 0.006961 0)
(0.2545 -0.08059 -9.756e-23)
(0.4876 -0.1411 -1.243e-21)
(0.3357 -0.1064 -2.271e-22)
(1.001 0.0009108 -4.982e-22)
(0.08701 -0.03324 0)
(0.3459 -0.1008 0)
(0.4378 -0.05459 -5.178e-22)
(0.993 -0.0004442 -4.639e-21)
(0.5199 -0.07613 3.926e-22)
(0.2693 -0.09722 0)
(0.4682 -0.08861 7.068e-22)
(0.6626 -0.07091 -2.113e-22)
(0.9939 -0.0004871 4.378e-21)
(0.3574 -0.1109 -4.198e-22)
(0.2113 -0.0806 0)
(0.3363 -0.09258 1.204e-21)
(0.5756 -0.1187 0)
(0.966 0.02728 -1.129e-21)
(0.6915 -0.06481 3.174e-23)
(0.2502 -0.2499 0)
(1.026 0.02348 -7.923e-22)
(0.8148 -0.1536 4.017e-22)
(0.8891 -0.198 0)
(0.5797 -0.07531 -3.031e-22)
(0.3443 -0.103 0)
(0.8998 -0.2436 -5.155e-22)
(0.7668 -0.1208 0)
(0.3624 -0.04623 -1.828e-22)
(0.2875 -0.09015 0)
(1.003 -0.0001954 -4.649e-21)
(0.3562 -0.1107 3.935e-22)
(0.4073 -0.1249 8.152e-23)
(0.3538 -0.02702 0)
(0.5534 -0.07942 -5.978e-22)
(0.9454 0.004802 0)
(0.3745 -0.1204 0)
(0.231 -0.07599 3.834e-23)
(1.003 -0.000133 4.098e-21)
(0.319 -0.1003 -4.462e-22)
(0.289 -0.08689 0)
(0.7077 -0.06198 0)
(0.009486 -0.01941 -1.375e-23)
(0.7101 -0.06129 -2.816e-23)
(0.2104 -0.07597 5.655e-22)
(0.553 -0.1096 -8.824e-23)
(0.2982 -0.1089 0)
(0.8713 -0.2064 0)
(1.004 -0.001132 2.319e-20)
(0.003223 -0.001232 -7.38e-24)
(0.3798 -0.1085 5.42e-22)
(0.5812 -0.08003 3.984e-22)
(0.1808 -0.06434 3.044e-22)
(0.3159 -0.1038 -5.117e-22)
(0.252 -0.08485 5.429e-22)
(0.3034 -0.09545 -1.84e-22)
(0.5515 -0.04486 0)
(1.01 -0.0005665 0)
(0.4823 -0.1425 0)
(0.7994 -0.1034 -8.432e-24)
(0.9951 -0.0002453 0)
(0.307 -0.0948 -6.986e-22)
(0.9537 0.3214 0)
(0.7233 -0.1103 -2.845e-22)
(0.7968 -0.283 -3.893e-22)
(1.013 0.0004617 -1.503e-20)
(0.4661 -0.1207 0)
(0.2711 -0.1006 0)
(1.024 0.0191 -4.252e-23)
(1.014 0.0004896 0)
(0.8306 -0.08026 0)
(0.4314 -0.1251 5.962e-22)
(0.3607 -0.1265 -3.811e-22)
(0.2491 -0.08517 2.625e-22)
(0.342 -0.1079 3.434e-22)
(0.2443 0.01745 8.486e-24)
(0.7916 -0.1087 0)
(0.7467 -0.2593 -2.09e-21)
(1.018 -0.001015 0)
(0.3569 -0.108 -2.944e-22)
(0.2841 -0.09498 0)
(0.5297 -0.03335 -1.536e-22)
(0.4288 -0.03442 0)
(0.7663 -0.3225 -1.081e-21)
(0.991 0.002605 0)
(1.004 -0.008668 6.431e-22)
(0.8312 -0.001322 -1.003e-20)
(0.3272 0.002262 6.112e-22)
(1.018 -0.0008976 -9.124e-22)
(0.8002 -0.1067 -2.785e-21)
(0.4849 -0.2952 6.465e-22)
(0.7121 -0.0916 -1.732e-22)
(0.3851 -0.05939 1.097e-21)
(0.9821 -0.006493 0)
(0.2942 -0.1053 -2.946e-22)
(0.703 -0.08592 8.993e-23)
(0.9979 0.01502 0)
(0.5226 -0.06202 -1.504e-22)
(1.006 -0.0002346 0)
(0.7045 -0.3609 1.376e-21)
(0.163 -0.229 -2.989e-21)
(0.59 -0.07867 -1.01e-23)
(0.785 -0.03634 0)
(0.466 0.03434 1.929e-22)
(0.9984 -0.04333 2.828e-22)
(0.3455 -0.09184 0)
(0.8409 -0.2432 -9.398e-22)
(0.4449 -0.03516 0)
(0.2139 -0.0754 -1.481e-22)
(0.4795 -0.06204 -1.876e-22)
(0.4023 0.536 1.555e-21)
(0.9475 0.008876 -3.71e-22)
(0.8918 -0.1807 -4.664e-22)
(0.8153 -0.3215 6.638e-24)
(0.1355 -0.01024 0)
(0.9939 0.01678 0)
(0.7376 -0.1119 1.04e-21)
(0.6611 -0.2133 0)
(0.8751 0.1587 1.129e-23)
(0.2299 -0.07872 4.994e-23)
(0.2554 -0.04338 0)
(0.9933 0.002623 0)
(0.7482 -0.1037 3.533e-21)
(0.2062 -0.0729 -1.631e-22)
(0.3765 -0.08836 -5.396e-21)
(0.1801 -0.00479 3.253e-21)
(0.9281 0.07795 0)
(0.03433 -0.03492 -1.108e-21)
(0.8832 0.1048 -5.182e-23)
(0.1316 0.01196 5.67e-22)
(0.4452 -0.1091 -3.43e-22)
(0.1873 -0.06627 5.408e-22)
(0.4869 -0.1424 5.324e-22)
(0.1764 -0.01295 2.793e-22)
(0.973 0.06004 3.577e-22)
(0.704 -0.1029 0)
(1.006 0.0009849 0)
(0.9981 -0.0004322 0)
(0.6479 -0.09037 2.266e-22)
(0.9966 0.05125 6.356e-23)
(0.638 -0.07923 2.03e-22)
(0.4788 -0.05178 -2.098e-21)
(0.2902 0.08655 0)
(0.8363 -0.09065 2.995e-23)
(0.9251 -0.04935 -3.047e-21)
(0.932 0.3284 -5.322e-23)
(0.7708 -0.1763 5.899e-22)
(1.012 -0.004013 5.212e-21)
(0.5569 -0.1424 4.454e-23)
(0.3008 -0.09822 -1.116e-22)
(0.9306 -0.0468 3.766e-21)
(0.3752 -0.08714 -1.803e-21)
(0.04532 -0.01596 -8.555e-22)
(0.3216 -0.02791 0)
(0.8298 -0.1735 0)
(0.3011 -0.3383 -2.187e-21)
(0.6445 -0.1221 0)
(0.237 -0.08112 0)
(0.9893 -0.01198 1.249e-20)
(0.6948 -0.06792 9.342e-23)
(0.6817 -0.1559 7.441e-22)
(0.959 -0.01872 0)
(0.3712 -0.09254 6.662e-22)
(0.3909 -0.1102 0)
(0.4578 -0.1273 -2.758e-22)
(1.008 -0.0003781 -4.45e-21)
(0.8564 -0.007645 -3.99e-21)
(0.6007 -0.139 0)
(0.196 0.01773 1.639e-23)
(0.8415 -0.2911 -6.634e-22)
(0.04538 -0.01476 0)
(0.4252 -0.1181 3.588e-22)
(0.7614 -0.3371 0)
(0.784 -0.1736 -1.083e-22)
(0.1371 -0.05034 0)
(0.6774 -0.04884 1.47e-22)
(0.9993 -0.000484 -3.342e-21)
(0.4169 -0.2454 0)
(0.9671 0.1706 -2.077e-23)
(1.007 0.001019 0)
(0.7986 -0.3298 1.202e-23)
(0.03918 -0.01385 8.821e-23)
(0.6624 -0.126 -3.381e-22)
(0.7937 0.04415 -4.082e-22)
(0.769 -0.02812 3.117e-22)
(0.8411 -0.141 -9.939e-23)
(0.1109 -0.04031 -2.397e-25)
(0.06347 -0.006511 -6.976e-23)
(0.5741 -0.0603 0)
(0.9862 0.05737 9.004e-22)
(0.9918 0.004422 5.693e-21)
(0.8256 -0.1634 0)
(0.757 -0.3567 -1.616e-22)
(0.2908 -0.09416 -7.061e-22)
(0.3854 -0.09002 0)
(0.2641 0.2397 -1.734e-21)
(0.5064 -0.2142 -1.642e-21)
(0.5295 0.02698 -1.122e-23)
(0.9689 0.04197 -5.311e-22)
(0.5022 -0.2104 -1.611e-21)
(0.9349 -0.04169 1.979e-21)
(0.4134 -0.03285 0)
(1.019 0.008566 0)
(0.3354 -0.1083 4.425e-23)
(0.1373 0.008303 -1.133e-23)
(0.6155 -0.1137 -7.255e-22)
(0.3673 -0.1034 0)
(0.4078 -0.1155 0)
(0.9895 -0.00147 -1.26e-20)
(0.9554 -0.01382 2.862e-21)
(0.1926 -0.06778 0)
(0.9125 -0.228 1.776e-21)
(0.2498 -0.08672 0)
(0.6173 -0.08164 0)
(0.2255 -0.07892 -4.256e-22)
(0.3419 -0.1163 -3.017e-22)
(0.7466 -0.05984 -2.612e-23)
(0.8468 0.004605 -6.368e-23)
(0.6801 -0.05689 -5.232e-22)
(0.1324 -0.0198 7.171e-22)
(0.6695 -0.06844 -9.514e-23)
(0.4972 -0.03525 1.025e-22)
(0.2951 -0.08706 9.841e-22)
(0.7688 -0.0984 2.091e-22)
(0.3612 -0.1165 6.978e-22)
(0.2945 0.3935 8.156e-22)
(0.2575 -0.08652 -1.519e-23)
(0.1087 -0.01003 7.366e-23)
(0.05417 -0.0192 0)
(0.4035 -0.1149 0)
(1.021 0.006735 0)
(1.022 0.0006899 1.479e-21)
(0.3685 -0.1132 3.088e-22)
(0.2995 -0.103 0)
(0.8788 -0.1585 -1.16e-21)
(1.002 3.4e-05 0)
(0.7499 -0.354 -5.713e-22)
(0.463 -0.1202 2.896e-22)
(0.8565 -0.07061 -2.422e-22)
(0.2385 -0.08089 0)
(0.7422 -0.07982 -5.132e-22)
(0.2926 -0.0903 -7.437e-22)
(0.8776 0.3589 8.802e-22)
(0.9998 0.001127 -1.018e-19)
(0.9114 -0.1833 0)
(0.8468 -0.03784 -4.107e-22)
(0.3642 -0.1418 0)
(0.4096 -0.03116 0)
(0.2677 -0.09774 7.499e-23)
(0.7826 -0.2978 1.341e-21)
(0.7309 -0.1147 1.953e-21)
(0.4252 -0.07561 0)
(0.5665 -0.05066 -2.986e-23)
(0.7155 -0.05844 0)
(0.3869 -0.1272 0)
(0.7449 -0.3465 7.208e-22)
(0.6479 -0.07508 -5.797e-23)
(0.2807 -0.09366 0)
(0.5015 -0.2171 -1.912e-21)
(0.9642 -0.02189 -4.949e-22)
(0.1133 -0.04026 0)
(0.1325 -0.04912 0)
(0.4098 -0.1256 0)
(0.5911 -0.07682 5.718e-22)
(0.2721 -0.3267 -3.341e-21)
(0.9905 0.03359 7.345e-22)
(0.1035 -0.0266 1.674e-21)
(0.1361 -0.02524 0)
(0.9976 -0.002089 0)
(1.003 -0.0001697 4.402e-21)
(0.6865 -0.07073 -3.209e-24)
(0.499 -0.1185 1.215e-21)
(0.03331 -0.01252 -8.68e-23)
(0.219 -0.0559 5.552e-23)
(0.7079 -0.1038 7.536e-23)
(0.6846 -0.2571 0)
(0.2506 -0.08128 -8.673e-22)
(0.9061 -0.1752 0)
(0.8787 -0.1315 0)
(0.9972 -0.04683 -2.335e-21)
(0.2482 -0.08055 -1.488e-21)
(0.3644 -0.05205 0)
(0.2692 -0.08771 -7.052e-22)
(0.8667 -0.1877 0)
(0.1727 -0.06429 1.386e-22)
(0.3135 -0.1015 -5.777e-22)
(0.9843 -0.004732 2.081e-21)
(0.1434 -0.01911 0)
(0.258 -0.09271 -4.103e-22)
(1.007 -0.003638 -4.992e-20)
(0.563 -0.07618 -2.179e-22)
(0.9949 -0.002054 3.12e-20)
(0.9948 -0.01639 1.254e-20)
(0.762 -0.1068 -1.137e-22)
(0.939 -0.1899 0)
(0.1705 -0.02107 -4.719e-21)
(1.009 -0.007604 5.459e-21)
(0.5229 -0.06229 2.129e-23)
(1.005 0.01416 0)
(0.9472 0.3377 0)
(0.9464 -0.1805 -1.392e-21)
(0.5442 -0.144 4.316e-22)
(0.7846 -0.09467 1.007e-22)
(0.6151 -0.1209 1.863e-22)
(0.61 -0.08834 0)
(0.2787 -0.08393 2.079e-21)
(0.7104 -0.08052 -9.365e-23)
(0.9755 0.001527 7.584e-21)
(0.98 -0.04399 1.298e-21)
(0.6224 -0.1126 3.565e-22)
(0.7151 -0.1331 -2.184e-22)
(0.2487 -0.08441 -6.837e-23)
(0.2696 -0.08619 0)
(0.2626 -0.01633 3.114e-25)
(0.2502 -0.08047 -5.243e-22)
(0.07144 -0.02243 -6.585e-21)
(0.572 -0.07956 5.457e-22)
(0.6948 -0.1912 0)
(0.7522 0.01266 -1.065e-21)
(0.5539 -0.05865 2.366e-24)
(0.3636 -0.04932 0)
(0.75 0.1919 5.842e-22)
(0.5054 -0.1439 0)
(0.9281 -0.0201 4.037e-21)
(0.4388 -0.08803 1.88e-21)
(0.2516 -0.09319 1.212e-22)
(0.4809 -0.08003 0)
(0.9912 9.541e-06 -2.934e-21)
(0.561 -0.3816 1.795e-21)
(0.4754 -0.1236 0)
(0.657 -0.0636 6.957e-24)
(0.7854 -0.217 1.929e-22)
(0.6463 -0.07484 -1.824e-23)
(0.8469 -0.1167 2.698e-22)
(0.3572 -0.07812 0)
(0.5392 -0.1284 3.583e-22)
(0.6586 -0.06351 2.014e-23)
(0.2443 -0.08841 -9.058e-24)
(0.6121 -0.1673 -2.077e-21)
(0.212 -0.07414 1.598e-22)
(0.9992 -0.002791 0)
(0.7303 -0.05116 -1.574e-22)
(0.4473 -0.08431 0)
(0.9965 -0.04331 0)
(0.4576 -0.09768 0)
(0.5675 -0.06227 1.331e-22)
(1.001 -1.483e-05 -5.753e-21)
(0.8741 -0.1983 7.308e-22)
(0.2415 -0.09063 0)
(0.9913 -0.08085 0)
(0.7625 0.1964 -2.275e-21)
(0.6658 -0.1202 0)
(0.387 0.02941 0)
(0.9272 -0.1655 1.148e-21)
(1.003 4.878e-05 1.995e-21)
(0.4284 -0.1025 -1.615e-23)
(0.3411 -0.09887 -3.174e-23)
(1.027 0.01078 2.919e-21)
(0.8103 0.1827 1.343e-21)
(0.972 0.0665 2.138e-23)
(0.4566 -0.1199 4.541e-22)
(0.3816 -0.1008 -6.287e-22)
(0.8233 -0.1482 2.719e-22)
(0.9419 -0.04137 0)
(0.2047 -0.07677 -6.336e-23)
(0.0617 -0.02327 2.845e-22)
(0.63 -0.1337 -1.336e-22)
(0.6555 -0.1033 4.674e-22)
(0.408 -0.1183 -2.22e-22)
(0.1766 -0.01455 0)
(0.9893 4.947e-05 -7.41e-21)
(0.6232 -0.0655 1.571e-23)
(1.006 0.01839 -1.903e-22)
(0.3699 -0.1091 0)
(0.7249 -0.3732 -5.211e-22)
(0.5066 -0.09001 0)
(0.7832 -0.216 1.927e-21)
(0.1936 -0.07917 -8.536e-23)
(0.2936 -0.04742 0)
(0.9974 0.004494 -1.979e-20)
(0.02472 -0.009205 0)
(0.2369 -0.07473 0)
(0.2805 -0.08166 7.552e-22)
(0.679 -0.06054 7.229e-23)
(0.8807 0.2395 0)
(0.508 -0.1273 -3.209e-22)
(0.5004 -0.134 8.211e-22)
(0.3879 -0.02923 0)
(0.7178 -0.1006 0)
(0.8362 -0.03086 -3.218e-21)
(0.02864 -0.001432 9.729e-23)
(0.2881 -0.09951 1.876e-22)
(0.5724 -0.03769 0)
(0.5602 -0.1176 -1.331e-21)
(0.6732 -0.1014 0)
(0.6271 -0.3941 -1.752e-21)
(0.3616 0.02279 2.291e-22)
(0.1549 -0.05374 6.13e-23)
(0.7399 -0.1258 1.191e-22)
(0.3041 -0.09735 0)
(0.787 -0.03535 0)
(0.5638 -0.06876 -1.848e-22)
(0.5632 -0.05725 -6.452e-24)
(0.6504 -0.1271 0)
(0.04961 -0.01738 0)
(0.9496 -0.09289 5.08e-23)
(0.7586 -0.1621 -5.974e-22)
(0.9548 -0.1313 0)
(0.5836 -0.09875 5.742e-22)
(1.001 -2.833e-05 0)
(1.015 0.004269 -1.884e-20)
(0.7246 -0.09575 -6.689e-22)