/*--------------------------------*- C++ -*----------------------------------*\
  =========                 |
  \\      /  F ield         | OpenFOAM: The Open Source CFD Toolbox
   \\    /   O peration     | Website:  https://openfoam.org
    \\  /    A nd           | Version:  8
     \\/     M anipulation  |
\*---------------------------------------------------------------------------*/
FoamFile
{
    version     2.0;
    format      ascii;
    class       volScalarField;
    location    "20";
    object      k;
}
// * * * * * * * * * * * * * * * * * * * * * * * * * * * * * * * * * * * * * //

dimensions      [0 2 -2 0 0 0 0];

internalField   nonuniform List<scalar> 
127143
(
9.598e-15
9.806e-14
7.305e-13
3.733e-12
2.62e-12
3.942e-12
5.71e-11
1.386e-11
6.609e-12
4.257e-12
1.409e-10
1.736e-11
4.577e-12
6.44e-12
2.443e-05
1.513e-10
3.685e-12
0.07211
0.03462
1.528e-08
0.001947
9.272e-08
0.0001541
5.585e-06
8.363e-08
1.242e-07
2.612e-09
2.697e-09
1.128e-07
0.07233
1.964e-06
1.199e-07
3.434e-08
4.98e-07
0.000151
3.365e-08
0.002403
0.007275
1.116e-05
7.133e-08
0.03494
0.0001534
0.0001529
3.435e-11
0.07048
6.142e-07
1.156e-07
0.009282
7.47e-06
8.967e-06
3.534e-10
0.0001494
0.0003033
0.0001545
0.0001395
2.768e-06
0.0001394
0.0001648
0.0001473
0.0001544
0.0001531
0.01744
4.45e-05
0.0001482
5.765e-07
0.0001589
0.0001512
3.893e-05
3.939e-05
0.0002241
4.03e-06
5.723e-09
0.03631
0.0001472
0.0001458
5.742e-09
0.0001475
0.002325
2.746e-06
0.000149
9.038e-08
1.459e-08
4.04e-06
1.582e-07
0.02556
0.003391
1.86e-05
1.487e-08
0.0001576
4.059e-05
0.0001467
0.001663
7.878e-05
0.001963
5.962e-05
0.0001724
0.0001533
7.27e-07
0.004335
0.0001512
0.0001489
8.62e-06
7.891e-06
0.000111
0.003724
0.00407
3.38e-05
0.000225
0.0001679
0.0001424
3.21e-05
1.333e-08
0.0004514
0.000169
0.0001455
0.0001499
0.0001476
0.0001459
0.0001474
7.652e-09
0.0001425
6.778e-06
7.074e-05
0.0001625
1.06e-07
3.251e-08
0.01118
0.0001487
3.731e-05
2.298e-06
0.0008132
0.0001036
5.79e-05
0.002447
1.186e-10
0.0008948
0.0001557
0.002675
3.097e-07
0.0001536
0.0001546
0.0001468
0.0006155
0.00237
0.0003196
0.0001545
4.009e-07
0.0001483
8.898e-05
3.247e-06
8.482e-05
1.069e-05
0.00752
0.0001519
0.0001183
0.02574
0.0001648
1.891e-06
0.009561
5.366e-07
4.776e-06
4.809e-10
0.0001468
0.0008279
3.056e-07
9.376e-07
0.001218
0.0001561
1.889e-06
0.0001489
9.594e-05
0.002392
0.0001414
9.407e-05
0.0006777
0.01104
0.0001792
3.854e-05
8.83e-06
0.0001564
9.488e-05
0.000155
0.01329
0.01138
2.656e-06
0.01797
0.0001515
0.0001681
7.402e-06
0.0001552
0.0001314
3.874e-05
0.0001553
0.0001929
6.322e-11
0.009396
0.0001289
0.0001282
1.466e-09
0.0001457
0.0001452
0.0001491
0.006607
0.002954
2.858e-11
2.801e-05
0.0001531
7.857e-05
0.06436
0.0001455
0.0002065
0.02218
0.0001447
2.117e-06
0.0002953
3.526e-10
1.062e-05
8.147e-05
0.0005085
0.0001531
0.0001841
0.0001462
1.002e-05
0.0003613
3.513e-07
6.085e-05
7.055e-07
0.007917
0.0002391
0.007718
0.001549
0.0001549
0.03672
8.346e-08
0.001606
0.0001572
0.0008213
2.086e-13
0.0001452
0.0001884
4.385e-05
1.01e-06
0.01201
2.037e-06
0.001519
9.089e-09
2.049e-05
2.441e-09
3.822e-09
0.0002757
0.0001676
1.589e-07
7.725e-05
0.001726
6.079e-06
0.0001697
0.0001487
5.024e-06
0.000133
0.0001508
0.008133
0.0001516
0.0006481
0.0001467
0.0004272
8.899e-07
8.029e-05
7.107e-05
0.0001555
0.0001331
5.422e-07
0.0006692
0.01272
0.0001788
5.686e-05
0.0001444
0.0004805
1.291e-05
0.0013
0.0001528
0.0002377
0.0001841
0.0001118
0.0001455
0.0001454
5.824e-11
0.0005508
0.0001455
1.125e-05
0.0001569
0.007946
0.000158
0.0001571
0.0001329
0.0001451
0.0001757
2.459e-06
0.00228
0.01193
0.0001331
8.741e-07
0.0001599
0.000155
0.0001536
2.717e-07
0.0001369
7.901e-05
0.0001448
0.02131
6.741e-05
3.033e-05
0.0002767
1.732e-06
0.000207
0.0001453
5.431e-05
0.003791
7.634e-07
0.0001594
0.006905
0.0001539
3.033e-06
0.0001513
7.656e-05
5.097e-05
0.001814
0.0001502
0.005178
4.335e-06
0.0001863
0.01283
0.0001454
0.000151
0.000129
0.0001283
0.0001518
0.0001681
0.0001417
0.01283
0.0003449
0.0001536
8.102e-05
0.0004185
0.0001649
0.0001764
1.066e-05
1.766e-05
0.0001436
1.191e-06
1.547e-05
1.53e-06
0.03304
0.008468
0.0001522
0.0001494
2.897e-05
0.001714
0.0001618
0.0001489
4.339e-06
0.0162
4.934e-05
0.06386
9.977e-06
9.929e-06
0.0001468
0.0001457
0.003894
1.227e-06
0.001283
0.0001557
0.0001514
3.356e-07
8.78e-06
0.0001545
0.0001537
3.05e-06
3.048e-07
0.005539
0.001384
0.04586
7.468e-08
1.747e-06
0.0001597
0.0001475
3.361e-09
0.0001503
9.284e-08
0.00882
0.01548
0.0001462
0.0001535
0.0001575
6.336e-06
7.25e-06
1.906e-06
0.0001535
2.735e-06
0.0001493
0.0001513
1.544e-07
0.0001462
0.001383
0.01398
0.0001503
7.406e-05
0.004418
5.828e-05
0.000149
1.099e-05
0.0001359
1.006e-06
0.0001547
0.01004
8.336e-05
6.592e-05
0.002276
3.262e-07
0.00229
1.764e-05
0.001371
4.206e-07
0.0001687
0.0002302
0.007389
0.000151
0.0001527
0.000153
1.433e-06
0.0001532
0.0001412
0.0001747
0.006994
0.007203
0.0001464
0.0001468
7.212e-05
1.721e-05
0.0001493
0.000145
0.0001453
1.154e-05
0.0001558
0.000172
0.0001481
9.023e-07
0.0001454
4.603e-05
0.004229
0.02236
0.00318
2.941e-06
7.927e-05
7.169e-07
0.0001502
0.004345
7.337e-07
1.896e-06
0.004557
0.0006507
6.077e-05
0.000136
0.009147
0.0001571
0.0001202
0.0005163
0.0001463
0.0005142
2.252e-05
0.0001386
0.006073
0.0002385
0.0001626
0.004318
0.0001529
0.0001347
0.0001471
0.0001981
9.656e-05
0.0007402
1.282e-07
5.458e-05
6.232e-06
1.886e-06
0.0001616
0.0001462
0.001101
0.0001447
9.004e-07
0.0001468
8.724e-05
2.176e-05
0.0002201
0.0001476
2.751e-10
0.0005961
0.0001571
0.00016
0.000161
0.0001448
1.178e-07
0.0001463
0.008869
0.009814
2.213e-12
1.188e-09
4.589e-09
0.000147
3.276e-05
5.091e-05
0.0001453
0.01643
5.407e-05
0.0009515
0.0001118
0.002988
2.818e-06
0.006151
1.768e-08
0.0004457
0.02217
2.152e-08
1.182e-05
1.021e-06
0.0001322
0.0001469
8.811e-05
0.003897
0.009613
0.0001457
5.311e-07
9.543e-07
0.0001267
0.0001304
0.0005123
0.0001568
5.408e-05
0.0001529
9.665e-07
0.01519
0.0001469
0.0003116
0.0001468
0.0001387
0.0001598
0.001819
3.236e-06
1.065e-05
1.666e-05
1.55e-05
0.00915
0.0001608
2.46e-05
0.001326
0.0002077
0.0001464
1.3e-07
0.0009625
7.452e-07
5.293e-05
0.01183
0.0001483
0.0001479
0.0001507
1.521e-05
0.0001674
0.0001454
0.0001427
0.0001662
5.044e-06
0.00453
0.0001608
1.223e-05
3.025e-07
0.0001564
0.000147
0.0001426
0.0001038
0.004411
5.043e-05
0.000158
5.419e-09
5.961e-05
0.0001761
0.00136
2.571e-07
0.0001454
0.004903
0.01694
0.01644
0.0001362
0.0001018
0.00812
7.364e-09
0.0001346
3.591e-05
1.169e-05
0.0001453
7.441e-05
0.0001455
2.08e-05
0.001131
0.0001455
7.434e-06
3.649e-06
0.0004122
4.7e-05
0.0008593
1.858e-06
2.012e-06
0.0002021
1.385e-05
9.549e-05
1.131e-05
0.005902
0.0002581
4.73e-07
0.0001491
2.171e-06
0.0001454
0.0001682
0.0001487
0.0006734
0.0001413
0.0001455
0.0001623
1.876e-05
0.0009473
0.0001384
0.0001412
0.0003068
1.224e-07
7.964e-06
1.048e-06
0.02447
0.0001714
0.003359
0.0001304
0.0001732
9.713e-05
3.018e-07
0.0001385
4.295e-06
0.000191
0.0001644
0.0003205
0.000147
0.0001425
0.002037
6.029e-07
0.001105
8.765e-07
0.0001486
0.0001468
0.0005534
5.941e-06
0.000149
1.108e-06
0.0001566
0.0001638
3.525e-05
0.0001299
0.0002084
0.0001524
5.797e-11
7.983e-05
0.004742
0.004256
0.0005852
1.908e-05
4.439e-07
5.008e-06
0.0001488
5.998e-05
0.002459
0.001478
0.0001417
1.449e-05
0.0001562
0.0001522
0.0001303
0.0001415
2.927e-07
0.0001601
3.867e-06
3.283e-05
6.305e-05
0.02101
0.0001595
5.561e-07
0.0001514
6.623e-06
0.0001446
0.0001393
0.0001709
0.000151
1.866e-06
0.0001522
8.117e-07
0.0214
8.915e-06
0.0001707
0.0635
0.0001456
1.113e-06
0.000153
5.036e-06
1.267e-10
5.764e-05
0.0004838
0.00597
0.0001381
4.584e-05
1.006e-05
4.414e-07
0.04725
0.005471
0.0001731
4.795e-06
0.002211
1.953e-05
0.02623
9.059e-06
3.896e-05
6.775e-05
0.01153
0.0001604
1.545e-14
0.0001561
0.0001489
3.167e-05
6.089e-05
2.172e-05
0.000144
0.008051
0.03346
0.00465
0.0001507
7.344e-07
0.0002141
2.451e-07
0.0001653
3.899e-06
0.004784
9.003e-06
2.514e-05
0.0001544
0.006655
0.0002427
1.561e-05
0.001445
0.0001458
0.0004268
0.0001607
0.000146
7.879e-05
0.0001655
2.25e-05
0.0006202
0.0001588
5.724e-05
9.178e-08
0.0001211
0.0001279
0.006589
0.01861
1.154e-07
1.345e-06
0.0001551
0.01681
2.068e-05
0.0001283
0.001067
3.732e-05
0.0007315
1.601e-07
0.000764
0.0001462
0.0003467
0.01429
0.0001525
0.0001469
2.397e-11
0.0007837
5.514e-05
2.356e-05
0.005736
0.0002956
0.0003777
5.675e-06
0.0001424
0.03784
0.0001109
0.0001486
0.0002181
8.842e-05
3.29e-05
7.039e-05
0.0001364
0.003638
0.00954
0.0001447
0.000136
0.0003281
0.0172
0.02431
0.0003588
0.005147
1.249e-09
9.64e-05
0.0001527
0.0001418
0.002505
0.001741
2.407e-06
4.212e-07
0.0001556
0.0001986
0.0001466
0.002202
5.183e-09
0.0001419
0.0001651
1.514e-06
4.526e-05
1.046e-07
0.0001506
0.01834
4.332e-05
0.0001459
1.259e-06
0.0001416
5.741e-05
1.246e-06
1.2e-05
0.001014
3.587e-08
0.0001462
1.477e-05
0.0001526
6.272e-07
0.001063
5.172e-07
4.484e-06
0.000155
0.0001649
0.0001641
7.785e-10
0.0001457
0.01782
3.839e-06
8.125e-06
0.00227
1.451e-08
0.0001941
0.0003577
9.9e-05
8.737e-08
8.537e-10
4.699e-05
4.309e-10
1.081e-05
1.386e-10
0.000161
3.107e-05
0.03843
5.351e-09
0.0001474
2.709e-05
0.0001351
0.0001346
0.0004819
0.0001496
6.533e-05
0.04475
0.0001662
0.0001491
0.0001553
3.747e-05
2.894e-05
0.0001461
0.04331
0.001905
0.0001552
4.831e-06
1.369e-08
0.01754
8.93e-05
2.908e-05
0.003848
0.0001914
0.000145
0.0002307
5.445e-06
0.0001485
1.213e-05
0.00101
0.01838
0.0001379
0.006969
0.04894
5.785e-10
0.0001635
1.298e-08
0.005965
0.0001089
3.699e-05
7.15e-06
2.55e-06
0.0001315
4.78e-07
0.0001533
0.0001321
0.0001744
7.037e-08
0.03179
2.515e-06
8.024e-05
0.0001364
3.011e-06
8.556e-11
5.502e-06
0.0001469
0.0001461
8.711e-05
0.0001745
0.0006443
7.984e-06
0.0001968
5.159e-07
0.004697
0.0001523
4.497e-07
0.0001537
1.514e-08
0.0001444
0.008141
0.0001793
0.001127
0.0001595
0.004413
0.0001457
0.0001458
3.735e-05
0.000155
0.0008521
6.718e-06
0.0001491
0.01616
0.001538
2.088e-05
6.906e-06
7.788e-10
0.000313
1.398e-06
2.235e-05
7.714e-05
0.01442
0.0001951
0.0003096
8.283e-05
2.276e-07
0.004154
0.000144
0.0001429
0.007967
0.007854
0.0001637
0.0001392
0.0001296
0.003283
0.0001612
0.0001682
0.002201
7.105e-05
0.0001577
0.000149
0.0001609
0.0001625
8.109e-08
3.114e-07
0.005209
0.0001539
0.02198
1.196e-06
6.434e-06
6.234e-05
0.02187
9.21e-05
2.09e-05
0.001257
4.322e-07
0.0001489
1.704e-07
6.906e-06
0.01904
5.414e-05
2.377e-05
0.0001456
5.645e-09
9.607e-10
0.000137
0.0001441
0.0001684
0.001186
3.495e-08
0.002125
2.848e-05
7.907e-06
5.313e-05
0.0001624
0.0001639
0.0001478
3.317e-05
0.02944
0.000135
0.0001476
3.292e-05
0.002857
0.0001542
1.002e-09
0.002369
0.0001453
7.233e-06
0.0001436
0.0001447
6.617e-05
0.0001545
1.324e-09
0.0001442
1.343e-06
0.000146
7.8e-05
0.0001542
0.04708
9.599e-05
2.189e-06
4.106e-06
2.835e-05
5.414e-05
0.0002011
0.0001555
0.001089
1.377e-05
0.0003017
6.769e-05
2.344e-08
3.137e-05
1.007e-08
3.893e-05
6.032e-06
1.277e-06
3.648e-06
9.316e-08
0.0001515
0.03866
0.0001822
5.269e-06
0.004247
3.654e-07
0.0001914
1.896e-05
0.007075
3.513e-05
3.562e-05
0.0001255
0.0001559
1.381e-06
0.0116
3.547e-05
0.001187
1.864e-06
0.001009
0.0001374
6.484e-05
4.636e-06
0.0001458
2.315e-05
1.209e-06
0.0001379
0.0001566
0.001406
0.0001536
0.0001516
0.004339
0.007664
0.0001581
0.0001317
5.098e-05
0.0001438
0.0001448
0.0001514
0.0001502
0.003509
5.621e-05
9.848e-05
0.0001547
0.0001486
2.82e-07
2.306e-06
7.119e-06
0.008863
5.249e-09
0.000216
1.658e-05
0.0001456
0.002012
0.0001717
1.991e-05
3.508e-05
0.0002058
2.372e-08
0.0001471
4.953e-09
6.834e-06
1.027e-05
4.955e-05
6.953e-06
0.01211
0.04772
2.032e-07
3.893e-05
0.00015
6.958e-12
0.005508
6.199e-06
8.375e-07
1.299e-05
6.026e-05
0.008755
4.006e-06
3.155e-05
0.0006695
0.0009299
2.907e-06
4.692e-06
0.02924
1.124e-08
0.0001588
2.565e-05
0.0001567
1.432e-06
0.0001309
0.0001448
0.002877
3.646e-09
0.006727
0.003391
1.658e-09
5.24e-05
0.0001458
1.859e-07
2.881e-05
0.001553
1.396e-07
0.0001641
0.001988
1.857e-10
0.04341
1.038e-06
0.009957
3.73e-05
5.817e-08
5.639e-06
5.203e-07
0.0001566
6.345e-06
0.000158
0.06189
0.0001334
0.0003447
0.0001181
3.176e-05
0.02053
4.94e-06
0.01264
0.0001621
0.02024
0.0001532
0.0001586
8.643e-05
1.105e-08
0.0001505
1.881e-08
2.593e-06
0.000981
0.001276
0.0001459
0.0132
0.0001052
0.0001613
4.35e-06
1.225e-06
3.289e-07
0.0001427
3.783e-06
0.0001085
0.0005456
1.254e-09
0.0001362
0.02905
0.000104
0.0001462
9.063e-05
0.0009869
6.874e-08
3.101e-05
0.0001616
0.004263
0.0001452
6.194e-11
1.321e-09
0.003365
0.000165
0.0001266
0.0001354
0.0001314
0.0005333
0.02253
0.02644
0.0001538
0.0001622
0.0001629
0.0001614
0.00185
0.01733
4.479e-06
7.812e-06
7.782e-10
0.0001663
4.165e-07
0.001837
0.0001472
0.0001317
2.158e-06
0.009285
4.62e-05
6.965e-10
0.001662
0.01601
0.0005677
4.981e-05
0.0005129
1.05e-09
0.04933
0.0006695
0.01843
0.0143
0.0001055
9.782e-06
7.385e-10
0.000155
0.0002595
0.0001413
5.995e-06
2.647e-05
0.0001353
2.275e-05
5.714e-05
0.001551
3.206e-06
0.0001428
0.0001653
6.467e-11
0.0001456
1.055e-05
2.847e-05
3.471e-05
6.795e-07
0.000165
0.0001109
0.0002624
2.108e-07
0.0009693
1.174e-05
0.0001507
3.544e-05
3.423e-06
2.696e-06
3.49e-05
0.000898
0.0001451
2.554e-05
0.02889
5.674e-07
0.0001418
0.01841
0.0008576
0.0001451
0.0001379
0.0001965
0.0001456
0.02141
0.0001388
3.459e-06
0.02242
5.588e-09
0.0004797
0.0004812
4.22e-06
0.0006249
1.55e-05
5.931e-06
1.225e-10
0.0006561
0.0002405
0.0006485
0.001042
0.01291
0.0001482
0.005284
0.0001465
0.009623
0.0001474
0.02408
0.0001435
1.71e-05
0.0016
0.0001379
0.0001444
0.001484
0.0001578
1.085e-05
0.0001544
0.0001337
0.0001623
0.001328
0.0001498
2.876e-09
1.598e-06
7.254e-08
1.491e-05
5.584e-05
5.96e-06
1.546e-05
0.014
0.0004511
5.745e-08
0.01843
1.273e-05
2.162e-06
7.574e-05
0.0002634
0.02975
0.0001441
1.108e-10
0.0007972
2.361e-07
0.0001458
7.738e-10
2.08e-05
4.632e-06
0.001877
0.0001309
0.0001308
0.02385
0.04898
0.01301
0.01428
4.255e-05
0.0001654
0.0001565
0.008356
0.0001205
4.545e-07
0.0001184
0.0001876
0.002465
0.0001046
7.046e-07
1.329e-05
3.56e-05
4.896e-06
0.006601
0.0001462
0.004828
0.00243
1.294e-08
0.000399
0.0001537
4.492e-05
0.003194
2.003e-05
0.007684
2.909e-07
0.06621
0.0001455
0.009197
7.966e-05
5.826e-10
4.698e-07
0.0001636
0.0007898
8.497e-06
0.0001587
0.0001305
4.27e-05
2.468e-05
3.688e-10
0.0001516
1.516e-08
0.002341
0.0001439
6.632e-06
0.0001147
0.01173
0.0001517
0.003032
0.0002549
4.491e-05
5.236e-05
0.03642
2.778e-06
0.0001522
2.696e-05
5.731e-06
1.162e-06
0.0001902
0.0001896
3.19e-06
0.0001746
1.084e-09
0.0001348
7.094e-07
6.282e-07
1.049e-10
0.00424
0.0002521
0.000149
0.0001456
0.0001437
0.01153
0.0001441
1.505e-09
0.0001454
3.429e-07
0.0001577
0.0001208
8.486e-05
1.441e-06
0.0002547
4.236e-07
0.0001596
0.0001346
0.004917
3.946e-08
0.0001448
3.376e-05
3.4e-05
0.006001
3.98e-05
0.0001448
0.003504
4.205e-05
2.524e-05
0.0001538
0.0001372
2.145e-06
0.0001962
0.0001328
0.0001593
1.099e-05
0.0001372
1.367e-07
0.0001462
0.0002473
0.0006108
0.005832
0.0001931
0.0001392
0.006804
7.954e-06
0.009383
0.0001515
8.061e-05
0.0001546
0.0001454
0.0001417
0.0001807
2.44e-09
8.465e-05
3.291e-05
0.0001493
1.02e-07
0.0001633
0.0001528
0.0001838
0.000169
0.0002731
1.748e-06
0.0001499
2.087e-05
0.0001467
0.0001419
0.0001486
0.0001522
3.239e-05
0.01624
0.0001618
1.227e-06
0.0001149
0.0001415
0.000735
1.877e-07
7.956e-05
8.081e-10
4.596e-07
0.02068
0.000153
0.0001696
5.043e-07
0.0004667
1.949e-05
3.751e-06
0.0002213
0.0001548
0.0001444
2.123e-05
1.415e-05
0.0001088
0.0001459
0.0004312
0.0001456
0.000163
0.0002773
0.0001429
0.02432
0.0001662
0.0001063
0.004022
0.00287
4.743e-06
0.0001466
6.495e-06
5.199e-07
0.0001318
0.0323
1.515e-05
0.0001583
0.0008121
0.008944
2.849e-06
6.563e-05
0.006254
1.176e-06
8.249e-05
1.562e-05
1.164e-06
0.0001576
0.0001539
5.163e-05
0.0001517
8.637e-06
0.003118
0.0001515
3.69e-05
0.0001482
0.0009397
3.558e-05
0.04873
0.0003314
0.0007609
9.361e-10
0.001921
9.357e-09
0.0001561
0.0001376
9.669e-09
2.136e-05
0.0001572
4.181e-06
0.0001509
0.0007734
0.0001491
0.01089
2.007e-08
0.006686
0.0001666
4.119e-05
2.039e-05
0.0001464
4.326e-05
0.0001533
0.0001649
6.034e-07
0.0001492
3.357e-05
2.014e-07
0.0001444
0.0001487
0.007052
0.0002096
0.0002482
0.0001546
0.0001609
0.0001362
0.0001615
0.01779
0.0002318
0.0001587
5.039e-05
0.0001375
0.0001539
3.017e-06
9.897e-09
0.0001396
0.0001672
1.646e-08
0.01941
2.799e-06
0.01615
1.771e-05
8.972e-09
0.0001795
0.0002947
0.004288
0.0001508
6.253e-07
0.0001644
0.01298
7.055e-08
1.461e-05
0.0001489
6.167e-06
5.033e-11
5.158e-10
0.007
0.003572
2.543e-05
0.0001544
0.0127
7.816e-05
0.01419
6.603e-06
0.0007118
0.001506
2.671e-05
1.101e-07
0.003587
0.0001415
0.0001452
5.082e-05
0.0001372
0.001816
0.0001525
0.0001511
2.219e-05
0.006843
0.03104
0.0001357
4.383e-06
4.716e-07
0.002611
5.289e-06
0.006157
9.074e-10
7.995e-06
0.0001492
3.013e-05
4.068e-06
0.001061
2.745e-05
4.026e-10
0.0001282
1.343e-07
2.16e-05
1.713e-05
0.0001364
0.007937
0.01495
7.419e-07
5.014e-06
0.02607
3.688e-07
0.0001624
0.0001728
1.302e-05
0.0001532
0.02258
0.0001453
2.437e-06
1.344e-06
2.024e-05
3.818e-07
8.154e-07
0.009388
7.396e-09
0.0002927
5.859e-05
0.0001497
0.02343
0.0001511
0.04235
6.001e-05
0.01366
2.665e-05
0.0002113
3.202e-05
9.233e-11
1.89e-08
0.002067
0.003482
0.000164
0.0001602
0.000146
0.0001488
5.108e-05
0.0001633
0.000145
3.861e-05
2.397e-05
7.314e-06
0.001038
9.557e-05
1.79e-05
0.002479
2.547e-05
1.037e-08
6.898e-07
0.0001563
3.128e-05
1.12e-10
0.01397
1.986e-05
0.04048
7.591e-05
0.0002735
1.264e-11
8.421e-05
7.439e-05
0.0001562
0.0001561
2.357e-05
0.001583
0.0001454
0.000147
0.008629
3.888e-07
0.02141
2.831e-05
4.051e-09
0.0001897
0.0001493
5.669e-07
0.02248
0.001576
9.449e-08
0.0001631
0.03092
0.000324
0.0003665
0.0001584
3.029e-05
0.0001465
0.0001434
0.02918
6.22e-07
0.06612
1.012e-05
1.198e-07
0.0001481
5.221e-07
0.003195
6.866e-06
2.064e-05
3.364e-05
0.0001514
0.01281
0.001625
0.003301
2.461e-06
0.001507
4.411e-06
3.633e-05
0.000145
0.001472
0.0412
1.094e-06
4.179e-05
0.0006683
0.006102
0.0001537
6.862e-08
0.0001704
0.001214
0.01869
0.004638
0.02261
0.00121
0.0002028
1.097e-08
0.0001623
0.0001486
1.871e-05
0.0001395
0.0131
0.0001498
0.000155
0.01125
0.0001439
0.0001636
1.123e-05
4.333e-05
0.0001456
0.0001482
0.02489
6.79e-05
9.241e-06
0.0001917
0.0008285
0.006429
1.332e-06
2.179e-06
0.0483
9.72e-05
0.002535
0.000159
2.948e-05
1.901e-09
0.01737
3.334e-06
3.268e-06
0.01435
9.527e-10
0.0001454
0.0001372
0.0001661
0.0001226
8.033e-11
0.0001459
0.009621
1.555e-05
2.161e-09
3.19e-05
1.885e-06
0.0001248
0.0001245
3.711e-06
3.581e-05
0.00782
0.000136
0.0001499
0.02353
0.0001412
0.000149
5.385e-07
1.988e-05
3.64e-05
0.01111
7.195e-08
0.01026
0.0001602
0.0001318
8.068e-05
1.979e-05
9.854e-07
5.448e-06
0.0002648
3.445e-07
0.0002199
0.0001163
2.861e-05
4.907e-06
0.0001735
0.0001543
0.0001041
1.433e-06
0.0001358
0.0001344
6.723e-05
0.000887
1.942e-08
0.0001656
6.161e-06
1.983e-05
0.000381
0.0001454
0.0001689
0.0001482
0.001966
5.75e-09
0.0001869
0.0001567
4.596e-05
0.0001525
1.873e-07
4.228e-05
0.0002046
7.512e-05
8.645e-05
3.261e-05
0.01193
5.31e-05
0.0002212
6.739e-05
0.0002595
0.002424
7.027e-05
0.01139
1.261e-06
2.678e-05
0.0004962
0.002345
1.967e-06
0.002255
0.0002039
2.885e-05
0.0001579
0.0001678
7.778e-05
7.718e-09
0.0001639
1.442e-05
0.000147
0.01572
0.0001484
2.059e-05
0.02133
7.208e-09
0.0001149
0.0001529
2.53e-06
7.32e-10
3.355e-07
0.0003793
4.314e-05
6.439e-07
6.382e-08
0.0006592
0.01139
6.126e-05
1.113e-10
0.0004037
0.001833
0.0001679
0.0001608
0.0001455
0.001138
3.904e-06
0.0001108
0.0001846
0.02385
0.0001541
4.359e-08
0.000131
0.001514
0.0001635
0.02817
2.494e-06
0.0001642
0.0001529
0.02593
0.0001504
2.139e-05
6.319e-05
1.337e-09
2.728e-05
0.0002191
0.0001428
0.003599
0.001072
3.285e-06
8.811e-06
5.851e-05
0.02571
7.122e-05
0.0001453
8.312e-06
6.655e-06
0.0001746
0.0001358
0.0004463
8.706e-08
1.046e-06
9.464e-06
0.0001696
0.0001605
0.0001558
3.505e-06
0.03941
0.0001537
1.189e-08
0.0001937
0.002429
0.0001455
0.0001473
0.0001544
0.0001462
3.884e-05
5.052e-05
0.005945
0.001092
1.111e-06
7.269e-08
0.0004105
1.502e-05
0.0003945
0.02149
5.034e-09
0.001509
0.0005907
0.006774
1.194e-08
0.008974
5.74e-07
1.648e-08
0.0001559
7.702e-06
1.177e-06
0.0001172
0.006564
1.027e-05
8.671e-05
4.199e-06
0.003972
0.001237
0.000149
0.03536
0.0001478
0.0001656
0.007145
0.0004794
0.0001105
0.0003363
4.378e-09
0.008135
0.0001463
4.861e-06
0.00168
0.0208
5.101e-05
0.0007306
0.000186
1.669e-06
1.133e-06
1.123e-08
0.0001521
1.094e-05
0.0001814
0.0006866
0.0002368
0.0001516
1.088e-08
6.292e-06
3.741e-05
0.0001661
0.0001439
3.623e-05
4.916e-06
0.01275
0.0001198
1.073e-08
1.588e-06
8.081e-05
0.01443
0.0001132
3.794e-06
0.0001446
2.802e-05
0.01575
0.0001512
7.601e-05
4.824e-06
0.0001451
2.582e-05
0.007483
0.0001068
1.158e-07
0.0001261
4.125e-05
8e-11
0.002463
1.191e-05
0.000131
0.0001302
1.385e-05
0.00181
0.0001578
1.858e-06
2.878e-05
0.0001438
6.863e-08
1.095e-06
0.0002301
0.0001455
0.0001463
0.0002378
0.0006586
1.271e-05
1.54e-10
2.871e-06
0.000156
1.785e-06
9.555e-08
0.0001543
2.617e-06
6.766e-06
0.0003005
0.0001584
3.877e-06
0.04867
0.009443
0.0001302
0.0001284
0.0001287
0.0001268
0.0001584
0.01808
7.721e-05
6.634e-06
9.709e-05
0.0006826
0.001074
1.43e-07
0.0001275
0.0002026
0.003682
4.58e-05
5.979e-07
2.124e-05
0.003212
4.5e-05
6.649e-06
0.0003476
2.249e-05
0.0001627
3.468e-05
8.539e-10
1.787e-05
4.548e-08
0.0001529
4.946e-05
0.0001454
1.096e-08
0.0006938
7.513e-06
9.278e-05
0.0001503
6.775e-09
0.0001458
0.002556
1.08e-06
0.0001833
2.56e-05
0.0008488
0.004095
0.002737
2.687e-06
0.0001511
1.606e-05
0.0001369
0.000174
0.0007243
0.0001684
0.01057
6.808e-05
0.0001436
0.0001454
0.0001563
0.0004942
7.692e-06
0.0001692
0.003888
1.859e-05
0.0001298
2.958e-06
5.985e-06
0.01393
0.02087
0.0199
0.001228
0.0001613
6.105e-10
0.0001523
0.0001454
7.879e-08
0.0001453
0.0001447
0.0001598
0.0002914
9.109e-07
0.007665
4.056e-07
0.004791
7.207e-06
0.0001464
0.0001576
0.0005666
1.54e-05
0.0187
0.0002013
0.0001574
2.666e-07
3.246e-08
0.0001483
6.092e-09
3.46e-08
8.93e-11
0.0002087
0.01715
0.004243
0.0001547
0.0001482
0.02089
0.000111
1.283e-07
0.000151
1.502e-06
3.745e-09
0.0001455
5.104e-06
1.672e-07
3.031e-05
0.0001458
1.143e-06
2.54e-08
3.788e-10
1.013e-09
0.000163
0.001379
1.338e-09
0.0001566
0.0006807
0.000144
0.00457
4.883e-07
0.02546
1.726e-05
1.065e-09
0.0001598
0.006049
5.956e-05
0.0001492
0.0001532
3.066e-06
1.664e-06
0.03195
7.876e-06
3.316e-05
0.0001483
0.01277
0.0003383
0.0004933
0.001608
0.0001455
0.0003123
0.0002158
1.555e-05
4.876e-05
4.152e-05
3.086e-06
0.0001044
1.165e-08
8.109e-11
6.276e-12
2.395e-06
0.0001538
3.888e-06
0.0001486
6.513e-07
1.68e-06
0.0001455
2.538e-09
0.0001489
0.0001893
8.076e-09
1.801e-07
0.006376
0.0001589
0.0001358
2.966e-05
0.0001302
1.077e-09
0.0001716
0.0001739
0.01337
0.002371
1.164e-08
8.471e-09
9.839e-09
0.009791
5.084e-06
1.752e-05
0.002855
0.0001516
3.871e-05
5.654e-09
0.0001392
0.001815
4.617e-05
0.002094
5.269e-05
0.01019
0.03839
5.635e-08
2.792e-05
2.674e-05
1.438e-08
0.0002034
1.402e-07
0.0001524
4.901e-05
0.0002495
0.0001487
0.0001549
5.394e-05
1.276e-06
5.452e-06
1.239e-08
0.0001686
0.0001454
0.0001064
1.27e-05
9.168e-08
0.006261
0.02555
0.0001263
0.0001509
7.281e-07
0.0001266
5.136e-05
7.93e-06
0.000154
0.0001255
0.007942
1.188e-07
8.3e-09
6.535e-10
0.0001503
1.702e-06
0.001333
1.868e-05
0.02316
0.01618
2.143e-08
0.01253
1.488e-06
1.062e-05
2.109e-06
1.922e-05
0.0001569
8.923e-09
0.0193
4.264e-05
0.0003467
0.000169
4.854e-05
0.0001657
0.0001459
6.594e-05
0.0001562
0.0008668
9.002e-05
5.645e-05
1.147e-08
5.119e-10
0.02551
1.163e-08
0.0006964
0.0001609
0.0001501
0.0001543
8.145e-05
0.0001489
2.428e-05
7.233e-09
6.329e-05
7.229e-07
0.03546
0.001479
2.64e-05
0.0003908
0.01185
1.689e-06
0.02112
8.645e-08
1.574e-05
0.0001372
0.001447
4.206e-05
0.0001477
0.0001553
2.549e-07
0.0001463
5.5e-06
7.256e-05
1.184e-05
0.0001104
1.036e-07
0.0002583
0.0311
0.0001504
2.22e-06
2.028e-05
5.264e-06
4.635e-05
0.0001432
1.039e-05
0.0001441
0.0001671
0.0002134
0.01783
7.075e-10
0.000112
1.775e-06
0.01935
1.235e-06
0.0001602
0.0005221
0.004753
6.059e-05
0.000139
0.0001177
0.0001462
1.102e-06
2.577e-06
0.0001093
0.001383
0.0001428
1.13e-05
4.959e-06
2.064e-05
6.806e-06
7.137e-06
3.36e-05
0.0001475
0.005958
0.0001244
0.0001498
4.639e-06
6.339e-05
0.0001559
0.0001645
0.0001569
0.0001421
2.707e-05
0.000137
0.000135
0.0001466
0.0001536
0.0001518
6.694e-05
2.764e-05
0.0001458
1.307e-05
0.0001402
2.413e-05
0.0001469
0.0001527
0.0001519
2.438e-07
0.0002805
1.103e-09
0.001377
1.922e-07
0.0001576
0.0001588
1.081e-08
0.0001502
2.454e-05
2.231e-05
1.607e-05
9.686e-05
5.019e-05
0.000146
2.365e-05
0.0001643
0.0002806
0.001744
0.0001859
8.93e-05
0.004246
4.251e-05
1.034e-05
0.0001437
0.004453
5.247e-05
8.297e-08
0.0001515
0.0001481
1.916e-06
2.924e-07
0.004531
0.002267
7.622e-05
5.25e-06
0.0001535
6.283e-05
0.0005416
0.02236
0.00225
0.001529
0.0001371
0.000179
9.531e-10
0.02861
0.002514
1.785e-08
0.0001694
0.0001148
0.0001449
0.0001498
0.0001604
0.000167
4.757e-08
0.0002343
0.000147
0.0001472
3.979e-05
5.733e-11
0.0001469
0.006976
1.607e-06
2.568e-05
0.0001304
1.538e-05
1.562e-05
3.102e-05
0.0001846
1.446e-06
1.191e-07
2.846e-07
0.000146
0.00107
0.001431
0.0003589
0.0001429
0.0001681
0.0002255
0.01229
0.0001152
3.598e-09
2.612e-07
0.05483
1.57e-05
8.855e-08
0.01634
8.966e-06
0.006699
0.0001641
0.0001607
5.269e-07
4.743e-09
0.0001443
3.28e-06
3.448e-05
0.0001469
4.423e-08
0.006976
0.0001712
0.0001553
0.0005174
1.685e-06
9.886e-05
7.399e-05
0.0001453
0.0001457
0.04953
0.002402
0.0001336
0.0001585
0.0001487
1.627e-06
0.03151
0.006561
3.624e-06
2.738e-07
0.0338
0.0002433
0.0001428
9.187e-09
0.0001688
1.203e-05
2.984e-06
0.0001538
1.274e-05
0.0001346
1.083e-05
1.372e-09
0.02963
9.417e-09
0.0001384
0.0001419
0.003082
0.0001514
0.000143
1.13e-09
1.663e-05
1.29e-05
2.507e-06
0.0001574
0.001444
0.0001383
9.543e-10
0.0001561
4.085e-05
0.0001348
0.0001522
0.006822
0.003835
0.0009928
0.0005142
0.02664
0.0001178
0.0001362
0.0006237
9.109e-06
5.091e-06
1.222e-08
0.0001607
0.01198
7.169e-05
0.0001471
0.0001949
3.242e-05
0.0004308
0.0001538
0.006745
3.315e-09
0.0001308
0.0001436
6.691e-05
2.562e-05
0.02222
4.062e-06
0.0001478
9.767e-06
0.0003545
3.277e-05
0.000148
0.0001531
9.17e-07
1.975e-05
3.357e-06
0.003671
0.00018
0.0001364
4.926e-06
0.0001439
2.08e-06
1.014e-09
0.0001601
0.002102
0.0113
2.712e-05
3.804e-07
0.0001339
0.0001524
0.0001363
7.782e-05
0.0001582
0.0001447
4.225e-06
9.142e-05
0.01458
0.0001359
0.0001551
0.0001545
0.000149
1.761e-05
0.001119
0.0001454
4.92e-05
4.129e-05
0.0001425
0.0001502
0.0001467
0.0001447
0.000158
0.00188
0.02486
2.105e-06
1.083e-09
7.189e-09
4.221e-05
7.23e-08
1.835e-07
0.0001481
1.376e-09
4.893e-05
5.545e-06
0.02727
0.0001556
0.0001615
1.028e-05
9.575e-07
5.219e-07
7.634e-05
0.0001567
0.002836
1.408e-05
3.805e-05
0.0001539
0.0001643
0.001101
0.0001541
1.319e-05
0.0001521
0.001031
9.011e-05
0.0001359
0.0001526
1.063e-06
2.262e-10
3.927e-08
0.0001373
6.657e-07
0.0008425
0.0001327
0.0001178
0.000146
8.562e-06
9.904e-05
0.0003241
2.453e-06
2.903e-05
0.0001495
0.000166
0.02537
2.155e-08
0.0001468
0.0001527
1.344e-08
0.0001055
0.0001443
1.759e-07
0.006022
0.0001526
0.0001525
0.02201
1.924e-05
1.261e-09
2.28e-06
4.099e-05
0.01034
0.0005266
0.0001549
0.0001451
0.0001537
1.288e-05
3.649e-05
0.0002192
0.0001479
1.443e-08
1.355e-05
6.044e-05
0.002747
0.002219
5.356e-05
0.0001342
0.0001557
3.711e-05
0.0001756
0.0001506
2.794e-05
2.51e-06
0.02097
0.0001677
0.0001755
0.01599
0.0001505
0.02188
6.012e-05
0.0001442
8.715e-05
0.0001477
7.185e-06
0.0004252
0.00498
0.0001152
0.0001156
8.215e-06
0.0007254
3.961e-11
0.006248
0.0001585
0.0005995
0.0001414
9.978e-05
6.458e-05
1.265e-07
2.018e-07
0.0003955
5.017e-06
1.533e-06
0.0004354
0.0001588
4.398e-05
2.739e-06
2.801e-08
0.000171
0.0001516
5.717e-07
0.0001655
5.004e-07
7.412e-05
0.01209
0.01694
1.257e-05
0.0001459
0.001441
0.0001673
0.0001448
0.0008789
5.368e-07
0.003209
2.541e-09
3.162e-06
0.0001697
0.0001448
0.0005505
3.409e-05
0.000171
0.0003488
0.0001684
4.6e-05
0.0002359
5.613e-06
0.0001465
2.185e-05
0.0001379
0.0001156
7.691e-06
5.511e-05
0.0001181
2.394e-06
1.491e-09
0.0001419
0.0001455
5.538e-05
3.786e-05
7.051e-07
0.0001452
4.199e-05
1.601e-06
0.008467
0.0165
0.0001457
8.393e-05
2.439e-07
0.0001516
0.005392
0.0001441
4.358e-05
0.0001517
0.0002619
4.84e-06
0.0003766
0.0006416
9.591e-06
0.0001924
0.0001496
5.33e-05
2.31e-05
0.0002058
0.0001434
0.0001482
5.274e-06
1.897e-05
6.632e-05
0.03222
0.0009841
0.05511
2.048e-05
7.349e-05
0.0001281
0.0001524
0.0001584
2.648e-10
1.418e-07
4.017e-06
0.0001425
2.303e-06
2.881e-05
3.954e-05
3.98e-05
6.029e-09
0.0001593
0.0003491
3.282e-05
4.346e-05
1.705e-06
1.041e-07
0.05698
0.0002181
0.04194
0.0001499
1.249e-10
0.0001469
0.02332
3.124e-06
5.885e-05
0.01665
4.75e-05
0.0001594
5.861e-07
0.01019
0.00011
0.002279
0.0001053
3.663e-06
2.582e-10
0.007161
4.897e-09
1.278e-08
0.0001455
4.316e-09
0.0001492
9.221e-07
1.977e-07
0.0003781
0.03579
0.000672
4.101e-05
8.496e-05
0.0001503
0.002638
0.009078
0.006388
0.01423
0.00121
0.0001575
0.0001359
0.04933
9.366e-09
0.0001466
6.795e-06
3.668e-05
2.082e-06
0.0001348
2.221e-06
0.000288
2.776e-07
0.008768
6.16e-09
7.776e-06
8.092e-06
0.0001543
6.782e-08
0.0001531
0.002245
0.001398
0.0001581
0.0001606
0.004226
6.648e-05
0.003774
0.0003072
6.993e-05
1.864e-05
0.005465
6.57e-09
7.061e-05
5.715e-08
0.0001501
0.009312
0.0008482
0.0167
0.0001524
5.405e-05
0.0001454
0.0001466
0.0001454
0.003501
2.424e-05
0.0004509
0.0385
0.0001512
0.007092
0.0001507
6.331e-09
2.987e-07
9.764e-09
1.258e-05
0.0001533
1.22e-06
9.361e-06
0.0001575
8.932e-06
0.0001464
0.0007061
0.0295
0.0001585
0.02609
0.0001422
0.0001427
6.149e-05
0.01912
0.0001514
1.17e-09
2.273e-05
0.0001398
0.0001459
4.904e-05
0.0001511
4.814e-06
1.947e-08
0.0001605
0.0001406
0.0001204
3.629e-05
2.128e-06
1.149e-09
0.0001538
0.0001613
5.784e-05
8.019e-06
0.000153
5.29e-06
8.298e-05
0.000167
1.857e-06
0.0006284
1.48e-09
0.0001516
4.564e-05
5.699e-05
4.299e-06
0.0001462
0.004401
0.0001456
0.006266
0.01979
7.024e-05
0.0003993
8.986e-06
0.0001935
0.0001603
3.868e-07
8.195e-06
1.777e-05
2.505e-06
1.15e-06
0.001553
0.0001926
4.349e-05
5.491e-06
0.01253
9.62e-06