/*--------------------------------*- C++ -*----------------------------------*\
  =========                 |
  \\      /  F ield         | OpenFOAM: The Open Source CFD Toolbox
   \\    /   O peration     | Website:  https://openfoam.org
    \\  /    A nd           | Version:  8
     \\/     M anipulation  |
\*---------------------------------------------------------------------------*/
FoamFile
{
    version     2.0;
    format      ascii;
    class       volScalarField;
    location    "20";
    object      nut;
}
// * * * * * * * * * * * * * * * * * * * * * * * * * * * * * * * * * * * * * //

dimensions      [0 2 -1 0 0 0 0];

internalField   nonuniform List<scalar> 
127143
(
6.28e-23
3.412e-22
2.229e-21
2.671e-20
2.233e-19
2.786e-20
1.232e-17
1.711e-18
5.109e-19
2.255e-18
2.067e-17
1.631e-18
1.187e-20
5.442e-20
1.033e-08
4.799e-16
9.309e-20
0.005303
0.00398
1.216e-13
7.885e-05
3.25e-13
6.656e-05
1.486e-08
2.721e-13
2.79e-11
1.131e-13
1.183e-13
7.275e-12
0.005529
2.169e-09
2.388e-11
1.374e-12
1.443e-10
5.031e-05
1.382e-12
2.343e-05
0.0001187
4.382e-08
8.908e-12
0.003992
4.257e-06
4.618e-06
6.257e-19
0.005331
2.377e-10
8.052e-12
0.0003877
1.941e-08
2.958e-08
1.782e-15
0.0004417
8.89e-06
4.675e-05
0.00667
2.46e-09
0.006669
9.282e-05
0.005687
4.403e-05
4.06e-06
0.001891
3.904e-07
0.006702
4.95e-10
2.255e-05
6.486e-05
3.261e-07
3.345e-07
0.002688
8.042e-09
3.681e-13
0.002819
0.005014
0.006693
3.637e-13
0.0008045
4.01e-05
2.57e-09
0.006705
5.763e-12
1.304e-13
4.181e-09
3.501e-11
0.001669
7.502e-05
9.759e-08
9.152e-13
2.33e-05
3.074e-08
0.00621
0.0001159
1.073e-07
8.075e-05
5.267e-07
0.0001023
4.619e-06
4.977e-10
0.0001628
5.556e-05
0.006705
2.441e-08
1.315e-09
8.895e-06
8.923e-05
0.0001447
2.437e-07
0.002689
9.239e-06
0.00668
1.674e-08
6.655e-13
9.703e-06
7.858e-07
0.006692
2.86e-05
0.000574
0.006693
0.0008355
6.642e-15
0.006681
7.149e-09
5.292e-07
0.0001097
7.103e-12
3.576e-12
0.0009722
0.0009626
4.548e-07
1.693e-09
8.484e-06
8.076e-07
6.92e-07
4.37e-05
2.65e-17
9.987e-06
0.0001759
0.0001592
2.378e-11
0.0001526
5.254e-05
0.0009893
2.584e-05
0.0001565
9.384e-06
1.324e-06
5.978e-12
0.006702
6.345e-07
3.487e-10
3.747e-06
3.073e-08
8.155e-05
2.818e-05
4.215e-07
0.001719
7.344e-05
1.045e-09
0.0004127
3.082e-10
9.411e-09
1.287e-15
0.006646
8.744e-06
7.948e-11
1.072e-09
8.631e-06
8.437e-06
7.867e-10
0.0001957
2.921e-08
0.0001591
1.677e-05
1.512e-06
0.002496
0.0001241
2.411e-06
4.752e-07
2.989e-08
0.002102
1.535e-06
0.0006455
0.0001836
0.0001331
2.087e-09
0.001985
1.353e-05
8.226e-07
2.31e-08
0.0007926
3.066e-06
3.411e-07
0.0001809
6.03e-07
7.704e-18
0.0008367
0.006646
0.006629
1.66e-15
0.002827
0.006695
0.0001987
0.001947
3.393e-05
6.442e-19
1.576e-07
0.0001248
1.806e-06
0.004958
0.006692
0.0001077
0.001123
0.006688
9.163e-10
1.634e-06
3.858e-16
1.028e-09
1.736e-06
7.24e-06
0.0001226
2.801e-06
0.006694
2.783e-08
9.433e-06
1.538e-10
1.684e-08
2.938e-10
0.0001152
2.237e-07
0.0004743
5.675e-05
0.0007933
0.002973
1.06e-13
5.998e-05
0.0001026
8.681e-06
1.164e-20
0.00614
5.821e-06
4.224e-07
1.613e-09
0.0002909
1.205e-09
1.358e-05
9.958e-15
8.916e-08
1.092e-13
5.609e-15
0.002737
6.452e-06
4.622e-11
1.213e-06
0.0001014
1.027e-08
8.469e-06
0.001134
2.727e-09
6.417e-06
1.553e-05
0.0007048
0.0008689
7.243e-05
0.0009557
4.478e-06
1.199e-09
1.735e-07
1.21e-07
5.131e-06
3.062e-06
2.607e-10
0.002494
0.0007351
5.389e-06
6.291e-07
3.586e-06
1.068e-05
4.962e-08
0.002546
1.073e-05
0.003327
0.0001291
9.188e-06
0.00669
0.006692
7.703e-18
5.132e-06
0.006693
4.204e-08
0.002204
8.471e-05
4.738e-05
0.0001037
1.023e-05
0.006697
7.851e-06
3.556e-09
4.927e-06
0.000288
3.487e-06
7.44e-10
3.397e-05
1.42e-05
3.604e-05
9.924e-11
1.106e-06
1.847e-06
0.00669
0.001636
1.585e-06
1.869e-07
8.122e-08
1.379e-09
0.003694
0.006691
8.021e-08
9.308e-05
6.027e-10
0.0001091
0.003126
8.396e-05
4.777e-09
0.0003855
1.192e-06
7.204e-08
3.785e-05
0.0001082
3.406e-05
7.494e-09
2.333e-06
0.001067
0.006692
5.528e-05
0.006646
0.006629
3.123e-05
9.961e-06
1.691e-05
0.001063
2.694e-06
0.0001722
1.723e-06
1.236e-05
4.379e-06
1.188e-06
3.903e-08
4.068e-08
2.225e-06
1.166e-09
1.292e-07
1.78e-09
0.003987
8.124e-05
3.87e-06
0.0001353
8.159e-08
9.93e-05
1.913e-06
0.006377
7.443e-09
0.001217
4.531e-07
0.003125
3.329e-08
3.47e-08
0.006697
0.003202
0.002723
1.105e-09
0.002505
2.528e-06
0.0003552
1.557e-10
2.694e-08
0.0009379
0.0001092
5.6e-09
4.927e-13
0.0002415
0.002595
0.001584
1.328e-11
2.211e-09
2.898e-05
0.0006363
6.737e-14
4.356e-05
1.381e-11
0.0007549
0.0004732
0.006691
1.348e-05
8.913e-08
1.011e-08
2.19e-08
2.222e-09
1.395e-05
3.759e-09
0.0001327
0.0006518
3.657e-11
0.006694
6.095e-05
0.0002157
4.248e-05
2.168e-06
0.0001247
7.218e-07
0.006705
4.239e-08
2.289e-06
8.434e-10
4.7e-05
0.0005034
7.823e-07
6.243e-07
5.825e-05
1.146e-10
1.872e-05
3.435e-08
1.053e-05
2.23e-11
6.83e-07
0.003026
0.000437
1.283e-05
4.507e-06
3.905e-05
2.814e-09
9.52e-05
0.006677
7.102e-07
5.346e-05
0.0006633
8.102e-07
0.006697
1.587e-06
4.923e-08
0.0004728
0.006696
0.00669
4.445e-08
0.0001433
8.936e-06
0.0003256
7.054e-10
0.005998
6.882e-08
0.002782
0.001137
0.0001264
5.041e-09
2.686e-06
5.207e-10
3.692e-05
5.898e-05
5.223e-10
4.787e-09
7.951e-05
8.971e-06
1.032e-06
2.446e-06
0.0005659
8.393e-07
2.188e-06
0.002547
0.001433
2.207e-05
4.085e-08
0.006667
0.0003161
4.553e-05
9.535e-05
9.598e-05
0.0001382
0.006645
6.833e-07
5.45e-05
7.265e-08
1.426e-05
6.923e-12
9.222e-08
2.022e-08
1.527e-09
5.561e-06
8.209e-07
1.582e-05
0.00669
7.055e-10
0.00089
2.023e-07
1.255e-07
5.833e-06
1.166e-06
1.988e-17
5.061e-06
1.154e-06
9.722e-05
1.372e-06
0.006687
6.109e-12
0.001446
0.0001364
0.0009014
1.097e-19
1.176e-15
1.401e-15
0.006697
9.854e-08
1.451e-07
0.00669
0.001421
2.96e-07
9.354e-06
7.238e-06
0.0001129
4.655e-09
0.0003248
1.417e-12
0.0026
0.0009507
3.234e-14
1.763e-08
9.526e-10
4.94e-08
0.006007
4.24e-06
0.001706
0.0005577
0.006624
2.988e-10
9.859e-11
7.505e-08
0.006638
2.178e-05
0.0001164
8.514e-09
3.441e-06
2.192e-10
0.0009763
0.0008938
6.22e-07
4.659e-06
0.006668
3.637e-05
1.695e-05
5.659e-09
3.697e-08
2.484e-08
9.946e-09
0.0008034
1.608e-06
6.382e-08
1.359e-05
9.416e-07
0.003357
2.424e-11
1.258e-05
5.327e-10
5.763e-07
0.0003489
0.006702
0.006701
1.683e-05
3.186e-08
1.255e-06
0.006692
0.004883
1.235e-05
3.851e-09
0.0001234
5.345e-06
4.492e-09
2.502e-11
2.5e-05
0.001144
0.006682
6.383e-08
0.00018
4.351e-07
0.004993
3.659e-13
9.61e-07
9.524e-07
0.00259
9.921e-11
0.006692
0.0001522
0.0004006
0.0006455
0.005006
1.967e-07
0.0007049
9.091e-14
0.006644
2.651e-07
1.178e-09
0.00669
2.193e-06
0.005146
1.062e-07
2.285e-05
0.00669
9.381e-09
7.36e-09
2.242e-07
5.542e-07
3.353e-05
2.388e-09
2.747e-09
1.478e-06
6.139e-08
1.621e-07
3.857e-08
4.376e-05
5.14e-06
2.671e-10
0.005579
2.253e-09
0.00669
1.221e-06
0.0008215
2.826e-05
0.006677
0.0056
7.173e-05
3.777e-08
2.358e-05
0.00648
0.006675
3.381e-07
1.609e-11
1.197e-08
9.138e-10
0.002259
9.445e-06
0.0001355
1.952e-06
4.751e-06
2.664e-07
2.099e-10
0.00648
1.773e-08
5.831e-06
9.441e-05
1.028e-05
0.00663
0.004884
3.721e-05
7.185e-11
1.6e-05
2.038e-11
0.0007528
0.003839
4.212e-06
2.144e-08
0.0001916
1.015e-09
9.544e-05
0.0006551
5.061e-08
6.431e-06
6.608e-06
2.347e-05
1.674e-18
2.632e-08
8.628e-05
5.703e-05
5.638e-06
1.3e-07
2.466e-10
1.393e-08
0.0004118
8.691e-07
3.958e-06
6.802e-05
0.006678
5.951e-08
1.883e-05
4.57e-06
0.006638
0.006677
6.589e-12
9.529e-05
6.34e-09
2.887e-07
1.879e-07
0.001618
2.894e-05
3.223e-10
1.007e-05
1.088e-08
0.006689
0.006667
5.765e-06
1.386e-05
2.206e-09
5.023e-06
2.194e-10
0.002072
1.085e-08
9.181e-05
0.002537
0.003974
8.474e-10
0.0001507
8.126e-09
2.613e-17
8.155e-07
5.271e-06
0.0002787
0.004815
4.547e-07
3.571e-08
1.256e-11
0.004546
0.0003983
4.772e-06
6.468e-10
5.489e-05
2.52e-08
0.003252
1.95e-08
3.081e-07
1.622e-06
0.001025
5.779e-05
2.068e-22
2.162e-05
0.0001773
1.725e-07
2.949e-07
1.269e-07
0.006686
4.643e-05
0.003986
0.0001287
0.003672
1.596e-11
1.014e-06
9.185e-11
0.003574
9.135e-09
3.629e-05
2.801e-08
1.872e-07
0.003988
0.0002812
9.648e-08
1.924e-08
8.103e-05
0.002512
1.241e-05
5.102e-07
0.003367
1.723e-06
5.616e-05
1.706e-07
5.36e-06
3.574e-05
7.983e-07
1.709e-11
3.319e-07
0.006609
0.0002748
0.001986
2.348e-11
1.35e-09
4.747e-05
0.001489
1.596e-08
0.006621
1.132e-05
5.46e-08
1.556e-05
2.929e-13
1.547e-05
9.507e-08
9.47e-06
0.0004154
1.812e-05
0.006697
4.289e-19
8.603e-06
7.246e-07
6.386e-09
0.0001409
7.509e-07
2.076e-06
1.41e-08
0.006681
0.00429
8.567e-06
0.003838
8.966e-07
2.098e-07
2.349e-07
5.422e-07
0.006659
0.0001577
8.903e-05
0.006689
0.006656
1.048e-05
0.001835
0.002247
9.192e-07
0.0001624
6.35e-15
4.865e-06
8.515e-06
0.006678
5.577e-05
1.466e-05
3.116e-09
2.039e-10
8.553e-06
0.003593
0.006175
0.001057
2.926e-13
0.006679
9.628e-05
2.925e-10
3.928e-07
2.114e-11
0.005762
0.0005949
4.108e-07
0.006693
1.29e-09
0.006679
1.878e-07
6.703e-11
5.358e-08
7.764e-06
2.804e-12
0.0064
1.969e-08
2.018e-05
3.973e-10
8.449e-07
2.863e-10
3.985e-10
4.956e-05
6.58e-05
1.18e-05
9.731e-15
0.006692
0.0002519
3.676e-09
8.211e-09
3.432e-06
9.517e-13
0.003658
0.0002241
5.874e-08
1.058e-11
1.964e-14
1.119e-07
3.101e-16
1.792e-08
5.421e-16
1.285e-06
1.044e-08
0.004291
1.56e-13
0.0008175
1.656e-07
0.004957
0.005081
2.186e-05
0.0004425
8.405e-07
0.003084
7.636e-07
4.858e-05
0.0003662
4.029e-08
1.438e-07
0.006314
0.003226
2.162e-05
0.0004264
5.517e-09
9.045e-14
0.0004183
2.133e-06
1.483e-08
0.0002283
3.146e-07
0.006687
6.16e-06
9.001e-09
0.006412
1.843e-08
1.33e-05
0.002069
0.006664
0.002865
0.002466
1.281e-15
1.357e-05
8.481e-14
0.0003262
1.131e-06
2.339e-07
4.748e-10
7.051e-09
0.005569
4.756e-11
9.741e-06
0.005441
9.964e-06
1.451e-13
0.0009818
3.568e-09
3.771e-06
1.596e-05
1.024e-10
3.667e-16
1.445e-08
0.0008816
0.006693
2.101e-06
8.168e-06
3.99e-06
1.195e-08
6.906e-07
9.592e-11
3.562e-05
5.552e-05
8.118e-11
0.0001477
2.011e-12
0.006688
0.0003202
5.922e-08
6.705e-05
6.921e-07
0.000179
0.006691
0.00232
1.483e-08
4.159e-05
2.6e-06
1.838e-08
1.748e-07
0.00108
1.575e-05
1.076e-07
2.993e-08
1.265e-14
1.056e-05
1.342e-09
2.6e-08
2.442e-06
0.001059
5.633e-07
8.928e-07
1.363e-08
1.277e-12
0.0001584
0.006686
0.006682
0.0004098
0.0001748
8.843e-05
0.00669
1.669e-06
0.0001307
6.471e-05
2.711e-07
3.027e-05
1.545e-07
2.275e-06
0.006705
7.102e-05
5.285e-05
5.602e-12
1.147e-10
3.661e-05
1.129e-05
0.0003358
1.175e-09
1.815e-08
1.139e-06
0.002347
6.35e-07
1.127e-07
8.88e-06
6.984e-11
0.006478
9.755e-12
3.813e-10
0.002071
7.223e-07
9.866e-09
0.004494
1.229e-13
1.366e-14
0.006265
0.00669
3.985e-06
3.464e-05
5.379e-14
2.996e-06
1.812e-07
9.376e-09
7.188e-08
7.579e-05
0.0001074
0.00343
3.608e-08
0.001506
3.372e-07
1.695e-05
4.216e-09
4.66e-05
0.005392
2.174e-14
1.079e-05
0.006691
2.599e-08
0.00564
0.006685
1.312e-06
7.712e-05
2.847e-14
0.006686
1.389e-09
0.006693
1.51e-07
9.041e-05
0.003679
5.376e-06
2.398e-09
8.148e-09
3.407e-08
6.922e-07
0.003644
0.0005641
6.414e-05
4.882e-08
7.225e-07
1.255e-07
1.59e-12
3.556e-08
1.431e-13
4.055e-07
8.669e-09
1.871e-09
7.495e-09
1.804e-11
5.456e-06
0.004106
0.004055
1.082e-08
1.358e-05
1.493e-10
0.00291
1.506e-08
0.0005157
2.786e-07
1.705e-07
2.703e-06
6.557e-05
9.876e-10
0.001116
2.822e-07
2.76e-06
1.351e-09
7.628e-07
0.006528
1.418e-06
9.636e-09
0.006631
9.777e-08
1.396e-09
0.006673
2.64e-05
2.267e-06
0.0003066
5.455e-06
0.0002065
6.536e-05
0.0001039
0.006662
2.238e-07
5.264e-07
0.006697
7.44e-06
0.0001558
0.0001413
1.712e-07
3.648e-06
0.0004004
4.909e-08
2.024e-12
2.595e-09
1.955e-08
0.0006095
1.526e-13
0.002768
8.193e-08
0.006692
3.99e-05
5.626e-06
1.121e-07
1.668e-07
5.181e-08
2.416e-12
0.006698
7.436e-15
3.444e-09
7.485e-09
4.885e-07
4.396e-09
0.001222
0.00448
6.467e-11
3.249e-07
6.531e-05
5.186e-18
7.933e-05
1.545e-08
5.032e-10
5.102e-08
1.431e-07
8.48e-05
5.365e-10
2.054e-07
4.96e-06
7.225e-06
4.823e-09
1.107e-08
0.001019
9.083e-14
9.317e-05
1.24e-07
0.0001181
1.444e-09
0.006644
0.00669
6.451e-05
8.217e-14
0.0002399
0.002512
3.153e-14
3.448e-08
0.006692
2.81e-11
1.878e-07
1.356e-05
9.049e-13
2.596e-05
1.417e-05
1.376e-17
0.003156
9.112e-11
0.0007057
2.997e-07
1.142e-11
1.379e-08
3.115e-10
4.876e-06
2.004e-08
0.0001092
0.003194
3.035e-06
2.059e-06
4.225e-06
2.246e-07
0.001873
1.632e-10
0.000627
8.326e-05
0.001343
3.961e-06
3.325e-05
2.646e-06
9.384e-14
5.931e-05
1.793e-12
8.418e-10
5.277e-06
1.474e-05
0.006693
0.001133
1.931e-06
3.24e-05
8.592e-10
8.08e-10
1.314e-10
0.006681
6.163e-09
3.421e-08
1.274e-05
2.793e-14
1.095e-06
0.003233
9.615e-08
0.002476
6.366e-08
7.34e-06
4.942e-12
1.954e-07
0.0006547
0.0002675
0.006696
3.755e-16
2.532e-14
5.032e-05
7.141e-05
5.19e-06
0.006495
0.006647
6.208e-07
0.0009283
0.003312
8.611e-05
0.003174
0.003114
1.514e-06
3.994e-05
0.001427
1.719e-08
2.422e-08
1.454e-14
3.283e-05
2.145e-10
9.028e-06
4.461e-07
0.006649
2.547e-09
0.0007066
3.226e-07
1.049e-14
1.567e-05
0.001732
4.118e-06
4.28e-07
1.773e-05
5.071e-15
0.001804
1.057e-05
0.001561
0.00149
9.2e-06
3.137e-08
4.299e-15
7.119e-05
9.929e-08
0.006674
1.554e-08
1.305e-08
0.006663
4.861e-09
7.382e-07
1.506e-05
5.108e-09
0.006682
2.38e-05
1.487e-16
0.004516
3.626e-08
3.488e-08
2.649e-07
3.821e-11
5.808e-05
9.402e-06
1.783e-07
4.627e-11
9.937e-06
5.452e-08
1.832e-05
1.978e-07
2.832e-10
1.532e-10
9.235e-08
9.89e-06
0.00669
1.198e-07
0.003271
3.346e-10
3.313e-07
0.001953
8.868e-06
0.00669
1.906e-05
6.12e-07
0.006606
0.002091
0.006145
5.188e-10
0.00211
1.52e-13
1.967e-06
1.246e-05
4.116e-09
1.546e-05
7.072e-08
7.74e-09
3.597e-16
6.752e-06
1.123e-06
1.691e-05
3.833e-05
0.0007664
0.006702
3.788e-05
0.00127
0.0007529
0.006699
0.001761
0.006685
5.696e-08
9.094e-06
0.006672
0.006684
1.566e-06
9.023e-05
8.04e-09
7.458e-05
0.006677
6.168e-06
2.838e-05
6.446e-05
8.275e-16
3.106e-10
2.01e-13
6.579e-08
6.241e-07
1.523e-08
6.195e-08
0.0002387
0.0001836
6.856e-12
0.0005988
5.705e-09
3.133e-09
1.287e-06
4.857e-06
0.003752
0.006686
3.281e-16
1.157e-05
3.423e-11
0.006692
1.278e-14
4.808e-08
1.039e-08
7.843e-06
0.006636
0.006635
0.001827
0.001612
0.002161
0.001361
3.471e-07
5.714e-05
4.913e-06
0.003174
1.085e-05
1.269e-10
1.251e-06
0.0001422
7.711e-05
9.016e-06
5.487e-10
1.315e-08
2.296e-07
1.118e-08
0.0003253
0.002589
1.679e-05
6.549e-06
7.17e-13
1.246e-05
0.0003188
3.129e-07
0.00247
1.066e-07
6.518e-05
1.567e-10
0.003972
0.006692
0.0002735
7.715e-07
6.812e-15
2.694e-11
9.201e-05
8.82e-06
4.922e-09
8.795e-05
0.006617
1.735e-08
5.024e-08
1.179e-15
5.606e-05
1.211e-13
1.398e-05
0.006685
3.508e-08
5.691e-08
0.001153
1.384e-05
0.000199
1.932e-07
4.375e-07
6.755e-07
0.0007697
8.441e-10
0.0001292
3.454e-08
3.42e-09
1.059e-09
0.003334
0.003331
5.916e-09
8.062e-06
3.59e-15
6.736e-07
5.097e-10
3.626e-10
3.088e-16
0.002894
5.438e-07
0.0003875
0.003701
0.006685
0.0005664
0.006271
1.589e-14
0.006691
2.905e-11
4.101e-05
1.12e-06
3.913e-07
1.41e-09
0.002687
1.309e-11
8.043e-05
1.75e-07
0.0002289
2.582e-12
0.006687
2.265e-07
3.591e-08
0.0003311
2.526e-09
4.908e-08
9.516e-05
1.852e-08
5.052e-09
0.0001712
0.006661
1.481e-10
0.002691
0.006654
5.687e-05
8.591e-10
0.006661
2.867e-11
0.006694
8.615e-06
5.095e-06
0.0004203
5.577e-07
0.006657
0.0002468
1.04e-08
9.136e-05
3.395e-05
2.633e-06
3.685e-05
0.006691
0.00668
4.464e-06
3.966e-15
1.17e-06
2.079e-07
0.0008316
2.542e-12
7.729e-05
4.792e-05
0.003026
2.006e-05
1.268e-06
2.092e-09
0.0006271
4.414e-08
0.001075
3.295e-06
0.006703
4.091e-06
1.064e-07
0.0003545
7.746e-07
8.531e-10
5.217e-07
0.006676
1.412e-05
6.031e-11
1.286e-07
1.461e-14
2.559e-10
0.002256
0.0003143
1.393e-05
9.348e-12
1.221e-05
2.31e-08
9.87e-11
0.002934
6.04e-05
0.006687
1.913e-07
4.822e-08
1.6e-06
0.006693
5.111e-07
0.006692
9.999e-05
1.236e-06
0.006687
0.002756
5.64e-05
1.062e-06
0.0002594
0.002755
1.105e-08
0.006696
1.002e-08
6.579e-11
1.123e-05
0.003847
6.519e-08
0.000938
5.413e-06
9.273e-05
5.936e-10
3.298e-07
6.722e-05
1.156e-09
1.17e-06
1.064e-07
9.349e-11
0.0001424
4.287e-05
2.289e-07
0.0002065
2.79e-08
0.0001079
1.028e-05
2.787e-07
0.0003251
0.002632
5.611e-09
0.00251
2.27e-06
4.529e-06
1.613e-14
1.864e-05
5.215e-13
6.262e-05
0.006663
5.368e-13
1.044e-07
9.719e-05
9.236e-09
0.0004188
2.224e-05
0.006705
0.001061
1.817e-12
0.0004763
4.79e-06
3.325e-07
9.718e-08
0.006695
3.913e-07
7.701e-06
7.04e-06
3.22e-10
0.0004449
2.344e-07
5.915e-11
0.006687
0.0002402
4.964e-05
0.002848
3.891e-06
1.809e-05
3.159e-05
1.637e-06
0.0001027
0.0007531
0.003276
4.853e-05
6.577e-07
0.006531
2.644e-05
1.995e-09
1.673e-13
0.006689
3.392e-07
9.739e-13
0.001576
5.156e-09
0.001538
8.968e-08
1.559e-13
0.003092
0.002638
1.972e-05
0.0009399
4.972e-10
3.807e-06
0.0004427
1.055e-11
6.691e-08
0.0004568
2.973e-08
5.668e-17
1.55e-16
3.975e-05
1.406e-05
1.18e-07
7.092e-05
0.0006545
2.896e-06
0.0004109
4.076e-09
1.038e-06
1.909e-06
5.652e-08
3.936e-12
0.0001192
2.807e-05
0.006691
2.625e-08
2.742e-05
3.525e-05
1.578e-05
7.75e-05
1.018e-07
3.639e-05
0.003589
0.006665
4.995e-09
2.64e-10
2.235e-05
1.255e-08
0.0003585
1.449e-14
1.814e-08
0.0001883
1.08e-07
1.758e-10
3.997e-05
1.702e-07
3.914e-15
0.006609
1.636e-11
8.929e-09
8.237e-08
0.004955
0.0002784
0.001173
5.545e-10
1.378e-08
0.001588
1.848e-10
0.004961
5.851e-06
4.967e-08
0.0001322
0.001706
0.005916
3.893e-09
2.017e-10
1.083e-07
1.482e-10
2.197e-11
0.0002848
3.432e-13
0.002706
2.588e-08
6.39e-06
0.00241
0.0001171
0.004374
9.877e-07
0.0005866
1.693e-07
0.00323
1.899e-07
3.931e-16
3.009e-13
1.846e-05
4.38e-05
3.49e-05
1.295e-05
0.001943
0.0002074
7.051e-07
8.023e-05
0.006696
3.262e-07
1.441e-07
2.212e-08
2.839e-06
2.716e-06
5.139e-08
8.299e-05
5.23e-09
1.551e-13
9.503e-12
0.0001083
2.033e-07
6.109e-16
0.001312
2.862e-09
0.003853
2.245e-06
4.735e-06
5.433e-18
4.126e-06
2.394e-06
0.003601
0.0001814
2.008e-08
1.04e-05
0.006692
0.006697
0.0006336
1.94e-10
0.001246
1.7e-07
1.051e-13
1.735e-06
0.001298
3.556e-10
0.002221
7.467e-06
1.893e-11
7.729e-05
0.004372
9.578e-06
3.164e-06
7.204e-05
2.703e-07
0.006696
7.531e-08
0.00328
4.276e-10
0.003475
3.432e-08
1.493e-11
1.725e-05
3.159e-10
7.847e-05
4.285e-09
1.154e-07
4.917e-09
1.986e-05
0.001016
2.106e-05
8.986e-05
3.068e-09
6.201e-06
3.306e-10
3.677e-08
0.006697
4.63e-06
0.003866
9.69e-10
3.491e-07
0.002526
0.0004245
8.275e-05
1.033e-11
0.003501
5.853e-06
0.0005481
3.95e-05
0.001901
7.288e-05
0.0001143
1.707e-13
0.0001133
0.0003444
8.947e-09
0.006671
0.0005938
6.852e-05
5.756e-05
0.001055
0.006687
9.854e-05
3.997e-08
9.196e-09
0.006692
0.0009957
0.002247
1.62e-06
3.287e-08
0.001215
1.634e-05
7.055e-05
7.636e-10
3.028e-09
0.001657
6.407e-07
2.162e-05
9.811e-05
1.974e-07
2.868e-14
0.001907
7.436e-10
5.668e-09
0.001476
1.671e-14
0.006691
0.006661
1.39e-05
1.719e-05
2.174e-16
0.006692
0.0008286
9.286e-09
6.442e-15
4.248e-08
1.88e-09
0.006301
0.006378
7.58e-09
2.893e-07
7.993e-05
6.394e-07
5.523e-05
0.0007456
2.784e-05
0.006705
3.433e-10
7.43e-08
2.833e-07
0.0001857
1.217e-11
0.001346
1.785e-05
0.006662
2.858e-06
5.786e-08
6.795e-10
6.871e-09
2.587e-06
2.003e-11
1.525e-07
2.279e-06
1.88e-07
1.065e-08
1.442e-06
0.0001093
5.998e-07
1.193e-10
0.004861
0.005074
1.1e-07
3.004e-06
1.405e-12
9.547e-06
4.584e-09
1.258e-07
0.002694
0.006691
7.625e-06
0.006702
5.5e-05
1.487e-13
2.241e-06
9.216e-05
3.214e-07
0.0001245
7.683e-12
5.811e-08
0.003117
2.261e-06
2.853e-06
2.317e-07
0.0003263
2.744e-07
1.621e-06
1.025e-06
6.378e-06
3.74e-05
1.819e-06
0.0008806
4.275e-10
1.354e-07
6.885e-06
6.432e-06
9.507e-11
1.02e-05
1.598e-07
2.13e-08
1.018e-06
8.544e-06
1.518e-06
3.673e-13
0.0001148
7.62e-08
0.00151
0.0009151
0.006703
1.104e-07
0.002545
3.37e-13
3.606e-07
4.144e-05
8.265e-10
3.407e-15
1.349e-10
1.112e-05
3.733e-07
4.12e-10
1.195e-11
0.002491
0.0002867
1.05e-06
8.094e-16
2.681e-06
2.865e-05
6.758e-05
7.623e-05
0.006692
6.642e-05
2.286e-10
7.052e-06
4.4e-08
0.00195
8.854e-05
1.058e-11
0.006645
4.286e-05
0.0001112
0.001506
9.068e-10
7.217e-05
1.843e-05
0.003054
5.561e-05
4.666e-08
1.205e-06
1.882e-14
1.044e-08
1.38e-06
0.006674
5.249e-05
8.893e-06
2.797e-10
6.839e-09
8.594e-07
0.00324
9.71e-07
0.006224
2.003e-08
4.731e-09
8.495e-06
1.642e-06
1.444e-05
1.66e-11
9.875e-10
1.309e-08
1.59e-06
5.57e-05
1.491e-06
1.276e-10
0.004119
0.000106
1.287e-13
0.002858
0.0001308
0.005052
0.006699
1.341e-06
0.002819
2.104e-08
3.515e-07
0.0001454
6.444e-05
1.083e-09
1.598e-11
2.526e-06
7.987e-09
2.613e-06
0.001274
8.481e-15
3.851e-05
4.998e-06
0.003129
5.159e-14
0.0007831
3.062e-11
7.215e-13
0.003602
4.516e-09
1.159e-09
9.119e-06
0.0004638
8.361e-10
1.156e-07
1.429e-09
0.0001539
2.798e-05
0.000193
0.004188
0.0067
4.902e-05
0.0005229
4.031e-07
1.248e-06
7.142e-06
1.154e-13
0.0005474
0.005066
1.172e-08
3.165e-05
0.001033
4.799e-07
1.418e-05
8.649e-07
1.905e-09
3.748e-10
6.965e-13
3.206e-07
4.026e-08
9.435e-08
6.285e-06
5.845e-07
2.16e-05
3.757e-14
1.741e-08
3.02e-07
9.481e-06
0.006678
1.476e-07
1.031e-08
0.0006546
9.582e-06
6.162e-13
1.146e-09
2.426e-07
0.0001693
2.071e-06
8.813e-10
0.00669
1.73e-09
0.00167
0.0001283
8.74e-07
5.63e-09
0.006698
9.536e-08
0.0005347
2.399e-06
5.098e-12
3.475e-06
4.704e-07
3.441e-16
5.166e-05
4.854e-08
0.00666
0.006638
5.845e-08
1.951e-05
1.423e-05
2.753e-09
1.919e-07
0.006685
1.149e-11
7.5e-10
7.759e-06
0.006696
0.00421
6.731e-06
9.15e-06
5.149e-08
1.962e-16
2.866e-09
0.005555
2.168e-09
1.332e-12
8.611e-05
3.447e-09
1.735e-08
0.002897
6.051e-05
1.236e-09
0.001383
0.0001592
0.006632
0.006587
0.006612
0.006279
0.0001264
0.0005302
1.5e-06
5.982e-09
4.954e-06
1.381e-06
3.215e-05
7.209e-11
0.006132
1.943e-06
5.146e-05
6.281e-09
3.734e-10
2.345e-09
7.058e-06
4.168e-07
1.846e-08
1.407e-05
1.272e-07
0.0001682
2.24e-07
1.941e-15
5.826e-08
6.649e-12
4.061e-06
1.4e-07
0.006691
4.541e-14
6.734e-06
1.631e-08
5.529e-06
0.0001302
1.027e-13
0.006693
2.455e-05
9.618e-10
0.004398
1.895e-07
6.269e-06
0.0002655
1.256e-05
1.875e-10
8.165e-05
1.296e-08
0.006624
8.467e-06
5.996e-06
3.787e-07
0.0005681
3.748e-07
0.006678
0.005146
6.343e-05
3.082e-07
4.507e-09
9.739e-05
0.0002132
1.211e-07
1.307e-05
4.4e-10
1.544e-08
0.001023
0.002124
0.0006582
1.466e-05
0.0001052
5.508e-15
3.73e-06
0.00669
5.126e-12
0.006692
0.006686
7.619e-05
0.002704
7.523e-11
0.000454
1.864e-10
0.0001333
1.727e-08
0.006695
9.45e-05
7.898e-07
6.597e-08
0.001372
0.003663
6.294e-05
5.146e-12
4.576e-12
0.006702
4.569e-13
3.931e-12
2.401e-16
0.003059
0.00141
0.0003054
9.163e-05
0.0006397
0.001738
4.571e-07
2.719e-12
9.864e-06
1.782e-09
1.47e-15
0.006691
1.085e-08
5.334e-11
2.079e-07
0.006693
1.069e-09
2.841e-13
2.577e-15
1.288e-14
0.0001065
1.124e-05
1.683e-14
0.0002626
5.158e-06
0.006686
0.000266
3.865e-10
0.003034
2.917e-08
1.399e-14
8.434e-05
2.408e-05
3.048e-07
0.006706
0.004164
4.891e-09
1.031e-09
0.002983
4.962e-10
2.832e-07
3.828e-05
0.001038
1.357e-05
8.127e-07
1.876e-05
0.006691
7.887e-06
5.884e-06
6.531e-08
7.335e-08
1.127e-07
5.243e-09
1.775e-07
1.162e-13
7.047e-16
4.4e-18
3.633e-09
0.000151
2.178e-09
0.0003379
4.705e-10
6.382e-10
0.006691
3.424e-15
0.006705
6.023e-07
4.529e-13
4.297e-11
4.81e-05
6.146e-07
1.647e-07
4.036e-08
0.006629
1.645e-15
8.412e-07
0.003012
0.001158
1.141e-05
1.019e-13
4.244e-13
4.287e-14
0.0008929
8.202e-09
2.73e-09
0.0001781
2.548e-05
2.905e-07
4.345e-13
0.006667
2.402e-05
4.294e-07
5.086e-06
6.116e-07
0.0001945
0.003511
9.173e-12
1.756e-07
1.228e-07
7.886e-13
0.003027
3.541e-11
4.05e-05
5.368e-07
6.65e-07
0.006438
0.0001014
6.79e-07
1.33e-09
1.45e-08
1.286e-13
0.003027
0.00452
7.872e-06
4.721e-08
1.929e-11
0.0001476
0.003215
0.006434
0.0002835
4.762e-10
0.006347
9.018e-08
1.525e-08
8.884e-05
6.969e-07
0.0001079
4.347e-12
8.084e-14
1.082e-14
8.546e-05
2.176e-09
9.72e-06
1.045e-07
0.001835
0.001753
9.06e-13
0.0008053
8.397e-10
3.709e-08
1.718e-10
9.051e-08
2.571e-05
1.816e-13
0.0006532
3.873e-07
1.354e-05
0.003295
4.845e-07
9.3e-05
0.002247
1.209e-06
2.805e-07
1.002e-05
3.948e-07
6.842e-07
6.098e-14
1.737e-15
0.002463
5.338e-15
0.00254
7.674e-05
0.0001133
0.0001625
9.117e-07
0.006704
3.134e-08
8.39e-14
8.84e-08
9.645e-11
0.0008011
4.94e-05
8.247e-08
3.586e-06
0.0008949
2.043e-09
0.001259
9.994e-12
7.945e-08
0.005321
6.496e-06
3.72e-07
0.0067
0.0004172
9.713e-11
0.006694
2.438e-08
2.907e-07
4.208e-08
4.73e-06
2.505e-11
0.002675
0.0008959
5.332e-05
2.196e-09
9.696e-10
4.397e-09
4.659e-07
0.006684
1.515e-08
0.006688
7.368e-05
9.055e-07
0.0004889
1.235e-14
4.961e-07
2.3e-09
0.001973
3.3e-10
2.493e-05
0.00255
0.0002
1.045e-07
0.006669
7.507e-06
0.006694
8.366e-10
9.951e-10
3.816e-07
1.333e-05
0.006628
1.172e-08
1.189e-08
1.978e-07
1.171e-10
2.902e-08
8.799e-09
0.0006214
0.000147
1.093e-05
1.745e-05
1.277e-08
1.319e-06
0.0001078
1.773e-05
0.0001015
1.284e-06
2.568e-07
0.006623
0.006663
0.002023
0.0002934
5.43e-06
1.204e-08
3.642e-08
0.002525
5.428e-08
2.264e-06
1.425e-07
0.006697
8.383e-07
5.226e-05
9.306e-11
0.003071
2.54e-15
1.053e-05
6.264e-11
0.003645
0.000108
1.768e-13
0.0003045
1.53e-07
9.099e-08
4.151e-08
2.532e-07
4.959e-07
0.006693
9.038e-08
2.065e-07
4.877e-06
1.458e-05
4.815e-06
4.608e-06
0.0001165
3.224e-07
8.534e-09
0.006685
0.0002549
6.262e-07
1.142e-11
7.11e-06
0.006701
4.544e-09
1.34e-10
0.0001956
0.0001033
2.262e-06
5.282e-09
0.0001798
1.194e-06
4.764e-07
0.002058
6.018e-06
1.399e-05
0.005344
5.532e-06
1.506e-14
0.0003775
7.511e-06
2.455e-12
1.497e-05
4.537e-06
0.006689
0.0002998
8.353e-05
0.003628
8.124e-13
1.345e-06
0.006697
0.001081
3.382e-07
1.887e-16
0.006697
0.0002506
7.446e-11
1.499e-07
6.589e-06
7.43e-08
5.814e-09
2.914e-07
2.833e-06
1.676e-09
1.041e-12
9.011e-11
0.002141
1.468e-05
4.41e-05
2.568e-06
0.006683
5.838e-05
8.7e-07
0.0003888
1.996e-07
4.805e-14
3.607e-11
0.002686
1.595e-08
7.395e-13
0.001666
8.352e-09
0.0002608
3.967e-05
7.299e-05
2.151e-10
1.14e-13
0.006687
1.064e-08
2.172e-07
0.006697
5.91e-12
0.000411
1.158e-05
0.000131
1.152e-05
2.026e-09
2.456e-07
6.073e-07
0.0067
0.003173
0.003194
6.974e-06
0.006676
6.071e-06
0.0003803
5.871e-10
0.002973
0.0004013
6.622e-09
1.161e-10
0.00179
3.731e-06
0.006673
1.254e-13
8.637e-06
2.656e-09
5.301e-09
9.556e-05
1.799e-08
2.64e-06
4.086e-08
2.388e-14
0.003731
1.754e-13
0.00667
0.006684
8.365e-05
5.789e-05
0.006683
8.047e-15
7.936e-08
2.706e-08
4.149e-10
1.364e-06
2.998e-05
0.004949
7.008e-15
0.0005051
2.907e-07
0.006662
2.625e-05
5.338e-05
6.787e-05
1.549e-05
1.27e-05
0.003006
8.021e-08
0.006655
1.016e-05
1.362e-09
7.507e-10
1.332e-12
8.825e-05
0.0002055
2.053e-06
0.006699
1.302e-07
7.629e-08
0.000276
0.0001996
4.106e-05
5.609e-14
0.005981
0.006678
1.519e-06
6.102e-09
0.002047
1.603e-09
0.006701
1.078e-09
2.286e-06
2.075e-07
0.006701
6.982e-05
8.053e-10
5.903e-08
1.026e-09
0.0001417
2.566e-06
0.006673
5.866e-09
0.004708
1.833e-09
1.058e-14
0.0009325
8.481e-06
0.00103
1.912e-09
1.016e-11
7.138e-08
8.752e-05
0.006656
1.358e-06
8.6e-05
0.006688
9.03e-09
3.615e-07
0.001455
0.006683
0.0001123
9.296e-05
0.0001819
2.405e-08
1.256e-05
0.006692
5.705e-08
2.828e-07
6.401e-08
0.0005324
0.006696
0.006689
0.0003701
1.455e-05
0.001168
2.967e-09
1.782e-14
1.999e-13
3.152e-07
6.171e-13
3.621e-11
0.002587
2.659e-14
6.089e-07
1.078e-09
0.003061
6.913e-05
3.494e-05
8.442e-10
8.007e-10
1.515e-10
1.222e-07
0.0002473
8.484e-05
2.732e-08
3.115e-07
7.311e-06
9.382e-05
2.796e-06
5.535e-05
2.978e-08
0.004221
2.428e-05
2.13e-06
5.297e-06
1.23e-05
9.221e-10
2.007e-15
4.846e-12
0.006661
1.131e-11
1.816e-05
0.006653
4.627e-07
0.006694
3.16e-09
1.072e-06
0.002727
5.134e-09
5.452e-08
0.006707
3.706e-05
0.00301
1.387e-12
0.000924
1.621e-05
8.472e-13
8.367e-06
0.006687
4.634e-11
0.0001455
0.0004106
1.705e-05
0.001372
1.037e-07
1.772e-14
3.382e-09
4.523e-07
0.0009722
3.148e-07
5.111e-06
0.006688
0.0001802
2.034e-08
2.979e-07
1.903e-06
0.006701
8.881e-14
5.946e-08
8.736e-07
8.027e-06
4.756e-05
5.973e-07
0.006654
0.0001453
4.965e-08
8.038e-07
4.756e-05
1.775e-07
3.115e-09
0.002183
8.77e-06
9.033e-06
0.001615
5.295e-05
0.002605
9.005e-07
1.566e-06
2.116e-06
0.0067
3.588e-09
0.002607
0.0001018
5.565e-06
1.353e-05
1.187e-09
8.133e-06
9.588e-17
0.0004481
3.627e-05
0.002508
0.006676
5.894e-06
1.308e-06
2.692e-11
1.073e-10
1.74e-06
1.028e-08
4.011e-10
1.193e-05
2.411e-05
5.227e-07
3.992e-09
2.704e-12
4.513e-06
0.0001296
2.985e-10
5.41e-05
2.938e-10
2.4e-06
0.001206
0.0005323
5.263e-08
0.006693
4.007e-06
6.549e-05
0.006689
0.0003388
2.811e-10
0.002465
9.029e-16
4.401e-09
1.269e-07
0.006689
1.509e-05
1.507e-07
0.003501
1.356e-05
3.991e-06
1.019e-08
4.428e-07
1.317e-09
0.006695
1.7e-07
0.006678
1.36e-05
2.259e-08
7.795e-08
6.044e-06
3.032e-09
7.099e-16
0.006607
0.006692
6.218e-07
2.04e-07
4.591e-10
3.689e-05
3.572e-07
1.821e-09
0.0003872
0.001131
0.002809
1.769e-07
8.438e-11
3.356e-05
0.0001576
0.006686
2.547e-07
6.134e-05
4.598e-06
1.081e-08
2.807e-06
0.001998
3.322e-09
1.371e-06
0.0004006
7.348e-08
1.425e-07
0.0001204
0.006684
0.006539
1.08e-08
4.083e-09
1.351e-06
0.003976
1.011e-05
0.003326
1.097e-07
1.445e-06
0.006604
8.787e-06
3.221e-05
2.308e-15
3.821e-11
1.813e-09
0.00668
3.481e-09
1.917e-07
1.168e-08
1.801e-08
2.425e-13
1.695e-05
1.133e-05
2.214e-07
3.929e-07
2.128e-09
1.95e-11
0.00239
0.002972
0.004301
9.023e-05
5.92e-16
0.0008285
0.001674
5.462e-09
9.078e-07
0.001136
6.913e-08
2.654e-06
3.787e-11
0.0007887
1.013e-07
5.746e-05
8.547e-06
7.812e-09
2.325e-15
0.0002158
7.874e-14
3.789e-13
0.00669
6.271e-14
5.643e-07
5.231e-10
5.792e-11
9.562e-06
0.0008246
1.742e-06
3.111e-07
2.208e-06
4.959e-05
0.0001799
0.0005205
5.167e-05
0.0004252
1.416e-05
1.647e-05
2.775e-05
0.001523
1.317e-13
2.772e-06
5.906e-10
2.996e-07
3.043e-09
0.006649
2.511e-09
3e-06
5.125e-11
0.0007291
2.663e-13
2.058e-08
2.383e-08
8.867e-05
1.524e-11
8.04e-05
0.0001089
3.374e-05
0.0001592
0.0001027
0.0001642
1.284e-06
1.78e-05
7.36e-07
2.11e-06
9.241e-08
0.0001186
2.888e-13
1.488e-06
1.502e-13
3.979e-05
0.000228
3.009e-06
0.001822
0.0001369
7.619e-08
0.006691
0.003113
0.006691
5.442e-05
1.499e-07
3.33e-07
0.002805
8.369e-06
0.0001386
5.616e-05
1.681e-14
9.308e-11
1.44e-13
5.008e-08
9.987e-05
1.288e-09
1.354e-09
0.0001162
3.475e-09
0.006695
2.168e-05
0.003434
1.598e-07
0.0008275
0.006679
0.006674
4.308e-07
0.002109
0.0001454
1.61e-14
1.287e-07
0.006672
0.006692
4.793e-07
0.0002544
6.438e-09
1.54e-12
0.005239
8.518e-06
1.383e-07
6.114e-08
4.503e-09
1.511e-14
4.355e-06
9.114e-05
7.284e-07
2.631e-08
3.473e-05
1.34e-08
1.067e-06
1.498e-05
2.252e-09
4.418e-06
6.708e-16
0.00579
3.209e-07
4.891e-09
2.138e-09
0.006695
0.0001085
0.006691
0.0004885
0.0003458
7.116e-07
1.099e-05
2.691e-08