/*--------------------------------*- C++ -*----------------------------------*\
  =========                 |
  \\      /  F ield         | OpenFOAM: The Open Source CFD Toolbox
   \\    /   O peration     | Website:  https://openfoam.org
    \\  /    A nd           | Version:  8
     \\/     M anipulation  |
\*---------------------------------------------------------------------------*/
FoamFile
{
    version     2.0;
    format      ascii;
    class       volScalarField;
    location    "20";
    object      omega;
}
// * * * * * * * * * * * * * * * * * * * * * * * * * * * * * * * * * * * * * //

dimensions      [0 0 -1 0 0 0 0];

internalField   nonuniform List<scalar> 
127143
(
1.528e+08
2.873e+08
3.278e+08
1.398e+08
1.173e+07
1.415e+08
4.635e+06
8.099e+06
1.294e+07
1.888e+06
6.817e+06
1.065e+07
3.857e+08
1.183e+08
2365
3.152e+05
3.958e+07
13.6
8.7
1.257e+05
24.69
2.853e+05
0.0836
375.7
3.073e+05
4452
2.31e+04
2.281e+04
1.551e+04
13.08
905.1
5020
2.499e+04
3451
0.04222
2.434e+04
102.6
61.27
254.7
8008
8.753
0.4541
0.32
5.491e+07
13.22
2584
1.436e+04
23.94
384.8
303.1
1.983e+05
0.02531
34.11
0.1607
0.02092
1125
0.02091
0.6509
0.02218
0.1597
0.3111
9.224
105.4
0.02211
1165
0.4392
0.04462
119.4
117.8
0.08337
501.1
1.555e+04
12.88
0.02218
0.02179
1.579e+04
0.02278
57.98
1068
0.02222
1.568e+04
1.118e+05
966.3
4518
15.31
45.19
190.6
1.624e+04
0.3602
1321
0.02207
14.35
734
24.31
113.2
0.3641
0.4133
1461
26.62
0.04416
0.02221
353.1
5999
12.47
41.74
28.14
137.3
0.0837
2.22
0.02132
1918
2.003e+04
46.52
11.1
0.02174
5.241
0.02298
0.02179
0.02268
1.152e+06
0.02134
948.1
133.7
0.1742
1.493e+04
9091
11.5
0.02343
82.04
1357
95.86
128.3
68.15
56
4.474e+06
89.59
0.05123
16.81
1.302e+04
0.04418
0.1197
0.02228
23.82
15.15
34.06
116.7
6.707e+04
0.02213
140.2
9313
22.63
347.9
92.21
0.0691
280.6
14.97
0.6499
1809
23.17
1741
507.5
3.737e+05
0.02209
94.68
3844
874.7
141.1
0.5375
2402
0.02593
3284
15.04
8.431
62.23
0.2715
89.02
74.3
81.1
295.4
0.03253
61.82
0.03322
72.39
85.49
1272
9.054
0.08164
10.54
320.5
0.03219
42.84
113.6
0.04736
264.6
8.206e+06
11.23
0.0194
0.01934
8.832e+05
0.02178
0.02169
0.02603
3.394
87.08
4.437e+07
159.3
0.04848
43.51
12.98
0.02174
0.578
19.75
0.02164
2310
180.6
9.14e+05
1.033e+04
46.94
70.24
0.04873
46.25
0.02184
360.2
38.3
2284
3613
2401
68.72
1069
16.27
27.3
0.03303
12.35
7.872e+05
26.77
0.08653
94.61
1.793e+07
0.02169
32.36
103.8
626.2
41.26
1691
111.9
9.128e+05
229.9
2.235e+04
6.814e+05
0.1007
4.76
3439
63.69
17.03
591.7
2.541
0.02338
1842
20.72
0.0518
11.54
0.02664
8.947
0.02222
79.95
742.4
462.7
587.4
0.6516
43.45
2080
0.2684
17.3
33.17
72.66
40.28
45.01
260.1
0.5107
14.24
0.07146
0.7135
12.16
0.02175
0.02173
7.561e+06
107.3
0.02174
267.7
0.03394
93.8
0.2136
0.08603
13
0.02166
7.957
691.4
462.8
41.41
38.16
1175
0.4021
0.2901
4.261
2738
123.8
42.78
0.02165
13.02
42.54
149.8
3407
1256
0.05604
0.02172
677.1
40.73
1267
0.3011
2.209
0.07866
634.8
0.02846
64.21
707.4
47.93
0.03105
152
578.5
41.38
12.02
0.02173
0.04184
0.01941
0.01936
0.06763
2.169
8.378
12.06
128
0.04356
47.02
33.87
37.66
11.85
273.1
434.1
64.53
1021
119.8
859.6
8.288
104.2
39.33
0.02778
355.1
17.26
84.58
0.02335
583
13.31
93.19
19.95
299.7
286.2
0.02192
0.02177
1.43
1110
0.5122
1.068
0.02862
2156
326
0.03055
0.06756
544.7
6.186e+05
22.94
0.5335
27.69
5624
790.2
0.4013
0.02289
4.988e+04
0.03551
6721
11.68
32.72
0.02185
0.1917
1767
626.7
331
857.7
0.1955
727.7
0.0277
0.02627
4223
0.02184
22.69
64.82
0.03639
34.17
35.42
66.97
0.02222
259.4
59.39
1193
0.1203
19.94
106.6
105.6
39.08
2847
122.3
513.5
130.1
1.886e+04
247
0.07606
16.91
0.05866
0.2779
0.08144
509.1
0.05658
0.02115
246
130.8
10.86
180.7
0.02192
45.45
349.6
0.02499
0.02166
0.02172
259.5
0.052
3.437
0.02382
1279
0.02172
668.8
1.52
19.66
25.15
583.4
29.51
1377
0.03595
73.67
1405
396.2
57.32
72.54
58.89
55.6
16.16
2.788
54.96
0.2027
0.02196
23.3
551.4
0.02078
19.21
5.237
0.1748
44.98
0.04307
0.02028
215.3
3.635
1329
51.91
1.851e+04
591.8
308.3
1235
29.07
178.1
69.61
0.02163
1276
0.02229
431.3
173.4
37.74
126.6
1.384e+07
117.8
2.461
0.1085
4.778
0.02166
1.929e+04
0.02199
65
10.89
2.017e+07
1.01e+06
3.276e+06
0.02194
332.5
298.1
0.02172
11.57
182.7
101.7
15.45
26.47
605.5
18.94
1.248e+04
0.1714
23.32
6.654e+05
670.4
1071
2675
0.02205
20.78
2.284
17.24
0.022
1777
9679
1688
0.01964
23.52
0.09197
6352
44.42
4410
15.56
0.02239
501
31.5
0.02081
0.4038
107.3
571.9
288.1
670.6
1559
11.39
99.97
385.5
97.52
220.6
0.02193
5364
76.48
1399
81.56
33.89
0.02212
0.02207
0.04961
477.5
9.274
0.02172
0.02923
12.9
1310
36.72
30.09
2723
1.209e+04
6.257
0.02239
0.02134
1626
24.5
115.9
0.03164
1.481e+04
62.02
184.8
0.5251
2591
0.02172
32.22
42.28
25.47
0.0272
517.5
11.52
8.1e+04
0.02026
130.4
9921
0.02171
33.93
0.02174
191.1
49.51
0.02175
792.5
495.8
1838
84.8
25.63
778
732.5
54.77
225.6
589.1
293.1
134.9
50.21
1770
0.02672
963.4
0.02174
7.543
0.02367
23.83
0.02116
0.02174
1.066
496.8
40.17
0.02135
0.02115
907.3
7607
665.4
1147
10.84
3.167
24.79
66.77
36.46
364.5
1438
0.02138
242.3
32.76
0.8768
31.17
0.02217
0.02918
54.75
8391
69.09
4.301e+04
0.02361
0.03825
131.4
277.1
0.02578
1092
0.1182
0.08
696.6
20.19
31.53
0.09287
3.463e+07
3034
54.96
74.62
103.8
146.7
1800
359.6
0.0244
69.01
621.4
21.73
0.02121
243.4
0.2993
0.1813
0.01963
0.02119
4.442e+04
0.1092
610
113.7
335.5
12.99
0.745
1726
0.08115
608.7
0.02163
0.02089
7.125
0.06046
845.7
0.1795
3699
10.33
822
0.2594
20.46
0.03664
1314
0.04331
619.7
4.85e+06
70.68
91.79
21.42
0.02868
98.95
281.6
3.515e+04
10.39
13.74
36.26
7413
40.29
774.9
8.064
464.5
116
41.78
11.25
0.2647
7.471e+07
0.2983
0.02572
183.5
206.5
171.2
0.02154
173.4
8.394
36.12
0.04104
4.601e+04
211.1
2668
0.04626
426.8
131.8
321.4
134.3
0.03871
23.66
2516
811.3
17.83
0.0218
34.39
315
0.02183
45.73
1.582
131.9
115.7
0.3402
71.69
5371
364.9
0.01935
23.98
9.368
4916
996.5
0.1815
11.29
1296
0.01938
94.26
683.5
47
5.467e+05
49.37
1538
36.61
34.41
8.412
0.02193
5.587e+07
91.1
76.1
3690
40.7
393.6
181.9
402.6
0.02132
8.821
12.95
0.0387
243.3
421.4
140.1
129.8
0.02048
23.08
107.2
0.02163
0.02042
31.3
9.373
10.82
390.3
31.7
1.967e+05
19.82
0.1621
0.02123
44.92
118.8
772.4
2066
0.472
0.05527
0.02196
2.083
1.771e+04
0.02125
0.1805
5176
102
4948
0.02614
30.84
105.5
0.0218
975.9
0.0212
305.7
1.859e+04
223.9
130.6
1.279e+04
0.0219
750.1
0.1034
1579
1258
1807
1.125e+04
0.1802
0.9101
1.274
8e+04
0.02178
70.77
1044
989.5
661.5
1.525e+04
0.05307
0.5348
1685
8258
4.345e+04
378.7
1.39e+06
603.1
2.557e+05
125.3
2977
8.956
3.43e+04
0.02272
163.6
0.02725
0.02649
22.04
0.0255
77.73
14.51
8.885
3.069
0.03784
930.1
201.3
0.02184
13.43
88.12
0.03649
875.6
1.514e+05
41.95
41.87
1961
16.85
608.4
0.02169
37.44
604.9
0.02316
657.9
75.95
8.883
0.02069
2.433
19.85
4.518e+05
12.04
1.531e+05
18.29
96.29
158.2
1.506e+04
361.6
0.02362
1.005e+04
0.2834
0.02427
5.398
4.851e+05
32.38
704.9
21.28
8.543
2.941e+04
2.333e+05
380.8
0.02236
0.02183
41.46
16.61
161.5
667.8
47.96
5378
131.9
0.06547
5540
0.04642
7532
0.0216
25.42
3028
16.81
230.5
24.65
0.02177
0.02181
2519
0.1499
327.7
365.5
852.5
14.96
97.66
194.1
230.7
6.158e+04
29.63
1041
859.6
31.6
13.61
244.8
346.8
6077
1.783e+05
26.22
0.02154
0.02139
19.44
44.93
1.35
0.0208
77.64
25.12
1.285
620.3
72.7
459.9
2.354
0.02223
0.2769
1.359
1.448e+04
2716
142.3
0.2561
65.46
1018
354.4
54.73
9.318
145
185.5
141.5
6189
0.02298
1.746e+04
1.811e+04
9.19
74.96
2409
0.02174
4.593e+04
7.034e+04
0.02187
0.02154
42.25
34.24
6.497e+05
709.2
157.2
843.3
739.2
0.3453
0.6829
0.02253
919.5
19.55
400.5
8.713
7808
61.31
0.02859
4.612e+04
219.6
0.02172
278.3
0.02546
0.02164
50.42
0.09008
4.65e+04
0.02157
966.8
0.02181
516.6
0.07678
12.8
17.86
912.9
503.9
832
78.22
0.05519
0.03663
16.98
281.9
417.6
539.3
1.474e+04
882.3
7.036e+04
96.01
695.9
682.2
486.8
5165
0.1166
9.415
0.04493
486.7
312.8
2446
0.06576
1259
13.72
126.1
209
46.43
2.378
1399
10.4
125.7
430.1
1380
1323
0.02105
45.71
481.1
0.02179
236.8
866.2
0.02067
5.931
620.1
0.03463
0.1214
21.01
117.3
0.1507
0.01977
227.7
273.2
0.02162
0.09129
0.02957
24.83
328.3
27
0.03467
3027
1.393e+05
888.6
364.1
14.54
3.439e+04
0.07804
202.3
0.02176
50.42
30.52
177.7
210.3
3972
9818
0.02196
6.662e+05
1984
1372
90.96
1582
9.914
10.65
3142
119.8
0.03226
1.342e+06
69.42
401.2
1664
254.6
421.2
103.2
7467
153.6
135
128.7
602.8
424
28.68
1.237e+05
0.1027
206.8
0.08941
991.9
0.0197
0.02165
44.61
4.437e+04
28.05
1.35
5.257e+04
1520
0.02179
6615
153.4
114.6
1.543e+05
6.324
140.3
1.349e+07
13.76
1.139e+04
14.11
124.5
5095
408.8
1670
32.12
316.7
0.07788
18.43
43.95
167.4
27.96
141.4
10.96
3.028e+04
20.16
0.2643
15.07
0.426
0.5585
32.66
1.178e+05
0.03597
1.049e+04
3080
185.9
86.52
0.0218
11.65
54.49
1.131
5062
1516
2503
0.02135
613.8
3173
42.82
4.489e+04
105.6
8.984
1082
0.02191
1424
134.4
1.391e+04
158.7
0.06677
15.94
0.02169
1.649e+05
5.217e+04
66.86
0.89
24.39
0.02085
0.01977
859
24.27
7.981
0.06797
0.05111
0.05231
4.878
46.3
12.14
260.6
322.5
5.354e+04
1.21
1942
203.5
329.9
0.01981
847.2
13.14
143.2
6.637e+04
106
9.245
137.9
92.49
28.93
2.07e+05
27.34
63.32
11.81
9.601
11.47
311.8
1.718e+05
0.1148
2614
0.02118
385.8
2028
0.02031
4681
77.41
103
627.7
0.02138
1.074
4.349e+05
0.02175
290.9
816.3
128.2
1.778e+04
1.188
11.8
1472
4556
97.54
215.3
0.04968
179.2
1.209e+04
1.76e+04
377.9
90.8
0.02169
204.2
8.831
1696
428.2
9.429
96.71
0.02169
7.235
321.2
0.02204
10.24
0.02259
6667
10.63
3.676e+04
243.9
38.63
1025
40.43
219.2
766.2
3.406e+05
97.17
214.2
38.35
27.18
16.85
0.02211
139.5
0.02207
12.78
0.022
13.67
0.02147
300.2
176
0.02066
0.02161
947.6
0.1446
1350
0.08759
0.02003
26.31
46.77
0.03104
3.475e+06
5144
3.608e+05
226.6
73.47
391.5
249.6
58.66
2.458
8379
30.79
2232
690.2
58.85
54.23
7.929
0.02155
3.379e+05
68.92
6899
0.02178
6.054e+04
432.6
446
239.3
0.01973
0.01971
13.06
30.38
6.018
10.49
109.7
1.607
0.8008
2.633
11.11
3581
94.63
0.7565
31.97
11.6
1284
1011
145.1
438
20.29
0.02191
287.6
371.1
1.805e+04
32.02
0.03485
143.6
1.293
187.8
117.9
1857
16.67
0.02174
33.63
103.2
8.551e+04
1.744e+04
1.38
89.55
1726
0.1239
0.01972
2461
491.3
3.128e+05
0.05138
1.252e+05
167.4
0.02152
189
2016
10.17
0.096
15.23
1319
102.7
77.51
38.4
3291
0.04042
780.5
1676
1098
0.05707
0.05693
539.2
16.73
3.019e+05
200.1
1392
1733
3.397e+05
1.465
463.6
0.02472
0.02176
0.0215
20.36
0.02298
9.468e+04
0.02173
1.18e+04
0.2561
107.8
216.9
1022
0.09479
3.235e+04
0.3035
768.9
21.48
1.528e+04
0.02165
149
946.8
18.12
1.576e+04
2950
36.82
2270
4997
0.04524
0.0206
1.448e+04
0.07293
0.01996
0.2699
1.279e+04
0.0206
4769
0.02184
28.7
119.9
13.88
272.8
0.02091
27.57
764.9
102.7
0.05764
30.62
0.1482
0.02173
0.02122
40.47
6.152e+05
72.36
140.1
0.02415
4.01e+04
0.4071
0.07242
0.06074
3.08
215.4
835.7
0.02503
472.9
0.02223
43.04
0.02217
0.2303
304.3
45.82
6.258
1438
220.3
0.02119
52.04
3111
618.6
5.53e+04
1796
9.167
0.03342
9.611
5.395e+04
38.22
843.9
3.8e+04
0.07543
0.1242
0.02159
111
293.4
68.03
0.0218
843.8
0.02175
0.2034
224.3
0.02137
8.827
0.8569
100.1
15.51
1.042
429
0.0219
648.4
7902
11.74
8.395
232.5
0.04085
150
96.46
4799
199
93.04
1017
70.48
146.8
1.245e+04
0.07082
0.1323
225.6
0.03375
309.6
28.9
0.08355
122.9
0.02398
0.357
6341
19.36
146
168
5.805e+04
103
1.794e+04
2.493
0.02066
1.801e+04
204.6
0.09272
452.7
0.02746
34.77
0.02223
10.26
1.105e+04
14.04
34.79
123.9
209.8
0.02187
107.7
0.2529
23.42
1874
0.02484
133.4
3404
0.02159
0.02511
142.1
0.07359
63.79
8.548
5.094
83.16
1.572
23.62
0.07078
3.27
76.61
0.02106
0.15
1513
5.915e+04
0.02086
493
1.69e+04
12.31
542.9
10.5
197.5
5.757e+04
0.05806
0.1117
217.5
0.02536
1258
43.2
29.33
6686
218.3
0.02445
207.4
8.88e+05
3.328e+06
176.1
254.1
215.5
2.177
19.41
26.99
34.55
1620
685.9
788.7
472.6
2.796e+04
30.09
5.039
0.0217
1936
5.003
51.53
0.1532
0.03899
217.9
188.1
8.649
0.02036
877.6
1786
116.8
421.4
17.17
6.264e+04
440.9
0.02629
279.1
2.314e+04
26.55
161.3
1.029e+05
0.01939
8204
2419
207.9
0.02754
28.51
12.74
1338
363.8
16.42
1996
0.03274
4.548
262.1
0.04908
13.24
0.02168
626.1
6660
186.9
2577
3.712e+04
32.96
2.155e+04
0.1082
2264
23.42
9.723
0.03519
9.684
60.76
23.28
153
0.0654
168.6
2.349e+05
6.28e+04
112
79.49
0.6992
0.7173
0.02187
0.02544
72.44
0.4142
0.02165
118.4
166.4
330.6
365.7
35.19
348.3
29.87
4870
6.685e+04
7.259e+04
0.08419
153.9
1.833e+05
10.64
6940
10.51
33.81
57.76
2.326e+06
20.41
31.08
0.04338
0.05284
1174
152.2
0.02173
0.02196
13.62
2004
17.19
166.5
3.853e+04
18.62
0.02369
1594
10.12
211.1
4993
1.29
7.072
33.83
115.8
2.199
112.1
0.02188
1904
8.895
1455
18.17
294.8
8019
8.589
1653
40.71
1602
178.9
6842
0.07446
12.6
77.16
36.73
802.2
243
1.334e+04
988
0.02166
318
10.66
1129
119.7
0.2646
14.38
0.07931
6644
0.04868
207.4
34.09
117.4
11.89
16.6
0.5661
6.426e+04
0.214
0.02455
2092
0.02091
22.06
0.03066
2.693
10.66
0.02151
0.3655
281.1
4711
0.02176
0.02312
11.08
41.92
281.2
0.1578
50.71
91.12
1744
719.7
29.15
151.7
117.2
0.0894
143.7
6.627e+04
9.111
4484
576.6
9.721
5.701e+04
0.02173
0.0206
1.465
7.131
3.695e+05
0.0218
11.61
1675
3.355e+05
751
1002
0.01981
0.01953
489.6
123.8
97.83
212.7
0.03173
31.56
5.071
0.02222
1569
267.5
128.5
59.83
5913
7.622
8.979
0.01978
28.23
342.1
1450
792.9
102.4
1.72e+04
1442
51.03
152.2
460.8
120.3
0.06585
173.5
1.201e+04
0.02793
0.0265
611.2
295.3
1.382e+04
1.693
1344
157.6
0.1414
0.02173
22.16
0.02211
35.74
3.866e+04
41.65
0.1185
143
0.04396
2.437e+04
727.6
0.06565
33.23
30.31
140.8
36.57
193.5
136.5
65.76
40.69
64.8
38.63
12.93
2949
197.9
72.07
364.6
2.069e+04
221.1
1276
1354
3.331
2.116
51.23
2.101e+04
0.6904
189.3
0.0223
17.17
0.02214
186.5
8.381
2.139e+04
318.6
0.08065
3062
2.149e+05
2487
34.12
108.3
1563
5340
0.2647
39.72
57.52
1.375e+05
150.6
63.99
0.2791
0.2763
0.02174
17.14
1.708e+04
15.71
4195
12.23
0.0763
4122
0.01971
35.32
0.8764
18.71
2751
0.2088
8.295
8.492
0.03641
458.5
52.45
7.103e+04
2612
158.8
0.02141
68.57
120.5
1.174e+04
1288
66.01
7.935
73.35
0.02171
414.9
1407
12.54
82.68
30.91
5245
1059
723.2
106.6
0.7584
1.512
2.747e+04
9.567
0.06542
9.239e+04
0.06776
18.56
0.02174
0.02199
115.1
0.0219
1846
143.7
40.88
16.95
1026
4548
162.5
1881
150.9
16.87
5.936e+05
39.19
118.2
2.165
2.315e+05
11.46
1.874e+04
2.283e+04
0.04328
1706
1016
12.85
14.15
1.228e+04
750.2
2939
25.81
44.2
0.02607
8.442
0.02206
1.16
13.66
1189
88.52
47.08
3.794e+04
14.86
0.02189
414.7
53.06
20.14
86.28
51.54
213
876.3
3023
1.612e+04
474.3
271.8
1923
109.2
405.2
0.06558
2.896e+05
361.4
123.8
1.735
0.02156
245.5
476.8
19.48
12.5
1.741e+04
1385
333.1
85.24
54.68
4305
0.02162
1.62e+04
9.432
0.03554
86.98
856.8
0.02167
270.7
13.99
44.51
2.271e+04
36.28
87.7
2.325e+05
47.67
245.3
0.01967
0.01961
237
92.73
11.09
674.9
150
0.02151
5972
1460
29.66
0.02173
0.0219
35.33
71.98
246.8
7.852e+05
1001
0.02808
823.6
7.176e+04
0.07992
759.2
390
0.1037
2.618
3137
35.19
59.32
0.01964
0.0195
0.01946
0.0202
0.07696
34.11
51.47
1109
19.6
494.2
33.4
1983
0.02079
104.2
71.55
7292
1601
9059
455.1
101
360.2
24.71
176.8
0.09306
131.4
4.4e+05
306.6
6840
0.2785
353.2
0.02173
2.413e+05
103
460.6
16.78
0.03044
6.594e+04
0.02179
104.1
1123
0.04168
135.1
135.4
15.42
218
1.433e+04
0.03865
1239
0.02066
5.123
120.8
444.8
18.6
181.7
0.0215
0.02171
0.1801
1603
1707
0.2318
18.23
153.5
9.937
6723
387.6
13.62
9.827
30.23
83.78
0.1585
1.108e+05
0.24
0.02173
1.537e+04
0.02171
0.02164
0.4161
0.1078
1.211e+04
16.88
2176
35.94
417.4
0.02187
0.08251
717.4
233.4
13.63
0.05496
0.1965
5.182e+04
7093
0.02213
1.333e+04
8801
3.72e+05
0.06824
12.17
13.89
0.0743
0.02339
12.02
242.8
4.717e+04
0.06798
843
2.548e+06
0.02174
470.4
3135
145.8
0.02178
1070
8.941e+04
1.47e+05
7.861e+04
0.8579
122.7
7.954e+04
0.04798
132
0.02154
17.18
1263
8.394
591.6
7.615e+04
0.2298
251.2
195.4
0.02225
0.02831
626.9
1614
10.71
1.587e+04
117.1
3.875
12.3
24.93
606.9
85.69
0.02175
39.6
36.68
238
664.7
368.4
588.5
587.9
1.003e+05
1.151e+05
1.426e+06
659.2
0.04546
1785
0.02445
1384
2632
0.02175
7.411e+05
0.02221
314.2
1.783e+04
4190
132.6
258.6
824.4
735
0.01963
6.548e+05
204
0.05776
11.54
207.9
1.142e+05
1.996e+04
2.295e+05
10.97
619.8
6417
16.03
0.06673
120.8
1.301e+04
0.02088
75.56
97.79
411.8
83.66
52.39
10.93
6142
159
217.7
1.824e+04
0.06719
3960
0.0768
91.29
375.2
0.02309
0.08064
79.45
959.4
376.1
9.635e+04
0.05568
0.02172
13.52
269
4752
42.43
7.947
0.01962
0.02867
1529
0.01995
569.5
519.9
0.0638
180.1
73.59
2.733e+04
1.027e+05
6.038e+04
0.03241
782
137.1
178.8
12.63
9.23
2.365e+04
15.57
1772
286.3
1.227e+04
212.3
6.103
4.913e+04
29.55
110.1
25.61
0.05128
93.84
0.1844
0.02183
54.56
556.6
86.48
228
72.94
1.881e+05
2.948e+05
10.36
2.179e+06
0.2742
0.5945
0.03041
0.04867
89.34
0.02221
774.7
8.62e+04
715.9
7495
44.27
29.94
320.2
109
13.24
826.9
16.78
8650
198.1
0.02578
222.8
113.1
0.02204
0.03667
2625
0.02185
225.6
249.6
281.5
23.34
4138
0.09656
34.71
0.03585
1011
2.091e+04
1197
99.48
0.02143
685.4
0.02155
0.4393
235.7
36.46
5.727e+04
225.8
771.8
9.806
3742
0.5065
0.2048
23.77
579.5
0.02083
15.67
0.02185
1317
2590
286.4
103.7
0.02154
964.7
417.2
104.4
5.813e+04
245.9
3819
0.02283
40.54
11.38
8.583
363.4
48.08
0.07347
2.961
0.11
110.7
105.4
0.02069
0.02026
0.02208
0.03518
0.1275
5562
759
0.02179
240.7
61.92
169.3
0.02194
182.1
0.0602
2620
0.09133
4.34e+05
130.8
3069
0.04323
0.08854
6.113e+04
0.02721
160.4
245.2
387.1
382.6
101.2
0.02181
261.7
795.6
57.54
119.6
38.62
19.38
36.44
131.8
1211
0.0215
17.47
83.78
7263
0.09481
0.02209
421.7
2182
23.17
21.95
33.7
993.8
0.04108
52.25
1137
10.87
373.8
109.3
0.02566
17.06
6.327e+04
75.79
334.7
7272
2.43
25.31
0.02166
0.02673
0.1177
0.04603
5.856e+04
174.2
0.02195
0.02242
117.7
3.039e+05
0.02194
27.84
2.158e+04
162.5
19.79
207
2686
106.4
38.36
862.6
1.143e+05
3158
0.02185
72.91
32.44
139.8
0.02139
0.5264
259.1
31.6
577.1
7.489e+04
7242
16.16
984.8
1.197e+05
9.812
1073
25.68
3.701
2.202
2450
4.161e+04
0.02157
308.2
136.9
0.02193
7485
16.97
2.952
0.06269
44.91
831.6
402.6
121.9
0.02168
0.02177
13.33
344.4
0.02001
26.11
0.02456
2771
10.6
16.35
547.3
2359
18.88
65.2
0.02139
7.324e+04
19.54
4530
562.9
0.06594
708.2
50.97
265
5.746e+04
7.94
5.368e+04
0.02075
0.02124
36.85
0.04619
0.02139
1.404e+05
209.6
476.7
6042
115.4
48.15
0.02795
1.362e+05
0.03945
140.5
0.02024
0.09328
127.8
56.5
64.09
40.5
8.865
1469
0.02046
61.37
6689
6781
9171
0.1212
58.28
34.92
0.02195
1497
424.9
0.6574
0.04113
164.3
5.911e+04
0.02187
0.02151
44.04
4199
10.86
2535
0.02206
9060
155.1
142.4
0.02208
0.06374
1139
334.6
3273
25.91
67.26
0.02044
839.9
0.03056
1134
9.584e+04
0.0562
247.9
10.98
1.418e+04
3.744e+04
1875
0.05153
0.02047
57.3
0.151
0.02163
467.9
252.8
10.03
0.02033
0.06545
0.07012
0.02619
732
89.06
0.02173
862.5
146
2227
0.02576
0.02191
0.02163
0.05078
129.2
21.29
709.6
6.074e+04
3.597e+04
133.9
1.172e+05
5067
0.02272
5.176e+04
80.35
5144
8.91
0.1147
3.304
1.217e+04
1196
3444
624.8
0.05127
33.43
515.2
122.2
21.05
0.2109
393.7
0.1171
442.9
0.03602
42.45
42.31
25.67
0.1714
1152
1.127e+05
8104
0.02061
5.886e+04
46.39
0.01994
254.5
0.02181
2709
92.42
0.1189
477.7
532.4
0.0223
2.989
8.428
1.554e+04
0.02232
0.1267
1.586e+04
12.61
0.02157
3795
41.39
0.0304
0.1194
16.04
185.6
7.114e+04
674.1
90.63
10.64
1673
0.559
0.02169
0.04006
633.1
122.5
115.2
0.02207
1.625e+05
227.9
61.19
342.2
46.66
89.67
0.02017
0.05602
747.5
218.4
0.03866
157.4
805.8
9.608
2.206
8.712
9.902
0.03661
8.398
60.52
92.08
41.2
0.02205
2003
0.1631
48.92
20.69
8.541
6922
89.19
4.131e+05
13.94
0.4857
0.239
0.02118
16.93
49.36
4701
1881
227.3
488.3
3822
36.5
0.4049
84.14
686.2
1.036e+04
37.89
0.03736
1916
1.547
1703
30.88
10.03
31.83
238.8
0.02179
359.6
0.2463
0.02164
2.594
1909
1.302
2.814e+06
718.5
1337
0.02165
36.49
226.2
0.04886
25.72
42.19
4515
532.6
4262
0.02188
128.5
0.02065
8.497
340.5
707
19.54
789.7
2.1e+06
0.02148
0.02174
89.06
185.5
1536
3.936
117.5
879.5
21.87
14.59
0.02179
474.4
2891
0.06278
34.21
0.02156
171.1
0.04895
56.97
447.6
134.2
0.3211
2887
140.3
0.02534
725.3
162.1
0.5843
0.02146
0.02266
488.5
4645
49.1
8.103
97.37
16.57
186.6
50.87
0.0194
0.1598
0.5446
1.148e+05
3712
2215
0.02134
661.7
150.3
3384
2210
2.486e+04
9.4
30.82
148.2
107.2
801.2
5337
23.85
0.07339
9.752
0.0302
2.109e+05
0.02235
13.94
571.9
64.82
14.66
687.2
60.04
1.548e+04
12.92
1085
39.67
12.32
468.9
1.111e+05
33.18
6.219e+04
3.374e+04
0.02175
6.883e+04
264.5
1763
3412
39.54
43.4
385.8
111.1
38.49
0.03556
14.67
17.44
123.6
33.48
85.45
0.4335
4.897
32.39
7.111e+04
52.89
1.15e+04
122.4
684.1
0.02027
884.4
96.01
5415
12.03
2.313e+04
377.8
339.6
0.07291
4450
0.06422
20.61
41.42
0.06716
1.564
25.73
51.79
212
417.4
33.14
201.7
46.06
2.275e+04
47.46
3.805e+05
0.03518
40.85
281.9
9.165
0.04127
709.4
0.02173
0.022
0.02173
64.35
161.7
1354
13.72
0.07725
51.17
0.03782
3.767e+05
3209
6.782e+04
251.1
0.0579
946.7
6913
0.07292
2571
0.02187
32.57
8.591
991.9
31.52
0.02128
0.02138
142.7
9.064
0.03634
7.271e+04
176.6
0.02095
0.0218
91.24
0.03062
747.7
1.264e+04
0.03063
16.51
870.5
565.7
472.5
7.606e+04
35.32
0.1432
69.18
304.7
0.1197
394.8
77.79
1.631
824.7
142.2
2.207e+06
0.02618
142.2
1.165e+04
2011
0.02183
40.58
0.02176
12.83
57.24
98.7
36.34
333.9
109.6
0.1648
2109
3059
1189
1209
1014
72.85
15.12
107.3
357.9
27.49
486.2
0.02215
6.457e+04
2.052e+04
2327
65.11
27.08
2842
724.8
0.2855
0.312
7.406e+04
187.5
0.05457
0.03166
0.05172
399.9
818.4
27.07
5238
77.25
0.03699
171.1
101.2
76.7
481.9
3.924e+05
1344
145.8
649.2
47.75
118.5
3750
72.55
15.83
9.353
2315
37.86
0.2411
64.94
807
0.08303
137.1
0.2747
16.37
7.513e+04
1245
0.02204
999.2
14.34
2.846e+04
1827
0.02137
0.09316
843.4
0.02914
43.67
2451
950.1
9.183
0.02171
0.1869
12.68
17.44
0.07997
423.4
0.02077
681.9
28.98
630.3
637.4
83.25
85.83
458.8
914.7
0.1644
114.2
0.02182
1.014e+05
0.03439
0.03091
611.1
0.02179
31.26
11.11
1.349e+06
0.02196
113.9
215.5
566.7
389.2
0.2495
87.74
38.31
365.8
3926
41.84
0.07272
0.02198
472.2
695.1
21.55
89.32
1982
4768
0.8258
0.02113
60.69
297
1.561e+05
89.76
101.5
0.67
230.4
0.0215
30.18
9000
1961
0.02197
0.2126
1687
0.0198
117.1
2273
34.32
0.02195
0.022
8.214
0.02329
0.02013
0.02173
8.28
1457
2160
0.4186
162.2
18.18
16.78
0.02225
19.74
114.2
0.04163
0.652
1851
13.67
0.02531
3105
59.33
7.895
6.458e+04
7.793e+04
0.02502
151.8
14.34
580.5
77.52
6731
0.02194
145.4
7.071e+04
10.96
652.7
0.8557
3305
74.02
201.6
29.04
2.848e+04
0.05197
2.211e+04
45.58
0.0254
0.02876
0.02006
388.2
31.34
4845
336.1
1.124e+05
0.07297
0.01942
203.9
233.5
0.07146
0.02182
1107
10.13
1843
57.49
2947
366.4
145.7
26.14
267.8
0.01972
3.592e+04
220.4
76.69
30.35
0.06814
0.02194
31.07
13.61
455.8
7349
68.38
0.03964
84.76
16.53
0.0578
0.02184
1788
203.5
9540
279.3
34.92
2.743
82.35
20.61
13.55
125.5
0.7764
0.1303
0.02192
87.6
2.853e+04
27.41
0.4274
8353
0.5004
0.02168
18.19
0.02841
0.02203
47.11
0.01937
0.01932
9.077
0.02011
55.09
9.702e+04
593.5
12.8
0.1332
0.02113
0.02197
48.56
217.7
68.15
6.945e+04
17.5
0.03014
10.28
61.72
4335
1.485
0.02198
2.724
96.8
0.02203
0.02136
104.3
245
0.05024
0.02824
95.36
0.0213
1.584
0.02148
3.923e+05
2.258
1564
9.544
0.02734
0.3255
9.028
26.4
800.9
20.32
105.3
14.12
0.02214
4.835e+04
18.54
235.1
0.02191
803.4
425.1
135.4
1176
0.2382
557
25.43
0.1353
6120
0.02205
8.498e+05
38.7
2.972e+04
0.02197
249.6
0.02174
0.08138
10.1
1.316e+04
14.09
554.1
16.55
0.1136
3476
0.1279
3232
5483
8.227
0.08764
0.05477
639.5
0.02162
7.96
30.97
58.44
40.08
0.02176
1.902e+04
0.03378
415.1
1072
65.05
2012
1.394e+04
22.82
1167
122.8
1.461
21.19
0.4846
0.02172
0.02181
983.5
11.99
2.221e+04
74.62
155
0.02179
90.21
0.02179
0.02169
0.03136
417.7
0.103
16.07
0.03503
62.57
0.1813
91.61
290.9
2669
0.02531
462.9
378.3
127.2
0.179
25.1
0.02187
114.5
0.4065
110.4
16.12
0.03294
249.5
1.499e+05
594.5
3119
32.26
3.969e+04
1915
4.401
94.65
2731
64.16
1.769e+05
749.5
35.24
85.88
173.1
53.19
2421
708
0.03884
27.93
0.09084
568.3
3.33e+04
113.5
3224
964.3
16.21
613.1
0.03331
252
53.87
8.163e+04
11.87
0.02239
27.07
20.84
169.3
0.05841
64.66
175.7
38.7
0.568
452.4
82.56
1.465e+04
405.5
157
30.95
20.44
1680
0.02454
797
16.35
0.02361
114.1
115.7
599.9
928.8
281.4
0.02202
938.6
29.25
0.08014
2.967
668.1
2.507e+05
219.6
0.02084
0.02473
0.4113
526.2
91.72
0.0215
4.364
635.9
728.8
1.797e+04
0.02103
261.8
8572
83
1.927e+05
142.4
183
137.1
36.09
64.77
0.02327
112.2
7476
45.8
316.3
3.959
36.49
0.02165
0.07165
645.1
298
35.09
2459
136.4
0.02171
8637
120.4
0.1809
485.5
1.651e+04
2.663e+04
0.0422
0.1335
0.02449
130.5
7124
1025
2685
181.2
278.4
0.02181
90.55
4.819
9.136
1.168e+04
0.5779
6.954e+04
57.61
5351
0.03307
199.8
3520
0.02169
161
207
210.3
10.53
0.0219
0.02169
0.03844
49.96
0.0217
12.41
2.457e+04
0.1097
22.98
645.6
0.03797
103.2
11.95
0.2683
5001
121.4
2.089e+04
97.38
0.02174
402.3
6123
0.0217
1.388e+04
10.79
150.9
61.57
781.7
40.57
437.2
14.45
12.11
0.02194
13.31
0.02178
0.05453
3004
147.8
87.23
70.04
1.893
289.5
0.02175
0.01965
0.05312
225.3
66.39
125.7
6.964e+04
17.67
0.7859
528.3
1.005
50.65
0.02135
1694
953.3
20.66
13.67
178.7
171.6
49.08
31.74
1.646
0.02235
122.8
23.4
141.9
4945
6.412e+04
755.4
0.02149
126.1
35.02
18.12
3.246e+05
0.02165
124.5
32.17
24.91
139.2
34.53
2.003e+05
137.6
51.62
932.4
8632
29.38
61.99
7223
4.106
0.02168
384.1
23.54
45.03
85.72
18.16
1.966
0.04499
1953
576.3
2480
31.28
1875
562.5
0.02171
350.9
50.65
103
15.1
0.01935
415.5
87.01
69.86
14.54
0.02133
847.3
13.22
14.42
104.9
218.4
171.7
62.82
740
650.3
0.01992
258.5
78.06
232.4
877.1
653.1
66.94
31.94
53.03
8.437
166.4
1423
6.597e+04
1370
563.8
3.753e+04
23.61
0.0764
9.055e+06
502.1
5162
0.03544
4855
4717
391
60.24
0.0219
2.712
0.02178
20.39
178.2
15.61
0.8678
14.9
1487
43.13
8.445e+05
15.84
358.5
2420
6.051e+04
879.3
284.3
24.45
0.08991
522.4
14.97
7.68e+04
189.3
0.3753
0.7388
4457
3.164
0.022
0.0217
59.91
95.6
0.0399
0.02017
0.02186
1848
495.3
3.605e+04
0.02155
0.03083
100.7
0.01976
0.0199
881.6
0.05446
154.1
949.3
0.05281
4912
27.53
78.03
7.995
44.77
0.04964
106.1
27.63
2.56e+06
62.24
1209
3280
4016
12.81
0.03076
10.02
1476
0.02171
10.93
368.4
1348
5.204e+04
563.1
63.66
1796
0.0248
392.3
9371
290.8
121.7
150.7
0.07154
63.38
15.54
6428
168.1
215.5
0.04829
2304
1032
0.03572
31.94
0.06681
42.77
0.0265
6252
6.649e+04
0.0277
1682
177.1
0.1538
1225
116.4
0.02238
2.269e+04
169
229.7
1689
0.03405
16.35
2.027e+05
109.7
1286
15.9
29.15
7.928
32.36
194.2
0.05826
5.723
102.3
173
51.08
19.91
79.67
16.88
187.1
943.1
122.3
14.58
2.941
0.0218
0.09207
1337
26.61
0.01936
8.375
71
14.47
194.4
115
80.87
0.09604
1842
117.1
0.1081
77.63
198.2
0.07421
1630
0.04055
2174
9.253
0.1858
0.06485
10.4
1362
89.29
0.02093
167.6
949.5
311.5
0.1849
0.02191
11.7
583.7
1853
30.01
90.93
12.84
1709
13.75
30.33
8.96e+04
9.919
4.557
1.813e+05
1245
14.5
19.29
0.02204
4.659e+05
0.02206
50.61
164.9
365.1
406.8
474.7
7.811e+04
9.56
41.58
25.29
1.098e+05
1004
16.17
1.68e+05
2.168e+04
933.2
196.4
0.1858
1.699
15.95
141.8
0.02187
657.9
8.228e+04
0.04403
126.2
17.2
21.81
994.5
941.9
1.619e+05
4107
255
0.01954
0.01934
0.02178
1829
7998
0.4873
0.02158
0.1786
7370
24.08
1.79e+05
239.2
0.02209
1.55e+05
0.01939
5.248
11.9
0.03861
15.89
0.6285
4.284
0.05876
1065
27.55
100.6
145.1
9.505e+04
14.02
411.1
248.9
10.95
0.02213
2.537e+04
776.5
660
296.2
3301
551.3
347.1
0.05523
37.69
344.1
22.98
665.4
0.02903
1754
68.96
748.6
27.66
0.233
0.3112
0.02182
309
71
314.1
809.3
11.77
2437
35.07
25.52
11.44
316.9
0.1842
3152
242.3
213.7
33.58
0.0638
24.32
0.09094
107.9
19.76
268.4
12.93
615.4
13.69
33.57
679.4
0.2237
6089
48.5
0.5842
0.08669
1.427e+05
525.3
354
54.44
2.169e+04
0.02204
2.359e+04
1120
111
149.5
195.3
139.4
193.1
21.99
187.7
218
418.5
9370
0.07173
0.02186
0.02175
147.3
513.3
7.794
9.893e+04
351
3.484e+04
3607
141.5
6271
7.345e+04
24.29
890.4
1881
33.88
7.657e+04
0.02166
256.5
1198
1167
0.02157
1104
33.52
262
450
286.3
0.02168
11.53
307.4
2847
0.02089
504.1
10.7
0.1602
1.232e+06
0.03323
10.83
12.33
319
485.3
0.4468
25.32
6.429
518.5
1631
323.7
0.0194
16.46
2.629e+06
0.02524
0.02262
5445
3147
101.2
1627
0.06088
21.59
102.6
109
151.7
212.7
0.01999
32.44
9.76
0.1314
0.02193
41.61
0.0212
3.276e+05
30.98
3.549
8.021
5.193e+04
0.02166
358.3
0.02
0.02216
516.7
0.489
3788
9.134
0.04099
85.83
1183
36.94
48.39
59.19
695.1
361.7
1535
1158
1592
1.636e+04
3278
98.77
756.9
395.2
240.2
0.2439
0.02113
0.02118
1.218e+04
17.46
987.2
1.71e+05
0.0218
843.2
1.094
0.02038
22.64
1.821e+05
8.492
889.1
1.005e+04
0.02206
1686
67.38
24.13
10.08
19.17
4799
304.4
0.02174
1.858e+05
5042
0.06211
0.02351
4407
465.1
1967
923.1
171.6
681.1
0.02169
663.1
0.02118
435.6
940.6
1.648e+05
0.01956
0.01936
0.1465
201.9
0.03092
20.13
6.209
20.99
43.13
145.3
392.9
0.04666
0.02716
7.134e+04
8.266e+04
157.3
1762
0.0462
1069
0.02214
170.6
4817
1891
8492
844
854.4
599
0.3009
20.46
48.7
0.02507
0.02177
0.02174
14.3
273.9
2388
1.206e+05
433.9
0.02459
1398
2877
785.2
1.311e+05
60
2022
895.2
279.8
0.05426
8.607
15.94
1.14
0.08181
2515
41.64
77.27
36.21
1205
0.3415
0.01974
6.957e+04
14.87
11.62
81.07
8.446e+04
18.02
0.02082
340.3
43.95
226
23.42
207.7
1354
4.275
279.5
13.03
0.06433
230.7
0.04373
0.07648
1.899
1292
41.32
3119
31.92
85.06
67.98
0.02859
183.1
548.3
0.2409
102.3
6.015
6.932e+04
0.03027
0.02386
207.6
197.6
202.4
44.21
11.09
8609
0.06478
0.02183
62.16
7139
0.02458
0.5854
104.3
0.0216
7.408e+04
0.05241
75.22
121.8
169.2
1.61
1210
8482
8.632
0.05911
0.02173
27.62
86.98
234
20.86
0.02134
0.02019
0.02173
330.3
244.8
399.8
0.05355
2136
77.63
873.7
93.24
1795
0.6118
0.03027
1.51e+04
0.02187
2111
46.23
0.03024
166.5
248.1
1224
277.9
392.3
18.92
18.5
0.06989
8440
4472
6870
0.1759
0.6985
0.02169
7.487e+04
0.02159
698.8
6359
0.02216
14.39
144
919.3
0.08183
18.49
5.017e+04
23.11
0.02166
23.62
866
72.6
229
18.33
61.15
5.851e+04
11.36
0.02071
0.02253
4.209e+04
50.22
624.6
8.947
95.47
0.02117
0.02193
7.211
2.727e+05
6441
1098
551.8
2.697
503.2
5837
328
596.1
0.02189
1540
8.333
818.7
28.4
23.77
0.0216
1589
17.69
5.914e+04
6.21e+04
10.34
33.28
4.413
4064
0.02674
9.216
6.202e+04
1389
446.1
7141
2.528e+04
562.9
239.3
0.1134
2525
698
2490
89.83
0.02636
4119
2.553e+04
0.02172
512
1.36e+04
1107
2375
60.39
23.97
266.9
80.54
0.03328
171.5
0.02211
185.3
0.09855
5.583e+04
0.1207
1.571e+04
89.34
684.9
17.35
15.96
1626
11.29
312.2
2919
107.2
68.52
9.161
46.27
201.7
2508
68.96
0.02448
100.7
46.88
437.7
329.4
201.7
955.7
79.87
0.02501
91.13
8.855e+04
24.16
12.5
334.8
0.03929
67.38
0.02157
106
2.271e+06
3.325e+05
1488
45.12
76.61
0.021
0.05287
32.43
41.22
128.3
19.7
0.02181
29.67
131.9
53.89
95.46
0.02166
2617
5778