/*--------------------------------*- C++ -*----------------------------------*\
  =========                 |
  \\      /  F ield         | OpenFOAM: The Open Source CFD Toolbox
   \\    /   O peration     | Website:  https://openfoam.org
    \\  /    A nd           | Version:  8
     \\/     M anipulation  |
\*---------------------------------------------------------------------------*/
FoamFile
{
    version     2.0;
    format      ascii;
    class       surfaceScalarField;
    location    "20";
    object      phi;
}
// * * * * * * * * * * * * * * * * * * * * * * * * * * * * * * * * * * * * * //

dimensions      [0 3 -1 0 0 0 0];

internalField   nonuniform List<scalar> 
189008
(
3.509e-08
-3.509e-08
4.547e-09
-4.547e-09
8.922e-09
-8.922e-09
1.287e-08
-1.287e-08
-1.1e-06
1.1e-06
1.311e-08
-1.311e-08
4.522e-06
-4.522e-06
-1.703e-06
1.703e-06
-1.028e-06
1.028e-06
5.999e-07
-6e-07
5.322e-06
-5.322e-06
-2.002e-06
2.002e-06
-3.456e-09
3.456e-09
-1.439e-08
1.439e-08
1.016e-05
-2.074e-05
1.059e-05
3.096e-06
-3.522e-06
4.26e-07
-2.93e-08
2.93e-08
0.001109
-0.003042
0.001934
-0.001505
0.0008072
0.0006977
-3.674e-06
3.947e-06
-2.729e-07
0.0003584
-0.0002993
-5.914e-05
8.885e-08
-5.278e-08
-3.607e-08
-0.003231
0.0104
-0.007166
1.231e-05
0.0002854
-0.0002977
5.138e-08
3.748e-08
-0.0001327
7.529e-05
5.741e-05
-9.595e-06
1.056e-05
-9.636e-07
-1.058e-05
9.837e-07
0.0001016
-7.97e-05
-2.191e-05
0.004997
-0.01346
0.008463
-2.63e-05
-0.0001198
0.0001461
-3.543e-05
-9.727e-05
2.266e-05
-1.568e-05
-6.974e-06
-1.14e-05
6.928e-06
4.473e-06
0.01165
0.01081
-0.02246
6.481e-06
1.617e-05
3.318e-05
0.0002162
-0.0002494
-0.0003786
0.0006132
-0.0002346
-2.819e-05
0.0003546
-0.0003264
-2.782e-05
3.165e-05
-3.826e-06
-0.001056
-0.0004485
0.001894
-0.00367
0.001776
0.0005151
-0.004395
0.003879
9.965e-09
-9.965e-09
0.001691
-0.0005824
-5.975e-06
-5.427e-06
6.754e-05
3.408e-05
-0.0004571
0.000468
-1.085e-05
-0.0004794
0.0005753
-9.593e-05
-1.867e-05
0.000286
-0.0002673
1.077e-06
2.019e-06
-0.01396
-0.03062
0.04458
-4.376e-05
-2.103e-05
6.479e-05
-0.01257
0.01126
0.001305
1.083
-0.1281
-0.9546
0.0005426
-0.000439
-0.0001036
-0.1467
1.229
0.0122
-0.00756
-0.004644
-0.3124
0.01851
0.2939
-0.005384
-0.007182
-0.002294
5.482e-05
0.002239
-0.0003998
0.0008086
-0.0004088
-0.0001789
0.001388
-0.001209
-0.81
0.955
-0.145
-1.573e-05
3.54e-05
-1.968e-05
-0.0003029
-0.003232
0.003535
-0.02833
0.02266
0.005672
0.001639
-0.001364
-0.0002746
0.0004577
0.001181
-1.277
0.4801
0.7969
-4.083e-05
-0.0001766
0.0002174
4.093e-06
6.465e-06
-0.0009462
-0.0005175
0.001464
-0.1155
-0.1968
-0.2734
0.5158
-0.2423
-4.38e-06
-6.198e-06
-0.05145
0.0915
-0.04005
-0.0004447
0.0004193
2.541e-05
0.0002926
0.0002499
0.1599
-0.6341
0.4742
-9.886e-05
7.691e-05
2.196e-05
-1.591e-06
-2.083e-06
1.173e-05
1.324e-05
-2.497e-05
5.514e-06
2.48e-05
-3.031e-05
0.0001201
-0.000316
0.0001959
-0.0002517
0.0004032
-0.0001515
-0.0004304
0.0008085
-0.0003781
2.957e-06
-1.296e-06
-1.662e-06
-0.003151
0.002848
-0.0003448
0.0006048
-0.00026
0.1862
-0.02152
-0.1647
-0.004972
-0.00667
0.01164
-0.0002664
0.000879
-0.0006126
0.0002137
0.0001448
7.609e-05
-7.794e-05
1.849e-06
0.02897
0.01402
-0.04299
0.003275
-0.001381
0.0001422
-0.0001438
1.62e-06
-0.0003366
-5.121e-05
0.0003878
-0.01856
-0.009773
0.6862
-0.5263
-2.916e-06
-0.0004765
-5.044e-05
-0.0001616
0.000212
0.004353
-0.005286
0.0009336
9.3e-05
-0.0003447
-0.0004295
9.289e-05
-0.000851
0.001212
-0.0003608
-0.9997
-0.2773
-0.001235
0.0006135
0.0006218
-1.154
0.876
0.2778
3.582e-05
-2.566e-05
1.968e-06
9.898e-07
-0.0001761
2.294e-05
0.0001531
0.0006601
-0.001009
0.0003492
-0.2118
0.09578
0.116
0.0006288
0.002515
-0.003144
-0.1065
0.05813
0.04838
0.1657
-0.4391
0.0231
-0.07455
2.959e-07
-2.36e-07
-5.991e-08
-1.253
0.09891
7.241e-06
1.246e-05
-1.97e-05
-0.0003887
-0.0007213
0.00111
0.01409
-0.01207
-0.002018
-6.602e-05
-3.284e-05
9.465e-05
-8.803e-05
-6.619e-06
-0.0004261
-0.0002488
0.0006749
0.08803
-0.1029
0.0149
-0.0001315
5.26e-05
7.885e-05
-0.0003711
0.0003014
6.974e-05
0.0002429
-7.763e-05
-0.0001653
6.654e-05
-2.574e-05
-4.08e-05
-0.0003439
-0.001157
0.0015
-0.0001834
-0.0002612
7.19e-08
-5.632e-08
-1.558e-08
0.0002525
-9.552e-06
-0.004772
0.03642
-0.03165
-0.000117
0.0002538
-0.0001369
-9.825e-05
0.0001127
-1.449e-05
0.03434
-0.05542
0.02108
0.009268
0.0002865
-0.009554
-0.04756
-0.0424
0.08996
-0.0001285
0.0001605
-3.2e-05
-0.0004354
0.0002599
0.0001755
-7.223e-05
2.847e-05
0.001492
-0.0005997
-0.000892
-2.492e-05
-9.161e-06
3.408e-05
-0.02783
-0.7822
8.221e-05
-1.567e-05
0.0001421
-0.0002069
6.478e-05
0.00256
-0.00377
0.00121
0.00069
-0.0001931
-0.0004968
0.00196
-0.002268
0.0003082
-0.008954
0.0002024
0.008752
0.0001656
-0.000344
0.0001783
0.0002989
-0.0001788
0.008088
0.004116
0.0003748
-0.0003078
-6.695e-05
-9.021e-05
-0.0003669
6.172e-05
-0.0001175
5.575e-05
-0.000166
0.0003034
-0.0001374
-1.583e-05
1.583e-05
0.1921
-0.005897
0.0003072
-9.466e-05
-0.0002126
6.957e-05
-0.0001481
7.856e-05
1.239e-05
-2.812e-05
-0.0002227
2.308e-05
0.0001996
0.0001507
0.001638
-0.001788
-0.0001516
0.0001233
2.824e-05
-0.04154
0.03375
0.00779
1.182e-06
3.67e-06
-4.852e-06
-0.0002535
-0.000182
-0.004578
0.001924
0.002654
-0.0027
0.0008552
0.001845
1.02
-1.193
0.1728
-7.721e-05
5.435e-05
2.287e-05
-0.0007989
0.000426
0.0003728
-7.31e-05
-5.836e-05
-0.0002541
0.0004907
-0.0002367
0.1198
-0.1479
0.02813
-0.001765
-0.0009354
-0.1228
-0.002113
0.1249
-3.287e-05
4.897e-05
-1.61e-05
-4.923e-05
-2.798e-05
-0.0001583
-0.0002128
0.0003659
-0.0007657
0.0006358
-0.006958
0.006322
-0.0001634
0.0008235
0.0003039
-0.0002916
-0.004783
0.086
-0.08122
-7.582e-06
5.758e-05
-4.999e-05
-4.125e-05
-6.624e-06
4.787e-05
-0.044
0.03922
0.0007935
-0.0009298
0.0001362
4.26e-08
0.0001966
0.0004259
-0.0006225
-1.47
1.199
0.2711
-1.463
1.193
0.2701
9.038e-07
1.58e-07
-1.062e-06
-0.1669
0.1321
0.03482
0.2044
-0.03802
-0.1663
-0.05805
0.04892
0.009124
0.02702
-0.06959
0.04257
0.0002229
-0.0001897
-3.547e-08
3.547e-08
0.0002262
-0.0007795
0.0005533
0.0263
-0.007716
-0.01858
0.002742
-0.0006385
-0.002103
0.02556
-0.02056
-0.2086
-0.00313
0.00295
-0.02214
0.01919
-0.0003218
0.0002332
8.853e-05
-0.05983
0.2029
-0.1431
-6.843e-05
-8.315e-05
5.209e-06
-9.287e-05
8.766e-05
7.738e-07
-1.012e-06
2.381e-07
-5.868e-06
5.318e-06
5.504e-07
0.003459
-0.002082
-0.001377
-2.966e-05
0.0001112
-8.151e-05
0.02231
0.003989
-0.0006964
0.0002739
0.0004225
-0.4709
0.2221
0.2488
0.0006089
8.109e-05
4.64e-05
-6.217e-05
1.577e-05
5.74e-05
3.228e-05
-8.968e-05
-1.094e-05
9.025e-06
1.911e-06
-0.0001258
0.0001954
0.0002852
-0.0006638
3.483e-05
-3.581e-05
9.783e-07
0.0004568
-0.0004305
-2.632e-05
-0.0002942
7.002e-05
0.0002242
-0.0479
-0.0749
-0.001522
0.0005754
-3.254e-07
3.909e-07
-6.552e-08
-0.0001823
-0.000112
-0.02398
0.01888
0.005097
9.275e-05
0.0002145
2.488e-07
-2.488e-07
0.2257
-0.02134
-0.0001036
1.842e-05
8.514e-05
-7.114e-05
2.99e-05
-2.599e-05
5.371e-05
-2.772e-05
0.0003075
-0.0002121
-9.539e-05
0.000183
0.0001917
0.0001775
2.26e-05
-0.0002001
1.912e-07
1.047e-07
0.0006853
0.000299
-0.0009843
1.086e-05
-9.834e-06
-1.03e-06
1.421e-06
-1.421e-06
0.1969
-0.9671
0.7702
-0.0004153
-0.001826
0.002241
-3.55e-05
8.706e-05
-5.156e-05
0.002226
-0.001053
-0.001173
-0.0003584
0.0001262
0.0002322
-0.0001002
0.0004463
-0.0003461
0.0006888
-0.000402
-0.0002868
0.1166
-0.0286
5.23e-05
-0.0001725
0.0001202
-0.0001971
0.001429
-0.001232
-0.009091
-0.0007059
0.009797
0.0006983
-0.0003988
-0.0002995
-0.06543
0.09786
-0.03243
-0.01402
0.009048
-0.08785
0.04029
8.136e-06
-8.097e-05
7.283e-05
-4.14e-06
-3.233e-05
3.647e-05
5.409e-05
-0.0001052
5.115e-05
0.0001027
-0.0002516
0.0001489
-0.0009931
-0.0007787
0.001772
0.002969
-0.005744
0.002775
-0.0001821
-5.478e-06
0.0001876
0.8559
0.1645
0.000441
-0.0005627
0.0001217
-0.0001131
9.517e-06
0.001089
-0.001858
0.0007688
6.534e-05
-7.292e-05
-9.638e-05
-7.97e-05
0.0006767
-0.0007837
0.000107
-0.3775
-0.4333
0.8108
0.0007728
0.001288
-0.002061
-0.5428
-0.3511
0.8939
0.04454
-0.01558
0.004402
-4.966e-05
-0.09043
-0.166
0.2564
0.04513
0.121
-0.1661
9.327e-08
-2.93e-08
-6.397e-08
-0.0001744
0.000144
3.038e-05
-0.07464
-0.102
0.1767
0.0007913
-0.0005803
-0.000211
0.1734
-0.05359
2.547e-05
0.001935
-0.002445
0.005459
-0.003013
-0.01114
-0.01284
0.0009952
0.00137
-0.002365
-0.2067
0.2376
-0.03092
-0.0005144
0.000876
-0.0003616
-0.0001099
-7.42e-05
0.0001841
7.874e-06
4.117e-06
-1.199e-05
0.0001186
0.0001888
0.003915
-0.0009455
-7.754e-05
-0.0001266
0.0002041
-0.003981
0.001166
0.002816
-0.001189
-0.00182
0.003009
0.003711
-0.003082
-4.793e-05
8.073e-05
-3.28e-05
0.0005433
0.0001111
-0.0006544
0.002503
0.0002387
-0.1834
0.1236
0.0006417
-0.0001754
-0.0004663
-0.003181
0.003214
-3.29e-05
0.0009247
7.496e-05
-0.0009997
-1.231e-06
5.008e-06
-3.777e-06
-0.0003516
0.0002373
0.0001144
-0.8569
0.3141
-0.2576
0.1342
0.1234
0.0002774
0.000127
-0.0004044
0.0001635
-9.525e-05
-6.826e-05
-6.288e-05
-0.0001006
0.0001635
0.01829
-0.009097
-0.009188
0.194
-0.1839
-0.01013
0.009156
-0.01239
-0.0002046
-1.254e-05
0.0002172
0.09555
-0.05345
-0.0421
0.001569
0.000657
0.0004384
-0.000161
5.296e-05
-3.421e-06
-4.954e-05
-0.01642
0.03206
-0.01564
8.288e-06
-4.095e-05
3.266e-05
0.0003766
-0.0001424
-0.0002342
-0.001727
0.0005157
0.001212
-0.001033
0.0005879
0.000445
0.1936
-0.1485
-0.005931
0.01758
-0.5006
-0.9694
-0.4981
-0.9652
-0.01091
0.00196
-0.001004
0.0008183
0.0001857
-0.004372
-0.0002058
-0.0003676
-0.0006654
-7.609e-06
-0.0001016
0.0001092
-0.01233
0.04667
0.002366
0.001094
7.481e-05
-2.948e-05
-4.533e-05
-6.953e-06
-3.706e-05
4.401e-05
-0.0004839
0.0001216
0.0003623
0.0002189
0.0005724
-3.336e-05
1.415e-05
1.921e-05
8.08e-05
-0.0001007
1.987e-05
0.0002643
-0.0001886
-7.565e-05
2.184e-05
-0.0001003
7.848e-05
-0.0003607
0.0002889
7.182e-05
0.0007569
-0.0009528
0.0001959
-3.289e-06
6.765e-05
-6.436e-05
5.839e-05
-0.001477
-0.02738
0.02885
-4.699e-05
4.193e-05
5.057e-06
-0.0002748
-8.367e-05
-0.000174
-0.001165
0.001339
0.301
-0.4093
0.1083
0.0003325
4.406e-05
0.0002572
-0.0004999
0.0002427
-0.001634
0.001455
-0.003182
-0.003199
0.006381
0.0005579
-0.000582
2.411e-05
-5.26e-05
0.0004094
-0.0003568
0.3807
0.1362
-0.517
-0.1187
-0.04819
-0.1716
0.2405
-0.0689
-1.512e-05
1.784e-05
-2.714e-06
0.4303
-0.8078
-0.001481
0.001548
-6.702e-05
0.06019
0.03536
8.403e-05
-0.0001195
3.971e-05
-0.0003311
0.0002914
0.1169
-0.1217
0.03105
-0.01402
-0.01702
-8.417e-05
0.000359
-0.0002749
1.615e-07
1.537e-07
-3.152e-07
-0.0002891
0.0005405
-0.0002514
0.9225
-0.6916
-0.231
0.001182
0.001433
-0.002614
2.195e-05
7.27e-05
-0.0003736
0.0002741
9.949e-05
0.006365
-0.004868
-0.001497
-0.08576
-0.02076
6.18e-06
8.452e-07
-7.025e-06
0.01607
-0.02033
0.004259
1.571e-06
-2.939e-05
-0.0003855
0.0005871
-0.0002015
0.0002392
-0.0003665
0.0001274
0.2461
-0.2554
0.009325
0.005914
-0.005053
-0.0008611
4.874e-06
-1.987e-05
1.5e-05
0.0001335
0.000325
-0.0004584
-0.0003986
0.0004384
-3.977e-05
-7.382e-05
0.0001484
-7.455e-05
0.003925
0.001989
-0.0001758
0.0001495
-0.02278
0.0213
0.009208
-0.07464
3.181e-05
-5.195e-05
2.014e-05
-0.5078
0.03685
-0.000305
-2.022e-05
0.0003252
-6.504e-05
3.217e-05
-0.0005513
0.01662
-0.004431
0.003517
0.0009139
-0.0001389
0.0004913
-0.0003524
-0.002127
0.002101
2.52e-05
0.1111
0.4876
-0.5988
0.0002669
-0.000521
-0.0002753
-0.0001923
0.0004676
-0.0003104
-3.366e-06
0.0003137
0.001238
0.008029
-5.107e-05
-0.0003115
0.0003626
-0.001073
0.000684
2.613e-05
4.997e-05
-0.0003894
0.0003234
6.595e-05
-0.0002165
3.436e-05
-4.9e-05
0.001726
-0.001677
-0.000639
0.000111
0.000528
-0.0002543
3.157e-05
-1.615e-05
1.5e-05
1.153e-06
-0.000102
0.0001102
-8.199e-06
-0.6751
0.872
0.0006351
-0.0001783
0.008124
-0.01077
0.002651
-0.003593
0.004108
-0.01224
0.0006826
0.01156
-3.733e-05
1.133e-05
-0.011
-0.007302
0.0183
-1.275
1.436
-0.1617
0.0001444
-0.0001452
7.777e-07
-6.226e-05
-3.51e-05
9.736e-05
0.007122
0.01134
-0.01846
0.002785
-0.002659
-0.0001262
0.5726
-0.1919
0.001036
-0.002054
0.001018
-6.879e-06
2.97e-05
-2.282e-05
-0.06027
0.04632
-0.02554
-0.1812
0.7014
-0.6554
-0.04599
0.0004171
-0.0004358
0.06663
-0.03021
-0.0003484
-0.000117
0.0004653
0.05183
-0.05482
0.002993
1.893e-05
0.0001233
-0.009851
-0.1343
0.1441
0.0004124
-0.0003026
-0.0001098
0.05473
-0.2263
-0.0001609
-0.0001609
0.0002969
-0.0003411
4.419e-05
-0.0003982
0.0002336
0.0001646
-0.001349
0.003013
-0.001665
-9.432e-06
1.77e-05
-8.269e-06
-0.01949
0.007925
0.01157
0.0003599
-0.0001916
-0.0001683
0.0001627
5.158e-05
-0.0002142
5.13e-05
-5.274e-06
-4.602e-05
0.0004123
-9.659e-05
-0.0003157
3.069e-05
0.007442
-0.007473
-0.002494
0.00215
-3.657e-05
-3.245e-05
6.902e-05
9.303e-05
0.0002693
-0.0003623
0.00188
-0.001644
-0.0002364
3.601e-05
-7.257e-05
0.3523
-0.9419
0.5896
0.1189
-0.0004265
-0.1185
-0.0002457
0.0001037
0.0001419
3.038e-05
-3.314e-05
2.76e-06
-1.539
0.1227
1.417
0.0006525
-0.0003883
-0.0002642
-0.002021
0.01163
-0.00961
0.00509
0.008996
7.802e-05
8.548e-05
0.0314
-0.01711
-0.01429
1.412
-0.2682
-1.144
3.789e-05
-0.0002279
0.00019
-0.01183
0.009806
5.481e-05
-4.835e-05
-6.461e-06
9.773e-06
4.502e-06
-1.428e-05
8.791e-05
-6.282e-05
-2.509e-05
0.0003436
-2.79e-05
-0.0003157
-3.709e-05
5.713e-06
3.138e-05
-0.0002043
-0.0001473
-0.0007098
7.473e-05
0.0006351
0.0008859
0.001899
6.699e-05
-3.132e-05
-3.568e-05
-0.1252
0.2552
-0.13
-0.0001013
0.000163
-0.1023
0.08376
0.01854
0.0007069
-0.0005762
-0.0001307
0.0004164
-0.0008467
8.407e-05
-7.562e-05
-8.455e-06
0.0002728
-0.001485
0.001212
-8.842e-09
-2.663e-08
-0.0002643
0.0001257
0.0001386
-0.0003409
0.0007502
-0.0004093
0.03086
-0.01862
-0.01224
0.00185
-0.002345
0.0004952
-0.2872
0.2316
0.0556
6.502e-05
2.289e-05
0.1164
0.002501
0.0001584
1.886e-05
-0.0001773
0.0005475
-0.0003509
-5.179e-08
5.179e-08
7.829e-08
-2.185e-08
-5.644e-08
5.905e-08
-5.478e-08
-4.267e-09
1.196
-0.8185
-0.3779
-2.36e-05
-2.34e-05
4.61e-05
0.0003286
-0.0003747
-0.145
-0.1126
-0.0006456
2.467e-05
0.0006209
-0.0002719
0.0008433
-0.0005714
-0.0002103
0.0002301
-1.98e-05
0.00341
-0.0002985
-0.003112
-1.491e-05
0.0003118
-0.0003413
-5.69e-05
0.0003931
0.0002594
5.858e-06
-5.434e-06
-4.234e-07
-0.4368
0.7892
-0.0002537
0.0001463
0.0001074
4.379e-08
-4.241e-08
-1.377e-09
0.0003952
-0.0004482
5.305e-05
0.0001993
-4.48e-05
-0.0001545
7.021e-06
-5.839e-06
0.0636
-0.1791
0.003408
-0.0008483
-0.05116
0.07819
-0.0002704
0.0003634
0.04232
0.2464
-0.2887
-0.0001547
3.636e-05
0.0001184
-3.753e-05
-5.694e-05
9.447e-05
3.846e-05
-3.638e-05
-2.078e-06
1.526
-0.9018
-0.6239
-0.0001977
-4.793e-05
0.009515
0.00398
-0.01349
1.115e-07
-5.005e-07
3.89e-07
-0.0006333
-2.6e-05
0.0006593
0.0001049
-7.691e-06
-9.718e-05
0.0006441
-0.0002923
-0.0003517
-0.1072
0.1026
0.004584
1.806e-05
-8.181e-05
6.375e-05
0.0009069
0.0006986
-0.001606
-0.8034
-0.7359
0.002384
-0.003909
-9.12e-05
0.004
-0.0002235
0.0001136
0.0001906
0.0003673
6.221e-08
3.032e-05
6.011e-05
-9.46e-06
-5.065e-05
-0.0005474
0.0001618
-0.002869
0.003495
-0.0006256
0.0006776
2.794e-07
-0.0006779
0.0001391
-0.0002844
0.0001453
4.052e-05
0.0001039
0.1128
0.05521
-0.168
-4.1e-05
3.047e-05
1.053e-05
3.211e-05
-0.0001542
0.0001221
0.0002355
-0.0002602
2.469e-05
0.0009331
-0.001981
0.001048
0.0001295
-0.0002367
0.0001072
-0.7909
0.1142
0.6768
-0.7883
0.6297
0.1585
0.002336
-0.01143
-3.122e-05
-2.137e-06
-0.000531
-0.001251
0.001782
0.1384
-0.2085
0.07018
1.472
-0.6489
-0.8235
-0.001449
0.002355
-0.0009063
0.000172
-0.0002509
7.889e-05
-0.0005894
0.0002375
0.0003519
-0.0006851
-2.477e-05
3.998e-05
3.463e-06
-4.345e-05
-1.663e-05
1.55e-05
1.134e-06
-0.003083
0.002944
0.000139
-0.1412
0.1001
0.04106
1.4
-1.278
-0.1228
-4.324e-05
2.158e-05
2.166e-05
-0.0001032
-0.0002483
0.0003515
0.0004849
-0.001489
0.001004
0.3135
0.5219
-0.8354
3.652e-06
7.212e-06
0.002291
-0.002672
0.0003812
-7.173e-05
7.151e-05
2.282e-07
0.4893
-0.0001663
0.00019
-2.374e-05
-0.02709
0.1654
0.0002229
-0.0003618
-0.0001187
4.116e-05
7.755e-05
0.0004173
-0.0001648
-0.0002525
0.9788
0.1618
-1.141
-1.74e-05
-6.451e-05
8.191e-05
0.0004603
0.0002379
-3.808e-05
2.225e-05
0.391
1.021
0.0003479
-0.001199
-4.351e-06
-1.517e-06
0.3953
0.3062
-0.001697
-0.002734
-0.1645
0.005125
0.1593
-0.0002513
-0.0002884
0.0005397
3.604e-05
-2.513e-05
-1.091e-05
-0.2801
0.1897
2.565e-05
-2.335e-05
-2.302e-06
0.0001415
0.0002565
-0.000398
-1.755e-06
8.506e-06
-6.752e-06
-3.738e-05
-2.897e-05
6.634e-05
-0.0001665
8.581e-05
8.074e-05
-0.0001051
-0.0002556
-0.0001237
-0.0002499
7.956e-05
0.0001801
-0.0002596
0.0004248
-0.000453
0.000616
-0.0008824
0.0003819
-0.0005912
0.0002093
8.067e-05
-8.977e-05
9.101e-06
7.306e-05
-4.775e-05
-2.53e-05
0.0001627
-0.0001212
-4.151e-05
-0.5998
0.9134
0.0004168
-0.0002898
-0.000127
0.1082
-0.1942
0.086
-0.0004913
7.452e-06
-0.1244
0.03471
0.08969
4.261e-05
-0.0001711
-0.3422
-0.9325
-0.1524
0.07778
-0.002587
-0.005079
0.007666
-0.0003151
-0.0003239
-0.0001123
-8.989e-05
0.0002022
-1.04
0.128
0.9121
1.107
-0.8991
-0.208
5.488e-05
-2.005e-05
8.864e-06
3.07e-06
-1.193e-05
-1.223e-05
2.397e-05
-0.000257
9.47e-05
0.0001623
0.0007764
-0.0002605
-0.0005159
0.0002876
-0.000636
-0.0002557
0.0003915
-0.0001359
-0.0007001
0.0004248
-7.473e-05
3.767e-05
-2.579e-05
7.118e-05
-4.539e-05
-1.628e-05
-4.544e-06
2.082e-05
-1.16
0.1201
1.553e-05
4.386e-05
-5.939e-05
6.125e-06
-6.519e-05
5.906e-05
-3.455e-05
-0.004989
0.005024
0.009334
-0.005933
-0.003401
0.178
-0.2395
0.06147
1.029
0.443
0.0001474
-9.445e-05
-5.87e-06
-9.238e-05
1.016e-05
5.684e-05
4.131e-06
-2.764e-06
-1.367e-06
-0.07627
-0.04813
-0.9853
-0.4034
1.389
-9.682e-05
-7.209e-05
0.0001689
-6.326e-05
1.393e-06
6.187e-05
-0.05106
-0.006983
8.981e-06
1.106e-05
-2.004e-05
0.01448
-0.002189
-0.01229
-0.03513
0.08738
-0.05225
-9.97e-05
3.52e-05
6.45e-05
0.00228
-0.00281
0.000531
-6.763e-05
7.375e-05
0.004515
-0.009188
0.004673
-1.734e-08
1.734e-08
-1.388e-05
2.943e-06
5.527e-05
0.0003571
0.0002619
9.806e-05
-9.046e-05
-8.395e-05
4.242e-05
1.798e-05
-6.04e-05
-0.0001599
-6.34e-06
-2.107e-05
3.936e-05
-1.829e-05
0.05611
0.006956
-0.06307
0.0001081
-3.627e-05
-7.181e-05
4.287e-06
2.083e-06
-6.37e-06
-6.293e-05
-0.0002421
0.7437
-1.068
0.3246
0.000821
-0.0001443
-0.004688
0.004115
0.0005728
0.001251
-0.003028
0.001777
1.076
0.4497
-0.02576
0.7695
4.775e-07
-4.753e-07
-2.239e-09
0.02336
0.007494
0.0002124
-0.0003691
0.0001568
3.802e-05
-3.852e-05
5.06e-07
-0.0003008
0.0005294
-0.0002286
0.0006361
5.575e-06
0.004209
0.002783
-0.006992
0.0001276
-7.018e-05
0.003416
-0.006537
0.003122
0.0005998
-0.0005122
-8.763e-05
-0.1495
-0.1992
0.3487
1.05
-0.04444
-1.005
-0.00219
-0.0004895
0.002679
-0.0009274
0.009051
5.072e-06
-2.019e-05
-0.001709
0.00296
0.0001913
-0.0002121
2.08e-05
0.0009004
-0.0002926
-0.0006078
0.0002045
0.0001182
-0.0003227
-0.02069
0.02364
0.003299
-0.006481
-1.125
-0.3861
1.511
-6.6e-05
0.0001236
-5.758e-05
0.02284
0.008559
-0.0006359
0.0004818
0.0001541
4.147e-08
-0.00221
0.0006401
0.00157
-0.0001974
0.0002055
0.0001931
-0.0004822
1.257
-0.2787
-0.00144
0.001631
-0.0001905
-0.000208
-0.0003172
0.0005252
-8.831e-06
9.126e-06
-2.954e-07
-0.0007024
-0.0004848
0.001187
0.0003099
2.364e-05
-0.0003336
-4.92e-05
-2.554e-05
-7.041e-05
0.0002125
-0.0001942
-0.0001952
9.93e-05
-0.0003288
0.0002295
0.0005494
0.0003505
-0.0008999
0.0003742
-0.0004744
0.001033
-0.001758
0.0007249
-0.00339
0.0002086
9.575e-05
-0.0005218
0.003113
-0.005958
0.002845
-7.217e-08
7.217e-08
-0.0009967
-0.003692
-0.06602
0.02448
0.0001394
-0.001087
0.0009476
0.0001634
0.000291
-0.0004544
1.599e-06
0.0007136
-0.0007152
0.1017
0.3721
-0.4738
-3.373e-05
2.013e-05
1.36e-05
-2.285e-05
0.0007798
-0.0005254
-6.399e-05
-1.51
0.5252
1.069e-06
3.061e-06
-0.0001297
2.763e-05
0.0001649
-0.0001887
2.383e-05
-0.3881
-0.6376
1.026
2.696e-06
-2.376e-05
0.0001035
-0.0001243
2.081e-05
1.092e-05
-3.438e-05
2.346e-05
1.489e-05
-6.562e-05
5.073e-05
-1.198
0.81
-0.0005444
0.0003183
0.0002261
1.714e-06
-1.815e-06
1.01e-07
2.734e-05
-4.114e-05
1.381e-05
-0.0002743
0.0002785
-4.226e-06
-0.1578
0.06277
0.09504
5.828e-05
1.653e-05
0.0001023
-0.0001479
4.555e-05
-0.1617
0.168
-0.006228
0.002684
0.0005052
-0.003189
-0.003824
0.003741
8.356e-05
5.239e-05
-9.97e-06
-0.0001768
-8.751e-05
-0.002602
0.003767
-0.002499
0.0002896
-5.6e-06
-0.0001091
0.0001147
-4.133e-05
9.541e-05
0.2818
0.5869
-0.8687
-0.0003867
-0.0001577
-0.0004516
0.0007643
-0.0003127
5.467e-05
-5.546e-05
7.869e-07
-6.414e-05
-0.0002462
-0.01353
0.01196
0.001571
-0.0007697
0.0001241
1.372e-05
4.639e-05
1.028
-0.7461
3.251e-05
-0.0002428
-4.031e-05
-5.939e-05
2.27e-05
-3.602e-06
-1.91e-05
1.457e-07
-4.71e-07
8.62e-06
1.408e-05
1.667e-05
2.178e-05
0.0001248
2.269e-05
-0.0001475
0.0002506
-0.00016
-9.053e-05
-0.004501
0.001167
0.003335
0.1728
1.024
-2.324e-09
2.324e-09
7.25e-05
8.78e-05
-0.0001603
3.239e-05
-6.977e-05
3.081e-05
-2.802e-05
-2.791e-06
-0.0001165
0.0002982
-0.0001817
1.72e-05
-9.376e-05
7.656e-05
-0.0001746
2.713e-05
0.0001475
-0.0002935
0.0002527
0.5592
0.8411
0.0001793
0.000561
-0.0007403
-0.004401
0.00124
0.003161
-1.504
0.3789
-8.668e-05
0.0001485
-6.18e-05
0.0001592
0.0005477
0.001515
-0.0005901
0.0008223
0.0003141
-0.001136
0.1374
-1.017
0.8796
8.935e-05
-0.000345
7.604e-05
-1.604e-05
-6.001e-05
-0.2747
-0.7144
0.8518
0.006948
0.002386
-0.0008071
0.001056
-0.0002491
0.0004006
0.0003757
-0.0001053
-4.855e-06
0.0001102
-0.0005322
0.0004627
6.946e-05
2.977e-06
-1.878e-07
-2.79e-06
-0.004039
0.0009895
0.00305
-0.003981
0.005362
-0.001381
-0.7988
-0.2695
-0.0003695
9.303e-05
0.0002765
-0.0002934
0.0001424
0.000151
0.000222
-0.0001838
-3.819e-05
5.207e-05
-0.0001
0.001918
-0.001768
1.084
0.08575
-1.17
0.2754
-0.2118
0.07739
-0.1332
0.0558
-8.531e-06
2.112e-06
6.42e-06
0.04542
-0.8442
0.03368
-0.01875
-0.01493
-6.993e-05
0.0001432
-7.331e-05
-0.0007005
-0.0008305
0.001531
6.67e-05
2.748e-05
-9.419e-05
-0.2158
0.8475
-0.6317
-0.0001722
0.0001186
5.358e-05
-0.0003135
0.001741
-0.001427
-0.2387
-0.01745
0.2561
0.0001338
0.0001305
0.6916
0.4735
-1.165
-0.0003571
-0.0002169
0.000574
4.835e-06
-1.952e-06
-2.884e-06
5.424e-05
-2.549e-05
-2.874e-05
-0.0002408
-0.0003974
0.0006383
1.12e-05
7.798e-06
-1.9e-05
0.1854
-0.04864
-0.1368
2.159e-05
1.602e-05
-3.761e-05
-0.008997
0.009105
-0.0001079
-0.0001202
-3.454e-05
6.549e-06
-1.111e-06
-5.438e-06
-0.0001137
-0.0001033
0.000217
0.0001972
5.845e-05
-0.0002556
-0.007051
-0.006481
0.005327
-0.005889
0.0005621
0.001834
-0.0003521
-0.001482
3.251e-05
-3.251e-05
-0.3402
0.1971
0.1431
-0.001002
0.002032
-0.00103
0.0004775
-0.0003092
-0.0001684
-0.0001506
0.0002774
-0.0001268
-1.033e-06
5.321e-06
6.016e-05
-5.279e-05
-7.368e-06
-0.1176
1.202
0.04686
-0.02846
-0.0184
-3.062e-05
-1.262e-05
-0.0001076
4.247e-06
0.0001034
-2.83e-06
4.081e-06
-1.252e-06
-0.0003674
0.0009808
-0.0006134
1.897e-06
-1.897e-06
-0.0002335
0.0002636
-3.014e-05
4.601e-07
-4.601e-07
-0.0001143
3.578e-05
7.853e-05
2.2e-05
1.315e-05
-3.514e-05
0.000626
-0.0004466
2.144e-05
-1.515e-05
-6.294e-06
0.09798
-0.07368
-0.02431
0.001291
-0.0009843
-0.0003063
1.092
-1.516
0.4241
1.318
-1.741
0.4228
-3.748e-05
-0.0001657
0.0002032
-0.04307
0.0921
-0.04902
6.171e-05
-8.322e-08
-6.163e-05
-0.003843
0.001676
0.002167
-0.001117
0.0001081
-0.007725
0.008724
-0.0009988
0.04621
-0.1012
0.055
-0.0005332
2.77e-05
0.0005055
0.0004807
0.0007656
-0.001246
0.2521
-0.005991
-0.0001637
0.0004378
-0.0002741
0.000181
-0.0003238
0.0001428
0.09366
-0.04744
2.369e-05
-1.171e-05
-1.198e-05
7.298e-06
-7.299e-06
-0.0001093
2.674e-05
8.26e-05
0.0008625
-0.002788
0.001925
6.842e-05
-3.649e-05
-3.193e-05
-0.000165
0.0002875
-0.0001226
-9.529e-05
9.085e-05
4.439e-06
-0.3384
0.1234
0.215
0.0001045
-2.042e-05
-0.000313
-0.0003228
-0.04979
0.3508
2.893e-05
-2.169e-05
0.0002415
-2.389e-05
-0.0002176
0.0004953
-0.0008941
0.0003988
-0.4773
-0.5494
1.027
0.218
0.0008769
-0.2189
0.001627
-0.001265
-0.0003619
7.63e-07
4.522e-07
-1.215e-06
0.0001497
-0.002155
0.002005
-7.207e-06
7.208e-06
0.0006148
-0.0003317
-0.0002831
0.000706
-0.0001839
-0.0005222
-0.001571
0.001434
0.0001366
2.034e-06
1.302e-06
-3.335e-06
5.672e-05
1.669e-05
-7.341e-05
-0.4117
1.373
-0.9609
-8.586e-05
0.0001179
-3.203e-05
0.005525
-0.0004598
-0.005065
-0.3003
1.333
-1.032
-0.0005907
-0.0008142
0.001405
-1.329e-07
7.076e-08
6.212e-08
0.0008321
0.0005283
-0.00136
-2.543e-05
1.897e-05
6.458e-06
0.006607
-0.003713
-0.002894
0.001242
0.003114
-0.004356
-4.52e-07
-7.394e-07
1.191e-06
1.26e-05
-1.26e-05
0.0003152
0.0001366
-0.0004518
-0.08788
-0.05328
-0.4604
0.2235
0.2369
0.002808
-0.001069
-0.001739
-0.001358
0.001041
0.0003175
-5.907e-05
-0.000103
0.0001621
3.345e-05
-1.94e-05
-1.405e-05
-0.000545
-0.0001825
0.0007275
0.0001703
-8.121e-05
-8.911e-05
-0.001614
0.001442
0.0001717
-0.009298
0.01719
-0.007892
6.606e-05
0.0001043
-0.03224
-0.01552
0.04776
1.762e-05
1.043e-06
-1.867e-05
0.1369
-0.5756
0.4387
-0.0002321
-0.000322
0.0005541
-1.544e-06
8.801e-06
-7.257e-06
0.0002411
-0.0003064
6.536e-05
-0.0001208
0.0001008
2e-05
0.000464
-0.000237
-0.000227
-0.3822
0.0971
0.2851
-0.1891
0.05583
0.1333
2.463e-05
-4.085e-05
1.622e-05
0.007777
-0.008833
0.001056
-7.414e-05
0.0001453
-7.111e-05
0.0002524
-0.0004303
0.0001779
3.778e-05
-7.394e-05
3.616e-05
-0.0005138
0.0005007
1.31e-05
0.0001978
-6.506e-05
-0.0001327
-0.0001094
0.0001141
-4.707e-06
-7.799e-06
5.557e-05
-4.777e-05
4.311e-05
-4.311e-05
4.284e-06
-6.924e-05
6.496e-05
-2.068e-05
0.0001439
-0.0001233
-7.618e-05
6.338e-05
1.28e-05
-0.002726
0.004092
-0.001366
-0.0003503
0.0007339
-0.0003836
0.0001284
0.0006652
0.000131
-0.0001365
5.479e-06
-2.819e-07
-4.049e-06
4.331e-06
3.54e-08
-7.596e-09
-2.78e-08
0.0005711
-0.0002728
-0.0002983
-0.3194
0.4211
0.5899
0.2175
-0.8074
0.0004306
-0.0005712
0.0001406
-8.247e-05
-0.000242
0.0003244
0.004819
-0.0008864
-0.003932
-0.1886
1.18
-0.9916
0.0002688
0.0005958
-0.0008646
0.0003715
2.005e-05
-0.002509
-0.005791
0.0083
-4.768e-05
-3.072e-05
7.84e-05
0.0004083
-0.0002777
-0.0001306
1.757e-05
-6.989e-05
5.232e-05
0.002726
-0.003211
0.0004852
0.7873
-0.6762
-0.00839
0.00281
0.005581
0.01228
0.0006273
-0.01291
6.775e-05
-7.852e-06
-5.99e-05
2.462e-05
4.132e-05
-6.594e-05
0.0001221
-9.157e-05
-3.055e-05
-0.004373
0.0017
0.002672
0.0001697
-0.002332
0.002162
-9.312e-06
2.396e-05
-1.465e-05
-0.000364
0.000542
-0.0001781
-0.002047
-0.001346
0.003393
-0.001094
0.0004347
0.0006592
-0.0006648
-0.0001451
0.0008099
0.001118
-0.0009087
-0.0002093
-0.0002751
0.0002345
4.062e-05
0.0001362
-9.74e-05
-3.884e-05
0.2602
-0.3214
0.06124
1.526e-05
-8.702e-06
-6.563e-06
3.381e-07
1.242e-06
-1.58e-06
-0.0006824
0.0002308
3.136e-06
-8.925e-05
8.611e-05
-3.412e-05
1.337e-05
0.02164
-0.1183
0.09669
5.363e-06
-5.364e-06
-4.688e-05
4.688e-05
-0.1666
-1.048
1.214
1.259
0.2309
-1.49
0.0001093
-5.952e-05
-4.981e-05
-4.2e-05
0.0002862
-0.0002442
-4.353e-08
4.913e-08
-5.596e-09
-1.241e-05
5.214e-06
7.192e-06
-0.0001473
0.001438
-0.0003086
0.0004008
-9.221e-05
-7.819e-05
-7.995e-06
8.619e-05
-0.001098
-0.004186
0.005284
0.003616
0.005177
-0.008793
-0.1898
0.06296
0.1268
-8.015e-05
5.379e-05
2.636e-05
6.295e-05
0.0004594
-0.0005223
6.443e-05
-0.0001298
6.54e-05
-0.004639
0.001023
0.003615
5.044e-07
-1.055e-06
5.503e-07
-0.0002722
0.0003712
-9.893e-05
0.8162
-1.148
0.3314
-5.506e-05
5.506e-05
-0.0001476
9.611e-05
5.146e-05
0.1661
0.5628
-0.7289
-4.023e-05
3.142e-06
-1.287
1.12
0.2421
-0.4265
0.1844
-0.002956
0.002065
0.0008913
-0.01122
-0.00215
0.01337
-4.59e-06
2.82e-06
1.77e-06
0.7808
-0.9461
0.1653
0.0002894
-0.0001536
-0.0001358
0.4758
-0.136
-0.3398
0.0004692
-0.0008723
0.0004031
-0.01685
0.00557
0.01128
0.0003946
-0.0002278
-0.0001668
0.006159
-0.003227
-0.002932
-7.094e-05
-0.0002986
0.0003695
-0.0003201
-0.0001276
0.0004477
-5.182e-05
-1.565e-05
6.747e-05
0.00153
0.0003351
-0.001865
0.1495
0.6502
-0.7998
0.01103
0.0607
-0.07173
0.0003281
-0.0001756
-0.0001525
-0.0001071
-0.0005389
0.0006461
-3.534e-05
0.0001175
-8.219e-05
-9.984e-05
5.625e-05
4.359e-05
2.511e-05
-1.505e-05
-1.006e-05
5.353e-05
1.37e-05
-6.723e-05
9.232e-06
-9.232e-06
3.921e-05
-6.817e-05
0.000692
-0.0005075
-0.0001846
1.318e-05
-3.004e-05
1.686e-05
-0.0003962
0.0002571
0.0001392
5.853e-05
2.646e-05
-8.498e-05
0.005447
-0.006338
0.0008915
-0.0009754
0.000353
0.0006225
0.4955
-0.3659
-0.1296
3.471e-05
-3.775e-05
3.042e-06
5.482e-06
-1.866e-05
1.318e-05
-0.0001652
1.139e-06
0.0001641
0.4962
-1.094
0.5982
-0.0003571
0.0001212
0.0002359
-0.000659
0.0003771
0.0002819
-0.001635
0.0004127
0.001222
0.001202
-0.0005487
-0.0006529
1.579e-05
-7.781e-05
6.202e-05
0.001432
0.006733
-0.008165
-1.747e-05
1.99e-05
-2.428e-06
5.531e-05
0.0004389
-0.0004942
-0.0008298
-0.000805
2.438e-05
4.407e-05
-6.845e-05
-0.0002641
-3.965e-05
0.0003038
4.234e-07
6.126e-06
-1.181
0.5418
0.6392
0.002176
-0.004253
0.002077
3.133e-05
-1.114e-05
-2.019e-05
0.1289
0.05725
-0.1861
4.11e-05
-1.134e-05
-2.976e-05
-2.689e-05
-6.639e-06
3.353e-05
-1.247
1.247
0.001505
0.002342
-0.003848
1.339e-05
-1.934e-05
5.951e-06
0.06863
-0.05262
-0.01601
0.006548
-0.001102
0.0002682
-0.0001965
-7.164e-05
6.763e-05
-1.41e-05
-5.353e-05
0.01235
-0.009526
-0.002819
-1.269
0.5236
0.7457
-3.616e-05
5.745e-05
-2.129e-05
3.952e-05
-9.148e-05
5.195e-05
0.4034
-0.2559
-0.1475
-0.008456
0.00588
0.002576
0.001071
-0.03118
0.03011
0.0003223
0.0001046
-0.0004269
4.313e-05
1.392e-05
-5.704e-05
-0.001514
-0.0007643
0.002279
-0.05389
-0.05458
0.1085
-2.436e-07
2.398e-06
-2.154e-06
1.452e-08
3.367e-07
-3.513e-07
0.0001074
0.0003094
0.0002046
-0.000686
0.0004813
0.00053
-0.0008187
0.0002887
1.46e-05
6.837e-06
-0.3928
1.24
-0.8477
0.0001419
-0.0007119
0.00057
0.3498
-0.00693
-0.3429
-0.0002059
0.0002965
-9.056e-05
-0.0009435
0.0009308
1.272e-05
-2.629e-05
-3.567e-05
6.196e-05
0.0003184
0.0008832
-2.259e-06
2.942e-06
-6.822e-07
-6.581e-06
7.121e-06
-5.406e-07
-0.5585
0.2185
0.34
-9.928e-07
9.928e-07
4.576e-05
-3.439e-05
-1.137e-05
-1.055e-05
4.09e-05
-3.035e-05
-0.001415
-0.0001587
0.001574
-0.0001295
0.0001818
0.0004554
0.000228
-0.0006834
-0.001227
0.0008599
0.0003668
-0.000105
8.704e-05
1.8e-05
0.001588
-0.001109
-0.0004782
-0.009762
0.02481
-0.01505
2.658e-06
-2.658e-06
0.0002112
-0.0002607
4.942e-05
-0.0004495
0.0002004
0.0002491
0.0001482
7.416e-05
-0.0002224
0.0008546
-0.000712
-0.0001426
0.0001916
0.0003164
-0.000508