/*--------------------------------*- C++ -*----------------------------------*\
  =========                 |
  \\      /  F ield         | OpenFOAM: The Open Source CFD Toolbox
   \\    /   O peration     | Website:  https://openfoam.org
    \\  /    A nd           | Version:  8
     \\/     M anipulation  |
\*---------------------------------------------------------------------------*/
FoamFile
{
    version     2.0;
    format      ascii;
    class       volVectorField;
    location    "20";
    object      U;
}
// * * * * * * * * * * * * * * * * * * * * * * * * * * * * * * * * * * * * * //

dimensions      [0 1 -1 0 0 0 0];

internalField   nonuniform List<vector> 
127143
(
(0.0009482 -4.074e-05 0)
(-2.545e-05 -0.0001263 -1.581e-24)
(-5.215e-05 -0.0002561 2.802e-24)
(-6.776e-05 -0.000309 -1.256e-27)
(0.005827 0.001821 -4.55e-23)
(-5.724e-05 -0.0003172 4.048e-27)
(0.01688 0.01077 0)
(0.008688 0.003999 -6.264e-23)
(0.00708 0.003421 2.067e-22)
(-0.001685 -6.097e-05 0)
(0.01822 0.0252 2.313e-22)
(0.01127 0.007514 2.275e-22)
(0.0001135 -4.295e-05 -5.574e-25)
(-8.767e-05 -0.0003457 0)
(0.04852 -0.01978 5.241e-21)
(0.02106 -0.001965 0)
(-0.0001178 -0.0005784 -4.547e-24)
(-0.008615 -0.07768 2.831e-20)
(-0.1879 0.01059 0)
(0.03277 0.01002 0)
(-0.112 0.03371 2.259e-20)
(-0.0005688 0.0001564 0)
(0.9924 -0.1463 0)
(0.3541 -0.03437 0)
(-0.0005809 0.0001833 -5.282e-23)
(0.1167 -0.0188 0)
(-0.01591 0.0001687 4.002e-21)
(-0.01592 -0.0004438 -6e-23)
(0.1248 -0.05412 0)
(0.3624 -0.09106 -2.671e-21)
(0.2862 -0.01764 0)
(0.1122 -0.01668 -1.617e-21)
(0.04998 0.01237 8.759e-22)
(-0.008905 0.002443 -5.719e-21)
(0.8784 -0.08046 2.192e-20)
(0.04853 0.01433 -2.264e-24)
(-0.187 0.06576 9.361e-21)
(0.1277 0.02218 -1.722e-20)
(0.44 -0.03969 -1.463e-21)
(0.1176 -0.00324 1.231e-25)
(-0.1887 0.008788 0)
(1.068 0.4517 -5.75e-21)
(1.048 0.4404 4.376e-21)
(0.0002374 -8.191e-05 0)
(-0.01997 -0.07049 -2.414e-20)
(-0.009292 0.002109 1.81e-21)
(0.1275 -0.05843 0)
(-0.2239 0.07816 -1.359e-21)
(0.4293 -0.07564 3.788e-22)
(0.4199 -0.03332 -9.08e-22)
(0.02508 -0.001779 -5.11e-23)
(0.979 -0.03425 3.512e-20)
(-0.06984 0.008733 0)
(1.165 0.167 -8.368e-21)
(1.002 -0.0009414 2.146e-20)
(0.3198 -0.0793 1.714e-22)
(1.002 -0.0009361 -1.931e-20)
(1.112 -0.07901 0)
(1.01 -0.008249 -1.405e-20)
(1.164 0.1681 -1.627e-20)
(0.5173 -0.06994 -6.523e-20)
(-0.1773 0.06905 -1.532e-21)
(0.8024 -0.05293 5.079e-21)
(1.001 0.0004754 4.216e-20)
(-0.03648 0.002977 0)
(0.8753 -0.238 -6.237e-21)
(1.076 0.15 2.813e-20)
(0.7443 -0.05474 0)
(0.7553 -0.05418 1.393e-21)
(0.9904 -4.13e-05 0)
(0.3214 -0.02385 0)
(-0.01712 0.0001751 -1.885e-21)
(-0.199 -0.03433 -6.682e-21)
(1.01 -0.008114 -7.791e-21)
(1.003 0.002797 -3.913e-22)
(-0.01718 -0.0003543 1.875e-21)
(1.008 0.03641 -1.546e-20)
(-0.1923 0.0654 0)
(0.3308 -0.08706 -2.95e-22)
(1 0.0006366 0)
(0.1216 -0.05614 7.22e-24)
(0.03608 0.009258 1.173e-23)
(-0.01717 0.004135 3.713e-21)
(0.1445 -0.009928 0)
(-0.1617 -0.002807 1.474e-21)
(-0.206 0.07111 0)
(0.5212 -0.05097 -3.322e-21)
(-0.005039 0.000154 1.221e-21)
(0.8747 -0.2355 0)
(0.9699 0.5927 0)
(1.001 -0.004762 0)
(1.215 0.06443 0)
(1.117 0.6871 0)
(-0.1122 0.03386 -2.324e-20)
(-0.04672 0.009483 0)
(1.039 0.06854 1.784e-20)
(1.069 0.444 1.205e-20)
(0.199 -0.01416 0)
(-0.1957 0.06449 5.443e-21)
(1.072 0.1503 0)
(1 0.0006185 0)
(0.4536 -0.08214 0)
(0.5881 0.5464 -6.528e-22)
(1.078 -0.1228 0)
(-0.2089 0.07244 -2.948e-21)
(-0.1947 0.06404 7.808e-21)
(0.7393 -0.1153 -2.501e-21)
(0.9897 2.313e-05 0)
(0.7006 -0.2737 0)
(1.002 -0.0006893 3.032e-20)
(0.05802 -0.0236 -1.676e-21)
(-0.004885 9.755e-07 2.338e-21)
(-0.07398 0.01866 -2.185e-20)
(0.2504 0.5064 0)
(0.9959 0.008884 1.497e-20)
(1.03 -0.168 -4.489e-22)
(0.9874 0.03857 -8.974e-21)
(1.003 0.002915 -2.622e-20)
(1.008 0.03545 1.208e-20)
(-0.0007681 -0.003277 0)
(1.002 -0.0007336 -4.24e-20)
(-0.02002 0.005358 -9.196e-22)
(0.7593 -0.2795 0)
(1.091 -0.08752 1.548e-20)
(0.1276 -0.05653 3.225e-22)
(0.07997 -0.01028 -4.147e-21)
(-0.1866 0.06628 0)
(1.034 0.006527 1.008e-19)
(-0.07324 0.005254 -2.992e-21)
(0.3213 -0.09266 -5.093e-22)
(-0.1339 0.04208 0)
(-0.04758 0.01181 -7.368e-21)
(0.9505 -0.07954 -1.007e-20)
(-0.1942 0.066 0)
(-0.0001759 -0.001048 -2.526e-23)
(-0.1375 0.04345 -3.721e-21)
(1.088 -0.04526 0)
(-0.1133 0.03537 5.753e-21)
(0.1543 -0.08734 -2.756e-21)
(1.111 0.00248 9.392e-21)
(0.9615 -0.176 5.188e-21)
(0.9855 0.02637 5.071e-20)
(-0.07135 0.01328 1.276e-21)
(-0.0913 0.02742 -1.87e-20)
(-0.06847 0.008685 -3.13e-21)
(1.231 0.4669 3.599e-21)
(-0.02755 0.1553 7.078e-22)
(1.001 0.0004128 -3.806e-20)
(-0.04549 0.01116 6.184e-21)
(0.4883 0.4257 -4.095e-22)
(1.077 -0.1142 -3.691e-21)
(0.4894 -0.09711 0)
(0.3694 0.0465 3.934e-20)
(0.8451 -0.1426 0)
(0.2919 -0.1989 0)
(-0.164 -0.002655 0)
(1.113 -0.07799 -5.591e-21)
(0.3103 -0.1089 0)
(-0.2238 0.07803 -2.529e-21)
(0.1725 -0.01545 1.002e-21)
(0.3587 -0.02181 0)
(0.0286 -0.01507 2.127e-21)
(1.001 -0.004463 8.092e-23)
(-0.1357 0.04271 -9.198e-21)
(0.1876 -0.0483 0)
(-0.04043 0.003492 3.989e-21)
(-0.1642 0.05682 -4.851e-21)
(0.6872 -0.2349 1.477e-20)
(0.206 0.05783 -2.365e-21)
(0.9406 0.04376 -6.686e-21)
(-0.01943 0.005772 0)
(-0.0917 0.02782 8.763e-21)
(1.02 -0.1781 -1.15e-21)
(0.8835 -0.2554 -1.686e-21)
(0.9779 -0.0006519 3.623e-20)
(-0.08182 0.007039 8.507e-23)
(1.21 0.526 -6.001e-22)
(-0.07331 0.005414 -2.96e-21)
(0.4058 -0.04092 0)
(1.007 -0.01806 4.886e-21)
(0.8825 -0.2558 -5.81e-22)
(1.008 0.006662 0)
(-0.06439 -0.01053 1.102e-21)
(-0.0818 0.006153 -8.496e-23)
(0.3321 -0.09712 1.077e-21)
(-0.1749 0.06844 2.722e-21)
(1.01 0.2911 -4.156e-21)
(0.2688 0.5225 -4.179e-21)
(0.3817 -0.03736 -2.668e-21)
(1.026 -0.02727 4.3e-20)
(-0.077 0.008635 1.883e-21)
(-0.06349 0.006914 -7.714e-21)
(1.086 -0.04432 7.254e-20)
(0.366 0.8803 -3.027e-22)
(-9.332e-05 -0.001083 4.212e-23)
(-0.1613 0.05925 0)
(1.003 -1.479e-06 0)
(0.9986 -3.721e-06 2.591e-22)
(0.01455 0.007914 0)
(0.9907 0.01259 4.666e-21)
(1.01 0.0075 2.744e-20)
(0.9327 0.001416 1.059e-19)
(0.9863 -0.04344 1.168e-20)
(-0.1936 0.06804 -4.722e-21)
(-0.0001195 -0.0006551 6.101e-25)
(0.6536 -0.0394 5.083e-21)
(1.019 -0.09558 -3.6e-21)
(0.9895 -0.1753 3.677e-22)
(0.4748 -0.1145 -6.538e-22)
(0.9959 0.008586 -7.726e-21)
(1.185 -0.01978 2.009e-20)
(-0.1423 0.00268 1.013e-21)
(0.9958 -0.004429 8.456e-21)
(0.217 0.05906 -2.536e-21)
(-0.0988 0.03117 5.967e-24)
(0.01949 0.001869 0)
(-0.0173 0.00589 -4.451e-22)
(0.9724 -0.1896 -1.088e-21)
(-0.07919 0.02232 -1.36e-20)
(1.021 -0.0943 -1.013e-21)
(1.2 0.5203 -1.185e-21)
(1.001 0.004574 -9.492e-21)
(0.477 -0.09361 2.212e-22)
(-0.05568 0.00883 3.351e-21)
(0.1592 -0.0151 0)
(-0.02745 0.009372 0)
(0.2323 -0.05911 -3.215e-22)
(0.1696 0.02921 1.765e-20)
(-0.06927 0.02379 1.667e-21)
(-0.2008 0.06873 6.886e-21)
(-0.1045 0.03058 1.461e-20)
(1.009 0.005763 -9.47e-21)
(-0.2044 -0.03401 1.334e-20)
(-0.0001989 -0.007252 0)
(-0.1056 0.0309 0)
(1.078 -0.07295 1.577e-20)
(-0.1354 0.04291 4.429e-21)
(0.002387 -0.0003666 2.593e-23)
(1.01 0.007301 -2.553e-20)
(-0.07811 0.009618 1.102e-20)
(-0.06517 0.007106 7.305e-21)
(-0.05119 0.002909 -6.725e-21)
(-0.169 0.04668 -7.408e-22)
(0.3217 -0.1141 4.138e-25)
(0.2064 0.03375 0)
(-0.0006153 -0.003383 1.816e-26)
(0.6236 -0.1267 -1.074e-21)
(-0.01592 0.0002856 0)
(-0.003825 0.001056 5.993e-22)
(1 -3.404e-05 -1.005e-21)
(1.182 0.382 -1.365e-20)
(0.1179 -0.01315 2.941e-21)
(0.9282 -0.2184 0)
(-0.1004 0.0282 0)
(0.4298 -0.1037 1.831e-22)
(0.7183 -0.2772 0)
(1.034 0.005965 -7.906e-20)
(0.3991 0.1323 0)
(0.9394 -0.2372 0)
(0.8599 0.2117 1.305e-20)
(-0.1458 0.05532 -6.373e-21)
(1.014 -0.01096 9.801e-21)
(1.212 0.0649 -3.228e-23)
(0.985 0.02539 -4.085e-20)
(0.05841 0.0145 0)
(-0.04648 0.003562 -2.112e-21)
(-0.07754 0.02547 6.412e-21)
(0.2515 -0.1864 0)
(0.5636 -0.1862 3.738e-20)
(1.198 0.1908 -5.328e-21)
(0.1987 -0.03522 0)
(0.9739 -0.001348 -4.364e-20)
(-0.2206 0.07465 -1.753e-21)
(-0.07804 0.009651 -1.132e-20)
(0.9482 -0.0587 8.176e-21)
(-0.07751 0.00865 -9.202e-21)
(-0.0753 0.01923 0)
(0.5001 -0.07918 3.263e-21)
(0.9556 -0.00204 -7.982e-22)
(0.8892 -0.2604 1.823e-21)
(1.003 -0.0003735 2.233e-22)
(1.035 0.07277 2.753e-21)
(1.079 -0.1224 -1.115e-23)
(0.9953 0.002315 0)
(1.002 0.009859 7.551e-22)
(-0.0004256 -0.001088 -6.114e-24)
(-0.09949 0.03003 0)
(0.996 0.009752 8.255e-21)
(0.4593 -0.06499 2.91e-21)
(1.006 -0.01806 6.144e-21)
(0.4248 0.04216 -5.097e-20)
(0.9823 -0.1835 0)
(1.077 -0.07395 -1.556e-20)
(1.002 -0.1932 0)
(0.9984 -0.005674 -4.386e-21)
(0.6869 -0.2866 -3.427e-22)
(0.2669 -0.02104 2.107e-21)
(0.005835 -0.0323 -8.656e-22)
(-0.1694 0.04714 2.861e-21)
(1.202 0.191 3.784e-21)
(0.1929 -0.02117 -1.165e-21)
(0.9239 -0.2211 -7.057e-22)
(0.795 -0.2306 -9.839e-21)
(1.029 -0.1676 4.337e-21)
(0.1519 -0.01101 0)
(0.482 -0.2782 3.588e-23)
(0.994 -0.1756 1.233e-22)
(0.9956 -0.004599 0)
(-0.07406 0.04758 -1.314e-23)
(1.015 -0.1057 -4.496e-21)
(0.6898 -0.1087 -3.083e-21)
(0.008656 -0.03169 -8.626e-23)
(0.2942 -0.07174 0)
(1.003 -0.0004966 8.198e-22)
(0.9926 0.002653 -2.006e-20)
(1.07 0.4632 5.157e-22)
(0.0169 0.01904 1.029e-20)
(0.184 -0.02007 2.747e-21)
(1.187 0.07698 2.441e-20)
(0.9068 -0.01408 -1.918e-21)
(0.991 -0.1452 0)
(0.3108 -0.02116 -3.564e-21)
(1.062 0.01682 2.304e-20)
(0.9272 -0.2175 -4.422e-24)
(1.049 0.4498 0)
(0.01932 0.016 -1.972e-20)
(0.9158 -0.04387 4.667e-20)
(0.04626 -0.01333 -6.752e-24)
(0.3428 -0.003042 2.071e-21)
(1.174 0.5812 5.599e-21)
(-0.2018 0.07378 0)
(1.002 0.009738 -1.37e-21)
(0.8836 -0.08145 -8.474e-20)
(1.003 5.184e-06 0)
(0.9985 -3.625e-06 0)
(0.8447 -0.1389 0)
(0.7121 -0.2751 -2.251e-21)
(1.019 -0.1783 -1.126e-21)
(-0.2021 0.07406 -2.149e-21)
(-0.08145 0.02436 -2.509e-20)
(1.107 0.0001549 -4.243e-20)
(0.9725 -0.1899 0)
(-0.05983 0.009161 3.062e-21)
(-0.07795 0.008645 1.58e-21)
(0.205 0.1084 -1.146e-22)
(0.4503 -0.06262 -1.9e-21)
(-0.0271 0.006852 -3.918e-21)
(-0.05959 0.01237 6.798e-21)
(0.2161 -0.02566 -2.259e-21)
(-0.0681 0.005882 0)
(0.2292 -0.02501 1.868e-21)
(-0.1206 0.04459 5.93e-21)
(-0.1042 0.02386 -1.836e-21)
(-0.07772 0.008643 6.831e-21)
(0.9206 0.0444 0)
(-0.03183 0.008071 -1.019e-20)
(-0.1005 0.02815 -9.733e-21)
(1.227 0.4357 -3.193e-21)
(1.004 -0.005669 5.026e-21)
(0.3284 -0.002275 0)
(-0.2149 0.06794 -2.585e-21)
(0.8401 -0.0554 1.487e-21)
(0.4135 -0.05882 -4.002e-20)
(0.4436 -0.03124 0)
(0.425 -0.03557 -2.848e-21)
(1.002 0.002272 1.262e-22)
(0.991 0.01233 -1.394e-20)
(0.8938 -0.00107 0)
(-0.01815 0.003253 1.87e-21)
(0.9594 -0.001452 0)
(0.3955 -0.05316 5.307e-20)
(1.063 0.01462 -4.955e-20)
(0.1448 -0.01583 -2.823e-21)
(0.4193 -0.02966 3.44e-21)
(1.027 -0.02582 0)
(1.152 0.06744 -5.648e-22)
(0.2892 -0.02512 2.408e-21)
(0.005285 -0.008586 1.895e-26)
(-0.2058 0.06969 -1.351e-20)
(0.9625 -0.004851 3.925e-21)
(0.2661 0.008057 -6.958e-20)
(0.09291 -0.01197 4.177e-21)
(0.2449 -0.03105 0)
(0.9218 -0.2234 -2.995e-21)
(0.988 0.03713 0)
(0.04723 -0.003422 0)
(0.9511 0.1485 0)
(0.1249 -0.004004 0)
(-0.1618 0.05897 -1.749e-21)
(0.05778 0.03002 -5.26e-20)
(1.011 -0.006219 -4.056e-20)
(0.7637 -0.2034 0)
(-0.04494 0.01502 1.158e-21)
(0.4319 -0.1107 2.763e-22)
(0.3789 -0.03405 5.378e-21)
(0.2672 -0.01695 2.283e-21)
(0.7682 -0.2055 -8.241e-21)
(0.3106 -0.01878 0)
(0.9194 0.04263 0)
(1.013 -0.0114 0)
(0.1291 -0.01097 -6.902e-22)
(1.001 0.004343 3.474e-21)
(-0.09883 0.02738 0)
(-0.06786 -0.009978 0)
(0.9563 0.1507 0)
(1.034 -0.1245 2.752e-21)
(-0.2129 0.07393 -1.489e-20)
(0.9286 -0.08506 7.381e-21)
(1 0.0005218 -8.059e-20)
(0.4375 -0.0452 0)
(0.6948 -0.3033 0)
(0.2159 -0.0284 -2.562e-21)
(0.9628 -0.1748 -5.35e-21)
(-0.2232 0.07846 0)
(0.7737 -0.2838 0)
(-0.04812 0.009762 -6.744e-21)
(-0.1496 0.04741 -1.399e-20)
(0.1707 -0.03285 0)
(0.6754 0.08146 7.698e-21)
(0.5355 -0.2159 -1.143e-21)
(-0.1688 0.05897 0)
(-0.01935 0.006752 -1.748e-21)
(-0.07981 0.02427 0)
(1.003 0.0001734 -1.278e-22)
(-0.2013 0.06873 -8.531e-21)
(0.9111 0.2564 -5.711e-21)
(1.043 0.4287 3.604e-22)
(0.9303 -0.1643 -7.7e-21)
(-0.05419 0.003677 6.816e-21)
(1.001 -0.118 9.152e-22)
(1.003 -0.0001821 0)
(-0.08335 0.02543 0)
(-0.09923 0.02352 0)
(1.198 -0.034 1.103e-19)
(0.8262 0.1581 6.62e-22)
(1.002 0.002229 -4.35e-21)
(0.995 -0.1537 2.689e-21)
(-0.02796 0.006572 -7.236e-21)
(0.9797 -0.03308 -1.336e-20)
(0.9981 -0.005653 0)
(0.9985 -0.0008421 -3.975e-21)
(0.449 -0.03575 1.468e-21)
(1.087 -0.05035 -2.532e-20)
(0.7121 -0.2804 3.235e-21)
(0.9607 0.03026 0)
(0.2117 -0.01529 -1.383e-22)
(0.9905 0.001806 4.564e-20)
(0.3507 -0.238 0)
(0.8784 -0.004451 -1.825e-21)
(-0.1422 0.001092 9.864e-22)
(-0.1436 0.0469 0)
(0.2851 -0.0371 -8.889e-24)
(1.051 -0.1255 -7.648e-21)
(-0.0184 0.003097 1.052e-20)
(0.859 0.07704 -1.916e-23)
(-0.2003 0.06888 -1.606e-21)
(0.1848 -0.02239 -1.188e-21)
(-0.05946 0.003275 0)
(-0.2107 0.07366 0)
(1.033 0.1306 4.258e-21)
(0.9745 -0.08301 3.38e-21)
(-0.04918 0.008828 7.192e-21)
(-0.07221 0.0442 0)
(0.3205 0.4691 -1.995e-20)
(-0.05562 0.008608 -7.489e-25)
(0.9923 -0.0008348 0)
(1.003 0.02426 0)
(-0.08336 0.01634 0)
(-0.03051 0.008517 4.027e-21)
(0.9993 -0.0001374 0)
(-0.1962 0.06544 5.655e-21)
(1.204 0.08124 2.033e-20)
(1.091 -0.08592 -2.343e-20)
(0.03344 0.01932 -3.378e-21)
(1.023 -0.07923 -6.001e-21)
(1.003 -0.0001033 0)
(0.2303 -0.1387 -1.507e-20)
(1.2 0.08083 -1.957e-20)
(-0.07154 0.02483 -1.053e-21)
(-0.007314 0.01235 8.236e-22)
(0.1199 -0.06326 2.369e-22)
(0.3462 -0.2378 -1.755e-21)
(-0.04021 0.005751 1.914e-21)
(0.2951 -0.06953 0)
(0.7002 -0.2989 0)
(0.8571 0.1626 -6.555e-22)
(0.04763 0.01618 -6.46e-22)
(1.009 0.002006 3.284e-20)
(0.1997 -0.01707 -1.974e-21)
(0.9737 0.007847 3.923e-20)
(1.185 0.5252 1.829e-22)
(0.5583 -0.05522 2.924e-21)
(-0.07319 0.007892 0)
(1.233 0.4529 1.597e-21)
(-0.0002013 -0.0011 0)
(-0.1256 0.03974 1.029e-20)
(0.2724 0.2992 5.681e-21)
(1.1 -0.02347 -3.037e-22)
(0.9825 0.69 5.468e-21)
(0.9952 -0.002581 -5.555e-20)
(0.1172 -0.06585 0)
(1.004 0.02435 9.751e-24)
(-0.1607 0.04823 0)
(-0.1585 0.05902 -6.152e-21)
(-9.755e-05 -0.0005907 0)
(0.00115 0.0003492 3.573e-23)
(0.000919 -0.0003423 -1.121e-23)
(1 -0.0002694 -2.802e-20)
(-0.03288 0.008383 0)
(0.4043 0.08901 0)
(0.9929 0.002801 3.912e-20)
(-0.2125 0.07168 3.787e-21)
(0.7295 -0.2696 3.916e-21)
(-0.1549 0.05138 9.686e-21)
(1.047 -0.151 0)
(-0.1419 0.04604 0)
(0.2795 -0.03439 -1.772e-21)
(-0.1959 0.06545 -5.741e-21)
(-0.00594 0.001114 4.457e-22)
(0.9975 -0.0005224 0)
(-0.1184 -0.009348 -1.285e-21)
(-0.0003362 0.0001035 0)
(0.4829 -0.1974 7.233e-22)
(0.2105 -0.02052 8.451e-22)
(-0.02127 0.00609 4.113e-22)
(1.011 -0.007621 -1.222e-20)
(1.081 -0.1136 -4e-21)
(0.9934 -0.04373 -3.008e-21)
(-0.06411 0.04307 1.598e-20)
(0.9997 -0.004071 0)
(0.1764 -0.01369 0)
(0.2845 0.1338 0)
(-0.05608 0.01901 -1.858e-21)
(0.9985 1.631e-05 0)
(-0.08323 0.01631 -8.705e-21)
(1.062 -0.09841 -1.127e-20)
(-0.003044 -0.0006243 7.23e-26)
(0.6693 -0.302 1.71e-21)
(0.2011 0.06001 5.505e-22)
(-0.06222 0.04773 -5.172e-21)
(0.972 0.0005903 2.563e-21)
(-0.1071 0.03736 -1.602e-21)
(0.7815 -0.293 -2.46e-21)
(0.9993 -0.0001375 3.127e-21)
(0.923 -0.2229 4.027e-21)
(0.7957 0.09683 -3.173e-20)
(0.2907 -0.02404 -1.914e-21)
(0.4569 -0.03074 2.24e-21)
(-0.02766 0.007707 -3.954e-21)
(-0.05092 0.01742 8.137e-22)
(-0.1607 0.05894 3.097e-21)
(1.068 0.1822 0)
(0.587 -0.2337 1.003e-21)
(-0.1723 0.05903 0)
(-0.08739 0.02668 1.914e-22)
(1.018 -0.002372 -6.469e-21)
(0.1382 -0.004947 2.264e-22)
(-0.1228 0.03834 -5.809e-21)
(0.2076 -0.03309 3.071e-21)
(0.8803 -0.09434 -6.699e-21)
(-0.1912 0.05776 2.899e-21)
(1 0.001105 0)
(0.9998 0.001392 1.404e-20)
(0.8666 0.2031 -2.12e-20)
(-0.02616 0.006477 -1.871e-21)
(0.961 0.7232 0)
(0.9915 0.003364 -2.666e-20)
(1.003 -5.696e-06 -4.649e-22)
(0.795 -0.2855 0)
(0.3805 -0.1674 0)
(-0.2144 0.07466 4.722e-21)
(0.6988 -0.2995 0)
(-0.04763 0.01629 2.875e-21)
(-0.01628 0.005385 0)
(0.9733 -0.2141 7.338e-24)
(1.007 0.03147 0)
(1 -0.0003526 5.319e-21)
(-0.06133 0.02173 1.63e-21)
(-0.1839 0.06033 -5.044e-21)
(0.854 -0.2005 -4.162e-23)
(1.002 -0.0009402 8.964e-21)
(-0.01745 0.000345 9.101e-22)
(0.9591 -0.09429 0)
(-0.06312 0.01848 7.099e-21)
(0.9627 -0.003657 9.024e-21)
(0.1404 -0.01661 2.43e-22)
(0.9914 0.003114 4.897e-20)
(-0.215 0.07486 -2.487e-21)
(-0.07521 -0.0138 0)
(0.02481 0.03858 9.543e-22)
(1.001 -1.125e-05 2.412e-22)
(-0.08595 0.02859 -6.047e-21)
(-0.1451 0.05501 -1.517e-21)
(0.05112 -0.0316 -3.005e-21)
(1.004 -9.545e-05 -1.298e-21)
(0.765 -0.1216 2.524e-21)
(-0.01755 0.005876 2.07e-22)
(0.9986 -0.0009114 0)
(1.036 -0.1257 0)
(0.9929 0.008271 -8.988e-22)
(0.5695 -0.03618 2.941e-21)
(0.005605 0.01403 0)
(0.9954 0.002147 2.715e-20)
(-0.02123 0.005477 8.843e-21)
(0.3232 -0.04449 1.485e-21)
(0.007824 -0.03453 0)
(-0.06048 0.00874 -1.057e-20)
(-0.0608 0.01369 -2.575e-21)
(0.2424 -0.02553 -5.593e-21)
(0.2531 -0.02958 -1.735e-21)
(0.1932 -0.04218 -2.011e-20)
(0.4666 -0.04345 -1.263e-21)
(1.137 0.7022 7.236e-22)
(0.4925 -0.02057 -2.586e-21)
(-0.1153 0.03263 -2.043e-21)
(-0.0374 0.007831 -3.449e-21)
(0.1702 -0.01524 9.565e-22)
(1.002 -0.0009107 0)
(0.3071 -0.06353 3.215e-22)
(0.9942 0.002495 -1.119e-20)
(0.2203 0.1263 -1.591e-20)
(1.035 0.02202 3.917e-20)
(-0.06972 0.01344 1.813e-20)
(1.003 -0.0002142 0)
(0.9958 0.009576 2.115e-20)
(1.115 -0.0779 2.646e-20)
(0.5446 -0.2202 5.925e-22)
(-0.09215 0.02599 1.008e-20)
(1.003 -0.000474 7.844e-21)
(1.002 -0.001228 -1.234e-20)
(-0.07425 0.02513 -1.684e-21)
(0.0196 0.004221 0)
(-0.02098 0.004998 3.867e-21)
(0.2054 -0.0168 -3.272e-21)
(-0.1985 0.02969 0)
(0.7118 -0.2795 -2.972e-21)
(-0.1473 0.04827 -1.243e-21)
(0.6931 -0.3037 0)
(-0.07805 0.00868 -2.189e-22)
(-0.07097 0.02203 -1.769e-20)
(-0.03693 0.002869 0)
(1.003 -0.0004996 -1.382e-21)
(-0.06292 0.00324 6.787e-21)
(-0.07803 0.009084 8.52e-22)
(1.029 -0.1621 -1.083e-21)
(1.194 0.1389 0)
(1 -0.003697 -9.479e-21)
(1.003 -4.224e-06 4.541e-23)
(0.04252 0.0169 -1.828e-20)
(0.1792 -0.1014 2.486e-24)
(0.04719 0.01748 3.254e-21)
(-0.009167 0.002821 3.548e-22)
(1.034 0.02281 0)
(1.004 -3.403e-05 9.825e-23)
(-0.1304 0.0422 0)
(-0.05909 0.004687 0)
(0.9357 0.001569 -8.412e-20)
(-0.0311 0.003448 -1.904e-21)
(1.029 -0.1377 0)
(0.9906 0.01011 -2.322e-20)
(-0.05641 0.0174 6.597e-21)
(0.9551 -0.2277 -1.099e-22)
(-0.07782 0.009079 5.545e-21)
(0.8422 -0.1688 -3.197e-20)
(0.0002249 -7.191e-05 0)
(-0.02924 0.009771 0)
(-0.2119 0.07406 -1.42e-21)
(-0.1996 0.0693 3.02e-21)
(-0.1004 0.02998 0)
(-0.05216 0.007674 6.7e-21)
(0.1594 -0.02229 -5.417e-22)
(-0.03591 0.005298 0)
(0.9709 -0.02681 -8.894e-21)
(-0.07579 0.006249 1.332e-20)
(-0.007987 -0.01898 0)
(-0.1001 0.02808 -1.344e-20)
(1.002 -0.0008902 2.829e-20)
(0.533 -0.08265 -2.449e-21)
(0.856 -0.2308 0)
(0.5582 0.007647 -2.72e-20)
(0.9985 8.399e-07 3.539e-23)
(1.002 -0.0009212 -3.769e-20)
(0.002973 -0.004939 0)
(1.1 -0.02098 -7.666e-21)
(0.3493 -0.06672 1.065e-21)
(-0.06079 0.007683 -4.527e-22)
(0.502 -0.2818 0)
(-0.07526 0.04703 1.916e-20)
(1.175 0.2146 0)
(0.1803 -0.01478 9.63e-22)
(0.6865 -0.01268 4.405e-20)
(0.4384 -0.1195 0)
(1.009 0.001774 -1.188e-20)
(1.003 -0.0005319 0)
(1.188 0.4056 0)
(0.9203 0.258 0)
(-0.02018 0.003806 4.602e-22)
(0.5653 -0.004708 0)
(0.2398 -0.09846 2.006e-21)
(-0.2061 0.05254 0)
(0.4512 -0.1887 -1.597e-21)
(1.181 -0.02017 1.27e-19)
(0.4719 -0.06205 5.813e-20)
(1.001 2.645e-05 -7.634e-23)
(0.2377 -0.01516 -6.363e-22)
(1.026 -0.07833 -9.591e-22)
(0.3993 -0.09324 1.093e-23)
(-0.0002299 -0.001196 5.987e-24)
(0.9346 -0.1467 8.595e-22)
(0.08979 0.02202 -2.02e-20)
(-0.2061 0.06999 1.353e-20)
(1.001 -1.061e-06 -2.296e-22)
(0.8038 -0.08591 1.219e-22)
(0.4145 -0.03507 -3.729e-21)
(-0.01625 0.005564 0)
(-0.1185 -0.0128 8.393e-21)
(-0.0968 0.03926 1.046e-20)
(-0.07805 0.008688 -3.339e-21)
(0.5397 0.4629 0)
(-0.1491 0.04711 1.339e-20)
(0.4441 -0.2404 2.795e-21)
(-0.1827 0.05245 -1.816e-21)
(0.4742 -0.1164 3.584e-23)
(0.7371 -0.07837 3.585e-21)
(1.027 -0.107 2.134e-21)
(-0.1853 0.06598 4.784e-21)
(1.004 -0.1735 -1.827e-21)
(0.001231 -7.339e-05 0)
(0.8533 -0.2321 0)
(0.941 0.04005 3.31e-20)
(0.7361 -0.1686 9.9e-23)
(0.6617 -0.2867 2.571e-21)
(0.5644 -0.05864 -8.326e-22)
(1.005 -0.0004667 0)
(-0.03838 -0.01346 -9.993e-22)
(-0.1149 0.04478 -1.191e-20)
(-0.2151 0.07499 -4.43e-21)
(1.004 -2.165e-05 -1.539e-22)
(-0.008968 0.003357 0)
(-0.08476 0.0266 0)
(0.141 -0.01847 4.106e-21)
(1.002 2.893e-05 4.582e-22)
(-0.03352 0.005127 3.986e-21)
(-0.1408 0.04474 0)
(-0.03116 0.005746 7.264e-21)
(-0.06725 0.005946 -5.112e-21)
(1.002 -2.487e-05 -3.927e-22)
(-0.2173 0.07617 -7.254e-21)
(-0.006131 -0.001934 0)
(-0.03037 0.009072 7.238e-21)
(-0.09729 0.02605 0)
(0.9895 0.01347 -5.521e-21)
(-0.05871 0.009195 2.803e-21)
(0.04948 0.1098 0)
(1.018 0.002628 -1.295e-20)
(0.9802 -0.1828 -1.132e-21)
(0.9838 -0.2015 0)
(-0.0538 0.007573 -6.881e-21)
(-0.127 0.03978 0)
(0.9241 -0.2196 -2.346e-21)
(0.9236 -0.1453 0)
(0.1026 -0.01293 5.947e-22)
(-0.08577 0.02748 0)
(0.999 -1.471e-05 -4.524e-22)
(-0.2174 0.07618 6.942e-21)
(-0.1954 0.07084 7.145e-22)
(0.1224 -0.009652 0)
(0.2361 -0.03292 1.941e-21)
(1.17 0.1616 0)
(-0.2117 0.07117 0)
(-0.05397 0.01846 2.102e-22)
(0.9987 7.556e-06 1.89e-22)
(-0.16 0.05366 -9.684e-21)
(-0.05706 0.01686 0)
(-0.01752 0.01138 0)
(0.0002517 -0.008542 -6.554e-24)
(-0.01194 0.01231 -3.056e-21)
(-0.05694 0.01979 2.906e-21)
(-0.07411 0.01595 -2.71e-21)
(-0.1593 0.03782 0)
(0.9656 -0.2202 0)
(1 -0.0002609 1.372e-20)
(3.562e-05 -1.432e-05 -4.251e-24)
(-0.1219 0.03843 1.174e-20)
(-0.06243 0.009285 1.031e-20)
(-0.0453 0.01618 8.552e-22)
(-0.2195 0.07692 -1.003e-20)
(-0.1123 0.03899 6.399e-21)
(-0.1205 0.0395 -2.982e-21)
(0.3473 -0.02623 0)
(1 -0.0003293 0)
(-0.1195 0.02535 0)
(1.07 -0.1298 -1.94e-23)
(1.002 -7.635e-06 0)
(-0.1004 0.03194 -9.574e-21)
(1.189 0.5251 0)
(0.7212 -0.1104 2.355e-21)
(0.7732 -0.2767 -1.194e-21)
(1.004 -5.359e-05 -5.206e-21)
(-0.1488 0.04915 0)
(-0.08138 0.01008 0)
(1.009 0.00204 -3.829e-20)
(1.004 -5.964e-05 0)
(1.189 0.1363 0)
(-0.1823 0.07028 5.74e-21)
(-0.1987 0.03079 -2.229e-21)
(-0.1148 0.04001 3.026e-21)
(-0.2164 0.07546 6.63e-21)
(0.03193 0.0006466 6.046e-24)
(1.055 -0.1379 0)
(0.7007 -0.1637 -2.41e-20)
(1.002 -0.0009328 0)
(-0.1867 0.06141 -6.855e-21)
(-0.1777 0.062 0)
(0.2933 -0.01739 -1.912e-21)
(0.1707 -0.01371 0)
(0.6896 -0.2325 -1.392e-20)
(1.003 -0.0002961 0)
(1.011 -0.00725 1.834e-21)
(0.9911 0.003535 3.009e-20)
(-0.01669 -3.793e-05 9.762e-22)
(1.002 -0.0008763 4.971e-21)
(1.171 -0.03489 -4.869e-20)
(0.2078 -0.125 5.445e-22)
(0.8107 -0.1039 4.659e-21)
(0.109 -0.01804 -2.019e-21)
(1.002 -0.001163 0)
(-0.1173 0.004967 -1.84e-21)
(0.7963 -0.09632 -3.016e-21)
(1.001 0.005502 0)
(0.2207 -0.02602 2.087e-21)
(0.9995 -0.0001637 0)
(0.5604 -0.2861 4.422e-21)
(-0.001544 0.01383 -1.766e-21)
(-0.04787 0.005858 -9.682e-23)
(0.2959 0.04386 0)
(0.09595 -0.002248 2.325e-22)
(1.001 -0.005449 2.934e-22)
(-0.02769 0.007716 0)
(0.8343 -0.1784 -8.414e-21)
(0.1821 -0.01313 0)
(0.00265 -0.02083 -7.905e-22)
(0.1674 -0.01995 9.297e-22)
(0.4 0.5571 -1.057e-21)
(1.168 0.1631 -7.649e-21)
(1.006 -0.1822 1.055e-21)
(0.7575 -0.2687 5.313e-23)
(0.03003 -0.002109 0)
(0.9994 0.00658 0)
(0.3295 0.03425 3.444e-20)
(0.3795 -0.1223 0)
(0.3263 0.08132 2.417e-22)
(-0.007623 -0.01816 3.812e-22)
(0.0618 -0.01114 0)
(1.003 -0.0002755 0)
(1.093 -0.1106 3.805e-20)
(-0.0608 0.02082 -7.834e-22)
(0.1184 -0.0289 -1.707e-22)
(-0.007461 0.0001463 3.647e-21)
(0.6015 0.1398 0)
(0.004233 -0.004289 -3.524e-22)
(0.2747 0.06184 -9.052e-22)
(-0.000916 -6.338e-06 1.037e-21)
(-0.05352 0.01422 -5.842e-21)
(-0.04984 0.0174 1.822e-21)
(-0.1119 0.02579 5.354e-21)
(0.05264 -0.003904 7.933e-22)
(1 0.03737 3.28e-22)
(0.6584 -0.09565 0)
(1.003 9.749e-06 0)
(1 -1.656e-05 0)
(-0.08048 0.01339 9.709e-21)
(1.038 0.04252 1.239e-21)
(-0.07017 0.007609 7.638e-21)
(-0.214 -0.04093 -2.063e-20)
(0.2496 0.4755 0)
(1.099 -0.1015 -1.744e-20)
(1.048 -0.03653 -2.517e-20)
(0.9491 0.4186 1.926e-21)
(0.7043 -0.1635 -8.957e-23)
(1.011 -0.006131 2.842e-20)
(0.02642 0.02568 1.622e-22)
(-0.1845 0.06388 -2.207e-21)
(1.046 -0.0346 3.453e-20)
(-0.01879 0.004413 -9.48e-21)
(-0.00741 0.002646 -7.362e-22)
(-0.06148 -0.01415 0)
(0.9698 -0.201 0)
(0.06735 -0.03769 -5.121e-21)
(-0.07885 0.03166 0)
(-0.09624 0.03352 0)
(0.9959 -0.001214 2.191e-20)
(-0.07165 0.007965 5.957e-21)
(0.4084 -0.09359 -1.094e-24)
(1.004 -0.005494 0)
(-0.02399 0.006078 4.436e-21)
(-0.1278 0.03956 0)
(-0.1655 0.06595 -2.793e-21)
(0.9994 -0.0001219 1.453e-21)
(0.8647 -0.003128 4.735e-21)
(0.1579 0.008433 0)
(0.02379 0.001012 1.194e-23)
(0.83 -0.2778 -2.998e-21)
(-0.007345 0.0024 0)
(-0.1857 0.06205 5.959e-21)
(0.6922 -0.3028 0)
(0.7756 -0.173 4.476e-23)
(-0.0121 0.00413 0)
(-0.0597 0.00416 1.709e-21)
(1 -9.758e-06 -7.669e-23)
(0.1633 -0.09575 0)
(1.122 0.3298 -8.807e-21)
(1.003 9.448e-06 0)
(0.7412 -0.285 1.009e-22)
(0.001242 -0.0005082 5.038e-23)
(0.1829 0.02284 -1.034e-20)
(0.02644 0.008292 -4.998e-21)
(1.142 -0.04745 7.511e-21)
(1.037 -0.1625 8.224e-22)
(-0.005725 0.001865 5.315e-26)
(0.01689 -0.001659 -1.496e-22)
(0.3465 -0.03792 0)
(1.006 0.03111 -4.188e-21)
(0.9975 0.002759 6.091e-21)
(0.9798 -0.191 0)
(0.6644 -0.2934 -1.069e-21)
(-0.1432 0.04794 -1.31e-20)
(-0.02134 0.0049 0)
(0.2799 0.6894 -4.774e-21)
(0.2045 -0.08602 -1.098e-21)
(0.3579 0.005355 -1.143e-22)
(1.126 0.1449 -1.783e-20)
(0.2001 -0.08359 -1.059e-21)
(1.118 0.003573 4.597e-20)
(-0.02187 0.001649 0)
(1.005 0.0002581 0)
(-0.2241 0.07877 6.964e-22)
(0.006426 -0.03277 -2.474e-23)
(-0.09044 0.02116 -2.541e-20)
(-0.06845 0.02104 0)
(-0.1859 0.06087 0)
(0.9964 0.001283 -1.84e-20)
(0.9853 -0.002225 1.26e-20)
(-0.05428 0.01908 0)
(0.9436 -0.1909 5.044e-21)
(-0.1263 0.04344 0)
(0.3794 -0.04806 0)
(-0.08531 0.03093 -3.033e-21)
(-0.2125 0.06406 -2.537e-21)
(0.1492 0.02635 -2.559e-21)
(0.06795 0.02015 -1.747e-21)
(-0.06479 0.004492 -8.066e-21)
(0.02919 -0.004364 -9.275e-22)
(-0.07237 0.008853 -6.634e-21)
(0.2497 -0.01709 1.292e-21)
(-0.04613 0.01405 6.083e-21)
(1.043 -0.1284 -5.782e-21)
(-0.2172 0.07429 6.744e-21)
(0.3845 0.8803 3.46e-22)
(-0.1161 0.04028 -1.847e-22)
(0.005002 -0.03043 1.071e-22)
(-0.0002034 -6.887e-06 0)
(-0.1857 0.06063 0)
(1.005 -0.0004424 0)
(1.004 -0.001887 1.858e-20)
(-0.2155 0.076 4.97e-21)
(-0.2066 0.0696 0)
(1.028 -0.1654 6.914e-21)
(1.003 1.734e-05 0)
(0.6604 -0.305 -3.013e-21)
(-0.1465 0.04786 6.47e-21)
(1.123 -0.07068 -2.176e-20)
(-0.09511 0.03225 0)
(0.1057 0.0226 -3.156e-20)
(-0.07188 0.02317 -7.206e-21)
(1.067 0.5784 -8.932e-21)
(0.9999 0.0005103 -5.108e-20)
(1.009 -0.1707 0)
(1.142 -0.03026 -1.344e-20)
(0.1257 -0.04922 0)
(0.1564 -0.01141 0)
(-0.1221 0.03598 1.068e-21)
(0.7261 -0.2117 1.274e-20)
(0.3367 0.03742 5.895e-20)
(-0.02041 0.003582 0)
(0.3622 -0.03033 -1.16e-21)
(1.006 -0.07411 0)
(-0.2035 0.05735 0)
(0.651 -0.3017 3.235e-21)
(0.5544 -0.06355 3.458e-21)
(-0.1652 0.05749 0)
(0.1972 -0.08562 -1.246e-21)
(1.006 -0.008193 -9.242e-22)
(-0.01233 0.004431 0)
(-0.006505 0.002061 0)
(-0.1938 0.07028 0)
(-0.06372 0.008982 1.548e-20)
(0.0442 -0.0152 -7.112e-21)
(1 0.01342 1.341e-21)
(-0.003008 0.0007702 1.595e-21)
(0.03345 -0.006055 0)
(1.001 -0.000165 0)
(0.9996 -5.637e-05 -1.055e-20)
(-0.07596 0.007402 4.036e-25)
(-0.09831 0.02808 3.222e-20)
(0.0004045 -0.0001891 -5.08e-23)
(-0.0005662 -0.02908 3.947e-22)
(0.6807 -0.09879 -6.559e-22)
(0.4424 -0.1647 0)
(-0.07147 0.02344 -6.609e-21)
(1.017 -0.1668 0)
(1.058 -0.1346 0)
(1.003 -0.004835 1.109e-21)
(-0.06228 0.02087 -9.87e-21)
(-0.132 -0.02319 0)
(-0.0915 0.03097 -7.518e-21)
(0.9879 -0.2044 0)
(-0.006195 0.001205 2.221e-22)
(-0.2012 0.07017 -1.288e-20)
(1.002 -0.0007532 -5.641e-22)
(0.03181 -0.004291 0)
(-0.1287 0.04317 -5.455e-21)
(1 -0.0006583 -4.343e-20)
(-0.04139 0.005922 -3.106e-21)
(1.001 -0.0001728 -4.242e-21)
(0.9971 -0.002188 1.703e-20)
(0.9865 -0.135 1.684e-21)
(1 -0.1473 0)
(-0.006002 0.0008553 -5.285e-21)
(1 -0.001297 4.084e-21)
(0.2232 -0.0259 -2.681e-22)
(1.003 0.004173 0)
(1.161 0.5329 0)
(1.01 -0.1336 3.619e-21)
(0.02163 0.01281 6.761e-21)
(1.075 -0.1222 -4.295e-21)
(0.2971 -0.05905 -1.401e-22)
(0.3291 -0.04707 0)
(-0.05294 0.01545 1.361e-20)
(0.8938 -0.09966 6.197e-21)
(1.002 -0.002034 4.482e-21)
(1.015 0.008683 2.617e-20)
(-0.0889 0.02035 1.302e-20)
(0.5505 -0.1026 4.51e-22)
(-0.1105 0.03829 -7.59e-22)
(-0.07624 0.02506 0)
(0.07946 -0.005036 2.449e-25)
(-0.0612 0.01987 -3.549e-21)
(-0.006423 0.002091 -6.259e-21)
(-0.05803 0.008606 1.316e-20)
(0.433 -0.1205 0)
(-0.02833 0.002639 -1.051e-20)
(0.2987 -0.03201 -5.697e-22)
(0.1019 -0.01461 0)
(0.8176 0.3721 3.396e-21)
(-0.08094 0.0308 0)
(1.003 -0.005695 3.241e-21)
(-0.02475 0.00485 1.481e-20)
(-0.03727 -0.001661 1.309e-21)
(0.1643 -0.02671 0)
(0.9981 5.844e-07 3.514e-21)
(0.3194 -0.2132 3.563e-21)
(-0.1637 0.05737 0)
(0.6913 -0.06485 5.67e-22)
(0.7253 -0.2015 2.031e-22)
(-0.07668 0.008479 -8.92e-22)
(1.068 -0.1301 -5.375e-21)
(-0.01386 0.002998 0)
(-0.1304 0.05557 4.831e-21)
(0.6991 -0.06581 1.699e-21)
(-0.09031 0.02939 -9.486e-23)
(0.2944 -0.08138 -8.579e-22)
(0.003414 -0.02175 8.255e-22)
(1.001 -0.0003478 0)
(1.054 -0.06761 -5.206e-21)
(-0.02595 0.004657 0)
(0.9998 -0.006151 0)
(-0.0334 0.00724 0)
(-0.03692 0.003735 8.923e-22)
(0.9991 -1.026e-05 1.725e-21)
(0.9775 -0.2112 -2.315e-22)
(-0.03696 0.006928 0)
(1.031 -0.01511 0)
(0.836 0.3743 -1.436e-20)
(-0.05815 0.02812 0)
(0.0406 -0.01094 0)
(1.031 -0.1434 -7.395e-21)
(1.003 1.957e-05 -1.046e-22)
(-0.03762 0.009405 -2.019e-22)
(-0.07704 0.02328 -4.137e-22)
(1.01 -0.001821 2.383e-20)
(0.8918 0.3369 6.466e-21)
(1.039 0.08544 5.846e-21)
(-0.152 0.04978 9.496e-21)
(-0.04216 0.01187 -6.706e-21)
(1.011 -0.1779 -1.466e-21)
(1.048 -0.03048 0)
(-0.01083 0.001531 -1.956e-22)
(-0.001775 0.0005992 1.85e-22)
(0.319 -0.06801 6.221e-24)
(0.4187 -0.06704 -1.745e-21)
(-0.1996 0.06911 -3.274e-21)
(0.05274 -0.004406 0)
(0.9936 -3.707e-05 -3.618e-21)
(0.5023 -0.0538 3.451e-21)
(1.003 0.005477 1.834e-22)
(-0.1716 0.05474 0)
(0.6077 -0.2933 -3.248e-21)
(-0.0419 0.007112 0)
(0.7178 -0.1995 1.758e-21)
(0.007885 -0.01347 -2.114e-22)
(-0.008012 0.001199 0)
(0.9993 0.002091 -1.228e-20)
(-0.002071 0.0007626 0)
(-0.03697 0.01193 0)
(-0.03324 0.009699 3.543e-21)
(0.8346 -0.06901 5.274e-21)
(0.4477 0.1457 0)
(-0.1493 0.05888 -3.965e-21)
(-0.08779 -0.008492 8.837e-21)
(0.1392 -0.01002 0)
(0.7678 -0.1077 0)
(0.8839 -0.0007078 -7.968e-20)
(0.008024 -0.0004024 1.876e-22)
(-0.1959 0.06688 3.291e-21)