/*--------------------------------*- C++ -*----------------------------------*\
| =========                 |                                                 |
| \\      /  F ield         | OpenFOAM: The Open Source CFD Toolbox           |
|  \\    /   O peration     | Version:  v2012                                 |
|   \\  /    A nd           | Website:  www.openfoam.com                      |
|    \\/     M anipulation  |                                                 |
\*---------------------------------------------------------------------------*/
FoamFile
{
    version     2.0;
    format      ascii;
    class       volScalarField;
    location    "5";
    object      epsilon;
}
// * * * * * * * * * * * * * * * * * * * * * * * * * * * * * * * * * * * * * //

dimensions      [0 2 -3 0 0 0 0];


internalField   nonuniform List<scalar> 
98045
(
3370
2436
915.3
62.48
2677
307.9
2238
1030
635.6
2254
38.14
752
2659
781.3
792
33.12
543.5
0.7409
0.2141
0.6715
0.1881
1.487
0.1272
43.39
0.173
1.648
0.06935
0.9014
180.2
0.5388
3.463
105.2
1.854
1.091
0.172
0.1691
3.267
39.62
1.597
3.482
1.217
8.404
1.186
0.03975
0.1223
1.556
2.613
0.9295
0.1184
0.9088
84.22
18.15
1.231
0.004119
17.73
6.752
9.776
2.293
0.004063
67.64
0.1741
9.852
0.02891
0.001172
0.02769
3.457
0.3928
0.1721
9.546
0.003264
0.6539
0.1661
0.2584
0.008552
65.54
0.1488
0.03875
0.7705
1.162
0.03442
0.08612
124.4
0.8632
1.335
0.1717
0.6423
0.1228
0.02163
0.2423
0.7069
15.44
1.03
0.2172
1.427
0.5834
5.102
0.001348
0.9055
6.643
3.497
0.5702
0.03975
1.024
0.2323
0.1717
2.334
7.669
0.3128
319.8
1.801
1.672
0.2039
0.7079
0.8405
0.8265
0.5553
0.2035
0.3541
1.145
9.662
55.77
0.163
0.509
0.7726
0.01291
0.02902
0.6433
544.2
0.0087
0.8901
6.735
0.2999
11.44
0.03998
1.131
0.2093
0.05327
39.2
0.2336
0.02314
12.32
1
0.1155
3.06
4.529
805.8
0.422
10.39
0.08024
0.06638
13.19
0.5824
1.113
0.06098
0.02153
6.622
3.78
11.32
0.2585
0.849
3.238
0.1616
668.7
6.996
1.036
9.021
1.911
0.8626
44.56
0.1783
1.156
1.512
3.878
0.4586
0.8046
0.8926
0.02269
0.4377
0.06912
0.01258
0.1793
1.868
0.7871
0.3061
0.2629
0.2228
0.8386
476.2
1.609
3.178
1.525
1.047
0.5177
1.891
0.003344
18.08
0.9031
27.26
0.101
2.957
5.173
0.8338
3.639
0.04495
0.00857
4.941
0.1373
0.01227
31.64
1.933
0.02041
0.7879
0.02659
1.05
0.002107
3.342
3.039
0.00202
0.2318
0.4185
0.0801
0.02517
0.003512
0.4993
0.52
0.3475
11.86
0.02378
0.5624
1.456
0.1225
1.175
0.0281
0.2565
0.2181
0.01177
0.1672
1.049
2.379
0.786
0.6901
0.1742
9.178
0.6694
0.07061
5.149
0.6354
0.01811
0.01217
3.3
0.02308
17.18
2.907
17.67
173.7
0.6703
0.9927
1.991
1.963
0.8081
0.0166
2.577
8.049
0.74
0.5154
0.2824
26.4
0.05554
1.13
0.3695
200.7
0.00322
4.41
0.08334
26.04
0.9306
0.09758
284.4
1.509
0.2656
1.678
0.7329
5.448
0.5602
0.669
0.1635
1.691
1.121
0.448
0.3921
0.02829
49.09
0.8357
0.209
0.0128
0.03162
25.62
0.6972
248.1
46.04
74.31
74.25
0.5811
7.245
0.3668
1.368
0.1211
0.472
1.523
0.2108
0.1247
0.8619
0.6366
0.2795
0.06826
2.543
0.7807
1356
0.9205
0.02569
0.5413
1.396
0.1006
2.574
2.989
0.3622
17.45
0.05996
0.8023
5.141
0.3527
4.354
0.897
93.86
2.844
0.381
3.02
0.0611
0.1972
0.001066
0.03588
0.1749
1.036
0.7754
0.1934
185.8
0.4855
8.936
7.937
0.1261
160.2
0.5139
0.1504
3.632
4.367
0.01605
1.601
0.01205
117.3
18.34
5.886
0.003051
363.6
8.169
0.005784
0.2046
0.04782
0.9645
404.2
0.4502
1.731
5.37
0.05494
0.7053
2.249
2.553
0.009876
14.38
140.4
0.000948
2.829
25.42
63.68
3.987
0.4318
0.001695
0.7033
2.99
7.13
4.48
0.05218
1.078
1.602
0.04007
0.04188
0.3443
3.631
0.2088
0.1369
1.138
0.0009223
0.04743
0.6188
0.7208
0.3003
64.88
0.009126
0.4092
0.4112
0.0496
8.806
0.2542
0.072
8.62
0.4347
0.191
3.189
0.3233
35.68
5.917
0.6805
8.905
0.605
4.203
0.1274
0.2417
0.009201
0.1524
0.1529
1.476
0.3551
0.07281
0.1742
0.1375
0.1696
187.8
0.05254
0.01812
1.329
20.22
3.715
3.156
0.03043
1.467
0.006678
0.6595
1.016
0.00992
0.008521
0.3927
2.684
1.132
135.3
3.445
141.9
170.2
0.2246
0.8235
0.468
0.7006
0.008112
0.5041
1.374
3.096
0.4478
0.03381
0.1425
16.77
0.4375
0.4984
8.126
2.073
1.539
3.976
0.2025
0.01816
0.417
1.024
25.14
7.615
0.02593
0.1739
1.275
0.1257
0.4321
7.339
0.03604
0.05084
0.2813
0.6046
2.259
0.2139
2.858
1.438
0.01516
0.3349
5.807
3.174
3.469
0.8476
0.1896
0.2615
0.1627
5.431
17.14
0.3621
3.118
0.2325
0.4864
0.3514
14.73
8.852
0.9997
4.595
1.016
0.3341
0.7049
0.7092
3.652
1.257
4.1
2.369
0.9918
0.08026
5.557
0.1031
1689
1.377
20.09
0.01514
3.166
2.612
0.003386
0.8253
0.6056
5.148
6.506
4.601
0.1879
271.6
3.148
0.2248
0.2347
1.207
3.06
0.5339
8.799
0.0667
0.5036
0.8034
0.2151
1.433
2.592
5.966
0.6082
0.03981
0.2444
0.3363
13.93
0.5878
0.001742
0.2552
25.78
13.26
0.219
15.54
0.04112
0.5129
0.05173
0.2579
0.01891
0.006798
0.1743
0.9852
0.1185
0.1878
0.1166
990.7
43.52
33.45
0.4884
0.01384
131.8
3.887
0.5774
0.1209
1.033
0.3622
45
0.02119
0.6555
5.336
0.0007045
0.4884
0.5051
1.459
9.195
88.78
10.93
0.2593
0.7638
1.159
48.51
0.9509
0.1326
0.01535
0.5064
5.894
0.4121
0.01378
0.006079
16.48
0.787
3.819
7.111
4.652
2.181
0.8636
6.001
0.01675
3.113
0.004517
1.812
1.002
2.432
0.2035
0.001654
6.261
0.7531
0.1559
0.006831
0.5448
0.5224
0.02408
1.499
1.205
18.18
0.6964
0.5095
0.01711
32.44
17.49
0.005974
3.635
0.01163
1.192
0.191
0.5358
0.01969
13.45
0.6235
0.024
208.7
448.8
2.442
3.825
0.2941
0.0821
1.133
0.4155
0.5226
0.355
1.085
0.001154
54.72
0.3229
0.1676
4.106
0.05185
0.001149
6.63
0.02834
27.18
0.09297
0.8284
0.02533
0.03922
0.5979
0.1997
1.301
3.965
15.14
7.393
0.5324
0.1869
0.3851
9.676
0.1268
0.3812
1.059
1.807
92.47
0.8111
8.347
8.469
2.903
0.2354
0.006172
0.1479
0.5001
3.396
0.4684
3.435
0.9204
0.01637
4.599
39.09
2.042
2.474
1.287
0.05108
0.05132
1.655
45.88
2.487
0.1191
0.8703
7.796
2.073
0.156
0.01755
0.7171
0.05943
0.0009654
1.264
0.5773
1.315
0.004589
0.1204
2.689
0.01524
0.002661
46.75
0.486
1.29
0.0574
0.6494
0.02043
1.118
11.02
1.514
0.01698
14.44
19.04
877.8
5.91
3.773
3.821
3.121
0.006614
22.31
0.5992
0.7687
1.932
3.33
2.486
4.653
5.429
0.6737
0.01441
1.005
0.1868
3.737
2.19
0.02928
0.02516
0.2729
0.002739
1.375
3.962
1.049
0.1224
0.2441
0.3151
0.6742
7.485
0.001102
24.3
0.7951
1.261
0.2163
10.59
0.4402
5.329
0.1606
0.2727
0.3879
2.073
3.917
0.1613
0.2999
0.1501
0.4423
0.6418
0.5762
10.89
0.4307
80.36
0.02254
3.441
1.191
0.5109
3.418
0.04203
0.3409
5.926
0.002892
1.278
44.1
19.3
7.296
0.1718
1.898
0.4158
1.5
0.8685
1.047
0.6302
6.05
0.2842
1.657
2.573
0.5134
1.711
0.659
22.8
20.11
0.007631
77.65
0.2679
51.85
0.01158
6.988
9.072
1.346
5.083
0.1882
0.2752
0.0592
0.1463
6.707
0.1521
0.01936
0.112
0.6016
3.059
1.537
0.3457
7.819
0.9222
0.01402
3.247
0.4042
0.1381
0.5394
1.407
0.5987
54.39
0.1342
0.1582
0.476
0.302
2.334
0.1295
0.0009981
8.389
0.01949
287.4
0.2645
0.8815
0.0009874
1.063
1.048
0.04435
0.0006721
0.0006728
0.0006811
85.11
87.71
3.797
0.3457
0.7796
0.1373
3.885
0.441
0.3124
0.9564
27.51
0.2876
0.04098
1.384
0.02086
1.007
9.851
0.02408
0.02479
0.4007
0.2439
0.001664
0.1617
1.321
0.2522
47.13
5.012
0.3606
0.1219
0.2161
6.742
5.587
0.03939
23.43
0.0136
0.4342
0.5929
0.3668
0.126
0.03025
0.05435
1.406
0.4008
18.99
0.6323
3.579
8.23
1.253
0.00106
23.3
0.005187
8.292
0.7858
3.892
23.36
0.01797
0.4655
5.296
0.5157
0.1442
0.003837
53.58
0.3133
3.643
26.4
2.926
0.2785
1.504
0.4544
1.706
0.6083
5.11
23.76
26.15
32.41
18.4
1.353
0.3539
0.2754
0.01992
1.124
4.06
0.02071
10.01
25.59
0.001231
0.001281
0.2874
0.2106
1.792
0.2792
1.591
0.6849
6.632
0.5502
0.01019
13.14
0.2567
0.0118
1.606
11.11
14.51
38.88
0.4331
265.9
0.07273
0.1381
0.5038
0.2859
0.0203
0.2519
3.25
0.01858
0.1132
4.659
0.389
0.3189
0.01608
79.12
0.02016
0.1117
1.226
0.9499
0.01087
0.04764
17.87
0.0366
0.151
0.01032
3.433
0.06186
0.0194
0.04224
0.2248
58.16
26.15
0.2989
18.61
0.1879
0.03576
0.4207
52.37
7.683
0.01299
0.6924
0.1642
30.72
0.2228
1.193
1.308
0.01185
66.39
0.6853
8.329
0.02697
0.4859
3.584
5.834
3.671
0.3531
110.2
1.745
1.42
1.507
4.832
0.02089
4.905
0.7748
54.95
6.313
0.01041
0.01796
4.554
0.01126
3.347
8.595
0.383
0.6894
16.38
0.1217
11.31
0.0342
0.7447
0.3273
0.4504
0.4227
1.344
1.13
0.4736
2.873
4.015
11.58
0.8144
0.8987
2.905
0.09875
0.2772
25.46
0.2062
0.01849
7.304
0.01829
0.785
0.0355
0.5551
0.3104
180.9
1.18
0.184
0.1223
1.853
2.21
3.411
2.008
0.01816
0.2349
4.153
0.01809
0.01684
6.327
8.323
0.06769
0.8084
2.057
0.2981
0.2116
136.9
3.123
0.0007218
11.09
0.03631
19.07
0.8116
0.6922
1.041
0.06399
0.06709
5.742
0.3893
2.865
2.202
0.1258
5.266
1.047
0.832
0.08882
0.2037
0.00455
4.223
0.1377
0.01035
8.926
0.9321
1.112
0.2007
21.15
0.001292
0.03449
0.1536
52.84
0.7588
1.313
0.09876
2.596
0.006648
0.8334
3.084
62.79
0.327
1.33
4.745
0.3998
0.6184
3.343
0.8149
3.388
0.2906
0.005325
0.7661
0.9956
5.69
0.008984
0.3892
0.016
8.24
0.0386
0.8265
0.3332
0.05551
2.053
0.9982
0.003007
4.371
0.8075
0.3896
0.2552
0.1889
1.303
6.409
26.36
0.4733
6.305
0.861
14.74
1.783
0.009717
8.537
1.779
0.3332
7.924
1.271
18.04
0.09665
0.003345
1.347
2.22
14.54
0.2022
0.4639
0.2127
0.00222
1.567
0.3031
1.28
0.002101
1.392
0.8275
12.7
0.06012
20.96
1.009
275.3
4.209
1.021
0.02175
8.66
2.666
8.02
1.303
7.652
0.1859
0.9811
6.668
0.2356
6.949
5.279
0.01725
2.586
0.001647
0.2173
0.1556
6.551
0.5165
21.25
1.463
0.2879
0.1347
6.535
0.1457
0.005725
0.2391
0.7534
4.067
0.9587
0.1679
0.8924
1.707
2.308
0.2469
0.1534
4.206
1.87
0.6925
0.03314
1.425
0.9763
5.59
0.5301
0.7391
0.005284
0.03868
2.165
0.01519
8.76
0.303
0.1964
1.891
1.004
0.01768
0.0131
39.8
0.002085
1.237
2.262
0.229
0.02282
5.789
0.1653
88.45
0.01824
0.122
0.0562
0.09578
0.6207
0.1128
0.3391
26.84
0.154
17.16
0.6467
0.01661
1.295
1.238
0.0222
0.2536
16.52
1.824
0.006658
0.217
0.599
0.886
1.271
0.02783
0.1314
0.2226
0.5674
1.289
0.4962
0.006934
14.49
2.257
1.128
2.961
6.242
1.142
0.0008242
48.51
0.2067
0.4261
33.53
0.03677
0.5784
0.4143
0.04515
1.313
0.1244
9.304
0.4468
0.2041
1.051
3.985
0.5216
0.1412
0.02023
0.632
0.8945
19.46
0.7168
16.18
3.509
0.01988
0.8504
1.799
11.74
0.02797
0.09513
4.126
0.08739
0.8092
0.01928
0.003889
2.716
1.968
1.213
5.75
0.3623
0.01006
0.8761
0.5371
0.06331
1.317
0.2016
6.075
2.423
0.4125
0.0009908
0.169
5.622
13.36
2.414
0.3912
0.1076
1.38
0.0247
0.03616
1.485
2.761
0.8874
0.1222
7.187
447.4
0.01239
0.01802
0.3887
0.0263
0.02675
0.02095
1.727
1.031
1.367
24.31
0.01658
0.002437
1.26
6.98
2.591
18.74
2.111
0.01612
4.817
0.3176
6.655
3.314
0.2232
5.467
0.3336
0.9726
2.827
0.4029
3.691
2.414
0.2629
0.1643
1.173
28.48
0.3031
1.12
325.1
3.057
17.34
1.377
14.65
0.7423
0.8569
0.1477
0.7092
4.256
1.015
15.98
2.178
1.398
0.2919
3.941
3.213
1.135
0.00641
0.1867
0.02551
58.88
0.00798
2.208
0.8781
6.39
2.36
1.151
0.02573
17.09
4.005
155.2
0.3353
0.02303
0.9405
66.77
0.2078
0.01821
0.1318
71.83
0.5245
0.7377
19
0.1306
23.5
0.248
0.043
22.26
0.04015
0.08515
0.2795
14.69
0.1326
0.4444
0.1111
2.938
0.01412
0.001094
0.8294
7.811
27.12
3.785
4.734
6.026
19
6.447
2.645
0.2091
32.28
0.3812
12.88
0.9845
0.3499
18.34
0.2272
3.072
9.872
6.885
0.8261
0.0135
0.8278
0.3102
168.9
0.01946
1.323
0.1217
3.208
0.4529
1.906
12.73
0.3685
37.92
56.23
22.26
0.01823
0.5819
1.452
0.04849
147.4
0.09941
0.6034
2.311
3.203
0.9157
0.02989
11.34
0.2101
1.506
4.083
3.445
0.3471
0.4331
3.56
0.4829
6.436
0.02198
0.09591
0.1357
2.756
0.196
0.02128
0.1403
14.67
4.123
1.372
3.518
0.3787
0.4072
13.51
1.425
5.347
1.942
1.153
0.004834
0.1211
2.374
0.0481
2.634
4.317
0.8847
18.1
5.969
0.1213
1.207
37.71
25.3
0.7827
14.08
0.05282
0.001248
1.948
1.58
0.008408
1.199
27.69
8.286
0.2872
14.09
7.316
0.4263
1.752
0.8192
24.72
0.002864
1.287
0.0304
3.14
3.031
0.27
12.57
7.179
7.414
0.3639
0.9021
9.778
2.045
0.02687
1.573
30.23
0.44
36.06
1.081
0.1801
2.421
171.2
0.5855
0.01265
0.9575
0.2368
0.4335
0.02442
23.45
0.001533
5.345
2.614
0.3868
44.49
0.5646
0.3138
0.3091
0.2562
1.219
3.497
9.199
0.3072
0.07477
0.08178
1.793
0.7305
0.4946
4.038
0.2048
6.078
0.2346
0.4724
0.5818
3.197
6.57
5.38
1.805
0.2391
0.007675
0.735
3.289
2.453
0.02068
0.04839
0.4766
0.1403
2.706
0.001558
0.9533
1.233
0.2727
0.4228
0.01795
0.0008957
0.5744
1.459
0.3064
0.04094
1.571
0.1381
0.04868
25.35
14.23
0.2381
19.87
0.0006248
0.01808
1.768
8.644
0.01788
0.01611
7.548
0.02634
200
0.01074
1.871
2.589
36.66
7.515
0.139
1.627
0.7274
1.328
1.482
0.08792
0.2043
0.8119
0.7255
0.2048
0.01338
0.5315
12.13
27.31
0.5883
1.177
0.4766
0.2812
3.328
0.1267
3.069
0.01093
0.7937
3.632
82.79
0.09442
0.02774
0.09219
0.002815
0.3306
0.012
0.5178
0.2312
0.03737
0.5659
5.571
10.19
5.175
0.6349
5.42
0.9475
0.02268
0.4097
0.0007279
2.514
62.23
0.6339
2.03
3.081
3.539
2.8
0.7377
0.8176
0.03763
0.1354
1.209
1.243
0.6084
0.329
5.895
4.649
3.256
6.311
0.02799
0.9473
1.561
0.8273
0.313
0.00131
0.001333
0.1175
1.174
0.6726
0.1382
0.02932
0.01873
0.01591
2.363
0.4082
9.346
0.3329
24.65
0.02691
0.1099
0.388
0.01191
7.225
0.1339
1.258
0.05957
1.59
20.12
0.0006703
0.03179
0.01277
0.01985
21.31
3.717
0.7763
0.2628
1.182
0.5886
2.853
0.1646
1.34
2.684
30.66
0.141
21.07
5.926
0.2447
0.3715
0.715
1.122
0.3212
2.481
0.007713
0.4018
0.2467
0.234
20.85
30.62
0.2239
19.91
0.3465
0.4463
4.323
0.8327
0.302
20.39
0.7173
0.1234
0.0174
0.008278
5.552
0.4061
0.2367
0.5799
38.05
28.01
0.1738
0.08679
0.835
0.4115
0.2539
0.7611
1.061
0.01445
0.3166
0.6878
0.04331
2.966
20.37
0.003949
1.58
0.004515
17.21
8.211
0.01681
19.23
0.6665
4.609
0.4872
0.4197
1.329
0.2214
0.3284
0.6617
1.754
0.1247
0.1069
0.93
1.894
1.934
0.1175
0.355
1.118
1.792
0.525
44.12
1.677
0.1427
0.7381
0.1655
0.1736
1.02
4.783
1.599
67.92
0.001055
1.353
0.001241
0.04097
0.1099
0.01242
1.831
0.2996
24.93
0.09604
3.143
0.4437
1.716
3.3
11.84
0.03394
0.3544
1.033
1.944
12.72
1.898
0.317
3.07
0.172
0.8326
160.7
3.432
0.1235
0.6438
4.196
1.207
0.4378
0.0179
1.701
23.19
0.3678
0.006613
0.05212
3.532
1.893
1.368
1.296
2.737
0.6457
6.555
0.2244
0.2284
0.4682
0.9954
0.5946
0.03529
6.473
0.7911
0.9163
0.3647
0.1314
3.206
0.002865
13.46
0.6234
59.34
29.19
0.04827
0.6066
3.708
0.3614
1.95
1.046
5.602
0.482
0.05965
0.2761
4.392
2.269
14.79
0.3463
7.686
0.2904
15.6
0.00849
1.061
0.0233
0.02586
22.71
0.03101
9.516
3.318
0.1203
4.156
1.666
0.2938
14.61
0.7249
0.03123
0.6123
0.7866
0.5976
3.222
0.352
0.1719
0.2067
0.4178
0.2484
1.342
0.4961
0.02891
0.02592
0.02566
0.0364
0.1915
40.19
1.473
0.6359
0.002502
1.845
4.472
3.375
0.04215
0.07367
7.202
1.61
6.581
2.364
0.5375
0.05746
11.48
370.2
0.003346
0.1014
2.546
0.5036
0.3695
0.002719
0.00595
0.02238
0.08522
1.14
0.05044
0.4797
0.09939
1.949
0.5233
2.234
0.6129
3.417
5.951
24.77
0.233
0.1935
7.852
2.974
0.6853
34.91
388.5
3.73
0.01576
22.28
3.533
0.003845
0.6232
1.068
1.474
6.706
0.4341
0.7615
0.02367
2.598
1.386
5.753
0.001829
1.026
9.132
0.005099
0.03696
0.7202
1.244
0.3981
3.534
5.275
2.999
0.006011
0.01357
0.3035
0.7487
2.707
0.2406
0.4362
0.13
0.04327
0.01011
5.265
35.29
0.2865
0.001007
0.02572
0.1907
1.066
0.04992
0.003378
5.738
0.5969
0.03583
1.409
0.08556
27.41
0.733
6.786
9.503
0.8133
0.2488
0.1121
4.381
41.99
0.003135
2.081
0.2087
1.228
3.66
9.189
0.03758
2.859
1.142
7.878
0.4053
5.598
7.754
0.7567
1.323
0.01618
0.552
0.01338
0.3686
0.6544
9.783
1.188
0.6159
0.01721
0.1718
0.708
3.811
1.977
1.377
2.638
0.01174
0.02084
0.01828
3.821
0.1673
1.835
14.11
0.2712
0.9963
1.03
0.02087
0.0158
0.2867
0.05552
1.45
0.013
0.08944
0.004127
1.637
19.41
66.87
0.01184
0.8547
4.08
0.5446
0.8383
0.0386
0.01825
0.01602
4.098
0.1901
0.01337
11.39
0.03431
6.337
1.762
1.333
1.968
0.001506
0.5377
0.001698
0.2759
0.546
2.534
0.01103
0.2664
35.86
0.02045
2.793
0.2788
0.04605
0.6695
0.3473
0.001138
7.417
19.41
10.37
15.1
7.73
0.003432
1.064
0.2739
0.3601
7.604
1.499
0.8253
0.01558
0.6255
8.302
0.02348
0.2217
0.6989
5.771
1.836
5.599
0.1834
1.503
16.74
17.45
0.448
2.708
3.038
0.0092
0.7857
0.09818
1.1
98.72
3.576
0.00301
0.01479
43.84
4.478
53.4
2.573
1.446
3.242
0.01766
190.5
1.514
1.138
0.7433
0.2887
0.04154
1.896
3.116
22.33
172.1
0.04123
2.325
0.5554
0.00104
1.283
10.24
1.512
0.1109
1.343
0.6255
4.304
0.1208
107.2
0.001436
0.04579
2.51
373.7
0.001679
0.3924
0.01556
4.664
4.08
1.156
0.6203
2.087
2.801
0.06205
38.78
0.2501
1.187
5.533
0.1448
0.01057
0.4858
16.44
15.78
0.2727
35.71
28.43
0.01388
17.88
0.02773
0.3291
0.01215
18.52
3.148
14.57
165
0.2674
0.4577
2.731
1.662
0.02692
67.06
18.58
1.96
0.0006896
6.32
28.61
0.01816
1.79
0.08943
1.487
0.0274
0.6395
0.01216
0.5858
0.02562
0.005698
1202
8.719
0.4123
16.74
0.9922
0.4065
0.01788
3.298
30.77
0.4863
5.539
0.558
1.261
0.1411
0.021
1.126
0.821
13.17
0.6488
4.411
0.1142
2.249
0.001017
8.994
0.02266
0.3793
6.675
5.434
0.9476
4.347
0.3473
1.233
1.174
0.009978
0.02828
3.988
3.931
16.97
3.616
0.1454
0.3913
7.517
16.38
1.253
0.02472
0.47
10.62
0.2735
2.287
1.039
1.13
1.019
0.4158
1.28
16.82
1.797
4.265
0.3977
50.95
6.373
0.9293
61.29
9.323
0.8362
17.93
8.149
3.381
0.01077
0.02289
10.55
0.02191
1.504
3.631
5.869
0.4838
1.389
11.22
14.63
0.5913
0.0008402
0.9328
1.63
5.245
0.5604
0.0187
0.01837
7.387
6.506
0.1851
0.3448
0.02246
0.1297
0.7407
32.61
0.03297
19.12
2.225
1.84
0.211
0.8404
10.26
2.305
0.0155
0.1933
0.02005
2.138
0.02625
28.01
0.195
11.17
1.608
1.099
1.126
0.2902
6.023
0.0185
22.94
24.51
25.2
14.3
3.217
0.9705
0.6998
22.71
0.7203
1.986
0.2533
0.7893
14.32
0.192
0.1935
16.9
0.05172
16.04
0.05766
0.06712
0.03387
0.02884
0.01031
2.622
3.168
0.7379
0.7094
0.002144
3.529
0.185
2.481
15.55
0.02483
0.1972
1.136
8.486
0.4429
0.5399
0.1289
24.89
0.2924
1.742
0.01491
1.515
0.03545
1.335
0.5417
0.6657
0.009748
0.4503
6.626
2.231
18.21
15.26
0.41
0.006733
0.003231
0.7938
1.176
1.421
14.48
0.3721
7.305
0.3214
0.8606
2.709
0.03951
11.72
5.111
15.17
0.00844
106
1.017
1.857
3.142
1.028
0.5922
0.1903
0.577
6.671
0.5976
11.35
0.1277
0.2672
4.454
6.278
0.4859
14.45
20.84
1.326
0.64
0.888
0.03578
3.806
0.1576
4.825
1.782
3.834
2.75
86.79
0.2005
2.102
5.466
9.573
2.612
0.0204
0.01933
18.99
2.621
0.1328
0.5187
0.6777
0.008093
4.661
1.098
1.424
0.5323
0.4467
0.488
0.2266
4.201
2.232
3.356
20.66
0.02692
2.633
0.07013
0.02021
0.581
39.97
13.96
0.4203
23.16
1.127
0.1209
0.04677
1.4
0.5223
0.04141
0.1931
0.3964
0.05903
45.98
1.088
0.2478
0.02659
0.3678
0.4659
7.764
4.877
17.48
0.1828
0.02022
1.27
0.109
0.0629
0.1486
0.01388
24.86
0.1536
1.981
22.33
0.02145
0.103
2.328
0.6029
0.3114
3.253
14.56
2.307
0.4314
20.34
23.2
0.2178
4.003
7.064
2.512
0.5298
0.01201
25.2
2.843
24.02
14.51
0.01034
0.4439
0.04637
0.002043
0.2315
0.04438
0.6634
0.6177
0.5133
0.4888
258.6
0.5219
1.112
0.5178
0.4664
0.07187
0.1122
6.773
0.001035
1.739
0.202
16.3
0.02553
12.98
0.0103
0.7735
1.449
0.2521
0.5899
0.002031
58.77
1.801
0.004653
0.1735
0.2896
0.4033
3.67
4.562
0.04187
0.3619
1.172
0.01595
1.445
1.698
0.3197
0.02646
0.6512
0.4472
1.13
0.02141
6.557
0.2908
0.6423
0.1369
0.02087
0.009723
0.5026
0.1987
2.817
0.6865
0.5621
0.7404
6.791
1.186
22.19
0.3417
43.54
1.015
0.01235
1.204
0.2025
0.0106
0.06196
75.48
0.003605
0.03096
1.616
0.7804
0.2251
6.635
0.1417
43.18
22.55
0.01884
21.08
1.47
0.08659
0.607
1.838
1.019
3.318
0.1952
3.363
0.5814
0.4918
2.948
0.2941
1.366
1.3
0.02255
1.443
1.002
0.007255
8.192
0.01775
18.35
10.33
0.01637
0.1027
3.359
2.808
0.3828
0.09074
1.504
0.9575
0.7131
3.455
0.02642
2.459
11.7
0.003954
0.6298
0.1406
0.01974
0.3054
0.4068
2.007
19.41
0.04956
3.52
0.3255
1.047
2.704
4.651
0.02487
2.357
0.8036
0.2799
0.1658
1.357
0.6207
0.2076
0.2919
17.85
32.58
0.006098
18.7
10.27
0.5994
29.44
2.616
0.2101
0.139
0.1502
1.141
15.73
0.1594
0.3445
5.871
1.904
6.208
1.946
0.9714
2.483
4.972
0.8214
0.806
0.004057
0.006027
1.312
0.2279
0.126
0.1551
7.548
0.02675
0.9416
37.73
1.773
0.2237
2.713
0.1402
0.0278
0.4252
0.002477
18.66
3.724
0.2534
0.1952
0.01885
0.01862
0.3596
0.2622
0.8999
0.01936
0.1221
0.7606
0.01654
21.12
4.861
0.2334
1.605
0.001807
6.106
0.09788
0.002883
0.1073
0.0008244
3.807
0.1885
0.712
235.4
0.07034
1.561
5.821
93.2
2.762
2.587
28.88
0.6486
15.13
0.7244
0.01303
1.54
0.3749
0.0196
0.01257
0.4874
0.2768
0.2749
0.7984
0.03076
0.1414
0.001928
25.24
0.02889
4.167
0.0192
13.16
20.31
0.5072
1.646
3.389
0.3251
0.03346
0.2212
11.19
0.6911
5.863
39.25
9.042
0.01813
0.01979
10.54
1.101
3.556
9.018
56.6
0.6141
4.632
0.03099
0.8449
420
0.003367
0.4203
12.64
0.1985
67.55
10.26
7.178
0.2753
0.1993
0.09438
9.345
0.6548
0.2402
1.05
20.5
0.1082
15.52
1.302
0.3616
0.218
0.261
0.02665
0.02955
0.1933
2.033
0.9929
3.141
0.516
0.02544
2.313
21.37
0.2253
0.2799
0.1064
0.4204
0.01953
0.01074
1.066
2.277
0.7797
21.18
0.002919
0.00189
0.2053
43.21
17.93
0.646
26.9
0.04693
35.51
17.33
1.321
0.01733
63.64
30.63
0.2396
0.001922
0.01813
0.1996
0.2434
10.18
8.153
0.02208
0.0156
32.13
0.05712
0.05303
0.01869
0.1642
0.1287
0.02505
2.341
1.035
1.046
78.82
0.8745
0.02212
1.852
3.472
4.199
0.3589
0.1613
8.737
392
2.295
0.766
0.7818
0.003004
0.2505
13.26
1.298
12.36
0.7314
0.03704
6.897
26.86
18.22
0.3255
0.4541
0.6079
0.02056
0.01446
9.124
11.77
0.01769
1.221
6.812
0.2282
0.359
0.5417
0.5652
0.2122
3.248
1.398
1.913
0.2177
5.21
0.006454
0.1391
1.679
0.0197
28.04
22.91
0.03125
3.006
0.3132
0.6116
0.3478
0.004859
48.98
0.01608
8.136
1.712
0.1252
20.92
17.37
12.66
5.398
0.4083
0.3314
0.6216
0.3376
1.646
12.61
1.098
0.9684
4.344
0.03174
2.848
0.02235
0.008685
1.003
8.094
0.3044
10.97
0.08007
1.403
0.0378
4.275
0.917
0.505
0.2006
0.1104
0.8901
40.13
0.4209
4.44
0.1283
0.2284
2.891
3.607
0.2768
0.103
0.4097
3.962
0.01311
0.155
4.385
0.000929
1.206
30.75
0.7133
0.004492
0.181
0.01987
1.164
0.1455
20.64
1.804
5.475
11
0.2217
0.006712
0.3352
0.06282
1.155
0.3009
1.637
3.394
0.9524
19.24
25.65
13.06
0.5325
0.01902
1.512
12.78
0.5474
0.755
0.3476
1.342
0.03369
0.09505
0.9269
147.7
0.02476
0.3291
15.52
4.843
8.478
0.01987
0.7068
0.1358
126.9
0.9671
0.1059
0.01955
0.4114
0.06361
0.04996
2.731
1.053
31.96
0.417
0.5933
0.004033
2.117
11.25
9.313
0.829
0.7846
0.8331
0.06115
1.097
0.001988
0.2448
0.2103
0.02573
0.337
0.01995
0.01178
5.687
3.249
0.4218
0.3385
3.678
14.36
0.4365
27.67
0.5517
176.5
16.73
1.716
16.01
0.2177
11.55
18.44
0.01897
17.18
108
0.7637
1.938
1.088
4.469
5.853
2.088
0.5466
10.89
2.889
0.1581
0.04748
1.321
0.004707
0.1061
0.007858
0.01644
2.834
2.143
0.6381
0.3148
0.4951
0.01454
42
41.64
18.58
10.22
14.22
0.1351
0.3834
2.582
0.2793
0.4978
0.001269
2.538
2.971
1.333
2.621
22.2
0.8747
0.8964
0.8854
16.81
6.739
6.638
0.03351
3.191
28.8
0.01806
23.99
2.222
1.118
0.8975
11.46
3.711
1.163
0.9882
0.09575
8.073
1.078
0.6229
0.08749
0.009161
0.01534
2.41
3.893
0.6667
1.562
6.185
3.263
0.3154
0.7689
6.395
2.144
0.03319
0.001753
0.001886
20.89
1.512
0.5819
0.496
0.3819
0.001295
4.916
0.6415
0.4703
3.1
0.04145
0.02169
44.68
1.182
3.847
0.04011
291.7
5.803
3.615
0.4946
0.2821
1.881
0.5256
0.985
1.982
0.1611
0.3543
8.522
7.234
0.1664
0.4262
0.2042
0.09796
2.888
0.2618
0.9091
0.4133
0.1913
1.887
0.2559
5.66
8.225
0.3934
3.162
2.343
5.952
9.196
9.071
0.02214
0.1198
0.541
2.824
36.44
33.49
0.7132
18.17
0.003303
2.717
2.85
0.428
0.8004
3.622
0.2832
0.5005
0.003328
0.003333
0.5957
394.8
53.64
0.00912
0.0372
27.09
2.639
0.3955
0.3683
27.01
0.05981
2.838
0.9556
5.584
0.6895
90.76
0.1582
8.304
10.53
0.01066
2.853
22.97
2.718
20.09
0.6347
0.03665
2.694
0.001763
0.01676
0.0357
0.319
1.268
2.095
0.1955
1.937
0.01579
81.4
0.02173
21.45
0.157
24.16
6.428
0.01056
4.419
27.28
0.09763
0.03548
3.854
0.005135
0.04032
0.9108
1.56
0.5708
0.711
0.6341
0.7769
0.08534
11.66
0.01881
0.09787
85.44
15.29
1.733
0.1524
1.873
14.57
95.85
32.12
4.51
1.387
0.5396
0.9118
0.1285
0.2599
1.945
76.97
19.24
29.57
0.2663
515.7
0.1881
0.07396
0.8582
0.8085
1.897
6.169
0.0006426
1.25
4.09
1.131
0.02173
6.26
0.6077
0.787
1.601
0.00191
5.066
0.05883
2.507
0.2041
0.03327
1.988
0.004666
3.061
21.27
52.35
0.2394
0.03072
1.099
3.003
0.5868
0.8731
4.2
0.5247
1.252
0.9928
3.249
0.326
0.05398
0.4734
0.1208
0.3237
0.1941
0.1336
18.35
0.3479
0.2905
2.316
11.49
5.368
0.07172
1.056
19.84
33.42
0.02674
1.345
5.828
11.37
3.376
0.2818
425.2
25.25
57.74
0.01725
2.205
0.3629
0.3594
0.763
1.042
0.1723
1.145
0.2415
0.3023
0.04843
0.01334
9.914
0.01622
104.5
0.00698
0.4853
0.5862
2.675
0.1259
24.57
0.4479
1.945
25.05
0.4262
2.196
1.223
8.385
0.03312
2.391
1.322
2.242
0.9822
0.7785
3.853
3.386
2.673
0.3694
0.001049
0.2058
0.6929
8.176
0.006573
7.261
0.1331
0.2712
0.09378
0.08532
1.138
0.003176
12.08
1.175
4.193
4.572
2.805
0.002973
0.0009474
0.3178
0.3194
0.3007
1.159
0.4328
0.7245
0.005128
0.04116
0.1651
0.01573
0.2831
0.2492
6.579
13.1
3.006
72.46
12.52
0.6592
0.2479
9.199
0.2649
0.8816
3.147
0.9382
0.9353
0.2049
55.22
2.856
3.553
45.7
0.04566
1.803
0.2889
5.09
0.01625
1.179
0.8462
0.01865
0.2978
0.04003
86.55
1.565
0.5239
2.714
0.5474
1.021
0.1474
0.001377
4.574
0.008026
17.51
41.73
34.32
0.4509
59.67
0.1024
0.2206
0.2147
2.007
0.0274
0.3514
0.4748
15.15
14.8
0.2461
0.135
2.132
0.6278
133.1
17.4
20.45
8.012
0.0007687
1.141
1.259
0.2838
42.3
0.2287
1.944
0.1508
39.99
0.2343
0.2588
3.345
19.61
0.001316
0.2494
0.0228
0.04304
0.3162
0.8937
0.078
0.1002
0.01809
6.525
4.675
18.67
148
0.1413
0.0008525
0.2281
13.24
0.01733
4.627
0.02057
2.164
0.4077
0.5791
0.1702
2.87
0.8814
0.572
28.33
2.665
11.31
0.1894
0.002769
0.2423
1.797
3.254
0.2857
0.2856
0.403
0.02092
4.562
16.18
0.009036
0.03515
0.3009
0.1208
33.27
4.266
129.4
4.755
0.1566
8.665
0.01475
22.46
19.57
60.41
0.1325
0.1828
1.992
0.02385
0.007669
70.83
0.8472
1.495
3.114
1.228
0.147
4.651
1.75
0.2532
0.001299
0.0032
0.5754
0.02553
2.301
41.03
0.2822
0.8632
0.07079
7.038
0.5141
0.2911
0.1945
0.6382
6.876
0.373
0.02612
3.92
0.1764
0.1681
0.435
9.091
0.9076
0.02827
5.434
0.09468
0.3779
0.7928
0.216
0.3324
0.1776
0.1427
0.4144
0.03001
7.945
0.01914
2.138
0.938
0.002856
0.002763
0.03895
7.054
0.000546
1.714
4.836
0.1516
0.5085
0.4346
0.1186
0.02367
0.1052
0.001768
3.088
1.159
0.4665
0.9191
678.1
27.87
26.56
0.04748
54.53
11.56
8.68
0.0382
1.206
1.201
0.1906
17.52
0.6135
0.2087
14.45
0.6916
14.38
2.499
0.02598
0.4726
1.892
0.7433
17.33
0.9304
1.179
0.1689
4.326
0.002071
2.144
0.9551
0.301
13
6.693
3.626
1.653
0.2908
0.1324
0.5754
16.52
0.4338
34.1
8.471
73.55
0.02969
0.6239
0.001091
0.001279
1.691
0.0007654
0.2816
0.2321
0.08308
0.2912
0.02718
2.301
0.2901
2.709
0.01659
0.2548
1.766
0.0006825
2.593
7.093
0.01606
0.1197
14.18
1.687
55.09
0.5433
0.237
0.5811
5.613
3.805
0.2148
25.64
123.1
2.245
0.5587
25.67
2.342
1.194
0.02277
0.7027
0.09064
0.6061
0.07627
0.5811
0.1196
1.06
0.2058
0.3674
3.93
3.726
5.392
0.9185
1.208
0.8198
0.01946
3.693
11.9
3.665
8.255
0.3984
2.254
0.9312
0.2319
12.41
1.081
0.7003
0.493
3.31
1.083
47.11
6.595
0.01292
0.8368
13.37
1.763
1.394
3.214
5.229
0.1178
28.44
6.068
38.37
2.12
0.3364
0.5715
0.5194
0.0009983
2.261
5.937
0.3632
0.03235
30.51
40.57
0.01459
3.794
1.348
0.6937
0.8433
50.73
0.04266
0.2143
1.726
12.32
0.3433
1.897
1.623
1.253
0.6012
0.5747
1.075
0.02365
1.818
0.1155
11.23
1.452
0.8457
0.618
0.5206
0.4653
7.738
0.1813
0.2324
1.39
0.001111
1.883
2.035
0.6123
0.01348
3.065
0.0006442
0.1538
32.88
0.9012
0.2244
0.0181
34.43
0.8196
1.088
26.59
0.4176
0.1035
5.15
4.044
16.12
0.1179
0.03581
32.2
5.761
0.02536
0.5489
71.57
15.09
0.0196
3.271
0.7119
1.909
0.4658
0.01742
5.461
1.864
6.883
2.575
0.4223
16.59
67.03
70.59
0.346
1.929
295.5
23.51
0.1588
4.2
0.008067
0.3486
5.961
39.34
3.696
1.117
0.4619
0.6146
0.01559
4.102
0.06809
0.1346
4.569
0.01759
41.56
15.33
0.06434
5.012
1.708
0.2213
0.5015
0.0008272
0.6507
0.8164
5.815
0.4843
0.04639
0.06702
1.081
0.001405
0.02521
0.0207
29.7
0.6629
22.87
1.136
78.97
0.4019
0.04089
0.1282
0.5395
16.06
0.04317
1.921
13.74
0.02801
0.4848
0.4076
0.4223
0.0007521
0.06227
0.07103
0.2211
0.0211
266.3
0.1838
0.04199
0.7249
6.661
0.15
2.769
3.823
2.374
0.1842
1.133
0.2231
0.1256
0.001748
0.336
9.162
1.921
0.2543
1.255
0.02011
13.01
3.231
0.1316
0.008964
0.8332
1.784
139.2
0.2325
8.6
1.541
0.3933
24.19
0.02043
0.003036
1.471
8.119
1.112
0.2297
0.119
0.822
4.956
0.001966
4.105
0.01566
19.48
0.2066
0.08238
1.92
3.353
4.394
0.3685
8.772
0.3501
9.818
2.21
1.214
1.63
2.668
3.238
11.25
0.3278
0.1653
0.03736
5.408
1.564
2.19
2.849
18.88
1.435
0.4805
0.01226
0.3166
4.06
47.22
0.7222
0.5862
0.4341
0.2128
0.2579
0.7786
8.557
1.179
0.001514
3.436
3.738
0.3838
0.05455
0.5858
0.6285
1.779
6.041
0.9345
5.383
13.24
0.01791
0.5051
0.3183
1.426
0.6547
0.4156
6.241
0.00282
0.444
1.053
1.446
0.2219
0.4271
1.254
0.006239
25.27
0.01832
0.7974
3.081
0.9819
0.2318
6.03
0.0275
0.7189
26.37
14.4
0.02533
4.636
0.843
376.9
3.792
3.424
0.609
0.001525
0.4491
16.1
0.01767
0.6119
0.00119
0.1122
0.007282
2.951
164.4
25.7
185.3
0.1424
5.131
0.2745
0.1613
1.166
1.213
0.01937
0.01918
4.465
0.9499
29.18
3.199
10.98
32.17
0.4183
4.975
0.4508
13.95
0.8056
0.001308
22.52
17.9
0.1086
8.678
34.41
0.582
0.3307
2.423
1.399
1.033
16.08
0.007692
18.1
0.1969
20.96
3.605
0.02085
0.4738
0.09402
1.352
11.61
1.974
5.565
0.004463
0.01203
0.3918
9.646
129.9
0.2949
0.02494
2.024
0.02409
16.49
0.03103
50.77
1.233
0.01451
2.409
0.228
0.476
0.2466
0.744
0.5053
23.06
1.65
0.2576
0.02181
0.2487
0.02317
0.9201
0.143
0.1586
0.5694
19.45
69.31
60.96
3.029
19.85
0.2205
1.414
5.448
1.412
2.49
0.1597
360.8
1.856
1.203
30.4
0.4377
20.7
0.01227
14.22
0.2498
0.1005
0.07143
0.2805
0.2896
20.33
0.1516
0.8641
0.03352
916.6
168
4.774
1.911
0.008163
0.3832
1.439
10.3
4.625
0.8204
0.7542
0.2232
0.6038
0.2304
5.554
0.00897
0.4021
1
41.59
0.7722
0.06456
20.22
0.5032
1.163
0.01459
0.008188
23.95
2.85
0.7833
9.292
2.63
0.07762
0.2278
4.304
15.21
0.2209
0.3941
0.4776
4.236
963.8
1.089
90.77
0.7666
17.31
1.103
0.3883
0.3731
5.104
0.3019
0.005167
0.3987
0.1325
0.1473
0.02792
0.01111
0.2347
0.1854
10.31
0.01284
283.4
6.928
1.503
0.02525
0.01766
0.2842
13.95
0.09362
0.01826
0.4691
3.105
28.3
0.1375
4.577
0.5779
0.1867
3.17
2.531
0.4859
19.07
0.015
6.101
13.1
0.001086
8.114
6.559
0.1712
2.184
2.04
1.227
39.28
0.9232
0.02014
0.046
0.7899
0.1814
0.001017
0.246
0.2782
0.04423
0.1529
0.01995
0.2998
0.01297
0.3527
22.6
10.86
0.1324
0.9405
0.5861
0.1061
0.3562
1.201
0.01017
0.01137
0.1483
5.118
3.985
0.789
0.3846
2.668
61.87
0.3703
0.0008283
4.476
1.215
1.737
1.499
0.4975
0.03113
0.7646
0.506
0.4682
0.1027
1.305
9.301
35.53
2.012
1.136
0.1623
2.495
112.2
0.1403
1.568
100.6
0.4052
6.116
1.026
0.2884
6.936
29.93
0.9814
1.681
37.36
0.01846
0.01345
45.57
0.5261
0.5327
0.2168
3.685
0.00282
0.003273
0.1144
2.259
0.004185
3.014
0.03186
0.4463
16.39
0.1718
0.04582
0.2432
2.25
2.081
0.2314
2.969
0.395
0.001383
0.04276
0.2426
0.544
0.9078
0.5359
0.2256
5.149
0.1687