/*--------------------------------*- C++ -*----------------------------------*\
| =========                 |                                                 |
| \\      /  F ield         | OpenFOAM: The Open Source CFD Toolbox           |
|  \\    /   O peration     | Version:  v2012                                 |
|   \\  /    A nd           | Website:  www.openfoam.com                      |
|    \\/     M anipulation  |                                                 |
\*---------------------------------------------------------------------------*/
FoamFile
{
    version     2.0;
    format      ascii;
    class       surfaceScalarField;
    location    "5";
    object      phi;
}
// * * * * * * * * * * * * * * * * * * * * * * * * * * * * * * * * * * * * * //

dimensions      [0 3 -1 0 0 0 0];
oriented        oriented;


internalField   nonuniform List<scalar> 
145361
(
9.02e-06
-9.02e-06
-3.064e-06
3.064e-06
3.378e-08
-3.378e-08
8.945e-10
-8.958e-10
-5.674e-06
5.674e-06
-1.074e-05
1.074e-05
-4.914e-06
4.914e-06
-4.904e-07
4.904e-07
9.166e-08
-9.166e-08
-7.966e-06
7.966e-06
6.702e-09
-6.7e-09
-3.99e-07
-7.699e-08
4.76e-07
9.559e-06
-9.559e-06
5.065e-08
-5.065e-08
-3.99e-07
-0.0007687
0.0007037
6.502e-05
4.697e-07
-4.697e-07
-0.001674
0.002291
-0.0006173
0.0004929
0.0001291
-0.000622
-0.001959
0.002424
-0.000465
-0.002531
-0.01193
0.01446
-0.001799
0.001572
0.0002267
-0.04716
0.04665
0.0005044
1.336e-05
-2.146e-05
8.1e-06
-0.009075
-0.006734
0.01581
-0.0003468
-0.0007097
0.001056
0.05848
-0.09352
0.03505
-0.000532
0.001273
-0.0007411
-2.468e-08
2.469e-08
-2.618e-05
-5.789e-05
8.407e-05
-0.0005229
0.0003535
0.0001693
5.18e-06
1.146e-05
-1.664e-05
0.0008518
-0.001219
0.0003677
-5.723e-05
-0.001116
0.001173
-0.0002905
-0.0001443
0.0004348
-0.01222
0.002733
0.009484
-0.0002656
0.0005173
-0.0002517
0.0001418
-0.0001798
3.8e-05
-0.0004415
-0.0009774
0.001419
-0.0001359
9.204e-06
0.0001267
0.000101
-6.965e-05
-3.131e-05
-0.0003011
0.0002759
2.52e-05
-0.005384
0.007487
-0.002103
0.3384
0.2184
-0.5568
-0.01473
-0.03242
-0.0001706
-0.0006103
0.0007809
-0.0006453
-0.000525
0.00117
-0.0006573
0.001313
-0.0006562
-0.0008562
0.001626
-0.0007694
4.633e-05
2.438e-05
-7.071e-05
0.0001402
-0.0001458
5.595e-06
-3.358e-05
3.829e-05
-4.704e-06
7.362e-05
2.734e-05
0.7977
-0.9257
0.128
-7.251e-06
-2.633e-05
2.916e-05
-4.929e-05
2.013e-05
0.001395
-0.001971
0.0005762
-0.001085
0.0006887
0.0003964
0.1662
0.6315
1.304e-05
-1.174e-05
-1.301e-06
0.01397
-0.01049
-0.003483
-0.0001421
0.0001168
2.526e-05
0.1435
-0.0648
-0.07872
-0.1728
-0.9657
1.139
0.2757
-0.8602
0.5845
-0.0003481
-0.0001748
0.002369
-0.003345
0.0009756
-0.0001321
-0.0002664
0.0003985
-6.41e-05
-7.798e-05
-1.055
0.08427
0.9703
-3.974e-05
7.881e-05
-3.907e-05
-0.000544
0.000683
-0.000139
0.0004895
-0.0007243
0.0002347
0.4762
-0.8443
0.3681
3.625e-06
9.415e-06
-0.01351
-0.004804
0.01832
0.03913
-0.07058
0.03146
-0.01492
0.00703
0.007887
-0.001923
0.001233
0.0006901
-0.7676
1.043
-0.03597
-0.004693
0.04067
1.623e-05
-2.14e-05
5.166e-06
0.0009388
-0.001923
0.0009844
0.0006887
-0.001537
0.0008483
-0.005322
0.01116
-0.005838
-0.001128
0.002638
-0.00151
-0.0003063
-0.000525
0.0008313
0.1779
-0.3648
0.1869
-0.0001284
-0.0001975
0.0003259
-0.0002673
0.001618
-0.001351
4.24e-05
0.0001753
-0.0002177
-0.000318
0.0008813
-0.0005633
0.002967
-0.003538
0.0005705
-0.0006665
-0.001132
-0.0001129
0.0001002
1.268e-05
-0.0003702
0.0002469
0.0001233
-0.9546
0.7818
0.002954
-0.002462
-0.0004914
-4.701e-05
7.617e-05
-0.0001728
4.886e-05
0.0001239
0.0001421
-0.0001334
-8.714e-06
0.5223
-0.1839
-0.0002021
0.0006718
-0.0004697
-6.819e-05
0.0002181
-0.0001499
-0.01323
0.001011
-0.0009997
-8.547e-05
-0.00151
-0.0004147
0.001925
1.508e-05
0.0001628
-0.0001779
0.0002255
-2.941e-06
-0.0002226
0.0003628
0.0005564
-0.0009192
8.348e-05
-0.001439
0.001355
-0.01447
0.012
0.002467
0.0001637
-0.001838
0.0001063
-5.997e-05
0.002886
-0.003433
0.000547
-0.003663
0.005712
-0.002049
-0.01005
-0.004424
0.0003272
-2.018e-05
-0.000307
-0.0007134
-0.00121
9.355e-05
2.327e-05
-0.0005917
0.0006175
-2.585e-05
0.001331
-0.002233
0.0009018
0.0001801
-7.067e-06
-0.000173
0.0006224
-0.0004859
-0.0001365
0.5006
-0.1245
-0.3761
0.1003
0.0432
0.0002733
-0.002232
-4.837e-05
3.965e-05
8.725e-06
-0.3628
0.839
0.001426
0.001528
-0.000108
0.0001876
-7.961e-05
0.0001838
-0.0001687
6.794e-05
-4.243e-05
-2.551e-05
0.4868
-0.8833
0.3965
0.004987
-0.001878
-0.003109
0.0002107
0.0002822
-0.04851
0.006188
0.04232
-1.11e-05
2.445e-05
0.01557
-0.009601
-0.005968
0.2283
-0.04276
-0.1855
0.0001706
-0.0001386
-3.21e-05
0.001197
-0.001254
0.0004481
-0.001304
0.000185
0.0005108
-0.0006958
-0.0003623
-9.907e-05
0.0004614
6.25e-06
1.141e-05
-1.766e-05
0.0005441
-0.002298
0.001754
-0.0001395
0.0002741
-0.0001346
0.04603
-0.02719
-0.01884
-0.0008862
0.05936
8.564e-06
2.123e-05
-2.979e-05
0.0001383
-0.0001094
-2.89e-05
0.004489
0.0004984
0.2851
-0.6188
0.3338
-0.1838
0.3616
1.232e-05
0.0001302
-0.0001425
0.003719
-0.002959
-0.0007599
3.25e-05
3.544e-05
0.001762
-0.001166
-0.0005961
-0.00193
0.00148
0.0004505
0.000214
-0.0004018
0.0001878
4.609e-05
-0.0005901
-4.703e-05
4.703e-05
-6.716e-05
-0.0002339
-9.734e-06
-4.787e-05
5.76e-05
0.001961
-0.002439
0.0004778
0.001508
-0.0008587
-0.0006491
0.001052
-0.0008364
-0.0002159
-8.511e-06
1.645e-05
-7.94e-06
-0.0157
0.01317
-0.0006732
-6.953e-05
0.0007427
0.001061
-0.0006127
-0.0004482
-0.0007644
0.0005948
0.0001697
-0.003733
0.003128
0.0006043
0.000206
0.0004164
0.0003692
0.001479
-0.001849
-0.438
0.2867
0.1514
0.001321
-0.003258
0.001937
0.04568
-0.05092
0.005235
1.702
-1.65
-0.05275
-0.0003533
0.0004832
-0.00013
2.782e-06
-0.001181
0.001178
-0.002888
0.00422
-0.001332
-0.007257
0.005903
0.001353
-0.0003175
0.0003528
-3.534e-05
-0.001249
0.002169
-0.0009206
-0.0004115
0.0004058
5.713e-06
-4.224e-07
4.224e-07
0.0002011
-4.971e-05
-0.0001514
-0.0003811
0.0007027
-0.0003217
0.0007672
0.0002937
0.0008747
0.001703
-0.002578
2.709e-05
0.0001151
0.000689
-0.0008339
0.0001449
-0.4897
-0.5649
9.982e-05
1.954e-06
-0.0001018
0.00473
-0.001844
5.791e-06
-2.1e-05
1.521e-05
-0.002128
0.002164
-3.628e-05
-5.056e-05
-8.533e-05
-0.0003502
-3.71e-05
0.0003873
9.154e-05
-0.0001565
6.491e-05
0.000492
0.0001394
-0.0006314
-0.0899
0.02834
0.06156
0.3585
-0.5751
0.2165
2.499e-05
1.512e-05
-4.011e-05
0.02653
-0.01083
-0.0157
0.2091
0.2373
-0.4464
-0.0006658
-0.0001029
0.001148
0.0003599
0.1434
-0.1592
0.01578
-0.0126
-0.002319
0.511
-0.7042
0.1932
-8.628e-05
0.0001628
-7.65e-05
0.5575
0.4355
-0.9929
0.0004034
0.0003596
-0.0007631
0.0008424
-0.0006602
-0.0001822
1.183
-0.6256
0.006502
0.009066
-0.0003817
-0.00242
0.002802
0.02822
0.01781
-0.1192
0.07487
0.04437
0.9833
-1.263
0.2799
4.5e-05
9.251e-05
-0.0001375
0.0001222
0.002405
-0.002528
-0.005763
0.005871
-0.000108
9.693e-05
7.371e-05
1.118
-0.6072
6.825e-05
7.008e-05
0.001084
-0.0002247
-0.000859
-0.02254
0.01226
0.01028
5.477e-05
-0.005439
0.09465
-0.3941
0.2995
0.0009137
0.0008484
0.0004586
-0.0003762
-8.238e-05
0.6967
1.006
9.798e-05
-0.0003885
0.001447
-0.001675
0.0002274
0.001078
-0.001076
-1.99e-06
0.001563
-0.002172
0.0006092
0.0004433
-0.001424
0.0009812
0.01134
0.00263
0.000947
-0.0002055
-0.0007415
-0.001848
0.002554
-0.0007054
0.003684
0.04076
-0.04444
-0.0002584
-0.0001118
0.0005059
0.001194
-0.0017
-0.1128
0.1816
-0.06878
-0.2762
0.4852
-0.0006063
0.0007782
-0.0001719
-0.1993
-0.2387
-1.618e-05
2.735e-05
-1.117e-05
0.001036
-0.000743
-0.0002928
1.295e-05
-2.913e-05
5.994e-05
-5.994e-05
0.001134
-0.001401
0.002051
0.0004416
-0.002492
-4.286e-05
-0.0007149
0.0007577
-0.0001055
0.0006361
-0.0005306
0.00434
-0.004917
0.0005777
-0.03798
0.2141
-0.1762
0.002663
0.002341
-0.005004
0.0001877
-0.0003272
-3.551e-05
-3.68e-05
7.231e-05
0.000746
-0.004409
-0.0002602
-0.0001077
0.0003679
1.022e-05
-2.442e-05
1.421e-05
0.02685
0.01621
-0.04305
0.0003866
-0.00118
0.0007936
-0.004148
0.004678
-0.0005308
0.0002844
-0.0002084
-7.597e-05
-0.2157
1.199
6.475e-06
4.656e-05
-5.303e-05
0.005707
-0.04168
2.544e-05
-1.965e-05
0.001266
-0.0002139
-0.002142
0.002604
-0.0004625
-3.665e-06
3.665e-06
9.456e-05
0.0001065
-0.005796
0.006916
-0.00112
-0.0001855
0.001037
-0.0001254
9.914e-05
2.628e-05
-0.002005
0.00159
0.0004155
-5.576e-05
-5.71e-05
0.0001595
-0.001612
0.001452
-0.01363
0.004555
-0.001117
0.001378
-0.0002604
-7.07e-05
5.273e-05
1.797e-05
7.021e-06
-0.0001519
0.0001449
-0.0003398
-0.002897
0.003236
-0.2498
0.3444
-6.616e-06
-2.013e-06
8.628e-06
-0.001159
-0.0007715
-0.0001602
0.0003077
-0.0001475
0.5776
-0.07699
0.1919
-0.1282
-0.06371
2.549e-05
-2.528e-05
-2.144e-07
-0.001943
0.003271
-0.001328
0.0002802
4.166e-06
2.709e-05
-1.394e-05
-1.315e-05
2.895e-05
-2.895e-05
2.895e-05
-8.253e-05
0.0001374
-5.483e-05
-9.323e-06
-2.311e-05
3.243e-05
0.01773
-0.01966
0.001925
-0.0001864
-0.0007756
0.0009619
0.0005955
-0.0009018
-2.725e-05
0.0002073
0.0007579
-0.0009285
-0.0004588
0.0007012
-0.0002424
-0.001872
0.01849
-0.01662
-0.0002209
-0.0009474
0.001168
0.0001352
-9.801e-05
-3.717e-05
0.002277
-0.002113
-0.0001641
-0.821
0.559
0.262
-3.73e-05
2.282e-05
1.447e-05
-0.002011
0.001876
0.000135
-1.736e-06
2.569e-06
-8.33e-07
-0.0001944
0.0007781
-0.0005837
-0.1996
0.3281
-0.1285
-0.0001029
2.035e-05
-7.251e-05
5.568e-05
1.682e-05
-0.0004046
-0.001723
0.0003152
0.0003496
-0.0006648
0.0003726
0.0004697
-0.001577
-0.002571
-4.885e-05
3.369e-05
1.516e-05
-0.2489
0.5339
-0.001584
0.001147
0.0004374
-3.6e-05
-1.435e-05
5.035e-05
0.003067
0.01167
-0.01474
4.613e-05
-3.965e-05
0.0007425
-0.0007874
4.485e-05
-4.149e-06
2.038e-05
0.0005365
0.0004993
-0.0009463
0.003315
9.327e-05
-0.0003588
-0.06659
0.05967
0.006911
-0.001705
0.0001336
0.001571
0.2485
-1.005
0.756
-0.06676
0.1256
-0.05889
0.0005479
-0.0004983
-4.959e-05
9.68e-05
-4.882e-05
-4.799e-05
-0.002227
0.007098
-0.004871
-0.0003523
0.0002903
6.199e-05
-5.175e-06
1.753e-06
3.422e-06
0.002514
-0.004395
0.001882
9.561e-05
-2.064e-06
0.0003939
-0.0004927
9.884e-05
0.001316
-0.0007319
-0.0005843
-1.532e-07
1.285e-07
-0.000314
9.295e-05
0.000221
-0.0002499
0.0004353
-0.0001854
-0.0007321
-3.23e-05
0.0003806
0.0002441
-0.0006248
0.2031
-0.241
0.0006432
-0.001508
0.000865
0.5059
-0.1809
-0.325
-5.29e-06
6.758e-06
-1.468e-06
2.003e-05
-0.0001318
0.0001118
0.000803
-0.0007051
-9.795e-05
-1.516
-0.0115
1.528
-6.599e-06
6.599e-06
4.251e-05
-8.09e-06
-3.442e-05
0.8045
-1.069
0.2642
0.0003128
-0.0002801
-3.267e-05
-0.5864
0.2151
0.3713
1.492e-05
-7.351e-05
5.859e-05
-2.808e-05
-2.029e-05
-0.002711
-0.001021
-0.000869
0.0001622
0.0007068
0.0003496
-5.146e-05
-0.0002981
0.06212
-0.05506
-0.007059
0.002064
-0.0011
-0.0009639
2.257e-05
-1.349e-05
-9.085e-06
0.00133
7.644e-05
-0.001406
-0.256
0.5115
-0.2554
7.721e-06
2.831e-05
-3.603e-05
8.373e-06
-6.004e-06
-2.368e-06
1.411
-0.6692
-0.7415
-0.0003671
0.0007504
-0.0003833
-1.168e-05
2.19e-05
0.000479
-0.0005573
7.834e-05
0.0004053
-0.0006494
0.0002441
-0.00112
0.004341
-0.003221
-1.156
1.218
-0.06137
-6.142e-05
-6.4e-05
-1.79e-05
-9.458e-05
0.0001125
0.0005117
-0.000452
-5.969e-05
-0.0004536
0.0001035
0.31
0.4429
-0.7529
-3.982e-05
-3.088e-05
-0.0006499
0.001013
0.02374
-0.1192
0.09546
0.09971
-0.03052
-0.06919
5.618e-05
0.000271
-3.247e-05
4.595e-05
-1.348e-05
0.0003654
-0.000324
-4.136e-05
-0.001009
0.000396
0.0006128
-0.001027
0.0003535
0.3148
1.096
1.048
-0.3698
-0.6784
6.846e-05
6.672e-05
0.0006425
-0.0009499
0.0003073
0.0002319
-0.0002874
5.543e-05
0.0001493
-9.096e-06
-0.3448
0.49
-0.1452
-0.005555
0.001146
0.004409
-0.000171
0.0001811
-1.012e-05
-0.5077
-0.07863
0.0004115
-0.0003669
-4.459e-05
0.0008214
-0.0003319
-0.6288
-0.1922
-5.998e-06
-0.0006791
0.0006851
0.004828
-0.003345
-0.001483
-0.007967
0.008668
-0.0007008
-0.000264
-0.0005894
0.0008534
7.662e-06
-0.0001138
0.0001061
-8.581e-06
4.85e-06
3.731e-06
0.0004668
-5.642e-05
-0.0004104
4.786e-05
-0.0001042
5.632e-05
0.0003597
0.0005872
-0.002451
0.001323
-0.000336
0.0006042
-0.0002682
-0.0009504
0.0005906
0.0003597
-0.0005968
0.0009667
-0.0003698
-0.4565
0.1118
-0.0006402
0.0005703
6.992e-05
0.001566
-0.001892
0.000326
-0.0003588
-0.0004057
0.0007644
-0.001891
0.00228
-0.0003893
0.9642
-1.125
0.1605
-0.0004196
6.631e-05
-0.0005884
-0.0004204
0.000911
-0.001111
0.0002
-2.977e-06
-2.198e-06
0.2727
0.8283
-1.101
0.1198
-0.2326
-3.157e-05
-4.094e-05
-1.495e-05
-1.395e-05
2.89e-05
-0.0001069
9.458e-05
1.236e-05
0.0006096
-0.0002556
-0.000354
1.306
-0.819
-0.001399
0.0009571
1.273
-0.4683
-0.00023
0.0001808
4.926e-05
0.0005315
-0.0008495
0.1072
-0.3632
-0.1913
0.5499
-0.003566
-0.00206
0.005626
0.0007628
-0.0007957
3.292e-05
0.002187
-0.001306
-0.0008815
3.878e-06
4.495e-06
-0.0001047
-6.808e-05
0.0001116
-2.05e-05
-9.108e-05
4.709e-05
1.285e-05
0.0001696
-0.0002378
8.481e-05
-7.332e-05
-1.148e-05
0.002133
-0.003553
0.001421
-0.002102
0.001948
0.000154
0.407
0.02199
-0.429
-0.0001214
9.527e-05
-0.001067
0.001281
-0.0002136
0.0003863
0.0002234
-0.0009986
-0.00137
0.002369
0.006879
-0.07364
-0.004284
-0.01002
0.0143
-4.051e-05
3.009e-06
3.75e-05
0.002226
0.002602
-0.00302
0.001916
0.001104
4.918e-05
-6.674e-06
0.001015
-0.001027
1.148e-05
-0.001297
0.0009503
-0.0006614
0.0005033
0.0001581
-0.02203
-0.0009653
0.02299
-0.4574
-0.02286
0.4802
0.003801
-0.00248
6.567e-05
3.113e-05
5.363e-06
2.013e-05
9.718e-06
-3.33e-05
2.359e-05
0.1527
-0.3523
0.0002861
0.0002618
-0.000109
-1.197e-05
0.000121
0.0004735
0.0008427
6.322e-05
6.822e-05
-0.0001314
-3.796e-05
2.864e-05
1.244
-0.9714
0.4241
-0.8692
0.4451
-0.002369
-0.01694
0.01931
-0.0005247
0.0003392
0.0001856
0.0008109
-0.001109
0.0002984
0.0001972
-0.0003236
0.0001264
0.0001632
0.0005996
0.0006521
0.0004315
0.2622
-1.064
0.8022
-0.0002429
0.0005573
-0.0003144
-0.0002507
0.0001427
-2.94e-05
-3.071e-06
0.0001327
-0.0001169
-1.582e-05
0.0009081
-0.00144
-0.0005012
0.0005225
-2.123e-05
-0.0005882
0.0006957
-0.0001075
-0.0004777
0.001809
-0.001711
-0.0002944
-2.716e-05
-2.169e-05
-0.007436
0.005642
0.001794
0.0005341
-9.242e-05
-0.0004417
-0.0003447
0.0002163
-0.0001843
0.0001355
4.878e-05
9.839e-05
3.701e-05
-0.0001354
-3.455e-05
4.298e-05
-8.435e-06
-5.2e-05
3.176e-05
2.023e-05
8.364e-05
0.001364
0.0004099
-0.0001904
-0.0002195
-0.0001422
0.0001603
-1.819e-05
8.693e-06
-0.0001187
0.00011
0.0002832
1.784e-05
-0.0003011
0.001401
0.0006624
0.0004932
0.003226
-0.0009927
0.0004982
0.0004944
0.0003064
-2.259e-05
-0.0002838
-0.0005283
0.0008876
-0.0003593
0.0005575
-0.0007596
-0.001795
-0.03441
0.03621
3.579e-05
-6.548e-05
2.969e-05
-0.001729
0.00122
0.0005096
-5.461e-06
5.461e-06
0.0004842
0.0008411
-0.001325
1.03e-05
-2.526e-05
-0.4046
0.2942
0.1104
-0.0001217
0.0001654
-4.375e-05
-0.0009981
0.0006086
0.0003896
-1.687
0.1711
-3.797e-05
0.0001295
-0.0002176
-0.0003071
0.0001181
0.0002315
5.629e-05
-3.732e-05
-1.898e-05
5.539e-05
-3.04e-05
-0.01209
0.001752
0.01034
-3.369e-06
1.867e-06
1.502e-06
2.842e-05
-2.759e-05
-8.247e-07
0.0002663
-0.001515
-0.004579
0.005628
-0.001049
0.001921
-0.00141
-0.0005108
-3.368e-05
5.763e-05
-2.395e-05
0.005361
-0.006317
0.0009567
-3.28e-05
-1.92e-05
-0.004718
0.0504
-0.0002275
0.0008753
-0.0006478
-0.0004
-1.146e-05
0.0002053
0.0002533
-7.043e-05
7.868e-05
-8.246e-06
0.0006734
-0.0003332
-0.0003402
-5.144e-05
4.481e-05
6.637e-06
0.00121
-0.002547
0.001337
0.3959
0.05345
-0.4494
0.008651
-0.001328
-0.007322
0.0001653
-0.0002123
4.697e-05
4.461e-05
-3.689e-05
-0.01671
0.006912
0.009796
-0.2414
-0.915
-0.0003803
6.287e-05
0.0001175
-5.139e-05
-6.612e-05
0.0003232
-0.0002808
-0.001397
9.776e-05
0.001299
-0.0008868
0.001832
-0.0009456
0.101
-0.0773
-0.0001812
0.0001382
4.307e-05
0.9195
0.276
-1.196
0.01021
-0.002365
-0.007843
0.5121
-0.5988
0.08674
0.5039
-0.7185
0.2147
-1.05
-0.3208
1.37
-0.0002268
0.0006167
-0.0003899
0.02596
-0.02376
-0.002199
-0.007845
-0.0001215
0.01035
0.0156
2.551e-07
-2.551e-07
-3.5e-07
6.305e-07
-2.804e-07
0.0001746
-3.277e-05
0.0009535
-0.0005786
-0.0003749
1.533
-0.7705
-0.762
1.318e-05
-1.319e-05
1.191e-08
3.203e-05
-8.313e-05
5.11e-05
0.0001583
-8.313e-05
-7.515e-05
-0.001457
0.002234
-0.0007773
0.0008436
0.0005201
-0.001364
0.001816
-0.003943
0.002127
2.169e-05
-1.142e-05
-1.027e-05
0.0607
0.08271
-2.082e-05
0.0001474
-0.0001266
4.774e-06
-0.0001032
9.847e-05
0.9112
-1.12
0.2091
-0.0003234
9.442e-06
-0.0006101
-0.0008927
0.001503
-0.0008152
0.001357
-0.0005421
-7.083e-06
-0.000124
0.000131
8.845e-06
-1.483e-05
5.985e-06
-1.861e-07
2.363e-06
-2.177e-06
-0.0003947
-0.005401
0.0006801
-0.002424
0.001744
0.005363
-0.005369
6.409e-06
1.417e-05
1.998e-05
-3.415e-05
-0.0003934
-0.0004165
0.0008098
0.05664
-0.7513
0.6946
-0.1679
-0.2367
0.001601
-0.002211
-5.567e-05
5.567e-05
-0.0001875
0.0001945
0.3337
-0.2317
-0.1019
0.596
0.318
-0.914
-3.585e-05
-4.66e-06
-0.0001244
6.118e-05
6.32e-05
-0.0001135
0.0003687
-0.0002552
-0.0002307
5.376e-05
0.0001769
-1.389e-05
1.389e-05
-0.0001836
0.0001218
6.183e-05
-0.002486
0.002269
0.0002163
-3.91e-05
5.402e-05
-1.492e-05
0.3141
-0.03241
-0.2817
-0.0003061
0.0006178
-0.0003117
-1.182
0.9419
0.24
-0.001007
0.0008522
0.0001551
2.031e-05
-5.057e-05
3.026e-05
0.001148
-0.0006204
-0.0005279
2.148e-05
0.0002203
-0.0002418
1.233
-0.4094
-0.8237
4.971e-05
-2.725e-05
-2.246e-05
-3.982e-05
-0.001971
0.0007784
-4.922e-05
-0.0007292
0.127
-0.4621
0.3351
0.005072
-0.001233
-0.003839
-0.004897
0.001665
0.003232
0.04326
-0.4315
0.3882
-0.001745
0.00142
0.0003254
0.000125
-5.732e-05
-6.769e-05
-1.446e-05
-8.527e-05
9.974e-05
8.596e-05
3.912e-05
-0.0001251
-0.0003416
-0.0002241
0.0005657
0.3292
-0.233
-0.09621
3.751e-05
-4.477e-06
-3.304e-05
3.429e-05
-3.381e-06
-3.09e-05
-1.33
0.3373
0.9925
0.0004519
0.0003846
-0.0008365
-0.5211
0.07384
0.4472
-0.0001197
3.297e-05
8.672e-05
-0.01844
6.637e-05
0.01837
0.0008179
-0.0003378
-0.0004802
0.2413
-0.1647
-0.07659
0.0001576
-0.0001752
1.764e-05
-7.793e-05
0.0001477
-6.981e-05
1.045
-1.371
0.3258
-1.066e-05
3.382e-06
7.274e-06
-6.151e-05
6.151e-05
-3.638e-05
3.638e-05
-0.0006426
0.0004959
0.0001467
2.986e-05
0.0001904
-0.0002202
0.2895
0.4844
-0.774
9.087e-05
-2.042e-05
-7.045e-05
0.0008732
-0.0007914
-8.183e-05
0.0004528
-0.0006403
0.0001875
-0.0002052
7.87e-05
0.0001265
-0.0002879
-0.0002518
0.0005396
1.232
-0.2921
-0.9395
-6.293e-05
6.293e-05
-4.968e-05
0.0002125
0.004438
-0.00976
-9.907e-05
1.495e-05
8.413e-05
0.6095
-0.9324
0.3229
-0.523
-0.7005
1.223
4.357e-05
8.707e-06
-5.227e-05
0.1223
0.02271
-0.145
5.68e-05
8.888e-05
-0.0001457
-0.02551
-0.01286
0.03837
1.667e-05
6.811e-05
-8.478e-05
-0.2058
1.276
-1.07
-1.253
1.047
0.0001224
-0.0001165
-5.888e-06
0.0003534
-8.272e-06
-0.0003451
-0.0007371
-0.0004832
0.00122
-0.0002475
0.0005161
-0.0002685
-3.952e-05
4.196e-05
-2.432e-06
1.318e-05
4.677e-05
-5.994e-05
0.002203
-0.003355
0.001152
-0.05325
-0.846
0.8992
-0.000799
0.001788
-0.0009887
0.0001305
-6.472e-05
-6.575e-05
-0.0003929
-0.0005574
-0.000308
0.0002031
0.0001049
-0.001683
0.001362
0.0003209
-0.0009573
0.0006422
0.0003152
7.329e-06
-3.872e-06
-3.456e-06
-0.0005024
-0.001107
0.00161
-0.0003619
-0.0001031
0.000465
-3.226e-05
2.03e-05
1.196e-05
-0.0003251
-0.0004746
0.0007998
-0.0002293
-4.93e-05
0.0002786
-1.262
0.7579
0.5043
0.01977
-0.04096
0.02119
-4.223e-05
-5.823e-05
0.0001005
0.0003941
0.0003077
-0.0007018
0.001198
-0.0004418
-0.0007558
0.0004293
-0.0004907
6.134e-05
0.01
-0.006688
-0.003315
0.5305
-0.2642
-0.2663
-0.0004562
0.0006708
-0.0002146
-3.789e-05
-3.54e-06
4.143e-05
0.0001423
-0.0006146
0.0004723
0.0004615
-0.0002973
-0.0001642
-0.0009349
0.001205
-0.0002697
-0.7166
0.3238
0.3927
1.047
0.001094
0.0008855
0.0003363
-0.001222
2.529e-07
-6.029e-07
-3.777e-05
3.777e-05
-0.0005146
0.001206
-0.0006916
0.0009067
-0.001564
-0.0004275
0.0003808
4.663e-05
0.0004805
-0.0005861
0.0001057
-7.212e-05
0.000524
-0.0004519
-0.1482
0.2743
-0.1261
2.248e-05
6.609e-05
-8.857e-05
-0.2706
0.719
-0.4484
0.5488
0.7898
-1.339
-0.0007512
-0.0002415
-0.00301
-0.0002982
0.003308
-2.018e-06
-0.0001241
0.0001261
-0.9532
1.305
-0.3521
-0.0004933
0.0009279
-0.0004346
-2.242e-05
2.242e-05
0.3127
-0.05035
-0.2623
-1.078
0.614
0.4643
9.035e-05
-9.035e-05
-0.0001412
6.529e-05
7.588e-05
-0.001547
0.001406
0.0001416
-0.0404
0.001424
0.03898
-0.0003582
0.0004721
-0.0001139
-0.3733
0.3032
0.07012
0.000743
0.000569
-0.001312
2.137e-05
7.722e-05
-9.858e-05
0.0001306
-4.934e-05
-8.123e-05
0.1853
0.1439
0.0001701
-4.748e-05
-0.0001226
-0.0002538
0.0002538
3.825e-05
-3.825e-05
0.000231
-0.0003347
0.0001036
3.044e-06
-0.0004771
0.000474
-0.0007586
0.0006028
0.0001558
3.644e-05
-1.343e-05
-2.301e-05
-0.9492
-0.494
1.443
6.684e-06
-5.225e-05
4.557e-05
0.01393
0.0001916
-0.01412
-0.0004141
0.002493
-0.002079
0.000306
0.0003583
-0.0006643
0.0005872
-5.304e-05
0.0009781
-4.118e-05
-0.000937
-0.0004651
0.0008127
-0.0003475
-3.988e-05
1.726e-05
2.262e-05
-0.002136
0.002152
-1.549e-05
-0.5011
1.178
-0.6765
1.901e-05
7.186e-05
7.436e-05
-0.0004262
0.0003519
-0.0004017
0.0005483
-0.0001466
2.005e-06
0.001076
-0.3063
-0.03094
0.3373
0.1181
-0.4073
0.2892
0.006725
-0.008165
0.001441
-1.294
0.001606
0.0002621
-0.001868
-0.0003375
0.0003246
1.289e-05
0.0002478
-6.769e-06
-0.000241
-0.01152
-0.01103
-0.0001678
0.000258
-9.019e-05
0.0002358
-9.709e-05
-0.0001388
6.704e-05
-0.0008502
0.0007832
-0.0001828
-4.789e-05
0.2615
0.7717
-1.033
-3.152e-05
1.862e-05
1.29e-05
-0.0001205
5.777e-05
6.275e-05
0.0002207
-0.000347
0.0001263
0.0003689
0.002598
-1.237e-06
7.657e-06
-6.42e-06
-0.00155
-0.002222
0.003772
-8.008e-05
4.281e-05
3.727e-05
-0.0001133
-0.0004167
0.00053
0.000475
-0.0004986
2.353e-05
0.003064
-0.005174
0.002111
6.141e-05
-0.0005317
0.0004703
-0.0007131
0.0007009
1.22e-05
1.668
-0.9603
-0.7074
-0.0003429
-0.001653
0.001996
0.0007391
-0.0003931
-0.0003461
0.0002777
0.0007949
-0.001073
-0.0001177
-0.0001123
-0.002398
-0.000575
0.002973
3.384e-05
2.077e-05
-5.461e-05
0.0001601
-8.912e-05
-7.095e-05
2.168e-05
-2.168e-05
-0.2451
0.3261
-0.08099
0.0006175
-0.0008796
0.000262
0.001139
-0.0003962
-0.0005894
-0.001782
0.002372
0.0002211
-0.0002006
-2.047e-05
0.1754
-0.5263
0.351
-0.004594
-0.00117
-0.0001292
0.0001006
2.861e-05
1.228
-1.077
-0.1515
0.0002521
0.001222
-0.001474
5.225e-05
-5.225e-05
3.88e-05
-3.044e-05
-8.357e-06
-0.0006885
0.0005901
9.845e-05
-1.129
-0.3246
1.453
-0.0007071
-0.0001714
0.0008784
-0.0007439
-0.001933
0.002677
0.001825
-0.0007778
-0.001047
8.799e-05
-0.002026
0.001938
4.514e-05
-0.001677
0.001632
-0.002785
0.002855
-7.008e-05
0.0003224
-0.0005598
0.0002374
-0.00135
0.001617
-0.0002676
-0.0004418
0.00115
-0.0007079
-0.001092
0.001227
-0.0001343
-0.0001898
0.002699
-0.002509
-0.001029
0.001138
-0.0001098
-0.0008467
-0.00129
-0.0001327
0.0001327
-5.818e-06
-2.305e-05
2.887e-05
0.9193
0.3318
-1.251
0.0005001
-0.0003847
-0.0001154
0.007392
-0.0004761
7.335e-05
-7.335e-05
-0.5977
1.453
-0.855
-0.0006021
0.0004957
0.0001063
5.596e-05
-2.419e-05
-2.37e-05
-0.001193
0.001217
8.009e-06
-4.401e-05
-0.9093
0.8561
0.0006391
-0.000482
-0.000157
-0.05555
0.01515
-0.0002523
-0.0007261
0.0009784
6.508e-06
-6.731e-06
2.234e-07
-0.0006628
0.0004382
0.0002246
-0.1145
-0.1366
0.2511
0.0004614
-0.00337
0.002909
9.908e-05
5.805e-06
-0.0001049
0.0003967
-0.000687
0.0002903
-2.345e-05
-1.893e-05
4.238e-05
0.005128
-0.0003811
-0.004747
0.000274
0.0001753
-0.0004492
5.011e-06
5.652e-05
-6.154e-05
0.324
-0.01684
-0.3072
-0.000335
-0.0001167
0.0004517
-2.051e-05
0.000163
-0.0001425
-0.02547
0.04497
-0.01951
0.0008265
-8.626e-06
-0.0002754
0.0002779
-2.537e-06
0.002459
-0.001953
-6.916e-05
6.916e-05
0.0003922
0.0007952
-0.001187
1.603
-1.215
-0.3878
-0.00146
-0.001436
0.002896
0.006638
-0.00792
0.001282
-0.0008396
0.0006115
0.0002282
0.002176
-0.01788
0.0157
-1.02
1.282
-0.0002552
0.0004015
-0.0001463
0.08181
0.06508
-0.1469
4.571e-05
-0.000101
5.53e-05
0.0003277
0.005894
-0.006222
0.001905
-0.0007369
-0.001168
0.323
-1.318
0.9952
-1.179e-05
6.096e-05
-4.917e-05
-8.275e-06
5.947e-05
-5.12e-05
-0.07758
0.01008
0.0675
-1.555
0.8653
0.6893
-1.069
-0.5859
-1.005
-0.6595
-4.493e-06
4.493e-06
-4.493e-06
-5.143e-05
5.143e-05
-0.0001853
-1.987e-05
-7.793e-05
9.284e-05
0.02479
-0.02173
-0.003061
-0.000296
-0.0003654
0.00472
-0.002279
-0.002442
-0.0005431
0.01043
-0.009891
0.001535
-0.001447
7.86e-05
-6.09e-06
-7.251e-05
-0.01319
0.006737
0.006458
-0.3991
-0.127
0.5261
0.00118
-7.947e-05
-0.001101
0.1596
-0.265
0.1053
-2.14e-05
5.262e-05
-3.121e-05
0.0004166
-0.0003286
-8.799e-05
0.2639
0.184
-0.4479
-0.07497
-0.06118
0.1361
-0.0001
0.000178
-7.799e-05
0.0002839
-4.091e-05
-0.000243
-0.8552
1.426
-0.5712
-0.000468
0.0003959
0.001037
-0.001203
0.0001657
0.03003
-0.006127
-0.0239
2.138e-05
3.128e-07
3.447e-05
-4.646e-05
1.2e-05
-0.0004307
-6.469e-05
0.0004954
-0.02135
0.03163
-0.01028
0.009397
-0.00999
0.0005932
-0.002188
-0.001812
0.004
-4.645e-05
6.119e-06
4.033e-05
0.5165
-0.1206
1.601e-05
-7.358e-05
5.757e-05
0.1005
0.2332
0.003674
0.001046
0.01295
-0.006114
-0.006832
0.0003359
-0.0003869
5.096e-05
-0.001268
0.00194
-0.0006723
-0.8618
0.4951
0.3666
-0.03079
0.07147
-0.04068
-0.00178
-0.005038
0.006818
-0.0001779
0.0001002
7.763e-05
-4.086e-05
2.626e-05
1.46e-05
0.001108
-0.0009274
-0.0001803
0.0004956
-0.0005516
5.602e-05
3.379e-05
8.562e-05
-0.0001194
0.002644
-0.002079
-0.0005644
-0.3066
-0.8001
1.107
-4.393e-05
2.115e-05
2.279e-05
0.393
-1.346
-0.0001254
0.0001716
-4.62e-05
-0.0002991
0.0001877
0.0001114
4.484e-05
-1.972e-05
-2.512e-05
-2.575e-05
-1.818e-05
-0.1664
0.1661
0.0003154
-0.0001397
0.0001033
3.637e-05
-0.0002089
0.0005606
-0.0003516
0.001852
0.001967
-0.003819
-0.0003425
-0.0002969
0.0006394
-1.452
0.4725
0.9799
1.185e-05
1.71e-05
-0.01043
0.01217
-0.001741
0.0003731
-0.000518
0.0001449
5.595e-05
-2.13e-05
-3.465e-05
-1.459e-05
3.214e-06
1.137e-05
0.007143
-0.009543
0.002401
0.001151
0.0006744
0.002398
0.0007297
-0.0009762
0.0006878
0.0002884
0.0004427
0.001124
-0.001566
-0.0005654
0.001534
-0.000969
-0.0002006
0.0002006
0.0003452
-0.0003105
-3.47e-05
-4.811e-05
4.811e-05
-5.699e-05
0.000108
-5.105e-05
0.0001302
-1.565e-05
-0.0001146
0.0001417
-0.0002036
6.192e-05
-0.01223
0.009864
0.3621
-0.3781
0.016
-0.001541
0.0004609
0.00108
-3.824e-05
3.824e-05
-0.07317
0.2328
6.039e-06
-7.741e-06
1.701e-06
9.304e-05
-1.286e-05
-8.018e-05
-1.28
1.316
-0.03549
-0.07488
-1.206
0.0007409
-0.0009416
0.0002007
-0.003401
-0.001178
-0.0009827
0.0002691
0.0007136
0.008613
-0.002392
-0.006221
9.76e-05
3.297e-05
0.003425
-0.004864
0.001439
-3.388e-05
4.646e-07
3.342e-05
0.002872
-0.003519
0.0006476
0.4382
0.02239
-0.4606
-3.539e-05
1.179e-06
3.422e-05
0.0002919
-0.0002965
4.572e-06
0.3618
-0.3474
-0.01446
0.001353
-0.001727
0.0003733
-8.066e-06
4.191e-05
-2.748e-05
3.858e-05
-1.11e-05
8.492e-06
-1.983e-05
1.134e-05
8.241e-05
7.766e-05
2.617e-06
-2.617e-06
-0.8239
0.8761
-0.05225
0.005664
-0.01918
-0.00424
0.004685
-0.0004455
-0.001368
0.002948
-0.00158
-1.114
1.427
-0.3137
-0.4895
1.072
0.0004184
0.0003861
-0.0008046
-0.2959
-0.05668
0.3526
0.001038
-0.001162
0.0001239
0.0005558
-0.0001864
-0.0003694
0.00425
0.004022
-0.008272
0.02651
-0.008695
-0.01782
-0.2753
0.1293
0.1459
2.116e-05
-1.598e-05
0.1306
-0.0488
0.003466
-0.02743
0.02396
0.0003958
-0.0001715
-0.0002243
-0.002085
0.001645
0.0004409
-0.6399
0.4677
0.1722
0.1005
-0.07182
-0.02865
-7.934e-05
-2.912e-05
0.0001085
0.04412
0.08152
-0.0003378
-0.0003024
0.1864
-0.6116
0.4252
2.164e-05
-2.164e-05
0.06475
-0.003398
-0.06135
-0.2069
0.09243
-0.3262
0.5016
-0.00415
0.006255
-0.002105
-6.634e-05
6.634e-05
-0.0002038
0.0002038
0.000105
9.962e-05
-0.0002046
2.4e-05
1.31e-05
-3.71e-05
-0.01269
0.007471
0.005217
0.09355
-0.01105
-0.0825
0.0006401
0.008285
-0.008925
-1.078e-05
-1.817e-05
0.0001768
0.0003268
-0.0005036
0.2848
1.248
-0.0007418
0.0004334
0.0003083
0.0001003
-0.00107
0.0009693
-8.379e-06
3.371e-05
-2.533e-05
0.0001182
-0.0002503
0.0001321
-0.0007084
0.001052
-0.0003439
1.456e-06
0.0001865
-0.0001879
-0.3177
0.5427
-0.225
7.175e-08
-2.234e-08
-4.941e-08
-0.0006735
-0.001428
0.0001238
6.65e-05
-0.0001903
-0.05915
0.1815
-0.0004678
0.0001281
0.0003397
-0.00803
0.003831
0.004199
8.838e-05
-6.559e-05
-2.279e-05
0.0006093
-0.0004461
0.01107
-0.01391
0.002834
8.397e-06
7.581e-07
-9.155e-06
0.0003121
-0.0007216
0.0004095
0.001607
-0.001404
-0.0002028
0.001997
-0.002416
0.0004187
-0.0002286
-0.0001731
0.0004017
-0.09518
-0.1106
0.2058
0.0003515
0.000483
-0.0008345
0.003811
-0.001088
-0.002723
2.709e-05
0.0001432
-0.0003787
0.0002355
-0.4825
-0.07625
0.5587
0.3092
-1.08
0.0005949
-0.0004605
-0.0001345
0.1061
-1.037
0.9314
-0.000392
0.0001572
0.0002348
-0.0004378
0.0002707
0.0001671
-0.0001365
0.0001676
-3.108e-05
0.0001828
-0.0001175
-6.53e-05
-3.119e-05
3.391e-05
-2.719e-06
0.7897
-0.9945
0.2048
-0.0003593
0.000287
7.229e-05
-0.134
0.465
-0.3311
9.435e-05
-7.404e-05
-0.0001001
0.0001985
0.0001157
-0.0001845
6.883e-05
-8.699e-05
-5.223e-05
0.0001392
-0.001039
0.001871
-0.0008315
-0.0009533
4.498e-05
0.0009083
-8.934e-05
-9.499e-05
2.208e-05
-2.208e-05
-0.0002681
0.0005815
-0.0003134
0.0002953
-2.115e-05
0.001073
0.00255
-0.003623
-0.002849
0.0006502
0.002198
-0.0003377
0.0006522
-0.0003144
-0.007151
0.01149
-0.004342
0.0004791
0.0001599
-2.858e-05
4.145e-06
2.443e-05
0.0002462
-0.0005297
0.0002835
0.2634
-0.04129
-0.2221
1.286e-05
-5.005e-05
3.718e-05
-0.2093
0.1662
0.04311
0.006978
-0.005665
-0.001313
-0.8303
0.8147
0.01557
-0.001203
0.002981
-0.001778
-0.0001859
-7.111e-05
0.000257
4.827e-05
-4.827e-05
0.000836
-0.0008494
1.337e-05
-0.001011
0.0006
0.0004113
0.002972
-0.001688
-0.001284
-0.001383
0.001249
0.0001346
-0.0002205
-0.0007096
0.0009301
0.0008167
-0.0005528
-0.0002639
0.001259
-0.001468
0.0002089
-0.07423
-0.07032
0.1445
0.007
-0.008583
0.001583
-0.0006943
0.0007541
-5.987e-05
0.169
-0.2011
0.03205
0.0166
0.6
-0.6166
0.0002145
0.0002779
-0.0004924
0.0001549
-0.0002322
7.73e-05
-0.1288
0.9569
-0.828
0.004112
0.001751
-0.005863
-2.535e-05
5.871e-05
-3.336e-05
0.0001073
-0.0002608
0.0001534
0.02724
-0.007123
-0.02012
9.489e-06
-8.623e-06
-8.665e-07
-3.73e-05
-1.254
0.1445
1.109
-4.199e-06
3.253e-05
-2.833e-05
-0.5636
0.3295
0.2341
-7.772e-05
7.151e-06
7.057e-05
0.002781
-0.00275
-3.14e-05
4.625e-05
5.463e-05
-0.0001009
-0.002264
-0.001343
0.003607
-0.0455
-0.009823
0.05532
0.03402
-0.03033
0.0003457
-2.865e-05