/*--------------------------------*- C++ -*----------------------------------*\
| =========                 |                                                 |
| \\      /  F ield         | OpenFOAM: The Open Source CFD Toolbox           |
|  \\    /   O peration     | Version:  v2012                                 |
|   \\  /    A nd           | Website:  www.openfoam.com                      |
|    \\/     M anipulation  |                                                 |
\*---------------------------------------------------------------------------*/
FoamFile
{
    version     2.0;
    format      ascii;
    class       volVectorField;
    location    "5";
    object      U;
}
// * * * * * * * * * * * * * * * * * * * * * * * * * * * * * * * * * * * * * //

dimensions      [0 1 -1 0 0 0 0];


internalField   nonuniform List<vector> 
98045
(
(0.04414 0.04818 -6.725e-23)
(0.02657 0.0198 0)
(0.001349 -0.0009849 -5.3e-25)
(-2.267e-05 -2.953e-05 1.702e-23)
(0.02957 0.03631 -2.75e-22)
(0.03889 0.0007852 9.793e-22)
(0.0357 0.01768 0)
(0.00995 -0.004349 1.114e-23)
(0.002173 -0.001556 0)
(0.03631 0.04356 3.766e-22)
(4.769e-06 -0.0001954 2.494e-23)
(0.01958 -0.007255 5.074e-24)
(0.04336 0.04784 0)
(0.001708 -0.001192 -4.722e-24)
(0.009957 -0.003313 0)
(0.04725 0.7496 -2.43e-21)
(0.004177 -0.003493 1.29e-23)
(0.8746 -0.3852 -1.205e-21)
(0.1498 -0.09819 -9.03e-22)
(0.8805 -0.3906 -1.664e-23)
(0.8521 -0.365 1.985e-21)
(0.7444 -0.3375 2.471e-21)
(1.017 -0.09798 0)
(0.1004 -0.08116 3.828e-23)
(0.7336 -0.2695 0)
(0.5885 -0.3856 -2.68e-21)
(0.7671 -0.005437 -1.661e-20)
(0.8843 -0.3754 1.231e-21)
(-0.0002029 -0.0006406 2.506e-23)
(0.1003 -0.07809 5.375e-22)
(0.7337 -0.2923 0)
(0.3376 -0.0761 6.39e-23)
(0.6891 -0.3239 -2.968e-21)
(0.7877 -0.3646 -1.36e-21)
(0.1311 -0.09409 -2.199e-21)
(1.121 -0.3335 7.137e-22)
(0.7669 -0.3037 -5.696e-23)
(0.4302 0.009509 0)
(0.6255 -0.3872 -2.449e-22)
(0.1009 -0.05361 6.279e-21)
(0.0642 -0.04377 8.77e-21)
(0.2692 -0.1225 0)
(0.9816 -0.1863 -3.392e-21)
(1.008 0.01202 -1.015e-20)
(1.026 -0.08905 6.639e-21)
(0.5023 -0.1888 0)
(0.4029 -0.3215 -3.398e-21)
(0.8883 -0.3741 8.686e-22)
(0.155 -0.1364 0)
(0.1004 -0.07917 9.368e-22)
(0.3474 0.03818 0)
(0.1469 -0.1233 0)
(0.06432 -0.04182 -6.837e-21)
(0.9631 -0.007611 5.659e-21)
(0.147 -0.1236 1.51e-23)
(0.1439 -0.1297 -5.205e-23)
(1.323 0.2244 -3.463e-21)
(0.6104 -0.3546 2.336e-21)
(0.9653 -0.007901 -5.894e-21)
(0.109 -0.09997 -3.597e-23)
(1.008 -0.3885 1.424e-21)
(0.7598 -0.1542 0)
(1.018 -0.0819 -2.073e-21)
(0.9931 -0.000309 0)
(1.012 -0.002352 5.177e-20)
(0.7342 -0.291 0)
(1.057 -0.4042 -1.548e-22)
(0.1586 -0.1058 0)
(0.763 -0.1611 1.765e-22)
(0.9745 0.001329 0)
(0.06966 -0.05047 -1.06e-21)
(0.1367 -0.1129 -2.299e-21)
(0.2207 -0.1306 0)
(1.018 -0.004886 8.831e-21)
(0.1101 -0.1024 0)
(0.6962 -0.188 2.126e-20)
(1.068 0.007153 9.751e-21)
(1.206 0.1015 9.323e-21)
(0.7676 -0.3637 -7.864e-22)
(1.011 -0.001999 -1.395e-19)
(1.085 -0.1694 -6.335e-22)
(0.1818 -0.06922 0)
(0.5181 -0.2087 -5.346e-22)
(0.5856 -0.3876 -2.386e-21)
(1.058 -0.3775 -4.69e-22)
(0.8727 -0.3923 -1.577e-21)
(0.1646 -0.1145 0)
(1.016 0.03086 1.951e-21)
(0.1408 -0.0938 0)
(1.08 -0.3881 -6.202e-23)
(0.4932 -0.06738 -4.269e-21)
(0.4332 -0.1847 -1.652e-21)
(0.3588 -0.1797 -7.53e-21)
(0.7504 -0.3403 -1.56e-21)
(0.07629 -0.0557 0)
(0.3591 -0.1201 -1.033e-21)
(0.9939 -0.0002946 -5.096e-21)
(0.7419 -0.4035 0)
(0.1443 -0.1303 5.613e-23)
(0.1488 -0.1425 1.025e-22)
(0.07893 -0.05444 -3.817e-21)
(1.008 0.01181 -5.654e-21)
(0.365 -0.1665 -2.486e-21)
(0.1219 -0.09473 5.506e-22)
(1.12 -0.3377 -7.581e-22)
(0.6057 -0.3522 1.363e-22)
(1.215 0.05044 8.502e-21)
(0.1188 -0.09457 -4.84e-22)
(0.3651 0.5176 2.453e-22)
(0.7207 -0.3188 0)
(0.4139 -0.2947 1.955e-21)
(0.9699 -0.4003 0)
(0.8798 -0.388 2.291e-21)
(0.1031 -0.08211 -4.116e-22)
(1.069 -0.1554 0)
(1.118 -0.1774 0)
(0.9683 -0.3999 0)
(0.1567 -0.09842 6.973e-23)
(0.7699 -0.3635 -7.524e-22)
(0.7707 -0.1435 -4.859e-22)
(0.05323 0.7645 0)
(0.2643 -0.1511 -8.538e-21)
(0.1145 -0.07384 0)
(0.1314 -0.1407 -9.658e-22)
(1.034 0.0005692 -1.866e-20)
(1.019 -0.0792 1.805e-21)
(0.8853 -0.393 8.666e-24)
(0.1625 0.09508 5.641e-22)
(1.018 -0.004532 0)
(0.7439 -0.404 0)
(0.4892 -0.1934 -1.26e-22)
(0.1201 -0.09589 -4.604e-22)
(0.1568 -0.135 2.259e-23)
(1.001 -4.225e-05 1.113e-21)
(0.8026 -0.223 0)
(0.1517 -0.09926 0)
(0.8272 -0.1694 0)
(0.106 -0.08633 0)
(1.126 -0.1636 -8.735e-22)
(0.8086 -0.03907 -1.455e-20)
(0.4347 -0.1656 5.691e-22)
(0.8002 -0.3689 2.425e-21)
(0.1572 -0.1371 -3.536e-24)
(0.604 -0.1757 0)
(0.369 -0.3063 -6.894e-21)
(0.1192 0.1026 4.445e-22)
(0.9844 -0.4073 3.935e-22)
(0.3042 -0.233 3.62e-21)
(1.077 -0.1855 3.032e-23)
(0.7395 -0.006149 1.816e-20)
(0.1149 -0.09531 4.245e-23)
(0.07539 -0.0544 2.787e-21)
(0.7881 -0.225 2.582e-21)
(1 0.008245 -2.779e-20)
(1.017 0.03005 0)
(0.5707 -0.2277 -1.401e-22)
(1.126 -0.08785 1.379e-21)
(0.1572 -0.1345 0)
(0.2776 -0.1538 -2.032e-21)
(0.8904 -0.3799 6.147e-22)
(0.7627 -0.3013 0)
(0.1375 -0.1135 0)
(0.01635 0.1419 0)
(0.305 -0.1408 0)
(0.1008 -0.08004 0)
(1.32 0.2035 -7.551e-21)
(0.6312 -0.3715 0)
(0.2013 -0.09206 4.087e-21)
(0.1271 -0.1124 -4.818e-23)
(0.8505 -0.3586 0)
(0.5369 -0.3599 4.279e-22)
(0.9987 -0.3691 1.915e-22)
(0.5026 -0.3174 -4.375e-21)
(0.9476 -0.4057 9.535e-22)
(0.1312 -0.1408 9.511e-22)
(0.7897 -0.3858 -1.9e-21)
(1.011 0.03189 4.647e-22)
(0.9315 -0.4066 5.485e-22)
(1.062 -0.1196 -4.66e-22)
(1.008 0.0003223 0)
(0.1333 -0.09339 0)
(0.4535 -0.3382 0)
(0.6001 -0.3673 -2.621e-21)
(0.9108 -0.4122 1.208e-21)
(0.1468 -0.09584 -1.874e-21)
(0.2874 -0.159 -6.164e-21)
(0.229 -0.1225 -7.933e-24)
(0.004382 -0.003107 0)
(0.1066 -0.06356 0)
(0.5592 -0.2611 4.374e-21)
(0.9989 -0.3687 -1.304e-22)
(0.629 -0.2202 0)
(0.08274 -0.05723 0)
(0.4853 -0.1789 4.503e-22)
(0.9753 0.001377 0)
(0.08623 -0.103 -4.15e-21)
(1.049 -0.1459 0)
(0.1447 -0.1256 6.459e-23)
(0.1849 -0.1319 -6.42e-21)
(0.1136 -0.06154 -8.276e-21)
(0.4089 -0.177 -5.729e-21)
(0.1311 -0.1139 3.092e-22)
(0.2824 -0.2471 8.953e-21)
(0.9761 0.1651 -2.107e-21)
(1.015 -0.01172 -8.462e-21)
(0.1047 -0.08662 -2.018e-22)
(1.105 -0.1488 1.269e-21)
(1.032 -0.007689 1.582e-20)
(0.04015 0.7304 2.193e-21)
(0.6295 -0.3713 3.015e-21)
(0.9445 0.1101 -1.98e-20)
(1.207 0.1151 -9.389e-21)
(1.014 -9.256e-05 1.018e-20)
(0.1406 -0.08072 2.853e-21)
(0.9879 -0.001909 1.334e-20)
(0.5488 -0.265 3.175e-21)
(0.5877 -0.2579 -2.219e-21)
(0.986 -0.002009 -6.357e-22)
(1.124 -0.161 7.825e-22)
(0.4674 -0.2055 -1.604e-21)
(1.078 -0.181 -2.951e-23)
(0.9421 0.1313 2.525e-21)
(1.017 0.001911 7.685e-21)
(0.1261 -0.106 1.021e-21)
(0.8979 -0.4018 -2.977e-21)
(0.8964 -0.4129 4.557e-21)
(0.4392 -0.1763 -5.722e-22)
(1.015 -0.0001111 -1.729e-20)
(0.07688 -0.0553 -2.572e-21)
(0.4704 -0.1844 1.246e-21)
(1.002 -0.3452 1.524e-21)
(0.998 -0.18 1.064e-20)
(1.011 0.01885 2.869e-21)
(0.2778 -0.1533 5.994e-21)
(0.138 -0.0931 0)
(1.008 0.0003845 9.095e-22)
(0.1329 -0.0949 -1.037e-21)
(0.82 -0.3646 0)
(0.6172 -0.3373 2.083e-21)
(0.8622 -0.3825 -1.342e-21)
(1.009 -0.3954 -3.929e-24)
(1.011 -0.3881 -1.529e-23)
(0.8241 -0.0901 -2.177e-21)
(0.9017 -0.3898 -1.028e-21)
(1.067 -0.1682 -9.294e-22)
(0.3583 -0.1219 -3.846e-21)
(0.9189 -0.3934 -8.394e-22)
(0.9536 0.0698 0)
(1.032 -0.006916 -7.222e-21)
(0.625 -0.1744 0)
(1.01 0.03096 -4.727e-22)
(0.1376 -0.1162 -1.968e-23)
(0.598 -0.2637 0)
(0.1367 -0.1151 3.794e-23)
(0.1256 0.01696 4.39e-21)
(1.085 -0.3886 1.002e-22)
(0.6925 -0.4051 1.714e-21)
(0.6667 -0.321 1.865e-21)
(0.8382 -0.3374 0)
(0.6913 -0.228 -1.443e-20)
(0.9327 -0.04545 -4.541e-21)
(1.118 -0.1108 0)
(0.3406 -0.2613 5.22e-21)
(0.08029 -0.06119 1.197e-21)
(1.127 -0.184 -6.458e-23)
(0.1532 -0.09807 0)
(0.1456 -0.1229 -4.956e-23)
(0.7789 -0.1106 1.231e-20)
(0.8203 -0.359 2.997e-22)
(1.043 -0.4069 0)
(0.137 0.6593 -2.223e-21)
(1.016 0.002094 0)
(0.1517 -0.1421 0)
(1.083 -0.1728 6.027e-22)
(0.1457 -0.1268 -3.767e-23)
(0.2198 -0.08596 5.588e-24)
(0.2127 -0.144 0)
(0.02692 -0.01215 4.55e-23)
(0.1116 -0.0638 -3.554e-21)
(1.173 -0.2964 -4.969e-22)
(0.7092 -0.3314 0)
(0.07305 -0.0546 -3.871e-21)
(1.043 -0.09075 7.149e-22)
(0.07759 -0.05664 8.386e-22)
(1.149 -0.3477 -2.292e-22)
(0.7319 -0.2597 0)
(0.5956 -0.3845 0)
(0.06963 -0.05311 -1.687e-21)
(0.1297 -0.08284 -1.668e-21)
(0.9596 -0.4092 7.917e-22)
(1.012 0.0184 1.504e-20)
(-0.009998 0.02257 4.109e-26)
(0.8925 -0.38 0)
(0.1232 -0.09385 1.698e-21)
(1.033 0.0003641 1.828e-20)
(0.9005 -0.08569 -3.078e-20)
(0.1409 -0.116 2.718e-23)
(0.74 -0.4114 0)
(0.1288 0.6238 5.938e-22)
(0.08247 -0.03291 -6.3e-24)
(0.03393 -0.04258 0)
(0.03728 -0.03911 -5.736e-22)
(0.09551 -0.07367 0)
(0.1498 -0.1344 -4.95e-24)
(0.9926 -0.1519 0)
(0.7425 -0.3495 2.622e-22)
(0.1674 -0.116 0)
(0.118 -0.07625 2.087e-21)
(0.5183 -0.1931 4.597e-21)
(0.1918 -0.119 0)
(1.061 -0.09999 -4.446e-22)
(0.957 -0.3856 -2.829e-22)
(0.0745 -0.05469 1.384e-21)
(0.3483 -0.1766 1.781e-23)
(0.998 0.005763 -3.434e-20)
(0.03058 -0.01842 4.812e-21)
(0.9137 -0.3839 0)
(0.08884 0.01179 1.493e-23)
(0.4127 -0.1811 -3.537e-21)
(0.9834 0.014 4.412e-22)
(0.09802 -0.07545 0)
(0.07009 -0.05441 5.587e-22)
(0.1881 -0.1328 4.273e-21)
(0.4616 -0.3492 -1.597e-21)
(0.597 -0.2638 1.994e-21)
(1.043 -0.4068 0)
(0.1333 -0.112 6.101e-23)
(1 0.00833 2.045e-20)
(0.4452 -0.1932 -4.777e-21)
(0.1515 -0.1387 1.261e-23)
(0.9137 -0.1851 3.221e-20)
(0.1516 -0.1424 0)
(0.3396 -0.1604 -1.127e-21)
(0.2199 -0.07761 4.608e-23)
(0.6078 -0.2704 0)
(1.061 -0.4039 4.719e-24)
(0.7916 -0.3136 1.016e-22)
(1.054 -0.1162 7.316e-23)
(0.257 -0.1473 -2.944e-21)
(0.9846 0.0006232 4.463e-21)
(1.041 -0.03658 0)
(0.1326 -0.104 2.689e-25)
(0.09076 -0.07146 6.14e-22)
(0.8334 -0.2206 7.042e-22)
(0.1237 -0.08938 -7.548e-22)
(0.03364 -0.02721 -5.606e-23)
(0.7351 -0.3981 3.933e-21)
(0.7933 -0.1364 2.832e-22)
(0.3678 -0.2537 4.463e-21)
(0.1651 -0.1139 4.5e-21)
(-0.0005113 -0.002028 -7.006e-23)
(0.1357 -0.1267 0)
(0.1456 -0.102 -1.013e-24)
(0.5156 -0.3243 4.073e-21)
(0.4905 -0.2655 0)
(0.9434 -0.04434 4.15e-21)
(0.7192 -0.3345 0)
(1.007 -0.01875 0)
(0.06742 -0.05652 -1.606e-23)
(0.1871 -0.1689 -6.794e-22)
(0.7503 -0.1375 1.791e-21)
(1.009 0.0008856 4.468e-22)
(0.02958 0.001102 2.559e-23)
(0.1502 -0.1334 -4.356e-26)
(1.02 0.001479 0)
(0.1241 -0.08747 -1.822e-24)
(0.9973 0.009636 3.125e-20)
(0.07815 -0.05062 5.886e-23)
(0.1822 0.0791 -1.181e-21)
(0.9487 -0.4058 1.864e-21)
(0.9777 -0.3627 6.7e-23)
(0.5951 -0.2356 -1.953e-22)
(1.045 -0.09949 0)
(1.055 -0.3931 0)
(0.01973 -0.01477 0)
(0.7332 -0.1946 -2.343e-21)
(1.012 -0.01711 0)
(0.1542 -0.1346 6.285e-24)
(0.0425 -0.03249 0)
(0.9921 -5.583e-05 2.292e-22)
(0.5879 -0.3221 6.566e-21)
(0.1464 -0.124 3.052e-23)
(0.9555 0.7027 0)
(0.512 -0.3127 2.331e-21)
(0.5463 -0.2175 0)
(0.9859 0.00217 -1.454e-20)
(0.0742 -0.05565 5.058e-21)
(0.1441 -0.1408 0)
(0.3505 -0.1761 1.089e-20)
(0.4653 -0.2048 3.448e-21)
(1.009 0.00248 -3.378e-21)
(0.07074 -0.05416 1.883e-21)
(0.7451 -0.3289 0)
(0.9005 -0.01115 -1.153e-20)
(1.03 -0.08098 4.367e-22)
(0.1589 -0.09968 1.978e-21)
(0.06987 -0.05658 3.982e-22)
(0.1267 -0.09938 -1.186e-22)
(0.1523 -0.1061 6.789e-22)
(0.5371 -0.3587 -4.159e-22)
(0.9921 -2.649e-05 2.648e-21)
(1.013 -0.0004767 0)
(0.07563 -0.0553 2.646e-21)
(0.3469 -0.1666 -1.53e-21)
(0.1309 -0.08602 0)
(0.4356 0.04756 0)
(1.012 -0.01385 8.226e-21)
(0.8496 -0.4137 0)
(0.09151 -0.06446 -3.676e-21)
(0.9975 0.009415 1.314e-22)
(0.3063 -0.1425 0)
(0.2246 -0.1329 0)
(0.9982 0.005355 0)
(0.9277 -0.07462 3.75e-21)
(0.9208 -0.4071 -1.019e-21)
(1.132 -0.3401 -5.9e-23)
(0.5549 -0.3264 -1.576e-21)
(0.1059 -0.07985 -3.59e-22)
(0.01369 -0.01549 1.756e-21)
(0.5108 -0.1333 1.258e-21)
(0.1086 -0.08697 -1.093e-21)
(0.8312 -0.08872 2.035e-21)
(0.8788 -0.3957 1.864e-21)
(0.5011 -0.2896 -7.243e-21)
(0.1524 -0.1091 5.221e-22)
(0.2216 -0.1323 -1.323e-21)
(1.012 -0.01435 0)
(0.137 -0.09988 -1.524e-21)
(0.2388 -0.1425 -4.237e-21)
(0.9395 -0.3662 0)
(0.3824 -0.1859 -3.737e-21)
(1.001 -3.985e-05 6.789e-21)
(0.1356 -0.09457 1.455e-21)
(0.1519 -0.1064 0)
(0.2139 -0.1307 0)
(0.03498 -0.02806 7.974e-26)
(1.007 0.0002239 0)
(0.9513 0.06633 0)
(0.07204 -0.05588 0)
(0.1167 -0.09233 5.112e-23)
(0.09276 -0.04854 3.451e-21)
(0.4127 -0.1483 -5.51e-21)
(1.001 -5.394e-05 2.661e-23)
(0.6324 -0.3911 4.52e-22)
(1.02 0.001396 -7.761e-21)
(0.1165 -0.0734 6.689e-21)
(0.4454 -0.1875 -1.514e-21)
(1.012 -0.01744 0)
(1.015 -0.01146 0)
(0.8156 -0.41 0)
(0.6199 -0.2735 -9.575e-22)
(0.5715 -0.3774 4.069e-21)
(0.04508 -0.03461 0)
(0.1485 -0.1424 -8.984e-23)
(0.5258 0.1607 -2.135e-21)
(0.1646 0.02885 3.862e-23)
(0.1231 -0.09555 7.569e-26)
(0.07053 -0.05259 0)
(1.157 -0.3518 3.515e-22)
(1.026 -0.395 -7.273e-23)
(0.9736 -0.003978 0)
(0.1026 -0.08002 1.158e-22)
(0.7862 -0.344 0)
(0.416 -0.1466 0)
(0.4206 -0.1955 9.89e-21)
(1.045 -0.03111 2.346e-21)
(1.111 -0.1571 -1.609e-21)
(0.153 -0.1316 -4.012e-26)
(0.9206 -0.4072 1.002e-21)
(1.028 -0.4029 1.377e-22)
(0.1503 -0.1336 4.814e-24)
(0.5477 -0.3741 0)
(0.5934 -0.3881 1.762e-21)
(0.5531 -0.2305 7.158e-22)
(1.115 0.1277 0)
(1.024 0.007409 -5.218e-22)
(0.9359 -0.4081 4.819e-22)
(0.09157 -0.07176 -6.106e-22)
(0.1415 -0.1167 1.21e-23)
(0.1525 -0.1365 3.38e-23)
(0.9837 0.01342 1.303e-20)
(0.1329 -0.1044 -6.677e-22)
(0.1029 -0.06122 0)
(0.1652 -0.1138 -8.727e-21)
(0.1055 -0.08151 -1.958e-22)
(0.1498 -0.1343 -4.576e-24)
(1.009 0.0002975 9.274e-21)
(1.004 -0.001957 7.242e-20)
(0.7066 -0.008065 -1.178e-20)
(0.228 -0.1253 5.614e-21)
(0.6074 -0.3605 2.035e-21)
(0.126 -0.08736 1.086e-21)
(0.5952 -0.2616 0)
(0.4708 -0.184 0)
(1.014 -0.001841 1.646e-22)
(0.1351 -0.1298 8.571e-22)
(0.5379 -0.2162 1.178e-22)
(0.07736 -0.06206 -1.497e-21)
(0.1137 -0.05752 6.718e-21)
(0.8928 -0.3791 -9.482e-22)
(0.1581 -0.1042 -1.407e-21)
(0.2215 -0.1314 7.749e-22)
(0.2697 -0.1536 3.91e-21)
(1.057 -0.08396 0)
(0.1331 -0.1123 -6.768e-23)
(0.8199 -0.4072 3.032e-21)
(0.6505 -0.2717 0)
(0.1446 -0.09543 2.362e-21)
(0.08352 -0.05856 1.31e-21)
(0.09667 -0.07024 2.129e-21)
(0.1542 -0.135 0)
(0.1514 -0.1336 0)
(0.8285 -0.3676 1.071e-21)
(0.3015 -0.2707 0)
(0.13 -0.07673 -2.614e-21)
(0.09799 -0.06967 1.281e-21)
(0.1361 -0.1257 0)
(1.056 -0.3931 9.367e-24)
(1.126 -0.08717 2.657e-21)
(0.5379 -0.3661 2.24e-22)
(0.6891 -0.2756 -1.515e-23)
(0.6088 -0.3458 -4.68e-21)
(0.3785 -0.171 4.32e-21)
(0.9224 0.2028 3.315e-21)
(0.1524 -0.1418 2.167e-23)
(0.1742 -0.1289 5.6e-21)
(0.03719 0.02707 -5.769e-22)
(0.7108 -0.3724 0)
(0.1213 -0.09606 0)
(0.9831 -0.02673 -1.473e-20)
(0.144 -0.1396 0)
(0.4367 -0.3394 2.71e-21)
(1.009 0.0008331 -3.23e-22)
(0.1319 -0.1152 -6.415e-22)
(0.2283 -0.1261 -4.032e-21)
(0.6086 -0.2444 1.883e-22)
(0.1522 -0.138 0)
(0.1086 -0.09061 -1.752e-22)
(0.9737 -0.3955 -3.151e-21)
(0.04197 -0.01619 0)
(0.04729 -0.03648 -1.012e-21)
(0.2964 -0.1619 1.78e-21)
(0.2799 -0.05371 8.691e-21)
(0.7582 -0.3627 0)
(0.1137 -0.09487 2.995e-22)
(0.6194 -0.2257 -1.108e-20)
(0.1513 -0.1336 -5.777e-24)
(1.06 -0.1196 3.574e-22)
(0.3213 -0.1638 0)
(0.2349 -0.1239 1.86e-21)
(0.1388 -0.09345 -1.047e-21)
(0.09037 -0.07198 1.931e-24)
(0.6639 -0.2845 0)
(0.09712 -0.07985 0)
(1.159 -0.2742 -2.441e-24)
(1.009 0.01129 1.061e-20)
(0.9173 -0.4056 7.651e-22)
(0.09978 -0.06991 1.563e-21)
(0.1544 -0.1349 1.165e-23)
(1.028 0.3553 1.685e-22)
(0.9872 0.002354 1.471e-20)
(0.1497 -0.09714 6.154e-22)
(0.3365 -0.04232 -3.336e-21)
(0.5609 -0.07756 0)
(0.2816 -0.1569 -1.507e-21)
(1.28 0.7367 0)
(0.8766 -0.008877 2.257e-20)
(0.09065 -0.0617 0)
(1.009 0.0003316 -4.345e-21)
(0.9673 -0.4104 -8.784e-23)
(0.9944 -0.01068 -4.605e-20)
(0.93 -0.01305 0)
(1.002 0.0001666 3.199e-20)
(0.5586 -0.3606 -5.868e-23)
(0.8355 -0.2973 1.106e-20)
(1.129 -0.3418 -9.02e-24)
(0.8402 -0.298 -5.807e-21)
(0.007894 -0.00302 -1.007e-23)
(0.004077 -0.006436 -1.288e-22)
(0.4976 0.001807 0)
(0.2857 -0.1511 0)
(1.002 -0.0001653 0)
(0.2228 -0.07717 -3.017e-23)
(0.1507 -0.143 -6.346e-23)
(0.1264 -0.1068 6.377e-22)
(0.1596 -0.1335 -5.145e-22)
(0.8218 -0.3648 1.007e-21)
(1.014 -0.4093 4.411e-22)
(0.1007 -0.08114 1.338e-22)
(0.9463 0.1165 0)
(0.1046 -0.0829 0)
(0.1459 -0.1348 4.429e-23)
(0.9942 0.001096 8.61e-22)
(0.1355 -0.1266 -7.455e-26)
(0.4026 -0.1897 9.625e-21)
(0.7359 -0.3406 5.322e-21)
(0.2729 -0.05759 -2.694e-22)
(0.08058 -0.06333 0)
(0.02241 0.02968 1.085e-22)
(1.172 -0.2994 6.467e-22)
(0.7135 -0.409 -2.252e-21)
(0.8358 -0.2196 -2.563e-21)
(0.1552 -0.06539 1.858e-22)
(0.3264 -0.1558 -5.341e-21)
(0.9997 0.002665 6.135e-20)
(0.9822 -0.02529 -1.573e-20)
(0.4163 -0.1931 5.714e-21)
(0.0357 -0.02036 6.996e-21)
(0.1361 -0.08641 3.914e-22)
(1.002 -0.02195 4.027e-21)
(1.021 -0.001296 -2.878e-20)
(0.153 -0.1317 1.352e-23)
(0.06482 -0.04401 8.603e-21)
(0.7302 -0.2873 -1.487e-22)
(0.606 -0.2292 4.424e-22)
(0.0115 -0.008538 2.218e-21)
(0.1344 -0.06847 -9.047e-21)
(0.7708 -0.398 -9.327e-22)
(0.1518 -0.1377 0)
(0.968 -0.01819 5.286e-21)
(0.4813 -0.1609 0)
(0.9755 0.000379 0)
(0.5035 -0.363 1.881e-21)
(0.05373 -0.03631 0)
(0.6041 -0.3462 0)
(0.124 -0.08712 -4.139e-21)
(0.995 -0.0004053 -5.15e-21)
(0.1513 -0.1366 -3.556e-24)
(0.9175 -0.386 -4.446e-22)
(0.1719 -0.113 1.86e-21)
(0.9389 -0.01514 -2.443e-21)
(0.8098 -0.4127 2.206e-21)
(0.8706 -0.405 0)
(1.014 0.0251 1.447e-21)
(0.6875 -0.3742 3.432e-21)
(0.1113 -0.09147 1.002e-22)
(0.09185 -0.1107 3.835e-21)
(0.08549 -0.05644 -1.233e-20)
(0.2272 -0.1271 0)
(1.039 0.05182 3.971e-21)
(0.1031 -0.04285 1.402e-22)
(0.1266 -0.08559 4.453e-23)
(1 -0.000279 0)
(0.5304 -0.2546 0)
(1.015 -0.01856 0)
(0.08053 -0.04961 2.372e-22)
(0.7923 -0.1941 3.055e-20)
(0.2793 -0.1481 8.668e-21)
(1.037 -0.02305 8.936e-21)
(0.1297 -0.1456 0)
(0.08664 -0.05829 4.099e-21)
(1.007 0.0002579 0)
(0.1568 -0.06036 -6.23e-24)
(0.01687 0.1565 -1.327e-21)
(0.0175 -0.01171 0)
(0.5483 -0.2326 9.219e-22)
(0.1083 -0.08133 -2.212e-21)
(0.9979 0.001587 -7.461e-20)
(0.06494 -0.04385 -3.898e-21)
(0.2561 -0.1411 4.73e-21)
(0.1312 -0.1391 9.207e-22)
(0.1007 -0.07465 5.512e-23)
(0.2847 -0.1391 -2.518e-22)
(1.001 0.001723 1.422e-20)
(0.05362 -0.05413 0)
(0.118 -0.09394 5.266e-22)
(1.056 -0.3753 0)
(0.1468 -0.1388 -5.882e-23)
(0.9989 -0.001407 0)
(0.9853 -0.0001686 0)
(0.1526 -0.1394 -1.737e-23)
(0.8282 -0.07017 4.093e-21)
(0.2985 -0.04156 -4.656e-21)
(1.079 -0.1299 -7.883e-22)
(0.05871 -0.04217 5.328e-21)
(1.002 -0.0001063 0)
(1.002 -6.333e-05 6.583e-21)
(0.08982 -0.06883 0)
(0.1228 -0.09174 -2.101e-24)
(0.4588 -0.1861 2.47e-21)
(0.4544 -0.3279 3.568e-21)
(0.1539 -0.1338 2.706e-23)
(0.1532 -0.1387 0)
(1.104 -0.3888 0)
(1 0.00137 5.339e-20)
(0.3865 -0.1863 3.883e-21)
(0.4529 -0.1789 0)
(0.1526 -0.1094 0)
(0.1154 -0.07611 -3.093e-21)
(0.902 -0.3723 4.552e-22)
(0.9788 -0.3613 1.925e-22)
(0.08368 -0.06925 0)
(0.9706 -0.389 1.347e-22)
(0.3287 -0.2554 -1.042e-20)
(0.06643 -0.05286 -8.011e-22)
(0.599 -0.2695 2.455e-21)
(0.1197 -0.09169 0)
(1.011 -0.003218 0)
(0.8441 0.2421 -1.46e-20)
(0.08559 -0.06402 -1.727e-21)
(0.3633 -0.3054 0)
(0.296 -0.155 0)
(0.8186 -0.3145 -1.277e-22)
(0.9459 -0.197 -1.182e-20)
(0.9859 -0.0179 -1.353e-20)
(0.5984 -0.1544 -3.252e-23)
(0.2046 -0.0823 -1.954e-22)
(0.4295 -0.1645 0)
(0.1483 -0.1429 0)
(0.8786 -0.3608 0)
(0.9955 0.00256 -7.548e-20)
(1.013 -0.0001905 6.623e-20)
(0.756 -0.3289 6.279e-24)
(0.004679 -0.009008 1.255e-22)
(0.01806 -0.01226 5.441e-21)
(0.1528 -0.1186 0)
(0.8975 -0.3783 -1.171e-21)
(0.3162 -0.1545 3.976e-21)
(0.3725 -0.1503 2.902e-21)
(0.1406 -0.09917 1.084e-21)
(0.9573 -0.006911 -2.085e-20)
(0.0773 -0.05227 0)
(0.9963 0.003071 4.279e-20)
(0.991 -9.729e-05 -1.005e-21)
(0.5367 -0.3658 0)
(0.8838 -0.3975 4.089e-22)
(0.1412 -0.0795 1.233e-20)
(1.019 0.001743 0)
(0.1534 -0.114 0)
(0.01336 -0.009142 5.094e-21)
(1.052 0.01239 1.539e-20)
(1.013 0.002206 0)
(0.06996 -0.06387 2.158e-20)
(0.1013 -0.07793 0)
(0.8038 -0.3486 0)
(0.9406 -0.2262 -4.297e-21)
(0.2109 -0.1175 4.502e-24)
(0.9677 0.01781 1.756e-20)
(0.7552 -0.3755 4.361e-21)
(0.1886 -0.08892 -2.252e-22)
(0.1261 -0.1076 0)
(1.041 0.0516 -8.273e-21)
(0.1805 -0.08268 -6.771e-21)
(0.1314 -0.07058 -5.616e-21)
(0.08332 0.1033 0)
(0.4256 -0.1251 0)
(0.5214 -0.2434 0)
(0.431 -0.3281 -1.516e-21)
(0.03693 -0.02315 -8.066e-21)
(1.019 0.00142 -1.182e-20)
(0.4731 -0.1544 1.686e-22)
(1.016 -0.1588 1.636e-20)
(0.7099 -0.4085 4.687e-21)
(0.812 -0.3324 0)
(0.6245 -0.2601 1.564e-22)
(0.6259 -0.2847 2.302e-21)
(0.4752 -0.2879 0)
(0.04497 -0.02359 -9.169e-21)
(1.077 -0.3911 0)
(1.021 0.0003462 0)
(0.06845 -0.04534 3.697e-21)
(0.1437 -0.09704 -4.215e-22)
(0.8832 -0.1262 0)
(0.6311 -0.3428 3.857e-21)
(0.9881 0.01261 4.511e-20)
(0.9831 0.01617 0)
(1.168 -0.2393 -6.093e-22)
(1.014 0.002206 0)
(1.053 -0.1816 -6.944e-23)
(0.8236 -0.3052 0)
(0.1763 -0.097 -3.767e-21)
(0.9969 -0.3455 -1.463e-21)
(0.1132 -0.0805 -1.302e-21)
(0.1536 -0.09789 0)
(0.3612 -0.1717 0)
(0.5845 -0.223 -4.405e-22)
(1.002 0.001578 7.728e-23)
(0.14 -0.1153 0)
(0.06245 -0.04257 0)
(0.2613 -0.1268 4.705e-23)
(0.3628 -0.1808 7.475e-21)
(0.07788 0.04512 0)
(0.8825 -0.4102 7.452e-22)
(0.1464 -0.1354 -3.786e-23)
(0.1589 -0.1062 0)
(0.1542 -0.09861 -5.5e-21)
(1.176 -0.2839 3.503e-22)
(0.5033 -0.3633 1.901e-21)
(0.8649 -0.1273 0)
(1 8.533e-06 3.691e-21)
(0.3845 -0.1852 -7.137e-21)
(0.1468 -0.1023 -1.93e-21)
(0.1681 -0.09733 0)
(0.1186 -0.07483 -9.432e-21)
(0.5181 -0.2149 -4.565e-21)
(0.1547 -0.1366 0)
(0.08972 -0.06633 0)
(0.0531 -0.02205 -1.132e-22)
(0.9803 0.02729 -2.565e-20)
(0.5436 -0.3168 2.528e-22)
(0.7481 -0.3706 -3.517e-21)
(1.017 -0.4028 0)
(0.1507 -0.1457 0)
(1.005 0.0128 0)
(0.8967 -0.4128 -4.075e-21)
(0.1545 -0.142 0)
(0.9985 -0.0005774 -2.688e-21)
(0.7285 -0.3733 1.778e-21)
(0.06567 -0.01724 3.293e-21)
(0.3385 0.06018 1.507e-22)
(0.6661 -0.1217 0)
(1.004 -0.0005506 -6.435e-20)
(0.6716 -0.3403 7.087e-21)
(0.9391 -0.4077 0)
(0.6462 -0.3889 -4.052e-21)
(0.7989 -0.3857 1.203e-22)
(0.7067 -0.4021 -2.588e-21)
(0.8282 -0.4028 2.347e-21)
(0.4231 -0.2622 1.165e-20)
(0.2975 -0.1591 0)
(0.7223 -0.3278 -5.664e-21)
(0.3205 -0.2509 -3.413e-21)
(0.8928 -0.4028 0)
(0.6392 -0.3799 -3.666e-21)
(1.078 -0.3911 1.193e-23)
(0.09869 -0.04729 0)
(0.1337 -0.1118 0)
(1.02 0.001249 0)
(0.722 0.9815 0)
(1.173 -0.2913 0)
(0.05717 -0.05637 0)
(1 -0.0001108 1.876e-21)
(0.3335 -0.2751 -3.421e-21)
(0.1515 -0.1335 -1.068e-23)
(0.7797 -0.3447 2.058e-21)
(0.1514 -0.1388 0)
(0.9999 0.001336 2.629e-22)
(0.1875 -0.1158 0)
(0.9353 -0.2314 0)
(0.1762 -0.1158 8.641e-22)
(0.01708 -0.01362 2.461e-21)
(0.1442 -0.1007 3.59e-21)
(0.9865 0.05535 -5.826e-21)
(0.1856 -0.1263 0)
(0.09188 -0.07022 -7.908e-22)
(0.6046 -0.2616 0)
(0.04371 -0.03284 0)
(0.9456 -0.4116 -1.396e-21)
(0.3587 -0.2589 0)
(0.06092 -0.04481 0)
(0.991 -0.03184 0)
(0.5858 -0.2456 0)
(0.0919 -0.06462 2.181e-21)
(0.7586 -0.003297 -9.205e-22)
(0.2747 -0.1459 -6.503e-21)
(0.2333 -0.1155 -8.124e-21)
(0.9263 -0.3954 0)
(0.05574 -0.05431 -8.172e-21)
(0.1462 -0.13 0)
(1.001 1.115e-06 1.807e-21)
(0.9762 -0.4045 -6.822e-22)
(1.165 -0.2264 0)
(0.7669 -0.3147 0)
(0.7404 -0.228 1.554e-22)
(1 0.001571 -2.048e-21)
(0.3431 -0.2189 5.969e-21)
(0.8997 -0.0413 0)
(0.3925 0.3083 0)
(1.1 -0.3898 0)
(0.9182 -0.3788 0)
(0.9888 0.001355 1.928e-20)
(0.06672 -0.05089 3.936e-21)
(0.05273 -0.03901 0)
(0.7808 -0.01928 0)
(0.991 0.0006215 0)
(0.9929 0.0002189 0)
(0.9988 0.00104 1.971e-21)
(0.007508 -0.009245 0)
(0.006083 -0.009351 0)
(0.02634 -0.01574 0)
(0.1013 -0.07545 0)
(0.08982 -0.05785 0)
(0.9376 -0.3575 7.001e-21)
(0.5609 -0.231 0)
(0.4712 -0.2073 6.604e-21)
(0.7797 -0.3832 -6.335e-21)
(0.7886 -0.3808 2.93e-22)
(0.07783 -0.09579 0)
(0.7529 -0.3588 -7.308e-21)
(0.9934 0.004295 0)
(1.078 -0.2284 2.314e-22)
(0.9877 0.04295 0)
(0.05492 -0.0389 -4.025e-21)
(0.4574 -0.1049 -7.769e-21)
(1.011 0.02739 -7.181e-21)
(0.8478 -0.01915 0)
(0.09007 -0.06357 7.682e-22)
(0.1126 -0.08032 1.319e-21)
(0.9956 -0.0003021 4.342e-21)
(0.1376 -0.09723 -3.837e-21)
(0.8064 -0.3486 5.781e-22)
(1.11 -0.02006 0)
(0.0983 -0.07973 -8.953e-23)
(0.05365 -0.02911 8.82e-21)
(0.2002 -0.118 0)
(0.6976 -0.1912 -3.908e-23)
(1.12 -0.3665 -4.217e-22)
(1.307 0.5471 -3.787e-21)
(0.1508 -0.1373 0)
(1.009 0.01118 -1.476e-20)
(0.204 -0.08522 -4.977e-23)
(0.9997 -0.02028 3.255e-21)
(0.4712 -0.2052 -6.387e-21)
(0.8204 -0.04097 -1.103e-21)
(0.1342 -0.1216 0)
(0.2092 -0.1327 0)
(1.015 0.006971 9.322e-22)
(1.049 -0.122 0)
(1.062 -0.1504 0)
(0.09023 -0.06314 1.014e-21)
(0.1445 -0.1209 3.144e-23)
(0.1355 -0.1248 -1.508e-21)
(0.5226 -0.2333 1.617e-21)
(0.1061 -0.1016 -7.923e-21)
(1.075 -0.1943 0)
(0.9885 -0.0001668 0)
(0.1465 -0.122 0)
(1.02 0.001571 8.601e-21)
(0.6848 -0.2325 -4.184e-22)
(0.136 -0.124 2.134e-22)
(0.04264 -0.02599 -7.319e-21)
(0.1462 -0.1218 1.072e-23)
(0.9165 0.03066 2.687e-20)
(0.08442 -0.06118 -2.589e-25)
(0.3253 -0.2845 -7.906e-21)
(0.8391 -0.4107 0)
(0.1695 -0.113 -3.141e-21)
(1.018 0.001833 1.9e-20)
(0.05021 -0.05251 5.906e-22)
(0.6953 -0.3247 -1.534e-20)
(0.5392 -0.2322 -5.64e-22)
(0.4597 -0.1359 2.438e-22)
(0.01933 -0.01426 2.499e-21)
(0.8742 -0.4057 0)
(0.6466 -0.3893 2.006e-21)
(0.9497 -0.406 4.459e-22)
(0.9166 -0.3585 -2.667e-23)
(0.426 -0.1916 8.591e-21)
(1.03 -0.1014 0)
(0.1222 -0.06571 1.262e-20)
(0.5288 -0.03228 1.139e-21)
(0.05615 -0.01856 -5.904e-21)
(0.2459 -0.09482 8.841e-23)
(0.103 -0.06102 -8.731e-21)
(0.1117 -0.08707 0)
(0.6349 -0.0054 0)
(0.986 -0.008697 0)
(1.037 -0.3793 -2.725e-24)
(0.02287 -0.01352 0)
(0.9862 0.04326 0)
(0.03926 0.0417 0)
(0.1361 -0.08672 -3.701e-22)
(1.001 0.001991 5.841e-21)
(1.002 0.002031 0)
(0.2292 -0.1326 3.547e-21)
(0.2524 -0.06446 -5.896e-22)
(0.7734 -0.3269 0)
(0.5527 -0.216 0)
(0.1261 -0.1075 0)
(0.5525 -0.3037 0)
(0.1514 -0.1363 2.935e-24)
(0.8609 -0.4041 0)
(0.9529 -0.02607 0)
(0.1435 -0.1234 1.006e-23)
(0.1145 -0.08638 -1.571e-21)
(0.9768 -0.009017 0)
(0.6672 -0.3767 -2.454e-21)
(0.1548 -0.1366 0)
(0.1211 -0.1017 2.573e-22)
(0.132 -0.1198 3.711e-23)
(0.08989 -0.06592 1.205e-23)
(0.01161 -0.008591 0)
(1.006 0.004719 1.496e-20)
(0.6981 -0.1801 -1.584e-20)
(0.7459 -0.4044 2.266e-21)
(0.3905 -0.1883 4.952e-21)
(1.003 -0.0001878 0)
(1 0.0003455 1.577e-20)
(0.5596 -0.264 4.022e-22)
(0.9709 -0.0066 -5.101e-20)
(0.1599 -0.119 -3.71e-22)
(0.4759 -0.1983 5.614e-22)
(0.519 -0.01572 -1.077e-20)
(1.109 -0.04145 -5.03e-21)
(0.9793 -0.05722 -2.073e-20)
(0.3731 -0.08053 -3.826e-23)
(0.895 -0.04623 -1.234e-20)
(0.9527 -0.3316 6.319e-21)
(0.2257 -0.1177 0)
(0.8007 -0.3739 -1.084e-21)
(1.027 -0.006921 1.368e-20)
(0.8802 -0.1138 4.097e-20)
(0.1518 -0.1561 -2.779e-21)
(1.036 -0.04334 0)
(0.1376 -0.1002 1.574e-21)
(1.025 -0.00673 6.287e-21)
(0.01362 -0.01046 -4.317e-21)
(1.026 -0.06939 0)
(0.9844 0.05467 0)
(1.005 0.0126 -2.032e-20)
(0.4068 -0.1912 6.331e-21)
(0.07088 -0.06563 6.212e-21)
(0.1206 -0.07605 1.581e-20)
(0.1287 -0.08505 -3.963e-21)
(0.149 -0.1323 -2.459e-23)
(1.153 -0.2962 8.56e-23)
(0.9929 -0.03779 0)
(0.6413 -0.3162 0)
(0.04593 -0.05824 -9.885e-21)
(0.3633 -0.2259 0)
(1.002 -0.0001855 0)
(0.2722 -0.1406 -1.867e-21)
(0.1883 -0.1199 3.421e-24)
(0.1363 -0.1115 0)
(0.1164 -0.08454 0)
(0.539 -0.3636 0)
(0.1362 -0.1229 2.941e-22)
(1.009 -0.01468 0)
(0.0004338 0.0008327 0)
(1.028 -0.3956 0)
(0.4268 -0.1752 0)
(0.8409 -0.06825 1.399e-20)
(0.2204 -0.1248 3.262e-21)
(1.326 0.2374 4.986e-21)
(0.1466 -0.1345 6.089e-23)
(0.5241 -0.2309 0)
(0.5585 0.05152 -3.616e-20)
(0.06239 -0.04945 0)
(0.8229 -0.3401 0)
(0.7366 -0.3453 2.027e-21)
(0.4537 -0.3227 0)
(0.5106 -0.213 0)
(0.9922 0.04362 0)
(0.7183 -0.1529 5.981e-21)
(0.7218 -0.4098 0)
(0.05352 -0.02153 5.154e-24)
(0.1415 -0.133 -6.987e-21)
(0.9942 -0.0222 2.617e-20)
(1.002 -0.0001383 -3.657e-21)
(0.4124 -0.3147 -3.384e-21)
(1.003 -0.0003107 0)
(1.023 -0.1925 -8.552e-24)
(0.3483 -0.2442 0)
(0.1062 -0.0817 -7.349e-22)
(0.09159 -0.06059 -8.853e-21)
(0.1498 -0.1268 1.295e-23)
(1.003 0.002425 -9.633e-21)
(0.3872 -0.08908 -5.692e-21)
(0.9907 0.006603 0)
(0.06445 -0.04526 -2.128e-21)
(0.0991 -0.07254 -5.915e-23)
(0.1216 -0.09983 0)
(0.1063 -0.07098 6.71e-25)
(0.6185 -0.3936 -3.575e-22)
(0.5567 -0.3703 0)
(0.08422 -0.05956 -6.293e-22)
(0.01351 -0.009527 7.145e-21)
(0.5057 -0.2205 0)
(0.2836 -0.2158 -1.228e-20)
(1.107 -0.1923 1.041e-21)
(0.6504 -0.3988 -2.859e-21)
(0.6739 -0.2799 2.642e-22)
(0.3053 -0.1153 6.598e-22)
(0.1854 -0.1147 0)
(0.1356 -0.1117 0)
(0.1899 -0.1181 -2.774e-21)
(1.02 0.05321 0)
(0.1524 -0.1367 -1.666e-23)
(0.9991 -0.06523 4.167e-21)
(0.9586 -0.09204 -3.049e-21)
(0.9989 -0.00319 2.423e-21)
(0.9538 -0.3985 -5.121e-22)
(0.1229 -0.08212 -1.001e-24)
(0.1036 0.00625 3.623e-23)
(0.5469 -0.3675 4.067e-22)
(0.1887 -0.1185 2.191e-21)
(0.2419 -0.1467 0)
(0.5403 -0.1908 -5.703e-21)
(0.571 -0.3712 0)
(0.5158 -0.1627 0)
(0.6333 -0.3589 0)
(1.055 0.06442 2.962e-21)
(1.169 -0.2602 0)
(0.4077 -0.3221 -6.481e-21)
(0.9756 0.09058 -8.313e-21)
(1.009 -0.006971 7.812e-20)
(0.3692 -0.1941 7.224e-21)
(0.2795 -0.08792 6.979e-21)
(1.01 0.0002479 7.029e-21)
(0.8294 -0.06101 5.024e-21)
(0.1095 -0.09018 1.418e-22)
(0.1179 -0.09286 0)
(0.9396 -0.0456 6.901e-22)
(0.04302 -0.03453 4.52e-22)
(0.02165 -0.0134 -4.423e-21)
(0.9901 0.0006677 -9.693e-22)
(0.1338 0.03419 4.793e-23)
(1.001 0.01615 0)
(0.1338 -0.06126 -1.509e-21)
(0.6801 -0.4041 -1.38e-21)
(0.08783 -0.06695 1.71e-21)
(0.7116 -0.2263 -5.903e-23)
(0.7625 -0.1405 0)
(1.062 -0.1668 -4.205e-22)
(0.3823 -0.1641 -1.745e-21)
(0.7046 -0.3611 0)
(0.1473 -0.1449 2.21e-22)
(0.866 -0.3385 0)
(0.1484 -0.1209 2.012e-21)
(0.04566 -0.03524 0)
(0.0464 -0.03327 3.717e-21)
(0.8043 -0.3878 -3.468e-21)
(1.001 -9.241e-06 -8.607e-21)
(0.934 -0.04307 0)
(1.002 -0.0008743 4.273e-21)
(0.8871 -0.3006 2.587e-22)
(1.117 -0.1729 -3.359e-22)
(1.022 -0.003713 -9.124e-22)
(0.1512 -0.1333 -1.125e-23)
(0.07283 -0.04683 -1.534e-21)
(0.4622 -0.1892 3.78e-21)
(0.7848 -0.1967 0)
(-0.06225 0.3574 -2.712e-21)
(0.991 -0.0004857 0)
(1.004 0.01705 0)
(0.1383 -0.1107 2.081e-21)
(-0.04224 0.109 0)
(0.5994 -0.3628 -7.387e-21)
(1.062 -0.3667 -1.747e-22)
(0.2118 -0.1424 -1.729e-21)
(0.7129 -0.2958 -7.697e-22)
(1.02 0.001369 -1.531e-20)
(0.6804 -0.4047 -1.404e-21)
(0.5611 -0.2617 -6.669e-21)
(0.0005626 0.0007766 -3.957e-24)
(0.1138 -0.07705 2.421e-21)
(0.0449 -0.03296 3.571e-21)
(0.4676 -0.1992 0)
(0.8857 -0.412 9.776e-22)
(0.8546 -0.3975 -4.496e-21)
(0.0184 -0.01142 2.866e-21)
(0.1151 -0.07124 -4.527e-21)
(0.9028 -0.1654 4.355e-21)
(0.749 -0.3576 6.444e-21)
(0.9994 -0.0001641 -2.794e-21)
(0.8349 -0.3862 -4.108e-22)
(0.7378 -0.2277 1.37e-21)