/*--------------------------------*- C++ -*----------------------------------*\
  =========                 |
  \\      /  F ield         | OpenFOAM: The Open Source CFD Toolbox
   \\    /   O peration     | Website:  https://openfoam.org
    \\  /    A nd           | Version:  8
     \\/     M anipulation  |
\*---------------------------------------------------------------------------*/
FoamFile
{
    version     2.0;
    format      ascii;
    class       volScalarField;
    location    "10";
    object      k;
}
// * * * * * * * * * * * * * * * * * * * * * * * * * * * * * * * * * * * * * //

dimensions      [0 2 -2 0 0 0 0];

internalField   nonuniform List<scalar> 
127143
(
3.155e-13
7.18e-13
1.254e-11
6.457e-11
2.808e-11
6.842e-11
1.138e-09
1.86e-10
9.324e-11
1.697e-09
2.132e-09
2.934e-10
9.553e-11
1.121e-10
0.0001848
6.025e-09
4.801e-11
0.06272
0.03436
5.209e-08
0.015
1.939e-06
0.0001545
3.618e-05
1.748e-06
1.857e-06
2.367e-06
2.922e-06
1.384e-06
0.04625
3.101e-05
1.952e-06
2.693e-07
7.826e-05
0.0001514
2.591e-07
0.00877
0.06876
4.83e-05
2.334e-06
0.03451
0.0001539
0.0001534
7.172e-10
0.06164
8.814e-05
1.252e-06
0.01508
2.515e-05
5.196e-05
1.399e-08
0.0001499
0.02227
0.0001552
0.0001396
1.641e-05
0.0001395
0.0001685
0.0001477
0.0001551
0.0001536
0.02251
5.61e-05
0.0001482
0.00043
0.0001588
0.0001517
5.818e-05
5.802e-05
0.0001984
3.614e-05
4.776e-06
0.03009
0.0001476
0.0001459
5.852e-06
0.000148
0.006551
1.627e-05
0.000149
1.235e-06
5.445e-08
0.0005015
4.795e-06
0.02419
0.008
4.771e-05
1.496e-06
0.0001577
0.0001276
0.0001469
0.00125
0.0001903
0.0152
0.008005
0.0001729
0.0001538
1.446e-05
0.009217
0.0001516
0.0001489
2.637e-05
4.84e-05
0.00015
0.008386
0.008886
4.416e-05
0.0001991
0.0001638
0.0001424
0.000208
1.258e-06
0.01218
0.0001625
0.0001457
0.0001705
0.000148
0.0001459
0.0001479
1.305e-07
0.0001425
0.000611
0.000156
0.0001625
1.426e-06
6.534e-07
0.01662
0.0001492
0.009611
1.452e-05
0.004754
0.006018
5.594e-05
0.006736
1.566e-09
0.004993
0.0001562
0.02035
3.926e-06
0.000154
0.000155
0.0001472
0.03568
0.03693
0.02302
0.0001999
5.928e-06
0.0001483
0.005604
2.666e-05
0.0001216
3.088e-05
0.05969
0.0001523
0.0002381
0.02431
0.0001686
1.479e-05
0.01534
7.974e-06
4.942e-05
8.604e-09
0.000147
0.004756
2.951e-06
0.0006229
0.006146
0.0001563
1.531e-05
0.0001493
0.001816
0.03658
0.0001699
0.0001604
0.0005514
0.01871
0.0001961
0.009713
3.842e-05
0.0001565
0.0001607
0.0001544
0.01847
0.01882
1.508e-05
0.02318
0.0001519
0.0001629
4.013e-05
0.0001555
0.01638
0.008586
0.0001557
0.0002309
8.153e-10
0.02004
0.0001293
0.0001284
5.24e-09
0.0001459
0.0001455
0.0001495
0.001733
0.009469
5.026e-10
6.983e-05
0.0001535
0.0001246
0.03432
0.0001457
0.0001662
0.0231
0.000145
1.746e-05
0.002776
2.276e-09
0.0002339
0.0001301
0.008213
0.0001536
0.0001884
0.0001462
3.072e-05
0.02592
7.793e-06
0.001267
6.251e-06
0.06791
0.00366
0.01229
0.01457
0.0001543
0.03077
1.504e-06
0.01471
0.0001576
0.004755
8.469e-12
0.0001454
0.0211
0.009094
0.0009186
0.01905
1.475e-05
0.05993
1.544e-07
4.121e-05
2.788e-06
9.605e-08
0.0002413
0.0001663
2.178e-06
0.000133
0.02327
2.371e-05
0.0001652
0.0001492
3.554e-05
0.0001745
0.0001512
0.02196
0.0001515
0.0006623
0.0001471
0.03615
0.0006598
0.0008551
0.0002363
0.0001559
0.003906
4.709e-06
0.0005448
0.01827
0.02069
5.394e-05
0.01705
0.01241
3.115e-05
0.001005
0.0001785
0.0002065
0.0001936
0.0001504
0.0001456
0.0001456
7.267e-10
0.005382
0.0001457
3.061e-05
0.000157
0.05754
0.0001581
0.0001575
0.0001695
0.0001455
0.0001739
2.713e-05
0.00977
0.01899
0.003002
9.495e-06
0.0001596
0.0001554
0.0001705
6.212e-06
0.0002125
0.0001248
0.0001451
0.05018
8.515e-05
4.14e-05
0.003641
1.185e-05
0.0001848
0.0001455
0.0001266
0.06511
9.961e-06
0.0001599
0.004414
0.0001543
3.864e-05
0.0001518
0.0001326
0.0001206
0.05821
0.0001506
0.01098
4.333e-05
0.0001854
0.01716
0.0001456
0.0001514
0.0001294
0.0001285
0.0001523
0.000164
0.0001699
0.01717
0.004716
0.000154
0.0001298
0.02749
0.01783
0.0001688
3.052e-05
0.001625
0.01148
1.028e-05
0.00665
1.397e-05
0.03886
0.01768
0.01729
0.0001498
0.00189
0.02281
0.0001951
0.0001491
4.247e-05
0.02119
5.392e-05
0.04251
6.018e-05
5.133e-05
0.0001468
0.0001459
0.003066
0.0008048
0.001025
0.0001558
0.0001519
4.178e-06
5.502e-05
0.0001548
0.0001542
2.479e-05
5.868e-06
0.00988
0.001035
0.0556
8.685e-07
1.513e-05
0.0001594
0.0001479
1.256e-07
0.0001507
2.898e-06
0.01928
0.07043
0.0001465
0.000154
0.002741
2.657e-05
4.021e-05
2.761e-05
0.000154
3.992e-05
0.0001497
0.0001512
3.71e-06
0.0001462
0.01778
0.01877
0.0001507
0.0001064
0.009077
5.768e-05
0.000149
4.204e-05
0.0001944
9.441e-06
0.0001551
0.01548
0.0001707
0.008318
0.009545
4.392e-06
0.0512
6.812e-05
0.006492
9.777e-06
0.002291
0.0002072
0.01195
0.0001514
0.0001532
0.0001534
0.001191
0.0001536
0.0001413
0.002161
0.01682
0.000788
0.02988
0.0001468
0.000109
0.002356
0.0001497
0.0001454
0.0001454
5.615e-05
0.0001563
0.0001673
0.0001485
1.545e-05
0.0001456
0.0001801
0.003276
0.0231
0.01271
1.875e-05
0.0001147
0.0006835
0.0001506
0.01162
8.232e-06
0.001582
0.01117
0.02144
6.139e-05
0.01895
0.05201
0.0001568
0.01765
0.0004329
0.0001466
0.02249
0.0009549
0.0001386
0.01122
0.0003672
0.0001626
0.0667
0.0001533
0.0001348
0.000234
0.0002806
0.001647
0.04092
1.744e-06
0.0001965
0.004465
1.224e-05
0.0001879
0.02957
0.05195
0.0001449
1.297e-05
0.0001472
0.0001774
4.876e-05
0.01904
0.0001978
4.836e-09
0.003871
0.0001572
0.0001603
0.000159
0.000145
1.455e-06
0.0001467
0.01718
0.02104
2.623e-11
7.312e-09
9.568e-08
0.000147
0.001976
0.01128
0.0001455
0.02137
0.0001331
0.004188
0.000154
0.01236
1.867e-05
0.01133
2.357e-05
0.0003798
0.02206
4.5e-07
5.355e-05
1.171e-05
0.002427
0.0001473
0.0001256
0.00102
0.0551
0.000146
1.074e-05
9.187e-06
0.002351
0.0001305
0.02222
0.0001572
0.001035
0.0001922
8.78e-06
0.05443
0.0001473
0.003387
0.0001871
0.0001388
0.0001595
0.04038
3.239e-05
6.05e-05
0.0008578
0.0002091
0.01989
0.01825
8.536e-05
0.005344
0.002327
0.0001467
4.078e-06
0.00656
7.328e-06
5.296e-05
0.01848
0.0001483
0.0001479
0.0001511
0.001558
0.0001622
0.0001455
0.0001393
0.0001792
2.996e-05
0.00938
0.0001879
0.0002446
6.397e-06
0.0001737
0.0001474
0.0001426
0.001837
0.01059
8.973e-05
0.0001552
5.89e-06
6.169e-05
0.00362
0.001019
3.654e-06
0.0001455
0.009567
0.01929
0.06856
0.0001326
0.001071
0.02213
9.673e-08
0.0001346
4.584e-05
0.0002606
0.0001453
0.0001067
0.0001457
6.854e-05
0.05238
0.0001456
0.0007449
1.982e-05
0.004447
0.01217
0.04172
1.458e-05
1.559e-05
0.0002007
5.072e-05
0.0002104
6.616e-05
0.01583
0.02454
7.794e-06
0.0001478
1.493e-05
0.0001455
0.0001631
0.0001492
0.03723
0.0001413
0.0001457
0.0001693
6.936e-05
0.01186
0.0001383
0.0001412
0.00429
2.945e-06
0.0009233
1.498e-05
0.02551
0.0001667
0.01266
0.0001951
0.01829
0.001317
0.0003261
0.0001384
0.002956
0.02053
0.0001665
0.004925
0.0001471
0.0001391
0.06067
5.705e-06
0.05202
2.035e-05
0.0001492
0.0001402
0.003281
0.002726
0.0001494
0.0005789
0.000157
0.000166
0.0005539
0.0001729
0.02128
0.0001529
1.207e-09
0.001582
0.01136
0.01152
0.005512
0.008372
4.68e-06
0.003883
0.0001492
0.01124
0.01225
0.0183
0.0001417
3.198e-05
0.0001565
0.0001527
0.0001304
0.0001415
3.077e-06
0.0001604
1.762e-05
0.00922
0.0001824
0.05004
0.0001611
1.116e-05
0.0001519
2.674e-05
0.0001448
0.0001393
0.0001685
0.0001514
0.001
0.0001527
7.516e-06
0.02471
4.16e-05
0.0001612
0.03843
0.0001384
2.093e-05
0.0001534
2.112e-05
1.527e-09
7.933e-05
0.03987
0.01031
0.0001339
4.734e-05
4.772e-05
1.152e-05
0.04918
0.04013
0.01841
3.353e-05
0.009387
8.707e-05
0.02967
3.055e-05
4.531e-05
8.578e-05
0.01707
0.0001602
6.212e-13
0.0001564
0.0001493
5.799e-05
0.0001588
4.624e-05
0.0001441
0.01631
0.03973
0.009561
0.000143
1.672e-05
0.00255
3.894e-06
0.0001535
0.003366
0.01434
0.003257
0.006372
0.0001457
0.01119
0.003872
0.0006371
0.02272
0.000146
0.02789
0.000257
0.0001463
0.0001267
0.0001681
0.008979
0.003929
0.0001587
7.924e-05
1.69e-06
0.001179
0.0001279
0.01113
0.0234
3.01e-06
1.015e-05
0.0001558
0.02171
0.0002507
0.0001284
0.004434
0.0005837
0.0406
2.886e-06
0.04175
0.00254
0.01571
0.02047
0.0001745
0.0001469
4.995e-10
0.005572
0.01299
0.000518
0.01187
0.002994
0.002544
4.491e-05
0.0001424
0.04197
0.0001513
0.0001405
0.00188
0.0001776
4.328e-05
0.0001521
0.0001364
0.01316
0.01812
0.0001448
0.000136
0.005053
0.02204
0.02547
0.003715
0.009895
1.772e-08
0.0001401
0.0001532
0.0001418
0.006719
0.007457
3.443e-05
8.722e-06
0.0001558
0.0001856
0.000147
0.002777
3.679e-06
0.0001419
0.0001606
1.426e-05
4.926e-05
1.335e-06
0.0001469
0.02171
4.631e-05
0.0001459
1.031e-05
0.0001416
0.0001628
1.471e-05
0.005479
0.05937
1.149e-06
0.0001465
0.0007809
0.000153
1.145e-05
0.009057
5.456e-06
3.351e-05
0.0001557
0.0001662
0.0001617
1.607e-08
0.0001458
0.05837
2.103e-05
8.023e-05
0.01201
2.056e-07
0.000182
0.0001707
0.001806
1.623e-06
1.334e-06
0.002759
5.895e-09
0.0003586
7.334e-09
0.005658
0.0006263
0.04302
2.545e-07
0.0001479
3.906e-05
0.0001323
0.0001313
0.03015
0.0001501
0.01101
0.03791
0.0001615
0.0001675
0.0001557
0.0001031
5.642e-05
0.0001465
0.05797
0.006793
0.0001556
0.0007452
3.418e-07
0.01886
0.0001433
0.0001999
0.04729
0.002495
0.0001451
0.01965
2.153e-05
0.0001488
0.0009218
0.006417
0.02433
0.0001379
0.005518
0.06042
5.69e-09
0.0001793
3.089e-07
0.0124
0.0001935
6.526e-05
0.0001577
0.001877
0.0001295
5.137e-06
0.0001539
0.0001303
0.000172
1.465e-06
0.06269
0.0004786
0.0001092
0.0001676
6.449e-05
3.512e-09
3.283e-05
0.0001474
0.0001461
0.0001374
0.0001811
0.003719
0.00102
0.0001825
5.167e-06
0.007419
0.0001528
4.76e-06
0.0001542
2.299e-05
0.0001445
0.01376
0.002355
0.02895
0.002595
0.01034
0.0001457
0.0001461
0.000721
0.0001554
0.006693
2.756e-05
0.002174
0.02107
0.05862
0.00657
0.003275
2.236e-08
0.02491
2.27e-05
0.0004804
0.0001122
0.01961
0.0002317
0.003052
0.001236
4.719e-06
0.009945
0.0001441
0.000143
0.01236
0.01502
0.0001681
0.0001396
0.0001968
0.01257
0.00017
0.002083
0.06185
0.0008391
0.0001574
0.000149
0.0001607
0.000172
8.484e-07
6.422e-06
0.01517
0.0001544
0.05641
0.001117
3.858e-05
6.305e-05
0.0255
0.0001887
4.222e-05
0.006344
4.019e-06
0.0001493
3.362e-06
0.0001462
0.02382
0.01316
0.0001724
0.0001457
1.443e-06
2.631e-08
0.000136
0.0001441
0.01654
0.01288
7.269e-07
0.01099
3.957e-05
3.631e-05
0.0006535
0.0001622
0.0001663
0.0001478
0.0004734
0.02453
0.001303
0.0001732
0.0006533
0.007958
0.0001487
3.104e-08
0.01126
0.0001453
0.004746
0.0001405
0.0001448
9.26e-05
0.000155
1.176e-06
0.0001443
1.139e-05
0.000146
0.0001705
0.0001547
0.05723
0.0001363
1.332e-05
1.873e-05
0.0004572
5.502e-05
0.0001938
0.0001553
0.03026
3.195e-05
0.003179
0.0007066
7.122e-07
0.0004009
2.95e-07
0.0112
2.496e-05
0.0005877
2.625e-05
1.556e-06
0.000152
0.04596
0.0001656
0.002089
0.01466
4.619e-06
0.0001722
0.0001043
0.01686
4.973e-05
7.622e-05
0.01528
0.0001688
0.0004643
0.03061
4.976e-05
0.009261
1.211e-05
0.008814
0.0001371
7.027e-05
0.002119
0.0001462
0.00387
0.0006875
0.0001382
0.0001734
0.01063
0.000154
0.000152
0.05601
0.01319
0.0001583
0.0001321
0.003389
0.001984
0.0001451
0.0001518
0.0001507
0.01243
0.001937
0.000148
0.0001551
0.002612
5.944e-06
1.484e-05
2.422e-05
0.01341
2.404e-07
0.000191
4.591e-05
0.0001457
0.006727
0.0001881
0.006514
7.551e-05
0.003258
5.209e-05
0.0001471
1.186e-07
0.000124
0.0002773
5.083e-05
4.522e-05
0.02532
0.0508
5.67e-06
4.562e-05
0.0001504
2.529e-10
0.01325
5.258e-05
8.345e-06
3.169e-05
0.0001904
0.01391
9.016e-05
4.581e-05
0.003522
0.0581
1.912e-05
2.971e-05
0.06523
2.908e-07
0.0001591
4.814e-05
0.0001571
1.153e-05
0.0001311
0.0001448
0.06273
1.478e-07
0.012
0.001701
1.608e-06
0.0009299
0.0001459
2.461e-06
4.002e-05
0.06041
2.301e-06
0.0001746
0.008611
3.868e-09
0.05851
2.11e-05
0.01417
4.45e-05
4.57e-05
2.164e-05
7.266e-06
0.0001891
0.003987
0.0001584
0.0298
0.003931
0.003011
0.0001693
6.49e-05
0.02408
0.0001007
0.01842
0.0001621
0.02329
0.0001537
0.0001598
0.0001327
2.752e-07
0.0001509
8.209e-06
8.969e-05
0.005848
0.004887
0.0001459
0.01755
0.01373
0.0001641
8.877e-05
8.809e-06
6.33e-06
0.0001427
1.887e-05
0.002047
0.01256
3.962e-08
0.02408
0.04031
0.001686
0.0001465
0.001538
0.004927
7.063e-07
0.006307
0.000161
0.01818
0.0001456
4.546e-08
7.039e-08
0.00946
0.0001662
0.0001729
0.0001353
0.0001316
0.006572
0.02176
0.03011
0.0001543
0.0001497
0.0001511
0.0001593
0.008731
0.04521
0.002779
2.973e-05
3.071e-08
0.0001659
4.327e-06
0.009409
0.001388
0.0001319
3.184e-05
0.01459
8.831e-05
1.831e-08
0.03829
0.02697
0.003196
5.386e-05
0.01771
3.667e-08
0.05237
0.00851
0.02277
0.02836
0.0001426
2.797e-05
1.665e-08
0.0001555
0.004068
0.0001414
3.926e-05
9.792e-05
0.0001355
0.0001207
8.506e-05
0.006167
1.731e-05
0.0001429
0.0001638
2.114e-09
0.0001458
6.039e-05
0.0004419
5.041e-05
8.278e-06
0.0001672
0.0001483
0.004299
2.802e-06
0.004215
0.006051
0.0001511
6.965e-05
4.167e-05
2.527e-05
0.003798
0.004659
0.0001452
0.007403
0.03952
1.159e-05
0.0002363
0.02321
0.004136
0.0001455
0.000167
0.001743
0.0001459
0.02476
0.0001374
2.529e-05
0.02497
2.167e-07
0.003633
0.03056
7.351e-05
0.01282
5.962e-05
2.63e-05
3.976e-09
0.005766
0.002127
0.03924
0.01611
0.01843
0.0001482
0.01523
0.0001468
0.015
0.0001474
0.02455
0.0001435
0.00343
0.008138
0.0001381
0.0001446
0.009607
0.0001579
0.0002341
0.0001548
0.0001343
0.0001869
0.009575
0.0001502
5.985e-08
2.533e-05
1.242e-06
3.334e-05
5.757e-05
2.707e-05
3.285e-05
0.01723
0.0002038
1.629e-06
0.02169
0.0002
0.0009498
0.01416
0.02565
0.03342
0.0001441
4.203e-09
0.007593
3.005e-06
0.0001458
2.198e-08
7.33e-05
2.298e-05
0.01007
0.000131
0.0001309
0.00364
0.04778
0.01255
0.01889
4.685e-05
0.0001683
0.0001567
0.004995
0.0001584
5.293e-06
0.0001521
0.0002048
0.01119
0.0001416
0.000465
0.0004444
5.652e-05
2.291e-05
0.01087
0.0001465
0.01503
0.01268
2.452e-07
0.02703
0.0001541
8.502e-05
0.002691
4.138e-05
0.01723
0.0002223
0.03703
0.0001455
0.01587
0.0001594
1.839e-08
5.955e-06
0.0001682
0.005702
0.0001347
0.0001583
0.0001305
0.0001681
0.001201
8.004e-09
0.000152
4.203e-07
0.01023
0.000144
0.003955
0.001308
0.02128
0.0001522
0.02237
0.004028
5.391e-05
0.01365
0.03429
2.14e-05
0.0001526
0.000127
0.0002397
1.55e-05
0.0001724
0.0001719
2.434e-05
0.0001777
1.326e-08
0.0002046
9.991e-06
1.343e-05
5.155e-09
0.003043
0.002862
0.0001495
0.0001459
0.0001438
0.01734
0.0001428
5.654e-08
0.0001454
3.669e-06
0.0001579
0.0002016
0.0005748
2.319e-05
0.0002206
5.802e-06
0.0001601
0.0002628
0.01154
1.703e-05
0.0001453
0.006551
0.0004246
0.01249
0.0007061
0.002563
0.00772
0.0001591
0.0001469
0.0001542
0.0001372
5.219e-05
0.0001758
0.0001331
0.0001592
0.0002322
0.0001372
3.436e-06
0.0001462
0.02382
0.04884
0.01889
0.0002345
0.0001393
0.01206
0.000731
0.01461
0.0001519
0.0001201
0.000155
0.0001455
0.0001418
0.01677
3.385e-08
0.0001507
4.146e-05
0.0001498
2.221e-06
0.0001635
0.0001533
0.0001666
0.0001699
0.002103
2.357e-05
0.0001505
7.604e-05
0.0001471
0.01602
0.0001486
0.0001527
9.692e-05
0.01855
0.0001591
8.669e-06
0.00284
0.0001416
0.04077
3.009e-06
0.0009712
2.894e-08
4.814e-06
0.03299
0.0001534
0.0001768
4.718e-06
0.02991
8.748e-05
6.236e-05
0.0001953
0.0001555
0.0001445
0.008457
3.524e-05
0.01863
0.0001459
0.003453
0.0001456
0.0001631
0.002093
0.0001432
0.03526
0.0001717
0.0001932
0.01932
0.001792
2.96e-05
0.0001467
2.503e-05
5.591e-06
0.0001678
0.03309
3.277e-05
0.0001584
0.06083
0.01794
2.662e-05
0.0001658
0.01523
1.093e-05
0.0123
0.005277
1.467e-05
0.000158
0.0001546
0.0001403
0.0001522
2.911e-05
0.01127
0.0001519
4.481e-05
0.0001486
0.0006504
0.0007252
0.06074
0.04726
0.004418
2.756e-08
0.007511
1.841e-07
0.0001691
0.0001377
1.906e-07
3.865e-05
0.0001576
2.294e-05
0.0001513
0.04327
0.0001491
0.0242
5.203e-07
0.01706
0.0001899
6.331e-05
3.682e-05
0.0001464
4.788e-05
0.0001538
0.0001856
0.0001028
0.0001496
5.365e-05
2.743e-06
0.0001444
0.0001492
0.01686
0.0001862
0.0263
0.0001751
0.0001731
0.0002013
0.0001684
0.02216
0.0002136
0.0002126
0.01266
0.0001372
0.0001543
2.923e-05
7.175e-07
0.00014
0.001976
6.474e-07
0.04717
0.0008346
0.02092
4.694e-05
6.724e-07
0.0001651
0.0002546
0.01484
0.0001513
0.000797
0.0001947
0.01922
2.273e-06
0.00544
0.0001493
0.003466
1.441e-09
1.572e-08
0.01416
0.01413
0.004486
0.000169
0.01843
0.0001084
0.02041
0.0002196
0.007514
0.01076
9.835e-05
1.908e-06
0.009164
0.0001662
0.0001454
0.0001801
0.0001638
0.007324
0.000153
0.0001515
4.216e-05
0.01424
0.04005
0.000136
2.064e-05
5.066e-06
0.061
0.002073
0.01331
2.133e-08
2.699e-05
0.0001496
0.002786
8.844e-05
0.01644
3.967e-05
1.362e-08
0.0001282
1.956e-06
0.0001683
3.866e-05
0.0001336
0.01387
0.02004
1.208e-05
0.003413
0.02388
5.775e-06
0.0001541
0.0001664
3.069e-05
0.0001536
0.02429
0.0001456
2.235e-05
1.304e-05
5.756e-05
1.031e-05
9.065e-06
0.01603
1.206e-07
0.0002491
0.0002184
0.0001838
0.02585
0.0001516
0.04142
6.202e-05
0.0194
5.211e-05
0.0001881
5.503e-05
3.936e-09
2.144e-07
0.008146
0.02819
0.0001631
0.0001594
0.0001463
0.0001492
0.01243
0.0001635
0.0001454
4.501e-05
5.139e-05
3.178e-05
0.008051
0.0001485
4.76e-05
0.05698
0.0001451
3.119e-07
1.486e-05
0.0001567
4.559e-05
5.272e-09
0.01854
0.0004419
0.05062
0.0001111
0.0002936
3.005e-10
0.0001095
9.952e-05
0.0001462
0.0001566
3.762e-05
0.007677
0.0001456
0.0001471
0.01447
5.249e-06
0.02354
4.344e-05
1.477e-07
0.0001743
0.0001492
7.11e-06
0.02523
0.008642
1.376e-06
0.0001761
0.02099
0.02321
0.005176
0.0001691
0.009731
0.0001465
0.001633
0.02922
5.366e-06
0.04354
2.948e-05
3.555e-05
0.0001732
7.35e-06
0.06302
0.0002331
5.384e-05
0.0006851
0.0001518
0.01731
0.005622
0.007588
0.001049
0.00877
4.442e-05
0.00054
0.0001453
0.009633
0.0512
7.786e-06
6.052e-05
0.0005303
0.04388
0.0001543
7.425e-05
0.0001574
0.007169
0.02037
0.01366
0.02457
0.02864
0.0001658
4.983e-07
0.0001624
0.0001491
0.0003194
0.0001395
0.01891
0.0001502
0.0001691
0.01914
0.0001439
0.0001644
6.017e-05
0.0009073
0.0001457
0.0001487
0.02551
8.442e-05
0.002715
0.0002024
0.0442
0.01538
1.118e-05
2.377e-05
0.0501
0.000316
0.06108
0.0001593
4.595e-05
6.56e-08
0.02312
2.49e-05
3.334e-05
0.02094
2.999e-08
0.0001455
0.0001373
0.0001634
0.0001541
1.039e-08
0.0001459
0.03552
0.0002362
3.089e-08
0.0004497
1.285e-05
0.0001246
0.0001242
2.637e-05
0.008483
0.01709
0.0002313
0.0001503
0.06695
0.0001661
0.000149
7.805e-06
4.463e-05
4.529e-05
0.01893
1.486e-06
0.001183
0.0001764
0.0001322
0.0001187
5.202e-05
7.646e-06
2.461e-05
0.006372
3.53e-06
0.003616
0.01428
6.216e-05
0.002162
0.005782
0.0001547
0.000141
2.629e-05
0.0001327
0.0001311
0.0007827
0.006669
5.985e-07
0.0001626
3.555e-05
0.007442
0.0003345
0.0001455
0.0001846
0.0001482
0.01097
9.696e-08
0.0001857
0.000157
8.796e-05
0.000153
2.729e-06
9.99e-05
0.0001865
0.0001089
0.0001314
4.175e-05
0.01871
0.000136
0.004781
0.01411
0.0153
0.00714
9.479e-05
0.01562
9.057e-06
4.93e-05
0.007979
0.01254
1.928e-05
0.01103
0.003304
0.0004591
0.0001574
0.0001639
0.0001254
1.144e-07
0.0001664
0.004491
0.0001474
0.02075
0.0001484
3.856e-05
0.02632
1.225e-07
0.001516
0.0001534
8.609e-05
1.705e-08
7.913e-06
0.01643
4.846e-05
1.397e-05
2.338e-05
0.0005372
0.01838
5.976e-05
1.425e-07
0.003258
0.005714
0.0001678
0.0001606
0.0001456
0.03402
3.321e-05
0.0001536
0.002992
0.02484
0.0001546
6.499e-05
0.0001312
0.05348
0.0001668
0.02399
1.937e-05
0.0001642
0.0001745
0.02836
0.0001509
7.621e-05
7.682e-05
1.181e-06
0.0005242
0.0002667
0.0001431
0.01004
0.001355
8.044e-05
5.541e-05
5.795e-05
0.03156
0.01136
0.0001455
2.821e-05
3.774e-05
0.0001789
0.0002013
0.03158
6.395e-05
1.17e-05
4.11e-05
0.0002022
0.0001635
0.0001561
7.456e-05
0.04676
0.0001542
3.035e-07
0.0001753
0.001964
0.0001457
0.0001473
0.0001997
0.0001465
0.0007087
0.0001014
0.008288
0.0307
1.088e-05
5.78e-05
0.002756
0.0001088
0.003396
0.0236
1.394e-07
0.01078
0.003887
0.004344
3.384e-07
0.01996
1.387e-05
4.987e-07
0.0001459
0.0001599
1.364e-05
0.0001574
0.01704
0.0002233
0.0002105
6.814e-05
0.01071
0.01023
0.0001495
0.03752
0.0001478
0.0001665
0.01691
0.006341
0.00123
0.027
1.631e-07
0.0132
0.0001467
0.002788
0.007608
0.06468
5.161e-05
0.01011
0.00025
1.141e-05
8.189e-06
1.683e-07
0.001758
5.159e-05
0.003244
0.004081
0.002565
0.000152
2.68e-07
0.003168
4.441e-05
0.0001629
0.0001445
0.00893
0.001935
0.01847
0.0001595
1.503e-07
0.0004664
0.0001409
0.04519
0.01439
2.593e-05
0.0001451
0.0004676
0.02193
0.0001516
0.0001424
2.151e-05
0.0001454
0.003263
0.01554
0.0001665
1.416e-06
0.0001804
0.01166
2.919e-08
0.006553
3.915e-05
0.0001315
0.0001304
5.336e-05
0.06009
0.0001772
0.0005655
5.922e-05
0.0001438
6.152e-05
7.405e-06
0.0233
0.0001459
0.0001467
0.01932
0.02105
5.615e-05
1.29e-09
1.75e-05
0.000151
2.11e-05
2.431e-06
0.0001547
1.454e-05
5.138e-05
0.0002522
0.0001698
6.01e-05
0.02978
0.01751
0.0001303
0.0001284
0.0001287
0.0001263
0.0001588
0.02116
0.0001251
3.478e-05
0.0001405
0.006582
0.01344
0.0001981
0.0001269
0.006581
0.01033
0.0008838
0.0003456
0.000438
0.01345
4.739e-05
2.688e-05
0.02523
6.172e-05
0.0001618
4.432e-05
1.383e-08
4.517e-05
8.578e-07
0.0001534
0.0001532
0.0001455
3.049e-07
0.00483
2.699e-05
0.0001297
0.0001507
1.122e-07
0.0001459
0.009224
0.0006333
0.0001677
0.00816
0.00434
0.01943
0.01226
3.388e-05
0.0001515
0.0002362
0.0001369
0.0001698
0.0009515
0.001838
0.01593
0.0001673
0.0001438
0.0001457
0.0001568
0.006351
0.0001641
0.0001691
0.01604
0.005515
0.0001649
3.313e-05
2.655e-05
0.0485
0.02471
0.02075
0.004729
0.0001613
2.311e-08
0.0001528
0.0001455
7.638e-07
0.0001454
0.0001452
0.0001612
0.0002481
1.01e-05
0.01203
9.507e-06
0.009767
2.614e-05
0.0001465
0.0001579
0.006552
3.295e-05
0.02269
0.0001807
0.0001577
2.374e-06
2.976e-05
0.0001483
6.823e-06
3.04e-05
3.396e-09
0.0001894
0.04515
0.03858
0.0001551
0.0001488
0.04673
0.0001882
1.623e-06
0.0001515
1.367e-05
7.786e-08
0.0001456
2.15e-05
0.0001195
6.193e-05
0.0001458
1.036e-05
3.148e-07
1.202e-08
3.369e-08
0.0001678
0.06108
4.955e-08
0.0001571
0.003556
0.000144
0.01605
0.0002292
0.03401
0.0009925
3.206e-08
0.0001595
0.0153
0.0001529
0.0001492
0.000152
3.439e-05
0.0003326
0.04806
0.0001685
0.00886
0.000168
0.01716
0.02518
0.005505
0.005835
0.0001456
0.02445
0.01835
3.282e-05
0.0005664
0.0001344
3.203e-05
0.0002705
2.75e-07
1.552e-07
2.524e-10
2.424e-05
0.0001542
2.356e-05
0.000149
8.101e-06
1.266e-05
0.0001456
3.212e-08
0.0001489
0.001708
1.79e-05
5.313e-06
0.01212
0.0002261
0.001881
0.000131
0.0001302
1.717e-08
0.03922
0.0001586
0.01775
0.01113
1.525e-07
1.638e-07
2.481e-07
0.02056
2.243e-05
0.000105
0.02117
0.0001521
4.499e-05
7.155e-06
0.0001392
0.006038
4.845e-05
0.0121
5.155e-05
0.01792
0.03379
8.835e-07
3.945e-05
5.372e-05
2.065e-07
0.0001745
1.868e-06
0.0001529
6.489e-05
0.002614
0.0001483
0.0001554
6.997e-05
0.001088
0.003161
2.951e-07
0.0001543
0.0001457
0.0001458
3.076e-05
2.717e-05
0.01286
0.03145
0.000126
0.0001513
5.385e-06
0.0001264
0.0006951
2.916e-05
0.0001544
0.003916
0.01653
3.296e-07
1.796e-07
2.308e-08
0.0001507
2.037e-05
0.006513
0.006224
0.04932
0.02711
3.89e-06
0.01783
9.691e-06
2.892e-05
4.755e-05
7.094e-05
0.0001736
1.239e-07
0.02153
5.613e-05
0.02281
0.0001556
5.875e-05
0.0001608
0.0001462
9.553e-05
0.0002596
0.005557
0.0001294
5.443e-05
3.141e-07
8.859e-09
0.02607
2.436e-07
0.0005482
0.0001636
0.0001505
0.0001547
0.0001556
0.0001489
0.000109
2.343e-07
0.0008034
1.297e-05
0.04963
0.05172
7.774e-05
0.005508
0.01622
0.0007848
0.02354
3.435e-06
0.006179
0.000135
0.008347
6.149e-05
0.0001477
0.0001557
5.364e-06
0.0001463
0.00328
0.00257
2.999e-05
0.0001587
1.64e-06
0.0002233
0.009161
0.0001508
1.506e-05
0.0003424
2.773e-05
5.596e-05
0.0001433
4.506e-05
0.0001443
0.0001689
0.001907
0.07006
2.823e-08
0.002824
1.403e-05
0.03602
1.083e-05
0.0001597
0.0004375
0.01002
0.0006796
0.000139
0.0001606
0.0001463
1.978e-05
0.0001152
0.0001938
0.005699
0.0001429
0.0004592
3.25e-05
0.008098
0.0001282
0.002962
0.0006867
0.000148
0.008197
0.0001621
0.0001737
0.003916
6.67e-05
0.0001563
0.0001664
0.0001572
0.0002109
0.009813
0.000137
0.0001353
0.000147
0.0001541
0.0001522
0.001263
0.0005292
0.000146
3.617e-05
0.0001954
4.318e-05
0.0001469
0.0001539
0.0001524
4.461e-06
0.0002366
1.969e-08
0.06184
3.149e-06
0.0001474
0.0001592
3.33e-07
0.0001506
4.867e-05
4.692e-05
4.566e-05
0.001122
0.009605
0.000146
6.734e-05
0.002256
0.02697
0.007463
0.01728
0.0001258
0.008863
7.239e-05
5.82e-05
0.0001438
0.01585
7.256e-05
9.637e-06
0.000152
0.0001481
0.001458
0.0004188
0.01121
0.01606
0.0001113
7.304e-05
0.000154
6.358e-05
0.006812
0.02483
0.01238
0.04202
0.0001349
0.000182
2.871e-08
0.03647
0.01278
2.191e-05
0.0001668
0.000165
0.000145
0.0001502
0.0001606
0.000155
6.113e-07
0.003571
0.000147
0.0001476
5.406e-05
2.672e-09
0.0001469
0.01238
3.876e-05
4.344e-05
0.0001729
0.005468
6.51e-05
0.01033
0.0001853
1.262e-05
2.899e-06
0.000168
0.0001462
0.006598
0.05192
0.004275
0.0001429
0.0001705
0.001831
0.01875
0.001396
6.358e-08
3.298e-06
0.05981
0.0004191
2.425e-06
0.03349
4.458e-05
0.01156
0.0001719
0.0001695
4.995e-06
1.803e-07
0.0001443
0.002138
6.74e-05
0.0001469
4.226e-05
0.01209
0.0001672
0.0001557
0.03293
1.241e-05
0.001161
0.000155
0.0001456
0.0001459
0.05823
0.0126
0.0001342
0.002796
0.0001491
1.275e-05
0.02822
0.01355
3.67e-05
3.515e-06
0.06424
0.02633
0.000143
2.642e-07
0.000177
7.223e-05
2.236e-05
0.0001543
0.0002095
0.005185
0.004476
3.292e-08
0.03309
7.676e-07
0.0001385
0.000142
0.007535
0.0001518
0.000143
3.286e-08
5.572e-05
4.172e-05
5.256e-05
0.02097
0.00915
0.0001343
2.606e-08
0.0001559
7.071e-05
0.0001351
0.0001527
0.01253
0.009808
0.007748
0.03212
0.02802
0.002089
0.0001362
0.008909
0.0002137
5.817e-05
1.731e-05
0.0001609
0.01942
9.52e-05
0.0001471
0.003357
0.00142
0.0001734
0.0001543
0.01666
9.557e-07
0.00013
0.0001438
7.911e-05
0.0005157
0.02479
2.917e-05
0.0001478
0.0002285
0.003618
6.732e-05
0.000148
0.0001535
8.783e-06
5.051e-05
5.509e-05
0.01145
0.0002055
0.0001367
2.199e-05
0.0001387
0.0005893
2.827e-08
0.0001591
0.01097
0.01776
0.0005243
9.577e-06
0.002438
0.0001528
0.0001363
0.01511
0.0001584
0.0001448
0.002191
0.0001403
0.03285
0.0001365
0.0001555
0.000155
0.0001495
7.127e-05
0.004526
0.0001456
0.0001312
7.362e-05
0.00265
0.0001506
0.0001467
0.0001448
0.0001578
0.06146
0.06602
1.701e-05
2.781e-08
2.375e-07
7.251e-05
1.813e-06
2.165e-06
0.0001481
5.252e-08
0.01181
0.0001191
0.02823
0.000156
0.0001706
0.0002191
0.0007163
5.835e-06
0.000871
0.0001571
0.01002
5.294e-05
6.022e-05
0.00017
0.0001643
0.008556
0.0001547
3.897e-05
0.0001444
0.01105
0.000145
0.0009227
0.0001532
0.0006575
4.379e-07
5.073e-05
0.0001373
1.125e-05
0.01073
0.000133
0.0001988
0.000146
0.0001605
0.008765
0.0002989
0.001348
0.0001108
0.0001495
0.0001703
0.0341
6.164e-07
0.0001472
0.0001531
1.934e-07
0.0001429
0.0001443
3.947e-06
0.0124
0.000153
0.000153
0.05802
4.547e-05
4.871e-08
1.698e-05
0.01163
0.02957
0.006576
0.0001555
0.0001451
0.0001541
5.401e-05
4.562e-05
0.005852
0.0001479
3.904e-07
4.912e-05
5.851e-05
0.01316
0.007029
0.009552
0.0001343
0.0001561
0.0004851
0.002684
0.000151
4.021e-05
1.463e-05
0.03609
0.0001637
0.0001749
0.02064
0.0001509
0.02654
6.331e-05
0.01386
0.0001373
0.0001477
0.0001202
0.0003635
0.01134
0.000162
0.0001498
0.0001897
0.006137
1.43e-09
0.04258
0.0001596
0.0003889
0.0001415
0.000142
7.217e-05
3.469e-06
0.0001552
0.002861
2.05e-05
1.424e-05
0.02842
0.0001587
0.0121
3.512e-05
6.632e-07
0.01761
0.000152
4.245e-06
0.000168
7.743e-06
9.911e-05
0.02191
0.02159
4.449e-05
0.0001459
0.009927
0.0001671
0.0001448
0.0002136
4.057e-06
0.002709
5.305e-08
1.624e-05
0.002784
0.0001449
0.03397
0.003817
0.0001579
0.02268
0.01663
0.0009467
0.00274
0.0001052
0.0001465
0.006301
0.0001382
0.0001499
0.003166
0.0002139
0.0001637
3.723e-05
3.189e-08
0.0001423
0.0001455
9.068e-05
7.732e-05
5.92e-06
0.0001667
0.01246
1.204e-05
0.06194
0.02132
0.000146
0.0001754
6.337e-06
0.0001521
0.01062
0.0001442
9.077e-05
0.0001521
0.02608
2.115e-05
0.004371
0.0006029
8.262e-05
0.0337
0.0001501
0.0006238
0.006478
0.000166
0.0001436
0.0001486
2.077e-05
9.848e-05
9.249e-05
0.03689
0.004239
0.04367
4.237e-05
0.0001176
0.0001281
0.000153
0.0001596
9.906e-09
4.024e-05
0.0001202
0.0001426
2.078e-05
6.194e-05
0.000885
0.0007462
7.948e-08
0.0001766
0.02523
4.721e-05
5.312e-05
1.419e-05
2.736e-06
0.04904
0.0001929
0.04047
0.0001503
5.25e-09
0.0001473
0.02437
2.098e-05
7.399e-05
0.02143
0.00011
0.01201
6.687e-06
0.01483
0.0002642
0.05965
0.0001423
0.001607
9.931e-09
0.0133
6.568e-07
1.982e-07
0.0001456
6.589e-07
0.0002212
7.348e-06
0.0001315
0.02692
0.05029
0.005983
4.563e-05
0.0001343
0.0001507
0.02569
0.0135
0.01618
0.02039
0.004681
0.0001576
0.0001629
0.02224
3.209e-07
0.01389
6.114e-05
4.824e-05
2.023e-05
0.0001348
0.0008892
0.006741
6.492e-05
0.01802
1.46e-07
0.002519
5.58e-05
0.0001547
4.694e-05
0.0001536
0.017
0.01045
0.0001585
0.0001684
0.01006
9.486e-05
0.0141
0.003229
8.631e-05
3.561e-05
0.01191
1.415e-07
0.0001051
1.194e-06
0.0001505
0.07112
0.006273
0.02723
0.0001529
0.0001305
0.0001455
0.0001469
0.0001455
0.009625
4.617e-05
0.00607
0.01051
0.0001516
0.01447
0.0001511
1.769e-07
3.121e-06
3.599e-07
5.513e-05
0.0001538
1.354e-05
8.25e-05
0.0001579
0.0001561
0.0001464
0.04127
0.0301
0.002383
0.06569
0.0001422
0.0001431
0.006055
0.02392
0.0001518
2.17e-08
4.145e-05
0.0001398
0.0001459
4.867e-05
0.0001515
2.19e-05
5.279e-07
0.0001534
0.0001754
0.001746
0.0001293
0.001287
3.332e-08
0.00019
0.0001614
5.566e-05
3.662e-05
0.0001536
0.002851
0.0001499
0.0001645
1.23e-05
0.003415
3.182e-08
0.0001506
8.57e-05
0.0009509
3.324e-05
0.0001462
0.00954
0.0001457
0.03706
0.06296
0.000135
0.02687
5.999e-05
0.000219
0.0001604
8.896e-06
7.128e-05
0.0002757
1.278e-05
1.456e-05
0.005312
0.001383
4.781e-05
0.003509
0.0187
3.327e-05
0.0001384
5.767e-07
1.485e-07
6.369e-06
5.682e-05
0.0001603
5.1e-06
3.776e-05
0.0001606
0.0001678
5.892e-06
0.00465
0.0001588
0.0001341
0.0001841
3.323e-05
0.0001323
0.06888
0.0001019
0.01965
0.0001409
4.895e-05
5.571e-05
0.0001954
2.248e-05
1.397e-09
0.0003593
0.01054
0.0001407
0.01142
0.004181
2.121e-05
0.008738
0.03829
0.02218
4.487e-06
0.01318
0.0001593
0.01142
2.087e-05
0.0001522
0.05766
0.0001528
0.05637
3.322e-07
0.001735
0.0001476
0.0002354
0.04491
1.402e-07
0.001576
0.0001432
0.0001568
1.385e-05
0.0001521
0.008675
1.199e-05
0.0005258
0.02308
0.0001453
0.0001618
0.0188
0.01318
0.0001612
2.381e-05
0.0001384
2.131e-05
0.014
0.001654
0.009931
0.01164
0.01186
2.591e-05
0.000263
0.0001528
5.927e-05
0.000146
1.922e-08
0.0001506
0.0001331