/*--------------------------------*- C++ -*----------------------------------*\
  =========                 |
  \\      /  F ield         | OpenFOAM: The Open Source CFD Toolbox
   \\    /   O peration     | Website:  https://openfoam.org
    \\  /    A nd           | Version:  8
     \\/     M anipulation  |
\*---------------------------------------------------------------------------*/
FoamFile
{
    version     2.0;
    format      ascii;
    class       volScalarField;
    location    "10";
    object      nut;
}
// * * * * * * * * * * * * * * * * * * * * * * * * * * * * * * * * * * * * * //

dimensions      [0 2 -1 0 0 0 0];

internalField   nonuniform List<scalar> 
127143
(
8.257e-21
9.995e-21
1.531e-19
1.848e-18
9.573e-18
1.934e-18
9.823e-16
9.185e-17
2.883e-17
3.595e-15
1.251e-15
1.102e-16
9.909e-19
3.791e-18
4.761e-07
7.602e-14
4.852e-18
0.004154
0.003805
1.601e-12
0.0007693
2.717e-11
6.932e-05
1.374e-07
2.275e-11
1.15e-09
3.953e-10
5.077e-10
2.708e-10
0.003528
7.665e-08
1.101e-09
4.146e-11
6.991e-08
4.986e-05
3.689e-11
0.000204
0.0007638
2.207e-07
1.097e-09
0.003797
4.171e-06
4.441e-06
5.225e-17
0.004214
7.807e-08
2.73e-10
0.0008562
9.326e-08
1.852e-07
2.771e-13
0.0004719
0.00038
2.734e-05
0.006672
2.958e-08
0.006672
9.73e-05
0.005159
2.85e-05
3.828e-06
0.002219
7.629e-07
0.006702
1.134e-06
2.171e-05
4.945e-05
6.511e-07
6.538e-07
0.002415
1.013e-07
1.169e-09
0.002382
0.004486
0.006694
1.406e-09
0.0006855
0.0002402
2.979e-08
0.006705
2.593e-10
1.876e-12
1.286e-06
3.616e-09
0.00173
0.0003348
3.015e-07
3.19e-10
2.194e-05
1.928e-07
0.00665
0.0001923
6.089e-07
0.0007815
0.0001466
0.0001567
4.597e-06
2.668e-08
0.0005993
4.498e-05
0.006705
1.063e-07
1.715e-08
3.207e-05
0.0003675
0.0005597
5.056e-07
0.002416
8.384e-06
0.006681
7.008e-07
2.412e-10
0.0004167
6.931e-07
0.005999
5.881e-05
0.0005208
0.006694
0.0007874
4.528e-13
0.006681
1.724e-06
4.047e-06
0.0001222
3.041e-10
2.369e-10
0.001543
0.0008651
0.0001448
2.37e-08
0.000132
0.0001045
1.482e-06
0.0002527
1.4e-15
0.0001461
0.000214
0.001041
1.11e-09
0.0001594
5.241e-05
0.0008832
0.0006485
0.001071
0.0003829
4.059e-06
3.218e-10
0.006702
9.054e-05
7.16e-09
1.227e-05
1.317e-07
0.0006742
2.828e-05
2.48e-06
0.001778
7.813e-05
1.924e-08
0.0008893
1.215e-08
1.707e-07
9.211e-14
0.006647
0.000133
2.128e-09
2.081e-06
0.0001147
8.436e-06
1.777e-08
0.0001679
2.222e-06
0.001076
5.526e-05
8.843e-06
0.002075
0.0004487
3.693e-06
0.0001468
1.554e-07
0.002078
8.904e-06
0.001419
0.0004768
0.0004604
2.492e-08
0.002292
1.145e-05
7.569e-07
1.46e-07
0.0008412
0.0003581
0.0001372
0.0002488
6.493e-07
3.975e-16
0.001618
0.00666
0.006637
2.358e-14
0.002455
0.0067
0.0001896
0.0008995
0.000246
4.531e-17
5.339e-07
0.000136
6.932e-06
0.002855
0.006304
0.0001185
0.001333
0.006695
2.008e-08
4.141e-05
9.95e-15
8.89e-08
6.842e-06
0.0002486
0.0001351
3.467e-06
0.006695
1.195e-07
0.0003332
9.958e-09
1.388e-06
6.43e-09
0.0006819
1.253e-05
0.0009883
0.0006996
0.001735
0.002528
7.631e-12
0.0007138
0.0001169
0.0001331
1.89e-18
0.005554
0.0004576
0.0001522
4.207e-06
0.0007357
1.964e-08
0.0004189
6.76e-13
2.767e-07
4.786e-10
5.638e-13
0.002428
6.664e-06
1.858e-09
5.394e-06
0.0009848
6.366e-08
6.722e-06
0.001063
2.338e-08
2.634e-05
1.391e-05
0.001529
0.001227
0.0001634
0.0008478
0.0002511
2.455e-06
5.724e-06
2.274e-06
5.08e-06
6.686e-05
5.211e-09
0.002073
0.001263
0.0004542
1.284e-06
0.0003711
0.0004317
1.611e-07
0.002039
2.278e-05
0.003071
0.000194
3.276e-05
0.006692
0.006695
3.843e-16
0.0001239
0.006074
1.445e-07
0.002113
0.0006579
4.529e-05
0.0001171
4.634e-05
0.006704
6.951e-06
6.616e-08
8.278e-05
0.0007331
6.068e-05
1.81e-08
3.302e-05
1.355e-05
7.541e-05
6.876e-09
3.933e-06
6.992e-06
0.006697
0.002096
4.253e-06
4.244e-07
4.773e-06
1.869e-08
0.003501
0.006694
3.103e-07
0.0007756
1.864e-08
6.963e-05
0.002228
8.726e-05
1.09e-07
0.0003811
5.353e-06
2.77e-07
0.0004204
0.0001056
9.818e-05
1.236e-07
2.696e-06
0.001499
0.00603
5.476e-05
0.00666
0.006637
3.075e-05
8.471e-06
6.144e-05
0.001496
9.059e-05
0.0001855
6.822e-06
0.0004051
0.000381
1.063e-06
1.437e-07
9.294e-06
0.0002977
2.092e-08
8.809e-05
3.228e-08
0.003662
0.0003968
0.0003744
0.0001224
1.266e-05
0.0009752
4.852e-06
0.006368
1.238e-07
0.001742
8.965e-07
0.002105
2.672e-07
2.079e-07
0.006697
0.002791
0.002172
1.978e-06
0.002039
2.411e-06
0.0003605
5.345e-09
1.728e-07
0.001036
7.462e-05
7.63e-08
3.796e-11
0.0006606
0.002045
0.001625
4.266e-10
3.827e-08
2.664e-05
0.0005763
9.888e-12
3.706e-05
1.574e-09
0.001551
0.0009985
0.006538
1.322e-05
5.996e-06
7.224e-08
1.656e-07
6.613e-08
1.345e-05
1.039e-07
0.0001161
0.0009933
2.898e-09
0.006695
0.0008065
0.0005098
3.677e-05
6.877e-06
0.0004366
1.652e-06
0.006705
1.734e-07
9.285e-06
1.789e-08
4.732e-05
0.0009869
6.682e-06
0.0001572
0.0004795
4.367e-09
0.000445
3.195e-07
0.0001282
2.075e-09
2.636e-05
0.002753
0.0009439
1.154e-05
4.279e-06
3.893e-05
6.461e-06
0.0001027
0.006678
2.457e-05
0.0003337
0.0002703
0.000111
0.006697
5.464e-06
1.603e-05
0.0004896
0.006703
0.006691
2.565e-07
0.0001571
7.393e-06
0.0003039
2.988e-08
0.005073
1.244e-06
0.002194
0.001334
0.0007447
5.358e-08
8.746e-06
1.383e-06
3.391e-05
0.0003355
1.388e-08
1.067e-05
0.0003798
0.0002563
1.998e-06
0.000267
0.001223
7.344e-07
0.0002601
0.002166
0.001274
0.000724
4.175e-06
0.006668
0.0008562
0.000142
0.0001054
0.0006305
0.0001562
0.006645
2.005e-06
9.659e-05
4.335e-06
0.0004351
3.232e-10
1.683e-06
3.606e-05
1.918e-08
7.959e-06
0.0001109
0.0004672
0.006694
2.463e-08
0.0008154
8.369e-07
3.411e-07
0.0003519
3.516e-06
1.398e-15
9.286e-05
1.205e-06
0.0001161
1.315e-06
0.006691
2.706e-10
0.001285
0.0005157
0.001671
5.201e-18
2.892e-14
1.168e-13
0.006697
1.336e-05
4.296e-05
0.006621
0.001919
2.142e-06
0.0001079
2.867e-05
0.0007053
5.283e-08
0.0008706
6.726e-09
0.00224
0.001074
2.705e-12
1.89e-07
2.353e-08
3.693e-06
0.005412
1.389e-05
0.0008521
0.001253
0.006628
1.711e-08
2.715e-09
5.224e-06
0.006643
0.0007194
0.0001277
6.648e-07
7.291e-06
6.141e-09
0.00173
0.0007993
2.106e-05
1.371e-05
0.006669
3.435e-05
0.0003909
8.601e-08
2.765e-07
3.52e-06
4.633e-07
0.001594
0.0001194
5.677e-07
0.0001334
2.821e-05
0.003124
2.757e-09
0.00021
1.262e-08
1.17e-06
0.0008224
0.006702
0.006701
1.529e-05
8.556e-06
1.174e-06
0.006207
0.004779
1.164e-05
5.507e-08
0.0004358
9.91e-06
3.269e-07
2.113e-09
3.983e-05
0.001027
0.006682
4.093e-06
0.0007164
1.586e-06
0.004891
1.494e-09
1.911e-06
5.249e-05
0.002043
4.267e-09
0.005709
0.000485
0.0006167
0.001194
0.004962
6.13e-06
0.001529
4.754e-12
0.006645
5.638e-07
1.03e-07
0.006691
6.912e-06
0.004446
3.709e-07
0.0004836
0.006692
2.654e-06
6.16e-08
1.055e-05
0.0002368
0.0006626
3.399e-08
3.964e-08
1.322e-06
2.71e-07
9.432e-07
3.109e-07
0.0003095
0.0003277
1.167e-08
0.005513
2.84e-08
0.006692
1.069e-06
0.0007639
0.0006556
0.006678
0.004579
7.014e-05
3.299e-07
0.0004837
0.006471
0.006677
1.7e-05
1.385e-09
3.323e-06
3.156e-08
0.002507
8.235e-06
0.0007551
8.807e-06
0.00039
1.009e-05
7.441e-07
0.00647
2.892e-05
0.0004347
8.542e-05
0.0001545
0.00663
0.004781
0.000444
2.133e-09
0.0004687
1.862e-09
0.000746
0.003686
7.232e-05
2.225e-05
0.0001871
1.459e-06
9.786e-05
0.001941
2.481e-06
3.415e-05
0.0004413
2.304e-05
1.394e-16
2.032e-06
0.0003977
0.0003297
0.0001297
0.0001182
6.448e-09
2.773e-05
0.0004172
0.0001841
9.485e-05
0.0008387
0.006678
1.737e-07
1.787e-05
4.429e-06
0.006642
0.006678
2.744e-10
0.0001157
4.39e-08
0.0001518
2.441e-06
0.002069
1.72e-05
1.768e-08
9.528e-06
7.486e-08
0.006693
0.006668
6.593e-06
1.223e-05
2.972e-06
4.783e-06
5.782e-09
0.002474
1.124e-07
0.0001252
0.001931
0.003847
4.098e-08
0.0001729
5.49e-08
1.259e-15
2.237e-06
0.0003462
0.0007133
0.004758
7.706e-07
2.1e-07
1.309e-09
0.003476
0.001265
0.0003928
1.048e-08
0.0004634
3.185e-07
0.003452
1.014e-07
5.79e-07
4.312e-06
0.001592
5.561e-05
3.326e-20
2.133e-05
0.0001647
5.466e-07
2.913e-06
3.303e-07
0.006688
0.0002807
0.003615
0.0004498
0.003506
1.443e-09
3.235e-05
4.454e-09
0.003413
2.13e-05
0.0002856
2.403e-05
8.031e-05
0.00387
0.0006748
6.68e-06
2.238e-06
0.0009314
0.002169
0.0004042
1.102e-06
0.003115
6.795e-06
4.748e-05
0.0001342
9.548e-05
3.418e-05
2.221e-06
1.114e-09
9.773e-06
0.006612
0.0006653
0.002377
2.029e-09
1.992e-08
2.796e-05
0.001984
6.313e-07
0.006625
0.0001201
2.622e-06
0.0004197
2.107e-11
0.0004118
6.05e-06
0.0005246
0.0008635
4.497e-05
0.006697
3.576e-17
0.0001599
0.0002665
5.207e-07
0.000498
2.32e-05
4.11e-05
1.323e-07
0.006681
0.003309
3.212e-05
0.003701
2.313e-05
8.478e-07
4.824e-07
3.854e-06
0.006661
0.0008098
0.0003962
0.006693
0.006657
0.0001566
0.002174
0.002505
3.037e-05
0.0005014
3.597e-13
1.821e-05
8.085e-06
0.006679
0.0003186
0.0001567
8.965e-08
1.214e-08
8.211e-06
0.003372
0.005647
0.001089
7.94e-10
0.006679
0.0001229
8.386e-09
8.148e-07
8.574e-10
0.00579
0.0009165
7.064e-07
0.006694
2.148e-08
0.00668
2.037e-06
3.045e-09
5.627e-05
0.0004231
3.424e-10
0.006677
3.039e-06
1.961e-05
1.887e-08
3.687e-05
7.086e-09
7.363e-09
3.045e-05
5.888e-05
1.114e-05
8.035e-13
0.006693
0.0008592
4.091e-08
1.193e-07
8.813e-05
4.021e-11
0.003442
0.0001526
3.92e-06
7.476e-10
1.175e-10
5.334e-06
1.697e-14
1.112e-06
1.147e-13
0.0001021
7.832e-07
0.003389
2.875e-11
0.0006961
3.387e-07
0.004872
0.00504
0.0006921
0.000416
0.0002111
0.00258
6.829e-07
7.468e-05
0.0004272
1.769e-07
4.941e-07
0.00566
0.002815
0.000178
0.0004947
2.13e-06
9.033e-12
0.0005394
9.641e-06
6.575e-07
0.001157
1.358e-05
0.006689
0.0003549
5.591e-08
0.006403
3.451e-06
0.0002099
0.002353
0.006665
0.00228
0.002244
5.033e-14
1.556e-05
8.074e-12
0.0009579
8.359e-06
7.46e-07
4.161e-08
1.336e-05
0.005553
1.655e-09
8.249e-06
0.005382
8.66e-06
1.208e-11
0.001474
2.249e-06
1.032e-05
6.942e-05
8.73e-09
6.022e-14
1.042e-07
0.0007715
0.006694
8.586e-06
7.484e-06
6.215e-05
3.968e-06
6.079e-07
2.544e-09
4.015e-05
4.029e-05
2.391e-09
0.0001475
1.198e-08
0.006689
0.000761
3.16e-06
0.0009231
2.835e-05
0.0006991
0.006692
0.00205
1.042e-06
4.114e-05
6.498e-05
7.572e-08
8.375e-06
0.001598
0.0004834
6.193e-05
3.08e-05
1.453e-12
0.0004373
5.037e-08
1.804e-06
7.916e-06
0.00158
6.257e-07
2.65e-05
8.109e-07
1.058e-10
0.0006536
0.006688
0.006684
0.0008326
0.000579
7.785e-05
0.006705
7.046e-06
0.000743
6.601e-05
1.038e-05
0.000583
5.284e-06
2.307e-06
0.006705
6.847e-05
5.6e-05
1.829e-10
7.07e-09
0.0002879
1.076e-05
0.0009086
3.036e-06
1.536e-07
2.186e-06
0.002727
6.279e-06
2.827e-07
0.0001179
1.685e-09
0.006459
6.998e-10
3.228e-08
0.00245
0.0002687
3.962e-07
0.003839
1.257e-10
1.496e-12
0.006277
0.00669
0.0003222
0.0005699
4.475e-12
7.725e-05
3.571e-07
9.118e-08
2.923e-06
7.067e-05
9.964e-05
0.006571
1.739e-06
0.001285
9.825e-06
4.846e-05
3.374e-07
0.0002669
0.005394
2.693e-12
0.0001579
0.006691
4.049e-05
0.005645
0.006688
3.885e-06
7.872e-05
9.622e-11
0.006687
2.382e-08
0.006694
6.692e-07
9.47e-05
0.002958
1.85e-05
2.829e-08
5.698e-08
1.707e-06
1.318e-06
0.003475
0.001083
0.0009128
1.568e-07
2.337e-05
3.98e-06
1.836e-10
1.485e-06
1.677e-11
0.0002042
6.507e-08
2.758e-06
8.521e-08
9.922e-10
5.136e-06
0.003478
0.004224
1.09e-05
0.0001762
5.484e-09
0.002675
2.937e-07
0.001315
5.352e-07
7.167e-07
0.000331
9.691e-05
8.325e-07
0.001781
5.353e-07
7.754e-05
1.869e-08
3.419e-05
0.006536
2.97e-06
1.049e-05
0.006377
3.604e-05
2.123e-06
0.006682
3.98e-05
7.247e-05
0.0004193
5.021e-06
0.001108
0.0001425
0.0001037
0.006677
3.53e-05
2.008e-05
0.006704
6.756e-06
0.0001336
0.0007543
1.534e-05
1.561e-05
0.0004353
3.599e-06
1.706e-10
2.899e-08
9.088e-08
0.001128
2.718e-11
0.002507
2.45e-07
0.006693
0.0003092
5.627e-06
8.181e-05
7.108e-07
3.641e-06
1.971e-08
0.006698
7.123e-13
2.069e-07
5.968e-07
8.919e-07
2.693e-08
0.001878
0.00366
5.51e-09
6.134e-07
6.105e-05
7.539e-16
0.0003946
2.01e-07
1.145e-08
1.669e-07
2.149e-06
0.000185
4.583e-08
4.728e-07
6.97e-05
0.0004147
5.429e-08
1.018e-07
0.001344
9.404e-12
0.0001098
3.879e-07
0.0001289
2.34e-08
0.006653
0.00669
0.0007307
1.309e-11
0.0006343
0.001682
1.224e-10
2.165e-06
0.006693
1.399e-09
3.611e-07
0.000475
5.966e-11
2.562e-05
0.0001605
1.147e-15
0.002115
6.962e-09
0.00117
5.355e-07
3.09e-08
7.359e-08
1.09e-08
8.838e-06
2.923e-05
0.0001426
0.001796
6.664e-05
5.171e-05
2.404e-05
5.688e-07
0.0023
1.333e-08
0.001154
7.717e-05
0.001732
3.9e-06
1.91e-05
1.024e-05
9.35e-12
4.906e-05
3.074e-09
9.747e-08
8.644e-05
0.0001387
0.006694
0.001561
0.000291
1.839e-05
6.504e-08
1.211e-08
7.163e-09
0.006682
5.057e-08
2.631e-06
0.0004528
3.53e-12
0.0002144
0.002809
5.231e-06
0.002323
3.782e-06
9.494e-05
1.977e-10
8.687e-05
0.001632
0.001116
0.006701
1.102e-12
5.398e-12
0.0002953
6.691e-05
2.967e-05
0.006486
0.006654
3.031e-05
0.0009996
0.003489
7.089e-05
0.002977
0.00291
1.46e-06
0.0003959
0.001955
2.699e-05
1.215e-07
2.294e-12
2.919e-05
5.507e-09
0.0001352
1.297e-05
0.006656
8.047e-08
0.001299
1.263e-06
1.104e-12
0.0003726
0.002153
6.585e-05
9.017e-07
0.0006376
7.085e-13
0.001729
0.0002812
0.002044
0.002016
2.933e-05
1.215e-07
3.878e-13
5.624e-05
6.856e-06
0.006676
1.485e-07
9.414e-08
0.00667
8.252e-08
2.225e-06
0.0001446
4.605e-08
0.006683
2.187e-05
1.914e-14
0.003816
2.597e-07
1.726e-06
5.253e-07
1.763e-09
5.119e-05
3.202e-05
1.189e-05
1.894e-09
0.0001139
6.459e-05
1.649e-05
7.402e-07
1.339e-08
3.839e-09
1.044e-05
0.0001408
0.006691
6.032e-05
0.002943
1.9e-08
1.18e-06
0.002346
0.0001171
0.006693
7.673e-05
1.632e-05
0.006613
0.002493
0.00616
8.413e-09
0.002466
2.293e-11
4.187e-05
0.0004041
2.009e-07
0.0004793
3.236e-07
6.686e-08
4.669e-14
0.0001484
2.966e-05
0.0004734
0.0006922
0.001297
0.006702
0.0002926
0.001124
0.001349
0.006699
0.001967
0.006685
2.51e-05
0.0001277
0.006681
0.006688
5.193e-05
7.412e-05
5.468e-07
7.798e-05
0.006696
9.842e-06
0.0003979
6.013e-05
6.888e-14
1.716e-08
1.375e-11
1.84e-07
1.475e-06
8.265e-08
1.792e-07
0.0004181
0.0001342
7.242e-10
0.0009146
3.133e-07
3.297e-06
0.0003028
0.0003209
0.003755
0.006687
4.976e-14
0.0002436
1.288e-09
0.006693
1.453e-12
3.983e-07
6.823e-08
0.0001321
0.006639
0.006638
0.0005849
0.001521
0.001957
0.001779
7.01e-07
5.157e-05
4.568e-06
0.002183
4.225e-05
3.881e-09
1.688e-06
0.0002247
0.0005878
2.852e-05
1.052e-06
1.14e-06
6.82e-07
7.46e-08
0.0007587
0.002395
0.0001922
0.0001291
4.364e-11
0.0004146
0.0004664
1.188e-06
0.002062
2.688e-07
0.0003623
3.854e-07
0.002335
0.006692
0.0007272
5.538e-06
8.601e-13
1.276e-09
7.579e-05
0.0001643
2.473e-07
0.0001059
0.006618
2.01e-07
6.219e-06
1.022e-13
4.084e-05
1.343e-11
0.0001706
0.006687
4.401e-05
2.289e-06
0.001823
1.149e-05
0.00112
1.181e-05
9.361e-07
0.0001827
0.0007151
1.831e-08
0.0001461
5.928e-07
4.134e-07
3.271e-08
0.003139
0.003137
7.494e-08
8.213e-06
1.762e-13
2.473e-06
1.77e-08
2.159e-08
6.071e-14
0.002191
1.934e-05
0.0003428
0.003279
0.006686
0.001083
0.006293
2.388e-12
0.006692
1.113e-09
4e-05
6.267e-06
2.026e-06
5.327e-08
0.002395
7.269e-10
5.964e-05
5.9e-07
0.0008203
3.636e-09
0.006693
9.31e-05
1.414e-06
0.0009673
1.848e-07
3.597e-06
0.0003884
1.873e-07
1.082e-07
0.0002039
0.006662
1.365e-08
0.002439
0.006665
5.415e-05
7.19e-08
0.006662
2.404e-09
0.006695
0.0005663
0.000332
0.001273
6.331e-07
0.00666
0.0006452
2.618e-06
0.0001707
2.537e-05
9.054e-06
3.581e-05
0.006694
0.006681
0.0003401
2.202e-13
6.396e-06
4.422e-07
0.0007984
2.116e-10
7.333e-05
4.839e-05
0.002804
1.788e-05
2.929e-05
5.988e-08
0.0005702
3.877e-07
0.000992
0.0003459
0.006703
3.921e-06
7.936e-07
0.0005405
6.708e-07
1.223e-08
3.174e-05
0.006679
0.0004344
2.853e-09
5.009e-06
2.093e-12
6.46e-09
0.002373
0.0004175
1.234e-05
2.75e-10
0.000402
9.22e-08
6.482e-09
0.002682
3.895e-05
0.00669
0.0001105
1.803e-07
0.0002343
0.006693
1.259e-05
0.006693
0.0001043
2.787e-05
0.006694
0.002662
5.932e-05
8.109e-06
0.001132
0.001996
1.016e-07
0.006696
6.673e-08
2.134e-09
5.186e-05
0.003794
1.878e-07
0.001006
0.0003834
0.0004198
1.859e-08
3.327e-06
0.0003745
2.286e-08
0.0002819
6.185e-05
4.369e-09
0.0001856
2.668e-05
1.996e-06
0.0002352
1.046e-07
0.0006524
9.617e-06
5.377e-07
0.0002922
0.002049
4.566e-07
0.002173
0.0002494
7.005e-05
1.899e-12
0.000176
3.316e-11
8.397e-05
0.006664
3.386e-11
2.826e-07
0.0001091
7.424e-08
0.0005103
0.0004865
0.006705
0.001782
1.653e-10
0.001288
6.865e-06
9.214e-07
2.5e-07
0.006695
7.44e-07
7.302e-06
9.677e-06
2.093e-07
0.0004848
5.244e-07
2.421e-09
0.006689
0.0002201
0.0003187
0.002596
0.0003021
3.114e-05
3.543e-05
5.578e-06
8.673e-05
0.001168
0.003027
5.275e-05
0.0002513
0.006539
2.599e-05
5.565e-08
4.852e-11
0.006703
1.235e-05
1.434e-10
0.00205
5.133e-06
0.00197
2.774e-07
4.672e-11
0.002869
0.002318
0.0002177
0.0009675
1.687e-06
5.249e-06
0.0009279
1.225e-09
5.844e-05
0.0005045
3.518e-05
6.479e-15
1.889e-14
0.0002236
0.0001871
4.805e-05
7.719e-05
0.001183
8.727e-06
0.0008598
3.954e-07
4.227e-05
6.393e-05
5.806e-07
2.567e-10
0.00056
9.103e-05
0.005583
2.658e-07
9.164e-05
0.0003222
1.281e-05
6.213e-05
2.945e-07
0.0002217
0.003188
0.006676
4.472e-08
6.672e-09
0.0005183
1.129e-05
0.00104
1.362e-12
9.383e-08
0.0001629
2.342e-05
1.521e-08
0.0007083
3.592e-07
5.297e-13
0.006613
9.106e-10
3.994e-07
2.319e-07
0.004867
0.0007145
0.001684
2.319e-08
2.165e-05
0.001584
7.783e-09
0.004928
5.25e-06
1.548e-07
0.0001474
0.002004
0.005283
6.447e-08
4.985e-09
3.679e-07
1.281e-08
7.63e-10
0.0007433
1.851e-11
0.002388
3.794e-07
1.698e-05
0.002736
9.93e-05
0.003795
1.948e-06
0.001095
4.231e-07
0.003007
5.64e-07
6.703e-14
1.36e-11
0.0001777
0.0004097
3.17e-05
1.195e-05
0.001686
0.000177
0.0001817
7.623e-05
0.006703
5.653e-07
3.774e-07
1.313e-07
7.544e-05
1.226e-05
2.419e-07
0.0006981
1.077e-07
1.866e-11
8.162e-10
0.0001177
4.709e-07
1.15e-13
0.001735
2.491e-07
0.002644
7.302e-06
6.734e-06
5.167e-16
9.19e-06
6.894e-06
0.003442
0.0002383
4.859e-08
0.0001333
0.005878
0.006698
0.001273
6.973e-09
0.001552
4.034e-07
1.433e-11
1.619e-06
0.002177
1.153e-08
0.00258
0.0001205
8.784e-10
5.37e-05
0.003059
0.0003852
0.0001081
8.472e-05
0.000162
0.006696
3.079e-06
0.00336
8.024e-09
0.002355
1.308e-07
1.695e-08
4.24e-05
1.128e-08
0.0006644
4.157e-07
3.622e-07
4.031e-07
1.711e-05
0.001461
0.0001707
0.0003982
3.305e-06
0.0001098
1.207e-08
1.87e-06
0.006703
0.0001016
0.002863
1.432e-08
9.271e-07
0.002078
0.001352
6.173e-05
4.116e-08
0.003333
9.823e-05
0.0007545
0.0002925
0.002221
0.0009387
0.0001344
3.102e-11
0.0001128
0.0003018
5.131e-07
0.006672
0.001112
6.087e-05
9.356e-05
0.001725
0.006687
8.997e-05
2.684e-07
7.567e-07
0.006693
0.0009344
0.002467
4.259e-06
2.48e-05
0.001057
0.000405
0.0003833
1.5e-08
6.429e-08
0.0016
1.785e-06
0.0005151
0.0001274
4.151e-07
3.856e-12
0.002236
1.09e-08
1.023e-07
0.001966
2.104e-12
0.005593
0.006662
1.223e-05
4.54e-05
1.124e-13
0.006693
0.001589
4.749e-07
3.613e-13
1.81e-06
2.64e-08
0.006291
0.006379
8.12e-08
0.0001391
0.0004012
2.175e-06
5.238e-05
0.001255
0.000103
0.006705
1.275e-08
2.679e-07
5.652e-07
0.0005797
8.875e-10
0.0004275
2.161e-05
0.006677
9.648e-06
2.744e-07
1.183e-08
5.904e-08
0.000139
6.76e-10
9.839e-06
0.0003047
5.029e-07
1.103e-05
0.0001064
0.0001189
1.003e-06
7.98e-09
0.00477
0.005032
4.039e-06
6.914e-05
1.546e-10
8.98e-06
6.678e-08
0.0001002
0.002375
0.006694
7.202e-06
0.006702
0.0005339
8.411e-12
2.514e-06
9.859e-05
1.26e-06
0.0001359
4.06e-10
1.953e-07
0.002869
7.291e-06
1.073e-05
4.453e-07
0.0007867
2.165e-06
8.596e-05
0.0003044
0.0004753
0.000234
5.229e-06
0.001328
7.335e-09
4.137e-07
0.0002361
0.0001289
2.742e-09
0.0001535
9.523e-06
1.203e-06
9.235e-07
7.428e-06
5.868e-06
1.742e-11
0.0001018
4.556e-05
0.001399
0.001429
0.006703
2.614e-07
0.002799
1.862e-11
1.354e-05
4.309e-05
8.824e-08
3.174e-13
9.812e-09
0.0005576
7.579e-07
2.55e-08
1.634e-08
0.002072
0.0007365
1.897e-06
4.145e-12
6.104e-05
0.0002042
7.584e-05
7.48e-05
0.006308
0.0008681
5.952e-09
2.824e-05
3.133e-06
0.002199
8.13e-05
5.626e-08
0.006653
0.0005535
9.398e-05
0.001344
1.851e-08
8.015e-05
3.554e-05
0.003289
4.65e-05
3.948e-07
2.979e-06
6.649e-11
7.207e-07
1.62e-06
0.00668
0.0003056
1.026e-05
2.687e-08
4.318e-08
1.665e-06
0.003239
0.0002215
0.00552
9.698e-08
6.825e-08
8.03e-06
6.258e-06
0.0004647
3.837e-08
2.383e-08
1.21e-07
3.858e-06
3.288e-05
1.495e-06
1.082e-08
0.003384
8.026e-05
1.314e-11
0.002614
0.0002117
0.004225
0.006699
4.069e-06
0.002662
1.336e-06
1.593e-06
0.0003238
0.0009123
2.244e-08
3.974e-08
5.137e-05
2.369e-07
6.232e-05
0.001581
9.396e-13
0.0004866
9.219e-05
0.00223
5.848e-12
0.001582
2.87e-09
8.529e-11
0.003443
2.847e-07
2.954e-08
3.678e-05
0.001275
7.202e-08
7.728e-07
8.108e-08
0.0006944
0.0004282
0.0001731
0.003939
0.006701
4.433e-05
0.001324
2.269e-05
1.074e-05
0.00034
1.651e-11
0.001121
0.004619
1.646e-05
0.0003269
0.00146
1.102e-06
0.0003676
1.03e-06
2.534e-08
6.849e-09
3.268e-11
1.2e-05
2.042e-07
6.832e-06
0.0001049
1.949e-05
2.161e-05
3.702e-12
2.099e-05
5.365e-07
8.766e-06
0.006687
5.781e-05
9.5e-06
0.001183
3.967e-05
2.728e-11
9.194e-07
6.409e-07
0.0006645
0.0003622
1.123e-08
0.006698
1.151e-07
0.00208
0.0001046
4.817e-06
4.619e-08
0.006703
2.986e-05
0.001283
1.399e-05
2.477e-10
1.939e-05
0.0002182
5.022e-13
0.000292
1.962e-07
0.006677
0.006648
2.363e-07
0.0005133
2.058e-05
2.783e-06
4.905e-07
0.006686
3.211e-08
1.076e-08
0.0005476
0.0067
0.003854
0.0003705
0.0002553
2.316e-07
6.571e-15
3.56e-08
0.005628
5.312e-08
1.305e-10
9.051e-05
3.19e-08
1.536e-07
0.002569
8.153e-05
7.092e-08
0.001035
0.0005537
0.006634
0.00659
0.006615
0.006282
0.0001749
0.0008256
5.842e-06
7.275e-08
1.836e-05
4.637e-05
0.0005818
3.517e-07
0.00611
0.0001351
0.000305
4.939e-07
6.049e-07
1.934e-07
0.0001285
7.616e-07
1.007e-07
0.0006514
3.929e-07
0.00022
4.829e-07
1.258e-13
2.5e-07
4.175e-10
3.753e-06
1.604e-06
0.006694
5.054e-12
0.0001275
9.233e-08
1.765e-05
0.0001341
5.851e-12
0.006694
0.0002121
1.433e-06
0.00434
0.0001202
8.418e-05
0.001142
0.0001749
9.266e-09
6.707e-05
6.645e-07
0.006624
7.578e-06
7.368e-06
1.29e-05
0.001056
3.719e-06
0.006684
0.004522
3.577e-05
1.8e-05
2.831e-07
0.0001534
0.0009947
6.42e-05
5.626e-05
1.834e-08
9.678e-08
0.001749
0.00254
0.0008222
0.0001417
0.0001157
7.928e-13
3.49e-06
0.006692
1.593e-10
0.006696
0.006693
5.482e-05
0.002387
2.994e-09
0.0009366
1.314e-08
0.0004556
8e-08
0.006695
0.000114
3.449e-05
1.879e-07
0.001835
0.003478
6.293e-05
1.343e-10
1.622e-08
0.006702
1.968e-09
1.243e-08
3.584e-14
0.002805
0.001943
0.001253
9.599e-05
0.0005767
0.002128
1.611e-06
1.149e-10
9.016e-06
3.215e-08
1.222e-13
0.006694
6.778e-08
1.229e-07
5.298e-07
0.006693
1.989e-08
1.34e-11
3.119e-13
1.714e-12
0.0001033
0.0004227
2.435e-12
0.0003295
7.296e-05
0.006687
0.001053
6.146e-07
0.002906
4.238e-06
1.684e-12
7.297e-05
0.0002168
2.75e-06
0.006706
0.005556
1.02e-07
5.865e-07
0.002703
4.226e-08
0.0001432
0.0001004
0.001476
0.0006453
3.211e-05
0.00016
0.006694
0.0003373
0.000363
1.845e-07
2.622e-06
1.213e-06
9.957e-08
1.26e-06
1.097e-11
5.395e-12
7.078e-16
6.843e-08
0.0001826
3.244e-08
0.0003477
1.396e-08
1.221e-08
0.006694
1.669e-13
0.006705
1.649e-05
3.265e-09
4.352e-09
0.0001298
1.556e-06
7.394e-06
6.361e-07
0.006631
1.049e-13
0.0001607
0.002795
0.001587
0.0001615
4.845e-12
2.694e-11
4.324e-12
0.001661
6.165e-08
5.374e-08
0.001079
2.472e-05
5.675e-07
2.034e-09
0.006668
0.000183
8.311e-07
0.0001138
1.034e-06
0.0006071
0.003039
4.684e-10
3.554e-07
4.235e-07
3.471e-11
0.00325
1.339e-09
3.897e-05
1.357e-06
2.146e-05
0.006459
9.345e-05
1.694e-06
3.192e-06
1.99e-05
1.225e-11
0.002816
0.004014
2.741e-05
1.536e-07
2.107e-08
0.0005236
0.003212
0.006438
0.0002714
7.386e-09
0.006337
3.785e-06
9.2e-08
9.664e-05
5.587e-05
0.000464
4.202e-11
6.997e-12
1.529e-12
8.347e-05
5.428e-08
0.0001236
7.358e-05
0.00181
0.002164
5.615e-10
0.001318
1.243e-08
1.353e-07
1.463e-08
4.15e-07
3.812e-05
8.436e-12
0.0009133
7.152e-07
0.0006481
0.003105
1.148e-06
0.0001313
0.001971
3.745e-06
6.217e-07
0.0001689
6.686e-07
1.359e-06
6.68e-12
1.202e-13
0.00267
4.472e-13
0.002082
5.888e-05
0.0001124
0.0001632
5.928e-06
0.006704
4.427e-07
1.087e-11
3.63e-06
6.394e-09
0.001147
0.0005885
5.429e-07
0.0001231
0.001339
2.396e-06
0.001587
1.489e-09
7.007e-05
0.005247
0.0001117
7.532e-07
0.0067
0.0004609
6.088e-09
0.006695
3.217e-05
2.467e-05
1.437e-07
2.161e-05
1.283e-09
0.00238
0.0005011
4.476e-05
2.977e-08
6.505e-08
5.078e-08
1.009e-06
0.006684
1.404e-07
0.006694
7.861e-05
2.415e-05
0.001147
1.972e-12
3.098e-05
3.37e-08
0.002214
8.134e-09
2.336e-05
0.002167
0.0006937
3.685e-06
0.00667
3.296e-05
0.006695
3.764e-08
1.369e-07
1.49e-06
0.0001345
0.006637
1.308e-06
1.133e-07
0.0001117
8.89e-09
2.523e-05
6.66e-07
0.0005476
0.0003229
4.616e-05
4.185e-05
2.834e-05
2.497e-06
0.0001238
1.365e-05
0.0001072
3.864e-06
0.0001248
0.006623
0.006673
0.001895
0.0003188
5.277e-06
9.304e-07
2.067e-06
0.002249
1.889e-07
7.396e-06
3.296e-07
0.006698
8.007e-07
3.606e-05
4.865e-09
0.002759
1.815e-13
0.0004543
3.233e-09
0.00349
0.0001374
2.179e-11
0.0003258
3.789e-07
3.092e-07
2.121e-07
8.8e-06
0.0001784
0.006694
3.028e-07
8.865e-06
0.0003227
0.0001561
0.0003592
1.478e-05
0.0004193
1.03e-06
4.921e-08
0.006687
0.001032
1.674e-06
5.014e-09
6.644e-06
0.006701
1.022e-05
5.795e-07
0.000769
0.0008512
7.327e-06
1.784e-07
0.0001852
2.247e-06
2.576e-05
0.00241
0.0001248
0.0003829
0.00527
5.08e-06
1.815e-12
0.0003379
0.0001392
1.08e-08
1.373e-05
2.366e-05
0.006691
0.0003178
9.705e-05
0.003474
3.972e-11
5.268e-05
0.006697
0.000963
6.314e-07
3.518e-14
0.006697
0.0006554
6.939e-09
3.399e-07
3.606e-05
5.841e-05
4.343e-08
0.0001759
3.385e-06
2.834e-08
9.932e-11
1.594e-07
0.001882
0.0002221
0.000667
7.466e-05
0.006683
6.377e-05
2.051e-05
0.0008689
7.56e-06
3.379e-12
1.333e-09
0.002079
1.083e-06
7.983e-11
0.002065
1.014e-07
0.0006506
3.561e-05
7.536e-05
5.324e-09
1.73e-11
0.006688
1.645e-05
6.263e-07
0.006697
1.771e-08
0.0009735
1.022e-05
0.0001566
0.0004022
2.866e-08
9.473e-06
4.293e-06
0.006671
0.002655
0.001956
0.0001342
0.006696
9.254e-05
0.0003486
1.198e-08
0.002837
0.001084
1.187e-07
4.252e-09
0.001841
0.000298
0.00668
1.443e-11
1.163e-05
3.749e-08
5.937e-08
8.119e-05
3.492e-07
7.326e-05
3.94e-05
2.291e-12
0.003751
5.72e-11
0.006674
0.006686
0.0004051
4.39e-05
0.006683
9.359e-13
3.188e-07
1.584e-07
3.45e-08
0.0001171
0.0003793
0.004907
7.657e-13
0.0009721
9.493e-07
0.006673
1.849e-05
0.0001151
0.0003412
0.0002662
0.0003545
0.003207
5.114e-06
0.006656
0.0002968
1.183e-07
3.851e-08
6.831e-09
0.000103
0.000596
5.989e-06
0.006699
8.717e-06
8.426e-06
0.0001435
0.0002162
0.00029
6.467e-11
0.005948
0.006684
3.63e-06
4.488e-07
0.002406
1.882e-08
0.006701
9.671e-08
6.622e-05
5.939e-07
0.006701
7.215e-05
1.627e-08
2.657e-07
6.099e-08
0.0007158
2.562e-06
0.006684
4.916e-08
0.004653
1.221e-06
1.18e-12
0.002977
0.0001411
0.00165
1.507e-07
1.004e-09
4.966e-06
9.059e-05
0.006657
0.0003304
8.929e-05
0.006691
1.083e-05
7.823e-07
0.001959
0.006703
0.0001291
9.016e-05
0.00016
2.424e-07
0.0001306
0.006696
2.762e-07
9.498e-07
4.761e-06
0.0006466
0.006697
0.006692
0.0007074
0.0004734
0.001513
4.467e-08
1.831e-12
2.617e-11
1.025e-06
6.115e-11
1.17e-09
0.004663
4.059e-12
0.0002289
9.141e-08
0.003232
7.045e-05
2.031e-05
7.106e-08
1.623e-06
4.24e-09
4.273e-06
0.000306
0.0005554
2.105e-07
6.509e-07
9.494e-06
0.0001008
7.463e-05
3.715e-05
1.527e-07
0.004128
0.0004576
9.831e-06
3.109e-05
9.935e-06
1.465e-06
1.554e-11
2.072e-08
0.006662
7.039e-10
0.0004139
0.006664
1.789e-06
0.006694
2.077e-07
0.0001874
0.002485
7.071e-06
6.377e-07
0.006707
3.057e-05
0.00288
1.468e-10
0.0008923
1.543e-05
3.789e-11
2.736e-05
0.006688
3.248e-09
0.000512
0.0005641
1.678e-05
0.001989
3.003e-07
2.518e-12
4.582e-08
0.0002153
0.001698
1.823e-05
4.873e-06
0.00669
0.0002218
1.946e-07
5.167e-07
0.0001176
0.006701
9.608e-12
2.55e-07
1.792e-06
0.0001424
0.0003394
0.0001623
0.006657
0.000189
2.086e-06
2.971e-05
4.006e-05
3.828e-07
3.148e-08
0.002316
7.8e-06
7.884e-06
0.001988
5.341e-05
0.002905
2.008e-06
9.778e-05
8.603e-06
0.0067
2.138e-07
0.002252
0.0004255
2.619e-05
3.99e-05
1.012e-07
0.0001641
1.385e-14
0.001297
1.962e-05
0.002039
0.006679
2.152e-05
2.911e-06
2.446e-09
2.875e-07
3.53e-05
6.474e-08
1.023e-08
0.0003987
2.321e-05
0.0002311
9.732e-08
2.417e-10
0.0003751
0.0001059
5.055e-09
4.794e-05
1.184e-08
6.894e-06
0.00186
0.0009187
1.957e-07
0.006693
9.61e-05
7.613e-05
0.00669
0.0001906
4.911e-09
0.002058
7.54e-14
3.745e-08
7.505e-06
0.006691
0.0003863
3.976e-05
0.003332
0.000648
0.0003221
8.219e-07
1.598e-05
8.926e-08
0.006696
7.988e-05
0.006688
3.904e-05
2.137e-05
1.849e-06
2.889e-05
1.023e-07
6.075e-14
0.006613
0.006692
2.113e-06
8.236e-07
8.225e-09
9.508e-05
0.0001323
2.659e-08
0.001074
0.001646
0.002323
7.514e-07
6.383e-09
2.45e-05
0.0005046
0.006687
1.154e-06
6.142e-05
0.0003178
7.044e-08
7.827e-05
0.001813
1.178e-07
0.0001583
0.0003693
2.723e-06
8.129e-05
0.0001191
0.006689
0.006524
6.513e-08
5.336e-08
3.955e-06
0.003734
0.0001146
0.0028
2.832e-07
5.348e-06
0.006607
8.115e-06
1.875e-05
3.453e-13
3.866e-08
1.427e-07
0.006681
5.737e-08
5.045e-07
9.997e-07
1.163e-06
1.069e-11
2.206e-05
0.000417
5.084e-07
8.649e-07
3.328e-08
1.749e-09
0.00192
0.002725
0.003735
8.444e-05
9.955e-14
0.0007386
0.00192
6.196e-08
2.248e-06
0.00165
2.439e-07
0.0003213
1.535e-09
0.00131
6.149e-07
0.0005977
2.747e-05
8.259e-06
3.576e-13
0.0006258
4.225e-11
1.847e-11
0.006693
3.829e-11
2.029e-06
8.927e-09
1.155e-07
0.0003579
0.001169
5.067e-05
6.143e-07
8.886e-06
4.313e-05
0.001126
0.0009546
0.000333
0.0008783
0.0001382
1.583e-05
6.649e-05
0.0009174
1.805e-11
0.0003735
1.824e-08
5.428e-07
5.533e-08
0.00665
2.558e-06
0.0001563
4.075e-08
0.001504
2.117e-11
1.504e-05
2.031e-07
9.305e-05
3.445e-08
8.291e-05
0.0008883
0.0004566
0.0002385
8.826e-05
0.0006671
3.916e-06
0.0002081
2.393e-05
5.147e-06
2.255e-07
0.0004628
2.04e-11
4.889e-06
1.255e-11
3.783e-05
0.0009813
6.738e-05
0.002198
0.0001223
3.182e-07
0.006695
0.002883
0.006693
0.0003086
3.513e-07
1.935e-05
0.001148
7.735e-06
0.000518
5.709e-05
1.878e-12
2.706e-09
2.123e-11
2.397e-07
8.708e-05
3.001e-08
4.761e-08
0.0001525
2.108e-07
0.006695
0.0004442
0.003512
8.179e-06
0.001343
0.00668
0.006685
9.549e-05
0.002467
0.0001456
1.194e-12
2.94e-07
0.006673
0.006693
8.731e-07
0.0002717
5.13e-08
1.497e-10
0.005253
3.509e-05
6.593e-06
1.941e-07
6.799e-06
1.753e-12
8.977e-06
0.0001027
1.426e-06
1.363e-07
2.182e-05
1.687e-05
5.954e-06
1.322e-05
2.786e-08
6.513e-05
5.768e-14
0.005874
1.199e-06
3.352e-07
2.581e-08
0.006695
0.0004125
0.006694
0.001382
0.001003
3.832e-06
0.0003901
2.572e-07
1.299e-06
0.0001093
1.249e-08
8.978e-08
7.885e-07
1.961e-08
3.187e-08