/*--------------------------------*- C++ -*----------------------------------*\
  =========                 |
  \\      /  F ield         | OpenFOAM: The Open Source CFD Toolbox
   \\    /   O peration     | Website:  https://openfoam.org
    \\  /    A nd           | Version:  8
     \\/     M anipulation  |
\*---------------------------------------------------------------------------*/
FoamFile
{
    version     2.0;
    format      ascii;
    class       volScalarField;
    location    "10";
    object      omega;
}
// * * * * * * * * * * * * * * * * * * * * * * * * * * * * * * * * * * * * * //

dimensions      [0 0 -1 0 0 0 0];

internalField   nonuniform List<scalar> 
127143
(
3.821e+07
7.184e+07
8.194e+07
3.494e+07
2.933e+06
3.537e+07
1.159e+06
2.025e+06
3.234e+06
4.719e+05
1.704e+06
2.662e+06
9.642e+07
2.958e+07
388.2
7.925e+04
9.896e+06
15.1
9.03
3.253e+04
19.5
7.135e+04
0.08414
263.3
7.684e+04
1615
5988
5756
5110
13.11
404.5
1774
6494
1119
0.04307
7025
42.98
83.39
204.6
2128
9.088
0.5026
0.3552
1.373e+07
14.63
1129
4587
17.61
263.2
229.5
5.048e+04
0.0254
58.61
0.2085
0.02093
554.8
0.02091
0.3145
0.02226
0.207
0.3275
10.15
73.54
0.02211
379
0.4097
0.04889
89.36
88.74
0.08212
302
4085
12.63
0.02225
0.02179
4162
0.02303
27.27
546.2
0.02222
4764
2.902e+04
390.1
1326
13.98
23.9
158.2
4689
0.3473
661.7
0.0221
6.501
312.6
19.45
54.61
0.2769
0.462
541.8
15.38
0.0483
0.02221
248.1
2822
4.676
22.82
15.88
87.35
0.08243
1.412
0.02132
296.8
5215
29.23
6.485
0.02175
1.42
0.02322
0.02179
0.02291
2.882e+05
0.02134
354.4
38.53
0.1524
4688
2759
10.77
0.02365
66.36
612.9
36.01
57.59
37.75
26.66
1.119e+06
34.17
0.05238
19.55
3538
0.04613
0.1207
0.02244
55.01
34.49
60.14
49.25
1.842e+04
0.02213
61.9
3723
9.915
234.5
88.54
0.07081
39.33
13.67
0.3148
768.6
17.25
656.5
289.5
9.342e+04
0.02211
35.75
1386
299.3
53.58
0.5154
861.6
0.02637
817.2
33.99
2.256
18.14
0.2657
41.71
28.28
66.18
230.6
0.03269
18.05
0.03142
38.74
40.89
605
10.11
0.09158
6.883
243.8
0.03225
45.73
62.59
0.04817
78.41
2.051e+06
12.39
0.01942
0.01935
2.222e+05
0.02181
0.02171
0.02638
1.926
38.49
1.109e+07
130.8
0.04826
17.98
12.02
0.02175
0.2187
17.33
0.02166
869.8
67.04
2.288e+05
2631
19.01
33.03
0.0485
18.69
0.02184
236.5
68.55
782.6
912.5
972.1
85.04
292.2
12.44
20.82
0.03127
12.17
1.97e+05
20.61
0.08393
35.73
4.482e+06
0.02171
46.1
59.74
218.3
25.89
751
126.2
2.284e+05
148.9
5825
1.703e+05
0.09938
3.47
1172
24.66
23.63
372.5
1.495
0.0236
1285
4.844
0.05549
14.36
0.02599
4.053
0.02236
106.7
268.8
149.4
82.88
0.6529
58.42
903.8
0.2628
14.47
45.55
42.02
45.94
28.74
193.4
0.4928
2.864
0.06725
0.629
4.59
0.02176
0.02174
1.891e+06
43.45
0.02175
211.8
0.03407
87.47
0.206
0.08356
3.504
0.0217
2.851
357.3
118
25.9
49.47
524.6
0.362
0.2895
1.177
903.3
19.93
17.85
0.02167
23.94
20.02
97.55
762.9
634.1
0.05277
0.02173
408.1
79.04
534.5
0.245
1.981
0.07921
327.8
0.029
24.76
435.5
94.1
0.03152
110.5
340
17.41
11.45
0.02174
0.04259
0.01943
0.01936
0.06943
1.382
2.246
11.48
52.05
0.04526
19.03
67.87
46.6
8.297
212.5
174.9
38.57
491.3
75.49
432.9
10.61
44.56
46.17
0.02838
149.3
23.39
40.2
0.02342
343.1
12.17
60.15
20.2
220.8
223.6
0.02192
0.0218
1.412
407
0.5028
0.9525
0.02915
781.7
238.8
0.03064
0.07861
324.9
1.546e+05
14.96
0.5061
31.88
2036
395.2
0.3593
0.02313
1.27e+04
0.03723
1842
12.44
52.28
0.0219
0.198
457.1
367.8
242.9
393.1
0.2018
345.6
0.02828
0.02566
1280
0.02184
22.04
36.81
0.0383
15.47
20.79
34.92
0.02222
210
10.48
527.8
0.1215
15.69
25.55
52.92
19.9
1006
115.1
213.2
50.65
4711
86.92
0.07526
12.66
0.06353
0.3153
0.08283
184.3
0.05659
0.02115
87.93
50.39
2.915
269.2
0.02192
19.95
147
0.02509
0.02169
0.02172
205.2
0.05311
1.773
0.0241
517.2
0.02174
144.8
1.493
17.31
17.07
349.9
13.12
494.2
0.03725
34.64
593
148.2
29.4
83.67
30.72
70.96
35.63
2.433
67.85
0.1999
0.02204
31.06
228.7
0.02078
13.1
2.586
0.1529
80.97
0.04274
0.02028
33.62
1.75
380.1
94.05
5396
116.8
123.8
638.2
5.741
266.7
111.2
0.02164
526.6
0.02243
212
142.9
54.1
56.27
3.46e+06
41.69
2.21
0.1017
3.404
0.02167
5376
0.02208
33.31
12.59
5.043e+06
2.528e+05
8.19e+05
0.02194
147.9
262.6
0.02173
11.14
62.12
38.81
5.371
17.52
353.5
13.01
3505
0.1696
20.53
1.664e+05
283.3
497.4
657.3
0.02212
9.042
1.197
37.56
0.02203
627.7
3384
450
0.01965
30.88
0.08995
1556
8.069
1430
31.2
0.02252
160.8
5.634
0.02081
0.361
103.3
317
218.8
243.7
451.3
12.48
152.8
150.4
40.05
82.5
0.02199
1479
31.23
580.7
45.26
22.48
0.02212
0.02207
0.05285
182.1
5.636
0.02174
0.02914
2.947
544.2
21.52
5.786
748.1
3027
1.521
0.02257
0.02134
448.7
14.78
56.58
0.03174
3942
32.28
68.97
0.4986
856.5
0.02173
19.73
31.27
45.17
0.02672
174.8
14.47
2.035e+04
0.02026
81.31
2529
0.02171
15.44
0.02175
158.7
97.56
0.02176
280.6
319.9
421.6
51.4
62.96
429
393.3
21.13
187.2
223
212.8
51.15
74.9
667.8
0.0268
525.7
0.02174
5.184
0.02396
56.78
0.02116
0.02175
0.4431
210.2
24.52
0.02137
0.02115
252.3
2127
277.8
474.6
10.17
1.706
16.77
11.77
46.89
130.5
438.2
0.0214
102.2
47.22
0.4144
31.88
0.02218
0.02909
98.73
2675
111
1.093e+04
0.0239
0.03803
45.37
122.5
0.02612
396.8
0.1164
0.08553
223.3
4.843
48.22
0.09574
8.656e+06
778.8
28.57
34.93
42.49
70.83
725.8
140
0.02455
61.03
129.2
21.83
0.02121
184.1
0.2976
0.1986
0.01963
0.02119
1.121e+04
0.1023
401.3
60.74
74.71
24.01
0.8369
631.3
0.08595
357.1
0.02163
0.02089
4.545
0.06591
336.5
0.1902
1300
9.987
370
0.1527
19.91
0.03597
510.7
0.04295
384.8
1.213e+06
35.46
115.2
14.46
0.02814
61.44
217.6
8807
13.07
30.19
46.87
3201
20.26
273.4
8.593
290.9
78.25
19.89
10.72
0.2352
1.868e+07
0.2951
0.02614
106.1
54.52
140
0.02155
58.11
10.99
21.26
0.04079
1.159e+04
78.81
874.4
0.04498
158
50.21
135.5
79.35
0.03766
16.58
579.6
284.6
24.39
0.02184
69
61.11
0.02188
18.65
0.641
66.92
41.15
0.3166
35.67
1517
120.6
0.01934
16.74
9.841
1484
509.3
0.2353
10.94
397.1
0.01938
36.92
222.6
91.77
1.37e+05
94.05
419.8
29.96
23.71
1.935
0.02193
1.397e+07
34.85
48.75
994.7
23.83
129.1
61.91
261.3
0.02132
11
4.711
0.03796
81.28
209.5
89.72
39.46
0.02048
16.25
45.74
0.02164
0.02043
32.26
10.14
10.17
122.3
19.74
4.925e+04
7.691
0.1692
0.02123
21.09
47.6
369.3
718.3
0.4508
0.05503
0.02202
2.551
4634
0.02125
0.1346
1701
60.45
1556
0.02537
23.69
65.56
0.0218
480.2
0.0212
79.91
4831
97.38
140.3
3356
0.02194
257
0.106
606.6
245.7
769.9
4551
0.2334
0.4576
0.9485
2e+04
0.02178
67.94
514.2
672.7
136.3
5113
0.05287
0.1698
460.8
2171
1.135e+04
517.2
3.474e+05
322.3
6.393e+04
55.44
799.6
11.42
8850
0.02296
115.3
0.02716
0.02605
43.57
0.02595
52.17
14.69
5.588
1.067
0.03815
582.5
114.2
0.02189
20.6
38.16
0.03673
349.8
3.784e+04
34.96
14.87
304
40.87
183.7
0.02169
55.37
385.1
0.02323
267.1
30.57
10.34
0.02069
2.42
25.81
1.131e+05
2.74
3.826e+04
12.94
17.7
87.48
3789
140.5
0.02331
3104
0.335
0.02421
2.142
1.213e+05
40.73
212.7
10.59
2.415
7387
5.832e+04
264.6
0.02253
0.02183
16
4.354
59.83
257.1
24.07
2031
184.8
0.07672
1991
0.04869
1920
0.0216
18.07
745
31.37
91.56
14.8
0.02177
0.02186
691.9
0.1512
103
263.5
259.6
13.19
121.3
106.1
106.3
1.54e+04
56.97
450.7
266.3
14.17
12.41
78.99
115.2
1525
4.46e+04
15.22
0.02155
0.02139
14.84
25.95
0.5193
0.02082
13.89
16.92
0.515
200.7
106.1
158.8
1.988
0.02223
0.2414
0.5773
4639
908.3
52.69
0.2611
62.08
368.1
251.2
28.84
9.35
30.05
149.3
53.79
2386
0.02311
4805
4528
9.723
48.98
435.1
0.02176
1.148e+04
1.758e+04
0.02167
0.02154
51.35
22.6
1.624e+05
142.3
110.8
398.2
223.6
0.2711
0.3354
0.0225
272.3
19.09
132.6
2.071
1936
29.82
0.02757
1.153e+04
71.35
0.02172
117.2
0.02488
0.02165
23.83
0.09051
1.222e+04
0.02157
478.3
0.02181
254.8
0.07712
18.78
7.367
471
327.2
267.7
41.75
0.05578
0.0345
33.15
203.7
136
177.5
3879
270
1.759e+04
54.85
383.6
213.1
308.1
1569
0.1288
13.21
0.0392
191.6
83.2
842.3
0.06439
355.1
12.82
92.92
106.3
46.16
0.7596
557.7
17.19
92.94
119.4
648
257.8
0.02098
23.66
201.9
0.02184
107.4
323.8
0.02068
1.451
146.7
0.03375
0.1351
50.43
92.55
0.1449
0.01979
95.99
98.79
0.02164
0.1008
0.03063
16.47
126.2
9.481
0.03494
725.8
3.484e+04
511.7
266.5
11.89
8845
0.07621
164.6
0.02176
21.76
6.503
79.62
106.2
895
2642
0.02196
1.665e+05
599.6
464.6
56.99
1284
13.48
13.88
1029
74.38
0.03298
3.354e+05
33.57
261.5
729
189.8
88.59
75.18
1967
96.89
50.53
140.1
352.2
285.5
39.71
3.092e+04
0.09753
124.1
0.08758
492.9
0.0197
0.02165
85.85
1.129e+04
18.91
1.011
1.314e+04
429.5
0.0218
1760
110.8
127.2
3.858e+04
1.64
53.67
3.373e+06
21.05
3031
12.11
83.1
1479
294
666.7
6.011
136.4
0.07407
16.6
58.99
58.23
7.044
114.1
10.47
7550
15.96
0.2169
13.45
0.468
0.6457
12.96
2.944e+04
0.03803
2671
920.2
67.65
35.22
0.0218
11.24
47.19
1.081
1365
727.6
883.6
0.02136
373
778
27.73
1.122e+04
111.9
13.91
322.4
0.02197
406.7
51.89
3572
72.6
0.06349
16.3
0.02174
4.124e+04
1.304e+04
32.03
0.4542
5.829
0.02086
0.01978
216.8
21.77
8.631
0.07921
0.0503
0.05194
3.544
22.05
23.13
103
244.7
1.338e+04
0.6759
785.7
69.61
107
0.01981
395.7
11.23
69.91
1.659e+04
102.8
12.52
48.54
59.73
27.78
5.176e+04
30.29
30.26
11.14
14.07
4.863
230.1
4.295e+04
0.1409
593.4
0.02118
258.3
1040
0.02032
1463
38.23
42.65
375.8
0.02138
0.704
1.104e+05
0.02177
219.8
256
95.96
4696
0.5251
4.632
361.6
1479
37.02
93.69
0.05256
94.1
3112
6582
363.8
33.08
0.02169
117.4
13.43
609.9
130.3
9.891
35.33
0.02174
2.107
106.8
0.02206
9.928
0.0223
3007
10.13
9450
86.77
75.63
365.9
26.75
181.2
393.4
8.516e+04
38.84
71.7
82.9
23.28
14.21
0.02211
52.06
0.02218
11.11
0.022
12.48
0.02147
136.6
63.73
0.02067
0.02162
185
0.1562
428.1
0.08819
0.02006
5.178
24.06
0.03196
8.69e+05
1476
9.033e+04
181.2
39.03
280.7
183.3
41.22
0.6121
2249
23.71
638.4
288.1
46.76
79.66
8.9
0.02156
8.447e+04
31.16
2333
0.02179
1.513e+04
184
293.8
76.25
0.01974
0.01972
6.224
31.41
6.414
10.62
66.83
0.6394
0.7659
2.288
3.749
1364
90.11
0.731
19.04
4.965
442
390
82.87
306.8
14.33
0.02196
78.21
98.18
5620
65.18
0.0339
71.57
1.305
153.9
47.57
576.7
15.86
0.02174
21.83
28.78
2.138e+04
4668
0.5228
34.72
544.7
0.119
0.01972
836.3
193.1
7.833e+04
0.05774
3.13e+04
59.98
0.02153
89.87
571.2
11.67
0.1091
19.98
341.2
57.59
74.75
47.95
1169
0.04034
214.2
579.8
473.9
0.05491
0.05479
324.7
8.99
7.525e+04
82.73
564.5
622.1
8.492e+04
1.389
148
0.02512
0.02179
0.0215
16.01
0.02269
2.367e+04
0.02173
3296
0.2474
18.77
283.7
435.3
0.09209
7982
0.2467
168.6
14.07
4685
0.0217
70.36
300.2
12.91
3822
712.4
19.88
849.7
1357
0.04453
0.0206
3823
0.07205
0.01997
0.2492
3229
0.0206
1429
0.02184
42.07
135.9
14.85
77.72
0.02092
18.69
279.2
85.6
0.06518
13.27
0.1493
0.02174
0.02122
49.31
1.537e+05
23.56
93.75
0.02447
1.049e+04
0.2831
0.07337
0.05942
1.228
71.81
393.7
0.02537
196.1
0.02236
46.3
0.02217
0.2601
122.1
34.33
4.254
708.7
89.47
0.02119
93.85
1055
193.9
1.383e+04
745.2
13.9
0.03276
2.455
1.716e+04
74.39
948.9
9621
0.07279
0.1561
0.0216
76.5
195.4
79.53
0.0218
274.3
0.02175
0.1704
75.11
0.02139
13.24
0.4109
18.16
17.07
0.898
286.7
0.0219
375.1
2620
3.236
8.721
174.5
0.04079
158.6
42.74
1432
49.84
40.67
478.3
43.65
85.32
3358
0.0724
0.1698
70.26
0.03362
234.7
17.27
0.08864
83.34
0.02428
0.3175
1588
25.54
189.5
63.07
1.451e+04
42.69
5552
0.7803
0.02066
5628
136.7
0.09022
309
0.02732
79.05
0.02223
13.58
3147
13.25
6.998
68.71
147.3
0.02187
64.36
0.2569
4.811
491.1
0.02495
102.3
1133
0.02159
0.02553
52.89
0.0717
87.06
1.937
1.315
14.44
0.5492
18.96
0.07055
2.063
50.38
0.02098
0.1509
525.2
1.479e+04
0.02088
160
4516
23.01
162.6
10.62
165.4
1.439e+04
0.05754
0.1098
68.14
0.02557
472.4
8.678
20.72
1856
93.1
0.02459
98.53
2.224e+05
8.321e+05
63.35
75.5
93.36
0.79
15.58
12.42
23.74
555.4
177.8
168.2
169.4
7434
16.37
1.605
0.02172
677.5
1.774
22.73
0.1813
0.0419
143.1
64.26
12.56
0.02037
461.6
759.2
117.7
183.5
12.8
1.566e+04
287.6
0.02687
119
5814
23.21
110.4
2.572e+04
0.01939
2148
421.3
166.7
0.02744
19.42
11.9
520.7
157.7
15.08
742
0.03128
2.361
198.2
0.04882
12.12
0.02171
346.7
2616
156.4
805.1
1.188e+04
21.57
6520
0.1043
575.6
4.18
9.446
0.03716
10.92
31.84
17.72
123.2
0.06256
97.57
5.871e+04
1.577e+04
45.84
68.81
0.4932
0.6214
0.02192
0.02588
68.42
0.2872
0.0217
79.63
136.2
242.1
106.7
12.11
196.8
68.85
1347
1.671e+04
1.821e+04
0.08287
96.8
4.583e+04
10.68
1774
15.77
15.21
43.6
5.816e+05
11.92
14.44
0.04248
0.05387
774.3
57.59
0.02174
0.02196
11.36
752.7
15.16
107.7
1.031e+04
8.56
0.02347
616.4
9.778
71.72
1567
0.6651
6.861
60.27
47.86
0.7008
60.08
0.02188
530.5
8.697
668.7
18.48
218.2
2097
2.054
651.4
80.5
560.8
148.6
1699
0.08336
11.85
32.94
19.05
317.5
79.9
3681
288.8
0.02168
94.79
15.95
543.8
65.27
0.2551
32.46
0.09444
1804
0.04722
72.98
27
46.69
11.06
30.51
0.2171
1.607e+04
0.1799
0.02495
622.4
0.02091
17
0.03158
0.8325
11.09
0.02151
0.2432
214.5
1199
0.02177
0.02335
10.34
19.82
109.5
0.1914
96.88
40.13
745.3
369.8
31.31
177
118.6
0.08431
110.7
1.701e+04
10.34
2283
326
10.65
1.425e+04
0.02174
0.0206
0.9286
3.395
9.238e+04
0.0218
22.35
497.3
8.55e+04
248.4
486.8
0.0198
0.01947
309.9
60.99
42.6
31.83
0.03269
45.06
1.613
0.02222
612.3
166.6
80.13
32.65
1674
2.766
2.054
0.0198
12.31
189.6
646.5
416.9
45.85
5222
367.6
46.87
123.6
196
54.36
0.06566
140.6
3295
0.02783
0.02606
193.8
96.46
3871
1.206
532.3
74.29
0.1409
0.02174
4.98
0.02211
20.54
1.153e+04
18.09
0.1167
69.79
0.04384
6723
511.4
0.06501
14.94
12.25
93.75
23.78
62.8
55.62
46.34
32.18
30.51
18.13
11.76
1235
119.2
33.8
97.24
7029
71.85
346.9
381.6
2.817
1.371
21.38
6567
0.335
98.58
0.02241
14.53
0.02214
147.5
9.402
6581
111.9
0.08207
975.6
5.372e+04
806.5
29.47
63.94
547.7
1431
0.2593
24.96
31.51
3.438e+04
53.38
27.98
0.2032
0.2408
0.02175
37.89
5580
5.438
955
11.3
0.0893
1155
0.01972
81.9
0.383
17.86
1046
0.1694
1.922
8.622
0.03848
193.1
25.79
1.776e+04
727.4
164.6
0.02142
32.85
132.1
2994
1183
34.8
9.742
51.3
0.02173
265
553
3.595
14.47
67.95
1667
490.9
339.8
40.99
0.6208
1.48
6889
13.47
0.07508
2.31e+04
0.06706
9.281
0.02176
0.02199
49.07
0.02196
530.5
63.62
25.59
33.66
484.8
1455
53.65
459.3
54.5
14.93
1.484e+05
22.15
42.16
1.948
5.788e+04
12.61
4832
5847
0.04238
561.8
461.8
4.279
13.37
3100
272.4
840.4
15.42
23.9
0.02659
9.525
0.02206
0.5697
12.77
279.5
114.5
75.24
9879
11.78
0.02195
169.4
23.27
36.02
46.82
27.49
57.93
450.5
1196
5149
146.5
206.8
474.8
38.88
131.6
0.06756
7.239e+04
151
82.78
1.21
0.02161
154.5
203.7
15.62
4.02
5510
507.3
219.9
68.01
39.72
2309
0.02167
4062
10.54
0.03758
29.56
465.6
0.02169
109.3
12.12
11.91
5716
7.428
53.45
5.813e+04
22.44
199.5
0.0197
0.01962
191.9
117.1
2.351
203.2
120.7
0.02151
1916
688.2
42.54
0.02178
0.02196
52.15
82.44
195.1
1.963e+05
491.5
0.02682
397.2
1.863e+04
0.08028
455.7
260.8
0.09817
0.798
847.4
28.79
31.63
0.01964
0.01948
0.01946
0.02011
0.07262
25.63
21.41
478.1
7.649
142
23.1
563.2
0.02077
48.72
33.86
1790
571.4
2265
104.6
62.22
267.1
38.74
146
0.08922
91.78
1.1e+05
180.7
2055
0.2979
95.49
0.02174
6.032e+04
37.87
292.3
7.348
0.03077
1.917e+04
0.02179
43.5
442
0.03863
67.91
51.56
17.02
70.07
3657
0.04148
355.5
0.02067
2.248
129.1
142.4
15.09
44.99
0.02151
0.02174
0.2161
352.9
579.8
0.1894
16.12
85.91
2.931
1807
270.9
27.73
9.728
25.24
33.36
0.1428
2.915e+04
0.2729
0.02174
4794
0.02172
0.0217
0.3023
0.1039
3372
12.84
723.4
21.43
275.9
0.02187
0.07926
190
175.4
12.36
0.05197
0.1918
1.768e+04
1834
0.02213
3467
2447
9.476e+04
0.06753
23.24
30.8
0.07418
0.02369
21.95
116.8
1.412e+04
0.07345
425.2
6.369e+05
0.02175
309.2
972
116.9
0.02178
520.7
2.349e+04
3.852e+04
1.965e+04
0.368
132.9
2.035e+04
0.04826
48.73
0.02154
15.24
372.9
11.7
234.2
1.904e+04
0.1951
70.57
55.61
0.02225
0.02736
337.1
567
17.78
3988
61.87
1.207
11.63
39.02
171.5
36.47
0.02175
66.84
50.56
177.8
216
110.8
321.7
79.19
2.508e+04
2.877e+04
3.566e+05
354.2
0.04472
726.3
0.02471
580.2
1037
0.02176
1.925e+05
0.02221
103.6
5484
1221
93.35
84.1
254.4
205.9
0.01963
1.637e+05
244.1
0.05676
11.19
68.94
3.147e+04
6080
5.738e+04
12.38
362.9
1954
19.63
0.06885
79.29
3518
0.02088
32.99
58.29
106.3
49.84
29.53
11.12
1886
111
126.8
5949
0.05369
1395
0.07846
47.83
121.8
0.02297
0.09285
41.31
341
158.9
2.409e+04
0.05481
0.02175
5.317
200.3
1289
24.55
9.791
0.01957
0.02937
729.1
0.01994
183.6
317
0.06366
70.1
35.62
7844
2.567e+04
1.51e+04
0.03294
375.4
52.71
84.59
22.58
12.53
6927
13.53
779.9
213.8
3250
170.9
1.506
1.469e+04
23.57
78.49
35.2
0.05012
51.19
0.1356
0.02188
25.51
120.9
32.89
193.6
40.06
4.702e+04
7.37e+04
9.764
5.447e+05
0.2634
0.3511
0.03085
0.05066
26.25
0.02221
246.2
2.155e+04
221.3
2028
43.28
73.5
143.2
44.73
12.11
327.6
14.83
2306
88.18
0.02572
74.74
81.65
0.02204
0.03689
881
0.02185
102
104.2
208.7
7.343
1279
0.09383
18.28
0.03783
505.7
5264
546.2
55.46
0.02143
321
0.02156
0.2594
78.98
53.58
1.432e+04
91.16
416.3
16.27
1332
0.4496
0.2019
14.45
184.4
0.02084
4.873
0.02185
525.4
841.9
130
42.36
0.02153
351.2
286.8
72.5
1.443e+04
117.4
1031
0.02308
25.39
3.512
2.034
138.1
26.72
0.07215
2.492
0.1075
18.56
78.64
0.02069
0.02027
0.02217
0.03573
0.1367
1357
256
0.02183
191.4
10.98
131
0.02194
192.2
0.06946
916.9
0.08577
1.085e+05
136.1
974.2
0.04223
0.0837
1.528e+04
0.02731
128.5
151.7
215.3
127.5
53.85
0.02181
222.4
254.5
83.58
47.82
48.11
8.512
21.14
70.25
1183
0.0215
15.35
43.35
1922
0.101
0.02209
142.6
722.7
14.58
18.87
15.19
409.5
0.04242
28.29
264.4
10.3
99.15
109.7
0.0256
5.135
1.582e+04
108
91.79
2028
1.279
6.972
0.02167
0.02688
0.1095
0.04461
1.539e+04
67.78
0.02195
0.02259
85.63
7.597e+04
0.02194
18.9
5586
127.8
4.795
93.6
1499
58.71
16.27
445.1
2.919e+04
1054
0.0219
29.71
77.84
57.26
0.02139
0.2981
89.24
21.58
184.7
1.882e+04
2475
21.11
387.1
3.038e+04
16.22
439.6
17.77
1.081
0.6972
938.2
1.042e+04
0.02157
130
107.6
0.02193
2385
12.42
1.539
0.06148
81.87
433
122.5
36.12
0.02171
0.0218
18.97
93.87
0.02004
30.22
0.02483
1064
9.944
12.49
309.3
826.8
29.79
88.35
0.02141
1.831e+04
12.39
1927
336.5
0.07576
599.7
70.78
113.6
1.437e+04
8.821
1.342e+04
0.02075
0.02124
18.6
0.05098
0.02139
3.511e+04
174.8
263.5
1523
179.1
24.12
0.02738
3.404e+04
0.037
74.49
0.02025
0.111
105.3
28.75
29.1
78.75
8.737
408.5
0.02047
30.02
1807
1511
2533
0.1123
32.59
15.9
0.02195
385.2
168.5
0.1911
0.0422
57.47
1.478e+04
0.02185
0.02152
21.79
1149
10.3
1550
0.02206
2363
54.63
111.8
0.02208
0.06417
540
190.1
903.3
15.99
16.43
0.02046
447.4
0.0298
482.8
2.396e+04
0.05281
77.72
10.76
3479
9537
490.9
0.05182
0.02047
45.74
0.1453
0.02164
202.4
179.4
16.77
0.02036
0.06458
0.07936
0.02669
294
34.66
0.02174
475
77.5
556.5
0.02573
0.02191
0.02164
0.04696
129.8
35.43
380.8
1.519e+04
9076
70.76
2.965e+04
1851
0.02266
1.294e+04
51.58
1303
8.735
0.1146
2.708
3083
441.3
1376
203.9
0.05171
18.04
251.5
92.52
17.91
0.1703
114.6
0.1477
255.3
0.03498
24.15
14.75
29.68
0.2024
448.7
2.817e+04
2448
0.02061
1.599e+04
25.91
0.01995
111.1
0.02181
772.8
46.78
0.1203
190.6
173.7
0.0223
0.997
11.84
4197
0.02245
0.1304
5103
5.222
0.02157
1215
24.21
0.02984
0.1236
29.17
151.4
1.934e+04
370.5
54.01
17.41
360.7
0.5772
0.02169
0.04112
277.5
88.28
49.77
0.02207
4.063e+04
192.7
32.64
92.38
20.71
58.86
0.02017
0.05414
232.6
90.35
0.04115
105.1
464.7
15.58
1.405
2.93
10.38
0.03739
9.135
31.52
141.7
15.96
0.02205
562.4
0.1614
26.65
6.186
3.754
1874
37.39
1.033e+05
31.21
0.5646
0.1907
0.02119
6.601
24.8
1418
539.6
81.05
316.6
1391
71.27
0.3783
52.35
346
2744
46.93
0.03967
839.8
0.6377
654
14.38
11.78
23.5
196.1
0.02179
103.3
0.1884
0.02164
0.56
826
1.317
7.036e+05
433.6
371
0.02165
77.8
95.99
0.04738
35
51.63
1152
171.5
1178
0.02188
78.88
0.02067
3.746
148.2
115.7
5.665
364.1
5.25e+05
0.02152
0.02174
42.91
93.89
719.7
1.297
94.19
452.7
46.54
12.95
0.02183
233.5
992.7
0.07162
21.04
0.02156
78.65
0.0496
82.07
300.3
55.85
0.3326
701.6
212.9
0.02576
229.1
79.69
0.2186
0.02147
0.02278
318.8
1845
23.39
9.793
36.99
15.6
149.6
21.99
0.0194
0.1715
0.6391
2.869e+04
1041
842
0.02134
362.2
122.8
885.3
641.7
7436
2.083
60.51
92.86
61.42
426.4
1564
25.54
0.07078
10.84
0.03081
5.274e+04
0.02253
12.69
338.6
32.92
12.99
451.3
37.37
4356
11.32
226.3
83.79
5.181
194.6
2.777e+04
21.25
1.555e+04
1.073e+04
0.02175
1.721e+04
92.12
823.1
1138
70.67
43.03
118.1
74.29
15.12
0.03739
22.8
14.14
48.59
23.22
33.88
0.4177
1.871
24.24
1.778e+04
37.18
3352
88.87
365.6
0.02027
347.6
43.13
1593
11.98
6896
167.5
240.8
0.07309
1363
0.06463
19.14
22.89
0.06341
0.5458
15.08
24.23
67.72
134.9
16.77
157.9
25.74
6935
21.51
9.517e+04
0.03639
67.36
93.1
12.39
0.04384
410.1
0.02174
0.02206
0.02174
31.19
131.4
313.7
9.155
0.08349
27.93
0.03848
9.416e+04
1153
1.696e+04
200
0.06468
451.3
1733
0.06959
740.2
0.02187
75.35
8.571
291.3
43.45
0.02129
0.02141
63.4
9.696
0.03651
1.818e+04
141
0.02095
0.0218
55.75
0.03065
425.5
3528
0.0292
3.735
264.9
666.1
189.3
1.901e+04
6.419
0.1302
39.03
236
0.1492
169
25.17
0.9765
441.4
52.43
5.517e+05
0.02564
71.45
2837
1288
0.02184
23.13
0.02176
26.82
62.74
35.23
68.88
233.2
31.03
0.1508
712
794
349.7
651.8
457
30.61
12.96
64.1
149.7
19.68
284.7
0.02194
1.614e+04
6284
791.8
36.45
8.191
1142
364.6
0.2494
0.1348
2.249e+04
67.43
0.05339
0.03151
0.05162
272.7
460.4
45.45
1898
107.5
0.03678
105
57.43
60.52
315.7
9.811e+04
484
54.29
363.6
26.22
43.7
1194
33.66
36.92
10.49
822.3
23.03
0.2234
31.96
394.2
0.09574
147.9
0.3076
32.52
1.878e+04
363
0.02204
276.7
31.88
8823
487.7
0.02139
0.09147
439.7
0.02969
23.78
995.8
300.7
10.56
0.02176
0.164
13.26
12.91
0.07285
287.6
0.02077
364
21.16
200.9
153.5
52.21
52.88
290.5
261.9
0.1717
82.69
0.02182
2.535e+04
0.036
0.03039
155.6
0.02183
13.8
10.86
3.372e+05
0.02196
111.8
67.99
317.3
277.3
0.1939
32.2
24
257.6
1265
26.64
0.08234
0.02206
153.4
254.2
21.32
39.26
545.8
1151
0.8099
0.02114
32.45
179.1
3.903e+04
45.88
37.07
0.7186
179.6
0.0215
14.94
2495
687.2
0.02197
0.1792
478.3
0.01982
70.96
841.2
74.98
0.02195
0.022
8.53
0.02341
0.02013
0.02173
9.158
322.3
739.5
0.3051
128.9
8.651
16.6
0.02225
13.6
58.87
0.0409
0.8182
669.5
15.88
0.02563
849.7
32.95
8.894
1.615e+04
2.011e+04
0.02538
54.86
32.73
230
34.08
1809
0.02194
156.7
1.768e+04
2.567
143.6
0.3674
1077
28.71
157.7
12.81
9083
0.0581
5750
38.65
0.02531
0.02939
0.02006
122.6
16.64
1401
120
2.874e+04
0.08485
0.01942
105.7
301.4
0.08017
0.02186
516.4
10.51
675.6
32.39
761.9
147.2
47.05
5.575
208.9
0.01973
9086
86.95
33.1
12.68
0.07325
0.022
20.8
12.06
292.8
2034
34.91
0.04044
80.68
15.77
0.06063
0.0219
783.8
167.5
2536
111.4
22.9
0.8197
37.01
16.31
5.985
74.12
0.3489
0.1243
0.02192
41.68
7242
29.94
0.3929
2301
0.4833
0.02168
37.44
0.02729
0.02203
18.78
0.01939
0.01933
2.04
0.02011
24.32
2.431e+04
320.6
24.02
0.1285
0.02113
0.02197
72.11
178.6
12.04
1.736e+04
14.68
0.03028
9.687
74.17
1310
0.3556
0.02198
3.159
42.24
0.02203
0.02136
45.03
187.5
0.05004
0.02904
55.02
0.02131
1.339
0.02151
9.808e+04
0.5164
460
9.671
0.02774
0.1476
12.69
19.66
433.1
17.91
69.64
22.58
0.02214
1.209e+04
14.38
317.3
0.02191
204.7
133.5
56.87
317.8
0.2079
182.8
10.54
0.1312
1470
0.02205
2.156e+05
12.76
9690
0.02197
179.2
0.02175
0.08183
2.757
3276
12.82
119.4
28.24
0.1097
1614
0.1244
815.1
1941
11.15
0.09685
0.0518
512.5
0.02162
3.058
19.45
83.92
12.4
0.0218
4939
0.03209
112.4
347.9
104.8
576.4
4381
26.7
548.2
89.67
1.45
15.26
0.5305
0.02173
0.02181
390.1
11.53
6270
45.6
25.61
0.02179
56.69
0.02179
0.02172
0.02989
142.8
0.1031
32.22
0.03426
26.58
0.1764
54.3
216.1
1109
0.02553
174.7
98.81
79.97
0.1573
19.41
0.02187
83.81
0.3834
45.37
3.188
0.03258
201.5
3.748e+04
157.5
1033
17.88
1.122e+04
888.6
3.568
17.58
751.1
91.76
4.423e+04
246.7
19.29
52.79
64.16
26.03
543
357.3
0.03888
41.81
0.08533
349.1
1.035e+04
69.81
691.5
345.5
12.82
166.7
0.03315
196.1
22.78
2.085e+04
11.33
0.0225
17.29
48.19
129.8
0.0579
102.6
138.8
18.69
0.5626
141.6
14.29
4217
130.2
74.37
28.07
17.27
473
0.02468
284.6
3.699
0.0239
45.94
46.8
195.4
357.8
125.6
0.02202
392
13.78
0.09225
1.554
275.9
6.267e+04
111
0.02085
0.02426
0.4716
171.5
52.65
0.02151
3.25
197
415.6
5847
0.02103
209.1
2521
36.9
4.817e+04
57.99
78.2
186.2
23.57
94.12
0.02348
39.75
2212
43.29
235.7
1.303
22.46
0.0217
0.06691
206.5
100.8
18.89
703.1
52.82
0.02174
2225
62.64
0.218
281.6
5464
6817
0.04085
0.1288
0.0246
75.31
1827
369.8
982.5
221.4
189.6
0.02181
53.94
4.502
9.152
2847
0.3861
1.739e+04
103.8
1546
0.03356
135.7
1255
0.0217
129.1
70.29
87.16
9.886
0.0219
0.02172
0.03853
22.23
0.02174
14.94
6112
0.1118
14.3
218.1
0.03801
59.09
11.29
0.2588
1596
88.82
6191
45.41
0.02177
163.4
1694
0.0217
4017
19.63
46.12
30.73
195
51.54
158.4
13.25
11.41
0.02194
11.48
0.02178
0.05349
1131
115.6
44.97
36.43
0.7649
109.7
0.02177
0.01966
0.06021
74.98
31.6
69.21
1.741e+04
26.03
0.5124
226.3
0.5552
21.26
0.02136
491.2
460.1
16.86
12.43
94.11
99.81
44.09
17.48
0.9834
0.02234
110.5
17.41
110.6
1325
1.603e+04
445.8
0.0215
49.67
17.9
17.5
8.115e+04
0.02167
64.09
22.2
22.41
53.34
18.11
5.008e+04
51.19
21.98
460
2611
12.86
74.59
2427
2.024
0.02168
261.9
16.63
44.15
69.59
15.68
1.834
0.04328
615.7
236.5
867.5
30.15
732.1
200
0.02172
151.6
73.95
50.34
25.12
0.01935
270
33.15
25.85
7.557
0.02133
205.8
11.91
5.748
45.21
317.5
90.21
29.89
401.3
380.1
0.01992
79.14
35.65
67.7
440.8
139.7
34.15
18.8
28.62
8.655
124
450.3
1.649e+04
638.7
616.3
9472
57.59
0.07675
2.264e+06
339.8
1492
0.03525
1683
1251
256.5
28.93
0.02194
2.144
0.02179
13.7
64.6
4.509
0.761
13.66
622.4
22.07
2.111e+05
12.24
256.2
700.7
1.552e+04
427.9
216.3
15.82
0.09216
76.39
14.05
1.92e+04
63.02
0.3406
0.868
1491
1.158
0.022
0.02171
32.44
48.79
0.04068
0.02017
0.02192
485.9
184.8
9847
0.02155
0.0298
58.74
0.01976
0.0199
310.2
0.05329
125.1
593.5
0.05063
1289
8.291
51.4
9.826
30.55
0.05536
54.97
18.82
6.401e+05
26.09
339.2
948.9
1217
17.19
0.02973
9.684
638.7
0.02172
18.2
128.8
576.1
1.301e+04
120.3
29.22
667
0.02495
110.4
2349
222.8
83.16
51.85
0.07058
31.85
18.53
1759
130.7
174.6
0.0462
842.4
260
0.03554
18.1
0.06618
48.61
0.02669
1699
1.662e+04
0.02835
456.9
126.2
0.1373
507.9
72.46
0.02249
5808
58.87
191.6
564.2
0.03566
6.034
5.076e+04
78.46
390.7
28.91
17.93
3.05
15.07
162.5
0.05776
1.643
57.48
60.36
24.09
14.76
67.56
6.193
64.14
503.3
42.98
6.177
2.378
0.0218
0.09407
614.8
18.96
0.01937
3.09
35.61
3.523
167
70.05
30.74
0.09893
539.3
85.93
0.108
37.58
108
0.08184
602.1
0.04287
803.1
9.286
0.1891
0.06459
10.23
682.9
58.99
0.02096
62.39
151.7
104.8
0.1539
0.02197
12.04
341
666
64.91
59.77
11.87
499.7
20.67
39.96
2.24e+04
16.71
1.989
4.54e+04
360.4
14.93
13.42
0.02204
1.223e+05
0.02213
21.8
107.5
99.8
129.7
119.4
1.959e+04
11.48
11.58
13.86
3.097e+04
460
12.79
4.232e+04
6607
470.7
119.2
0.1831
0.6495
5.399
23.48
0.02187
379.1
2.057e+04
0.0446
62.71
6.502
15.08
249.5
408.5
4.049e+04
1598
205.1
0.01954
0.0193
0.02178
509.6
2221
0.5029
0.02158
0.1514
2618
5.783
4.475e+04
76.11
0.02216
3.88e+04
0.0194
1.804
11.32
0.04029
16.23
0.3151
1.408
0.06557
375
18.59
56.69
115.5
2.328e+04
11.72
175
196.3
10.44
0.02213
9636
429.4
376.8
89.58
918.8
202.9
159.1
0.06208
25.64
246.6
39.76
381.2
0.02902
1052
32.44
616
14.37
0.1178
0.1461
0.02187
238.6
27.83
107.9
184.1
12.48
753.3
75.34
20.08
11.53
134.2
0.1563
889.2
304.3
255.4
45.81
0.06184
10.35
0.09853
61.9
30.29
108.5
3.617
436.4
20.56
15.24
372.5
0.2233
1983
29.78
0.5452
0.08586
3.568e+04
286.8
214
30.62
5566
0.02204
6307
522.7
67.69
56.07
63.52
74.15
83.91
14.09
64.37
70.9
181.4
3740
0.06698
0.02187
0.0218
110.5
197.1
1.912
2.473e+04
137.8
9240
898
94.74
1829
1.836e+04
11.27
422
753.9
74.18
1.914e+04
0.02167
79.82
607.4
616.7
0.02157
589.5
78.05
209.9
290.7
433.5
0.02172
4.052
234.5
990.2
0.0209
169.4
13.78
0.1839
3.08e+05
0.03306
11.04
11.42
239.5
314.8
0.2785
62.91
2.559
188.1
723.2
148.4
0.01942
14.35
6.576e+05
0.02563
0.02283
1937
942.8
44.1
408.4
0.05945
52.07
67.71
50.43
33.5
177.9
0.02
66.32
15.96
0.1654
0.02196
44.61
0.02122
8.17e+04
62
1.775
9.676
1.365e+04
0.02171
154.8
0.02
0.02216
578.2
0.3169
1257
10.37
0.04309
41.18
346.6
20.22
20.69
25.97
379.5
140.4
462.7
488.1
534.9
5348
838
57.44
362.7
195.8
184
0.2461
0.02113
0.02118
3761
31.7
292.1
4.274e+04
0.02184
329.8
0.4521
0.02038
17.36
4.662e+04
12.2
409.5
2636
0.02206
548
46.63
16.49
9.665
44.49
1994
116.1
0.02174
4.644e+04
1352
0.06126
0.02369
1152
194.4
552.3
517.4
129.5
277.5
0.0217
254.1
0.02118
278
500.4
4.12e+04
0.01955
0.01932
0.1417
241.8
0.03105
17.09
2.028
10.08
20.54
53.42
254.8
0.05003
0.02729
1.784e+04
2.125e+04
25.59
771
0.0436
293
0.02212
135.7
1298
445.5
2203
250.5
429.2
356.3
0.3339
44.41
28.83
0.02538
0.02181
0.02175
12.82
196.8
707.2
3.036e+04
285.3
0.02495
368.6
822
421.7
3.352e+04
105.6
501.7
343.5
84.32
0.05432
2.299
34.7
1.03
0.07872
915.3
24.74
41.17
70.19
594.5
0.3306
0.01974
1.739e+04
14.18
10.84
32.98
2.111e+04
31.65
0.02083
111.4
23.17
188
7.36
301.8
334.5
1.911
115.1
17.5
0.06376
182.1
0.04361
0.07676
0.4085
1215
21.05
990.9
18.19
49.91
44.54
0.02949
92.32
348.1
0.2427
42.91
4.057
1.887e+04
0.0311
0.02407
92.3
70.89
168.3
25.25
4.009
2274
0.06008
0.02183
25.24
1842
0.02494
0.6019
39.58
0.02162
1.852e+04
0.05348
38.55
82.28
38.27
0.557
399.2
2075
7.464
0.05566
0.02176
15.72
52.51
83
16.22
0.02136
0.02019
0.02173
85.66
198
224.5
0.05256
743.5
35.96
440.9
50.47
807.3
0.3572
0.03067
4097
0.02193
818.3
39.74
0.03124
118.7
76.17
264.3
127
120.8
13.59
6.386
0.06662
2354
1231
2157
0.1575
0.5498
0.02172
1.872e+04
0.0216
163
1803
0.02226
26.44
151.4
366.4
0.08075
15.13
1.305e+04
20.86
0.02166
18.02
448.7
85.9
152.3
15
28.67
1.517e+04
21.04
0.02071
0.0225
1.137e+04
23.82
391.5
13.84
52.77
0.02118
0.02193
1.906
6.816e+04
1802
486.2
356.2
0.8337
311.1
1550
122.9
201.6
0.02189
667.5
11.65
278.9
15.8
15.53
0.0216
600.9
12.59
1.544e+04
1.961e+04
14.78
15.41
1.613
1012
0.02597
10.08
1.7e+04
423.3
151.1
1853
7283
130.5
195.9
0.1155
964.7
271.1
1607
38.22
0.02672
1213
7036
0.02173
329.8
3455
334.3
911.1
48.12
14.82
170.3
43.54
0.03251
63.32
0.02211
107.2
0.1069
1.41e+04
0.1273
4096
46.23
268.8
24.47
13.22
454.6
21.6
135.9
819.5
76.88
33.42
9.189
69.1
164.1
557.1
107.2
0.02481
22.29
21.39
57.68
111.2
67.34
316.1
51.82
0.02516
42.11
2.214e+04
17.31
11.74
155.9
0.03826
42.89
0.02159
43.58
5.685e+05
8.636e+04
490.8
22.41
41.79
0.02102
0.05116
17.76
24.66
51.72
5.98
0.02186
51.03
81.94
76.12
89.5
0.02168
849.3
1339
5.848e+04
10.49
26.88
62.06
574.2
0.03713
195.2
9.941e+04
0.8261
32.99
0.255
311.3
5.204e+04
25.21
13.6
24.8
27.73
0.02512
143.3
0.01988
1.647e+04
101.8
16.08
1303
6.762
159
35.81
2.961
0.05334
0.02199
0.02153
50.83
18.71
41.07
8.595
25.79
58.83
1.957e+04
0.7827
288.1
0.2142
0.02183
990.1
0.02193
12.18
649.7
4.823
24.33
23.17
4.809e+04
247.3
21.85
273.5
124.7
65.53
0.1262
1.731e+04
0.02173
5.535e+04
2813
83.44
129.2