/*--------------------------------*- C++ -*----------------------------------*\
  =========                 |
  \\      /  F ield         | OpenFOAM: The Open Source CFD Toolbox
   \\    /   O peration     | Website:  https://openfoam.org
    \\  /    A nd           | Version:  8
     \\/     M anipulation  |
\*---------------------------------------------------------------------------*/
FoamFile
{
    version     2.0;
    format      ascii;
    class       surfaceScalarField;
    location    "10";
    object      phi;
}
// * * * * * * * * * * * * * * * * * * * * * * * * * * * * * * * * * * * * * //

dimensions      [0 3 -1 0 0 0 0];

internalField   nonuniform List<scalar> 
189008
(
6.646e-08
-6.646e-08
1.553e-08
-1.552e-08
1.117e-08
-1.117e-08
1.606e-08
-1.606e-08
-2.213e-07
2.214e-07
1.638e-08
-1.638e-08
6.496e-06
-6.496e-06
-1.326e-06
1.326e-06
-7.585e-07
7.585e-07
1.412e-06
-1.412e-06
1.085e-05
-1.085e-05
-2.807e-06
2.807e-06
-5.804e-09
5.804e-09
-1.802e-08
1.802e-08
-6.859e-05
4.817e-05
2.042e-05
5.993e-06
-6.824e-06
8.303e-07
-5.357e-08
5.357e-08
0.01132
-0.007299
-0.004023
-0.0006158
0.0002721
0.0003437
-4.99e-06
5.714e-06
-7.237e-07
0.0006185
-0.0005314
-8.715e-05
3.17e-07
-1.814e-07
-1.356e-07
-0.003305
0.01014
-0.006839
2.083e-05
0.0004984
-0.0005192
1.888e-07
1.283e-07
-0.00027
0.0001516
0.0001184
-2.032e-05
2.241e-05
-2.089e-06
-2.245e-05
2.134e-06
0.0001854
-0.000144
-4.136e-05
0.01228
-0.02416
0.01188
-4.448e-05
-0.0002016
0.0002461
-7.301e-05
-0.000197
-8.085e-06
4.424e-06
3.661e-06
-0.0001553
9.089e-05
6.445e-05
0.01076
0.01095
-0.02171
-4.063e-06
-4.022e-06
3.306e-05
0.0002277
-0.0002607
-0.001805
0.00246
-0.0006551
-4.656e-05
0.0005929
-0.0005464
-4.875e-05
5.641e-05
-7.665e-06
-0.0004794
-0.0001364
0.002162
-0.003977
0.001815
0.00071
-0.004791
0.004081
1.675e-08
-1.675e-08
0.001991
0.009331
-8.489e-05
-7.044e-05
0.0001221
6.333e-05
-0.0003644
0.0003752
-1.085e-05
-0.0008215
0.0009913
-0.0001698
-2.913e-05
0.000473
-0.0004439
2.087e-06
3.906e-06
-0.01448
-0.02973
0.04421
-5.591e-05
-6.962e-05
0.0001255
-0.01369
0.01198
0.00171
1.082
-0.1284
-0.954
0.0009632
-0.0007736
-0.0001896
-0.1463
1.229
0.01183
-0.007344
-0.004488
-0.3129
0.01901
0.2939
-0.00612
-0.007569
-0.002422
0.0003758
0.002046
-0.0002181
0.0004524
-0.0002343
-0.0002227
0.001853
-0.00163
-0.8101
0.9552
-0.1451
-6.853e-05
0.0001652
-9.67e-05
-0.0003901
-0.003022
0.003412
-0.02971
0.02365
0.006066
0.002262
-0.001874
-0.0003887
0.0006264
0.001636
-1.279
0.4808
0.7981
-6.835e-05
-0.0003036
0.0003719
9.125e-06
1.328e-05
-0.0008603
-0.0003087
0.001169
-0.1161
-0.1968
-0.2739
0.5163
-0.2425
-9.483e-06
-1.297e-05
-0.05165
0.09229
-0.04064
-0.0004056
0.0003801
2.559e-05
0.000508
0.0004552
0.1601
-0.6342
0.4741
-0.0001822
0.0001387
4.348e-05
-1.637e-06
-3.353e-06
0.0001289
0.0001609
-0.0002898
1.01e-05
4.457e-05
-5.467e-05
9.332e-05
-0.0002683
0.0001749
-0.0002145
0.0003448
-0.0001303
-0.0006841
0.001304
-0.00062
2.351e-05
-6.904e-06
-1.661e-05
-0.003064
0.002674
-0.0004399
0.0007928
-0.0003529
0.1843
-0.02048
-0.1638
-0.006671
-0.005375
0.01205
-0.0002932
0.0009984
-0.0007052
0.0003407
0.0002778
0.000428
-0.0004391
1.107e-05
0.02674
0.0151
-0.04184
0.003492
-0.001331
0.0002522
-0.000255
2.806e-06
-0.0002743
-5.591e-05
0.0003302
-0.01951
-0.0102
0.6863
-0.5263
-8.005e-06
-0.0008135
-7.871e-05
-0.0002784
0.0003572
0.004253
-0.005182
0.0009292
7.534e-05
-0.0002899
-0.0003673
9.304e-05
-0.001141
0.001639
-0.0004975
-1.001
-0.2776
-0.001149
0.0005902
0.0005584
-1.154
0.876
0.278
-1.712e-05
-5.147e-05
1.698e-05
6.537e-06
-0.0005502
8.76e-05
0.0004626
0.0008837
-0.001258
0.0003742
-0.2123
0.09657
0.1158
0.0005739
0.002488
-0.003062
-0.1072
0.059
0.04816
0.1657
-0.4396
0.02358
-0.07523
3.734e-07
-2.982e-07
-7.519e-08
-1.253
0.09854
6.668e-05
0.0001303
-0.000197
-0.0004076
-0.0007246
0.001132
0.01365
-0.01169
-0.001953
-0.0001203
-6.188e-05
0.0001941
-0.0001797
-1.444e-05
-0.0003298
-0.0001557
0.0004856
0.08786
-0.1034
0.01557
-0.0003501
0.0001229
0.0002272
-0.0006509
0.0005262
0.0001246
0.0003376
-0.0001073
-0.0002303
0.0003718
-0.0001423
-0.0002295
-0.0003881
-0.001366
0.001754
-0.0001656
-0.0002401
1.274e-07
-9.736e-08
-3.007e-08
0.0003579
-2.028e-05
-0.005414
0.03619
-0.03077
-0.000214
0.0004009
-0.000187
-0.000165
0.0001903
-2.527e-05
0.03309
-0.05517
0.02208
0.00883
0.0003782
-0.009208
-0.04865
-0.04167
0.09032
-0.000167
0.000221
-5.401e-05
-0.0003772
0.0002067
0.0001705
-0.0001329
7.702e-05
0.00158
-0.0006751
-0.0009047
-5.761e-05
-2.3e-05
8.061e-05
-0.02779
-0.7823
0.0004637
-9.192e-05
0.0002482
-0.0003645
0.0001163
0.002532
-0.003749
0.001217
0.00114
-0.0003119
-0.0008284
0.003256
-0.004401
0.001145
-0.008932
0.0005329
0.008399
8.95e-05
-0.0002539
0.0001644
0.0002552
-0.0001619
0.007831
0.004001
0.0006421
-0.000525
-0.0001171
-6.886e-05
-0.0002955
0.0001129
-0.000215
0.000102
-0.0002697
0.0004969
-0.0002272
-3.342e-05
3.342e-05
0.191
-0.006728
0.0004291
-0.0001346
-0.0002945
0.0001329
-0.000282
0.0001491
6.176e-05
-0.0001303
-0.000255
2.641e-05
0.0002286
1.95e-05
0.001594
-0.001614
-3.015e-05
3.522e-05
-5.08e-06
-0.04257
0.0338
0.00877
2.769e-06
7.921e-06
-1.069e-05
-0.0002013
-0.0001759
-0.004488
0.00191
0.002578
-0.002679
0.0008719
0.001807
1.023
-1.197
0.1736
-8.255e-05
5.684e-05
2.572e-05
-0.0008346
0.0004566
0.000378
-0.0001703
-0.0001798
-0.0004294
0.0008385
-0.0004091
0.1204
-0.148
0.02763
-0.001757
-0.000922
-0.1207
-0.003344
0.124
-3.33e-05
5.44e-05
-2.11e-05
-5.326e-05
-2.93e-05
-0.0002714
-0.0003794
0.0001994
-0.0004175
0.000985
-0.007571
0.006586
-0.0001068
0.0009905
0.0005152
-0.0004944
-0.005206
0.08611
-0.08091
-9.07e-06
0.0001655
-0.0001564
-0.0001633
-4.527e-05
0.0002086
-0.0438
0.03838
0.0009208
-0.001082
0.000161
7.386e-08
9.163e-05
0.0004164
-0.000508
-1.471
1.2
0.2713
-1.462
1.192
0.27
1.361e-06
5.178e-08
-1.413e-06
-0.167
0.1327
0.03432
0.2049
-0.03809
-0.1668
-0.05864
0.04847
0.01017
0.02699
-0.06993
0.04294
0.0002211
-0.000188
-4.459e-08
4.459e-08
0.0003337
-0.001137
0.0008034
0.02547
-0.007353
-0.01812
0.002763
-0.0006353
-0.002128
0.04031
-0.02802
-0.2086
-0.003713
0.001325
-0.02072
0.01939
-0.0002895
0.0002153
7.414e-05
-0.05933
0.202
-0.1426
-1.255e-05
-1.76e-05
2.382e-06
-0.0001859
0.0001835
1.314e-06
-1.644e-06
3.302e-07
-1.248e-05
1.13e-05
1.171e-06
0.003503
-0.002108
-0.001395
-0.0001003
0.0003382
-0.0002379
0.02173
0.003743
-0.0007438
0.0003115
0.0004323
-0.4711
0.2217
0.2494
0.001004
0.0001361
0.0001138
-0.0001131
-6.73e-07
0.0001047
5.913e-05
-0.0001638
-2.224e-05
1.829e-05
3.947e-06
-0.0002336
0.0003664
0.000439
-0.002244
5.989e-05
-6.153e-05
1.646e-06
0.0003595
-0.0003204
-3.908e-05
-0.0005733
0.0001652
0.0004081
-0.04608
-0.07461
-0.001193
0.0003323
-4.136e-07
5.024e-07
-8.877e-08
-0.0003449
-0.0002284
-0.02322
0.01829
0.004925
0.0001425
0.0002865
4.884e-07
-4.884e-07
0.2264
-0.02144
-0.0002766
5.564e-05
0.0002209
-0.0002989
0.0001356
-8.754e-05
0.000193
-0.0001055
0.0002803
-0.000196
-8.429e-05
0.0003222
0.0003199
0.0002985
6.295e-05
-0.0003614
2.409e-07
1.325e-07
0.000982
0.0004513
-0.001433
2.373e-05
-2.149e-05
-2.237e-06
3.04e-06
-3.04e-06
0.1972
-0.9683
0.7711
-0.0002821
-0.002043
0.002326
-6.869e-05
0.0001693
-0.0001006
0.002269
-0.001069
-0.0012
-0.0005959
0.0001862
0.0004097
-0.000166
0.0007547
-0.0005887
0.0006483
-0.0003911
-0.0002572
0.1171
-0.0292
7.703e-05
-0.0001905
0.0001134
-0.0002268
0.00141
-0.001183
-0.009064
-0.00132
0.01038
0.0006539
-0.0003445
-0.0003094
-0.06386
0.09621
-0.03235
-0.01488
0.008208
-0.08857
0.03992
8.386e-05
-0.0001228
3.891e-05
-1.255e-05
-0.0001307
0.0001432
9.696e-05
-0.0001989
0.0001019
5.403e-05
-0.0001906
0.0001366
-0.001107
-0.0005635
0.001671
0.003105
-0.006311
0.003206
-0.0003615
-8.263e-06
0.0003698
0.8585
0.1645
0.0003455
-0.0004387
9.317e-05
-0.0002947
1.818e-05
0.001302
-0.002221
0.0009192
0.0001907
-0.0001997
-0.0002997
-0.0002505
0.001101
-0.001283
0.0001815
-0.3782
-0.4362
0.8144
0.0007085
0.001259
-0.001967
-0.5424
-0.3505
0.8929
0.04331
-0.01657
0.004318
-6.533e-05
-0.09114
-0.1652
0.2563
0.04579
0.1208
-0.1666
1.743e-07
-5.357e-08
-1.207e-07
-0.0003838
0.0003085
7.53e-05
-0.07558
-0.1017
0.1773
0.001351
-0.0009955
-0.0003554
0.1736
-0.05321
-0.0002938
0.00355
-0.002454
0.005317
-0.002864
-0.01078
-0.01244
0.0009349
0.001364
-0.002299
-0.2053
0.2364
-0.03107
-0.0005111
0.0008245
-0.0003134
-0.0001917
-0.0001296
0.0003213
-9.636e-07
8.715e-06
-7.752e-06
0.0001126
0.0001677
0.004323
-0.001218
-0.0001481
-0.0002448
0.0003929
-0.003768
0.001028
0.00274
-0.001244
-0.001646
0.002889
0.003589
-0.003015
-8.639e-05
0.0001455
-5.907e-05
0.0004556
0.0001232
-0.0005788
0.002539
0.0002242
-0.1824
0.1231
-0.0006562
0.0003985
0.0002577
-0.00337
0.003404
-3.342e-05
0.001292
0.0001186
-0.001411
-2.74e-06
5.084e-06
-2.344e-06
-0.000643
0.0004281
0.0002149
-0.856
0.3136
-0.257
0.1332
0.1238
0.0003218
0.0001717
-0.0004936
0.0009828
-0.001054
7.109e-05
-0.0001192
-0.0001918
0.000311
0.01871
-0.009997
-0.008717
0.1993
-0.1895
-0.009802
0.008725
-0.01203
-0.0003414
-2.139e-05
0.0003628
0.09593
-0.05303
-0.0429
0.00158
0.0006893
0.0005383
-0.0002165
-5.049e-05
0.0003579
-0.0003074
-0.01725
0.03194
-0.01469
-1.963e-06
-2.055e-05
2.251e-05
0.0006062
-0.0002145
-0.0003916
-0.001802
0.0005176
0.001284
-0.0006849
0.0003866
0.0002983
0.1944
-0.1486
-0.0064
0.01716
-0.501
-0.9701
-0.4977
-0.9644
-0.01055
0.001622
-0.0009445
0.0007527
0.0001918
-0.004259
-0.0002294
-0.0002475
-0.0004374
-3.397e-05
-0.0002854
0.0003193
-0.0136
0.04669
0.00237
0.001133
0.0001382
-7.62e-05
-6.196e-05
-3.441e-05
-8.891e-05
0.0001233
-0.0002944
-0.0001677
0.0004621
0.0003783
0.0009727
-0.0003025
0.0001199
0.0001825
0.0003303
-0.0004189
8.859e-05
0.0004994
-0.0003547
-0.0001447
7.707e-05
-0.0002971
0.0002201
-0.000679
0.0005425
0.0001365
-1.938e-05
0.0001004
-8.1e-05
-1.511e-06
6.801e-05
-6.65e-05
0.0001562
-0.002551
-0.02698
0.02953
-0.0003595
0.0003161
4.343e-05
-0.000471
-0.0001249
-7.048e-05
-0.001287
0.001358
0.3002
-0.4091
0.1089
0.0005478
5.832e-05
0.0001959
-0.0003785
0.0001825
-0.002094
0.001871
-0.006028
-0.006207
0.01224
0.0008908
-0.0009293
3.846e-05
-8.665e-05
0.000681
-0.0005944
0.3812
0.1361
-0.5173
-0.1182
-0.04882
-0.1736
0.2419
-0.06831
-0.0001858
0.0002222
-3.639e-05
0.4325
-0.8107
-0.001528
0.001344
0.000184
0.06112
0.03481
0.0001624
-0.0002311
6.662e-05
-0.0005397
0.0004731
0.1164
-0.1216
0.03125
-0.01321
-0.01804
-0.0001455
0.0006441
-0.0004986
2.363e-07
1.953e-07
-4.316e-07
-0.000237
0.0004247
-0.0001876
0.9268
-0.6952
-0.2316
0.0016
0.005172
-0.006772
4.395e-05
0.0001502
-0.0006983
0.0005071
0.0001912
0.0061
-0.00471
-0.00139
-0.0868
-0.02036
1.187e-05
1.577e-06
-1.345e-05
0.01712
-0.02105
0.003926
3.849e-06
-5.26e-05
-0.0003934
0.0005202
-0.0001269
-0.0003287
-0.001551
0.00188
0.2459
-0.2558
0.00996
0.005551
-0.004881
-0.0006692
9.089e-06
-3.756e-05
2.847e-05
0.0002183
0.0005521
-0.0007703
-0.0006761
0.0007454
-6.93e-05
-0.0001255
0.0002555
-0.00013
0.003547
0.002004
-0.0002922
0.0002478
-0.02346
0.02091
0.009609
-0.07347
5.767e-05
-9.443e-05
3.676e-05
-0.5083
0.03728
-0.0006131
-1.922e-05
0.0006323
-6.934e-05
3.604e-05
8.025e-05
0.01704
-0.004541
0.003588
0.0009528
-0.0001134
0.0004011
-0.0002877
-0.00249
0.002463
2.607e-05
0.1109
0.4878
-0.5987
0.0004464
-0.0008758
-0.000244
-0.0001915
0.0004355
-0.000599
-1.112e-05
0.0006101
0.001054
0.007776
-3.232e-05
-0.0002445
0.0002768
-0.001076
0.0006685
0.000139
0.000289
-0.0004973
0.00043
6.724e-05
-0.0004295
6.796e-05
-0.0003434
0.002396
-0.002052
-0.0008345
0.000154
0.0006805
-0.0002893
3.426e-05
-3.077e-05
2.851e-05
2.262e-06
-0.0002558
0.0002739
-1.811e-05
-0.6755
0.8726
0.000482
-0.0001225
0.009
-0.01144
0.002436
-0.003744
0.004454
-0.01195
0.0008103
0.01114
-0.0001331
4.557e-05
-0.01092
-0.006885
0.01781
-1.276
1.437
-0.1617
0.0003327
-0.0003376
4.981e-06
-6.822e-05
-3.677e-05
0.000105
0.005431
0.01171
-0.01714
0.002518
-0.002405
-0.0001133
0.5729
-0.1918
0.001046
-0.002119
0.001073
-6.522e-05
0.0002835
-0.0002182
-0.05981
0.04532
-0.02508
-0.1802
0.7002
-0.6545
-0.0457
0.0006762
-0.0007054
0.06554
-0.02935
-0.0003477
-9.212e-05
0.0004398
0.0515
-0.0552
0.003698
3.367e-05
0.0002185
-0.01088
-0.1334
0.1443
0.0003937
-0.0002934
-0.0001003
0.05441
-0.228
-0.000148
-0.0001415
0.0004222
-0.0004442
2.199e-05
-0.0007368
0.0004277
0.0003091
-0.001368
0.00305
-0.001681
-0.0001114
0.0002194
-0.0001081
-0.01927
0.007156
0.01212
0.0003458
-0.0001828
-0.000163
0.0003107
9.963e-05
-0.0004103
0.0001725
-2.212e-05
-0.0001504
0.0003748
-8.921e-05
-0.0002856
0.000447
0.008154
-0.008601
-0.002815
0.002427
-0.0001236
-6.05e-05
0.0001841
0.0001987
-0.0003274
0.0001286
0.002312
-0.0019
-0.0004122
5.396e-05
-0.0001776
0.3534
-0.9438
0.5904
0.1199
-0.0007896
-0.1191
-0.0005585
0.0002427
0.0003158
0.0002234
-0.0002379
1.451e-05
-1.538
0.1226
1.415
0.0005229
-0.0003235
-0.0001995
-0.003403
0.01291
-0.009509
0.004931
0.008714
-5.243e-05
0.001035
0.03055
-0.01675
-0.0138
1.413
-0.2684
-1.144
-4.349e-05
-0.0001082
0.0001516
-0.01216
0.00876
9.903e-05
-8.705e-05
-1.198e-05
-5.464e-05
5.946e-05
-4.816e-06
0.0001557
-0.0001101
-4.554e-05
0.0002984
-1.062e-05
-0.0002878
-0.0002805
4.289e-05
0.0002376
-0.0003687
-0.0002743
-0.0006467
5.261e-05
0.000594
0.0008486
0.00167
0.0002606
-0.0001079
-0.0001527
-0.1256
0.2557
-0.1301
-0.0001804
0.0002933
-0.1017
0.08405
0.01768
0.0007848
-0.0006274
-0.0001574
0.0006498
-0.001334
0.0002157
-0.000156
-5.975e-05
0.0003574
-0.001589
0.001231
-1.099e-08
-3.36e-08
-0.0003936
0.0001983
0.0001953
-0.000104
0.0007759
-0.000672
0.02979
-0.01781
-0.01198
0.002011
-0.002519
0.0005081
-0.2866
0.2307
0.05588
0.000113
4.267e-05
0.117
0.002866
0.000146
2.266e-05
-0.0001687
0.0004275
-0.0003359
-9.994e-08
9.994e-08
1.33e-07
-1.512e-07
1.826e-08
9.639e-08
-8.923e-08
-7.158e-09
1.196
-0.8182
-0.3778
-0.0001753
-0.0001842
6.392e-05
3.98e-05
-0.0001037
-0.1452
-0.1118
-0.0004416
5.899e-06
0.0004357
-0.0003051
0.0009135
-0.0006084
-0.0002388
0.0002596
-2.089e-05
0.003368
-0.0003138
-0.003054
9.71e-06
0.0004125
-0.0006301
-0.0001067
0.0003343
0.0001886
9.204e-05
-8.55e-05
-6.543e-06
-0.4368
0.7903
-0.0002389
0.0001411
9.785e-05
1.712e-07
-1.645e-07
-6.701e-09
0.0005404
-0.0006186
7.817e-05
0.000365
-8.331e-05
-0.0002817
1.514e-05
-1.237e-05
0.063
-0.1791
0.003378
-0.0008459
-0.05104
0.07803
0.000508
-0.0003093
0.04376
0.2455
-0.2893
-0.0002795
6.701e-05
0.0002125
-4.879e-05
-7.967e-05
0.0001285
7.035e-05
-6.642e-05
-3.922e-06
1.524
-0.9008
-0.6231
-0.0004433
-0.0001152
0.009176
0.003905
-0.01308
1.634e-06
-2.676e-06
1.042e-06
-0.0006052
-8.205e-06
0.0006134
5.983e-05
-7.516e-06
-5.231e-05
-0.0007274
6.832e-05
0.0006591
-0.1076
0.1022
0.005492
2.778e-05
-0.0001301
0.0001024
0.0008306
0.0006953
-0.001526
-0.8025
-0.7351
0.002331
-0.004983
0.0001586
0.004825
-0.0003894
0.0001976
0.0003039
0.0005869
3.336e-06
0.00022
0.0001109
-1.762e-05
-9.33e-05
-0.0004489
5.551e-05
-0.003218
0.003818
-0.0005996
0.0008264
6.706e-06
-0.0008331
0.0001425
-0.0003006
0.0001581
8.327e-05
0.0002494
0.1125
0.05576
-0.1683
-7.26e-05
5.448e-05
1.812e-05
3.742e-05
-0.0002567
0.0002193
0.0004537
-0.0005034
4.973e-05
0.001127
-0.002431
0.001304
0.0001094
-0.0002084
9.9e-05
-0.7907
0.1138
0.6769
-0.7884
0.6296
0.1589
0.002931
-0.012
-0.0002831
-1.938e-05
-0.0005445
-0.001375
0.001919
0.1374
-0.208
0.07068
1.473
-0.6493
-0.8239
-0.001407
0.002244
-0.0008365
0.0002564
-0.0003792
0.0001229
-0.0004822
0.0001972
0.0002851
-0.0006429
-3.758e-06
7.418e-05
6.532e-06
-8.071e-05
-4.18e-05
3.87e-05
3.101e-06
-0.003018
0.002849
0.0001682
-0.1424
0.1008
0.04164
1.399
-1.277
-0.1226
-8.007e-05
3.945e-05
4.063e-05
-0.0001163
-0.0002153
0.0003316
0.0005195
-0.00166
0.001141
0.3141
0.5217
-0.8358
7.994e-06
1.573e-05
0.002589
-0.003034
0.0004444
-0.0002617
0.0002549
6.888e-06
0.4906
-0.0003192
0.0003655
-4.637e-05
-0.02799
0.1653
0.0001752
-0.0002885
-0.0001213
4.083e-05
8.05e-05
0.002327
-0.002508
0.0001817
0.9779
0.1617
-1.14
-2.856e-05
-0.0001083
0.0001369
0.0004851
0.0001688
-7.633e-05
4.29e-05
0.3913
1.021
0.0004426
-0.001584
-9.209e-06
-3.266e-06
0.3944
0.3058
-0.001732
-0.002808
-0.1652
0.005786
0.1594
-0.0003752
-0.0004447
0.0008199
0.0003004
-0.0001144
-0.000186
-0.2802
0.189
0.0002531
-0.0002302
-2.284e-05
0.0002555
0.0004748
-0.0007302
-3.352e-06
7.827e-06
-4.474e-06
-0.0001589
-0.0001384
0.0002974
-0.0001213
6.186e-05
5.945e-05
-0.0001954
-0.0004836
-0.0002276
-0.0004707
-0.0001339
0.0002213
-8.735e-05
0.0006944
-0.000741
0.0006759
-0.000969
0.0005906
-0.0009113
0.0003207
8.298e-05
-9.543e-05
1.245e-05
0.0001754
-8.766e-05
-8.778e-05
0.0003
-0.0002229
-7.709e-05
-0.5997
0.9138
0.000773
-0.0005346
-0.0002385
0.1073
-0.1937
0.08638
-0.0005303
0.0002359
-0.1254
0.03533
0.09005
6.125e-05
-0.0002283
-0.3425
-0.933
-0.1527
0.07712
-0.00249
-0.004943
0.007433
-0.0004052
-0.0004292
-0.0002813
-0.0002026
0.0004839
-1.041
0.1282
0.9123
1.106
-0.8989
-0.2075
9.285e-05
-3.296e-05
-2.167e-05
-1.674e-05
3.841e-05
-0.0001257
0.0002546
-0.0004687
0.0001752
0.0002935
0.0005709
-0.0001842
-0.0003867
0.0002542
-0.0006019
-0.0003544
0.0005106
-0.0001562
-0.0006523
0.0004083
-0.0001959
0.0001069
-7.148e-05
0.0001927
-0.0001212
-6.235e-05
-1.881e-05
8.117e-05
-1.16
0.12
5.665e-05
0.0001263
-0.000183
2.956e-05
-0.0001726
0.000143
-8.565e-05
-0.004819
0.004904
0.01019
-0.005993
-0.004197
0.1783
-0.2384
0.0601
1.03
0.4431
0.000534
-0.0005845
-9.663e-06
-0.0001554
7.213e-05
0.0001884
9.014e-06
-5.998e-06
-3.016e-06
-0.07716
-0.04822
-0.9856
-0.4036
1.389
-0.0001339
-9.713e-05
0.0002311
-0.0002516
-6.025e-06
0.0002576
-0.05055
-0.008085
7.162e-05
7.232e-05
-0.0001439
0.01399
-0.002046
-0.01194
-0.03308
0.08667
-0.05359
-0.0002656
0.0001001
0.0001655
0.002204
-0.002741
0.0005368
-0.0001553
0.0001849
0.004032
-0.008701
0.004669
-2.901e-08
2.901e-08
-2.811e-05
5.867e-06
4.961e-05
0.0003252
0.0002489
9.69e-05
-0.0001972
-0.0001866
0.0002347
0.0001066
-0.0003413
-0.0003077
-1.148e-05
-0.0001851
0.0003326
-0.0001475
0.05486
0.007595
-0.06245
0.0003029
-0.0001276
-0.0001753
1.309e-05
-4.302e-06
-8.786e-06
-0.0001465
-0.0004666
0.7438
-1.068
0.3242
0.001327
-0.0002252
-0.004402
0.003943
0.0004589
0.0006742
-0.002614
0.00194
1.075
0.4492
-0.02532
0.7691
1.938e-07
-7.666e-07
5.727e-07
0.02272
0.007076
0.0003744
-0.00066
0.0002856
0.0001728
-0.0001795
6.771e-06
-0.0003107
0.0005308
-0.0002201
-0.0005123
-0.0001439
0.004523
0.003123
-0.007646
0.0002305
-0.0001258
0.002759
-0.006243
0.003483
0.0009786
-0.0008333
-0.0001453
-0.1495
-0.1997
0.3493
1.05
-0.04472
-1.006
-0.002223
-0.0006294
0.002852
-0.0005101
0.00951
5.961e-05
-0.0002454
-0.00214
0.002814
0.000329
-0.0003659
3.691e-05
0.0006307
-0.0002041
-0.0004266
0.0002866
0.0001766
-0.0004632
-0.02116
0.02248
0.005559
-0.01159
-1.124
-0.3857
1.51
-0.0001131
0.000213
-9.986e-05
0.02213
0.008423
-0.001086
0.0008144
0.0002716
7.433e-08
-0.002438
0.0006906
0.001747
-0.0001634
0.0002473
0.0001362
-0.0003732
1.256
-0.2785
-0.001871
0.002125
-0.000254
-0.0003421
-0.0005351
0.0008772
-1.789e-05
1.852e-05
-6.23e-07
-0.0003234
0.0007564
-0.000433
0.0001266
1.769e-05
-0.0001442
-0.0001405
-5.532e-05
-0.0001189
0.0003671
-0.0002366
-0.0002606
0.0001076
-0.0003934
0.0002858
0.0002725
0.0001558
-0.0004283
0.0005965
-0.0007624
0.001414
-0.002441
0.001027
-0.003584
0.0002136
2.137e-05
-0.0003512
0.002937
-0.005747
0.00281
-1.405e-07
1.405e-07
-0.0008498
-0.003552
-0.06644
0.02387
0.0001681
-0.001402
0.001234
0.0001553
0.0003092
-0.0004645
2.14e-06
0.00113
-0.001132
0.1014
0.3725
-0.4739
-4.415e-05
2.228e-05
2.187e-05
0.0001533
-0.0001727
-0.000431
-5.123e-05
-1.511
0.5255
2.36e-06
6.654e-06
-0.00031
5.415e-05
0.000317
-0.0003626
4.556e-05
-0.3877
-0.637
1.025
2.415e-05
-0.0002093
0.0001066
-0.000131
2.444e-05
9.788e-05
-0.0003195
0.0002216
8.621e-05
-0.0002757
0.0001895
-1.197
0.8093
-0.0004124
0.0002432
0.0001693
6.128e-06
-3.921e-06
-2.206e-06
0.0001615
-0.0002544
9.283e-05
-0.0005006
0.0004834
1.717e-05
-0.1581
0.06358
0.09456
8.519e-05
5.298e-05
0.0002269
-0.000242
1.513e-05
-0.1624
0.1684
-0.005982
0.002696
0.0005348
-0.003231
-0.003742
0.003626
0.0001161
0.0002836
-4.898e-05
-0.0002666
-0.000127
-0.002592
0.00362
-0.002774
0.000337
-9.685e-06
-0.0002144
0.0002241
-7.379e-05
0.0001707
0.2816
0.5862
-0.8678
-0.0002928
-0.0001196
-0.0002469
0.0004522
-0.0002053
9.944e-05
-0.0001006
1.202e-06
-0.0001212
-0.0004777
-0.01469
0.0126
0.002091
-0.0005371
9.546e-05
2.456e-05
8.636e-05
1.027
-0.7452
3.012e-05
-0.0002689
-0.0001128
-0.0001527
2.73e-05
-4.728e-05
1.998e-05
1.982e-07
-6.118e-07
6.084e-05
-3.354e-05
2.997e-05
4.037e-05
0.0003649
7.86e-05
-0.0004435
0.0002275
-0.0001489
-7.86e-05
-0.004385
0.001159
0.003225
0.1727
1.023
-1.256e-09
1.255e-09
0.000105
0.0001585
-0.0002635
0.0001349
-0.0002938
5.983e-05
-5.434e-05
-5.497e-06
-9.779e-05
0.0002555
-0.0001577
2.564e-05
-0.0001453
0.0001197
-0.0002461
4.151e-05
0.0002046
-0.0004966
0.0004283
0.5587
0.8407
-7.256e-05
-0.000116
0.0001886
-0.004329
0.001235
0.003094
-1.502
0.3785
-0.0001464
0.0002538
-0.0001074
0.0001884
0.0005964
0.002085
-0.0007926
0.0008629
0.0002946
-0.001158
0.1375
-1.018
0.8803
7.187e-05
-0.0004262
8.167e-05
-1.65e-05
-6.517e-05
-0.2752
-0.715
0.8525
0.007142
0.003048
-0.0004507
0.0006035
-0.0001529
0.0003079
0.0002629
-0.000157
-7.626e-06
0.0001647
-0.0004228
0.0003665
5.633e-05
5.192e-06
-4.375e-07
-4.755e-06
-0.004008
0.001002
0.003007
-0.003909
0.005019
-0.001109
-0.7989
-0.2691
-0.0003434
9.442e-05
0.000249
-0.0003193
0.0001526
0.0001667
0.0003758
-0.0003103
-6.551e-05
9.29e-05
-0.0001793
0.001714
-0.001694
1.085
0.08565
-1.171
0.2752
-0.2122
0.07624
-0.1338
0.05758
-1.752e-05
4.483e-06
1.304e-05
0.04508
-0.844
0.03245
-0.01901
-0.01344
-0.0001059
0.0002216
-0.0001157
-0.000894
-0.001085
0.001979
0.000136
5.984e-05
-0.0001959
-0.2162
0.8471
-0.6309
-0.0001626
0.0001152
4.736e-05
-0.0004052
0.002304
-0.001899
-0.2393
-0.01678
0.2561
0.0002522
0.0002471
0.6909
0.4731
-1.164
-0.0003584
-0.0002309
0.0005893
3.049e-05
9.57e-06
-4.006e-05
0.000349
-0.0001766
-0.0001724
-0.0003162
-0.0005158
0.000832
2.094e-05
1.331e-05
-3.425e-05
0.1842
-0.04905
-0.1352
0.000143
0.0001213
-0.0002643
-0.008737
0.008588
0.0001497
-0.0002183
-6.124e-05
-8.91e-07
5.494e-06
-4.603e-06
-0.0002165
-0.0002042
0.0004206
0.0003388
0.0001079
-0.0004467
-0.007966
-0.006725
0.005148
-0.005739
0.0005907
0.001763
-0.0003885
-0.001375
7.187e-05
-7.187e-05
-0.3407
0.1969
0.1438
-0.002996
0.005232
-0.002236
0.0007884
-0.0005029
-0.0002855
-5.9e-05
0.0001126
-5.361e-05
6.547e-06
6.541e-06
0.0001276
-0.0001155
-1.214e-05
-0.1175
1.202
0.04529
-0.02747
-0.01781
-5.615e-05
-2.393e-05
-0.0002197
1.174e-05
0.0002079
-1.089e-05
1.524e-05
-4.354e-06
-0.000223
0.0005972
-0.0003742
3.837e-08
-3.835e-08
-1.623e-05
2.1e-05
-4.767e-06
1.087e-05
-1.087e-05
-0.0005291
0.0001876
0.0003415
4.182e-05
2.548e-05
-6.73e-05
-0.0002705
0.000198
4.023e-05
-2.845e-05
-1.178e-05
0.09881
-0.07386
-0.02495
0.001875
-0.001421
-0.0004546
1.093
-1.517
0.4243
1.317
-1.74
0.4225
-7.937e-05
-0.0002884
0.0003678
-0.04407
0.09346
-0.0494
0.0002418
-1.605e-05
-0.0002257
-0.002872
0.001532
0.00134
-0.00131
5.198e-05
-0.007522
0.008503
-0.0009809
0.04556
-0.1006
0.05505
-0.0007028
1.755e-05
0.0006852
0.0006535
0.0009858
-0.001639
0.2524
-0.006521
-0.00329
0.003222
6.831e-05
0.0001866
-0.0003286
0.0001419
0.09312
-0.04756
0.0002683
-0.0001382
-0.0001301
1.439e-05
-1.439e-05
-0.0001138
2.451e-05
8.925e-05
0.0008871
-0.002803
0.001916
-6.148e-06
-3.899e-05
4.514e-05
0.0001049
-4.372e-05
-6.119e-05
-0.0001561
0.0001489
7.201e-06
-0.3372
0.1226
0.2146
0.0002224
-6.708e-06
-0.0005238
-0.0005621
-0.05048
0.3506
0.0002581
-0.0001915
0.0003736
-3.121e-05
-0.0003424
0.0002436
-0.0004597
0.0002161
-0.4768
-0.5488
1.026
0.2195
-0.0003133
-0.2192
0.006031
-0.003789
-0.002242
1.417e-06
6.57e-07
-2.074e-06
9.169e-05
-0.002038
0.001946
-1.422e-05
1.422e-05
0.0005363
-0.0002689
-0.0002674
0.0006866
-0.0001912
-0.0004953
-0.001952
0.001793
0.0001597
4.5e-06
2.862e-06
-7.362e-06
0.0002082
5.429e-05
-0.0002624
-0.4114
1.371
-0.96
-0.0001415
0.0001961
-5.463e-05
0.005837
-0.0002712
-0.005566
-0.3004
1.333
-1.033
-0.0005927
-0.0007422
0.001335
-1.957e-07
1.085e-07
8.716e-08
0.001549
0.003107
-0.004656
0.0001011
-3.569e-05
-6.54e-05
0.006561
-0.003743
-0.002818
0.001182
0.003066
-0.004247
-1.067e-06
-1.811e-06
2.878e-06
2.422e-05
-2.422e-05
0.0005571
0.0002447
-0.0008018
-0.08842
-0.05403
-0.4601
0.2229
0.2372
0.002812
-0.001065
-0.001747
-0.001274
0.0009511
0.0003233
-7.12e-05
-0.0001314
0.0002026
0.0003524
-0.0001947
-0.0001577
-0.0006165
-0.000243
0.0008595
0.0003009
-0.000142
-0.0001589
-0.00232
0.002089
0.0002313
-0.01037
0.01841
-0.008042
0.0001199
0.0001811
-0.03301
-0.01401
0.04702
5.342e-05
3.023e-06
-5.644e-05
0.1366
-0.5759
0.4393
-0.0001792
-0.0002608
0.00044
-8.729e-07
7.908e-06
-7.035e-06
0.0003597
-0.000473
0.0001132
-0.0003867
0.0003129
7.383e-05
0.0004309
-0.0002044
-0.0002265
-0.3821
0.0977
0.2844
-0.1881
0.05481
0.1333
4.619e-05
-7.75e-05
3.131e-05
0.007597
-0.008486
0.0008891
-0.0001043
0.0001994
-9.51e-05
0.0004515
-0.0007696
0.0003181
6.672e-05
-0.0001275
6.079e-05
-0.0004047
0.0003923
1.242e-05
0.0004474
-0.0001269
-0.0003205
0.0001506
-9.359e-05
-5.7e-05
-4.257e-05
0.0002066
-0.000164
8.815e-05
-8.815e-05
-1.029e-05
-0.0001266
0.0001369
-3.488e-05
0.0002487
-0.0002138
-0.0002567
0.0002094
4.724e-05
-0.002757
0.004138
-0.001382
-0.0002455
0.0005347
-0.0002892
0.0001506
0.0007702
0.0001928
-0.0002015
8.734e-06
-5.495e-07
-4.221e-06
4.771e-06
2.638e-07
-1.169e-07
-1.47e-07
0.0005225
-0.0002396
-0.0002829
-0.3199
0.4213
0.5906
0.2168
-0.8074
0.0003131
-0.0004191
0.000106
-7.205e-05
-0.0002188
0.0002909
0.004705
-0.0009005
-0.003804
-0.1888
1.181
-0.9923
0.0002295
0.0005741
-0.0008036
0.000459
5.157e-05
-0.00246
-0.005587
0.008047
-8.154e-05
-4.975e-05
0.0001313
0.001143
-0.0008685
-0.000275
3.313e-05
-0.000152
0.0001189
0.002967
-0.003432
0.0004657
0.7871
-0.6763
-0.008125
0.00266
0.005465
0.01194
0.0005181
-0.01246
0.000131
-1.573e-05
-0.0001152
4.47e-05
7.398e-05
-0.0001187
0.0001304
-9.873e-05
-3.17e-05
-0.004158
0.001744
0.002414
0.00129
-0.005507
0.004217
-0.0001159
0.0002829
-0.000167
-0.0006207
0.0009327
-0.000312
-0.002247
-0.001536
0.003783
-0.0007036
0.0002805
0.0004231
-0.0006481
-0.0001304
0.0007785
0.001789
-0.001464
-0.000325
-0.0003155
0.000267
4.854e-05
0.0002411
-0.0001732
-6.791e-05
0.2596
-0.3214
0.06184
3.855e-05
-2.226e-05
-1.629e-05
7.912e-07
3.058e-06
-3.849e-06
-0.0004033
0.0001564
1.055e-05
-0.0003664
0.0003559
4.006e-05
8.104e-06
0.02122
-0.1185
0.09725
6.469e-05
-6.469e-05
-9.407e-05
9.407e-05
-0.1664
-1.047
1.213
1.258
0.2308
-1.489
0.0002763
-0.0001759
-0.0001003
-0.0001146
0.0006365
-0.000522
-3.233e-08
3.25e-08
-1.813e-10
-5.087e-06
-4.711e-06
9.798e-06
-0.0002069
0.002082
-0.0004585
0.0006009
-0.0001424
-0.0001357
-1.411e-05
0.0001498
-0.001142
-0.004002
0.005144
0.003477
0.005071
-0.008549
-0.1883
0.06148
0.1268
-0.0001476
9.672e-05
5.087e-05
2.653e-05
0.0004498
-0.0004763
0.0001007
-0.0002108
0.0001102
-0.00452
0.001021
0.003499
1.661e-06
-3.072e-06
1.411e-06
-0.0002467
0.0003391
-9.234e-05
0.8158
-1.147
0.3309
-0.00011
0.00011
-0.0001755
0.0001111
6.44e-05
0.1661
0.5624
-0.7285
-0.0003039
2.342e-05
-1.286
1.12
0.2416
-0.4253
0.1838
-0.003133
0.002168
0.000965
-0.01099
-0.00195
0.01294
-2.407e-05
1.485e-05
9.22e-06
0.7798
-0.9451
0.1653
0.0005447
-0.0002862
-0.0002585
0.4765
-0.1364
-0.3401
0.0005419
-0.0009807
0.0004388
-0.01638
0.005523
0.01086
0.003723
-0.0033
-0.0004232
0.006078
-0.00319
-0.002888
-0.0001331
-0.0005517
0.0006848
-0.0005823
-0.0002372
0.0008195
-0.0001351
-4.405e-05
0.0001792
0.00186
0.0003887
-0.002249
0.1506
0.6498
-0.8004
0.009151
0.06144
-0.07059
0.0004925
-0.0002768
-0.0002157
-0.0001658
-0.0008498
0.001016
-5.647e-05
0.0001811
-0.0001247
-0.0001801
0.0001049
7.518e-05
4.687e-05
-2.806e-05
-1.882e-05
9.982e-05
2.657e-05
-0.0001264
2.824e-05
-2.824e-05
0.0001901
-0.0003286
0.001125
-0.0008146
-0.00031
5.158e-05
-0.0001235
7.195e-05
-0.0007155
0.0004609
0.0002546
0.0001145
5.411e-05
-0.0001686
0.006069
-0.006713
0.0006439
0.00123
-0.0005155
-0.0007142
0.495
-0.3662
-0.1287
0.0003582
-0.0003922
3.397e-05
1.159e-05
-3.077e-05
1.918e-05
-0.0003263
2.376e-06
0.0003239
0.4959
-1.094
0.5979
-0.0003991
0.0001476
0.0002515
-0.000639
0.0003195
0.0003195
-0.002349
0.0006047
0.001744
0.001479
-0.0006629
-0.0008163
6.059e-05
-0.0002402
0.0001797
0.001421
0.006552
-0.007974
-0.0002355
0.0002719
-3.638e-05
0.0001183
0.0001993
-0.0003175
-0.001172
-0.001177
3.264e-05
6.34e-05
-9.604e-05
-0.0004708
-7.27e-05
0.0005435
-5.232e-06
4.341e-06
-1.18
0.5415
0.6386
0.002334
-0.004585
0.002251
0.0003259
-0.000124
-0.0002019
0.1285
0.05642
-0.185
0.0003379
-9.88e-05
-0.0002391
-0.0001448
-4.378e-05
0.0001885
-1.246
1.246
0.001501
0.002234
-0.003734
2.29e-05
-3.332e-05
1.042e-05
0.06689
-0.05162
-0.01527
0.006891
-0.0008216
-0.0003788
0.0004623
-8.355e-05
4.674e-05
-1.982e-05
-2.693e-05
0.01192
-0.009262
-0.002657
-1.27
0.5241
0.7463
-0.0002434
0.000397
-0.0001536
9.483e-05
-0.0002401
0.0001453
0.4038
-0.2565
-0.1473
-0.008897
0.00648
0.002417
0.0009525
-0.03192
0.03096
0.0003574
0.000167
-0.0005244
0.0002216
8.622e-05
-0.0003079
-0.001512
-0.0007376
0.00225
-0.05326
-0.05486
0.1081
1.11e-07
5.955e-06
-6.066e-06
3.366e-08
9.328e-07
-9.665e-07
0.0001928
0.0005802
0.0003502
-0.001206
0.0008562
0.0003597
-0.0005848
0.0002251
2.725e-05
1.298e-05
-0.3926
1.24
-0.8477
0.0002361
-0.001164
0.0009282
0.3506
-0.007317
-0.3433
-0.0002217
0.0003116
-8.998e-05
-0.000888
0.0008437
4.43e-05
-0.0001914
-0.0002272
0.0004185
0.0004119
0.001067
-2.591e-07
2.09e-06
-1.831e-06
-9.483e-05
0.0001032
-8.332e-06
-0.5586
0.219
0.3396
-2.249e-06
2.249e-06
0.0001194
-8.897e-05
-3.042e-05
-4.332e-05
0.0001766
-0.0001333
-0.001813
-0.0002164
0.002029
-0.0001415
0.0002185
0.0002152
0.000243
-0.0004583
0.001379
-0.001489
0.0001099
-0.000192
0.0001588
3.312e-05
0.002105
-0.00146
-0.0006452
-0.00856
0.02444
-0.01588
5.111e-06
-5.111e-06
0.0001986
-0.0002477
4.916e-05
-0.00073
0.0003219
0.0004081
0.0002912
0.0001394
-0.0004305
0.001409
-0.001171
-0.0002379
0.0001598
0.0003183
-0.0004781
1.764e-05