/*--------------------------------*- C++ -*----------------------------------*\
  =========                 |
  \\      /  F ield         | OpenFOAM: The Open Source CFD Toolbox
   \\    /   O peration     | Website:  https://openfoam.org
    \\  /    A nd           | Version:  8
     \\/     M anipulation  |
\*---------------------------------------------------------------------------*/
FoamFile
{
    version     2.0;
    format      ascii;
    class       volVectorField;
    location    "10";
    object      U;
}
// * * * * * * * * * * * * * * * * * * * * * * * * * * * * * * * * * * * * * //

dimensions      [0 1 -1 0 0 0 0];

internalField   nonuniform List<vector> 
127143
(
(0.001795 -7.877e-05 0)
(-9.076e-05 -0.0004263 -4.441e-24)
(-6.529e-05 -0.0003204 8.072e-24)
(-8.445e-05 -0.0003853 -1.431e-27)
(0.0009934 0.0002956 -2.152e-22)
(-7.128e-05 -0.0003961 4.826e-27)
(0.02392 0.01477 0)
(0.006539 0.003137 -3.149e-22)
(0.005209 0.002498 1.04e-21)
(-0.003937 -0.0001545 0)
(0.03678 0.05067 1.632e-21)
(0.01569 0.01044 1.23e-21)
(0.0001908 -7.225e-05 -1.647e-24)
(-0.0001095 -0.0004325 0)
(-0.004418 0.08314 1.493e-20)
(0.04082 -0.003778 0)
(-0.0002244 -0.001029 -1.308e-23)
(0.2546 -0.09685 1.2e-20)
(-0.07929 -0.006544 0)
(0.05009 0.008407 0)
(-0.2007 0.04745 7.744e-21)
(-0.002027 0.0006202 0)
(0.9627 -0.1306 0)
(0.6179 -0.05981 0)
(-0.002033 0.0006932 -1.554e-22)
(0.237 -0.03656 0)
(-0.03352 0.0006045 2.401e-20)
(-0.03369 -0.001114 -3.615e-22)
(0.2288 -0.102 0)
(0.6192 -0.09187 6.253e-21)
(0.4811 -0.02865 0)
(0.2303 -0.03392 -8.106e-22)
(-0.01856 -0.004024 4.113e-21)
(-0.1226 0.03134 -1.547e-20)
(0.8589 -0.05148 2.733e-20)
(-0.0196 -0.003023 -3.97e-24)
(-0.1938 0.06766 4.451e-21)
(0.484 0.0008114 -7.145e-21)
(0.7354 -0.06658 -1.131e-21)
(0.2098 -0.009641 3.152e-25)
(-0.07984 -0.007505 0)
(1.126 0.5149 -9.406e-21)
(1.107 0.5032 7.251e-21)
(0.0004001 -0.0001373 0)
(0.2283 -0.0912 -8.628e-21)
(-0.1264 0.02967 5.036e-21)
(0.2316 -0.1073 0)
(-0.1792 0.06404 -6.403e-22)
(0.7409 -0.1297 6.231e-23)
(0.6935 -0.05585 -8.216e-22)
(0.04844 -0.003495 -1.439e-22)
(0.9646 -0.02485 5.925e-20)
(-0.1375 0.04399 0)
(1.261 0.1406 -1.313e-20)
(1.001 -0.001297 3.105e-20)
(0.5686 -0.1407 5.187e-22)
(1.001 -0.00129 -2.791e-20)
(1.078 -0.07834 0)
(1.011 -0.01051 -1.748e-20)
(1.259 0.1432 -2.553e-20)
(0.4857 0.0007455 -7.664e-20)
(-0.09879 0.03903 -1.135e-21)
(1.067 -0.07545 3.336e-21)
(1.001 0.0005267 7.619e-20)
(-0.1718 0.01881 0)
(0.8407 -0.2115 -1.039e-20)
(1.128 0.1515 4.615e-20)
(1.029 -0.07801 0)
(1.037 -0.07765 8.746e-22)
(0.9919 -1.018e-05 0)
(0.5504 -0.04118 0)
(-0.03622 0.0007469 -1.136e-20)
(-0.1551 -0.04048 -5.937e-21)
(1.011 -0.01037 -9.597e-21)
(1.004 0.003089 -3.208e-22)
(-0.03658 -0.0007657 1.134e-20)
(1.017 0.03977 -4.025e-20)
(-0.1764 0.05868 0)
(0.5883 -0.1517 -9.484e-22)
(1 0.0008316 0)
(0.2244 -0.1013 1.655e-23)
(0.05611 0.007113 3.305e-23)
(-0.1995 0.04699 6.957e-21)
(0.2596 -0.01838 0)
(-0.1398 -0.006203 1.113e-21)
(-0.1762 0.06002 0)
(0.8397 -0.08413 -1.994e-21)
(-0.03753 -0.003236 6.271e-21)
(0.84 -0.2088 0)
(1.267 0.7855 0)
(0.9947 -0.009454 0)
(1.22 -0.03823 0)
(1.262 0.781 0)
(-0.2 0.04703 -7.979e-21)
(-0.2678 0.05451 0)
(1.019 0.03022 4.921e-21)
(1.127 0.507 2.065e-20)
(0.3536 -0.02655 0)
(-0.167 0.04805 2.424e-21)
(1.124 0.1531 0)
(1 0.0008061 0)
(0.7693 -0.1377 0)
(0.9785 0.9204 -1.633e-21)
(1.058 -0.1172 0)
(-0.1754 0.05991 -1.333e-21)
(-0.1682 0.04853 3.472e-21)
(0.9987 -0.1549 -8.934e-22)
(0.9912 5.448e-05 0)
(0.6603 -0.2318 0)
(1.002 -0.001001 4.466e-20)
(0.004701 0.07877 -4.88e-21)
(-0.03711 -0.00244 1.206e-20)
(-0.2329 0.05202 -8.164e-21)
(0.2648 0.6366 0)
(0.9969 0.01239 1.2e-20)
(1.005 -0.1565 -8.865e-23)
(0.9954 0.0475 -2.719e-21)
(1.004 0.003237 -4.531e-20)
(1.017 0.03866 3.188e-20)
(-0.0009812 -0.004132 0)
(1.002 -0.001065 -6.248e-20)
(-0.1993 0.05171 -2.064e-21)
(0.7781 -0.2746 0)
(1.057 -0.08456 9.138e-21)
(0.2372 -0.1056 8.31e-22)
(0.1635 -0.02178 -4.085e-21)
(-0.1338 0.03764 0)
(1.039 0.001463 1.182e-19)
(-0.1964 0.03411 -2.943e-21)
(0.566 -0.164 -1.058e-21)
(-0.1919 0.0555 0)
(-0.2593 0.05926 -5.924e-21)
(1.106 -0.09604 -7.073e-21)
(-0.1762 0.05876 0)
(-0.0003346 -0.001819 -7.197e-23)
(-0.1913 0.05508 -2.32e-21)
(1.072 -0.05736 0)
(-0.1752 0.04103 2.094e-21)
(0.2618 -0.148 -6.695e-21)
(1.107 -0.02588 9.59e-21)
(0.9307 -0.1567 1.425e-20)
(0.9902 0.03468 3.486e-20)
(-0.09869 0.02106 4.698e-22)
(-0.07823 0.02412 -7.859e-21)
(-0.1311 0.04323 -1.621e-21)
(1.27 0.5334 5.413e-21)
(-0.06895 0.3727 1.368e-21)
(1.001 0.000458 -6.897e-20)
(-0.2608 0.05986 5.208e-21)
(0.8625 0.749 -8.893e-22)
(1.072 -0.1111 -2.381e-21)
(0.8027 -0.1596 0)
(0.7347 0.01312 2.416e-20)
(0.8177 -0.1102 0)
(0.2449 -0.1276 0)
(-0.1409 -0.006091 0)
(1.079 -0.07753 -3.615e-21)
(0.5332 -0.1848 0)
(-0.1786 0.06379 -1.2e-21)
(0.3144 -0.02833 1.323e-21)
(0.587 -0.03734 0)
(0.06097 -0.03097 8.835e-21)
(0.995 -0.009456 6.529e-22)
(-0.1912 0.05541 -6.07e-21)
(0.3513 -0.09382 0)
(-0.1891 0.02199 1.487e-20)
(-0.19 0.06607 -3.091e-21)
(0.6489 -0.1895 2.269e-20)
(0.03445 0.02868 -1.182e-20)
(0.9458 0.06421 -5.951e-21)
(-0.0422 0.01302 0)
(-0.0802 0.02537 3.657e-21)
(0.9969 -0.1663 -5.646e-23)
(0.8786 -0.2437 -3.607e-21)
(0.9806 -0.001165 3.378e-20)
(-0.08757 0.005718 3.107e-23)
(1.252 0.5833 -1.057e-21)
(-0.1971 0.03548 -2.856e-21)
(0.6922 -0.07009 0)
(1.007 -0.0208 6.794e-21)
(0.8776 -0.2441 -1.213e-21)
(0.9991 -0.00752 0)
(-0.07168 -0.008717 4.7e-22)
(-0.08732 0.004848 -3.149e-23)
(0.5784 -0.1705 2.242e-21)
(-0.09499 0.03785 2.025e-21)
(1.064 0.3374 -9.745e-21)
(0.2824 0.6539 -3.844e-21)
(0.6471 -0.06351 -2.473e-21)
(1.025 -0.03029 4.366e-20)
(-0.2233 0.0384 9.301e-22)
(-0.2773 0.04751 -7.632e-21)
(1.071 -0.05647 6.399e-20)
(0.4267 1.023 8.152e-22)
(-0.0002057 -0.001914 1.201e-22)
(-0.1408 0.03357 0)
(1.004 1.08e-06 0)
(0.9978 -2.34e-08 4.092e-22)
(0.02039 0.007565 0)
(0.992 0.01808 4.017e-21)
(1.013 0.007304 3.933e-20)
(0.9282 0.02129 1.117e-19)
(0.99 -0.04311 6.022e-21)
(-0.1939 0.06766 -2.087e-21)
(-0.0001492 -0.0008241 1.76e-24)
(0.9454 -0.05995 3.86e-21)
(0.9907 -0.08603 1.844e-21)
(1.005 -0.1717 4.32e-23)
(0.7358 -0.1108 -5.025e-21)
(0.9969 0.01203 -6.101e-21)
(1.145 -0.07659 1.812e-20)
(-0.1289 -0.0009043 6.904e-22)
(0.9911 -0.003632 1.467e-20)
(0.04858 0.03283 -1.3e-20)
(-0.1978 0.05738 -3.207e-24)
(0.03095 0.001426 0)
(-0.0368 0.01257 -1.225e-21)
(0.9871 -0.1855 3.583e-22)
(-0.233 0.05743 -6.627e-21)
(0.9923 -0.08503 3.463e-22)
(1.245 0.5793 -2.222e-21)
(1.002 0.00582 7.06e-21)
(0.7909 -0.1543 -5.812e-23)
(-0.09077 0.04498 1.867e-21)
(0.2901 -0.027 0)
(-0.05602 0.01906 0)
(0.4331 -0.1119 -1.194e-21)
(0.5423 0.006741 7.95e-21)
(-0.1204 0.04155 2.775e-21)
(-0.1517 0.04477 3.637e-21)
(-0.207 0.04874 4.913e-21)
(0.9996 -0.00796 4.323e-21)
(-0.1547 -0.04041 1.178e-20)
(-0.0001578 -0.009366 0)
(-0.206 0.04851 0)
(1.044 -0.0715 8.504e-21)
(-0.1913 0.05535 2.909e-21)
(0.004684 -0.0007216 7.517e-23)
(1.013 0.007072 -3.653e-20)
(-0.2011 0.03091 4.576e-21)
(-0.273 0.04715 6.559e-21)
(-0.1861 0.01717 -2.185e-20)
(-0.1557 0.03923 -3.094e-22)
(0.5526 -0.1932 1.244e-24)
(0.3804 0.04095 0)
(-0.0007936 -0.004269 2.279e-26)
(0.9102 -0.1815 3.406e-22)
(-0.0346 0.0006227 0)
(-0.008176 0.002257 1.806e-21)
(1.001 -6.199e-05 -1.326e-21)
(1.247 0.4542 -2.237e-20)
(0.2289 -0.02533 3.753e-21)
(0.9461 -0.2139 0)
(-0.1696 0.03765 0)
(0.7209 -0.1738 1.031e-21)
(0.679 -0.2374 0)
(1.038 0.0009477 -9.266e-20)
(0.4184 0.1706 0)
(0.916 -0.2202 0)
(0.8854 0.262 8.975e-21)
(-0.1404 0.03415 -3.965e-21)
(0.9991 -0.01698 -2.484e-21)
(1.219 -0.03608 4.104e-22)
(0.9893 0.03376 -2.89e-20)
(0.05196 0.03768 0)
(-0.1833 0.01803 -7.271e-21)
(-0.1471 0.04647 1.001e-20)
(0.2157 -0.1262 0)
(0.523 -0.1267 5.35e-20)
(1.337 0.1716 -8.699e-21)
(0.3875 -0.07089 0)
(0.9769 -0.001774 -4.07e-20)
(-0.1717 0.05945 -9.363e-22)
(-0.2047 0.03065 -4.671e-21)
(1.128 -0.07433 5.728e-21)
(-0.2172 0.03817 -4.483e-21)
(-0.2315 0.05168 0)
(0.8278 -0.1313 1.199e-21)
(0.9606 -0.003221 -1.116e-21)
(0.8607 -0.2394 3.591e-21)
(1.002 -0.0005189 8.849e-22)
(1.016 0.03263 1.62e-21)
(1.058 -0.1167 -6.623e-24)
(0.9942 0.004836 0)
(1.004 0.0118 9.143e-21)
(-0.0008359 -0.002018 -1.739e-23)
(-0.2184 0.06027 0)
(0.9973 0.01339 6.076e-21)
(0.7842 -0.1118 1.172e-21)
(1.006 -0.02084 9.526e-21)
(0.7872 0.006297 -3.258e-20)
(0.952 -0.1663 0)
(1.043 -0.07224 -8.31e-21)
(0.9802 -0.1803 0)
(0.9928 -0.007217 -1.095e-20)
(0.6458 -0.245 -6.08e-22)
(0.4664 -0.03546 2.28e-21)
(-0.01021 -0.01953 -6.225e-22)
(-0.1561 0.03962 1.193e-21)
(1.337 0.1711 6.292e-21)
(0.3697 -0.04363 -1.024e-21)
(0.8915 -0.1989 -1.519e-21)
(0.7587 -0.1952 -1.417e-20)
(1.005 -0.156 8.234e-22)
(0.2749 -0.01982 0)
(0.4396 -0.2257 5.093e-23)
(1.004 -0.1713 1.606e-23)
(0.9908 -0.003702 0)
(0.08551 -0.01358 -1.264e-23)
(1.082 -0.1119 -2.84e-21)
(0.9791 -0.1503 -1.252e-21)
(0.002357 -0.02756 -2.081e-22)
(0.5395 -0.129 0)
(1.001 -0.0006276 1.188e-21)
(0.991 0.006207 -2.342e-20)
(1.29 0.6014 9.586e-22)
(0.2451 0.009016 3.863e-21)
(0.3485 -0.03941 2.808e-21)
(1.22 -0.004445 3.065e-20)
(0.9343 -0.01703 1.668e-21)
(0.9615 -0.1294 0)
(0.5208 -0.03598 -4.004e-21)
(1.069 0.004458 2.64e-20)
(0.9469 -0.2137 6.205e-22)
(1.286 0.5974 0)
(0.1809 0.01221 -8.545e-21)
(0.9019 -0.02113 5.574e-20)
(0.02383 -0.01074 -5.285e-24)
(0.5565 -0.0216 1.908e-21)
(1.224 0.6349 8.541e-21)
(-0.1338 0.04897 0)
(1.005 0.01162 -8.612e-21)
(0.8641 -0.05338 -1.044e-19)
(1.004 9.204e-06 0)
(0.9977 2.176e-06 0)
(0.8177 -0.1064 0)
(0.6724 -0.2343 -3.992e-21)
(0.9961 -0.1663 -2.2e-23)
(-0.134 0.04944 -1.415e-21)
(-0.228 0.06179 -1.998e-20)
(1.104 -0.02678 -4.285e-20)
(0.9875 -0.1852 0)
(-0.09547 0.04093 1.556e-21)
(-0.2083 0.03817 7.461e-22)
(0.17 0.219 -5.212e-22)
(0.7728 -0.1071 -7.446e-22)
(-0.2454 0.05865 -6.247e-21)
(-0.2498 0.05053 3.155e-21)
(0.4088 -0.05006 -1.594e-21)
(-0.1937 0.02694 0)
(0.4341 -0.0476 1.259e-21)
(0.01915 0.007051 5.11e-21)
(-0.1091 0.0216 -6.188e-22)
(-0.2138 0.03824 3.267e-21)
(0.9248 0.06922 0)
(-0.2473 0.06079 -1.524e-20)
(-0.1716 0.03845 -3.247e-21)
(1.271 0.5075 -5.304e-21)
(1.004 -0.007554 7.483e-21)
(0.538 -0.02057 0)
(-0.1616 0.05201 -1.53e-21)
(1.087 -0.07659 9.791e-22)
(0.7828 -0.1171 -2.808e-20)
(0.7101 -0.05179 0)
(0.7051 -0.05981 -2.262e-21)
(1.002 0.002716 3.232e-22)
(0.9923 0.01768 -1.217e-20)
(0.8983 -0.003916 0)
(-0.2278 0.04197 4.704e-21)
(0.963 -0.002598 0)
(0.3598 0.02978 7.107e-20)
(1.069 0.002142 -5.546e-20)
(0.2795 -0.03038 -3.152e-21)
(0.6793 -0.04977 3.247e-21)
(1.026 -0.029 0)
(1.18 0.01192 -7.475e-22)
(0.5174 -0.04892 1.866e-21)
(0.007454 -0.01143 2.179e-26)
(-0.1611 0.04927 -6.583e-21)
(0.9673 -0.005688 3.3e-21)
(0.7164 -0.07738 -4.581e-20)
(0.1912 -0.02206 4.038e-21)
(0.4591 -0.05616 0)
(0.8893 -0.201 -6.022e-21)
(0.9957 0.04578 0)
(0.09025 -0.006848 0)
(0.9788 0.1778 0)
(0.2227 -0.01112 0)
(-0.1452 0.03506 -1.053e-21)
(0.4369 -0.03197 -2.923e-20)
(1.012 -0.008307 -5.009e-20)
(0.7288 -0.1637 0)
(-0.08442 0.02835 2.396e-21)
(0.7223 -0.1848 1.125e-21)
(0.6444 -0.05749 3.857e-21)
(0.4616 -0.03057 2.911e-21)
(0.7332 -0.1664 -1.124e-20)
(0.5163 -0.02993 0)
(0.9228 0.06754 0)
(0.9983 -0.01701 0)
(0.2339 -0.01963 -1.276e-21)
(1.002 0.005535 -2.716e-21)
(-0.198 0.04485 0)
(-0.07405 -0.008532 0)
(0.9853 0.1795 0)
(1.06 -0.1248 1.593e-21)
(-0.1731 0.05933 -7.039e-21)
(1.096 -0.1021 4.69e-21)
(1 0.000769 -7.3e-20)
(0.7364 -0.07688 0)
(0.6598 -0.2693 0)
(0.4207 -0.05803 -1.263e-21)
(0.932 -0.1556 -1.485e-20)
(-0.1712 0.06256 0)
(0.7768 -0.2725 0)
(-0.2662 0.05404 -4.584e-21)
(-0.1965 0.05262 -5.763e-21)
(0.3404 -0.06873 0)
(0.8691 0.04438 6.285e-21)
(0.706 -0.2796 -1.851e-21)
(-0.1906 0.0665 0)
(-0.03697 0.01295 -4.695e-21)
(-0.2024 0.05804 0)
(1.003 0.0001211 6.714e-23)
(-0.1531 0.0453 -4.515e-21)
(0.9478 0.3054 -5.512e-22)
(1.101 0.4911 4.153e-22)
(0.9005 -0.1416 -1.286e-20)
(-0.1958 0.01989 2.356e-20)
(0.9718 -0.1044 -3.116e-21)
(1.004 -0.0002648 0)
(-0.1982 0.05744 0)
(-0.1073 0.02251 0)
(1.146 -0.09189 1.064e-19)
(0.7335 0.1435 1.177e-21)
(1.002 0.002649 -1.017e-20)
(1.029 -0.1527 1.159e-21)
(-0.2601 0.05846 -1.203e-20)
(0.9656 -0.02391 -2.226e-20)
(0.9926 -0.006959 0)
(0.997 -0.000406 -5.606e-21)
(0.7303 -0.05978 1.175e-21)
(1.07 -0.06174 -2.191e-20)
(0.6725 -0.2405 7.043e-21)
(0.9643 0.04527 0)
(0.3739 -0.02715 -1.731e-22)
(0.9883 0.00604 5.532e-20)
(0.3477 -0.2175 0)
(0.8865 -0.006873 -2.717e-21)
(-0.1287 -0.00216 6.763e-22)
(-0.1924 0.04966 0)
(0.5267 -0.06851 -2.341e-23)
(1.059 -0.1238 -4.622e-21)
(-0.2285 0.04044 2.879e-20)
(0.8648 0.1152 -3.568e-22)
(-0.1922 0.066 -6.549e-22)
(0.354 -0.04198 -9.305e-22)
(-0.193 0.01711 0)
(-0.1922 0.06726 0)
(1.183 0.07318 5.475e-21)
(1.107 -0.09608 2.268e-21)
(-0.1178 0.03859 4.625e-21)
(0.06794 -0.001949 0)
(0.3319 0.592 -1.62e-20)
(-0.1301 0.03909 3.134e-24)
(0.9941 -0.001227 0)
(1.009 0.02782 0)
(-0.1889 0.03673 0)
(-0.2159 0.05682 7.025e-21)
(0.9983 -0.0001768 0)
(-0.1604 0.04537 2.783e-21)
(1.236 -0.01377 2.311e-20)
(1.057 -0.08323 -1.386e-20)
(0.2866 0.005028 -1.376e-21)
(0.9959 -0.0721 1.616e-21)
(1.004 -0.0001295 0)
(0.18 -0.05123 -4.214e-20)
(1.234 -0.01257 -2.428e-20)
(-0.1296 0.04514 -1.906e-21)
(0.04563 0.04079 3.904e-22)
(0.2124 -0.1129 6.111e-22)
(0.331 -0.2055 -4.101e-21)
(-0.3093 0.04631 3.252e-21)
(0.5375 -0.1291 0)
(0.6612 -0.2618 0)
(0.7802 0.148 -1.18e-21)
(0.1865 0.02897 -2.885e-22)
(1.011 0.001236 4.396e-20)
(0.3599 -0.03259 -2.238e-21)
(0.9721 0.01801 4.145e-20)
(1.287 0.6075 3.147e-22)
(0.8784 -0.08819 1.727e-21)
(-0.1598 0.04621 0)
(1.273 0.5226 2.397e-21)
(-0.0002517 -0.001387 0)
(-0.1887 0.05554 7.736e-21)
(0.2634 0.4167 7.489e-21)
(1.064 -0.0323 -2.483e-22)
(1.05 0.7581 9.356e-21)
(0.9917 -0.001093 -8.286e-20)
(0.2089 -0.1154 0)
(1.009 0.02778 4.091e-23)
(-0.1546 0.04279 0)
(-0.1357 0.03199 -3.959e-21)
(-0.0001964 -0.001117 0)
(0.0005525 -0.002886 1e-22)
(0.001505 -0.0005573 -3.316e-23)
(1 -0.0002723 -3.902e-20)
(-0.2489 0.06144 0)
(0.09264 0.05224 0)
(0.9914 0.006287 4.505e-20)
(-0.1478 0.05335 2.378e-21)
(0.7782 -0.2766 7.219e-21)
(-0.1758 0.05612 6.802e-21)
(1.029 -0.1428 0)
(-0.1944 0.05031 0)
(0.5178 -0.06374 -1.096e-21)
(-0.1603 0.04497 -2.84e-21)
(-0.09447 0.01728 1.811e-21)
(0.9988 -0.0009397 0)
(-0.1115 -0.01091 -9.138e-22)
(-0.001282 0.0004261 0)
(0.6727 -0.2711 1.239e-21)
(0.386 -0.03859 7.766e-22)
(-0.04556 0.01361 9.869e-22)
(1.012 -0.009822 -1.528e-20)
(1.071 -0.1109 -2.602e-21)
(0.992 -0.04373 -2.085e-21)
(0.09831 -0.006531 1.038e-20)
(0.9993 -0.007244 0)
(0.3197 -0.02398 0)
(0.3944 0.1961 0)
(-0.103 0.03487 -3.6e-21)
(0.9973 3.637e-05 0)
(-0.1895 0.0379 -2.641e-21)
(1.03 -0.0924 -5.243e-21)
(-0.01267 0.001593 4.014e-26)
(0.6294 -0.2626 3.172e-21)
(0.09815 0.03987 2.192e-21)
(0.1099 -0.0114 -3.615e-21)
(0.9682 0.01082 2.854e-21)
(-0.1689 0.05887 -2.052e-21)
(0.7506 -0.2647 -4.062e-21)
(0.9982 -0.000178 4.516e-21)
(0.8906 -0.2007 8.05e-21)
(0.9812 0.05009 -3.344e-20)
(0.5078 -0.04233 -1.815e-21)
(0.7262 -0.05063 1.713e-21)
(-0.2072 0.05474 -7.389e-21)
(-0.09451 0.03197 1.68e-21)
(-0.1423 0.03396 1.901e-21)
(1.166 0.178 0)
(0.7332 -0.2832 1.751e-21)
(-0.1813 0.0614 0)
(-0.2 0.05788 2.119e-22)
(1.02 -0.00477 -7.789e-21)
(0.2457 -0.01197 4.552e-22)
(-0.2076 0.05704 -3.059e-21)
(0.4012 -0.06323 1.825e-21)
(1.077 -0.1147 -3.872e-21)
(-0.1708 0.04844 1.239e-21)
(1 0.001563 0)
(0.9998 0.002015 1.222e-20)
(0.8921 0.2517 -1.454e-20)
(-0.2411 0.05779 -3.119e-21)
(1.033 0.7936 0)
(0.99 0.007441 -3.107e-20)
(1.004 2.309e-05 -5.76e-22)
(0.7611 -0.2559 0)
(0.576 -0.2511 0)
(-0.1758 0.06103 2.263e-21)
(0.6598 -0.2623 0)
(-0.08865 0.03021 6.041e-21)
(-0.04122 0.01344 0)
(0.9471 -0.1981 -8.572e-22)
(1.015 0.03476 0)
(0.9997 -0.0004962 7.65e-21)
(-0.1137 0.0399 3.11e-21)
(-0.1728 0.04717 -2.119e-21)
(0.9526 -0.217 1.619e-21)
(1.003 -0.001359 1.29e-20)
(-0.03842 0.0004053 5.548e-21)
(1.092 -0.1074 0)
(-0.2337 0.06286 7.794e-21)
(0.9678 -0.004594 8.412e-21)
(0.2699 -0.03345 2.009e-22)
(0.9898 0.007178 5.737e-20)
(-0.1715 0.05898 -1.133e-21)
(-0.07769 -0.01288 0)
(0.3574 -0.02671 5.514e-22)
(0.9997 3.157e-05 2.162e-22)
(-0.1417 0.04683 -1.036e-20)
(-0.1397 0.03328 -9.482e-22)
(0.1014 -0.05941 -1.03e-20)
(1.004 -0.0001178 -1.847e-21)
(1.008 -0.1571 9.221e-22)
(-0.03733 0.01257 5.723e-22)
(0.9971 -0.0005253 0)
(1.06 -0.1249 0)
(0.9932 0.0126 -8.469e-22)
(0.8654 -0.05805 2.372e-21)
(0.1295 0.01538 0)
(0.9942 0.00459 3.163e-20)
(-0.2119 0.05235 1.672e-20)
(0.5908 -0.08036 8.929e-22)
(0.001398 -0.02827 0)
(-0.2704 0.04205 -6.54e-21)
(-0.04625 0.01762 -1.041e-21)
(0.4553 -0.05014 -3.774e-21)
(0.4728 -0.0575 -1.036e-21)
(0.1539 0.06198 -4.726e-20)
(0.7651 -0.07195 -9.346e-22)
(1.255 0.7774 1.208e-21)
(0.7585 -0.03759 -2.026e-21)
(-0.1239 0.03202 -7.004e-22)
(-0.07728 0.04236 -1.988e-21)
(0.314 -0.02861 1.007e-21)
(1.003 -0.001317 0)
(0.5699 -0.1197 -3.972e-22)
(0.9928 0.005503 -1.297e-20)
(0.1879 0.2363 -2.494e-20)
(1.043 0.01745 4.946e-20)
(-0.0879 0.02013 6.902e-21)
(1.003 -0.0003134 0)
(0.997 0.01323 1.694e-20)
(1.082 -0.07763 1.758e-20)
(0.7089 -0.2813 9.43e-22)
(-0.2214 0.05288 3.63e-21)
(1.003 -0.0006706 1.136e-20)
(1.002 -0.001721 -1.757e-20)
(-0.1252 0.04264 -2.387e-21)
(-0.06799 -0.007393 0)
(-0.2225 0.05211 7.451e-21)
(0.3758 -0.03096 -2.945e-21)
(-0.1479 0.01777 0)
(0.6722 -0.2395 -5.958e-21)
(-0.1906 0.04943 -4.96e-22)
(0.6596 -0.2704 0)
(-0.2043 0.03758 -1.036e-22)
(-0.1878 0.05486 -2.792e-20)
(-0.1448 0.01269 0)
(1.003 -0.0007079 -2.009e-21)
(-0.1912 0.01669 1.581e-20)
(-0.1965 0.03347 3.638e-22)
(1.002 -0.1499 -1.524e-22)
(1.296 0.06453 0)
(0.9955 -0.009108 -3.26e-20)
(1.004 2.442e-05 5.6e-23)
(0.2363 0.01343 -8.115e-21)
(0.2964 -0.1674 2.856e-24)
(0.1867 0.02908 1.454e-21)
(-0.02003 0.0062 1.013e-21)
(1.042 0.01852 0)
(1.004 -1.404e-06 5.163e-23)
(-0.1787 0.05436 0)
(-0.2472 0.03273 0)
(0.9314 0.02099 -8.883e-20)
(-0.2181 0.03313 -6.941e-21)
(0.9981 -0.1257 0)
(0.9929 -0.007304 -2.664e-20)
(-0.1518 0.04566 9.865e-21)
(0.933 -0.2122 -6.126e-22)
(-0.1896 0.03314 2.364e-21)
(0.8124 -0.1364 -4.341e-20)
(0.000378 -0.0001226 0)
(-0.0591 0.01966 0)
(-0.1919 0.06719 -5.859e-22)
(-0.1923 0.06602 1.217e-21)
(-0.2181 0.06014 0)
(-0.2934 0.04305 6.435e-21)
(0.3086 -0.04373 -4.688e-22)
(-0.3036 0.04705 0)
(0.9593 -0.01578 -1.236e-20)
(-0.2006 0.04179 1.105e-20)
(-0.03144 -0.009959 0)
(-0.1955 0.04438 -4.257e-21)
(1.001 -0.00126 4.036e-20)
(0.8572 -0.1334 -8.353e-22)
(0.821 -0.202 0)
(0.5374 0.07813 -3.629e-20)
(0.9973 1.749e-05 2.423e-23)
(1.001 -0.001301 -5.378e-20)
(0.0003866 -0.01157 0)
(1.064 -0.03037 -4.596e-21)
(0.6275 -0.1169 -1.045e-22)
(-0.2848 0.04332 -4.184e-22)
(0.5015 -0.2644 0)
(0.08266 -0.01423 1.513e-20)
(1.289 0.2237 0)
(0.328 -0.02798 1.313e-21)
(0.67 0.04328 5.086e-20)
(0.7225 -0.1951 0)
(1.011 0.001031 -1.587e-20)
(1.003 -0.000769 0)
(1.247 0.4777 0)
(0.9581 0.3069 0)
(-0.2433 0.04646 1.081e-21)
(0.5436 0.06431 0)
(0.4159 -0.1709 3.819e-21)
(-0.1453 0.03576 0)
(0.6497 -0.2669 -3.11e-21)
(1.143 -0.07521 1.147e-19)
(0.8388 -0.1189 4.005e-20)
(1.001 6.959e-05 -7.736e-23)
(0.4096 -0.027 -9.099e-22)
(0.9979 -0.07156 1.362e-22)
(0.685 -0.1597 -5.543e-22)
(-0.000487 -0.002264 1.699e-23)
(1.03 -0.1571 3.243e-22)
(0.09127 0.04301 -1.329e-20)
(-0.1595 0.0487 6.655e-21)
(0.9999 4.248e-05 -2.023e-22)
(1.054 -0.1132 6.851e-23)
(0.6924 -0.05979 -2.589e-21)
(-0.03308 0.01138 0)
(0.06276 -0.04064 8.121e-21)
(-0.04325 0.01807 5.758e-21)
(-0.2041 0.03748 -1.57e-21)
(0.9309 0.7988 0)
(-0.1968 0.05288 5.519e-21)
(0.5341 -0.2786 5.45e-21)
(-0.08597 0.02784 -1.379e-21)
(0.7694 -0.1885 2.482e-22)
(1.024 -0.1098 1.957e-21)
(1.081 -0.1117 1.339e-21)
(-0.1316 0.03686 3.044e-21)
(0.9749 -0.1586 1.578e-21)
(0.0024 -0.0001437 0)
(0.8182 -0.203 0)
(0.9456 0.06012 3.013e-20)
(0.9435 -0.2121 -3.762e-22)
(0.6854 -0.2849 5.198e-21)
(0.8896 -0.09266 -5.118e-22)
(1.006 -0.00109 0)
(-0.05453 -0.008258 -3.612e-22)
(0.02815 0.006518 -1.032e-20)
(-0.1754 0.06119 -2.096e-21)
(1.004 7.997e-06 -9.524e-23)
(-0.0196 0.007266 0)
(-0.2039 0.05862 0)
(0.2725 -0.03714 3.593e-21)
(1.001 7.615e-05 4.667e-22)
(-0.3009 0.04721 8.448e-21)
(-0.1497 0.04473 0)
(-0.2837 0.05365 1.147e-20)
(-0.2572 0.04535 -6.73e-21)
(1.001 2.553e-05 -3.998e-22)
(-0.1647 0.05719 -3.681e-21)
(-0.0229 0.00174 0)
(-0.1904 0.05205 1.281e-20)
(-0.175 0.03857 0)
(0.9909 0.01943 -4.628e-21)
(-0.09175 0.04125 1.406e-21)
(0.007312 0.2319 0)
(1.02 0.0006639 -1.608e-20)
(0.9957 -0.1788 6.054e-23)
(0.9555 -0.1854 0)
(-0.2909 0.04292 -6.268e-21)
(-0.1884 0.05551 0)
(0.8918 -0.1974 -4.852e-21)
(1.03 -0.1574 0)
(0.202 -0.0238 5.669e-22)
(-0.1551 0.04807 0)
(0.9979 6.063e-06 -4.907e-22)
(-0.1652 0.05742 3.482e-21)
(-0.1149 0.04805 4.992e-22)
(0.2217 -0.01812 0)
(0.4573 -0.06612 9.841e-22)
(1.264 0.1286 0)
(-0.1462 0.05272 0)
(-0.09961 0.03368 4.265e-22)
(0.9977 2.902e-05 1.537e-22)
(-0.176 0.05629 -6.412e-21)
(-0.1519 0.04547 0)
(0.03075 0.03575 0)
(0.0004669 -0.01106 -1.895e-23)
(0.04342 0.03739 -1.458e-21)
(-0.1044 0.03574 5.524e-21)
(-0.2253 0.04563 -8.907e-22)
(-0.1461 0.03038 0)
(0.9399 -0.204 0)
(1 -0.0002711 1.916e-20)
(1.864e-05 -8.794e-06 -1.252e-23)
(-0.2037 0.0568 7.091e-21)
(-0.266 0.04076 5.832e-21)
(-0.08814 0.03151 1.916e-21)
(-0.1876 0.06652 -4.06e-21)
(-0.1722 0.05969 7.889e-21)
(-0.1709 0.05405 -3.065e-21)
(0.5902 -0.04581 0)
(0.9996 -0.0004615 0)
(0.03263 -0.008701 0)
(1.051 -0.1233 -1.232e-23)
(1.001 3.786e-05 0)
(-0.171 0.05215 -1.126e-20)
(1.286 0.6059 0)
(0.9923 -0.1512 8.776e-22)
(0.7925 -0.2714 -2.189e-21)
(1.005 -6.755e-05 -7.482e-21)
(-0.1882 0.04847 0)
(-0.08867 0.009055 0)
(1.011 0.001311 -5.131e-20)
(1.004 -7.563e-05 0)
(1.294 0.06146 0)
(-0.1038 0.0419 4.221e-21)
(-0.1479 0.01854 -1.61e-21)
(-0.1745 0.06077 3.429e-21)
(-0.1724 0.05987 3.157e-21)
(0.05459 -0.0009312 1.719e-23)
(1.045 -0.1322 0)
(0.6683 -0.1159 -3.101e-20)
(1.001 -0.001322 0)
(-0.1728 0.05198 -3.227e-21)
(-0.1929 0.0673 0)
(0.4957 -0.0306 -2.151e-21)
(0.306 -0.02518 0)
(0.6515 -0.1874 -2.144e-20)
(1.004 -0.0004006 0)
(1.011 -0.00941 2.039e-21)
(1.002 -0.0132 2.253e-20)
(-0.03435 -1.194e-05 5.967e-21)
(1.001 -0.001245 7.079e-21)
(1.131 -0.0795 -4.199e-20)
(0.32 -0.1927 1.182e-21)
(1.043 -0.1314 2.471e-21)
(0.2279 -0.03498 -1.774e-21)
(1.001 -0.001598 0)
(-0.1116 0.001648 -1.033e-21)
(1.045 -0.1254 -1.594e-21)
(1.002 0.007051 0)
(0.4155 -0.05058 1.557e-21)
(0.9985 -0.0002202 0)
(0.5773 -0.2801 7.673e-21)
(-0.05395 0.1027 -5.552e-21)
(-0.3074 0.04692 -1.465e-22)
(0.3834 0.05163 0)
(0.1724 -0.008095 5.568e-22)
(0.9942 -0.009356 1.479e-21)
(-0.1976 0.0526 0)
(0.8035 -0.1455 -1.128e-20)
(0.3277 -0.0257 0)
(-0.01805 -0.01247 -9.445e-22)
(0.3235 -0.04108 6.883e-22)
(0.7072 0.9861 -2.578e-21)
(1.263 0.1321 -1.186e-20)
(0.978 -0.1678 -6.886e-22)
(0.719 -0.2321 5.386e-23)
(0.06409 -0.005901 0)
(1 0.008681 0)
(0.7831 -0.01424 1.908e-20)
(0.6248 -0.2016 0)
(0.139 0.05154 1.043e-21)
(-0.03113 -0.009373 2.549e-22)
(0.1325 -0.02761 0)
(1.003 -0.0003769 0)
(1.056 -0.106 2.775e-20)
(-0.1126 0.03892 -1.515e-21)
(0.2444 -0.05574 -2.91e-21)
(-0.02842 0.0007478 2.414e-20)
(0.3969 0.1283 0)
(0.0004878 -0.0002898 -1.434e-21)
(0.009383 0.01035 -6.291e-21)
(-0.01638 -0.001562 5.522e-21)
(-0.2511 0.06135 -4.478e-21)
(-0.09561 0.0334 3.871e-21)
(0.04518 -0.009369 5.221e-21)
(0.0992 -0.007213 1.79e-21)
(1.009 0.04285 -3.414e-21)
(0.9632 -0.1401 0)
(1.004 4.033e-05 0)
(0.9997 2.692e-05 0)
(-0.1461 0.02629 3.269e-21)
(1.052 0.03829 2.031e-21)
(-0.2577 0.04519 5.568e-21)
(-0.1553 -0.05236 -1.762e-20)
(0.2582 0.6046 0)
(1.07 -0.09775 -1.084e-20)
(1.042 -0.04161 -2.346e-20)
(1.257 0.6006 3.028e-21)
(0.9309 -0.2126 7.447e-22)
(1.012 -0.008178 3.515e-20)
(0.287 -0.03861 2.611e-22)
(-0.187 0.065 -1.212e-21)
(1.041 -0.03964 3.287e-20)
(-0.2114 0.04999 -1.836e-20)
(-0.01467 0.00527 -2.15e-21)
(-0.06476 -0.01647 0)
(0.9734 -0.1941 0)
(0.01675 0.05791 -1.731e-20)
(0.01242 0.01322 0)
(-0.1593 0.05546 0)
(0.9933 0.0002509 3.087e-20)
(-0.1519 0.04669 3.24e-21)
(0.6952 -0.1626 5.851e-22)
(1.004 -0.007343 0)
(-0.2176 0.05493 8.564e-21)
(-0.204 0.05665 0)
(-0.08574 0.03242 -2.158e-21)
(0.9984 -0.0001574 2.183e-21)
(0.8686 -0.007372 4.249e-21)
(0.5325 -0.07227 0)
(0.03943 -3.003e-05 3.474e-23)
(0.7973 -0.2512 -5.167e-21)
(-0.01451 0.004849 0)
(-0.1651 0.04445 2.851e-21)
(0.6685 -0.2758 0)
(0.9549 -0.2101 -1.32e-22)
(-0.02666 0.009191 0)
(-0.2127 0.02196 4.208e-21)
(0.9995 3.01e-05 -7.693e-23)
(0.2717 -0.1592 0)
(1.195 0.3865 -1.444e-20)
(1.004 3.83e-05 0)
(0.7038 -0.2492 1.686e-22)
(0.001828 -0.0007882 1.484e-22)
(0.6388 -0.06224 -6.015e-21)
(-0.1105 -0.003209 -1.759e-20)
(1.134 -0.05494 5.378e-21)
(1.014 -0.1521 2.442e-22)
(-0.0138 0.004593 4.42e-26)
(0.03256 -0.003496 -3.536e-22)
(0.615 -0.06703 0)
(1.014 0.03459 -1.294e-20)
(0.9971 0.004577 6.488e-21)
(0.9852 -0.1856 0)
(0.6219 -0.2508 -1.747e-21)
(-0.1776 0.05975 -1.137e-20)
(-0.2249 0.05285 0)
(0.3129 0.8305 -2.917e-21)
(0.3616 -0.1502 -2.264e-21)
(0.5126 0.004071 -1.859e-22)
(1.194 0.1261 -2.688e-20)
(0.3553 -0.1471 -2.221e-21)
(1.114 -0.02829 4.749e-20)
(-0.06556 0.005156 0)
(1.006 -0.0002114 0)
(-0.1777 0.06425 3.263e-22)
(0.003771 -0.03149 -6.226e-23)
(-0.142 0.0317 -8.256e-21)
(-0.2217 0.0617 0)
(-0.1718 0.04744 0)
(0.9951 0.003154 -2.242e-20)
(0.981 0.003645 1.592e-20)
(-0.103 0.03584 0)
(0.9125 -0.1698 1.093e-20)
(-0.1738 0.05987 0)
(0.6788 -0.08632 0)
(-0.1478 0.05285 -4.912e-21)
(-0.1674 0.04959 -1.473e-21)
(0.3484 0.0293 -1.156e-21)
(-0.09833 0.01786 -3.22e-21)
(-0.2364 0.02881 -1.7e-20)
(0.06005 -0.01086 -1.275e-21)
(-0.1448 0.03518 -3.011e-21)
(0.4302 -0.02992 1.603e-21)
(-0.1576 0.04623 1.031e-20)
(1.056 -0.1264 -3.308e-21)
(-0.1584 0.05728 3.985e-21)
(0.4445 1.02 -9.497e-22)
(-0.1737 0.06027 -2.147e-22)
(0.004389 -0.03257 2.948e-22)
(-0.00153 0.000379 0)
(-0.1727 0.04792 0)
(1.005 -0.001041 0)
(1.004 -0.002735 2.546e-20)
(-0.1585 0.05511 2.634e-21)
(-0.1862 0.06125 0)
(1.001 -0.1532 9.395e-22)
(1.004 2.27e-05 0)
(0.6248 -0.2686 -5.197e-21)
(-0.1912 0.0496 2.575e-21)
(1.089 -0.07174 -1.473e-20)
(-0.1582 0.05452 0)
(0.3323 0.01657 -1.388e-20)
(-0.1578 0.0483 -1.25e-20)
(1.127 0.6401 -1.387e-20)
(0.9999 0.0007556 -4.781e-20)
(0.9795 -0.1563 0)
(1.105 -0.03817 -9.233e-21)
(0.2379 -0.09417 0)
(0.2794 -0.02097 0)
(-0.1319 0.03617 3.807e-22)
(0.6897 -0.1684 1.709e-20)
(0.8104 -0.01854 3.531e-20)
(-0.2432 0.04427 0)
(0.624 -0.05553 -8.166e-22)
(1.122 -0.08635 0)
(-0.1314 0.03801 0)
(0.6354 -0.2782 5.72e-21)
(0.8822 -0.1023 1.839e-21)
(-0.1906 0.06642 0)
(0.3459 -0.1497 -2.801e-21)
(1.006 -0.01044 -1.241e-21)
(-0.03153 0.01064 0)
(-0.01588 0.005207 0)
(-0.112 0.04706 0)
(-0.2663 0.03984 8.785e-21)
(-0.01129 0.08877 -2.248e-20)
(1.003 0.0164 -2.054e-22)
(-0.03718 0.00973 5.929e-21)
(0.06554 -0.01483 0)
(1 -0.0001805 0)
(0.999 -6.816e-05 -1.53e-20)
(-0.183 0.04661 -7.726e-25)
(-0.2156 0.05136 1.114e-20)
(0.000222 -0.0001628 -1.496e-22)
(-0.02126 -0.01662 2.927e-22)
(0.9756 -0.1416 -2.613e-22)
(0.6653 -0.2459 0)
(-0.1251 0.04082 -1.162e-20)
(0.9877 -0.1531 0)
(1.03 -0.1256 0)
(0.995 -0.01043 -1.321e-20)
(-0.1155 0.03778 -1.795e-20)
(-0.1233 -0.02966 0)
(-0.1488 0.04941 -1.069e-20)
(0.9634 -0.1899 0)
(-0.01717 0.0043 6.331e-22)
(-0.1843 0.06436 -6.015e-21)
(1.001 -0.001006 -8.549e-22)
(0.06408 -0.01018 0)
(-0.1537 0.04955 -2.694e-21)
(0.9997 -0.0007504 -6.224e-20)
(-0.309 0.04641 -4.966e-21)
(1 -0.0001909 -6.218e-21)
(0.9942 -0.001588 2.615e-20)
(1.047 -0.14 8.532e-22)
(0.9701 -0.1322 0)
(-0.03129 0.004425 -3.369e-20)
(0.9991 -0.001644 6.053e-21)
(0.4208 -0.04965 -1.848e-22)
(1.004 0.004915 0)
(1.29 0.626 0)
(0.9804 -0.1201 -3.399e-21)
(0.2771 -0.04162 5.536e-21)
(1.061 -0.1174 -2.561e-21)
(0.5545 -0.1094 4.443e-23)
(0.6048 -0.08669 0)
(-0.1411 0.04177 2.465e-20)
(1.076 -0.1185 3.78e-21)
(1.002 -0.003065 6.179e-21)
(1.003 -0.006807 -2.364e-21)
(-0.1346 0.03072 4.279e-21)
(0.8611 -0.1583 6.518e-24)
(-0.1715 0.05948 -9.082e-22)
(-0.1379 0.04394 0)
(0.1484 -0.00951 1.902e-25)
(-0.1154 0.0375 -6.735e-21)
(-0.02003 0.006574 -1.929e-20)
(-0.2755 0.04268 8.758e-21)
(0.7044 -0.1979 0)
(-0.1242 0.002531 -3.728e-20)
(0.5389 -0.05817 -3.89e-22)
(0.2031 -0.02698 0)
(0.8553 0.4416 6.733e-22)
(0.09193 -0.01169 0)
(1.002 -0.007655 5.236e-21)
(-0.2648 0.05336 2.334e-20)
(-0.05782 0.002274 5.51e-22)
(0.3271 -0.05399 0)
(0.9973 5.563e-05 3.243e-21)
(0.3642 -0.232 6.851e-21)
(-0.1606 0.03958 0)
(0.9969 -0.09456 3.182e-22)
(0.8883 -0.2441 4.528e-22)
(-0.2258 0.04066 -4.723e-22)
(1.042 -0.1224 -2.787e-21)
(-0.1913 0.04264 0)
(-0.08608 0.01942 3.663e-21)
(1.001 -0.0954 9.478e-22)
(-0.1264 0.04027 -6.927e-23)
(0.5302 -0.1458 -2.347e-21)
(-0.01684 -0.01326 1.03e-21)
(1 -0.0004468 0)
(1.132 -0.07686 -3.563e-21)
(-0.2716 0.05043 0)
(0.9933 -0.008971 0)
(-0.2737 0.05842 0)
(-0.2091 0.02753 2.928e-21)
(0.9985 -8.989e-06 2.497e-21)
(0.9514 -0.1955 1.888e-21)
(-0.06291 0.01296 0)
(1.01 -0.02252 0)
(0.8752 0.4425 -4.271e-21)
(0.09139 0.004803 0)
(0.02061 -0.01259 0)
(1 -0.1314 -8.474e-22)
(1.004 2.944e-05 -1.571e-22)
(-0.2587 0.06221 -2.445e-22)
(-0.2029 0.0577 -5.53e-22)
(1.012 -0.003289 3.012e-20)
(0.9333 0.3972 -1.629e-21)
(1.065 0.08533 9.926e-21)
(-0.1893 0.04901 3.84e-21)
(-0.2325 0.06119 -9.87e-21)
(1.002 -0.1695 -1.865e-22)
(1.043 -0.03637 0)
(-0.02847 0.00621 -4.876e-22)
(-0.004896 0.0017 5.433e-22)
(0.591 -0.1254 -1.054e-22)
(0.7342 -0.117 -5.876e-22)
(-0.1466 0.04364 -1.891e-21)
(0.09869 -0.007876 0)
(0.9933 1.737e-05 -3.219e-21)
(0.8219 -0.08804 2.192e-21)
(1.005 0.006354 3.965e-22)
(-0.1795 0.05203 0)
(0.5627 -0.2459 -5.475e-21)
(-0.2852 0.05161 0)
(0.8882 -0.2436 4.065e-21)
(-0.001867 -0.01156 -5.392e-22)
(-0.1174 0.01777 0)
(0.9993 0.003102 -1.151e-20)
(-0.004714 0.00174 0)
(-0.09674 0.03099 0)
(-0.1423 0.04186 7.016e-21)
(1.078 -0.09141 3.332e-21)
(0.5162 0.1991 0)
(-0.109 0.02464 -2.891e-21)
(0.1082 -0.04191 8.002e-21)
(0.2549 -0.01859 0)
(1.021 -0.1417 0)
(0.8777 0.02875 -8.613e-20)
(0.01546 -0.000798 5.22e-22)
(-0.1871 0.06231 1.241e-21)
(0.6385 -0.04459 0)
(0.451 -0.09558 -7.081e-22)
(0.827 -0.1264 0)
(0.4289 -0.2439 -1.12e-20)
(-0.002107 -0.01262 2.505e-21)
(-0.06456 0.02247 2.903e-22)
(0.9822 -0.1664 -9.334e-23)
(-0.1747 0.05706 0)
(0.3548 0.0563 0)
(0.5185 -0.06313 1.562e-21)
(0.5812 -0.05983 -1.363e-21)
(0.5519 -0.06058 0)
(-0.01452 0.005205 0)