/*--------------------------------*- C++ -*----------------------------------*\
| =========                 |                                                 |
| \\      /  F ield         | OpenFOAM: The Open Source CFD Toolbox           |
|  \\    /   O peration     | Version:  v2012                                 |
|   \\  /    A nd           | Website:  www.openfoam.com                      |
|    \\/     M anipulation  |                                                 |
\*---------------------------------------------------------------------------*/
FoamFile
{
    version     2.0;
    format      ascii;
    class       volScalarField;
    location    "5";
    object      nut;
}
// * * * * * * * * * * * * * * * * * * * * * * * * * * * * * * * * * * * * * //

dimensions      [0 2 -1 0 0 0 0];


internalField   nonuniform List<scalar> 
100503
(
5.02e-13
5.654e-13
1.073e-11
5.325e-11
4.381e-13
5.962e-13
4.5e-11
4.255e-09
4.977e-08
3.142e-11
3.034e-07
5.106e-08
1.058e-07
1.033e-07
3.18e-08
1.28e-07
2.919e-07
1.38e-07
1.556e-09
1.158e-07
2.193e-07
2.752e-07
8.801e-13
1.167e-07
1.555e-11
4.338e-07
3.362e-07
0.0001095
5.01e-06
2.331e-08
6.024e-14
2.119e-06
2.123e-06
4.733e-06
0.0002363
2.232e-05
4.791e-06
0.002791
0.005478
5.104e-06
4.885e-06
0.001294
2.109e-10
1.65e-05
0.000132
0.00279
2.457e-05
0.0001498
5.408e-06
0.0001037
3.242e-05
3.307e-06
1.621e-05
4.715e-06
1.654e-05
3.732e-05
8.202e-06
0.003011
3.518e-06
0.0001027
0.001083
5.213e-05
1.324e-05
2.176e-06
1.841e-06
1.386e-05
0.006703
0.001593
2.976e-07
1.918e-06
1.489e-05
6.631e-05
0.0001717
7.891e-05
3.429e-05
3.023e-06
0.0002766
0.006346
0.006501
2.812e-06
4.087e-06
7.873e-05
4.12e-05
0.001142
0.0006847
0.005414
0.001744
5.868e-05
2.622e-06
2.542e-07
1.656e-05
0.001682
0.0008291
0.001433
0.006693
1.915e-06
8.382e-05
8.213e-06
0.00637
0.006504
0.0008671
2.326e-08
5.963e-06
2.24e-06
1.515e-05
0.001869
0.0001521
1.733e-07
3.89e-05
5.333e-06
2.648e-06
0.0002479
4.274e-06
8.937e-06
0.001285
1.912e-05
0.002954
1.115e-05
5.605e-06
0.0001073
0.002302
3.474e-05
1.21e-05
4.74e-06
3.73e-06
3.012e-06
3.425e-05
3.01e-05
5.267e-06
1.203e-06
6.644e-06
1.134e-05
0.006691
0.0003039
0.0001317
1.451e-05
2.446e-06
1.724e-05
0.0002519
1.61e-05
0.0005404
6.774e-06
5.133e-06
2.379e-05
0.0002424
2.245e-06
9.404e-05
5.362e-06
3.707e-06
0.006693
4.102e-05
0.0001293
0.002563
0.005061
4.356e-06
1.645e-10
0.0001539
0.0006223
2.831e-05
8.463e-07
3.416e-06
2.145e-05
5.708e-06
1.692e-05
0.003169
0.00115
5.727e-06
0.002412
0.0005816
0.002957
1.696e-05
0.0001662
1.759e-05
1.171e-06
0.006693
8.015e-08
5.412e-06
0.005425
3.781e-05
0.002286
7.098e-06
0.0003054
1.645e-05
4.947e-06
2.976e-05
5.358e-06
0.006689
8.427e-06
3.023e-06
1.742e-07
2.48e-05
5.82e-06
0.001114
0.006692
6.833e-05
4.158e-05
0.0003173
1.358e-06
0.0001027
2.515e-05
0.0001643
2.84e-06
2.869e-06
2.672e-05
0.000111
0.000249
9.436e-06
3.7e-06
6.117e-06
4.357e-06
0.0006843
2.25e-06
3.361e-07
0.003032
0.0003143
2.318e-05
1.687e-05
0.002088
5.224e-06
3.554e-06
4.875e-05
2.39e-05
0.005022
5.363e-05
4.374e-08
1.034e-07
2.085e-06
9.863e-09
9.588e-06
0.006704
5.586e-06
4.875e-06
6.225e-06
0.002009
3.982e-05
5.956e-06
9.067e-06
0.001057
2.914e-06
6.994e-05
1.071e-06
0.0001954
2.502e-06
9.724e-05
0.002912
0.005626
0.0003808
0.006695
1.35e-06
1.52e-06
0.002276
1.479e-09
0.006694
7.086e-05
0.003098
0.001132
6.698e-06
1.325e-06
0.001346
3.027e-05
9.371e-07
5.915e-06
0.005094
7.329e-06
3.287e-05
6.623e-05
2.458e-06
0.006681
0.003171
4.822e-05
1.169e-06
4.785e-05
4.545e-06
1.452e-05
2.687e-06
2.382e-06
6.89e-06
0.000218
3.05e-06
3.708e-05
2.24e-06
5.002e-06
0.005317
2.125e-05
0.0001483
0.0004582
2.141e-06
0.004482
0.006713
4.797e-06
0.0009325
0.000103
0.0004577
1.805e-05
1.275e-06
4.361e-08
6.787e-05
0.003806
4.853e-06
0.0002918
4.711e-06
1.628e-05
0.006698
4.153e-05
1.041e-05
0.0001137
5.77e-06
4.436e-06
0.006704
0.001093
7.052e-06
5.248e-06
2.298e-06
2.933e-06
0.0006503
5.986e-06
2.085e-05
0.0001731
0.003797
0.001553
0.002234
0.0002139
2.078e-06
5.549e-05
2.496e-05
0.003126
0.0002715
6.891e-06
4.9e-05
6.053e-07
0.001773
3.09e-06
0.0002068
0.006124
1.849e-06
7.001e-05
0.000846
0.006693
0.006703
3.507e-05
0.004365
0.006714
1.689e-06
1.165e-05
5.329e-06
0.006599
0.002469
1.664e-05
4.852e-07
2.666e-06
5.225e-06
1.5e-05
0.0002017
4.674e-06
5.232e-06
0.006362
0.004567
0.002757
3.221e-06
4.3e-06
0.0001773
2.5e-06
0.0016
1.736e-06
1.98e-05
7.8e-05
1.806e-06
1.896e-06
7.585e-05
0.006699
0.0006472
1.432e-05
0.0002059
0.006693
8.451e-06
3.026e-06
9.314e-06
0.006691
3.311e-05
5.401e-05
0.000439
0.0007056
0.003109
5.64e-05
1.316e-06
0.00669
1.337e-05
2.304e-05
5.522e-06
2.681e-06
0.006694
0.0006386
3.792e-06
3.996e-06
1.864e-05
1.999e-05
0.0001594
0.006691
2.073e-06
0.0002735
1.773e-05
3.956e-07
0.0001316
0.0004076
6.172e-06
4.644e-06
0.0002323
3.723e-05
2.597e-05
8.632e-05
2.521e-06
1.014e-09
1.742e-05
0.0001017
5.524e-06
0.006737
1.377e-06
2.108e-06
0.004437
0.0005286
0.006707
5.96e-05
0.0001338
3.629e-05
2.884e-05
7.03e-05
0.006256
0.008766
3.928e-06
2.674e-06
2.409e-06
2.833e-06
3.547e-06
0.001122
1.202e-06
0.006708
0.0002198
0.0006297
0.006698
7.958e-10
5.23e-05
3.683e-05
0.0002712
8.396e-08
2.33e-05
3.692e-07
0.0001985
3.59e-06
0.00671
1.68e-05
2.377e-06
2.522e-07
0.006781
0.006698
1.224e-07
6.113e-06
0.006736
8.864e-06
0.0002564
4.173e-06
2.982e-06
0.006699
6.391e-07
1.843e-06
0.00405
1.203e-06
5.251e-06
0.0007445
1.352e-05
0.001022
0.0005201
7.614e-06
0.001771
0.0001072
0.003765
1.356e-06
0.001341
1.945e-05
9.275e-05
6.179e-06
6.436e-05
0.0002611
9.612e-06
8.552e-05
0.005313
5.007e-05
0.0003103
0.006694
0.002413
5.092e-06
5.231e-06
5.636e-05
0.006693
0.0002298
1.757e-05
2.212e-05
5.376e-05
2.753e-06
0.004205
0.0009738
9.746e-05
0.0008881
2.217e-05
3.939e-05
0.002397
8.265e-05
6.16e-05
3.592e-06
0.006699
0.001185
0.004344
1.045e-05
9.98e-07
2.108e-06
0.005034
0.003508
5.339e-06
0.0002049
2.226e-05
4.743e-05
2.822e-05
0.000212
0.0003921
1.873e-05
0.006684
3.623e-05
1.643e-05
0.0006587
4.867e-05
0.0008905
2.238e-06
3.801e-06
0.0001979
0.006605
0.00375
0.0005579
1.048e-05
0.006698
4.554e-06
0.0001019
4.176e-07
5.517e-06
0.003156
1.661e-05
2.538e-05
0.0002524
0.003782
6.851e-06
3.746e-06
5.898e-06
2.918e-06
8.131e-07
0.006703
7.874e-06
0.0002203
0.0003117
0.0001202
9.549e-05
4.818e-06
0.0001142
0.0001622
4.939e-06
2e-05
0.0003837
0.001165
6.898e-06
2.666e-06
2.843e-06
0.003186
0.005333
0.001067
0.0002275
4.861e-06
0.006691
3.19e-05
0.001901
0.003105
7.288e-06
0.0006522
0.006689
1.517e-05
0.006429
0.0001173
3.351e-05
0.006601
0.0002946
5.25e-05
0.0003217
0.001028
4.946e-06
0.000639
4.85e-05
0.000278
1.108e-06
7.186e-07
7.257e-05
1.649e-05
2.725e-05
0.006693
0.0002089
0.006701
7.585e-06
1.288e-05
7.409e-05
1.112e-05
5.39e-06
2.645e-06
0.006689
0.00669
3.273e-06
1.845e-05
0.006494
3.209e-06
0.001134
1.92e-05
0.001096
4.855e-06
5.625e-05
3.269e-06
0.006683
3.374e-06
1.296e-06
3.354e-05
5.287e-05
0.00416
8.068e-05
0.0002025
0.003241
5.696e-05
0.0004028
9.657e-07
0.006704
0.001212
0.0001446
0.0001676
0.006695
3.204e-06
0.006693
8.818e-06
0.00127
0.006697
0.000316
1.182e-05
8.694e-06
7.509e-07
4.945e-06
2.265e-05
5.11e-06
0.0009719
8.461e-06
0.0002448
1.222e-05
0.0005707
8.503e-05
2.115e-05
0.006702
5.344e-05
0.006697
6.081e-05
0.0001134
0.006696
0.00425
5.315e-05
0.0002352
0.006692
0.0067
7.966e-05
0.0004314
4.096e-05
3.271e-06
2.921e-06
3.436e-06
0.005188
7.331e-06
0.006426
2.306e-05
1.009e-06
5.393e-05
2.872e-06
0.0002304
0.00172
0.0001804
1.821e-05
4.115e-06
1.477e-05
7.766e-05
4.493e-06
7.528e-06
0.0001396
0.000487
0.006699
1.735e-05
6.077e-06
2.66e-06
0.0001783
4.643e-06
2.592e-06
0.0002714
0.006692
4.504e-06
1.754e-05
8.207e-07
0.001587
5.08e-06
9.486e-06
6.568e-07
9.068e-07
0.001995
9.398e-07
0.0002049
2.982e-05
0.002629
2.258e-05
0.006411
5.003e-06
0.0001473
9.351e-07
0.006704
5.326e-06
0.006698
8.414e-07
7.681e-06
0.006704
0.003858
0.0007453
3.942e-06
0.0001849
4.182e-06
1.958e-05
1.202e-05
4.237e-06
5.533e-06
1.282e-05
2.739e-06
0.00669
0.006709
0.006702
7.809e-08
0.006633
1.93e-05
2.463e-05
2.128e-05
5.401e-06
6.672e-06
2.03e-06
2.333e-06
1.678e-05
8.371e-07
1.292e-05
0.006689
8.38e-06
5.052e-06
0.006101
5.794e-05
0.002574
3.172e-06
0.0003844
0.001397
3.841e-06
2.623e-05
9.425e-06
7.003e-06
2.409e-06
1.21e-06
1.697e-05
3.588e-05
7.822e-05
1.608e-05
4.029e-06
4.756e-06
9.21e-05
0.002868
0.0004227
0.0001085
9.208e-06
0.005784
0.006163
0.004485
5.61e-06
2.096e-06
0.00371
6.364e-06
6.818e-05
1.499e-05
1.091e-05
4.804e-06
1.612e-06
0.0001996
0.001805
0.006781
5.948e-05
1.389e-06
0.006695
0.0006282
4.3e-06
0.0002811
5.232e-06
1.093e-06
1.063e-06
0.0008715
5.79e-06
2.26e-07
0.0002236
3.293e-05
1.417e-07
3.721e-06
1.682e-05
0.006692
5.798e-06
2.042e-05
0.001434
2.081e-07
0.006693
0.006704
1.017e-05
0.002097
4.186e-05
0.001949
9.267e-05
0.003454
0.0001936
4.163e-06
0.000247
6.091e-06
6.484e-05
0.001939
3.626e-06
4.672e-06
3.047e-07
0.009105
0.006703
1.124e-09
0.006697
2.925e-06
4.947e-05
1.077e-05
0.007336
4.85e-06
0.0002048
0.0001225
9.945e-07
1.67e-05
1.179e-05
2.579e-06
3.312e-07
1.16e-05
1.235e-05
0.006695
0.007023
5.228e-06
5.701e-06
0.007209
0.000396
0.006701
1.698e-06
3.33e-06
0.0003852
8.098e-06
0.004884
2.637e-05
3.664e-06
4.499e-06
6.071e-09
0.005043
1.091e-05
5.879e-06
4.942e-05
0.0002212
1.581e-05
2.885e-06
0.005501
0.005421
1.648e-05
1.402e-05
2.284e-05
0.0002847
0.000152
1.407e-05
0.004825
0.00669
3.306e-06
5.2e-06
8.139e-07
0.0001159
9.892e-05
0.006682
0.006407
0.002581
5.724e-05
0.0001923
0.0002618
2.733e-06
6.751e-05
2.768e-06
0.006695
2.309e-06
0.000399
6.876e-05
8.952e-07
0.006692
5.329e-06
0.006694
1.957e-06
0.003514
0.0001817
3.828e-07
2.098e-06
3.433e-08
8.809e-06
2.756e-06
5.096e-06
0.0001789
0.003644
1.342e-05
4.299e-05
0.0002478
4.302e-06
4.559e-06
1.716e-05
1.464e-06
2.152e-05
1.965e-06
1.487e-06
0.004064
1.749e-05
2.497e-06
0.006772
5.246e-06
8.778e-07
1.162e-05
6.728e-06
4.024e-06
0.006705
1.477e-06
0.002527
0.0001694
0.006689
0.001212
1.779e-05
9.182e-06
4.636e-05
1.518e-05
0.001418
2.435e-06
8.893e-06
1.83e-06
2.068e-05
4.082e-05
1.187e-05
0.001946
0.006694
0.00669
0.001547
0.0002242
0.0022
3.173e-05
0.004806
9.902e-06
9.146e-05
0.0002124
0.0001139
4.174e-05
1.054e-05
4.789e-05
0.0006518
3.143e-06
6.381e-07
0.0002452
6.241e-05
0.002684
0.0004055
0.0001805
1.659e-05
0.0004483
1.497e-05
0.0002124
1.549e-05
0.0008555
0.005701
7.93e-07
0.006694
8.234e-06
7.336e-06
0.0001675
5.36e-06
1.627e-06
0.001397
6.119e-06
0.006819
0.006699
2.091e-07
0.0004317
0.000324
0.0007708
7.687e-06
0.001287
0.003762
0.003827
0.006694
1.145e-05
0.0001417
1.555e-05
1.675e-05
1.802e-05
5.295e-05
0.002141
7.714e-05
4.347e-06
1.126e-05
1.99e-06
1.115e-05
0.001261
1.922e-06
2.752e-05
1.397e-05
0.004394
0.001195
5.916e-06
3.443e-06
2.628e-06
0.006694
0.006692
0.0001231
7.363e-05
5.613e-06
5.169e-06
1.924e-05
8.78e-05
0.000754
4.247e-05
0.006698
5.571e-06
7.24e-06
0.0058
0.0008012
5.034e-06
0.000261
0.0004158
0.0001298
1.478e-05
5.294e-08
8.8e-06
0.000462
4.853e-05
3.439e-05
5.381e-06
1.63e-05
3.251e-06
2.395e-06
0.0005904
0.0009238
0.001239
0.006704
0.006094
0.006685
4.737e-06
4.514e-05
1.06e-05
0.00273
4.087e-05
0.006698
4.877e-06
0.000328
2.187e-05
5.674e-06
3.523e-06
0.0003608
7.576e-05
6.129e-05
4.966e-05
6.78e-06
7.713e-05
5.074e-06
6.512e-06
7.852e-05
0.0002957
1.635e-05
0.0003706
6.666e-07
0.006691
1.152e-05
0.0006899
3.346e-07
5.448e-06
0.006362
1.924e-05
0.00193
3.121e-05
5.834e-05
4.18e-05
0.006703
2.329e-05
1.915e-06
5.426e-06
0.006705
6.937e-05
0.0004143
5.523e-05
1.658e-05
0.000163
4.07e-05
5.267e-06
8.391e-05
5.161e-05
1.201e-06
0.0003021
3.93e-07
5.671e-05
0.003828
2.515e-05
0.006691
0.0004776
4.823e-09
1.575e-05
6.169e-08
0.0002331
1.439e-05
2.025e-05
0.006689
0.0005487
1.703e-05
0.006693
0.0002416
1.046e-05
2.562e-06
1.338e-06
2.714e-05
3.541e-06
0.003768
1.393e-05
4.425e-05
0.001008
0.001632
2.085e-05
0.006696
0.0003875
0.0001046
7.179e-09
8.929e-05
4.913e-06
4.348e-06
4.855e-06
0.006693
0.0003979
2.058e-06
3.172e-05
1.097e-06
3.562e-06
0.000154
2.487e-06
0.006684
2.141e-05
0.006694
1.015e-05
0.0001004
6.53e-07
0.0067
1.699e-05
4.712e-06
4.631e-05
7.627e-05
0.004719
0.006697
0.004062
2.071e-05
0.001041
5.464e-06
6.143e-06
0.0001733
1.453e-05
0.006699
3.32e-06
4.433e-05
3.237e-05
0.003865
5.345e-06
0.006629
0.002168
4.055e-06
5.643e-06
0.0002136
8.674e-07
0.0067
1.018e-06
6.526e-06
5.749e-06
0.0005154
0.006688
3.818e-06
4.347e-05
0.006696
0.0002143
8.497e-05
0.005035
7.885e-06
9.734e-05
7.367e-05
0.006769
4.604e-05
1.886e-05
2.183e-05
1.244e-06
0.001544
2.125e-07
1.249e-06
0.001227
0.0004968
2.322e-05
0.0001079
6.457e-06
2.652e-06
7.599e-05
9.394e-06
0.001306
0.0006655
7.887e-06
0.006695
8.784e-06
7.246e-05
5.862e-06
1.579e-05
7.749e-05
9.665e-05
3.108e-06
0.0001221
3.011e-05
5.629e-07
1.306e-05
0.006683
0.006703
0.000777
2.348e-05
0.006694
4.136e-08
6.265e-06
5.208e-05
5.057e-07
3.445e-05
2.496e-05
9.034e-06
0.0001163
7.826e-05
1.731e-07
0.006694
2.783e-06
5.32e-06
3.194e-06
0.000198
5.984e-06
2.507e-05
0.006703
0.0001841
0.0007137
1.14e-06
7.844e-06
6.981e-06
0.006019
3.632e-06
4.429e-06
0.006696
0.006698
0.005887
0.002568
1.868e-05
1.327e-07
6.129e-07
2.107e-06
0.000112
2.945e-06
0.002852
8.42e-06
4.364e-06
4.203e-06
0.0001093
4.088e-07
0.0004054
4.449e-05
7.519e-06
7.148e-06
0.006723
0.00672
5.003e-06
0.0002585
0.0001548
2.495e-06
9.938e-06
0.001127
0.006696
0.0002952
3.566e-06
9.958e-07
0.0005437
3.626e-06
1.899e-05
4.384e-06
0.0009037
0.006705
8.457e-07
4.006e-05
4.691e-06
0.00523
4.423e-07
3.939e-05
0.006699
1.489e-06
1.848e-06
1.024e-05
2.343e-06
5.102e-06
0.0004606
4.957e-06
2.029e-05
3.225e-06
5.111e-06
0.0001746
1.993e-06
1.446e-05
0.004767
1.703e-05
3.924e-05
0.003721
2.048e-05
0.0003745
0.006691
5.497e-06
0.005614
7.236e-05
4.042e-06
6.308e-05
5.679e-06
0.006696
0.004605
0.001749
3.294e-07
7.201e-05
7.891e-06
0.0005691
3.464e-06
5.013e-08
0.0001177
5.246e-07
9.283e-06
2.847e-05
0.001049
1.378e-05
0.006697
0.0002865
5.138e-06
5.622e-05
1.121e-07
0.003846
6.684e-05
7.102e-05
3.424e-06
3.977e-05
2.92e-06
0.002923
0.006707
2.499e-05
0.005045
8.144e-07
1.514e-05
0.001099
5.374e-06
1.139e-05
0.0003609
0.000103
8.511e-06
6.676e-05
3.744e-06
5.613e-06
2.461e-05
2.24e-06
4.928e-06
7.85e-06
8.369e-07
0.0003511
1.091e-05
6.147e-05
2.846e-06
9.424e-06
0.0002999
4.97e-06
3.275e-06
0.006505
0.0001199
2.321e-05
0.0001013
6.445e-05
0.001143
7.961e-06
3.74e-07
0.006699
0.006839
7.364e-05
1.738e-06
0.005065
5.518e-06
4.7e-06
8.681e-07
2.679e-05
3.971e-06
3.66e-06
1.841e-05
4.887e-06
1.882e-05
9.759e-05
7.263e-07
0.0003019
1.04e-06
9.787e-06
1.332e-05
9.924e-07
5.25e-06
1.134e-06
0.006694
2.551e-06
0.0007325
5.38e-06
0.0002469
0.002474
1.414e-05
5.379e-06
7.776e-05
0.0005085
1.479e-05
2.178e-05
4.788e-06
8.744e-06
2.277e-05
9.667e-07
5.367e-06
0.001024
6.578e-05
5.782e-05
4.975e-06
0.005946
0.006721
0.005343
2.612e-05
2.16e-06
0.00666
7.342e-05
4.172e-06
1.686e-05
7.925e-05
5.593e-06
6.373e-07
2.145e-06
1.131e-05
8.235e-06
8.732e-07
0.0001965
5.741e-05
3.057e-05
0.001298
0.006695
6.372e-06
0.003293
5.102e-06
1.198e-05
5.002e-06
1.353e-06
3.409e-06
0.004333
1.735e-05
0.0001409
2.536e-06
1.717e-05
3.544e-06
0.002007
1.025e-05
6.349e-05
4.352e-06
0.0001215
7.073e-05
1.673e-05
3.053e-05
3.731e-06
3.737e-07
0.002874
0.006692
5.007e-05
7.103e-06
2.369e-06
0.000119
4.191e-05
1.667e-05
0.006699
0.000119
2.407e-05
0.004831
9.749e-06
2.08e-06
1.698e-05
4.237e-06
0.00653
4.02e-05
0.006694
4.336e-05
0.007155
0.0022
4.948e-06
0.0001289
0.00348
0.0001075
0.0001349
0.0001236
9.608e-06
2.525e-06
0.0001011
1.012e-06
1.771e-06
1.865e-05
0.006666
5.284e-06
9.388e-05
1.428e-05
8.196e-07
0.00263
9.943e-05
3.616e-06
4.523e-08
0.00671
6.045e-05
6.102e-06
0.006705
0.0008241
0.0001011
6.698e-05
7.305e-06
1.802e-05
3.729e-06
1.535e-06
3.715e-05
5.335e-06
0.0006586
4.388e-05
9.362e-07
0.0008906
0.006704
1.791e-05
1.046e-05
6.233e-06
0.006694
0.005041
6.681e-05
0.006691
3.106e-05
0.005277
1.795e-05
0.00568
9.766e-06
6.467e-06
0.0002649
0.004116
0.0001151
3.535e-06
1.751e-06
6.118e-07
1.477e-05
0.0001741
5.808e-05
0.0044
4.59e-05
5.208e-06
5.142e-06
0.001275
2.671e-07
5.032e-05
7.061e-06
3.884e-05
2.516e-06
5.056e-05
4.254e-06
7.898e-05
0.0006705
0.002428
2.895e-07
4.83e-06
1.159e-05
8.543e-05
7.47e-07
0.0002208
5.112e-06
3.596e-06
1.526e-05
1.693e-06
0.002285
0.0001923
0.0004058
0.000257
2.035e-05
5.206e-05
5.638e-06
2.25e-05
3.011e-06
1.87e-06
0.002626
0.0009702
4.319e-06
7.633e-07
2.324e-06
0.001762
2.89e-06
0.0001679
0.006697
3.518e-05
8.668e-06
1.988e-06
9.161e-06
0.000154
5.979e-06
8.088e-05
0.006691
0.0001293
1.37e-06
4.034e-05
1.759e-05
0.0001567
7.826e-06
0.0005453
5.447e-06
0.0067
0.006694
0.006698
5.42e-06
1.735e-05
8.568e-05
5.101e-06
4.186e-06
0.004771
6.992e-06
0.007556
0.0001647
0.006694
0.006693
0.001604
0.0006433
0.0001946
0.0001075
6.529e-05
8.802e-05
0.00092
6.027e-05
6.911e-06
2.635e-07
2.257e-05
4.809e-06
8.693e-06
1.956e-06
4.274e-05
0.0002458
6.996e-05
4.514e-05
3.001e-06
6.286e-05
0.001865
7.754e-05
4.319e-06
0.006704
0.0001945
7.368e-07
0.0001254
1.62e-06
0.006696
3.77e-05
0.001569
0.0008304
7.934e-07
5.433e-05
3.774e-06
0.00111
0.006694
0.000449
5.51e-06
1.346e-05
2.251e-05
4.902e-06
0.004565
8.01e-05
1.655e-05
5.241e-06
7.22e-05
2.417e-06
1.759e-05
8.09e-05
0.001026
4.501e-06
0.0003195
3.383e-07
0.002424
0.003446
9.526e-05
0.006692
0.0001576
6.261e-05
0.006686
0.0001233
0.0001063
1.917e-06
3.887e-06
1.541e-05
1.798e-06
5.069e-05
6.823e-05
1.304e-07
0.001973
0.001415
0.0001631
3.966e-06
1.651e-05
6.163e-07
2.274e-06
6.014e-05
0.005578
5.212e-05
2.204e-06
4.376e-05
2.181e-05
4.628e-06
1.659e-05
5.036e-06
1.112e-05
3.281e-06
0.006697
3.984e-06
2.455e-06
0.0002792
1.176e-05
5.565e-05
0.001999
8.155e-05
0.0001104
1.655e-05
1.23e-08
3.038e-05
0.0007722
4.491e-06
0.0002129
1.301e-06
7.798e-06
0.006691
5.878e-05
5.239e-06
4.752e-07
2.336e-06
8.594e-05
2.07e-05
0.0001525
0.00195
1.018e-07
1.548e-05
0.004299
4.461e-05
0.006703
0.009198
2.366e-06
0.006705
0.001259
0.006694
1.698e-05
2.43e-06
7.751e-07
0.001713
0.006698
0.0001999
1.355e-06
4.187e-07
2.741e-06
3.131e-05
0.0001915
0.006693
3.258e-05
0.005222
1.899e-05
6.362e-05
5.036e-06
0.0004061
0.004863
7.402e-06
1.459e-05
8.344e-05
5.432e-06
8.685e-06
2.136e-05
1.678e-06
1.475e-05
0.0009243
0.0001201
4.978e-05
8.909e-06
2.393e-06
1.903e-05
0.0001319
0.004552
2.576e-06
0.0001319
0.001441
0.0003577
4.303e-06
0.0001129
0.001093
7.054e-05
1.519e-05
0.006698
8.695e-06
0.0006016
3.783e-07
4.604e-06
0.004072
0.0006358
0.0009703
4.466e-06
0.006696
5.98e-07
0.00669
3.82e-05
2.243e-05
0.006702
0.0001516
5.995e-07
3.934e-05
2.015e-06
0.006731
5.825e-06
6.717e-06
1.96e-06
0.0001106
0.003658
4.524e-06
0.00464
0.005629
4.752e-07
0.002582
9.554e-07
9.485e-07
0.003453
4.264e-06
0.006692
0.0002673
2.861e-06
1.656e-06
3.078e-06
1.723e-06
4.259e-07
0.002953
7.16e-07
0.006696
0.00135
6.62e-05
5.626e-11
0.006697
0.003234
4.386e-05
0.006741
0.002372
0.006699
0.006739
0.006701
8.816e-06
0.006697
7.509e-05
0.001835
2.442e-05
2.585e-05
2.235e-05
2.256e-06
4.231e-06
8.157e-07
0.005873
4.542e-05
1.491e-05
0.006697
1.624e-07
0.006705
1.72e-06
4.304e-06
0.0001428
0.004259
0.004232
0.002299
1.809e-06
0.0001454
0.006674
0.002096
1.402e-05
2.022e-05
2.405e-06
5.062e-05
7.261e-05
0.004561
5.448e-06
5.451e-06
7.293e-07
1.835e-05
0.006709
2.459e-06
3.122e-05
9.074e-06
5.945e-05
5.349e-05
5.113e-06
0.006707
3.005e-05
1.198e-06
1.381e-05
3.095e-05
2.918e-05
0.004517
0.003569
0.001276
1.754e-06
3.316e-06
0.006693
1.212e-06
2.393e-05
0.006689
1.704e-06
6.549e-05
4.449e-06
0.001712
0.005749
4.292e-05
9.046e-06
3.744e-06
0.003873
7.696e-05
8.371e-05
0.006695
6.278e-05
3.752e-09
0.002136
3.971e-06
3.765e-05
1.038e-05
1.199e-06
0.006703
8.768e-05
1.223e-05
7.194e-07
0.006694
0.006701
1.947e-05
1.28e-05
3.331e-06
0.000118
2.492e-06
1.204e-05
0.001136
8.944e-06
0.000693
0.005184
1.333e-06
0.006706
7.501e-06
0.006705
4.887e-06
2.319e-05
4.169e-06
0.001646
0.007705
9.342e-06
9.39e-07
0.0001846
4.63e-06
7.243e-05
2.82e-06
0.0005496
2.493e-06
0.004782
3.194e-05
0.003637
0.0001338
4.529e-06
0.002907
0.002208
1.063e-05
0.004102
6.999e-05
2.68e-07
9.481e-06
5.206e-06
0.005105
0.0003981
5.081e-05
1.001e-06
0.0001313
5.054e-06
6.146e-05
6.365e-07
1.78e-06
2.155e-06
0.0002081
3.831e-06
1.456e-05
1.641e-05
6.639e-06
3.703e-06
0.003521
8.747e-06
4.263e-05
3.693e-06
7.342e-06
4.044e-05
0.0006757
0.0008029
3.548e-05
0.002593
0.005918
4.579e-05
7.744e-05
0.00518
0.006684
7.627e-06
2.416e-06
0.003755
0.001641
6.949e-05
0.006693
1.486e-05
1.511e-05
8.55e-07
7.957e-07
2.177e-10
6.212e-06
2.691e-05
0.0001377
0.004778
5.103e-06
0.006697
1.208e-06
0.001961
4.456e-06
6.751e-05
4.527e-06
0.006695
0.0004424
6.767e-05
1.583e-05
8.743e-05
4.946e-06
5.229e-06
6.811e-06
2.909e-06
0.001778
1.284e-06
0.000426
6.691e-06
1.674e-05
5.707e-05
0.0001329
9.419e-06
0.006702
6.103e-05
6.997e-05
3.601e-06
0.00385
4.325e-06
2.56e-06
1.033e-06
0.005187
6.748e-05
7.257e-08
0.004058
0.0067
9.237e-05
1.503e-05
0.001403
1.449e-06
9.919e-07
0.006695
0.006695
9.369e-06
3.973e-06
1.843e-06
0.006692
3.102e-05
0.005906
5.65e-05
1.021e-06
5.411e-06
7.573e-05
0.0009139
4.265e-06
0.00669
5.069e-07
2.537e-06
0.005647
0.000246
8.065e-05
1.819e-05
1.07e-05
5.047e-07
5.27e-06
5.586e-07
2.714e-06
0.006696
0.00286
0.0001602
0.002723
1.952e-05
0.0008854
6.434e-07
7.06e-06
4.903e-06
0.0005618
1.987e-05
9.326e-05
0.002978
1.52e-05
1.234e-05
3.847e-06
0.004228
3.794e-06
0.005781
0.001039
0.006693
2.866e-06
4.81e-07
2.621e-06
1.668e-05
0.0001135
3.055e-06
2.774e-05
6.421e-05
2.856e-06
3.223e-05
4.063e-07
0.00671
0.002225
6.616e-06
3.13e-05
2.146e-05
0.002979
0.006731
4.839e-06
1.722e-06
9.56e-06
8.341e-07
4.575e-07
8.205e-06
0.001656
0.0001238
8.384e-05
0.0004708
0.006692
5.26e-06
2.989e-05
0.0001961
9.236e-07
4.649e-06
2.559e-07
1.585e-05
5.024e-06
3.903e-06
7.172e-07
4.561e-06
3.327e-06
1.383e-05
1.519e-05
0.0001136
2.093e-06
2.501e-05
0.003941
3.617e-05
7.403e-05
5.26e-06
1.962e-05
6.486e-05
1.79e-06
4.666e-06
1.443e-05
2.904e-06
5.158e-06
4.483e-06
0.006694
0.0005598
0.002254
5.021e-07
0.0002322
1.238e-05
4.705e-06
2.793e-05
1.855e-05
3.924e-07
8.917e-06
0.001173
0.005124
1.89e-06
0.0007327
1.322e-05
0.001521
0.0004132
2.259e-05
0.0002429
2.698e-06
1.72e-05
8.567e-05
0.006697
0.006694
0.0048
0.0001075
0.006503
0.00669
5.38e-06
1.546e-05
6.569e-05
4.599e-06
1.627e-07
1.975e-05
0.0067
1.274e-05
0.001492
6.672e-06
0.003196
2.884e-06
2.99e-05
0.006732
1.342e-05
0.001027
0.0001868
3.635e-05
0.004892
0.006695
2.606e-06
3.052e-06
4.867e-06
4.07e-06
0.006729
6.775e-06
1.487e-05
0.0004013
0.006714
1.843e-05
0.0001238
0.006712
0.0006299
0.005188
0.006689
6.162e-06
4.007e-06
0.004878
0.006305
0.006604
0.006703
2.587e-05
4.978e-06
3.343e-06
6.978e-06
0.00307
2.831e-06
3.027e-05
0.006703
2.133e-05
9.766e-07
0.00203
0.006695
5.11e-06
6.799e-07
8.607e-06
0.004446
0.003538
9.434e-06
1.675e-05
0.0004294
3.188e-05
1.866e-05
2.883e-05
2.397e-05
4.918e-06
0.003418
2.114e-05
0.006694
5.766e-05
4.664e-06
1.283e-05
2.451e-05
2.106e-12
6.55e-07
0.006332
0.006695
6.58e-06
1.741e-06
0.00673
4.938e-06
0.0004516
0.004518
0.0008198
1.339e-06
0.000269
0.0001978
0.001758
0.003078
5.657e-07
0.006703
0.0003757
0.006697
5.016e-05
6.373e-06
0.004972
1.026e-05
4.83e-05
0.003052
3.859e-05
1.378e-05
9.849e-07
2.339e-05
4.701e-07
4.652e-05
0.0001082
4.448e-06
8.633e-07
5.215e-06
7.846e-06
4.316e-05
2.373e-05
0.006694
0.003752
3.081e-11
0.006723
0.0002236
4.481e-06
4.192e-07
6.058e-06
0.001115
8.163e-05
8.907e-05
0.006692
5.522e-06
2.615e-05
4.268e-06
1.052e-05
0.006842
0.0007806
6.041e-06
1.198e-05
2.093e-06
6.857e-06
0.0006988
4.209e-07
5.517e-06
0.0001597
5.455e-07
5.123e-06
1.477e-05
2.582e-06
1.881e-08
2.704e-05
3.749e-05
0.006487
0.0001012
0.0004256
0.005487
7.55e-05
0.001275
6.664e-07
6.842e-05
3.359e-05
6.111e-06
0.00267
0.0003197
0.001829
3.767e-06
2.742e-05
2.363e-06
0.0002586
2.286e-05
0.000293
0.003823
0.001291
0.006711
2.975e-06
1.438e-05
2.588e-06
4.94e-06
4.465e-06
0.000155
0.006696
5.29e-06
1.962e-06
2.317e-06
3.78e-06
0.0002018
0.005049
6.308e-06
1.876e-06
7.618e-05
4.905e-06
9.289e-06
2.233e-05
7.154e-07
7.819e-06
9.593e-06
0.006703
4.346e-06
2.063e-06
3.305e-05
0.0001071
2.022e-05
0.006705
0.0004623
4.784e-05
1.963e-06
0.0003242
0.00403
0.0067
0.006694
2.496e-07
1.48e-05
1.795e-05
5.146e-06
0.000585
6.7e-05
0.0005585
7.865e-05
0.006134
0.0001104
0.004065
0.003863
3.994e-07
1.593e-05
1.874e-05
0.0001525
0.006703
4.533e-07
0.0002031
0.004507
2.826e-06
7.75e-06
2.562e-06
1.588e-05
1.802e-06
6.38e-05
7.728e-06
7.118e-07
3.205e-05
0.004948
7.851e-05
0.001259
3.591e-06
0.003848
2.596e-06
1.181e-05
1.618e-06
7.919e-06
3.911e-05
0.0002411
0.006706
2.479e-05
4.115e-06
2.943e-06
0.001639
1.336e-05
0.00033
4.931e-06
0.006703
5.027e-05
1.829e-06
7.336e-05
0.00575
4.996e-05
0.006694
0.006689
0.000165
2.245e-05
2.242e-05
3.178e-06
3.801e-06
1.223e-06
0.0001209
0.006696
9.212e-05
0.006709
1.914e-05
4.946e-06
8.609e-07
0.0001112
0.004527
1.448e-05
7.159e-06
4.218e-05
4.236e-06
1.126e-06
8.247e-05
2.558e-06
0.003096
4.36e-07
0.005057
0.006692
6.509e-05
9.195e-05
6.653e-05
4.558e-06
1.128e-07
2.397e-06
1.789e-06
3.387e-05
7.159e-07
5.189e-06
0.003346
5.916e-07
3.497e-06
5.08e-06
0.003256
0.005511
0.006697
0.005455
4.709e-07
0.004965
0.0001732
2.353e-06
5.123e-06
3.651e-06
2.949e-06
3.514e-05
3.932e-06
4.747e-06
2.581e-06
0.006692
3.241e-06
0.002427
8.536e-05
0.006678
5.687e-05
9.915e-06
1.243e-05
6.987e-06
7.831e-05
1.944e-05
2.452e-05
5.526e-06
3.335e-05
8.966e-07
0.0001797
4.687e-06
0.004568
0.003968
9.52e-05
0.0002047
0.001165
0.006703
0.0002263
0.0002367
0.000135
0.001009
0.006694
0.005233
0.0007128
3.797e-06
2.444e-06
5.552e-05
0.0001047
2.086e-06
1.336e-07
5.146e-06
0.00409
5.1e-06
5.815e-05
4.885e-06
0.0002542
6.42e-05
7.157e-06
2.825e-06
1.09e-05
5.354e-06
0.001563
0.006695
3.112e-05
1.156e-05
0.0003691
1e-07
0.006711
0.0004207
0.0001768
0.006693
4.636e-06
5.032e-06
6.893e-06
5.311e-06
8.64e-05
5.987e-05
4.151e-05
6.778e-06
3.012e-07
0.0002564
1.405e-05
1.086e-05
0.000135
0.000249
7.949e-06
0.0002227
1.69e-06
5.682e-06
0.0002293
0.001148
6.808e-10
0.006763
0.006701
5.374e-06
0.001052
9.608e-05
9.92e-07
2.416e-05
0.0006989
4.785e-05
2.732e-05
2.06e-06
0.004464
6.379e-05
8.873e-07
4.989e-05
9.132e-07
8.309e-05
0.006693
0.0002448
7.467e-05
3.415e-05
5.489e-06
0.006685
4.766e-05
2.202e-05
7.994e-06
0.0001227
0.005289
0.006694
0.006729
4.16e-06
0.006708
0.0001182
0.006709
4.805e-06
1.207e-05
2.637e-06
3.101e-06
0.00027
5.278e-06
3.684e-06
5.334e-05
4.2e-06
7.795e-07
2.524e-06
0.0002791
5.594e-05
2.172e-05
0.006697
4.424e-06
4.78e-06
0.00058
7.757e-07
4.472e-07
9.668e-06
0.0001319
5.811e-06
0.0004306
0.0005227
0.0001117
0.0009984
0.006699
1.677e-05
4.601e-06
3.182e-06
9.54e-07
4.229e-06
1.647e-05
0.004139
1.637e-05
2.476e-06
0.006183
6.428e-06
5.672e-06
1.014e-05
0.006673
0.0067
4.81e-06
3.043e-06
0.0006776
0.001977
0.003288
0.006703
6.607e-05
7.234e-07
1.837e-05
4.632e-05
0.0003186
0.0008528
3.272e-07
4.211e-05
2.704e-08
2.18e-06
0.0001715
0.006697
0.0001852
0.0003711
4.779e-06
0.005777
1.033e-05
1.581e-07
6.224e-05
0.006694
9.375e-06
1.074e-06
2.836e-06
5.61e-05
7.208e-08
7.702e-05
1.491e-05
9.091e-07
5.088e-05
0.006693
3.825e-06
2.815e-05
4.149e-05
5.876e-07
1.767e-06
5.263e-07
0.006694
0.0006024
3.771e-07
1.056e-05
0.006698
7.073e-05
0.006706
2.178e-06
0.0002051
3.7e-06
0.0002166
0.001998
2.553e-05
0.006694
9.575e-07
0.0003607
4.268e-06
0.006694
0.006835
6.997e-07
3.019e-06
8.541e-06
3.036e-07
9.517e-05
4.716e-05
4.372e-07
0.006888
1.543e-06
0.001021
2.315e-07
7.646e-05
0.006689
3.628e-05
0.006703
0.006715
1.343e-05
0.0001891
0.000323
0.0009359
4.612e-06
3.158e-05
0.0007765
1.261e-06
0.001367
6.793e-06
7.234e-07
0.0007858
0.0006597
5.524e-06
7.873e-07
3.112e-05
1.752e-05
0.006699
0.0001581
0.003617
4.86e-07
6.803e-06
0.006697
1.616e-06
3.77e-05
9.747e-05
2.929e-07
0.0001378
0.005908
2.704e-05
5.49e-06
0.006614
2.336e-05
7.661e-06
3.495e-06
5.115e-06
0.0001165
1.445e-05
3.833e-05
0.0001785
0.0002489
0.006693
1.239e-06
6.199e-06
4.179e-06
5.228e-06
2.797e-06
9.606e-05
6.797e-07
0.000177
1.91e-05
1.124e-06
4.824e-06
4.018e-06
0.0002951
4.474e-06
2.814e-05
3.585e-05
2.816e-06
0.004491
6.608e-06
5.396e-06
0.0005661
6.821e-05
4.724e-06
1.198e-06
5.046e-06
4.356e-06
7.481e-07
0.0004526
6.868e-06
1.89e-05
1.776e-05
1.454e-06
6.634e-05
2.031e-05
2.01e-06
0.0003245
7.501e-07
0.0007427
2.955e-05
3.772e-06
4.514e-09
1.684e-05
2.067e-06
0.0001204
3.613e-06
7.139e-07
1.724e-05
1.479e-05
2.251e-06
6.068e-07
0.002503
3.125e-09
2.047e-06
4.325e-06
0.0006522
5.674e-06
0.00014
0.0002053
4.323e-06
1.142e-06
8.787e-07
0.00669
2.187e-05
9.533e-05
2.221e-06
0.0001155
0.001036
3.902e-06
6.593e-06
0.0001649
0.0002678
0.006693
0.0005973
0.006695
2.034e-05
0.000471
4.552e-06
9.038e-06
3.167e-05
0.003701
0.0001437
0.0003879
3.212e-06
3.262e-05
0.0001055
5.026e-06
0.0002695
4.15e-06
0.0008569
0.006695
0.006708
6.606e-06
0.005341
6.229e-05
3.057e-06
0.001993
4.896e-05
3.251e-06
4.32e-06
2.646e-06
1.793e-06
0.006703
0.003479
9.496e-05
2.248e-05
0.0004788
7.017e-06
0.002087
0.0001623
0.005104
1.182e-05
4.072e-06
2.961e-05
6.98e-06
1.677e-05
1.855e-05
1.183e-05
0.0002878
2.631e-05
1.94e-05
2.684e-06
4.099e-06
0.0002963
3.89e-06
6.812e-07
0.002734
0.0067
7.285e-05
1.21e-05
0.0003476
4.062e-06
1.242e-06
0.0001054
2.271e-07
1.184e-06
0.006694
6.063e-07
0.0001527
1.09e-05
0.0067
0.006696
0.005717
8.735e-05
3.675e-06
3.709e-06
1.201e-05
0.0007822
2.223e-05
5.334e-06
0.006689
2.176e-06
7.643e-06
4.556e-06
0.001531
0.000324
2.143e-05
4.43e-06
2.208e-06
8.693e-06
0.0002016
6.844e-06
4.883e-06
0.001459
1.584e-05
2.779e-06
0.0008995
0.006687
1.627e-05
0.0009535
1.06e-05
0.005356
1.517e-06
0.003558
4.944e-06
1.097e-06
0.005107
8.723e-06
3.001e-09
5.376e-06
0.003494
0.006854
6.617e-06
0.0002475
0.006677
0.006694
5.264e-05
4.233e-06
3.756e-07
8.436e-06
0.006694
0.006699
4.642e-05
4.844e-06
5.628e-06
0.0001943
5.256e-06
8.061e-06
4.598e-06
3.526e-05
9.794e-07
0.006755
4.087e-06
0.0002298
0.0001475
8.191e-06
0.0001035
2.643e-06
0.0007969
0.0001284
0.0001076
5.416e-06
4.989e-06
8.857e-05
1.284e-05
5.865e-06
4.07e-06
0.006702
3.251e-06
7.484e-07
0.007215
1.793e-06
1.587e-06
1.166e-06
7.902e-06