/*--------------------------------*- C++ -*----------------------------------*\
| =========                 |                                                 |
| \\      /  F ield         | OpenFOAM: The Open Source CFD Toolbox           |
|  \\    /   O peration     | Version:  v2012                                 |
|   \\  /    A nd           | Website:  www.openfoam.com                      |
|    \\/     M anipulation  |                                                 |
\*---------------------------------------------------------------------------*/
FoamFile
{
    version     2.0;
    format      ascii;
    class       volScalarField;
    location    "5";
    object      omega;
}
// * * * * * * * * * * * * * * * * * * * * * * * * * * * * * * * * * * * * * //

dimensions      [0 0 -1 0 0 0 0];


internalField   nonuniform List<scalar> 
100503
(
7.207e+05
1.565e+06
2.23e+06
9.804e+05
1.418e+06
5.824e+05
5.739e+05
3.947e+04
7.853e+04
4.883e+05
1.065e+04
8.753e+04
6399
6458
3.397e+04
1.618e+04
5992
1.092e+04
1.749e+05
5326
1710
1729
5.023e+05
1.358e+04
4.115e+05
1396
1212
265.6
112.2
9231
8.678e+05
97.86
98.06
676.6
30.9
1.483
668.4
12.55
0.1258
109.9
350.8
0.02332
1.452e+05
23.43
294.5
18.74
0.04733
288.4
139.2
268.9
739.9
265.9
0.1493
46.99
23.43
678.2
41.65
17.91
128.8
162.4
0.02473
61.57
625.4
527
2319
31.3
0.02165
12.72
5502
156.3
41.5
78.18
43.6
263.5
13.05
311.2
92.74
0.02076
0.01962
525.2
51.35
196.4
9.672
0.02296
42.03
0.1248
26.3
64.11
554.3
628.3
0.9673
16.02
14.65
0.0235
0.02168
517.2
64.27
41.55
0.02062
0.01959
16.15
9451
109.5
256.9
0.1465
0.02188
41.35
3610
0.2066
330.6
546.9
30.35
52.37
42.35
29.93
480.6
17.87
63.4
16.23
0.0599
17.27
52.52
651.4
47.69
31.61
824.2
13.07
0.3393
305.5
1006
39.96
0.3297
0.02133
0.03447
57.71
21.29
325.2
17.69
94.94
16.71
0.02572
0.1261
142.8
4.646
98.24
534.6
0.6203
83.64
452
0.02166
372.4
58.4
0.02217
0.02884
237.7
6.348e+04
0.03959
18.28
0.04587
975.1
631.2
362.1
419
18.36
0.1023
66.88
39.06
0.0222
0.02668
12.15
40.04
39.05
29.64
172.3
0.02174
7677
139.7
0.02768
0.3967
0.4148
59.63
76.43
36.81
117.2
0.3977
83.42
0.02134
871.1
311.8
3582
0.1289
97.95
22.35
0.02169
57.63
9.534
0.03426
109.9
0.07991
405.6
127.9
522.6
515.5
1.372
269.9
96.6
8.963
454.2
49.65
239.3
50.52
528.5
3062
17.52
74.95
15.95
4.858
0.02185
265.3
517.8
104
18.52
0.07488
250.8
5455
1667
105.9
2.018e+04
40.57
0.02219
108.4
352.5
780.3
15.27
10.43
109.5
0.7336
0.02492
889.3
56.57
2096
111.2
305.3
4.278
2.585
0.02589
58.39
0.02166
184
9.628
0.02183
4.122e+04
0.02179
0.6371
0.02179
27.55
46.97
28.48
28.97
2.888
2134
427.6
0.02863
55.15
94.27
67.43
272
7.245
0.1075
0.1287
173.5
0.2215
243.4
21.32
79.91
108.2
76.46
0.02712
144.8
379.6
255.6
250.9
0.03285
18.53
53.54
0.02375
101.1
0.02467
0.02141
418.5
15.77
0.05822
0.02641
11.62
606.5
4809
0.1029
0.1377
423.4
27.25
160.6
211.3
0.02196
0.2795
59.28
68.19
38.78
219.1
0.0222
0.02354
59.45
307
2463
79.3
0.05875
96.81
18.2
0.03804
0.1396
16.87
0.3892
32.74
129.9
3.779
420.7
0.02179
90.46
32.48
0.3031
1360
15.65
7.566
35.29
0.02247
890.8
0.138
8.318
0.02165
0.02216
8.598
0.04168
0.02128
323.8
0.2567
58.04
0.01987
21.77
22.24
3309
329.1
120
16.37
241.8
544.7
262.2
0.02111
0.03402
0.02179
250.7
117.7
0.03421
301.5
13.37
586.9
15.82
0.04164
611.3
342.2
0.04109
0.02196
52.82
0.8585
46.88
0.02167
40.43
1940
39.92
0.02172
0.3236
76.91
0.05563
41.42
2.747
4.301
109.4
0.02157
7.293
0.3773
55.3
80.24
0.0218
53.39
507.6
264.8
11.67
15.34
51.47
0.02163
2664
1.474
17.22
1241
144.4
21.39
73.85
556.5
0.0262
4.407
400.7
0.0423
793
1.654e+04
0.06437
13.16
15.28
0.02142
1321
324
0.03605
37.83
0.02232
242.9
1.813
2.855
381.1
0.09674
7.516
6.179
297.7
0.5146
79.77
0.3791
310.4
0.02217
1102
0.02234
32.02
18.09
0.02194
3.994e+04
0.1297
8.451
61.65
7139
23.39
1.051e+04
35.34
294.7
0.02139
206.1
1061
4003
7.212
0.02197
4363
49.32
0.02153
53.45
29.62
222.4
254.2
0.02198
2636
896.4
0.074
1091
194.6
39.94
50.56
12.91
19.67
52.44
27.78
0.1932
0.166
844
53.51
32.61
177
74.03
0.1386
29.31
40.62
1.003
0.03542
0.8146
0.04925
0.02173
0.02181
77.44
263.6
3.703
0.02175
0.04516
11.78
15.11
0.1429
250.8
13.54
0.02528
0.4618
0.02422
8.608
593
16.76
0.09589
0.1436
167.3
0.02196
33.39
0.04173
49.12
551.6
326.8
0.0735
0.02178
119.7
107.9
447.9
0.1964
0.1219
243.3
57.25
17.74
0.02125
0.2791
19.44
0.03297
0.2392
14.24
556.7
111.4
39.7
0.02157
5.786
18.63
53.4
0.02192
234.3
0.1887
2026
98.2
17.18
0.512
8.404
29.6
0.1642
69.69
385
15.21
878.3
510.6
0.02164
250.2
32
35.6
56.28
182.7
400.5
0.3161
18.7
359.8
15.31
74.99
26.99
76.5
330.9
207
0.0218
0.03479
0.0242
31.23
417.5
0.02152
292.5
24.74
0.02181
35.37
52.64
0.02132
31.57
0.02246
0.0494
14.83
0.01985
27.37
256
2.619
0.03478
206.7
53.37
48.03
60.67
1528
4818
64.18
18.55
14.1
0.02129
33.1
0.02139
40.91
593.6
2.792
46.07
156.4
212.1
0.02134
0.02155
130.4
11.76
0.02223
27.05
6.49
29.93
1.842
248.8
133
590.1
0.02123
221.9
28.2
7.812
0.4083
0.04671
119.1
76.49
15.86
4.235
35.48
259.7
0.02168
32.92
81.89
38.94
0.02166
851.9
0.0217
73.9
27.4
0.02164
24.61
29.09
40.81
4.292
355.4
15.94
61.46
1.157
40.42
42.46
22.14
0.02356
0.1523
19.62
0.02138
98.82
0.02165
0.1475
59.4
0.02164
0.368
0.8114
44.05
0.02151
0.02199
58.97
0.05862
0.3579
649.1
80.65
227.3
1.667
55.26
0.02263
426.8
70.9
0.1409
95.06
0.04071
0.02428
45.48
21.89
190.1
17.31
159
311.8
63.69
141.5
18.56
0.02199
11.34
60.18
829.6
47.62
120
803.7
0.03314
0.02163
0.6753
5.631
796.6
0.1508
109.8
31.22
47.2
121.5
0.02196
65.2
75.65
14.24
22.95
230.3
0.0225
279.6
38.33
46.86
0.02218
57.92
0.02174
234.2
0.72
0.02217
0.2077
0.02689
611.8
119.7
188.8
0.07315
25.88
435
107.6
633.6
177.6
0.02101
0.02137
0.02168
5650
0.02105
17.93
0.1001
17.36
344.9
70.05
2110
528.3
26.9
2810
544
0.02045
296.1
244
0.02617
111.3
24.07
483.6
22.68
0.02309
74.36
11.35
34.81
41.44
3.873
966.5
405.2
0.09722
92.54
7.662
514
170.7
141
18.71
70.74
0.2177
33.08
0.02797
0.02175
0.04543
105.3
686.5
11.6
0.119
0.4098
24.35
0.9198
161.7
450.7
34.41
0.02403
0.02091
226.8
433.5
0.02025
93.17
269
0.02507
147.7
2125
627
0.02508
484.7
1222
29.06
0.6709
1215
267
425
0.02103
99.73
0.3597
0.02212
685.2
0.02175
0.02217
41.43
24.24
0.1376
28.53
0.05977
0.08188
39.38
139.4
0.0383
1.823
3.342
0.02673
732.5
78.47
4485
4.953
0.02214
4.501e+04
0.02188
35.44
130.7
0.0793
7.106
411.4
77.49
92.28
532.4
1050
44.15
100.8
2876
0.2697
350.3
0.02184
7.159
126.6
66.78
4.565
44.78
0.0216
1198
412.7
71.34
37.42
0.0814
6.002
147.9
0.2325
9895
9.727
1065
358.8
7.691
0.02532
29.71
310.5
0.15
0.1488
22.41
49.32
13.43
29.91
77.28
0.2697
0.1002
0.02164
197.2
63.31
579.6
0.05338
0.3003
0.02078
0.02254
0.02181
249.9
117
28.2
830
0.454
251.1
0.02178
296.3
22.64
0.1062
529.2
0.02156
318.5
0.02175
1056
0.07369
0.03246
910.6
1551
7650
74.13
173.5
282
120
12.36
0.6066
0.04475
0.03864
288.6
219.6
21.61
374.3
14.56
934.1
237.5
0.0495
0.05527
228.5
0.02133
304.5
941.6
41.56
81.48
176.4
0.02112
1566
21.39
65.51
0.02145
13.24
8.165
185.3
285
39.38
20.15
876.2
33.76
797.9
15.92
0.07869
730
0.02189
0.02166
0.02096
13.36
105.8
20.34
10.97
9.48
53.82
0.9701
34.29
96.13
0.05811
258.4
80.87
36.13
1280
749.3
0.02689
0.5493
0.0218
71.55
63.98
34.52
65.62
20.75
89.35
0.06673
25.79
9.607
464.4
0.02182
54.02
51.81
120.2
90.15
510.7
20.81
54.52
7.246
0.02196
703.9
51.06
0.02819
39.19
63.91
31.93
0.05142
0.05722
0.02175
202.6
140.1
0.6311
414
12.87
7.23
14.81
0.1535
580.5
30.91
616.4
175.8
0.02262
242.2
18.21
763.6
0.02182
70.78
62.09
74.24
943.8
0.02181
0.02169
115.2
0.04708
81.87
318.6
29.89
0.2529
52.24
129.1
0.02195
121
220.8
0.02338
0.02391
234.2
4.242
70.82
143.5
37.06
8032
72.76
33.51
0.04359
167.4
279.6
18.68
131.1
134.8
35.49
39.01
34.54
0.02217
0.02616
0.02091
152.7
381.4
628.4
10.95
0.2132
0.02192
149
3.468
26.68
136.2
115.6
0.02627
0.1923
0.1179
0.04444
87.97
0.1446
321.7
56.2
0.2507
77.6
12.62
47.51
181.7
0.02168
30.83
30.58
852
256
8.944
17.88
25.23
136
0.4524
2.357
0.02215
0.1264
243.2
110.6
0.0222
0.494
71.28
89.07
26.41
45.35
0.05213
233.6
0.2276
7.497
288.8
26.06
610.4
0.1217
0.05983
506.5
0.02172
0.02523
9401
0.7948
6061
0.0423
10.54
6.588
0.02084
35.86
19.63
0.02131
0.03517
314.5
778.1
1475
11.73
424.4
0.08933
768
3.33
24.79
28.8
2.112
0.02187
74.43
0.04306
9457
0.06428
442.1
1310
0.5854
0.02158
0.02734
447.1
0.4498
1199
512.2
0.03711
454.7
0.02085
3.816
0.02175
0.1173
142
1088
0.02147
20.5
544
0.4981
60.77
0.103
0.02186
0.05093
15.06
33.82
64.91
71.67
0.07743
395.3
0.02198
470.5
9.115
111.5
14.23
91.39
0.0198
0.3918
265.8
1.874
105.1
1556
0.02203
1883
75.54
53.44
60.94
0.02083
493.1
0.2997
0.02165
105
0.07157
0.03993
1235
48.94
0.03824
0.0213
0.5871
15.01
21.73
161.9
0.03091
4374
160.3
28.52
40.53
0.1433
172.6
55.24
526.2
0.09146
0.1498
29.34
51.54
74.02
0.02142
5.816
108.7
88.54
20.49
0.996
0.6118
1.443
0.1838
7.861
516.8
25.39
0.01967
0.02214
29.65
12.82
0.02175
7815
0.1258
0.1491
1222
2.807
15.15
0.09427
0.06599
103.3
1192
0.02182
86.51
285.4
421.3
0.02776
0.212
21.78
0.02169
115.5
0.02293
210.2
68
24.89
0.04025
593.2
21.28
0.02188
0.0205
0.03354
0.02222
35.08
5160
3829
990.7
52.56
675.6
13.99
35.57
157.1
451
65.93
664.6
72.31
1.149
63.66
5.106
0.02144
0.02042
72
93.22
134.4
509.8
28.23
35.42
0.02179
0.2004
99.82
816.1
26.3
12.92
11.18
201.5
22.97
0.02039
934.7
1.062
75.6
0.03029
707.8
172.2
0.02195
658.8
1127
66.36
520.7
285.2
0.02339
304.3
28.37
201.7
293
61.91
613
158.3
0.102
18.76
484.2
0.05351
18.7
21.42
0.02103
142.7
0.02631
0.3056
159.4
0.1108
112.4
0.02188
0.1072
0.02785
1930
0.3996
55.33
21.56
157.7
1.656e+04
156
3234
0.08286
215.3
42
2.075
0.02187
58.7
190.2
0.3581
1824
0.1411
0.09559
377.2
126.7
79.49
1220
10.15
0.02136
4.535
0.0401
1067
383.6
0.04185
76.26
14.98
33.37
1.518
192.2
150.3
27.46
76.42
21.88
276.9
99.75
365
91.79
36.28
2.785
0.2927
207.3
68.65
55.7
392.9
129.5
0.02161
235.8
12.11
176.1
0.1033
18.51
38.13
1829
0.02196
0.0215
57.34
1113
0.07063
4.123
71.85
583.5
2.756
278.2
148.9
24.25
156.2
15.95
233.8
1045
46.66
276.4
14.98
29.35
350.7
228.9
1676
0.02176
26.66
56.29
14.31
31
0.03149
36.53
254.4
59.56
17.79
33.76
25.62
352.5
25.63
0.2906
38.55
369.2
0.02253
0.4565
81.49
288.1
9.295
0.02119
0.02267
0.1101
1076
0.01984
209.3
1.35
19.27
53.57
119.4
1334
285
30.39
49.86
2139
62.89
131.1
97.6
0.02282
0.02183
48.22
9.518
287.4
294.4
276.5
3759
247
0.0521
7.453
0.05196
473.3
12.27
311.5
0.02244
29.99
0.07895
138.8
43.26
0.07684
27.39
15.68
72.72
1360
1.608
0.02168
77.87
22
864.8
0.05668
180
11.3
0.02173
45.55
19.53
0.03362
63.42
365.6
40.39
169.1
0.023
2.828
0.0218
0.6663
7.144
23.96
171
140.9
0.02177
207.9
137
144
65.29
279.8
125.1
1337
553.9
125.1
0.02018
239.9
0.3139
140.6
19.47
0.4511
0.04281
116.5
6860
0.02126
0.203
95.6
0.02222
22.9
91.61
72.37
81.5
13.28
99.15
200.8
8.275
269.6
30.95
1.538
342.4
0.02244
0.02219
24.1
7.173
99.89
0.0218
0.03154
0.1924
0.02166
305.8
0.0285
13.12
8.43
69.85
910.4
0.02727
0.101
0.2779
30.78
361
2838
16.5
59.41
0.2032
9.602
0.1707
122.9
44.06
33.93
636.1
4.52
86.72
311.2
281.7
0.1892
153.3
0.8714
51.73
22.34
1698
129.5
41.4
2.348
627.2
103.6
230.9
0.7506
27.46
826
19.59
34.66
20.75
62.48
11.35
0.8522
53.52
507.5
0.3334
143.8
0.4766
0.02238
189.6
1388
272
0.02482
280.8
5.403
0.02191
10.43
34.12
317.7
55.57
42.07
39.04
97.11
0.02097
0.05271
8.741
0.6345
13.51
0.03547
428.6
27.9
254.4
0.02164
0.02147
0.02191
90.3
144.6
0.5688
111.4
72.49
0.1442
0.544
3.541
0.03021
0.02176
0.02169
0.02196
38.99
116.1
54.6
0.1365
68.33
13.79
1.295
323
2589
19.45
280.9
42.19
480.1
0.1086
95.97
0.03352
0.3672
26.63
109.5
26.73
280.2
430.6
0.02157
32.9
3846
138.9
77.02
0.02185
11.41
25.89
42.73
620.1
259.7
43.19
1.986
0.02176
19.71
14.37
51.04
0.2866
63.81
4.266
0.041
540.5
209.6
271.5
325.8
17.59
2.648
0.02454
871.8
84.24
938.7
0.02188
11.41
0.05808
0.02172
0.02804
59.91
0.02059
62.35
53.8
3339
270.8
22.65
110.9
269.8
179.6
5538
32.81
20.08
36.47
513.9
12.52
700.8
985
0.1446
0.02176
0.7195
469.6
1.242
0.4946
129.7
22.38
255.6
30.2
702.4
0.02192
100.5
521.3
39.14
27.54
493.1
13.18
1.009
221.4
171.8
2.05e+04
205.2
47.26
897.6
108.8
449.1
53.51
0.02037
144
294
1205
111.7
193.5
374.7
57.28
20.76
7596
38.43
0.05173
1.064
0.02215
4.955
4.771
0.02165
14
0.0218
7.268
342.4
779.1
16.96
0.02165
65.56
5.02
3201
27.28
12.45
111
0.02179
8.597
0.1344
9.617
0.3266
295.5
26.94
0.1258
59.62
15.48
2.629
77.98
42.26
0.1859
92.05
41.84
21.44
134.7
72.85
40
863.4
12.92
0.0593
0.1061
1917
289.4
0.02201
75.54
267.6
210.3
25.4
0.3806
614.4
0.02195
782.4
47.69
930.5
168.5
0.04343
53.83
13.53
206.5
0.0219
2881
0.02095
11.2
13.75
0.02209
104.6
2711
6.003
595.1
0.0203
79.13
1.434
1085
24.48
0.05527
75.86
0.03567
0.02623
786.9
0.3956
745.7
271.4
12.44
193.2
0.02171
0.02676
841.8
478.6
751
613.6
3005
0.0218
996.4
0.02188
12.24
0.546
3.991e+04
0.0219
16.98
119.9
0.02093
0.02185
0.02196
0.02091
0.02145
59.12
0.02192
0.1964
16.56
15.5
3.108
13.76
683.3
95.54
569.5
0.03995
85.58
24.33
0.02193
4241
0.02223
390.1
541.1
52.39
0.05582
0.05609
0.02186
610.5
139.7
0.02073
23.76
19.52
15.05
364.9
175.8
2.77
0.03456
133.1
154.8
43.97
24.17
0.01964
281.9
0.2641
0.2422
0.08989
71
229.6
0.02232
0.1337
1.198
7.497
15.71
167.9
0.04852
15.58
18.4
403.8
15.74
0.02178
82.91
424.2
0.02095
1178
0.1197
371.2
16.75
9.472
148.2
72.92
159.5
0.135
68.24
84.46
0.02102
0.1349
3.663e+04
19.68
140
0.4496
35.63
554.3
0.02167
171
10.53
395.4
0.02159
0.0201
32.45
32.21
342.2
0.07356
84.19
19.16
27.21
32.19
15.96
0.03409
1567
0.02226
62.91
0.02222
296
0.1347
290.8
0.02191
4.61
1016
148.2
60.57
84.18
116.8
105
26.3
97
0.02175
11.19
0.08766
0.03036
352.3
11.04
21.8
51.75
0.07443
215.5
650.4
31.05
63.4
0.0433
71.98
0.1867
1.923
49.05
374.4
92.26
1332
676.6
831.4
106.7
356.8
30.87
0.3908
67.4
435.7
0.0733
1047
180.8
329.3
57.31
0.3541
18.05
2.415
10.25
0.0222
0.04538
6.553
0.05451
0.1463
0.01989
56.73
85.63
0.08989
0.02247
0.1912
0.0217
6.312
1.767
257.5
66.41
4.942e+04
73.43
0.4225
144.9
9.511
4.03
0.02187
175.3
1.911
354.4
65.89
198.9
0.02184
38.3
66.7
144.8
1.277
15.1
233.4
7.104
159.6
0.02212
238.9
0.02551
89.38
28.82
0.138
0.2088
56.8
0.02213
0.1301
1.672
113
11.24
302.8
315.4
2298
0.02191
0.0383
7094
0.07383
0.022
0.3526
19.26
27.95
559.9
1017
0.02184
0.02184
45.84
102.9
1410
0.02175
358.3
0.03927
0.1303
868.8
187.6
0.03126
30.32
192.6
0.02135
1814
690.4
0.02172
76.36
103.2
2.839
0.5973
1812
328
1546
374.1
0.02187
17.12
38.61
13.21
29.69
13.96
1655
0.1059
357.5
0.02351
8.344
0.2471
12.97
39.52
20.97
941.3
0.365
122
0.02346
0.02246
0.02178
281.7
913.6
470.7
35.37
0.04244
183.1
11.07
0.4298
1031
312.6
2533
0.02046
23.54
80.63
137.2
0.3641
16.94
0.02024
468.6
299.9
794.5
550.5
4459
0.2288
16.09
154.2
0.08293
48.27
0.02155
1.391
0.4341
49.37
1532
586.6
850.1
321.4
224.5
947.3
67.98
220.7
0.7369
37.56
26.4
0.1783
770.4
15.24
0.2846
2.747
0.04041
183.5
0.06261
0.138
378.4
112.3
48.84
160.9
233.3
122.1
0.02165
29.46
0.02188
2108
49.99
644.7
152.3
393
166.7
2753
42.98
17.96
0.04306
782.9
49.01
45.1
12.16
21.03
12.32
43.07
441
14.6
191.8
0.02165
0.02173
1.835
71.85
0.0203
0.02128
71.93
10.89
0.09522
508.2
6641
362.4
0.02199
23.76
12.07
17.7
13.2
310
324.9
0.02023
610.7
14.69
0.03746
302.3
0.06166
0.0218
252.6
41.28
69
290.8
0.02122
83.92
0.4951
36.19
0.02057
539.6
149.1
0.02057
30.71
0.1537
0.02146
0.4349
106.7
0.05741
0.02119
0.01946
0.02216
4.695
307.6
212.8
86.57
12.39
233.7
372.5
0.02109
14.22
121
25.54
0.02165
290.2
1079
10.91
0.1739
16.01
453.7
204.5
23.2
2.205
31.83
12.76
23.26
91.32
0.02219
25.79
0.02171
66.52
111.9
0.2219
9.468
5.723e+05
1598
0.02118
0.02184
47.98
340.4
0.02161
97.7
0.03551
0.1734
0.2191
57.53
40.55
0.06775
17.67
3.181
947.4
0.02216
40.01
0.0219
0.1686
48.35
0.02929
568.6
75.72
18.22
319.3
10.87
700.1
19.93
450.4
4.653
163.1
114.2
85.96
405.2
42.08
333
0.07075
0.02165
0.06279
2.497e+05
0.02141
3.899
352.1
1980
104
37.78
2.435
0.2533
0.02163
398.2
375.6
0.852
42.16
0.0213
94.5
113.7
30.54
534.2
87.88
50.2
2526
156
0.1596
953.2
197.4
17.36
1173
4906
4.335
327
0.02193
97.04
0.02626
0.1427
56.39
33.89
1246
0.1512
421
85.33
18.5
82.05
26.29
373.8
1.729
421.1
30.09
0.05084
26.68
1.223
30.98
0.01956
1160
10.07
2301
63.29
207.7
0.05397
0.02187
318.2
45.87
265.6
122.6
38.53
0.1598
0.2222
425.2
0.1448
113
42.03
265.2
1169
247
50.41
0.02161
244.8
2140
0.1758
85.43
480.9
0.02223
65.42
0.1893
122.9
80.91
0.0766
0.02203
0.02174
2933
10.56
7.955
307.2
18.13
223.7
0.04196
0.06355
0.02175
146.3
0.1104
14.2
2048
260.6
24.25
0.04495
0.02213
2984
33.47
0.09916
2.537
63.29
318.4
37.95
110.3
112.3
41.86
1069
103.5
0.04209
0.07274
33.88
495.5
0.02201
442.1
48.86
705.7
79.24
15
0.06044
0.02228
18.32
358.5
155.2
13.05
145
80.5
368.1
0.02111
259.3
313.8
0.07418
0.03065
246.8
0.02175
0.0215
59.16
103.5
232.9
718.4
73.46
733.8
155.4
0.02185
2.171
0.01954
34.51
63.39
984.2
59.44
0.02199
37.57
411.5
79.3
98.14
848.3
58.5
427.2
0.07027
400.9
0.03132
0.01965
0.06249
0.2905
115.1
121.9
1.081e+04
1233
612.6
7.713
230.4
74.17
16.89
361.6
128.2
75.25
13.96
0.02501
0.02189
0.1424
800
0.02175
158.2
91.96
74.61
361.3
1265
6.011
296.4
475.1
245.9
0.02168
1061
22.05
0.03473
0.02065
0.1072
758
0.9938
4.955
136.2
30.28
22.14
109.5
290.3
211.7
0.02786
125.9
0.03787
0.0913
0.2851
56.31
19.19
0.02167
32.64
43.48
119.5
13.29
0.0218
0.02169
30.59
216.4
334.2
0.04365
82.36
782
2840
200.1
0.09915
434.7
126.7
157.4
0.02575
121.7
71.77
55.36
36.53
276.4
30.34
0.02181
299.9
59.6
23.94
2133
0.02044
29.43
0.1913
0.02168
62.56
253.1
85.92
218.2
0.3171
228.9
0.1323
0.4516
3034
39.68
6.376
34.76
0.04231
0.02777
54.4
43.81
564.2
42.37
45.82
34.96
3.193e+05
0.02076
0.02203
41.67
36.87
66.3
731.6
13.05
53
0.1648
0.3807
254.3
10.01
121.9
971.8
4.21
1003
0.04188
0.02159
28.21
0.1072
1.787
82.48
0.02081
0.2114
11.4
740.4
122
0.03801
0.0218
0.02155
17.14
0.02232
0.03941
0.02015
1066
26.03
285.4
180
90.36
117.3
123.1
130.3
157.1
1161
3.605
33.97
0.5012
2.232
0.02186
161
1258
29.33
2689
1761
17.69
41.18
108.7
69.45
46.3
47.72
0.02776
0.022
11.25
88.46
427.9
736.6
347.7
28.78
0.4112
210.2
516.6
0.02185
77.21
146
41.29
0.02065
0.02202
236.7
827.4
29.33
0.02193
15.61
0.02215
0.1276
3601
122.3
0.2983
25.81
55.38
518.7
28.22
1.061e+04
40.4
38.49
0.02187
33.76
0.02541
101
0.0264
2.031
3829
0.06086
0.02172
71.3
930.3
416.5
0.1374
3059
0.06953
9.98
2.649
4.448
0.02172
389.3
116.7
6.105
502.8
613.3
1288
0.02176
21.19
2904
1.082
0.02193
0.6954
0.02124
81.89
41.6
438.7
107.1
16.29
0.1372
0.02182
745.6
36.83
103.2
0.02176
0.02041
418.4
71.6
47.78
595.9
67.68
0.2144
433
0.02053
212.1
36.16
4643
192.7
0.02148
105.3
0.02214
0.02106
4.738
44.29
26.67
33.67
406.8
406.8
47.47
748.5
16.09
88.38
247.2
27.66
52.51
98.38
33.79
0.2221
191.3
0.02197
143.9
0.02193
441.7
88.07
0.02189
463.2
1.084
80.53
1417
127
7.941
281
82.93
0.01958
14.42
81.63
128.3
248.5
58.54
24.73
10.93
119.4
115.2
0.02168
371.9
73.58
122.8
234.4
81.81
0.1934
609
99.9
120.2
3315
7.173
233
88.49
218.9
90.06
0.4506
167.1
0.05162
63.87
138.5
56.57
0.1035
112.7
619
130.6
376.2
1389
68.89
54.83
25.97
12.61
755.2
0.07234
28.4
300.6
0.02432
67.67
0.02311
353
616.6
8975
35.12
2117
44.92
144
397.2
17.41
21.16
292.3
979.6
13.87
4.015e+04
648.2
21.13
16.08
146.5
269.2
41.39
91.92
3876
1106
0.02146
4.39
0.06128
512.1
108.3
0.02222
311.6
89.76
0.0274
4.303
0.02167
44.32
0.02178
8.437
65.05
250.2
31.79
491.8
1.172
0.1959
35.83
297.2
126.7
94.79
250.7
27.53
83.99
0.02266
0.02183
0.02233
90.19
0.03691
228.4
88.21
15.85
0.1455
7.178
91.75
213.6
321.9
0.02216
0.07171
114.4
21.9
18.97
86.7
0.02245
0.033
0.1589
208.5
30.84
12.63
86.22
35.88
143.1
10.75
0.03674
12.33
9.755
80.18
663.8
24.86
273.7
619.8
19.45
0.02204
0.08113
40.76
39.35
93.94
162.9
0.1957
4706
864.5
0.02181
2688
130.6
2.794
0.02202
0.02188
9.619
0.2198
82.55
504.4
30.59
29.76
26.33
175.3
0.0214
1173
213.4
102.5
0.02482
25.97
0.05759
161.5
507.7
256.3
53.19
43.5
276.9
14.92
38.13
1558
20.86
0.01989
6.344
14.06
28.28
0.03732
786.8
0.07142
157.1
1187
9.309
0.083
7.421e+04
359.2
0.02176
7.834
1078
0.03323
0.01983
0.02182
115.3
169.2
3376
47.88
0.02181
0.02196
16.44
116.2
149.5
63.31
280.4
40.53
560.5
586.4
366.1
0.02043
225.9
32.68
0.0475
51.53
50.06
323
14.27
115.5
0.05682
341.7
294.7
0.03127
23.98
97.94
240.8
0.02162
213
2908
8.836
612.8
352.6
732.6
311.7
54.12
108.2
1045
0.06075
0.02182
0.02171
0.178
347.1
75.56
1644
0.02758
9.399
160.1
0.1105
6.505
17.63
46.95
0.02186
0.04208
2455
0.4394
7.715
0.05644
49.88
176.6
1015
55.79
5.625
0.02223
0.01977
547.8
9.638
0.02116
53.03
0.2694
0.04435
17.64
30.72
174.9
8.419
2082
2147
0.1368
0.02182
89.8
3.478
0.02169
758.5
495.2
0.1288
498.7
195.3
19.25
15.85
0.01975
97.58
101.7
17.39
0.02117
37.76
0.02139
2091
0.01982
0.02168
21.79
73.75
1036
0.09999
0.05425
8.993
3396
70.34
49.53
0.02198
37.45
66.01
85.63
77.47
2366
36.26
1243
735.4
77.69
37.64
393.8
123.4
27.36
1537
24.23
1.061
0.07883
0.03667
51.94
0.02667
36.4
82.79
638.3
0.0324
0.0218
34.83
0.03195
123.5
223.1
274.5
86.29
0.02098
0.03174
54.52
96.43
10.86
344.8
0.02176
0.0215
59.61
0.3262
29.19
0.02176
486.8
0.07656
1207
88.12
0.02588
0.03738
79.57
0.8621
403
112.6
0.02151
199.8
16.62
253.1
78.01
214.5
2316
0.5601
0.02051
0.02169
1248
64
47.25
25.54
0.02118
515.8
127.7
19.56
90.08
105.4
101.4
109.1
960.3
23.22
61.45
0.9457
73.63
0.1006
484.1
0.02057
14.42
0.02188
401
710.9
0.02184
0.02093
1509
15.99
0.02192
23.36
968.6
67.78
70.33
0.02107
0.1728
30.62
54.84
161.1
34.08
26.39
68.97
3919
0.02206
95.93
20.96
0.285
68.42
0.03173
20.62
0.02169
0.233
0.0216
17.28
35.93
188.2
15.18
0.02198
0.02051
67.13
850
4406
10.91
0.02613
0.0235
98.17
0.4741
0.02713
51.1
299.4
47.8
3000
17.7
0.02002
139.8
260.9
0.4507
420.9
391.1
16.37
126.9
42.34
22.01
309
749.4
295.6
15.37
296.4
0.5437
23.95
536.9
0.04623
0.04291
36.97
0.02398
10.62
51.67
0.8483
4.5
2503
0.02224
0.3585
32.03
16.72
182.4
0.03059
125.3
17.56
15.18
108.7
1916
0.2053
993.1
364.6
7.546
122.5
0.02293
0.4133
51.55
53.14
5.927
0.2344
102.7
0.02173
214.8
0.2485
2187
4.732
0.3589
3.782
2511
76.52
0.02217
2.14
43.67
0.02182
1018
27
70.88
59.94
0.02013
351
365.6
630.4
1151
38.06
419.4
0.02251
462.2
272.1
57.43
0.0218
67.41
26.51
190.4
38.44
0.02144
36.68
43.23
0.02228
2047
1341
46.75
0.1209
0.1064
146.8
943.1
5.876
20.98
13.87
586.3
0.1896
63.05
128.6
11.88
1327
256.6
16.74
0.03228
84.59
0.4311
8.467
1195
135.5
0.05855
0.5353
11.01
199.2
101
413.9
1.176
0.7233
39.12
29.74
67.33
13.78
182.4
630.4
0.02151
107.5
22.8
80.31
304.9
231.1
38.03
99.45
0.06314
79.33
460.5
5.615e+05
323.3
2460
76.19
0.07445
698.2
12.15
282.4
39.66
0.02203
56.41
267.2
551.5
0.8544
30.76
9.975
0.02323
80.73
73.6
0.1026
17.89
678.7
30.4
495.1
6.595
0.05813
12.41
9.468
13.97
33.08
11.24
62.1
609.4
256.5
0.09308
81.14
0.06958
16.57
181.2
0.8529
0.02074
0.1521
561.4
0.03114
0.04184
342.5
801.9
21.98
93.75
0.1889
30.91
0.02127
0.01963
794.5
102.8
420.3
625.1
58
0.1423
0.02201
10.83
0.6315
0.02046
10.17
350.1
0.0224
9.514
0.0904
891.8
510.6
0.02178
0.0216
160.8
25.83
607.6
0.02058
669.8
180.6
0.0402
0.04369
15.11
13.6
212.2
44.7
362.2
755.5
1079
16.43
95.17
0.02188
973.9
161.1
0.02274
0.02842
0.0201
0.02001
314
0.02168
0.06726
99.14
76.21
32.59
1063
0.1366
26.51
0.04072
0.1351
0.2647
0.268
60.76
185.8
654.7
32.1
17.55
0.03282
0.0215
13.28
224.5
370.7
206.6
412.6
13.47
2.609
1983
0.1255
0.02207
62.94
357.3
167.4
0.02177
207.3
94.15
65.54
456.4
3228
701.6
0.02878
72.68
718.4
1.057
1106
0.4415
120.7
27.01
7.386
113.4
151.6
127.3
406.5
289.8
0.1013
0.06218
45
25.09
854.2
92.72
1.469
2110
0.1412
351.7
54.6
0.02064
0.02195
3.695
0.02049
0.02226
139.7
942.6
2981
316.9
812.8
172.6
51.78
40.84
283
17.83
0.02153
51.36
0.257
9.529
0.1451
82.94
6.298
0.1343
0.02105
9.475
73.19
0.08005
0.02193
340.1
22.18
35.5
199.8
1994
0.02175
68.47
136
0.02146
33.72
1470
19.79
0.02148
9.947
1725
930.4
1018
0.09431
199.8
0.02189
264.6
13.87
1.896
39.42
29.49
350.7
12.39
10.64
235.2
307.3
0.2541
33.64
421.2
46.53
41.16
31.6
2191
127.4
57.38
1032
0.5025
1.464
483.8
39.74
466.1
15.73
584.8
0.1183
0.02175
19.39
412.1
309.9
0.02447
355.4
19.09
420
37.57
262.9
173.5
0.1438
402.3
74.28
0.02175
15.23
89.76
1123
383.4
41.43
96.33
78.48
13.07
2144
2686
71.44
29.4
0.2798
0.03332
1.089
663
47.31
19.88
20.08
0.02174
0.1139
54.09
0.06702
841.7
1123
293.1
283.3
0.6309
592.6
949
419
89.89
0.03939
161.3
36.39
0.8648
84.97
0.02181
27.03
111.1
2.339
0.022
6.289
0.05514
379.4
1003
609.4
124.3
391.1
2.351
3054
176.7
24.39
638.3
49.02
5.915
80.51
972.6
47.5
5592
21.92
130.2
879.2
0.04453
2.021e+04
0.02184
0.02073
0.02166
3852
428.6
0.02182
965.8
4301
0.02189
81.45
72.04
337.6
37.98
0.02106
11.66
110.5
45.63
0.02146
4425
0.06574
297.5
1258
0.02227
35.01
38.77
10.86
60.91
8228
64.09
13.76
461
0.1319
237.7
39.72
116.8
3.404
0.05035
0.0231
0.1636
5.757
0.02183
62.24
217.8
0.02209
15.75
0.02207
0.05399
278
68.08
0.0219
86.56
9.878
516.9
116.7
4.456e+04
230.3
4.353
644
161
0.03536
19.63
89.26
0.7008
414.4
17.43
1189
260.1
0.02198
0.04484
0.06344
0.02123
60.39
25.05
70.62
0.03117
75.78
567.2
12.2
10.38
80.26
0.02171
692.8
0.02205
34.57
873.3
0.3556
1339
37.22
0.9865
58.98
0.02197
3.673
0.08233
0.02223
6.148
1272
0.02194
16.19
0.06239
0.9451
192.6
69.02
0.0217
29.67
28.18
0.03796
0.02175
1.719
0.02541
81.95
329.5
31.72
1.265
50.49
8201
32.35
0.02175
94.51
342.4
29.21
1785
365.6
0.02187
530.2
1.928e+04
259.5
232.1
11.15
299.9
209.2
0.03937
0.6999
870.8
519.2
37.34
0.02225
205.5
17.44
1294
28.79
23.95
169.5
1.55e+04
0.04053
278
1.947
33.26
1.284
114.3
1203
0.04001
130.4
789
32.64
20.39
240.8
0.02181
0.02179
33.66
170.4
188.1
413.8
0.02173
1725
2681
6.398
31.71
142.6
9.889
145.4
0.02179
97.54
17.17
10.08
56.41
4188
0.1448
852
13.47
58.65
1.874
0.04112
29.67
0.03243
653.9
22.35
19.13
0.1522
0.02193
77.69
104.8
14.17
915.3
2007
20.73
51.07
19.72
0.0219
0.02165
126.4
3.823
0.02185
39.37
17.5
892.8
21.01
46.4
1858
15.48
9.717
2218
87.63
9.236
96.26
220
215.8
33.64
567.5
991.8
6.662
86.99
14.33
26.89
253
0.02171
744.8
40.54
35.02
0.02204
0.02188
0.02218
0.0232
1960
81.16
42.7
148.6
1.769e+04
28.58
165.4
317
26.62
6095
19.26
258.2
1.228
1332
36.79
0.0218
27.55
542.4
93.35
55.74
0.02209
315
0.02653
0.03279
1.059e+04
986.7
0.05815
122.1
750.1
5.078
767.5
3975
15.3
22.91
12.27
121.6
35.69
599.4
289
1111
1129
29.63
247.4
81.48
93.26
10.63
181.5
256.8
41.06
192.3
23.75
0.02182
1.183e+04
9.638
54.14
18.79
0.02354
75.2
163.9
52.92
74.1
367.7
55.18
63.56
32.37
0.5061
23.76
56.38
499.5
345.5
20.43
69.86
0.0218
68.21
87.14
1786
22.13
491.1
286.8
0.02024
0.09949
34.46
0.06932
69.3
281.2
142.4
19.08
1187
23.55
30.83
0.02173
304.2
26.84
82.56
0.03345
0.02229
0.02164
10.54
2.754
17.2
415.6
106.8
279.5
0.03177
0.01988
33.7
0.021
222.3
24.57
0.02204
0.02191
0.06519
57.79
36.05
0.1836
75.89
461.2
135.5
247.7
1.014
0.02185
0.02179
0.03112
460.1
66.1
511.2
113.4
0.02242
0.05643
0.06525
24.5
991.1
100.2
54.46
0.07834
0.1361
13.27
162.2
0.02189
9338
126.6
0.02197
49.63
20.71
41.84
49.39
316.4
43.21
94.59
7.879
47.44
12.29
13.57
0.1887
343.8
24.62
4.913
29.51
71.93
1.077
332.5
106.4
318.9
0.2228
0.7166
204.8
43.53
890
719
27.82
157.5
10.83
433.5
0.02108
246.3
0.05747
23.7
0.151
170.5
8.691
76.17
0.06466
1.993
0.1827
0.6451
1068
0.02238
453.8
82.05
1239
0.4207
422.7
26.35
598.5
0.04057
67.47
352.6
0.02129
0.3941
276.5
0.02153
1.089
0.6913
0.11
123.2
0.02629
1163
30.75
0.0803
27.12
0.1275
408.6
846.5
79.16
0.03083
16.87
80.63
749.6
0.02176
0.08837
224.9
1573
23.82
33.42
5.267
15.33
369.1
44.23
894.8
494.7
4.178
0.02356
40.2
0.02052
0.02047
2873
7112
1447
437.7
133.4
0.06218
242.1
0.02213
60.01
41.47
246.2
0.1454
274.6
74.1
244.7
29.3
1051
0.02236
314.7
45.12
57.23
83.61
2165
330.2
72.61
28.47
0.02179
0.07536
176.3
0.02187
330.1
9.479
0.1857
0.02231
246.9
966.6
0.03024
57.05
0.2913
0.0219
0.02017
68.79
5.897
149.7
116.2
5.786
0.0282
101.8
31.37
18.22
2951
8.063
0.02316
73.76
10.76
15.63
0.02321
0.02029
471.1
610
118.3
1.27
91.74
70.47
0.03875
40.41
0.02545
2424
43.53
0.02105
175.6
770.9
93.41
5.67
0.06098
55.22
2144
57.97
12.23
60.3
1118
0.02183
0.06103
0.386
0.02169
1558
1074
588.7
583
115.5
14
1.063
397.3
330.5
118.9
5.905
0.02175
0.02003
82.94
0.05732
903.9
19.7
0.4559
437
44.39
103.1
47.08
50.65
0.02167
80.74
264.5
0.02146
868.7
0.02176
11.14
0.02169
9.076
0.02194
331.8
573.4
3.745
36.16
0.02582
214.2
165.5
26.97
0.6999
128.3
39.26
254.8
1213
152.3
36.94
0.02181
0.02195
0.1306
0.0965
186.7
483.9
618.1
504.6
0.387
39.17
40.64
14.53
44.5
0.02182
340.1
0.04238
28.88
115.6
169.5
52.78
0.02515
31.7
0.9135
114.2
576.8
0.02109
725.1
922.3
41.04
42.78
0.02181
0.02175
93.5
0.03421
92.16
54.81
34.76
3.514
79.77
426.4
14.54
265
0.02209
14.94
7.04
0.2597
0.02138
2074
39.9
0.02171
18.9
0.08918
0.0457
237.7
0.02166
13.74
16.1
1.219
51.52
0.1221
20.15
27.36
799.7
1.204
64.78
0.02226
278.1
16.58
0.4541
38.35
75.23
379.9
40.07
146.6
1081
322.8
126.7
15.94
16.27
0.02267
255.7
221.7
18.1
8.118
181
0.02175
81.42
64.14
0.02198
0.02097
1503
0.3063
7.762
100.9
0.01962
59.42
61.65
142.4
47.68
58.81
116.4
185.7
39.66
184.5
344.9
0.1887
0.04919
26.98
2.314
26.49
776.5
176.8
14.97
35.85
626.5
316.8
7.107
232.1
16.16
0.02298
0.02084
48.99
1.008e+04
0.02177
57.02
0.02962
47.39
2073
1.361e+04
20.16
108.6
38.08
3962
0.02076
957.4
32.76
0.02172
88
2582
21.49
0.02066
13.65
1188
0.1278
0.2072
0.02173
0.02239
1.014
0.02184
1.298e+04
243
0.183
200.7
45.13
0.02148
129.9
766.6
2674
646
494.7
111.7
0.02191
0.06715
3281
75.03
780.2
0.0218
152.2
0.02186
0.683
423.4
13.04
164.2
76.81
104.1
264.9
59.89
253.1
59.53
34.77
71.2
71.03
99.59
3053
35.32
382.5
132.8
80.37
0.02198
708.2
0.02197
47.18
163
253.5
3.85
0.03787
1427
0.08015
216.9
31.62
10.06
56.87
2.327
751.2
100.4
0.02174
16.31
36.78
0.1334
0.02038
0.1695
0.7782
20.39
0.7403
1.074
26.55
235.5
0.2449
788
0.04073
456
0.02008
384.8
229.3
336.1
265.2
0.02198
4.726
163.4
0.02202
20.1
66.82
111.5
14.54
16.59
0.6081
18.52
15.98
88.81
321.2
1036
218.2
1442
66.3
235.6
0.02169
161.7
282.2
13.74
11.31
437.4
35.24
892.5
104.7
364.3
0.01956
78.45
1191
291.4
2815
111
1.906
0.02171
45.87
0.02191
37.53
178.9
0.4427
2.905
2.006
147.9
288.6
0.3036
14.61
0.02141
392.9
0.02184
44.5
0.02224
1379
0.02188
4.622
0.03034
62.24
555.4
14.52
65.99
0.2884
11.12
3.12
13.06
332.3
0.0324
2.668
546.1
7.566
16.35
103.7
402.7
679.5
42.8
182.5
11.02
777.5
352.9
0.01961
0.1124
16.28
74.3
0.02199
304
489.5
26.92
1343
304.4
235.1
88.81
0.02041
15.37
175.5
0.1517
472.4
0.02147
30.36
91.4