/*--------------------------------*- C++ -*----------------------------------*\
| =========                 |                                                 |
| \\      /  F ield         | OpenFOAM: The Open Source CFD Toolbox           |
|  \\    /   O peration     | Version:  v2012                                 |
|   \\  /    A nd           | Website:  www.openfoam.com                      |
|    \\/     M anipulation  |                                                 |
\*---------------------------------------------------------------------------*/
FoamFile
{
    version     2.0;
    format      ascii;
    class       volVectorField;
    location    "5";
    object      U;
}
// * * * * * * * * * * * * * * * * * * * * * * * * * * * * * * * * * * * * * //

dimensions      [0 1 -1 0 0 0 0];


internalField   nonuniform List<vector> 
100503
(
(-0.000819 -0.00274 8.52e-22)
(0.001849 0.005598 6.609e-22)
(0.02588 -0.004127 3.783e-22)
(0.03781 -0.005204 -1.586e-21)
(0.001579 0.00493 6.937e-22)
(-0.0007915 -0.002457 0)
(0.02662 -0.0003245 1.833e-21)
(-0.08753 -0.01826 0)
(0.2286 0.1534 1.076e-20)
(0.01777 -0.009131 -1.611e-22)
(-0.2076 -0.01623 2.039e-21)
(0.1993 0.3952 5.341e-22)
(0.3688 0.6804 1.217e-21)
(0.3882 0.6913 -1.535e-21)
(0.1337 0.05688 -1.072e-20)
(0.4343 0.8347 -1.506e-21)
(0.584 1.065 5.043e-21)
(-0.1629 -0.009312 -8.052e-21)
(0.08053 -0.01503 -8.274e-22)
(0.3626 0.6757 -3.127e-21)
(-0.03088 -0.006635 6.017e-20)
(-0.03758 -0.005864 6.521e-20)
(-0.0009661 -0.002917 9.682e-22)
(0.2116 0.004514 -2.717e-22)
(0.07076 -0.01484 9.379e-22)
(-0.04965 -0.01136 -5.433e-20)
(-0.04093 -0.01669 -2.814e-20)
(0.21 -0.3028 0)
(0.8625 -0.2567 0)
(0.4236 -0.07699 0)
(-0.0003078 -0.000145 4.18e-22)
(0.5203 -0.3291 -5.677e-21)
(0.5209 -0.3297 2.841e-21)
(0.8252 -0.1775 4.99e-23)
(-0.237 0.06822 1.782e-20)
(0.8689 -0.3056 -1.854e-22)
(0.8265 -0.1784 -5.763e-21)
(-0.1942 0.1638 -3.44e-21)
(1.006 -0.001632 3.574e-20)
(0.871 -0.2588 -1.311e-24)
(1.026 -0.2112 1.235e-21)
(1.011 -0.005251 -1.029e-20)
(0.03427 -0.01601 -7.266e-22)
(0.8978 -0.2699 -1.165e-21)
(-0.1756 0.1765 0)
(-0.1935 0.03504 1.09e-21)
(0.8733 0.1825 -3.246e-20)
(-0.261 0.135 2.733e-21)
(1.084 -0.2329 0)
(0.2462 -0.2961 0)
(0.1046 -0.04468 0)
(0.8185 -0.2553 -2.933e-22)
(0.7258 -0.1893 -3.027e-20)
(0.62 -0.3346 -8.389e-21)
(0.8965 -0.269 1.337e-21)
(0.3646 0.05695 0)
(1.127 -0.2072 0)
(-0.1831 0.0228 -2.037e-21)
(0.8972 -0.3262 0)
(0.04499 -0.07024 1.061e-21)
(1.048 0.01026 1.178e-19)
(0.7993 0.09295 0)
(0.04145 -0.0219 0)
(0.6802 -0.233 9.353e-22)
(-0.1937 -0.0234 -7.644e-21)
(0.9629 -0.2776 -6.32e-23)
(0.9978 -0.009726 -5.24e-20)
(-0.02196 -0.00928 -8.628e-22)
(0.4809 0.9257 4.942e-22)
(0.6452 -0.3185 -4.324e-21)
(1.013 -0.2619 -6.804e-22)
(1.276 -0.1195 9.648e-21)
(-0.1052 0.05517 2.142e-21)
(0.3208 -0.3184 -1.251e-20)
(1.173 -0.235 -2.15e-21)
(1.073 -0.1933 0)
(-0.0515 0.01601 0)
(1.013 -0.004493 1.366e-20)
(0.994 -0.004297 -1.163e-20)
(0.6981 -0.2413 -3.087e-22)
(1.1 0.4743 1.11e-20)
(0.05668 -0.03345 9.531e-22)
(1.223 -0.2119 0)
(1.009 -0.005349 1.303e-20)
(-0.3218 0.1352 3.365e-21)
(0.9928 -0.002931 -4.253e-20)
(-0.19 0.05357 3.127e-21)
(-0.06183 0.01758 1.586e-21)
(0.6887 -0.2521 -1.233e-21)
(0.1686 -0.1667 -7.031e-21)
(0.7959 -0.2975 1.021e-21)
(-0.2195 0.1656 0)
(-0.1405 0.01815 1.059e-20)
(1.011 -0.003706 -3.98e-20)
(0.9931 -0.00183 -6.391e-22)
(1.047 -0.1807 0)
(-0.08472 0.03941 0)
(1.124 -0.207 0)
(1.013 -0.004113 1.003e-21)
(0.9935 -0.00393 1.06e-21)
(-0.09592 0.05218 1.114e-21)
(0.4154 -0.07511 7.83e-23)
(0.9566 -0.225 -5.812e-22)
(1.168 -0.1725 -2.524e-23)
(0.7215 -0.1849 -4.887e-22)
(0.9915 0.0231 1.983e-20)
(-0.1726 0.04307 -1.701e-20)
(0.6612 -0.1116 5.982e-22)
(1.012 -0.232 7.714e-21)
(1.026 -0.2177 2.933e-21)
(0.6914 -0.2519 0)
(-0.2412 0.06901 -1.523e-20)
(0.549 -0.3338 0)
(1.03 -0.2022 0)
(-0.2743 0.1051 0)
(-0.004059 0.0004719 0)
(-0.1967 0.03342 0)
(0.9366 -0.261 -5.651e-23)
(0.5627 -0.3234 -1.306e-20)
(1.094 -0.02159 0)
(-0.3293 0.1334 1.893e-21)
(1.247 -0.1184 1.278e-20)
(0.04621 -0.02443 -2.861e-21)
(0.5497 -0.3334 0)
(0.4714 -0.2993 1.378e-20)
(0.8543 -0.1569 -2.149e-21)
(1.173 -0.2355 2.153e-21)
(0.9292 -0.2655 -1.207e-20)
(0.9972 -0.2254 -6.861e-22)
(0.9434 -0.1659 -4.448e-21)
(0.7638 -0.302 -7.029e-21)
(1.124 0.2607 -3.79e-20)
(0.9977 -0.006907 3.524e-19)
(1.046 -0.00643 0)
(0.1733 -0.04285 -9.123e-22)
(1.098 -0.1847 3.651e-21)
(1.114 -0.192 -2.682e-21)
(1.104 -0.1782 0)
(-0.185 0.07852 -4.26e-21)
(1.076 -0.2002 -7.012e-21)
(1.043 0.0386 0)
(0.5889 0.09748 -2.457e-20)
(1.127 -0.2258 -4.93e-21)
(1.167 -0.1505 1.534e-23)
(0.0293 -0.02152 -3.26e-22)
(1.011 -0.1786 -2.11e-21)
(0.9767 0.163 -5.724e-20)
(1.16 -0.2215 2.469e-21)
(1 -0.1928 0)
(1.013 0.002831 -8.727e-20)
(-0.1677 0.03176 -6.709e-22)
(0.07222 0.05218 -1.998e-23)
(1.029 -0.001221 -1.466e-19)
(0.9915 -0.0092 -8.138e-21)
(0.9073 -0.2437 -4.301e-22)
(0.125 -0.03711 0)
(1.038 -0.08467 0)
(-0.1 0.04284 0)
(0.872 0.1715 0)
(0.9836 -0.157 0)
(0.9038 -0.1678 3.313e-23)
(-0.5282 0.02039 0)
(-0.005274 -0.02934 1.617e-21)
(0.9638 -0.2529 0)
(0.9616 -0.03693 -5.456e-20)
(0.2925 -0.06519 0)
(0.614 -0.3369 3.064e-21)
(1.03 -0.002541 1.28e-19)
(1.049 0.04028 1.409e-19)
(-0.1836 0.1629 -4.425e-21)
(1.025 -0.2669 -7.708e-22)
(-0.1572 0.08261 0)
(0.9526 -0.275 6.379e-23)
(0.5555 -0.3241 0)
(0.9912 0.005062 -1.895e-20)
(0.3997 -0.07639 -2.195e-21)
(1.083 -0.2329 0)
(0.994 -0.007923 1.469e-20)
(0.9425 -0.2715 -1.29e-21)
(1.071 -0.06963 -1.075e-19)
(0.8735 -0.3087 -2.47e-21)
(-0.2777 0.1201 -3.758e-21)
(1.034 -0.2871 -6.93e-22)
(0.8623 -0.2406 -6.412e-22)
(0.9408 -0.2712 0)
(1.161 -0.2214 -3.951e-21)
(0.9979 -0.006496 1.657e-19)
(0.08303 -0.04851 0)
(1.084 -0.1954 -1.343e-21)
(0.6663 -0.1125 -3.987e-22)
(0.8302 -0.2161 -2.695e-21)
(0.8744 -0.2585 5.595e-24)
(0.1098 -0.03597 0)
(0.9933 -0.001592 6.944e-20)
(-0.03781 0.009134 3.403e-21)
(1.224 -0.2108 0)
(1.045 -0.009132 -4.739e-20)
(-0.07176 0.3423 7.588e-21)
(1.086 0.0368 0)
(-0.2847 0.1932 2.833e-21)
(0.04704 -0.07117 1.24e-21)
(0.6935 -0.2329 -6.765e-22)
(0.6973 -0.2336 4.484e-22)
(0.8712 -0.3059 1.367e-22)
(0.3185 -0.2742 8.001e-21)
(0.02974 -0.02192 1.183e-21)
(0.7696 -0.3223 1.379e-20)
(1.005 -0.1936 0)
(0.7888 -0.302 0)
(0.9083 -0.2433 -4.382e-22)
(0.06402 -0.07143 2.939e-21)
(1.025 -0.1823 2.236e-21)
(0.2852 0.005509 0)
(-0.1957 0.03078 -3.629e-21)
(-0.2786 0.1203 3.536e-21)
(1.141 -0.2325 2.356e-21)
(0.8279 -0.3083 -7.284e-21)
(0.9926 0.0232 0)
(1.024 -0.2348 0)
(0.9713 -0.1859 -5.759e-22)
(-0.2072 0.1033 0)
(1.111 -0.2282 -4.139e-21)
(0.9689 0.01864 0)
(0.0585 -0.03422 4.132e-22)
(-0.01107 -0.02829 0)
(-0.1242 0.2864 -3.127e-21)
(0.1461 -0.1238 -1.539e-20)
(0.07743 -0.04005 -2.862e-22)
(0.9643 -0.2008 1.079e-21)
(1.001 0.002003 8.029e-22)
(0.8955 -0.2275 -1.581e-21)
(1.034 -0.2154 -2.348e-21)
(-0.1358 0.005213 0)
(-0.2523 0.1651 2.463e-21)
(1.221 -0.2107 8.24e-23)
(0.953 -0.2226 1.186e-21)
(0.6237 -0.2486 -1.742e-20)
(1.047 0.008017 -2.3e-19)
(-0.08963 -0.005573 -5.047e-21)
(-0.02281 0.004497 3.396e-22)
(0.692 -0.1213 1.886e-21)
(0.0534 -0.03401 -4.316e-22)
(0.8456 -0.3422 -1.111e-22)
(1.237 0.102 1.378e-20)
(0.9373 0.04547 -1.45e-20)
(0.995 -0.007469 1.89e-21)
(-0.3368 0.1455 -2.013e-21)
(0.9951 -0.004905 -2.409e-20)
(-0.07908 0.2298 -7.482e-21)
(0.1382 0.1495 -4.384e-20)
(0.9847 0.01297 -1.568e-20)
(0.03686 -0.01341 4.642e-21)
(0.996 0.01058 1.423e-20)
(1.124 -0.1699 2.633e-20)
(0.9856 -0.001119 -1.82e-20)
(-0.3481 0.1472 9.878e-22)
(1.188 -0.2057 2.704e-21)
(0.9847 0.7975 -5.21e-21)
(-0.2755 0.1046 4.225e-22)
(0.8889 -0.2834 0)
(0.6669 -0.1126 0)
(-0.004614 -0.03106 -1.679e-21)
(0.9916 -0.009717 0)
(1.08 -0.2129 4.709e-21)
(-0.1821 0.05234 -2.143e-20)
(-0.15 0.06116 -7.173e-21)
(1.145 -0.1904 1.145e-21)
(-0.1812 0.01651 -1.552e-20)
(0.9537 -0.03684 5.396e-20)
(0.9677 -0.215 7.517e-22)
(0.555 -0.3246 0)
(0.9787 -0.2428 -8.24e-22)
(0.9447 -0.2422 6.323e-22)
(1.099 -0.1849 -3.64e-21)
(0.617 -0.3259 3.204e-21)
(0.1486 -0.127 1.526e-20)
(0.9314 -0.2141 5.001e-22)
(0.9565 -0.05021 -5.121e-20)
(0.8748 -0.3409 -4.065e-21)
(-0.1441 0.04219 0)
(1.173 -0.1713 0)
(1.062 -0.2345 2.254e-21)
(1.031 -0.02553 -2.94e-20)
(1.112 -0.229 4.048e-21)
(0.1602 -0.04275 1.551e-21)
(0.9868 0.0503 3.052e-20)
(0.6157 -0.3237 0)
(1.026 -0.02464 3.038e-20)
(0.9982 -0.01336 -7.201e-20)
(0.9801 -0.1952 3.887e-21)
(-0.09322 0.05363 -5.278e-22)
(1.039 -0.1313 2.234e-20)
(1.047 0.04028 -1.117e-19)
(0.8244 -0.2986 4.364e-21)
(1.054 -0.1686 -9.942e-22)
(-0.0126 -0.02389 0)
(1.007 -0.1922 8.27e-21)
(0.9621 0.00576 3.28e-20)
(0.9806 -0.1997 -3.79e-22)
(-0.07407 0.02437 -7.694e-22)
(1.134 -0.2181 -1.633e-21)
(-0.1267 0.06145 1.231e-21)
(0.9991 0.006186 0)
(0.9727 -0.2534 2.005e-21)
(0.9553 -0.2674 -2.875e-22)
(0.02018 0.05835 -3.388e-21)
(0.617 -0.3377 0)
(1.106 -0.2134 -3.592e-21)
(1.001 0.001862 0)
(1.01 -0.002649 5.857e-20)
(0.8746 -0.3105 2.052e-21)
(1.012 -0.2315 0)
(-0.2262 -0.02591 8.92e-21)
(1.078 0.5241 -5.21e-24)
(1.082 0.0848 2.364e-20)
(0.8666 -0.2416 -8.764e-23)
(0.9597 -0.251 5.068e-22)
(1.037 -0.08221 0)
(0.9641 0.006056 -5.404e-20)
(-0.2329 0.1654 6.608e-22)
(1.066 -0.06989 1.077e-19)
(-0.2352 0.08021 0)
(0.6405 -0.3152 2.758e-21)
(0.9707 -0.2386 0)
(0.04009 -0.02145 0)
(0.9977 0.02155 3.146e-21)
(-0.1861 0.07846 3.529e-21)
(0.6249 -0.3362 1.461e-20)
(0.9826 -0.256 -4.167e-23)
(0.9147 -0.1529 7.77e-22)
(-0.2197 0.1661 6.825e-21)
(0.3517 -0.1801 2.429e-20)
(-0.1597 0.08846 9.207e-21)
(1.006 -0.008604 0)
(0.9128 -0.162 -2.832e-22)
(1.096 -0.1822 2.712e-20)
(1.088 0.1125 6.887e-20)
(1.013 0.00235 1.126e-19)
(0.9997 0.002244 -9.555e-21)
(1.22 -0.2003 0)
(0.9988 -0.0147 0)
(1.016 -0.01158 -5.306e-20)
(0.7123 -0.3427 1.415e-21)
(1.112 0.2589 1.374e-22)
(1.238 -0.2039 0)
(0.9958 -0.002823 0)
(-0.1171 0.0006153 4.27e-21)
(1.038 -0.2131 0)
(0.1187 -0.01428 1.421e-20)
(1.097 -0.194 8.428e-22)
(1.134 -0.2262 4.214e-21)
(1.094 -0.2033 8.178e-21)
(0.4456 -0.05872 2.169e-20)
(0.9353 -0.1901 0)
(1.025 -0.2304 -1.548e-22)
(1.006 -0.008206 0)
(0.9874 -0.008889 -9.038e-21)
(0.9969 0.02115 -1.744e-20)
(0.8109 -0.2557 3.941e-22)
(0.8949 -0.3045 1.382e-21)
(0.9801 -0.09194 0)
(0.8527 -0.3463 0)
(-0.008948 -0.01363 0)
(1.037 -0.1763 -8.295e-22)
(0.9865 -0.2384 -1.231e-21)
(1.043 0.1438 0)
(1.011 -0.1753 -2.323e-22)
(1.134 -0.1739 0)
(1.037 0.1432 0)
(1.004 0.003482 0)
(0.06431 -0.07109 -2.048e-21)
(0.7968 -0.2956 6.987e-21)
(0.03693 0.03533 4.008e-22)
(0.9941 -0.003029 7.321e-21)
(1.124 -0.2072 3.408e-21)
(0.1595 0.06006 0)
(1.02 -0.1996 -1.355e-21)
(0.9926 0.001825 3.433e-20)
(0.928 -0.2637 4.274e-21)
(-0.1521 0.05997 0)
(1.107 0.02219 3.016e-20)
(-0.3204 0.1342 0)
(0.9436 0.04057 -1.618e-20)
(1.049 -0.2056 0)
(-0.07 0.3378 -1.248e-21)
(1.001 -0.00254 0)
(0.7516 -0.3297 -1.041e-20)
(0.8948 -0.2708 4.957e-22)
(1.235 -0.2028 -1.012e-21)
(0.6165 -0.3261 -3.204e-21)
(0.9962 0.01049 0)
(0.0286 -0.03047 0)
(0.943 -0.1805 0)
(1.084 -0.2047 -3.328e-22)
(0.8256 -0.2986 -4.361e-21)
(1.147 -0.1403 -4.805e-21)
(0.002206 0.05597 0)
(1.002 -0.001518 -1.435e-19)
(0.387 0.2071 0)
(0.9047 0.1663 8.863e-20)
(1.103 -0.1767 6.537e-21)
(0.3691 -0.2408 3.01e-21)
(0.04125 -0.02513 -1.176e-21)
(-0.0828 0.02274 5.707e-22)
(1.112 -0.2213 -1.349e-21)
(0.8966 -0.1876 0)
(0.9746 0.07155 -9.018e-21)
(1.161 -0.1483 4.289e-21)
(-0.004755 0.0005888 -6.788e-22)
(1.046 0.1398 -2.185e-21)
(0.5532 -0.1526 2.145e-21)
(-0.006221 -0.01548 0)
(0.7228 -0.02276 -3.72e-20)
(1.1 0.3158 4.102e-20)
(1.098 0.5504 9.779e-21)
(0.9884 -0.01687 0)
(0.5222 -0.1133 5.33e-21)
(0.7865 -0.3585 0)
(0.9871 -0.009558 8.215e-21)
(-0.3524 0.1609 3.25e-21)
(0.9999 0.0002407 5.005e-20)
(-0.5957 0.0873 8.383e-21)
(1.173 0.1169 0)
(0.8892 -0.2841 2.005e-21)
(-0.2842 0.2103 0)
(1.095 -0.1416 5.19e-20)
(-0.2064 0.02941 -1.561e-21)
(0.3476 0.1029 -5.908e-21)
(1.063 -0.1997 0)
(0.8964 0.5458 0)
(0.06386 -0.03081 -3.793e-20)
(0.4391 0.1876 1.223e-19)
(1.072 -0.196 -2.344e-21)
(0.9829 0.02647 6.372e-20)
(0.9269 -0.1627 2.244e-21)
(0.9999 0.0001001 2.267e-20)
(-0.1004 0.02549 0)
(-0.0992 0.04159 -5.934e-22)
(0.999 -0.0001385 7.652e-20)
(0.1836 -0.03087 0)
(0.9702 -0.2147 9.112e-22)
(1.011 -0.2199 0)
(-0.3571 0.1581 -6.147e-21)
(0.4628 -0.0781 2.032e-21)
(1.057 -0.2651 2.81e-21)
(0.5083 0.6524 1.042e-21)
(-0.1901 0.07485 -7.217e-21)
(1.089 -0.2 2.826e-21)
(0.9982 -0.01302 0)
(-0.1291 0.06238 -7.332e-21)
(0.5829 -0.1392 0)
(0.2222 1.034 2.089e-22)
(-0.1797 0.01228 -1.435e-20)
(0.9991 -5.285e-05 8.248e-20)
(0.6012 -0.1035 2.191e-23)
(0.7869 -0.3006 2.74e-21)
(0.9866 -0.01787 -9.313e-20)
(0.9114 -0.2094 -1.046e-21)
(-0.2269 0.05407 0)
(1.108 -0.2091 0)
(1.12 -0.1961 -7.976e-22)
(1.004 0.003248 4.642e-20)
(1.102 0.622 -2.013e-21)
(0.9177 -0.161 -1.965e-21)
(0.9621 -0.01476 1.149e-20)
(0.9317 -0.1622 -1.507e-21)
(1.082 -0.2344 0)
(-0.3213 0.1343 -3.176e-21)
(0.9472 -0.2424 -2.44e-21)
(-0.09584 0.009278 -4.782e-21)
(-0.09675 0.03617 7.642e-22)
(1.071 -0.2101 -2.533e-21)
(-0.06212 -0.01105 1.673e-21)
(1.177 -0.1119 5.282e-20)
(0.9891 0.02114 8.456e-21)
(0.9626 -0.1685 1.481e-21)
(0.1918 -0.07225 0)
(1.062 -0.2687 2.804e-21)
(0.05738 -0.03447 -8.54e-22)
(1.111 -0.2211 2.708e-21)
(1.098 -0.1806 -1.323e-20)
(-0.2258 0.05203 0)
(0.9628 -0.2003 0)
(1.074 -0.1971 6.014e-21)
(1.032 -0.002178 -4.439e-21)
(0.9305 -0.2828 0)
(1.103 0.02257 -1.078e-20)
(1.003 -0.001132 -1.017e-19)
(0.9851 0.01214 1.04e-20)
(1.19 -0.2162 2.311e-21)
(1.029 -0.2312 1.387e-21)
(0.9715 -0.239 0)
(0.9914 0.00552 0)
(1.046 0.02719 -1.56e-20)
(1.177 -0.1818 -1.314e-20)
(1.077 -0.1805 -2.71e-22)
(1.035 -0.206 -1.129e-22)
(1.13 -0.1944 3.006e-21)
(-0.145 -0.2273 -1.787e-19)
(1.042 0.03691 1.29e-19)
(1.127 -0.1688 0)
(1.017 -0.01219 1.385e-20)
(1.217 -0.1977 0)
(0.09856 -0.0598 -5.09e-21)
(-0.3273 0.1326 -9.431e-22)
(1.095 -0.1431 -2.728e-20)
(1.037 -0.206 1.129e-22)
(0.8383 -0.2589 2.983e-22)
(0.9992 0.005985 0)
(-0.2266 0.08175 0)
(0.9978 -0.01487 -3.299e-21)
(0.9547 -0.3077 -6.009e-22)
(1.105 0.5552 2.596e-21)
(0.7878 -0.3587 -1.513e-21)
(0.9672 0.01963 4.279e-22)
(0.9863 -0.001083 -1.053e-20)
(0.8969 -0.2287 1.326e-21)
(0.07122 -0.05732 -9.806e-23)
(0.0445 -0.02397 1.622e-21)
(1.008 -0.2307 -6.764e-21)
(0.8303 -0.2115 0)
(0.4942 -0.06443 -2.701e-20)
(-0.3375 0.1457 3.208e-21)
(1.046 -0.1955 -3.707e-21)
(0.9931 -0.001835 1.402e-21)
(0.9703 -0.253 0)
(1.052 -0.2069 9.69e-22)
(0.9752 0.01135 1.54e-20)
(1.155 0.09799 0)
(-0.1415 0.01547 1.023e-20)
(0.128 -0.009856 1.356e-20)
(0.9059 -0.3296 0)
(-0.1132 0.05955 -1.937e-21)
(0.9814 -0.000409 6.611e-21)
(0.8393 0.09269 1.621e-20)
(-0.1836 0.02976 7.959e-21)
(0.9864 -0.3062 0)
(1.005 0.001801 -9.124e-21)
(0.9459 -0.2436 -7.871e-22)
(1.15 -0.1516 0)
(0.8147 -0.1363 -7.661e-22)
(1.127 -0.2262 -5.263e-22)
(-0.1875 0.0221 4.988e-22)
(0.7968 -0.2765 0)
(1.014 -0.2216 0)
(-0.1123 0.03031 0)
(0.996 0.02062 0)
(0.9442 -0.3178 1.043e-21)
(1.019 -0.188 2.238e-21)
(1.103 0.5421 -9.771e-21)
(0.7445 -0.1409 0)
(0.9247 0.9273 -6.735e-21)
(0.9978 -0.009878 4.837e-20)
(0.02684 -0.008263 0)
(-0.2401 0.08202 5.685e-22)
(-0.1042 0.1635 1.254e-21)
(-0.09964 0.04822 8.859e-22)
(-0.06304 0.02622 -6.67e-22)
(1.001 -0.2023 -2.719e-21)
(1.089 -0.1948 -1.574e-20)
(1.187 0.3164 0)
(0.9349 -0.231 0)
(1.147 -0.1391 0)
(-0.04979 0.01287 -4.576e-22)
(-0.3481 0.1472 0)
(0.9261 -0.2122 0)
(1.093 -0.1934 0)
(1.17 -0.1945 -7.744e-22)
(0.9864 0.01379 0)
(1.031 -0.001278 1.245e-21)
(1.016 -0.01315 -1.374e-20)
(-0.1002 0.02506 -4.695e-21)
(0.9999 -0.2039 0)
(1 -0.005284 5.118e-20)
(-0.5101 0.01526 2.984e-21)
(-0.1912 0.05213 -2.795e-21)
(0.9864 0.01425 -1.425e-20)
(0.7687 -0.3025 9.459e-22)
(0.03399 -0.0336 1.088e-21)
(0.9972 -0.006343 0)
(1.019 -0.284 6.82e-22)
(1.016 -0.005904 0)
(1.061 -0.0936 0)
(0.9344 0.1894 0)
(0.9963 -0.002663 1.009e-20)
(-0.1669 0.04058 -7.814e-21)
(0.06432 -0.03785 7.186e-22)
(0.8825 0.1724 -5.145e-20)
(0.9684 -0.005227 1.593e-21)
(0.9697 -0.2389 7.81e-22)
(0.02786 -0.03008 -4.942e-22)
(0.8386 0.1108 2.079e-21)
(-0.3573 0.1584 4.782e-21)
(0.6733 -0.1175 1.015e-21)
(0.1176 -0.1111 0)
(-0.1538 0.06335 0)
(1.129 -0.1717 -4.273e-21)
(0.9797 -0.2371 0)
(1.009 -0.004576 3.864e-20)
(-0.2532 0.0802 9.426e-21)
(1 -0.01099 -1.902e-19)
(1.181 -0.2042 0)
(-0.08234 0.037 1.743e-20)
(1.032 -0.213 0)
(0.9424 -0.302 1.368e-22)
(0.992 -0.2335 0)
(0.869 -0.3353 0)
(0.9975 -0.005617 2.332e-19)
(1.002 -0.002534 0)
(1.235 -0.1772 -2.602e-25)
(1.184 -0.1816 1.315e-20)
(0.9814 0.0003178 -1.127e-20)
(0.34 -0.2283 0)
(1.115 0.06954 4.623e-20)
(1.037 -0.2785 1.353e-21)
(1.128 0.01823 -6.222e-20)
(1.08 -0.2176 -1.343e-21)
(0.2921 -0.048 0)
(0.9307 -0.1743 3.483e-21)
(0.9928 -0.001709 1.673e-21)
(0.828 -0.2576 -1.204e-22)
(0.9659 0.8101 0)
(1.059 -0.2118 -4.889e-21)
(1.032 -0.2265 4.758e-21)
(1.024 -0.008914 -3.116e-21)
(-0.3446 0.1536 8.429e-22)
(-0.353 0.1556 0)
(-0.2399 0.05438 1.785e-21)
(1.048 -0.2054 -2.627e-21)
(-0.09778 0.1628 6.452e-21)
(0.1671 -0.158 5.62e-21)
(0.9973 -0.01187 -2.692e-20)
(-0.2259 0.08069 -4.891e-22)
(-0.347 0.1554 0)
(-0.1767 0.04477 1.419e-20)
(0.9952 -0.004824 1.208e-20)
(1.136 0.517 -3.38e-23)
(1.004 -0.001329 -2.471e-20)
(0.8953 -0.2499 -4.258e-22)
(-0.3297 0.1341 9.426e-22)
(0.9961 -0.005992 0)
(-0.09688 0.02316 0)
(1.022 -0.194 -3.103e-21)
(1.091 -0.2048 5.243e-21)
(0.4527 0.7275 2.585e-21)
(0.9422 -0.2332 8.18e-22)
(1.142 -0.2326 2.349e-21)
(1.243 -0.2031 0)
(0.9482 0.07894 -2.34e-20)
(1.121 -0.2059 -4.532e-21)
(0.07621 -0.002596 0)
(1.058 -0.217 6.814e-21)
(0.9864 0.04756 0)
(1.175 -0.1149 3.73e-21)
(1.109 -0.2373 -2.176e-21)
(0.999 -0.01164 0)
(-0.2148 0.1077 5.097e-21)
(0.9958 -0.005721 -1.153e-20)
(1.155 0.04658 0)
(-0.1472 0.0765 2.16e-21)
(0.996 -0.005718 0)
(0.9396 -0.01361 1.244e-20)
(0.9303 -0.2835 1.086e-21)
(0.02854 0.03866 1.023e-21)
(1.001 -0.005374 -1.262e-20)
(1.003 0.0006464 2.393e-19)
(-0.1429 0.03753 7.976e-21)
(1.082 0.08574 2.396e-20)
(1.084 0.1475 -2.595e-20)
(0.9163 -0.1741 -4.513e-22)
(1.046 0.7556 2.702e-21)
(1.121 -0.2021 -3.211e-22)
(0.8134 -0.09062 2.939e-23)
(1.08 -0.2125 0)
(1.017 -0.006056 -4.403e-22)
(-0.1043 0.04708 0)
(-0.02838 0.3517 7.223e-24)
(1.181 -0.01505 -1.55e-20)
(0.3108 -0.2405 1.938e-20)
(1.051 0.008064 -1.518e-19)
(0.9861 -0.0209 2.555e-20)
(-0.1915 0.1067 6.953e-22)
(1.051 -0.2154 0)
(1.134 -0.2082 -2.797e-21)
(0.8456 -0.287 -3.966e-21)
(-0.3071 0.1361 -4.269e-21)
(-0.2662 0.07867 -1.328e-20)
(0.9241 -0.2078 0)
(0.009562 -0.009446 0)
(-0.1004 0.02203 1.388e-21)
(0.9976 0.003005 -4.451e-20)
(0.8343 -0.2951 0)
(0.8292 -0.308 2.083e-21)
(0.8153 -0.1529 -4.541e-24)
(0.008264 0.02984 -4.451e-21)
(0.8724 -0.2758 -3.279e-22)
(0.7831 -0.1631 -6.274e-22)
(1.043 -0.009749 6.423e-20)
(0.996 -0.00359 -6.489e-20)
(0.4817 -0.1426 -3.081e-20)
(0.7736 -0.3268 0)
(0.551 -0.3173 0)
(0.964 -0.007751 -3.671e-21)
(0.8854 -0.28 3.179e-22)
(1.207 -0.1762 -5.23e-21)
(0.2875 0.8272 0)
(0.2657 0.9461 -1.761e-22)
(1.005 0.02778 7.459e-21)
(0.6423 0.9892 9.386e-22)
(-0.3531 0.1559 -8.405e-22)
(1.159 -0.2233 1.291e-21)
(-0.01022 -0.1171 8.179e-20)
(1.236 -0.1434 3.239e-21)
(1.005 0.01194 -3.587e-21)
(0.9769 -0.2385 0)
(-0.04516 0.01072 1.132e-21)
(0.01907 0.3448 -3.512e-21)
(1.001 0.001849 -1.219e-20)
(1.239 -0.2032 -5.272e-21)
(0.9986 -0.00814 9.451e-21)
(0.5258 -0.3285 -4.186e-21)
(0.6279 -0.2479 0)
(0.9998 0.002077 9.375e-22)
(0.929 -0.001732 -2.062e-21)
(1.016 0.004999 2.051e-21)
(0.9267 -0.1867 -1.141e-21)
(-0.04241 0.01404 8.358e-22)
(0.8876 -0.2437 0)
(0.7427 -0.09422 1.191e-19)
(1.136 -0.1904 5.376e-21)
(0.9934 -0.193 -4.837e-21)
(0.8741 -0.2311 8.339e-22)
(0.05512 -0.0294 -2.8e-21)
(0.8714 -0.3426 -3.051e-21)
(1.015 -0.00241 -6.088e-20)
(1.01 -0.01174 0)
(0.9977 -0.009766 0)
(-0.063 -0.01814 -3.198e-20)
(1.006 0.01053 0)
(1.043 -0.1859 -3.921e-21)
(0.7977 -0.1863 4.768e-20)
(1.004 -0.2444 -5.56e-21)
(0.9687 -0.2197 -6.597e-22)
(1.073 -0.2192 -2.607e-21)
(0.1027 -0.06091 -2.035e-24)
(0.7661 -0.3168 0)
(0.9121 -0.2709 -3.702e-22)
(0.4996 -0.09106 4.189e-21)
(-0.6565 0.05815 1.527e-21)
(0.9989 0.005287 1.458e-20)
(-0.1805 0.08191 -8.125e-21)
(0.9967 -0.2405 1.607e-21)
(1.03 -0.004107 5.999e-22)
(-0.1113 -0.03866 5.235e-21)
(-5.827e-05 -0.1227 -9.34e-21)
(0.7954 -0.2104 6.329e-23)
(-0.1269 0.03103 -5.729e-21)
(1.037 0.01132 -1.735e-19)
(0.7091 -0.3083 -1.799e-21)
(0.9346 -0.2505 0)
(1.121 -0.2008 -7.967e-22)
(1.23 -0.1887 -6.889e-21)
(0.3238 -0.1064 -2.189e-20)
(0.5728 -0.2601 0)
(-0.4843 0.01457 0)
(0.8369 -0.1943 0)
(0.6138 0.07964 0)
(1.252 -0.1681 0)
(0.9596 -0.1918 0)
(0.9357 -0.2362 0)
(-0.3153 0.1395 8.243e-21)
(-0.06294 -0.0489 -2.315e-21)
(0.06318 -0.07214 -8.211e-22)
(1.17 -0.1241 -2.026e-20)
(1.177 -0.1967 2.684e-21)
(1 0.01441 6.193e-21)
(0.9903 0.01181 -6.288e-20)
(1.021 -0.0353 5.511e-20)
(0.8694 -0.2399 0)
(0.7208 -0.3379 0)
(0.2775 0.1214 0)
(0.6043 0.09792 7.753e-22)
(1.033 -0.2259 -4.74e-21)
(1.027 -0.2152 3.326e-21)
(0.759 -0.29 0)
(0.9217 -0.2342 -7.169e-22)
(0.02133 -0.008811 0)
(-0.04712 0.01199 -6.081e-22)
(0.9864 -0.01893 -3.473e-20)
(1.006 0.0003238 3.059e-21)
(0.03631 -0.06763 3.566e-22)
(0.0249 -0.006999 -5.612e-20)
(0.9983 0.001806 2.696e-21)
(0.9174 -0.05753 6.443e-20)
(1.079 -0.2073 -1.404e-21)
(0.9411 0.02693 0)
(1.118 -0.229 -9.371e-22)
(-0.0113 0.004972 2.209e-20)
(0.2154 -0.05184 4.447e-21)
(1.018 -0.01088 0)
(-0.007857 -0.02349 6.028e-25)
(0.2994 -0.1716 -4.55e-21)
(-0.2461 0.09489 -7.156e-21)
(0.9642 -0.2642 4.475e-23)
(-0.1189 0.2869 3.038e-21)
(0.8493 -0.2452 0)
(-0.2269 0.1027 3.152e-21)
(1.015 -0.0031 3.205e-21)
(0.8681 -0.2356 -7.56e-22)
(0.8286 -0.2697 6.123e-21)
(0.9831 0.02556 -3.154e-20)
(0.2663 -0.244 -5.831e-22)
(1.007 0.01208 1.269e-21)
(0.9996 7.262e-05 7.565e-20)
(0.94 -0.2034 -2.34e-21)
(-0.1289 0.01464 -2.081e-21)
(1.084 0.2369 -3.093e-20)
(-0.006916 -0.08189 1.656e-20)
(1.014 -0.1536 0)
(0.9855 -0.02496 0)
(-0.1006 0.05139 -1.639e-21)
(1.173 -0.2119 -5.032e-21)
(1.047 0.00735 2.5e-21)
(0.5588 -0.2491 -2.821e-20)
(1.033 -0.2127 4.782e-21)
(1.024 -0.03637 -3.727e-20)
(-0.256 0.1171 2.232e-22)
(0.8085 -0.3129 -3.085e-21)
(0.5332 1.123 0)
(0.537 0.06478 0)
(0.9996 3.216e-05 -1.413e-19)
(0.1669 -0.03112 2.833e-22)
(1.004 0.007688 0)
(0.2669 -0.1854 -2.514e-20)
(-0.3126 0.1399 -5.183e-22)
(0.6826 0.1257 0)
(-0.1588 -0.014 -4.009e-20)
(1.006 -0.2012 9.603e-22)
(0.2443 0.08067 0)
(-0.3484 0.156 2.619e-21)
(-0.01416 0.002004 9.331e-21)
(0.4895 0.1772 9.26e-21)
(0.9324 -0.2151 -7.446e-22)
(1.065 0.6806 0)
(0.3061 0.004895 1.108e-22)
(0.6748 -0.211 1.707e-20)
(-0.2753 0.01265 8.15e-21)
(0.9962 0.007457 2.024e-20)
(-0.1771 -0.001999 0)
(0.9282 -0.2306 0)
(1.168 -0.2175 0)
(0.9292 -0.02009 4.509e-20)
(0.1068 0.258 0)
(1.013 -0.007492 1.265e-19)
(0.8477 -0.1516 5.845e-22)
(0.7772 -0.2363 -2.2e-23)
(-0.2084 0.0862 1.543e-21)
(1.187 -0.1991 -2.119e-21)
(0.9577 0.01548 -9.394e-21)
(1.188 -0.1486 0)
(0.8588 -0.2929 -9.506e-22)
(0.944 0.4506 -1.633e-21)
(0.0004597 0.006428 -2.967e-21)
(-0.2543 0.02889 0)
(0.05883 -0.04078 -1.51e-21)
(0.4473 -0.08337 1.43e-21)
(1.305 -0.0973 1.115e-20)
(0.9486 0.04557 5.127e-20)
(0.9901 -0.2185 0)
(1.09 -0.195 -1.437e-21)
(0.9559 0.02985 -3.801e-22)
(0.9383 0.03267 4.32e-21)
(1.08 -0.2319 -2.836e-21)
(0.9564 -0.244 1.483e-23)
(1.104 -0.1832 -7.6e-21)
(-0.2265 0.1219 8.854e-21)
(-0.3448 0.1551 1.103e-21)
(0.7381 -0.2375 -9.305e-21)
(0.9734 0.0277 0)
(0.9974 -0.002233 1.856e-19)
(1.156 -0.2009 -1.057e-22)
(1.224 -0.2089 -4.923e-21)
(0.5972 -0.335 -1.733e-21)
(1.038 -0.1289 -2.424e-21)
(1.039 -0.2264 0)
(1.016 -6.497e-05 -1.424e-20)
(1.003 0.01267 2.504e-21)
(0.9977 0.02281 0)
(0.03218 -0.01896 1.42e-21)
(-0.06588 0.02529 -1.165e-21)
(-0.09841 0.02402 1.426e-21)
(-0.1624 0.07289 0)
(0.9978 -0.2462 -2.148e-21)
(1.127 -0.1938 0)
(1.008 0.004405 0)
(0.3048 -0.07204 -4.379e-21)
(-0.211 0.04363 -1.752e-20)
(1.1 -0.1531 0)
(0.6075 -0.33 1.477e-21)
(1.008 -0.003827 -1.31e-19)
(1.048 -0.2268 0)
(1.009 0.005921 -1.194e-19)
(0.6497 -0.1359 -1.551e-21)
(0.9994 -0.01792 7.508e-21)
(0.9806 -0.08988 0)
(0.1976 -0.04862 -8.335e-21)
(-0.05661 0.02598 4.944e-22)
(0.4242 -0.0755 -2.402e-23)
(0.9015 -0.2523 4.674e-23)
(0.8731 -0.3431 1.51e-21)
(1.043 -0.2295 0)
(0.0206 -0.01604 -2.685e-21)
(-0.295 0.11 0)
(0.7328 -0.275 1.197e-20)
(0.9814 0.1816 0)
(1.045 0.009579 6.299e-20)
(0.89 -0.237 3.797e-22)
(0.9345 -0.2387 0)
(1.005 -0.1918 0)
(-0.0929 0.03308 -7.185e-22)
(1.156 -0.2293 0)
(0.884 -0.1642 -2.602e-21)
(0.02329 -0.01457 -5.701e-20)
(1.025 -0.009298 0)
(0.8721 0.2198 0)
(0.8489 -0.3518 1.114e-21)
(0.9921 -0.0001425 4.088e-20)
(1.035 -0.2258 -2.958e-21)
(0.4167 -0.09005 0)
(0.9324 -0.2095 0)
(0.9369 -0.2998 1.016e-21)
(1.137 -0.208 2.82e-21)
(1.019 -0.007655 6.53e-20)
(0.7173 -0.1312 1.258e-21)
(-0.01815 -0.1351 0)
(-0.3233 0.1495 0)
(1.005 -0.001963 3.838e-20)
(-0.114 -0.004382 0)
(1.095 -0.2084 4.123e-21)
(0.2343 -0.02472 -5.825e-21)
(0.03729 -0.02098 1.325e-25)
(0.9582 -0.2238 4.301e-21)
(-0.321 0.161 -1.619e-24)
(0.7371 -0.1348 -1.012e-21)
(1.19 -0.1932 0)
(0.4691 -0.09677 -2.178e-21)
(1.068 -0.1819 -4e-21)
(0.8717 -0.1831 -2.98e-20)
(0.0448 -0.08789 -1.054e-21)
(0.9814 -0.00152 0)
(1.014 0.003617 -2.622e-20)
(1.016 -0.002564 2.717e-20)
(0.02677 0.0263 9.022e-22)
(-0.0381 0.01115 -1.751e-21)
(-0.2832 0.09783 4.259e-21)
(1.159 -0.1328 1.957e-21)
(-0.2275 0.1035 7.995e-21)
(0.9754 -0.3089 2.329e-23)
(1.106 -0.1818 -2.316e-20)
(-0.1959 0.07715 -7.615e-21)
(-0.3465 0.1549 -5.115e-21)
(0.8534 -0.1447 8.447e-22)
(-0.1675 0.07837 1.751e-21)
(0.01673 -0.00837 0)
(-0.3579 0.1587 -2.911e-21)
(-0.03828 0.01763 0)
(0.3352 -0.1205 0)
(0.9596 -0.0501 1.355e-20)
(0.9879 -0.2503 -9.875e-22)
(1.003 0.02243 -2.732e-21)
(0.006412 -0.01352 0)
(0.11 -0.09101 -1.93e-22)
(1.037 -0.2557 1.524e-21)
(0.06609 -0.05365 -6.078e-22)
(1.171 -0.1402 0)
(-0.3105 0.1356 0)
(0.8669 0.2547 -5.549e-20)
(-0.3138 0.1612 0)
(-0.2165 -0.03856 -1.037e-20)
(0.608 -0.3367 2.365e-21)
(0.9966 0.008822 -1.387e-20)
(0.9241 -0.2056 -3.673e-21)
(1.099 -0.2114 6.855e-21)
(0.05211 -0.07184 -2.892e-22)
(1.152 -0.2229 5.842e-21)
(0.7176 -0.3465 1.599e-21)
(-0.3309 0.1605 0)
(1.185 -0.211 6.156e-22)
(-0.193 0.002199 0)
(1.001 0.006408 3.557e-21)
(0.2599 -0.2394 -1.46e-22)
(-0.3485 0.1515 4.747e-21)
(1.016 -0.04766 9.699e-21)
(-0.3199 0.1333 -1.632e-21)
(0.9578 -0.3149 1.268e-21)
(-0.2124 0.07322 -2.069e-21)
(0.976 -0.008386 0)
(1.025 -0.005522 0)
(1.002 -0.0009029 0)
(-0.2069 0.06156 -3.588e-20)
(0.01017 -0.00983 0)
(0.7786 -0.2812 1.445e-21)
(-0.4697 0.01653 -7.601e-21)
(0.9932 -0.2351 2.339e-21)
(1.302 -0.09446 -1.726e-20)
(-0.2509 0.1651 -4.806e-21)
(1.184 -0.0967 -2.538e-20)
(0.8085 -0.2107 5.393e-22)
(1.022 -0.1965 0)
(1.005 -0.1767 -1.047e-21)
(0.2404 -0.04256 5.832e-21)
(0.9977 -0.02187 -8.728e-22)
(0.7053 -0.3322 6.52e-22)
(1.119 -0.255 -6.036e-21)
(-0.262 -0.04409 -8.057e-21)
(0.9995 -0.01002 2.514e-21)
(0.5768 -0.05349 4.729e-20)
(1.167 -0.2156 2.222e-21)
(0.6746 -0.3142 4.766e-22)
(-0.1448 0.06562 0)
(0.9985 -0.0005368 0)
(1.012 0.00713 7.671e-20)
(0.137 -0.1116 -7.224e-23)
(0.9317 -0.1384 0)
(1.144 -0.223 0)
(1.022 -0.2228 -9.686e-22)
(1.036 -0.278 -1.356e-21)
(1.05 -0.2229 2.244e-21)
(-0.01869 -0.2107 0)
(0.2392 -0.09112 -3.577e-23)
(0.9974 0.001275 -4.696e-20)
(1.09 -0.2308 5.042e-23)
(0.0737 -0.03041 0)
(0.9944 -0.007757 -3.601e-21)
(1.011 -0.02386 7.857e-21)
(1.094 -0.2263 -3.409e-23)
(1.039 0.1347 0)
(-0.09035 0.03114 0)
(-0.1994 0.08739 0)
(0.9992 -0.2418 0)
(0.4092 -0.0713 -7.218e-22)
(0.9417 -0.284 0)
(-0.2848 0.1519 2.573e-22)
(0.9738 0.182 2.404e-21)
(-0.3094 0.1377 -9.8e-21)
(1.013 -0.2365 -1.164e-21)
(1.12 -0.1745 6.503e-21)
(0.8781 -0.3377 -8.397e-22)
(0.6742 -0.3132 0)
(-0.2826 0.1787 0)
(-0.2365 0.09107 -3.207e-21)
(-0.1119 0.02477 2.332e-21)
(1.002 0.001582 0)
(1.031 -0.00374 2.845e-21)
(0.9872 -0.00199 0)
(1.141 -0.2196 -1.312e-21)
(-0.1818 -0.07507 0)
(-0.04757 -0.03024 -2.655e-20)
(0.9049 0.02809 -1.882e-19)
(0.9791 -0.2402 5.99e-22)
(1.003 0.006867 -1.385e-20)
(0.9232 -0.2335 3.799e-22)
(1.112 0.1084 -1.423e-20)
(1.086 -0.2622 1.011e-21)
(0.9899 -0.2286 1.807e-21)
(0.8661 -0.3354 3.131e-21)
(1.02 0.06479 -5.749e-20)
(1.022 0.1124 -3.945e-20)
(1.119 -0.1464 -3.492e-20)
(0.8419 -0.08652 -4.46e-20)
(0.8781 -0.2576 0)
(1.152 -0.1449 2.425e-22)
(1.033 -0.2156 3.76e-21)
(1.144 -0.2158 0)
(1.059 0.09083 0)
(-0.2805 0.1216 -3.516e-21)
(1.168 -0.1956 0)
(-0.3537 0.16 -9.999e-22)
(0.07637 0.8275 -2.089e-21)
(0.9954 -0.0009558 2.394e-20)
(0.8541 -0.2831 0)
(-0.3921 0.06594 -4.695e-20)
(0.3583 -0.1883 -2.613e-21)
(1.024 -0.2352 0)
(0.1147 -0.06085 0)
(1.044 -0.1858 3.959e-21)
(-0.002749 -0.05103 0)
(-0.2199 0.1055 0)
(1.002 -0.2424 -8.929e-22)
(0.9518 -0.2524 1.702e-21)
(0.999 0.00133 -1.234e-19)
(1.157 0.1578 3.151e-20)
(0.7081 -0.3347 -6.516e-22)
(1.122 -0.2275 2.008e-21)
(1.001 0.0007543 -8.167e-20)
(1.086 -0.1939 1.643e-20)
(-0.05634 0.01561 -2.049e-22)
(-0.006767 0.00346 0)
(1.197 -0.1166 9.557e-21)
(-0.1101 0.05593 -6.468e-22)
(1.024 0.1887 1.193e-20)
(1.039 -0.2354 -1.36e-21)
(1.122 -0.1773 0)
(1.31 -0.05841 1.989e-20)
(1.04 0.7182 5.564e-21)
(-0.111 0.02817 0)
(-0.09903 0.2346 6.789e-21)
(0.9938 -0.2076 4.337e-21)
(1.01 -0.01582 1.896e-20)
(-0.2576 -0.04551 -8.495e-22)
(0.9926 0.001455 3.535e-20)
(0.9966 -0.04036 -3.023e-22)
(-0.00811 -0.0175 5.686e-22)
(0.757 -0.2869 0)
(0.5064 -0.08542 -3.467e-23)
(1.062 -0.005238 -4.195e-20)
(0.6901 -0.3377 -2.44e-21)
(1.228 -0.1318 1.93e-20)
(1.019 -0.001404 -2.491e-20)
(-0.3447 0.1604 2.612e-21)
(1.07 -0.2541 3.146e-21)
(1.008 -0.00435 0)
(1.046 -0.04807 -2.923e-20)
(-0.009515 -0.02703 1.194e-21)
(-0.1694 0.07645 1.564e-20)
(0.8928 -0.1348 2.421e-21)
(1.141 -0.1582 -2.354e-21)
(1.011 -0.1872 0)
(0.9746 -0.02299 2.145e-20)
(-0.2867 -0.04 0)
(1.249 0.08978 7.101e-22)
(-0.3337 0.1613 -2.346e-21)
(-0.1153 0.01779 -3.274e-21)
(0.9035 -0.2805 0)
(0.9981 -6.797e-05 0)
(-0.06381 0.01955 8.516e-22)
(0.9667 -0.1269 -7.91e-21)
(-0.0005482 0.007305 0)
(1.081 -0.109 0)
(0.9663 -0.2189 -8.395e-22)
(-0.1419 0.2211 3.882e-23)
(0.4885 -0.1304 -3.448e-20)
(1.01 -0.003165 -2.307e-21)
(1.014 -0.04475 -8.734e-21)
(1.067 -0.1844 0)
(0.9352 -0.276 4.219e-21)
(0.9049 -0.1619 0)
(0.9865 -0.1866 -6.495e-22)
(1.025 -0.08799 1.461e-20)
(1.034 -0.1855 0)
(1.01 0.008608 1.537e-21)