/*--------------------------------*- C++ -*----------------------------------*\
  =========                 |
  \\      /  F ield         | OpenFOAM: The Open Source CFD Toolbox
   \\    /   O peration     | Website:  https://openfoam.org
    \\  /    A nd           | Version:  8
     \\/     M anipulation  |
\*---------------------------------------------------------------------------*/
FoamFile
{
    version     2.0;
    format      ascii;
    class       volScalarField;
    location    "5";
    object      epsilon;
}
// * * * * * * * * * * * * * * * * * * * * * * * * * * * * * * * * * * * * * //

dimensions      [0 2 -3 0 0 0 0];

internalField   nonuniform List<scalar> 
127143
(
302.9
351.6
460.6
399.6
283
416.1
335
339.6
380.9
113.3
492.4
418.8
983.2
409.9
16.5
22.88
204.6
0.2241
0.5622
35
1.298
46.27
0.2665
2.156
46.82
6.939
18.55
18.95
21.47
0.1572
2.923
7.236
44.54
6.887
0.1213
44.37
2.111
0.964
1.834
6.931
0.5604
1.504
1.282
460.2
0.2213
6.594
20.6
1.308
2.711
1.931
20.02
0.03103
2.151
0.4391
0.00545
4.945
0.005274
0.3655
0.01621
0.4333
1.345
0.7164
1.133
0.09658
5.902
0.8864
0.1236
1.216
1.193
0.0008454
2.357
16.51
0.6893
0.01606
0.02703
16.75
0.01933
1.669
4.812
0.1318
22.39
32.78
4.268
5.349
1.255
1.541
1.641
22.21
0.8507
12.38
0.02024
0.3665
9.634
1.289
2.552
0.175
1.424
3.455
1.276
0.1202
0.1332
2.584
27
0.6708
1.498
1.305
1.586
0.0008526
1.856
0.01756
15.41
21.86
1.725
6.126
0.02062
0.7212
0.02015
0.02703
0.01909
53.11
0.01674
4.027
3.101
0.2953
20.94
8.173
0.8693
0.02082
2.571
5.642
1.89
2.281
0.9326
1.643
70.21
1.846
0.07967
1.144
18.74
0.07965
0.3817
0.01849
1.911
1.073
2.123
4.35
72.48
0.1068
2.343
32.21
0.7325
2.694
0.9257
0.2849
7.131
1.23
0.3642
7.491
1.29
3.671
2.389
84.92
0.02077
1.885
7.772
5.382
2.314
1.321
14.5
0.03175
8.459
1.07
0.8114
1.831
0.004162
2.947
4.402
2.563
1.998
0.03085
1.832
0.05204
3.034
2.925
5.466
0.7018
0.3687
5.904
2.026
0.03652
2.765
3.53
0.07638
11.95
90.49
0.8703
0.112
0.112
85.49
0.01845
0.01694
0.03309
0.0757
2.021
338.4
1.408
0.1326
1.117
0.1519
0.0208
0.1992
1.565
0.01575
14.29
2.306
72.38
12.16
1.214
1.774
0.131
4.068
0.02934
2.775
1.973
4.073
8.301
6.555
0.9486
4.958
1.052
1.36
0.05074
0.6631
99.67
1.348
0.2006
1.882
127.2
0.01685
2.543
3.435
4.927
1.901
7.274
1.459
50.28
2.231
18.39
69.36
0.001517
2.128
5.104
1.503
1.232
3.701
1.892
0.02056
13.62
1.296
0.2016
0.8775
0.03747
0.3576
0.01844
1.667
5.132
3.131
8.757
1.648
0.9982
5.321
0.004057
1.164
2.585
0.9405
2.702
1.703
2.211
0.007404
1.491
0.002672
0.1798
0.6546
0.02251
0.02037
81.72
1.962
0.02026
2.186
0.03168
0.8976
0.4942
0.1989
0.9242
0.01566
2.254
2.664
5.675
1.897
0.9697
3.55
0.7319
0.901
0.7
4.274
4.651
1.097
0.01579
0.5269
0.876
1.671
11.28
5.017
0.002751
0.01976
7.94
1.135
3.529
0.3035
0.03195
0.2558
2.592
0.03472
1.509
8.11
1.494
0.0593
2.9
2.713
4.387
0.8862
0.02036
0.1175
0.1016
0.1016
0.271
1.851
0.8016
0.8889
2.074
0.07643
1.216
2.025
2.615
4.982
2.236
3.203
2.174
3.507
2.897
3.245
0.4863
2.833
2.664
0.04047
2.955
1.24
3.774
0.0139
2.826
1.041
1.078
0.2727
1.937
1.893
0.04061
0.01854
0.01851
5.609
0.00752
2.472
0.03508
4.307
1.998
0.03449
0.1703
2.515
139.7
1.21
0.008009
0.3747
7.069
3.301
0.7563
0.01983
12.16
0.08263
6.426
0.8965
0.6048
0.01469
0.7487
6.267
3.85
2.049
2.866
0.7501
2.721
0.04035
0.03593
4.975
0.03008
1.346
2.924
0.08375
0.8784
1.42
0.9679
0.1375
1.888
3.031
4.06
0.373
1.192
2.962
2.506
1.438
5.956
1.132
5.683
2.244
12.82
2.569
0.001558
1.072
0.2486
1.177
0.3004
4.613
0.1692
0.05469
2.553
3.008
0.2381
1.691
0.04021
1.057
3.146
0.03002
0.01554
0.02274
1.827
0.0822
1.985
0.02321
3.286
0.0185
7.87
0.01896
1.561
1.257
2.886
0.8337
6.933
0.08966
1.963
3.911
4.385
1.761
0.9804
0.8986
2.026
0.6825
4.455
2.078
0.003738
0.0177
1.73
3.314
0.03254
1.136
0.3899
0.2911
1.105
0.1062
0.006161
7.407
0.3783
5.018
1.748
21.63
7.67
5.632
4.967
2.673
1.652
1.612
0.01565
3.302
0.01876
6.75
1.558
2.224
4.274
186.2
2.035
3.958
0.1931
3.97
0.01708
21.78
0.01768
2.177
0.8475
152.8
50.05
131.4
0.0708
2.897
3.106
0.01998
0.9302
3.402
1.979
0.7861
1.284
2.951
1.13
12.93
0.003701
1.761
62.28
6.411
3.225
7.882
0.01566
0.7137
0.07338
0.6673
0.01554
3.738
26.84
5.857
0.04396
1.731
0.2308
11.58
2.939
20.26
0.5802
0.01923
3.556
2.471
0.03635
0.7516
1.053
2.505
1.883
3.508
4.695
0.8788
1.228
4.959
1.964
2.457
0.01574
5.82
1.765
4.274
1.079
1.68
0.08464
0.06711
0.185
3.295
4.478
0.01924
0.001729
2.06
8.335
1.445
2.708
5.915
10.05
0.9603
0.01839
0.03762
5.559
1.244
1.794
0.004255
16.1
0.9421
2.344
0.007721
4.924
0.01914
1.373
2.506
0.5623
0.001673
3.328
0.8756
38.35
0.00644
1.532
12.02
0.02218
0.8689
0.01963
1.567
1.626
0.02265
3.843
2.817
9.064
3.531
1.76
3.101
3.194
6.399
1.742
9.066
1.867
2.888
1.88
3.756
0.004253
4.225
0.021
4.637
0.02148
1.863
0.04646
0.02031
0.3834
5.595
1.532
0.003621
0.007892
4.702
18.7
3.747
3.251
0.9364
1.961
1.251
3.106
2.581
2.895
6.365
0.003625
3.799
2.517
0.561
0.7469
0.02099
0.001736
1.455
16.33
1.611
21.46
0.0212
0.001069
2.11
3.782
0.03162
6.249
0.3088
0.07222
3.562
1.216
2.462
0.3841
373.4
7.839
1.73
1.97
1.939
4.386
4.378
5.711
0.02732
2.482
5.726
1.319
0.01078
2.105
0.7961
0.9187
0.04477
0.01011
16.65
0.1935
3.395
3.85
5.396
0.5298
0.7458
3.687
0.4015
3.909
0.01568
0.00775
2.46
0.2457
5.17
0.8909
12.23
0.8941
6.902
0.1918
0.267
0.001062
3.349
0.1074
3.705
74.4
1.201
1.621
1.178
0.001529
1.181
1.901
16.76
0.3944
0.8292
2.58
29.02
1.453
6.682
0.6418
3.385
1.284
0.8548
0.8544
0.4967
186
0.8126
0.03097
2.108
4.169
1.567
0.01483
3.921
0.4784
1.426
0.0009631
21.95
2.442
5.009
0.001021
6.01
2.661
3.806
3.151
0.001119
1.222
8.374
3.76
1.293
0.01824
2.009
10.62
0.01562
1.176
0.7651
4.234
2.018
0.7072
1.227
6.852
2.899
0.01878
1.23
0.7712
5.265
3.768
0.4526
0.9149
4.439
0.02555
1.918
3.531
1.773
93.59
1.753
5.675
1.829
1.855
1.036
0.07265
373.2
1.872
3.416
7.301
1.561
3.187
2.362
2.202
0.04012
0.4558
0.7047
0.0009681
2.553
6.655
1.604
2.928
0.02833
1.218
3.057
0.01578
0.02042
0.7451
0.7356
0.9356
3.252
1.369
31.2
0.8059
0.7256
0.01086
1.519
2.192
2.767
3.88
1.264
0.002349
0.01524
0.07387
17.4
0.0116
0.1745
14.57
1.29
6.61
0.004729
2.028
1.268
0.02649
3.446
0.06854
4.812
35.84
4.81
1.423
8.598
0.0191
3.67
0.4427
3.578
7.281
4.583
37.9
0.4481
0.6385
1.596
22.09
0.02418
0.6895
5.582
9.462
5.818
12.69
0.002334
0.134
5.624
9.889
23.72
3.902
236.7
6.766
83.99
2.16
6.63
0.4471
10.14
0.01939
1.708
0.001815
0.001775
1.997
0.02639
3.184
0.4638
5.903
0.4793
0.05009
9.372
2.25
0.01447
0.3784
1.946
0.04733
4.141
40.43
2.234
1.252
15.33
0.9091
3.762
0.01892
2.183
3.644
0.01344
3.562
1.767
0.6738
0.02619
0.03133
0.3523
46.72
1.8
40.75
1.12
3.383
1.964
14.32
4.1
0.002247
17.78
0.9501
0.002241
2.07
66.19
0.4552
6.865
0.6188
0.7489
19.23
28.24
2.27
0.01831
0.0286
1.18
2.56
2.309
3.735
8.414
14.53
1.13
0.2078
14.72
0.08842
10.9
0.01691
1.311
10.68
1.374
2.485
1.249
0.02424
0.01739
6.232
0.4579
3.198
2.495
4.27
1.137
1.484
3.334
3.544
23.65
2.206
3.058
3.806
0.8566
1.019
11.41
3.057
13.89
42.38
1.274
0.01505
0.01066
1.128
1.74
0.6039
0.1799
3.248
1.258
0.3919
3.723
1.413
3.12
2.918
0.1382
0.492
0.3687
17.45
4.233
2.859
0.9349
0.6256
6.109
2.108
0.8583
0.8064
3.742
1.683
2.315
15.45
0.01683
13.19
16.22
0.7575
3.494
16.69
0.01901
25.19
27.82
0.002569
0.1533
2.342
1.449
63.04
6.284
1.655
6.233
3.702
0.5033
0.4747
0.02341
3.969
1.144
3.056
0.9445
12.17
1.724
0.003655
20.45
3.024
0.0297
5.447
0.002314
0.01712
1.039
0.2812
24.12
0.01726
3.432
0.02718
7.318
0.2362
0.365
0.7178
4.054
2.925
3.787
1.07
0.007061
0.05995
1.392
2.366
3.286
3.301
7.693
3.932
28.12
3.657
4.259
6.149
2.506
6.379
0.6631
0.4283
0.01476
4.042
4.32
5.418
0.0007553
9.324
0.989
1.291
2.565
2.787
0.5492
5.232
0.7242
1.281
3.875
5.485
7.442
0.003288
0.7957
4.317
0.0176
2.975
5.519
0.2081
0.9367
5.02
0.06071
0.659
0.8916
2.478
0.3567
0.1056
2.632
2.621
0.01377
0.4792
0.04329
1.247
2.809
1.003
0.0445
8.642
34.76
4.073
2.549
0.9914
10.14
0.000846
1.718
0.02345
1.565
3.072
3.519
2.583
10.85
16.22
0.04512
83.24
5.173
4.501
1.076
12.67
0.7534
0.3847
4.573
1.442
0.06308
49.56
1.988
2.165
5.158
2.17
6.174
2.681
8.718
1.723
2.152
1.432
2.916
2.334
0.4622
36.57
0.2118
2.207
0.2241
3.899
0.1056
0.02167
1.305
11.68
1.33
0.03744
28.76
5.163
0.0257
18.3
1.627
1.444
25.48
1.246
2.383
276.9
0.3777
10.58
0.9691
1.424
10.56
2.642
3.655
2.71
5.075
0.1464
0.2334
1.01
2.266
1.326
1.322
0.9418
21.66
1.278
0.4236
1.224
1.556
0.6977
0.9991
35.9
0.08094
15.23
6.029
2.535
1.883
0.02679
0.8672
2.886
0.7203
7.268
5.311
4.221
0.01807
3.453
8.426
1.655
21.64
1.986
0.4907
4.612
0.01615
5.111
2.202
23.5
2.938
0.0698
1.065
0.01635
54.01
27.07
1.818
0.6228
1.338
0.002925
0.04599
5.045
1.755
0.6261
0.1676
0.0007014
0.000703
3.793
1.518
0.578
4.099
2.28
20.1
0.9269
4.476
2.781
2.839
0.05513
2.861
0.9534
2.07
23.53
1.038
0.6742
2.159
1.06
1.672
77.37
0.3588
1.702
0.982
0.6912
0.5773
2.393
70.6
0.2758
8.67
0.008281
2.188
15.46
0.06453
27.95
1.306
2.041
3.296
0.01162
1.048
26.47
0.01896
1.9
3.769
1.292
28.66
0.6706
0.633
6.168
8.176
1.94
4.506
0.1851
2.254
12.15
46.11
4.158
1.879
0.02192
3.256
0.4948
3.632
9.678
0.7748
1.912
0.01149
0.7092
2.855
0.01476
0.8865
0.002535
26.15
0.9224
11.56
2.69
1.918
9.156
1.615
1.689
4.878
91.6
1.889
2.458
1.83
1.443
1.146
0.08411
2.837
0.01794
0.9351
0.05473
1.159
0.01474
4.198
2.575
0.1778
0.01541
6.975
0.2427
4.459
0.2709
0.1978
2.636
1.534
0.05687
143.1
7.146
40.87
2.009
1.041
2.422
2.19
2.772
0.2409
6.339
2.034
5.453
5.364
3.194
1.845
0.5601
0.01762
88.83
1.715
14.74
0.02486
22.61
4.951
2.721
3.038
0.01962
0.01816
0.1964
0.3624
0.08466
0.8018
1.332
0.7498
1.737
0.03868
0.7066
8.919
2.158
0.1755
1.36
0.5753
6.358
4.019
1.795
2.666
1.147
0.01626
4.274
4.162
11.35
2.07
0.06255
2.049
0.02077
1.699
2.927
6.888
0.2186
0.03718
1.563
2.632
22.84
26.64
0.6113
1.857
4.936
0.1856
0.01027
20.23
3.219
32.51
0.1547
40.75
2.621
0.01397
3.403
8.697
0.7989
0.4314
1.09
5.741
1.379
2.332
0.7704
11.98
0.09935
7.456
4.816
3.181
0.001212
0.00118
2.6
2.263
88.33
5.291
3.509
3.661
85.76
0.01886
3.397
0.02448
0.01733
0.01393
1.253
0.004792
44.89
0.0229
27.9
0.5968
3.675
2.63
3.05
0.001087
40.54
0.3027
15.56
1.198
13.16
0.0155
2.896
4.072
1.116
21.7
8.466
1.432
18.73
27.56
0.1053
0.01032
11.93
0.00064
0.1978
0.5556
14.04
0.006699
5.226
0.02963
2.404
1.522
0.9901
12.49
0.005102
1.318
3.792
2.217
0.1991
0.8786
0.4885
0.02068
0.09324
2.44
121.4
1.843
1.56
0.02242
19.76
0.4938
0.2521
0.0007814
1.316
2.473
2.849
0.02424
5.583
0.01862
2.708
0.1056
1.165
4.217
2.555
5.455
5.192
2.47
0.007808
1.748
4.625
3.558
22.97
4.71
0.5839
0.05983
1.995
73.02
1.93
8.624
23.6
0.001117
0.3101
0.01518
2.8
2.528
2.075
0.02734
6.564
0.02857
0.3233
2.51
0.009107
0.5416
0.3399
3.444
1.064
0.02187
2.334
0.03856
4.083
15.91
0.8545
0.5824
2.106
0.0428
1.315
2.769
15.49
4.091
2.371
3.517
2.692
3.114
25.44
0.1076
0.3802
4.267
0.06884
2.332
1.311
0.3968
1.365
0.02371
0.009238
10.75
0.3531
1.287
2.374
23.28
2.08
11.09
0.5672
0.0186
11.44
2.026
0.2228
2.528
0.04042
1.781
0.1442
0.7889
8.879
0.9966
3.003
1.657
2.032
0.03595
1.363
0.9922
2.583
9.639
0.0288
1.32
5.724
0.01644
0.02745
3.177
0.0008727
1.821
1.104
0.9796
3.506
0.5637
1.626
0.003225
0.555
3.549
0.003401
0.5461
11.16
25.5
0.1727
3.388
7.959
0.5511
5.842
0.8355
1.664
25.08
0.00083
0.001406
3.488
0.02521
9.13
3.23
1.608
5.751
3.709
0.02721
3.456
41.29
586
4.189
3.638
2.919
0.4367
1.252
0.7413
1.853
4.788
4.643
5.846
5.404
16.76
1.34
0.5914
0.01846
17.71
0.5211
1.583
0.631
0.08909
2.139
4.266
0.4821
0.1661
4.826
4.737
1.267
4.83
1.094
23.65
3.07
0.03171
2.877
17.45
1.43
1.716
22.19
0.01734
19.33
16.22
1.841
0.001792
1.385
0.9791
3.43
5.343
1.299
4.006
0.003542
2.324
2.203
0.135
1.126
0.01444
2.727
23.44
1.559
4.33
63.06
1.555
12.73
0.00151
21.28
2.09
0.8436
0.06644
0.4624
0.9181
1.424
1.429
0.001482
1.953
28.17
47.45
2.166
0.8058
0.8076
1.288
0.01804
0.02891
2.367
0.4943
0.01586
1.313
1.507
2.226
3.468
1.173
3.205
1.235
27.22
28.05
27.63
0.2146
1.721
26.89
0.8119
10.45
0.4054
0.8882
0.6689
60.89
0.5154
0.7613
0.0008848
0.08314
5.293
2.424
0.0199
0.04582
0.9737
4.967
1.382
1.823
10.43
5.005
0.02823
3.701
0.8807
2.788
6.158
0.3819
0.08024
2.122
2.018
0.572
3.96
0.03501
8.657
0.7007
4.227
0.256
2.34
8.678
0.939
3.76
1.228
4.796
1.559
11.19
0.3451
0.9208
1.808
1.421
4.661
2.953
37.12
4.12
0.01479
3.401
0.4009
3.902
1.571
0.003996
0.7913
0.2129
14.05
0.001056
2.705
2.243
2.485
1.025
1.342
0.2053
27.06
0.3607
0.02472
5.429
0.04258
1.364
0.05546
0.577
0.8327
0.08388
0.4157
1.884
9.343
0.02384
0.01996
0.9542
0.8442
4.341
0.05485
1.725
2.357
5.782
2.743
0.3645
2.333
1.281
0.1631
1.435
13.52
0.6965
20.56
2.481
0.7513
24.19
0.01988
0.007798
1.467
0.4614
83.41
0.02605
0.7291
4.94
106.5
3.657
4.169
0.007613
0.007603
2.515
3.125
2.637
6.674
0.06189
0.511
0.5908
0.1344
3.712
2.557
1.531
2.291
5.568
0.1692
1.329
0.116
0.8318
3.307
4.835
4.892
1.998
26.38
5.862
2.823
1.41
4.281
2.13
0.1871
3.373
11.75
0.001652
0.001641
3.485
3.072
7.847
1.757
8.017
4.322
0.00438
0.02046
2.586
0.0994
1.402
19.69
4.445
0.3042
2.065
0.117
26.47
8.083
0.001243
0.8734
0.9308
1.576
1.767
3.705
2.144
3.276
1.971
1.746
0.8607
0.9231
11.06
2.135
1.785
4.087
48.35
3.013
5.329
4.603
4.65
1.837
1.239
13.17
0.4726
3.468
0.01769
1.239
0.09004
1.782
0.6698
12.56
2.757
0.2933
6.003
77.15
4.173
1.792
1.371
3.548
12.77
0.003908
1.818
0.8545
45.53
2.186
1.709
0.2732
0.4951
0.02103
1.394
46.52
0.8003
11.01
1.051
0.1894
9.654
0.1162
1.548
0.5037
1.231
10.52
0.296
1.03
0.7026
0.08373
5.499
0.9491
29.93
6.185
1.321
0.01054
1.864
0.9668
10.67
11.51
0.9499
0.5706
3.112
0.0185
2.97
8.161
2.37
3.474
2.008
12.88
3.211
6.082
4.717
0.5206
3.157
19.15
0.4225
0.16
33.07
0.00078
0.3771
0.01934
0.04948
4.276
0.01628
5.501
2.202
0.4838
1.393
3.453
10.21
2.266
11.87
2.188
1.362
72.02
1.454
2.028
0.03069
49.82
0.8818
12.77
11.28
0.0009027
4.883
3.129
0.7578
1.001
13.53
10.53
5.724
1.274
1.514
0.03095
0.5038
0.06797
0.7516
0.9852
6.052
1.533
1.858
10.6
1.014
0.01514
4.614
1.594
0.5106
1.133
1.632
10.05
3.581
11.27
11.53
3.319
1.896
6.819
1.974
3.211
0.2712
54.41
5.372
1.409
1.754
0.01239
3.212
4.171
1.256
0.7636
12.2
5.036
5.366
0.6968
2.582
20.17
0.01528
21.78
0.7226
0.06927
1.99
4.9
0.015
2.915
0.9991
1.631
35.1
1.872
3.708
70.75
1.552
1.916
0.1914
0.1914
1.774
1.446
1.44
6.31
1.4
0.0198
13.39
4.834
2.456
0.01673
0.01522
2.313
0.9508
1.792
167.6
4.793
0.007353
2.875
24.52
0.2467
3.698
2.151
0.002352
0.6176
5.874
0.3459
2.116
0.02071
0.01012
0.01439
0.004337
0.1344
2.183
1.253
7.784
0.7918
3.799
1.465
7.536
0.004341
2.054
1.898
12.33
7.255
12.44
5.033
1.223
2.425
2.129
1.519
0.1012
1.432
105.3
2.867
6.446
1.229
5.083
0.02053
50.26
1.96
3.173
0.644
0.05645
36.82
0.0266
2.158
6.989
0.005387
4.063
2.195
1.057
3.095
12.54
0.08754
4.308
0.004019
2.129
0.9713
3.246
1.161
4.017
0.01243
0.01596
0.3689
7.232
4.91
0.1639
1.128
3.219
0.7664
19.93
2.551
0.6101
0.8483
2.085
1.845
0.295
18.02
1.136
0.02087
20.21
0.01884
0.01524
0.3331
0.001483
23.36
1.066
4.011
1.436
2.909
0.0332
0.1765
4.558
2.086
1.108
0.002225
0.4797
68.21
11.37
0.09195
14.79
12.81
26.01
0.001207
0.5803
0.8973
0.2142
0.0207
0.5381
5.259
54.1
0.3197
3.231
92.94
0.02123
2.916
8.859
1.369
0.02627
3.524
55.16
18.47
29.96
0.4206
1.419
13.89
0.0678
2.14
0.01616
1.096
7.578
0.5426
3.411
29.17
0.2541
4.357
4.081
0.1686
0.03459
2.56
5.107
0.4511
15.18
3.798
0.5755
0.9013
2.157
4.031
1.886
0.02151
1.975
2.369
2.09
3.579
4.962
2.524
11.36
34.15
41.44
50.18
2.651
0.1052
8.863
0.02651
4.107
10.74
0.02185
159.8
0.1308
2.831
18.64
5.232
2.875
7.473
4.164
7.252
0.01591
158.8
1.807
0.000688
0.8612
2.937
53.87
11.33
46.84
0.8533
3.667
31.78
1.118
0.2737
1.394
15.54
0.008339
1.811
1.23
4.284
1.029
2.037
0.5763
6.387
1.693
2.344
14.67
0.02317
5.64
0.3012
1.339
3.117
0.02504
0.1857
1.237
6.205
5.694
33.43
0.0006528
0.01628
0.6706
2.242
12.89
1.603
0.5717
0.00573
0.03682
4.587
0.005737
3.334
3.571
0.1834
2.356
2.244
16.77
31.98
20.71
0.06675
2.855
2.288
4.238
0.513
0.6707
15.55
1.077
6.26
2.309
11.09
1.724
0.9469
29.91
2.042
1.167
2.034
0.0008535
1.307
0.1738
0.01804
1.102
14.48
1.842
3.717
0.9761
43.87
75.63
0.888
120.6
0.004328
0.3393
0.05589
0.08975
2.256
0.127
7.037
28.48
3.728
8.428
0.4574
1.529
3.822
1.983
0.9391
5.672
1.351
18.86
3.836
0.001973
2.838
1.156
0.05959
0.04684
4.252
0.03067
3.545
2.601
2.308
1.022
5.435
0.001093
0.3333
0.08054
4.353
24.51
8.048
1.354
0.01421
5.74
0.01279
0.3187
2.534
0.5909
21.04
2.487
3.091
0.5858
19.02
0.9153
0.003876
1.236
3.393
0.0448
0.8576
0.03165
3.342
5.546
5.794
2.023
0.006746
3.97
2.245
2.756
42.94
3.648
7.743
0.01967
0.4791
0.769
0.9716
5.95
0.8091
0.1825
1.295
0.2845
4.467
2.687
0.003979
0.1642
0.01698
0.04948
0.688
11.01
3.659
0.01831
1.981
3.109
1.643
0.06912
1.454
0.1935
4.592
0.002863
123.5
1.393
4.868
0.0009464
0.1625
27.83
0.03879
1.495
2.437
3.491
2.962
2.894
0.0269
1.985
4.163
1.814
2.201
2.507
0.6894
1.438
1.786
10.98
0.01278
1.108
1.29
15.66
0.498
0.07641
4.873
10.34
1.226
1.244
0.8865
9.135
0.07159
0.8192
6.002
0.9429
4.109
1.094
0.002094
2.785
23.93
0.6986
3.943
11.45
1.622
1.182
0.01921
0.0368
0.215
0.001109
52.92
2.286
0.0447
0.01826
1.215
32.74
0.04133
1.333
14.28
1.575
1.194
4.383
17.37
3.958
3.985
3.269
32.08
7.34
0.01795
1.737
1.56
2.117
0.02331
0.3078
2.639
1.641
3.509
32.76
14.87
0.3285
4.03
31.4
0.6325
7.284
1.274
0.9411
0.6317
6.232
12.95
0.01854
3.901
1.285
0.04319
10.89
1.079
1.859
0.1572
1.838
3.598
3.006
2.866
0.01449
0.01863
0.3544
3.967
0.1716
0.8436
0.02652
10.94
0.7824
1.071
2.464
4.836
0.4242
1.822
0.01044
27.91
1.96
24.32
2.671
0.1594
7.523
1.035
3.922
25.6
0.5667
25.31
0.1012
0.1028
1.425
0.1292
0.01791
54.08
1.667
4.072
7.744
1.296
1.543
0.001591
50.39
0.06366
1.874
0.1632
0.3618
2.397
1.721
1.683
1.885
0.7367
5.535
0.008274
1.703
9.226
23.73
11.9
0.2186
2.347
0.8133
0.1648
5.869
3.064
0.1424
0.06875
3.415
25.99
0.003118
0.01256
0.8323
7.945
0.9419
15.5
0.1397
11.16
2.218
1.338
0.07034
0.2033
3.53
3.162
5.847
1.274
5.046
0.09959
4.67
0.001514
4.857
33.21
0.06275
3.162
0.8495
17.73
17.85
6.334
0.1586
0.01041
3.221
0.3506
0.0168
5.856
4.4
0.6611
0.1567
0.17
0.1546
0.03236
6.295
1.869
0.02015
9.315
1.952
7.138
0.03323
0.03843
0.01585
0.07802
1.355
0.4802
3.006
23.41
13.43
1.821
28.45
8.255
0.02439
25.53
3.536
7.776
0.7334
0.3268
0.76
13.81
8.002
8.801
3.561
0.07391
1.381
4.779
1.225
1.292
0.3004
3.615
0.3276
3.604
0.001239
1.522
1.283
0.9431
0.6765
7.054
64.53
17.31
0.01045
74.9
1.579
0.1716
5.623
0.02908
5.988
2.29
0.00787
4.443
5.727
0.2052
1.004
0.5422
7.696
0.01895
0.5554
12.2
0.6156
0.01656
4.795
1.587
0.05083
0.5224
0.508
1.668
15.68
3.097
3.691
0.7536
7.505
1.546
0.0192
0.06579
6.162
1.283
2.077
0.06824
43.84
1.736
0.8973
4.083
1.526
3.008
0.03427
0.122
3.649
2.434
0.09413
1.72
3.802
0.5684
1.862
2.272
0.7726
0.09108
0.6902
0.9351
1.207
1.168
0.06471
5.136
0.003395
1.665
0.9956
0.5025
9.261
1.844
32.46
0.7898
0.6319
0.0177
0.007497
0.7409
0.8602
5.176
8.314
2.582
2.972
11.9
1.969
0.8285
3.656
2.653
8.536
2.588
0.07345
5.114
0.7527
3.703
0.7547
0.7844
1.953
1.835
0.03875
3.622
0.2556
0.02206
0.2161
5.112
0.02126
122.4
3.593
5.335
0.01778
1.907
2.77
0.001048
2.021
2.33
9.204
3.598
6.939
0.03385
3.012
0.1179
0.4978
4.019
8.76
1
2.797
127.2
0.007435
0.02524
1.508
2.383
4.571
0.5355
2.565
3.585
0.7022
1.123
0.01788
7.053
4.435
0.2305
1.418
0.01652
2.415
0.1568
1.832
2.79
2.09
0.01699
14.1
1.339
0.02635
3.723
3.91
0.2051
0.01127
0.01536
2.954
25.97
1.015
0.5077
1.942
0.1482
1.71
1.174
0.01347
0.7423
0.6886
23.12
12.05
5.608
0.01219
2.729
1.394
7.284
5.955
13.58
1.36
2.148
1.7
1.401
3.146
5.361
0.3211
0.001146
0.4722
0.05434
28.68
0.01869
1.178
2.751
1.1
1.128
7.887
2.132
26.09
0.9287
17.04
1.388
0.5926
4.632
22.67
1.468
27.07
22.15
0.0217
26.83
6.888
5.601
7.677
1.941
0.4547
3.366
1.235
1.097
0.08019
1.095
1.081
2.814
1.818
1.858
1.005
0.4829
0.3208
27.41
2.292
36.63
1.276
2.752
0.006121
4.718
1.967
7.44
0.9162
11.39
3.777
2.04
0.2161
9.751
0.2054
1.232
1.486
0.1153
0.5257
1.267
1.073
3.311
3.3
0.7145
1.905
1.64
11.71
1.057
51.59
0.08455
0.7893
2.999
0.6624
0.08366
8.205
0.02004
0.01609
0.02109
1.79
1.524
6.427
0.1775
0.3841
1.806
0.1015
57.26
6.226
27.11
1.802
0.1424
3.187
27.17
0.1403
5.91
0.03228
1.82
0.6629
4.55
0.4925
0.01101
0.00979
2.48
0.7423
0.08665
27.44
1.688
0.05489
0.02649
1.08
0.05525
4.239
7.398
0.00536
1.255
4.243
6.162
4.44
28.29
2.768
0.2602
0.9407
2.058
0.4091
4.53
1.946
1.408
3.537
2.195
129.9
0.02851
2.027
19.18
14.32
0.04005
1.501
0.02229
0.8122
0.6421
2.082
1.99
2.032
7.525
0.3303
3.966
14.29
4.235
5.144
3.163
1.772
0.625
1.343
4.989
1.525
3.513
0.003108
28.24
11.57
4.173
0.9074
1.123
7.444
2.716
0.5116
0.1088
86.13
2.49
0.0008011
0.001408
0.003244
2.271
8.932
0.5511
28.48
1.088
0.001113
1.914
1.363
0.7724
2.684
106.1
6.594
2.5
7.918
1.648
2.033
12.47
1.869
1.115
0.7165
4.237
1.548
0.5004
1.867
2.846
0.3454
1.426
1.503
0.5728
27.93
4.9
0.06156
7.968
0.7464
17.26
5.782
0.009002
0.2441
3.339
0.03691
1.525
9.874
5.703
0.6991
0.01491
0.3374
0.9412
1.104
0.0988
2.668
0.009926
2.691
1.386
3.698
4.95
3.587
3.682
3.081
7.722
0.7962
1.197
0.02784
30.39
0.07347
0.001406
4.586
0.01826
3.498
0.9002
105.5
0.0448
2.131
3.423
2.477
2.611
0.2236
1.864
1.722
2.67
4.877
1.607
0.16
0.01693
3.505
4.188
0.1765
2.213
5.38
10.48
1.928
0.007801
2.21
2.769
42.71
1.387
1.943
1.738
1.995
0.01995
0.7086
32.12
3.828
0.04669
0.3581
5.573
0.1026
1.444
4.566
1.932
0.04694
0.05296
0.6158
0.01889
0.01319
0.02444
0.6706
19.11
4.099
0.3292
1.525
0.6076
0.2272
0.1591
1.142
1.673
0.09309
0.05652
3.835
0.2615
0.0295
6.437
1.794
0.5648
26.5
14.23
0.02808
3.146
0.8457
3.333
1.777
9.287
0.1633
1.455
28.16
1.008
7.745
0.4216
4.933
1.765
1.899
0.8436
20
0.1332
26.89
2.575
0.03247
0.04536
0.004203
3.345
1.358
12.71
4.638
31.12
0.1779
0.01057
2.465
2.127
0.3057
0.01742
3.384
0.7816
5.598
1.781
14.51
4.767
3.036
2.67
1.831
0.1028
19.85
2.468
1.818
0.9083
0.1332
0.01671
1.522
0.9834
3.117
11.92
1.032
0.05975
2.073
0.2156
0.2328
0.01796
6.883
1.616
10.21
3.88
1.469
0.6487
1.97
1.332
0.5876
1.518
0.4513
0.3046
0.042
3.1
19.94
0.3534
0.8513
27.27
0.007098
0.02121
0.613
0.0401
0.0571
4.109
0.0653
0.0652
1.33
0.01301
1.627
23.53
2.526
0.5448
0.322
0.03388
0.05188
0.8203
1.825
3.129
20.69
1.101
0.005191
0.8766
1.355
5.004
0.2107
0.04712
0.07396
4.087
0.12
0.0708
3.003
2.096
0.139
0.04063
3.768
0.01193
0.02999
0.01231
59.48
0.1507
5.056
0.8153
0.03943
0.1566
0.625
1.585
3.573
1.604
1.181
1.049
0.106
24.76
1.127
2.133
0.0374
4.934
3.451
2.141
5.175
0.4355
3.498
0.8474
0.3297
12.07
0.06592
170.2
1.283
21.45
0.103
4.388
0.01975
0.109
0.8365
15.05
1.19
5.455
0.4636
0.001526
20.42
0.001511
8.072
29.29
0.5451
0.4499
0.00219
7.394
0.01777
0.5545
1.353
1.063
1.365
0.01697
33.03
0.05343
4.003
4.403
1.662
5.371
21.62
1.533
11.77
1.271
0.02069
1.171
2.092
0.02037
0.08351
5.808
0.9004
29.05
2.871
5.85
0.02647
1.055
0.0255
0.01638
0.04167
4.839
0.2961
0.5808
0.001179
1.689
0.4533
3.768
1.921
16.01
0.02506
3.21
5.322
1.509
0.3122
1.612
0.03329
1.184
0.007065
2.15
1.796
0.02564
1.841
44.67
4.335
5.026
1.375
12.94
5.392
0.8413
3.35
9.705
1.141
41.17
3.642
1.402
3.681
2.401
1.584
8.492
2.68
0.004067
2.366
0.002798
3.752
20.95
1.401
10.64
12.2
1.041
4.203
0.001269
2.047
1.605
38.08
0.877
0.0147
1.287
1.753
1.693
0.001245
1.672
1.702
1.436
0.5491
5.447
3.328
22.11
3.095
2.957
1.706
1.531
5.426
0.02799
5.422
2.436
0.0219
2.303
2.21
3.462
4.219
3.757
0.05825
7.219
4.925
0.1838
1.838
6.315
51.25
3.838
0.004944
0.001935
1.141
3.525
1.199
0.01252
3.883
3.782
4.371
14.04
0.00782
1.847
6.704
1.949
46.36
2.18
2.433
1.152
1.756
1.104
0.02156
2.012
19.64
1.656
2.028
0.539
1.515
0.01112
0.003182
3.587
2.776
1.404
5.398
2.34
0.01617
10.96
3.915
0.3611
3.557
35.66
17.9
0.001188
0.3186
0.02787
1.595
9.556
4.16
5.847
2.497
3.272
0.02846
3.752
0.05594
0.7882
16.38
0.6334
27.96
1.667
29.82
0.07182
1.973
4.902
0.01753
1.534
2.817
5.374
0.9006
0.03781
0.01631
0.004171
1.564
0.01608
0.923
20.49
0.4357
1.22
3.523
0.08997
1.335
0.9735
0.004078
7.597
2.724
12.05
2.006
0.0173
6.113
5.684
0.02077
7.812
0.6028
3.237
1.082
14.77
0.7364
5.213
1.168
0.8892
0.04181
0.9466
0.04364
0.1329
6.045
1.433
1.321
1.129
0.8757
2.673
0.019
0.06056
0.1458
2.881
1.784
1.679
54.33
0.3826
0.03989
5.612
0.2765
3.593
0.01169
5.234
3.398
1.441
1.144
3.349
1.974
3.038
1.354
1.395
0.02157
2.326
1.322
1.384
7.585
23.28
3.662
0.07423
2.317
1.399
1.11
82.41
0.01612
3.99
1.432
1.769
2.383
1.395
70.69
2.174
6.3
3.022
24.93
0.8591
0.4467
10
2.063
0.02313
2.121
1.224
2.958
2.257
1.405
4.034
0.001342
5.543
5.794
4.362
1.332
5.41
4.705
0.02043
3.336
1.905
2.174
0.4296
0.05043
2.192
1.856
1.63
3.36
0.01023
5.209
0.9336
0.6778
3.028
1.996
3.485
1.722
3.533
3.953
0.006751
3.314
1.935
11.89
3.389
7.654
1.05
1.352
1.835
0.6006
1.734
4.572
27.66
4.604
6.313
41.94
1.051
0.2329
227.3
3.128
5.361
0.001194
6.703
11.9
2.859
1.135
0.01925
2.119
0.02487
1.172
3.196
0.9172
1.511
1.201
4.168
0.784
69.87
1.054
2.457
5.983
11.91
2.997
2.269
1.243
0.3663
11.18
1.056
33.06
3.138
0.6979
0.04644
12.95
0.4533
0.05709
0.01867
0.8798
1.461
0.06051
0.006689
0.01801
6.224
4.526
34.11
0.08114
0.002035
1.3
0.006382
0.004845
3.956
0.0007867
1.415
9.486
0.1033
7.659
1.145
3.333
0.5825
1.827
0.1313
3.487
1.33
108.7
1.673
5.145
6.71
4.841
0.3403
0.002036
0.8715
4.451
0.01905
0.4445
2.888
4.262
23.47
5.505
1.67
4.248
0.02227
3.729
12.52
1.964
1.345
2.238
0.0006373
1.105
1.081
9.118
1.631
1.842
0.00156
4.827
5.222
0.001307
1.366
0.0006075
2.502
0.02704
21.54
25.88
0.0386
5.62
1.799
0.2585
10.27
3.024
0.018
14.38
2.863
1.805
8.69
0.07075
0.2376
27.16
1.157
4.877
0.5059
1.32
0.5518
0.7722
1.622
0.00124
0.68
3.835
2.738
1.583
1.14
2.502
0.7836
2.781
4.02
2.067
0.632
3.224
0.03123
0.3717
6.706
1.437
0.04389
0.5944
1.204
2.382
1.576
1.422
6.689
0.4231
5.513
1.185
0.004356
2.477
3.337
0.3531
3.686
0.08018
5.688
0.8001
0.6528
0.1818
0.8801
5.183
2.989
0.231
2.256
10.25
2.946
0.01123
0.01557
0.8979
4.004
5.675
0.9639
1.027
1.02
5.369
0.373
0.4563
36.93
0.5829
0.424
18.74
4.321
1.016
1.129
0.06007
139.8
0.01666
1.564
1.8
3.917
3.34
4.465
27.56
0.7372
1.523
0.273
81.43
3.082
1.04
80.14
12.79
3.6
2.116
0.003311
0.4073
0.2459
5.04
0.04084
3.75
37.47
0.1314
1.877
0.7574
1.197
8.984
2.988
24.96
8.736
1.798
0.007566
0.007636
0.0247
5.229
18.38
0.5273
0.0161
0.1623
10.31
1.327
26.65
3.088
0.01639
98.85
0.05109
0.5418
0.8785
0.06931
1.064
0.4459
0.5504
0.1411
5.881
1.315
1.351
1.376
65.94
0.9712
5.918
2.017
0.9443
0.09464
51.56
3.503
7.16
3.326
6.999
5.696
4.571
0.1853
2.032
2.273
2.052
3.985
0.002269
13.53
1.815
7.803
0.6787
0.07354
0.1541
0.01561
2.245
1.747
2.879
5.54
0.9005
7.618
1.934
1.707
0.5893
4.527
0.2851
6.347
2.214
1.911
0.5094
0.1374
0.8061
0.4901
1.403
0.4206
2.659
2.397
7.309
1.006
0.8611
4.342
0.7068
6.065
2.265
1.326
0.235
39.23
4.386
3.082
2.143
10.03
0.06246
15.08
3.858
1.356
2.462
3.563
1.855
4.091
1.204
2.352
3.026
4.827
30.01
0.003261
0.03233
0.01393
1.5
3.259
0.9041
32.04
4.236
10.8
11.32
1.588
5.684
28.55
0.6915
3.152
4.355
1.939
22.15
0.01728
10.36
5.07
5.262
0.08595
4.851
1.447
1.959
3.228
2.962
0.01608
0.2054
1.981
11.32
0.005307
3.206
0.3835
0.7326
294.4
0.001312
0.8441
0.9277
2.171
2.615
0.4596
1.738
2.196
3.242
5.31
3.26
0.04421
1.283
167.1
0.02907
0.01915
13.46
8.957
1.966
6.261
0.1411
1.73
2.917
1.822
3.78
1.778
0.03665
2.054
0.633
0.3467
0.01395
2.842
0.006828
84.88
2.121
1.989
0.597
25.22
0.01624
5.578
0.005195
0.1048
5.842
0.5275
12.86
0.6979
0.1207
1.966
4.85
1.432
1.147
1.665
3.018
4.209
4.776
3.396
9.739
13.34
7.94
1.271
2.76
6.47
2.11
0.7918
0.1713
0.008629
36.39
1.43
4.448
25.4
0.01741
5.587
0.3824
0.008345
1.397
86.2
0.5287
2.914
25.9
0.06422
4.736
3.292
1.234
0.8752
1.553
20.05
4.225
0.02224
25.96
26.98
0.1634
0.02099
8.165
5.209
5.363
3.922
1.743
6.41
0.01737
3.499
0.1588
5.191
3.759
26.14
0.008321
0.00841
0.3503
1.777
0.05826
1.522
0.6001
4.22
1.49
2.918
3.026
0.1531
0.02871
23.07
27.32
5.916
4.845
0.08079
4.964
0.002852
1.568
13.74
7.185
8.87
6.746
2.954
3.109
1.604
1.797
1.677
0.02903
0.01746
0.01996
0.9975
2.304
5.404
20.46
2.298
0.02339
5.611
6.164
4.587
18.03
1.6
6.944
6.499
4.578
0.161
0.817
0.6684
2.271
0.1764
5.221
1.683
1.12
1.981
4.824
0.00526
0.01524
30.28
1.022
1.004
1.837
65.17
1.477
0.005058
3.108
1.498
1.77
1.023
2.339
6.013
2.005
5.982
0.3394
0.0006176
1.672
0.1154
0.2331
0.1817
11.37
0.7726
4.476
1.353
1.063
2.894
0.03958
3.313
3.429
0.7956
2.205
2.38
36.06
0.05359
0.02165
3.609
2.552
1.741
1.633
0.3223
8.871
0.09703
0.0292
1.427
11.42
0.0257
1.814
2.04
0.01355
28.43
0.08093
2.889
1.372
3.921
0.5256
14.52
13.42
0.8145
0.06605
0.01633
1.295
1.059
2.606
1.248
0.008074
0.007154
0.02048
4.441
1.763
3.551
0.0007335
3.954
2.043
3.183
1.332
5.948
0.3355
0.05497
7.704
0.01801
9.406
2.703
0.05031
1.736
3.33
7.883
2.736
2.98
1.117
0.8488
0.001661
19.09
7.858
14.67
0.3345
0.9967
0.01572
21.36
0.01454
5.198
5.768
0.01731
0.5174
1.27
3.904
0.001142
1.239
53.81
1.697
0.01848
1.251
4.764
0.5261
2.198
1.185
1.652
22.38
0.7451
0.005017
0.02323
46.54
1.036
3.398
0.498
1.325
0.007521
0.04385
0.7947
75.96
5.694
3.545
3.481
0.5715
2.502
14.21
4.827
3.405
0.03521
4.977
0.5297
3.746
1.305
1.223
0.01722
3.607
1.099
22.5
82.57
0.7757
0.8183
0.4875
9.102
0.003204
0.7231
14.74
4.878
3.087
10.08
18.67
5.056
1.806
0.4073
5.985
6.96
15.3
1.934
0.03466
11.94
15.44
0.02024
2.601
13.39
4.292
9.834
2.981
0.5255
2.471
1.151
0.001286
2.516
0.0804
2.087
0.5176
15.06
0.5535
23.82
1.334
3.641
1.269
1.033
4.744
0.6745
6.112
8.77
1.109
2.028
0.7914
0.7793
1.61
10.12
1.643
0.0257
3.118
1.043
8.113
2.975
2.409
5.556
3.347
0.02978
1.935
26.55
1.255
0.9112
4.293
0.07769
2.642
0.01302
2.068
182.3
115.4
8.97
1.527
1.088
0.1785
0.00107
1.366
1.692
4.673
0.9753
0.0179
2.344
3.001
1.052
2.335
0.0149
4.317
12.74
28.91
0.464
0.8462
3.126
5.073
0.02115
6.483
91.08
0.6187
0.7324
0.4229
2.428
55.48
0.5212
1.232
1.031
1.692
0.02409
3.21
0.008373
27.45
2.196
0.7534
12.71
1.031
3.333
1.876
0.7738
0.1374
0.04886
0.01109
1.475
1.364
2.08
0.6963
1.565
2.755
13
0.8467
4.779
0.4021
0.0177
5.772
0.01637
1.055
4.171
1.216
1.556
1.911
26.96
3.445
1.485
2.569
4.92
2.298
0.2547
28.11
0.02061
45.41
7.663
1.755
2.086
0.1513
3.873
6.537
0.8774
0.5211
1.583
26.11
13.25
0.02312
1.2
0.01877
0.01364
15.2
0.03317
1.629
2.455
33.33
1.472
6.643
3.399
5.664
0.3333
3.129
0.9776
0.9172