/*--------------------------------*- C++ -*----------------------------------*\
  =========                 |
  \\      /  F ield         | OpenFOAM: The Open Source CFD Toolbox
   \\    /   O peration     | Website:  https://openfoam.org
    \\  /    A nd           | Version:  8
     \\/     M anipulation  |
\*---------------------------------------------------------------------------*/
FoamFile
{
    version     2.0;
    format      ascii;
    class       volScalarField;
    location    "5";
    object      k;
}
// * * * * * * * * * * * * * * * * * * * * * * * * * * * * * * * * * * * * * //

dimensions      [0 2 -2 0 0 0 0];

internalField   nonuniform List<scalar> 
127143
(
7.924e-05
4.891e-05
5.618e-05
0.0001143
0.0009645
0.0001176
0.00289
0.001677
0.001177
0.0024
0.002889
0.001573
0.0001019
0.0001385
0.3826
0.01096
0.0002066
0.4127
0.4847
0.03781
0.3695
0.02232
0.4559
0.1916
0.02169
0.1094
0.08648
0.08091
0.1309
0.3889
0.1582
0.1059
0.1079
0.1343
0.4631
0.1061
0.3257
0.5062
0.2089
0.1032
0.484
0.5798
0.5776
0.0003351
0.4075
0.1379
0.1342
0.3978
0.2243
0.1989
0.01496
0.3773
0.54
0.5143
0.1777
0.1993
0.1743
0.3732
0.303
0.5138
0.5706
0.4647
0.2501
0.8126
0.2256
0.465
0.4741
0.2453
0.247
0.06251
0.1785
0.1033
0.4347
0.3038
0.417
0.09788
0.3567
0.3391
0.2023
0.9638
0.134
0.03999
0.1944
0.1104
0.4356
0.3543
0.2289
0.09837
0.4681
0.4363
0.3149
0.5061
0.4811
0.3708
0.319
0.3434
0.578
0.1407
0.372
0.4731
0.9697
0.2302
0.3608
0.3561
0.3589
0.3683
0.2834
0.06285
0.5076
0.3159
0.3947
0.1009
0.3434
0.6505
0.3633
0.3872
0.3618
0.417
0.3551
0.006732
0.3093
0.1956
0.3743
0.4006
0.1396
0.07937
0.4331
0.3532
0.362
0.2022
0.3056
0.2908
0.2825
0.3418
0.001302
0.3092
0.4362
0.3967
0.1598
0.4437
0.4633
0.3503
0.5384
0.4465
0.5434
0.5338
0.1655
0.8583
0.2866
0.3102
0.3347
0.2386
0.5164
0.4963
0.4376
0.4373
0.3725
0.217
0.4
0.1341
0.1751
0.009087
0.3145
0.306
0.1456
0.2396
0.3064
0.521
0.3071
0.3975
0.2084
0.4456
0.3793
0.3574
0.1327
0.3621
0.5607
0.3633
0.2087
0.3254
0.3581
0.3381
0.3623
0.3633
0.2069
0.4671
0.5281
0.6536
0.1982
0.3694
0.5427
0.4402
0.4336
0.6085
0.001001
0.4288
0.8329
0.8329
0.01333
0.3458
0.3299
0.3946
0.3454
0.3325
0.0003049
0.2236
0.4363
0.339
0.3921
0.3648
0.4966
0.421
0.3171
0.312
0.2746
0.01082
0.1399
0.3401
0.3139
0.4354
0.5647
0.4361
0.2347
0.5296
0.1256
0.1956
0.1683
0.5084
0.2363
0.4052
0.3639
0.3402
0.4377
0.01683
0.3652
0.4117
0.3062
0.0002836
0.3291
0.5585
0.4471
0.2503
0.3789
0.2209
0.596
0.007135
0.2635
0.08545
0.00407
0.08516
0.5428
0.1166
0.3395
0.4077
0.228
0.513
0.3517
0.3611
0.3774
0.5032
0.4261
0.3579
0.5061
0.3499
0.4602
0.243
0.2384
0.4086
0.5378
0.521
0.1559
0.1312
0.4185
0.5549
0.2664
0.5472
0.3451
0.2417
0.1655
0.3978
0.1148
0.3433
0.3585
0.3796
0.3609
0.001097
0.2942
0.3601
0.238
0.3236
0.5168
0.4447
0.413
0.3755
0.3093
0.4856
0.1668
0.286
0.3787
0.5216
0.1557
0.4503
0.5064
0.3904
0.1199
0.4253
0.3412
0.3177
0.4895
0.3107
0.2755
0.2294
0.1888
0.1171
0.3553
0.4759
0.5065
0.1505
0.5033
0.2626
0.4563
0.1676
0.394
0.3386
0.4719
0.5596
0.4254
0.3105
0.2054
0.5597
0.438
0.3608
0.461
0.7799
0.7798
0.4952
0.5126
0.381
0.4377
0.2854
0.441
0.3396
0.5762
0.5524
0.5966
0.2351
0.233
0.3484
0.1667
0.3365
0.1694
0.5013
0.3531
0.549
0.4132
0.2393
0.4056
0.5271
0.2547
0.2089
0.4373
0.2551
0.4972
0.1956
0.2013
0.5163
0.3463
0.2204
0.2272
0.166
0.5785
0.3942
0.1343
0.1937
0.3671
0.4834
0.1798
0.03069
0.3845
0.1714
0.5071
0.09633
0.1785
0.4494
0.36
0.03515
0.4562
0.1082
0.424
0.4848
0.3006
0.5209
0.2245
0.2295
0.1965
0.1583
0.5195
0.1643
0.4127
0.3569
0.1052
0.4418
0.3806
0.3656
0.4569
0.3306
0.3672
0.2846
0.9861
0.2151
0.4558
0.1696
0.4633
0.4089
0.3822
0.3234
0.3459
0.1419
0.5606
0.3345
0.3113
0.07602
0.2587
0.08626
0.4022
0.5131
0.5752
0.4763
0.2607
0.4484
0.5508
0.2592
0.3447
0.5047
0.4414
0.5137
0.3346
0.2486
0.375
0.3095
0.3805
0.2045
0.4373
0.5105
0.3734
0.1456
0.3443
0.369
0.2224
0.4211
0.3664
0.1904
0.3365
0.2423
0.4594
0.3444
0.1539
0.2747
0.3531
0.5492
0.2866
0.4132
0.4675
0.6556
0.409
0.1276
0.343
0.4247
0.2183
0.3997
0.39
0.5061
0.4002
0.5074
0.4261
0.1627
0.4679
0.5061
0.2154
0.5975
0.1248
0.3811
0.4082
0.1906
0.4751
0.4442
0.6114
0.3158
0.1446
0.3492
0.505
0.2349
0.4997
0.5265
0.001134
0.2945
0.6392
0.3807
0.6114
0.3296
0.1228
0.343
0.3589
0.4328
0.0003027
0.00686
0.005204
0.6803
0.2422
0.3952
0.3572
0.4468
0.361
0.3088
0.3682
0.363
0.188
0.3907
0.1051
0.1281
0.4055
0.0119
0.3256
0.1543
0.2187
0.303
0.3375
0.3476
0.4703
0.2528
0.1343
0.2482
0.2182
0.4667
0.4227
0.4261
0.1877
0.4449
0.2824
0.481
0.3503
0.2558
0.4343
0.4261
0.449
0.5504
0.1729
0.1984
0.2105
0.1895
0.4271
0.4798
0.3399
0.3178
0.2648
0.3183
0.1142
0.3132
0.1638
0.2883
0.3851
0.7618
0.6737
0.4986
0.2288
0.6138
0.3508
0.08198
0.4456
0.2982
0.3665
0.4725
0.1732
0.08594
0.3923
0.3501
0.4537
0.213
0.3727
0.3142
0.1447
0.1036
0.2944
0.2675
0.1693
0.1343
0.3499
0.3727
0.3724
0.4858
0.07588
0.2396
0.4264
0.03762
0.1663
0.2879
0.1423
0.3757
0.3322
0.3547
0.2166
0.5891
0.3808
0.2041
0.2044
0.2374
0.4486
0.5423
0.1744
0.1822
0.5293
0.2145
0.4921
0.1998
0.3382
0.4529
0.1348
0.1464
0.1912
0.3662
0.6041
0.3612
0.5382
0.5025
0.3606
0.3677
0.3384
0.3427
0.1379
0.2181
0.2438
0.1826
0.2123
0.149
0.4571
0.511
0.367
0.4517
0.5555
0.242
0.2118
0.1378
0.3025
0.5639
0.4109
0.5288
0.3071
0.0819
0.5607
0.1829
0.6113
0.06493
0.3604
0.06069
0.2938
0.2976
0.3915
0.2544
0.4411
0.3113
0.2141
0.374
0.5676
0.5015
0.0004311
0.2042
0.3558
0.3437
0.2961
0.4455
0.1473
0.377
0.3722
0.3865
0.3022
0.3837
0.2513
0.2479
0.4823
0.5716
0.4739
0.2436
0.04824
0.3789
0.2059
0.4719
0.3713
0.4889
0.509
0.1353
0.5329
0.2338
0.3158
0.2039
0.5458
0.5123
0.2398
0.5689
0.2254
0.4578
0.3186
0.4948
0.4974
0.06077
0.1458
0.4257
0.2196
0.001427
0.3189
0.4638
0.3889
0.07293
0.2777
0.2032
0.0637
0.4835
0.4489
0.5563
0.3324
0.3442
0.3188
0.4853
0.2393
0.2674
0.3139
0.4356
0.432
9.952e-05
0.4827
0.3955
0.2882
0.4114
0.2394
0.3049
0.339
0.502
0.3687
0.05863
0.06227
0.2661
0.132
0.06489
0.3659
0.3303
0.2862
0.3594
0.06695
0.3903
0.2361
0.2025
0.4064
0.3445
0.5752
0.5107
0.3202
0.3381
0.4105
0.4533
0.2958
0.4526
0.3162
0.1035
0.2492
0.2819
0.3895
0.4656
0.09945
0.1781
0.5157
0.4489
0.1972
0.3375
0.3137
0.215
0.6065
0.02223
0.6067
0.2225
0.3771
0.3903
0.3883
0.6903
0.0002671
0.306
0.454
0.1718
0.3692
0.2611
0.2803
0.1852
0.471
0.4992
0.3589
0.05894
0.2652
0.5074
0.2808
0.367
0.3667
0.3714
0.3556
0.3169
0.3055
0.5277
0.4625
0.457
0.2627
0.3743
0.02317
0.3538
0.5346
0.253
0.3465
0.3171
0.1619
0.1294
0.5227
0.1068
0.3012
0.3024
0.09944
0.2612
0.4905
0.2185
0.2903
0.1101
0.1569
0.3999
0.2845
0.4135
0.1686
0.6267
0.3643
0.2287
0.425
0.5273
0.08826
0.3151
0.2063
0.5042
0.1384
0.2775
0.1483
0.3306
0.5152
0.4123
0.5001
0.01104
0.3942
0.4967
0.2299
0.3554
0.3002
0.04316
0.1068
0.4514
0.2115
0.1082
0.03582
0.4046
0.006812
0.3526
0.01313
0.2862
0.1823
0.4999
0.0415
0.3574
0.2706
0.07749
0.07703
0.5044
0.3819
0.4758
0.4211
0.6491
0.3687
0.3993
0.4432
0.2821
0.2985
0.5089
0.3255
0.3957
0.2017
0.01068
0.3637
0.3443
0.3881
0.4582
0.2425
0.3467
0.5001
0.2221
0.2536
0.2119
0.3138
0.4702
0.3525
0.2526
0.5108
0.01503
0.4282
0.01065
0.3898
0.4417
0.2952
0.1254
0.2778
0.08643
0.1693
0.546
0.08602
0.4952
0.01762
0.4999
0.2941
0.2983
0.3787
0.09371
0.00484
0.1973
0.3495
0.4301
0.3444
0.4625
0.2933
0.2135
0.6434
0.2029
0.3377
0.4934
0.2002
0.4503
0.138
0.3263
0.3939
0.2111
0.4361
0.2587
0.3722
0.3944
0.336
0.1878
0.4654
0.2793
0.2172
0.2323
0.4289
0.6059
0.3577
0.3027
0.01536
0.5842
0.1524
0.2034
0.3369
0.4346
0.6139
0.2649
0.1857
0.03135
0.3691
0.307
0.2578
0.4021
0.3683
0.4054
1.108
0.4279
0.3661
0.3593
0.2414
0.5705
0.2345
0.5936
0.9888
0.4304
0.3408
0.1218
0.1205
0.3338
0.5264
0.4948
0.253
0.1936
0.284
0.4662
0.4084
0.243
0.3071
0.1982
0.2861
0.05991
0.1199
0.4676
0.4725
0.3825
0.3495
0.02193
0.01582
0.1116
1.015
0.4788
0.3519
0.01488
0.292
0.2745
0.2811
0.2219
0.4254
0.4088
0.3236
0.2102
0.4077
0.2478
0.3838
0.1716
0.3429
0.1377
0.01773
0.3057
0.4332
0.4146
0.1069
0.3292
0.3282
0.4527
0.041
0.3285
0.1687
0.4187
0.4896
0.4501
0.5056
0.3472
0.1917
0.2054
0.207
0.293
0.1753
0.3474
0.4426
0.2495
0.2584
0.2327
0.06676
0.2107
0.01598
0.4405
0.2321
0.2749
0.1873
0.1066
0.5682
0.5039
0.2425
0.254
0.3221
0.1433
0.05755
0.3259
0.4079
0.251
0.2985
0.5304
0.3887
0.1837
0.4544
0.2521
0.2846
0.195
0.2757
0.1312
0.2854
0.2669
0.3147
0.2738
0.2481
1.215
0.3921
0.2905
0.3779
0.567
0.4693
0.3218
0.4363
0.8016
0.2604
0.2559
0.2979
0.5477
0.4193
0.3676
0.242
0.3525
0.3942
0.2212
0.03731
0.1955
0.2247
0.4149
0.04143
0.06238
0.2277
0.3877
0.3369
0.4422
0.3346
0.2968
0.2291
0.1599
0.5465
0.004996
0.1692
0.1832
0.2639
0.3745
0.4503
0.4887
0.1139
0.2888
0.4353
0.001477
0.3486
0.1843
0.1687
0.2419
0.378
0.3248
0.1322
0.2782
0.2977
0.5181
0.1889
0.1919
0.4991
0.01182
0.3995
0.2737
0.426
0.1801
0.8024
0.3695
0.5271
0.03612
0.3856
0.2904
0.02188
0.2035
0.4068
0.2029
0.2706
0.5956
0.02499
0.4101
0.3139
0.0008206
0.5091
0.09891
0.4213
0.2763
0.1522
0.2168
0.1345
0.4777
0.3552
0.3775
0.4758
0.5187
0.2781
0.3652
0.2339
0.4527
0.1036
0.4105
0.4245
0.4325
0.586
0.5107
0.3455
0.01219
0.4559
0.1366
0.145
0.2957
0.318
0.4155
0.4406
0.5097
0.5124
0.1454
0.1769
0.1219
0.3222
0.2048
0.2122
0.3468
0.01927
0.4043
0.5
0.2216
0.3265
0.2132
0.3049
0.1646
0.3098
0.3128
0.3981
0.2977
0.01309
0.02075
0.3447
0.414
0.3721
0.1186
0.4831
0.2611
0.3993
0.4873
0.4827
0.05192
0.05179
0.609
0.337
0.4814
0.3114
0.218
0.01501
0.4269
0.145
0.3025
0.253
0.5415
0.1596
0.4183
0.3109
0.01418
0.5514
0.4651
0.2936
0.258
0.3876
0.01494
0.5084
0.3192
0.446
0.4611
0.332
0.2331
0.01643
0.5013
0.2382
0.223
0.1886
0.4168
0.5938
0.4365
0.3174
0.3179
0.1958
0.268
0.4448
0.005044
0.3491
0.1975
0.2084
0.2503
0.1881
0.4107
0.3517
0.2406
0.1371
0.3108
0.3759
0.499
0.2935
0.1013
0.2958
0.388
0.3076
0.373
0.3643
0.4997
0.1359
0.5379
0.4649
0.3086
0.2517
0.38
0.2583
0.2415
0.4584
0.1122
0.3096
0.4564
0.04514
0.2803
0.5703
0.3192
0.3483
0.2124
0.2413
0.01075
0.3011
0.2683
0.6032
0.3708
0.4204
0.758
0.3345
0.3458
0.4213
0.6036
0.4437
0.3019
0.3557
0.305
1.099
0.3126
0.2808
0.4985
0.1847
0.4538
1.178
0.4815
0.3343
0.435
0.003359
0.128
0.01678
0.2478
0.2927
0.2079
0.2515
0.3504
0.503
0.08573
0.3997
0.1795
0.2765
0.5203
0.4473
0.4939
0.3312
0.01051
0.3157
0.1667
0.4
0.01493
0.3253
0.2076
0.2994
0.2897
0.2768
0.4748
0.5077
0.3098
0.4489
0.2852
0.4101
0.5279
0.2777
0.3715
0.1686
0.4689
0.3422
0.3532
0.3289
0.2321
0.1933
0.2884
0.2067
0.3943
0.3277
0.3254
0.3072
0.04775
0.5848
0.3773
0.3078
0.2271
0.2449
0.3487
0.205
0.4516
0.4835
0.3824
0.3609
0.01068
0.1685
0.4038
0.3063
0.1752
0.4922
0.1983
0.4735
0.2229
0.0154
0.4832
0.01301
0.3109
0.296
0.3106
0.203
0.442
0.5316
0.4054
0.2387
0.2976
0.3746
0.3818
0.2399
0.4307
0.3332
0.1707
0.1512
0.07464
0.07363
0.1834
0.5191
0.02895
0.5405
0.1441
0.1349
0.01009
0.2239
0.2533
0.3785
0.3357
0.2948
0.4086
0.1599
0.01896
0.3822
0.2247
0.4517
0.4088
0.4441
0.1522
0.07198
0.1744
0.5032
0.5666
0.3786
0.06188
0.2696
0.3136
0.2078
0.3902
0.1671
0.2207
0.3594
0.4651
0.4423
0.4142
0.2184
0.09993
0.05307
1.179
0.4402
0.1371
0.181
0.1025
0.4384
0.5175
0.4744
0.407
0.6038
0.1687
0.3867
0.2064
0.3286
0.4952
0.3468
0.4709
0.3636
0.7494
0.5086
0.01712
0.3518
0.2805
0.3627
0.03821
0.4197
0.4714
0.05803
0.433
0.2717
0.1598
0.3683
0.3564
0.3485
0.5355
0.8569
0.589
0.339
0.3637
0.6598
0.1792
0.2598
0.2179
0.5959
0.1143
0.2309
0.0166
0.1486
0.4826
0.3854
0.4505
0.1903
0.567
0.4134
0.07941
0.07252
0.5056
0.31
0.3505
0.2503
0.3972
0.4199
0.2427
0.4265
0.4029
0.2721
0.2318
0.4911
0.3459
0.4391
0.4002
0.2425
0.192
0.5024
0.2371
0.1745
0.3738
0.4869
0.2474
0.3557
0.5199
0.3558
0.2435
0.4103
0.3424
0.1659
0.3809
0.3317
0.2105
0.4529
0.5108
0.4002
0.413
0.2265
0.3599
0.5315
0.2694
0.3751
0.1861
0.1761
0.5108
0.4822
0.2951
0.01604
0.3233
0.03426
0.3923
0.2943
0.03589
0.2608
0.4199
0.1972
0.3823
0.5817
1.012
0.4432
0.07663
0.4057
0.4405
0.2979
0.2586
0.4836
0.2864
0.5394
0.4843
0.2477
0.3729
0.2441
0.1225
0.3217
0.3893
0.344
0.0631
0.4355
0.3921
0.3997
0.4189
0.402
0.4101
0.1239
0.5214
0.4937
0.1337
0.488
0.3134
0.01724
1.078
0.248
0.06038
0.4854
0.2983
0.4542
0.2287
0.01742
0.05916
0.08194
0.3262
0.3622
0.3137
0.4379
0.3921
0.09068
0.3229
0.3714
0.3057
0.007073
0.00704
0.3224
0.3201
0.2801
0.3575
0.4124
0.3241
0.3899
0.1707
0.2694
0.2903
0.3544
0.04118
0.3609
0.3753
0.3435
0.4795
0.3574
0.3331
0.5353
0.4578
0.269
0.3228
0.5024
1.06
0.2259
0.1482
0.571
0.3202
0.3937
0.0151
0.2322
0.4007
0.254
0.1032
0.3732
0.2713
0.008627
0.2672
0.1923
0.3724
0.2407
0.07813
0.3882
0.4393
0.144
0.351
0.4284
0.1315
0.1346
0.487
0.2438
0.4354
0.4429
0.3063
0.1753
0.2692
0.2237
0.1303
0.2193
0.3834
0.03333
0.08528
0.5043
0.414
0.4638
0.441
0.4701
0.2972
0.4028
0.2394
0.08443
0.286
0.004796
0.1148
0.3206
0.5199
0.432
0.4885
0.3441
0.3918
0.3722
0.4205
0.2967
0.2721
0.2349
0.2076
0.2802
0.3492
0.268
0.5013
0.4466
0.01678
0.05327
0.4282
0.2782
0.005866
0.447
0.1593
0.5061
0.3387
0.3387
0.003712
0.337
0.3135
0.05826
0.4361
0.2041
0.3085
0.3567
0.5496
0.4134
0.1468
0.4293
0.273
0.03453
0.5468
0.3414
0.1397
0.4598
0.2992
0.1069
0.5068
0.3232
0.5468
0.29
0.3982
0.4778
0.4783
0.2085
0.4767
0.1581
0.4799
0.2319
0.1084
0.385
0.1383
0.5146
0.1702
0.2278
0.1737
0.525
0.4362
0.3271
0.3586
0.2262
0.2947
0.3155
0.2102
0.3091
0.29
0.506
0.174
0.2958
0.1308
0.4544
0.4924
0.1816
0.06675
0.2966
0.3848
0.331
0.449
0.4332
0.4975
0.01684
0.4142
0.3818
0.1846
0.4683
0.4055
0.4336
0.3902
0.4362
0.7117
0.4126
0.199
0.1845
0.3909
0.3531
0.4561
0.3092
0.335
0.2934
0.6099
0.3436
0.1791
0.164
0.5076
0.4545
0.5736
0.3731
0.2512
0.0263
0.4657
0.3079
0.1742
0.4535
0.01696
0.3564
0.1932
0.4714
0.3292
0.009025
0.4096
0.4545
0.1868
0.02535
0.2125
0.1859
0.1612
0.1612
0.187
0.3503
0.3505
0.4478
0.4394
0.493
0.3748
0.9738
0.1399
0.265
0.2844
0.3696
0.09287
0.4592
0.4048
0.8503
0.3408
0.2811
0.1723
0.2397
0.2959
0.154
0.2342
0.5143
0.231
0.2695
0.2883
0.4414
0.4726
0.09719
0.07404
0.07408
0.2283
0.2826
0.06118
0.5136
0.2839
0.4516
0.1385
0.3616
0.4702
0.8237
0.3489
0.03729
0.5617
0.4411
0.3108
0.4356
0.1349
0.4683
0.07571
0.3333
0.3506
0.2785
0.3821
0.3749
0.2815
0.4664
0.3784
0.3376
0.3232
0.4298
0.2371
0.2756
0.3123
0.3064
0.2765
0.3049
0.2316
0.2017
0.6577
0.5124
0.3385
0.03988
0.4071
0.3353
0.3409
0.4203
0.7872
0.252
0.4787
0.03358
0.2481
0.4767
0.1443
0.01436
0.1228
0.3823
0.2885
0.1385
0.1771
0.1293
0.3782
0.2706
0.01324
0.2835
0.3321
0.3558
0.4306
0.3669
0.4567
0.3226
0.3659
0.2259
0.4491
0.4877
0.1631
0.8524
0.5487
0.4076
0.4122
0.2371
0.3872
0.3896
0.478
0.4575
0.358
0.3113
0.01685
0.1829
0.3083
0.2502
0.3433
0.3344
0.1165
0.3816
0.287
0.4924
0.4786
0.3443
0.2289
0.2745
0.4876
0.4194
0.5961
0.1876
0.1548
0.2963
0.5552
0.5216
0.621
0.09727
0.5038
0.4807
0.01431
0.05813
0.5059
0.3522
0.5738
0.5327
0.328
0.1951
0.3191
0.5037
0.4444
0.1622
0.1571
0.2839
0.3228
0.2824
0.4304
0.004851
0.3445
0.2949
0.2609
0.008604
0.4263
0.08116
0.07117
0.05855
0.1728
0.1559
0.3691
0.4049
0.1365
0.4907
0.159
0.369
0.3379
0.3983
0.4942
0.6769
0.4176
0.4086
0.2583
0.4627
0.4844
0.03763
0.4089
0.3085
0.2943
0.3321
0.4923
0.2878
0.3301
0.5363
0.1829
0.2391
0.04077
0.2458
0.2025
0.2295
0.2997
0.2574
0.5013
0.007513
0.3791
0.2774
0.5138
0.2389
0.3767
0.2622
0.4122
0.3715
0.03657
0.1885
0.4856
0.5037
0.4018
0.3142
0.2715
0.1481
0.4599
0.4428
0.3415
0.2333
0.3116
0.2603
0.4084
0.3616
0.1806
0.3843
0.4852
0.01217
0.3449
0.2226
1.155
1.155
0.2099
0.5944
0.4024
0.2852
0.2335
0.3476
0.1817
0.1729
0.5229
0.3134
0.3081
0.5322
0.5467
0.207
0.008535
0.2059
0.1896
0.1605
0.02661
0.4512
0.1959
0.1858
0.1065
0.3977
0.1546
0.508
0.3627
0.2997
0.195
0.2387
0.1198
0.367
0.3934
0.3367
0.3093
0.3562
0.2678
0.3545
0.2012
0.1196
0.2962
0.3422
0.1817
0.235
0.158
0.3116
0.2862
0.2164
0.4803
0.2235
0.425
0.2685
0.009567
0.2629
0.08741
0.5698
0.3557
0.3622
0.008328
0.2991
0.2285
0.3299
0.419
0.0446
0.4136
0.3255
0.2717
0.1621
0.4601
0.3011
0.4011
0.3104
0.09315
0.4571
0.195
0.1441
0.4915
0.3295
0.2491
0.4128
0.4175
0.2768
0.3222
0.5109
0.2579
0.172
0.343
0.3873
0.3419
0.3734
0.2543
0.2105
0.4756
0.4614
0.3888
0.3192
0.4092
0.01199
0.5865
0.3651
0.1337
0.3469
0.2666
0.5049
0.08447
0.1978
0.4045
0.1276
0.3688
0.2255
0.4649
0.3963
0.2625
0.2486
0.4362
0.1049
0.4467
0.1543
0.1352
0.7948
0.1096
0.139
0.005555
0.07472
0.481
0.4447
0.4434
0.3619
0.4878
0.5181
0.1421
0.5285
0.1696
0.005885
0.3685
0.2157
0.1879
0.2339
0.411
0.1656
0.0867
0.009754
0.01524
0.3872
0.5687
0.02231
0.4141
0.298
0.3175
0.3903
0.2445
0.4928
0.2155
0.01532
0.5
0.3291
0.4067
1.097
0.3016
0.1696
0.1779
0.504
0.1263
0.4628
0.3842
0.4368
0.4835
0.2583
0.3242
0.3711
0.5057
0.5269
0.2506
0.223
0.3558
0.1713
0.4673
0.01362
0.0144
0.001407
0.1694
0.4133
0.2678
0.3768
0.1515
0.2492
0.3741
0.01843
0.9604
0.2578
0.07502
0.1165
0.3153
0.5366
0.2311
0.3393
0.2566
0.009694
0.4299
0.05308
0.4418
0.3072
0.03428
0.03228
0.008161
0.432
0.2166
0.4257
0.4006
0.5009
0.2793
0.1051
0.2097
0.329
0.2878
0.3026
0.2655
0.3675
0.4473
0.09157
0.2715
0.28
0.04008
0.2761
0.1092
0.4874
0.3062
0.26
0.3051
0.4884
0.3134
0.2613
0.3889
0.01387
0.05099
0.3224
0.352
0.2416
0.1866
0.369
0.492
0.1399
0.4018
0.1621
0.1398
0.2251
0.2367
0.4435
0.2678
0.3531
0.07664
0.01245
0.01371
0.4321
0.1634
0.3091
0.4253
0.492
0.4659
0.04082
0.4251
0.1912
0.2363
0.1087
0.2466
0.3946
0.03814
0.3986
0.2498
0.4485
0.05887
0.3051
0.4901
0.3436
0.3284
0.574
0.309
0.4659
0.2799
0.009326
0.01026
0.4612
0.007878
0.1356
0.5051
0.422
0.4504
0.3538
0.9458
0.3296
0.01321
0.2244
0.1077
0.4998
0.5328
0.3089
0.2927
0.4309
0.269
0.43
0.1728
0.3409
0.08559
0.2963
0.2405
0.6327
0.3939
0.1209
0.4463
0.3013
0.2535
0.2384
0.3613
0.1087
0.07222
0.508
0.4554
0.1897
0.1356
0.3034
0.3004
0.2953
0.2901
0.2856
0.3616
0.265
0.487
0.01469
0.2588
0.1745
0.4806
0.2944
0.4559
0.1295
0.3752
0.2289
0.4857
0.3672
0.4533
0.1465
0.1525
0.5268
0.3166
0.1882
0.1957
0.1895
0.3454
0.1011
0.3039
0.1785
0.3592
0.5036
0.372
0.3872
0.3894
0.2842
0.4219
0.5086
0.4379
0.4303
0.3577
0.1437
1.049
0.3348
0.4093
0.5631
0.1947
0.2086
0.3449
0.2321
0.4351
0.2483
0.6748
0.3009
0.4915
0.1234
0.1178
0.01138
0.5679
0.1197
0.06074
0.3754
0.0182
0.3896
0.2404
0.2701
0.2682
0.2425
0.3563
0.4168
0.2643
0.2359
0.4474
0.3166
0.5342
0.3315
0.3649
0.304
0.3919
0.2836
0.3885
0.3132
0.1689
0.5438
0.722
0.2859
0.2582
0.3749
0.3767
0.3392
0.3307
0.4364
0.2742
0.2618
0.4547
0.3052
0.5589
0.08806
0.4589
0.01512
0.3658
0.3088
0.1269
0.469
0.3612
0.3489
0.3898
0.3846
0.06833
0.11
0.2706
0.5428
0.3474
0.2503
0.004308
0.5221
0.387
0.0872
0.2529
0.3761
0.4097
0.3902
0.4737
0.5653
0.1712
0.02515
0.1646
0.3431
0.3165
0.5443
0.2823
0.3634
0.3513
0.2659
0.3882
0.2401
0.07002
0.1668
0.5046
0.1949
0.02358
0.4715
0.2953
0.3878
0.4058
0.3987
0.1567
0.04531
0.3401
0.2861
0.23
0.5331
0.1272
0.3986
0.4938
0.4173
0.5579
0.185
0.2417
0.3659
0.3068
0.3469
0.5041
0.3075
1.077
0.5427
0.3764
0.2457
0.462
0.397
0.1748
0.1365
0.5034
0.4337
0.2475
0.01524
0.4997
0.3836
0.1841
0.4805
0.3664
0.512
0.3127
0.01782
0.493
0.01885
0.7845
0.7938
0.3557
0.4756
0.3247
0.0154
0.2164
0.2736
0.1382
0.4705
0.3324
0.07578
0.0148
0.3463
0.2992
1.047
0.5138
0.3196
0.3518
0.3183
0.5732
0.4745
0.2157
0.1933
0.3206
0.1424
0.299
0.1195
0.3821
0.3728
0.3119
1.066
0.2304
0.2297
0.4598
0.4326
0.3411
0.01758
0.1034
0.2789
0.3061
0.1701
0.4546
0.3458
0.9801
0.1399
0.2803
0.2282
0.6909
0.458
0.1566
0.2767
0.1536
0.3663
0.4694
0.7733
0.2285
0.07654
0.1943
0.01386
0.3115
0.3012
0.4346
0.1595
0.05868
0.2195
0.454
0.2151
0.5064
0.4366
0.3261
0.3622
0.4754
0.4669
1.02
0.4269
0.4803
0.4006
0.3163
0.3166
0.3589
0.4484
0.3028
0.2222
0.3734
0.5014
0.3173
0.3405
0.5941
0.4964
0.177
0.01541
0.05477
0.3015
0.02349
0.1239
0.3303
0.01972
0.5
0.1446
0.4747
0.4487
0.5147
0.1343
0.2975
0.171
0.2306
0.4224
0.3533
0.2934
0.242
0.4847
0.3854
0.2815
0.5077
0.262
0.07098
0.3399
0.3441
0.511
0.5368
0.2722
0.0229
0.1817
0.22
0.1925
0.3358
1.077
0.5312
0.433
0.1662
0.3213
0.177
0.2698
0.3321
1.221
0.4123
0.4927
0.06367
0.3488
0.5186
0.03932
0.3414
0.3223
0.1087
0.3686
0.3757
0.5184
0.4923
0.2328
0.01605
0.1852
0.461
0.4487
0.2597
0.5406
0.3494
0.4301
0.3314
0.264
0.2896
0.68
0.01079
0.2164
0.2771
0.311
0.3411
0.4175
0.4084
0.3908
0.2173
0.2617
0.4635
0.2728
0.1926
0.4843
0.5064
0.4904
0.4564
0.4518
0.4782
0.297
0.4808
0.3455
0.6605
0.1715
0.1234
0.3601
0.3649
0.3214
0.1401
0.3037
0.003142
0.4533
0.5152
0.2433
0.2129
0.3525
0.2998
0.101
0.2173
0.2773
0.2125
0.2169
0.5649
0.461
0.4791
0.1656
0.07936
0.5492
0.4444
0.1518
0.4127
0.1364
0.3134
0.4446
0.3984
0.2168
0.4966
0.2907
0.3576
0.3728
0.5004
0.1511
0.2287
0.003489
0.1997
0.2263
0.3355
0.6016
0.2685
0.06679
0.4464
0.4767
0.1866
0.2491
0.1519
0.4702
0.3449
0.8604
0.3211
0.2904
0.3881
0.3655
0.1624
0.002421
0.1934
0.4015
0.3147
0.3006
0.162
0.372
0.3713
0.1814
0.4724
0.4308
0.3409
0.4962
0.1173
0.5007
0.3737
0.321
0.3073
0.4654
0.4436
0.2105
0.2843
0.2207
0.3082
0.4664
0.3805
0.2203
0.4128
0.4977
0.2663
0.2751
0.2136
0.4233
0.3291
0.4989
0.3107
0.3485
0.2409
0.3362
0.2298
0.5431
0.5108
0.008054
0.1982
0.1541
0.2711
0.173
0.2321
0.1837
0.1904
0.03105
0.4006
0.5828
0.2824
0.2973
0.1728
0.09684
0.511
0.07336
0.4665
0.4253
0.005436
0.3521
0.4419
0.1854
0.3177
0.4307
0.4748
0.3531
0.1794
0.4249
0.5448
0.5321
0.3405
0.2879
0.008161
0.3801
0.01741
0.04659
0.3726
0.01558
0.5267
0.1692
0.1536
0.5298
0.5
0.2718
0.272
0.3457
0.4548
0.4152
0.4102
0.3417
0.3907
0.3181
0.4853
0.3445
0.5089
0.01541
0.3791
0.3474
0.2566
0.1699
0.1635
0.2208
0.2987
0.1187
0.4216
0.02933
0.2661
0.1907
0.4473
0.1552
0.4573
0.3804
0.3409
0.3605
0.3984
0.37
0.3293
0.3217
0.2584
0.2917
0.2536
0.3636
0.03062
0.3342
0.01768
0.4562
0.4869
0.2835
0.468
0.4488
0.4689
0.3578
0.3222
0.3672
0.347
0.2431
0.2559
0.4402
0.5385
0.3626
0.4547
0.006079
0.1363
0.01598
0.2061
0.4753
0.1616
0.3508
0.3797
0.168
0.4586
0.5799
0.4805
0.2293
0.4952
0.2579
0.2227
0.2936
0.4688
0.4318
0.01509
0.25
0.5463
0.4131
0.2736
0.4058
0.2245
0.06487
0.1645
0.3818
0.2282
0.4257
0.2659
0.01487
0.4745
0.3981
0.2772
0.2089
0.5119
0.2959
0.3479
0.463
0.1857
0.2947
0.002354
0.2851
0.3097
0.1773
0.3523
0.5073
0.3634
0.378
0.4468
0.4924
0.3345
0.5529
0.1898
0.5124
0.4244
0.1279
0.2997
0.1956
0.2053
0.1541
0.3264
0.5216
0.2881
0.332
0.3938
0.2411
0.1274
0.01749
0.03384
0.1273
0.2697
0.3615
0.1678
0.1817
0.4309
0.4211
0.1574
0.2925
0.05758
0.06762
0.1255
0.1906
0.4556
0.4875
0.4331
0.5447
0.06307
0.28
0.3008
0.3333
0.1985
0.01081
0.2361
0.3165
0.4756
0.3615
0.2937
0.2303
0.339
0.4514
0.4613
0.1261
0.3737
0.4367
0.3484
0.1613
0.5176
0.4998
0.6179
0.4823
0.01486
0.2188
0.6423
0.2827
0.4582
0.03492
0.2069
0.2285
0.4331
0.174
0.3974
0.3582
0.2328
0.23
0.4643
0.2539
0.4138
0.415
0.3923
0.3347
0.2101
0.2207
0.1695
0.3599
0.2374
0.2857
0.4975
0.4844
0.2253
0.2873
0.5529
0.2426
0.4241
0.01198
0.4501
0.06778
0.2783
0.3444
0.5471
0.4501
0.003127
0.5445
0.3952
0.3249
0.1719
0.2167
0.3522
0.3108
0.3777
0.2316
0.1071
0.3443
0.4822
0.3354
0.2598
0.2302
0.3542
0.3398
0.1882
0.2041
0.5411
0.2166
0.3656
0.2679
0.01094
0.3095
0.3072
0.5783
0.2355
0.3475
0.2962
0.3638
0.1308
0.5567
0.4157
0.2097
0.784
0.2889
0.1393
0.6018
0.5566
0.5943
0.4861
0.3065
0.2353
0.3946
0.4804
0.5306
0.1276
0.5046
0.2382
0.3119
0.4528
1.066
0.3922
0.3052
0.4098
0.2913
0.1311
0.433
0.3864
0.174
0.3273
0.4937
0.01641
0.0235
0.3873
0.3394
0.4504
0.2201
0.3097
0.1417
1.066
0.474
0.01592
0.3828
0.3702
0.3879
0.1151
0.3207
0.2539
0.3419
0.03828
0.4727
0.1285
0.4295
0.3707
0.42
0.1251
0.2687
0.3591
0.197
0.306
0.02207
0.4853
0.199
0.293
0.4221
0.5192
0.3382
0.1557
0.4492
0.1743
0.3291
0.3109
0.345
0.3599
0.4615
0.1996
0.7866
0.08042
0.2599
0.3273
0.3454
0.4747
0.3329
0.3868
0.4108
0.2311
0.1364
0.2983
0.4202
0.4721
0.4472
0.5064
0.3433
0.2055
0.2134
0.1242
0.3042
0.3499
0.3958
0.3358
0.4094
0.3236
0.2907
0.3989
0.4301
0.525
0.3605
0.07969
0.5087
0.4575
0.2171
0.1631
0.3667
0.4769
0.3302
0.619
0.5643
0.5952
0.5945
0.4025
0.2336
0.3368
0.03541
0.1702
0.4864
0.4358
0.4228
0.5855
0.4924
0.2266
0.4429
0.01191
0.3885
0.1588
0.4621
0.4705
0.1042
0.4992
0.559
0.302
0.5307
0.8996
0.6454
0.356
0.2462
0.4377
0.4169
0.4588
0.2673
0.2651
0.2639
0.006063
0.4546
0.1992
0.4635
0.4037
0.4778
0.4754
0.3983
0.1857
0.418
0.2675
0.4182
0.8571
0.02048
0.3853
0.4248
0.4952
0.2639
0.2664
0.2817
0.2342
0.4281
0.2434
0.3473
0.4375
0.1989
0.6664
0.02122
0.3508
0.04132
0.83
0.4786
0.3556
0.445
0.3757
0.1453
0.4413
0.3059
0.4987
0.08562
0.3907
0.08501
0.2027
0.426
0.4931
0.5448
0.1043
0.4634
0.3345
0.3475
0.3764
0.5102
0.3584
0.3311
0.1881
0.3499
0.2926
0.1974
0.5999
0.1882
0.1464
0.4
0.4473
0.2511
0.227
0.3936
0.6297
0.3606
0.7282
0.2447
0.4409
0.1439
0.4984
0.4462
0.4127
0.2603
0.4052
0.3245
0.3107
0.286
0.4488
0.481
0.06561
0.3316
0.4446
0.481
0.197
0.3184
0.3625
0.2263
0.3594
0.2864
0.4083
0.4041
0.4655
0.2469
0.1649
0.3217
0.4138
0.2968
0.2103
0.01191
0.2718
0.1189
0.3638
0.02368
0.1551
0.5065
0.4358
0.206
0.4855
0.03104
0.212
0.3627
0.4818
0.2932
0.3287
0.2426
0.1649
0.1392
0.5133
0.1167
0.239
0.03636
0.2888
0.2398
0.492
0.4094
0.2637
0.06689
0.2275
0.332
0.0369
0.4387
0.2736
0.3783
0.5031
0.2591
0.07525
0.5842
0.2547
0.3529
0.5232
0.3044
0.426
0.1612
0.2499
0.3123
0.3824
0.419
0.2068
0.3728
0.2398
0.4825
0.3705
0.3273
0.32
0.2314
0.1992
0.2932
0.6241
0.3117
0.5878
0.4877
0.4926
0.3399
0.008175
0.3495
0.1677
0.08841
0.5498
0.2485
0.2916
0.279
0.6148
0.2416
0.233
0.0398
0.2116
0.207
0.07627
0.3341
0.00962
0.2788
0.2689
0.3339
0.3825
0.4977
0.3639
0.3012
0.2302
0.3615
0.1996
0.3706
0.3741
0.2495
0.1248
0.2296
0.2606
0.3612
0.1611
0.3131
0.3213
0.1418
0.4675
0.51
0.2418
0.217
0.08902
0.07106
0.4357
0.3704
0.287
0.1473
0.192
0.1457
0.4508
0.384
0.4282
0.4797
0.299
0.4687
0.1709
0.4216
0.01607
0.6104
0.4348
0.436
0.2644
0.1079
0.3349
0.2502
0.3019
0.5388
0.4603
0.4973
0.3236
0.1416
0.3351
0.3196
0.418
0.118
0.4936
0.3788
0.2255
0.4297
0.2879
0.445
0.1317
0.1277
0.319
0.04389
0.2988
0.3344
0.3923
0.09414
0.3635
0.06221
0.4768
0.369
0.3182
0.5616
0.3809
0.361
0.4389
0.4358
0.5246
0.4222
0.5245
0.4134
0.1432
0.2651
0.3082
0.3163
0.4152
0.2504
0.3495
0.5703
0.478
0.2973
0.3423
0.2964
0.0312
0.5091
0.3021
0.3318
0.3475
0.5316
0.2672
0.1997
0.1673
0.4128
0.4392
0.3303
0.2866
0.512
0.3566
0.462
0.3022
0.386
0.4004
0.2734
0.1524
0.01452
0.1953
0.6629
0.3204
0.3533
0.4131
0.01015
0.3208
0.4675
0.3551
0.3965
0.3149
0.3529
0.01411
0.298
0.5997
0.1595
0.249
0.3393
0.37
0.1129
0.4939
0.3824
0.1868
0.3907
0.527
0.3339
0.424
0.6543
0.07777
0.1872
0.345
0.1229
0.4809
0.16
0.2562
0.3608
0.2545
0.4424
0.3048
0.5042
0.5103
0.1841
0.3149
0.3414
0.5691
0.2505
0.2678
0.4285
0.352
0.3562
0.4302
0.3549
0.34
0.1885
0.2237
0.1612
0.306
0.3374
0.5931
0.172
0.3643
0.3077
0.3539
0.3604
0.4853
0.2612
0.1828
0.01677
0.1732
0.434
0.1399
0.4796
0.4507
0.001004
0.2155
0.09989
0.06462
0.1069
0.1797
0.2343
0.3246
0.3133
0.5586
0.4001
0.3824
0.3525
0.3688
0.5159
0.4366
0.1532
0.293
0.01119
0.3997
0.2135
0.1848
0.02569
0.1599
0.2357
0.3694
0.5
0.4744
0.4306
0.01721
0.3235
0.4468
0.2794
0.2108
0.3543
0.6167
0.3452
0.2755
0.3084
0.4203
0.1662
0.3439
0.2184
0.2623
0.1106
0.7012
0.09949
0.2944
0.1521
0.1323
0.2015
0.05708
0.2284
0.4419
0.3758
0.1474
0.3592
0.4924
0.49
0.3561
0.4731
0.3302
0.3877
0.00357
0.332
0.2302
0.1642
0.1066
0.4895
0.09928
0.4609
0.1617
0.3488
0.5047
0.2436
0.1641
0.01803
0.3054
0.3197
0.1389
0.3216
0.2866
0.1563
0.2013
0.2716
0.2893
0.05295
0.3181
0.4017
0.1424
0.2494
0.232
0.08635
0.1365
0.2484
0.07144
0.3661
0.05079
0.5042
0.3659
0.2523
0.01556
0.4119
0.2108
0.2651
0.3867
0.3287
0.3666
0.3404
0.08239
0.3205
0.2196
0.2704
0.4482
0.5046
0.01996
0.2508
0.2114
0.4926
0.3579
0.3485
0.3105
0.2213
0.07497
0.3854
0.484
0.3128
0.3441
0.398
0.3626
0.3646
0.3092
0.1898
0.2977
0.3402
0.6018
0.4482
0.4956
0.2357
0.395
0.4649
0.3541
0.3187
0.4856
0.2214
0.2867
0.5822
0.5136
0.1948
0.2373
0.14
0.3596
0.3589
0.5318
0.137
0.4464
0.153
0.4671
0.4963
0.4407
0.4562
0.1932
0.4162
1.288
0.2746
0.3867
0.2711
0.2044
0.3167
0.4246
0.244
0.1725
0.4851
0.2509
0.4397
0.1986
0.5088
0.4997
0.01648
0.481
0.3283
0.01455
0.1945
0.4029
0.3938
0.635
0.02858
0.3304
0.3362
0.2749
0.3007
0.2648
0.2968
0.05207
0.4536
0.3591
0.5089
0.09801
0.1548
0.4095
0.03889
0.03578
0.1743
0.2772
0.1214
0.3567
0.506
0.4324
0.5143
0.214
0.01821
0.4587
0.3089
0.3572
0.3756
0.3487
0.1558
0.006163
0.1427
0.2046
0.1624
0.1631
0.3982
0.1894
0.1762
0.5218
0.3183
0.3444
0.1118
0.3736
0.005953
0.3009
0.3242
0.07741
0.5141
0.3651
0.4377
0.437
0.3981
0.4041
0.3698
0.4749
0.2307
0.3843
0.3004
0.2385
0.1063
0.4183
0.3853
0.2295
0.4529
0.8069
0.2341
0.188
0.3532
0.2936
0.1775
0.3399
0.3578
0.4925
0.3904
0.2065
0.4855
0.2224
0.1047
0.394
0.3394
0.3641
0.2968
0.3747
0.4779
0.3202
0.2225
0.3219
0.2647
0.2814
0.4232
0.1895
0.6003
0.4073
0.443
0.2829
0.3895
0.1602
0.4196
0.4259
0.4934
0.3968
0.3406
0.5522
0.2987
0.5036
0.2501
0.4855
0.4738
0.4171
0.33
0.2357
0.4863
0.08823
0.3812
0.5177
0.437
0.01099
0.276
0.2642
0.37
0.06353
0.6482
0.04933
0.1675
0.2855
0.3118
0.3348
0.3003
0.3607
0.378
0.2751
0.306
0.328
0.2801
0.1264
0.4589
0.294
0.2564
0.2211
0.386
0.01295
0.2806
0.0416
0.2036
0.2785
0.09071
0.01554
0.3131
0.1662
0.1413
0.6013
0.01157
0.3314
0.588
0.2011
0.2081
0.7245
0.203
0.5306
0.2189
0.2355
0.426
0.3207
0.4896
0.2004
0.2457
0.1728
0.2317
0.4844
0.5485
0.009556
0.06772
0.4343
0.4489
0.2103
0.1936
0.4169
0.5399
0.4879
0.2226
0.1741
0.2578
0.4668
0.4263
0.008078
0.3895
0.3558
0.1946
0.1867
0.2961
0.2323
0.4076
0.5122
0.374
0.3179
0.4245
0.2298
0.4209
0.5845
0.4714
0.5093
0.2378
0.5407
0.1968
0.02841
0.5849
0.5108
0.4881
0.03608
0.2823
0.3911
0.1424
0.8535
0.434
0.4187
0.2337
0.4653
0.4757
0.3066
0.2233
0.3606
0.3366
0.3346
0.178
0.2791
0.1912
0.1525
0.3003
0.04042
0.1987
0.2912
0.1623
0.5123
0.2451
0.4987
1.074
0.2274
0.3361
0.4367
0.2255
0.005941
0.3363
0.2537
0.3617
0.191
0.4041
0.04102
0.4947
0.1577
0.2167
0.6583
0.172
0.4629
0.3864
0.4615
0.4784
0.2911
0.2978
0.3772
0.005587
0.4216
0.4266
0.3501
0.1713
0.3273
0.1878
0.1858
0.2632
0.3368
0.3335
0.2121
1.034
0.3663
0.1809
0.006342
0.1724
0.1733
0.4375
0.4315
0.4143
0.42
0.3709
0.5751
0.3497
0.3338
0.2426
0.4876
0.3592
0.01293
0.02655
0.4472
0.1559
0.3556
0.2367
0.09901
0.2354
0.1939
0.2398
0.1182
0.2695
0.1615
0.1966
0.6209
0.4934
0.3365
0.3857
0.3364
0.3575