/*--------------------------------*- C++ -*----------------------------------*\
| =========                 |                                                 |
| \\      /  F ield         | OpenFOAM: The Open Source CFD Toolbox           |
|  \\    /   O peration     | Version:  v2012                                 |
|   \\  /    A nd           | Website:  www.openfoam.com                      |
|    \\/     M anipulation  |                                                 |
\*---------------------------------------------------------------------------*/
FoamFile
{
    version     2.0;
    format      ascii;
    class       surfaceScalarField;
    location    "5";
    object      phi;
}
// * * * * * * * * * * * * * * * * * * * * * * * * * * * * * * * * * * * * * //

dimensions      [0 3 -1 0 0 0 0];
oriented        oriented;


internalField   nonuniform List<scalar> 
189008
(
2.522e-07
-2.522e-07
-8.302e-08
8.302e-08
-1.951e-08
1.951e-08
-2.109e-08
2.109e-08
-5.19e-06
5.19e-06
-1.763e-08
1.763e-08
1.11e-05
-1.11e-05
-5.549e-06
5.549e-06
-3.409e-06
3.409e-06
-1.391e-05
1.391e-05
6.94e-06
-6.94e-06
-4.795e-06
4.795e-06
-7.626e-08
7.626e-08
1.477e-08
-1.477e-08
0.0002386
-0.0002439
5.272e-06
1.451e-05
-1.659e-05
2.088e-06
1.647e-07
-1.647e-07
0.02398
-0.01007
-0.0139
0.003628
-0.002434
-0.001194
-3.717e-05
3.7e-05
1.781e-07
-0.00158
0.001363
0.0002174
-6.647e-06
3.578e-06
3.069e-06
-0.002229
0.009526
-0.007297
1.292e-05
0.0004677
-0.0004806
-4.117e-06
-2.531e-06
-0.0004411
0.0002359
0.0002052
0.0001845
-0.0002043
1.973e-05
0.0002039
-1.931e-05
0.0002877
-0.0002206
-6.718e-05
0.01474
-0.0259
0.01116
-5.494e-05
-0.0002288
0.0002837
-0.0001327
-0.0003084
0.0001515
-0.0001016
-4.99e-05
0.0003469
-0.000199
-0.0001479
0.01237
0.009543
-0.02191
5.022e-05
0.0001013
-4.405e-05
-0.0003357
0.0003797
-0.003229
0.003874
-0.0006447
-3.755e-05
0.0004856
-0.000448
-0.0001272
0.0001336
-6.382e-06
0.001968
0.00166
0.001124
-0.002814
0.00169
-7.046e-05
-0.00331
0.00338
2.137e-07
-2.137e-07
0.0005126
0.02347
0.0001985
0.0001484
0.0001856
0.0001021
0.0006857
-0.0006908
5.08e-06
-0.0007335
0.000893
-0.0001595
-2.321e-05
0.0003991
-0.0003759
4.785e-06
9.722e-06
-0.009581
-0.03121
0.0408
0.0004566
0.0001864
-0.000643
-0.01057
0.008625
0.001944
1.093
-0.1319
-0.9607
0.001058
-0.0008282
-0.0002298
-0.1436
1.236
0.009609
-0.006081
-0.003528
-0.3084
0.01951
0.2889
-0.005333
-0.005236
-0.002111
-0.0006441
0.002755
0.001185
-0.002022
0.0008372
-0.0001364
0.001168
-0.001031
-0.8106
0.9573
-0.1467
0.0002262
-0.0005462
0.00032
-0.000126
-0.003396
0.003522
-0.02546
0.01929
0.006179
0.001446
-0.001194
-0.0002526
0.0004003
0.001046
-1.278
0.4788
0.7989
-6.297e-05
-0.000308
0.0003709
-7.875e-05
-0.0001255
0.0005272
0.002161
-0.002689
-0.1148
-0.1936
-0.2797
0.5204
-0.2407
8.417e-05
0.0001197
-0.04787
0.08851
-0.04064
0.0007555
-0.0007024
-5.307e-05
0.0005299
0.0005281
0.1612
-0.6347
0.4735
-0.0002846
0.0002151
6.946e-05
-2.01e-05
-1.707e-05
-0.0002269
-0.0003025
0.0005294
1.022e-05
8.41e-05
-9.432e-05
-0.0005526
0.0008018
-0.0002492
0.0004185
-0.0006486
0.0002301
-0.0005011
0.0009711
-0.0004701
-0.0002216
6.73e-05
0.0001543
-0.003107
0.002981
-0.0003339
0.0005392
-0.0002053
0.1802
-0.01417
-0.166
-0.005602
-0.002347
0.007949
-0.000275
0.0007075
-0.0004325
-0.0008842
-0.0006959
-0.0008049
0.0008263
-2.14e-05
0.02021
0.01338
-0.03359
0.002694
-0.00157
0.0003218
-0.0003252
3.459e-06
0.0006351
0.0001272
-0.0007623
-0.01753
-0.007937
0.687
-0.5258
-1.088e-05
-0.0007227
-6.449e-05
-0.0001632
0.0002277
0.003262
-0.003927
0.000665
-0.0001257
0.0005443
0.0008405
-0.0002054
-0.0008325
0.001199
-0.0003664
-1
-0.2772
-0.001397
0.0006648
0.0007317
-1.171
0.8885
0.2823
0.0002329
5.785e-06
-0.0001591
-6.255e-05
0.001214
-0.0001892
-0.001025
-0.0001001
-0.0002731
0.0003732
-0.2103
0.09687
0.1134
0.0005854
0.002041
-0.002626
-0.1024
0.05703
0.04541
0.1616
-0.4413
0.02508
-0.07295
-6.985e-07
5.683e-07
1.302e-07
-1.27
0.09903
-0.0001131
-0.0002371
0.0003502
-0.0004028
-0.0007517
0.001155
0.0121
-0.01014
-0.001956
-0.000185
-9.954e-05
0.000361
-0.0003328
-2.819e-05
0.001088
0.000496
-0.001584
0.08795
-0.1008
0.01288
0.001309
-0.0005106
-0.0007986
-0.0007216
0.0005759
0.0001457
-0.0006369
0.0002016
0.0004354
-0.0006602
0.0002559
0.0004043
-0.0002358
-0.0008766
0.001112
0.0003176
0.0004378
-3.95e-07
2.931e-07
1.019e-07
-0.0006729
3.596e-05
-0.005604
0.0305
-0.0249
0.000686
-0.001249
0.0005632
-0.0002535
0.0002942
-4.067e-05
0.02768
-0.04695
0.01927
0.009365
-6.863e-05
-0.009296
-0.0481
-0.03881
0.08691
0.001306
-0.001515
0.0002086
0.002902
-0.001593
-0.001309
0.00073
-0.0002734
0.0011
-0.0003558
-0.000744
2.334e-06
3.778e-06
-6.112e-06
-0.02676
-0.7838
-0.000819
0.0001587
0.0001632
-0.0002538
9.057e-05
0.001859
-0.002705
0.0008466
0.001006
-0.0002714
-0.0007346
0.002609
-0.004545
0.001937
-0.008206
-0.0005835
0.008789
0.0003488
-0.0006428
0.000294
-0.000648
9.542e-05
0.006238
0.003371
0.0007299
-0.0005874
-0.0001426
0.0001483
0.0005374
0.0001503
-0.0003
0.0001497
-0.0002606
0.0004829
-0.0002223
-5.242e-05
5.242e-05
0.1922
-0.01204
-0.0008082
0.0002511
0.0005571
0.000179
-0.0004003
0.0002213
-0.0001765
0.0004027
0.0003822
-4.464e-05
-0.0003376
0.0004101
0.001733
-0.002143
-0.0005757
0.000433
0.0001427
-0.03925
0.03203
0.007219
-1.843e-05
-3.542e-05
5.385e-05
0.001883
0.001019
-0.003813
0.001574
0.002239
-0.002559
0.0008142
0.001744
1.003
-1.17
0.1671
0.0002561
-0.0002194
-3.675e-05
-0.0006126
0.0002964
0.0003162
0.0007326
0.0005765
-0.000361
0.000722
-0.000361
0.1117
-0.1334
0.02166
-0.00167
-0.0008887
-0.1162
-0.005804
0.122
-4.091e-07
-0.000182
0.0001824
0.0001135
0.0001427
-0.000291
-0.0004306
-0.0006798
0.001865
-0.0004366
-0.005465
0.005902
-0.0004564
0.0003564
0.0004464
-0.0004335
-0.006317
0.07951
-0.07319
6.247e-05
-0.0004814
0.0004189
0.0003954
7.76e-05
-0.000473
-0.03734
0.03174
0.0003109
-0.0004342
0.0001233
-2.303e-07
-0.0003655
-0.001402
0.001767
-1.468
1.197
0.2708
-1.466
1.196
0.2706
8.116e-06
3.107e-06
-1.122e-05
-0.163
0.1302
0.03276
0.2094
-0.04286
-0.1666
-0.05413
0.0463
0.007829
0.01968
-0.0535
0.03383
-0.0003283
0.0002843
2.219e-08
-2.22e-08
0.0002162
-0.0007807
0.0005645
0.02567
-0.008656
-0.01702
0.002245
-0.0005273
-0.001718
0.03662
-0.02188
-0.2054
-0.00484
-0.0005414
-0.01362
0.01416
0.0007652
-0.0004017
-0.0003635
-0.06526
0.2023
-0.1371
-0.0002551
-0.0003205
-6.35e-06
0.0003231
-0.0003167
6.291e-06
-8.667e-06
2.376e-06
5.088e-05
-4.64e-05
-4.478e-06
0.00292
-0.001752
-0.001167
0.000197
-0.0006612
0.0004642
0.02056
0.005115
-0.0005006
0.0001473
0.0003533
-0.4687
0.2179
0.2507
0.0008827
0.0001233
-0.0005336
0.0007644
-0.0002308
0.000145
9.071e-05
-0.0002357
7.39e-05
-6.192e-05
-1.199e-05
-0.0002871
0.0004661
1.863e-05
-0.003248
-0.0001107
0.0001121
-1.425e-06
-0.0009514
0.000841
0.0001104
0.001421
-0.0003998
-0.001021
-0.04182
-0.07441
0.0026
-0.002073
-2.347e-07
6.138e-07
-3.791e-07
0.0008452
0.0005761
-0.02108
0.01719
0.00389
-0.0002622
-0.0005461
1.222e-06
-1.222e-06
0.2271
-0.01765
0.0008417
-0.0001395
-0.0007022
0.0006904
-0.000295
0.0003155
-0.0006788
0.0003632
-0.0005561
0.0003631
0.000193
0.0003769
0.000353
0.000441
0.0002583
-0.0006993
-4.322e-07
-2.662e-07
0.0007945
0.0003717
-0.001166
-0.0002048
0.000184
2.085e-05
-9.257e-06
9.257e-06
0.1912
-0.9539
0.7627
-0.0007252
-0.001248
0.001973
-0.0001141
0.0002936
-0.0001795
0.001992
-0.0009449
-0.001047
0.001995
-0.0006307
-0.001364
-0.0001584
0.0007361
-0.0005776
0.0007596
-0.0004264
-0.0003331
0.1145
-0.02653
7.835e-05
-0.0003651
0.0002868
-0.000167
0.001301
-0.001134
-0.009145
0.0005394
0.008605
-0.0024
0.001238
0.001163
-0.05789
0.0936
-0.03571
-0.01023
0.004625
-0.08592
0.03781
-0.0006714
-0.0007167
0.001388
5.007e-05
0.0004367
-0.0004868
-0.0001824
0.0003815
-0.0001991
0.0002343
-0.0005126
0.0002783
-0.0008099
-0.001252
0.002062
0.00144
-0.003797
0.002357
-0.0004981
-8.219e-06
0.0005063
0.8406
0.1621
-0.0006805
0.0008735
-0.000193
0.0009302
-8.851e-05
0.0008144
-0.001388
0.0005734
-0.000545
0.0006075
0.0006492
0.0005652
0.0008902
-0.001045
0.0001544
-0.3691
-0.4225
0.7916
0.0007673
0.001236
-0.002003
-0.533
-0.3387
0.8716
0.03392
-0.01371
0.00326
1.889e-06
-0.08908
-0.1646
0.2536
0.05012
0.1163
-0.1664
-5.751e-07
1.647e-07
4.104e-07
0.0006946
-0.0005608
-0.0001338
-0.07655
-0.0993
0.1758
0.001127
-0.0008342
-0.0002929
0.1561
-0.04441
-0.0007868
0.003396
-0.002037
0.005017
-0.00298
-0.009146
-0.01193
0.0008836
0.001147
-0.002031
-0.2008
0.2384
-0.03761
-0.0005455
0.0009796
-0.0004342
-0.0002017
-0.0001496
0.0003513
0.0001011
-0.0001084
7.32e-06
-0.0001909
-0.0003652
0.002731
-0.001291
-0.0001914
-0.0003346
0.000526
-0.004017
0.001327
0.00269
-0.001031
-0.002097
0.003128
0.003153
-0.002567
-0.0001245
0.0002166
-9.209e-05
0.0007588
0.0001337
-0.0008926
0.002046
0.0001997
-0.1847
0.1195
-0.004467
0.002213
0.002253
-0.002288
0.002325
-3.686e-05
0.0009451
8.912e-05
-0.001034
4.546e-05
-1.301e-05
-3.245e-05
-0.0007348
0.0004811
0.0002536
-0.8381
0.3052
-0.2536
0.1325
0.1211
0.000281
6.556e-05
-0.0003465
0.002195
-0.002945
0.0007501
-0.0001605
-0.0002693
0.0004298
0.01311
-0.00763
-0.005477
0.1794
-0.1698
-0.009647
0.009437
-0.01167
-0.0003441
-2.383e-05
0.000368
0.08947
-0.04988
-0.03959
0.0014
0.0005917
0.0003976
-0.0001166
-0.0007072
0.001835
-0.001128
-0.01354
0.02948
-0.01593
0.0002668
-0.0003773
0.0001106
0.0006753
-0.0003092
-0.0003661
-0.001378
0.0004822
0.0008955
0.00202
-0.001105
-0.0009154
0.1961
-0.146
-0.004429
0.0168
-0.4999
-0.9681
-0.4993
-0.9672
-0.01077
0.002565
-0.001112
0.0009301
0.000182
-0.003676
-0.0001376
0.0006345
0.001386
6.126e-05
0.0004963
-0.0005576
-0.01227
0.03995
0.001996
0.0009239
-0.0008393
0.0002931
0.0005462
5.83e-05
0.0003091
-0.0003674
-0.001169
0.001029
0.0001407
0.000324
0.000803
0.0004986
-0.0001968
-0.0003018
-0.0007005
0.0008853
-0.0001848
0.0006308
-0.0004367
-0.0001941
-0.0002092
0.001074
-0.0008644
-0.0008075
0.0006316
0.0001759
-0.002761
0.00368
-0.0009185
3.146e-05
-0.0002061
0.0001747
-0.0004867
-0.0008186
-0.02621
0.02703
0.0005879
-0.000516
-7.196e-05
0.001608
0.0003865
-0.0003699
-0.0007671
0.001137
0.2818
-0.3892
0.1073
0.0005119
0.0001633
-0.0004434
0.0008345
-0.0003911
-0.001305
0.001169
-0.005607
-0.004503
0.01011
0.0007266
-0.0007598
3.317e-05
-6.996e-05
0.0005686
-0.0004986
0.3844
0.134
-0.5184
-0.1144
-0.04854
-0.1727
0.2386
-0.06583
0.0003232
-0.0003913
6.811e-05
0.4167
-0.7858
-0.001537
0.002224
-0.000687
0.05636
0.03311
0.0002389
-0.000353
5.74e-05
-0.000464
0.0004066
0.1063
-0.1126
0.02421
-0.009473
-0.01473
-0.0001433
0.0006856
-0.0005423
1.912e-06
2.738e-07
-2.186e-06
0.0005691
-0.0009979
0.0004288
0.8912
-0.6656
-0.2256
0.0004462
0.005506
-0.005953
7.837e-05
0.0002826
-0.00082
0.0005843
0.0002357
0.006275
-0.00472
-0.001555
-0.08379
-0.01865
2.39e-05
3.575e-06
-2.747e-05
0.01397
-0.01879
0.004819
-7.675e-06
-0.0001195
0.001305
-0.001741
0.0004358
-0.001116
-0.002116
0.003232
0.2467
-0.2556
0.008942
0.006438
-0.005202
-0.001237
-2.562e-05
9.638e-05
-7.076e-05
0.0002048
0.0005428
-0.0007476
-0.0005971
0.0006618
-6.468e-05
-0.0001354
0.0002847
-0.0001494
0.004564
0.001874
-0.0003162
0.0002613
-0.02127
0.02045
0.01435
-0.07225
8.812e-05
-0.000148
5.986e-05
-0.5083
0.03968
0.001701
4.193e-05
-0.001743
0.0001958
-0.0001962
-0.001732
0.0157
-0.00326
0.002593
0.0006672
0.0002438
-0.000793
0.0005492
-0.001596
0.001586
9.96e-06
0.1104
0.4881
-0.5985
0.0003548
-0.0007158
-0.0003102
-0.0002077
0.000518
-0.0007408
-1.465e-05
0.0007554
0.001698
0.007667
0.000108
0.00046
-0.0005681
-0.001105
0.0007022
-0.000265
-0.0005399
0.001074
-0.0009228
-0.0001508
-0.000608
0.0001099
-0.00082
0.002482
-0.001662
-0.0008477
0.0001547
0.000693
0.0004281
-4.589e-05
9.277e-05
-8.56e-05
-7.171e-06
0.0004319
-0.0004639
3.199e-05
-0.6689
0.8601
-0.001263
0.0003115
0.006131
-0.009381
0.003249
-0.003262
0.003192
-0.01153
0.0001721
0.01136
0.0004507
-0.0001352
-0.008898
-0.008175
0.01707
-1.286
1.449
-0.1629
-0.000569
0.0005764
-7.348e-06
0.0001485
0.0001205
-0.0002689
0.002056
0.008211
-0.01027
0.002593
-0.002786
0.0001931
0.5738
-0.1894
0.0008187
-0.001621
0.0008026
0.0001057
-0.000464
0.0003583
-0.05537
0.04579
-0.01793
-0.1829
0.7043
-0.6549
-0.04943
0.0005378
-0.000561
0.054
-0.02349
-0.0003595
-0.0001519
0.0005114
0.0492
-0.05236
0.003156
4.243e-05
0.0002793
-0.008656
-0.132
0.1407
0.0006748
-0.0004851
-0.0001897
0.05458
-0.2273
0.0002569
0.0005083
-0.001015
0.001069
-5.367e-05
-0.0007966
0.0004444
0.0003523
-0.0009694
0.002202
-0.001233
0.0001989
-0.0003984
0.0001996
-0.01895
0.008488
0.01046
-0.0005211
0.0002773
0.0002437
0.0004127
0.0001487
-0.0005614
-0.0005994
6.311e-05
0.0005363
-0.000584
0.0001311
0.0004529
0.000999
0.005045
-0.006044
-0.001803
0.001567
0.0003796
0.0006436
-0.001023
0.0009095
-0.002944
0.002035
0.0006624
-0.001033
0.0003702
-0.0005584
0.000938
0.3391
-0.916
0.5769
0.1194
-0.003163
-0.1163
0.001753
-0.0007554
-0.000998
-0.000381
0.0004059
-2.491e-05
-1.552
0.1242
1.428
-0.001325
0.0008237
0.000501
-0.00342
0.009342
-0.005922
0.00476
0.007337
-0.0006241
0.002819
0.02978
-0.01489
-0.0149
1.43
-0.2701
-1.16
0.000209
-0.0005741
0.0003651
-0.0081
0.00468
-0.0001616
0.000141
2.063e-05
-0.0008978
0.0004488
0.000449
0.0002435
-0.0001705
-7.296e-05
0.0005711
-5.686e-05
-0.0005142
0.0005134
-8.375e-05
-0.0004296
-0.000406
-0.0003288
-0.0007973
9.506e-05
0.0007022
0.00052
0.002073
0.001002
-0.0003308
-0.0006715
-0.1215
0.2567
-0.1353
-0.0002277
0.000378
-0.09803
0.08032
0.01771
0.0005191
-0.0004512
-6.792e-05
0.0004615
-0.0009626
-0.000794
0.0007196
7.438e-05
6.037e-05
-0.001069
0.001009
1.532e-08
6.873e-09
0.000719
-0.0003569
-0.0003621
-0.001183
0.00083
0.0003527
0.0262
-0.01508
-0.01111
0.001264
-0.001816
0.0005519
-0.281
0.2308
0.05024
0.0001765
6.701e-05
0.1138
0.005578
-0.0003083
-1.321e-05
0.0003216
-0.001586
0.00122
3.197e-07
-3.197e-07
8.287e-08
1.47e-06
-1.552e-06
1.197e-06
-1.097e-06
-1.007e-07
1.201
-0.8208
-0.3803
0.0002863
0.0003016
-0.0001858
0.0009102
-0.0007243
-0.1426
-0.111
0.001147
-6.243e-05
-0.001084
-0.0002925
0.0009085
-0.0006159
0.0004326
-0.000468
3.547e-05
0.002635
-0.0002075
-0.002427
-2.404e-05
-0.0009912
-0.0006721
-0.0001245
-0.0008327
-0.000492
-0.0002194
0.0002013
1.808e-05
-0.4267
0.7658
0.0006405
-0.0002216
-0.0004189
-4.051e-06
3.855e-06
1.959e-07
0.0005639
-0.000643
7.915e-05
0.0004626
-0.0001111
-0.0003515
-7.131e-05
5.288e-05
0.06247
-0.1773
0.002441
-0.000582
-0.04019
0.05987
0.003032
-0.002122
0.04444
0.2414
-0.2859
-0.0003823
9.328e-05
0.000289
-9.412e-05
-0.0001321
0.0002262
-0.0001442
0.0001348
9.391e-06
1.532
-0.9056
-0.6264
0.00142
0.0003329
0.009277
0.002902
-0.01218
-3.589e-05
4.487e-05
-8.978e-06
-0.0007097
-3.826e-05
0.0007479
0.0003643
-1.799e-05
-0.0003463
-0.004188
0.0008365
0.003351
-0.102
0.09807
0.00391
-3.836e-05
0.0001859
-0.0001476
0.0009581
0.0007134
-0.001672
-0.8104
-0.7417
0.002259
-0.004365
0.0006346
0.003731
-0.0004018
0.0002001
0.0002442
0.0004825
-5.848e-06
-0.0003752
-0.0002595
4.313e-05
0.0002164
0.001542
-0.0002371
-0.002742
0.002813
-7.122e-05
0.0008352
1.586e-06
-0.0008368
-0.0002317
0.0005003
-0.0002687
-0.0001451
-0.0004239
0.1162
0.05303
-0.1693
-0.0001572
0.0001052
5.194e-05
-7.531e-05
0.0004896
-0.0004143
0.000587
-0.0006635
7.646e-05
0.0007462
-0.001595
0.000849
-0.0002364
0.000392
-0.0001556
-0.7899
0.113
0.6769
-0.7881
0.6287
0.1594
0.001134
-0.01028
0.0004666
3.2e-05
-0.000621
-0.0007432
0.001364
0.136
-0.2048
0.06884
1.475
-0.6518
-0.8231
-0.001491
0.002449
-0.0009577
0.0002904
-0.0004334
0.0001431
0.0009195
-0.0003852
-0.0005342
-0.0007581
-3.922e-05
-0.0001588
-1.658e-05
0.0001753
0.0001444
-0.0001333
-1.114e-05
-0.002756
0.002659
9.649e-05
-0.1397
0.09703
0.04266
1.414
-1.29
-0.1239
0.0001466
-7.144e-05
-7.511e-05
0.0002726
0.000516
-0.0007886
0.0004507
-0.001409
0.0009588
0.3072
0.5193
-0.8265
-6.8e-05
-0.0001368
0.00171
-0.001992
0.0002826
0.0004439
-0.0004324
-1.145e-05
0.4687
-0.0004947
0.0005809
-8.611e-05
-0.02626
0.1623
-0.0003292
0.000573
0.0003787
-2.715e-05
-0.0003515
0.003631
-0.004519
0.0008878
0.9762
0.1608
-1.137
5.178e-05
0.0002016
-0.0002534
-0.001744
-0.0006564
-0.0001186
6.622e-05
0.3947
1.035
0.0003257
-0.001158
3.64e-05
1.447e-05
0.4007
0.3036
-0.001238
-0.002021
-0.1629
0.006411
0.1565
-0.0002641
-0.0003255
0.0005895
0.001385
-0.0004053
-0.0009792
-0.2772
0.1881
-0.000439
0.0003977
4.129e-05
0.0002498
0.0004993
-0.0007491
6.209e-05
-2.56e-05
-3.649e-05
0.000359
0.0002742
-0.0006333
0.001892
-0.001055
-0.0008368
-0.0002116
-0.0005959
-0.0002511
-0.0005689
0.0006403
0.000183
-0.0008232
0.0005411
-0.0005787
0.0004102
-0.0006853
0.0004446
-0.0007604
0.0003158
-0.0002112
0.0002141
-2.887e-06
-0.001419
0.001082
0.0003371
0.0004216
-0.0003065
-0.000115
-0.5997
0.9069
0.0008366
-0.0005609
-0.0002758
0.1072
-0.1918
0.08465
-0.0004741
-0.0006952
-0.1214
0.03265
0.08871
-0.0002599
0.001566
-0.3452
-0.9407
-0.1508
0.07429
-0.001841
-0.004065
0.005906
-0.0004079
-0.0004398
0.0006342
0.000442
-0.001076
-1.044
0.1262
0.9177
1.123
-0.9132
-0.21
-0.0001676
5.695e-05
0.0001785
0.0001317
-0.0003102
0.0002104
-0.0004373
-0.0005905
0.000229
0.0003615
-0.001532
0.0006608
0.0008711
0.0003391
-0.0006986
0.0008679
-0.00124
0.0003719
-0.0007773
0.000467
0.0006235
-0.0003143
0.0001206
-0.0003317
0.0002111
0.0002428
7.372e-05
-0.0003165
-1.167
0.1233
-0.0001756
-0.0005174
0.000693
-4.408e-05
0.0005383
-0.0004943
0.0001039
-0.004381
0.004277
0.006613
-0.00317
-0.003443
0.1841
-0.2395
0.05545
1.032
0.4428
0.001206
-0.001913
-1.433e-05
-0.0002392
0.0004192
0.0005832
-4.011e-05
2.624e-05
1.387e-05
-0.07321
-0.04815
-0.9816
-0.4045
1.386
0.0002438
0.0001773
-0.0004212
0.0006876
-5.794e-06
-0.0006818
-0.0484
-0.005731
-0.0001577
-0.0001948
0.0003526
0.01354
-0.002402
-0.01114
-0.02992
0.07744
-0.04752
0.0005055
-0.0001978
-0.0003077
0.002062
-0.002532
0.0004699
0.0005726
-0.0006167
0.005289
-0.009578
0.004289
-3.956e-07
3.956e-07
9.505e-05
-2.115e-05
-7.187e-05
-0.0005121
-0.0003758
-0.0001453
0.0003614
0.0003332
-0.0004525
-0.0002126
0.000665
-0.0004692
-2.553e-05
0.0003158
-0.0005771
0.0002613
0.05513
0.004249
-0.05938
-0.00102
0.0003456
0.0006749
-8.68e-05
6.008e-05
2.672e-05
0.0004266
0.001274
0.7559
-1.085
0.3295
0.001066
-0.0001758
-0.004964
0.004197
0.0007673
0.002492
-0.003966
0.001474
1.081
0.4513
-0.0258
0.7817
7.042e-06
4.231e-06
-1.127e-05
0.02056
0.005638
0.0003667
-0.0006717
0.000305
-0.0003815
0.000387
-5.528e-06
-0.0003933
0.0007064
-0.0003131
-0.003402
-0.001064
0.002411
0.002981
-0.005392
0.0003103
-0.0001653
0.004492
-0.006885
0.002394
0.0009331
-0.0007906
-0.0001425
-0.1564
-0.1966
0.3531
1.067
-0.04444
-1.023
-0.002004
-0.0001413
0.002145
-0.001978
0.008109
-0.0001002
0.0004233
-0.0008322
0.003325
0.000431
-0.0004814
5.033e-05
-0.001698
0.0006098
0.001088
0.0003065
0.000187
-0.0004936
-0.01589
0.01535
0.002981
-0.008588
-1.117
-0.3847
1.502
-0.0001407
0.0002664
-0.0001258
0.0231
0.006682
-0.001069
0.0007904
0.0002785
-2.554e-07
-0.001825
0.0005255
0.001299
-0.001906
0.001235
-0.0003232
0.0008924
1.253
-0.277
-0.001225
0.001394
-0.0001697
-0.0002768
-0.0004604
0.0007372
4.828e-05
-5.012e-05
1.837e-06
0.0001855
0.004042
-0.004228
-0.00138
-0.0007212
0.002101
0.0004095
0.000214
-8.881e-05
0.000252
0.0005064
0.0005672
0.0001436
-0.000491
0.0003474
-0.001361
-0.00075
0.002111
0.0005397
-0.0006981
0.0009353
-0.001617
0.000682
-0.002451
0.0001627
-6.821e-05
0.001156
0.003095
-0.005529
0.002434
-3.712e-07
3.712e-07
-0.00122
-0.003744
-0.06263
0.02337
0.0001402
-0.001155
0.001015
0.0001845
0.0003317
-0.0005162
1.911e-06
0.0008164
-0.0008183
0.1078
0.3766
-0.4844
0.0001694
-3.427e-05
-0.0001351
0.0005089
-0.00327
0.0008001
0.0001194
-1.506
0.5244
-1.05e-05
-2.961e-05
0.0005269
-9.498e-05
0.0004891
-0.0005731
8.406e-05
-0.3855
-0.6309
1.016
-4.706e-05
0.0003629
-0.000209
0.0002414
-3.242e-05
-0.0001627
0.0005269
-0.0003642
-0.0001622
0.0006621
-0.0004999
-1.189
0.8038
0.000875
-0.0005327
-0.0003424
-5.564e-05
1.573e-05
3.991e-05
-0.0002808
0.0004494
-0.0001687
0.001686
-0.001608
-7.704e-05
-0.1543
0.063
0.09134
-0.0006875
-0.0001518
-0.0002817
8.077e-05
0.0002009
-0.161
0.17
-0.008976
0.002232
0.0004193
-0.002651
-0.003416
0.003392
2.41e-05
-0.0005628
0.0001104
0.0004852
0.0002337
-0.002369
0.003696
-0.002069
0.0002439
-2.252e-05
-0.0003689
0.0003914
0.0001333
-0.0003157
0.2827
0.5894
-0.8722
0.000647
0.000228
0.001007
-0.001585
0.0005778
0.0001562
-0.000159
2.803e-06
-0.0001428
-0.000598
-0.01113
0.008806
0.002321
0.001353
-0.0002057
-5.339e-05
-0.0002062
1.032
-0.7492
-5.153e-05
0.0004841
0.0002242
0.0002813
-0.0004467
-0.0002171
0.0006637
9.731e-07
-1.208e-06
0.0002693
-0.000716
-6.205e-05
-8.215e-05
-0.0009012
-0.0001915
0.001093
-0.0004874
0.0002767
0.0002107
-0.004062
0.001034
0.003028
0.1739
1.027
-2.058e-07
2.058e-07
-0.0002022
-0.0002904
0.0004926
-0.0002897
0.0006487
-0.0001215
0.0001097
1.185e-05
0.0001812
-0.0004312
0.00025
-3.426e-05
0.0002115
-0.0001772
0.0004373
-7.431e-05
-0.000363
-0.0004547
0.0003917
0.564
0.8499
-0.001102
-0.001942
0.003044
-0.003283
0.0009014
0.002382
-1.494
0.3763
0.0002605
-0.0004558
0.0001953
8.171e-05
0.0004374
0.00152
-0.0005751
0.0008539
0.0003185
-0.001172
0.1397
-1.026
0.8868
-0.0001833
0.001051
-0.0002871
9.787e-05
0.0001892
-0.2779
-0.7219
0.8616
0.00407
0.002543
0.00202
-0.002427
0.0004074
-0.0006083
-0.0009237
0.0002242
9.431e-06
-0.0002336
0.0008437
-0.0007156
-0.0001281
2.206e-05
-7.641e-07
-2.129e-05
-0.003021
0.0007198
0.002302
-0.004
0.005909
-0.001909
-0.8115
-0.2738
0.0007112
-0.0001926
-0.0005186
0.0004685
-0.000222
-0.0002465
0.0003968
-0.0003255
-7.132e-05
0.0001257
-0.0002502
0.002325
-0.001915
1.069
0.08827
-1.157
0.2733
-0.2108
0.06418
-0.1119
0.04772
0.0001664
-3.994e-05
-0.0001265
0.04611
-0.8577
0.02289
-0.01449
-0.008399
-0.0001573
0.0003381
-0.0001808
-0.0006056
-0.0007438
0.001349
0.0002195
0.0001052
-0.0003247
-0.2183
0.833
-0.6146
0.0004759
-0.0002399
-0.000236
-0.0002677
0.001549
-0.001282
-0.2407
-0.01312
0.2538
0.0003026
0.0003281
0.6957
0.4771
-1.173
-0.0004545
-0.0002687
0.0007231
-6.193e-05
-4.628e-05
0.0001082
-0.0006697
0.0003278
0.0003419
-0.0004171
-0.001263
0.00168
4.382e-05
4.714e-05
-9.096e-05
0.1848
-0.0554
-0.1294
-0.0002446
-0.0002177
0.0004623
-0.0089
0.009609
-0.0007088
-0.0003036
-7.865e-05
7.392e-05
-6.895e-05
-4.97e-06
-0.0003005
-0.0003268
0.0006273
0.0001806
6.392e-05
-0.0002445
-0.006696
-0.004431
0.004788
-0.005197
0.0004092
0.001943
-0.0003021
-0.001641
0.0001436
-0.0001436
-0.3392
0.1942
0.145
-0.00352
0.005255
-0.001735
0.0008356
-0.0005215
-0.0003141
-0.0004172
0.00075
-0.0003328
-7.33e-05
-1.35e-05
0.0002574
-0.0002256
-3.179e-05
-0.1208
1.19
0.03232
-0.01802
-0.0143
0.0001008
4.576e-05
-0.0003293
1.589e-05
0.0003134
7.137e-05
-0.0001003
2.891e-05
-0.000713
0.001585
-0.0008716
1.556e-05
-1.556e-05
-0.0007186
0.0007547
-3.614e-05
-8.69e-05
8.69e-05
0.000942
-0.0003264
-0.0006156
-7.938e-05
-5.188e-05
0.0001313
-0.002924
0.001822
7.163e-05
-5.039e-05
-2.123e-05
0.09495
-0.06952
-0.02543
0.001368
-0.001033
-0.0003356
1.095
-1.519
0.4242
1.315
-1.737
0.4217
0.0002505
0.001382
-0.001633
-0.04034
0.08804
-0.0477
-0.000569
1.012e-05
0.0005589
0.007958
-0.002182
-0.005776
-0.000652
0.0003789
-0.005916
0.00657
-0.0006535
0.03963
-0.0892
0.04956
-0.0005147
6.208e-05
0.0004526
0.0005428
0.000817
-0.00136
0.2519
-0.005272
-0.006657
0.005867
0.0007898
-0.0003072
0.0005272
-0.00022
0.08295
-0.04332
-0.0004775
0.0002512
0.0002263
-4.334e-05
4.334e-05
0.0006936
-0.0003429
-0.0003507
0.0007362
-0.002384
0.001648
0.0003674
-8.273e-05
-0.0002847
0.00189
-0.002357
0.0004669
0.0002312
-0.0002195
-1.172e-05
-0.338
0.1264
0.2116
-0.001011
0.0002168
-0.0005033
-0.0005656
-0.05295
0.3348
-0.0004362
0.0003232
-0.0007209
6.13e-05
0.0006596
-0.001068
0.002273
-0.001205
-0.4815
-0.5542
1.036
0.215
0.0002128
-0.2152
0.007154
-0.004058
-0.003097
5.423e-06
4.264e-06
-9.687e-06
0.0001869
-0.002204
0.002017
4.311e-05
-4.311e-05
-0.001386
0.0006939
0.0006925
0.0007763
-0.0001983
-0.000578
-0.001603
0.001468
0.0001349
-2.396e-05
-1.442e-05
3.839e-05
-0.0006372
-0.0001921
0.0008294
-0.4102
1.371
-0.9609
-0.0002149
0.000301
-8.606e-05
0.004938
-0.001116
-0.003822
-0.2998
1.337
-1.037
-0.0006025
-0.0009094
0.001512
-4.192e-06
2.083e-06
2.109e-06
0.0009941
0.003812
-0.004806
-0.0007337
0.0002776
0.0004561
0.004443
-0.002476
-0.001968
0.001057
0.002496
-0.003553
7.739e-06
1.562e-05
-2.336e-05
4.645e-05
-4.645e-05
0.0005058
0.0002428
-0.0007486
-0.08498
-0.05471
-0.4577
0.2218
0.2359
0.002368
-0.0009077
-0.00146
-0.001546
0.001207
0.0003391
0.0001221
0.0002097
-0.0003318
-0.0006041
0.0003271
0.000277
-0.0004464
9.351e-05
0.0003529
0.0004232
-0.0001886
-0.0002347
-0.002249
0.001882
0.0003667
-0.009575
0.01533
-0.005753
0.0001748
0.0002484
-0.0283
-0.01088
0.03918
-0.0003269
-1.995e-05
0.0003468
0.1444
-0.5861
0.4417
0.000369
0.0004583
-0.0008273
-3.989e-05
2.754e-05
1.235e-05
-0.001564
0.00209
-0.0005256
0.0006419
-0.000521
-0.0001209
-0.001021
0.0004843
0.0005363
-0.379
0.09541
0.2835
-0.1838
0.05583
0.128
-8.475e-05
0.0001462
-6.14e-05
0.007292
-0.008711
0.001418
0.0001504
-0.0002869
0.0001365
0.0004061
-0.0007094
0.0003033
-0.0001042
0.0001939
-8.975e-05
0.0008196
-0.0008276
8.046e-06
0.0009051
-0.000163
-0.0007421
-0.001309
0.001028
0.0002803
9.392e-05
-0.0005845
0.0004905
0.0001873
-0.0001873
-5.261e-05
0.0006531
-0.0006005
-3.865e-05
0.0002911
-0.0002525
0.0004789
-0.0003854
-9.345e-05
-0.001998
0.003017
-0.001019
0.0006049
-0.00122
0.0006155
-4.047e-05
0.0003514
-0.0002815
0.0002977
-1.615e-05
2.414e-05
-1.544e-05
-8.692e-06
-9.309e-06
4.991e-06
4.317e-06
-0.001226
0.0005595
0.0006664
-0.3208
0.4287
0.599
0.2237
-0.8226
-0.0006853
0.0009574
-0.0002721
0.000123
0.0003485
-0.0004715
0.004086
-0.0006748
-0.003411
-0.1885
1.18
-0.991
0.0003153
0.0006735
-0.0009889
-0.001119
-0.0001212
-0.00205
-0.004288
0.006338
0.0001247
7.59e-05
-0.0002006
0.002264
-0.001974
-0.00029
-6.108e-05
0.0002838
-0.0002227
0.001892
-0.002472
0.0005799
0.7867
-0.6763
-0.007648
0.002759
0.004889
0.009228
0.0003224
-0.009551
0.0002001
-2.311e-05
-0.000177
6.475e-05
0.0001108
-0.0001756
-0.0002752
0.0001945
8.079e-05
-0.004703
0.001562
0.003141
0.001987
-0.005024
0.003037
0.0002042
-0.0004905
0.0002863
-0.0005506
0.0008464
-0.0002958
-0.001428
-0.0009826
0.002411
0.002074
-0.0007601
-0.001314
-0.0007591
-0.0001674
0.0009265
0.001323
-0.001091
-0.0002328
0.0004642
-0.0003892
-7.501e-05
0.0003508
-0.0002576
-9.321e-05
0.2459
-0.3081
0.06224
-0.0001402
8.535e-05
5.486e-05
-5.505e-06
-2.613e-05
3.163e-05
0.001411
-0.0004039
-3.662e-05
0.0008305
-0.0007938
-0.0002976
5.372e-05
0.01814
-0.1159
0.09774
-0.0001731
0.0001731
-0.0001836
0.0001836
-0.1626
-1.048
1.21
1.262
0.2321
-1.494
-0.0009919
0.0005399
0.000452
0.0002733
-0.001465
0.001192
-3.106e-06
3.728e-06
-6.223e-07
-4.499e-05
9.101e-05
-4.603e-05
-0.0001468
0.001515
-0.0004665
0.0006187
-0.0001522
0.000267
2.968e-05
-0.0002967
-0.0007545
-0.003912
0.004666
0.003166
0.004173
-0.007339
-0.1882
0.05552
0.1327
0.0003161
-0.0002002
-0.0001159
-0.0006413
-0.001031
0.001672
-0.0001763
0.0003812
-0.0002049
-0.004076
0.0008766
0.003199
-2.219e-05
3.411e-05
-1.192e-05
0.0004326
-0.000578
0.0001455
0.8052
-1.128
0.3225
-0.000235
0.000235
0.000298
-0.0001957
-0.0001023
0.1706
0.5646
-0.7352
0.0005499
-3.649e-05
-1.276
1.113
0.2371
-0.4253
0.1882
-0.002283
0.001596
0.0006872
-0.01006
-0.002657
0.01271
0.0001279
-7.53e-05
-5.258e-05
0.7836
-0.9544
0.1708
0.0006847
-0.0003405
-0.0003443
0.4799
-0.1402
-0.3397
0.0003088
-0.0006835
0.0003747
-0.01564
0.004545
0.0111
0.006896
-0.006581
-0.0003149
0.004498
-0.00234
-0.002158
-0.0001584
-0.0005975
0.0007559
-0.0005726
-0.0002569
0.0008295
0.0002596
9.23e-05
-0.0003519
0.001222
0.0002648
-0.001487
0.1432
0.6341
-0.7774
0.004914
0.06366
-0.06857
-0.002254
0.001123
0.001131
-0.0001343
-0.0007139
0.0008482
8.098e-05
-0.0002619
0.0001809
0.0003556
-0.0002115
-0.000144
8.316e-05
-4.958e-05
-3.358e-05
-0.0002112
-6.043e-05
0.0002717
-9.773e-05
9.773e-05
-0.000396
0.0006702
0.001099
-0.0007912
-0.0003078
-0.0002778
0.0007422
-0.0004643
-0.0007329
0.0004586
0.0002743
0.0001959
0.000101
-0.0002969
0.00393
-0.005574
0.001643
0.006356
-0.002423
-0.003933
0.4579
-0.3438
-0.1141
-0.0005915
0.0006491
-5.767e-05
-0.0001093
0.0001631
-5.386e-05
-0.0004626
1.401e-06
0.0004612
0.4924
-1.087
0.595
-0.0006325
0.0002207
0.0004117
0.001898
-0.0009835
-0.000915
-0.001547
0.000401
0.001146
0.001306
-0.0005849
-0.0007212
-0.0001357
0.0006584
-0.0005227
0.001064
0.005399
-0.006463
0.0004307
-0.0005008
7.008e-05
-0.0006723
-0.001345
0.002017
-0.0007631
-0.0007839
-7.152e-05
-0.0001186
0.0001901
-0.0005299
-8.643e-05
0.0006164
5.863e-05
1.529e-05
-1.181
0.5434
0.6372
0.001521
-0.00296
0.001439
-0.0005372
0.0002065
0.0003307
0.135
0.05149
-0.1865
-0.0005647
0.0001628
0.0004019
0.0003974
0.0001135
-0.0005109
-1.249
1.249
0.001311
0.002144
-0.003455
-7.853e-05
0.0001376
-5.911e-05
0.06328
-0.05148
-0.0118
0.005867
-0.001936
-0.002784
0.002776
8.526e-06
0.0004113
9.514e-05
-0.0005064
0.01139
-0.008501
-0.002893
-1.268
0.5233
0.7449
0.0004059
-0.0006574
0.0002515
-0.0001626
0.0004062
-0.0002436
0.4114
-0.2577
-0.1537
-0.007557
0.004441
0.003116
0.0002833
-0.02879
0.02851
-0.0008783
-0.0003925
0.001271
-0.0003647
-0.0001416
0.0005063
-0.001228
-0.0006318
0.00186
-0.04735
-0.05031
0.09766
-1.14e-05
-3.823e-05
4.963e-05
-1.657e-07
-1.192e-05
1.208e-05
0.0001971
0.0006395
0.0003011
-0.001086
0.0007849
-0.001
0.001621
-0.0006202
4.839e-05
2.324e-05
-0.3903
1.236
-0.8456
0.0001875
-0.0008806
0.0006931
0.3548
-0.01243
-0.3424
0.0004559
-0.0006416
0.0001858
-0.001113
0.001125
-1.246e-05
0.0003333
0.0004121
-0.0007454
0.000361
0.0009451
-4.3e-05
2.622e-05
1.678e-05
0.0002242
-0.0002479
2.371e-05
-0.5578
0.2193
0.3385
1.171e-05
-1.171e-05
-0.0002882
0.0002101
7.81e-05
8.12e-05
-0.0003542
0.000273
-0.001137
-0.0001424
0.001279
-0.0002621
0.0003405
-0.001118
-0.001046
0.002164
0.006409
-0.006202
-0.0002071
-0.0002899
0.0002375
5.246e-05
0.001481
-0.001024
-0.0004568
-0.0104
0.02367
-0.01326
9.397e-06
-9.397e-06
-0.000312
0.0003843
-7.223e-05
-0.0006576
0.0002811
0.0003765
0.0003787
0.0001605
-0.0005392