/*--------------------------------*- C++ -*----------------------------------*\
  =========                 |
  \\      /  F ield         | OpenFOAM: The Open Source CFD Toolbox
   \\    /   O peration     | Website:  https://openfoam.org
    \\  /    A nd           | Version:  8
     \\/     M anipulation  |
\*---------------------------------------------------------------------------*/
FoamFile
{
    version     2.0;
    format      ascii;
    class       surfaceScalarField;
    location    "5";
    object      phi;
}
// * * * * * * * * * * * * * * * * * * * * * * * * * * * * * * * * * * * * * //

dimensions      [0 3 -1 0 0 0 0];

internalField   nonuniform List<scalar> 
189008
(
2.63e-07
-2.63e-07
-1.009e-07
1.009e-07
-1.303e-08
1.302e-08
-1.083e-08
1.083e-08
-5.776e-06
5.776e-06
-6.833e-09
6.832e-09
1.214e-05
-1.214e-05
-6.213e-06
6.213e-06
-3.8e-06
3.8e-06
-1.564e-05
1.564e-05
7.221e-06
-7.221e-06
-5.232e-06
5.232e-06
-8.7e-08
8.7e-08
2.516e-09
-2.517e-09
0.0002332
-0.0002389
5.76e-06
1.546e-05
-1.768e-05
2.213e-06
1.781e-07
-1.781e-07
0.02382
-0.01003
-0.01379
0.003592
-0.002415
-0.001177
-3.928e-05
3.889e-05
3.889e-07
-0.001552
0.001339
0.0002137
-7.346e-06
3.957e-06
3.389e-06
-0.002203
0.009486
-0.007282
1.294e-05
0.0004579
-0.0004709
-4.556e-06
-2.79e-06
-0.000478
0.0002506
0.0002274
0.0002078
-0.00023
2.218e-05
0.0002294
-2.158e-05
0.0003143
-0.000238
-7.633e-05
0.01461
-0.02574
0.01113
-5.111e-05
-0.0002213
0.0002724
-0.0001473
-0.0003307
0.0001672
-0.0001114
-5.575e-05
0.0003681
-0.0002087
-0.0001594
0.01239
0.009497
-0.02188
5.615e-05
0.000111
-4.338e-05
-0.0003317
0.0003751
-0.00319
0.003822
-0.000632
-3.622e-05
0.0004739
-0.0004377
-0.0001216
0.0001283
-6.76e-06
0.001942
0.001649
0.001134
-0.002809
0.001675
-5.267e-05
-0.003309
0.003362
2.442e-07
-2.442e-07
0.0005309
0.02329
0.0002128
0.0001553
0.0001997
0.0001146
0.0006756
-0.0006804
4.865e-06
-0.0007217
0.0008788
-0.0001571
-2.194e-05
0.0003882
-0.0003663
5.137e-06
1.033e-05
-0.0095
-0.03125
0.04075
0.0004464
0.000182
-0.0006284
-0.01054
0.008609
0.00193
1.093
-0.132
-0.9608
0.001055
-0.000823
-0.0002324
-0.1436
1.236
0.009511
-0.006021
-0.00349
-0.3085
0.01948
0.289
-0.005309
-0.005229
-0.002086
-0.0006501
0.002736
0.001169
-0.001994
0.0008256
-0.0001307
0.001136
-0.001005
-0.8106
0.9573
-0.1467
0.0002239
-0.0005432
0.0003193
-0.0001214
-0.003367
0.003488
-0.02546
0.01932
0.006134
0.001408
-0.001161
-0.0002466
0.0003909
0.001017
-1.278
0.4787
0.7988
-6.105e-05
-0.0003015
0.0003625
-8.655e-05
-0.0001435
0.0005077
0.002147
-0.002654
-0.1148
-0.1937
-0.2797
0.5204
-0.2407
9.234e-05
0.0001371
-0.04781
0.08848
-0.04066
0.000745
-0.0006926
-5.244e-05
0.0005247
0.0005308
0.1612
-0.6347
0.4735
-0.000311
0.0002326
7.837e-05
-2.137e-05
-1.791e-05
-0.0002287
-0.0003082
0.0005369
1.082e-05
8.174e-05
-9.257e-05
-0.0005501
0.0007948
-0.0002447
0.0004126
-0.0006393
0.0002267
-0.0004889
0.0009482
-0.0004593
-0.0002454
7.609e-05
0.0001693
-0.003078
0.002957
-0.0003224
0.0005196
-0.0001973
0.1802
-0.01416
-0.1661
-0.005572
-0.002331
0.007903
-0.0002674
0.000686
-0.0004187
-0.000869
-0.0006835
-0.0007909
0.0008118
-2.087e-05
0.02011
0.01328
-0.03339
0.002683
-0.001549
0.000319
-0.0003223
3.211e-06
0.0006251
0.0001254
-0.0007504
-0.01749
-0.007968
0.687
-0.5258
-1.101e-05
-0.0007107
-6.278e-05
-0.0001565
0.0002193
0.003208
-0.003861
0.0006529
-0.0001237
0.0005363
0.0008275
-0.0002024
-0.0008136
0.001172
-0.0003584
-1
-0.2772
-0.001379
0.000656
0.0007233
-1.171
0.8886
0.2823
0.0002282
4.94e-06
-0.000175
-7.04e-05
0.001192
-0.0001858
-0.001007
-9.964e-05
-0.0002683
0.000368
-0.2103
0.09686
0.1134
0.0005779
0.002009
-0.002587
-0.1024
0.05703
0.04537
0.1616
-0.4413
0.02513
-0.07294
-4.993e-07
4.117e-07
8.762e-08
-1.27
0.09905
-0.0001139
-0.0002411
0.000355
-0.0003947
-0.0007339
0.001129
0.01201
-0.01007
-0.001944
-0.000199
-0.000112
0.0003999
-0.0003684
-3.148e-05
0.001072
0.0004882
-0.00156
0.08804
-0.1009
0.01283
0.001275
-0.0004971
-0.0007776
-0.0007209
0.0005741
0.0001468
-0.000629
0.0001991
0.0004299
-0.0006506
0.0002521
0.0003985
-0.0002287
-0.0008577
0.001086
0.0003133
0.0004318
-4.194e-07
3.069e-07
1.125e-07
-0.0006645
3.555e-05
-0.005599
0.0305
-0.0249
0.0006736
-0.001227
0.0005537
-0.0002669
0.0003117
-4.476e-05
0.02773
-0.04698
0.01926
0.009331
-7.64e-05
-0.009254
-0.0481
-0.03878
0.08688
0.001277
-0.001484
0.0002067
0.002854
-0.001568
-0.001286
0.0007136
-0.0002672
0.001079
-0.0003482
-0.0007303
2.598e-06
3.908e-06
-6.507e-06
-0.02676
-0.7838
-0.0008071
0.0001565
0.0001574
-0.0002468
8.933e-05
0.001826
-0.002656
0.00083
0.0009866
-0.0002657
-0.0007209
0.002571
-0.004487
0.001916
-0.008162
-0.000608
0.00877
0.0003411
-0.0006294
0.0002883
-0.0006414
9.127e-05
0.006171
0.00334
0.0007295
-0.0005851
-0.0001444
0.0001462
0.0005293
0.0001508
-0.0003026
0.0001519
-0.0002497
0.0004649
-0.0002152
-5.847e-05
5.847e-05
0.1923
-0.01205
-0.0007982
0.0002481
0.0005502
0.0001856
-0.0004218
0.0002362
-0.0001739
0.0003977
0.0003782
-4.428e-05
-0.0003339
0.0004129
0.001715
-0.002128
-0.0005594
0.0004194
0.00014
-0.03922
0.03199
0.007226
-1.864e-05
-3.6e-05
5.464e-05
0.001851
0.001003
-0.003752
0.001548
0.002204
-0.002507
0.0007975
0.001709
1.002
-1.169
0.167
0.0002542
-0.0002181
-3.612e-05
-0.000602
0.0002915
0.0003105
0.0007135
0.0005612
-0.0003534
0.0007071
-0.0003537
0.1117
-0.1334
0.02165
-0.001637
-0.00087
-0.1162
-0.005765
0.122
-2.729e-06
-0.0001802
0.000183
0.0001121
0.000142
-0.000289
-0.0004319
-0.0006706
0.001839
-0.0003994
-0.005478
0.005878
-0.0004504
0.0003508
0.0004366
-0.0004237
-0.0063
0.07953
-0.07323
6.085e-05
-0.0004697
0.0004089
0.0003855
7.527e-05
-0.0004608
-0.03735
0.03175
0.0003052
-0.0004253
0.0001201
-2.413e-07
-0.00036
-0.00138
0.00174
-1.468
1.197
0.2708
-1.467
1.196
0.2706
8.759e-06
3.547e-06
-1.231e-05
-0.163
0.1302
0.03276
0.2094
-0.04288
-0.1666
-0.05405
0.04625
0.0078
0.01957
-0.05333
0.03376
-0.0003241
0.0002807
-9.004e-09
9.003e-09
0.0002134
-0.0007578
0.0005444
0.02566
-0.008671
-0.01699
0.0022
-0.0005165
-0.001684
0.0364
-0.02179
-0.2054
-0.004838
-0.000544
-0.01358
0.01413
0.0007579
-0.0003963
-0.0003616
-0.06533
0.2024
-0.1371
-0.0002476
-0.0003118
-6.185e-06
0.0003204
-0.0003142
6.713e-06
-9.322e-06
2.609e-06
5.352e-05
-4.875e-05
-4.771e-06
0.002862
-0.001718
-0.001144
0.0001938
-0.0006507
0.0004568
0.02053
0.005133
-0.0004929
0.0001454
0.0003475
-0.4687
0.2179
0.2507
0.0008656
0.000121
-0.0005217
0.0007476
-0.0002259
0.0001459
9.308e-05
-0.000239
7.521e-05
-6.295e-05
-1.226e-05
-0.0002905
0.0004762
1.453e-05
-0.003204
-0.0001108
0.0001123
-1.494e-06
-0.0009368
0.0008278
0.000109
0.001396
-0.0003924
-0.001004
-0.04183
-0.07436
0.002566
-0.002058
-5.236e-07
9.86e-07
-4.624e-07
0.0008304
0.0005656
-0.021
0.01713
0.003871
-0.0002591
-0.0005391
1.287e-06
-1.287e-06
0.2271
-0.01763
0.0008231
-0.0001372
-0.0006859
0.0006726
-0.0002871
0.0003091
-0.0006661
0.0003571
-0.000549
0.0003585
0.0001905
0.0003795
0.0003501
0.0004333
0.0002542
-0.0006875
-3.024e-07
-1.969e-07
0.0007767
0.0003637
-0.00114
-0.0002305
0.000207
2.351e-05
-9.667e-06
9.667e-06
0.1912
-0.9538
0.7626
-0.0007153
-0.001237
0.001952
-0.0001191
0.000312
-0.0001929
0.001951
-0.0009251
-0.001026
0.001959
-0.0006199
-0.001339
-0.0001559
0.0007254
-0.0005695
0.0007496
-0.0004207
-0.000329
0.1145
-0.02649
7.451e-05
-0.0003511
0.0002765
-0.0001643
0.001279
-0.001114
-0.009101
0.0005126
0.008588
-0.002363
0.001218
0.001144
-0.05788
0.09362
-0.03573
-0.01017
0.0046
-0.08589
0.03779
-0.0006569
-0.0007021
0.001359
4.901e-05
0.0004302
-0.0004792
-0.000182
0.0003816
-0.0001996
0.0002284
-0.0005008
0.0002724
-0.000795
-0.001248
0.002043
0.001426
-0.003755
0.002328
-0.0005153
-7.461e-06
0.0005227
0.8403
0.1621
-0.0006705
0.0008607
-0.0001902
0.0009087
-8.56e-05
0.0007981
-0.001355
0.000557
-0.000532
0.0005929
0.0006375
0.0005548
0.0008721
-0.001023
0.000151
-0.3689
-0.4222
0.7911
0.0007543
0.001215
-0.001969
-0.533
-0.3386
0.8716
0.03371
-0.0136
0.003206
2.785e-06
-0.08904
-0.1646
0.2536
0.05013
0.1163
-0.1664
-6.262e-07
1.781e-07
4.481e-07
0.0006859
-0.0005536
-0.0001322
-0.07654
-0.09928
0.1758
0.001105
-0.0008179
-0.0002867
0.1561
-0.04437
-0.0007815
0.003353
-0.002017
0.004976
-0.002959
-0.009109
-0.01189
0.000869
0.001128
-0.001997
-0.2008
0.2385
-0.03766
-0.0005367
0.0009646
-0.0004279
-0.0001977
-0.0001475
0.0003453
0.0001013
-0.0001066
5.314e-06
-0.0001885
-0.0003605
0.002702
-0.001275
-0.0001929
-0.0003395
0.0005324
-0.003983
0.001319
0.002664
-0.00102
-0.002086
0.003106
0.003108
-0.00253
-0.0001255
0.00022
-9.45e-05
0.0007432
0.0001313
-0.0008746
0.002005
0.0001958
-0.1848
0.1195
-0.004415
0.002188
0.002228
-0.00224
0.002277
-3.678e-05
0.0009241
8.691e-05
-0.001011
4.546e-05
-1.197e-05
-3.349e-05
-0.0007375
0.000481
0.0002565
-0.8381
0.3052
-0.2536
0.1325
0.1211
0.0002725
6.329e-05
-0.0003358
0.002158
-0.002899
0.0007415
-0.0001618
-0.0002732
0.0004349
0.01306
-0.007603
-0.00546
0.1791
-0.1695
-0.009616
0.009424
-0.01163
-0.0003328
-2.394e-05
0.0003567
0.08954
-0.04996
-0.03958
0.001371
0.0005794
0.0003852
-0.0001127
-0.0006994
0.001806
-0.001106
-0.01347
0.02941
-0.01594
0.0002567
-0.0003682
0.0001116
0.0006487
-0.0002957
-0.000353
-0.001356
0.0004736
0.0008824
0.00199
-0.001088
-0.0009017
0.1961
-0.146
-0.00438
0.01677
-0.4999
-0.9681
-0.4993
-0.9672
-0.01074
0.00258
-0.001098
0.0009188
0.0001793
-0.003617
-0.0001352
0.0006248
0.001365
6.052e-05
0.0004906
-0.0005511
-0.01225
0.03997
0.001956
0.0009053
-0.0008213
0.0002869
0.0005345
5.704e-05
0.0003017
-0.0003587
-0.001156
0.001019
0.0001369
0.0003175
0.0007871
0.0004972
-0.0001959
-0.0003012
-0.0006874
0.0008685
-0.0001811
0.0006327
-0.0004367
-0.000196
-0.0002039
0.001045
-0.000841
-0.0008073
0.0006298
0.0001775
-0.002738
0.003645
-0.0009064
3.119e-05
-0.0002042
0.000173
-0.000475
-0.0008268
-0.02616
0.02699
0.0005841
-0.0005125
-7.155e-05
0.001579
0.0003799
-0.0003644
-0.0007527
0.001117
0.2819
-0.3892
0.1073
0.0004934
0.0001554
-0.0004372
0.0008227
-0.0003855
-0.00127
0.001139
-0.005595
-0.004465
0.01006
0.0007044
-0.0007358
3.138e-05
-6.767e-05
0.0005537
-0.000486
0.3844
0.134
-0.5184
-0.1144
-0.04853
-0.1725
0.2382
-0.06576
0.0003245
-0.0003935
6.907e-05
0.4164
-0.7853
-0.001518
0.002204
-0.0006862
0.05636
0.03318
0.0002443
-0.0003634
5.648e-05
-0.0004506
0.0003942
0.1064
-0.1127
0.0242
-0.009485
-0.01472
-0.0001407
0.0006768
-0.0005361
2.214e-06
4.075e-07
-2.622e-06
0.0005605
-0.0009825
0.000422
0.8906
-0.6652
-0.2255
0.0004395
0.005465
-0.005904
8.408e-05
0.0003158
-0.0008178
0.0005817
0.0002361
0.006218
-0.004676
-0.001542
-0.08377
-0.01862
2.601e-05
3.87e-06
-2.988e-05
0.01399
-0.01877
0.004779
-6.537e-06
-0.0001151
0.001285
-0.001714
0.0004289
-0.001106
-0.00209
0.003195
0.2468
-0.2557
0.008892
0.006409
-0.005171
-0.001239
-2.572e-05
9.713e-05
-7.141e-05
0.0002011
0.0005347
-0.0007358
-0.0005833
0.0006469
-6.36e-05
-0.0001315
0.000278
-0.0001465
0.004552
0.001857
-0.0003027
0.0002516
-0.02125
0.02042
0.01438
-0.07226
8.997e-05
-0.0001525
6.249e-05
-0.5083
0.03968
0.00167
4.147e-05
-0.001711
0.0001931
-0.0001958
-0.001681
0.01567
-0.003196
0.002542
0.0006536
0.0002404
-0.0007813
0.000541
-0.001559
0.001551
8.781e-06
0.1104
0.4881
-0.5985
0.0003467
-0.0007001
-0.000304
-0.0002036
0.0005077
-0.0007456
-1.547e-05
0.000761
0.001702
0.007628
0.0001067
0.0004529
-0.0005596
-0.001081
0.0006863
-0.0002606
-0.0005304
0.001057
-0.0009084
-0.0001483
-0.0006342
0.0001189
-0.000813
0.00245
-0.001637
-0.0008272
0.0001514
0.0006758
0.0004234
-4.524e-05
0.0001008
-9.306e-05
-7.724e-06
0.000429
-0.0004608
3.181e-05
-0.6689
0.86
-0.001243
0.0003064
0.00615
-0.009367
0.003216
-0.003242
0.003189
-0.01148
0.0001576
0.01133
0.000441
-0.000132
-0.00885
-0.008188
0.01704
-1.286
1.449
-0.1629
-0.0005653
0.0005727
-7.366e-06
0.0001471
0.0001194
-0.0002664
0.00204
0.008181
-0.01022
0.002546
-0.002736
0.0001898
0.5738
-0.1894
0.0008026
-0.001589
0.000786
0.0001048
-0.000461
0.0003562
-0.05531
0.04581
-0.01789
-0.1829
0.7044
-0.6549
-0.04947
0.0005236
-0.0005455
0.054
-0.02349
-0.0003542
-0.0001502
0.0005044
0.04916
-0.05232
0.003163
4.224e-05
0.0002768
-0.008612
-0.132
0.1406
0.000658
-0.0004736
-0.0001844
0.05451
-0.227
0.0002531
0.0005048
-0.0009983
0.001051
-5.284e-05
-0.0007902
0.0004395
0.0003506
-0.0009505
0.00216
-0.001209
0.0001992
-0.0004011
0.0002019
-0.0189
0.008458
0.01044
-0.0005142
0.0002737
0.0002405
0.0004166
0.0001522
-0.0005689
-0.0005847
6.165e-05
0.0005231
-0.0005758
0.0001291
0.0004467
0.0009915
0.004983
-0.005975
-0.001762
0.001533
0.0003702
0.0006284
-0.0009986
0.0008959
-0.002904
0.002008
0.0006538
-0.00102
0.0003659
-0.0005449
0.0009151
0.339
-0.9157
0.5767
0.1194
-0.003187
-0.1162
0.001719
-0.0007397
-0.0009791
-0.0003824
0.0004072
-2.484e-05
-1.552
0.1242
1.428
-0.001304
0.0008108
0.0004929
-0.003402
0.00929
-0.005888
0.004731
0.007281
-0.0006189
0.002777
0.02977
-0.01486
-0.01491
1.43
-0.2701
-1.16
0.0002048
-0.0005631
0.0003583
-0.008058
0.004656
-0.000163
0.0001422
2.087e-05
-0.0008804
0.00044
0.0004404
0.0002666
-0.0001839
-8.277e-05
0.0005566
-5.467e-05
-0.000502
0.0005016
-8.176e-05
-0.0004199
-0.0004051
-0.0003324
-0.000783
9.348e-05
0.0006895
0.0005108
0.002035
0.0009842
-0.0003245
-0.0006598
-0.1215
0.2567
-0.1353
-0.000226
0.0003768
-0.09799
0.08027
0.01772
0.0005052
-0.0004392
-6.59e-05
0.0004507
-0.0009396
-0.0007749
0.0007027
7.22e-05
5.842e-05
-0.001048
0.0009892
8.535e-09
-1.754e-08
0.0007111
-0.0003532
-0.0003579
-0.00117
0.0008197
0.0003504
0.02609
-0.01503
-0.01106
0.001255
-0.001796
0.0005408
-0.281
0.2308
0.05019
0.0001908
7.58e-05
0.1138
0.005605
-0.0003044
-1.316e-05
0.0003176
-0.001561
0.001201
3.551e-07
-3.552e-07
7.587e-08
1.723e-06
-1.799e-06
1.371e-06
-1.257e-06
-1.146e-07
1.201
-0.8208
-0.3803
0.000284
0.0003
-0.0001823
0.0008877
-0.0007054
-0.1426
-0.111
0.001131
-6.153e-05
-0.001069
-0.0002867
0.0008878
-0.000601
0.0004275
-0.0004625
3.504e-05
0.002589
-0.0002036
-0.002385
-2.359e-05
-0.0009747
-0.000666
-0.0001241
-0.0008196
-0.0004841
-0.0002394
0.0002197
1.967e-05
-0.4266
0.7656
0.0006334
-0.0002166
-0.0004168
-4.47e-06
4.255e-06
2.154e-07
0.0005504
-0.0006281
7.771e-05
0.0004632
-0.000112
-0.0003512
-7.201e-05
5.336e-05
0.06254
-0.1774
0.002396
-0.0005706
-0.0401
0.05967
0.002992
-0.002096
0.04438
0.2414
-0.2858
-0.0003839
9.413e-05
0.0002898
-9.304e-05
-0.0001327
0.0002257
-0.0001453
0.0001358
9.482e-06
1.532
-0.9057
-0.6264
0.001392
0.000327
0.009246
0.002882
-0.01213
-3.687e-05
4.612e-05
-9.245e-06
-0.0006962
-3.751e-05
0.0007337
0.0003567
-1.746e-05
-0.0003393
-0.004138
0.0008269
0.003311
-0.1019
0.09802
0.003882
-3.822e-05
0.0001856
-0.0001474
0.0009396
0.0007007
-0.00164
-0.8105
-0.7417
0.002235
-0.004313
0.0006303
0.003682
-0.0003938
0.0001961
0.0002374
0.000467
-6.031e-06
-0.0003763
-0.0002645
4.406e-05
0.0002204
0.001518
-0.0002335
-0.002701
0.002772
-7.097e-05
0.0008141
2.123e-06
-0.0008163
-0.0002286
0.0004943
-0.0002657
-0.0001439
-0.0004214
0.1163
0.053
-0.1693
-0.0001501
0.000101
4.905e-05
-7.412e-05
0.0004828
-0.0004087
0.0005929
-0.0006714
7.858e-05
0.0007302
-0.00156
0.0008296
-0.0002331
0.0003866
-0.0001536
-0.7899
0.113
0.6769
-0.7881
0.6287
0.1594
0.001155
-0.01026
0.0004649
3.227e-05
-0.0006077
-0.0007397
0.001347
0.136
-0.2048
0.06881
1.475
-0.6518
-0.823
-0.001468
0.002409
-0.0009409
0.0002844
-0.0004253
0.0001409
0.0009059
-0.0003797
-0.0005261
-0.0007444
-3.86e-05
-0.0001631
-1.728e-05
0.0001804
0.0001568
-0.0001447
-1.205e-05
-0.002714
0.002619
9.5e-05
-0.1397
0.097
0.04269
1.414
-1.29
-0.124
0.0001481
-7.205e-05
-7.608e-05
0.0002684
0.0005078
-0.0007761
0.0004406
-0.001378
0.0009374
0.3071
0.5192
-0.8264
-7.502e-05
-0.0001555
0.001673
-0.001949
0.0002757
0.0004394
-0.0004279
-1.145e-05
0.4684
-0.0005114
0.0006041
-9.266e-05
-0.02622
0.1622
-0.000324
0.0005644
0.0003733
-2.4e-05
-0.0003493
0.003589
-0.004468
0.000879
0.9763
0.1608
-1.137
5.185e-05
0.0002022
-0.000254
-0.001716
-0.0006463
-0.0001332
7.477e-05
0.3947
1.035
0.0003186
-0.001132
3.813e-05
1.539e-05
0.4008
0.3036
-0.001214
-0.001982
-0.1629
0.006404
0.1565
-0.0002546
-0.0003164
0.000571
0.001358
-0.0003963
-0.0009619
-0.2772
0.1881
-0.0004414
0.0003996
4.181e-05
0.0002463
0.0004944
-0.0007407
6.146e-05
-2.353e-05
-3.793e-05
0.0003496
0.0002689
-0.0006184
0.001855
-0.001033
-0.0008226
-0.00021
-0.0005973
-0.000249
-0.0005688
0.0006325
0.0001799
-0.0008124
0.0005283
-0.0005645
0.0003985
-0.0006659
0.0004328
-0.0007336
0.0003008
-0.0002089
0.0002118
-2.929e-06
-0.001387
0.001058
0.000329
0.000426
-0.0003085
-0.0001175
-0.5996
0.9068
0.0008353
-0.0005581
-0.0002772
0.1072
-0.1918
0.08463
-0.0004669
-0.0006893
-0.1214
0.03262
0.08878
-0.0002583
0.001536
-0.3452
-0.9408
-0.1508
0.07428
-0.001818
-0.004023
0.005841
-0.0003983
-0.0004289
0.0006228
0.0004347
-0.001057
-1.044
0.1262
0.9177
1.123
-0.9133
-0.21
-0.0001677
5.694e-05
0.0001834
0.0001403
-0.0003237
0.0002103
-0.000439
-0.0005888
0.0002296
0.0003592
-0.001515
0.0006544
0.0008603
0.0003349
-0.0006891
0.0008535
-0.001219
0.0003658
-0.0007615
0.0004575
0.0006087
-0.000307
0.0001204
-0.0003313
0.0002109
0.0002412
7.432e-05
-0.0003156
-1.167
0.1234
-0.000171
-0.0005032
0.0006742
-4.363e-05
0.0005261
-0.0004825
0.0001046
-0.00433
0.004225
0.006551
-0.003135
-0.003416
0.1841
-0.2396
0.05547
1.032
0.4428
0.001183
-0.001883
-1.472e-05
-0.0002522
0.0004119
0.0005723
-4.388e-05
2.861e-05
1.527e-05
-0.07319
-0.04821
-0.9816
-0.4045
1.386
0.0002414
0.0001754
-0.0004167
0.0006705
-5.716e-06
-0.0006648
-0.04835
-0.0057
-0.0001554
-0.0001941
0.0003495
0.01347
-0.002395
-0.01108
-0.02991
0.07726
-0.04735
0.0005095
-0.0002003
-0.0003092
0.002026
-0.002487
0.0004615
0.0005592
-0.0006029
0.005297
-0.009558
0.004261
-4.509e-07
4.509e-07
9.661e-05
-2.14e-05
-7.074e-05
-0.000505
-0.0003707
-0.0001435
0.0003568
0.0003291
-0.0004419
-0.0002072
0.0006491
-0.0004842
-2.722e-05
0.0003101
-0.000566
0.0002559
0.05516
0.00419
-0.05934
-0.0009938
0.0003363
0.0006575
-8.672e-05
6.059e-05
2.612e-05
0.0004186
0.001251
0.7559
-1.085
0.3295
0.001044
-0.0001716
-0.004931
0.004165
0.000766
0.002489
-0.003945
0.001457
1.081
0.4513
-0.02581
0.7817
7.995e-06
4.119e-06
-1.211e-05
0.02047
0.005622
0.0003618
-0.0006648
0.000303
-0.0003718
0.0003771
-5.295e-06
-0.0003843
0.0006894
-0.000305
-0.003364
-0.001051
0.002407
0.002955
-0.005362
0.0003106
-0.0001647
0.004486
-0.006854
0.002369
0.0009167
-0.0007765
-0.0001402
-0.1564
-0.1966
0.3531
1.068
-0.04443
-1.023
-0.001981
-0.000141
0.002122
-0.001939
0.008089
-9.997e-05
0.0004244
-0.000813
0.003302
0.0004353
-0.0004874
5.212e-05
-0.001676
0.0006025
0.001074
0.0002994
0.0001832
-0.0004826
-0.01585
0.01531
0.002943
-0.008538
-1.117
-0.3847
1.502
-0.0001351
0.0002573
-0.0001222
0.02311
0.006656
-0.001054
0.0007784
0.0002753
-2.71e-07
-0.001786
0.0005145
0.001271
-0.001867
0.00121
-0.000318
0.0008786
1.253
-0.277
-0.001196
0.001363
-0.0001662
-0.0002695
-0.0004496
0.0007191
5.284e-05
-5.487e-05
2.031e-06
0.0001631
0.004021
-0.004184
-0.00136
-0.0007089
0.002069
0.0003999
0.0002088
-8.614e-05
0.0002436
0.0004983
0.0005584
0.0001395
-0.0004786
0.0003391
-0.001347
-0.0007394
0.002087
0.0005291
-0.000685
0.000914
-0.00158
0.0006659
-0.002401
0.0001601
-6.694e-05
0.001139
0.003072
-0.005481
0.002409
-3.884e-07
3.884e-07
-0.001215
-0.003716
-0.06256
0.02334
0.0001366
-0.001129
0.0009922
0.0001798
0.0003239
-0.0005037
1.973e-06
0.0007972
-0.0007992
0.1079
0.3766
-0.4845
0.0001678
-3.275e-05
-0.0001351
0.0004994
-0.003238
0.0007881
0.0001178
-1.506
0.5243
-1.149e-05
-3.239e-05
0.0005231
-9.407e-05
0.0005054
-0.0005965
9.119e-05
-0.3856
-0.6308
1.016
-4.599e-05
0.0003561
-0.0002065
0.0002387
-3.215e-05
-0.0001608
0.0005208
-0.0003601
-0.0001574
0.0006443
-0.0004869
-1.189
0.8038
0.0008615
-0.0005246
-0.0003369
-5.62e-05
1.577e-05
4.043e-05
-0.0002825
0.0004537
-0.0001712
0.001655
-0.001579
-7.506e-05
-0.1543
0.06299
0.09132
-0.0006727
-0.0001486
-0.0002779
7.992e-05
0.000198
-0.1611
0.1701
-0.009008
0.002187
0.0004112
-0.002598
-0.003371
0.003348
2.326e-05
-0.0005492
0.0001072
0.0004801
0.000231
-0.002345
0.003663
-0.002024
0.0002385
-2.581e-05
-0.0003957
0.0004215
0.0001329
-0.0003148
0.2828
0.5894
-0.8722
0.0006372
0.0002243
0.0009929
-0.001563
0.00057
0.0001608
-0.0001638
3.09e-06
-0.0001426
-0.000603
-0.01109
0.008787
0.002306
0.001334
-0.0002029
-5.401e-05
-0.0002105
1.032
-0.7492
-5.081e-05
0.0004783
0.0002271
0.0002824
-0.0004385
-0.0002124
0.0006509
1.161e-06
-1.684e-06
0.0002638
-0.0007023
-6.238e-05
-8.29e-05
-0.000884
-0.0001873
0.001071
-0.0004816
0.0002733
0.0002083
-0.003998
0.001017
0.002981
0.1739
1.027
-2.269e-07
2.269e-07
-0.0001994
-0.0002868
0.0004862
-0.0002836
0.0006331
-0.0001253
0.000113
1.234e-05
0.0001788
-0.0004251
0.0002462
-3.402e-05
0.0002107
-0.0001767
0.0004335
-7.374e-05
-0.0003598
-0.0004433
0.0003822
0.564
0.8499
-0.0011
-0.001917
0.003018
-0.003227
0.0008854
0.002342
-1.494
0.3763
0.0002589
-0.0004531
0.0001942
7.939e-05
0.0004258
0.001486
-0.000562
0.0008353
0.0003105
-0.001146
0.1397
-1.026
0.8868
-0.0001804
0.001034
-0.0002851
9.743e-05
0.0001877
-0.2779
-0.7219
0.8616
0.004029
0.002522
0.001992
-0.002393
0.0004016
-0.0006001
-0.0009146
0.0002232
9.35e-06
-0.0002326
0.0008311
-0.0007047
-0.0001263
2.311e-05
-6.877e-07
-2.242e-05
-0.002966
0.000706
0.00226
-0.003972
0.005884
-0.001911
-0.8116
-0.2738
0.000701
-0.00019
-0.000511
0.0004631
-0.0002193
-0.0002438
0.0003846
-0.0003149
-6.978e-05
0.0001255
-0.000251
0.002311
-0.001898
1.069
0.08828
-1.157
0.2734
-0.2109
0.06399
-0.1115
0.04753
0.0001883
-4.531e-05
-0.000143
0.04612
-0.8577
0.02284
-0.01446
-0.008377
-0.0001579
0.0003428
-0.0001849
-0.0005918
-0.0007273
0.001319
0.0002332
0.0001166
-0.0003498
-0.2183
0.833
-0.6146
0.0004719
-0.000237
-0.0002349
-0.0002617
0.001515
-0.001253
-0.2407
-0.01311
0.2538
0.000302
0.0003307
0.6957
0.4771
-1.173
-0.0004428
-0.0002627
0.0007054
-6.377e-05
-4.709e-05
0.0001109
-0.0006533
0.0003197
0.0003335
-0.0004101
-0.001241
0.001651
4.291e-05
4.615e-05
-8.906e-05
0.1848
-0.05543
-0.1294
-0.0002458
-0.0002203
0.0004661
-0.008862
0.009586
-0.0007246
-0.0003058
-7.815e-05
7.515e-05
-6.942e-05
-5.733e-06
-0.000305
-0.0003424
0.0006474
0.0001744
6.307e-05
-0.0002375
-0.006668
-0.004425
0.004731
-0.005135
0.0004033
0.00192
-0.0002979
-0.001622
0.0001597
-0.0001597
-0.3392
0.1942
0.145
-0.003484
0.005197
-0.001712
0.0008267
-0.0005144
-0.0003123
-0.0004034
0.0007242
-0.0003208
-7.378e-05
-1.294e-05
0.0002857
-0.0002498
-3.586e-05
-0.1208
1.19
0.03225
-0.01794
-0.01431
0.0001017
4.641e-05
-0.0003598
1.759e-05
0.0003422
8.001e-05
-0.0001135
3.345e-05
-0.0006954
0.001543
-0.0008474
1.642e-05
-1.642e-05
-0.0006953
0.0007298
-3.446e-05
-9.747e-05
9.747e-05
0.0009286
-0.0003219
-0.0006068
-8.096e-05
-5.361e-05
0.0001346
-0.002901
0.001801
8.086e-05
-5.664e-05
-2.422e-05
0.09492
-0.06946
-0.02546
0.001337
-0.001009
-0.000328
1.095
-1.519
0.4242
1.315
-1.737
0.4217
0.0002481
0.001351
-0.0016
-0.04026
0.08803
-0.04777
-0.0005541
9.589e-06
0.0005446
0.007868
-0.002145
-0.005723
-0.0006426
0.0003743
-0.005837
0.00648
-0.0006425
0.03967
-0.08924
0.04957
-0.0004971
6.028e-05
0.0004369
0.0005303
0.0007984
-0.001329
0.252
-0.00523
-0.006605
0.005816
0.0007887
-0.0003036
0.0005206
-0.0002171
0.08299
-0.04333
-0.000482
0.0002548
0.0002272
-4.603e-05
4.603e-05
0.0006876
-0.0003441
-0.0003435
0.0007214
-0.002337
0.001616
0.0003601
-8.167e-05
-0.0002784
0.00186
-0.002321
0.000461
0.0002312
-0.0002195
-1.173e-05
-0.338
0.1264
0.2116
-0.000987
0.0002121
-0.0004948
-0.0005589
-0.05296
0.3348
-0.000438
0.0003241
-0.0007109
6.041e-05
0.0006505
-0.001054
0.002242
-0.001189
-0.4815
-0.5543
1.036
0.2145
0.0002125
-0.2147
0.007101
-0.004023
-0.003078
5.65e-06
4.646e-06
-1.03e-05
0.0001834
-0.002167
0.001984
4.58e-05
-4.58e-05
-0.001364
0.0006828
0.0006814
0.0007596
-0.0001942
-0.0005654
-0.001567
0.001435
0.0001314
-2.54e-05
-1.552e-05
4.092e-05
-0.0006215
-0.0001876
0.0008092
-0.4102
1.371
-0.9609
-0.0002236
0.0003163
-9.275e-05
0.004913
-0.001094
-0.003819
-0.2998
1.337
-1.037
-0.0005938
-0.0008958
0.00149
-4.729e-06
2.356e-06
2.373e-06
0.0009835
0.003777
-0.004761
-0.0007125
0.0002692
0.0004434
0.004369
-0.002439
-0.00193
0.001041
0.002455
-0.003497
8.369e-06
1.711e-05
-2.548e-05
5.249e-05
-5.249e-05
0.0004964
0.0002391
-0.0007355
-0.08495
-0.05474
-0.4577
0.2218
0.2359
0.002321
-0.0008896
-0.001432
-0.00152
0.001187
0.0003331
0.000121
0.0002078
-0.0003288
-0.0006062
0.0003269
0.0002793
-0.0004384
9.181e-05
0.0003466
0.0004393
-0.0001923
-0.000247
-0.002204
0.001848
0.0003557
-0.009536
0.01531
-0.005776
0.0001851
0.0002542
-0.0283
-0.01091
0.03921
-0.0003457
-2.256e-05
0.0003683
0.1444
-0.5862
0.4418
0.0003637
0.0004512
-0.0008149
-4.051e-05
3.011e-05
1.04e-05
-0.001536
0.002051
-0.0005145
0.0006372
-0.0005169
-0.0001203
-0.001004
0.0004766
0.0005279
-0.3789
0.09538
0.2835
-0.1838
0.05586
0.128
-8.635e-05
0.0001496
-6.325e-05
0.007245
-0.008665
0.00142
0.0001494
-0.000285
0.0001356
0.0003993
-0.0006982
0.0002989
-0.0001049
0.0001948
-8.991e-05
0.0008081
-0.0008161
7.96e-06
0.0008896
-0.0001597
-0.0007299
-0.001273
0.0009998
0.000273
9.151e-05
-0.0005693
0.0004778
0.0002093
-0.0002093
-5.109e-05
0.0006386
-0.0005875
-3.712e-05
0.0002842
-0.0002471
0.000484
-0.0003889
-9.511e-05
-0.001959
0.002959
-0.0009996
0.0005962
-0.001203
0.0006064
-3.862e-05
0.0003438
-0.00028
0.0002962
-1.622e-05
2.439e-05
-1.707e-05
-7.321e-06
-1.033e-05
5.537e-06
4.789e-06
-0.001207
0.0005507
0.0006559
-0.3208
0.4287
0.599
0.2237
-0.8227
-0.0006745
0.0009425
-0.0002681
0.0001211
0.0003437
-0.0004649
0.004033
-0.0006651
-0.003368
-0.1885
1.18
-0.991
0.0003088
0.0006596
-0.0009684
-0.0011
-0.0001191
-0.002031
-0.004237
0.006268
0.000125
7.591e-05
-0.000201
0.002225
-0.001943
-0.0002818
-6.087e-05
0.0002842
-0.0002234
0.001884
-0.002453
0.0005688
0.7867
-0.6763
-0.007579
0.002738
0.004842
0.009136
0.0003208
-0.009457
0.0002232
-2.502e-05
-0.0001982
6.539e-05
0.0001126
-0.000178
-0.0002723
0.0001924
7.989e-05
-0.004673
0.001544
0.003129
0.001968
-0.004971
0.003003
0.0002058
-0.0004909
0.0002851
-0.0005379
0.000828
-0.0002902
-0.001394
-0.000962
0.002356
0.002047
-0.0007495
-0.001297
-0.0007421
-0.0001634
0.0009055
0.001294
-0.001067
-0.0002273
0.0004592
-0.0003849
-7.438e-05
0.0003658
-0.0002711
-9.474e-05
0.246
-0.3082
0.06225
-0.0001499
9.07e-05
5.918e-05
-5.963e-06
-2.783e-05
3.38e-05
0.001392
-0.0003986
-3.501e-05
0.0008097
-0.0007747
-0.0002921
5.318e-05
0.01812
-0.1159
0.09774
-0.0001864
0.0001864
-0.0002087
0.0002087
-0.1626
-1.048
1.21
1.262
0.2321
-1.494
-0.0009676
0.0005263
0.0004413
0.000268
-0.001439
0.001171
-3.465e-06
4.155e-06
-6.898e-07
-4.672e-05
9.174e-05
-4.502e-05
-0.0001435
0.001481
-0.0004576
0.0006067
-0.0001491
0.0002684
2.999e-05
-0.0002984
-0.0007441
-0.003875
0.00462
0.003132
0.004124
-0.007256
-0.1883
0.05553
0.1327
0.0003197
-0.0002019
-0.0001178
-0.0006403
-0.001014
0.001654
-0.0001757
0.0003809
-0.0002052
-0.004011
0.000862
0.003149
-2.293e-05
3.531e-05
-1.238e-05
0.0004267
-0.0005701
0.0001434
0.8052
-1.128
0.3225
-0.0002598
0.0002598
0.0002951
-0.0001936
-0.0001015
0.1706
0.5646
-0.7353
0.0005374
-3.576e-05
-1.276
1.114
0.2371
-0.4253
0.1882
-0.002236
0.001563
0.0006729
-0.01001
-0.002659
0.01267
0.0001432
-8.598e-05
-5.719e-05
0.7837
-0.9545
0.1709
0.0006874
-0.0003395
-0.000348
0.4799
-0.1402
-0.3397
0.0002999
-0.000664
0.0003641
-0.01559
0.004516
0.01108
0.006837
-0.006533
-0.000304
0.004418
-0.002299
-0.002119
-0.0001595
-0.0005945
0.000754
-0.0005653
-0.0002546
0.0008199
0.0002619
9.39e-05
-0.0003558
0.001194
0.0002595
-0.001454
0.1431
0.634
-0.7772
0.004958
0.06358
-0.06854
-0.002213
0.001104
0.001109
-0.0001318
-0.0006989
0.0008308
8.081e-05
-0.000261
0.0001802
0.0003565
-0.0002125
-0.000144
8.981e-05
-5.294e-05
-3.687e-05
-0.000213
-6.142e-05
0.0002744
-0.0001041
0.0001041
-0.0003863
0.0006552
0.001081
-0.0007777
-0.0003036
-0.0002706
0.0007232
-0.0004526
-0.0007228
0.0004513
0.0002715
0.000209
0.0001114
-0.0003204
0.003931
-0.005547
0.001616
0.006295
-0.002394
-0.003901
0.4578
-0.3437
-0.1141
-0.0005872
0.0006446
-5.743e-05
-0.0001094
0.0001628
-5.339e-05
-0.0004805
5.487e-07
0.00048
0.4924
-1.087
0.595
-0.0006172
0.0002162
0.0004009
0.001868
-0.0009677
-0.0009003
-0.001509
0.0003905
0.001119
0.001275
-0.0005712
-0.0007043
-0.0001323
0.0006422
-0.0005099
0.001048
0.005327
-0.006375
0.0004389
-0.0005116
7.266e-05
-0.0006623
-0.001326
0.001989
-0.0007438
-0.0007653
-7.095e-05
-0.0001179
0.0001888
-0.0005292
-8.744e-05
0.0006166
5.89e-05
1.625e-05
-1.181
0.5434
0.6373
0.001492
-0.002897
0.001405
-0.000533
0.0002055
0.0003276
0.1351
0.05147
-0.1866
-0.0005579
0.0001611
0.0003968
0.0003926
0.0001121
-0.0005047
-1.249
1.249
0.001291
0.002112
-0.003402
-7.828e-05
0.0001372
-5.893e-05
0.06328
-0.05148
-0.01179
0.005835
-0.001904
-0.002744
0.002734
1.013e-05
0.0004072
8.825e-05
-0.0004954
0.01132
-0.008442
-0.002878
-1.268
0.5233
0.7449
0.0004011
-0.0006504
0.0002493
-0.0001615
0.000404
-0.0002425
0.4114
-0.2577
-0.1537
-0.007528
0.004447
0.003081
0.0003659
-0.02883
0.02847
-0.0008638
-0.000386
0.00125
-0.0003627
-0.000141
0.0005037
-0.001205
-0.0006198
0.001825
-0.04739
-0.05032
0.09771
-1.153e-05
-3.872e-05
5.025e-05
-1.787e-07
-1.314e-05
1.332e-05
0.0001952
0.0006401
0.0002956
-0.001068
0.0007724
-0.0009847
0.001595
-0.0006107
5.44e-05
2.646e-05
-0.3903
1.236
-0.8456
0.0001831
-0.0008605
0.0006774
0.3548
-0.01245
-0.3424
0.0004493
-0.0006324
0.0001831
-0.001094
0.001106
-1.21e-05
0.0003281
0.000404
-0.000732
0.0003524
0.000923
-4.397e-05
2.711e-05
1.686e-05
0.0002371
-0.0002634
2.631e-05
-0.5578
0.2193
0.3385
1.255e-05
-1.255e-05
-0.0002978
0.0002161
8.171e-05
8.221e-05
-0.0003636
0.0002814
-0.001108
-0.0001398
0.001248
-0.0002528
0.0003273
-0.001102
-0.00103
0.002132
0.006347
-0.006154
-0.0001931
-0.0002974
0.0002426
5.479e-05
0.001447
-0.001001
-0.0004464
-0.0104
0.02362
-0.01322
1.042e-05
-1.042e-05
-0.0003078
0.0003791
-7.139e-05
-0.0006362
0.000273
0.0003632
0.0003892
0.000162
-0.0005512
0.001115
-0.0009222
-0.0001932
0.0002754
0.0004436
-0.000719
-0.0001413
-0.000287
0.0004283
6.946e-05
4.324e-05
-0.0001127
0.001656
-0.001207
-0.000449
0.0005255
-0.0001251