/*--------------------------------*- C++ -*----------------------------------*\
  =========                 |
  \\      /  F ield         | OpenFOAM: The Open Source CFD Toolbox
   \\    /   O peration     | Website:  https://openfoam.org
    \\  /    A nd           | Version:  8
     \\/     M anipulation  |
\*---------------------------------------------------------------------------*/
FoamFile
{
    version     2.0;
    format      ascii;
    class       volVectorField;
    location    "5";
    object      U;
}
// * * * * * * * * * * * * * * * * * * * * * * * * * * * * * * * * * * * * * //

dimensions      [0 1 -1 0 0 0 0];

internalField   nonuniform List<vector> 
127143
(
(0.00714 -0.0002695 0)
(0.0006154 0.002693 -3.542e-24)
(7.851e-05 0.0003769 6.363e-24)
(7.529e-05 0.0002607 9.011e-27)
(0.03116 0.009747 3.927e-24)
(5.695e-05 0.000167 -8.115e-27)
(0.04564 0.02869 0)
(0.03193 0.01453 2.974e-23)
(0.02612 0.01255 -9.887e-23)
(0.04298 0.001481 0)
(0.02497 0.03436 -8.192e-22)
(0.02947 0.01947 -1.978e-22)
(0.002864 -0.001083 -1.084e-24)
(4.527e-05 9.698e-05 0)
(0.2741 -0.322 2.002e-21)
(0.1062 -0.008895 0)
(0.000786 0.003267 -1.164e-23)
(0.5855 -0.06449 3.068e-21)
(0.4247 -0.135 0)
(0.299 0.157 0)
(0.5015 -0.1193 8.093e-22)
(0.04684 -0.01657 0)
(0.9341 -0.1937 0)
(0.553 -0.0519 0)
(0.04586 -0.01743 -8.972e-23)
(0.4238 -0.06607 0)
(0.3456 -0.004367 2.355e-21)
(0.3436 0.00729 -3.874e-23)
(0.3896 -0.1734 0)
(0.6477 -0.05288 -5.182e-21)
(0.5257 -0.02671 0)
(0.4088 -0.06394 1.449e-21)
(0.3744 0.08741 7.97e-23)
(0.29 -0.07382 -2.321e-21)
(0.8351 -0.132 1.804e-21)
(0.3698 0.0954 -1.353e-23)
(0.2824 -0.09536 4.504e-22)
(0.7259 -0.1054 -3.198e-22)
(0.5799 -0.0541 -1.589e-23)
(0.4837 0.03188 7.701e-25)
(0.4247 -0.1341 0)
(0.9094 0.2718 3.15e-22)
(0.8978 0.2625 -3.128e-22)
(0.005913 -0.001965 0)
(0.5893 -0.05908 -3.141e-21)
(0.2974 -0.07095 6.858e-22)
(0.4001 -0.1818 0)
(0.328 -0.107 -9.256e-23)
(0.6578 -0.1143 -1.438e-22)
(0.5622 -0.04698 -1.988e-23)
(0.1265 -0.007479 -3.776e-23)
(0.9289 -0.07812 3.662e-21)
(0.6717 -0.06582 0)
(0.9491 0.0177 -3.575e-22)
(1.008 -0.00391 -2.181e-20)
(0.6295 -0.161 4.788e-22)
(1.006 -0.00444 2.171e-20)
(0.8643 -0.08087 0)
(0.9945 -0.01328 -3.816e-21)
(0.9508 0.0212 -6.705e-22)
(0.6035 -0.2268 -4.313e-21)
(0.4336 -0.124 -1.482e-22)
(0.6533 -0.04844 1.303e-22)
(1.003 0.002102 -6.714e-20)
(0.5599 -0.05243 0)
(0.8723 -0.2676 -9.886e-22)
(0.9631 0.07827 4.64e-22)
(0.6401 -0.05059 0)
(0.6428 -0.05062 3.436e-23)
(0.991 0.000851 0)
(0.528 -0.0431 0)
(0.3727 -0.003096 -8.885e-22)
(0.4006 -0.07499 -9.103e-22)
(0.9968 -0.01182 -2.074e-21)
(1.009 0.01171 -5.538e-22)
(0.3742 0.00766 1.118e-21)
(0.9838 0.06076 1.582e-21)
(0.3223 -0.1018 0)
(0.6374 -0.164 -9.175e-22)
(1.001 0.00182 0)
(0.3912 -0.1767 3.39e-23)
(0.321 0.1469 1.955e-23)
(0.3651 -0.0868 6.297e-22)
(0.4441 -0.01698 0)
(0.3248 -0.1096 2.754e-22)
(0.3264 -0.1032 0)
(0.6091 -0.06127 -1.234e-23)
(0.3907 0.0293 4.911e-22)
(0.8729 -0.2673 0)
(0.837 0.4386 0)
(0.9993 -0.04213 0)
(0.7759 -0.105 0)
(0.8551 0.4418 0)
(0.5028 -0.1195 -8.386e-22)
(0.4922 -0.09921 0)
(0.8178 -0.001944 3.074e-21)
(0.911 0.2669 -5.314e-22)
(0.4541 -0.03482 0)
(0.3804 -0.1116 2.484e-22)
(0.9617 0.08056 0)
(1.001 0.001785 0)
(0.6656 -0.1165 0)
(0.5975 0.5238 2.359e-22)
(0.7843 -0.09654 0)
(0.3288 -0.1039 -1.192e-22)
(0.3775 -0.1111 3.526e-22)
(0.7143 -0.1118 3.413e-22)
(0.9907 0.000831 0)
(0.7689 -0.3386 0)
(1.016 -0.001608 5.686e-20)
(0.284 -0.325 -5.791e-22)
(0.3905 0.02683 9.479e-22)
(0.5019 -0.111 -7.572e-22)
(0.2794 0.1059 0)
(0.9832 0.02004 6.803e-21)
(0.8424 -0.1488 4.533e-23)
(0.9534 0.05693 -1.351e-21)
(1.009 0.01201 1.921e-20)
(0.985 0.06033 -1.18e-21)
(0.001815 0.005376 0)
(1.016 -0.001892 -8.198e-20)
(0.3577 -0.09058 -1.461e-22)
(0.7734 -0.2827 0)
(0.9103 -0.1022 -2.752e-23)
(0.4032 -0.1797 5.992e-22)
(0.3454 -0.04485 1.806e-21)
(0.4301 -0.12 0)
(1.015 0.02234 3.895e-21)
(0.71 -0.05564 -9.189e-23)
(0.6296 -0.1807 -7.48e-22)
(0.355 -0.1042 0)
(0.456 -0.1044 -3.826e-22)
(0.6888 -0.06395 -8.499e-23)
(0.3232 -0.1018 0)
(0.001151 0.005775 -5.929e-23)
(0.3573 -0.1048 -1.577e-22)
(0.8913 -0.06828 0)
(0.5361 -0.1214 2.205e-22)
(0.4281 -0.2433 -3.956e-21)
(0.9434 -0.03582 4.553e-22)
(0.9166 -0.2159 2.093e-21)
(0.9542 0.0448 4.676e-21)
(0.6557 -0.08344 2.344e-23)
(0.6173 -0.1182 -5.597e-22)
(0.673 -0.06542 -3.897e-23)
(0.96 0.2545 -2.037e-25)
(0.01407 -0.03398 2.895e-21)
(1.003 0.001771 5.655e-20)
(0.4526 -0.1036 3.35e-22)
(0.6075 0.4935 1.682e-22)
(0.7557 -0.08612 2.024e-23)
(0.6885 -0.1341 0)
(0.7523 -0.09915 1.253e-21)
(0.8314 -0.2076 0)
(0.4937 -0.3861 0)
(0.3264 -0.1102 0)
(0.864 -0.08038 -6.51e-23)
(0.6124 -0.2147 0)
(0.3289 -0.1073 -1.725e-22)
(0.4416 -0.03772 5.465e-23)
(0.5463 -0.03208 0)
(0.1065 -0.05713 7.469e-21)
(0.9994 -0.04163 9.209e-23)
(0.355 -0.1044 -4.25e-22)
(0.5259 -0.1354 0)
(0.5769 -0.05479 4.866e-22)
(0.2787 -0.09267 -2.421e-22)
(0.7595 -0.3244 1.145e-21)
(0.7772 0.1644 -1.119e-22)
(0.8915 0.03741 -2.175e-22)
(0.2009 -0.07448 0)
(0.616 -0.118 2.62e-22)
(0.8382 -0.155 2.558e-22)
(0.8194 -0.2365 -9.972e-22)
(0.9583 0.0002104 4.863e-20)
(0.2711 -0.1005 7.956e-24)
(0.9435 0.3073 8.034e-24)
(0.709 -0.05523 -8.94e-23)
(0.5808 -0.05903 0)
(0.9028 -0.03727 2.046e-21)
(0.8197 -0.2369 -3.497e-22)
(0.979 -0.03845 0)
(0.2684 -0.08315 1.266e-22)
(0.2714 -0.1003 -8.144e-24)
(0.6362 -0.1845 1.445e-21)
(0.4367 -0.1246 2.637e-22)
(0.8999 0.166 2.114e-22)
(0.2932 0.1216 -7.144e-22)
(0.563 -0.05312 -4.054e-23)
(0.9376 -0.03946 5.145e-21)
(0.6279 -0.07152 3.403e-23)
(0.6125 -0.07806 -2.441e-22)
(0.8977 -0.06584 4.134e-21)
(0.2714 0.3804 -7.179e-22)
(0.0008732 0.006173 9.919e-23)
(0.4795 -0.1232 0)
(1.002 3.781e-05 0)
(1.001 -1.75e-05 -5.359e-22)
(0.1577 0.1228 0)
(0.9687 0.02598 1.273e-21)
(1.018 0.03116 -1.033e-21)
(0.8796 -0.0137 6.896e-21)
(0.759 -0.04302 -4.785e-21)
(0.2858 -0.09638 -2.147e-22)
(4.193e-05 -0.0002224 1.41e-24)
(0.6293 -0.03635 1.501e-22)
(0.9615 -0.1564 9.163e-22)
(0.7934 -0.142 -7.504e-23)
(0.6535 -0.05677 7.309e-21)
(0.9835 0.01933 -3.659e-21)
(0.7882 -0.1076 9.005e-22)
(0.3081 -0.109 1.873e-22)
(0.9879 -0.02755 3.495e-21)
(0.7834 0.1658 -1.159e-22)
(0.3408 -0.1004 -3.376e-24)
(0.1844 0.02835 0)
(0.1581 -0.05687 -2.787e-22)
(0.8046 -0.1582 5.523e-22)
(0.451 -0.112 -5.19e-22)
(0.9626 -0.155 2.022e-22)
(0.9459 0.3072 1.545e-23)
(0.9997 0.01304 -3.835e-20)
(0.6844 -0.1333 -1.551e-22)
(0.6917 -0.06102 3.679e-23)
(0.4235 -0.0364 0)
(0.1941 -0.07119 0)
(0.5701 -0.1477 -9.161e-22)
(0.7319 -0.1039 3.411e-22)
(0.2207 -0.07889 2.261e-22)
(0.3966 -0.1151 4.14e-22)
(0.502 -0.1181 5.193e-22)
(0.9818 -0.04124 -5.116e-22)
(0.4039 -0.07807 1.86e-21)
(0.00606 -0.02136 0)
(0.5026 -0.1182 0)
(0.9559 -0.1088 -2.408e-22)
(0.3551 -0.1045 2.007e-22)
(0.01234 -0.001864 2.043e-23)
(1.019 0.03066 9.45e-22)
(0.6293 -0.06993 1.893e-22)
(0.6153 -0.07793 2.263e-22)
(0.6322 -0.04155 -7.072e-22)
(0.2912 -0.1049 -6.765e-23)
(0.6201 -0.2172 -8.85e-25)
(0.7448 -0.04892 0)
(0.001683 0.005727 -1.788e-26)
(0.7237 -0.1443 6.323e-22)
(0.3389 -0.006553 0)
(0.02611 -0.007077 8.097e-22)
(0.9877 0.001896 -1.809e-20)
(0.9815 0.1972 -5.854e-23)
(0.4124 -0.04513 -1.144e-22)
(0.8133 -0.1907 0)
(0.5638 -0.1181 0)
(0.6811 -0.164 6.544e-22)
(0.7778 -0.333 0)
(1.015 0.02161 -3.573e-21)
(0.8345 0.2259 0)
(0.845 -0.2175 0)
(0.8064 0.1107 6.766e-22)
(0.5054 -0.1242 -4.261e-22)
(0.9911 -0.0703 -9.041e-22)
(0.7831 -0.1027 3.315e-23)
(0.9535 0.04353 -3.978e-21)
(0.7626 -0.04295 0)
(0.6059 -0.04892 -2.305e-22)
(0.2807 -0.08854 5.676e-22)
(0.4659 -0.3854 0)
(0.6675 -0.3153 2.789e-21)
(0.8599 -0.006621 -1.948e-22)
(0.542 -0.09926 0)
(0.9571 -0.0002796 -5.583e-20)
(0.338 -0.1114 -1.557e-22)
(0.6273 -0.07042 -2.025e-22)
(0.6872 -0.04653 1.925e-22)
(0.6305 -0.07107 -1.632e-22)
(0.5032 -0.1115 0)
(0.6659 -0.1042 -5.452e-22)
(0.9333 -0.002679 3.356e-21)
(0.8439 -0.2531 5.416e-22)
(0.9778 -0.00314 -9.806e-21)
(0.7995 0.001264 1.486e-22)
(0.7881 -0.09686 1.362e-25)
(0.9853 0.0009122 0)
(0.9979 0.02744 -4.577e-21)
(0.003108 0.007041 -1.435e-23)
(0.3902 -0.1081 0)
(0.983 0.02216 3.349e-21)
(0.6385 -0.08898 -3.176e-22)
(0.8969 -0.03891 4.753e-21)
(0.7564 -0.09924 -1.531e-21)
(0.9106 -0.2046 0)
(0.9569 -0.1106 2.4e-22)
(0.8412 -0.1695 0)
(0.9962 -0.03818 -2.539e-21)
(0.7578 -0.3438 -3.272e-23)
(0.5059 -0.04312 6.316e-23)
(0.2354 -0.007489 -1.025e-22)
(0.291 -0.105 2.555e-22)
(0.8643 -0.005684 1.155e-22)
(0.4953 -0.05363 2.809e-23)
(0.8906 -0.2422 -1.699e-22)
(0.8305 -0.2909 -9.708e-22)
(0.8465 -0.1498 -5.143e-22)
(0.4107 -0.03196 0)
(0.6329 -0.3871 4.148e-24)
(0.7952 -0.1426 -2.643e-23)
(0.9868 -0.02807 0)
(0.5623 -0.1297 -8.035e-24)
(0.7199 -0.07891 1.971e-23)
(0.7018 -0.1077 2.754e-22)
(0.1655 -0.05297 -3.088e-23)
(0.6173 -0.1494 0)
(0.9797 -0.003093 -4.838e-21)
(0.9769 0.0006617 -8.241e-21)
(0.917 0.3057 -6.962e-24)
(0.7071 -0.1032 1.714e-22)
(0.4805 -0.0501 -3.099e-23)
(0.8558 -0.07662 1.385e-21)
(0.8438 -0.01555 1.307e-20)
(0.9344 -0.1934 0)
(0.5179 -0.03674 -1.645e-22)
(0.9963 0.01456 1.026e-21)
(0.8125 -0.1901 2.418e-22)
(0.9154 0.3039 0)
(0.7107 -0.08353 -2.443e-22)
(0.8605 -0.0815 2.816e-21)
(0.3637 0.03104 -1.125e-23)
(0.5458 0.07936 1.965e-22)
(0.9197 0.3552 -2.254e-22)
(0.3956 -0.1181 0)
(0.9988 0.02732 4.279e-21)
(0.8395 -0.1321 -5.343e-21)
(1.002 2.873e-05 0)
(1.001 -1.345e-05 0)
(0.8291 -0.2028 0)
(0.775 -0.3352 -1.631e-22)
(0.8401 -0.156 2.587e-22)
(0.3949 -0.1179 -1.859e-22)
(0.3958 -0.1067 -1.203e-21)
(0.945 -0.03499 -1.873e-21)
(0.804 -0.1581 0)
(0.6752 -0.06394 3.472e-23)
(0.6345 -0.07069 2.579e-23)
(0.3532 -0.2009 7.258e-24)
(0.6366 -0.08888 2.275e-22)
(0.4012 -0.09657 -3.912e-22)
(0.5172 -0.1034 2.556e-22)
(0.5202 -0.06225 1.468e-22)
(0.7289 -0.04446 0)
(0.525 -0.06009 -8.922e-23)
(0.4786 -0.1404 6.211e-22)
(0.2708 -0.101 -1.359e-22)
(0.6323 -0.071 1.157e-22)
(0.8708 0.02916 0)
(0.4015 -0.09841 -8.963e-22)
(0.5618 -0.118 -3.138e-22)
(0.971 0.2291 -1.827e-23)
(0.9553 -0.01859 4.114e-21)
(0.5336 0.08461 0)
(0.3491 -0.1162 -2.786e-22)
(0.6614 -0.04889 3.726e-23)
(0.6002 -0.1387 -2.031e-21)
(0.5665 -0.04125 0)
(0.5659 -0.0486 -5.534e-23)
(1.004 0.007958 -4.299e-22)
(0.9696 0.02546 -3.908e-21)
(0.89 -0.005197 0)
(0.4059 -0.07666 3.303e-22)
(0.9358 -0.001509 0)
(0.524 -0.2602 4.324e-21)
(0.9956 0.01223 -2.337e-21)
(0.449 -0.04859 8.821e-23)
(0.5574 -0.04269 1.083e-22)
(0.9454 -0.03697 0)
(0.9287 -0.03432 -1.397e-22)
(0.5341 -0.05115 2.221e-23)
(0.05567 -0.05234 1.042e-25)
(0.3726 -0.111 -6.906e-22)
(0.9297 -0.00499 3.12e-21)
(0.6393 -0.1302 -2.792e-21)
(0.3821 -0.05037 -1.477e-21)
(0.5427 -0.06934 0)
(0.889 -0.2435 -9.865e-22)
(0.9545 0.05622 0)
(0.2016 -0.01309 0)
(0.8886 0.0955 0)
(0.4898 0.03115 0)
(0.4778 -0.1227 -1.253e-22)
(0.669 -0.1228 -1.305e-21)
(1.012 -0.004022 -7.143e-21)
(0.8013 -0.2806 0)
(0.211 -0.07642 2.19e-22)
(0.6824 -0.1725 6.836e-22)
(0.5596 -0.0521 9.233e-23)
(0.4949 -0.03578 1.124e-22)
(0.805 -0.2808 -9.078e-22)
(0.5376 -0.02653 0)
(0.87 0.02671 0)
(0.9905 -0.07017 0)
(0.3775 -0.02965 -1.046e-22)
(0.9999 0.01252 1.646e-20)
(0.5322 -0.1171 0)
(0.2706 -0.08366 0)
(0.892 0.09661 0)
(0.7461 -0.09319 -8.442e-23)
(0.3347 -0.1053 -6.93e-22)
(0.6882 -0.06768 5.36e-23)
(0.9998 0.001163 -1.4e-19)
(0.5896 -0.0602 0)
(0.7499 -0.335 0)
(0.5417 -0.07678 7.24e-22)
(0.9175 -0.215 -2.116e-21)
(0.3405 -0.1094 0)
(0.7793 -0.285 0)
(0.4956 -0.09955 -3.261e-22)
(0.4172 -0.1135 -5.842e-22)
(0.5128 -0.09494 0)
(0.7858 -0.07393 2.17e-22)
(0.6994 -0.2811 -4.907e-22)
(0.2806 -0.09337 0)
(0.1229 -0.04273 -1.483e-21)
(0.34 -0.09872 0)
(0.9897 0.002211 6.035e-21)
(0.3945 -0.1146 -5.15e-22)
(0.8375 0.143 -5.302e-22)
(0.8967 0.2546 -1.173e-24)
(0.8998 -0.2187 -1.292e-21)
(0.6439 -0.0442 6.394e-22)
(0.9451 -0.1764 -7.052e-22)
(1.011 6.568e-05 0)
(0.3357 -0.09847 0)
(0.2673 -0.09947 0)
(0.7281 -0.1223 5.087e-21)
(0.8722 -0.0009801 2.912e-23)
(1.005 0.007941 1.244e-20)
(0.7677 -0.1199 -2.182e-22)
(0.423 -0.09574 -6.537e-22)
(0.9305 -0.07681 -1.94e-21)
(0.9954 -0.03748 0)
(0.9997 -0.007919 -4.391e-21)
(0.5709 -0.04779 3.412e-23)
(0.8824 -0.07235 -2.302e-21)
(0.7727 -0.3353 1.759e-22)
(0.9154 0.03506 0)
(0.4633 -0.03606 -8.343e-24)
(0.9705 -0.002129 1.114e-20)
(0.5545 -0.3872 0)
(0.8862 -0.00645 -2.778e-21)
(0.3084 -0.1079 1.737e-22)
(0.4586 -0.1182 0)
(0.5627 -0.07052 -3.461e-24)
(0.7541 -0.0941 1.867e-22)
(0.4163 -0.07141 2.019e-21)
(0.8157 0.0303 8.308e-23)
(0.2864 -0.09708 -8.456e-23)
(0.498 -0.05935 7.169e-23)
(0.6769 -0.03815 0)
(0.2982 -0.09928 0)
(0.8126 -0.07134 2.775e-22)
(0.6949 -0.06467 3.547e-23)
(0.7388 -0.05065 1.283e-22)
(0.6118 -0.1264 0)
(0.3437 0.1063 -3.581e-21)
(0.734 -0.05152 6.283e-25)
(0.9652 0.001275 0)
(0.9867 0.05154 0)
(0.586 -0.1067 0)
(0.3652 -0.09628 4.519e-22)
(1.008 -0.0003038 0)
(0.3985 -0.1145 3.23e-22)
(0.8082 -0.09473 9.101e-22)
(0.9113 -0.1014 4.465e-23)
(0.7113 -0.1033 -5.473e-23)
(0.9681 -0.1427 1.172e-21)
(1.017 0.001318 0)
(0.4362 -0.3667 -2.289e-21)
(0.8162 -0.09227 -8.293e-22)
(0.2144 -0.07513 -1.683e-22)
(0.7009 -0.0581 6.517e-24)
(0.3637 -0.1959 4.356e-22)
(0.5474 -0.3899 -4.447e-22)
(0.548 -0.07479 1.256e-22)
(0.6176 -0.1483 0)
(0.7569 -0.3367 0)
(0.8729 0.0002701 -2.907e-23)
(0.713 -0.0602 -5.682e-24)
(1.024 0.01946 9.538e-23)
(0.4636 -0.03905 -1.052e-22)
(0.9329 0.008607 4.261e-21)
(0.9275 0.3133 -2.937e-24)
(0.6176 -0.06244 1.11e-23)
(0.675 -0.06711 0)
(0.9632 0.2427 5.505e-24)
(4.382e-05 -0.000612 0)
(0.3401 -0.1021 5.231e-22)
(0.352 -0.03094 4.862e-22)
(0.9389 -0.06457 -3.542e-23)
(0.7786 0.4184 -8.661e-22)
(0.9867 -0.01843 -2.813e-20)
(0.3608 -0.1998 0)
(0.9876 0.05195 -4.603e-24)
(0.2806 -0.1012 0)
(0.4851 -0.1238 -4.612e-22)
(0.0006463 0.003681 0)
(0.02279 0.0544 8.539e-23)
(0.02187 -0.007492 -2.097e-23)
(1.004 -0.001324 -4.723e-20)
(0.4039 -0.09921 0)
(0.8777 0.03231 0)
(0.9776 0.001197 1.775e-20)
(0.3676 -0.1183 4.094e-22)
(0.7625 -0.2793 1.131e-21)
(0.3128 -0.09821 4.176e-22)
(0.8013 -0.1221 0)
(0.4564 -0.1177 0)
(0.5597 -0.0696 1.116e-22)
(0.3993 -0.1151 -3.322e-22)
(0.248 -0.04789 3.532e-22)
(0.9689 0.001973 0)
(0.3024 -0.0891 -2.445e-22)
(0.03252 -0.01176 0)
(0.6836 -0.2798 3.064e-22)
(0.4907 -0.0484 1.636e-23)
(0.206 -0.07609 1.032e-22)
(1.001 -0.009662 -2.629e-21)
(0.7596 -0.08598 2.703e-23)
(0.7659 -0.04465 -9.145e-22)
(0.6172 -0.1267 5.104e-22)
(0.9866 -0.00898 0)
(0.4407 -0.03638 0)
(0.6621 0.2895 0)
(0.2111 -0.07554 -3.268e-22)
(1.003 -9.073e-05 0)
(0.5852 -0.1063 -2.392e-22)
(0.9486 -0.1315 3.436e-22)
(0.188 -0.07175 4.458e-25)
(0.7416 -0.3469 2.162e-22)
(0.7324 0.1911 1.631e-23)
(0.5939 -0.1274 -2.153e-22)
(0.9291 -0.005729 2.781e-22)
(0.241 -0.08289 -1.396e-22)
(0.7946 -0.3043 -5.321e-22)
(1.008 -0.0002571 -4.749e-21)
(0.8895 -0.2428 1.313e-21)
(0.7917 -0.07763 -1.508e-21)
(0.5169 -0.04453 -5.477e-23)
(0.5708 -0.04124 8.629e-23)
(0.358 -0.09454 -4.931e-22)
(0.2309 -0.07632 1.431e-22)
(0.4803 -0.1231 2.241e-22)
(0.8542 -0.008741 0)
(0.7155 -0.2816 3.879e-22)
(0.3019 -0.09736 0)
(0.3391 -0.09923 1.234e-23)
(1.023 0.01186 -4.8e-22)
(0.4985 0.02638 7.51e-23)
(0.3915 -0.109 -2.279e-22)
(0.5393 -0.08088 -7.403e-22)
(0.6891 -0.07601 1.897e-23)
(0.2988 -0.1059 2.431e-22)
(0.9997 0.002706 0)
(0.9991 0.003252 3.139e-20)
(0.8122 0.108 -1.139e-21)
(0.3978 -0.09562 -1.974e-22)
(0.7531 0.4373 0)
(0.9735 0.002577 -8.62e-21)
(1.005 0.001536 -7.379e-21)
(0.811 -0.302 0)
(0.6453 -0.2801 0)
(0.3299 -0.1047 2.319e-22)
(0.7561 -0.337 0)
(0.2019 -0.06782 6.89e-22)
(0.1574 -0.05121 0)
(0.8609 -0.1986 -2.454e-22)
(0.9865 0.05828 0)
(1.01 -0.0005185 -2.271e-21)
(0.2089 -0.07454 2.905e-22)
(0.4049 -0.1141 -2.385e-22)
(0.7886 -0.1833 7.06e-22)
(0.9921 0.002273 3.558e-20)
(0.3699 -0.006787 5.051e-22)
(0.7002 -0.07221 0)
(0.3903 -0.1051 4.2e-22)
(0.9307 -0.004889 -6.653e-21)
(0.4555 -0.05607 -4.519e-23)
(0.9732 0.001721 1.365e-20)
(0.3382 -0.1063 -1.084e-22)
(0.2849 -0.06596 0)
(0.6447 -0.1254 2.686e-23)
(0.9978 -0.0004658 -7.8e-21)
(0.2588 -0.0845 -5.28e-22)
(0.5066 -0.1247 -1.065e-22)
(0.1804 -0.1136 -9.31e-21)
(1.017 0.001223 -6.846e-21)
(0.7195 -0.1131 -3.24e-22)
(0.1599 -0.05747 1.259e-22)
(1 -0.008194 0)
(0.7476 -0.09351 0)
(0.9755 0.0168 -2.825e-22)
(0.6007 -0.0434 6.973e-23)
(0.7027 -0.07307 0)
(0.9857 0.0004725 1.46e-20)
(0.3712 -0.09168 1.3e-21)
(0.5917 -0.08007 -1.339e-22)
(0.1707 -0.009957 0)
(0.5639 -0.0781 -3.893e-22)
(0.6693 -0.08505 -4.562e-23)
(0.5331 -0.06078 2.446e-22)
(0.547 -0.0679 1.505e-22)
(0.3845 -0.3148 -2.181e-21)
(0.5879 -0.05525 -1.932e-23)
(0.8567 0.4422 -5.525e-23)
(0.6155 0.01291 -1.817e-22)
(0.2661 -0.09772 -1.32e-22)
(0.7304 -0.05273 -4.472e-23)
(0.4476 -0.04066 3.882e-23)
(0.9962 0.002229 0)
(0.6212 -0.1296 -7.642e-22)
(0.9815 0.0008392 -4.339e-21)
(0.3599 -0.1823 -1.263e-21)
(1.011 0.04001 1.408e-21)
(0.6588 -0.08415 3.306e-22)
(1.012 0.0001273 0)
(0.9825 0.0216 7.416e-21)
(0.8545 -0.07841 2.811e-22)
(0.7019 -0.2829 2.479e-22)
(0.4839 -0.1157 3.541e-22)
(1.009 0.002162 2.845e-20)
(1.017 -0.002423 3.095e-21)
(0.2246 -0.08009 -2.155e-22)
(0.5674 0.06901 0)
(0.3837 -0.09085 5.133e-22)
(0.4737 -0.04135 -1.404e-22)
(0.3563 -0.1254 0)
(0.7729 -0.3353 -1.806e-22)
(0.4555 -0.1181 -5.44e-23)
(0.7483 -0.3346 0)
(0.6358 -0.07046 -3.654e-24)
(0.3219 -0.09543 -1.414e-21)
(0.5648 -0.04597 0)
(1.008 0.002228 -3.838e-21)
(0.7204 -0.033 3.72e-22)
(0.6346 -0.06941 1.405e-23)
(0.8754 -0.1577 1.429e-22)
(0.826 -0.07852 0)
(0.9999 -0.03545 -4.221e-21)
(1.005 0.001444 7.874e-22)
(0.7171 -0.0833 -2.377e-22)
(0.4685 -0.2643 -1.139e-24)
(0.7128 -0.06025 2.984e-23)
(0.09779 -0.03188 4.478e-22)
(1.011 0.04133 0)
(1.002 0.000955 -1.016e-22)
(0.3222 -0.09888 0)
(0.6384 -0.06026 0)
(0.8818 -0.01292 -5.442e-21)
(0.536 -0.06579 -2.535e-22)
(0.9326 -0.168 0)
(0.886 -0.003562 7.516e-21)
(0.2905 -0.08812 7.804e-22)
(0.8442 -0.2057 -1.851e-22)
(0.6373 -0.06919 8.915e-23)
(0.8385 -0.2329 -3.349e-21)
(0.006022 -0.001855 0)
(0.1985 -0.0727 0)
(0.2995 -0.09963 -7.008e-23)
(0.2859 -0.09747 1.509e-22)
(0.3906 -0.1077 0)
(0.5619 -0.07454 2.846e-22)
(0.4784 -0.06208 7.833e-23)
(0.5176 -0.07473 0)
(0.9196 -0.06127 -8.933e-22)
(0.6925 -0.06122 3.419e-22)
(0.2304 -0.08006 0)
(0.534 -0.1171 -4.443e-22)
(1.018 -0.001076 -7.795e-21)
(0.6735 -0.1055 4.151e-22)
(0.8654 -0.2723 0)
(0.6081 -0.1424 -1.403e-21)
(1.003 -0.0001153 2.228e-21)
(1.018 -0.001252 8.559e-21)
(0.06554 0.1175 0)
(0.9369 -0.06208 -8.568e-23)
(0.635 -0.1181 -6.66e-22)
(0.5964 -0.07662 -1.438e-23)
(0.6522 -0.3719 0)
(0.5623 -0.1301 1.022e-21)
(0.9399 0.04261 0)
(0.4432 -0.03614 7.171e-23)
(0.695 -0.1134 2.477e-21)
(0.6843 -0.1805 0)
(1.024 0.01836 -1.174e-22)
(1.02 0.0001604 0)
(0.9791 0.2163 0)
(0.8435 0.1431 0)
(0.4178 -0.07985 7.216e-23)
(0.6144 -0.149 0)
(0.5593 -0.2323 1.997e-21)
(0.3656 -0.1239 0)
(0.6726 -0.2798 -6.484e-22)
(0.7962 -0.1056 5.346e-21)
(0.6081 -0.1382 2.87e-21)
(0.9957 -0.0003233 1.151e-21)
(0.4909 -0.02895 -5.046e-23)
(0.9694 -0.1417 1.354e-22)
(0.6678 -0.1547 -5.844e-22)
(0.001968 0.008247 1.373e-23)
(0.7531 -0.1188 -1.006e-22)
(0.7684 -0.04069 -2.267e-22)
(0.3755 -0.1118 7.056e-22)
(0.9972 -0.0004918 8.641e-21)
(0.675 -0.07425 -8.976e-25)
(0.5681 -0.05042 -6.584e-23)
(0.09893 -0.0342 0)
(0.485 -0.1291 8.38e-22)
(0.5997 -0.1248 3.806e-22)
(0.6355 -0.0703 -5.716e-23)
(0.6299 0.5043 0)
(0.4159 -0.1133 5.464e-22)
(0.6407 -0.3447 9.708e-22)
(0.4196 -0.1331 -2.455e-22)
(0.6964 -0.1684 1.471e-22)
(0.6617 -0.07234 -2.376e-23)
(0.7241 -0.07949 -6.056e-24)
(0.4324 -0.1205 3.683e-22)
(0.9046 -0.1859 6.11e-22)
(0.006619 -0.0003761 0)
(0.8641 -0.2737 0)
(0.8922 0.03472 1.843e-21)
(0.7593 -0.1705 -2.014e-22)
(0.7324 -0.3174 4.622e-22)
(0.6233 -0.06567 1.521e-24)
(1.022 0.006998 0)
(0.2532 -0.08242 -9.259e-23)
(0.4828 -0.1403 -1.239e-21)
(0.3308 -0.1047 -2.147e-22)
(1.001 0.0009117 -4.97e-22)
(0.09518 -0.03653 0)
(0.3434 -0.1 0)
(0.457 -0.05641 -3.95e-22)
(0.993 -0.0004519 -4.663e-21)
(0.5104 -0.075 3.374e-22)
(0.2663 -0.09602 0)
(0.4624 -0.08766 6.12e-22)
(0.6452 -0.06862 -1.852e-22)
(0.9939 -0.0004947 4.4e-21)
(0.3519 -0.1091 -4.004e-22)
(0.2134 -0.08169 0)
(0.3396 -0.09327 1.009e-21)
(0.5651 -0.1167 0)
(0.9658 0.02727 -1.139e-21)
(0.6766 -0.06349 3.023e-23)
(0.2466 -0.2465 0)
(1.027 0.02371 -7.899e-22)
(0.7985 -0.1503 3.794e-22)
(0.8776 -0.1956 0)
(0.5655 -0.07387 -2.718e-22)
(0.3405 -0.1018 0)
(0.8918 -0.242 -5.101e-22)
(0.7504 -0.1183 0)
(0.3937 -0.05109 -1.614e-22)
(0.2868 -0.08987 0)
(1.003 -0.0001971 -4.673e-21)
(0.3508 -0.109 3.751e-22)
(0.4017 -0.1232 7.988e-23)
(0.3658 -0.0278 0)
(0.5559 -0.08012 -4.734e-22)
(0.9426 0.005801 0)
(0.3692 -0.1188 0)
(0.2352 -0.07718 3.276e-23)
(1.003 -0.0001339 4.12e-21)
(0.3151 -0.099 -4.107e-22)
(0.2911 -0.08769 0)
(0.694 -0.06119 0)
(0.01037 -0.02787 -1.492e-23)
(0.6964 -0.0605 -2.714e-23)
(0.212 -0.07641 4.873e-22)
(0.5422 -0.1077 -8.233e-23)
(0.2947 -0.1077 0)
(0.8574 -0.2031 0)
(1.004 -0.001138 2.324e-20)
(0.003541 -0.001354 -7.53e-24)
(0.3749 -0.1071 4.942e-22)
(0.5675 -0.07882 3.656e-22)
(0.1867 -0.06638 2.633e-22)
(0.3114 -0.1022 -4.836e-22)
(0.251 -0.08447 4.835e-22)
(0.3009 -0.09465 -1.659e-22)
(0.5381 -0.0441 0)
(1.01 -0.0005675 0)
(0.4776 -0.1421 0)
(0.7857 -0.1017 -8.601e-24)
(0.9951 -0.0002509 0)
(0.3051 -0.09408 -6.218e-22)
(0.9285 0.3124 0)
(0.707 -0.1079 -2.544e-22)
(0.7791 -0.2762 -3.558e-22)
(1.013 0.0004636 -1.506e-20)
(0.4584 -0.1187 0)
(0.269 -0.1003 0)
(1.024 0.01918 1.374e-24)
(1.014 0.0004917 0)
(0.8227 -0.08017 0)
(0.4254 -0.1233 5.839e-22)
(0.3564 -0.1255 -3.751e-22)
(0.2481 -0.08478 2.338e-22)
(0.3369 -0.1062 3.254e-22)
(0.2574 0.02037 8.049e-24)
(0.7772 -0.1068 0)
(0.7427 -0.2604 -2.092e-21)
(1.018 -0.001008 0)
(0.3517 -0.1063 -2.752e-22)
(0.2809 -0.09378 0)
(0.5127 -0.03328 -1.246e-22)
(0.4302 -0.03462 0)
(0.76 -0.3216 -1.064e-21)
(0.9909 0.002622 0)
(1.004 -0.008502 6.447e-22)
(0.8283 -0.0009744 -1.03e-20)
(0.368 0.001637 5.44e-22)
(1.018 -0.0008916 -9.344e-22)
(0.7986 -0.1067 -2.822e-21)
(0.4898 -0.2982 4.929e-22)
(0.6961 -0.08966 -1.583e-22)
(0.4169 -0.06305 9.202e-22)
(0.9821 -0.006509 0)
(0.2914 -0.1053 -2.857e-22)
(0.6872 -0.08399 8.242e-23)
(0.9978 0.01504 0)
(0.5235 -0.06233 -1.175e-22)
(1.006 -0.0002354 0)
(0.6876 -0.3516 1.216e-21)
(0.1667 -0.2335 -2.537e-21)
(0.5755 -0.07651 -9.1e-24)
(0.7713 -0.03554 0)
(0.4554 0.03215 1.36e-22)
(0.9987 -0.04346 2.799e-22)
(0.3484 -0.09265 0)
(0.8377 -0.2442 -9.456e-22)
(0.4459 -0.03569 0)
(0.2152 -0.07863 -1.338e-22)
(0.4935 -0.0643 -1.474e-22)
(0.3923 0.5207 1.169e-21)
(0.9448 0.00995 -3.71e-22)
(0.8811 -0.1787 -4.595e-22)
(0.8058 -0.318 5.415e-24)
(0.1479 -0.01316 0)
(0.9938 0.01679 0)
(0.7293 -0.1111 1.031e-21)
(0.6538 -0.211 0)
(0.8449 0.1522 9.078e-24)
(0.2301 -0.08118 4.596e-23)
(0.2889 -0.04835 0)
(0.9933 0.00264 0)
(0.7463 -0.1041 3.582e-21)
(0.2085 -0.07369 -1.398e-22)
(0.4169 -0.09757 -4.733e-21)
(0.208 -0.004464 3.434e-21)
(0.9035 0.07527 0)
(0.03587 -0.03612 -1.152e-21)
(0.8548 0.1007 -4.397e-23)
(0.1452 0.01319 5.954e-22)
(0.439 -0.1077 -3.079e-22)
(0.1922 -0.06782 4.634e-22)
(0.4823 -0.142 5.328e-22)
(0.1995 -0.01457 2.629e-22)
(0.9727 0.06049 3.657e-22)
(0.6883 -0.1006 0)
(1.006 0.0009868 0)
(0.9982 -0.0004375 0)
(0.6344 -0.08949 2.162e-22)
(0.9968 0.05217 6.603e-23)
(0.6217 -0.07692 1.848e-22)
(0.4736 -0.0523 -2.107e-21)
(0.2864 0.08479 0)
(0.8251 -0.08974 2.489e-23)
(0.9255 -0.0492 -3.083e-21)
(0.9002 0.3163 -4.981e-23)
(0.7531 -0.1723 5.241e-22)
(1.012 -0.003845 5.222e-21)
(0.5522 -0.1418 4.488e-23)
(0.2971 -0.09691 -1.033e-22)
(0.9311 -0.04664 3.81e-21)
(0.3782 -0.08794 -1.495e-21)
(0.04676 -0.01648 -9.292e-22)
(0.3176 -0.03025 0)
(0.8133 -0.1701 0)
(0.2954 -0.3306 -1.832e-21)
(0.6347 -0.1206 0)
(0.2371 -0.08115 0)
(0.9893 -0.01212 1.252e-20)
(0.6785 -0.06604 8.745e-23)
(0.6716 -0.1539 6.079e-22)
(0.9591 -0.01873 0)
(0.373 -0.09309 5.573e-22)
(0.3856 -0.1087 0)
(0.4516 -0.1256 -2.707e-22)
(1.008 -0.0003789 -4.486e-21)
(0.8547 -0.00759 -4.066e-21)
(0.5961 -0.1383 0)
(0.2093 0.02048 1.574e-23)
(0.8277 -0.2862 -6.325e-22)
(0.04691 -0.01519 0)
(0.4184 -0.1162 3.419e-22)
(0.7451 -0.3297 0)
(0.7663 -0.1694 -9.784e-23)
(0.1461 -0.05361 0)
(0.661 -0.04774 1.237e-22)
(0.9994 -0.0004892 -3.357e-21)
(0.438 -0.2578 0)
(0.9633 0.1727 -1.121e-23)
(1.007 0.001021 0)
(0.7869 -0.3249 1.152e-23)
(0.04421 -0.0157 9.169e-23)
(0.6562 -0.125 -3.366e-22)
(0.7706 0.04266 -3.359e-22)
(0.756 -0.02869 3.097e-22)
(0.8276 -0.1389 -9.61e-23)
(0.1208 -0.04398 -1.285e-25)
(0.07044 -0.007251 -7.975e-23)
(0.5639 -0.05913 0)
(0.986 0.05775 9.193e-22)
(0.9917 0.004378 5.721e-21)
(0.8094 -0.1602 0)
(0.7443 -0.351 -1.53e-22)
(0.2881 -0.0932 -6.414e-22)
(0.3866 -0.0904 0)
(0.2593 0.2355 -1.658e-21)
(0.5249 -0.2217 -1.288e-21)
(0.5195 0.02537 -1.021e-23)
(0.9688 0.04394 -5.307e-22)
(0.5217 -0.2179 -1.262e-21)
(0.9353 -0.0411 2.006e-21)
(0.4426 -0.03352 0)
(1.019 0.008604 0)
(0.3304 -0.1066 4.222e-23)
(0.1394 -0.001074 -9.996e-24)
(0.6041 -0.1121 -6.953e-22)
(0.3647 -0.1026 0)
(0.4013 -0.1136 0)
(0.9895 -0.001553 -1.265e-20)
(0.9552 -0.01413 2.882e-21)
(0.197 -0.06928 0)
(0.9073 -0.2278 1.776e-21)
(0.2482 -0.08608 0)
(0.6074 -0.08038 0)
(0.2266 -0.07912 -3.716e-22)
(0.3372 -0.1147 -2.923e-22)
(0.734 -0.05943 -2.542e-23)
(0.8235 0.004003 -5.733e-23)
(0.6625 -0.05541 -4.493e-22)
(0.1435 -0.02123 7.953e-22)
(0.6548 -0.06727 -9.064e-23)
(0.4852 -0.03509 8.015e-23)
(0.2985 -0.08811 8.344e-22)
(0.754 -0.0966 1.989e-22)
(0.356 -0.1148 6.768e-22)
(0.2876 0.3859 7.582e-22)
(0.2564 -0.08603 -1.355e-23)
(0.1121 -0.02048 6.47e-23)
(0.06011 -0.02132 0)
(0.3972 -0.1131 0)
(1.021 0.006771 0)
(1.022 0.0007283 1.428e-21)
(0.3628 -0.1114 2.958e-22)
(0.2954 -0.1014 0)
(0.8676 -0.1567 -1.141e-21)
(1.002 3.408e-05 0)
(0.7345 -0.3466 -5.27e-22)
(0.4554 -0.1182 2.729e-22)
(0.8469 -0.07026 -2.457e-22)
(0.2387 -0.08096 0)
(0.7299 -0.07956 -5.01e-22)
(0.293 -0.09034 -6.462e-22)
(0.8692 0.3589 8.738e-22)
(0.9998 0.001124 -1.024e-19)
(0.9031 -0.1821 0)
(0.8383 -0.03726 -4.259e-22)
(0.4023 -0.157 0)
(0.4137 -0.03171 0)
(0.2649 -0.09663 6.959e-23)
(0.7777 -0.2979 1.331e-21)
(0.7231 -0.1139 1.937e-21)
(0.4256 -0.07632 0)
(0.5542 -0.05 -2.538e-23)
(0.6994 -0.05786 0)
(0.3819 -0.1258 0)
(0.728 -0.3385 6.518e-22)
(0.6334 -0.07355 -4.935e-23)
(0.2777 -0.09255 0)
(0.5207 -0.2256 -1.478e-21)
(0.9645 -0.02186 -4.98e-22)
(0.1227 -0.04424 0)
(0.1419 -0.05255 0)
(0.4042 -0.1239 0)
(0.5768 -0.07561 5.257e-22)
(0.2676 -0.3197 -2.782e-21)
(0.9904 0.03366 7.408e-22)
(0.1082 -0.02785 1.874e-21)
(0.15 -0.02693 0)
(0.9977 -0.002099 0)
(1.003 -0.0001705 4.479e-21)
(0.6698 -0.06866 -3.086e-24)
(0.4902 -0.1165 1.137e-21)
(0.03707 -0.01397 -8.957e-23)
(0.219 -0.05998 5.123e-23)
(0.692 -0.1015 6.741e-23)
(0.6715 -0.2516 0)
(0.2523 -0.08179 -7.51e-22)
(0.8972 -0.1738 0)
(0.8688 -0.1302 0)
(0.9974 -0.04691 -2.284e-21)
(0.251 -0.08147 -1.288e-21)
(0.3599 -0.05314 0)
(0.2689 -0.08753 -6.22e-22)
(0.8528 -0.1847 0)
(0.1787 -0.06655 1.163e-22)
(0.3092 -0.1 -5.398e-22)
(0.9843 -0.004747 2.096e-21)
(0.1545 -0.01989 0)
(0.2556 -0.09172 -3.752e-22)
(1.007 -0.003656 -4.999e-20)
(0.5501 -0.07459 -1.901e-22)
(0.9949 -0.002065 3.138e-20)
(0.9949 -0.01652 1.255e-20)
(0.7463 -0.1046 -1.068e-22)
(0.9352 -0.1902 0)
(0.1924 -0.02599 -5.073e-21)
(1.009 -0.007633 5.463e-21)
(0.5242 -0.06273 1.683e-23)
(1.005 0.01419 0)
(0.9205 0.3276 0)
(0.9433 -0.181 -1.403e-21)
(0.5398 -0.1437 4.334e-22)
(0.7706 -0.09317 9.729e-23)
(0.6141 -0.1208 1.482e-22)
(0.603 -0.08716 0)
(0.2819 -0.08494 1.773e-21)
(0.6947 -0.07895 -8.945e-23)
(0.9753 0.001598 7.591e-21)
(0.9794 -0.04356 1.435e-21)
(0.6107 -0.111 3.416e-22)
(0.7003 -0.13 -1.877e-22)
(0.248 -0.08413 -6.073e-23)
(0.2702 -0.08634 0)
(0.2835 -0.01811 3.411e-25)
(0.253 -0.08124 -4.528e-22)
(0.07332 -0.02324 -7.318e-21)
(0.5586 -0.07833 4.959e-22)
(0.6838 -0.1882 0)
(0.7324 0.01198 -8.729e-22)
(0.5462 -0.05761 1.576e-24)
(0.3939 -0.05312 0)
(0.7457 0.1939 5.951e-22)
(0.5007 -0.1434 0)
(0.9278 -0.02019 4.063e-21)
(0.4363 -0.08763 1.598e-21)
(0.2506 -0.09366 1.126e-22)
(0.5041 -0.08463 0)
(0.9912 3.601e-06 -2.944e-21)
(0.5479 -0.3717 1.474e-21)
(0.4678 -0.1216 0)
(0.6409 -0.06244 6.369e-24)
(0.767 -0.2119 1.719e-22)
(0.6305 -0.07296 -1.699e-23)
(0.8354 -0.1153 2.652e-22)
(0.3658 -0.08005 0)
(0.5314 -0.1266 3.506e-22)
(0.6424 -0.06236 1.842e-23)
(0.2427 -0.08774 -8.144e-24)
(0.6138 -0.1679 -1.634e-21)
(0.2133 -0.07756 1.441e-22)
(0.9993 -0.002799 0)
(0.7144 -0.05105 -1.518e-22)
(0.4439 -0.08381 0)
(0.9967 -0.0435 0)
(0.4521 -0.09654 0)
(0.5611 -0.06106 1.065e-22)
(1.001 -1.494e-05 -5.786e-21)
(0.8607 -0.1953 7.121e-22)
(0.2407 -0.09041 0)
(0.9912 -0.08097 0)
(0.7582 0.1986 -2.316e-21)
(0.656 -0.1189 0)
(0.3797 0.02554 0)
(0.9208 -0.1649 1.139e-21)
(1.003 4.887e-05 2.008e-21)
(0.4239 -0.1015 -1.41e-23)
(0.3392 -0.0983 -2.791e-23)
(1.027 0.01091 2.907e-21)
(0.8067 0.1853 1.377e-21)
(0.9719 0.06793 1.91e-23)
(0.449 -0.1179 4.288e-22)
(0.3797 -0.1004 -5.437e-22)
(0.8077 -0.1455 2.592e-22)
(0.9424 -0.04114 0)
(0.2071 -0.0777 -5.395e-23)
(0.06798 -0.02566 2.951e-22)
(0.6278 -0.133 -1.071e-22)
(0.6443 -0.1015 3.915e-22)
(0.4016 -0.1164 -2.133e-22)
(0.1999 -0.0167 0)
(0.9892 4.304e-05 -7.457e-21)
(0.6089 -0.06414 1.517e-23)
(1.006 0.01844 -1.918e-22)
(0.3646 -0.1075 0)
(0.7122 -0.3666 -4.887e-22)
(0.4974 -0.08881 0)
(0.7649 -0.211 1.712e-21)
(0.1974 -0.08257 -7.302e-23)
(0.3153 -0.05182 0)
(0.9974 0.004481 -1.99e-20)
(0.0262 -0.009778 0)
(0.2449 -0.07736 0)
(0.2872 -0.08381 6.397e-22)
(0.6624 -0.05954 6.681e-23)
(0.8475 0.229 0)
(0.5006 -0.1255 -3.131e-22)
(0.496 -0.1341 8.25e-22)
(0.3987 -0.03035 0)
(0.7017 -0.09831 0)
(0.8344 -0.03137 -3.274e-21)
(0.03143 -0.001563 9.529e-23)
(0.2843 -0.09809 1.756e-22)
(0.5531 -0.03752 0)
(0.5714 -0.1202 -1.027e-21)
(0.6593 -0.09941 0)
(0.6123 -0.384 -1.533e-21)
(0.3554 0.01887 2.194e-22)
(0.1644 -0.05686 5.49e-23)
(0.7234 -0.123 1.068e-22)
(0.301 -0.09628 0)
(0.7731 -0.0345 0)
(0.5591 -0.06826 -1.477e-22)
(0.554 -0.05621 -6.485e-24)
(0.6441 -0.1261 0)
(0.05101 -0.01796 0)
(0.9454 -0.09266 6.209e-23)
(0.7414 -0.1583 -5.261e-22)
(0.9509 -0.1312 0)
(0.5859 -0.09902 4.49e-22)
(1.001 -2.856e-05 0)
(1.015 0.00429 -1.912e-20)
(0.7127 -0.09524 -6.518e-22)
(0.2017 -0.01412 9.482e-23)
(0.3333 -0.1064 3.751e-22)
(0.8349 -0.02882 1.417e-20)
(0.1179 -0.0254 -2.031e-21)
(0.2128 -0.07346 2.888e-22)
(0.9892 0.004728 -1.245e-20)
(0.6175 0.0858 0)