/*--------------------------------*- C++ -*----------------------------------*\
  =========                 |
  \\      /  F ield         | OpenFOAM: The Open Source CFD Toolbox
   \\    /   O peration     | Website:  https://openfoam.org
    \\  /    A nd           | Version:  8
     \\/     M anipulation  |
\*---------------------------------------------------------------------------*/
FoamFile
{
    version     2.0;
    format      ascii;
    class       volVectorField;
    location    "25";
    object      U;
}
// * * * * * * * * * * * * * * * * * * * * * * * * * * * * * * * * * * * * * //

dimensions      [0 1 -1 0 0 0 0];

internalField   nonuniform List<vector> 
63564
(
(0.07763 -0.00223 1.385e-22)
(-0.002297 -0.01083 -1.091e-22)
(0.001741 0.008609 1.061e-22)
(0.002338 0.01055 0)
(0.002098 0.01041 0)
(0.6658 0.02742 3.231e-21)
(0.03601 -0.01384 3.09e-23)
(0.003086 0.01129 0)
(0.7118 -0.05125 3.844e-23)
(-0.004619 -0.01814 1.432e-22)
(0.7583 -0.06932 0)
(0.6679 -0.1479 -7.376e-22)
(0.7891 -0.005885 9.823e-23)
(0.9384 -0.2245 0)
(0.2956 -0.1071 1.17e-22)
(0.293 -0.1067 3.501e-22)
(1.165 -0.008275 7.707e-23)
(1.163 0.01416 -5.425e-21)
(1.098 -0.07634 7.398e-24)
(0.889 -0.2186 -1.171e-21)
(0.6407 -0.2116 -8.85e-22)
(1.049 -0.1668 6.447e-22)
(1.062 -0.04988 6.534e-23)
(0.6674 -0.1461 -2.489e-22)
(0.07294 -0.02409 -3.219e-22)
(0.7605 -0.06525 0)
(0.8962 -0.2187 1.136e-21)
(0.6687 -0.2113 -3.509e-22)
(1.116 -0.09284 -3.019e-23)
(0.7647 -0.0557 4.762e-23)
(1.145 -0.1383 -3.304e-22)
(1.094 -0.06297 -7.48e-24)
(1.095 -0.05948 9.21e-22)
(0.7495 -0.2108 0)
(1.126 -0.08911 3.021e-23)
(1.177 -0.1131 3.527e-21)
(1.063 0.02107 1.056e-21)
(1.125 -0.09099 0)
(1.125 -0.09095 0)
(1.11 -0.09277 3.773e-23)
(1.193 0.0006082 -2.279e-21)
(0.6194 -0.1043 2.579e-22)
(1.197 0.01154 4.664e-21)
(0.7128 -0.2246 4.196e-22)
(0.8318 -0.01195 -2.209e-22)
(0.9354 -0.2202 2.475e-21)
(1.062 -0.07074 -3.504e-23)
(0.5667 -0.1407 0)
(0.7083 -0.2229 -7.878e-22)
(1.252 0.1017 7.049e-22)
(0.9569 -0.1619 -2.399e-21)
(0.9392 -0.2242 -4.226e-22)
(1.022 -0.2061 1.833e-21)
(1.085 -0.08494 7.005e-23)
(0.7777 -0.2302 6.404e-22)
(1.062 0.02547 0)
(0.7089 -0.2228 7.299e-22)
(0.7765 -0.2304 0)
(1.241 0.1096 6.417e-22)
(0.9794 -0.2177 7.716e-22)
(0.01025 0.0531 1.212e-22)
(0.9017 -0.226 1.233e-21)
(0.7874 -0.2234 0)
(1.194 -0.1071 -2.861e-22)
(0.789 -0.2334 1.843e-21)
(0.9634 -0.2209 0)
(0.7129 -0.2243 -2.058e-22)
(-0.007387 -0.02568 -5.81e-22)
(0.79 -0.2334 -1.938e-21)
(0.949 -0.07738 -1.659e-21)
(0.9549 -0.2186 -2.145e-21)
(0.9896 -0.0746 -3.912e-21)
(1.1 -0.1618 0)
(1.007 -0.1983 -1.09e-21)
(1.144 -0.1381 4.901e-22)
(0.9628 -0.2209 -8.542e-23)
(1.056 -0.1589 0)
(0.5691 -0.141 0)
(0.6687 -0.211 -4.661e-25)
(1.087 -0.09144 1.606e-22)
(1.105 -0.07983 -6.689e-25)
(0.788 -0.2333 0)
(1.18 -0.1133 -7.196e-22)
(0.6534 -0.2151 -1.022e-21)
(0.4451 -0.1557 1.588e-22)
(1.006 -0.1989 0)
(0.4967 -0.1531 4.54e-24)
(1.193 -0.1078 -2.779e-22)
(0.4755 -0.1361 2.952e-23)
(0.4964 -0.1523 -4.636e-24)
(0.75 -0.2101 0)
(1.131 -0.152 1.272e-22)
(1.141 -0.1487 -1.176e-22)
(0.953 -0.07588 0)
(-0.004822 -0.02953 5.255e-22)
(0.8508 -0.2256 -2.428e-21)
(0.4406 0.0137 2.311e-24)
(0.6422 -0.2116 8.917e-26)
(0.003799 0.01872 5.562e-22)
(1.123 -0.08191 2.742e-24)
(0.9021 -0.1335 1.831e-21)
(0.5474 -0.1467 -1.038e-22)
(0.79 -0.2339 0)
(0.6521 -0.01974 3.261e-23)
(0.4458 -0.1572 -9.269e-23)
(0.9206 -0.2296 0)
(1.149 -0.1326 0)
(1.077 -0.08882 -5.127e-23)
(0.4648 -0.1634 -9.031e-23)
(1.05 -0.1652 0)
(0.5283 -0.1836 -1.666e-22)
(0.7718 -0.2265 4.504e-22)
(0.9462 -0.2234 1.278e-21)
(0.6244 -0.1056 0)
(0.039 -0.0279 -3.73e-22)
(0.9457 -0.2234 -2.908e-22)
(0.7883 -0.2333 -1.084e-21)
(0.1904 -0.01566 1.551e-22)
(1.121 -0.1563 -4.239e-23)
(1.141 -0.1485 0)
(1.214 -0.08649 9.454e-22)
(0.5711 -0.1835 -1.762e-22)
(1.131 -0.1278 0)
(0.01013 0.05294 -2.363e-22)
(1.165 -0.02144 0)
(0.3378 -0.1027 -6.201e-22)
(1.245 0.2049 0)
(0.9898 -0.2099 0)
(0.8815 -0.2242 5.935e-24)
(0.9594 -0.1598 6.428e-23)
(1.175 -0.1067 -1.497e-21)
(1.197 -0.09974 6.387e-22)
(0.7177 -0.2262 9.251e-22)
(1.143 -0.09 -7.39e-22)
(0.6613 -0.206 0)
(1.12 -0.157 0)
(1.127 -0.08699 0)
(1.131 -0.1516 0)
(0.9789 -0.2178 -7.657e-22)
(-0.01623 -0.03442 4.195e-22)
(0.8463 -0.2349 -5.415e-22)
(1.055 -0.1578 -1.652e-22)
(1.106 -0.0937 0)
(0.34 -0.1254 -6.151e-23)
(0.5716 -0.1838 3.409e-22)
(1.141 -0.08892 0)
(1.067 -0.08346 -1.33e-22)
(0.8448 -0.2046 4.247e-24)
(0.3393 -0.169 -7.2e-23)
(1.061 -0.1678 3.378e-22)
(0.9918 -0.1352 -2.719e-22)
(1.098 -0.08267 -4.259e-24)
(1.1 -0.1508 0)
(0.4247 -0.04542 -7.063e-23)
(1.099 -0.03678 -1.989e-22)
(0.7353 -0.2168 5.323e-22)
(0.7343 -0.2166 -2.581e-22)
(0.8617 -0.2344 1.998e-25)
(0.9898 -0.07275 5.223e-21)
(1.138 -0.1398 2.85e-22)
(1.132 -0.1506 0)
(0.9401 -0.2254 -1.639e-21)
(1.025 -0.2049 -6.882e-25)
(1.217 -0.08589 0)
(0.7221 -0.1726 5.887e-22)
(0.5171 -0.1669 9.766e-23)
(1.132 -0.151 0)
(0.9252 -0.226 -2.557e-21)
(0.9888 -0.2106 6.321e-22)
(1.094 -0.03477 1.223e-22)
(0.6547 -0.199 1.864e-22)
(1.126 -0.08921 0)
(0.7836 -0.1311 7.652e-22)
(1.112 -0.08506 0)
(1.118 -0.09563 2.725e-23)
(1.024 -0.1958 3.687e-21)
(1.112 -0.08712 0)
(1.01 -0.09701 -1.376e-22)
(0.3111 -0.1969 -7.925e-23)
(0.7563 -0.2271 0)
(0.8538 -0.1815 -1.203e-21)
(0.9061 -0.0662 8.122e-24)
(1.067 -0.05075 -7.891e-23)
(0.8531 -0.2263 2.277e-22)
(0.9559 -0.1923 0)
(0.4919 -0.1716 2.429e-22)
(1.094 -0.08355 -3.404e-23)
(1.102 -0.07637 1.168e-23)
(1.047 -0.07976 4.255e-23)
(0.9747 -0.2165 0)
(0.4785 -0.1361 0)
(0.712 -0.2226 0)
(0.6822 -0.2127 0)
(1.023 -0.2057 -1.365e-21)
(0.8466 -0.2339 6.919e-23)
(1.1 -0.1346 1.888e-21)
(0.6539 -0.2151 6.814e-22)
(0.5503 -0.1904 3.981e-21)
(0.8011 -0.2342 0)
(0.7714 -0.2269 0)
(1.215 -0.08673 0)
(0.7937 -0.2337 0)
(0.5143 -0.1672 0)
(0.8697 -0.1449 -3.157e-21)
(1.224 -0.04043 2.491e-23)
(0.9679 -0.2185 -1.415e-21)
(1.118 -0.09308 0)
(0.9437 -0.07903 6.127e-22)
(1.088 -0.08536 -5.176e-23)
(0.5473 -0.145 -9.756e-23)
(0.8818 -0.2311 0)
(1.048 -0.1889 3.108e-21)
(0.6285 -0.2071 -4.067e-22)
(1.227 -0.07369 1.665e-21)
(0.6505 -0.2118 0)
(1.093 -0.1314 2.997e-21)
(1.186 -0.1072 8.537e-22)
(0.9356 -0.2052 0)
(1.186 -0.1081 0)
(1.048 -0.1922 9.872e-22)
(0.8791 -0.2302 1.821e-21)
(0.7875 -0.2294 0)
(0.9847 -0.1528 0)
(1.06 -0.167 0)
(0.9867 -0.1505 0)
(0.5635 -0.1956 -6.101e-22)
(1.134 -0.1356 0)
(1.11 -0.1656 3.703e-22)
(1.223 -0.04001 -5.263e-22)
(1.126 -0.1367 -1.38e-22)
(1.094 -0.09224 -1.761e-22)
(1.152 -0.1356 5.719e-22)
(0.005414 0.0293 -5.059e-22)
(0.7744 -0.2328 4.618e-22)
(0.5649 -0.1854 -2.299e-22)
(0.8525 -0.2249 -8.242e-22)
(-0.004992 -0.02329 0)
(-0.0163 -0.07501 2.049e-22)
(0.2031 -0.06802 1.131e-22)
(0.9257 -0.2262 8.072e-23)
(1.289 0.02714 0)
(0.678 -0.203 4.797e-22)
(0.7199 -0.2263 1.688e-22)
(0.8818 -0.2313 0)
(0.7883 -0.2295 0)
(0.9212 -0.1781 -4.861e-22)
(0.5259 -0.13 0)
(0.2551 -0.09158 -4.862e-22)
(0.4485 -0.1563 0)
(0.9362 -0.2043 0)
(1.083 -0.08845 0)
(0.515 -0.1797 1.219e-22)
(1.048 -0.1929 6.147e-22)
(0.4088 -0.1466 -4.631e-23)
(0.8928 -0.2061 0)
(0.6042 -0.205 0)
(1.092 -0.1367 3.161e-21)
(1.109 -0.09418 0)
(1.113 -0.08504 6.157e-24)
(0.8761 -0.2299 -2.006e-21)
(0.6667 -0.218 1.107e-22)
(0.8531 -0.2258 0)
(1.178 -0.07332 -2.424e-21)
(0.6928 -0.2222 3.031e-22)
(0.7953 -0.2338 0)
(1.074 -0.05281 3.635e-23)
(0.8352 -0.2349 0)
(0.5953 -0.1916 0)
(0.9382 -0.2257 2.9e-21)
(0.7042 -0.2216 1.006e-21)
(0.6129 -0.2052 2.97e-22)
(0.637 -0.2088 -2.867e-21)
(0.5353 -0.1859 -1.442e-22)
(0.8099 -0.2319 4.221e-22)
(1.186 -0.02186 0)
(0.8684 -0.234 0)
(0.7131 -0.2225 0)
(0.4833 -0.1231 4.312e-23)
(0.9279 -0.1974 -2.621e-21)
(0.6733 -0.2197 1.283e-21)
(0.8824 -0.2241 -7.057e-24)
(0.4464 -0.1575 -1.852e-22)
(1.119 -0.08637 2.254e-23)
(1.113 -0.1458 0)
(0.9174 -0.2253 2.03e-21)
(0.2843 -0.1548 2.598e-24)
(1.097 -0.174 2.852e-22)
(1.098 -0.1601 -8.767e-22)
(1.122 -0.0617 0)
(0.5291 -0.1749 -1.638e-22)
(1.171 -0.1163 0)
(1.099 -0.1615 2.529e-23)
(0.9426 -0.2253 0)
(0.5309 -0.184 9.297e-25)
(1.316 0.167 1.645e-21)
(0.941 -0.2213 2.237e-21)
(0.6191 -0.169 0)
(0.8767 -0.2313 0)
(1.132 -0.1505 -2.17e-22)
(0.7854 -0.2331 5.525e-22)
(1.192 -0.09929 -1.951e-21)
(1.238 -0.0635 7.823e-25)
(1.126 -0.1533 0)
(1.066 -0.1361 -4.55e-22)
(1.1 -0.1499 0)
(1.125 -0.1369 5.908e-23)
(0.4107 -0.145 -4.535e-22)
(0.7458 -0.23 -1.025e-21)
(1.184 -0.1164 -1.495e-22)
(1.141 -0.1381 0)
(0.7579 -0.2308 -1.32e-24)
(1.126 -0.1528 -3.537e-22)
(0.07461 -0.02517 0)
(0.467 -0.1638 0)
(0.6514 -0.2118 -9.084e-23)
(0.6285 -0.2074 3.736e-22)
(0.8462 -0.2347 0)
(1.107 -0.1683 4.25e-22)
(1.094 -0.1728 7.56e-22)
(1.179 -0.119 -5.84e-22)
(0.4255 -0.148 0)
(0.9744 -0.2161 -1.879e-24)
(-0.04278 -0.05252 7.939e-23)
(1.129 -0.1562 5.102e-23)
(0.846 -0.2051 -3.253e-21)
(1.153 -0.02896 -2.088e-21)
(1.084 -0.08889 6.986e-23)
(1.253 0.2342 1.6e-22)
(1.027 -0.1966 -2.529e-21)
(0.646 -0.1858 6.36e-22)
(0.9059 -0.1312 0)
(0.7884 -0.1308 0)
(1.087 -0.0776 1.408e-23)
(-0.01099 -0.03885 -1.27e-22)
(1.174 -0.1057 9.205e-22)
(0.7571 -0.2269 0)
(0.492 -0.171 -6.7e-22)
(0.7081 -0.1266 -4.778e-22)
(0.9581 -0.2076 1.438e-24)
(1.131 -0.1508 0)
(0.8457 -0.234 -1.039e-21)
(0.6864 -0.1816 9.324e-22)
(0.7876 -0.223 6.103e-22)
(0.1036 -0.004152 -4.821e-23)
(0.4543 -0.1413 -4.378e-23)
(0.725 -0.1723 6.388e-22)
(0.7041 -0.2212 3.08e-22)
(0.4079 -0.1459 6.271e-22)
(0.802 -0.2343 7.189e-25)
(1.092 -0.1733 0)
(0.5542 -0.1854 -6.39e-23)
(1.037 -0.1979 2.716e-21)
(1.168 -0.1301 2.141e-22)
(0.7197 -0.2219 4.415e-22)
(0.4255 -0.1504 0)
(0.8506 -0.2322 0)
(0.9974 -0.2085 -7.786e-22)
(1.138 -0.1392 1.279e-22)
(1.108 -0.1678 -8.275e-22)
(0.7743 -0.2326 4.186e-22)
(0.7205 -0.2265 8.576e-22)
(0.7188 -0.2218 -5.628e-22)
(0.7064 -0.2034 0)
(1.037 -0.07847 0)
(1.089 -0.07294 0)
(0.6781 -0.2022 0)
(0.6692 -0.2185 2.573e-22)
(0.7205 -0.2263 0)
(0.7576 -0.2309 -1.32e-25)
(1.13 -0.1388 5.183e-23)
(0.07176 -0.07136 3.687e-22)
(1.13 -0.1383 -1.03e-22)
(0.5158 -0.1799 -5.669e-23)
(1.025 -0.2039 -6.875e-22)
(0.5621 -0.1767 0)
(0.04141 -0.01734 2.79e-22)
(0.8181 -0.2347 4.724e-22)
(1.097 -0.1739 0)
(0.5326 -0.1864 0)
(0.6655 -0.2139 0)
(0.632 -0.2113 3.381e-22)
(0.7201 -0.2268 -1.367e-22)
(1.112 -0.09302 -3.42e-23)
(0.7109 -0.1561 0)
(0.7386 -0.2291 1.069e-21)
(0.8771 -0.2309 0)
(0.4974 -0.156 7.748e-23)
(1.064 -0.138 4.631e-22)
(0.7419 -0.2107 -8.668e-22)
(0.6198 -0.1698 -2.815e-22)
(0.6193 -0.2085 0)
(0.7093 -0.2218 0)
(0.8278 -0.03203 1.399e-23)
(0.7551 -0.2297 0)
(0.647 -0.213 0)
(1.096 -0.08083 -1.28e-24)
(1.075 -0.08468 8.825e-23)
(1.203 0.007623 -1.351e-21)
(0.9022 -0.1241 0)
(0.5246 -0.1492 8.031e-23)
(1.125 -0.1572 -5.148e-22)
(1.151 -0.1134 0)
(1.043 -0.04837 8.388e-23)
(0.8677 -0.2307 9.634e-22)
(1.085 -0.08861 0)
(0.4085 -0.1534 6.6e-23)
(1.091 -0.06945 0)
(1.009 -0.1737 3.722e-21)
(0.4258 -0.1488 0)
(0.8667 -0.09143 0)
(0.5349 -0.1854 2.834e-22)
(1.009 -0.06156 -7.763e-21)
(1.316 0.0897 0)
(1.341 0.1453 -1.366e-21)
(0.8322 0.07298 -3.223e-21)
(0.9339 -0.2273 1.819e-21)
(0.5419 -0.1887 0)
(0.7143 -0.1558 -4.312e-22)
(0.9368 -0.07505 -1.014e-23)
(1.09 -0.1699 4.977e-22)
(1.14 -0.1488 6.317e-22)
(0.6662 -0.0801 1.419e-21)
(0.768 -0.1655 0)
(0.6766 -0.219 -1.469e-22)
(0.9403 -0.217 -2.368e-21)
(0.3516 -0.1355 4.082e-21)
(0.4784 -0.1023 -4.126e-22)
(0.9944 -0.1975 -1.616e-24)
(0.6113 -0.2065 0)
(1.153 -0.1346 -7.088e-22)
(0.9074 -0.2265 0)
(0.8267 -0.2348 0)
(0.763 -0.2104 -7.506e-22)
(0.8022 -0.1701 0)
(0.7357 -0.03052 0)
(0.3536 -0.1335 0)
(0.8136 -0.2306 -6.049e-22)
(0.4257 -0.1519 0)
(1.212 -0.09245 0)
(1.16 0.1493 8.325e-22)
(0.2838 -0.1045 -8.098e-23)
(0.9017 -0.1905 1.095e-21)
(1.316 0.06718 -1.495e-21)
(1.125 -0.07921 0)
(0.393 -0.1399 -3.006e-22)
(0.5792 -0.03461 0)
(0.6859 -0.2216 -8.387e-22)
(0.9428 -0.2208 2.286e-21)
(0.9459 -0.0277 0)
(1.071 -0.03091 0)
(0.9852 -0.08071 2.27e-21)
(1.188 -0.07225 -2.597e-21)
(0.6797 -0.2143 0)
(0.2341 -0.1608 -1.181e-22)
(1.032 -0.195 0)
(0.8385 -0.2344 9.662e-22)
(0.8053 -0.2317 -3.354e-22)
(0.549 -0.1918 0)
(0.5859 -0.1995 -2.286e-22)
(0.5893 -0.2023 0)
(0.638 -0.196 0)
(1.123 -0.1338 0)
(1.275 -0.008846 1.758e-22)
(1.196 -0.1055 6.64e-22)
(1.13 -0.1476 -3.274e-22)
(1.089 -0.08189 -6.794e-24)
(0.7816 -0.2316 0)
(0.6756 -0.2057 0)
(0.641 -0.2139 -1.926e-23)
(0.2478 -0.1771 -5.465e-23)
(0.3152 -0.1129 -1.748e-22)
(0.8024 -0.2318 0)
(0.7255 -0.2213 -4.382e-22)
(0.6196 -0.2025 0)
(0.8773 -0.2314 0)
(0.6182 -0.2087 -4.165e-22)
(1.104 -0.1449 6.007e-22)
(0.7424 -0.2286 1.289e-24)
(1.109 -0.08131 -5.251e-23)
(1.067 -0.08242 2.279e-23)
(0.5364 -0.1784 0)
(0.9928 -0.1774 0)
(1.049 -0.1888 -1.359e-21)
(1.129 -0.09502 -2.255e-23)
(0.6641 -0.1887 2.892e-22)
(0.6499 -0.2144 5.24e-22)
(0.5776 -0.2161 3.823e-22)
(0.4004 -0.1437 -5.173e-23)
(0.7069 -0.2027 5.07e-23)
(1.105 -0.1701 -9.834e-22)
(0.5285 -0.1365 -4.056e-21)
(1.154 -0.1356 0)
(0.9427 -0.2247 -3.39e-21)
(0.262 -0.09734 -1.67e-22)
(0.3959 -0.1456 -2.728e-23)
(0.6773 -0.2198 -1.195e-21)
(0.6867 -0.2213 -2.08e-21)
(0.5598 -0.1014 0)
(0.6876 -0.222 -1.943e-22)
(0.4105 -0.1458 0)
(0.6856 -0.2197 -7.782e-22)
(0.5557 -0.1885 -1.828e-22)
(1.111 -0.1657 6.478e-22)
(0.9377 -0.1 6.396e-21)
(0.7519 -0.1527 0)
(0.7468 -0.2277 -5.035e-23)
(1.038 -0.1925 0)
(0.6248 -0.2102 0)
(0.7038 -0.224 0)
(0.9883 -0.07254 -1.041e-23)
(0.6902 -0.2218 1.448e-21)
(0.4238 -0.1351 -4.109e-21)
(1.096 -0.1746 -1.639e-21)
(1.289 0.01512 1.92e-21)
(0.73 -0.162 -4.125e-22)
(1.018 -0.2044 -3.356e-21)
(0.4633 -0.151 -6.157e-23)
(0.8578 -0.2287 4.819e-22)
(1.135 -0.15 6.401e-23)
(0.9682 -0.2094 -3.137e-21)
(0.8749 -0.2185 0)
(0.5264 -0.1801 0)
(0.4055 -0.154 -6.301e-23)
(1.128 -0.08956 0)
(1.033 -0.1975 0)
(0.9967 -0.2118 -2.404e-21)
(1.162 -0.1248 -2.176e-21)
(0.4668 -0.1572 -2.516e-23)
(1.004 -0.1914 1.309e-21)
(0.4627 -0.04973 0)
(0.9416 -0.2259 4.701e-22)
(0.8026 -0.2338 -8.87e-22)
(0.8688 -0.2318 2.01e-22)
(0.8794 -0.2321 0)
(0.4296 -0.1506 -3.147e-23)
(0.3371 -0.1219 4.236e-22)
(0.7696 -0.225 7.082e-22)
(0.9418 -0.07388 6.974e-25)
(0.7808 -0.2322 0)
(1.059 -0.1911 -9.55e-22)
(0.3989 -0.1597 1.827e-23)
(1.012 -0.1679 0)
(0.2357 -0.08365 0)
(0.7183 -0.2256 0)
(0.7878 -0.2302 0)
(0.8492 -0.2211 -1.623e-21)
(0.7167 -0.1312 0)
(1.067 -0.08295 0)
(0.4463 -0.03189 -1.178e-22)
(0.6124 -0.2025 -2.055e-22)
(1.108 -0.08283 1.264e-23)
(0.4309 -0.06544 7.303e-23)
(0.5639 -0.1926 -5.996e-23)
(0.708 -0.2252 0)
(1.155 -0.1116 1.466e-21)
(0.8943 -0.1927 0)
(0.3653 -0.141 0)
(1.081 -0.1593 1.113e-21)
(0.911 -0.06332 0)
(0.6927 -0.2178 6.497e-23)
(0.5884 -0.1271 0)
(0.5884 -0.2019 -3.625e-22)
(1.339 0.1893 3.548e-22)
(1.13 -0.1275 1.669e-22)
(-0.01084 0.0272 9.117e-23)
(0.6218 -0.2072 -1.211e-22)
(0.09853 -0.03227 -1.473e-22)
(0.7703 -0.1664 9.039e-22)
(0.566 -0.1951 -2.373e-21)
(0.7516 -0.2221 -1.063e-21)
(1.123 -0.1147 -2.228e-21)
(1.086 -0.09332 0)
(1.081 -0.179 2.51e-21)
(0.7871 -0.11 0)
(1.144 -0.08946 0)
(0.7791 -0.2329 0)
(1.123 -0.08767 0)
(0.6421 -0.1869 0)
(0.3733 -0.136 0)
(0.6426 -0.2024 1.94e-22)
(0.5976 -0.1759 0)
(1.142 -0.04075 9.277e-22)
(0.3687 -0.1397 3.901e-21)
(1.266 0.03984 0)
(0.753 -0.2244 0)
(0.6383 -0.2121 -2.148e-22)
(0.7142 -0.2254 -2.842e-22)
(0.7379 -0.2165 0)
(1.138 -0.1487 1.649e-23)
(1.136 -0.0581 -4.352e-21)
(0.5988 -0.201 -1.267e-21)
(1.083 -0.09149 0)
(0.4414 -0.1541 1.136e-22)
(0.9745 -0.2187 -2.593e-22)
(1.214 -0.07544 1.308e-21)
(0.7638 -0.1901 5.898e-24)
(0.5869 -0.2015 -3.691e-23)
(0.5614 -0.195 0)
(0.676 -0.2194 -3.761e-22)
(1.346 0.2034 1.36e-22)
(1.03 -0.203 -1.754e-21)
(0.9149 -0.2251 -1.206e-21)
(0.7655 0.00537 -4.421e-21)
(0.6608 -0.2147 4.519e-22)
(0.4972 -0.1712 0)
(0.5211 -0.1215 4.75e-23)
(0.6915 -0.1824 0)
(1.009 -0.09717 -8.331e-22)
(0.8439 -0.2343 -1.671e-21)
(0.8603 -0.209 0)
(1.265 -0.0273 1.103e-21)
(0.5855 -0.1983 0)
(0.7157 -0.2264 -9.577e-22)
(1.097 -0.07756 -2.544e-23)
(0.7896 -0.2263 -3.838e-22)
(1.094 -0.1346 -2.327e-21)
(0.816 -0.2167 2.362e-21)
(0.7275 -0.2275 9.366e-22)
(1.127 -0.09019 -7.492e-24)
(1.021 -0.2043 -9.281e-22)
(0.8454 -0.1782 -3.383e-21)
(0.9114 -0.2307 0)
(0.6492 -0.1935 2.637e-24)
(0.8386 -0.2181 0)
(1.028 -0.1056 3.403e-21)
(0.4201 -0.1512 7.636e-24)
(0.6753 -0.219 0)
(0.6533 -0.05335 0)
(1.113 -0.0852 2.791e-23)
(0.7376 -0.2285 5.387e-21)
(0.4778 -0.166 4.968e-23)
(0.7251 -0.2271 -6.777e-22)
(1.084 -0.1792 -1.886e-21)
(-0.07079 -0.0321 -1.18e-22)
(1.316 0.08135 7.365e-22)
(0.7739 -0.2326 -2.13e-22)
(1.276 -0.005186 -6.974e-22)
(0.7611 -0.1901 8.171e-22)
(1.081 -0.08499 5.099e-23)
(0.707 -0.2039 -1.952e-22)
(0.751 -0.2305 -8.075e-22)
(0.6887 -0.2225 -3.389e-22)
(0.6471 -0.1858 -5.844e-22)
(0.6331 -0.1793 0)
(0.948 -0.06332 -1.117e-22)
(0.6559 -0.216 -4.843e-22)
(1.141 -0.1361 0)
(1.345 0.1738 0)
(0.9713 -0.2193 7.262e-22)
(1.12 -0.0941 0)
(0.8048 0.09986 -7.016e-22)
(0.8426 -0.2348 5.189e-22)
(0.7524 -0.2307 0)
(1.123 -0.1447 -5.383e-23)
(0.9769 -0.2169 -1.32e-21)
(0.6628 -0.2059 -8.829e-23)
(0.537 -0.1787 0)
(0.7898 -0.2257 0)
(0.5856 -0.1577 0)
(1.304 0.04025 8.744e-22)
(0.6121 -0.2054 2.62e-22)
(0.3826 -0.149 0)
(0.9712 -0.1331 0)
(0.7792 -0.2293 0)
(0.8909 -0.2323 3.288e-22)
(0.1742 -0.06099 -2.583e-22)
(0.7068 -0.2242 2.478e-23)
(0.0114 0.04688 -1.552e-25)
(0.4531 -0.1065 1.079e-22)
(0.9087 -0.1471 -2.43e-21)
(1.019 -0.07402 2.523e-23)
(0.5238 -0.1479 -3.796e-23)
(0.6295 -0.2111 3.047e-24)
(1.149 -0.1376 0)
(1.124 -0.1583 5.106e-22)
(1.175 -0.1129 -1.581e-21)
(0.6989 -0.1747 3.592e-22)
(0.7875 0.09757 3.492e-21)
(0.8828 -0.2333 -4.09e-22)
(0.5648 -0.192 3.565e-22)
(0.8188 -0.1077 0)
(0.8611 -0.1793 -2.466e-21)
(0.7538 -0.2164 -5.325e-22)
(1.271 0.0621 6.606e-23)
(0.8769 -0.2322 -2.586e-22)
(1.157 -0.127 9.535e-23)
(0.8286 -0.2303 0)
(0.7496 -0.2254 1.718e-21)
(0.4612 -0.1494 0)
(0.4877 -0.1628 -4.366e-23)
(1.135 -0.1427 0)
(0.5152 -0.167 0)
(1.167 -0.1175 -1.767e-21)
(0.778 -0.09464 2.137e-21)
(0.6307 -0.2038 0)
(0.822 -0.2349 0)
(0.7213 -0.2255 -1.573e-22)
(0.9288 -0.1284 -4.21e-21)
(0.8898 -0.231 0)
(0.7551 -0.03982 -7.778e-23)
(1.069 0.006399 1.848e-21)
(0.3501 -0.1323 2.74e-21)
(0.5895 -0.199 1.666e-22)
(1.221 -0.08222 -1.255e-22)
(0.05504 -0.0859 -9.122e-23)
(0.8292 -0.2232 0)
(0.9565 -0.2172 6.262e-22)
(0.4943 -0.1717 2.101e-22)
(1.213 -0.08495 9.865e-22)
(0.6459 -0.04966 8.647e-22)
(0.8185 -0.228 -2.654e-21)
(1.267 0.1609 0)
(1.076 -0.08156 9.502e-24)
(0.8002 0.09051 3.599e-21)
(0.6247 -0.21 0)
(0.656 -0.2065 2.077e-22)
(1.287 0.06225 -1.492e-21)
(1.09 -0.08365 -1.627e-23)
(0.9895 -0.1364 -4.005e-21)
(0.819 -0.2318 -7.736e-22)
(0.7658 -0.2019 -4.973e-21)
(1.031 -0.2027 1.602e-21)
(0.6782 -0.2189 1.355e-21)
(0.8144 -0.2306 0)
(0.3547 -0.1822 0)
(0.4334 -0.1519 0)
(0.7364 -0.2267 7.337e-22)
(0.5217 -0.1875 0)
(0.4153 -0.1472 0)
(1.041 -0.07623 2.818e-24)
(1.102 -0.1666 1.175e-21)
(1.172 -0.1031 9.038e-22)
(0.8948 -0.2259 2.918e-22)
(0.6935 -0.2178 -2.402e-22)
(0.919 -0.2255 -2.115e-21)
(0.486 -0.04919 -1.535e-22)
(1.076 0.04066 -5.104e-22)
(1.146 -0.141 5.801e-22)
(0.5492 -0.1866 -3.982e-21)
(0.7288 -0.2281 0)
(1.102 -0.09147 0)
(1.135 -0.1492 -4.857e-28)
(0.4723 -0.1146 1.838e-22)
(0.8742 -0.2334 -8.73e-22)
(1.135 -0.1353 1.127e-22)
(0.6672 -0.2188 0)
(0.8 -0.2083 0)
(1.141 -0.136 0)
(0.06076 -0.08072 -1.645e-22)
(1.043 -0.09818 0)
(1.233 -0.06571 0)
(1.201 -0.09382 0)
(0.1666 -0.07558 3.065e-22)
(0.7137 -0.226 -1.739e-21)
(0.7773 -0.2005 -2.628e-21)
(1.106 -0.08142 0)
(0.9253 -0.2235 0)
(0.6717 -0.1582 0)
(1.153 -0.1065 3.352e-22)
(0.5187 -0.1668 -4.267e-23)
(0.5662 -0.1885 -9.795e-23)
(1.062 -0.1907 -1.095e-21)
(1.186 -0.1151 -9.851e-22)
(0.9155 -0.08992 -1.015e-21)
(1.088 -0.0574 3.209e-21)
(0.858 -0.2328 -1.533e-23)
(0.429 -0.1508 0)
(0.7994 -0.1694 2.367e-22)
(1.173 -0.086 0)
(0.6688 -0.2185 2.026e-22)
(0.6564 -0.215 5.718e-22)
(1.112 -0.1504 -3.876e-22)
(0.8583 -0.2225 -6.566e-22)
(0.8659 -0.2284 5.354e-22)
(1.324 0.08706 0)
(0.5032 -0.1622 -2.504e-23)
(1.182 -0.1055 7.14e-24)
(0.5648 -0.1703 0)
(1.056 -0.1248 4.8e-21)
(1.115 -0.1643 -6.424e-22)
(1.355 0.2141 8.193e-22)
(0.4785 -0.138 4.418e-21)
(0.6448 -0.2139 -2.148e-22)
(0.981 -0.07615 2.744e-24)
(0.8495 -0.2069 1.969e-23)
(1.304 0.03689 -1.561e-21)
(0.7098 -0.2083 -2.372e-22)
(0.4823 -0.135 -8.559e-21)
(0.5037 -0.1666 -1.633e-23)
(1.094 -0.1663 3.578e-22)
(0.596 -0.1904 1.112e-22)
(1.025 -0.07937 2.761e-23)
(1.057 -0.1916 -2.1e-21)
(1.214 -0.09063 -2.087e-21)
(0.6024 -0.03506 0)
(0.4122 -0.1231 -6.555e-24)
(0.5018 -0.1666 -3.594e-23)
(1.001 -0.2117 9.789e-22)
(0.6463 -0.2033 3.066e-24)
(0.5626 -0.1772 0)
(0.8177 -0.2301 1.393e-21)
(0.505 -0.1736 -3.477e-23)
(0.4399 -0.1513 4.898e-23)
(0.5792 -0.1855 -7.282e-21)
(0.7988 -0.2323 0)
(0.8082 -0.2339 1.473e-25)
(1.131 0.1139 -4.365e-22)
(1.057 0.01096 -1.702e-21)
(0.4145 -0.1263 5.073e-23)
(0.7478 -0.1837 3.442e-22)
(1.105 -0.1377 1.029e-21)
(1.147 -0.1411 0)
(0.8254 -0.2305 1.147e-21)
(0.9539 -0.2208 -2.222e-21)
(0.4067 -0.1437 0)
(0.9781 -0.2163 1.56e-21)
(1.336 0.1767 4.423e-22)
(0.6687 -0.2125 4.74e-22)
(0.68 -0.2058 -1.222e-22)
(1.081 -0.1784 2.65e-21)
(0.5586 -0.1319 2.893e-22)
(0.5978 -0.169 -1.726e-22)
(1.086 -0.06605 -5.05e-23)
(0.6303 -0.2034 2.271e-22)
(0.6439 -0.1794 1.565e-22)
(1.05 -0.006058 -1.108e-21)
(0.6787 -0.1206 7.349e-22)
(0.614 -0.1943 -2.406e-22)
(0.5761 -0.03132 -1.346e-22)
(0.6424 -0.212 -2.848e-22)
(1.054 -0.1518 5.038e-22)
(1.204 -0.09492 5.36e-22)
(0.5579 -0.1908 -2.235e-22)
(1.063 -0.1706 9.512e-22)
(0.427 -0.1346 4.113e-21)
(0.3608 -0.1308 -2.726e-22)
(0.6017 -0.04312 2.593e-23)
(0.754 -0.2171 1.023e-21)
(0.4612 -0.1629 -3.332e-23)
(0.744 -0.1629 0)
(1.075 -0.0518 -3.133e-22)
(0.4857 -0.02771 4.953e-23)
(1.094 -0.06152 1.073e-21)
(0.9394 -0.07837 7.617e-22)
(1.002 7.969e-05 0)
(0.6267 -0.2088 0)
(0.8003 -0.2274 8.907e-22)
(0.5716 -0.162 1.609e-22)
(0.9318 -0.06612 0)
(0.6419 -0.1817 0)
(0.593 -0.2006 0)
(1.003 -0.1415 1.537e-21)
(1.144 -0.1384 -2.443e-22)
(0.8732 -0.2339 -1.52e-21)
(1.122 -0.1607 -3.797e-22)
(0.08312 -0.1005 -1.524e-22)
(0.6475 -0.1607 -8.284e-22)
(0.7745 -0.1144 0)
(0.8791 -0.2023 2.2e-21)
(1.071 -0.1641 0)
(0.818 -0.2306 -4.233e-21)
(0.4225 -0.1496 1.106e-22)
(0.7213 -0.215 -2.742e-22)
(0.7075 -0.2242 0)
(0.75 -0.2283 0)
(1.01 -0.202 0)
(0.5808 -0.1974 1.727e-22)
(0.6648 -0.2176 1.388e-21)
(0.5478 -0.1869 1.081e-22)
(0.7438 -0.1612 4.221e-22)
(0.9555 -0.2064 0)
(1.027 -0.09402 0)
(1.084 -0.1467 -4.233e-21)
(0.6126 -0.206 1.108e-22)
(0.4984 -0.1273 1.36e-22)
(0.571 -0.1913 -2.456e-22)
(0.6138 -0.174 -3.352e-22)
(1.027 -0.1969 6.791e-22)
(0.9056 -0.1359 3.498e-21)
(0.4438 -0.1363 0)
(0.6173 -0.2066 0)
(0.6261 -0.1982 9.056e-23)
(0.8173 -0.2242 0)
(1.113 -0.08659 6.721e-23)
(0.4526 -0.1598 7.94e-23)
(0.6134 -0.1659 -3.366e-22)
(1.294 0.0196 0)
(1.126 -0.1396 0)
(0.566 -0.1879 4.041e-22)
(1.104 -0.09561 6.039e-23)
(0.8564 -0.1799 -3.611e-21)
(1.276 0.05438 2.178e-21)
(1.107 -0.1373 -5.227e-22)
(0.874 -0.06284 8.663e-23)
(0.7648 -0.2124 -3.926e-22)
(1.106 -0.09061 0)
(0.7912 -0.219 2.384e-22)
(1.106 -0.07087 -1.459e-22)
(0.8161 0.1044 5.564e-21)
(0.9062 -0.2149 3.289e-22)
(0.649 -0.2144 1.724e-21)
(0.7396 -0.2288 -1.547e-21)
(1.059 -0.1924 1.294e-21)
(0.5342 -0.1747 -1.808e-22)
(0.9216 -0.1936 2.271e-21)
(0.5422 -0.1737 -1.502e-22)
(0.8303 -0.09746 0)
(0.9227 -0.2293 -1.199e-21)
(0.4953 -0.1724 3.163e-22)
(1.138 -0.1483 -3.032e-22)
(1.123 -0.09215 0)
(1.034 -0.1976 -8.731e-22)
(0.9337 -0.2272 -5.916e-22)
(1.31 0.1554 1.49e-21)
(0.5563 -0.1785 0)
(0.6885 -0.2221 1.679e-21)
(0.5936 -0.2015 -4.734e-22)
(0.9857 -0.07641 -3.448e-23)
(1.125 -0.1578 -3.768e-22)
(0.8896 -0.2317 -1.179e-21)
(0.5853 -0.1884 -1.199e-22)
(0.8946 -0.2321 -6.414e-22)
(1.099 -0.1724 8.544e-22)
(1.035 -0.2007 1.369e-21)
(0.693 -0.2215 0)
(0.7442 -0.2196 3.5e-22)
(0.9177 -0.2297 1.99e-21)
(0.4926 -0.1651 -4.513e-23)
(0.558 -0.1893 -2.659e-22)
(0.5191 -0.1803 5.481e-23)
(0.6376 -0.2131 7.739e-22)
(1.169 -0.129 2.412e-22)
(0.6252 -0.1939 3.001e-22)
(0.7219 -0.2001 -7.311e-23)
(0.7836 -0.2332 -1.777e-21)
(0.763 -0.2227 0)
(1.069 -0.08339 1.764e-23)
(1.026 -0.2032 0)
(1.087 -0.0871 3.197e-23)
(1.271 0.0493 -1.351e-21)
(0.5835 -0.1886 2.866e-22)
(1.128 -0.08177 4.526e-23)
(0.6892 -0.06678 5.214e-21)
(0.7799 -0.233 0)
(0.7251 -0.2264 -3.295e-22)
(1.095 -0.08016 3.497e-22)
(1.046 -0.1876 -2.254e-21)
(0.3996 -0.1591 1.85e-23)
(0.6027 -0.1658 -3.18e-22)
(1.009 -0.1015 3.875e-21)
(1.213 -0.05806 -1.313e-21)
(1.097 -0.1554 0)
(0.5546 -0.1096 -2.918e-22)
(0.6657 -0.1776 0)
(0.5597 -0.1166 0)
(0.5631 -0.1954 0)
(1.078 -0.05173 1.384e-22)
(0.6512 -0.2127 -2.908e-22)
(1.039 -0.04136 -8.796e-23)
(0.5179 -0.1819 -1.748e-21)
(0.7322 -0.1924 0)
(1.14 -0.1482 -4.357e-22)
(1.124 -0.1473 -4.794e-22)
(1.089 -0.1442 -2.023e-23)
(1.066 -0.1112 0)
(0.3892 -0.1397 -1.289e-22)
(0.7301 -0.1599 4.088e-22)
(1.005 -0.09721 1.774e-21)
(0.3952 -0.1362 0)
(0.9573 -0.1632 -1.452e-21)
(0.5863 -0.2016 -1.058e-22)
(0.9853 -0.1654 0)
(1.039 -0.1918 3.972e-22)
(1.13 -0.1199 -3.537e-21)
(0.7383 -0.2297 5.124e-22)
(0.7916 -0.2341 0)
(0.5731 -0.1623 -2.155e-22)
(0.3217 -0.09294 -1.636e-22)
(0.9038 -0.2307 5.815e-22)
(0.7763 -0.2329 0)
(0.3478 -0.126 -8.497e-22)
(0.8561 -0.2259 0)
(0.5563 -0.1853 3.878e-21)
(1.012 -0.04382 1.139e-22)
(0.7622 -0.2277 0)
(0.868 -0.2283 -1.066e-21)
(0.4265 -0.1512 0)
(0.6852 -0.217 0)
(0.8233 -0.2327 -2.093e-21)
(0.9068 -0.2306 9.991e-22)
(0.693 -0.1561 0)
(0.8571 -0.2285 -1.012e-21)
(0.462 -0.1587 3.945e-23)
(1.225 -0.01844 2.957e-21)
(1.162 -0.1226 8.93e-22)
(0.9203 -0.07134 0)
(0.7859 -0.2273 1.08e-22)
(1.055 -0.191 0)
(0.8213 -0.2344 -1.62e-22)
(0.886 -0.2001 3.455e-21)
(0.9329 -0.2274 -1.422e-21)
(0.6575 -0.217 1.059e-22)
(0.4696 -0.1637 -1.454e-22)
(0.7727 -0.2324 8.613e-22)
(0.6411 -0.2139 1.068e-21)
(0.3229 -0.1056 -1.055e-21)
(1.126 -0.1545 1.922e-22)
(1.283 0.009256 1.179e-21)
(1.029 -0.1996 0)
(0.6454 -0.2029 3.497e-22)
(0.9699 -0.2141 1.63e-21)
(1.021 -0.1665 8.771e-22)
(1.068 -0.1877 -8.435e-22)
(0.2771 -0.1917 -8.235e-23)
(0.7795 -0.2161 0)
(1.049 -0.01089 1.124e-21)
(0.971 -0.2187 -1.246e-21)
(0.835 -0.229 -6.497e-22)
(1.114 -0.1649 1.101e-21)
(0.7904 0.03246 -5.077e-21)
(0.7416 -0.228 4.662e-22)
(1.116 -0.1372 -1.529e-22)
(1.304 0.03632 -9.069e-22)
(1.125 -0.09717 0)
(1.086 -0.1469 -6.051e-21)
(1.105 -0.1654 -6.326e-22)
(1.144 -0.141 3.872e-22)
(1.091 -0.1309 -1.171e-21)
(1.119 -0.09584 2.781e-23)
(0.4684 -0.1614 1.668e-21)
(1.108 -0.08536 2.181e-23)
(0.6837 -0.2214 0)
(0.8783 -0.1752 -2.225e-21)
(0.5666 -0.1852 1.413e-22)
(0.5129 -0.1424 0)
(0.5519 -0.1895 0)
(0.953 -0.2227 -5.867e-22)
(1.227 -0.05623 -3.805e-21)
(0.941 -0.2259 0)
(0.6451 -0.2115 2.52e-22)
(0.4048 -0.1458 -2.086e-25)
(1.133 -0.1377 -2.939e-21)
(0.4165 -0.1479 2.492e-25)
(0.4438 -0.1485 -2.134e-23)
(1.085 -0.175 1.346e-21)
(1.122 -0.09453 1.287e-22)
(0.3526 -0.1213 0)
(0.8027 -0.2342 0)
(0.6329 -0.2097 7.645e-23)
(1.133 -0.1442 0)
(1.128 -0.1565 -1.074e-21)
(0.6868 -0.2217 0)
(0.9247 -0.2233 1.118e-21)
(0.5441 -0.184 2.047e-23)
(-0.07152 -0.03137 0)
(1.056 0.01503 0)
(0.7047 -0.2217 -1.704e-21)
(1.063 -0.04735 0)
(0.6578 -0.2171 7.412e-22)
(0.6832 -0.2125 0)
(1.046 -0.1055 0)
(0.432 -0.1514 4.465e-23)
(0.7625 -0.2283 0)
(0.9056 -0.2274 -1.408e-21)
(1.174 -0.1252 0)
(0.8914 -0.2091 7.716e-22)
(0.6605 -0.19 6.005e-22)
(0.505 -0.1243 -6.913e-23)
(0.7252 -0.2269 -9.036e-25)
(0.86 -0.07803 3.046e-23)
(1.002 -0.1346 0)
(0.7627 -0.2257 1.227e-22)
(1.078 -0.08864 -1.01e-22)
(0.7009 -0.2208 -2.619e-22)
(0.5178 -0.1786 -8.339e-23)
(0.6246 -0.1872 4.643e-22)
(1.123 -0.111 1.819e-21)
(1.19 -0.01533 0)
(1.087 -0.1396 3.759e-21)
(0.6801 -0.04805 0)
(0.8613 -0.2092 1.348e-21)
(0.9732 -0.2056 0)
(0.8395 -0.2059 8.049e-23)
(0.194 -0.07289 0)
(1.14 -0.1331 2.479e-21)
(1.123 -0.09183 -4.233e-23)
(0.8149 -0.06512 3.464e-23)
(1.138 -0.1213 -3.515e-22)
(0.8653 -0.06615 -1.123e-23)
(0.7107 -0.2253 -4.22e-22)
(0.8928 -0.228 0)
(1.287 0.01774 -1.504e-24)
(0.7598 -0.197 1.218e-21)
(0.894 -0.2285 -1.526e-21)
(0.9678 -0.137 0)
(0.4455 -0.1429 -4.039e-24)
(1.101 -0.0853 1.342e-23)
(0.935 -0.2187 1.875e-21)
(0.7777 -0.1869 6.225e-22)
(0.4103 -0.1464 0)
(1.132 -0.154 7.602e-22)
(0.7294 -0.2162 6.229e-22)
(1.087 -0.1742 1.024e-21)
(0.5514 -0.1896 1.642e-22)
(0.6943 -0.2222 -3.042e-22)
(1.155 -0.1296 -6.361e-22)
(1.144 -0.1416 -7.545e-22)
(0.6945 -0.2224 -1.137e-21)
(1.108 -0.09395 -2.306e-23)
(0.3726 -0.1347 0)
(0.706 -0.04666 0)
(0.4421 -0.02866 1.366e-23)
(0.6943 -0.2233 1.478e-22)
(0.8627 -0.2034 3.681e-21)
(1.074 -0.06394 -5.021e-23)
(0.4184 -0.05349 2.65e-22)
(0.602 -0.2038 6.56e-22)
(1.227 -0.04527 1.984e-21)
(0.7373 -0.2163 0)
(0.5613 -0.1901 -1.511e-22)
(0.3509 -0.1194 -1.977e-21)
(0.8494 -0.2251 7.531e-22)
(0.9549 -0.2181 6.942e-22)
(1.188 -0.02544 0)
(0.701 -0.223 5.378e-22)
(0.4868 -0.1632 8.826e-23)
(1.128 -0.09589 6.603e-23)
(0.5694 -0.1853 -1.621e-22)
(0.6426 -0.1086 0)
(0.6473 -0.2147 -2.069e-23)
(0.9807 -0.1158 0)
(1.052 -0.1889 -4.091e-21)
(1.121 -0.1571 0)
(0.3887 -0.1339 3.05e-21)
(1.29 0.05752 -1.246e-21)
(0.6515 -0.2108 0)
(0.7331 -0.193 0)
(0.7441 -0.2295 2.454e-21)
(0.9015 -0.2317 0)
(0.5652 -0.1861 1.496e-22)
(0.9314 -0.00722 6.911e-23)
(0.3839 -0.1269 0)
(0.6499 -0.2141 8.396e-22)
(1.133 -0.1531 4.832e-22)
(0.8329 -0.2031 0)
(0.8153 -0.2162 0)
(0.7817 -0.1927 1.068e-20)
(0.6808 -0.2094 1.676e-22)
(0.5322 -0.1877 1.202e-22)
(1.106 -0.05045 0)
(0.5176 -0.1399 1.739e-24)
(1.126 -0.09153 3.817e-23)
(1.071 -0.1827 0)
(0.8991 -0.1231 -1.277e-21)
(0.8095 -0.2345 -1.72e-21)
(1.317 0.1643 0)
(0.337 -0.12 5.958e-22)
(0.6229 -0.1667 0)
(0.2423 -0.09724 0)
(0.996 -0.1394 5.438e-21)
(0.971 -0.08404 4.964e-21)
(0.422 -0.1268 7.718e-21)
(0.6659 -0.219 1.205e-21)
(0.6571 -0.2142 0)
(0.9281 -0.1849 0)
(1.09 -0.1603 0)
(0.8769 -0.2338 1.079e-21)
(0.7283 -0.2173 7.68e-22)
(1.146 -0.1378 6.392e-22)
(0.5764 -0.1653 0)
(1.319 0.1558 -1.216e-21)
(1.066 -0.1887 -5.008e-22)
(0.5928 -0.2008 0)
(1.127 -0.06863 0)
(1.213 -0.09201 2.071e-21)
(0.8991 -0.2311 1.14e-22)
(0.8983 -0.1706 2.195e-21)
(0.2733 -0.1948 0)
(1.105 -0.08913 -4.415e-22)
(0.747 -0.2303 -3.645e-22)
(0.9572 -0.1908 -1.594e-21)
(0.8735 -0.2333 0)
(0.8219 -0.2101 0)
(0.7906 -0.2309 2.307e-23)
(0.7027 -0.2239 0)
(1.089 -0.07671 -1.894e-23)
(0.8284 -0.2286 3.733e-21)
(0.6819 -0.2203 -4.062e-22)
(0.8494 -0.2307 0)
(1.217 -0.0849 0)