/*--------------------------------*- C++ -*----------------------------------*\
  =========                 |
  \\      /  F ield         | OpenFOAM: The Open Source CFD Toolbox
   \\    /   O peration     | Website:  https://openfoam.org
    \\  /    A nd           | Version:  8
     \\/     M anipulation  |
\*---------------------------------------------------------------------------*/
FoamFile
{
    version     2.0;
    format      ascii;
    class       volScalarField;
    location    "5";
    object      k;
}
// * * * * * * * * * * * * * * * * * * * * * * * * * * * * * * * * * * * * * //

dimensions      [0 2 -2 0 0 0 0];

internalField   nonuniform List<scalar> 
127143
(
1.052e-14
9.564e-14
6.697e-13
3.421e-12
2.818e-12
3.612e-12
5.92e-11
1.458e-11
6.964e-12
5.337e-12
1.444e-10
1.798e-11
4.948e-12
5.899e-12
2.467e-05
1.666e-10
3.493e-12
0.06472
0.0278
1.506e-08
0.003169
9.876e-08
0.000154
6.356e-06
8.919e-08
1.296e-07
3.22e-09
3.322e-09
1.11e-07
0.0614
2.192e-06
1.251e-07
3.839e-08
1.04e-06
0.000151
3.763e-08
0.002521
0.01377
1.27e-05
7.854e-08
0.02809
0.0001532
0.0001527
3.712e-11
0.06278
1.261e-06
1.137e-07
0.009114
7.658e-06
1.026e-05
3.892e-10
0.0001495
0.0007226
0.0001541
0.0001396
2.763e-06
0.0001394
0.0001658
0.0001473
0.000154
0.000153
0.0153
5.088e-05
0.0001482
6.059e-07
0.0001585
0.0001512
4.459e-05
4.513e-05
0.0002089
4.595e-06
7.057e-09
0.02765
0.0001472
0.0001458
7.058e-09
0.0001476
0.001912
2.74e-06
0.000149
8.885e-08
1.445e-08
8.365e-06
1.749e-07
0.01951
0.002898
2.095e-05
1.789e-08
0.0001573
4.176e-05
0.0001468
0.0004845
8.019e-05
0.003232
0.0002519
0.0001722
0.0001531
8.248e-07
0.003248
0.0001511
0.0001489
8.824e-06
8.063e-06
0.000112
0.003197
0.003033
3.449e-05
0.0002098
0.000167
0.0001424
3.237e-05
1.605e-08
0.001189
0.000168
0.0001455
0.0001515
0.0001476
0.0001459
0.0001475
6.976e-09
0.0001425
9.904e-06
7.024e-05
0.0001626
1.043e-07
3.471e-08
0.009475
0.0001487
3.987e-05
2.287e-06
0.0005527
0.0002417
6.347e-05
0.002024
1.121e-10
0.0006099
0.0001554
0.005391
3.058e-07
0.0001534
0.0001545
0.0001468
0.002955
0.008214
0.0007649
0.0001564
4.15e-07
0.0001483
0.0002091
3.325e-06
8.573e-05
1.079e-05
0.008524
0.0001519
0.0001189
0.01965
0.0001659
1.882e-06
0.009378
6.106e-07
5.381e-06
4.737e-10
0.0001468
0.0005625
3.051e-07
9.863e-07
0.0012
0.0001558
2.145e-06
0.000149
0.0001037
0.008214
0.0001428
9.353e-05
0.0006025
0.00974
0.0001796
4.139e-05
9.953e-06
0.0001561
9.436e-05
0.0001548
0.01038
0.009969
2.64e-06
0.01583
0.0001514
0.0001674
8.424e-06
0.000155
0.0005864
8.839e-05
0.000155
0.0001928
5.991e-11
0.009847
0.000129
0.0001282
1.45e-09
0.0001458
0.0001453
0.0001491
0.003096
0.003083
2.627e-11
3.222e-05
0.0001531
7.782e-05
0.05131
0.0001455
0.000164
0.0178
0.0001448
2.399e-06
0.0001985
3.599e-10
1.232e-05
8.069e-05
0.0006833
0.0001531
0.0001838
0.0001462
1.013e-05
0.0007159
3.996e-07
6.951e-05
7.046e-07
0.01362
0.0002849
0.006134
0.002731
0.0001547
0.02821
7.763e-08
0.002812
0.0001572
0.0005577
2.297e-13
0.0001453
0.001149
0.0001018
9.823e-07
0.0123
2.026e-06
0.001649
8.289e-09
2.052e-05
2.886e-09
4.6e-09
0.0002558
0.0001663
1.772e-07
7.627e-05
0.005005
6.056e-06
0.000169
0.0001487
5.564e-06
0.0001338
0.0001508
0.009977
0.0001515
0.0002385
0.0001467
0.0004387
8.392e-07
5.776e-05
7.148e-05
0.0001552
0.0001283
5.526e-07
0.0005951
0.01235
0.0011
6.405e-05
0.0006496
0.001251
1.339e-05
0.001119
0.0001539
0.0002156
0.0001854
0.0001128
0.0001455
0.0001455
5.53e-11
0.0004334
0.0001455
1.196e-05
0.0001566
0.008636
0.0001578
0.0001571
0.000134
0.0001452
0.0001752
2.8e-06
0.001648
0.01224
0.0001312
9.702e-07
0.0001596
0.0001548
0.0001552
3.082e-07
0.000137
7.827e-05
0.0001449
0.02991
6.988e-05
3.118e-05
0.0002285
1.734e-06
0.0001911
0.0001454
5.709e-05
0.009854
8.568e-07
0.000158
0.00538
0.0001538
3.423e-06
0.0001513
7.557e-05
5.372e-05
0.005673
0.0001502
0.003362
4.783e-06
0.0001858
0.011
0.0001455
0.000151
0.0001291
0.0001283
0.0001518
0.0001673
0.0001431
0.01101
0.0002997
0.0001534
8.023e-05
0.001194
0.0007149
0.0001758
1.133e-05
3.481e-05
0.0006037
1.304e-06
1.501e-05
1.685e-06
0.02925
0.008319
0.0006652
0.0001494
4.73e-05
0.004895
0.0001632
0.0001487
4.708e-06
0.01521
5.615e-05
0.05776
1.138e-05
1.135e-05
0.0001468
0.0001457
0.003477
6.449e-06
0.001138
0.0001554
0.0001514
3.741e-07
1.003e-05
0.0001543
0.0001534
3.453e-06
2.967e-07
0.004327
0.001161
0.05792
7.974e-08
1.899e-06
0.0001594
0.0001476
3.705e-09
0.0001503
1.023e-07
0.00921
0.03343
0.0001462
0.0001534
0.0001824
6.304e-06
8.255e-06
2.156e-06
0.0001534
3.055e-06
0.0001494
0.0001513
1.738e-07
0.0001462
0.003363
0.01092
0.0001503
7.477e-05
0.003794
6.328e-05
0.000149
1.239e-05
0.000136
1.065e-06
0.0001545
0.009566
8.296e-05
0.0002769
0.001832
3.333e-07
0.001281
1.739e-05
0.00136
4.244e-07
0.0001179
0.0002173
0.005845
0.0001509
0.0001526
0.0001529
1.392e-06
0.0001531
0.0001413
0.0001189
0.006957
0.001738
0.0001345
0.0001468
7.169e-05
4.819e-05
0.0001494
0.0001451
0.0001453
1.32e-05
0.0001555
0.0001714
0.0001482
1.026e-06
0.0001454
4.592e-05
0.003724
0.01783
0.003304
3.202e-06
7.984e-05
4.326e-06
0.0001502
0.004665
8.019e-07
1.92e-06
0.004701
0.0002674
6.598e-05
0.0001465
0.02028
0.0001568
0.0001312
0.0004691
0.0001463
0.002434
2.587e-05
0.0001386
0.004703
0.0001668
0.0001627
0.01051
0.0001529
0.0001347
0.0001489
0.0001627
0.0001127
0.001746
1.266e-07
5.461e-05
3.325e-05
1.887e-06
0.0001619
0.0001339
0.002586
0.0001447
1.024e-06
0.0001468
9.013e-05
2.448e-05
0.0004373
0.0001499
2.526e-10
0.0004026
0.0001569
0.00016
0.0001602
0.0001449
1.164e-07
0.0001464
0.009408
0.01053
2.107e-12
1.158e-09
4.949e-09
0.000147
5.299e-05
5.685e-05
0.0001454
0.01499
5.353e-05
0.000735
0.0001124
0.003091
3.067e-06
0.004771
9.537e-08
0.0004093
0.01668
2.293e-08
1.165e-05
1.156e-06
0.0001422
0.0001469
8.899e-05
0.001786
0.02164
0.0001457
6.032e-07
1.006e-06
0.0001526
0.0001304
0.002408
0.0001568
5.503e-05
0.000153
1.078e-06
0.02741
0.000147
0.0003448
0.0001474
0.0001387
0.0001595
0.000779
3.686e-06
1.217e-05
1.951e-05
1.244e-05
0.009656
0.000134
2.429e-05
0.001139
0.0001413
0.0001464
1.433e-07
0.0007179
7.875e-07
5.687e-05
0.01218
0.0001483
0.0001479
0.0001507
3.01e-05
0.0001662
0.0001454
0.000141
0.0001667
4.951e-06
0.003987
0.0001611
1.209e-05
2.128e-07
0.0001578
0.0001471
0.0001426
0.0001243
0.003406
4.953e-05
0.0001568
6.415e-09
6.384e-05
0.0001649
0.001141
2.794e-07
0.0001454
0.004222
0.01252
0.03528
0.0001336
8.537e-05
0.01004
7.25e-09
0.0001346
3.656e-05
1.354e-05
0.0001453
7.509e-05
0.0001455
2.388e-05
0.004176
0.0001455
1.264e-05
3.913e-06
0.0003215
0.0002961
0.003696
2.046e-06
2.186e-06
0.0002021
1.576e-05
9.688e-05
1.278e-05
0.00617
0.0003133
5.379e-07
0.0001485
2.194e-06
0.0001454
0.0001674
0.0001487
0.003145
0.0001413
0.0001455
0.0001636
1.85e-05
0.001596
0.0001383
0.0001412
0.0003648
1.444e-07
1.671e-05
1.192e-06
0.01991
0.0001707
0.003382
0.0001303
0.0007636
6.534e-05
2.853e-07
0.0001385
4.47e-06
0.001061
0.0001651
0.0001726
0.000147
0.0001408
0.005832
5.952e-07
0.002639
1.024e-06
0.0001487
0.0001436
0.0003939
6.468e-06
0.000149
1.427e-06
0.0001565
0.0001642
2.334e-05
0.0001306
0.001145
0.0001524
6.25e-11
9.095e-05
0.004889
0.004568
0.0004593
0.0001178
4.826e-07
3.161e-05
0.0001489
7.272e-05
0.002046
0.003587
0.0001417
1.501e-05
0.0001559
0.0001521
0.0001303
0.0001415
2.707e-07
0.0001601
3.944e-06
0.0001266
6.275e-05
0.02966
0.0001584
6.327e-07
0.0001514
6.578e-06
0.0001447
0.0001393
0.0001696
0.000151
9.734e-06
0.0001522
8.009e-07
0.01847
8.775e-06
0.0001602
0.0558
0.0001407
1.241e-06
0.0001529
5.042e-06
1.205e-10
5.756e-05
0.0004749
0.004684
0.0001351
4.981e-05
1.148e-05
5.224e-07
0.04255
0.01316
0.0007809
4.905e-06
0.001775
1.929e-05
0.02169
9.014e-06
4.272e-05
7.013e-05
0.009841
0.0001603
1.701e-14
0.0001559
0.0001489
3.128e-05
6.007e-05
2.428e-05
0.000144
0.00634
0.02993
0.004109
0.0001469
8.583e-07
0.0001489
2.663e-07
0.0001572
2.465e-05
0.005299
4.548e-05
3.3e-05
0.0001483
0.005713
0.0002369
1.433e-05
0.004538
0.0001458
0.001186
0.0001631
0.000146
7.797e-05
0.0001661
0.0001385
0.0004196
0.0001585
5.717e-05
9.926e-08
8.715e-05
0.0001278
0.005665
0.01632
1.296e-07
1.422e-06
0.0001545
0.01527
1.666e-05
0.0001283
0.0008316
2.473e-05
0.002141
1.489e-07
0.002144
0.0001762
0.00143
0.01406
0.0001538
0.0001469
2.599e-11
0.0005593
0.0003472
2.805e-05
0.005702
0.000303
0.0002808
6.466e-06
0.0001424
0.03296
0.0001118
0.0001431
0.0001534
9.131e-05
3.373e-05
6.984e-05
0.0001364
0.00371
0.008636
0.0001447
0.000136
0.0001741
0.01501
0.01984
0.0003808
0.004491
1.314e-09
9.673e-05
0.0001526
0.0001418
0.001855
0.001781
2.711e-06
4.781e-07
0.0001553
0.0001919
0.0001466
0.002459
6.45e-09
0.0001419
0.0001597
1.496e-06
4.755e-05
1.114e-07
0.0001477
0.01543
4.614e-05
0.0001459
1.378e-06
0.0001416
5.689e-05
1.272e-06
4.282e-05
0.0008433
3.944e-08
0.0001463
1.565e-05
0.0001525
7.133e-07
0.0009108
5.578e-07
4.571e-06
0.0001545
0.0001654
0.0001633
8.129e-10
0.0001458
0.02265
3.812e-06
9.228e-06
0.001903
1.528e-08
0.0001879
0.000191
0.0001186
8.802e-08
8.227e-10
5.215e-05
4.274e-10
1.258e-05
1.658e-10
0.000259
3.694e-05
0.03378
5.969e-09
0.0001475
2.817e-05
0.0001338
0.0001322
0.0024
0.0001496
0.0001715
0.03593
0.0001654
0.000151
0.000155
3.958e-05
2.861e-05
0.0001462
0.04605
0.00176
0.000155
1.088e-05
1.473e-08
0.01225
8.865e-05
2.933e-05
0.01206
0.0002038
0.000145
0.0004507
5.447e-06
0.0001484
1.779e-05
0.0007398
0.01657
0.0001379
0.006327
0.05783
5.998e-10
0.0001643
1.393e-08
0.00484
0.0001084
3.648e-05
8.063e-06
2.421e-06
0.00013
4.719e-07
0.0001531
0.0001312
0.0001741
7.658e-08
0.04999
3.101e-06
8.261e-05
0.0001378
3.3e-06
9.669e-11
6.178e-06
0.000147
0.0001461
8.646e-05
0.0001743
0.0005485
1.758e-05
0.0001961
5.086e-07
0.002908
0.0001522
4.434e-07
0.0001535
1.574e-08
0.0001445
0.007837
0.0001435
0.004614
0.0001233
0.003359
0.0001457
0.0001458
4.396e-05
0.0001549
0.0009737
7.218e-06
0.0001682
0.01533
0.002392
2.467e-05
7.054e-06
8.359e-10
0.001425
1.578e-06
1.526e-05
7.763e-05
0.01349
0.0001949
0.0003075
6.886e-05
2.425e-07
0.003121
0.0001441
0.0001429
0.006793
0.008298
0.0001648
0.0001393
0.0001295
0.003306
0.0001626
0.0001773
0.005092
4.93e-05
0.0001572
0.000149
0.0001608
0.0001636
8.071e-08
3.529e-07
0.00561
0.0001538
0.02773
7.156e-06
7.324e-06
6.819e-05
0.01868
9.154e-05
2.29e-05
0.001259
4.248e-07
0.0001488
1.221e-07
7.463e-06
0.01666
0.0003461
2.378e-05
0.0001456
7.332e-09
9.819e-10
0.0001362
0.0001441
0.0003159
0.001986
3.781e-08
0.001658
2.957e-05
7.833e-06
4.277e-05
0.0001624
0.0001648
0.0001478
2.526e-05
0.0211
0.0001079
0.0001491
3.43e-05
0.002611
0.0001501
1.084e-09
0.002697
0.0001453
3.895e-05
0.0001412
0.0001447
6.658e-05
0.0001544
1.444e-09
0.0001442
1.469e-06
0.000146
8.066e-05
0.0001542
0.04705
9.667e-05
2.224e-06
4.342e-06
1.902e-05
5.772e-05
0.0001985
0.0001554
0.004579
1.392e-05
0.0003142
5.138e-05
2.605e-08
2.371e-05
6.964e-09
0.0002448
5.981e-06
1.598e-06
4.095e-06
1.013e-07
0.0001515
0.03563
0.0001696
2.429e-05
0.003693
3.774e-07
0.0001792
1.881e-05
0.007156
3.956e-05
3.499e-05
0.0004591
0.0001576
4.525e-06
0.01554
3.993e-05
0.001367
1.857e-06
0.0008622
0.0001371
7.036e-05
2.392e-05
0.0001459
8.353e-05
1.397e-06
0.000138
0.000158
0.001391
0.0001536
0.0001515
0.01382
0.004937
0.000158
0.0001318
9.743e-05
0.0001002
0.0001448
0.0001513
0.0001502
0.003361
5.948e-05
9.832e-05
0.0001545
0.0001507
3.022e-07
2.329e-06
7.407e-06
0.007153
5.863e-09
0.0002
1.859e-05
0.0001456
0.001418
0.0001717
0.000114
3.446e-05
0.0001935
1.512e-07
0.0001471
5.694e-09
4.744e-06
7.304e-06
5.559e-05
7.701e-06
0.01366
0.04337
2.306e-07
4.042e-05
0.0001501
7.696e-12
0.005964
7.029e-06
8.482e-07
1.358e-05
6.01e-05
0.00574
4.404e-06
3.188e-05
0.0005289
0.0007833
3.166e-06
5.289e-06
0.04907
1.1e-08
0.0001588
2.548e-05
0.0001566
1.479e-06
0.0001309
0.0001448
0.007319
4.02e-09
0.006247
0.002271
5.83e-09
5.801e-05
0.0001458
2.161e-07
3.036e-05
0.001619
1.271e-07
0.0001651
0.002155
2.013e-10
0.04663
1.053e-06
0.008211
3.962e-05
6.554e-08
5.96e-06
5.936e-07
0.000157
4.005e-05
0.000158
0.04983
0.0001288
0.0002326
0.0001184
3.654e-05
0.01803
5.213e-06
0.01256
0.0001622
0.018
0.000153
0.0001575
8.598e-05
1.077e-08
0.0001505
2.38e-08
1.798e-06
0.00101
0.001009
0.0001459
0.0113
0.0003219
0.0001601
4.29e-06
1.231e-06
3.732e-07
0.0001427
3.857e-06
0.0001154
0.001331
1.321e-09
0.000141
0.02899
0.0001173
0.0001462
0.0001061
0.0008894
8.001e-08
0.000142
0.0001611
0.00599
0.0001453
7.748e-11
1.345e-09
0.003361
0.0001655
0.0001271
0.0001354
0.0001315
0.0005998
0.01647
0.02197
0.0001535
0.0001544
0.0001569
0.0001605
0.001452
0.02527
5.185e-06
8.484e-06
8.599e-10
0.0001664
4.53e-07
0.002094
0.000108
0.0001317
2.413e-06
0.007643
4.536e-05
7.416e-10
0.0007069
0.01654
0.0004197
5.658e-05
0.002043
1.038e-09
0.0587
0.0008305
0.01672
0.01626
0.0001068
1.014e-05
7.283e-10
0.0001545
0.0002515
0.0001413
6.828e-06
2.717e-05
0.0001354
2.313e-05
5.66e-05
0.001424
3.327e-06
0.0001428
0.000165
7.17e-11
0.0001456
1.204e-05
1.96e-05
3.912e-05
6.767e-07
0.0001656
0.000112
0.0002932
2.111e-07
0.000738
7.405e-05
0.0001507
3.487e-05
3.025e-06
2.752e-06
3.983e-05
0.0006139
0.0001451
2.982e-05
0.02847
6.439e-07
0.0001424
0.01617
0.0006144
0.0001451
0.0001394
0.0001585
0.0001456
0.01847
0.0001377
3.568e-06
0.01901
6.157e-09
0.0004567
0.001159
4.937e-06
0.001469
1.775e-05
5.873e-06
1.457e-10
0.0005032
0.0001667
0.002761
0.002599
0.01249
0.0001482
0.0057
0.0001465
0.00797
0.0001474
0.01951
0.0001435
2.062e-05
0.001763
0.0001379
0.0001445
0.001163
0.0001567
7.416e-06
0.0001543
0.0001338
0.0001626
0.001398
0.0001498
3.12e-09
1.076e-06
6.585e-08
1.581e-05
5.96e-05
6.506e-06
1.572e-05
0.009838
0.0001877
6.376e-08
0.01541
1.177e-05
2.783e-06
0.0004147
0.0002998
0.02483
0.0001441
1.32e-10
0.0007772
2.347e-07
0.0001458
8.306e-10
2.056e-05
4.966e-06
0.002152
0.000131
0.0001308
0.01076
0.05633
0.01325
0.01222
4.492e-05
0.0001661
0.0001562
0.006306
0.0001216
4.522e-07
0.0001249
0.0001901
0.002404
0.0001058
8.327e-07
1.079e-05
3.537e-05
5.281e-06
0.005284
0.0001462
0.004107
0.002437
1.351e-08
0.001348
0.0001537
4.412e-05
0.003002
2.189e-05
0.007593
3.092e-07
0.0548
0.0001455
0.009561
7.908e-05
6.238e-10
4.65e-07
0.0001647
0.0005697
5.904e-06
0.0001572
0.0001305
4.317e-05
2.997e-05
3.971e-10
0.0001515
1.668e-08
0.002646
0.0001439
6.561e-06
9.1e-05
0.01169
0.0001516
0.006291
0.0002914
4.588e-05
5.24e-05
0.02717
2.744e-06
0.0001522
2.673e-05
4.663e-06
1.322e-06
0.0001777
0.0001772
3.581e-06
0.0001737
1.185e-09
0.0001372
8.032e-07
7.07e-07
1.251e-10
0.003514
0.0002618
0.0001491
0.0001457
0.0001437
0.01142
0.000143
1.51e-09
0.0001454
3.718e-07
0.0001575
0.0001206
9.011e-05
1.629e-06
0.0002324
4.193e-07
0.0001582
0.0001349
0.003965
9.128e-08
0.0001449
0.0001548
2.68e-05
0.004884
3.665e-05
0.0001487
0.002762
4.261e-05
2.578e-05
0.0001537
0.0001372
2.479e-06
0.0001844
0.0001329
0.0001591
1.203e-05
0.0001372
1.53e-07
0.0001462
0.00145
0.0005506
0.007377
0.0001931
0.0001392
0.006307
1.341e-05
0.006034
0.0001514
8.066e-05
0.0001545
0.0001454
0.0001417
0.0004161
2.422e-09
8.388e-05
3.429e-05
0.0001493
9.889e-08
0.0001636
0.0001528
0.0001727
0.0001693
0.0001969
1.989e-06
0.0001499
2.052e-05
0.0001468
0.0005144
0.0001486
0.0001522
3.2e-05
0.01166
0.0001613
1.233e-06
0.0001129
0.0001415
0.001705
2.128e-07
6.675e-05
8.675e-10
4.93e-07
0.02187
0.000153
0.00017
5.153e-07
0.001111
2.153e-05
3.306e-06
0.0002036
0.0001544
0.0001444
2.272e-05
1.42e-05
0.0001112
0.0001459
0.0003238
0.0001456
0.0001632
0.0002109
0.0001429
0.02464
0.0001671
0.0001058
0.006195
0.002167
5.346e-06
0.0001466
6.432e-06
5.129e-07
0.0001329
0.02585
1.574e-05
0.0001579
0.0005671
0.008766
2.822e-06
6.482e-05
0.006833
1.288e-06
0.0004636
1.721e-05
1.158e-06
0.000157
0.0001536
5.089e-05
0.0001518
9.233e-06
0.002744
0.0001514
3.993e-05
0.0001483
0.000742
3.845e-05
0.05737
0.0002342
0.0007019
9.655e-10
0.001915
1.036e-08
0.0001578
0.0001376
1.07e-08
2.166e-05
0.0001572
4.601e-06
0.000151
0.003644
0.0001491
0.01249
2.112e-08
0.007037
0.0001667
4.08e-05
2.074e-05
0.0001464
4.537e-05
0.0001532
0.0001652
7.463e-07
0.0001493
3.805e-05
2.184e-07
0.0001444
0.0001488
0.006751
0.0001943
0.0002606
0.000156
0.0001621
0.0001362
0.0001628
0.01645
0.0002227
0.0001583
0.0003087
0.0001372
0.0001538
3.463e-06
8.016e-09
0.0001397
0.0001596
1.84e-08
0.02742
3.588e-06
0.0143
1.993e-05
7.393e-09
0.0001718
0.0002707
0.004334
0.0001507
3.287e-06
0.0001645
0.01317
7.908e-08
8.316e-05
0.0001489
5.849e-06
5.487e-11
5.306e-10
0.004997
0.003646
9.58e-05
0.0001562
0.01257
7.968e-05
0.01399
5.27e-06
0.0008013
0.00134
2.625e-05
8.43e-08
0.002644
0.0001432
0.0001453
5.141e-05
0.000139
0.001293
0.0001524
0.0001511
2.218e-05
0.004931
0.02941
0.0001357
4.346e-06
5.058e-07
0.002555
7.719e-06
0.005237
9.368e-10
8.025e-06
0.0001492
6.871e-05
4.543e-06
0.00268
2.837e-05
4.463e-10
0.0001282
1.568e-07
2.163e-05
1.859e-05
0.0001351
0.007832
0.01382
8.421e-07
3.173e-05
0.0194
4.166e-07
0.0001563
0.0001718
1.343e-05
0.0001532
0.01905
0.0001453
2.747e-06
1.428e-06
2.312e-05
4.224e-07
8.335e-07
0.009748
7.998e-09
0.0002634
5.913e-05
0.0001505
0.01951
0.0001511
0.03636
6.422e-05
0.0136
3.016e-05
0.000195
3.173e-05
1.044e-10
2.072e-08
0.002146
0.001894
0.0001639
0.0001596
0.000146
0.0001489
5.053e-05
0.0001635
0.0001451
4.183e-05
2.707e-05
8.098e-06
0.001204
9.515e-05
1.765e-05
0.007819
2.595e-05
7.16e-09
7.555e-07
0.0001562
3.163e-05
1.264e-10
0.01193
2.302e-05
0.03937
7.623e-05
0.0002185
1.37e-11
8.535e-05
7.667e-05
0.0001496
0.0001557
1.975e-05
0.0017
0.0001455
0.000147
0.007127
4.121e-07
0.01831
2.861e-05
4.541e-09
0.0001882
0.0001493
6.423e-07
0.01903
0.001779
1.03e-07
0.0001597
0.02621
0.0007928
0.0003402
0.0001601
0.0001547
0.0001465
0.000113
0.02281
6.681e-07
0.05817
1.064e-05
3.046e-07
0.0001495
5.908e-07
0.008391
5.498e-06
2.344e-05
3.591e-05
0.0001513
0.01122
0.001339
0.002518
1.065e-05
0.001731
4.556e-06
2.986e-05
0.0001451
0.001702
0.04007
1.155e-06
4.165e-05
0.0005796
0.0148
0.0001535
1.185e-07
0.0001614
0.001334
0.01406
0.005163
0.01909
0.004815
0.0001634
7.428e-09
0.0001624
0.0001487
1.86e-05
0.0001395
0.01309
0.0001498
0.0001568
0.01046
0.0001439
0.0001641
1.284e-05
4.871e-05
0.0001456
0.0001482
0.02006
7.072e-05
1.143e-05
0.0001968
0.002549
0.007011
1.334e-06
2.481e-06
0.05726
0.0001033
0.002491
0.000159
3.274e-05
2.103e-09
0.01555
3.501e-06
3.728e-06
0.01299
9.84e-10
0.0001454
0.0001372
0.0001656
0.000123
9.653e-11
0.0001459
0.01589
1.333e-05
2.296e-09
2.198e-05
1.916e-06
0.0001247
0.0001243
4.164e-06
0.0001997
0.008048
0.000137
0.0001499
0.0434
0.0001429
0.000149
6.085e-07
1.974e-05
3.749e-05
0.01111
8.174e-08
0.003619
0.0001613
0.0001319
8.104e-05
1.949e-05
1.002e-06
5.393e-06
0.0003673
3.412e-07
0.0002535
0.0003561
3.282e-05
2.535e-05
0.000275
0.0001542
0.0001091
1.543e-06
0.0001343
0.000132
5.183e-05
0.001002
2.186e-08
0.0001647
6.054e-06
7.905e-05
0.0003576
0.0001454
0.0001691
0.0001482
0.002083
5.762e-09
0.0001864
0.0001566
4.513e-05
0.0001525
1.849e-07
4.518e-05
0.0001946
7.57e-05
8.614e-05
3.405e-05
0.01225
5.251e-05
0.000251
0.0004225
0.001158
0.002136
7.175e-05
0.009574
1.246e-06
2.662e-05
0.0006502
0.002407
2.011e-06
0.002587
0.0002447
2.66e-05
0.0001576
0.000167
7.689e-05
8.153e-09
0.0001647
1.816e-05
0.0001471
0.01513
0.0001484
2.207e-05
0.01855
7.607e-09
7.702e-05
0.0001529
1.795e-06
7.207e-10
3.798e-07
0.001571
4.507e-05
7.302e-07
7.981e-08
0.0005865
0.01177
6.817e-05
1.169e-10
0.0002729
0.001437
0.0001682
0.0001607
0.0001455
0.004846
3.988e-06
0.0001114
0.0001753
0.01958
0.0001538
4.61e-08
0.000131
0.005251
0.0001644
0.02023
2.459e-06
0.0001644
0.0001542
0.02109
0.0001504
2.103e-05
6.548e-05
4.451e-09
3.127e-05
0.000159
0.0001429
0.003689
0.0007018
3.878e-06
9.794e-06
6.344e-05
0.02275
0.0001845
0.0001454
8.388e-06
6.555e-06
0.0001745
0.0001358
0.002164
1.393e-07
1.184e-06
9.361e-06
0.0001706
0.0001593
0.0001556
3.798e-06
0.03644
0.0001535
1.025e-08
0.0001835
0.0007104
0.0001455
0.0001473
0.0001562
0.0001462
4.293e-05
4.96e-05
0.002261
0.004609
1.226e-06
8.255e-08
0.0002931
1.493e-05
0.0002664
0.01838
6.108e-09
0.001743
0.0003993
0.005286
1.425e-08
0.009596
5.897e-07
1.8e-08
0.0001492
5.164e-06
1.334e-06
0.0001181
0.006971
1.152e-05
8.79e-05
3.063e-06
0.003152
0.001469
0.0001491
0.02948
0.0001478
0.0001659
0.00721
0.0005013
0.0001156
0.0004737
4.898e-09
0.006541
0.0001463
2.848e-05
0.001232
0.03759
5.452e-05
0.001094
0.0001878
1.761e-06
1.117e-06
1.215e-08
0.0001365
1.249e-05
0.0002015
0.0004678
0.0002337
0.0001516
1.325e-08
1.631e-05
3.975e-05
0.0001652
0.0001441
4.198e-05
2.406e-05
0.01262
0.0001207
1.161e-08
5.118e-06
8.492e-05
0.01227
0.0006462
3.978e-06
0.0001447
2.442e-05
0.01422
0.0001512
7.51e-05
4.777e-06
0.0001451
7.287e-05
0.006839
0.0001066
1.264e-07
0.0001265
0.0002508
9.991e-11
0.001879
1.323e-05
0.0001311
0.0001302
1.582e-05
0.003091
0.0001589
2.382e-06
3.288e-05
0.0001438
1.116e-07
1.106e-06
0.001379
0.0001456
0.0001464
0.0005996
0.0002669
1.453e-05
1.708e-10
2.861e-06
0.0001521
2.033e-06
1.082e-07
0.0001542
2.672e-06
7.7e-06
0.0002668
0.00016
2.809e-06
0.0441
0.009957
0.0001302
0.0001283
0.0001287
0.0001264
0.0001585
0.01469
7.632e-05
6.51e-06
9.743e-05
0.0008015
0.002029
1.519e-07
0.0001272
0.0003485
0.003835
4.679e-05
7.802e-07
2.277e-05
0.002706
4.801e-05
7.171e-06
0.00187
2.575e-05
0.0001608
3.737e-05
8.441e-10
1.769e-05
5.107e-08
0.0001528
4.896e-05
0.0001454
1.304e-08
0.0004789
7.546e-06
9.398e-05
0.0001503
6.661e-09
0.0001458
0.002716
1.651e-06
0.0001719
9.608e-05
0.0007251
0.006279
0.003109
2.386e-06
0.000151
1.142e-05
0.0001369
0.0001734
0.000478
0.000152
0.01002
6.727e-05
0.0001436
0.0001454
0.0001554
0.0004697
5.166e-06
0.0001692
0.004983
2.278e-05
0.0001311
2.945e-06
6.455e-06
0.02404
0.01811
0.01478
0.0009473
0.0001613
6.839e-10
0.0001522
0.0001454
7.79e-08
0.0001453
0.0001448
0.0001584
0.0002624
9.033e-07
0.006107
4.595e-07
0.004277
7.325e-06
0.0001464
0.0001575
0.000658
1.599e-05
0.0171
0.0001865
0.0001572
2.723e-07
3.556e-08
0.0001483
6.996e-09
4.305e-08
9.871e-11
0.000198
0.02511
0.01125
0.0001546
0.0001483
0.0281
0.0001144
1.328e-07
0.000151
1.656e-06
4.047e-09
0.0001455
5.238e-06
2.023e-07
3.479e-05
0.0001458
1.25e-06
2.674e-08
4.255e-10
1.025e-09
0.0001642
0.001223
1.498e-09
0.0001563
0.000532
0.000144
0.005442
6.095e-07
0.02431
2.252e-05
1.079e-09
0.0001582
0.004813
5.881e-05
0.0001492
0.0001528
3.489e-06
4.365e-06
0.03464
8.634e-06
0.0001092
0.0001501
0.01103
0.001827
0.0005799
0.001386
0.0001455
0.0005513
0.0005422
1.6e-05
3.697e-05
4.097e-05
3.513e-06
0.0001054
1.034e-08
8.076e-11
6.934e-12
2.727e-06
0.0001538
3.82e-06
0.0001487
7.109e-07
1.649e-06
0.0001456
2.596e-09
0.0001489
0.0001479
4.901e-08
1.99e-07
0.004156
0.0001596
0.0001481
2.944e-05
0.0001301
1.066e-09
0.0001615
0.0001644
0.01147
0.002719
1.151e-08
9.484e-09
1.153e-08
0.01029
5.103e-06
1.78e-05
0.005791
0.0001516
4.105e-05
6.495e-09
0.0001392
0.001537
4.901e-05
0.002117
5.919e-05
0.01066
0.03059
6.257e-08
2.902e-05
2.644e-05
1.459e-08
0.0001815
1.543e-07
0.0001524
4.916e-05
0.0002391
0.0001485
0.0001545
5.429e-05
7.689e-06
1.824e-05
1.089e-08
0.0001598
0.0001455
0.0001074
1.31e-05
1.144e-07
0.006447
0.02266
0.000126
0.0001509
7.51e-07
0.0001265
3.53e-05
7.883e-06
0.000154
0.0001551
0.008515
1.145e-07
6.666e-09
7.3e-10
0.0001503
1.93e-06
0.00134
5.019e-05
0.03066
0.0167
4.239e-08
0.01181
1.478e-06
1.105e-05
2.419e-06
2.182e-05
0.0001583
8.892e-09
0.01541
4.87e-05
0.001884
0.0001601
4.93e-05
0.00016
0.000146
6.576e-05
0.0001564
0.0006096
9.492e-05
6.188e-05
1.296e-08
5.034e-10
0.02039
1.253e-08
0.0006005
0.000159
0.0001501
0.000154
8.073e-05
0.0001489
2.404e-05
4.847e-09
5.286e-05
5.102e-07
0.04431
0.005083
2.606e-05
0.0003741
0.01023
2.183e-06
0.0183
1.03e-07
9.426e-05
0.0001361
0.001632
4.842e-05
0.0001477
0.0001551
2.898e-07
0.0001463
5.204e-06
8.8e-05
1.221e-05
0.0001106
1.155e-07
0.0002355
0.01506
0.0001504
2.243e-06
1.782e-05
5.17e-06
4.72e-05
0.0001432
1.028e-05
0.0001441
0.0001677
0.0001494
0.03599
7.707e-10
0.0001103
1.958e-06
0.02242
1.375e-06
0.0001599
0.0004742
0.003581
4.572e-05
0.000139
0.0001183
0.0001463
1.229e-06
2.352e-06
0.0001123
0.001236
0.0001427
1.063e-05
5.629e-06
2.024e-05
6.505e-06
7.781e-06
4.069e-05
0.0001476
0.002242
0.0001254
0.0001511
2.769e-05
6.989e-05
0.0001558
0.0001633
0.0001568
0.0001424
2.911e-05
0.000137
0.000135
0.0001467
0.0001535
0.0001517
6.776e-05
1.883e-05
0.0001458
1.421e-05
0.0001402
2.632e-05
0.0001469
0.0001154
0.0001518
2.737e-07
0.0002497
1.088e-09
0.001114
2.149e-07
0.0001507
0.0001589
7.285e-09
0.0001502
2.755e-05
2.213e-05
1.585e-05
6.773e-05
0.0002719
0.000146
2.274e-05
0.0001861
0.0003108
0.001784
0.0005423
9.04e-05
0.00363
4.185e-05
1.144e-05
0.0001437
0.005304
5.229e-05
9.993e-08
0.0001515
0.0001481
2.213e-06
1.839e-06
0.003626
0.003753
7.652e-05
6.079e-06
0.0001534
6.936e-05
0.0005591
0.01898
0.002319
0.0006913
0.000136
0.0001787
9.915e-10
0.02188
0.002606
1.709e-08
0.0001691
0.0001151
0.0001449
0.0001499
0.0001605
0.0001586
5.041e-08
0.0001917
0.000147
0.0001472
4.514e-05
6.411e-11
0.0001469
0.006563
1.932e-06
2.8e-05
0.0001312
3.773e-05
1.607e-05
0.0001858
0.0001841
1.589e-06
1.441e-07
1.315e-06
0.000146
0.0007836
0.005036
0.0002814
0.0001429
0.0001687
0.0001727
0.01257
0.0001077
4.227e-09
2.598e-07
0.05631
1.181e-05
1.073e-07
0.01962
8.814e-06
0.005983
0.0001651
0.0001622
5.31e-07
5.218e-09
0.0001443
3.119e-06
3.967e-05
0.0001469
2.382e-07
0.005495
0.0001707
0.0001553
0.001035
1.768e-06
6.869e-05
7.348e-05
0.0001453
0.0001457
0.04917
0.0025
0.0001337
0.0001382
0.0001487
1.597e-06
0.02376
0.005551
4.126e-06
2.977e-07
0.04792
0.0002521
0.0001428
6.318e-09
0.000169
1.229e-05
3.34e-06
0.0001536
1.458e-05
0.0001271
6.166e-05
1.394e-09
0.02461
7.381e-09
0.0001384
0.000142
0.002282
0.0001513
0.000143
1.13e-09
1.901e-05
1.274e-05
2.297e-06
0.0001327
0.001358
0.0001354
9.538e-10
0.000156
4.024e-05
0.0001349
0.0001521
0.004365
0.00377
0.0008926
0.001217
0.0213
0.0001416
0.0001362
0.0008433
1.088e-05
5.078e-06
1.169e-08
0.0001608
0.0116
7.399e-05
0.0001471
0.0002271
3.886e-05
0.0002022
0.0001537
0.006252
5.23e-09
0.0001304
0.0001437
7.019e-05
3.093e-05
0.01891
4.425e-06
0.0001478
1.16e-05
0.0002476
3.77e-05
0.000148
0.000153
1.018e-06
1.946e-05
2.348e-06
0.003127
0.0001803
0.0001365
4.883e-06
0.0001401
6.761e-06
1.016e-09
0.0001596
0.002408
0.009898
2.758e-05
4.522e-07
0.0001566
0.0001524
0.0001363
0.0004922
0.0001581
0.0001447
1.068e-05
9.586e-05
0.0183
0.000136
0.000155
0.0001541
0.0001491
1.734e-05
0.0008595
0.0001455
5.123e-05
4.061e-05
0.0001595
0.0001502
0.0001467
0.0001447
0.0001579
0.001553
0.04214
2.321e-06
1.127e-09
7.874e-09
4.157e-05
8.695e-08
1.852e-07
0.0001481
1.404e-09
0.0002529
5.793e-06
0.02163
0.0001555
0.0001612
1.149e-05
2.163e-06
5.195e-07
6.427e-05
0.0001563
0.002279
1.393e-05
4.37e-05
0.0001568
0.0001645
0.001285
0.0001537
1.301e-05
0.0001466
0.001457
8.946e-05
0.0001406
0.0001525
1.65e-06
7.674e-10
1.116e-07
0.0001373
6.917e-07
0.001274
0.0001327
0.0001207
0.000146
7.484e-06
0.0003681
0.0003144
2.619e-06
2.864e-05
0.0001495
0.0001667
0.02433
2.402e-08
0.0001469
0.0001526
1.416e-08
0.0001067
0.0001443
1.989e-07
0.006103
0.0001527
0.0001525
0.03417
2.151e-05
1.422e-09
2.48e-06
0.0002591
0.01435
0.0004939
0.0001548
0.0001451
0.0001535
1.268e-05
4.033e-05
0.0003051
0.0001479
1.654e-08
1.54e-05
6.689e-05
0.002727
0.001572
8.999e-05
0.0001342
0.0001557
2.672e-05
0.0001349
0.0001506
2.87e-05
2.564e-06
0.02345
0.0001669
0.0001752
0.01386
0.0001505
0.01884
6.413e-05
0.0001261
8.649e-05
0.0001477
4.985e-06
0.0003912
0.005036
0.0001156
0.0001169
9.785e-06
0.0005772
4.488e-11
0.01465
0.0001574
0.0004544
0.0001414
0.0001004
6.846e-05
1.425e-07
2.477e-07
0.000339
5.157e-06
1.512e-06
0.001064
0.0001584
0.0002766
3.096e-06
2.925e-08
0.0006648
0.0001515
5.882e-07
0.0001661
5.697e-07
7.642e-05
0.01216
0.01523
1.417e-05
0.0001459
0.001672
0.0001676
0.0001448
0.0002538
5.522e-07
0.003018
2.765e-09
3.225e-06
0.0002032
0.0001448
0.001959
9.668e-05
0.0001619
0.001889
0.000312
5.185e-05
0.0002527
5.56e-06
0.0001465
2.529e-05
0.000138
0.0001169
4.145e-05
5.521e-05
0.0001186
2.671e-06
1.616e-09
0.000142
0.0001455
5.452e-05
3.717e-05
7.281e-07
0.000147
4.72e-05
1.711e-06
0.02199
0.01558
0.0001458
8.662e-05
2.768e-07
0.0001515
0.004949
0.0001442
4.279e-05
0.0001517
0.0002885
5.118e-06
0.0002954
0.0006354
9.547e-06
0.0001532
0.0001497
4.214e-05
4.88e-05
0.0001638
0.0001435
0.0001482
5.418e-06
1.924e-05
6.68e-05
0.02777
0.0007498
0.05087
2.245e-05
7.261e-05
0.0001281
0.0001524
0.0001573
2.999e-10
1.773e-07
2.779e-06
0.0001426
2.602e-06
3.306e-05
4.757e-05
4.602e-05
6.421e-09
0.0001605
0.001293
3.303e-05
4.42e-05
1.88e-06
1.17e-07
0.06001
0.0002009
0.03574
0.0001499
1.414e-10
0.0001469
0.01927
3.453e-06
5.994e-05
0.01572
5.05e-05
0.0006691
5.816e-07
0.008374
0.0001105
0.006439
0.0001065
4.519e-06
2.917e-10
0.007156
5.603e-09
1.279e-08
0.0001455
5.072e-09
0.0001501
9.289e-07
8.728e-07
0.0007294
0.0452
0.0007693
4.487e-05
8.429e-05
0.0001503
0.006634
0.00785
0.00666
0.01405
0.0009322
0.0001571
0.0001377
0.039
6.246e-09
0.0007391
6.985e-06
4.097e-05
2.356e-06
0.0001347
9.39e-06
0.0004083
5.388e-07
0.008592
6.933e-09
3.556e-05
9.22e-06
0.0001542
7.428e-08
0.0001531
0.004035
0.00162
0.0001582
0.000162
0.003182
6.655e-05
0.004002
0.0003215
7.408e-05
1.974e-05
0.005562
7.399e-09
7.027e-05
6.085e-08
0.0001501
0.02162
0.0009491
0.01703
0.0001523
5.663e-05
0.0001454
0.0001466
0.0001454
0.003499
2.704e-05
0.0004595
0.02398
0.0001512
0.007554
0.0001507
7.308e-09
3.042e-07
6.536e-09
1.438e-05
0.0001531
1.369e-06
9.693e-06
0.0001575
7.84e-06
0.0001464
0.003458
0.02325
0.0001847
0.04567
0.0001422
0.0001428
0.0001948
0.0167
0.0001514
1.187e-09
2.464e-05
0.0001398
0.0001459
5.419e-05
0.0001511
4.785e-06
2.205e-08
0.0001552
0.0001416
0.0001313
3.974e-05
2.107e-06
1.167e-09
0.0001541
0.0001614
6.387e-05
8.998e-06
0.0001528
3.078e-05
8.221e-05
0.0001666
1.941e-06
0.0004943
1.612e-09
0.0001512
4.482e-05
5.028e-05
4.771e-06
0.0001462
0.003993
0.0001456
0.01324
0.02997
6.929e-05
0.0009166
1.021e-05
0.0001942
0.0001603
4.387e-07
8.147e-06
1.225e-05
2.487e-06
1.303e-06
0.001219
0.0001516
4.561e-05
3.389e-05
0.0127
9.555e-06
0.0001386
6.478e-09
8.546e-09
3.834e-07
6.614e-05
0.0001093