/*--------------------------------*- C++ -*----------------------------------*\
  =========                 |
  \\      /  F ield         | OpenFOAM: The Open Source CFD Toolbox
   \\    /   O peration     | Website:  https://openfoam.org
    \\  /    A nd           | Version:  8
     \\/     M anipulation  |
\*---------------------------------------------------------------------------*/
FoamFile
{
    version     2.0;
    format      ascii;
    class       volScalarField;
    location    "5";
    object      nut;
}
// * * * * * * * * * * * * * * * * * * * * * * * * * * * * * * * * * * * * * //

dimensions      [0 2 -1 0 0 0 0];

internalField   nonuniform List<scalar> 
127143
(
6.885e-23
3.328e-22
2.043e-21
2.448e-20
2.401e-19
2.553e-20
1.277e-17
1.801e-18
5.383e-19
2.828e-18
2.118e-17
1.688e-18
1.283e-20
4.985e-20
1.047e-08
5.285e-16
8.824e-20
0.004872
0.003183
1.199e-13
0.0001333
3.462e-13
6.623e-05
1.696e-08
2.902e-13
2.91e-11
1.394e-13
1.457e-13
7.154e-12
0.004549
2.427e-09
2.491e-11
1.529e-12
3.004e-10
5.004e-05
1.542e-12
2.46e-05
0.0001701
4.997e-08
9.809e-12
0.003195
3.982e-06
4.316e-06
6.761e-19
0.004882
4.773e-10
7.916e-12
0.0003752
1.985e-08
3.392e-08
1.963e-15
0.0004519
2.076e-05
4.381e-05
0.006671
2.449e-09
0.006671
8.981e-05
0.005488
4.323e-05
3.938e-06
0.001664
4.369e-07
0.006702
5.19e-10
2.17e-05
6.143e-05
3.732e-07
3.828e-07
0.002512
9.192e-09
4.537e-13
0.002171
0.004836
0.006693
4.467e-13
0.0007785
3.319e-05
2.557e-09
0.006705
5.663e-12
1.292e-13
8.545e-09
3.876e-11
0.001272
6.379e-05
1.1e-07
1.104e-12
2.213e-05
3.194e-08
0.006649
4.851e-05
1.114e-07
0.000138
2.205e-06
0.000122
4.321e-06
5.656e-10
0.0001231
5.398e-05
0.006705
2.492e-08
1.343e-09
8.951e-06
7.609e-05
0.0001089
2.443e-07
0.002512
8.644e-06
0.00668
1.697e-08
8.015e-13
2.614e-05
7.558e-07
0.006694
2.877e-05
0.0005648
0.006693
0.0008404
6.055e-15
0.006681
1.028e-08
5.223e-07
0.0001111
6.982e-12
3.819e-12
0.0008327
0.000958
4.727e-07
1.681e-09
6.005e-06
1.865e-06
7.316e-07
3.642e-05
2.505e-17
7.098e-06
0.0002055
0.0003292
2.348e-11
0.0001659
5.156e-05
0.0009677
0.0001013
0.0004689
2.19e-05
1.378e-06
6.182e-12
0.006702
1.476e-06
3.568e-10
3.774e-06
3.088e-08
8.697e-05
2.797e-05
4.212e-07
0.001311
7.204e-05
1.038e-09
0.0003995
3.514e-10
1.061e-08
1.268e-15
0.006645
6.19e-06
7.927e-11
1.125e-09
8.529e-06
8.256e-06
8.867e-10
0.000187
3.162e-08
0.0004745
1.685e-05
1.488e-06
0.002208
0.0001092
2.611e-06
4.965e-07
3.377e-08
0.00205
1.511e-06
0.0007928
0.0001419
0.0001163
2.069e-09
0.001755
1.255e-05
7.915e-07
2.635e-08
0.0008275
1.371e-05
7.839e-07
0.0002164
5.943e-07
7.3e-18
0.0008938
0.006652
0.006631
1.642e-15
0.002739
0.006698
0.0001966
0.0009493
3.522e-05
5.921e-19
1.808e-07
0.0001276
1.775e-06
0.003796
0.006694
0.0001127
0.0008971
0.006692
1.03e-09
1.129e-06
3.938e-16
1.193e-09
1.706e-06
9.935e-06
0.0001258
2.871e-06
0.006694
2.801e-08
1.666e-05
1.754e-10
1.926e-08
2.93e-10
0.0001557
2.673e-07
0.0003785
0.000104
0.0009836
0.002307
9.861e-14
0.0001092
0.0001064
6.139e-06
1.281e-20
0.006056
3.511e-05
9.879e-07
1.567e-09
0.0002969
1.194e-09
1.278e-05
9.081e-15
8.869e-08
1.291e-13
6.751e-15
0.002538
6.082e-06
5.156e-11
1.189e-06
0.0002971
1.019e-08
7.529e-06
0.001145
2.999e-09
6.395e-06
1.487e-05
0.0008828
0.0009502
3.743e-05
0.0009315
4.083e-06
1.126e-09
1.269e-07
1.212e-07
5.022e-06
3.613e-06
2.653e-10
0.002206
0.0007087
3.281e-05
6.809e-07
1.614e-05
2.838e-05
5.135e-08
0.002168
1.064e-05
0.002955
0.0001942
9.243e-06
0.006691
0.006693
7.314e-18
4.168e-06
0.006695
4.467e-08
0.002087
8.822e-05
4.507e-05
0.0001069
1.026e-05
0.006702
7.103e-06
4.059e-09
3.519e-06
0.0002944
4.247e-06
8.268e-10
3.247e-05
1.38e-05
3.623e-05
1.127e-10
1.088e-06
1.816e-06
0.006693
0.002257
1.625e-06
1.888e-07
6.682e-08
1.378e-09
0.003341
0.006692
8.686e-08
0.0001703
6.772e-10
0.0001081
0.002353
8.367e-05
5.399e-09
0.0004038
1.169e-06
7.815e-08
8.632e-05
0.0001074
2.239e-05
8.332e-09
2.281e-06
0.0009135
0.006693
5.5e-05
0.006652
0.006631
3.086e-05
9.17e-06
1.699e-05
0.0009119
2.378e-06
0.0001902
1.694e-06
3.397e-05
1.899e-05
1.155e-06
4.15e-08
7.894e-08
9.289e-06
1.278e-09
1.216e-07
1.963e-09
0.00358
8.004e-05
1.693e-05
0.0001318
1.315e-07
0.0002869
2.012e-06
0.006408
8.148e-09
0.00114
5.032e-07
0.002889
3.803e-08
3.976e-08
0.006697
0.003098
0.002403
5.768e-09
0.00221
2.447e-06
0.0003738
1.736e-10
3.084e-08
0.0009851
0.0001008
6.355e-09
4.796e-13
0.0001885
0.002141
0.001532
1.418e-11
2.405e-09
2.753e-05
0.0006269
7.429e-14
4.144e-05
1.523e-11
0.0008047
0.0006902
0.006706
1.324e-05
1.034e-07
1.001e-08
2.5e-08
2.519e-09
1.366e-05
4.201e-09
0.0001272
0.0007209
4.123e-11
0.006694
0.0001531
0.0001666
4.079e-05
2.174e-06
0.000106
7.58e-07
0.006705
4.786e-08
2.259e-06
8.925e-10
4.633e-05
0.0004747
7.748e-07
2.582e-06
4.847e-05
1.17e-10
1.204e-05
3.371e-08
1.051e-05
2.25e-11
4.862e-07
0.002858
0.0003471
1.233e-05
4.196e-06
3.851e-05
2.732e-09
9.612e-05
0.006678
4.922e-07
5.343e-05
0.0002134
8.381e-07
0.006697
1.564e-06
1.358e-07
0.0004776
0.006701
0.006691
5.096e-08
0.0001595
7.934e-06
0.0003213
8.038e-10
0.005759
6.829e-08
0.002414
0.0009024
0.0001361
5.495e-09
2.69e-06
3.119e-09
3.588e-05
6.299e-05
5.713e-10
4.817e-09
8.125e-05
4.861e-06
1.111e-06
2.23e-06
0.001023
8.021e-07
2.078e-06
0.002311
0.001406
0.0001037
4.611e-08
0.006668
0.0002469
4.415e-05
9.558e-05
0.0001684
0.0001432
0.006645
6.942e-07
5.882e-05
8.507e-08
2.98e-05
6.839e-12
9.174e-08
1.074e-07
1.524e-09
5.469e-06
8.48e-07
3.442e-05
0.006692
8.04e-10
0.0008722
2.175e-07
1.412e-07
1.14e-05
1.215e-06
1.826e-17
3.541e-06
1.148e-06
0.0001043
1.309e-06
0.006688
6.034e-12
0.001416
0.0001447
0.0009857
1.044e-19
1.146e-15
1.511e-15
0.006697
1.564e-07
1.551e-07
0.006692
0.001293
2.911e-07
7.423e-06
7.245e-06
0.0001214
5.071e-09
0.0002541
7.628e-12
0.002388
0.0007099
3.446e-14
1.73e-08
1.081e-09
5.319e-08
0.005833
4.267e-06
0.0008321
0.001037
0.006606
3.398e-10
1.039e-10
9.06e-08
0.006639
0.0001015
0.0001165
8.664e-09
3.381e-06
2.431e-10
0.001607
0.0008671
6.926e-07
4.686e-06
0.006668
3.465e-05
9.27e-06
6.458e-09
4.233e-08
2.891e-08
8.035e-09
0.0008651
1.653e-06
6.267e-08
1.187e-05
6.521e-07
0.003339
2.673e-11
9.737e-06
5.63e-10
6.017e-07
0.0003579
0.006702
0.006701
1.624e-05
6.238e-08
1.201e-06
0.006694
0.00482
1.139e-05
3.767e-09
0.0001074
5.256e-06
4.456e-09
1.76e-11
2.498e-05
0.001131
0.006682
7.668e-08
0.0001419
4.236e-07
0.004973
4.327e-13
1.021e-06
9.016e-07
0.002138
1.078e-10
0.006559
0.0001296
0.0002924
0.0009277
0.004919
1.68e-07
0.0008895
8.951e-14
0.006645
2.651e-07
1.365e-09
0.00669
2.199e-06
0.004973
1.224e-07
6.914e-05
0.006691
1.58e-08
7.895e-09
1.738e-07
3.452e-06
0.0001077
2.634e-09
2.987e-09
1.422e-06
6.997e-08
1.684e-07
4.363e-08
4.598e-05
5.074e-06
3.044e-10
0.00557
2.273e-09
0.006691
1.162e-06
0.0008287
0.000104
0.006677
0.005307
6.515e-05
3.705e-08
4.116e-05
0.00648
0.006676
4.037e-07
1.894e-11
2.473e-08
1.041e-09
0.001836
8.481e-06
0.0001414
1.926e-06
2.094e-05
1.813e-07
1.982e-10
0.00648
1.813e-08
3.211e-05
8.001e-05
7.043e-06
0.006623
0.004822
7.811e-05
7.093e-11
3.537e-05
2.382e-11
0.0007754
0.003752
3.107e-06
2.331e-08
0.0001905
1.303e-09
9.362e-05
0.0009065
3.367e-08
6.42e-06
3.597e-05
2.321e-05
1.805e-18
3.003e-08
8.825e-05
6.089e-05
4.563e-06
7.947e-07
2.682e-10
8.711e-08
0.0004137
1.034e-06
3.292e-06
0.0001702
0.006678
6.147e-08
1.823e-05
4.468e-06
0.006639
0.006678
6.095e-12
0.0001038
6.45e-09
1.12e-06
1.854e-07
0.002231
2.813e-05
3.676e-10
9.834e-06
1.076e-08
0.006691
0.006668
5.49e-06
1.318e-05
1.14e-08
4.887e-06
2.163e-10
0.001788
1.063e-08
0.0001161
0.002357
0.003851
9.459e-10
0.0001571
8.106e-09
2.485e-17
8.055e-07
3.874e-06
0.0002184
0.004718
4.828e-07
4.084e-08
1.486e-11
0.004191
0.0008465
2.151e-05
6.611e-10
4.57e-05
2.478e-08
0.002691
1.931e-08
3.315e-07
1.666e-06
0.0008844
5.429e-05
2.277e-22
2.093e-05
0.0001744
1.689e-07
2.891e-07
1.419e-07
0.006687
3.638e-05
0.003627
0.0001127
0.003578
1.866e-11
7.198e-07
9.983e-11
0.003408
5.734e-08
4.043e-05
1.393e-07
2.445e-07
0.00384
0.000239
9.414e-08
1.746e-08
0.0002563
0.002427
3.307e-05
5.268e-07
0.003348
1.693e-06
4.672e-05
1.036e-06
3.76e-06
3.369e-05
7.888e-07
1.848e-11
2.436e-07
0.006608
0.0002338
0.001745
2.64e-11
1.427e-09
4.483e-05
0.00135
1.299e-08
0.006621
9.098e-06
3.635e-08
3.502e-05
2.724e-13
3.53e-05
1.15e-07
3.935e-05
0.0004064
1.812e-05
0.006697
4.651e-19
6.369e-06
4.518e-06
7.613e-09
0.0001379
7.764e-07
1.586e-06
1.609e-08
0.006681
0.003774
8.614e-06
0.003709
6.463e-07
2.255e-07
2.39e-07
5.34e-07
0.00666
0.0001663
8.065e-05
0.006691
0.006657
7.07e-06
0.001605
0.001833
9.804e-07
0.0001399
6.682e-15
4.864e-06
8.344e-06
0.006679
4.213e-05
1.501e-05
3.516e-09
2.318e-10
8.349e-06
0.003479
0.006033
0.001094
3.64e-13
0.006679
0.0001214
2.889e-10
4.032e-07
2.251e-11
0.005602
0.0004962
4.276e-07
0.006693
1.414e-09
0.006679
1.845e-07
6.827e-11
1.914e-07
5.712e-06
3.084e-12
0.006679
2.063e-08
1.987e-05
4.528e-10
7.236e-07
3.09e-10
4.06e-10
4.798e-05
5.704e-05
1.091e-05
1.016e-14
0.006692
0.000292
3.637e-09
9.196e-09
2.877e-06
1.002e-12
0.003547
0.0001653
7.052e-08
1.066e-11
1.892e-14
1.235e-07
3.075e-16
2.02e-08
6.485e-16
2.064e-06
1.243e-08
0.003821
1.741e-13
0.0007927
1.715e-07
0.004905
0.005
9.531e-05
0.0004489
2.227e-06
0.00269
7.318e-07
4.895e-05
0.0004025
4.343e-08
1.41e-07
0.006148
0.003591
2.005e-05
0.0004657
1.217e-08
9.731e-14
0.0002927
2.103e-06
1.507e-08
0.0005662
3.359e-07
0.006688
1.176e-05
8.968e-09
0.006442
2.654e-08
1.012e-05
0.001877
0.006665
0.002552
0.002269
1.328e-15
1.352e-05
9.104e-14
0.0002696
1.116e-06
2.286e-07
5.356e-10
6.679e-09
0.005511
4.695e-11
8.977e-06
0.005404
9.132e-06
1.579e-13
0.001233
4.327e-09
3.836e-06
1.605e-05
1.122e-10
4.145e-16
1.626e-08
0.0008588
0.006694
2.07e-06
7.406e-06
3.474e-06
2.599e-08
6.692e-07
9.446e-11
2.25e-05
5.332e-05
7.998e-11
0.0001574
2.09e-12
0.006688
0.000304
4.722e-08
0.0002581
5.395e-07
0.0001386
0.006692
0.002233
1.749e-08
4.062e-05
2.985e-06
1.976e-08
1.982e-07
0.001021
2.242e-05
1.109e-07
3.036e-08
1.357e-14
4.735e-05
1.519e-09
1.779e-08
2.442e-06
0.0009871
5.515e-07
8.962e-07
1.13e-08
1.36e-12
0.0001211
0.006687
0.006683
0.0003466
0.0001831
7.307e-05
0.006697
1.642e-06
0.0001365
6.091e-05
2.883e-07
5.488e-05
1.089e-07
2.15e-06
0.006705
6.623e-05
5.211e-05
5.571e-12
1.302e-10
3.967e-05
1.101e-05
0.0003897
6.966e-09
2.071e-08
1.236e-06
0.002003
6.239e-07
1.234e-07
8.927e-06
6.857e-11
0.006528
7.002e-12
4.12e-10
0.001815
4.586e-06
9.844e-09
0.004352
1.596e-13
1.396e-14
0.006207
0.00669
7.443e-06
6.001e-05
5.819e-14
2.324e-06
1.872e-07
9.249e-09
5.842e-08
6.76e-05
9.39e-05
0.004184
2.772e-08
0.001096
2.753e-07
1.7e-05
4.395e-09
4.242e-05
0.005181
2.35e-14
1.235e-05
0.006691
1.39e-07
0.005508
0.006686
1.31e-06
7.577e-05
3.104e-14
0.006687
1.522e-09
0.006694
1.618e-07
9.024e-05
0.003839
5.396e-06
2.433e-09
8.617e-09
2.297e-08
7.17e-07
0.003619
0.0006661
0.0002502
4.912e-08
7.576e-07
9.702e-08
1.767e-12
2.715e-08
9.897e-14
2.516e-06
8.557e-09
2.326e-09
8.428e-09
1.962e-11
5.224e-06
0.003896
0.003819
4.963e-08
1.182e-05
1.543e-10
0.002735
1.492e-08
0.0005325
3.132e-07
1.66e-07
9.936e-06
6.596e-05
3.181e-09
0.001513
3.171e-07
3.191e-06
1.343e-09
6.51e-07
0.006502
1.525e-06
4.9e-08
0.006687
3.458e-07
1.608e-09
0.006676
2.64e-05
2.247e-06
0.0003327
5.18e-06
0.0004872
4.297e-05
9.968e-05
0.006669
4.241e-07
3.708e-07
0.006702
7.053e-06
0.0001523
0.0001399
1.795e-07
3.621e-06
0.0004308
4.981e-08
2.169e-12
2.614e-09
2.031e-08
0.0004943
1.705e-13
0.002572
9.197e-08
0.006692
2.906e-05
5.503e-06
6.315e-07
1.625e-07
4.872e-08
1.539e-11
0.006698
8.547e-15
2.398e-09
5.296e-09
5.343e-07
4.844e-09
0.001404
0.004186
7.352e-11
3.349e-07
6.394e-05
5.736e-18
8.549e-05
1.756e-08
5.09e-10
5.324e-08
1.418e-07
5.619e-05
5.905e-10
2.061e-07
4.043e-06
5.324e-06
5.257e-09
1.251e-08
0.001138
8.893e-14
9.9e-05
1.215e-07
0.0001195
1.49e-09
0.006647
0.00669
0.0001122
9.061e-14
0.0002194
0.001662
1.109e-13
3.827e-08
0.006692
3.256e-11
1.971e-07
1.236e-05
8.237e-13
2.396e-05
1.539e-05
1.492e-17
0.002796
9.259e-11
0.0005819
3.166e-07
1.285e-11
1.458e-08
3.563e-10
4.833e-06
1.249e-07
0.0001215
0.00271
3.609e-06
1.435e-06
4.205e-06
2.583e-07
0.001644
1.722e-10
0.0006196
7.58e-05
0.00119
3.713e-06
3.197e-05
2.615e-06
9.145e-14
5.646e-05
2.269e-12
5.828e-10
5.466e-06
1.191e-05
0.006693
0.0009697
5.957e-06
3.25e-05
8.493e-10
8.106e-10
1.494e-10
0.006681
6.272e-09
3.64e-08
3.18e-05
2.942e-14
9.191e-07
0.003293
1.088e-07
0.002486
7.475e-08
6.716e-06
5.747e-12
8.812e-07
0.0009516
0.000386
0.0067
4.698e-16
2.578e-14
4.989e-05
6.358e-05
5.166e-06
0.006493
0.006651
7.001e-07
0.0006738
0.002755
8.447e-05
0.00303
0.003
1.436e-06
3.255e-05
0.002023
1.927e-08
2.634e-08
1.606e-14
2.942e-05
2.335e-10
1.035e-05
3.338e-07
0.006653
2.853e-09
0.0005876
3.139e-07
1.117e-14
8.543e-06
0.001824
3.14e-06
4.741e-07
7.108e-05
5.012e-15
0.001881
1.349e-05
0.001414
0.001729
9.281e-06
3.245e-08
4.239e-15
7.027e-05
9.62e-08
0.006675
1.773e-08
1.346e-08
0.006667
4.95e-09
7.244e-07
1.393e-05
5.296e-09
0.006683
2.211e-05
1.649e-16
0.004361
4.148e-08
2.417e-08
2.944e-07
3.81e-11
5.038e-05
9.47e-06
1.994e-07
4.63e-11
7.789e-06
3.406e-07
1.757e-05
1.93e-07
2.504e-10
1.561e-10
1.031e-07
7.011e-06
0.006691
1.146e-07
0.003314
3.803e-10
3.417e-07
0.001717
6.619e-06
0.006705
1.919e-05
5.033e-07
0.006585
0.001803
0.006067
5.349e-10
0.001787
1.675e-13
1.906e-06
2.767e-05
4.718e-09
3.737e-05
8.11e-08
7.631e-09
4.276e-16
5.355e-06
8.003e-07
5.813e-05
9.922e-05
0.0007364
0.006702
4.112e-05
0.001244
0.0006302
0.006699
0.001425
0.006685
6.308e-08
1.005e-05
0.006675
0.006686
1.219e-06
8.981e-05
5.474e-09
7.439e-05
0.006686
6.102e-06
3.122e-05
6.326e-05
8.977e-16
2.091e-10
1.825e-13
6.969e-08
6.462e-07
1.664e-08
6.27e-08
0.0001663
0.0001102
7.613e-12
0.0004966
5.3e-09
4.016e-09
7.029e-06
4.231e-06
0.003138
0.006686
3.907e-16
1.162e-05
3.399e-11
0.006692
1.372e-14
4.724e-08
1.114e-08
9.025e-06
0.006638
0.006637
0.0008241
0.001698
0.002097
0.001169
3.584e-07
4.956e-05
4.75e-06
0.00231
1.091e-05
1.261e-10
1.517e-06
0.0002119
7.82e-05
9.09e-06
6.466e-10
1.054e-08
2.253e-07
1.207e-08
0.0002598
0.002587
1.429e-05
6.588e-06
7.482e-13
4.107e-05
0.0003575
3.046e-07
0.00231
1.165e-07
6.468e-05
1.662e-10
0.003311
0.006692
0.0002816
7.591e-07
7.295e-15
2.667e-11
7.135e-05
6.586e-06
3.431e-09
0.0001055
0.006617
1.758e-08
6e-08
1.269e-15
5.247e-05
1.332e-13
1.588e-05
0.006686
3.443e-08
4.507e-08
0.00117
1.293e-05
0.0004208
2.214e-07
4.43e-07
5.793e-07
0.0006521
8.331e-10
0.0001339
3.408e-08
2.755e-09
1.207e-09
0.003113
0.003111
6.654e-09
8.258e-06
3.925e-15
7.148e-07
5.782e-10
4.087e-10
3.683e-16
0.002339
5.682e-07
0.0003816
0.003636
0.006686
0.0005565
0.006196
1.595e-14
0.006692
3.147e-11
3.949e-05
1.101e-06
4.651e-07
1.596e-09
0.002453
1.296e-11
7.89e-05
1.762e-07
0.0001887
5.935e-12
0.006688
1.02e-06
2.868e-08
0.0002745
2.324e-09
5.045e-08
7.5e-05
1.885e-08
5.153e-09
0.0001809
0.006661
1.714e-10
0.002535
0.006657
5.321e-05
9.411e-10
0.006661
3.213e-11
0.006694
4.887e-05
3.745e-06
0.0005457
5.519e-07
0.006659
0.0002255
1.728e-08
6.037e-05
3.184e-05
2.62e-06
3.589e-05
0.006692
0.00668
1.031e-05
3.939e-15
1.148e-06
2.124e-07
0.0008506
2.469e-12
7.098e-05
4.761e-05
0.002854
1.811e-05
9.379e-07
2.385e-09
0.0006269
4.314e-08
0.001059
1.199e-05
0.006703
3.895e-06
1.045e-07
0.000252
7.403e-07
8.553e-10
5.105e-07
0.006678
2.889e-05
6.849e-11
1.092e-07
1.569e-14
2.746e-10
0.002448
0.0003409
1.199e-05
9.535e-12
2.705e-05
2.556e-08
8.697e-11
0.0027
5.483e-05
0.006689
1.839e-07
4.814e-08
1.323e-06
0.006693
3.826e-07
0.006692
9.616e-05
9.665e-07
0.006693
0.002855
5.601e-05
1.048e-06
0.0004102
0.002028
1.249e-08
0.006696
9.869e-09
6.487e-11
1.127e-05
0.003077
6.75e-08
0.0009528
3.931e-06
9.111e-05
5.879e-10
3.232e-07
7.366e-05
1.267e-09
6.552e-06
1.168e-07
9.315e-11
0.0001726
4.039e-05
2.244e-07
0.0002148
2.982e-08
9.782e-05
1.001e-05
2.965e-07
0.0003163
0.002024
6.068e-09
0.002246
1.888e-06
4.249e-06
1.663e-14
1.862e-05
5.78e-13
6.297e-05
0.006663
5.945e-13
1.052e-07
9.932e-05
1.018e-08
0.0004435
7.993e-05
0.006705
0.001241
1.912e-12
0.0005123
4.7e-06
3.263e-07
9.834e-08
0.006695
4.019e-07
7.515e-06
6.963e-06
3.987e-10
0.000457
2.633e-07
6.417e-11
0.006688
0.0002369
4.772e-05
0.00265
3.065e-06
1.803e-05
3.14e-05
1.612e-06
8.284e-05
0.0006921
0.003157
5.685e-05
3.989e-06
0.006506
2.586e-05
2.262e-09
1.355e-13
0.006695
3.273e-07
1.089e-12
0.002168
6.526e-09
0.001362
1.01e-07
1.284e-13
0.002962
0.002421
2.002e-05
0.0009768
2.594e-09
3.737e-06
0.0004466
1.183e-11
3.75e-07
0.0004722
2.802e-08
6.18e-17
1.594e-16
2.788e-05
1.442e-05
4.376e-07
6.813e-05
0.0006438
2.938e-06
0.0004028
3.224e-09
1.172e-06
1.699e-06
5.512e-08
3.02e-12
8.976e-05
2.833e-05
0.006533
2.669e-08
2.77e-05
2.605e-05
1.432e-05
7.452e-05
1.011e-07
2.58e-05
0.003499
0.006669
4.934e-09
2.833e-10
2.048e-05
1.825e-08
0.000311
1.495e-14
1.812e-08
0.0001823
2.413e-07
1.964e-10
0.0001046
1.749e-07
4.339e-15
0.006608
1.909e-11
8.953e-09
8.937e-08
0.004901
0.0002706
0.001081
6.302e-10
8.62e-08
0.001178
2.09e-10
0.0047
5.595e-06
5.107e-08
0.0001358
0.001436
0.005774
4.396e-09
2.14e-10
1.238e-07
1.64e-10
2.243e-11
0.000293
3.712e-13
0.002424
2.615e-08
6.392e-06
0.002005
0.0001151
0.003785
1.048e-06
0.0005803
1.902e-07
0.002964
1.866e-07
4.443e-16
3.3e-13
1.918e-05
3.063e-05
3.194e-05
1.232e-05
0.00188
0.000198
6.309e-07
7.337e-05
0.006701
3.516e-07
1.628e-07
2.453e-08
3.3e-06
2.686e-06
5.033e-08
0.0001849
5.321e-09
1.071e-13
1.041e-11
0.0001097
2.04e-07
6.895e-16
0.001124
3.32e-09
0.003514
2.241e-06
3.637e-06
5.889e-18
3.951e-06
2.451e-06
0.003458
0.0002151
1.701e-08
1.12e-05
0.006694
0.006698
0.0005298
2.056e-10
0.001062
1.707e-07
1.179e-13
1.681e-06
0.001473
4.035e-10
0.001878
8.46e-06
2.064e-11
7.032e-05
0.003522
2.288e-05
2.978e-06
7.231e-05
1.382e-06
0.006696
5.922e-08
0.002566
4.595e-10
0.003158
3.607e-08
3.796e-11
1.73e-05
3.58e-10
0.0001444
3.4e-09
1.311e-07
5.25e-09
1.86e-05
0.0008875
1.768e-05
6.922e-05
1.312e-08
7.153e-06
3.41e-10
3.045e-08
0.006702
5.372e-06
0.003884
1.023e-09
3.448e-07
0.002165
0.0008807
7.952e-05
1.782e-11
0.003324
6.452e-06
0.0004076
4.414e-05
0.001603
0.0002748
0.0001268
1.156e-13
0.0001057
0.0003363
8.958e-09
0.006671
0.0005899
6.611e-05
5.791e-05
0.0009986
0.006687
8.764e-05
4.578e-08
1.035e-08
0.006692
0.001006
0.001811
1.673e-06
3.775e-08
0.001167
4.586e-05
7.723e-05
7.633e-10
3.455e-09
0.001873
7.741e-07
1.989e-05
0.0001092
2.168e-07
3.174e-14
0.001718
7.799e-10
6.485e-09
0.001352
1.726e-14
0.006477
0.006662
1.271e-05
1.662e-05
2.612e-16
0.006692
0.00133
8.019e-09
6.844e-15
2.948e-08
1.909e-09
0.006293
0.006366
8.522e-09
1.592e-06
8.256e-05
6.427e-07
5.453e-05
0.0009969
2.809e-05
0.006705
3.884e-10
7.327e-08
2.898e-07
0.0001854
1.383e-11
0.0004758
1.763e-05
0.00667
2.856e-06
5.652e-08
6.9e-10
6.771e-09
3.58e-06
1.985e-11
1.76e-07
7.033e-06
2.157e-07
5.427e-08
2.273e-06
0.0001111
6.761e-07
1.289e-10
0.004806
0.004993
8.597e-08
3.408e-06
1.583e-12
9.084e-06
4.489e-09
5.032e-07
0.00254
0.006692
6.903e-06
0.006702
6.068e-05
1.49e-13
2.188e-06
9.246e-05
3.127e-07
0.0001274
7.585e-12
6.351e-08
0.002966
2.264e-06
2.823e-06
2.405e-07
0.0003332
2.698e-07
1.847e-06
6.341e-06
2.848e-05
3.294e-05
1.844e-06
0.0007397
4.216e-10
1.334e-07
9.168e-06
6.618e-06
9.707e-11
1.176e-05
1.924e-07
1.971e-08
9.751e-07
7.964e-06
1.489e-06
3.88e-13
9.556e-05
9.552e-08
0.001513
0.0008767
0.006703
1.182e-07
0.00222
3.557e-13
2.448e-07
4.134e-05
5.827e-10
3.354e-15
1.529e-10
4.619e-05
3.818e-07
4.676e-10
1.494e-11
0.002205
0.0002946
1.105e-06
8.499e-16
1.876e-06
2.286e-05
7.089e-05
7.192e-05
0.006693
0.0002463
2.331e-10
7.057e-06
4.179e-08
0.001599
9.101e-05
1.116e-11
0.006647
0.000102
8.895e-05
0.001088
8.923e-10
7.333e-05
1.842e-05
0.002483
5.314e-05
4.559e-08
1.237e-06
6.267e-14
1.2e-08
1.007e-06
0.006677
5.336e-05
5.846e-06
3.303e-10
7.564e-09
8.99e-07
0.002886
2.536e-06
0.006045
2.015e-08
4.645e-09
7.827e-06
1.616e-06
6.795e-05
2.65e-11
1.121e-09
1.289e-08
1.716e-06
5.425e-05
1.473e-06
1.383e-10
0.003917
0.0001022
1.109e-13
0.002713
5.398e-05
0.004823
0.006699
1.395e-06
0.002842
2.334e-08
3.421e-07
7.787e-05
0.0002504
1.195e-09
1.809e-11
1.853e-06
7.935e-09
1.823e-06
0.001086
1.029e-14
4.626e-05
3.503e-06
0.002357
6.156e-14
0.0008557
3.149e-11
7.885e-13
0.003459
3.02e-09
1.316e-09
9.153e-06
0.0005034
9.388e-10
1.194e-07
1.046e-09
0.000125
3.452e-05
0.0001886
0.003495
0.0067
4.339e-05
0.0005391
4.22e-07
1.554e-06
7.592e-06
1.292e-13
0.0004441
0.004969
6.801e-08
2.41e-05
0.00144
4.995e-07
2.189e-05
8.525e-07
2.009e-09
3.689e-10
7.539e-13
2.898e-07
4.602e-08
1.049e-07
4.445e-06
5.819e-07
2.152e-05
4.575e-14
4.501e-08
3.192e-07
8.831e-06
0.006679
1.527e-07
4.978e-08
0.0006438
9.613e-06
6.67e-13
3.64e-09
2.625e-07
0.0001548
1.177e-05
9.227e-10
0.006693
1.505e-09
0.001522
0.0001246
8.559e-07
5.55e-09
0.006702
2.66e-07
0.0004979
2.372e-06
5.564e-12
3.446e-06
2.828e-06
4.297e-16
4.008e-05
5.401e-08
0.006666
0.00664
6.688e-08
2.883e-05
1.408e-05
3.507e-09
2.192e-07
0.006685
1.863e-11
7.558e-10
4.524e-05
0.006701
0.004132
1.688e-05
4.9e-06
5.897e-08
2.175e-16
2.85e-09
0.005366
2.475e-09
1.509e-12
8.593e-05
3.512e-09
1.978e-08
0.002529
6.075e-05
8.973e-10
0.001236
0.0001677
0.006632
0.006583
0.006611
0.00626
0.0001419
0.0004267
1.471e-06
5.848e-09
4.954e-06
1.628e-06
6.303e-05
7.647e-11
0.006117
3.326e-06
5.319e-05
6.416e-09
4.86e-10
2.515e-09
5.948e-06
4.34e-07
1.993e-08
7.141e-05
1.457e-07
0.0001942
2.372e-07
1.918e-15
5.73e-08
7.471e-12
3.933e-06
1.375e-07
0.006692
5.405e-14
4.823e-06
1.632e-08
5.583e-06
0.0001312
1.01e-13
0.006693
2.602e-05
1.463e-09
0.004044
7.136e-07
5.46e-06
0.0004183
1.435e-05
1.665e-10
7.935e-05
9.263e-09
0.006625
7.938e-06
3.964e-06
3.455e-07
0.0005331
3.68e-07
0.006681
0.005043
5.78e-05
2.929e-07
3.016e-09
0.0001132
0.0002817
1.477e-07
1.313e-05
4.385e-10
1.667e-08
0.001625
0.001842
0.000484
1.163e-05
0.0001045
6.173e-15
3.514e-06
0.006691
5.065e-12
0.006694
0.006687
7.313e-05
0.002423
7.464e-11
0.0003621
2.114e-10
0.0001174
1.75e-08
0.006695
0.0001012
9.203e-07
6.826e-08
0.001251
0.003337
6.074e-05
5.249e-12
5.013e-12
0.006702
5.244e-13
4.886e-12
2.654e-16
0.002904
0.002004
0.0007062
9.204e-05
0.0006344
0.002313
4.827e-07
2.813e-12
9.441e-06
1.966e-09
1.588e-15
0.006692
1.111e-08
6.438e-11
2.386e-07
0.006693
1.17e-09
2.99e-13
2.895e-15
1.304e-14
9.592e-05
8.665e-06
1.884e-14
0.0002972
4.151e-06
0.006687
0.0003264
4.812e-10
0.002951
3.747e-08
1.417e-14
8.632e-05
1.913e-05
2.995e-07
0.006706
0.005334
5.58e-09
2.681e-09
0.003323
5.441e-10
9.386e-07
3.86e-05
0.0008956
6.903e-05
9.591e-07
1.64e-05
0.006693
1.267e-05
1.475e-05
6.695e-08
5.645e-08
1.103e-07
5.983e-09
1.8e-07
1.031e-13
7.018e-16
4.861e-18
4.146e-09
0.0001605
2.134e-09
0.0003419
5.14e-10
6.254e-10
0.006692
3.503e-15
0.006705
4.801e-07
2.738e-12
4.751e-11
3.168e-05
6.412e-07
1.809e-07
3.988e-08
0.006629
1.629e-15
8.08e-07
0.002856
0.0009933
1.316e-05
1.008e-13
4.754e-13
5.024e-14
0.0009555
8.209e-09
2.774e-09
0.0003695
2.513e-05
3.019e-07
4.984e-13
0.006668
2.058e-05
4.448e-07
5.154e-06
6.674e-07
0.000203
0.00281
1.019e-11
1.816e-07
1.205e-07
7.994e-13
0.002841
3.899e-11
3.976e-05
5.329e-07
6.441e-07
0.006409
0.0001069
6.764e-07
7.97e-09
4.827e-08
1.13e-13
0.002878
0.004334
7.919e-06
4.855e-08
2.408e-11
0.0001503
0.002871
0.006423
0.0002914
4.907e-10
0.00634
6.26e-08
1.509e-08
9.004e-05
8.613e-07
0.0001159
4.196e-12
6.493e-14
1.209e-14
8.478e-05
2.473e-09
9.817e-06
2.81e-07
0.002222
0.001844
1.784e-12
0.0007538
8.324e-10
3.852e-08
1.974e-10
1.027e-07
2.569e-05
1.809e-13
0.0005168
4.416e-07
7.225e-05
0.003133
4.833e-07
0.0001203
0.00219
1.194e-06
2.83e-07
7.325e-06
4.448e-07
7.242e-07
6.889e-14
1.708e-15
0.001969
5.752e-15
0.002162
7.762e-05
0.0001128
0.0001759
8.952e-07
0.006704
3.089e-08
5.623e-14
7.464e-08
6.815e-11
0.0009423
0.0001149
8.077e-08
3.493e-06
0.0007702
2.63e-09
0.001088
1.189e-11
4.71e-07
0.005275
7.348e-06
4.259e-07
0.0067
0.0004483
1.105e-10
0.006695
2.294e-08
3.473e-07
4.327e-08
4.713e-06
2.793e-11
0.00244
0.0005048
5.095e-05
2.215e-09
8.509e-10
4.304e-09
4.7e-07
0.006684
1.493e-08
0.006692
7.351e-05
6.501e-07
0.0008177
1.346e-14
4.86e-07
2.541e-09
0.002333
3.647e-10
2.346e-05
0.002312
0.0001523
8.005e-08
0.00667
7.513e-06
0.006694
9.354e-10
9e-10
4.067e-07
1.205e-05
0.006624
1.087e-08
1.353e-08
1.843e-07
1.119e-10
3.158e-08
1.068e-08
0.0006074
7.779e-05
1.097e-05
1.748e-05
7.568e-08
1.423e-06
0.0001118
1.735e-05
9.98e-05
1.269e-06
2.406e-07
0.006624
0.006666
0.002036
0.0003194
5.32e-06
1.218e-08
2.481e-08
0.002464
5.906e-08
2.228e-06
1.552e-07
0.006698
6.391e-07
4.825e-05
1.046e-10
0.002674
2.506e-15
7.758e-06
7.005e-11
0.003496
0.0001194
1.192e-13
0.0003112
1.718e-07
8.959e-08
4.066e-08
1.805e-07
2.65e-06
0.006693
8.764e-08
2.356e-07
3.951e-06
1.493e-05
1.409e-05
4.65e-06
9.858e-05
3.145e-07
9.403e-09
0.006686
0.0003129
6.178e-07
1.378e-11
6.927e-06
0.006701
5.18e-09
8.388e-10
0.00016
0.0001773
2.256e-06
5.999e-09
0.0001952
1.238e-06
4.924e-07
0.001745
6.219e-06
7.931e-06
0.005299
5.249e-06
1.567e-14
0.0002985
7.813e-06
2.347e-12
1.378e-05
4.52e-06
0.00669
0.0003064
8.842e-05
0.003454
8.607e-13
1.114e-06
0.006697
0.001066
3.828e-07
2.11e-16
0.006697
0.0002321
8.963e-11
1.616e-07
6.579e-06
1.825e-07
5.991e-09
1.73e-06
2.799e-06
1.844e-09
1.261e-12
4.139e-10
0.00209
1.114e-05
0.0001059
2.049e-06
0.006683
5.998e-05
6.838e-07
0.0003959
1.887e-07
5.643e-14
3.584e-11
0.002232
1.184e-08
8.969e-13
0.002033
8.175e-09
0.0002296
3.406e-05
7.082e-05
2.165e-10
1.254e-13
0.006688
1.009e-08
2.474e-07
0.006697
3.169e-11
0.0003264
1.09e-05
0.0001386
1.863e-05
2.125e-09
1.727e-07
5.984e-07
0.006707
0.003028
0.002515
7.285e-06
0.006685
6.479e-06
0.0003719
5.755e-10
0.002234
0.000346
7.555e-09
1.263e-10
0.002045
2.906e-06
0.006676
8.627e-14
1.015e-05
2.716e-09
5.945e-09
9.55e-05
2.022e-08
3.096e-06
2.286e-07
2.426e-14
0.003104
1.375e-13
0.006672
0.006685
6.286e-05
5.48e-05
0.006683
8.047e-15
9.083e-08
2.654e-08
3.802e-10
1.405e-06
2.934e-05
0.004853
7.005e-15
0.0006104
2.838e-07
0.006666
2.437e-05
3.504e-05
6.595e-05
1.449e-05
2.199e-05
0.002403
9.662e-08
0.006656
1.412e-05
1.63e-09
7.504e-10
1.273e-12
9.358e-05
0.0001983
2.104e-06
0.006699
1.52e-07
8.981e-08
0.0001943
0.0002211
3.819e-05
8.848e-14
0.00596
0.006681
1.58e-06
7.384e-09
0.00174
1.742e-09
0.006701
1.281e-09
1.644e-06
2.376e-07
0.006701
6.982e-05
8.953e-10
5.769e-08
7.188e-10
0.0001242
2.447e-06
0.006679
5.791e-09
0.00459
5.823e-09
1.06e-14
0.001259
9.755e-06
0.0009135
1.945e-09
1.208e-11
8.369e-08
8.784e-05
0.006657
8.507e-06
8.411e-05
0.006689
2.269e-08
3.966e-07
0.001856
0.006693
0.0001164
9.935e-05
0.0001762
2.356e-08
9.975e-06
0.006694
6.058e-08
2.757e-07
7.17e-08
0.0005671
0.006696
0.00669
0.0004338
1.144e-05
0.001445
3.276e-09
1.855e-14
2.189e-13
3.076e-07
7.422e-13
3.649e-11
0.003051
2.713e-14
3.147e-06
1.126e-09
0.002428
6.772e-05
3.552e-05
9.448e-10
1.802e-09
1.506e-10
1.044e-07
0.0002846
7.054e-05
2.687e-08
3.572e-07
9.311e-06
9.242e-05
3.28e-06
5.228e-05
2.919e-08
0.004075
3.541e-05
2.101e-06
6.772e-06
1.126e-05
1.425e-09
6.81e-15
1.374e-11
0.006662
1.175e-11
2.825e-05
0.006656
4.925e-07
0.006694
2.778e-09
3.937e-06
0.002664
5.466e-09
5.346e-08
0.006707
3.017e-05
0.002943
1.547e-12
0.0009181
1.583e-05
8.923e-13
8.434e-06
0.006688
5.249e-11
0.0001453
0.0004501
1.683e-05
0.00206
1.16e-07
2.001e-14
3.682e-09
2.819e-06
0.001363
2.952e-07
4.965e-06
0.006688
0.0002049
1.994e-08
3.281e-07
2.654e-06
0.006701
1.018e-13
6.771e-08
9.237e-07
7.995e-06
3.475e-05
1.008e-06
0.006656
0.0001598
3.607e-08
6.202e-07
4.56e-05
1.812e-07
3.175e-09
0.002498
8.152e-06
8.178e-06
0.001402
5.301e-05
0.002247
9.283e-07
1.688e-06
2.085e-06
0.0067
2.496e-09
0.0024
0.0001015
5.555e-06
1.356e-05
1.416e-09
6.683e-06
1.086e-16
0.000913
3.388e-05
0.00189
0.006678
5.91e-06
1.374e-06
3.036e-11
1.316e-10
1.524e-06
1.054e-08
3.951e-10
2.604e-05
2.306e-05
3.246e-06
4.52e-09
2.825e-12
1.757e-05
0.0001261
3.067e-10
4.64e-05
3.351e-10
2.46e-06
0.001235
0.0004744
5.943e-08
0.006693
4.676e-06
6.985e-05
0.006689
0.0001436
2.89e-10
0.002303
9.823e-16
4.479e-09
1.526e-07
0.00669
3.962e-05
4.202e-07
0.003322
7.214e-05
7.349e-06
1.15e-08
4.772e-07
1.309e-09
0.006695
1.96e-07
0.006683
1.363e-05
1.201e-07
7.79e-08
6.038e-06
3.385e-09
7.695e-16
0.006611
0.006692
6.065e-07
1.985e-07
4.736e-10
3.724e-05
3.288e-07
1.946e-09
0.000686
0.001064
0.002667
1.896e-07
9.598e-11
3.098e-05
0.0001426
0.006686
2.479e-07
6.101e-05
3.883e-06
1.143e-08
2.237e-06
0.001987
3.306e-09
1.313e-06
0.000403
5.893e-08
3.018e-07
0.0001204
0.006687
0.006581
1.107e-08
4.14e-09
1.349e-06
0.003453
7.924e-06
0.003083
1.203e-07
1.416e-06
0.006602
8.521e-06
3.109e-05
2.614e-15
4.779e-11
1.242e-09
0.00668
3.941e-09
2.2e-07
1.408e-08
2.091e-08
2.583e-13
1.675e-05
4.128e-05
2.211e-07
3.923e-07
2.349e-09
2.194e-11
0.002429
0.002737
0.003696
8.844e-05
6.701e-16
0.0008098
0.001381
6.048e-09
9.16e-07
0.00107
7.542e-08
1.102e-05
3.76e-11
0.0006524
1.022e-07
0.0001094
8.621e-06
9.6e-09
2.626e-15
0.0002124
9.01e-14
3.787e-13
0.006692
7.369e-14
5.896e-07
5.259e-10
2.546e-10
1.656e-05
0.0009755
2.002e-06
3.332e-07
2.175e-06
4.782e-05
0.00045
0.0004465
5.417e-05
0.0004174
1.122e-05
1.588e-05
2.793e-05
0.001201
8.783e-14
1.401e-05
6.066e-10
3.339e-07
3.451e-09
0.006649
1.049e-08
4.262e-06
9.898e-11
0.0007273
2.999e-13
9.249e-08
2.72e-08
8.861e-05
1.665e-11
8.028e-05
0.0002028
4.082e-05
0.0001846
8.342e-05
0.0001258
1.274e-06
1.899e-05
7.746e-07
2.213e-06
9.767e-08
0.0001192
3.256e-13
1.467e-06
1.599e-13
3.921e-05
0.0004055
3.381e-06
0.001894
0.0001389
8.215e-08
0.006693
0.003102
0.006692
5.402e-05
1.672e-07
3.397e-07
0.001682
8.068e-06
0.0001467
5.632e-05
1.94e-14
9.474e-11
9.637e-14
5.738e-08
0.0001003
1.448e-09
1.401e-09
0.0001287
3.069e-09
0.006695
7.215e-05
0.002708
1.869e-07
0.00111
0.00668
0.006679
1.342e-06
0.001845
0.0001451
1.632e-14
1.393e-07
0.006673
0.006693
5.156e-07
0.0002593
6.374e-09
1.746e-12
0.005003
8.492e-06
1.519e-07
6.694e-08
4.434e-09
1.534e-14
4.314e-06
9.324e-05
7.765e-07
2.959e-08
3.18e-05
7.681e-08
1.047e-06
1.4e-05
2.352e-09
3.578e-06
7.306e-16
0.005694
3.124e-07
4.309e-09
2.357e-09
0.006695
9.718e-05
0.006692
0.0009569
0.0004561
6.961e-07