/*--------------------------------*- C++ -*----------------------------------*\
  =========                 |
  \\      /  F ield         | OpenFOAM: The Open Source CFD Toolbox
   \\    /   O peration     | Website:  https://openfoam.org
    \\  /    A nd           | Version:  8
     \\/     M anipulation  |
\*---------------------------------------------------------------------------*/
FoamFile
{
    version     2.0;
    format      ascii;
    class       volScalarField;
    location    "5";
    object      omega;
}
// * * * * * * * * * * * * * * * * * * * * * * * * * * * * * * * * * * * * * //

dimensions      [0 0 -1 0 0 0 0];

internalField   nonuniform List<scalar> 
127143
(
1.528e+08
2.873e+08
3.278e+08
1.398e+08
1.173e+07
1.415e+08
4.635e+06
8.099e+06
1.294e+07
1.888e+06
6.817e+06
1.065e+07
3.857e+08
1.183e+08
2356
3.152e+05
3.958e+07
13.28
8.734
1.256e+05
23.77
2.853e+05
0.08264
374.7
3.073e+05
4454
2.311e+04
2.281e+04
1.552e+04
13.5
903.3
5022
2.511e+04
3461
0.04161
2.44e+04
102.5
80.96
254.1
8007
8.791
0.4299
0.3075
5.491e+07
12.86
2642
1.436e+04
24.29
385.8
302.4
1.982e+05
0.0252
34.81
0.1449
0.02092
1128
0.0209
0.6552
0.02209
0.1441
0.3008
9.194
105.8
0.02211
1167
0.4364
0.04345
119.5
117.9
0.08315
499.8
1.556e+04
12.74
0.02209
0.02179
1.58e+04
0.02272
57.63
1071
0.02222
1.569e+04
1.118e+05
978.9
4513
15.34
45.43
190.4
1.621e+04
0.3534
1308
0.02208
9.989
719.9
23.42
114.2
0.4002
0.3931
1458
26.38
0.04304
0.02221
354.1
6004
12.51
42.02
27.86
138.4
0.08349
2.227
0.02132
1908
2.003e+04
45.48
10.35
0.02174
5.267
0.02293
0.02179
0.02263
1.152e+06
0.02134
963.6
134.5
0.1768
1.493e+04
9091
11.38
0.02323
84.34
1361
92.03
129.6
68.65
55.58
4.474e+06
85.93
0.0475
16.37
1.302e+04
0.04156
0.1181
0.02226
29.17
17.52
34.92
113.5
6.713e+04
0.02213
141.6
9319
22.72
349.4
98.01
0.06745
282.3
14.98
0.6541
1814
23.48
1738
507
3.737e+05
0.02209
90.87
3849
876.5
140.7
0.5033
2419
0.02579
3280
17.31
8.473
62.85
0.2729
89.18
68.77
83.37
294.7
0.03164
62.44
0.03319
73.13
85.69
1276
9.022
0.08009
10.01
319.7
0.03104
42.78
112.8
0.04411
260.1
8.206e+06
11.02
0.01939
0.01934
8.832e+05
0.02177
0.02169
0.02591
3.261
87.54
4.437e+07
159.4
0.04789
43.83
13.52
0.02174
0.4734
19.84
0.02164
2329
175.9
9.14e+05
1.032e+04
47.3
68.78
0.04813
42.3
0.02184
361.6
41.32
2279
3610
2405
87.45
1066
16.21
26.25
0.03297
12.23
7.872e+05
25.76
0.08782
90.84
1.793e+07
0.02169
32.71
103
626.9
41.44
1696
129
9.128e+05
231.4
2.236e+04
6.814e+05
0.1008
4.163
3437
64.15
16.84
594.5
2.622
0.0232
1855
20.92
0.05119
11.3
0.02653
6.372
0.02221
107.5
745.2
455.3
589.6
0.6108
35.51
2083
0.2697
17.42
33.54
73.18
40.25
44.09
260.8
0.5162
14.47
0.07295
0.8416
12.2
0.02175
0.02173
7.561e+06
104
0.02174
267.8
0.033
97.89
0.2175
0.08728
13.06
0.02166
8.145
689.8
468.3
41.57
30.88
1174
0.4096
0.2749
4.283
2734
125.9
43.09
0.02165
13.25
42.88
150.7
3420
1259
0.05719
0.02172
657.3
57.87
1265
0.2459
2.287
0.07761
634.1
0.02785
64.67
687.4
65.73
0.03079
150.2
574.1
38.23
12.04
0.02173
0.04123
0.01941
0.01935
0.06605
2.206
8.42
12.08
126
0.04099
47.38
35.15
37.65
11.64
273.1
440.9
65
1020
123.4
858.5
8.171
103.9
39.3
0.0276
359.6
17.06
81.09
0.0232
577.8
13.34
93.61
19.48
299.2
285.5
0.02192
0.02177
1.447
1118
0.5147
0.9906
0.02799
2154
325.2
0.02953
0.06309
543.3
6.186e+05
22.95
0.5421
29.22
5623
789.6
0.4078
0.02285
4.987e+04
0.03513
6718
11.44
39.74
0.0218
0.1831
1764
629.5
330.2
855.9
0.1867
727.2
0.02753
0.02616
4217
0.02184
21.96
65.52
0.03601
34.39
35.79
67.52
0.02222
258.8
60.18
1193
0.1187
20.15
107.1
107.2
37.79
2848
106.4
516
129.4
1.886e+04
242.4
0.07605
16.84
0.05787
0.2691
0.0795
509.5
0.05574
0.02115
241.6
130.2
8.147
160.5
0.02192
45.84
355
0.02489
0.02166
0.02172
259.1
0.04818
3.547
0.02374
1276
0.02172
672.5
1.543
19.76
24.27
582.7
29.68
1387
0.03557
74.07
1404
398.7
57.86
55.01
59.38
65.7
18.91
2.68
63.14
0.2029
0.02195
23.48
561.2
0.02078
19.05
3.777
0.1773
62.39
0.04255
0.02028
214.5
2.767
1325
58.61
1.852e+04
595.3
309.6
1238
29.61
157.9
75.12
0.02163
1274
0.02227
414.4
173.3
38.36
123.3
1.384e+07
113.7
2.365
0.1099
4.272
0.02166
1.929e+04
0.02197
65
10.68
2.017e+07
1.01e+06
3.276e+06
0.02194
338.9
310.9
0.02172
11.59
183.9
99.02
15.52
25.46
604.8
18.77
1.25e+04
0.1714
23.5
6.654e+05
673.3
1069
2672
0.02198
20.86
2.146
20.38
0.02206
1775
9687
1684
0.01964
23.71
0.09345
6351
45.26
4436
17.05
0.02237
497.9
31.45
0.02081
0.4107
84.03
570.8
287.5
675
1549
11.16
81.08
387.6
95.92
216.7
0.02189
5363
73.72
1399
82.23
34.03
0.02212
0.02207
0.04901
482.4
8.386
0.02172
0.02925
12.89
1314
37.12
30.65
2714
1.209e+04
6.317
0.02235
0.02134
1621
24.01
116.9
0.03153
1.482e+04
62.54
182.9
0.5335
2591
0.02172
32.58
42.83
31.44
0.02715
508
11.28
8.1e+04
0.02026
131.5
9914
0.02171
34.15
0.02174
191
60.4
0.02175
800
495.6
1849
85.79
34.32
776.7
731.8
54.52
225.2
575.2
293
134.2
61.73
1767
0.02666
965.5
0.02173
7.227
0.02348
30.24
0.02116
0.02174
1.076
499.3
38.77
0.02135
0.02115
903.6
7626
675.7
1145
10.84
3.265
23.91
67.63
36.47
360.5
1440
0.02137
246.5
33.04
0.8838
24.51
0.02219
0.0292
74.66
8392
74.61
4.299e+04
0.02343
0.03826
126.8
277.4
0.02567
1095
0.1199
0.08363
693.2
20.34
31.85
0.09028
3.463e+07
3029
55.4
75.02
100.7
148.3
1799
362.8
0.02432
70.3
621.4
21.08
0.02121
244.2
0.289
0.178
0.01963
0.02119
4.442e+04
0.1106
611.4
113
338.6
13.29
0.607
1721
0.07969
611.6
0.02162
0.02089
6.291
0.0597
854.1
0.1746
3702
10.33
825.3
0.2207
20.11
0.03654
1312
0.04278
622.1
4.85e+06
71.46
122.6
21.45
0.02862
99.58
281
3.515e+04
10.15
15.55
36.31
7420
38.85
778.5
8.06
466.9
116.5
42.1
11.13
0.2729
7.471e+07
0.2876
0.02559
185.1
207.8
171.1
0.02154
174.3
8.253
36.46
0.04105
4.6e+04
206.8
2667
0.04612
429.9
131.1
326.5
135
0.03861
23.91
2516
820.7
17.71
0.02179
35.85
309.5
0.0218
46.06
1.605
133.6
111.6
0.3436
72.47
5371
357.8
0.01934
24.23
9.357
4909
996.5
0.1611
11.31
1283
0.01938
91.4
680.5
51.39
5.467e+05
54.46
1533
36.35
34.6
8.49
0.02193
5.587e+07
87.82
76.85
3684
41.36
390.3
177
401.9
0.02132
8.734
12.98
0.03859
237.3
404.9
141.1
130.8
0.02048
22.31
107.1
0.02163
0.02042
24.63
9.353
10.82
388.4
32.1
1.967e+05
19.88
0.1565
0.02123
44.02
118.6
770.9
2063
0.4419
0.05517
0.0219
2.248
1.772e+04
0.02125
0.1642
5178
102.8
4948
0.02637
31.09
106.2
0.0218
974.7
0.0212
308.4
1.863e+04
223.8
147.6
1.279e+04
0.0219
758.3
0.1003
1575
1259
1806
1.126e+04
0.16
0.9233
1.272
8e+04
0.02178
77.54
1048
1003
661.5
1.525e+04
0.05298
0.4618
1682
8257
4.348e+04
372.9
1.39e+06
622.9
2.557e+05
125.5
2972
8.84
3.429e+04
0.02268
164.3
0.02727
0.02644
25.19
0.02523
77.04
13.35
8.353
3.084
0.03603
911.2
203
0.0218
12.82
87.81
0.03485
894.3
1.514e+05
41.86
42.15
1946
21.29
606.9
0.02169
38.33
607.4
0.02303
670.3
73.13
8.826
0.02069
2.479
19.9
4.518e+05
12.15
1.531e+05
17.95
97.12
159.6
1.505e+04
362.4
0.02359
1.005e+04
0.2673
0.02429
5.483
4.851e+05
35.65
716.6
21.54
8.582
2.94e+04
2.333e+05
380
0.02232
0.02183
41.76
16.99
157.9
676.5
47.05
5385
129.2
0.06256
5544
0.04351
7533
0.0216
25.78
3040
17.88
228.5
24.23
0.02177
0.02181
2513
0.1474
326.2
365.3
848.9
15.02
106.7
222.5
232.4
6.158e+04
30.1
1039
858.2
31.79
13.66
241.1
343.1
6093
1.783e+05
25.76
0.02154
0.02139
19.6
45.33
1.357
0.0208
78.84
24.23
1.299
615.1
92.79
452.9
2.119
0.02223
0.2855
1.387
1.449e+04
2711
141.4
0.2431
71.16
1027
353.6
55.15
9.324
146.7
185.5
141
6195
0.0228
1.744e+04
1.811e+04
9.178
75.47
2415
0.02174
4.593e+04
7.034e+04
0.02194
0.02154
42.44
33.09
6.497e+05
713.5
158
846.9
732.1
0.3549
0.6853
0.02255
911.4
19.26
391.9
8.768
7805
61.56
0.02897
4.612e+04
218.5
0.02172
280.1
0.02564
0.02164
50.84
0.08944
4.653e+04
0.02157
965.6
0.02181
498.6
0.0762
12.26
17.92
914.2
503.9
828.1
78.93
0.05485
0.03643
18.3
283.4
414.8
529.6
1.474e+04
873
7.036e+04
97.3
699
687
485.8
5164
0.1147
9.145
0.04441
489.3
312.3
2447
0.06551
1261
13.44
126.3
210.8
46.21
2.39
1423
10.27
125.9
428.2
1383
1325
0.02109
46.13
488.1
0.02179
241.6
868.7
0.02066
5.984
618.9
0.03444
0.1197
28.37
114.9
0.1542
0.01976
229.7
270.3
0.02161
0.08984
0.02919
24.02
331.3
27.15
0.03323
3026
1.393e+05
890.9
364.7
14.47
3.439e+04
0.07777
202.1
0.02176
48.79
31.11
180.6
212.1
3972
9824
0.02196
6.662e+05
1979
1379
91.32
1590
9.725
10.36
3137
120.7
0.03196
1.342e+06
69.76
400.4
1666
255
423.8
102.2
7458
154.7
130.8
147.1
602.2
423
32.28
1.237e+05
0.1043
208.5
0.09076
992.7
0.01969
0.02165
65.24
4.436e+04
28.48
1.366
5.257e+04
1516
0.02179
6638
154.1
131
1.543e+05
6.46
140.1
1.349e+07
13.2
1.137e+04
14.11
125.1
5102
408.9
1666
32.47
320.5
0.07851
18.39
35.68
162.1
28.15
141.5
10.97
3.028e+04
20.28
0.2701
15.12
0.4054
0.4607
32.89
1.178e+05
0.03543
1.049e+04
3085
184.8
84.68
0.0218
11.65
54.04
0.8851
5051
1519
2498
0.02135
615
3170
41.86
4.489e+04
136.7
8.732
1078
0.02188
1419
132.4
1.392e+04
161.1
0.06756
15.52
0.02169
1.649e+05
5.217e+04
67.38
0.9033
24.6
0.02085
0.01977
856.7
24.45
7.974
0.06346
0.05098
0.05229
4.363
44.6
12.49
269.1
322.2
5.354e+04
1.247
1940
202.3
323.6
0.0198
845.8
13.01
144.5
6.637e+04
82.75
9.071
133.7
92.91
28.74
2.07e+05
28.59
61.56
11.83
9.408
11.51
312.5
1.718e+05
0.1033
2614
0.02118
385
2018
0.0203
4672
78.14
102.2
628.2
0.02138
1.104
4.349e+05
0.02174
290.3
811
128.5
1.776e+04
1.203
11.83
1470
4558
94.75
217.4
0.04901
180.7
1.208e+04
1.763e+04
386.2
87.56
0.02169
235
8.592
1693
416.8
9.417
92.84
0.02165
7.267
315
0.02211
10.24
0.02269
6670
10.63
3.675e+04
239.7
41.62
1046
39.32
218.8
769.7
3.406e+05
93.96
208.3
41.42
26.19
16.95
0.02211
138.6
0.02206
12.65
0.022
13.68
0.02147
326.9
175.5
0.02066
0.02161
953.6
0.1259
1355
0.08681
0.02002
26.64
44.78
0.03077
3.475e+06
5145
3.608e+05
226.9
74.14
390.9
250.8
59.17
1.703
8376
31.04
2221
693.1
59
69.17
7.914
0.02155
3.379e+05
66.87
6905
0.02178
6.054e+04
435.1
445.8
238.5
0.01973
0.01971
13.05
31.59
6.32
10.46
110.5
1.627
0.7445
2.73
11.15
3586
82.29
0.8973
30.74
11.64
1288
1024
146.4
437.6
20.33
0.02188
287.3
369.9
1.806e+04
32.83
0.03465
144.8
1.3
187.9
117.4
1860
16.55
0.02174
33.96
104.2
8.551e+04
1.743e+04
1.386
86.5
1721
0.1081
0.01972
2455
499.6
3.128e+05
0.04989
1.252e+05
166.6
0.02152
190.5
2019
9.989
0.09356
14.95
1316
103.6
90.45
35.65
3294
0.03987
784.3
1693
1095
0.0571
0.05695
538.1
14.87
3.019e+05
192
1389
1730
3.397e+05
1.502
460.7
0.02452
0.02175
0.0215
20.52
0.02308
9.468e+04
0.02173
1.181e+04
0.2582
109.5
193.7
1020
0.09473
3.236e+04
0.2486
765.2
21.01
1.538e+04
0.02166
151.8
934.4
17.79
1.577e+04
2948
36.83
2261
5003
0.04486
0.0206
1.446e+04
0.07273
0.01996
0.2771
1.278e+04
0.0206
4763
0.02184
29.66
147
13.52
268
0.02091
27.97
775.9
99.95
0.05608
30.79
0.1447
0.02173
0.02122
40.38
6.15e+05
73.04
141
0.0239
4.004e+04
0.4146
0.07073
0.06052
3.152
210
833.9
0.0247
475.7
0.02222
42.89
0.02217
0.2253
306.3
46.28
5.908
1441
221.1
0.02119
58.99
3107
611
5.53e+04
1795
8.934
0.03319
9.613
5.404e+04
41.08
842.3
3.801e+04
0.07542
0.1119
0.02159
123.5
295
84.06
0.0218
846.3
0.02175
0.2065
218.2
0.02136
8.63
0.8765
101
15.1
1.069
427.9
0.0219
651.7
7907
11.8
8.402
233.2
0.03924
144.2
96.22
4800
200.5
92.76
1016
70.76
147.4
1.244e+04
0.06441
0.1213
226.8
0.03341
309.6
28.05
0.08201
123.4
0.02391
0.3666
6337
19.4
124.1
165.2
5.805e+04
102.8
1.793e+04
2.506
0.02066
1.8e+04
205.8
0.09427
451.8
0.0273
41.29
0.02223
10.07
1.105e+04
13.74
35.46
125
210.9
0.02187
108.6
0.241
23.72
1872
0.02475
133.5
3403
0.02159
0.02498
141.5
0.07334
85.03
8.65
5.162
84.51
1.581
23.77
0.07053
2.552
77.38
0.02109
0.1448
1531
5.915e+04
0.02086
487.5
1.689e+04
12.64
549.8
10.5
197.3
5.757e+04
0.058
0.1118
216.4
0.02486
1267
44.02
29.49
6683
221.8
0.02437
208.8
8.88e+05
3.328e+06
179.2
252.8
218.9
2.195
19.53
27.12
34.74
1634
683.6
788.6
476.3
2.791e+04
29.46
5.056
0.0217
1926
5.018
49.64
0.1477
0.03807
219.5
191.1
8.407
0.02035
880.8
1785
124.8
422.9
16.84
6.264e+04
442.8
0.02611
284.7
2.313e+04
25.63
162.2
1.029e+05
0.01939
8213
2416
208
0.02756
28.94
12.78
1336
368.1
16.47
1993
0.03325
4.469
262.9
0.04848
13.26
0.02167
624.9
6673
186.7
2576
3.716e+04
33.27
2.155e+04
0.1087
2261
23.54
9.729
0.03434
9.606
61.28
23.43
153
0.06579
170
2.349e+05
6.28e+04
111.9
61.84
0.7234
0.701
0.02186
0.02531
80.1
0.422
0.02165
119
166.3
330.1
365
35.42
350.8
42.29
4878
6.685e+04
7.257e+04
0.08525
155
1.833e+05
10.61
6935
10.13
34.02
60.09
2.326e+06
21.6
31.28
0.04325
0.04894
1161
151.8
0.02173
0.02196
13.45
2004
17.24
167.6
3.851e+04
17.47
0.02367
1592
10.13
210.3
4991
0.9988
7.442
34.65
114.2
2.214
112
0.02188
1908
8.887
1454
17.68
295.1
8023
8.644
1650
58.12
1617
178.8
6840
0.07319
12.64
75.72
36.38
811.5
241.9
1.336e+04
980.6
0.02165
316.9
10.28
1129
120.8
0.2677
16.8
0.07343
6650
0.04854
206.7
34.5
117
11.91
17.52
0.4581
6.426e+04
0.2178
0.02443
2076
0.02091
22.19
0.0304
2.708
10.47
0.02151
0.3692
280.5
4706
0.02176
0.02298
11.08
42.26
302.7
0.1687
55.58
90.78
1747
718
30.57
133.4
125.2
0.09031
144
6.626e+04
9.051
4489
574.8
9.611
5.701e+04
0.02173
0.0206
1.485
7.4
3.695e+05
0.0218
11.95
1662
3.355e+05
745.4
1004
0.01981
0.01952
488.7
125.4
97.47
213.1
0.03142
36.95
5.088
0.02222
1567
269.4
129.4
59.91
5911
7.606
9.152
0.01977
28.38
344.8
1452
796.5
102.6
1.719e+04
1440
50.64
152.2
467.2
121
0.06551
161.3
1.198e+04
0.02795
0.02645
602.8
294.1
1.381e+04
1.692
1349
157.1
0.1408
0.02173
22.65
0.02211
34.32
3.868e+04
38.73
0.1202
144.3
0.04335
2.437e+04
711.4
0.06562
33.44
30.51
141.6
36.77
194.7
135.9
66.63
40.66
64.84
38.92
12.94
2954
199.5
70.92
363.7
2.072e+04
219.9
1272
1350
3.168
2.144
51.64
2.102e+04
0.6929
190.1
0.02223
17.26
0.02214
186.7
8.36
2.139e+04
314.6
0.0787
3080
2.149e+05
2484
34.01
109.2
1561
5340
0.266
39.93
58.12
1.375e+05
145.5
62.87
0.2818
0.2849
0.02174
19.67
1.711e+04
15.78
4195
12.24
0.07044
4129
0.01971
51.48
0.8796
18.59
2756
0.2112
8.373
8.493
0.03587
461.3
52.92
7.103e+04
2605
157.8
0.0214
69.13
120
1.174e+04
1295
66.57
7.884
72.76
0.02171
416.4
1411
12.88
84.03
31.84
5257
1057
726.3
99.43
0.5848
1.441
2.747e+04
9.304
0.061
9.239e+04
0.06764
13.16
0.02174
0.02199
112
0.02187
1839
145
29.03
18.41
1025
4562
158.1
1882
146.2
16.92
5.936e+05
37.69
114
2.243
2.315e+05
11.21
1.873e+04
2.283e+04
0.04314
1710
1014
12.9
13.85
1.227e+04
735.9
2928
25.21
42.55
0.02591
8.436
0.02206
1.184
13.37
1188
74.39
57.37
3.792e+04
14.73
0.02185
418.8
51.1
22.29
87.03
50
209.3
876.4
3027
1.612e+04
470.8
271.3
1920
105.3
401.6
0.06411
2.896e+05
362.4
124.5
1.748
0.02157
275
483.3
19.6
12.56
1.74e+04
1406
323.5
79.22
54.89
4311
0.02162
1.622e+04
9.343
0.03468
87.75
860.7
0.02166
273.9
13.74
44.92
2.272e+04
36.7
88.68
2.325e+05
46.88
245
0.01966
0.01961
236.6
107.2
11.28
679.1
150
0.02151
5990
1463
30.48
0.02173
0.02185
35.52
54.48
246.4
7.852e+05
1004
0.02834
821.4
7.169e+04
0.07921
760.7
389.2
0.1055
2.633
3131
35.69
59.36
0.01964
0.0195
0.01946
0.02019
0.07745
34.42
51.87
1113
19.67
492.4
32.19
1987
0.0208
104.8
72.1
7293
1605
9056
455
101.7
359.9
26.19
176.7
0.08947
132
4.4e+05
308.7
6835
0.27
356.1
0.02173
2.413e+05
99.31
462.4
16.83
0.03018
6.595e+04
0.02179
104.4
1129
0.04251
134.6
132.8
15.01
216.7
1.433e+04
0.03778
1233
0.02066
5.226
120.6
440.1
18.8
182.8
0.0215
0.0217
0.1555
1604
1713
0.2463
17.69
154.2
9.982
6716
387.3
14.79
9.833
30.54
81.47
0.1614
1.108e+05
0.2353
0.02173
1.538e+04
0.02171
0.02165
0.3332
0.1083
1.21e+04
16.87
2174
36.44
418.7
0.02187
0.08353
715
234.2
13.67
0.05589
0.1992
5.187e+04
7093
0.02213
1.334e+04
8810
3.719e+05
0.0682
12.53
15.93
0.07413
0.02327
12.15
237
4.72e+04
0.0671
841.9
2.548e+06
0.02174
471.4
3142
145.8
0.02178
1069
8.943e+04
1.47e+05
7.861e+04
0.8614
141.1
7.952e+04
0.04484
128.2
0.02153
16.67
1266
8.238
601.1
7.615e+04
0.1905
251.6
196.4
0.02225
0.02865
625.2
1628
10.43
1.587e+04
116.3
3.889
12.32
26.47
604.7
84.48
0.02175
43.5
36.77
238.9
654.9
371.5
587.2
585.3
1.003e+05
1.151e+05
1.426e+06
657.7
0.04508
1790
0.02438
1383
2637
0.02175
7.412e+05
0.02221
307.9
1.79e+04
4188
131.2
248.8
819
738.3
0.01963
6.548e+05
199.9
0.05758
11.55
206.7
1.142e+05
1.995e+04
2.295e+05
10.76
621.7
6416
15.67
0.06526
121.5
1.303e+04
0.02088
74.71
98.55
410.8
84.1
52.54
10.89
6139
159.8
219.4
1.825e+04
0.06389
3957
0.07485
92.26
371.2
0.02318
0.07352
80.27
964.7
377.8
9.635e+04
0.05553
0.02171
13.56
269.8
4750
42.89
7.895
0.01962
0.0281
1530
0.01995
563.8
522.5
0.0633
180.1
73.48
2.73e+04
1.027e+05
6.038e+04
0.03211
780.6
136.5
178.6
12.58
9.056
2.376e+04
15.67
1776
286.9
1.226e+04
212.5
6.163
4.916e+04
29.82
110.3
26.08
0.0511
94.76
0.167
0.02183
55.08
552.8
83.22
213.4
73.48
1.881e+05
2.948e+05
10.35
2.179e+06
0.2778
0.4581
0.03017
0.04529
90.19
0.02221
778.4
8.62e+04
708.3
7486
47.03
44.26
322.7
107.1
13.28
829.8
16.83
8664
200.1
0.0258
222.2
113.7
0.02204
0.03501
2622
0.02185
226.8
253.4
282.2
23.48
4136
0.09652
29.82
0.03535
1012
2.094e+04
1201
100.4
0.02143
688.8
0.02154
0.4449
229.9
44.02
5.727e+04
226.9
770.6
9.608
3769
0.5113
0.205
23.51
571.1
0.02083
15.75
0.02185
1314
2613
276.2
102.6
0.02153
977.3
415.9
109.8
5.814e+04
246.4
3810
0.02279
28.81
11.44
8.645
365.8
49.1
0.07401
2.411
0.112
112.2
121
0.02068
0.02025
0.02204
0.03369
0.1246
5562
759.1
0.02179
240.6
62.94
169.5
0.02194
180.5
0.05805
2617
0.09339
4.34e+05
143.6
3068
0.04309
0.08947
6.113e+04
0.02705
160.4
247.1
389.7
375.1
102.6
0.02181
259.5
789.9
75.74
119.5
38.49
19.44
36.83
133.1
1217
0.0215
16.95
84.65
7253
0.09308
0.02209
427.2
2193
22.66
21.17
33.91
1013
0.03884
52.86
1136
10.88
372.9
87.16
0.02567
17.31
6.327e+04
73.3
333.5
7281
2.469
25.45
0.02166
0.02658
0.1193
0.04592
5.857e+04
172.1
0.02195
0.02237
117.9
3.039e+05
0.02194
28.27
2.156e+04
162.8
19.94
206.7
2682
107.4
34.98
861.5
1.143e+05
3176
0.02184
70.33
47.58
137.3
0.02139
0.5373
252.5
31.77
570.7
7.49e+04
7250
15.57
997.3
1.197e+05
9.652
1078
26.06
3.761
2.217
2452
4.161e+04
0.02157
309.3
137.3
0.02193
7518
16.84
3.015
0.06279
50.9
831.9
397.8
122.8
0.02167
0.02176
12.74
343.2
0.02
21.33
0.02449
2776
10.63
16.04
546.2
2358
19.93
86.76
0.02139
7.324e+04
16.64
4527
561.9
0.06146
721.1
41.05
269.7
5.746e+04
7.927
5.368e+04
0.02075
0.02124
36.3
0.04491
0.02139
1.404e+05
209.2
479.9
6042
94.49
46.27
0.0279
1.362e+05
0.03926
141.8
0.02023
0.08976
124.6
57.16
61.6
44.23
8.864
1466
0.02046
59.73
6676
6768
9182
0.1229
58.48
35.17
0.02195
1494
432.7
0.5772
0.03882
163.7
5.911e+04
0.02189
0.0215
44.43
4189
10.87
2540
0.02206
9049
150.6
142.6
0.02208
0.06266
1137
337.3
3267
25.17
67.82
0.02044
843.3
0.03052
1161
9.584e+04
0.05682
246.8
10.83
1.418e+04
3.742e+04
1871
0.05065
0.02047
57.86
0.1546
0.02163
470.9
241.7
9.857
0.02032
0.06548
0.06453
0.02602
736
86.17
0.02173
845.6
147.3
2224
0.02565
0.02191
0.02162
0.0507
135.7
23.3
708.7
6.074e+04
3.597e+04
135.1
1.171e+05
5074
0.02272
5.176e+04
80.38
5143
8.907
0.1151
2.513
1.217e+04
1201
3450
615.3
0.04768
32.31
518.5
122.4
16.84
0.2132
391.6
0.1067
445.8
0.03596
41.16
42.58
20.76
0.1649
1158
1.127e+05
8123
0.02061
5.889e+04
45.09
0.01994
245
0.02181
2694
93.51
0.118
479.1
535.8
0.0223
3.048
8.266
1.553e+04
0.02231
0.1223
1.586e+04
12.65
0.02157
3789
42
0.03027
0.1155
16.59
185.5
7.109e+04
673.4
91.94
10.53
1673
0.529
0.02169
0.03793
636
122.9
115
0.02207
1.625e+05
227.4
61.66
341.1
45.25
89.23
0.02017
0.05598
740.8
217.6
0.03811
158.4
807.3
9.387
2.206
8.938
9.888
0.03619
8.384
61.02
74.7
41.49
0.02205
1997
0.163
49.61
20.81
8.619
6909
86.37
4.131e+05
16.05
0.3999
0.2404
0.02118
16.98
49.81
4695
1883
222.4
489.1
3827
38.71
0.4038
85.22
685
1.036e+04
37.83
0.03626
1918
1.57
1700
31.07
9.842
32.09
238.4
0.02179
357.6
0.2491
0.02164
1.768
1911
1.31
2.814e+06
720.1
1332
0.02165
38.36
230.1
0.04873
26.18
42.46
4510
529.6
4247
0.02188
129
0.02065
8.574
345.2
708.7
19.64
788.9
2.1e+06
0.02148
0.02174
89.9
187.2
1537
3.949
143.6
879.2
27.84
14.64
0.02179
457
2884
0.06099
34.7
0.02156
172.6
0.04808
74.3
447.7
132.1
0.3199
2888
116.6
0.02507
715.2
161.7
0.4676
0.02146
0.02252
489.4
4648
49.51
8.043
94.63
16.5
186.7
51.27
0.0194
0.1554
0.4495
1.148e+05
3709
2239
0.02134
660.2
150.2
3379
2201
2.486e+04
9.58
31.31
149.4
108.2
800
5333
23.93
0.07342
9.672
0.02997
2.109e+05
0.02234
13.95
571
65.44
14.69
669.6
60.73
1.547e+04
12.84
1081
58.86
12.35
470.8
1.111e+05
33.7
6.219e+04
3.377e+04
0.02175
6.883e+04
254.7
1766
3428
43.34
46.34
384.2
111.6
38.75
0.03511
14.74
17.58
123
33.67
83.11
0.4198
4.929
32.46
7.111e+04
52.74
1.152e+04
122.7
682.7
0.02027
895.5
95.8
5443
11.81
2.312e+04
384.4
339
0.07241
4461
0.06315
19.9
39.68
0.06752
1.573
25.3
52.24
210.7
415
33.48
202.1
46.66
2.273e+04
47.89
3.805e+05
0.03482
53.32
280.7
8.994
0.0395
689.3
0.02173
0.02195
0.02173
64.77
161.7
1353
14.26
0.07632
51.51
0.03734
3.767e+05
3211
6.782e+04
250.6
0.05432
945.3
6920
0.07336
2555
0.02186
38.23
8.587
988.2
36.38
0.02128
0.02138
145.1
9.05
0.0359
7.271e+04
176.9
0.02095
0.0218
91.76
0.03035
750.7
1.263e+04
0.03102
16.68
864.8
555.8
475.2
7.606e+04
35.72
0.1455
69.64
304.1
0.1125
400.8
78.52
1.66
825.2
138.2
2.207e+06
0.02655
143.5
1.167e+04
2024
0.02183
41.09
0.02176
13.84
65.72
99.54
38.43
333.5
107.4
0.1685
2107
3059
1183
1213
1012
71.24
12.05
108.1
362.2
27.67
488.7
0.02223
6.457e+04
2.051e+04
2325
65.66
27.24
2848
723.3
0.2946
0.2713
7.419e+04
185.2
0.05438
0.03168
0.05154
399.1
801.7
32.94
5244
60.01
0.037
172.5
102.2
78.79
481.3
3.924e+05
1349
145.4
629.5
48.38
114.2
3753
73.09
18.66
9.275
2312
38.4
0.2479
65.47
804.6
0.08074
152.6
0.2697
18.13
7.513e+04
1240
0.02204
1011
16.46
2.848e+04
1824
0.02136
0.09458
842.3
0.02845
44
2455
951.9
9.101
0.02174
0.1905
12.4
17.1
0.08032
423.2
0.02077
680.2
27.81
623.8
635.9
83.3
86.9
460.3
928.5
0.1589
114.5
0.02182
1.014e+05
0.03399
0.03084
609
0.02179
28.81
11.13
1.349e+06
0.02196
145.8
214.4
565.6
389.1
0.2567
84.64
38.52
367
3919
40.7
0.06667
0.02195
468.6
698.7
22.11
89.22
1977
4768
0.7711
0.02113
60.69
299.2
1.561e+05
90.61
97.74
0.6194
230.4
0.0215
30.43
9021
1958
0.02197
0.2165
1682
0.01979
118
2271
35.76
0.02195
0.022
8.212
0.02305
0.02013
0.02173
8.263
1446
2158
0.3365
162.2
18.3
16.48
0.02225
19.68
115.3
0.04123
0.6992
1848
13.17
0.02521
3099
58.76
7.877
6.458e+04
7.791e+04
0.02492
151
16.91
582.4
75.58
6719
0.02194
159.6
7.071e+04
11.03
656.1
0.8595
3302
71.27
202
29.2
2.851e+04
0.04946
2.212e+04
45.93
0.0253
0.02854
0.02006
386.8
30.68
4853
344.7
1.124e+05
0.0675
0.01942
205.6
225.2
0.07031
0.02181
1105
10.04
1869
57.01
2943
368.5
146.8
26.73
267.3
0.01972
3.59e+04
220.9
75.71
30.51
0.06187
0.02191
31.33
13.36
457.8
7361
69.02
0.03754
73.32
16.42
0.05691
0.02184
1792
203.3
9526
281.9
33.64
2.76
82.67
20.73
13.61
126.6
0.7781
0.1333
0.02192
88.07
2.854e+04
28.52
0.4282
8384
0.5057
0.02168
21.38
0.02846
0.02203
43.06
0.01936
0.01932
9.249
0.02011
53.95
9.701e+04
592.4
13.22
0.1361
0.02113
0.02197
62.32
217.5
69.2
6.945e+04
17.01
0.03005
10.28
51.07
4330
1.04
0.02198
2.898
93.52
0.02203
0.02136
104.3
245.5
0.04963
0.028
96.35
0.0213
1.631
0.02148
3.923e+05
2.014
1556
9.549
0.0272
0.2971
8.855
26.56
801.4
20.43
105.8
14.17
0.02214
4.835e+04
18.09
225
0.02191
800.9
423.2
135.3
1173
0.2447
549.7
25.55
0.1381
6121
0.02205
8.498e+05
38.94
2.975e+04
0.02197
238.9
0.02174
0.07488
10.15
1.316e+04
14.11
553.9
16.9
0.1142
3472
0.1284
3229
5488
8.107
0.08636
0.05569
627.1
0.02162
7.985
31.34
47.1
40.35
0.02176
1.899e+04
0.03364
413.1
1076
74.97
2002
1.394e+04
22.69
1154
123.1
1.478
21.36
0.4761
0.02172
0.02181
988.6
12.02
2.22e+04
68.98
156.3
0.02179
90.57
0.02179
0.02169
0.03162
423.3
0.103
17.78
0.03493
61.06
0.1842
92.54
290.4
2683
0.02483
469
381.2
128.1
0.1821
25.25
0.02187
114.7
0.4133
110.2
16.29
0.03214
248.9
1.499e+05
592.5
3117
32.14
3.966e+04
1919
3.304
95.8
2733
52.17
1.769e+05
745.1
35.18
86.92
170.4
51.34
2422
706.6
0.03864
29.04
0.09288
571.3
3.333e+04
114.3
3230
949.9
16.21
610.8
0.03333
251.8
52.06
8.163e+04
11.88
0.02228
27.3
25.9
169.7
0.05839
77.94
176
37.85
0.4471
463.1
83.83
1.465e+04
399.4
160.2
30.68
20.55
1676
0.02446
800.8
16.42
0.02354
113.9
115.9
590.7
945.9
283.5
0.02202
943.1
27.44
0.07311
3.031
672.1
2.507e+05
220.5
0.02084
0.02476
0.3806
521.7
92.51
0.0215
3.923
632.3
732.4
1.798e+04
0.02103
261.2
8563
83.24
1.927e+05
141.6
184.3
134.2
36.29
52.19
0.02323
108.1
7467
44.41
315.5
3.972
37.14
0.02161
0.07346
635.7
291
34.92
2458
136.3
0.02171
8630
119.7
0.1563
488
1.652e+04
2.661e+04
0.04214
0.1364
0.02441
131.6
7120
1042
2686
160.7
302.1
0.02181
91.51
5.045
9.14
1.168e+04
0.5935
6.954e+04
63.29
5342
0.03274
201
3512
0.02169
161.2
206.1
201.5
10.53
0.0219
0.02169
0.03826
48.12
0.0217
12.13
2.457e+04
0.1063
22.78
632.8
0.03749
104.1
11.96
0.2713
5030
119.9
2.089e+04
97.09
0.02174
404.3
6120
0.0217
1.386e+04
10.85
151.8
62.16
773.2
37.47
440.7
14.47
12.11
0.02194
13.24
0.02178
0.05435
3007
149
88.17
70.71
1.932
287.8
0.02175
0.01965
0.05084
224.5
66.71
126.8
6.964e+04
17.61
0.7592
530.6
1.099
47.78
0.02135
1687
952.3
20.76
13.7
179.2
173.1
49.76
30.81
1.676
0.02239
153.9
23.63
143.2
4937
6.412e+04
756.7
0.02149
126
33.97
17.92
3.246e+05
0.02165
124
30.97
25.07
139.1
33.58
2.003e+05
133.8
48.93
929.9
8639
29.53
62.13
7229
4.173
0.02168
383.2
23.8
45.48
83.84
18.23
1.907
0.04506
1937
580.3
2477
25.17
1876
564.1
0.02171
356
61.93
105.1
15.05
0.01935
414.5
83.82
70.4
13.06
0.02133
846
13.24
14.46
104.9
202.8
172.1
62.83
740.6
652.9
0.01992
257.1
78.49
231.1
876.1
656.1
67.59
30.71
53.45
8.441
166.9
1419
6.597e+04
1371
552.4
3.756e+04
33.08
0.07574
9.055e+06
503.4
5159
0.03546
4854
4720
392.6
60.83
0.02191
2.359
0.02178
19.99
179.7
15.69
0.8198
14.92
1486
43.45
8.445e+05
15.55
358.2
2411
6.05e+04
877.5
284.6
23.78
0.08738
521.5
14.99
7.68e+04
188.3
0.3831
0.7694
4461
3.192
0.022
0.0217
60.39
96.5
0.03777
0.02017
0.02186
1844
496.5
3.604e+04
0.02155
0.03109
101.6
0.01976
0.0199
886.2
0.05427
154.1
932.8
0.05278
4906
27.69
77.45
7.946
44.46
0.04753
107.7
28.06
2.56e+06
60.4
1204
3267
4012
12.31
0.03102
10.03
1477
0.02171
10.68
362.9
1348
5.204e+04
563.1
61.69
1795
0.02438
390.6
9366
290.2
122.2
146.9
0.07132
63.97
15.16
6414
168.3
215.4
0.04861
2303
1031
0.03574
31.94
0.06669
42.54
0.02587
6268
6.649e+04
0.0275
1678
178
0.1559
1241
116.8
0.0223
2.268e+04
168
229.2
1693
0.03365
14.43
2.027e+05
109.9
1279
16.53
28.01
7.956
32.58
193.9
0.05824
5.749
102.3
172.5
50.49
20.05
84.61
16.94
186.4
944.8
118.1
14.61
2.64
0.0218
0.08947
1341
26.82
0.01936
8.396
71.78
14.56
194.1
115.9
77.01
0.09329
1834
117.6
0.1076
77.53
227.3
0.07323
1628
0.0388
2200
9.258
0.1783
0.06448
10.4
1366
88.91
0.02093
164.1
949.1
308.4
0.1878
0.02187
11.48
587
1876
42.06
91.67
12.86
1702
13.1
33.73
8.96e+04
9.747
4.665
1.813e+05
1238
14.11
19.22
0.02204
4.66e+05
0.02201
48.9
166.1
363.7
405.2
473.5
7.809e+04
9.4
41.93
24.24
1.099e+05
1002
16.17
1.68e+05
2.169e+04
932.5
198
0.1862
1.717
13.22
143.6
0.02187
659.8
8.228e+04
0.04334
127.3
17.25
21.24
998.5
941.2
1.619e+05
4114
254.6
0.01954
0.01933
0.02178
1823
8009
0.3882
0.02158
0.1829
7380
24.29
1.79e+05
238.3
0.02202
1.549e+05
0.01938
5.265
11.9
0.0369
15.46
0.6307
4.298
0.055
1069
27.98
101.5
145.2
9.504e+04
13.94
413.2
248.7
10.96
0.02213
2.541e+04
777.1
679.8
294.8
3292
555.2
372.2
0.05385
37.96
343.5
24.91
668
0.02902
1746
69.37
761.7
28.22
0.208
0.285
0.0218
308.8
68.47
308.5
808.3
11.52
2443
36.69
25.69
11.34
317.9
0.1864
3135
237.3
209.8
38.98
0.06398
24.43
0.0899
109
20.91
272
13.28
602.2
13.55
33.79
682.6
0.2148
6078
48.78
0.5484
0.0876
1.427e+05
528.8
356.5
54.55
2.168e+04
0.02204
2.358e+04
1119
111.8
149.5
194.5
140.6
195.1
21.58
181.8
216.9
421
9375
0.07352
0.02186
0.02172
147.6
521.4
7.842
9.893e+04
353.8
3.481e+04
3619
142.3
6265
7.345e+04
24.42
889.1
1880
35.24
7.657e+04
0.02166
250.1
1201
1171
0.02157
1108
50.32
261.5
452.1
264.7
0.02168
10.82
306.7
2859
0.02089
495.8
10.4
0.1548
1.232e+06
0.03325
10.64
12.37
318.4
484.4
0.4513
34.52
6.572
523.6
1633
330.6
0.0194
16.52
2.629e+06
0.02514
0.02258
5450
3152
100.7
1624
0.06097
28.05
103
109.9
152.8
212.4
0.01999
33.37
9.592
0.1181
0.02198
41.97
0.02119
3.277e+05
31.58
3.671
7.98
5.196e+04
0.02167
360.1
0.02
0.02216
503.6
0.4977
3792
9.071
0.04052
85.21
1178
36.96
48.77
58.05
694
363.9
1521
1157
1596
1.637e+04
3274
99.59
756
380
240.7
0.2325
0.02113
0.02118
1.222e+04
18.43
983.2
1.71e+05
0.02179
846.9
1.103
0.02038
22.8
1.822e+05
8.314
886.9
1.007e+04
0.02206
1696
68.23
24.37
10.09
22.7
4807
309
0.02174
1.858e+05
5044
0.062
0.02328
4401
467.6
1959
924.5
172.2
685.1
0.02169
671.9
0.02118
453.9
941.1
1.648e+05
0.01956
0.01935
0.1498
197.5
0.03063
20.23
6.227
19.42
42.26
144.6
394.9
0.04605
0.02643
7.134e+04
8.261e+04
158.4
1763
0.04609
1065
0.02215
170.6
4813
1890
8482
847.2
852.3
598.7
0.2949
24.08
47.72
0.02498
0.02177
0.02174
14.38
274.8
2376
1.206e+05
432.8
0.02435
1395
2861
788.4
1.31e+05
69.91
2019
899.4
281.9
0.05342
8.651
18.57
1.054
0.08283
2514
42.01
78.03
38.3
1208
0.3448
0.01973
6.957e+04
14.49
11.63
79.21
8.446e+04
18.98
0.02082
338.1
42.28
225.6
23.56
186.1
1351
4.365
266.1
12.5
0.06424
230.6
0.04311
0.07596
1.551
1295
41.69
3115
30.89
85.64
68.78
0.02821
185.1
550.5
0.2294
102.6
5.307
6.933e+04
0.03
0.02359
212.8
195.7
202.2
44.76
7.417
8594
0.0651
0.02183
62.61
7141
0.02448
0.5581
105.2
0.02159
7.408e+04
0.04853
75.6
122.3
170.5
1.62
1199
8485
6.595
0.05975
0.02172
27.35
87.33
229.1
21.07
0.02132
0.02019
0.02173
329.9
244.4
402.7
0.05338
2132
78
872.5
94.16
1799
0.4714
0.03003
1.509e+04
0.02186
2116
46.82
0.02996
167.2
246.7
1234
283.6
387.2
18.93
18.6
0.07055
8453
4462
6874
0.1796
0.7137
0.02168
7.487e+04
0.02159
697.8
6354
0.02211
14.82
129.7
931.8
0.08175
18.58
5.017e+04
23.26
0.02166
22.68
869.2
73.38
230.3
18.49
59.28
5.845e+04
11.5
0.0207
0.02254
4.21e+04
50.64
626.2
8.698
96.4
0.02117
0.02193
7.247
2.727e+05
6439
1097
554.1
2.712
502.1
5837
329.9
590.3
0.02189
1541
8.181
813
27.83
23.85
0.0216
1587
17.5
5.907e+04
6.222e+04
10.15
33.49
4.437
4061
0.02705
9.193
6.198e+04
1380
444.7
7134
2.535e+04
562.3
238.8
0.1103
2527
701.3
2490
89.13
0.02623
4124
2.555e+04
0.02172
511
1.36e+04
1096
2378
59.86
25.41
268.6
81.32
0.0332
170.9
0.02211
186.8
0.09724
5.582e+04
0.1175
1.574e+04
90.29
699.5
17.25
16.04
1619
11.63
298.3
2924
108
68.61
9.166
58.45
201.7
2520
80.05
0.02439
101
47.3
439.2
325
196.1
958.1
79.22
0.02491
90.87
8.855e+04
24.52
12.53
336
0.03906
67.81
0.02156
105.4
2.271e+06
3.325e+05
1494
44.84
77.3
0.021
0.05276
32.23
41.56
124
19.81
0.02181
30
132.7
43.71
119.3
0.02165
2614
5777
2.337e+05
8.813
51.96
183.9