/*--------------------------------*- C++ -*----------------------------------*\
  =========                 |
  \\      /  F ield         | OpenFOAM: The Open Source CFD Toolbox
   \\    /   O peration     | Website:  https://openfoam.org
    \\  /    A nd           | Version:  8
     \\/     M anipulation  |
\*---------------------------------------------------------------------------*/
FoamFile
{
    version     2.0;
    format      ascii;
    class       volScalarField;
    location    "5";
    object      p;
}
// * * * * * * * * * * * * * * * * * * * * * * * * * * * * * * * * * * * * * //

dimensions      [0 2 -2 0 0 0 0];

internalField   nonuniform List<scalar> 
127143
(
-0.1878
-0.2017
-0.19
-0.1897
-0.5767
-0.1896
-0.6331
-0.6122
-0.6095
-0.3458
-0.4587
-0.6358
-0.1795
-0.19
0.5011
-0.1868
-0.193
-0.08099
-0.1942
-0.1932
-0.2624
-0.1802
0.009975
-0.119
-0.1802
-0.04489
-0.3204
-0.3184
0.2239
-0.01673
-0.1795
-0.04371
-0.5151
-0.2659
0.1197
-0.5152
-0.2057
-0.2648
-0.1192
-0.1867
-0.1944
-0.2155
-0.1882
-0.1785
-0.0776
-0.2662
0.2196
-0.2077
-0.03049
-0.1402
-0.1873
0.02763
-0.2796
-0.2164
-0.0008341
0.03543
-0.0007797
-0.1065
-0.008757
-0.2151
0.3758
-0.2166
-0.1521
-0.002121
-0.286
0.1029
-0.1049
-0.1501
-0.1489
-0.0001607
-0.1398
-0.3202
-0.1852
-0.009114
-0.003091
-0.3187
-0.009554
-0.2179
0.03008
0.000472
0.2088
-0.1925
-0.2661
-0.1841
-0.1879
-0.2166
-0.1078
-0.374
0.104
-0.5947
0.003094
-0.229
-0.5647
-0.2624
-0.2704
-0.03768
-0.2114
-0.1528
-0.2304
-0.1022
0.0003813
-0.03216
-0.6002
-0.08243
-0.2165
-0.2302
-0.04679
-3.761e-06
0.2311
0.002097
0.5022
-0.3741
-0.267
0.3166
0.005901
-0.03539
0.0115
-0.002994
-0.009367
-0.1902
0.00213
-0.2631
0.1374
-0.08371
0.2123
-0.06436
-0.2284
-0.03364
-0.2856
0.06702
-0.237
-0.2664
-0.1229
-0.2177
-0.1934
-0.2368
-0.0835
-0.2636
0.3076
-0.1091
0.03531
0.01464
-0.275
-0.2675
-0.2797
-0.4258
0.3498
-0.002085
-0.2666
-0.6369
-0.09453
-0.01635
-0.2674
0.1454
0.446
-0.1876
-0.1075
0.1214
-0.2076
-0.1381
-0.1716
0.2401
0.002956
-0.2365
0.04177
-0.2859
-0.2084
0.2509
-0.4718
0.05645
-0.1805
-0.2674
-0.02793
0.06538
0.0005131
-0.1818
-0.4302
-0.2857
-0.1053
-0.005702
0.06576
-0.004479
-0.1828
-0.1814
0.06836
-0.2159
-0.07569
0.3061
-0.122
-0.02511
-0.2784
-0.2798
-0.08129
-0.006713
-0.1926
-0.2449
0.0001154
-3.968e-05
-0.2043
0.01091
-0.009689
0.06906
0.009713
-0.2058
-0.1889
-0.1708
-0.01177
-0.03241
-0.01519
0.005899
-0.1741
-0.186
0.008402
-0.4747
-0.2385
-0.1926
-0.1818
-0.01662
-0.2616
-0.01327
-0.4139
0.0004627
-0.01355
-0.2795
-0.1466
-0.1813
0.04228
-0.2666
-0.1876
-0.2268
-0.2634
-0.005408
-0.1845
-0.1881
-0.2634
-0.06915
-0.2367
-0.1853
-0.00987
-0.2772
-0.2797
-0.2907
-0.189
0.1188
-0.2779
-0.19
-0.01708
-0.3142
-0.1919
-4.593e-05
-0.3207
-0.09329
0.01467
-0.2664
0.02394
0.2174
-0.03287
-0.5207
0.03759
0.09714
-0.2517
-0.007591
-0.2279
0.01508
-0.2819
-0.2892
-0.224
0.454
0.3387
-0.2677
-0.02154
0.001746
-0.2051
-0.2772
-0.1596
-0.2784
-0.2669
-0.04825
0.002468
0.08023
-0.0001284
-0.03606
-0.08245
0.007663
-0.001074
-0.1959
-0.2503
0.005656
-0.05854
-0.004815
-0.2777
0.01353
-0.06772
-0.01362
0.005832
0.2375
-0.1369
-0.1845
-0.1889
-0.2669
-0.08855
0.06232
0.1722
-0.03471
-0.1516
0.355
-0.03144
0.008609
-0.2348
-0.0986
-0.05563
-0.184
0.02235
-0.0002165
0.0104
-0.5264
-0.2711
-0.09867
-0.2119
0.000202
0.01114
-0.1649
-0.06289
0.014
-0.5232
-0.2737
0.08692
-0.1831
-0.1852
-0.4223
-0.2161
-0.00142
0.1161
9.055e-05
-2.792e-05
0.1456
0.2224
-0.02723
-0.2164
-0.2543
-0.1059
-0.01842
-0.2786
-0.2785
0.4727
-0.05854
-0.2658
-0.2703
-0.08107
-0.2899
-0.08523
-0.2021
-0.1823
-0.2784
0.07532
-0.2641
-0.2664
-0.4029
-0.002374
-0.1845
-0.2024
-0.1506
-0.1809
-0.1621
-0.1345
-0.001346
0.0107
-0.004279
-0.2721
-0.0002684
0.4313
-0.0638
-0.09354
-0.1548
-0.02525
-0.1696
-0.1122
-0.1825
-0.2247
-0.0009576
-0.2253
-0.06357
-0.07334
0.06291
0.01093
-0.1865
0.02715
-0.1856
-0.246
-0.2574
-0.01004
0.2009
-0.1832
0.0289
-0.1222
-0.1586
0.197
-0.1774
0.0766
-0.00662
-0.1636
0.000372
-0.2659
-0.1829
0.02181
-0.07939
-0.2166
-0.1162
0.002342
-0.1054
0.2217
-0.05431
0.03466
-0.2096
0.1399
-0.2705
-0.2485
-0.02053
-0.2705
0.1669
-0.2086
-0.2064
-0.2419
2.709e-05
-0.227
0.03451
-0.1762
0.06622
-0.2906
0.005164
0.001172
-0.2405
-0.1818
-0.1862
-0.3023
-0.001464
-0.0522
-0.2676
0.0267
0.006074
0.005373
-0.1409
-0.08139
0.2216
0.0395
-0.1531
0.01265
0.3937
-0.004087
-0.187
-0.2546
-0.07962
-0.07949
-0.2739
0.127
-0.2023
-0.08137
-0.294
-0.2065
-0.2682
-0.1224
-0.2845
-0.2593
0.3115
-0.2846
0.000666
-0.002837
-0.2708
-0.2597
-0.0004979
-0.2317
-0.2313
-0.08415
-0.2708
-0.01509
0.0002167
0.4739
-0.228
-0.1955
-0.2786
0.291
0.4025
-0.2773
0.02386
0.2227
-0.3015
-0.2767
-0.008774
-0.1378
0.02871
-0.5091
-0.1094
-0.28
-0.4215
-0.1894
-0.2334
0.4082
-0.08909
-0.282
0.00871
0.2874
-0.00373
-0.1884
-0.245
-0.195
-0.2041
-0.179
0.003973
-0.2639
-0.3229
0.01013
-0.2065
0.1396
-0.2205
-0.05535
-0.2547
-0.07715
-0.2317
-0.2728
0.0004803
-0.1847
-0.1802
0.1754
-0.1125
-0.1806
-0.009557
-0.09438
0.008133
-0.2573
0.002814
-0.1406
-0.604
-0.1868
-1.893e-06
-0.2708
-0.05491
-0.1806
0.2421
-0.5212
-0.2476
0.03133
-0.2011
0.1611
-0.0005685
0.06196
-0.2675
-0.134
-0.1633
-0.2597
-0.2168
-0.2456
-0.285
0.1585
-0.2157
-0.2406
-0.01661
-0.1888
-0.2474
-0.05799
-0.09969
-0.1931
0.001935
0.002357
0.09379
-0.2656
-0.2781
0.01136
3.638e-05
0.1545
0.1986
-0.2152
0.2232
-0.2083
-0.2237
0.01306
-0.008187
-0.001715
-0.1902
-0.2383
0.01179
0.0004187
-0.3142
-0.1099
-0.2559
-0.00278
-0.07103
0.01146
-0.2167
-0.1843
-0.2575
4.066e-07
-0.2153
-0.252
0.2367
0.0002123
-0.0472
-0.1812
0.005323
-0.07924
0.009171
-0.1569
-0.277
0.007611
-0.2642
-0.06816
-0.185
-0.2755
-0.2746
-0.08473
-0.07283
0.4857
-0.1213
-0.5527
-0.1842
-0.1838
-0.2822
-0.1267
0.000469
-0.005284
0.008802
0.4676
-0.03615
-0.2746
0.001219
0.005928
-0.1099
0.171
-0.2635
0.000391
-0.001652
-0.1877
-0.4088
-0.2661
-0.1295
-0.1939
0.2216
-0.2536
0.2213
-0.2784
-0.2392
-0.2895
0.0003817
-0.2958
-0.2779
-0.03191
-0.2572
0.003418
2.009e-05
-0.2747
0.3061
-0.278
-0.1817
-0.03524
-1.217e-05
-0.2269
-0.2851
0.06624
-0.2821
-0.02592
0.008838
-0.2341
0.02395
-0.2779
0.1434
-0.1791
-0.1816
-0.2065
-0.2024
-0.2502
-0.277
-0.06961
-0.2764
0.0345
-0.2835
-0.1815
-0.2659
-0.001819
-0.04868
0.121
0.3481
-1.51e-05
-0.001795
-0.1943
-0.0885
-0.02396
-0.2784
0.3159
-0.2335
-0.2442
-0.1477
0.2708
0.03862
-0.008286
0.0009208
-0.3404
0.02672
-0.272
0.3461
0.1792
-0.1992
0.1758
-0.1712
-0.1882
1.66e-05
-0.1748
-0.01715
0.01378
-0.1953
-0.05168
-0.2802
-0.2245
-1.016e-05
-0.09869
-0.129
-0.1939
-0.189
-0.2627
-0.2784
-0.64
-0.2485
0.2852
-0.203
0.02292
-0.09918
-0.09727
-0.228
-0.007305
-0.1863
0.1229
0.05723
0.003759
0.2031
-0.09944
-0.004759
-0.1818
-0.2042
-0.2153
9.927e-06
-0.1817
-0.2416
-0.07623
-2.032e-05
-0.2762
-0.1877
-0.272
-0.2827
-3.479e-05
-0.2169
-0.1805
-0.2561
-0.2676
0.01212
-0.2787
0.4911
-0.01679
-0.02537
0.006673
-0.2771
-0.2337
0.06234
-0.04864
-0.07012
-0.2241
2.125e-05
-0.2169
-0.2098
-0.1679
-0.05241
-0.2196
-0.2063
-0.217
1.52e-05
-0.2206
-0.2338
-0.2777
-0.1874
-0.2775
-0.1871
-0.2699
-0.1872
0.0185
0.003925
-0.1803
-0.2438
-0.2753
-0.1923
-0.2084
-0.2068
-0.2218
-0.1391
-0.00167
-0.2011
-0.07582
4.648e-05
-0.2266
-0.506
-0.05464
0.1292
0.0003077
-0.2535
-0.1817
-0.008503
0.0003024
-0.2564
-0.2152
-0.1941
-0.2045
-0.2158
-0.1917
-0.06828
0.2537
-0.001935
-0.2262
-0.2073
-0.1727
-0.1517
0.2502
0.0002189
-0.009405
0.0125
-0.3236
-0.002002
-0.1595
0.3379
-0.07439
-0.05952
-0.0004919
-0.1845
-0.08079
0.0008799
-0.08142
-0.001192
0.2699
0.502
-0.2787
-0.2801
-0.1897
0.003572
-0.2583
0.1484
-0.1412
-0.1822
-0.06874
-0.4796
-0.2187
-0.01182
0.1916
-0.04912
0.002231
-0.2588
0.09595
-0.4395
-0.1816
-0.0507
0.0002365
-0.08656
-0.19
0.01825
-0.2906
-0.3532
0.4987
-0.3991
-0.3968
-0.2637
-0.1936
-0.1961
-0.1675
-0.001513
-0.06204
3.175e-06
3.688e-06
-0.2743
-0.0415
-0.2795
-0.1707
0.3345
-0.09692
-0.04558
-0.5492
0.009383
-0.00956
-0.2059
-0.2122
-0.0441
-0.2663
-0.2031
-0.1859
-0.007514
0.5005
-0.2676
-0.2031
0.007797
-0.2803
0.01389
-0.00245
-0.2636
-0.2456
-0.2171
-0.0004799
0.0003346
-0.2046
-0.1918
0.128
-0.2034
-0.2382
0.2147
0.0009023
-0.181
-0.29
6.214e-07
0.3165
-0.2226
1.225e-05
0.198
-0.1802
-0.2434
-0.3494
-0.1601
-0.04265
-0.1803
-0.1463
-0.1056
-0.007304
0.005229
-0.01674
0.2499
-0.2151
-0.266
0.1924
0.1857
-0.1801
-0.162
0.1845
-0.1174
-0.2964
-0.004828
-0.21
-0.1858
-0.2698
-0.2505
-0.2372
0.00682
0.01848
-0.1949
0.04975
-0.1965
-0.07187
-0.199
-0.1999
-0.2758
-0.3107
-0.2869
-0.06408
-0.2782
-0.1648
-0.2408
-0.0772
-0.2069
-0.00649
-0.2089
-0.1858
-0.1803
-0.2366
-0.004668
-0.003482
-0.2173
-0.1991
-0.03161
0.000291
0.2434
-0.2537
-0.1179
-0.2051
-0.2752
-0.2291
-0.2884
0.002441
-0.01161
-0.1344
0.1523
-0.1581
-0.1848
0.2283
-0.2576
-0.2737
-0.1224
-0.1405
-0.2017
0.2336
-0.08993
-0.2084
0.1996
-0.004753
-0.2227
-0.1803
-0.2093
-0.2759
0.5001
0.0008446
-0.2609
-0.01584
-0.000121
-0.001909
-0.2804
-0.2634
-0.1804
-0.183
-0.05922
0.1502
-0.2164
-0.01872
-0.05726
0.001853
-0.2188
-0.1861
-0.2172
-0.0003643
-0.1803
-0.2129
-0.000295
-0.0709
-0.1888
0.003926
-0.2773
-0.0001138
0.006839
-0.06522
0.001975
-0.2854
0.003911
-0.08048
-0.001975
-0.5243
-0.006482
-0.203
-0.08502
-0.01522
-0.0568
-0.2323
-0.09076
0.0007801
-0.01055
-0.2699
-0.02753
-0.2058
-0.2211
-0.1746
-0.2199
-0.2282
-0.2756
0.04969
-0.3239
-0.102
-0.07405
0.07271
-0.2065
-0.001278
-0.2712
-0.181
-0.03405
-0.0001647
0.3781
-0.2479
-0.1167
0.05257
-0.2788
-0.06848
-0.269
-0.2482
-0.1161
-0.1851
0.04844
-0.1823
-0.0002589
-0.1502
-0.2721
0.004499
-0.2692
-0.2837
-0.0001512
0.009505
-0.1806
-0.02314
0.05805
-0.267
-0.1852
-0.02902
-3.087e-05
-0.265
-0.2428
-0.009501
0.02182
-0.04894
-0.2521
-0.2585
-0.03138
-0.04515
-0.1802
-0.1802
-0.002432
-0.04771
-0.2255
-0.169
0.0002094
-0.1071
-0.002556
-0.2327
0.286
-0.2731
0.04996
-0.1817
-0.2757
0.002987
-0.1812
-0.2284
-0.2444
-0.1271
-0.5162
-0.2426
-0.192
-0.1493
-0.06673
0.1129
-0.1777
-0.1987
-0.1698
-0.003391
-0.05664
0.3549
-0.1842
-0.2016
-0.03816
-0.2189
-0.2806
-0.07671
-0.1055
-0.2381
-0.2084
-0.08196
-0.0006316
-0.0547
-0.03969
2.562e-06
-0.003607
-0.2724
-0.1801
-0.2126
0.0005281
-0.2691
-0.2009
0.005966
-0.4256
-0.06612
-0.2801
-0.1902
0.07134
-0.2024
-0.18
-0.2024
-0.2067
-0.2209
-0.07697
-0.2839
-0.05942
-0.1316
0.2107
-0.275
-0.06831
-0.1627
-0.2686
-0.2354
0.02602
-0.1568
-0.1987
-0.1804
-0.2019
-0.04087
-0.1917
-0.204
-0.2417
-0.04325
-0.2087
-0.02732
-0.3352
-0.2413
-0.2064
-0.2193
-0.002138
-0.2166
-0.2792
-0.2464
-0.2081
0.01486
-0.1348
0.002233
-0.02016
-0.1804
-0.2666
-0.05078
-0.289
-0.213
-0.1991
-0.01827
-0.1952
-0.2131
-0.4328
-0.2713
0.007731
-0.2582
0.004207
-0.326
-0.005948
-0.2089
-0.01202
0.0357
0.0001879
2.755e-05
-0.1828
-0.1865
-0.2045
-0.1688
-0.0003085
-0.0003158
-0.2775
-0.2483
-0.2411
-0.3058
-0.07721
-0.08931
0.05473
-0.07783
-0.1952
-0.2222
5.796e-05
-0.1759
-0.2304
0.02895
-0.05998
-0.2685
-0.2318
-0.223
-0.1509
-0.2696
0.2757
-0.2218
-0.2604
-0.2008
-0.2386
-0.1208
-0.04838
0.191
-0.1999
-0.1808
0.001784
-0.1275
-0.609
0.0001314
-0.3494
-0.03428
-0.2123
-0.04145
-0.003039
0.09211
-0.1747
0.001108
-0.1606
-0.2298
-0.115
0.4699
-0.008539
-0.09181
-0.1813
0.04489
-0.2217
-0.2749
0.1628
0.0256
-0.1912
-0.4483
-0.3517
-0.2326
-0.004136
-0.3117
-0.2105
-0.1508
-0.4939
-0.2088
-0.2273
-0.002932
-0.05341
-0.217
0.002363
-0.1996
-0.0001345
-0.6316
-0.1962
-0.1839
-0.2108
-0.2792
-0.4103
-0.2662
-0.138
0.08869
-0.407
-0.2494
-0.2297
-0.2772
-0.2663
-0.2053
-0.0009215
-0.1849
0.0001417
-0.23
0.004525
-0.189
-0.003246
-0.3333
-0.2007
-0.0002084
0.006683
-0.1832
-0.1972
-0.2412
0.004293
-3.672e-05
0.2116
-0.257
0.07693
-0.18
-0.2314
-0.1897
-0.06554
-0.09896
-0.08127
-0.02999
-0.185
-0.1936
-0.1767
-0.1841
-0.2111
-0.2822
-0.2778
-0.2827
-0.2035
0.003607
-0.4037
-0.2568
0.1608
0.00445
-0.0646
0.1474
-0.06698
-0.1906
6.193e-05
6.637e-05
-0.136
-0.221
0.01525
-0.2193
-0.07415
0.00399
0.3256
0.0009746
-0.06439
0.0981
-0.3152
-0.02863
-0.2542
-0.1258
-0.2835
-0.2528
-0.01895
-0.06931
-0.2226
-0.01848
-0.1811
-0.1809
-0.0467
-0.2782
-0.02414
0.0244
0.004665
-0.08507
-0.1816
-0.2858
-0.1289
-0.003137
-0.201
0.1127
-0.06785
0.4248
-0.03244
-0.2449
-0.2285
-0.1726
6.235e-05
-0.459
-0.2604
-0.1857
-0.126
-0.2014
-0.1955
-0.004949
-0.2911
-0.1865
-0.2385
-0.1192
-0.2637
-0.1826
-0.06081
-0.2886
-0.1831
0.3147
0.005876
0.3399
-0.2526
-0.1298
-5.978e-05
6.013e-05
-0.1006
-0.3294
-0.5575
-0.4638
-0.1167
-0.1631
-0.4003
-0.001545
-0.2053
-0.02894
-0.008873
-0.004023
-0.2048
-0.000528
0.1194
-0.00412
-0.5568
0.0441
0.2728
-0.3328
-0.1578
-0.0002394
0.5017
-0.2118
0.1098
-0.2402
-0.2664
0.003443
-0.2712
-0.2168
-0.2383
-0.1831
-0.1804
-0.2219
-0.5367
0.1873
-0.03488
-0.0004266
-0.1957
-0.0002887
3.187e-05
0.01582
-0.1804
-0.0004457
-0.1751
0.0008687
-0.2752
-0.2794
-0.2552
0.04868
0.0008124
-0.2127
-0.2648
-0.1845
-0.1215
-0.06645
0.06492
-0.002297
-0.001178
-0.2797
0.5021
0.05986
-0.06441
-0.0391
-0.2091
-0.03255
0.05704
-7.71e-05
0.1017
-0.2246
-0.1391
-0.0427
0.1798
0.02778
-0.2789
0.002838
-0.07658
0.1404
-0.1847
0.2593
0.01257
-0.2574
-0.001824
-0.2785
-0.1188
-0.2145
-0.06461
-0.06539
-0.2257
-0.02084
0.1568
-0.2474
-0.2792
-0.4766
-0.1885
0.0001531
-0.2037
-0.00706
-0.294
-0.01171
-0.2871
0.005842
-0.1849
-0.003402
-0.07994
-0.2215
-0.002266
-0.2161
-0.1302
0.2136
-0.2599
-0.003065
-0.106
-0.001865
0.05238
0.2696
-0.02747
-0.1977
-0.04424
-0.01032
-0.2815
-0.1827
0.3898
0.2125
-0.1891
-0.08214
-0.2727
-0.2849
0.4637
-0.09637
-0.2063
0.1837
0.004234
-0.06729
-0.2502
0.2676
-0.08498
0.04103
-0.0008245
-0.1804
-0.209
-0.2726
-0.212
-0.02971
-0.2085
-0.09018
-0.06257
-0.0004576
-0.08861
-0.03276
-0.06204
-0.08633
0.002103
-0.2767
0.001895
-0.2448
-0.05267
-0.2498
0.2747
-0.01888
-0.03192
0.004822
-0.07064
0.2855
0.211
-0.3601
0.02757
-0.1217
-0.07347
-0.00526
0.02777
-0.1813
0.0001802
-0.2843
0.03247
0.02576
0.2782
-0.05062
-0.1876
0.0003188
-0.2415
-0.2771
-0.0002729
0.1105
-0.4365
-0.2513
5.42e-05
-0.2095
-0.1677
-0.2356
-0.3332
-0.211
-0.1063
-0.2517
0.0001284
-0.0004608
-0.1816
-0.036
-0.2777
0.2932
-0.1928
-0.1671
-0.273
0.03283
-0.2898
-0.1883
-0.3985
-0.184
-0.1814
-0.2697
-0.1139
-0.2025
-0.1031
-0.1873
-0.2517
-0.1833
-0.1809
0.2166
-0.2175
-0.2361
-0.07565
0.01149
-0.5125
-0.1021
-0.2399
-0.1874
-0.09451
-0.01915
-0.1841
-0.2088
-0.0001823
0.06605
-0.06389
-0.2737
-0.2812
-0.2409
-0.03094
-0.003497
0.01322
-0.2664
-0.1802
-0.2663
-0.053
-0.09518
1.412e-05
-0.4222
0.4998
-0.08132
6.426e-06
-0.2082
-0.2073
-0.1193
-0.2754
-0.1869
-0.1112
-0.0002719
0.3014
-0.04295
-0.01542
-0.1913
-0.01224
-0.1067
-0.589
-0.1304
-0.1852
-0.5848
-0.2007
-0.0711
0.0003154
0.07669
0.1304
-0.198
-0.09051
-0.1868
-0.1094
-0.196
-0.1199
-4.663e-05
-0.00581
-0.1462
-0.5522
-0.2063
-0.2744
0.04487
0.1635
0.01194
0.04333
-0.2875
-0.02987
0.004298
-0.09097
-0.1149
-0.09195
-0.1905
-0.01153
0.05425
-0.2714
0.1866
-0.2285
-0.1803
-0.05161
-0.0393
-0.1488
-0.2192
-0.1822
-0.2043
-0.073
-0.1627
-0.1868
-0.1551
-0.1137
-2.415e-05
-0.0787
-0.1864
-0.2034
-0.001991
0.004711
-0.2332
-0.05509
-0.1884
-0.03632
-0.1655
0.4749
-0.001273
-0.1161
-0.1978
-0.1967
-0.07785
-0.2266
0.018
-0.2791
-0.2561
-0.05519
-0.2779
-0.000279
-0.1861
-0.1958
-0.06647
-0.1703
-0.05705
-0.2669
0.0001213
-0.113
-0.2711
-0.2513
-0.118
-0.1803
-0.07314
-0.2138
-0.2176
-0.2248
-0.2706
-0.1943
0.4078
-0.2152
-0.01108
-0.1879
-0.2004
-0.05749
-0.03086
0.0003721
-0.2621
-0.1821
-0.2801
1.324e-05
-0.2009
-0.185
-0.1907
-0.1934
-0.2694
-0.178
-0.239
-0.06426
0.003873
-0.2085
-0.0007002
-0.1988
0.07154
-0.06324
-0.2351
0.002124
-0.06061
-0.1559
-0.1812
-0.00294
-0.03214
-0.1922
-0.1051
-0.3239
0.009491
-0.2777
-0.1891
0.03253
-0.1327
-0.228
-0.3234
-0.2747
-0.07527
-0.09843
-0.1804
-0.2193
-0.6037
-0.1435
-0.2269
-0.03096
0.01036
-0.0004442
0.1532
-0.1497
-0.373
0.006271
-0.2553
-0.2137
-0.5964
-0.2302
-0.01888
-5.602e-06
-9.093e-07
-0.1003
-0.2729
-0.1839
0.445
0.09306
-0.2526
-0.07591
0.002595
-0.1107
0.01008
-0.05841
-0.1844
-0.1289
-0.1048
0.07325
-1.455e-05
-0.07621
0.07354
-0.01749
0.08509
-0.2625
0.3932
-0.183
-0.2792
-0.1436
-0.2722
-0.2634
-0.02355
-0.3645
-0.2039
1.598e-05
2e-06
-0.2183
-0.1974
-0.1598
0.2237
0.2301
-0.2785
0.0004663
-0.002661
0.2338
-0.002291
-0.2565
0.04344
-0.4159
-0.02639
0.03046
0.0005038
0.3705
-0.5132
5.063e-05
-0.07668
-0.04978
-0.0651
-0.1913
0.1534
-0.2594
-0.2756
-0.2706
-0.2145
-0.08886
-0.2187
0.1703
-0.00691
-0.2615
-0.1811
-0.5806
-0.1894
-0.1863
-0.2109
0.2956
0.2232
-0.01702
-0.05114
-0.05944
-0.283
-0.02404
-0.1977
0.001896
-0.06809
-0.2097
-0.05253
-0.2388
0.06873
-0.2441
0.2023
-0.1517
-0.27
-0.0679
-0.1483
-0.3392
-0.0003681
-0.191
-0.1648
-0.2862
-0.2352
-0.2206
-0.1156
-0.01067
0.005676
-0.2703
-0.005803
-0.05589
-0.1817
-0.1917
-0.1768
-0.298
3.992e-06
-0.2738
-0.05433
-0.1862
0.2633
-0.09758
0.0192
-0.2001
-0.0225
0.1833
-0.08839
-0.2689
-0.1983
-0.18
0.002824
-0.2069
-0.1732
-0.194
-0.4953
-0.1146
-0.209
-0.2795
0.0125
-0.01041
0.2527
0.2281
0.2768
-0.2771
-0.2806
-0.1141
0.1542
-0.444
-0.2349
0.4372
-0.1802
-0.204
-0.1653
-0.2129
8.73e-05
-0.2311
0.01057
0.002158
-0.4234
-0.01836
-0.2013
0.05086
-0.2499
-0.2698
-0.08664
-0.2839
-0.2263
0.4265
-0.2387
-0.1883
-0.1881
-0.2586
-0.2341
-0.0001463
-0.192
-0.2461
-0.206
-0.1888
2.674e-05
-0.2394
-0.1185
-0.0594
-0.25
-0.1809
-0.561
-0.222
-0.2418
-0.2593
0.02654
-0.1992
0.00434
0.01479
-0.2478
-0.1805
-0.2897
-0.2811
-0.1713
-0.2299
-0.01268
-0.2733
-0.2432
-0.2434
-0.09294
-0.2629
0.477
-0.05482
0.1777
-0.0701
-0.212
-0.1301
-0.1814
-0.2328
-0.2089
0.171
-0.1889
-0.2794
-0.0783
0.2176
0.002305
-0.3148
-0.2717
-0.2024
-0.05493
-0.07072
-0.2688
-0.4482
-0.2574
-0.2728
-0.6084
0.003525
-0.1855
-0.2236
-0.09524
0.06402
0.07699
-0.01176
-0.2676
-0.2424
0.0538
-0.5575
0.09412
-0.2772
-0.3489
-0.2236
-0.09438
-3.153e-05
2.258e-05
-0.13
-0.2769
0.08058
-0.333
-0.1382
0.003041
-0.2808
-0.01
-0.2757
0.005271
-0.01215
-0.2795
-0.2683
-0.1354
-0.5394
0.03965
-0.0009526
-0.1313
-0.1986
-0.002987
-0.02898
-0.1572
-1.596e-05
-0.04317
-0.2223
-0.2231
-0.1886
-1.676e-05
-7.755e-06
-3.296e-06
-1.064e-05
-0.05627
-0.184
-0.0175
0.1998
-0.06788
-0.1904
-0.2644
-0.2986
1.064e-05
-0.2643
-0.206
-0.1805
-0.2817
-0.1802
-0.1814
-0.08658
-0.07197
-0.2738
-0.1439
-0.04747
-0.08231
0.3804
0.02758
-0.1004
0.3698
0.2712
-0.002759
-0.1926
-0.2401
0.004718
-0.1119
0.06595
0.2017
-0.002925
-0.2042
-0.2808
-0.0004085
-0.2787
-0.215
-0.2597
-0.1866
-0.1909
-0.08965
-0.2239
0.0003862
0.238
-0.1791
-0.212
-0.2095
0.2023
0.004082
-0.01287
-0.2143
-0.1809
-0.2393
-0.03374
-0.2576
-0.2833
-0.04893
0.4587
-0.07162
-0.2501
-0.2015
-0.1841
-0.2214
-0.07443
-0.1647
-0.08886
0.008905
0.1733
-0.005531
0.003343
-0.2173
0.0005439
0.4309
-0.2249
-0.144
-0.2146
-0.02581
0.005063
-0.077
-0.1851
-0.04918
-0.1963
-4.525e-05
0.0147
-0.5986
-0.2845
0.004222
-0.3085
-0.2822
-0.1778
0.0001666
-0.2405
-0.2641
-0.02437
-0.02668
-0.2316
-0.4548
-0.6397
0.13
-0.08534
-0.1801
-0.001067
-0.03447
-0.283
-0.1477
-0.003078
-0.08047
-0.6081
-0.1621
0.01047
-0.0861
-0.281
-0.1699
-0.04969
-0.2191
-0.003664
-0.2556
-0.3268
-0.2136
-0.2615
0.01013
-0.2008
-0.1821
0.1841
0.004183
0.004412
-0.1556
-0.267
-0.2131
-0.1804
-0.2789
-0.06918
-0.2156
-0.2739
-0.1906
-0.2156
0.001044
-0.2805
-0.2795
-0.04504
-0.2198
0.2446
-0.1386
0.4985
-0.2118
-0.2917
-0.177
-0.1263
-0.03567
0.2333
0.05105
-0.07728
0.2117
0.006435
-0.6251
0.001625
-0.2179
-0.2735
-0.1876
-0.1837
-0.4941
-0.2017
0.3405
-1.321e-05
0.4761
-0.2937
0.0002092
-0.2165
-0.1898
0.3806
-0.0995
-0.1957
-0.2436
0.007797
-0.06391
-0.2634
0.1679
-0.0724
-0.3079
0.0009005
-0.2162
-0.08223
-0.1811
-0.1371
-0.1886
-0.1847
-0.09005
-0.05498
0.01276
-0.007452
-0.001481
-0.0865
0.1043
-0.04834
-0.2093
0.003456
-0.1767
-0.05382
-0.2738
-0.2788
-0.212
-0.0002305
0.01029
-0.08644
-0.04727
-0.3491
-0.2059
-0.2094
4.945e-06
-0.06589
-0.03409
6.305e-06
-0.2301
0.0275
-0.01746
-0.2602
-0.1884
-0.1918
-0.2163
-0.09918
0.09477
-0.1207
-0.2081
-0.2794
-0.2284
-0.2322
-0.2657
-0.2083
0.06534
-0.04515
-0.1988
-0.1788
0.01418
0.1429
-0.1845
-0.1442
-0.2728
3.12e-05
-0.05672
-0.1579
0.005532
-0.05312
0.1804
-0.2418
-0.381
-0.1206
-0.199
0.1983
-0.1937
-0.1787
0.0003526
-0.22
0.08344
-0.1122
0.08822
0.002508
0.3181
-0.2385
-0.2146
-0.2239
-0.2433
-0.2741
0.1131
-0.2565
-0.2157
-0.2825
-0.1895
-0.3986
-0.2735
3.684e-05
-0.1969
-0.1787
0.0009295
-0.04194
-0.1267
0.0005589
-0.2897
-0.2609
-0.04317
-0.01734
-0.095
-0.0002382
-0.2282
-0.01544
0.001815
-0.1853
0.1931
-0.05973
-0.002972
0.1429
-0.006975
-0.1183
-0.2284
-0.2557
-0.07625
-0.2572
-0.08767
-0.2303
-0.5161
0.09274
0.0003224
-0.2333
-0.2208
0.0005835
-0.03752
0.005344
-0.1783
-0.2557
-0.4778
-0.2137
-0.0009532
-0.2567
-0.1167
-0.29
-0.1832
-0.285
-0.1867
-0.002978
-0.244
-0.05197
0.008215
-0.2769
-0.1741
-0.05498
-0.2758
-0.03753
0.3539
-0.2937
0.0003986
1.33e-05
-0.02171
-0.06768
0.3239
-0.1804
-0.2407
0.01175
-0.08142
0.2435
-0.08343
-0.002911
-0.1805
-0.1487
-0.1027
-0.0004363
0.423
-0.2774
-0.09656
-1.169e-05
-0.07554
-0.2317
0.02638
-0.1101
0.008118
0.07197
-0.2279
-0.2725
0.001023
-0.1858
-0.2
-0.2835
-0.2074
-0.2792
-0.1035
-0.2167
-0.002046
-0.4965
-0.005232
-0.2558
-0.04292
-0.3715
0.2927
0.00382
-0.308
-0.2757
-0.2407
-0.2622
-0.07134
-0.419
-0.09948
-0.1627
-0.1804
-0.1965
-0.181
-0.2729
3.271e-05
0.2924
-0.04064
-0.1765
-0.1815
-0.2908
0.1579
0.004179
-0.005165
0.03629
-0.09281
2.476e-05
-0.6006
-0.2521
0.004704
-0.02073
-0.1299
-0.1638
0.003363
-0.2118
-0.1899
-0.08384
0.0239
-0.2795
-0.6168
-0.2772
-0.4083
-0.08334
-0.1848
-0.271
0.003489
-0.2458
-0.2736
-0.2509
-0.002208
-0.1237
-0.22
-0.1932
-0.2113
-0.417
0.1597
-0.2
-0.2492
-0.1874
-0.2365
0.2368
-0.2146
0.02855
-0.03656
0.011
-0.1847
-0.003525
-0.2902
-0.1743
0.004754
-0.2727
-0.2309
0.1911
-0.05387
-0.2798
-0.05017
-0.2266
0.1247
-0.01205
0.009902
-0.2016
-0.1817
-0.0001275
-0.2586
0.04996
0.2132
-0.1895
-0.2397
-0.1438
-0.07534
-0.2181
-0.2836
0.002759
-0.2294
-0.3119
-0.5841
-0.09703
-0.1642
-0.4094
-0.2703
-0.2728
0.00083
-0.203
-0.2502
-0.0003381
0.001127
-0.2278
-0.1123
-0.002484
0.1404
-0.129
0.09217
-0.2107
-0.2861
-0.2549
1.65e-06
0.1379
-0.01046
-0.002335
-5.523e-08
-0.1692
-0.185
-0.2097
-0.2544
-0.2786
-0.1976
-0.1887
0.0003532
-0.2618
-0.1913
0.5004
-0.2907
-0.09427
-0.1833
-0.1054
-0.002926
-0.1838
-0.2601
-0.1007
-0.09327
-0.1811
-0.2636
2.14e-05
0.004196
-0.1081
-0.1876
-0.197
-0.5425
-0.002893
-0.184
-0.2419
-0.1693
0.002336
0.02303
-0.09163
0.06032
-0.2253
-0.2475
0.419
9.586e-05
0.06345
5.966e-06
-0.2687
0.05551
0.006726
-0.1879
-0.2314
-0.1811
-0.1945
-0.1841
0.03022
0.000359
-0.2768
-0.02965
-0.006907
-0.2794
-0.408
-0.2403
0.000313
-0.04562
-0.1615
0.0412
0.2467
-0.2218
-0.001854
-0.5696
0.01032
-0.1814
0.00799
-0.001573
-0.008011
-0.009042
-0.2735
-0.2425
-0.08983
-0.04123
-0.1881
-0.0007645
-0.1912
0.01294
0.001043
-0.0112
-0.2779
-0.2049
-0.1968
-0.003701
-0.2505
-0.1806
-0.2795
0.1048
-0.2147
-0.05933
-0.2466
0.13
-0.1546
-0.2779
-0.0992
-0.188
-0.2038
0.06818
-4.514e-06
-0.2619
-0.003733
-0.2647
-0.1936
-0.2808
-0.2788
-0.2791
-0.0004649
0.2326
-0.2629
7.129e-05
-0.4733
-0.002986
-0.2126
-0.2695
0.000573
-0.2857
0.257
0.001012
0.04605
-0.2122
-0.1764
0.03021
0.1942
-0.05144
-0.1044
-0.004279
-0.1592
-0.2071
-0.01606
0.1946
-0.2352
-0.09901
-0.1547
-0.07777
-0.2762
-0.2509
-0.1811
0.3361
0.007812
-0.09123
0.176
-0.1041
-0.2623
0.002613
-0.1973
-0.1189
-0.1465
-0.1811
-0.2326
-0.2809
0.0001205
-0.05716
-0.2236
-0.2505
-0.02179
-0.04726
-0.0266
-0.2269
0.233
0.2304
-0.2151
0.1238
-0.2079
-0.1029
-0.2792
-0.01551
-0.0003384
-0.226
-0.0001703
-0.2079
-0.01649
-0.1462
-0.1925
-0.2508
-0.1373
-0.2614
-0.2378
-0.0005997
-0.001707
-0.07663
-0.1118
-0.1611
-0.3193
-0.2143
-0.03456
0.264
-0.2793
0.09039
-0.2766
-0.1628
-0.04139
-0.2786
-0.104
-0.02961
0.007587
-0.1277
-0.1128
-0.2383
-0.1844
-0.1082
0.003943
-0.1863
-0.1098
-0.00355
-0.1808
-0.03205
0.001753
-0.1804
-0.02124
-0.1873
-0.006219
-0.2782
-0.2676
3.522e-05
-0.2727
-0.2805
-0.1813
-0.2031
-0.2082
0.001961
-0.2841
0.0002979
-0.1466
-0.2725
0.4347
-0.0149
-0.1792
-0.1801
0.001159
-0.003706
-0.01209
0.04394
-0.03712
-0.08622
-0.2954
-0.06345
-0.2613
-0.1996
0.01753
-0.5203
-0.1484
-0.1303
-0.2133
0.003884
0.05597
0.07973
-0.2837
-0.05905
-0.2509
0.001663
0.4451
-0.285
-0.04389
-0.2168
-0.2798
-0.1771
-0.004703
-0.003756
-0.03535
-0.462
-0.06864
-0.2033
-0.2215
0.02302
-0.08485
-0.02813
5.721e-06
0.2872
-0.2406
-0.1198
-0.349
-0.2416
0.00239
-0.1091
-0.1437
-0.1874
-0.1969
-0.06082
0.07183
-0.2786
-0.03654
-0.05639
-0.08521
-0.1604
-0.2049
-6.473e-05
-0.1852
0.0997
-0.1455
0.01304
-0.1901
-0.08929
-0.06717
-0.1992
-0.5199
-0.2703
0.4315
-0.2251
0.172
-0.2728
-0.1086
-0.2829
-0.1191
-0.2077
-0.2591
0.1075
0.008016
-0.2594
-0.5019
0.006452
-0.2708
-0.2797
-0.249
-0.1963
-0.09814
-0.02706
0.007646
-0.265
-0.2162
-0.184
-0.1874
-0.2214
0.1417
-0.1223
-0.2201
-0.2351
-0.2717
0.2757
-0.1082
-0.1132
-0.0001812
-0.2706
-0.2624
-0.2652
-0.2434
-0.1072
-0.2712
-0.1576
-0.01194
-0.2847
0.02013
-0.2631
-0.2587
-0.04108
-0.06199
-0.2367
-0.05894
-0.1831
-0.2053
-0.1534
-0.06444
-0.207
-0.1063
-0.05326
-0.1802
0.1221
-0.2643
-0.1996
-0.2293
-0.1189
-0.5395
0.0101
-0.01836
-0.002515
-0.2088
-0.1015
-0.1802
-0.09838
0.2306
-0.1991
0.1152
-0.1979
-0.01518
-0.2354
-0.1361
-0.1568
-0.1012
0.4573
-0.06588
-0.213
0.001502
-0.2761
-0.1971
-0.1953
-0.2492
-0.002262
0.001799
-0.2685
-0.2088
0.03376
0.003447
-0.0801
-0.0006931
0.006134
-0.1155
0.01727
0.03985
-0.151
-0.0005273
0.03833
-0.2022
-0.4403
-0.2873
0.002828
0.2116
-0.08684
-0.1324
-0.1012
-0.1976
-0.2733
0.06344
0.1388
-0.04729
-0.2189
-0.1802
0.004448
0.02721
-0.1843
-0.5148
-0.003116
-0.2138
0.002875
-0.2613
-0.26
0.06162
-0.2793
-0.1698
0.4921
-0.05573
-0.1395
0.4376
-0.2266
0.04905
-0.1182
-0.2208
-0.249
-0.07445
-0.2747
-0.1956
0.03134
-0.0002402
-0.2464
-0.09859
-0.115
-0.157
-0.003289
0.06592
-0.1854
-0.006327
-0.03891
0.04134
-0.2104
2.74e-05
-1.043e-05
0.0002917
-0.111
-0.5574
-0.2577
-0.2659
-0.2714
3.138e-05
-0.01946
-0.05143
-0.1806
-0.07654
-0.4411
-0.283
-0.1964
-0.5368
-0.2078
-0.2393
0.3121
-0.2096
-0.2686
-0.2228
-0.1136
-0.2064
0.0007523
-0.2041
-0.1318
-0.1372
-0.281
0.145
-0.2491
-0.2405
-0.1959
0.004438
-0.3617
-0.2613
0.02399
-0.1908
-0.002123
-0.04633
-0.07879
-0.06623
-0.2151
0.1614
-0.2918
-0.2222
0.002861
-0.06727
-0.2498
-0.2411
-0.006324
-0.07087
0.0006805
-0.1219
-0.2633
-0.2081
-0.1806
-0.2779
-0.277
-0.0161
-0.3616
0.3145
-0.1584
-0.001003
-0.007409
0.0195
-1.463e-05
-0.1822
0.01325
-0.3918
-0.2071
-0.1805
0.003594
-0.2924
-0.1821
-0.1641
-0.0613
-0.09042
-0.2299
-0.1945
-0.02671
-0.1657
-0.2656
-0.1648
-0.01709
-0.1998
-0.2701
-0.002
-0.1943
-0.2062
-0.1805
0.3618
-0.001611
-0.1862
0.02717
-0.1999
-0.03313
-0.2263
-0.2544
-0.07363
-0.002893
-0.1469
0.3798
-0.1683
0.0025
-0.06306
-0.1916
-3.033e-06
-0.06032
-0.07836
-0.2773
0.00467
0.004226
-0.1994
-0.007621
-0.000121
-0.003834
-0.2078
0.02219
-0.1162
-0.2175
-0.1087
-0.1431
-0.1389
0.001944
-0.227
-0.0121
-0.031
0.01086
-0.1327
-0.124
0.0604
-0.2005
-0.2661
-0.2036
-0.2491
-0.1821
0.05485
-0.1823
-0.2624
-0.2471
-0.2558
-0.1919
-0.002852
-0.2857
-0.2302
0.007919
0.392
-0.08564
-0.1037
-0.2283
-0.0652
-0.07379
0.0672
-0.1484
-0.4309
-0.2736
0.005736
0.08541
6.313e-05
-0.1981
-0.2347
-0.2751
-0.3142
-0.1879
-0.173
1.777e-05
0.03832
-0.2935
-0.0687
-0.007381
-0.1002
-0.2249
-0.2687
-0.2659
0.453
0.1555
0.1272
0.2389
-0.1696
-4.248e-07
-0.1811
-0.2566
-0.2171
-0.06393
-0.1443
-0.01792
-0.2005
-0.2427
-0.0004148
-0.3021
-0.09634
-0.07406
-0.3134
-0.1109
0.2206
0.004212
0.09764
-0.1608
-0.1943
-0.2726
-0.2633
-0.03741
-0.2061
-0.1984
-0.1307
-0.04463
-0.07101
-0.05002
-0.002014
-0.1822
-0.3232
-0.2153
0.08789
-0.5163
0.001857
-0.004152
-0.2559
-0.0008174
0.001015
-0.4155
1.967e-05
-1.327e-05
0.07107
-0.0001103
-0.2246
-0.1902
-0.1586
-0.2365
-0.03816
0.001227
0.004569
-0.269
-0.09615
0.2298
-0.1066
-0.2531
0.0006497
-0.1933
-0.2836
-0.1586
-0.1791
0.003148
0.01075
-0.4162
-0.002909
0.001676
-0.1815
-0.05545
-0.01255
0.01825
-0.2761
-0.002288
-0.001602
0.003362
-0.1879
-0.09327
-0.2055
-0.2042
0.07496
-0.1321
-0.2262
-0.1908
-0.04213
-0.1853
-0.1108
-0.2646
-0.001267
-0.03474
-0.2507
-0.3083
0.0003655
-0.1828
-0.1971
-0.2598
-0.1869
-0.02911
-0.2098
-0.06928
-0.0317
-0.1808
0.004379
-0.6194
0.003642
0.09094
0.003862
-0.4126
0.00915
-0.07912
-0.02827
-0.1804
-0.1901
-0.1818
-0.2292
0.0001989
-0.6461
7.738e-05
-0.1812
-0.252
-0.2117
0.03662
-9.767e-05
-0.488
0.004895
-0.1075
-0.2158
-0.2719
0.02227
0.01522
0.481
-0.01053
-0.1831
-0.2671
-0.278
-0.208
0.3308
-0.2692
-0.5902
-0.1174
0.001583
-0.2194
0.3485
0.009394
0.003375
-0.2837
-0.2126
0.3968
-0.3545
0.4205
0.006005
-0.1465
0.005936
0.01114
0.004026
-0.3077
-0.006346
-0.2498
-9.344e-06
-0.2233
0.006141
-0.2771
-0.1588
-0.4981
-0.03642
-0.2625
0.2937
-0.0569
-0.07474
-0.1882
0.005168
-0.1495
0.001252
-0.2064
0.1158
-0.002944
-0.1153
-0.2946
-0.1843
-0.0933
-0.2247
-0.1198
-0.01955
-0.2566
0.2241
-0.3275
-0.2755
-0.1802
-0.2315
-0.222
-0.2769
-0.2125
-0.2566
-0.181
-0.1727
0.0004774
-0.2752
-0.0002228
0.03796
0.08671
-0.06534
-0.1832
-0.5633
-0.2227
-0.187
2.103e-05
-0.07968
-0.2338
-0.3735
-0.2174
-0.003909
-0.2199
-0.2735
-0.07493
-0.0001046
-0.2781
-0.0795
-0.2302
-0.2342
-0.3299
0.2388
0.3604
-0.215
-0.2711
-0.2695
-0.1871
-0.1945
0.03285
-0.2934
0.1979
0.01444
-0.1976
-0.205
-0.2164
-0.2666
-0.287
0.004475
0.2151
-0.3747
-0.1754
0.19
0.2071
-0.1908
-0.2817
-0.000693
-2.232e-05
-0.2412
-0.2061
-0.0808
0.004208
-0.2647
-0.2039
0.06018
-0.01251
0.001278
-0.1232
-0.1427
-0.2085
-0.2911
-0.2597
-0.2643
-0.1785
-0.1912
-0.2743
0.03991
-0.2266
0.4308
-0.1841
-0.1188
-0.08711
-0.2083
-0.002948
-0.0001234
-0.2148
-0.218
-0.2235
-0.231
-0.2041
0.01001
-0.1838
-0.2786
-0.2134
0.03582
-0.6368
-0.1822
-1.99e-05
-0.03873
0.02644
-0.03987
-0.1866
-0.2625
-0.00786
-0.328
-0.3239
0.00549
-0.277
0.008144
-0.201
-0.1813
0.0009878
-0.2321
-0.2773
-0.01089
0.09706
-0.03321
-0.1319
-0.008294
-0.09142
-0.1945
-0.4661
-0.1932
-0.001705
0.01081
0.0003428
-0.2397
0.009047
-0.2545
-0.1807
0.1177
-0.2311
-0.2196