/*--------------------------------*- C++ -*----------------------------------*\
  =========                 |
  \\      /  F ield         | OpenFOAM: The Open Source CFD Toolbox
   \\    /   O peration     | Website:  https://openfoam.org
    \\  /    A nd           | Version:  8
     \\/     M anipulation  |
\*---------------------------------------------------------------------------*/
FoamFile
{
    version     2.0;
    format      ascii;
    class       surfaceScalarField;
    location    "5";
    object      phi;
}
// * * * * * * * * * * * * * * * * * * * * * * * * * * * * * * * * * * * * * //

dimensions      [0 3 -1 0 0 0 0];

internalField   nonuniform List<scalar> 
189008
(
3.273e-08
-3.273e-08
4.169e-09
-4.169e-09
8.381e-09
-8.381e-09
1.213e-08
-1.213e-08
-1.119e-06
1.119e-06
1.24e-08
-1.24e-08
4.574e-06
-4.574e-06
-1.722e-06
1.722e-06
-1.041e-06
1.041e-06
6.151e-07
-6.152e-07
5.486e-06
-5.486e-06
-2.024e-06
2.024e-06
-4.438e-09
4.438e-09
-1.366e-08
1.366e-08
-6.882e-06
-4.709e-06
1.159e-05
2.889e-06
-3.286e-06
3.973e-07
-2.721e-08
2.721e-08
0.004203
-0.004169
-3.461e-05
-0.001113
0.0005908
0.0005219
-3.442e-06
3.695e-06
-2.532e-07
0.0004812
-0.0004043
-7.695e-05
-2.037e-08
6.642e-09
1.373e-08
-0.003234
0.01032
-0.007082
1.235e-05
0.0002795
-0.0002919
-1.653e-08
-3.837e-09
-0.0001335
7.575e-05
5.773e-05
-1.04e-05
1.145e-05
-1.043e-06
-1.147e-05
1.063e-06
0.0001025
-8.038e-05
-2.209e-05
0.007092
-0.01633
0.00924
-2.472e-05
-0.0001138
0.0001385
-3.564e-05
-9.784e-05
2.391e-05
-1.656e-05
-7.341e-06
-2.729e-05
1.648e-05
1.081e-05
0.01138
0.01084
-0.02222
6.852e-06
1.705e-05
2.934e-05
0.0001805
-0.0002099
-0.0009512
0.001391
-0.0004399
-2.742e-05
0.0003482
-0.0003207
-2.601e-05
2.959e-05
-3.575e-06
-0.0007768
-0.000336
0.001971
-0.0038
0.001829
0.0005515
-0.004553
0.004002
1.27e-08
-1.27e-08
0.001749
0.002454
-1.445e-05
-1.284e-05
6.812e-05
3.436e-05
-0.0003832
0.0003955
-1.237e-05
-0.0004842
0.0005812
-9.694e-05
-1.789e-05
0.0002783
-0.0002604
1.005e-06
1.884e-06
-0.01407
-0.03037
0.04444
-3.253e-05
-2.746e-05
6e-05
-0.01285
0.01138
0.001475
1.083
-0.1282
-0.9544
0.0005519
-0.0004465
-0.0001054
-0.1466
1.229
0.01212
-0.00753
-0.004593
-0.3124
0.01865
0.2938
-0.005637
-0.007217
-0.002325
0.0001545
0.00217
-0.0003108
0.0006365
-0.0003257
-0.0001734
0.001364
-0.001191
-0.81
0.9551
-0.145
-1.84e-05
4.181e-05
-2.341e-05
-0.000318
-0.003181
0.003499
-0.02876
0.02288
0.005881
0.001613
-0.001342
-0.0002708
0.0004523
0.001161
-1.278
0.4804
0.7972
-3.951e-05
-0.0001716
0.0002111
4.401e-06
7.047e-06
-0.0007975
-0.0004764
0.001274
-0.1157
-0.1968
-0.2735
0.5159
-0.2424
-4.705e-06
-6.762e-06
-0.05156
0.09174
-0.04019
-0.0003518
0.0003315
2.033e-05
0.0002977
0.0002542
0.1599
-0.6341
0.4742
-9.965e-05
7.753e-05
2.212e-05
-1.494e-06
-1.948e-06
2.676e-05
3.08e-05
-5.756e-05
5.218e-06
2.326e-05
-2.848e-05
0.0001078
-0.0002781
0.0001704
-0.0002013
0.0003225
-0.0001212
-0.0004254
0.0007993
-0.0003738
1.89e-06
-1.062e-06
-8.281e-07
-0.003122
0.002804
-0.0003527
0.0006187
-0.000266
0.1857
-0.02114
-0.1645
-0.005563
-0.006129
0.01169
-0.0002729
0.0009024
-0.0006294
0.0002788
0.0002024
0.000143
-0.000145
1.961e-06
0.02825
0.01468
-0.04294
0.003384
-0.001413
0.0001368
-0.0001383
1.52e-06
-0.0002827
-5.298e-05
0.0003357
-0.01892
-0.009839
0.6862
-0.5263
-2.812e-06
-0.0004814
-5.123e-05
-0.0001656
0.0002168
0.004369
-0.005303
0.0009345
7.541e-05
-0.0002767
-0.0003708
8.812e-05
-0.000859
0.001224
-0.0003647
-1
-0.2773
-0.001212
0.0006065
0.0006053
-1.154
0.8761
0.2779
2.233e-05
-2.921e-05
1.143e-06
7.473e-07
-0.0003037
4.081e-05
0.0002629
0.0007489
-0.001098
0.0003489
-0.2119
0.09599
0.1159
0.0006269
0.002514
-0.003141
-0.1067
0.05838
0.04835
0.1657
-0.4393
0.02319
-0.07475
2.788e-07
-2.224e-07
-5.642e-08
-1.253
0.09881
1.609e-05
2.839e-05
-4.449e-05
-0.0003916
-0.0007246
0.001116
0.01399
-0.01197
-0.002018
-6.655e-05
-3.31e-05
9.453e-05
-8.792e-05
-6.611e-06
-0.0003801
-0.0001938
0.0005739
0.0879
-0.103
0.01511
-0.0001383
5.523e-05
8.31e-05
-0.0003779
0.0003069
7.102e-05
0.000235
-7.338e-05
-0.0001616
0.0001344
-5.172e-05
-8.271e-05
-0.0003403
-0.001156
0.001497
-0.0001457
-0.0002061
6.681e-08
-5.234e-08
-1.447e-08
0.0002477
-1.273e-05
-0.004844
0.03617
-0.03133
-0.0001459
0.0003094
-0.0001635
-9.84e-05
0.0001129
-1.451e-05
0.03379
-0.05512
0.02133
0.009154
0.0003033
-0.009458
-0.04786
-0.04221
0.09008
-0.0001
0.0001373
-3.723e-05
-0.0003943
0.0002448
0.0001494
-6.46e-05
3.206e-05
0.001529
-0.0006096
-0.0009193
-2.715e-05
-1.012e-05
3.727e-05
-0.02782
-0.7822
0.0001666
-3.22e-05
0.0001451
-0.0002111
6.6e-05
0.002578
-0.003792
0.001214
0.0006991
-0.0001956
-0.0005035
0.003005
-0.003695
0.00069
-0.008935
0.0002952
0.00864
0.0001468
-0.0003173
0.0001705
0.0002619
-0.0001542
0.008021
0.004103
0.0003815
-0.0003133
-6.815e-05
-7.172e-05
-0.0003115
5.98e-05
-0.0001137
5.391e-05
-0.0001584
0.0002898
-0.0001314
-1.596e-05
1.596e-05
0.1919
-0.006228
0.0002977
-9.045e-05
-0.0002072
7.08e-05
-0.0001507
7.993e-05
1.469e-05
-3.31e-05
-0.0001811
1.805e-05
0.0001631
0.0001157
0.001621
-0.001736
-0.0001634
0.0001325
3.094e-05
-0.04186
0.03378
0.00808
6.649e-07
2.633e-06
-3.298e-06
-0.0002086
-0.0001857
-0.004578
0.001925
0.002652
-0.002714
0.0008613
0.001853
1.021
-1.194
0.1731
-6.424e-05
4.437e-05
1.988e-05
-0.0008238
0.0004388
0.000385
-7.537e-05
-6.296e-05
-0.0002506
0.0004841
-0.0002335
0.1199
-0.1479
0.02795
-0.001773
-0.000941
-0.1223
-0.002594
0.1249
-3.01e-05
4.085e-05
-1.076e-05
-4.206e-05
-2.219e-05
-0.0001612
-0.0002167
0.0002893
-0.0006001
0.0006914
-0.007155
0.006464
-0.0001317
0.0008805
0.0002983
-0.000286
-0.004842
0.08595
-0.08111
-2.388e-06
6.871e-05
-6.632e-05
-4.946e-05
-1.082e-05
6.028e-05
-0.04374
0.0389
0.0008452
-0.0009843
0.0001391
3.96e-08
0.0001363
0.0004252
-0.0005614
-1.47
1.199
0.2712
-1.463
1.193
0.2701
8.462e-07
1.494e-07
-9.956e-07
-0.1669
0.1322
0.03469
0.2045
-0.03802
-0.1665
-0.05822
0.04878
0.009436
0.02695
-0.06991
0.04296
0.000188
-0.0001586
-3.388e-08
3.388e-08
0.0002224
-0.0007577
0.0005353
0.02606
-0.007631
-0.01843
0.002766
-0.0006452
-0.002121
0.03001
-0.02292
-0.2086
-0.003286
0.002327
-0.0214
0.01907
-0.0002806
0.0002034
7.723e-05
-0.05975
0.2027
-0.1429
-7.409e-05
-8.932e-05
3.052e-06
-9.725e-05
9.419e-05
7.234e-07
-9.466e-07
2.232e-07
-4.544e-06
4.109e-06
4.353e-07
0.003489
-0.002099
-0.00139
-5.263e-05
0.000189
-0.0001364
0.02212
0.003939
-0.0007186
0.0002821
0.0004364
-0.471
0.222
0.249
0.000617
8.21e-05
4.383e-05
-4.982e-05
5.989e-06
5.538e-05
3.106e-05
-8.643e-05
-8.535e-06
7.008e-06
1.527e-06
-0.0001281
0.0001989
0.0004373
-0.001388
2.933e-05
-3.022e-05
8.934e-07
0.0003962
-0.0003597
-3.645e-05
-0.0004181
0.0001064
0.0003116
-0.04732
-0.07501
-0.001308
0.0005103
-3.189e-07
3.883e-07
-6.935e-08
-0.0002582
-0.0001599
-0.02374
0.01872
0.005016
9.296e-05
0.0002047
2.319e-07
-2.319e-07
0.2259
-0.02138
-0.000132
3.069e-05
0.0001013
-8.908e-05
3.963e-05
-2.922e-05
6.045e-05
-3.124e-05
0.0002644
-0.000183
-8.144e-05
0.0001863
0.0001951
0.0002899
5e-05
-0.0003399
1.805e-07
9.833e-08
0.0006952
0.0003031
-0.0009982
1.189e-05
-1.076e-05
-1.132e-06
1.2e-06
-1.2e-06
0.1971
-0.968
0.7709
-0.0004498
-0.001871
0.002321
-3.499e-05
8.58e-05
-5.081e-05
0.002246
-0.001063
-0.001183
-0.0004374
0.0001533
0.0002841
-0.0001018
0.0004537
-0.0003519
0.0006785
-0.0003988
-0.0002797
0.1167
-0.02877
5.35e-05
-0.0001798
0.0001263
-0.0001995
0.001431
-0.001231
-0.009111
-0.0009007
0.01001
0.0006759
-0.0003716
-0.0003043
-0.06487
0.09739
-0.03252
-0.01419
0.008632
-0.08806
0.0402
-1.889e-05
-0.0001571
0.000176
-4.5e-06
-3.681e-05
4.132e-05
4.443e-05
-8.772e-05
4.329e-05
9.086e-05
-0.000232
0.0001411
-0.00102
-0.0007155
0.001735
0.002901
-0.0058
0.002899
-0.0001843
-5.528e-06
0.0001898
0.8566
0.1644
0.0003779
-0.0004773
9.936e-05
-0.0001358
3.769e-06
0.001084
-0.00184
0.0007566
8.267e-05
-8.506e-05
-0.0001683
-0.0001354
0.0006822
-0.0007898
0.0001076
-0.3773
-0.4333
0.8107
0.0007668
0.001286
-0.002052
-0.5426
-0.3509
0.8935
0.04451
-0.01626
0.004414
-4.572e-05
-0.09061
-0.1658
0.2564
0.04529
0.121
-0.1663
8.663e-08
-2.721e-08
-5.942e-08
-0.0002294
0.0001875
4.192e-05
-0.07489
-0.1019
0.1768
0.000793
-0.0005817
-0.0002114
0.1734
-0.05344
-3.98e-05
0.003045
-0.002439
0.005419
-0.002981
-0.01099
-0.01274
0.0009943
0.001372
-0.002366
-0.2063
0.2373
-0.03104
-0.0005119
0.0008626
-0.0003507
-0.0001067
-7.214e-05
0.0001789
9.433e-06
2.596e-06
-1.203e-05
0.0001026
0.0001618
0.00396
-0.001059
-7.659e-05
-0.000125
0.0002016
-0.003932
0.001139
0.002793
-0.001198
-0.001772
0.00297
0.003704
-0.003077
-4.598e-05
7.746e-05
-3.148e-05
0.0005222
0.0001113
-0.0006336
0.002525
0.0002411
-0.1832
0.1234
0.0002465
-3.94e-05
-0.0002071
-0.003198
0.003233
-3.571e-05
0.0009334
7.51e-05
-0.001008
-3.922e-07
4.716e-06
-4.324e-06
-0.0003574
0.0002412
0.0001162
-0.8565
0.3139
-0.2574
0.1339
0.1235
0.0002864
0.0001281
-0.0004145
0.0004963
-0.0004593
-3.696e-05
-6.184e-05
-9.899e-05
0.0001608
0.01833
-0.009369
-0.008957
0.1951
-0.1852
-0.009914
0.009045
-0.01228
-0.0001959
-1.217e-05
0.0002081
0.09551
-0.0532
-0.04231
0.001583
0.0006635
0.0004502
-0.0001638
2.216e-05
0.0001608
-0.000183
-0.01666
0.03201
-0.01535
6.678e-06
-4.067e-05
3.399e-05
0.0003545
-0.0001336
-0.0002209
-0.001786
0.0005324
0.001254
-0.0008433
0.0004806
0.0003628
0.1938
-0.1485
-0.006064
0.01744
-0.5006
-0.9695
-0.4981
-0.9651
-0.0108
0.001862
-0.000988
0.0008012
0.0001867
-0.004371
-0.0002062
-0.0003026
-0.0005408
-1.545e-05
-0.0001475
0.0001629
-0.01271
0.0465
0.002386
0.001104
6.591e-05
-3.52e-05
-3.07e-05
-1.641e-05
-3.804e-05
5.446e-05
-0.0004112
2.045e-05
0.0003907
0.0002192
0.0005739
-7.341e-05
3.081e-05
4.259e-05
0.0001446
-0.0001776
3.301e-05
0.0002622
-0.0001871
-7.505e-05
2.265e-05
-0.0001018
7.916e-05
-0.0003573
0.0002863
7.108e-05
0.0004376
-0.0005109
7.336e-05
-2.129e-06
5.608e-05
-5.395e-05
6.626e-05
-0.001801
-0.02727
0.02907
-9.985e-05
8.893e-05
1.092e-05
-0.000331
-0.0001064
-0.000193
-0.001188
0.001381
0.3007
-0.4091
0.1085
0.0003138
4.077e-05
0.0002228
-0.0004257
0.000203
-0.00161
0.001437
-0.004101
-0.004288
0.008389
0.0005395
-0.0005624
2.293e-05
-5.102e-05
0.0003994
-0.0003484
0.3809
0.1362
-0.5171
-0.1186
-0.04836
-0.1712
0.2399
-0.06866
-2.821e-05
3.345e-05
-5.236e-06
0.4309
-0.8083
-0.001485
0.001474
1.091e-05
0.0604
0.03511
8.289e-05
-0.0001179
3.889e-05
-0.0003206
0.0002817
0.1167
-0.1216
0.03095
-0.01364
-0.01731
-8.259e-05
0.0003524
-0.0002698
1.869e-07
1.534e-07
-3.403e-07
-0.000249
0.0004506
-0.0002016
0.9221
-0.6914
-0.2307
0.001305
0.002831
-0.004136
2.193e-05
7.26e-05
-0.0003717
0.0002727
9.892e-05
0.006299
-0.004825
-0.001474
-0.08606
-0.02067
5.786e-06
7.899e-07
-6.576e-06
0.01639
-0.02058
0.00419
1.476e-06
-2.749e-05
-0.000394
0.0005532
-0.0001592
8.513e-05
-0.0008113
0.0007262
0.2459
-0.2554
0.009502
0.0058
-0.004993
-0.0008072
3.86e-06
-1.607e-05
1.221e-05
0.0001358
0.0003305
-0.0004663
-0.0003905
0.0004296
-3.906e-05
-7.075e-05
0.0001423
-7.159e-05
0.003813
0.001987
-0.000167
0.0001422
-0.02299
0.02119
0.009447
-0.07432
3.036e-05
-4.953e-05
1.917e-05
-0.5079
0.03696
-0.0004189
-2.838e-05
0.0004473
-5.546e-05
2.536e-05
-0.0004006
0.01679
-0.004464
0.003545
0.0009193
-0.0001115
0.0003959
-0.0002843
-0.002125
0.002102
2.36e-05
0.111
0.4877
-0.5987
0.0002639
-0.0005145
-0.0002707
-0.0001916
0.0004623
-0.000311
-3.383e-06
0.0003144
0.001198
0.007956
-3.51e-05
-0.0002656
0.0003007
-0.001077
0.0006855
5.07e-05
9.23e-05
-0.0004337
0.0003683
6.533e-05
-0.000219
3.475e-05
-0.0001508
0.002375
-0.002224
-0.000646
0.0001126
0.0005334
-0.0002079
2.671e-05
-1.306e-05
1.213e-05
9.304e-07
-0.0001203
0.0001286
-8.273e-06
-0.6755
0.8726
0.0005368
-0.0001406
0.008415
-0.01102
0.002608
-0.003698
0.004249
-0.01214
0.0007108
0.01143
-4.172e-05
1.251e-05
-0.01095
-0.007198
0.01814
-1.275
1.437
-0.1617
0.0001599
-0.0001617
1.783e-06
-5.269e-05
-2.861e-05
8.13e-05
0.006431
0.01145
-0.01788
0.00312
-0.003002
-0.0001184
0.5727
-0.1918
0.001047
-0.002074
0.001027
-1.482e-05
6.515e-05
-5.033e-05
-0.0601
0.04603
-0.02533
-0.181
0.7011
-0.6552
-0.04593
0.0004072
-0.0004251
0.06608
-0.02991
-0.0003475
-0.0001113
0.0004588
0.05175
-0.05494
0.003194
1.829e-05
0.0001185
-0.01012
-0.134
0.1442
0.0003989
-0.0002934
-0.0001055
0.05422
-0.2255
-0.0001404
-0.0001402
0.0003637
-0.0003999
3.626e-05
-0.0003961
0.0002324
0.0001637
-0.001355
0.003034
-0.001679
-1.643e-05
3.121e-05
-1.478e-05
-0.01944
0.007687
0.01175
0.0003071
-0.0001631
-0.000144
0.0001614
5.112e-05
-0.0002125
5.647e-05
-6.068e-06
-5.04e-05
0.000349
-8.326e-05
-0.0002658
0.0001591
0.008053
-0.008212
-0.00249
0.00215
-3.72e-05
-1.484e-05
5.204e-05
0.0001271
9.02e-05
-0.0002173
0.002033
-0.001727
-0.0003067
2.431e-05
-6.151e-05
0.3529
-0.943
0.5901
0.1192
-0.0005015
-0.1187
-0.0003178
0.0001305
0.0001873
6.108e-05
-6.595e-05
4.873e-06
-1.539
0.1226
1.416
0.0005647
-0.0003458
-0.0002188
-0.0025
0.01198
-0.009484
0.005076
0.00891
6.149e-05
0.0004348
0.03113
-0.01697
-0.01416
1.412
-0.2683
-1.144
1.821e-05
-0.0001934
0.0001752
-0.01185
0.009354
4.652e-05
-4.103e-05
-5.491e-06
-4.806e-05
4.328e-05
4.788e-06
8.83e-05
-6.31e-05
-2.52e-05
0.0003287
-2.5e-05
-0.0003037
-5.597e-05
7.89e-06
4.808e-05
-0.0002077
-0.0001498
-0.0006981
7.109e-05
0.000627
0.0009526
0.002168
0.0001827
-7.79e-05
-0.0001048
-0.1253
0.2553
-0.13
-9.808e-05
0.0001579
-0.1021
0.08384
0.0183
0.0007239
-0.0005914
-0.0001325
0.0004127
-0.0008381
8.949e-05
-7.415e-05
-1.534e-05
0.0002711
-0.001519
0.001248
-8.349e-09
-2.553e-08
-0.0002488
0.0001202
0.0001285
-0.0002454
0.0007473
-0.0005019
0.03052
-0.0183
-0.01222
0.001931
-0.002432
0.0005009
-0.287
0.2314
0.05563
6.529e-05
2.3e-05
0.1166
0.002574
0.0001353
1.69e-05
-0.0001522
0.0004834
-0.0003471
-4.808e-08
4.808e-08
7.306e-08
-1.935e-08
-5.371e-08
7.48e-08
-6.922e-08
-5.578e-09
1.196
-0.8184
-0.3779
-4.976e-05
-5.009e-05
4.052e-05
0.0004052
-0.0004457
-0.145
-0.1124
-0.000531
1.07e-05
0.0005203
-0.0002751
0.000851
-0.0005759
-0.0001668
0.0001811
-1.433e-05
0.003422
-0.0002982
-0.003124
-5.091e-06
0.0003688
-0.0003395
-5.66e-05
0.0003525
0.0002122
1.122e-05
-1.041e-05
-8.15e-07
-0.4372
0.7901
-0.0002219
0.0001284
9.356e-05
-2.173e-08
1.998e-08
1.741e-09
0.0003992
-0.000453
5.386e-05
0.0001953
-4.389e-05
-0.0001514
4.829e-06
-4.164e-06
0.06341
-0.1791
0.003426
-0.000848
-0.05112
0.07807
-4.281e-05
0.0001699
0.04279
0.2463
-0.289
-0.0001493
3.506e-05
0.0001143
-3.827e-05
-5.785e-05
9.613e-05
3.213e-05
-3.043e-05
-1.709e-06
1.525
-0.9017
-0.6237
-0.0002478
-6.995e-05
0.009444
0.003935
-0.01338
-6.728e-07
4.884e-07
1.844e-07
-0.0006264
-2.331e-05
0.0006497
0.0001101
-7.88e-06
-0.0001022
0.0002102
-0.0001464
-6.386e-05
-0.1073
0.1025
0.004837
1.539e-05
-6.878e-05
5.338e-05
0.000898
0.000699
-0.001597
-0.8032
-0.7357
0.002367
-0.004887
-4.319e-05
0.00493
-0.0002173
0.0001105
0.0001848
0.0003547
4.34e-07
6.064e-05
4.661e-05
-7.323e-06
-3.928e-05
-0.0004947
0.0001007
-0.003109
0.003737
-0.0006277
0.0006845
7.12e-07
-0.0006852
0.0001098
-0.0002233
0.0001135
4.284e-05
0.000117
0.1127
0.05535
-0.168
-3.837e-05
2.852e-05
9.841e-06
3.177e-05
-0.0001807
0.0001489
0.0002361
-0.0002608
2.472e-05
0.000937
-0.001986
0.001049
0.0001115
-0.0002039
9.248e-05
-0.7909
0.1141
0.6768
-0.7883
0.6297
0.1586
0.002526
-0.01164
-6.865e-05
-4.761e-06
-0.0005338
-0.001314
0.001848
0.1381
-0.2084
0.07031
1.473
-0.6491
-0.8237
-0.001442
0.002338
-0.0008965
0.0001735
-0.0002531
7.964e-05
-0.0004774
0.0001909
0.0002865
-0.0006764
-2.167e-05
3.209e-05
2.759e-06
-3.484e-05
-1.491e-05
1.388e-05
1.025e-06
-0.003075
0.002935
0.0001407
-0.1415
0.1003
0.04119
1.4
-1.277
-0.1228
-3.664e-05
1.828e-05
1.835e-05
-0.0001107
-0.0002226
0.0003333
0.0004913
-0.001509
0.001018
0.3138
0.522
-0.8358
4.003e-06
7.891e-06
0.002299
-0.002679
0.0003802
-0.0001151
0.0001135
1.538e-06
0.4887
-0.0001652
0.0001888
-2.358e-05
-0.02732
0.1654
0.0001814
-0.0002929
-0.0001026
3.777e-05
6.48e-05
0.001044
-0.0009279
-0.0001164
0.9785
0.1618
-1.14
-1.346e-05
-4.963e-05
6.31e-05
0.0004721
0.0002038
-3.841e-05
2.244e-05
0.3911
1.021
0.0003521
-0.001211
-3.382e-06
-1.162e-06
0.3951
0.3061
-0.001708
-0.002757
-0.1647
0.005302
0.1594
-0.0002435
-0.0002808
0.0005242
0.0001826
-7.975e-05
-0.0001029
-0.2801
0.1895
5.738e-05
-5.217e-05
-5.212e-06
0.0001415
0.0002562
-0.0003978
-9.613e-07
8.189e-06
-7.228e-06
-5.505e-05
-4.585e-05
0.0001009
-0.0001035
4.632e-05
5.723e-05
-0.0001042
-0.0002532
-0.0001231
-0.0002486
1.712e-05
0.0001834
-0.0002005
0.0004181
-0.0004455
0.0006344
-0.0009074
0.000366
-0.0005649
0.0001989
6.739e-05
-7.571e-05
8.327e-06
3.677e-05
-1.292e-05
-2.386e-05
0.0001583
-0.0001179
-4.038e-05
-0.6
0.9137
0.0004229
-0.0002941
-0.0001289
0.1079
-0.194
0.08609
-0.0004982
8.708e-05
-0.1246
0.03491
0.0897
4.914e-05
-0.0001492
-0.3423
-0.9327
-0.1525
0.07761
-0.002546
-0.005068
0.007614
-0.0003187
-0.0003273
-0.0001786
-0.0001407
0.0003192
-1.04
0.128
0.9123
1.107
-0.899
-0.2078
4.634e-05
-1.702e-05
1.098e-05
4.221e-06
-1.52e-05
-2.742e-05
5.417e-05
-0.0002498
9.197e-05
0.0001579
0.0006604
-0.0002224
-0.000438
0.0002795
-0.0006271
-0.000309
0.0004584
-0.0001495
-0.0006925
0.0004217
-8.641e-05
4.837e-05
-3.006e-05
8.044e-05
-5.039e-05
-1.854e-05
-5.21e-06
2.375e-05
-1.16
0.1201
1.709e-05
4.457e-05
-6.166e-05
1.77e-05
-8.07e-05
6.301e-05
-3.729e-05
-0.004965
0.005002
0.009552
-0.005927
-0.003625
0.1783
-0.2394
0.06105
1.03
0.443
0.0003416
-0.0003194
-5.927e-06
-9.247e-05
4.599e-05
0.0001367
3.225e-06
-2.159e-06
-1.065e-06
-0.07652
-0.04809
-0.9855
-0.4035
1.389
-8.431e-05
-5.971e-05
0.000144
-7.27e-05
1.391e-06
7.131e-05
-0.05091
-0.007309
1.131e-05
1.356e-05
-2.487e-05
0.01435
-0.002162
-0.01219
-0.03463
0.0875
-0.05287
-0.000103
3.716e-05
6.587e-05
0.00228
-0.002813
0.0005326
-7.003e-05
8.773e-05
0.004376
-0.009038
0.004662
-2.245e-08
2.245e-08
-1.077e-05
2.239e-06
4.85e-05
0.0003005
0.0002244
8.276e-05
-0.0001204
-0.000109
6.662e-05
2.668e-05
-9.33e-05
-0.000159
-6.278e-06
-3.469e-05
6.405e-05
-2.936e-05
0.05575
0.007119
-0.06287
0.0001162
-4.078e-05
-7.542e-05
1.61e-06
3.672e-06
-5.281e-06
-8.526e-05
-0.0003337
0.7437
-1.068
0.3245
0.0008275
-0.0001453
-0.00461
0.004064
0.0005463
0.00106
-0.002886
0.001825
1.076
0.4496
-0.02565
0.7694
4.502e-07
-4.455e-07
-4.709e-09
0.02322
0.0073
0.0002149
-0.0003734
0.0001585
4.929e-05
-5.202e-05
2.728e-06
-0.0002981
0.0005226
-0.0002246
0.00024
6.5e-06
0.004172
0.002951
-0.007123
0.0001231
-6.767e-05
0.003202
-0.006437
0.003235
0.0006103
-0.0005211
-8.92e-05
-0.1495
-0.1993
0.3488
1.05
-0.04452
-1.006
-0.002272
-0.0004925
0.002764
-0.0008214
0.009236
9.659e-06
-3.787e-05
-0.001845
0.002905
0.0001934
-0.0002144
2.105e-05
0.0007551
-0.0002473
-0.0005078
0.0002064
0.0001196
-0.000326
-0.02067
0.023
0.004176
-0.008277
-1.125
-0.3859
1.511
-6.25e-05
0.0001171
-5.464e-05
0.02265
0.008486
-0.0006461
0.0004895
0.0001566
3.855e-08
-0.002234
0.0006477
0.001586
-0.0003762
0.0003573
0.0001525
-0.0004015
1.257
-0.2787
-0.00144
0.001631
-0.0001912
-0.0002035
-0.0003105
0.000514
-7.473e-06
7.724e-06
-2.503e-07
-0.0004526
-4.173e-05
0.0004943
0.0002618
4.931e-06
-0.0002667
-6.304e-05
-2.337e-05
-7.176e-05
0.0002169
-0.0002089
-0.0002248
9.831e-05
-0.0003278
0.0002295
0.000432
0.0002578
-0.0006898
0.0003805
-0.0004823
0.001032
-0.001754
0.0007224
-0.00341
0.0002125
4.675e-05
-0.0004268
0.003081
-0.005912
0.002831
-6.726e-08
6.727e-08
-0.0009623
-0.003648
-0.06617
0.02431
0.0001417
-0.001104
0.0009619
0.0001629
0.000292
-0.0004549
2.02e-06
0.0007074
-0.0007094
0.1016
0.3722
-0.4738
-2.682e-05
1.784e-05
8.98e-06
5.726e-05
0.0003803
-0.0004269
-5.044e-05
-1.511
0.5254
8.359e-07
2.389e-06
-0.0001498
2.953e-05
0.0001639
-0.0001876
2.366e-05
-0.388
-0.6374
1.025
4.071e-06
-3.876e-05
8.825e-05
-0.0001064
1.814e-05
2.082e-05
-6.372e-05
4.29e-05
1.868e-05
-7.721e-05
5.854e-05
-1.198
0.8098
-0.0004442
0.0002589
0.0001853
2.092e-07
-1.319e-06
1.11e-06
4.863e-05
-7.412e-05
2.548e-05
-0.0003346
0.0003449
-1.038e-05
-0.1579
0.06299
0.09492
4.216e-05
2.375e-05
0.0001406
-0.0001728
3.229e-05
-0.1619
0.168
-0.006147
0.002707
0.0005095
-0.003217
-0.003808
0.003721
8.607e-05
8.014e-05
-1.352e-05
-0.0001652
-8.363e-05
-0.002591
0.003729
-0.002526
0.0002919
-5.574e-06
-0.0001085
0.0001141
-3.47e-05
7.913e-05
0.2818
0.5868
-0.8686
-0.0003149
-0.0001293
-0.0003488
0.0006128
-0.000264
5.201e-05
-5.275e-05
7.401e-07
-6.425e-05
-0.0002468
-0.01381
0.01204
0.001774
-0.0006427
0.0001117
1.056e-05
3.604e-05
1.028
-0.746
2.363e-05
-0.0001904
-4.186e-05
-6.117e-05
1.297e-05
-3.111e-05
1.814e-05
1.565e-07
-4.755e-07
4.166e-05
-2.869e-05
1.391e-05
1.823e-05
0.0002016
3.093e-05
-0.0002325
0.0002155
-0.0001385
-7.698e-05
-0.004492
0.001166
0.003326
0.1728
1.024
-5.323e-09
5.323e-09
7.603e-05
0.000102
-0.0001781
4.94e-05
-0.0001045
2.613e-05
-2.377e-05
-2.366e-06
-9.406e-05
0.0002488
-0.0001548
1.434e-05
-7.644e-05
6.21e-05
-0.0001394
2.224e-05
0.0001172
-0.0002854
0.0002459
0.5591
0.841
9.864e-05
0.0002586
-0.0003572
-0.004414
0.001242
0.003172
-1.503
0.3787
-7.59e-05
0.0001285
-5.265e-05
0.0001616
0.0005623
0.001529
-0.0005953
0.0008288
0.0003144
-0.001143
0.1375
-1.017
0.8798
8.38e-05
-0.0003928
6.208e-05
-1.214e-05
-4.994e-05
-0.2748
-0.7146
0.8521
0.006945
0.002607
-0.0006327
0.0008379
-0.0002052
0.0003405
0.0003198
-8.703e-05
-4.251e-06
9.128e-05
-0.0004319
0.0003767
5.521e-05
2.782e-06
-1.745e-07
-2.607e-06
-0.00406
0.0009929
0.003067
-0.003952
0.00525
-0.001299
-0.7988
-0.2694
-0.0003106
8.18e-05
0.0002288
-0.0002432
0.0001187
0.0001245
0.0002121
-0.0001756
-3.657e-05
5.005e-05
-9.603e-05
0.001858
-0.001742
1.085
0.08578
-1.171
0.2753
-0.2119
0.07755
-0.1342
0.05661
-9.22e-06
2.299e-06
6.921e-06
0.04533
-0.8441
0.03293
-0.01865
-0.01428
-6.969e-05
0.0001426
-7.295e-05
-0.0007035
-0.0008352
0.001539
6.669e-05
2.746e-05
-9.415e-05
-0.2159
0.8472
-0.6313
-0.000148
0.0001027
4.528e-05
-0.0003137
0.001746
-0.001433
-0.2388
-0.01727
0.2561
0.0001328
0.0001294
0.6914
0.4734
-1.165
-0.000354
-0.0002165
0.0005706
8.134e-06
1.751e-07
-8.309e-06
7.572e-05
-3.695e-05
-3.877e-05
-0.0003591
-0.0006158
0.0009749
1.046e-05
7.287e-06
-1.775e-05
0.1852
-0.04888
-0.1363
4.084e-05
3.192e-05
-7.276e-05
-0.008908
0.008948
-3.908e-05
-0.000116
-3.334e-05
8.224e-06
-2.875e-06
-5.349e-06
-0.0001133
-0.0001029
0.0002161
0.0002033
6.002e-05
-0.0002633
-0.007342
-0.006468
0.005297
-0.00586
0.0005628
0.001812
-0.0003585
-0.001453
3.27e-05
-3.27e-05
-0.3403
0.197
0.1433
-0.001903
0.003602
-0.001699
0.0004862
-0.0003148
-0.0001715
-0.0001646
0.0003015
-0.0001369
-3.061e-06
4.67e-06
6.03e-05
-5.293e-05
-7.378e-06
-0.1176
1.202
0.04611
-0.02835
-0.01777
-2.597e-05
-1.067e-05
-0.0001093
4.322e-06
0.000105
-3.32e-06
4.793e-06
-1.473e-06
-0.0004186
0.001098
-0.0006796
1.459e-06
-1.459e-06
-0.0002647
0.0002973
-3.26e-05
6.081e-08
-6.095e-08
-0.0002196
7.071e-05
0.0001489
1.868e-05
1.115e-05
-2.983e-05
0.000269
-0.0001703
2.03e-05
-1.434e-05
-5.961e-06
0.09824
-0.07378
-0.02446
0.0013
-0.0009913
-0.0003086
1.092
-1.516
0.4242
1.318
-1.741
0.4228
-5.023e-05
-0.0001611
0.0002113
-0.04344
0.09248
-0.04904
8.017e-05
-3.674e-06
-7.649e-05
-0.003252
0.001455
0.001797
-0.001177
7.886e-05
-0.007709
0.008694
-0.000985
0.04605
-0.1009
0.05486
-0.0005468
2.976e-05
0.000517
0.0004881
0.0007775
-0.001266
0.2521
-0.00614
-0.001122
0.001268
-0.0001457
0.0001439
-0.00026
0.0001161
0.09342
-0.04737
5.426e-05
-2.709e-05
-2.717e-05
6.036e-06
-6.036e-06
-9.107e-05
1.782e-05
7.325e-05
0.0008691
-0.002808
0.001939
4.853e-05
-3.417e-05
-1.436e-05
-4.589e-05
0.0001668
-0.0001209
-7.888e-05
7.534e-05
3.546e-06
-0.3381
0.1232
0.2149
0.000103
-1.351e-05
-0.000318
-0.000328
-0.04998
0.3506
6.358e-05
-4.749e-05
0.0002719
-2.388e-05
-0.0002481
0.0003754
-0.0006886
0.0003132
-0.4772
-0.5492
1.026
0.2172
0.0004763
-0.2176
0.003017
-0.001989
-0.001029
7.123e-07
4.236e-07
-1.136e-06
0.0001423
-0.002139
0.001996
-5.953e-06
5.953e-06
0.0005669
-0.0002913
-0.0002757
0.0007029
-0.0001842
-0.0005187
-0.001594
0.001455
0.0001388
1.477e-06
9.749e-07
-2.452e-06
6.249e-05
1.858e-05
-8.107e-05
-0.4117
1.372
-0.9607
-8.588e-05
0.0001179
-3.203e-05
0.005701
-0.000502
-0.005199
-0.3004
1.333
-1.033
-0.0005902
-0.0007996
0.00139
-1.915e-07
9.935e-08
9.217e-08
0.001111
0.001482
-0.002593
-4.059e-05
2.629e-05
1.43e-05
0.006596
-0.003731
-0.002865
0.001243
0.003116
-0.004359
-2.962e-07
-4.39e-07
7.352e-07
1.208e-05
-1.208e-05
0.0003111
0.0001346
-0.0004457
-0.08805
-0.05346
-0.4603
0.2234
0.237
0.00283
-0.001079
-0.001751
-0.001336
0.001019
0.000317
-4.571e-05
-8.003e-05
0.0001257
7.546e-05
-4.331e-05
-3.215e-05
-0.0005603
-0.000212
0.0007723
0.000172
-8.206e-05
-8.998e-05
-0.00151
0.001362
0.0001483
-0.009708
0.01756
-0.007848
6.674e-05
0.0001053
-0.03237
-0.01494
0.04731
2.021e-05
1.196e-06
-2.14e-05
0.1368
-0.5757
0.4389
-0.0001887
-0.0002738
0.0004625
-1.972e-06
9.07e-06
-7.098e-06
0.0002732
-0.0003259
5.275e-05
-0.000171
0.0001412
2.973e-05
0.000434
-0.0002103
-0.0002237
-0.3821
0.09725
0.2849
-0.1888
0.05556
0.1333
2.09e-05
-3.462e-05
1.373e-05
0.007718
-0.008738
0.00102
-6.338e-05
0.0001241
-6.076e-05
0.0002523
-0.0004299
0.0001775
3.175e-05
-6.226e-05
3.051e-05
-0.0004366
0.0004277
8.946e-06
0.0003679
-0.0001124
-0.0002556
-0.0001715
0.0001702
1.294e-06
-9.666e-06
6.301e-05
-5.334e-05
4.299e-05
-4.299e-05
-7.524e-06
-5.979e-05
6.731e-05
-1.97e-05
0.0001376
-0.0001179
-9.229e-05
7.627e-05
1.602e-05
-0.002744
0.004123
-0.001379
-0.0002849
0.0006132
-0.0003283
0.0001448
0.0007004
0.0001059
-0.0001101
4.199e-06
2.886e-08
-4.23e-06
4.201e-06
-1.138e-07
7.077e-08
4.304e-08
0.0005256
-0.0002431
-0.0002825
-0.3196
0.4212
0.5901
0.2173
-0.8074
0.0003529
-0.0004677
0.0001148
-7.208e-05
-0.000207
0.0002791
0.004801
-0.0008847
-0.003916
-0.1886
1.18
-0.9918
0.0002624
0.0005905
-0.0008528
0.0004236
3.488e-05
-0.00252
-0.005726
0.008246
-3.92e-05
-2.495e-05
6.415e-05
0.0008218
-0.0005946
-0.0002272
1.544e-05
-6.485e-05
4.941e-05
0.002837
-0.003331
0.000493
0.7873
-0.6762
-0.008331
0.002783
0.005548
0.01222
0.0005554
-0.01278
6.884e-05
-7.998e-06
-6.085e-05
2.361e-05
3.952e-05
-6.313e-05
0.0001034
-7.798e-05
-2.543e-05
-0.004302
0.001707
0.002595
0.0005653
-0.003911
0.003345
-1.675e-05
4.257e-05
-2.582e-05
-0.0003566
0.000531
-0.0001744
-0.002038
-0.001344
0.003382
-0.0008963
0.0003521
0.0005442
-0.0006607
-0.0001432
0.000804
0.001114
-0.0009052
-0.0002084
-0.0002255
0.0001928
3.265e-05
0.0001374
-9.82e-05
-3.92e-05
0.2599
-0.3213
0.0614
1.343e-05
-7.681e-06
-5.748e-06
2.245e-07
7.067e-07
-9.312e-07
-0.0005494
0.0002006
3.114e-06
-0.0001306
0.0001275
-1.584e-05
1.113e-05
0.02154
-0.1184
0.09684
1.278e-05
-1.278e-05
-4.744e-05
4.744e-05
-0.1666
-1.047
1.214
1.259
0.2309
-1.489
0.0001175
-6.767e-05
-4.987e-05
-6.722e-05
0.0004362
-0.000369
-9.025e-08
1.052e-07
-1.496e-08
-1.319e-05
7.335e-06
5.856e-06
-0.000148
0.001448
-0.0003133
0.0004068
-9.35e-05
-6.05e-05
-6.112e-06
6.662e-05
-0.001098
-0.004153
0.005252
0.003599
0.005153
-0.008752
-0.1895
0.06247
0.127
-6.28e-05
4.196e-05
2.084e-05
6.16e-05
0.0004116
-0.0004732
4.958e-05
-0.0001002
5.06e-05
-0.004633
0.001024
0.003609
1.79e-08
-3.037e-07
2.858e-07
-0.0002182
0.0002992
-8.093e-05
0.8159
-1.147
0.3312
-5.473e-05
5.473e-05
-0.0001264
8.221e-05
4.418e-05
0.1661
0.5627
-0.7288
-6.179e-05
5.819e-06
-1.287
1.12
0.2419
-0.4262
0.1843
-0.002983
0.002085
0.0008982
-0.01114
-0.002108
0.01325
-5.602e-06
3.436e-06
2.165e-06
0.7806
-0.9459
0.1653
0.0002871
-0.0001524
-0.0001347
0.476
-0.1361
-0.3399
0.0004792
-0.0008947
0.0004154
-0.01671
0.005541
0.01117
0.001428
-0.001184
-0.0002439
0.006188
-0.003238
-0.002951
-7.185e-05
-0.0003023
0.0003742
-0.0003208
-0.0001279
0.0004488
-5.257e-05
-1.59e-05
6.847e-05
0.001534
0.000338
-0.001872
0.1499
0.6504
-0.8003
0.0103
0.06121
-0.0715
0.0003521
-0.0002108
-0.0001413
-0.0001083
-0.0005458
0.0006541
-2.926e-05
9.645e-05
-6.719e-05
-7.959e-05
4.535e-05
3.424e-05
2.367e-05
-1.418e-05
-9.485e-06
4.217e-05
1.092e-05
-5.309e-05
9.182e-06
-9.182e-06
6e-05
-0.0001058
0.0007043
-0.0005164
-0.0001879
1.147e-05
-2.446e-05
1.299e-05
-0.0003907
0.0002536
0.0001371
5.813e-05
2.626e-05
-8.439e-05
0.005684
-0.006494
0.0008102
-0.0001159
1.399e-06
0.0001145
0.4951
-0.3658
-0.1293
6.703e-05
-7.265e-05
5.617e-06
1.918e-06
-1.254e-05
1.063e-05
-0.0001666
1.144e-06
0.0001655
0.4959
-1.094
0.5978
-0.0003492
0.0001193
0.0002298
-0.0006522
0.000347
0.0003052
-0.001621
0.0004083
0.001213
0.00122
-0.0005567
-0.0006631
2.507e-05
-9.764e-05
7.257e-05
0.001427
0.006719
-0.008146
-3.938e-05
4.503e-05
-5.656e-06
9.704e-05
0.0003248
-0.0004219
-0.0008227
-0.0007984
2.024e-05
3.714e-05
-5.738e-05
-0.0002688
-4.036e-05
0.0003092
1.93e-06
6.293e-06
-1.181
0.5416
0.639
0.00218
-0.004243
0.002063
5.808e-05
-2.104e-05
-3.704e-05
0.1289
0.05697
-0.1859
8.462e-05
-2.429e-05
-6.033e-05
-3.205e-05
-8.086e-06
4.014e-05
-1.246
1.246
0.001504
0.002333
-0.003837
1.008e-05
-1.38e-05
3.722e-06
0.06807
-0.05238
-0.01569
0.0067
-0.001016
5.422e-05
4.513e-05
-9.935e-05
7.077e-05
-1.66e-05
-5.417e-05
0.01225
-0.009456
-0.002791
-1.269
0.5237
0.7458
-7.545e-05
0.0001205
-4.502e-05
4.457e-05
-0.0001076
6.305e-05
0.4034
-0.256
-0.1474
-0.008647
0.0061
0.002547
0.0009235
-0.03134
0.03042
0.0003462
0.0001369
-0.0004832
7.73e-05
2.656e-05
-0.0001039
-0.001522
-0.0007699
0.002292
-0.0537
-0.05453
0.1082
-5.211e-07
1.345e-06
-8.237e-07
1.089e-08
1.287e-07
-1.396e-07
0.000109
0.0003139
0.0002063
-0.0006908
0.0004845
0.0004253
-0.0006767
0.0002515
1.384e-05
6.467e-06
-0.3925
1.24
-0.8471
0.00014
-0.0007048
0.0005648
0.35
-0.007027
-0.343
-0.0001905
0.0002683
-7.772e-05
-0.000927
0.0009092
1.787e-05
-4.663e-05
-6.005e-05
0.0001067
0.0003233
0.0008964
-3.173e-06
3.445e-06
-2.717e-07
-1.148e-05
1.244e-05
-9.593e-07
-0.5585
0.2187
0.3399
-7.549e-07
7.549e-07
4.342e-05
-3.264e-05
-1.078e-05
-1.459e-05
5.625e-05
-4.166e-05
-0.001404
-0.0001587
0.001562
-0.0001362
0.0001897
0.0003245
0.0002458
-0.0005704
-0.0001937
-2.238e-05
0.0002161
-0.0001009
8.365e-05
1.728e-05
0.001599
-0.001117
-0.000482
-0.009391
0.0247
-0.0153
2.497e-06
-2.497e-06
0.0001823
-0.0002242
4.198e-05
-0.0004319
0.0001931
0.0002388
0.0001503
7.524e-05
-0.0002256
0.0008599
-0.0007163
-0.0001436
0.0001845