/*--------------------------------*- C++ -*----------------------------------*\
  =========                 |
  \\      /  F ield         | OpenFOAM: The Open Source CFD Toolbox
   \\    /   O peration     | Website:  https://openfoam.org
    \\  /    A nd           | Version:  8
     \\/     M anipulation  |
\*---------------------------------------------------------------------------*/
FoamFile
{
    version     2.0;
    format      ascii;
    class       volVectorField;
    location    "5";
    object      U;
}
// * * * * * * * * * * * * * * * * * * * * * * * * * * * * * * * * * * * * * //

dimensions      [0 1 -1 0 0 0 0];

internalField   nonuniform List<vector> 
127143
(
(0.0008845 -3.794e-05 0)
(-2.33e-05 -0.0001158 -1.377e-24)
(-4.896e-05 -0.0002404 2.432e-24)
(-6.372e-05 -0.0002912 -9.927e-28)
(0.005932 0.001853 -5.299e-23)
(-5.381e-05 -0.0002999 3.509e-27)
(0.01707 0.01089 0)
(0.008787 0.004043 -7.29e-23)
(0.007166 0.003462 2.406e-22)
(-0.001731 -6.257e-05 0)
(0.01878 0.02598 2.876e-22)
(0.0114 0.007596 2.651e-22)
(0.0001459 -5.519e-05 -4.824e-25)
(-8.284e-05 -0.0003277 0)
(0.03347 0.00301 5.332e-21)
(0.01965 -0.001834 0)
(-0.0001093 -0.0005373 -3.939e-24)
(0.07399 -0.07823 2.593e-20)
(-0.139 0.007616 0)
(0.03066 0.009426 0)
(-0.1522 0.04286 1.898e-20)
(0.0001275 -8.665e-05 0)
(0.9836 -0.1429 0)
(0.3471 -0.03382 0)
(0.0001007 -7.484e-05 -4.586e-23)
(0.1174 -0.01891 0)
(-0.01726 0.0001587 4.749e-21)
(-0.01728 -0.0004513 -7.122e-23)
(0.1259 -0.05458 0)
(0.4291 -0.08951 -5.742e-21)
(0.2716 -0.01703 0)
(0.1129 -0.01678 -1.24e-21)
(0.05274 0.01297 1.026e-21)
(-0.02136 0.005808 -6.236e-21)
(0.8719 -0.07182 2.358e-20)
(0.05125 0.01504 -2.462e-24)
(-0.1567 0.05603 8.471e-21)
(0.282 0.0231 -1.261e-20)
(0.4322 -0.03917 -1.276e-21)
(0.1099 -0.003032 1.12e-25)
(-0.1396 0.006372 0)
(1.103 0.4701 -7.242e-21)
(1.081 0.4589 5.622e-21)
(0.0003037 -0.0001039 0)
(0.05623 -0.07403 -2.165e-20)
(-0.02224 0.005073 1.977e-21)
(0.1286 -0.05893 0)
(-0.1884 0.06807 -1.24e-21)
(0.4337 -0.07647 2.71e-22)
(0.409 -0.03268 -7.951e-22)
(0.0234 -0.001661 -4.426e-23)
(0.9745 -0.03198 4.308e-20)
(-0.06536 0.01544 0)
(1.188 0.1506 -9.482e-21)
(1.001 -0.001027 2.412e-20)
(0.3253 -0.08067 2.727e-22)
(1.001 -0.001021 -2.169e-20)
(1.104 -0.08095 0)
(1.01 -0.00889 -1.511e-20)
(1.186 0.1521 -1.846e-20)
(0.5055 -0.04774 -6.589e-20)
(-0.1395 0.05501 -1.545e-21)
(0.7895 -0.05319 4.465e-21)
(1.001 0.000492 5.126e-20)
(-0.04313 0.003657 0)
(0.8655 -0.2322 -7.242e-21)
(1.092 0.1458 3.351e-20)
(0.7318 -0.05474 0)
(0.7429 -0.0542 1.221e-21)
(0.9909 -1.359e-05 0)
(0.3122 -0.02328 0)
(-0.01856 0.0001681 -2.236e-21)
(-0.1738 -0.0272 -7.295e-21)
(1.01 -0.00875 -8.345e-21)
(1.004 0.002872 -3.721e-22)
(-0.01863 -0.0003559 2.226e-21)
(1.011 0.03686 -2.285e-20)
(-0.152 0.05145 0)
(0.3365 -0.08856 -5.004e-22)
(1 0.0006934 0)
(0.1225 -0.05659 7.276e-24)
(0.03375 0.008709 1.018e-23)
(-0.03955 0.009505 3.943e-21)
(0.1357 -0.009413 0)
(-0.1416 -0.001511 1.629e-21)
(-0.1648 0.05708 0)
(0.5154 -0.05059 -2.887e-21)
(-0.003388 0.000366 1.462e-21)
(0.8647 -0.2296 0)
(0.9923 0.6068 0)
(0.9998 -0.006618 0)
(1.204 0.02485 0)
(1.147 0.7066 0)
(-0.1519 0.04276 -1.937e-20)
(-0.08713 0.01905 0)
(1.041 0.0511 1.53e-20)
(1.103 0.4619 1.527e-20)
(0.1913 -0.01367 0)
(-0.1699 0.05138 5.984e-21)
(1.088 0.1466 0)
(1 0.0006731 0)
(0.4583 -0.08308 0)
(0.6015 0.5598 -7.666e-22)
(1.081 -0.1239 0)
(-0.1677 0.05842 -2.906e-21)
(-0.1689 0.05118 8.541e-21)
(0.7466 -0.1167 -1.937e-21)
(0.9901 5.61e-05 0)
(0.6893 -0.2632 0)
(1.002 -0.0007796 3.44e-20)
(0.04218 -0.0002784 -1.699e-21)
(-0.003251 0.0001227 2.799e-21)
(-0.1283 0.03224 -1.931e-20)
(0.2485 0.5537 0)
(0.9962 0.009816 1.415e-20)
(1.028 -0.1676 -3.269e-22)
(0.99 0.04081 -6.973e-21)
(1.004 0.002998 -3.138e-20)
(1.011 0.03587 1.797e-20)
(-0.0007205 -0.003088 0)
(1.002 -0.0008303 -4.811e-20)
(-0.04512 0.01202 -9.765e-22)
(0.7638 -0.2804 0)
(1.082 -0.08853 1.307e-20)
(0.1287 -0.05699 3.475e-22)
(0.07986 -0.01027 -3.423e-21)
(-0.1583 0.04892 0)
(1.035 0.004862 1.045e-19)
(-0.07716 0.006337 -3.476e-21)
(0.3272 -0.09436 -6.421e-22)
(-0.1314 0.03914 0)
(-0.09578 0.0236 -7.37e-21)
(0.949 -0.08031 -8.728e-21)
(-0.1537 0.05195 0)
(-0.0001633 -0.0009737 -2.192e-23)
(-0.1346 0.04015 -3.679e-21)
(1.08 -0.04683 0)
(-0.1374 0.04089 4.037e-21)
(0.1546 -0.08743 -2.9e-21)
(1.105 -0.00702 9.174e-21)
(0.9526 -0.1717 7.972e-21)
(0.987 0.02857 4.569e-20)
(-0.06134 0.01539 1.005e-21)
(-0.08077 0.0307 -1.105e-20)
(-0.0627 0.01532 -3.345e-21)
(1.266 0.4738 4.231e-21)
(-0.03056 0.1701 6.48e-22)
(1.001 0.0004274 -4.632e-20)
(-0.09238 0.02265 6.168e-21)
(0.498 0.4346 -4.763e-22)
(1.083 -0.1157 -3.136e-21)
(0.4959 -0.09852 0)
(0.6111 0.0518 3.126e-20)
(0.8361 -0.1333 0)
(0.2749 -0.1801 0)
(-0.1436 -0.001331 0)
(1.105 -0.08001 -4.805e-21)
(0.3159 -0.1108 0)
(-0.1884 0.06801 -2.308e-21)
(0.167 -0.01499 8.739e-22)
(0.3427 -0.02118 0)
(0.02884 -0.0152 2.27e-21)
(0.9999 -0.006408 2.295e-22)
(-0.1322 0.03946 -9.097e-21)
(0.1908 -0.04915 0)
(-0.04763 0.004272 4.636e-21)
(-0.1338 0.0469 -4.449e-21)
(0.6748 -0.2223 1.594e-20)
(0.2222 0.06125 -2.753e-21)
(0.9426 0.04976 -6.409e-21)
(-0.01358 0.003674 0)
(-0.08172 0.0313 5.131e-21)
(1.02 -0.178 -7.894e-22)
(0.8883 -0.2564 -2.142e-21)
(0.9787 -0.0007781 3.675e-20)
(-0.068 0.004167 7.951e-23)
(1.249 0.5407 -7.05e-22)
(-0.07731 0.006555 -3.438e-21)
(0.4004 -0.0405 0)
(1.007 -0.01891 5.652e-21)
(0.8872 -0.2568 -7.328e-22)
(1.008 0.0012 0)
(-0.05314 -0.01142 1.117e-21)
(-0.06805 0.003422 -7.986e-23)
(0.3382 -0.09891 1.344e-21)
(-0.1367 0.05431 2.725e-21)
(1.033 0.3019 -6.297e-21)
(0.2675 0.5701 -3.668e-21)
(0.3744 -0.03679 -2.327e-21)
(1.026 -0.02769 4.34e-20)
(-0.09341 0.01764 1.968e-21)
(-0.07979 0.0115 -8.771e-21)
(1.078 -0.04594 6.797e-20)
(0.3782 0.9336 3.675e-23)
(-8.652e-05 -0.001006 3.655e-23)
(-0.151 0.04458 0)
(1.003 1.232e-06 0)
(0.9985 -7.391e-07 2.647e-22)
(0.01363 0.007443 0)
(0.9911 0.01405 4.481e-21)
(1.011 0.007355 3.062e-20)
(0.9313 0.007324 1.077e-19)
(0.9906 -0.04391 8.71e-21)
(-0.1625 0.05812 -4.247e-21)
(-0.000113 -0.0006257 5.305e-25)
(0.6347 -0.03947 4.474e-21)
(1.01 -0.0939 -1.754e-21)
(0.9982 -0.1771 2.587e-22)
(0.5516 -0.1126 3.245e-21)
(0.9962 0.009502 -7.278e-21)
(1.158 -0.04046 1.852e-20)
(-0.1241 0.00228 1.071e-21)
(0.9945 -0.004422 1.033e-20)
(0.2338 0.06243 -2.947e-21)
(-0.1045 0.03149 3.696e-24)
(0.01824 0.00176 0)
(-0.01341 0.004514 -3.882e-22)
(0.9808 -0.1914 -6.133e-22)
(-0.1332 0.03583 -1.309e-20)
(1.012 -0.09273 -5.514e-22)
(1.239 0.536 -1.402e-21)
(1.001 0.00491 -5.16e-21)
(0.4834 -0.09494 1.276e-22)
(-0.04179 0.0141 3.748e-21)
(0.1534 -0.0146 0)
(-0.02136 0.007166 0)
(0.2364 -0.06015 -4.715e-22)
(0.3435 0.03276 1.342e-20)
(-0.05847 0.01995 1.464e-21)
(-0.1699 0.0529 7.603e-21)
(-0.1497 0.04142 1.218e-20)
(1.009 0.0003968 -6.284e-21)
(-0.177 -0.02697 1.45e-20)
(-0.0001018 -0.007247 0)
(-0.1499 0.04147 0)
(1.068 -0.07452 1.312e-20)
(-0.1322 0.03968 4.379e-21)
(0.002225 -0.0003418 2.247e-23)
(1.011 0.007147 -2.847e-20)
(-0.09269 0.01761 9.988e-21)
(-0.08152 0.01191 8.242e-21)
(-0.05756 0.003195 -7.829e-21)
(-0.1456 0.03954 -6.457e-22)
(0.3275 -0.1161 4.314e-25)
(0.3539 0.04668 0)
(-0.0005746 -0.003186 1.731e-26)
(0.6324 -0.1286 -6.118e-22)
(-0.01744 0.0003294 0)
(-0.00323 0.0008914 5.217e-22)
(1.001 -3.03e-05 -1.041e-21)
(1.221 0.3878 -1.618e-20)
(0.1162 -0.01297 2.524e-21)
(0.9365 -0.2202 0)
(-0.1217 0.03525 0)
(0.437 -0.1055 4.199e-22)
(0.7081 -0.2677 0)
(1.034 0.004327 -8.195e-20)
(0.4178 0.1366 0)
(0.9398 -0.2366 0)
(0.8706 0.228 1.132e-20)
(-0.143 0.04477 -5.595e-21)
(1.01 -0.01408 6.075e-21)
(1.201 0.02595 1.908e-22)
(0.9863 0.02761 -3.705e-20)
(0.1241 0.01978 0)
(-0.05268 0.004213 -2.458e-21)
(-0.06487 0.02091 5.996e-21)
(0.2362 -0.1696 0)
(0.5495 -0.1689 3.933e-20)
(1.22 0.1703 -6.115e-21)
(0.2011 -0.03565 0)
(0.9745 -0.001462 -4.43e-20)
(-0.1866 0.06531 -1.597e-21)
(-0.09386 0.01733 -1.049e-20)
(0.9381 -0.06006 7.149e-21)
(-0.09261 0.01788 -9.508e-21)
(-0.1294 0.03287 0)
(0.504 -0.07992 2.557e-21)
(0.9557 -0.002334 -7.289e-22)
(0.8866 -0.2586 2.214e-21)
(1.003 -0.0003916 4.188e-22)
(1.039 0.0547 2.423e-21)
(1.082 -0.1235 -9.401e-24)
(0.995 0.002979 0)
(1.003 0.01033 3.087e-21)
(-0.0003951 -0.00101 -5.306e-24)
(-0.1307 0.03753 0)
(0.9964 0.01071 7.656e-21)
(0.4604 -0.06527 2.366e-21)
(1.006 -0.01894 7.509e-21)
(0.6702 0.04854 -4.238e-20)
(0.9744 -0.1803 0)
(1.067 -0.07542 -1.292e-20)
(1.003 -0.193 0)
(0.997 -0.006463 -6.269e-21)
(0.6762 -0.2772 -3.69e-22)
(0.2593 -0.02054 1.84e-21)
(0.009405 -0.0328 -7.58e-22)
(-0.146 0.03997 2.491e-21)
(1.222 0.1701 4.348e-21)
(0.1905 -0.02092 -1.001e-21)
(0.9153 -0.2167 -9.187e-22)
(0.7835 -0.2212 -1.078e-20)
(1.028 -0.1671 3.15e-21)
(0.1458 -0.0106 0)
(0.4688 -0.2663 3.528e-23)
(1.002 -0.1774 8.656e-23)
(0.9943 -0.00457 0)
(-0.02769 0.02064 -8.902e-24)
(1.021 -0.107 -3.842e-21)
(0.6957 -0.1099 -2.475e-21)
(0.01148 -0.03211 -7.467e-23)
(0.299 -0.07291 0)
(1.002 -0.0005083 9.369e-22)
(0.9922 0.003586 -2.119e-20)
(1.098 0.4708 6.001e-22)
(0.1022 0.02116 7.287e-21)
(0.181 -0.01977 2.369e-21)
(1.191 0.04667 2.59e-20)
(0.9123 -0.01519 -1.163e-22)
(0.9823 -0.1417 0)
(0.2977 -0.02049 -3.121e-21)
(1.062 0.01247 2.36e-20)
(0.9356 -0.2194 1.684e-22)
(1.077 0.4572 0)
(0.09649 0.01874 -1.539e-20)
(0.9113 -0.03715 4.957e-20)
(0.04697 -0.01496 -6.436e-24)
(0.3233 -0.003733 1.833e-21)
(1.214 0.6022 6.56e-21)
(-0.1646 0.06073 0)
(1.003 0.0102 -3.367e-21)
(0.8772 -0.07312 -9.066e-20)
(1.003 8.582e-06 0)
(0.9984 2.987e-08 0)
(0.8359 -0.1295 0)
(0.7014 -0.2649 -2.438e-21)
(1.019 -0.1781 -7.602e-22)
(-0.1648 0.06113 -2.208e-21)
(-0.1197 0.03383 -2.465e-20)
(1.102 -0.008728 -4.129e-20)
(0.981 -0.1916 0)
(-0.04651 0.01819 3.087e-21)
(-0.09077 0.01803 1.603e-21)
(0.1898 0.1441 -1.789e-22)
(0.4513 -0.06288 -1.539e-21)
(-0.05959 0.01497 -4.089e-21)
(-0.1045 0.02376 6.577e-21)
(0.2144 -0.02547 -1.919e-21)
(-0.06813 0.006516 0)
(0.2271 -0.02481 1.594e-21)
(-0.0616 0.02975 5.732e-21)
(-0.08759 0.01898 -1.625e-21)
(-0.09186 0.01791 6.965e-21)
(0.9223 0.05189 0)
(-0.06787 0.01719 -1.046e-20)
(-0.1228 0.03548 -6.155e-21)
(1.263 0.441 -3.749e-21)
(1.004 -0.006224 5.775e-21)
(0.3093 -0.003007 0)
(-0.1814 0.05919 -2.396e-21)
(0.8282 -0.05584 1.303e-21)
(0.5435 -0.07557 -3.262e-20)
(0.4286 -0.03059 0)
(0.4149 -0.03495 -2.495e-21)
(1.002 0.002396 1.783e-22)
(0.9914 0.01375 -1.344e-20)
(0.8908 -0.001627 0)
(-0.03408 0.006267 2.087e-21)
(0.96 -0.001751 0)
(0.3816 -0.02716 5.552e-20)
(1.063 0.0103 -5.031e-20)
(0.1428 -0.01562 -2.424e-21)
(0.4058 -0.02901 3.02e-21)
(1.026 -0.02631 0)
(1.156 0.04614 -6.182e-22)
(0.2839 -0.02469 2.094e-21)
(0.005873 -0.008996 2.067e-26)
(-0.1712 0.05437 -1.468e-20)
(0.9621 -0.005163 3.523e-21)
(0.4335 -0.02728 -5.426e-20)
(0.09279 -0.01196 3.448e-21)
(0.2436 -0.03093 0)
(0.9132 -0.2189 -3.839e-21)
(0.9904 0.03929 0)
(0.0442 -0.003209 0)
(0.9615 0.1564 0)
(0.1168 -0.003763 0)
(-0.1536 0.0454 -1.695e-21)
(0.1918 0.01372 -3.678e-20)
(1.011 -0.006807 -4.33e-20)
(0.7522 -0.1921 0)
(-0.03652 0.01203 1.014e-21)
(0.4392 -0.1127 5.081e-22)
(0.3713 -0.03352 4.7e-21)
(0.2564 -0.01637 1.996e-21)
(0.7567 -0.1945 -8.957e-21)
(0.2951 -0.0182 0)
(0.9208 0.05016 0)
(1.009 -0.01434 0)
(0.1231 -0.01049 -6.02e-22)
(1.001 0.004665 1.854e-21)
(-0.137 0.03776 0)
(-0.05637 -0.01084 0)
(0.9671 0.1583 0)
(1.042 -0.1261 2.309e-21)
(-0.1717 0.05993 -1.493e-20)
(0.9283 -0.08579 6.386e-21)
(1 0.0005927 -7.979e-20)
(0.432 -0.04477 0)
(0.6885 -0.2983 0)
(0.2163 -0.02847 -2.047e-21)
(0.9539 -0.1706 -8.238e-21)
(-0.1865 0.06827 0)
(0.7771 -0.2842 0)
(-0.08905 0.01954 -6.861e-21)
(-0.1695 0.04889 -1.443e-20)
(0.1727 -0.03326 0)
(0.8982 0.0896 6.969e-21)
(0.5416 -0.2179 -1.255e-21)
(-0.1378 0.04882 0)
(-0.01565 0.005463 -1.535e-21)
(-0.09349 0.02726 0)
(1.003 0.0001653 -8.777e-23)
(-0.1703 0.05303 -9.447e-21)
(0.9268 0.2715 -3.599e-21)
(1.075 0.4467 3.947e-22)
(0.9211 -0.1586 -9.281e-21)
(-0.06059 0.003964 7.954e-21)
(0.9916 -0.115 -4.278e-22)
(1.003 -0.0002027 0)
(-0.09326 0.02746 0)
(-0.08301 0.01861 0)
(1.169 -0.05405 1.119e-19)
(0.9388 0.1645 7.094e-22)
(1.002 0.002346 -5.892e-21)
(1.004 -0.1556 2.117e-21)
(-0.06119 0.01449 -7.707e-21)
(0.9752 -0.03087 -1.631e-20)
(0.9968 -0.006361 0)
(0.9981 -0.0007662 -4.473e-21)
(0.4378 -0.0351 1.288e-21)
(1.078 -0.05133 -2.359e-20)
(0.7019 -0.2711 3.503e-21)
(0.962 0.03454 0)
(0.2036 -0.01479 -1.21e-22)
(0.9898 0.002914 4.871e-20)
(0.3407 -0.2289 0)
(0.875 -0.005199 -2.527e-21)
(-0.124 0.0009364 1.046e-21)
(-0.1707 0.05004 0)
(0.2836 -0.03695 -8.793e-24)
(1.058 -0.1271 -6.414e-21)
(-0.03248 0.005593 1.184e-20)
(0.8615 0.08917 -1.403e-22)
(-0.1707 0.05952 -1.429e-21)
(0.1833 -0.02224 -1.011e-21)
(-0.06503 0.003984 0)
(-0.1774 0.06327 0)
(1.145 0.1215 4.481e-21)
(0.9739 -0.08399 2.925e-21)
(-0.03512 0.01147 8.677e-21)
(-0.03061 0.03097 0)
(0.3195 0.514 -1.756e-20)
(-0.0451 0.0111 -1.091e-24)
(0.9935 -0.0009194 0)
(1.004 0.02499 0)
(-0.106 0.02491 0)
(-0.06066 0.01651 4.127e-21)
(0.9991 -0.0001416 0)
(-0.172 0.05154 6.351e-21)
(1.205 0.04639 2.121e-20)
(1.082 -0.08705 -1.98e-20)
(0.1291 0.02076 -2.445e-21)
(1.015 -0.07835 -3.403e-21)
(1.004 -9.843e-05 0)
(0.2116 -0.1146 -1.599e-20)
(1.203 0.04669 -2.088e-20)
(-0.06069 0.0211 -9.285e-22)
(0.03944 0.02257 8.173e-22)
(0.1205 -0.0635 2.498e-22)
(0.3348 -0.2272 -1.846e-21)
(-0.06129 0.009855 2.148e-21)
(0.3 -0.0707 0)
(0.6922 -0.2924 0)
(0.9669 0.1684 -7.048e-22)
(0.1306 0.02515 -5.846e-22)
(1.01 0.001761 3.587e-20)
(0.1934 -0.01657 -1.726e-21)
(0.9732 0.01069 3.995e-20)
(1.217 0.535 2.13e-22)
(0.5527 -0.05488 2.54e-21)
(-0.07351 0.01281 0)
(1.267 0.4586 1.878e-21)
(-0.0001912 -0.001054 0)
(-0.1186 0.03601 1.007e-20)
(0.265 0.3391 5.528e-21)
(1.089 -0.03001 -2.677e-22)
(1.017 0.7241 6.867e-21)
(0.9942 -0.002306 -6.399e-20)
(0.1177 -0.06612 0)
(1.005 0.02504 1.889e-23)
(-0.1383 0.04092 0)
(-0.1471 0.04365 -5.818e-21)
(-9.046e-05 -0.0005483 0)
(0.001085 0.0003572 3.111e-23)
(0.00117 -0.000428 -9.69e-24)
(1 -0.0002771 -3.133e-20)
(-0.06975 0.01778 0)
(0.4873 0.09895 0)
(0.9924 0.003718 4.114e-20)
(-0.1765 0.06257 3.617e-21)
(0.7355 -0.2711 4.375e-21)
(-0.122 0.03936 9.334e-21)
(1.051 -0.152 0)
(-0.1707 0.04987 0)
(0.278 -0.03424 -1.5e-21)
(-0.1719 0.05152 -6.444e-21)
(-0.01138 0.002146 5.063e-22)
(0.9986 -0.0006411 0)
(-0.1035 -0.008509 -1.427e-21)
(0.0001404 -6.799e-05 0)
(0.4882 -0.1992 7.911e-22)
(0.2063 -0.02013 7.353e-22)
(-0.01497 0.003872 3.588e-22)
(1.011 -0.008242 -1.312e-20)
(1.086 -0.1152 -3.402e-21)
(0.9931 -0.0445 -2.599e-21)
(-0.01665 0.02905 1.089e-20)
(1 -0.005036 0)
(0.1703 -0.01326 0)
(0.2894 0.136 0)
(-0.04691 0.01582 -1.632e-21)
(0.9983 2.681e-05 0)
(-0.1063 0.02532 -6.346e-21)
(1.053 -0.09824 -9.115e-21)
(0.001018 -0.002096 8.086e-26)
(0.6606 -0.2948 1.834e-21)
(0.2117 0.06255 6.412e-22)
(-0.01392 0.02358 -3.628e-21)
(0.9709 0.003438 2.659e-21)
(-0.0899 0.03155 -1.422e-21)
(0.7783 -0.2898 -2.73e-21)
(0.999 -0.0001426 3.513e-21)
(0.9144 -0.2185 5.148e-21)
(0.9927 0.09983 -3.06e-20)
(0.2826 -0.02347 -1.674e-21)
(0.4416 -0.03013 1.975e-21)
(-0.05582 0.01522 -4.07e-21)
(-0.03955 0.01348 7.373e-22)
(-0.1515 0.04475 2.969e-21)
(1.144 0.1755 0)
(0.5936 -0.2358 1.109e-21)
(-0.1352 0.04654 0)
(-0.09736 0.02856 1.846e-22)
(1.018 -0.003066 -6.801e-21)
(0.1294 -0.00468 1.971e-22)
(-0.1461 0.04251 -5.832e-21)
(0.2081 -0.0332 2.494e-21)
(0.8822 -0.09509 -5.755e-21)
(-0.1648 0.0497 2.505e-21)
(1 0.001236 0)
(0.9998 0.001568 1.376e-20)
(0.8772 0.2188 -1.841e-20)
(-0.05775 0.01428 -1.957e-21)
(0.9947 0.7592 0)
(0.9911 0.004443 -2.805e-20)
(1.003 1.889e-05 -4.926e-22)
(0.7897 -0.2813 0)
(0.384 -0.1688 0)
(-0.1735 0.06119 4.685e-21)
(0.6907 -0.293 0)
(-0.03819 0.0131 2.551e-21)
(-0.01462 0.004814 0)
(0.9707 -0.2129 -2.509e-22)
(1.009 0.03199 0)
(1 -0.0003888 5.967e-21)
(-0.05198 0.0184 1.433e-21)
(-0.174 0.05095 -5.577e-21)
(0.8653 -0.2032 4.313e-22)
(1.003 -0.001047 9.937e-21)
(-0.01906 0.0004188 1.078e-21)
(0.9615 -0.09529 0)
(-0.1012 0.02857 7.073e-21)
(0.9623 -0.003953 9.04e-21)
(0.1395 -0.0165 2.03e-22)
(0.991 0.004188 5.154e-20)
(-0.1739 0.06096 -2.482e-21)
(-0.06397 -0.01408 0)
(0.132 0.01826 6.929e-22)
(1 1.98e-05 1.713e-22)
(-0.06619 0.02196 -5.492e-21)
(-0.1424 0.04426 -1.33e-21)
(0.05155 -0.03187 -3.207e-21)
(1.004 -9.013e-05 -1.453e-21)
(0.7728 -0.1231 1.955e-21)
(-0.0136 0.004493 1.806e-22)
(0.9982 -0.0008507 0)
(1.044 -0.1273 0)
(0.993 0.009432 -8.874e-22)
(0.5536 -0.03575 2.584e-21)
(0.07231 0.01775 0)
(0.9951 0.002789 2.869e-20)
(-0.04759 0.01224 9.304e-21)
(0.323 -0.04452 1.235e-21)
(0.009969 -0.03453 0)
(-0.0919 0.01425 -1.136e-20)
(-0.03871 0.01515 -2.162e-21)
(0.2401 -0.02532 -4.773e-21)
(0.2518 -0.02945 -1.457e-21)
(0.1744 -0.01156 -2.175e-20)
(0.4589 -0.04293 -1.103e-21)
(1.169 0.7231 8.39e-22)
(0.4704 -0.02081 -2.293e-21)
(-0.09747 0.0268 -1.779e-21)
(-0.01639 0.01175 -4.281e-21)
(0.1655 -0.01485 8.343e-22)
(1.003 -0.001014 0)
(0.3116 -0.0645 7.573e-23)
(0.9938 0.003287 -1.18e-20)
(0.2058 0.1623 -1.579e-20)
(1.037 0.02015 4.168e-20)
(-0.05714 0.01544 1.43e-20)
(1.003 -0.0002389 0)
(0.9961 0.01054 2.001e-20)
(1.108 -0.08003 2.285e-20)
(0.5506 -0.2222 6.495e-22)
(-0.1455 0.03938 8.999e-21)
(1.003 -0.0005165 8.815e-21)
(1.002 -0.001358 -1.382e-20)
(-0.06275 0.02109 -1.486e-21)
(0.02521 0.005063 0)
(-0.04742 0.0113 4.113e-21)
(0.1996 -0.01637 -2.863e-21)
(-0.1687 0.02552 0)
(0.7015 -0.27 -3.219e-21)
(-0.1717 0.05031 -1.239e-21)
(0.6871 -0.2989 0)
(-0.09004 0.01813 -2.205e-22)
(-0.07954 0.02379 -1.704e-20)
(-0.04215 0.003289 0)
(1.003 -0.0005448 -1.564e-21)
(-0.0646 0.004165 7.972e-21)
(-0.08992 0.01838 7.93e-22)
(1.024 -0.161 -7.798e-22)
(1.217 0.1128 0)
(0.9995 -0.00566 -1.518e-20)
(1.003 2.101e-05 4.64e-23)
(0.1324 0.01948 -1.443e-20)
(0.1794 -0.1015 2.483e-24)
(0.1302 0.02667 2.93e-21)
(-0.007156 0.002191 3.093e-22)
(1.036 0.02101 0)
(1.004 -1.09e-05 2.245e-23)
(-0.1111 0.03461 0)
(-0.06817 0.005642 0)
(0.9344 0.007333 -8.556e-20)
(-0.03844 0.004476 -2.208e-21)
(1.02 -0.1357 0)
(0.9951 0.00486 -2.048e-20)
(-0.05852 0.0177 6.254e-21)
(0.9561 -0.2275 -2.549e-22)
(-0.08778 0.01842 5.087e-21)
(0.8325 -0.1597 -3.511e-20)
(0.0002929 -9.26e-05 0)
(-0.02277 0.007458 0)
(-0.1784 0.06367 -1.282e-21)
(-0.1699 0.05989 2.679e-21)
(-0.1314 0.03734 0)
(-0.08001 0.01305 7.347e-21)
(0.1584 -0.02217 -4.542e-22)
(-0.05836 0.009053 0)
(0.9672 -0.0239 -1.004e-20)
(-0.08094 0.008258 1.539e-20)
(-0.001061 -0.02021 0)
(-0.1366 0.03805 -9.691e-21)
(1.001 -0.0009861 3.167e-20)
(0.5372 -0.08344 -1.914e-21)
(0.8454 -0.2239 0)
(0.5501 0.03062 -2.859e-20)
(0.9983 1.087e-05 3.25e-23)
(1.001 -0.00102 -4.219e-20)
(0.002807 -0.004616 0)
(1.089 -0.02783 -6.515e-21)
(0.3533 -0.06752 6.852e-22)
(-0.08228 0.01349 -5.113e-22)
(0.4954 -0.2763 0)
(-0.02921 0.01997 1.412e-20)
(1.203 0.2016 0)
(0.1738 -0.0143 8.418e-22)
(0.6806 0.005384 4.544e-20)
(0.4461 -0.1216 0)
(1.009 0.001541 -1.297e-20)
(1.003 -0.0005911 0)
(1.228 0.4133 0)
(0.9364 0.2729 0)
(-0.03775 0.007315 5.116e-22)
(0.557 0.01775 0)
(0.2424 -0.09945 2.193e-21)
(-0.1725 0.04475 0)
(0.4561 -0.1905 -1.746e-21)
(1.156 -0.03997 1.171e-19)
(0.6008 -0.0783 4.752e-20)
(1.001 5.935e-05 -8.475e-23)
(0.2254 -0.01455 -5.557e-22)
(1.017 -0.0776 -5.847e-22)
(0.4057 -0.09476 -1.819e-22)
(-0.0002132 -0.001111 5.198e-24)
(0.9446 -0.1487 6.756e-22)
(0.1678 0.03082 -1.983e-20)
(-0.1716 0.05456 1.475e-20)
(1 3e-05 -1.596e-22)
(0.8038 -0.08633 1.045e-22)
(0.4057 -0.03448 -3.264e-21)
(-0.01375 0.004709 0)
(-0.04346 -0.01816 7.907e-21)
(-0.07775 0.03495 6.477e-21)
(-0.09012 0.01821 -3.348e-21)
(0.5507 0.4729 0)
(-0.169 0.04872 1.383e-20)
(0.4434 -0.2392 2.955e-21)
(-0.1392 0.0425 -1.891e-21)
(0.4821 -0.1184 9.509e-23)
(0.7355 -0.07855 3.087e-21)
(1.033 -0.1085 1.822e-21)
(-0.1569 0.04848 5.102e-21)
(0.9975 -0.1711 -7.406e-22)
(0.001147 -6.843e-05 0)
(0.8427 -0.2251 0)
(0.9427 0.04594 3.198e-20)
(0.7472 -0.1712 -4.267e-23)
(0.6631 -0.2866 2.784e-21)
(0.5599 -0.05839 -7.189e-22)
(1.005 -0.0006393 0)
(-0.0288 -0.01475 -9.335e-22)
(-0.05492 0.02965 -1.135e-20)
(-0.1744 0.0616 -4.385e-21)
(1.004 2.226e-06 -8.036e-23)
(-0.007003 0.002613 0)
(-0.09824 0.02936 0)
(0.1401 -0.01836 3.472e-21)
(1.002 6.672e-05 5.029e-22)
(-0.05482 0.00874 4.485e-21)
(-0.1207 0.03789 0)
(-0.05721 0.01103 7.922e-21)
(-0.07798 0.007957 -5.871e-21)
(1.001 1.11e-05 -4.31e-22)
(-0.1771 0.06246 -7.389e-21)
(-0.0003977 -0.003913 0)
(-0.05494 0.01601 7.318e-21)
(-0.121 0.03417 0)
(0.9899 0.01506 -5.258e-21)
(-0.04468 0.01805 2.829e-21)
(0.0317 0.1461 0)
(1.018 0.002 -1.375e-20)
(0.9888 -0.1846 -7.442e-22)
(0.979 -0.1996 0)
(-0.082 0.01303 -7.58e-21)
(-0.1197 0.03596 0)
(0.9153 -0.2151 -3.01e-21)
(0.9335 -0.1473 0)
(0.102 -0.01287 4.968e-22)
(-0.07136 0.02244 0)
(0.9988 -4.053e-07 -4.609e-22)
(-0.1772 0.06252 7.053e-21)
(-0.1563 0.06113 7.074e-22)
(0.1164 -0.009203 0)
(0.2367 -0.03302 1.552e-21)
(1.191 0.1437 0)
(-0.1756 0.06209 0)
(-0.04189 0.01426 1.906e-22)
(0.9986 2.03e-05 1.912e-22)
(-0.1261 0.0412 -9.393e-21)
(-0.05902 0.01721 0)
(0.02556 0.02177 0)
(0.0003936 -0.008585 -5.695e-24)
(0.03446 0.02308 -2.971e-21)
(-0.04764 0.01647 2.553e-21)
(-0.117 0.02815 -2.324e-21)
(-0.1373 0.03167 0)
(0.9636 -0.2191 0)
(1 -0.0002701 1.536e-20)
(8.226e-05 -3.215e-05 -3.684e-24)
(-0.1369 0.04029 1.166e-20)
(-0.09399 0.01489 1.093e-20)
(-0.03841 0.01372 7.502e-22)
(-0.1836 0.06606 -9.119e-21)
(-0.09134 0.03196 5.733e-21)
(-0.09614 0.03083 -2.84e-21)
(0.3376 -0.02563 0)
(1 -0.0003625 0)
(-0.05576 0.01369 0)
(1.074 -0.131 -1.798e-23)
(1.002 2.646e-05 0)
(-0.08687 0.02674 -9.104e-21)
(1.221 0.5349 0)
(0.7278 -0.1116 1.888e-21)
(0.7782 -0.2777 -1.346e-21)
(1.004 -5.094e-05 -5.831e-21)
(-0.1714 0.05027 0)
(-0.06732 0.006703 0)
(1.01 0.001808 -4.184e-20)
(1.004 -5.709e-05 0)
(1.216 0.1109 0)
(-0.1441 0.05727 5.801e-21)
(-0.1689 0.02641 -2.34e-21)
(-0.09498 0.03335 2.709e-21)
(-0.1756 0.06191 6.617e-21)
(0.02984 0.0006212 5.239e-24)
(1.061 -0.1393 0)
(0.6897 -0.1495 -2.563e-20)
(1.002 -0.001034 0)
(-0.156 0.04851 -7.073e-21)
(-0.1471 0.05207 0)
(0.2801 -0.01677 -1.679e-21)
(0.1639 -0.01321 0)
(0.6773 -0.2198 -1.505e-20)
(1.004 -0.0003065 0)
(1.011 -0.00786 1.888e-21)
(1 -0.001115 2.457e-20)
(-0.01797 -5.65e-06 1.16e-21)
(1.002 -0.0009726 5.56e-21)
(1.146 -0.04925 -4.424e-20)
(0.2069 -0.1243 5.704e-22)
(0.815 -0.1048 3.897e-21)
(0.1089 -0.01804 -1.648e-21)
(1.001 -0.001269 0)
(-0.1011 0.003396 -1.856e-21)
(0.7991 -0.09704 -2.546e-21)
(1.001 0.005916 0)
(0.2189 -0.02583 1.773e-21)
(0.9992 -0.0001766 0)
(0.5572 -0.2831 4.696e-21)
(-0.009589 0.02612 -1.749e-21)
(-0.0669 0.01002 -1.09e-22)
(0.4521 0.05798 0)
(0.08963 -0.002081 2.018e-22)
(0.9993 -0.007075 6.139e-22)
(-0.0539 0.0146 0)
(0.8242 -0.1692 -9.24e-21)
(0.1759 -0.0127 0)
(0.008159 -0.02198 -6.832e-22)
(0.1667 -0.01987 7.745e-22)
(0.4114 0.5741 -1.289e-21)
(1.19 0.1457 -8.66e-21)
(1.001 -0.1805 4.988e-22)
(0.7462 -0.2599 5.177e-23)
(0.0302 -0.002123 0)
(0.9996 0.007141 0)
(0.5648 0.02921 2.665e-20)
(0.3864 -0.1246 0)
(0.3544 0.08623 2.795e-22)
(-0.0007193 -0.01945 3.322e-22)
(0.06196 -0.01118 0)
(1.003 -0.0002878 0)
(1.077 -0.1015 3.446e-20)
(-0.05153 0.01761 -6.888e-22)
(0.1203 -0.02935 -6.632e-22)
(-0.008748 0.0001685 4.281e-21)
(0.6704 0.1473 0)
(0.003304 -0.003322 -3.559e-22)
(0.3125 0.06753 -1.04e-21)
(-0.0003595 5.212e-05 1.239e-21)
(-0.1032 0.02687 -5.652e-21)
(-0.0423 0.01477 1.601e-21)
(-0.04693 0.01375 5.209e-21)
(0.04985 -0.003705 6.892e-22)
(1.003 0.0385 -8.211e-22)
(0.663 -0.09652 0)
(1.004 3.409e-05 0)
(1 1.376e-05 0)
(-0.08331 0.01727 7.561e-21)
(1.041 0.04025 1.477e-21)
(-0.08681 0.01335 8.554e-21)
(-0.1813 -0.03621 -2.009e-20)
(0.2466 0.522 0)
(1.095 -0.1025 -1.491e-20)
(1.045 -0.03684 -2.45e-20)
(0.9735 0.4261 2.232e-21)
(0.7152 -0.1661 1.807e-22)
(1.011 -0.006708 3.035e-20)
(0.1055 0.003353 1.905e-22)
(-0.148 0.05206 -2.091e-21)
(1.043 -0.03501 3.376e-20)
(-0.043 0.01013 -1.011e-20)
(-0.006129 0.002189 -6.428e-22)
(-0.05271 -0.01478 0)
(0.9771 -0.2026 0)
(0.05191 -0.01582 -5.306e-21)
(-0.04577 0.03061 0)
(-0.07969 0.02793 0)
(0.9952 -0.0008964 2.469e-20)
(-0.07042 0.01285 6.666e-21)
(0.4149 -0.09515 1.975e-22)
(1.004 -0.006038 0)
(-0.05292 0.01344 4.65e-21)
(-0.146 0.04231 0)
(-0.128 0.04989 -2.762e-21)
(0.9992 -0.0001248 1.66e-21)
(0.8602 -0.004145 4.522e-21)
(0.2742 -0.02311 0)
(0.02224 0.0009594 1.034e-23)
(0.8252 -0.2743 -3.405e-21)
(-0.006068 0.001984 0)
(-0.1733 0.05064 6.594e-21)
(0.6886 -0.2997 0)
(0.7869 -0.1756 -1.183e-23)
(-0.008939 0.002985 0)
(-0.06599 0.004595 1.985e-21)
(1 1.868e-05 -9.115e-23)
(0.1634 -0.0957 0)
(1.156 0.3352 -1.066e-20)
(1.004 3.249e-05 0)
(0.7331 -0.2778 1.106e-22)
(0.00179 -0.0006982 4.361e-23)
(0.3539 -0.009248 -7.548e-21)
(0.04282 0.01022 -5.806e-21)
(1.139 -0.0521 6.494e-21)
(1.037 -0.1627 6.261e-22)
(-0.00355 0.001083 2.937e-26)
(0.01618 -0.001589 -1.308e-22)
(0.3419 -0.03749 0)
(1.008 0.0317 -6.79e-21)
(0.9974 0.00325 6.267e-21)
(0.9874 -0.1927 0)
(0.6535 -0.2842 -1.149e-21)
(-0.1111 0.03733 -1.217e-20)
(-0.04818 0.01114 0)
(0.2842 0.7416 -3.774e-21)
(0.2065 -0.08685 -1.197e-21)
(0.3357 0.001231 -1.034e-22)
(1.144 0.1332 -2.019e-20)
(0.2021 -0.0844 -1.155e-21)
(1.112 -0.007292 4.503e-20)
(-0.0251 0.001912 0)
(1.005 0.0001266 0)
(-0.1869 0.06806 6.489e-22)
(0.007891 -0.03263 -2.14e-23)
(-0.09711 0.0296 -1.534e-20)
(-0.09713 0.02859 0)
(-0.1735 0.05097 0)
(0.996 0.001768 -1.973e-20)
(0.984 -0.0007031 1.367e-20)
(-0.046 0.01619 0)
(0.9346 -0.1862 6.82e-21)
(-0.1079 0.03719 0)
(0.379 -0.04808 0)
(-0.07184 0.02613 -2.686e-21)
(-0.1809 0.0555 -2.337e-21)
(0.2821 0.03643 -2.384e-21)
(0.1076 0.02538 -1.913e-21)
(-0.07313 0.005861 -9.339e-21)
(0.0291 -0.004352 -7.634e-22)
(-0.06995 0.01935 -5.959e-21)
(0.2388 -0.01648 1.131e-21)
(-0.05608 0.01672 5.857e-21)
(1.051 -0.1301 -4.826e-21)
(-0.1817 0.06508 6.325e-21)
(0.3973 0.9336 -4.189e-23)
(-0.09361 0.03269 -1.674e-22)
(0.006366 -0.0304 9.269e-23)
(0.0006651 -0.0003076 0)
(-0.1726 0.05082 0)
(1.005 -0.0006082 0)
(1.004 -0.002121 2.054e-20)
(-0.1764 0.06236 5.103e-21)
(-0.1774 0.06045 0)
(1.024 -0.1644 4.975e-21)
(1.003 1.96e-05 0)
(0.6529 -0.2989 -3.233e-21)
(-0.1717 0.05025 6.442e-21)
(1.116 -0.07335 -1.88e-20)
(-0.07791 0.0266 0)
(0.2267 0.02744 -2.426e-20)
(-0.0671 0.02106 -6.781e-21)
(1.104 0.6044 -1.093e-20)
(0.9999 0.0005805 -5.098e-20)
(1.002 -0.1685 0)
(1.133 -0.0367 -1.16e-20)
(0.1277 -0.04999 0)
(0.1497 -0.01096 0)
(-0.1037 0.02985 9.304e-22)
(0.7141 -0.1993 1.369e-20)
(0.5696 0.02935 4.61e-20)
(-0.03624 0.006524 0)
(0.3548 -0.02979 -1.016e-21)
(1.003 -0.07541 0)
(-0.167 0.04871 0)
(0.6471 -0.2984 3.471e-21)
(0.5524 -0.06348 2.975e-21)
(-0.1353 0.04765 0)
(0.1989 -0.08632 -1.347e-21)
(1.006 -0.008861 -1.025e-21)
(-0.01084 0.003858 0)
(-0.003816 0.001085 0)
(-0.1543 0.06049 0)
(-0.09457 0.01474 1.639e-20)
(0.02901 0.007624 -7.327e-21)
(1.001 0.01415 9.105e-22)
(-0.007256 0.001859 1.725e-21)
(0.03384 -0.006128 0)
(1.001 -0.0001502 0)
(0.9995 -5.95e-05 -1.187e-20)
(-0.08052 0.01175 5.627e-25)
(-0.1488 0.04058 2.782e-20)
(0.0009048 -0.0003759 -4.403e-23)
(0.004919 -0.02969 3.43e-22)
(0.6856 -0.09974 -5.315e-22)
(0.4491 -0.167 0)
(-0.05528 0.01805 -6.044e-21)
(1.01 -0.1649 0)
(1.053 -0.1341 0)
(1.001 -0.007117 -2.902e-21)
(-0.04886 0.01626 -9.053e-21)
(-0.1189 -0.01979 0)
(-0.0707 0.02383 -6.973e-21)
(0.9868 -0.2037 0)
(-0.00235 -0.000182 1.931e-22)
(-0.1622 0.05762 -1.223e-20)
(1.001 -0.0008058 -6.458e-22)
(0.03162 -0.004265 0)
(-0.1103 0.0368 -4.833e-21)
(1 -0.0007011 -4.901e-20)
(-0.06302 0.01021 -3.478e-21)
(1.001 -0.0001572 -4.845e-21)
(0.9963 -0.002133 1.978e-20)
(0.9956 -0.1368 1.38e-21)
(0.9914 -0.1442 0)
(-0.007327 0.001044 -6.182e-21)
(0.9999 -0.001428 4.659e-21)
(0.2214 -0.02572 -2.278e-22)
(1.003 0.004367 0)
(1.192 0.5437 0)
(1.001 -0.1309 1.285e-21)
(0.1016 -0.005005 5.613e-21)
(1.08 -0.1236 -3.623e-21)
(0.3009 -0.05982 -7.915e-23)
(0.3299 -0.04723 0)
(-0.0538 0.01554 1.285e-20)
(0.8969 -0.1006 5.265e-21)
(1.002 -0.002326 4.909e-21)
(1.014 0.002342 1.938e-20)
(-0.09241 0.02836 7.912e-21)
(0.5574 -0.1039 2.946e-22)
(-0.09061 0.03168 -6.821e-22)
(-0.06097 0.01965 0)
(0.07489 -0.004758 2.048e-25)
(-0.04842 0.01564 -3.259e-21)
(-0.006436 0.002076 -5.809e-21)
(-0.08924 0.01406 1.412e-20)
(0.4407 -0.1227 0)
(-0.02201 0.003609 -1.263e-20)
(0.2946 -0.03163 -4.93e-22)
(0.1011 -0.01451 0)
(0.8343 0.3975 2.228e-21)
(-0.01344 0.01517 0)
(1.002 -0.006276 3.866e-21)
(-0.04777 0.009696 1.597e-20)
(-0.02717 -0.00423 1.163e-21)
(0.1657 -0.02695 0)
(0.9974 4.331e-05 3.632e-21)
(0.3131 -0.2078 3.735e-21)
(-0.1631 0.04767 0)
(0.6854 -0.0647 4.938e-22)
(0.7362 -0.2046 2.711e-22)
(-0.09196 0.01679 -9.497e-22)
(1.065 -0.1303 -4.453e-21)
(-0.0314 0.006945 0)
(-0.1125 0.03722 3.838e-21)
(0.6933 -0.06569 1.481e-21)
(-0.07591 0.02437 -8.37e-23)
(0.2996 -0.08283 -1.179e-21)
(0.008773 -0.02285 7.135e-22)
(1.001 -0.0003559 0)
(1.05 -0.06966 -4.521e-21)
(-0.04809 0.008921 0)
(0.9983 -0.007427 0)
(-0.06878 0.01551 0)
(-0.04423 0.004592 1.034e-21)
(0.9989 -9.433e-06 1.945e-21)
(0.975 -0.21 4.08e-22)
(-0.02702 0.003677 0)
(1.025 -0.01939 0)
(0.8537 0.399 -1.002e-20)
(-0.005755 0.02573 0)
(0.04203 -0.01279 0)
(1.023 -0.1416 -5.194e-21)
(1.004 2.368e-05 -1.291e-22)
(-0.07885 0.01961 -2.059e-22)
(-0.09153 0.02649 -4.016e-22)
(1.011 -0.002245 2.558e-20)
(0.9107 0.3573 3.062e-21)
(1.047 0.08344 7.063e-21)
(-0.1734 0.05042 9.666e-21)
(-0.0773 0.02111 -6.759e-21)
(1.017 -0.1791 -1.031e-21)
(1.045 -0.03126 0)
(-0.005214 -0.0004541 -1.701e-22)
(-0.000701 0.0001988 1.607e-22)
(0.3237 -0.06903 -2.52e-23)
(0.4216 -0.06759 -1.358e-21)
(-0.1679 0.05293 -3.595e-21)
(0.04993 -0.004183 0)
(0.9928 4.015e-06 -3.612e-21)
(0.4973 -0.05345 3e-21)
(1.004 0.005696 2.415e-22)
(-0.1549 0.04624 0)
(0.5956 -0.2831 -3.462e-21)
(-0.07202 0.01307 0)
(0.7288 -0.2026 2.387e-21)
(0.01208 -0.01487 -1.829e-22)
(-0.01402 0.002115 0)
(0.9993 0.002371 -1.224e-20)
(-0.001576 0.0005785 0)
(-0.03521 0.01116 0)
(-0.04551 0.01311 3.46e-21)
(0.8284 -0.06927 4.59e-21)
(0.4681 0.1502 0)
(-0.1301 0.03978 -3.525e-21)
(-0.01139 -0.01653 8.303e-21)
(0.1337 -0.009646 0)
(0.7732 -0.1088 0)
(0.882 0.00839 -8.135e-20)
(0.007537 -0.0003782 1.626e-22)
(-0.1682 0.05796 2.866e-21)
(0.378 -0.02727 0)
(0.235 -0.05128 6.555e-23)
(0.5004 -0.07686 0)
(0.4309 -0.2623 -6.181e-21)