/*--------------------------------*- C++ -*----------------------------------*\
| =========                 |                                                 |
| \\      /  F ield         | OpenFOAM: The Open Source CFD Toolbox           |
|  \\    /   O peration     | Version:  v2012                                 |
|   \\  /    A nd           | Website:  www.openfoam.com                      |
|    \\/     M anipulation  |                                                 |
\*---------------------------------------------------------------------------*/
FoamFile
{
    version     2.0;
    format      ascii;
    class       volScalarField;
    location    "5";
    object      epsilon;
}
// * * * * * * * * * * * * * * * * * * * * * * * * * * * * * * * * * * * * * //

dimensions      [0 2 -3 0 0 0 0];


internalField   nonuniform List<scalar> 
118995
(
164.6
1539
415.6
309.8
815.2
142.4
516
332.1
530.5
768.2
819.5
123.8
874.4
485
713.2
682.9
106.1
653.1
454.6
222.6
562.3
93.83
105.9
89.04
250.8
20.1
75.76
1.827
2.409
52.83
0.8237
26.74
0.01546
2.002
46.97
5.255
6.912
0.581
2.629
0.6066
2.447
1.025
0.01821
4.106
0.9218
4.463
3.702
2.674
1.015
1.751
4.213
4.261
0.78
1.992
0.3152
3.664
0.0593
1.909
2.315
89.43
4.372
0.3407
0.6994
9.565
0.02146
4.552
104.5
0.5158
4.664
2.623
4.374
1.127
0.1518
74.54
29.38
1.886
28.81
2.274
10.35
5.467
0.949
0.5948
0.1495
8.314
0.05443
0.02687
4.086
0.2474
4.554
0.909
0.01826
2.794
0.02554
3.128
0.03578
4.978
8.273
0.02055
2.74
0.8468
0.01701
1.107
0.6156
5.88
19.09
0.1933
6.598
0.3527
0.212
0.01797
0.05456
4.942
1.214
0.8346
1.205
8.931
3.044
2.925
0.2457
0.004494
0.03601
38.65
0.4996
1.024
0.0482
0.4573
0.01553
0.002232
0.002212
5.283
0.02543
0.002015
1.231
1.477
0.002076
0.002065
0.7987
1.729
0.1987
0.005836
4.146
0.01509
1.016
3.911
0.125
47.67
0.7456
1.806
0.8845
0.01436
0.5055
226.2
76.71
5.282
0.6844
3.418
0.6754
1.935
0.08605
4.508
1.197
516.8
1.029
1.637
0.06998
0.03025
1.762
5.651
7.855
1.216
2.624
2.643
6.946
0.3359
0.01736
0.07936
0.3178
0.3258
2.033
4.616
24.68
2.211
0.5658
15.7
3.326
0.7055
31.99
0.02431
0.7166
0.01811
1.205
0.02053
0.7223
3.724
1.189
105.5
1.347
0.01296
5.12
68.69
0.6927
3.624
0.2453
1.389
1.016
0.5692
1.996
0.03447
9.815
1.322
9.266
0.677
0.01963
0.3863
2.603
396.2
0.01373
0.6229
0.3831
6.524
15.95
1.159
0.02518
1.994
0.9571
5.249
3.403
2.061
0.02804
4.127
1.269
0.01537
0.5872
1.143
0.175
9.236
0.4584
2.175
2.513
7.308
3.968
4.439
3.945
1.318
1.929
0.1265
0.02589
0.1223
1.176
0.1116
0.9374
0.4691
0.3935
0.88
0.7828
9.653
0.02537
0.01621
5.254
0.013
2.022
0.005843
0.9075
1.443
0.9127
11.23
2.191
2.521
1.158
2.996
5.821
12.14
0.1901
0.6036
5.113
3.43
3.398
2.355
2.012
10.12
0.9936
58.79
5.283
1.165
0.7309
59.05
30.49
0.008217
0.5795
1.135
0.01707
0.01992
2.484
1.316
0.8488
1.002
0.7581
0.8015
3.313
2.726
1.092
1.766
47.88
4.079
1.173
65.26
0.01634
0.1755
0.5044
68.47
2.781
0.9668
0.01902
0.01876
1.742
4.282
0.7133
0.01937
0.01918
8.479
0.3167
0.01737
0.3258
0.00202
10.04
2.529
0.05251
2.493
1.028
0.9782
0.006803
1.413
0.06729
1.094
0.02842
0.6056
51.16
1.1
0.4178
0.6743
1.56
0.6302
2.162
35.5
3.064
3.925
0.1989
0.002372
0.006018
10.74
7.331
7.937
0.9848
1.462
1.238
1.098
0.397
0.7972
0.6874
0.03435
0.07004
0.01279
0.04859
4.634
5.122
1.391
0.7246
5.148
2.122
0.001788
0.5535
0.6143
0.4837
0.666
0.7352
0.0165
2.188
0.1221
0.6574
2.135
2.138
4.263
0.9335
3.561
3.52
2.905
2.226
1.09
0.3519
2.549
0.1199
4.487
0.8076
0.03157
9.552
0.6251
9.446
1.41
1.143
0.02188
9.049
0.03599
2.753
10.64
0.01053
6.471
2.19
2.66
7.632
2.097
0.03957
0.00227
0.07018
1.488
0.6063
0.9656
1.36
3.767
2.115
0.0007955
1.84
0.02404
1.641
1.31
64.56
0.06542
12.82
0.5799
3.005
0.03538
1.715
0.03577
1.394
0.4103
0.7681
0.03409
1.59
1.005
0.01464
5.204
3.062
0.03408
0.7086
35.88
0.011
1.542
2.694
2.201
5.651
5.249
5.12
2.109
0.001817
0.04646
0.01557
0.8394
0.4007
3.231
0.02086
2.64
4.119
371.4
0.4552
1.663
2.036
1.188
2.254
0.02054
0.01796
0.009353
9.208
1.118
0.5673
0.7568
0.03207
2.765
2.687
0.02884
23.38
1.118
2.113
5.228
2.231
1.456
2.488
0.01931
1.384
0.08106
8.143
1.624
6.632
0.0007594
1.15
0.3605
0.04373
0.9245
0.01681
1.399
8.81
1.905
1.55
1.283
0.2987
0.6218
4.111
3.361
0.01805
0.9662
0.9811
7.072
7.126
0.5729
5.569
2.961
13.03
0.02183
0.001478
0.0008947
0.9257
0.3368
17.98
0.0009033
0.08501
3.29
2.794
0.55
1.808
1.675
0.03797
5.5
1.121
0.01872
8.384
0.9153
1.954
0.295
1.233
0.3425
0.001543
0.4345
0.001507
0.7258
16.51
37.66
0.771
22.79
0.4155
1.277
1.535
1.411
0.3129
0.009767
0.02419
1.069
0.008146
1.333
5.925
0.7992
1.186
1.935
26.6
13.07
0.01369
0.01381
1.792
0.001599
4.974
0.751
3.117
43.77
3.269
54.51
1.035
86.31
0.1048
2.166
0.02901
1.323
0.03445
0.7826
0.01816
0.06444
2.221
2.43
0.9303
0.731
1.275
1.228
9.875
0.01467
0.4084
2.061
0.3187
2.087
0.01967
62.54
3.811
4.591
1.422
0.5557
1.846
3.804
1.527
1.723
33.73
0.4838
2.101
5.444
16
0.001453
2.292
0.7172
6.777
0.1915
9.347
0.5136
1.005
0.8976
0.372
0.23
0.0136
0.4035
1.505
1.385
0.5025
3.263
0.002231
0.01341
0.002126
0.1376
0.5717
0.4493
8.024
9.098
5.807
4.44
2.817
1.034
0.05381
0.4106
1.551
2.898
0.06701
2.091
0.001479
0.6485
0.4163
9.121
6.85
0.4937
0.01762
1.064
63.05
3.026
3.982
0.0007299
1.567
0.008881
1.325
7.425
0.0265
3.767
1.215
19.97
0.6521
2.955
4.531
0.566
0.01765
2.693
3.763
1.585
4.073
1.605
1.284
0.1337
12.89
0.2816
3.268
9.364
0.6203
4.552
0.8423
1.696
8.787
0.9525
1.355
0.7652
0.372
4.881
0.02926
0.9445
3.135
4.368
120.1
0.0007215
2.015
0.6383
0.01422
0.7351
1.231
0.4958
0.8304
2.245
13.21
8.844
1.642
4.152
1.232
2.234
0.4688
0.0008431
0.04388
3.063
0.8404
0.07814
0.1067
3.203
4.079
0.03301
0.6263
1.484
1.646
0.0738
2.12
0.2805
2.626
0.0706
4.064
4.968
8.316
1.725
0.01423
0.5705
0.9542
7.72
0.001122
0.001039
0.001043
1.792
6.318
0.4477
2.121
5.53
0.02749
5.304
8.785
47.77
0.9193
0.02867
0.8028
5.27
0.02089
5.715
6.521
16.62
4.273
0.3957
4.041
1.632
0.5426
0.01741
1.873
0.0007176
0.02701
5.887
1.37
0.02285
0.0742
10.48
5.197
1.796
0.7079
8.056
0.4453
0.7574
7.286
0.01356
0.438
0.8222
0.5024
2.96
1.196
3.513
2.88
0.3191
0.7112
11.53
0.456
4.114
1.786
1.54
0.6435
0.02032
3.937
0.037
0.2007
0.001118
66.01
3.983
1.595
6.92
47.51
0.03025
1.371
2.28
1.406
1.491
7.284
1.282
1.487
49.26
3.524
1.538
1.375
1.077
1.795
0.01016
1.728
1.673
8.408
0.3361
1.528
0.5847
0.6231
36.19
0.0006313
30.48
5.345
0.01471
4.11
1.798
1.558
37.32
33.93
2.169
4.786
1.566
1.485
9.153
2.449
6.714
2.628
0.01808
2.814
1.32
1.934
0.7556
0.7572
0.7247
0.3338
0.026
0.8723
4.136
0.01861
4.019
0.07325
1.704
9.096
0.01581
3.084
1.665
0.0223
0.03693
3.433
7.676
0.01659
0.01642
0.6049
4.406
10.25
9.55
29.58
0.2269
2.474
10.4
2.024
33.91
0.9431
7.507
4.305
0.3571
0.673
0.3958
0.02019
0.001291
0.0009484
0.000947
6.718
15.77
0.09021
1.448
5.371
1.348
1.169
0.06244
0.03287
3.69
2.653
32.44
2.72
7.015
0.1585
2.143
1.588
4.065
0.07841
3.671
2.088
1.341
0.8576
0.01509
7.78
3.094
3.327
0.01677
1.624
0.0007115
2.614
13.44
0.193
2.828
1.015
38.92
0.3841
2.027
0.06703
0.02819
0.8234
0.8928
2.788
0.8894
1.926
1.509
7.425
0.1806
4.297
0.9538
0.02397
0.01731
0.6698
2.252
1.209
2.325
30.35
9.148
1.503
8.957
8.511
32.84
0.406
0.7735
0.7813
98.33
0.01222
1.516
5.077
0.3282
1.836
0.8637
0.02846
0.3053
1.083
11.17
0.0274
0.01511
4.755
5.328
4.164
5.093
0.4378
0.1178
0.003691
5.281
1.026
2.391
0.3251
2.459
0.06869
0.8602
0.07215
1.363
0.6231
1.188
2.614
0.2333
1.371
11.3
1.961
0.02887
3.295
0.7629
3.294
0.6913
0.001861
0.38
19.33
0.04972
2.165
1.13
20.62
1.095
3.236
0.02972
0.01838
0.5631
0.9942
2.962
0.3361
1.399
3.367
0.01916
0.6629
1.188
4.965
6.539
0.2475
4.203
2.143
0.005273
0.03518
4.987
1.129
1.463
4.798
30.97
4.648
1.262
0.03264
0.9365
1.697
0.03833
5.145
0.6611
0.01555
4.137
0.02321
2.863
1.646
1.241
5.016
1.656
0.4168
0.6171
0.02115
26.05
2.328
0.01677
11.47
3.202
1.386
2.271
0.02053
0.03736
1.56
0.8757
13.29
0.4902
9.235
0.7936
2.065
13.3
3.263
1.077
1.911
2.916
1.691
0.8026
3.94
0.009508
1.851
0.7264
1.885
17.36
0.251
1.815
6.006
26.61
1.475
11.18
11.07
0.01171
2.971
2.245
2.992
1.945
1.228
11.22
3.323
0.01828
2.52
11.09
0.3782
2.54
0.0009007
0.01813
0.5089
7.58
20.9
2.838
3.983
0.643
0.003485
0.4944
0.02049
1.699
0.07638
7.603
0.3904
0.6341
37.99
0.005348
3.403
0.001158
0.7057
6.092
0.7173
6.368
43.7
5.66
1.567
0.918
0.8459
0.3135
0.1381
8.339
60.52
0.07058
0.003972
4.645
1.565
6.247
12.73
0.7239
55.56
1.539
1.067
0.583
0.5165
1.471
3.7
0.5055
6.986
8.739
2.265
58.21
5.375
1.571
5.611
2.367
9.877
6.98
7.443
0.7509
0.7459
0.6124
1.125
0.919
0.8861
0.1902
37.07
0.03001
5.707
0.6318
3.158
1.164
4.065
0.03196
0.0172
0.09179
4.533
0.03699
4.236
0.3027
0.4259
0.006811
22.92
1.026
3.363
0.002093
2.02
16.25
4.323
2.51
21.32
0.0006891
0.0006935
1.341
0.02016
2.981
0.5924
0.08487
8.981
0.3288
2.642
0.6802
2.582
22.71
0.0009031
1.572
0.1072
17.86
1.567
2.516
0.5633
7.947
1.514
1.393
0.1775
19.1
2.886
4.293
2.112
42.7
1.393
41.82
0.00159
0.73
0.4921
2.944
2.685
0.03066
0.4543
4.361
1.568
0.9321
5.559
10.11
0.5575
0.8716
5.307
0.3346
2.272
0.02219
2.345
2.419
0.5094
0.8262
4.121
1.333
17.41
0.8012
0.7594
4.624
0.01747
1.222
0.01973
3.896
0.5844
5.784
18.31
1.148
6.788
0.3316
7.296
0.02017
0.1715
3.231
2.427
1.387
0.05374
0.05374
0.04644
8.996
0.8138
6.198
6.078
3.182
0.9564
0.01283
0.01055
10.52
1.749
0.001538
6.899
0.5335
3.169
0.07043
3.015
0.07527
0.07218
1.355
0.02469
1.513
0.3706
219.1
0.4867
0.2604
3.433
0.01776
2.135
1.367
2.578
58.74
0.6652
3.176
0.01686
3.005
0.006519
1.073
0.8327
1.476
0.08362
11.92
0.02096
1.945
26.29
0.6188
21.25
6.571
1.619
0.02142
0.8191
0.9494
0.1894
1.41
1.347
1.788
1.877
10.26
8.401
21.19
0.397
0.2077
0.9672
5.518
0.04427
18.52
0.5238
2.711
2.675
11.25
0.4524
8.758
4.919
23.21
1.421
1.048
0.07106
2.642
0.002507
0.7455
2.024
3.486
7.665
0.237
0.6358
0.126
1.05
1.484
0.694
2.089
0.2749
0.5391
0.02448
0.01694
0.6511
0.01382
0.03115
2.189
1.509
0.02179
0.3274
0.1158
1.781
0.5312
1.087
12.53
1.654
0.003088
0.03644
0.05596
0.008193
1.11
0.5155
3.354
29.98
189.2
0.01558
1.64
0.031
1.503
0.02507
1.861
0.3375
0.01893
1.072
0.3712
1.011
0.01586
0.008717
1.17
0.01662
0.3771
0.6538
4.721
2.382
3.198
2.587
4.845
0.3639
0.2715
0.1782
1.731
0.4197
0.1735
0.01797
0.4773
0.7389
2.201
0.008015
3.72
5.574
2.937
0.03604
0.04645
7.72
0.02231
9.981
1.446
0.5108
0.1731
9.84
0.7628
1.239
29.84
7.567
0.9009
1.161
0.02966
2.182
0.3981
0.6512
2.115
0.999
0.01647
1.776
2.926
3.975
8.328
1.594
3.714
27.14
3.11
0.3445
0.2121
1.066
0.01067
16.26
54.08
0.3828
3.031
1.16
0.5827
1.667
3.366
0.01195
0.1015
1.438
3.255
1.348
1.915
0.0194
4.945
0.7274
3.614
23.82
6.183
1.749
0.0009056
4.292
1.779
7.534
1.433
58.43
3.021
0.4753
0.3131
3.27
7.136
0.7478
302
1.072
1.611
3.782
1.023
0.03108
0.9191
2.266
0.9629
0.09354
16.94
5.057
3.112
5.701
0.9606
2.358
12.28
1.854
0.6862
1.088
9.149
4.432
0.4072
0.02962
0.9296
1.305
1.21
0.004386
19.3
0.7013
0.001647
0.6318
3.428
5.528
7.882
0.3411
0.8192
1.812
3.799
0.01484
3.872
17.23
0.3392
35.64
0.02425
12.32
2.669
1.183
0.517
2.563
0.03989
0.2582
0.5737
0.587
1.837
0.8926
0.001652
4.811
1.914
2.366
1.357
0.4121
0.01958
0.4591
0.7166
2.894
4.653
5.153
4.139
1.611
0.01279
13.69
0.8928
0.1605
2.006
3.464
1.755
1.238
4.4
0.5018
0.6304
1.331
0.09782
2.324
0.2557
0.001787
3.383
1.293
0.3442
2.848
0.09772
0.01729
0.8928
2.501
0.975
3.547
0.7161
4.632
3.951
2.482
3.047
3.497
18.9
4.397
11.6
0.3621
4.031
0.04412
0.002981
2.73
4.329
1.906
1.869
2.703
0.8443
5.856
2.868
1.311
7.814
5.218
0.0188
0.04402
0.02775
8.647
6.1
1.616
24.02
0.01803
0.862
2.105
0.02162
3.006
0.4956
9.654
0.6323
0.612
1.29
3.855
2.035
3.026
0.01634
3.553
0.5365
7.523
0.03311
0.01882
0.02026
8.2
1.077
9.262
7.908
6.137
0.5873
2.28
0.02133
0.02093
7.166
2.149
116.2
3.31
0.8777
0.3042
0.02676
0.0273
2.621
2.059
0.08354
0.2346
2.471
3.981
0.6583
0.6963
0.03735
1.073
0.7814
9.034
29.89
1.395
1.187
7.38
0.7387
2.234
0.9469
4.331
19.13
0.8222
8.854
3.172
1.628
18.66
5.728
0.786
0.9552
17.16
0.6126
0.8948
0.2532
0.0182
0.2224
7.165
26.41
0.7891
4.12
3.713
2.364
9.904
0.04603
0.2266
5.185
1.236
1.049
0.001173
2.541
4.125
1.197
30.55
0.9776
0.9616
5.423
0.001155
2.65
0.7023
0.7295
0.03221
5.61
10.36
13.1
3.394
2.635
2.457
4.342
0.04745
12.62
2.31
1.274
1.149
10.61
6.293
0.2948
0.08485
0.6461
0.0153
0.3434
4.953
2.19
11.33
1.388
1.73
0.00745
0.007426
68.56
1.374
6.322
3.877
1.44
0.04017
0.02028
0.04203
3.448
0.009102
0.0008493
38.02
0.04482
9.351
0.4672
0.464
0.4671
2.658
1.114
0.00281
17.69
1.251
0.769
0.02593
0.8205
1.466
5.077
3.828
1.026
0.5677
0.2083
1.161
4.991
2.79
0.1376
0.619
0.4164
1.738
1.524
3.886
3.877
19.87
21.94
0.9502
6.438
0.06025
0.04075
8.502
1.838
5.246
1.001
1.597
23.95
4.436
0.02132
1.78
0.4257
3.722
3.971
8.135
0.0316
0.02338
1.081
0.237
1.413
0.4745
2.97
0.003078
0.04828
0.01477
1.478
0.03629
0.5698
306.4
1.439
9.796
4.604
51.93
3.288
47.98
3.438
30.75
0.5755
2.676
0.2349
0.2118
1.474
0.06012
0.1354
3.221
0.03858
1.511
0.01854
1.153
2.74
11.02
15.35
44.74
3.22
2.093
2.157
0.001508
220.5
1.715
6.365
0.0241
2.093
2.887
8.809
0.01858
5.898
14.17
0.03142
3.394
5.269
4.628
3.335
2.356
0.1468
2.635
0.003719
0.6475
1.828
3.146
3.854
0.827
1.69
4.881
0.7331
400.1
0.3253
4.747
0.0316
0.0219
1.736
2.054
0.01851
1.4
1.353
3.466
7.58
1.618
0.4053
0.02916
1.554
1.297
28.4
0.006076
0.1282
1.663
0.5567
2.187
1.413
10.32
0.004438
0.9496
0.5146
3.584
1.976
19.55
135.2
1.047
0.01522
1.971
0.2337
0.7017
0.2597
0.08494
1.751
0.5985
16.27
16.85
9.061
0.08501
0.2702
5.685
1.804
0.7174
0.02504
26.11
1.095
2.04
19.61
2.073
12.21
5.619
0.01137
75.9
1.344
2.172
0.5118
2.336
0.0008622
0.01712
4.309
0.5664
0.2843
0.003802
27.9
2.426
83.53
0.187
1.364
0.3744
10.97
2.505
2.754
1.564
1.27
2.567
0.08754
10.17
3.923
29.14
2.372
4.044
5.085
0.1941
0.1941
1.224
10.96
0.4389
3.767
5.219
3.485
1.776
0.3305
100
0.018
0.9558
0.02478
1.409
1.855
0.06277
0.03995
0.5564
1.651
0.52
3.765
7.084
5.351
0.8205
9.083
1.062
4.465
3.576
3.819
1.358
4.662
0.003546
11.44
2.113
0.5236
1.786
0.03184
1.382
0.02427
0.07018
1.481
41.33
5.312
7.882
0.5284
28.53
0.2687
2.338
0.03606
2.881
2.053
1.62
1.49
0.9969
0.0182
0.475
0.432
1.487
1.087
0.01031
8.156
1.202
2.173
3.501
8.848
1.163
0.6311
1.531
0.001057
18.14
0.01426
0.5134
2.511
1.496
0.573
0.9741
0.03031
7.228
2.9
5.028
0.02093
10.15
2.819
1.988
9.408
12.3
5.243
5.644
0.1832
7.515
0.8594
0.03869
84.62
2.265
0.03701
2.317
2.472
23.57
0.4372
0.03741
1.565
6.165
0.6946
0.5557
1.937
10.55
0.3019
0.6859
0.005312
2.486
1.086
13.2
1.564
3.811
0.01825
6.213
0.1631
0.6931
1.779
4.59
2.145
3.392
0.8038
3.957
0.636
2.035
0.2227
6.819
0.03157
5.285
0.7711
6.494
33.89
10.19
2.699
2.608
10.61
4.111
19.78
0.3705
1.09
8.992
0.002495
2.305
19.51
4.77
2.989
10.22
2.511
9.82
0.005885
70.83
1.207
0.5485
3.551
5.816
0.02331
66.14
0.5016
4.647
9.347
1.29
11.09
3.923
0.03448
0.3512
0.7844
0.02237
0.00072
1.699
0.3894
16.35
9.709
3.766
10.54
5.281
4.029
1.787
0.602
2.156
0.6437
0.9623
12.13
0.002865
0.01833
2.16
14.21
1.296
15.46
0.9895
1.95
0.7458
0.01904
3.672
0.002971
9.885
3.547
0.4405
1.518
17.33
7.296
0.3931
6.603
0.5548
2.44
0.8937
0.006374
0.1245
4.927
0.01819
8.137
0.1349
3.589
0.1385
1.203
190
37.41
4.985
5.003
0.2081
7.922
0.8855
0.5498
1.504
17.51
0.03293
2.474
10.5
0.01785
23.97
0.8511
0.1097
3.322
0.1723
37.81
10.77
0.0512
1.49
1.221
0.8283
0.3763
0.1105
2.071
2.724
0.001343
0.5164
2.668
2.74
11.96
0.1938
22.61
1.46
0.02746
19.22
3
1.861
0.05121
0.05133
0.0006404
0.8037
1.435
9.912
1.957
0.03819
0.04071
17.22
5.296
0.5861
0.7374
0.02356
0.03352
0.9921
9.081
0.6082
0.3743
0.7525
0.01516
0.5104
30.67
0.03903
46.54
0.02033
0.02982
0.01712
0.9112
0.01172
0.9479
0.0195
33.12
4.55
1.735
6.574
0.4942
0.9614
24.53
1.051
6.386
1.469
0.3013
9.073
3.882
3.661
24.77
1.15
51.84
0.3483
1.489
2.227
0.3552
0.7538
4.6
0.5021
0.7973
13.04
11.11
0.007246
0.4174
0.135
0.05903
1.365
3.125
0.1991
36.49
1.323
0.0891
1.927
0.8998
41.37
2.081
3.869
13.35
8.574
0.02232
0.9559
1.536
1.327
1.11
2.544
1.016
1.784
0.6595
4.36
9.697
5.619
6.944
2.259
0.796
16.5
2.437
1.512
4.546
4.452
2.378
5.613
0.3254
2.88
0.02535
1.559
0.05513
0.01436
1.605
3.815
2.487
0.02116
1.213
0.5078
11.78
0.07533
0.07533
3.998
3.097
71.4
4.038
3.524
3.215
4.496
11.18
0.08738
0.4842
1.739
0.02745
10.9
41.06
0.3688
0.3332
0.1293
2.231
4.223
0.0006759
0.002034
1.947
7.962
0.01507
0.01506
3.856
7.304
3.807
0.7023
0.4218
0.01502
0.9037
27.61
1.449
2.992
7.898
21.64
2.666
18.9
2.585
1.214
15.18
1.204
1.226
0.01701
3.84
24.76
5.453
2.261
0.741
0.1022
27.36
8.765
0.6479
11.61
2.824
1.266
0.01097
4.134
33.05
7.907
0.5999
6.815
3.339
32.61
2.564
3.524
0.5774
0.03828
6.284
0.00369
1.09
2.24
8.798
0.1558
1.098
3.063
0.4016
0.2526
6.629
15.52
2.623
0.07001
2.174
0.01595
1.406
1.728
8.923
1.19
3.701
5.229
2.171
0.07311
0.0359
12.22
2.393
1.354
11.49
7.624
0.255
1.511
1.039
0.8341
4.436
0.9971
8.026
3.379
6.574
1.75
0.002386
59.25
0.002097
6.597
5.702
5.949
0.00467
0.3809
1.661
45.19
2.69
3.838
0.9042
2.318
1.621
29.55
13.09
2.283
5.318
10.1
1.63
2.775
70.18
2.372
0.6543
1.105
0.01924
0.005374
1.053
2.33
0.02027
53.02
31.29
0.03159
2.77
1.007
18.57
0.8454
2.899
2.019
0.1144
2.072
5.175
1.102
0.01594
1.66
2.851
2.271
2.586
1.285
2.659
5.514
11.77
0.5287
1.668
12.06
0.002854
0.001037
1.263
1.735
0.02113
1.334
3.553
0.7813
3.34
2.776
1.56
0.002923
0.0602
0.01912
0.01399
2.071
0.01487
16.03
31.28
0.06518
0.6709
3.643
2.932
6.606
2.563
2.48
0.02333
19.54
0.0312
62.03
3.213
22.94
1.476
3.971
7.515
2.259
0.0206
0.6995
1.751
0.4458
35.14
0.779
1.38
0.881
4.431
1.189
6.239
2.18
2.73
0.001025
4.574
0.02205
0.001295
0.2607
0.01471
0.2125
0.6762
214.8
0.006724
1.294
2.848
0.01749
0.01939
0.8338
0.3286
1.219
2.434
4.435
0.4714
0.986
0.006757
3.356
1.42
2.526
0.02266
1.353
68.34
4.271
0.6918
0.03973
0.03956
0.01724
107.5
2.151
1.47
0.03061
5.417
0.01538
1.042
0.07318
0.01872
0.8764
1.003
1.259
0.5757
3.61
6.424
1.586
9.573
0.01694
4.726
1.162
0.000993
1.065
0.5727
0.8436
6.349
6.563
7.701
5.628
3.534
5.296
2.264
2.258
0.3698
6.988
0.8259
1.068
1.128
0.2868
4.071
3.039
0.02133
1.372
10.85
1.917
5.722
1.453
2.654
2.639
0.8112
2.232
0.01525
34.51
0.7897
30.25
1.479
5.642
1.538
0.296
1.753
1.039
4.496
1.224
4.333
3.44
0.9599
0.03849
0.03838
0.1052
0.3582
0.2491
1.678
3.309
4.894
5.856
0.8106
1.001
20.17
0.6602
0.951
0.04459
3.377
3.428
0.2377
7.641
0.9916
30.31
29.01
0.6436
1.612
0.08731
5.199
1.01
0.8169
3.134
0.009191
8.274
23.27
0.00189
12.38
4.05
5.107
4.114
0.6832
0.09893
13.46
0.6975
3.801
1.581
1.413
1.738
33.28
3.872
2.355
0.01747
3.672
45.09
74.04
12.04
0.424
1.066
0.02249
0.0776
0.03334
0.01755
0.05336
0.1797
4.279
12.94
0.7227
0.6851
1.512
2.002
3.196
5.364
0.7064
0.6234
1.11
0.8744
8.705
0.07295
0.02099
0.06643
0.004999
0.01935
1.857
15.5
0.05623
21.74
0.06823
2.289
0.07749
2.478
2.461
4.548
3.703
0.003911
0.4941
0.03271
1.445
3.124
1.018
0.03068
6.401
0.1593
0.01615
2.125
3.296
0.06422
0.1843
0.4134
2.227
0.2467
0.04085
0.01932
1.618
0.02319
3.996
2.117
1.535
1.535
0.3894
1.273
44.09
0.8108
0.9012
0.8052
0.7029
2.587
0.008584
1.042
0.001694
2.423
1.653
0.4058
4.353
1.861
0.3301
13.33
3.399
0.01939
0.194
16.07
0.02584
3.549
0.08228
4.798
0.9283
2.742
4.727
2.305
3.355
3.458
23.64
1.207
2.815
0.03559
4.377
0.7941
0.05126
1.419
2.119
1.55
6.509
0.6588
3.822
1.231
0.3612
0.02862
0.8217
6.067
3.341
0.01593
0.7952
48.66
2.001
0.006004
1.503
19.47
0.4171
1.78
1.809
0.02515
1.477
1.01
0.01855
10.6
1.613
0.6358
0.3457
0.02311
4.299
2.362
9.561
15.25
9.048
6.479
1.054
0.1546
3.804
19.01
2.681
0.8969
3.28
4.252
2.122
74
0.9438
2.75
4.017
3.11
5.58
0.464
0.01788
0.03516
2.82
5.701
1.461
1.163
0.1898
6.556
0.8918
2.008
0.1944
0.9847
34.92
1.342
0.04728
15.84
0.08088
0.9746
0.823
4.846
5.124
0.02066
2.341
4.91
2.316
2.228
0.9127
1.483
2.812
2.804
1.458
0.03593
4.022
0.4241
0.1173
1.33
0.04865
16.18
0.7049
1.971
1.301
153.5
1.635
3.329
0.4858
1.317
2.08
2.016
0.02197
4.17
19.29
34.6
5.18
4.729
2.434
0.643
2.75
5.359
7.573
0.1007
0.02623
4.951
1.209
5.009
0.09303
28.93
0.9364
0.2931
0.04734
0.2153
1.518
4.263
1.22
13.92
4.016
0.01461
0.3079
3.395
1.723
14.53
0.6881
2.539
0.664
9.93
0.385
0.0187
7.028
2.167
0.8447
25.86
15.96
2.997
1.029
0.1863
1.212
0.5823
1.745
1.116
4.26
0.5622
0.2858
2.237
3.272
0.8118
2.921
0.001405
0.001402
1.081
2.829
4.305
1.707
9.027
6.543
1.986
3.567
1.644
1.059
2.882
5.882
0.09199
12.84
0.5744
4.807
1.032
0.01415
1.396
0.9122
39.3
0.02626
42.1
80.51
0.02113
1.19
8.068
0.8484
0.8234
0.3178
1.499
5.456
0.3276
1.489
3.374
21.45
18.41
0.6703
12.58
16.01
0.0645
2.075
2.41
0.02564
0.01603
0.1315
1.112
0.4688
1.357
1.491
38
1.341
2.231
0.359
0.01491
2.143
0.008445
126.1
3.65
0.3926
1.134
2.053
8.231
73.71
0.7433
1.024
1.751
0.1539
1.166
4.012
0.1484
0.02414
0.68
0.7776
0.6314
3.089
1.268
2.59
4.128
8.608
0.00163
2.288
4.079
1.477
0.01648
7.846
0.6645
0.6317
3.228
4.903
2.858
27.77
0.01976
3.392
5.192
1.338
0.7639
0.005482
1.094
33.93
0.6174
0.741
2.861
3.586
1.542
0.7487
8.725
0.6553
40.02
0.05602
8.097
2.785
12.69
0.02978
0.5095
0.04518
0.3196
0.01862
0.03023
0.01169
3.834
2.101
0.807
3.277
0.006143
0.01923
7.816
0.01916
0.8179
0.02222
41.15
21.59
43.87
3.484
0.0006276
5.572
0.1587
3.701
12.91
0.01599
0.3582
0.02362
0.001282
2.246
0.03338
6.65
3.252
0.005555
1.088
3.003
5.127
2.221
0.01688
0.8372
1.017
1.55
6.159
3.073
2.019
31.79
11.51
0.3552
0.776
1.856
1.737
0.7939
0.6282
1.608
1.861
1.758
0.76
8.941
1.293
0.4792
3.432
4.459
0.001721
2.935
0.009538
0.009574
0.0402
79.78
1.068
0.7457
2.96
0.01267
0.02472
13.71
2.565
7.521
2.039
0.605
0.06819
1.736
0.7512
2.151
2.05
1.766
3.849
0.01721
0.4054
0.5007
0.5083
1.158
0.1936
12.84
0.4097
1.552
28.25
2.083
3.378
1.396
242
1.424
0.3208
28.69
0.5398
0.4662
4.382
0.5571
2.086
43.62
0.03837
0.0161
1.997
3.641
3.907
2.479
0.9977
9.281
2.192
0.5715
10.49
3.154
1.72
7.718
0.08591
6.364
0.7136
1.17
3.657
767.4
0.8512
0.003827
1.034
4.1
0.03213
0.6268
2.341
1.641
1.677
0.2573
0.9723
0.3186
32.9
3.251
38.05
1.178
97.13
0.02988
1.515
1.481
0.4614
0.2205
0.002
63.89
0.6185
0.001533
2.596
1.425
15.18
84.22
7.359
0.03033
3.513
0.009217
0.3175
0.0356
0.7112
1.535
1.53
5.502
0.1149
10.93
0.02175
0.06168
0.01512
6.522
1.177
1.449
0.01941
1.801
1.612
17.53
0.6089
0.0121
5.357
1.058
5.984
28.97
8.254
0.02726
0.1725
1.078
4.167
0.03938
1.651
6.37
5.408
2.903
0.6722
9.411
0.7812
0.4239
0.637
15.8
0.02716
6.088
4.3
5.516
0.388
2.646
1.005
0.8449
5.581
0.01363
37.71
9.37
7.682
0.0228
3.649
2.767
5.17
11.22
4.782
0.1075
3.701
29.06
17.45
0.5776
4.187
0.9141
0.05971
1.13
0.09116
0.01958
5.139
0.3137
0.001462
2.284
4.176
0.0237
2.633
0.0154
0.3089
2.31
0.7311
17.7
0.001482
0.7756
0.799
0.9277
7.53
0.04476
2.014
0.1966
0.106
2.483
0.9833
0.02115
0.00409
1.004
3.027
13.92
34.44
3.352
0.4436
0.01285
3.69
0.2935
2.145
1.412
0.02047
0.3601
0.5506
0.01689
0.01795
14.21
0.193
0.001798
33.29
1.483
0.9921
3.127
0.005503
0.01633
3.174
0.3664
17.4
1.592
0.08992
3.289
2.513
1.753
1.221
1.049
1.505
8.992
8.757
2.878
6.061
5.367
2.643
3.862
5.858
0.7526
1.206
103.7
3.643
1.25
7.403
0.9063
0.01298
1.915
7.677
0.08714
7.371
11
2.764
1.322
6.936
1.95
0.4225
0.03295
2.703
0.003416
4.025
1.506
0.007488
0.007537
2.005
0.6188
32.16
21.99
0.4923
2.807
1.863
6.443
1.056
3.884
0.04587
1.941
33.3
3.552
0.02575
3.017
0.451
2.73
0.009609
6.374
1.428
2.754
1.797
29.4
31.64
0.09114
3.135
2.043
2.589
6.327
4.547
29.68
4.677
0.1021
0.01872
10.03
0.01898
0.8108
2.576
1.642
4.612
3.087
1.615
0.01962
2.128
1.121
1.142
8.011
0.5581
2.094
0.6943
0.005068
0.949
0.5717
6.709
6.018
1.74
4.153
5.728
4.376
0.0864
3.6
5.888
0.1007
2.065
0.8922
2.375
0.702
1.264
0.08124
0.01034
1.884
6.371
0.01671
5.852
0.5427
3.007
1.45
0.4485
19.08
5.481
5.025
0.5459
36.39
0.4353
0.03279
0.003735
2.638
3.491
0.743
4.841
0.1208
2.115
7.045
10.7
4.195
0.0007085
1.558
1.902
0.6351
6.44
0.7401
0.9552
2.166
0.001054
2.431
0.0168
2.761
3.544
3.975
0.02208
2.23
0.6633
2.92
0.01636
0.02802
0.9381
0.01757
14.54
1.564
8.889
21.04
0.0005984
1.709
19.46
4.707
0.147
1.282
2.407
0.01191
4.29
0.5902
4.025
2.884
323.4
1.09
0.3282
9.804
0.7383
5.073
0.5974
5.354
65.6
0.9014
2.682
4.021
6.668
7.402
0.01628
0.8152
0.4548
6.445
1.351
9.811
31.52
3.168
0.1586
0.3826
0.8011
31.97
0.2705
2.945
12.83
1.283
0.0452
0.578
0.01571
0.9249
1.949
0.35
2.071
7.607
3.788
1.892
1.882
1.454
0.2725
0.2866
1.575
0.03546
2.731
11.12
7.746
1.41
0.7427
0.01826
0.005947
18.81
0.718
3.539
0.02199
0.9286
1.554
2.803
0.7611
5.197
0.01084
0.9927
83.49
1.051
0.002956
0.4035
1.674
0.4993
7.406
0.02389
0.3875
0.3656
1.485
6.36
0.009117
0.01783
1.413
1.693
0.1067
0.01886
2.421
3.621
0.0179
3.397
0.02364
0.7727
0.004222
0.1492
3.035
9.18
0.006545
26.39
0.5019
1.304
7.953
0.2733
0.4802
0.7673
0.01608
2.566
0.01594
0.02606
0.1171
3.34
0.5206
4.107
4.784
0.8887
0.02691
0.1761
2.055
1.378
3.135
0.6945
1.766
0.6012
7.888
2.044
48.97
0.9969
0.02789
0.3649
5.738
14.73
17.92
2.076
1.208
6.353
0.4041
1.288
0.01547
18.67
0.1779
45.24
4.091
0.8368
0.00889
1.069
0.2206
0.7703
0.6922
6.755
8.095
0.02521
0.5651
0.02525
0.2177
0.0009783
2.355
7.014
0.03881
1.328
16.31
5.835
1.422
0.06137
3.307
0.001066
0.6727
0.8736
1.794
12.96
1.335
11.59
10.75
0.4221
2.146
1.383
0.6916
0.02161
0.5796
3.816
1.624
1.304
0.4864
0.6768
0.5573
1.491
0.6517
3.727
25.8
3.995
2.35
1.551
3.632
0.2866
1.824
2.568
14.34
1.277
4.168
1.85
1.041
41.32
9.286
1.29
1.331
1.011
2.504
9.951
1.373
8.31
3.802
1.326
0.581
0.08296
0.08287
0.387
0.8658
4.254
4.58
12.85
3.051
0.7123
1.044
0.001187
4.755
2.44
0.1799
4.086
6.768
1.727
21.73
2.56
0.3784
0.0097
0.01566
38.56
0.02762
0.801
14.76
3.985
8.896
30.31
0.4938
1.992
2.712
0.04657
3.129
0.927
0.1029
0.8495
1.627
1.617
0.5566
0.01678
0.08175
3.482
0.01618
34.41
1.599
7.804
0.8893
1.601
0.05074
0.01855
4.899
1.865
0.5818
6.144
1.964
3.128
1.753
0.0476
1.596
15.48
2.818
0.6973
0.006111
0.04409
0.07966
1.666
4.57
0.7427
8.1
1.131
0.6445
1.766
0.01808
0.9318
0.04463
1.998
9.11
0.03752
0.0229
6.278
0.4603
0.2797
5.343
4.391
3.522
1.332
2.95
44.26
0.01602
0.02103
1.95
6.318
0.0008855
5.972
0.9892
2.348
10.4
1.789
2.032
9.437
0.4484
1.049
1.3
14.93
15.75
0.325
7.218
0.03751
13.01
4.561
0.9891
0.03591
0.8096
2.83
1.305
5.665
2.62
75.66
1.457
6.789
0.02891
2.829
4.703
0.05047
4.749
2.355
0.7868
2.271
9.664
2.688
0.03636
4.528
1.793
3.529
0.8686
14.14
0.8398
10.23
2.536
2.26
0.02243
0.01448
0.3064
40.53
0.05246
0.03441
2.208
0.6583
10.44
0.549
2.787
5.529
0.4411
43.99
0.07762
1.132
5.525
0.002835
13.57
6.351
9.374
2.604
0.04528
0.5088
2.953
2.274
1.472
2.16
19.99
2.048
2.414
0.472
1.292
2.94
2.453
37.35
14.74
0.001397
0.01956
3.18
0.3854
1.278
1.126
5.507
0.2108
0.404
3.882
0.1104
0.008511
13.06
2.044
1.317
0.06384
8.482
12.15
0.003201
0.3935
4.161
0.418
1.192
4.15
0.5577
5.059
1.448
6.584
0.4556
3.424
0.3325
1.313
4.612
4.402
2.428
5.4
54.27
0.05847
58.41
6.414
0.507
1.512
7.12
0.7446
0.04817
1.364
1.501
4.957
0.01882
0.0008603
1.222
0.001003
3.038
3.152
2.611
0.009177
2.537
4.192
4.615
0.1835
0.1386
3.433
2.125
1.456
2.041
1.165
1.923
0.9901
0.7719
0.9419
4.922
0.5663
2.051
32.53
0.5017
10.43
2.507
0.6029
0.15
0.01889
0.4891
0.01767
13.04
2.684
2.127
0.05368
0.4959
1.074
0.1799
3.849
0.0127
5.389
221.3
1.335
0.7017
3.351
1.412
0.03715
0.006721
0.02354
0.05517
3.752
1.319
2.169
0.01863
0.02619
0.003494
5.767
3.019
2.002
0.07668
12.59
0.009925
0.05598
0.02913
3.539
0.4171
0.0006084
0.8141
0.8611
0.01452
0.01439
13.7
39.56
5.031
0.8013
2.034
1.959
0.4949
3.602
2.447
0.03345
2.462
1.99
3.551
1.713
5.722
23.67
0.2762
4.926
2.52
3.533
2.754
0.8901
5.296
0.9758
2.408
0.04335
0.1555
0.4044
34.76
5.106
1.197
6.433
25.59
2.541
0.8637
0.4072
22.74
1.395
0.4206
3.746
2.629
0.2828
1.353
0.0964
2.709
1.161
38.53
14.18
33.16
0.08724
6.896
2.188
0.7314
0.05246
0.01604
0.7606
0.6658
1.606
2.078
0.01871
0.01684
0.001164
19.1
20.02
2.414
0.02602
1.981
0.6461
0.4927
2.432
1.06
11.27
0.01297
22.81
8.807
2.062
0.00149
0.06586
79.37
0.597
0.1535
0.1281
1.546
2.514
0.8386
0.0169
0.003277
0.976
1.521
1.921
1.446
12.63
2.004
5.283
74.82
0.6591
2.683
5.15
0.003532
1.169
3.068
0.6535
2.459
0.4524
0.001071
0.001041
2.734
1.079
3.666
22.82
1.669
0.4294
1.304
0.03318
2.004
7.502
1.15
9.769
0.5602
68.23
6.726
0.02177
0.01482
0.06644
41.76
1.686
0.08325
2.402
12.3
0.256
0.9983
0.01083
0.3762
0.09085
0.01249
3.014
0.1072
2.844
0.01544
1.08
4.784
4.515
1.606
0.2987
4.138
0.1429
3.064
0.1132
0.8862
57.01
1.676
0.01879
2.607
2.744
0.03389
17.1
27.78
18.92
0.8519
1.466
5.098
1.961
0.02445
1.291
1.295
0.01994
1.786
0.9302
0.63
0.1294
0.01133
0.6796
0.2794
1.395
0.004677
7.764
2.329
0.1964
1.031
1.157
46.58
1.98
14.15
0.409
0.001546
0.01724
9.861
34.61
1.275
1.807
1.81
7.239
0.8379
2.027
0.07333
0.6982
2.338
0.695
0.01371
6.898
0.01504
6.435
8.075
3.245
0.01915
1.837
1.054
0.001257
1.539
27.87
0.01229
1.757
19.19
28.98
0.6741
2.498
6.922
0.07842
9.079
0.01414
19.3
5.647
2.141
4.704
1.275
0.01855
0.02579
2.649
0.7009
3.141
0.2604
1.844
4.01
0.4779
128.8
0.001303
6.291
0.7676
1.876
1.353
1.846
7.51
0.1211
0.1622
1.242
1.386
2.507
5.913
0.9232
2.575
64.21
0.03126
2.897
3.324
1.304
9.184
1.69
0.5542
1.098
8.503
5.553
0.3618
6.163
0.567
0.8423
16.85
3.694
16.34
2.408
4.6
1.295
1.203
0.02148
4.788
2.145
8.287
1.496
1.207
4.654
1.266
5.366
0.7343
11.81
0.003506
5.006
16.83
0.0181
0.8399
23.68
0.1782
13.7
0.5923
0.4132
0.8286
0.9131
1.336
3.552
2.905
0.2582
1.059
0.141
0.04285
1.968
0.007544
13.27
0.01908
0.01767
1.364
41.37
0.09486
7.746
6.23
0.04055
18.78
1.055
3.134
4.931
0.4473
5.44
0.2303
1.711
14.32
1.384
0.3335
2.315
2.008
0.001882
2.996
2.271
26.49
0.2233
1.381
3.375
0.07873
65.33
16.7
1.827
31.18
1.404
0.03379
1.28
0.02353
2.144
0.01111
2.044
27.84
71.98
0.02667
0.8605
0.8356
0.05715
0.6467
5.847
0.7541
0.7517
13.39
7.482
63.99
5.269
0.9443
17.23
0.9294
0.9841
0.4021
40.73
5.11
2.479
2.484
2.121
1.992
1.782
2.089
0.1091
0.02387
0.6274
3.037
1.345
3.651
6.174
4.309
1.825
5.227
2.489
7.124
1.813
1.287
0.5086
0.06551
0.0255
1.314
1.006
1.412
1.726
0.01187
0.3464
1.162
0.3824
4.183
1.804
62.75
5.515
14.23
1.679
8.104
14.26
4.039
0.5091
0.04364
3.208
4.007
2.736
0.7706
0.8544
2.376
0.7352
0.02148
1.336
3.633
1.092
0.02608
7.47
5.417
0.7929
1.678
1.887
2.075
0.9513
3.934
0.1858
0.8024
1.677
47.52
0.3835
2.068
0.2563
16.17
0.8204
0.06453
0.9952
5.241
0.01818
0.8917
3.688
19.64
0.001051