/*--------------------------------*- C++ -*----------------------------------*\
| =========                 |                                                 |
| \\      /  F ield         | OpenFOAM: The Open Source CFD Toolbox           |
|  \\    /   O peration     | Version:  v2012                                 |
|   \\  /    A nd           | Website:  www.openfoam.com                      |
|    \\/     M anipulation  |                                                 |
\*---------------------------------------------------------------------------*/
FoamFile
{
    version     2.0;
    format      ascii;
    class       volScalarField;
    location    "5";
    object      k;
}
// * * * * * * * * * * * * * * * * * * * * * * * * * * * * * * * * * * * * * //

dimensions      [0 2 -2 0 0 0 0];


internalField   nonuniform List<scalar> 
118995
(
0.01869
0.1429
0.1093
0.1022
0.1145
0.07136
0.1193
0.05141
0.119
0.1294
0.1177
0.08309
0.136
0.1033
0.09599
0.0932
0.02548
0.1282
0.05044
0.03183
0.1146
0.02827
0.03065
0.01196
0.03447
0.327
0.02688
0.228
0.09629
0.0428
0.2129
0.3989
0.3114
0.1203
0.04657
0.2427
0.1556
0.5065
0.3414
0.3725
0.2086
0.4936
0.3441
0.09668
0.2059
0.09754
0.09921
0.3358
0.4955
0.3906
0.09752
0.09518
0.6008
0.3773
0.4773
0.09953
0.5785
0.5633
0.3616
0.02926
0.09603
0.3034
0.2646
0.3264
0.37
0.1119
0.03107
0.5769
0.4374
0.3385
0.09734
0.6092
0.4775
0.3931
0.1915
0.1197
0.1904
0.2176
0.233
0.278
0.2223
0.3734
0.4752
0.1159
0.4568
0.3749
0.5116
0.4041
0.1108
0.2554
0.3444
0.4311
0.4055
0.3111
0.3691
0.2861
0.1173
0.3621
0.6172
0.5204
0.3329
0.1423
0.5793
0.2611
0.3387
0.5508
0.2071
0.302
0.4665
0.3445
0.4572
0.2011
0.4775
0.522
0.1248
0.3379
0.1605
0.3133
0.2889
0.1374
0.3594
0.1829
0.5113
0.5045
0.4488
0.3986
0.3044
0.08539
0.08512
0.2765
0.4047
0.08394
0.1801
0.4287
0.08241
0.08231
0.4936
0.2347
0.5454
0.1542
0.2792
0.3074
0.5058
0.1819
0.3138
0.04575
0.2444
0.5641
0.2592
0.2621
0.5777
0.08881
0.389
0.2809
0.2671
0.6128
0.1668
0.3822
0.7177
0.08934
0.56
0.04676
0.5006
0.435
0.4745
0.4024
0.3852
0.2802
0.2594
0.1817
0.6193
0.1367
0.3536
0.3053
0.334
0.733
0.4716
0.3299
0.1389
0.2834
0.4165
0.1509
0.5587
0.3557
0.2186
0.4757
0.2228
0.3947
0.1719
0.3481
0.5587
0.3618
0.2956
0.1873
0.4809
0.0277
0.1656
0.2864
0.2824
0.3886
0.4758
0.2915
0.4055
0.1234
0.5052
0.5085
0.105
0.3572
0.1979
0.213
0.1743
0.5843
0.3479
0.5665
0.3426
0.1646
0.2905
0.5628
0.5024
0.6799
0.3541
0.4434
0.4022
0.1403
0.3502
0.4605
0.2281
0.1352
0.3313
0.4699
0.4909
0.3022
0.2768
0.488
0.5332
0.3108
0.5787
0.1524
0.3317
0.2006
0.429
0.4461
0.3937
0.4634
0.3733
0.3081
0.3719
0.2992
0.4412
0.8798
0.262
0.5859
0.5793
0.2104
0.1795
0.2348
0.4037
0.3189
0.0591
0.2872
0.3942
0.1605
0.2273
0.4328
0.5185
0.2506
0.3561
0.3482
0.3922
0.1604
0.2177
0.5337
0.5499
0.2733
0.2378
0.2897
0.3538
0.3522
0.1442
0.2477
0.2277
0.2073
0.166
0.185
0.5983
0.4014
0.08772
0.1752
0.3498
0.4478
0.3331
0.3562
0.5948
0.4623
0.2214
0.5072
0.2246
0.2154
0.3048
0.3353
0.1344
0.3994
0.04391
0.4708
0.215
0.0988
0.3203
0.534
0.2578
0.07761
0.321
0.1617
0.2831
0.281
0.3312
0.3166
0.2979
0.2867
0.2852
0.5864
0.2706
0.3341
0.3305
0.08402
0.1758
0.3307
0.4083
0.1395
0.6031
0.5127
0.1585
0.4705
0.4713
0.4217
0.3676
0.5646
0.3452
0.3522
0.2816
0.5849
0.4327
0.2718
0.1387
0.1895
0.3146
0.5178
0.4632
0.09308
0.1624
0.1606
0.2193
0.1894
0.5368
0.4311
0.4728
0.424
0.5789
0.3344
0.574
0.3673
0.3362
0.1941
0.445
0.2583
0.4656
0.456
0.2795
0.2371
0.3604
0.08849
0.5602
0.2512
0.5086
0.2255
0.2354
0.3278
0.3855
0.9237
0.3517
0.5149
0.09509
0.296
0.4694
0.5245
0.2861
0.163
0.3682
0.1659
0.4479
0.3468
0.313
0.213
0.5075
0.3891
0.3059
0.2231
0.237
0.6075
0.4793
0.3738
0.1801
0.4828
0.3335
0.1651
0.2542
0.2157
0.1111
0.3231
0.1963
0.4008
0.3456
0.09123
0.69
0.4065
0.457
0.1617
0.5384
0.2945
0.3989
0.05759
0.403
0.3925
0.4006
0.1259
0.04546
0.6609
0.6318
0.3507
0.3101
0.4785
0.4046
0.4189
0.4556
0.3332
0.1814
0.4718
0.1592
0.5042
0.2989
0.3294
0.144
0.4717
0.5554
0.1357
0.239
0.4316
0.4376
0.6327
0.221
0.3273
0.4886
0.1288
0.08936
0.4457
0.2741
0.4738
0.218
0.3087
0.3649
0.3242
0.09476
0.1507
0.2592
0.1088
0.4076
0.5249
0.348
0.3561
0.3445
0.1953
0.2603
0.4828
0.574
0.372
0.4568
0.3623
0.3379
0.4315
0.1089
0.4917
0.2235
0.2405
0.09968
0.1279
0.3509
0.3466
0.4742
0.4752
0.2277
0.4349
0.2492
0.05667
0.147
0.563
0.5375
0.2635
0.329
0.4563
0.5184
0.3953
0.4329
0.1773
0.3324
0.2988
0.4067
0.3028
0.3475
0.5145
0.2293
0.2163
0.2579
0.2637
0.2646
0.1459
0.1593
0.3731
0.07423
0.06355
0.355
0.2573
0.2351
0.06366
0.7611
0.2718
0.3298
0.2928
0.3923
0.392
0.3454
0.2463
0.3971
0.3424
0.2006
0.4714
0.1223
0.4899
0.1888
0.3046
0.08014
0.5818
0.07918
0.2889
0.6125
0.1477
0.2226
0.343
0.5815
0.2172
0.4351
0.6192
0.273
0.2002
0.3763
0.4973
0.1699
0.4606
0.2201
0.1553
0.4649
0.1404
0.2491
0.1323
0.2517
0.2935
0.478
0.07643
0.604
0.494
0.3144
0.3733
0.2931
0.2105
0.5033
0.07764
0.4642
0.363
0.4307
0.4631
0.4542
0.299
0.3358
0.6593
0.3502
0.1433
0.3327
0.548
0.4905
0.4743
0.1635
0.3001
0.2746
0.1309
0.2782
0.3173
0.3542
0.4219
0.2713
0.2528
0.4121
0.2209
0.1259
0.4366
0.4331
0.388
0.3827
0.5791
0.1138
0.2928
0.2518
0.08231
0.4011
0.1857
0.2589
0.5437
0.1753
0.568
0.4654
0.5234
0.5741
0.287
0.2886
0.582
0.4079
0.2646
0.285
0.3976
0.09908
0.2891
0.09674
0.5259
0.5678
0.2458
0.2289
0.2051
0.1837
0.06971
0.1145
0.5049
0.599
0.575
0.4098
0.3237
0.6691
0.5174
0.08309
0.5671
0.5813
0.6616
0.2199
0.3812
0.3312
0.4798
0.3357
0.3459
0.3932
0.05681
0.4198
0.179
0.5797
0.1964
0.3199
0.1605
0.4767
0.3108
0.5643
0.1638
0.2531
0.2815
0.3309
0.1564
0.4022
0.4407
0.2821
0.4043
0.4002
0.3789
0.1573
0.5744
0.6101
0.1826
0.274
0.273
0.4755
0.3958
0.1778
0.441
0.4476
0.5455
0.5732
0.3446
0.3993
0.3667
0.3677
0.2601
0.09812
0.05644
0.368
0.5629
0.2856
0.2562
0.1745
0.2591
0.536
0.3501
0.5799
0.3154
0.142
0.3208
0.4617
0.3521
0.5883
0.062
0.4145
0.2291
0.2168
0.3313
0.493
0.3105
0.4087
0.4637
0.2984
0.4929
0.4322
0.7083
0.1421
0.5742
0.3445
0.6892
0.3899
0.6651
0.04864
0.206
0.2569
0.283
0.5402
0.198
0.06993
0.05952
0.05965
0.4077
0.2119
0.5792
0.3911
0.2659
0.3198
0.2334
0.5224
0.4346
0.3354
0.3662
0.1848
0.2916
0.3651
0.5056
0.3646
0.1426
0.2664
0.5768
0.2605
0.4161
0.2949
0.3347
0.378
0.05619
0.3307
0.4104
0.1775
0.3813
0.4656
0.2604
0.4575
0.1109
0.1867
0.2454
0.5462
0.3891
0.1981
0.2784
0.563
0.2249
0.2846
0.3075
0.4794
0.07302
0.3165
0.5542
0.2391
0.3676
0.5854
0.5243
0.5263
0.4186
0.2292
0.3544
0.2944
0.4726
0.3544
0.06999
0.4135
0.3281
0.2557
0.2
0.4376
0.443
0.46
0.3558
0.317
0.1135
0.2564
0.4681
0.4409
0.2253
0.5273
0.1677
0.6075
0.186
0.4
0.2507
0.1532
0.1198
0.0504
0.234
0.1435
0.5465
0.2763
0.1173
0.05199
0.5426
0.4634
0.3041
0.2653
0.5537
0.405
0.09312
0.08186
0.3724
0.1279
0.4376
0.4407
0.1777
0.3523
0.4603
0.08505
0.3431
0.3446
0.4282
0.1546
0.5916
0.2436
0.549
0.5621
0.3449
0.1628
0.2737
0.3402
0.1914
0.7027
0.3939
0.1781
0.3163
0.3157
0.5967
0.3211
0.492
0.07406
0.3631
0.2587
0.2572
0.2284
0.2837
0.168
0.1749
0.3471
0.5482
0.4028
0.5411
0.1395
0.07625
0.4865
0.2892
0.2561
0.3193
0.2552
0.2402
0.3586
0.07765
0.05776
0.05775
0.4055
0.1372
0.2831
0.4442
0.141
0.4597
0.1853
0.4404
0.4628
0.3561
0.2168
0.08874
0.3273
0.2084
0.3587
0.3558
0.1523
0.155
0.3849
0.1766
0.3816
0.4339
0.5317
0.3087
0.2479
0.3389
0.3389
0.2588
0.4121
0.05588
0.3336
0.1643
0.5162
0.3633
0.1896
0.07386
0.3116
0.4453
0.4087
0.4243
0.18
0.5215
0.09011
0.3629
0.2606
0.4974
0.2007
0.376
0.4256
0.5488
0.3673
0.3396
0.2355
0.1502
0.1907
0.3981
0.0825
0.1766
0.1764
0.1766
0.2714
0.08483
0.2844
0.2452
0.155
0.0617
0.192
0.3428
0.06505
0.3051
0.3978
0.5303
0.3641
0.3053
0.2428
0.2649
0.3949
0.25
0.246
0.2385
0.07319
0.2396
0.4078
0.41
0.1359
0.3143
0.3134
0.1013
0.2974
0.3433
0.6821
0.1641
0.6371
0.2522
0.2002
0.4816
0.08549
0.4591
0.3471
0.4643
0.4926
0.3903
0.1016
0.5039
0.3059
0.2687
0.07801
0.5777
0.2313
0.4044
0.1443
0.1289
0.4279
0.5381
0.4826
0.3433
0.3487
0.2669
0.4502
0.3196
0.4483
0.4766
0.3184
0.3489
0.5302
0.4798
0.4902
0.6374
0.2642
0.09666
0.1347
0.1694
0.2721
0.2685
0.2194
0.1555
0.1758
0.08993
0.06641
0.5019
0.4609
0.2161
0.1076
0.4203
0.4914
0.5646
0.3147
0.3587
0.3797
0.3481
0.4237
0.3428
0.0641
0.3984
0.3152
0.4064
0.3676
0.3249
0.1118
0.3311
0.05149
0.2958
0.1806
0.585
0.3623
0.425
0.17
0.5613
0.55
0.4084
0.1721
0.2717
0.3691
0.07356
0.3095
0.2523
0.3807
0.1179
0.3353
0.3876
0.08687
0.175
0.1778
0.2475
0.3769
0.1548
0.3609
0.1809
0.6372
0.5117
0.4265
0.04269
0.165
0.2473
0.3478
0.103
0.3176
0.4012
0.4435
0.04264
0.08078
0.3479
0.3321
0.2568
0.577
0.3339
0.06183
0.3435
0.5836
0.189
0.1666
0.327
0.394
0.4127
0.1276
0.325
0.3613
0.2475
0.2841
0.208
0.3771
0.1811
0.03965
0.1474
0.2922
0.07328
0.2072
0.2144
0.5499
0.2617
0.4847
0.2515
0.3337
0.1623
0.533
0.2525
0.4245
0.3774
0.1105
0.3342
0.143
0.2484
0.2279
0.2107
0.03758
0.1917
0.06422
0.3934
0.1391
0.2688
0.5726
0.4118
0.3475
0.5775
0.3581
0.2204
0.353
0.3039
0.2792
0.415
0.1871
0.3676
0.1718
0.6689
0.121
0.2211
0.3748
0.1748
0.1486
0.4795
0.2534
0.3418
0.1178
0.2506
0.2487
0.1992
0.3962
0.4492
0.07214
0.4554
0.334
0.4992
0.2515
0.3187
0.07078
0.5736
0.582
0.2004
0.111
0.4684
0.3032
0.08732
0.3699
0.1854
0.258
0.1191
0.246
0.05084
0.05093
0.4608
0.3636
0.3065
0.566
0.4897
0.1987
0.2644
0.09705
0.269
0.4697
0.09468
0.0642
0.415
0.8569
0.2032
0.2041
0.3396
0.5686
0.0591
0.3939
0.1638
0.54
0.02724
0.1033
0.1503
0.2877
0.1015
0.1505
0.1028
0.07279
0.5093
0.3202
0.1284
0.385
0.4434
0.5783
0.2718
0.4718
0.2167
0.2299
0.3716
0.2787
0.256
0.06091
0.2636
0.3641
0.3463
0.3615
0.3502
0.5387
0.534
0.327
0.2092
0.02958
0.508
0.265
0.2473
0.3352
0.4758
0.3555
0.3314
0.2007
0.2256
0.1819
0.451
0.2049
0.576
0.3698
0.3352
0.5435
0.3011
0.3382
0.4634
0.5322
0.5322
0.5551
0.1823
0.1736
0.2222
0.2363
0.2374
0.2969
0.283
0.2547
0.4756
0.1156
0.08458
0.2677
0.2562
0.217
0.6266
0.1201
0.4767
0.6393
0.4644
0.3984
0.58
0.5801
0.155
0.3092
0.5632
0.2895
0.3352
0.1024
0.455
0.3436
0.3043
0.2483
0.2815
0.314
0.3105
0.1659
0.1773
0.2256
0.1327
0.2848
0.1609
0.3661
0.4033
0.1582
0.5145
0.2462
0.628
0.3245
0.3702
0.4767
0.6068
1.17
0.4703
0.1804
0.2283
0.3007
0.189
0.05683
0.05952
0.2601
0.5518
0.502
0.2264
0.5408
0.1131
0.3332
0.3513
0.2011
0.04746
0.215
0.196
0.331
0.09129
0.479
0.5972
0.399
0.3396
0.09554
0.3568
0.3646
0.3661
0.1881
0.2675
0.5125
0.5194
0.2578
0.472
0.5992
0.3594
0.3336
0.2006
0.3528
0.3042
0.4804
0.1956
0.45
0.3538
0.4373
0.3439
0.3328
0.4109
0.4783
0.2553
0.4946
0.2637
0.1827
0.1052
0.4883
0.4597
0.2194
0.4507
0.5765
0.4161
0.3731
0.1166
0.3014
0.1778
0.4078
0.1766
0.3782
0.3981
0.2738
0.3487
0.1928
0.324
0.1837
0.3158
0.1701
0.5348
0.33
0.3725
0.5669
0.3126
0.5148
0.3011
0.1604
0.4145
0.3308
0.3687
0.431
0.1577
0.3439
0.5451
0.3399
0.5899
0.2415
0.5885
0.2044
0.07405
0.2831
0.3209
0.4854
0.5552
0.1926
0.3774
0.1741
0.4088
0.542
1.116
0.1615
0.5421
0.459
0.1123
0.04794
0.5314
0.4835
0.438
0.09933
0.2588
0.5634
0.3593
0.325
0.3271
0.5286
0.225
0.4881
0.4239
0.2553
0.4903
0.393
0.3052
0.5784
0.5534
0.1778
0.2304
0.4386
0.2526
0.2406
0.08271
0.228
0.5953
0.3926
0.3779
0.2723
0.3654
0.1595
0.5243
0.4141
0.1791
0.3561
0.4614
0.549
0.5187
0.4072
0.5258
0.4019
0.06191
0.3963
0.1779
0.1952
0.158
0.1998
0.299
0.5798
0.5584
0.2985
0.2473
0.2185
0.1417
0.4944
0.4185
0.4699
0.1355
0.3801
0.5534
0.4475
0.2136
0.4215
0.6299
0.4813
0.3119
0.4285
0.5266
0.3885
0.1812
0.2264
0.5089
0.4953
0.2063
0.5065
0.403
0.3775
0.2108
0.5801
0.4772
0.1488
0.6201
0.5564
0.08758
0.5097
0.3567
0.4361
0.3865
0.3307
0.3812
0.1632
0.3045
0.3048
0.1844
0.2995
0.3297
0.08514
0.3758
0.3272
0.1625
0.1938
0.2075
0.3463
0.5123
0.5664
0.2017
0.4202
0.2367
0.559
0.08699
0.2413
0.5046
0.5973
0.4268
0.3159
0.3534
0.5777
0.5426
0.3105
0.2917
0.3182
0.2796
0.1437
0.226
0.05492
0.2158
0.4684
0.3871
0.2849
0.1565
0.1899
0.3014
0.5702
0.5553
0.2018
0.4243
0.3821
0.4465
0.09198
0.3022
0.4655
0.3307
0.3281
0.3735
0.3308
0.3401
0.4537
0.5136
0.2953
0.1615
0.06303
0.2772
0.3503
0.3028
0.3167
0.1085
0.0816
0.3372
0.5787
0.2649
0.5404
0.1225
0.3914
0.3602
0.3892
0.2365
0.3208
0.5994
0.5053
0.3416
0.4805
0.4124
0.2607
0.3488
0.3767
0.4236
0.1819
0.2275
0.1991
0.5052
0.3434
0.5289
0.3681
0.3715
0.545
0.5855
0.2217
0.1897
0.1746
0.5485
0.2702
0.434
0.3191
0.3206
0.2858
0.2755
0.161
0.46
0.3512
0.3591
0.3016
0.356
0.2553
0.2815
0.2134
0.5691
0.384
0.3693
0.3658
0.4269
0.357
0.1009
0.3581
0.4036
0.4927
0.4151
0.3766
0.3429
0.3827
0.732
0.3297
0.1223
0.2703
0.5891
0.5993
0.4253
0.4975
0.1943
0.1997
0.2685
0.1812
0.4806
0.2561
0.5694
0.1014
0.217
0.06552
0.2979
0.5117
0.313
0.07844
0.2588
0.1076
0.2268
0.5431
0.4864
0.251
0.564
0.5242
0.4856
0.3332
0.5617
0.6907
0.1934
0.5403
0.3264
0.06994
0.3499
0.4045
0.4404
0.4594
0.2349
0.5415
0.1949
0.07395
0.3299
0.2749
0.4791
0.5434
0.1751
0.4659
0.2518
0.07338
0.3265
0.4813
0.2574
0.4078
0.1213
0.1952
0.3004
0.3004
0.5282
0.5319
0.2965
0.5613
0.6575
0.363
0.4257
0.1934
0.3119
0.05905
0.259
0.4891
0.2407
0.3119
0.2729
0.2388
0.1496
0.1521
0.1532
0.4135
0.1594
0.1589
0.2162
0.1732
0.1543
0.2827
0.445
0.5143
0.3644
0.4359
0.2854
0.1976
0.06226
0.3789
0.5425
0.2277
0.2753
0.5839
0.2843
0.3663
0.6022
0.1156
0.2408
0.4577
0.2456
0.4089
0.5124
0.4539
0.2374
0.2713
0.1539
0.5484
0.3051
0.2451
0.1594
0.3299
0.9764
0.457
0.4658
0.2563
0.47
0.2733
0.2735
0.1243
0.212
0.5498
0.2247
0.3963
0.3495
0.1874
0.5452
0.2524
0.5074
0.4286
0.07034
0.2523
0.3691
0.4129
0.5456
0.6289
0.2664
0.4019
0.4105
0.386
0.1407
1.32
0.4159
0.2564
0.3906
0.1252
0.5355
0.3043
0.4087
0.2615
0.1856
0.1576
0.1691
0.2851
0.2577
0.09127
0.5532
0.02255
0.1681
0.4975
0.4192
0.4082
1.311
0.5424
0.1658
0.2998
0.9765
0.2959
0.3985
0.4931
0.3342
0.4855
0.3452
0.5015
0.1682
0.3714
0.3089
0.4398
0.3564
0.08384
0.2214
0.4021
0.2228
0.3362
0.3784
0.3245
0.2655
0.3415
0.1661
0.1573
0.4514
0.09347
0.06154
0.2803
0.2997
0.3452
0.4959
0.2088
0.1353
0.5272
0.1347
0.3083
0.4683
0.6037
0.429
0.2434
0.4208
0.1459
0.3083
0.4048
0.368
0.3744
0.5185
0.3816
0.3301
0.4286
0.4492
0.4206
0.3381
0.3167
0.4639
0.3435
0.4053
0.4654
0.08832
0.1537
0.5217
0.4204
0.3039
0.3391
0.5028
0.1987
0.1439
0.4603
0.5283
0.3126
0.4133
0.331
0.05992
0.2563
0.3101
0.4044
0.3475
0.5098
1.387
0.4938
0.1919
0.2539
0.03133
0.1708
0.2047
0.7629
0.5711
0.4423
0.3819
0.2256
0.4013
0.3649
0.2086
0.1452
0.4164
0.1426
0.1575
0.2316
0.2209
0.3971
0.558
0.1356
0.3802
0.1564
0.06085
0.3355
0.2642
0.2067
0.5699
0.1269
0.08406
0.354
0.08987
0.552
0.1279
0.3102
0.5215
0.08739
0.321
0.4315
0.1922
0.3299
0.776
0.5505
0.4691
0.3826
0.3536
0.3004
0.2647
1.165
1.165
0.1652
0.1552
0.5622
0.4241
0.2636
0.2407
0.41
0.5609
0.1139
0.3425
0.5268
0.3992
0.4162
0.4018
0.6473
0.5088
0.5692
0.1897
0.2789
0.4028
0.2083
0.2562
0.5406
0.03829
0.5017
0.2513
0.5384
0.09635
0.4336
0.2788
0.1349
0.1643
0.3928
0.3324
0.1239
0.4028
0.4155
0.3844
0.3224
0.2194
0.0563
0.3608
0.4509
0.375
0.5538
0.5676
0.3564
0.4213
0.3299
0.4331
0.1763
0.4414
0.1999
0.3476
0.2049
0.5766
0.4248
0.3067
0.2157
0.1838
0.3166
0.2477
0.2924
0.2814
0.5228
0.2744
0.4524
0.06421
0.2001
0.2722
0.28
0.3392
0.4405
0.4595
0.5142
0.4435
0.06184
0.3269
0.1579
0.3679
0.1345
0.1512
0.4581
0.2944
0.6704
0.2336
0.109
1.147
0.276
0.5293
0.2621
0.3407
0.3643
0.4928
0.3578
0.2945
0.08755
0.4594
0.4914
0.1646
0.2217
0.3439
0.3893
0.3927
0.3302
0.3042
0.1714
0.1716
0.3833
0.4739
0.0521
0.1462
0.2836
0.3483
0.22
0.3858
0.5576
0.1171
0.2602
0.3743
0.3
0.5406
0.267
0.2455
0.1099
0.5544
0.2905
0.3144
0.2395
0.339
0.2064
0.08991
0.1597
0.1263
0.5763
0.2858
0.256
0.1773
0.5037
0.4196
0.05987
0.09098
0.2597
0.06195
0.2454
0.4572
0.2913
0.3445
0.5114
0.1442
0.3121
0.2089
0.2357
0.07334
0.2208
0.386
0.09309
0.5691
0.2487
0.06298
0.2171
0.5042
0.2678
0.4154
0.3205
0.246
0.3725
0.05299
0.4165
0.5528
0.05873
0.1753
0.2917
0.1577
0.2798
0.2681
0.1146
0.572
0.3787
0.355
0.5384
0.03218
0.1192
0.3461
0.1404
0.05387
0.4667
0.0548
0.5337
0.3771
0.2498
0.3486
0.2851
0.1222
0.1923
0.2211
0.5859
0.1688
0.3966
0.06205
0.5819
0.462
0.5458
0.3825
0.4676
0.1756
0.5188
0.2696
0.3459
0.05286
0.9753
0.2928
0.9769
0.224
0.1228
0.1561
0.3567
0.2463
0.5548
0.2218
0.2138
0.2726
0.3577
0.02785
0.3753
0.08996
0.6177
0.341
0.06485
0.5176
0.5126
0.1069
0.377
0.3379
0.3747
0.3131
0.42
0.4767
0.2103
0.5768
0.5112
0.1027
0.3192
0.07922
0.5729
0.3374
0.3918
0.1433
1.185
0.09028
0.4972
0.3532
0.06146
0.544
0.639
0.5097
0.5105
0.04989
0.5358
0.4095
0.2361
0.3731
0.3765
0.518
0.639
0.1992
0.2551
0.5241
0.3473
0.4675
0.4673
0.06046
0.272
0.3645
0.2446
0.3076
0.5431
0.08807
0.4226
0.07529
0.3347
0.4388
0.2961
0.5219
0.2405
0.2076
0.3495
0.06851
0.2532
0.1721
0.3694
0.3802
0.4718
0.1731
0.4752
0.2486
0.4424
0.4229
0.2571
0.2795
0.1619
0.0645
0.1938
0.2829
0.4266
0.2839
0.4214
0.5596
0.5213
0.2561
0.4838
0.5195
0.5893
0.1471
0.1603
0.4444
0.4686
0.3103
0.5254
0.3128
1.187
0.07198
0.4611
0.7837
0.4584
0.3818
0.3198
0.3821
0.2817
0.1745
0.2025
0.3215
0.3758
0.4122
0.4626
0.2044
0.1381
0.5431
0.4313
0.5899
0.6607
0.1663
0.1257
0.2775
0.3683
0.1897
0.06445
0.5123
0.4384
0.2572
0.2827
0.4072
0.32
0.32
0.312
0.4041
0.4325
0.5932
0.2965
0.1113
0.2717
0.3341
0.3637
0.52
0.2908
0.04446
0.6504
0.6504
0.5147
0.3006
0.06425
0.3035
0.287
0.326
0.2946
0.5548
0.7704
0.3176
0.4029
0.4211
0.189
0.4861
0.5775
0.2384
0.3795
0.5848
0.4311
0.05193
0.09839
0.3773
0.4773
0.2491
0.2487
0.2704
0.2474
0.2851
0.5334
0.3636
0.2865
0.5237
0.0888
0.1727
0.3988
0.1667
0.2001
0.34
0.3192
0.3404
0.189
0.1549
0.1645
0.4391
0.329
0.0744
0.06685
0.3756
0.3534
0.5632
0.3793
0.08421
0.1886
0.5682
0.1642
0.3185
0.1908
0.2229
0.2714
0.07952
0.2317
0.5656
0.2285
0.2902
0.09538
0.4741
0.2824
0.5676
0.5011
0.1168
0.1392
0.5604
0.0981
0.239
0.5391
0.4743
0.3151
0.3359
0.3736
0.2928
0.0569
0.1636
0.3883
0.3542
0.3225
0.4502
0.1712
0.2058
0.198
0.288
0.3644
0.3731
0.3551
0.3944
0.05513
0.3446
0.1285
0.1709
0.32
0.3448
0.4376
0.1785
0.6009
0.2625
0.4576
0.1835
0.1027
0.2058
0.4127
0.1001
0.4186
0.09492
0.3951
0.2196
0.2381
0.1478
0.5689
0.4728
0.0932
0.3281
0.2748
0.2135
0.3634
0.4265
0.0806
0.247
0.1121
0.2311
0.1619
0.3564
0.324
0.3129
0.3433
0.1788
0.4525
0.2895
0.1351
0.4747
0.4467
0.3458
0.2392
0.08443
0.4504
0.3308
0.5073
0.5303
0.3079
0.3192
0.4281
0.4219
0.3702
0.2371
0.5106
0.317
0.1863
0.317
0.4458
0.1318
0.2057
0.3261
0.1657
0.04377
0.2091
0.1539
0.04642
0.1114
0.06938
0.4677
0.421
0.3671
0.4821
0.4196
0.2199
0.08078
0.1453
0.5117
0.1215
0.4652
0.2875
0.2398
0.1078
0.3099
0.05538
0.08047
0.6641
0.5027
0.3835
0.3136
0.2743
0.3355
0.2253
0.3869
0.3956
0.4089
0.09881
0.5041
0.3469
0.4724
0.07916
0.2135
0.4204
0.3629
0.2034
0.4143
0.2621
0.101
0.283
0.4567
0.5259
0.2553
0.133
0.4615
0.2534
0.3233
0.06892
0.2582
0.3495
0.07693
0.5702
0.304
0.2825
0.5568
0.05574
0.1715
0.3218
0.1633
0.3325
0.3513
0.389
0.4256
0.4756
0.3898
0.2556
0.2122
0.507
0.1996
0.3018
0.5629
0.342
0.3771
0.18
0.1037
0.1735
0.2471
0.4424
0.442
0.338
0.3014
0.1002
0.3726
0.4064
0.1221
0.2404
0.5038
0.2785
0.3535
0.5284
0.2091
0.2418
0.2908
0.07892
0.2523
0.4308
0.2743
0.2742
0.244
0.4834
0.06779
0.4624
0.5668
0.2126
0.2121
0.564
0.2853
0.2286
0.4416
0.2598
0.3674
0.3516
0.5514
0.2143
0.1878
0.1899
0.253
0.5714
0.4619
0.4137
0.3689
0.3201
0.03466
0.3947
0.2269
0.4518
0.1701
0.3389
0.2204
0.3595
0.3145
0.5277
0.4611
0.08551
0.441
0.2315
0.4352
0.3685
0.4121
0.4842
0.5055
0.3107
0.2656
0.6159
0.5013
0.4287
0.4281
0.4038
0.3256
0.5593
0.4183
0.3022
0.284
0.2233
0.5196
0.5075
0.1316
0.1846
0.5168
0.5432
0.303
0.2988
1.323
0.1808
0.5096
0.08001
0.4228
0.5901
0.1403
0.772
0.506
0.1371
0.5381
0.3043
0.2349
0.2062
0.1751
0.08399
0.6704
0.3727
0.2351
0.2972
0.5575
0.8093
0.5128
0.208
0.2724
0.2707
0.1676
0.4135
0.07198
0.2823
0.1862
0.2118
0.474
0.09558
0.06157
0.0501
0.5833
0.5055
0.3129
0.7261
0.4106
0.3349
0.5964
0.5465
0.1329
0.04123
0.204
0.2715
0.1571
0.1076
0.4836
0.0581
0.4322
0.2436
0.5958
0.5282
0.3109
0.6457
0.3653
0.4479
0.167
0.3514
0.3931
0.1474
0.4611
0.5186
0.4748
0.09238
0.4848
0.08692
0.3531
0.2579
0.2754
0.1168
0.5476
0.4134
0.377
0.3049
0.5064
0.3494
0.2113
1.031
0.3256
0.4258
0.536
0.591
0.5264
0.2574
0.137
0.5161
0.5189
0.352
0.4268
0.3857
0.4198
0.1414
0.5557
0.2661
0.5722
0.4689
0.0971
0.5373
0.5168
0.5748
0.2833
0.342
0.1712
0.5011
0.08898
0.4271
0.2071
0.5786
0.07072
0.4012
0.5088
0.2111
0.5226
0.3476
1.165
0.2836
0.4081
0.1795
0.7476
0.06699
0.3701
0.4414
0.6382
0.3673
0.616
0.1047
0.09057
0.183
0.1853
0.4093
0.2573
0.2595
0.4181
0.4738
0.1383
0.2144
0.2093
0.2718
0.444
0.4409
0.5673
0.2761
0.2795
0.2408
0.07721
0.3172
0.5738
0.07906
0.3863
0.1493
0.4335
0.1611
0.2759
0.1775
0.4058
0.4023
0.4465
0.5072
0.3454
0.1789
0.1638
0.5574
0.3811
0.385
0.2841
0.1388
0.06176
0.1655
0.05911
0.2113
0.5051
0.3858
0.1785
0.3569
0.2438
0.272
0.503
0.2594
0.3758
0.05956
0.208
0.1527
0.3635
0.3003
0.1746
0.5835
0.3356
0.4794
0.3249
0.5576
0.2219
0.5313
0.4309
0.2164
0.2215
0.3865
1.168
0.5098
0.08046
0.457
0.3608
0.5383
0.7438
0.275
0.5344
0.2432
0.2348
0.3633
0.1417
0.2467
0.3563
0.1371
0.5147
0.5088
0.33
0.2922
0.1248
0.3568
0.2258
0.4522
0.4713
0.4341
0.4301
0.5408
0.2855
0.3672
0.4821
0.1151
0.4193
0.3169
0.2545
0.2413
0.125
0.104
0.3639
0.2597
0.512
0.4321
0.2797
0.3147
0.3532
0.5623
0.512
0.4533
0.1946
0.3802
0.386
0.2582
0.4689
0.06879
0.3731
0.08706
0.5171
0.3335
0.4291
1.24
0.218
0.3189
0.4159
0.3879
0.06774
0.3026
0.2897
0.1481
0.5203
0.412
0.5993
0.5877
0.5637
0.3936
0.5767
0.3455
0.2063
0.1396
0.5316
0.3636
0.2094
0.3428
0.1385
0.5517
0.428
0.2485
0.3918
0.5056
0.2605
0.2388
0.3408
0.3677
0.3061
0.1881
0.3257
0.06696
0.06697
0.4665
0.3579
0.2621
0.2457
0.2776
0.169
0.1463
0.1852
0.2199
0.1963
0.11
0.2185
0.7964
0.06884
0.457
0.2441
0.5028
0.2874
0.1176
0.5227
0.07714
0.4102
0.06868
0.1028
0.3671
0.5291
0.2715
0.1958
0.2565
0.5137
0.1349
0.2309
0.2864
0.4918
0.6585
0.09706
0.493
0.2597
0.06611
0.4664
0.5914
0.2004
0.1263
0.4064
0.3148
0.5224
0.4612
0.3493
0.4354
0.4401
0.3054
0.4412
0.3505
0.5784
0.258
0.1639
0.1804
0.1098
0.08848
0.2274
0.1287
0.3846
0.05904
0.05876
0.4603
0.5327
0.6039
0.3603
0.2019
0.2754
0.5343
0.3268
0.1804
0.2824
0.2523
0.316
0.2082
0.335
0.2742
0.1781
0.0876
0.3469
0.06766
0.2001
0.3241
0.4779
0.2521
0.2749
0.5399
0.287
0.1093
0.08221
0.3557
0.4491
0.6247
0.1704
0.1921
0.1444
0.5162
0.465
0.2003
0.5507
0.3174
0.1382
0.1313
0.5691
0.3424
0.2508
0.1294
0.6116
0.1832
0.1269
0.0502
0.3261
0.5264
0.5448
0.4569
0.3448
0.4056
0.2691
0.271
0.3681
0.2077
0.3053
0.1596
0.355
0.2283
0.3508
0.518
0.3767
0.06846
0.09302
0.1066
0.2967
0.05185
0.2739
0.5294
0.3812
0.2667
0.2658
0.2285
0.2341
0.07734
0.1407
0.2705
0.3168
0.1576
0.1451
0.2102
0.3062
0.2489
0.3695
0.3188
0.4866
0.2081
0.4332
0.2377
0.3162
0.2413
0.1168
0.2639
0.5817
0.5443
0.3036
0.4413
0.5061
0.2248
0.1879
0.3786
0.1878
0.3026
0.211
0.175
0.376
0.2221
0.2802
0.08957
0.3378
0.1846
0.1852
0.4295
0.1058
0.5834
0.5523
0.3291
0.2503
0.3984
0.2171
0.3411
0.5527
0.3657
0.2267
0.6767
0.416
0.2563
0.3582
0.3822
0.4238
0.27
0.3274
0.436
0.5737
0.3166
0.4688
0.2969
0.4751
0.5693
0.4893
0.5177
0.1474
0.3176
0.2896
0.05135
0.5078
0.3292
0.0817
0.5227
0.5763
0.2574
0.2897
0.3612
0.06464
0.5021
0.258
0.3764
0.2781
0.2689
0.3502
0.5092
0.301
0.1612
0.2713
0.1596
0.3112
0.5602
0.2983
0.7109
0.2192
0.5506
0.389
0.2893
0.0787
0.5288
0.13
0.1559
0.6018
0.4571
0.5114
0.5799
0.1072
0.4191
0.2859
0.3466
0.2792
0.3867
0.3084
0.07823
0.4827
0.2543
0.3619
0.4136
0.4248
0.5096
0.5609
0.09407
0.2149
0.2604
0.08311
0.2412
0.4356
0.09034
0.3679
0.209
0.3346
0.3024
0.2369
0.2536
0.4822
0.2919
0.2666
0.4332
0.2407
0.4733
0.6104
0.3456
0.441
0.3131
0.2642
0.2104
0.4467
0.3527
0.3949
0.2598
0.5214
0.3153
0.1973
0.3624
0.4466
0.2327
0.08486
0.5026
0.3
0.4269
0.5274
0.2703
0.3849
0.4015
0.2531
0.2355
0.1618
0.2744
0.1805
0.2331
0.5869
0.2665
0.2043
0.2303
0.2195
0.1955
0.1237
0.3802
0.137
0.3248
0.5328
0.1667
0.2908
0.4012
0.3107
0.223
0.3105
0.2894
0.4653
0.2336
0.4348
0.2598
0.2909
0.5915
0.0853
0.06082
0.257
0.2888
0.5442
0.3407
0.2074
0.7318
0.3542
0.2431
0.3285
0.08243
0.3467
0.2618
0.3901
0.3401
0.3072
0.2905
0.2742
0.2603
0.4343
0.08297
0.1947
0.1691
0.5185
0.1952
0.5443
0.3861
0.3816
0.8587
0.4465
0.5072
0.3688
0.1231
0.508
0.3166
0.03732
0.08097
0.5411
0.4769
0.281
0.29
0.3805
0.2565
0.4503
0.3643
0.5664
0.2113
0.3284
0.3388
0.1681
0.4655
0.0924
0.0815
0.2213
0.2128
0.3204
0.1448
0.3215
0.09902
0.3402
0.1934
0.5288
0.4977
0.2979
0.3323
0.3861
0.4537
0.502
0.4611
0.181
0.1869
0.3544
0.2149
0.6879
0.341
0.2742
0.4346
0.267
0.4799
0.1198
0.07548
0.2154
0.2958
0.2618
0.2846
0.3273
0.1872
0.7676
0.1921
0.1125
0.3184
0.5464
0.3596
0.09971
0.5767
0.3776
0.1238
0.1305
0.3153
0.4384
0.1604
0.1612
0.4255
0.5066
0.07944
0.3576
0.2176
0.379
0.3992
0.6308
0.4992
0.196
0.3555
0.3726
0.07348
0.2216
0.4071
0.3102
0.3572
0.3336
0.1957
0.4791
0.436
0.08439
0.3823
0.08799
0.08796
0.7928
0.405
0.6312
0.3336
0.2201
0.2663
0.08125
0.1848
0.8392
0.3445
0.3621
0.3494
0.4885
0.09632
0.4223
0.2545
0.3074
0.4272
0.2707
0.2767
0.1982
0.4886
0.2464
0.2667
0.3762
0.17
0.1306
0.5169
0.5676
0.2064
0.2209
0.3931
0.3366
0.4334
0.397
0.7671
0.4111
0.2174
0.4967
0.3625
0.4709
0.303
0.2369
0.1224
0.4904
0.25
0.3757
0.2003
0.3252
0.2295
0.19
0.3754
0.1725
0.3589
0.302
0.2733
0.2529
0.2791
0.194
0.5773
0.4142
0.1268
0.5467
0.4208
0.6009
0.2415
0.4215
0.2931
0.1947
0.1911
0.3437
0.05551
0.5185
0.3845
0.5657
0.227
0.2507
0.5156
0.3725
0.06998
0.2961
0.2055
0.2387
0.2972
0.266
0.3609
0.3668
0.5635
0.1665
0.3215
0.3693
0.39
0.209
0.1953
0.5915
0.6705
0.1048
0.04978
0.3893
0.1656
0.2435
0.4986
0.2182
0.2288
0.2552
0.264
0.3125
0.183
0.3161
0.158
0.4036
0.304
0.244
0.3176
0.2374
0.2064
0.2361
0.1188
0.2252
0.336
0.4461
0.2521
0.2107
0.3207
0.5393
0.2554
0.0605
0.1913
0.06155
0.08623
0.2989
0.5301
0.4036
0.1721
0.08624
0.5625
0.3332
0.1854
0.241
0.2581
0.3233
0.3156
0.1695
0.1593
0.5575
0.3764
0.5416
0.09005
0.3853
0.3947
0.4
0.3351
0.2751
0.4208
0.4107
0.5115
0.3068
0.2211
0.417
0.5576
0.3441
0.1822
0.1973
0.5502
0.321
0.375
0.4787
0.427
0.3164
0.3386
0.3751
0.2586
0.2978
0.05538
0.1689
0.118
0.265
0.1546
0.2988
0.1902
0.362
0.5765
0.5768
0.1852
0.2198
0.2325
0.3398
0.1482
0.397
0.3104
0.3463
0.3549
0.4801
0.2739
0.07329
0.3484
0.473
0.1362
1.031
0.3172
0.04131
0.16
0.4808
0.5644
0.4267
0.05492
0.486
0.5803
0.5432
0.306
0.3457
0.3164
0.2951
0.3964
0.1028
0.2777
0.08594
0.2747
0.6022
0.2302
1.096
0.2558
0.4559
0.3097
0.2725
0.1834
0.5078
0.1944
0.3219
0.1063
0.2645
0.4248
0.2831
0.3236
0.07642
0.2077
0.1563
0.1289
0.2084
0.2217
0.4659
0.2978
0.2402
0.3908
0.07819
0.2627
0.3288
0.233
0.4908
0.3495
0.2348
0.2648
0.2549
0.1902
0.3884
0.5681
0.2318
0.2736
0.06728
0.0958
0.3908
0.5047
0.2616
0.06173
0.2199
0.5202
0.4662
0.1163
0.06222
0.2509
0.2759
0.3824
0.05638
0.4704
0.052
0.2734
0.4572
0.3587
0.456
0.5856
0.3692
0.5716
0.2799
0.4632
0.5604
0.3209
0.2486
0.2856
0.4177
0.2703
0.4195
0.4064
0.2685
0.3613
0.2483
0.3067
0.3247
0.3899
0.3711
0.1596
0.4677
0.3009
0.408
0.4831
0.1361
0.2838
0.128
0.4239
0.5084
0.3316
0.2821
0.4491
0.1817
0.07473
0.4263
0.5914
0.6914
0.6915
0.5722
0.5302
0.1348
0.2482
0.03466
0.3179
0.3111
0.503
0.0743
0.2719
0.1731
0.2911
0.4037
0.2129
0.2419
0.06214
0.3438
0.2429
0.2416
0.3146
0.0763
0.4224
0.2991
0.2963
0.3691
0.3736
0.5021
0.5792
0.3712
0.4284
0.4417
0.3125
0.3797
0.5077
0.5293
0.1261
0.5174
0.5943
0.3267
0.6845
0.2843
0.3191
0.09452
0.382
0.2237
0.1472
0.4129
0.3544
0.3427
0.2779
0.4
0.2616
0.2659
0.3909
0.3132
0.4708
0.5613
0.1761
0.1478
0.3279
0.4239
0.1502
0.4131
0.3148
0.4132
0.2561
0.5498
0.213
0.1975
0.5609
0.4511
0.34
0.3973
0.5405
0.3889
0.06162
0.4213
0.3454
0.2317
0.5706
0.2994
0.4061
0.2571
0.4237
0.6022
0.3471
0.07146
0.3164
0.3657
0.1589
0.25
0.0637
0.5496
0.5477
0.1338
0.325
0.3981
0.1491
0.37
0.567
0.1606
0.191
0.2407
0.4412
0.3096
0.04934
0.4961
0.04779
0.2522
0.5385
0.4216
0.5395
0.08453
0.2119
0.2333
0.1429
0.06287
0.1535
0.2701
0.38
0.3148
0.2486
0.4148
0.2486
0.3437
0.5431
0.1565
0.2883
0.3632
0.2961
0.3836
0.5551
0.2964
0.2157
0.05479
0.182
0.1668
0.1001
0.141
0.2688
0.2415
0.3388
0.09462
0.4411
0.2913
0.159
0.5761
0.1633
0.5746
0.3251
0.226
0.5774
0.1042
0.7279
0.134
0.1885
0.1127
0.05186
0.2218
0.1704
0.3314
0.5475
0.5299
0.3235
0.3475
0.238
0.3764
0.4667
0.1228
0.3545
0.3989
0.4299
0.3095
0.3831
0.07345
0.05446
0.07869
0.3533
0.1872
0.4019
0.5022
0.2166
0.07715
0.5592
0.3817
0.1592
0.8717
0.2102
0.3485
0.2216
0.4524
0.6533
0.1804
0.05138
0.1229
0.3136
0.3619
0.3546
0.2364
0.3013
0.2655
0.2654
0.4097
0.2496
0.2137
0.4372
0.4275
0.2321
0.3544
0.3457
0.3471
0.2566
0.1024
0.3029
0.4279
0.5093
0.2132
0.5965
0.3264
0.4063
0.4468
0.1824
0.5478
0.3976
0.3315
0.06269
0.4749
0.06297
0.3055
0.2792
0.09099
0.1729
0.1287
0.1979
0.2649
0.3744
0.984
0.2861
0.3578
0.4285
0.4541
0.4846
0.1091
0.2122
0.5141
0.554
0.3458
0.5178
0.1437
0.3307
0.5504
0.1795
0.3523
0.2447
0.4445
0.2966
0.5542
0.3007
0.2145
0.3656
0.3766
0.5991
0.5702
0.4838
0.5492
0.3184
0.2806
0.2287
0.05132
0.1722
0.5842
0.3142
0.1671
0.4932
0.1596
0.3246
0.6034
0.2863
0.1493
0.5187
0.3461
0.3772
0.128
0.4976
0.31
0.3876
0.4825
0.05012
0.2455
0.6126
0.4335
0.4395
0.3203
0.04991
0.3833
0.3223
0.2375
0.2363
0.05268
0.09617
0.06526
0.5949
0.383
0.3906
0.5712
0.3117
0.0904
0.3726
0.3346
0.3902
0.1713
0.5681
0.2208
0.2905
0.5695
0.2382
0.4764
0.07838
0.5444
0.5972
0.2349
0.5111
0.3554
0.3336
0.3061
0.5341
0.07369
0.2346
0.3161
0.2134
0.07387
0.4136
0.191
0.5795
0.107
0.4426
0.269
0.0747
0.3417
0.3265
0.1602
0.8135
0.5743
0.1324
0.09145
0.157
0.0713
0.4081
0.3799
0.0929
0.3081
0.5868
0.3186
0.2474
0.5984
0.247
0.3822
0.3535
0.3267
0.0699
0.2326
0.1015
0.3762
0.3731
0.2318
0.5661
0.3162
0.3368
0.4984
0.3449
0.2844
0.09113
0.05631
0.3717
0.08079
0.6643
0.3713
0.2792
0.5267
0.4362
0.4242
0.3508
0.3875
0.3269
0.1235
0.4831
0.4364
0.3841
0.4262
0.04554
0.3863
0.2427
0.03362
0.2495
0.1937
0.4819
0.1304
0.4843
0.317
0.5258
0.3403
0.3069
0.07022
0.06931
0.09084
0.5177
0.2921
0.1504
0.1706
0.2857
0.2636
0.3944
0.3888
0.2459
0.487
0.1656
0.2398
0.3775
0.2039
0.373
0.3097
0.4729
0.1262
0.5365
0.4924
0.1333
0.4441
0.5677
0.3169
0.2229
0.379
0.7882
0.2329
0.2245
0.42
0.3272
0.3123
0.1777
0.4025
0.3202
0.401
0.369
0.2711
0.3894
0.3155
0.5052
0.3653
0.09819
0.4184
0.3471
0.3447
0.3155
0.4702
0.1868
0.3846
0.3486