/*--------------------------------*- C++ -*----------------------------------*\
| =========                 |                                                 |
| \\      /  F ield         | OpenFOAM: The Open Source CFD Toolbox           |
|  \\    /   O peration     | Version:  v2012                                 |
|   \\  /    A nd           | Website:  www.openfoam.com                      |
|    \\/     M anipulation  |                                                 |
\*---------------------------------------------------------------------------*/
FoamFile
{
    version     2.0;
    format      ascii;
    class       volVectorField;
    location    "5";
    object      U;
}
// * * * * * * * * * * * * * * * * * * * * * * * * * * * * * * * * * * * * * //

dimensions      [0 1 -1 0 0 0 0];


internalField   nonuniform List<vector> 
118995
(
(-0.0009722 -0.009477 0)
(0.08356 0.3419 0)
(0.4548 0.3676 4.47e-21)
(0.5446 0.3396 0)
(0.4434 0.2558 -2.916e-22)
(0.538 0.1745 -5.852e-22)
(0.4612 0.3695 4.906e-21)
(0.1401 0.00191 -3.115e-22)
(0.06192 0.2823 4.394e-21)
(0.326 0.3693 0)
(0.1941 0.3606 3.2e-21)
(0.6407 0.1843 -7.711e-23)
(0.1951 0.3524 0)
(0.3204 0.3728 -7.526e-21)
(0.02729 -0.09122 -1.225e-20)
(0.0225 -0.07932 -6.188e-21)
(0.09722 -0.02541 -4.762e-22)
(0.08117 0.291 0)
(0.103 0.001266 0)
(0.0981 -0.01763 2.699e-22)
(0.3155 0.372 -2.179e-22)
(-0.003022 -0.02279 5.95e-22)
(-0.001648 -0.02252 -1.816e-22)
(0.0008396 0.01336 0)
(0.09304 -0.02941 0)
(1.025 0.4687 6.045e-23)
(0.2079 -0.0431 0)
(0.8987 -0.06833 -3.354e-22)
(0.4337 -0.1218 -1.728e-22)
(-0.0004712 -0.02133 -4.351e-22)
(0.6034 -0.1211 6.349e-22)
(0.8398 0.6324 8.062e-23)
(1.007 -0.01007 9.995e-21)
(0.415 -0.1356 9.558e-23)
(-0.001351 -0.02384 -6.689e-22)
(0.5784 -0.007448 -1.371e-22)
(0.2304 -0.1068 -4.726e-22)
(0.6832 0.008763 -2.108e-22)
(0.5864 -0.01024 1.718e-23)
(0.9504 -0.04278 -1.947e-23)
(0.9295 -0.05145 0)
(0.6267 -0.01356 -1.126e-22)
(0.9654 0.01127 -5.95e-22)
(0.6388 -0.1198 -1.213e-21)
(0.6063 -0.1209 3.897e-22)
(0.6614 -0.1132 1.163e-21)
(0.6193 -0.1169 -3.234e-21)
(0.4756 0.01454 1.41e-23)
(0.6284 -0.01392 4.729e-23)
(0.5369 0.003147 -7.749e-23)
(0.6567 -0.1199 -1.802e-21)
(0.6368 -0.1153 0)
(0.7049 -0.1512 -1.745e-21)
(0.5566 -0.002692 -1.272e-22)
(0.7692 0.01028 -1.861e-21)
(0.619 -0.1181 1.047e-21)
(1.009 0.000236 -1.532e-20)
(0.9459 0.302 1.131e-22)
(0.5821 -0.009083 2.943e-23)
(0.1516 -0.04132 0)
(0.6546 -0.1153 6.494e-22)
(0.6986 -0.1184 0)
(0.7391 -0.1148 6.059e-22)
(1.098 0.2953 0)
(1.009 0.01418 3.609e-21)
(0.7921 -0.09452 0)
(0.003442 -0.00237 -1.965e-22)
(0.81 -0.07151 -2.327e-22)
(0.8665 -0.2886 -2.532e-22)
(0.4775 0.01436 0)
(0.6601 -0.115 -1.144e-21)
(0.6263 0.08967 2.855e-21)
(0.8522 0.0965 -5.884e-22)
(0.02052 0.07885 -3.169e-21)
(0.8173 -0.3395 0)
(0.4207 -0.133 0)
(0.8117 -0.3406 7.714e-22)
(0.9313 -0.05106 0)
(0.4095 0.051 0)
(0.4446 0.02222 4.666e-23)
(0.6956 -0.119 2.97e-22)
(0.9501 -0.04274 -8.845e-22)
(0.8582 0.09825 6.163e-22)
(0.9291 -0.02982 7.917e-22)
(0.872 -0.05421 1.144e-22)
(0.9407 0.0556 -7.461e-22)
(1.033 0.3315 1.295e-22)
(0.9705 -0.02432 2.423e-21)
(0.7914 -0.09724 2.103e-21)
(0.7886 -0.1066 0)
(0.9662 0.01213 0)
(1.078 0.1783 0)
(1.001 0.01351 -1.171e-23)
(0.691 -0.03913 0)
(1.001 0.04494 0)
(0.8318 -0.1192 2.158e-22)
(0.9246 -0.02367 -6.705e-22)
(1.007 0.01878 4.159e-21)
(0.6436 -0.278 -4.86e-22)
(0.6557 -0.01746 -2.392e-23)
(0.9768 -0.01935 0)
(0.4497 -0.1149 0)
(0.6765 0.002647 2.662e-21)
(0.83 -0.1178 -1.244e-22)
(1.024 0.4687 0)
(0.8977 -0.143 0)
(1.058 0.08131 0)
(0.6959 -0.1182 -9.46e-22)
(0.9551 0.1212 -1.025e-22)
(0.9562 0.01639 -3.524e-22)
(0.8724 -0.05576 -4.011e-22)
(1.022 0.03427 4.9e-22)
(0.7445 -0.06066 -4.585e-23)
(0.6572 -0.01741 0)
(0.4595 -0.11 -1.925e-22)
(1.097 0.2945 0)
(0.8586 -0.08264 0)
(0.5319 0.00139 0)
(0.6457 -0.04359 0)
(1.011 0.001268 -1.25e-20)
(1.007 0.02174 1.211e-21)
(1.014 0.3899 0)
(0.938 0.1803 1.249e-22)
(0.6559 -0.02425 3.459e-23)
(0.8983 -0.07448 6.404e-22)
(0.6506 0.002068 -1.233e-21)
(1.001 -0.02099 -2.509e-21)
(1.001 -0.00045 -1.035e-21)
(1.004 0.0007097 0)
(0.8308 -0.1181 -7.465e-22)
(1.001 0.01353 0)
(1.001 -0.0006504 2.624e-21)
(0.6044 -0.1212 -2.672e-22)
(0.5756 -0.005142 -7.419e-23)
(1.001 -0.0004349 0)
(1.004 0.0007007 1.613e-22)
(1.019 0.1483 0)
(0.8997 -0.06814 6.141e-22)
(0.9169 -0.06566 0)
(1.012 0.001159 0)
(0.7522 -0.06436 0)
(1.008 -0.01028 -1.051e-20)
(0.6571 -0.02457 0)
(0.9648 -0.02404 2.188e-21)
(0.7614 -0.01164 -1.371e-20)
(0.2804 -0.3459 -3.717e-22)
(0.6892 -0.1191 7.157e-22)
(0.9398 0.2982 0)
(0.7908 -0.106 -2.588e-22)
(1.015 0.0005936 2.139e-20)
(0.8132 -0.07307 2.089e-22)
(0.5782 0.218 2.966e-22)
(0.1916 0.5752 -7.927e-22)
(0.4456 0.02189 -1.064e-23)
(0.7397 -0.1143 2.432e-22)
(0.8157 0.3954 2.908e-22)
(0.4869 -0.1097 1.462e-21)
(0.5581 -0.003021 1.16e-22)
(1.007 0.00011 1.238e-20)
(0.5686 -0.1158 0)
(0.8739 -0.192 -7.17e-22)
(0.002837 0.06696 -2.319e-22)
(0.6458 -0.02046 -6.547e-23)
(0.7714 -0.07566 7.645e-23)
(0.9495 -0.09522 -1.69e-21)
(0.8968 -0.00277 -9.886e-22)
(0.5133 0.01061 1.099e-22)
(1.086 0.1416 2.587e-22)
(0.8743 -0.1776 -1.775e-23)
(0.6113 -0.1215 -6.393e-23)
(0.6407 -0.2703 0)
(0.7149 -0.1166 0)
(0.8801 -0.2801 -2.616e-22)
(0.7023 -0.1178 0)
(1 0.0423 -3.538e-22)
(1.003 0.002395 -1.411e-20)
(0.7637 0.01113 1.841e-21)
(0.7733 -0.1081 0)
(0.604 -0.121 -8.227e-25)
(0.8113 -0.1015 -2.9e-22)
(0.8383 0.6285 0)
(0.7216 -0.1144 7.85e-22)
(0.7355 -0.02738 0)
(0.7341 -0.4218 3.774e-22)
(0.9921 -0.001713 0)
(0.6371 0.01413 -2.161e-22)
(1.07 0.4197 0)
(1.008 0.0107 0)
(0.5117 -0.1164 -2.814e-22)
(0.9478 -0.01097 -3.531e-21)
(0.8739 -0.1909 0)
(1.007 0.01851 -2.057e-21)
(0.8304 -0.09652 -8.795e-22)
(0.9663 -0.02286 -1.342e-21)
(0.7455 -0.06108 9.727e-23)
(-0.001976 -0.02164 0)
(0.5819 -0.1202 0)
(1.008 -0.01706 1.185e-20)
(0.8319 -0.1195 -2.18e-22)
(0.1335 0.454 0)
(0.6395 0.01404 3.633e-22)
(0.6057 -0.01441 1.328e-22)
(0.9732 -0.02143 -6.178e-22)
(0.4828 -0.1141 0)
(0.7461 -0.05965 8.867e-23)
(0.6872 0.007849 2.239e-22)
(0.482 -0.1139 -7.776e-22)
(1.007 0.02162 -2.297e-21)
(0.4288 0.01282 -7.681e-23)
(0.7793 -0.108 -2.613e-22)
(0.4614 0.01228 1.548e-22)
(0.8761 -0.1783 9.989e-23)
(0.9847 -0.04252 0)
(0.7361 -0.0809 0)
(0.5837 -0.009789 3.698e-23)
(0.08202 0.3275 1.91e-21)
(1.022 0.007129 0)
(0.831 -0.09805 0)
(0.7545 0.009489 -3.488e-22)
(0.4824 0.3664 1.723e-21)
(0.7318 -0.4235 -6.046e-23)
(0.5633 0.007421 1.246e-23)
(0.9964 -0.005152 -2.085e-21)
(0.6045 -0.1211 7.323e-22)
(0.9712 -0.02686 -3.608e-23)
(0.8308 -0.3321 0)
(1.008 0.01118 -3.153e-22)
(0.5937 -0.1203 -4.145e-22)
(1 -0.005134 -2.098e-22)
(0.8564 -0.297 -1.794e-22)
(0.8161 -0.103 0)
(1.002 -0.02005 2.025e-21)
(0.7233 -0.116 2.855e-22)
(0.6468 -0.02318 0)
(0.8028 -0.08307 3.331e-22)
(0.8753 -0.2883 1.701e-22)
(0.803 -0.05395 -1.752e-24)
(0.7221 -0.1145 -1.52e-21)
(0.5123 0.006281 0)
(0.4652 0.01211 -8.71e-23)
(0.8804 -0.2491 -3.098e-22)
(0.8655 -0.2881 4.629e-22)
(0.8809 -0.2057 -3.76e-22)
(0.7375 -0.058 -5.71e-23)
(0.5244 0.005253 0)
(0.752 -0.01698 -7.172e-22)
(0.9442 0.056 4.587e-22)
(0.7479 -0.01979 0)
(0.5613 0.00753 -8.795e-23)
(1.001 0.001813 2.611e-20)
(0.8142 -0.1006 0)
(0.8765 -0.1731 9.089e-22)
(0.8298 -0.05861 -1.387e-23)
(0.6084 -0.121 -7.08e-23)
(0.5399 -0.1197 0)
(1.097 0.1777 4.399e-22)
(0.9961 -0.005002 0)
(1.015 0.005757 0)
(0.4053 -0.09888 0)
(1.008 -0.01714 -8.292e-21)
(0.7551 -0.06674 0)
(1.008 -0.0008846 -1.147e-20)
(0.6972 -0.119 0)
(0.5776 -0.005624 5.091e-24)
(0.6632 -0.02357 0)
(0.8852 -0.2419 1.508e-21)
(0.4963 0.01064 6.618e-23)
(0.5874 -0.01044 -4.834e-23)
(1.026 0.03265 -1.013e-21)
(0.8547 -0.08373 0)
(0.4849 0.009425 -1.069e-22)
(0.8527 0.5648 0)
(0.8994 -0.1419 -1.237e-21)
(0.7203 -0.1166 0)
(0.5219 0.002371 -3.015e-23)
(0.4827 0.01103 1.241e-22)
(0.8435 -0.1328 0)
(0.4899 0.01161 8.163e-23)
(0.6313 -0.1198 0)
(0.8792 -0.2097 -2.095e-22)
(0.7325 -0.1156 -1.072e-21)
(0.9738 0.5438 0)
(0.9811 -0.00374 1.961e-22)
(0.6059 -0.1214 3.664e-22)
(0.7064 -0.1451 1.725e-21)
(0.1226 -0.2167 -1.464e-21)
(0.4143 -0.005513 0)
(1.009 0.0007501 -1.559e-20)
(0.905 -0.06909 0)
(0.5674 0.006292 1.769e-22)
(0.9774 -0.01879 -3.045e-21)
(1.008 0.01934 2.098e-21)
(0.7319 -0.2986 7.946e-22)
(0.7091 -0.04599 1.871e-23)
(0.6435 -0.1214 7.42e-22)
(0.7477 -0.06062 -1.314e-22)
(0.6143 -0.1211 0)
(0.6042 -0.1211 -2.777e-22)
(0.6079 -0.01468 0)
(0.625 -0.01853 -4.255e-23)
(0.4802 -0.1131 -1.752e-22)
(0.5696 -0.00508 2.709e-23)
(-0.002753 -0.0268 -3.658e-22)
(0.8571 -0.2959 8.939e-23)
(0.7458 -0.1141 -4.224e-22)
(0.3477 0.01645 3.776e-24)
(1.015 0.006125 -2.246e-21)
(0.8037 -0.08503 0)
(0.6304 -0.1214 -4.859e-22)
(0.6974 0.1585 2.142e-21)
(0.5333 0.001161 0)
(0.5307 -0.1192 -2.307e-22)
(1.006 0.0002587 -1.793e-21)
(1.004 -0.0001605 2.083e-21)
(1.02 0.02109 -1.457e-22)
(1.082 0.1328 3.509e-22)
(0.8327 -0.09583 1.014e-21)
(1.006 0.0002801 1.696e-21)
(1.004 -0.0001678 -2.209e-21)
(0.817 0.5257 -2.34e-22)
(0.6351 -0.1207 -4.208e-22)
(1 0.04155 0)
(0.7747 -0.1082 0)
(1.001 -0.000585 -1.516e-21)
(0.4447 0.01251 3.812e-23)
(0.5119 0.006303 0)
(0.9695 -0.03468 0)
(0.7039 -0.1171 5.322e-22)
(0.6364 0.09285 -2.896e-21)
(0.7752 -0.07372 1.44e-24)
(1.009 0.0008053 1.456e-20)
(0.8045 -0.09559 0)
(0.9491 -0.09439 1.763e-21)
(0.5625 0.01417 -6.18e-23)
(0.9853 -0.03795 0)
(0.8339 -0.099 2.721e-22)
(0.7936 0.6885 0)
(0.9892 -0.01102 -5.387e-22)
(0.6615 -0.1206 3.445e-22)
(0.8758 -0.1795 -8.984e-23)
(0.7222 -0.05197 -9.65e-23)
(0.7292 -0.1159 1.327e-22)
(0.6297 -0.1194 -4.293e-22)
(1.04 0.3904 0)
(0.691 -0.03909 -4.087e-23)
(1.027 0.331 -4.588e-23)
(0.9559 0.119 -1.873e-22)
(1.002 -0.0006419 -4.399e-21)
(1.008 -0.0008376 1.149e-20)
(0.4582 0.01212 1.973e-22)
(0.811 -0.1099 -4.178e-22)
(0.4641 0.01153 1.014e-22)
(0.8513 -0.1309 -3.936e-22)
(0.5785 -0.00592 -6.819e-23)
(0.6931 -0.03948 -3.801e-23)
(1.039 0.06266 0)
(0.8283 -0.05762 1.239e-22)
(0.9238 -0.05886 -5.196e-26)
(0.876 -0.1585 6.179e-22)
(1.001 0.04512 0)
(0.9096 -0.05501 1.004e-20)
(0.926 -0.001231 1.176e-21)
(0.8697 -0.03011 1.621e-21)
(0.5801 -0.007869 0)
(0.8294 -0.3319 5.628e-22)
(0.75 -0.06402 0)
(0.7916 -0.106 3.358e-22)
(0.5219 0.002485 2.981e-23)
(0.4986 0.01073 7.236e-23)
(1 0.001566 1.719e-20)
(0.7403 -0.0285 0)
(0.6426 -0.1206 -3.495e-23)
(0.9426 0.1766 -3.306e-23)
(0.6003 -0.1217 0)
(0.6448 -0.1212 0)
(0.9829 -0.02315 -6.733e-21)
(0.7702 -0.07486 0)
(1.001 0.00159 -3.631e-20)
(0.9251 -0.0584 7.411e-22)
(0.8754 -0.2258 1.148e-22)
(0.4582 -0.1107 1.456e-22)
(0.8122 -0.1022 0)
(0.5962 0.007325 0)
(0.8161 -0.3182 0)
(0.4821 0.01104 -1.712e-22)
(0.8551 -0.08365 9.218e-22)
(0.5835 -0.009269 2.882e-23)
(0.5568 -0.1201 8.682e-22)
(1.011 0.05925 -5.945e-22)
(0.6135 -0.01609 1.856e-23)
(0.7651 -0.01126 -4.608e-21)
(1.024 0.0343 0)
(0.6359 -0.003831 1.672e-22)
(0.9213 0.05091 -6.831e-22)
(0.8747 -0.2886 2.378e-22)
(0.5914 -0.1215 -7.094e-22)
(1.097 0.1761 3.691e-24)
(0.6958 0.2327 0)
(0.6211 -0.01465 2.969e-23)
(1.009 0.01377 -3.99e-21)
(0.7084 -0.04935 0)
(1.007 0.00448 0)
(0.6251 -0.01851 3.539e-23)
(0.7277 -0.06073 1.571e-21)
(1.018 0.0007722 1.684e-22)
(1.059 0.0913 -6.476e-23)
(0.53 -0.1188 -4.977e-22)
(0.5108 0.006295 -8.772e-23)
(0.4646 0.01235 0)
(0.7913 -0.08777 6.089e-23)
(0.99 -0.01245 -4.002e-22)
(1.002 -0.0006501 4.348e-21)
(0.9989 0.0008465 -1.107e-19)
(0.5302 0.01086 -6.461e-23)
(1.025 0.0758 1.074e-21)
(0.5304 -0.119 4.854e-25)
(0.9821 0.244 0)
(0.4382 0.01548 5.048e-23)
(0.7907 -0.08727 1.136e-22)
(0.9951 0.0006878 -3.061e-21)
(0.6016 -0.01361 -6.772e-23)
(1.008 0.01054 -3.379e-21)
(0.5397 0.00333 1.111e-24)
(0.4482 -0.1172 -4.999e-23)
(0.006955 0.01133 0)
(1.001 -0.001511 5.278e-20)
(0.2382 -0.1323 9.744e-22)
(0.9066 -0.06836 0)
(0.5358 0.0009892 0)
(1.007 0.004374 -5.861e-21)
(0.5716 -0.005531 0)
(0.9418 -0.07346 1.311e-21)
(0.7494 -0.0637 0)
(0.8153 -0.1003 -9.683e-22)
(0.5411 -0.1197 1.431e-22)
(0.9962 0.005567 1.523e-20)
(0.6129 -0.1215 0)
(0.6488 -0.02072 0)
(1.022 0.009989 -1.221e-21)
(0.876 -0.1836 1.102e-22)
(0.8074 -0.09774 0)
(0.996 0.005398 1.599e-20)
(0.7358 -0.04585 5.9e-24)
(1.079 0.2791 -4.911e-22)
(1.016 0.0002967 2.555e-20)
(0.6012 -0.0124 4.205e-23)
(1.077 0.1794 4.155e-24)
(0.5981 -0.2044 1.577e-21)
(0.4852 0.009103 -1.051e-22)
(0.8758 -0.1832 -3.514e-22)
(1.044 0.3449 0)
(0.5682 -0.1194 9.662e-22)
(1 0.001607 -6.896e-21)
(0.8983 -0.07173 1.167e-21)
(1.015 0.0005855 -1.985e-20)
(0.6117 0.01049 2.385e-22)
(0.5492 -0.1133 0)
(0.608 -0.0149 2.852e-23)
(1.006 0.01886 -6.867e-22)
(0.5112 0.006284 0)
(0.5741 -0.1167 -2.744e-22)
(0.539 0.376 0)
(0.6269 -0.122 -9.7e-22)
(0.4687 -0.1121 -2.044e-22)
(0.7951 -0.09043 -6.626e-23)
(0.9993 0.2151 1.413e-24)
(0.5119 0.00685 -6.379e-23)
(0.9774 -0.04675 8.66e-22)
(0.9559 0.01519 2.996e-21)
(1.007 -0.0005117 1.792e-20)
(0.879 -0.2086 -3.879e-22)
(0.6234 -0.01483 0)
(0.6841 0.01167 -3.99e-21)
(0.9716 -0.02654 2.038e-22)
(1 0.009199 1.206e-20)
(1.07 0.1094 6.41e-22)
(0.712 -0.04737 5.371e-23)
(0.9973 -0.003759 1.783e-20)
(0.5736 -0.01065 -1.029e-22)
(0.6488 -0.02325 2.2e-23)
(0.9245 -0.05407 -4.001e-22)
(0.7281 -0.05483 0)
(0.4346 -0.1221 2.983e-22)
(0.5082 -0.1173 0)
(0.6138 -0.01624 0)
(0.9843 -0.04206 0)
(0.8061 -0.09661 0)
(0.9627 -0.07177 0)
(1.084 0.1377 1.162e-22)
(0.7669 -0.07289 6.355e-23)
(0.4404 0.01394 3.318e-23)
(0.9945 0.0007124 0)
(0.5224 -0.1184 -3.384e-22)
(0.7406 -0.0784 0)
(0.9973 0.000943 3.559e-20)
(0.8141 -0.1003 4.356e-22)
(0.9915 -0.03476 -2.395e-21)
(0.7571 -0.06765 -1.569e-22)
(0.9529 0.4849 -2.823e-22)
(0.5921 -0.01121 -1.08e-23)
(0.6948 -0.04095 -5.359e-23)
(0.6112 -0.1217 -1.404e-22)
(0.7726 -0.1084 1.308e-21)
(0.8039 -0.1034 -2.212e-25)
(0.8839 -0.2316 -2.374e-22)
(0.607 -0.01473 -9.955e-23)
(0.9488 -0.0119 0)
(0.7769 -0.07472 8.791e-23)
(0.7335 -0.1155 1.229e-21)
(0.446 0.01276 -5.954e-23)
(0.4322 0.03106 -3.733e-23)
(0.6683 -0.1198 -1.047e-21)
(0.4465 0.0133 0)
(0.8064 -0.09833 -7.049e-23)
(0.7921 -0.1033 1.939e-21)
(1.01 0.01237 1.155e-20)
(1.001 0.0009214 2.625e-21)
(0.9919 0.0006207 -5.962e-22)
(0.9729 -0.02556 1.234e-21)
(0.6118 -0.1202 1.034e-21)
(0.8539 -0.3149 -1.366e-21)
(0.9924 0.0007337 2.052e-21)
(1.003 0.002209 0)
(1.04 0.04905 3.916e-22)
(0.6518 -0.02626 1.532e-24)
(0.7574 -0.112 -2.119e-22)
(0.5551 -0.00177 0)
(0.5188 0.01019 0)
(0.993 -0.009465 -4.219e-22)
(1.066 0.09781 0)
(1.026 0.0342 0)
(1.013 0.002968 0)
(0.807 -0.1097 -2.16e-24)
(0.599 0.007769 0)
(0.5407 -0.1185 4.442e-22)
(0.9244 0.1499 0)
(0.66 -0.1209 -2.485e-22)
(0.7007 -0.1179 0)
(0.9976 -0.000863 -6.798e-21)
(0.8391 -0.08159 1.206e-22)
(0.9974 -0.0008347 0)
(0.8154 -0.1006 -3.632e-22)
(0.1771 -0.08805 1.44e-21)
(0.165 0.1239 6.015e-25)
(0.6128 -0.1212 2.366e-22)
(1.007 0.5248 0)
(0.8839 -0.162 -7.456e-22)
(0.781 -0.1076 3.256e-23)
(0.7178 -0.05012 0)
(0.6599 -0.1935 -1.879e-21)
(0.6396 -0.1204 1.036e-21)
(1.007 -0.0004909 -1.694e-20)
(0.9208 0.02873 -2.565e-21)
(0.7311 -0.0536 3.097e-23)
(1.007 0.0005035 -2.976e-21)
(0.6668 -0.03084 0)
(1.059 0.08102 0)
(0.4901 -0.1131 4.397e-25)
(0.5947 -0.006992 5.78e-23)
(0.595 -0.1205 7.016e-22)
(1.072 0.4208 3.527e-23)
(0.487 0.008911 -7.044e-22)
(1.014 0.000655 9.249e-21)
(1.01 -0.008522 -3.4e-20)
(0.8588 -0.1522 -1.418e-22)
(1.002 0.0009814 0)
(0.5798 -0.3238 -1.453e-22)
(1.016 0.1474 3.169e-22)
(0.6084 -0.01488 0)
(0.7658 0.7004 0)
(0.5066 0.006443 1.925e-22)
(0.9522 0.5509 -3.527e-22)
(0.758 -0.06591 0)
(0.7457 0.2538 0)
(0.9411 -0.03176 -1.052e-21)
(0.551 -0.00155 7.231e-23)
(1.004 -0.004278 3.253e-20)
(0.6543 -0.0267 3.33e-24)
(1.009 -0.001391 -1.489e-20)
(0.8561 -0.08836 3.692e-22)
(1.004 0.04703 0)
(0.9987 0.001294 4.335e-22)
(0.5124 0.006779 -1.656e-23)
(0.7164 -0.1166 0)
(0.9447 -0.04578 -6.253e-22)
(0.7061 -0.0323 0)
(0.8164 -0.1033 0)
(0.6944 -0.03984 4.099e-23)
(0.4924 0.00393 -1.217e-22)
(1.023 0.01114 0)
(0.6483 -0.1212 1.082e-23)
(0.569 -0.1197 -8.299e-22)
(0.6493 -0.1206 0)
(1.028 0.0313 0)
(1.002 0.02421 1.841e-21)
(0.02585 0.0822 1.712e-21)
(0.4928 0.008771 -2.704e-23)
(0.5573 -0.004833 0)
(0.5353 0.01081 0)
(0.5787 -0.1216 -5.349e-22)
(0.5422 -0.1186 -1.08e-21)
(0.8797 -0.249 3.13e-22)
(0.6012 -0.01267 0)
(0.5152 0.01079 -8.984e-23)
(0.3828 -0.4202 3.97e-22)
(0.8003 -0.05795 0)
(0.5306 -0.1185 -2.038e-24)
(1.088 0.1514 0)
(0.8559 -0.3159 -5.724e-22)
(0.984 -0.0004213 -1.337e-20)
(0.8196 -0.1089 -2.01e-22)
(0.5413 -0.1196 -6.047e-23)
(0.8513 -0.1409 -7.455e-22)
(0.9206 -0.06759 4.545e-23)
(0.6646 -0.03483 1.246e-22)
(0.764 -0.03617 4.305e-23)
(0.5868 0.005105 0)
(0.7479 -0.05844 2.405e-23)
(0.7721 -0.1324 1.751e-21)
(0.6522 -0.04705 0)
(1.021 0.006097 5.06e-22)
(0.8518 -0.08723 -2.839e-22)
(0.5321 0.008006 -7.224e-23)
(0.9083 -0.06486 -2.189e-22)
(0.7057 -0.1176 1.948e-22)
(0.8703 -0.1731 -4.652e-22)
(1 -0.001074 -1.982e-20)
(1.011 -0.008653 3.855e-20)
(0.9998 -0.00115 2.226e-20)
(0.9441 -0.08953 4.75e-23)
(0.8178 -0.08361 5.101e-22)
(0.6049 -0.1222 4.068e-22)
(1.084 0.1366 -2.535e-22)
(0.4311 0.01275 -1.514e-25)
(1.018 0.03738 -1.738e-21)
(0.4812 -0.1134 4.818e-22)
(0.5848 -0.1197 -7.441e-22)
(0.6809 -0.03297 5.488e-25)
(1.003 0.004573 0)
(0.7511 -0.1174 0)
(0.5444 0.002785 0)
(0.6961 -0.0412 -2.635e-23)
(1.001 -0.001469 0)
(0.8754 -0.2253 0)
(0.9845 -0.0005001 1.354e-21)
(0.8649 -0.133 0)
(0.8843 -0.161 0)
(0.2878 -0.09796 1.453e-22)
(0.4466 0.01269 7.783e-23)
(0.63 -0.002599 0)
(1.011 0.0419 -2.243e-22)
(0.6049 -0.006812 4.46e-23)
(0.2403 -0.3664 7.307e-22)
(0.8037 -0.09583 1.191e-22)
(0.8811 -0.207 -5.778e-22)
(0.9926 0.0003902 0)
(0.5757 -0.005892 -8.279e-23)
(1.007 0.00046 7.606e-23)
(0.854 -0.235 -7.469e-22)
(0.4651 0.0115 8.442e-23)
(0.9919 -0.01315 0)
(0.9094 -0.05646 0)
(0.7377 -0.05764 1.196e-22)
(1.046 0.4558 -8.551e-23)
(0.8573 -0.1237 -2.048e-22)
(0.8595 -0.08228 -4.332e-22)
(0.4767 0.01146 0)
(0.7282 -0.116 -8.29e-22)
(1.012 0.04102 -3.443e-22)
(0.8138 -0.09704 -1.756e-21)
(0.8808 -0.206 3.222e-22)
(0.7727 -0.07626 -6.724e-23)
(0.7521 -0.06452 0)
(0.5415 0.003048 7.262e-23)
(0.5398 0.01247 1.571e-22)
(0.9428 -0.04803 -2.514e-21)
(0.7839 -0.1059 0)
(0.8953 -0.1002 1.244e-23)
(0.8249 0.3915 0)
(0.446 0.01256 6.598e-23)
(0.7315 -0.1154 1.616e-23)
(0.4553 0.01189 -1.795e-23)
(0.6119 0.00928 -2.775e-22)
(0.5392 0.002922 0)
(0.6669 -0.03877 4.937e-22)
(0.5842 0.01466 0)
(0.5948 -0.009436 0)
(0.7368 -0.049 -4.273e-23)
(0.7691 -0.1288 -1.787e-21)
(0.8787 -0.1902 -2.664e-23)
(0.8989 -0.001759 -7.212e-22)
(0.988 -0.01219 0)
(0.8435 -0.1332 -1.791e-22)
(0.5584 -0.00485 -6.441e-23)
(0.72 0.2303 0)
(0.9926 0.0003657 0)
(0.5305 0.003557 1.117e-22)
(0.8454 -0.1104 -2.739e-24)
(1.013 -0.000384 -1.677e-20)
(0.7276 -0.116 9.683e-22)
(0.5869 -0.1209 -9.915e-27)
(0.631 -0.1212 8.828e-22)
(0.7184 -0.04302 -4.695e-24)
(0.5221 0.004834 6.38e-23)
(0.3442 -0.302 -8.176e-22)
(0.8778 -0.2867 -7.969e-22)
(0.5611 -0.1199 -2.851e-22)
(1.081 0.1322 -2.726e-22)
(0.5981 -0.009211 1.358e-23)
(0.5334 0.002373 1.36e-23)
(0.7951 -0.1713 -1.63e-21)
(0.9907 0.0002922 -8.211e-21)
(0.9755 -0.05492 1.003e-21)
(0.9936 -0.001256 -5.893e-22)
(0.6168 -0.121 2.563e-22)
(0.8874 -0.06061 -4.9e-21)
(0.9544 -0.06256 -8.323e-23)
(0.5968 -0.01187 0)
(0.8838 -0.2324 4.363e-23)
(1.001 0.00886 0)
(0.8042 -0.1037 -9.109e-22)
(0.8508 -0.1383 0)
(0.7659 -0.07237 0)
(0.999 0.0009286 1.098e-19)
(0.656 -0.1208 -3.973e-22)
(0.8958 -0.1012 3.849e-23)
(0.7278 -0.05377 -1.939e-22)
(1.003 0.002574 -1.431e-20)
(0.8812 -0.2074 1.792e-22)
(0.5891 0.3891 4.61e-22)
(0.3701 -0.09146 -1.898e-22)
(0.8351 -0.09338 7.897e-22)
(1.014 0.0006508 -9.427e-21)
(0.7359 -0.1147 -9.801e-22)
(0.8529 -0.1318 2.07e-22)
(0.712 -0.04852 0)
(0.9955 0.001124 1.512e-21)
(0.9978 -0.000381 -1.897e-22)
(0.9999 0.0006978 -1.588e-22)
(0.6024 -0.01387 8.203e-23)
(0.4979 0.008249 0)
(0.8075 -0.05529 0)
(0.7713 -0.07562 -1.242e-23)
(0.4467 0.01337 0)
(0.9885 -0.01521 -8.348e-22)
(0.5599 -0.004238 -9.084e-23)
(0.9476 0.4895 4.5e-22)
(0.3811 0.6336 3.182e-22)
(0.9466 -0.04436 6.716e-22)
(0.9853 -0.03628 5.436e-22)
(0.5542 -0.1205 -3.008e-22)
(1.086 0.1425 -2.055e-24)
(1.006 0.0185 7.099e-22)
(0.7464 -0.3692 3.371e-22)
(0.8794 -0.2797 2.467e-22)
(0.8058 -0.1126 1.92e-22)
(0.7053 -0.04434 -1.854e-22)
(0.8832 -0.1274 -3.671e-24)
(1.05 0.06776 -2.516e-22)
(0.5849 -0.00854 -4.024e-23)
(0.7596 -0.1113 -1.032e-22)
(0.9995 0.04054 0)
(0.5262 0.004993 4.213e-23)
(0.9924 4.217e-05 -7.526e-23)
(1.002 -0.002958 0)
(0.8617 -0.3067 -3.853e-22)
(0.6487 -0.1215 3.619e-22)
(1.011 0.006899 0)
(0.9653 -0.06806 2.753e-22)
(0.8852 -0.2418 -1.065e-21)
(0.8362 -0.3269 0)
(0.4839 -0.1142 4.616e-22)
(0.5417 -0.1196 -5.364e-22)
(0.4337 0.0275 -1.145e-23)
(0.7614 -0.01215 0)
(0.9923 -0.007493 6.251e-22)
(0.6811 -0.03725 1.185e-22)
(1.013 -0.0004556 5.41e-21)
(0.7827 -0.0285 -1.833e-22)
(0.6452 -0.1211 -1.153e-21)
(0.7044 -0.1176 7.194e-22)
(0.5094 0.006139 -1.035e-22)
(0.7395 -0.05856 -1.132e-22)
(0.4195 -0.103 -1.781e-22)
(0.5368 0.0009523 -9.894e-24)
(0.8368 -0.02908 0)
(0.6473 -0.1211 -2.12e-22)
(1.064 0.3886 0)
(0.8769 -0.1724 -2.286e-22)
(0.7881 -0.3382 0)
(1.018 0.2424 3.765e-24)
(0.5639 -0.002484 -1.463e-22)
(0.6028 -0.1217 3.731e-22)
(0.9789 -0.0459 -3.475e-22)
(1.067 0.09844 8.781e-23)
(1.009 -0.001327 0)
(0.8422 -0.09239 0)
(0.9951 0.001106 0)
(0.1955 0.5662 -3.268e-22)
(0.844 -0.1335 -2.899e-22)
(0.9229 -0.05658 -1.186e-22)
(0.4754 0.009874 0)
(0.3778 0.6304 -1.063e-21)
(1.002 0.01014 -1.372e-20)
(0.7589 -0.06856 1.82e-22)
(0.492 0.01151 -7.96e-23)
(0.9835 -0.01612 0)
(0.463 -0.1108 -1.644e-22)
(0.4306 0.03228 4.601e-23)
(0.7396 -0.05865 -1.083e-22)
(0.72 -0.05087 0)
(0.9821 0.5499 5.786e-22)
(0.814 -0.3187 -3.131e-22)
(0.6504 -0.1217 -5.386e-23)
(0.6904 0.2244 0)
(0.5896 -0.1209 -6.403e-22)
(0.5818 -0.008069 0)
(1.013 -0.007002 1.079e-20)
(0.622 -0.1212 1.85e-21)
(0.508 -0.117 0)
(0.5224 -0.1132 0)
(0.5658 -0.1018 0)
(0.5554 -0.12 3.67e-23)
(0.7136 -0.01708 1.564e-22)
(0.7409 -0.1141 0)
(0.3737 0.01243 6.253e-23)
(0.9936 0.0002639 -2.629e-21)
(0.07784 0.0553 0)
(0.8242 -0.3373 1.113e-24)
(1.02 0.01021 2.688e-22)
(0.4788 0.01113 5.467e-23)
(0.8617 -0.245 0)
(0.5348 0.005788 3.332e-23)
(0.5429 -0.07129 -4.168e-21)
(0.3519 0.003678 0)
(0.6787 -0.03501 1.794e-23)
(0.3091 -0.1567 -1.231e-22)
(0.7554 -0.06721 1.024e-22)
(0.6787 -0.03526 1.235e-23)
(0.4641 0.0115 -1.55e-23)
(0.632 -0.02079 1.295e-23)
(0.7799 -0.3703 -9.38e-22)
(0.453 -0.1094 5.258e-23)
(0.9646 0.004818 5.039e-21)
(0.7768 -0.07804 -9.222e-23)
(0.5489 0.006437 0)
(0.6881 -0.1184 -1.378e-21)
(0.8634 -0.2003 4.707e-22)
(0.6926 -0.1192 0)
(0.7997 -0.08122 0)
(0.8371 -0.03723 3.348e-22)
(1.01 0.0004216 -2.151e-20)
(0.516 -0.1177 0)
(0.5985 -0.01245 0)
(0.9889 -0.03893 -2.203e-21)
(0.9835 -0.007456 -4.782e-22)
(1.003 0.002543 -2.161e-20)
(0.5357 0.003773 -1.936e-22)
(0.4641 0.0118 1.561e-23)
(1.02 0.0175 3.119e-23)
(0.5764 -0.007901 -1.123e-22)
(0.7959 0.3023 0)
(0.9863 -0.01664 0)
(0.9961 0.003262 -9.566e-23)
(0.4208 -0.1031 3.494e-22)
(0.866 -0.3103 2.521e-24)
(1.006 0.0002848 0)
(1.003 -0.0001829 6.45e-21)
(0.5965 -0.1216 -5.57e-22)
(1.071 0.103 -4.202e-22)
(0.4554 0.01243 1.592e-22)
(0.7299 -0.06082 4.06e-22)
(0.5226 -0.4563 -1.321e-21)
(0.8977 -0.05203 1.762e-22)
(0.8384 -0.127 5.453e-22)
(0.5166 -0.3872 -8.423e-22)
(0.6072 -0.121 0)
(0.3533 0.006895 0)
(0.6076 -0.001539 -6.074e-24)
(0.885 -0.2092 -1.201e-22)
(0.4872 0.009559 -2.169e-22)
(0.7484 -0.1126 1.711e-21)
(0.6924 -0.1187 0)
(0.5876 -0.1202 -3.164e-22)
(1.008 0.01877 3.481e-21)
(0.9863 0.0007287 0)
(0.9972 -0.0003335 0)
(0.9992 0.000664 3.385e-22)
(0.8497 -0.3264 4.533e-22)
(0.4361 0.01062 3.502e-22)
(0.7805 -0.04176 1.943e-20)
(0.6111 -0.01504 4.32e-23)
(0.9252 -0.04576 -2.199e-24)
(0.6405 -0.0228 -1.028e-23)
(0.6119 -0.1215 0)
(0.8674 0.03904 -1.038e-21)
(0.9954 0.004946 -2.544e-20)
(0.8578 -0.1509 4.116e-22)
(0.9555 -0.03358 -7.509e-22)
(0.5372 -0.04753 0)
(0.5515 -0.002317 0)
(0.7651 -0.07486 5.399e-22)
(0.871 -0.08269 -8.211e-22)
(0.5079 0.008209 9.555e-23)
(0.5783 -0.1202 0)
(0.9157 -0.05478 -7.124e-22)
(0.9934 0.003419 -1.079e-23)
(0.9405 -0.04107 1.006e-21)
(0.6092 -0.01505 5.489e-23)
(0.5592 0.001319 1.064e-22)
(0.713 -0.04164 4.492e-24)
(1.022 0.01679 1.545e-21)
(0.4348 0.02638 2.955e-24)
(0.797 -0.09149 2.942e-22)
(0.8207 -0.1098 -2.508e-22)
(0.9722 -0.01659 0)
(0.5669 -0.003886 0)
(0.9925 3.252e-05 0)
(0.5552 -0.002768 5.161e-23)
(0.423 0.01329 -6.261e-23)
(0.8955 -0.02626 3.387e-23)
(0.8161 -0.1058 0)
(0.5887 -0.121 0)
(0.3402 0.01241 1.528e-21)
(0.735 -0.1141 -1.888e-21)
(0.8478 -0.138 0)
(0.9731 0.07504 -6.249e-24)
(1.004 -0.004384 -6.28e-21)
(0.5481 -0.1205 -8.81e-22)
(0.666 -0.02381 0)
(0.4978 -0.1138 -4.979e-24)
(0.9779 -0.02152 9.59e-22)
(0.9644 -0.02971 0)
(0.8568 -0.1469 0)
(0.4621 0.01269 -4.088e-23)
(0.9132 -0.06492 0)
(1.085 0.2439 -1.714e-22)
(0.8646 -0.1479 2.164e-22)
(1.011 -0.0002718 0)
(0.9643 -0.02512 4.319e-21)
(0.6186 -0.1211 3.332e-22)
(0.7193 -0.1162 -8.426e-22)
(0.6601 -0.1208 -4.914e-22)
(0.8188 -0.1082 1.821e-22)
(0.3704 0.0005342 1.005e-22)
(0.7465 -0.0682 0)
(0.6839 -0.1201 0)
(0.7458 -0.0681 0)
(0.884 -0.213 0)
(0.3669 0.001535 0)
(0.6653 -0.1205 0)
(0.7051 -0.1184 -4.448e-22)
(0.4853 -0.1117 0)
(0.3013 0.01202 -7.223e-22)
(0.9288 -0.0006409 -8.361e-22)
(1.014 0.0151 6.406e-22)
(0.4008 -0.1006 -9.058e-23)
(0.7013 -0.1183 -1.546e-21)
(0.5842 -0.009118 0)
(0.7159 -0.04334 0)
(1.009 0.0003653 1.395e-20)
(0.7019 -0.1185 -1.739e-21)
(0.8044 -0.1029 6.257e-22)
(0.8818 -0.2672 0)
(0.9406 -0.05895 -3.517e-21)
(1.005 -0.0002546 7.862e-22)
(0.4821 0.01019 0)
(0.4644 0.01254 1.731e-22)
(0.4983 -0.114 7.993e-22)
(0.4729 0.01142 0)
(0.6625 0.004292 -3.11e-21)
(0.9983 0.02879 -5.272e-24)
(0.993 0.002585 1.217e-21)
(0.87 -0.1711 1.242e-22)
(0.9315 -0.05374 -1.063e-22)
(0.5115 -0.1166 7.206e-22)
(0.6859 -0.1193 0)
(0.5561 -0.00295 -9.379e-23)
(0.9988 0.001197 -1.416e-20)
(0.517 -0.1178 0)
(1.003 -0.0001181 0)
(0.8831 -0.07709 8.784e-22)
(0.5534 -0.1201 0)
(0.7514 -0.0637 -2.894e-23)
(0.4533 -0.1095 4.129e-22)
(0.9851 0.1014 -2.893e-22)
(1.008 0.007775 4.325e-22)
(0.6355 -0.4202 -2.517e-22)
(0.8726 -0.1828 3.455e-22)
(0.9093 0.02947 -3.784e-22)
(0.563 -0.1181 0)
(0.6393 0.0002585 -1.18e-22)
(0.7135 -0.04696 0)
(0.7478 -0.1136 1.249e-21)
(1.003 0.0007501 5.682e-22)
(0.8342 -0.05766 0)
(0.8595 -0.3272 -2.517e-21)
(0.9708 -0.03469 4.671e-22)
(0.674 -0.1203 -7.981e-22)
(0.4612 -0.1105 -2.111e-22)
(0.9096 0.5918 9.378e-23)
(0.8634 -0.1505 1.472e-22)
(0.869 -0.2665 5.551e-22)
(1.007 0.008358 1.959e-21)
(0.9494 0.02451 -1.283e-21)
(0.6752 -0.1194 -1.581e-21)
(1.041 0.08764 -5.596e-22)
(0.66 -0.02862 -1.751e-23)
(1.01 0.06076 1.482e-22)
(0.8144 -0.1028 7.16e-23)
(0.7818 -0.08123 7.901e-23)
(1.012 0.01645 1.628e-21)
(0.6782 -0.008787 -5.739e-23)
(0.7022 -0.04259 1.831e-23)
(1.045 0.3422 0)
(0.4333 -0.2518 8.709e-22)
(0.6226 -0.08913 -1.867e-21)
(0.6428 -0.119 1.347e-21)
(0.5893 -0.1202 -1.589e-21)
(1.002 -0.004001 1.499e-21)
(0.9011 -0.03188 0)
(0.8032 -0.09941 -5.541e-22)
(0.7478 -0.1136 -1.581e-22)
(0.5748 -0.1207 -1.181e-25)
(0.9834 -0.003797 0)
(0.429 -0.004896 -1.808e-23)
(0.4046 -0.1006 3.025e-22)
(0.8355 -0.1195 -1.034e-22)
(1.002 0.008956 0)
(0.6644 -0.1208 6.563e-22)
(0.4683 -0.112 -4.301e-22)
(0.8827 0.0005758 9.062e-22)
(1.042 0.3496 -2.005e-23)
(0.8595 -0.1272 0)
(0.9996 -0.01839 -3.718e-21)
(0.8727 -0.1752 0)
(0.9235 -0.02867 0)
(0.7898 -0.08668 0)
(0.6296 -0.02022 0)
(0.9938 -0.006887 2.023e-22)
(0.4011 -0.0996 -2.275e-22)
(0.5373 0.003742 1.355e-22)
(0.7627 -0.1103 0)
(0.9964 -3.197e-05 1.894e-21)
(0.9868 -0.00353 2.45e-20)
(0.9878 0.5428 -5.212e-23)
(0.5375 -0.118 0)
(0.9778 -0.02236 3.266e-21)
(0.4189 -0.0802 -1.107e-20)
(0.4999 0.008084 6.608e-23)
(0.6732 -0.1201 7.235e-22)
(0.7751 -0.2949 -1.549e-21)
(0.9902 0.02111 -2.417e-21)
(1.006 0.0002323 7.929e-21)
(0.6704 -0.1201 3.282e-23)
(0.8713 -0.1583 3.82e-22)
(0.4084 -0.3572 0)
(0.9876 -0.008929 0)
(0.6037 -0.01817 1.443e-22)
(0.7946 -0.1053 2.008e-22)
(0.5456 -0.0003376 -7.454e-23)
(-0.003526 -0.05109 0)
(0.729 -0.05392 1.673e-22)
(0.8282 -0.09645 -7.233e-22)
(0.5471 -0.0001538 0)
(0.6264 -0.1196 -2.531e-21)
(1.02 0.02117 -1.719e-22)
(0.579 0.002214 7.536e-22)
(0.5374 -0.1158 0)
(0.9337 -0.005049 -4.394e-22)
(0.7705 -0.1083 5.001e-22)
(0.6916 -0.1188 5.84e-22)
(0.5072 0.01132 1.169e-22)
(1.064 0.1534 0)
(0.8578 -0.08769 1.666e-21)
(0.7733 -0.1082 9.907e-22)
(0.4531 -0.2559 -3.066e-21)
(0.5847 0.6557 -3.895e-22)
(0.5686 -0.003225 0)
(0.4767 -0.07646 0)
(0.447 0.0135 -1.828e-22)
(1.016 0.0002197 -1.884e-20)
(0.8012 -0.09403 -5.236e-25)
(0.5053 -0.1163 6.456e-22)
(1.059 0.07941 -4.722e-22)
(0.7563 -0.06734 -1.33e-22)
(1.049 0.09495 0)
(0.4658 -0.07723 2.377e-21)
(0.4866 -0.1137 1.171e-21)
(0.9505 0.0237 2.686e-21)
(0.5194 0.00486 0)
(0.8887 -0.251 0)
(0.8832 -0.1227 -4.805e-22)
(0.5342 0.001499 0)
(0.9937 -0.0004186 0)
(0.9646 0.007597 0)
(0.8808 -0.1664 1.125e-21)
(0.4825 0.009234 -1.829e-22)
(0.4085 0.02023 -6.254e-23)
(0.6921 -0.03934 -3.852e-23)
(0.8813 -0.2079 0)
(1.005 0.01073 9.263e-22)
(0.9825 0.002457 0)
(0.8238 -0.09892 -7.365e-23)
(1.009 0.01696 0)
(0.9221 -0.05667 3.149e-23)
(0.8091 -0.0447 2.508e-20)
(0.4451 0.01247 4.871e-23)
(0.9223 -0.06053 0)
(0.5177 -0.1165 -4.722e-22)
(0.422 -0.156 1.952e-22)
(0.9628 0.001113 7.889e-23)
(0.5357 0.0008113 -2.009e-22)
(0.9893 0.0008364 1.079e-20)
(0.5778 -0.1213 1.157e-22)
(0.4829 0.009714 1.286e-22)
(0.7085 -0.03258 -2.099e-23)
(0.8432 -0.1347 0)
(0.04825 0.05827 -8.575e-22)
(0.8084 -0.09985 -3.17e-23)
(1.011 0.01086 0)
(0.5233 -0.1185 -4.027e-22)
(0.7984 -0.0847 -2.401e-23)
(0.5874 -0.07707 0)
(0.9975 0.05296 -7.298e-22)
(1.085 0.3244 0)
(0.6111 -0.1843 -8.712e-22)
(0.9066 -0.05586 -1.05e-20)
(1.006 -0.00182 2.091e-20)
(0.5281 0.0006589 0)
(0.8664 -0.08312 2.946e-22)
(0.5266 0.001408 4.573e-23)
(0.3251 -0.07601 1.319e-21)
(0.5544 -0.1207 -5.063e-22)
(0.3032 0.0111 -8.452e-22)
(0.5246 0.01331 -1.901e-22)
(0.4881 -0.1143 0)
(0.6925 -0.1189 -2.417e-22)
(0.8563 -0.111 0)
(0.5361 0.007276 0)
(0.8497 -0.1399 0)
(0.8148 -0.07438 2.325e-23)
(0.8751 -0.287 0)
(1.085 0.1429 6.798e-22)
(0.5401 0.0003526 -5.128e-23)
(0.3456 -0.4019 -4.578e-24)
(0.4353 0.02779 2.442e-23)
(0.5619 -0.002008 -1.277e-23)
(1.02 0.03684 1.169e-21)
(0.7557 -0.06696 -1.243e-22)