/*--------------------------------*- C++ -*----------------------------------*\
  =========                 |
  \\      /  F ield         | OpenFOAM: The Open Source CFD Toolbox
   \\    /   O peration     | Website:  https://openfoam.org
    \\  /    A nd           | Version:  8
     \\/     M anipulation  |
\*---------------------------------------------------------------------------*/
FoamFile
{
    version     2.0;
    format      ascii;
    class       volScalarField;
    location    "15";
    object      epsilon;
}
// * * * * * * * * * * * * * * * * * * * * * * * * * * * * * * * * * * * * * //

dimensions      [0 2 -3 0 0 0 0];

internalField   nonuniform List<scalar> 
63579
(
311.5
209.4
317.9
346.3
318.2
398.6
13.71
0.1317
0.6747
3.333
12.73
0.06256
3.446
37.03
0.06438
35.3
0.565
1.16
0.9522
12.23
1.042
0.02158
0.005275
2.257
0.005087
0.1363
0.01309
0.8999
0.09658
0.4795
0.0008089
0.01311
0.02705
0.01719
2.213
0.1318
10.52
0.5111
0.4602
12.21
0.01588
9.705
0.08384
1.084
0.1332
0.9988
26.83
0.2353
0.5827
0.0008156
1.147
0.01752
12.84
5.38
0.02068
0.3069
0.01767
0.02705
0.01713
0.0167
1.548
0.119
10.07
3.937
0.01658
2.703
0.2888
11.29
0.1948
0.01736
3.829
46.08
0.1068
30.16
0.2458
1.102
0.1493
5.661
0.1358
3.527
43.28
0.01607
3.886
0.8292
9.954
0.02245
0.3516
0.9265
0.003699
4.071
0.6356
0.01842
0.928
0.0295
2.624
0.2139
5.175
0.6283
0.02095
11.5
0.112
0.112
0.0184
0.01692
0.02299
0.03648
0.06532
0.4605
0.0601
0.02086
0.01554
9.897
0.5239
0.06448
3.736
0.02938
1.13
3.174
0.02893
0.08771
0.01683
3.449
0.926
0.001442
2.107
0.7033
1.693
1.129
0.01645
10.39
0.6445
0.1107
0.02345
0.01737
6.949
1.13
2.486
0.003608
0.8148
0.006091
0.7788
0.002486
0.08771
0.2306
0.02255
0.02042
0.02031
0.7554
0.01874
0.2469
0.08727
0.4161
0.01441
1.421
1.299
0.3871
0.5045
0.2994
3.42
0.4531
0.01556
0.2835
0.6025
2.378
0.002565
0.01981
7.323
1.29
0.01975
0.1266
0.0219
0.7046
7.446
0.03474
4.184
0.02042
0.06242
0.1016
0.1016
0.1418
1.119
0.3489
0.5237
4.107
0.7699
1.299
1.184
0.02641
3.245
0.01074
0.04063
0.01851
0.01299
0.006196
1.834
0.02199
1.628
0.02027
0.8307
0.006498
3.59
1.139
0.4005
0.01758
0.04654
0.01287
0.426
1.752
0.6355
0.4256
0.02635
0.02282
0.03011
0.04706
0.2986
0.3021
0.1375
0.5973
1.811
1.509
0.1902
1.486
2.71
2.64
0.001485
0.1382
0.8564
0.1545
0.08358
0.05465
0.04023
0.3983
0.02114
0.01444
0.02275
1.196
0.01883
0.0185
5.866
0.01321
1.002
0.2854
0.05025
1.533
0.2791
3.757
0.00337
0.01719
0.03247
0.1175
0.05327
0.006091
6.054
13.01
5.795
2.357
1.612
0.01563
0.0173
6.338
0.4844
3.72
3.228
0.08233
3.692
0.01706
13.36
0.01714
0.07079
0.02002
1.681
0.3002
1.021
0.003357
2.96
1.143
0.01302
0.2404
0.03531
0.01234
22.61
0.04393
0.1019
1.872
14.68
0.01732
1.282
0.03629
0.3977
2.332
0.01426
1.6
0.3441
0.08465
0.06712
0.1013
4.234
0.01928
0.001686
1.088
4.112
1.636
0.4659
0.01699
0.03758
0.821
0.003967
0.2988
0.006301
1.874
0.01917
0.001634
23.07
0.006371
0.5656
0.02218
0.2961
0.01967
0.02269
0.9841
1.145
1.109
5.301
0.534
9.159
1.389
0.003993
1.924
0.02104
3.797
0.01723
0.04642
0.02037
0.1408
2.606
0.003494
0.007785
1.078
1.182
1.852
0.003492
0.248
0.01599
0.001693
10.11
0.01716
0.001042
0.02234
0.1437
0.03957
0.5928
0.204
1.679
0.02015
0.01072
0.7785
0.4335
0.5795
0.04474
0.01005
0.08241
1.402
3.751
0.2253
1.816
0.01567
0.007672
0.1365
0.5586
5.48
3.19
0.001032
0.05369
1.667
0.451
0.001491
0.3741
0.5863
27.54
4.313
1.536
0.4048
0.278
0.2382
0.4428
0.0221
0.9355
2.24
0.492
0.01482
0.0009366
1.91
0.0009827
0.001079
0.01813
9.165
0.01483
0.4958
0.3717
0.3739
0.4592
2.631
0.01875
1.427
0.02551
0.5063
0.07265
0.04009
0.2502
0.0009383
6.245
0.58
1.47
0.02827
0.01577
0.02036
0.2881
0.4278
0.01081
0.7888
0.002226
0.01288
0.04144
0.01156
9.693
0.4297
2.839
0.00434
0.4159
0.02653
1.272
0.0685
3.139
25.96
0.01548
0.2372
1.908
35.29
0.2988
0.905
7.358
0.02423
2.662
6.641
6.519
0.002217
4.291
73.79
0.01733
0.6006
0.001783
0.001738
0.01934
5.141
0.172
0.02593
8.67
1.004
0.01273
0.02499
0.5578
12.72
0.01894
1.643
0.01053
0.02612
0.01988
0.9504
1.955
0.8648
0.002207
12.06
0.002207
1.172
0.3073
0.7312
0.01701
0.02864
0.5128
1.666
7.753
7.06
7.024
0.01692
0.02428
0.01692
0.2378
0.8471
7.427
0.2947
10.98
0.01504
0.01056
0.2656
0.1799
2.068
0.1419
2.604
0.1382
0.2338
9.761
0.5541
0.6557
2.305
0.551
8.066
0.01261
13.92
0.01905
9.846
0.002476
0.1533
0.5831
2.925
0.2341
0.1923
0.0173
0.4431
0.003406
5.809
0.02968
0.002217
0.01712
0.3655
0.1378
0.01724
1.264
0.02722
6.957
0.1146
0.2479
1.66
1.054
0.3458
0.006187
0.03276
0.9519
2.009
0.8286
2.544
0.4164
0.01088
2.147
0.0007236
6.76
0.3973
1.236
0.2084
0.3945
2.596
0.003162
0.01501
0.2081
0.4515
0.03306
0.4145
0.1637
0.1056
0.01341
0.2874
0.02674
0.4189
0.02413
1.851
0.9545
0.0008085
0.5391
0.02349
2.114
1.242
0.04514
0.3269
9.725
0.4964
0.03691
2.23
0.7819
4.472
0.6615
1.014
0.756
0.09016
0.9509
0.09927
1.538
0.1056
0.02166
0.02174
0.02574
0.5506
0.6536
0.4699
0.9493
1.569
0.06596
0.6436
0.1849
1.206
0.3954
0.04509
0.02682
2.466
0.01803
1.384
7.093
0.01536
0.03824
0.01397
9.82
0.2918
0.6614
0.002845
0.04596
0.0006758
0.0006794
3.511
0.759
5.604
0.4846
1.766
0.05511
0.9705
7.229
45.13
0.1921
0.9088
28.64
0.00819
0.6825
15.31
0.06451
26.99
0.5241
1.316
0.01158
0.5627
0.01899
0.3971
20.19
0.3158
0.2186
4.071
0.101
1.037
44.19
0.02193
9.971
0.009824
0.2771
0.0117
0.002434
24.33
2.366
0.08411
0.01719
0.05474
0.01472
0.1778
0.01533
0.1332
0.1978
1.532
0.03415
0.6896
0.3327
0.8316
0.8635
0.01759
6.755
0.02491
6.875
2.343
0.9202
0.01958
0.01812
0.04655
0.4416
0.3623
1.195
0.02288
0.2621
4.63
0.08699
0.1905
0.7407
0.9301
0.01544
5.366
0.03379
0.9537
0.01436
0.5569
0.03718
1.333
7.131
18.9
0.2675
0.01022
20.4
0.01395
0.2562
0.4893
7.863
0.05117
5.194
1.062
0.001158
0.001128
0.8585
55.73
4.874
1.24
0.01309
0.0188
0.01723
0.01391
0.004438
19.74
0.02292
20.55
0.3103
2.462
0.001034
29.62
14.7
0.01274
18.98
24.69
0.05179
0.01023
0.0006133
0.1978
0.2785
0.006607
0.02967
11.92
0.004942
0.3135
0.2565
0.02074
0.09323
79.54
0.9257
0.5404
0.01739
0.2202
0.1285
0.0007493
0.7036
0.01798
2.67
0.01729
0.1056
0.8331
2.034
4.777
2.416
0.007646
1.703
6.818
1.94
0.03281
1.059
58.9
6.681
0.001065
0.01517
1.053
0.02736
0.02856
0.1295
0.008421
1.979
0.01456
0.7591
0.03857
1.937
10.03
0.3692
0.756
0.02294
11.16
2.3
1.282
18.48
2.142
0.03751
0.7963
0.2221
0.4444
0.01903
0.007338
8.069
4.904
0.2193
0.01853
5.138
0.7921
0.09737
0.8771
0.02512
0.1442
4.239
2.037
0.6848
0.7788
0.03596
0.456
0.6204
1.501
0.02065
0.4004
2.209
0.01644
0.0205
0.0008343
0.5513
0.4878
2.378
0.23
0.003006
0.003274
0.2925
0.1727
0.5198
0.0007997
0.001333
0.01767
2.238
0.02008
231.4
0.1551
0.2435
3.065
0.2162
0.01847
17.98
0.182
0.8906
0.1661
2.308
1.959
8.245
1.325
0.02224
0.6156
6.204
0.0173
13.36
0.604
0.001758
1.152
1.523
0.00329
1.619
0.8418
0.0661
0.01391
0.8923
19.23
0.4735
50.52
5.978
0.001426
19.92
1.089
0.2921
0.44
0.001409
0.8372
31.67
0.4191
0.7131
0.01778
0.02118
0.2221
0.01378
0.4269
0.4661
0.7316
0.5194
1.521
24.45
0.09615
0.6607
0.3096
0.2455
0.0008541
0.01996
0.04583
1.912
0.7056
4.057
0.01952
1.295
2.665
0.04119
0.2282
0.03504
1.628
0.8226
0.4417
1.358
0.4785
0.1984
28.03
0.01458
1.478
0.6336
0.003547
0.001015
0.1478
0.01925
0.04251
0.03346
0.2217
0.08386
0.1692
0.02387
0.0166
0.272
0.03178
2.686
0.07178
0.4496
18.23
8.33
0.01992
0.007711
0.7986
0.02609
86.54
1.735
0.007586
0.007571
0.8328
5.297
0.03658
0.2158
0.1344
1.344
1.13
0.5405
2.268
0.6955
0.116
0.2879
1.61
2.018
2.382
21.33
0.08887
0.001621
0.001606
1.062
4.451
0.003939
0.02052
1.614
0.0994
11.23
4.268
0.1414
0.9676
0.05896
16
7.086
0.001192
0.2984
0.3581
0.5423
1.811
0.2876
4.914
0.9132
41.37
3.963
1.113
0.5363
5.719
0.1898
0.016
0.09005
0.5962
6.587
0.1509
31.87
0.4603
0.003491
0.2359
0.02109
39.81
0.3039
0.1162
0.2049
6.51
0.1166
0.5044
0.04656
2.632
0.3134
0.01008
8.755
0.2974
0.01851
1.225
4.879
1.457
2.351
1.131
2.828
4.389
2.466
0.0007496
0.01938
0.0495
3.753
0.01551
1.074
1.26
8.947
0.01912
0.0008716
1.069
0.2851
10.76
0.022
0.06798
0.3726
0.01345
0.3676
8.742
1.335
5.11
5.184
0.5764
0.1432
0.4656
1.045
0.01048
0.2931
5.658
4.495
18.06
0.0127
0.9916
2.373
0.0148
0.8188
23.7
0.9699
0.615
0.1914
0.1914
0.538
0.7539
0.01977
2.151
0.01476
0.01339
132.5
2.147
0.006358
0.9456
0.1201
1.563
0.002188
0.2583
0.02066
0.01007
0.01434
0.004297
0.06164
0.5402
3.859
0.2845
0.004307
0.4008
0.8361
0.04192
0.4668
76.71
1.306
2.662
0.81
3.301
0.02058
1.364
0.213
0.03318
24.7
0.02663
0.004795
0.003924
1.343
2.169
0.01204
0.01577
0.07796
0.3035
14.8
0.8766
0.1212
0.8099
0.02092
9.394
0.01889
0.01254
0.001401
17.04
1.154
0.03322
0.07746
0.752
0.002091
0.2402
78.73
0.09195
0.001157
0.1013
0.01731
4.628
43.08
0.1809
1.16
0.02129
1.153
0.0263
1.368
51.91
12.33
0.1584
0.03166
0.01614
11.55
2.061
0.1686
0.02193
0.2161
0.02157
0.7988
3.07
9.674
0.8764
0.05167
4.895
0.02007
1.501
5.466
0.02191
103.9
0.1308
7.602
5.083
0.01586
131
0.0006608
50.51
5.206
1.579
29.57
0.1444
0.461
0.008263
0.4036
2.719
0.5942
1.056
8.334
0.01506
2.581
0.1567
0.5062
0.01767
0.4522
0.0006276
0.0156
0.2327
0.857
0.005691
0.02314
1.933
0.005704
1.633
0.08805
5.991
0.03822
0.9239
3.02
0.8384
0.4613
18.81
0.0008209
0.4694
0.01787
0.4085
13.51
0.3032
36.59
0.003811
0.03316
1.146
0.127
4.813
1.88
0.001931
0.0596
0.02478
1.623
0.0307
0.8825
0.4493
2.187
0.00104
0.04507
1.902
3.801
0.4835
0.01419
2.709
0.01255
6.749
1.115
14.02
0.4929
0.003483
0.04475
0.3545
0.03167
5.312
0.006042
0.7175
0.01739
0.2996
0.4652
0.08248
0.1289
3.283
0.00388
0.1642
0.01572
0.02644
0.4161
0.01822
0.653
1.983
0.5359
0.06912
1.785
0.002644
104.1
1.885
0.0009131
0.07162
0.02488
0.4656
1.077
1.676
0.02694
0.2288
0.7852
8.482
0.01272
0.5013
0.2867
0.07641
0.3093
0.03484
0.002051
1.932
8.879
0.8802
0.5486
0.01923
0.02417
0.08997
0.001066
37.91
0.04471
0.01655
0.3674
0.04135
0.5146
0.5827
16.91
3.682
1.189
0.01775
0.02328
6.809
4.213
0.4726
0.271
2.8
0.01853
0.0432
1.045
0.07219
1.326
1.441
0.01402
0.01861
0.1716
0.02005
5.576
1.844
0.00992
24.34
0.8915
9.574
0.1012
0.1028
0.01788
25.62
0.5052
1.976
0.001549
22.69
0.03434
0.8224
0.1632
0.008202
18.84
0.09099
0.2625
0.1648
0.03348
0.003077
0.01221
0.2664
12.23
0.1397
0.07035
0.1016
1.304
1.517
3.927
0.09957
2.237
0.001468
15.02
0.03491
0.08004
0.01034
0.1608
0.01681
0.1567
0.07846
0.02267
3.836
0.02021
8.902
0.8868
0.02216
0.03845
0.01585
0.04053
1.051
8.205
0.799
3.946
0.01781
9.192
0.159
4.656
0.03374
2.311
0.1178
1.73
0.001196
0.5772
0.01037
54.69
0.1716
5.16
0.0291
0.00667
3.597
0.2052
0.5164
0.01724
0.3078
6.152
0.2077
0.01656
0.02905
0.2884
0.5238
1.054
1.05
0.01923
0.03253
2.862
0.4036
0.06825
0.5381
0.03423
0.05723
0.05179
0.6255
1.604
1.156
1.406
0.05003
0.2973
0.5078
0.06472
0.003101
0.4401
0.01233
0.007272
0.2602
0.273
1.139
7.331
0.4461
4.172
2.239
0.3671
1.37
0.2434
0.5753
0.03873
0.1014
0.02206
2.237
0.01466
1.501
0.0178
0.001007
0.03388
0.1178
6.809
0.4446
0.00679
0.02525
0.644
1.131
1.891
0.1931
1.309
0.01768
6.709
0.0165
1.168
0.08085
1
0.0124
10.6
0.01922
0.01101
0.01181
1.134
25.73
0.3549
0.07312
0.5577
0.4911
0.01343
0.4457
6.922
0.01214
0.913
6.421
0.7092
0.664
0.5067
1.144
0.001092
0.03271
0.01736
0.9508
0.3788
7.018
19.08
15.85
0.2
6.67
14.29
0.02175
6.928
2.639
0.3904
0.4638
0.04516
0.5522
0.1663
31.8
0.396
0.9155
0.006036
5.266
0.1041
0.1025
0.05468
0.2062
0.3864
0.6499
5.615
0.3966
0.04771
7.669
0.02008
0.01452
0.02115
0.4782
0.219
0.0548
2.974
1.133
22.42
0.06379
0.03232
0.01096
0.008771
0.04624
9.549
0.552
0.05485
0.02653
0.3363
0.03187
1.987
0.004825
0.6269
10.86
1.605
0.1066
0.6619
0.9766
0.7627
1.341
0.01902
0.9456
10.81
0.04004
0.02235
1.031
6.291
0.1407
10.65
2.536
1.067
0.4503
1.591
0.002978
5.517
1.536
0.5141
3.677
0.2457
0.04428
56
0.0007697
0.00138
0.00304
0.7267
8.563
26.79
0.001084
0.7864
0.4934
0.9161
7.42
8.106
1.55
0.2445
0.9419
1.083
0.06156
10.54
0.008231
0.1093
1.197
0.02265
4.472
0.01206
0.1385
0.04997
0.9045
0.009854
0.8748
1.275
0.4869
0.02788
12.44
0.04194
0.001374
0.01815
3.053
0.04482
0.9045
0.09324
1.102
0.01617
0.08782
1.359
0.007695
1.267
0.5536
1.384
0.6559
0.01993
26.39
0.04671
0.1475
0.1026
0.4973
1.785
0.04695
0.05297
0.01387
0.01312
0.02445
18.15
1.486
0.4737
0.1591
0.7208
0.04672
0.03275
0.0214
0.02085
0.1633
0.4809
5.771
0.159
1.994
0.6486
0.2936
12.24
0.02179
0.02868
0.004151
0.01053
1.153
0.173
0.01723
1.242
11.06
2.256
1.518
1.691
0.1028
0.3264
0.016
1.346
0.3354
0.02985
0.1255
0.01776
3.417
0.2766
0.5769
0.1752
0.133
0.04201
0.4577
19.94
0.005872
0.02122
0.0244
0.05712
3.782
0.06529
0.06519
0.6944
0.01294
0.1447
0.03383
0.05188
0.5736
1.92
5.971
0.004783
0.04714
0.04141
3.557
0.12
0.07077
0.7566
0.06817
0.02627
0.01189
0.01858
0.01126
0.02577
1.454
0.3682
0.106
7.772
0.03743
0.198
0.2999
0.1507
0.06592
134.5
0.5908
14.41
0.103
0.01979
0.3605
0.001439
20.24
0.001425
27.36
0.2671
0.002061
6.173
0.01776
0.1898
0.6563
0.01649
23.9
0.03002
15.45
11.7
0.3896
0.01424
1.548
0.02041
0.0835
19.24
4.557
0.02649
0.02555
0.01605
0.02514
0.1433
0.001144
0.2241
11.76
0.01766
3.566
0.5339
0.1272
0.03331
0.005847
0.9442
0.01621
0.5701
2.023
5.94
2.506
2.01
0.003764
0.002589
1.746
13.61
0.4749
12.57
0.001238
0.677
0.01155
0.5668
0.001196
0.5606
2.091
14.68
0.02039
1.362
0.01826
0.05825
3.838
4.794
1.031
3.292
0.004777
0.001878
0.394
0.01225
3.588
2.074
7.848
0.007741
0.5688
0.01818
14.46
0.6343
0.1937
0.009637
0.002932
0.01552
1.609
30.11
0.001143
0.143
0.02024
0.6121
2.754
0.02847
0.03095
0.3068
27.76
0.04058
0.7753
2.102
0.01755
0.4939
4.955
0.03783
0.01596
0.003865
0.01532
0.2312
0.04734
0.4457
0.003614
5.372
0.01707
0.02079
1.607
0.3713
14.7
2.965
0.04183
0.04363
0.06246
2.954
0.5014
0.3906
0.444
0.01903
0.06054
0.6933
0.02258
3.088
0.01164
1.235
0.8528
0.7555
0.01613
7.732
1.577
0.0742
44.61
0.01598
25.64
6.243
1.048
18.65
0.2976
5.564
1.305
0.02312
3.35
0.001286
3.226
1.634
2.256
0.02046
0.05041
0.7806
3.014
0.01015
0.2355
1.371
1.816
0.006694
10.92
1.22
5.653
0.3491
0.5773
2.008
4.94
29.14
0.1133
1.277
0.001165
3.099
1.184
0.4185
0.01548
1.741
0.02492
1.591
0.399
0.9139
1.559
0.8404
1.019
0.7998
0.1938
9.537
0.3657
0.02788
7.773
0.1595
0.05709
0.01872
0.5995
0.03003
0.006624
0.01777
27.98
0.08112
0.001947
0.4381
0.006334
0.004797
0.0007558
8.922
0.0499
0.5233
0.001949
1.762
0.0191
1.586
7.389
1.551
0.01533
0.6051
0.4384
0.0006106
0.3818
0.5319
0.6023
0.001487
1.876
0.00127
0.0005833
0.01824
14.64
10.12
0.02552
0.6418
0.1044
0.01577
0.5651
0.04056
0.1893
0.2478
0.4935
0.001192
0.2709
0.2917
1.581
0.2129
2.917
0.03123
0.196
3.217
0.04386
0.2059
0.4529
1.338
0.4805
6.706
0.2291
0.003949
0.2031
1.263
0.3552
0.08645
2.436
0.231
8.119
0.008636
0.01417
1.892
16.05
0.06008
121.6
0.01528
0.6985
0.7506
80.11
1.043
108.3
6.301
1.342
0.9074
0.003015
0.1461
3.787
0.04084
1.6
14.62
0.06834
0.8572
0.2711
6.655
4.356
0.007535
0.007601
0.02473
0.0161
0.07622
5.741
0.6578
0.0146
61.87
0.05107
0.1922
0.1762
0.1974
0.4809
0.4177
50.23
0.667
0.09464
51.22
1.429
3.298
0.7549
1.837
0.002189
12.76
0.03395
0.0149
0.7534
0.1134
0.06323
0.2774
0.2876
0.5178
1.476
6.25
0.2916
2.064
0.3834
2.688
0.7911
0.1071
2.176
1.426
0.06248
1.453
0.4524
0.8152
2.293
27.67
0.003001
0.03236
0.01247
0.4869
0.4221
0.5502
0.2221
1.087
1.745
6.182
0.01727
10.45
2.391
2.489
0.08593
2.257
0.6208
1.416
0.01554
0.6127
0.005168
316.6
0.001281
0.7159
0.9083
0.1941
1.388
2.457
0.04418
0.02127
0.01727
7.442
0.06521
0.8466
2.134
0.5596
0.0366
0.01122
0.006333
62.33
1.182
0.01342
0.005135
0.1048
0.2396
8.383
0.06632
0.4751
1.074
1.165
6.654
0.4225
6.026
0.7438
0.4362
0.1713
0.008549
31.87
0.01701
0.1394
0.008261
118.7
18.02
0.06423
16.45
0.02229
24.41
0.07582
0.01633
1.732
0.5922
3.342
0.01739
0.1587
1.542
0.00829
0.008374
0.1618
0.03358
0.2169
4.034
1.331
0.08344
0.01834
7.575
4.619
2.007
0.04124
0.002811
0.4876
1.011
1.118
1.175
0.02121
0.01717
0.02002
0.8728
0.7282
0.01794
2.155
2.514
0.07981
0.3552
1.653
0.07758
2.141
0.374
2.196
0.004534
0.01519
0.004909
0.5573
0.4491
1.14
5.677
0.0005934
0.05832
0.1126
8.871
0.3353
0.02504
1.496
0.4391
15.79
0.03259
0.01658
0.5517
0.04827
0.02924
0.6443
0.01983
1.274
1.004
0.01324
0.4461
2.215
0.204
14.92
0.03642
0.01543
0.007328
0.007088
0.02053
1.725
0.0007055
1.135
0.4797
2.924
0.0327
0.01771
5.363
0.03086
0.6066
0.3337
0.001574
7.936
0.1392
0.5359
0.01556
5.444
0.01431
0.01585
0.001092
35.04
0.01849
2.272
0.8806
0.004901
0.01727
46.2
0.365
1.374
0.4756
0.007326
0.04386
0.3478
2.408
1.278
1.534
0.2197
0.8229
2.315
0.03525
2.125
0.01722
49.78
0.2702
0.1709
0.003014
0.558
0.2136
2.614
13.43
0.02366
0.02028
0.9015
4.449
1.063
0.386
0.001247
0.0804
0.9033
0.3055
0.3172
0.4945
5.735
0.01984
1.56
0.3915
6.451
0.02119
0.03999
0.01271
104.8
0.3583
0.1785
0.001026
4.222
0.4255
0.01767
0.01467
2.434
0.01414
0.2568
0.1701
0.01817
0.008318
0.4569
0.3127
0.04888
0.0102
0.6094
0.4216
0.165
0.0176
2.678
0.01572
1.631
0.5936
0.8856
2.347
0.105
0.02065
3.613
0.7306
0.8616
0.1513
1.896
0.1824
6.614
0.02314
0.01877
0.01326
6.717
0.02216
1.532
2.733
0.5061
0.3649
0.01774
0.09488
31.4
0.353
2.039
0.3302
0.2277
1.209
0.5783
0.6165
0.2871
1.252
1.695
0.2628
0.03123
3.864
0.368
0.01611
2.391
0.1857
0.01138
9.674
3.771
0.01648
7.098
0.5203
0.01785
0.01393
0.1568
0.1878
0.04488
0.04092
0.6858
0.9809
0.63
0.7799
0.02918
1.073
0.2988
0.3348
0.2821
0.02889
0.01833
0.02241
2.121
0.0512
0.01512
0.01627
0.05799
10.04
15.75
0.2295
0.02012
0.9056
0.1639
0.3358
1.899
0.01516
0.03097
0.06561
0.0007546
0.02504
0.1421
0.03174
0.3944
0.02493
11.05
0.01469
0.008453
6.665
1.823
0.01337
0.169
0.06518
2.472
21.29
18.88
0.04681
1.324
21.35
6.715
0.4431
21.01
0.5125
1.47
1.311
0.3546
1.473
1.113
0.01717
0.1542
7.699
0.04442
2.036
0.003224
0.001336
0.3132
2.975
0.01413
4.917
5.134
0.01451
0.3986
0.06964
0.2318
0.02465
0.1919
0.8653
0.01419
0.3658
0.01662
0.9769
0.09315
0.007665
0.4799
0.3623
2.311
1.335
0.1436
0.8064
45.11
0.01564
1.793
0.94
0.01613
15.84
0.01859
0.181
0.01326
0.007362
0.02805
0.02144
0.2455
2.694
0.01798
0.004727
2.673
3.125
1.878
0.02462
84.57
1.248
2.625
0.5229
0.02267
0.00115
5.114
0.0134
2.179
1.945
0.1841
0.07866
17.81
0.02854
4.625
0.02257
0.2269
0.7579
0.8892
1.925
10.56
5.642
15.64
1.061
0.0322
0.01643
1.353
0.1737
0.09992
2.101
1.129
0.01978
0.02247
0.3208
0.1219
68.82
5.035
0.9149
16.73
45.04
19.64
0.0163
2.996
0.6968
1.596
0.05737
6.569
0.3985
7.728
2.242
8.401
0.01541
0.02583
0.2415
1.658
0.1683
0.3698
0.8228
1.326
0.006504
0.03164
0.02062
1.235
1.717
0.3812
1.552
0.0135
0.3293
22.25
0.008669
0.01292
0.01076
8.905
0.03038
0.03178
0.03371
0.04245
0.02191
0.4201
1.015
0.2772
0.3699
0.02563
0.165
18.98
1.293
0.3273
5.879
0.01246
0.4676
5.416
0.03261
0.05
3.069
5.132
4.21
0.04631
0.1858
0.106
0.3707
2.85
0.5708
51.1
0.4614
4.748
0.001286
0.2054
1.351
1.284
1.653
0.01826
0.002053
0.002082
0.02028
28.21
0.001767
0.00169
0.001293
0.01531
0.5087
0.00144
4.25
0.8768
0.4966
1.338
0.4157
0.1158
0.007699
0.3346
0.5634
4.388
261.1
82.96
12.51
0.1351
0.1855
0.04224
0.02324
3.521
0.0005449
1.826
0.01715
1.728
0.6624
0.02836
1.126
0.9703
1.076
0.03892
42.49
24.76
7.149
0.0166
86.34
0.1164
1.887
0.5912
0.1755
0.0184
0.01564
2.732
11.1
107.4
36.44
0.2416
0.02864
0.02942
0.01245
0.006103
0.04343
0.4993
0.2807
11.23
1.377
0.08496
2.805
3.415
0.2413
1.245
0.5585
0.3
0.2654
0.01469
0.653
0.02524
0.03697
0.8418
0.03087
1.251
19.31
0.9045
0.05417
3.476
1.121
1.254
0.01846
0.1231
3.121
0.001218
0.01823
0.03668
14.08
1.052
0.01596
0.2914
0.006858
0.017
0.871
0.01575
1.008
0.01833
0.2833
0.02143
3.631
0.02151
4.48
0.01121
0.008065
8.148
49.41
0.4834
0.3118
0.2042
2.8
0.5101
1.679
0.5615
0.5664
5.133
0.004016
1.119
3.061
0.02507
4.753
0.2173
1.635
1.798
0.0165
0.2167
3.087
36.16
0.01711
0.01722
0.3581
0.02179
1.891
0.05984
0.5539
0.2729
0.3716
0.02171
0.02845
0.02816
0.2625
0.01523
0.06279
0.01287
1.789
0.01271
0.3387
0.1039
0.8618
0.4773
0.01822
0.02217
0.02574
0.2406
0.7011
1.492
0.02491
0.01891
0.2147
11.4
0.218
5.117
0.6415
0.3863
1.748
0.1983
35.63
0.01959
0.4042
0.7851
0.00175
1.087
1.066
1.896
1.47
1.626
0.7847
0.2754
6.316
11.27
0.03886
0.02149
0.001222
9.892
4.79
0.07611
0.4381
1.304
0.2568
12.61
0.8641
0.8503
0.02542
0.05485
6.907
0.01815
0.6166
0.04325
7.956
1.138
0.2619
0.6456
1.642
0.3954
1.009
0.1879
0.3197
1.411
1.289
1.073
1.978
0.02387
2.147
0.05332
0.01707
0.3483
1.006
0.002169
0.1777
0.007531
22.05
4.156
6.552
366.7
0.03863
8.181
14.28
1.595
0.2478
0.01077
0.07825
0.01002
0.05423
0.4513
4.134
4.517
0.02245
26.95
0.07887
1.51
7.497
0.01831
4.468
0.01113
0.04594
0.3322
1.302
0.8399
0.6857
0.02286
0.08242
0.7606
0.6713
0.3563
0.03139
0.01649
0.007959
0.2075
0.01749
1.182
0.9933
0.01391
0.03566
0.08898
0.004388
0.2942
0.2994
0.9649
1.553
0.01649
84.72
0.07717
4.047
0.0009317
0.02276
0.03248
0.01503
40.6
0.03038
0.4051
0.5471
0.9978
0.3552
36.79
1.695
1.223
0.4095
11.11
0.4088
0.00461
2.51
1.159
0.6909
0.402
15.03
0.7054
0.0659
0.004198
2.929
0.9451
3.851
0.03746
0.03407
2.271
71.3
3.341
6.262
0.1371
0.005097
320.5
0.01703
7.101
1.065
18.01
0.02861
0.542
0.03202
0.003627
2.393
0.01731
0.06616
18.61
5.016
0.01237
0.836
0.03005
0.03864
0.5902
1.239
0.7449
0.3968
0.02518
0.01695
0.0425
0.01876
0.008094
0.095
0.1091
0.3233
24.58
0.009493
0.0024
0.229
0.02291
0.004993
0.004949
0.1864
0.5315
1.141
5.93
2.378
0.02146
0.4097
0.2605
7.208
0.03664
1.329
0.0281
0.2422
0.5239
0.004703
0.001971
0.01009
0.6764
1.451
4.532
0.008677
2.912
9.268
0.4183
24.9
0.01024
0.2975
1.492
0.08135
0.3294
0.8888
13
1.103
0.01395
0.0197
0.001368
1.514
0.005327
0.02534
0.0275
1.184
47.59
0.007628
1.63
0.01822
0.01708
2.082
14.57
2.416
2.176
0.5882
0.09253
4.378
4.091
0.006625
0.0219
0.01361
0.3217
6.789
0.01912
0.005499
0.8726
0.909
0.4151
0.4473
1.574
0.02129
0.02444
36.53
0.7919
7.221
4.753
48.18
0.07879
0.01702
14.25
0.07805
1.034
0.000927
0.07098
0.01738
0.6287
0.3096
0.538
0.01543
2.209
1.693
31.94
0.801
0.5299
2.702
0.6564
0.2011
0.01689
0.01572
0.3427
0.2666
0.4156
0.02669
0.01316
0.6615
17.79
0.02203
26.87
1.134
0.924
0.02337
225.1
1.083
0.08166
0.01618
0.02273
1.187
50.21
0.8827
0.01611
0.0191
0.02317
0.5582
0.1302
2.711
0.07644
3.084
1.616
3.825
0.01943
2.894
0.3383
0.1706
0.3411
0.09667
0.08631
0.8921
1.112
0.005802
0.007662
0.01946
10.74
1.936
91.79
0.01791
0.02537
0.0995
0.7211
1.848
0.03514
0.8264
0.03608
0.5447
0.02567
0.3017
1.099
0.4046
0.02732
0.1743
0.01954
0.01629
0.8993
2.805
0.06122
2.455
0.3657
22.09
0.006781
0.01342
0.01785
0.02294
9.986
0.03947
1.032
0.001273
0.2711
0.01739
1.018
2.628
0.3414
0.2528
0.6759
0.6327
1.756
0.007505
0.4082
1.218
0.1163
1.236
0.04527
0.1717
0.018
0.6155
0.03823
0.002351
0.03638
9.365
0.1036
0.02376
0.5729
0.01354
0.1023
8.061
0.005525
0.006684
42.15
1.179
0.9761
152.9
4.883
1.921
0.009677
0.8219
0.08277
0.2941
4.298
0.2613
0.01863
0.02542
0.01382
22.76
0.02073
0.01353
6.525
1.74
2.752
0.1629
0.02176
0.07227
10.2
0.2315
0.0503
5.398
0.7366
0.01464
0.01718
0.01402
0.01358
0.03172
14.98
0.02346
1.439
0.02021
2.238
0.06942
0.5903
0.8375
0.6442
0.09291
0.03409
0.01666
0.8136
0.008308
0.0231
1.152
16.25
0.3789
1.411
0.001286
0.01666
0.1826
0.7026
0.001763
0.001555
0.4915
0.007701
0.4917
0.7472
1.092
1.094
0.1253
0.1727
0.7771
0.03296
23.05
1.107
0.4761
0.2679
0.04956
4.132
1.32
21.86
0.0164
7.896
0.008457
0.04223
0.02231
0.1029
12.45
0.1354
0.03893
0.05254
0.01619
0.4855
0.4912
16.37
0.3607
0.03174
0.04843
137.3
1.11
0.009319
0.02439
0.03228
0.1634
2.546
0.2995
0.00535
0.06657
0.06645
1.384
0.2471
9.305
0.03259
0.03975
7.835
2.273
1.951
1.546
0.2067
0.02088
2.32
4.125
6.197
0.4887
1.274
5.909
0.02988
0.6238
0.09085
11.59
0.9022
0.0185
1.058
0.01901
0.9477
0.2358
1.268
2.057
0.6889
3.58
4.016
1.417
16.05
0.4057
7.571
0.1599
0.3637
0.006686
0.5943
0.4087
0.8428
0.02758
0.5345
0.3268
0.002878
0.9976
180.2
8.056
0.01704
0.01849
1.718
20.19
0.3142
0.01512
0.6833
0.0714
14.3
19.61
32.05
0.008714
8.575
0.667
0.001402
0.001444
0.01333
17.78
0.2006
1.026
0.4162
0.6736
0.01165
0.003873
148.8
1.154
0.02836
0.01843
0.1054
0.6329
0.009274
0.2608
8.038
1.153
0.001323
4.481
0.5754
0.03461
0.03142
0.01592
1.515
0.006175
0.0194
0.8283
50.04
0.04174
2.302
4.237
0.7097
0.09981
0.3826
2.203
0.25
0.01224
0.0816
2.341
0.01708
1.004
0.002369
0.003537
0.003538
0.6324
0.6113
0.01574
14.43
0.03943
0.01707
0.01612
0.5791
0.6414
0.8145
1.626
0.07869
0.4871
2.869
0.1259
0.0266
0.006268
0.02678
0.5601
0.001588
0.00161
0.04445
0.2812
0.008025
7.097
0.1934
6.455
0.5745
3.014
0.02177
7.286
0.3012
0.7789
0.2253
2.271
0.9619
0.2796
0.3695
0.02987
0.198
0.05235
1.425
0.07074
0.09723
0.1235
0.09418
55.29
1.168
0.2716
0.48
0.6077
0.01985
0.04521
0.3126
1.781
1.434
0.5782
0.01577
0.0193
0.01728
1.278
0.03123
10.4
0.0192
2.705
0.01738
0.01591
0.3813
3.976
0.4074
0.02152
0.00613
11.9
0.02572
12.88
11.93
0.722
0.1048
0.5323
0.02022
0.006231
0.6358
4.75
0.2874
2.184
0.1754
5.245
0.2018
0.01112
0.126
1.023
0.3125
0.2231
0.5525
0.01516
0.06344
1.465
0.01107
0.009514
0.8837
0.3269
17.58
0.2967
0.9146
0.4839
10.69
0.8567
0.01749
0.0118
10
1.504
0.7395
1.007
3.846
9.917
0.01957
162.3
0.3542
0.01226
0.08847
1.482
0.0174
44.57
0.02125
0.02464
0.6153
0.007332
13.5
5.922
0.03935
0.4197
11.02
7.811
11.05
2.123
0.01749
0.09453
2.557
7.236
0.07991
1.024
0.279
0.08174
0.02322
0.02207
3.576
1.098
0.5277
0.01125
20.03
6.531
0.1047
0.4781
0.5007
0.01861
21.63
0.2451
0.73
7.324
4.473
0.00135
0.008548
0.01565
0.1262
0.01648
1.075
1.478
1.945
0.691
0.1617
1.225
0.0481
0.00135
0.03822
0.01741
3.964
0.4309
0.5653
0.01737
0.1034
0.2549
0.2163
0.2939
5.004
0.007292
1.169
0.7389
0.6131
3.207
2.348
0.7856
0.0006338
0.8381
3.772
0.2908
0.08994
8.368
9.063
0.02267
0.3567
0.01844
0.07358
10.95
0.01406
0.01232
1.029
0.733
54.48
0.03218
2.273
0.02246
1.085
0.02077
0.9216
0.03797
0.5116
0.1756
1.091
0.05873
0.3093
0.9746
1.732
3.566
0.05234
0.019
53.1
0.01955
0.07436
0.0007755
0.0007772
3.885
0.01524
16.33
0.04544
0.4508
0.1543
0.1973
0.2034
0.3932
0.01718
0.01457
0.6424
0.123
1.159
1.218
0.02143
0.002521
0.2739
0.4641
0.01218
0.5021
0.2907
0.5055
1.017
0.04753
1.955
0.02712
7.218
0.02779
0.2793
0.071
3.289
7.25
0.1705
0.6214
41.14
0.002367
1.091
1.596
0.1747
0.007999
1.311
0.01772
0.7427
0.02674
1.201
0.07947
0.9269
0.01846
0.4147
0.02756
0.3604
0.01487
0.04677
10.08
4.113
1.441
0.01449
0.0265
1.376
0.2764
9.464
0.3256
0.01443
0.07837
0.4106
0.05526
0.325
1.807
5.021
0.01259
0.01929
0.2079
0.00282
3.926
4.86
0.8089
0.005604
0.1642
0.01884
0.4635
0.01725
0.008448
0.01815
15.54
0.01181
4.593
1.361
0.0114
8.352
2.221
0.6836
0.07346
0.02494
4.902
1.922
0.5214
0.0295
1.512
0.0189
0.006133
0.05532
0.002976
0.01584
7.465
25.34
8.336
0.01284
0.01721
0.02351
6.501
0.1907
1.786
0.1951
0.213
1.576
0.01426
18.1
0.01758
0.1334
0.8759
0.09
0.2165
0.06632
0.02257
1.259
29.78
1.774
14.8
4.563
0.1181
0.0223
0.1221
0.1802
2.046
0.2286
0.5055
0.006072
1.252
35.29
0.01837
1.72
0.01325
0.2782
0.4856
0.407
0.8817
1.717
1.051
0.4043
0.4967
0.03718
0.004432
0.02254
0.01702
3.897
17.93
0.9018
0.4924
0.1942
0.3785
1.718
0.7612
0.03136
0.03471
0.01353
0.03815
2.139
36.05
0.7493
0.2919
0.00435
0.1212
7.995
0.01871
0.01641
0.02728
0.5687
42.28
0.1436
0.2754
0.03188
0.1845
3.498
38.48
0.7111
38.25
0.01787
0.1074
0.4312
1.758
0.8732
0.1944
0.06502
0.02371
0.05052
0.01026
0.005171
0.2685
0.0285
0.0163
0.2443
0.01363
0.02733
0.02849
0.01868
0.4749
0.4021
0.01065
0.2424
0.4371
0.03425
0.5649
0.4143
0.05659
10.9
1.195
0.131
0.01658
0.8443
0.0179
0.2077
3.033
0.59
0.006067
0.2686
26.93
0.4185
4.118
1.462
8.44
3.829
0.1193
0.2348
2.04
0.002466
1.264
0.05341
0.1515
0.3978
8.669
0.005925
0.9444
62.48
0.001127
1.127
0.01626
0.005073
13.47
0.005941
0.01322
0.02013
0.6046
0.1502
5.737
0.101
1.048
5.96
4.983
0.02074
0.01759
0.002837
66.94
0.007949
0.4291
0.02131
13.93
0.1408
0.01468
3.621
1.6
0.02071
0.002129
0.8649
0.08752
7.247
3.601
0.04163
0.01841
0.7179
0.01699
0.1552
1.427
1.222
38.37
9.404
0.01831
0.1969
0.6199
0.001929
0.1064
0.5151
0.4559
1.005
0.03468
0.01685
0.002635
1.76
0.02204
0.09174
0.09379
0.01647
0.04044
0.02696
0.007394
1.221
0.01597
0.02521
0.3775
0.1335
0.02939
0.01733
1.524
0.01236
1.508
2.498
0.03206
0.009334
0.01382
0.6574
3.02
0.9161
0.4562
0.2192
0.08043
0.1165
8.645
4.46
0.3092
7.169
0.3826
0.04829
0.9855
8.385
1.256
0.05411
0.1826
0.4669
0.0171
0.5426
0.02887
0.739
2.18
19.15
0.3808
0.501
0.4366
0.01808
0.5142
6.892
0.03965
0.06768
0.547
0.4044
0.001841
5.983
164.5
8.662
0.04124
1.787
21.4
0.1586
4.159
0.0791
0.01174
19.29
0.008892
1.501
4.435
1.093
0.535
0.4575
2.55
0.3599
0.4281
0.3103
1.106
1.87
0.00799
0.01903
0.3235
1.453
0.01722
0.006211
0.01908
3.162
0.01177
0.2079
0.6298
0.5546
5.513
0.002357
4.686
0.1467
0.02136
0.01187
0.751
24.43
0.05182
0.2822
0.002331
0.01756
0.001987
0.002149
0.01723
1.038
0.01691
21.64
0.6653
8.016
0.4253
0.01894
0.5901
0.01963
8.628
0.1998
0.08994
2.85
0.8453
0.06166
0.06047
1.034
0.02012
0.002652
0.5863
0.1176
0.03841
3.07
0.002195
0.00306
0.003056
0.4069
0.1389
26.71
1.127
0.1601
0.0008882
0.0008823
0.01369
0.02611
0.02274
2.025
0.3228
1.873
0.1831
0.1795
0.01739
0.1949
1.836
2.292
1.123
0.9321
0.6738
0.01649
1.289
0.01085
0.3109
1.178
0.1309
0.133
0.9241
0.6703
0.03743
69.32
1.903
0.003986
1.026
0.7455
6.944
0.01122
0.6616
0.6506
1.095
3.562
0.1934
6.947
6.849
0.01958
0.5366
0.01232
0.01076
29.79
10.86
0.2737
62.86
0.08353
0.05681
1.173
0.0146
1.028
0.1883
0.3667
24.64
0.6604
0.01308
16.06
0.5787
0.6147
0.2999
0.6526
1.65
0.09262
1.625
27.29
0.04092
0.02331
1.421
0.00113
0.03309
0.4378
0.8841
15.96
0.144
1.028
0.2499
0.002633
0.5985
44.52
0.0717
0.2785
0.005663
0.4049
0.3887
43.78
0.2643
0.2035
4.694
3.349
0.0255
0.2187
0.01685
6.928
18.8
0.02297
4.162
18.02
0.1746
2.018
3.987
0.7044
1.12
0.03621
0.002819
24.85
0.008865
0.8695
0.01658
11.83
0.0197
12.73
0.8616
3.078
0.05519
0.00146
0.03092
0.1496
0.4092
0.4622
0.0006967
46.87
3.974
0.008568
0.01763
0.3014
0.5941
0.5578
4.132
0.9491
0.01484
2.086
4.024
0.01731
36.46
0.01067
2.543
8.86
0.3058
0.01637
0.6277
0.01726
2.072
5.025
0.1072
0.004627
0.01832
0.2363
2.779
0.5104
2.097
0.2176
0.4685
2.239
1.801
0.003118
0.01557
0.01797
15.93
5.811
0.05321
1.352
0.01237
0.0259
1.085
0.00266
0.6418
0.9133
0.0169
1.701
0.8947
0.4334
0.2043
3.09
2.42
0.0008964
0.0007429
91.17
0.7965
0.3713
0.01683
0.01686
0.3734
4.737
0.02184
0.01404
0.8677
0.05098
0.01502
2.18
5.953
38.28
0.0717
1.069
0.5231
0.01794
1.929
3.147