/*--------------------------------*- C++ -*----------------------------------*\
  =========                 |
  \\      /  F ield         | OpenFOAM: The Open Source CFD Toolbox
   \\    /   O peration     | Website:  https://openfoam.org
    \\  /    A nd           | Version:  8
     \\/     M anipulation  |
\*---------------------------------------------------------------------------*/
FoamFile
{
    version     2.0;
    format      ascii;
    class       volScalarField;
    location    "15";
    object      p;
}
// * * * * * * * * * * * * * * * * * * * * * * * * * * * * * * * * * * * * * //

dimensions      [0 2 -2 0 0 0 0];

internalField   nonuniform List<scalar> 
63579
(
-0.4637
-0.1859
-0.2909
-0.3256
0.7786
-0.1143
1.653
0.1946
0.03366
0.1105
0.7173
-0.04228
0.1184
-0.5735
0.2839
-0.5546
0.03368
-0.09855
-0.1101
0.7175
0.1522
0.1015
-0.0006406
0.3013
-0.0007577
0.04658
-0.01549
1.027
-0.001996
0.4302
0.0001594
-0.01493
-0.003758
-0.0276
0.3014
0.003836
0.7021
0.04182
0.4277
-0.2285
0.02363
-0.1994
0.01336
-0.1031
0.003635
0.1526
0.203
0.07085
0.1232
0.0002472
0.7035
0.007298
1.649
1.351
0.009794
0.142
0.01186
-0.003439
-0.01951
0.007396
0.5363
0.06763
0.6993
0.09039
-0.04996
0.3691
0.03273
0.9185
0.264
0.01392
-0.4147
1.952
-0.001855
0.05597
0.05848
0.1885
0.4354
1.311
0.04348
0.4963
0.7781
0.02326
0.32
0.7418
-0.5826
0.0466
0.157
0.3725
0.001257
-0.3397
0.04361
-0.01345
0.371
0.02421
0.3726
-0.06687
1.329
0.03244
-0.04586
1.215
0.0001865
1.779e-05
0.01761
-0.01397
0.1324
-0.02442
0.1277
0.1571
-0.04477
0.0107
0.02986
-0.5845
0.1855
0.1206
-0.3068
0.00367
0.1885
0.3167
0.02442
0.06354
-0.01525
0.4969
0.1944
0.000494
0.0548
0.2574
0.2778
0.6675
-0.04503
-0.5318
0.3015
0.1801
0.04204
0.01098
1.352
0.9593
0.1824
0.001755
0.125
0.001195
0.3991
0.0007847
0.007516
0.07001
0.01888
-0.0003536
0.00882
0.09957
-0.01603
0.2211
0.06513
0.1924
0.0279
0.7348
0.05891
0.348
0.5601
0.148
1.035
0.1562
0.02874
0.05211
0.1171
0.2757
0.0007707
0.02441
-0.4233
0.04955
-0.008366
0.2006
-0.08102
0.2573
-0.4317
0.2129
-0.2758
-0.00243
0.2984
0.0001679
2.426e-05
0.4155
0.6698
0.1607
0.1873
1.443
0.09902
0.06868
0.06255
0.08776
-0.4384
-0.008763
-0.0001952
0.02051
-0.002794
0.001204
1.217
-0.08247
0.05726
-0.04948
0.03765
0.0001039
0.09512
0.08257
0.3327
0.004539
-0.01044
-0.01886
0.5824
0.2957
0.03204
0.5845
0.0796
0.04551
0.00276
-0.004352
0.07287
0.0384
0.007983
0.04408
0.7188
0.1091
0.2652
0.5341
0.186
0.6021
0.0006687
0.06563
-0.113
0.2737
0.1679
0.004321
-0.0004832
0.1188
0.09487
0.02915
0.01653
0.6947
0.06677
0.02701
1.148
-0.00198
0.07349
0.07208
0.2076
0.06915
0.03287
1.163
0.001415
-0.01409
-0.0003607
0.06474
0.1012
0.001109
1.425
0.89
1.187
0.2767
0.7192
-0.01459
0.05066
-0.374
0.04192
-0.4408
1.383
0.03841
0.1109
0.02759
0.8864
-0.0137
0.01296
0.02481
0.5346
0.107
0.07366
0.001371
0.6158
0.03709
-0.02011
0.05754
-0.02919
0.007605
-0.3838
0.0002762
0.09521
0.7522
-0.5505
0.06666
0.5783
-0.0004119
0.3352
0.5831
-0.02697
0.1111
0.05382
0.00708
0.007942
0.1845
0.235
0.02489
0.0002578
0.5487
0.6779
0.7159
0.247
-0.02893
-0.002743
0.256
0.002345
0.04492
0.0001274
0.08586
0.02511
0.0001612
0.8147
0.001095
0.1238
0.01628
0.0731
0.01658
0.01888
0.0907
0.06308
0.08216
1.449
0.03287
-0.1912
0.02698
0.00211
0.2201
0.02064
1.429
-0.05434
0.004615
0.01102
0.04224
0.6026
0.001845
-0.002633
0.02407
0.6878
0.7177
0.001841
0.1491
0.02082
0.0003618
0.9214
-0.05382
-3.16e-05
0.1285
0.1428
0.008488
0.2766
0.427
0.09008
0.08366
-0.00288
0.1251
0.4484
0.8437
0.0003029
-0.002981
0.04206
0.1732
0.9403
0.6454
0.3182
-0.01329
0.003543
0.06751
0.8496
0.6313
0.6277
7.098e-05
0.1017
0.2572
0.1231
0.0001816
0.05383
0.02761
0.05722
0.8818
0.2785
0.0531
0.05252
0.1887
0.4601
0.07485
0.2435
0.6757
0.04814
-0.007513
-3.582e-05
0.08031
0.0002196
0.000219
0.01902
1.684
-0.02629
0.1719
0.2225
0.3329
0.1224
0.07238
0.0001936
0.1108
0.0001815
0.2572
0.0129
-0.002623
0.07742
5.075e-05
-0.3787
0.1173
0.5113
0.001215
-0.0137
0.001222
0.08803
0.6655
-0.003169
0.7455
0.0009949
-0.02022
0.008194
-0.003382
1.01
0.07963
0.1262
-9.578e-05
0.07095
0.003999
0.06904
-0.001792
0.8313
1.765
0.02867
0.4456
0.08412
0.6399
0.1868
0.6163
0.0291
0.005594
0.4402
-0.5804
0.09932
0.00104
0.2518
1.649
-0.01406
0.1071
9.806e-05
0.0001413
-0.07046
1.392
0.05329
-0.06612
-0.4123
0.2504
-0.017
-0.06686
0.2057
1.614
0.02252
0.257
-0.01018
-0.0002648
-0.005779
0.498
0.6982
0.2363
0.0001769
0.95
0.0001003
0.6399
0.1318
0.04544
-0.02738
0.01416
0.1894
0.7578
1.425
0.6407
0.6433
-0.007633
0.01822
0.04433
0.2919
0.08668
0.08078
0.07691
1.225
-0.007771
-0.006264
0.1476
0.001215
0.762
0.03608
-0.03697
0.008347
0.1788
0.5692
0.6563
0.03192
0.7485
0.06286
0.6721
-0.01481
1.63
0.002185
0.1849
0.000418
-0.003181
0.1071
0.5498
0.1669
0.1002
0.02931
0.2188
0.0003962
0.06364
0.01289
0.0003287
0.02223
0.09477
0.179
0.01292
0.0686
-0.002001
-0.3686
0.154
0.06741
0.1865
0.106
0.05758
0.002889
0.03025
0.1733
0.3459
0.04773
0.1031
0.3094
-0.006499
0.1515
0.0001766
1.12
0.03684
0.3451
0.085
0.03706
0.3365
0.000487
0.02835
0.0002712
0.2365
0.04317
0.2699
0.1465
-5.715e-05
-0.01561
0.1259
-0.09331
0.1565
-0.06063
0.221
0.1257
0.0002231
0.04552
-0.002873
0.8477
0.3441
0.009077
0.02889
-0.5312
0.09708
0.211
0.219
0.1148
1.044
0.1443
0.07443
0.045
0.06076
0.2211
0.09375
0.1449
0.0002716
-0.005412
-0.01313
0.01487
0.09161
0.376
0.07784
0.1044
0.6829
0.04008
0.2784
0.1272
-0.1001
0.1319
-0.09335
-0.002257
0.2561
0.00779
0.1764
0.08637
-0.02938
0.00744
0.02122
0.1962
0.1893
0.2975
0.001115
0.000135
6.457e-05
-8.048e-05
0.1362
0.07479
0.03462
0.326
0.07473
7.932e-05
0.2965
0.09409
0.8427
0.03568
0.1277
0.6382
0.006249
0.02812
-0.1301
0.0008557
0.9057
0.1514
0.1347
-0.005273
0.4088
0.001092
0.0369
1.438
0.1912
0.05855
0.3209
0.3029
0.2807
0.7586
-0.006135
0.1231
-0.007463
0.1096
0.005378
0.0005502
-0.1487
0.4169
0.0007586
-0.007201
0.0137
-0.005414
0.0002456
0.02238
0.1856
8.122e-05
0.6891
0.113
0.09785
0.05376
0.0708
0.1566
0.01182
0.5775
0.01077
0.08746
0.5631
0.09068
0.0003453
0.000373
-0.005487
0.07857
0.2263
0.9049
-0.009697
0.09436
0.4506
0.005826
0.03249
0.1857
0.08327
-0.02668
0.08445
0.04503
0.2855
0.001896
0.0662
-0.004804
0.4755
-0.001825
1.281
0.148
0.0003234
0.6126
-0.0081
-0.1847
0.1067
0.959
0.1309
1.003
0.02381
0.0003726
0.0003631
0.04707
-0.605
-0.3815
0.03551
-0.001614
-0.06032
-0.01529
-0.006701
-0.0002015
0.4698
-0.005752
-0.4722
0.2992
0.8347
0.0004729
1.636
1.55
0.01026
0.3378
1.743
0.07413
-0.0001749
3.17e-05
0.0002018
0.2347
-0.000209
0.003776
1.324
0.003249
0.09245
0.3112
-0.003383
-0.001714
1.633
0.3609
0.1003
-0.0543
0.1391
0.266
0.000154
0.4311
-0.06285
0.6335
0.04429
0.00917
0.1387
0.5494
1.304
0.2575
-0.003008
0.03153
0.08692
0.09398
0.05871
0.5571
1.267
-0.5375
0.0003617
-0.01136
0.2023
0.01644
-0.004878
0.0679
-0.003779
0.6926
-0.004446
0.04362
-0.001197
0.3459
0.8376
0.1621
0.1221
-0.03156
1.14
0.6999
0.06826
1.407
0.6418
0.1123
0.09106
0.6498
0.06477
0.05933
-0.0003841
0.152
0.0395
0.09277
-0.000229
0.04617
0.1542
0.0798
0.06423
0.07759
0.006988
0.1191
0.8333
0.183
0.1481
0.01478
0.08343
0.7885
0.6827
0.08609
0.03231
0.07964
-0.008416
0.02019
0.0002359
0.2928
0.2707
0.8389
0.1101
0.001342
0.0001651
0.4115
0.001022
0.04316
0.0001722
0.0004834
-0.04635
0.8778
0.07642
0.9277
0.04136
0.04801
0.7295
0.07587
0.02885
0.3671
0.04936
0.1942
0.0002894
0.3784
0.09687
0.1555
0.2217
-0.01139
0.115
-0.0367
0.0001842
1.608
0.07177
0.0001307
0.03075
0.03877
0.0006958
0.8713
0.1338
0.1263
-0.0205
0.04165
-0.4636
0.0273
0.3591
0.07675
0.0005639
1.588
0.5064
0.04489
0.03613
0.0004664
0.2101
-0.5169
0.3027
0.5418
0.01472
0.0439
0.1518
0.02091
0.06235
0.03763
0.058
0.1987
0.3444
1.746
0.0872
0.1444
0.08493
0.04194
0.0001044
-0.002834
0.01422
0.1145
0.1494
1.397
0.03833
0.03435
0.06413
-0.01696
0.1038
0.001954
0.09041
0.1092
0.2165
0.03613
0.03507
-0.07209
1.91
-0.01857
0.1109
0.1595
0.0009568
0.0002224
0.0908
-0.01889
-0.0007346
0.08542
0.09402
0.007392
0.0923
-0.003486
-0.04444
0.04714
0.003969
0.3005
0.03753
0.04947
-0.3461
0.1518
0.02409
-0.0002634
0.532
0.01663
-0.5719
0.185
-4.493e-05
5.935e-05
0.04795
1.307
0.1477
0.07904
0.008677
0.03794
0.249
0.1077
0.02636
0.3774
0.0001059
0.0775
0.3879
0.1825
0.4154
1.141
0.1348
9.636e-05
0.0001809
0.7077
0.7414
0.001956
-0.003401
0.7331
-0.002161
0.3148
-0.2109
0.1456
0.2953
0.1267
1.099
-0.4663
0.000404
0.075
0.12
0.09842
0.5716
0.06343
0.6054
0.2138
0.3766
1.188
0.6696
0.1888
0.1154
0.09975
-0.03695
0.00703
0.08302
0.09997
0.2822
0.6418
0.08641
0.001107
0.1836
0.01229
1.619
0.1071
0.0002383
0.1065
0.8242
0.04663
0.2562
-0.09248
0.6309
0.06217
0.008878
-0.5371
0.03859
0.02766
0.1972
0.7967
0.7252
0.8419
0.03658
0.567
-0.3478
1.29
0.0001661
0.01992
0.007365
-0.4268
-0.02846
0.344
0.06265
1.262
-0.006302
8.495e-05
0.03542
0.1036
-0.07668
0.004551
0.01315
0.2406
-0.02234
0.06001
1.641
0.1129
0.6283
0.07645
0.02595
0.4138
0.0779
0.6871
0.006451
0.1104
0.07002
-0.4909
-0.3419
0.011
0.3587
0.4048
-0.01862
0.3425
-0.514
0.431
0.05632
-1.825e-06
4.532e-05
0.02635
0.3952
0.01033
0.2067
0.03101
-0.02039
-0.772
0.3091
-0.001998
0.02376
0.175
0.173
0.0006537
0.1294
0.0002744
0.0002683
0.0002619
0.0001869
0.03995
0.1881
0.6773
0.08887
4.532e-05
0.06789
0.08217
-0.07025
0.06936
1.144
0.285
0.04997
0.9902
0.8331
-0.002762
0.2225
0.0411
0.1676
0.6103
-0.003417
-0.000479
0.001892
0.7367
0.6776
0.01395
-0.02028
0.01579
0.1202
1.394
0.08192
0.07243
0.08969
0.02099
0.6069
-0.008108
0.01033
0.0005203
1.284
0.1764
0.01416
0.04873
0.1212
0.0006273
0.2352
0.248
0.01291
0.0004942
0.1276
-0.05376
-0.4352
-0.2368
0.3154
0.06435
-0.001163
0.1553
-0.003837
0.07049
-0.3396
0.2342
0.06408
-0.06788
-0.005822
0.2355
0.6386
0.01297
0.01438
0.08605
0.003703
0.1347
0.7762
1.616
0.02959
0.07738
0.7419
0.0812
0.07687
0.7083
0.01339
0.2141
0.006364
-0.08582
1.008
0.0003008
1.454
4.031e-05
1.115
0.02898
0.2395
1.483
0.4204
0.07802
0.003444
0.07048
0.07002
0.1067
0.2598
0.1922
-0.01178
0.05953
0.3562
0.1274
0.01869
0.1144
4.531e-05
0.03376
0.06381
0.1334
0.0001547
-0.09345
0.1534
0.0001114
0.2895
0.1288
0.02849
0.2354
0.03179
0.3741
0.1248
0.2483
0.5287
0.0001294
0.1092
0.005894
0.1146
1.58
0.03537
0.5698
0.001078
0.197
0.426
0.008467
0.9581
0.4849
0.0002784
0.004693
-0.05558
0.02741
0.002934
0.1351
0.1824
0.052
0.000433
-0.07592
0.2192
0.6589
0.1088
-0.005056
0.5479
-0.01268
0.07573
0.06317
-0.5473
0.3994
0.001601
0.002374
0.1425
0.01523
-0.4194
-0.001377
0.03603
-0.01927
0.1166
0.2344
0.08009
0.1191
1.034
0.001895
0.0003253
-0.03535
-0.08973
0.7917
0.01971
0.07178
0.7655
0.06593
-0.003826
0.04758
0.0006477
1.269
0.04766
0.0001431
0.0405
0.1041
0.04297
0.2455
0.3749
0.003844
0.04856
0.2284
-0.5313
-0.009003
0.1367
0.7466
0.01164
0.08411
-0.1235
0.0002877
0.8723
0.1239
0.5562
0.232
-0.008128
0.1126
0.04003
0.0002657
-0.4539
0.01411
-0.03758
0.02784
0.009996
0.0653
0.2786
-0.1658
-0.2897
0.06589
0.002653
-0.003735
0.5778
0.7569
0.2813
0.1408
0.2503
-0.005758
0.01425
0.6222
0.08196
0.1214
0.5045
-0.01877
0.01547
-5.789e-05
0.07891
0.7076
0.07909
0.008961
0.1988
0.05295
0.2087
1.535e-06
0.003904
-0.004146
0.5269
0.02715
0.4387
0.0002057
0.5284
0.02959
0.2312
0.0003468
0.001589
1.629
0.04356
0.0462
-0.004501
-0.1087
0.0001679
0.01427
0.04282
-0.4942
-0.004026
0.007827
0.1984
0.05781
0.3624
1.199
0.0005242
0.3743
0.0002186
0.3238
0.01248
0.1822
0.001482
0.1434
-0.01042
0.0005119
0.09046
0.0463
0.7897
-0.00398
-0.3533
0.2555
0.07497
-0.0006904
-0.01344
0.0253
0.06108
0.1192
0.2277
0.26
0.03206
0.1858
0.175
0.4568
-0.07525
0.5124
0.04489
0.3715
0.0002762
0.2156
-0.0002362
1.902
0.000225
-0.3935
-0.003707
0.00214
0.8044
0.004998
0.3073
0.05953
0.5643
0.09272
0.0463
-0.006958
0.04843
0.5404
0.04876
0.07376
0.9282
0.02213
-0.1175
0.6156
0.04914
0.008573
0.03463
0.0007819
0.04579
-0.07052
0.1222
0.1736
0.712
0.7167
0.2623
0.04585
0.1865
0.002094
0.001257
0.1847
-0.005437
-0.002708
0.07681
0.04047
0.1481
0.8216
0.3932
0.1577
0.1584
0.2262
0.02667
0.04057
0.04197
0.01286
0.03337
-0.005388
0.1577
-0.0003313
0.1752
-0.009844
0.0002452
0.006447
0.001127
1.278
0.1911
0.003891
-0.005307
0.1946
0.3205
0.1442
0.0642
0.09521
0.03512
-0.3637
0.01299
0.3448
0.2554
0.1045
0.000454
1.327
-0.07543
-0.009108
-0.01042
0.1474
0.6702
0.09223
-0.02198
0.06307
0.1665
0.0002212
0.7437
0.02138
0.008171
0.04076
0.08653
0.3757
0.1512
0.1144
0.06398
0.0003844
0.1806
0.01163
0.06074
0.08829
-0.4434
1.289
1.618
0.04636
0.02152
0.4153
0.0183
-0.1903
0.2469
0.05329
0.17
-0.02354
0.4971
0.03432
1.887
0.04137
0.0374
0.0002528
0.02866
0.143
0.195
0.03141
0.0929
0.1039
0.09563
0.03065
0.1176
0.2259
-0.3907
0.02295
-0.02993
-0.003755
0.04829
0.5149
0.2822
0.1949
0.04894
1.875
0.04239
0.005511
-0.003771
0.005756
0.1765
0.2188
0.07092
-0.0007667
0.01628
0.03934
0.1185
0.3212
-0.0006084
0.3087
0.2253
0.6842
0.05655
0.04788
0.3695
0.5001
0.1232
0.01012
0.2855
-0.5333
-0.004309
0.006752
0.3577
1.509
0.09526
1.294
0.3419
0.03432
0.08346
0.2963
0.0002941
0.04055
0.03832
0.2176
0.3738
0.1908
-0.06763
1.711
0.0001075
1.261e-05
0.001373
0.03852
-0.3545
1.144
-6.308e-05
0.1848
0.1139
0.075
-0.3882
0.9446
0.03788
0.2061
0.02463
0.6122
0.01343
0.2657
-0.004117
0.1027
0.07186
-0.09461
0.586
0.007578
0.07673
0.01758
0.08708
0.002775
0.03131
0.1981
0.7722
6.445e-05
0.2498
-0.01234
5.613e-05
0.01854
-0.3986
0.01075
0.09813
0.02711
0.1675
-0.02507
-0.01625
0.9659
-0.002566
0.2858
0.1523
-0.1972
0.07722
-0.004784
1.894
0.008097
0.08692
0.0001514
0.09776
0.07558
0.0142
0.01267
-0.01978
0.000328
-0.005796
1.459
0.03645
0.04298
0.007121
0.2073
0.076
-0.0004606
0.09339
0.07194
-0.004246
0.2371
1.149
0.06222
0.04529
0.09525
0.0801
0.3516
0.06063
0.1401
0.0003615
0.0001298
0.3127
-0.1064
-0.01312
0.04805
1.372
0.5829
0.5074
0.7452
0.0002246
0.09642
-0.02898
0.223
0.05957
-0.08164
0.4958
0.002483
0.4518
0.1361
0.1302
0.08306
0.09806
-0.00156
0.3832
-0.5483
0.0006637
-0.006064
0.02549
0.004905
-0.3089
-2.143e-05
0.0001335
0.371
0.0003417
0.1234
0.004448
0.01421
0.05339
0.7353
0.0226
0.002467
0.009597
0.002189
-0.4348
-0.003958
0.005729
0.1148
0.1192
-0.006209
-0.003864
-0.006108
0.01123
0.143
0.1318
0.04304
0.0001038
0.1418
0.003328
0.1488
0.08802
0.139
0.01332
0.1848
0.233
0.4159
0.01282
0.01706
0.1572
0.0006331
-0.01632
0.0005505
1.15
0.1393
0.0005366
-0.4969
0.01583
0.04464
0.2741
0.04006
1.482
0.03806
0.9948
-0.199
0.03572
-0.0004193
1.064
0.02267
0.01139
1.161
1.211
0.01696
0.0144
0.03296
0.01723
0.1798
0.0001514
0.2098
-0.5508
-0.04994
0.8928
0.1079
0.07127
0.01471
0.0008378
0.4789
-0.01486
0.03604
0.06244
0.03399
0.1909
0.7225
0.002002
0.0005989
0.3181
0.4053
0.09065
0.03253
1.612e-05
0.07148
-0.01069
0.08306
0.0003036
0.07693
0.7451
1.093
0.09461
0.6468
0.004936
0.01361
0.7117
-0.00136
0.6266
0.6929
-0.0008551
0.0003637
0.07124
0.01459
0.1303
0.3627
0.1825
0.004714
0.03108
0.06369
1.28
0.03471
0.06252
-0.007034
0.0004248
0.03579
0.3055
-0.3246
0.0002832
0.1244
0.09329
0.1409
0.2065
0.01627
-0.01186
0.2144
1.529
0.2392
0.1547
0.02097
-0.01239
0.05842
-0.3711
-0.0009251
0.03209
0.002423
0.03279
0.423
0.1311
0.08192
0.001272
0.04613
0.03868
-0.007306
0.5381
0.08739
0.9153
0.7261
0.001155
-0.004439
0.07004
0.208
0.128
0.09202
0.284
0.003614
0.0002904
0.1838
-0.01595
-0.4431
0.008714
0.06433
0.2165
0.5047
0.01917
0.1039
0.1679
0.007294
0.7931
0.02809
0.6605
0.2369
0.03397
-0.474
0.07967
0.3076
0.7236
0.01408
1.244
0.0003737
0.7222
0.03861
0.1784
0.02249
0.0001367
0.2907
-0.3139
0.00855
0.06679
0.1369
0.2884
0.0005474
1.634
0.07123
1.123
0.07148
0.08932
0.1858
-0.5467
-0.5212
0.151
0.1723
-2.938e-05
0.09458
0.1979
0.1136
0.02777
-0.3332
0.009112
0.512
0.1673
0.6782
0.07648
0.08278
0.03647
0.1089
0.445
1.643
0.3137
0.00262
0.8486
0.0381
0.01387
-0.009599
0.1675
-0.07041
0.0008499
0.01122
1.133
-0.003636
0.0004546
0.08567
0.0002521
0.0003272
9.666e-05
-0.3827
0.0462
0.2204
0.0004819
0.1236
-0.008025
0.1172
0.09727
0.0568
-0.0275
0.03305
0.065
8.493e-05
0.09119
0.066
0.06242
0.000519
0.08148
0.0002062
1.127e-05
-0.0596
-0.5707
0.1524
0.04067
0.1137
0.04749
-0.04333
0.04321
-0.01708
0.04502
0.04009
0.03203
0.0003438
0.1192
0.101
0.1794
0.0482
0.01822
-0.004344
0.4082
0.5016
0.0001519
0.05621
0.1228
0.6449
0.09071
0.1156
0.5286
0.001546
0.1454
0.02564
0.458
0.1258
0.2978
0.0006689
1.382
-0.001178
-0.02637
0.3603
0.3985
0.003104
0.3175
-0.03036
0.15
0.3134
0.1635
0.0324
-0.3584
0.1136
0.08604
0.2144
0.001371
0.03763
1.089
0.01402
0.2383
0.3525
0.239
0.2568
0.08646
1.168
0.3408
1.194e-05
0.0001575
0.0184
-0.008347
0.01688
0.3121
0.2963
-0.02858
1.94
0.0001701
0.0582
0.08415
0.06473
0.1068
0.03
-0.2059
0.07144
0.01302
0.2716
0.1307
0.7423
0.06072
0.2875
0.0008798
-0.3265
-0.034
-0.02785
0.07987
0.05535
0.06239
0.07267
0.5941
0.1215
0.719
-0.4782
0.07071
0.3689
0.4502
0.01548
0.6591
0.1084
0.463
0.3156
0.001598
0.08827
0.08176
0.2306
0.5617
-0.1414
0.0006132
0.005259
-0.01651
0.06299
0.2138
0.1008
0.03226
0.05171
0.0656
0.04657
0.02709
0.5581
0.3176
0.361
-0.003762
0.3067
0.05347
0.2485
0.03676
0.03259
0.003327
-0.343
-1.544e-05
0.05797
0.06411
0.1157
0.7439
0.2563
0.0001229
0.07606
-0.008164
0.7766
0.072
0.2695
0.6963
0.05383
0.0003339
0.006186
-0.002287
-0.6653
0.6781
0.01221
0.0006099
0.003579
0.1596
0.9831
0.1698
0.1596
0.06446
0.04441
0.131
0.07873
-0.4056
0.1112
0.5012
-0.0007096
0.006202
1.903
0.04102
0.03366
0.0001224
-0.591
-0.5676
0.008466
-0.4629
-0.004027
1.828
0.0959
-0.04186
0.168
0.09328
0.6949
-0.01418
-0.001089
0.1323
3.617e-05
0.0001317
0.141
0.1566
0.0734
-0.1519
0.2459
0.01286
-0.041
0.1309
1.218
0.1549
0.03236
0.0001721
0.04382
0.03446
0.09898
0.5926
0.1125
0.03891
0.003546
0.1444
0.03362
-0.06622
0.3616
0.6983
0.1575
0.1634
1.12
0.05304
0.09723
0.07642
0.2584
0.001366
0.0003665
-0.0007359
0.04317
0.184
0.6515
-0.3619
-5.204e-05
0.135
0.1601
-0.5175
0.0466
-0.1148
0.2408
0.4994
0.8175
0.1265
-0.05014
0.05469
0.02361
0.01396
0.2289
0.04004
1.04
0.3455
-0.01508
0.06625
0.6969
0.09046
0.307
0.01055
0.03816
-0.002446
0.0008873
0.02271
0.3888
7.925e-05
0.0585
0.112
0.3409
0.1616
0.02277
0.7655
0.01909
0.1043
0.1239
0.0005022
0.7729
0.08893
0.4121
-0.01907
0.04423
0.02286
-0.03479
0.000399
-0.2884
0.01957
0.3743
0.1735
-0.0002648
0.02935
-0.3436
0.09453
0.1799
0.11
-0.002847
-0.001436
0.162
0.01982
0.06251
0.2503
0.0971
0.04311
0.6146
0.008037
0.1995
-0.007411
1.713
0.0564
0.04515
-9.411e-06
0.03545
0.3363
0.2179
-0.4367
0.1093
0.02242
0.06091
0.5931
0.2196
0.07933
0.0001833
0.01179
0.2212
0.5988
0.6543
0.1215
-0.3901
0.06663
0.5702
0.1167
1.349
0.09726
0.05512
-0.01385
-0.01262
0.06692
0.00147
0.0002853
-0.3982
0.178
0.03513
-0.02017
0.3406
-0.009136
0.1256
0.09011
-0.06514
0.0005616
0.1924
0.1298
0.009482
-0.00839
0.1748
0.2556
0.09765
-0.01006
0.1854
-0.02865
0.08109
0.2738
0.09095
0.6117
0.0579
0.02349
0.06765
0.1888
0.1906
0.008698
0.4421
0.05097
0.07584
0.01904
0.02157
-0.01505
0.6081
0.07762
0.7308
0.5289
0.3223
0.1305
-0.01181
0.3485
1.893
0.4457
0.7275
0.08889
0.1654
0.04187
0.04626
0.7721
0.08459
0.5921
0.4558
0.08244
-0.07582
0.2579
0.05404
-0.01645
0.2473
0.1008
0.0003427
1.087
0.4609
-0.01277
-0.4678
0.07115
0.01321
0.01065
0.01304
0.1738
0.007905
0.001663
0.6507
0.07993
0.07589
0.1256
-0.00472
0.07638
0.1144
0.1072
0.1197
-0.105
0.009407
-0.007818
0.08026
0.2707
0.02267
-0.0167
-0.04816
-0.07933
1.629
0.0643
0.06272
0.8831
0.04975
0.1487
0.3474
-0.02761
-0.07969
0.005738
9.919e-05
0.002277
0.09295
0.1078
0.03189
0.1118
1.694
0.006966
-0.004983
1.057
0.1084
0.01386
0.3797
9.012e-05
0.4824
0.491
0.5072
0.009397
0.4765
0.5062
1.277
0.4571
-0.2774
0.04837
0.4979
0.1147
0.09145
0.7358
0.3903
0.007225
0.1214
0.1319
0.04656
0.6265
0.0008703
0.0004371
0.09418
0.7208
-0.006419
-0.5461
0.6009
0.0294
0.1565
0.000233
0.2304
0.0346
0.005233
0.09266
-0.00523
0.4194
-0.02017
0.3862
0.2904
7.182e-05
0.5369
0.1208
0.08107
0.2217
0.08828
0.1568
0.8328
0.02206
0.6499
0.2
-0.02652
0.8752
0.02561
0.05394
-0.01372
0.0047
0.005239
0.01493
0.1085
0.5024
0.03151
-0.0006307
0.5486
-0.006316
0.7373
0.00574
0.2412
0.03646
0.02215
0.02883
-0.08816
0.0003195
-0.529
0.01995
0.204
0.3546
0.09398
0.2368
-0.2649
-0.1028
1.521
0.002916
0.04044
0.05132
0.237
0.6433
0.2079
0.07049
-0.07831
0.08926
-0.05048
0.04012
0.05076
0.1542
0.1093
0.6224
0.2245
-0.00168
-0.004605
0.06837
0.3499
0.2582
0.3302
0.6078
0.9985
0.2738
1.153
-0.04268
0.2601
0.04127
-0.3476
0.2537
0.05998
0.05949
0.1169
0.09565
0.4352
0.03479
0.08721
0.1466
1.188
0.04181
0.1116
0.6589
0.3428
0.001281
-0.1298
0.1011
0.5784
0.532
0.05755
0.8288
-0.01972
0.08972
1.153
-0.001214
0.0002821
0.0002602
0.02274
0.1469
0.06214
-0.1104
0.009661
-0.03736
0.04075
0.3716
-0.003036
0.1506
-0.005091
0.0003796
-0.3253
0.2615
0.1298
-0.3612
-0.01584
0.04775
-0.5447
0.01293
0.07727
0.7758
0.3253
0.7398
0.04555
0.1092
0.1784
0.09096
1.319
0.05419
-0.07187
0.1078
0.009793
7.464e-05
0.0904
0.08531
0.1118
0.67
0.01005
0.0003134
0.0002674
-0.05806
0.7204
0.0005496
0.0004738
-8.189e-06
-0.005179
0.1513
0.0004267
0.4505
0.08967
0.1277
0.1812
0.06803
0.1799
-0.003175
0.03165
0.08867
1.375
0.1659
1.267
1.308
0.04858
0.0001223
0.01445
-0.09488
1.356
-1.405e-05
0.02632
-0.05744
0.1133
0.06111
-0.09539
0.6549
0.1095
0.1254
0.08822
-0.3457
-0.6258
0.05933
-0.02712
1.137
-0.002213
0.2188
0.2527
0.05558
-0.006865
-0.02759
0.7536
0.9188
1.295
1.598
0.162
0.01186
0.01584
0.01472
-4.237e-05
0.001313
0.262
0.3855
0.3018
0.6834
0.1477
0.2006
0.7842
0.2041
0.1682
0.05507
0.1789
0.1202
0.02976
0.02437
0.0129
0.1966
0.6541
0.01531
0.6393
1.289
0.3301
0.2456
0.6609
0.05167
0.09063
0.008651
0.04135
0.5366
0.0001491
0.01768
0.01286
0.2667
0.05381
-0.03631
0.04313
0.0001678
0.001534
0.08786
-0.03417
0.4364
0.03093
0.03657
0.01648
1.369
0.01692
0.7477
0.00838
0.003086
0.2102
0.2058
0.1095
0.04763
0.1061
0.3412
0.1825
0.3664
0.1152
0.04543
0.9512
0.002612
0.5951
0.1368
0.0003192
0.7987
0.3146
0.3465
0.3059
-0.01968
0.2641
0.04453
-0.6217
-0.01213
0.06447
0.1436
0.003141
1.172
0.06468
0.08377
0.1118
0.4667
0.06745
0.05224
0.009956
0.1248
-0.01179
-0.002903
0.002159
0.1851
-0.01651
0.03181
-0.004226
0.2833
0.02753
-0.04478
-0.004812
-0.1067
0.004872
0.07593
0.4099
-0.00532
-0.006542
0.03628
0.5733
0.08528
0.8017
0.846
0.1195
0.1741
0.0003514
1.579
-0.0004889
0.6115
0.07956
0.0001688
0.3774
0.2491
0.04841
0.1521
0.642
0.2549
0.1102
0.1019
0.9117
0.06804
-0.006118
0.0001617
1.208
0.5455
0.0001479
0.1751
0.2484
0.04613
-0.3231
0.03368
0.2098
0.05942
0.006417
0.04559
-0.009677
0.09623
-0.0654
0.1291
0.313
0.05188
0.1887
0.7575
0.1242
0.2821
0.03205
0.2605
0.5145
0.2544
0.176
0.5486
0.0003911
0.08418
0.01275
0.04031
0.1149
0.06154
0.0006219
0.03548
0.0001963
-0.5709
1.462
0.04335
1.777
0.1746
0.09367
-0.5213
0.7105
0.07877
0.01096
-0.0001727
7.202e-05
0.05074
0.03504
0.4113
0.9693
0.001471
1.601
0.08076
0.2044
-0.5871
0.07628
0.655
4.569e-05
0.01026
0.7271
0.1765
0.4152
0.6261
0.08938
-0.003814
0.203
0.1282
0.09434
0.003519
-0.03356
9.139e-06
0.001684
-0.01236
-0.09831
0.04331
-0.006954
0.00581
0.01372
0.002155
0.05939
0.04253
0.02916
0.02815
0.0369
-0.7074
0.0002212
0.1959
0.0002237
0.01942
-0.07099
-0.01244
-0.246
0.004373
0.1935
0.1441
0.9428
0.0953
0.7977
0.0324
0.2217
0.1518
-0.5875
0.07951
0.001564
0.2088
0.8729
0.2346
0.4546
-0.5487
0.2107
0.0003552
0.002006
0.07405
0.6945
0.6622
0.003894
-0.1269
0.7505
-0.1518
0.4102
-0.5163
0.06918
0.0002865
0.6826
-0.01553
-0.3987
0.4019
1.511
-0.001607
0.6659
0.1641
0.0004169
0.2361
-0.05034
0.00187
1.685
0.996
-0.0146
0.1108
-0.003443
0.05195
0.04527
0.4599
0.1607
0.0501
0.02143
0.03964
0.01266
-0.06507
0.003915
0.1798
0.003403
0.1359
1.834
-0.002675
0.0005238
0.2317
0.002336
0.0001726
0.0001437
0.09922
0.06493
0.2891
0.08306
0.1801
-0.002749
0.1574
0.0755
0.1418
-0.001408
0.04196
-0.004923
0.04189
0.4898
-0.000526
0.000201
0.0002081
0.04463
0.07489
0.966
-0.002647
0.2483
1.057
0.3812
-0.08913
0.008874
0.1331
0.7245
0.3896
0.04981
0.2429
0.2411
0.3898
-0.008037
0.08151
0.0007508
0.4143
-0.0006664
0.05843
-0.08961
0.1628
1.263
0.000111
0.7576
0.002837
-0.01144
0.4658
0.01238
0.3382
0.2573
0.1336
-0.06843
0.759
-0.3419
0.003987
0.01948
-0.01751
0.04672
0.05178
0.07962
-0.000772
0.1336
0.1381
0.04072
0.08379
0.7523
0.0002643
0.0141
0.7988
0.08716
0.1705
-0.2944
1.796
0.2548
0.05037
1.789
0.3261
0.4291
0.0001869
0.1815
0.01587
0.07525
0.08704
0.291
-0.02362
0.4344
0.3415
0.6154
0.1096
0.06472
0.2079
0.04664
0.2773
-0.03003
-0.03868
0.04938
0.0447
0.04887
-0.0006868
0.007514
0.09032
0.1618
-0.006514
1.068
0.0521
0.6008
-0.0007552
0.1642
0.1903
0.1446
0.0292
-0.09797
0.1973
1.936
0.1655
0.02101
0.002482
-0.003314
0.1907
0.06899
0.5681
-0.003157
-0.04436
0.6745
0.7265
-0.04404
0.2469
0.04941
0.5387
0.121
0.214
0.03124
0.1282
0.5293
0.0002158
0.0002352
0.02021
-0.5345
0.3549
0.5999
-0.05865
0.05639
0.1062
0.0747
0.4867
-0.1251
0.1723
0.01256
0.1279
-0.08754
0.03626
0.4681
0.1603
-0.005073
0.006347
-0.00638
0.04892
0.1237
0.2073
0.06389
0.7689
0.11
-0.292
0.004704
-0.015
0.01158
0.103
-0.4379
-0.0009845
0.2467
0.0005259
0.6751
-0.003193
0.08851
-0.364
0.4229
-8.907e-07
0.2925
0.195
0.371
-0.0005363
0.224
0.4743
0.4251
0.3154
-0.007994
0.1929
-0.006091
0.03153
0.007962
0.001181
0.003434
0.124
0.009045
0.01107
0.03787
0.01451
0.0995
0.6722
-0.0009617
-0.0003029
0.3293
0.5257
0.1575
0.8957
0.6034
0.6428
0.001373
0.08249
0.0003493
0.08039
0.628
0.1289
-0.007737
0.01737
0.0196
1.509
-0.004312
0.01027
1.097
0.743
0.7607
0.2448
0.08855
-0.09193
0.02867
0.1922
0.01421
-0.5449
0.1888
-0.0203
-0.05111
0.02552
-0.02315
0.03386
1.449
-0.0003099
0.6174
0.029
0.6408
0.25
0.1959
0.2556
0.2256
0.0007528
-0.03693
0.05034
0.04445
0.00228
0.01891
0.6805
0.9957
0.1598
0.06951
0.0003544
-0.01703
0.109
0.05508
0.0002557
0.0001936
0.09684
0.0004233
0.03127
0.1488
0.3795
0.05313
0.1157
0.07673
0.6572
-0.001965
0.2024
0.1853
0.1124
0.1188
-0.07799
-0.2379
0.07851
-0.4795
0.03672
0.0296
-0.001429
-0.0005682
0.01679
0.007098
-0.4922
0.09036
-0.0003555
0.03154
0.01011
0.2059
0.2136
0.9939
0.2447
0.06718
0.1126
0.6798
0.03462
-0.004414
-0.003406
0.01509
0.01308
0.3005
0.2004
0.0008234
2.245e-05
0.0001224
0.1454
0.06735
0.1643
-0.04569
-0.02679
0.1473
0.2783
0.2153
0.1405
0.08571
-0.006849
0.493
0.5533
1.226
0.02968
0.1342
-0.3995
0.005497
0.02718
0.02249
0.04458
0.4916
-0.01027
0.05243
-0.005516
0.03071
0.1544
0.05645
0.08081
0.3164
0.7259
1.465
0.4523
1.264
0.07952
0.1408
0.1781
0.04307
-0.002348
0.04394
0.09859
0.05125
0.03262
0.1493
0.05184
0.001615
0.259
0.745
0.7539
-0.01119
0.03052
0.5302
-0.2704
0.04921
-0.03017
0.4219
0.0747
-0.1296
1.335
0.1461
-0.004826
1.632
0.1181
0.0006601
0.0006101
-0.01807
-0.2928
0.1152
0.1783
0.03587
0.03846
0.01277
0.001318
1.574
0.3795
-0.04198
-0.06089
0.05802
0.2798
0.008003
0.2778
-0.4836
0.3465
0.0007589
0.7225
0.03145
0.006451
0.01407
0.03983
0.0578
0.0008339
-0.006778
0.3355
0.9777
0.002452
0.2201
0.607
0.4223
0.04787
0.101
0.139
0.1605
0.01445
0.01037
0.6471
-0.002108
0.06812
0.00121
5.088e-05
0.0001646
0.02527
0.05307
0.01642
-0.3912
0.01438
0.06408
0.04292
0.1318
-0.2203
0.1344
0.7097
0.1984
0.4029
0.06843
0.07431
0.009714
0.001839
-0.03367
0.119
0.0002825
0.000271
0.1473
0.0578
0.0001838
0.09979
0.446
0.09371
0.06266
0.6268
0.0151
1.059
0.03941
0.1105
0.1048
0.4184
0.1063
0.1039
0.2968
-0.004652
0.03371
0.004208
0.1429
0.08128
0.02718
0.2753
0.3467
1.239
0.6799
0.07078
0.04465
0.2546
0.005703
0.1694
0.04086
0.7381
0.02865
0.06592
-0.03407
-0.07301
0.006569
0.5263
-0.003362
0.4505
0.02254
0.4395
0.0001055
0.04038
0.08872
0.6714
0.3917
0.01931
-0.001097
-0.5151
-0.1092
-0.5859
0.14
0.2532
0.3962
0.196
-0.08227
0.003822
0.159
-0.4138
0.07018
0.137
0.04212
-0.5347
-0.001553
0.01053
0.4114
0.3284
0.1273
0.1076
0.04015
-0.02948
0.00136
0.823
-0.0005043
-0.0004967
0.11
0.1338
-0.1719
0.1853
0.1384
0.1715
0.2308
0.174
-0.01266
-0.00891
0.2548
0.3883
0.1436
0.1241
0.1189
0.6162
0.0003296
0.8401
0.04587
0.00174
0.3005
0.2047
0.05494
-0.4762
0.1045
0.07409
0.05428
-0.001204
1.646
0.3597
0.003081
0.1455
0.1544
0.1187
0.253
0.09978
0.04868
0.02475
0.4119
0.1464
3.502e-05
0.2881
0.04642
0.005102
-0.02529
-0.07831
0.9469
0.9653
0.1076
-0.007351
-0.3766
0.07934
0.1779
0.06255
0.2114
-0.01561
-0.6192
0.01085
0.0611
0.139
-0.4285
7.476e-05
0.007147
-0.01766
0.3548
-0.04563
0.3285
0.9276
0.1606
0.2113
0.05257
0.5665
0.2392
4.102e-06
0.01446
0.0293
0.1364
0.07266
0.08929
0.03755
0.0009491
0.0944
0.1281
0.05954
-0.3388
-0.002301
0.06828
0.5006
0.1348
0.37
0.8355
0.1487
-0.0001024
0.03574
1.171
0.03601
0.15
1.503
-0.5137
0.08639
0.05998
-0.05804
0.2724
-0.5201
0.007749
-0.01032
0.04011
0.03258
1.908
-0.09146
0.3981
0.01171
0.6472
0.008421
0.5479
-0.003529
0.1389
0.0824
0.2621
0.03865
0.1906
0.366
0.4662
1.384
-6.234e-05
-0.02124
1.832
0.08208
-0.01117
3.19e-05
-1.359e-05
-0.3133
-0.03257
1.028
-0.002036
0.2839
0.03912
0.3247
0.04664
0.06227
-0.01388
-0.01271
0.08212
0.04173
0.3794
0.02485
-0.002913
0.001093
0.236
0.1237
-0.005847
0.3359
0.03168
-0.06022
0.2303
0.01388
0.8307
0.02339
0.08164
0.1633
0.09647
-0.0001551
1.315
0.277
0.07643
0.03517
1.457
0.0007104
0.06983
0.6897
0.1406
-0.002746
0.7352
0.04455
0.06123
0.04045
0.2498
0.03356
0.4769
0.02556
0.3034
0.016
0.07648
0.0001041
-0.006195
0.1012
0.1543
0.3452
0.02891
0.01511
0.1442
0.08646
-0.5083
0.1037
-0.01765
0.1653
0.3706
0.0001158
0.0706
0.474
1.006
-0.01237
0.02395
0.03674
0.000185
-0.1385
1.116
0.07607
0.0004733
-0.001677
0.02502
0.06118
0.0429
-0.002561
-0.01773
-0.2862
-0.01308
1.449
0.3056
-0.01067
0.6358
0.3631
0.3161
0.3785
0.01749
0.2538
0.3767
0.1579
-0.1083
0.5069
-0.07373
-0.000903
0.1931
0.001436
-0.01623
-0.4206
0.6795
0.8903
0.001804
-0.01118
0.0004791
0.107
0.01354
0.05052
0.09673
0.0588
0.7348
0.002669
-0.4605
-0.01227
0.1
0.06057
0.005228
0.05288
-0.02104
-0.006142
0.06608
1.774
0.6811
-0.2993
0.5427
0.4856
0.06529
0.04077
0.1276
0.02662
0.1122
0.1988
0.0001713
0.06592
0.8338
-0.007231
0.0339
-0.01164
0.1185
0.1221
0.05868
0.03734
0.5681
0.3173
0.03273
0.1416
0.1423
0.0008587
0.006814
0.04681
0.8167
1.628
0.9426
0.05832
0.1449
0.07436
0.6538
0.07525
0.04561
0.1521
0.0007609
-0.07177
0.09594
1.245
0.1605
0.03333
0.001534
0.003408
0.9838
0.02797
-0.02986
0.00242
0.2127
-0.4364
0.1037
0.08232
0.01461
0.04806
0.658
0.8849
0.06579
1.772
0.004293
0.1021
0.07654
0.07889
0.09153