/*--------------------------------*- C++ -*----------------------------------*\
  =========                 |
  \\      /  F ield         | OpenFOAM: The Open Source CFD Toolbox
   \\    /   O peration     | Website:  https://openfoam.org
    \\  /    A nd           | Version:  8
     \\/     M anipulation  |
\*---------------------------------------------------------------------------*/
FoamFile
{
    version     2.0;
    format      ascii;
    class       volVectorField;
    location    "15";
    object      U;
}
// * * * * * * * * * * * * * * * * * * * * * * * * * * * * * * * * * * * * * //

dimensions      [0 1 -1 0 0 0 0];

internalField   nonuniform List<vector> 
63579
(
(0.6781 0.2272 0)
(0.6806 0.4106 6.188e-22)
(0.6956 0.3181 0)
(0.6084 0.2763 1.799e-21)
(0.3762 0.546 0)
(0.6236 0.3851 8.481e-23)
(0.3175 -0.3259 0)
(1.03 -0.162 6.613e-22)
(1.118 -0.1031 8.384e-23)
(1.093 -0.176 0)
(0.9192 -0.424 0)
(0.8021 -0.05411 5.451e-21)
(1.069 -0.1775 9.459e-22)
(1.245 0.3167 8.094e-22)
(0.8949 -0.08373 6.137e-23)
(1.26 0.3236 7.921e-22)
(1.122 -0.1036 3.924e-23)
(1.12 0.2893 0)
(1.098 0.2771 5.464e-22)
(0.9306 -0.426 0)
(1.145 -0.1966 -2.322e-23)
(0.9504 -0.03545 2.879e-21)
(0.9998 -0.002553 -5.93e-21)
(1.117 -0.2831 -2.047e-21)
(0.9992 -0.002744 5.662e-21)
(1.111 -0.1026 -1.365e-22)
(1.001 -0.01853 4.169e-22)
(0.6763 -0.181 -6.732e-22)
(1.002 0.001074 0)
(1.014 -0.2758 -5.49e-22)
(0.9984 0.0006418 3.138e-21)
(1.002 -0.01782 0)
(1.008 0.006021 8.86e-21)
(1.023 0.0425 0)
(1.118 -0.283 1.021e-21)
(1.001 0.001469 -4.291e-21)
(0.9333 -0.4185 -2.537e-21)
(1.128 -0.1123 -1.244e-22)
(1.01 -0.2732 0)
(1.219 0.6127 0)
(0.9953 -0.02955 -6.44e-21)
(1.203 0.5917 0)
(1.05 -0.04338 1.033e-21)
(1.119 0.2822 0)
(1.001 0.001425 7.875e-21)
(1.145 -0.1968 -1.89e-22)
(0.9731 0.835 0)
(1.131 -0.1303 1.248e-22)
(1.145 -0.1751 -1.18e-22)
(0.9982 0.0006441 -2.347e-21)
(0.9011 -0.3531 -2.573e-22)
(1.005 -0.001301 3.533e-20)
(0.3264 -0.3266 -3.397e-21)
(0.3534 0.2422 9.166e-22)
(0.9957 0.02194 -1.658e-21)
(1.125 -0.1803 1.169e-22)
(0.9984 0.05461 0)
(1.008 0.006266 -4.658e-21)
(1.023 0.0418 -2.709e-22)
(1.005 -0.001487 -2.947e-20)
(1.029 -0.3634 -5.11e-22)
(1.096 -0.1109 -7.193e-23)
(0.9309 -0.4271 4.804e-21)
(1.023 -0.136 7.574e-23)
(1.03 -0.007686 0)
(1.1 -0.3142 0)
(1.131 -0.103 -7.185e-23)
(0.8411 -0.4644 2.417e-21)
(1.029 -0.194 -2.603e-22)
(0.9904 0.04746 -7.634e-22)
(1.295 0.3095 4.493e-22)
(0.007939 0.07879 -2.658e-21)
(1.002 0.0009035 -1.937e-23)
(1.056 0.8329 -7.063e-24)
(1.133 -0.1217 -1.304e-22)
(1.143 -0.2195 3.487e-22)
(0.9021 -0.162 0)
(0.5717 -0.4077 -8.823e-22)
(1.111 -0.1018 -1.304e-22)
(1.052 -0.3631 0)
(0.6439 -0.3183 2.029e-21)
(0.9967 -0.03042 5.825e-21)
(1.104 -0.2898 -3.826e-22)
(0.8603 -0.3102 2.638e-21)
(1.356 0.269 -8.045e-23)
(0.9495 0.05596 2.605e-22)
(1.128 -0.1918 -5.789e-22)
(1.088 -0.3025 7.799e-22)
(0.9897 -0.001089 0)
(1.263 0.3733 -3.06e-23)
(1.124 -0.1134 -2.046e-22)
(0.9558 -0.03346 0)
(1.088 -0.3033 -8.017e-22)
(1.022 -0.04795 5.112e-21)
(1.1 -0.3156 -7.879e-22)
(1.046 0.1507 0)
(0.372 0.2593 0)
(1.12 -0.1033 0)
(0.9748 -0.04339 2.119e-22)
(0.3949 0.5864 -3.115e-22)
(1.001 1.821e-05 -2.165e-22)
(0.9998 3.589e-06 -5.074e-23)
(0.9893 0.03112 4.272e-22)
(1.02 0.01311 -1.844e-21)
(0.9263 0.01812 8.851e-22)
(0.8777 -0.03944 2.581e-21)
(1.012 -0.1136 -8.902e-22)
(1.14 -0.1945 -6.455e-22)
(0.8062 -0.05664 -1.303e-20)
(0.9957 0.02137 7.961e-22)
(0.9815 -0.007247 -1.302e-20)
(1.356 0.2724 8.275e-23)
(1.136 -0.2136 3.316e-22)
(1.013 -0.1126 -6.262e-22)
(1.255 0.3672 -2.104e-23)
(1.003 0.01038 0)
(1.143 -0.2192 -3.865e-22)
(1.11 -0.2918 2.758e-22)
(1.021 -0.0486 -2.276e-21)
(1.07 -0.1048 3.87e-22)
(1.021 0.0126 2.858e-21)
(1.053 -0.3629 -5.156e-22)
(1.144 -0.2232 0)
(0.9987 0.0009012 -2.118e-21)
(1.08 -0.116 0)
(1.124 -0.2535 0)
(1.128 -0.2726 7.89e-22)
(0.9192 -0.3537 -1.145e-22)
(1.029 -0.007824 0)
(1.347 0.3472 -9.208e-22)
(1.102 -0.2689 4.709e-22)
(0.9156 0.131 -3.943e-22)
(0.9981 -0.0505 1.47e-21)
(0.989 0.04699 0)
(0.5486 -0.4193 0)
(0.749 -0.2909 0)
(1.125 -0.2111 -9.069e-23)
(0.9888 -0.001137 0)
(1.143 -0.1762 1.402e-24)
(0.9807 -0.003681 -5.102e-21)
(1.067 -0.3026 -6.33e-22)
(0.9909 -0.001105 0)
(1.042 -0.03903 0)
(1.13 -0.1301 0)
(0.9896 0.009503 -6.781e-21)
(1.008 0.01997 -1.575e-22)
(0.9965 0.02327 9.096e-22)
(1.139 -0.1562 -1.234e-24)
(0.9529 -0.03408 1.474e-21)
(1.068 -0.2027 0)
(1.069 -0.1055 -7.413e-22)
(1.125 -0.2106 0)
(0.9859 -0.01868 1.345e-21)
(0.903 -0.3733 -2.09e-23)
(1.11 -0.1224 -3.451e-22)
(1.046 -0.25 1.562e-21)
(0.934 -0.2787 1.441e-21)
(1.124 -0.18 1.253e-22)
(0.7512 -0.4271 -1.059e-21)
(1.139 -0.1941 5.348e-22)
(0.9808 -0.007299 7.983e-21)
(1.134 -0.1194 -8.814e-25)
(1.144 -0.1706 0)
(1.126 -0.2727 -7.039e-22)
(0.9912 -0.001143 -1.595e-21)
(0.9845 0.01273 0)
(1.311 0.4179 4.138e-23)
(1.105 -0.116 4.998e-22)
(0.9395 -0.01527 2.384e-21)
(1.026 -0.1602 1.534e-22)
(1.028 -0.02538 2.764e-21)
(1.124 -0.253 2.92e-22)
(1.312 0.4178 0)
(0.91 -0.03768 -4.486e-21)
(1.218 0.4286 1.644e-22)
(1.008 0.01964 1.039e-21)
(0.8983 -0.08359 -1.858e-22)
(1.001 1.404e-05 0)
(0.9998 2.807e-06 0)
(0.899 -0.1565 0)
(0.9113 -0.3521 0)
(1.127 -0.1923 0)
(1.137 -0.2131 -6.205e-22)
(0.399 -0.1293 1.38e-21)
(1.139 -0.1559 3.577e-22)
(1.12 -0.1339 -4.141e-22)
(1.122 -0.129 0)
(0.9332 0.05221 0)
(1.294 0.2705 -5.64e-22)
(0.981 -0.01554 1.257e-21)
(1.004 0.005025 9.762e-23)
(0.9897 0.03039 4.973e-22)
(0.9686 -0.008159 -1.338e-21)
(0.9831 -0.003418 -1.333e-22)
(0.5872 -0.2146 9.825e-22)
(1.026 -0.02702 -4.234e-21)
(1.098 -0.1199 4.314e-24)
(0.9792 -0.04201 -8.818e-21)
(1.117 -0.1084 -1.286e-22)
(0.978 -0.004676 -8.148e-22)
(1.055 -0.1377 0)
(1.119 -0.1396 1.7e-22)
(1.046 -0.2532 1.976e-21)
(0.9985 0.05374 0)
(0.9845 0.09391 -4.4e-24)
(1.01 -0.01339 3.864e-21)
(0.8886 -0.2513 0)
(1.123 -0.2808 -3.061e-22)
(1.118 -0.1021 0)
(0.893 -0.2525 -1.975e-21)
(0.9314 0.05039 5.172e-22)
(0.9964 -0.04936 -3.973e-22)
(1.003 0.009955 -2.168e-22)
(0.9888 0.09324 0)
(1.137 -0.1356 -2.907e-22)
(1.132 -0.1081 -6.819e-23)
(0.9999 0.001383 -4.543e-21)
(1.126 -0.1136 9.134e-23)
(0.9328 -0.3944 0)
(1.128 -0.1609 -2.629e-22)
(1.029 -0.1924 0)
(1.026 -0.362 -5.108e-22)
(1.117 -0.2096 -1.791e-22)
(1.006 -0.3929 5.992e-22)
(0.9995 0.001015 0)
(0.9609 0.1519 5.154e-22)
(1.092 0.2662 -3.264e-22)
(0.9826 -0.1816 0)
(1.009 -0.1324 -6.545e-22)
(1.005 -4.781e-05 4.77e-21)
(1.004 0.004923 0)
(1.141 -0.1691 1.051e-22)
(0.9511 -0.03449 -1.516e-21)
(0.9851 -0.01764 1.393e-21)
(0.9943 -0.0008483 -1.92e-20)
(0.9169 -0.359 2.347e-22)
(0.9627 0.05096 -1.242e-21)
(0.9796 0.01327 -1.863e-22)
(0.6861 -0.4541 -2.819e-22)
(0.9657 -0.008802 -5.458e-22)
(1.127 -0.1365 6.483e-26)
(1.136 -0.1353 -9.735e-23)
(0.894 0.05856 8.51e-22)
(1.115 -0.1324 -2.462e-22)
(1.131 -0.103 0)
(0.4261 0.2301 -1.622e-21)
(0.9925 -0.0005431 4.083e-21)
(1.014 0.0385 -2.046e-23)
(0.9995 -6.762e-05 0)
(1.096 -0.1102 2.878e-22)
(1.007 -0.1006 0)
(1.008 0.0004581 1.127e-20)
(0.494 -0.365 0)
(0.8348 -0.4571 3.009e-21)
(0.6681 -0.4497 4.827e-22)
(1.125 -0.2729 -6.234e-22)
(0.9279 -0.3854 -3.912e-22)
(1.018 0.004314 0)
(0.9619 0.02964 0)
(1.297 0.4142 2.704e-23)
(1.129 -0.1125 1.682e-22)
(1.3 0.2937 -5.137e-22)
(0.4177 0.06918 4.102e-21)
(1.077 -0.08494 -1.276e-21)
(1.016 0.519 -2.422e-22)
(0.9833 -0.001431 0)
(0.8383 -0.4545 -3.029e-21)
(1.015 0.03815 2.305e-24)
(1 -0.0003667 0)
(0.985 0.01276 4.289e-23)
(1.031 -0.366 2.639e-22)
(1.134 -0.1602 0)
(1.127 -0.1365 2.76e-22)
(0.994 -0.0003334 -4.085e-21)
(1.001 -0.3993 -7.613e-22)
(1.108 -0.1076 3.247e-23)
(1.005 -0.01661 0)
(1.132 -0.1217 -1.518e-22)
(0.8813 -0.04061 3.199e-21)
(1.006 -0.01497 1.662e-21)
(1.28 0.5599 0)
(0.9994 3.755e-06 -1.055e-21)
(1.07 -0.12 1.225e-21)
(0.9062 -0.3976 5.391e-22)
(1.341 0.3404 -2.54e-22)
(0.9556 0.0201 1.381e-22)
(0.9971 -0.3611 -6.496e-22)
(0.9995 -6.742e-05 0)
(1.047 -0.2518 -2.895e-21)
(1.014 -0.3866 9.664e-22)
(1.022 -0.00711 6.327e-22)
(1.126 -0.1696 -3.23e-22)
(1.135 -0.1213 1.393e-22)
(1 0.002835 0)
(0.9997 0.003676 0)
(0.9199 0.1268 -1.979e-23)
(0.9905 0.551 0)
(0.9831 0.01518 2.147e-21)
(1.005 0.000715 -2.21e-22)
(0.9971 -0.3489 0)
(0.9738 -0.4179 0)
(0.9271 -0.3865 4.981e-22)
(1.109 -0.2375 0)
(1.02 0.04086 0)
(1.001 -0.0004429 3.171e-21)
(1.129 -0.2546 0)
(1.002 -0.0008808 0)
(1.134 -0.1136 0)
(0.9782 -0.004554 1.546e-21)
(1.089 -0.135 1.33e-21)
(0.9826 0.01467 1.127e-21)
(0.9966 0.0001036 2.705e-22)
(0.8034 -0.4185 -1.617e-22)
(1.008 0.0004364 -1.118e-20)
(1.145 -0.1752 0)
(0.9944 -0.001105 1.866e-20)
(1.136 -0.1359 2.081e-22)
(0.9898 0.02293 1.125e-22)
(0.9897 0.009087 6.541e-21)
(1.135 -0.1516 4.074e-22)
(1.123 -0.1298 0)
(1.12 -0.1392 0)
(0.4272 -0.2787 -2.127e-21)
(1.123 -0.1038 -3.245e-23)
(1.197 0.5867 -8.003e-24)
(1.093 -0.09864 0)
(1.003 -0.0008923 -6.412e-21)
(1.136 -0.2383 -9.424e-22)
(0.9873 0.01103 3.895e-21)
(0.408 -0.1077 0)
(1.036 0.006393 2.615e-21)
(1.005 -6.021e-05 0)
(0.9959 0.02309 -1.654e-21)
(1.114 -0.1014 0)
(1.005 -0.3932 3.022e-22)
(1.006 -6.287e-06 5.301e-21)
(1.004 -0.002812 -2.886e-21)
(1.1 -0.09651 -6.424e-23)
(0.9159 -0.3578 -2.537e-22)
(0.9337 -0.3956 1.261e-22)
(1.006 -3.742e-05 2.395e-21)
(1.111 -0.1755 0)
(1.001 -0.02902 -9.645e-21)
(1.005 0.0006791 2.082e-22)
(0.8412 -0.4675 -4.116e-21)
(1.037 0.008093 -3.85e-21)
(1.003 0.0005168 -5.291e-22)
(0.9279 0.01857 -3.947e-22)
(1.068 -0.1529 8.5e-22)
(1.019 -0.02878 -1.608e-21)
(1.11 -0.2556 2.188e-22)
(0.9155 -0.1929 0)
(1.1 -0.1368 -1.338e-21)
(0.9443 -0.02134 -2.459e-21)
(1.004 -0.001693 -1.713e-20)
(1.144 -0.1763 -8.144e-22)
(0.9851 -0.2685 -2.29e-21)
(0.6855 -0.08984 3.033e-21)
(0.9994 1.708e-05 2.879e-22)
(1.004 -0.001824 1.454e-20)
(1.077 -0.08404 4.92e-22)
(1.141 -0.2118 0)
(0.8174 -0.4449 1.313e-21)
(0.7739 -0.06625 0)
(1.118 -0.2916 0)
(1.018 0.003944 8.908e-21)
(1.008 -0.0006188 1.786e-20)
(0.968 0.1501 0)
(0.6915 -0.09736 -5.599e-21)
(0.9909 -0.4073 3.449e-21)
(0.997 -0.4029 8.837e-22)
(0.9965 0.0001728 0)
(1.009 -0.1004 0)
(1.131 -0.2582 -7.035e-22)
(1.143 -0.1729 2.931e-22)
(0.9964 0.0001084 -2.483e-22)
(1.135 -0.1216 -1.8e-22)
(1.12 -0.09979 6.366e-23)
(1.059 0.8246 2.979e-23)
(0.8601 -0.4496 0)
(1.129 -0.2724 0)
(1.134 -0.1212 8.638e-23)
(1.134 -0.1196 8.299e-23)
(1.086 -0.1898 3.471e-22)
(0.984 -0.2706 2.058e-21)
(0.9488 0.05409 -2.645e-22)
(1.135 -0.2504 2.528e-22)
(0.9641 -0.4023 4.246e-22)
(1.131 -0.1172 0)
(1.011 -0.0002994 1.997e-20)
(1.002 0.0005144 4.098e-22)
(1.091 -0.1327 8.78e-22)
(0.9958 0.0002031 -1.312e-21)
(0.9958 0.0001784 -1.252e-21)
(0.988 0.03304 4.037e-22)
(0.2716 -0.1853 3.311e-21)
(1.026 0.001438 0)
(1.139 -0.2043 0)
(1.102 -0.2225 5.263e-22)
(1.043 -0.2483 1.484e-21)
(1.143 -0.1731 -2.771e-22)
(1.067 -0.1356 7.914e-22)
(0.999 2.634e-05 -8.09e-22)
(1.131 -0.1628 2.356e-22)
(0.9992 3.904e-06 1.001e-21)
(1.107 -0.2455 1.31e-22)
(1 -0.0003428 0)
(1.001 -0.0003872 -5.416e-21)
(1.132 -0.137 1.762e-22)
(0.9965 0.0001984 -9.544e-23)
(1.297 0.4122 -1.447e-23)
(1.144 -0.1706 -2.064e-22)
(1.039 -0.356 -4.186e-22)
(1.006 0.0001982 -1.544e-21)
(1.018 0.004388 0)
(1.007 0.0002022 -1.36e-20)
(1.135 -0.146 1.96e-22)
(0.8234 -0.2215 2.232e-21)
(1.004 -0.001781 1.81e-20)
(0.8588 -0.3053 -3.021e-23)
(1.001 0.0007177 -6.43e-22)
(1.006 -0.01582 0)
(0.983 -0.01794 -2.302e-21)
(1.004 -0.001644 -1.628e-20)
(0.7869 -0.4733 0)
(1.14 -0.1422 -1.182e-22)
(1.082 -0.1487 1.368e-23)
(0.9914 -0.003674 -7.261e-22)
(1.139 -0.1356 -2.077e-22)
(1.003 0.01245 3.185e-22)
(1.12 -0.1336 3.646e-22)
(1 -9.923e-05 4.316e-21)
(0.8813 -0.433 3.377e-22)
(0.2314 -0.3019 1.09e-21)
(0.9924 -0.02825 -6.317e-21)
(0.9178 -0.2077 -2.772e-21)
(1.114 -0.1473 0)
(0.6922 0.8998 2.865e-22)
(1.106 -0.1988 1.039e-21)
(0.9424 -0.3351 7.277e-22)
(0.6942 -0.1309 6.239e-22)
(1.001 0.01531 -2.079e-21)
(1.074 -0.3432 5.553e-22)
(1.352 0.2315 0)
(1.023 -0.169 -1.434e-21)
(1.002 0.0007233 0)
(1.079 -0.2481 -1.679e-21)
(0.2482 -0.3048 0)
(1.014 0.04836 0)
(1.144 -0.164 -6.137e-22)
(1.004 0.0004862 -1.206e-21)
(0.9967 9.7e-05 -1.824e-21)
(1.04 0.01637 -7.356e-21)
(0.3577 0.2164 -8.181e-22)
(1.121 -0.1146 3.352e-22)
(0.9688 -0.05616 3.734e-21)
(1.309 0.4457 3.08e-22)
(1.134 -0.2547 -6.333e-22)
(1.01 -0.01297 0)
(0.9721 -0.05429 -5.884e-21)
(1.133 -0.2259 0)
(0.3434 -0.34 5.999e-22)
(0.9869 0.000986 7.161e-21)
(1.132 -0.2584 0)
(0.9826 -0.01549 -4.125e-22)
(0.9995 -7.1e-05 0)
(0.9557 -0.01126 7.078e-21)
(1.023 -0.3327 0)
(0.9444 -0.3984 -1.379e-22)
(1.136 -0.2464 0)
(0.9969 7.674e-05 -9.617e-22)
(0.8206 -0.4792 2.345e-21)
(1.005 0.0004867 -3.757e-22)
(0.9469 -0.3586 0)
(1.13 -0.1733 -3.914e-22)
(1.122 -0.1156 -3.956e-22)
(1.02 0.04133 7.892e-22)
(0.995 0.008617 0)
(1.135 -0.2141 -3.553e-22)
(0.8907 -0.387 -7.486e-22)
(0.3508 0.4052 0)
(0.9857 -0.4104 -1.465e-21)
(0.9872 -0.4108 1.471e-21)
(1.011 0.001146 -1.004e-20)
(0.9911 0.006335 -1.173e-20)
(0.9675 0.009732 1.799e-21)
(1.027 -0.2122 0)
(1.135 -0.1483 0)
(0.6446 -0.09435 8.249e-22)
(1.136 -0.1381 -3.292e-22)
(0.4151 0.5903 0)
(1.011 -0.0002425 -5.197e-21)
(1.009 -0.003726 7.075e-21)
(1.115 -0.1785 0)
(1.001 1.721e-05 4.959e-21)
(0.9075 -0.4053 1.137e-21)
(1.115 -0.09701 3.301e-22)
(1.113 0.4192 -9.335e-23)
(0.9999 0.001365 4.21e-21)
(1.089 -0.1864 -6.815e-22)
(1.001 -0.3895 2.28e-21)
(0.8681 -0.2716 -1.481e-21)
(1.117 -0.1018 -1.546e-22)
(0.9213 -0.4117 -9.123e-23)
(1.135 -0.1298 4.212e-22)
(0.9758 -0.4228 1.759e-21)
(0.9855 -0.02043 0)
(0.3092 -0.323 -2.626e-21)
(1.006 0.02696 -2.389e-22)
(0.671 -0.1281 0)
(0.9957 -0.0004348 4.76e-21)
(1 -3.632e-05 0)
(1.144 -0.1638 4.318e-22)
(1.032 -0.3804 0)
(1.096 -0.1824 0)
(1.112 -0.1461 -1.982e-22)
(0.9966 -0.03421 0)
(1.118 -0.2249 7.705e-22)
(0.9921 -0.002244 2.043e-21)
(0.6618 -0.08741 -5.803e-22)
(0.9997 -0.001343 -2.849e-20)
(0.995 -0.0004278 -9.514e-22)
(0.9883 -0.003175 1.49e-20)
(1.14 -0.1523 0)
(1.04 -0.1631 6.316e-22)
(0.9988 -0.00331 -3.516e-21)
(1.12 -0.1333 3.806e-22)
(1.007 0.008948 0)
(1.293 0.4375 -1.27e-22)
(1.036 -0.1486 -1.343e-21)
(1.133 -0.1296 -1.271e-22)
(1.138 -0.2206 1.261e-21)
(1.138 -0.1641 5.718e-22)
(1.136 -0.1246 0)
(0.9991 -0.00335 1.503e-20)
(1.026 -0.05261 -4.521e-22)
(1.144 -0.2111 6.529e-22)
(1.11 -0.3044 0)
(1.12 -0.1167 0)
(1.068 -0.1317 -1.294e-21)
(0.8853 0.2352 0)
(0.9701 -0.01538 2.935e-21)
(1.113 -0.1904 1.327e-21)
(0.9964 0.000363 0)
(0.7132 -0.4648 1.518e-21)
(1.13 -0.1075 -1.812e-23)
(1.107 -0.2994 0)
(1.122 -0.1395 5.236e-25)
(1.13 -0.1076 1.78e-23)
(1.106 -0.2994 0)
(0.9962 -0.0009833 -1.045e-21)
(0.9884 -0.02508 1.471e-21)
(0.9999 2.576e-06 -9.929e-22)
(1.11 -0.2335 0)
(1.013 -0.06527 0)
(0.9014 0.2367 -7.674e-22)
(1.08 -0.1583 0)
(1.001 2.292e-05 0)
(1.018 -0.003262 -2.544e-22)
(0.9477 0.2066 -4.554e-22)
(1.043 0.03043 0)
(1.137 -0.193 5.323e-22)
(0.9789 -0.05202 4.904e-21)
(1.137 -0.2385 7.948e-22)
(1.142 -0.1767 -5.495e-22)
(0.9961 0.0004191 1.261e-21)
(1.129 -0.1159 1.434e-22)
(1.008 0.01144 -2.686e-21)
(0.8475 -0.4034 0)
(1.107 -0.2988 1.752e-21)
(0.9988 0.005636 -7.985e-23)
(1.13 -0.1 -8.988e-23)
(1.347 0.3471 -5.768e-22)
(1.143 -0.1558 1.773e-22)
(0.895 0.004737 1.17e-21)
(1.124 -0.2346 1.279e-21)
(1.142 -0.169 4.839e-23)
(0.7553 -0.4497 0)
(1.146 -0.19 -2.766e-22)
(1.126 -0.1361 -3.159e-22)
(1.119 -0.1132 -2e-24)
(1.078 -0.09778 1.408e-21)
(1.14 -0.2388 -5.897e-22)
(1.068 -0.1192 -6.278e-22)
(1.134 -0.1894 -1.77e-21)
(0.9997 3.526e-06 -1.061e-21)
(1.007 0.0004178 0)
(0.9266 -0.02474 -6.05e-21)
(0.9935 0.01001 -1.478e-20)
(1.142 -0.152 2.763e-22)
(1.068 -0.2885 2.314e-22)
(1.139 -0.1407 -3.434e-23)
(1.14 -0.1628 0)
(0.9424 -0.3828 0)
(1.061 -0.07792 -8.363e-22)
(1.112 -0.2608 -9.356e-22)
(1.099 -0.156 3.926e-22)
(1.09 0.3154 2.974e-22)
(1.139 -0.1786 1.922e-22)
(1.027 0.07223 3.404e-22)
(1.007 0.008843 3.327e-22)
(1.125 -0.2562 0)
(1.004 -0.001424 -1.835e-20)
(1.138 -0.2122 0)
(0.6934 -0.1133 7.254e-22)
(1.029 0.006704 0)
(1.022 -0.03073 -3.646e-22)
(0.9961 -0.0227 -4.323e-21)
(0.6973 -0.1486 0)
(1.104 -0.1972 6.333e-25)
(1.104 -0.2689 -2.207e-22)
(1.007 0.0006401 6.641e-21)
(1.003 3.613e-05 0)
(0.9968 0.0002906 0)
(1.001 0.0005102 5.841e-22)
(1.033 0.5046 -2.432e-22)
(1.133 -0.1381 -2.916e-22)
(0.6468 -0.0767 7.977e-23)
(1.069 -0.2632 2.879e-22)
(1.1 -0.1328 -1.048e-21)
(1.003 8.285e-05 0)
(1.12 -0.2758 5.565e-22)
(0.6387 -0.09163 0)
(0.5892 -0.3233 0)
(1.127 -0.1018 -7.075e-23)
(1.145 -0.18 0)
(0.6281 -0.2623 9.695e-21)
(1.005 -0.003176 1.576e-20)
(1.115 -0.09956 -3.997e-23)
(1.166 0.6821 0)
(1.003 1.058e-05 -8.615e-21)
(0.524 0.8407 0)
(1.144 -0.1936 6.807e-22)
(1.141 -0.186 -1.849e-21)
(1.007 -0.002175 5.719e-21)
(1.036 -0.2859 -7.893e-22)
(1.005 0.02745 2.651e-23)
(1.13 -0.107 1.488e-22)
(0.4936 -0.4451 0)
(1.106 -0.204 0)
(1.13 -0.1223 2.258e-22)
(1.094 -0.2898 0)
(0.8629 0.0878 1.148e-21)
(1.126 -0.2707 6.266e-25)
(0.622 0.8812 0)
(1.009 0.002443 1.141e-20)
(1.043 0.6874 1.266e-22)
(0.9943 -0.01255 2.526e-21)
(1.13 -0.1604 0)
(1.005 -0.01249 3.613e-22)
(0.9953 -0.0004891 0)
(1.167 0.7085 5.758e-23)
(1.086 -0.3352 0)
(1.002 0.002176 0)
(1.01 0.04281 0)
(0.9977 0.001582 -1.831e-21)
(1.007 -0.001274 2.311e-20)
(0.9998 5.443e-06 0)
(0.9871 -0.007145 4.035e-22)
(1.036 -0.1614 -5.971e-22)
(1 -2.871e-06 5.233e-22)
(0.9407 -0.3811 1.332e-22)
(0.9398 0.07392 6.85e-22)
(1.14 -0.1563 2.964e-22)
(1.135 -0.1213 6.987e-23)
(1.131 -0.1361 0)
(1.147 -0.1991 9.424e-22)
(1 -0.002919 3.228e-20)
(1.006 -0.3923 -2.655e-21)
(0.9969 0.01379 0)
(0.6391 -0.08771 -9.283e-22)
(1.024 -0.3819 -1.29e-22)
(1.133 -0.1497 -5.043e-22)
(1.005 0.0001734 0)
(1.005 0.0002463 -9.362e-22)
(0.9503 -0.01367 -3e-21)
(1.14 -0.1412 -1.249e-22)
(1.103 -0.2188 0)
(0.7686 -0.3135 -4.33e-21)
(0.9289 -0.01818 -9.23e-23)
(1.131 -0.1482 -1.051e-25)
(1.065 -0.3446 -3.521e-21)
(1.033 -0.03574 -7.398e-23)
(1.127 -0.09926 0)
(1.143 -0.2163 0)
(1.135 -0.1464 4.757e-22)
(1.029 0.007609 -1.266e-21)
(0.9 -0.09557 0)
(1.015 -0.06554 -7.769e-22)
(1.123 -0.271 -5.129e-22)
(0.9728 -0.008335 3.284e-22)
(1.136 -0.1323 0)
(1.004 -2.233e-06 0)
(1.052 -0.3445 -3.756e-22)
(0.7013 -0.121 4.783e-22)
(0.6055 -0.4737 -2.28e-21)
(1.116 -0.1781 -2.074e-22)
(1.006 0.0003082 -1.895e-21)
(0.7269 0.8464 0)
(1.012 -0.000865 0)
(1.076 0.1404 3.279e-22)
(1.144 -0.1626 -3.813e-23)
(0.8197 -0.4741 4.05e-24)
(0.9875 -0.1019 2.705e-21)
(0.7843 -0.4592 -1.26e-21)
(1.1 -0.09695 6.642e-23)
(0.9947 0.0001854 4.033e-21)
(0.9948 0.0002148 -3.878e-21)
(1.118 -0.1158 -3.373e-22)
(1.137 0.3005 -1.306e-22)
(1.291 0.3727 -4.216e-23)
(1.098 -0.1037 1.775e-22)
(0.9622 -0.009381 -2.277e-21)
(1.036 0.03195 -5.162e-23)
(1.02 0.02296 2.649e-21)
(1.01 -0.001228 8.362e-21)
(0.9927 -0.003624 -4.445e-22)
(0.6818 -0.2351 0)
(1.009 0.004691 5.089e-22)
(1.305 0.4366 6.672e-22)
(1.051 -0.2292 0)
(0.8717 -0.4179 0)
(0.995 0.0004401 0)
(0.3402 -0.3783 -2.989e-21)
(0.2295 0.4773 -5.887e-22)
(1.005 -0.01814 6.234e-22)
(0.8786 0.8271 0)
(0.08113 0.3458 8.289e-22)
(1.024 -0.09159 -4.646e-22)
(0.9996 -0.0002761 6.921e-22)
(0.9981 0.0004809 -2.555e-22)
(0.9999 -8.062e-07 -6.032e-22)
(1.073 -0.2115 0)
(0.9996 -0.0005345 0)
(1.002 0.01049 0)
(0.3287 0.5382 1.659e-21)
(1.007 -0.001447 0)
(1.137 -0.1493 1.665e-23)
(1.014 -0.2211 0)
(1.009 0.01735 7.359e-22)
(0.9999 -6.08e-05 7.483e-21)
(0.31 -0.3445 -1.53e-20)
(1.093 -0.2994 4.438e-22)
(1.143 -0.1582 5.413e-22)
(1.034 -0.002467 0)
(1.103 -0.1702 0)
(0.9826 -0.1672 -6.783e-22)
(0.9962 0.0003335 0)
(1.038 -0.3048 0)
(1.033 -0.007954 -1.683e-21)
(0.991 -0.4013 2.858e-22)
(0.9634 0.03041 1.17e-21)
(0.9996 0.001884 2.558e-20)
(0.9846 0.3116 -2.865e-22)
(1.028 -0.3746 -1.484e-22)
(0.4228 0.3205 0)
(1.126 -0.2567 6.783e-22)
(1.004 -0.003756 2.051e-21)
(1.075 -0.09973 1.88e-22)
(0.6416 -0.08679 -1.471e-21)
(1.122 -0.156 5.327e-23)
(1.006 -0.0679 3.886e-21)
(0.994 -0.3469 0)
(0.3059 0.7735 6.021e-22)
(1.35 0.2886 -1.067e-21)
(0.9947 0.0002962 5.106e-22)
(1.016 0.001791 9.436e-22)
(1.143 -0.2291 0)
(0.9934 0.003425 0)
(1.006 0.001079 -3.044e-21)
(1.1 -0.1169 4.796e-22)
(0.9999 -0.008051 1.039e-20)
(0.9459 -0.3991 1.528e-22)
(0.9518 -0.01374 0)
(1.119 -0.1129 -1.352e-22)
(1.005 0.004585 1.568e-21)
(1.11 -0.3037 -5.455e-23)
(0.888 -0.4623 3.263e-21)
(1.13 -0.1938 -1.722e-22)
(1.143 -0.1742 -5.103e-22)
(0.9443 -0.04385 7.196e-21)
(0.7031 -0.4762 -1.024e-21)
(0.9512 -0.4069 -6.016e-22)
(1.118 -0.1333 0)
(0.515 -0.4561 0)
(0.9838 -0.3949 4.395e-22)
(0.9797 -0.08205 -1.578e-21)
(1.138 -0.152 0)
(0.7786 -0.07462 0)
(1.137 -0.1308 1.247e-22)
(0.9609 0.05032 9.811e-23)
(0.9743 -0.00683 -1.855e-21)
(0.6592 -0.1173 0)
(0.9625 -0.1017 0)
(1.123 -0.1459 0)
(0.9996 -0.0001211 -1.813e-21)
(0.9619 -0.1145 0)
(1.147 -0.1977 -2.065e-22)
(1.072 -0.1138 -8.429e-22)
(1.129 -0.1306 3.572e-22)
(0.9767 -0.05705 2.336e-21)
(1 0.001287 -2.631e-20)
(1.022 -0.1512 0)
(0.8632 -0.4018 5.724e-22)
(1.143 -0.2144 -4.036e-22)
(1.146 -0.193 -7.424e-22)
(0.9969 0.000416 -1.686e-20)
(1.141 -0.145 2.12e-22)
(0.7969 -0.247 -1.68e-21)
(0.9402 -0.3796 -3.12e-22)
(0.9499 -0.03094 2.556e-21)
(1.128 -0.1031 6.97e-23)
(1.085 -0.1343 -1.21e-21)
(1.012 0.001396 1.375e-21)
(0.9836 0.06466 0)
(0.9958 0.0003757 -1.489e-21)
(1.099 -0.2584 3.911e-22)
(1.099 -0.2485 0)
(0.8611 -0.4151 -4.463e-23)
(1.119 -0.1576 0)
(0.9995 2.138e-05 7.828e-21)
(0.9965 -0.001005 0)
(0.9733 -0.234 2.374e-21)
(1.001 -0.0001206 4.555e-21)
(1.128 -0.1133 0)
(1.001 0.0006142 4.312e-24)
(0.9966 0.0007807 -1.516e-22)
(1.015 -0.02578 0)
(0.8401 -0.4073 6.104e-22)
(0.9455 -0.02234 2.968e-21)
(0.2457 0.8099 -1.606e-21)
(1.119 -0.1017 -5.177e-23)
(1.132 -0.1152 0)
(0.9433 -0.4208 0)
(1.126 -0.1346 -1.355e-22)
(0.9803 0.008652 4.655e-21)
(0.866 0.8232 0)
(1.124 -0.1124 1.322e-22)
(1.144 -0.223 -3.102e-22)
(0.9999 1.77e-05 5.719e-22)
(1.1 -0.3179 0)
(1.118 -0.1586 7.038e-22)
(0.6485 -0.112 0)
(1.14 -0.2402 0)
(1 0.06631 0)
(1.144 -0.169 -5.063e-22)
(0.656 -0.09755 0)
(0.9989 -4.551e-06 -6.642e-22)
(0.3476 -0.3491 1.526e-23)
(1.136 -0.1372 2.102e-22)
(1.004 0.0005315 7.942e-23)
(1.098 -0.09885 0)
(1.093 -0.1068 3.066e-22)
(0.9915 -0.00221 -3.193e-21)
(0.8163 -0.3693 -7.34e-22)
(1.146 -0.1837 0)
(1.016 -0.1135 8.783e-22)
(1.021 -0.002708 8.516e-21)
(1.115 -0.1124 -4.344e-22)
(1.322 0.4929 -1.904e-22)
(1.124 -0.0993 7.96e-23)
(0.8455 0.9562 0)
(0.9225 -0.1219 -7.537e-22)
(0.9934 0.0002645 -6.082e-21)
(0.1735 0.4975 -1.269e-22)
(1.026 -0.342 -1.008e-21)
(1.133 -0.1136 -2.261e-23)
(1.129 -0.1072 -1.681e-22)
(0.9938 4.726e-05 2.586e-21)
(1.141 -0.2324 8.819e-22)
(1.255 0.4015 -4.712e-22)
(1.07 -0.25 4.716e-22)
(0.9637 -0.3145 -1.805e-21)
(0.9902 0.03758 -1.182e-21)
(0.9645 0.06146 7.482e-22)
(1.102 -0.172 5.193e-22)
(0.9955 -0.02191 3.786e-21)
(1.137 -0.1289 3.112e-22)
(1.129 -0.1088 0)
(1.129 -0.1261 3.493e-23)
(1.133 -0.22 2.108e-23)
(1.109 -0.3013 0)
(0.08993 0.3573 -8.177e-22)
(1.064 -0.1194 5.217e-22)
(1.146 -0.1898 2.776e-22)
(1.137 -0.1433 0)
(1.132 -0.1095 0)
(0.9963 0.000237 -5.343e-22)
(1.009 0.02027 4.349e-22)
(0.9972 0.001464 1.697e-20)
(1.117 -0.1608 -1.742e-22)
(1.147 -0.1938 -3.296e-22)
(0.4777 -0.274 4.309e-21)
(0.9943 -0.04125 1.922e-21)
(1.099 -0.106 0)
(1.069 -0.1304 -7.822e-22)
(0.8842 -0.02451 1.082e-20)
(1.121 -0.1536 6.337e-22)
(1.004 0.007418 1.919e-21)
(1.121 -0.15 -3.063e-22)
(1.141 -0.1654 2.308e-22)
(1.117 -0.2255 5.751e-22)
(1.1 -0.1057 -2.784e-22)
(1.127 -0.1055 -1.274e-22)
(1.043 0.1462 -3.448e-22)
(0.05569 -0.00936 1.784e-21)
(1.021 0.00158 -6.054e-21)
(1.13 -0.1685 0)
(1.146 -0.2002 0)
(0.987 -0.001307 0)
(0.9956 0.0001999 -6.334e-22)
(1.1 -0.1312 8.606e-22)
(1.008 0.05861 -2.756e-22)
(0.9997 -7.17e-05 -1.761e-21)
(0.9446 0.07534 0)
(1.123 -0.1455 -4.018e-24)
(1.003 -0.0001491 -3.236e-20)
(1.107 -0.139 3.423e-22)
(1.009 0.009857 -5.182e-21)
(1.035 0.004566 -2.319e-21)
(1.133 -0.1151 0)
(1.005 -0.02081 -5.152e-22)
(1.114 -0.2821 -7.228e-22)
(1.068 -0.07741 8.47e-22)
(1.133 -0.1184 7.616e-23)
(1.272 0.5669 -4.795e-22)
(0.6556 -0.1139 0)
(0.9854 0.01565 1.073e-21)
(0.9996 -0.0004555 -2.453e-21)
(0.9841 -0.3244 -2.131e-21)
(0.9926 0.007146 1.028e-20)
(1.282 0.4902 -1.911e-21)
(1.137 -0.2171 0)
(1.004 0.0002043 0)
(0.9983 2.211e-05 -1.847e-23)
(1.119 -0.1167 -8.438e-23)
(0.5763 -0.4032 8.785e-22)
(0.9243 0.06737 4.496e-22)
(1.126 -0.134 -2.157e-22)
(0.9998 0.001377 -5.221e-21)
(1.099 -0.1072 3.055e-22)
(1.135 -0.2549 0)
(1.144 -0.1639 0)
(1.041 -0.09481 0)
(1.069 -0.2932 -5.554e-22)
(1.001 4.303e-06 0)
(1.136 -0.1383 6.841e-22)
(1.095 -0.3207 0)
(1.135 -0.2213 0)
(1.087 -0.3338 0)
(0.7034 -0.4893 -7.833e-21)
(1.037 -0.1274 -2.947e-22)
(1.004 0.0005286 1.305e-21)
(0.9966 0.0001096 2.196e-21)
(0.9087 -0.3464 -3.803e-22)
(0.9396 -0.4299 0)
(0.9951 -0.001002 -9.913e-21)
(1.01 0.01733 -5.902e-22)
(0.9129 -0.3853 0)
(1.002 0.0009122 4.283e-21)
(0.9609 -0.2577 -3.357e-21)
(1.201 0.4484 -2.991e-22)
(1.068 -0.1517 -1.157e-21)
(1.12 -0.2753 0)
(0.997 -0.1099 -7.818e-22)
(0.7176 -0.4829 3.712e-21)
(1.328 0.3807 -1.953e-22)
(1.001 0.0008552 -2.718e-21)
(1.137 -0.1371 4.528e-22)
(1.138 -0.1689 -3.273e-22)
(1.143 -0.157 -1.984e-22)
(1.015 -0.3765 -6.613e-22)
(1.136 -0.1276 -1.762e-22)
(1.006 -0.3997 -2.158e-21)
(1.141 -0.2346 -2.519e-22)
(0.8461 0.9354 0)
(0.4286 0.2483 -3.944e-21)
(0.9103 -0.3515 2.161e-22)
(1.136 -0.2154 0)
(0.9592 -0.1405 -3.025e-21)
(1.113 -0.1438 4.178e-22)
(1.033 0.01147 4.276e-21)
(1 0.002646 -7.522e-21)
(1.139 -0.1445 4.241e-22)
(0.9519 -0.1439 -1.911e-21)
(0.9797 -0.1794 0)
(0.6267 -0.2785 5.415e-21)
(1.141 -0.1476 4.44e-22)
(0.9901 -0.0008495 2.299e-21)
(1.089 -0.1878 7.078e-22)
(0.996 0.02073 1.031e-21)
(0.1218 0.59 0)
(1.134 -0.16 0)
(0.9998 -1.161e-06 0)
(1.115 -0.1505 0)
(0.8963 -0.449 1.133e-21)
(1.1 -0.1017 -4.886e-22)
(1.107 -0.246 4.012e-22)
(1.023 0.0769 2.984e-22)
(0.9919 -0.4005 0)
(1.136 -0.1278 -2.206e-22)
(1.002 -0.009916 -2.669e-21)
(1.349 0.3261 5.046e-22)
(1.132 -0.1083 4.161e-23)
(0.9798 0.0126 0)
(1.143 -0.2259 8.848e-22)
(0.9098 -0.443 0)
(0.9165 -0.3764 4.165e-23)
(0.8638 -0.414 7.048e-22)
(1.108 -0.1077 0)
(1.024 -0.387 2.062e-21)
(1.269 0.3812 -3.061e-23)
(0.4714 -0.0477 3.93e-21)
(1 0.0006082 -8.371e-22)
(0.987 0.02209 0)
(1 0.005379 4.79e-21)
(1.296 0.3043 -2.479e-22)
(1.029 0.008564 -1.231e-21)
(1.105 -0.2963 -3.307e-22)
(1.116 -0.1273 -1.819e-22)
(0.6152 -0.4575 5.602e-22)
(0.9405 -0.01541 -3.382e-21)
(0.9963 0.0002179 2.631e-22)
(1.105 -0.104 -2.178e-22)
(1.133 -0.155 4.19e-22)
(1.146 0.6483 6.4e-23)
(0.9854 0.06754 0)
(0.9983 0.001391 7.49e-21)
(1.094 -0.2274 -1.743e-22)
(1.015 -0.01144 3.919e-21)
(1.137 -0.1263 -1.753e-22)
(0.2552 -0.1331 -2.08e-21)
(1.13 -0.1671 2.368e-22)
(0.9937 -0.4076 -1.986e-21)
(0.9746 -0.1322 1.158e-21)
(1.119 -0.09749 2.789e-23)
(0.8712 -0.1404 1.904e-21)
(1.139 -0.1405 1.325e-22)
(0.9162 -0.3458 0)
(1.005 -0.01169 -8.464e-21)
(1.133 -0.16 2.813e-22)
(0.9625 -0.1198 1.499e-22)
(1.327 0.2776 5.072e-22)
(1.268 0.5693 2.109e-22)
(1.004 -0.01829 0)
(1.095 -0.3018 0)
(1.089 -0.3285 0)
(1.022 0.002738 2.881e-21)
(1.096 -0.2898 -3.644e-22)
(1.294 0.4131 -8.61e-22)
(1.062 -0.321 0)
(1.13 -0.1238 1.029e-22)
(1 1.009e-05 4.667e-23)
(0.9999 2.52e-06 -1.432e-22)
(1.121 -0.09854 0)
(1.065 -0.3011 0)
(1.002 -0.001926 -4.21e-20)
(1.131 -0.2304 1.529e-22)
(0.9864 -0.02239 -5.883e-21)
(1.014 -0.01246 -6.728e-21)
(0.9468 0.2501 -2.817e-21)
(1.116 -0.2845 0)
(0.986 -0.007298 -4.452e-22)
(1.105 -0.09541 -3.333e-25)
(1.036 -0.1523 5.624e-22)
(1.138 -0.2123 0)
(0.9907 -0.000576 -7.58e-22)
(1.121 -0.1676 0)
(0.999 4.356e-06 9.062e-22)
(0.9984 1.973e-05 1.708e-21)
(0.9987 2.001e-05 1.391e-21)
(0.9977 4.582e-05 -3.207e-21)
(1.059 -0.07096 -1.231e-21)
(1.137 -0.215 -3.606e-22)
(0.9736 -0.417 8.252e-22)
(1.135 -0.1463 -2.468e-23)
(1.005 0.0003535 0)
(1.138 -0.1331 0)
(1.136 -0.1449 -4.318e-22)
(0.8881 -0.07626 1.594e-21)
(1.138 -0.1347 1.4e-22)
(0.4784 -0.3224 -7.365e-21)
(1.126 -0.2738 3.695e-25)
(1.033 -0.1069 -3.515e-22)
(0.6811 -0.1722 -8.91e-22)
(0.8814 -0.4359 3.286e-22)
(1.01 0.01694 0)
(1.14 -0.2418 0)
(1.129 -0.1082 0)
(0.9247 -0.05243 -3.201e-21)
(0.8396 -0.3323 -9.34e-21)
(1.008 0.006869 -1.174e-21)
(0.9875 -0.004473 -8.195e-22)
(1.008 0.0001441 1.113e-21)
(0.8995 -0.3682 1.992e-23)
(0.9629 -0.4011 -5.343e-22)
(0.9968 -0.01208 -2.205e-20)
(1.024 0.009343 3.26e-21)
(1.054 -0.04645 -9.357e-22)
(1.132 -0.1668 0)
(0.5275 -0.4575 2.214e-21)
(1.135 -0.1449 4.644e-22)
(1.093 -0.1174 0)
(0.9967 0.3054 3.237e-22)
(0.987 0.01068 6.467e-23)
(0.9863 -0.3936 0)
(1.014 0.01675 8.917e-25)
(1.005 -0.01746 -5.681e-22)
(0.9935 0.0003181 -3.383e-22)
(0.6053 -0.4683 9.507e-22)
(1.141 -0.2125 4.134e-22)
(0.9953 0.005099 -8.788e-21)
(1.068 -0.09107 -9.808e-22)
(1.143 -0.1742 2.514e-24)
(0.992 -0.0005947 0)
(1.065 -0.2015 7.557e-22)
(0.9286 0.8682 3.356e-22)
(0.9989 0.0009487 0)
(1 0.0008334 2.758e-21)
(1.045 -0.1352 0)
(1.035 0.02601 2.691e-21)
(1.311 0.324 0)
(1.179 0.7174 -2.451e-22)
(0.8771 0.153 -1.702e-21)
(1.12 -0.1282 -3.41e-22)
(1.007 0.0179 0)
(1.144 -0.198 3.924e-22)
(1.008 0.00659 0)
(1.121 -0.1337 -1.139e-22)
(1.19 0.5399 6.076e-22)
(0.6706 -0.1585 -1.116e-21)
(1.114 -0.1196 0)
(0.9416 -0.06698 0)
(1.008 -0.0006495 -6.713e-21)
(0.6719 -0.1519 1.247e-21)
(0.9831 -0.3937 6.408e-22)
(0.9996 0.0003324 -1.597e-21)
(1.015 -0.03082 -3.014e-21)
(1.124 -0.1398 -9.339e-22)
(1.004 0.01908 -1.689e-22)
(1.146 -0.1842 -4.059e-22)
(0.9135 -0.4285 -1.193e-21)
(0.3166 -0.2729 8.206e-22)
(1.108 -0.09911 3.2e-23)
(1.024 -0.09088 0)
(0.9401 -0.4302 -7.91e-22)
(0.9356 0.008879 0)
(1.111 -0.1383 0)
(0.9561 -0.4276 -9.64e-22)
(0.9937 0.01755 2.193e-21)
(0.7926 0.7141 1.99e-22)
(1 0.001559 -1.455e-20)
(1.145 0.5911 9.296e-24)
(0.7817 -0.4581 0)
(0.9988 2.319e-05 -2.316e-22)
(0.3645 -0.2972 1.296e-20)
(0.9968 0.0003076 -2.392e-22)
(0.6991 -0.476 1.421e-20)
(0.9675 -0.09547 -1.052e-21)
(1.135 -0.2507 0)
(0.2114 0.6368 5.283e-23)
(0.8738 -0.1428 -1.901e-21)
(1.14 -0.141 0)
(1.008 -0.0004948 -8.749e-21)
(1.139 -0.1351 -2.159e-22)
(1.031 -0.1131 0)
(1.144 -0.1636 0)
(1.132 -0.2591 0)
(1.025 -0.214 3.659e-22)
(0.9549 -0.02217 3.799e-21)
(1.079 -0.1333 2.57e-22)
(0.9428 -0.1797 4.873e-21)
(1.144 -0.1768 -3.978e-23)
(1.007 -0.03057 0)
(1.143 -0.1676 -6.889e-23)
(0.9969 0.0003133 -2.74e-22)
(0.975 -0.009749 -2.89e-21)
(1.131 -0.127 -1.229e-22)
(1.146 -0.1838 0)
(0.998 3.448e-05 1.062e-21)
(1.038 -0.01306 -2.274e-21)
(1.13 -0.195 0)