/*--------------------------------*- C++ -*----------------------------------*\
  =========                 |
  \\      /  F ield         | OpenFOAM: The Open Source CFD Toolbox
   \\    /   O peration     | Website:  https://openfoam.org
    \\  /    A nd           | Version:  8
     \\/     M anipulation  |
\*---------------------------------------------------------------------------*/
FoamFile
{
    version     2.0;
    format      ascii;
    class       volScalarField;
    location    "35";
    object      nut;
}
// * * * * * * * * * * * * * * * * * * * * * * * * * * * * * * * * * * * * * //

dimensions      [0 2 -1 0 0 0 0];

internalField   nonuniform List<scalar> 
63564
(
1.151e-09
6.567e-11
8.117e-11
2.936e-10
2.849e-10
8.075e-06
1.493e-10
3.643e-10
6.036e-06
4.548e-09
0.03943
0.01936
7.254e-06
0.00494
8.107e-06
7.735e-06
6.156e-05
5.099e-05
0.0004561
0.0001013
0.001873
0.01467
8.786e-05
0.0194
3.638e-09
0.03804
0.0001059
0.004762
0.001103
6.601e-06
0.00484
0.04037
0.04096
0.01326
0.003412
0.0004511
0.1488
0.002993
0.003101
0.0006884
6.678e-05
0.01116
5.785e-05
0.002722
8.527e-06
0.0003221
0.000129
0.005945
0.003222
5.174e-05
0.04354
0.005015
0.001888
0.0002849
0.004523
0.1527
0.00341
0.004325
5.262e-05
0.00325
3.205e-06
0.0003682
0.009368
0.002629
0.002006
0.001703
0.002806
3.758e-07
0.002099
0.1954
0.006626
0.2061
0.006631
0.009521
0.004958
0.001616
0.01611
0.006138
0.004888
0.0002049
0.000704
0.002006
0.0005553
0.001493
0.000199
0.009497
0.001516
0.002643
0.001456
0.001539
0.01372
0.003593
0.002015
0.2026
1.748e-07
0.00948
1.662e-06
0.002054
1.785e-09
0.002128
0.0839
0.004265
0.001277
3.309e-06
8.457e-05
0.002493
0.005345
0.0001799
0.0001797
0.01511
0.0004054
0.0066
0.004594
0.01204
1.498e-06
0.004659
0.002014
7.823e-08
0.004347
0.002125
0.0007207
0.002758
0.009428
3.512e-06
5.346e-05
8.891e-06
0.008667
0.006662
0.009505
0.04511
0.00601
0.0006546
0.0006787
0.01421
0.006018
0.004245
0.004849
0.003737
0.003321
2.069e-07
0.001844
0.01676
0.000507
0.0002966
0.002763
0.01483
0.0001573
0.02224
0.0001513
0.01207
0.05779
0.0005784
0.009565
0.0001962
0.0006224
0.009201
0.009156
0.001671
0.2128
0.005646
0.003923
0.0007056
0.002697
0.002205
0.0244
0.001505
0.003806
0.0008196
0.006548
0.0005862
0.007435
0.003782
0.05174
0.001107
0.001161
0.0003751
0.001042
0.1074
6.263e-06
0.005065
0.03723
1.967e-05
9.869e-05
0.008988
0.02089
0.00029
0.0004523
0.0005395
0.0001134
0.005231
0.001547
0.003794
0.005596
0.001978
0.003584
0.01381
0.001591
3.209e-05
0.0009997
0.00637
0.0008378
0.001021
0.001342
0.06692
0.006517
0.0008319
0.001259
0.1894
0.0003143
0.004278
0.004791
0.0003333
0.002244
0.00104
0.0027
0.01639
0.004147
0.01616
0.003954
0.005216
0.0005685
0.005674
0.04225
0.01251
0.04404
0.000326
0.007211
0.001065
0.006736
0.00843
0.0002802
0.004266
3.475e-08
0.001663
0.002132
0.009962
1.278e-08
1.57e-06
1.034e-06
0.0008492
0.003128
0.008873
0.001875
0.004607
0.005727
5.789e-05
0.003404
5.076e-06
0.0002292
0.01684
0.0002368
0.000298
0.005161
0.0001378
0.01981
0.0006321
0.01503
0.0006002
0.001171
0.000509
0.00025
0.009321
0.009994
0.001979
0.001103
0.00012
0.00232
0.003307
0.0006644
0.003706
0.0001734
3.718e-05
0.0002938
0.004768
5.745e-05
0.001298
0.004062
0.001813
0.022
0.0006055
0.009547
8.583e-05
0.001752
0.008573
0.0004332
0.0001413
0.002375
0.007484
0.001155
0.001362
0.004948
0.006871
0.003582
0.0004483
0.0001542
0.0004592
0.009259
0.004818
0.004016
0.0007535
0.0004051
0.001452
0.004333
0.02214
0.009933
0.008447
2.746e-05
0.001584
0.001219
0.0004511
0.0004179
0.004486
1.212e-08
0.0002005
0.002791
0.002229
0.001888
0.001708
0.0009722
0.002871
0.0005275
0.005416
1.491e-05
0.002013
0.02207
0.02121
0.0002316
0.007588
0.0004537
0.00976
0.08766
0.05329
0.0003342
2.879e-07
0.00631
0.005343
4.252e-05
0.03009
0.01223
0.004032
0.003515
0.01625
0.009663
5.465e-09
0.0009689
0.02498
0.003801
2.687e-05
0.001115
0.0008771
0.001445
0.0009648
0.001873
0.00509
0.0002476
0.0004222
0.006321
0.005691
0.001829
0.001697
0.0008129
0.005029
0.01199
9.991e-05
0.03914
0.009127
0.0002774
0.002
0.0004284
0.007238
1.779e-06
0.007352
0.0003151
0.003816
0.002988
3.734e-09
0.002045
0.002519
0.0001804
0.003368
0.000768
0.001267
0.0008223
0.02637
0.001023
0.005073
0.001406
0.02211
0.01271
0.009264
0.0007632
0.004105
8.202e-06
0.003205
0.001696
0.0004975
0.0002054
5.524e-05
0.09599
0.002832
0.001325
0.008597
5.84e-05
0.0004463
0.0002557
0.0003613
0.03954
0.02046
0.0005151
0.11
0.0002872
1.431e-05
0.002703
0.001296
1.143e-05
0.001704
0.0002052
0.02711
2.588e-05
0.005884
0.002533
0.01475
0.03491
0.002073
0.0003962
7.733e-06
0.001563
0.012
0.0005424
0.004376
0.0005227
0.002325
0.01466
0.03917
5.262e-06
8.213e-06
0.005857
6.856e-05
0.001083
0.02073
5.563e-06
0.02938
0.0008847
0.00991
4.151e-05
7.502e-06
0.001405
0.0004619
0.0009102
0.09018
0.1893
0.0001207
0.004673
9.129e-05
0.007052
0.001074
0.004719
0.0002232
0.0008578
0.0004374
0.006461
0.009518
0.002379
0.001409
0.005228
0.0003814
0.0003678
0.007545
0.0008229
6.472e-05
1.105e-05
0.004536
0.005923
0.002931
0.004776
0.000554
0.0104
0.0006345
0.02349
0.0001558
0.001342
0.02235
0.0004207
0.006029
0.01143
0.001505
2.005e-05
6.19e-05
0.01235
0.002526
1.615e-05
0.003802
0.004004
5.563e-06
0.0004189
0.0004506
0.0003686
0.004899
0.0007167
0.0001174
0.002649
0.001082
0.001132
1.697e-05
0.03606
0.0003806
0.007192
0.0007287
0.0005715
4.73e-05
0.0004009
1.116e-05
0.002216
0.0008341
0.02902
0.0006995
0.0008049
0.007506
0.003426
0.0002483
0.01334
0.0007133
0.0003497
0.006721
0.0007278
0.001137
0.0005496
0.0005633
0.0131
0.000273
0.00112
0.0009568
0.004828
0.0008539
0.0002165
1.604e-05
0.007395
2.678e-05
0.002959
0.001454
0.000194
7.117e-05
5.242e-06
0.0001843
0.0002386
0.01227
0.03169
0.00013
3.649e-06
0.002262
0.0008605
0.0003969
7.365e-05
0.001579
0.008361
0.02846
8.242e-06
0.01086
2.33e-05
0.004455
1.627e-05
0.0002731
0.0001958
0.009576
1.464e-05
0.001502
4.269e-08
0.03507
3.93e-05
0.007771
0.0001094
0.0002054
0.001031
0.05832
0.01392
0.001349
0.002491
0.008966
4.687e-05
0.005175
0.00602
0.02285
8.568e-06
9.996e-05
0.0001113
0.001264
0.002112
0.009554
0.003112
0.02179
0.0001157
0.0001392
0.0002056
0.003471
0.004495
0.0242
0.0003687
0.0003143
0.001595
0.0001174
0.001533
0.006887
1.185e-05
0.002485
0.0004664
0.003216
0.01685
0.1089
0.003209
0.01933
0.001492
0.001169
0.000833
0.0004736
0.007908
0.01531
0.01467
0.00157
0.003921
0.004434
0.03929
0.002677
0.008288
0.01417
0.06666
0.0002448
0.001877
4.201e-06
0.001152
0.0004021
0.0003307
0.001951
0.001331
2.56e-05
0.002353
0.002007
0.002521
0.02391
0.0002488
0.0119
0.001961
0.000839
0.009884
0.009361
2.406e-05
0.001082
0.006006
0.0008343
0.003589
0.00149
1.021e-05
0.001995
0.001113
0.007117
0.004605
0.006179
0.001358
0.008192
0.006762
0.001955
0.00129
0.0003442
0.07244
0.0002479
0.003239
2.241e-07
8.118e-05
6.592e-06
0.001142
0.06854
7.502e-05
0.002821
0.0002139
0.0006228
0.002951
0.005042
0.01986
1.013e-05
0.002567
0.001045
0.07354
0.03922
0.01091
0.006215
0.004092
0.0004028
0.0003625
0.005652
0.0008309
0.0007617
0.005594
0.001413
0.0003223
0.05608
0.003566
0.002081
0.0001941
0.09269
0.0006118
5.893e-06
0.1208
8.313e-06
0.001316
0.001638
6.626e-05
0.01097
0.007305
0.0003489
0.003298
0.003008
0.0002227
0.007386
0.0002483
9.29e-06
0.0006698
0.005272
0.004614
0.0003918
0.05775
0.005136
2.626e-05
0.00159
0.0003431
0.005883
7.997e-05
0.0002198
0.003677
4.896e-05
7.545e-05
0.0001053
0.004664
0.007061
0.007696
0.004526
0.0004491
0.0003383
0.0964
0.003837
1.059e-05
0.001158
0.000435
0.003587
0.001552
0.001143
0.007188
0.0005362
0.01855
0.005922
1.379e-05
0.05935
0.002547
0.003988
8.612e-05
0.00111
0.02084
0.02656
0.007052
0.01863
0.009514
0.001567
0.001766
0.002582
0.001811
0.1475
0.04752
0.004329
0.0001274
0.03899
0.009242
0.00136
0.001872
0.007531
0.01136
0.007412
0.0004721
0.00126
0.005054
0.003847
0.03121
0.002533
0.000683
1.325e-05
0.0006261
4.084e-05
0.02077
0.001048
0.01041
1.354e-05
0.001029
0.0003531
0.003605
8.049e-05
0.001268
0.001536
2.834e-06
0.000662
0.0009473
0.001224
0.005358
0.002986
0.0002055
0.0005365
0.0004895
1.216e-05
0.004105
0.002921
0.03124
0.1965
0.0006759
0.02482
0.012
0.0008869
0.006131
0.0009983
4.771e-05
0.004711
0.000188
0.004256
0.008082
0.0009454
0.005491
0.00698
0.0002087
0.003596
0.01075
0.2472
0.02323
0.004391
7.654e-06
0.001766
0.01943
0.003122
0.0008015
0.01068
1.107e-05
1.977e-05
7.748e-06
0.01068
0.0001144
0.03145
0.004436
1.785e-06
0.009222
0.1857
8.421e-05
0.00143
0.007599
0.005116
2.239e-05
0.01004
0.00114
0.04487
0.004995
0.001802
0.002041
7.439e-05
0.01429
0.05242
7.494e-05
0.0113
0.0002014
0.0001236
0.008679
0.0023
0.003695
0.0004424
0.001048
0.0003774
0.00086
0.03189
0.01317
0.08699
9.228e-05
0.00116
0.002271
0.001581
0.008017
0.007112
0.08158
1.225e-05
0.0002022
0.004672
0.01015
0.001186
0.0001526
0.009033
0.001676
0.00764
0.001788
0.0004809
0.03877
0.005402
0.01184
1.51e-05
0.01385
0.000625
0.01214
0.01454
8.762e-06
0.01363
0.0002284
0.0004235
0.001847
0.001613
0.02533
0.002095
0.08349
0.001948
0.0003324
0.003234
0.002222
0.0007459
0.001751
0.0042
6.42e-05
0.0005185
0.0009183
4.711e-05
0.00166
0.003886
0.003068
0.001587
0.002738
0.003577
0.002548
0.008514
0.002442
0.0007702
0.001084
0.0003564
0.0003279
0.001527
0.005607
0.01501
0.0008358
0.0001144
0.0001777
0.004011
0.0002626
0.0001988
0.002912
0.005615
1.153e-05
0.001448
0.00256
0.03596
0.00768
0.0001882
0.007799
0.09673
0.0001761
0.009008
0.004965
0.01421
1.405e-05
0.0002085
0.001264
0.002387
0.001671
8.381e-05
0.0193
0.00262
0.006169
0.0001124
0.03385
4.448e-05
0.02952
0.1137
9.315e-06
0.04192
0.0002324
0.03183
0.007246
0.0001135
0.001392
0.001455
0.00523
8.493e-06
0.003659
0.001693
6.411e-06
0.009274
3.309e-05
3.757e-05
0.0001982
0.007359
8.146e-05
0.0001533
0.004564
0.003378
0.02288
0.007557
0.0003822
0.008059
0.005345
2.712e-05
0.007052
0.0008045
0.002886
0.02416
0.003082
0.0006476
0.0002802
0.001792
0.0007292
2.059e-05
0.0009828
0.002751
0.0007164
0.005326
0.0002429
0.02116
0.002995
4.173e-05
0.013
0.2391
0.001017
0.007316
0.002343
1.102e-05
0.003114
0.01003
0.0008884
0.002281
0.0001086
0.00455
0.004325
0.01696
0.001324
2.91e-05
0.0008818
0.0001409
0.04242
0.002245
0.002519
0.0006653
0.004042
0.0003495
0.001929
0.002329
0.0001257
0.0003276
0.0001001
0.0006446
0.005093
0.001877
2.752e-05
0.001841
0.001829
0.0003926
0.001822
0.001576
0.007127
0.001079
2.59e-05
0.1996
0.0003156
0.001824
0.0006781
0.005877
0.04924
0.0003257
0.0001968
0.006079
0.001741
0.01817
0.01054
0.002506
0.002174
7.601e-06
0.05265
0.006457
0.0001958
0.00377
0.0005215
0.006885
9.494e-05
7.136e-05
7.805e-05
4.977e-06
0.01923
0.01119
0.02146
2.049e-06
0.0001652
0.002356
2.081e-05
0.009341
1.993e-05
0.001596
0.006331
0.0005436
0.02079
0.0005319
0.06859
0.000818
0.000587
0.0002326
0.02747
6.687e-05
0.001981
0.008958
0.005054
0.0005828
0.002156
0.005096
0.004145
0.0004826
0.0005794
9.233e-06
1.282e-05
3.646e-06
0.0008538
2.28e-05
0.0001398
0.0002595
0.0004233
0.00578
0.009669
0.001132
2.578e-05
0.009828
0.006928
6.945e-05
0.002308
0.0007195
0.004249
0.002403
0.01537
0.0007588
0.09676
0.0004394
0.0009455
8.888e-06
0.0002436
0.003258
0.01923
0.0005443
0.001306
0.001991
1.598e-05
8.525e-06
0.001539
0.001541
0.02305
0.01479
1.469e-05
0.006786
6.922e-05
0.001537
0.002794
0.003258
0.004837
0.09603
0.002117
0.003724
2.944e-05
0.01006
2.139e-06
0.05105
0.1847
9.987e-06
0.0004869
4.545e-05
0.03033
0.008928
0.001875
0.008326
0.0005698
0.005271
0.0001322
0.001376
0.0011
0.003008
0.001464
0.00104
0.04547
3.462e-05
0.0312
0.001043
0.02177
0.001132
0.01856
0.004807
0.0005412
0.000335
0.0001485
0.001892
0.0003802
0.002437
3.536e-05
0.001306
0.0001674
0.03206
0.0009279
0.006117
0.01227
0.002762
0.0001498
0.0003979
0.001112
0.09713
0.009601
1.234e-05
0.0007172
0.002085
0.0009592
0.0004601
0.005165
0.001683
0.003916
0.003698
0.006207
0.0001378
0.001082
0.0002275
0.004914
0.005372
0.0008927
0.006056
0.0003945
0.009055
0.0007601
0.0144
0.002308
0.0008131
9.034e-05
0.001333
6.956e-06
0.004459
4.259e-05
0.001403
0.002086
1.124e-05
0.0001322
0.002404
0.008865
0.001561
0.03069
0.001
0.003453
0.0006014
2.926e-05
0.04134
0.000347
1.459e-05
0.01645
0.00476
2.207e-05
0.001199
0.002493
6.23e-05
0.006269
0.006234
0.0007071
0.03724
0.000802
0.01954
0.01179
0.006379
0.0006471
0.03079
0.00504
1.12e-05
0.007844
0.1139
0.001276
0.01327
0.0011
0.01953
1.394e-05
0.003642
0.1426
0.0001107
0.009237
0.003174
0.05272
0.0002383
0.002755
0.002629
0.006192
0.01327
0.0003011
0.002733
8.823e-05
8.821e-05
0.00207
0.0003197
0.0006782
0.1058
0.001146
1.367e-05
0.0001556
0.009061
9.331e-05
0.001406
0.002359
0.0001485
0.004588
0.000277
0.001001
0.009772
8.724e-05
4.238e-05
0.0002725
0.002987
0.0008172
0.0033
0.0154
0.1159
0.00211
0.0002552
0.01072
0.02633
2.691e-05
1.983e-05
0.002468
0.0001149
0.01337
0.02033
7.373e-05
0.0004069
0.000528
0.003891
0.002913
0.01071
0.000761
0.05618
0.003481
0.01512
0.02904
0.0003941
1.14e-05
6.724e-05
0.003304
0.0001599
0.002128
0.0008627
0.02081
4.091e-05
0.0001176
0.003294
0.0238
9.046e-06
0.002276
0.01253
0.0003185
0.001784
7.471e-06
0.005468
0.000796
0.003123
0.002334
0.0004823
0.001117
0.01941
0.0117
0.01441
0.01028
0.0001943
0.00299
0.01463
0.0001175
0.00212
1.831e-05
0.01306
0.02583
0.0001001
0.0003963
0.001107
0.005734
0.002382
0.000542
0.00392
0.2274
0.01133
0.002932
0.0007989
0.07595
3.385e-07
0.0003444
0.006513
0.001139
0.00484
0.003813
0.0001559
0.0005949
0.0001208
0.001947
0.01477
0.0009391
0.0005133
9.683e-07
0.003139
0.01666
0.006615
0.0001369
0.08373
0.003911
0.005056
0.001606
0.008749
0.0004343
0.001623
0.08135
0.02292
0.001948
0.0233
0.0002669
0.0001228
0.002272
0.0001858
0.0002052
0.005321
9.007e-05
0.04451
0.02222
8.425e-06
0.006571
0.006571
0.002829
0.00834
0.01015
0.0008319
0.003825
1.34e-05
1.267e-05
0.0001119
0.00547
0.03046
0.0007695
0.007796
0.006433
0.001428
0.003069
0.002142
0.0464
1.135e-05
0.003058
0.000403
0.00203
7.261e-05
0.008609
0.000809
0.0009903
0.0001195
0.005578
0.003504
0.004587
0.001062
0.0007258
0.008015
0.003089
6.229e-06
0.01656
0.0009465
0.01511
0.2024
0.002559
0.000354
0.07003
0.002723
1.511e-05
1.165e-05
0.001304
0.1273
0.0001619
0.007296
0.01549
0.0003968
0.0265
0.001593
0.01274
4.406e-05
0.0004099
0.00198
0.0008814
0.005155
0.04432
0.0008228
0.001518
9.581e-07
7.881e-05
0.00348
0.01213
0.02133
0.00552
0.0009999
0.0001929
0.0003103
0.002376
0.02689
0.0009488
0.003879
1.248e-05
0.00519
0.0005639
0.001277
0.02271
0.01328
0.00347
9.5e-06
0.0003671
0.001438
0.003045
0.001709
0.002333
0.009422
0.01319
0.003487
0.00245
0.05741
0.008124
0.02026
1.076e-05
0.0003396
0.0007097
0.0141
0.0002835
0.003337
0.0005256
0.01376
0.008272
0.00603
0.004398
0.0005247
0.0005571
0.002422
0.002367
0.00075
0.003037
0.0005744
0.009349
1.914e-06
0.004104
0.001043
0.0006365
0.002063
0.003102
0.0001165
0.003502
0.1119
0.0006657
0.0005323
0.001902
0.0002341
0.0001668
0.002145
7.529e-06
0.001908
0.008302
0.0002224
0.0002915
0.006476
0.01726
0.01505
0.05309
0.01098
0.05358
0.005648
0.0002087
0.03795
0.0001724
0.002813
0.01963
1.2e-05
1.434e-05
0.001242
0.01219
0.0005537
0.002359
9.458e-05
0.007559
1.077e-05
0.00233
0.1367
7.598e-05
0.003392
0.0007514
0.003992
0.0001108
0.001306
1.606e-05
0.1025
0.004916
0.01134
0.0001826
0.002863
0.001243
3.587e-05
0.001161
0.002282
0.1301
0.003747
0.007527
0.0001053
0.006547
0.0557
0.001635
9.138e-05
0.001091
0.003907
0.002146
0.004893
0.01217
0.001427
4.827e-05
0.04007
0.01886
0.002808
1.646e-05
0.0006096
0.02117
0.01639
0.0062
0.01026
0.009341
0.0001101
0.07839
0.001437
0.002204
1.352e-05
0.09551
0.0002842
0.01114
0.102
0.0166
0.003771
0.004085
0.008226
0.005862
0.004976
0.0004849
0.000726
0.001591
0.0003771
0.0005732
0.000143
0.003348
0.1393
8.33e-05
0.006475
0.0005704
0.02705
0.0001954
0.02064
0.004199
0.01274
0.0007277
0.0003763
0.007791
0.0002406
0.005201
0.005464
0.0004855
0.00907
0.005412
0.00398
0.00109
0.01985
0.002617
0.00228
0.001138
0.0006412
0.00378
0.003142
0.001793
1.166e-05
0.0005833
0.003947
0.01766
0.0003089
0.01126
1.14e-05
0.000422
0.003826
0.002362
0.001333
0.003027
0.0002565
0.0005387
0.004734
0.0002011
0.006782
0.0005751
0.002822
1.78e-05
0.009351
0.004555
0.006971
0.007501
0.003562
0.03172
0.001149
0.0007252
0.001539
0.004224
0.004312
0.0002987
0.0006161
0.001685
0.00172
0.0005188
0.0003915
0.001242
0.09805
2.574e-05
0.001362
0.01721
0.0006231
0.0005289
5.257e-05
0.002154
9.632e-06
0.001534
0.001312
0.0009108
0.003095
0.01185
0.001756
0.001261
0.003585
0.0005186
0.0008849
0.003801
0.0001559
0.001546
9.239e-05
0.001949
0.05031
4.246e-05
0.0001087
0.0003248
0.004993
0.002815
0.002292
0.01188
9.92e-05
1.145e-05
0.008082
0.001157
0.00986
0.00299
0.008754
5.489e-05
0.004938
0.0005093
0.008324
9.706e-05
0.0002823
0.002017
0.0008933
9.195e-05
4.904e-05
0.01795
0.003054
0.006577
0.009115
0.008058
0.002126
0.0009073
0.1263
0.001095
0.002512
1.534e-05
0.03508
0.0007483
0.02542
0.0002496
0.004525
0.006724
0.001595
0.003283
0.004038
0.003675
0.00477
0.002182
0.0001179
0.001611
0.003751
0.005442
0.001915
0.004136
0.003094
0.001512
0.00381
0.001543
0.00566
0.0008973
0.005082
0.003434
0.0004745
0.004893
0.0002364
0.01018
0.0007965
0.0008625
0.004758
0.001979
0.02984
0.000837
0.002122
0.0004702
0.008344
0.001425
0.005403
0.00159
0.002619
0.0009668
0.002211
0.004116
0.002645
0.01783
0.000233
1.336e-05
0.01167
1.178e-07
0.0001017
0.0002102
0.005363
0.006293
0.007134
3.322e-06
0.006578
0.0001996
1.604e-05
0.004813
0.006919
1.334e-05
0.001138
0.005578
0.0002753
0.0008696
0.0004162
0.002188
0.000115
0.00251
0.01868
0.003365
0.139
0.0007197
0.004481
3.284e-07
0.002635
0.0003704
0.0001394
0.0001176
0.03728
0.01021
0.02806
0.0007418
0.0005627
0.002687
0.000757
9.795e-05
0.001433
0.007139
0.0001193
0.0004124
0.004022
0.003675
0.0002963
0.0008055
0.002029
4.879e-05
0.001255
0.0003189
0.0658
7.587e-06
0.003314
0.0003035
0.02391
0.004312
0.002155
0.001279
0.003002
0.005752
0.002799
0.001231
0.001677
0.004179
0.001766
0.0002352
0.002916
0.001819
0.002395
0.2094
0.0001215
0.01158
0.009849
0.002347
0.001349
0.0008843
0.008936
0.0001772
0.01317
0.003792
0.0077
0.0002407
0.03555
0.0291
0.01872
0.01825
1.153e-05
0.0003233
0.007332
0.005766
0.002974
0.0007804
0.0007303
0.0006641
1.789e-05
0.01258
0.05588
0.006798
0.06374
0.005188
0.0004371
9.572e-06
0.001309
0.0002426
0.0001385
0.03324
7.954e-06
0.00103
0.009308
0.2331
0.006889
0.128
0.0004487
0.004497
0.007677
0.0008843
0.008955
0.001239
0.0008998
0.0001927
0.001844
0.1033
0.002682
0.005417
0.002426
0.001222
0.008289
0.1044
0.002383
0.0008825
0.0004835
0.008931
0.0002376
0.006374
0.003581
0.01442
0.000151
0.0001396
0.004692
0.00543
0.02564
0.03121
0.0009902
0.008412
0.002256
8.167e-06
0.002276
3.677e-05
1.916e-05
0.001421
0.001055
0.001412
0.005087
0.00122
0.001083
0.0005948
9.651e-06
0.001115
2.414e-05
8.201e-05
7.466e-05
1.117e-05
0.006456
0.009561
0.003818
0.07414
0.0001914
0.000585
0.03131
0.02825
0.00991
0.009051
0.007588
0.0006087
0.0008946
0.00553
4.346e-07
0.0001602
0.001958
0.0003071
0.007249
0.00218
0.005643
0.01642
0.05291
0.003622
0.005433
0.01797
1.54e-05
0.0009723
0.002157
0.01381
0.002205
0.0003726
0.003685
0.002704
0.001105
0.0002546
0.0003078
0.0001913
0.0005094
0.006789
0.0004013
8.93e-06
0.0005368
0.004515
0.02163
0.0004183
0.0002317
0.002705
0.00496
0.0102
0.007456
0.001313
7.415e-06
0.0001534
0.0008015
0.0002368
0.0005134
0.001738
9.355e-06
0.005897
0.004364
0.00333
0.00131
2.342e-05
0.0004035
0.0001969
0.0002869
7.04e-05
0.0007382
0.006579
0.00319
0.007589
0.000164
1.036e-05
0.0003352
0.0001435
1.329e-05
0.008709
0.000272
0.0004928
0.01656
0.003107
0.005651
1.139e-05
0.007137
0.008277
0.002206
1.364e-05
0.006529
0.0008382
0.003395
0.004986
0.0003478
0.03768
0.001446
0.08835
0.007204
0.0001471
0.004065
0.002691
0.001617
0.001797
0.007941
0.001622
0.001213
0.00315
0.04978
7.4e-05
4.273e-05
1.142e-05
0.191
0.001594
0.0001137
0.0188
0.004394
0.004051
0.001087
0.005247
0.0007763
0.001372
0.0002146
0.002118
0.0514
4.452e-05
0.003373
0.0009928
0.0001958
0.000977
0.0007136
0.005908
0.0001437
0.0001525
0.0005264
8.671e-05
0.023
0.01061
0.0003835
0.005493
0.00342
0.005043
0.004219
0.005796
0.002775
2.203e-05
0.01308
0.02368
1.032e-05
0.00013
0.0005068
0.02157
0.0003952
0.004322
0.004995
0.0002272
0.006036
9.173e-06
0.01176
0.0001724
0.01308
8.674e-06
0.0002984
0.0006431
0.0001069
1.793e-05
0.0005935
0.0006004
0.002085
0.0001281
1.323e-05
6.96e-05
0.0003213
0.002921
0.008089
0.00132
1.875e-05
9.593e-05
0.0004615
0.006522
0.006936
0.0002375
0.01524
0.0002605
0.003264
0.00223
0.0118
0.01704
0.001625
0.0001562
0.007909
0.0008769
0.001169
0.0005478
0.002479
0.002129
1.049e-05
0.004932
0.008787
0.001039
0.002646
0.001847
4.754e-07
0.0003349
0.003231
0.003988
0.003094
0.004841
0.001943
0.01283
0.003473
0.0001967
0.0001564
1.188e-05
0.02549
0.006232
0.001151
0.0007567
8.612e-06
0.01454
0.0006446
1.327e-05
0.02267
0.005937
0.0132
0.002553
0.0007033
1.202e-05
0.003878
0.01244
0.0001581
0.0008447
0.002218
0.1349
0.004421
0.005465
0.01441
0.002802
0.001288
1.359e-05
0.0004052
0.006535
0.00318
0.003004
8.337e-06
0.0005155
0.003721
0.001292
1.249e-05
7.094e-06
0.0003069
0.001581
0.002934
1.485e-05
0.006391
0.00311
9.524e-06
0.003404
0.000294
0.0008331
0.04047
0.0007408
0.009265
0.002193
0.002232
0.01004
0.0007074
2.232e-05
0.001264
0.01204
0.002747
0.007081
0.005049
0.001314
0.005595
0.0009039
0.005016
0.002152
1.588e-05
3.763e-05
0.0001731
0.001535
0.001671
0.00126
0.001687
0.0007877
5.508e-05
0.0008713
0.001512
0.001364
0.0001894
0.128
1.649e-06
0.0007979
0.0007488
0.001516
9.699e-05
1.32e-05
0.004435
2.42e-06
0.02217
0.003843
0.01786
2.401e-05
1.05e-05
0.0004763
0.001324
6.146e-06
0.0002759
0.0001546
0.00577
0.008144
0.0001107
6.115e-05
1.132e-05
0.01071
0.01317
0.01548
0.009792
0.05091
0.01037
0.0006277
0.007764
0.03195
0.0004262
0.001586
9.761e-06
0.0002517
5.669e-05
0.001471
1.378e-05
0.001645
0.001664
0.08581
0.004338
0.01273
0.004907
0.0002232
0.001498
0.0007171
0.002943
0.001296
0.09729
0.02466
1.668e-05
0.0001131
1.149e-05
3.212e-05
0.004489
0.001148
0.009952
1.201e-05
0.03378
0.004506
0.001517
0.001279
0.000619
0.000236
0.0009336
0.009791
0.0006153
0.0001176
0.002372
0.0003567
0.00027
0.004501
0.001502
0.001181
0.0002086
2.704e-05
0.0003102
0.0003967
0.00403
0.004659
0.005904
0.0001588
0.001208
0.003834
0.006002
0.01829
0.0001595
3.777e-05
3.772e-05
0.000477
0.0004982
3.157e-05
0.000247
0.0002425
0.01843
0.002091
0.002924
0.001261
4.173e-05
6.979e-06
0.003611
0.002215
0.000856
0.003187
1.236e-05
0.003118
0.00739
1.204e-05
8.961e-06
7.37e-07
0.1284
0.005395
1.13e-05
0.002025
4.227e-07
0.0002103
0.1061
0.00613
0.001294
0.001835
0.01941
0.0008306
0.001011
0.007895
0.0008635
1.301e-05
3.248e-06
0.0008719
0.001672
8.612e-05
0.00445
0.02184
0.004665
0.005748
0.001356
0.002908
0.004938
0.0001732
0.001507
0.00233
0.001851
0.1186
0.001381
0.003941
0.0003086
0.01035
0.0002398
9.036e-05
0.0001544
0.0007786
0.001757
1.514e-05
2.173e-05
0.006841
0.0003533
0.0002733
0.0007682
0.006525
0.0002923
7.76e-06
0.0005674
0.007655
0.001103
0.003897
0.002045
0.0002667
0.01008
0.0002528
0.001416
0.00785
0.004825
0.008131
0.002915
0.0003311
0.003827
0.007487
0.0001769
0.005988
0.004532
0.001523
8.148e-08
0.004985
7.531e-06
0.002006
0.007176
0.005488
0.002714
0.001021
0.0009089
0.000372
0.0003723
0.003715
1.658e-05
7.951e-05
0.01121
0.005548
0.001717
0.0003545
0.000316
0.001429
0.001149
0.004187
0.008777
0.002386
0.01652
0.000155
3.252e-05
0.000188
0.0001904
0.04294
0.02602
0.05902
3.737e-05
0.0563
0.001934
0.02604
0.002462
6.006e-05
0.0008068
0.007949
0.0009087
0.01385
0.0005765
0.003504
0.001615
0.001106
0.001653
0.01616
1.653e-05
0.000452
0.0006582
0.03097
0.002587
0.001389
0.008703
1.044e-05
0.1123
1.27e-05
5.864e-05
0.003141
0.0004411
0.0299
0.001457
0.006242
0.003383
0.0008985
0.009247
0.003181
0.0002727
0.00154
2.927e-05
0.001605
5.423e-05
0.001079
7.858e-05
0.001773
7.039e-05
0.04709
0.003706
0.0002691
0.005993
0.00166
0.0005183
0.003129
0.001731
0.0006213
0.02329
0.0004701
0.014
0.00224
3.115e-09
0.003706
0.0001194
0.0009906
0.0002538
0.007674
0.0002316
0.01809
0.001922
0.01021
0.01316
0.000171
0.01161
0.002927
0.0002138
0.05389
0.005699
0.009558
0.001811
2.67e-05
4.116e-05
0.02588
5.59e-05
1.162e-05
0.000517
0.003327
7.02e-05
0.00107
0.0003057
0.003539
0.0008444
8.558e-06
0.0002516
0.001007
9.139e-06
0.0004025
0.00119
0.0003418
2.736e-05
0.001315
0.0006763
7.947e-05
0.0004241
0.002064
5.294e-05
0.02062
2.27e-05
0.0003128
1.571e-05
0.002482
0.001154
0.0001348
0.02136
0.0003559
0.00148
0.01327
0.01835
0.0009274
0.0002249
0.001776
0.04237
0.02173
0.0001865
0.001221
1.69e-05
0.000316
0.0009372
0.001562
1.316e-05
0.0005001
0.0001664
0.0003432
0.002937
1.815e-05
7.759e-05
0.02426
0.1325
0.005315
0.0003286
4.093e-05
1.517e-05
0.0002479
0.0001679
0.0002017
0.005265
0.0001625
0.0004577
0.0003833
0.001445
0.008754
0.2107
0.0001752
0.0004803
0.004396
9.36e-06
0.07452
0.008749
0.0007803
0.009904
0.01232
0.01452
0.001268
0.007675
0.004076
0.03401
2.165e-05
1.772e-05
0.002623
0.007635
0.0007229
9.193e-05
0.001121
0.09533
5.789e-05
7.752e-05
0.0001324
0.1898
0.001759
0.002307
0.0006195
0.134
1.229e-05
0.0001941
0.002414
0.001305
0.002734
1.069e-05
2.329e-05
0.006018
0.0002534
0.002554
9.301e-06
9.842e-06
0.002389
0.01092
0.0005498
0.0257
1.687e-05
0.0007508
0.0001683
0.00121
0.01992
0.00957
0.001253
0.004253
0.004516
0.005016
0.0006448
0.006614
0.005661
1.436e-05
4.091e-05
1.836e-05
0.0007746
0.001469
0.0001405
0.0002416
0.01422
0.01852
0.001841
1.184e-05
0.003204
0.03502
0.001113
0.01355
0.002728
0.0007895
0.008657
0.03012
0.0004415
0.003428
1.144e-05
2.337e-05
0.002666
0.03029
1.245e-05
5.472e-06
7.653e-05
0.0005552
0.006155
0.1896
0.008755
1.045e-05
0.002206
0.0007877
0.0008171
9.139e-05
0.001453
0.005099
0.007145
0.0801
0.0007522
0.002349
0.01001
6.064e-05
0.0004205
0.1078
7.244e-05
0.03294
0.000482
0.001235
0.0003376
0.00838
0.0006639
0.02072
0.01146
0.001238
0.006941
0.0002248
0.01032
0.0001237
0.004791
0.00068
8.017e-05
0.002358
0.0004105
6.841e-05
4.453e-07
0.0004284
0.0003455
0.001139
0.001321
0.07201
0.00259
0.002378
0.02
0.0008555
0.0006127
0.004305
0.005081
0.006125
0.001316
0.03665
2.195e-05
0.001796
0.000254
1.038e-05
0.02644
0.001879
0.001105
0.0001702
0.003148
0.0002171
0.009801
0.003212
0.00386
0.01239
0.003304
0.01265
0.002619
0.00536
1.042e-05
1.745e-05
1.505e-05
0.001807
0.0003968
0.001902
0.01651
0.003891
0.1354
0.01917
0.1887
6.068e-05
0.000174
0.000148
6.213e-05
0.001091
0.002125
0.00337
1.13e-05
0.01136
0.003078
0.005688
0.001026
1.161e-05
0.0004064
0.009698
0.002621
0.00306
0.0007617
0.0002858
0.007186
1.206e-05
0.0137
5.288e-06
0.0007474
0.07236
0.0002058
0.006406
0.0004323
0.000141
0.001733
9.516e-06
0.0008137
0.01322
0.002181
0.0007881
0.001334
8.992e-05
0.0008364
0.00279
0.0001906
0.006595
6.189e-05
0.001835
0.001391
0.008133
0.0001805
0.0008206
0.001869
0.002304
8.999e-05
0.0006133
7.786e-06
0.0009481
0.0006347
0.0004174
9.01e-05
0.01017
0.005056
0.00236
0.005871
0.006321
0.006651
0.01268
0.002571
7.892e-06
0.06791
0.005629
0.02013
2.818e-05
0.02494
0.001142
0.0001505
0.01992
0.0004225
0.006865
0.005393
0.001142
0.002313
0.03027
3.197e-05
0.002878
4.947e-06
0.004471
0.0002794
0.001536
2.95e-05
0.005701
0.0008744
0.0106
6.993e-05
0.00397
0.0002898
0.0008443
4.548e-06
0.002238
0.004211
1.685e-05
0.01191
0.005293
0.0002236
0.003869
0.02128
0.01884
0.0002775
0.016
0.0005295
0.0002839
5.2e-06
0.002859
0.006583
0.006393
0.0005484
0.001538
0.000703
0.008527
0.002217
0.005357
0.0003021
0.0001815
0.0005779
9.139e-05
0.005393
0.0005854
0.000388
1.074e-05
0.0002956
0.002671
0.004589
9.054e-05
0.001695
0.0002925
0.003614
0.007856
0.002828
0.001613
3.738e-05
0.001549
0.005488
0.0008857
0.0003769
0.02287
0.0002119
0.02468
0.003931
0.00287
0.0006261
0.000178
0.008998
7.897e-05
0.04289
0.004924
1.275e-05
0.006213
0.003664
0.02034
1.246e-05
0.0004169
0.01565
3.547e-05
0.01679
0.0007507
6.062e-05
0.007766
9.029e-06
0.00635
0.0009425
0.001211
0.0001989
0.007592
0.008169
0.02589
0.0001402
0.002018
0.003217
0.001467
2.954e-05
0.0009887
0.09594
0.0008712
0.0009534
0.001899
0.003497
0.001667
0.001654
0.00354
0.0005336
0.0006754
0.001114
0.01169
0.0001018
2.762e-05
0.003961
0.001121
0.0001167
0.04233
0.009373
2.569e-05
0.0007878
0.003136
0.0001202
9.56e-05
1.021e-05
0.01839
0.0006572
0.0006854
0.006084
0.0001642
0.01826
0.0008727
0.002243
0.005104
0.0002521
1.533e-05
0.01978
0.001475
1.078e-05
1.324e-05
0.03715
8.411e-05
0.01713
2.137e-05
0.0007508
0.00156
0.002335
0.002619
0.0001051
0.0008306
0.01372
0.002249
0.002086
0.0003497
0.00323
2.711e-05
0.005228
0.0001131
0.09899
0.01481
0.0002741
0.0008556
0.004747
0.01142
0.001735
7.83e-05
0.0002303
6.795e-05
0.006257
0.0005978
0.03834
0.007992
0.01032
0.0002774
0.0002895
0.001915
0.0008624
8.373e-05
0.1121
0.0001285
0.006231
0.002959
0.03068
0.0008306
0.001759
0.01087
0.003072
0.001118
0.02323
0.002518
0.006166
0.0003369
0.004713
0.09635
0.002941
0.0005409
0.001911
0.001962
0.0001229
0.003521
0.004909
2.63e-05
0.0004507
0.009874
0.001739
6.172e-06
0.01094
0.000258
0.0003264
0.00464
0.000229
0.01248
0.001179
1.728e-05
1.249e-05
0.0002978
0.0005311
0.004403
0.006152
6.585e-05
0.0009968
0.007972
0.0004842
0.0005258
0.009318
0.01078
0.00906
0.01766
0.00114
0.0003671
0.002681
0.01136
4.958e-05
0.03787
0.0005054
0.0003134
0.008599
0.01194
0.002453
0.01357
0.001538
0.01274
0.002302
6.372e-05
0.00605
0.006683
0.01249
0.0004506
0.001707
0.05634
0.002949
7.641e-05
0.0006713
0.00219
0.001184
0.0002417
0.006921
0.004783
0.001027
2.041e-05
0.003599
0.1072
3.257e-05
1.231e-05
0.001814
0.002698
1.197e-05
0.000447
0.006061
0.008845
0.003394
0.00772
0.000888
0.0009236
0.0006793
0.000793
0.007161
0.06427
0.009793
8.989e-05
0.0002405
0.004389
2.51e-05
0.0007972
0.004126
0.0008676
0.0001139
0.004633
0.03754
0.0002632
0.07015
0.0003398
7.956e-05
7.014e-05
0.000608
0.03221
0.0008409
0.0009024
0.005236
0.03766
0.008643
0.001154
0.001374
0.006876
2.806e-05
0.0001882
1.562e-05
0.005943
0.0001039
0.006553
0.0125
1.282e-05
0.001963
0.000303
1.503e-05
0.01112
0.0002826
0.001295
5.53e-05
0.00012
0.004245
0.005087
0.0004185
0.004487
0.0007824
6.166e-05
0.002021
0.00653
5.278e-05
0.0005952
9.106e-05
1.777e-05
0.0003068
0.007149
0.0009652
0.0005108