/*--------------------------------*- C++ -*----------------------------------*\
| =========                 |                                                 |
| \\      /  F ield         | OpenFOAM: The Open Source CFD Toolbox           |
|  \\    /   O peration     | Version:  v2012                                 |
|   \\  /    A nd           | Website:  www.openfoam.com                      |
|    \\/     M anipulation  |                                                 |
\*---------------------------------------------------------------------------*/
FoamFile
{
    version     2.0;
    format      ascii;
    class       volScalarField;
    location    "5";
    object      epsilon;
}
// * * * * * * * * * * * * * * * * * * * * * * * * * * * * * * * * * * * * * //

dimensions      [0 2 -3 0 0 0 0];


internalField   nonuniform List<scalar> 
124707
(
304.9
1201
487.3
41.18
307.4
798.3
315
304.3
419.5
420.2
115.5
161
392.6
63.63
102.4
111.9
38.62
67.2
36.53
8.774
0.01706
0.01739
16.97
0.05974
4.573
2.482
0.2903
2.134
0.1559
6.267
1.302
426.1
215.2
261.8
4.066
0.01959
0.05889
0.1074
0.2195
0.01739
2.168
8.35
0.3722
0.2296
3.505
0.05795
3.8
8.186
16.52
0.3568
0.02589
0.01704
6.684
4.183
1.176
2.392
0.1056
0.5559
33.6
0.2589
2.101
0.003945
156.6
0.7529
0.3365
6.371
0.01856
4.199
33.72
1.259
9.55
39.37
0.2904
0.03702
4.388
0.3484
1.135
0.0594
0.691
0.2587
3.033
0.3438
0.4949
5.574
2.076
0.003835
0.4409
0.003818
0.6818
5.329
0.0186
0.2582
0.3897
0.6294
0.7504
20.88
0.01816
0.9618
8.718
2.238
0.08805
0.9436
5.235
0.3023
0.1507
4.409
0.04257
1.414
0.7477
8.47
0.1069
0.4073
2.359
0.09616
2.469
4.436
0.02419
2.124
0.3199
1.421
1.092
3.523
3.464
0.215
0.7384
9.305
0.9546
0.8736
4.493
11.64
5.594
2.928
20.29
0.02057
0.1867
38.35
4.378
1.41
2.622
0.4084
2.673
0.008593
40.3
4.904
0.5521
0.8628
1.928
2.328
0.02251
47.88
2.435
0.02049
0.01575
2.041
0.2846
0.6497
4.416
4.727
1.256
2.385
0.03121
1.235
0.02124
0.807
21.28
0.1863
2.389
4.077
0.7229
0.1143
0.2984
4.071
4.332
2.352
16.8
1.443
0.04855
2.531
2.397
0.8264
2.252
2.622
0.007409
0.1665
0.3387
0.02058
3.86
2.49
0.09417
9.962
0.7715
0.2884
0.3014
3.369
3.383
15.43
2.405
0.1214
0.007352
0.001808
2.798
0.1834
0.7679
13.05
4.756
0.1911
0.001469
0.05494
1.47
2.682
4.137
0.2418
0.9649
0.8763
0.2576
0.7962
1.905
0.3324
0.009216
0.7565
3.22
6.06
0.02025
2.314
0.05178
3.261
4.164
1.065
1.263
1.495
2.497
0.4629
5.884
10.95
2.577
0.4299
0.8205
0.07021
0.6224
0.9689
0.01566
0.004378
0.01989
1.778
5.416
6.588
0.08994
0.02169
1.015
0.01342
1.297
0.6585
3.954
8.387
5.807
3.029
0.9987
0.1962
0.624
1.354
0.2602
0.09333
0.2419
0.1649
20.51
0.03397
2.25
2.443
0.3932
126.7
6.757
2.673
5.667
11.28
0.1748
37.86
4.552
1.137
1.968
1.263
1.896
1.24
0.3986
1.382
0.1018
0.9154
0.3301
0.02289
2.904
0.7746
3.314
1.314
4.857
0.7878
0.5262
1.638
1.238
256.6
0.04015
4.307
0.5389
0.0543
1.278
0.04749
0.04673
0.05631
30.65
4.637
4.393
3.738
0.9296
2.031
0.1313
18.87
0.02519
0.001448
0.004012
2.447
0.7991
19.13
48.34
0.01979
0.7091
0.6232
0.01349
1.621
10.22
0.1163
0.1198
0.006349
0.739
5.033
0.003769
2.979
3.928
22.46
0.4562
0.6211
4.132
0.3297
3.742
0.03197
2.77
3.292
5.801
0.02218
3.917
3.586
0.01831
7.812
1.292
3.292
1.197
0.9968
0.03337
14.65
29.61
5.643
5.2
0.9479
1.858
1.121
1.495
2.39
0.3398
0.8625
0.576
2.57
2.651
0.05728
0.6238
4.142
0.02889
1.959
0.0333
0.6281
5.105
0.2769
0.02761
1.437
49.39
0.00184
49.02
4.195
0.1682
0.007274
0.7909
0.9707
0.4297
11.07
4.043
2.649
0.9444
0.05216
131.1
3.536
3.642
16.68
10.31
2.659
0.05469
0.5718
14.96
2.709
0.9766
0.1416
2.61
0.0243
4.403
0.05188
0.6989
0.02101
31.81
0.003737
2.766
1.1
1.333
2.355
2.541
0.1921
0.6598
2.705
2.603
1.313
0.001972
0.0224
0.2154
0.2727
1.14
1.254
1.544
0.08326
0.5836
0.1226
0.05305
10.97
14.33
3.096
8.932
5.716
0.01913
0.9643
5.302
3.455
0.7074
0.001091
2.334
0.09283
1.036
3.116
1.183
143.2
0.02947
0.1244
0.6346
0.3081
0.006926
3.14
4.1
1.334
0.2291
0.01331
14.05
0.02485
9.432
10.01
0.3712
0.5925
0.6305
1.554
3.199
0.4089
73.87
3.722
7.322
4.043
2.128
1.881
0.608
2.031
0.4052
0.0281
1.143
0.1256
2.521
0.1877
20.73
0.01637
0.482
1.255
0.683
0.7589
0.01936
375.5
2.591
0.9567
0.05084
11.44
1.444
0.3502
153.8
2.536
0.05278
2.769
2.907
0.06877
5.761
1.184
1.234
0.007287
0.7278
4.616
1.873
1.12
123.6
6.149
3.306
0.9263
2.493
1.342
0.7399
0.4968
3.422
1.916
7.723
0.02241
1.507
2.854
0.3377
2.05
5.404
0.008501
0.02819
0.03211
1.077
0.9468
0.02305
2.489
2.942
1.466
3.46
5.464
0.6579
0.06871
0.4249
0.008614
0.04941
8.162
27.18
1.326
0.07829
0.004607
0.02907
0.7879
2.198
3.126
2.965
0.8863
3.039
4.05
1.119
0.01851
13.03
6.332
0.04999
2.307
3.188
0.004966
10.16
0.1123
0.5962
1.001
5.68
0.4518
1.103
1.191
0.6929
0.4638
0.03807
2.338
4.661
0.1112
2.764
2.419
126.3
145.7
0.04763
4.357
0.0236
0.2518
3.048
10.82
9.547
0.6326
4.081
0.001192
1.864
0.03854
1.346
0.5093
1.156
0.8674
0.4523
0.09436
0.2244
2.783
3.369
1.531
12.7
1.022
361.4
0.03081
2.887
13.34
0.005528
2.244
1.256
3.116
0.03193
5.857
1.041
34.56
0.54
1.482
3.538
5.995
0.001961
0.007166
2.248
7.143
0.1811
0.05341
0.06798
0.6476
1.147
1.157
0.4262
2.54
0.9072
1.292
2.527
4.647
1.541
0.7891
0.04645
3.626
0.1656
0.008272
29.69
2.256
1.283
1.185
0.4181
11.24
0.001997
93.96
80.52
1.344
0.6713
0.02118
0.001018
0.2887
43.3
0.01828
1.488
0.9607
0.4011
0.2049
2.344
0.1451
0.5306
3.57
5.759
33.53
1.913
0.7211
0.0008022
6.333
0.1866
291
2.156
6.993
0.383
1.123
0.005436
1.11
0.001192
0.7961
29.51
6.126
0.7509
1.126
0.3412
3.231
2.873
0.04006
1.178
0.01633
0.003247
1.182
11.32
0.4836
1.582
1.287
0.2787
1.112
0.3871
0.0657
1.906
0.02269
9.728
0.02418
0.3608
1.49
0.2618
0.743
1.255
2.793
1.436
0.03879
1.706
0.2728
2.605
0.391
0.5924
0.0007899
143.6
0.343
5.545
0.2697
0.08597
0.4086
8.892
1.341
0.3746
0.3139
2.868
4.024
26.16
0.3608
3.449
8.599
0.02348
5.338
0.02424
0.9388
3.823
0.006175
0.6714
0.6318
0.005283
0.6888
0.438
0.9815
3.527
1.66
0.0239
1.353
4.324
0.561
3.91
7.414
3.726
1.271
2.203
7.873
0.001022
2.644
0.005187
0.4707
0.261
1.08
2.335
2.336
0.001399
0.05642
2.068
1.94
0.01515
1.8
0.3854
6.123
0.5031
0.0203
0.06022
2.114
2.113
4.084
5.175
0.001414
0.001526
1.015
2.801
1.221
1.424
0.7417
0.5779
0.6524
0.9559
1.102
0.2595
0.01112
0.06725
57.73
1.072
1.299
0.2382
0.6967
0.6765
19.23
24.05
0.8756
0.6642
0.2297
7.729
5.296
4.21
1.969
3.676
1.372
0.4298
1.076
9.465
0.01944
3.857
0.01377
3.304
0.001933
0.7384
0.3826
3.641
1.308
0.3416
1.491
0.0009155
0.433
7.234
5.341
1.162
1.156
13.77
1.131
0.9953
5.992
2.266
0.8388
0.6935
21.18
0.8674
5.225
11.19
1.181
4.826
7.958
1.277
12.67
17.01
0.1884
4.995
8.284
3.342
0.3121
0.1574
1.128
0.05453
1.79
0.9024
1.829
1.237
23.52
1.064
25.27
1.182
2.913
6.359
0.6505
0.04692
0.2473
0.0006158
2.324
1.17
1.463
2.817
9.199
0.3169
3.718
4.039
321
0.5261
0.01012
7.26
0.4999
0.4261
0.1773
2.942
0.02053
1.577
2.012
1.247
112.6
819.1
0.00109
0.8044
0.1127
0.1189
0.09958
0.4765
0.0246
2.699
1.128
0.002535
0.7933
0.01808
15.3
3.064
0.532
3.59
0.008561
0.08458
0.02014
6.083
0.4807
0.0157
0.5602
0.0009888
0.5618
0.02137
6.356
2.069
0.372
0.8723
0.008699
0.01234
25.43
1.785
1.45
4.485
12.71
1.803
1
7.511
3.349
0.146
9.884
0.5163
0.0009266
6.171
0.3238
0.1696
1.034
16.75
0.03374
3.074
7.773
26.53
2.396
0.04671
31.2
0.4716
1.567
0.01648
0.2473
0.02883
15.03
2.272
1.799
11.67
44.65
1.258
2.425
13.72
0.3979
6.995
1.76
0.1138
2.176
0.7163
5.374
20.72
8.215
0.3612
1.828
120.5
1.997
0.547
7.047
0.9707
1.784
18.84
2.527
1.642
0.03643
1.961
1.012
1.418
3.979
3.427
135.6
7.265
5.109
3.006
791.9
0.04203
4.976
1.043
1.308
1.477
0.2363
5.978
0.8828
2.71
119.2
9.785
0.2558
2.879
1.669
0.753
6.273
7.39
1.858
0.02729
0.7176
7.782
0.01477
0.4083
2.826
0.2509
0.1736
2.395
1.82
1.903
4.453
20.31
0.136
9.564
1.189
2.932
6.081
0.07574
0.04325
1.065
1.322
1.167
27.53
0.3747
0.1817
0.003911
0.01346
0.6432
1.177
3.202
1.191
0.4949
1.697
5.813
31.88
1.499
2.604
1.698
0.8546
0.007544
0.09771
0.177
2.676
4.522
0.2441
0.01517
0.006521
0.04101
2.454
22.04
0.0009962
26.98
19.95
16.91
0.4075
0.004256
0.02478
11.57
38.9
3.524
532.9
4.263
0.6165
2.84
0.4731
2.658
2.085
1.752
4.032
0.4717
2.388
0.1944
4.208
0.9598
0.1863
0.02651
0.02457
2.04
11.04
1.595
14.31
0.2376
3.276
1.307
0.0168
3.169
2.086
45.95
0.8161
3.356
2.829
1.087
3.091
0.03809
2.239
0.705
4.056
0.2321
0.8121
0.2499
0.3516
0.01871
0.08603
6.624
4.397
0.02265
13.8
10.33
1.963
0.03613
0.4525
0.4856
3.019
4.667
3.457
0.05334
11.63
3.329
0.001533
0.02039
293.2
2.269
1.727
1.501
5.266
2.356
5.984
0.3895
0.07921
0.03705
0.03312
18.29
5.547
1.033
1.231
4.023
0.6504
0.7492
0.2083
0.1108
98.23
0.3253
0.3878
0.01445
1.832
0.001622
3.088
1.228
0.01809
0.01891
1.971
0.03119
5.439
33.04
10.44
0.1189
0.2244
4.912
0.009361
3.127
0.5027
0.1982
0.09639
24.61
1.445
0.1215
0.0079
63.8
1.451
2.763
1.92
1.92
0.9071
4.208
0.2399
1.613
0.01151
2.345
3.878
0.005285
0.01514
44.4
2.197
0.2169
3.45
2.669
1.82
1.22
0.2897
2.222
0.0008865
0.01978
0.3679
11.9
0.7624
13.27
3.072
75.37
0.4613
8.509
62.34
0.01124
1.742
2.024
0.001538
0.7634
2.578
0.03905
0.2295
0.2253
1.435
0.02553
7.849
0.01064
3.84
2.992
1.054
3.685
0.2874
0.02848
0.5757
0.218
0.01739
0.02496
48.42
0.004755
5.388
0.9571
8.915
0.0006724
0.0006777
1.543
16.68
0.7533
5.353
0.02014
1.324
1.067
0.5027
3.478
0.3932
6.643
0.0128
16.89
0.02135
121.9
8.646
0.09856
3.277
3.518
0.3411
0.04268
0.02388
2.214
2.957
4.86
1.524
2.292
0.0321
2.325
9.374
2.283
1.856
1.831
0.1261
7.878
1.369
1.047
2.594
0.7653
0.7201
1.156
30.87
0.8484
4.159
0.979
0.6818
0.8533
0.5166
2.299
0.9219
0.02639
0.01786
3.523
1.141
18.22
4.457
0.3065
1.283
3.139
1.587
0.0318
0.02101
0.7453
1.809
1.268
0.6233
0.05957
7.595
96.26
0.5205
0.5443
2.066
28.86
0.3895
0.1636
4.09
0.2653
13.68
2.449
0.05815
7.722
0.03338
1.575
4.443
2.525
0.01967
2.052
0.3428
0.7485
0.001987
0.01745
0.005028
10.62
3.331
0.396
1.627
2.785
0.002561
11.3
1.893
10.32
5.454
0.02578
0.09421
5.973
0.02781
16.85
0.6843
1.767
1.21
0.9232
2.167
0.3292
10.72
1.114
2.083
6.278
0.003912
11.01
19.65
0.7816
0.151
0.7502
1.87
13.37
0.6741
0.5512
0.0209
31.26
0.4154
0.001287
27.93
814.2
0.066
1.189
0.7284
27.52
0.008181
0.8467
3.314
1.803
0.5801
2.295
0.4769
18.27
1.266
0.9542
0.08131
7.307
0.9127
0.5311
1.175
114.6
0.8927
0.05038
0.94
0.7098
0.6699
1.728
1.779
3.747
2.862
4.007
1.127
25.62
1.809
2.038
0.05006
2.271
0.02667
1.677
8.438
1.812
1.409
13.92
0.2912
2.733
3.171
6.028
1.323
2.371
23.92
1.31
0.7648
1.927
0.752
1.332
0.3837
1.304
0.3469
0.9574
0.7485
9.648
1.159
1.546
17.17
28.3
5.491
26.5
0.009035
0.6496
1.154
0.6002
0.07213
1.338
0.4918
3.477
2.025
1.04
4.132
26.84
0.002549
4.2
1.589
43.82
0.02426
1.305
1.913
3.281
1.908
0.7918
1.162
1.546
1.678
0.6527
42.56
0.05404
8.51
4.484
0.3148
92.59
0.004673
0.8696
5.385
12.78
1.159
0.2183
2.155
20.27
1.561
0.06324
2.734
0.1324
5.096
3.843
1.118
3.501
0.9668
0.02504
0.7876
18.44
0.01782
0.2596
15.15
13.55
1.805
0.7233
6.862
2.684
5.906
1.349
0.2073
0.02571
0.002502
0.00235
1.583
43.51
2.11
2.709
0.7532
1.468
0.17
0.8617
1.042
1.712
0.4011
15.64
0.1492
1.698
2.746
6.322
1.124
0.9133
0.6574
3.467
5.279
0.01801
0.01984
21.33
1.091
0.1436
4.7
0.01566
10.39
17.58
1.996
7.806
1.167
0.1105
5.392
1.399
0.02851
0.5699
1.164
0.002285
3.435
0.004134
1.246
0.03193
2.276
1.313
0.8185
2.308
0.5494
0.3045
1.259
1.502
3.419
0.01832
3.334
0.0398
2.461
3.409
22.29
0.9507
0.2904
0.7993
1.049
4.301
0.7982
12.03
9.677
2.315
0.745
5.906
0.4287
1.038
0.6585
22.36
0.1072
1.89
1.095
2.001
3.53
0.4726
5.972
2.646
31.02
0.3994
5.004
1.594
3.13
0.7566
1.033
0.2588
3.692
1.034
1.349
116.6
2.427
0.00145
0.001463
1.068
0.1657
17.84
4.663
7.573
1.116
0.004832
23.52
123.2
0.01718
5.663
8.042
8.075
0.9171
2.991
0.3429
0.0203
4.249
0.937
0.0135
0.2644
0.8175
2.547
0.4997
0.01926
1.733
5.271
0.01681
4.179
4.985
3.622
1.105
36.56
0.9076
1.954
8.142
0.01739
1.538
0.009785
4.086
0.02264
0.01621
0.001194
1.502
12.11
0.31
25.87
1.021
0.7196
5.486
4.759
0.6423
0.562
0.004913
1.654
7.564
28.79
1.964
7.752
1.074
3.488
1.599
0.02585
0.5239
2.881
4.182
1.561
1.038
0.9222
0.017
3.04
0.003329
0.004322
0.2674
3.172
0.9027
0.0009536
1.536
19.85
4.945
2.903
5.77
2.436
0.6276
0.5392
0.9176
0.3521
0.4243
0.02793
3.375
0.03661
21.26
2.329
194.5
2.084
9.329
1.469
1.255
1.673
0.1616
3.001
0.002303
0.6911
0.01707
0.1484
0.1439
14.27
1.656
2.217
0.9262
2.307
5.005
0.4709
1.745
25.04
7.266
0.6602
2.003
0.01489
0.7062
8.189
0.0173
2.606
1.615
0.3498
0.08667
1.407
20.28
0.01042
1.133
0.001469
5.419
0.03917
0.1421
0.004459
0.03725
1.511
0.8751
10.94
7.961
2.377
1.983
1.235
3.729
27.51
2.81
0.2548
0.3817
0.06181
0.002591
0.4122
0.8601
0.03377
1.001
1.833
0.469
1.451
1.919
0.1959
2.145
186.6
3.002
0.3781
51.41
0.008562
11.45
0.7763
0.0006623
0.7733
0.8796
2.234
1.214
1.163
0.5026
0.05377
2.178
4.631
0.1996
1.466
1.944
0.7834
0.2238
0.8034
2.476
8.609
11.05
8.397
0.1272
3.845
0.8812
1.9
1.051
3.497
3.536
3.333
0.2554
15.38
62.46
0.06614
0.6334
0.6587
1.988
2.189
0.007378
0.007398
3.313
0.03616
4.906
0.6381
0.3261
0.01405
3.123
0.09679
0.007401
0.5711
0.02328
4.766
4.711
1.859
9.246
1.683
11.8
2.686
0.007675
0.2872
11.23
2.182
1.125
0.9559
6.439
1.743
3.513
0.0272
0.7452
0.9206
0.1596
9.267
1.762
10.35
4.922
0.09398
2.218
4.512
0.4029
0.009602
0.06353
1.301
4.879
0.2757
6.582
0.1674
4.469
0.06283
0.3281
0.6469
4.536
0.1613
0.2792
28.33
2.262
0.02436
46.73
1.72
3.216
3.363
1.248
9.609
128.9
2.381
1.345
3.785
9.482
0.01775
1.291
1.422
0.02546
4.376
1.343
28.57
12.9
4.612
1.094
2.067
7.994
0.9478
1.828
0.332
24.58
0.7457
0.03566
0.8216
1.649
0.3886
0.2892
0.2856
9.624
54.43
2.543
12.88
3.137
1.317
0.01539
0.001943
1.695
2.466
2.193
8.411
25.15
0.713
2.178
111.3
0.02168
0.2475
0.5004
0.002562
1.786
0.08438
2.93
4.129
1.424
0.4731
14.19
0.04675
0.001363
5.335
1.557
0.2934
7.66
0.1157
1.171
1.378
51.49
0.02044
38.63
0.0009116
2.952
0.7912
1.258
0.9204
0.4822
10.17
2.306
13.34
0.007214
1.365
0.3451
2.152
7.052
6.25
2.225
9.987
0.6703
0.3304
0.002461
0.003928
4.15
6.397
0.4205
5.256
8.182
1.941
6.27
2.06
0.7526
1.67
1.025
6.913
0.5294
0.385
0.7666
4.444
1.106
13.41
8.282
0.02139
10.49
1.95
3.432
0.1115
0.001534
0.2905
0.08802
0.02756
2.349
1.111
0.00364
4.076
0.02124
4.008
16.57
2.375
0.02649
0.101
0.3911
13.73
0.02393
0.572
53.17
0.03639
0.3224
0.1535
12.59
2.517
0.4326
0.3161
2.416
25.58
1.516
0.4135
2.942
0.878
23.12
0.01398
0.9102
4.381
1.881
4.234
1.338
84.83
0.001005
0.0009918
1.526
1.56
0.3653
0.01902
2.954
0.1711
35.22
3.932
0.02657
0.04439
0.6344
7.023
0.1531
0.1941
0.1971
0.02703
0.08045
0.5838
0.05198
139.4
0.7162
3.396
1.591
77.85
7.622
1.898
0.4698
1.107
26.24
3.661
1.105
2.184
3.624
0.8698
1.397
44.47
0.5815
0.001502
16.77
0.15
0.4753
9.151
0.2582
0.007756
2.477
3.743
0.0272
1.921
10.23
0.0102
3.835
0.9758
4.49
3.946
0.03805
0.01722
2.429
0.218
3.109
0.06412
0.06818
4.154
12.92
6.981
0.4374
1.533
16.42
18
1.237
1.439
40.94
0.807
2.557
10.58
0.8396
3.704
2.378
1.377
1.22
1.887
27.41
5.572
29.13
0.7469
16.24
23.41
0.7259
0.3003
4.451
0.921
0.3861
0.02307
3.608
7.971
0.8433
2.055
1.713
5.718
0.0279
0.8052
0.03933
2.259
0.009646
2.508
0.2687
69.88
0.4479
0.01603
0.01726
1.131
0.03702
24.55
1.352
0.1953
2.748
4.981
0.6248
2.995
1.36
0.3107
0.2995
0.7961
0.05399
6.91
0.1433
0.04846
1.56
20.47
1.637
0.001993
8.582
6.127
2.196
1.082
0.7963
0.3448
0.3334
0.07467
38.86
0.6849
0.8411
0.6696
0.4986
0.2349
1.162
0.003206
3.673
1.127
0.8909
0.02633
0.8375
0.2798
0.4862
1.446
0.01795
0.6982
0.4492
1.458
0.001882
4.013
0.01881
0.6013
15.91
0.22
2.167
1.03
3.395
7.828
0.4026
0.5436
13.47
0.9478
4.508
0.8843
0.3618
0.2539
2.292
0.3738
1.754
1.42
4.23
2.544
0.4695
0.01639
6.525
6.655
4.191
1.033
0.9956
0.01317
2.345
0.01966
11.34
11.77
67.62
5.83
77.85
5.021
34.07
2.902
0.4195
0.8769
7.586
0.2489
0.6529
1.868
3.497
0.1697
0.001093
1.559
1.242
0.8967
0.1447
6.704
0.004634
9.875
7.757
17.76
0.4881
1.738
0.4258
0.001557
4.253
0.7269
5.465
25.96
0.02157
1.54
0.2342
1.348
89.09
0.1111
6.098
1.259
1.523
44.61
0.2052
0.0006259
0.7918
0.2772
0.6095
1.442
0.03047
2.616
1.792
0.7414
0.1154
1.861
0.5694
0.5511
10.18
4.712
0.02319
0.5829
0.05242
0.3099
0.1017
2.682
11.47
0.01458
0.1033
1.37
0.0717
0.4049
3.229
0.02683
0.2813
1.896
2.934
10.37
1.802
0.2633
1.5
1.069
0.01787
5.011
2.724
1.292
0.018
0.02299
7.274
3.144
1.415
3.589
0.0545
1.181
0.02686
0.9961
1.728
1.359
1.556
14.39
4.292
0.5336
1.617
0.155
0.001855
0.7932
0.1346
1.35
0.01951
0.03917
35.45
0.7999
0.01921
2.161
5.347
2.082
2.314
1.643
0.01791
72.39
0.01759
0.535
0.06112
0.7049
0.05719
1.52
0.03488
2.558
14.05
0.06556
2.774
2.288
0.02188
0.01801
0.192
4.854
2.203
22.47
4.134
6.862
0.4372
2.917
0.1883
6.307
16.35
4.067
39.81
1.49
0.4389
5.308
1.375
33.39
0.7864
1.538
2.174
26.29
0.3799
0.001821
0.05449
0.001753
95.01
4.353
8.785
0.1186
1.37
2.106
0.0302
0.004786
1.383
1.629
4.742
0.6382
0.001514
2.693
0.371
3.455
1.433
0.5042
0.5142
0.004467
33.33
2.787
7.522
3.444
0.7392
5.812
5.083
27
0.04101
0.2029
0.06481
1.563
0.8678
0.01696
3.063
0.5491
5.099
0.4983
5.403
0.4312
0.95
0.04212
0.4785
8.987
0.393
1.136
0.5334
0.5295
0.2187
2.122
1.079
11.73
0.2218
1.731
0.7889
0.01801
0.5909
1.34
3.528
0.04003
10.16
1.06
0.3431
22.41
0.6196
0.08876
0.3241
1.398
5.223
15.62
6.871
3.242
6.162
1.693
0.5727
1.963
6.526
2.467
0.1931
11.63
5.66
0.07503
6.315
1.674
0.002427
1.12
1.766
6.297
1.244
2.23
4.785
1.444
6.658
2.039
2.479
16.92
2.055
2.327
0.6249
7.932
0.8
5.636
2.413
0.08696
0.02093
0.02729
0.02197
0.4426
40.91
0.07442
0.6543
2.099
0.5155
4.968
0.5439
2.611
0.002337
2.198
76.33
0.1174
0.4489
0.3525
0.2404
0.01377
2.232
1.916
5.181
0.6124
5.024
5.47
0.7914
101.6
13.81
1.444
1.04
0.5492
1.319
1.844
3.454
16.65
0.0159
0.4172
13.06
5.628
0.1009
0.1988
13.35
1.661
8.711
0.8077
0.5996
65.72
2.358
16.04
0.1365
0.315
0.9033
3.257
2.581
0.7707
0.01989
2.455
0.0123
0.3467
6.66
2.087
0.1326
0.5892
3.329
0.02134
0.004006
0.8105
0.2699
7.703
0.09294
2.77
0.8463
1.396
1.169
0.6969
0.0676
4.752
0.5316
1.005
0.481
0.002138
106.1
0.932
103.3
0.01388
5.398
0.01787
5.369
0.01312
0.345
2.906
0.03174
2.431
0.0179
0.0633
0.3338
9.339
0.03252
0.08629
8.13
2.763
3.879
1.25
0.5488
0.04059
0.07214
1.15
9.903
8.161
0.01572
0.4779
1.971
40.8
0.09764
0.02627
0.3023
0.8198
0.6765
7.225
0.09163
3.522
3.222
3.826
12.85
50.56
0.02251
0.6164
2.586
3.52
1.623
2.622
0.1945
0.4917
1.519
0.03202
1.962
5.08
3.643
0.01812
0.7937
0.1121
1.993
1.293
1.208
2.979
17.12
2.254
6.937
2.24
1.079
1.023
3.107
0.001471
6.657
0.8269
26.57
0.01137
0.498
3.925
1.284
0.00312
2.268
1.111
2.5
0.01834
0.02006
2.792
5.729
0.1865
0.00103
0.2336
2.475
0.5837
9.854
0.03498
25.42
2.211
2.885
0.4326
0.9947
1.14
0.05774
4.725
0.5727
0.01292
3.75
2.103
0.7465
2.227
10.33
0.01078
1.454
1.036
4.861
5.423
4.395
7.919
6.956
0.008972
2.013
1.62
0.1198
0.9103
7.105
29.1
1.976
2.547
0.02095
0.5759
0.8669
23.93
0.9525
6.896
4.809
0.8584
27.06
0.001508
0.0628
0.002168
5.555
0.03314
0.3294
0.719
1.561
32.59
1.234
2.867
0.1566
0.9637
0.3504
1.994
2.121
0.9621
0.0481
6.048
2.044
0.2351
0.7122
0.007629
2.271
2.628
0.01319
0.237
0.3345
0.7896
1.963
1.403
4.218
14.47
0.898
9.897
1.525
1.575
4.266
1.479
0.01893
1.206
0.4719
0.02224
0.8786
3.372
0.7953
1.569
2.353
0.8669
1.048
0.2356
10.19
0.01621
12.79
2.549
2.154
2.48
33.19
1.097
2.479
5.251
0.3178
0.7151
1.59
0.592
1.779
1.816
0.703
2.027
20.11
4.116
0.4493
0.0006857
138.8
0.01494
1.093
100.6
4.246
1.419
3.745
0.04507
1.161
0.7675
5.006
1.78
0.08481
1.922
0.5183
2.241
1.13
1.381
0.01839
1.089
1.054
5.409
5.224
0.01764
0.9742
0.01829
4.281
1.218
8.697
0.01512
128
2.622
0.4367
42.36
3.845
0.05054
5.624
0.02602
1.455
0.03079
2.542
1.881
0.4675
0.1056
0.6545
2.032
0.0563
3.29
2.511
0.2509
8.294
30.19
0.9743
0.6
33.55
2.381
1.757
2.626
0.146
2.766
2.958
1.178
0.1809
1.963
1.468
32.67
11.03
0.01539
0.3846
0.5157
1.06
0.09863
6.089
0.2535
1.851
5.879
2.237
1.196
2.544
0.001366
1.465
0.02658
37.09
3.137
2.07
0.001038
8.274
0.002775
3.786
0.06324
0.3161
1.617
2.895
0.8655
0.02419
3.165
2.161
0.6031
0.02851
0.7221
0.05841
0.3969
0.4818
0.01674
0.02332
22.43
3.955
24.21
74.75
4.076
7.515
9.495
2.681
4.556
1.794
3.081
8.09
5.181
0.02237
0.8302
2.812
242.6
0.01006
0.1172
1.35
4.931
4.314
0.002223
4.57
0.04302
0.7019
0.08661
2.272
0.09178
24.44
5.956
0.4901
0.03108
0.1208
0.0204
0.6008
0.9728
1.052
0.2649
2.128
1.707
0.4095
3.241
0.2307
8.008
5.054
2.429
0.8497
0.6387
0.3499
3.361
0.5198
5.551
99.78
15.13
1.136
8.807
2.347
47.1
0.02155
2.679
87.3
0.02795
0.3206
1.484
0.09625
1.157
0.01203
1.89
0.009464
6.958
0.02557
1.663
2.244
4.649
0.6314
1.637
6.682
1.706
3.006
0.8423
9.058
0.6795
0.3539
6.798
0.01145
1.806
3.798
0.8534
0.3342
0.1994
7.131
3.653
1.523
0.3164
3.551
0.728
0.6851
1.075
0.6568
0.9727
0.1754
22.42
155.3
3.684
4.336
1.06
1.165
4.584
2.355
19.97
0.01107
0.02039
0.7137
0.8221
3.788
1.235
4.92
43.08
0.06829
0.5647
0.1186
3.607
1.148
14.55
0.574
0.7755
0.2143
0.1711
2.446
4.672
0.003321
0.4735
0.4647
128.9
6.901
8.251
5.665
0.1626
3.429
0.7822
8.413
2.528
0.2732
0.244
0.7348
1.767
0.8096
0.6387
0.01994
2.232
4.48
0.09382
0.003587
1.341
0.3535
0.4552
0.8947
1.091
0.4848
0.2185
2.563
1.844
0.1851
0.3457
17.08
0.07546
4.224
6.992
0.02391
0.02011
1.977
1.044
1.705
9.453
17.53
0.8377
1.124
48.81
3.158
0.1594
5.42
7.174
2.559
0.02916
0.5522
38.12
0.003478
1.134
24.68
0.1213
0.6355
1.64
1.452
5.191
0.1972
1.815
0.07511
0.05551
0.004859
8.163
1.319
1.684
7.423
5.043
0.7851
2.577
8.919
0.07533
2.274
0.06334
1.413
1.999
1.562
0.478
20.92
45.07
1.604
0.1088
0.3264
0.001605
4.665
10.12
4.636
2.71
30.02
2.645
1.979
0.1703
0.5726
5.355
3.979
0.001377
8.541
3.38
7.139
0.3094
3.163
2.357
29.93
11.43
214.4
0.587
0.01013
0.1053
0.04422
2.606
15.62
0.1816
0.3926
0.4081
3.561
3.238
2.332
0.5946
0.02346
0.01705
5.271
10.91
2.079
1.494
4.991
0.6363
37.43
2.238
7.283
3.345
6.352
0.04801
2.077
38.06
101.7
1.725
0.3595
0.8037
27.74
2.443
0.8249
0.01365
3.204
1.433
5.347
0.00562
0.6894
10.74
1.106
1.775
1.898
0.001136
0.03489
0.574
0.01032
7.785
5.322
0.007587
10.1
4.268
0.9441
2.621
2.477
0.02083
13.79
9.793
1.091
3.921
1.19
0.6512
0.0334
1.13
0.0008901
4.815
0.3828
9.589
0.003184
0.1087
0.1917
1.615
0.03313
0.003219
0.05281
1.49
30.22
1.25
0.01851
1.308
0.2136
0.8833
3.318
23.94
0.03514
29.71
0.4284
8.269
0.1511
1.766
8.367
4.15
3.149
0.07917
17.21
7.358
2.339
2.978
5.014
0.01902
3.99
2.959
3.219
0.004377
1.935
0.62
0.08681
2.759
10.31
0.2068
1.141
6.695
0.03902
3.169
0.1874
1.384
2.392
0.176
0.9526
3.116
25.77
1.665
4.919
7.794
18.56
1.309
2.281
0.02438
0.5653
1.875
2.624
0.8005
1.178
2.24
0.9107
4.202
19.22
0.01086
2.394
0.005789
1.475
4.273
2.464
10.02
0.2775
0.03261
5
2.234
0.09033
0.3401
0.5881
1.453
0.01665
1.126
3.527
2.632
1.405
5.254
1.604
1.969
3.283
0.3125
27.72
1.603
1.379
0.8076
2.524
0.8826
0.6077
7.866
0.899
2.433
1.351
4.488
0.0311
30.74
0.6317
8.397
0.7744
1.248
10.57
2.107
4.329
3.224
0.9687
0.03498
2.148
2.952
0.1476
0.3274
2.756
8
3.997
2.53
21.5
4.049
8.21
4.059
1.596
3.277
0.09789
1.987
0.5623
6.159
0.01789
0.0006136
0.9678
0.004871
0.6597
6.871
1.671
31.86
5.569
0.7529
23.54
0.7119
0.04144
1.069
0.002826
1.47
1.241
0.007675
65.72
7.073
7.906
1.05
2.149
0.07137
7.111
1.809
0.01471
0.01908
1.835
31.91
1.332
2.438
5.487
0.9283
26.4
0.7767
1.272
0.6692
33.31
1.6
0.1394
6.04
1.708
0.5801
3.63
0.744
0.06876
1.231
1.293
0.761
1.042
1.159
0.3471
0.0008957
0.0009163
0.003256
2.202
3.031
0.4144
3.821
10.73
1.801
3.157
23.6
10.87
1.525
2.766
1.553
0.1617
27.76
125
2.55
0.9238
0.378
0.002654
16.42
1.584
0.5122
0.239
2.702
1.866
0.3978
2.464
0.1392
0.01101
0.775
22.34
0.1435
28.05
0.02336
1.775
21.87
0.2263
2.027
6.072
6.713
4.86
0.01374
2.019
0.8989
0.1214
2.231
3.439
0.4962
1.492
0.4663
5.602
2.287
1.307
5.888
2.271
0.3987
0.1021
5.927
0.01662
0.04829
1.713
0.06866
1.279
14.51
2.192
0.237
0.7734
0.006363
4.219
1.183
0.05679
57.98
1.928
0.27
1.247
0.2625
1.429
3.041
0.4765
1.086
0.6439
8.218
0.4612
0.03148
2.152
0.001332
2.707
90.86
0.8552
1.057
11.19
1.062
19.02
1.349
2.246
2.292
0.2165
0.5153
0.2249
0.0897
0.5973
0.03622
1.352
9.792
0.07453
5.318
0.1923
0.3014
0.1733
0.01813
0.5492
0.2307
0.08269
1.447
23.46
60.86
0.5523
0.8578
3.882
0.5506
0.009385
22.1
6.52
0.004676
1.656
2.326
0.3479
0.2624
7.789
4.84
0.1155
6.155
2.071
4.048
2.328
0.557
1.013
0.000704
71.21
0.1247
6.594
2.126
3.729
6.986
0.9083
3.26
26.57
0.4202
0.07485
3.069
0.5061
16.23
0.002594
3.15
1.849
0.5556
0.002263
0.1753
0.1075
6.595
3.402
2.467
0.8444
0.2373
0.2988
0.5707
0.1438
41.52
1.526
0.002558
0.8364
1.863
1.727
4.79
0.0171
1.032
0.0008524
6.81
26.85
1.863
1.379
2.268
0.001142
12.77
2.31
0.1618
5.014
4.874
9.767
0.8539
0.4821
0.694
12.17
0.06264
1.855
12.73
14.24
7.991
0.7358
0.8545
10.48
2.85
0.05354
10.88
5.862
13.31
1.719
5.042
48.67
26.8
0.3697
0.7404
3.623
0.01842
0.6319
1.745
16.39
0.2253
57.95
0.001408
0.7685
1.401
0.4041
6.625
0.2815
1.706
0.006498
2.098
0.01869
1.254
10.04
4.503
0.02017
2.282
1.013
0.01992
0.4958
1.375
0.026
1.805
1.082
4.13
1.475
0.8632
0.09614
0.02004
42.29
1.271
3.813
0.006464
21.37
0.01042
0.3754
33.6
1.003
6.091
2.932
0.4958
2.617
3.283
0.065
2.399
6.453
7.927
13.74
0.2829
54.34
13.13
1.106
0.7564
8.94
2.761
13.46
10.08
16.81
1.042
1.071
1.021
4.487
148.5
2.427
3.062
0.5069
0.4393
6.88
1.765
3.578
4.496
5.068
0.2095
1.246
0.00352
1.661
3.207
0.06814
0.4414
0.2668
0.229
41.15
1.656
1.3
1.675
7.725
0.7632
0.1832
1.15
2.163
0.07781
0.4221
1.857
0.5162
2.709
2.413
0.05903
1.341
1.562
0.0007331
4.677
0.9115
3.001
0.2837
0.05331
1.167
0.1416
0.7082
44.06
4.875
12.42
2.392
1.052
4.362
0.01973
0.2083
5.609
1.171
0.7827
2.418
5.054
8.891
4.566
0.3361
0.05234
1.817
8.565
2.345
1.088
1.327
1.016
0.1285
1.677
0.01711
0.000584
0.1674
0.7721
4.747
1.258
0.01948
0.5654
0.5506
24.54
446.7
0.05969
0.08633
0.02087
0.01707
0.2405
8.185
0.4101
0.03986
0.001357
30.51
0.07419
8.741
2.095
8.153
5.211
2.73
13.12
0.02075
1.643
1.163
4.879
13.97
1.652
0.3054
1.329
5.227
2.045
11.84
1.289
0.02847
0.9554
2.355
1.671
4.84
0.01759
1.743
0.9344
0.08219
1.666
0.01754
0.1741
0.9331
117.6
0.2529
41.48
0.3558
0.007646
1.428
2.826
0.03984
0.7865
6.987
0.01175
1.844
0.2327
0.227
2.939
0.9799
2.979
21.19
0.1781
1.478
1.755
2.165
0.01497
1.168
1.826
0.04588
20.94
0.002886
1.905
1.772
1.472
1.304
5.117
0.3856
0.7215
1.264
2.46
0.7178
0.5157
0.01363
0.3576
0.1374
0.01497
0.657
0.8225
2.619
21.2
2.043
0.01886
4.178
0.6748
0.03388
0.02145
1.086
7.675
0.5417
0.01624
1.272
3.144
5.039
85.12
0.3711
0.3817
2.709
0.5401
4.49
1.855
1.341
0.6083
264.4
4.224
1.322
2.011
0.02242
0.02402
1.813
0.001331
1.479
3.032
26.31
1.3
2.466
10.98
4.227
7.734
1.326
7.288
0.01149
1.565
2.834
0.1806
3.021
0.8629
0.3555
30.96
1.714
0.1898
0.2728
0.001892
0.05707
0.1704
2.536
1.279
0.2104
3.506
0.01403
59.05
1.701
2.497
3.039
23.38
0.3103
1.03
0.716
17.61
1.079
0.7335
0.9151
1.071
18.97
1.262
1.346
1.156
15.46
3.973
17.98
5.044
1.677
2.641
4.276
1.387
1.626
12.87
0.1336
1.524
9.459
0.04405
0.1599
0.03602
0.9754
0.3989
0.1797
4.056
0.05005
0.009879
2.92
0.03764
1.174
0.7109
0.09925
0.03311
0.6248
0.01641
5.689
9.421
14.56
45.65
2.611
44.55
5.334
0.02077
7.828
1.489
1.703
0.6626
0.01783
0.7693
1.234
0.001922
0.3403
2.313
2.279
7.457
2.161
0.04774
2.396
0.8448
0.01145
1.93
0.04037
0.5663
4.311
8.071
4.48
0.7774
0.001421
16.37
4.906
0.007747
0.001094
0.6772
0.732
4.665
0.22
0.005564
0.6015
0.01251
4.912
0.01886
3.106
0.0251
0.05099
0.6608
0.003076
4.058
16.28
0.1611
0.349
4.456
1.725
0.01774
0.01129
8.369
0.2408
0.0239
0.01841
1.376
0.1827
2.714
1.836
4.418
2.536
1.727
14.9
0.8821
1.05
9.574
0.2027
1.997
8.712
0.3627
0.008978
2.849
0.002185
1.718
1.628
1.591
0.9748
0.01759
3.337
3.4
41.76
0.2371
1.013
0.2601
1.955
0.2646
0.01972
5.328
0.003077
0.8445
2.289
7.159
0.1366
16.1
8.199
1.534
3.834
2.232
5.012
4.194
0.6721
7.269
0.03405
6.083
12.25
2.168
0.008246
3.903
25.42
2.649
2.795
8.185
5.342
0.02467
0.9848
2.591
0.05519
1.708
8.636
7.552
0.4729
0.149
0.4723
4.775
5.146
0.9198
4.739
6.185
1.74
1.653
3.675
1.024
0.01552
0.8636
1.895
4.993
0.3767
12.76
0.3697
0.3307
0.004608
0.004748
0.03276
0.238
0.2652
1.838
0.4237
23.33
0.2363
0.7981
19.89
0.3347
1.489
1.168
3.783
0.6277
1.344
0.01887
0.1866
0.02992
2.812
0.1034
1.451
4.309
0.6672
3.219
1.482
37.22
0.00827
0.001249
5.397
2.427
0.001848
0.1116
1.369
39.86
2.909
0.02325
9.597
0.4641
0.3984
0.00122
1.631
0.5736
1.353
2.545
1.021
0.9942
1.717
2.93
0.1676
0.02367
13.47
0.07903
29.94
20.9
3.479
2.765
1.104
0.3066
3.605
0.3292
9.826
2.319
0.4358
1.982
0.08476
0.2317
0.8513
34.99
0.01866
75.98
45.83
0.9614
3.657
0.3706
3.086
33.45
0.267
12.29
0.3317
0.5087
1.125
3.415
0.001925
1.097
4.906
0.6341
0.5791
0.1863
0.01573
0.2732
0.01206
0.003864
0.1362
1.362
0.008083
0.001182
1.481
3.374
0.0008387
2.076
1.977
0.8074
10.47
4.827
0.5946
201.2
0.0006809
2.875
9.537
0.4039
1.699
2.302
1.114
0.506
0.04284
1.1
0.6731
1
16.6
16.55
1.426
1.182
1.516
0.0142
0.0222
1.452
7.043
2.214
2.318
1.007
0.05456
6.263
0.6804
38.19
0.432
0.02709
12.86
2.614
46.71
1.278
0.03121
1.703
0.3678
3.514
0.0005936
0.1561
2.234
1.988
0.1226
16.32
5.427
1.827
0.8524
0.7466
1.449
6.089
1.074
0.7213
5.906
1.853
2.414
3.318
2.309
0.4757
0.5653
25.26
3.273
0.02248
12.29
3.733
5.869
1.646
5.125
1.916
6.484
8.278
2.925
4.405
1.272
3.964
0.004056
2.062
1.617
0.5012
7.581
0.809
0.1362
6.162
0.007772
0.7398
6.926
2.855
1.528
1.208
0.3065
0.01854
0.5679
1.631
0.7176
0.01441
4.038
7.927
0.05344
0.1976
0.01319
0.5159
23.64
0.2684
0.03184
0.4749
3.389
3.364
33.7
2.828
0.02995
0.02008
4.502
0.1517
3.665
0.4149
0.2417
6.588
18.41
2.012
4.929
0.6606
0.01397
23.96
2.616
0.8389
1.189
0.3302
0.2421
2.643
0.358
0.1233
0.3927
8.156
23.94
21.16
1.175
0.02697
6.992
21.82
2.332
0.05192
4.131
19.55
0.02066
0.003795
0.6231
8.33
1.313
0.009265
0.09778
1.298
1.685
1.931
23.25
0.4563
62.04
1.189
5.148
0.9808
2.248
3.107
4.383
4.936
0.09596
4.778
1.353
3.701
2.815
0.6302
3.165
1.332
0.1045
0.6632
0.4221
0.3045
0.04495
0.01443
0.365
1.7
0.02279
18.17
5.33
0.8951
0.09767
1.602
0.02294
0.8886
0.9624
7.691
2.181
5.868
237.2
0.6141
0.0664
0.4726
1.45
1.107
0.1393
2.286
0.1689
206
0.01673
0.2358
2.653
1.152
0.3353
0.8797
1.046
1.407
1.039
3.796
1.762
27.41
4.09
3.219
2.189
0.598
6.849
0.8612
0.2339
2.703
1.384
0.8614
7.182
0.3345
0.651
0.01763
6.363
15.24
5.358
23.54
0.01848
0.1518
0.5291
1.017
11.2
3.107
1.37
39.5
4.896
5.103
0.01921