/*--------------------------------*- C++ -*----------------------------------*\
| =========                 |                                                 |
| \\      /  F ield         | OpenFOAM: The Open Source CFD Toolbox           |
|  \\    /   O peration     | Version:  v2012                                 |
|   \\  /    A nd           | Website:  www.openfoam.com                      |
|    \\/     M anipulation  |                                                 |
\*---------------------------------------------------------------------------*/
FoamFile
{
    version     2.0;
    format      ascii;
    class       volScalarField;
    location    "5";
    object      p;
}
// * * * * * * * * * * * * * * * * * * * * * * * * * * * * * * * * * * * * * //

dimensions      [0 2 -2 0 0 0 0];


internalField   nonuniform List<scalar> 
124707
(
-0.3758
-0.2061
1.598
-0.0394
0.2579
-0.2099
1.222
-0.3781
-0.1667
1.001
-0.3737
0.8258
-0.1962
-0.3745
0.288
0.3704
-0.3694
-0.3731
-0.2015
-0.1792
0.02038
0.04219
0.8948
0.1696
0.6863
-0.1296
-0.08437
0.4257
-0.1076
0.5768
-0.1468
1.916
1.917
1.923
-0.09133
-0.01254
0.1573
0.001167
-0.1275
0.04023
0.1936
-0.1788
-0.1557
-0.1353
-0.121
-0.05193
-0.11
0.209
0.8643
-0.1236
0.0008096
0.02504
-0.07339
-0.06919
0.2623
-0.1286
0.01255
-0.04167
-0.3687
-0.04848
0.4245
0.002859
-0.1655
-0.1657
0.1252
-0.07128
0.01891
-0.07349
-0.2004
-0.1613
-0.1917
1.934
0.1804
0.0003972
-0.06712
-0.1438
-0.1448
-0.05081
-0.002149
-0.1168
-0.1481
-0.1596
-0.1731
0.1621
-0.02913
0.001837
-0.1456
0.00201
-0.006691
-0.1609
0.01871
-0.118
-0.1504
-0.169
0.04439
-0.1979
0.03607
-0.06216
0.8109
1.06
-0.05463
-0.09739
1.38
-0.02625
-0.1027
-0.002781
0.0004521
-0.1709
0.0365
0.2084
0.001527
-0.159
-0.04147
-0.07141
-0.02567
-0.001017
-0.001832
1.109
-0.1477
-0.08922
-0.1154
0.4594
-0.1767
-0.1286
-0.1727
-0.1974
-0.05431
-0.1334
0.007611
-0.1926
-0.1815
-0.1528
-0.197
-0.01453
-0.002271
-0.386
-0.08959
-0.08881
-0.1464
-0.1578
-0.1296
0.00154
-0.3982
0.01628
-0.1319
-0.1213
-0.1352
-0.04173
0.0003511
0.7712
-0.04507
0.0003613
0.003094
-0.1012
-0.08263
-0.1704
0.02691
-0.1525
-0.1758
-0.1397
0.01588
-0.1463
0.01047
-0.1553
-0.2086
-0.1045
-0.1898
-0.0006873
-0.04291
0.0127
-0.1481
0.5847
-0.1718
-0.1445
-0.1587
-0.08564
0.01698
0.4274
-0.02619
0.06494
-0.1628
0.4138
0.000706
0.2967
0.09254
0.00068
-0.001194
-0.04333
-0.0828
-0.1836
-0.08589
-0.128
-0.01572
-0.1539
0.4064
0.8675
-0.1479
-0.08652
0.001655
0.001474
-0.1437
0.000937
0.07219
0.2453
-0.03006
-0.125
0.001381
0.009739
0.4102
-0.1066
0.5942
-0.1159
-0.07999
-0.1323
-0.1015
-0.09055
-0.1463
0.08903
0.001491
-0.03243
0.5488
-0.09946
-0.01308
-0.1518
-0.02647
0.3516
-0.186
-0.1146
-0.1651
-0.1071
-0.08112
-0.007369
-0.1816
1.652
-0.1416
-0.09697
0.0737
0.007915
-0.08174
-0.1184
0.003253
0.001298
-0.008309
-0.04129
0.1546
-0.1799
0.01625
0.01028
-0.0967
0.00616
-0.1334
-0.1681
-0.06345
0.3141
1.243
-0.03683
-0.08102
-0.005314
-0.08293
-0.1315
-0.06786
0.01629
-0.1168
-0.1196
-0.2078
0.0005891
-0.1735
-0.04384
-0.1085
0.518
0.5927
0.003807
-0.1809
-0.1928
0.286
0.07555
0.01609
-0.07189
-0.02842
0.1393
-0.141
-0.1304
0.376
-0.00459
-0.09565
-0.08502
0.1202
-0.01412
-0.1273
-0.1598
-0.1206
0.2867
0.1408
-0.1138
0.1445
-0.04232
-0.08312
0.9539
0.1522
-0.1404
-0.133
0.07764
0.004755
0.01715
0.00242
0.00995
-0.2283
0.1446
0.02735
-0.09108
-0.09724
-0.1092
-0.04924
1.218
-0.01274
0.001302
0.001435
-0.08008
-0.1601
1.219
1.83
-0.006289
-0.04756
-0.1694
0.006976
-0.03981
-0.08638
-0.04994
-0.08874
0.001347
-0.03386
-0.1823
0.00223
-0.05011
-0.00282
-0.3571
-0.09531
-0.1064
0.6654
-0.08082
-0.1597
0.01621
-0.1912
0.2266
0.5758
-0.01548
-0.09221
1.321
0.03451
0.3151
-0.1702
0.3528
0.02368
0.3202
0.01133
-0.1955
-0.213
-0.1455
-0.1975
-0.1072
-0.1494
-0.08352
0.1711
-0.1405
-0.1421
-0.1342
-0.1495
-0.1599
-0.08709
0.01468
-0.1083
0.4343
0.01895
-0.09904
-0.03669
-0.1702
-0.162
0.1867
0.01883
-0.08732
1.962
0.002057
1.769
-0.173
0.117
0.001754
-0.03858
-0.08056
-0.1561
0.8183
0.01018
-0.04876
0.1093
0.009943
-0.3717
-0.1091
0.15
0.8955
0.02897
-0.1042
0.07256
-0.09247
-0.06437
-0.1408
0.1344
-0.1005
-0.142
-0.01046
-0.1516
0.1055
-0.0822
0.02073
-0.06861
0.0009402
-0.179
-0.1328
-0.1754
-0.1856
0.1743
-0.1231
-0.1062
0.03102
-0.13
-0.09957
0.001649
0.02092
-0.07228
-0.1076
-0.1262
-0.1337
0.4408
0.008307
-0.1231
-0.08529
0.09719
-0.14
-0.1962
-0.1204
-0.09531
-0.1808
-0.007507
0.1398
0.7798
0.001468
-0.1272
0.0008812
-0.1426
-0.08522
-0.04669
-0.1205
0.0273
1.659
0.01883
-0.06469
0.2534
-0.07208
0.0006842
-0.1067
-0.1829
-0.1286
0.002905
0.006891
-0.1802
-0.01366
0.2526
0.2578
-0.1417
0.2818
-0.1712
-0.1293
0.4027
-0.06881
-0.2124
-0.1595
0.721
-0.1402
0.2386
0.01886
0.1585
-0.08595
-0.1383
0.0005088
-0.1487
0.08982
-0.1073
-0.06653
-0.2109
0.02825
-0.1736
0.002733
-0.1027
0.05722
-0.01077
0.662
0.1738
0.0474
0.01687
-0.1927
-0.1734
-0.1257
1.9
-0.1411
0.00241
0.4423
0.6439
-0.04321
0.155
-0.04498
-0.1268
0.002049
-0.1063
-0.1581
0.5445
-0.1755
1.919
-0.05035
0.236
-0.09796
-0.1589
-0.08516
0.01473
-0.1544
-0.1772
-0.1119
-0.04163
0.021
-0.1266
0.6456
-0.1443
-0.1628
0.8604
-0.000238
0.0183
-0.01637
-0.1325
0.1024
0.04041
-0.06775
-0.1874
-0.1428
0.0163
0.1548
-0.1066
0.05789
-0.1606
0.000811
0.01714
0.8084
-0.1113
-0.1737
0.0002434
0.001907
0.002243
-0.0327
-0.08663
0.5514
-0.07151
0.489
-0.06974
-0.184
-0.0762
0.02222
0.2503
-0.181
-0.02478
-0.1522
0.3417
0.001904
-0.1314
-0.05435
-0.05861
-0.1436
-0.1827
-0.1626
-0.08265
-0.08347
-0.08155
-0.1652
0.1593
-0.1429
-0.1555
0.01592
-0.1955
-0.02956
-0.2059
-0.3809
0.01383
-0.1738
0.02253
-0.1007
-0.1075
-0.06571
-0.1827
-0.1101
-0.1322
0.001126
-0.1443
0.008841
-0.122
-0.1333
-0.04358
-0.08543
-0.0003933
0.000271
-0.1312
-0.03597
-0.0842
0.4556
-0.1601
0.1228
-0.2078
0.002746
-0.1806
-0.1797
0.002647
0.4238
-0.06862
-0.1804
0.002362
0.1108
0.008165
1.936
-0.04833
-0.202
0.4329
0.1056
0.001254
0.002096
-0.1144
-0.1148
-0.1021
0.009787
-0.04327
-0.04622
-0.1411
-0.128
-0.1582
-0.1028
-0.1743
-0.1598
-0.04715
-0.1521
-0.141
-0.1219
0.01376
0.0009795
0.1186
0.0005701
-0.2354
-0.1511
-0.06241
-0.03912
-0.0883
-0.1595
0.0008854
0.4517
0.2276
-0.01732
-0.1108
0.02092
1.817e-05
-0.1476
0.759
0.05207
-0.114
-0.1219
-0.1377
-0.1282
-0.04532
-0.07496
0.08808
-0.1355
-0.1807
-0.3776
-0.07167
-0.16
0.0005725
0.6921
-0.06272
1.346
-0.08503
0.1399
-0.1509
-0.1483
0.002513
-0.1286
0.001109
-0.1512
-0.2148
-0.1363
-0.1348
-0.1456
-0.1449
-0.152
-0.1418
0.02125
-0.1602
0.0281
0.001068
-0.1643
-0.1768
-0.1061
0.2967
-0.1695
-0.1275
-0.08569
-0.1512
0.09864
-0.1412
0.04344
-0.1828
0.0109
-0.1525
0.1666
-0.09079
-0.07039
-0.06542
-0.1439
-0.08254
-0.02098
-0.113
-0.1094
-0.1491
-0.1561
-0.07094
0.0005996
1.922
-0.1412
-0.1863
-0.06441
0.2067
0.1228
-0.05326
-0.08718
-0.1565
-0.1482
-0.1292
-0.1948
0.0007078
-0.1549
-0.08608
-0.08349
-0.009113
0.7733
-0.01535
0.03888
-0.1543
0.002082
-0.1037
-0.1394
0.002411
-0.1126
-0.1107
-0.08175
-0.06401
-0.07314
-0.003106
0.3899
-0.1393
-0.1112
-0.118
0.1363
-0.07296
-0.05616
-0.1329
-0.1174
9.167e-06
0.03252
0.002512
-0.1624
-0.1341
-0.1456
-0.07641
-0.1148
0.0003635
0.01458
-0.04259
-0.1068
-0.002593
-0.1043
-0.1098
-0.04736
-0.1315
-0.01484
-0.05771
0.2441
0.2897
-0.1818
-0.1447
0.0004707
0.001302
-0.06307
-0.1627
-0.126
-0.1747
-0.07385
-0.1237
-0.1312
-0.07696
-0.1443
-0.1352
0.001785
-0.04369
0.7766
-0.1407
0.293
0.01478
-0.1232
-0.1634
-0.2016
-0.315
-0.02875
-0.02089
-0.108
-0.1744
0.02003
-0.1519
0.01189
0.1456
-0.1274
-0.1229
0.3464
-0.1462
0.008765
-0.1662
0.007155
0.03019
0.0008548
-0.0729
0.3223
-0.1206
0.3771
-0.1104
0.4392
-2.034e-05
-0.1462
-0.1808
0.4411
-0.09805
-0.103
-0.1562
-0.1429
-0.1006
-0.1434
-0.1494
-0.1216
-0.1257
-0.184
-0.1553
-0.1853
-0.185
-0.1248
1.373
1.133
-0.1752
-0.1586
-0.1963
-0.006329
-0.151
-0.1696
0.1452
-0.06986
-0.08048
0.1198
0.03516
-0.1177
-0.04565
-0.09058
-0.1692
-0.09013
-0.1228
-0.08082
-0.09582
-0.07004
-0.096
-0.05417
0.01731
-0.1226
0.0001942
-0.1453
-0.1737
-0.07252
-0.1854
-0.1288
-0.1047
0.2568
0.03596
-0.2056
-0.1315
0.001772
0.1625
-0.1082
-0.1453
-0.08645
0.5302
0.01575
-0.09252
-0.08487
-0.05523
-0.2869
-0.2333
0.0009408
-0.1666
-0.04651
-0.008457
-0.04726
-0.15
0.02152
-0.187
-0.1254
0.001521
-0.1423
0.01203
-0.1808
-0.01115
-0.1252
-0.1665
0.001667
-0.06058
-0.0128
-0.1805
-0.06425
0.003518
-0.1687
0.0007635
-0.06833
0.02363
-0.157
0.2122
-0.1528
-0.1741
0.00376
0.00159
-0.1501
-0.1076
0.04401
-0.08747
-0.192
-0.1289
-0.1191
0.7611
-0.1055
-0.08078
-0.08903
-0.07103
-9.385e-06
-0.1813
-0.07727
0.0863
-0.1752
-0.1742
0.01747
-0.1559
-0.0006065
1.846
-0.1567
-0.0138
0.001735
-0.1624
-0.1321
0.025
-0.121
-0.0009488
-0.1741
0.08417
-0.09984
1.372
0.1553
-0.1689
-0.06564
-0.1183
-0.001626
-0.1709
-0.09079
-0.08359
-0.1534
-0.09655
-0.1573
-0.2038
-0.1694
-0.09392
-0.09538
1.717
-0.1235
-0.1579
-0.174
0.3672
-0.1259
0.6375
0.4031
-0.1061
0.0112
-0.1264
-0.1071
-0.1076
0.1323
-0.08307
1.664
-0.1666
-0.189
0.2175
-0.2198
0.01676
0.2856
0.116
-0.1233
-0.1316
0.01615
-0.1623
-0.03541
-0.1616
0.9016
-0.18
0.1598
-0.01664
0.4027
-0.1422
-0.1887
0.1601
-0.03676
0.01453
-0.1141
0.537
-0.0002911
-0.1388
0.1215
-0.1376
-0.07397
-0.1135
0.5348
-0.08421
-0.138
-0.2039
-0.09582
0.02832
-0.1762
-0.1252
-0.167
0.1039
0.01382
-0.1398
-0.1627
-0.00435
-0.2065
-0.1178
0.2881
0.002296
0.006011
-0.06061
-0.0839
0.05822
-0.07281
-0.1572
-0.09111
0.4189
0.01471
-0.05478
0.1545
-0.03976
-0.08146
0.001217
0.002822
-0.1136
-0.1204
0.2219
-0.08623
0.004368
0.002047
0.01745
-0.1451
-0.3497
0.000589
1.09
1.52
-0.168
0.5593
0.002903
-0.0139
0.5359
0.09465
-0.1442
-0.3122
-0.03966
-0.1306
1.266
-0.08837
-0.1378
-0.1345
-0.057
-0.088
-0.1119
0.3953
-0.1221
0.1185
-0.144
-0.06807
-0.01437
0.01879
-0.02639
-0.2082
-0.02026
1.255
-0.006712
0.03244
-0.1335
0.008354
-0.1641
-0.1042
-0.3081
-0.0832
-0.01883
-0.1705
-0.04282
-0.1487
0.008158
-0.1142
-0.1036
-0.1589
-0.03672
-0.1734
-0.07611
-0.1463
0.02229
-0.05923
-0.1491
0.005297
0.02102
-0.2545
0.3721
-0.04964
0.004079
-0.1495
-0.1641
-0.1255
-0.1687
-0.1717
-0.03785
-0.145
-0.1832
0.0009726
0.02518
1.964
0.2283
-0.1142
-0.1722
-0.1308
-0.1131
-0.1831
-0.1214
-0.07072
-0.02227
0.01746
0.0411
0.2345
-0.1704
0.4152
-0.09908
-0.1669
0.0432
-0.1255
0.09954
1.055
-0.1402
-0.02826
0.003935
0.01508
0.001524
-0.1192
-0.1698
0.004788
0.06877
-0.1713
0.0143
-0.1781
0.3743
-0.1963
-0.07775
-0.1239
-0.1814
0.0005216
-0.1744
-0.1113
-0.1006
-0.06297
0.8816
-0.116
0.03469
0.001595
0.2371
-0.1341
-0.003503
0.3059
-0.09291
-0.09234
-0.08325
0.4367
-0.05454
-0.0006673
-0.1454
-0.14
0.002125
-0.001778
-0.3711
-0.06796
-0.0593
-0.09333
-0.09542
-0.1756
-0.1266
0.07365
0.3553
0.0007107
0.01227
-0.09335
-0.1871
-0.1242
1.724
-0.1068
-0.1755
-0.1566
-0.1924
0.6582
0.0006834
-0.09645
-0.1502
0.001288
0.8042
0.01223
0.01492
-0.1068
-0.07273
-0.1823
0.01588
-0.04651
0.002936
0.04981
0.2124
-0.03135
-0.1185
-0.07421
0.0192
-0.1016
-0.1196
0.01345
0.01846
1.085
0.002714
-0.1099
-0.1536
0.168
-1.241e-05
-1.874e-05
-0.1352
0.8169
-0.09089
-0.1475
-0.007307
-0.08388
-0.1328
-0.1549
0.2767
-0.1143
-0.1265
0.001016
-0.1701
0.0149
-0.2158
-0.1539
-0.08115
0.03068
-0.1816
-0.1072
-0.03748
0.01389
0.3708
-0.1432
0.05813
-0.1048
0.3542
-0.01166
1.174
-0.2635
-0.1462
-0.1537
-0.1768
0.09667
1.137
-0.1469
0.04728
-0.1796
0.01422
0.01896
-0.074
-0.01659
-0.1108
-0.09356
-0.03398
-0.09328
-0.09871
-0.1662
-0.1058
-0.1074
0.01232
0.03496
-0.1724
-0.1736
-0.2208
-0.1587
-0.1117
-0.06517
-0.1269
-0.1708
0.003517
0.05855
-0.1356
-0.03248
-0.1706
-0.1403
0.01594
-0.169
-0.1942
-0.1672
-0.05232
-0.1481
0.5181
-0.07747
-0.07095
-0.1486
-0.1308
-0.1977
-0.1314
0.003501
-0.09604
0.09786
-0.1673
-0.1416
0.2358
0.01131
-0.02802
-0.06035
-0.09434
0.000316
0.01
0.002156
0.2862
-0.19
-0.1555
-0.177
-0.1676
0.002112
0.3287
-0.07255
-0.2003
0.2328
0.01204
-0.07243
-0.133
-0.01313
-0.1864
-0.05301
-0.1067
-0.05941
-0.1114
-0.1751
-0.08362
1.651
-0.09379
-0.08688
-0.1636
0.002222
0.224
1.632
-0.1247
-0.06829
-0.07023
-0.08516
-0.1973
-0.07661
-0.138
0.01033
-0.2772
-0.1443
0.0007915
-0.1203
-0.2221
0.001695
-0.07955
-0.01505
-0.1912
0.00348
-0.155
-0.01919
-0.04262
0.00244
0.5659
-0.1545
-0.02228
-0.09671
-0.1223
-0.03573
-0.193
-0.1251
-0.1588
-0.1154
-0.2109
-0.1746
0.01711
-0.09668
-0.1581
-0.1386
-0.128
-0.1172
-0.01025
0.3915
-0.1338
-0.1107
0.1163
-0.06063
1.098
0.002449
0.2571
0.05603
-0.0487
0.3726
-0.09859
-0.03634
-0.1303
-0.1105
-0.1813
0.001803
-0.1484
-0.118
-0.1283
-0.2211
0.3712
-0.1575
-0.1731
-0.133
-0.1479
-0.1504
-0.1233
-0.1452
-0.06181
-0.1531
-0.1859
-0.1044
-0.1153
-0.2865
0.5204
-0.1782
-0.1033
0.0005985
-0.05065
-0.1469
-0.1699
0.0143
-0.09374
-0.1634
0.03847
-0.09229
-0.007796
0.009012
-0.1056
0.0002562
0.01976
-0.0863
1.58
0.02188
-0.1061
-0.1105
-0.1889
-0.1682
-0.01444
0.3086
0.1011
-0.03738
-0.1023
0.4429
0.1327
-0.1242
-0.08527
-0.09625
0.8475
0.001331
-0.02992
-0.1905
-0.09338
-0.05249
-0.07124
-0.1189
1.755
-0.09018
0.01421
0.0115
-0.05087
-0.07765
-0.1618
-0.1759
-0.1273
-0.1465
0.03061
0.04406
-0.2172
0.01411
-0.09203
-0.1663
0.6467
-0.1837
0.01981
0.4291
-0.0879
-0.1845
-0.09136
-0.06512
0.02119
0.001978
0.001903
-0.1318
1.701
-0.09359
-0.0677
-0.141
-0.1203
0.0007077
-0.1366
-0.1333
-0.1122
-0.152
0.2508
0.4313
-0.09179
-0.1685
-0.04128
0.3979
0.4832
-0.1038
-0.1067
0.8578
-0.00666
0.00889
-0.08642
-0.09028
-0.0731
-0.106
0.01371
-0.1705
0.7268
-0.1757
-0.1934
-0.1192
0.04933
-0.1292
0.5509
0.01519
-0.1272
-0.1659
0.001275
-0.1568
0.002095
-0.1231
-0.01667
-0.08991
-0.06877
-0.1335
-0.08814
0.003861
0.02786
-0.08937
-0.1071
-0.09037
-0.008898
-0.1313
0.03072
-0.06379
-0.1215
-0.06086
-0.1631
-0.0941
-0.1739
-0.1355
-0.192
-0.09466
-0.2246
-0.1865
-0.1197
-0.1725
-0.1827
-0.04101
0.05126
-0.09327
-0.06762
0.09165
-0.1118
-0.1758
0.2663
-0.1556
-0.05418
-0.189
0.4456
-0.2016
-0.1591
0.5094
-0.08741
-0.0592
-0.1796
0.4312
0.01424
-0.1833
-0.1141
0.445
-0.2443
0.1422
0.001346
0.001215
-0.1145
-0.05177
-0.1838
-0.1011
-0.1508
-0.1514
0.0006863
-0.1683
-0.2411
-0.00321
-0.1026
0.4254
-0.08768
-0.1205
0.04208
-0.1162
0.01717
-0.1442
-0.1407
-0.005141
-0.136
-0.1021
-0.08633
-0.1071
-0.01202
-0.1494
-0.1456
0.00841
0.242
-0.156
-0.01033
-0.1752
-0.1858
0.1583
-0.05141
-0.176
0.00866
-0.1782
0.004614
-0.1829
0.021
0.0246
0.001082
-0.1248
0.3239
0.004123
-0.09961
-0.07758
0.3858
-0.1658
0.0198
-0.08058
-0.09283
0.002804
-0.1042
-0.1477
-0.2186
-0.006457
-0.1995
0.2239
-0.03416
0.09052
-0.000739
0.4371
0.06165
-0.1093
-0.1057
-0.1311
-0.1301
0.04194
0.223
0.0007561
0.0006925
-0.1222
0.8405
-0.09556
0.0007252
-0.02899
-0.3358
-0.1513
-0.1369
0.4279
0.01088
-0.146
-0.1462
-0.09715
-0.08978
-0.09857
-0.03046
0.1655
0.01719
-0.3518
-0.1316
-0.27
-0.1213
-0.1899
-0.08457
-0.1781
-0.08928
0.0004663
0.1217
0.0003909
-0.1711
0.03857
-0.04694
-0.07099
-0.1563
-0.09851
-0.1125
0.6184
0.5008
-0.1341
0.463
-0.1251
-0.1874
-0.1231
-0.08889
-0.1575
0.004078
-0.1294
-0.07951
0.04404
0.005177
-0.09942
-0.06861
-0.004063
-0.155
-0.04422
0.003746
-0.1715
0.00103
-0.1808
0.01569
-0.06209
0.001961
0.0173
0.1977
-0.1015
-0.1811
-0.09498
-0.1014
-0.1201
-0.1203
-0.1006
-0.118
-0.1351
-0.1316
-0.09269
0.1178
0.001476
-0.09241
-0.1148
0.01131
-0.1758
-0.08597
-0.02125
-0.1481
-0.08596
-0.1085
-0.06496
0.9757
-0.1485
-0.1304
-0.2214
0.002394
0.2275
-0.1581
0.0001543
0.01243
-0.1703
-0.1727
-0.08847
-0.1063
0.4509
0.0001694
-0.1608
-0.09937
-0.1247
-0.1378
-0.1615
0.2496
-0.1091
-0.1461
0.09981
1.04
-0.194
-0.07611
-0.1003
-0.1728
-0.1057
-0.09674
-0.1173
0.1023
0.05722
-0.1756
-0.1257
0.2365
-0.1995
0.01139
0.04591
-0.1627
-0.1144
-0.01576
1.252e-05
2.754e-05
-0.1752
0.1433
0.02792
-0.1323
0.1668
0.002202
-0.08249
-0.01678
0.001318
-0.1606
0.01386
-0.1784
0.5683
-0.08663
-0.101
0.3187
0.5313
-0.08872
0.001421
-0.1398
0.5364
-0.08316
-0.06859
-0.1746
0.3256
-0.05621
0.2002
0.01297
-0.05302
-0.006467
-0.1164
-0.1856
0.01274
-0.148
0.5067
0.01633
-0.1341
-0.156
-0.1575
0.001424
0.001188
0.5594
0.01887
0.1039
-0.168
0.002568
-0.119
0.01444
-0.1523
-0.1705
-0.08468
-0.09937
-0.05558
-0.2048
0.06465
0.07719
-0.2022
-0.07098
-0.03938
0.0868
-0.1127
0.4801
-0.1876
-0.157
-0.00988
1.085
0.4823
0.03584
-0.09845
-0.1653
-0.01318
0.1321
0.05901
-0.1979
1.254
0.4281
-0.07854
-0.1002
-0.1205
0.06748
-0.1034
-0.1517
-0.04057
-0.09089
0.01825
-0.1014
0.4103
0.3899
-0.1189
0.04112
-0.1003
-0.219
0.02497
-0.1505
-0.03836
-0.1486
0.005108
0.001103
-0.1752
-0.04063
0.1794
-0.141
-0.2014
-0.06906
0.3533
0.8134
0.02335
-0.04977
-0.1051
0.0024
-0.09855
0.01
-0.1321
-0.1648
-0.02449
-0.01047
-0.1624
0.0106
0.0008033
-0.1184
-0.1842
-0.09334
-0.1803
0.136
-0.1757
0.06329
-0.1572
0.02581
-0.1441
0.0004446
0.4332
-0.04796
0.4721
-0.06264
-0.02227
-0.1875
-0.01651
0.5437
0.001252
1.086
-0.08789
-0.1166
-0.01991
-0.1559
-0.1389
-0.1865
-0.07973
-0.148
0.0002687
0.002169
-0.1171
-0.09044
0.03137
-0.09852
0.3751
-0.03704
0.09427
0.3668
-0.08048
0.01513
0.01648
-0.1849
-0.1244
0.2731
-0.1164
-0.1255
-0.08586
0.5292
-0.1819
-0.00839
0.04456
-0.1289
-0.1533
-0.04948
0.0003901
-0.138
0.001351
0.01006
0.2864
0.1358
0.001659
-0.1482
0.02458
0.437
-0.1767
-0.1462
0.02268
0.01613
0.403
-0.1622
0.01956
0.1604
1.78
0.01806
-0.1247
0.1219
-0.2359
-0.1056
-0.08368
-0.09
0.02963
1.809
-0.115
-0.1334
0.314
-0.1453
-0.2091
-0.004901
-0.1663
-0.1117
0.3059
0.3382
-0.1794
-0.2031
0.0008861
0.0007506
-0.0906
-0.1345
-0.0969
-0.0002248
-0.1322
-0.1168
-0.1388
-0.1745
-0.0201
0.01649
-0.08161
-0.1627
-0.0881
3.638e-05
5.114e-05
0.0161
0.001717
-0.1026
0.01567
-0.264
-0.1081
-0.00413
0.01029
-0.1758
0.1239
0.01072
-0.08926
-0.1347
-0.1929
0.3435
-0.04773
-0.1413
-0.1736
-0.1039
-0.174
1.813
-0.1542
0.0009901
0.003614
0.05772
0.02837
-0.1556
-0.1301
0.001815
-0.06834
-0.1716
0.06454
0.4916
-0.1674
-0.0004887
0.03013
-0.02329
-0.1473
-0.08851
-0.04156
0.05271
-0.1175
0.01004
0.1757
0.2563
-0.04554
0.436
-0.1838
-0.08647
-0.145
-0.01073
0.9725
-0.1946
-0.17
0.08922
1.042
-0.1749
-0.04232
0.3212
0.02053
0.3392
-0.07902
-0.1578
-0.06776
-0.06349
-0.1718
-0.07639
-0.1951
-0.1451
-0.1729
-0.02696
-0.04792
-0.09676
-0.1567
-0.01458
-0.1508
0.006139
-0.1226
-0.1753
-0.1058
-0.1003
-0.05479
0.4522
0.08178
-0.0008496
0.001959
-0.08878
-0.001295
-0.1341
0.01646
0.8415
-0.1079
-0.006502
-0.003843
-0.1023
0.01733
-0.2092
-0.1509
-0.1201
-0.1343
-0.1762
-0.1677
-0.1606
-0.05894
-0.09526
-0.1487
-0.02332
-0.05933
-0.173
0.0837
0.01331
-0.1372
-0.4579
-0.08498
0.001776
0.04199
-0.1389
-0.1338
-0.09482
-0.0891
-0.1473
-0.1336
0.02415
0.4468
-0.172
-0.01465
-0.1329
0.1191
0.01001
-0.08998
0.002536
-0.1094
0.4852
-0.1695
-0.02212
-0.1368
-0.1433
-0.1545
-0.1442
0.01271
-0.02338
0.1021
-0.1958
0.001555
-0.06785
0.009108
-0.1712
-0.1674
0.1913
-0.1331
-0.1198
0.4633
0.8619
-0.1102
-0.1203
0.05943
-0.08343
-0.1115
-0.08303
0.08074
-0.08748
0.2529
-0.1266
-0.01595
-0.1435
-0.1725
0.1179
-0.03845
0.008808
-0.09703
-0.198
-0.1293
-0.1765
-0.0008139
0.006038
-0.1187
0.07508
-0.151
0.02724
-0.379
0.2551
-0.1746
0.04756
-0.3702
0.2369
-0.08798
-0.1065
0.3032
0.4265
0.07308
0.123
-0.1214
-0.1149
0.0007007
0.179
-0.1768
-0.1745
-0.08183
-0.1405
0.0006183
-0.1352
-0.1975
-0.1861
0.02141
-0.1394
-0.1426
0.001637
-0.08207
-0.08864
-0.1305
-0.1908
0.02043
0.008468
0.04941
-0.1091
-0.1443
-0.08066
-0.1647
-0.165
-0.09012
-0.1978
-0.0078
-5.417e-05
-0.09158
-0.09275
-0.08514
0.7123
0.01728
-0.1248
-0.04735
0.04036
-0.04612
-0.1803
-0.1509
-0.1572
-0.1677
-0.1023
0.02483
-0.08949
0.03219
-0.06056
0.0009127
-0.1803
-0.1977
0.002764
0.008494
-0.1424
-0.0638
-0.1548
0.05656
0.006782
0.06247
-0.09558
0.3086
0.179
-0.09921
-0.1
-0.07933
-0.09156
0.007758
-0.1764
-0.1212
-0.1751
0.03055
0.01998
1.051
-0.1556
-0.1551
-0.1089
-0.001519
0.06946
0.01498
-0.08037
0.01406
-0.08434
-0.1374
-0.08935
-0.06415
-0.1544
-0.1628
0.05887
0.001737
-0.02367
0.04782
-0.1082
0.02556
0.008481
0.4347
0.4075
0.001351
-0.1725
-0.1767
-0.1505
-0.1176
0.01631
0.03456
-0.1728
0.01157
-0.1678
0.01601
-0.1335
0.1507
-0.08319
0.002388
-0.1525
-0.0885
0.05725
-0.1581
-0.02871
-0.01072
0.001311
-0.08535
-0.1035
0.02315
-0.4295
-0.1807
-0.1717
-0.1413
-0.001818
-0.1204
-0.1754
-0.1735
-0.1822
0.2447
-0.169
-0.1081
-0.1705
-0.1427
0.5242
-0.06823
0.1023
-0.08526
-0.005745
-0.0961
0.001605
0.001967
0.0002863
-0.217
-0.1366
-0.194
0.1326
-0.08405
-0.08132
-0.03064
0.002369
-0.06505
-0.131
0.1599
-0.1683
0.001426
-0.07613
-0.1277
-0.1433
-0.1473
-0.0808
0.01691
0.002734
1.245
-0.05052
-0.1958
-0.189
-0.1497
0.3599
-0.1575
-0.1903
0.01522
-0.1277
0.00344
-0.09725
-0.113
0.03882
-0.119
-0.1601
-0.1768
0.0154
-0.172
-0.05959
-0.176
0.003434
-0.1531
-0.1414
-0.1555
-0.1708
-0.1625
-0.1266
0.2385
-0.1497
-0.1748
-0.1941
0.4349
-0.1696
-0.1046
0.03249
-0.1029
-0.08669
0.02747
0.03468
0.5926
-0.1055
-0.136
1.796
0.05073
0.0007306
-0.05869
-0.06078
0.02058
-0.06405
-0.1754
0.1708
0.9411
-0.1551
-0.1108
-0.0003927
-0.1784
-0.0671
-0.06168
-0.1663
0.1306
0.01345
-0.1869
-0.09277
0.001392
-0.1243
0.03216
0.5015
-0.09123
-0.09125
1.471
-0.09386
-0.106
0.01331
0.1146
1.2
0.9356
0.2938
0.4743
-0.1672
-0.08124
-0.1734
0.02764
0.01267
0.01285
0.05571
0.02081
-0.1487
-0.2065
0.1979
-0.1479
-0.1703
0.02887
0.04158
-0.1113
-0.182
0.0003171
-0.1332
-0.1921
-0.02605
-0.06363
-0.1002
-0.1332
-0.004889
-0.06793
-0.1457
0.39
-0.1701
-0.1468
0.01821
-0.05465
-0.1851
-0.1935
-0.1635
0.02137
-0.1351
0.623
0.02073
-0.1755
-0.125
-0.006461
0.07125
-0.09166
-0.1439
-0.07838
0.0005615
-0.1758
-0.1292
0.1952
-0.1563
-0.09655
-0.3799
0.1958
-0.146
0.01253
0.01714
-0.1735
-0.1529
-0.1069
-0.09676
0.01236
0.4394
0.001751
-0.0102
-0.006904
-0.02551
-0.07649
-0.1265
-0.09014
0.0127
0.0005555
-0.001826
-0.07968
-0.1929
-0.08254
-0.1398
-0.08895
-0.1426
0.4859
-0.1234
-0.0437
-0.1678
-0.1554
-0.043
-0.1576
0.0009107
-0.2029
0.3916
-0.3034
0.007993
-0.07852
0.05962
0.02668
-0.001078
-0.07129
0.1816
0.003547
-0.1137
0.004207
0.001442
-0.1448
-0.1469
0.01637
0.001073
0.1283
-0.1211
-0.028
-0.1755
-0.09882
0.007283
0.006782
-0.1239
-0.1773
1.397
0.004694
-0.06193
-0.07026
-0.1517
-0.09069
0.01751
-0.09372
-0.1144
-0.09137
0.005876
0.000815
-0.1743
0.8062
-0.008161
-0.1519
0.2704
0.0235
-0.1101
1.194
0.4263
0.005428
-0.1382
-0.07988
-0.1528
-0.0121
-0.01803
-0.1379
-0.1563
0.1985
0.01862
0.03207
0.0009331
-0.136
-0.1556
0.2375
-0.1147
-0.195
-0.08633
-0.1866
-0.1431
-0.0691
0.0175
-0.08724
0.001682
-0.1844
-0.06664
-0.1297
-0.001933
-0.1035
0.03953
-0.05532
0.002144
-0.1334
0.125
0.1046
0.01898
0.002005
-0.1853
-0.1834
-0.09251
0.0007939
-0.08317
0.6727
-0.08094
-0.1428
0.001814
-0.09512
-0.07889
-0.1047
-0.0871
-0.002647
0.3694
0.008994
0.2223
-0.1687
0.0005498
-0.1447
-0.1033
0.02066
-0.1316
-0.1668
0.005069
0.3837
-0.08913
0.1569
-0.144
-0.0842
0.5643
-0.1327
0.004044
-0.1224
-0.1051
-0.0862
0.09911
-0.1142
0.008008
0.01413
-0.1628
-0.01614
-0.1255
-0.1522
0.08937
0.6794
-0.07498
0.1665
0.149
1.848
0.001436
0.01401
0.000592
0.143
0.002205
-0.07849
0.007789
-0.1333
0.3661
-0.16
-0.07066
-0.1005
-0.09198
0.0004641
-0.1764
-0.1178
-0.06757
-0.052
-0.04371
0.485
0.06027
-0.1523
0.001053
-0.1414
-0.1784
-0.003819
0.01611
-0.1434
0.4437
-0.1394
-0.03739
-0.1596
-0.1702
-0.1626
-0.09923
-0.06673
-0.0801
-0.1183
-0.09117
0.02009
-0.1494
-0.08625
0.003363
-0.09217
-0.09405
-0.1081
-0.1263
-0.02286
-0.1421
-0.172
-0.08483
-0.1541
0.02787
0.6105
-0.1407
-0.1365
-0.1773
0.4154
-0.1397
-0.1584
0.01686
-0.1498
-0.1523
0.005397
0.001567
-0.1127
0.005999
-0.1591
-0.1373
-0.1834
-0.07606
-0.04781
0.0003126
1.915
0.005743
-0.09114
-0.1831
-0.07644
-0.03911
0.03608
0.09015
-0.1349
0.518
0.538
-0.08132
0.003291
-0.06316
-0.1439
0.4729
-0.06762
-0.1145
0.03067
-0.04672
-0.09084
-0.1751
-0.1567
0.002079
-0.1088
0.03337
-0.07976
-0.04137
-0.1968
0.01427
-0.1913
0.1217
-0.1112
0.01396
-0.1585
-0.0008611
-0.1755
-0.01218
-0.1439
-0.03153
-0.04727
0.01768
-0.1563
-0.081
-0.1156
-0.1373
-0.02429
-0.1816
-0.06113
-0.1046
-0.1329
-0.1975
-0.002448
-0.125
0.407
-0.1725
-0.08795
0.000287
0.3409
-0.114
0.2299
-0.1684
-0.09795
-0.1425
-0.106
0.4107
-0.15
0.003185
-0.015
0.09295
-0.09775
0.314
0.6879
-0.1208
-0.1829
-0.1793
-0.09069
-0.06826
-0.111
7.278e-05
-0.09444
0.05041
0.01952
-0.1416
0.2951
0.0002812
0.7616
0.001024
0.1797
0.01419
-0.1261
0.04679
-0.1414
-0.1081
0.02206
-0.04137
-0.09709
-0.1463
0.01482
-0.02006
0.13
-0.1562
-0.06601
0.02542
0.02042
-0.1359
-0.02641
-0.2486
-0.1878
-0.07591
0.005769
1.648
0.8775
0.1606
-0.09493
0.2951
-0.1803
-0.1821
0.002854
-0.09359
-0.1882
1.66
0.004534
0.01419
-0.08519
-0.178
-0.06936
0.0009408
-0.09077
0.01672
0.02995
-0.07471
-0.08421
-0.06002
-0.1927
-0.1577
-0.123
0.09484
-0.06069
0.003293
-0.1703
-0.01056
-0.1727
-0.1311
-0.1435
0.02711
-0.08714
-0.106
-0.0864
0.08479
-0.1891
-0.1595
-0.1742
-0.1667
-0.07972
-0.0462
0.1026
-0.1319
-0.1
-0.1668
-0.1713
-0.1818
-0.1331
-0.175
0.009276
-0.09692
-0.1805
0.03631
-0.09672
-0.1404
-0.05375
-0.08688
0.0001635
-0.03353
0.0006192
-0.1401
0.02007
-0.1431
-0.1144
-0.1669
-0.1707
-0.03667
-0.04015
-0.08603
-0.02399
-0.09884
-0.2045
-0.1292
0.661
-0.1492
0.0002108
-0.1888
-0.02092
-0.08822
-0.104
-0.1129
-0.126
0.4288
-0.1371
-0.1076
-0.03253
0.8377
-0.0437
-0.08732
0.4671
-0.08284
-0.0959
-0.2062
-0.3701
-0.1541
-0.1581
0.0184
-0.09915
0.8644
-0.07452
-0.1837
0.003225
0.05408
-0.118
-0.1738
-0.01184
-0.04361
0.1519
-0.1505
-0.07054
-0.1662
0.09733
-0.1712
-0.1091
-0.1716
0.2844
-0.151
-0.1236
0.002236
-0.008117
-0.09369
0.002216
-0.1029
-0.05012
-0.2092
1.48
-0.1536
-0.1972
-0.113
-0.1282
-0.07847
-0.1979
-0.002088
-0.03548
-0.09596
0.03705
-0.1477
-0.1256
-0.1023
0.0005233
-0.1691
-0.1961
-0.05924
9.41e-05
0.009038
-0.1232
-0.09078
-0.04976
-0.1364
-0.1645
-0.1232
-0.1465
-0.1149
-0.1156
-0.1516
-0.1896
6.761e-05
-0.1595
-0.1857
-0.01698
0.01229
-0.1741
-0.1069
0.02457
-0.1821
-0.0866
-0.08365
-0.09547
1.953
0.2157
0.002694
-0.1841
0.09771
0.5666
-0.02884
-0.1603
-0.1449
0.0002303
-0.1181
1.04
0.0159
-0.0991
-0.07255
0.02229
0.022
-0.07999
-0.1377
0.0005762
0.0114
0.002578
-0.1568
-0.04349
0.08119
-0.1231
-0.1953
-0.1277
0.3551
0.3315
0.01416
-0.08576
0.0007977
-0.1021
-0.1727
-0.1762
-0.1517
1.522
1.703
-0.1376
0.376
-0.114
0.001281
0.5648
-0.1488
-0.1654
0.06592
-0.1232
-0.183
-0.1212
0.001057
-0.1552
-0.1323
-0.1296
5.499e-05
-0.1273
-0.1344
-0.1865
-0.09293
-0.1718
0.002946
-0.1222
-0.186
-0.2006
-0.1528
0.00468
-0.06273
-0.02894
-0.08806
1.097
0.01492
-0.05974
-0.04544
-0.08692
0.05539
-0.1577
-0.1073
-0.01167
-0.007101
-0.0218
0.1403
-0.1508
-0.07436
0.1455
-0.1633
-0.1367
0.02935
-0.1841
0.0734
-0.1104
0.002742
-0.09873
0.5243
-0.2088
0.1707
-0.1292
-0.113
-0.1136
-0.1123
-0.1131
0.00659
-0.08877
-0.02004
-0.142
0.001387
0.03847
-0.06539
-0.04061
-0.0776
-0.1123
0.0002495
0.1039
-0.1565
0.004698
0.1314
-0.02053
0.001493
-0.2618
-0.08584
-0.1653
-0.08685
0.6875
-0.01314
-0.04467
1.01
0.324
-0.08301
0.07157
-0.1628
0.0008184
0.02519
0.000494
-0.1571
-0.05823
-0.1859
0.0008501
-0.03918
-0.09894
-0.1373
0.1178
0.002106
0.002188
-0.1149
0.7195
-0.06633
-0.005836
-0.1706
-0.1303
-0.1255
-0.09321
-0.0918
-0.03798
-0.1245
0.06531
-0.1176
0.0161
-0.1058
-0.1585
-0.1903
0.09347
-0.0154
-0.1963
0.1244
-0.06649
-0.1632
-0.1894
0.02538
-0.1888
0.3909
-0.06312
0.001502
-0.08672
-0.1329
0.01634
-0.1687
-0.1496
0.0003448
-0.163
-0.1684
0.01376
0.05049
0.01566
-0.06466
0.03405
-0.06194
-0.1233
0.06255
-0.08856
-0.1247
-0.07351
-0.1631
1.283
-0.01651
0.06383
0.0177
0.1111
0.009727
-0.09958
-0.03965
-0.09458
-0.07636
-0.1144
-0.1183
-0.1156
0.001725
-0.1362
0.00136
0.08955
1.25
0.1464
-0.1503
0.06539
-0.01404
0.03583
-0.06119
0.3004
-0.06589
-0.1505
-0.1038
0.009735
-0.09957
0.5216
-0.1803
-0.01984
-0.1226
-0.1656
-0.1486
0.04332
0.01147
0.02331
0.2832
-0.08658
0.05614
-0.1749
-0.08283
-0.03206
-0.1706
-0.1067
-0.05542
-0.06237
-0.1869
0.0008247
-0.2091
0.0304
-0.1942
-0.1579
-0.1827
-0.1814
-0.09333
1.224
-0.0827
-0.1522
-0.02475
-0.1757
-0.1749
-0.04148
-0.1255
0.01258
-0.1794
-0.07764
-0.09779
0.06033
0.0304
0.5369
0.4775
-0.09162
-0.1011
0.2542
-0.1705
-0.1082
-0.1055
0.001161
0.0001998
-0.02007
0.002426
0.5697
0.003772
-0.1412
-0.157
-0.1803
-0.1727
-0.02967
-0.1416
0.005988
-0.01787
0.001692
0.3349
0.2369
0.003356
-0.2075
0.03455
-0.08319
-0.1152
-0.007013
0.01658
-0.1932
0.3473
-0.000859
-0.00712
-0.1391
-0.1911
-0.1268
-0.07802
-0.1781
-0.09792
0.4346
-0.1679
-0.1558
0.03512
0.1022
-0.07374
-0.07022
-0.02348
0.03545
-0.1409
0.2507
-0.1122
0.01553
0.01344
-0.1765
-0.1737
0.02415
-0.176
-0.1463
0.000751
0.000733
0.0008088
0.3558
-0.168
-0.1321
0.2048
-0.1976
-0.1878
-0.1164
-0.1397
-0.186
-0.07036
-0.1294
-0.1154
0.003115
-0.2176
-0.3741
-0.1062
-0.165
-0.1295
0.001727
-0.1826
-0.08481
-0.1657
0.3407
-0.1568
-0.1162
-0.1201
0.4089
-0.07497
0.002073
0.04735
-0.4071
-0.04836
-0.1959
0.01907
-0.006623
-0.03557
0.2761
-0.01587
-0.1177
-0.1834
-0.1208
0.007772
-0.1479
0.396
-0.07301
-0.1733
0.06307
-0.1594
0.01155
-0.1614
-0.1767
-0.1312
-0.08742
1.044
-0.118
-0.1509
0.09265
-0.09282
0.0188
0.008581
-0.1615
0.0126
0.182
0.6414
-0.06123
-0.09551
-0.0184
0.001681
0.1405
-0.1261
0.01686
0.03542
-0.07995
-0.1097
0.2294
-0.05239
-0.1049
0.3479
-0.1113
-0.1446
-0.05641
-0.1957
-0.1633
-0.03178
0.0518
0.0005131
-0.1483
-0.1806
-0.08407
-0.1729
-0.2069
-0.08682
-0.3216
-0.08112
-0.08267
0.3984
0.001997
-0.137
-0.06019
0.2899
-0.08761
-0.04162
-0.1178
-0.1448
0.2047
0.7509
0.1822
-0.04591
-0.1099
0.06095
-0.1453
0.4689
-0.04102
-0.09011
-0.03113
-0.1657
0.06661
0.02391
-0.1213
-0.1344
-0.0004549
1.073
-0.1265
0.000454
-0.09373
-0.01273
-0.1542
-0.1356
-0.1775
0.1972
-0.07812
-0.09253
-0.1554
-0.148
-0.08907
-0.1513
-0.0322
5.198e-05
-0.2059
0.3335
-0.1096
-0.1278
-0.01091
0.3336
0.1498
-0.1226
-0.1887
-0.1218
0.01141
0.1708
-0.159
-0.01877
0.001725
-0.1747
-0.09202
-0.08391
0.0003815
0.01238
0.02229
-0.1701
-0.1503
-0.1416
-0.07569
-0.06811
-0.09093
-0.1386
-0.09845
-0.2036
-0.1135
0.001623
-0.03365
-0.1404
-0.1761
0.101
0.02064
-0.06049
0.0003302
1.138
0.4483
-0.1013
-0.1223
-0.1098
0.00115
-0.1668
-0.1297
-0.04885
0.1588
-0.1917
-0.143
-0.1679
-0.1213
-0.1249
0.2684
-0.0142
0.001124
0.17
0.0109
-0.1763
-0.1442
-0.1523