/*--------------------------------*- C++ -*----------------------------------*\
| =========                 |                                                 |
| \\      /  F ield         | OpenFOAM: The Open Source CFD Toolbox           |
|  \\    /   O peration     | Version:  v2012                                 |
|   \\  /    A nd           | Website:  www.openfoam.com                      |
|    \\/     M anipulation  |                                                 |
\*---------------------------------------------------------------------------*/
FoamFile
{
    version     2.0;
    format      ascii;
    class       surfaceScalarField;
    location    "5";
    object      phi;
}
// * * * * * * * * * * * * * * * * * * * * * * * * * * * * * * * * * * * * * //

dimensions      [0 3 -1 0 0 0 0];
oriented        oriented;


internalField   nonuniform List<scalar> 
185354
(
9.512e-07
-9.512e-07
-1.863e-06
1.863e-06
2.589e-05
-2.589e-05
-0.0002223
0.0002223
6.611e-05
-6.611e-05
2.568e-06
-2.568e-06
6.737e-05
-6.737e-05
8.96e-07
-8.961e-07
-3.864e-06
3.864e-06
-6.221e-05
6.221e-05
-2.562e-06
2.562e-06
-7.795e-05
7.795e-05
8.293e-06
-8.292e-06
-2.082e-06
-4.801e-07
-0.0001442
0.0001442
-0.0001344
0.0001344
2.347e-06
-4.373e-06
2.026e-06
1.797e-06
7.649e-07
-2.465e-05
3.727e-05
-1.262e-05
0.0001378
3.72e-05
-0.000175
-0.001554
-0.1054
0.1069
-0.03581
-0.06742
0.1032
0.0003894
-0.0003022
-8.714e-05
0.02467
-0.02824
0.003565
-0.000125
-0.001034
0.001159
-0.0003066
0.0006388
-0.0003322
0.002888
-0.0002353
-0.002653
-0.00101
0.001076
-6.61e-05
0.01315
0.00119
-0.01434
3.398e-06
-0.0003995
0.0003961
0.0004986
-0.001382
0.0008838
-1.204e-05
1.204e-05
-3.263e-05
3.263e-05
-3.263e-05
0.0003676
-0.0005822
0.0002147
-0.01018
0.07646
-0.06628
-0.001023
0.0257
-1.48
0.5458
0.9338
-0.003242
0.005511
-0.002269
-0.1076
0.07183
-0.0004635
0.0016
-0.001136
-2.554e-05
0.0001633
4.086e-05
-0.003217
0.003176
0.004016
-0.005137
0.001121
0.0002654
-0.0005105
0.0002451
0.0389
-0.009481
-0.02942
0.0005037
4.651e-05
-0.0005502
0.0006713
-0.0003334
-0.0003379
-0.0004599
0.0004157
4.416e-05
-0.00214
0.002167
-2.702e-05
-0.5911
-0.4759
1.067
-0.1112
0.1096
0.001063
-0.0003234
-0.0007401
0.0007938
-0.0001574
-0.0006363
-0.0008023
0.0003572
0.0004451
-0.0005483
0.0002416
-0.9375
0.3652
0.5722
-0.0006235
-0.003035
0.003659
4.318e-06
-1.971e-06
0.01396
-0.008235
-0.005721
-0.0007409
-0.0002692
0.3273
-1.047
0.7199
-9.618e-06
5.754e-06
0.002306
0.0003483
-0.002654
0.009598
-0.0007146
-0.008883
0.0005454
0.0005181
0.02917
-0.2279
0.1987
0.0006262
0.0003232
-0.0009495
3.884e-06
-2.853e-05
0.0004797
0.0008993
-0.001379
-3.007e-05
7.737e-05
-4.73e-05
-2.292e-05
2.844e-05
-5.516e-06
-0.006719
0.008133
-0.001414
1.454
-0.1438
-1.31
0.0006165
0.0001773
0.002484
1.827e-05
-0.002502
-0.001253
-0.000485
0.001738
0.04845
-0.009542
-0.003425
0.00342
5.307e-06
-0.004334
0.003204
0.00113
-7.092e-05
0.0003746
-0.0003037
0.006849
-0.006157
-0.000692
0.005964
-0.005225
-0.00074
0.0006915
-0.0004825
-0.0002091
-0.0002384
0.001053
-0.000815
1.643
-1.162
-0.4815
0.002366
-0.0002745
-0.002092
-0.4232
0.7505
-0.00255
-0.0008752
-0.0001096
0.0002187
-0.000109
-0.143
0.1722
-0.002706
-0.001628
-0.005635
0.00648
-0.0008453
-0.002858
0.00269
0.0001683
-0.003841
0.00287
0.0009707
5.843e-05
-2.071e-05
-3.772e-05
-0.242
0.09437
0.1476
-0.002377
0.001968
0.0004095
0.0003943
-0.0006158
0.0002215
-0.00218
0.001962
0.0002183
0.05822
-0.05141
-0.006813
0.0002122
-0.0003817
0.0001695
0.000184
-0.0006027
0.0004187
-0.01143
0.006678
0.004753
0.01447
-0.001319
-0.0002308
-0.000409
0.0006398
0.1497
1.304
-0.0001489
-0.001008
0.001157
-0.001558
-0.002282
0.000613
5.829e-05
-0.9162
-0.5634
-0.004057
0.002571
0.001486
-0.001065
0.0003868
0.0006783
-0.0201
0.01851
0.001588
0.001045
-0.0009696
-7.563e-05
0.0003097
-0.0007189
0.0004092
0.08746
-0.02739
-0.06007
-0.002011
0.001964
4.692e-05
0.005821
-0.005276
-0.0005445
0.0005518
-0.0002253
-0.0003264
0.001082
-0.0007584
-0.0003235
-0.0002898
0.000597
-0.0003073
0.0003781
-0.0003532
-2.49e-05
0.002208
-0.00545
0.003232
-0.0009265
2.864e-05
-5.871e-05
-0.001072
-0.001306
-0.001062
0.0007471
0.0003153
-0.0003008
-0.0003541
0.0006549
6.488e-05
9.5e-06
-7.438e-05
-0.0001155
-3.719e-05
0.0001526
0.0002958
-0.0003667
5.599e-05
2.444e-06
0.07653
-0.1033
0.0268
-0.01856
0.003017
0.01554
3.151e-05
-3.204e-05
5.267e-07
0.0003577
-0.0006088
0.0002511
0.0002985
0.0002533
-4.561e-05
-0.0003056
0.0003512
-0.002484
-0.001573
-0.0005316
0.0004582
7.332e-05
-1.509
0.2258
1.283
3.682e-05
-5.307e-06
0.0006276
-0.0007281
0.0001005
-0.00188
0.0003494
0.001531
9.173e-05
-0.0007535
0.0006618
-0.0006802
0.0005614
0.0001187
-0.000729
-0.0003362
-1.246
1.102
-0.0002978
0.0003096
-1.176e-05
-0.001035
0.0008854
0.0001496
-1.172
-0.07374
0.07657
0.0652
-0.1418
-3.208e-05
0.0006583
-0.0006263
0.0003341
0.002554
0.002194
-0.002724
0.0005308
-0.0008759
0.0002804
0.0005954
-0.0002821
0.0002815
5.468e-07
0.0005623
-0.001162
0.0005998
0.0005585
3.054e-05
-0.0005891
-0.5647
0.3511
0.2136
-0.0009391
0.001438
-0.5332
0.2046
0.3286
0.004545
-0.002754
-0.001791
2.299e-05
9.235e-06
-3.222e-05
0.001274
0.002892
-0.004166
0.000648
-0.0001582
-0.0004897
-2.545e-05
-0.0005439
0.0005694
-0.002431
-0.0001405
0.002571
-0.6938
-0.2437
0.001634
0.003179
-0.004813
-0.002001
0.001063
0.0009378
-0.0001186
0.0002707
-0.0001521
0.0003748
0.0001838
-2.797e-05
5.048e-05
-2.251e-05
0.0001269
-0.0003115
0.0001846
-0.8978
0.4218
0.476
0.002632
-0.0006318
-0.002
0.000257
0.0007882
-0.004501
0.0006369
0.003864
-0.001469
0.0004736
0.0009949
0.002265
0.0003668
1.417
-0.4879
-0.9293
0.01081
-0.003756
-0.007054
0.008545
-0.007907
-0.0006374
0.447
-1.038
-0.0007819
0.0005512
0.001266
-0.0003233
-0.000943
-0.02685
0.027
-0.0001576
4.71e-05
-9.793e-05
5.083e-05
-0.0005852
0.001988
-0.001403
0.002048
0.001701
-0.003749
-0.005987
-0.005444
7.236e-05
-0.0003369
0.0002646
0.0003108
-0.0007266
0.0004158
-5.854e-05
-0.0004014
-5.996e-05
-0.0003517
0.0004117
-0.02744
0.02112
0.006319
0.8322
-0.09873
-0.7334
-1.341
0.7534
0.588
0.0002159
-0.0003878
0.0001719
-0.00693
-0.01163
0.0042
-0.003778
-0.0004224
0.0005907
-0.000385
-0.0002057
0.0001492
-0.0007172
0.000568
-0.01009
0.006939
0.003148
1.678
-0.8348
-0.8435
-0.2847
0.7776
-0.4929
-0.001405
0.002642
-0.001238
-4.7e-05
-0.0005828
0.0006298
-0.001648
-0.0003531
0.005521
-0.003309
-0.002212
-0.000608
0.0005997
8.292e-06
-0.0008482
-0.0002142
-0.003101
0.004061
-0.0009593
-1.157e-05
-0.0004623
0.0004739
6.348e-05
-0.0005155
0.000452
0.005936
0.002609
-0.5806
-0.9283
-0.0007442
-0.001275
0.002019
-0.0009237
0.001134
-0.0002101
-8.317e-05
0.0001058
-2.261e-05
0.08699
-0.1079
0.02096
0.0006105
-0.0001307
-0.0004797
0.1356
-0.1112
-0.02441
0.0008903
-0.0003579
-0.0005324
0.0002046
6.351e-05
-0.0002681
0.0004699
0.000612
0.0001839
-0.00131
0.001126
-0.001304
0.0008184
0.0004858
0.001208
-0.0006963
-0.0005119
-0.001239
-0.002549
0.003787
0.0002145
-9.49e-06
-0.000205
-0.0002163
8.603e-05
0.0001303
3.133e-05
-0.0001334
0.0001021
-0.00121
0.0004327
0.0007769
-0.001757
-0.002744
-0.9237
1.03
-0.1065
-0.001071
0.0005118
0.0005595
0.001034
0.0004986
-0.001533
0.1459
-0.06936
-1.039
-0.07054
1.11
0.2775
-0.1604
-0.1171
0.0006065
0.0005075
-0.001114
0.0008155
-0.000124
7.978e-05
-0.0001857
0.0001059
-0.7979
0.2084
0.5895
-0.4255
-0.1078
-0.0007869
-0.0006295
0.001416
-0.1698
-0.1208
0.2906
0.001811
-0.001859
4.707e-05
-0.0004844
-0.001077
0.001562
-1.343e-05
0.0005484
-0.000535
0.0007061
-3.361e-05
-0.0006725
-0.0007749
0.0008774
-0.0001024
0.0003513
-0.0008804
0.0005292
-0.001221
-0.0003986
0.001619
0.0001744
0.008658
-0.008832
-0.0005885
-0.0004829
-0.001267
-7.781e-05
0.001344
0.006954
0.007002
0.2569
-1.055
0.003702
0.001819
0.001053
0.006612
-0.007666
3.414e-05
-1.115e-05
0.8651
-1.115
0.2504
-0.0008187
-0.0006498
0.0007721
0.0004943
-0.001832
0.00183
2.175e-06
-0.0002116
0.0002116
-0.0003446
-0.000429
0.0007736
-0.0008009
0.0009928
-0.0001918
-0.0001461
0.0001444
1.67e-06
8.986e-05
-2.497e-05
0.01005
0.0007586
0.0005536
-0.0005536
-9.652e-05
0.0007241
-0.001645
0.0016
4.492e-05
0.0006247
-0.0008631
0.001932
-0.001501
-0.0004311
-0.000631
0.0007262
-9.521e-05
0.001056
-1.25e-05
-0.001044
-0.003439
0.004881
-0.001443
0.0006171
-0.001305
0.000688
-0.008446
-0.007408
0.01585
-0.0001832
-0.0004247
0.003549
0.006049
-0.1188
0.1728
-0.05405
0.0005974
-0.0005056
-9.178e-05
0.0002961
0.0009384
-0.001235
-0.0001779
0.0004433
-0.0006591
0.0006845
-2.539e-05
-3.81e-05
-0.000495
0.0005331
-0.0002817
-0.0004713
0.0007531
0.00447
0.0004601
-0.00493
0.001447
-0.0007279
-0.0007195
-0.0003499
3.96e-05
0.0003103
7.206e-05
-7.206e-05
-0.04421
0.02324
0.02098
9.285e-05
-0.0003263
0.0002335
-0.0004018
-0.001479
0.03306
-0.01119
-0.02187
-0.001524
0.001801
-0.0002768
-0.8231
0.5557
0.2674
1.009
-0.1494
-0.8594
0.8723
-0.4093
-0.463
3.4e-05
-1.54e-05
-1.86e-05
0.0004401
-0.0004782
-0.0004295
-0.0004463
-0.0001827
0.0005502
-0.0008304
0.0004289
0.0004015
0.0001229
0.0006615
-0.0007843
0.03989
-0.04272
0.00283
-0.0003975
0.0002512
0.0001463
-0.1465
-0.01866
0.1651
0.8694
0.8088
-1.436
0.3964
0.0002909
0.0009172
0.003579
0.0009659
-0.0003083
-8.919e-05
-3.732e-05
7.074e-05
-3.342e-05
0.1566
0.1208
-0.003347
0.000916
-0.001721
-0.001137
-0.2748
0.1051
0.00119
0.0002569
0.0005906
-0.00054
-5.058e-05
-0.01473
0.02231
-0.007583
-0.01235
-0.01509
0.7916
-0.1586
-0.633
-0.002559
0.001815
-0.0001851
-4.492e-05
0.00023
1.079
0.5643
-0.0003883
0.0008266
-0.0004383
0.0007354
-0.0004257
6.564e-06
-1.093e-07
-6.455e-06
-1.172e-05
-0.0009906
0.001002
-0.001248
0.0007877
0.0004607
-0.001451
0.001326
-0.003003
0.001675
0.001328
0.0003984
-0.0002511
-0.0001473
-0.4933
-0.07147
0.0006007
-0.0002972
-0.0003035
-0.0007509
0.0001238
0.0006271
-0.0004686
0.000472
-0.0009759
-0.1178
0.0007035
-0.0003459
-0.001088
0.0001405
0.0009473
-0.1651
-0.07689
0.0001888
0.0005173
-0.001208
0.001059
0.0002446
0.0006457
-0.00224
0.0004025
0.001837
0.001043
-0.001521
0.0004778
0.00164
-0.4733
0.4716
-5.441e-05
-4.945e-06
5.936e-05
3.032e-05
-1.898e-05
-1.134e-05
5.255e-05
-0.0002359
0.0001834
0.000355
-0.0002538
-0.0001012
-0.001122
0.002157
-0.0005632
0.0006267
-0.001989
-0.0001178
0.002107
0.001057
-0.0001965
-0.0008607
-0.0005217
2.009e-05
0.0005016
0.003131
-0.0006468
0.0009692
-0.001021
5.216e-05
0.0007857
-0.002544
0.001758
0.000162
-0.000465
0.000303
-0.0009206
0.0001689
0.0007517
0.427
0.08551
-0.5125
-0.0007167
-0.0005318
-0.0006983
0.0005838
0.0001146
-0.4144
0.326
0.08846
0.0005607
-0.0005928
0.0166
-0.05956
0.04295
0.0003139
0.00188
0.0001123
-0.000222
0.000971
-0.00769
-0.5131
0.239
0.2741
-5.773e-05
0.0002135
-0.0001558
-8.092e-06
5.371e-06
2.722e-06
-1.496
0.1543
-8.154e-05
2.938e-05
5.216e-05
0.0001329
-0.0002514
0.01445
-0.0007101
-0.01374
1.147
-0.3148
-0.002969
0.001024
0.001945
0.001856
-0.002044
0.0001881
-0.006034
0.005771
0.000263
-0.0003796
-5.937e-05
0.000439
-0.0006888
0.000388
-0.0007996
0.000833
-3.34e-05
-0.004453
0.00298
0.001474
-0.624
0.3394
1.797e-06
0.0007112
-0.0002075
0.0008552
-0.0004011
-0.0004541
0.000221
0.0001683
-0.0006081
0.0005554
5.268e-05
-0.0003922
-0.0002765
0.0006687
0.0147
0.01836
-0.00322
0.004123
-0.0009028
-0.0002632
-0.0003294
0.0005926
0.000483
-0.0002672
-0.003859
0.002795
0.001064
0.01196
0.001338
-0.0133
0.0004189
-0.0004572
3.83e-05
-0.196
0.04957
-6.245e-05
0.0002436
-0.0001811
0.04062
-0.01517
-0.02545
0.0008392
-0.0005823
-0.0002569
-0.2134
0.2311
-0.01776
0.0003799
-0.0003799
-0.5301
1.126
-0.5961
-0.0001208
0.0005047
-0.0003839
0.001346
-0.001036
-0.0003104
-0.0014
2.168e-05
0.001378
0.0006454
2.528e-06
4.559e-05
-0.0004544
0.0004088
-0.007262
-0.002825
0.001173
-0.0003857
-0.0009334
0.001064
-0.000131
-0.000632
0.0001004
-0.0001847
0.0002643
-7.961e-05
1.331
-0.4225
-0.9086
0.07658
-0.2483
0.1717
-0.002258
0.004253
-0.001995
0.003382
-0.002199
-0.001183
0.001046
0.000251
-0.001297
-5.659e-05
0.001868
-0.0004498
-0.0008939
0.001344
0.242
-1.166
0.001452
-0.0009476
-0.0005049
0.01021
0.002832
-0.01304
0.02488
0.01574
0.0001386
0.0001251
-0.0002636
-1.329e-05
-4.113e-05
0.001432
-0.001024
-0.0004082
0.0006992
-3.462e-05
-0.0006646
-0.0002306
0.000107
0.0001236
0.06581
-0.07598
-0.001857
-0.002002
0.001062
-0.0005538
-0.000508
0.0003455
0.0003986
-0.0007441
0.001566
-0.003092
0.001526
1.009
-0.02065
-0.9885
-0.000483
0.000423
-0.01596
-0.01088
-0.002492
0.003208
-0.0007154
0.001068
0.0003641
-0.002314
7.437e-05
8.701e-05
-9.958e-05
1.258e-05
-0.4834
0.06902
0.0209
-0.001219
-0.01969
-0.001174
0.004061
-0.002887
-0.001828
-0.0002391
0.002068
1.23
0.1871
0.0007521
-4.835e-06
-0.0007473
0.00028
-0.0002638
-1.618e-05
-0.0002446
-0.001022
-0.8731
0.8731
-0.3895
-0.08936
0.4788
0.0001277
-2.365e-05
-0.000104
0.1542
-0.01217
-0.1421
0.0002537
0.0002527
-0.0005064
-0.0004389
-8.875e-05
0.0005277
-0.002369
-0.0005326
0.002902
0.004296
-0.005865
0.001569
0.0005741
0.001292
-0.001866
0.0009577
4.177e-05
-0.0009994
-0.0003646
0.0006754
0.001799
0.0009376
-0.002736
-6.071e-07
-9.263e-06
9.87e-06
0.0001778
0.0002206
-0.000653
0.0006034
4.961e-05
-0.0002685
0.0003613
-0.0007109
0.0002554
0.0004555
-0.0007301
0.001446
-0.000716
0.001759
-0.005633
0.003873
0.0002648
0.0005178
-0.0007826
0.002725
-0.001106
-0.001619
-0.2884
1.153
0.001508
-0.001117
-0.0003912
-0.01611
0.01282
0.003289
0.000564
-0.000611
-0.007903
0.006393
0.00151
-1.246e-05
-2.022e-05
3.268e-05
0.06234
-0.1505
0.08818
0.007587
-0.001623
-0.001393
-0.0001311
-0.001071
0.0007901
0.0002805
0.002445
0.001755
0.2177
-0.1545
-0.06321
7.641e-05
-7.641e-05
-0.0004006
0.0004462
0.002932
-0.002951
1.845e-05
-0.7005
-0.1973
-2.416e-05
6.549e-05
-4.133e-05
-0.0008375
0.001176
-0.0003385
-0.0002159
-0.001924
-2.106e-05
4.597e-05
-2.491e-05
-0.0004856
0.00044
1.079
-0.07026
-1.426e-05
0.0007603
-0.000746
0.0015
-0.001211
-0.0002891
0.05684
-0.05517
-0.001661
-0.0001091
-0.0003204
0.0004295
-0.001279
-0.0004004
0.00168
0.0008693
-0.0002674
-0.0006019
0.5106
-0.6093
-0.004449
-0.0002654
0.004715
0.0001534
-0.0002242
7.081e-05
-0.001011
0.001776
-0.0007649
-0.0008284
0.001391
3.551e-05
-2.88e-06
0.0002046
0.0005584
-0.000763
-0.0002877
-0.0004633
-0.0005617
-0.0002687
0.0005276
-0.0003656
-0.0001569
0.0002839
0.001834
0.001036
0.002338
-0.001323
-0.001015
9.935e-05
0.0002787
0.0001067
0.000406
-0.0005126
-0.000651
0.0006434
7.565e-06
0.2119
-0.1353
-0.001991
0.0009649
0.001026
0.0007337
0.000766
0.008225
-0.001375
-6.839e-05
-0.0003865
0.0004549
0.0009691
-0.0007274
-0.0002417
-0.4197
0.6267
-0.207
-0.4683
-0.04478
0.1782
-0.1302
-0.04802
0.0006789
0.0006674
-0.003188
-0.001265
-0.09088
0.03793
0.05295
0.0008513
-0.0002889
-0.0005623
0.0002447
-0.0003804
0.0001357
-0.001015
0.0002904
0.0007245
0.0002084
0.0007257
-0.000934
0.0004241
-0.0005332
0.0005455
0.000628
-0.01716
0.02795
-0.01079
0.00326
-0.003399
0.000139
0.07673
-0.4965
-0.5331
-0.29
-5.842e-05
0.0004528
-3.198e-05
3.611e-05
-4.127e-06
-0.001005
0.001249
-0.0002437
-1.176
1.326
0.3217
-0.9322
0.6104
1.149
-1.154
0.004616
-0.001517
-0.001452
0.0003153
-0.0002265
-8.877e-05
-2.367e-05
-0.0009001
-0.001367
0.001068
0.0002989
-0.00237
0.0001055
0.002264
-5.886e-05
0.000766
-0.0007071
0.0002332
4.684e-05
-0.0002235
-0.001422
-0.3107
0.1624
0.1483
0.0003114
0.0002793
0.0001584
-7.861e-05
0.03929
0.09631
0.0003701
0.0001151
-0.0004852
-0.0003164
0.0006168
-0.0003004
0.9196
-0.5978
0.0001537
0.0001324
-0.0002861
-0.02049
0.005761
-0.0006808
0.00274
-0.002059
-0.001421
0.0003439
0.001077
-0.0001482
-8.234e-05
0.003814
-0.004316
0.0005013
-0.0006084
-0.001381
1.44e-05
-0.0003643
0.0003201
0.0005191
0.00124
-0.002801
0.001561
-0.04255
-0.001665
-0.0006276
0.0001059
-0.0002843
1.412e-05
0.0002702
-0.9377
0.705
0.2327
0.0002097
0.000391
-0.0005839
-0.0003174
0.0009012
-1.455e-05
1.713e-05
-2.581e-06
7.129e-06
-2.382e-07
-6.891e-06
0.9284
-0.413
-0.5154
0.0001218
-0.0002655
0.0001437
0.03652
0.02618
-0.0627
-0.003089
-1.246e-05
0.0003055
0.0004467
0.000641
-0.0006635
2.246e-05
-4.322e-05
9.032e-05
-0.001301
0.001184
0.000117
0.0002128
0.0002567
-0.0004695
0.6515
0.5475
-1.199
-2.294e-05
-0.000608
0.03722
-0.03423
-0.00299
0.000529
0.0009614
-0.00149
-0.002035
0.001684
0.0003516
-0.0006962
0.001323
-0.0006269
1.648e-05
-0.000391
0.0003745
-0.004012
0.002773
-1.023
-0.1535
-0.001283
0.005299
-0.0004736
0.0008248
0.0008041
-0.0004007
-0.0004034
-0.001039
-0.000581
0.00162
-0.0001613
0.0002229
-6.158e-05
-0.003855
0.001348
0.002508
-6.902e-06
4.45e-06
2.452e-06
0.004664
0.03592
-0.04058
0.000343
-9.83e-05
0.0001177
9.939e-06
-1.156
1.218
-0.06144
-0.0001152
-0.0006378
0.0007529
-0.001825
0.0008177
0.001008
0.0004397
-0.0003114
-0.0001283
0.9996
0.0008358
-0.0007319
-0.0001038
-0.00152
-6.758e-05
0.001588
-1.171e-05
-1.121e-05
-0.004229
0.003606
0.001141
-0.001054
-8.701e-05
-0.0005047
-0.0002802
0.0007849
0.000526
0.0003097
1.19
0.1407
-0.4225
0.9331
-0.000735
0.0004111
0.0003239
0.0005322
-7.562e-05
-0.0004565
0.006113
-0.004839
0.2482
0.04636
-0.03801
-0.008353
-0.0002015
0.002322
-0.00212
-0.00142
0.0009828
0.0004371
0.000919
-0.001251
0.0003324
-0.003006
-0.003028
-0.0005987
0.0002065
0.00178
-0.002376
0.0005953
-0.0004265
-0.001042
0.001469
-0.000908
0.0001084
-0.0001375
-0.0001445
0.0004341
0.0005236
-0.0006422
0.0007339
0.7914
0.137
-0.0006099
0.0005844
0.01013
0.004316
0.6983
-0.5959
-0.1025
2.676e-05
7.244e-06
0.0005874
-0.0002173
-0.0007714
-0.0005023
0.001274
0.0007357
-0.001432
0.001109
-0.001409
0.0002993
-0.0001744
1.306e-05
1.679
-0.8645
-0.8143
0.0002779
-0.0002779
0.0002779
-0.001228
-0.0003628
0.00159
-0.001627
0.003715
-0.002089
-0.0003754
-0.213
-1.083
-0.4308
1.514
-0.003031
0.004665
-9.615e-05
-0.0002016
-0.07862
0.01117
0.06745
-0.001112
-0.0001921
0.002982
-0.002069
-0.0009132
0.0009701
0.001755
-0.005623
0.0007695
0.004853
-0.001083
4.799e-05
-0.008332
0.009519
-0.001188
-0.001225
0.004966
-0.003741
0.0001496
-0.0004222
0.0002727
0.0002037
1.083e-05
-4.129e-06
4.081e-06
4.817e-08
0.001144
-0.0009302
-0.0002134
0.001209
-0.0009128
0.846
-1.199
0.3526
0.0006308
-0.0006351
4.294e-06
-0.00468
-0.003222
-9.851e-05
9.851e-05
0.000153
0.0001623
0.0003011
0.0001456
-0.0004467
-0.0008015
-0.004834
0.0007417
0.0007663
-0.3257
-0.8304
0.000191
-0.0008123
0.0006213
-0.3902
1.042
-0.0004237
0.001288
-0.0008645
1.721e-05
1.311e-05
0.0002338
-0.0003201
8.626e-05
0.002239
-0.00318
0.0009413
-0.001055
0.0002456
0.0008091
0.005893
-0.001129
-0.004764
-0.0003343
0.0004066
-4.547e-05
-0.0002826
0.0003281
0.02041
0.0168
0.001784
-0.001304
-0.07301
0.1354
0.4847
-1.015
-0.0008908
0.001075
-0.0001206
0.0001135
7.074e-06
0.002432
0.002439
-0.00487
-0.0006061
0.0008433
-0.0002372
0.001648
-0.001345
-0.0003037
0.003584
-0.001537
-0.001083
0.001414
-0.0003307
0.007264
-0.00428
-0.002984
0.01529
-0.02135
0.006059
-0.0001276
-0.0005526
-0.05214
-0.03874
-9.777e-05
7.085e-07
9.706e-05
0.467
0.1105
-0.5774
-0.004324
0.003899
0.0004251
0.0002854
0.0007718
-0.003974
0.003706
0.0002678
-0.002597
0.002821
-0.0002238
-0.000954
-0.0008714
-0.0003176
0.0003978
-8.02e-05
0.0003489
-0.0006344
0.0002855
-0.09078
-0.05147
0.1422
0.0004007
0.0003711
-0.0007718
0.002371
0.001011
-0.0005546
8.954e-05
-0.004478
0.00111
0.003368
-0.002697
0.003136
-0.0004393
-0.08977
0.9357
-3.47e-05
2.073e-06
0.00231
0.0008211
-0.0001857
3.961e-05
0.005111
0.005185
-0.0103
0.002546
0.01347
-0.01601
0.005919
-0.001813
-0.004106
-0.000417
0.0006798
-0.0002628
-0.0003411
0.0002806
6.054e-05
-0.004274
0.001279
0.002996
0.004588
0.001232
0.0002761
0.0003213
-0.0001058
0.0003105
0.0001278
0.0002522
-0.003674
0.003715
0.0007267
7.743e-05
9.681e-05
0.0004938
0.1402
-0.1675
0.02728
0.0007885
0.0002732
-0.08618
0.2264
0.000672
0.00226
-0.0002505
0.0003787
-0.0001282
0.6971
0.09457
-0.0003116
-0.000759
-0.00175
0.0008228
0.0009271
-0.05112
0.7788
-0.7277
0.00462
-0.003983
-0.0006376
-0.001931
0.001152
0.0007794
0.0002516
-0.001472
0.0005785
-0.0005919
0.001395
-0.0008124
-0.0005826
0.09821
-0.01075
-0.00321
0.001805
-0.0004122
0.0001775
0.0002347
0.0007762
-0.003997
0.0003821
6.99e-05
-0.000452
0.0005623
-0.0002611
0.001078
-0.0004514
-0.001762
0.001812
-5.05e-05
0.0007862
-6.81e-05
-0.0007181
0.0001302
0.000402
-1.002
-0.2963
1.298
-4.732e-05
-0.0008861
0.7475
-0.7986
0.004048
-0.002611
-0.001437
-0.006898
0.00565
0.001248
-0.001165
0.0001107
0.0008562
0.0001645
-0.001021
0.00023
-0.0006808
0.0004508
-1.445
0.7446
0.7007
0.7262
-0.2992
-0.0002893
0.0008797
-0.0005905
0.0007799
-0.000657
-0.1854
0.1798
0.005647
-0.001998
0.001137
0.0008611
-0.0003257
-0.001507
-0.0001595
0.0006098
-0.0004503
-0.001001
-0.001034
0.00724
0.06929
0.02909
-0.03124
0.002147
-0.0003903
-0.0003206
-9.457e-05
0.0005617
-0.0004672
0.0002147
-0.0002327
1.805e-05
-0.0002831
0.0003356
-0.7269
-0.7184
-1.303
1.149
0.1535
-0.00205
0.0005906
0.00146
0.000195
0.0002068
-0.0004018
0.001423
-0.0003667
0.001761
-0.001306
-0.0004548
-0.002764
0.001864
0.0009006
0.0006342
0.0008183
0.0005095
0.0005753
-0.001085
0.0003051
0.001551
0.0002511
-0.001504
-0.004054
-0.002845
0.5429
-0.6525
0.1097
0.0239
0.02246
0.0002646
-0.0002493
-1.526e-05
-0.002738
0.001137
0.001601
0.0001454
-0.0008045
0.01026
-0.01005
-0.0002059
0.0005061
-0.0009098
0.0004038
-0.0008471
0.00177
-0.0009224
7.905e-06
-3.932e-05
3.142e-05
2.449e-06
3.435e-06
-5.885e-06
0.002699
-0.0007238
-0.001975
0.002667
-0.002868
-0.005536
0.00337
0.002167
-0.0001902
7.417e-05
0.000116
-0.0003746
-0.0002082
0.0005828
-0.0002548
0.0001923
0.0003368
0.0007412
-0.001078
0.0005725
0.0002827
0.0006645
-0.0007694
0.0001049
0.001898
-0.001727
-0.0001713
0.001576
-0.0007908
-0.0007856
-0.0003046
0.0002051
9.943e-05
-0.5445
0.3641
0.1804
1.396e-05
-0.0002344
0.0002204
-0.6493
0.2598
-0.001038
0.0002238
0.0008141
1.32
0.3592
-0.001647
-0.001117
0.003768
-0.005767
0.001999
-0.0004966
0.0004201
7.653e-05
-8.026e-05
-0.0008841
0.0009644
0.001551
-0.002201
0.0006491
-0.001436
0.0009859
-1.459
0.3756
0.0007166
0.00165
4.449e-05
-0.0001271
8.259e-05
-0.0005246
-0.0002049
0.0007295
0.0002486
-0.001437
0.001188
-0.0001256
0.001253
-0.001127
0.0002385
-6.166e-05
-0.0001768
-0.0006804
-0.0007395
0.0007193
-0.001506
-0.0002991
0.0003296
-3.046e-05
0.0007821
-0.0001716
-0.001511
-0.0005618
0.002073
-0.001053
0.002619
-8.74e-05
1.395e-05
7.345e-05
0.0006607
0.0007691
-0.00143
0.00018
-0.0002392
5.92e-05
9.447e-05
-4.253e-05
-5.195e-05
-0.001738
-0.0003018
0.002039
-0.0005869
0.0007709
-0.0005978
-0.000145
0.0007428
-0.001344
-5.545e-05
3.729e-05
0.0002012
-4.681e-05
5.84e-05
-1.159e-05
-0.01249
0.01266
-0.0003855
0.000226
0.0001595
-1.863e-05
-0.0001649
0.0001835
-0.001085
0.001604
-0.000519
0.003381
-0.00377
0.0003889
0.003117
-0.007459
0.004342
0.002681
-0.002768
8.722e-05
0.01998
0.0177
-0.03769
-0.0001727
0.0002788
-0.000106
-0.002332
0.002594
-0.0002621
-0.000416
-0.0006763
0.001092
0.001228
-0.0001898
-0.001039
-0.0006164
0.0006164
0.002039
-0.000898
-0.001141
0.0005359
-0.0005359
0.0002015
0.0001843
-0.0003858
0.0003128
-0.000768
0.0004552
0.0007629
-0.0004826
-0.0002803
-0.003747
0.001693
0.002054
0.5266
0.2797
-0.8063
0.005864
-0.003037
-0.002828
0.161
0.8849
-1.046
0.0005842
-0.0005149
-6.925e-05
-0.0006162
0.001725
-0.001109
-0.001628
0.0004054
0.001223
-0.0005055
7.827e-05
0.0004273
0.0005514
-0.0003309
-0.0002205
-0.0001804
-0.001923
0.002103
0.0003101
0.0001659
-0.0004759
0.001146
-0.0004878
-0.0006578
1.489e-05
-1.489e-05
-0.0007578
-0.0005707
0.001329
1.114
0.05602
-1.17
-0.0008094
0.0004314
0.000378
0.001505
-0.0001458
-0.00136
-0.00263
0.002237
0.0003938
0.03457
-0.0129
-0.02167
-0.0005352
0.001207
-0.0006719
0.008146
0.3065
-0.3147
-0.001316
0.0003005
0.001016
-0.0002579
0.0001143
0.0001436
-0.0003914
-0.00137
1.567e-05
-8.978e-06
-6.693e-06
-4.739e-06
4.739e-06
1.38
-0.3703
-0.0008949
0.002635
-0.00174
-0.01567
-0.004822
0.02669
-0.02718
0.0004915
0.01684
0.004739
-0.02158
-0.0007639
0.002046
-0.001282
-0.4587
0.2113
0.2475
-0.0001942
0.0005368
-0.0003426
-0.0002335
0.001484
-0.001251
0.9885
0.03809
-1.027
0.001897
-0.002911
0.001014
0.3598
0.1285
-0.4883
-0.0001065
0.0001346
-2.815e-05
-0.0002631
-0.0006216
0.0008847
-0.001617
0.0006345
0.0009821
-7.829e-05
-0.0001599
0.0002382
1.621
-0.5074
0.0839
-0.03683
-0.04706
0.03783
0.04916
0.0008744
-0.0008744
-0.001664
-0.003252
0.004916
-0.1804
0.05435
0.1261
-0.0005997
-0.001507
0.002107
0.8217
-1.016
0.194
0.001195
-0.000262
-0.0009331
-0.3743
0.2538
0.1205
0.0003224
-0.0001888
-0.0001336
0.001224
-0.001688
0.003607
-0.003996
0.0003887
0.0003274
0.001453
-0.5208
0.751
-0.2302
-1.562
0.9813
4.715e-05
-0.0002285
0.0001814
-0.001075
0.0002832
0.0007921
-0.0002011
0.001623
-0.001422
0.0001054
-0.000137
3.163e-05
-2.654e-05
0.0001043
-7.777e-05
0.0007648
-0.0005479
-0.0002169
0.002033
-0.001035
-0.0009974
0.0001902
-0.0006944
0.0005042
0.00108
-0.0005112
-0.0005692
0.0555
-0.02195
-0.03355
0.000178
-0.0001416
-3.64e-05
0.005838
-0.003432
-0.002406
-1.462
0.4599
0.0008845
-0.0008845
-0.008863
0.004892
0.00397
-0.001551
0.01017
-0.008614
0.002036
-0.000503
-0.001533
0.0001524
-0.0001425
-9.902e-06
0.3456
-0.4577
0.1121
0.0004684
-0.0004867
1.829e-05
0.000895
-0.0007376
-0.0001575
8.002e-05
-8.163e-05
1.612e-06
-4.747e-05
0.0003762
-0.0003287
0.05726
-0.004409
-0.05285
-0.0003896
0.0006556
-0.000266
0.0009756
0.003072
-0.0009614
0.0002434
0.000718
-0.06698
0.2143
-0.1473
0.003418
0.002447
-0.04674
0.07162
-0.02487
0.0001608
-8.421e-06
-0.0004976
0.001749
-0.001252
0.0002522
-0.0005508
0.0002987
-0.000482
0.0004362
4.572e-05
0.0004184
-0.0004184
-0.001153
0.001206
-5.353e-05
0.0008784
-2.719e-05
0.0001372
-0.0001372
-0.004876
-0.0009771
0.005853
0.0002068
-0.0001987
-8.061e-06
-0.0001805
-0.0005095
0.00069
0.001488
-0.01384
0.000144
0.0005008
-0.0006448
0.004046
-0.002528
-0.001517
-8.312e-05
-0.0001255
0.0002087
-4.18e-05
3.206e-05
9.742e-06
6.1e-05
-0.0001534
9.236e-05
0.013
-0.001616
-0.01138
0.0004867
-0.0001377
-0.000349
8.784e-05
-0.0001309
4.308e-05
0.0002557
-0.0009322
0.0006765
-0.001621
0.002079
-0.000458
0.0002538
-0.0001463
-0.0001075
-0.002582
0.001271
0.001311
-0.0006032
-5.171e-05
0.000655
-0.0001291
0.0004171
-0.0002879
0.0009408
-0.0003511
-0.0005897
-0.001214
0.0009291
0.0002845
-0.7105
0.7121
-0.0006116
-0.0001861
0.0007977
0.0008412
-0.0006468
-0.0001944
0.0002493
-0.001027
0.0007781
0.0004976
-0.0008308
0.0003332
-0.0007167
-3.031e-05
0.0007471
-8.784e-05
9.958e-05
-1.174e-05
0.000154
-0.0001674
1.34e-05
-0.0002162
5.831e-05
0.0001579
0.0006456
-7.646e-05
-0.0005691
-3.062e-06
3.062e-06
-0.4473
0.4838
-0.03648
-0.0004006
0.0006729
-0.0002723
-0.00397
0.000115
0.001606
-0.0006435
-0.000962
-0.001073
0.001005
6.844e-05
-0.4555
0.8884
-0.4329
-9.101e-05
0.0002498
-0.0001588
0.00092
0.001779
-0.0002629
0.0007643
-0.0005014
0.0002093
-0.0002093
-0.000137
0.0001216
1.536e-05
-0.001279
0.007263
-0.005983
0.0004722
0.0003161
-0.0007883
-0.001239
0.0005929
0.0006463
-0.001004
0.002788
-0.001785
8.637e-05
0.0001081
-0.0001945
-0.0007525
-5.697e-05
0.001238
-0.001016
-0.0002222
-0.6578
0.3043
0.3536
-0.001278
-0.001183
0.00246
-0.0005929
0.000169
0.0004239
0.1882
0.0003895
-0.1886
-0.000269
0.006529
-0.00626
-0.0001321
-0.001342
0.001474
-0.004243
0.009684
-0.005441
-0.00582
0.0004374
0.005383
-0.0001656
0.0004704
-0.0003048
-0.002093
2.413e-06
0.00209
-0.0009183
0.0004515
0.0004668
-0.0004592
4.701e-05
-3.39e-05
0.002995
0.005607
-0.008603
-9.59e-05
-0.0005122
-0.0009683
0.001959
-0.0009912
5.902e-05
0.0005173
-0.0005763
0.0007223
-0.0001062
-0.0006161
-0.008757
0.01945
-0.01069
0.6943
0.09706
-0.0008887
-0.001849
0.0007324
0.0009968
-0.001729
-0.0009384
-0.001015
0.001953
-3.392e-05
1.371e-05
2.021e-05
0.00232
-0.00204
-0.000279
-0.01035
-0.0002884
0.01064
-1.549
0.8096
0.7396
0.361
-0.2447
-0.1163
0.003864
-0.003098
-0.0007669
-0.0001633
-0.000203
0.0003663
0.001546
-0.001136
-0.0004102
-0.0004456
-0.0009419
0.001387
0.003015
-0.005057
0.002042
-0.001115
0.0007729
0.0003417
0.0005739
-0.0007847
0.0002108
0.0004532
-0.0004532
0.001052
-0.001587
0.0005349
0.0001914
0.001515
-0.001706
0.001406
-0.0007994
-0.0005501
0.002483
-0.001933
-0.2262
0.8988
-0.6726
-0.3337
1.176
-0.8422
-0.002518
-0.004246
0.006764
0.0007416
-0.0001959
-0.0005457
-0.0004099
0.0007571
-0.0003473
-0.001928
-0.002065
0.003993
0.3641
0.06434
-0.4285
1.107
-0.8615
-0.2455
0.2859
0.1956
-0.4814
0.0009289
-0.0002427
-0.0006861
-1.105e-06
7.67e-06
-0.1982
-0.7045
0.9027
-0.0003393
1.654e-05
0.0003228
-0.0001908
0.0002571
-6.629e-05
0.0002216
-0.0001273
-9.428e-05
-0.007607
0.002849
0.004759
-0.2763
0.8746
-0.5983
-0.0884
-0.1076
0.0001022
-0.0004853
0.0003831
-0.0004125
0.0004125
0.0004012
-0.000348
-5.324e-05
-1.04e-05
1.04e-05
0.001267
-0.0004369
-0.0008302
0.0005783
-0.001103
0.000525
-0.001095
0.00127
-0.0001748
-0.008678
0.00615
0.002529
-0.0005789
0.0005183
6.058e-05
-0.000428
0.0007114
-0.0002834
0.001451
-0.0003481
-0.001102
-9.973e-06
0.0001154
0.0018
-0.000267
-0.001533
-0.0004491
-0.0004415
0.0008906
-0.00262
0.007557
-0.004937
-0.0008019
-7.199e-05
0.0008739
-0.001274
-0.0001476
-0.01257
0.01417
-0.0016
-0.09513
0.3158
-0.2206
-0.1863
0.3536
-0.1673
0.001001
-0.0002924
-0.000709
-6.958e-05
0.0001127
-4.315e-05
-0.0002401
0.001043
-0.0008027
-0.0001676
-0.0001972
0.0003648
-0.01025
0.01551
-0.005255
-0.0003901
0.0009051
-0.000515
-0.0006589
-0.0003321
0.000991
0.2875
-0.01553
-0.2719
-0.0002759
-0.0001217
0.0003976
0.0009142
-0.0002861
-0.0006281
5.534e-06
-1.189e-05
6.36e-06
0.0005783
-0.000662
8.369e-05
-0.001163
0.0007113
0.0004517
-0.0004366
0.0001412
0.0002954
0.001726
-0.0003145
-0.001412
-3.099e-05
0.0004056
0.415
0.3295
-0.7446
-0.0003295
-0.0004055
-8.652e-05
-0.0005483
0.0006349
-0.0001418
-0.0002018
0.0003435
-0.01073
-0.003673
0.0144
-0.001452
0.001779
-7.933e-05
0.009001
-0.008922
-0.003935
0.0005133
0.003422
-0.2102
-0.1004
0.02633
0.03189
-0.0003559
0.0001989
0.0001569
0.001018
-0.001125
0.0001075
0.01308
-0.2275
0.2145
4.704e-05
-4.424e-05
-2.804e-06
-0.0006034
0.0005057
9.772e-05
0.001344
-0.0009233
-0.0004209
0.7029
-0.9638
0.2609
-0.002435
0.001671
-0.003751
0.003369
0.0003817
-0.0005869
0.0005783
8.627e-06
-4.118e-05
0.0002213
-0.0001801
-0.001465
0.0007423
0.000723
0.09772
-0.009682
-0.08803