/*--------------------------------*- C++ -*----------------------------------*\
| =========                 |                                                 |
| \\      /  F ield         | OpenFOAM: The Open Source CFD Toolbox           |
|  \\    /   O peration     | Version:  v2012                                 |
|   \\  /    A nd           | Website:  www.openfoam.com                      |
|    \\/     M anipulation  |                                                 |
\*---------------------------------------------------------------------------*/
FoamFile
{
    version     2.0;
    format      ascii;
    class       volVectorField;
    location    "5";
    object      U;
}
// * * * * * * * * * * * * * * * * * * * * * * * * * * * * * * * * * * * * * //

dimensions      [0 1 -1 0 0 0 0];


internalField   nonuniform List<vector> 
124707
(
(0.0001247 -0.02429 0)
(0.06264 0.007307 1.231e-22)
(0.1107 0.2959 8.675e-21)
(0.5733 0.1084 -7.506e-22)
(0.5377 0.2122 0)
(0.07247 0.007787 -1.49e-22)
(0.2744 0.4026 0)
(0.0003322 -0.02342 0)
(0.1379 -0.009099 -5.579e-23)
(0.3633 0.3463 0)
(-0.0007939 -0.03052 0)
(0.4316 -0.2645 0)
(0.1316 0.01456 -8.994e-22)
(-0.00206 -0.04638 0)
(0.5601 0.2348 0)
(0.534 0.2551 0)
(0.001702 -0.06982 0)
(-3.679e-05 -0.04836 0)
(0.2915 0.0395 -2.85e-23)
(0.3471 0.04615 1.337e-22)
(0.9888 0.02499 -4.83e-22)
(0.9681 0.006836 -4.216e-21)
(0.791 -0.5003 2.457e-22)
(0.913 -0.08824 0)
(0.8365 0.4952 -1.18e-21)
(0.4454 0.04482 1.294e-22)
(0.7453 -0.07453 -4.785e-22)
(0.9334 -0.2328 0)
(1.026 0.005609 2.133e-22)
(0.9424 -0.3626 -7.86e-22)
(1.122 0.0752 -1.836e-22)
(0.02047 0.1516 0)
(0.03502 0.1745 -1.688e-21)
(0.02021 0.1621 -5.46e-21)
(0.5724 0.04113 0)
(1.006 0.02354 1.047e-21)
(0.9159 -0.08747 -3.357e-22)
(1.002 -3.349e-05 0)
(0.945 -0.05395 3.373e-22)
(0.9682 0.005802 0)
(1.067 0.3409 1.994e-22)
(0.3478 0.04619 -1.13e-22)
(1.043 -0.007528 0)
(0.9513 -0.05264 0)
(0.4784 0.04545 -1.46e-22)
(0.9738 -0.01345 6.752e-22)
(0.5122 0.04568 -3.284e-24)
(0.9149 -0.1498 -1.249e-22)
(0.8053 -0.4835 9.086e-22)
(0.8499 -0.07704 -3.455e-23)
(1.004 0.0001626 -1.974e-21)
(0.99 0.02481 1.13e-21)
(0.6423 0.03336 -1.589e-22)
(0.6474 0.02979 0)
(0.8968 -0.1884 -1.867e-23)
(0.4468 0.04456 -3.013e-22)
(1.001 -0.0005519 2.837e-20)
(0.7342 0.006269 -7.868e-23)
(0.002724 -0.07148 0)
(0.8389 0.002715 -1.333e-22)
(0.9334 -0.2344 -3.932e-22)
(0.9954 -0.002287 6.602e-21)
(0.229 -0.01459 1.403e-22)
(0.5709 0.05783 0)
(0.9525 -0.1112 0)
(0.6422 0.03396 -1.645e-22)
(0.9957 0.0153 -8.682e-21)
(1.152 0.187 1.956e-22)
(0.2942 0.03916 4.944e-23)
(1.101 0.04622 -2.485e-22)
(0.328 0.03433 6.529e-24)
(0.0441 -0.0711 7.599e-22)
(0.9546 -0.1431 1.515e-21)
(1.003 8.152e-05 -4.373e-22)
(0.6464 0.02951 -5.683e-23)
(0.9224 -0.06435 0)
(1.122 0.07589 -3.453e-22)
(0.971 -0.01511 2.107e-23)
(0.7661 -0.002503 -1.465e-24)
(0.879 -0.07068 4.051e-22)
(0.3991 0.04566 0)
(0.745 0.04775 -1.012e-21)
(0.6357 0.05898 -5.543e-22)
(0.8838 -0.1436 0)
(0.7338 0.003491 0)
(1.005 -0.001341 1.105e-20)
(0.9092 -0.06797 0)
(0.9929 -0.00244 -7.908e-21)
(0.7685 -0.003719 2.864e-23)
(0.3694 0.0467 -1.129e-22)
(0.9964 0.01515 -6.688e-21)
(0.8798 -0.07046 -4.862e-22)
(1.06 0.008762 -1.141e-21)
(1.031 -0.01971 7.475e-22)
(0.8563 -0.0442 1.965e-22)
(0.3125 0.04117 -5.211e-23)
(0.9805 0.006392 -7.725e-23)
(0.6443 0.02563 0)
(0.8363 -0.4567 0)
(0.5902 -0.2378 0)
(0.9246 0.01498 0)
(0.6152 -0.09776 0)
(0.4077 -0.2229 0)
(0.8389 -0.01719 1.786e-22)
(1.024 0.005889 -4.275e-22)
(0.7585 -0.02067 7.269e-24)
(1.002 4.182e-05 -1.916e-22)
(1.085 0.02754 -1.177e-21)
(0.858 -0.04497 -9.71e-23)
(0.9154 -0.1495 -6.083e-23)
(1.002 -9.184e-05 0)
(1.031 -0.01871 1.158e-22)
(0.7078 0.01258 -4.588e-23)
(0.928 -0.03663 -1.939e-21)
(0.7365 0.00117 2.735e-23)
(0.7596 -0.02122 -1.781e-23)
(0.998 -0.02701 3.687e-23)
(0.5646 -0.1932 2.553e-21)
(1.032 -0.0146 -9.888e-22)
(0.6406 -0.0832 0)
(0.7433 -0.08705 0)
(0.9568 -0.2772 -9.31e-23)
(0.3763 0.04693 -9.458e-23)
(0.9475 -0.05296 7.981e-23)
(0.5741 0.05834 0)
(0.329 0.03424 0)
(0.6453 0.02551 -4.67e-23)
(0.8212 -0.08091 2.245e-22)
(0.767 -0.03293 3.082e-23)
(0.3278 0.04063 7.943e-23)
(0.3534 0.0439 4.802e-23)
(0.4006 0.04561 0)
(0.3128 0.041 0)
(1.006 0.01665 -7.778e-22)
(0.9133 -0.03876 0)
(0.4918 -0.4353 0)
(0.574 0.04174 4.968e-22)
(0.6405 -0.08299 0)
(0.4115 0.04542 0)
(1.032 -0.01811 -1.203e-22)
(0.4387 0.04513 -1.018e-23)
(1.007 -0.0004706 0)
(0.4499 -0.4449 0)
(0.7769 -0.04344 1.386e-23)
(0.8429 -0.07913 0)
(0.7732 -0.08522 5.131e-22)
(0.4275 0.04529 7.96e-23)
(0.7085 0.01235 4.43e-23)
(1.003 0.0001399 5.401e-22)
(0.8049 0.6426 0)
(0.6983 0.01568 9.128e-23)
(1.003 0.000157 -2.857e-22)
(1.008 0.02019 0)
(0.5422 0.04112 -1.087e-22)
(0.746 -0.07378 6.331e-22)
(1.012 -0.03121 1.282e-21)
(0.7905 -0.05779 2.691e-23)
(0.3857 0.04626 0)
(0.9869 -0.03925 -6.438e-22)
(0.4223 0.04497 0)
(0.9999 -0.00321 -9.543e-21)
(1.122 0.07537 -4.466e-25)
(1.005 0.007575 -5.895e-21)
(0.533 0.0482 -5.16e-22)
(0.2998 0.03933 2.674e-23)
(0.8675 -0.06636 -2.347e-24)
(0.4049 0.04747 0)
(0.7641 -0.02398 5.144e-26)
(0.6781 0.019 -1.135e-23)
(1.001 -0.0004928 0)
(0.9915 -0.03935 -5.711e-22)
(0.8668 0.4787 4.548e-22)
(0.3661 0.04666 -7.456e-23)
(0.4228 0.0449 -6.908e-23)
(0.5314 -0.093 1.834e-22)
(0.6129 -0.08128 0)
(0.9992 -0.0007864 6.615e-24)
(0.941 0.4107 -4.264e-22)
(0.7368 0.001137 -3.049e-23)
(0.898 -0.0742 0)
(0.8955 -0.06339 0)
(0.9479 0.4141 0)
(1.004 -0.0003119 -4.104e-21)
(0.9027 -0.1484 8.189e-22)
(0.9424 -0.09377 4.181e-22)
(1.004 0.0002316 0)
(0.7616 -0.02112 0)
(0.7056 0.01345 -1.341e-22)
(0.9967 -0.0092 -1.651e-21)
(0.3407 0.04514 0)
(0.6144 0.02841 0)
(0.8819 -0.07098 5.096e-22)
(0.8403 -0.01744 3.605e-24)
(0.3934 0.04585 0)
(0.9457 -0.2234 -1.012e-22)
(0.8036 -0.484 -1.567e-21)
(0.4128 0.04529 1.647e-22)
(1.027 0.0294 -8.449e-22)
(1.007 -0.001053 -8.777e-21)
(0.9882 -0.0009225 1.21e-21)
(0.4217 0.04544 3.252e-23)
(0.9156 -0.0402 0)
(0.9042 -0.07655 1.029e-23)
(0.9227 -0.1502 -2.211e-22)
(1.161 0.2301 -8.091e-23)
(0.9763 -0.03989 -1.012e-21)
(0.993 -0.0009189 0)
(1.003 0.00164 0)
(0.9418 0.3441 0)
(0.5138 0.04391 -9.024e-23)
(0.8583 0.4834 -4.33e-22)
(0.8811 -0.06963 0)
(0.6005 -0.1036 -1.775e-23)
(0.8212 -0.08084 0)
(0.8301 -0.07597 -6.098e-22)
(0.6725 -0.08369 1.573e-22)
(0.4277 0.04556 -9.074e-23)
(0.9421 -0.09297 -2.01e-22)
(1.007 -0.0004339 -7.922e-21)
(0.7327 0.006633 0)
(0.9316 -0.3272 5.426e-22)
(0.5322 -0.07648 0)
(1.006 0.02187 -7.892e-22)
(0.4157 0.04513 0)
(0.8553 0.002494 2.5e-21)
(0.9193 -0.1828 1.069e-22)
(0.3665 0.01736 0)
(0.7433 -0.08659 0)
(1.096 0.03987 4.386e-22)
(0.5047 0.04088 6.051e-23)
(0.6101 0.03588 7.028e-23)
(0.8298 -0.02329 0)
(0.3534 0.0454 -5.595e-23)
(0.2328 -0.161 0)
(0.5971 -0.1349 8.608e-23)
(0.7352 -0.0829 -1.564e-22)
(0.9 -0.07556 4.926e-24)
(1.004 -0.0003518 -7.76e-20)
(0.664 -0.08003 0)
(0.5572 0.03523 1.322e-22)
(1.008 0.01982 0)
(1.007 0.0009727 -5.378e-22)
(0.9882 -0.003132 2.574e-21)
(0.7148 0.01051 -2.538e-23)
(0.882 -0.1437 -1.61e-23)
(0.3518 0.04587 -6.878e-23)
(0.9998 -0.0002088 1.62e-20)
(1.004 0.007359 6.646e-21)
(0.546 0.03635 0)
(1.008 -0.0133 -3.12e-21)
(1.131 0.09293 -4.712e-24)
(0.9849 -0.04357 0)
(0.6574 0.02684 0)
(0.9256 -0.1704 0)
(0.5269 -0.3733 0)
(0.7174 0.008609 -6.11e-25)
(0.5828 0.03286 -1.113e-22)
(0.9145 -0.04529 0)
(0.6642 -0.08032 0)
(0.4687 0.04555 -2.011e-23)
(0.8377 0.003529 1.313e-22)
(0.9998 -0.0001658 0)
(0.8803 -0.06971 0)
(0.9984 -0.02363 6.335e-22)
(0.3003 0.0391 -1.571e-23)
(1.003 -0.0001009 0)
(0.8995 -0.06303 0)
(0.7055 0.01348 1.331e-22)
(0.7878 -0.08226 -3.879e-23)
(0.555 0.3167 5.804e-21)
(0.8943 0.5369 0)
(0.7766 -0.02769 -1.328e-24)
(0.3518 0.03974 0)
(0.3284 0.04054 -6.909e-23)
(0.9058 -0.1517 1.69e-21)
(0.7323 0.2182 0)
(0.7786 -0.04347 0)
(0.6028 0.03287 8.632e-23)
(0.7353 0.003017 2.181e-23)
(0.9007 -0.1548 -7.192e-23)
(0.4274 0.04582 1.752e-22)
(0.4896 0.04205 0)
(0.9134 -0.2079 6.795e-23)
(0.7751 -0.01425 6.541e-24)
(0.9995 -0.008597 -2.077e-21)
(0.6049 -0.1014 0)
(0.9524 -0.1103 1.168e-22)
(0.9801 -0.007419 0)
(0.4536 0.04541 1.089e-22)
(0.9316 -0.06219 -3.028e-22)
(0.4792 0.04545 1.7e-23)
(0.8822 -0.1865 -5.029e-23)
(0.8735 -0.1445 2.693e-23)
(0.7507 -0.08591 -2.625e-22)
(1.018 0.2099 -6.464e-22)
(0.7101 0.01186 -8.527e-23)
(0.6231 -0.08133 1.205e-23)
(0.3571 0.3504 -1.413e-21)
(0.9044 0.03556 1.687e-21)
(0.4129 0.04653 -2.187e-22)
(0.844 -0.07894 1.421e-22)
(0.9614 -0.08538 -1.041e-21)
(0.7844 -0.01753 -1.799e-25)
(0.999 -0.0005409 -1.842e-20)
(1.005 -0.0001508 1.634e-20)
(1.003 0.001744 -3.25e-22)
(0.2238 0.05471 2.094e-23)
(0.8713 -0.1448 -2.799e-23)
(0.7912 -0.0583 0)
(0.5733 0.04092 0)
(0.692 -0.08526 0)
(0.5148 0.04267 1.128e-22)
(0.8062 0.02493 7.716e-21)
(0.5842 -0.5293 0)
(0.9685 0.003586 0)
(0.993 -0.0008812 -6.479e-21)
(1.007 0.0009781 0)
(0.61 0.0357 -6.644e-23)
(0.5337 0.0459 5.474e-22)
(0.5792 -0.528 0)
(0.1371 -0.2841 -2.543e-21)
(0.9875 -0.00267 -2.257e-22)
(0.6815 0.01785 -2.711e-24)
(1.032 -0.01915 -2.363e-22)
(1.008 -0.01321 4.474e-21)
(0.71 0.0118 -9.288e-24)
(0.5739 0.04185 0)
(0.9431 -0.01629 0)
(1.027 0.032 8.622e-22)
(0.9628 0.001403 7.11e-21)
(0.7362 0.005576 0)
(0.3573 0.03995 0)
(1.005 -0.001302 9.169e-21)
(0.6912 0.01797 7.097e-23)
(0.7622 -0.02156 5.807e-24)
(0.01879 -0.07373 8.952e-23)
(0.7322 -0.08345 0)
(0.741 -0.08559 -3.307e-22)
(0.8345 0.483 1.074e-21)
(0.7371 -0.07737 1.507e-22)
(0.3829 0.04635 3.152e-23)
(0.9998 -0.00302 2.097e-20)
(0.3937 0.03756 0)
(0.8729 -0.1502 0)
(0.9408 -0.3612 -4.6e-22)
(0.9831 -0.006154 -9.805e-23)
(0.5764 0.0414 -3.109e-22)
(0.4907 -0.2291 -8.602e-24)
(0.9813 0.005934 5.511e-21)
(0.9252 -0.1708 9.165e-23)
(1.086 0.02796 -3.386e-22)
(0.919 -0.182 -1.09e-22)
(0.8253 -0.03966 -1.175e-23)
(0.9132 -0.2053 -8.865e-23)
(1.004 -0.002055 -4.328e-20)
(0.3149 0.03688 5.93e-24)
(0.2885 0.04439 8.319e-24)
(0.4025 0.04651 -7.531e-23)
(0.3543 -0.006062 -1.48e-24)
(0.5601 0.03512 -2.264e-22)
(0.4301 0.04553 -8.48e-23)
(0.5689 0.03505 0)
(0.8718 -0.1683 -2.61e-23)
(0.4149 0.04527 -1.166e-22)
(0.923 -0.06401 2.309e-22)
(0.821 -0.08092 7.033e-22)
(1.09 0.03786 4.95e-22)
(0.3999 0.0465 -6.892e-23)
(0.585 0.03937 2.267e-23)
(1 0.0021 3.463e-20)
(0.7414 -0.08579 1.683e-22)
(0.9587 -0.2554 3.401e-22)
(0.9969 0.003552 6.05e-21)
(0.5436 0.04093 0)
(1.004 0.02075 8.652e-22)
(1.012 -0.03102 -1.225e-21)
(0.3703 0.04666 0)
(0.9535 -0.1438 -1.452e-21)
(0.9972 0.004692 0)
(0.6036 -0.08301 -6.135e-23)
(0.02478 0.001545 1.132e-21)
(0.9875 -0.0008849 -6.396e-21)
(0.1894 -0.3796 5.447e-22)
(0.3674 0.04668 -1.066e-22)
(0.9555 -0.1061 -1.059e-21)
(1.008 -0.0009151 7.388e-21)
(0.6889 0.0174 0)
(0.6252 0.02912 0)
(1.05 -0.004487 4.421e-23)
(0.8298 -0.4681 0)
(0.7701 -0.03302 -2.702e-23)
(0.6919 0.0179 0)
(0.922 -0.1081 -1.166e-22)
(1.003 0.001766 -7.42e-23)
(0.001048 -0.0324 -1.975e-22)
(0.513 0.04542 3.75e-26)
(0.8557 -0.1477 1.612e-23)
(0.7928 -0.4964 0)
(0.7322 -0.04295 3.804e-22)
(0.5274 0.04358 -8.896e-23)
(0.9623 -0.08504 1.908e-22)
(0.6461 0.03702 -2.227e-22)
(1.117 0.2112 1.723e-22)
(0.4227 0.04541 -8.702e-23)
(0.9298 -0.1396 -2.211e-23)
(1.022 0.005614 -1.434e-21)
(0.4211 0.04521 1.043e-23)
(0.9727 0.001933 0)
(0.3894 0.04631 -9.118e-23)
(0.9447 -0.0876 -7.019e-22)
(0.6385 -0.08376 -6.819e-25)
(0.9936 -0.005457 0)
(0.746 0.1934 -3.724e-22)
(1.005 0.0007434 -9.797e-21)
(0.392 0.04707 5.966e-23)
(0.8032 -0.08198 -4.697e-22)
(1.059 0.004188 9.67e-22)
(0.4059 0.04731 -5.025e-23)
(0.8511 -0.1546 -1.165e-23)
(0.9778 -0.0394 4.603e-22)
(0.7386 -0.08595 1.812e-22)
(0.8024 -0.05559 4.469e-23)
(0.4396 0.04493 0)
(0.6065 -0.09725 0)
(0.9936 -0.001225 7.356e-21)
(0.9941 -0.003892 0)
(0.7751 -0.06501 0)
(0.8287 -0.07685 2.924e-22)
(0.5082 0.0397 -1.599e-22)
(1.131 0.09269 0)
(0.9208 -0.2401 -4.466e-22)
(1.004 -0.0001897 6.665e-20)
(0.8041 -0.08308 2.633e-22)
(0.9212 -0.04671 0)
(0.9458 -0.0883 -7.125e-23)
(0.3962 0.04497 0)
(0.3156 0.03678 -5.902e-24)
(1.138 0.1201 4.746e-22)
(1.117 0.1558 0)
(0.3524 0.04339 0)
(1.006 0.02354 0)
(0.9312 -0.1432 2.121e-23)
(0.8306 -0.4253 0)
(0.7698 -0.02593 1.065e-24)
(0.5965 0.03712 -3.222e-22)
(0.9913 -0.0002145 1.028e-20)
(0.4146 0.04519 -5.296e-23)
(0.9984 -0.007299 1.627e-21)
(1.126 0.1786 -1.292e-22)
(1.137 0.1197 0)
(0.8274 -0.04071 -8.827e-25)
(0.1955 0.4635 0)
(0.9971 0.003543 -5.713e-21)
(1.028 0.05223 -1.306e-21)
(0.9496 -0.1909 -1.697e-23)
(0.7263 -0.07309 3.263e-22)
(1.004 -0.0003308 -3.913e-21)
(0.5213 0.04457 0)
(0.3675 0.04325 -1.594e-23)
(0.4706 0.04538 4.61e-23)
(1.001 -6.248e-05 0)
(1.009 -0.004406 -8.908e-21)
(0.3402 0.04639 -1.689e-22)
(0.9488 -0.01348 0)
(1.075 0.4352 4.061e-22)
(1.072 0.4381 -4.011e-22)
(0.9182 -0.06564 -5.664e-22)
(0.9453 -0.1998 -4.816e-22)
(1.01 -0.03165 1.271e-24)
(0.4558 0.04394 -5.919e-23)
(0.9441 -0.2237 -6.305e-22)
(0.6976 -0.06058 3.376e-22)
(0.2631 0.03795 6.338e-24)
(0.3828 0.04626 -3.119e-23)
(0.8777 -0.4214 5.487e-22)
(0.4141 0.04641 8.745e-23)
(0.8546 -0.1615 -1.513e-23)
(0.8015 -0.04 -9.778e-24)
(0.9542 -0.1411 0)
(0.5893 0.03749 1.517e-23)
(0.8854 -0.07248 -3.353e-22)
(1.003 -0.0001057 0)
(0.8706 -0.07219 5.501e-22)
(0.9611 0.1224 -6.326e-22)
(0.5153 0.04366 0)
(0.8042 -0.06303 6.136e-22)
(0.297 0.03972 9.658e-24)
(0.9863 -0.02179 0)
(0.6393 0.0594 1.38e-22)
(0.7861 -0.01835 0)
(0.7271 -0.08584 0)
(0.9036 -0.07589 0)
(0.9932 -0.002551 4.161e-22)
(0.499 0.3793 -7.08e-21)
(0.8513 -0.1543 0)
(0.8684 -0.05801 1.988e-23)
(0.9993 -0.0007211 1.755e-20)
(0.3266 0.03935 3.804e-23)
(0.9842 -0.03767 -7.366e-22)
(0.8517 -0.07656 -1.593e-23)
(0.04143 0.2469 -3.495e-21)
(0.4131 0.04533 0)
(1.005 -0.0001662 -8.132e-21)
(0.9485 -0.2569 -2.661e-22)
(0.884 -0.3525 1.16e-21)
(0.9169 -0.02767 2.594e-21)
(0.8882 -0.1434 0)
(0.68 0.02013 -2.449e-23)
(0.7812 -0.08458 3.741e-22)
(1.005 -0.001322 0)
(1.119 0.1044 0)
(0.3816 0.04664 0)
(0.9092 -0.2997 1.511e-21)
(0.9893 -0.03909 -1.019e-21)
(0.03838 0.2052 -3.195e-21)
(1.155 0.2137 -7.049e-24)
(0.8737 -0.1502 0)
(0.6926 -0.08526 0)
(0.4016 0.04661 0)
(0.6156 -0.08138 6.045e-23)
(0.8564 -0.04422 -3.479e-23)
(0.9433 -0.05956 2.63e-22)
(0.3769 0.0469 4.525e-23)
(0.5036 0.04255 0)
(0.7026 0.014 0)
(0.9943 -0.004008 -3.395e-21)
(1.139 0.1088 0)
(0.8861 -0.35 -9.659e-22)
(0.7471 0.04775 8.683e-22)
(0.416 0.04857 4.106e-23)
(0.788 -0.4349 -1.436e-22)
(0.9723 -0.005754 6.164e-22)
(0.9974 0.004515 0)
(0.9384 -0.01744 0)
(0.8038 -0.08178 -9.612e-22)
(0.9222 -0.1097 -2.499e-22)
(0.9739 -0.05222 3.034e-22)
(0.6469 0.02891 7.583e-23)
(0.3877 0.04649 -6.232e-25)
(0.4558 0.04701 -1.016e-22)
(1.153 0.2647 0)
(0.8859 -0.1438 -3.776e-23)
(0.7386 -0.08586 -1.885e-22)
(0.9711 -0.08103 -5.016e-22)
(1.014 -0.02986 -1.627e-23)
(0.9762 -0.005714 -2.013e-22)
(0.999 -0.0004682 0)
(0.8375 -0.454 2.741e-22)
(0.3639 -0.04359 2.606e-22)
(0.4706 0.05546 -2.26e-22)
(1.002 -1.284e-05 2.111e-21)
(1.007 -0.00103 -1.02e-20)
(1.007 -0.0002284 -1.199e-20)
(0.6896 0.01755 -7.595e-23)
(0.6025 -0.08162 -2.525e-22)
(0.9295 -0.3272 -5.746e-22)
(1.157 0.1851 -1.943e-22)
(0.8995 -0.2502 -2.138e-22)
(0.6397 0.03066 2.739e-22)
(0.3682 0.04314 0)
(0.6046 0.03239 -8.949e-23)
(0.9922 0.01544 -3.665e-21)
(0.9218 -0.1522 -2.124e-22)
(0.3525 0.04598 1.6e-23)
(0.856 0.0006484 -4.438e-21)
(0.4138 0.04533 -4.202e-23)
(0.9161 -0.1801 -2.087e-22)
(1.008 -0.001005 0)
(0.4215 0.04561 5.338e-22)
(0.9468 -0.01826 2.734e-22)
(0.6861 0.01663 3.082e-23)
(0.8634 -0.07507 1.147e-21)
(0.3526 0.04352 0)
(1.025 -0.02345 -1.269e-22)
(0.5708 0.03462 -3.354e-23)
(0.6247 -0.08135 0)
(0.6386 -0.08389 9.844e-25)
(1.035 -0.0169 0)
(0.9063 0.03185 2.735e-23)
(0.4161 0.04519 1.418e-22)
(0.3776 0.04658 1.885e-22)
(1 -0.000394 -1.578e-20)
(0.3938 0.03633 0)
(0.7314 0.004293 -5.874e-23)
(0.2327 0.02967 0)
(0.09743 0.1141 0)
(1.002 -0.001873 -1.457e-20)
(0.3664 0.04657 3.067e-23)
(0.9894 -0.04678 -5.936e-22)
(0.8325 -0.07494 8.159e-22)
(0.5214 0.04435 0)
(1.111 0.199 1.118e-22)
(0.3413 0.04516 1.273e-25)
(0.7517 -0.08523 3.226e-22)
(0.4413 0.04591 1.947e-22)
(0.9901 -0.0001281 -6.206e-21)
(0.429 0.04566 -1.557e-22)
(0.9812 0.06034 -2.894e-22)
(1.139 0.1126 -2.85e-22)
(0.8472 -0.0786 -3.94e-22)
(0.7125 0.01162 -2.401e-23)
(0.6275 -0.08336 -1.746e-22)
(0.8339 -0.02459 9.449e-24)
(1.001 2.752e-05 -1.742e-21)
(0.9517 -0.0524 0)
(0.7188 0.008354 -5.746e-23)
(0.5892 0.03964 -1.531e-22)
(0.9226 -0.2496 0)
(0.3607 0.04572 -2.536e-22)
(0.9243 -0.1279 -2.203e-22)
(0.1523 0.0179 -6.299e-23)
(0.994 -0.04166 -7.446e-23)
(0.3891 0.04657 0)
(0.3408 0.04631 3.824e-23)
(1.009 0.0008676 -7.994e-22)
(0.9364 -0.2353 -9.772e-23)
(0.6341 0.02932 -7.884e-23)
(0.3828 0.04677 2.099e-23)
(1.006 -0.0002451 3.169e-21)
(0.8645 -0.1402 0)
(0.8033 -0.02368 0)
(0.05043 -0.06531 -8.79e-22)
(0.74 0.005116 2.813e-23)
(0.4546 0.05228 -6.068e-23)
(0.9535 -0.2521 1.21e-22)
(0.8645 -0.1394 0)
(0.9941 -0.001197 -7.274e-21)
(1.004 -0.001767 0)
(0.4845 0.04408 1.341e-22)
(0.4975 0.04687 0)
(0.8707 -0.06577 6.175e-24)
(1.003 0.001815 -9.241e-24)
(0.9277 -0.02619 2.797e-21)
(0.7432 0.004157 8.481e-24)
(0.8434 -0.07839 -2.847e-22)
(0.5263 0.03808 0)
(1.051 -0.003215 0)
(0.5285 0.04329 1.79e-22)
(1.051 -0.005038 7.65e-22)
(1.105 0.05142 4.971e-22)
(0.6929 0.01741 0)
(0.3861 0.04623 -5.071e-23)
(0.4565 0.0439 1.308e-22)
(0.7753 -0.08524 -1.622e-22)
(1.002 -0.001904 -2.955e-20)
(0.7663 -0.02417 5.503e-24)
(0.9557 -0.1053 1.046e-21)
(0.9947 0.001763 0)
(0.2202 0.05316 -3.073e-23)
(0.4151 0.04539 -1.374e-23)
(0.6499 0.02684 3.842e-23)
(0.7109 0.01201 4.604e-23)
(0.7182 -0.08089 -2.942e-22)
(0.3626 0.04607 1.319e-22)
(1.001 -0.0007434 -3.684e-21)
(0.6835 0.3431 -3.243e-21)
(0.707 0.3141 1.82e-21)
(0.7514 -0.002319 0)
(0.6089 0.0367 -2.567e-22)
(0.9936 -0.005203 -1.692e-21)
(0.9991 -0.0003602 7.418e-23)
(0.9925 -0.03861 0)
(0.7999 0.6428 0)
(0.9563 0.01305 5.617e-22)
(0.5055 0.04099 2.293e-22)
(1.128 0.09849 -1.346e-24)
(0.8852 -0.07224 -3.198e-22)
(0.959 -0.04823 6.126e-22)
(0.6993 0.01528 -8.312e-23)
(0.8586 -0.05646 5.023e-22)
(1.037 0.1978 0)
(0.4302 0.04614 -2.409e-22)
(0.3539 0.04532 2.831e-23)
(-0.004415 -0.0584 -6.239e-23)
(0.6347 0.0311 4.685e-23)
(0.9332 -0.06198 -4.95e-25)
(0.9938 0.0002302 -1.676e-21)
(0.89 -0.4097 9.497e-22)
(0.8053 -0.06339 -4.053e-22)
(0.2832 0.3827 6.784e-22)
(0.6032 -0.08118 1.176e-22)
(0.8945 -0.1416 8.723e-23)
(1.061 0.01028 1.304e-21)
(0.8716 -0.07215 -5.493e-22)
(1.009 0.0009094 6.78e-23)
(0.7972 -0.08224 0)
(0.9904 -0.0002262 0)
(0.896 -0.0698 0)
(0.288 0.04491 1.152e-24)
(0.4256 0.04693 -6.172e-23)
(1.113 0.07017 2.403e-22)
(0.8544 -0.07756 0)
(1.052 0.0039 0)
(0.3947 0.04585 2.647e-23)
(0.4175 0.04551 4.95e-23)
(0.9827 0.06079 -2.55e-22)
(1.102 0.04658 -2.279e-22)
(0.9871 -0.02156 0)
(1.005 0.0007913 6.749e-21)
(1.097 0.04022 6.337e-23)
(0.3456 0.04637 7.23e-24)
(0.706 0.01809 2.044e-22)
(0.8652 -0.1769 6.208e-24)
(0.9599 -0.04774 -9.052e-22)
(0.8837 -0.07059 0)
(0.5755 0.03443 1.664e-22)
(1.051 -0.0008964 1.368e-22)
(0.9369 0.08825 0)
(0.4284 0.04517 -1.076e-22)
(0.9728 -0.05151 -2.894e-22)
(0.3396 0.04469 1.876e-23)
(1.005 -0.003248 0)
(0.9824 -0.04507 1.057e-22)
(0.8723 -0.1678 2.625e-23)
(0.7959 -0.07677 -3.998e-22)
(0.6256 0.02702 0)
(0.6346 0.02948 8.049e-23)
(0.4111 0.04568 4.903e-23)
(0.5627 -0.1143 0)
(0.9043 -0.01763 -3.476e-21)
(0.5134 0.04136 -1.721e-22)
(0.8279 -0.07675 2.997e-22)
(0.3992 0.04652 0)
(1.023 -0.02407 -5.281e-22)
(0.6453 0.02968 1.36e-22)
(0.9937 0.0001702 -4.37e-22)
(0.03419 0.1892 -3.121e-21)
(0.9213 -0.06444 -2.544e-22)
(0.3526 0.03984 0)
(0.8327 0.002135 0)
(0.9212 -0.1097 1.258e-21)
(0.9511 -0.1128 -8.829e-23)
(1.118 0.1827 -6.319e-23)
(0.6062 -0.08448 0)
(1.003 -0.03516 8.506e-22)
(1.031 -0.01476 1.428e-21)
(0.4536 0.04534 0)
(0.3687 0.01746 0)
(1.008 0.2128 2.064e-22)
(1.044 -0.00687 -8.788e-22)
(0.5885 0.03969 0)
(0.5787 0.04025 0)
(0.9504 -0.01301 5.737e-21)
(0.8335 -0.424 0)
(0.9435 -0.01407 -1.295e-20)
(0.8691 -0.05813 0)
(0.3834 0.04646 -6.373e-23)
(0.9624 0.0009435 -3.121e-21)
(0.7281 -0.08577 1.83e-22)
(0.8655 -0.07555 1.978e-22)
(1.002 0.001605 1.581e-20)
(1.115 0.089 5.953e-22)
(0.7851 -0.0828 1.821e-22)
(0.5855 0.03236 6.214e-23)
(0.659 0.02666 -1.4e-22)
(0.6253 0.03236 0)
(0.9982 -0.02636 0)
(0.9364 0.336 0)
(0.4186 0.04621 1.112e-22)
(0.6506 0.03602 1.258e-22)
(0.4856 0.0454 0)
(0.8962 -0.1417 -9.515e-23)
(1.154 0.1865 1.485e-22)
(0.6628 0.0241 0)
(0.446 0.04421 5.549e-23)
(0.4945 0.04821 -1.868e-22)
(0.9993 0.0004203 -1.094e-22)
(0.8035 -0.0562 -5.404e-23)
(0.9994 0.001766 2.061e-20)
(0.9985 -0.03811 6.349e-22)
(0.9702 -0.04764 8.255e-22)
(0.8568 -0.07703 1.521e-22)
(0.6253 0.03351 3.77e-24)
(0.5002 0.04371 7.224e-23)
(1 -0.0004729 4.335e-21)
(1 0.002141 -3.338e-20)
(0.7066 0.01326 0)
(0.5166 0.04237 0)
(1.011 0.01557 -7.392e-23)
(1.147 0.1378 0)
(0.7895 -0.082 0)
(0.6841 0.01763 0)
(0.8481 -0.07845 4.861e-22)
(1.006 0.0162 0)
(1.009 0.02579 -3.2e-22)
(0.8553 -0.1619 -3.322e-23)
(0.8699 -0.1663 0)
(0.3676 0.03045 7.697e-24)
(0.4037 0.0466 -1.416e-22)
(1 -0.0004842 -2.754e-21)
(0.992 -0.0008969 0)
(0.5979 0.0318 0)
(0.3913 0.04738 3.517e-23)
(0.4914 0.04195 0)
(0.9891 -0.03522 -6.118e-22)
(0.6383 0.02482 0)
(0.804 -0.08306 2.706e-22)
(0.8265 -0.08097 2.359e-22)
(0.6262 0.02881 -4.983e-23)
(1.122 0.07653 5.028e-22)
(0.9713 -0.04692 -8.643e-22)
(1.012 0.003256 5.692e-22)
(0.9276 -0.02567 -1.664e-21)
(0.7676 0.6747 8.665e-24)
(1.123 0.07848 0)
(0.8832 -0.1875 3.807e-23)
(0.9076 -0.05078 2.658e-23)
(0.7906 -0.08324 0)
(0.9599 -0.05337 4.056e-22)
(0.3066 0.03822 0)
(0.07449 -0.02351 -9.594e-23)
(0.7158 0.01077 -2.66e-23)
(0.739 0.004993 7.398e-23)
(0.8678 -0.07101 2.064e-22)
(0.3523 0.04643 5.599e-23)
(0.772 -0.04227 -9.97e-24)
(0.3903 0.04624 0)
(0.7924 -0.03419 7.423e-24)
(0.8555 -0.1473 0)
(0.7792 -0.084 0)
(0.8181 -0.08104 7.561e-22)
(0.904 -0.2026 4.453e-23)
(0.394 0.04746 2.353e-22)
(1.006 0.007913 0)
(0.3748 0.04699 -2.731e-23)
(1.009 -0.004304 1.794e-20)
(0.7977 -0.05862 -6.842e-25)
(1.001 -0.0006836 0)
(0.64 0.02457 0)
(0.9314 -0.1962 -4.825e-24)
(0.4757 0.04574 -2.562e-23)
(0.8852 -0.2032 -3.782e-23)
(0.7973 -0.08072 4.339e-22)
(0.9197 -0.2407 1.94e-22)
(0.9986 -0.0003269 3.812e-23)
(0.9093 -0.06789 4.017e-22)
(0.3473 0.04502 2.739e-24)
(0.979 0.4872 7.206e-23)
(0.5511 0.03675 -4.096e-23)
(0.5364 0.03784 7.753e-23)
(0.3684 0.04471 4.268e-24)
(0.8444 -0.07866 0)
(0.549 0.03588 0)
(0.4019 0.04682 8.612e-23)
(0.4166 0.04512 -1.331e-23)
(0.5572 0.04069 -1.154e-22)
(0.6008 0.03732 5.07e-22)
(0.3265 0.04397 -1.062e-22)
(0.9057 -0.06811 7.744e-22)
(0.3563 0.04413 0)
(0.3362 0.04457 0)
(1.134 0.1034 0)
(0.4291 -0.2291 3.685e-21)
(0.5529 0.5111 6.444e-22)
(1.06 0.004852 -1.22e-21)
(0.3698 0.046 7.075e-25)
(0.3149 0.0392 0)
(0.919 -0.04682 0)
(0.3887 0.04639 1.221e-22)
(0.3568 0.04673 1.379e-22)
(1.11 0.3503 1.385e-22)
(0.7155 -0.06762 6.956e-22)
(0.8361 -0.05782 -6.116e-22)
(0.9163 -0.1411 -3.021e-22)
(0.9791 -0.07018 -1.43e-22)
(0.5643 -0.1405 -1.321e-22)
(0.6974 0.01552 -7.562e-23)
(0.5717 0.03916 -1.822e-22)
(0.9556 -0.05007 0)
(0.4277 0.03674 0)
(0.5125 0.04173 1.326e-22)
(0.4205 0.02349 1.347e-22)
(0.6105 -0.09282 1.728e-22)
(0.6457 0.02925 0)
(0.5635 0.04185 0)
(0.6898 0.01605 4.415e-23)
(0.9987 0.0003457 0)
(0.9013 -0.06651 2.227e-22)
(0.9953 8.801e-05 -2.523e-21)
(0.4203 0.0452 0)
(1.068 0.011 -2.08e-24)
(0.6321 0.03067 1.671e-22)
(0.3918 0.04516 5.588e-23)
(0.4464 0.0448 1.24e-21)
(0.7888 -0.07995 0)
(0.8929 -0.1529 0)
(0.8038 -0.07321 4.155e-23)
(0.1562 0.02299 0)
(0.8409 -0.07893 -3.321e-22)
(1.009 0.0005584 1.705e-20)
(0.8997 -0.1422 -2.598e-23)
(0.7613 -0.08418 0)
(0.9135 -0.06701 9.429e-23)
(0.8053 0.0372 1.187e-21)
(0.9354 -0.3149 0)
(1 -0.007079 -9.498e-21)
(0.5575 0.03873 0)
(0.5913 -0.08037 5.705e-23)
(0.6644 0.02354 0)
(0.2233 0.1081 1.141e-23)
(0.1189 0.02046 0)
(0.9916 -0.0003032 -9.204e-21)
(1.082 0.02167 -5.255e-22)
(0.9478 -0.02115 1.407e-22)
(0.9519 -0.03962 9.478e-24)
(0.955 -0.02002 1.001e-23)
(0.9232 -0.06485 2.251e-22)
(0.9941 0.002759 2.599e-20)
(0.3943 0.04704 -3.936e-24)
(0.5032 0.04201 -6.012e-23)
(0.9982 -0.001431 0)
(0.5608 0.05624 -2.876e-22)
(1.004 -0.007019 7.694e-21)
(0.3369 0.04545 -2.544e-22)
(0.7536 -0.01276 0)
(0.8127 -0.08187 0)
(0.3766 0.04714 0)
(1.009 0.0005977 -2.118e-20)
(0.902 0.02061 5.807e-21)
(1.006 0.02089 3.738e-22)
(0.5584 -0.03622 -3.404e-21)
(0.7415 0.005794 -1.481e-22)
(1.004 -0.02089 -3.747e-22)
(1.012 -0.03129 -9.773e-22)
(0.9956 0.0005924 0)
(0.6463 -0.08286 6.252e-23)
(0.9921 -0.003505 1.462e-20)
(0.3742 0.04667 0)
(1.062 0.3385 0)
(0.9771 -0.04761 -9.069e-22)
(1.052 -0.004795 -8.337e-22)
(1.011 -0.001895 -4.805e-21)
(1.007 -0.0003451 0)
(0.3786 0.0461 0)
(0.5102 0.04188 0)
(0.854 -0.06737 0)
(0.5443 -0.07493 -2.826e-23)
(0.3256 0.04071 -4.387e-23)
(0.4448 0.0441 3.964e-23)
(0.5334 0.03788 0)
(0.8555 -0.4402 -5.659e-22)
(1.149 0.1452 -2.371e-22)
(0.8189 0.03231 -4.828e-21)
(0.5135 -0.06614 0)
(0.7012 0.01622 1.624e-22)
(0.9988 0.0003904 -2.903e-22)
(0.5629 -0.03333 -6.716e-21)
(0.7983 0.005025 -4.258e-22)
(0.9541 -0.09418 -6.991e-24)
(1.06 0.002337 0)
(0.3417 0.04642 0)
(0.9979 0.002761 0)
(0.3896 0.04643 1.065e-23)
(1.143 0.2528 3.74e-24)
(0.08566 0.183 1.415e-21)
(0.4037 0.0469 5.938e-23)
(0.9892 -0.03751 4.316e-23)
(0.7322 -0.0516 7.373e-23)
(0.9978 -0.03857 -5.722e-22)
(0.455 0.04384 6.391e-23)
(0.9909 -0.01786 2.155e-21)
(0.9003 -0.06656 2.468e-22)
(0.9946 -0.04093 -2.106e-23)
(0.3429 0.04625 -2.197e-23)
(0.8506 -0.1301 -4.627e-23)
(0.6695 -0.08595 -1.188e-22)
(0.46 -0.4464 0)
(0.7114 0.2619 3.754e-22)
(0.9515 -0.05243 -1.141e-21)
(0.647 0.02879 -6.832e-23)
(0.3799 -0.03973 0)
(0.86 -0.03468 -7.723e-25)
(0.356 0.04673 -2.309e-23)
(0.5724 0.03887 -4.315e-23)
(1.026 0.03364 4.9e-23)
(0.4176 0.009444 0)
(0.6352 0.02566 0)
(0.376 0.0465 0)
(0.3042 0.03846 -1.258e-23)
(0.3076 -0.02794 -9.306e-23)
(0.6376 -0.004325 1.691e-21)
(0.6589 -0.08477 2.177e-22)
(0.1771 0.4325 -5.912e-21)
(0.4746 0.0433 2.066e-22)
(0.9515 -0.05691 -6.11e-22)
(0.3287 -0.05184 -1.825e-22)
(0.9087 -0.2172 -3.843e-22)
(0.4673 0.04274 4.359e-23)
(0.8738 0.6144 -5.242e-22)
(0.9324 -0.2168 0)
(0.5135 0.04123 -3.514e-23)
(1.004 -0.001891 2.577e-20)
(0.4522 0.04361 -1.685e-22)
(0.7113 -0.08685 -3.938e-22)
(0.5327 0.03918 1.777e-22)
(0.8539 -0.1458 1.842e-23)
(0.5988 0.03818 -1.839e-23)
(0.2114 0.4637 -4.067e-21)
(0.3239 -0.07157 -5.375e-23)
(0.3562 0.03692 1.08e-23)
(0.8627 -0.1512 -3.096e-25)
(0.09051 0.01353 -2.444e-22)
(0.9988 0.001942 -2.617e-21)
(0.917 -0.1605 -3.204e-22)
(0.9228 -0.1285 3.191e-22)
(0.4868 0.04125 2.089e-24)
(0.4715 0.04188 0)
(1 -1.941e-06 3.201e-20)
(0.3689 0.0467 -6.964e-23)
(0.7143 0.01146 -4.403e-23)
(0.9265 -0.05807 2.119e-21)
(0.5176 -0.3763 1.054e-21)
(0.3427 0.04554 5.465e-23)
(0.9553 -0.1305 -5.567e-22)
(0.7493 -0.007044 -1.614e-24)
(0.901 -0.2032 2.155e-23)
(1.112 0.0671 -2.527e-22)
(0.3399 0.00964 0)
(0.9012 -0.1426 -5.325e-23)
(0.7193 0.008898 -4.808e-23)
(1.001 -0.004074 -1.646e-20)
(0.5911 0.04026 -3.033e-22)
(0.9539 -0.3382 -1.042e-22)
(1.005 -0.01334 0)
(0.7078 0.05083 -1.697e-23)
(1.115 0.3267 2.442e-22)
(1.028 -0.01203 -6.215e-22)
(0.8209 -0.06137 9.728e-22)
(0.7292 -0.08522 -9.023e-22)
(0.9142 -0.2928 -1.157e-21)
(0.6022 0.03572 0)
(0.4183 0.0463 -6.67e-24)
(0.3052 0.03843 2.134e-23)
(0.9233 -0.04941 -9.788e-22)
(0.7434 -0.04249 -3.011e-22)
(0.486 0.05703 3.688e-22)
(0.4621 0.04522 2.136e-22)
(0.8172 -0.04378 1.739e-21)
(0.9574 -0.09536 -2.617e-22)
(1.002 -0.002128 -7.749e-21)
(1.123 0.07939 0)
(1.099 0.0444 0)
(0.7837 -0.01572 0)
(0.2961 0.03905 0)
(0.8129 -0.0806 2.907e-22)
(0.8715 0.1366 8.401e-22)
(1.006 0.001238 5.109e-21)
(1.008 -0.01392 -3.904e-21)
(0.6611 0.02164 1.367e-22)
(0.6209 -0.08133 -3.625e-25)
(0.8331 -0.1072 -6.14e-23)
(0.6442 0.02749 -2.759e-24)
(0.6663 0.05222 8.349e-22)
(0.5698 0.03887 -1.131e-22)
(0.9555 -0.2436 -1.601e-21)
(0.6976 0.1743 8.206e-23)
(0.6825 0.01988 -7.642e-23)
(1.097 0.3384 1.158e-22)
(0.7161 0.01009 -6.24e-25)
(0.6101 0.02911 0)
(0.9985 -0.003032 2.596e-21)
(1.004 -7.711e-06 -2.65e-20)
(0.9228 -0.0567 2.557e-22)
(0.7611 -0.07704 0)
(0.8931 -0.1491 8.5e-23)
(0.7862 -0.074 -3.852e-22)
(1.01 0.01041 -2.919e-21)
(0.9997 -0.002591 -4.834e-21)
(0.9985 -0.0004908 -1.054e-20)
(0.8482 -0.06526 0)
(0.02427 -0.0706 -1.444e-22)
(0.9966 -0.0005406 1.225e-21)
(0.6675 -0.5498 3.542e-21)
(0.3696 -0.4487 -9.841e-22)
(0.3488 0.04546 -2.344e-22)
(0.8135 -0.1842 1.502e-21)
(1.004 0.001568 7.576e-21)
(0.9737 0.001497 -2.367e-21)
(0.9538 -0.3445 0)
(0.6901 0.2026 0)
(0.4068 0.04607 0)
(0.2598 -0.0545 0)
(1.158 0.2183 1.709e-22)
(0.8275 -0.08081 1.027e-22)
(0.4683 0.1275 1.85e-21)
(1.094 0.1017 0)
(0.4166 0.04531 -1.463e-22)
(0.4332 0.04459 -8.669e-23)
(0.6731 0.02279 0)
(0.5532 -0.07619 -1.18e-22)
(0.776 -0.08359 4.915e-23)
(0.9268 -0.211 -9.326e-23)
(0.9525 -0.0497 -5.536e-22)
(1.127 0.3428 -7.443e-23)
(0.8646 -0.07481 -8.143e-22)
(0.8855 0.003328 -5.478e-22)
(0.9058 -0.01056 -2.929e-20)
(0.9973 -0.00433 0)
(0.7384 0.001245 2.077e-23)
(0.2588 -0.03481 -1.316e-23)
(0.7522 -0.004031 9.701e-24)
(0.5581 -0.4995 0)
(0.884 -0.03246 5.727e-23)
(0.8008 -0.06124 -3.691e-23)
(0.8104 -0.08094 1.261e-21)
(1.006 0.01392 -2.825e-21)
(0.3837 0.04722 2.213e-23)
(0.5262 0.04238 -6.189e-23)
(0.1372 0.05921 -8.683e-24)
(0.6359 -0.08079 -1.741e-22)
(0.7423 -0.005774 -1.214e-22)
(0.3894 0.04769 0)
(0.6979 0.01567 -2.647e-23)
(0.3982 0.0457 2.535e-23)
(1.004 0.001846 -1.973e-20)
(0.4848 0.04408 -6.428e-23)
(0.7225 -0.08605 0)
(0.3792 0.04655 0)
(1.045 0.1026 3.072e-22)
(1.053 -0.004434 3.543e-22)
(1.058 0.0784 0)
(0.9538 -0.0558 1.058e-22)
(0.9923 0.0146 0)
(0.9244 0.01454 0)
(0.3909 0.04692 0)
(1.154 0.2577 0)
(0.994 0.006302 -9.42e-22)
(0.1685 -0.1327 3.996e-23)
(1.024 0.4967 -2.278e-22)
(0.6862 0.01972 -1.083e-22)
(1.006 5.291e-05 -1.515e-20)
(0.9254 -0.06432 -2.084e-22)
(1.009 -0.033 0)
(0.4513 0.04572 0)
(0.3675 0.04682 8.101e-23)
(1.061 0.03166 6.605e-22)
(0.8991 0.01414 2.576e-21)
(0.3884 0.04565 -6.685e-22)
(0.3791 0.04588 -6.224e-23)
(0.998 -0.000847 -5.008e-21)
(0.9897 -0.002785 0)
(0.005636 0.1021 0)
(0.8549 -0.159 -2.948e-23)
(0.7272 -0.08324 -6.299e-22)
(0.9552 -0.04883 7.875e-22)
(0.4453 0.047 1.888e-24)
(0.7074 -0.08325 0)
(0.3499 0.04214 0)
(1.084 0.05908 3e-22)
(0.9688 -0.02184 -3.111e-22)