/*--------------------------------*- C++ -*----------------------------------*\
  =========                 |
  \\      /  F ield         | OpenFOAM: The Open Source CFD Toolbox
   \\    /   O peration     | Website:  https://openfoam.org
    \\  /    A nd           | Version:  8
     \\/     M anipulation  |
\*---------------------------------------------------------------------------*/
FoamFile
{
    version     2.0;
    format      ascii;
    class       volScalarField;
    location    "10";
    object      k;
}
// * * * * * * * * * * * * * * * * * * * * * * * * * * * * * * * * * * * * * //

dimensions      [0 2 -2 0 0 0 0];

internalField   nonuniform List<scalar> 
127143
(
9.774e-15
1.145e-13
8.594e-13
4.39e-12
2.629e-12
4.635e-12
5.72e-11
1.39e-11
6.632e-12
4.36e-12
1.395e-10
1.739e-11
5.328e-12
7.571e-12
2.41e-05
1.51e-10
4.325e-12
0.07108
0.03468
1.754e-08
0.001416
1.071e-07
0.000154
5.651e-06
9.661e-08
1.274e-07
2.667e-09
2.748e-09
1.137e-07
0.07487
1.965e-06
1.229e-07
3.417e-08
3.363e-07
0.0001508
3.347e-08
0.002637
0.00769
1.13e-05
7.147e-08
0.03496
0.0001532
0.0001527
4e-11
0.0699
4.154e-07
1.165e-07
0.009894
7.684e-06
9.034e-06
3.529e-10
0.0001493
0.0002296
0.0001543
0.0001395
2.831e-06
0.0001394
0.0001644
0.0001471
0.0001543
0.0001529
0.01682
4.492e-05
0.0001482
5.429e-07
0.0001589
0.0001511
3.929e-05
3.976e-05
0.0002392
4.061e-06
5.85e-09
0.03662
0.000147
0.0001458
5.854e-09
0.0001473
0.002411
2.808e-06
0.000149
9.126e-08
1.667e-08
2.734e-06
1.581e-07
0.0275
0.003538
1.89e-05
1.508e-08
0.0001576
4.05e-05
0.0001468
0.001301
7.869e-05
0.001428
4.265e-05
0.0001723
0.0001531
7.303e-07
0.004093
0.000151
0.0001489
8.869e-06
7.872e-06
0.0001111
0.003886
0.003849
3.481e-05
0.0002403
0.0001678
0.0001424
3.158e-05
1.353e-08
0.0003144
0.0001684
0.0001455
0.0001495
0.0001474
0.0001459
0.0001472
9.002e-09
0.0001425
4.687e-06
7.085e-05
0.0001623
1.071e-07
3.329e-08
0.01028
0.0001485
3.755e-05
2.341e-06
0.0007354
7.05e-05
5.894e-05
0.002542
1.392e-10
0.0008114
0.0001557
0.001998
3.096e-07
0.0001535
0.0001545
0.0001467
0.0007165
0.002183
0.0002458
0.0001538
3.906e-07
0.0001483
6.047e-05
3.243e-06
8.572e-05
1.099e-05
0.007056
0.0001517
0.0001161
0.02768
0.0001645
1.916e-06
0.01019
5.406e-07
4.784e-06
4.844e-10
0.0001468
0.0007497
3.12e-07
8.834e-07
0.001316
0.0001559
1.869e-06
0.0001488
0.0001106
0.002186
0.000141
9.431e-05
0.000729
0.0124
0.000178
3.86e-05
8.967e-06
0.0001562
9.51e-05
0.000155
0.01478
0.01276
2.706e-06
0.01728
0.0001513
0.0001673
7.49e-06
0.000155
9.688e-05
2.384e-05
0.0001552
0.0001918
7.42e-11
0.007856
0.0001288
0.0001282
1.691e-09
0.0001456
0.0001452
0.0001489
0.007984
0.003235
3.359e-11
2.812e-05
0.000153
7.959e-05
0.06821
0.0001455
0.0001996
0.02414
0.0001447
2.092e-06
0.0002612
3.968e-10
1.217e-05
8.234e-05
0.0003589
0.000153
0.0001828
0.0001462
1.031e-05
0.0003259
3.532e-07
6.984e-05
7.204e-07
0.008167
0.0002722
0.007321
0.001112
0.0001549
0.03693
9.8e-08
0.001155
0.0001571
0.0007442
2.083e-13
0.0001452
0.0001696
2.709e-05
1.026e-06
0.01326
2.064e-06
0.00168
1.069e-08
2.108e-05
2.467e-09
4.318e-09
0.0002925
0.000167
1.617e-07
7.801e-05
0.001331
6.226e-06
0.0001696
0.0001485
4.962e-06
0.0001327
0.0001506
0.00653
0.0001516
0.0005073
0.0001466
0.0004416
8.992e-07
7.748e-05
6.963e-05
0.0001553
0.0001202
5.569e-07
0.00072
0.01356
0.0001611
5.753e-05
0.0001074
0.0003354
1.328e-05
0.00141
0.0001523
0.000252
0.0001844
0.0001119
0.0001455
0.0001454
6.834e-11
0.000435
0.0001455
1.155e-05
0.0001567
0.007395
0.0001579
0.000157
0.0001327
0.000145
0.0001753
2.479e-06
0.002629
0.01318
0.0001224
8.901e-07
0.0001599
0.0001549
0.0001531
2.728e-07
0.0001353
8.001e-05
0.0001448
0.01726
6.879e-05
3.124e-05
0.0003231
1.773e-06
0.0002171
0.0001453
5.39e-05
0.004411
7.755e-07
0.0001591
0.007592
0.0001538
3.041e-06
0.0001512
7.734e-05
5.055e-05
0.00217
0.00015
0.005797
4.37e-06
0.000185
0.01277
0.0001454
0.0001508
0.0001289
0.0001283
0.0001517
0.000168
0.0001413
0.01279
0.0002639
0.0001535
8.19e-05
0.0003392
0.000122
0.0001755
1.094e-05
1.198e-05
0.0001047
1.216e-06
1.576e-05
1.561e-06
0.03153
0.009555
0.0001123
0.0001492
1.982e-05
0.001316
0.0001611
0.0001487
4.432e-06
0.01726
4.987e-05
0.05783
1.002e-05
1.002e-05
0.0001468
0.0001456
0.004166
9.094e-07
0.001379
0.0001555
0.0001513
3.414e-07
8.822e-06
0.0001543
0.0001536
3.091e-06
3.572e-07
0.005406
0.001512
0.03889
7.649e-08
1.785e-06
0.0001597
0.0001473
3.359e-09
0.0001501
9.29e-08
0.007351
0.01526
0.000146
0.0001533
0.0001804
6.482e-06
7.333e-06
1.913e-06
0.0001534
2.739e-06
0.0001492
0.0001514
1.549e-07
0.0001462
0.001006
0.01552
0.0001502
7.532e-05
0.004592
5.944e-05
0.000149
1.117e-05
0.0001352
1.032e-06
0.0001546
0.0106
8.336e-05
4.738e-05
0.001886
3.347e-07
0.001879
1.781e-05
0.001484
4.527e-07
0.0001416
0.0002413
0.007017
0.0001508
0.0001525
0.0001528
1.456e-06
0.000153
0.0001412
0.0001499
0.007932
0.007086
0.0001219
0.0001468
7.344e-05
1.171e-05
0.0001492
0.000145
0.0001453
1.163e-05
0.0001558
0.0001719
0.000148
9.062e-07
0.0001453
4.533e-05
0.004538
0.02432
0.002492
3.005e-06
8.039e-05
5.628e-07
0.00015
0.004787
7.488e-07
1.921e-06
0.004963
0.0004488
6.19e-05
0.0001431
0.007972
0.0001567
0.0001255
0.0005506
0.0001462
0.0004449
1.603e-05
0.0001386
0.005629
0.0002092
0.0001624
0.004921
0.0001528
0.0001347
0.0001442
0.0001819
0.0001084
0.0007675
1.282e-07
5.363e-05
4.551e-06
1.93e-06
0.0001608
0.0001215
0.00119
0.0001447
9.074e-07
0.0001467
8.7e-05
2.211e-05
0.0001678
0.000147
3.233e-10
0.0005431
0.0001567
0.0001598
0.0001606
0.0001448
1.179e-07
0.0001462
0.009885
0.008182
2.595e-12
1.385e-09
5.344e-09
0.000147
2.244e-05
4.82e-05
0.0001453
0.01723
5.429e-05
0.0009614
0.000112
0.002336
2.88e-06
0.005692
1.309e-08
0.0004728
0.02401
2.486e-08
1.195e-05
1.034e-06
0.0001524
0.0001467
8.892e-05
0.004713
0.00851
0.0001458
5.345e-07
9.557e-07
0.0001443
0.0001304
0.0004404
0.0001567
6.261e-05
0.0001519
9.605e-07
0.01248
0.0001468
0.0003452
0.0001461
0.0001387
0.0001598
0.00136
3.263e-06
1.069e-05
1.18e-05
1.578e-05
0.007624
0.0001303
2.482e-05
0.001393
0.0001794
0.0001462
1.3e-07
0.0007923
7.646e-07
5.414e-05
0.01298
0.0001483
0.0001479
0.0001506
1.031e-05
0.0001667
0.0001453
0.0001446
0.0001657
5.089e-06
0.004741
0.00016
1.311e-05
2.857e-07
0.000156
0.0001469
0.0001426
0.0001176
0.003948
5.142e-05
0.0001592
5.482e-09
6.088e-05
0.0001302
0.001485
2.625e-07
0.0001453
0.005089
0.01853
0.0153
0.0001387
0.0001053
0.006512
7.414e-09
0.0001346
3.699e-05
1.341e-05
0.0001453
7.566e-05
0.0001455
2.09e-05
0.001297
0.0001455
5.074e-06
3.739e-06
0.0004806
4.105e-05
0.001033
1.895e-06
2.056e-06
0.0002006
1.403e-05
9.531e-05
1.131e-05
0.006694
0.0002756
4.776e-07
0.0001497
2.226e-06
0.0001454
0.0001678
0.0001485
0.0007944
0.0001413
0.0001455
0.0001619
1.894e-05
0.0006663
0.0001384
0.0001412
0.0003494
1.229e-07
5.387e-06
1.058e-06
0.02616
0.0001713
0.002659
0.0001296
0.0001295
8.442e-05
3.053e-07
0.0001386
4.349e-06
0.0001616
0.0001641
0.0002423
0.0001471
0.0001444
0.002411
6.016e-07
0.001191
1.004e-06
0.0001484
0.0001511
0.0005279
5.435e-06
0.0001489
7.575e-07
0.0001565
0.0001636
3.134e-05
0.0001297
0.0001772
0.0001523
6.749e-11
9.166e-05
0.005162
0.004689
0.0004639
1.54e-05
4.534e-07
3.995e-06
0.0001487
5.465e-05
0.002844
0.00108
0.0001416
1.491e-05
0.0001561
0.000152
0.0001303
0.0001415
3.431e-07
0.0001599
3.976e-06
2.185e-05
6.24e-05
0.01702
0.0001592
5.592e-07
0.0001513
6.768e-06
0.0001446
0.0001393
0.0001701
0.0001509
1.385e-06
0.0001521
8.214e-07
0.02273
9.007e-06
0.0001697
0.05807
0.0001509
1.114e-06
0.0001528
5.161e-06
1.486e-10
5.91e-05
0.0004924
0.005817
0.000141
4.687e-05
1.016e-05
4.954e-07
0.04464
0.004631
0.0001308
4.792e-06
0.001831
1.943e-05
0.02666
9.278e-06
3.979e-05
6.912e-05
0.01059
0.0001603
1.542e-14
0.000156
0.0001487
3.246e-05
6.096e-05
2.212e-05
0.000144
0.009123
0.03175
0.004871
0.0001556
8.412e-07
0.0001812
2.503e-07
0.0001731
3.102e-06
0.005411
6.718e-06
1.917e-05
0.0001601
0.006835
0.0002812
1.157e-05
0.001119
0.0001457
0.0003498
0.0001582
0.0001458
7.977e-05
0.0001652
1.824e-05
0.0005663
0.0001587
5.87e-05
9.379e-08
0.0001169
0.0001279
0.006773
0.01895
1.156e-07
1.38e-06
0.000155
0.01761
2.112e-05
0.0001283
0.001084
3.306e-05
0.0007157
1.88e-07
0.0007615
0.0001666
0.0002599
0.01575
0.0001521
0.0001469
2.777e-11
0.0006624
4.859e-05
2.656e-05
0.006169
0.0003212
0.0003733
5.721e-06
0.0001424
0.03617
0.0001111
0.0001544
0.0002054
8.819e-05
3.389e-05
7.053e-05
0.0001364
0.002886
0.01076
0.0001446
0.0001359
0.0002471
0.01679
0.02598
0.0003932
0.005357
1.356e-09
9.698e-05
0.0001525
0.0001418
0.002447
0.001899
2.411e-06
4.23e-07
0.0001554
0.0002043
0.0001464
0.002132
5.318e-09
0.0001419
0.0001652
1.507e-06
4.647e-05
1.072e-07
0.0001521
0.02017
4.443e-05
0.0001459
1.285e-06
0.0001416
5.708e-05
1.224e-06
7.714e-06
0.0009462
3.609e-08
0.0001462
1.071e-05
0.0001525
6.312e-07
0.001235
5.29e-07
4.46e-06
0.0001549
0.0001647
0.0001641
7.981e-10
0.0001457
0.01701
3.897e-06
7.981e-06
0.002628
1.489e-08
0.0001995
0.0003986
0.0001122
8.937e-08
8.661e-10
4.497e-05
4.304e-10
1.069e-05
1.404e-10
0.0001107
3.496e-05
0.03654
5.362e-09
0.0001472
2.788e-05
0.0001368
0.0001369
0.0005302
0.0001494
4.111e-05
0.04431
0.0001656
0.0001487
0.0001552
3.721e-05
2.966e-05
0.000146
0.03744
0.002035
0.000155
3.263e-06
1.497e-08
0.01895
8.996e-05
2.867e-05
0.003723
0.0002097
0.000145
0.0001808
5.58e-06
0.0001483
8.385e-06
0.0008453
0.01729
0.0001379
0.007413
0.0406
6.4e-10
0.0001629
1.419e-08
0.005304
0.0001084
3.788e-05
8.215e-06
2.585e-06
0.000133
4.772e-07
0.0001531
0.0001331
0.0001742
8.175e-08
0.0283
2.574e-06
8.096e-05
0.0001361
3.467e-06
8.605e-11
5.592e-06
0.0001468
0.0001461
8.785e-05
0.0001738
0.0006735
5.384e-06
0.0001954
5.219e-07
0.005117
0.0001521
4.55e-07
0.0001536
1.523e-08
0.0001444
0.008635
0.0002097
0.001015
0.0001258
0.003984
0.0001457
0.0001457
4.196e-05
0.0001549
0.0009566
6.881e-06
0.0001656
0.01736
0.001734
2.103e-05
6.853e-06
7.967e-10
0.0002594
1.401e-06
1.884e-05
7.83e-05
0.01519
0.000194
0.0003337
9.702e-05
2.634e-07
0.00377
0.000144
0.0001429
0.008102
0.008614
0.0001634
0.0001391
0.0001287
0.002594
0.0001607
0.0001838
0.002517
6.602e-05
0.0001574
0.000149
0.0001608
0.0001619
8.209e-08
3.125e-07
0.00591
0.0001537
0.0209
9.299e-07
6.508e-06
6.336e-05
0.02291
9.166e-05
2.136e-05
0.001364
4.364e-07
0.0001486
1.628e-07
7.956e-06
0.01936
4.709e-05
2.36e-05
0.0001455
3.952e-09
9.849e-10
0.0001375
0.0001441
0.000124
0.0008418
4.051e-08
0.002458
2.931e-05
7.997e-06
5.414e-05
0.0001622
0.0001637
0.0001478
3.312e-05
0.03065
0.0001378
0.0001473
3.801e-05
0.00304
0.0001565
1.024e-09
0.002691
0.0001453
5.326e-06
0.0001452
0.0001447
6.76e-05
0.0001544
1.146e-09
0.0001442
1.37e-06
0.000146
7.777e-05
0.0001541
0.04178
9.657e-05
2.249e-06
4.215e-06
2.54e-05
5.542e-05
0.0002042
0.0001554
0.001015
1.417e-05
0.0003292
6.726e-05
2.346e-08
3.128e-05
9.17e-09
3.373e-05
6.155e-06
1.328e-06
3.708e-06
9.512e-08
0.0001514
0.03591
0.0001878
3.779e-06
0.004879
3.751e-07
0.000204
1.875e-05
0.005854
3.569e-05
3.626e-05
8.621e-05
0.0001555
9.415e-07
0.009385
3.605e-05
0.001357
1.903e-06
0.001174
0.0001376
6.582e-05
3.449e-06
0.0001458
1.601e-05
9.736e-07
0.0001378
0.0001562
0.001623
0.0001535
0.0001514
0.004589
0.008439
0.000158
0.0001316
3.466e-05
0.0001212
0.0001447
0.0001512
0.0001501
0.002819
4.081e-05
9.899e-05
0.0001545
0.0001717
3.252e-07
2.366e-06
7.32e-06
0.008422
5.259e-09
0.0002314
1.686e-05
0.0001456
0.001881
0.0001707
1.56e-05
3.571e-05
0.0002399
1.88e-08
0.0001471
5.681e-09
6.294e-06
8.409e-06
5.03e-05
6.865e-06
0.01011
0.04474
2.042e-07
4.003e-05
0.0001499
6.964e-12
0.006095
6.213e-06
8.589e-07
1.336e-05
5.951e-05
0.00964
4.412e-06
3.248e-05
0.000686
0.00087
2.97e-06
4.763e-06
0.02546
1.198e-08
0.0001587
2.634e-05
0.0001566
1.472e-06
0.0001308
0.0001448
0.003361
3.646e-09
0.007086
0.003884
1.126e-09
5.789e-05
0.0001458
1.854e-07
2.96e-05
0.001693
1.642e-07
0.0001638
0.002201
2.159e-10
0.03735
1.119e-06
0.009725
3.827e-05
4.733e-08
5.791e-06
5.245e-07
0.0001558
5.228e-06
0.0001579
0.0601
0.0001207
0.0003086
0.0001182
3.197e-05
0.02188
5.725e-06
0.01361
0.0001619
0.02195
0.000153
0.0001583
8.731e-05
1.177e-08
0.0001503
1.94e-08
2.162e-06
0.001071
0.001307
0.0001459
0.01308
6.877e-05
0.0001607
4.657e-06
1.254e-06
3.317e-07
0.0001427
3.887e-06
0.0001251
0.0003805
1.285e-09
0.0001297
0.02627
0.0001155
0.0001461
0.0001018
0.001047
6.869e-08
2.261e-05
0.0001616
0.003258
0.0001452
6.344e-11
1.352e-09
0.003644
0.0001648
0.0001264
0.0001355
0.0001314
0.0006121
0.02427
0.02672
0.0001536
0.0001713
0.0001708
0.0001609
0.001528
0.01402
4.597e-06
7.989e-06
7.926e-10
0.0001662
4.255e-07
0.002067
0.0001438
0.0001316
2.16e-06
0.008525
4.703e-05
7.132e-10
0.001232
0.01386
0.0005592
5.036e-05
0.0003894
1.053e-09
0.04192
0.0004785
0.01963
0.01203
0.0001058
1.006e-05
7.473e-10
0.0001549
0.0003011
0.0001413
6.057e-06
2.643e-05
0.0001353
2.261e-05
5.85e-05
0.001653
3.293e-06
0.0001428
0.0001652
6.471e-11
0.0001455
1.059e-05
2.598e-05
3.526e-05
6.725e-07
0.0001648
0.0001111
0.0003016
2.152e-07
0.0009732
9.768e-06
0.0001506
3.621e-05
4.017e-06
2.676e-06
3.384e-05
0.0008267
0.0001451
2.535e-05
0.02627
5.7e-07
0.0001413
0.01875
0.0008249
0.0001449
0.0001376
0.0002014
0.0001457
0.02272
0.0001395
3.459e-06
0.02392
5.582e-09
0.0005131
0.0004345
4.203e-06
0.000436
1.563e-05
6.025e-06
1.24e-10
0.0005294
0.0002233
0.0006474
0.0007469
0.01375
0.0001482
0.005993
0.0001464
0.008829
0.0001474
0.02602
0.0001435
1.717e-05
0.00178
0.0001378
0.0001444
0.001721
0.0001579
9.172e-06
0.0001543
0.0001336
0.0001615
0.0009936
0.0001497
3.343e-09
1.437e-06
8.531e-08
1.531e-05
5.712e-05
6.09e-06
1.592e-05
0.01533
0.000399
5.75e-08
0.02026
1.345e-05
1.494e-06
5.934e-05
0.0002823
0.02952
0.0001441
1.121e-10
0.0005966
2.391e-07
0.0001458
7.915e-10
2.1e-05
4.746e-06
0.002126
0.0001309
0.0001308
0.02635
0.04251
0.01319
0.01379
4.367e-05
0.0001651
0.0001563
0.009259
0.0001205
4.609e-07
0.0001176
0.0001879
0.001929
0.0001049
5.455e-07
1.021e-05
3.658e-05
5.012e-06
0.006501
0.0001461
0.005538
0.002798
1.327e-08
0.0003185
0.0001536
4.578e-05
0.003368
2.048e-05
0.008695
2.68e-07
0.06561
0.0001455
0.01001
7.983e-05
5.961e-10
4.659e-07
0.0001633
0.0006624
7.863e-06
0.0001588
0.0001305
4.258e-05
1.747e-05
3.891e-10
0.0001514
1.669e-08
0.002631
0.0001439
6.755e-06
0.0001342
0.0101
0.0001516
0.002294
0.0002922
4.62e-05
5.34e-05
0.03654
2.767e-06
0.0001521
2.674e-05
4.394e-06
1.173e-06
0.0002007
0.0002
3.242e-06
0.0001735
1.09e-09
0.0001344
7.183e-07
6.301e-07
1.06e-10
0.004605
0.0002747
0.0001489
0.0001456
0.0001437
0.01235
0.0001446
1.525e-09
0.0001454
3.434e-07
0.0001577
0.0001198
8.04e-05
1.446e-06
0.0002738
4.239e-07
0.0001592
0.000134
0.004329
2.655e-08
0.0001448
2.473e-05
3.444e-05
0.005328
4.659e-05
0.0001671
0.003531
4.193e-05
2.489e-05
0.0001536
0.0001372
2.397e-06
0.0002097
0.0001327
0.0001593
1.265e-05
0.0001372
1.368e-07
0.0001462
0.0002524
0.0005829
0.00458
0.000192
0.0001392
0.007163
5.437e-06
0.01022
0.0001514
8.166e-05
0.0001545
0.0001454
0.0001417
0.000123
2.435e-09
8.505e-05
3.385e-05
0.000149
1.086e-07
0.0001632
0.0001527
0.0001952
0.0001688
0.0002635
1.762e-06
0.0001497
2.105e-05
0.0001466
9.787e-05
0.0001486
0.0001521
3.265e-05
0.01772
0.0001612
1.257e-06
8.471e-05
0.0001414
0.0007662
1.899e-07
8.222e-05
8.266e-10
4.705e-07
0.01805
0.0001529
0.0001692
4.996e-07
0.0004186
1.903e-05
4.406e-06
0.0002363
0.0001547
0.0001444
2.173e-05
1.455e-05
0.0001136
0.0001459
0.0005021
0.0001456
0.0001628
0.0002769
0.0001428
0.02183
0.0001658
0.0001059
0.003055
0.003199
4.815e-06
0.0001466
6.628e-06
5.199e-07
0.0001316
0.03256
1.56e-05
0.0001582
0.0006566
0.01008
2.824e-06
6.56e-05
0.00702
1.201e-06
6.669e-05
1.443e-05
1.151e-06
0.0001576
0.0001538
5.18e-05
0.0001516
8.856e-06
0.002548
0.0001513
3.779e-05
0.0001481
0.001042
4.099e-05
0.04047
0.0002494
0.0008108
9.603e-10
0.002082
9.529e-09
0.0001556
0.0001376
9.847e-09
2.199e-05
0.0001571
4.266e-06
0.0001508
0.0008873
0.0001491
0.008993
2.058e-08
0.005458
0.0001656
4.227e-05
2.099e-05
0.0001464
4.442e-05
0.0001532
0.0001642
6.202e-07
0.0001491
3.404e-05
2.058e-07
0.0001444
0.0001486
0.008013
0.0002241
0.000263
0.0001542
0.0001605
0.000135
0.0001611
0.01949
0.0002395
0.0001562
4.16e-05
0.0001377
0.0001538
2.982e-06
7.539e-09
0.0001395
0.0001782
1.649e-08
0.01576
2.941e-06
0.01648
1.8e-05
6.789e-09
0.0001883
0.0003148
0.004909
0.0001505
4.482e-07
0.0001633
0.01421
7.069e-08
1.137e-05
0.0001487
6.264e-06
5.19e-11
5.087e-10
0.007908
0.004097
1.766e-05
0.0001539
0.01365
7.925e-05
0.01564
5.069e-06
0.0008166
0.001742
2.679e-05
1.099e-07
0.003269
0.0001411
0.0001452
5.07e-05
0.0001368
0.001607
0.0001523
0.000151
2.282e-05
0.007745
0.02867
0.0001356
4.465e-06
4.827e-07
0.002556
3.387e-06
0.005367
9.308e-10
8.209e-06
0.000149
2.043e-05
4.681e-06
0.0007629
2.827e-05
4.098e-10
0.0001282
1.343e-07
2.142e-05
1.752e-05
0.0001381
0.008485
0.01569
7.503e-07
4.112e-06
0.02792
3.737e-07
0.0001659
0.0001726
1.34e-05
0.0001531
0.0244
0.0001452
2.473e-06
1.345e-06
2.046e-05
3.816e-07
8.104e-07
0.01022
7.557e-09
0.0003151
5.83e-05
0.0001491
0.0248
0.000151
0.04104
6.13e-05
0.01485
2.705e-05
0.0002238
3.288e-05
9.287e-11
1.895e-08
0.002263
0.002739
0.000164
0.0001602
0.0001459
0.0001487
5.308e-05
0.0001631
0.000145
3.952e-05
2.434e-05
7.457e-06
0.001177
9.611e-05
1.826e-05
0.002992
2.516e-05
9.393e-09
7.943e-07
0.0001562
3.221e-05
1.126e-10
0.01349
2.275e-05
0.03665
7.711e-05
0.0003013
1.325e-11
8.492e-05
7.555e-05
0.0001633
0.0001561
2.738e-05
0.001746
0.0001454
0.000147
0.007811
3.986e-07
0.02332
2.915e-05
4.061e-09
0.0001889
0.0001494
5.741e-07
0.02388
0.001767
9.645e-08
0.0001606
0.03295
0.0002483
0.0002739
0.000158
2.226e-05
0.0001465
0.0001676
0.03027
6.367e-07
0.06182
1.04e-05
8.055e-08
0.0001477
5.289e-07
0.003759
5.262e-06
2.092e-05
3.877e-05
0.0001512
0.01299
0.001689
0.003261
1.741e-06
0.001697
4.305e-06
3.717e-05
0.0001449
0.001676
0.03728
1.123e-06
4.295e-05
0.000725
0.005265
0.0001536
4.094e-08
0.0001788
0.001348
0.0204
0.005222
0.02431
0.00107
0.0001962
9.334e-09
0.0001621
0.0001485
2.01e-05
0.0001395
0.01419
0.0001496
0.0001546
0.009864
0.0001439
0.0001634
1.129e-05
4.977e-05
0.0001456
0.000148
0.02663
6.925e-05
9.499e-06
0.0001907
0.000833
0.007213
1.361e-06
2.199e-06
0.04152
9.421e-05
0.002491
0.0001588
3.005e-05
1.901e-09
0.01635
3.334e-06
3.289e-06
0.01301
9.772e-10
0.0001454
0.0001372
0.0001661
0.0001221
8.113e-11
0.0001458
0.007716
1.614e-05
2.17e-09
2.936e-05
1.936e-06
0.000125
0.0001248
3.772e-06
2.813e-05
0.008811
0.0001335
0.0001497
0.02176
0.0001408
0.000149
5.457e-07
2.039e-05
3.746e-05
0.01238
7.263e-08
0.0118
0.0001598
0.0001317
8.173e-05
2.014e-05
1.012e-06
5.535e-06
0.0001853
3.413e-07
0.000252
7.634e-05
2.886e-05
3.658e-06
0.0001195
0.0001542
0.0001033
1.569e-06
0.0001376
0.0001368
6.759e-05
0.0009924
1.948e-08
0.0001655
6.191e-06
1.322e-05
0.0003997
0.0001454
0.0001682
0.0001482
0.001498
5.868e-09
0.0001856
0.0001566
4.68e-05
0.0001524
1.869e-07
4.168e-05
0.0002141
7.634e-05
8.732e-05
3.354e-05
0.01313
5.332e-05
0.0001588
6.015e-05
0.0001988
0.002559
7.162e-05
0.01122
1.275e-06
2.751e-05
0.0003509
0.002697
1.955e-06
0.00256
0.0002324
3.044e-05
0.0001575
0.0001678
7.872e-05
7.913e-09
0.0001636
1.115e-05
0.0001469
0.01698
0.0001484
2.111e-05
0.02117
7.39e-09
0.000101
0.0001528
2.076e-06
7.403e-10
3.368e-07
0.0002872
4.431e-05
6.475e-07
6.565e-08
0.0007093
0.01255
6.203e-05
1.046e-10
0.0003641
0.001863
0.0001677
0.0001607
0.0001455
0.001153
3.861e-06
0.000111
0.0002151
0.02568
0.000154
4.366e-08
0.0001309
0.001857
0.0001632
0.02959
2.493e-06
0.000164
0.0001525
0.02684
0.0001503
2.157e-05
6.462e-05
9.083e-10
3.041e-05
0.0002466
0.0001428
0.003921
0.001199
3.688e-06
8.671e-06
5.967e-05
0.0248
4.494e-05
0.0001453
8.543e-06
6.662e-06
0.0001741
0.0001347
0.0004176
5.268e-08
1.059e-06
9.567e-06
0.0001687
0.0001599
0.0001555
4.038e-06
0.03654
0.0001536
1.228e-08
0.0002049
0.001888
0.0001455
0.0001473
0.0001537
0.000146
4.289e-05
5.128e-05
0.004703
0.001028
1.133e-06
5.87e-08
0.0003928
1.484e-05
0.0003475
0.0234
5.718e-09
0.001117
0.0005386
0.007445
1.345e-08
0.007442
6.207e-07
1.678e-08
0.0001629
6.644e-06
1.192e-06
0.0001173
0.005343
1.18e-05
8.653e-05
4.07e-06
0.003468
0.000905
0.0001489
0.03464
0.0001478
0.0001654
0.00592
0.0005532
0.0001051
0.0003605
4.382e-09
0.007531
0.0001461
3.779e-06
0.001443
0.01727
5.224e-05
0.0005128
0.0001832
1.713e-06
1.146e-06
1.148e-08
0.0001598
1.105e-05
0.0002086
0.0006319
0.0002547
0.0001514
1.232e-08
3.821e-06
3.838e-05
0.0001661
0.0001439
3.531e-05
3.611e-06
0.01371
0.0001198
1.096e-08
1.081e-06
7.993e-05
0.01291
9.469e-05
3.793e-06
0.0001446
3.286e-05
0.01452
0.0001511
7.655e-05
4.906e-06
0.000145
1.758e-05
0.006421
0.0001069
1.161e-07
0.0001257
3.373e-05
8.187e-11
0.002454
1.214e-05
0.0001309
0.0001301
1.4e-05
0.002015
0.0001573
1.952e-06
2.909e-05
0.0001438
4.135e-08
1.125e-06
0.0002327
0.0001455
0.0001462
0.0001667
0.0004524
1.282e-05
1.535e-10
2.934e-06
0.0001578
1.802e-06
1.059e-07
0.0001542
2.69e-06
6.794e-06
0.0003229
0.000158
3.746e-06
0.04438
0.0105
0.0001302
0.0001284
0.0001287
0.0001272
0.0001583
0.01988
7.816e-05
6.69e-06
9.765e-05
0.0007749
0.0007583
1.429e-07
0.0001278
0.0001392
0.004025
5.306e-05
4.007e-07
2.448e-05
0.003703
4.613e-05
6.808e-06
0.0003553
2.269e-05
0.0001636
3.554e-05
8.498e-10
1.829e-05
4.618e-08
0.0001527
4.922e-05
0.0001454
1.232e-08
0.0006009
7.711e-06
9.341e-05
0.0001501
6.843e-09
0.0001458
0.002813
6.664e-07
0.0001895
1.687e-05
0.0008884
0.003114
0.003117
3.155e-06
0.0001509
1.533e-05
0.0001369
0.0001738
0.0008116
0.0001774
0.01114
6.809e-05
0.0001435
0.0001453
0.0001562
0.0005724
6.627e-06
0.0001689
0.002981
1.514e-05
0.0001297
2.922e-06
6.127e-06
0.01133
0.02197
0.02161
0.001242
0.0001611
6.121e-10
0.0001521
0.0001454
7.974e-08
0.0001452
0.0001447
0.0001593
0.0003137
9.015e-07
0.007383
4.083e-07
0.005028
7.412e-06
0.0001464
0.0001574
0.0006481
1.585e-05
0.02015
0.0002112
0.0001574
2.656e-07
2.803e-08
0.0001483
6.155e-09
2.415e-08
8.938e-11
0.0002188
0.01387
0.003649
0.0001546
0.000148
0.01704
0.0001106
1.284e-07
0.0001509
1.531e-06
4.34e-09
0.0001454
5.248e-06
1.224e-07
3.057e-05
0.0001458
1.167e-06
2.546e-08
3.798e-10
1.036e-09
0.0001626
0.001382
1.34e-09
0.0001566
0.0006941
0.000144
0.003571
5.045e-07
0.0235
1.209e-05
1.09e-09
0.0001595
0.006907
5.968e-05
0.0001492
0.0001534
3.078e-06
1.122e-06
0.02784
9.069e-06
2.126e-05
0.0001479
0.01281
0.0003472
0.0005594
0.001691
0.0001455
0.0002936
0.0001489
1.601e-05
4.871e-05
4.145e-05
3.11e-06
0.0001035
1.214e-08
8.242e-11
6.282e-12
2.418e-06
0.0001537
3.907e-06
0.0001485
6.649e-07
1.693e-06
0.0001455
2.526e-09
0.0001489
0.0001916
6.223e-09
1.799e-07
0.007102
0.0001581
0.0001498
2.938e-05
0.0001301
1.076e-09
0.000145
0.0001847
0.01326
0.00269
1.157e-08
8.608e-09
1.101e-08
0.008203
5.213e-06
1.739e-05
0.002143
0.0001515
3.972e-05
5.706e-09
0.0001392
0.001899
4.736e-05
0.002412
5.343e-05
0.0113
0.03819
5.735e-08
2.873e-05
2.74e-05
1.474e-08
0.0002129
1.43e-07
0.0001523
5.04e-05
0.0002664
0.0001488
0.0001548
5.539e-05
1.004e-06
3.437e-06
1.287e-08
0.0001788
0.0001453
0.0001067
1.307e-05
9.43e-08
0.006792
0.02461
0.0001265
0.0001507
7.477e-07
0.0001268
4.714e-05
8.117e-06
0.0001539
8.873e-05
0.008874
1.366e-07
8.413e-09
6.642e-10
0.0001502
1.722e-06
0.001448
1.15e-05
0.01889
0.01402
1.452e-08
0.0132
1.515e-06
1.092e-05
2.348e-06
1.923e-05
0.0001565
9.033e-09
0.02114
4.307e-05
0.0003259
0.0001781
4.991e-05
0.0001659
0.0001458
6.736e-05
0.0001554
0.0007479
8.877e-05
5.75e-05
1.271e-08
5.171e-10
0.02714
1.356e-08
0.0007565
0.0001599
0.00015
0.0001542
8.175e-05
0.0001489
2.409e-05
6.2e-09
6.528e-05
6.864e-07
0.03274
0.001811
2.669e-05
0.0002899
0.01193
1.159e-06
0.023
8.718e-08
1.257e-05
0.0001384
0.001622
4.228e-05
0.0001477
0.0001552
2.575e-07
0.0001463
5.575e-06
5.15e-05
1.219e-05
0.0001106
1.054e-07
0.0002777
0.02885
0.0001503
2.276e-06
2.378e-05
5.314e-06
4.767e-05
0.0001432
1.05e-05
0.000144
0.0001668
0.0001999
0.01751
7.222e-10
8.243e-05
1.81e-06
0.01633
1.224e-06
0.0001602
0.0005567
0.004393
5.99e-05
0.0001389
0.0001177
0.0001462
1.103e-06
1.909e-06
0.000109
0.001467
0.0001427
8.313e-06
5.022e-06
2.101e-05
7.972e-06
6.528e-06
3.825e-05
0.0001474
0.004701
0.0001243
0.0001494
3.566e-06
6.416e-05
0.0001558
0.0001639
0.0001568
0.0001403
2.76e-05
0.000137
0.0001349
0.0001465
0.0001535
0.0001516
7.75e-05
2.338e-05
0.0001457
1.336e-05
0.0001393
2.468e-05
0.0001469
0.0001727
0.0001518
2.476e-07
0.0003001
1.098e-09
0.001307
1.954e-07
0.0001646
0.0001587
9.657e-09
0.00015
2.496e-05
2.289e-05
1.637e-05
9.019e-05
3.947e-05
0.000146
2.552e-05
0.0001827
0.0003009
0.001902
0.0001252
9.005e-05
0.004411
4.352e-05
1.016e-05
0.0001437
0.003475
5.388e-05
8.415e-08
0.0001514
0.0001481
1.953e-06
2.298e-07
0.003979
0.001662
7.74e-05
5.2e-06
0.0001534
6.365e-05
0.000625
0.0239
0.002588
0.001145
0.0001383
0.0001782
9.776e-10
0.02901
0.002889
1.811e-08
0.0001693
0.0001149
0.0001449
0.0001497
0.0001603
0.0001747
4.772e-08
0.0001808
0.000147
0.000147
4.032e-05
5.75e-11
0.0001469
0.00737
1.817e-06
2.627e-05
0.0001302
9.36e-06
1.561e-05
2.487e-05
0.0001834
1.475e-06
1.356e-07
2.026e-07
0.0001459
0.0008992
0.001747
0.0002827
0.0001429
0.0001677
0.0002268
0.01346
0.0001222
3.607e-09
2.645e-07
0.04776
1.244e-05
1.006e-07
0.01364
8.994e-06
0.006974
0.0001637
0.0001603
5.394e-07
4.738e-09
0.0001443
3.329e-06
3.462e-05
0.0001469
3.281e-08
0.006459
0.0001711
0.0001552
0.000523
1.73e-06
9.166e-05
7.412e-05
0.0001452
0.0001456
0.04405
0.002761
0.0001334
0.0001383
0.0001486
1.64e-06
0.03278
0.005754
3.648e-06
2.796e-07
0.02735
0.0002566
0.0001427
8.339e-09
0.000168
1.2e-05
3.035e-06
0.0001537
1.251e-05
0.0001196
8.398e-06
1.404e-09
0.02949
7.328e-09
0.0001384
0.0001419
0.002977
0.0001512
0.000143
1.145e-09
1.681e-05
1.309e-05
2.632e-06
0.0001274
0.001107
0.000141
9.664e-10
0.000156
4.182e-05
0.0001348
0.000152
0.007526
0.004133
0.0007613
0.0004806
0.02782
0.0001336
0.0001362
0.000441
1.027e-05
5.057e-06
1.239e-08
0.0001606
0.01334
7.297e-05
0.0001471
0.000223
2.298e-05
0.0004828
0.0001537
0.007681
2.268e-09
0.0001313
0.0001436
6.822e-05
2.912e-05
0.02375
4.04e-06
0.0001478
1.115e-05
0.0002997
3.292e-05
0.000148
0.0001529
9.34e-07
2.013e-05
3.146e-06
0.00307
0.0001779
0.0001363
5.02e-06
0.0001472
1.419e-06
1.033e-09
0.0001602
0.002392
0.01015
3.159e-05
4.272e-07
0.0001531
0.0001523
0.0001363
6.738e-05
0.0001581
0.0001447
2.558e-06
9.049e-05
0.01203
0.0001357
0.000155
0.0001544
0.0001489
1.76e-05
0.001129
0.0001454
4.901e-05
4.222e-05
0.0001638
0.0001501
0.0001467
0.0001446
0.0001579
0.001858
0.0205
2.147e-06
1.11e-09
7.289e-09
4.321e-05
8.171e-08
1.878e-07
0.0001481
1.41e-09
3.668e-05
6.024e-06
0.02846
0.0001555
0.0001605
1.183e-05
5.713e-07
5.292e-07
7.906e-05
0.0001566
0.002388
1.424e-05
3.836e-05
0.000153
0.0001641
0.001254
0.000154
1.344e-05
0.000157
0.0007353
9.073e-05
0.0001318
0.0001524
6.527e-07
1.408e-10
2.375e-08
0.0001373
6.473e-07
0.0005937
0.0001326
0.0001175
0.000146
8.904e-06
6.964e-05
0.0003342
2.28e-06
2.897e-05
0.0001495
0.0001658
0.02335
2.156e-08
0.0001467
0.0001525
1.378e-08
0.0001058
0.0001442
1.765e-07
0.006506
0.0001525
0.0001524
0.01774
1.959e-05
1.266e-09
2.329e-06
3.516e-05
0.008305
0.0006109
0.0001547
0.000145
0.0001535
1.3e-05
3.723e-05
0.0001529
0.0001479
1.607e-08
1.373e-05
6.134e-05
0.003162
0.002079
3.549e-05
0.0001342
0.0001556
3.578e-05
0.0001392
0.0001504
2.878e-05
2.579e-06
0.01796
0.0001677
0.0001751
0.0157
0.0001504
0.02212
6.142e-05
0.0001201
8.791e-05
0.0001477
6.69e-06
0.0004509
0.00539
0.0001153
0.0001155
9.251e-06
0.0005746
3.988e-11
0.005308
0.0001582
0.0006686
0.0001414
0.0001002
6.586e-05
1.269e-07
2.067e-07
0.0004133
5.159e-06
1.534e-06
0.000375
0.0001588
3.706e-05
2.747e-06
2.872e-08
0.000122
0.0001514
5.872e-07
0.0001653
5.053e-07
7.527e-05
0.0104
0.01866
1.276e-05
0.0001459
0.001646
0.0001671
0.0001447
0.0008348
5.513e-07
0.003381
2.945e-09
3.25e-06
0.0001932
0.0001448
0.000492
2.324e-05
0.0001794
0.0003262
0.0001254
5.285e-05
0.0002589
6.02e-06
0.0001465
1.918e-05
0.0001379
0.0001155
5.828e-06
5.414e-05
0.0001181
2.396e-06
1.718e-09
0.0001419
0.0001455
5.656e-05
3.858e-05
7.245e-07
0.0001448
4.221e-05
1.641e-06
0.008266
0.01773
0.0001457
8.377e-05
2.451e-07
0.0001515
0.005688
0.0001441
4.429e-05
0.0001515
0.0002791
4.969e-06
0.0002972
0.0006595
9.462e-06
0.0001501
0.0001495
5.41e-05
1.407e-05
0.0001987
0.0001434
0.0001479
5.423e-06
1.89e-05
6.775e-05
0.03121
0.0009879
0.0573
2.093e-05
7.461e-05
0.0001282
0.0001523
0.0001581
2.679e-10
1.462e-07
3.359e-06
0.0001425
2.336e-06
2.905e-05
4.497e-05
4.448e-05
6.176e-09
0.0001589
0.0002737
3.378e-05
4.471e-05
1.739e-06
1.044e-07
0.04854
0.0002326
0.04077
0.0001497
1.256e-10
0.0001467
0.02524
3.185e-06
6.033e-05
0.0179
4.693e-05
0.0001169
5.795e-07
0.009634
0.0001094
0.00271
0.0001056
2.731e-06
2.613e-10
0.007691
3.491e-09
1.296e-08
0.0001455
3.056e-09
0.0001487
9.444e-07
1.397e-07
0.0003533
0.033
0.0007543
4.19e-05
8.578e-05
0.0001502
0.002054
0.009253
0.007234
0.01568
0.001222
0.0001574
0.0001356
0.0455
8.117e-09
0.0001158
6.663e-06
3.734e-05
2.11e-06
0.0001347
1.559e-06
0.0002011
1.876e-07
0.007432
6.249e-09
5.604e-06
8.123e-06
0.0001542
5.836e-08
0.000153
0.001646
0.00103
0.000158
0.0001602
0.003831
6.791e-05
0.004313
0.0003355
7.09e-05
1.915e-05
0.005918
6.663e-09
7.194e-05
6.604e-08
0.00015
0.009925
0.000945
0.01454
0.0001523
5.373e-05
0.0001454
0.0001464
0.0001454
0.003792
2.469e-05
0.0005205
0.04201
0.000151
0.007802
0.0001506
7.066e-09
3.065e-07
8.415e-09
1.269e-05
0.0001532
1.239e-06
9.109e-06
0.0001574
9.313e-06
0.0001464
0.0008086
0.03037
0.0001779
0.02375
0.0001422
0.0001426
4.23e-05
0.01932
0.0001513
1.198e-09
2.327e-05
0.0001398
0.0001459
4.997e-05
0.000151
4.918e-06
1.955e-08
0.0001633
0.0001403
0.0001328
3.521e-05
2.122e-06
1.176e-09
0.000153
0.0001612
5.878e-05
8.153e-06
0.0001528
4.11e-06
8.34e-05
0.0001669
1.907e-06
0.0006421
1.705e-09
0.0001518
4.65e-05
6.674e-05
4.257e-06
0.0001462
0.004647
0.0001456
0.005115
0.01925
7.084e-05
0.0003417
9.005e-06
0.0001916
0.0001602
3.897e-07
8.091e-06
1.636e-05
2.557e-06
1.164e-06
0.001581
0.0001662
4.465e-05
4.469e-06
0.01367
9.843e-06
0.0001399
6.952e-09