/*--------------------------------*- C++ -*----------------------------------*\
  =========                 |
  \\      /  F ield         | OpenFOAM: The Open Source CFD Toolbox
   \\    /   O peration     | Website:  https://openfoam.org
    \\  /    A nd           | Version:  8
     \\/     M anipulation  |
\*---------------------------------------------------------------------------*/
FoamFile
{
    version     2.0;
    format      ascii;
    class       volScalarField;
    location    "10";
    object      nut;
}
// * * * * * * * * * * * * * * * * * * * * * * * * * * * * * * * * * * * * * //

dimensions      [0 2 -1 0 0 0 0];

internalField   nonuniform List<scalar> 
127143
(
6.396e-23
3.984e-22
2.622e-21
3.141e-20
2.241e-19
3.276e-20
1.234e-17
1.716e-18
5.126e-19
2.31e-18
2.046e-17
1.633e-18
1.382e-20
6.399e-20
1.012e-08
4.792e-16
1.093e-19
0.005316
0.003977
1.396e-13
5.702e-05
3.755e-13
6.615e-05
1.502e-08
3.144e-13
2.863e-11
1.155e-13
1.205e-13
7.33e-12
0.00582
2.17e-09
2.449e-11
1.359e-12
9.748e-11
5.064e-05
1.371e-12
2.562e-05
0.0001295
4.432e-08
8.924e-12
0.003986
4.342e-06
4.707e-06
7.285e-19
0.005347
1.61e-10
8.112e-12
0.0004138
1.999e-08
2.977e-08
1.78e-15
0.0004353
6.787e-06
4.977e-05
0.006668
2.516e-09
0.006667
9.38e-05
0.00597
4.672e-05
4.127e-06
0.001817
3.953e-07
0.006702
4.665e-10
2.266e-05
6.775e-05
3.296e-07
3.381e-07
0.002867
8.094e-09
3.765e-13
0.002803
0.005269
0.006693
3.71e-13
0.0008445
4.118e-05
2.63e-09
0.006705
5.818e-12
1.491e-13
2.834e-09
3.498e-11
0.001793
7.782e-05
9.916e-08
9.318e-13
2.349e-05
3.085e-08
0.00521
8e-05
1.078e-07
5.843e-05
3.798e-07
9.834e-05
4.701e-06
4.997e-10
0.0001519
5.78e-05
0.006705
2.515e-08
1.317e-09
8.925e-06
9.266e-05
0.000135
2.503e-07
0.002869
9.377e-06
0.00668
1.629e-08
6.757e-13
6.819e-06
7.978e-07
0.006691
2.858e-05
0.0005932
0.006693
0.0008601
7.814e-15
0.00668
4.958e-09
5.286e-07
0.000109
7.171e-12
3.662e-12
0.0008868
0.001014
4.617e-07
1.726e-09
7.657e-06
5.56e-07
7.043e-07
4.5e-05
3.111e-17
9.05e-06
0.0001776
0.0001188
2.377e-11
0.0001609
5.267e-05
0.001024
3.219e-05
0.0001517
7.282e-06
1.299e-06
5.828e-12
0.006702
4.36e-07
3.487e-10
3.794e-06
3.165e-08
7.728e-05
2.829e-05
4.079e-07
0.001847
7.416e-05
1.059e-09
0.0004404
3.104e-10
9.416e-09
1.296e-15
0.005405
7.895e-06
8.118e-11
1.01e-09
9.27e-06
8.515e-06
7.768e-10
0.0002028
3.368e-08
0.0001529
1.676e-05
1.517e-06
0.00269
0.0001396
2.339e-06
4.801e-07
3.034e-08
0.002142
1.54e-06
0.0005886
0.0002048
0.0001496
2.128e-09
0.001902
1.394e-05
8.353e-07
2.335e-08
0.0008058
2.268e-06
2.109e-07
0.0001792
6.096e-07
9.042e-18
0.0006934
0.006639
0.006625
1.915e-15
0.00294
0.006693
0.0002013
0.002164
3.701e-05
7.571e-19
1.585e-07
0.0001237
1.83e-06
0.005303
0.006691
0.0001236
0.001222
0.006688
9.031e-10
1.461e-06
4.341e-16
1.179e-09
1.756e-06
5.177e-06
0.0001214
2.844e-06
0.006694
2.865e-08
8.71e-06
1.545e-10
1.933e-08
3.001e-10
0.0001222
2.545e-07
0.0004467
4.059e-05
0.0007261
0.002948
1.245e-13
4.299e-05
0.0001015
7.848e-06
1.162e-20
0.006432
5.259e-06
2.622e-07
1.64e-09
0.0003217
1.221e-09
1.578e-05
1.171e-14
9.187e-08
1.104e-13
6.338e-15
0.002904
6.542e-06
4.701e-11
1.225e-06
7.89e-05
1.053e-08
8.554e-06
0.001182
2.69e-09
6.411e-06
1.587e-05
0.0005617
0.0008125
4.955e-05
0.0009892
4.215e-06
1.213e-09
1.685e-07
1.173e-07
5.171e-06
2.564e-06
2.678e-10
0.002687
0.0007846
4.871e-06
6.385e-07
2.674e-06
7.519e-06
5.113e-08
0.002768
1.073e-05
0.003542
0.000119
9.217e-06
0.00669
0.006691
9.038e-18
4.083e-06
0.006692
4.319e-08
0.002265
7.961e-05
4.758e-05
0.0001025
1.022e-05
0.006695
7.938e-06
3.582e-09
5.703e-06
0.0003185
2.969e-06
7.575e-10
3.413e-05
1.435e-05
3.6e-05
9.961e-11
1.086e-06
1.872e-06
0.006689
0.001402
1.621e-06
1.92e-07
9.495e-08
1.413e-09
0.003888
0.00669
7.935e-08
0.0001121
6.121e-10
0.0001207
0.003414
8.361e-05
4.785e-09
0.0003987
1.204e-06
7.126e-08
4.717e-05
0.0001091
3.795e-05
7.53e-09
2.361e-06
0.001059
0.006691
5.561e-05
0.006639
0.006626
3.143e-05
1.012e-05
1.69e-05
0.001057
2.091e-06
0.0001804
1.744e-06
1.013e-05
3.249e-06
1.196e-06
4.009e-08
2.771e-08
1.639e-06
1.191e-09
1.329e-07
1.816e-09
0.00379
9.179e-05
2.864e-06
0.0001384
5.614e-08
7.691e-05
1.894e-06
0.006328
7.574e-09
0.001298
4.594e-07
0.002976
3.338e-08
3.496e-08
0.006697
0.003334
0.002942
8.196e-10
0.002703
2.573e-06
0.0003674
1.583e-10
2.703e-08
0.0009464
0.0001195
5.671e-09
5.773e-13
0.000234
0.002837
0.001486
1.36e-11
2.26e-09
2.931e-05
0.000657
6.733e-14
4.503e-05
1.382e-11
0.0006234
0.0004971
0.006684
1.36e-05
1.021e-07
1.035e-08
2.213e-08
2.228e-09
1.411e-05
3.761e-09
0.0001369
0.0006087
3.667e-11
0.006694
4.445e-05
0.00024
4.375e-05
2.208e-06
0.0001291
7.359e-07
0.006705
4.303e-08
2.282e-06
8.652e-10
4.714e-05
0.0005323
7.802e-07
4.525e-07
4.767e-05
1.176e-10
1.528e-05
3.467e-08
1.135e-05
2.4e-11
5.768e-07
0.003169
0.000412
1.308e-05
4.6e-06
3.917e-05
2.861e-09
9.441e-05
0.006677
6.151e-07
6.071e-05
0.0005476
6.758e-07
0.006697
1.618e-06
3.362e-08
0.0004697
0.006695
0.00669
4.474e-08
0.0001499
9.05e-06
0.0003332
7.079e-10
0.006198
6.737e-08
0.003014
0.001236
9.762e-05
5.152e-09
2.728e-06
4.091e-10
3.77e-05
6.49e-05
5.331e-10
4.856e-09
8.646e-05
5.944e-06
1.055e-06
2.664e-06
0.0005294
8.58e-07
2.356e-06
0.002717
0.001495
1.939e-05
2.926e-08
0.006667
0.0002903
3.504e-05
9.479e-05
0.0001135
0.0001363
0.006644
6.53e-07
4.364e-05
8.15e-08
1.52e-05
6.924e-12
8.988e-08
1.481e-08
1.564e-09
5.556e-06
6.832e-07
1.754e-05
0.006688
7.105e-10
0.0009104
2.001e-07
1.276e-07
4.484e-06
1.15e-06
2.336e-17
4.598e-06
1.148e-06
9.57e-05
1.395e-06
0.006686
6.109e-12
0.00151
0.0001522
0.0007452
1.286e-19
1.371e-15
1.631e-15
0.006697
6.797e-08
1.365e-07
0.00669
0.00149
2.966e-07
9.35e-06
7.26e-06
8.69e-05
4.756e-09
0.0002979
1.049e-12
0.002756
0.001028
3.737e-14
1.781e-08
9.645e-10
5.695e-08
0.006318
4.286e-06
0.00186
0.0005322
0.006627
3.006e-10
9.87e-11
8.546e-08
0.006636
1.902e-05
0.0001149
9.858e-09
3.423e-06
2.172e-10
0.0008637
0.0009162
6.882e-07
4.61e-06
0.006668
3.664e-05
1.251e-05
5.701e-09
3.706e-08
1.766e-08
1.015e-08
0.0006635
1.274e-06
6.432e-08
1.417e-05
8.237e-07
0.003512
2.422e-11
1.036e-05
5.467e-10
5.884e-07
0.0003836
0.006702
0.006701
1.714e-05
2.166e-08
1.274e-06
0.006691
0.004947
1.262e-05
3.883e-09
0.0001287
5.341e-06
4.819e-09
2.363e-11
2.493e-05
0.001189
0.006682
7.231e-08
0.0001589
4.438e-07
0.005021
3.703e-13
9.847e-07
7.122e-07
0.002833
1.013e-10
0.006691
0.0001575
0.0004375
0.0006474
0.005085
2.041e-07
0.0005613
9.153e-14
0.006644
2.719e-07
1.351e-09
0.00669
2.234e-06
0.005362
1.067e-07
2.773e-05
0.00669
6.418e-09
7.543e-09
2.618e-07
4.855e-07
4.332e-05
2.436e-09
2.808e-09
1.5e-06
6.212e-08
1.625e-07
3.855e-08
4.966e-05
5.711e-06
2.697e-10
0.005595
2.313e-09
0.006689
1.248e-06
0.0008528
3.566e-05
0.006677
0.00597
7.37e-05
3.81e-08
1.669e-05
0.006481
0.006675
3.848e-07
1.612e-11
8.115e-09
9.22e-10
0.002412
9.569e-06
0.0001057
1.947e-06
3.562e-06
2.341e-07
2.125e-10
0.00648
1.802e-08
4.953e-06
9.564e-05
7.181e-06
0.006623
0.004948
4.536e-05
7.164e-11
1.769e-05
2.335e-11
0.0007759
0.003952
4.003e-06
1.963e-08
0.0001939
6.942e-10
9.534e-05
0.0005895
4.535e-08
6.423e-06
5.643e-06
2.363e-05
1.949e-18
3.022e-08
9.385e-05
6.275e-05
4.508e-06
1.054e-07
2.519e-10
1.113e-08
0.0004112
7.974e-07
4.586e-06
4.979e-05
0.006677
6.134e-08
1.896e-05
4.629e-06
0.006636
0.006677
7.724e-12
9.438e-05
6.525e-09
1.927e-07
1.852e-07
0.001387
3.056e-05
3.238e-10
1.021e-05
1.113e-08
0.006687
0.006667
5.842e-06
1.419e-05
1.64e-09
5.103e-06
2.22e-10
0.0022
1.095e-08
9.778e-05
0.002509
0.004101
8.478e-10
0.0001482
8.336e-09
3.064e-17
8.376e-07
5.384e-06
0.0002698
0.004903
4.649e-07
3.605e-08
1.41e-11
0.004251
0.0003547
3.616e-06
6.477e-10
4.489e-05
2.5e-08
0.003299
2e-08
3.15e-07
1.659e-06
0.000934
5.79e-05
2.064e-22
2.174e-05
0.0001809
1.77e-07
2.953e-07
1.293e-07
0.006686
5.286e-05
0.00377
0.0001345
0.003792
1.828e-11
8.666e-07
9.381e-11
0.003731
7.279e-09
4.103e-05
2.096e-08
1.431e-07
0.004125
0.0002884
1.118e-07
1.435e-08
6.332e-05
0.002615
1.03e-05
4.973e-07
0.003518
1.746e-06
5.803e-05
1.389e-07
4.885e-06
3.595e-05
8.201e-07
1.746e-11
3.223e-07
0.006609
0.000282
0.002021
2.351e-11
1.385e-09
5.07e-05
0.001561
1.637e-08
0.00662
1.14e-05
4.877e-08
1.554e-05
3.439e-13
1.574e-05
1.083e-07
7.158e-06
0.0004585
1.808e-05
0.006697
4.97e-19
7.263e-06
6.399e-07
7.198e-09
0.0001515
8.148e-07
2.044e-06
1.419e-08
0.006681
0.00408
8.593e-06
0.003973
8.478e-07
2.075e-07
2.424e-07
5.422e-07
0.006659
0.0001232
0.0001006
0.006688
0.006656
7.297e-06
0.001786
0.0024
1.005e-06
0.0001686
6.893e-15
4.899e-06
8.62e-06
0.006678
5.37e-05
1.592e-05
3.118e-09
2.047e-10
8.685e-06
0.003684
0.006502
0.00109
3.004e-13
0.006678
0.0001014
2.908e-10
4.022e-07
2.166e-11
0.005791
0.0006542
4.208e-07
0.006692
1.317e-09
0.006679
1.863e-07
6.591e-11
3.46e-08
7.364e-06
2.821e-12
0.005352
1.435e-08
2.036e-05
3.996e-10
9.833e-07
2.929e-10
3.972e-10
5.283e-05
6.701e-05
1.187e-05
9.976e-15
0.006691
0.0002459
3.732e-09
8.06e-09
3.979e-06
9.764e-13
0.003745
0.0002603
6.655e-08
1.082e-11
1.993e-14
1.092e-07
3.097e-16
1.772e-08
5.491e-16
8.954e-07
1.174e-08
0.004061
1.563e-13
0.0008538
1.708e-07
0.005023
0.005155
2.505e-05
0.0004586
5.312e-07
0.002932
7.778e-07
4.859e-05
0.0003681
4.009e-08
1.475e-07
0.006672
0.002886
2.294e-05
0.0004296
3.736e-09
9.891e-14
0.0004481
2.15e-06
1.448e-08
0.0002353
3.442e-07
0.006687
4.877e-06
9.235e-09
0.006366
1.28e-08
1.112e-05
0.001939
0.006664
0.003085
0.002151
1.417e-15
1.345e-05
9.271e-14
0.0002866
1.128e-06
2.398e-07
5.455e-10
7.16e-09
0.005621
4.746e-11
9.939e-06
0.005487
1.01e-05
1.685e-13
0.0009294
3.648e-09
3.82e-06
1.595e-05
1.179e-10
3.689e-16
1.468e-08
0.0009245
0.006693
2.121e-06
8.318e-06
4.148e-06
8.079e-09
6.985e-07
9.699e-11
3.877e-05
5.863e-05
8.21e-11
0.000158
2.022e-12
0.006687
0.0003402
6.929e-08
6.229e-05
5.535e-07
0.0001594
0.006691
0.002379
1.665e-08
4.17e-05
2.913e-06
1.883e-08
1.94e-07
0.001161
1.832e-05
1.086e-07
2.975e-08
1.294e-14
8.811e-06
1.344e-09
2.199e-08
2.482e-06
0.001117
5.701e-07
9.601e-07
1.597e-08
1.477e-12
0.0001417
0.006686
0.00668
0.0004158
0.0001918
9.085e-05
0.006687
1.658e-06
0.0001017
6.648e-05
2.961e-07
3.549e-05
1.448e-07
2.323e-06
0.006705
7.108e-05
5.478e-05
5.67e-12
1.15e-10
4.155e-05
1.145e-05
0.0003277
9.144e-10
1.835e-08
1.162e-06
0.002457
6.324e-07
1.153e-07
9.584e-06
7.048e-11
0.006444
9.348e-12
4.392e-10
0.002104
6.291e-07
9.755e-09
0.00473
8.604e-14
1.4e-14
0.006296
0.006689
2.951e-06
2.466e-05
6.235e-14
3.479e-06
1.868e-07
9.478e-09
7.334e-08
7.609e-05
0.0001091
0.002934
3.612e-08
0.001551
3.452e-07
1.69e-05
4.869e-09
4.928e-05
0.005461
2.221e-14
1.224e-05
0.006691
1.921e-08
0.005718
0.006685
1.343e-06
7.699e-05
2.464e-14
0.006686
1.417e-09
0.006693
1.502e-07
8.993e-05
0.003318
5.417e-06
2.465e-09
8.371e-09
3.077e-08
7.078e-07
0.003701
0.0005179
6.198e-05
5.033e-08
7.866e-07
1.254e-07
1.591e-12
3.559e-08
1.303e-13
3.526e-07
8.851e-09
1.951e-09
7.614e-09
1.842e-11
5.542e-06
0.003812
0.003972
7.774e-09
1.563e-05
1.533e-10
0.003091
1.483e-08
0.0004219
2.835e-07
1.736e-07
1.862e-06
6.55e-05
6.74e-10
0.0009089
2.872e-07
3.153e-06
1.379e-09
8.882e-07
0.006536
1.446e-06
7.186e-09
0.005833
6.798e-08
1.125e-09
0.006671
2.633e-05
2.617e-06
0.0002917
5.565e-06
0.0002318
7.158e-05
0.0001042
0.006655
1.533e-07
4.49e-07
0.006693
7.6e-06
0.0001623
0.0001119
1.256e-07
3.671e-06
0.0004089
5.671e-08
2.334e-12
2.665e-09
2.013e-08
0.0005754
1.529e-13
0.00296
8.335e-08
0.006691
3.681e-05
5.57e-06
8.817e-08
1.698e-07
6.039e-08
1.915e-12
0.006698
8.527e-15
3.187e-09
6.167e-09
4.971e-07
4.339e-09
0.001014
0.004163
6.494e-11
3.348e-07
6.65e-05
5.19e-18
8.776e-05
1.547e-08
5.163e-10
5.255e-08
1.404e-07
9.293e-05
5.911e-10
2.119e-07
5.054e-06
6.868e-06
4.928e-09
1.123e-08
0.0009502
9.688e-14
9.238e-05
1.266e-07
0.0001173
1.484e-09
0.006641
0.006689
7.7e-05
8.216e-14
0.0002528
0.00272
2.142e-14
3.808e-08
0.006692
2.796e-11
1.933e-07
1.549e-05
1.064e-12
2.607e-05
1.563e-05
1.6e-17
0.002816
9.833e-11
0.0006861
3.082e-07
9.292e-12
1.418e-08
3.138e-10
4.864e-06
1.655e-08
0.0001064
0.003151
2.553e-06
1.848e-06
4.227e-06
2.263e-07
0.001996
1.891e-10
0.0006763
8.378e-05
0.001457
4.041e-06
3.521e-05
2.676e-06
9.997e-14
6.148e-05
1.85e-12
7.038e-10
5.738e-06
1.495e-05
0.006693
0.00112
1.266e-06
3.453e-05
9.206e-10
8.278e-10
1.325e-10
0.006681
6.34e-09
3.944e-08
8.968e-06
2.862e-14
9.651e-07
0.002939
1.066e-07
0.002589
7.145e-08
7.737e-06
4.935e-12
1.434e-07
0.0006136
0.0002028
0.006695
3.846e-16
2.592e-14
5.432e-05
7.208e-05
5.188e-06
0.006496
0.006645
7.123e-07
0.0009964
0.003341
9.398e-05
0.00334
0.003263
1.543e-06
3.264e-05
0.001214
1.772e-08
2.478e-08
1.48e-14
3.337e-05
2.192e-10
1.014e-05
4.366e-07
0.006646
2.548e-09
0.0006436
3.286e-07
1.075e-14
1.147e-05
0.001493
4.032e-06
4.341e-07
1.357e-05
5.088e-15
0.001617
7.638e-06
0.001663
0.001252
9.245e-06
3.231e-08
4.35e-15
7.694e-05
1.152e-07
0.006674
1.568e-08
1.311e-08
0.006661
4.843e-09
7.478e-07
1.594e-05
5.251e-09
0.006681
2.407e-05
1.488e-16
0.004762
3.635e-08
3.201e-08
2.695e-07
3.775e-11
5.927e-05
9.437e-06
2.048e-07
4.723e-11
9.886e-06
4.547e-08
1.875e-05
2.023e-07
3.323e-10
1.523e-10
8.983e-08
9.035e-06
0.00669
1.117e-07
0.002984
3.359e-10
3.317e-07
0.001987
8.472e-06
0.006677
1.905e-05
6.272e-07
0.006612
0.002218
0.006185
5.195e-10
0.00225
1.518e-13
2.098e-06
1.148e-05
4.086e-09
1.088e-05
7.125e-08
7.866e-09
3.639e-16
5.5e-06
1.046e-06
1.743e-05
2.755e-05
0.0008172
0.006702
4.298e-05
0.001324
0.0006853
0.006699
0.001902
0.006684
5.71e-08
1.008e-05
0.006671
0.006683
1.821e-06
0.000102
6.841e-09
7.427e-05
0.006669
6.163e-06
2.124e-05
6.569e-05
9.619e-16
2.804e-10
2.364e-13
6.763e-08
6.366e-07
1.556e-08
6.388e-08
0.0002604
0.0001303
6.861e-12
0.0006583
6.035e-09
2.168e-09
1.011e-06
5.323e-06
0.003712
0.006686
3.318e-16
8.735e-06
3.465e-11
0.006691
1.307e-14
4.85e-08
1.065e-08
8.87e-06
0.006635
0.006634
0.001878
0.001462
0.002253
0.001309
3.556e-07
5.834e-05
5.002e-06
0.003472
1.086e-05
1.287e-10
1.228e-06
0.0001283
5.95e-05
9.065e-06
4.25e-10
1.018e-08
2.342e-07
1.145e-08
0.0003189
0.002706
1.93e-05
7.544e-06
7.353e-13
1.003e-05
0.0003025
3.191e-07
0.002636
1.091e-07
7.387e-05
1.444e-10
0.003985
0.006692
0.0002981
7.732e-07
6.971e-15
2.67e-11
9.546e-05
7.411e-06
4.586e-09
9.746e-05
0.006617
1.742e-08
3.581e-08
1.244e-15
5.879e-05
1.333e-13
1.568e-05
0.006685
3.586e-08
6.656e-08
0.0009844
1.417e-05
0.0001511
2.215e-07
4.51e-07
7.016e-07
0.0007769
8.393e-10
0.0001272
3.414e-08
2.635e-09
1.068e-09
0.003525
0.003522
6.01e-09
8.201e-06
3.608e-15
6.576e-07
5.158e-10
3.635e-10
3.121e-16
0.003159
5.914e-07
0.0004047
0.00388
0.006685
0.0006077
0.00628
1.611e-14
0.006691
2.907e-11
4.111e-05
1.11e-06
3.706e-07
1.414e-09
0.002895
1.311e-11
8.936e-05
1.762e-07
0.0001985
1.738e-12
0.006686
1.67e-07
3.653e-08
0.0002905
2.957e-09
5.665e-08
9.499e-05
1.859e-08
5.002e-09
0.0001674
0.006661
1.656e-10
0.002869
0.00665
5.714e-05
9.894e-10
0.00666
2.868e-11
0.006694
8.937e-06
4.908e-06
0.0003273
5.619e-07
0.006656
0.00026
7.129e-09
9.897e-05
3.534e-05
2.67e-06
3.71e-05
0.00669
0.00668
3.055e-06
3.958e-15
1.176e-06
2.135e-07
0.0008596
2.709e-12
7.765e-05
4.799e-05
0.003202
2.037e-05
1.224e-06
2.106e-09
0.0006575
4.449e-08
0.001096
2.279e-06
0.006703
4.151e-06
1.071e-07
0.0003853
7.898e-07
8.742e-10
3.899e-07
0.006675
1.515e-05
6.101e-11
1.331e-07
1.495e-14
2.62e-10
0.00197
0.000301
1.432e-05
9.272e-12
1.118e-05
2.261e-08
1.159e-10
0.00314
6.5e-05
0.006686
1.986e-07
4.966e-08
1.707e-06
0.006692
5.946e-07
0.006692
9.991e-05
1.234e-06
0.006681
0.002478
5.772e-05
1.06e-06
0.0001959
0.003009
1.122e-08
0.006696
1.023e-08
6.574e-11
1.123e-05
0.003867
6.719e-08
0.0009442
4.423e-06
0.0001046
5.875e-10
3.299e-07
7.545e-05
1.18e-09
9.518e-07
9.852e-08
9.229e-11
0.0001419
4.548e-05
2.294e-07
0.0002027
2.863e-08
8.679e-05
1.044e-05
2.856e-07
0.0003346
0.002886
6.465e-09
0.002197
1.713e-06
4.805e-06
1.654e-14
2.011e-05
5.31e-13
6.254e-05
0.006663
5.467e-13
1.077e-07
9.614e-05
9.424e-09
0.0004043
2.739e-05
0.006705
0.000871
1.863e-12
0.0003847
4.749e-06
3.418e-07
1.002e-07
0.006695
4.012e-07
7.831e-06
7.038e-06
3.318e-10
0.0004387
2.38e-07
6.044e-11
0.006687
0.0002462
5.65e-05
0.00304
3.95e-06
1.808e-05
3.158e-05
1.62e-06
0.0001027
0.0008258
0.003373
4.223e-05
5.449e-07
0.006539
2.661e-05
1.967e-09
1.275e-13
0.006686
3.614e-07
9.757e-13
0.001349
5.443e-09
0.001568
9.115e-08
1.179e-13
0.00324
0.002821
2.259e-05
0.0009635
3.57e-10
3.766e-06
0.0004853
1.057e-11
5.227e-08
0.0004482
3.032e-08
5.845e-17
1.528e-16
4.523e-05
1.613e-05
8.234e-08
7.107e-05
0.0007045
2.942e-06
0.0004534
3.144e-09
1.19e-06
2.21e-06
5.667e-08
3.936e-12
0.0001069
2.805e-05
0.00669
2.637e-08
2.743e-05
3.073e-05
1.625e-05
8.122e-05
1.049e-07
4.149e-05
0.003315
0.006663
5.091e-09
2.703e-10
2.2e-05
8.056e-09
0.0003085
1.486e-14
1.864e-08
0.0001951
7.37e-08
2.023e-10
2.88e-05
1.756e-07
3.984e-15
0.006609
1.637e-11
8.81e-09
8.436e-08
0.00502
0.000298
0.001232
5.605e-10
1.133e-08
0.001698
1.872e-10
0.005058
5.939e-06
5.12e-08
0.0001305
0.001843
0.006243
3.948e-09
2.018e-10
1.094e-07
1.48e-10
2.185e-11
0.0003104
3.507e-13
0.002927
2.596e-08
6.335e-06
0.002549
0.0001229
0.004191
1.012e-06
0.000639
1.72e-07
0.00344
1.953e-07
3.954e-16
3.018e-13
2.012e-05
3.39e-05
3.532e-05
1.31e-05
0.002026
0.0002159
7.476e-07
8.06e-05
0.006695
3.346e-07
1.463e-07
2.255e-08
3.216e-06
2.733e-06
5.246e-08
0.0001046
5.191e-09
1.405e-13
1.094e-11
0.0001076
2.097e-07
6.143e-16
0.001262
3.278e-09
0.003523
2.284e-06
5.22e-06
5.695e-18
4.176e-06
2.437e-06
0.003748
0.0001797
2.319e-08
1.143e-05
0.006691
0.006697
0.0005687
1.99e-10
0.001357
1.754e-07
1.054e-13
1.75e-06
0.00118
3.6e-10
0.002358
8.352e-06
1.932e-11
8.852e-05
0.004721
7.406e-06
2.399e-06
7.197e-05
1.994e-07
0.006695
8.805e-08
0.003393
4.379e-10
0.003418
3.531e-08
1.005e-11
1.72e-05
3.198e-10
9.527e-05
3.3e-09
1.169e-07
5.666e-09
2.034e-05
0.001029
2.17e-05
8.78e-05
2.173e-09
6.971e-06
3.232e-10
3.767e-08
0.006694
5.264e-06
0.003533
9.951e-10
3.594e-07
0.002746
0.0003878
8.957e-05
6.162e-12
0.003666
6.48e-06
0.0005976
4.444e-05
0.002043
6.636e-05
0.0001271
1.453e-13
0.0001135
0.0003564
9.63e-09
0.006671
0.0006445
7.044e-05
5.749e-05
0.0009169
0.006687
9.957e-05
4.011e-08
1.056e-08
0.006691
0.001036
0.002402
1.656e-06
3.387e-08
0.00127
1.681e-05
7.919e-05
7.808e-10
3.052e-09
0.001496
6.15e-07
2.135e-05
9.555e-05
2.015e-07
2.868e-14
0.001786
7.439e-10
5.698e-09
0.001329
1.714e-14
0.00669
0.00666
1.408e-05
1.724e-05
2.196e-16
0.006692
0.0006831
9.664e-09
6.465e-15
3.946e-08
1.932e-09
0.006312
0.006387
7.701e-09
2.285e-07
9.015e-05
6.161e-07
5.606e-05
0.0007386
2.781e-05
0.006705
3.478e-10
7.629e-08
2.922e-07
0.0002072
1.228e-11
0.001372
1.79e-05
0.006656
2.899e-06
5.89e-08
6.982e-10
6.984e-09
1.841e-06
1.982e-11
1.746e-07
1.501e-06
1.896e-07
7.955e-09
1.008e-06
0.0001085
5.974e-07
1.307e-10
0.00493
0.005148
1.109e-07
3.352e-06
1.409e-12
9.638e-06
4.603e-09
8.414e-08
0.002822
0.00669
7.606e-06
0.006702
4.169e-05
1.518e-13
2.27e-06
9.161e-05
3.274e-07
0.0001233
7.664e-12
5.709e-08
0.00326
2.301e-06
2.885e-06
2.387e-07
0.0003595
2.75e-07
1.182e-06
9.171e-07
4.934e-06
3.921e-05
1.858e-06
0.0008641
4.322e-10
1.393e-07
4.941e-06
7.399e-06
9.46e-11
1.157e-05
1.821e-07
2.248e-08
1.037e-06
8.629e-06
1.538e-06
3.766e-13
0.0001174
5.902e-08
0.001574
0.00099
0.006703
1.133e-07
0.002521
3.456e-13
3.205e-07
4.122e-05
6.818e-10
3.445e-15
1.354e-10
8.49e-06
3.827e-07
4.142e-10
1.231e-11
0.002684
0.0003163
1.065e-06
7.605e-16
2.427e-06
2.874e-05
6.802e-05
7.636e-05
0.006691
7.062e-05
2.266e-10
7.075e-06
5.129e-08
0.002098
9.621e-05
1.06e-11
0.006642
5.437e-05
0.0001144
0.001569
9.051e-10
7.199e-05
1.838e-05
0.003155
5.755e-05
4.701e-08
1.235e-06
1.279e-14
1.164e-08
1.547e-06
0.006673
5.7e-05
9.917e-06
3.14e-10
6.735e-09
8.75e-07
0.003116
6.156e-07
0.006355
2.062e-08
4.73e-09
8.616e-06
1.625e-06
1.373e-05
1.005e-11
9.998e-10
1.322e-08
1.55e-06
5.971e-05
1.489e-06
1.47e-10
0.00382
0.000116
1.33e-13
0.003021
9.082e-05
0.005291
0.006698
1.316e-06
0.00293
2.324e-08
3.567e-07
0.0001087
6.299e-05
1.104e-09
1.291e-11
2.408e-06
7.856e-09
2.315e-06
0.001387
9.633e-15
2.842e-05
4.557e-06
0.003418
5.811e-14
0.0006436
3.313e-11
7.349e-13
0.003748
3.92e-09
1.173e-09
9.138e-06
0.0003735
9.613e-10
1.159e-07
1.39e-09
0.0001321
2.053e-05
0.0001986
0.004089
0.0067
4.97e-05
0.0004284
4.65e-07
1.149e-06
7.854e-06
1.155e-13
0.0005026
0.005314
9.127e-09
2.684e-05
0.0009275
4.908e-07
1.003e-05
8.498e-07
1.956e-09
3.789e-10
7.119e-13
3.366e-07
4.063e-08
1.084e-07
5.779e-06
6.275e-07
2.168e-05
4.256e-14
1.062e-08
3.106e-07
9.537e-06
0.006678
1.437e-07
7.588e-09
0.0007048
9.596e-06
6.298e-13
7.81e-10
2.403e-07
0.0001517
1.742e-06
8.815e-10
0.00669
2.029e-09
0.00153
0.0001352
8.803e-07
5.729e-09
0.006695
6.525e-08
0.0004538
2.404e-06
5.111e-12
3.47e-06
3.863e-07
3.521e-16
5.078e-05
4.948e-08
0.006652
0.006634
5.9e-08
2.225e-05
1.424e-05
2.903e-09
1.941e-07
0.006685
6.927e-12
7.706e-10
7.946e-06
0.006695
0.004418
4.743e-06
6.045e-06
5.19e-08
1.955e-16
2.932e-09
0.005546
2.185e-09
1.477e-12
8.563e-05
3.547e-09
1.74e-08
0.003131
6.047e-05
1.196e-09
0.00127
0.0001772
0.006631
0.006589
0.006613
0.006295
0.0001214
0.0005831
1.52e-06
6.029e-09
4.988e-06
1.566e-06
2.276e-05
7.211e-11
0.00615
1.356e-06
5.612e-05
7.277e-09
2.504e-10
2.702e-09
8.152e-06
4.266e-07
1.891e-08
1.468e-05
1.283e-07
0.0001655
2.296e-07
1.931e-15
5.971e-08
6.751e-12
4.138e-06
1.39e-07
0.00669
5.107e-14
5.814e-06
1.676e-08
5.577e-06
0.00013
1.038e-13
0.006693
2.692e-05
5.941e-10
0.004492
1.253e-07
6.516e-06
0.0002007
1.429e-05
2.201e-10
8.522e-05
1.24e-08
0.006624
8.602e-06
6.697e-06
3.988e-07
0.0005993
3.749e-07
0.006677
0.005438
6.838e-05
3.57e-07
3.913e-09
9.181e-05
0.0001617
9.883e-08
1.307e-05
4.336e-10
1.582e-08
0.0008865
0.002235
0.0007134
1.467e-05
0.0001045
5.522e-15
3.803e-06
0.006689
5.187e-12
0.006691
0.006686
8.366e-05
0.002925
7.437e-11
0.0004347
1.876e-10
0.0001395
1.778e-08
0.006695
9.302e-05
9.029e-07
6.801e-08
0.001478
0.003862
6.301e-05
5.13e-12
3.952e-12
0.006702
4.617e-13
2.744e-12
2.403e-16
0.003206
0.001198
0.0002758
9.141e-05
0.0006683
0.001483
4.503e-07
2.721e-12
1.005e-05
1.817e-09
1.704e-15
0.006691
1.117e-08
3.905e-11
2.098e-07
0.006693
1.091e-09
2.847e-13
2.583e-15
1.318e-14
0.0001085
1.16e-05
1.684e-14
0.0002599
5.225e-06
0.006686
0.0002053
4e-10
0.002796
2.055e-08
1.431e-14
9.527e-05
2.762e-05
3.051e-07
0.006706
0.003572
4.904e-09
6.96e-10
0.002671
5.713e-10
1.822e-07
3.824e-05
0.00104
1.422e-05
9.209e-07
1.957e-05
0.006691
7.619e-06
4.079e-06
6.735e-08
7.367e-08
1.124e-07
5.28e-09
1.756e-07
1.21e-13
7.163e-16
4.404e-18
3.666e-09
0.0001476
2.187e-09
0.0003379
4.803e-10
6.429e-10
0.00669
3.409e-15
0.006705
6.097e-07
3.491e-13
4.292e-11
5.337e-05
6.129e-07
1.816e-07
3.98e-08
0.006629
1.643e-15
7.16e-07
0.003185
0.001145
1.292e-05
1.012e-13
4.312e-13
4.797e-14
0.0007415
8.417e-09
2.719e-09
0.0001338
2.574e-05
2.979e-07
4.388e-13
0.006667
2.492e-05
4.395e-07
5.859e-06
6.221e-07
0.0002159
0.003443
9.337e-12
1.81e-07
1.26e-07
8.087e-13
0.002913
3.61e-11
4.096e-05
5.529e-07
7.092e-07
0.006021
0.000112
6.986e-07
1.047e-09
9.173e-09
1.336e-13
0.0032
0.004499
7.907e-06
4.866e-08
1.987e-11
0.0001603
0.003088
0.006442
0.0002951
4.893e-10
0.006357
8.324e-08
1.563e-08
8.801e-05
4.989e-07
0.0001207
4.994e-12
8.194e-14
1.1e-14
8.623e-05
2.201e-09
1.05e-05
6.47e-08
0.001574
0.001512
6.139e-13
0.0008486
8.556e-10
3.82e-08
1.914e-10
9.042e-08
2.564e-05
1.838e-13
0.0007155
3.92e-07
1.288e-05
0.003459
4.942e-07
9.614e-05
0.002342
1.237e-06
2.82e-07
8.614e-06
3.91e-07
6.971e-07
6.756e-14
1.754e-15
0.002618
6.223e-15
0.002764
8.425e-05
0.0001142
0.0001728
9.156e-07
0.006704
3.098e-08
7.192e-14
9.133e-08
9.178e-11
0.000764
6.279e-05
8.333e-08
2.697e-06
0.000899
1.403e-09
0.001371
1.006e-11
6.361e-08
0.005369
7.263e-06
3.749e-07
0.0067
0.0004232
9.808e-11
0.006694
2.478e-08
2.09e-07
4.336e-08
4.747e-06
2.548e-11
0.002883
0.0007794
5.515e-05
2.253e-09
1.137e-09
4.435e-09
4.802e-07
0.006683
1.532e-08
0.006685
7.465e-05
8.505e-07
0.0005093
1.261e-14
3.702e-07
2.345e-09
0.001683
3.26e-10
2.519e-05
0.002719
0.0001827
1.037e-07
0.006669
7.522e-06
0.006694
8.367e-10
7.394e-10
3.742e-07
1.404e-05
0.006616
8.664e-09
1.202e-08
2.037e-07
1.372e-10
2.658e-08
1.002e-08
0.0006476
0.0001095
1.094e-05
1.739e-05
9.839e-09
1.341e-06
0.0001064
1.826e-05
0.0001006
1.257e-06
2.652e-07
0.006623
0.00666
0.002106
0.0003016
5.488e-06
1.393e-08
3.103e-08
0.002616
5.555e-08
2.25e-06
1.459e-07
0.006697
9.44e-07
5.505e-05
9.45e-11
0.003298
2.53e-15
1.021e-05
6.367e-11
0.003791
0.0001057
1.58e-13
0.000301
1.557e-07
9.344e-08
4.231e-08
2.376e-07
3.924e-07
0.006693
9.707e-08
2.295e-07
5.03e-06
1.583e-05
3.253e-06
4.656e-06
0.0001205
3.303e-07
8.387e-09
0.006683
0.0001965
6.438e-07
1.161e-11
7.223e-06
0.006701
4.637e-09
1.054e-10
0.0001691
7.522e-05
2.3e-06
5.222e-09
0.0001888
1.21e-06
5.496e-07
0.002199
6.923e-06
1.032e-05
0.00539
5.592e-06
1.545e-14
0.0003842
8.633e-06
2.492e-12
1.52e-05
4.542e-06
0.006689
0.0002963
8.264e-05
0.003789
8.146e-13
1.051e-06
0.006697
0.001134
3.432e-07
1.892e-16
0.006697
0.000265
8.422e-11
1.535e-07
6.58e-06
4.544e-08
5.838e-09
2.347e-07
2.871e-06
1.71e-09
1.186e-12
6.417e-11
0.002234
1.234e-05
5.606e-05
2.055e-06
0.006683
5.922e-05
8.753e-07
0.0004267
2.119e-07
4.816e-14
3.652e-11
0.00264
1.276e-08
8.401e-13
0.001403
8.369e-09
0.0002712
4.066e-05
7.296e-05
2.203e-10
1.139e-13
0.006687
1.083e-08
2.186e-07
0.006697
4.385e-12
0.0003774
1.179e-05
0.0001288
1.205e-05
2.081e-09
2.28e-07
6.073e-07
0.006697
0.003341
0.00311
8.017e-06
0.006668
4.828e-06
0.0003863
5.915e-10
0.00309
0.0003477
6.658e-09
1.186e-10
0.001549
4.029e-06
0.006672
1.139e-13
8.522e-06
2.659e-09
5.389e-09
0.0001044
1.766e-08
2.205e-06
3.179e-08
2.444e-14
0.003704
1.365e-13
0.00667
0.006683
7.963e-05
6.066e-05
0.006683
8.149e-15
8.014e-08
2.746e-08
4.356e-10
1.088e-06
2.289e-05
0.005035
7.097e-15
0.0004676
2.979e-07
0.006659
2.729e-05
5.858e-05
7.296e-05
1.188e-05
1.214e-05
0.003132
9.09e-08
0.006655
7.264e-06
1.536e-09
7.43e-10
1.351e-12
8.749e-05
0.0002292
2.095e-06
0.006699
1.488e-07
5.455e-08
0.0003383
0.0002069
4.685e-05
3.837e-14
0.006005
0.006677
1.554e-06
6.936e-09
0.002186
1.593e-09
0.006701
1.231e-09
1.942e-06
2.088e-07
0.006701
6.971e-05
8.201e-10
6.019e-08
9.634e-10
0.0001166
2.592e-06
0.00667
5.98e-09
0.004814
1.253e-09
1.078e-14
0.0008335
9.636e-06
0.0009169
2.228e-09
1.141e-11
8.162e-08
8.741e-05
0.006656
1.178e-06
8.577e-05
0.006687
5.49e-09
3.599e-07
0.001211
0.006677
0.0001106
0.0001014
0.0001877
2.4e-08
1.259e-05
0.006691
5.708e-08
2.893e-07
7.356e-08
0.0005123
0.006696
0.006687
0.0003388
1.471e-05
0.001038
3.025e-09
1.828e-14
2.026e-13
3.229e-07
6.973e-13
3.708e-11
0.002274
2.725e-14
4.58e-07
1.171e-09
0.003188
6.898e-05
3.735e-05
9.715e-10
4.785e-10
1.537e-10
1.27e-07
0.0002453
7.032e-05
2.763e-08
3.144e-07
6.934e-06
9.388e-05
3.181e-06
5.912e-05
3.036e-08
0.004352
1.743e-05
2.145e-06
4.715e-06
1.264e-05
5.673e-10
1.249e-15
2.932e-12
0.006661
1.1e-11
1.289e-05
0.006649
4.532e-07
0.006694
3.295e-09
7.612e-07
0.002816
4.778e-09
5.431e-08
0.006707
3.84e-05
0.002767
1.387e-12
0.0009348
1.645e-05
8.691e-13
8.409e-06
0.006687
4.648e-11
0.0001572
0.0003908
1.718e-05
0.001188
1.056e-07
1.779e-14
3.456e-09
3.893e-07
0.0007863
3.652e-07
5.183e-06
0.006687
0.0001841
2.053e-08
3.045e-07
1.347e-06
0.006701
9.889e-14
6.021e-08
8.879e-07
9.245e-06
4.398e-05
3.973e-07
0.006652
0.0001411
4.805e-08
6.487e-07
4.908e-05
1.832e-07
3.204e-09
0.001885
8.887e-06
9.191e-06
0.001581
5.315e-05
0.00263
9.162e-07
1.267e-06
2.136e-06
0.0067
3.348e-09
0.002762
0.0001101
5.579e-06
1.359e-05
1.337e-09
6.497e-06
9.653e-17
0.0004021
3.842e-05
0.002654
0.006674
5.929e-06
1.338e-06
2.699e-11
1.1e-10
1.814e-06
1.058e-08
4.009e-10
1.045e-05
2.419e-05
4.419e-07
4e-09
2.773e-12
3.227e-06
0.0001374
3.067e-10
5.522e-05
2.965e-10
2.444e-06
0.001028
0.0005866
5.343e-08
0.006693
4.572e-06
6.496e-05
0.006689
0.0002513
2.889e-10
0.00263
1.046e-15
4.528e-09
1.445e-07
0.006688
1.37e-05
1.034e-07
0.003666
1.283e-05
2.992e-06
1.171e-08
4.856e-07
1.414e-09
0.006695
1.496e-07
0.006676
1.366e-05
1.716e-08
7.59e-08
6.056e-06
3.032e-09
8.179e-16
0.006607
0.006692
6.357e-07
2.08e-07
4.72e-10
3.688e-05
3.589e-07
1.866e-09
0.0004033
0.001216
0.002934
1.761e-07
8.475e-11
3.488e-05
0.0001661
0.006686
2.589e-07
6.164e-05
5.054e-06
1.111e-08
2.254e-06
0.002079
3.269e-09
1.066e-06
0.0004176
7.482e-08
8.725e-08
0.00014
0.006682
0.006509
1.111e-08
4.094e-09
1.382e-06
0.003837
1.005e-05
0.00341
1.123e-07
1.468e-06
0.006604
8.949e-06
3.401e-05
2.334e-15
3.947e-11
1.535e-09
0.00668
3.528e-09
1.934e-07
1.329e-08
2.013e-08
2.484e-13
1.7e-05
8.938e-06
2.283e-07
4.02e-07
2.17e-09
1.955e-11
0.002129
0.003178
0.00413
9.179e-05
5.954e-16
0.0008579
0.001811
5.567e-09
9.325e-07
0.001223
6.796e-08
1.967e-06
3.739e-11
0.000741
1.015e-07
6.995e-05
8.589e-06
5.83e-09
2.353e-15
0.000232
5.613e-14
3.842e-13
0.00669
4.44e-14
5.647e-07
5.361e-10
4.096e-11
9.18e-06
0.0007868
1.951e-06
3.18e-07
2.231e-06
5.101e-05
0.0001421
0.0005296
5.856e-05
0.000469
1.416e-05
1.663e-05
2.78e-05
0.001397
1.141e-13
2.208e-06
5.805e-10
3.055e-07
3.082e-09
0.006648
1.765e-09
2.129e-06
3.466e-11
0.000612
2.701e-13
1.487e-08
2.388e-08
8.824e-05
1.312e-11
8.026e-05
7.95e-05
2.479e-05
0.000152
0.0001026
0.0001468
1.314e-06
2.035e-05
8.02e-07
2.148e-06
9.504e-08
0.0001284
2.929e-13
1.518e-06
1.736e-13
4.034e-05
0.0002551
3.343e-06
0.00158
0.000146
7.567e-08
0.00669
0.003257
0.00669
5.877e-05
1.528e-07
3.843e-07
0.002984
8.531e-06
0.0001526
5.627e-05
1.876e-14
9.552e-11
1.241e-13
5.047e-08
0.0001083
1.308e-09
1.321e-09
0.0001127
3.632e-09
0.006695
2.656e-05
0.003525
1.792e-07
0.0008043
0.006679
0.006673
2.99e-07
0.002129
0.000146
1.647e-14
1.319e-07
0.006672
0.006692
4.889e-07
0.0002519
6.582e-09
1.547e-12
0.005286
8.51e-06
1.525e-07
6.109e-08
4.498e-09
1.546e-14
4.345e-06
9.037e-05
7.413e-07
2.674e-08
3.642e-05
1.043e-08
1.073e-06
1.522e-05
2.314e-09
4.487e-06
7.726e-16
0.005774
3.272e-07
5.73e-09
2.114e-09
0.006695
0.0001141
0.006691
0.0004148
0.0003495
7.178e-07
9.565e-06
2.693e-08
1.261e-06
0.0001051
1.847e-10
2.638e-09