/*--------------------------------*- C++ -*----------------------------------*\
  =========                 |
  \\      /  F ield         | OpenFOAM: The Open Source CFD Toolbox
   \\    /   O peration     | Website:  https://openfoam.org
    \\  /    A nd           | Version:  8
     \\/     M anipulation  |
\*---------------------------------------------------------------------------*/
FoamFile
{
    version     2.0;
    format      ascii;
    class       volScalarField;
    location    "10";
    object      omega;
}
// * * * * * * * * * * * * * * * * * * * * * * * * * * * * * * * * * * * * * //

dimensions      [0 0 -1 0 0 0 0];

internalField   nonuniform List<scalar> 
127143
(
1.528e+08
2.873e+08
3.278e+08
1.398e+08
1.173e+07
1.415e+08
4.635e+06
8.099e+06
1.294e+07
1.888e+06
6.817e+06
1.065e+07
3.857e+08
1.183e+08
2382
3.152e+05
3.958e+07
13.37
8.719
1.257e+05
24.83
2.853e+05
0.08465
376.1
3.073e+05
4451
2.309e+04
2.28e+04
1.552e+04
12.87
905.9
5019
2.514e+04
3450
0.04216
2.442e+04
102.9
59.37
254.9
8009
8.771
0.4451
0.3135
5.491e+07
13.07
2580
1.436e+04
23.91
384.4
303.5
1.983e+05
0.02531
33.82
0.1639
0.02092
1125
0.02091
0.6485
0.02219
0.1625
0.3059
9.256
105.2
0.02211
1164
0.4479
0.04437
119.2
117.6
0.08343
501.7
1.554e+04
13.07
0.02218
0.02179
1.578e+04
0.02271
58.56
1068
0.02222
1.569e+04
1.118e+05
964.8
4519
15.33
45.47
190.6
1.619e+04
0.3683
1313
0.0221
16.26
730
24.44
112.3
0.356
0.4045
1461
26.94
0.04389
0.02221
352.6
5979
12.45
41.94
28.5
137
0.08376
2.26
0.02132
1938
2.002e+04
46.11
10.91
0.02174
5.231
0.02291
0.02179
0.02262
1.152e+06
0.02134
945.3
134
0.1732
1.493e+04
9090
11.59
0.02334
81.32
1357
96.04
126.8
67.91
56.48
4.474e+06
89.65
0.05272
16.81
1.302e+04
0.0445
0.1214
0.02224
22.26
14.39
33.75
118.4
6.702e+04
0.02213
138.7
9300
22.6
347.4
91.31
0.06919
284.6
14.99
0.6475
1809
23.13
1742
508
3.737e+05
0.02211
94.95
3843
874.2
142
0.5451
2406
0.02583
3284
14.3
8.416
62.17
0.2711
88.84
76.1
80.4
295.6
0.0331
61.77
0.03371
72.15
85.31
1272
9.085
0.08051
10.2
320.8
0.03252
42.72
113.1
0.04844
261.3
8.206e+06
11.33
0.0194
0.01934
8.832e+05
0.02177
0.02169
0.02596
3.689
87.4
4.437e+07
159.3
0.04892
43.48
12.86
0.02174
0.735
19.76
0.02164
2316
178.8
9.14e+05
1.033e+04
46.89
69.33
0.04917
47.29
0.02184
359.7
37.42
2286
3613
2400
66.85
1070
16.39
27.39
0.03351
12.53
7.872e+05
26.86
0.08616
94.83
1.793e+07
0.02169
32.26
103.3
625.7
41.22
1691
106.5
9.128e+05
229.5
2.234e+04
6.814e+05
0.1007
4.848
3440
63.69
16.87
591.1
2.533
0.0233
1845
20.7
0.0513
11.63
0.02686
10.24
0.02219
78.66
741.5
459.9
593.8
0.6484
46.88
2079
0.268
17.28
33.08
72.36
40.18
44.6
259.7
0.5094
14.19
0.07114
0.6845
12.14
0.02175
0.02173
7.561e+06
106.5
0.02174
267.4
0.03462
92.88
0.2138
0.08571
12.98
0.02166
7.974
692
460.9
41.36
41.24
1175
0.4041
0.2955
4.253
2739
124.6
42.75
0.02164
12.31
42.43
149.5
3403
1255
0.05584
0.02172
679.3
39.33
1267
0.3337
2.224
0.07964
635.5
0.02839
64.21
709.4
46
0.03098
152.7
580.4
41.41
12.06
0.02173
0.0418
0.01941
0.01936
0.06769
2.191
8.363
12.1
126.2
0.04388
46.97
33.47
37.56
11.51
272.8
432.2
63.88
1021
118.6
859.6
8.319
104.1
39.23
0.02766
353.1
17.12
85.07
0.0235
585.2
13.3
92.91
19.43
300.1
286.5
0.02192
0.02176
1.416
1110
0.5104
1.067
0.02855
2156
326.4
0.03079
0.06808
545.1
6.186e+05
23.1
0.5328
26.18
5623
790.1
0.4039
0.02283
4.988e+04
0.03525
6722
11.79
30.69
0.02184
0.1922
1767
626.1
331.3
858.5
0.196
728.2
0.02759
0.02649
4224
0.02184
22.64
64.66
0.0361
34.11
35.57
66.74
0.02222
259.5
59.24
1193
0.122
19.91
106.8
104.7
39.56
2846
122.9
513.9
130.8
1.886e+04
245.5
0.07614
17.03
0.05799
0.2714
0.08218
508.7
0.05714
0.02115
243.7
130.6
12.94
180.4
0.02192
45.39
348.2
0.02498
0.02166
0.02172
259.8
0.05356
3.425
0.02375
1280
0.02172
672.9
1.506
19.68
25.53
583.3
29.46
1376
0.03576
73.77
1405
395.5
57.4
75.51
58.68
53.73
15.06
2.658
53.27
0.2027
0.02194
22.94
547.8
0.02078
19.39
5.969
0.1737
43.35
0.04343
0.02028
220.8
4.168
1330
50.49
1.852e+04
596.7
307.2
1234
28.95
177.8
67.84
0.02163
1277
0.02226
434.8
173.3
37.43
127.9
1.384e+07
118.1
2.372
0.1076
4.721
0.02166
1.929e+04
0.02197
64.96
10.98
2.017e+07
1.01e+06
3.276e+06
0.02194
330.2
297.7
0.02172
11.56
183.1
102.8
15.42
26.88
605.4
19.11
1.248e+04
0.1716
23.36
6.654e+05
670.7
1072
2675
0.02206
20.75
2.535
15.99
0.022
1778
9683
1688
0.01964
23.16
0.09165
6351
44.38
4423
14.45
0.02236
501.6
31.7
0.02081
0.4062
108.7
572.5
288.5
668.4
1555
11.49
102.3
386
98.31
217.8
0.02192
5365
76.46
1399
81.31
33.83
0.02212
0.02207
0.04918
475.9
9.163
0.02172
0.02923
12.99
1311
36.85
29.96
2721
1.209e+04
6.257
0.02234
0.02134
1626
24.85
115.9
0.0317
1.48e+04
61.83
182.8
0.5244
2591
0.02172
32.32
42.35
23.63
0.02728
515.9
11.6
8.1e+04
0.02026
130.1
9921
0.02171
33.87
0.02173
191.2
46.78
0.02175
790.6
495.6
1836
84.57
23.85
778.1
732.4
55.08
225.8
586.6
293.4
134.8
48.26
1771
0.02676
962.7
0.02173
7.429
0.02357
22.28
0.02116
0.02174
1.06
497.2
39.92
0.02136
0.02115
908
7621
663.8
1148
10.84
3.162
25.17
66.59
36.36
360.6
1437
0.02138
241.3
32.63
0.8753
33.74
0.0222
0.02918
53.15
8397
67.34
4.3e+04
0.0235
0.03824
131.9
276.9
0.02571
1091
0.1182
0.07899
691
20.19
31.4
0.09321
3.463e+07
3034
55
74.73
102.9
146.2
1800
358.8
0.02437
68.53
620.2
21.69
0.02121
243.1
0.3063
0.1779
0.01963
0.02119
4.442e+04
0.1083
609.3
113.4
336.9
12.28
0.7829
1727
0.08038
608.3
0.02162
0.02089
7.265
0.05971
844.7
0.1771
3700
10.33
822.5
0.32
19.98
0.03679
1314
0.04367
619.1
4.85e+06
70.55
91.45
21.56
0.02877
98.69
281.9
3.515e+04
10.5
13.05
36.16
7397
40.8
777.3
8.08
464
115.8
41.67
11.33
0.2611
7.471e+07
0.3053
0.02562
183.4
206.4
171.1
0.02154
172.6
8.421
36.22
0.04104
4.601e+04
209.1
2668
0.04639
426.1
131.9
320.5
134
0.03882
23.7
2516
805.9
17.68
0.02179
33.96
318
0.02182
45.69
1.578
131.3
115.9
0.3437
71.57
5371
362.8
0.01935
24.02
9.378
4917
996.1
0.1869
11.29
1290
0.01938
95.09
677.9
46.07
5.467e+05
48.37
1538
36.32
34.36
8.411
0.02193
5.587e+07
91.21
75.93
3690
40.71
394.2
182.6
403
0.02132
8.863
12.93
0.03887
242.3
425
139.8
130.1
0.02048
23.42
106.9
0.02163
0.02042
33.86
9.402
10.83
391.3
31.78
1.967e+05
19.79
0.1612
0.02123
45.58
119.3
773.2
2067
0.4783
0.05547
0.02196
1.956
1.77e+04
0.02125
0.2148
5183
101.7
4948
0.02626
30.82
105.2
0.0218
975.9
0.0212
306.5
1.857e+04
222.9
128.5
1.279e+04
0.02192
746.3
0.1038
1580
1256
1806
1.123e+04
0.1851
0.9066
1.295
8e+04
0.02178
69.16
1044
990.3
660.4
1.525e+04
0.05326
0.6911
1686
8258
4.345e+04
376.7
1.39e+06
603.2
2.557e+05
123.6
2977
8.999
3.43e+04
0.02266
163.2
0.02723
0.02656
21.16
0.02539
77.4
15.11
8.662
3.059
0.03841
928
201.1
0.02184
12.97
88.72
0.03698
873.4
1.514e+05
42.3
41.85
1980
15.82
609.3
0.02168
37.08
604.2
0.02329
655.1
76.03
8.919
0.02069
2.403
18.88
4.518e+05
12.11
1.531e+05
18.51
96.12
158
1.506e+04
361
0.02366
1.006e+04
0.279
0.02426
5.357
4.851e+05
30.45
705.4
21.19
8.529
2.941e+04
2.333e+05
381
0.02231
0.02183
41.41
16.63
162.3
666.4
46.75
5381
132
0.06512
5541
0.0468
7532
0.0216
25.38
3026
16.29
227.4
25
0.02177
0.0218
2519
0.1523
328.4
365.3
853.4
14.95
94.65
193.5
230.3
6.158e+04
29.43
1042
856.7
31.55
13.6
241.2
347.5
6075
1.783e+05
26.6
0.02154
0.02139
19.48
44.91
1.348
0.0208
77.63
25.51
1.278
620.6
70.92
455.9
2.32
0.02223
0.2729
1.347
1.448e+04
2718
142.2
0.2573
63.79
1017
354.8
54.51
9.326
144.9
185.3
142.3
6193
0.02306
1.742e+04
1.811e+04
9.2
74.85
2420
0.02174
4.593e+04
7.034e+04
0.02184
0.02154
42
34.13
6.497e+05
706.7
156.9
843.7
738.2
0.3409
0.683
0.02259
916.8
19.76
399.4
8.713
7808
61.68
0.02866
4.612e+04
219.8
0.02172
277.2
0.02539
0.02164
50.33
0.09116
4.649e+04
0.02157
966.8
0.02181
517.8
0.07767
12.59
17.83
912.3
503.6
825.4
77.98
0.05517
0.03717
16.38
281.5
418.5
536.3
1.474e+04
878.8
7.036e+04
95.67
695.4
680.8
487
5165
0.1148
9.422
0.04729
486.1
312.2
2446
0.06599
1264
13.87
125.9
208.9
46.31
2.373
1397
10.33
125.5
430.5
1380
1322
0.02105
45.52
480
0.0218
235.5
865.6
0.02066
5.931
620.1
0.03499
0.1193
19.8
117.9
0.1493
0.01977
226
270
0.02162
0.08999
0.0294
25.19
325
26.97
0.03501
3027
1.393e+05
887.9
363.7
14.64
3.44e+04
0.07816
202.3
0.02176
51.09
30.64
176.9
210.3
3972
9817
0.02196
6.662e+05
1975
1364
90.7
1582
9.969
10.75
3144
119.6
0.03215
1.342e+06
69.46
401.7
1664
254.3
423.9
103.7
7465
153.3
135.7
126.7
602.7
424.3
26.79
1.237e+05
0.1016
206.6
0.08918
991.4
0.0197
0.02165
43.65
4.437e+04
28.03
1.428
5.257e+04
1520
0.02179
6630
153.1
109.3
1.543e+05
6.281
140.8
1.349e+07
13.26
1.138e+04
14.17
124.2
5094
408.4
1671
32.04
315.9
0.07799
18.24
47.27
167
27.95
141.3
10.96
3.028e+04
20.12
0.2614
15.07
0.4171
0.5876
32.63
1.178e+05
0.03573
1.049e+04
3072
186.7
87.47
0.0218
11.68
54.32
1.225
5058
1515
2504
0.02135
613.2
3173
42.43
4.489e+04
106
8.939
1083
0.02189
1424
135.3
1.392e+04
157.7
0.06723
16.07
0.02169
1.649e+05
5.217e+04
67.09
0.8867
24.37
0.02086
0.01977
859.4
24.35
7.997
0.06849
0.0513
0.05234
4.823
46.82
11.55
259.4
322.4
5.354e+04
1.196
1941
203.9
329.5
0.01981
847.9
13.25
143.1
6.637e+04
107.4
9.283
138.7
92.21
28.69
2.07e+05
25.92
62.66
11.81
9.606
11.45
311.4
1.718e+05
0.1176
2614
0.02118
386.2
2016
0.02031
4668
77.32
103.7
627.3
0.02138
1.074
4.349e+05
0.02174
291.3
811.4
128.1
1.781e+04
1.185
11.77
1473
4556
98.45
214.8
0.0493
179
1.209e+04
1.756e+04
376.7
91.49
0.02169
203.9
8.804
1697
425.9
9.438
97.37
0.0217
7.224
321.1
0.02203
10.24
0.02255
6659
10.63
3.676e+04
244.5
37.84
1029
40.06
219.3
765.9
3.406e+05
96.25
213.4
37.14
27.11
16.83
0.02211
139.5
0.02204
12.88
0.022
13.68
0.02147
300.7
176.5
0.02066
0.02161
944.9
0.1541
1341
0.08867
0.02003
26.21
46.77
0.03089
3.475e+06
5126
3.608e+05
226.4
73.25
391.4
249.1
58.86
3.062
8380
30.78
2228
689.4
58.68
52.37
7.952
0.02155
3.379e+05
68.3
6900
0.02178
6.054e+04
433
445.8
239.6
0.01973
0.01971
14.03
29.08
5.853
10.53
109.4
1.604
0.8034
2.666
11.1
3581
95.78
0.7249
32.42
11.57
1284
1002
144.9
437.8
20.39
0.02189
286.9
370.9
1.805e+04
31.74
0.03522
143.4
1.277
187.7
117.7
1856
16.46
0.02174
33.58
103.3
8.551e+04
1.745e+04
1.378
89.38
1715
0.1356
0.01972
2444
487.8
3.128e+05
0.051
1.252e+05
167.8
0.02152
188.4
2016
10.26
0.09478
15.18
1320
102.4
76.11
38.72
3297
0.04064
783.3
1667
1099
0.05693
0.0568
539.4
16.95
3.02e+05
204.4
1392
1733
3.397e+05
1.458
464.5
0.02462
0.02175
0.0215
20.32
0.02303
9.468e+04
0.02172
1.181e+04
0.2587
108
216.9
1023
0.09458
3.235e+04
0.3366
760.9
21.81
1.528e+04
0.02165
148.1
942.8
18.34
1.575e+04
2950
37.17
2256
4976
0.04571
0.0206
1.448e+04
0.0731
0.01996
0.2684
1.279e+04
0.0206
4771
0.02184
28.25
118.8
13.99
269.9
0.02091
27.55
762.7
103.3
0.05708
30.59
0.1506
0.02173
0.02122
40.26
6.154e+05
72.33
139.9
0.02404
4.007e+04
0.404
0.07298
0.06097
3.08
215.2
836.4
0.02491
473.1
0.0222
42.94
0.02217
0.2248
304.7
46
6.025
1438
217.3
0.02119
50.56
3112
617.8
5.53e+04
1796
9.162
0.03371
9.678
5.388e+04
37.44
841.6
3.8e+04
0.07525
0.1271
0.02159
109.4
292.9
66.54
0.0218
844.4
0.02175
0.2024
224.4
0.02137
8.811
0.8496
99.92
15.6
1.063
429.3
0.0219
648
7908
11.72
8.42
232.1
0.04191
148.4
96.32
4807
198.8
93.03
1017
70.07
146.5
1.247e+04
0.07436
0.1335
225.8
0.03392
309.3
29.36
0.08277
122.6
0.02391
0.3612
6341
18.42
145.6
168.7
5.805e+04
103.6
1.794e+04
2.488
0.02066
1.801e+04
204.3
0.09224
452.7
0.02755
32.39
0.02223
10.33
1.105e+04
14.19
34.88
123.7
209.4
0.02187
107.5
0.2528
23.33
1869
0.02483
133.2
3404
0.02159
0.02501
141.8
0.07371
62.3
8.532
5.084
83.36
1.569
23.61
0.07103
3.698
76.35
0.02105
0.152
1516
5.915e+04
0.02086
493
1.69e+04
11.68
540.4
10.51
197.5
5.757e+04
0.0581
0.1116
217.3
0.02529
1256
43.36
29.29
6687
217.5
0.02443
206.6
8.88e+05
3.328e+06
174.9
253.9
214.5
2.166
19.38
26.94
34.5
1612
686.2
788.2
472.8
2.792e+04
30.59
5.031
0.0217
1923
4.989
52.29
0.1507
0.03876
217.5
186.7
8.648
0.02036
877.2
1786
116.2
420.4
17.4
6.264e+04
440.3
0.02617
277.2
2.314e+04
26.48
161
1.029e+05
0.01939
8207
2431
207.7
0.02752
28.47
12.73
1339
363.1
16.44
1996
0.03281
4.66
261.7
0.04953
13.24
0.02168
626.5
6667
187
2578
3.709e+04
32.91
2.155e+04
0.1076
2246
23.53
9.73
0.03501
9.79
60.57
23.24
152.9
0.06505
168.3
2.349e+05
6.279e+04
112.5
80.82
0.6906
0.7369
0.02185
0.02534
71
0.4108
0.02165
118.1
166.3
330.7
366.2
35.16
348
28.6
4847
6.685e+04
7.258e+04
0.0842
153.6
1.833e+05
10.69
6940
10.4
33.77
57.72
2.326e+06
20.34
31
0.04357
0.05453
1180
152.8
0.02173
0.02196
13.73
2004
17.19
166.2
3.854e+04
18.93
0.02381
1595
10.13
211.6
4992
1.474
6.98
33.53
114.2
2.196
111.7
0.02188
1904
8.919
1454
17.8
294.5
8018
8.59
1654
39.45
1594
178.9
6842
0.07336
12.62
77.82
37.14
801.3
243.5
1.332e+04
986.6
0.02165
318.5
10.55
1129
119.5
0.2641
13.58
0.08005
6643
0.04878
208
34.13
117.5
11.9
16.12
0.7199
6.426e+04
0.2124
0.02445
2087
0.02091
22.02
0.03051
2.689
10.76
0.02151
0.3649
281.4
4711
0.02176
0.02304
11.09
41.81
280.4
0.1502
49.57
91.1
1744
720.3
27.76
153.2
116.7
0.08914
143.6
6.628e+04
9.151
4482
577.3
9.787
5.701e+04
0.02172
0.0206
1.478
7.084
3.695e+05
0.02179
11.3
1670
3.356e+05
744
1002
0.01981
0.01954
489.8
123.1
97.73
216.7
0.03159
29.46
5.063
0.02222
1569
267.2
128.2
59.75
5914
8.598
8.929
0.01978
28.2
341.9
1449
792.6
100.6
1.722e+04
1443
50.88
152.2
459.8
118.6
0.06655
173
1.2e+04
0.02791
0.02657
609.5
296.1
1.383e+04
1.727
1345
157.1
0.1416
0.02173
22.11
0.02211
35.93
3.865e+04
41.54
0.1185
142.9
0.04426
2.439e+04
730.1
0.06566
33.17
30.26
140.5
36.52
193.9
134.4
65.59
40.3
65.28
38.55
12.99
2951
197.6
71.02
364.6
2.066e+04
221.3
1276
1354
3.195
2.144
51.19
2.101e+04
0.6906
188.9
0.02226
17.15
0.02214
186.2
8.397
2.138e+04
315.1
0.08134
3045
2.149e+05
2488
33.83
108.1
1563
5335
0.2643
39.67
57.24
1.375e+05
150
64.82
0.2782
0.2724
0.02174
16.32
1.703e+04
15.69
4194
12.24
0.07711
4120
0.01971
34.15
0.8761
18.86
2754
0.2083
8.295
8.508
0.03616
458.8
52.32
7.103e+04
2612
159.4
0.0214
68.78
120.9
1.174e+04
1287
65.79
7.959
73.01
0.02171
414.4
1408
12.48
82.86
30.41
5242
1059
723.7
108.8
0.8469
1.481
2.747e+04
9.567
0.066
9.239e+04
0.06783
20.78
0.02173
0.02199
116.7
0.02188
1845
143.7
43.28
16.32
1027
4546
163.1
1889
150.1
16.87
5.936e+05
39.32
118.2
2.178
2.315e+05
11.56
1.874e+04
2.283e+04
0.04346
1695
1016
12.83
14.3
1.228e+04
746.4
2929
26.26
44.08
0.02595
8.473
0.02206
1.152
13.82
1190
91.45
45.14
3.794e+04
14.98
0.02189
414.1
53.76
18.62
86.05
51.13
215.6
875.9
3025
1.612e+04
474.9
272.1
1923
109.3
405.8
0.06552
2.896e+05
359.9
123.6
1.76
0.02156
245.7
475.8
19.45
12.49
1.741e+04
1384
332.6
85.11
54.36
4303
0.02162
1.62e+04
9.489
0.03535
86.96
856.4
0.02166
269.4
14.15
44.46
2.272e+04
36.23
87.33
2.325e+05
48.33
245.3
0.01967
0.01961
237.2
90.56
11.04
672.5
149.9
0.02151
5969
1459
29.29
0.02173
0.02189
35.14
74.84
247
7.852e+05
1001
0.02846
824.4
7.174e+04
0.08087
758.4
390.5
0.1031
2.612
3132
34.93
59.27
0.01964
0.01949
0.01946
0.02021
0.07723
34.1
51.42
1110
19.58
494.7
33.31
1982
0.02078
102.7
71.72
7291
1600
9059
454.2
100.7
360
24.21
176.8
0.1014
131.2
4.4e+05
306.3
6840
0.2736
354
0.02173
2.413e+05
103.4
460.1
16.75
0.0304
6.595e+04
0.02179
104.5
1122
0.04218
134.6
136.3
15.51
218.1
1.433e+04
0.0384
1236
0.02066
5.154
121.2
444.9
18.58
181.6
0.0215
0.0217
0.1889
1603
1694
0.2286
18.44
153.2
9.923
6739
387.4
12.78
9.831
30.3
84.61
0.157
1.108e+05
0.2338
0.02173
1.537e+04
0.02171
0.02165
0.4655
0.1072
1.212e+04
16.98
2177
36.03
416.9
0.02187
0.08228
717.9
233.1
13.63
0.05469
0.1974
5.179e+04
7093
0.02213
1.333e+04
8800
3.72e+05
0.06825
11.58
13.23
0.07503
0.02329
11.49
245.6
4.719e+04
0.06723
843
2.548e+06
0.02174
470
3134
145.7
0.02178
1070
8.945e+04
1.47e+05
7.861e+04
0.8564
119.2
7.954e+04
0.04932
132.8
0.02153
17.39
1261
8.405
588.5
7.615e+04
0.2545
250.1
195.6
0.02225
0.02858
627.7
1613
10.42
1.587e+04
116.7
3.869
12.33
24.42
607.5
86.39
0.02175
38.54
36.5
237.7
661.2
368.9
589.1
589
1.003e+05
1.151e+05
1.426e+06
659.8
0.04594
1787
0.0244
1384
2634
0.02175
7.411e+05
0.02221
314.3
1.783e+04
4191
133.1
258
824.8
738.2
0.01963
6.548e+05
202.6
0.05798
11.58
208.2
1.143e+05
1.996e+04
2.295e+05
11.06
619.3
6397
16.01
0.06667
120.5
1.3e+04
0.02088
76.21
97.54
411.6
83.39
52.35
11.09
6142
158.7
217.4
1.823e+04
0.0731
3960
0.07714
91.15
375.7
0.02318
0.08221
79.28
958.8
374.7
9.635e+04
0.05588
0.02171
13.49
268.6
4746
42.38
7.971
0.01963
0.02859
1528
0.01994
566.3
519.3
0.06451
177.8
73.54
2.734e+04
1.027e+05
6.038e+04
0.03234
782.4
137.8
177.8
12.01
9.268
2.365e+04
15.55
1771
285.9
1.227e+04
212.7
6.104
4.914e+04
29.55
109.9
25.3
0.05149
93.64
0.2194
0.02182
54.47
551.2
86.82
227
72.69
1.881e+05
2.948e+05
10.37
2.179e+06
0.2737
0.6752
0.03034
0.04938
89.28
0.02221
777.6
8.62e+04
714.8
7479
42.85
28.85
320.3
107.5
13.27
826.3
16.78
8664
197.6
0.02577
223.4
112.8
0.02204
0.03716
2625
0.02185
225
246.4
281.1
23.3
4138
0.09633
37.02
0.03561
1010
2.091e+04
1198
99.27
0.02143
685.8
0.02154
0.4372
235
34.38
5.727e+04
222.6
771.9
9.704
3755
0.5128
0.2047
24.05
577.4
0.02083
15.65
0.02185
1318
2583
291.3
104.5
0.02157
959.5
417.6
103.2
5.813e+04
245.6
3818
0.02276
42.93
11.37
8.589
362.5
47.83
0.0738
3.044
0.1097
111.7
104.1
0.02069
0.02025
0.02205
0.03536
0.126
5561
753.6
0.02178
240.6
61.91
169.1
0.02194
183
0.05973
2621
0.09097
4.34e+05
128
3069
0.04341
0.0883
6.113e+04
0.02722
160.3
244.9
386.9
379.6
100.6
0.02181
262.9
796.2
55.92
120.1
38.48
19.34
36.62
131.7
1211
0.0215
17.68
83.69
7249
0.09372
0.02209
421.1
2181
23.53
22.09
33.66
995.9
0.04137
51.99
1137
10.87
373.8
111
0.02565
17.24
6.327e+04
75.52
334.6
7270
2.439
25.3
0.02166
0.02671
0.1166
0.0461
5.858e+04
172
0.02195
0.02237
117.5
3.039e+05
0.02194
27.81
2.157e+04
162.3
19.79
206
2674
106
38.87
862.7
1.143e+05
3157
0.02183
72.88
31.16
137.6
0.02139
0.5227
259.2
31.55
576.8
7.491e+04
7243
15.69
974.9
1.197e+05
9.727
1075
25.71
3.686
2.198
2449
4.161e+04
0.02157
307.4
136.8
0.02193
7483
17.12
2.933
0.06321
43.4
831.2
402.1
122
0.02168
0.02176
13.14
344.4
0.02001
28.64
0.0245
2773
10.61
16.55
547.9
2359
17.66
63.69
0.02139
7.324e+04
19.71
4512
563.1
0.06651
708.2
54.22
264.2
5.746e+04
7.962
5.368e+04
0.02075
0.02124
37.39
0.04592
0.02139
1.404e+05
209.7
476.6
6043
117.2
48.38
0.02801
1.362e+05
0.04004
140.4
0.02024
0.09225
128.5
56.65
64.09
39.57
8.881
1470
0.02046
60.7
6687
6805
9168
0.1201
58.21
34.84
0.02195
1498
421.3
0.8598
0.0415
164
5.911e+04
0.02187
0.0215
43.92
4199
10.86
2536
0.02206
9059
154.4
142.2
0.02208
0.06439
1139
334.4
3265
26.34
68.31
0.02044
839.4
0.03059
1133
9.584e+04
0.05671
248.2
11.06
1.418e+04
3.743e+04
1876
0.05187
0.02047
57.19
0.1496
0.02163
466
251.4
9.934
0.02033
0.06602
0.07112
0.02608
733.6
89.71
0.02173
858.6
145.9
2227
0.0258
0.02191
0.02163
0.05154
126.3
19.74
709.7
6.074e+04
3.597e+04
133.8
1.172e+05
5065
0.02278
5.176e+04
80.08
5144
8.928
0.1157
3.662
1.217e+04
1194
3444
622.8
0.05297
33.97
515.4
122
22.07
0.2103
394.2
0.1186
442.6
0.03607
42.18
42.29
27.96
0.1688
1151
1.127e+05
8101
0.02061
5.883e+04
46.06
0.01994
259.1
0.02181
2703
91.48
0.1187
477.3
533.5
0.0223
2.967
8.44
1.554e+04
0.0223
0.1267
1.586e+04
12.59
0.02157
3797
41.39
0.03064
0.1193
14.93
185.5
7.114e+04
674.1
90.33
10.56
1673
0.5531
0.02169
0.04034
633.5
122.3
113.5
0.02207
1.625e+05
228.1
60.94
342
47.26
89.32
0.02017
0.05659
744.6
214.6
0.03835
157.1
805.1
9.526
2.249
8.698
9.931
0.03651
8.41
60.32
94.79
41.15
0.02205
1998
0.1632
48.96
20.66
8.502
6921
88.43
4.131e+05
13.2
0.5123
0.2519
0.02118
16.91
49.21
4702
1879
227.8
487.8
3826
35.88
0.4121
83.86
686.9
1.036e+04
37.8
0.03719
1915
1.543
1704
30.8
10.11
31.81
238.9
0.02179
359.9
0.2457
0.02164
3.322
1908
1.285
2.814e+06
717.8
1337
0.02165
35.92
224.8
0.04895
25.42
41.92
4515
533.2
4257
0.02188
128.2
0.02065
8.458
339.7
713.3
19.51
790.3
2.1e+06
0.02148
0.02174
88.97
185.5
1535
3.926
117.6
879.2
20.5
14.58
0.02178
475.7
2892
0.06211
34.25
0.02156
171.1
0.04906
55.22
447.3
131.9
0.3173
2895
140.9
0.02522
723.1
161.3
0.7404
0.02146
0.02272
488
4617
49.02
8.134
98.3
16.8
186.5
50.82
0.0194
0.158
0.5704
1.148e+05
3704
2189
0.02134
662.1
150.2
3384
2210
2.486e+04
9.345
30.62
148
106.9
801.2
5338
22.8
0.0732
9.873
0.0301
2.109e+05
0.02231
13.94
572
64.7
14.64
690.6
59.41
1.55e+04
13
1077
38.75
12.29
468.4
1.111e+05
33.15
6.219e+04
3.374e+04
0.02174
6.883e+04
263.4
1762
3411
38.49
41.94
386.6
110.8
38.45
0.03531
14.45
17.47
123.5
33.43
86.3
0.4454
4.877
32.58
7.111e+04
52.46
1.148e+04
122.2
684.5
0.02027
883.4
94.43
5413
12.15
2.313e+04
376.8
340.1
0.07372
4448
0.06487
20.71
41.54
0.06768
1.562
26.09
51.7
211.9
418.3
33.01
201.5
46.08
2.275e+04
47.38
3.805e+05
0.035
38.91
282.7
9.206
0.04119
710
0.02173
0.02198
0.02173
64.52
161.6
1354
14.08
0.07622
51.14
0.03776
3.767e+05
3209
6.782e+04
251.4
0.05819
946.9
6897
0.07319
2564
0.02186
30.44
8.615
992.5
29.53
0.02128
0.02138
141.5
9.077
0.03641
7.271e+04
176.4
0.02095
0.0218
90.98
0.03069
747.2
1.264e+04
0.03089
16.49
870.8
562.4
471.8
7.606e+04
35.22
0.142
68.93
304.9
0.1192
394
77.75
1.642
824.2
143.1
2.207e+06
0.0263
142.1
1.165e+04
2014
0.02183
40.71
0.02176
12.33
55.08
98.7
35.72
334.3
111.3
0.1627
2110
3068
1184
1208
1015
73.7
16.74
107
357.1
27.45
485.8
0.02213
6.457e+04
2.053e+04
2328
64.83
27.06
2841
725.8
0.2816
0.3852
7.395e+04
188.3
0.0548
0.03164
0.0519
400.2
814.6
25.16
5211
80.56
0.03697
170.8
101
76.66
481.8
3.924e+05
1343
146.1
650.1
47.77
118.2
3753
72.88
15.02
9.405
2315
37.85
0.2388
65.07
807.8
0.08197
135.1
0.2671
15.19
7.513e+04
1245
0.02204
1001
13.54
2.846e+04
1827
0.02138
0.09299
843.4
0.02909
43.86
2451
949.4
9.231
0.02172
0.1852
12.81
17.67
0.08044
423.2
0.02077
682.4
29.06
630.1
637.4
82.99
85.49
458.3
916.6
0.1632
114
0.02181
1.014e+05
0.03416
0.03102
611.3
0.02178
32
11.11
1.349e+06
0.02196
114.3
215.4
567.4
388.9
0.2484
88.56
38.27
365.3
3928
41.49
0.07388
0.02196
473
694.5
21.55
89.33
1982
4768
0.8227
0.02113
60.62
296.7
1.561e+05
89.64
102.2
0.6597
230.2
0.0215
30.06
8970
1962
0.02197
0.211
1687
0.0198
116.8
2273
33.73
0.02195
0.022
8.236
0.02334
0.02013
0.02173
8.294
1449
2161
0.4681
162.1
18.12
16.51
0.02225
19.89
114.1
0.04204
0.6102
1851
13.49
0.02524
3104
58.54
7.917
6.458e+04
7.793e+04
0.02493
151.6
13.61
573.5
76.65
6729
0.02194
144.4
7.071e+04
10.96
656.7
0.8542
3305
74.92
201.3
29.01
2.848e+04
0.05201
2.212e+04
45.3
0.02545
0.02864
0.02006
389.1
31.84
4844
334.8
1.124e+05
0.07376
0.01942
203.7
231.9
0.07041
0.0218
1108
10.2
1841
56.73
2960
366.9
145.9
26.1
268.1
0.01972
3.591e+04
217.4
77.38
30.31
0.06971
0.02192
31.01
13.76
455.3
7344
68.18
0.0401
85.78
16.32
0.05741
0.02183
1788
203.7
9538
278.6
34.81
2.737
82.62
20.58
13.51
125.2
0.7766
0.1287
0.02192
87.32
2.852e+04
26.05
0.4341
8376
0.499
0.02168
16.83
0.02877
0.02203
48.07
0.01937
0.01932
9.025
0.02011
55.93
9.702e+04
594.2
12.06
0.1321
0.02113
0.02197
46.11
217.7
67.99
6.945e+04
17.72
0.03017
10.3
64.44
4336
1.905
0.02198
2.6
97.91
0.02203
0.02136
104.1
244.6
0.05072
0.02809
95.12
0.0213
1.623
0.02148
3.923e+05
2.808
1563
9.551
0.02726
0.4305
9.057
26.36
800.5
20.34
105.1
13.9
0.02214
4.835e+04
18.79
233.6
0.02191
803.8
426
133.4
1177
0.2347
556.3
25.41
0.1344
6119
0.02205
8.497e+05
38.7
2.972e+04
0.02197
248
0.02173
0.08659
10.09
1.316e+04
14.1
553
15.53
0.1131
3461
0.1275
3232
5456
8.241
0.08638
0.05449
638.7
0.02162
7.939
31.03
61.72
40.1
0.02175
1.906e+04
0.03423
415.3
1071
62.78
2010
1.395e+04
22.65
1160
122.6
1.446
21.28
0.4675
0.02172
0.02181
982.5
12
2.223e+04
74.4
157.4
0.02179
89.93
0.02179
0.02169
0.03176
417.2
0.104
14.92
0.03516
63.43
0.1816
91.27
291.2
2673
0.02523
460.4
379.7
126.9
0.1777
25.07
0.02187
114.3
0.4068
110.8
16.15
0.03376
249.6
1.499e+05
595
3119
32.67
3.969e+04
1914
4.817
94.44
2728
67.41
1.769e+05
743.3
35.54
85.57
173.9
53
2421
708.8
0.03898
27.42
0.09046
567.8
3.33e+04
113.2
3221
958.8
16.3
613.6
0.03329
251.9
54.7
8.16e+04
11.91
0.02244
27.21
19.77
169
0.05843
61.79
175.5
39.22
0.6205
451.4
82.44
1.466e+04
405.7
156.1
30.71
20.44
1680
0.02452
795.7
16.34
0.02353
114.3
116.2
597.7
926.8
280.8
0.02202
939.2
28.95
0.0816
2.949
668.3
2.507e+05
218.8
0.02084
0.0247
0.4079
526.7
91.48
0.0215
4.29
636.3
728.3
1.796e+04
0.02103
262
8574
83.36
1.927e+05
140.7
181.2
137.3
36.04
67.9
0.02321
112.9
7495
46.38
316.6
3.949
36.49
0.02166
0.07151
643.1
297.7
35.47
2452
137
0.0217
8636
120
0.1898
485.1
1.651e+04
2.663e+04
0.04223
0.1324
0.02448
130.3
7124
1022
2684
182
278.7
0.02181
90.23
4.782
9.145
1.168e+04
0.5714
6.954e+04
56.17
5336
0.033
199.4
3522
0.02169
160.8
207.4
214.6
10.54
0.0219
0.02169
0.03855
50.64
0.0217
12.49
2.457e+04
0.1105
23.22
641.3
0.03811
103
11.94
0.2677
4999
122
2.089e+04
95.97
0.02174
400.9
6124
0.0217
1.388e+04
10.49
151.3
61.45
775.1
40.86
437.4
14.47
12.16
0.02194
13.4
0.02178
0.05511
3004
147.8
87.11
69.89
1.879
285.5
0.02174
0.01965
0.05307
225.8
66.69
125.5
6.964e+04
16.84
0.864
526.9
0.9873
51.44
0.02135
1694
953.3
20.64
13.67
178.4
171.4
48.98
32.22
1.657
0.0224
122.9
23.36
141.9
4943
6.412e+04
754.8
0.02149
126.4
35.6
18.29
3.246e+05
0.02165
124.1
32.12
25.02
139.7
35.12
2.003e+05
138.5
51.09
933.1
8635
29.34
61.85
7222
4.143
0.02168
384.7
23.57
44.97
86.32
18.15
1.875
0.04488
1950
576.7
2480
32.69
1874
562
0.02171
349.8
48.92
101.7
14.34
0.01935
416.2
87.79
69.88
14.76
0.02133
847.6
13.28
14.4
104.7
217.1
171.3
63.24
739.6
649.7
0.01992
258.7
78.37
228.7
877.1
656.6
66.76
32.39
53.03
8.462
166.1
1414
6.597e+04
1369
560.1
3.757e+04
22.58
0.07729
9.055e+06
501.4
5164
0.03543
4855
4714
390.5
60.13
0.02192
2.756
0.02178
20.68
178.5
15.58
0.895
14.91
1487
42.97
8.445e+05
16.01
358.3
2419
6.052e+04
879.8
283.9
24.84
0.09025
523.1
15.01
7.68e+04
189.3
0.3766
0.7028
4461
3.15
0.022
0.0217
59.66
95.49
0.04037
0.02017
0.02185
1848
494.6
3.606e+04
0.02155
0.0307
100.5
0.01976
0.0199
880.3
0.05469
154.1
945.3
0.05342
4911
27.51
77.81
8.018
44.34
0.04959
105.7
27.6
2.56e+06
63.02
1209
3278
4017
12.79
0.03063
10.03
1476
0.02171
10.61
363.9
1348
5.204e+04
562.1
63.29
1796
0.02492
392.6
9371
291.1
121.4
151.8
0.07174
63.25
15.56
6427
167.9
215.4
0.04805
2304
1033
0.03571
32.26
0.06692
42.58
0.02646
6262
6.649e+04
0.02757
1682
176.8
0.1529
1226
116.1
0.02234
2.269e+04
169.1
229.7
1688
0.03382
18.45
2.027e+05
109.5
1286
14.81
29.61
7.908
32.27
194.2
0.05828
5.714
101.9
173.3
51.64
19.97
78.48
16.85
187.4
942.4
122.7
14.55
2.9
0.0218
0.09255
1337
26.56
0.01937
8.356
70.89
14.45
194.5
114.8
80.15
0.09607
1842
116.8
0.1084
77.54
197.9
0.07322
1631
0.04049
2152
9.262
0.1882
0.06555
10.4
1361
88.93
0.02093
165.6
959.5
312.2
0.1919
0.0219
11.81
583.3
1851
28.53
90.59
12.83
1708
13.29
28.44
8.96e+04
9.793
4.524
1.813e+05
1240
14.63
19.43
0.02204
4.659e+05
0.02203
51.25
164.6
365.2
407.7
474.6
7.81e+04
9.625
41.55
26.49
1.098e+05
1005
16.26
1.68e+05
2.168e+04
933
196.1
0.1858
1.689
18.17
143.2
0.02187
657.4
8.228e+04
0.04408
126.2
17.18
22.14
999.2
942.5
1.619e+05
4106
255.3
0.01954
0.01934
0.02178
1828
8008
0.5294
0.02158
0.1777
7368
24.06
1.79e+05
239.5
0.02207
1.55e+05
0.01939
5.235
11.95
0.03865
16.01
0.6288
4.274
0.05908
1065
27.58
100.4
145
9.504e+04
14.11
409.7
248.8
10.95
0.02213
2.534e+04
776
661.1
296.6
3301
551.7
347.4
0.05469
37.65
344.1
22.38
664.9
0.0291
1746
69.33
748.4
27.52
0.275
0.4122
0.02181
308.9
71.92
314.3
809.3
11.88
2436
34.57
25.5
11.64
317
0.1835
3145
240.9
212.1
31.43
0.06427
24.28
0.08956
107.7
18.47
265.3
12.87
616.5
13.57
33.51
679
0.2282
6090
48.43
0.6001
0.08692
1.427e+05
525.2
353.7
54.38
2.169e+04
0.02204
2.355e+04
1119
110.7
149.9
195
139.2
192.5
22.3
186.8
218.2
418.9
9365
0.07163
0.02186
0.02175
147.1
510
7.793
9.893e+04
350.3
3.484e+04
3605
141.2
6272
7.345e+04
24.22
890.6
1881
33.28
7.657e+04
0.02166
253.7
1197
1166
0.02157
1103
32.69
262
449.5
284.6
0.02168
13.02
307.7
2844
0.02089
500.1
10.81
0.1577
1.232e+06
0.03321
10.93
12.34
319
485.3
0.4455
23.71
6.456
515.1
1630
322.4
0.0194
16.45
2.629e+06
0.02515
0.02256
5448
3147
99.48
1627
0.06139
20.4
102.3
108.9
151.6
212.6
0.01999
32.14
9.686
0.134
0.02192
41.5
0.02121
3.277e+05
30.75
3.511
8.042
5.193e+04
0.02167
356.8
0.02
0.02216
512.7
0.4854
3792
9.175
0.04071
84.63
1183
37.28
48.35
59.98
695.1
360.9
1529
1159
1591
1.636e+04
3278
98.53
757.6
399.6
239.8
0.248
0.02113
0.02118
1.213e+04
16.95
987.8
1.71e+05
0.02179
842.4
1.088
0.02038
22.61
1.822e+05
8.49
890
1.006e+04
0.02206
1681
67.23
24.22
10.09
18.16
4802
303.5
0.02174
1.858e+05
5024
0.06271
0.02344
4407
463.7
1966
922.4
171.3
681.3
0.02169
658.4
0.02118
435.6
940.1
1.648e+05
0.01955
0.01936
0.1454
200.5
0.03095
20.13
6.199
20.85
43.67
145.2
392.4
0.0462
0.02723
7.134e+04
8.265e+04
159.9
1761
0.04685
1070
0.02213
170.6
4812
1892
8488
842
854.9
598.7
0.2927
19.52
48.17
0.025
0.02176
0.02174
14.3
273.5
2377
1.206e+05
434.3
0.02447
1398
2870
784.8
1.311e+05
57.82
2022
893.6
279.7
0.05474
8.592
14.84
1.143
0.08162
2514
41.59
77.07
35.6
1205
0.341
0.01974
6.957e+04
15.04
11.62
82.05
8.446e+04
17.52
0.02082
341.1
43.92
226.1
23.38
208
1354
4.231
282.4
12.97
0.06443
230.9
0.04402
0.07734
2.514
1291
41.15
3121
32.4
84.81
67.6
0.02844
182.6
547.8
0.2447
102.6
6.129
6.933e+04
0.03013
0.02378
206.6
198.4
202.3
44.19
12.84
8601
0.06538
0.02183
62.16
7139
0.02449
0.5762
104.3
0.0216
7.408e+04
0.054
75.05
121.5
169.1
1.608
1201
8481
9.535
0.05962
0.02172
27.97
86.72
234.5
20.82
0.02134
0.02019
0.02172
329.6
245.1
399.6
0.05377
2138
77.73
873.9
93.04
1795
0.6953
0.03021
1.51e+04
0.02186
2113
45.98
0.03007
166.2
248.3
1222
275.6
391.3
19.03
18.48
0.06945
8450
4471
6872
0.1739
0.7022
0.02169
7.487e+04
0.02159
698.8
6360
0.02213
13.46
143.3
911.2
0.08181
18.46
5.017e+04
23.19
0.02166
23.86
865.6
72.58
228.6
18.31
60.64
5.849e+04
11.13
0.02071
0.02258
4.21e+04
50.13
624
8.901
95.26
0.02117
0.02193
7.198
2.727e+05
6442
1098
551.2
2.693
503.4
5837
328.2
590.9
0.02189
1539
8.342
811.5
28.82
23.91
0.0216
1590
17.85
5.912e+04
6.2e+04
10.37
33.21
4.398
4064
0.02674
9.244
6.202e+04
1388
442.1
7141
2.527e+04
562.5
239.5
0.1147
2524
696.2
2488
90.5
0.02629
4118
2.547e+04
0.02172
512.1
1.36e+04
1103
2376
60.19
23.91
266.5
80.34
0.03339
172.2
0.02211
185
0.09709
5.583e+04
0.1197
1.574e+04
89.18
681.8
17.18
16.01
1624
10.94
316.1
2916
106.9
68.53
9.17
44
201.8
2505
66.23
0.0244
101
46.81
443.5
330.1
201.1
955.1
79.65
0.02499
89.54
8.855e+04
24.17
12.53
334.1
0.03972
66.97
0.02157
106.7
2.271e+06
3.325e+05
1487
45.62
76.4
0.02099
0.05291
32.8
41.18
131.3
19.67
0.0218
29.52
131.5
57.14
94.87
0.02166
2619
5777