/*--------------------------------*- C++ -*----------------------------------*\
  =========                 |
  \\      /  F ield         | OpenFOAM: The Open Source CFD Toolbox
   \\    /   O peration     | Website:  https://openfoam.org
    \\  /    A nd           | Version:  8
     \\/     M anipulation  |
\*---------------------------------------------------------------------------*/
FoamFile
{
    version     2.0;
    format      ascii;
    class       volScalarField;
    location    "10";
    object      p;
}
// * * * * * * * * * * * * * * * * * * * * * * * * * * * * * * * * * * * * * //

dimensions      [0 2 -2 0 0 0 0];

internalField   nonuniform List<scalar> 
127143
(
-0.2219
-0.2367
-0.2237
-0.2233
-0.4677
-0.2231
-0.5087
-0.4958
-0.4934
-0.2729
-0.3223
-0.5103
-0.2118
-0.2234
0.4967
-0.2207
-0.2272
-0.1072
-0.2283
-0.2276
-0.2187
-0.2112
-0.008414
-0.1444
-0.2112
-0.06532
-0.2527
-0.251
0.1978
-0.01813
-0.2125
-0.06416
-0.4164
-0.2187
0.108
-0.4166
-0.2301
-0.2167
-0.1446
-0.2207
-0.2286
-0.1491
-0.1254
-0.211
-0.1019
-0.2188
0.1934
-0.2312
-0.05108
-0.1682
-0.2212
0.01961
-0.2223
-0.1723
-0.0006539
0.01325
-0.0006086
-0.1315
-0.007552
-0.171
0.362
-0.2315
-0.1818
-0.00139
-0.2267
0.08065
-0.07741
-0.179
-0.1779
-0.0001555
-0.1677
-0.2526
-0.2227
-0.007886
-0.002127
-0.2513
-0.004314
-0.2311
0.008046
0.0008778
0.1825
-0.2269
-0.2187
-0.2177
-0.2226
-0.2317
-0.1319
-0.2959
0.08189
-0.4758
-0.0003565
-0.2008
-0.4485
-0.2187
-0.2194
-0.05187
-0.1459
-0.1824
-0.2274
-0.07457
0.0008013
-0.05271
-0.4662
-0.1045
-0.2316
-0.2274
-0.06733
-1.723e-06
0.2068
0.001622
0.4977
-0.296
-0.2187
0.3562
0.006444
-0.05576
0.01567
-0.00203
-0.004316
-0.2239
0.001646
-0.2187
0.1118
-0.1063
0.186
-0.08501
-0.2275
-0.03038
-0.2264
0.04385
-0.2257
-0.2187
-0.1489
-0.2309
-0.2276
-0.2254
-0.08882
-0.2185
0.2812
-0.1074
0.01605
0.01696
-0.221
-0.2185
-0.2223
-0.3345
0.3989
-0.001359
-0.2187
-0.5038
-0.1175
-0.03715
-0.2183
0.1289
0.426
-0.2218
-0.1326
0.09635
-0.2312
-0.1657
-0.2038
0.2139
-0.0004305
-0.2256
0.01939
-0.2266
-0.2308
0.2283
-0.3789
0.05899
-0.2104
-0.2185
-0.04835
0.04219
0.0005005
-0.2126
-0.3362
-0.2264
-0.1291
-0.004309
0.04267
-0.009526
-0.2157
-0.2122
0.04516
-0.2312
-0.03615
0.3468
-0.1474
-0.02395
-0.2218
-0.2224
-0.08602
0.08317
-0.2267
-0.2223
0.0001048
-2.933e-05
-0.2396
0.01156
-0.007709
0.06613
0.01561
-0.2301
-0.2222
-0.2025
-0.02837
-0.053
-0.01457
0.006402
-0.1846
-0.219
0.005791
-0.3816
-0.2248
-0.2271
-0.2108
-0.03715
-0.2188
-0.02987
-0.3215
0.001127
-0.03443
-0.2222
-0.1753
-0.2103
0.01988
-0.218
-0.2154
-0.2282
-0.2186
-0.01083
-0.2214
-0.2211
-0.2186
-0.0901
-0.2257
-0.219
-0.007904
-0.2215
-0.2224
-0.2301
-0.2172
0.09382
-0.2211
-0.2237
-0.03787
-0.2479
-0.2197
-5.352e-05
-0.2457
-0.1158
-0.006815
-0.2186
0.002086
0.1925
-0.02976
-0.4214
0.01573
0.1152
-0.2202
-0.01581
-0.1999
0.01725
-0.2239
-0.229
-0.2298
0.4345
0.3182
-0.2132
-0.04223
0.001742
-0.2303
-0.2215
-0.1897
-0.2218
-0.2187
-0.0687
0.002521
0.05705
-9.957e-05
-0.04988
-0.1045
0.006934
0.0003128
-0.2304
-0.221
0.006337
-0.07931
-0.003423
-0.2248
-0.006475
-0.08854
-0.03434
0.002719
0.2127
-0.1643
-0.2182
-0.2171
-0.213
-0.1109
0.04097
0.15
-0.05513
-0.1811
0.33
-0.05194
0.005935
-0.2246
-0.1218
-0.07606
-0.2173
0.0005495
-0.0001874
0.009419
-0.4223
-0.2196
-0.1219
-0.1839
0.001428
-0.007113
-0.1961
-0.05796
-0.007569
-0.4195
-0.2204
0.07863
-0.217
-0.219
-0.3271
-0.2308
-1.174e-05
0.1044
8.295e-05
-2.039e-05
0.1294
0.1979
-0.04771
-0.2313
-0.2204
-0.1044
-0.03924
-0.2217
-0.2218
0.474
-0.07931
-0.2188
-0.2194
-0.1027
-0.2296
-0.1071
-0.2336
-0.2116
-0.2218
0.07727
-0.2187
-0.2186
-0.3156
-0.001835
-0.2183
-0.2291
-0.1803
-0.2237
-0.1928
-0.1618
-0.0006175
0.01131
-0.003963
-0.2199
-0.0002105
0.4186
-0.05919
-0.1161
-0.1847
-0.02404
-0.1496
-0.1366
-0.2153
-0.2292
-0.0008967
-0.2261
-0.08422
-0.09456
0.04151
0.01498
-0.2202
0.04336
-0.2195
-0.2223
-0.2168
-0.008737
0.1801
-0.2117
0.006877
-0.1479
-0.1891
0.1762
-0.2102
0.07816
-0.01472
-0.1945
0.001035
-0.2186
-0.2159
0.0387
-0.101
-0.2315
-0.141
0.00239
-0.1292
0.1959
-0.07488
0.01547
-0.2319
0.1145
-0.2194
-0.2218
-0.04125
-0.219
0.1405
-0.2311
-0.2298
-0.2235
1.937e-05
-0.2282
0.06086
-0.1154
0.04796
-0.23
-0.01184
0.0009108
-0.2244
-0.2109
-0.2045
-0.2404
-0.0007238
-0.07283
-0.2187
0.01879
0.002976
0.00429
-0.1689
-0.08721
0.1967
0.04107
-0.1826
0.01132
0.3695
-0.003613
-0.2207
-0.2201
-0.101
-0.1011
-0.2206
0.1303
-0.228
-0.1029
-0.2326
-0.2306
-0.2175
-0.1484
-0.2256
-0.2185
0.347
-0.2257
0.0006387
0.0003722
-0.2196
-0.2192
-0.0003854
-0.2268
-0.1985
-0.1068
-0.2195
-0.03094
0.0001717
0.4585
-0.1956
-0.2226
-0.2214
0.2646
0.3786
-0.2215
0.00202
0.1972
-0.24
-0.2206
-0.007267
-0.1654
0.02756
-0.4064
-0.1334
-0.2226
-0.3315
-0.2227
-0.2262
0.4251
-0.1125
-0.1934
0.006678
0.261
-0.0004345
-0.2164
-0.2223
-0.2294
-0.2393
-0.2114
0.003197
-0.2186
-0.2547
0.009191
-0.2317
0.1142
-0.2303
-0.07594
-0.22
-0.09849
-0.2266
-0.2202
0.0004541
-0.2192
-0.2113
0.149
-0.1369
-0.2105
-0.008296
-0.1173
0.01259
-0.2178
0.002179
-0.1688
-0.489
-0.2149
2.641e-07
-0.2196
-0.07497
-0.2118
0.2168
-0.4221
-0.2195
0.029
-0.227
0.1354
-0.0004458
0.04059
-0.2146
-0.1613
-0.1941
-0.2192
-0.2321
-0.2222
-0.228
0.1323
-0.2323
-0.2244
-0.01475
-0.2229
-0.2221
-0.0785
-0.1225
-0.2209
0.002094
0.002449
0.1114
-0.2187
-0.1872
0.0104
3.245e-05
0.1294
0.1722
-0.2317
0.1977
-0.2315
-0.229
-0.008128
-0.003684
-0.001346
-0.2179
-0.2249
-0.009748
0.0003295
-0.2479
-0.1338
-0.2198
-0.002812
-0.09222
0.01045
-0.2316
-0.2187
-0.2197
-1.061e-06
-0.2322
-0.2202
0.2106
0.0001684
-0.06773
-0.2101
0.004236
-0.1008
0.009304
-0.1872
-0.2216
0.006859
-0.2186
-0.08896
-0.2186
-0.2211
-0.2209
-0.1066
-0.09405
0.4769
-0.1467
-0.4374
-0.2178
-0.2124
-0.2241
-0.1529
0.0003681
-0.02634
0.007953
0.4697
-0.03125
-0.2209
0.0009491
0.006539
-0.1352
0.1447
-0.2186
0.0003058
-0.001306
-0.2156
-0.3252
-0.2187
-0.1561
-0.225
0.1968
-0.2203
0.1955
-0.2218
-0.2245
-0.2293
0.0002984
-0.2339
-0.2216
-0.05211
-0.2114
0.0007704
1.84e-05
-0.2209
0.2796
-0.2214
-0.2105
-0.03026
-1.779e-05
-0.2286
-0.226
0.06341
-0.2239
-0.04518
0.008729
-0.2264
0.002265
-0.2216
0.1252
-0.2115
-0.2106
-0.2306
-0.228
-0.221
-0.2216
-0.09078
-0.2214
0.02786
-0.225
-0.2139
-0.2185
-0.001435
-0.06912
0.09915
0.3398
-1.078e-05
-0.001418
-0.2287
-0.1119
-0.04461
-0.2218
0.29
-0.2236
-0.1909
-0.1764
0.2624
0.01633
-0.006845
0.0007175
-0.2619
0.05373
-0.2198
0.337
0.1527
-0.2284
0.1492
-0.1816
-0.2301
1.819e-05
-0.2074
-0.03312
-0.007784
-0.2297
-0.07218
-0.2228
-0.229
-1.207e-05
-0.1215
-0.1554
-0.2211
-0.2282
-0.2182
-0.2218
-0.5069
-0.222
0.2588
-0.2325
0.001092
-0.1221
-0.1205
-0.2275
-0.02728
-0.2202
0.1009
0.0594
-0.01757
0.1769
-0.1228
-0.003842
-0.2142
-0.2355
-0.2319
9.458e-06
-0.2106
-0.2233
-0.09741
-1.701e-05
-0.2213
-0.2156
-0.2199
-0.2244
-3.486e-05
-0.2314
-0.2116
-0.2198
-0.2187
0.01281
-0.2217
0.4971
-0.01464
-0.04609
-0.0141
-0.2217
-0.2265
0.04108
-0.06912
-0.09112
-0.2299
1.971e-05
-0.2315
-0.2332
-0.1993
-0.07299
-0.1757
-0.2317
-0.2322
1.461e-05
-0.2306
-0.2262
-0.221
-0.2205
-0.2209
-0.2152
-0.2193
-0.216
-0.002884
0.003149
-0.2118
-0.2231
-0.221
-0.2197
-0.2313
-0.2305
-0.2301
-0.1669
-0.00131
-0.2358
-0.09734
4.618e-05
-0.2286
-0.4036
-0.07509
0.104
0.0002422
-0.2203
-0.2121
-0.00702
0.000238
-0.2092
-0.2314
-0.2251
-0.2293
-0.2315
-0.2262
-0.08931
0.2351
-0.001531
-0.2283
-0.2308
-0.2047
-0.1813
0.2278
0.0001802
-0.008152
0.01447
-0.2552
-0.001585
-0.1739
0.3118
-0.09566
-0.08014
-0.0003817
-0.2166
-0.1024
0.001584
-0.103
-0.0009373
0.2439
0.5042
-0.222
-0.2224
-0.2239
-9.531e-06
-0.2194
0.1295
-0.1694
-0.2148
-0.08968
-0.3453
-0.1747
-0.03218
0.1669
-0.06951
0.00289
-0.2147
0.07182
-0.3508
-0.2139
-0.07118
0.0002005
-0.1022
-0.2177
-0.003427
-0.2301
-0.2784
0.489
-0.3175
-0.3149
-0.2186
-0.2209
-0.2314
-0.199
0.003325
-0.08254
4.859e-06
3.549e-06
-0.2208
-0.03369
-0.2223
-0.2102
0.3708
-0.1205
-0.04602
-0.4422
-0.01209
-0.008284
-0.2371
-0.2319
-0.04426
-0.2187
-0.2285
-0.2214
-0.02834
0.4944
-0.2187
-0.2281
0.00624
-0.2228
-0.007675
-0.001901
-0.2189
-0.2228
-0.2295
-0.0003755
0.0003437
-0.23
-0.2262
0.1035
-0.2287
-0.2248
0.1886
-0.02035
-0.2104
-0.2296
5.021e-08
0.2902
-0.1632
1.274e-05
0.1723
-0.2122
-0.2192
-0.2757
-0.1913
-0.06315
-0.2104
-0.175
-0.1291
-0.002929
0.004946
-0.03755
0.2249
-0.232
-0.2186
0.255
0.1592
-0.2154
-0.1282
0.158
-0.1154
-0.2343
-0.003855
-0.2319
-0.2195
-0.2191
-0.2212
-0.2252
0.006009
0.01597
-0.2221
0.02986
-0.2235
-0.09278
-0.2253
-0.2273
-0.2206
-0.2451
-0.2273
-0.08483
-0.2216
-0.1959
-0.2241
-0.09869
-0.2315
0.08271
-0.2318
-0.2193
-0.2115
-0.2253
-0.003762
-0.00282
-0.2312
-0.2257
-0.05188
0.0002333
0.2179
-0.2204
-0.1443
-0.2295
-0.221
-0.2275
-0.2066
0.002466
-0.03157
-0.164
0.1263
-0.1883
-0.2131
0.2069
-0.2152
-0.2205
-0.1481
-0.1684
-0.23
0.2077
-0.112
-0.2313
0.1732
-0.003856
-0.2299
-0.2105
-0.2329
-0.2211
0.4973
0.002462
-0.219
-0.03665
-9.348e-05
-0.001482
-0.2228
-0.2187
-0.2119
-0.2161
-0.07979
0.1244
-0.2317
-0.03874
-0.07795
-0.002277
-0.2315
-0.223
-0.2316
-0.02128
-0.2111
-0.2317
-0.0002223
-0.09192
-0.2166
0.003105
-0.2215
-8.701e-05
0.005134
-0.0861
-0.01666
-0.2263
0.002995
-0.1021
-0.001039
-0.4192
-0.02477
-0.2388
-0.1072
-0.03604
-0.07739
-0.2267
-0.1134
0.000639
-0.01743
-0.2193
-0.0481
-0.2301
-0.2309
-0.2071
-0.231
-0.2282
-0.2212
0.02704
-0.2554
-0.1253
-0.09527
0.1069
-0.2391
-0.0008385
-0.2196
-0.2121
-0.05456
-0.0001597
0.3528
-0.2216
-0.1416
0.0299
-0.222
-0.08966
-0.219
-0.2209
-0.1409
-0.2132
0.02585
-0.215
-0.0002014
-0.1796
-0.2199
0.0008924
-0.219
-0.225
-0.0001166
-0.01152
-0.2108
-0.03507
0.09351
-0.2184
-0.2199
-0.04861
-2.669e-05
-0.2186
-0.2238
-0.008132
0.05668
-0.03489
-0.2207
-0.2194
-0.05194
-0.0451
-0.2109
-0.2107
-0.02355
-0.06815
-0.2283
-0.2006
0.0002113
-0.1305
-0.001441
-0.2262
0.2607
-0.2203
0.02724
-0.214
-0.2212
0.003012
-0.2104
-0.2282
-0.2233
-0.1537
-0.4172
-0.2228
-0.2306
-0.1785
-0.08742
0.1089
-0.2105
-0.2254
-0.2014
-0.02449
-0.0771
0.3293
-0.2185
-0.2274
-0.05865
-0.2312
-0.2228
-0.09806
-0.1292
-0.2174
-0.2313
-0.1043
-0.02181
-0.0747
-0.06012
-4.795e-07
-0.002804
-0.2201
-0.2133
-0.2321
0.001307
-0.219
-0.2269
0.00562
-0.3396
-0.087
-0.2224
-0.224
0.04861
-0.2281
-0.2121
-0.2341
-0.2301
-0.2297
-0.09827
-0.2252
-0.08
-0.1584
0.1848
-0.2209
-0.08844
-0.2056
-0.2143
-0.2255
0.004354
-0.1868
-0.2272
-0.2119
-0.2282
-0.06098
-0.2212
-0.1371
-0.1897
-0.06362
-0.2314
-0.006912
-0.2643
-0.2237
-0.2302
-0.2311
-0.001181
-0.231
-0.2222
-0.1944
-0.2312
-0.006724
-0.1621
0.001727
-0.0409
-0.2105
-0.2188
-0.07126
-0.2289
-0.2337
-0.2253
-0.0157
-0.2222
-0.2324
-0.3456
-0.2197
0.007224
-0.219
0.001856
-0.257
-0.027
-0.2316
-0.03236
0.01378
0.00015
2.129e-05
-0.2116
-0.2224
-0.2334
-0.1496
-0.0003055
-0.0003123
-0.1904
-0.2219
-0.2228
-0.2413
-0.09854
-0.1115
0.03292
-0.09903
-0.2223
-0.2301
4.755e-05
-0.2086
-0.2272
0.006921
-0.08059
-0.2166
-0.2257
-0.2299
-0.1802
-0.2192
0.2493
-0.2268
-0.219
-0.2285
-0.2241
-0.147
-0.0688
0.1646
-0.1683
-0.2123
0.001371
-0.1539
-0.4852
0.0001052
-0.2216
-0.05478
-0.232
-0.06193
-0.00243
0.06948
-0.2072
0.002733
-0.1913
-0.2275
-0.14
0.4519
-0.02897
-0.1146
-0.2103
0.02244
-0.2303
-0.2209
0.1709
0.003762
-0.2253
-0.3137
-0.2775
-0.2264
-0.003187
-0.2459
-0.2325
-0.1802
-0.3758
-0.232
-0.2283
-0.002355
-0.07393
-0.2318
0.0019
-0.2287
-0.0001066
-0.5062
-0.2255
-0.2175
-0.2322
-0.222
-0.3262
-0.2187
-0.1659
0.06479
-0.3235
-0.2215
-0.2276
-0.2212
-0.2186
-0.2304
-0.000307
-0.2133
0.003541
-0.227
0.003931
-0.2208
-0.002576
-0.263
-0.2268
-0.0001593
0.004652
-0.2165
-0.1785
-0.224
-0.01419
-2.975e-05
0.1857
-0.2194
0.08349
-0.2122
-0.2274
-0.2233
-0.08623
-0.1218
-0.1028
-0.05057
-0.2196
-0.1956
-0.2094
-0.2163
-0.2319
-0.224
-0.2217
-0.2245
-0.2342
0.002778
-0.3208
-0.22
0.1346
0.004657
-0.08535
0.1214
-0.08785
-0.2181
5.117e-05
5.563e-05
-0.1716
-0.2225
0.01787
-0.2305
-0.09548
-0.01677
0.304
0.001142
-0.08539
0.0738
-0.2465
-0.04079
-0.2203
-0.1526
-0.2249
-0.2208
-0.03972
-0.09033
-0.2296
-0.01587
-0.2124
-0.2105
-0.06712
-0.2215
-0.03612
0.002477
0.004546
-0.1069
-0.2107
-0.2265
-0.1652
-0.002412
-0.2273
0.08801
-0.08853
0.4019
-0.05276
-0.223
-0.2282
-0.1745
5.236e-05
-0.328
-0.2191
-0.2196
-0.09546
-0.2272
-0.2225
-0.004024
-0.2304
-0.2203
-0.2245
-0.07502
-0.2185
-0.2112
-0.08137
-0.2287
-0.2222
0.2883
-0.009078
0.3141
-0.2208
-0.1564
-5.492e-05
6.146e-05
-0.1239
-0.255
-0.4522
-0.3664
-0.1417
-0.1941
-0.3178
-0.001237
-0.2294
-0.02107
-0.006343
-0.003234
-0.23
-0.0004061
0.0944
-0.003091
-0.4502
0.02349
0.247
-0.2626
-0.1882
-0.0002519
0.4947
-0.1843
0.1915
-0.224
-0.2187
0.002418
-0.2196
-0.231
-0.2246
-0.2161
-0.2109
-0.2302
-0.4048
0.2619
-0.05143
-0.000331
-0.2225
-0.0002749
2.554e-05
-0.004447
-0.2104
-0.0003466
-0.2074
0.00148
-0.221
-0.2221
-0.2197
0.134
0.0006368
-0.232
-0.2188
-0.2192
-0.08702
-0.08748
0.04484
-0.0009128
-0.0009232
-0.2224
0.4943
0.03687
-0.08505
-0.03475
-0.2316
-0.05259
0.03941
-7.81e-05
0.07834
-0.2295
-0.167
-0.03842
0.1533
0.02677
-0.2219
0.002777
-0.02276
0.1147
-0.2194
0.305
-0.008965
-0.2197
-0.001449
-0.2214
-0.144
-0.2319
-0.08537
-0.08613
-0.2287
-0.03326
0.1318
-0.1247
-0.2221
-0.3828
-0.222
0.000155
-0.1688
-0.005818
-0.2325
-0.03262
-0.2273
0.005026
-0.2187
-0.002586
-0.1021
-0.2311
-0.001816
-0.2299
-0.1594
0.1875
-0.2187
-0.00243
-0.1298
-0.001084
0.02966
0.2432
-0.04789
-0.2305
-0.06484
-0.008572
-0.2242
-0.212
0.3652
0.1863
-0.2169
-0.1038
-0.2202
-0.2259
0.445
-0.1077
-0.1642
0.157
-0.009009
-0.08811
-0.2211
0.2584
-0.107
0.04257
-0.0007345
-0.2104
-0.2334
-0.2139
-0.232
-0.05027
-0.2311
-0.1124
-0.08344
-0.0003558
-0.1108
-0.05329
-0.08255
-0.1082
-0.008247
-0.2214
0.002039
-0.2217
-0.07311
-0.2211
0.2494
-0.03959
-0.05253
0.004006
-0.0918
0.2661
0.1852
-0.2845
0.01994
-0.1475
-0.0946
-0.004229
0.03336
-0.2109
0.0001881
-0.2256
0.01073
0.004306
0.2525
-0.07111
-0.2173
0.0002594
-0.1982
-0.2216
-0.0002091
0.09007
-0.3489
-0.221
2.926e-05
-0.2313
-0.1993
-0.2231
-0.2627
-0.2325
-0.1302
-0.221
0.00013
-0.0004459
-0.2108
-0.03396
-0.2217
0.2678
-0.2206
-0.1985
-0.2203
0.02606
-0.2295
-0.2225
-0.2646
-0.2178
-0.2106
-0.2192
-0.1396
-0.2287
-0.1269
-0.216
-0.2211
-0.2119
-0.2125
0.1903
-0.2313
-0.2255
-0.09719
0.009913
-0.3821
-0.1262
-0.2243
-0.1354
-0.07177
-0.03989
-0.2179
-0.235
-0.0001339
0.04287
-0.08464
-0.2204
-0.2233
-0.2239
-0.05148
-0.0246
0.02173
-0.2187
-0.2099
-0.2187
-0.07354
-0.1175
1.431e-05
-0.3365
0.4931
-0.1028
7.628e-06
-0.2313
-0.2317
-0.1448
-0.2211
-0.2223
-0.1355
-0.0002053
0.2773
-0.06344
-0.03223
-0.222
-0.01062
-0.1305
-0.4772
-0.157
-0.219
-0.446
-0.2269
-0.09208
0.0003102
0.165
0.1057
-0.2278
-0.07308
-0.2241
-0.1333
-0.2235
-0.1448
-3.726e-05
-0.02681
-0.1749
-0.4476
-0.2304
-0.2244
0.02347
0.1397
0.01319
0.04721
-0.2278
-0.04996
0.001989
-0.1131
-0.1396
-0.1142
-0.218
-0.03239
0.03152
-0.2197
0.2617
-0.2281
-0.2105
-0.07133
-0.05978
-0.1778
-0.2301
-0.211
-0.2373
-0.09433
-0.1988
-0.2209
-0.19
-0.1384
-2.155e-05
-0.08494
-0.2203
-0.2285
-0.0004603
0.004045
-0.2261
-0.07565
-0.2197
-0.05681
-0.1967
0.4641
-0.007349
-0.1408
-0.2274
-0.2235
-0.09921
-0.1922
0.02218
-0.222
-0.2199
-0.07574
-0.2217
0.0003814
-0.2199
-0.2278
-0.08728
-0.214
-0.07761
-0.2187
-0.0207
-0.1375
-0.2196
-0.2209
-0.1432
-0.2105
-0.03445
-0.2314
-0.2315
-0.2294
-0.2194
-0.2214
0.4437
-0.232
-0.009442
-0.2157
-0.2348
-0.07801
-0.0514
0.000387
-0.2181
-0.1549
-0.2226
1.303e-05
-0.2269
-0.2196
-0.2183
-0.2236
-0.2191
-0.1865
-0.2247
-0.08527
0.01086
-0.2316
-0.0005489
-0.226
0.07852
-0.08418
-0.2248
0.001646
-0.08142
-0.186
-0.2105
-0.001841
-0.02805
-0.2232
-0.1289
-0.2553
0.009897
-0.2211
-0.217
0.01041
-0.1597
-0.2277
-0.255
-0.2204
-0.09668
-0.1217
-0.2135
-0.23
-0.4878
-0.1719
-0.2274
-0.0515
0.009664
-0.0003444
0.129
-0.1826
-0.2951
0.005652
-0.2195
-0.232
-0.4837
-0.2277
-0.03961
-4.361e-06
-2.032e-06
-0.1236
-0.2203
-0.2125
0.425
0.09801
-0.2184
-0.09765
0.002584
-0.135
-0.01138
-0.07899
-0.2131
-0.1553
-0.129
0.0504
-1.187e-05
-0.09776
0.05019
-0.03825
0.06128
-0.2189
0.3685
-0.2115
-0.2221
-0.1722
-0.22
-0.2185
-0.04164
-0.2859
-0.2292
1.723e-05
2.178e-06
-0.2315
-0.2241
-0.1903
0.1993
0.204
-0.2219
0.0004154
-0.001235
0.2086
-0.00155
-0.2198
0.02103
-0.3202
-0.04564
0.008419
-0.01524
0.345
-0.4123
3.641e-05
-0.09822
-0.07031
-0.08578
-0.2192
0.1273
-0.2192
-0.2211
-0.2194
-0.2318
-0.1112
-0.2304
0.1439
-0.02795
-0.2189
-0.2104
-0.4424
-0.2171
-0.2143
-0.2317
0.3341
0.1988
-0.03784
-0.07164
-0.08024
-0.2246
-0.02044
-0.2254
0.002058
-0.08927
-0.2327
-0.07301
-0.2252
0.05058
-0.2235
0.1759
-0.1814
-0.2193
-0.08898
-0.1773
-0.2675
-0.0003665
-0.2189
-0.1961
-0.2268
-0.2255
-0.2304
-0.1434
-0.03064
0.006154
-0.2194
0.09458
-0.07645
-0.2141
-0.2229
-0.155
-0.2355
3.123e-06
-0.2206
-0.07494
-0.2226
0.237
-0.1217
-0.002146
-0.2303
-0.0021
0.1568
-0.1106
-0.219
-0.2251
-0.2144
0.00206
-0.2306
-0.2086
-0.2211
-0.3985
-0.1395
-0.2334
-0.2223
0.01111
-0.03135
0.2265
0.203
0.2511
-0.2212
-0.2229
-0.1386
0.1282
-0.3484
-0.1914
0.4411
-0.2104
-0.2375
-0.1478
-0.2322
8.725e-05
-0.2036
0.01041
0.002343
-0.3326
-0.01571
-0.2273
0.02814
-0.2125
-0.2192
-0.1086
-0.2252
-0.2296
0.4041
-0.2249
-0.2193
-0.2163
-0.2191
-0.2263
-7.219e-05
-0.2194
-0.2219
-0.2301
-0.223
2.678e-05
-0.2248
-0.1435
-0.08025
-0.221
-0.2105
-0.4412
-0.2305
-0.2237
-0.2191
0.03349
-0.2332
0.003798
-0.006058
-0.2217
-0.2104
-0.2288
-0.2234
-0.2032
-0.2272
-0.01117
-0.2204
-0.2232
-0.2207
-0.1153
-0.2188
0.4881
-0.07534
0.1513
-0.09112
-0.2321
-0.1568
-0.2106
-0.2265
-0.2315
0.156
-0.2167
-0.2223
-0.09958
0.1929
0.001772
-0.2481
-0.2198
-0.2286
-0.07563
-0.09172
-0.219
-0.3568
-0.2133
-0.2201
-0.4922
0.00242
-0.2189
-0.229
-0.07754
0.04137
0.05344
-0.01004
-0.2188
-0.2234
0.03123
-0.452
0.07029
-0.2216
-0.2754
-0.2297
-0.1169
-2.602e-05
1.735e-05
-0.1566
-0.2217
0.05748
-0.2626
-0.1655
0.002356
-0.223
-0.03095
-0.2211
0.001754
-0.01069
-0.2222
-0.2199
-0.1627
-0.4387
0.01733
-0.0007612
-0.1581
-0.225
-0.0213
-0.04952
-0.1875
8.7e-06
-0.06354
-0.2303
-0.2199
-0.2166
-1.106e-05
-5.48e-06
-1.651e-06
-1.078e-05
-0.07403
-0.2168
-0.03831
0.1734
-0.08889
-0.218
-0.2186
-0.236
1.116e-05
-0.2186
-0.2303
-0.2118
-0.2236
-0.2105
-0.2132
-0.1083
-0.093
-0.2206
-0.1718
-0.05198
-0.104
0.3552
0.005653
-0.1236
0.3564
0.2452
-0.001346
-0.22
-0.224
-0.01661
-0.1367
0.05632
0.1755
-0.001948
-0.2292
-0.2231
-0.0002955
-0.222
-0.232
-0.2188
-0.2146
-0.2249
-0.06717
-0.2294
0.0003032
0.2133
-0.2145
-0.2321
-0.2319
0.176
0.002743
-0.01074
-0.1768
-0.2122
-0.2247
-0.04668
-0.2193
-0.2248
-0.0695
0.4393
-0.09266
-0.2204
-0.2298
-0.2185
-0.2304
-0.09612
-0.1958
-0.03433
0.008013
0.1468
-0.003803
0.002379
-0.1857
0.0005506
0.4085
-0.2289
-0.1724
-0.2318
-0.04641
0.004574
-0.09865
-0.2133
-0.06968
-0.2246
-2.517e-05
-0.005245
-0.4618
-0.2256
0.003699
-0.2435
-0.2239
-0.2106
0.0001574
-0.2223
-0.2182
-0.04283
-0.02075
-0.2238
-0.3602
-0.5156
0.1493
-0.1073
-0.2117
0.0001907
-0.05495
-0.2245
-0.1764
-0.002092
-0.102
-0.4921
-0.193
-0.01101
-0.1088
-0.223
-0.2017
-0.05202
-0.2307
-0.002906
-0.2197
-0.2577
-0.2326
-0.219
-0.01133
-0.1816
-0.2146
0.1575
0.003646
0.002971
-0.1856
-0.2187
-0.2329
-0.2105
-0.2221
-0.09045
-0.2315
-0.2206
-0.2183
-0.2323
0.002104
-0.2229
-0.2223
-0.06546
-0.2308
0.2187
-0.1663
0.497
-0.232
-0.2309
-0.2098
-0.1526
-0.05227
0.2072
0.04715
-0.09873
0.1855
0.006566
-0.4878
0.001826
-0.2313
-0.2204
-0.2216
-0.2178
-0.3828
-0.2273
0.3146
-8.004e-06
0.4593
-0.2318
0.0002098
-0.2311
-0.2175
0.3553
-0.1226
-0.2228
-0.2223
-0.01361
0.04203
-0.2185
0.1527
-0.09377
-0.243
0.0007014
-0.2317
-0.1039
-0.2106
-0.1648
-0.2165
-0.2219
-0.1124
-0.07565
-0.00879
-0.02847
-0.0007693
-0.1083
0.08656
-0.06881
-0.2311
0.001231
-0.1624
-0.07439
-0.2205
-0.2221
-0.2321
-0.0002253
0.006809
-0.1087
-0.06766
-0.2755
-0.2302
-0.2334
3.972e-06
-0.05782
-0.05458
8.044e-06
-0.2274
0.005525
-0.03533
-0.2189
-0.2162
-0.2261
-0.232
-0.1223
0.086
-0.146
-0.231
-0.2223
-0.2247
-0.2262
-0.2186
-0.2317
0.04219
-0.06568
-0.2257
-0.2124
-0.006994
0.1171
-0.2178
-0.1731
-0.2202
3.059e-05
-0.0773
-0.1734
0.007449
-0.0737
0.2521
-0.2242
-0.3005
-0.146
-0.2254
0.1721
-0.2252
-0.2112
0.0003643
-0.1886
0.07537
-0.1142
0.06423
0.00252
0.2918
-0.2249
-0.232
-0.2292
-0.2137
-0.2209
0.0883
-0.2198
-0.2313
-0.2242
-0.2206
-0.3163
-0.2204
3.246e-05
-0.2237
-0.2117
0.001307
-0.04204
-0.1528
0.001187
-0.2294
-0.2192
-0.06362
-0.03796
-0.1176
-0.0002417
-0.2213
0.004091
-0.01942
-0.2187
0.1666
-0.08026
-0.002358
0.1172
-0.005865
-0.1455
-0.228
-0.2161
-0.09756
-0.2196
-0.1096
-0.2257
-0.4173
0.0705
0.0003166
-0.2264
-0.2306
0.0004551
-0.05796
0.004657
-0.2112
-0.2198
-0.3793
-0.2322
-0.0007521
-0.2199
-0.1417
-0.2296
-0.2163
-0.2259
-0.2148
0.002123
-0.2002
-0.07264
-0.01286
-0.2214
-0.2071
-0.07462
-0.213
-0.05703
0.3288
-0.2323
0.0003129
1.229e-05
-0.01858
-0.06754
0.3193
-0.2116
-0.2241
0.0124
-0.1029
0.218
-0.1053
-0.00216
-0.2145
-0.1153
-0.1261
-0.0004102
0.4001
-0.2202
-0.1194
-1.013e-05
-0.09698
-0.227
0.01694
-0.134
-0.01327
0.04875
-0.2281
-0.2201
0.001696
-0.2197
-0.2265
-0.225
-0.2309
-0.2221
-0.1273
-0.2314
-0.02324
-0.3995
-0.004303
-0.2196
-0.06339
-0.2938
0.2846
0.003493
-0.243
-0.2211
-0.2239
-0.2187
-0.09248
-0.3337
-0.09881
-0.1941
-0.2105
-0.2265
-0.2103
-0.221
2.858e-05
0.2675
-0.06111
-0.2157
-0.2107
-0.2303
0.1334
-0.01701
-0.004046
0.02758
-0.1166
2.52e-05
-0.4868
-0.2207
0.004076
-0.01625
-0.1566
-0.1948
0.003327
-0.232
-0.2174
-0.1058
0.00222
-0.2223
-0.493
-0.2215
-0.3164
-0.1051
-0.213
-0.2195
0.005687
-0.2229
-0.2206
-0.2212
-0.00174
-0.1523
-0.2311
-0.2209
-0.2322
-0.3322
0.1335
-0.2375
-0.2218
-0.2154
-0.2241
0.2107
-0.2319
0.007044
-0.05693
-0.01049
-0.2185
-0.002777
-0.2298
-0.2067
0.004084
-0.2201
-0.227
0.1658
-0.07305
-0.2225
-0.07064
-0.2286
0.09962
-0.01043
0.01059
-0.2383
-0.2109
-0.0001095
-0.209
0.04587
0.1871
-0.2241
-0.2241
-0.1723
-0.09654
-0.2229
-0.225
0.002015
-0.2279
-0.2423
-0.4513
-0.1199
-0.1476
-0.3247
-0.2148
-0.2201
-0.02038
-0.2336
-0.2214
-0.0002651
0.0008742
-0.2281
-0.0843
-0.001959
0.1148
-0.1556
0.06807
-0.2316
-0.2284
-0.2201
2.027e-06
0.1123
-0.0172
-0.02352
-1.6e-06
-0.1255
-0.2196
-0.2318
-0.2203
-0.2217
-0.2284
-0.2162
0.0002779
-0.219
-0.2187
0.4943
-0.2302
-0.1184
-0.2124
-0.1293
-0.002244
-0.2122
-0.219
-0.1202
-0.09407
-0.2112
-0.2187
1.943e-05
0.002821
-0.1324
-0.2154
-0.2271
-0.4383
-0.002156
-0.2124
-0.2236
-0.2011
0.002426
0.005748
-0.1139
0.03736
-0.2293
-0.2219
0.3974
7.21e-05
0.04037
7.113e-06
-0.2189
0.0327
0.005882
-0.2156
-0.2259
-0.2133
-0.2219
-0.2125
0.01398
0.0002821
-0.2214
-0.04923
-0.005593
-0.2223
-0.3228
-0.2225
0.0002684
-0.0645
-0.1504
0.04689
0.2205
-0.2304
-0.0003736
-0.4587
-0.01119
-0.2107
-0.001077
-0.0008122
-0.006593
-0.01509
-0.2187
-0.223
-0.1118
-0.06169
-0.2222
-0.02194
-0.2189
-0.00859
-0.003831
-0.03211
-0.2217
-0.2293
-0.2279
-0.02278
-0.1982
-0.2104
-0.2223
0.08036
-0.2321
-0.06303
-0.2223
0.1047
-0.1843
-0.2175
-0.1235
-0.2159
-0.1658
0.04503
-4.072e-06
-0.2188
-0.02473
-0.2099
-0.1403
-0.2231
-0.222
-0.2221
-0.0003641
0.3023
-0.2189
5.462e-05
-0.375
-0.002071
-0.2319
-0.2191
0.0004435
-0.2264
0.231
0.001321
0.02423
-0.231
-0.2089
0.02798
0.175
-0.07192
-0.1284
-0.003409
-0.1896
-0.2308
-0.02698
0.1758
-0.2222
-0.1223
-0.1846
-0.09906
-0.2213
-0.2203
-0.2127
0.3159
0.006303
-0.09134
0.1496
-0.1273
-0.2188
0.002645
-0.2241
-0.1441
-0.1751
-0.2108
-0.2261
-0.2232
9.561e-05
-0.0755
-0.23
-0.2213
-0.000467
-0.0678
-0.0472
-0.2276
0.2088
0.2056
-0.231
0.1152
-0.2333
-0.1267
-0.2215
-0.03617
0.0002161
-0.2285
-0.0002165
-0.2313
-0.03713
-0.1762
-0.2199
-0.2212
-0.1651
-0.2181
-0.1877
-0.0003599
-0.001356
-0.09814
-0.1365
-0.1918
-0.2518
-0.2319
-0.05507
0.2378
-0.2221
0.06846
-0.2214
-0.1938
-0.06187
-0.2219
-0.08742
-0.05017
-0.01317
-0.1539
-0.1376
-0.2246
-0.2147
-0.1322
0.00314
-0.2145
-0.1369
-0.002759
-0.1949
-0.05256
0.00187
-0.2119
-0.04195
-0.2151
-0.004959
-0.2214
-0.2187
3.872e-05
-0.2202
-0.2229
-0.2106
-0.2281
-0.2314
0.002316
-0.2253
0.0002386
-0.1768
-0.2201
0.4132
-0.03575
-0.2123
-0.2106
0.0008991
-0.002794
-0.0329
0.02159
-0.05761
-0.1087
-0.2335
-0.08414
-0.2177
-0.2271
0.01646
-0.4157
-0.1775
-0.09357
-0.2321
0.002964
0.03328
0.06468
-0.2251
-0.07964
-0.2212
0.001523
0.4241
-0.2274
-0.03663
-0.2311
-0.2224
-0.1871
-0.003876
-0.003001
-0.05585
-0.3289
-0.08962
-0.2345
-0.2302
0.02814
-0.1069
-0.0488
6.326e-06
0.2704
-0.1885
-0.1451
-0.2755
-0.2239
0.001833
-0.1332
-0.1723
-0.2153
-0.2237
-0.08143
0.04897
-0.2217
-0.05703
-0.07689
-0.1071
-0.1911
-0.23
-6.377e-05
-0.2221
0.09488
-0.1742
0.01585
-0.2219
-0.1114
-0.08816
-0.2269
-0.418
-0.2194
0.4091
-0.2285
0.2463
-0.2203
-0.1334
-0.2245
-0.1444
-0.2311
-0.2192
0.08289
0.007627
-0.2192
-0.393
-0.01491
-0.2195
-0.2224
-0.2186
-0.2232
-0.121
-0.04784
0.02531
-0.2184
-0.2314
-0.2126
-0.216
-0.2305
0.1188
-0.1488
-0.2258
-0.2259
-0.2198
0.3375
-0.1324
-0.1377
-0.000138
-0.2194
-0.2187
-0.2186
-0.2229
-0.1311
-0.2196
-0.1881
-0.03009
-0.2257
0.002781
-0.2185
-0.2191
-0.05542
-0.08286
-0.2251
-0.0796
-0.2118
-0.2297
-0.1836
-0.0852
-0.2308
-0.1301
-0.07383
-0.2112
0.1257
-0.2172
-0.226
-0.2259
-0.1075
-0.4334
0.009413
-0.01634
-0.001173
-0.2314
-0.1248
-0.2105
-0.1241
0.2383
-0.2257
0.1045
-0.2251
-0.03599
-0.2258
-0.1635
-0.1396
-0.1245
0.4796
-0.08557
-0.2323
0.001961
-0.2212
-0.2293
-0.2223
-0.218
-0.001792
0.001376
-0.2189
-0.2318
0.02036
-0.01784
-0.1017
-0.000544
0.005553
-0.14
0.0055
0.0175
-0.1804
-0.0003938
0.01629
-0.2279
-0.3524
-0.2276
-0.01844
0.1857
-0.1098
-0.1594
-0.1244
-0.1525
-0.2204
0.04038
0.1149
-0.06775
-0.2313
-0.2106
0.00353
0.005313
-0.2176
-0.4155
-0.002334
-0.232
0.003608
-0.2184
-0.2162
0.03891
-0.2221
-0.2017
0.4845
-0.07619
-0.1674
0.416
-0.2285
0.02641
-0.1432
-0.2311
-0.2043
-0.09552
-0.2209
-0.2231
0.009267
-0.0001854
-0.2224
-0.1216
-0.1399
-0.1872
-0.02426
0.04276
-0.2193
-0.02637
-0.04205
0.1361
-0.2319
2.724e-05
-8.749e-06
0.0002227
-0.1354
-0.4478
-0.2198
-0.1432
-0.2157
3.018e-05
-0.04018
-0.07204
-0.2159
-0.09788
-0.3529
-0.2246
-0.2233
-0.431
-0.2311
-0.2247
0.2858
-0.2318
-0.2188
-0.2299
-0.1383
-0.2306
-0.01924
-0.2291
-0.1586
-0.09522
-0.2232
0.1825
-0.2198
-0.2243
-0.223
0.003859
-0.2858
-0.2185
0.002127
-0.2183
-0.001696
-0.06599
-0.1003
-0.06164
-0.2318
0.1352
-0.2309
-0.2296
0.002184
-0.08841
-0.221
-0.2237
-0.01146
-0.09175
0.0005316
-0.1472
-0.2186
-0.231
-0.2103
-0.2218
-0.2215
-0.03689
-0.2859
0.3
-0.1889
-0.000149
-0.02837
0.03533
-1.601e-05
-0.2111
0.0136
-0.3046
-0.2319
-0.2102
0.003464
-0.2313
-0.2112
-0.1953
-0.08203
-0.1157
-0.2274
-0.2218
-0.04731
-0.1971
-0.2186
-0.1544
-0.01381
-0.2261
-0.2193
-0.007318
-0.2216
-0.2298
-0.2117
0.3416
-0.001273
-0.2144
0.005244
-0.2261
-0.05364
-0.229
-0.1833
-0.09492
-0.002277
-0.1764
0.422
-0.1998
0.002629
-0.08397
-0.2191
-2.15e-06
-0.08117
-0.09977
-0.2211
0.003962
0.003814
-0.2315
-0.006457
-9.159e-05
-0.002907
-0.233
0.1158
-0.141
-0.1864
-0.1326
-0.1721
-0.1767
0.002075
-0.2283
-0.03305
-0.04681
0.0113
-0.1597
-0.16
0.0575
-0.2267
-0.2187
-0.2336
-0.2217
-0.2153
0.05569
-0.2115
-0.2179
-0.2226
-0.2199
-0.2194
-0.002173
-0.2262
-0.2276
-0.01324
0.3675
-0.1082
-0.1269
-0.228
-0.08596
-0.09509
0.04398
-0.1268
-0.3441
-0.2205
-0.003193
0.08699
5.282e-05
-0.2246
-0.2259
-0.2209
-0.2478
-0.2158
-0.1538
1.726e-05
0.01609
-0.2304
-0.03158
-0.004552
-0.1233
-0.2285
-0.2189
-0.2186
0.4329
0.1294
0.1021
0.2137
-0.2014
-5.929e-07
-0.2105
-0.2198
-0.2318
-0.08482
-0.1463
-0.01484
-0.2268
-0.2233
-0.0216
-0.2386
-0.1187
-0.07582
-0.2453
-0.146
0.2136
0.006369
0.07335
-0.1914
-0.2214
-0.2201
-0.2185
-0.05774
-0.2302
-0.2257
-0.1581
-0.06512
-0.09245
-0.0701
-0.001239
-0.2141
-0.2549
-0.2239
0.06591
-0.4177
0.001911
-0.00321
-0.2186
-0.004892
0.001382
-0.323
1.855e-05
-1.264e-05
0.04834
-8.324e-05
-0.2295
-0.224
-0.1891
-0.2233
-0.05786
0.0009536
0.003834
-0.2189
-0.119
0.2041
-0.1304
-0.2204
0.0005223
-0.2245
-0.2238
-0.1889
-0.1921
0.003124
0.0137
-0.3265
-0.002173
0.001298
-0.2117
-0.07594
-0.02939
0.02862
-0.2212
-0.001812
-0.0009825
0.002334
-0.2157
-0.1132
-0.2301
-0.2311
0.06962
-0.1549
-0.2275
-0.2188
-0.0626
-0.2189
-0.1348
-0.2184
-0.0006188
-0.05523
-0.221
-0.2438
0.0009239
-0.2116
-0.2239
-0.2191
-0.2149
-0.04899
-0.2318
-0.09043
-0.05122
-0.2125
0.003816
-0.4836
-0.01759
0.06695
0.0031
-0.3268
0.009226
-0.08971
-0.04874
-0.2114
-0.2222
-0.214
-0.2256
0.0001988
-0.5152
8.136e-05
-0.2102
-0.1304
-0.2328
0.06938
-7.322e-05
-0.3915
0.003732
-0.1319
-0.2317
-0.2165
0.0005526
0.01218
0.4651
-0.0178
-0.2118
-0.2187
-0.2211
-0.2318
0.3045
-0.2191
-0.4713
-0.1426
0.001478
-0.2308
0.3645
0.008375
0.002658
-0.225
-0.2315
0.3723
-0.2768
0.3987
0.005135
-0.1753
0.005625
0.008156
0.002209
-0.2428
-0.02519
-0.2198
-1.138e-05
-0.2295
-0.01363
-0.2215
-0.1889
-0.4013
-0.03426
-0.2187
0.2675
-0.0775
-0.09645
-0.2168
0.004591
-0.1788
0.001328
-0.2305
0.09146
-0.001966
-0.1403
-0.233
-0.2126
-0.1157
-0.2291
-0.1452
-0.04027
-0.2024
0.1982
-0.2582
-0.2182
-0.2109
-0.2274
-0.2302
-0.2215
-0.2326
-0.2198
-0.2126
-0.205
0.0003993
-0.221
-0.0001944
0.01567
0.06281
-0.08629
-0.2163
-0.4391
-0.2296
-0.215
2.14e-05
-0.1012
-0.2261
-0.2955
-0.2312
-0.003151
-0.2306
-0.2206
-0.09598
-0.0001151
-0.2212
-0.1007
-0.2274
-0.1886
-0.2601
0.2133
0.3346
-0.2318
-0.2196
-0.2192
-0.2174
-0.2217
0.0258
-0.2322
0.1718
0.0192
-0.2243
-0.2295
-0.2317
-0.2188
-0.2274
0.003896
0.1889
-0.2766
-0.1604
0.1647
0.1808
-0.2183
-0.2236
-0.0005383
-1.83e-05
-0.1785
-0.2305
-0.1025
0.002859
-0.1774
-0.2288
0.03722
-0.03339
0.000991
-0.1491
-0.171
-0.2314
-0.2305
-0.2191
-0.2187
-0.2135
-0.219
-0.2181
0.03895
-0.2283
0.4085
-0.2195
-0.144
-0.1096
-0.2314
-0.002375
-7.654e-05
-0.2321
-0.2314
-0.2295
-0.227
-0.229
0.00661
-0.2121
-0.2219
-0.1764
0.01363
-0.5161
-0.211
-1.931e-05
-0.05842
0.01894
-0.06036
-0.2145
-0.2188
-0.02884
-0.2582
-0.2555
0.004608
-0.2215
0.01107
-0.23
-0.2135
-0.01946
-0.227
-0.2211
0.08877
0.08793
-0.05373
-0.1587
-0.006436
-0.1138
-0.2217
-0.3684
-0.2247
-0.0009322
0.007806
0.0002708
-0.2242
0.005576
-0.2198
-0.2123
0.09831
-0.2271
-0.2313
0.00379
-0.09251