/*--------------------------------*- C++ -*----------------------------------*\
  =========                 |
  \\      /  F ield         | OpenFOAM: The Open Source CFD Toolbox
   \\    /   O peration     | Website:  https://openfoam.org
    \\  /    A nd           | Version:  8
     \\/     M anipulation  |
\*---------------------------------------------------------------------------*/
FoamFile
{
    version     2.0;
    format      ascii;
    class       volVectorField;
    location    "10";
    object      U;
}
// * * * * * * * * * * * * * * * * * * * * * * * * * * * * * * * * * * * * * //

dimensions      [0 1 -1 0 0 0 0];

internalField   nonuniform List<vector> 
127143
(
(0.0009593 -4.116e-05 0)
(-2.619e-05 -0.0001297 -1.615e-24)
(-5.319e-05 -0.0002612 2.863e-24)
(-6.915e-05 -0.0003155 -1.253e-27)
(0.00612 0.001913 -4.31e-23)
(-5.842e-05 -0.000324 4.097e-27)
(0.01708 0.0109 0)
(0.008928 0.004106 -5.895e-23)
(0.00728 0.003517 1.945e-22)
(-0.001446 -5.175e-05 0)
(0.01787 0.0247 2.022e-22)
(0.0114 0.007592 2.124e-22)
(0.0001221 -4.618e-05 -5.687e-25)
(-8.956e-05 -0.0003534 0)
(0.06142 -0.0387 5.113e-21)
(0.02126 -0.001982 0)
(-0.00012 -0.000589 -4.645e-24)
(-0.04318 -0.07425 3.209e-20)
(-0.1932 0.009732 0)
(0.03309 0.01008 0)
(-0.09883 0.02845 2.364e-20)
(-0.0003803 9.075e-05 0)
(0.999 -0.1486 0)
(0.3554 -0.03447 0)
(-0.0003956 0.0001141 -5.373e-23)
(0.1162 -0.01872 0)
(-0.01459 0.0001487 3.756e-21)
(-0.01461 -0.0003823 -5.631e-23)
(0.1258 -0.05453 0)
(0.3181 -0.08908 -6.611e-21)
(0.2879 -0.01773 0)
(0.1118 -0.01661 -1.831e-21)
(0.05381 0.01327 8.292e-22)
(-0.008152 0.002225 -5.276e-21)
(0.8834 -0.08575 2.076e-20)
(0.05232 0.01531 -2.278e-24)
(-0.1821 0.06476 9.069e-21)
(0.1478 0.02145 -1.469e-20)
(0.4414 -0.03978 -1.533e-21)
(0.1185 -0.00327 1.209e-25)
(-0.194 0.00776 0)
(1.056 0.4385 -5.22e-21)
(1.037 0.4273 3.928e-21)
(0.000255 -8.774e-05 0)
(-0.05286 -0.06698 -2.724e-20)
(-0.008498 0.001921 1.67e-21)
(0.1285 -0.05888 0)
(-0.221 0.07919 -1.264e-21)
(0.4279 -0.07539 4.412e-22)
(0.422 -0.03345 -9.431e-22)
(0.02532 -0.001794 -5.231e-23)
(0.9822 -0.03608 3.012e-20)
(-0.06238 0.005673 0)
(1.152 0.1625 -7.77e-21)
(1.002 -0.0008325 1.887e-20)
(0.319 -0.07911 1.041e-22)
(1.002 -0.0008275 -1.698e-20)
(1.118 -0.07944 0)
(1.01 -0.007569 -1.294e-20)
(1.151 0.1635 -1.51e-20)
(0.5271 -0.08392 -6.417e-20)
(-0.1717 0.07228 -1.505e-21)
(0.8045 -0.05301 5.25e-21)
(1.001 0.0004549 3.359e-20)
(-0.03507 0.00286 0)
(0.8843 -0.2422 -5.583e-21)
(1.067 0.1455 2.532e-20)
(0.7465 -0.05481 0)
(0.7575 -0.05425 1.442e-21)
(0.9902 -3.564e-05 0)
(0.3232 -0.02396 0)
(-0.01568 0.0001618 -1.768e-21)
(-0.1987 -0.03694 -6.915e-21)
(1.01 -0.00744 -7.19e-21)
(1.003 0.002668 -3.964e-22)
(-0.01575 -0.0002982 1.76e-21)
(1.006 0.03479 -1.062e-20)
(-0.1768 0.0613 0)
(0.33 -0.08686 -1.581e-22)
(1 0.0005825 0)
(0.1224 -0.05651 7.26e-24)
(0.03643 0.009309 1.198e-23)
(-0.01557 0.00372 3.434e-21)
(0.1456 -0.00999 0)
(-0.1608 -0.005352 1.407e-21)
(-0.1927 0.06806 0)
(0.5221 -0.05101 -3.499e-21)
(-0.00182 0.000466 1.158e-21)
(0.8836 -0.2398 0)
(0.9616 0.5844 0)
(1.003 -0.003904 0)
(1.199 0.06823 0)
(1.103 0.6739 0)
(-0.09914 0.02862 -2.435e-20)
(-0.04386 0.008907 0)
(1.047 0.07358 2.1e-20)
(1.057 0.4311 1.089e-20)
(0.2002 -0.01425 0)
(-0.1747 0.05896 5.334e-21)
(1.064 0.1457 0)
(1 0.0005663 0)
(0.4522 -0.08188 0)
(0.5806 0.5381 -6.009e-22)
(1.082 -0.1232 0)
(-0.1961 0.06965 -2.799e-21)
(-0.1732 0.05831 7.646e-21)
(0.7381 -0.1151 -2.806e-21)
(0.9894 2.937e-05 0)
(0.712 -0.2811 0)
(1.002 -0.0006093 2.66e-20)
(0.07151 -0.04288 -1.641e-21)
(-0.001684 0.0002278 2.218e-21)
(-0.0671 0.01637 -2.1e-20)
(0.2527 0.4779 0)
(0.9957 0.007941 1.54e-20)
(1.036 -0.1693 -5.141e-22)
(0.9862 0.03599 -9.942e-21)
(1.003 0.002778 -2.145e-20)
(1.006 0.03388 8.21e-21)
(-0.0007827 -0.003344 0)
(1.002 -0.0006485 -3.72e-20)
(-0.01733 0.004584 -8.487e-22)
(0.7664 -0.2827 0)
(1.097 -0.08811 1.64e-20)
(0.1285 -0.05691 3.04e-22)
(0.07975 -0.01025 -4.529e-21)
(-0.1741 0.06495 0)
(1.032 0.007173 9.456e-20)
(-0.067 0.004886 -2.822e-21)
(0.3209 -0.09255 -4.174e-22)
(-0.1079 0.03407 0)
(-0.04278 0.01039 -6.882e-21)
(0.9516 -0.07945 -1.054e-20)
(-0.1788 0.06199 0)
(-0.0001792 -0.001067 -2.58e-23)
(-0.1112 0.03537 -3.632e-21)
(1.088 -0.04073 0)
(-0.1037 0.03055 6.177e-21)
(0.1569 -0.08881 -2.643e-21)
(1.106 0.007071 8.981e-21)
(0.9687 -0.1789 3.533e-21)
(0.9849 0.02414 5.279e-20)
(-0.0612 0.01382 1.166e-21)
(-0.08458 0.02429 -1.785e-20)
(-0.06084 0.005588 -2.986e-21)
(1.216 0.4551 3.422e-21)
(-0.02508 0.1433 7.428e-22)
(1.001 0.0003949 -3.027e-20)
(-0.04095 0.009849 5.778e-21)
(0.4841 0.4212 -3.799e-22)
(1.08 -0.1144 -3.912e-21)
(0.4879 -0.09684 0)
(0.3945 0.04689 3.513e-20)
(0.8522 -0.1482 0)
(0.3072 -0.2145 0)
(-0.1632 -0.005218 0)
(1.119 -0.07841 -5.857e-21)
(0.3108 -0.109 0)
(-0.221 0.07916 -2.353e-21)
(0.1735 -0.01553 1.043e-21)
(0.3608 -0.02195 0)
(0.02882 -0.01519 2.023e-21)
(1.003 -0.003543 -5.378e-23)
(-0.1096 0.03467 -9.029e-21)
(0.187 -0.04816 0)
(-0.03882 0.003348 3.714e-21)
(-0.1565 0.05485 -4.736e-21)
(0.6978 -0.243 1.396e-20)
(0.2186 0.06049 -2.222e-21)
(0.9405 0.03909 -6.737e-21)
(-0.01819 0.005295 0)
(-0.08504 0.02466 8.39e-21)
(1.026 -0.1796 -1.351e-21)
(0.89 -0.2578 -1.373e-21)
(0.9777 -0.0005023 3.642e-20)
(-0.07966 0.00573 8.117e-23)
(1.194 0.5129 -5.665e-22)
(-0.0671 0.005104 -2.791e-21)
(0.4066 -0.04096 0)
(1.007 -0.017 4.351e-21)
(0.889 -0.2581 -4.761e-22)
(1.011 0.009081 0)
(-0.06175 -0.01222 1.049e-21)
(-0.07964 0.004811 -8.097e-23)
(0.3317 -0.09701 8.928e-22)
(-0.1695 0.07183 2.682e-21)
(1.002 0.2808 -3.35e-21)
(0.2707 0.4938 -4.472e-21)
(0.3831 -0.03746 -2.794e-21)
(1.026 -0.0259 4.168e-20)
(-0.06877 0.006972 1.775e-21)
(-0.05815 0.005385 -7.212e-21)
(1.085 -0.03984 7.182e-20)
(0.3591 0.8471 -4.871e-22)
(-9.52e-05 -0.001103 4.302e-23)
(-0.1465 0.05442 0)
(1.003 -1.529e-06 0)
(0.9988 -3.947e-06 2.057e-22)
(0.01469 0.007972 0)
(0.9906 0.01116 4.714e-21)
(1.009 0.007317 2.432e-20)
(0.9344 -0.00271 1.035e-19)
(0.9821 -0.04261 1.257e-20)
(-0.1889 0.06718 -4.551e-21)
(-0.0001221 -0.0006707 6.236e-25)
(0.6561 -0.03959 5.224e-21)
(1.025 -0.09705 -4.553e-21)
(0.9924 -0.176 4.283e-22)
(0.428 -0.1128 2.817e-21)
(0.9958 0.007664 -7.962e-21)
(1.177 -0.006824 1.913e-20)
(-0.1412 0.0007254 9.564e-22)
(0.9969 -0.004648 7.029e-21)
(0.2299 0.06168 -2.38e-21)
(-0.07658 0.02423 5.379e-24)
(0.0197 0.001882 0)
(-0.01655 0.005616 -4.493e-22)
(0.9758 -0.1905 -1.364e-21)
(-0.06654 0.0182 -1.304e-20)
(1.026 -0.09574 -1.25e-21)
(1.184 0.5072 -1.117e-21)
(1.001 0.004206 -1.304e-20)
(0.4756 -0.09334 2.779e-22)
(-0.04612 0.006324 3.179e-21)
(0.1602 -0.01519 0)
(-0.02638 0.00896 0)
(0.2317 -0.05895 -2.214e-22)
(0.1905 0.02867 1.529e-20)
(-0.06821 0.0234 1.667e-21)
(-0.1859 0.06608 6.744e-21)
(-0.09244 0.02588 1.504e-20)
(1.012 0.008074 -1.277e-20)
(-0.2048 -0.03659 1.382e-20)
(-0.0001926 -0.007463 0)
(-0.09338 0.02614 0)
(1.085 -0.07348 1.687e-20)
(-0.1093 0.03487 4.338e-21)
(0.002409 -0.0003701 2.654e-23)
(1.01 0.007128 -2.262e-20)
(-0.06927 0.009161 1.04e-20)
(-0.05965 0.005493 6.848e-21)
(-0.04854 0.002768 -6.284e-21)
(-0.1691 0.04652 -6.931e-22)
(0.3221 -0.1143 4.337e-25)
(0.2361 0.03367 0)
(-0.0006265 -0.003451 1.856e-26)
(0.6224 -0.1265 -1.356e-21)
(-0.01472 0.0002714 0)
(-0.003715 0.001025 5.972e-22)
(1 -1.481e-05 -9.102e-22)
(1.169 0.3708 -1.281e-20)
(0.118 -0.01316 3.126e-21)
(0.9323 -0.2196 0)
(-0.09387 0.02493 0)
(0.4289 -0.1035 2.832e-23)
(0.7296 -0.2843 0)
(1.032 0.006623 -7.415e-20)
(0.4115 0.1351 0)
(0.9467 -0.2397 0)
(0.8569 0.2006 1.37e-20)
(-0.1324 0.04921 -6.982e-21)
(1.017 -0.01016 1.229e-20)
(1.195 0.06855 -3.445e-23)
(0.9844 0.02317 -4.241e-20)
(0.08257 0.01554 0)
(-0.04429 0.003449 -1.97e-21)
(-0.06302 0.02089 6.163e-21)
(0.2661 -0.2014 0)
(0.5752 -0.1975 3.591e-20)
(1.185 0.1851 -4.971e-21)
(0.1979 -0.03507 0)
(0.9737 -0.001206 -4.389e-20)
(-0.2197 0.07638 -1.628e-21)
(-0.06929 0.009208 -1.07e-20)
(0.9498 -0.05877 8.443e-21)
(-0.06921 0.006957 -8.703e-21)
(-0.06828 0.01686 0)
(0.4988 -0.07894 3.655e-21)
(0.9548 -0.001666 -6.621e-22)
(0.8978 -0.2638 1.559e-21)
(1.003 -0.0003169 8.531e-23)
(1.043 0.07811 2.957e-21)
(1.084 -0.1228 -1.189e-23)
(0.9956 0.001701 0)
(1.002 0.009212 -1.017e-21)
(-0.0004338 -0.001108 -6.245e-24)
(-0.0772 0.02313 0)
(0.9958 0.008765 8.572e-21)
(0.4583 -0.06482 3.195e-21)
(1.006 -0.017 5.274e-21)
(0.449 0.04304 -4.605e-20)
(0.9895 -0.1859 0)
(1.083 -0.0745 -1.665e-20)
(1.009 -0.1948 0)
(0.9998 -0.005423 -2.897e-21)
(0.6988 -0.294 -3.234e-22)
(0.2683 -0.02114 2.194e-21)
(0.007676 -0.03384 -8.776e-22)
(-0.1695 0.047 2.675e-21)
(1.188 0.1852 3.536e-21)
(0.193 -0.02117 -1.24e-21)
(0.9322 -0.2245 -5.73e-22)
(0.8046 -0.2366 -9.206e-21)
(1.036 -0.169 4.969e-21)
(0.1529 -0.01109 0)
(0.496 -0.2891 3.623e-23)
(0.9971 -0.1763 1.436e-22)
(0.9967 -0.004841 0)
(-0.06828 0.04782 -1.548e-23)
(1.016 -0.1056 -4.758e-21)
(0.6885 -0.1085 -3.413e-21)
(0.009761 -0.03308 -8.811e-23)
(0.2933 -0.07153 0)
(1.003 -0.0004389 7.311e-22)
(0.9931 0.001799 -1.91e-20)
(1.065 0.4571 4.875e-22)
(0.03496 0.01815 8.404e-21)
(0.1844 -0.0201 2.908e-21)
(1.172 0.079 2.267e-20)
(0.8998 -0.0131 -2.531e-21)
(0.9975 -0.1474 0)
(0.3128 -0.02128 -3.669e-21)
(1.059 0.01818 2.172e-20)
(0.9311 -0.2187 -1.14e-22)
(1.046 0.4444 0)
(0.03734 0.0165 -1.669e-20)
(0.9195 -0.04818 4.452e-20)
(0.04818 -0.01439 -6.481e-24)
(0.3442 -0.003546 2.115e-21)
(1.158 0.5669 5.258e-21)
(-0.1952 0.07543 0)
(1.002 0.009106 1.752e-22)
(0.8887 -0.08655 -8.054e-20)
(1.003 4.743e-06 0)
(0.9988 -4.364e-06 0)
(0.8517 -0.1445 0)
(0.7235 -0.2822 -2.121e-21)
(1.026 -0.1798 -1.329e-21)
(-0.1956 0.07573 -2.054e-21)
(-0.06328 0.01865 -2.386e-20)
(1.103 0.004674 -4.069e-20)
(0.9758 -0.1907 0)
(-0.05096 0.005684 2.942e-21)
(-0.06959 0.006818 1.491e-21)
(0.216 0.08492 -7.712e-23)
(0.4493 -0.06246 -2.09e-21)
(-0.02418 0.006047 -3.632e-21)
(-0.05596 0.01157 6.377e-21)
(0.216 -0.02564 -2.423e-21)
(-0.06093 0.005747 0)
(0.2292 -0.02501 1.997e-21)
(-0.1236 0.04962 6.129e-21)
(-0.1027 0.02296 -1.76e-21)
(-0.06943 0.006855 6.458e-21)
(0.9209 0.03894 0)
(-0.02767 0.006937 -9.463e-21)
(-0.09382 0.02486 -1.001e-20)
(1.213 0.424 -3.022e-21)
(1.004 -0.005111 4.4e-21)
(0.3298 -0.002806 0)
(-0.2153 0.06985 -2.402e-21)
(0.8421 -0.05547 1.538e-21)
(0.3739 -0.04373 -4.347e-20)
(0.446 -0.03141 0)
(0.4269 -0.0357 -2.964e-21)
(1.002 0.002128 7.904e-23)
(0.9909 0.01093 -1.405e-20)
(0.8953 -0.00042 0)
(-0.0171 0.003073 1.734e-21)
(0.9595 -0.001147 0)
(0.4066 -0.06991 5.106e-20)
(1.06 0.01609 -4.689e-20)
(0.145 -0.01584 -3e-21)
(0.4216 -0.0298 3.554e-21)
(1.026 -0.02446 0)
(1.141 0.06965 -5.163e-22)
(0.2901 -0.02518 2.532e-21)
(0.005506 -0.008885 1.973e-26)
(-0.1894 0.06622 -1.304e-20)
(0.9611 -0.004548 3.733e-21)
(0.2433 0.01497 -6.965e-20)
(0.09266 -0.01194 4.562e-21)
(0.2446 -0.03101 0)
(0.9301 -0.2268 -2.464e-21)
(0.9868 0.03462 0)
(0.04765 -0.003448 0)
(0.9474 0.1413 0)
(0.1258 -0.004042 0)
(-0.1465 0.05381 -1.87e-21)
(0.0644 0.02581 -4.656e-20)
(1.011 -0.005636 -3.745e-20)
(0.7729 -0.2103 0)
(-0.04379 0.01458 1.166e-21)
(0.431 -0.1105 1.221e-22)
(0.3803 -0.03415 5.626e-21)
(0.2689 -0.01705 2.356e-21)
(0.7774 -0.2123 -7.758e-21)
(0.3124 -0.01889 0)
(0.9199 0.03718 0)
(1.016 -0.01066 0)
(0.13 -0.01104 -7.118e-22)
(1.001 0.003993 4.805e-21)
(-0.09041 0.02384 0)
(-0.06527 -0.01165 0)
(0.9524 0.1434 0)
(1.035 -0.1246 2.949e-21)
(-0.2006 0.0715 -1.417e-20)
(0.9294 -0.08496 7.75e-21)
(1 0.0004587 -8.149e-20)
(0.4383 -0.04524 0)
(0.7063 -0.3098 0)
(0.2153 -0.02831 -2.842e-21)
(0.9699 -0.1777 -3.64e-21)
(-0.2197 0.07974 0)
(0.7815 -0.2873 0)
(-0.04518 0.009166 -6.29e-21)
(-0.1235 0.039 -1.419e-20)
(0.17 -0.03271 0)
(0.7061 0.08351 6.927e-21)
(0.5393 -0.2177 -1.058e-21)
(-0.1611 0.05708 0)
(-0.01781 0.006222 -1.704e-21)
(-0.06041 0.01843 0)
(1.003 0.0001933 -1.71e-22)
(-0.186 0.06585 -8.345e-21)
(0.9061 0.2454 -6.535e-21)
(1.032 0.4157 3.514e-22)
(0.9374 -0.1678 -6.715e-21)
(-0.05127 0.003472 6.365e-21)
(1.007 -0.12 1.645e-21)
(1.003 -0.0001589 0)
(-0.06355 0.0194 0)
(-0.09761 0.02263 0)
(1.191 -0.01741 1.09e-19)
(0.8541 0.1591 6.023e-22)
(1.002 0.00209 -2.945e-21)
(0.9968 -0.1541 2.985e-21)
(-0.02582 0.006003 -6.7e-21)
(0.9828 -0.03488 -1.149e-20)
(0.9995 -0.005449 0)
(0.9989 -0.0009496 -3.569e-21)
(0.4511 -0.03588 1.525e-21)
(1.087 -0.04563 -2.513e-20)
(0.7235 -0.2875 3.055e-21)
(0.9606 0.02674 0)
(0.2131 -0.01538 -1.432e-22)
(0.9911 0.0008091 4.309e-20)
(0.3634 -0.2482 0)
(0.8789 -0.003847 -1.611e-21)
(-0.141 -0.0009229 9.332e-22)
(-0.1225 0.03914 0)
(0.2849 -0.03705 -8.864e-24)
(1.053 -0.1256 -8.194e-21)
(-0.0171 0.002908 9.757e-21)
(0.8596 0.0689 3.651e-23)
(-0.1978 0.06873 -1.54e-21)
(0.1847 -0.02237 -1.274e-21)
(-0.05555 0.003194 0)
(-0.2064 0.07326 0)
(1.041 0.1304 3.925e-21)
(0.9756 -0.08291 3.537e-21)
(-0.03733 0.009181 6.834e-21)
(-0.06637 0.03818 0)
(0.3225 0.4421 -2.139e-20)
(-0.04479 0.0089 -4.917e-25)
(0.9924 -0.0007057 0)
(1.001 0.02293 0)
(-0.07876 0.01543 0)
(-0.02472 0.006828 3.733e-21)
(0.9996 -0.0001221 0)
(-0.1774 0.06073 5.596e-21)
(1.188 0.08286 1.908e-20)
(1.098 -0.0865 -2.482e-20)
(0.05204 0.01842 -2.779e-21)
(1.029 -0.08043 -7.332e-21)
(1.003 -8.906e-05 0)
(0.2457 -0.157 -1.441e-20)
(1.184 0.08244 -1.831e-20)
(-0.0701 0.02436 -1.045e-21)
(0.007244 0.008909 7.6e-22)
(0.1216 -0.06415 2.269e-22)
(0.3595 -0.249 -1.683e-21)
(-0.03555 0.005082 1.786e-21)
(0.2943 -0.06933 0)
(0.712 -0.3058 0)
(0.8834 0.1635 -5.958e-22)
(0.06598 0.01406 -5.733e-22)
(1.009 0.002096 2.97e-20)
(0.2008 -0.01716 -2.054e-21)
(0.9744 0.005541 3.824e-20)
(1.173 0.5151 1.733e-22)
(0.5592 -0.05525 3.079e-21)
(-0.06637 0.005442 0)
(1.218 0.4413 1.521e-21)
(-0.0002058 -0.001127 0)
(-0.1009 0.03221 1.009e-20)
(0.2788 0.2749 5.734e-21)
(1.106 -0.0235 -2.976e-22)
(0.9686 0.6713 4.885e-21)
(0.9961 -0.002943 -4.907e-20)
(0.1188 -0.06677 0)
(1.002 0.02304 3.563e-24)
(-0.1605 0.04803 0)
(-0.1443 0.05434 -6.597e-21)
(-9.937e-05 -0.0006017 0)
(0.001156 0.0003262 3.649e-23)
(0.0009844 -0.0003643 -1.144e-23)
(1 -0.000268 -2.521e-20)
(-0.02855 0.007191 0)
(0.437 0.09228 0)
(0.9933 0.001961 3.737e-20)
(-0.2118 0.07424 3.546e-21)
(0.7356 -0.2724 3.577e-21)
(-0.1363 0.04599 9.386e-21)
(1.052 -0.1519 0)
(-0.1205 0.03823 0)
(0.2792 -0.03435 -1.906e-21)
(-0.1772 0.06083 -5.689e-21)
(-0.005619 0.001056 4.127e-22)
(0.9975 -0.0004082 0)
(-0.1164 -0.01143 -1.227e-21)
(-0.0002041 5.587e-05 0)
(0.4861 -0.199 6.727e-22)
(0.2112 -0.02058 8.884e-22)
(-0.01995 0.005583 4.17e-22)
(1.01 -0.006972 -1.121e-20)
(1.084 -0.1138 -4.239e-21)
(0.9919 -0.04273 -3.234e-21)
(-0.05834 0.03711 1.537e-20)
(1 -0.003332 0)
(0.1775 -0.01377 0)
(0.2894 0.1357 0)
(-0.05504 0.01863 -1.862e-21)
(0.9988 1.321e-05 0)
(-0.07865 0.01539 -8.307e-21)
(1.069 -0.0993 -1.223e-20)
(-0.002078 -0.0009783 8.99e-26)
(0.6815 -0.3092 1.613e-21)
(0.2109 0.06247 5.192e-22)
(-0.05741 0.04318 -5.25e-21)
(0.9732 -0.001646 2.472e-21)
(-0.104 0.03644 -1.579e-21)
(0.7917 -0.298 -2.266e-21)
(0.9995 -0.0001223 2.75e-21)
(0.9313 -0.2263 3.321e-21)
(0.8204 0.09835 -2.877e-20)
(0.2923 -0.02414 -1.993e-21)
(0.4594 -0.03091 2.307e-21)
(-0.02243 0.006192 -3.66e-21)
(-0.0434 0.01492 7.834e-22)
(-0.1458 0.05393 3.319e-21)
(1.075 0.1798 0)
(0.5912 -0.2356 9.221e-22)
(-0.1586 0.05524 0)
(-0.06682 0.02045 1.839e-22)
(1.017 -0.001866 -6.01e-21)
(0.1393 -0.004988 2.314e-22)
(-0.09707 0.03027 -5.631e-21)
(0.207 -0.03299 3.385e-21)
(0.8805 -0.09422 -7.099e-21)
(-0.1916 0.0581 2.695e-21)
(1 0.0009853 0)
(0.9998 0.001231 1.429e-20)
(0.8637 0.1924 -2.222e-20)
(-0.02335 0.005721 -1.733e-21)
(0.9468 0.7035 0)
(0.992 0.002384 -2.549e-20)
(1.003 -5.226e-06 -4.302e-22)
(0.8053 -0.2907 0)
(0.3835 -0.1689 0)
(-0.2032 0.07254 4.496e-21)
(0.7106 -0.3063 0)
(-0.04396 0.01508 2.807e-21)
(-0.01252 0.004151 0)
(0.9806 -0.2163 1.647e-22)
(1.005 0.02999 0)
(1 -0.0003108 4.685e-21)
(-0.06036 0.02138 1.626e-21)
(-0.1608 0.05346 -5.055e-21)
(0.8558 -0.2011 -3.44e-22)
(1.002 -0.0008184 7.864e-21)
(-0.0161 0.0003391 8.53e-22)
(0.9598 -0.09419 0)
(-0.04918 0.01422 6.67e-21)
(0.9612 -0.003341 8.955e-21)
(0.1402 -0.01658 2.63e-22)
(0.9919 0.002141 4.683e-20)
(-0.2032 0.07274 -2.347e-21)
(-0.07262 -0.01544 0)
(0.02783 0.03338 8.733e-22)
(1.001 -1.394e-05 2.275e-22)
(-0.07578 0.02546 -5.846e-21)
(-0.1319 0.04894 -1.664e-21)
(0.05152 -0.03185 -2.856e-21)
(1.003 -8.26e-05 -1.151e-21)
(0.7639 -0.1214 2.832e-21)
(-0.01679 0.005599 2.09e-22)
(0.999 -0.001007 0)
(1.038 -0.1258 0)
(0.9929 0.007166 -8.94e-22)
(0.5721 -0.03634 3.035e-21)
(0.02195 0.01441 0)
(0.9957 0.001552 2.586e-20)
(-0.01867 0.004766 8.179e-21)
(0.3226 -0.04438 1.614e-21)
(0.008798 -0.03587 0)
(-0.0551 0.008463 -9.872e-21)
(-0.04903 0.01415 -2.338e-21)
(0.2424 -0.02552 -5.979e-21)
(0.2528 -0.02953 -1.874e-21)
(0.2076 -0.06323 -1.902e-20)
(0.4681 -0.04354 -1.323e-21)
(1.122 0.688 6.799e-22)
(0.4945 -0.02087 -2.642e-21)
(-0.1141 0.03198 -1.983e-21)
(-0.0238 0.008068 -3.317e-21)
(0.171 -0.01531 9.997e-22)
(1.002 -0.0007929 0)
(0.306 -0.06331 4.751e-22)
(0.9946 0.001767 -1.067e-20)
(0.2307 0.1028 -1.53e-20)
(1.033 0.02206 3.618e-20)
(-0.05924 0.01397 1.639e-20)
(1.003 -0.0001865 0)
(0.9956 0.008591 2.164e-20)
(1.121 -0.07831 2.767e-20)
(0.5485 -0.2221 5.494e-22)
(-0.08016 0.0218 1e-20)
(1.003 -0.0004118 6.898e-21)
(1.002 -0.001085 -1.092e-20)
(-0.07316 0.02474 -1.685e-21)
(0.02603 0.005028 0)
(-0.01896 0.004474 3.576e-21)
(0.2064 -0.01688 -3.413e-21)
(-0.1995 0.02884 0)
(0.7232 -0.2866 -2.804e-21)
(-0.1257 0.04042 -1.306e-21)
(0.7045 -0.3101 0)
(-0.06963 0.00686 -2.076e-22)
(-0.05356 0.01667 -1.667e-20)
(-0.03526 0.002751 0)
(1.003 -0.0004339 -1.217e-21)
(-0.05679 0.003291 6.375e-21)
(-0.06907 0.008044 8.043e-22)
(1.036 -0.1637 -1.249e-21)
(1.183 0.1366 0)
(1.001 -0.002656 -3.9e-21)
(1.003 -3.707e-06 4.173e-23)
(0.06173 0.01729 -1.553e-20)
(0.1822 -0.1032 2.572e-24)
(0.06548 0.01555 2.888e-21)
(-0.008738 0.002681 3.58e-22)
(1.032 0.02277 0)
(1.003 -3.706e-05 1.043e-22)
(-0.1084 0.03555 0)
(-0.05629 0.004464 0)
(0.9374 -0.002469 -8.223e-20)
(-0.02996 0.003292 -1.769e-21)
(1.035 -0.1393 0)
(0.9919 0.01368 -2.025e-20)
(-0.04248 0.01314 6.295e-21)
(0.962 -0.2299 -1.819e-23)
(-0.06875 0.008014 5.243e-21)
(0.8498 -0.1743 -2.989e-20)
(0.0002434 -7.748e-05 0)
(-0.02812 0.009338 0)
(-0.2076 0.07372 -1.349e-21)
(-0.197 0.06915 2.893e-21)
(-0.07797 0.02306 0)
(-0.04652 0.007082 6.268e-21)
(0.1592 -0.02225 -5.852e-22)
(-0.03212 0.004875 0)
(0.9736 -0.02899 -8.128e-21)
(-0.07008 0.006198 1.253e-20)
(-0.005356 -0.0207 0)
(-0.09164 0.02444 -1.379e-20)
(1.002 -0.0007838 2.5e-20)
(0.5316 -0.08242 -2.746e-21)
(0.8649 -0.2355 0)
(0.5656 -0.006593 -2.616e-20)
(0.9988 -1.056e-06 3.715e-23)
(1.002 -0.0008117 -3.33e-20)
(0.002986 -0.005081 0)
(1.106 -0.02099 -8.121e-21)
(0.348 -0.06648 1.292e-21)
(-0.05428 0.006368 -4.227e-22)
(0.5136 -0.2897 0)
(-0.06938 0.04711 2.014e-20)
(1.162 0.2075 0)
(0.1814 -0.01487 9.99e-22)
(0.6924 -0.02378 4.283e-20)
(0.4378 -0.1193 0)
(1.008 0.001868 -1.074e-20)
(1.003 -0.0004643 0)
(1.175 0.3942 0)
(0.915 0.247 0)
(-0.019 0.003592 4.267e-22)
(0.5729 -0.01862 0)
(0.241 -0.09899 1.871e-21)
(-0.2074 0.0537 0)
(0.4543 -0.1902 -1.488e-21)
(1.174 -0.007588 1.214e-19)
(0.4291 -0.04635 6.215e-20)
(1.002 2.359e-05 -8.13e-23)
(0.2393 -0.01525 -6.529e-22)
(1.031 -0.07948 -1.149e-21)
(0.3982 -0.093 1.353e-22)
(-0.0002345 -0.001219 6.115e-24)
(0.935 -0.1468 9.568e-22)
(0.1164 0.02387 -1.766e-20)
(-0.1903 0.06683 1.305e-20)
(1.001 -3.837e-06 -2.162e-22)
(0.8039 -0.08581 1.293e-22)
(0.4161 -0.03518 -3.891e-21)
(-0.01576 0.005395 0)
(-0.1327 -0.01053 9.129e-21)
(-0.09023 0.03392 1.053e-20)
(-0.06957 0.00693 -3.165e-21)
(0.5348 0.4577 0)
(-0.123 0.03868 1.353e-20)
(0.452 -0.2452 2.66e-21)
(-0.1844 0.05518 -1.771e-21)
(0.4733 -0.1162 -3.052e-24)
(0.7372 -0.07829 3.799e-21)
(1.028 -0.107 2.259e-21)
(-0.1731 0.06484 4.809e-21)
(1.011 -0.1755 -2.438e-21)
(0.001243 -7.409e-05 0)
(0.8623 -0.2368 0)
(0.941 0.03549 3.318e-20)
(0.736 -0.1686 1.892e-22)
(0.6702 -0.291 2.408e-21)
(0.565 -0.05863 -8.807e-22)
(1.005 -0.000323 0)
(-0.0355 -0.01519 -9.792e-22)
(-0.1178 0.05005 -1.237e-20)
(-0.2042 0.07299 -4.211e-21)
(1.003 -2.36e-05 -1.614e-22)
(-0.008549 0.003198 0)
(-0.06443 0.02032 0)
(0.1408 -0.01844 4.421e-21)
(1.002 2.823e-05 4.697e-22)
(-0.02999 0.004703 3.709e-21)
(-0.1401 0.04443 0)
(-0.02931 0.005419 6.744e-21)
(-0.06397 0.00559 -4.77e-21)
(1.002 -2.672e-05 -4.026e-22)
(-0.207 0.07491 -6.844e-21)
(-0.00464 -0.002493 0)
(-0.0234 0.006938 6.72e-21)
(-0.09119 0.02318 0)
(0.9894 0.01193 -5.6e-21)
(-0.04977 0.005688 2.687e-21)
(0.06263 0.08368 0)
(1.016 0.002899 -1.195e-20)
(0.9833 -0.1836 -1.353e-21)
(0.9913 -0.2037 0)
(-0.04798 0.007009 -6.432e-21)
(-0.1022 0.03222 0)
(0.9323 -0.223 -1.931e-21)
(0.9238 -0.1454 0)
(0.1024 -0.01291 6.443e-22)
(-0.07014 0.02266 0)
(0.9993 -1.632e-05 -4.354e-22)
(-0.2072 0.07491 6.543e-21)
(-0.194 0.07436 6.808e-22)
(0.1232 -0.009713 0)
(0.2354 -0.03281 2.153e-21)
(1.156 0.1573 0)
(-0.2111 0.07378 0)
(-0.04606 0.01586 2.024e-22)
(0.9991 4.781e-06 1.99e-22)
(-0.1413 0.0483 -9.387e-21)
(-0.043 0.01266 0)
(-0.003793 0.008014 0)
(0.0002764 -0.008796 -6.699e-24)
(0.002243 0.008953 -2.865e-21)
(-0.05589 0.0194 2.913e-21)
(-0.0697 0.01484 -2.577e-21)
(-0.1593 0.03734 0)
(0.9729 -0.2224 0)
(1 -0.0002577 1.233e-20)
(4.903e-05 -1.941e-05 -4.33e-24)
(-0.09609 0.03044 1.134e-20)
(-0.05695 0.00901 9.646e-21)
(-0.04433 0.01585 8.515e-22)
(-0.2145 0.07675 -9.427e-21)
(-0.1066 0.0373 6.266e-21)
(-0.1025 0.03402 -2.896e-21)
(0.3491 -0.02635 0)
(1 -0.0002907 0)
(-0.1262 0.02871 0)
(1.074 -0.1303 -1.989e-23)
(1.002 -1.067e-05 0)
(-0.08146 0.0262 -9.272e-21)
(1.177 0.5149 0)
(0.72 -0.1102 2.607e-21)
(0.7801 -0.2797 -1.082e-21)
(1.003 -4.62e-05 -4.593e-21)
(-0.1277 0.04142 0)
(-0.07926 0.008866 0)
(1.008 0.002122 -3.461e-20)
(1.003 -5.141e-05 0)
(1.179 0.1343 0)
(-0.1772 0.07355 5.59e-21)
(-0.1998 0.03003 -2.107e-21)
(-0.1103 0.03869 2.974e-21)
(-0.2055 0.07361 6.279e-21)
(0.03227 0.0006472 6.18e-24)
(1.058 -0.1383 0)
(0.7098 -0.1725 -2.301e-20)
(1.002 -0.0008212 0)
(-0.1646 0.05533 -6.655e-21)
(-0.1714 0.06056 0)
(0.2952 -0.0175 -1.964e-21)
(0.1718 -0.0138 0)
(0.7001 -0.2405 -1.315e-20)
(1.003 -0.0002538 0)
(1.01 -0.00662 1.734e-21)
(0.991 0.007231 3.014e-20)
(-0.01515 -5.609e-06 9.169e-22)
(1.002 -0.0007707 4.396e-21)
(1.167 -0.02252 -4.725e-20)
(0.2122 -0.1278 5.233e-22)
(0.81 -0.1037 5.026e-21)
(0.1087 -0.01799 -2.217e-21)
(1.002 -0.001028 0)
(-0.1158 0.003425 -1.729e-21)
(0.7959 -0.09618 -3.236e-21)
(1 0.005048 0)
(0.2206 -0.02599 2.238e-21)
(0.9997 -0.000146 0)
(0.5706 -0.2922 4.19e-21)
(0.005485 0.003181 -1.769e-21)
(-0.04276 0.004903 -9.058e-23)
(0.3327 0.04625 0)
(0.09676 -0.002266 2.377e-22)
(1.002 -0.004754 2.113e-23)
(-0.02198 0.006049 0)
(0.8422 -0.184 -7.868e-21)
(0.1832 -0.01321 0)
(0.004845 -0.02236 -8.044e-22)
(0.1671 -0.01991 1.009e-21)
(0.3922 0.5453 -9.42e-22)
(1.155 0.1588 -7.103e-21)
(1.013 -0.1842 1.371e-21)
(0.7681 -0.2751 5.426e-23)
(0.02991 -0.0021 0)
(0.9991 0.005986 0)
(0.3408 0.03333 3.144e-20)
(0.3797 -0.1224 0)
(0.3437 0.0843 2.256e-22)
(-0.005005 -0.01984 3.868e-22)
(0.06157 -0.0111 0)
(1.003 -0.0002353 0)
(1.098 -0.1058 3.937e-20)
(-0.05983 0.02047 -7.819e-22)
(0.1179 -0.0288 1.472e-22)
(-0.007182 0.0001402 3.394e-21)
(0.6284 0.1421 0)
(0.005101 -0.005183 -3.491e-22)
(0.2961 0.06486 -8.39e-22)
(0.0003145 0.0001079 9.83e-22)
(-0.04607 0.01202 -5.506e-21)
(-0.04872 0.01703 1.812e-21)
(-0.1188 0.02941 5.64e-21)
(0.053 -0.003931 8.171e-22)
(0.9983 0.03539 1.002e-21)
(0.6572 -0.09542 0)
(1.003 7.158e-06 0)
(1.001 -1.988e-05 0)
(-0.07275 0.01357 8.997e-21)
(1.035 0.0418 1.094e-21)
(-0.06384 0.005735 7.164e-21)
(-0.2166 -0.04249 -2.242e-20)
(0.2526 0.4473 0)
(1.104 -0.102 -1.839e-20)
(1.047 -0.03429 -2.48e-20)
(0.9486 0.4151 1.818e-21)
(0.7041 -0.1635 -2.627e-22)
(1.01 -0.005556 2.622e-20)
(0.02134 0.03549 1.859e-22)
(-0.1739 0.06118 -2.144e-21)
(1.045 -0.03247 3.385e-20)
(-0.01713 0.003993 -8.767e-21)
(-0.00696 0.002488 -7.222e-22)
(-0.05845 -0.01559 0)
(0.9739 -0.2021 0)
(0.08071 -0.05595 -4.964e-21)
(-0.0702 0.02787 0)
(-0.09232 0.0323 0)
(0.9966 -0.001567 1.972e-20)
(-0.06458 0.005574 5.662e-21)
(0.4073 -0.09335 -1.293e-22)
(1.004 -0.00495 0)
(-0.02071 0.005182 4.103e-21)
(-0.1014 0.03139 0)
(-0.1591 0.06915 -2.788e-21)
(0.9997 -0.0001077 1.26e-21)
(0.8668 -0.002123 4.583e-21)
(0.1447 0.02005 0)
(0.02405 0.001017 1.221e-23)
(0.8398 -0.2823 -2.721e-21)
(-0.006892 0.00225 0)
(-0.1652 0.05611 6.041e-21)
(0.7029 -0.3087 0)
(0.7758 -0.1731 8.044e-23)
(-0.01142 0.003882 0)
(-0.05628 0.003968 1.6e-21)
(1.001 -1.254e-05 -8.19e-23)
(0.1662 -0.09749 0)
(1.11 0.3195 -8.128e-21)
(1.003 7.337e-06 0)
(0.7523 -0.2914 9.42e-23)
(0.001387 -0.0005582 5.137e-23)
(0.1721 0.02213 -9.929e-21)
(0.03987 0.009493 -4.605e-21)
(1.144 -0.04798 7.748e-21)
(1.042 -0.1637 9.243e-22)
(-0.005171 0.001666 6.592e-26)
(0.01698 -0.001668 -1.55e-22)
(0.3471 -0.03796 0)
(1.004 0.02961 -2.46e-21)
(0.9976 0.002302 5.929e-21)
(0.9836 -0.192 0)
(0.6767 -0.3011 -1.009e-21)
(-0.1299 0.04404 -1.271e-20)
(-0.01933 0.004397 0)
(0.2782 0.6577 -5.333e-21)
(0.2056 -0.08649 -1.028e-21)
(0.3574 0.0041 -1.19e-22)
(1.115 0.1414 -1.641e-20)
(0.2011 -0.08404 -9.895e-22)
(1.112 0.008636 4.383e-20)
(-0.02086 0.001582 0)
(1.005 0.0003501 0)
(-0.2195 0.07936 6.497e-22)
(0.007031 -0.0339 -2.526e-23)
(-0.08511 0.01968 -2.437e-20)
(-0.05167 0.01581 0)
(-0.1629 0.0541 0)
(0.9967 0.0008294 -1.731e-20)
(0.9864 -0.00354 1.178e-20)
(-0.05306 0.01866 0)
(0.9511 -0.194 3.96e-21)
(-0.1246 0.043 0)
(0.3787 -0.04796 0)
(-0.08291 0.0302 -2.998e-21)
(-0.2132 0.06542 -2.357e-21)
(0.1732 0.0258 -2.253e-21)
(0.08922 0.02215 -1.57e-21)
(-0.06144 0.004338 -7.536e-21)
(0.02912 -0.004353 -1.013e-21)
(-0.06296 0.006905 -6.316e-21)
(0.2513 -0.0172 1.331e-21)
(-0.034 0.01039 5.72e-21)
(1.045 -0.1286 -6.21e-21)
(-0.2161 0.07655 6.289e-21)
(0.3773 0.8474 5.579e-22)
(-0.1092 0.03825 -1.81e-22)
(0.005468 -0.03144 1.094e-22)
(2.715e-05 -8.821e-05 0)
(-0.1624 0.05376 0)
(1.005 -0.0003045 0)
(1.004 -0.001655 1.665e-20)
(-0.206 0.07538 4.691e-21)
(-0.2058 0.0701 0)
(1.035 -0.1669 7.973e-21)
(1.003 1.617e-05 0)
(0.6723 -0.3121 -2.838e-21)
(-0.1249 0.04004 6.79e-21)
(1.129 -0.07106 -2.269e-20)
(-0.09054 0.03084 0)
(0.1277 0.02317 -2.678e-20)
(-0.0559 0.01817 -6.841e-21)
(1.054 0.563 -8.181e-21)
(0.9999 0.0004477 -5.13e-20)
(1.016 -0.1727 0)
(1.148 -0.03104 -1.394e-20)
(0.1259 -0.04933 0)
(0.1574 -0.01149 0)
(-0.1211 0.03544 1.041e-21)
(0.736 -0.2193 1.208e-20)
(0.3433 0.03623 5.416e-20)
(-0.01904 0.003367 0)
(0.3636 -0.03042 -1.213e-21)
(1.007 -0.07404 0)
(-0.2045 0.05936 0)
(0.6617 -0.3078 3.043e-21)
(0.5543 -0.06348 3.683e-21)
(-0.1581 0.05569 0)
(0.1985 -0.0862 -1.171e-21)
(1.006 -0.007501 -8.347e-22)
(-0.009542 0.003448 0)
(-0.005837 0.001815 0)
(-0.1924 0.07389 0)
(-0.05755 0.008671 1.454e-20)
(0.05711 -0.0342 -6.922e-21)
(0.9996 0.01248 1.621e-21)
(-0.002541 0.0006497 1.465e-21)
(0.03329 -0.006027 0)
(1.001 -0.0001469 0)
(0.9998 -5.237e-05 -9.265e-21)
(-0.06983 0.005239 6.432e-25)
(-0.0859 0.02355 3.253e-20)
(0.0005371 -0.0002381 -5.174e-23)
(0.001715 -0.03094 4.006e-22)
(0.6795 -0.09857 -7.218e-22)
(0.4443 -0.1655 0)
(-0.06167 0.02036 -6.391e-21)
(1.024 -0.1686 0)
(1.064 -0.1357 0)
(1.004 -0.003855 4.623e-21)
(-0.05237 0.0177 -9.507e-21)
(-0.1291 -0.02539 0)
(-0.07941 0.02716 -7.299e-21)
(0.9948 -0.2064 0)
(-0.005289 0.0008976 2.257e-22)
(-0.1906 0.06773 -1.235e-20)
(1.002 -0.0006684 -4.875e-22)
(0.03176 -0.004283 0)
(-0.1278 0.04285 -5.398e-21)
(1 -0.0006361 -3.867e-20)
(-0.03661 0.005242 -2.899e-21)
(1.001 -0.0001532 -3.711e-21)
(0.9977 -0.002345 1.485e-20)
(0.9875 -0.1351 1.832e-21)
(1.007 -0.1494 0)
(-0.005805 0.0008268 -4.911e-21)
(1 -0.001217 3.588e-21)
(0.2231 -0.02588 -2.875e-22)
(1.002 0.003918 0)
(1.151 0.5233 0)
(1.016 -0.1355 4.878e-21)
(0.01286 0.02141 7.443e-21)
(1.078 -0.1226 -4.578e-21)
(0.296 -0.05882 -1.772e-22)
(0.3282 -0.04693 0)
(-0.0399 0.01162 1.287e-20)
(0.8939 -0.09954 6.596e-21)
(1.002 -0.001758 3.966e-21)
(1.019 0.01115 3.282e-20)
(-0.08326 0.01902 1.235e-20)
(0.549 -0.1023 5.437e-22)
(-0.1055 0.03674 -7.456e-22)
(-0.06345 0.0211 0)
(0.08005 -0.005068 2.327e-25)
(-0.05098 0.01661 -3.406e-21)
(-0.004732 0.001545 -5.825e-21)
(-0.05286 0.008295 1.23e-20)
(0.4326 -0.1204 0)
(-0.01926 0.003128 -1.001e-20)
(0.2993 -0.03204 -6.025e-22)
(0.1017 -0.01459 0)
(0.8123 0.3567 3.871e-21)
(-0.08636 0.03651 0)
(1.003 -0.005119 2.763e-21)
(-0.02333 0.004583 1.375e-20)
(-0.03448 -0.002956 1.312e-21)
(0.1636 -0.02661 0)
(0.9981 -3.768e-07 3.586e-21)
(0.3296 -0.2209 3.416e-21)
(-0.1463 0.05128 0)
(0.6925 -0.06486 5.95e-22)
(0.7268 -0.2021 1.56e-22)
(-0.06892 0.006441 -8.443e-22)
(1.073 -0.1309 -5.792e-21)
(-0.01314 0.00284 0)
(-0.12 0.0508 5.264e-21)
(0.7002 -0.06581 1.783e-21)
(-0.08905 0.02888 -9.497e-23)
(0.2937 -0.08122 -6.416e-22)
(0.005567 -0.02329 8.402e-22)
(1.001 -0.0003065 0)
(1.055 -0.06762 -5.39e-21)
(-0.02441 0.004394 0)
(1.001 -0.00567 0)
(-0.03132 0.006758 0)
(-0.03552 0.003622 8.303e-22)
(0.9992 -1.016e-05 1.518e-21)
(0.9848 -0.2133 -6.205e-22)
(-0.03478 0.006032 0)
(1.036 -0.01433 0)
(0.8303 0.3592 -1.61e-20)
(-0.04676 0.02452 0)
(0.04276 -0.01195 0)
(1.038 -0.145 -8.532e-21)
(1.003 1.739e-05 -9.459e-23)
(-0.03322 0.008177 -1.878e-22)
(-0.05812 0.01764 -3.912e-22)
(1.01 -0.001486 2.19e-20)
(0.8856 0.3236 7.804e-21)
(1.034 0.08291 5.111e-21)
(-0.1297 0.0419 9.927e-21)
(-0.03354 0.009289 -6.252e-21)
(1.015 -0.1788 -1.706e-21)
(1.047 -0.02832 0)
(-0.009493 0.00107 -1.988e-22)
(-0.001478 0.000489 1.88e-22)
(0.3178 -0.06777 2.552e-23)
(0.4174 -0.06682 -1.961e-21)
(-0.1863 0.06733 -3.207e-21)
(0.05309 -0.004436 0)
(0.9935 -3.542e-05 -3.685e-21)
(0.503 -0.05382 3.641e-21)
(1.003 0.005159 1.333e-22)
(-0.1457 0.04704 0)
(0.6207 -0.3021 -3.083e-21)
(-0.03926 0.006741 0)
(0.7193 -0.2 1.322e-21)
(0.009323 -0.01434 -2.156e-22)
(-0.00724 0.001091 0)
(0.9993 0.001829 -1.232e-20)
(-0.00194 0.0007137 0)
(-0.02809 0.009107 0)
(-0.02404 0.006986 3.294e-21)
(0.8361 -0.06899 5.505e-21)
(0.4601 0.1484 0)
(-0.1372 0.05527 -4.262e-21)
(-0.1018 -0.005357 9.605e-21)
(0.1401 -0.01008 0)
(0.7668 -0.1075 0)
(0.8864 -0.00664 -7.774e-20)
(0.008079 -0.0004051 1.926e-22)
(-0.1947 0.06705 3.135e-21)