/*--------------------------------*- C++ -*----------------------------------*\
  =========                 |
  \\      /  F ield         | OpenFOAM: The Open Source CFD Toolbox
   \\    /   O peration     | Website:  https://openfoam.org
    \\  /    A nd           | Version:  8
     \\/     M anipulation  |
\*---------------------------------------------------------------------------*/
FoamFile
{
    version     2.0;
    format      ascii;
    class       volVectorField;
    location    "35";
    object      U;
}
// * * * * * * * * * * * * * * * * * * * * * * * * * * * * * * * * * * * * * //

dimensions      [0 1 -1 0 0 0 0];

internalField   nonuniform List<vector> 
63579
(
(0.6785 0.2274 0)
(0.6811 0.4109 6.268e-22)
(0.6961 0.3183 0)
(0.6089 0.2765 1.812e-21)
(0.3765 0.5465 0)
(0.6241 0.3854 8.629e-23)
(0.317 -0.3251 0)
(1.03 -0.1619 6.633e-22)
(1.117 -0.1031 8.475e-23)
(1.093 -0.1759 0)
(0.9187 -0.4238 0)
(0.8027 -0.0542 5.422e-21)
(1.069 -0.1775 9.489e-22)
(1.247 0.3175 7.887e-22)
(0.8946 -0.08353 6.14e-23)
(1.261 0.3234 7.729e-22)
(1.122 -0.1035 3.97e-23)
(1.121 0.2896 0)
(1.098 0.2774 5.539e-22)
(0.9301 -0.4257 0)
(1.144 -0.1965 -2.33e-23)
(0.9502 -0.03536 2.886e-21)
(0.9998 -0.002556 -6.003e-21)
(1.117 -0.283 -2.051e-21)
(0.9992 -0.002747 5.731e-21)
(1.111 -0.1027 -1.389e-22)
(1.001 -0.01859 4.177e-22)
(0.676 -0.1805 -6.736e-22)
(1.002 0.001075 0)
(1.013 -0.2756 -5.499e-22)
(0.9984 0.0006422 3.128e-21)
(1.002 -0.01788 0)
(1.008 0.006027 8.965e-21)
(1.023 0.04262 0)
(1.118 -0.2829 1.023e-21)
(1.001 0.001472 -4.261e-21)
(0.9328 -0.4182 -2.539e-21)
(1.128 -0.1123 -1.261e-22)
(1.01 -0.2731 0)
(1.22 0.6132 0)
(0.9952 -0.0296 -6.465e-21)
(1.203 0.5922 0)
(1.05 -0.04369 1.047e-21)
(1.12 0.2825 0)
(1.001 0.001429 7.814e-21)
(1.145 -0.1968 -1.896e-22)
(0.9739 0.8357 0)
(1.131 -0.1302 1.258e-22)
(1.145 -0.175 -1.185e-22)
(0.9982 0.0006445 -2.34e-21)
(0.9007 -0.3529 -2.575e-22)
(1.005 -0.001304 3.538e-20)
(0.3258 -0.3258 -3.4e-21)
(0.3533 0.2432 9.16e-22)
(0.9957 0.02201 -1.652e-21)
(1.125 -0.1803 1.174e-22)
(0.9985 0.05481 0)
(1.008 0.006273 -4.715e-21)
(1.023 0.04193 -2.728e-22)
(1.005 -0.00149 -2.951e-20)
(1.028 -0.3632 -5.117e-22)
(1.096 -0.1109 -7.259e-23)
(0.9304 -0.4269 4.809e-21)
(1.023 -0.1359 7.618e-23)
(1.03 -0.007746 0)
(1.099 -0.3141 0)
(1.13 -0.103 -7.338e-23)
(0.8405 -0.4641 2.419e-21)
(1.029 -0.194 -2.609e-22)
(0.9904 0.04765 -7.602e-22)
(1.296 0.3097 4.511e-22)
(0.008278 0.08026 -2e-21)
(1.002 0.0009042 -1.938e-23)
(1.057 0.8336 -6.501e-24)
(1.132 -0.1217 -1.317e-22)
(1.143 -0.2194 3.498e-22)
(0.9018 -0.1619 0)
(0.5711 -0.4072 -8.828e-22)
(1.111 -0.1019 -1.328e-22)
(1.052 -0.3629 0)
(0.6436 -0.3181 2.034e-21)
(0.9966 -0.03047 5.848e-21)
(1.104 -0.2897 -3.836e-22)
(0.8599 -0.3099 2.64e-21)
(1.356 0.2691 -8.073e-23)
(0.9495 0.05626 2.601e-22)
(1.127 -0.1918 -5.809e-22)
(1.088 -0.3024 7.811e-22)
(0.9897 -0.001097 0)
(1.264 0.3736 -3.077e-23)
(1.124 -0.1134 -2.071e-22)
(0.9558 -0.03353 0)
(1.087 -0.3032 -8.03e-22)
(1.022 -0.0481 5.142e-21)
(1.099 -0.3155 -7.891e-22)
(1.046 0.151 0)
(0.3719 0.2603 0)
(1.119 -0.1033 0)
(0.9748 -0.04352 2.123e-22)
(0.3952 0.5876 -3.11e-22)
(1.001 1.821e-05 -2.165e-22)
(0.9998 3.628e-06 -5.117e-23)
(0.9893 0.03124 4.265e-22)
(1.021 0.01312 -1.853e-21)
(0.9262 0.01837 8.861e-22)
(0.8779 -0.0395 2.576e-21)
(1.012 -0.1136 -8.935e-22)
(1.139 -0.1944 -6.477e-22)
(0.8067 -0.05672 -1.297e-20)
(0.9957 0.02144 7.922e-22)
(0.9814 -0.00722 -1.305e-20)
(1.357 0.2725 8.306e-23)
(1.136 -0.2135 3.326e-22)
(1.013 -0.1126 -6.287e-22)
(1.255 0.3675 -2.118e-23)
(1.003 0.0104 0)
(1.143 -0.2191 -3.876e-22)
(1.109 -0.2917 2.765e-22)
(1.021 -0.04875 -2.289e-21)
(1.07 -0.1049 3.903e-22)
(1.021 0.01261 2.873e-21)
(1.052 -0.3627 -5.163e-22)
(1.143 -0.2231 0)
(0.9987 0.0009007 -2.111e-21)
(1.079 -0.1159 0)
(1.124 -0.2534 0)
(1.128 -0.2725 7.907e-22)
(0.9187 -0.3535 -1.146e-22)
(1.029 -0.007884 0)
(1.347 0.3474 -9.209e-22)
(1.101 -0.2688 4.719e-22)
(0.9158 0.1314 -3.935e-22)
(0.998 -0.05059 1.478e-21)
(0.9891 0.04717 0)
(0.548 -0.4187 0)
(0.7486 -0.2905 0)
(1.124 -0.2111 -9.096e-23)
(0.9889 -0.001144 0)
(1.143 -0.1761 1.401e-24)
(0.9808 -0.003698 -5.091e-21)
(1.067 -0.3024 -6.34e-22)
(0.9909 -0.001105 0)
(1.041 -0.03934 0)
(1.13 -0.1301 0)
(0.9896 0.00955 -6.783e-21)
(1.008 0.02002 -1.671e-22)
(0.9965 0.02335 9.067e-22)
(1.139 -0.1561 -1.233e-24)
(0.953 -0.03415 1.475e-21)
(1.068 -0.2026 0)
(1.069 -0.1057 -7.475e-22)
(1.125 -0.2105 0)
(0.9858 -0.01869 1.349e-21)
(0.9025 -0.3731 -2.092e-23)
(1.11 -0.1223 -3.482e-22)
(1.046 -0.2499 1.565e-21)
(0.9337 -0.2785 1.443e-21)
(1.123 -0.1799 1.258e-22)
(0.7506 -0.4267 -1.059e-21)
(1.139 -0.194 5.367e-22)
(0.9808 -0.007271 8e-21)
(1.134 -0.1194 -8.79e-25)
(1.144 -0.1706 0)
(1.125 -0.2726 -7.055e-22)
(0.9912 -0.001143 -1.585e-21)
(0.9844 0.0128 0)
(1.311 0.4182 4.158e-23)
(1.104 -0.1159 5.052e-22)
(0.9397 -0.01533 2.378e-21)
(1.026 -0.1602 1.538e-22)
(1.028 -0.0255 2.773e-21)
(1.124 -0.253 2.927e-22)
(1.313 0.4181 0)
(0.9098 -0.03748 -4.493e-21)
(1.218 0.429 1.657e-22)
(1.008 0.01969 1.06e-21)
(0.8981 -0.0834 -1.861e-22)
(1.001 1.405e-05 0)
(0.9998 2.838e-06 0)
(0.8988 -0.1563 0)
(0.9109 -0.3518 0)
(1.127 -0.1922 0)
(1.136 -0.213 -6.223e-22)
(0.3986 -0.1285 1.38e-21)
(1.138 -0.1559 3.595e-22)
(1.119 -0.1338 -4.148e-22)
(1.121 -0.1289 0)
(0.9332 0.05252 0)
(1.295 0.2707 -5.662e-22)
(0.981 -0.01557 1.259e-21)
(1.004 0.005033 1.109e-22)
(0.9897 0.0305 4.969e-22)
(0.9687 -0.008199 -1.331e-21)
(0.9831 -0.003435 -1.332e-22)
(0.5868 -0.2141 9.83e-22)
(1.026 -0.02714 -4.249e-21)
(1.098 -0.1199 4.306e-24)
(0.9792 -0.04214 -8.835e-21)
(1.117 -0.1084 -1.305e-22)
(0.978 -0.004692 -8.124e-22)
(1.054 -0.1377 0)
(1.118 -0.1395 1.71e-22)
(1.046 -0.2531 1.98e-21)
(0.9986 0.05394 0)
(0.9847 0.09422 -5.415e-24)
(1.01 -0.01344 3.874e-21)
(0.8883 -0.2511 0)
(1.123 -0.2807 -3.068e-22)
(1.117 -0.1021 0)
(0.8927 -0.2523 -1.977e-21)
(0.9314 0.05071 5.174e-22)
(0.9963 -0.04945 -3.992e-22)
(1.003 0.009978 -2.14e-22)
(0.9891 0.09354 0)
(1.136 -0.1356 -2.928e-22)
(1.132 -0.1081 -6.915e-23)
(0.9999 0.001387 -4.534e-21)
(1.125 -0.1135 9.244e-23)
(0.9323 -0.3941 0)
(1.127 -0.1608 -2.642e-22)
(1.029 -0.1923 0)
(1.026 -0.3619 -5.115e-22)
(1.117 -0.2096 -1.796e-22)
(1.006 -0.3927 6e-22)
(0.9995 0.001014 0)
(0.9612 0.1523 5.11e-22)
(1.093 0.2666 -3.308e-22)
(0.9824 -0.1815 0)
(1.009 -0.1324 -6.566e-22)
(1.005 -4.805e-05 4.775e-21)
(1.004 0.004931 0)
(1.141 -0.1691 1.055e-22)
(0.9509 -0.0344 -1.52e-21)
(0.985 -0.01765 1.397e-21)
(0.9943 -0.0008372 -1.923e-20)
(0.9165 -0.3588 2.349e-22)
(0.9627 0.05121 -1.243e-21)
(0.9796 0.01335 -1.873e-22)
(0.6855 -0.4536 -2.821e-22)
(0.9658 -0.008842 -5.43e-22)
(1.127 -0.1365 6.303e-26)
(1.135 -0.1352 -9.807e-23)
(0.894 0.05894 8.514e-22)
(1.115 -0.1323 -2.478e-22)
(1.13 -0.103 0)
(0.426 0.231 -1.62e-21)
(0.9925 -0.00055 4.078e-21)
(1.014 0.03861 -2.065e-23)
(0.9995 -6.725e-05 0)
(1.095 -0.1103 2.905e-22)
(1.007 -0.1006 0)
(1.008 0.0004581 1.126e-20)
(0.4934 -0.3643 0)
(0.8347 -0.4566 3.046e-21)
(0.6675 -0.4492 4.831e-22)
(1.125 -0.2728 -6.247e-22)
(0.9274 -0.3852 -3.915e-22)
(1.019 0.004303 0)
(0.9618 0.02983 0)
(1.298 0.4145 2.717e-23)
(1.129 -0.1124 1.704e-22)
(1.301 0.2939 -5.157e-22)
(0.4175 0.07007 4.101e-21)
(1.076 -0.08524 -1.296e-21)
(1.017 0.5196 -2.385e-22)
(0.9833 -0.001396 0)
(0.8382 -0.4541 -3.057e-21)
(1.015 0.03826 2.327e-24)
(1 -0.000366 0)
(0.985 0.01283 4.278e-23)
(1.03 -0.3658 2.643e-22)
(1.133 -0.1602 0)
(1.126 -0.1364 2.778e-22)
(0.994 -0.0003406 -4.081e-21)
(1.001 -0.3991 -7.622e-22)
(1.107 -0.1076 3.295e-23)
(1.005 -0.01666 0)
(1.132 -0.1216 -1.533e-22)
(0.8815 -0.04068 3.193e-21)
(1.006 -0.01501 1.667e-21)
(1.28 0.5602 0)
(0.9994 3.939e-06 -1.053e-21)
(1.07 -0.1201 1.232e-21)
(0.9056 -0.3973 5.396e-22)
(1.341 0.3407 -2.474e-22)
(0.9555 0.02028 1.382e-22)
(0.9966 -0.3609 -6.504e-22)
(0.9995 -6.715e-05 0)
(1.047 -0.2517 -2.9e-21)
(1.014 -0.3864 9.676e-22)
(1.022 -0.007159 6.347e-22)
(1.126 -0.1695 -3.245e-22)
(1.135 -0.1213 1.407e-22)
(1 0.002843 0)
(0.9997 0.003686 0)
(0.9201 0.1273 -1.974e-23)
(0.9912 0.5517 0)
(0.9831 0.01526 2.148e-21)
(1.005 0.000715 -2.204e-22)
(0.9967 -0.3487 0)
(0.9733 -0.4176 0)
(0.9266 -0.3862 4.985e-22)
(1.108 -0.2374 0)
(1.021 0.04098 0)
(1.001 -0.0004438 3.189e-21)
(1.129 -0.2545 0)
(1.002 -0.0008883 0)
(1.133 -0.1136 0)
(0.9782 -0.004569 1.539e-21)
(1.089 -0.1349 1.338e-21)
(0.9826 0.01475 1.128e-21)
(0.9965 0.0001046 2.7e-22)
(0.803 -0.4183 -1.62e-22)
(1.008 0.0004365 -1.117e-20)
(1.145 -0.1751 0)
(0.9944 -0.001095 1.868e-20)
(1.136 -0.1358 2.096e-22)
(0.9898 0.02302 1.124e-22)
(0.9897 0.009133 6.543e-21)
(1.134 -0.1515 4.096e-22)
(1.123 -0.1298 0)
(1.12 -0.1391 0)
(0.4267 -0.278 -2.128e-21)
(1.123 -0.1037 -3.283e-23)
(1.198 0.5872 -8.103e-24)
(1.092 -0.09864 0)
(1.003 -0.0008995 -6.414e-21)
(1.136 -0.2382 -9.449e-22)
(0.9873 0.01109 3.897e-21)
(0.4076 -0.1069 0)
(1.037 0.00638 2.625e-21)
(1.005 -6.058e-05 0)
(0.9959 0.02316 -1.648e-21)
(1.113 -0.1015 0)
(1.005 -0.393 3.026e-22)
(1.006 -9.278e-06 5.301e-21)
(1.004 -0.002819 -2.901e-21)
(1.099 -0.09646 -6.663e-23)
(0.9154 -0.3576 -2.539e-22)
(0.9332 -0.3954 1.262e-22)
(1.006 -4.073e-05 2.395e-21)
(1.11 -0.1754 0)
(1.001 -0.02908 -9.679e-21)
(1.005 0.0006791 2.076e-22)
(0.8406 -0.4671 -4.121e-21)
(1.037 0.008087 -3.865e-21)
(1.003 0.0005169 -5.294e-22)
(0.9277 0.01883 -3.951e-22)
(1.068 -0.1529 8.531e-22)
(1.019 -0.02893 -1.623e-21)
(1.11 -0.2555 2.193e-22)
(0.9152 -0.1928 0)
(1.1 -0.1367 -1.345e-21)
(0.9442 -0.02121 -2.464e-21)
(1.004 -0.001698 -1.722e-20)
(1.144 -0.1762 -8.178e-22)
(0.9848 -0.2684 -2.293e-21)
(0.6852 -0.08935 3.035e-21)
(0.9994 1.734e-05 2.87e-22)
(1.004 -0.001829 1.462e-20)
(1.077 -0.08435 4.992e-22)
(1.14 -0.2117 0)
(0.8168 -0.4446 1.313e-21)
(0.7737 -0.06585 0)
(1.117 -0.2915 0)
(1.018 0.003932 8.949e-21)
(1.008 -0.000621 1.788e-20)
(0.9683 0.1505 0)
(0.6912 -0.09687 -5.603e-21)
(0.9903 -0.4071 3.464e-21)
(0.9965 -0.4027 8.846e-22)
(0.9965 0.0001737 0)
(1.009 -0.1005 0)
(1.131 -0.2581 -7.051e-22)
(1.143 -0.1728 2.943e-22)
(0.9964 0.0001095 -2.478e-22)
(1.135 -0.1215 -1.819e-22)
(1.119 -0.09974 6.559e-23)
(1.06 0.8253 2.891e-23)
(0.8595 -0.4492 0)
(1.128 -0.2723 0)
(1.134 -0.1211 8.729e-23)
(1.134 -0.1196 8.39e-23)
(1.086 -0.1898 3.481e-22)
(0.9837 -0.2704 2.061e-21)
(0.9488 0.05438 -2.644e-22)
(1.135 -0.2503 2.534e-22)
(0.9635 -0.4021 4.25e-22)
(1.13 -0.1171 0)
(1.011 -0.0003127 2.007e-20)
(1.002 0.0005145 4.11e-22)
(1.09 -0.1326 8.839e-22)
(0.9958 0.0002043 -1.309e-21)
(0.9958 0.0001796 -1.249e-21)
(0.988 0.03317 4.03e-22)
(0.2711 -0.1844 3.312e-21)
(1.026 0.001412 0)
(1.138 -0.2042 0)
(1.101 -0.2224 5.277e-22)
(1.043 -0.2482 1.487e-21)
(1.143 -0.173 -2.783e-22)
(1.066 -0.1355 7.969e-22)
(0.999 2.676e-05 -8.079e-22)
(1.131 -0.1627 2.367e-22)
(0.9991 4.157e-06 9.982e-22)
(1.107 -0.2454 1.313e-22)
(1 -0.0003423 0)
(1.001 -0.0003878 -5.448e-21)
(1.132 -0.137 1.775e-22)
(0.9965 0.0001993 -9.532e-23)
(1.298 0.4125 -1.454e-23)
(1.144 -0.1706 -2.073e-22)
(1.038 -0.3559 -4.192e-22)
(1.006 0.0001984 -1.544e-21)
(1.018 0.004377 0)
(1.007 0.0002023 -1.359e-20)
(1.135 -0.146 1.972e-22)
(0.8231 -0.2213 2.235e-21)
(1.004 -0.001787 1.819e-20)
(0.8585 -0.305 -3.023e-23)
(1.001 0.0007154 -6.422e-22)
(1.006 -0.01587 0)
(0.9831 -0.01809 -2.322e-21)
(1.004 -0.001649 -1.637e-20)
(0.7863 -0.473 0)
(1.14 -0.1421 -1.189e-22)
(1.082 -0.1486 1.366e-23)
(0.9914 -0.003677 -7.599e-22)
(1.138 -0.1356 -2.093e-22)
(1.003 0.01248 3.155e-22)
(1.12 -0.1335 3.653e-22)
(1 -9.919e-05 4.343e-21)
(0.8808 -0.4327 3.38e-22)
(0.2308 -0.301 1.075e-21)
(0.9923 -0.02829 -6.34e-21)
(0.9175 -0.2075 -2.776e-21)
(1.113 -0.1473 0)
(0.6929 0.9007 2.795e-22)
(1.105 -0.1987 1.043e-21)
(0.942 -0.3349 7.285e-22)
(0.6941 -0.1308 6.31e-22)
(1.001 0.01535 -2.067e-21)
(1.074 -0.3431 5.561e-22)
(1.352 0.2316 0)
(1.023 -0.169 -1.442e-21)
(1.002 0.0007212 0)
(1.078 -0.248 -1.683e-21)
(0.2476 -0.3041 0)
(1.014 0.04852 0)
(1.144 -0.164 -6.167e-22)
(1.004 0.0004862 -1.202e-21)
(0.9967 9.797e-05 -1.82e-21)
(1.04 0.0164 -7.387e-21)
(0.3576 0.2174 -8.176e-22)
(1.121 -0.1147 3.391e-22)
(0.9688 -0.05635 3.743e-21)
(1.309 0.446 3.095e-22)
(1.133 -0.2546 -6.347e-22)
(1.01 -0.01302 0)
(0.9721 -0.05448 -5.897e-21)
(1.132 -0.2258 0)
(0.3428 -0.3391 6e-22)
(0.9869 0.001017 7.17e-21)
(1.131 -0.2583 0)
(0.9826 -0.01552 -4.131e-22)
(0.9995 -7.05e-05 0)
(0.9558 -0.01132 7.05e-21)
(1.023 -0.3325 0)
(0.9439 -0.3982 -1.38e-22)
(1.135 -0.2463 0)
(0.9969 7.775e-05 -9.602e-22)
(0.82 -0.4789 2.344e-21)
(1.005 0.0004867 -3.743e-22)
(0.9464 -0.3584 0)
(1.129 -0.1733 -3.93e-22)
(1.122 -0.1155 -4.003e-22)
(1.02 0.04145 7.951e-22)
(0.9949 0.00865 0)
(1.135 -0.214 -3.564e-22)
(0.8902 -0.3867 -7.493e-22)
(0.3509 0.4064 0)
(0.9852 -0.4102 -1.462e-21)
(0.9867 -0.4106 1.47e-21)
(1.011 0.001136 -1.01e-20)
(0.9911 0.006371 -1.173e-20)
(0.9675 0.009841 1.802e-21)
(1.026 -0.2121 0)
(1.134 -0.1483 0)
(0.6445 -0.09433 8.303e-22)
(1.136 -0.138 -3.315e-22)
(0.4154 0.5915 0)
(1.011 -0.0002552 -5.222e-21)
(1.009 -0.003743 7.102e-21)
(1.114 -0.1785 0)
(1.001 1.722e-05 4.956e-21)
(0.9069 -0.405 1.138e-21)
(1.115 -0.09715 3.373e-22)
(1.114 0.4197 -9.612e-23)
(0.9999 0.001369 4.202e-21)
(1.089 -0.1864 -6.836e-22)
(1 -0.3893 2.283e-21)
(0.8678 -0.2713 -1.482e-21)
(1.117 -0.1017 -1.565e-22)
(0.9208 -0.4114 -9.132e-23)
(1.135 -0.1297 4.249e-22)
(0.9753 -0.4226 1.76e-21)
(0.9855 -0.02048 0)
(0.3086 -0.3222 -2.63e-21)
(1.006 0.02703 -2.249e-22)
(0.6708 -0.1281 0)
(0.9956 -0.0004328 4.733e-21)
(1 -3.616e-05 0)
(1.144 -0.1638 4.339e-22)
(1.031 -0.3802 0)
(1.095 -0.1823 0)
(1.112 -0.1461 -1.993e-22)
(0.9965 -0.03428 0)
(1.117 -0.2248 7.724e-22)
(0.9921 -0.002245 2.025e-21)
(0.6616 -0.08738 -5.849e-22)
(0.9997 -0.001343 -2.852e-20)
(0.995 -0.0004259 -9.46e-22)
(0.9883 -0.003157 1.493e-20)
(1.14 -0.1522 0)
(1.04 -0.1631 6.335e-22)
(0.9988 -0.003312 -3.521e-21)
(1.119 -0.1332 3.819e-22)
(1.007 0.008963 0)
(1.294 0.4379 -1.276e-22)
(1.036 -0.1486 -1.347e-21)
(1.132 -0.1295 -1.282e-22)
(1.138 -0.2205 1.265e-21)
(1.138 -0.164 5.745e-22)
(1.136 -0.1245 0)
(0.9991 -0.003367 1.504e-20)
(1.026 -0.05277 -4.548e-22)
(1.144 -0.211 6.549e-22)
(1.109 -0.3043 0)
(1.119 -0.1166 0)
(1.067 -0.1317 -1.301e-21)
(0.8856 0.2357 0)
(0.9702 -0.0154 2.936e-21)
(1.113 -0.1904 1.332e-21)
(0.9964 0.0003639 0)
(0.7126 -0.4644 1.519e-21)
(1.13 -0.1074 -1.837e-23)
(1.106 -0.2993 0)
(1.122 -0.1395 5.161e-25)
(1.13 -0.1076 1.804e-23)
(1.106 -0.2993 0)
(0.9962 -0.0009822 -1.034e-21)
(0.9883 -0.0251 1.476e-21)
(0.9999 2.613e-06 -9.867e-22)
(1.11 -0.2334 0)
(1.013 -0.06541 0)
(0.9017 0.2373 -7.654e-22)
(1.08 -0.1583 0)
(1.001 2.293e-05 0)
(1.018 -0.003292 -2.547e-22)
(0.9481 0.2071 -4.527e-22)
(1.043 0.03051 0)
(1.136 -0.1929 5.341e-22)
(0.9789 -0.05221 4.916e-21)
(1.136 -0.2385 7.969e-22)
(1.142 -0.1767 -5.517e-22)
(0.9961 0.0004201 1.257e-21)
(1.128 -0.1159 1.452e-22)
(1.008 0.01146 -2.731e-21)
(0.847 -0.4031 0)
(1.107 -0.2987 1.756e-21)
(0.9988 0.005654 -7.998e-23)
(1.129 -0.1 -9.236e-23)
(1.347 0.3473 -5.777e-22)
(1.142 -0.1558 1.782e-22)
(0.8948 0.005032 1.171e-21)
(1.124 -0.2345 1.282e-21)
(1.141 -0.1689 4.861e-23)
(0.7547 -0.4492 0)
(1.146 -0.19 -2.776e-22)
(1.126 -0.136 -3.18e-22)
(1.119 -0.1131 -1.996e-24)
(1.078 -0.09795 1.423e-21)
(1.139 -0.2387 -5.912e-22)
(1.068 -0.1193 -6.312e-22)
(1.133 -0.1893 -1.777e-21)
(0.9997 3.587e-06 -1.06e-21)
(1.007 0.0004119 0)
(0.9267 -0.02479 -6.042e-21)
(0.9934 0.01005 -1.478e-20)
(1.141 -0.1519 2.778e-22)
(1.068 -0.2884 2.318e-22)
(1.139 -0.1407 -3.456e-23)
(1.139 -0.1628 0)
(0.9419 -0.3825 0)
(1.061 -0.07821 -8.461e-22)
(1.111 -0.2607 -9.377e-22)
(1.099 -0.156 3.941e-22)
(1.091 0.3158 3.024e-22)
(1.139 -0.1785 1.929e-22)
(1.027 0.07244 3.428e-22)
(1.007 0.008857 3.395e-22)
(1.125 -0.2561 0)
(1.004 -0.001427 -1.838e-20)
(1.138 -0.2122 0)
(0.6932 -0.1133 7.3e-22)
(1.029 0.006692 0)
(1.022 -0.03088 -3.666e-22)
(0.996 -0.02274 -4.337e-21)
(0.6971 -0.1486 0)
(1.104 -0.1972 6.293e-25)
(1.104 -0.2688 -2.212e-22)
(1.007 0.0006394 6.635e-21)
(1.003 3.617e-05 0)
(0.9968 0.0002915 0)
(1.001 0.0005104 5.847e-22)
(1.034 0.5052 -2.4e-22)
(1.132 -0.138 -2.935e-22)
(0.6466 -0.07667 8.108e-23)
(1.068 -0.2631 2.884e-22)
(1.1 -0.1327 -1.054e-21)
(1.003 8.289e-05 0)
(1.12 -0.2757 5.576e-22)
(0.6385 -0.09161 0)
(0.5887 -0.323 0)
(1.126 -0.1018 -7.222e-23)
(1.145 -0.18 0)
(0.6292 -0.2624 9.727e-21)
(1.005 -0.003182 1.578e-20)
(1.115 -0.09952 -4.127e-23)
(1.167 0.6826 0)
(1.003 1.064e-05 -8.605e-21)
(0.5246 0.8418 0)
(1.143 -0.1935 6.832e-22)
(1.14 -0.186 -1.856e-21)
(1.007 -0.002186 5.745e-21)
(1.035 -0.2858 -7.906e-22)
(1.006 0.02753 2.663e-23)
(1.129 -0.107 1.508e-22)
(0.493 -0.4445 0)
(1.106 -0.2039 0)
(1.129 -0.1223 2.28e-22)
(1.094 -0.2897 0)
(0.863 0.08825 1.148e-21)
(1.125 -0.2706 6.295e-25)
(0.6227 0.8822 0)
(1.009 0.002439 1.149e-20)
(1.044 0.6881 1.24e-22)
(0.9943 -0.01258 2.531e-21)
(1.129 -0.1604 0)
(1.005 -0.01253 3.625e-22)
(0.9953 -0.0004874 0)
(1.168 0.709 5.855e-23)
(1.086 -0.3351 0)
(1.002 0.00218 0)
(1.01 0.04295 0)
(0.9977 0.001592 -1.831e-21)
(1.007 -0.001283 2.323e-20)
(0.9998 5.519e-06 0)
(0.987 -0.007132 4.048e-22)
(1.035 -0.1614 -5.989e-22)
(1 -2.87e-06 5.215e-22)
(0.9402 -0.3808 1.334e-22)
(0.9399 0.07427 6.844e-22)
(1.14 -0.1562 2.98e-22)
(1.135 -0.1213 7.059e-23)
(1.131 -0.136 0)
(1.146 -0.1991 9.456e-22)
(1 -0.002921 3.233e-20)
(1.006 -0.3921 -2.66e-21)
(0.9969 0.01384 0)
(0.639 -0.08769 -9.337e-22)
(1.024 -0.3817 -1.292e-22)
(1.133 -0.1496 -5.071e-22)
(1.005 0.0001735 0)
(1.005 0.0002464 -9.363e-22)
(0.9505 -0.01383 -2.963e-21)
(1.139 -0.1411 -1.257e-22)
(1.103 -0.2187 0)
(0.7682 -0.3132 -4.334e-21)
(0.9291 -0.01824 -9.209e-23)
(1.131 -0.1482 -1.076e-25)
(1.065 -0.3445 -3.527e-21)
(1.033 -0.03605 -7.549e-23)
(1.126 -0.09932 0)
(1.143 -0.2162 0)
(1.134 -0.1464 4.786e-22)
(1.029 0.0076 -1.271e-21)
(0.8998 -0.09555 0)
(1.015 -0.06569 -7.819e-22)
(1.123 -0.2709 -5.14e-22)
(0.9729 -0.008382 3.318e-22)
(1.136 -0.1322 0)
(1.004 -4.955e-06 0)
(1.052 -0.3443 -3.761e-22)
(0.7012 -0.1209 4.918e-22)
(0.6048 -0.4732 -2.281e-21)
(1.115 -0.178 -2.081e-22)
(1.006 0.0003083 -1.89e-21)
(0.7276 0.8473 0)
(1.012 -0.0008803 0)
(1.076 0.1407 3.301e-22)
(1.143 -0.1626 -3.831e-23)
(0.8191 -0.4737 4.046e-24)
(0.9872 -0.1019 2.716e-21)
(0.7837 -0.4589 -1.26e-21)
(1.1 -0.0969 6.865e-23)
(0.9947 0.0001869 4.022e-21)
(0.9948 0.0002163 -3.867e-21)
(1.118 -0.1158 -3.412e-22)
(1.138 0.3007 -1.313e-22)
(1.292 0.373 -4.235e-23)
(1.097 -0.1036 1.799e-22)
(0.9623 -0.009418 -2.269e-21)
(1.036 0.03203 -5.186e-23)
(1.02 0.02301 2.667e-21)
(1.01 -0.001241 8.402e-21)
(0.9927 -0.003628 -4.444e-22)
(0.6815 -0.235 0)
(1.009 0.004691 5.129e-22)
(1.305 0.4368 6.703e-22)
(1.05 -0.2291 0)
(0.8711 -0.4176 0)
(0.9951 0.0004411 0)
(0.3395 -0.3774 -2.989e-21)
(0.2295 0.4786 -5.88e-22)
(1.005 -0.01819 6.254e-22)
(0.8794 0.828 0)
(0.08103 0.347 8.286e-22)
(1.023 -0.09169 -4.673e-22)
(0.9996 -0.0002753 7.104e-22)
(0.9981 0.0004814 -2.546e-22)
(0.9999 -8.113e-07 -6.018e-22)
(1.073 -0.2115 0)
(0.9995 -0.0005337 0)
(1.002 0.01051 0)
(0.3289 0.5394 1.657e-21)
(1.007 -0.001452 0)
(1.137 -0.1492 1.674e-23)
(1.014 -0.221 0)
(1.009 0.01739 7.514e-22)
(0.9998 -6.087e-05 7.53e-21)
(0.3092 -0.3436 -1.531e-20)
(1.093 -0.2993 4.445e-22)
(1.143 -0.1581 5.44e-22)
(1.034 -0.00251 0)
(1.103 -0.1701 0)
(0.9823 -0.1671 -6.799e-22)
(0.9962 0.0003344 0)
(1.037 -0.3047 0)
(1.033 -0.008016 -1.689e-21)
(0.9905 -0.4011 2.861e-22)
(0.9634 0.03059 1.171e-21)
(0.9996 0.00189 2.555e-20)
(0.9851 0.3122 -2.835e-22)
(1.028 -0.3744 -1.486e-22)
(0.4228 0.3215 0)
(1.125 -0.2566 6.799e-22)
(1.004 -0.003766 2.061e-21)
(1.074 -0.09969 1.899e-22)
(0.6414 -0.08676 -1.481e-21)
(1.121 -0.1559 5.321e-23)
(1.006 -0.06801 3.909e-21)
(0.9935 -0.3467 0)
(0.3063 0.7746 6.005e-22)
(1.351 0.2888 -1.071e-21)
(0.9947 0.0002975 5.092e-22)
(1.016 0.001776 9.479e-22)
(1.143 -0.229 0)
(0.9933 0.003448 0)
(1.006 0.001076 -3.066e-21)
(1.1 -0.1169 4.836e-22)
(1 -0.008069 1.043e-20)
(0.9454 -0.3988 1.53e-22)
(0.9519 -0.01378 0)
(1.119 -0.1128 -1.368e-22)
(1.005 0.004591 1.614e-21)
(1.109 -0.3036 -5.462e-23)
(0.8874 -0.462 3.268e-21)
(1.129 -0.1937 -1.728e-22)
(1.143 -0.1742 -5.125e-22)
(0.9443 -0.04395 7.201e-21)
(0.7024 -0.4758 -1.034e-21)
(0.9507 -0.4067 -6.02e-22)
(1.118 -0.1332 0)
(0.5144 -0.4555 0)
(0.9832 -0.3947 4.4e-22)
(0.9795 -0.08205 -1.584e-21)
(1.138 -0.1519 0)
(0.7784 -0.07424 0)
(1.137 -0.1307 1.258e-22)
(0.961 0.05058 9.832e-23)
(0.9744 -0.006847 -1.864e-21)
(0.6591 -0.1173 0)
(0.9622 -0.1016 0)
(1.122 -0.1458 0)
(0.9995 -0.0001205 -1.851e-21)
(0.9616 -0.1144 0)
(1.146 -0.1977 -2.072e-22)
(1.072 -0.1139 -8.495e-22)
(1.128 -0.1305 3.603e-22)
(0.9765 -0.05707 2.345e-21)
(1 0.001291 -2.624e-20)
(1.022 -0.1512 0)
(0.8627 -0.4015 5.728e-22)
(1.142 -0.2143 -4.049e-22)
(1.146 -0.1929 -7.451e-22)
(0.9968 0.0004246 -1.687e-20)
(1.14 -0.145 2.133e-22)
(0.7965 -0.2467 -1.681e-21)
(0.9397 -0.3793 -3.123e-22)
(0.9497 -0.03084 2.563e-21)
(1.127 -0.1031 7.101e-23)
(1.084 -0.1342 -1.218e-21)
(1.012 0.001385 1.382e-21)
(0.9837 0.06492 0)
(0.9958 0.0003767 -1.484e-21)
(1.099 -0.2583 3.919e-22)
(1.099 -0.2484 0)
(0.8606 -0.4148 -4.466e-23)
(1.119 -0.1576 0)
(0.9996 1.651e-05 7.826e-21)
(0.9965 -0.001004 0)
(0.973 -0.2339 2.378e-21)
(1.001 -0.0001206 4.553e-21)
(1.128 -0.1133 0)
(1.001 0.0006145 4.302e-24)
(0.9966 0.0007806 -1.511e-22)
(1.015 -0.02589 0)
(0.8396 -0.4069 6.107e-22)
(0.9453 -0.02222 2.975e-21)
(0.246 0.8108 -1.6e-21)
(1.118 -0.1018 -5.27e-23)
(1.132 -0.1152 0)
(0.9428 -0.4205 0)
(1.126 -0.1346 -1.365e-22)
(0.9803 0.008719 4.66e-21)
(0.8667 0.824 0)
(1.124 -0.1124 1.338e-22)
(1.143 -0.2229 -3.11e-22)
(0.9999 1.795e-05 5.692e-22)
(1.099 -0.3177 0)
(1.118 -0.1585 7.075e-22)
(0.6484 -0.112 0)
(1.14 -0.2402 0)
(1 0.06656 0)
(1.143 -0.169 -5.086e-22)
(0.6558 -0.09752 0)
(0.9989 -4.181e-06 -6.632e-22)
(0.347 -0.3483 1.54e-23)
(1.135 -0.1371 2.117e-22)
(1.004 0.0005315 7.933e-23)
(1.097 -0.0988 0)
(1.093 -0.1067 3.11e-22)
(0.9915 -0.00221 -3.161e-21)
(0.8158 -0.369 -7.344e-22)
(1.145 -0.1837 0)
(1.016 -0.1135 8.819e-22)
(1.021 -0.002741 8.545e-21)
(1.115 -0.1124 -4.4e-22)
(1.323 0.4932 -1.913e-22)
(1.124 -0.09927 8.208e-23)
(0.8464 0.9572 0)
(0.9223 -0.1218 -7.589e-22)
(0.9934 0.0002654 -6.064e-21)
(0.1736 0.4987 -1.267e-22)
(1.025 -0.3418 -1.009e-21)
(1.133 -0.1135 -2.29e-23)
(1.128 -0.1071 -1.704e-22)
(0.9938 4.885e-05 2.578e-21)
(1.14 -0.2323 8.843e-22)
(1.256 0.4017 -4.735e-22)
(1.069 -0.2499 4.725e-22)
(0.9633 -0.3143 -1.808e-21)
(0.9902 0.03773 -1.176e-21)
(0.9646 0.06175 7.471e-22)
(1.102 -0.1719 5.212e-22)
(0.9955 -0.02194 3.797e-21)
(1.137 -0.1288 3.139e-22)
(1.128 -0.1088 0)
(1.129 -0.1261 3.525e-23)
(1.132 -0.2199 2.114e-23)
(1.109 -0.3012 0)
(0.08987 0.3585 -8.174e-22)
(1.064 -0.1195 5.25e-22)
(1.146 -0.1897 2.786e-22)
(1.137 -0.1432 0)
(1.131 -0.1095 0)
(0.9963 0.000238 -5.33e-22)
(1.009 0.02032 4.464e-22)
(0.9972 0.001474 1.698e-20)
(1.117 -0.1607 -1.751e-22)
(1.146 -0.1938 -3.307e-22)
(0.4772 -0.2733 4.31e-21)
(0.9942 -0.04133 1.93e-21)
(1.099 -0.1059 0)
(1.069 -0.1304 -7.88e-22)
(0.8846 -0.02462 1.077e-20)
(1.121 -0.1535 6.369e-22)
(1.004 0.007433 1.888e-21)
(1.121 -0.1499 -3.08e-22)
(1.14 -0.1654 2.319e-22)
(1.117 -0.2255 5.767e-22)
(1.099 -0.1057 -2.826e-22)
(1.126 -0.1055 -1.29e-22)
(1.044 0.1465 -3.483e-22)
(0.0558 -0.007803 2.066e-21)
(1.021 0.001559 -6.078e-21)
(1.129 -0.1685 0)
(1.145 -0.2001 0)
(0.9871 -0.001313 0)
(0.9956 0.0002012 -6.322e-22)
(1.1 -0.1312 8.657e-22)
(1.009 0.05882 -2.788e-22)
(0.9996 -7.145e-05 -1.778e-21)
(0.9447 0.07568 0)
(1.123 -0.1454 -4.041e-24)
(1.003 -0.0001495 -3.241e-20)
(1.106 -0.139 3.442e-22)
(1.009 0.009871 -5.255e-21)
(1.035 0.004547 -2.327e-21)
(1.133 -0.115 0)
(1.005 -0.02093 -5.065e-22)
(1.114 -0.282 -7.244e-22)
(1.068 -0.07773 8.575e-22)
(1.132 -0.1184 7.702e-23)
(1.272 0.5672 -4.824e-22)
(0.6554 -0.1138 0)
(0.9854 0.01572 1.073e-21)
(0.9996 -0.0004547 -2.504e-21)
(0.9837 -0.3242 -2.134e-21)
(0.9926 0.007181 1.028e-20)
(1.283 0.4905 -1.92e-21)
(1.137 -0.217 0)
(1.004 0.0002043 0)
(0.9983 2.256e-05 -1.848e-23)
(1.119 -0.1166 -8.536e-23)
(0.5757 -0.4026 8.79e-22)
(0.9243 0.06773 4.49e-22)
(1.126 -0.134 -2.171e-22)
(0.9998 0.001381 -5.212e-21)
(1.099 -0.1071 3.099e-22)
(1.134 -0.2548 0)
(1.144 -0.1639 0)
(1.041 -0.09476 0)
(1.069 -0.2931 -5.564e-22)
(1.001 4.307e-06 0)
(1.135 -0.1382 6.888e-22)
(1.095 -0.3206 0)
(1.135 -0.2213 0)
(1.086 -0.3337 0)
(0.7028 -0.4892 -8.199e-21)
(1.037 -0.1274 -2.959e-22)
(1.004 0.0005287 1.3e-21)
(0.9966 0.0001106 2.192e-21)
(0.9082 -0.3461 -3.806e-22)
(0.9391 -0.4296 0)
(0.9951 -0.001011 -9.91e-21)
(1.01 0.01737 -6.004e-22)
(0.9124 -0.385 0)
(1.002 0.0009128 4.358e-21)
(0.9606 -0.2577 -3.367e-21)
(1.201 0.4488 -3.019e-22)
(1.068 -0.1517 -1.161e-21)
(1.12 -0.2752 0)
(0.9968 -0.1099 -7.845e-22)
(0.718 -0.4837 4.34e-21)
(1.329 0.3809 -1.961e-22)
(1.001 0.0008552 -2.711e-21)
(1.136 -0.1371 4.56e-22)
(1.138 -0.1689 -3.287e-22)
(1.142 -0.1569 -1.994e-22)
(1.014 -0.3763 -6.621e-22)
(1.135 -0.1275 -1.778e-22)
(1.005 -0.3995 -2.161e-21)
(1.141 -0.2345 -2.526e-22)
(0.8469 0.9363 0)
(0.4286 0.2493 -3.942e-21)
(0.9099 -0.3513 2.164e-22)
(1.136 -0.2153 0)
(0.959 -0.1404 -3.039e-21)
(1.113 -0.1438 4.199e-22)
(1.033 0.01148 4.294e-21)
(1 0.002653 -7.501e-21)
(1.139 -0.1444 4.267e-22)
(0.9517 -0.1438 -1.922e-21)
(0.9795 -0.1793 0)
(0.6265 -0.2784 5.423e-21)
(1.141 -0.1475 4.467e-22)
(0.9901 -0.0008565 2.296e-21)
(1.088 -0.1877 7.1e-22)
(0.996 0.0208 1.028e-21)
(0.1219 0.5913 0)
(1.134 -0.1599 0)
(0.9998 -1.149e-06 0)
(1.114 -0.1505 0)
(0.8957 -0.4487 1.134e-21)
(1.099 -0.1018 -4.952e-22)
(1.106 -0.2459 4.021e-22)
(1.023 0.07712 3.01e-22)
(0.9913 -0.4002 0)
(1.136 -0.1278 -2.226e-22)
(1.002 -0.009934 -2.675e-21)
(1.35 0.3262 5.064e-22)
(1.132 -0.1083 4.22e-23)
(0.9797 0.01268 0)
(1.142 -0.2259 8.874e-22)
(0.9092 -0.4427 0)
(0.916 -0.3761 4.169e-23)
(0.8633 -0.4137 7.053e-22)
(1.107 -0.1077 0)
(1.024 -0.3868 2.064e-21)
(1.27 0.3815 -3.077e-23)
(0.4711 -0.04692 3.93e-21)
(1 0.0006085 -8.347e-22)
(0.9869 0.02218 0)
(1 0.005394 4.776e-21)
(1.297 0.3046 -2.489e-22)
(1.029 0.008558 -1.236e-21)
(1.104 -0.2962 -3.313e-22)
(1.115 -0.1273 -1.835e-22)
(0.6146 -0.457 5.606e-22)
(0.9406 -0.01546 -3.375e-21)
(0.9963 0.0002189 2.627e-22)
(1.105 -0.104 -2.207e-22)
(1.133 -0.155 4.211e-22)
(1.147 0.6489 6.597e-23)
(0.9855 0.06781 0)
(0.9983 0.001399 7.492e-21)
(1.094 -0.2273 -1.748e-22)
(1.015 -0.01149 3.93e-21)
(1.136 -0.1263 -1.769e-22)
(0.2547 -0.1322 -2.079e-21)
(1.129 -0.1671 2.379e-22)
(0.9932 -0.4074 -1.993e-21)
(0.9743 -0.1322 1.167e-21)
(1.118 -0.09745 2.881e-23)
(0.8709 -0.1402 1.907e-21)
(1.139 -0.1405 1.333e-22)
(0.9157 -0.3455 0)
(1.005 -0.01172 -8.488e-21)
(1.132 -0.16 2.826e-22)
(0.9623 -0.1198 1.51e-22)
(1.327 0.2778 5.089e-22)
(1.269 0.5697 2.122e-22)
(1.004 -0.01833 0)
(1.095 -0.3016 0)
(1.089 -0.3283 0)
(1.022 0.002719 2.892e-21)
(1.095 -0.2897 -3.651e-22)
(1.295 0.4133 -8.649e-22)
(1.061 -0.3209 0)
(1.129 -0.1238 1.039e-22)
(1 1.01e-05 4.629e-23)
(0.9999 2.541e-06 -1.431e-22)
(1.121 -0.0985 0)
(1.065 -0.301 0)
(1.002 -0.001928 -4.216e-20)
(1.131 -0.2303 1.533e-22)
(0.9863 -0.0224 -5.901e-21)
(1.014 -0.01252 -6.747e-21)
(0.9471 0.2503 -2.837e-21)
(1.116 -0.2844 0)
(0.986 -0.007308 -4.482e-22)
(1.104 -0.09536 -3.273e-25)
(1.036 -0.1523 5.641e-22)
(1.138 -0.2122 0)
(0.9907 -0.0005759 -7.544e-22)
(1.121 -0.1676 0)
(0.9989 4.764e-06 9.044e-22)
(0.9984 2.037e-05 1.704e-21)
(0.9987 2.055e-05 1.388e-21)
(0.9977 4.658e-05 -3.203e-21)
(1.059 -0.07126 -1.244e-21)
(1.136 -0.2149 -3.617e-22)
(0.9731 -0.4168 8.257e-22)
(1.135 -0.1463 -2.482e-23)
(1.005 0.0003536 0)
(1.138 -0.133 0)
(1.136 -0.1449 -4.345e-22)
(0.8881 -0.07642 1.594e-21)
(1.138 -0.1346 1.411e-22)
(0.4782 -0.3219 -7.364e-21)
(1.126 -0.2737 3.695e-25)
(1.033 -0.1068 -3.557e-22)
(0.6807 -0.1717 -8.917e-22)
(0.8808 -0.4356 3.289e-22)
(1.01 0.01698 0)
(1.14 -0.2417 0)
(1.129 -0.1082 0)
(0.9245 -0.05227 -3.208e-21)
(0.8393 -0.3321 -9.353e-21)
(1.008 0.006877 -1.19e-21)
(0.9875 -0.004479 -8.364e-22)
(1.008 0.0001425 1.113e-21)
(0.899 -0.3679 1.994e-23)
(0.9623 -0.4008 -5.348e-22)
(0.9967 -0.0121 -2.21e-20)
(1.024 0.009342 3.274e-21)
(1.054 -0.04675 -9.465e-22)
(1.131 -0.1668 0)
(0.5269 -0.4569 2.215e-21)
(1.135 -0.1448 4.672e-22)
(1.093 -0.1174 0)
(0.9973 0.306 3.2e-22)
(0.9869 0.01073 6.473e-23)
(0.9858 -0.3934 0)
(1.014 0.01677 5.28e-25)
(1.005 -0.0175 -5.699e-22)
(0.9935 0.0003188 -3.38e-22)
(0.6046 -0.4678 9.511e-22)
(1.14 -0.2124 4.146e-22)
(0.9953 0.005122 -8.788e-21)
(1.068 -0.09128 -9.937e-22)
(1.143 -0.1741 2.513e-24)
(0.992 -0.0005937 0)
(1.064 -0.2015 7.575e-22)
(0.9294 0.869 3.32e-22)
(0.9989 0.000954 0)
(1 0.0008333 2.751e-21)
(1.044 -0.1352 0)
(1.035 0.02607 2.703e-21)
(1.312 0.3242 0)
(1.18 0.7178 -2.476e-22)
(0.8772 0.1535 -1.7e-21)
(1.119 -0.1282 -3.441e-22)
(1.007 0.01794 0)
(1.143 -0.198 3.937e-22)
(1.008 0.006597 0)
(1.12 -0.1337 -1.146e-22)
(1.191 0.5402 6.114e-22)
(0.6704 -0.1584 -1.12e-21)
(1.114 -0.1196 0)
(0.9416 -0.06718 0)
(1.008 -0.0006588 -6.748e-21)
(0.6718 -0.1519 1.251e-21)
(0.9826 -0.3935 6.416e-22)
(0.9996 0.0003343 -1.597e-21)
(1.015 -0.03091 -3.029e-21)
(1.124 -0.1398 -9.397e-22)
(1.004 0.01913 -1.661e-22)
(1.146 -0.1841 -4.075e-22)
(0.9129 -0.4282 -1.194e-21)
(0.316 -0.272 8.209e-22)
(1.108 -0.09906 3.314e-23)
(1.024 -0.09098 0)
(0.9396 -0.4299 -7.939e-22)
(0.9354 0.009091 0)
(1.111 -0.1382 0)
(0.9556 -0.4273 -9.648e-22)
(0.9937 0.01762 2.19e-21)
(0.7932 0.7147 1.967e-22)
(1 0.001563 -1.45e-20)
(1.146 0.5917 9.291e-24)
(0.7812 -0.4578 0)
(0.9988 2.379e-05 -2.311e-22)
(0.364 -0.2968 1.298e-20)
(0.9968 0.0003084 -2.405e-22)
(0.6985 -0.4754 1.422e-20)
(0.9671 -0.09544 -1.073e-21)
(1.134 -0.2506 0)
(0.2117 0.638 5.342e-23)
(0.8736 -0.1426 -1.904e-21)
(1.139 -0.1409 0)
(1.008 -0.0004966 -8.756e-21)
(1.138 -0.1351 -2.176e-22)
(1.031 -0.113 0)
(1.144 -0.1635 0)
(1.132 -0.259 0)
(1.024 -0.214 3.672e-22)
(0.9549 -0.02221 3.799e-21)
(1.079 -0.1332 2.601e-22)
(0.9426 -0.1795 4.881e-21)
(1.144 -0.1768 -3.995e-23)
(1.007 -0.03065 0)
(1.143 -0.1675 -6.92e-23)
(0.997 0.0003141 -2.739e-22)
(0.9749 -0.00971 -2.898e-21)
(1.131 -0.127 -1.24e-22)
(1.145 -0.1837 0)
(0.998 3.515e-05 1.06e-21)