/*--------------------------------*- C++ -*----------------------------------*\
  =========                 |
  \\      /  F ield         | OpenFOAM: The Open Source CFD Toolbox
   \\    /   O peration     | Website:  https://openfoam.org
    \\  /    A nd           | Version:  8
     \\/     M anipulation  |
\*---------------------------------------------------------------------------*/
FoamFile
{
    version     2.0;
    format      ascii;
    class       volVectorField;
    location    "50";
    object      U;
}
// * * * * * * * * * * * * * * * * * * * * * * * * * * * * * * * * * * * * * //

dimensions      [0 1 -1 0 0 0 0];

internalField   nonuniform List<vector> 
127143
(
(0.004773 -0.0001962 0)
(-1.422e-05 -0.0001198 -1.795e-24)
(-8.75e-05 -0.0004299 2.621e-24)
(-0.0001114 -0.0005115 8.202e-28)
(0.03185 0.009966 -3.489e-23)
(-9.203e-05 -0.0005359 7.869e-28)
(0.05103 0.03205 0)
(0.03462 0.01577 -2.432e-23)
(0.02829 0.01359 8.026e-23)
(0.04268 0.001448 0)
(0.03027 0.04165 -5.636e-22)
(0.03292 0.02174 -2.576e-24)
(0.00153 -0.0005786 -4.38e-25)
(-0.0001467 -0.0005945 0)
(0.2532 -0.2853 2.251e-21)
(0.08914 -0.007903 0)
(-0.0002864 -0.001429 -4.332e-24)
(0.7057 -0.07305 2.562e-21)
(0.5797 -0.143 0)
(0.1712 0.06188 0)
(0.741 -0.1753 1.852e-21)
(0.0234 -0.008243 0)
(1.021 -0.1755 0)
(0.7201 -0.06754 0)
(0.02288 -0.008721 -3.86e-23)
(0.4363 -0.06833 0)
(0.3534 -0.005969 5.099e-21)
(0.351 0.008711 -8.111e-23)
(0.3785 -0.1674 0)
(0.7635 -0.05715 -4.096e-21)
(0.6525 -0.03701 0)
(0.4197 -0.06443 1.814e-21)
(0.3825 0.0882 6.177e-22)
(0.3216 -0.08406 -3.938e-21)
(0.8844 -0.09796 1.657e-21)
(0.3767 0.09722 -1.336e-23)
(0.3932 -0.131 7.616e-22)
(0.9912 -0.1439 -6.594e-22)
(0.7722 -0.0713 1.264e-23)
(0.452 0.003271 5.282e-25)
(0.5792 -0.1417 0)
(1.085 0.3169 -4.856e-23)
(1.065 0.3041 6.862e-24)
(0.003159 -0.001053 0)
(0.7069 -0.06841 -2.634e-21)
(0.3319 -0.07943 1.226e-21)
(0.3877 -0.1772 0)
(0.4784 -0.1518 -1.528e-22)
(0.8017 -0.1395 -2.41e-22)
(0.7485 -0.06183 -1.427e-23)
(0.1061 -0.006956 -2.967e-23)
(0.9493 -0.04388 3.025e-21)
(0.9889 -0.1113 0)
(1.088 -0.03715 -9.028e-22)
(1.001 -0.002578 8.689e-22)
(0.713 -0.1815 6.641e-22)
(1.001 -0.002801 -6.713e-22)
(1.068 -0.096 0)
(1.002 -0.01661 -3.142e-21)
(1.089 -0.03361 -1.722e-21)
(0.6448 -0.1986 -5.179e-21)
(0.6324 -0.1764 -2.461e-22)
(0.9061 -0.06652 1.302e-22)
(1.002 0.001175 -1.977e-21)
(0.6743 -0.06158 0)
(0.9812 -0.2836 -1.207e-21)
(1.053 0.03843 1.903e-21)
(0.887 -0.069 0)
(0.8912 -0.06907 2.976e-23)
(0.9974 0.0006316 0)
(0.6819 -0.05515 0)
(0.3826 -0.003933 -2.116e-21)
(0.4974 -0.1019 -9.635e-22)
(1.004 -0.01582 -1.682e-21)
(1.008 0.006559 -2.772e-22)
(0.3834 0.009321 2.414e-21)
(1.017 0.0449 -1.131e-21)
(0.4735 -0.1493 0)
(0.7254 -0.1868 -1.279e-21)
(1.001 0.001465 0)
(0.374 -0.1697 3.614e-23)
(0.1873 0.05741 1.111e-23)
(0.461 -0.1092 1.295e-21)
(0.4725 -0.0251 0)
(0.4182 -0.1249 2.832e-22)
(0.4818 -0.1517 0)
(0.8183 -0.08154 8.296e-23)
(0.4072 0.03147 1.24e-21)
(0.9793 -0.2819 0)
(1.039 0.551 0)
(0.9974 -0.03027 0)
(0.9464 -0.1433 0)
(1.066 0.5572 0)
(0.7431 -0.1755 -1.912e-21)
(0.7187 -0.1435 0)
(0.9934 -0.02517 3.26e-22)
(1.085 0.3099 1.137e-22)
(0.5447 -0.04078 0)
(0.5691 -0.1678 5.004e-22)
(1.051 0.04239 0)
(1.001 0.001424 0)
(0.815 -0.1428 0)
(0.7394 0.6535 1.232e-22)
(1.03 -0.1213 0)
(0.4863 -0.153 -2.214e-22)
(0.5642 -0.1669 7.1e-22)
(0.9206 -0.1423 6.214e-22)
(0.9972 0.0006303 0)
(0.8565 -0.3561 0)
(1.006 -0.001268 3.666e-20)
(0.2641 -0.2887 -6.518e-22)
(0.4085 0.02799 2.391e-21)
(0.7395 -0.1624 -1.763e-21)
(0.3057 0.2259 0)
(0.994 0.02101 2.358e-21)
(1.049 -0.1747 6.638e-23)
(0.9921 0.05467 -3.812e-22)
(1.008 0.006803 -1.195e-21)
(1.017 0.0442 7.141e-22)
(-0.001391 -0.005725 0)
(1.006 -0.001457 -5.296e-20)
(0.451 -0.1144 -3.16e-22)
(0.898 -0.3254 0)
(1.072 -0.1104 -4.132e-22)
(0.3884 -0.1724 7.128e-22)
(0.3398 -0.0433 2.528e-21)
(0.6411 -0.1798 0)
(1.029 -0.002402 5.083e-21)
(0.9644 -0.08088 -3.156e-22)
(0.7086 -0.2038 -1.03e-21)
(0.5123 -0.1509 0)
(0.6518 -0.1486 -9.004e-22)
(0.9501 -0.08592 1.67e-23)
(0.4753 -0.1492 0)
(-0.0004322 -0.002539 -2.5e-23)
(0.5168 -0.1523 -3.323e-22)
(0.9521 -0.07125 0)
(0.7918 -0.1778 4.903e-22)
(0.4347 -0.2472 -4.525e-21)
(0.9926 -0.06312 4.941e-22)
(1.015 -0.2073 2.351e-21)
(0.9853 0.04634 1.835e-21)
(0.971 -0.1342 6.216e-23)
(0.8952 -0.1686 -1.185e-21)
(0.9914 -0.1115 -1.755e-22)
(1.207 0.32 2.925e-22)
(0.0004287 0.0339 2.888e-21)
(1.002 0.0009888 1.807e-21)
(0.6447 -0.1469 7.829e-22)
(0.7399 0.6065 6.06e-23)
(1.011 -0.1109 1.057e-22)
(0.8343 -0.1616 0)
(1.008 -0.1361 2.373e-21)
(0.8897 -0.1802 0)
(0.5031 -0.3819 0)
(0.4217 -0.1251 0)
(1.068 -0.09514 5.258e-23)
(0.6811 -0.2387 0)
(0.4798 -0.152 -2.851e-22)
(0.5183 -0.04471 2.769e-23)
(0.7064 -0.04292 0)
(0.09742 -0.05186 7.292e-21)
(0.9985 -0.03086 1.501e-22)
(0.5129 -0.1511 -8.864e-22)
(0.5586 -0.1437 0)
(0.7063 -0.0662 1.475e-21)
(0.3876 -0.1278 -4.273e-22)
(0.8302 -0.3238 1.423e-21)
(0.9237 0.1951 -6.226e-22)
(0.9399 0.05306 -1.368e-22)
(0.1629 -0.05982 0)
(0.8936 -0.1686 5.526e-22)
(1.042 -0.1838 3.508e-22)
(0.9711 -0.2774 -1.378e-21)
(0.9854 -0.0008607 2.094e-20)
(0.3051 -0.1086 9.401e-24)
(1.183 0.3849 -2.133e-23)
(0.9637 -0.08021 -3.046e-22)
(0.7629 -0.07725 0)
(0.9535 -0.03292 1.352e-21)
(0.971 -0.2779 -4.8e-22)
(1.017 -0.04304 0)
(0.2903 -0.1074 1.457e-22)
(0.3058 -0.1088 -9.593e-24)
(0.718 -0.2088 2.006e-21)
(0.6355 -0.1766 4.368e-22)
(1.024 0.1706 -8.566e-23)
(0.3237 0.2434 -7.841e-22)
(0.7395 -0.06987 5.701e-24)
(0.9758 -0.04032 3.689e-21)
(0.9286 -0.1195 1.394e-22)
(0.8573 -0.1085 -9.933e-22)
(0.956 -0.06965 3.381e-21)
(0.3338 0.5486 -6.977e-22)
(-0.0002113 -0.002637 4.172e-23)
(0.7096 -0.185 0)
(1.001 1.982e-05 0)
(0.9999 4.199e-07 -1.209e-22)
(0.07894 0.04772 0)
(0.9866 0.02956 5.497e-22)
(1.02 0.01497 2.364e-21)
(0.9187 0.01157 5.304e-21)
(0.8585 -0.04139 -3.092e-21)
(0.4001 -0.1329 -3.633e-22)
(-0.0001956 -0.001215 5.866e-25)
(0.8628 -0.05209 2.001e-22)
(1.012 -0.1254 9.117e-22)
(1.006 -0.1755 -1.17e-22)
(0.7706 -0.0602 5.637e-21)
(0.994 0.02044 -1.189e-21)
(0.903 -0.123 9.713e-22)
(0.3871 -0.1228 2.009e-22)
(0.9833 -0.01012 2.598e-21)
(0.9331 0.1961 -6.441e-22)
(0.478 -0.1417 -7.909e-24)
(0.1025 0.01091 0)
(0.1085 -0.03866 -2.644e-22)
(1.005 -0.1931 8.148e-22)
(0.6523 -0.1614 -1.218e-21)
(1.013 -0.1242 1.968e-22)
(1.181 0.3817 -3.153e-23)
(1.003 0.01039 -9.508e-21)
(0.8278 -0.1604 -2.469e-22)
(1.009 -0.1072 1.699e-22)
(0.4877 -0.04342 0)
(0.1604 -0.05837 0)
(0.6226 -0.1604 -1.254e-21)
(0.9949 -0.1422 6.856e-22)
(0.2347 -0.08254 3.352e-22)
(0.5955 -0.1737 8.068e-22)
(0.7414 -0.1731 1.178e-21)
(1.017 -0.0442 1.765e-21)
(0.5054 -0.1041 1.918e-21)
(0.002214 -0.02192 0)
(0.7424 -0.1732 0)
(1.063 -0.1065 -5.809e-22)
(0.513 -0.1513 4.204e-22)
(0.01024 -0.001562 1.603e-23)
(1.02 0.01448 -2.495e-21)
(0.9419 -0.1251 6.868e-22)
(0.8654 -0.1094 9.084e-22)
(0.7851 -0.05136 -2.061e-21)
(0.376 -0.1253 -9.162e-23)
(0.6926 -0.2429 -1.072e-24)
(1.053 -0.1046 0)
(-0.001129 -0.005919 3.289e-26)
(0.8894 -0.1764 1.021e-21)
(0.3439 -0.006491 0)
(0.01663 -0.004592 4.453e-22)
(0.9971 0.0009958 -6.702e-21)
(1.201 0.2324 -9.259e-22)
(0.4454 -0.0487 -4.65e-22)
(0.9905 -0.2289 0)
(0.8331 -0.172 0)
(0.7965 -0.1916 9.984e-22)
(0.8717 -0.3548 0)
(1.029 -0.002649 -4.676e-21)
(1.009 0.2731 0)
(1.009 -0.2543 0)
(0.8923 0.1356 5.182e-22)
(0.7442 -0.1856 -9.014e-22)
(1.001 -0.0523 -1.27e-21)
(0.9501 -0.1411 1.263e-23)
(0.9841 0.04574 -1.506e-21)
(1.059 -0.08466 0)
(0.7477 -0.06006 -6.828e-22)
(0.3751 -0.1186 1.088e-21)
(0.4706 -0.3804 0)
(0.7169 -0.3066 3.402e-21)
(1.106 -0.06601 -7.048e-22)
(0.5946 -0.1078 0)
(0.9846 -0.0009807 -2.413e-20)
(0.4891 -0.1538 -2.421e-22)
(0.9385 -0.1257 -7.29e-22)
(0.9509 -0.06455 1.945e-22)
(0.9344 -0.1195 -6.664e-22)
(0.7417 -0.1632 0)
(0.8361 -0.1297 -1.007e-21)
(0.9743 -0.003421 1.578e-21)
(0.9867 -0.2901 7.222e-22)
(0.9897 -0.001355 -3.044e-21)
(0.9791 -0.02065 6.008e-24)
(1.033 -0.1214 4.226e-25)
(0.9893 0.007897 0)
(1.006 0.02035 -5.196e-22)
(-0.001005 -0.002597 -6.121e-24)
(0.5558 -0.1545 0)
(0.9947 0.02243 1.103e-21)
(0.8124 -0.1123 -6.702e-22)
(0.95 -0.03381 2.987e-21)
(1.009 -0.1355 -2.904e-21)
(1.042 -0.2108 0)
(1.062 -0.1076 5.724e-22)
(1.036 -0.2003 0)
(0.9885 -0.021 -2.429e-21)
(0.8471 -0.369 -4.518e-23)
(0.6372 -0.05355 2.787e-23)
(0.1658 -0.07211 -1.633e-22)
(0.3759 -0.1257 3.454e-22)
(1.106 -0.06492 4.053e-22)
(0.584 -0.06373 1.232e-22)
(1.013 -0.257 -2.095e-22)
(0.9099 -0.2932 -1.163e-21)
(1.051 -0.175 -7.571e-22)
(0.4688 -0.03566 0)
(0.6749 -0.4036 5.394e-24)
(1.008 -0.176 -4.074e-23)
(0.9826 -0.01025 0)
(0.7797 -0.182 -6.587e-24)
(0.9785 -0.1045 1.408e-22)
(0.9051 -0.1376 5.352e-22)
(0.1209 -0.09677 -3.888e-23)
(0.6959 -0.1686 0)
(0.9903 -0.001372 -1.389e-21)
(0.9838 0.0105 -4.522e-21)
(1.15 0.392 3.27e-23)
(0.9876 -0.1437 3.537e-22)
(0.5658 -0.05967 -2.374e-22)
(0.99 -0.1153 2.255e-21)
(0.9238 -0.01541 6.339e-21)
(1.018 -0.1739 0)
(0.6622 -0.04675 -2.049e-22)
(1.027 -0.01689 1.346e-21)
(0.9899 -0.2283 3.533e-22)
(1.147 0.3894 0)
(1.015 -0.1266 -6.054e-22)
(0.9021 -0.0484 2.39e-21)
(0.326 -0.004989 -2.432e-23)
(0.7132 0.03686 2.674e-22)
(1.144 0.441 1.886e-22)
(0.5875 -0.1727 0)
(1.007 0.02006 4.458e-22)
(0.8883 -0.09777 -4.884e-21)
(1.001 1.53e-05 0)
(0.9999 3.872e-07 0)
(0.8867 -0.1745 0)
(0.8659 -0.3545 -2.293e-22)
(1.043 -0.1844 3.622e-22)
(0.5864 -0.1724 -3.166e-22)
(0.5581 -0.151 -2.74e-21)
(0.9928 -0.06156 -2.034e-21)
(1.004 -0.1929 0)
(1.001 -0.1138 1.513e-22)
(0.9421 -0.1193 1.071e-22)
(0.3566 -0.1415 7.893e-24)
(0.8088 -0.112 4.752e-22)
(0.539 -0.1291 -8.72e-22)
(0.766 -0.1513 6.121e-22)
(0.6196 -0.07395 3.823e-22)
(0.9651 -0.06264 0)
(0.6328 -0.07146 -2.637e-22)
(0.653 -0.1603 7.531e-22)
(0.3128 -0.1091 -1.739e-22)
(0.9376 -0.1193 4.772e-22)
(0.9221 0.04851 0)
(0.5428 -0.1321 -2.024e-21)
(0.8303 -0.172 -7.021e-22)
(1.215 0.2858 -2.325e-22)
(0.9799 -0.01532 2.904e-21)
(0.6988 0.04045 0)
(0.4996 -0.1545 -4.11e-22)
(0.9177 -0.06724 3.526e-23)
(0.7577 -0.1325 -1.898e-21)
(0.7576 -0.05482 0)
(0.7541 -0.06427 -2.327e-23)
(1.004 0.005244 -5.982e-23)
(0.987 0.02887 -1.732e-21)
(0.956 -0.007409 0)
(0.5316 -0.0996 7.546e-22)
(0.9764 -0.003007 0)
(0.5499 -0.2298 5.211e-21)
(1.026 -0.0186 -2.918e-21)
(0.505 -0.05464 3.795e-22)
(0.7422 -0.05641 1.262e-22)
(0.9803 -0.03878 0)
(1.012 -0.07813 -1.35e-22)
(0.6763 -0.06364 -7.241e-23)
(0.03484 -0.03854 9.786e-26)
(0.5589 -0.167 -1.332e-21)
(0.9716 -0.004622 6.428e-22)
(0.8249 -0.1665 -4.072e-21)
(0.3846 -0.04908 -2.264e-21)
(0.6535 -0.08241 0)
(1.012 -0.2597 -1.185e-21)
(0.9923 0.05376 0)
(0.1838 -0.01274 0)
(0.9684 0.09941 0)
(0.4679 0.002287 0)
(0.7078 -0.1845 -2.611e-22)
(0.906 -0.1704 -2.471e-21)
(1.011 -0.01121 -6.798e-21)
(0.8684 -0.2694 0)
(0.1999 -0.07089 3.102e-22)
(0.7954 -0.2013 1.029e-21)
(0.7346 -0.06782 -2.569e-23)
(0.6211 -0.04412 1.252e-22)
(0.8728 -0.2705 -1.062e-21)
(0.6753 -0.0376 0)
(0.9205 0.0465 0)
(0.9989 -0.05138 0)
(0.4157 -0.03361 -1.129e-22)
(1.002 0.009964 3.982e-21)
(0.7881 -0.1715 0)
(0.2943 -0.108 0)
(0.9728 0.09918 0)
(0.9965 -0.1209 -2.023e-22)
(0.4968 -0.1555 -1.266e-21)
(0.9465 -0.091 -8.178e-23)
(0.9999 0.0013 -5.278e-20)
(0.78 -0.07942 0)
(0.8475 -0.3722 0)
(0.6234 -0.08718 1.253e-21)
(1.015 -0.2058 -2.372e-21)
(0.5009 -0.1566 0)
(0.9042 -0.3275 0)
(0.7254 -0.1443 -7.815e-22)
(0.6136 -0.1685 -1.28e-21)
(0.5501 -0.1027 0)
(1.051 -0.1117 4.766e-22)
(0.7982 -0.3171 -7.404e-22)
(0.3915 -0.1293 0)
(0.1024 -0.03606 -1.297e-21)
(0.4668 -0.136 0)
(0.998 0.001133 2.191e-21)
(0.5923 -0.173 -9.987e-22)
(0.9372 0.162 -2.794e-22)
(1.06 0.293 8.4e-24)
(0.9732 -0.1982 -1.302e-21)
(0.8065 -0.05653 1.932e-21)
(1.006 -0.1463 -6.899e-22)
(1.006 -2.566e-05 0)
(0.4619 -0.1362 0)
(0.3052 -0.1065 0)
(0.8645 -0.1359 5.728e-21)
(1.14 -0.01947 9.842e-23)
(1.004 0.005157 1.459e-21)
(0.9968 -0.1514 -3.82e-22)
(0.579 -0.1309 -1.542e-21)
(0.9502 -0.04278 -1.598e-21)
(0.9877 -0.02006 0)
(0.9954 -0.001861 -2.645e-21)
(0.7652 -0.06336 2.586e-23)
(0.9465 -0.07333 -1.789e-21)
(0.8671 -0.3585 2.552e-22)
(0.9555 0.04807 0)
(0.5617 -0.04272 -8.012e-24)
(0.9788 0.01048 6.374e-21)
(0.5783 -0.3992 0)
(0.9531 -0.008166 -8.827e-22)
(0.3872 -0.1218 1.79e-22)
(0.6774 -0.1758 0)
(0.6943 -0.08703 -7.025e-24)
(1.004 -0.1215 4.244e-22)
(0.537 -0.09216 4.767e-21)
(0.8774 0.05483 7.011e-23)
(0.3974 -0.1315 -1.373e-22)
(0.5781 -0.06817 1.951e-22)
(0.8559 -0.0494 0)
(0.4247 -0.1387 0)
(1.055 -0.1082 6.021e-22)
(0.9574 -0.08674 -1.073e-23)
(1.022 -0.08328 4.581e-22)
(0.8599 -0.18 0)
(0.3788 0.2178 -3.991e-21)
(1.015 -0.08374 9.328e-25)
(0.9887 -0.0002554 0)
(1.01 0.03954 0)
(0.8744 -0.1561 0)
(0.4757 -0.1255 9.897e-22)
(1.001 -9.277e-05 0)
(0.5978 -0.1727 6.429e-22)
(0.9758 -0.1329 1.503e-21)
(1.072 -0.1095 6.13e-22)
(0.9895 -0.1433 -1.134e-22)
(1.008 -0.111 1.148e-21)
(1.009 0.0005668 0)
(0.4366 -0.3495 -2.667e-21)
(0.979 -0.1306 -1.36e-21)
(0.2383 -0.08271 -2.597e-22)
(1.027 -0.1112 2.869e-23)
(0.3634 -0.1948 4.791e-22)
(0.5692 -0.3999 -5.363e-22)
(0.7326 -0.1087 4.232e-22)
(0.696 -0.167 0)
(0.855 -0.3708 0)
(1.14 -0.01892 -1.017e-22)
(1.034 -0.1128 -2.017e-23)
(1.019 0.00605 4.174e-21)
(0.5583 -0.04707 -6.778e-23)
(0.9581 0.02552 2.784e-21)
(1.167 0.4016 1.038e-23)
(0.8338 -0.08351 -7.086e-23)
(0.9812 -0.1079 0)
(1.21 0.3047 1.377e-22)
(-0.0003483 -0.002127 0)
(0.4866 -0.1466 1.075e-21)
(0.3735 0.0559 5.623e-22)
(1.062 -0.07429 -2.621e-23)
(0.9557 0.5312 -4.561e-22)
(0.9845 -0.003974 -1.87e-20)
(0.3594 -0.1995 0)
(1.011 0.03931 1.158e-24)
(0.356 -0.1209 0)
(0.7163 -0.1856 -9.477e-22)
(-0.0002548 -0.001485 0)
(0.007469 0.009055 4.14e-23)
(0.01183 -0.004085 -8.36e-24)
(1.001 -0.0004915 -2.737e-20)
(0.5481 -0.1337 0)
(1.13 0.03842 0)
(0.9843 0.01061 9.519e-21)
(0.5324 -0.1609 6.214e-22)
(0.8856 -0.3219 1.613e-21)
(0.4513 -0.1418 8.124e-22)
(1.032 -0.1502 0)
(0.6736 -0.1749 0)
(0.6883 -0.08511 2.771e-22)
(0.599 -0.1736 -6.598e-22)
(0.256 -0.04912 5.296e-22)
(0.9904 2.176e-05 0)
(0.3594 -0.1133 -2.603e-22)
(0.01614 -0.005851 0)
(0.7729 -0.3128 4.743e-22)
(0.5928 -0.05836 -2.289e-23)
(0.172 -0.0625 1.329e-22)
(1.006 -0.01456 -2.139e-21)
(1.015 -0.1108 1.05e-22)
(0.864 -0.04247 -7.715e-22)
(0.8639 -0.1797 1.044e-21)
(1.003 -0.01304 0)
(0.5175 -0.04203 0)
(0.7716 0.3399 0)
(0.2114 -0.0744 -4.64e-22)
(0.9999 -8.976e-06 0)
(0.8732 -0.1557 -5.498e-22)
(1.06 -0.1259 5.269e-22)
(0.1357 -0.05308 6.684e-25)
(0.8289 -0.3797 2.998e-22)
(0.8411 0.2194 1.692e-22)
(0.826 -0.1822 -4.085e-22)
(0.9522 0.01512 1.998e-22)
(0.3018 -0.1029 -2.328e-22)
(0.9127 -0.3429 -7.348e-22)
(1.001 -8.692e-05 1.682e-22)
(1.013 -0.2585 1.577e-21)
(1.048 -0.1138 -3.347e-21)
(0.659 -0.05633 -2.358e-23)
(0.7656 -0.05478 1.078e-22)
(0.4599 -0.1214 -1.071e-21)
(0.2764 -0.09268 2.476e-22)
(0.7109 -0.1849 4.675e-22)
(1.122 -0.05069 0)
(0.8226 -0.3205 5.78e-22)
(0.4343 -0.1398 0)
(0.4693 -0.138 2.593e-23)
(1.022 -0.003984 -5.853e-22)
(0.4941 7.168e-05 8.94e-23)
(0.5659 -0.1583 -5.133e-22)
(0.6174 -0.093 -1.231e-21)
(0.9397 -0.1015 2.125e-22)
(0.4012 -0.133 3.461e-22)
(1 0.002712 0)
(0.9997 0.003479 1.16e-20)
(0.8973 0.1313 -8.329e-22)
(0.5319 -0.1272 -4.391e-22)
(0.9265 0.5593 0)
(0.9822 0.0128 -4.769e-21)
(1.004 0.0007957 -2.583e-21)
(0.9273 -0.3379 0)
(0.7053 -0.3062 0)
(0.4881 -0.1538 4.148e-22)
(0.8536 -0.3714 0)
(0.2214 -0.07431 1.064e-21)
(0.1459 -0.0483 0)
(1.034 -0.2298 -3.299e-22)
(1.016 0.04286 0)
(1.003 -0.0004341 2.233e-21)
(0.2171 -0.07699 4.279e-22)
(0.604 -0.1718 -4.993e-22)
(0.9619 -0.2214 1.062e-21)
(1 -0.0003453 1.759e-20)
(0.3784 -0.006139 1.119e-21)
(0.9584 -0.0969 0)
(0.5406 -0.1464 9.616e-22)
(0.9719 -0.004498 -2.952e-21)
(0.4998 -0.06132 -8.793e-23)
(0.9817 0.01225 7.542e-21)
(0.503 -0.1572 -2.003e-22)
(0.3034 -0.1026 0)
(0.8761 -0.1757 5.001e-23)
(0.997 1.548e-05 -2.927e-21)
(0.3403 -0.1116 -9.854e-22)
(0.7457 -0.1861 -2.222e-22)
(0.1676 -0.1044 -9.322e-21)
(1.009 0.0005352 -3.1e-21)
(0.9283 -0.1442 -5.896e-22)
(0.1104 -0.03884 1.225e-22)
(0.9955 -0.002109 0)
(0.9979 -0.1212 0)
(0.9879 0.02137 -1.248e-22)
(0.8208 -0.05898 8.017e-23)
(1.02 -0.1214 0)
(0.9894 0.00749 7.481e-21)
(0.4775 -0.1178 2.777e-21)
(0.7305 -0.09797 -2.913e-22)
(0.102 -0.07601 0)
(0.828 -0.1275 -1.148e-21)
(0.9828 -0.1336 -1.151e-22)
(0.6475 -0.07294 7.349e-22)
(0.6613 -0.08064 3.527e-22)
(0.3811 -0.2799 -2.529e-21)
(0.7871 -0.07336 -6.126e-25)
(1.068 0.5579 1.016e-23)
(0.812 -0.01081 -2.622e-22)
(0.3115 -0.1078 -1.781e-22)
(1.028 -0.09237 -1.797e-22)
(0.5233 -0.04721 -3.891e-24)
(1.002 -0.0003611 0)
(0.712 -0.1486 -1.115e-21)
(0.9868 0.009139 -2.286e-21)
(0.3657 -0.1206 -1.481e-21)
(1.034 0.01198 2.379e-21)
(0.9735 -0.1341 8.615e-22)
(1.006 -2.574e-05 0)
(0.9941 0.02219 2.858e-21)
(1.066 -0.094 -1.302e-22)
(0.8014 -0.3193 3.743e-22)
(0.7109 -0.1685 8.13e-22)
(1.006 0.0003297 1.473e-20)
(1.006 -0.002605 -4.169e-21)
(0.2427 -0.08482 -3.158e-22)
(0.6267 0.07678 0)
(0.5004 -0.1178 1.13e-21)
(0.5732 -0.04912 -3.889e-23)
(0.4874 -0.1434 0)
(0.8668 -0.3579 -2.605e-22)
(0.6732 -0.1757 -1.21e-22)
(0.8457 -0.3721 0)
(0.9452 -0.1197 -1.492e-23)
(0.4339 -0.1291 -3.006e-21)
(0.671 -0.05344 0)
(1.006 0.0003148 -2.248e-21)
(0.9257 -0.04434 1.175e-21)
(0.9485 -0.1226 5.326e-23)
(1.06 -0.1757 1.955e-22)
(1.041 -0.1134 0)
(1.002 -0.02861 -8.321e-21)
(1.004 0.0007536 2.783e-22)
(1.019 -0.1258 -5.96e-22)
(0.4812 -0.2713 2.362e-26)
(1.034 -0.1129 1.024e-22)
(0.05617 -0.01765 2.548e-22)
(1.034 0.01356 0)
(1.002 0.0005478 3.325e-22)
(0.4604 -0.142 0)
(0.8326 -0.07839 0)
(0.9204 0.01212 -4.192e-21)
(0.6465 -0.07775 -8.05e-22)
(1.053 -0.162 0)
(0.9923 -0.02011 -1.386e-22)
(0.3751 -0.1141 1.508e-21)
(1.016 -0.2416 -2.564e-22)
(0.9534 -0.1226 3.375e-22)
(0.9021 -0.2115 -3.586e-21)
(0.003204 -0.0009857 0)
(0.1679 -0.06072 0)
(0.4271 -0.1394 -1.168e-22)
(0.3963 -0.1323 2.455e-22)
(0.5568 -0.1539 0)
(0.7963 -0.1197 9.378e-22)
(0.5387 -0.0713 1.645e-22)
(0.7017 -0.11 0)
(0.9421 -0.0293 -7.252e-22)
(0.9577 -0.0907 1.266e-21)
(0.2212 -0.1007 0)
(0.7908 -0.1715 -9.996e-22)
(1.006 -0.001535 9.863e-21)
(0.8496 -0.1317 7.617e-22)
(0.9599 -0.2805 0)
(0.6547 -0.1052 -1.651e-21)
(0.9999 -2.027e-06 8.119e-22)
(1.006 -0.001662 -1.083e-20)
(0.0201 0.008146 0)
(1.062 -0.07261 9.477e-23)
(0.7508 -0.1408 -1.084e-21)
(0.841 -0.1148 -5.798e-23)
(0.7048 -0.3973 0)
(0.7803 -0.1825 1.81e-21)
(1.137 -0.001365 0)
(0.5225 -0.04293 6.436e-23)
(0.7501 -0.08017 2.711e-21)
(0.7957 -0.2103 0)
(1.018 0.005598 -1.842e-21)
(1.009 -0.000458 0)
(1.203 0.2599 0)
(0.9445 0.1607 0)
(0.5571 -0.1066 1.676e-22)
(0.6613 -0.113 0)
(0.5887 -0.2427 2.822e-21)
(0.5129 -0.153 0)
(0.7553 -0.311 -1.025e-21)
(0.9073 -0.1207 6.038e-21)
(0.7643 -0.1319 2.668e-21)
(0.9967 8.955e-05 5.329e-22)
(0.5951 -0.03691 -6.889e-23)
(1.01 -0.1106 1.333e-22)
(0.7798 -0.18 -8.704e-22)
(-0.0005275 -0.002804 6.081e-24)
(0.9771 -0.1509 -1.756e-22)
(1.065 -0.08305 -9.283e-22)
(0.5634 -0.1683 1.362e-21)
(0.9968 1.536e-05 3.255e-21)
(0.9194 -0.09937 -5.053e-24)
(0.7546 -0.06598 6.085e-25)
(0.07052 -0.02413 0)
(0.6452 -0.1303 7.816e-22)
(0.8604 -0.1789 8.01e-22)
(0.9452 -0.1198 -2.284e-22)
(0.7709 0.623 0)
(0.6113 -0.1679 1.202e-21)
(0.6959 -0.3729 1.249e-21)
(0.587 -0.16 -3.121e-22)
(0.8206 -0.1987 2.263e-22)
(0.8996 -0.09679 -1.503e-22)
(0.9828 -0.105 -6.493e-23)
(0.6438 -0.1804 7.086e-22)
(1.054 -0.1953 7.425e-22)
(0.00537 -0.0003136 0)
(0.9585 -0.2823 0)
(0.9395 0.05094 1.218e-21)
(0.9254 -0.2068 -3.151e-22)
(0.833 -0.3568 7.473e-22)
(0.8391 -0.08757 2.644e-23)
(1.012 0.0006279 0)
(0.2613 -0.1051 -1.098e-22)
(0.6576 -0.1601 -1.495e-21)
(0.4895 -0.1538 -3.84e-22)
(1.002 0.0005395 -4.417e-22)
(0.05486 -0.02097 0)
(0.4746 -0.1391 0)
(0.5026 -0.0629 -9.063e-22)
(0.9957 9.377e-05 -1.803e-21)
(0.6853 -0.1091 1.005e-21)
(0.3266 -0.1125 0)
(0.6537 -0.1237 1.496e-21)
(0.879 -0.09425 -6.948e-22)
(0.9958 6.848e-05 1.698e-21)
(0.5256 -0.1618 -7.212e-22)
(0.1803 -0.07113 0)
(0.4297 -0.1185 2.104e-21)
(0.8365 -0.1701 0)
(0.9851 0.03136 -4.802e-22)
(1.002 -0.1134 1.364e-22)
(0.2281 -0.185 0)
(1.026 0.004485 -1.282e-21)
(1.005 -0.1843 5.716e-22)
(1.045 -0.2205 0)
(0.8045 -0.1191 -9.106e-22)
(0.4876 -0.146 0)
(1.012 -0.2558 -6.193e-22)
(0.9735 -0.1504 0)
(0.4061 -0.05227 -2.664e-22)
(0.3888 -0.1217 0)
(0.9996 -6.049e-06 -1.652e-21)
(0.5238 -0.1615 6.779e-22)
(0.582 -0.168 1.212e-22)
(0.3974 -0.03098 0)
(0.6487 -0.09302 -8.497e-22)
(1.083 -0.04748 0)
(0.5342 -0.1609 0)
(0.2857 -0.09436 5.781e-23)
(0.9997 -1.489e-05 1.39e-21)
(0.4562 -0.1435 -7.967e-22)
(0.3768 -0.1129 0)
(1.022 -0.1143 0)
(0.00492 -0.02719 -6.225e-24)
(1.024 -0.1137 -1.072e-22)
(0.2133 -0.076 6.995e-22)
(0.8082 -0.1582 -1.947e-22)
(0.3757 -0.1247 0)
(1.028 -0.2359 0)
(1.001 -0.0004447 1.355e-20)
(0.001796 -0.0006877 -3.105e-24)
(0.5391 -0.1545 1.096e-21)
(0.836 -0.1294 1.069e-21)
(0.1785 -0.06348 3.574e-22)
(0.4513 -0.1454 -8.347e-22)
(0.3279 -0.1098 8.447e-22)
(0.4237 -0.1331 -3.217e-22)
(0.7015 -0.0571 0)
(1.002 -0.0003946 0)
(0.6456 -0.1506 0)
(1.029 -0.1277 -7.054e-24)
(0.9965 0.00012 0)
(0.423 -0.131 -1.237e-21)
(1.168 0.4004 0)
(0.9136 -0.1377 -4.823e-22)
(0.9068 -0.3191 -4.988e-22)
(1.007 0.0002293 -7.194e-21)
(0.678 -0.1768 0)
(0.3013 -0.1069 0)
(1.018 0.006075 -5.129e-21)
(1.007 0.0002372 0)
(1.039 -0.1152 0)
(0.6213 -0.1752 9.444e-22)
(0.488 -0.144 -4.356e-22)
(0.3203 -0.1087 3.988e-22)
(0.5004 -0.1567 5.866e-22)
(0.1612 0.005274 5.088e-24)
(1.019 -0.1344 0)
(0.8017 -0.2409 -2.418e-21)
(1.006 -0.0016 0)
(0.5211 -0.1584 -5.497e-22)
(0.3913 -0.1295 0)
(0.6485 -0.04154 -1.726e-22)
(0.5019 -0.04032 0)
(0.8298 -0.3196 -1.316e-21)
(0.9992 0.0009653 0)
(1.007 -0.01376 5.544e-22)
(0.9479 -0.01181 -4.456e-22)
(0.3778 0.002181 1.223e-21)
(1.006 -0.001474 1.34e-21)
(0.9041 -0.1154 -2.944e-21)
(0.5073 -0.3083 5.879e-22)
(0.93 -0.1178 -3.985e-22)
(0.4302 -0.06665 1.375e-21)
(0.991 -0.00389 0)
(0.3514 -0.1179 -3.164e-22)
(0.9235 -0.1112 2.286e-22)
(1.002 0.01239 0)
(0.626 -0.07418 -3.25e-22)
(1.001 -0.0001126 0)
(0.7562 -0.3836 1.578e-21)
(0.1436 -0.1968 -2.78e-21)
(0.7772 -0.1059 -3.175e-23)
(1.071 -0.09085 0)
(0.3962 0.003947 1.299e-22)
(0.9948 -0.02952 3.58e-22)
(0.4423 -0.1177 0)
(0.9034 -0.2263 -1.028e-21)
(0.5265 -0.04129 0)
(0.1967 -0.09842 -1.689e-22)
(0.5553 -0.07122 -2.893e-22)
(0.4919 0.6595 8.602e-22)
(1.085 -0.04387 -9.166e-22)
(1.054 -0.1987 -5.809e-22)
(0.9 -0.3392 1.301e-23)
(0.1338 -0.01083 0)
(0.9999 0.01501 0)
(0.9677 -0.1517 1.928e-21)
(0.7429 -0.2396 0)
(1.041 0.187 4.513e-23)
(0.2208 -0.1004 5.74e-23)
(0.2735 -0.04864 0)
(1 0.0009735 0)
(0.8606 -0.09209 2.701e-21)
(0.2161 -0.07528 -2.053e-22)
(0.419 -0.0985 -5.448e-21)
(0.1973 -0.003631 6.4e-21)
(1.151 0.09444 0)
(0.03203 -0.03236 -1.147e-21)
(1.067 0.1265 -1.646e-22)
(0.147 0.01336 1.457e-21)
(0.6234 -0.152 -7.035e-22)
(0.1911 -0.06735 6.584e-22)
(0.6508 -0.1503 5.728e-22)
(0.1925 -0.01409 1.946e-22)
(1.008 0.04981 -8.691e-23)
(0.892 -0.1288 0)
(1.004 0.0005295 0)
(0.9972 1.455e-05 0)
(0.9436 -0.1399 5.419e-22)
(1.036 0.02298 -1.411e-23)
(0.8894 -0.1122 7.834e-22)
(0.567 -0.07703 -2.224e-21)
(0.3107 0.2007 0)
(1.055 -0.1092 3.873e-22)
(0.9707 -0.05174 -2.272e-21)
(1.122 0.404 1.594e-22)
(0.9143 -0.2081 7.995e-22)
(1.011 -0.01086 4.965e-21)
(0.7259 -0.1573 3.257e-23)
(0.4257 -0.1378 -1.848e-22)
(0.9739 -0.04982 2.881e-21)
(0.4866 -0.1123 -3.177e-21)
(0.03513 -0.01233 -5.957e-22)
(0.3055 -0.07986 0)
(1.006 -0.2057 0)
(0.2767 -0.2975 -2.061e-21)
(0.9043 -0.1703 0)
(0.2956 -0.1006 0)
(0.9877 -0.001027 7.659e-21)
(0.9857 -0.1072 3.813e-22)
(0.7856 -0.1793 9.035e-22)
(0.9817 -0.01526 0)
(0.4832 -0.1198 1.223e-21)
(0.5579 -0.1577 0)
(0.6548 -0.1784 -4.521e-22)
(1.001 -0.000105 -5.05e-22)
(0.9375 -0.01028 -1.422e-21)
(0.7702 -0.1601 0)
(0.123 0.00649 9.681e-24)
(0.9519 -0.3222 -8.428e-22)
(0.03534 -0.01137 0)
(0.6255 -0.1755 7.024e-22)
(0.8447 -0.3686 0)
(0.9374 -0.2057 -1.487e-22)
(0.09179 -0.03351 0)
(0.843 -0.06165 3.776e-22)
(0.9975 -8.467e-06 -1.341e-21)
(0.4468 -0.2629 0)
(1.138 0.1797 -6.532e-22)
(1.005 0.0005356 0)
(0.8902 -0.3542 1.676e-23)
(0.02356 -0.008422 3.767e-23)
(0.8653 -0.1715 -5.894e-22)
(0.946 0.05279 -1.058e-21)
(1.016 -0.04789 2.485e-22)
(1.043 -0.166 -1.455e-22)
(0.06665 -0.02407 -5.616e-25)
(0.06586 -0.006745 -5.405e-23)
(0.7263 -0.0762 0)
(1.015 0.04316 -4.536e-22)
(0.9946 0.007691 2.61e-21)
(1.009 -0.1948 0)
(0.8278 -0.378 -2.035e-22)
(0.4053 -0.1308 -1.198e-21)
(0.5056 -0.1175 0)
(0.299 0.382 -1.738e-21)
(0.538 -0.2263 -1.762e-21)
(0.672 0.0138 -4.199e-23)
(1.066 -0.008484 -1.267e-21)
(0.5339 -0.2222 -1.728e-21)
(0.9886 -0.06866 2.25e-21)
(0.4737 -0.03812 0)
(1.012 0.002042 0)
(0.4854 -0.1533 7.182e-23)
(0.07101 -0.06913 -1.244e-23)
(0.8908 -0.1618 -1.532e-21)
(0.501 -0.1414 0)
(0.5989 -0.1709 0)
(0.9912 0.004931 -6.674e-21)
(0.9665 0.005494 1.952e-21)
(0.2023 -0.07115 0)
(1.009 -0.225 2.002e-21)
(0.3106 -0.1059 0)
(0.766 -0.1003 0)
(0.2691 -0.09386 -6.058e-22)
(0.4763 -0.1496 -4.173e-22)
(1.044 -0.1103 -8.332e-23)
(1.063 0.002469 -1.838e-22)
(0.8663 -0.07329 -1.468e-21)
(0.1319 -0.02066 9.278e-22)
(0.9794 -0.1197 -3.532e-22)
(0.6012 -0.04289 9.799e-23)
(0.377 -0.1119 1.653e-21)
(1.003 -0.1244 4.591e-22)
(0.518 -0.1587 1.049e-21)
(0.3534 0.5543 7.41e-22)
(0.3393 -0.1136 -2.365e-23)
(0.05868 -0.07635 6.785e-23)
(0.0305 -0.01087 0)
(0.5924 -0.1699 0)
(1.012 0.0006477 0)
(1.01 -0.002966 6.06e-21)
(0.5427 -0.1652 5.332e-22)
(0.4087 -0.1352 0)
(1.058 -0.1773 -1.53e-21)
(1.001 1.883e-05 0)
(0.8201 -0.3811 -7.258e-22)
(0.6728 -0.1758 6.118e-22)
(1.064 -0.08667 2.187e-23)
(0.3 -0.1008 0)
(1.029 -0.1214 -1.229e-21)
(0.3901 -0.1204 -1.313e-21)
(1.061 0.4407 1.637e-22)
(0.9999 0.001279 -3.955e-20)
(1.056 -0.1917 0)
(1.055 -0.05629 -1.489e-22)
(0.3987 -0.1552 0)
(0.474 -0.03603 0)
(0.3139 -0.1084 9.605e-23)
(0.8446 -0.2889 1.59e-21)
(0.9548 -0.1558 3.631e-21)
(0.5624 -0.1013 0)
(0.724 -0.06386 -1.799e-24)
(0.9652 -0.07798 0)
(0.5397 -0.1576 0)
(0.8151 -0.3763 9.293e-22)
(0.8406 -0.09662 -2.092e-22)
(0.3853 -0.1276 0)
(0.5268 -0.2284 -2.011e-21)
(0.9854 -0.01961 -3.561e-22)
(0.1065 -0.03934 0)
(0.08326 -0.0308 0)
(0.5846 -0.1682 0)
(0.8464 -0.1267 1.626e-21)
(0.2462 -0.2819 -3.118e-21)
(1.004 0.0271 1.399e-22)
(0.09929 -0.02439 1.995e-21)
(0.1384 -0.02572 0)
(0.9963 -0.0006388 0)
(1 -5.265e-05 -3.947e-21)
(0.9672 -0.1066 -2.054e-24)
(0.722 -0.1703 2.583e-21)
(0.01904 -0.007224 -3.722e-23)
(0.193 -0.1003 6.799e-23)
(0.8983 -0.1301 1.325e-22)
(0.7639 -0.2848 0)
(0.3239 -0.105 -1.357e-21)
(1.059 -0.186 0)
(1.064 -0.1463 0)
(0.9985 -0.03481 -3.821e-21)
(0.3173 -0.1032 -2.326e-21)
(0.4079 -0.09055 0)
(0.3602 -0.1177 -1.154e-21)
(1.036 -0.2159 0)
(0.1227 -0.04581 1.19e-22)
(0.4496 -0.1443 -9.742e-22)
(0.9918 -0.002486 4.34e-22)
(0.1426 -0.01943 0)
(0.3095 -0.1076 -5.468e-22)
(1.001 -0.001619 -3.024e-20)
(0.7397 -0.1098 -6.442e-22)
(0.9954 -0.0006313 9.399e-21)
(0.9897 -0.005038 8.388e-21)
(0.986 -0.1343 -2.163e-22)
(1.03 -0.1756 0)
(0.1765 -0.02289 -9.028e-21)
(1 -0.003777 3.509e-21)
(0.627 -0.07461 4.405e-23)
(1.006 0.009341 0)
(1.155 0.4193 0)
(1.029 -0.1612 -1.408e-21)
(0.7088 -0.1492 4.538e-22)
(1.021 -0.1187 2.443e-22)
(0.7079 -0.1391 2.221e-22)
(0.737 -0.1062 0)
(0.3586 -0.1073 3.502e-21)
(0.9445 -0.1051 -2.881e-22)
(0.9953 -0.002376 4.934e-21)
(1.021 -0.04744 -2.497e-21)
(0.8998 -0.1602 7.59e-22)
(0.8616 -0.1598 -3.122e-22)
(0.3205 -0.1079 -1.033e-22)
(0.3568 -0.1143 0)
(0.283 -0.01798 1.978e-25)
(0.3202 -0.1027 -8.309e-22)
(0.06263 -0.01942 -6.16e-21)
(0.817 -0.1271 1.468e-21)
(0.7916 -0.2176 0)
(0.8985 0.014 -2.589e-21)
(0.691 -0.07295 3.045e-23)
(0.4095 -0.05625 0)
(0.8519 0.2455 5.048e-22)
(0.6724 -0.1551 0)
(0.9665 -0.0157 2.862e-21)
(0.5987 -0.1199 3.653e-21)
(0.2583 -0.09925 1.356e-22)
(0.5449 -0.09056 0)
(0.9959 0.0002854 -1.374e-21)
(0.5727 -0.3859 1.775e-21)
(0.695 -0.183 0)
(0.8779 -0.08402 -6.906e-24)
(0.913 -0.2514 2.509e-22)
(0.9272 -0.1173 -7.114e-23)
(1.055 -0.136 4.419e-22)
(0.4531 -0.09865 0)
(0.7696 -0.1869 6.882e-22)
(0.8803 -0.08398 -2.112e-23)
(0.2709 -0.09481 -1.171e-23)
(0.6876 -0.1883 -2.295e-21)
(0.1936 -0.09884 1.824e-22)
(0.997 -0.001173 0)
(0.9815 -0.07007 -1.222e-22)
(0.6137 -0.1156 0)
(0.9911 -0.02704 0)
(0.6377 -0.1352 0)
(0.6884 -0.07427 3.263e-22)
(1 1.16e-07 -1.639e-21)
(1.036 -0.2261 9.406e-22)
(0.2377 -0.08755 0)
(1.015 -0.06608 0)
(0.8683 0.2482 -2.002e-21)
(0.9246 -0.166 0)
(0.3533 -0.008977 0)
(1.059 -0.1655 1.433e-21)
(1.001 2.534e-05 4.378e-22)
(0.5885 -0.1401 -3.251e-23)
(0.4641 -0.1347 -6.041e-23)
(1.019 -0.001217 4.451e-21)
(0.9187 0.2199 9.353e-22)
(1.034 0.03935 1.753e-22)
(0.6642 -0.1758 9.435e-22)
(0.5102 -0.1347 -1.221e-21)
(1.02 -0.178 3.961e-22)
(0.9808 -0.04706 0)
(0.1684 -0.06336 -6.797e-23)
(0.03443 -0.01297 1.323e-22)
(0.7233 -0.1535 -1.57e-22)
(0.7956 -0.1252 6.92e-22)
(0.6023 -0.1752 -4.083e-22)
(0.1925 -0.01592 0)
(0.9953 0.0003349 -2.579e-21)
(0.8134 -0.08487 -7.954e-23)
(1.008 0.01198 -7.398e-24)
(0.5378 -0.1588 0)
(0.7802 -0.3903 -6.188e-22)
(0.7227 -0.1296 0)
(0.9105 -0.2504 2.492e-21)
(0.1653 -0.08397 -8.741e-23)
(0.3164 -0.05168 0)
(0.9986 0.005264 -7.792e-21)
(0.01395 -0.005193 0)
(0.2856 -0.09032 0)
(0.3461 -0.09991 1.23e-21)
(0.9164 -0.08082 -5.665e-26)
(1.032 0.2782 0)
(0.7323 -0.1866 -6.172e-22)
(0.6588 -0.1342 7.636e-22)
(0.4468 -0.03338 0)
(0.9233 -0.1275 0)
(0.8832 -0.003327 -2.779e-21)
(0.02952 -0.001482 7.408e-23)
(0.3872 -0.1296 2.748e-22)
(0.7275 -0.0502 0)
(0.6338 -0.134 -1.483e-21)
(0.834 -0.1252 0)
(0.6509 -0.4031 -1.878e-21)
(0.3097 -0.02306 4.524e-22)
(0.1504 -0.05182 6.671e-23)
(0.9181 -0.1545 1.799e-22)
(0.4292 -0.1376 0)
(1.073 -0.08882 0)
(0.6878 -0.08337 -3.925e-22)
(0.7102 -0.07206 8.738e-23)
(0.8548 -0.1734 0)
(0.03982 -0.014 0)
(1.068 -0.0953 -2.255e-22)
(0.906 -0.1927 -8.283e-22)
(1.06 -0.1251 0)
(0.6788 -0.1152 7.064e-22)
(1 -1.07e-06 0)
(1.008 0.0008985 1.261e-20)
(1.003 -0.1353 -1.436e-21)
(0.1883 -0.0137 7.989e-23)
(0.4927 -0.1552 6.532e-22)
(0.9138 -0.02577 7.785e-21)
(0.1136 -0.02349 -2.317e-21)
(0.2407 -0.08279 4.551e-22)
(0.993 0.008883 -5.775e-21)
(0.6923 0.09636 0)
(0.8895 -0.1191 6.61e-23)
(1.054 -0.1043 0)
(-0.002776 -0.01322 0)
(1.001 -0.2815 -7.876e-22)
(0.3668 -0.123 1.555e-22)
(0.004652 -0.001546 0)
(0.7287 -0.158 -5.46e-24)
(0.1206 -0.04261 1.249e-21)
(0.5893 -0.1733 8.505e-22)
(0.9055 -0.1131 0)
(0.4488 -0.0509 3.254e-21)