/*--------------------------------*- C++ -*----------------------------------*\
  =========                 |
  \\      /  F ield         | OpenFOAM: The Open Source CFD Toolbox
   \\    /   O peration     | Website:  https://openfoam.org
    \\  /    A nd           | Version:  8
     \\/     M anipulation  |
\*---------------------------------------------------------------------------*/
FoamFile
{
    version     2.0;
    format      ascii;
    class       volScalarField;
    location    "45";
    object      nut;
}
// * * * * * * * * * * * * * * * * * * * * * * * * * * * * * * * * * * * * * //

dimensions      [0 2 -1 0 0 0 0];

internalField   nonuniform List<scalar> 
127143
(
4.615e-14
6.784e-16
2.312e-15
2.427e-14
6.94e-07
2.52e-14
9.399e-07
8.871e-07
6.39e-07
1.277e-06
1.138e-06
8.458e-07
1.144e-14
4.613e-14
1.307e-06
7.176e-08
1.548e-13
0.0001038
2.04e-05
7.892e-08
1.297e-05
1.193e-07
7.118e-05
5.144e-06
1.11e-07
4.831e-06
5.087e-06
4.981e-06
5.741e-07
0.0002015
4.815e-06
2.854e-06
3.217e-06
1.215e-05
3.7e-05
3.78e-06
9.924e-05
3.628e-05
5.103e-06
1.708e-06
2.04e-05
2.016e-06
2.204e-06
5.943e-13
0.0001036
1.231e-05
5.735e-07
0.0001012
4.461e-06
5.092e-06
7.488e-08
0.0003157
6.552e-06
1.793e-05
0.006685
3.602e-06
0.006685
0.0003061
0.003944
2.063e-05
2.86e-06
1.566e-05
5.955e-06
0.006702
1.393e-05
1.962e-05
2.981e-05
5.622e-06
5.622e-06
0.001377
5.109e-06
7.731e-06
9.295e-05
0.003341
0.006696
6.564e-06
0.0004321
8.194e-05
3.598e-06
0.006705
1.156e-06
1.006e-07
1.9e-05
2.387e-06
0.0001988
8.502e-05
5.217e-06
5.045e-06
1.822e-05
3.434e-06
0.002065
4.869e-05
3.78e-06
1.297e-05
1.853e-05
0.000238
2.228e-06
5.069e-06
4.439e-05
3.324e-05
0.006705
4.443e-06
3.231e-06
8.248e-05
6.491e-05
4.647e-05
6.188e-06
0.001377
6.858e-06
0.006683
1.382e-06
5.412e-06
1.57e-05
6.468e-07
0.003154
8.567e-05
0.0003598
0.006696
0.0005415
6.436e-09
0.006684
1.696e-05
1.377e-05
0.0002447
1.143e-06
2.907e-06
1.563e-05
0.0006356
6.475e-06
3.325e-06
4.058e-05
2.558e-05
9.151e-06
8.816e-05
4.152e-11
5.211e-05
0.0002216
9.443e-06
6.803e-07
0.0001403
4.376e-05
0.0005637
8.69e-06
1.305e-05
6.65e-06
5.983e-06
2.411e-06
0.006703
2.558e-05
3.385e-06
4.138e-05
4.31e-06
2.964e-05
2.086e-05
2.039e-06
0.0001481
0.000245
2.954e-06
0.0001102
4.777e-06
5.328e-06
2.046e-07
0.001877
5.466e-05
3.532e-06
1.394e-05
9.348e-05
6.335e-06
4.525e-06
9.765e-05
3.434e-05
1.304e-05
7.445e-05
2.73e-05
0.0006171
0.0001892
5.913e-06
6.474e-06
5.248e-06
0.002067
2.388e-05
0.0007939
0.0002009
0.0001911
3.327e-06
1.586e-05
5.838e-06
7.891e-07
5.116e-06
0.0008561
6.529e-06
9.587e-06
0.0003166
1.123e-06
1.227e-11
1.22e-05
0.006729
0.006725
1.593e-09
0.001457
0.004396
0.0001263
0.0007937
9.363e-05
4.808e-13
5.205e-06
0.0001382
3.009e-05
0.0002401
0.003489
8.489e-05
0.0002177
0.003407
4.526e-06
3.025e-05
1.115e-08
1.247e-05
2.97e-05
2.675e-05
0.0001462
5.585e-06
0.006698
4.308e-06
7.196e-06
4.944e-06
3.088e-05
3.458e-06
3.728e-05
6.822e-05
3.015e-05
1.348e-05
0.0008473
7.027e-05
6.168e-08
1.348e-05
0.0002584
5.21e-05
4.483e-11
0.003894
6.364e-06
9.27e-06
1.209e-05
0.0001953
2.951e-06
1.647e-05
8.614e-09
4.854e-06
6.122e-06
6.901e-09
0.001334
3.883e-06
4.75e-06
2.625e-05
8.73e-06
3.64e-06
6.192e-06
0.0007953
3.882e-06
3.068e-05
8.41e-06
1.164e-05
0.0006987
4.535e-05
0.0005322
8.273e-06
1.3e-05
4.456e-05
2.004e-06
3.58e-06
1.782e-05
4.415e-06
0.0006167
0.0001103
6.368e-06
7.849e-06
6.409e-06
1.569e-05
4.915e-06
0.0004245
2.185e-05
0.00288
0.0001379
8.381e-05
0.006702
0.004608
1.286e-11
3.971e-05
0.003107
4.914e-06
0.001966
3.148e-05
4.218e-05
0.0002455
6.72e-05
0.002614
6.738e-06
5.106e-06
9.526e-05
0.0001949
1.764e-05
5.225e-06
2.925e-05
9.679e-06
0.0001017
4.587e-06
3.454e-06
3.022e-05
0.003104
5.137e-05
1.917e-05
5.861e-06
5.147e-05
3.486e-06
0.003608
0.003609
3.942e-06
2.429e-05
5.364e-06
3.514e-05
0.000313
7.952e-05
5.287e-06
0.0002831
2.618e-05
3.907e-06
1.599e-05
7.409e-05
3.838e-05
4.756e-06
4.248e-06
2.459e-05
0.003827
3.981e-05
0.006729
0.006725
2.093e-05
6.833e-06
7.545e-05
2.462e-05
3.888e-05
0.0001632
2.967e-05
7.487e-06
6.291e-06
1.108e-06
4.911e-06
2.506e-05
1.444e-05
5.05e-06
6.517e-06
5.157e-06
3.9e-05
0.0001788
6.396e-06
7.267e-05
2.518e-05
8.73e-06
6.746e-06
0.006149
4.761e-06
9.498e-05
6.493e-06
8.525e-05
5.196e-06
5.081e-06
0.006698
0.001726
0.0002185
1.491e-05
0.0003817
1.699e-06
0.0003007
5.41e-06
5.187e-06
0.001095
4.692e-05
5.204e-06
3.23e-07
4.762e-05
0.0004699
6.043e-05
4.653e-06
5.244e-06
2.207e-05
0.0003788
4.803e-07
2.311e-05
1.81e-06
1.219e-05
4.969e-05
0.004874
9.557e-06
5.044e-05
3.7e-06
5.13e-06
5.216e-06
9.766e-06
5.096e-06
7.076e-05
0.0009546
4.144e-06
0.006698
9.862e-06
0.0002061
2.441e-05
2.788e-05
8.675e-05
1.005e-05
0.006705
5.208e-06
8.477e-06
4.938e-06
4.226e-05
8.554e-05
1.246e-05
1.84e-05
3.245e-05
4.414e-06
2.475e-05
7.635e-06
0.0001016
6.029e-06
2.997e-05
0.001849
3.029e-05
7.647e-06
2.074e-06
3.47e-05
1.168e-05
0.0001079
0.006681
3.754e-05
0.0001681
8.508e-05
1.051e-05
0.006698
2.489e-05
2.235e-05
0.0003474
0.002776
0.006695
5.074e-06
0.000183
6.808e-06
0.0002192
5.079e-06
0.002643
3.418e-06
0.0002166
0.0002421
1.948e-05
5.185e-06
3.304e-05
1.637e-05
2.198e-05
0.0001373
4.978e-06
9.726e-06
0.0001085
2.005e-05
1.1e-05
6.133e-06
3.087e-05
5.152e-07
5.929e-06
0.0007951
0.0008488
7.438e-06
2.249e-05
0.006674
3.058e-05
4.28e-05
0.0002188
2.534e-05
0.0001842
0.006652
1.701e-06
4.141e-05
5.648e-05
1.021e-05
2.363e-07
3.381e-06
1.675e-05
3.487e-06
6.951e-06
1.052e-05
1.346e-05
0.00641
4.889e-06
0.0005165
4.421e-06
5.246e-06
6.27e-06
5.978e-06
1.414e-11
5.569e-05
8.862e-07
0.0006152
9.781e-07
0.004566
2.342e-07
0.0008845
0.0001603
1.225e-05
2.356e-13
1.549e-09
1.308e-09
0.006698
2.81e-05
4.995e-06
0.003519
4.856e-05
1.582e-05
7.01e-05
7.551e-05
1.965e-05
5.188e-06
3.053e-05
7.845e-06
0.0009379
0.0002517
1.518e-08
5.809e-06
5.091e-06
3.963e-05
0.004001
4.524e-05
0.0009311
3.593e-05
0.006237
5.021e-06
3.95e-06
5.243e-05
0.006684
7.438e-06
0.0002079
2.513e-05
6.801e-06
4.449e-06
4.661e-05
0.0004776
8.166e-05
1.328e-05
0.006674
2.917e-05
2.51e-05
5.149e-06
5.193e-06
2.091e-05
3.048e-05
1.219e-05
2.193e-05
1.045e-05
7.447e-05
3.632e-05
0.002369
2.169e-06
3.994e-05
5.061e-06
8.561e-06
0.0001247
0.006703
0.006701
9.589e-06
2.349e-05
1.184e-06
0.003094
0.004604
9.803e-06
2.99e-06
8.147e-05
8.359e-06
2.776e-05
7.431e-06
4.191e-05
0.0006645
0.006684
5.246e-05
3.113e-05
1.189e-05
0.004728
7.668e-06
1.111e-05
2.952e-05
0.0004696
5.212e-06
0.003011
6.546e-05
0.0002307
5.094e-05
0.005132
4.659e-05
1.164e-05
6.247e-07
0.006652
6.443e-06
1.304e-05
0.006695
2.795e-05
0.002618
5.13e-06
1.342e-05
0.006701
2.186e-05
4.888e-06
5.759e-05
1.059e-05
1.036e-05
5.148e-06
5.24e-06
1.226e-06
5.117e-06
3.933e-06
5.267e-06
0.0001645
6.737e-06
4.797e-06
0.005438
4.047e-06
0.005494
8.948e-07
0.0005351
8.888e-06
0.00668
0.002687
0.0002577
7.686e-06
1.747e-05
0.006477
0.006685
7.433e-05
7.026e-06
1.807e-05
5.036e-06
0.0001051
7.386e-06
1.897e-05
8.173e-06
6.284e-06
2.757e-05
1.024e-05
0.006476
7.893e-06
6.336e-06
0.0001001
2.275e-05
0.002135
0.004606
1.795e-05
8.976e-07
1.346e-05
1.845e-06
0.0005976
0.003214
4.474e-05
1.1e-05
0.0001472
1.185e-05
9.529e-05
0.0009333
3.012e-05
3.469e-05
6.388e-06
1.833e-05
1.593e-12
3.497e-05
0.0001135
0.0001306
3.642e-05
1.313e-05
5.26e-06
1.809e-05
0.0002944
6.372e-06
0.0001096
9.857e-06
0.006683
4.936e-06
1.475e-05
2.739e-06
0.006683
0.006682
1.861e-06
0.0008474
4.371e-06
1.028e-05
4.907e-06
5.135e-05
1.157e-05
5.027e-06
6.377e-06
3.624e-06
0.00671
0.006674
4.051e-06
7.649e-06
1.684e-05
3.025e-06
2.186e-06
6.385e-05
4.134e-06
9.523e-05
9.848e-05
0.00372
4.396e-06
0.0001973
3.665e-06
3.933e-11
1.35e-05
9.076e-06
4.497e-05
0.004899
6.892e-06
5.111e-06
4.852e-06
5.693e-05
1.847e-05
6.284e-06
3.358e-06
3.254e-05
6.759e-06
1.831e-05
3.836e-06
6.074e-06
1.93e-05
1.557e-05
5.791e-05
6.679e-13
1.751e-05
0.0001116
6.301e-06
9.93e-06
5.229e-06
0.006694
0.0001624
4.157e-05
9.214e-05
0.002971
1.784e-06
3.577e-05
5.207e-06
0.003138
1.83e-05
0.0001599
2.174e-05
9.058e-06
0.003803
6.88e-05
4.789e-05
2.47e-05
8.533e-06
0.001287
7.489e-06
1.019e-06
0.002281
2.98e-05
4.625e-05
1.238e-05
5.593e-05
2.896e-05
1.347e-05
3.432e-06
4.698e-05
0.006642
6.917e-05
2.103e-05
3.953e-06
4.925e-06
1.873e-05
4.76e-05
3.155e-05
0.00666
5.669e-05
3.032e-05
1.034e-05
1.448e-07
1.051e-05
5.537e-05
1.041e-05
0.0002066
4.538e-05
0.006697
3.378e-13
3.881e-05
1.01e-05
3.136e-05
8.823e-05
7.863e-05
6.595e-05
5.113e-06
0.006683
4.253e-05
8.293e-05
0.003519
4.333e-05
4.425e-06
6.115e-06
1.84e-05
0.006667
1.845e-05
0.0001802
0.006508
0.006662
2.306e-05
1.611e-05
0.0001045
8.396e-05
8.587e-05
1.073e-07
5.715e-05
6.054e-06
0.006683
5.887e-05
0.0001106
5.223e-06
4.864e-06
5.471e-06
0.002759
0.004223
0.0001837
7.385e-06
0.006683
9.471e-05
4.226e-06
7.446e-06
3.808e-06
0.006202
0.0002337
6.892e-06
0.006699
5.054e-06
0.006683
6.329e-06
3.744e-07
1.429e-05
1.445e-05
1.188e-06
0.002001
2.134e-05
1.58e-05
5.015e-06
8.32e-05
5.135e-06
3.058e-06
1.932e-05
5.994e-05
9.775e-06
1.107e-06
0.006701
3.167e-05
3.212e-06
4.024e-06
0.0001068
2.693e-06
0.00286
0.0002123
5.152e-05
2.179e-06
4.504e-06
4.671e-06
3.101e-08
4.101e-06
1.921e-06
2.867e-05
3.648e-05
5.077e-05
1.821e-06
0.0004033
5.516e-06
0.004716
0.005206
7.448e-06
0.000296
8.106e-06
4.442e-05
6.033e-07
0.0001821
0.0004859
3.701e-06
6.096e-06
0.00406
9.183e-05
9.384e-05
0.0005712
1.991e-05
5.318e-07
0.0002357
3.736e-05
1.295e-06
2.016e-05
6.952e-05
0.006703
6.271e-06
3.667e-06
0.006198
2.159e-05
4.48e-05
1.659e-05
0.00667
0.0001878
7.44e-05
4.098e-08
1.598e-05
5.448e-07
2.326e-05
9.305e-06
7.388e-06
9.625e-06
1.041e-05
0.005733
8.49e-07
3.986e-06
0.005308
7.945e-06
8.509e-08
5.158e-05
6.15e-06
2.938e-05
9.726e-05
4.884e-06
1.132e-06
5.254e-06
0.000538
0.006698
3.44e-05
6.438e-06
7.744e-05
2.253e-05
8.969e-07
2.257e-06
3.458e-05
2.934e-05
2.254e-06
0.0001312
9.245e-06
0.006694
0.000107
4.298e-05
8.96e-06
3.822e-05
3.335e-05
0.006698
0.001217
3.986e-05
3.676e-05
0.000107
4.926e-06
6.579e-05
0.0001317
1.674e-05
4.798e-06
9.255e-06
1.037e-06
6.914e-06
5.005e-06
2.666e-05
3.093e-05
7.002e-05
1.275e-06
7.962e-05
3.207e-05
3.225e-07
3.533e-05
0.006693
0.006696
5.484e-05
0.0001328
8.786e-05
0.006759
6.593e-06
1.896e-05
0.0002755
6.69e-05
1.993e-05
3.393e-05
1.226e-06
0.006705
7.17e-05
0.0003027
2.728e-06
4.515e-06
0.0001606
7.696e-06
3.564e-05
1.491e-05
5.138e-06
1.116e-05
3.288e-05
6.627e-06
5.184e-06
0.0001043
1.409e-06
0.006214
4.894e-06
8.742e-06
2.048e-05
9.415e-06
1.585e-06
0.0023
2.657e-06
1.028e-06
0.006423
0.006695
6.143e-06
1.616e-05
3.308e-08
0.0001043
5.585e-06
3.543e-06
4.544e-05
7.698e-05
0.0001341
0.001443
3.735e-05
0.0002279
5.531e-05
5.594e-05
1.995e-05
8.458e-05
0.005882
1.268e-06
0.000135
0.006693
1.663e-05
0.00594
0.006703
1.898e-05
7.395e-05
4.796e-06
0.006691
5.049e-06
0.006697
4.219e-06
9.528e-05
9.687e-05
5.655e-05
4.334e-06
4.903e-06
2.91e-05
9.294e-06
0.002941
0.0008267
9.169e-06
4.487e-06
7.921e-05
4.525e-05
1.472e-06
3.746e-05
2.373e-06
1.116e-05
3.537e-06
7.609e-06
5.303e-06
3.98e-06
3.065e-06
6.051e-05
0.004931
1.82e-05
0.0001319
4.919e-06
0.001902
3.985e-06
1.326e-05
5.657e-06
7.918e-06
6.629e-06
0.0001558
1.742e-05
1.783e-05
5.659e-06
0.0001073
3.415e-06
8.181e-05
0.006605
1.312e-05
1.874e-05
0.001962
2.297e-05
1.496e-05
0.006754
4.433e-05
9.495e-05
0.0005953
2.747e-06
2.51e-05
5.441e-05
0.0001027
0.006741
2.749e-05
3.113e-05
0.005291
3.911e-06
9.204e-05
2.006e-05
2.846e-05
5.052e-05
0.0004505
3.978e-05
5.461e-07
4.041e-06
4.864e-06
2.456e-05
1.846e-06
0.001603
5.178e-06
0.006699
5.577e-05
4.941e-06
1.817e-05
7.904e-06
4.535e-05
8.288e-06
0.006699
9.611e-09
1.934e-05
1.991e-05
6.863e-06
3.742e-06
1.465e-05
6.979e-05
4.608e-06
6.677e-06
4.249e-05
2.379e-08
0.000133
5.293e-06
4.186e-06
4.978e-06
4.271e-06
8.074e-05
1.689e-05
5.92e-06
6.977e-05
1.349e-05
5.194e-06
5.328e-06
5.402e-05
1.005e-06
0.000392
5.35e-06
0.0001845
4.977e-06
0.006729
0.006692
2.017e-05
5.992e-07
9.642e-05
0.0008681
2.702e-06
4.658e-05
0.006699
6.664e-06
5.538e-06
1.674e-05
6.168e-07
2.473e-05
0.0001216
1.281e-11
8.668e-05
7.95e-06
2.609e-05
6.199e-06
1.099e-05
4.878e-06
4.852e-06
7.876e-06
1.885e-05
0.0005613
0.000126
1.368e-05
3.652e-05
3.818e-05
5.289e-06
8.365e-05
6.859e-06
0.0001125
9.867e-05
0.0001907
1.895e-06
1.135e-05
3.895e-05
1.128e-06
3.074e-05
7.708e-06
1.36e-05
0.0001019
6.836e-05
0.006697
2.203e-05
6.948e-06
1.297e-05
1.832e-05
3.705e-06
4.612e-06
0.006684
4.357e-06
3.611e-05
1.504e-05
1.161e-06
6.267e-06
4.367e-05
5.844e-05
0.001773
5.492e-05
7.98e-05
6.577e-06
1.996e-05
0.001257
1.087e-05
0.003435
2.173e-06
1.016e-06
9.797e-05
7.018e-05
3.492e-05
0.006492
0.006681
7.661e-05
0.0002258
1.823e-05
5.279e-05
0.002396
0.002128
1.111e-06
3.535e-05
3.77e-05
6.658e-06
5.072e-06
1.207e-06
2.791e-05
5.229e-06
0.0001282
5.288e-05
0.006685
4.863e-06
1.926e-05
1.064e-05
1.09e-06
2.378e-05
1.845e-05
6.405e-05
6.543e-06
9.38e-06
3.358e-08
6.729e-05
2.62e-05
8.473e-05
1.789e-05
7.409e-05
4.851e-06
9.089e-07
3.844e-05
4.912e-05
0.006685
5.12e-06
3.286e-06
0.006695
2.22e-06
1.369e-05
9.447e-05
4.94e-06
0.006689
2.017e-05
4.951e-08
0.002238
5.194e-06
3.024e-05
5.614e-06
3.8e-07
5.101e-05
8.202e-05
5.668e-05
3.527e-06
6.646e-05
1.686e-05
9.276e-06
7.639e-06
7.572e-06
3.006e-06
4.431e-06
4.3e-05
0.006694
4.74e-06
4.363e-05
4.988e-06
3.569e-06
2.103e-05
5.292e-05
0.006657
0.0001234
6.106e-05
0.00621
6.348e-05
0.00635
3.492e-06
8.969e-05
5.465e-07
7.674e-05
7.912e-06
4.586e-06
1.493e-05
5.078e-06
3.417e-06
1.812e-06
3.712e-05
5.238e-05
9.928e-06
1.097e-05
0.0001071
0.006702
0.0001614
0.0007295
1.882e-05
0.0067
0.0001708
0.006689
4.594e-06
9.446e-05
0.006748
0.006038
9.263e-05
5.257e-05
2.091e-05
7.608e-05
0.006782
8.593e-06
2.502e-05
4.424e-05
6.068e-10
1.187e-05
1.298e-07
4.967e-06
9.757e-06
5.078e-06
4.567e-06
0.0002055
7.147e-05
2.107e-06
0.0002289
2.941e-05
1.545e-05
7.434e-06
6.915e-06
2.226e-05
0.00669
1.817e-06
3.078e-05
2.647e-06
0.0067
1.078e-06
8.042e-06
4.924e-06
0.0001285
0.006653
0.006652
0.0001364
6.153e-05
0.0001736
1.625e-05
6.949e-06
5.343e-05
3.132e-06
0.0003377
9.624e-05
3.048e-06
1.034e-05
0.0001351
2.262e-05
7.172e-05
1.28e-05
1.976e-05
6.954e-06
5.028e-06
4.545e-05
0.001725
0.0001369
0.0001176
3.252e-06
7.349e-06
0.0005145
1.008e-05
0.0002253
5.14e-06
0.0001731
1.09e-05
0.0001849
0.006693
0.0001364
1.848e-05
1.142e-06
1.054e-06
9.18e-05
4.647e-05
1.952e-05
8.412e-05
0.006627
2.953e-06
2.383e-05
5.235e-08
2.508e-05
9.524e-07
0.0001347
0.006696
7.775e-06
2.683e-05
1.327e-05
6.577e-06
9.51e-06
5.989e-05
8.123e-06
5.551e-06
0.0003395
4.004e-06
0.0001597
5.21e-06
1.743e-05
5.032e-06
0.002751
0.002748
5.34e-06
7.949e-06
2.717e-06
5.169e-06
5.058e-06
4.719e-06
1.756e-06
0.0002719
7.517e-05
0.0002427
0.002132
0.006692
0.0001251
0.006493
8.762e-07
0.006695
4.584e-06
3.607e-05
6.07e-06
7.138e-06
5.143e-06
0.001401
2.722e-07
3.84e-05
9.117e-07
2.65e-05
6.177e-06
0.005251
1.991e-05
3.636e-05
2.325e-05
2.219e-05
3.963e-05
6.436e-05
3.064e-06
1.48e-06
0.0002757
0.006666
1.059e-05
0.001452
0.006771
4.918e-05
1.129e-05
0.006667
2.885e-06
0.006698
6.589e-06
1.063e-05
1.122e-05
1.039e-06
0.006678
9.58e-05
1.955e-05
6.394e-05
1.674e-05
3.485e-05
2.921e-05
0.004645
0.006687
6.199e-06
4.241e-08
2.531e-05
5.913e-06
0.0005746
1.994e-06
8.478e-05
4.341e-05
0.002126
1.665e-05
5.524e-05
5.069e-06
0.000431
8.945e-06
0.0005982
6.476e-06
0.006704
2.188e-06
1.103e-05
0.0002275
4.878e-07
3.703e-06
3.22e-05
0.00669
1.021e-05
4.703e-06
5.267e-05
1.1e-06
4.819e-06
2.811e-05
0.000467
1.154e-05
2.901e-06
7.909e-06
3.662e-06
6.293e-06
0.001955
2.963e-05
0.006704
5.722e-06
4.374e-06
5.821e-06
0.006697
3.018e-05
0.006694
0.000191
6.226e-05
0.006716
3.287e-05
0.0003768
8.045e-06
1.026e-05
0.0005838
5.329e-06
0.006697
3.536e-06
5.878e-07
7.486e-05
1.985e-05
4.99e-06
0.001126
1.723e-05
0.0001822
4.601e-06
8.953e-06
0.000169
5.058e-06
1.204e-05
8.698e-06
8.869e-07
0.0002065
1.933e-05
1.188e-05
0.0002168
4.896e-06
2.482e-05
6.35e-06
6.063e-06
0.0001961
0.001124
2.156e-05
7.857e-05
1.787e-05
8.003e-05
1.099e-06
8.506e-05
2.853e-06
0.0001187
0.006667
2.601e-06
5.018e-06
0.0002107
5.113e-06
0.0004132
1.066e-05
0.006705
1.362e-05
2.988e-06
1.308e-05
5.908e-06
8.126e-06
4.891e-06
0.006696
7.165e-06
5.125e-06
7.893e-06
7.28e-06
0.0003888
5.524e-06
5.143e-06
0.006695
0.0001418
0.0001654
0.001774
6.885e-06
3.279e-05
3.527e-05
4.891e-06
0.0001121
0.0002178
0.002251
2.809e-05
8.856e-06
0.006607
2.045e-05
4.757e-06
2.606e-06
0.006749
6.461e-05
2.669e-06
4.523e-05
6.014e-06
2.568e-05
5.206e-06
2.649e-06
0.002058
0.001166
0.0001436
0.0008571
1.58e-05
4.651e-06
0.000134
3.649e-06
1.937e-05
0.0003664
8.523e-06
5.8e-09
7.339e-07
0.0001508
0.0001358
2.364e-05
0.0002493
0.0001188
3.154e-05
0.000206
1.913e-05
8.636e-05
9.3e-05
9.113e-06
3.297e-06
4.03e-05
0.0001547
0.002978
3.075e-06
0.000158
4.702e-05
5.612e-06
4.49e-05
4.924e-06
0.0001511
4.614e-05
0.006763
3.359e-06
4.801e-06
2.627e-05
1.491e-05
2.134e-05
1.098e-06
3.943e-06
0.0001007
2.39e-05
5.876e-06
1.096e-05
5.592e-06
1.039e-06
0.006641
6.174e-06
1.483e-06
5.132e-06
0.004711
0.0001196
5.518e-05
5.188e-06
1.903e-05
0.0002237
4.979e-06
0.005462
4.406e-06
4.841e-06
0.0001688
0.0001803
0.003771
5.375e-06
3.903e-06
5.152e-06
3.373e-06
3.413e-06
0.0001433
2.426e-06
0.001402
1.372e-06
1.611e-05
5.543e-05
7.336e-05
2.727e-05
1.121e-05
0.0001089
5.347e-06
0.002568
6.331e-06
1.178e-06
4.093e-06
0.0001158
2.513e-05
2.968e-05
1.027e-05
0.00104
0.0001095
5.704e-06
8.567e-05
0.003571
6.147e-06
5.294e-06
5.048e-06
0.00011
4.285e-05
4.711e-06
1.864e-05
1.438e-06
2.056e-06
1.279e-06
0.0001696
5.916e-06
1.111e-06
1.625e-05
1.802e-05
7.954e-05
2.952e-05
1.384e-05
1.357e-09
1.834e-05
2.599e-05
0.003145
0.0002765
1.499e-06
0.0001022
0.003556
0.006698
1.869e-05
5.009e-06
0.0002244
5.567e-06
2.946e-06
1.261e-06
0.0009258
5.064e-06
6.504e-05
0.0001227
4.873e-06
3.411e-05
0.0001799
6.65e-06
3.664e-05
0.000112
1.049e-05
0.006698
3.076e-05
2.529e-05
5.117e-06
0.0001117
4.921e-06
9.962e-06
4.343e-05
5.04e-06
2.077e-05
1.913e-05
5.211e-06
2.072e-05
8.228e-06
2.971e-05
6.218e-05
6.465e-05
1.543e-05
0.0001225
1.649e-06
3.979e-05
0.004613
0.0001187
7.968e-05
5.052e-06
8.148e-06
0.0006901
2.013e-05
4.211e-05
1.042e-05
0.003027
0.0001134
0.0002402
0.0001582
0.0001328
9.158e-06
8.313e-05
2.428e-06
0.0001783
0.0001829
3.152e-05
0.006677
0.0001631
3.863e-05
0.0001356
1.334e-05
0.006689
0.0001405
5.16e-06
2.572e-05
0.006698
0.0006926
0.0001175
1.895e-05
5.111e-06
0.0007665
1.12e-05
0.0001699
3.657e-06
5.109e-06
6.128e-05
8.592e-06
2.623e-05
0.0005871
5.425e-06
3.712e-07
1.578e-05
3.687e-06
5.167e-06
1.429e-05
1.104e-06
0.003096
0.006667
1.066e-05
7.616e-05
1.665e-06
0.006698
2.014e-05
3.038e-05
2.622e-06
2.783e-05
4.357e-06
0.006299
0.006456
5.304e-06
1.616e-05
0.0001784
2.248e-06
3.729e-05
4.413e-05
0.0001591
0.006705
5.031e-06
4.708e-06
6.489e-06
0.0001698
4.144e-06
0.0001758
2.058e-05
0.006741
3.592e-05
5.024e-06
4.488e-06
3.357e-06
2.911e-05
2.256e-06
5.717e-05
6.795e-06
5.259e-06
2.136e-05
2.866e-05
0.0001295
6.623e-06
9.332e-06
0.004594
0.005197
4.174e-05
0.0001078
3.493e-06
8.213e-06
4.2e-06
1.214e-05
0.00117
0.005103
6.542e-06
0.006702
2.237e-05
2.064e-06
4.363e-06
0.0001111
1.064e-05
0.0001359
2.703e-06
3.87e-06
0.002034
2.918e-05
3.999e-05
5.94e-06
0.0001709
1.356e-05
3.382e-05
9.445e-06
1.038e-05
8.244e-05
2.245e-05
2.462e-05
2.321e-06
5.514e-06
2.771e-05
0.0001177
3.312e-06
0.0001341
6.182e-05
4.205e-05
6.146e-07
6.929e-06
2.697e-05
2.483e-06
0.0001466
1.045e-05
0.001013
0.0001413
0.006703
5.139e-06
1.691e-05
2.453e-06
3.224e-05
4.295e-05
1.441e-05
8.25e-07
4.664e-06
1.011e-05
7.264e-06
5.027e-06
8.097e-06
0.0006164
0.0001518
9.593e-06
2.204e-06
3.943e-05
6.8e-05
0.0006332
7.506e-05
0.003807
9.812e-06
2.681e-06
7.493e-05
4.339e-05
0.0001545
6.054e-05
1.088e-05
0.00673
1.417e-05
0.0001269
0.0002315
2.219e-06
0.0002102
3.602e-05
2.239e-05
2.921e-05
8.978e-06
1.526e-05
2.545e-06
3.776e-05
6.236e-06
0.006716
0.0001167
1.59e-05
1.359e-05
3.703e-06
1.007e-05
2.41e-05
8.099e-06
0.003028
4.192e-06
4.748e-06
6.865e-06
5.753e-06
8.072e-06
1.115e-05
5.099e-06
4.099e-06
5.627e-06
2.208e-05
9.917e-07
5.523e-06
6.061e-05
5.26e-05
2.756e-06
0.001677
4.545e-05
0.00239
0.0067
5.996e-06
0.001912
4.181e-05
1.313e-05
3.306e-05
9.17e-06
5.132e-06
1.114e-05
4.5e-05
2.938e-06
3.242e-05
0.0001625
7.792e-09
2.22e-05
5.525e-05
0.0003129
1.285e-07
1.217e-05
6.956e-06
8.158e-07
0.003147
1.907e-05
5.114e-06
8.77e-05
1.294e-05
1.115e-05
3.712e-06
1.951e-05
2.95e-05
2.251e-05
0.0001136
2.993e-05
0.006701
4.677e-05
1.325e-05
6.613e-05
1.476e-05
7.15e-06
1.573e-06
2.301e-05
0.003426
1.945e-05
4.323e-05
5.771e-05
8.508e-06
2.008e-05
9.517e-07
5.024e-06
2.18e-06
2.733e-06
6.379e-05
5.092e-06
4.849e-05
5.23e-05
7.388e-05
1.763e-05
8.123e-08
1.578e-05
6.198e-06
8.25e-06
0.006559
4.791e-06
2.114e-05
0.0001189
9.043e-05
2.795e-06
1.674e-05
4.936e-06
3.494e-05
1.021e-05
3.687e-06
0.006424
1.899e-05
1.493e-05
7.086e-05
2.446e-05
3.298e-06
0.004857
2.51e-05
1.547e-05
3.181e-05
4.365e-06
2.045e-05
9.609e-06
1.826e-06
6.497e-05
5.053e-06
0.006761
0.006754
5.102e-06
1.862e-05
2.082e-05
6.83e-06
5.304e-06
0.006688
1.129e-05
4.186e-06
6.519e-06
0.002281
0.002891
6.292e-06
2.425e-05
5.076e-06
1.202e-06
3.466e-06
0.006123
5.1e-06
1.326e-06
9.054e-05
4.39e-06
5.252e-06
0.001881
0.0001055
1.85e-05
5.928e-05
0.0001866
0.006656
0.006617
0.00664
0.006376
0.0005557
0.000234
2.692e-05
3.487e-06
5.744e-05
9.766e-05
1.505e-05
1.104e-05
0.006105
2.73e-05
0.0001122
2.317e-05
1.254e-05
1.638e-05
0.0001192
7.088e-06
4.981e-06
6.879e-06
5.152e-06
0.0003516
5.887e-06
1.399e-08
4.678e-06
4.551e-06
2.771e-06
6.869e-06
0.005327
1.187e-07
4.183e-05
3.932e-06
5.203e-05
0.0001094
1.963e-06
0.006696
0.0001231
1.53e-05
0.005097
1.138e-05
8.371e-05
1.025e-05
0.0001387
7.033e-06
4.574e-05
2.968e-05
0.006634
5.753e-06
1.27e-05
6.505e-05
8.983e-05
1.033e-05
0.006718
0.003007
2.331e-05
6.294e-05
1.912e-05
0.0003942
1.263e-05
9.317e-06
0.0001054
2.612e-06
4.988e-06
3.717e-05
4.443e-05
0.0002472
6.557e-05
0.0001995
2.428e-06
1.887e-06
0.004662
2.438e-06
0.004406
0.006538
3.877e-05
0.001401
1.944e-06
3.346e-05
4.901e-06
8.073e-05
4.352e-06
0.006697
0.0004177
8.458e-05
4.991e-06
0.0001368
0.003504
5.603e-05
3.454e-06
8.168e-06
0.006703
7.539e-06
9.384e-06
2.827e-08
0.001939
3.771e-05
1.632e-05
0.0001037
0.0004192
4.713e-05
5.196e-06
4.022e-06
4.916e-06
5.121e-06
1.041e-09
0.004883
4.391e-06
1.229e-05
5.3e-06
0.006696
5e-06
3.954e-06
2.46e-06
8.692e-07
0.0002081
1.611e-05
1.253e-06
0.0004175
5.941e-05
0.00669
1.311e-05
9.043e-06
3.121e-05
1.841e-05
8.75e-07
5.101e-05
0.0001468
1.093e-05
0.006706
0.00191
5.269e-06
1.501e-05
6.581e-05
9.343e-06
1.014e-05
0.0001638
2.743e-05
6.88e-06
8.861e-05
6.47e-05
0.005031
6.728e-06
6.21e-06
4.874e-06
4.056e-05
7.638e-06
5.095e-06
1.144e-06
2.396e-06
2.266e-06
1.807e-08
5.092e-06
0.0002886
2.451e-06
0.0002764
5.151e-06
1.159e-06
0.004468
2.259e-06
0.006705
6.166e-05
5.362e-06
2.439e-06
5.132e-05
4.223e-06
6.209e-05
5.063e-06
0.006651
1.826e-08
8.795e-06
0.002104
2.203e-05
0.0001361
1.582e-07
2.99e-06
1.799e-07
1.229e-05
3.763e-06
1.964e-06
9.473e-06
1.769e-05
6.339e-06
6.3e-06
0.006674
6.255e-05
7.426e-06
0.0001123
7.289e-06
0.0001723
3.421e-05
4.728e-06
5.582e-06
5.673e-06
2.484e-06
0.003758
4.685e-06
2.724e-05
1.004e-05
7.336e-05
0.002286
6.324e-05
1.124e-05
1.582e-05
1.635e-05
2.407e-06
0.002134
0.00201
7.427e-05
4.843e-06
7.756e-06
0.000119
2.409e-05
0.006502
0.0002108
5.008e-06
0.006342
3.562e-05
3.792e-06
0.0001193
2.82e-05
0.0001644
2.829e-07
2.704e-06
1.215e-06
5.993e-05
5.164e-06
0.000105
1.249e-05
5.426e-05
1.845e-05
4.955e-06
7.713e-05
3.274e-06
4.889e-06
1.317e-05
5.205e-06
4.324e-05
2.388e-06
0.0002399
5.864e-06
7.053e-06
0.002635
8.993e-06
0.0001053
0.001226
1.891e-05
8.416e-07
4.091e-05
5.959e-06
8.844e-06
3.137e-07
7.611e-07
8.286e-05
5.147e-09
0.0006997
3.866e-05
8.949e-05
0.0001358
2.206e-05
0.006705
5.857e-06
1.837e-06
4.898e-05
8.084e-06
4.154e-05
1.382e-05
8.348e-06
3.463e-05
2.928e-05
1.378e-05
0.0001814
7.187e-06
1.832e-05
0.005153
0.0001204
5.652e-06
0.006701
0.0004891
4.659e-06
0.006698
8.531e-06
2.593e-05
4.82e-06
5.415e-05
4.832e-06
0.001372
5.529e-05
2.89e-05
3.939e-06
1.578e-05
2.507e-06
8.411e-06
0.006688
4.203e-06
0.006717
0.000392
3.987e-05
4.856e-05
1.153e-06
2.992e-05
5.126e-06
3.011e-05
4.44e-06
2.02e-05
0.0007955
3.658e-05
4.476e-05
0.006675
7.72e-05
0.006697
4.307e-06
1.269e-05
4.875e-06
7.11e-05
0.006654
2.404e-05
5.148e-06
6.048e-06
8.136e-06
1.097e-05
3.087e-05
0.0003678
3.852e-05
9.681e-05
4.727e-05
1.773e-05
1.051e-05
0.0002108
6.44e-06
0.0001297
3.638e-06
5.256e-06
0.006633
0.006761
0.001367
0.0003075
3.762e-06
2.769e-05
2.695e-05
0.001415
5.078e-06
6.493e-06
5.307e-06
0.006698
5.058e-06
2.485e-05
5.189e-06
0.002333
3.063e-08
1.728e-05
5.03e-06
0.003231
0.0005877
2.682e-06
0.0002427
5.296e-06
4.946e-06
4.542e-06
3.919e-05
1.548e-05
0.006698
5.104e-06
6.814e-05
6.916e-06
0.0001107
6.249e-06
4.644e-05
7.603e-05
8.871e-06
3.679e-06
0.006701
1.312e-05
1.134e-05
7.253e-06
4.628e-06
0.006702
7.86e-06
1.062e-05
2.76e-05
1.229e-05
2.957e-05
4.299e-06
0.0001584
1.054e-05
6.858e-05
9.489e-05
0.0001164
2.315e-05
0.00518
4.437e-06
1.083e-06
0.0001767
0.0001218
9.52e-06
1.15e-05
5.157e-05
0.006696
0.0002175
0.0004325
0.003248
4.203e-06
3.649e-05
0.006698
0.0006776
5.789e-06
1.15e-06
0.006699
0.0001007
6.967e-06
5.32e-06
4.101e-05
1.302e-05
3.323e-06
1.085e-05
5.348e-06
5.174e-06
2.247e-07
1.051e-05
0.001194
4.459e-05
1.417e-05
4.156e-05
0.006685
0.0004706
5.773e-05
0.0001423
5.987e-05
4.144e-06
2.648e-06
9.44e-05
2.222e-05
2.224e-07
2.505e-05
5.363e-06
8.22e-05
3.679e-05
9.87e-05
3.826e-06
4.611e-07
0.00669
9.816e-06
5.33e-06
0.006698
9.309e-06
2.663e-05
8.227e-06
0.0002765
8.37e-06
5.099e-06
4.374e-05
1.739e-05
0.004577
0.001585
0.0001094
0.0001204
0.006782
2.031e-05
0.0001998
1.158e-06
7.446e-05
2.055e-05
5.174e-06
5.24e-06
7.173e-05
6.885e-06
0.006716
2.341e-06
8.346e-06
3.126e-06
5.358e-06
5.994e-05
3.919e-06
1.821e-05
2.032e-05
9.662e-07
2.192e-05
2.677e-06
0.006704
0.006692
5.916e-05
2.967e-05
0.006686
9.381e-07
5.115e-06
4.174e-06
1.748e-05
1.819e-05
2.832e-05
0.005086
9.085e-07
0.0007233
8.507e-06
0.006765
1.105e-05
4.554e-05
0.0001018
3.345e-05
8.33e-06
2.709e-05
5.405e-05
0.006662
2.477e-05
2.006e-05
1.077e-06
9.542e-06
0.0005289
0.0002019
2.411e-05
0.006699
5.613e-05
2.168e-05
0.0001671
0.0001885
0.0001595
2.237e-06
0.005931
0.006718
1.657e-05
2.879e-05
9.457e-05
3.846e-06
0.006701
1.497e-05
3.748e-05
5.314e-06
0.006701
7.037e-05
5.216e-06
4.869e-06
1.859e-05
2.38e-05
2.306e-06
0.006723
3.399e-06
0.004804
1.499e-05
7.886e-07
0.0009797
0.0001303
1.42e-05
1.845e-05
4.551e-06
4.879e-05
7.788e-05
0.006662
7.705e-06
9.99e-05
0.006702
1.657e-05
5.529e-06
2.252e-05
0.00678
0.0002076
6.653e-05
9.797e-05
6.826e-06
5.038e-05
0.003942
3.759e-06
8.612e-06
4.407e-05
0.0004234
0.006698
0.006452
0.0007037
2.183e-05
7.027e-05
5.138e-06
1.106e-06
6.089e-07
8.859e-06
3.215e-07
3.677e-06
0.001269
1.081e-06
8.946e-06
2.022e-05
2.714e-05
6.975e-05
1.416e-05
1.093e-05
1.365e-05
3.05e-06
4.996e-05
0.0003365
3.074e-05
4.953e-06
5.536e-06
1.161e-05
0.0002662
0.0001099
2.891e-05
4.055e-06
0.004163
1.979e-05
3.771e-05
1.657e-05
4.836e-06
1.535e-05
1.925e-06
9.46e-06
0.006666
2.623e-06
1.913e-05
0.006771
4.981e-06
0.006696
2.552e-05
1.892e-05
0.001457
1.296e-05
7.214e-06
0.006707
2.941e-05
3.121e-05
1.43e-06
0.0006257
1.069e-05
2.923e-06
7.237e-05
0.006692
4.236e-06
0.0001116
0.0005197
1.26e-05
6.326e-05
5.198e-06
2.733e-06
5.225e-06
1.091e-05
1.587e-05
6.431e-05
3.433e-06
0.006703
0.0002637
5.834e-06
5.763e-06
2.975e-05
0.006701
4.668e-07
5.128e-06
9.837e-06
0.0001218
5.558e-05
8.227e-06
0.006671
0.0004415
3.974e-05
3.34e-05
2.535e-05
5.657e-06
4.394e-06
3.125e-05
6.588e-06
6.532e-06
1.708e-05
4.407e-05
1.757e-05
1.147e-05
2.194e-05
3.444e-05
0.006701
2.021e-05
0.0009685
0.0001265
6.382e-05
8.489e-05
1.984e-05
4.12e-05
1.082e-06
1.975e-05
1.333e-05
0.002319
0.006694
6.372e-05
1.421e-05
4.092e-06
1.01e-05
7.62e-05
4.624e-06
1.436e-06
7.472e-06
2.172e-05
9.689e-06
5.237e-06
3.226e-06
6.282e-06
7.552e-05
4.776e-06
5.068e-05
4.811e-06
2.6e-05
1.342e-05
0.0002247
5.199e-06
0.006694
0.0001156
0.0006858
0.006692
7.613e-05
4.79e-06
0.0002255
5.282e-10
4.397e-06
6.001e-05
0.006699
8.819e-06
2.593e-05
0.003025
7.052e-06
6.144e-06
2.657e-05
7.336e-05
1.947e-05
0.006698
8.633e-06
0.006722
8.507e-05
2.126e-05
2.531e-06
5.973e-05
4.956e-06
6.092e-10
0.006601
0.006694
1.375e-05
8.486e-06
5.191e-06
0.0001827
5.244e-06
5.063e-06
3.657e-05
0.0001316
0.001249
4.303e-06
4.596e-06
1.41e-05
8.043e-05
0.006691
1.078e-05
4.853e-05
6.915e-06
4.886e-06
3.68e-05
0.0006153
2.84e-06
1.588e-05
0.0002738
3.372e-05
1.181e-05
8.036e-05
0.00671
0.006321
4.626e-06
2.923e-06
1.916e-05
3.234e-05
7.53e-05
0.0001605
5.182e-06
2.527e-05
0.006634
4.872e-06
1.279e-05
9.737e-07
8.823e-06
1.388e-05
0.006685
5.26e-06
5.258e-06
3.381e-05
4.088e-05
2.498e-06
2.27e-05
7.008e-06
6.047e-06
7.799e-06
5.115e-06
3.946e-06
6.736e-05
0.002034
2.568e-05
5.645e-05
1.221e-06
0.0004774
0.0001759
5.139e-06
1.309e-05
0.0001351
3.944e-06
1.394e-05
1.038e-06
2.063e-05
9.298e-07
1.777e-05
7.219e-05
1.425e-05
1.02e-06
9.312e-05
2.299e-06
2.038e-06
0.004747
2.093e-06
4.4e-06
3.756e-06
1.224e-05
7.326e-06
5.402e-05
0.0001007
6.209e-06
3.571e-05
2.885e-05
9.744e-06
5.056e-05
0.0001684
0.0001874
6.642e-05
1.245e-05
0.0001522
6.562e-05
2.326e-06
1.129e-05
2.164e-06
5.759e-06
5.171e-06
0.006657
1.736e-05
2.857e-05
1.024e-05
1.272e-05
2.51e-06
2.18e-05
5.231e-06
0.0001034
1.103e-05
7.435e-05
1.109e-05
2.238e-05
0.0004818
0.0001237
3.526e-05
1.937e-05
0.0001431
7.929e-05
1.852e-05
5.078e-06
9.284e-05
2.364e-06
2.28e-05
4.717e-08
2.577e-05
3.992e-05
0.0001056
1.887e-05
9.166e-05
3.913e-06
0.003898
0.002132
0.005245
9.821e-05
5.27e-06
6.306e-05
0.0002217
4.709e-06
0.0001337
4.72e-05
7.127e-08
4.477e-06
2.332e-06
5.082e-06
6.856e-05
5.371e-06
1.296e-06
0.0005854
2.559e-05
0.006698
1.02e-05
2.128e-05
6.565e-05
4.91e-05
0.006685
0.006674
2.342e-05
1.857e-05
0.0001078
1.006e-06
5.246e-06
0.006679
0.006698
7.069e-06
0.0002086
3.508e-06
3.659e-06
0.005848
4.086e-05
6.085e-05