/*--------------------------------*- C++ -*----------------------------------*\
  =========                 |
  \\      /  F ield         | OpenFOAM: The Open Source CFD Toolbox
   \\    /   O peration     | Website:  https://openfoam.org
    \\  /    A nd           | Version:  8
     \\/     M anipulation  |
\*---------------------------------------------------------------------------*/
FoamFile
{
    version     2.0;
    format      ascii;
    class       volScalarField;
    location    "40";
    object      k;
}
// * * * * * * * * * * * * * * * * * * * * * * * * * * * * * * * * * * * * * //

dimensions      [0 2 -2 0 0 0 0];

internalField   nonuniform List<scalar> 
127143
(
3.164e-13
7.611e-13
1.325e-11
6.824e-11
3.266e-11
7.232e-11
1.203e-09
2.034e-10
1.024e-10
1.164e-09
2.101e-09
3.059e-10
1.029e-10
1.186e-10
0.0001787
6.093e-09
5.085e-11
0.06387
0.03402
5.374e-08
0.01364
2.094e-06
0.0001542
3.862e-05
1.888e-06
1.884e-06
1.871e-06
2.306e-06
1.358e-06
0.05287
3.202e-05
1.98e-06
3.553e-07
6.901e-05
0.0001511
3.372e-07
0.008734
0.06318
5.168e-05
2.367e-06
0.03417
0.0001535
0.000153
7.721e-10
0.06232
7.79e-05
1.228e-06
0.01492
2.538e-05
5.527e-05
1.415e-08
0.0001496
0.02145
0.0001546
0.0001396
1.633e-05
0.0001395
0.0001679
0.0001474
0.0001545
0.0001532
0.0219
5.953e-05
0.0001482
0.0004032
0.000158
0.0001514
6.202e-05
6.186e-05
0.0002095
3.834e-05
3.786e-06
0.03038
0.0001474
0.0001458
4.641e-06
0.0001477
0.006422
1.619e-05
0.000149
1.214e-06
5.579e-08
0.0004482
4.895e-06
0.0252
0.007849
5.096e-05
7.641e-07
0.0001571
0.0001295
0.0001468
0.001115
0.0001902
0.01383
0.007141
0.0001723
0.0001534
1.516e-05
0.008981
0.0001513
0.0001489
2.659e-05
4.849e-05
0.0001484
0.008233
0.008658
4.396e-05
0.0002103
0.0001624
0.0001424
0.0002048
6.395e-07
0.01095
0.000161
0.0001456
0.0001693
0.0001478
0.0001459
0.0001476
1.378e-07
0.0001425
0.0005421
0.0001522
0.0001618
1.4e-06
6.686e-07
0.01612
0.0001489
0.00927
1.437e-05
0.004569
0.005468
5.66e-05
0.006605
1.658e-09
0.004797
0.0001557
0.01842
3.832e-06
0.0001537
0.0001546
0.000147
0.03207
0.03374
0.02218
0.0001969
5.858e-06
0.0001483
0.005093
2.664e-05
0.0001199
3.087e-05
0.0522
0.000152
0.000231
0.02531
0.0001679
1.455e-05
0.01518
8.438e-06
5.14e-05
8.499e-09
0.0001468
0.004573
2.945e-06
0.000589
0.006063
0.0001557
1.791e-05
0.0001491
0.001965
0.03338
0.0001686
0.0001577
0.000594
0.01966
0.0001914
0.009371
4.098e-05
0.0001561
0.000158
0.0001545
0.01949
0.01979
1.491e-05
0.02251
0.0001516
0.0001613
4.288e-05
0.0001551
0.01484
0.008196
0.0001553
0.0002241
8.635e-10
0.0188
0.0001292
0.0001283
5.465e-09
0.0001458
0.0001453
0.0001493
0.002509
0.00943
5.318e-10
7.408e-05
0.0001532
0.0001226
0.04163
0.0001456
0.0001663
0.0242
0.0001449
1.985e-05
0.002701
2.298e-09
0.000252
0.000128
0.007503
0.0001533
0.0001841
0.0001462
3.071e-05
0.02526
8.205e-06
0.001364
6.234e-06
0.06199
0.003861
0.01204
0.01322
0.0001544
0.03098
1.595e-06
0.01336
0.0001572
0.004573
8.557e-12
0.0001453
0.0185
0.008666
0.000817
0.01965
1.45e-05
0.05679
1.63e-07
4.09e-05
2.29e-06
1.011e-07
0.0002546
0.0001635
2.293e-06
0.0001307
0.02092
2.359e-05
0.0001637
0.0001489
3.63e-05
0.0001726
0.0001509
0.02024
0.0001514
0.000572
0.0001469
0.03616
0.000601
0.0008555
0.0002292
0.0001553
0.001513
4.74e-06
0.0005868
0.01815
0.01806
5.56e-05
0.01549
0.01115
3.157e-05
0.001097
0.0001767
0.0002159
0.0001916
0.0001488
0.0001456
0.0001455
7.697e-10
0.005016
0.0001456
3.145e-05
0.0001566
0.05005
0.0001575
0.0001571
0.0001679
0.0001453
0.0001717
2.88e-05
0.01034
0.01959
0.001166
9.994e-06
0.0001588
0.0001549
0.0001695
6.505e-06
0.0002083
0.0001227
0.000145
0.04519
8.39e-05
4.144e-05
0.003875
1.184e-05
0.0001913
0.0001454
0.0001327
0.06134
1.055e-05
0.0001587
0.005055
0.000154
4.027e-05
0.0001515
0.0001303
0.0001268
0.05522
0.0001504
0.01155
4.464e-05
0.0001813
0.01687
0.0001455
0.0001512
0.0001292
0.0001284
0.000152
0.0001626
0.0001686
0.01688
0.004398
0.0001537
0.0001277
0.02647
0.01632
0.0001671
3.136e-05
0.001488
0.01025
1.074e-05
0.006196
1.466e-05
0.03713
0.01847
0.01577
0.0001496
0.001737
0.0205
0.000192
0.0001488
4.374e-05
0.02114
5.672e-05
0.04862
6.339e-05
5.472e-05
0.0001468
0.0001458
0.003344
0.0006901
0.001112
0.0001551
0.0001516
4.401e-06
5.806e-05
0.0001544
0.0001538
2.642e-05
6.267e-06
0.009713
0.001138
0.05717
8.903e-07
1.573e-05
0.0001586
0.0001477
1.275e-07
0.0001504
2.942e-06
0.01809
0.06593
0.0001463
0.0001536
0.002933
2.636e-05
4.296e-05
2.885e-05
0.0001536
4.131e-05
0.0001495
0.0001511
3.854e-06
0.0001462
0.016
0.01979
0.0001505
0.0001047
0.00892
5.79e-05
0.000149
4.486e-05
0.0001912
9.658e-06
0.0001547
0.01528
0.000167
0.00743
0.008951
4.421e-06
0.04151
6.587e-05
0.006405
9.525e-06
0.002205
0.0002162
0.01171
0.0001511
0.0001528
0.0001531
0.001069
0.0001533
0.0001413
0.002095
0.01758
0.001105
0.01629
0.0001468
0.0001071
0.002131
0.0001495
0.0001453
0.0001454
5.982e-05
0.0001558
0.0001656
0.0001483
1.621e-05
0.0001455
0.0001727
0.003583
0.0242
0.01179
1.954e-05
0.0001129
0.0005635
0.0001504
0.01167
8.591e-06
0.001413
0.0111
0.01291
6.147e-05
0.01843
0.04737
0.0001561
0.01714
0.0004623
0.0001464
0.02017
0.0008834
0.0001386
0.01091
0.0003041
0.0001619
0.06261
0.000153
0.0001347
0.0002303
0.0002425
0.001711
0.03994
1.71e-06
0.0001885
0.003657
1.222e-05
0.0001853
0.01596
0.05028
0.0001448
1.373e-05
0.000147
0.0001809
5.206e-05
0.01839
0.000196
5.118e-09
0.003745
0.0001564
0.0001598
0.0001577
0.0001449
1.427e-06
0.0001465
0.01773
0.01968
2.779e-11
7.747e-09
1.03e-07
0.000147
0.001821
0.009332
0.0001454
0.02113
0.0001293
0.004101
0.0001523
0.01145
1.946e-05
0.01101
1.892e-05
0.0004035
0.02316
4.86e-07
5.183e-05
1.246e-05
0.002622
0.000147
0.0001239
0.001463
0.05033
0.0001458
1.133e-05
9.584e-06
0.002495
0.0001304
0.01992
0.0001568
0.001121
0.0001893
1.019e-05
0.04934
0.0001471
0.003436
0.0001846
0.0001387
0.0001587
0.02955
3.44e-05
6.373e-05
0.0007855
0.0002039
0.01864
0.008157
8.255e-05
0.005221
0.002265
0.0001465
4.145e-06
0.006142
7.49e-06
5.331e-05
0.01891
0.0001483
0.0001479
0.0001509
0.00142
0.0001603
0.0001455
0.0001408
0.0001771
2.909e-05
0.009212
0.0001853
0.0002403
5.946e-06
0.0001723
0.0001472
0.0001426
0.001936
0.01015
8.786e-05
0.0001564
4.849e-06
6.148e-05
0.003361
0.00112
3.788e-06
0.0001455
0.009408
0.02032
0.06407
0.0001341
0.001057
0.02039
9.495e-08
0.0001346
4.553e-05
0.0002807
0.0001453
0.000105
0.0001456
7.278e-05
0.04991
0.0001456
0.0006722
2.045e-05
0.004713
0.01034
0.03821
1.53e-05
1.621e-05
0.0001994
5.431e-05
0.0002084
6.899e-05
0.01649
0.02418
8.274e-06
0.0001483
1.496e-05
0.0001455
0.0001619
0.0001489
0.03366
0.0001413
0.0001456
0.0001686
6.704e-05
0.01078
0.0001383
0.0001412
0.004518
1.622e-06
0.0008339
1.591e-05
0.02602
0.000165
0.01177
0.0001918
0.01675
0.001291
0.0002885
0.0001385
0.002709
0.01835
0.0001657
0.002839
0.0001469
0.0001406
0.05775
5.538e-06
0.05031
2.187e-05
0.0001488
0.0001436
0.003222
0.00269
0.0001492
0.0005804
0.0001565
0.000165
0.0005441
0.000171
0.01911
0.0001525
1.3e-09
0.001704
0.01129
0.01156
0.00514
0.006949
4.855e-06
0.003158
0.000149
0.01091
0.01298
0.01648
0.0001417
3.238e-05
0.0001559
0.0001524
0.0001303
0.0001415
3.259e-06
0.0001598
1.773e-05
0.008177
0.0001764
0.04506
0.0001592
1.176e-05
0.0001516
2.647e-05
0.0001447
0.0001393
0.0001656
0.0001512
0.0008666
0.0001524
7.368e-06
0.02481
4.03e-05
0.0001606
0.04535
0.0001416
2.159e-05
0.0001531
2.106e-05
1.618e-09
7.785e-05
0.03995
0.01014
0.0001356
4.846e-05
5.1e-05
1.2e-05
0.04759
0.03651
0.01682
3.357e-05
0.008801
8.367e-05
0.02918
3.032e-05
4.705e-05
8.452e-05
0.01653
0.0001595
6.264e-13
0.0001559
0.0001491
5.7e-05
0.0001542
4.917e-05
0.0001441
0.01722
0.03783
0.009391
0.0001469
1.798e-05
0.002463
4.036e-06
0.0001584
0.002724
0.01483
0.002878
0.00644
0.0001492
0.01102
0.004177
0.0005869
0.02039
0.0001459
0.0269
0.0002529
0.0001461
0.0001246
0.0001671
0.007474
0.003802
0.000158
7.776e-05
1.745e-06
0.001179
0.0001279
0.01097
0.02297
3.117e-06
1.038e-05
0.0001551
0.02146
0.0002474
0.0001283
0.004343
0.000575
0.0393
3.062e-06
0.04053
0.002695
0.01404
0.02122
0.000173
0.0001469
5.394e-10
0.005253
0.01106
0.0005436
0.01173
0.002981
0.002509
4.772e-05
0.0001424
0.04027
0.0001497
0.0001441
0.001865
0.0001811
4.32e-05
0.0001484
0.0001364
0.01223
0.01902
0.0001448
0.000136
0.002915
0.02151
0.02596
0.003726
0.009729
1.779e-08
0.0001383
0.0001528
0.0001418
0.006579
0.007393
3.577e-05
9.138e-06
0.0001552
0.0001907
0.0001467
0.002691
2.831e-06
0.0001419
0.0001599
1.387e-05
4.935e-05
1.366e-06
0.0001477
0.0228
4.686e-05
0.0001459
1.078e-05
0.0001416
0.0001577
1.453e-05
0.004801
0.05525
1.163e-06
0.0001464
0.000709
0.0001527
1.208e-05
0.009635
5.637e-06
3.329e-05
0.000155
0.0001653
0.0001606
1.628e-08
0.0001458
0.05254
2.069e-05
7.165e-05
0.01272
2.093e-07
0.0001868
0.0001776
0.001904
1.629e-06
1.143e-06
0.001066
5.812e-09
0.000225
3.63e-09
0.005173
0.0006552
0.04114
2.627e-07
0.0001476
3.944e-05
0.0001337
0.0001327
0.02693
0.0001498
0.01037
0.03775
0.0001601
0.0001666
0.0001553
0.0001078
5.548e-05
0.0001463
0.05408
0.006658
0.0001552
0.0006653
3.41e-07
0.01979
0.0001412
0.0001926
0.04356
0.002514
0.0001451
0.01902
2.146e-05
0.0001484
0.000832
0.006028
0.02345
0.0001379
0.006009
0.06043
5.719e-09
0.0001774
3.083e-07
0.01189
0.0001897
6.406e-05
0.0001702
0.001723
0.0001303
5e-06
0.0001534
0.0001312
0.00017
1.58e-06
0.06091
0.000318
0.000108
0.0001663
6.972e-05
3.69e-09
3.493e-05
0.0001472
0.0001461
0.0001353
0.0001787
0.003635
0.0009227
0.000178
5.069e-06
0.007863
0.0001524
4.673e-06
0.0001538
1.978e-05
0.0001445
0.01357
0.002493
0.02622
0.002447
0.009939
0.0001457
0.0001459
0.0007518
0.000155
0.00686
2.851e-05
0.002224
0.02119
0.05606
0.005996
0.003173
2.287e-08
0.02317
2.363e-05
0.0004612
0.0001104
0.0194
0.0002249
0.003018
0.001308
5.098e-06
0.009565
0.0001441
0.000143
0.01218
0.01518
0.0001672
0.0001395
0.0001933
0.01168
0.0001692
0.00209
0.05895
0.0008362
0.0001564
0.000149
0.00016
0.0001712
8.346e-07
6.703e-06
0.01577
0.0001539
0.05135
0.0009354
4.12e-05
6.325e-05
0.02537
0.0001842
4.426e-05
0.00627
3.937e-06
0.0001489
3.15e-06
0.0001581
0.02338
0.01111
0.0001687
0.0001457
1.128e-06
2.646e-08
0.0001363
0.0001441
0.01598
0.01171
7.85e-07
0.01164
3.991e-05
3.532e-05
0.000641
0.0001615
0.0001656
0.0001477
0.0004614
0.02536
0.001283
0.0001718
0.0007076
0.007804
0.0001501
3.197e-08
0.01166
0.0001453
0.003899
0.0001414
0.0001447
9.097e-05
0.0001546
1.107e-06
0.0001443
1.191e-05
0.000146
0.0001741
0.0001543
0.05394
0.0001346
1.339e-05
1.919e-05
0.000448
5.502e-05
0.0001971
0.0001552
0.02746
3.198e-05
0.003179
0.0007072
7.293e-07
0.0003949
2.564e-07
0.009509
2.466e-05
0.0004607
2.789e-05
1.613e-06
0.0001517
0.04335
0.0001686
0.001838
0.01547
4.672e-06
0.0001806
0.0001001
0.01584
5.287e-05
7.445e-05
0.01409
0.0001679
0.0003982
0.02788
5.288e-05
0.009686
1.203e-05
0.009378
0.0001372
7.013e-05
0.001857
0.000146
0.003467
0.0006781
0.000138
0.0001721
0.01125
0.0001537
0.0001517
0.05206
0.01381
0.0001578
0.0001319
0.003105
0.001917
0.0001449
0.0001515
0.0001504
0.01159
0.001797
0.0001461
0.0001547
0.002825
6.42e-06
1.487e-05
2.46e-05
0.01314
2.482e-07
0.0002015
4.892e-05
0.0001456
0.006502
0.0001854
0.005724
7.377e-05
0.003504
3.839e-05
0.0001471
1.275e-07
0.0001186
0.0002602
5.297e-05
4.524e-05
0.02347
0.04884
5.952e-06
4.566e-05
0.0001502
2.584e-10
0.01342
5.498e-05
8.386e-06
3.224e-05
0.0001836
0.0146
9.111e-05
4.546e-05
0.003456
0.05434
1.994e-05
3.165e-05
0.06295
2.784e-07
0.0001586
4.753e-05
0.0001567
1.168e-05
0.000131
0.0001448
0.05918
1.504e-07
0.01181
0.002069
1.236e-06
0.0009473
0.0001459
1.798e-06
4.074e-05
0.057
2.43e-06
0.0001731
0.008659
4.172e-09
0.05467
2.076e-05
0.01394
4.524e-05
4.383e-05
2.217e-05
7.703e-06
0.0001865
0.003332
0.000158
0.03756
0.001521
0.002917
0.0001674
6.926e-05
0.02422
0.0001088
0.01845
0.0001614
0.02397
0.0001532
0.0001582
0.0001307
2.638e-07
0.0001506
6.668e-06
8.16e-05
0.005814
0.004783
0.0001459
0.01724
0.01281
0.0001619
8.733e-05
8.817e-06
6.701e-06
0.0001427
1.898e-05
0.002213
0.01131
4.023e-08
0.02374
0.0374
0.001726
0.0001464
0.001598
0.004819
6.035e-07
0.005617
0.0001607
0.01662
0.0001454
3.458e-08
7.085e-08
0.009346
0.0001653
0.000171
0.0001354
0.0001316
0.006962
0.02282
0.02955
0.0001539
0.0001557
0.0001571
0.000158
0.008179
0.04076
0.002372
3.1e-05
3.213e-08
0.0001647
4.487e-06
0.009638
0.00138
0.0001318
3.291e-05
0.01417
8.638e-05
1.868e-08
0.02768
0.02513
0.003144
5.659e-05
0.01585
3.691e-08
0.055
0.007787
0.0228
0.02615
0.0001412
2.834e-05
1.653e-08
0.000155
0.004381
0.0001414
4.189e-05
9.936e-05
0.0001354
0.0001198
8.345e-05
0.006041
1.755e-05
0.0001429
0.0001627
2.16e-09
0.0001457
6.364e-05
0.0004345
5.366e-05
7.923e-06
0.0001662
0.0001469
0.004597
2.797e-06
0.004132
0.005111
0.0001509
6.822e-05
4.407e-05
2.505e-05
0.001937
0.004501
0.0001451
0.006949
0.03679
1.215e-05
0.0002305
0.02278
0.004049
0.0001453
0.0001658
0.001715
0.0001457
0.02484
0.0001378
2.55e-05
0.02525
2.198e-07
0.003569
0.0297
5.551e-05
0.01155
6.366e-05
2.585e-05
2.07e-09
0.005383
0.002094
0.03703
0.01448
0.0183
0.0001482
0.01583
0.0001467
0.01456
0.0001474
0.02544
0.0001435
0.002925
0.008225
0.000138
0.0001446
0.01019
0.0001571
0.0002242
0.0001544
0.0001341
0.0001844
0.008816
0.00015
6.455e-08
2.531e-05
1.312e-06
3.425e-05
5.753e-05
2.831e-05
3.297e-05
0.01814
0.0002093
1.67e-06
0.02279
0.000195
0.0009673
0.01229
0.02531
0.03258
0.0001441
2.036e-09
0.007009
2.958e-06
0.0001458
2.252e-08
7.095e-05
2.374e-05
0.0104
0.000131
0.0001309
0.006026
0.05073
0.01298
0.01846
4.719e-05
0.0001673
0.000156
0.005829
0.0001569
5.245e-06
0.0001501
0.0001992
0.01038
0.0001402
0.0004573
0.0004072
5.564e-05
2.374e-05
0.01071
0.0001463
0.01587
0.01334
2.486e-07
0.02578
0.0001538
8.32e-05
0.002888
4.334e-05
0.01801
0.0002084
0.04402
0.0001455
0.01596
0.0001561
1.881e-08
5.909e-06
0.0001673
0.005365
0.000131
0.0001576
0.0001305
0.0001664
0.001109
8.029e-09
0.0001517
4.218e-07
0.01046
0.0001439
0.003639
0.001384
0.02006
0.0001519
0.02024
0.004296
5.333e-05
0.01292
0.03486
2.068e-05
0.0001524
0.0001219
0.0002147
1.647e-05
0.000179
0.0001785
2.585e-05
0.0001739
1.723e-08
0.0002027
1.063e-05
1.398e-05
2.455e-09
0.003385
0.002861
0.0001492
0.0001458
0.0001437
0.01725
0.000143
5.636e-08
0.0001454
4.132e-06
0.0001572
0.0001976
0.0002162
2.423e-05
0.0002336
5.356e-06
0.0001588
0.0002561
0.01102
1.391e-05
0.000145
0.005841
0.0004167
0.01197
0.0007556
0.002771
0.00759
0.0001579
0.0001461
0.0001539
0.0001372
5.408e-05
0.0001854
0.0001329
0.0001585
0.0002512
0.0001372
3.536e-06
0.0001462
0.02068
0.04737
0.01738
0.0002275
0.0001393
0.01187
0.0006603
0.01525
0.0001517
0.0001182
0.0001546
0.0001455
0.0001417
0.01604
3.145e-08
0.0001479
4.179e-05
0.0001495
2.147e-06
0.0001628
0.000153
0.0001741
0.0001685
0.002084
2.495e-05
0.0001501
7.34e-05
0.0001469
0.01482
0.0001486
0.0001524
9.389e-05
0.01953
0.0001581
8.678e-06
0.002646
0.0001415
0.03982
3.198e-06
0.0009507
2.96e-08
4.951e-06
0.03047
0.0001531
0.0001748
4.671e-06
0.02906
7.755e-05
6.584e-05
0.0002051
0.0001549
0.0001444
0.007962
3.51e-05
0.01819
0.0001459
0.003664
0.0001456
0.0001624
0.002069
0.000143
0.03278
0.000171
0.0001894
0.01759
0.002061
3.153e-05
0.0001466
2.472e-05
5.479e-06
0.0001663
0.03272
3.32e-05
0.000158
0.05205
0.01874
2.582e-05
0.0001611
0.01571
1.143e-05
0.01088
0.005205
1.449e-05
0.0001575
0.000154
0.0001359
0.0001519
3.004e-05
0.01055
0.0001516
4.618e-05
0.0001484
0.0007267
0.000785
0.06049
0.03196
0.004328
2.781e-08
0.007412
1.933e-07
0.0001682
0.0001376
2e-07
3.859e-05
0.0001572
2.408e-05
0.0001511
0.04011
0.0001491
0.02243
5.284e-07
0.01596
0.0001871
6.22e-05
3.685e-05
0.0001464
4.801e-05
0.0001534
0.0001832
6.967e-05
0.0001494
5.731e-05
2.841e-06
0.0001444
0.0001489
0.01767
0.0001958
0.02614
0.0001736
0.0001718
0.0001977
0.0001676
0.02303
0.0002206
0.0001822
0.01068
0.0001373
0.0001539
3.077e-05
5.892e-07
0.0001398
0.001946
6.686e-07
0.04247
0.0006975
0.02055
5.01e-05
5.624e-07
0.0001718
0.0002699
0.01554
0.0001509
0.0006181
0.0001918
0.01967
2.351e-06
0.004774
0.0001491
0.003236
1.446e-09
1.523e-08
0.01496
0.01481
0.004009
0.0001682
0.01843
0.0001069
0.02115
0.0002031
0.007931
0.01142
9.483e-05
1.818e-06
0.008814
0.0001651
0.0001453
0.0001783
0.0001627
0.006968
0.0001526
0.0001513
4.182e-05
0.01505
0.03757
0.0001358
2.038e-05
5.21e-06
0.0554
0.002132
0.0127
2.153e-08
2.693e-05
0.0001494
0.00255
9.558e-05
0.01478
3.99e-05
1.426e-08
0.0001282
1.394e-06
0.0001596
4.031e-05
0.000135
0.01372
0.0198
1.284e-05
0.002832
0.02489
6.136e-06
0.0001563
0.0001646
3.102e-05
0.0001534
0.02502
0.0001454
2.379e-05
1.368e-05
6.167e-05
1.054e-05
8.958e-06
0.01612
1.246e-07
0.0002645
0.0002156
0.0001815
0.02599
0.0001513
0.04064
6.178e-05
0.01971
5.573e-05
0.0001962
5.417e-05
4.135e-09
2.786e-07
0.008101
0.02124
0.0001621
0.0001585
0.0001462
0.000149
0.01196
0.0001627
0.0001452
4.638e-05
5.492e-05
3.353e-05
0.008345
0.0001464
4.668e-05
0.05376
0.0001442
2.742e-07
1.606e-05
0.0001563
4.525e-05
5.531e-09
0.01812
0.0004752
0.04719
0.0001093
0.0003169
3.009e-10
0.0001085
9.817e-05
0.0001507
0.0001561
4.001e-05
0.007693
0.0001455
0.0001471
0.01399
5.367e-06
0.0245
4.316e-05
1.531e-07
0.0001713
0.0001491
7.561e-06
0.0254
0.008824
1.431e-06
0.0001692
0.02362
0.02236
0.004805
0.0001683
0.008316
0.0001465
0.001729
0.02931
5.531e-06
0.04936
3.012e-05
3.038e-05
0.0001718
7.816e-06
0.05941
0.0002158
5.769e-05
0.0007415
0.0001515
0.01704
0.0055
0.007448
0.0009156
0.009001
4.475e-05
0.0005248
0.0001452
0.01001
0.04779
7.962e-06
5.954e-05
0.0005741
0.03999
0.0001538
6.785e-05
0.0001626
0.007241
0.02145
0.01406
0.02512
0.02593
0.0001658
4.196e-07
0.0001617
0.0001488
0.0003161
0.0001395
0.01909
0.00015
0.0001682
0.01822
0.0001439
0.0001637
6.357e-05
0.0009792
0.0001457
0.0001484
0.0261
8.326e-05
0.002266
0.0001996
0.04271
0.01586
1.114e-05
2.525e-05
0.05282
0.0001663
0.05559
0.0001589
4.855e-05
6.684e-08
0.02233
2.539e-05
3.527e-05
0.02008
3.025e-08
0.0001455
0.0001373
0.0001622
0.0001528
5.371e-09
0.0001459
0.03207
0.0002298
3.474e-08
0.0004446
1.292e-05
0.0001247
0.0001243
2.801e-05
0.007491
0.01778
0.0002249
0.00015
0.06366
0.0001651
0.000149
8.297e-06
4.408e-05
4.521e-05
0.01968
1.575e-06
0.002045
0.0001748
0.0001321
0.0001169
5.083e-05
7.691e-06
2.421e-05
0.005839
3.439e-06
0.003858
0.01334
6.647e-05
0.001898
0.005292
0.0001544
0.000149
2.656e-05
0.0001343
0.0001325
0.0007707
0.006809
6.224e-07
0.0001613
3.44e-05
0.006494
0.000352
0.0001455
0.0001821
0.0001482
0.01012
9.692e-08
0.0001816
0.0001566
8.603e-05
0.0001527
2.694e-06
0.0001056
0.000194
0.0001071
0.0001294
4.21e-05
0.01921
0.000132
0.004411
0.01201
0.01365
0.006991
9.327e-05
0.01536
8.863e-06
4.866e-05
0.007298
0.01317
1.91e-05
0.01141
0.003498
0.0004466
0.0001566
0.0001625
0.0001234
1.166e-07
0.0001657
0.004593
0.0001472
0.021
0.0001484
3.987e-05
0.02567
1.249e-07
0.001483
0.000153
7.814e-05
1.693e-08
8.276e-06
0.01469
4.848e-05
1.469e-05
1.824e-05
0.0005785
0.01888
6.053e-05
1.31e-07
0.003157
0.005598
0.0001671
0.0001599
0.0001456
0.0311
3.281e-05
0.0001519
0.003222
0.02555
0.0001542
5.562e-05
0.0001311
0.05031
0.0001661
0.02488
1.884e-05
0.0001636
0.000173
0.02818
0.0001506
7.355e-05
7.572e-05
9.233e-07
0.0005409
0.0002896
0.000143
0.009965
0.001471
8.382e-05
5.36e-05
5.816e-05
0.03039
0.01073
0.0001454
2.82e-05
3.645e-05
0.0001766
0.0001977
0.02934
6.004e-05
1.244e-05
3.991e-05
0.0001974
0.0001611
0.0001555
8.061e-05
0.04409
0.0001538
2.785e-07
0.0001838
0.001727
0.0001456
0.0001473
0.0001968
0.0001463
0.0007218
9.901e-05
0.006841
0.02789
1.141e-05
5.552e-05
0.002714
0.0001051
0.003273
0.02454
1.481e-07
0.009892
0.00376
0.004973
3.546e-07
0.01868
1.365e-05
5.038e-07
0.0001504
0.0001534
1.453e-05
0.0001558
0.01593
0.0002413
0.0002085
6.539e-05
0.01019
0.009379
0.0001492
0.03658
0.0001478
0.0001655
0.01589
0.006775
0.0003589
0.02666
1.68e-07
0.01286
0.0001464
0.002407
0.007185
0.05989
5.183e-05
0.009202
0.0002448
1.167e-05
8.014e-06
1.739e-07
0.001724
5.512e-05
0.003483
0.003953
0.002536
0.0001517
2.833e-07
0.002892
4.516e-05
0.0001616
0.0001442
0.008305
0.001704
0.01848
0.0001579
1.553e-07
0.0004035
0.00015
0.03865
0.01271
2.641e-05
0.0001449
0.0004959
0.02109
0.0001514
0.0001396
2.12e-05
0.0001452
0.002947
0.01476
0.0001642
1.726e-06
0.000178
0.009814
1.935e-08
0.006425
4.142e-05
0.0001313
0.0001303
5.707e-05
0.05743
0.0001756
0.0004708
6.345e-05
0.0001438
5.745e-05
7.443e-06
0.02016
0.0001457
0.0001465
0.01847
0.0127
5.996e-05
1.59e-09
1.741e-05
0.0001519
2.242e-05
2.485e-06
0.0001544
1.464e-05
5.404e-05
0.0002674
0.0001688
5.852e-05
0.03333
0.01807
0.0001302
0.0001284
0.0001287
0.0001265
0.0001584
0.02227
0.000123
3.37e-05
0.0001386
0.006851
0.01218
0.0001707
0.0001272
0.00601
0.01028
0.0009572
0.0003439
0.0004741
0.01422
4.793e-05
2.788e-05
0.02237
6.606e-05
0.000161
4.563e-05
1.381e-08
4.451e-05
9.066e-07
0.000153
0.0001481
0.0001454
3.186e-07
0.004596
2.692e-05
0.0001282
0.0001505
1.109e-07
0.0001459
0.009225
0.0006159
0.0001715
0.007225
0.004239
0.01769
0.01272
3.583e-05
0.0001512
0.0002317
0.0001369
0.0001678
0.001034
0.001804
0.01572
0.0001627
0.0001437
0.0001455
0.000156
0.006808
0.0001573
0.0001685
0.01472
0.005545
0.0001635
3.245e-05
2.752e-05
0.0438
0.02462
0.02183
0.004635
0.0001607
2.395e-08
0.0001524
0.0001454
7.506e-07
0.0001454
0.000145
0.0001595
0.0002634
9.913e-06
0.01182
1.002e-05
0.009595
2.623e-05
0.0001464
0.0001575
0.0069
3.339e-05
0.02301
0.0001871
0.0001571
2.366e-06
2.816e-05
0.0001483
5.507e-06
2.996e-05
3.47e-09
0.0001975
0.0407
0.03518
0.0001548
0.0001485
0.04207
0.0001908
1.675e-06
0.0001512
1.435e-05
8.409e-08
0.0001455
2.17e-05
0.0001177
6.623e-05
0.0001458
1.082e-05
3.343e-07
1.246e-08
3.384e-08
0.0001671
0.05702
5.103e-08
0.0001566
0.003488
0.000144
0.01481
0.0001785
0.03206
0.0009133
3.223e-08
0.0001586
0.01616
0.0001485
0.0001492
0.0001521
3.609e-05
0.0002959
0.04397
0.0001822
0.008031
0.000167
0.01688
0.02229
0.005739
0.005703
0.0001456
0.02392
0.01753
3.311e-05
0.0005623
0.0001299
3.398e-05
0.000269
2.559e-07
1.316e-07
2.578e-10
2.579e-05
0.0001539
2.284e-05
0.0001488
8.444e-06
1.233e-05
0.0001456
3.205e-08
0.0001489
0.001681
1.388e-05
5.415e-06
0.01274
0.0002204
0.001908
0.0001257
0.0001302
1.666e-08
0.03161
0.0001658
0.01744
0.01151
1.503e-07
1.73e-07
2.569e-07
0.01928
2.239e-05
0.0001041
0.01916
0.0001518
4.565e-05
5.739e-06
0.0001392
0.005905
4.875e-05
0.01274
5.349e-05
0.01849
0.03368
9.28e-07
3.98e-05
5.284e-05
2.079e-07
0.0001794
1.953e-06
0.0001525
6.376e-05
0.002574
0.0001483
0.0001549
6.876e-05
0.0009061
0.002754
2.748e-07
0.0001611
0.0001456
0.0001442
3.109e-05
1.802e-05
0.01279
0.03028
0.0001261
0.000151
5.446e-06
0.0001265
0.0006867
2.891e-05
0.0001541
0.003606
0.01705
3.407e-07
1.631e-07
2.431e-08
0.0001505
2.17e-05
0.006438
0.00577
0.0444
0.02526
3.355e-06
0.01761
9.606e-06
2.937e-05
4.897e-05
7.431e-05
0.0001723
1.224e-07
0.02265
5.966e-05
0.02033
0.0001614
5.794e-05
0.0001601
0.0001461
9.38e-05
0.0002525
0.005268
0.0001357
5.518e-05
3.204e-07
8.764e-09
0.02654
2.618e-07
0.0005945
0.0001613
0.0001503
0.0001544
0.0001525
0.0001489
0.0001046
2.133e-07
0.0007866
1.241e-05
0.04847
0.04846
7.549e-05
0.005097
0.01597
0.0007948
0.02445
1.656e-06
0.005379
0.000136
0.008524
6.524e-05
0.0001477
0.0001553
5.692e-06
0.0001463
0.003059
0.002389
3.03e-05
0.0001568
1.726e-06
0.0002367
0.01052
0.0001506
1.508e-05
0.000363
2.692e-05
5.528e-05
0.0001432
4.379e-05
0.0001442
0.0001682
0.001886
0.06574
2.914e-08
0.002627
1.473e-05
0.0328
1.202e-05
0.0001589
0.0004672
0.009714
0.0006773
0.000139
0.0001589
0.0001463
2.038e-05
0.0001052
0.0001951
0.005574
0.0001427
0.0004215
3.469e-05
0.007532
0.0001371
0.00294
0.0007314
0.0001477
0.006776
0.0001606
0.0001722
0.003164
6.703e-05
0.0001559
0.0001637
0.0001567
0.0002069
0.009274
0.000137
0.0001351
0.0001468
0.0001537
0.0001519
0.001369
0.0005129
0.0001459
3.777e-05
0.0001921
4.509e-05
0.0001469
0.0001659
0.0001521
4.723e-06
0.0002498
2.006e-08
0.05683
3.324e-06
0.0001518
0.0001588
2.928e-07
0.0001504
5.188e-05
4.629e-05
4.471e-05
0.001111
0.00851
0.000146
7.001e-05
0.002308
0.0267
0.007401
0.01632
0.0001242
0.008709
7.097e-05
5.582e-05
0.0001438
0.01462
7.121e-05
5.059e-06
0.0001517
0.0001481
0.001214
0.0003248
0.01069
0.01461
0.0001095
6.382e-05
0.0001536
6.402e-05
0.007271
0.02516
0.01301
0.03095
0.0001359
0.0001795
2.903e-08
0.03718
0.01342
1.899e-05
0.0001653
0.0001631
0.0001449
0.00015
0.0001601
0.0001597
6.587e-07
0.003347
0.000147
0.0001474
5.751e-05
2.77e-09
0.0001469
0.01219
4.089e-05
4.537e-05
0.0001711
0.005134
6.626e-05
0.008662
0.0001811
1.321e-05
3.093e-06
0.0001435
0.0001461
0.006201
0.04872
0.003999
0.0001429
0.0001698
0.001813
0.01917
0.001371
4.363e-08
3.245e-06
0.05916
0.0003916
2.575e-06
0.03056
4.303e-05
0.01138
0.0001707
0.0001686
5.008e-06
1.822e-07
0.0001443
0.001969
7.161e-05
0.0001469
3.516e-05
0.01177
0.0001655
0.0001554
0.03225
1.264e-05
0.001149
0.0001515
0.0001454
0.0001458
0.05537
0.01323
0.0001339
0.001266
0.0001489
1.243e-05
0.02867
0.01295
3.883e-05
3.645e-06
0.06083
0.02614
0.0001429
2.32e-07
0.000174
7.216e-05
2.369e-05
0.0001539
0.0001524
0.002016
0.003918
3.305e-08
0.03232
6.107e-07
0.0001385
0.000142
0.007367
0.0001515
0.000143
3.272e-08
5.965e-05
4.074e-05
5.022e-05
0.009278
0.008467
0.0001359
2.594e-08
0.0001558
6.935e-05
0.000135
0.0001523
0.01312
0.009674
0.007176
0.03129
0.02806
0.002204
0.0001362
0.008134
0.0002246
5.311e-05
1.491e-05
0.0001604
0.02025
9.383e-05
0.0001471
0.003575
0.001316
0.0001836
0.0001539
0.0175
7.525e-07
0.0001304
0.0001438
7.818e-05
0.0005483
0.0251
3.014e-05
0.0001478
0.0002447
0.003439
7.156e-05
0.000148
0.0001532
9.238e-06
4.945e-05
5.354e-05
0.01078
0.0002009
0.0001366
2.17e-05
0.0001407
0.0005117
2.827e-08
0.000159
0.01137
0.01707
0.0005654
9.995e-06
0.002604
0.0001526
0.0001363
0.01279
0.0001578
0.0001447
0.001993
0.0001496
0.02994
0.0001362
0.0001552
0.0001546
0.0001492
6.852e-05
0.004437
0.0001455
0.0001355
7.212e-05
0.00285
0.0001503
0.0001467
0.0001447
0.0001576
0.05622
0.06176
1.787e-05
2.814e-08
2.397e-07
7.109e-05
1.91e-06
2.172e-06
0.000148
5.287e-08
0.0102
0.0001184
0.02831
0.0001556
0.0001661
0.000237
0.0006364
5.778e-06
0.0008573
0.0001566
0.009433
5.147e-05
6.425e-05
0.0001677
0.0001637
0.008911
0.0001542
3.824e-05
0.0001474
0.01008
0.0001429
0.0003906
0.0001528
0.0006391
3.374e-07
4.2e-05
0.0001373
1.096e-05
0.009768
0.0001328
0.000199
0.000146
0.0001538
0.007842
0.0003097
0.001303
0.0001068
0.0001495
0.000169
0.03211
6.323e-07
0.000147
0.0001528
1.971e-07
0.0001414
0.0001443
4.115e-06
0.01229
0.0001528
0.0001527
0.05268
4.834e-05
5.084e-08
1.768e-05
0.00979
0.02691
0.007044
0.0001549
0.0001451
0.0001537
5.225e-05
4.782e-05
0.005359
0.0001479
4.009e-07
5.258e-05
5.917e-05
0.01384
0.006797
0.009376
0.0001343
0.0001558
0.0004795
0.002535
0.0001507
4.026e-05
1.473e-05
0.033
0.0001623
0.0001727
0.02019
0.0001507
0.026
6.3e-05
0.005603
0.0001352
0.0001477
0.0001164
0.0003859
0.01123
0.0001602
0.0001485
0.0001989
0.005718
1.507e-09
0.03874
0.000158
0.0004367
0.0001415
0.0001403
7.154e-05
3.609e-06
0.0001255
0.002803
2.071e-05
1.388e-05
0.02755
0.0001579
0.01017
3.667e-05
6.72e-07
0.01628
0.0001517
4.291e-06
0.000167
8.22e-06
9.777e-05
0.02062
0.02258
4.752e-05
0.0001459
0.01035
0.0001664
0.0001448
0.0002353
4.1e-06
0.002905
5.727e-08
1.635e-05
0.002946
0.0001448
0.03249
0.003455
0.0001631
0.02023
0.01607
0.001022
0.002761
0.0001039
0.0001465
0.006245
0.0001381
0.0001486
0.002786
0.000206
0.0001619
3.846e-05
3.442e-08
0.0001421
0.0001455
8.89e-05
7.558e-05
5.997e-06
0.0001657
0.01196
1.237e-05
0.05734
0.02145
0.0001459
0.0001788
6.654e-06
0.0001518
0.01044
0.0001442
8.865e-05
0.0001518
0.02572
2.167e-05
0.004093
0.0006245
8.023e-05
0.01723
0.0001499
0.0006134
0.006263
0.0001661
0.0001435
0.0001483
2.098e-05
9.798e-05
9.086e-05
0.03556
0.004155
0.04698
4.444e-05
0.0001155
0.0001281
0.0001526
0.000158
1.05e-08
2.685e-05
0.0001118
0.0001426
2.212e-05
6.624e-05
0.0009407
0.0007725
8.14e-08
0.000175
0.02388
4.675e-05
5.253e-05
1.489e-05
2.843e-06
0.05327
0.0002024
0.03977
0.0001501
5.519e-09
0.0001471
0.02524
2.208e-05
7.279e-05
0.02158
0.0001166
0.01072
6.584e-06
0.0145
0.0002587
0.05635
0.0001409
0.001643
1.054e-08
0.01317
5.406e-07
1.967e-07
0.0001455
5.356e-07
0.0002163
7.363e-06
0.0001099
0.02629
0.04918
0.00614
4.726e-05
0.0001322
0.0001505
0.02318
0.0133
0.01685
0.02111
0.004588
0.0001569
0.0001619
0.02657
2.811e-07
0.01235
6.089e-05
5.094e-05
2.155e-05
0.0001348
0.0007749
0.006166
5.527e-05
0.01702
1.548e-07
0.002231
5.87e-05
0.0001544
4.453e-05
0.0001533
0.01543
0.009588
0.0001582
0.0001676
0.009674
9.315e-05
0.01472
0.003231
8.555e-05
3.65e-05
0.01182
1.5e-07
0.0001033
1.29e-06
0.0001503
0.06623
0.006371
0.02541
0.0001526
0.0001361
0.0001455
0.0001467
0.0001455
0.009507
4.901e-05
0.006498
0.01552
0.0001513
0.01463
0.0001509
1.826e-07
3.14e-06
3.158e-07
5.885e-05
0.0001534
1.436e-05
8.427e-05
0.0001575
0.00015
0.0001464
0.038
0.03002
0.00247
0.06282
0.0001422
0.000143
0.005444
0.02345
0.0001516
2.178e-08
4.315e-05
0.0001398
0.0001459
5.022e-05
0.0001513
2.172e-05
5.528e-07
0.0001551
0.0001736
0.001771
0.0001027
0.001216
3.344e-08
0.0001873
0.0001608
5.662e-05
3.896e-05
0.0001532
0.002467
0.0001471
0.0001633
1.251e-05
0.00335
3.435e-08
0.0001506
8.386e-05
0.001013
3.444e-05
0.0001462
0.009369
0.0001456
0.03358
0.05797
0.0001323
0.02605
6.277e-05
0.0002179
0.0001597
9.397e-06
6.931e-05
0.000272
1.267e-05
1.55e-05
0.005202
0.0007976
4.794e-05
0.002961
0.01903
3.291e-05
0.0001386
4.785e-07
1.567e-07
6.772e-06
5.798e-05
0.0001584
5.064e-06
3.884e-05
0.0001599
0.0001711
5.73e-06
0.004567
0.0001652
0.0001363
0.0001883
3.546e-05
0.0001369
0.06457
0.0001013
0.009882
0.000144
4.837e-05
5.501e-05
0.0002114
2.345e-05
1.32e-09
0.0003584
0.01075
0.0001462
0.01131
0.004006
2.057e-05
0.008617
0.03511
0.02136
4.77e-06
0.01309
0.0001586
0.01141
2.217e-05
0.0001519
0.05322
0.0001524
0.05123
2.849e-07
0.001802
0.0001476
0.0001549
0.04082
1.401e-07
0.001659
0.0001431
0.0001564
1.446e-05
0.0001518
0.008511
1.174e-05
0.0004582
0.02217
0.000145
0.0001612
0.01752
0.01257
0.000161
2.461e-05
0.0001384
2.271e-05
0.01272
0.001639
0.01051
0.01002
0.009976
2.592e-05
0.0001754
0.0001524
6.308e-05
0.000146
1.935e-08