/*--------------------------------*- C++ -*----------------------------------*\
  =========                 |
  \\      /  F ield         | OpenFOAM: The Open Source CFD Toolbox
   \\    /   O peration     | Website:  https://openfoam.org
    \\  /    A nd           | Version:  8
     \\/     M anipulation  |
\*---------------------------------------------------------------------------*/
FoamFile
{
    version     2.0;
    format      ascii;
    class       volScalarField;
    location    "40";
    object      nut;
}
// * * * * * * * * * * * * * * * * * * * * * * * * * * * * * * * * * * * * * //

dimensions      [0 2 -1 0 0 0 0];

internalField   nonuniform List<scalar> 
127143
(
8.28e-21
1.059e-20
1.617e-19
1.953e-18
1.113e-17
2.045e-18
1.038e-15
1.005e-16
3.167e-17
2.467e-15
1.233e-15
1.149e-16
1.067e-18
4.008e-18
4.609e-07
7.688e-14
5.138e-18
0.004429
0.003912
1.652e-12
0.0007439
2.935e-11
6.902e-05
1.47e-07
2.458e-11
1.168e-09
3.129e-10
4.006e-10
2.646e-10
0.00402
7.92e-08
1.117e-09
5.723e-11
6.396e-08
5.061e-05
5.195e-11
0.0002015
0.0007245
2.361e-07
1.112e-09
0.003906
4.238e-06
4.505e-06
5.624e-17
0.004468
7.249e-08
2.665e-10
0.0008545
9.307e-08
1.974e-07
2.804e-13
0.0004728
0.0003716
3.056e-05
0.006671
2.925e-08
0.00667
9.58e-05
0.005431
3.194e-05
3.907e-06
0.002249
8.043e-07
0.006702
1.074e-06
2.175e-05
5.329e-05
6.907e-07
6.936e-07
0.002523
1.078e-07
9.286e-10
0.002429
0.004758
0.006693
1.116e-09
0.0007338
0.0002324
2.947e-08
0.006705
2.54e-10
1.922e-12
1.207e-06
3.693e-09
0.001769
0.0003253
3.211e-07
1.628e-10
2.208e-05
2.083e-07
0.006653
0.0001773
6.617e-07
0.0007561
0.0001395
0.0001469
4.647e-06
2.8e-08
0.000577
4.819e-05
0.006705
1.063e-07
1.759e-08
3.107e-05
0.0003578
0.0005387
4.96e-07
0.002523
8.484e-06
0.00668
7.06e-07
1.226e-10
0.0004009
6.995e-07
0.006525
5.708e-05
0.0005474
0.006693
0.0008279
4.782e-13
0.006681
1.603e-06
3.819e-06
0.0001194
2.975e-10
2.426e-10
0.001527
0.0009264
0.000143
2.329e-08
0.00013
0.0001014
1.483e-06
0.0002446
1.482e-15
0.0001438
0.0002225
0.001013
1.077e-09
0.0001728
5.271e-05
0.0009323
0.0005824
0.001005
0.0003737
4.95e-06
3.213e-10
0.006702
8.778e-05
7.265e-09
1.189e-05
1.303e-07
0.0005937
2.855e-05
2.489e-06
0.001817
7.689e-05
1.877e-08
0.0008879
1.286e-08
1.779e-07
9.098e-14
0.00665
0.000131
2.12e-09
2e-06
0.0001116
8.505e-06
1.87e-08
0.0001773
2.411e-06
0.001012
5.424e-05
8.451e-06
0.002206
0.0004692
3.503e-06
0.000145
1.656e-07
0.002137
8.509e-06
0.001132
0.0004966
0.0004813
2.447e-08
0.002329
1.194e-05
7.615e-07
1.562e-07
0.0008667
0.0003526
0.0001456
0.0002478
6.437e-07
4.209e-16
0.001611
0.006654
0.006633
2.459e-14
0.002609
0.006698
0.0001952
0.00104
0.0002433
4.795e-17
5.663e-07
0.0001349
6.663e-06
0.003332
0.006694
0.0001406
0.00137
0.006693
2.025e-08
4.231e-05
1.005e-14
9.586e-08
6.578e-06
0.0002403
0.0001337
3.342e-06
0.006694
1.178e-07
0.0003225
1.049e-08
1.498e-06
6.391e-09
0.0006457
1.323e-05
0.0009659
0.0006757
0.001394
0.002578
8.095e-12
0.0006896
0.0001143
0.0001311
1.909e-18
0.005886
0.0004263
0.0001612
3.813e-06
0.0007598
1.915e-08
0.0003854
7.139e-13
2.71e-07
3.935e-10
5.938e-13
0.002536
6.791e-06
1.959e-09
5.17e-06
0.0009474
6.277e-08
6.687e-06
0.001129
2.322e-08
2.581e-05
1.439e-05
0.001526
0.001124
0.0001515
0.0008955
0.0002202
2.272e-06
5.918e-06
2.254e-06
5.127e-06
3.751e-05
5.241e-09
0.002204
0.001268
0.0004219
1.312e-06
0.0003654
0.0004156
1.618e-07
0.002182
2.251e-05
0.003116
0.0001752
3.173e-05
0.006691
0.006694
4.071e-16
0.0001209
0.006574
1.476e-07
0.002163
0.0005782
4.544e-05
0.0001146
4.546e-05
0.006702
6.92e-06
7.045e-08
8.616e-05
0.000757
3.469e-05
1.91e-08
3.308e-05
1.377e-05
7.298e-05
7.202e-09
3.904e-06
6.719e-06
0.006694
0.00214
4.135e-06
4.188e-07
5.043e-06
1.858e-08
0.003521
0.006693
3.654e-07
0.0007038
1.979e-08
8.21e-05
0.00242
8.724e-05
1.139e-07
0.0004065
5.131e-06
3.272e-07
0.0003877
0.0001079
0.0001048
1.275e-07
2.577e-06
0.001502
0.006471
5.559e-05
0.006654
0.006633
3.125e-05
8.548e-06
6.027e-05
0.001498
8.937e-05
0.0002001
6.559e-06
0.000397
0.0003546
1.045e-06
1.467e-07
9.025e-06
0.0002845
2.192e-08
8.328e-05
3.395e-08
0.003908
0.0004145
0.0003702
0.0001277
1.24e-05
0.0009386
6.159e-06
0.006388
1.276e-07
0.001751
9.357e-07
0.002424
2.824e-07
2.22e-07
0.006697
0.002959
0.002343
1.764e-06
0.002184
2.416e-06
0.0003815
5.641e-09
1.829e-07
0.001053
8.604e-05
8.154e-08
4.054e-11
0.0006442
0.002189
0.001624
4.381e-10
3.987e-08
2.69e-05
0.0006069
1.004e-11
3.892e-05
1.598e-09
0.001536
0.0009577
0.006695
1.341e-05
6.431e-06
7.098e-08
1.773e-07
6.925e-08
1.369e-05
1.077e-07
0.0001217
0.0008826
3.011e-09
0.006694
0.0007786
0.0005306
3.85e-05
6.645e-06
0.0004265
1.639e-06
0.006705
1.846e-07
9.244e-06
1.831e-08
4.753e-05
0.0009842
6.326e-06
0.00015
0.0004591
4.394e-09
0.0003662
3.023e-07
0.0001247
2.022e-09
2.66e-05
0.002848
0.0009214
1.19e-05
4.349e-06
3.917e-05
5.923e-06
0.0001018
0.006678
2.499e-05
0.0003489
0.000281
6.413e-05
0.006697
5.261e-06
1.535e-05
0.0004931
0.006702
0.006691
2.735e-07
0.0001656
7.377e-06
0.0003154
3.136e-08
0.005429
1.141e-06
0.002369
0.001372
0.0007161
5.593e-08
8.451e-06
1.182e-06
3.507e-05
0.000336
1.452e-08
9.813e-06
0.0003764
0.0001823
1.98e-06
0.0002452
0.001186
7.494e-07
0.0002403
0.002289
0.001352
0.0006864
4.097e-06
0.006668
0.0008257
0.0001412
0.0001027
0.0005893
0.0001536
0.006645
2.022e-06
9.785e-05
4.499e-06
0.0004191
3.156e-10
1.54e-06
3.148e-05
1.906e-08
7.981e-06
6.371e-05
0.0004483
0.006692
2.611e-08
0.0008512
9.799e-07
3.626e-07
0.0003457
4.341e-06
1.479e-15
9.152e-05
1.192e-06
0.0001124
1.317e-06
0.006689
2.645e-10
0.001363
0.0005333
0.001673
5.51e-18
3.064e-14
1.258e-13
0.006697
1.317e-05
2.719e-05
0.006693
0.001924
2.019e-06
0.0001048
2.767e-05
0.0006777
5.514e-08
0.0008395
5.466e-09
0.002358
0.001109
2.921e-12
1.793e-07
2.51e-08
4.003e-06
0.00574
1.347e-05
0.0009525
0.001205
0.006628
1.806e-08
2.791e-09
5.552e-06
0.00664
0.0006825
0.0001253
7.216e-07
7.215e-06
6.534e-09
0.001715
0.000838
2.125e-05
1.351e-05
0.006668
3.454e-05
0.0003046
9.167e-08
2.921e-07
3.395e-06
4.62e-07
0.001585
6.811e-05
5.359e-07
0.0001285
2.889e-05
0.0033
2.803e-09
0.0002031
1.291e-08
1.161e-06
0.0008431
0.006702
0.006701
1.576e-05
8.246e-06
1.167e-06
0.006695
0.004813
1.169e-05
5.262e-08
0.0004259
9.891e-06
3.233e-07
1.967e-09
3.951e-05
0.001091
0.006682
4.315e-06
0.0006856
1.522e-06
0.004923
1.232e-09
1.881e-06
5.137e-05
0.002186
4.432e-09
0.006128
0.0004749
0.0006399
0.001153
0.004963
6.167e-06
0.001527
4.665e-12
0.006645
5.518e-07
1.111e-07
0.006691
6.678e-06
0.004731
3.932e-07
0.0004421
0.006691
2.51e-06
6.345e-08
1.103e-05
0.0002131
0.0005979
3.576e-08
4.129e-08
1.306e-06
2.902e-07
1.022e-06
3.249e-07
0.0003227
0.0003018
1.24e-08
0.005533
2.835e-08
0.006691
1.091e-06
0.000813
0.0005883
0.006677
0.004931
6.92e-05
3.119e-07
0.0004663
0.006473
0.006676
1.792e-05
7.647e-10
3.166e-06
3.357e-08
0.002527
8.238e-06
0.0007257
8.735e-06
0.0003858
1.04e-05
6.634e-07
0.006473
2.725e-05
0.0004146
8.372e-05
0.0001155
0.006633
0.004815
0.0004111
2.05e-09
0.0004497
2.002e-09
0.0007824
0.003751
7.157e-05
2.273e-05
0.0001912
1.494e-06
9.747e-05
0.001558
2.543e-06
3.391e-05
0.0004213
2.331e-05
1.502e-16
2.194e-06
0.0003941
0.0003301
0.0001267
0.0001041
6.704e-09
2.364e-05
0.0004226
0.0001854
9.997e-05
0.0008101
0.006678
1.743e-07
1.804e-05
4.497e-06
0.00664
0.006678
2.907e-10
0.0001128
4.4e-08
0.0001476
2.269e-06
0.002125
1.86e-05
1.864e-08
9.755e-06
7.331e-08
0.006691
0.006668
6.64e-06
1.265e-05
2.691e-06
4.873e-06
5.628e-09
0.002483
1.07e-07
0.0001447
0.002258
0.003884
4.228e-08
0.0001696
5.432e-08
1.334e-15
2.157e-06
0.0003131
0.0006965
0.004764
7.782e-07
2.247e-07
1.363e-09
0.003904
0.001226
0.0003872
1.069e-08
0.0004436
2.976e-07
0.003493
9.866e-08
5.941e-07
4.192e-06
0.00158
5.536e-05
3.354e-20
2.148e-05
0.0001708
5.286e-07
2.73e-06
3.493e-07
0.006687
0.0002935
0.003879
0.0004397
0.003577
1.552e-09
3.293e-05
4.623e-09
0.003463
1.801e-05
0.0002957
2.241e-05
8.666e-05
0.0039
0.0006656
7.232e-06
2.16e-06
0.0008947
0.002307
0.0003953
1.102e-06
0.003296
6.53e-06
4.703e-05
0.0001187
9.412e-05
3.431e-05
2.142e-06
1.151e-09
1.008e-05
0.00661
0.000656
0.002393
2.101e-09
2.04e-08
3.147e-05
0.001989
6.407e-07
0.006623
0.0001166
2.704e-06
0.0003789
2.235e-11
0.000368
6.428e-06
0.0005022
0.000893
4.482e-05
0.006697
3.862e-17
0.0001552
0.0002405
5.469e-07
0.0004923
2.293e-05
4.076e-05
1.41e-07
0.006681
0.003641
3.106e-05
0.003743
2.355e-05
9.929e-07
4.746e-07
3.642e-06
0.00666
0.0007792
0.0004147
0.006692
0.006657
0.000117
0.002198
0.002524
3.022e-05
0.0004916
3.612e-13
1.757e-05
8.242e-06
0.006679
0.0003085
0.0001536
9.334e-08
1.273e-08
8.335e-06
0.003443
0.005953
0.0011
6.125e-10
0.006679
0.0001402
8.039e-09
8.042e-07
8.788e-10
0.005744
0.0009498
7.045e-07
0.006693
2.25e-08
0.006679
1.901e-06
3.072e-09
5.408e-05
0.00037
3.467e-10
0.006679
2.881e-06
1.988e-05
1.992e-08
3.915e-05
7.338e-09
7.441e-09
3.423e-05
5.821e-05
1.118e-05
8.142e-13
0.006693
0.000784
3.983e-08
8.753e-08
9.297e-05
4.098e-11
0.003512
0.0001576
4.134e-06
7.499e-10
1.008e-10
2.031e-06
1.673e-14
4.943e-07
5.678e-14
9.937e-05
8.198e-07
0.003699
2.969e-11
0.000746
3.376e-07
0.004904
0.00504
0.0006272
0.0004418
0.0002203
0.002605
6.948e-07
7.315e-05
0.0004352
2.049e-07
4.78e-07
0.006011
0.003015
0.0001723
0.0005033
1.991e-06
9.011e-12
0.0005604
9.263e-06
6.226e-07
0.001091
1.364e-05
0.006689
0.0003461
5.53e-08
0.006422
3.293e-06
0.0002028
0.002409
0.006665
0.002459
0.002269
5.058e-14
1.524e-05
8.058e-12
0.0009201
8.188e-06
7.199e-07
4.495e-08
1.253e-05
0.005547
1.597e-09
8.594e-06
0.005403
8.642e-06
1.303e-11
0.001442
1.466e-06
1.014e-05
6.757e-05
9.444e-09
6.326e-14
1.11e-07
0.0008202
0.006694
8.256e-06
7.467e-06
6.016e-05
3.783e-06
6.063e-07
2.48e-09
4.278e-05
4.434e-05
2.334e-09
0.000162
1.032e-08
0.006688
0.0007559
3.311e-06
0.0008681
2.839e-05
0.0006691
0.006692
0.002152
1.087e-06
4.136e-05
6.625e-05
7.802e-08
8.551e-06
0.001613
0.0004519
5.045e-05
3.083e-05
1.486e-12
0.0004263
5.247e-08
1.808e-06
7.645e-06
0.001585
6.198e-07
2.6e-05
8.516e-07
1.144e-10
0.0006255
0.006687
0.006683
0.0008245
0.0005865
7.653e-05
0.006701
6.989e-06
0.000714
6.521e-05
1.04e-05
0.0005403
5.514e-06
2.301e-06
0.006705
6.806e-05
5.582e-05
1.794e-10
7.38e-09
0.0002996
1.101e-05
0.0008387
2.631e-06
1.644e-07
2.174e-06
0.002734
5.931e-06
2.945e-07
0.000115
1.639e-09
0.006488
6.689e-10
3.492e-08
0.002467
0.000241
3.962e-07
0.004116
9.822e-11
1.505e-12
0.006263
0.00669
0.0003226
0.00055
4.833e-12
8.095e-05
3.555e-07
8.736e-08
2.926e-06
6.992e-05
9.817e-05
0.005974
1.739e-06
0.001325
9.817e-06
4.789e-05
3.658e-07
0.000259
0.005351
2.773e-12
0.0001633
0.006691
3.554e-05
0.005623
0.006687
3.749e-06
7.877e-05
9.053e-11
0.006687
2.496e-08
0.006694
7.719e-07
9.441e-05
0.003294
1.79e-05
2.833e-08
5.821e-08
1.746e-06
1.299e-06
0.003536
0.0008992
0.0008552
1.553e-07
2.324e-05
4.119e-06
1.88e-10
1.508e-06
1.458e-11
0.0001834
6.359e-08
2.182e-06
9.074e-08
1.03e-09
5.243e-06
0.003802
0.004101
1.009e-05
0.0001853
5.547e-09
0.002765
2.737e-07
0.001283
5.642e-07
6.871e-07
0.0003341
9.427e-05
7.437e-07
0.001816
5.641e-07
8.114e-05
1.846e-08
3.63e-05
0.006528
2.942e-06
9.666e-06
0.006694
3.43e-05
2.129e-06
0.006679
3.932e-05
7.682e-05
0.0003874
5.142e-06
0.00103
0.0001495
0.0001034
0.006671
3.445e-05
2.041e-05
0.006701
6.944e-06
0.0001427
0.000724
1.506e-05
1.503e-05
0.0004514
3.904e-06
1.843e-10
2.894e-08
9.183e-08
0.001109
2.806e-11
0.002605
2.598e-07
0.006692
0.0002975
5.636e-06
7.601e-05
6.815e-07
3.922e-06
1.471e-08
0.006698
7.655e-13
2.053e-07
5.88e-07
9.203e-07
2.692e-08
0.001921
0.003963
5.785e-09
6.047e-07
6.289e-05
7.703e-16
0.0003996
2.107e-07
1.148e-08
1.683e-07
1.992e-06
0.0001936
4.643e-08
4.624e-07
6.807e-05
0.0003635
5.669e-08
1.087e-07
0.001306
9.003e-12
0.0001074
3.771e-07
0.0001272
2.367e-08
0.006649
0.00669
0.000671
1.332e-11
0.0006264
0.001809
9.404e-11
2.207e-06
0.006692
1.018e-09
3.63e-07
0.0004306
6.299e-11
2.563e-05
0.0001601
1.237e-15
0.002295
6.885e-09
0.001161
5.371e-07
2.957e-08
7.521e-08
1.156e-08
8.776e-06
2.559e-05
0.0001361
0.002175
3.74e-05
5.181e-05
2.321e-05
6.058e-07
0.00231
1.442e-08
0.001164
7.669e-05
0.001762
3.953e-06
2.071e-05
9.848e-06
8.961e-12
5.194e-05
2.496e-09
9.183e-08
8.496e-05
0.0001342
0.006693
0.001564
0.0002987
2.033e-05
6.441e-08
1.208e-08
7.588e-09
0.006681
5.063e-08
2.852e-06
0.0004367
3.585e-12
0.0001791
0.002983
5.351e-06
0.002452
3.929e-06
9.158e-05
1.69e-10
8.218e-05
0.001442
0.001089
0.0067
8.385e-13
5.433e-12
0.0002896
6.608e-05
2.876e-05
0.006488
0.006652
3.219e-05
0.001033
0.003539
8.076e-05
0.003054
0.003001
1.473e-06
0.0003795
0.001989
2.316e-05
1.265e-07
2.4e-12
2.894e-05
5.724e-09
0.0001379
1.319e-05
0.006654
8.324e-08
0.001271
1.211e-06
1.126e-12
0.0002888
0.002238
6.492e-05
9.399e-07
0.0006113
7.131e-13
0.001841
0.0002713
0.002054
0.002087
2.864e-05
1.223e-07
3.849e-13
6.425e-05
7.402e-06
0.006675
1.589e-07
1.002e-07
0.006668
8.425e-08
2.142e-06
0.0001397
4.657e-08
0.006683
2.18e-05
1.956e-14
0.004102
2.744e-07
1.768e-06
5.547e-07
1.664e-09
5.073e-05
3.108e-05
1.276e-05
1.887e-09
0.0001106
5.721e-05
1.709e-05
7.121e-07
1.416e-08
3.86e-09
4.096e-06
0.0001373
0.006691
4.573e-05
0.00319
1.993e-08
1.168e-06
0.002361
0.0001148
0.006694
7.478e-05
1.619e-05
0.006612
0.002501
0.006142
8.613e-09
0.002478
2.326e-11
4.072e-05
0.0003907
1.286e-07
0.0004621
3.455e-07
6.493e-08
2.431e-14
0.0001445
2.997e-05
0.0004566
0.0006672
0.001302
0.006702
0.0003044
0.001193
0.001323
0.006699
0.001999
0.006685
1.789e-05
0.000128
0.006677
0.006687
5.448e-05
8.834e-05
5.441e-07
7.782e-05
0.006689
9.755e-06
0.0003828
6.204e-05
7.428e-14
1.762e-08
1.452e-11
1.875e-07
1.454e-06
8.621e-08
1.778e-07
0.0004346
0.0001771
7.423e-10
0.0009478
3.096e-07
3.473e-06
0.0002836
0.0002929
0.003866
0.006686
2.411e-14
0.000236
1.263e-09
0.006693
1.488e-12
3.772e-07
7.042e-08
0.0001361
0.006638
0.006637
0.0007298
0.001617
0.00203
0.001786
6.958e-07
5.082e-05
4.658e-06
0.002384
4.086e-05
3.828e-09
2.264e-06
0.0001892
0.0005645
2.787e-05
1.043e-06
1.104e-06
6.606e-07
7.719e-08
0.0007442
0.002538
0.000202
0.000136
4.426e-11
0.0004093
0.0004264
1.14e-06
0.002208
2.797e-07
0.0003786
3.631e-07
0.002737
0.006692
0.0007347
5.26e-06
8.8e-13
1.255e-09
7.399e-05
0.0001594
2.51e-07
0.0001241
0.006617
2.067e-07
6.074e-06
1.025e-13
4.42e-05
1.348e-11
0.0001739
0.006687
4.14e-05
2.406e-06
0.001835
1.198e-05
0.001091
1.263e-05
9.116e-07
0.0001645
0.0007334
1.742e-08
0.0001437
5.513e-07
3.877e-07
3.48e-08
0.003198
0.003196
7.981e-08
8.869e-06
2.286e-13
2.92e-06
1.886e-08
2.248e-08
2.891e-14
0.002368
1.924e-05
0.0003653
0.003497
0.006686
0.001088
0.006267
2.381e-12
0.006692
1.213e-09
4.008e-05
6.253e-06
9.997e-07
5.57e-08
0.002498
6.718e-10
7.062e-05
5.868e-07
0.0007852
3.03e-09
0.006691
8.831e-05
1.432e-06
0.0009293
1.975e-07
3.902e-06
0.0003776
1.936e-07
1.107e-07
0.000198
0.006661
1.416e-08
0.002546
0.00666
5.419e-05
7.789e-08
0.006661
2.474e-09
0.006694
0.0005146
0.0003121
0.001249
6.246e-07
0.006659
0.0006372
2.478e-06
0.0001785
2.713e-05
8.726e-06
3.621e-05
0.006693
0.006681
0.0003451
2.044e-13
6.104e-06
4.395e-07
0.0008466
2.057e-10
7.268e-05
4.866e-05
0.002887
1.798e-05
2.95e-05
6.35e-08
0.0006096
3.653e-07
0.001036
0.0003493
0.006703
3.981e-06
7.5e-07
0.0005611
6.835e-07
1.22e-08
3.143e-05
0.006678
0.000418
3.035e-09
4.975e-06
2.141e-12
6.658e-09
0.00253
0.0003913
1.223e-05
2.745e-10
0.0003883
8.869e-08
6.837e-09
0.002767
4.416e-05
0.006689
0.000101
1.775e-07
0.0002118
0.006693
1.324e-05
0.006692
0.0001017
2.778e-05
0.006691
0.002782
5.872e-05
8.019e-06
0.001107
0.002143
1.084e-07
0.006696
6.519e-08
2.075e-09
5.038e-05
0.003882
1.884e-07
0.00102
0.0003139
0.0004384
1.771e-08
3.116e-06
0.0003867
2.395e-08
0.0002661
6.357e-05
4.25e-09
0.0001906
2.965e-05
1.87e-06
0.0002312
1.073e-07
0.0006244
9.865e-06
5.468e-07
0.0003055
0.002162
4.951e-07
0.002201
0.0001753
6.778e-05
1.916e-12
0.0001715
3.484e-11
8.207e-05
0.006663
3.557e-11
2.784e-07
0.000107
7.807e-08
0.0004915
0.0004428
0.006705
0.00181
1.68e-10
0.001257
6.865e-06
8.901e-07
2.471e-07
0.006695
7.347e-07
7.453e-06
9.74e-06
1.429e-07
0.0004818
5.565e-07
2.511e-09
0.006688
0.0002303
0.0003338
0.002689
0.0002738
3.092e-05
3.527e-05
5.577e-06
8.482e-05
0.001203
0.003109
5.052e-05
0.0002269
0.006531
2.631e-05
4.909e-08
3.984e-11
0.006699
1.217e-05
1.481e-10
0.002092
4.329e-06
0.00198
2.947e-07
3.908e-11
0.002961
0.00243
0.0002281
0.001007
1.368e-06
5.26e-06
0.0009509
1.267e-09
5.406e-05
0.0005008
3.369e-05
6.501e-15
1.83e-14
0.0002325
0.0001962
4.561e-05
7.609e-05
0.001192
8.483e-06
0.000889
3.837e-07
4.471e-05
6.787e-05
5.443e-07
2.477e-10
0.0005359
8.905e-05
0.006018
2.754e-07
9.004e-05
0.0003102
1.336e-05
6.7e-05
2.882e-07
0.0002306
0.00346
0.006672
4.371e-08
6.876e-09
0.0004586
1.239e-05
0.001
1.374e-12
9.276e-08
0.0001724
2.276e-05
1.645e-08
0.0006831
3.564e-07
5.545e-13
0.006611
6.46e-10
3.697e-07
2.403e-07
0.0049
0.0007107
0.001688
2.47e-08
1.884e-05
0.001624
8.283e-09
0.004891
5.311e-06
1.55e-07
0.0001452
0.002032
0.005615
6.88e-08
5.145e-09
3.939e-07
1.309e-08
7.575e-10
0.0007512
1.913e-11
0.002489
3.908e-07
1.685e-05
0.002746
0.0001074
0.003963
1.916e-06
0.001115
4.501e-07
0.003069
5.464e-07
7.044e-14
1.775e-11
0.000175
0.000337
3.158e-05
1.208e-05
0.001791
0.0001871
0.0001708
7.56e-05
0.006701
5.748e-07
4.016e-07
1.385e-07
7.8e-05
1.179e-05
2.336e-07
0.0006326
1.101e-07
1.641e-11
8.823e-10
0.0001162
4.606e-07
1.207e-13
0.00174
2.682e-07
0.002954
7.045e-06
7.181e-06
5.173e-16
9.008e-06
6.719e-06
0.003495
0.000241
5.172e-08
0.0001323
0.006319
0.006698
0.001239
7.139e-09
0.001588
3.952e-07
1.484e-11
1.602e-06
0.001889
1.229e-08
0.00259
0.0001224
9.144e-10
6.158e-05
0.003372
0.0003763
0.0001061
8.291e-05
0.0001495
0.006696
3.231e-06
0.003396
8.289e-09
0.002707
1.329e-07
1.46e-08
4.216e-05
1.202e-08
0.00061
4.049e-07
3.87e-07
4.368e-07
1.78e-05
0.001464
0.0001646
0.0003862
3.022e-06
0.0001122
1.239e-08
1.851e-06
0.006701
0.0001055
0.003182
1.466e-08
8.971e-07
0.002206
0.001299
7.033e-05
3.77e-08
0.003385
9.835e-05
0.000782
0.0003012
0.002243
0.0008845
0.0001621
2.612e-11
0.0001105
0.0003201
5.129e-07
0.006671
0.001128
6.353e-05
9.131e-05
0.001718
0.006687
8.9e-05
2.843e-07
8.183e-07
0.006692
0.0009913
0.002489
4.148e-06
1.94e-05
0.001098
0.0003636
0.0003959
1.489e-08
6.843e-08
0.001699
1.239e-06
0.0004564
0.0001216
4.349e-07
3.929e-12
0.002279
1.125e-08
1.084e-07
0.001991
2.123e-12
0.006015
0.006661
1.236e-05
4.46e-05
5.814e-14
0.006693
0.001578
4.72e-07
4.015e-13
1.872e-06
2.646e-08
0.006295
0.006374
8.653e-08
0.0001307
0.0004178
2.189e-06
5.389e-05
0.001226
0.0001005
0.006705
1.358e-08
2.609e-07
5.559e-07
0.0006028
9.413e-10
0.0005044
2.157e-05
0.006672
9.314e-06
2.637e-07
1.188e-08
5.741e-08
0.0001356
6.498e-10
1.052e-05
0.0003126
5.367e-07
1.019e-05
0.0001038
0.0001178
1.364e-06
8.102e-09
0.004805
0.005032
4.082e-06
7.015e-05
1.608e-10
9.031e-06
6.348e-08
9.547e-05
0.002484
0.006693
7.157e-06
0.006702
0.0005132
8.404e-12
2.415e-06
9.779e-05
1.209e-06
0.0001348
3.984e-10
2.346e-07
0.002959
7.041e-06
1.032e-05
4.429e-07
0.000809
2.036e-06
8.406e-05
0.0002753
0.0004543
0.0002264
5.066e-06
0.001324
7.117e-09
4.021e-07
0.0002286
0.0001355
2.742e-09
0.0001586
1.01e-05
1.182e-06
9.427e-07
7.417e-06
5.639e-06
1.777e-11
9.994e-05
4.937e-05
0.001484
0.001448
0.006703
2.678e-07
0.002842
1.899e-11
1.393e-05
4.292e-05
8.313e-08
3.152e-13
1.026e-08
0.0005341
7.467e-07
2.684e-08
1.273e-08
0.002202
0.0007579
1.908e-06
3.81e-12
6.112e-05
0.0001976
7.443e-05
7.451e-05
0.006694
0.0008056
5.976e-09
2.725e-05
3.381e-06
0.002225
9.253e-05
4.842e-08
0.006649
0.0004993
9.211e-05
0.001385
1.776e-08
7.813e-05
3.548e-05
0.00331
4.914e-05
3.718e-07
2.894e-06
5.2e-11
7.446e-07
1.756e-06
0.006678
0.0003016
1.109e-05
2.801e-08
4.115e-08
1.652e-06
0.003368
0.0002316
0.005829
9.552e-08
6.467e-08
8.037e-06
6.259e-06
0.0004472
3.617e-08
2.541e-08
1.154e-07
3.664e-06
3.713e-05
1.507e-06
1.171e-08
0.003791
9.275e-05
1.206e-11
0.002715
0.0001935
0.004526
0.006699
4.965e-06
0.002812
1.364e-06
1.522e-06
0.0002864
0.0008535
2.361e-08
3.805e-08
5.101e-05
2.222e-07
6.247e-05
0.001616
9.978e-13
0.000468
9.113e-05
0.002424
6.127e-12
0.001573
2.834e-09
8.617e-11
0.003496
2.863e-07
3.152e-08
3.555e-05
0.001244
7.79e-08
8.279e-07
7.997e-08
0.0006638
0.0004124
0.0001815
0.004116
0.006701
4.373e-05
0.001292
2.433e-05
4.378e-06
0.0003112
1.7e-11
0.001091
0.00489
1.491e-05
0.0003138
0.001454
1.091e-06
0.0003542
1.03e-06
2.591e-08
6.647e-09
3.381e-11
1.178e-05
2.185e-07
7.359e-06
0.0001033
1.917e-05
2.178e-05
3.914e-12
2.103e-05
5.381e-07
8.712e-06
0.006684
4.405e-05
8.824e-06
0.001192
3.836e-05
2.823e-11
8.246e-07
8.235e-07
0.0005859
0.0003417
1.159e-08
0.006695
1.217e-07
0.002115
0.0001139
4.596e-06
4.505e-08
0.006701
2.851e-05
0.001246
1.342e-05
2.988e-10
1.89e-05
0.0001963
3.329e-13
0.0002829
2.071e-07
0.00667
0.006642
2.527e-07
0.0004777
2.027e-05
2.361e-06
5.238e-07
0.006686
3.008e-08
1.079e-08
0.0004971
0.0067
0.004074
0.0003699
0.0001817
2.474e-07
8.102e-15
3.517e-08
0.005556
5.655e-08
1.336e-10
9.021e-05
3.203e-08
1.621e-07
0.00265
7.945e-05
7.03e-08
0.001114
0.0005725
0.006633
0.006588
0.006614
0.006275
0.0001632
0.0008564
5.614e-06
6.927e-08
1.771e-05
4.818e-05
0.0005614
3.054e-07
0.006118
0.0001318
0.0003021
5.357e-07
6.082e-07
2.096e-07
0.0001354
7.593e-07
1.042e-07
0.0006006
4.193e-07
0.0002175
4.908e-07
1.255e-13
2.428e-07
4.416e-10
3.839e-06
1.497e-06
0.006693
5.282e-12
0.0001248
9.127e-08
1.719e-05
0.000135
5.768e-12
0.006693
0.0002105
1.434e-06
0.004286
0.0001168
8.118e-05
0.001116
0.0001816
9.798e-09
7.212e-05
6.706e-07
0.006624
7.64e-06
7.964e-06
1.268e-05
0.001054
3.487e-06
0.006682
0.004842
4.078e-05
1.936e-05
2.853e-07
0.000138
0.0009645
6.81e-05
5.459e-05
1.763e-08
1.002e-07
0.001738
0.002547
0.0008514
0.0001375
0.0001127
8.217e-13
3.543e-06
0.006691
1.561e-10
0.006695
0.006691
6.431e-05
0.002489
2.899e-09
0.0009186
1.386e-08
0.0004459
7.933e-08
0.006695
0.0001105
3.637e-05
1.885e-07
0.001855
0.003504
6.307e-05
1.341e-10
1.533e-08
0.006702
1.593e-09
1.221e-08
3.662e-14
0.002898
0.001976
0.001191
9.571e-05
0.0006132
0.002185
1.978e-06
1.176e-10
9.294e-06
3.384e-08
1.32e-13
0.006693
6.774e-08
1.21e-07
5.652e-07
0.006693
2.083e-08
1.405e-11
3.234e-13
1.722e-12
0.0001018
0.0003926
2.508e-12
0.0003304
7.116e-05
0.006687
0.001022
4.868e-07
0.003099
4.126e-06
1.693e-12
8.733e-05
0.0002271
2.578e-06
0.006706
0.00553
1.073e-07
5.422e-07
0.002895
4.573e-08
0.0001432
9.751e-05
0.001478
0.0005939
3.342e-05
0.0001542
0.006693
0.0003259
0.0003652
1.843e-07
2.695e-06
1.134e-06
1.059e-07
1.281e-06
1.021e-11
4.574e-12
7.229e-16
7.299e-08
0.0001767
3.096e-08
0.0003513
1.459e-08
1.176e-08
0.006693
1.665e-13
0.006705
1.64e-05
2.583e-09
4.436e-09
0.0001364
1.517e-06
7.49e-06
5.898e-07
0.00663
1.017e-13
0.0001163
0.00288
0.001591
0.0001667
4.75e-12
2.848e-11
4.478e-12
0.001659
6.071e-08
5.46e-08
0.00105
2.515e-05
5.677e-07
1.64e-09
0.006668
0.0001764
8.242e-07
0.0001199
1.063e-06
0.0006272
0.003109
4.925e-10
3.539e-07
4.1e-07
3.494e-11
0.003129
1.402e-09
3.985e-05
1.311e-06
2.1e-05
0.006459
0.0001091
1.637e-06
2.755e-06
1.896e-05
1.141e-11
0.002901
0.004203
2.656e-05
1.538e-07
1.405e-08
0.0005214
0.003342
0.006433
0.0002897
7.468e-09
0.00634
3.902e-06
9.028e-08
9.544e-05
5.446e-05
0.0004797
4.344e-11
6.353e-12
1.61e-12
8.517e-05
5.796e-08
0.0001205
7.581e-05
0.001893
0.002251
4.931e-10
0.001319
1.224e-08
1.363e-07
1.509e-08
4.351e-07
3.752e-05
8.318e-12
0.0009456
7.553e-07
0.0006076
0.003171
1.114e-06
0.0001443
0.002095
3.609e-06
6.188e-07
0.0001643
8.836e-07
1.362e-06
6.813e-12
1.189e-13
0.00269
4.807e-13
0.002208
6.982e-05
0.0001142
0.0001802
5.641e-06
0.006704
4.118e-07
9.898e-12
3.616e-06
6.224e-09
0.001128
0.000525
5.161e-07
0.0001201
0.00134
2.497e-06
0.001622
7.136e-10
6.436e-05
0.005271
0.0001134
7.954e-07
0.0067
0.0004746
6.466e-09
0.006695
3.073e-05
2.439e-05
1.439e-07
2.083e-05
1.352e-09
0.002484
0.0005256
4.723e-05
2.97e-08
6.875e-08
4.849e-08
9.812e-07
0.006684
1.342e-07
0.006692
7.736e-05
2.452e-05
0.0011
2.036e-12
3.06e-05
3.547e-08
0.002325
8.208e-09
2.343e-05
0.00229
0.0006652
3.79e-06
0.00667
3.183e-05
0.006694
3.879e-08
1.298e-07
1.768e-06
0.0001297
0.006631
1.261e-06
1.212e-07
0.0001042
9.502e-09
2.601e-05
7.101e-07
0.000581
0.0002858
4.47e-05
4.136e-05
2.418e-05
2.492e-06
0.0001211
1.437e-05
0.0001056
3.845e-06
0.0001123
0.006623
0.006669
0.002006
0.0003344
5.358e-06
1.011e-06
2.107e-06
0.002374
1.964e-07
7.373e-06
3.412e-07
0.006698
8.625e-07
3.925e-05
5.159e-09
0.002822
1.849e-13
0.000397
3.417e-09
0.003539
0.0001321
1.916e-11
0.0003256
4.015e-07
3.007e-07
2.044e-07
9.024e-06
0.0001687
0.006693
3.151e-07
9.054e-06
0.0002943
0.000153
0.000366
1.437e-05
0.0004093
9.924e-07
4.864e-08
0.006686
0.001001
1.615e-06
2.628e-09
6.783e-06
0.006701
8.707e-06
4.647e-07
0.0007359
0.0008249
7.068e-06
1.215e-07
0.0002007
2.248e-06
2.759e-05
0.002425
0.0001313
0.0002987
0.005294
5.095e-06
1.835e-12
0.0003484
0.0001462
9.409e-09
1.376e-05
2.284e-05
0.00669
0.000319
9.459e-05
0.00352
4.215e-11
5.229e-05
0.006697
0.001026
6.667e-07
3.646e-14
0.006697
0.0006481
7.325e-09
3.519e-07
3.503e-05
6.091e-05
4.599e-08
0.0001577
3.266e-06
2.976e-08
1.06e-10
1.403e-07
0.002
0.0002147
0.0006097
7.38e-05
0.006683
6.289e-05
2.061e-05
0.0008903
7.465e-06
2.318e-12
1.306e-09
0.002084
1.073e-06
8.481e-11
0.002151
9.591e-08
0.0006418
3.518e-05
7.324e-05
5.328e-09
1.748e-11
0.006688
1.551e-05
6.639e-07
0.006697
1.509e-08
0.0009423
1.033e-05
0.0001525
0.0003832
2.918e-08
9.639e-06
4.064e-06
0.006704
0.002842
0.00213
0.000141
0.006689
6.053e-05
0.0003632
1.155e-08
0.002887
0.001045
1.258e-07
4.417e-09
0.001856
0.0002699
0.006677
1.267e-11
1.275e-05
3.845e-08
6.31e-08
9.28e-05
2.09e-07
4.062e-05
3.63e-05
2.301e-12
0.003853
4.55e-11
0.006673
0.006685
0.0003913
4.743e-05
0.006683
9.319e-13
3.414e-07
1.522e-07
3.307e-08
6.474e-05
0.0003651
0.004907
7.62e-13
0.0008203
9.147e-07
0.006669
1.976e-05
0.0001229
0.0003344
0.0002574
0.0003386
0.003226
5.398e-06
0.006656
0.0002863
1.245e-07
3.477e-08
5.907e-09
0.0001006
0.0006206
5.827e-06
0.006699
9.301e-06
8.276e-06
0.0001571
0.0002316
0.0003041
5.092e-11
0.005959
0.006682
3.544e-06
4.776e-07
0.002419
1.933e-08
0.006701
1.037e-07
6.525e-05
6.268e-07
0.006701
7.221e-05
1.716e-08
2.56e-07
6.059e-08
0.000684
2.566e-06
0.006681
4.803e-08
0.004658
1.107e-06
1.18e-12
0.002186
0.0001462
0.001636
1.625e-07
1.049e-09
5.316e-06
9.096e-05
0.006657
0.000299
8.833e-05
0.00669
1.074e-05
1.037e-06
0.002029
0.006697
0.0001263
0.0001032
0.0001684
2.271e-07
0.0001268
0.006694
3.138e-07
9.137e-07
5.136e-06
0.0006271
0.006696
0.006691
0.0005873
0.0004185
0.001501
4.704e-08
1.853e-12
2.641e-11
9.87e-07
6.442e-11
1.173e-09
0.004091
4.085e-12
0.0002139
9.096e-08
0.003254
7.007e-05
2.179e-05
7.697e-08
1.508e-06
4.179e-09
4.287e-06
0.0003124
0.0005303
2.01e-07
6.914e-07
1.378e-05
9.804e-05
7.769e-05
4.177e-05
1.476e-07
0.004147
0.0004413
9.444e-06
1.994e-05
1.036e-05
1.466e-06
1.198e-11
1.736e-08
0.006662
6.906e-10
0.0003991
0.006659
2.122e-06
0.006694
2.025e-07
0.0001788
0.002575
7.021e-06
5.964e-07
0.006707
3.041e-05
0.003077
1.506e-10
0.0009176
1.576e-05
3.867e-11
2.662e-05
0.006688
3.387e-09
0.0005082
0.0005239
1.701e-05
0.002011
3.179e-07
2.628e-12
4.778e-08
0.0001924
0.001718
1.959e-05
4.97e-06
0.006689
0.0002278
1.845e-07
5.359e-07
0.0001145
0.006701
9.867e-12
2.729e-07
1.797e-06
0.0001499
0.0003264
0.000174
0.006656
0.0001798
2.14e-06
2.987e-05
4.221e-05
3.78e-07
3.161e-08
0.002451
7.839e-06
7.925e-06
0.002004
5.396e-05
0.002933
1.974e-06
5.213e-05
8.272e-06
0.0067
2.122e-07
0.002369
0.0004207
2.527e-05
3.917e-05
1.062e-07
0.0001598
1.46e-14
0.001256
2.135e-05
0.00208
0.006678
2.079e-05
2.852e-06
2.545e-09
2.332e-07
3.445e-05
6.51e-08
9.865e-09
0.0003857
2.318e-05
0.0002069
1.018e-07
2.45e-10
0.0003763
0.000116
5.109e-09
4.723e-05
1.258e-08
6.72e-06
0.001879
0.0009522
2.085e-07
0.006693
0.0001002
7.384e-05
0.00669
0.0002769
4.964e-09
0.002203
8.14e-14
3.756e-08
7.95e-06
0.00669
0.0003609
3.82e-05
0.003384
0.0006081
0.0003217
8.89e-07
1.604e-05
8.891e-08
0.006695
8.306e-05
0.006685
3.914e-05
1.983e-05
1.71e-06
2.791e-05
1.057e-07
6.557e-14
0.006611
0.006692
2.032e-06
7.898e-07
8.333e-09
9.323e-05
0.0001159
2.736e-08
0.001013
0.001661
0.002491
8.716e-07
6.704e-09
2.611e-05
0.0004955
0.006686
1.104e-06
6.214e-05
0.0002894
7.2e-08
7.753e-05
0.001893
1.119e-07
9.241e-05
0.0003933
2.746e-06
8.75e-05
0.0001444
0.006687
0.006546
6.549e-08
5.452e-08
3.817e-06
0.00396
0.0001113
0.002915
2.951e-07
5.139e-06
0.006605
8.381e-06
2.037e-05
3.661e-13
2.594e-08
1.406e-07
0.006681
6.125e-08
5.384e-07
1.064e-06
1.205e-06
1.095e-11
2.177e-05
0.0004122
4.96e-07
8.42e-07
3.502e-08
1.818e-09
0.002114
0.002807
0.003886
8.707e-05
1.046e-13
0.0007796
0.001952
6.536e-08
2.175e-06
0.001665
2.934e-07
0.0003074
1.492e-09
0.001294
6.145e-07
0.0005419
2.676e-05
8.789e-06
3.794e-13
0.0006221
3.477e-11
1.83e-11
0.006692
3.113e-11
1.964e-06
8.924e-09
9.95e-08
0.0003461
0.001152
5.173e-05
6.283e-07
8.536e-06
4.514e-05
0.001087
0.0009491
0.0003471
0.0009075
0.000134
1.598e-05
6.571e-05
0.001024
1.581e-11
0.0003552
1.853e-08
5.678e-07
5.91e-08
0.006649
2.329e-06
0.0001519
3.537e-08
0.001481
2.246e-11
1.407e-05
2.144e-07
9.259e-05
3.267e-08
8.311e-05
0.0008614
0.0004389
0.0002195
8.648e-05
0.0006385
3.774e-06
0.0002175
2.38e-05
5.069e-06
2.29e-07
0.0004588
2.165e-11
4.708e-06
1.355e-11
3.885e-05
0.0009219
6.79e-05
0.002293
0.0001352
3.708e-07
0.006693
0.003055
0.006692
0.0003026
3.706e-07
2.08e-05
0.001432
7.95e-06
0.0005246
5.756e-05
1.939e-12
2.722e-09
1.863e-11
2.561e-07
9.831e-05
3.19e-08
5.009e-08
0.0001447
2.063e-07
0.006695
0.0004049
0.003555
8.463e-06
0.001312
0.00668
0.006682
9.135e-05
0.002488
0.0001478
1.198e-12
3.035e-07
0.006673
0.006693
8.9e-07
0.0002716
4.993e-08
1.567e-10
0.005195
3.424e-05
6.679e-06
1.767e-07
6.58e-06
1.759e-12
8.868e-06
0.0001003
1.436e-06
1.448e-07
2.353e-05
1.532e-05
5.683e-06
1.338e-05
2.832e-08
6.36e-05
6.226e-14
0.005859
1.151e-06
3.559e-07
2.595e-08
0.006695
0.0004031
0.006693
0.001343
0.0009355
3.658e-06
0.0003772
2.699e-07
1.314e-06
0.000107
1.321e-08
8.525e-08
8.019e-07