/*--------------------------------*- C++ -*----------------------------------*\
  =========                 |
  \\      /  F ield         | OpenFOAM: The Open Source CFD Toolbox
   \\    /   O peration     | Website:  https://openfoam.org
    \\  /    A nd           | Version:  8
     \\/     M anipulation  |
\*---------------------------------------------------------------------------*/
FoamFile
{
    version     2.0;
    format      ascii;
    class       volScalarField;
    location    "40";
    object      omega;
}
// * * * * * * * * * * * * * * * * * * * * * * * * * * * * * * * * * * * * * //

dimensions      [0 0 -1 0 0 0 0];

internalField   nonuniform List<scalar> 
127143
(
3.821e+07
7.184e+07
8.194e+07
3.494e+07
2.933e+06
3.537e+07
1.159e+06
2.025e+06
3.234e+06
4.719e+05
1.704e+06
2.662e+06
9.642e+07
2.958e+07
387.7
7.925e+04
9.896e+06
14.42
8.696
3.253e+04
18.34
7.134e+04
0.0817
262.7
7.683e+04
1613
5981
5756
5133
13.15
404.2
1772
6209
1079
0.04217
6492
43.35
83.8
204.4
2128
8.749
0.4486
0.3218
1.373e+07
13.95
1075
4609
17.46
265.2
228.9
5.048e+04
0.02525
57.72
0.1824
0.02092
558.1
0.02091
0.3111
0.02218
0.1812
0.3039
9.737
74.02
0.02211
375.3
0.3824
0.04666
89.8
89.19
0.08302
301.2
4077
12.51
0.02217
0.02179
4157
0.02287
27.63
549.6
0.02222
4779
2.902e+04
371.3
1326
14.24
24.13
158.7
4694
0.3249
621.6
0.02206
6.287
287.4
18.29
51.18
0.2729
0.4121
541.5
15.57
0.04614
0.02221
250.2
2757
4.777
23.01
16.07
88.63
0.08333
1.281
0.02132
290
5216
27.3
5.701
0.02175
1.432
0.02307
0.02179
0.02276
2.882e+05
0.02134
338.2
39.84
0.1486
4705
2756
10.55
0.02341
64.83
617.3
35.14
53.94
38.16
27.01
1.119e+06
33.36
0.04971
18.19
3558
0.04387
0.1161
0.02235
55.06
33.56
59.36
39.79
1.823e+04
0.02213
58.02
3667
10.08
236.9
87.92
0.06849
38.53
13.93
0.3114
775.1
17.1
656
288.9
9.342e+04
0.02208
34.92
1389
294.6
54.31
0.4797
957.9
0.02608
814.9
33
2.29
18.66
0.2693
41.91
23.54
64.63
230.5
0.03199
18.57
0.03171
39.25
41.11
609.5
9.667
0.08621
5.975
243.3
0.03152
42.09
56.31
0.04595
72.35
2.051e+06
11.67
0.01941
0.01934
2.222e+05
0.02179
0.0217
0.02612
2.413
38.76
1.109e+07
130.8
0.04753
18.4
12.49
0.02175
0.2185
17.66
0.02165
980
63.84
2.288e+05
2628
19.46
31.23
0.04777
15.54
0.02184
238.9
69.93
782.3
910.7
975.5
85.33
291.9
12.47
19.57
0.03155
12.02
1.971e+05
19.37
0.08234
34.89
4.482e+06
0.0217
43.39
53.76
214.3
25.87
757.4
131.4
2.284e+05
151
5819
1.703e+05
0.1004
2.73
1171
25.28
22.08
375.9
1.357
0.02337
1318
4.927
0.05334
13.27
0.02603
3.775
0.02228
117.6
264.5
144.6
85.97
0.5973
40.34
904.3
0.2663
14.31
42.81
42.37
42.38
26.83
195.1
0.5026
2.831
0.06929
0.6118
4.691
0.02175
0.02174
1.891e+06
41.5
0.02175
213.1
0.03331
86.55
0.1965
0.08197
3.572
0.02168
2.618
356.5
120
25.88
33.63
523.1
0.3399
0.271
1.18
903.2
19.68
18.26
0.02166
21.12
20.29
98.94
768.5
636.9
0.05434
0.02173
363.1
80.56
533.2
0.21
2.089
0.077
327.3
0.02841
25.39
387.4
96.35
0.03108
110.2
339.7
14.79
11.24
0.02174
0.04172
0.01942
0.01936
0.06718
1.254
2.281
11.27
49.21
0.04313
19.47
66.69
43.05
7.662
213.7
164.9
36.02
490
74.4
431.8
9.501
44.56
42.59
0.02798
140
21.84
31.18
0.02329
342.8
12.07
60.62
20.06
220.1
223
0.02192
0.02179
1.427
391.3
0.5089
0.8624
0.02856
780.1
238.1
0.02998
0.07214
324
1.546e+05
15.08
0.5201
31.26
2032
394.5
0.3375
0.02299
1.27e+04
0.03623
1841
11.78
50.97
0.02185
0.1866
456
371.3
242.3
392.6
0.1901
345.1
0.02789
0.0257
1280
0.02184
20.55
37.3
0.03723
15.75
20.91
35.33
0.02222
210
10.52
527.4
0.1169
15.52
26.4
49.52
19.5
1006
113.4
217.9
51.35
4710
82.88
0.07593
12.71
0.06075
0.2852
0.08007
180.4
0.05547
0.02115
83.85
50.38
3.934
254.1
0.02192
20.36
138.9
0.02494
0.02168
0.02172
204.8
0.05039
1.608
0.02391
516.9
0.02173
151.3
1.512
17.64
16.46
349.4
13.36
476.6
0.03639
34.73
591.5
144
29.49
70.82
31.04
75.17
33.48
2.16
71.32
0.2019
0.02199
29.39
215.6
0.02078
13.21
2.155
0.1491
82.27
0.04222
0.02028
33.49
1.449
380.3
95.29
5420
122.4
116.2
641
5.545
250.5
112.2
0.02164
526
0.02235
184.6
143.6
53.19
45.14
3.46e+06
40.92
1.984
0.1
2.86
0.02166
5396
0.02202
33.24
11.76
5.043e+06
2.528e+05
8.19e+05
0.02194
138.3
343.2
0.02173
10.98
64.05
39.15
5.505
16.89
353
13.12
3461
0.1711
20.88
1.664e+05
289
496.3
655.2
0.02205
9.2
1.536
35.42
0.02199
627.4
3434
449.4
0.01964
29.19
0.08787
1554
7.919
1559
28.49
0.02244
161.7
5.577
0.02081
0.339
97.02
316.2
218.2
231.4
441.3
11.77
119.8
154
40.62
78.38
0.02194
1479
30.24
580.1
45.9
22.42
0.02212
0.02207
0.05093
172.3
4.665
0.02173
0.02926
2.811
552.8
21.63
5.59
743.2
3023
1.503
0.02245
0.02134
448.6
14.8
57.72
0.03177
3935
32.68
65.43
0.5123
854.9
0.02173
19.81
31.76
43.48
0.02701
171.4
13.35
2.035e+04
0.02026
82.52
2526
0.02171
15.72
0.02175
158.6
98.42
0.02176
267.8
320
427.2
48.53
63.9
427.9
392.7
21.08
187.2
203.9
212.3
51.1
80.1
667
0.02681
527.9
0.02174
4.726
0.0237
57.22
0.02116
0.02175
0.4422
215
23.11
0.02137
0.02115
252.1
2121
263.4
473.8
10.3
1.546
16.22
11.88
43.41
124.2
434.8
0.02139
99.42
44.27
0.401
24.57
0.02215
0.02921
101.4
2701
111.9
1.092e+04
0.02364
0.03827
45.02
118.3
0.02588
388.6
0.1127
0.08202
213.9
4.933
45.35
0.09197
8.656e+06
776.6
28.64
35.02
40.55
66.73
724.1
133.6
0.0244
58.86
129.8
20.35
0.02121
185.8
0.2789
0.1856
0.01963
0.02119
1.121e+04
0.1006
403
55.41
77.74
21.2
0.6502
630.9
0.08217
361
0.02163
0.02089
3.605
0.06292
322
0.1794
1309
9.994
376.8
0.1429
20.08
0.03646
510.6
0.04243
387.7
1.213e+06
36.09
127.6
14.56
0.02847
62.27
217.2
8806
11.78
28.59
43.43
3142
19.84
281.1
8.354
294.1
79.21
20.16
10.47
0.2244
1.868e+07
0.2767
0.02586
107.8
56.51
140.8
0.02154
58.68
9.752
21.36
0.04107
1.159e+04
74.78
872.9
0.04573
151.2
50.15
128.4
74.31
0.03826
16.56
577.5
271.7
22.79
0.02182
68.04
59.16
0.02184
19.08
0.6147
62.95
40.4
0.2982
36.31
1516
117
0.01934
16.71
9.599
1484
508.9
0.2035
10.79
386.2
0.01938
37.25
212.6
91.33
1.37e+05
94.09
419.2
27.95
23.76
1.925
0.02193
1.397e+07
33.84
45.99
994.1
23.83
130
61.56
260.7
0.02132
9.85
4.82
0.0385
79.2
182.4
91.03
40.75
0.02048
15.7
45.88
0.02164
0.02043
24.92
9.786
10.29
123.3
19.79
4.925e+04
7.869
0.1597
0.02123
21.32
48.15
368.9
718.1
0.4215
0.05537
0.02196
2.445
4623
0.02125
0.1238
1726
61.37
1555
0.02572
24.01
66.51
0.0218
478.9
0.0212
82.93
4730
88.78
149.3
3356
0.02191
246.1
0.1016
606.2
246.1
768.2
4474
0.202
0.4389
0.8726
2e+04
0.02178
67.01
519.5
818.6
136.9
5108
0.05318
0.2054
460.6
2172
1.133e+04
525.2
3.474e+05
455.2
6.393e+04
52.06
799.2
10.14
8850
0.02281
116.8
0.02726
0.02632
42.93
0.02559
47.08
14.49
4.892
1.08
0.03697
526.2
116.1
0.02185
17.94
38.65
0.03567
334.2
3.784e+04
35.32
15.25
309.4
39.92
184.4
0.02169
54.97
388.2
0.02311
252.6
29.72
9.735
0.02069
2.443
24.32
1.131e+05
2.635
3.826e+04
12.93
18.15
88.98
3787
137.5
0.02349
3131
0.2955
0.02428
1.964
1.213e+05
39.71
216.9
10.66
2.461
7383
5.832e+04
264.1
0.02242
0.02183
16.39
4.074
60.43
243.9
20.84
2044
183.8
0.07121
2002
0.04614
1917
0.0216
17.95
752.8
30.2
86.19
14.85
0.02177
0.02183
691.5
0.1446
103.6
264.1
260.1
13.14
124.1
118.8
102.9
1.54e+04
54.35
450.3
255.1
14.44
12.24
72.95
116.1
1536
4.458e+04
15.29
0.02154
0.02139
14.77
25.88
0.5056
0.02081
14.02
16.35
0.5155
200.9
109.1
151.7
1.694
0.02223
0.2304
0.5783
4653
908.2
52.63
0.2437
61.22
355.6
250.6
29.09
9.277
31.06
150.3
54.51
2402
0.02296
4708
4526
9.476
46.1
425.8
0.02175
1.148e+04
1.758e+04
0.02176
0.02154
49.54
21.29
1.624e+05
143.8
112.3
404.3
219
0.2594
0.3269
0.02247
265.3
19.14
130.7
2.08
1934
30.13
0.02805
1.153e+04
71.41
0.02172
109.7
0.02514
0.02164
24.26
0.08779
1.223e+04
0.02157
477.1
0.02181
225.6
0.07513
16.37
7.517
472.7
327.7
256.5
42.35
0.05572
0.03481
32.1
205.9
136.8
171.7
3879
261.8
1.759e+04
51.85
387.8
211.2
307.4
1567
0.121
11.4
0.04111
182.2
83.48
842.2
0.06533
365.7
12.34
93.71
108.4
42.19
0.7625
535.4
15.36
93.74
119.4
651.9
258.4
0.02101
23.83
192.1
0.02181
101.1
318.5
0.02067
1.433
146.5
0.03371
0.1266
49.75
92.42
0.1398
0.01978
90.11
93.89
0.02163
0.09509
0.02996
16.01
119.3
9.72
0.034
723.6
3.484e+04
513.9
267.9
11.85
8845
0.07732
165.2
0.02176
21.85
6.147
75.3
108.2
893.6
2611
0.02196
1.665e+05
577.4
442.5
57.56
1272
12.22
12.32
1029
75.5
0.03243
3.354e+05
33.57
260.9
730.6
191.5
92.14
75.38
1963
98.31
50.78
149.5
351.7
284.9
38.42
3.092e+04
0.09561
126
0.0856
493.6
0.0197
0.02165
88.19
1.129e+04
18.85
1.144
1.314e+04
429.2
0.02179
1767
112.2
132.4
3.858e+04
1.578
54.09
3.373e+06
18.4
3015
12.01
84.24
1482
294.8
666.1
5.855
130.2
0.07337
17.27
40.66
56.3
7.21
114.3
10.49
7549
15.84
0.2088
13.61
0.4201
0.5128
13.27
2.944e+04
0.03687
2672
888.5
68.43
35.64
0.0218
11.02
42.9
0.8172
1356
729.9
883.1
0.02135
374.9
775.9
25.89
1.122e+04
126.2
11.9
322.6
0.02192
406.9
52.62
3572
68.35
0.06282
15.26
0.02171
4.124e+04
1.304e+04
32.27
0.4357
5.946
0.02086
0.01978
216.3
22.08
8.348
0.07263
0.05099
0.05236
2.978
21.55
20.49
102.4
245.1
1.338e+04
0.6355
784
69.89
104.6
0.01981
395.3
11.15
71.31
1.659e+04
95.86
11.23
48.43
60.21
25.93
5.176e+04
29.88
28.7
11.1
12.53
4.932
231.8
4.295e+04
0.1254
591.9
0.02118
257.6
991.6
0.02031
1422
38.95
43.22
376.8
0.02138
0.6559
1.104e+05
0.02176
219.2
245.7
96.74
4761
0.5049
4.725
360.4
1482
37.35
89.33
0.05076
95.79
3113
6491
472.8
32.79
0.02169
135.9
11.53
609.6
119.3
9.648
35.26
0.0217
2.147
106
0.02203
9.929
0.02243
2960
10.19
9450
87.64
76.02
431.8
25
180.9
398.2
8.516e+04
37.27
69.86
81.1
21.71
14.06
0.02211
51.99
0.02212
11
0.022
12.73
0.02147
163.5
64.24
0.02066
0.02162
187
0.138
412
0.08556
0.02004
4.984
23.03
0.03136
8.69e+05
1436
9.033e+04
182.6
39.57
280.8
185.4
41.75
0.6814
2249
24.04
629.7
278.6
43.32
85.92
8.429
0.02156
8.447e+04
29.7
2343
0.02179
1.513e+04
188.1
294.1
76.43
0.01973
0.01972
8.256
31.37
6.394
10.34
67.83
0.6138
0.6993
2.445
3.84
1370
66.3
0.6951
18.39
5.03
438.3
368.9
84.22
306.9
14.39
0.02192
78.55
98.13
5616
62.97
0.03388
72.96
1.308
155
47.57
574
16.09
0.02174
21.72
29.67
2.138e+04
4711
0.5091
33.67
522
0.1077
0.01972
805.2
182.6
7.833e+04
0.05459
3.13e+04
60.19
0.02152
87.92
575.3
10.93
0.1019
18.56
340.2
58.5
78.56
47.53
1188
0.0398
221.1
553.8
473.2
0.05598
0.05585
323.9
6.809
7.537e+04
69.42
563.5
622
8.492e+04
1.429
148.7
0.02482
0.02177
0.0215
15.86
0.02282
2.367e+04
0.02173
3405
0.2344
19.06
216.3
435
0.09352
7973
0.2113
158.5
14.03
4588
0.02167
66.14
291
12.88
3826
710.2
20.1
815.7
1320
0.0441
0.0206
3819
0.07282
0.01996
0.2368
3225
0.0206
1429
0.02184
40.2
148.3
13.92
71.94
0.02091
18.63
266.5
85.43
0.06148
13.55
0.1427
0.02174
0.02122
46.48
1.539e+05
24.24
95.09
0.02415
1.044e+04
0.2722
0.07121
0.06032
1.152
70.63
393
0.02501
200.9
0.02229
42.42
0.02217
0.2378
125.2
34.81
3.755
711.1
84.19
0.02119
95.28
1054
191.1
1.383e+04
743.7
12.05
0.03267
2.31
1.701e+04
74.82
874.4
9631
0.07413
0.1381
0.02159
78.83
197.8
85.91
0.0218
276.7
0.02175
0.166
74.49
0.02138
11.46
0.4096
18.62
15.9
0.9619
286.1
0.0219
379.3
2640
3.301
8.428
176.2
0.03965
165.8
42.75
1458
51.71
40.61
477.1
40.87
81.88
3409
0.06755
0.1508
72.7
0.03331
235.7
16.89
0.08471
84.46
0.02409
0.3361
1586
23.98
182.3
63.85
1.451e+04
43.23
5546
0.7826
0.02066
5622
138.6
0.08823
308.5
0.02719
78.87
0.02223
12.39
3145
12.69
6.684
69.88
149.1
0.02187
65.34
0.2406
4.608
487.4
0.0248
103
1131
0.02159
0.02526
52.93
0.07282
95.5
1.916
1.284
14.47
0.542
19.13
0.07096
1.43
47.09
0.02102
0.1441
626.7
1.479e+04
0.02087
160
4516
20.31
161.1
10.38
165.8
1.439e+04
0.05803
0.1111
68.12
0.02516
451.7
8.352
20.68
1856
88.31
0.02444
96.07
2.224e+05
8.321e+05
64.36
75.46
87.91
0.7961
15.46
12.6
23.79
529.2
177.4
168.2
174.2
7340
16.45
1.634
0.02171
647.6
1.803
22.47
0.1649
0.04028
145.1
65.27
10.85
0.02036
466.4
757.7
120.8
172.1
12.69
1.566e+04
290.3
0.0265
112
5811
21.63
112
2.572e+04
0.01939
2158
431.7
167.7
0.02755
19.31
11.73
519.9
150.3
15.32
740.8
0.03197
2.123
200.1
0.04808
12.31
0.02169
345.8
2659
156.6
805
1.183e+04
21.47
6513
0.1062
551.7
4.105
9.467
0.0359
10.25
32.24
17.68
123.8
0.06392
99.15
5.871e+04
1.569e+04
46.29
63.04
0.4631
0.5769
0.02189
0.02559
70
0.276
0.02167
80.69
136.7
242.2
107
12.42
199.9
70.23
1310
1.671e+04
1.82e+04
0.08106
98.23
4.583e+04
10.41
1772
13.43
15.51
44.13
5.816e+05
12.05
14.61
0.04311
0.0511
773.5
58.14
0.02174
0.02196
11.29
751.8
15.43
109.2
1.031e+04
7.432
0.02346
615.3
9.807
72.1
1565
0.5305
7.005
59.42
45.27
0.6988
55.63
0.02188
534.9
8.631
667.3
18.24
219.7
2081
2.062
650.3
82.3
532.9
149.1
1698
0.07855
11.64
33.41
19.28
302.9
80.22
3611
283.5
0.02166
94.88
13.61
543.2
66.37
0.2603
30.78
0.08596
1800
0.04804
73.62
27.43
46.69
11.2
29.32
0.216
1.607e+04
0.1745
0.02469
616.2
0.02091
16.93
0.031
0.8365
10.61
0.02151
0.236
213.9
1197
0.02176
0.02314
10.49
20.07
116.8
0.1818
96.41
40.08
748.2
369.1
31.09
134.2
121.8
0.08336
111.6
1.701e+04
9.798
2257
325.3
10.09
1.425e+04
0.02173
0.0206
0.8584
3.427
9.238e+04
0.0218
20.33
486.8
8.651e+04
237.5
488.3
0.01981
0.01951
309.1
57.32
42.56
30.77
0.03206
43.8
1.642
0.02222
611.1
168.9
81.32
32.65
1674
4.055
1.999
0.01979
12.55
192.8
647.6
421.8
43.07
5293
366.6
42.69
123.8
186.2
50.98
0.06434
109.3
3278
0.02794
0.02633
188.8
97.06
3871
1.097
541.8
68.02
0.1417
0.02173
4.745
0.02211
19.72
1.153e+04
15.43
0.113
71.19
0.0432
6762
450
0.06557
15.22
12.54
95.08
23.74
64.84
52.47
43.65
30.04
30.88
18.41
11.6
1245
121
31.93
97.2
6968
71.93
346.4
377.9
2.509
1.245
21.88
6561
0.3269
93.04
0.02232
14.5
0.02214
148.9
9.031
6576
106.5
0.07934
940
5.372e+04
806.4
27.5
64.92
547.3
1433
0.2627
24.92
31.73
3.438e+04
51.66
28.34
0.1997
0.2298
0.02175
37.42
5491
5.574
953.1
11.48
0.0814
1149
0.01971
83.97
0.3745
17.97
1061
0.1656
1.912
8.514
0.03731
197.8
26.17
1.776e+04
726.5
164.9
0.02141
33.04
132.7
2992
1165
35.21
9.024
46.32
0.02172
267.5
563.6
3.352
14.51
65.59
1660
489.8
345.7
34.08
0.4832
1.325
6885
11.63
0.06909
2.31e+04
0.06769
8.925
0.02175
0.02199
39.64
0.02191
529.3
65.04
23.88
32.67
483.5
1459
53.21
473
52.38
15.18
1.484e+05
21.14
41.26
2.052
5.788e+04
11.88
4818
5847
0.04301
535.8
460.8
4.383
12.8
3097
251.8
817.8
15.34
22.74
0.02626
8.887
0.02206
0.5425
12.29
278.5
81.97
79.94
9878
11.78
0.0219
161.5
22.9
33.58
47.51
25.98
55.36
450.4
1206
5143
146.3
206.5
473.3
38.26
132.3
0.06535
7.239e+04
137.6
83.92
1.102
0.02158
188.5
193.1
15.5
4.118
5504
489.3
182.2
65.97
37.18
2278
0.02164
4076
9.972
0.03628
30.38
470.6
0.02167
103.3
11.85
12.23
5776
7.562
49.99
5.813e+04
22.71
200
0.01968
0.01961
191.7
120.2
2.3
199.4
121.1
0.02151
1910
689.6
40.55
0.02175
0.02191
49.94
69.9
194.8
1.963e+05
495.2
0.02735
396.4
1.86e+04
0.07811
457.1
260.1
0.1009
0.7941
832.4
29.91
31.57
0.01963
0.01949
0.01946
0.02016
0.07215
26
21.91
486.4
7.828
142.2
21.69
559
0.02079
45.58
34.03
1787
565.4
2262
105
63.12
267.5
37.24
146.1
0.08396
92.97
1.1e+05
183.3
2053
0.277
98.95
0.02173
6.032e+04
36.84
295
7.453
0.03039
1.922e+04
0.02179
43.82
429.5
0.04002
61.87
52.22
15.84
70.04
3657
0.0399
345.5
0.02066
2.041
129.8
142.3
14.91
46.66
0.02151
0.02172
0.1865
351.6
551.4
0.187
15.26
81.43
2.995
1841
271.3
25.2
9.668
25.64
33.71
0.139
2.915e+04
0.2497
0.02173
4808
0.02171
0.02167
0.2544
0.1058
3419
12.86
723.1
21.52
278.1
0.02187
0.07809
189.7
177.1
12.41
0.05339
0.1832
1.764e+04
1837
0.02213
3457
2454
9.476e+04
0.06813
20.6
29.54
0.07248
0.02348
19.25
96.47
1.424e+04
0.07012
424.1
6.369e+05
0.02174
311
972.5
117.2
0.02178
519.3
2.38e+04
3.852e+04
1.965e+04
0.364
139.9
2.035e+04
0.04624
49.01
0.02154
14.49
366.6
10.35
221.4
1.904e+04
0.1711
71.17
57.6
0.02225
0.02751
336.5
545.7
15.19
3984
56.1
1.224
11.42
37.53
171.7
36.99
0.02175
69.02
48
179.7
208.6
114.6
321
80.18
2.508e+04
2.877e+04
3.566e+05
353.3
0.04429
737.5
0.02452
578.9
1049
0.02176
1.925e+05
0.02221
102.5
5376
1221
93.38
75.65
254.8
213.1
0.01963
1.637e+05
271.8
0.05756
10.96
69.03
3.164e+04
6075
5.738e+04
11.62
365.8
1908
18.24
0.06656
80.41
3500
0.02088
33.47
59.15
106.2
50.34
29.47
10.84
1884
112.5
128.9
5949
0.05734
1393
0.07578
48.62
122.6
0.02296
0.08426
42.01
328.9
145.3
2.409e+04
0.05555
0.02173
5.429
202.1
1283
24.52
9.061
0.0196
0.02875
729.2
0.01995
176
320.3
0.06238
66.2
35.55
7842
2.567e+04
1.51e+04
0.03244
374.5
53.42
76.11
19.75
11.22
6803
13.34
784.5
215.5
3245
170.8
1.487
1.472e+04
23.95
78.98
33.46
0.0509
52.03
0.1248
0.02185
25.99
112.9
32.06
153.6
40.52
4.702e+04
7.37e+04
9.866
5.447e+05
0.2692
0.2946
0.03044
0.04794
27.04
0.02221
254
2.155e+04
217.5
1994
42.97
75.66
146.3
42.43
11.92
318.3
15.07
2320
83.56
0.0258
75.14
82.03
0.02204
0.03583
880.3
0.02185
99.54
97.95
210.5
7.527
1277
0.09527
20.02
0.03671
508
5281
555.1
56.34
0.02143
326.4
0.02155
0.256
76.91
52.46
1.432e+04
85.86
415.2
14.11
1465
0.4194
0.204
14.6
178.7
0.02084
4.992
0.02185
525.2
810.1
110.3
42.99
0.02153
334.3
286.1
72.25
1.443e+04
113
1030
0.02293
23.71
3.594
2.037
130.8
26.9
0.07088
1.844
0.1044
18.33
82.58
0.02069
0.02026
0.0221
0.03465
0.1293
1354
243.4
0.02181
192.3
10.97
132.2
0.02194
192.3
0.06497
915.5
0.08851
1.085e+05
143.1
972.7
0.04289
0.08273
1.528e+04
0.02711
129.2
153.9
218.7
123.1
50.46
0.02181
222.2
254.9
90.72
48.37
44.6
8.645
21.28
71.51
1148
0.0215
14.61
44.11
1925
0.09604
0.02209
139.5
698.9
14.52
17.71
15.49
525.1
0.04061
28.48
263.5
10.38
99.1
103.6
0.02568
4.783
1.582e+04
106.7
91.73
2018
1.178
7.139
0.02166
0.02667
0.1074
0.04539
1.563e+04
64.01
0.02195
0.02247
86.27
7.597e+04
0.02194
18.82
5583
128.9
4.884
84.28
1441
54.94
13.58
443.9
2.917e+04
1023
0.02187
28.88
79.91
54.18
0.02139
0.2953
87.96
21.54
183.7
1.882e+04
2484
19.43
364.8
3.037e+04
14.21
448.6
17.73
1.044
0.6882
939.9
1.042e+04
0.02157
126.9
107.9
0.02193
2330
12.49
1.404
0.06061
84.17
433.2
119.2
37.28
0.02169
0.02178
16.72
93.81
0.02002
20.91
0.02464
1076
9.934
12.39
308.6
825.2
27.6
96.87
0.0214
1.831e+04
8.714
1877
335.7
0.06965
729.1
49.63
107.9
1.437e+04
8.387
1.342e+04
0.02075
0.02124
18.83
0.04852
0.02139
3.511e+04
174.7
267.7
1519
143.3
23.19
0.0277
3.404e+04
0.03735
75.81
0.02024
0.1023
104.9
28.92
27.88
79.53
8.697
408.4
0.02047
28.41
1805
1528
2524
0.1101
32.63
16.1
0.02195
384.3
159
0.2405
0.04045
57.55
1.478e+04
0.02188
0.02151
22.06
1148
10.38
1560
0.02206
2360
52.71
112
0.02208
0.06264
538.5
193.2
883.7
15.76
15.18
0.02045
451.9
0.0302
462.2
2.396e+04
0.05274
77.78
10.44
3479
9533
489.8
0.05077
0.02047
42.8
0.1402
0.02164
185.6
144.2
14.75
0.02034
0.06351
0.0727
0.02636
301.7
34.98
0.02174
431.8
78.93
554.8
0.0256
0.02191
0.02163
0.04739
134.3
33.21
379.8
1.519e+04
9076
72.03
2.965e+04
1852
0.02263
1.294e+04
47.69
1302
8.7
0.1107
1.855
3079
422.1
1383
200
0.04935
17.79
256
92.93
12.17
0.1665
114.7
0.1315
259
0.03554
22.85
15.13
19.59
0.1839
436
2.817e+04
2420
0.02061
1.587e+04
24.47
0.01994
93.77
0.02181
759.8
43.85
0.1203
185.6
179
0.0223
0.9526
10.43
4197
0.02237
0.1243
5098
5.311
0.02157
1215
24.19
0.02981
0.1179
26.2
152.1
1.934e+04
370
50.9
15.66
359.5
0.5276
0.02169
0.03947
283.2
89.23
46.83
0.02207
4.063e+04
192.7
32.92
92.35
20.83
53.88
0.02017
0.05376
224.1
84.85
0.03979
106.5
466.1
13.46
1.274
2.7
10.07
0.03668
8.865
31.92
107.5
16.35
0.02205
548.2
0.1629
26.7
6.338
3.791
1872
35.79
1.033e+05
29.47
0.4515
0.2099
0.02118
6.749
25.09
1418
538.3
81.36
318.1
1408
71.3
0.354
49.14
345.5
2743
43.27
0.03814
839.8
0.6113
653.2
14.55
10.97
23.71
196.2
0.02179
103.3
0.1852
0.02164
0.7032
825.9
1.319
7.036e+05
435.2
370.6
0.02165
75.88
90.44
0.0482
33.26
49.94
1150
172.1
1169
0.02188
75.19
0.02066
3.783
140.5
120.5
5.801
363.7
5.25e+05
0.0215
0.02174
43.75
95.69
719.7
1.317
103.2
452.2
44.99
12.91
0.02181
205.1
992.6
0.06729
21.07
0.02156
80.29
0.04851
88.87
301
52.8
0.33
717.2
186.5
0.0254
223.4
71.57
0.2183
0.02146
0.02265
320.4
1797
23.81
8.97
37.33
16.11
150.6
22.48
0.0194
0.1605
0.5078
2.869e+04
1035
795.1
0.02134
361.2
123
884.4
640.9
7430
2.029
57.92
94.25
62.39
425.3
1564
25.2
0.0721
10.24
0.03035
5.274e+04
0.02243
12.93
337.9
33.46
12.96
397.5
34.87
4414
11.21
213.8
86.29
5.265
186.9
2.777e+04
21.17
1.555e+04
1.075e+04
0.02175
1.721e+04
81.7
825.1
1104
72.49
42.7
118.7
75.22
15.49
0.03634
21.34
14.02
48.54
23.26
34.23
0.3887
1.897
25.95
1.778e+04
34.76
3287
89.71
364.6
0.02027
332.7
40.58
1563
11.49
6892
158.6
240.1
0.07134
1363
0.06309
17.91
21.85
0.06325
0.5418
15.15
24.68
67.66
135.7
16.88
159.4
25.76
6930
21.94
9.516e+04
0.03558
66.95
93.83
11.08
0.04182
367
0.02173
0.022
0.02174
31.42
132.2
312.5
10.84
0.07951
27.88
0.03777
9.416e+04
1154
1.696e+04
199.6
0.06016
450
1682
0.06898
727.3
0.02187
75
8.447
291.8
42.24
0.02129
0.02139
59.59
9.425
0.03601
1.818e+04
142.2
0.02095
0.0218
56.43
0.03038
429.6
3528
0.02984
3.776
265.1
580.8
184.9
1.901e+04
6.275
0.1271
39.42
235.9
0.1346
161
25.88
0.9037
441.7
52.67
5.517e+05
0.02571
72.84
2847
1327
0.02183
23.24
0.02176
25.01
61.97
36.16
69.04
232.6
30.94
0.1461
711.6
813
339.2
656.1
456
30.99
9.404
65.09
143.1
19.62
288
0.02204
1.614e+04
6278
790.8
36.73
8.402
1146
364.3
0.2377
0.1523
2.231e+04
68.35
0.05421
0.03167
0.05186
272.1
417.1
43.84
1846
85.33
0.037
106.7
58.34
61.13
315.5
9.811e+04
478.4
54.49
323.6
26.26
42.22
1210
33.98
36.19
9.934
821.3
22.98
0.213
32.05
393.4
0.08933
157.9
0.2821
29.81
1.878e+04
363.3
0.02204
278.8
29.91
8828
487.6
0.02138
0.08921
438.7
0.02906
23.97
1005
296
9.931
0.02173
0.1592
12.55
12.8
0.07307
287.9
0.02077
363
19.92
200.7
153.2
48.34
49.51
293
263.2
0.1622
83.11
0.02182
2.535e+04
0.03507
0.03076
155.2
0.02181
10.98
10.69
3.372e+05
0.02196
124.5
67.95
316.7
278
0.1913
32.14
23.92
259.7
1265
24.95
0.07526
0.022
154.2
242.5
21.79
39.25
543.1
1149
0.7346
0.02113
32.4
181.7
3.903e+04
46.69
37.01
0.6277
180.7
0.0215
15.04
2437
687.2
0.02197
0.1738
478.3
0.0198
72.04
839.5
72.6
0.02195
0.022
8.297
0.02323
0.02013
0.02173
8.843
306.4
738.6
0.2564
129.7
8.725
16.53
0.02225
13.7
59.95
0.04058
0.7753
669
14.95
0.0254
848
30.81
8.426
1.615e+04
2.011e+04
0.02514
54.85
31.33
216.4
32.44
1808
0.02194
169.1
1.768e+04
2.587
150.1
0.3633
1075
28.8
159.2
13.07
9094
0.05448
5748
36.28
0.02521
0.02895
0.02006
123.4
16.76
1373
117.6
2.873e+04
0.07749
0.01942
107.7
335.6
0.07564
0.02183
515
10.12
651.9
30.28
784.1
150.8
48.53
5.336
208.3
0.01973
9079
82.18
33.59
12.96
0.06757
0.02195
20.69
11.75
295.5
2024
35.41
0.03892
58.86
15.99
0.05854
0.02187
789.8
167.2
2533
105.9
21.58
0.8142
37.26
16.25
6.054
75.26
0.3426
0.1206
0.02192
42.08
7237
29.57
0.3675
2258
0.4927
0.02168
35.08
0.02746
0.02203
15.62
0.01938
0.01932
1.986
0.02011
24.6
2.431e+04
320
21.25
0.1244
0.02113
0.02197
71.86
179.2
12.12
1.736e+04
14.09
0.03028
9.785
51.93
1310
0.4094
0.02198
3.07
33.57
0.02203
0.02136
45.15
189.2
0.04925
0.02854
51.87
0.0213
1.446
0.0215
9.808e+04
0.8191
457.7
9.544
0.02743
0.1514
11.18
19.68
433.7
18.25
70.47
21.09
0.02214
1.209e+04
13.97
341.9
0.02191
204.1
134.1
53.55
317.4
0.1995
182.4
10.77
0.1269
1469
0.02205
2.157e+05
13.1
9705
0.02197
143.9
0.02174
0.0763
2.807
3273
13.07
119.9
25.39
0.1117
1561
0.1263
813.3
1888
9.954
0.09141
0.05321
442.3
0.02162
3.11
19.5
59.91
12.75
0.02178
5038
0.03234
112.3
335.6
107.6
572.8
4422
24.98
514.5
90.44
1.463
15.26
0.4828
0.02173
0.02181
385
11.3
6321
34.03
24.47
0.02179
57.17
0.02179
0.0217
0.03011
139.9
0.09986
29.55
0.03475
26.89
0.1688
50.85
215.5
1219
0.02512
165.7
102.7
81.16
0.1531
19.5
0.02187
84.27
0.395
45.81
3.109
0.03211
201.4
3.748e+04
157.4
1031
18.09
1.122e+04
889.3
2.398
17.99
744.1
64.9
4.423e+04
235.5
19.5
49.49
64.94
24.89
541.6
356.9
0.03897
40.02
0.08805
352.9
1.036e+04
70.86
692.9
323.7
12.8
166.6
0.03332
196.9
22.8
2.086e+04
11.12
0.02239
17.38
48.59
131.2
0.05837
106.7
140.1
18.9
0.4432
140.9
14.46
4249
129.3
69.89
26.2
17.5
473.1
0.02453
277.8
3.497
0.02372
46.08
47.23
190.9
343
121.6
0.02202
399.8
11.6
0.08379
1.418
282.2
6.267e+04
102.7
0.02085
0.02448
0.4126
171.9
53.44
0.02151
2.732
197.5
419.9
5847
0.02103
208.8
2521
37.26
4.817e+04
54.69
73.21
185.5
23.54
67.9
0.02335
39.6
2255
43.25
235.3
1.323
22.42
0.02166
0.06923
202.8
99.69
19.1
682.6
53.31
0.02173
2223
57.11
0.1879
285
5517
6810
0.04156
0.1247
0.02446
76.49
1825
354.8
983.3
168.8
242.9
0.02181
50.57
4.674
9.091
2846
0.3672
1.739e+04
103.8
1505
0.03305
137.5
1255
0.0217
130.1
70.54
73.29
10
0.0219
0.0217
0.0386
21.98
0.02172
13.85
6112
0.1073
14.46
210.4
0.03751
60.01
11.2
0.264
1548
88.86
6186
42.6
0.02176
152.3
1694
0.0217
4017
17.27
47.66
31.24
183.1
51.04
163.1
13.48
11.22
0.02194
11.39
0.02178
0.05289
1132
115.8
45.73
37.03
0.7285
104.2
0.02176
0.01965
0.05645
75.29
31.91
70.39
1.741e+04
23.89
0.6057
210.5
0.5557
16.79
0.02136
490.1
458.9
16.95
12.59
89.74
101.4
41.3
17.25
0.9098
0.02231
124.7
17.26
110.9
1322
1.603e+04
447.3
0.02149
49.99
17.83
17.56
8.115e+04
0.02166
58.63
20.9
22.72
53.75
17.93
5.008e+04
51.66
18.94
459
2706
13.12
74.4
2430
1.831
0.02168
261.2
16.59
41.26
69.63
15.89
1.623
0.04411
610.4
242.7
866.4
20.67
733
196.2
0.02172
143.1
79.08
47.02
22.24
0.01935
269.3
33.22
26.52
6.15
0.02133
205.3
11.76
5.869
45.35
321
84.09
30.25
402.2
383.5
0.01992
79.11
35.91
62.23
439.8
145.7
34.67
18.21
28.57
8.41
125.4
430.3
1.649e+04
639.7
529.6
9726
57.93
0.07477
2.264e+06
341.8
1492
0.03546
1680
1246
258.9
29.47
0.02191
1.733
0.02179
13.66
66.5
4.613
0.7025
13.89
621
22.25
2.111e+05
12.16
256.7
698.9
1.552e+04
426.9
217.8
15.5
0.08872
74.98
14.14
1.92e+04
62.97
0.3205
0.8342
1506
1.172
0.022
0.02171
32.7
49.67
0.03914
0.02017
0.02189
484.9
181.3
9912
0.02155
0.03027
59.65
0.01976
0.01991
295.7
0.05411
125.2
540.3
0.05049
1285
8.502
46.67
9.116
28.48
0.05215
55.73
18.74
6.401e+05
26.35
338.9
942.6
1217
15.42
0.0302
9.715
638.5
0.02172
15.56
123.1
575.6
1.301e+04
120.9
27.92
665.5
0.02464
110.4
2347
222.4
84.26
52.02
0.07139
32.37
17.21
1757
131.8
175.4
0.04718
840.7
259.5
0.03574
18.29
0.06682
45.44
0.02622
1723
1.662e+04
0.02794
456.9
127.8
0.1343
644
68.01
0.02239
5805
58.83
191.8
547.3
0.03473
8.059
5.076e+04
78.96
390.3
25.96
17.4
3.102
15.25
162.6
0.05822
1.668
53.18
60.48
24.4
14.75
67.28
6.346
64.3
504.7
42.77
6.281
2.016
0.0218
0.09058
621.3
18.85
0.01936
3.149
36.24
3.317
167
71.1
26.87
0.09493
538.2
86.3
0.1085
37.56
122.1
0.0775
601.5
0.04096
762
9.216
0.179
0.06333
10.13
686
54.06
0.02095
59.44
160.8
105.8
0.167
0.02192
11.48
345.1
643.4
65.27
60.17
11.78
498.6
18.09
38.81
2.24e+04
14.5
2.008
4.54e+04
350.6
14.04
13.51
0.02204
1.223e+05
0.02207
21.84
109
99.7
130.7
119.3
1.958e+04
10.62
11.89
16.52
3.103e+04
459.1
12.76
4.254e+04
6602
469.8
121
0.1851
0.6527
7.193
23.25
0.02187
382
2.057e+04
0.04371
63.93
6.656
14.76
259.1
408.2
4.049e+04
1602
204.5
0.01954
0.01932
0.02178
505.6
2242
0.4004
0.02158
0.15
2621
5.9
4.475e+04
76.22
0.02209
3.877e+04
0.01939
1.837
11.11
0.03866
15.2
0.3079
1.43
0.0609
370.7
18.55
57.59
116.1
2.327e+04
11.66
160.7
197.1
10.47
0.02213
9565
430
494.4
89.65
918.1
208.4
196.5
0.05872
25.77
246.6
38.55
384.5
0.0291
988.7
32.77
744.1
14.45
0.1368
0.1491
0.02183
239.3
27.93
108
183.8
11.83
751.4
73.24
20.26
11.29
135
0.1527
877.2
344.3
287.1
44.67
0.0612
10.55
0.09358
62.88
28.22
102.3
3.373
379.3
19.06
15.51
376.7
0.211
1982
29.89
0.5076
0.08377
3.568e+04
291.4
217.2
30.59
5565
0.02204
6215
521.6
68.71
56.47
63.58
75.46
79.85
14.1
62.82
70.96
185.5
3710
0.06931
0.02186
0.02176
111.6
186.7
1.919
2.473e+04
133.6
9239
906.3
96.07
1829
1.836e+04
11.39
420.8
752.1
71.83
1.914e+04
0.02167
73.03
611.3
621.3
0.02157
593
80.4
210.2
293.7
356.7
0.0217
5.832
234
968.9
0.02089
162.7
12.3
0.1684
3.08e+05
0.03324
10.6
11.5
239.5
314.3
0.2694
64.08
2.333
178.5
725.5
139.9
0.01941
14.48
6.576e+05
0.02538
0.02269
1953
943
41.56
407.2
0.05875
52.89
63.55
51.49
34.73
178.5
0.01999
64.25
13.99
0.146
0.02192
41.59
0.02121
8.173e+04
59.48
1.61
9.046
1.365e+04
0.02169
141.3
0.02
0.02216
492.1
0.3043
1277
9.82
0.04182
38.61
346.8
20.43
21.16
26.3
378.6
136.6
451.7
486.9
511.5
5345
836.3
58.32
362.3
169.4
185.6
0.2313
0.02113
0.02118
3676
30.46
292.4
4.274e+04
0.02182
323.9
0.4514
0.02038
17.31
4.742e+04
10.68
409
2605
0.02206
525.3
43.94
16.52
9.726
44.54
2054
114.2
0.02174
4.644e+04
1311
0.06029
0.02346
1151
181.1
548.8
518.5
131
283.9
0.0217
240.5
0.02118
394.9
500.6
4.12e+04
0.01956
0.01934
0.1367
269.3
0.03072
17.33
2.069
8.327
20.77
53.37
257.6
0.04817
0.02679
1.784e+04
2.124e+04
24.45
771
0.04385
292.7
0.02215
136.4
1301
443.9
2193
244.2
428.2
356.4
0.3061
44.41
27.01
0.02516
0.02179
0.02175
12.61
198.8
684.4
3.036e+04
284.6
0.02463
367.9
809.6
426
3.352e+04
106.5
500
329.6
87.26
0.05327
2.335
32.5
0.9286
0.07754
913.8
24.66
41.8
70.18
597.2
0.3367
0.01974
1.739e+04
13.48
10.97
33.36
2.111e+04
30.39
0.02082
112.3
22.18
188.3
7.544
240
333.3
1.743
98.83
15.7
0.06435
181.7
0.04298
0.0748
0.5703
1160
21.21
990.9
17.78
50.56
41.79
0.02889
89.39
351
0.2282
43.1
3.234
1.89e+04
0.03055
0.02379
90.33
71.86
169
25.22
4.104
2258
0.06038
0.02183
25.85
1846
0.02471
0.5503
40.59
0.02161
1.852e+04
0.05073
38.87
83.39
39.68
0.5538
377.6
2074
4.865
0.05548
0.02174
15.91
53.03
83.3
16.06
0.02134
0.02019
0.02173
85.97
197.6
228.1
0.05332
743.5
36.02
439.7
51.29
811.2
0.2996
0.03028
4097
0.0219
830
37.36
0.03062
120.2
76.13
268.2
118.4
117.5
13.65
6.548
0.06818
2352
1230
2170
0.1528
0.5116
0.0217
1.872e+04
0.0216
162.7
1803
0.02218
23.51
154.9
345.2
0.08155
15.03
1.309e+04
21.16
0.02166
17.09
453.2
86.09
154.3
14.83
27.36
1.514e+04
19.09
0.02071
0.02247
1.149e+04
24.25
393.4
11.85
53.62
0.02117
0.02193
1.928
6.816e+04
1802
484.9
359.2
0.8377
310.3
1527
126.4
192.1
0.02189
668.8
10.27
264.5
15.87
15.64
0.0216
600.3
12.66
1.539e+04
1.942e+04
13.37
15.64
1.638
1010
0.02633
9.701
1.7e+04
420.9
143.9
1851
7179
130.6
195.8
0.1109
965.9
253.1
1548
38.76
0.02645
1203
6900
0.02173
329.1
3452
326.7
919.4
43.64
15
172.7
44.22
0.03297
63.95
0.02211
108.9
0.1014
1.41e+04
0.1209
4095
46.99
255.9
22.89
13.12
443.8
19.42
116.4
814.5
77.29
33.39
9.124
68.66
163.8
562.6
110.5
0.02459
23.06
21.83
59
111.7
66.07
312.3
47.03
0.02499
39.61
2.214e+04
17.22
11.53
146.8
0.03814
40.14
0.02158
44.19
5.685e+05
8.651e+04
473.9
22.69
42.4
0.02101
0.05207
17.97
24.58
42.59
6.127
0.02183
48.4
78.55
53.76
96.76
0.02167
849.3
1338
5.848e+04
9.566
27.11
62.01
578.3
0.03814
184.5
9.941e+04
0.8235
31
0.2477
310.6
5.204e+04
22.34
13.74
16.47
26.97
0.02479
143.1
0.01988
1.647e+04
112
14.43
1302
6.928
150.3
36.29
3.025
0.05065
0.02199
0.02152
51.74
18.58
39.97
8.484
25.94
58.87
1.957e+04
0.7508
288.3
0.2074
0.02181
990.7
0.02189
12.22
648.2
4.912
24.55
23.35
4.809e+04
234.2
21.81
274.1
128.1
62.58
0.1232
1.731e+04