/*--------------------------------*- C++ -*----------------------------------*\
  =========                 |
  \\      /  F ield         | OpenFOAM: The Open Source CFD Toolbox
   \\    /   O peration     | Website:  https://openfoam.org
    \\  /    A nd           | Version:  8
     \\/     M anipulation  |
\*---------------------------------------------------------------------------*/
FoamFile
{
    version     2.0;
    format      ascii;
    class       volScalarField;
    location    "40";
    object      p;
}
// * * * * * * * * * * * * * * * * * * * * * * * * * * * * * * * * * * * * * //

dimensions      [0 2 -2 0 0 0 0];

internalField   nonuniform List<scalar> 
127143
(
-0.1679
-0.1713
-0.1665
-0.1664
-0.574
-0.1664
-0.698
-0.6389
-0.635
-0.4233
-0.6146
-0.7068
-0.162
-0.1665
0.4994
-0.1655
-0.1674
-0.05186
-0.1778
-0.1692
-0.2781
-0.1612
0.02419
-0.09699
-0.1612
-0.02955
-0.4189
-0.4178
0.2375
-0.005062
-0.1568
-0.02782
-0.5023
-0.2951
0.1261
-0.5022
-0.1867
-0.3176
-0.09676
-0.1664
-0.1783
-0.2411
-0.2148
-0.1617
-0.04864
-0.2958
0.2341
-0.1883
-0.0138
-0.117
-0.1659
0.03331
-0.395
-0.2746
-0.0009594
0.05133
-0.0008981
-0.08465
-0.009365
-0.2733
0.3794
-0.1924
-0.1278
-0.002658
-0.4055
0.1179
-0.131
-0.1255
-0.1245
-0.0001554
-0.1167
-0.4188
-0.1679
-0.00973
-0.003795
-0.4181
-0.01389
-0.1943
0.04337
0.0001191
0.2246
-0.1692
-0.2953
-0.1627
-0.1719
-0.1932
-0.08637
-0.4292
0.1189
-0.6195
0.00608
-0.2296
-0.5772
-0.2781
-0.3266
-0.02133
-0.2374
-0.1297
-0.2072
-0.1283
1.939e-05
-0.01567
-0.6983
-0.06207
-0.1931
-0.2071
-0.0306
-2.6e-06
0.246
0.002434
0.4998
-0.4293
-0.3015
0.2844
0.005244
-0.01796
0.007582
-0.003702
-0.01354
-0.1666
0.002474
-0.2807
0.1561
-0.064
0.2261
-0.04641
-0.2048
-0.03533
-0.4043
0.08114
-0.2163
-0.2988
-0.1002
-0.1943
-0.1676
-0.2164
-0.07693
-0.2842
0.3202
-0.107
0.04953
0.01224
-0.3625
-0.3074
-0.3955
-0.4261
0.2993
-0.00262
-0.299
-0.7285
-0.07264
-6.614e-05
-0.3275
0.1549
0.4556
-0.1715
-0.08553
0.138
-0.1881
-0.1154
-0.1494
0.2512
0.005906
-0.2159
0.05607
-0.4052
-0.1887
0.2638
-0.4679
0.05298
-0.1616
-0.3071
-0.01072
0.08267
0.0004974
-0.1657
-0.4305
-0.4047
-0.0831
-0.006425
0.08328
0.0007141
-0.1662
-0.1649
0.0837
-0.1915
-0.1032
0.2723
-0.1001
-0.02459
-0.3842
-0.3935
-0.07516
-0.0673
-0.1672
-0.2302
0.0001251
-5.119e-05
-0.1742
0.01002
-0.01105
0.06969
0.00724
-0.1867
-0.1662
-0.1471
0.001578
-0.01447
-0.005774
0.005275
-0.1585
-0.17
0.01035
-0.4696
-0.2192
-0.1708
-0.1631
-0.0007826
-0.2747
0.0001194
-0.4174
-0.0001133
0.003359
-0.3943
-0.1231
-0.1627
0.05722
-0.3201
-0.1698
-0.2027
-0.2828
7.834e-05
-0.1674
-0.1658
-0.2825
-0.05124
-0.2159
-0.1648
-0.01121
-0.3745
-0.3934
-0.4088
-0.1728
0.135
-0.3863
-0.1665
0.000217
-0.4174
-0.1739
-3.771e-05
-0.3515
-0.0732
0.03141
-0.3004
0.04035
0.2327
-0.03445
-0.5061
0.05405
0.08237
-0.2444
-0.0004366
-0.2287
0.01279
-0.3976
-0.408
-0.1998
0.4635
0.3484
-0.3651
-0.006286
0.001671
-0.1861
-0.3751
-0.1324
-0.384
-0.3016
-0.03164
0.002284
0.09667
-0.000149
-0.01955
-0.06204
0.008031
-0.002225
-0.1688
-0.242
0.004889
-0.03941
-0.005581
-0.3399
0.02899
-0.04992
0.00321
0.008324
0.2529
-0.1127
-0.166
-0.1727
-0.3629
-0.06816
0.07747
0.1858
-0.01733
-0.129
0.3695
-0.0147
0.0106
-0.2119
-0.07733
-0.03545
-0.1643
0.03765
-0.000236
0.0109
-0.5115
-0.3363
-0.07878
-0.2233
-0.0005575
0.02521
-0.1424
-0.06528
0.03091
-0.5128
-0.355
0.09133
-0.1653
-0.1636
-0.4275
-0.1916
-0.002578
0.1224
9.776e-05
-3.674e-05
0.1549
0.2375
-0.01006
-0.1923
-0.2502
-0.1038
-0.0008695
-0.3885
-0.3847
0.4651
-0.03853
-0.2929
-0.3256
-0.06277
-0.4079
-0.06589
-0.1821
-0.1655
-0.384
0.07197
-0.2856
-0.3001
-0.4113
-0.002747
-0.1636
-0.1839
-0.1267
-0.1591
-0.1388
-0.1107
-0.00191
0.009844
-0.004087
-0.3414
-0.0003139
0.4334
-0.06587
-0.07368
-0.1305
-0.02484
-0.1799
-0.09092
-0.1638
-0.2005
-0.0009879
-0.2008
-0.04594
-0.05508
0.07819
0.007125
-0.1638
0.01335
-0.1656
-0.2324
-0.2644
-0.01071
0.2127
-0.1648
0.0453
-0.09925
-0.1361
0.209
-0.1558
0.07355
0.0003899
-0.1408
-0.0001999
-0.2962
-0.1663
0.007492
-0.05993
-0.1932
-0.09258
0.002229
-0.08328
0.238
-0.03664
0.04884
-0.1888
0.157
-0.3267
-0.2373
-0.004787
-0.3519
0.1837
-0.1886
-0.1872
-0.2252
3.35e-05
-0.2031
0.01516
-0.2032
0.07889
-0.4085
0.01839
0.001356
-0.2222
-0.1648
-0.1662
-0.4186
-0.002035
-0.03292
-0.3062
0.03231
0.00854
0.006121
-0.1175
-0.07446
0.2368
0.03713
-0.1294
0.01337
0.4068
-0.004035
-0.1712
-0.2514
-0.06308
-0.05958
-0.3544
0.1218
-0.1843
-0.06301
-0.4106
-0.1871
-0.3431
-0.1001
-0.4027
-0.2655
0.2822
-0.4033
0.0006629
-0.005544
-0.332
-0.2669
-0.0005752
-0.209
-0.2434
-0.06443
-0.3353
-0.002261
0.0002469
0.4797
-0.2405
-0.1781
-0.3892
0.3054
0.4163
-0.3789
0.03972
0.2388
-0.4182
-0.3781
-0.009729
-0.1146
0.02882
-0.4925
-0.08798
-0.3955
-0.4241
-0.1663
-0.2118
0.3895
-0.06972
-0.3127
0.01015
0.3032
-0.006488
-0.1717
-0.2303
-0.1683
-0.1726
-0.1619
0.004505
-0.2853
-0.4196
0.01059
-0.1877
0.1559
-0.1966
-0.03695
-0.2519
-0.05895
-0.2093
-0.3437
0.0004917
-0.168
-0.1613
0.191
-0.09093
-0.1616
-0.01019
-0.07265
0.005968
-0.2605
0.003273
-0.1169
-0.623
-0.1686
-3.701e-06
-0.3322
-0.03772
-0.1615
0.2583
-0.5057
-0.2345
0.03235
-0.1833
0.1776
-0.0006525
0.07721
-0.342
-0.1106
-0.1397
-0.267
-0.1936
-0.2314
-0.3992
0.1753
-0.1926
-0.2223
-0.01754
-0.1673
-0.2353
-0.0414
-0.07615
-0.1764
0.001742
0.002205
0.07929
-0.2928
-0.3124
0.01181
3.885e-05
0.171
0.2154
-0.1923
0.2393
-0.1885
-0.1999
0.0295
-0.0119
-0.001965
-0.1726
-0.2185
0.02896
0.0004825
-0.4173
-0.08488
-0.2553
-0.002671
-0.05301
0.01195
-0.193
-0.1674
-0.2564
1.429e-07
-0.1927
-0.245
0.2507
0.000242
-0.03039
-0.1627
0.006077
-0.05966
0.00876
-0.1335
-0.3725
0.008001
-0.2867
-0.05085
-0.1652
-0.3652
-0.3598
-0.06529
-0.05504
0.4869
-0.09848
-0.5665
-0.1617
-0.1666
-0.4002
-0.1043
0.0005384
0.007352
0.009235
0.4593
-0.03936
-0.3601
0.00141
0.005211
-0.08771
0.1858
-0.2829
0.00045
-0.001885
-0.17
-0.4387
-0.2957
-0.106
-0.1783
0.2369
-0.2492
0.2378
-0.3846
-0.2203
-0.4082
0.0004398
-0.4112
-0.3798
-0.01483
-0.3152
0.005725
2.365e-05
-0.3578
0.3191
-0.3814
-0.1632
-0.03854
-1.129e-05
-0.2031
-0.4047
0.06683
-0.4006
-0.009905
0.009865
-0.2124
0.04072
-0.3798
0.1544
-0.1618
-0.1629
-0.1871
-0.1843
-0.2418
-0.3728
-0.05137
-0.3701
0.03889
-0.4016
-0.1635
-0.2967
-0.002076
-0.03191
0.1354
0.3479
-1.923e-05
-0.002048
-0.1682
-0.06917
-0.007192
-0.387
0.3305
-0.2099
-0.3234
-0.1236
0.2718
0.05113
-0.0092
0.001063
-0.364
0.006865
-0.341
0.3466
0.194
-0.182
0.193
-0.1561
-0.1664
1.598e-05
-0.1531
-0.004197
0.02894
-0.1684
-0.03146
-0.3952
-0.2004
-1.111e-05
-0.07652
-0.1056
-0.1766
-0.172
-0.2798
-0.3844
-0.7302
-0.2369
0.3023
-0.1852
0.03946
-0.0775
-0.07698
-0.204
0.008743
-0.1657
0.1372
0.05404
0.02149
0.2187
-0.07774
-0.005351
-0.1649
-0.1846
-0.1922
8.963e-06
-0.1632
-0.225
-0.05808
-2.058e-05
-0.3698
-0.1706
-0.3396
-0.4008
-3.445e-05
-0.1931
-0.1614
-0.2555
-0.3063
0.01116
-0.3892
0.481
-0.01802
-0.007323
0.02303
-0.3728
-0.2118
0.07744
-0.03164
-0.05188
-0.2
2.175e-05
-0.193
-0.1891
-0.1448
-0.03407
-0.277
-0.1874
-0.1938
1.482e-05
-0.1965
-0.2123
-0.3822
-0.1656
-0.3811
-0.1688
-0.3229
-0.1713
0.03499
0.004459
-0.1615
-0.2284
-0.3654
-0.1748
-0.1886
-0.1875
-0.1978
-0.116
-0.001914
-0.1843
-0.05616
4.567e-05
-0.2029
-0.4907
-0.03596
0.1458
0.0003539
-0.249
-0.1655
-0.009448
0.0003478
-0.3139
-0.1911
-0.1786
-0.1858
-0.1926
-0.17
-0.04955
0.2631
-0.002206
-0.2026
-0.1877
-0.1504
-0.129
0.2629
0.000237
-0.01004
0.0113
-0.4193
-0.002282
-0.1445
0.3512
-0.05631
-0.04102
-0.0005727
-0.1686
-0.06193
0.0002551
-0.06274
-0.001365
0.2858
0.494
-0.3866
-0.3957
-0.1683
0.006614
-0.2621
0.1598
-0.1177
-0.1635
-0.05124
-0.609
-0.2767
0.004692
0.2068
-0.03227
0.001597
-0.2901
0.1107
-0.4495
-0.1635
-0.03308
0.0002549
-0.07227
-0.1725
0.03363
-0.4091
-0.4266
0.5007
-0.4365
-0.4355
-0.284
-0.1761
-0.1784
-0.1451
-0.005704
-0.04236
3.326e-06
2.786e-06
-0.359
-0.04734
-0.3912
-0.1512
0.3041
-0.0756
-0.04309
-0.5371
0.02632
-0.01022
-0.1837
-0.1906
-0.04192
-0.2978
-0.1848
-0.169
0.009409
0.5001
-0.3034
-0.1849
0.008867
-0.3971
0.02872
-0.002823
-0.2814
-0.2313
-0.1917
-0.0005517
0.0002169
-0.1797
-0.1705
0.1445
-0.1849
-0.2184
0.2311
0.01899
-0.1621
-0.4084
2.029e-09
0.3295
-0.2629
1.305e-05
0.2137
-0.1619
-0.2276
-0.4239
-0.1333
-0.02483
-0.1613
-0.1229
-0.08634
-0.01093
0.005299
0.0005776
0.2655
-0.1925
-0.2965
0.1444
0.2
-0.1583
-0.198
0.1997
-0.115
-0.4117
-0.005469
-0.189
-0.1654
-0.3234
-0.2417
-0.2171
0.007285
0.02001
-0.1774
0.06409
-0.1791
-0.05376
-0.1813
-0.1831
-0.3751
-0.4156
-0.406
-0.0462
-0.3829
-0.142
-0.2229
-0.05725
-0.1877
-0.06764
-0.1887
-0.1652
-0.1613
-0.2161
-0.005257
-0.003908
-0.193
-0.1818
-0.01446
0.0003313
0.2597
-0.2488
-0.0951
-0.1863
-0.3628
-0.2059
-0.3101
0.002344
0.004579
-0.1107
0.167
-0.1343
-0.1677
0.2402
-0.2808
-0.3522
-0.1009
-0.1146
-0.1843
0.2515
-0.07129
-0.1884
0.2145
-0.005291
-0.1986
-0.1612
-0.1884
-0.3699
0.4986
-0.0005752
-0.2712
0.0002842
-0.0001398
-0.0022
-0.3962
-0.2818
-0.1616
-0.1648
-0.04093
0.1644
-0.1933
-0.002291
-0.03908
0.005456
-0.195
-0.1693
-0.1938
0.01635
-0.1613
-0.1911
-0.000348
-0.05284
-0.1716
0.004498
-0.3785
-0.0001305
0.008071
-0.04643
0.01663
-0.4051
0.004567
-0.06181
-0.002697
-0.5087
0.00814
-0.1837
-0.06397
3.381e-05
-0.04065
-0.2101
-0.07169
0.0008692
-0.003623
-0.3254
-0.01167
-0.1868
-0.1969
-0.1535
-0.196
-0.2046
-0.3643
0.0636
-0.419
-0.08115
-0.05606
0.04963
-0.1888
-0.001605
-0.3325
-0.1634
-0.0186
-0.0001591
0.3932
-0.2363
-0.09465
0.06814
-0.3874
-0.04951
-0.3147
-0.2361
-0.09445
-0.1673
0.06437
-0.1637
-0.0003002
-0.1241
-0.3408
0.007488
-0.3181
-0.4032
-0.0001753
0.02598
-0.1621
-0.01275
0.03486
-0.3043
-0.1683
-0.01261
-3.333e-05
-0.291
-0.226
-0.01028
-0.0009935
-0.06078
-0.2453
-0.2626
-0.01396
-0.04322
-0.1612
-0.1611
0.01209
-0.03156
-0.2009
-0.146
0.0001997
-0.08705
-0.003414
-0.211
0.3014
-0.3474
0.06773
-0.1626
-0.3658
0.002869
-0.1625
-0.2048
-0.2291
-0.1048
-0.5041
-0.2255
-0.1756
-0.1262
-0.04739
0.1134
-0.1556
-0.1812
-0.1471
0.01288
-0.04057
0.3696
-0.1669
-0.1836
-0.02197
-0.1951
-0.3988
-0.05652
-0.08343
-0.2197
-0.1885
-0.063
0.01471
-0.03757
-0.02591
4.899e-06
-0.00415
-0.3467
-0.1593
-0.1903
-0.0003158
-0.3154
-0.183
0.006065
-0.4439
-0.04852
-0.3914
-0.1666
0.0874
-0.1843
-0.1619
-0.1798
-0.1874
-0.1959
-0.05829
-0.4034
-0.04073
-0.1083
0.2269
-0.3623
-0.05119
-0.1368
-0.3666
-0.2146
0.04266
-0.1331
-0.1825
-0.1615
-0.1838
-0.02365
-0.1761
-0.2296
-0.3202
-0.02565
-0.1886
-0.0449
-0.4212
-0.2238
-0.1872
-0.1953
-0.002872
-0.1923
-0.3891
-0.3279
-0.1882
0.02875
-0.1119
0.002592
-0.003208
-0.1614
-0.2983
-0.03296
-0.4066
-0.1894
-0.1815
-0.01984
-0.1778
-0.1911
-0.4473
-0.3323
0.00912
-0.2627
0.006155
-0.4195
0.0114
-0.1886
0.004459
0.05231
0.0002146
3.186e-05
-0.1644
-0.1699
-0.187
-0.178
-0.0002967
-0.0003081
-0.307
-0.2369
-0.2223
-0.4147
-0.05952
-0.06866
0.07055
-0.06029
-0.1779
-0.1981
6.587e-05
-0.1543
-0.2076
0.04727
-0.04167
-0.3447
-0.2085
-0.1989
-0.1256
-0.3197
0.2918
-0.1955
-0.2696
-0.1835
-0.2186
-0.09742
-0.03259
0.207
-0.2248
-0.1617
0.002076
-0.1052
-0.657
0.0001489
-0.4641
-0.01717
-0.1908
-0.02478
-0.003439
0.1078
-0.1537
-0.0003286
-0.1386
-0.2068
-0.09295
0.4777
0.007943
-0.07067
-0.1627
0.05869
-0.1975
-0.3622
0.1537
0.04076
-0.167
-0.5846
-0.4235
-0.2107
-0.004784
-0.4155
-0.1863
-0.128
-0.5311
-0.1868
-0.2036
-0.003309
-0.0351
-0.1936
0.002679
-0.1829
-0.0001567
-0.6964
-0.1799
-0.1638
-0.1897
-0.3934
-0.4393
-0.2968
-0.115
0.1047
-0.4383
-0.2395
-0.2066
-0.3758
-0.2979
-0.1862
-0.001403
-0.168
-0.002821
-0.2068
0.004884
-0.1733
-0.003688
-0.4208
-0.1828
-0.0002441
0.008202
-0.1648
-0.1982
-0.2236
0.01875
-4.206e-05
0.2277
-0.2588
0.07
-0.1619
-0.2086
-0.1664
-0.04736
-0.07609
-0.06318
-0.01316
-0.1676
-0.1777
-0.1547
-0.1682
-0.1901
-0.4009
-0.3798
-0.4004
-0.1859
0.004197
-0.4372
-0.2564
0.1758
0.004127
-0.04684
0.1657
-0.049
-0.1736
6.95e-05
7.388e-05
-0.1149
-0.1953
0.01353
-0.1949
-0.05529
0.02033
0.3367
0.0003127
-0.04559
0.1126
-0.3936
-0.01371
-0.2503
-0.1015
-0.4029
-0.2466
-0.002053
-0.05106
-0.1981
-0.0201
-0.1637
-0.1629
-0.02957
-0.3852
-0.01365
0.04228
0.00445
-0.0653
-0.1643
-0.4054
-0.1022
-0.003632
-0.1831
0.13
-0.04926
0.4377
-0.01524
-0.2301
-0.2049
-0.1612
6.916e-05
-0.5409
-0.2696
-0.1673
-0.1565
-0.1834
-0.1783
-0.00554
-0.4087
-0.1656
-0.2189
-0.1511
-0.2844
-0.1644
-0.04064
-0.4068
-0.166
0.3306
0.01748
0.3531
-0.2463
-0.1069
-5.941e-05
5.557e-05
-0.07953
-0.3711
-0.5469
-0.4554
-0.09501
-0.1401
-0.4364
-0.001661
-0.1865
-0.03519
-0.01077
-0.004537
-0.1858
-0.0006157
0.1361
-0.00484
-0.5525
0.05917
0.2888
-0.4145
-0.1352
-0.0002273
0.5013
-0.2219
0.05017
-0.2223
-0.2974
0.004243
-0.3327
-0.1936
-0.219
-0.1637
-0.1613
-0.1974
-0.6161
0.1276
-0.02107
-0.0004924
-0.1784
-0.0002824
3.683e-05
0.03144
-0.1614
-0.0005142
-0.152
0.0003238
-0.3629
-0.3949
-0.253
-0.009918
0.000935
-0.1902
-0.2876
-0.1675
-0.1551
-0.04751
0.07906
-0.003404
-0.001351
-0.3937
0.5017
0.07779
-0.04483
-0.04168
-0.1889
-0.01555
0.06945
-7.435e-05
0.1178
-0.2005
-0.1165
-0.0451
0.1976
0.0278
-0.3889
0.0028
-0.1038
0.1599
-0.1676
0.2234
0.02814
-0.2587
-0.002075
-0.3884
-0.09694
-0.192
-0.04675
-0.04817
-0.201
-0.01032
0.1732
-0.3702
-0.3935
-0.4715
-0.166
0.0001443
-0.2366
-0.007844
-0.41
0.006021
-0.4052
0.006344
-0.1653
-0.003964
-0.06038
-0.1971
-0.002566
-0.1906
-0.1069
0.23
-0.2688
-0.003241
-0.08598
-0.002455
0.0665
0.2845
-0.01034
-0.1818
-0.02629
-0.01068
-0.3989
-0.1662
0.4011
0.2291
-0.1727
-0.06413
-0.3452
-0.4039
0.4709
-0.08578
-0.2593
0.202
0.01454
-0.04972
-0.2414
0.2693
-0.06498
0.03866
-0.0008931
-0.1614
-0.1841
-0.3783
-0.1906
-0.01266
-0.1886
-0.06917
-0.04398
-0.0005275
-0.06837
-0.01707
-0.04442
-0.06837
0.01032
-0.3711
0.001716
-0.2298
-0.03513
-0.2402
0.2903
-0.004178
-0.01582
0.005361
-0.05401
0.2951
0.2272
-0.426
0.03293
-0.09929
-0.05665
-0.005933
0.02231
-0.1642
0.0001709
-0.403
0.04889
0.0421
0.2943
-0.03259
-0.1719
0.0003532
-0.2903
-0.3749
-0.0003169
0.1238
-0.4486
-0.2435
7.142e-05
-0.1892
-0.1452
-0.2134
-0.4209
-0.189
-0.08507
-0.2442
0.0001245
-0.0004428
-0.1639
-0.03638
-0.3785
0.3085
-0.1762
-0.1444
-0.3471
0.03738
-0.4082
-0.1684
-0.568
-0.1668
-0.1635
-0.3199
-0.09126
-0.1842
-0.08121
-0.1715
-0.2442
-0.165
-0.1625
0.2373
-0.1941
-0.2154
-0.05602
0.01246
-0.5956
-0.08032
-0.2216
-0.2297
-0.1152
-0.001456
-0.1671
-0.1865
-0.0002214
0.08106
-0.04584
-0.3604
-0.3985
-0.2231
-0.01388
0.01211
0.005525
-0.2983
-0.1614
-0.2975
-0.03559
-0.07362
1.357e-05
-0.4432
0.5002
-0.06268
7.164e-06
-0.1882
-0.1876
-0.09675
-0.3636
-0.1706
-0.09023
-0.0003198
0.3152
-0.02553
-0.001817
-0.1759
-0.01314
-0.08653
-0.5931
-0.1069
-0.164
-0.7229
-0.1835
-0.05288
0.0002992
0.009689
0.1472
-0.1818
-0.105
-0.1694
-0.08499
-0.1792
-0.0981
-5.059e-05
0.009222
-0.1226
-0.5409
-0.1871
-0.3269
0.06059
0.1784
0.01051
0.039
-0.406
-0.01298
0.0062
-0.07046
-0.09436
-0.07294
-0.1733
0.005726
0.06909
-0.3397
0.1203
-0.205
-0.1613
-0.03476
-0.0219
-0.1254
-0.1945
-0.1637
-0.1847
-0.05272
-0.1401
-0.1678
-0.1302
-0.08887
-2.395e-05
-0.07142
-0.1653
-0.1852
-0.003238
0.005125
-0.2111
-0.03772
-0.1726
-0.02004
-0.1424
0.4767
0.003994
-0.09472
-0.1814
-0.1795
-0.05987
-0.2465
0.01442
-0.3919
-0.255
-0.03697
-0.381
-0.0008245
-0.1655
-0.1806
-0.04969
-0.1466
-0.04044
-0.3011
0.01683
-0.09179
-0.339
-0.2437
-0.0958
-0.1613
-0.1006
-0.1897
-0.194
-0.2004
-0.3297
-0.1772
0.3713
-0.1926
-0.01206
-0.1707
-0.1798
-0.04076
-0.01396
0.0003446
-0.2776
-0.2021
-0.3948
1.195e-05
-0.1832
-0.1685
-0.1738
-0.1772
-0.3207
-0.1625
-0.2198
-0.04578
-0.002337
-0.1886
-0.0008035
-0.1821
0.06436
-0.04462
-0.2135
0.002462
-0.0423
-0.1333
-0.1624
-0.003769
-0.0347
-0.1767
-0.08219
-0.4188
0.009181
-0.3801
-0.1725
0.04964
-0.11
-0.2037
-0.4036
-0.3609
-0.05721
-0.07827
-0.1583
-0.1946
-0.6249
-0.1201
-0.2025
-0.01371
0.01062
-0.0005127
0.1688
-0.1251
-0.4296
0.006592
-0.2524
-0.1916
-0.6072
-0.2071
-0.004203
-6.124e-06
-2.811e-07
-0.08023
-0.3455
-0.1671
0.4544
0.08711
-0.2465
-0.05625
0.002523
-0.0891
0.02591
-0.03999
-0.1678
-0.1064
-0.08499
0.08954
-1.658e-05
-0.05671
0.08827
-0.00367
0.1003
-0.2773
0.4055
-0.1648
-0.3909
-0.1206
-0.3406
-0.284
-0.008689
-0.4109
-0.1853
1.679e-05
-1.598e-07
-0.1947
-0.1802
-0.1368
0.2384
0.2456
-0.3852
0.0004934
-0.003791
0.2497
-0.00283
-0.2565
0.05624
-0.4242
-0.01039
0.04716
0.01287
0.3834
-0.4999
5.42e-05
-0.05844
-0.03208
-0.04636
-0.1749
0.1719
-0.2656
-0.3652
-0.3288
-0.1919
-0.06735
-0.1939
0.1864
0.01027
-0.2734
-0.1632
-0.7127
-0.1722
-0.1684
-0.19
0.263
0.2383
0.0007804
-0.03459
-0.04113
-0.4019
-0.02639
-0.1814
0.001701
-0.0497
-0.1874
-0.03516
-0.2192
0.08126
-0.2283
0.2165
-0.1284
-0.323
-0.05024
-0.125
-0.4222
-0.000339
-0.1745
-0.1386
-0.4057
-0.2145
-0.1966
-0.09354
0.005484
0.005082
-0.3297
-0.1061
-0.03746
-0.1626
-0.1759
-0.1882
-0.4123
4.588e-06
-0.3549
-0.03624
-0.1693
0.2784
-0.07676
0.03567
-0.1835
-0.03996
0.1983
-0.06793
-0.314
-0.1806
-0.1615
0.003387
-0.1875
-0.1514
-0.1767
-0.4858
-0.09208
-0.187
-0.3917
0.01326
0.007223
0.2671
0.2438
0.2927
-0.3755
-0.3965
-0.09293
0.1691
-0.4419
-0.2867
0.427
-0.1612
-0.1858
-0.1728
-0.1911
8.47e-05
-0.2317
0.01037
0.001933
-0.4247
-0.02002
-0.1834
0.06844
-0.2642
-0.3257
-0.06701
-0.4036
-0.2019
0.4383
-0.2192
-0.1723
-0.1698
-0.2639
-0.2124
-0.0003586
-0.1744
-0.2324
-0.187
-0.168
2.536e-05
-0.2204
-0.09657
-0.04073
-0.2405
-0.162
-0.5853
-0.1978
-0.2246
-0.2657
0.01997
-0.1829
0.004661
0.0309
-0.236
-0.1617
-0.3878
-0.399
-0.1483
-0.2064
-0.01342
-0.3497
-0.2274
-0.2267
-0.07026
-0.2789
0.465
-0.03863
0.192
-0.05261
-0.1905
-0.1066
-0.1626
-0.2108
-0.1888
0.1789
-0.1713
-0.3905
-0.05864
0.2325
0.002681
-0.4172
-0.3374
-0.1846
-0.03652
-0.05218
-0.3134
-0.4436
-0.2944
-0.3483
-0.6368
0.004392
-0.1649
-0.1989
-0.1099
0.07759
0.09162
-0.0128
-0.3061
-0.2258
0.07035
-0.5479
0.1111
-0.3747
-0.4239
-0.1993
-0.07497
-3.585e-05
2.672e-05
-0.1074
-0.3723
0.09695
-0.4209
-0.1158
0.003528
-0.3971
0.006604
-0.3662
0.008137
-0.01287
-0.3937
-0.3415
-0.1109
-0.5174
0.05593
-0.001087
-0.1079
-0.1811
0.01155
-0.01469
-0.1339
-3.273e-05
-0.02546
-0.1982
-0.1993
-0.172
-2.147e-05
-9.999e-06
-5.204e-06
-1.192e-05
-0.04043
-0.168
0.0001886
0.2155
-0.04919
-0.1728
-0.2872
-0.4125
1.178e-05
-0.2866
-0.1867
-0.1615
-0.4002
-0.1612
-0.1637
-0.06533
-0.05361
-0.354
-0.1216
-0.0399
-0.06326
0.3944
0.04215
-0.0799
0.3731
0.2865
-0.003875
-0.1752
-0.2221
0.02219
-0.08924
0.0719
0.217
-0.003647
-0.1856
-0.3972
-0.0004948
-0.3859
-0.1923
-0.268
-0.1693
-0.1669
-0.11
-0.1998
0.0004449
0.2532
-0.1577
-0.1906
-0.1888
0.219
0.005111
-0.01424
-0.2514
-0.1619
-0.2203
-0.01893
-0.2601
-0.4026
-0.03073
0.4674
-0.05329
-0.2391
-0.1836
-0.167
-0.1972
-0.05541
-0.1415
-0.1161
0.00937
0.1879
-0.006824
0.004082
-0.2345
0.000516
0.4425
-0.2008
-0.121
-0.1919
-0.01059
0.005313
-0.0588
-0.1669
-0.03233
-0.1804
-6.281e-05
0.03003
-0.727
-0.4039
0.004531
-0.4159
-0.4011
-0.1558
0.0001652
-0.2211
-0.2873
-0.009139
-0.03117
-0.2073
-0.4478
-0.7
0.1143
-0.06592
-0.1615
-0.002107
-0.01852
-0.4026
-0.1245
-0.003802
-0.06218
-0.6338
-0.1393
0.02641
-0.06574
-0.3961
-0.1474
-0.04522
-0.1954
-0.004166
-0.2543
-0.4196
-0.1897
-0.2734
0.02594
-0.2012
-0.1653
0.2017
0.004506
0.005804
-0.1326
-0.3023
-0.1885
-0.1615
-0.3884
-0.05014
-0.1918
-0.3553
-0.1731
-0.1926
0.0001056
-0.3982
-0.3938
-0.02842
-0.196
0.2616
-0.1153
0.4949
-0.1905
-0.4096
-0.1555
-0.1037
-0.02183
0.2478
0.05285
-0.0564
0.2271
0.006113
-0.7447
0.001406
-0.1944
-0.3516
-0.1661
-0.166
-0.5122
-0.1838
0.3547
-1.743e-05
0.4835
-0.405
0.0002007
-0.1922
-0.1726
0.394
-0.07833
-0.1783
-0.2275
0.02407
-0.1556
-0.2831
0.176
-0.05485
-0.4155
0.00104
-0.1931
-0.06237
-0.1629
-0.1141
-0.1722
-0.1672
-0.07011
-0.03775
0.02933
0.009606
-0.002034
-0.06699
0.1156
-0.02941
-0.1889
0.005459
-0.1779
-0.03594
-0.3538
-0.3872
-0.1906
-0.0002217
0.01288
-0.06596
-0.0317
-0.4241
-0.1867
-0.1873
4.689e-06
-0.07119
-0.01929
5.762e-06
-0.2071
0.04442
-0.002927
-0.2699
-0.1717
-0.1683
-0.1932
-0.07802
0.09937
-0.09905
-0.1883
-0.3904
-0.2033
-0.2094
-0.2943
-0.1879
0.0793
-0.02821
-0.181
-0.1572
0.03058
0.159
-0.1684
-0.1205
-0.3469
2.967e-05
-0.03867
-0.1426
0.003708
-0.03514
0.1276
-0.2241
-0.4157
-0.09676
-0.1813
0.2147
-0.1776
-0.162
0.0003145
-0.2352
0.08776
-0.1072
0.1064
0.00242
0.3341
-0.219
-0.1922
-0.1999
-0.2363
-0.357
0.1314
-0.2563
-0.1916
-0.4015
-0.1739
-0.4358
-0.3519
3.931e-05
-0.1796
-0.1545
0.0005842
-0.03984
-0.1041
1.062e-05
-0.4083
-0.2704
-0.02734
-0.0004714
-0.07469
-0.0002274
-0.2054
-0.03213
0.01695
-0.1649
0.2087
-0.03985
-0.003379
0.1595
-0.007633
-0.09585
-0.205
-0.2611
-0.0571
-0.2586
-0.06848
-0.2062
-0.5028
0.108
0.0003355
-0.2111
-0.1968
0.000674
-0.02003
0.005754
-0.1566
-0.2547
-0.4678
-0.1914
-0.001093
-0.2566
-0.09558
-0.4081
-0.1638
-0.4045
-0.1687
-0.007368
-0.2596
-0.03366
0.02475
-0.3751
-0.1478
-0.03827
-0.3468
-0.02105
0.368
-0.4097
0.0004588
1.454e-05
-0.0237
-0.06562
0.3213
-0.1614
-0.2229
0.01083
-0.06282
0.2599
-0.06326
-0.003437
-0.1588
-0.1839
-0.08195
-0.0004424
0.4355
-0.3882
-0.07667
-1.141e-05
-0.0575
-0.2091
0.03318
-0.0892
0.02281
0.08409
-0.2044
-0.3435
0.0004202
-0.1666
-0.1821
-0.402
-0.1878
-0.3911
-0.08147
-0.1933
0.01614
-0.4853
-0.005813
-0.255
-0.02486
-0.4283
0.293
0.003976
-0.4153
-0.3679
-0.2228
-0.2773
-0.05278
-0.4413
-0.09693
-0.1386
-0.1616
-0.1806
-0.1631
-0.3535
3.526e-05
0.3071
-0.02372
-0.1536
-0.1637
-0.4093
0.1737
0.02103
-0.005922
0.04226
-0.07295
2.288e-05
-0.6148
-0.2456
0.005087
-0.02403
-0.1073
-0.1409
0.003286
-0.1897
-0.1725
-0.06402
0.04058
-0.3918
-0.6674
-0.3758
-0.4132
-0.06468
-0.1668
-0.3329
0.001479
-0.2315
-0.3555
-0.2424
-0.002522
-0.101
-0.196
-0.1766
-0.1902
-0.4415
0.1741
-0.1804
-0.2387
-0.1694
-0.215
0.2528
-0.1914
0.04481
-0.01914
0.02636
-0.165
-0.004024
-0.4086
-0.1508
0.005171
-0.3436
-0.208
0.2066
-0.03766
-0.3965
-0.03198
-0.2029
0.1427
-0.01297
0.009003
-0.183
-0.1638
-0.0001417
-0.3313
0.05193
0.2278
-0.1738
-0.221
-0.1208
-0.05906
-0.1902
-0.4015
0.003305
-0.206
-0.3747
-0.6853
-0.07676
-0.1708
-0.4334
-0.3715
-0.3474
0.01633
-0.1854
-0.2408
-0.0003883
0.001305
-0.2041
-0.1394
-0.002835
0.1566
-0.1057
0.1099
-0.1898
-0.3994
-0.2524
5.484e-07
0.1546
-0.003531
0.01685
1.37e-06
-0.2151
-0.168
-0.189
-0.2508
-0.3902
-0.1817
-0.1714
0.0004056
-0.2743
-0.174
0.5005
-0.4093
-0.07428
-0.1671
-0.08356
-0.003393
-0.1656
-0.269
-0.0848
-0.08984
-0.1641
-0.2826
2.351e-05
0.005251
-0.08708
-0.1698
-0.1811
-0.5339
-0.003407
-0.1658
-0.225
-0.146
0.002186
0.03602
-0.07291
0.07633
-0.2012
-0.2355
0.4298
0.0001123
0.07683
4.737e-06
-0.3139
0.06991
0.00808
-0.1707
-0.2082
-0.1623
-0.1768
-0.1657
0.0422
0.0004133
-0.373
-0.01325
-0.007767
-0.3907
-0.4253
-0.2214
0.0003463
-0.02969
-0.1621
0.03544
0.2648
-0.1976
-0.003061
-0.5522
0.02841
-0.1627
0.01506
-0.002157
-0.008918
-0.002293
-0.3699
-0.2236
-0.07156
-0.02428
-0.1675
0.01611
-0.1734
0.0273
0.005268
0.00595
-0.3816
-0.1861
-0.1812
0.01148
-0.3348
-0.1617
-0.3914
0.1203
-0.1922
-0.0538
-0.2335
0.1448
-0.1302
-0.3687
-0.07824
-0.1704
-0.2459
0.08167
-5.582e-06
-0.2754
0.01313
-0.3606
-0.236
-0.3977
-0.386
-0.3886
-0.0005346
0.154
-0.2791
8.574e-05
-0.4626
-0.003651
-0.191
-0.3187
0.000647
-0.405
0.2727
0.0007226
0.06219
-0.1876
-0.1538
0.03118
0.2048
-0.03344
-0.08221
-0.004852
-0.1361
-0.1876
-0.006702
0.205
-0.2123
-0.07771
-0.1315
-0.06064
-0.3686
-0.242
-0.162
0.3456
0.008838
-0.08839
0.1912
-0.0823
-0.2771
0.002503
-0.1798
-0.09759
-0.1195
-0.1631
-0.2109
-0.3975
0.0001375
-0.04156
-0.1995
-0.2416
-0.03993
-0.0314
-0.01175
-0.2023
0.2478
0.246
-0.1907
0.1277
-0.1878
-0.08334
-0.3874
0.000108
-0.0007897
-0.2022
-0.0001386
-0.1878
0.0002851
-0.121
-0.1751
-0.2423
-0.1164
-0.2746
-0.313
-0.0009231
-0.001943
-0.05716
-0.09
-0.1383
-0.4184
-0.1919
-0.01861
0.2776
-0.3935
0.1054
-0.3722
-0.1403
-0.02566
-0.3859
-0.1169
-0.01219
0.02389
-0.1051
-0.09012
-0.2186
-0.1685
-0.08796
0.0045
-0.1685
-0.08818
-0.004084
-0.1627
-0.01629
0.001599
-0.1616
-0.003851
-0.1695
-0.00706
-0.3835
-0.3066
3.274e-05
-0.3457
-0.3973
-0.1625
-0.1848
-0.1884
0.001599
-0.4032
0.0003395
-0.1216
-0.3434
0.4463
0.002097
-0.1571
-0.1612
0.001334
-0.004339
0.002426
0.058
-0.0196
-0.06569
-0.4104
-0.04701
-0.2774
-0.1827
0.01789
-0.504
-0.1256
-0.1663
-0.191
0.004545
0.06947
0.08953
-0.403
-0.04053
-0.2425
0.001684
0.455
-0.3968
-0.04912
-0.1935
-0.3943
-0.1612
-0.005214
-0.004237
-0.02005
-0.5608
-0.04826
-0.1846
-0.1975
0.0278
-0.063
-0.009905
4.778e-06
0.2945
-0.3183
-0.09761
-0.4237
-0.2243
0.002786
-0.08733
-0.1211
-0.1694
-0.1793
-0.04235
0.08812
-0.3869
-0.01895
-0.03635
-0.06588
-0.138
-0.1808
-6.351e-05
-0.1676
0.1011
-0.122
0.01025
-0.1744
-0.0711
-0.04993
-0.1823
-0.4998
-0.326
0.4437
-0.2006
0.1169
-0.3497
-0.08599
-0.4021
-0.09719
-0.1878
-0.2651
0.1234
0.008087
-0.2658
-0.5094
0.02009
-0.3305
-0.3955
-0.2391
-0.1788
-0.07738
-0.0086
-0.00736
-0.2922
-0.1924
-0.167
-0.1714
-0.1972
0.1564
-0.09889
-0.1937
-0.2139
-0.3372
0.2222
-0.08631
-0.09206
-0.0002113
-0.3289
-0.2781
-0.2912
-0.2274
-0.08549
-0.3333
-0.1344
0.00271
-0.4042
0.03325
-0.2814
-0.2642
-0.02746
-0.04346
-0.2164
-0.04084
-0.1657
-0.1864
-0.1283
-0.04705
-0.1875
-0.08514
-0.03371
-0.1613
0.1166
-0.2985
-0.182
-0.205
-0.1249
-0.5196
0.01036
-0.01938
-0.003577
-0.1886
-0.08173
-0.1613
-0.07103
0.2206
-0.1818
0.1208
-0.1799
-0.0006342
-0.2143
-0.1139
-0.1652
-0.08024
0.433
-0.04911
-0.1912
0.001065
-0.3682
-0.1814
-0.178
-0.2403
-0.002575
0.002094
-0.3111
-0.1864
0.04344
0.01864
-0.06164
-0.0007946
0.006426
-0.09158
0.02611
0.0549
-0.1279
-0.0006199
0.05485
-0.1841
-0.4541
-0.4065
0.01809
0.2279
-0.06708
-0.1082
-0.08027
-0.2534
-0.3499
0.0814
0.1545
-0.03151
-0.1951
-0.1612
0.005231
0.0432
-0.1643
-0.5004
-0.00366
-0.1913
0.002155
-0.2735
-0.2832
0.0769
-0.3941
-0.1477
0.4922
-0.03795
-0.1158
0.4481
-0.2028
0.06405
-0.09667
-0.1964
-0.2984
-0.05447
-0.3586
-0.1791
0.04723
-0.0002788
-0.2331
-0.07775
-0.09358
-0.1317
0.01377
0.07963
-0.1637
0.009734
-0.0316
-0.05016
-0.1896
2.561e-05
-1.013e-05
0.000333
-0.08893
-0.5452
-0.2572
-0.3616
-0.3739
2.826e-05
-0.003783
-0.03572
-0.1533
-0.0577
-0.4505
-0.4027
-0.1793
-0.5173
-0.1879
-0.2202
0.3265
-0.189
-0.3138
-0.1984
-0.09217
-0.1869
0.01657
-0.1857
-0.1081
-0.1744
-0.3967
0.118
-0.2375
-0.2223
-0.1783
0.004787
-0.4264
-0.2726
0.04024
-0.1733
-0.002409
-0.02959
-0.05954
-0.06818
-0.1922
0.1752
-0.4095
-0.1975
0.003356
-0.04863
-0.2401
-0.2237
0.0003548
-0.05519
0.0007848
-0.09984
-0.282
-0.1884
-0.1621
-0.3808
-0.3744
0.0004631
-0.4264
0.3197
-0.135
-0.001691
0.007587
0.005923
-1.392e-05
-0.1639
0.01254
-0.4005
-0.1876
-0.1617
0.003589
-0.4089
-0.1644
-0.1414
-0.04342
-0.06929
-0.207
-0.178
-0.01181
-0.1432
-0.2935
-0.1643
-0.0194
-0.1821
-0.3246
0.01036
-0.1772
-0.1871
-0.1615
0.3712
-0.001839
-0.1695
0.04204
-0.1821
-0.01722
-0.2022
-0.2784
-0.05445
-0.003306
-0.1229
0.3375
-0.145
0.002311
-0.04468
-0.174
-3.267e-06
-0.04427
-0.06024
-0.378
0.005121
0.00444
-0.1827
-0.00822
-0.0001419
-0.004475
-0.1869
-0.04442
-0.09398
-0.2332
-0.08856
-0.118
-0.111
0.001773
-0.2028
0.00755
-0.01786
0.01035
-0.1085
-0.09501
0.0612
-0.1826
-0.2952
-0.1854
-0.2385
-0.1593
0.05277
-0.1654
-0.2811
-0.2339
-0.2548
-0.1745
-0.003319
-0.4021
-0.2071
0.02448
0.4055
-0.06533
-0.08298
-0.2048
-0.04701
-0.05486
0.08356
-0.1645
-0.4462
-0.352
0.01277
0.08217
6.976e-05
-0.1808
-0.2134
-0.3636
-0.4172
-0.1702
-0.1812
1.915e-05
0.05376
-0.3987
-0.0958
-0.009602
-0.07985
-0.2005
-0.3135
-0.296
0.4637
0.1744
0.1443
0.2549
-0.1481
-6.749e-07
-0.1623
-0.2567
-0.1935
-0.04524
-0.1369
-0.02
-0.1835
-0.2263
0.01498
-0.4139
-0.07141
-0.07034
-0.3913
-0.08318
0.2214
0.002217
0.1132
-0.1369
-0.1771
-0.3452
-0.2828
-0.01993
-0.187
-0.1816
-0.1064
-0.02757
-0.05185
-0.0327
-0.002593
-0.166
-0.4193
-0.1873
0.1031
-0.502
0.001736
-0.004792
-0.2541
0.003198
0.0006753
-0.4188
2.214e-05
-1.517e-05
0.08736
-0.0001296
-0.2003
-0.1666
-0.1362
-0.2147
-0.02145
0.001419
0.005047
-0.3147
-0.07578
0.2463
-0.08521
-0.2477
0.0007323
-0.178
-0.3867
-0.1353
-0.1618
0.003068
0.009069
-0.4197
-0.003422
0.001944
-0.165
-0.03778
0.00101
0.008932
-0.3694
-0.002606
-0.001905
0.004147
-0.1701
-0.07625
-0.1867
-0.1852
0.07736
-0.1155
-0.2015
-0.1748
-0.02556
-0.1693
-0.08815
-0.2892
-0.001764
-0.01792
-0.2421
-0.417
-0.0001151
-0.1644
-0.1798
-0.2671
-0.1689
-0.01242
-0.1893
-0.0503
-0.0153
-0.1617
0.004716
-0.7311
0.02088
0.1063
0.004386
-0.425
0.008787
-0.06845
-0.01103
-0.1613
-0.1744
-0.1639
-0.2046
0.0001868
-0.7015
7.155e-05
-0.1625
-0.3555
-0.188
0.01484
-0.0001138
-0.4769
0.005731
-0.08519
-0.1925
-0.3739
0.03929
0.01728
0.4875
-0.003528
-0.1651
-0.3024
-0.3868
-0.1884
0.3461
-0.3174
-0.6114
-0.09513
0.001613
-0.1952
0.3305
0.009951
0.003877
-0.4035
-0.1889
0.4082
-0.3944
0.4314
0.006547
-0.1219
0.006006
0.01329
0.005932
-0.4154
0.008706
-0.2389
-1.021e-05
-0.1993
0.0216
-0.3746
-0.1356
-0.4884
-0.03691
-0.2781
0.3093
-0.03877
-0.05562
-0.1721
0.005491
-0.1255
0.001136
-0.1871
0.1325
-0.003609
-0.09148
-0.4109
-0.1664
-0.07294
-0.2006
-0.09855
-0.004262
-0.3457
0.2407
-0.4199
-0.3787
-0.1612
-0.2088
-0.1975
-0.3735
-0.1908
-0.2564
-0.1619
-0.1503
0.0005269
-0.3638
-0.0002415
0.05167
0.103
-0.04886
-0.1639
-0.602
-0.1983
-0.1692
1.991e-05
-0.06184
-0.2123
-0.4291
-0.1933
-0.004386
-0.1955
-0.3528
-0.05815
-9.688e-05
-0.3896
-0.0605
-0.2071
-0.2955
-0.42
0.2552
0.3762
-0.1924
-0.3337
-0.3197
-0.1715
-0.1771
0.03762
-0.4104
0.214
0.009945
-0.1803
-0.1863
-0.1933
-0.2982
-0.4061
0.004823
0.2301
-0.3995
-0.1778
0.2054
0.2239
-0.1733
-0.3995
-0.0007992
-2.589e-05
-0.2802
-0.1869
-0.06134
0.005238
-0.2962
-0.1854
0.07524
0.004659
0.001479
-0.1005
-0.119
-0.1885
-0.4096
-0.2673
-0.2865
-0.1572
-0.1751
-0.3779
0.0396
-0.203
0.4415
-0.1676
-0.09739
-0.0665
-0.1881
-0.003322
-0.0001599
-0.1923
-0.1943
-0.1992
-0.2083
-0.1856
0.01256
-0.1656
-0.3864
-0.2491
0.04993
-0.68
-0.1636
-2.04e-05
-0.02201
0.03174
-0.02273
-0.1689
-0.278
0.007892
-0.4102
-0.4203
0.006063
-0.3738
0.005612
-0.1838
-0.1624
0.01716
-0.2096
-0.378
-0.1035
0.1019
-0.01755
-0.1085
-0.009598
-0.07209
-0.1773
-0.4577
-0.1776
-0.002295
0.01299
0.0003972