/*--------------------------------*- C++ -*----------------------------------*\
  =========                 |
  \\      /  F ield         | OpenFOAM: The Open Source CFD Toolbox
   \\    /   O peration     | Website:  https://openfoam.org
    \\  /    A nd           | Version:  8
     \\/     M anipulation  |
\*---------------------------------------------------------------------------*/
FoamFile
{
    version     2.0;
    format      ascii;
    class       surfaceScalarField;
    location    "40";
    object      phi;
}
// * * * * * * * * * * * * * * * * * * * * * * * * * * * * * * * * * * * * * //

dimensions      [0 3 -1 0 0 0 0];

internalField   nonuniform List<scalar> 
189008
(
6.634e-08
-6.634e-08
1.55e-08
-1.55e-08
1.118e-08
-1.118e-08
1.613e-08
-1.613e-08
-5.739e-07
5.739e-07
1.649e-08
-1.649e-08
7.178e-06
-7.178e-06
-1.74e-06
1.74e-06
-1.012e-06
1.012e-06
1.364e-06
-1.364e-06
1.07e-05
-1.07e-05
-3.087e-06
3.087e-06
-6.782e-09
6.782e-09
-1.819e-08
1.819e-08
-4.332e-05
2.442e-05
1.891e-05
5.982e-06
-6.81e-06
8.286e-07
-5.336e-08
5.336e-08
0.008577
-0.006086
-0.00249
-0.0007207
0.0003239
0.0003968
-4.981e-06
5.704e-06
-7.226e-07
0.0005417
-0.0004658
-7.593e-05
2.409e-07
-1.411e-07
-9.979e-08
-0.003309
0.01022
-0.006915
2.069e-05
0.0004968
-0.0005175
1.419e-07
9.898e-08
-0.0002692
0.0001512
0.000118
-1.954e-05
2.156e-05
-2.017e-06
-2.157e-05
2.034e-06
0.0001892
-0.000147
-4.218e-05
0.01035
-0.02109
0.01073
-4.44e-05
-0.0002015
0.0002459
-7.278e-05
-0.0001964
-4.18e-07
-8.391e-07
1.257e-06
-0.0001349
7.906e-05
5.586e-05
0.011
0.01095
-0.02194
-1.956e-06
1.538e-06
3.485e-05
0.0002303
-0.0002652
-0.001927
0.00264
-0.0007131
-4.649e-05
0.0005912
-0.0005447
-4.866e-05
5.631e-05
-7.653e-06
-0.0005627
-0.0001581
0.002065
-0.003889
0.001823
0.0006286
-0.004675
0.004046
1.949e-08
-1.949e-08
0.001878
0.006698
-7.367e-05
-6.124e-05
0.0001246
6.456e-05
-0.0003752
0.0003886
-1.338e-05
-0.0008235
0.0009936
-0.0001701
-2.915e-05
0.0004721
-0.0004429
2.083e-06
3.899e-06
-0.01435
-0.02997
0.04433
-4.543e-05
-5.085e-05
9.628e-05
-0.01342
0.01172
0.001698
1.082
-0.1283
-0.9542
0.0009698
-0.000779
-0.0001908
-0.1464
1.229
0.01193
-0.007404
-0.004523
-0.3126
0.0188
0.2938
-0.006025
-0.007397
-0.002415
0.000297
0.002118
-0.0001918
0.0004469
-0.0002551
-0.0002232
0.001855
-0.001632
-0.8101
0.9551
-0.145
-6.503e-05
0.0001584
-9.336e-05
-0.0003827
-0.003076
0.003459
-0.02936
0.02329
0.006077
0.002263
-0.001874
-0.0003886
0.0006268
0.001636
-1.278
0.4806
0.7976
-6.827e-05
-0.0003031
0.0003713
8.808e-06
1.275e-05
-0.0008929
-0.0003088
0.001202
-0.1158
-0.1968
-0.2737
0.5161
-0.2424
-9.007e-06
-1.257e-05
-0.05168
0.09208
-0.0404
-0.0003953
0.0003721
2.329e-05
0.0005118
0.000458
0.16
-0.6342
0.4742
-0.0001856
0.0001413
4.424e-05
-1.634e-06
-3.347e-06
0.0001121
0.00014
-0.0002521
1.009e-05
4.451e-05
-5.46e-05
8.932e-05
-0.0002697
0.0001804
-0.0002096
0.0003409
-0.0001313
-0.0006826
0.001301
-0.0006183
2.362e-05
-6.965e-06
-1.665e-05
-0.003102
0.00272
-0.0004413
0.0007854
-0.0003441
0.1849
-0.02073
-0.1641
-0.006292
-0.005483
0.01178
-0.0003013
0.0009898
-0.0006885
0.0002979
0.0002438
0.0003765
-0.0003865
9.991e-06
0.02725
0.01502
-0.04227
0.00344
-0.001375
0.0002521
-0.0002549
2.809e-06
-0.0002591
-4.989e-05
0.000309
-0.01935
-0.01001
0.6863
-0.5263
-7.837e-06
-0.0008156
-7.954e-05
-0.000273
0.0003526
0.00429
-0.005226
0.0009361
7.877e-05
-0.0002884
-0.0003439
8.477e-05
-0.001148
0.001649
-0.0005007
-1.001
-0.2775
-0.001178
0.0006026
0.0005756
-1.154
0.876
0.278
2.896e-06
-4.622e-05
1.696e-05
6.656e-06
-0.0004828
7.731e-05
0.0004055
0.0008127
-0.00119
0.0003772
-0.2122
0.0963
0.1159
0.0005822
0.002509
-0.003091
-0.107
0.05873
0.0483
0.1657
-0.4394
0.02335
-0.07503
3.741e-07
-2.988e-07
-7.536e-08
-1.253
0.09866
5.745e-05
0.0001123
-0.0001697
-0.0004148
-0.0007407
0.001155
0.01375
-0.01178
-0.001971
-0.0001226
-6.3e-05
0.0001931
-0.0001788
-1.435e-05
-0.000301
-0.0001544
0.0004554
0.08778
-0.1032
0.01539
-0.0003048
0.0001069
0.0001979
-0.0006569
0.0005312
0.0001257
0.0003025
-9.597e-05
-0.0002065
0.0003261
-0.0001251
-0.000201
-0.0003905
-0.001374
0.001764
-0.0001601
-0.0002352
1.269e-07
-9.695e-08
-2.997e-08
0.0003205
-1.801e-05
-0.005081
0.03604
-0.03096
-0.0001874
0.0003501
-0.0001627
-0.0001707
0.0001969
-2.617e-05
0.03324
-0.05494
0.0217
0.008938
0.0003684
-0.009307
-0.0483
-0.04196
0.09025
-9.908e-05
0.000152
-5.287e-05
-0.0002916
0.0001605
0.0001311
-0.0001011
5.562e-05
0.001546
-0.0006429
-0.0009026
-5.343e-05
-2.107e-05
7.45e-05
-0.02781
-0.7823
0.0004064
-8.03e-05
0.0002453
-0.0003619
0.0001166
0.002553
-0.00378
0.001227
0.001146
-0.0003134
-0.0008325
0.003449
-0.004653
0.001204
-0.008978
0.0004675
0.00851
0.0001094
-0.0002861
0.0001767
0.0002589
-0.0001696
0.007894
0.004034
0.000651
-0.0005323
-0.0001187
-6.838e-05
-0.0003068
0.0001128
-0.0002147
0.0001019
-0.0002694
0.0004965
-0.0002271
-3.414e-05
3.414e-05
0.1914
-0.006552
0.0003845
-0.0001203
-0.0002642
0.0001336
-0.0002834
0.0001498
5.897e-05
-0.000124
-0.000254
2.515e-05
0.0002288
4.259e-05
0.001621
-0.001664
-8.476e-05
7.942e-05
5.343e-06
-0.0423
0.03383
0.008472
2.596e-06
7.64e-06
-1.024e-05
-0.0001467
-0.0001449
-0.004531
0.001927
0.002605
-0.002719
0.0008842
0.001835
1.022
-1.196
0.1734
-8.226e-05
5.621e-05
2.605e-05
-0.000823
0.0004442
0.0003789
-0.000147
-0.0001578
-0.0004279
0.0008354
-0.0004075
0.1201
-0.1479
0.02786
-0.001782
-0.000937
-0.1213
-0.0031
0.1244
-3.408e-05
5.378e-05
-1.971e-05
-5.36e-05
-2.866e-05
-0.000274
-0.0003829
0.0002332
-0.000425
0.0008367
-0.007392
0.006555
-0.0001357
0.0009484
0.0005136
-0.0004929
-0.00493
0.08592
-0.08099
-1.006e-05
0.0001367
-0.0001267
-0.000143
-3.592e-05
0.0001789
-0.04362
0.03854
0.0008804
-0.00104
0.0001595
7.355e-08
8.806e-05
0.000369
-0.0004571
-1.471
1.199
0.2712
-1.463
1.193
0.27
1.359e-06
5.167e-08
-1.411e-06
-0.167
0.1325
0.0345
0.2047
-0.03803
-0.1666
-0.05853
0.04864
0.009889
0.02717
-0.06997
0.0428
0.0002255
-0.0001906
-4.516e-08
4.516e-08
0.0003334
-0.001136
0.0008023
0.02567
-0.007434
-0.01824
0.002791
-0.0006426
-0.002149
0.0363
-0.02595
-0.2087
-0.003512
0.001785
-0.02085
0.01907
-0.0002913
0.0002193
7.199e-05
-0.05951
0.2023
-0.1428
-3.693e-05
-4.783e-05
2.137e-06
-0.0001625
0.0001603
1.311e-06
-1.641e-06
3.297e-07
-1.211e-05
1.097e-05
1.142e-06
0.00354
-0.00213
-0.001411
-8.826e-05
0.0002963
-0.000208
0.02188
0.003795
-0.0007258
0.0002944
0.0004314
-0.471
0.2219
0.2492
0.001009
0.0001366
7.744e-05
-7.54e-05
-2.038e-06
0.0001046
5.912e-05
-0.0001637
-2.18e-05
1.792e-05
3.889e-06
-0.000235
0.0003686
0.0004742
-0.002401
6.012e-05
-6.18e-05
1.671e-06
0.0003377
-0.0003071
-3.056e-05
-0.0005024
0.0001454
0.000357
-0.04653
-0.07481
-0.001234
0.000341
-4.241e-07
5.186e-07
-9.444e-08
-0.0003019
-0.0002005
-0.02339
0.01843
0.00496
0.0001271
0.0002574
4.874e-07
-4.874e-07
0.2261
-0.02143
-0.0002263
4.698e-05
0.0001793
-0.0002563
0.0001133
-8.006e-05
0.000178
-9.796e-05
0.0002866
-0.0002007
-8.588e-05
0.0003264
0.0003246
0.00033
8.374e-05
-0.0004138
2.416e-07
1.325e-07
0.0009899
0.0004543
-0.001444
2.307e-05
-2.089e-05
-2.173e-06
2.989e-06
-2.989e-06
0.1971
-0.9682
0.7711
-0.0003389
-0.001972
0.002311
-6.833e-05
0.0001684
-0.0001001
0.002297
-0.001083
-0.001214
-0.0005171
0.0001613
0.0003558
-0.0001671
0.0007601
-0.000593
0.0006635
-0.0003985
-0.000265
0.1168
-0.02901
8.809e-05
-0.0002374
0.0001493
-0.0002274
0.001427
-0.001199
-0.009129
-0.001118
0.01025
0.0005782
-0.000307
-0.0002713
-0.06423
0.09666
-0.03243
-0.0145
0.008204
-0.08837
0.04007
2.81e-05
-0.0001584
0.0001303
-1.095e-05
-0.000123
0.000134
8.452e-05
-0.0001717
8.721e-05
6.78e-05
-0.0002174
0.0001496
-0.001098
-0.0006177
0.001715
0.002969
-0.006124
0.003155
-0.0003617
-8.27e-06
0.00037
0.8577
0.1644
0.0003628
-0.0004577
9.483e-05
-0.0002397
1.347e-05
0.001308
-0.002231
0.0009225
0.0001542
-0.0001642
-0.0002626
-0.0002202
0.001104
-0.001286
0.0001816
-0.3778
-0.4347
0.8125
0.0007222
0.001277
-0.001999
-0.5424
-0.3507
0.8932
0.04379
-0.01654
0.004354
-6.449e-05
-0.09091
-0.1655
0.2564
0.04553
0.1209
-0.1665
1.736e-07
-5.336e-08
-1.203e-07
-0.0003378
0.0002717
6.615e-05
-0.07526
-0.1019
0.1771
0.00135
-0.0009948
-0.0003552
0.1735
-0.05338
-0.0002822
0.003731
-0.002469
0.005367
-0.002899
-0.01085
-0.01254
0.0009472
0.001376
-0.002324
-0.2057
0.2368
-0.03107
-0.0005204
0.0008452
-0.0003248
-0.0001914
-0.0001293
0.0003207
-8.81e-08
8.004e-06
-7.916e-06
0.0001154
0.0001712
0.004187
-0.001218
-0.0001473
-0.0002435
0.0003908
-0.003823
0.001052
0.002771
-0.001246
-0.001689
0.002935
0.003625
-0.003042
-8.639e-05
0.0001455
-5.907e-05
0.0004825
0.0001255
-0.0006081
0.002564
0.0002273
-0.1827
0.1232
-0.0005291
0.0003445
0.0001846
-0.003396
0.00343
-3.412e-05
0.0013
0.0001187
-0.001419
-2.332e-06
5.086e-06
-2.753e-06
-0.0006465
0.0004304
0.000216
-0.8562
0.3138
-0.2572
0.1335
0.1237
0.0003285
0.0001597
-0.0004882
0.001117
-0.001212
9.449e-05
-0.0001187
-0.0001908
0.0003095
0.0184
-0.00974
-0.008662
0.1971
-0.1873
-0.009861
0.008823
-0.01213
-0.0003412
-2.139e-05
0.0003626
0.09559
-0.05297
-0.04262
0.0016
0.0006971
0.0005366
-0.0002081
-6.946e-05
0.000447
-0.0003775
-0.01707
0.03202
-0.01495
-1.2e-06
-2.227e-05
2.347e-05
0.0006049
-0.0002139
-0.000391
-0.001787
0.0005268
0.00126
-0.0006941
0.0004013
0.0002927
0.1941
-0.1486
-0.006307
0.0173
-0.5008
-0.9699
-0.4979
-0.9648
-0.01068
0.001699
-0.0009668
0.0007728
0.000194
-0.004302
-0.0002296
-0.0002622
-0.0004318
-2.98e-05
-0.0002492
0.000279
-0.0132
0.04644
0.002396
0.001144
9.151e-05
-5.142e-05
-4.009e-05
-2.504e-05
-7.399e-05
9.904e-05
-0.0003619
-8.013e-05
0.000442
0.0003778
0.0009722
-0.0002634
0.0001044
0.000159
0.0002896
-0.0003677
7.81e-05
0.0004966
-0.0003527
-0.0001439
7.116e-05
-0.0002645
0.0001934
-0.0006754
0.0005396
0.0001358
8.188e-05
-9.042e-06
-7.284e-05
-1.233e-06
6.81e-05
-6.687e-05
0.0001291
-0.002229
-0.02715
0.02937
-0.0003126
0.0002747
3.786e-05
-0.0004087
-0.0001084
-0.0001143
-0.001239
0.001353
0.3004
-0.4091
0.1087
0.0005469
5.8e-05
0.0002079
-0.0003983
0.0001904
-0.002099
0.001875
-0.005273
-0.005642
0.01091
0.0008896
-0.000928
3.843e-05
-8.654e-05
0.0006795
-0.000593
0.381
0.1362
-0.5172
-0.1184
-0.04862
-0.1726
0.2411
-0.06853
-0.0001642
0.0001964
-3.221e-05
0.4319
-0.8097
-0.001543
0.001424
0.0001194
0.06074
0.03484
0.0001615
-0.0002298
6.647e-05
-0.000539
0.0004725
0.1165
-0.1215
0.03092
-0.0132
-0.01772
-0.000145
0.0006416
-0.0004966
2.612e-07
2.019e-07
-4.631e-07
-0.0002227
0.0004068
-0.0001841
0.9242
-0.693
-0.2311
0.001675
0.004558
-0.006233
4.373e-05
0.0001494
-0.0006948
0.0005047
0.0001902
0.00618
-0.004766
-0.001413
-0.0865
-0.02054
1.185e-05
1.575e-06
-1.343e-05
0.0168
-0.02088
0.004078
3.847e-06
-5.251e-05
-0.0003478
0.0004654
-0.0001176
-0.0002828
-0.001552
0.001835
0.2459
-0.2556
0.009703
0.005663
-0.004953
-0.00071
8.988e-06
-3.727e-05
2.828e-05
0.0002203
0.0005564
-0.0007767
-0.0006741
0.0007432
-6.904e-05
-0.0001254
0.0002554
-0.00013
0.003645
0.002018
-0.000292
0.0002476
-0.02329
0.02106
0.009564
-0.0738
5.768e-05
-9.444e-05
3.677e-05
-0.5082
0.03712
-0.0005366
-1.608e-05
0.0005527
-6.893e-05
3.485e-05
-0.0001739
0.01698
-0.004578
0.003618
0.00096
-0.0001089
0.0003969
-0.000288
-0.002504
0.002478
2.62e-05
0.1109
0.4878
-0.5987
0.000445
-0.0008729
-0.0002523
-0.0001956
0.0004478
-0.000597
-1.107e-05
0.000608
0.001085
0.007854
-2.792e-05
-0.0002561
0.0002841
-0.001098
0.000683
0.000122
0.0002545
-0.0004454
0.0003846
6.078e-05
-0.0004297
6.794e-05
-0.0003626
0.002595
-0.002232
-0.0008529
0.000157
0.0006959
-0.0002896
3.558e-05
-2.843e-05
2.635e-05
2.078e-06
-0.000222
0.0002375
-1.549e-05
-0.6755
0.8727
0.0004589
-0.0001212
0.00874
-0.01128
0.002539
-0.003728
0.004357
-0.01206
0.0007936
0.01126
-0.0001224
4.233e-05
-0.01097
-0.006974
0.01794
-1.275
1.437
-0.1617
0.0002886
-0.0002929
4.336e-06
-6.888e-05
-3.669e-05
0.0001056
0.005887
0.01144
-0.01732
0.003102
-0.002977
-0.0001243
0.5728
-0.1918
0.001057
-0.002139
0.001082
-5.734e-05
0.0002485
-0.0001912
-0.05995
0.0456
-0.02518
-0.1805
0.7006
-0.6548
-0.0458
0.0006748
-0.0007039
0.0656
-0.02956
-0.0003534
-9.674e-05
0.0004501
0.05166
-0.05513
0.003475
3.365e-05
0.0002185
-0.01056
-0.1337
0.1443
0.0004211
-0.0003123
-0.0001089
0.0543
-0.2269
-0.000151
-0.0001402
0.0003735
-0.0003942
2.078e-05
-0.0007333
0.0004258
0.0003075
-0.001379
0.003075
-0.001696
-9.757e-05
0.0001926
-9.501e-05
-0.0194
0.007408
0.01199
0.0003542
-0.000187
-0.0001673
0.0003089
9.906e-05
-0.000408
0.000157
-2.008e-05
-0.0001369
0.0003844
-9.274e-05
-0.0002917
0.0004433
0.008296
-0.008739
-0.002833
0.002443
-0.000103
-3.946e-05
0.0001425
0.0002072
-0.0003378
0.0001307
0.002198
-0.001844
-0.0003539
3.856e-05
-0.0001416
0.3533
-0.9436
0.5904
0.1195
-0.0006214
-0.1189
-0.0004815
0.0002096
0.0002719
0.0001915
-0.0002038
1.228e-05
-1.538
0.1226
1.416
0.0004903
-0.0003007
-0.0001897
-0.003166
0.01253
-0.009364
0.004973
0.008782
-6.228e-05
0.001179
0.03076
-0.01684
-0.01392
1.412
-0.2684
-1.144
-2.614e-05
-0.0001442
0.0001704
-0.01193
0.008762
9.905e-05
-8.706e-05
-1.199e-05
-9.816e-05
7.537e-05
2.278e-05
0.0001604
-0.0001135
-4.69e-05
0.0003234
-1.437e-05
-0.000309
-0.0002443
3.856e-05
0.0002058
-0.0003708
-0.0002756
-0.0006658
5.603e-05
0.0006097
0.0009942
0.002107
0.000313
-0.0001228
-0.0001901
-0.1255
0.2555
-0.13
-0.0001802
0.0002929
-0.1019
0.084
0.01795
0.0007675
-0.0006199
-0.0001476
0.0006487
-0.001331
0.0001696
-0.0001255
-4.409e-05
0.0003212
-0.001548
0.001227
-1.104e-08
-3.412e-08
-0.0003512
0.0001762
0.0001749
-0.000188
0.0007827
-0.0005947
0.03003
-0.01796
-0.01207
0.001961
-0.002482
0.0005217
-0.2868
0.231
0.05578
0.0001165
4.394e-05
0.1168
0.002692
0.0001488
2.336e-05
-0.0001722
0.0003845
-0.0002964
-9.959e-08
9.959e-08
1.327e-07
-1.509e-07
1.825e-08
1.116e-07
-1.032e-07
-8.453e-09
1.196
-0.8183
-0.3778
-0.0001526
-0.0001599
6.738e-05
0.0001268
-0.0001942
-0.1452
-0.1121
-0.0004616
9.843e-07
0.0004607
-0.0003102
0.0009317
-0.0006215
-0.0002239
0.0002444
-2.055e-05
0.003397
-0.0003151
-0.003082
7.634e-06
0.0003658
-0.0006271
-0.0001062
0.0003102
0.0001802
8.14e-05
-7.561e-05
-5.787e-06
-0.4371
0.7903
-0.0002387
0.000143
9.562e-05
1.236e-07
-1.193e-07
-4.367e-09
0.0005526
-0.0006322
7.961e-05
0.0003636
-8.299e-05
-0.0002806
1.458e-05
-1.198e-05
0.06323
-0.1791
0.003406
-0.0008521
-0.05101
0.07818
0.0005038
-0.0002966
0.04335
0.2459
-0.2892
-0.0002793
6.697e-05
0.0002123
-5.632e-05
-8.852e-05
0.0001448
7.033e-05
-6.643e-05
-3.902e-06
1.525
-0.9013
-0.6234
-0.0003819
-9.961e-05
0.009255
0.003928
-0.01318
1.247e-06
-2.201e-06
9.533e-07
-0.000621
-1.03e-05
0.0006313
9.68e-05
-1.067e-05
-8.613e-05
-0.0006383
4.468e-05
0.0005936
-0.1075
0.1023
0.005226
2.81e-05
-0.0001301
0.000102
0.000851
0.0007075
-0.001559
-0.8028
-0.7354
0.002357
-0.005271
0.0001584
0.005113
-0.0003886
0.0001972
0.0003034
0.0005862
2.966e-06
0.0001885
9.611e-05
-1.524e-05
-8.087e-05
-0.0004039
5.614e-05
-0.003393
0.004034
-0.0006408
0.0008451
6.401e-06
-0.0008515
0.0001416
-0.0002944
0.0001528
7.253e-05
0.0002161
0.1126
0.05555
-0.1681
-7.248e-05
5.439e-05
1.809e-05
3.353e-05
-0.0002281
0.0001945
0.0004522
-0.0005017
4.952e-05
0.001134
-0.002445
0.001311
0.0001125
-0.0002144
0.0001019
-0.7908
0.114
0.6769
-0.7884
0.6296
0.1587
0.002743
-0.01187
-0.0002467
-1.673e-05
-0.0005614
-0.001329
0.001891
0.1377
-0.2082
0.07053
1.473
-0.6492
-0.8238
-0.001432
0.002288
-0.0008559
0.0002626
-0.0003881
0.0001255
-0.0004823
0.0001942
0.000288
-0.0006597
-6.063e-06
6.958e-05
6.006e-06
-7.559e-05
-3.347e-05
3.103e-05
2.444e-06
-0.003051
0.002883
0.0001677
-0.142
0.1006
0.04139
1.4
-1.277
-0.1227
-8.023e-05
3.955e-05
4.068e-05
-0.0001049
-0.0001985
0.0003034
0.0005268
-0.001681
0.001154
0.314
0.5218
-0.8358
7.708e-06
1.536e-05
0.002607
-0.003054
0.000447
-0.0002275
0.0002214
6.053e-06
0.4895
-0.0003174
0.0003635
-4.61e-05
-0.0277
0.1654
0.0001794
-0.0002882
-0.0001201
4.152e-05
7.857e-05
0.00225
-0.002395
0.0001448
0.9782
0.1617
-1.14
-2.57e-05
-9.845e-05
0.0001241
0.0004259
0.0001524
-7.793e-05
4.38e-05
0.3912
1.021
0.0004463
-0.001595
-8.957e-06
-3.154e-06
0.3947
0.3059
-0.001746
-0.002832
-0.165
0.005564
0.1594
-0.0003747
-0.000444
0.0008187
0.0003757
-0.0001417
-0.000234
-0.2802
0.1892
0.0002192
-0.0001995
-1.97e-05
0.0002548
0.000473
-0.0007278
-2.891e-06
7.839e-06
-4.948e-06
-0.0001349
-0.0001223
0.0002572
-3.465e-05
6.054e-06
2.86e-05
-0.0001944
-0.000481
-0.0002265
-0.0004683
-7.441e-05
0.0002163
-0.0001419
0.0006924
-0.0007389
0.0006583
-0.0009596
0.0005898
-0.0009097
0.00032
8.357e-05
-9.641e-05
1.283e-05
0.0001093
-4.365e-05
-6.567e-05
0.0002993
-0.0002224
-7.692e-05
-0.5999
0.9138
0.0007759
-0.0005367
-0.0002392
0.1076
-0.1939
0.08626
-0.0005303
0.0001684
-0.125
0.03517
0.0898
6.274e-05
-0.0001618
-0.3424
-0.9329
-0.1526
0.07736
-0.002509
-0.004984
0.007493
-0.000414
-0.0004389
-0.0002474
-0.0001769
0.0004243
-1.04
0.1281
0.9123
1.107
-0.8989
-0.2077
9.33e-05
-3.317e-05
-1.936e-05
-1.56e-05
3.497e-05
-0.0001097
0.0002217
-0.0004678
0.0001749
0.0002929
0.0005953
-0.0001888
-0.0004065
0.0002625
-0.0006159
-0.0003137
0.0004532
-0.0001396
-0.000671
0.0004188
-0.0001588
8.485e-05
-6.135e-05
0.0001648
-0.0001034
-5.816e-05
-1.811e-05
7.627e-05
-1.16
0.12
5.074e-05
0.0001137
-0.0001644
2.351e-05
-0.0001391
0.0001156
-8.191e-05
-0.004866
0.004947
0.00995
-0.00588
-0.00407
0.1784
-0.2388
0.06047
1.03
0.4431
0.000618
-0.0006874
-9.837e-06
-0.0001608
9.569e-05
0.0002173
8.706e-06
-5.802e-06
-2.904e-06
-0.07688
-0.04809
-0.9856
-0.4036
1.389
-0.0001207
-8.805e-05
0.0002088
-0.0002293
-6.348e-06
0.0002356
-0.05075
-0.007786
6.816e-05
7.005e-05
-0.0001382
0.01411
-0.002072
-0.01204
-0.03367
0.08707
-0.0534
-0.0002227
8.339e-05
0.0001394
0.002232
-0.002775
0.0005422
-0.0001238
0.0001473
0.004147
-0.008843
0.004696
-3.41e-08
3.41e-08
-2.753e-05
5.726e-06
5.228e-05
0.0003322
0.0002558
9.847e-05
-0.0001738
-0.000164
0.0002023
9.229e-05
-0.0002946
-0.000306
-1.139e-05
-0.0001611
0.0002893
-0.0001282
0.05521
0.00743
-0.06264
0.0002611
-0.0001104
-0.0001507
1.248e-05
-3.799e-06
-8.679e-06
-0.0001287
-0.0004079
0.7437
-1.068
0.3243
0.00133
-0.0002258
-0.00448
0.004001
0.0004789
0.0008369
-0.00275
0.001913
1.075
0.4494
-0.02548
0.7692
1.925e-07
-7.636e-07
5.71e-07
0.02289
0.00714
0.0003754
-0.0006615
0.0002861
0.0001504
-0.0001538
3.376e-06
-0.0003214
0.000552
-0.0002306
-0.0003895
-0.0001396
0.00436
0.003115
-0.007475
0.0002304
-0.0001258
0.002948
-0.006357
0.003409
0.000988
-0.0008413
-0.0001467
-0.1495
-0.1995
0.349
1.05
-0.04462
-1.006
-0.002227
-0.0005763
0.002803
-0.0006758
0.009416
5.274e-05
-0.0002169
-0.002041
0.002878
0.0003349
-0.0003724
3.75e-05
0.0006663
-0.0002149
-0.0004514
0.0002932
0.0001802
-0.0004734
-0.02076
0.02254
0.005224
-0.0105
-1.124
-0.3858
1.51
-0.000113
0.0002128
-9.982e-05
0.0223
0.008461
-0.001093
0.0008197
0.0002731
7.404e-08
-0.00246
0.0006974
0.001762
-0.0003093
0.0003374
0.0001358
-0.0003585
1.257
-0.2786
-0.001879
0.002134
-0.000255
-0.0003413
-0.0005336
0.0008748
-1.759e-05
1.82e-05
-6.105e-07
-0.0003953
0.0005497
-0.0001544
9.951e-05
4.934e-06
-0.0001044
-0.0001124
-4.648e-05
-0.000119
0.0003643
-0.0002123
-0.000233
0.0001126
-0.0004083
0.0002957
0.0003055
0.0001701
-0.0004756
0.0006017
-0.0007689
0.001418
-0.002447
0.001029
-0.003612
0.0002158
3.61e-05
-0.0003371
0.002973
-0.005804
0.002832
-1.402e-07
1.402e-07
-0.0008775
-0.003602
-0.0664
0.02409
0.0001706
-0.001417
0.001247
0.0001605
0.0003167
-0.0004771
2.121e-06
0.001128
-0.00113
0.1015
0.3723
-0.4738
-4.338e-05
2.236e-05
2.101e-05
0.0001652
-8.337e-05
-0.0004344
-4.788e-05
-1.511
0.5255
2.276e-06
6.43e-06
-0.0002694
4.741e-05
0.0003153
-0.0003606
4.529e-05
-0.3878
-0.6372
1.025
2.089e-05
-0.000182
0.0001083
-0.0001333
2.495e-05
8.648e-05
-0.0002825
0.000196
7.503e-05
-0.0002424
0.0001674
-1.197
0.8096
-0.0004156
0.000241
0.0001747
5.604e-06
-3.805e-06
-1.798e-06
0.0001375
-0.0002163
7.876e-05
-0.0004337
0.0004188
1.49e-05
-0.1581
0.06332
0.09475
5.64e-05
3.511e-05
0.0001907
-0.0002206
2.993e-05
-0.1621
0.1681
-0.006045
0.002724
0.0005393
-0.003264
-0.003779
0.003665
0.0001145
0.0002443
-4.207e-05
-0.0002375
-0.0001137
-0.002614
0.003666
-0.002799
0.0003393
-9.633e-06
-0.0002132
0.0002228
-6.464e-05
0.0001492
0.2817
0.5865
-0.8682
-0.0002911
-0.0001245
-0.0002526
0.0004773
-0.0002247
9.945e-05
-0.0001007
1.202e-06
-0.0001208
-0.0004761
-0.01439
0.01233
0.002065
-0.0005669
0.0001052
2.165e-05
7.446e-05
1.027
-0.7456
3.038e-05
-0.0002542
-9.385e-05
-0.0001289
-2.884e-06
-4.921e-05
5.209e-05
2.123e-07
-6.365e-07
6.693e-05
-6.981e-05
2.997e-05
4.036e-05
0.0003184
6.936e-05
-0.0003877
0.000232
-0.0001524
-7.956e-05
-0.004436
0.001171
0.003264
0.1727
1.023
-3.859e-09
3.858e-09
9.365e-05
0.0001405
-0.0002342
0.0001181
-0.0002529
5.957e-05
-5.41e-05
-5.468e-06
-9.72e-05
0.0002606
-0.0001635
2.589e-05
-0.0001432
0.0001173
-0.0002242
3.723e-05
0.000187
-0.0004957
0.0004274
0.5589
0.8408
-3.075e-05
-3.888e-05
6.963e-05
-0.004365
0.001244
0.003121
-1.503
0.3786
-0.0001292
0.0002234
-9.423e-05
0.0001768
0.0005907
0.002097
-0.0007973
0.000879
0.000302
-0.001181
0.1375
-1.018
0.8801
6.537e-05
-0.000379
8.111e-05
-1.6e-05
-6.511e-05
-0.275
-0.7148
0.8523
0.006982
0.002969
-0.0004404
0.0006184
-0.0001781
0.0003245
0.0002708
-0.0001559
-7.964e-06
0.0001639
-0.0004225
0.0003696
5.295e-05
5.184e-06
-4.367e-07
-4.747e-06
-0.004042
0.001009
0.003033
-0.003956
0.005133
-0.001177
-0.7988
-0.2692
-0.0003218
8.691e-05
0.0002349
-0.0003221
0.0001547
0.0001673
0.0003756
-0.0003101
-6.55e-05
9.288e-05
-0.0001793
0.00177
-0.001728
1.085
0.08571
-1.171
0.2752
-0.212
0.0769
-0.1342
0.05729
-1.67e-05
4.257e-06
1.244e-05
0.04521
-0.844
0.03245
-0.01869
-0.01375
-0.0001104
0.0002312
-0.0001208
-0.0008988
-0.001091
0.00199
0.0001354
5.953e-05
-0.0001949
-0.216
0.8471
-0.6311
-0.0001625
0.0001165
4.607e-05
-0.0004069
0.002315
-0.001908
-0.2391
-0.01703
0.2561
0.0002509
0.0002458
0.6912
0.4732
-1.164
-0.0003718
-0.0002374
0.0006093
2.299e-05
4.953e-06
-2.794e-05
0.0003039
-0.0001518
-0.0001521
-0.0003517
-0.0006407
0.0009924
2.09e-05
1.328e-05
-3.418e-05
0.1846
-0.04901
-0.1356
0.000122
0.0001034
-0.0002254
-0.008838
0.008735
0.0001029
-0.0002181
-6.12e-05
-1.464e-07
4.879e-06
-4.733e-06
-0.0002154
-0.0002031
0.0004184
0.0003301
0.000106
-0.0004361
-0.007823
-0.006568
0.0052
-0.005793
0.0005928
0.001795
-0.0003887
-0.001406
7.161e-05
-7.161e-05
-0.3405
0.197
0.1435
-0.002995
0.005306
-0.002311
0.0007982
-0.0005092
-0.000289
-0.0001161
0.0002203
-0.0001041
5.958e-06
6.521e-06
0.000127
-0.0001149
-1.207e-05
-0.1176
1.202
0.04548
-0.02792
-0.01757
-5.629e-05
-2.393e-05
-0.0002203
1.178e-05
0.0002085
-1.041e-05
1.453e-05
-4.118e-06
-0.000346
0.0009456
-0.0005996
1.268e-06
-1.268e-06
-0.0001007
0.0001197
-1.902e-05
1.108e-05
-1.108e-05
-0.0004627
0.0001643
0.0002984
4.168e-05
2.529e-05
-6.697e-05
-0.0001488
0.0001181
4.022e-05
-2.845e-05
-1.178e-05
0.0986
-0.0739
-0.0247
0.001883
-0.001427
-0.0004564
1.092
-1.517
0.4242
1.317
-1.74
0.4227
-7.547e-05
-0.000221
0.0002965
-0.04389
0.09303
-0.04914
0.0002009
-9.954e-06
-0.000191
-0.003004
0.00158
0.001424
-0.001268
7.824e-05
-0.007584
0.008572
-0.0009874
0.04579
-0.1006
0.0548
-0.0007033
2.652e-05
0.0006767
0.0006601
0.0009972
-0.001657
0.2522
-0.006311
-0.002677
0.002725
-4.814e-05
0.0001837
-0.000327
0.0001433
0.09315
-0.04735
0.000234
-0.0001204
-0.0001136
1.361e-05
-1.361e-05
-0.000109
2.14e-05
8.759e-05
0.0008958
-0.002833
0.001938
2.328e-05
-4.135e-05
1.807e-05
0.0001472
-9.667e-05
-5.054e-05
-0.0001542
0.0001473
6.917e-06
-0.3376
0.1229
0.2147
0.0001773
-7.712e-06
-0.0005272
-0.0005656
-0.05021
0.3506
0.0002231
-0.0001656
0.0003329
-2.784e-05
-0.000305
0.0002764
-0.0004721
0.0001957
-0.477
-0.549
1.026
0.2187
6.598e-05
-0.2187
0.005184
-0.003365
-0.001819
1.414e-06
6.56e-07
-2.07e-06
9.829e-05
-0.002077
0.001978
-1.343e-05
1.343e-05
0.0004922
-0.0002489
-0.0002433
0.0007043
-0.0001948
-0.0005095
-0.001974
0.001812
0.0001621
4.297e-06
2.745e-06
-7.042e-06
0.0001918
4.899e-05
-0.0002408
-0.4115
1.372
-0.9604
-0.0001467
0.0002033
-5.664e-05
0.005785
-0.000366
-0.005419
-0.3004
1.333
-1.033
-0.0006019
-0.0007624
0.001364
-2.487e-07
1.351e-07
1.135e-07
0.00155
0.002834
-0.004385
8.895e-05
-3.079e-05
-5.815e-05
0.006611
-0.003773
-0.002838
0.001195
0.003093
-0.004288
-9.928e-07
-1.654e-06
2.647e-06
2.422e-05
-2.422e-05
0.0005547
0.0002436
-0.0007984
-0.08829
-0.05373
-0.4602
0.2231
0.2371
0.002842
-0.001078
-0.001765
-0.001309
0.00098
0.0003289
-6.739e-05
-0.0001268
0.0001942
0.0003072
-0.00017
-0.0001372
-0.000608
-0.0002185
0.0008265
0.0003061
-0.0001446
-0.0001615
-0.002303
0.002076
0.0002277
-0.01024
0.01813
-0.007888
0.0001218
0.0001843
-0.03263
-0.01431
0.04694
5.049e-05
2.87e-06
-5.336e-05
0.1367
-0.5758
0.4391
-0.0001803
-0.0002718
0.0004521
-1.241e-06
8.387e-06
-7.146e-06
0.0003016
-0.0003966
9.499e-05
-0.0003351
0.0002713
6.378e-05
0.0003953
-0.0001889
-0.0002064
-0.3821
0.09751
0.2846
-0.1884
0.05513
0.1333
4.603e-05
-7.711e-05
3.108e-05
0.007668
-0.008585
0.0009169
-0.0001057
0.000202
-9.627e-05
0.0004504
-0.0007674
0.0003171
6.621e-05
-0.000127
6.078e-05
-0.0004225
0.0004104
1.217e-05
0.0005043
-0.000137
-0.0003673
0.0001043
-6.123e-05
-4.308e-05
-3.992e-05
0.0001884
-0.0001485
8.766e-05
-8.766e-05
-7.579e-06
-9.49e-05
0.0001025
-3.486e-05
0.0002486
-0.0002137
-0.0002158
0.0001763
3.946e-05
-0.002779
0.004173
-0.001394
-0.0002523
0.0005583
-0.000306
0.0001366
0.0007437
0.0001896
-0.0001975
7.862e-06
-3.408e-07
-4.497e-06
4.838e-06
1.558e-07
-5.8e-08
-9.784e-08
0.0004806
-0.0002214
-0.0002592
-0.3198
0.4212
0.5903
0.2171
-0.8074
0.0003222
-0.0004224
0.0001002
-7.506e-05
-0.0002247
0.0002998
0.004747
-0.0009056
-0.003841
-0.1887
1.181
-0.9921
0.0002388
0.0005898
-0.0008286
0.0004083
4.496e-05
-0.002481
-0.005631
0.008113
-8e-05
-4.853e-05
0.0001285
0.001295
-0.0009866
-0.0003089
2.868e-05
-0.0001295
0.0001008
0.002886
-0.003376
0.0004896
0.7872
-0.6762
-0.008203
0.002691
0.005512
0.01204
0.0005189
-0.01256
0.0001326
-1.593e-05
-0.0001167
4.471e-05
7.399e-05
-0.0001187
0.0001321
-0.0001001
-3.193e-05
-0.004238
0.001753
0.002484
0.001243
-0.00553
0.004287
-0.0001023
0.0002493
-0.000147
-0.0006188
0.0009298
-0.000311
-0.002262
-0.001545
0.003807
-0.0007501
0.0002976
0.0004525
-0.0006665
-0.0001355
0.000802
0.001787
-0.001462
-0.0003249
-0.0003161
0.0002685
4.759e-05
0.0002456
-0.0001765
-6.918e-05
0.2598
-0.3214
0.06159
3.062e-05
-1.76e-05
-1.301e-05
7.396e-07
2.799e-06
-3.539e-06
-0.0004294
0.0001768
7.53e-06
-0.0003124
0.0003049
1.265e-05
1.177e-05
0.02139
-0.1184
0.09706
5.501e-05
-5.501e-05
-9.398e-05
9.398e-05
-0.1665
-1.047
1.213
1.258
0.2308
-1.489
0.0002268
-0.0001426
-8.425e-05
-0.0001013
0.0005582
-0.000457
-7.027e-08
7.812e-08
-7.847e-09
-5.62e-06
-3.9e-06
9.52e-06
-0.0002076
0.002091
-0.0004667
0.0006118
-0.0001451
-0.0001206
-1.257e-05
0.0001331
-0.001145
-0.004045
0.00519
0.00351
0.005111
-0.008621
-0.1888
0.06185
0.1269
-0.0001278
8.433e-05
4.342e-05
2.045e-05
0.000449
-0.0004695
9.23e-05
-0.0001909
9.855e-05
-0.004569
0.001031
0.003539
1.433e-06
-2.725e-06
1.292e-06
-0.0002449
0.0003388
-9.397e-05
0.8158
-1.147
0.3311
-0.0001093
0.0001093
-0.0001782
0.0001128
6.535e-05
0.1661
0.5625
-0.7286
-0.0002633
1.902e-05
-1.286
1.12
0.2417
-0.4257
0.184
-0.00316
0.002187
0.0009723
-0.01107
-0.001986
0.01305
-2.448e-05
1.505e-05
9.425e-06
0.7801
-0.9455
0.1653
0.0005417
-0.0002847
-0.000257
0.4763
-0.1362
-0.34
0.0005217
-0.0009666
0.0004448
-0.01651
0.005553
0.01096
0.003083
-0.002668
-0.0004149
0.006129
-0.003215
-0.002914
-0.0001334
-0.000553
0.0006864
-0.000581
-0.0002366
0.0008176
-0.0001131
-3.633e-05
0.0001495
0.001871
0.0003916
-0.002262
0.1503
0.6501
-0.8004
0.009526
0.06142
-0.07095
0.0004093
-0.0002335
-0.0001759
-0.0001666
-0.0008543
0.001021
-5.599e-05
0.000179
-0.000123
-0.0001566
9.052e-05
6.612e-05
4.684e-05
-2.804e-05
-1.88e-05
8.598e-05
2.255e-05
-0.0001085
2.243e-05
-2.243e-05
0.0001639
-0.0002862
0.001136
-0.0008231
-0.0003131
4.652e-05
-0.0001122
6.564e-05
-0.0007122
0.0004588
0.0002535
0.0001138
5.377e-05
-0.0001676
0.005898
-0.006642
0.0007445
0.0009422
-0.0004311
-0.0005111
0.495
-0.366
-0.129
0.0003163
-0.0003464
3.01e-05
1.085e-05
-2.988e-05
1.903e-05
-0.0003258
2.369e-06
0.0003235
0.4958
-1.094
0.5977
-0.0004239
0.0001556
0.0002682
-0.0005719
0.0002884
0.0002834
-0.00235
0.0006046
0.001745
0.0015
-0.0006718
-0.0008283
4.65e-05
-0.0001965
0.00015
0.001431
0.006609
-0.00804
-0.0002065
0.0002383
-3.181e-05
9.675e-05
0.0001843
-0.000281
-0.001173
-0.001177
3.281e-05
6.389e-05
-9.669e-05
-0.0004743
-7.325e-05
0.0005475
-4.725e-06
4.578e-06
-1.18
0.5415
0.6388
0.002351
-0.004615
0.002265
0.0002882
-0.0001096
-0.0001786
0.1287
0.05663
-0.1854
0.0002974
-8.673e-05
-0.0002107
-0.0001378
-4.26e-05
0.0001804
-1.246
1.246
0.001515
0.002262
-0.003777
2.257e-05
-3.263e-05
1.006e-05
0.06731
-0.0519
-0.01541
0.006835
-0.0009371
-0.0004414
0.0005288
-8.743e-05
4.945e-05
-1.999e-05
-2.946e-05
0.01203
-0.00934
-0.002689
-1.27
0.5239
0.7461
-0.000213
0.0003468
-0.0001338
8.207e-05
-0.0002073
0.0001252
0.4036
-0.2562
-0.1473
-0.008817
0.006312
0.002504
0.0008107
-0.03161
0.0308
0.0003199
0.0001474
-0.0004673
0.000191
7.428e-05
-0.0002653
-0.001526
-0.0007462
0.002272
-0.05343
-0.05457
0.108
-7.41e-09
5.603e-06
-5.596e-06
3.212e-08
8.03e-07
-8.351e-07
0.0001937
0.0005822
0.0003507
-0.001207
0.0008564
0.0003553
-0.000566
0.0002107
2.725e-05
1.298e-05
-0.3924
1.24
-0.8472
0.0002354
-0.001161
0.000926
0.3503
-0.007155
-0.3432
-0.0002025
0.0002855
-8.304e-05
-0.0009153
0.000874
4.133e-05
-0.0001695
-0.0002002
0.0003698
0.0004171
0.001083
-7.61e-07
2.435e-06
-1.674e-06
-8.153e-05
8.868e-05
-7.149e-06
-0.5586
0.2189
0.3397
-2.141e-06
2.141e-06
9.782e-05
-7.301e-05
-2.481e-05
-3.645e-05
0.0001473
-0.0001108
-0.001818
-0.0002167
0.002035
-0.0001743
0.0002624
0.0002045
0.0002091
-0.0004136
0.0008976
-0.001056
0.0001583
-0.0001919
0.0001588
3.312e-05
0.002118
-0.001469
-0.000649
-0.008905
0.02459
-0.01569
5.104e-06
-5.104e-06
0.0002043
-0.0002543
4.997e-05
-0.0007293
0.0003215
0.0004077
0.0002918
0.0001398
-0.0004316
0.001411
-0.001173
-0.0002383
0.0001713
0.0003332
-0.0005045
1.746e-05
-9.855e-06
-7.606e-06