/*--------------------------------*- C++ -*----------------------------------*\
  =========                 |
  \\      /  F ield         | OpenFOAM: The Open Source CFD Toolbox
   \\    /   O peration     | Website:  https://openfoam.org
    \\  /    A nd           | Version:  8
     \\/     M anipulation  |
\*---------------------------------------------------------------------------*/
FoamFile
{
    version     2.0;
    format      ascii;
    class       volVectorField;
    location    "40";
    object      U;
}
// * * * * * * * * * * * * * * * * * * * * * * * * * * * * * * * * * * * * * //

dimensions      [0 1 -1 0 0 0 0];

internalField   nonuniform List<vector> 
127143
(
(0.001792 -7.858e-05 0)
(-9.06e-05 -0.0004255 -4.68e-24)
(-6.535e-05 -0.0003207 8.526e-24)
(-8.469e-05 -0.0003871 -1.315e-27)
(0.002878 0.0008846 -2.088e-22)
(-7.15e-05 -0.0003988 4.69e-27)
(0.02653 0.01636 0)
(0.008674 0.004096 -3.04e-22)
(0.00695 0.003328 1.005e-21)
(-0.003803 -0.0001467 0)
(0.03633 0.05 1.477e-21)
(0.01728 0.01146 1.174e-21)
(0.000223 -8.442e-05 -1.739e-24)
(-0.0001102 -0.0004361 0)
(0.01778 0.0491 1.68e-20)
(0.04074 -0.00377 0)
(-0.0002236 -0.001025 -1.382e-23)
(0.1853 -0.08907 1.693e-20)
(-0.09265 -0.007233 0)
(0.05 0.008391 0)
(-0.1759 0.04134 7.224e-21)
(-0.001541 0.0004459 0)
(0.9711 -0.1334 0)
(0.6159 -0.05958 0)
(-0.001558 0.0005118 -1.638e-22)
(0.2362 -0.03645 0)
(-0.03223 0.0006234 2.222e-20)
(-0.03242 -0.0009774 -3.346e-22)
(0.2335 -0.1041 0)
(0.5437 -0.08901 1.759e-21)
(0.4807 -0.02869 0)
(0.2296 -0.03382 -1.241e-21)
(-0.001615 0.0004474 4.138e-21)
(-0.1065 0.02728 -1.484e-20)
(0.8657 -0.05835 2.572e-20)
(-0.003359 0.00192 -5.219e-24)
(-0.1966 0.06943 4.529e-21)
(0.5205 0.001784 -6.458e-21)
(0.7332 -0.06633 -1.249e-21)
(0.2094 -0.009637 3.12e-25)
(-0.09333 -0.00837 0)
(1.115 0.4922 -8.77e-21)
(1.096 0.481 6.739e-21)
(0.0004665 -0.0001592 0)
(0.1623 -0.08413 -1.312e-20)
(-0.1098 0.0257 4.822e-21)
(0.2362 -0.1095 0)
(-0.185 0.06766 -6.442e-22)
(0.7425 -0.1301 1.388e-22)
(0.6921 -0.05568 -8.925e-22)
(0.04835 -0.003488 -1.521e-22)
(0.9688 -0.0273 5.272e-20)
(-0.1055 0.03102 0)
(1.235 0.1346 -1.199e-20)
(1.001 -0.00116 2.779e-20)
(0.5724 -0.1417 4.264e-22)
(1.001 -0.001154 -2.497e-20)
(1.087 -0.07909 0)
(1.01 -0.009571 -1.621e-20)
(1.234 0.137 -2.333e-20)
(0.4991 -0.01744 -7.549e-20)
(-0.09832 0.04506 -1.092e-21)
(1.068 -0.07547 3.59e-21)
(1.001 0.0005062 6.429e-20)
(-0.1647 0.01846 0)
(0.8526 -0.2167 -9.396e-21)
(1.115 0.1452 4.164e-20)
(1.029 -0.078 0)
(1.037 -0.07762 9.444e-22)
(0.9914 -1.235e-05 0)
(0.5494 -0.04108 0)
(-0.03477 0.000788 -1.051e-20)
(-0.1592 -0.0424 -6.194e-21)
(1.011 -0.009433 -8.907e-21)
(1.004 0.002957 -3.368e-22)
(-0.03524 -0.0006132 1.05e-20)
(1.015 0.0378 -3.307e-20)
(-0.1719 0.0586 0)
(0.5923 -0.1528 -7.62e-22)
(1 0.0007639 0)
(0.2285 -0.1032 1.679e-23)
(0.05602 0.0071 3.485e-23)
(-0.1736 0.0408 6.808e-21)
(0.2593 -0.01838 0)
(-0.1421 -0.008376 1.149e-21)
(-0.1742 0.06107 0)
(0.8377 -0.08389 -2.225e-21)
(-0.03769 -0.003316 5.803e-21)
(0.8518 -0.214 0)
(1.256 0.7653 0)
(0.9969 -0.008441 0)
(1.198 -0.02157 0)
(1.249 0.7584 0)
(-0.1753 0.04095 -7.444e-21)
(-0.2358 0.04779 0)
(1.028 0.03622 8.824e-21)
(1.116 0.4844 1.908e-20)
(0.3535 -0.02653 0)
(-0.1562 0.04624 2.369e-21)
(1.111 0.1466 0)
(1 0.0007408 0)
(0.7714 -0.1382 0)
(0.9657 0.9035 -1.541e-21)
(1.067 -0.1184 0)
(-0.1739 0.06118 -1.334e-21)
(-0.1572 0.0466 3.395e-21)
(1.005 -0.1561 -1.26e-21)
(0.9906 5.62e-05 0)
(0.676 -0.241 0)
(1.002 -0.0009015 3.994e-20)
(0.02679 0.04537 -5.4e-21)
(-0.03733 -0.002581 1.116e-20)
(-0.2043 0.04539 -7.685e-21)
(0.2685 0.5999 0)
(0.9967 0.01117 1.269e-20)
(1.015 -0.1585 -1.793e-22)
(0.9935 0.04409 -4.227e-21)
(1.004 0.003093 -3.868e-20)
(1.015 0.03676 2.615e-20)
(-0.0009796 -0.00414 0)
(1.002 -0.0009602 -5.587e-20)
(-0.1718 0.0445 -2.004e-21)
(0.7939 -0.281 0)
(1.065 -0.08542 1.044e-20)
(0.2416 -0.1076 7.752e-22)
(0.1627 -0.02166 -5.07e-21)
(-0.1256 0.03867 0)
(1.036 0.002689 1.1e-19)
(-0.1711 0.03031 -2.805e-21)
(0.5713 -0.1655 -9.141e-22)
(-0.1717 0.04977 0)
(-0.2274 0.0517 -5.626e-21)
(1.112 -0.09656 -7.732e-21)
(-0.172 0.0588 0)
(-0.0003334 -0.001811 -7.597e-23)
(-0.1716 0.04953 -2.236e-21)
(1.072 -0.05132 0)
(-0.1529 0.03554 1.937e-21)
(0.2709 -0.1533 -6.3e-21)
(1.102 -0.01848 9.115e-21)
(0.9401 -0.1602 1.192e-20)
(0.9892 0.03174 3.838e-20)
(-0.06815 0.02111 4.72e-22)
(-0.05971 0.02056 -7.537e-21)
(-0.09927 0.03021 -1.509e-21)
(1.257 0.5047 5.185e-21)
(-0.0629 0.3441 1.571e-21)
(1.001 0.00044 -5.816e-20)
(-0.2286 0.05223 4.962e-21)
(0.8592 0.7421 -8.431e-22)
(1.081 -0.1122 -2.687e-21)
(0.8068 -0.1605 0)
(0.7768 0.01671 2.206e-20)
(0.8271 -0.1174 0)
(0.2676 -0.1488 0)
(-0.1434 -0.008294 0)
(1.087 -0.07827 -4.003e-21)
(0.5405 -0.1874 0)
(-0.1845 0.06745 -1.208e-21)
(0.314 -0.02829 1.439e-21)
(0.5865 -0.03736 0)
(0.06227 -0.0316 8.358e-21)
(0.9971 -0.008366 4.766e-22)
(-0.1713 0.04976 -5.87e-21)
(0.353 -0.09434 0)
(-0.1802 0.02139 1.393e-20)
(-0.1896 0.06689 -3.158e-21)
(0.6636 -0.1997 2.114e-20)
(0.1088 0.05062 -8.906e-21)
(0.9455 0.05786 -6.045e-21)
(-0.04059 0.01237 0)
(-0.06175 0.02178 3.502e-21)
(1.007 -0.1684 -3.264e-22)
(0.8917 -0.248 -3.13e-21)
(0.9798 -0.0009805 3.53e-20)
(-0.08726 0.004869 3.138e-23)
(1.241 0.5571 -1.012e-21)
(-0.1717 0.03161 -2.718e-21)
(0.6896 -0.0698 0)
(1.007 -0.01945 6.301e-21)
(0.8908 -0.2485 -1.053e-21)
(1.003 -0.004647 0)
(-0.07054 -0.009757 4.778e-22)
(-0.08698 0.003968 -3.181e-23)
(0.5838 -0.1722 1.956e-21)
(-0.09458 0.04404 1.945e-21)
(1.054 0.3206 -8.659e-21)
(0.2857 0.6174 -4.382e-21)
(0.6451 -0.06326 -2.722e-21)
(1.025 -0.0283 4.247e-20)
(-0.1837 0.0287 8.541e-22)
(-0.2384 0.03742 -6.777e-21)
(1.071 -0.05048 6.356e-20)
(0.4188 0.9816 5.152e-22)
(-0.0002052 -0.001906 1.267e-22)
(-0.1258 0.03144 0)
(1.004 1.326e-06 0)
(0.9981 -5.04e-09 3.337e-22)
(0.02036 0.007552 0)
(0.9918 0.01621 4.142e-21)
(1.012 0.007186 3.503e-20)
(0.9304 0.01575 1.088e-19)
(0.9906 -0.04192 6.431e-21)
(-0.197 0.06961 -2.124e-21)
(-0.0001503 -0.0008349 1.859e-24)
(0.9442 -0.05994 4.125e-21)
(0.998 -0.08791 5.542e-22)
(1.014 -0.1738 1.289e-22)
(0.663 -0.1092 -2.317e-21)
(0.9966 0.01083 -6.481e-21)
(1.141 -0.0589 1.738e-20)
(-0.1301 -0.002654 7.075e-22)
(0.9926 -0.003972 1.284e-20)
(0.1276 0.05512 -9.421e-21)
(-0.1731 0.05027 -1.956e-24)
(0.03091 0.001423 0)
(-0.03573 0.01216 -1.285e-21)
(0.9975 -0.1879 -2.645e-23)
(-0.2041 0.05005 -6.236e-21)
(0.9995 -0.08687 2.588e-23)
(1.233 0.5532 -2.139e-21)
(1.001 0.005364 1.659e-21)
(0.7948 -0.1552 1.207e-23)
(-0.05935 0.03231 1.769e-21)
(0.2899 -0.02698 0)
(-0.05485 0.01857 0)
(0.4356 -0.1125 -9.914e-22)
(0.579 0.008442 7.197e-21)
(-0.1209 0.04167 2.836e-21)
(-0.1444 0.04506 3.529e-21)
(-0.1815 0.0424 4.591e-21)
(1.003 -0.005216 1.525e-22)
(-0.1597 -0.04233 1.228e-20)
(-0.0001003 -0.009697 0)
(-0.1805 0.0422 0)
(1.052 -0.0722 1.001e-20)
(-0.1714 0.04971 2.809e-21)
(0.004674 -0.0007201 7.943e-23)
(1.012 0.006968 -3.251e-20)
(-0.1631 0.0263 4.434e-21)
(-0.234 0.03692 5.872e-21)
(-0.1719 0.0164 -2.101e-20)
(-0.1593 0.03982 -3.117e-22)
(0.5602 -0.1959 1.392e-24)
(0.4367 0.03556 0)
(-0.0007901 -0.004276 2.299e-26)
(0.9171 -0.1831 -6.678e-24)
(-0.0337 0.0005699 0)
(-0.008037 0.002218 1.868e-21)
(1.001 -4.956e-05 -1.179e-21)
(1.231 0.4288 -2.08e-20)
(0.2277 -0.0252 4.274e-21)
(0.9577 -0.217 0)
(-0.1471 0.03263 0)
(0.7264 -0.1752 8.049e-22)
(0.6946 -0.2461 0)
(1.035 0.002184 -8.623e-20)
(0.5295 0.2026 0)
(0.9277 -0.2238 0)
(0.8821 0.2463 9.841e-21)
(-0.1239 0.03137 -3.614e-21)
(1.003 -0.01607 6.821e-22)
(1.197 -0.01976 3.447e-22)
(0.9884 0.03083 -3.151e-20)
(0.103 0.03104 0)
(-0.1716 0.0177 -6.912e-21)
(-0.127 0.04033 1.026e-20)
(0.2388 -0.1478 0)
(0.5389 -0.1411 5.075e-20)
(1.299 0.158 -8.242e-21)
(0.3878 -0.07094 0)
(0.9758 -0.001624 -4.254e-20)
(-0.1788 0.06316 -9.437e-22)
(-0.1666 0.02612 -4.515e-21)
(1.132 -0.07472 6.138e-21)
(-0.178 0.02848 -4.125e-21)
(-0.2031 0.04509 0)
(0.8294 -0.1317 1.67e-21)
(0.9581 -0.002769 -9.59e-22)
(0.8734 -0.2439 3.172e-21)
(1.002 -0.0004528 6.806e-22)
(1.026 0.03895 1.874e-21)
(1.067 -0.1179 -7.639e-24)
(0.9946 0.004015 0)
(1.004 0.01101 6.514e-21)
(-0.0008331 -0.00201 -1.835e-23)
(-0.1923 0.05307 0)
(0.997 0.01211 6.625e-21)
(0.7837 -0.1118 1.499e-21)
(1.006 -0.0195 8.745e-21)
(0.8276 0.01103 -3.013e-20)
(0.9614 -0.1692 0)
(1.051 -0.07297 -9.821e-21)
(0.9904 -0.1827 0)
(0.9946 -0.006961 -9.002e-21)
(0.6621 -0.2544 -5.674e-22)
(0.4656 -0.03538 2.486e-21)
(-0.00838 -0.02015 -6.385e-22)
(-0.1598 0.04023 1.201e-21)
(1.298 0.1573 5.973e-21)
(0.3677 -0.04338 -1.175e-21)
(0.9025 -0.203 -1.317e-21)
(0.7715 -0.2026 -1.319e-20)
(1.014 -0.158 1.695e-21)
(0.2749 -0.01982 0)
(0.4597 -0.2404 5.175e-23)
(1.014 -0.1734 4.467e-23)
(0.9923 -0.004072 0)
(0.07016 -0.006154 -1.539e-23)
(1.091 -0.1128 -3.182e-21)
(0.9842 -0.1513 -1.671e-21)
(0.004141 -0.02879 -2.178e-22)
(0.5424 -0.1297 0)
(1.002 -0.000564 1.078e-21)
(0.9916 0.005065 -2.23e-20)
(1.283 0.5753 9.258e-22)
(0.2827 0.007822 3.589e-21)
(0.3468 -0.03921 3.169e-21)
(1.199 0.0068 2.798e-20)
(0.9228 -0.01607 1.629e-21)
(0.9698 -0.1322 0)
(0.5205 -0.03597 -4.283e-21)
(1.064 0.00705 2.467e-20)
(0.9585 -0.2168 4.586e-22)
(1.281 0.5724 0)
(0.2204 0.01269 -7.949e-21)
(0.9068 -0.02682 5.293e-20)
(0.02584 -0.01109 -5.216e-24)
(0.5555 -0.02181 2.02e-21)
(1.214 0.6104 8.129e-21)
(-0.1344 0.05353 0)
(1.004 0.01085 -6.305e-21)
(0.8709 -0.06001 -9.864e-20)
(1.004 9.108e-06 0)
(0.9981 1.505e-06 0)
(0.8271 -0.1136 0)
(0.688 -0.2432 -3.722e-21)
(1.006 -0.1685 -2.925e-22)
(-0.1348 0.05404 -1.378e-21)
(-0.1994 0.054 -1.894e-20)
(1.099 -0.01959 -4.087e-20)
(0.9979 -0.1875 0)
(-0.06346 0.02752 1.446e-21)
(-0.1696 0.02821 7.001e-22)
(0.185 0.19 -4.534e-22)
(0.7721 -0.1071 -9.617e-22)
(-0.2138 0.05095 -6.09e-21)
(-0.2194 0.04413 2.989e-21)
(0.4066 -0.04979 -1.859e-21)
(-0.1707 0.02593 0)
(0.4318 -0.04733 1.458e-21)
(0.006149 0.01405 4.935e-21)
(-0.1098 0.02124 -6.227e-22)
(-0.1748 0.02834 3.031e-21)
(0.9251 0.06179 0)
(-0.215 0.05268 -1.484e-20)
(-0.149 0.03334 -3.037e-21)
(1.256 0.4788 -4.959e-21)
(1.004 -0.006853 6.769e-21)
(0.537 -0.02079 0)
(-0.1694 0.0553 -1.552e-21)
(1.089 -0.0767 1.053e-21)
(0.7052 -0.09785 -2.915e-20)
(0.7091 -0.0517 0)
(0.7035 -0.05961 -2.47e-21)
(1.002 0.002547 2.555e-22)
(0.9921 0.01585 -1.25e-20)
(0.8952 -0.002832 0)
(-0.2014 0.03715 4.533e-21)
(0.9618 -0.002194 0)
(0.3759 0.007823 6.961e-20)
(1.065 0.004871 -5.202e-20)
(0.2781 -0.03021 -3.591e-21)
(0.6783 -0.04967 3.494e-21)
(1.025 -0.02702 0)
(1.165 0.01988 -6.624e-22)
(0.5154 -0.04869 2.079e-21)
(0.008098 -0.01209 2.34e-26)
(-0.1545 0.04933 -6.44e-21)
(0.9644 -0.005432 3.193e-21)
(0.6539 -0.05723 -4.385e-20)
(0.1902 -0.02194 5.012e-21)
(0.4568 -0.0559 0)
(0.9003 -0.2051 -5.245e-21)
(0.9939 0.04248 0)
(0.09011 -0.006838 0)
(0.9735 0.1674 0)
(0.2223 -0.01112 0)
(-0.1298 0.03267 -9.744e-22)
(0.4298 -0.02678 -2.703e-20)
(1.012 -0.007475 -4.633e-20)
(0.7413 -0.1724 0)
(-0.08386 0.02809 2.474e-21)
(0.7283 -0.1864 8.965e-22)
(0.6424 -0.05726 4.252e-21)
(0.4615 -0.03055 3.123e-21)
(0.7457 -0.1749 -1.049e-20)
(0.5159 -0.02997 0)
(0.9233 0.06012 0)
(1.003 -0.01616 0)
(0.234 -0.01963 -1.365e-21)
(1.001 0.0051 -6.943e-22)
(-0.1732 0.03893 0)
(-0.07295 -0.009587 0)
(0.9796 0.1691 0)
(1.069 -0.1261 1.85e-21)
(-0.172 0.0609 -7.022e-21)
(1.103 -0.1027 5.165e-21)
(1 0.0006867 -7.593e-20)
(0.7339 -0.0766 0)
(0.6771 -0.2784 0)
(0.4193 -0.05783 -1.697e-21)
(0.9414 -0.1591 -1.241e-20)
(-0.1767 0.06654 0)
(0.7924 -0.2789 0)
(-0.2343 0.04736 -4.374e-21)
(-0.1758 0.04738 -5.514e-21)
(0.3405 -0.06878 0)
(0.9411 0.04956 5.862e-21)
(0.7214 -0.2862 -1.695e-21)
(-0.1906 0.06753 0)
(-0.03411 0.01196 -4.793e-21)
(-0.1753 0.05022 0)
(1.004 0.0001382 -8.331e-24)
(-0.1457 0.04544 -4.385e-21)
(0.9417 0.2892 -1.646e-21)
(1.09 0.4691 4.096e-22)
(0.9097 -0.146 -1.15e-20)
(-0.1802 0.01885 2.261e-20)
(0.9795 -0.107 -2.132e-21)
(1.003 -0.000236 0)
(-0.1717 0.04972 0)
(-0.1079 0.0222 0)
(1.144 -0.07102 1.028e-19)
(0.9155 0.1698 1.006e-21)
(1.002 0.002488 -8.165e-21)
(1.038 -0.1545 1.577e-21)
(-0.228 0.05114 -1.161e-20)
(0.9697 -0.02631 -1.984e-20)
(0.9944 -0.006762 0)
(0.9975 -0.0005667 -5.102e-21)
(0.7288 -0.05959 1.277e-21)
(1.071 -0.05557 -2.185e-20)
(0.6884 -0.2494 6.588e-21)
(0.9641 0.04051 0)
(0.3738 -0.02713 -1.864e-22)
(0.989 0.004703 5.202e-20)
(0.3697 -0.2347 0)
(0.8812 -0.006109 -2.84e-21)
(-0.13 -0.003959 6.938e-22)
(-0.1705 0.04446 0)
(0.5241 -0.0682 -2.332e-23)
(1.067 -0.1251 -5.374e-21)
(-0.2006 0.0357 2.782e-20)
(0.8658 0.1041 -2.758e-22)
(-0.1966 0.06815 -6.638e-22)
(0.352 -0.04174 -1.084e-21)
(-0.1757 0.0155 0)
(-0.1963 0.06973 0)
(1.208 0.07855 5.038e-21)
(1.114 -0.09669 2.477e-21)
(-0.08938 0.03346 4.643e-21)
(0.06896 -0.001017 0)
(0.3358 0.5577 -1.817e-20)
(-0.1025 0.03397 2.733e-24)
(0.994 -0.001078 0)
(1.007 0.02617 0)
(-0.1629 0.03165 0)
(-0.1852 0.04861 6.906e-21)
(0.9987 -0.0001584 0)
(-0.1498 0.04391 2.706e-21)
(1.211 -0.001034 2.132e-20)
(1.066 -0.08407 -1.582e-20)
(0.3252 0.004332 -1.264e-21)
(1.003 -0.07365 -1.681e-22)
(1.004 -0.0001141 0)
(0.2032 -0.07566 -3.934e-20)
(1.21 9.888e-06 -2.215e-20)
(-0.1295 0.04519 -1.953e-21)
(0.07979 0.02814 3.592e-22)
(0.2188 -0.1164 5.761e-22)
(0.3532 -0.2233 -3.801e-21)
(-0.2687 0.03864 3.224e-21)
(0.5404 -0.1298 0)
(0.6779 -0.2708 0)
(0.9632 0.1765 -9.958e-22)
(0.2247 0.02282 -2.661e-22)
(1.01 0.001443 3.984e-20)
(0.3594 -0.03253 -2.432e-21)
(0.9729 0.01492 4.031e-20)
(1.276 0.5802 3.058e-22)
(0.8768 -0.08799 1.926e-21)
(-0.1283 0.0344 0)
(1.259 0.4935 2.299e-21)
(-0.0002541 -0.001408 0)
(-0.1683 0.04969 7.565e-21)
(0.2712 0.3842 7.651e-21)
(1.072 -0.03215 -2.457e-22)
(1.039 0.7332 8.669e-21)
(0.9928 -0.001609 -7.469e-20)
(0.2151 -0.119 0)
(1.008 0.02616 3.176e-23)
(-0.1578 0.04349 0)
(-0.1211 0.03005 -3.627e-21)
(-0.0001958 -0.001113 0)
(0.000551 -0.002881 1.054e-22)
(0.001749 -0.00064 -3.501e-23)
(1 -0.000275 -3.555e-20)
(-0.2164 0.05326 0)
(0.1992 0.07053 0)
(0.9919 0.005164 4.305e-20)
(-0.1553 0.05769 2.397e-21)
(0.7941 -0.283 6.574e-21)
(-0.1653 0.05369 6.782e-21)
(1.038 -0.1445 0)
(-0.1722 0.045 0)
(0.5153 -0.06344 -1.286e-21)
(-0.1496 0.04354 -2.761e-21)
(-0.08355 0.01529 1.694e-21)
(0.9989 -0.0008048 0)
(-0.1112 -0.0125 -9.366e-22)
(-0.0009345 0.0002994 0)
(0.6873 -0.2774 1.139e-21)
(0.3845 -0.03843 8.625e-22)
(-0.04397 0.01296 1.03e-21)
(1.011 -0.00892 -1.409e-20)
(1.08 -0.112 -2.938e-21)
(0.9929 -0.04254 -2.181e-21)
(0.09751 -0.005043 9.609e-21)
(0.9999 -0.006304 0)
(0.3195 -0.02395 0)
(0.4418 0.2149 0)
(-0.103 0.03482 -3.712e-21)
(0.9978 3.265e-05 0)
(-0.1634 0.03275 -2.509e-21)
(1.038 -0.09358 -6.563e-21)
(-0.01075 0.0008208 7.099e-26)
(0.6471 -0.2724 2.953e-21)
(0.1682 0.062 1.789e-21)
(0.09947 -0.00724 -3.317e-21)
(0.9697 0.007813 2.744e-21)
(-0.1687 0.05911 -2.087e-21)
(0.7659 -0.2716 -3.728e-21)
(0.9986 -0.0001596 4.037e-21)
(0.9016 -0.2048 7.018e-21)
(1.042 0.05609 -3.052e-20)
(0.5069 -0.04221 -1.98e-21)
(0.7252 -0.05054 1.838e-21)
(-0.1774 0.04677 -7.252e-21)
(-0.0816 0.02777 1.739e-21)
(-0.1271 0.0317 1.75e-21)
(1.234 0.1813 0)
(0.749 -0.2898 1.599e-21)
(-0.1769 0.06107 0)
(-0.1739 0.05025 2.081e-22)
(1.019 -0.003948 -7.209e-21)
(0.2453 -0.01197 4.808e-22)
(-0.1845 0.05079 -2.911e-21)
(0.3998 -0.06304 2.339e-21)
(1.083 -0.1155 -4.358e-21)
(-0.1758 0.0498 1.25e-21)
(1 0.001408 0)
(0.9998 0.001805 1.288e-20)
(0.8887 0.2364 -1.592e-20)
(-0.21 0.05018 -3.039e-21)
(1.021 0.7683 0)
(0.9906 0.006135 -2.943e-20)
(1.004 2.132e-05 -5.373e-22)
(0.7759 -0.2626 0)
(0.5892 -0.2572 0)
(-0.1756 0.06287 2.264e-21)
(0.6766 -0.2713 0)
(-0.0829 0.02836 6.222e-21)
(-0.03293 0.01076 0)
(0.9579 -0.2011 -6.332e-22)
(1.013 0.03296 0)
(0.9999 -0.0004419 6.836e-21)
(-0.114 0.03998 3.2e-21)
(-0.1581 0.04389 -2.05e-21)
(0.9644 -0.2201 1.178e-21)
(1.003 -0.001213 1.145e-20)
(-0.03738 0.0003766 5.122e-21)
(1.099 -0.1082 0)
(-0.2029 0.05453 7.443e-21)
(0.9647 -0.004276 8.761e-21)
(0.2683 -0.03327 2.409e-22)
(0.9904 0.005879 5.428e-20)
(-0.1708 0.06079 -1.128e-21)
(-0.07639 -0.01391 0)
(0.3414 -0.02059 5.139e-22)
(1 3.004e-05 1.922e-22)
(-0.1291 0.04302 -1.058e-20)
(-0.1233 0.03058 -8.632e-22)
(0.1035 -0.06055 -9.705e-21)
(1.004 -0.000104 -1.662e-21)
(1.015 -0.1584 1.299e-21)
(-0.03624 0.01215 6.001e-22)
(0.9976 -0.0006711 0)
(1.068 -0.1262 0)
(0.9932 0.01115 -8.522e-22)
(0.8641 -0.05792 2.55e-21)
(0.1653 0.01577 0)
(0.9946 0.003794 3.019e-20)
(-0.1835 0.04529 1.636e-20)
(0.5889 -0.08013 1.081e-21)
(0.002978 -0.02914 0)
(-0.2337 0.03791 -6.472e-21)
(-0.0152 0.01789 -1.052e-21)
(0.453 -0.04986 -4.373e-21)
(0.4705 -0.05722 -1.235e-21)
(0.1707 0.03242 -4.769e-20)
(0.7629 -0.07169 -1.031e-21)
(1.242 0.7548 1.159e-21)
(0.7572 -0.03774 -2.147e-21)
(-0.1252 0.03206 -7.046e-22)
(-0.04545 0.03387 -2.009e-21)
(0.3134 -0.02854 1.105e-21)
(1.003 -0.001175 0)
(0.572 -0.1202 -1.904e-22)
(0.9933 0.00453 -1.238e-20)
(0.2033 0.2076 -2.508e-20)
(1.04 0.01793 4.538e-20)
(-0.05742 0.02023 6.925e-21)
(1.003 -0.0002789 0)
(0.9967 0.01195 1.794e-20)
(1.09 -0.07837 1.941e-20)
(0.7245 -0.288 8.647e-22)
(-0.1942 0.04605 3.407e-21)
(1.003 -0.000598 1.015e-20)
(1.002 -0.001537 -1.577e-20)
(-0.1258 0.0428 -2.436e-21)
(-0.06205 -0.006493 0)
(-0.1938 0.04524 7.252e-21)
(0.375 -0.03088 -3.223e-21)
(-0.1549 0.01711 0)
(0.688 -0.2484 -5.566e-21)
(-0.1692 0.04437 -4.685e-22)
(0.677 -0.2795 0)
(-0.1658 0.02779 -9.576e-23)
(-0.1608 0.04698 -2.759e-20)
(-0.1362 0.01246 0)
(1.003 -0.000631 -1.8e-21)
(-0.1716 0.01495 1.538e-20)
(-0.1582 0.02673 3.427e-22)
(1.011 -0.152 -3.878e-22)
(1.265 0.06628 0)
(0.9974 -0.007842 -2.506e-20)
(1.004 2.319e-05 5.122e-23)
(0.2782 0.0137 -7.5e-21)
(0.3068 -0.1735 3.192e-24)
(0.2248 0.0229 1.338e-21)
(-0.01934 0.005972 1.062e-21)
(1.039 0.0189 0)
(1.004 -5.836e-06 2.432e-23)
(-0.1615 0.04956 0)
(-0.2263 0.03065 0)
(0.9336 0.01557 -8.655e-20)
(-0.2096 0.03148 -6.424e-21)
(1.006 -0.1277 0)
(0.9949 -0.002998 -2.269e-20)
(-0.1272 0.0382 1.02e-20)
(0.9443 -0.2155 -4.821e-22)
(-0.1516 0.02642 2.226e-21)
(0.8226 -0.1434 -4.034e-20)
(0.0004463 -0.0001435 0)
(-0.05795 0.01917 0)
(-0.1961 0.06973 -5.94e-22)
(-0.1967 0.06821 1.234e-21)
(-0.192 0.05298 0)
(-0.2532 0.03705 6.448e-21)
(0.3068 -0.0435 -5.587e-22)
(-0.2641 0.04107 0)
(0.9628 -0.0187 -1.136e-20)
(-0.173 0.03618 1.033e-20)
(-0.02978 -0.01086 0)
(-0.171 0.03853 -3.973e-21)
(1.001 -0.001121 3.617e-20)
(0.8594 -0.1339 -1.177e-21)
(0.8329 -0.2078 0)
(0.5476 0.0595 -3.419e-20)
(0.9978 1.526e-05 2.7e-23)
(1.001 -0.001159 -4.82e-20)
(0.0003804 -0.01153 0)
(1.072 -0.03017 -5.228e-21)
(0.6288 -0.1172 2.262e-22)
(-0.2437 0.03335 -3.909e-22)
(0.5216 -0.2772 0)
(0.06779 -0.00701 1.373e-20)
(1.263 0.2094 0)
(0.3278 -0.02795 1.419e-21)
(0.6783 0.02871 4.903e-20)
(0.7292 -0.1971 0)
(1.01 0.001237 -1.439e-20)
(1.003 -0.0006862 0)
(1.232 0.4516 0)
(0.9517 0.2907 0)
(-0.2151 0.04112 1.045e-21)
(0.5541 0.04613 0)
(0.4231 -0.1739 3.525e-21)
(-0.1536 0.03756 0)
(0.6637 -0.273 -2.864e-21)
(1.14 -0.05802 1.101e-19)
(0.7613 -0.09952 4.129e-20)
(1.001 6.963e-05 -8.715e-23)
(0.4094 -0.02702 -9.677e-22)
(1.005 -0.07305 -1.189e-22)
(0.6893 -0.1608 -3.945e-22)
(-0.0004856 -0.002255 1.792e-23)
(1.039 -0.1589 4.495e-22)
(0.1484 0.03796 -1.272e-20)
(-0.1532 0.04895 6.501e-21)
(1 4.071e-05 -1.795e-22)
(1.058 -0.1137 7.724e-23)
(0.6905 -0.05956 -2.842e-21)
(-0.03249 0.01118 0)
(0.03134 -0.03626 7.877e-21)
(-0.03151 0.0153 5.333e-21)
(-0.1656 0.02788 -1.442e-21)
(0.9251 0.7894 0)
(-0.176 0.0476 5.277e-21)
(0.5534 -0.2898 5.077e-21)
(-0.09533 0.03126 -1.399e-21)
(0.7758 -0.1901 1.913e-22)
(1.027 -0.1101 2.205e-21)
(1.089 -0.1127 1.502e-21)
(-0.1235 0.03803 2.896e-21)
(0.9841 -0.1611 7.144e-22)
(0.002395 -0.0001433 0)
(0.8302 -0.2088 0)
(0.9454 0.05392 3.038e-20)
(0.9538 -0.2147 -2.502e-22)
(0.7031 -0.2933 4.81e-21)
(0.8882 -0.0925 -5.764e-22)
(1.005 -0.0008697 0)
(-0.05315 -0.009158 -3.664e-22)
(0.01465 0.01389 -9.914e-21)
(-0.1755 0.06311 -2.097e-21)
(1.004 5.487e-06 -7.607e-23)
(-0.01893 0.007016 0)
(-0.1772 0.05102 0)
(0.2709 -0.03693 4.231e-21)
(1.002 7.731e-05 5.028e-22)
(-0.2617 0.04117 8.363e-21)
(-0.1522 0.04537 0)
(-0.251 0.04741 1.112e-20)
(-0.2264 0.03937 -6.1e-21)
(1.001 2.337e-05 -4.308e-22)
(-0.1646 0.05962 -3.634e-21)
(-0.02091 0.0008855 0)
(-0.1618 0.04426 1.272e-20)
(-0.1518 0.03349 0)
(0.9907 0.01741 -4.805e-21)
(-0.05988 0.02773 1.307e-21)
(0.02628 0.1977 0)
(1.019 0.001196 -1.478e-20)
(1.006 -0.181 -2.444e-22)
(0.9657 -0.1882 0)
(-0.2507 0.03697 -6.266e-21)
(-0.1682 0.04968 0)
(0.9026 -0.2015 -4.231e-21)
(1.039 -0.1591 0)
(0.2009 -0.02367 6.826e-22)
(-0.1353 0.04205 0)
(0.9984 4.582e-06 -4.711e-22)
(-0.1652 0.05984 3.44e-21)
(-0.1211 0.0536 4.968e-22)
(0.2218 -0.01812 0)
(0.4559 -0.06592 1.315e-21)
(1.238 0.1237 0)
(-0.1537 0.05706 0)
(-0.08626 0.02938 4.417e-22)
(0.9981 2.61e-05 1.702e-22)
(-0.1662 0.05416 -6.393e-21)
(-0.1274 0.03801 0)
(0.06348 0.02567 0)
(0.0005752 -0.01148 -2.003e-23)
(0.07682 0.0271 -1.427e-21)
(-0.1044 0.0357 5.69e-21)
(-0.197 0.03963 -8.384e-22)
(-0.1491 0.0304 0)
(0.9509 -0.2072 0)
(1 -0.0002712 1.744e-20)
(5.955e-05 -2.44e-05 -1.321e-23)
(-0.1809 0.05061 6.777e-21)
(-0.2296 0.0368 5.769e-21)
(-0.0877 0.03137 1.979e-21)
(-0.1917 0.06942 -4.112e-21)
(-0.1693 0.05919 8.028e-21)
(-0.1556 0.04965 -3.064e-21)
(0.5891 -0.04568 0)
(0.9998 -0.0004115 0)
(0.01362 -0.003543 0)
(1.06 -0.1247 -1.246e-23)
(1.001 3.714e-05 0)
(-0.1506 0.04614 -1.129e-20)
(1.275 0.5786 0)
(0.9981 -0.1523 1.17e-21)
(0.8079 -0.2775 -1.985e-21)
(1.004 -5.92e-05 -6.707e-21)
(-0.1671 0.04357 0)
(-0.08845 0.008319 0)
(1.01 0.001506 -4.649e-20)
(1.004 -6.632e-05 0)
(1.264 0.06381 0)
(-0.1044 0.04796 4.086e-21)
(-0.1549 0.01798 -1.662e-21)
(-0.1732 0.06077 3.489e-21)
(-0.1724 0.0619 3.147e-21)
(0.05449 -0.0009287 1.814e-23)
(1.054 -0.1337 0)
(0.6807 -0.127 -2.929e-20)
(1.001 -0.001176 0)
(-0.1622 0.04991 -3.169e-21)
(-0.1943 0.06871 0)
(0.4955 -0.03062 -2.291e-21)
(0.306 -0.02517 0)
(0.6661 -0.1976 -1.995e-20)
(1.004 -0.0003558 0)
(1.011 -0.008531 1.922e-21)
(1.003 -0.008625 2.148e-20)
(-0.03273 -1.938e-05 5.522e-21)
(1.001 -0.001107 6.345e-21)
(1.13 -0.06387 -4.108e-20)
(0.3339 -0.2015 1.109e-21)
(1.049 -0.1324 2.913e-21)
(0.2268 -0.03483 -2.265e-21)
(1.001 -0.001433 0)
(-0.112 0.0003329 -1.051e-21)
(1.05 -0.1261 -1.85e-21)
(1.001 0.006484 0)
(0.4132 -0.0503 1.815e-21)
(0.9989 -0.0001982 0)
(0.5964 -0.291 7.139e-21)
(-0.03605 0.07568 -5.968e-21)
(-0.2676 0.03745 -1.413e-22)
(0.4581 0.04716 0)
(0.1721 -0.008083 5.879e-22)
(0.9964 -0.008549 1.12e-21)
(-0.1685 0.04475 0)
(0.8141 -0.1525 -1.054e-20)
(0.3275 -0.02567 0)
(-0.01617 -0.01346 -9.639e-22)
(0.3218 -0.04086 8.339e-22)
(0.6921 0.962 -2.392e-21)
(1.237 0.1269 -1.084e-20)
(0.9875 -0.1703 -2.459e-22)
(0.7333 -0.2399 5.508e-23)
(0.06386 -0.005875 0)
(1 0.007927 0)
(0.7971 -0.008206 1.761e-20)
(0.6326 -0.2042 0)
(0.2662 0.08663 6.974e-22)
(-0.02945 -0.01028 2.583e-22)
(0.1319 -0.0275 0)
(1.003 -0.000335 0)
(1.062 -0.1005 2.96e-20)
(-0.1128 0.03898 -1.559e-21)
(0.245 -0.05589 -2.196e-21)
(-0.02708 0.0007405 2.222e-20)
(0.6064 0.1745 0)
(0.00312 -0.003046 -1.42e-21)
(0.1065 0.03724 -3.759e-21)
(-0.01671 -0.001479 5.129e-21)
(-0.2195 0.05335 -4.268e-21)
(-0.0951 0.03325 3.992e-21)
(0.02503 -0.003743 5.013e-21)
(0.09919 -0.007214 1.911e-21)
(1.007 0.04033 -2.4e-21)
(0.967 -0.1408 0)
(1.004 3.824e-05 0)
(1 2.45e-05 0)
(-0.1172 0.02496 3.244e-21)
(1.047 0.03785 1.803e-21)
(-0.2184 0.03445 4.966e-21)
(-0.1624 -0.05361 -1.887e-20)
(0.2629 0.5681 0)
(1.079 -0.09874 -1.216e-20)
(1.042 -0.03839 -2.317e-20)
(1.26 0.5812 2.907e-21)
(0.941 -0.2151 5.218e-22)
(1.011 -0.007362 3.248e-20)
(0.2389 -0.02084 2.599e-22)
(-0.186 0.06584 -1.232e-21)
(1.041 -0.03654 3.225e-20)
(-0.1843 0.04347 -1.79e-20)
(-0.01385 0.004979 -2.195e-21)
(-0.0628 -0.01713 0)
(0.984 -0.1967 0)
(0.03856 0.02547 -1.763e-20)
(0.02675 0.01063 0)
(-0.1573 0.05505 0)
(0.9942 -0.0002433 2.815e-20)
(-0.1207 0.03479 3.04e-21)
(0.6996 -0.1638 4.24e-22)
(1.004 -0.006657 0)
(-0.188 0.04734 8.36e-21)
(-0.1816 0.05053 0)
(-0.08363 0.03848 -2.038e-21)
(0.9987 -0.0001402 1.936e-21)
(0.8656 -0.005899 3.999e-21)
(0.4633 -0.05094 0)
(0.03937 -2.956e-05 3.665e-23)
(0.8113 -0.257 -4.704e-21)
(-0.01367 0.004564 0)
(-0.1513 0.04171 2.751e-21)
(0.6861 -0.2847 0)
(0.9655 -0.2127 -8.564e-23)
(-0.02552 0.008759 0)
(-0.1951 0.02126 4.076e-21)
(0.9998 2.829e-05 -8.426e-23)
(0.2816 -0.1652 0)
(1.18 0.3658 -1.33e-20)
(1.004 3.627e-05 0)
(0.7194 -0.2573 1.563e-22)
(0.002324 -0.0009642 1.565e-22)
(0.5997 -0.04824 -5.639e-21)
(-0.09692 -0.003111 -1.741e-20)
(1.142 -0.05574 5.745e-21)
(1.023 -0.154 3.795e-22)
(-0.01271 0.004187 7.539e-26)
(0.03257 -0.003497 -3.807e-22)
(0.6124 -0.06673 0)
(1.012 0.03276 -1.04e-20)
(0.9972 0.003974 6.356e-21)
(0.9955 -0.1881 0)
(0.639 -0.2608 -1.629e-21)
(-0.1705 0.05811 -1.151e-20)
(-0.1961 0.0459 0)
(0.3116 0.7904 -3.944e-21)
(0.3678 -0.1528 -2.098e-21)
(0.5089 0.003399 -1.875e-22)
(1.175 0.1222 -2.45e-20)
(0.3613 -0.1496 -2.056e-21)
(1.108 -0.02008 4.496e-20)
(-0.06207 0.004881 0)
(1.005 -5.465e-05 0)
(-0.1825 0.0678 3.275e-22)
(0.005057 -0.03241 -6.526e-23)
(-0.1194 0.02701 -7.897e-21)
(-0.192 0.05345 0)
(-0.1577 0.04428 0)
(0.9956 0.002542 -2.116e-20)
(0.9824 0.001868 1.486e-20)
(-0.1025 0.03569 0)
(0.9224 -0.1737 9.395e-21)
(-0.176 0.06079 0)
(0.6768 -0.0861 0)
(-0.1472 0.05285 -5.015e-21)
(-0.1748 0.05212 -1.495e-21)
(0.3951 0.02582 -1.073e-21)
(-0.06906 0.01377 -3.576e-21)
(-0.2153 0.02716 -1.615e-20)
(0.05971 -0.01079 -1.582e-21)
(-0.1091 0.02646 -2.786e-21)
(0.4301 -0.02992 1.715e-21)
(-0.1323 0.0388 1.047e-20)
(1.065 -0.1278 -3.874e-21)
(-0.1655 0.06153 4.009e-21)
(0.4364 0.9797 -6.026e-22)
(-0.1699 0.05954 -2.187e-22)
(0.00554 -0.03367 3.107e-22)
(-0.0009016 0.0001537 0)
(-0.1586 0.04475 0)
(1.005 -0.0008294 0)
(1.004 -0.00242 2.304e-20)
(-0.1585 0.05793 2.589e-21)
(-0.1917 0.06354 0)
(1.01 -0.1552 2.447e-21)
(1.003 2.134e-05 0)
(0.6429 -0.2786 -4.824e-21)
(-0.1698 0.04449 2.433e-21)
(1.098 -0.07243 -1.614e-20)
(-0.1552 0.05377 0)
(0.3783 0.01678 -1.258e-20)
(-0.1344 0.0413 -1.26e-20)
(1.117 0.6165 -1.303e-20)
(0.9999 0.000674 -4.914e-20)
(0.9886 -0.1587 0)
(1.114 -0.03881 -1.002e-20)
(0.241 -0.09539 0)
(0.2794 -0.02098 0)
(-0.1337 0.0364 3.832e-22)
(0.7031 -0.178 1.605e-20)
(0.815 -0.0112 3.246e-20)
(-0.2142 0.0392 0)
(0.6221 -0.05532 -8.976e-22)
(1.129 -0.08691 0)
(-0.1401 0.04082 0)
(0.6536 -0.2879 5.312e-21)
(0.8814 -0.1022 2.094e-21)
(-0.1908 0.06737 0)
(0.3525 -0.1526 -2.604e-21)
(1.006 -0.009546 -1.142e-21)
(-0.025 0.008546 0)
(-0.01458 0.00471 0)
(-0.1181 0.05267 0)
(-0.2283 0.03554 8.745e-21)
(0.01172 0.05497 -2.552e-20)
(1.002 0.01522 2.533e-22)
(-0.03163 0.008234 5.537e-21)
(0.06546 -0.01483 0)
(1 -0.0001618 0)
(0.9992 -6.363e-05 -1.364e-20)
(-0.1512 0.03558 1.535e-25)
(-0.1891 0.04472 1.045e-20)
(0.0006306 -0.0003169 -1.577e-22)
(-0.01949 -0.01747 2.986e-22)
(0.98 -0.1424 -3.342e-22)
(0.6773 -0.2505 0)
(-0.1109 0.03641 -1.2e-20)
(0.9967 -0.1554 0)
(1.038 -0.1271 0)
(0.9976 -0.009282 -9.054e-21)
(-0.09974 0.03279 -1.864e-20)
(-0.1223 -0.03089 0)
(-0.1345 0.0451 -1.096e-20)
(0.9739 -0.1926 0)
(-0.01543 0.003636 6.674e-22)
(-0.1842 0.06576 -6.094e-21)
(1.001 -0.0009046 -7.579e-22)
(0.06369 -0.01011 0)
(-0.156 0.05028 -2.717e-21)
(0.9999 -0.0007306 -5.629e-20)
(-0.2683 0.03874 -4.937e-21)
(1.001 -0.0001702 -5.577e-21)
(0.9951 -0.001829 2.338e-20)
(1.055 -0.1415 1.043e-21)
(0.9785 -0.1348 0)
(-0.03183 0.004539 -3.069e-20)
(0.9995 -0.001554 5.426e-21)
(0.4185 -0.04938 -2.155e-22)
(1.003 0.004617 0)
(1.28 0.5995 0)
(0.9885 -0.1225 -1.7e-21)
(0.2274 -0.02661 5.489e-21)
(1.07 -0.1186 -2.942e-21)
(0.5557 -0.1096 -9.798e-24)
(0.6035 -0.08651 0)
(-0.1176 0.03465 2.523e-20)
(1.082 -0.1193 4.276e-21)
(1.002 -0.002722 5.515e-21)
(1.007 -0.003893 6.009e-21)
(-0.1118 0.02615 4.105e-21)
(0.8658 -0.1593 1.227e-22)
(-0.1693 0.05909 -9.242e-22)
(-0.1199 0.03845 0)
(0.1483 -0.009507 1.779e-25)
(-0.09892 0.0322 -6.966e-21)
(-0.01585 0.005188 -1.876e-20)
(-0.2386 0.0384 8.68e-21)
(0.7115 -0.2 0)
(-0.1125 0.00231 -3.625e-20)
(0.5364 -0.05789 -4.384e-22)
(0.2019 -0.02684 0)
(0.8502 0.4201 1.289e-21)
(0.0692 -0.002699 0)
(1.002 -0.006944 4.682e-21)
(-0.2339 0.04704 2.28e-20)
(-0.05662 0.001512 5.562e-22)
(0.3266 -0.05391 0)
(0.9972 5.576e-05 3.492e-21)
(0.3856 -0.2476 6.364e-21)
(-0.1436 0.03642 0)
(0.9972 -0.09456 3.513e-22)
(0.9009 -0.248 3.831e-22)
(-0.1868 0.02978 -4.287e-22)
(1.05 -0.1238 -3.35e-21)
(-0.1677 0.03729 0)
(-0.07601 0.01887 3.273e-21)
(1.002 -0.09542 1.048e-21)
(-0.1273 0.04045 -6.994e-23)
(0.5341 -0.1469 -1.992e-21)
(-0.01495 -0.01427 1.052e-21)
(1.001 -0.0003984 0)
(1.139 -0.07746 -3.826e-21)
(-0.2403 0.04458 0)
(0.9954 -0.008431 0)
(-0.241 0.05123 0)
(-0.2002 0.02669 2.732e-21)
(0.9987 -9.147e-06 2.238e-21)
(0.9621 -0.1984 1.335e-21)
(-0.06178 0.01234 0)
(1.016 -0.02161 0)
(0.8696 0.4212 -6.564e-21)
(0.1068 0.003173 0)
(0.02275 -0.01293 0)
(1.009 -0.1333 -2.406e-21)
(1.004 2.688e-05 -1.454e-22)
(-0.226 0.05411 -2.353e-22)
(-0.1754 0.04982 -5.4e-22)
(1.011 -0.002768 2.771e-20)
(0.9268 0.3778 1.333e-22)
(1.057 0.08229 8.814e-21)
(-0.1686 0.04417 3.638e-21)
(-0.2003 0.0526 -9.627e-21)
(1.012 -0.1716 -5.303e-22)
(1.043 -0.03323 0)
(-0.02657 0.005458 -5.092e-22)
(-0.00422 0.001444 5.723e-22)
(0.5933 -0.1259 -8.04e-23)
(0.7346 -0.1171 -8.363e-22)
(-0.1402 0.04461 -1.83e-21)
(0.09868 -0.007877 0)
(0.9929 1.605e-05 -3.436e-21)
(0.8197 -0.08781 2.447e-21)
(1.004 0.005986 3.252e-22)
(-0.1646 0.04823 0)
(0.5814 -0.2576 -5.119e-21)
(-0.2519 0.04587 0)
(0.9008 -0.2474 3.436e-21)
(0.0003332 -0.0127 -5.626e-22)
(-0.1009 0.01529 0)
(0.9993 0.002761 -1.179e-20)
(-0.004481 0.001653 0)
(-0.07919 0.02543 0)
(-0.1188 0.03481 7.045e-21)
(1.081 -0.09163 3.637e-21)
(0.6287 0.2309 0)
(-0.09728 0.02401 -2.601e-21)
(0.07232 -0.03587 7.947e-21)
(0.2548 -0.01859 0)
(1.027 -0.1427 0)
(0.8811 0.02081 -8.358e-20)
(0.01544 -0.0007971 5.543e-22)
(-0.1918 0.06433 1.254e-21)
(0.6379 -0.04456 0)
(0.4521 -0.09583 -3.974e-22)
(0.828 -0.1267 0)
(0.4499 -0.2588 -1.041e-20)
(0.0001563 -0.01297 2.545e-21)
(-0.06229 0.02172 2.985e-22)
(0.9891 -0.1678 -1.637e-22)
(-0.1643 0.0545 0)
(0.4293 0.05243 0)
(0.516 -0.06283 1.85e-21)
(0.5787 -0.05955 -1.527e-21)
(0.5123 -0.04717 0)
(-0.01308 0.004702 0)
(1.065 -0.06173 6.54e-21)