/*--------------------------------*- C++ -*----------------------------------*\
  =========                 |
  \\      /  F ield         | OpenFOAM: The Open Source CFD Toolbox
   \\    /   O peration     | Website:  https://openfoam.org
    \\  /    A nd           | Version:  8
     \\/     M anipulation  |
\*---------------------------------------------------------------------------*/
FoamFile
{
    version     2.0;
    format      ascii;
    class       volScalarField;
    location    "30";
    object      k;
}
// * * * * * * * * * * * * * * * * * * * * * * * * * * * * * * * * * * * * * //

dimensions      [0 2 -2 0 0 0 0];

internalField   nonuniform List<scalar> 
127143
(
9.63e-15
8.4e-14
6.121e-13
3.127e-12
2.674e-12
3.302e-12
5.776e-11
1.406e-11
6.708e-12
4.414e-12
1.431e-10
1.756e-11
4e-12
5.395e-12
2.465e-05
1.543e-10
3.121e-12
0.07007
0.03289
1.338e-08
0.002896
8.086e-08
0.0001542
5.674e-06
7.296e-08
1.231e-07
2.679e-09
2.77e-09
1.115e-07
0.06675
2.002e-06
1.188e-07
3.554e-08
8.702e-07
0.0001511
3.483e-08
0.002197
0.00838
1.133e-05
7.249e-08
0.03321
0.0001535
0.0001529
3.002e-11
0.06809
1.066e-06
1.143e-07
0.008595
7.361e-06
9.149e-06
3.605e-10
0.0001496
0.000586
0.0001544
0.0001396
2.726e-06
0.0001395
0.0001652
0.0001474
0.0001544
0.0001532
0.01738
4.531e-05
0.0001482
6.732e-07
0.0001589
0.0001513
3.966e-05
4.014e-05
0.0002096
4.109e-06
5.867e-09
0.03349
0.0001474
0.0001458
5.889e-09
0.0001476
0.002115
2.704e-06
0.000149
8.925e-08
1.284e-08
7.024e-06
1.612e-07
0.02265
0.0031
1.879e-05
1.54e-08
0.0001576
4.108e-05
0.0001467
0.001519
7.937e-05
0.002928
0.0001235
0.0001724
0.0001533
7.423e-07
0.004182
0.0001513
0.0001489
8.489e-06
7.969e-06
0.0001111
0.003409
0.003913
3.321e-05
0.0002105
0.0001677
0.0001424
3.239e-05
1.38e-08
0.0008025
0.000169
0.0001455
0.0001507
0.0001477
0.0001459
0.0001475
6.405e-09
0.0001425
1.059e-05
7.059e-05
0.0001626
1.047e-07
3.237e-08
0.01144
0.0001489
4.087e-05
2.266e-06
0.0007873
0.0001844
5.805e-05
0.002227
1.004e-10
0.0008654
0.0001556
0.004123
3.076e-07
0.0001536
0.0001547
0.0001469
0.0008686
0.003718
0.0006147
0.0001553
4.124e-07
0.0001483
0.000159
3.28e-06
8.434e-05
1.05e-05
0.008702
0.000152
0.0001196
0.02283
0.0001653
1.872e-06
0.008854
5.469e-07
4.877e-06
4.755e-10
0.0001468
0.0008003
3.012e-07
1.095e-06
0.001112
0.0001561
1.969e-06
0.000149
8.389e-05
0.003763
0.000142
9.385e-05
0.0006183
0.009567
0.00018
4.257e-05
8.928e-06
0.0001565
9.468e-05
0.000155
0.01141
0.009859
2.618e-06
0.01797
0.0001515
0.0001683
7.519e-06
0.0001553
0.0003067
7.888e-05
0.0001552
0.0001936
5.354e-11
0.01094
0.000129
0.0001283
1.277e-09
0.0001458
0.0001453
0.0001492
0.004367
0.002703
2.396e-11
2.868e-05
0.0001532
7.781e-05
0.05719
0.0001455
0.0001867
0.0196
0.0001448
2.206e-06
0.000291
3.175e-10
9.468e-06
8.081e-05
0.0007532
0.0001532
0.0001848
0.0001462
9.851e-06
0.000595
3.586e-07
5.4e-05
6.953e-07
0.009132
0.0002159
0.007555
0.002381
0.0001548
0.03401
7.016e-08
0.002458
0.0001573
0.0007936
2.129e-13
0.0001453
0.0003923
8.976e-05
9.965e-07
0.01085
2.016e-06
0.001604
7.61e-09
2.011e-05
2.487e-09
3.487e-09
0.0002582
0.0001676
1.602e-07
7.661e-05
0.002876
5.978e-06
0.0001696
0.0001489
5.218e-06
0.0001334
0.0001509
0.01021
0.0001516
0.0006039
0.0001468
0.0004101
9.084e-07
7.414e-05
7.198e-05
0.0001555
0.0001426
5.344e-07
0.0006105
0.01175
0.0003707
5.759e-05
0.0003367
0.000849
1.274e-05
0.001165
0.0001534
0.0002208
0.0001844
0.0001119
0.0001455
0.0001455
4.936e-11
0.0006364
0.0001456
1.117e-05
0.000157
0.009162
0.000158
0.0001572
0.0001334
0.0001451
0.0001758
2.505e-06
0.00186
0.01078
0.0001414
8.796e-07
0.0001599
0.0001551
0.0001543
2.776e-07
0.0001377
7.826e-05
0.0001449
0.02767
6.68e-05
2.985e-05
0.0002281
1.706e-06
0.0001949
0.0001454
5.549e-05
0.004289
7.712e-07
0.0001592
0.005889
0.000154
3.097e-06
0.0001514
7.591e-05
5.214e-05
0.002216
0.0001503
0.004259
4.379e-06
0.000187
0.01229
0.0001455
0.0001511
0.0001291
0.0001284
0.0001519
0.0001679
0.0001423
0.01229
0.0004249
0.0001536
8.035e-05
0.0008383
0.0003837
0.0001769
1.058e-05
3.026e-05
0.0002905
1.194e-06
1.496e-05
1.536e-06
0.03336
0.007425
0.0003546
0.0001495
4.691e-05
0.002852
0.0001625
0.000149
4.326e-06
0.01489
5.014e-05
0.06464
1.02e-05
1.012e-05
0.0001468
0.0001457
0.003569
2.691e-06
0.00117
0.0001557
0.0001515
3.382e-07
8.974e-06
0.0001546
0.0001537
3.091e-06
2.59e-07
0.005255
0.001221
0.05641
7.434e-08
1.748e-06
0.0001597
0.0001476
3.426e-09
0.0001504
9.446e-08
0.01029
0.02067
0.0001463
0.0001535
0.0001404
6.232e-06
7.367e-06
1.946e-06
0.0001536
2.788e-06
0.0001494
0.0001513
1.577e-07
0.0001462
0.002286
0.01204
0.0001504
7.33e-05
0.004059
5.825e-05
0.000149
1.111e-05
0.0001364
9.993e-07
0.0001547
0.009316
8.331e-05
0.0001359
0.002521
3.219e-07
0.002649
1.747e-05
0.001252
3.863e-07
0.0001769
0.0002187
0.007216
0.0001511
0.0001527
0.000153
1.412e-06
0.0001532
0.0001413
0.0001779
0.006112
0.004881
0.0001676
0.0001468
7.117e-05
3.236e-05
0.0001494
0.0001451
0.0001453
1.177e-05
0.0001558
0.000172
0.0001482
9.219e-07
0.0001454
4.63e-05
0.003848
0.01975
0.003947
2.942e-06
7.86e-05
1.597e-06
0.0001503
0.003975
7.35e-07
1.848e-06
0.004184
0.0007409
6.079e-05
0.0001393
0.01353
0.0001572
0.0001263
0.0004778
0.0001464
0.0009438
3.251e-05
0.0001386
0.006015
0.0002331
0.0001627
0.004886
0.000153
0.0001347
0.0001494
0.0001969
8.819e-05
0.001193
1.273e-07
5.504e-05
1.488e-05
1.857e-06
0.0001622
0.0001675
0.001654
0.0001448
9.175e-07
0.0001469
8.832e-05
2.197e-05
0.0003927
0.0001485
2.306e-10
0.0005695
0.0001573
0.0001601
0.000161
0.0001449
1.17e-07
0.0001464
0.007993
0.01152
1.877e-12
1.019e-09
4.008e-09
0.000147
5.283e-05
5.464e-05
0.0001454
0.01523
5.382e-05
0.0008668
0.0001119
0.003714
2.819e-06
0.006103
3.916e-08
0.0004157
0.01946
1.877e-08
1.17e-05
1.035e-06
0.0001154
0.000147
8.77e-05
0.002541
0.0142
0.0001457
5.416e-07
9.7e-07
0.0001146
0.0001304
0.0009421
0.0001569
4.663e-05
0.0001534
1.001e-06
0.02188
0.000147
0.0002846
0.0001474
0.0001387
0.0001598
0.002103
3.297e-06
1.09e-05
2.433e-05
1.417e-05
0.0107
0.0001831
2.439e-05
0.001204
0.0002103
0.0001465
1.324e-07
0.001049
7.396e-07
5.269e-05
0.01077
0.0001483
0.0001479
0.0001508
2.613e-05
0.0001674
0.0001454
0.000141
0.0001667
4.986e-06
0.004161
0.0001614
1.122e-05
2.819e-07
0.0001571
0.0001471
0.0001426
9.434e-05
0.004501
4.962e-05
0.0001568
5.519e-09
5.935e-05
0.0002301
0.0012
2.572e-07
0.0001454
0.004514
0.01465
0.02344
0.0001338
9.29e-05
0.01023
7.282e-09
0.0001346
3.528e-05
1.042e-05
0.0001453
7.366e-05
0.0001455
2.128e-05
0.001677
0.0001455
1.22e-05
3.634e-06
0.0003371
9.753e-05
0.001122
1.865e-06
2.012e-06
0.0002031
1.406e-05
9.614e-05
1.156e-05
0.005203
0.0002826
4.811e-07
0.0001485
2.138e-06
0.0001454
0.0001683
0.0001489
0.0009287
0.0001413
0.0001456
0.0001629
1.859e-05
0.001471
0.0001383
0.0001412
0.0002769
1.271e-07
1.39e-05
1.067e-06
0.02202
0.0001713
0.004098
0.0001308
0.0004026
9.738e-05
3.046e-07
0.0001385
4.183e-06
0.0004232
0.0001648
0.0003468
0.0001469
0.0001408
0.002486
5.995e-07
0.00167
7.836e-07
0.0001488
0.0001431
0.0005149
7.23e-06
0.0001491
1.702e-06
0.0001567
0.0001641
3.417e-05
0.0001303
0.0004603
0.0001525
5.063e-11
7.078e-05
0.004355
0.003893
0.0006729
4.294e-05
4.441e-07
1.139e-05
0.0001489
7.739e-05
0.002047
0.002435
0.0001417
1.429e-05
0.0001562
0.0001523
0.0001303
0.0001415
2.471e-07
0.0001602
3.809e-06
7.701e-05
6.324e-05
0.02735
0.0001594
5.677e-07
0.0001515
6.518e-06
0.0001447
0.0001393
0.000171
0.0001511
4.078e-06
0.0001523
8.024e-07
0.01949
8.819e-06
0.0001656
0.06325
0.0001409
1.135e-06
0.000153
4.955e-06
1.075e-10
5.662e-05
0.0004606
0.00568
0.0001353
4.575e-05
1.023e-05
4.041e-07
0.04773
0.008271
0.0004017
4.839e-06
0.002448
1.947e-05
0.02475
8.905e-06
3.897e-05
6.713e-05
0.01183
0.0001605
1.578e-14
0.0001561
0.000149
3.108e-05
6.063e-05
2.188e-05
0.000144
0.006778
0.03401
0.004272
0.0001464
6.566e-07
0.0002223
2.452e-07
0.0001579
8.893e-06
0.004283
1.937e-05
3.739e-05
0.0001489
0.006181
0.0002074
2.043e-05
0.002457
0.0001459
0.0008428
0.0001629
0.0001461
7.806e-05
0.0001659
5.039e-05
0.0005918
0.0001588
5.622e-05
9.171e-08
0.0001118
0.0001278
0.006117
0.01761
1.179e-07
1.335e-06
0.000155
0.01558
1.888e-05
0.0001283
0.0009714
3.626e-05
0.001303
1.346e-07
0.001326
0.0001323
0.0006734
0.01286
0.0001532
0.0001469
2.099e-11
0.0008219
0.0001134
2.15e-05
0.005285
0.0002705
0.0003457
5.783e-06
0.0001424
0.03789
0.000111
0.0001433
0.000204
8.951e-05
3.236e-05
7.02e-05
0.0001364
0.004444
0.008256
0.0001447
0.000136
0.000355
0.01693
0.02188
0.0003278
0.004741
1.173e-09
9.613e-05
0.0001528
0.0001418
0.002328
0.001591
2.458e-06
4.303e-07
0.0001556
0.0001926
0.0001467
0.002327
5.32e-09
0.0001419
0.0001624
1.508e-06
4.478e-05
1.041e-07
0.0001486
0.01616
4.298e-05
0.0001459
1.262e-06
0.0001416
5.737e-05
1.267e-06
2.791e-05
0.001037
3.633e-08
0.0001463
2.056e-05
0.0001527
6.399e-07
0.0008852
5.162e-07
4.532e-06
0.0001549
0.0001653
0.0001639
7.717e-10
0.0001458
0.02049
3.793e-06
8.504e-06
0.001891
1.44e-08
0.0001886
0.0002535
8.998e-05
8.618e-08
8.53e-10
4.996e-05
4.289e-10
1.131e-05
1.435e-10
0.0002573
2.842e-05
0.03869
5.456e-09
0.0001475
2.673e-05
0.0001336
0.0001324
0.0007421
0.0001497
0.0001393
0.04221
0.0001663
0.0001498
0.0001553
3.834e-05
2.841e-05
0.0001463
0.04838
0.001737
0.0001552
8.603e-06
1.255e-08
0.01517
8.882e-05
2.933e-05
0.005668
0.0001747
0.000145
0.0004038
5.356e-06
0.0001486
1.896e-05
0.001078
0.01884
0.0001379
0.006455
0.05767
5.318e-10
0.0001641
1.19e-08
0.0062
0.000109
3.631e-05
6.323e-06
2.531e-06
0.0001302
4.75e-07
0.0001534
0.0001312
0.0001745
6.166e-08
0.04208
2.593e-06
8.001e-05
0.000137
2.644e-06
8.72e-11
5.556e-06
0.0001471
0.0001461
8.657e-05
0.0001748
0.0005857
1.417e-05
0.0001973
5.099e-07
0.003948
0.0001523
4.445e-07
0.0001537
1.495e-08
0.0001445
0.007541
0.000147
0.001909
0.000185
0.004451
0.0001457
0.0001459
3.414e-05
0.0001551
0.000774
6.691e-06
0.0001363
0.01478
0.001897
2.129e-05
7.55e-06
7.767e-10
0.0006952
1.428e-06
2.321e-05
7.643e-05
0.01336
0.0001957
0.0002834
6.826e-05
1.985e-07
0.004155
0.0001441
0.0001429
0.007458
0.007189
0.0001643
0.0001393
0.00013
0.004012
0.0001618
0.0001541
0.00274
6.711e-05
0.0001578
0.000149
0.000161
0.000163
8.034e-08
3.183e-07
0.004618
0.000154
0.02524
2.666e-06
6.537e-06
6.255e-05
0.02013
9.216e-05
2.091e-05
0.001148
4.27e-07
0.0001491
1.583e-07
6.044e-06
0.01805
0.0001134
2.379e-05
0.0001456
8.607e-09
9.487e-10
0.0001364
0.0001441
0.0002974
0.001819
3.059e-08
0.001749
2.808e-05
7.831e-06
4.855e-05
0.0001625
0.0001644
0.0001478
3.034e-05
0.02629
0.0001231
0.0001483
2.856e-05
0.002609
0.0001512
1.002e-09
0.002123
0.0001453
1.719e-05
0.0001418
0.0001447
6.525e-05
0.0001546
1.675e-09
0.0001442
1.345e-06
0.000146
7.903e-05
0.0001543
0.05077
9.574e-05
2.156e-06
4.072e-06
2.734e-05
5.379e-05
0.0001983
0.0001555
0.001822
1.353e-05
0.0002759
6.211e-05
2.392e-08
2.868e-05
9.642e-09
8.142e-05
5.939e-06
1.298e-06
3.684e-06
9.324e-08
0.0001516
0.04
0.0001739
1.131e-05
0.003582
3.611e-07
0.0001797
1.898e-05
0.008259
3.548e-05
3.509e-05
0.000289
0.0001566
2.726e-06
0.01484
3.582e-05
0.001058
1.837e-06
0.0008401
0.0001372
6.502e-05
1.007e-05
0.0001459
4.656e-05
1.644e-06
0.000138
0.0001573
0.001206
0.0001537
0.0001517
0.005895
0.006387
0.0001582
0.0001318
8.629e-05
0.0001504
0.0001449
0.0001515
0.0001503
0.004173
7.778e-05
9.821e-05
0.0001547
0.0001281
2.463e-07
2.271e-06
7.034e-06
0.008706
5.355e-09
0.0002013
1.672e-05
0.0001456
0.001914
0.0001722
4.31e-05
3.454e-05
0.0001741
5.419e-08
0.0001471
4.406e-09
6.493e-06
1.117e-05
5.003e-05
7.224e-06
0.01437
0.04855
2.075e-07
3.84e-05
0.0001501
7.09e-12
0.005023
6.337e-06
8.254e-07
1.284e-05
6.056e-05
0.007325
3.669e-06
3.098e-05
0.0006071
0.0009445
2.909e-06
4.746e-06
0.04029
1.032e-08
0.0001589
2.516e-05
0.0001568
1.415e-06
0.0001309
0.0001448
0.003247
3.714e-09
0.00622
0.002654
3.354e-09
4.792e-05
0.0001458
1.933e-07
2.851e-05
0.001635
1.169e-07
0.0001647
0.001811
1.625e-10
0.04874
9.536e-07
0.009608
3.699e-05
7.768e-08
5.591e-06
5.305e-07
0.0001573
1.392e-05
0.0001581
0.05783
0.000143
0.0003352
0.0001183
3.246e-05
0.01868
4.296e-06
0.01163
0.0001622
0.0182
0.0001532
0.0001584
8.583e-05
1.015e-08
0.0001506
1.94e-08
2.741e-06
0.0008953
0.001157
0.0001459
0.0127
0.0002339
0.0001613
3.987e-06
1.207e-06
3.348e-07
0.0001427
3.726e-06
9.455e-05
0.0009461
1.244e-09
0.0001371
0.03146
9.515e-05
0.0001463
8.28e-05
0.0008985
7.141e-08
6.545e-05
0.0001614
0.005844
0.0001453
6.382e-11
1.304e-09
0.003083
0.0001653
0.0001269
0.0001354
0.0001315
0.0004713
0.01976
0.0251
0.0001537
0.0001543
0.0001561
0.0001613
0.002038
0.02296
4.464e-06
7.805e-06
7.823e-10
0.0001665
4.167e-07
0.001665
0.0001354
0.0001317
2.201e-06
0.009428
4.55e-05
6.931e-10
0.001917
0.01802
0.0005204
5.058e-05
0.0009664
1.041e-09
0.05907
0.0009589
0.01686
0.01688
0.0001056
9.656e-06
7.296e-10
0.0001549
0.0002213
0.0001413
6.097e-06
2.675e-05
0.0001354
2.298e-05
5.614e-05
0.001413
3.169e-06
0.0001429
0.0001653
6.595e-11
0.0001456
1.079e-05
2.723e-05
3.506e-05
6.822e-07
0.0001654
0.000111
0.0002314
2.08e-07
0.0008838
2.55e-05
0.0001508
3.483e-05
2.86e-06
2.73e-06
3.695e-05
0.0008536
0.0001451
2.632e-05
0.03107
5.794e-07
0.0001425
0.01743
0.0007956
0.0001453
0.0001385
0.000179
0.0001456
0.01952
0.000138
3.498e-06
0.0203
5.697e-09
0.0004385
0.0008603
4.4e-06
0.00107
1.58e-05
5.853e-06
1.267e-10
0.0007377
0.0002271
0.001213
0.001759
0.01193
0.0001482
0.004688
0.0001466
0.009793
0.0001474
0.02146
0.0001435
1.776e-05
0.001456
0.0001379
0.0001445
0.001219
0.0001574
1.126e-05
0.0001544
0.0001339
0.0001629
0.001733
0.0001499
2.517e-09
1.534e-06
6.067e-08
1.479e-05
5.552e-05
5.964e-06
1.52e-05
0.01197
0.0003485
5.856e-08
0.01623
1.168e-05
3.31e-06
0.0001744
0.0002709
0.02876
0.0001441
1.148e-10
0.001025
2.339e-07
0.0001458
7.718e-10
2.062e-05
4.612e-06
0.00169
0.000131
0.0001308
0.01709
0.05799
0.01296
0.01409
4.214e-05
0.0001658
0.0001565
0.007007
0.0001208
4.495e-07
0.000121
0.0001884
0.003017
0.0001046
9.882e-07
1.619e-05
3.491e-05
4.883e-06
0.006257
0.0001463
0.004064
0.002094
1.283e-08
0.0008476
0.0001538
4.421e-05
0.003017
2.003e-05
0.006724
3.476e-07
0.06199
0.0001455
0.008454
7.943e-05
5.807e-10
4.691e-07
0.0001642
0.0008371
8.046e-06
0.000158
0.0001305
4.296e-05
3.636e-05
3.574e-10
0.0001517
1.389e-08
0.002122
0.0001439
6.44e-06
9.409e-05
0.01314
0.0001518
0.00467
0.0002263
4.417e-05
4.995e-05
0.03347
2.767e-06
0.0001523
2.695e-05
7.007e-06
1.183e-06
0.0001796
0.000179
3.222e-06
0.0001749
1.109e-09
0.0001357
7.195e-07
6.41e-07
1.087e-10
0.003733
0.0002306
0.0001491
0.0001457
0.0001437
0.01065
0.0001434
1.492e-09
0.0001454
3.511e-07
0.0001578
0.0001212
9.041e-05
1.471e-06
0.0002353
4.205e-07
0.0001593
0.000135
0.005154
7.104e-08
0.0001448
7.105e-05
3.106e-05
0.006251
3.344e-05
0.0001251
0.003232
4.235e-05
2.565e-05
0.0001538
0.0001372
1.959e-06
0.0001841
0.0001329
0.0001594
9.643e-06
0.0001372
1.397e-07
0.0001462
0.0004275
0.0006015
0.007557
0.0001938
0.0001392
0.006292
1.299e-05
0.007891
0.0001516
7.993e-05
0.0001547
0.0001454
0.0001417
0.0003582
2.43e-09
8.428e-05
3.248e-05
0.0001494
9.37e-08
0.0001636
0.0001529
0.0001732
0.0001693
0.0002523
1.782e-06
0.0001501
2.067e-05
0.0001468
0.0003258
0.0001486
0.0001523
3.214e-05
0.014
0.0001619
1.209e-06
0.0001532
0.0001415
0.001172
1.905e-07
7.259e-05
8.06e-10
4.58e-07
0.02333
0.0001531
0.00017
5.112e-07
0.0008334
2.038e-05
3.12e-06
0.000206
0.0001548
0.0001444
2.048e-05
1.389e-05
0.0001032
0.0001459
0.0003519
0.0001456
0.0001632
0.0002536
0.000143
0.02662
0.0001667
0.0001065
0.005684
0.002394
4.797e-06
0.0001466
6.393e-06
5.163e-07
0.0001323
0.03054
1.496e-05
0.0001583
0.0008972
0.007853
2.846e-06
6.541e-05
0.005628
1.179e-06
0.0001719
1.899e-05
1.168e-06
0.0001573
0.0001539
5.135e-05
0.0001518
8.589e-06
0.003577
0.0001516
3.677e-05
0.0001483
0.0008006
3.112e-05
0.05728
0.0003869
0.0006939
9.253e-10
0.001756
9.413e-09
0.0001568
0.0001376
9.724e-09
2.099e-05
0.0001573
4.194e-06
0.000151
0.001177
0.0001491
0.0131
1.992e-08
0.007973
0.0001672
4.04e-05
2.004e-05
0.0001464
4.278e-05
0.0001534
0.0001655
6.222e-07
0.0001493
3.4e-05
2.013e-07
0.0001444
0.0001488
0.006111
0.0001956
0.0002391
0.0001553
0.0001616
0.0001368
0.0001621
0.01594
0.0002238
0.00016
0.0001114
0.0001373
0.000154
3.151e-06
1.218e-08
0.0001397
0.000153
1.679e-08
0.02528
2.851e-06
0.01525
1.789e-05
1.119e-08
0.0001716
0.0002738
0.003722
0.000151
1.506e-06
0.0001651
0.01182
7.203e-08
3.172e-05
0.000149
6.072e-06
4.99e-11
5.255e-10
0.005812
0.0031
5.166e-05
0.0001551
0.0117
7.762e-05
0.01277
8.005e-06
0.0006294
0.001266
2.65e-05
1.008e-07
0.003552
0.0001421
0.0001453
5.114e-05
0.0001378
0.001824
0.0001525
0.0001512
2.176e-05
0.00568
0.03268
0.0001358
4.32e-06
4.7e-07
0.00304
8.805e-06
0.006593
8.973e-10
7.86e-06
0.0001493
5.36e-05
3.589e-06
0.001794
2.704e-05
4.051e-10
0.0001282
1.394e-07
2.167e-05
1.709e-05
0.0001349
0.007341
0.01387
7.536e-07
1.106e-05
0.02308
3.737e-07
0.000158
0.0001726
1.283e-05
0.0001533
0.02023
0.0001454
2.466e-06
1.369e-06
2.059e-05
3.89e-07
8.255e-07
0.00863
7.39e-09
0.0002685
5.899e-05
0.0001503
0.02131
0.0001512
0.04157
5.975e-05
0.01246
2.697e-05
0.0001979
3.139e-05
9.41e-11
1.938e-08
0.001888
0.003971
0.0001641
0.0001601
0.0001461
0.0001489
4.968e-05
0.0001635
0.000145
3.848e-05
2.424e-05
7.348e-06
0.0009355
9.523e-05
1.761e-05
0.002898
2.584e-05
9.969e-09
6.057e-07
0.0001563
3.072e-05
1.141e-10
0.01377
1.771e-05
0.04312
7.516e-05
0.0002444
1.234e-11
8.354e-05
7.39e-05
0.0001498
0.000156
1.981e-05
0.001444
0.0001455
0.000147
0.008865
3.863e-07
0.01909
2.78e-05
4.134e-09
0.0001896
0.0001493
5.751e-07
0.02043
0.00143
9.463e-08
0.0001634
0.02794
0.0006295
0.0004693
0.0001592
7.169e-05
0.0001465
0.0001175
0.02682
6.2e-07
0.0652
1.002e-05
2.219e-07
0.0001488
5.294e-07
0.003597
8.348e-06
2.092e-05
2.934e-05
0.0001515
0.01212
0.001475
0.003069
5.238e-06
0.001367
4.527e-06
3.323e-05
0.0001451
0.001321
0.04388
1.085e-06
4.099e-05
0.0006004
0.009173
0.0001537
1.259e-07
0.0001623
0.001105
0.01627
0.004179
0.02033
0.002051
0.0001849
1.126e-08
0.0001624
0.0001487
1.717e-05
0.0001395
0.01199
0.0001499
0.0001558
0.0122
0.0001439
0.0001639
1.148e-05
3.828e-05
0.0001456
0.0001484
0.02235
6.736e-05
9.441e-06
0.0001941
0.001444
0.005786
1.313e-06
2.219e-06
0.05791
0.0001017
0.002947
0.0001591
2.962e-05
1.938e-09
0.01777
3.389e-06
3.335e-06
0.01511
9.422e-10
0.0001454
0.0001372
0.000166
0.0001226
8.346e-11
0.0001459
0.01333
1.422e-05
2.198e-09
3.032e-05
1.857e-06
0.0001247
0.0001243
3.747e-06
7.645e-05
0.006923
0.0001377
0.00015
0.03203
0.0001418
0.000149
5.457e-07
1.952e-05
3.584e-05
0.009899
7.319e-08
0.006572
0.0001609
0.0001319
8.003e-05
1.95e-05
9.708e-07
5.376e-06
0.0004003
3.442e-07
0.0001958
0.0002584
2.918e-05
1.065e-05
0.0002754
0.0001544
0.000106
1.314e-06
0.0001342
0.0001323
6.137e-05
0.000806
1.982e-08
0.0001654
6.1e-06
4.682e-05
0.000361
0.0001454
0.0001694
0.0001482
0.002521
5.674e-09
0.0001875
0.0001568
4.526e-05
0.0001526
1.86e-07
4.358e-05
0.0001953
7.437e-05
8.587e-05
3.221e-05
0.01083
5.285e-05
0.0003126
0.0001367
0.0005133
0.002208
6.953e-05
0.01096
1.247e-06
2.626e-05
0.0007296
0.002031
1.991e-06
0.002027
0.0001843
2.646e-05
0.0001581
0.0001676
7.704e-05
7.664e-09
0.0001643
2.09e-05
0.0001472
0.01434
0.0001484
2.047e-05
0.0207
7.156e-09
0.0001141
0.000153
2.746e-06
7.227e-10
3.426e-07
0.0007314
4.263e-05
6.568e-07
6.587e-08
0.0006015
0.01033
6.186e-05
1.3e-10
0.0003905
0.001673
0.0001682
0.0001609
0.0001455
0.001798
3.962e-06
0.0001108
0.0001565
0.02136
0.000154
4.324e-08
0.000131
0.001811
0.000164
0.02505
2.478e-06
0.0001644
0.0001536
0.02401
0.0001505
2.119e-05
6.252e-05
2.656e-09
2.495e-05
0.0001862
0.0001429
0.003298
0.0008998
3.005e-06
9.18e-06
5.846e-05
0.02576
0.000151
0.0001454
8.172e-06
6.606e-06
0.000175
0.0001364
0.0009101
1.539e-07
1.06e-06
9.373e-06
0.0001705
0.0001605
0.0001559
3.07e-06
0.04084
0.0001537
1.091e-08
0.0001833
0.00226
0.0001455
0.0001473
0.0001552
0.0001463
3.553e-05
4.986e-05
0.006029
0.001817
1.116e-06
9.781e-08
0.000381
1.506e-05
0.0003905
0.01917
4.575e-09
0.002037
0.0005645
0.005782
1.091e-08
0.01057
5.268e-07
1.65e-08
0.0001495
7.776e-06
1.194e-06
0.0001174
0.007867
9.069e-06
8.731e-05
3.881e-06
0.00418
0.001701
0.0001491
0.03445
0.0001478
0.0001659
0.008326
0.0004158
0.000117
0.0004075
4.471e-09
0.008152
0.0001464
1.072e-05
0.001749
0.03005
5.069e-05
0.001109
0.0001881
1.655e-06
1.12e-06
1.122e-08
0.0001389
1.114e-05
0.0001597
0.0006521
0.0002169
0.0001517
9.936e-09
1.347e-05
3.71e-05
0.0001659
0.000144
3.806e-05
1.059e-05
0.01174
0.0001201
1.072e-08
3.115e-06
8.25e-05
0.01608
0.0002312
3.856e-06
0.0001447
2.327e-05
0.0164
0.0001513
7.551e-05
4.757e-06
0.0001452
4.858e-05
0.008258
0.0001067
1.186e-07
0.0001264
9.184e-05
8.298e-11
0.00227
1.197e-05
0.0001311
0.0001302
1.41e-05
0.002275
0.0001584
1.892e-06
2.927e-05
0.0001438
1.223e-07
1.078e-06
0.0004039
0.0001456
0.0001465
0.0004838
0.0007498
1.295e-05
1.591e-10
2.826e-06
0.0001534
1.818e-06
8.748e-08
0.0001544
2.579e-06
6.912e-06
0.0002744
0.0001591
3.584e-06
0.05241
0.008517
0.0001302
0.0001284
0.0001287
0.0001265
0.0001586
0.01584
7.647e-05
6.559e-06
9.684e-05
0.0006165
0.001707
1.42e-07
0.0001272
0.0003281
0.003374
3.952e-05
9.305e-07
1.855e-05
0.002686
4.467e-05
6.629e-06
0.000591
2.291e-05
0.0001615
3.452e-05
8.502e-10
1.755e-05
4.596e-08
0.000153
4.938e-05
0.0001454
1.001e-08
0.000702
7.388e-06
9.253e-05
0.0001504
6.69e-09
0.0001458
0.002333
1.859e-06
0.0001752
5.984e-05
0.0007713
0.005775
0.002446
2.246e-06
0.0001511
1.489e-05
0.0001369
0.000174
0.0006071
0.0001538
0.009813
6.786e-05
0.0001436
0.0001455
0.0001561
0.0004201
7.779e-06
0.0001693
0.005191
2.591e-05
0.0001303
2.97e-06
5.969e-06
0.0197
0.01916
0.01736
0.001119
0.0001614
6.227e-10
0.0001524
0.0001454
7.794e-08
0.0001453
0.0001448
0.0001596
0.0002674
9.113e-07
0.00741
4.132e-07
0.004405
7.093e-06
0.0001464
0.0001577
0.0005059
1.519e-05
0.01697
0.0001899
0.0001575
2.694e-07
4.12e-08
0.0001483
6.158e-09
5.188e-08
9.097e-11
0.0001987
0.02278
0.006507
0.0001548
0.0001484
0.02656
0.0001122
1.298e-07
0.0001511
1.508e-06
3.277e-09
0.0001455
5.031e-06
2.43e-07
3.092e-05
0.0001458
1.145e-06
2.579e-08
3.867e-10
1e-09
0.0001635
0.001406
1.367e-09
0.0001565
0.0006176
0.000144
0.005874
4.996e-07
0.02692
2.613e-05
1.052e-09
0.0001594
0.00506
5.931e-05
0.0001492
0.000153
3.133e-06
3.098e-06
0.03618
6.915e-06
7.551e-05
0.0001491
0.01217
0.0005736
0.000446
0.001461
0.0001455
0.0004751
0.0004409
1.532e-05
4.456e-05
4.135e-05
3.144e-06
0.0001054
1.068e-08
8.038e-11
6.393e-12
2.436e-06
0.0001539
3.849e-06
0.0001487
6.522e-07
1.66e-06
0.0001456
2.567e-09
0.0001489
0.0001725
1.818e-08
1.835e-07
0.005273
0.0001597
0.000124
2.969e-05
0.0001302
1.074e-09
0.0001938
0.0001644
0.01288
0.002133
1.159e-08
8.552e-09
9.017e-09
0.01138
5.003e-06
1.77e-05
0.004391
0.0001517
3.838e-05
5.719e-09
0.0001392
0.00165
4.578e-05
0.001807
5.325e-05
0.009206
0.0362
5.673e-08
2.754e-05
2.625e-05
1.418e-08
0.0001889
1.407e-07
0.0001525
4.808e-05
0.0002282
0.0001486
0.0001548
5.3e-05
2.836e-06
1.254e-05
1.134e-08
0.0001596
0.0001455
0.0001064
1.252e-05
9.473e-08
0.005768
0.02564
0.0001261
0.000151
7.192e-07
0.0001265
4.887e-05
7.797e-06
0.0001541
0.0001849
0.007154
1.035e-07
7.604e-09
6.592e-10
0.0001504
1.727e-06
0.001218
4.033e-05
0.02926
0.01819
3.679e-08
0.01164
1.467e-06
1.049e-05
1.931e-06
1.965e-05
0.0001576
8.843e-09
0.01692
4.338e-05
0.0006314
0.0001606
4.771e-05
0.0001628
0.000146
6.495e-05
0.0001567
0.0008862
9.233e-05
5.658e-05
1.05e-08
5.055e-10
0.02299
1.015e-08
0.0006237
0.0001609
0.0001502
0.0001543
8.113e-05
0.0001489
2.426e-05
7.353e-09
5.776e-05
6.717e-07
0.04191
0.00175
2.614e-05
0.0005087
0.01125
2.597e-06
0.01887
8.96e-08
3.427e-05
0.000136
0.001312
4.304e-05
0.0001477
0.0001553
2.593e-07
0.0001463
5.446e-06
0.0001059
1.168e-05
0.0001104
1.045e-07
0.0002385
0.0282
0.0001505
2.187e-06
1.686e-05
5.204e-06
4.557e-05
0.0001432
1.028e-05
0.0001442
0.0001674
0.0002007
0.02321
7.084e-10
0.0001498
1.782e-06
0.02289
1.28e-06
0.0001602
0.0004831
0.004682
5.57e-05
0.000139
0.0001179
0.0001463
1.124e-06
3.373e-06
0.0001104
0.001258
0.0001428
1.5e-05
5.031e-06
1.989e-05
5.762e-06
8.701e-06
3.048e-05
0.0001476
0.006032
0.0001248
0.0001505
1.085e-05
6.391e-05
0.000156
0.0001645
0.0001569
0.000143
2.62e-05
0.000137
0.000135
0.0001467
0.0001537
0.0001519
5.765e-05
2.856e-05
0.0001458
1.305e-05
0.0001407
2.411e-05
0.0001469
0.0001306
0.000152
2.464e-07
0.0002571
1.097e-09
0.001429
1.939e-07
0.0001511
0.000159
1.047e-08
0.0001503
2.476e-05
2.191e-05
1.582e-05
9.141e-05
0.0001058
0.000146
2.208e-05
0.0001504
0.0002807
0.001593
0.0004042
8.895e-05
0.003898
4.173e-05
1.077e-05
0.0001437
0.005732
5.148e-05
8.593e-08
0.0001516
0.0001481
1.922e-06
6.729e-07
0.00475
0.003364
7.546e-05
5.484e-06
0.0001536
6.332e-05
0.0004684
0.02022
0.00195
0.001767
0.000136
0.0001793
9.436e-10
0.0264
0.002183
1.783e-08
0.0001694
0.0001149
0.0001449
0.0001499
0.0001606
0.0001595
4.836e-08
0.0002819
0.000147
0.0001473
4.034e-05
5.844e-11
0.0001469
0.006452
1.465e-06
2.565e-05
0.0001308
3.227e-05
1.579e-05
7.014e-05
0.0001853
1.45e-06
1.078e-07
6.159e-07
0.000146
0.001139
0.001709
0.0004166
0.0001429
0.0001684
0.0002054
0.01119
0.0001055
3.737e-09
2.587e-07
0.05976
1.809e-05
8.044e-08
0.0197
8.886e-06
0.006203
0.0001646
0.0001614
5.194e-07
4.834e-09
0.0001443
3.238e-06
3.53e-05
0.0001469
9.78e-08
0.006949
0.0001712
0.0001554
0.0008011
1.669e-06
9.318e-05
7.382e-05
0.0001454
0.0001457
0.05311
0.002087
0.0001337
0.0001679
0.0001488
1.608e-06
0.02864
0.006976
3.696e-06
2.739e-07
0.04362
0.0002333
0.0001428
8.815e-09
0.0001693
1.215e-05
3.01e-06
0.0001538
1.336e-05
0.0001456
2.361e-05
1.355e-09
0.02853
1.125e-08
0.0001384
0.000142
0.002897
0.0001514
0.000143
1.12e-09
1.693e-05
1.274e-05
2.301e-06
0.0001803
0.001786
0.0001357
9.46e-10
0.0001561
4.01e-05
0.0001349
0.0001523
0.005669
0.003518
0.001219
0.0008957
0.02442
0.0001071
0.0001362
0.0009215
8.313e-06
5.088e-06
1.224e-08
0.0001609
0.01062
7.112e-05
0.0001471
0.0001741
4.743e-05
0.0002905
0.0001539
0.0058
5.356e-09
0.0001304
0.0001437
6.646e-05
2.326e-05
0.0201
4.184e-06
0.0001478
8.782e-06
0.0003689
3.354e-05
0.000148
0.0001532
9.227e-07
1.944e-05
3.142e-06
0.004092
0.0001811
0.0001365
4.854e-06
0.0001406
4.092e-06
1.001e-09
0.0001599
0.001883
0.01186
2.334e-05
3.484e-07
0.0001197
0.0001525
0.0001363
0.0001646
0.0001583
0.0001447
8.972e-06
9.322e-05
0.01802
0.000136
0.0001552
0.0001544
0.0001491
1.75e-05
0.001019
0.0001455
5.001e-05
4.057e-05
0.0001257
0.0001503
0.0001467
0.0001447
0.000158
0.002033
0.03502
2.113e-06
1.072e-09
7.233e-09
4.143e-05
6.596e-08
1.81e-07
0.0001481
1.359e-09
0.0001148
5.089e-06
0.02498
0.0001557
0.000162
9.069e-06
1.959e-06
5.162e-07
6.964e-05
0.0001565
0.003094
1.394e-05
3.884e-05
0.0001553
0.0001645
0.0009888
0.0001541
1.298e-05
0.0001472
0.001515
8.965e-05
0.0001405
0.0001527
1.843e-06
5.262e-10
8.703e-08
0.0001373
6.865e-07
0.001274
0.0001327
0.0001188
0.000146
7.843e-06
0.0001974
0.0003145
2.918e-06
2.889e-05
0.0001495
0.0001664
0.02689
2.2e-08
0.0001469
0.0001527
1.333e-08
0.0001055
0.0001443
1.797e-07
0.005548
0.0001527
0.0001526
0.03006
1.938e-05
1.287e-09
2.28e-06
8.691e-05
0.01345
0.0004463
0.000155
0.0001451
0.0001537
1.275e-05
3.66e-05
0.000334
0.0001479
1.32e-08
1.375e-05
6.085e-05
0.002364
0.002113
9.381e-05
0.0001342
0.0001558
3.431e-05
0.0002022
0.0001507
2.749e-05
2.474e-06
0.02433
0.0001675
0.0001757
0.01561
0.0001506
0.02083
5.981e-05
0.0001624
8.661e-05
0.0001477
6.746e-06
0.000397
0.00458
0.0001153
0.0001157
7.503e-06
0.0008365
4.037e-11
0.009373
0.0001583
0.0005009
0.0001414
9.961e-05
6.425e-05
1.292e-07
2.061e-07
0.0003599
4.947e-06
1.522e-06
0.0008019
0.0001588
9.522e-05
2.797e-06
2.776e-08
0.0003952
0.0001516
5.644e-07
0.0001659
5.093e-07
7.363e-05
0.01358
0.01504
1.271e-05
0.0001459
0.001289
0.0001675
0.0001448
0.0005921
5.299e-07
0.003033
2.227e-09
3.115e-06
0.0001535
0.0001448
0.001103
6.411e-05
0.0001629
0.0006366
0.0002943
4.067e-05
0.0002155
5.147e-06
0.0001465
2.832e-05
0.000138
0.0001157
1.672e-05
5.562e-05
0.0001183
2.44e-06
1.306e-09
0.000142
0.0001455
5.446e-05
3.725e-05
6.962e-07
0.0001459
4.156e-05
1.594e-06
0.01209
0.01508
0.0001458
8.493e-05
2.491e-07
0.0001517
0.004968
0.0001442
4.296e-05
0.0001518
0.0002628
4.8e-06
0.0004363
0.0006289
9.63e-06
0.0002243
0.0001498
4.866e-05
4.576e-05
0.0001863
0.0001435
0.0001484
5.199e-06
1.911e-05
6.54e-05
0.03197
0.0008976
0.05242
2.049e-05
7.264e-05
0.0001281
0.0001525
0.0001582
2.689e-10
1.464e-07
4.232e-06
0.0001426
2.333e-06
2.938e-05
3.581e-05
3.641e-05
5.999e-09
0.00016
0.000767
3.22e-05
4.27e-05
1.712e-06
1.062e-07
0.06385
0.0002033
0.04098
0.00015
1.273e-10
0.000147
0.02081
3.138e-06
5.798e-05
0.01521
4.883e-05
0.0003206
5.868e-07
0.01011
0.0001105
0.002601
0.0001053
5.341e-06
2.619e-10
0.006613
7.104e-09
1.266e-08
0.0001455
6.353e-09
0.0001499
9.087e-07
4.241e-07
0.0006032
0.04252
0.0006106
4.101e-05
8.436e-05
0.0001504
0.004208
0.008511
0.005639
0.01282
0.001103
0.0001575
0.0001364
0.05018
9.329e-09
0.0002979
6.944e-06
3.693e-05
2.11e-06
0.0001348
4.721e-06
0.0004386
4.764e-07
0.009932
6.233e-09
1.66e-05
8.272e-06
0.0001544
8.635e-08
0.0001532
0.0034
0.001897
0.0001582
0.0001612
0.004234
6.551e-05
0.00331
0.0002809
6.986e-05
1.848e-05
0.005029
6.649e-09
6.967e-05
4.983e-08
0.0001502
0.01123
0.0007725
0.01865
0.0001525
5.512e-05
0.0001454
0.0001467
0.0001454
0.00321
2.439e-05
0.000389
0.03068
0.0001513
0.006484
0.0001508
5.786e-09
2.946e-07
9.794e-09
1.282e-05
0.0001533
1.232e-06
9.621e-06
0.0001576
8.181e-06
0.0001464
0.001083
0.02733
0.0001446
0.03533
0.0001422
0.0001428
0.0001184
0.01823
0.0001515
1.155e-09
2.267e-05
0.0001398
0.0001459
4.921e-05
0.0001512
4.739e-06
1.987e-08
0.0001568
0.0001412
0.00011
3.8e-05
2.285e-06
1.135e-09
0.0001544
0.0001615
5.815e-05
8.094e-06
0.000153
1.165e-05
8.26e-05
0.000167
1.838e-06
0.0005702
1.298e-09
0.0001513
4.493e-05
4.747e-05
4.461e-06
0.0001462
0.00404
0.0001456
0.009288
0.02331
6.968e-05
0.0007202
9.19e-06
0.0001949
0.0001604
3.94e-07
8.219e-06
1.679e-05
2.467e-06
1.166e-06
0.001415
0.0002006
4.301e-05
1.204e-05
0.01143
9.46e-06
0.0001388
1.005e-08
7.705e-09
3.439e-07
5.98e-05
0.0001093