/*--------------------------------*- C++ -*----------------------------------*\
  =========                 |
  \\      /  F ield         | OpenFOAM: The Open Source CFD Toolbox
   \\    /   O peration     | Website:  https://openfoam.org
    \\  /    A nd           | Version:  8
     \\/     M anipulation  |
\*---------------------------------------------------------------------------*/
FoamFile
{
    version     2.0;
    format      ascii;
    class       volScalarField;
    location    "30";
    object      nut;
}
// * * * * * * * * * * * * * * * * * * * * * * * * * * * * * * * * * * * * * //

dimensions      [0 2 -1 0 0 0 0];

internalField   nonuniform List<scalar> 
127143
(
6.301e-23
2.923e-22
1.867e-21
2.238e-20
2.279e-19
2.334e-20
1.246e-17
1.736e-18
5.185e-19
2.338e-18
2.099e-17
1.649e-18
1.037e-20
4.559e-20
1.046e-08
4.896e-16
7.884e-20
0.005142
0.003786
1.065e-13
0.0001194
2.834e-13
6.668e-05
1.512e-08
2.374e-13
2.763e-11
1.159e-13
1.215e-13
7.192e-12
0.004973
2.214e-09
2.365e-11
1.427e-12
2.518e-10
4.997e-05
1.434e-12
2.147e-05
0.0001203
4.453e-08
9.053e-12
0.003799
4.126e-06
4.477e-06
5.467e-19
0.005159
4.093e-10
7.96e-12
0.000357
1.91e-08
3.022e-08
1.818e-15
0.0004484
1.703e-05
4.408e-05
0.006672
2.42e-09
0.006671
9.185e-05
0.005432
4.205e-05
3.977e-06
0.001885
3.948e-07
0.006702
5.774e-10
2.221e-05
6.188e-05
3.318e-07
3.404e-07
0.002518
8.21e-09
3.772e-13
0.002615
0.004777
0.006693
3.728e-13
0.0007695
3.67e-05
2.528e-09
0.006705
5.691e-12
1.149e-13
7.222e-09
3.569e-11
0.001479
6.859e-05
9.86e-08
9.457e-13
2.28e-05
3.111e-08
0.006652
0.0001321
1.085e-07
0.0001225
1.079e-06
0.0001115
4.484e-06
5.086e-10
0.000158
5.35e-05
0.006705
2.4e-08
1.325e-09
8.889e-06
8.158e-05
0.0001401
2.393e-07
0.002519
8.958e-06
0.00668
1.699e-08
6.886e-13
1.731e-05
7.691e-07
0.006694
2.868e-05
0.0005577
0.006693
0.0008188
5.56e-15
0.006681
1.106e-08
5.275e-07
0.0001108
7.015e-12
3.56e-12
0.001
0.0009264
4.926e-07
1.668e-09
8.35e-06
1.418e-06
6.894e-07
3.999e-05
2.243e-17
9.811e-06
0.0001827
0.0002478
2.362e-11
0.0001505
5.21e-05
0.0009584
3.275e-05
0.0002271
1.786e-05
1.339e-06
6.144e-12
0.006702
1.119e-06
3.517e-10
3.72e-06
3.013e-08
9.047e-05
2.802e-05
4.283e-07
0.001525
7.293e-05
1.034e-09
0.0003801
3.144e-10
9.617e-09
1.273e-15
0.006649
8.601e-06
7.83e-11
1.251e-09
7.915e-06
8.325e-06
8.185e-10
0.0001882
2.556e-08
0.0002321
1.68e-05
1.504e-06
0.002274
0.0001073
2.506e-06
5.192e-07
3.025e-08
0.002043
1.528e-06
0.0007356
0.0001569
0.0001151
2.056e-09
0.001986
1.299e-05
8.051e-07
2.349e-08
0.0007907
7.143e-06
6.94e-07
0.0001922
5.961e-07
6.525e-18
0.0009838
0.006653
0.006632
1.446e-15
0.00272
0.006698
0.000196
0.001381
3.105e-05
5.401e-19
1.612e-07
0.0001264
1.785e-06
0.004292
0.006693
9.84e-05
0.0009915
0.006691
9.54e-10
1.62e-06
3.474e-16
9.167e-10
1.717e-06
1.075e-05
0.0001244
2.798e-06
0.006694
2.73e-08
1.511e-05
1.572e-10
1.495e-08
2.894e-10
0.0001188
2.024e-07
0.0004662
8.877e-05
0.0009055
0.002767
8.912e-14
9.343e-05
0.0001048
8.531e-06
1.187e-20
0.00592
1.204e-05
8.642e-07
1.59e-09
0.0002623
1.191e-09
1.331e-05
8.337e-15
8.722e-08
1.112e-13
5.118e-15
0.002562
6.312e-06
4.66e-11
1.201e-06
0.0001689
1.008e-08
8.105e-06
0.001103
2.827e-09
6.43e-06
1.51e-05
0.0008948
0.0009376
8.375e-05
0.0009245
4.598e-06
1.221e-09
1.606e-07
1.23e-07
5.068e-06
3.652e-06
2.567e-10
0.002271
0.0006763
1.111e-05
6.306e-07
8.342e-06
1.891e-05
4.889e-08
0.002272
1.071e-05
0.003061
0.0001574
9.183e-06
0.006691
0.006693
6.529e-18
6e-06
0.006694
4.17e-08
0.002115
9.43e-05
4.649e-05
0.0001056
1.024e-05
0.0067
7.559e-06
3.628e-09
3.994e-06
0.0002598
4.126e-06
7.49e-10
3.339e-05
1.396e-05
3.613e-05
1.015e-10
1.108e-06
1.826e-06
0.006692
0.00205
1.565e-06
1.836e-07
6.684e-08
1.357e-09
0.003447
0.006692
8.288e-08
9.071e-05
6.092e-10
0.0001007
0.002636
8.403e-05
4.883e-09
0.0003807
1.18e-06
7.449e-08
3.983e-05
0.0001072
2.821e-05
7.602e-09
2.303e-06
0.001022
0.006693
5.494e-05
0.006653
0.006632
3.095e-05
9.602e-06
1.695e-05
0.001018
3.314e-06
0.0001714
1.705e-06
2.44e-05
1.017e-05
1.173e-06
3.872e-08
6.895e-08
4.452e-06
1.169e-09
1.231e-07
1.787e-09
0.00405
7.121e-05
8.997e-06
0.000132
1.306e-07
0.0001653
1.931e-06
0.006408
7.458e-09
0.001115
4.57e-07
0.003076
3.407e-08
3.54e-08
0.006697
0.003079
0.00248
2.416e-09
0.00228
2.475e-06
0.0003514
1.569e-10
2.757e-08
0.0009428
9.942e-05
5.682e-09
4.187e-13
0.0002296
0.002276
0.001648
1.322e-11
2.212e-09
2.83e-05
0.0006186
6.869e-14
4.194e-05
1.406e-11
0.0008905
0.0005648
0.006702
1.332e-05
7.951e-08
9.926e-09
2.228e-08
2.272e-09
1.374e-05
3.834e-09
0.0001281
0.000706
3.736e-11
0.006694
0.0001019
0.0001849
4.111e-05
2.14e-06
0.0001143
7.172e-07
0.006705
4.288e-08
2.29e-06
8.373e-10
4.668e-05
0.0004648
7.811e-07
1.27e-06
6.566e-05
1.13e-10
2.237e-05
3.397e-08
9.671e-06
2.048e-11
7.202e-07
0.002876
0.0004285
1.252e-05
4.36e-06
3.878e-05
2.771e-09
9.597e-05
0.006678
7.254e-07
4.673e-05
0.0005579
9.6e-07
0.006697
1.561e-06
9.162e-08
0.0004756
0.0067
0.006691
4.539e-08
0.0001436
8.538e-06
0.0003189
7.217e-10
0.005765
6.931e-08
0.002511
0.001003
0.0001601
5.044e-09
2.658e-06
1.157e-09
3.607e-05
5.391e-05
5.233e-10
4.653e-09
7.284e-05
1.148e-05
1.028e-06
2.341e-06
0.0007494
8.165e-07
2.172e-06
0.002359
0.001383
4e-05
5.812e-08
0.006668
0.0003149
5.373e-05
9.608e-05
9.398e-05
0.0001411
0.006645
7.049e-07
6.431e-05
6.646e-08
2.193e-05
6.875e-12
9.321e-08
4.804e-08
1.501e-09
5.555e-06
9.745e-07
2.293e-05
0.006692
7.196e-10
0.000869
2.082e-07
1.267e-07
1.033e-05
1.177e-06
1.666e-17
4.915e-06
1.157e-06
0.0001008
1.339e-06
0.006688
6.068e-12
0.001393
0.0001229
0.001068
9.306e-20
1.009e-15
1.223e-15
0.006697
1.566e-07
1.548e-07
0.006692
0.001313
2.943e-07
8.653e-06
7.232e-06
0.0001434
4.656e-09
0.0003241
3.136e-12
0.002428
0.000834
2.82e-14
1.743e-08
9.669e-10
4.316e-08
0.005739
4.214e-06
0.001224
0.0007341
0.006614
3.049e-10
1.002e-10
6.799e-08
0.00664
3.955e-05
0.0001174
7.341e-09
3.437e-06
2.27e-10
0.001301
0.0008685
5.701e-07
4.694e-06
0.006668
3.564e-05
2.112e-05
5.772e-09
3.787e-08
3.604e-08
9.097e-09
0.0009497
1.994e-06
6.319e-08
1.246e-05
9.532e-07
0.003245
2.468e-11
1.394e-05
5.286e-10
5.716e-07
0.0003168
0.006702
0.006701
1.644e-05
5.429e-08
1.227e-06
0.006694
0.004818
1.192e-05
3.803e-09
0.000113
5.339e-06
4.123e-09
2.332e-11
2.508e-05
0.001109
0.006682
5.811e-08
0.0001858
4.27e-07
0.00497
3.723e-13
9.532e-07
1.244e-06
0.002272
9.927e-11
0.006579
0.0001397
0.0003458
0.0008131
0.004929
1.804e-07
0.0008976
8.99e-14
0.006644
2.604e-07
1.05e-09
0.00669
2.166e-06
0.004941
1.088e-07
3.067e-05
0.006691
1.529e-08
7.326e-09
1.829e-07
1.144e-06
3.777e-05
2.398e-09
2.747e-09
1.446e-06
6.236e-08
1.642e-07
3.944e-08
3.86e-05
5.183e-06
2.72e-10
0.005567
2.217e-09
0.006691
1.186e-06
0.0008007
3.458e-05
0.006677
0.00528
6.915e-05
3.737e-08
3.703e-05
0.006479
0.006676
3.058e-07
1.671e-11
2.071e-08
9.306e-10
0.002031
9.052e-06
0.0001687
1.953e-06
1.102e-05
2.667e-07
2.117e-10
0.006479
1.713e-08
1.284e-05
8.916e-05
1.262e-05
0.00663
0.00482
3.96e-05
7.148e-11
2.33e-05
1.822e-11
0.0007425
0.003742
3.983e-06
2.606e-08
0.0001896
1.557e-09
9.495e-05
0.0007766
4.888e-08
6.441e-06
1.451e-05
2.327e-05
1.462e-18
2.335e-08
7.908e-05
5.212e-05
6.548e-06
2.908e-07
2.467e-10
3.154e-08
0.0004121
1.113e-06
3.29e-06
0.0001132
0.006678
5.859e-08
1.854e-05
4.499e-06
0.006639
0.006677
5.563e-12
9.891e-05
6.235e-09
6.767e-07
1.883e-07
0.002026
2.782e-05
3.294e-10
9.899e-06
1.069e-08
0.006691
0.006668
5.655e-06
1.344e-05
4.802e-09
4.929e-06
2.169e-10
0.001885
1.072e-08
9.191e-05
0.002504
0.003849
8.645e-10
0.0001545
7.98e-09
2.216e-17
7.979e-07
4.532e-06
0.0002656
0.004728
4.517e-07
3.637e-08
1.15e-11
0.004639
0.0005591
1.105e-05
6.516e-10
6.195e-05
2.513e-08
0.003071
1.913e-08
3.069e-07
1.602e-06
0.001058
5.659e-05
2.111e-22
2.131e-05
0.0001737
1.688e-07
2.932e-07
1.278e-07
0.006687
3.891e-05
0.004078
0.000118
0.003568
1.427e-11
1.057e-06
9.189e-11
0.003426
2.076e-08
3.254e-05
5.979e-08
2.776e-07
0.003859
0.0002604
8.243e-08
2.489e-08
0.0001375
0.002413
2.413e-05
5.236e-07
0.003257
1.703e-06
5.209e-05
3.793e-07
5.195e-06
3.493e-05
7.811e-07
1.707e-11
3.076e-07
0.006609
0.0002544
0.001877
2.399e-11
1.339e-09
4.473e-05
0.001376
1.459e-08
0.006622
1.046e-05
5.284e-08
2.683e-05
2.462e-13
2.594e-05
8.617e-08
1.833e-05
0.0003725
1.819e-05
0.006697
3.757e-19
9.17e-06
1.483e-06
5.831e-09
0.0001292
6.903e-07
1.927e-06
1.438e-08
0.006681
0.00432
8.564e-06
0.003708
8.449e-07
2.16e-07
2.303e-07
5.398e-07
0.00666
0.0001963
7.695e-05
0.006691
0.006657
1.286e-05
0.001806
0.002022
8.431e-07
0.000149
5.965e-15
4.845e-06
8.389e-06
0.006679
5.246e-05
1.343e-05
3.186e-09
2.085e-10
8.403e-06
0.003492
0.005921
0.001051
3.002e-13
0.006679
9.847e-05
2.916e-10
3.878e-07
2.103e-11
0.005673
0.0005226
4.062e-07
0.006693
1.293e-09
0.006679
1.873e-07
6.799e-11
1.243e-07
7.439e-06
2.841e-12
0.006681
2.714e-08
1.995e-05
4.057e-10
7.031e-07
2.857e-10
4.021e-10
4.706e-05
6.237e-05
1.145e-05
9.645e-15
0.006692
0.0002741
3.627e-09
8.551e-09
2.856e-06
9.439e-13
0.003559
0.0001752
5.345e-08
1.044e-11
1.963e-14
1.171e-07
3.086e-16
1.851e-08
5.612e-16
2.032e-06
9.553e-09
0.004348
1.591e-13
0.0007846
1.63e-07
0.004901
0.005008
3.155e-05
0.0004326
1.79e-06
0.003052
7.448e-07
4.866e-05
0.0003743
4.146e-08
1.407e-07
0.006029
0.003609
1.981e-05
0.0004344
9.724e-09
8.291e-14
0.0003638
2.117e-06
1.509e-08
0.0002954
2.879e-07
0.006688
1.068e-05
8.837e-09
0.006442
2.847e-08
1.443e-05
0.002124
0.006665
0.002625
0.002511
1.177e-15
1.359e-05
7.774e-14
0.0003425
1.131e-06
2.288e-07
4.2e-10
6.984e-09
0.005519
4.728e-11
9.408e-06
0.005401
9.625e-06
1.271e-13
0.001217
3.663e-09
3.738e-06
1.6e-05
8.991e-11
3.738e-16
1.46e-08
0.000846
0.006693
2.083e-06
7.835e-06
3.669e-06
2.106e-08
6.788e-07
9.481e-11
3.017e-05
5.272e-05
8.024e-11
0.0001433
1.985e-12
0.006688
0.000295
4.847e-08
0.0001093
7.995e-07
0.0001824
0.006691
0.002246
1.357e-08
4.117e-05
2.369e-06
1.83e-08
1.604e-07
0.0009846
1.863e-05
1.044e-07
3.263e-08
1.261e-14
2.328e-05
1.373e-09
2.696e-08
2.413e-06
0.0009777
5.553e-07
8.222e-07
1.122e-08
1.113e-12
0.00016
0.006687
0.006683
0.0003828
0.0001595
8.229e-05
0.006695
1.668e-06
0.0001631
6.317e-05
2.494e-07
3.392e-05
1.46e-07
2.208e-06
0.006705
6.942e-05
5.212e-05
5.549e-12
1.173e-10
3.25e-05
1.109e-05
0.0003663
2.61e-09
1.847e-08
1.138e-06
0.002158
6.334e-07
1.126e-07
8.147e-06
6.902e-11
0.006516
9.05e-12
3.337e-10
0.001961
1.508e-06
9.856e-09
0.004291
1.874e-13
1.349e-14
0.006228
0.00669
7.015e-06
5.379e-05
4.708e-14
2.457e-06
1.782e-07
9.275e-09
6.59e-08
7.293e-05
0.0001024
0.004136
3.305e-08
0.001358
3.096e-07
1.698e-05
3.658e-09
4.262e-05
0.005263
2.172e-14
9.686e-06
0.006691
6.142e-08
0.005552
0.006686
1.29e-06
7.673e-05
3.602e-14
0.006687
1.392e-09
0.006693
1.55e-07
9.063e-05
0.003983
5.353e-06
2.36e-09
8.077e-09
3.274e-08
6.848e-07
0.003609
0.0006322
0.0001025
4.785e-08
6.635e-07
1.156e-07
1.622e-12
3.256e-08
1.37e-13
8.425e-07
8.52e-09
1.896e-09
7.575e-09
1.805e-11
5.331e-06
0.004287
0.003975
2.314e-08
1.144e-05
1.476e-10
0.00274
1.511e-08
0.0006093
2.809e-07
1.675e-07
6.216e-06
6.571e-05
1.937e-09
0.001427
2.845e-07
2.465e-06
1.33e-09
6.341e-07
0.006513
1.415e-06
2.078e-08
0.006695
1.941e-07
1.895e-09
0.006676
2.648e-05
1.945e-06
0.0003257
5.303e-06
0.0002404
5.505e-05
0.0001024
0.006669
3.748e-07
5.491e-07
0.006702
7.222e-06
0.0001501
0.0001712
2.338e-07
3.632e-06
0.0004024
4.232e-08
1.768e-12
2.552e-09
1.929e-08
0.000601
1.557e-13
0.002587
8.264e-08
0.006692
3.859e-05
5.616e-06
2.403e-07
1.638e-07
4.382e-08
5.518e-12
0.006698
6.614e-15
3.264e-09
8.081e-09
4.898e-07
4.557e-09
0.001461
0.004611
6.61e-11
3.194e-07
6.406e-05
5.284e-18
7.224e-05
1.581e-08
4.956e-10
5.036e-08
1.44e-07
7.143e-05
4.915e-10
2.011e-07
4.562e-06
6.858e-06
4.826e-09
1.12e-08
0.00128
8.345e-14
9.577e-05
1.213e-07
0.0001192
1.425e-09
0.006648
0.00669
6.254e-05
8.372e-14
0.0002206
0.002016
6.381e-14
3.158e-08
0.006692
2.924e-11
1.854e-07
1.328e-05
7.577e-13
2.584e-05
1.295e-05
1.204e-17
0.003243
8.372e-11
0.0006819
2.964e-07
1.524e-11
1.367e-08
3.18e-10
4.89e-06
4.369e-08
0.0001154
0.003111
3.621e-06
2.03e-06
4.224e-06
2.294e-07
0.001701
1.419e-10
0.0005746
8.061e-05
0.001205
3.84e-06
3.185e-05
2.623e-06
8.62e-14
5.699e-05
1.85e-12
8.872e-10
4.839e-06
1.355e-05
0.006693
0.00109
4.29e-06
3.129e-05
7.879e-10
7.954e-10
1.339e-10
0.006681
6.063e-09
2.981e-08
2.217e-05
2.772e-14
1.102e-06
0.003519
8.815e-08
0.002404
5.826e-08
6.743e-06
5.136e-12
4.077e-07
0.0007633
0.0003717
0.006699
3.869e-16
2.5e-14
4.608e-05
6.856e-05
5.195e-06
0.006492
0.006651
5.492e-07
0.000814
0.003147
7.975e-05
0.003019
0.002985
1.471e-06
4.49e-05
0.001817
1.692e-08
2.42e-08
1.461e-14
3.142e-05
2.146e-10
8.211e-06
4.134e-07
0.006653
2.6e-09
0.0007218
3.167e-07
1.044e-14
1.952e-05
0.00196
3.833e-06
4.313e-07
3.329e-05
5.027e-15
0.002056
1.526e-05
0.001424
0.001767
9.182e-06
3.092e-08
4.247e-15
6.633e-05
8.467e-08
0.006675
1.582e-08
1.317e-08
0.006666
4.906e-09
7.231e-07
1.381e-05
5.045e-09
0.006682
2.309e-05
1.516e-16
0.004302
3.712e-08
3.33e-08
2.665e-07
3.842e-11
5.498e-05
9.395e-06
1.573e-07
4.564e-11
9.193e-06
1.177e-07
1.78e-05
1.938e-07
2.366e-10
1.547e-10
9.656e-08
9.574e-06
0.006691
1.225e-07
0.003538
3.42e-10
3.353e-07
0.001846
8.378e-06
0.006704
1.911e-05
5.618e-07
0.006594
0.001904
0.006096
5.241e-10
0.001908
1.55e-13
1.814e-06
2.167e-05
4.267e-09
2.659e-05
7.216e-08
7.626e-09
3.719e-16
7.671e-06
1.071e-06
3.051e-05
6.558e-05
0.0007052
0.006702
3.365e-05
0.001225
0.0007708
0.006699
0.001569
0.006685
5.745e-08
8.296e-06
0.006675
0.006685
1.282e-06
8.159e-05
8.285e-09
7.469e-05
0.006685
6.178e-06
3.779e-05
6.323e-05
7.243e-16
2.973e-10
1.681e-13
6.517e-08
6.185e-07
1.524e-08
6.076e-08
0.0002041
0.0001918
6.991e-12
0.0005258
5.236e-09
4.787e-09
2.953e-06
4.548e-06
0.003633
0.006686
3.397e-16
1.501e-05
3.39e-11
0.006692
1.275e-14
4.759e-08
1.034e-08
7.075e-06
0.006638
0.006637
0.001354
0.001787
0.002087
0.001345
3.428e-07
5.413e-05
4.805e-06
0.002639
1.086e-05
1.255e-10
1.357e-06
0.000178
9.646e-05
8.993e-06
7.685e-10
1.58e-08
2.258e-07
1.115e-08
0.0003087
0.002509
1.411e-05
5.646e-06
7.104e-13
2.62e-05
0.0003432
3.07e-07
0.002325
1.065e-07
5.704e-05
1.871e-10
0.003692
0.006692
0.0002503
7.67e-07
6.79e-15
2.691e-11
8.362e-05
9.481e-06
4.642e-09
8.622e-05
0.006617
1.74e-08
7.294e-08
1.143e-15
5.318e-05
1.109e-13
1.271e-05
0.006686
3.394e-08
4.666e-08
0.001302
1.336e-05
0.0003083
1.717e-07
4.288e-07
6.081e-07
0.0007339
8.414e-10
0.000132
3.453e-08
4.143e-09
1.078e-09
0.003154
0.003152
5.98e-09
8.068e-06
3.673e-15
6.905e-07
5.174e-10
3.703e-10
3.2e-16
0.002518
4.994e-07
0.0003738
0.00356
0.006686
0.0005209
0.006231
1.576e-14
0.006692
2.975e-11
4.044e-05
1.119e-06
4.342e-07
1.441e-09
0.002486
1.3e-11
7.274e-05
1.75e-07
0.0002431
4.64e-12
0.006688
4.708e-07
3.288e-08
0.0003484
2.122e-09
4.243e-08
8.803e-05
1.862e-08
5.119e-09
0.0001769
0.006661
1.353e-10
0.002527
0.006658
5.548e-05
7.541e-10
0.006661
2.931e-11
0.006694
1.466e-05
4.601e-06
0.0005521
5.531e-07
0.006659
0.000227
1.683e-08
7.787e-05
3.242e-05
2.606e-06
3.636e-05
0.006692
0.00668
8.833e-06
3.95e-15
1.162e-06
2.047e-07
0.0008162
2.337e-12
7.51e-05
4.774e-05
0.002859
1.926e-05
1.183e-06
2.135e-09
0.0006056
4.364e-08
0.001054
7.556e-06
0.006703
3.995e-06
1.054e-07
0.0003056
7.54e-07
8.395e-10
6.873e-07
0.006678
2.146e-05
6.127e-11
1.179e-07
1.457e-14
2.55e-10
0.002561
0.0003324
1.315e-05
9.462e-12
2.123e-05
2.41e-08
8.209e-11
0.002738
5.549e-05
0.006689
1.771e-07
4.723e-08
1.399e-06
0.006693
4.167e-07
0.006692
9.913e-05
1.144e-06
0.006693
0.00303
5.599e-05
1.061e-06
0.0003713
0.002296
1.119e-08
0.006696
9.841e-09
6.537e-11
1.125e-05
0.003644
6.421e-08
0.0009324
5.942e-06
8.137e-05
5.936e-10
3.281e-07
6.052e-05
1.159e-09
2.423e-06
1.291e-07
9.397e-11
0.000151
4.052e-05
2.274e-07
0.0002116
2.773e-08
0.0001259
1.008e-05
2.767e-07
0.0003157
0.002231
4.909e-09
0.002504
2.777e-06
4.167e-06
1.594e-14
1.711e-05
5.246e-13
6.277e-05
0.006663
5.399e-13
1.023e-07
9.868e-05
9.268e-09
0.0004366
3.087e-05
0.006705
0.001287
1.803e-12
0.0005749
4.782e-06
3.25e-07
9.528e-08
0.006695
3.859e-07
7.561e-06
7.052e-06
3.314e-10
0.0004523
2.368e-07
5.914e-11
0.006688
0.0002348
4.3e-05
0.002667
3.375e-06
1.815e-05
3.168e-05
1.639e-06
9.726e-05
0.0006731
0.003172
5.138e-05
1.446e-06
0.006517
2.612e-05
2.077e-09
2.059e-13
0.006694
3.119e-07
9.938e-13
0.001973
5.215e-09
0.00145
9.058e-08
1.943e-13
0.002956
0.002449
1.713e-05
0.0009324
1.193e-09
3.803e-06
0.0004016
1.078e-11
1.44e-07
0.0004667
2.914e-08
5.619e-17
1.579e-16
3.269e-05
1.221e-05
2.369e-07
7.088e-05
0.0006003
2.87e-06
0.0003686
4.9e-09
9.189e-07
1.604e-06
5.595e-08
3.602e-12
0.0001196
2.816e-05
0.006573
2.638e-08
2.748e-05
3.613e-05
1.51e-05
7.401e-05
9.957e-08
2.992e-05
0.003808
0.006669
4.915e-09
2.631e-10
2.505e-05
2.084e-08
0.0003884
1.432e-14
1.779e-08
0.0001818
1.892e-07
1.552e-10
6.839e-05
1.672e-07
3.938e-15
0.006609
1.699e-11
8.989e-09
8.215e-08
0.004897
0.0002559
0.001085
5.636e-10
3.024e-08
0.001406
1.873e-10
0.004797
5.711e-06
4.887e-08
0.0001345
0.001526
0.005659
3.942e-09
2.055e-10
1.102e-07
1.51e-10
2.221e-11
0.0002607
3.43e-13
0.002479
2.595e-08
6.408e-06
0.00219
0.0001122
0.004305
9.794e-07
0.000533
1.71e-07
0.003023
1.856e-07
4.007e-16
3.086e-13
1.691e-05
5.452e-05
3.371e-05
1.264e-05
0.001867
0.0001989
6.589e-07
7.786e-05
0.006699
3.242e-07
1.456e-07
2.223e-08
2.562e-06
2.7e-06
5.043e-08
8.346e-05
5.288e-09
1.491e-13
8.345e-12
0.0001093
1.99e-07
6.226e-16
0.001296
2.553e-09
0.004128
2.218e-06
4.167e-06
5.304e-18
4e-06
2.371e-06
0.00346
0.0001919
1.699e-08
9.52e-06
0.006618
0.006698
0.0006554
1.927e-10
0.001109
1.665e-07
1.073e-13
1.709e-06
0.001448
3.61e-10
0.002016
6.792e-06
1.895e-11
6.889e-05
0.003836
1.843e-05
4.044e-06
7.219e-05
6.38e-07
0.006696
6.166e-08
0.003019
4.262e-10
0.003384
3.394e-08
2.767e-11
1.729e-05
3.205e-10
7.612e-05
5.165e-09
1.17e-07
4.289e-09
1.919e-05
0.0009596
1.931e-05
8.405e-05
6.496e-09
5.64e-06
3.388e-10
3.371e-08
0.006701
4.16e-06
0.004139
9.608e-10
3.413e-07
0.002258
0.0005832
7.668e-05
1.894e-11
0.003347
5.343e-06
0.000476
3.564e-05
0.001708
0.0001194
0.0001084
1.752e-13
0.000111
0.0003333
8.222e-09
0.006671
0.0005417
6.647e-05
5.77e-05
0.001154
0.006687
9.458e-05
4.09e-08
8.128e-09
0.006692
0.00097
0.002017
1.601e-06
3.27e-08
0.001167
2.75e-05
6.352e-05
7.521e-10
3.088e-09
0.001902
7.072e-07
2.422e-05
0.0001037
1.977e-07
2.925e-14
0.001954
7.552e-10
5.794e-09
0.001562
1.653e-14
0.006481
0.006662
1.341e-05
1.69e-05
2.259e-16
0.006692
0.001119
8.497e-09
6.552e-15
4.022e-08
1.851e-09
0.006294
0.006367
7.66e-09
6.12e-07
7.076e-05
6.527e-07
5.441e-05
0.0009199
2.792e-05
0.006705
3.481e-10
7.275e-08
2.781e-07
0.0001652
1.238e-11
0.0009246
1.779e-05
0.006669
2.829e-06
5.684e-08
6.69e-10
6.768e-09
3.863e-06
2.004e-11
1.358e-07
5.06e-06
1.916e-07
2.295e-08
2.259e-06
0.0001105
6.277e-07
1.094e-10
0.004801
0.005
1.008e-07
2.739e-06
1.435e-12
9.343e-06
4.535e-09
2.965e-07
0.002563
0.006692
7.38e-06
0.006702
7.193e-05
1.467e-13
2.209e-06
9.265e-05
3.156e-07
0.0001262
7.635e-12
6.034e-08
0.002974
2.233e-06
2.827e-06
2.281e-07
0.0002952
2.728e-07
2.272e-06
2.067e-06
1.251e-05
3.417e-05
1.795e-06
0.0008481
4.23e-10
1.323e-07
1.011e-05
5.572e-06
9.612e-11
9.189e-06
1.446e-07
1.956e-08
9.921e-07
8.302e-06
1.5e-06
3.647e-13
0.0001074
1.102e-07
0.001467
0.0008317
0.006703
1.097e-07
0.002468
3.346e-13
3.577e-07
4.152e-05
8.901e-10
3.363e-15
1.378e-10
2.132e-05
3.68e-07
4.205e-10
1.232e-11
0.002269
0.0002593
1.047e-06
9.456e-16
2.627e-06
2.643e-05
6.874e-05
7.476e-05
0.006693
9.758e-05
2.315e-10
7.044e-06
3.73e-08
0.001745
8.32e-05
1.048e-11
0.006648
4.352e-05
0.0001024
0.001347
9.013e-10
7.294e-05
1.85e-05
0.002828
5.356e-05
4.614e-08
1.188e-06
3.739e-14
9.563e-09
1.176e-06
0.006676
4.806e-05
7.484e-06
2.559e-10
7.104e-09
8.544e-07
0.003252
2.056e-06
0.006051
1.966e-08
4.694e-09
8.208e-06
1.643e-06
2.896e-05
2.931e-11
1.002e-09
1.295e-08
1.647e-06
5.311e-05
1.485e-06
1.117e-10
0.004303
9.767e-05
1.181e-13
0.002708
0.0001502
0.004814
0.006699
1.356e-06
0.002749
1.928e-08
3.462e-07
0.0001732
0.0001022
1.087e-09
2.148e-11
2.376e-06
8.028e-09
2.616e-06
0.001134
7.707e-15
5.294e-05
4.847e-06
0.002639
4.711e-14
0.0009333
2.811e-11
7.228e-13
0.003461
4.53e-09
1.177e-09
9.123e-06
0.0005626
7.386e-10
1.169e-07
1.319e-09
0.0001643
3.908e-05
0.0001877
0.004092
0.0067
4.684e-05
0.000617
3.498e-07
1.431e-06
7.992e-06
1.179e-13
0.0005519
0.004867
2.573e-08
3.363e-05
0.001388
4.752e-07
2.173e-05
8.585e-07
1.888e-09
3.705e-10
6.959e-13
2.941e-07
4.101e-08
8.31e-08
6.058e-06
5.379e-07
2.151e-05
3.431e-14
3.712e-08
2.987e-07
9.235e-06
0.006679
1.482e-07
2.207e-08
0.0006002
9.588e-06
6.158e-13
2.236e-09
2.49e-07
0.0001908
4.204e-06
8.948e-10
0.006693
1.436e-09
0.001745
0.0001222
8.664e-07
5.543e-09
0.006702
1.776e-07
0.0005963
2.393e-06
5.223e-12
3.471e-06
1.04e-06
3.569e-16
4.813e-05
4.881e-08
0.006667
0.006641
5.953e-08
2.297e-05
1.419e-05
2.791e-09
1.951e-07
0.006685
2.045e-11
7.373e-10
1.345e-05
0.0067
0.004045
1.364e-05
1.171e-05
5.251e-08
2.026e-16
2.819e-09
0.005466
2.21e-09
1.219e-12
8.632e-05
3.392e-09
1.775e-08
0.002624
6.064e-05
1.142e-09
0.001472
0.0001434
0.006632
0.006585
0.006612
0.006264
0.0001352
0.0004632
1.482e-06
5.91e-09
4.935e-06
1.25e-06
5.181e-05
7.156e-11
0.006116
3.107e-06
4.711e-05
5.42e-09
5.806e-10
2.048e-09
5.895e-06
4.126e-07
1.84e-08
2.323e-05
1.296e-07
0.0001772
2.221e-07
1.932e-15
5.709e-08
6.722e-12
3.972e-06
1.396e-07
0.006692
4.15e-14
6.939e-06
1.601e-08
5.504e-06
0.0001305
1.015e-13
0.006693
2.245e-05
1.65e-09
0.004188
4.419e-07
5.762e-06
0.0003793
1.124e-05
1.568e-10
7.843e-05
1.202e-08
0.006625
8.211e-06
5.034e-06
3.475e-07
0.0005249
3.731e-07
0.00668
0.004922
5.877e-05
2.619e-07
4.522e-09
0.0001066
0.0002894
1.683e-07
1.309e-05
4.426e-10
1.54e-08
0.001345
0.001947
0.0005736
1.354e-05
0.0001057
5.619e-15
3.622e-06
0.00669
5.07e-12
0.006694
0.006688
6.919e-05
0.002478
7.534e-11
0.00044
1.9e-10
0.0001221
1.696e-08
0.006695
9.783e-05
7.062e-07
6.497e-08
0.001242
0.00343
6.215e-05
5.196e-12
5.808e-12
0.006702
4.617e-13
5.893e-12
2.446e-16
0.002912
0.001797
0.0004339
9.192e-05
0.0006183
0.002145
4.648e-07
2.751e-12
9.61e-06
1.789e-09
1.286e-15
0.006692
1.068e-08
7.745e-11
2.12e-07
0.006693
1.071e-09
2.885e-13
2.631e-15
1.272e-14
0.0001027
1.063e-05
1.719e-14
0.0002736
4.747e-06
0.006687
0.0003476
3.946e-10
0.003223
4.364e-08
1.382e-14
7.68e-05
2.009e-05
3.032e-07
0.006706
0.005389
5.007e-09
1.913e-09
0.003357
4.357e-10
6.441e-07
3.84e-05
0.0009885
2.235e-05
7.363e-07
1.719e-05
0.006692
1.158e-05
1.198e-05
6.42e-08
6.718e-08
1.12e-07
5.349e-09
1.801e-07
1.064e-13
6.985e-16
4.482e-18
3.701e-09
0.0001565
2.155e-09
0.0003387
4.712e-10
6.307e-10
0.006692
3.463e-15
0.006705
5.537e-07
1.019e-12
4.381e-11
4.001e-05
6.255e-07
1.509e-07
4.043e-08
0.006629
1.641e-15
9.443e-07
0.002849
0.001115
1.029e-05
1.016e-13
4.285e-13
3.929e-14
0.001048
8.059e-09
2.754e-09
0.0002763
2.518e-05
2.871e-07
4.392e-13
0.006668
2.2e-05
4.246e-07
4.388e-06
6.131e-07
0.0001754
0.003315
9.237e-12
1.728e-07
1.203e-07
7.773e-13
0.00299
3.555e-11
3.993e-05
5.248e-07
6.116e-07
0.006432
9.528e-05
6.646e-07
2.95e-09
3.318e-08
1.178e-13
0.002867
0.004433
7.86e-06
4.646e-08
1.992e-11
0.0001354
0.003232
0.006426
0.0002772
4.701e-10
0.006339
8.589e-08
1.496e-08
8.977e-05
1.016e-06
9.717e-05
3.788e-12
7.407e-14
1.092e-14
8.466e-05
2.211e-09
8.923e-06
2.248e-07
0.002265
0.001983
1.553e-12
0.0007445
8.272e-10
3.658e-08
1.574e-10
9.253e-08
2.58e-05
1.8e-13
0.0005715
3.933e-07
2.435e-05
0.003139
4.777e-07
9.668e-05
0.002163
1.186e-06
2.81e-07
1.044e-05
4.147e-07
6.811e-07
5.581e-14
1.715e-15
0.00222
4.659e-15
0.002262
7.005e-05
0.0001125
0.000159
9.056e-07
0.006704
3.133e-08
8.53e-14
8.097e-08
8.951e-11
0.0009084
4.983e-05
8.145e-08
4.671e-06
0.0008484
3.136e-09
0.001123
1.036e-11
1.719e-07
0.005273
5.906e-06
3.793e-07
0.0067
0.0004208
9.883e-11
0.006694
2.405e-08
4.171e-07
4.141e-08
4.72e-06
2.525e-11
0.002473
0.0008816
5.136e-05
2.162e-09
8.06e-10
4.345e-09
4.564e-07
0.006684
1.498e-08
0.006692
7.345e-05
8.593e-07
0.0005736
1.237e-14
6.551e-07
2.31e-09
0.002333
3.421e-10
2.429e-05
0.002361
0.0001984
9.645e-08
0.00667
7.508e-06
0.006694
8.541e-10
1.294e-09
3.914e-07
1.222e-05
0.006632
1.538e-08
1.208e-08
1.867e-07
9.911e-11
3.533e-08
7.988e-09
0.0005991
0.0001748
1.094e-05
1.75e-05
2.971e-08
1.316e-06
0.0001101
1.743e-05
0.0001016
1.291e-06
2.362e-07
0.006623
0.006666
0.001969
0.0002947
5.356e-06
1.037e-08
3.743e-08
0.002442
5.42e-08
2.263e-06
1.422e-07
0.006698
7.201e-07
4.923e-05
9.407e-11
0.002786
2.526e-15
1.031e-05
6.32e-11
0.003504
0.0001135
1.712e-13
0.0003087
1.543e-07
8.906e-08
4.077e-08
2.397e-07
1.035e-06
0.006693
8.474e-08
1.897e-07
4.415e-06
1.336e-05
1.045e-05
4.583e-06
0.0001068
3.155e-07
8.869e-09
0.006686
0.0003335
6.125e-07
1.182e-11
6.981e-06
0.006701
4.536e-09
3.078e-10
0.0002077
0.0001559
2.234e-06
5.485e-09
0.0001777
1.187e-06
4.122e-07
0.001859
5.218e-06
1.741e-05
0.005297
5.403e-06
1.491e-14
0.0003521
6.527e-06
2.451e-12
1.447e-05
4.53e-06
0.00669
0.0003037
8.594e-05
0.003479
8.262e-13
1.616e-06
0.006697
0.001041
3.422e-07
1.923e-16
0.006697
0.0002304
6.79e-11
1.493e-07
6.601e-06
1.554e-07
5.863e-09
6.549e-07
2.802e-06
1.682e-09
9.431e-13
1.947e-10
0.002062
1.584e-05
4.473e-05
2.979e-06
0.006683
5.878e-05
8.011e-07
0.000353
1.837e-07
4.99e-14
3.572e-11
0.002542
1.81e-08
6.719e-13
0.002005
8.271e-09
0.0002405
3.738e-05
7.307e-05
2.119e-10
1.162e-13
0.006688
1.048e-08
2.215e-07
0.006697
1.305e-11
0.0004116
1.125e-05
0.0001351
1.7e-05
2.006e-09
2.326e-07
6.045e-07
0.006706
0.003017
0.003034
6.064e-06
0.006685
7.16e-06
0.0003726
5.801e-10
0.002705
0.0004313
6.762e-09
1.161e-10
0.002202
3.221e-06
0.006675
1.204e-13
9.196e-06
2.677e-09
5.352e-09
8.898e-05
1.873e-08
3.178e-06
8.828e-08
2.358e-14
0.003599
2.096e-13
0.006672
0.006684
7.938e-05
5.508e-05
0.006683
7.977e-15
8.081e-08
2.666e-08
3.808e-10
1.686e-06
3.783e-05
0.004868
6.947e-15
0.0005668
2.845e-07
0.006666
2.506e-05
4.491e-05
6.21e-05
1.936e-05
2.14e-05
0.002756
7.302e-08
0.006656
1.511e-05
1.244e-09
7.528e-10
1.334e-12
9.074e-05
0.0001819
2.031e-06
0.006699
1.164e-07
1.099e-07
0.000203
0.0002002
3.529e-05
9.062e-14
0.005959
0.00668
1.503e-06
5.544e-09
0.001849
1.649e-09
0.006701
9.697e-10
2.406e-06
2.119e-07
0.006701
6.985e-05
8.107e-10
5.794e-08
9.589e-10
0.0001608
2.509e-06
0.006678
5.77e-09
0.004612
3.577e-09
1.045e-14
0.001106
7.611e-06
0.001087
1.646e-09
9.307e-12
6.391e-08
8.764e-05
0.006657
2.859e-06
8.562e-05
0.006689
1.907e-08
3.732e-07
0.001797
0.006691
0.0001147
8.864e-05
0.0001761
2.389e-08
1.16e-05
0.006693
5.823e-08
2.771e-07
5.649e-08
0.000557
0.006696
0.00669
0.0004138
1.519e-05
0.001539
2.98e-09
1.765e-14
2.011e-13
3.085e-07
5.629e-13
3.57e-11
0.003005
2.626e-14
1.424e-06
9.895e-10
0.002805
6.877e-05
3.385e-05
7.451e-10
1.634e-09
1.498e-10
1.119e-07
0.0002584
9.443e-05
2.7e-08
3.174e-07
8.196e-06
9.374e-05
2.518e-06
5.186e-05
2.924e-08
0.004101
3.606e-05
2.115e-06
6.106e-06
1.181e-05
1.595e-09
4.669e-15
1.073e-11
0.006662
1.166e-11
2.771e-05
0.006657
4.744e-07
0.006694
2.897e-09
2.109e-06
0.002659
6.098e-09
5.42e-08
0.006707
3.409e-05
0.003209
1.416e-12
0.000913
1.593e-05
8.405e-13
8.353e-06
0.006688
4.738e-11
0.0001334
0.0004377
1.689e-05
0.001792
1.044e-07
1.809e-14
3.383e-09
9.527e-07
0.001264
2.667e-07
5.017e-06
0.006688
0.0001844
2.011e-08
2.981e-07
2.873e-06
0.006701
8.123e-14
6.037e-08
8.707e-07
6.91e-06
4.596e-05
1.046e-06
0.006655
0.0001531
4.595e-08
9.172e-07
4.594e-05
1.741e-07
3.066e-09
0.002536
8.495e-06
8.661e-06
0.001576
5.28e-05
0.002479
8.934e-07
1.929e-06
2.097e-06
0.0067
3.367e-09
0.002437
9.322e-05
5.559e-06
1.348e-05
1.085e-09
9.48e-06
9.771e-17
0.0006198
3.446e-05
0.002144
0.006678
5.876e-06
1.297e-06
2.749e-11
1.095e-10
1.599e-06
1.012e-08
3.984e-10
2.15e-05
2.373e-05
1.125e-06
4.081e-09
2.68e-12
1.041e-05
0.000123
2.944e-10
5.102e-05
2.993e-10
2.378e-06
0.001365
0.0004711
5.323e-08
0.006693
3.593e-06
6.759e-05
0.006689
0.0003148
2.774e-10
0.002319
7.915e-16
4.329e-09
1.15e-07
0.006689
2.964e-05
2.799e-07
0.003346
2.445e-05
6.95e-06
9.011e-09
4.06e-07
1.208e-09
0.006695
2.198e-07
0.006682
1.355e-05
4.878e-08
7.898e-08
6.039e-06
3.093e-09
6.22e-16
0.00661
0.006692
6.096e-07
2.002e-07
4.53e-10
3.699e-05
3.311e-07
1.812e-09
0.0004826
0.001031
0.002675
1.815e-07
8.625e-11
3.196e-05
0.0001446
0.006686
2.505e-07
6.1e-05
4.178e-06
1.072e-08
3.242e-06
0.00196
3.341e-09
1.702e-06
0.0003891
6.735e-08
2.817e-07
0.0001097
0.006687
0.006571
1.063e-08
4.099e-09
1.328e-06
0.003961
9.354e-06
0.003197
1.097e-07
1.425e-06
0.006603
8.594e-06
3.088e-05
2.343e-15
3.937e-11
1.882e-09
0.00668
3.529e-09
1.954e-07
1.059e-08
1.65e-08
2.412e-13
1.69e-05
2.472e-05
2.165e-07
3.864e-07
2.137e-09
1.99e-11
0.002617
0.002776
0.004213
8.857e-05
6.037e-16
0.0008021
0.001492
5.489e-09
8.914e-07
0.001034
7.173e-08
5.272e-06
3.796e-11
0.0007857
1.016e-07
5.63e-05
8.533e-06
1.136e-08
2.357e-15
0.0001982
1.142e-13
3.751e-13
0.006691
9.23e-14
5.729e-07
5.151e-10
1.241e-10
1.475e-05
0.0009379
1.587e-06
3.098e-07
2.188e-06
4.809e-05
0.0002843
0.0004869
4.563e-05
0.0003817
1.308e-05
1.617e-05
2.775e-05
0.001548
1.312e-13
5.598e-06
6.025e-10
3.011e-07
3.088e-09
0.006649
5.312e-09
4.523e-06
8.78e-11
0.000834
2.695e-13
4.356e-08
2.439e-08
8.891e-05
1.939e-11
8.04e-05
0.0001675
4.675e-05
0.0001727
9.551e-05
0.0001661
1.261e-06
1.564e-05
6.759e-07
2.097e-06
9.147e-08
0.0001087
2.924e-13
1.463e-06
1.31e-13
3.921e-05
0.0002409
2.75e-06
0.002047
0.0001309
7.849e-08
0.006692
0.003011
0.006692
4.984e-05
1.508e-07
2.874e-07
0.002219
8.171e-06
0.0001264
5.611e-05
1.536e-14
9.177e-11
1.444e-13
5.108e-08
9.371e-05
1.302e-09
1.389e-09
0.0001228
3.184e-09
0.006695
3.051e-05
0.003185
1.461e-07
0.001024
0.00668
0.006678
8.179e-07
0.002009
0.0001448
1.589e-14
1.282e-07
0.006673
0.006693
4.782e-07
0.0002574
6.327e-09
1.573e-12
0.005106
8.54e-06
1.268e-07
6.273e-08
4.823e-09
1.493e-14
4.365e-06
9.255e-05
7.266e-07
2.658e-08
3.29e-05
2.932e-08
1.059e-06
1.452e-05
2.227e-09
4.067e-06
5.884e-16
0.005746
3.15e-07
4.071e-09
2.214e-09
0.006695
9.927e-05
0.006692
0.0006898
0.0003764
7.045e-07
1.941e-05