/*--------------------------------*- C++ -*----------------------------------*\
  =========                 |
  \\      /  F ield         | OpenFOAM: The Open Source CFD Toolbox
   \\    /   O peration     | Website:  https://openfoam.org
    \\  /    A nd           | Version:  8
     \\/     M anipulation  |
\*---------------------------------------------------------------------------*/
FoamFile
{
    version     2.0;
    format      ascii;
    class       volScalarField;
    location    "30";
    object      omega;
}
// * * * * * * * * * * * * * * * * * * * * * * * * * * * * * * * * * * * * * //

dimensions      [0 0 -1 0 0 0 0];

internalField   nonuniform List<scalar> 
127143
(
1.528e+08
2.873e+08
3.278e+08
1.398e+08
1.173e+07
1.415e+08
4.635e+06
8.099e+06
1.294e+07
1.888e+06
6.817e+06
1.065e+07
3.857e+08
1.183e+08
2355
3.152e+05
3.958e+07
13.63
8.686
1.256e+05
24.25
2.853e+05
0.08313
375.3
3.073e+05
4454
2.311e+04
2.281e+04
1.551e+04
13.42
904.1
5022
2.491e+04
3456
0.042
2.43e+04
102.4
69.63
254.4
8007
8.74
0.4488
0.3183
5.491e+07
13.2
2606
1.435e+04
24.08
385.5
302.7
1.983e+05
0.02526
34.42
0.1537
0.02092
1127
0.02091
0.6537
0.02213
0.1529
0.3103
9.22
105.7
0.02211
1166
0.4389
0.04429
119.5
117.9
0.08323
500.4
1.556e+04
12.81
0.02213
0.02179
1.58e+04
0.0228
57.62
1070
0.02222
1.568e+04
1.118e+05
972.6
4515
15.31
45.19
190.6
1.628e+04
0.3574
1320
0.02206
11.5
731.2
23.89
114.4
0.3818
0.4097
1459
26.47
0.04386
0.02221
353.7
6014
12.49
41.78
27.94
137.8
0.08357
2.223
0.02132
1906
2.004e+04
46.36
10.92
0.02174
5.253
0.023
0.02179
0.02271
1.152e+06
0.02134
957.5
133.8
0.1742
1.493e+04
9092
11.43
0.02339
82.96
1359
94.28
130.1
68.42
55.68
4.474e+06
88.21
0.04921
16.64
1.302e+04
0.04297
0.119
0.0223
26.52
16.38
34.41
116
6.713e+04
0.02213
142.1
9324
22.67
348.6
96.18
0.06842
279.3
14.97
0.6527
1811
23.3
1739
507.1
3.737e+05
0.02208
93.05
3846
875.6
140.4
0.5216
2405
0.02592
3283
16.21
8.451
62.38
0.2719
89.19
71.82
82.01
295.1
0.032
61.97
0.033
72.74
85.68
1274
9.051
0.0816
10.52
320.1
0.03159
42.94
113.7
0.04564
264.6
8.206e+06
11.12
0.0194
0.01934
8.832e+05
0.02178
0.02169
0.02602
3.161
87.03
4.437e+07
159.5
0.0481
43.6
13.32
0.02174
0.4584
19.77
0.02164
2313
179.7
9.14e+05
1.033e+04
47.06
70.08
0.04835
44.54
0.02184
360.9
39.37
2281
3611
2403
76.88
1067
16.21
26.82
0.0328
12.29
7.872e+05
26.31
0.08734
93.03
1.793e+07
0.02169
32.58
103.9
626.8
41.37
1692
120.5
9.128e+05
230.5
2.236e+04
6.814e+05
0.1008
4.545
3438
63.81
17.03
592.9
2.585
0.02335
1846
20.75
0.05184
11.41
0.02648
7.21
0.02224
89.2
744
461.6
585
0.6375
39.05
2082
0.2688
17.38
33.38
72.99
40.37
44.9
260.6
0.5126
14.32
0.07214
0.7783
12.18
0.02175
0.02173
7.561e+06
106.1
0.02174
267.9
0.03337
97.16
0.2164
0.08682
13.03
0.02166
8.02
690.5
465.7
41.52
34.26
1174
0.4073
0.2826
4.271
2736
124.2
42.86
0.02165
13.5
42.68
150.2
3413
1257
0.05655
0.02172
669.5
47.28
1266
0.2694
2.234
0.07813
634.3
0.02824
64.34
700
55.64
0.03097
151
576
40.32
12.03
0.02173
0.04161
0.01941
0.01935
0.06699
2.19
8.397
12.07
128.2
0.04238
47.13
34.35
37.74
12.03
273.3
438.8
65.26
1021
121.5
859.3
8.238
104.3
39.42
0.02776
359.1
17.26
84.15
0.02325
580.1
13.36
93.48
20.05
299.4
285.8
0.02192
0.02177
1.439
1114
0.513
1.036
0.02839
2155
325.6
0.03003
0.06578
544.1
6.186e+05
22.89
0.5365
29.09
5625
790.1
0.406
0.02291
4.988e+04
0.0355
6720
11.56
36.59
0.02183
0.1883
1766
627.9
330.6
856.6
0.1919
727.2
0.02769
0.02611
4220
0.02184
22.44
65.1
0.0364
34.25
35.5
67.24
0.02222
259.2
59.56
1194
0.1197
20.04
106.7
107
38.39
2847
118.4
514.2
129.4
1.886e+04
245.7
0.07606
16.84
0.05872
0.2779
0.08047
509.5
0.05609
0.02115
245.3
130.8
8.748
174.6
0.02192
45.58
353.2
0.02495
0.02166
0.02172
259.3
0.04993
3.492
0.02382
1277
0.02172
668.1
1.532
19.69
24.65
583.3
29.57
1380
0.0359
73.74
1404
397.3
57.44
64.54
59.14
59.53
18.05
2.818
58.15
0.2026
0.02197
23.6
559.3
0.02078
19.1
4.338
0.1747
51.99
0.04273
0.02028
212
3.062
1327
54.39
1.851e+04
590.6
309.7
1237
29.2
171.9
72.14
0.02163
1275
0.0223
424.2
173.4
38.01
126.1
1.384e+07
115.9
2.468
0.1088
4.606
0.02166
1.929e+04
0.022
65.06
10.78
2.017e+07
1.01e+06
3.276e+06
0.02194
337.4
304.3
0.02172
11.6
182.9
100.2
15.47
25.9
605.4
18.83
1.248e+04
0.1712
23.34
6.654e+05
671.3
1070
2674
0.02202
20.81
2.076
19.34
0.02203
1776
9680
1686
0.01964
23.82
0.09295
6352
44.64
4410
16.82
0.0224
499.2
31.4
0.02081
0.4087
99.61
571.3
287.7
675.2
1558
11.27
91.85
386
96.59
220.6
0.02192
5363
75.28
1399
81.89
34
0.02212
0.02207
0.04961
481.4
8.983
0.02172
0.02926
12.84
1311
36.81
30.24
2721
1.209e+04
6.267
0.0224
0.02134
1624
24.23
116.2
0.03155
1.482e+04
62.27
185
0.5281
2591
0.02172
32.31
42.38
28.83
0.02715
514.9
11.39
8.1e+04
0.02026
130.8
9919
0.02171
34.01
0.02174
191.1
54.7
0.02175
798
496
1843
85.26
29.7
777.7
732.4
54.61
225.5
585.4
293
134.8
54.52
1769
0.02668
964.5
0.02174
7.534
0.02365
26.85
0.02116
0.02174
1.072
497.4
39.72
0.02135
0.02115
905.4
7603
671
1146
10.84
3.217
24.29
66.97
36.54
365.2
1439
0.02137
244.2
32.96
0.8773
27.48
0.02216
0.02921
62.78
8386
71.65
4.3e+04
0.0236
0.03825
129.3
277.4
0.02577
1093
0.1194
0.08221
699
20.22
31.73
0.09176
3.463e+07
3032
55.08
74.69
102.8
147.7
1800
361.3
0.02437
69.56
622.1
21.52
0.02121
243.9
0.2943
0.182
0.01963
0.02119
4.442e+04
0.1095
611
113.8
335.9
13.5
0.6821
1723
0.08102
609.9
0.02162
0.02089
6.825
0.06057
849.2
0.179
3699
10.34
822.7
0.2184
20.6
0.0366
1313
0.04296
620.9
4.85e+06
70.96
101.6
21.39
0.02862
99.29
281.3
3.515e+04
10.29
14.79
36.36
7426
39.51
774.8
8.059
465.5
116.3
41.91
11.19
0.2686
7.471e+07
0.2931
0.02571
184.1
206.8
171.2
0.02154
174.2
8.339
36.22
0.04105
4.601e+04
210.4
2668
0.04611
428.5
131.6
324
134.7
0.03858
23.74
2516
820.7
17.87
0.0218
34.93
311.2
0.02183
45.83
1.583
132.9
113.9
0.3431
71.98
5371
363.4
0.01934
24.05
9.383
4912
996.9
0.172
11.32
1295
0.01938
92.9
686.2
48.58
5.467e+05
51.13
1535
36.74
34.51
8.422
0.02193
5.587e+07
89.64
76.45
3687
40.91
391.9
179.4
402.2
0.02132
8.772
12.97
0.03865
241.5
414.4
140.5
130.1
0.02048
22.64
107.3
0.02163
0.02042
27.61
9.375
10.82
388.8
31.81
1.967e+05
19.84
0.1605
0.02123
44.38
118.4
771.5
2064
0.4579
0.05517
0.02193
2.214
1.772e+04
0.02125
0.1617
5172
102.3
4949
0.0262
30.92
105.8
0.0218
975.7
0.0212
306.2
1.863e+04
224.6
139.4
1.279e+04
0.02189
757.6
0.1021
1577
1259
1807
1.127e+04
0.171
0.9117
1.273
8e+04
0.02178
74.74
1046
994.6
662.2
1.525e+04
0.05299
0.4242
1683
8258
4.346e+04
378.7
1.39e+06
610.8
2.557e+05
126.7
2975
8.898
3.429e+04
0.02274
164
0.02726
0.02644
23.52
0.02544
77.8
13.83
8.806
3.078
0.03687
924.7
201.9
0.02182
13.4
87.71
0.03561
884.7
1.514e+05
41.7
41.96
1943
19.19
607
0.02169
37.79
606.1
0.02307
666.2
74.7
8.869
0.02069
2.459
20.38
4.518e+05
12.07
1.531e+05
18.1
96.45
158.7
1.506e+04
362.3
0.02358
1.005e+04
0.2796
0.02428
5.409
4.851e+05
34.57
708
21.41
8.557
2.941e+04
2.333e+05
380.5
0.02237
0.02183
41.56
16.72
159.6
672.7
48.29
5378
130.8
0.06455
5539
0.04508
7532
0.0216
25.56
3033
17.47
231.5
24.41
0.02177
0.02181
2517
0.1488
326.7
365.6
850.2
15.01
101.8
203.9
231.4
6.158e+04
29.86
1040
861.1
31.67
13.66
245.2
344.7
6084
1.783e+05
25.96
0.02154
0.02139
19.48
45.08
1.351
0.0208
77.94
24.61
1.293
617.8
80.79
459.6
2.282
0.02223
0.2806
1.374
1.448e+04
2714
142.1
0.2506
68.92
1021
354
54.96
9.328
145.5
185.6
140.9
6187
0.02288
1.749e+04
1.811e+04
9.204
75.2
2414
0.02174
4.593e+04
7.034e+04
0.0219
0.02154
42.39
33.81
6.497e+05
712
157.6
844.2
736.7
0.3481
0.6826
0.02251
918.1
19.36
397.7
8.734
7807
61.22
0.02873
4.612e+04
219.1
0.02172
279.9
0.02553
0.02164
50.57
0.08984
4.651e+04
0.02157
966.6
0.02181
509.8
0.07652
12.75
17.89
913.7
504.2
835.1
78.54
0.05494
0.03634
17.77
282.7
415.8
537.5
1.474e+04
880.8
7.036e+04
96.65
697.1
684.7
486.4
5165
0.1169
9.331
0.04374
488.7
313
2447
0.06559
1256
13.55
126.3
209.5
46.5
2.384
1407
10.4
125.9
429.4
1381
1325
0.02107
45.93
484.5
0.02179
239.9
867.5
0.02067
5.94
619.9
0.03442
0.1219
24.52
116
0.1527
0.01976
230.2
273.9
0.02162
0.09145
0.02951
24.37
332.6
27.04
0.03392
3027
1.393e+05
889.8
364.6
14.49
3.439e+04
0.0778
202.3
0.02176
49.61
30.66
179.4
210.9
3973
9820
0.02196
6.662e+05
1989
1382
91.21
1585
9.838
10.53
3140
120.2
0.03219
1.342e+06
69.53
400.7
1665
255
420.6
102.5
7465
154.1
133.1
137.7
602.7
423.6
31.02
1.237e+05
0.1033
207.5
0.09033
992.5
0.01969
0.02165
51.92
4.436e+04
28.2
1.316
5.257e+04
1518
0.02179
6611
153.8
123.1
1.543e+05
6.374
139.9
1.349e+07
13.78
1.139e+04
14.09
124.8
5098
409.1
1668
32.16
318.5
0.07821
18.59
39.48
165.1
28
141.5
10.98
3.028e+04
20.24
0.2652
15.1
0.4222
0.5127
32.73
1.178e+05
0.03589
1.049e+04
3090
185
85.43
0.0218
11.65
54.52
1.008
5060
1517
2501
0.02135
614.6
3172
42.68
4.489e+04
115.3
8.941
1079
0.02191
1421
133.2
1.39e+04
160.5
0.067
15.72
0.02169
1.649e+05
5.217e+04
66.91
0.8916
24.43
0.02085
0.01977
858.1
24.27
7.975
0.06618
0.05109
0.05231
4.703
45.39
12.64
263.9
322.5
5.354e+04
1.226
1942
202.8
327.5
0.0198
846.4
13.06
143.6
6.637e+04
98.17
9.19
135.8
92.78
29.03
2.07e+05
28.57
62.85
11.84
9.554
11.5
312.3
1.718e+05
0.1097
2614
0.02118
385.4
2031
0.02031
4685
77.64
102.3
628.2
0.02138
1.09
4.349e+05
0.02175
290.5
817.5
128.4
1.776e+04
1.19
11.82
1471
4557
96.14
216.6
0.04963
179.7
1.208e+04
1.764e+04
382.6
89.16
0.02169
214.9
8.782
1694
425
9.443
94.96
0.02167
7.248
318.6
0.02207
10.25
0.02263
6673
10.64
3.676e+04
241.8
39.71
1031
40.23
219
767.5
3.406e+05
96.17
212
39.75
26.83
16.92
0.02211
139.3
0.02208
12.7
0.022
13.68
0.02147
309.1
175.5
0.02066
0.02161
951.1
0.1346
1359
0.08725
0.02003
26.36
45.85
0.03101
3.475e+06
5159
3.608e+05
226.9
73.78
391.4
250.2
58.67
1.817
8378
30.86
2231
691.5
59.06
59.56
7.915
0.02155
3.379e+05
68.28
6899
0.02179
6.054e+04
433.3
446.1
238.8
0.01973
0.01971
12.61
31.55
6.209
10.48
110
1.608
0.7782
2.655
11.12
3583
89.12
0.8279
31.27
11.63
1286
1025
145.6
438
20.27
0.0219
288
371
1.806e+04
32.35
0.03463
144
1.297
188
117.9
1858
16.79
0.02174
33.77
103.6
8.551e+04
1.743e+04
1.381
88.29
1733
0.1136
0.01972
2469
498.5
3.128e+05
0.051
1.252e+05
167
0.02152
189.7
2017
10.09
0.09563
15.14
1318
103
82.14
37.26
3288
0.0401
780.5
1691
1097
0.05693
0.05679
538.8
16.07
3.019e+05
196.6
1391
1731
3.397e+05
1.482
461.7
0.02468
0.02176
0.0215
20.45
0.02301
9.468e+04
0.02173
1.18e+04
0.2581
108.3
208.2
1021
0.09462
3.236e+04
0.2718
771.7
21.2
1.531e+04
0.02165
150.9
944.5
17.94
1.576e+04
2949
36.72
2274
5012
0.04495
0.0206
1.448e+04
0.07285
0.01996
0.2743
1.279e+04
0.0206
4766
0.02184
29.17
130.7
13.69
272.4
0.02091
27.72
771.9
101.3
0.05731
30.67
0.1466
0.02173
0.02122
40.56
6.151e+05
72.52
140.5
0.02411
4.01e+04
0.408
0.07156
0.06058
3.112
213.3
834.7
0.02494
473.6
0.02224
43.11
0.02217
0.2315
304.8
45.82
6.242
1440
222.9
0.02119
54.63
3110
615.8
5.53e+04
1796
9.108
0.0332
9.571
5.403e+04
39.25
845.5
3.8e+04
0.07526
0.1187
0.02159
115.7
294.1
73.75
0.0218
844.4
0.02175
0.2035
221.7
0.02136
8.788
0.8672
100.3
15.31
1.043
428.6
0.0219
649.6
7899
11.76
8.381
232.9
0.0399
151
96.5
4794
199.4
93
1017
70.92
147.2
1.243e+04
0.06718
0.1278
225.8
0.03353
309.8
28.41
0.08339
123.2
0.02399
0.3588
6340
19.86
139.3
166.5
5.805e+04
102.6
1.794e+04
2.499
0.02066
1.801e+04
205.2
0.09371
452.5
0.02734
38.13
0.02223
10.17
1.105e+04
13.87
34.96
124.3
210.4
0.02187
108.1
0.2483
23.46
1877
0.02481
133.5
3404
0.02159
0.0251
142.1
0.07335
70.85
8.56
5.1
83.46
1.575
23.69
0.07054
2.878
77.05
0.02107
0.1475
1517
5.915e+04
0.02087
490.7
1.69e+04
12.81
546.8
10.52
197.5
5.757e+04
0.05804
0.1118
217.3
0.02517
1262
43.4
29.43
6685
220.2
0.02442
208.3
8.88e+05
3.328e+06
177.8
253.9
218.1
2.188
19.49
27.05
34.65
1634
685
789.1
473.7
2.798e+04
29.71
5.048
0.02171
1939
5.013
50.49
0.1523
0.03876
218.6
189.8
8.581
0.02036
878.8
1786
121.4
422.5
16.98
6.264e+04
441.8
0.02627
283.3
2.313e+04
26.23
161.7
1.029e+05
0.01939
8205
2411
208.1
0.02755
28.69
12.78
1337
365.8
16.41
1995
0.03293
4.484
262.6
0.0487
13.25
0.02168
625.6
6661
186.9
2576
3.716e+04
33.1
2.155e+04
0.1083
2273
23.46
9.73
0.03496
9.657
61
23.37
153.1
0.06547
169.1
2.349e+05
6.28e+04
111.7
72.83
0.7107
0.7094
0.02187
0.02543
75.41
0.4153
0.02165
118.7
166.4
330.5
365.2
35.28
349.2
34.72
4887
6.685e+04
7.258e+04
0.08497
154.4
1.833e+05
10.63
6938
10.45
33.89
58.66
2.326e+06
20.89
31.17
0.0433
0.05071
1166
151.7
0.02173
0.02196
13.53
2004
17.21
167
3.852e+04
17.97
0.02362
1593
10.13
210.5
4992
1.115
7.284
34.16
116
2.205
112.4
0.02188
1905
8.884
1455
18.19
295.1
8021
8.608
1652
47.26
1616
178.9
6841
0.07455
12.63
76.4
36.51
806.3
242.3
1.336e+04
985.7
0.02165
317.4
10.6
1129
120.1
0.266
15.73
0.07693
6647
0.04851
206.7
34.17
117.3
11.91
17.18
0.448
6.426e+04
0.2143
0.02455
2088
0.02091
22.14
0.03063
2.7
10.57
0.02151
0.3655
280.8
4709
0.02176
0.02311
11.08
42.06
288.7
0.1663
52.53
91.08
1746
718.7
30.45
143.8
121.7
0.08977
143.9
6.627e+04
9.094
4488
575.6
9.676
5.701e+04
0.02173
0.0206
1.471
7.253
3.695e+05
0.0218
11.91
1674
3.354e+05
753.9
1003
0.01981
0.01952
489.2
124.9
97.83
210.9
0.03168
34.82
5.08
0.02222
1568
268.3
128.9
59.93
5912
7.108
9.041
0.01978
28.29
343
1451
794.2
103.6
1.718e+04
1441
51.06
152.3
464
121.9
0.06568
168.9
1.201e+04
0.02794
0.02645
608.8
294.3
1.382e+04
1.694
1345
157.9
0.1408
0.02173
22.29
0.02211
35.04
3.867e+04
40.75
0.1197
143.4
0.04359
2.436e+04
722.2
0.06565
33.31
30.38
141.2
36.69
193.7
137.6
66.12
41.02
64.61
38.74
12.93
2949
198.5
72.14
364.5
2.072e+04
220.6
1274
1353
3.341
2.132
51.36
2.102e+04
0.6903
189.8
0.02229
17.24
0.02214
186.7
8.385
2.139e+04
318.9
0.07968
3085
2.149e+05
2485
34.3
108.7
1562
5345
0.2651
39.84
57.86
1.375e+05
148.7
63.28
0.28
0.28
0.02175
18.43
1.712e+04
15.74
4196
12.24
0.07393
4125
0.01971
41.62
0.8766
18.6
2750
0.2089
8.303
8.489
0.03632
459.3
52.64
7.103e+04
2609
158.3
0.0214
68.62
120.2
1.174e+04
1292
66.29
7.92
73.46
0.02172
415.7
1407
12.66
82.98
31.43
5249
1058
723.9
103.5
0.6664
1.503
2.747e+04
9.491
0.06363
9.239e+04
0.06771
15.05
0.02174
0.02199
114.5
0.0219
1843
144
34.82
17.79
1026
4553
160.3
1876
149.2
16.9
5.936e+05
38.47
116.5
2.191
2.315e+05
11.33
1.874e+04
2.283e+04
0.04319
1716
1015
12.87
13.98
1.228e+04
746.9
2943
25.44
43.53
0.02606
8.42
0.02206
1.164
13.49
1189
81.76
50.98
3.793e+04
14.77
0.02188
416.7
52
21.65
86.63
51.05
210.7
876.7
3023
1.612e+04
472.4
271.6
1922
107.6
403.2
0.06504
2.896e+05
362.9
124.2
1.744
0.02156
256.7
479.9
19.55
12.53
1.741e+04
1393
331.4
84.28
55
4309
0.02162
1.621e+04
9.398
0.03531
87.16
858.2
0.02166
273.5
13.85
44.59
2.271e+04
36.43
88.29
2.325e+05
47.16
245.3
0.01967
0.01961
236.8
99.05
11.16
678.1
150.1
0.02151
5979
1462
30.02
0.02173
0.02188
35.48
64.04
246.6
7.852e+05
1003
0.02806
822.4
7.174e+04
0.07959
760.2
389.5
0.1046
2.624
3138
35.6
59.4
0.01964
0.01949
0.01946
0.02019
0.07717
34.19
51.59
1110
19.62
493.3
32.94
1985
0.02079
105.6
71.62
7292
1603
9058
455.6
101.3
360.2
25.44
176.8
0.08917
131.8
4.4e+05
307.5
6838
0.278
353.8
0.02173
2.413e+05
101.2
461.5
16.81
0.03034
6.593e+04
0.02179
103.9
1126
0.04185
135.4
133.9
15.22
217.6
1.433e+04
0.03844
1239
0.02066
5.163
120.6
442.7
18.69
181.9
0.0215
0.02171
0.1683
1604
1720
0.2384
17.94
153.9
9.954
6709
387.6
14.64
9.841
30.26
82.65
0.1589
1.108e+05
0.2416
0.02173
1.537e+04
0.02171
0.02165
0.3686
0.1079
1.21e+04
16.84
2175
36.08
418.2
0.02187
0.0831
716.3
233.9
13.67
0.05536
0.1987
5.186e+04
7093
0.02213
1.334e+04
8804
3.719e+05
0.06824
12.67
15
0.07428
0.0234
12.38
241.4
4.717e+04
0.06806
842.7
2.548e+06
0.02174
471.1
3138
145.9
0.02178
1070
8.939e+04
1.47e+05
7.861e+04
0.8604
132.2
7.953e+04
0.04625
130.1
0.02153
16.9
1266
8.35
598.8
7.615e+04
0.2059
251.9
195.6
0.02225
0.02839
625.9
1620
10.78
1.587e+04
117.2
3.882
12.31
25.67
605.7
84.95
0.02175
41.02
36.81
238.6
663.3
369.2
587.8
585
1.003e+05
1.151e+05
1.426e+06
658.4
0.04517
1786
0.02445
1384
2633
0.02175
7.412e+05
0.02221
311.5
1.785e+04
4189
131.8
255.4
821.7
734.4
0.01963
6.548e+05
205.3
0.05769
11.55
207.4
1.142e+05
1.996e+04
2.295e+05
10.86
620.8
6429
15.89
0.0662
121.1
1.302e+04
0.02088
75.01
98.14
411.7
83.94
52.48
10.92
6141
159.4
218.3
1.824e+04
0.06318
3959
0.07592
91.63
373.2
0.0231
0.07751
79.75
961.5
377.8
9.635e+04
0.05565
0.02172
13.54
269.5
4756
42.6
7.932
0.01962
0.02847
1530
0.01995
569.1
521
0.06352
181.9
73.62
2.731e+04
1.027e+05
6.038e+04
0.03232
781.3
136.5
179.4
12.92
9.175
2.369e+04
15.63
1773
286.7
1.227e+04
212.3
6.111
4.914e+04
29.61
110.3
25.93
0.05115
94.18
0.1646
0.02184
54.74
557.9
84.93
222.6
73.24
1.881e+05
2.948e+05
10.36
2.179e+06
0.2757
0.5156
0.03034
0.04702
89.59
0.02221
774.4
8.62e+04
713.4
7505
46.13
35.12
320.9
108.9
13.26
828.2
16.81
8645
199.3
0.0258
222.2
113.5
0.02204
0.03578
2623
0.02185
226.4
254
282
23.4
4137
0.09641
31.98
0.03578
1012
2.092e+04
1198
99.84
0.02143
686.4
0.02154
0.4423
233.5
40.47
5.727e+04
228.7
771.5
9.812
3742
0.5107
0.2047
23.59
577.5
0.02083
15.7
0.02185
1316
2607
282.1
103
0.02153
975.6
416.6
106.6
5.814e+04
246.3
3815
0.02286
34.5
11.4
8.597
365.1
48.56
0.07388
2.735
0.1113
110.8
110.9
0.02068
0.02025
0.02208
0.03449
0.1273
5562
763
0.02179
240.8
62.17
169.5
0.02194
181.3
0.05962
2619
0.09229
4.34e+05
138.5
3068
0.04312
0.08894
6.113e+04
0.02713
160.5
246
388
381.3
102.2
0.02181
260.6
792.6
63.58
119.2
38.68
19.41
36.5
132.2
1215
0.0215
17.19
84.06
7269
0.09477
0.02209
423.8
2186
22.86
21.57
33.78
999.8
0.04004
52.57
1136
10.88
373.7
101.5
0.02568
17.07
6.327e+04
74.99
334.4
7276
2.439
25.37
0.02166
0.02666
0.1179
0.04586
5.854e+04
174.4
0.02195
0.02243
117.9
3.039e+05
0.02194
28.01
2.157e+04
162.7
19.82
207.6
2692
107.1
37
862.4
1.143e+05
3163
0.02185
71.86
38.2
139.8
0.02139
0.532
256.4
31.7
574.6
7.488e+04
7243
16.22
999.2
1.197e+05
9.823
1074
25.79
3.709
2.209
2451
4.161e+04
0.02157
309
137.2
0.02193
7493
16.88
2.971
0.06277
47.13
832
400.6
122.1
0.02168
0.02177
13.24
344.1
0.02001
23.45
0.02456
2771
10.59
16.17
546.6
2359
19.81
72.43
0.02139
7.324e+04
18.41
4540
562.5
0.06414
713.3
45.82
267.4
5.746e+04
7.927
5.368e+04
0.02075
0.02124
36.5
0.04583
0.02139
1.404e+05
209.5
477.8
6041
106.9
47.2
0.02788
1.362e+05
0.03916
140.9
0.02024
0.0924
126.2
56.65
62.94
41.85
8.861
1467
0.02046
60.97
6684
6759
9176
0.1214
58.41
35.02
0.02195
1496
431.7
0.5222
0.04002
164.4
5.911e+04
0.02188
0.02151
44.2
4195
10.87
2537
0.02206
9057
153.3
142.6
0.02208
0.06315
1138
335.5
3276
25.45
67.08
0.02044
841.2
0.03048
1144
9.584e+04
0.05635
247.4
10.91
1.418e+04
3.743e+04
1873
0.05105
0.02047
57.57
0.153
0.02163
470.4
249.8
10.03
0.02033
0.0655
0.06774
0.02617
732.5
87.84
0.02173
858.8
146.4
2226
0.02568
0.02191
0.02163
0.05052
133.9
22.76
709.3
6.074e+04
3.597e+04
134.3
1.172e+05
5070
0.02269
5.176e+04
80.61
5143
8.905
0.1152
2.887
1.217e+04
1199
3446
622.4
0.04925
32.77
516.2
122.4
18.95
0.2109
392.7
0.1127
444
0.03591
42.02
42.4
23.01
0.1701
1155
1.127e+05
8112
0.02061
5.889e+04
45.99
0.01994
250.5
0.02181
2708
93.61
0.1183
478.5
533
0.0223
3.002
8.381
1.553e+04
0.02233
0.125
1.587e+04
12.63
0.02157
3792
41.59
0.03024
0.1179
16.77
185.6
7.112e+04
674
91.23
10.65
1673
0.5505
0.02169
0.03906
633.8
122.8
116.2
0.02207
1.625e+05
227.7
61.45
342.1
45.98
89.67
0.02017
0.05595
746.6
220.5
0.03861
157.9
806.8
9.594
2.204
8.793
9.906
0.03648
8.403
60.75
84.2
41.29
0.02205
2004
0.1629
49.13
20.74
8.586
6917
88.23
4.131e+05
15.12
0.4452
0.2336
0.02118
16.95
49.56
4698
1883
225.1
488.9
3821
37.29
0.4054
84.67
685.4
1.036e+04
37.96
0.03702
1917
1.548
1702
30.96
9.947
31.92
238.7
0.02179
358.8
0.247
0.02164
1.881
1911
1.308
2.814e+06
719.5
1334
0.02165
37.22
229.1
0.04868
26.04
42.35
4513
530.9
4260
0.02188
128.8
0.02065
8.542
342.8
704.2
19.59
789.1
2.1e+06
0.02148
0.02174
89.33
186.1
1537
3.944
125.5
879.7
25.05
14.64
0.0218
467.9
2888
0.0624
34.36
0.02156
171.5
0.04855
62.9
447.9
134.6
0.3209
2883
131.8
0.02528
722.5
162.5
0.4588
0.02146
0.02258
489.1
4663
49.25
8.071
95.96
16.39
186.8
50.98
0.0194
0.1591
0.5012
1.148e+05
3717
2248
0.02134
661.1
150.3
3382
2206
2.487e+04
9.466
31.03
148.7
107.6
800.9
5335
24.4
0.07324
9.726
0.03016
2.109e+05
0.02237
13.95
571.7
65.05
14.7
680.8
60.82
1.546e+04
12.86
1088
46.2
12.34
469.9
1.111e+05
33.37
6.219e+04
3.375e+04
0.02175
6.883e+04
261.7
1764
3417
40.91
45.34
384.7
111.4
38.56
0.03551
14.8
17.48
123.6
33.58
84.28
0.4269
4.916
32.42
7.111e+04
53.21
1.153e+04
122.7
683.4
0.02027
888.8
96.96
5426
11.91
2.313e+04
381.1
339.2
0.07268
4454
0.06363
20.29
40.58
0.06726
1.568
25.49
51.94
211.7
415.7
33.31
202
46.25
2.274e+04
47.61
3.805e+05
0.03513
46.61
280.9
9.109
0.04062
702.2
0.02173
0.02199
0.02173
64.4
161.8
1354
13.82
0.07746
51.31
0.03765
3.767e+05
3210
6.782e+04
250.9
0.05652
946.1
6926
0.07317
2570
0.02187
35.49
8.581
989.8
34.49
0.02128
0.02138
144.8
9.076
0.03612
7.271e+04
176.9
0.02095
0.0218
91.54
0.03046
749
1.263e+04
0.03071
16.53
867.6
564.4
473.8
7.606e+04
35.38
0.1433
69.44
304.5
0.1173
397.4
77.97
1.641
825.3
140.2
2.207e+06
0.02634
142.6
1.166e+04
2015
0.02183
40.7
0.02176
13.46
61.93
98.9
37.1
333.7
107.6
0.1657
2108
3053
1190
1210
1013
71.96
13.38
107.7
360.2
27.6
487.3
0.02219
6.457e+04
2.052e+04
2326
65.43
27.14
2844
723.9
0.2896
0.2559
7.418e+04
186.1
0.05445
0.03166
0.05156
399.5
814.8
30.43
5257
68.86
0.037
171.7
101.6
77.53
481.8
3.924e+05
1346
145.5
642.1
47.96
116.7
3749
72.54
17.26
9.324
2313
38.04
0.245
65.03
805.7
0.08264
145.4
0.2771
17.8
7.513e+04
1242
0.02204
1002
15.69
2.847e+04
1825
0.02136
0.09414
843.2
0.02889
43.73
2451
951.1
9.154
0.02173
0.1873
12.53
17.24
0.07987
423.5
0.02077
681.1
28.45
627.6
637
83.5
86.41
459.6
917.4
0.1629
114.5
0.02182
1.014e+05
0.03435
0.03088
610.4
0.0218
30.42
11.14
1.349e+06
0.02196
123.6
215.3
566
389.4
0.252
86.19
38.42
366.5
3923
41.59
0.07012
0.02198
470.1
697.4
21.73
89.31
1980
4768
0.8065
0.02113
60.77
297.9
1.561e+05
90.04
99.84
0.6549
230.6
0.0215
30.31
9027
1959
0.02197
0.213
1685
0.01979
117.5
2273
34.97
0.02195
0.022
8.204
0.02316
0.02013
0.02173
8.284
1457
2159
0.3714
162.3
18.25
16.84
0.02225
19.67
114.5
0.04133
0.6925
1849
13.6
0.0253
3102
59.62
7.881
6.458e+04
7.792e+04
0.02502
151.7
15.74
586.9
77.08
6726
0.02194
152.5
7.071e+04
10.98
651.8
0.8582
3304
72.63
201.9
29.1
2.849e+04
0.05104
2.21e+04
45.87
0.02532
0.02872
0.02006
387
30.94
4848
339.9
1.124e+05
0.07075
0.01942
204.5
233.3
0.07157
0.02182
1107
10.09
1851
57.81
2937
366.8
146
26.31
267.5
0.01972
3.591e+04
222.8
76.07
30.41
0.06511
0.02193
31.2
13.47
456.8
7355
68.66
0.03859
79.7
16.65
0.05767
0.02185
1789
203.5
9536
281
34.43
2.75
82.29
20.69
13.59
125.9
0.777
0.1317
0.02192
87.91
2.853e+04
28.55
0.4291
8346
0.5023
0.02168
20.35
0.02828
0.02203
45.39
0.01937
0.01932
9.138
0.02011
54.35
9.701e+04
592.8
13.39
0.1349
0.02113
0.02197
55.13
217.7
68.44
6.945e+04
17.22
0.03007
10.28
56.46
4332
1.079
0.02198
2.855
96.28
0.02203
0.02136
104.5
245.4
0.04985
0.02821
95.85
0.0213
1.585
0.02148
3.923e+05
1.857
1561
9.559
0.02732
0.269
8.977
26.49
801.4
20.34
105.6
14.23
0.02214
4.835e+04
18.29
234.1
0.02191
802.4
423.7
136.8
1175
0.2403
554.6
25.48
0.137
6120
0.02205
8.498e+05
38.77
2.973e+04
0.02197
247
0.02174
0.07732
10.13
1.316e+04
14.1
554.7
17.11
0.1138
3484
0.1281
3230
5501
8.194
0.08785
0.05517
637.4
0.02162
7.976
31.08
52.63
40.13
0.02176
1.898e+04
0.03353
414.4
1075
68.89
2009
1.393e+04
22.87
1166
123
1.47
21.22
0.4916
0.02173
0.02181
985.7
12.01
2.219e+04
72.78
154.5
0.02179
90.48
0.02179
0.02169
0.03134
419.7
0.1032
17.45
0.03495
61.69
0.1834
92.14
290.6
2673
0.02514
468.4
378.6
127.6
0.1792
25.18
0.02187
114.7
0.4087
110
16.19
0.03236
249.2
1.499e+05
593.5
3119
32.08
3.968e+04
1917
3.849
94.95
2734
58.1
1.769e+05
752.2
35.16
86.42
171.6
52.43
2422
707.2
0.03868
28.48
0.09179
569.5
3.331e+04
113.9
3227
961.5
16.18
611.9
0.03333
252.1
52.85
8.166e+04
11.88
0.02233
27.11
23
169.6
0.05842
69.95
176
38.29
0.5069
456.6
82.93
1.464e+04
402.9
159
31.03
20.49
1678
0.02451
798.9
16.31
0.02363
113.9
115.5
597.7
937
282.4
0.02202
939.8
28.78
0.0771
2.987
669.3
2.507e+05
220.2
0.02084
0.02471
0.401
523.9
92.07
0.0215
4.227
634
730.2
1.797e+04
0.02103
261.5
8568
82.87
1.927e+05
143.3
185.1
135.9
36.22
58.58
0.02328
110.2
7460
45.01
315.9
3.967
36.69
0.02163
0.07246
642.8
295.3
34.92
2464
136
0.02171
8635
120.5
0.1691
486.6
1.651e+04
2.663e+04
0.04206
0.1352
0.02446
130.9
7122
1035
2685
172.9
287.8
0.02181
91.08
4.93
9.142
1.168e+04
0.5822
6.954e+04
59.99
5356
0.03296
200.3
3517
0.02169
161.2
206.4
206.5
10.53
0.0219
0.02169
0.0383
49
0.0217
12.27
2.457e+04
0.1081
22.84
643.5
0.0377
103.6
11.98
0.2695
5011
120.6
2.089e+04
98.23
0.02174
404.1
6121
0.0217
1.387e+04
11
151
61.77
781.7
39.3
438.2
14.45
12.11
0.02194
13.26
0.02178
0.05438
3006
148.3
87.55
70.29
1.9
291.4
0.02175
0.01965
0.05232
224.7
66.35
126.1
6.964e+04
18
0.7334
530
1.049
49.88
0.02135
1692
953.1
20.72
13.69
179.1
172.2
49.36
31.2
1.657
0.02235
132.5
23.52
142.5
4942
6.412e+04
756.3
0.02149
125.9
34.44
17.98
3.246e+05
0.02165
124.7
31.69
24.89
138.9
33.96
2.003e+05
135.8
50.88
931.2
8633
29.43
62.09
7225
4.132
0.02168
383.6
23.61
45.23
84.66
18.19
1.998
0.0449
1949
577.3
2479
28.31
1876
563.5
0.02172
354.2
54.8
104.8
15.42
0.01935
414.9
85.5
69.99
13.96
0.02133
846.8
13.22
14.44
105.1
215.1
172
62.66
740.6
651.5
0.01992
258
78.01
233.9
876.9
652.3
67.2
31.24
53.18
8.423
166.7
1429
6.597e+04
1370
562.5
3.751e+04
27.26
0.07609
9.055e+06
502.9
5161
0.03545
4855
4721
391.8
60.44
0.0219
2.573
0.02179
20.15
178.6
15.64
0.8433
14.89
1487
43.3
8.445e+05
15.68
358.6
2416
6.051e+04
878.4
284.6
24.07
0.08881
521.2
14.94
7.68e+04
189.1
0.3807
0.7681
4456
3.179
0.022
0.0217
60.19
95.89
0.03883
0.02017
0.02187
1846
496.3
3.603e+04
0.02155
0.03093
101.1
0.01976
0.0199
885.2
0.05434
154.2
945.9
0.0527
4910
27.59
78.08
7.982
44.96
0.04888
106.8
27.8
2.56e+06
61.31
1206
3276
4014
12.67
0.03085
10.03
1477
0.02171
11.03
369
1348
5.204e+04
563.8
62.94
1796
0.02456
391.6
9370
290.5
122
148.6
0.07145
63.59
15.38
6423
168.3
215.6
0.04835
2304
1031
0.03575
31.84
0.06678
42.82
0.02624
6250
6.649e+04
0.02768
1680
177.6
0.1537
1230
116.6
0.02236
2.269e+04
168.7
229.5
1692
0.03402
14.63
2.027e+05
109.9
1283
16.68
28.5
7.945
32.45
194.1
0.05828
5.734
102.6
172.8
50.72
19.94
81.63
16.9
186.7
944.1
120.5
14.6
2.845
0.0218
0.0909
1338
26.72
0.01936
8.389
71.28
14.44
194.3
115.4
79.82
0.09499
1839
117.4
0.1076
77.69
208
0.0744
1629
0.03989
2205
9.262
0.1823
0.06465
10.42
1363
89.32
0.02094
166.9
943.6
309.8
0.1828
0.0219
11.58
585
1860
34.91
91.38
12.88
1706
13.72
32.57
8.96e+04
9.945
4.61
1.813e+05
1245
14.29
19.22
0.02204
4.659e+05
0.02205
49.77
165.4
364.7
405.5
474.5
7.81e+04
9.498
41.65
24.47
1.099e+05
1003
16.14
1.68e+05
2.169e+04
933.2
197.1
0.1858
1.71
13.84
141.7
0.02187
658.9
8.228e+04
0.04373
126.6
17.22
21.48
993.5
941.4
1.619e+05
4110
254.8
0.01954
0.01933
0.02178
1827
7994
0.4375
0.02158
0.1799
7373
24.11
1.79e+05
238.7
0.02207
1.549e+05
0.01938
5.258
11.9
0.03789
15.67
0.6287
4.293
0.0573
1067
27.68
100.9
145.2
9.505e+04
13.96
413.1
249
10.96
0.02213
2.54e+04
777.1
666.9
295.5
3298
552.4
355.9
0.05496
37.8
343.9
23.89
666.6
0.02903
1756
68.89
754
27.92
0.1989
0.2584
0.02182
309.1
69.68
311.6
809.1
11.64
2439
35.72
25.59
11.39
317.1
0.1841
3150
243
215.4
36.88
0.06391
24.36
0.09133
108.3
20.76
272.8
13.05
612.2
13.68
33.65
680.6
0.2193
6084
48.64
0.5661
0.0874
1.427e+05
526.4
354.9
54.54
2.168e+04
0.02204
2.362e+04
1120
111.4
149.2
195.3
139.8
194.4
21.75
185.8
217.5
419.1
9375
0.07252
0.02186
0.02174
147.5
520.3
7.813
9.893e+04
352.2
3.483e+04
3612
141.9
6268
7.345e+04
24.36
889.9
1881
34.52
7.657e+04
0.02166
255.5
1199
1169
0.02157
1106
39.12
261.9
451
280.1
0.02169
10.55
307
2853
0.02089
503.2
10.57
0.1593
1.232e+06
0.03324
10.74
12.32
318.8
485.1
0.4467
29.36
6.481
524
1632
327.4
0.0194
16.5
2.629e+06
0.02525
0.02264
5443
3149
102.1
1626
0.06094
24.27
102.8
109.3
151.9
212.7
0.01999
32.81
9.761
0.1257
0.02195
41.82
0.0212
3.276e+05
31.23
3.608
8.012
5.194e+04
0.02166
360.1
0.02
0.02216
514.8
0.4903
3787
9.115
0.04095
86.44
1180
36.85
48.49
58.48
694.8
362.7
1534
1157
1595
1.637e+04
3276
99.13
756.3
388.7
240.5
0.2384
0.02113
0.02118
1.222e+04
18.08
984.9
1.71e+05
0.0218
845
1.1
0.02038
22.73
1.821e+05
8.448
887.9
1.004e+04
0.02206
1695
67.74
24.18
10.09
20.82
4801
306.3
0.02174
1.858e+05
5054
0.06205
0.02345
4404
466.8
1965
924
172
682.4
0.02169
671.7
0.02118
442.8
941.2
1.648e+05
0.01956
0.01935
0.1484
203
0.03077
20.17
6.219
20.55
42.68
145.2
393.8
0.04667
0.02681
7.134e+04
8.265e+04
156.6
1763
0.04597
1067
0.02215
170.7
4822
1891
8491
846.7
853.4
599.1
0.3031
22.09
48.61
0.02507
0.02177
0.02174
14.35
274.4
2392
1.206e+05
433.3
0.02455
1396
2876
786.5
1.311e+05
64.46
2021
897.6
280.4
0.05377
8.628
17.74
1.106
0.0824
2515
41.8
77.58
36.95
1207
0.3427
0.01973
6.957e+04
14.66
11.63
79.99
8.446e+04
18.63
0.02082
338.8
43.22
225.9
23.48
199.9
1353
4.299
273.8
12.89
0.06431
230.7
0.04336
0.07626
1.465
1294
41.5
3117
31.34
85.36
68.51
0.02851
183.9
549.3
0.2353
102.3
5.752
6.932e+04
0.03023
0.02379
209.7
196.3
202.4
44.39
8.557
8608
0.06483
0.02183
62.28
7139
0.02458
0.5805
104.5
0.0216
7.408e+04
0.05031
75.44
122.1
169.6
1.615
1211
8483
7.598
0.05927
0.02173
27.43
87.24
231.8
20.97
0.02133
0.02019
0.02173
330.7
244.6
400.9
0.05348
2134
77.7
873.4
93.59
1797
0.5297
0.0302
1.509e+04
0.02188
2111
46.56
0.03021
166.9
247.7
1229
282.4
390.7
18.88
18.54
0.07012
8439
4468
6869
0.1765
0.7084
0.02169
7.487e+04
0.02159
698.5
6356
0.02215
15.03
140.8
932.4
0.08179
18.56
5.017e+04
23.11
0.02166
23.14
867.2
72.88
229.6
18.42
60.56
5.85e+04
11.53
0.0207
0.02251
4.209e+04
50.36
625.6
8.907
95.82
0.02117
0.02193
7.229
2.727e+05
6440
1098
552.8
2.704
502.7
5837
328.4
597.4
0.02189
1541
8.292
821.7
28.09
23.75
0.0216
1588
17.57
5.913e+04
6.221e+04
10.26
33.37
4.427
4063
0.02687
9.217
6.2e+04
1386
448
7139
2.529e+04
562.9
239.1
0.1119
2526
700.6
2492
89.27
0.02634
4121
2.559e+04
0.02172
511.7
1.36e+04
1105
2376
60.42
24.54
267.6
80.87
0.03319
170.9
0.02211
185.8
0.09887
5.583e+04
0.12
1.57e+04
89.69
694.3
17.41
15.96
1626
11.6
306.2
2922
107.7
68.56
9.168
52.17
201.7
2514
73.37
0.02448
100.7
47.02
435.4
327
199.8
957
79.9
0.02497
92.02
8.855e+04
24.27
12.51
335.5
0.03905
67.86
0.02157
105.3
2.271e+06
3.325e+05
1490
44.87
76.91
0.021
0.05268
32.26
41.37
126.8
19.75
0.02181
29.88
132.4
48.6
103.1
0.02166
2615
5778
2.337e+05