/*--------------------------------*- C++ -*----------------------------------*\
  =========                 |
  \\      /  F ield         | OpenFOAM: The Open Source CFD Toolbox
   \\    /   O peration     | Website:  https://openfoam.org
    \\  /    A nd           | Version:  8
     \\/     M anipulation  |
\*---------------------------------------------------------------------------*/
FoamFile
{
    version     2.0;
    format      ascii;
    class       surfaceScalarField;
    location    "30";
    object      phi;
}
// * * * * * * * * * * * * * * * * * * * * * * * * * * * * * * * * * * * * * //

dimensions      [0 3 -1 0 0 0 0];

internalField   nonuniform List<scalar> 
189008
(
3.413e-08
-3.413e-08
4.374e-09
-4.374e-09
8.658e-09
-8.658e-09
1.249e-08
-1.249e-08
-1.065e-06
1.065e-06
1.273e-08
-1.273e-08
4.498e-06
-4.498e-06
-1.675e-06
1.675e-06
-1.011e-06
1.011e-06
6.677e-07
-6.677e-07
5.44e-06
-5.44e-06
-1.992e-06
1.992e-06
-3.55e-09
3.55e-09
-1.398e-08
1.398e-08
-4.545e-06
-6.799e-06
1.134e-05
3.015e-06
-3.43e-06
4.147e-07
-2.839e-08
2.839e-08
0.002977
-0.003786
0.0008086
-0.001344
0.000719
0.0006249
-3.583e-06
3.847e-06
-2.645e-07
0.0004461
-0.0003701
-7.604e-05
7.647e-08
-4.587e-08
-3.06e-08
-0.00323
0.01033
-0.0071
1.235e-05
0.0002831
-0.0002955
4.349e-08
3.298e-08
-0.0001333
7.56e-05
5.765e-05
-1.038e-05
1.142e-05
-1.042e-06
-1.145e-05
1.066e-06
0.0001012
-7.938e-05
-2.183e-05
0.006365
-0.01549
0.009123
-2.571e-05
-0.0001175
0.0001432
-3.558e-05
-9.767e-05
2.172e-05
-1.506e-05
-6.657e-06
-1.652e-05
1.005e-05
6.472e-06
0.01145
0.01082
-0.02227
6.166e-06
1.556e-05
3.135e-05
0.0002079
-0.0002392
-0.0004371
0.0006994
-0.0002622
-2.787e-05
0.0003521
-0.0003243
-2.713e-05
3.086e-05
-3.73e-06
-0.0009398
-0.0004041
0.001955
-0.003751
0.001795
0.0005562
-0.004496
0.003939
1.022e-08
-1.022e-08
0.001737
0.00124
-8.685e-06
-7.834e-06
6.726e-05
3.395e-05
-0.0004386
0.0004476
-8.989e-06
-0.0004816
0.000578
-9.64e-05
-1.835e-05
0.0002829
-0.0002645
1.049e-06
1.966e-06
-0.01406
-0.03042
0.04448
-4.172e-05
-2.696e-05
6.868e-05
-0.01274
0.0114
0.001345
1.083
-0.1282
-0.9545
0.0005454
-0.0004413
-0.0001042
-0.1466
1.229
0.01213
-0.007522
-0.004609
-0.3126
0.01867
0.2939
-0.005479
-0.007265
-0.002308
0.000126
0.002182
-0.0003989
0.0007749
-0.000376
-0.0001768
0.001378
-0.001201
-0.81
0.9551
-0.145
-1.681e-05
3.79e-05
-2.109e-05
-0.0003122
-0.003189
0.003501
-0.02861
0.0229
0.005715
0.001628
-0.001355
-0.000273
0.0004555
0.001173
-1.277
0.4803
0.7971
-4.029e-05
-0.0001746
0.0002148
4.428e-06
6.994e-06
-0.0008874
-0.0005115
0.001399
-0.1157
-0.1969
-0.2736
0.5159
-0.2424
-4.753e-06
-6.693e-06
-0.05145
0.09167
-0.04022
-0.0004433
0.0004167
2.662e-05
0.0002941
0.0002513
0.1599
-0.6341
0.4742
-9.851e-05
7.663e-05
2.188e-05
-1.554e-06
-2.029e-06
1.705e-05
1.907e-05
-3.613e-05
5.401e-06
2.421e-05
-2.961e-05
0.0001207
-0.0003076
0.0001869
-0.0002504
0.0003981
-0.0001476
-0.0004286
0.0008053
-0.0003767
4.198e-06
-1.66e-06
-2.538e-06
-0.003123
0.002811
-0.0003481
0.0006121
-0.000264
0.1857
-0.02126
-0.1645
-0.005279
-0.006542
0.01182
-0.0002681
0.0008925
-0.0006244
0.0002661
0.00018
9.623e-05
-9.816e-05
1.924e-06
0.02846
0.01429
-0.04275
0.003335
-0.00138
0.00014
-0.0001416
1.581e-06
-0.0003466
-5.853e-05
0.0004051
-0.01873
-0.009886
0.6862
-0.5263
-2.905e-06
-0.0004786
-5.073e-05
-0.0001644
0.0002151
0.004343
-0.005274
0.0009308
8.856e-05
-0.000339
-0.0004487
0.0001021
-0.0008537
0.001216
-0.0003622
-1
-0.2773
-0.001213
0.0006054
0.000608
-1.154
0.876
0.2778
2.393e-05
-2.848e-05
2.86e-06
1.337e-06
-0.000229
2.826e-05
0.0002007
0.0007236
-0.001071
0.0003478
-0.2119
0.09598
0.1159
0.0006242
0.002505
-0.00313
-0.1066
0.05834
0.04829
0.1657
-0.4393
0.02326
-0.07471
2.874e-07
-2.292e-07
-5.817e-08
-1.253
0.09881
1.131e-05
1.915e-05
-3.046e-05
-0.0003871
-0.0007165
0.001104
0.014
-0.01199
-0.00201
-6.579e-05
-3.272e-05
9.482e-05
-8.819e-05
-6.631e-06
-0.0004402
-0.0002387
0.000679
0.08805
-0.1031
0.01505
-0.0001416
5.651e-05
8.514e-05
-0.0003729
0.0003028
7.008e-05
0.0002791
-8.853e-05
-0.0001905
9.199e-05
-3.497e-05
-5.702e-05
-0.0003419
-0.001156
0.001497
-0.0001839
-0.0002594
6.969e-08
-5.459e-08
-1.51e-08
0.0002919
-1.28e-05
-0.004977
0.03643
-0.03146
-0.0001307
0.0002949
-0.0001642
-9.708e-05
0.0001114
-1.431e-05
0.03413
-0.05549
0.02136
0.009176
0.0002974
-0.009473
-0.04784
-0.04218
0.09002
-0.0001429
0.0001759
-3.292e-05
-0.0004634
0.0002851
0.0001783
-7.581e-05
3.409e-05
0.001517
-0.0006121
-0.0009053
-2.681e-05
-9.974e-06
3.679e-05
-0.02781
-0.7822
0.0001143
-2.229e-05
0.000144
-0.0002094
6.539e-05
0.002558
-0.003767
0.001208
0.0006934
-0.000194
-0.0004993
0.002138
-0.002495
0.0003568
-0.008926
0.0002656
0.00866
0.0001499
-0.0003206
0.0001707
0.0002892
-0.0001684
0.008035
0.004096
0.0003758
-0.0003086
-6.713e-05
-8.825e-05
-0.0003504
6.095e-05
-0.000116
5.501e-05
-0.0001631
0.0002982
-0.0001351
-1.577e-05
1.577e-05
0.1918
-0.006103
0.0003531
-0.0001084
-0.0002446
6.996e-05
-0.000149
7.901e-05
1.329e-05
-3.01e-05
-0.0002161
2.288e-05
0.0001932
0.0001274
0.001619
-0.001747
-0.000148
0.0001207
2.735e-05
-0.04176
0.03373
0.008029
1.106e-06
3.481e-06
-4.587e-06
-0.0002589
-0.0002045
-0.004559
0.001917
0.002642
-0.002689
0.0008527
0.001836
1.021
-1.194
0.173
-7.439e-05
5.245e-05
2.194e-05
-0.0008136
0.0004351
0.0003785
-7.882e-05
-6.283e-05
-0.0002529
0.0004885
-0.0002356
0.12
-0.148
0.02794
-0.001757
-0.0009315
-0.1223
-0.002403
0.1247
-3.157e-05
4.743e-05
-1.586e-05
-4.731e-05
-2.707e-05
-0.0001591
-0.0002138
0.0003246
-0.0007234
0.0007159
-0.007098
0.006382
-0.0001394
0.000863
0.0003018
-0.0002894
-0.004951
0.08611
-0.08115
-6.713e-06
6.581e-05
-5.91e-05
-4.541e-05
-9.102e-06
5.451e-05
-0.04403
0.03905
0.0008306
-0.0009686
0.000138
4.129e-08
0.0001856
0.0004641
-0.0006497
-1.47
1.199
0.2712
-1.463
1.193
0.2701
8.804e-07
1.548e-07
-1.035e-06
-0.1669
0.1322
0.03469
0.2045
-0.03807
-0.1665
-0.05815
0.04878
0.009363
0.02694
-0.06988
0.04295
0.0002137
-0.0001824
-3.449e-08
3.449e-08
0.0002245
-0.0007711
0.0005465
0.02611
-0.007648
-0.01847
0.002741
-0.0006384
-0.002102
0.02863
-0.02226
-0.2086
-0.003286
0.002496
-0.02187
0.01938
-0.0003117
0.0002242
8.753e-05
-0.05972
0.2027
-0.143
-6.686e-05
-8.119e-05
5.071e-06
-0.0001125
0.0001074
7.532e-07
-9.853e-07
2.321e-07
-5.596e-06
5.07e-06
5.254e-07
0.003457
-0.00208
-0.001377
-4.083e-05
0.0001562
-0.0001154
0.02217
0.003947
-0.000711
0.0002818
0.0004293
-0.4709
0.222
0.249
0.0006119
8.149e-05
5.374e-05
-6.752e-05
1.378e-05
5.658e-05
3.179e-05
-8.837e-05
-1.041e-05
8.589e-06
1.82e-06
-0.0001265
0.0001965
0.0003147
-0.0007518
3.314e-05
-3.408e-05
9.386e-07
0.0004694
-0.0004329
-3.654e-05
-0.0003711
8.698e-05
0.0002841
-0.04748
-0.07484
-0.001444
0.0005567
-3.179e-07
3.829e-07
-6.498e-08
-0.0002326
-0.0001385
-0.02381
0.01876
0.005052
0.0001086
0.0002445
2.422e-07
-2.422e-07
0.2259
-0.02135
-0.0001187
2.112e-05
9.763e-05
-8.087e-05
3.546e-05
-2.775e-05
5.732e-05
-2.957e-05
0.0002939
-0.0002025
-9.131e-05
0.0001836
0.0001922
0.0001872
2.138e-05
-0.0002086
1.858e-07
1.016e-07
0.0006883
0.0003004
-0.0009886
1.172e-05
-1.061e-05
-1.111e-06
1.362e-06
-1.362e-06
0.197
-0.9674
0.7704
-0.0004115
-0.001864
0.002275
-3.535e-05
8.67e-05
-5.134e-05
0.002224
-0.001052
-0.001172
-0.0004136
0.0001498
0.0002638
-0.0001007
0.0004485
-0.0003479
0.0006781
-0.0003975
-0.0002806
0.1168
-0.02874
5.208e-05
-0.0001709
0.0001188
-0.0001979
0.001422
-0.001224
-0.009068
-0.0008628
0.00993
0.0007538
-0.000425
-0.0003288
-0.06505
0.09748
-0.03243
-0.01426
0.008986
-0.08801
0.04018
1.297e-05
-7.674e-05
6.377e-05
-4.403e-06
-3.451e-05
3.891e-05
5.85e-05
-0.000115
5.646e-05
9.236e-05
-0.0002335
0.0001412
-0.001007
-0.0007314
0.001739
0.002993
-0.005814
0.00282
-0.0001831
-5.503e-06
0.0001886
0.8564
0.1644
0.0004184
-0.0005359
0.0001175
-0.0001298
1.101e-05
0.001086
-0.00185
0.0007639
7.62e-05
-8.291e-05
-0.000128
-0.000101
0.0006794
-0.0007867
0.0001074
-0.3774
-0.4339
0.8113
0.0007642
0.001279
-0.002043
-0.5427
-0.351
0.8937
0.04429
-0.01583
0.004391
-4.828e-05
-0.0906
-0.1658
0.2564
0.04533
0.1209
-0.1663
9.037e-08
-2.839e-08
-6.197e-08
-0.0002322
0.0001909
4.131e-05
-0.07488
-0.1019
0.1768
0.0007932
-0.0005817
-0.0002115
0.1735
-0.05344
1.641e-05
0.002122
-0.002436
0.005421
-0.002985
-0.01105
-0.01276
0.0009893
0.001365
-0.002354
-0.2064
0.2373
-0.03097
-0.0005094
0.0008617
-0.0003523
-0.0001086
-7.337e-05
0.000182
7.775e-06
3.971e-06
-1.175e-05
0.0001132
0.0001807
0.003964
-0.000971
-7.728e-05
-0.0001262
0.0002035
-0.003938
0.001144
0.002793
-0.001191
-0.001783
0.002974
0.003692
-0.003068
-4.715e-05
7.942e-05
-3.227e-05
0.0005236
0.0001103
-0.0006339
0.002502
0.0002383
-0.1832
0.1234
0.0005507
-0.0001598
-0.0003909
-0.003181
0.003215
-3.403e-05
0.0009279
7.512e-05
-0.001003
-1.103e-06
4.857e-06
-3.754e-06
-0.0003536
0.0002386
0.000115
-0.8567
0.314
-0.2574
0.1339
0.1235
0.0002795
0.0001291
-0.0004086
0.0001841
-0.0001086
-7.553e-05
-6.254e-05
-0.0001001
0.0001626
0.01848
-0.009287
-0.009193
0.1954
-0.1854
-0.009979
0.00907
-0.0123
-0.0002012
-1.239e-05
0.0002136
0.09574
-0.05343
-0.04231
0.001567
0.0006568
0.0004424
-0.000163
5.464e-05
-2.026e-06
-5.262e-05
-0.01659
0.032
-0.01542
7.87e-06
-4.008e-05
3.221e-05
0.0003689
-0.0001395
-0.0002293
-0.001759
0.0005216
0.001238
-0.0009962
0.0005591
0.0004371
0.1938
-0.1485
-0.00602
0.01747
-0.5007
-0.9696
-0.498
-0.965
-0.01082
0.001889
-0.000988
0.0008029
0.0001851
-0.004353
-0.000206
-0.0003461
-0.0006501
-1.185e-05
-0.000142
0.0001539
-0.01265
0.04677
0.002363
0.001094
8.261e-05
-3.673e-05
-4.587e-05
-1.05e-05
-4.056e-05
5.106e-05
-0.0004276
4.527e-05
0.0003823
0.0002194
0.0005738
-4.856e-05
2.071e-05
2.785e-05
0.0001014
-0.0001255
2.403e-05
0.000264
-0.0001884
-7.556e-05
2.344e-05
-0.0001082
8.48e-05
-0.00036
0.0002884
7.165e-05
0.0006145
-0.0007792
0.0001647
-3.228e-06
6.494e-05
-6.171e-05
6.569e-05
-0.001739
-0.02725
0.02899
-6.994e-05
6.253e-05
7.403e-06
-0.0003107
-0.0001029
-0.0001711
-0.001188
0.001359
0.3008
-0.4093
0.1085
0.0003257
4.312e-05
0.0002425
-0.0004737
0.0002312
-0.001624
0.001447
-0.003825
-0.003697
0.007522
0.0005505
-0.0005742
2.366e-05
-5.195e-05
0.0004054
-0.0003535
0.3809
0.1362
-0.5171
-0.1186
-0.04835
-0.1716
0.2402
-0.06864
-1.851e-05
2.186e-05
-3.347e-06
0.4306
-0.8081
-0.001477
0.001487
-9.907e-06
0.06045
0.03529
8.371e-05
-0.0001191
3.936e-05
-0.0003269
0.0002875
0.1168
-0.1217
0.03123
-0.01397
-0.01726
-8.358e-05
0.0003566
-0.000273
1.634e-07
1.506e-07
-3.14e-07
-0.0002993
0.0005485
-0.0002491
0.9234
-0.6925
-0.231
0.001155
0.001999
-0.003154
2.199e-05
7.283e-05
-0.0003736
0.0002741
9.947e-05
0.006304
-0.004826
-0.001478
-0.086
-0.02063
6.027e-06
8.234e-07
-6.85e-06
0.01632
-0.02048
0.004163
1.534e-06
-2.867e-05
-0.0004243
0.0006245
-0.0002002
0.0002351
-0.0004798
0.0002447
0.246
-0.2555
0.009517
0.005821
-0.004999
-0.0008229
4.635e-06
-1.891e-05
1.428e-05
0.0001341
0.0003266
-0.0004607
-0.0003955
0.000435
-3.95e-05
-7.26e-05
0.000146
-7.336e-05
0.00384
0.001982
-0.0001725
0.0001468
-0.02293
0.02119
0.009317
-0.07437
3.124e-05
-5.1e-05
1.976e-05
-0.5079
0.03697
-0.0003661
-2.993e-05
0.0003961
-6.296e-05
3.139e-05
-0.0003805
0.0167
-0.004432
0.003518
0.0009137
-0.0001398
0.0004853
-0.0003454
-0.002124
0.002099
2.444e-05
0.111
0.4877
-0.5987
0.0002659
-0.0005188
-0.0002699
-0.0001903
0.0004602
-0.0003112
-3.381e-06
0.0003146
0.001209
0.007967
-5.276e-05
-0.0002964
0.0003492
-0.001066
0.0006787
3.357e-05
6.267e-05
-0.0004643
0.0003893
7.493e-05
-0.0002177
3.455e-05
-6.331e-05
0.001823
-0.00176
-0.0006371
0.0001109
0.0005262
-0.0002461
2.999e-05
-1.594e-05
1.48e-05
1.139e-06
-0.0001312
0.000141
-9.854e-06
-0.6752
0.8722
0.0006433
-0.0001739
0.008335
-0.01093
0.002591
-0.003639
0.004196
-0.01216
0.0007006
0.01146
-3.985e-05
1.21e-05
-0.01096
-0.007223
0.01818
-1.275
1.437
-0.1617
0.0001801
-0.0001815
1.402e-06
-5.958e-05
-3.366e-05
9.324e-05
0.006664
0.01164
-0.0183
0.002816
-0.002688
-0.0001277
0.5727
-0.1918
0.001036
-0.002055
0.001019
-9.138e-06
4.056e-05
-3.142e-05
-0.06014
0.04608
-0.02542
-0.1809
0.7011
-0.6552
-0.04592
0.0004131
-0.0004315
0.06645
-0.03001
-0.0003456
-0.0001127
0.0004583
0.05172
-0.05489
0.003169
1.867e-05
0.0001214
-0.0101
-0.134
0.1441
0.0003972
-0.0002921
-0.0001051
0.05446
-0.226
-0.0001544
-0.0001572
0.0003599
-0.000408
4.813e-05
-0.0003981
0.0002336
0.0001646
-0.001347
0.003012
-0.001665
-1.143e-05
2.144e-05
-1.001e-05
-0.01941
0.007726
0.01169
0.0003438
-0.0001832
-0.0001606
0.0001625
5.15e-05
-0.000214
5.493e-05
-5.616e-06
-4.932e-05
0.000395
-9.189e-05
-0.0003031
5.215e-05
0.007617
-0.007669
-0.002489
0.002147
-3.946e-05
-3.773e-05
7.719e-05
0.0001178
0.0002423
-0.0003602
0.001987
-0.001699
-0.0002874
4.064e-05
-8.01e-05
0.3526
-0.9423
0.5897
0.1192
-0.0005442
-0.1186
-0.0002798
0.0001165
0.0001633
4.761e-05
-5.189e-05
4.286e-06
-1.539
0.1226
1.416
0.0006733
-0.0004058
-0.0002675
-0.002212
0.01189
-0.009673
0.005066
0.008934
8.514e-05
9.901e-05
0.0312
-0.01701
-0.01419
1.412
-0.2683
-1.144
2.252e-05
-0.0001996
0.0001771
-0.01196
0.009752
5.227e-05
-4.611e-05
-6.161e-06
1.034e-05
7.864e-06
-1.82e-05
8.709e-05
-6.223e-05
-2.486e-05
0.0003283
-2.531e-05
-0.000303
-4.545e-05
6.925e-06
3.853e-05
-0.0002054
-0.0001482
-0.0006968
7.177e-05
0.000625
0.0008953
0.00192
7.274e-05
-3.592e-05
-3.683e-05
-0.1253
0.2553
-0.13
-9.997e-05
0.0001609
-0.1021
0.08381
0.01833
0.0007178
-0.0005845
-0.0001333
0.0004152
-0.0008438
9.381e-05
-8.02e-05
-1.361e-05
0.000281
-0.001511
0.00123
-8.587e-09
-2.59e-08
-0.0003015
0.0001448
0.0001567
-0.0002691
0.0007454
-0.0004763
0.03062
-0.01843
-0.01219
0.001901
-0.002395
0.0004941
-0.2871
0.2314
0.05565
6.44e-05
2.268e-05
0.1165
0.002623
0.0001514
1.789e-05
-0.0001693
0.0005669
-0.0003812
-5.017e-08
5.017e-08
7.607e-08
-2.058e-08
-5.549e-08
6.061e-08
-5.621e-08
-4.394e-09
1.196
-0.8184
-0.3779
-3.485e-05
-3.509e-05
4.758e-05
0.0003242
-0.0003718
-0.145
-0.1124
-0.0006148
2.74e-05
0.0005874
-0.0002715
0.0008402
-0.0005687
-0.0002164
0.0002357
-1.921e-05
0.003402
-0.0002978
-0.003104
-1.452e-05
0.0003744
-0.0003412
-5.69e-05
0.0004132
0.0002602
7.154e-06
-6.637e-06
-5.171e-07
-0.4368
0.7895
-0.0002466
0.0001407
0.0001059
3.666e-08
-3.561e-08
-1.043e-09
0.0003938
-0.0004469
5.305e-05
0.0001978
-4.447e-05
-0.0001533
6.64e-06
-5.534e-06
0.06342
-0.1791
0.003404
-0.0008454
-0.05121
0.07815
-0.0002346
0.0003524
0.04269
0.2462
-0.2888
-0.0001525
3.583e-05
0.0001167
-3.714e-05
-5.655e-05
9.369e-05
3.661e-05
-3.463e-05
-1.98e-06
1.525
-0.9016
-0.6237
-0.0002226
-5.715e-05
0.009453
0.003952
-0.01341
6.09e-09
-3.654e-07
3.593e-07
-0.0006239
-2.401e-05
0.0006479
0.0001028
-7.597e-06
-9.518e-05
0.00056
-0.0002603
-0.0002997
-0.1073
0.1025
0.004797
1.723e-05
-7.835e-05
6.111e-05
0.0008942
0.0006935
-0.001588
-0.8031
-0.7357
0.002366
-0.004087
-8.488e-05
0.004172
-0.000221
0.0001123
0.0001882
0.0003623
1.043e-07
4.75e-05
6.23e-05
-9.79e-06
-5.251e-05
-0.0005721
0.0001478
-0.002916
0.003547
-0.000631
0.0006752
5.56e-07
-0.0006758
0.0001362
-0.0002809
0.0001447
4.939e-05
0.0001307
0.1127
0.05537
-0.1681
-4e-05
2.973e-05
1.027e-05
3.75e-05
-0.0001933
0.0001558
0.0002362
-0.000261
2.476e-05
0.0009341
-0.001982
0.001048
0.0001237
-0.0002259
0.0001022
-0.7909
0.1141
0.6768
-0.7883
0.6297
0.1586
0.002485
-0.01155
-4.532e-05
-3.245e-06
-0.0005276
-0.001293
0.00182
0.1381
-0.2084
0.0703
1.473
-0.649
-0.8237
-0.001435
0.002329
-0.0008937
0.0001712
-0.0002498
7.862e-05
-0.0005776
0.0002348
0.0003428
-0.0006743
-2.25e-05
3.929e-05
3.432e-06
-4.272e-05
-1.917e-05
1.785e-05
1.316e-06
-0.003065
0.002925
0.00014
-0.1415
0.1003
0.04124
1.4
-1.277
-0.1228
-4.115e-05
2.054e-05
2.062e-05
-0.0001183
-0.0002636
0.0003819
0.0004852
-0.001491
0.001006
0.3137
0.5219
-0.8356
3.94e-06
7.784e-06
0.002291
-0.002672
0.0003803
-0.0001043
0.0001038
5.52e-07
0.4895
-0.0001662
0.00019
-2.373e-05
-0.02731
0.1654
0.0002153
-0.0003551
-0.0001154
3.968e-05
7.577e-05
0.0005766
-0.0003418
-0.0002348
0.9785
0.1618
-1.14
-1.793e-05
-6.522e-05
8.315e-05
0.000507
0.0002467
-3.792e-05
2.215e-05
0.3911
1.021
0.0003491
-0.001203
-4.148e-06
-1.448e-06
0.395
0.3061
-0.001696
-0.002736
-0.1646
0.005297
0.1593
-0.0002483
-0.0002853
0.0005336
4.061e-05
-2.726e-05
-1.335e-05
-0.2801
0.1895
3.847e-05
-3.493e-05
-3.538e-06
0.0001418
0.0002569
-0.0003987
-1.644e-06
8.291e-06
-6.647e-06
-4.488e-05
-3.39e-05
7.878e-05
-0.0001818
9.554e-05
8.624e-05
-0.0001049
-0.0002551
-0.0001237
-0.0002499
3.2e-05
0.0001815
-0.0002135
0.0004223
-0.0004501
0.0006293
-0.0008974
0.0003759
-0.0005816
0.0002056
7.719e-05
-8.582e-05
8.63e-06
8.478e-05
-5.639e-05
-2.839e-05
0.000161
-0.0001199
-4.107e-05
-0.5998
0.9135
0.0004192
-0.0002914
-0.0001278
0.1079
-0.194
0.08609
-0.0004947
6.705e-05
-0.1247
0.03484
0.08984
4.321e-05
-0.0001861
-0.3423
-0.9326
-0.1525
0.07759
-0.002564
-0.005057
0.007621
-0.0003142
-0.0003229
-0.000146
-0.0001227
0.0002686
-1.04
0.128
0.9121
1.107
-0.8991
-0.2078
5.222e-05
-1.908e-05
7.785e-06
2.271e-06
-1.006e-05
-1.743e-05
3.448e-05
-0.0002542
9.361e-05
0.0001606
0.0007392
-0.0002505
-0.0004887
0.0002808
-0.0006264
-0.0003068
0.0004662
-0.0001594
-0.0006891
0.0004192
-8.484e-05
4.429e-05
-3.308e-05
9.014e-05
-5.706e-05
-1.735e-05
-4.853e-06
2.221e-05
-1.16
0.1201
1.665e-05
4.746e-05
-6.411e-05
8.474e-06
-7.506e-05
6.658e-05
-3.739e-05
-0.004958
0.004996
0.009481
-0.005995
-0.003486
0.1781
-0.2393
0.06114
1.03
0.443
0.0001586
-0.000104
-5.844e-06
-9.124e-05
9.542e-06
6.32e-05
3.953e-06
-2.643e-06
-1.31e-06
-0.07648
-0.0482
-0.9854
-0.4035
1.389
-0.0001062
-7.726e-05
0.0001834
-6.771e-05
1.455e-06
6.626e-05
-0.05091
-0.007236
9.759e-06
1.189e-05
-2.165e-05
0.01437
-0.002167
-0.01221
-0.03466
0.08723
-0.05256
-0.0001217
4.35e-05
7.823e-05
0.002267
-0.002797
0.0005293
-7.587e-05
8.435e-05
0.004412
-0.009069
0.004657
-1.782e-08
1.782e-08
-1.321e-05
2.8e-06
5.223e-05
0.0003428
0.0002499
9.398e-05
-0.0001205
-0.0001116
5.124e-05
2.202e-05
-7.326e-05
-0.0001599
-6.327e-06
-2.576e-05
4.824e-05
-2.248e-05
0.05581
0.007088
-0.0629
0.0001161
-3.898e-05
-7.711e-05
4.015e-06
2.098e-06
-6.113e-06
-6.98e-05
-0.0002963
0.7438
-1.068
0.3245
0.0008241
-0.0001448
-0.004624
0.00407
0.0005537
0.00111
-0.002916
0.001806
1.076
0.4495
-0.02564
0.7694
4.666e-07
-4.613e-07
-5.302e-09
0.02323
0.007396
0.0002135
-0.000371
0.0001576
4.425e-05
-4.563e-05
1.383e-06
-0.0002957
0.0005188
-0.0002231
0.0005199
3.076e-05
0.004263
0.00283
-0.007093
0.0001258
-6.917e-05
0.003254
-0.00645
0.003196
0.0006026
-0.0005145
-8.804e-05
-0.1495
-0.1993
0.3489
1.05
-0.04452
-1.006
-0.002221
-0.0005055
0.002727
-0.0008187
0.009154
6.264e-06
-2.477e-05
-0.001802
0.002912
0.000191
-0.0002118
2.078e-05
0.0008509
-0.0002769
-0.000574
0.0002037
0.000118
-0.0003217
-0.02095
0.02345
0.003629
-0.007454
-1.125
-0.386
1.511
-6.465e-05
0.0001211
-5.645e-05
0.02269
0.008514
-0.0006392
0.0004842
0.0001549
4.019e-08
-0.002214
0.0006414
0.001573
-0.0001879
0.0002009
0.0001882
-0.0004875
1.257
-0.2786
-0.00144
0.001631
-0.0001908
-0.0002062
-0.0003146
0.0005208
-8.47e-06
8.754e-06
-2.844e-07
-0.0006155
-0.0002614
0.0008769
0.0003389
4.909e-06
-0.0003438
-5.762e-05
-2.723e-05
-7.108e-05
0.0002151
-0.0002293
-0.0002349
9.733e-05
-0.000324
0.0002267
0.0004992
0.0003239
-0.0008231
0.000376
-0.0004767
0.001033
-0.001757
0.0007241
-0.003391
0.0002097
7.333e-05
-0.0005135
0.003085
-0.005914
0.00283
-7.024e-08
7.024e-08
-0.0009712
-0.003653
-0.06608
0.02431
0.0001397
-0.001091
0.0009508
0.0001612
0.0002887
-0.00045
1.81e-06
0.0007116
-0.0007134
0.1016
0.3722
-0.4738
-3.256e-05
1.942e-05
1.314e-05
-1.735e-05
0.0006318
-0.0005124
-6.518e-05
-1.511
0.5253
1.024e-06
2.929e-06
-0.000165
3.381e-05
0.0001649
-0.0001887
2.381e-05
-0.388
-0.6375
1.025
3.421e-06
-2.918e-05
9.87e-05
-0.0001185
1.981e-05
1.363e-05
-4.233e-05
2.87e-05
1.637e-05
-7.075e-05
5.439e-05
-1.198
0.8098
-0.0005312
0.0003139
0.0002173
1.512e-06
-1.735e-06
2.233e-07
4.211e-05
-6.367e-05
2.156e-05
-0.0003088
0.0003214
-1.267e-05
-0.1579
0.06297
0.0949
5.979e-05
2.282e-05
0.0001322
-0.000167
3.474e-05
-0.1619
0.1681
-0.006177
0.002682
0.0005054
-0.003187
-0.003801
0.003715
8.539e-05
6.349e-05
-1.225e-05
-0.0002013
-0.0001002
-0.002588
0.003732
-0.002504
0.0002901
-5.602e-06
-0.0001091
0.0001147
-4.518e-05
0.0001037
0.2818
0.5867
-0.8685
-0.0003805
-0.0001507
-0.0004306
0.0007198
-0.0002892
5.363e-05
-5.44e-05
7.685e-07
-6.431e-05
-0.0002469
-0.01372
0.0121
0.001622
-0.0007288
0.000114
1.408e-05
4.822e-05
1.028
-0.7459
3.116e-05
-0.0002476
-4.95e-05
-7.223e-05
2.985e-05
-9.312e-06
-2.054e-05
1.449e-07
-4.629e-07
1.405e-05
1.579e-05
1.587e-05
2.074e-05
0.0001533
2.544e-05
-0.0001787
0.00024
-0.000153
-8.699e-05
-0.004475
0.001161
0.003314
0.1728
1.024
-2.61e-09
2.61e-09
8.649e-05
0.0001102
-0.0001967
3.784e-05
-8.272e-05
2.941e-05
-2.674e-05
-2.664e-06
-0.0001137
0.0002872
-0.0001735
1.645e-05
-9.069e-05
7.424e-05
-0.0001833
2.904e-05
0.0001543
-0.0002903
0.00025
0.5591
0.841
0.0001315
0.0004469
-0.0005784
-0.00439
0.001236
0.003154
-1.503
0.3788
-9.634e-05
0.0001643
-6.797e-05
0.0001626
0.0005552
0.00152
-0.0005919
0.000819
0.0003113
-0.00113
0.1374
-1.017
0.8798
9.888e-05
-0.0004057
7.319e-05
-1.548e-05
-5.771e-05
-0.2748
-0.7146
0.852
0.007022
0.002459
-0.0007781
0.0009998
-0.0002217
0.0003789
0.0003603
-0.0001015
-4.553e-06
0.000106
-0.0005221
0.0004515
7.065e-05
2.898e-06
-1.824e-07
-2.716e-06
-0.004033
0.0009878
0.003045
-0.00395
0.00527
-0.001321
-0.7988
-0.2694
-0.0003864
0.0001
0.0002864
-0.0002827
0.0001369
0.0001458
0.0002181
-0.0001806
-3.755e-05
5.126e-05
-9.841e-05
0.001871
-0.001744
1.085
0.08573
-1.17
0.2753
-0.2119
0.07715
-0.1334
0.05622
-9.263e-06
2.283e-06
6.98e-06
0.04533
-0.8442
0.03349
-0.01893
-0.01456
-6.88e-05
0.0001408
-7.202e-05
-0.0007014
-0.0008322
0.001534
6.685e-05
2.754e-05
-9.439e-05
-0.2159
0.8474
-0.6315
-0.0001666
0.0001141
5.248e-05
-0.0003135
0.001743
-0.001429
-0.2388
-0.01726
0.2561
0.0001336
0.0001303
0.6914
0.4734
-1.165
-0.000351
-0.0002144
0.0005653
7.774e-06
-2.659e-08
-7.748e-06
6.48e-05
-3.1e-05
-3.381e-05
-0.0002473
-0.0004061
0.0006534
1.092e-05
7.6e-06
-1.852e-05
0.1851
-0.04875
-0.1364
3.369e-05
2.535e-05
-5.904e-05
-0.008919
0.008981
-6.15e-05
-0.0001185
-3.405e-05
6.491e-06
-1.219e-06
-5.272e-06
-0.0001138
-0.0001034
0.0002172
0.0002019
5.959e-05
-0.0002614
-0.007173
-0.006549
0.005291
-0.005853
0.0005615
0.001811
-0.0003545
-0.001457
3.265e-05
-3.265e-05
-0.3403
0.197
0.1433
-0.00118
0.002355
-0.001175
0.0004792
-0.0003102
-0.000169
-0.000148
0.0002728
-0.0001248
-1.102e-06
5.117e-06
6.035e-05
-5.296e-05
-7.388e-06
-0.1176
1.202
0.0465
-0.02816
-0.01834
-2.914e-05
-1.201e-05
-0.0001083
4.277e-06
0.000104
-3.017e-06
4.35e-06
-1.334e-06
-0.0003653
0.0009766
-0.0006112
1.482e-06
-1.482e-06
-0.0002286
0.0002585
-2.99e-05
9.689e-07
-9.689e-07
-0.0001651
5.151e-05
0.0001136
2.1e-05
1.257e-05
-3.357e-05
0.0004711
-0.0003396
2.1e-05
-1.484e-05
-6.165e-06
0.09816
-0.07367
-0.02449
0.001295
-0.0009873
-0.0003073
1.092
-1.516
0.4242
1.318
-1.741
0.4228
-4.076e-05
-0.0001822
0.000223
-0.04325
0.09242
-0.04918
7.265e-05
-2.242e-06
-7.041e-05
-0.003598
0.001582
0.002015
-0.001157
8.602e-05
-0.007691
0.008682
-0.0009904
0.04605
-0.1012
0.0551
-0.0005372
2.73e-05
0.0005099
0.0004825
0.000768
-0.00125
0.2522
-0.00615
-0.0005469
0.000719
-0.0001721
0.0001777
-0.0003161
0.0001384
0.09359
-0.04754
3.375e-05
-1.68e-05
-1.695e-05
7.117e-06
-7.117e-06
-0.0001082
2.725e-05
8.096e-05
0.0008618
-0.002784
0.001922
5.074e-05
-3.42e-05
-1.654e-05
-0.0001442
0.0002881
-0.0001439
-9.183e-05
8.751e-05
4.32e-06
-0.3381
0.1232
0.2149
0.0001119
-1.812e-05
-0.0003146
-0.0003245
-0.05
0.3508
4.439e-05
-3.309e-05
0.0002964
-2.805e-05
-0.0002684
0.0004441
-0.0008365
0.0003924
-0.4772
-0.5492
1.026
0.2176
0.0005279
-0.2181
0.002191
-0.001488
-0.0007032
7.423e-07
4.406e-07
-1.183e-06
0.0001437
-0.002131
0.001987
-7.032e-06
7.032e-06
0.0006531
-0.0003456
-0.0003075
0.0006976
-0.0001826
-0.000515
-0.001575
0.001438
0.0001369
1.934e-06
1.243e-06
-3.177e-06
6.06e-05
1.78e-05
-7.841e-05
-0.4116
1.372
-0.9607
-8.474e-05
0.0001163
-3.16e-05
0.005604
-0.0004407
-0.005163
-0.3004
1.333
-1.032
-0.0005865
-0.0007995
0.001386
-1.388e-07
7.356e-08
6.525e-08
0.0009003
0.0008305
-0.001731
-1.99e-05
1.678e-05
3.121e-06
0.006586
-0.003709
-0.002878
0.001236
0.003103
-0.004339
-4.293e-07
-6.98e-07
1.127e-06
1.24e-05
-1.24e-05
0.0003139
0.0001359
-0.0004498
-0.08799
-0.0535
-0.4603
0.2234
0.237
0.002805
-0.001068
-0.001736
-0.001335
0.00102
0.0003149
-5.942e-05
-0.0001021
0.0001615
4.791e-05
-2.762e-05
-2.029e-05
-0.0005546
-0.000204
0.0007586
0.00017
-8.105e-05
-8.893e-05
-0.001581
0.001415
0.0001666
-0.009445
0.01741
-0.00796
6.594e-05
0.000104
-0.03249
-0.01522
0.0477
1.884e-05
1.116e-06
-1.996e-05
0.1368
-0.5757
0.4389
-0.0002258
-0.0003072
0.000533
-1.563e-06
8.649e-06
-7.086e-06
0.0002691
-0.0003337
6.462e-05
-0.0001688
0.0001402
2.862e-05
0.0005014
-0.0002508
-0.0002507
-0.3821
0.09725
0.2849
-0.1889
0.05559
0.1333
2.351e-05
-3.9e-05
1.549e-05
0.007722
-0.008752
0.00103
-7.054e-05
0.0001383
-6.774e-05
0.0002528
-0.0004309
0.0001781
3.623e-05
-7.08e-05
3.457e-05
-0.0004886
0.0004756
1.3e-05
0.0002113
-7.079e-05
-0.0001405
-9.917e-05
0.0001059
-6.737e-06
-8.42e-06
5.948e-05
-5.106e-05
4.316e-05
-4.316e-05
1.582e-06
-7.428e-05
7.27e-05
-2.03e-05
0.0001414
-0.0001211
-0.0001003
8.315e-05
1.717e-05
-0.002725
0.004092
-0.001367
-0.0003369
0.0006995
-0.0003626
0.0001405
0.0006901
0.0001272
-0.0001328
5.579e-06
-2.34e-07
-3.992e-06
4.226e-06
1.857e-08
8.275e-10
-1.94e-08
0.0006139
-0.0002898
-0.0003241
-0.3196
0.4212
0.5901
0.2173
-0.8075
0.000414
-0.0005568
0.0001427
-7.822e-05
-0.0002312
0.0003094
0.004793
-0.0008835
-0.003909
-0.1886
1.18
-0.9918
0.0002623
0.0005873
-0.0008495
0.0004386
2.766e-05
-0.002503
-0.005748
0.008251
-4.608e-05
-2.976e-05
7.584e-05
0.0004399
-0.0003004
-0.0001395
1.973e-05
-8.079e-05
6.106e-05
0.002798
-0.00328
0.0004824
0.7873
-0.6762
-0.008332
0.002785
0.005547
0.01221
0.000604
-0.01282
6.788e-05
-7.876e-06
-6e-05
2.422e-05
4.06e-05
-6.482e-05
0.0001166
-8.74e-05
-2.918e-05
-0.004311
0.001699
0.002612
0.0002401
-0.002694
0.002454
-1.128e-05
2.899e-05
-1.771e-05
-0.0003611
0.0005378
-0.0001766
-0.002041
-0.001344
0.003384
-0.001028
0.0004101
0.000618
-0.0006558
-0.0001423
0.0007981
0.001117
-0.0009084
-0.0002091
-0.000266
0.0002263
3.968e-05
0.0001358
-9.707e-05
-3.873e-05
0.26
-0.3214
0.06143
1.744e-05
-9.977e-06
-7.464e-06
3.208e-07
1.166e-06
-1.487e-06
-0.0006397
0.0002091
4.21e-06
-0.0001065
0.0001023
-1.812e-05
1.132e-05
0.02151
-0.1184
0.09684
8.783e-06
-8.783e-06
-4.715e-05
4.715e-05
-0.1666
-1.047
1.214
1.259
0.2309
-1.489
0.000119
-6.707e-05
-5.198e-05
-5.089e-05
0.0003734
-0.0003226
-4.866e-08
5.524e-08
-6.573e-09
-1.21e-05
5.192e-06
6.904e-06
-0.0001476
0.001442
-0.0003087
0.0004009
-9.216e-05
-8.048e-05
-8.121e-06
8.86e-05
-0.001097
-0.004154
0.00525
0.003594
0.00515
-0.008744
-0.1894
0.0626
0.1268
-8.418e-05
5.62e-05
2.798e-05
6.953e-05
0.0004474
-0.000517
6.551e-05
-0.000133
6.745e-05
-0.004614
0.001019
0.003595
4.332e-07
-9.463e-07
5.131e-07
-0.0002668
0.0003625
-9.567e-05
0.8161
-1.147
0.3313
-5.506e-05
5.506e-05
-0.0001405
9.153e-05
4.896e-05
0.1661
0.5627
-0.7288
-4.94e-05
3.953e-06
-1.287
1.12
0.242
-0.4262
0.1843
-0.002959
0.002067
0.0008921
-0.01115
-0.002118
0.01327
-4.926e-06
3.027e-06
1.899e-06
0.7806
-0.9459
0.1653
0.000289
-0.0001534
-0.0001356
0.476
-0.1361
-0.3399
0.0004774
-0.0008847
0.0004073
-0.01674
0.005546
0.01119
0.0007922
-0.0006351
-0.0001571
0.006149
-0.00322
-0.002929
-7.133e-05
-0.0003001
0.0003715
-0.0003209
-0.000128
0.0004489
-6.274e-05
-1.907e-05
8.181e-05
0.001531
0.000336
-0.001867
0.1498
0.6501
-0.8
0.01059
0.06089
-0.07147
0.0003598
-0.0001996
-0.0001602
-0.0001076
-0.0005415
0.000649
-3.408e-05
0.0001135
-7.942e-05
-0.0001061
6.03e-05
4.584e-05
2.455e-05
-1.471e-05
-9.841e-06
5.661e-05
1.464e-05
-7.125e-05
1.123e-05
-1.123e-05
4.702e-05
-8.092e-05
0.000695
-0.0005096
-0.0001854
1.511e-05
-3.52e-05
2.008e-05
-0.0003945
0.000256
0.0001385
5.85e-05
2.644e-05
-8.494e-05
0.005604
-0.006425
0.0008207
-0.0006427
0.0002388
0.0004039
0.4953
-0.366
-0.1293
4.347e-05
-4.719e-05
3.725e-06
5.181e-06
-1.786e-05
1.268e-05
-0.000166
1.143e-06
0.0001649
0.4961
-1.094
0.5981
-0.0003464
0.0001181
0.0002282
-0.0007174
0.000399
0.0003184
-0.00163
0.000411
0.001219
0.001204
-0.0005496
-0.0006541
2.06e-05
-9.051e-05
6.991e-05
0.001425
0.006702
-0.008127
-2.316e-05
2.64e-05
-3.246e-06
8.131e-05
0.0004314
-0.0005127
-0.000827
-0.0008026
2.322e-05
4.196e-05
-6.518e-05
-0.0002655
-3.985e-05
0.0003053
5.25e-07
5.966e-06
-1.181
0.5417
0.6391
0.002174
-0.004243
0.002069
3.845e-05
-1.375e-05
-2.47e-05
0.1288
0.05705
-0.1858
5.359e-05
-1.507e-05
-3.852e-05
-2.885e-05
-7.124e-06
3.597e-05
-1.246
1.246
0.001499
0.002326
-0.003824
1.276e-05
-1.839e-05
5.625e-06
0.06823
-0.0524
-0.01583
0.006628
-0.001023
0.0002675
-0.0001751
-9.237e-05
6.66e-05
-1.419e-05
-5.241e-05
0.01226
-0.009464
-0.002794
-1.27
0.5237
0.7458
-5.17e-05
8.298e-05
-3.128e-05
4.981e-05
-0.0001178
6.795e-05
0.4035
-0.2561
-0.1475
-0.008558
0.006028
0.00253
0.001119
-0.03139
0.03027
0.0003713
0.0001299
-0.0005012
6.558e-05
2.141e-05
-8.699e-05
-0.001512
-0.0007628
0.002274
-0.05376
-0.05472
0.1085
-2.809e-07
2.24e-06
-1.959e-06
1.401e-08
3.121e-07
-3.261e-07
0.000108
0.0003112
0.0002055
-0.0006887
0.0004832
0.0005164
-0.0008132
0.0002968
1.431e-05
6.695e-06
-0.3927
1.24
-0.8476
0.0001412
-0.0007097
0.0005684
0.3501
-0.007055
-0.343
-0.000227
0.0003238
-9.683e-05
-0.0009257
0.0009096
1.608e-05
-3.188e-05
-4.278e-05
7.466e-05
0.0003192
0.0008844
-2.318e-06
2.938e-06
-6.199e-07
-8.117e-06
8.78e-06
-6.631e-07
-0.5585
0.2186
0.3399
-9.551e-07
9.551e-07
5.398e-05
-4.055e-05
-1.344e-05
-1.482e-05
5.753e-05
-4.271e-05
-0.00141
-0.0001587
0.001569
-0.0001284
0.0001805
0.000432
0.0002599
-0.0006919
-0.0007631
0.000449
0.0003141
-0.0001034
8.568e-05
1.771e-05
0.001592
-0.001112
-0.0004797
-0.009473
0.0247
-0.01523
2.597e-06
-2.597e-06
0.0002012
-0.0002485
4.732e-05
-0.0004426
0.0001975
0.0002451
0.0001491
7.459e-05
-0.0002237
0.0008575
-0.0007144
-0.0001431
0.0001843
0.0003086
-0.0004929