/*--------------------------------*- C++ -*----------------------------------*\
  =========                 |
  \\      /  F ield         | OpenFOAM: The Open Source CFD Toolbox
   \\    /   O peration     | Website:  https://openfoam.org
    \\  /    A nd           | Version:  8
     \\/     M anipulation  |
\*---------------------------------------------------------------------------*/
FoamFile
{
    version     2.0;
    format      ascii;
    class       volVectorField;
    location    "30";
    object      U;
}
// * * * * * * * * * * * * * * * * * * * * * * * * * * * * * * * * * * * * * //

dimensions      [0 1 -1 0 0 0 0];

internalField   nonuniform List<vector> 
127143
(
(0.0009222 -3.963e-05 0)
(-2.446e-05 -0.0001215 -1.486e-24)
(-5.06e-05 -0.0002484 2.628e-24)
(-6.575e-05 -0.0002999 -1.183e-27)
(0.005643 0.001763 -4.924e-23)
(-5.553e-05 -0.0003079 3.863e-27)
(0.01678 0.01071 0)
(0.008542 0.003933 -6.807e-23)
(0.00696 0.003363 2.246e-22)
(-0.001874 -6.818e-05 0)
(0.01862 0.02576 2.68e-22)
(0.01122 0.007478 2.487e-22)
(0.0001166 -4.413e-05 -5.227e-25)
(-8.51e-05 -0.0003358 0)
(0.03515 -6.082e-05 5.332e-21)
(0.02051 -0.001914 0)
(-0.0001141 -0.0005605 -4.263e-24)
(0.04005 -0.07993 2.515e-20)
(-0.1678 0.009598 0)
(0.03193 0.009796 0)
(-0.139 0.04288 2.027e-20)
(-0.0004901 0.0001292 0)
(0.9853 -0.1438 0)
(0.3514 -0.03417 0)
(-0.0005042 0.0001538 -4.968e-23)
(0.1172 -0.01888 0)
(-0.01721 0.0001814 4.383e-21)
(-0.01722 -0.0004915 -6.571e-23)
(0.1243 -0.0539 0)
(0.4108 -0.09184 -1.462e-21)
(0.2806 -0.01739 0)
(0.1127 -0.01675 -1.353e-21)
(0.0479 0.01187 9.499e-22)
(-0.0129 0.003561 -6.258e-21)
(0.8729 -0.07425 2.324e-20)
(0.04647 0.0138 -2.308e-24)
(-0.1796 0.06285 9.291e-21)
(0.1452 0.02406 -1.804e-20)
(0.437 -0.03951 -1.353e-21)
(0.1147 -0.00316 1.205e-25)
(-0.1684 0.008038 0)
(1.086 0.4663 -6.535e-21)
(1.065 0.455 5.035e-21)
(0.0002437 -8.398e-05 0)
(0.02546 -0.07388 -2.104e-20)
(-0.01347 0.003086 1.982e-21)
(0.127 -0.0582 0)
(-0.2145 0.07388 -1.406e-21)
(0.4313 -0.076 3.027e-22)
(0.4155 -0.03307 -8.452e-22)
(0.02442 -0.001733 -4.786e-23)
(0.9754 -0.03232 4.11e-20)
(-0.07432 0.01369 0)
(1.181 0.1663 -9.138e-21)
(1.001 -0.001042 2.409e-20)
(0.3215 -0.07972 2.485e-22)
(1.001 -0.001036 -2.166e-20)
(1.105 -0.07938 0)
(1.01 -0.00896 -1.516e-20)
(1.18 0.1675 -1.778e-20)
(0.507 -0.05379 -6.605e-20)
(-0.1694 0.06165 -1.537e-21)
(0.7972 -0.05299 4.749e-21)
(1.001 0.0004943 5.119e-20)
(-0.03906 0.00321 0)
(0.8662 -0.2334 -6.996e-21)
(1.086 0.1522 3.176e-20)
(0.7392 -0.05472 0)
(0.7503 -0.05417 1.3e-21)
(0.9908 -3.536e-05 0)
(0.3177 -0.02362 0)
(-0.01854 0.0001837 -2.064e-21)
(-0.1906 -0.03104 -6.666e-21)
(1.011 -0.00882 -8.386e-21)
(1.004 0.002906 -3.807e-22)
(-0.01858 -0.0003964 2.054e-21)
(1.01 0.03769 -2.123e-20)
(-0.1916 0.06406 0)
(0.3325 -0.0875 -4.518e-22)
(1 0.0006921 0)
(0.1212 -0.05594 7.199e-24)
(0.03515 0.00905 1.101e-23)
(-0.02478 0.006051 4.023e-21)
(0.1411 -0.009732 0)
(-0.1562 -0.0009435 1.544e-21)
(-0.2034 0.06889 0)
(0.5192 -0.05087 -3.056e-21)
(-0.00701 -2.332e-05 1.329e-21)
(0.8656 -0.2309 0)
(0.9816 0.6023 0)
(0.9995 -0.005933 0)
(1.227 0.04912 0)
(1.135 0.7015 0)
(-0.1389 0.04293 -2.08e-20)
(-0.05887 0.01233 0)
(1.035 0.05937 1.505e-20)
(1.086 0.4584 1.377e-20)
(0.1959 -0.01396 0)
(-0.2046 0.06466 5.661e-21)
(1.083 0.1527 0)
(1 0.0006719 0)
(0.4557 -0.08253 0)
(0.5969 0.5558 -7.213e-22)
(1.075 -0.1227 0)
(-0.206 0.07004 -3.039e-21)
(-0.204 0.06444 8.117e-21)
(0.7418 -0.1158 -2.116e-21)
(0.99 2.996e-05 0)
(0.6894 -0.2656 0)
(1.002 -0.0007721 3.418e-20)
(0.04402 -0.003484 -1.7e-21)
(-0.006846 -0.0001353 2.547e-21)
(-0.09657 0.02556 -2.153e-20)
(0.2482 0.5398 0)
(0.9961 0.009825 1.441e-20)
(1.025 -0.1669 -3.655e-22)
(0.9891 0.04107 -7.675e-21)
(1.004 0.003033 -3.128e-20)
(1.01 0.03668 1.668e-20)
(-0.0007456 -0.003183 0)
(1.002 -0.0008218 -4.781e-20)
(-0.03084 0.008369 -9.982e-22)
(0.7551 -0.2774 0)
(1.083 -0.0875 1.404e-20)
(0.1272 -0.05633 3.427e-22)
(0.08011 -0.0103 -3.655e-21)
(-0.1875 0.06181 0)
(1.036 0.005504 1.066e-19)
(-0.07892 0.005728 -3.248e-21)
(0.3228 -0.09309 -6.13e-22)
(-0.1549 0.04757 0)
(-0.06591 0.01689 -7.758e-21)
(0.949 -0.07982 -9.304e-21)
(-0.1933 0.06455 0)
(-0.0001704 -0.001016 -2.37e-23)
(-0.1586 0.04885 -3.765e-21)
(1.086 -0.04905 0)
(-0.132 0.04324 4.843e-21)
(0.1525 -0.08625 -2.877e-21)
(1.112 -0.003964 9.632e-21)
(0.9539 -0.1728 7.198e-21)
(0.9864 0.0286 4.769e-20)
(-0.07817 0.01352 1.319e-21)
(-0.09612 0.03279 -1.678e-20)
(-0.07272 0.01366 -3.207e-21)
(1.25 0.4771 3.894e-21)
(-0.03011 0.1678 6.651e-22)
(1.001 0.0004293 -4.625e-20)
(-0.0631 0.01598 6.502e-21)
(0.4937 0.4312 -4.49e-22)
(1.076 -0.1144 -3.36e-21)
(0.4918 -0.0976 0)
(0.4076 0.04859 3.996e-20)
(0.8376 -0.136 0)
(0.2763 -0.1828 0)
(-0.1583 -0.0007678 0)
(1.106 -0.07839 -5.144e-21)
(0.3112 -0.1091 0)
(-0.2144 0.07372 -2.618e-21)
(0.1703 -0.01527 9.304e-22)
(0.3525 -0.02154 0)
(0.02848 -0.01501 2.241e-21)
(0.9996 -0.005703 2.184e-22)
(-0.1563 0.04808 -9.27e-21)
(0.1886 -0.04857 0)
(-0.04329 0.003767 4.374e-21)
(-0.1591 0.05465 -4.789e-21)
(0.6761 -0.2257 1.569e-20)
(0.201 0.0568 -2.575e-21)
(0.9412 0.04883 -6.57e-21)
(-0.01839 0.005436 0)
(-0.09662 0.03332 7.817e-21)
(1.015 -0.1771 -8.994e-22)
(0.88 -0.254 -2.042e-21)
(0.9784 -0.0007889 3.608e-20)
(-0.07882 0.006962 8.641e-23)
(1.231 0.5392 -6.525e-22)
(-0.07898 0.00587 -3.213e-21)
(0.404 -0.0408 0)
(1.007 -0.01912 5.475e-21)
(0.8789 -0.2543 -7.002e-22)
(1.006 0.00331 0)
(-0.06246 -0.009942 1.139e-21)
(-0.07883 0.006132 -8.65e-23)
(0.3337 -0.09757 1.285e-21)
(-0.1667 0.06087 2.717e-21)
(1.022 0.3016 -5.324e-21)
(0.267 0.556 -3.83e-21)
(0.3789 -0.03715 -2.468e-21)
(1.027 -0.02848 4.412e-20)
(-0.0885 0.01204 1.975e-21)
(-0.07216 0.00966 -8.37e-21)
(1.084 -0.04808 7.172e-20)
(0.3741 0.9184 -7.884e-23)
(-9.033e-05 -0.00105 3.952e-23)
(-0.171 0.05764 0)
(1.003 -6.338e-07 0)
(0.9984 -2.636e-06 2.98e-22)
(0.01418 0.007729 0)
(0.9909 0.01403 4.573e-21)
(1.011 0.007567 3.07e-20)
(0.9311 0.006054 1.081e-19)
(0.9905 -0.0444 1.033e-20)
(-0.1859 0.06497 -4.701e-21)
(-0.000116 -0.0006369 5.724e-25)
(0.6464 -0.03934 4.772e-21)
(1.013 -0.0941 -2.352e-21)
(0.9892 -0.1752 2.923e-22)
(0.5288 -0.1153 -1.251e-21)
(0.9961 0.009508 -7.414e-21)
(1.181 -0.0365 2.026e-20)
(-0.1376 0.003753 1.063e-21)
(0.9946 -0.004281 1.003e-20)
(0.2121 0.05805 -2.761e-21)
(-0.1201 0.03712 5.448e-24)
(0.01898 0.001826 0)
(-0.0165 0.005617 -4.214e-22)
(0.9718 -0.1894 -7.507e-22)
(-0.1112 0.03175 -1.369e-20)
(1.014 -0.09288 -7.021e-22)
(1.221 0.5338 -1.293e-21)
(1.001 0.004933 -5.546e-21)
(0.4794 -0.09409 1.536e-22)
(-0.05939 0.01275 3.496e-21)
(0.1569 -0.01489 0)
(-0.02612 0.00892 0)
(0.2336 -0.05943 -4.359e-22)
(0.1916 0.03167 1.837e-20)
(-0.06593 0.02263 1.593e-21)
(-0.2032 0.06589 7.14e-21)
(-0.132 0.03986 1.326e-20)
(1.007 0.002507 -6.247e-21)
(-0.1948 -0.03081 1.328e-20)
(-0.0001768 -0.007113 0)
(-0.1328 0.04016 0)
(1.071 -0.07318 1.415e-20)
(-0.1562 0.04829 4.471e-21)
(0.002323 -0.0003569 2.429e-23)
(1.011 0.007357 -2.856e-20)
(-0.0895 0.01106 1.133e-20)
(-0.07403 0.01 7.89e-21)
(-0.05462 0.003097 -7.357e-21)
(-0.1614 0.04478 -7.58e-22)
(0.3226 -0.1143 4.027e-25)
(0.215 0.03728 0)
(-0.0005969 -0.003285 1.767e-26)
(0.6264 -0.1273 -7.393e-22)
(-0.01718 0.0003064 0)
(-0.003666 0.001012 5.723e-22)
(1 -4.234e-05 -1.086e-21)
(1.201 0.3917 -1.495e-20)
(0.1174 -0.0131 2.678e-21)
(0.9271 -0.2179 0)
(-0.1147 0.03504 0)
(0.432 -0.1042 3.617e-22)
(0.7076 -0.2697 0)
(1.035 0.004941 -8.358e-20)
(0.3951 0.1314 0)
(0.9344 -0.2354 0)
(0.8649 0.2243 1.21e-20)
(-0.1581 0.05637 -5.73e-21)
(1.011 -0.01253 6.921e-21)
(1.222 0.04971 5.184e-23)
(0.9858 0.02762 -3.858e-20)
(0.05363 0.01498 0)
(-0.0496 0.003818 -2.312e-21)
(-0.08487 0.02757 6.432e-21)
(0.2369 -0.1712 0)
(0.5514 -0.1734 3.899e-20)
(1.214 0.1902 -5.804e-21)
(0.1998 -0.03542 0)
(0.9744 -0.001472 -4.346e-20)
(-0.2104 0.07029 -1.819e-21)
(-0.08962 0.01102 -1.166e-20)
(0.9438 -0.05909 7.639e-21)
(-0.08873 0.01212 -9.587e-21)
(-0.09811 0.02629 0)
(0.5021 -0.07952 2.774e-21)
(0.9565 -0.002387 -8.621e-22)
(0.8825 -0.2576 2.125e-21)
(1.003 -0.0004135 3.826e-22)
(1.031 0.0632 2.512e-21)
(1.076 -0.1223 -1.008e-23)
(0.995 0.002946 0)
(1.003 0.01045 2.761e-21)
(-0.0004122 -0.001054 -5.737e-24)
(-0.1324 0.03924 0)
(0.9963 0.01073 7.836e-21)
(0.4604 -0.06519 2.541e-21)
(1.006 -0.01914 7.126e-21)
(0.4657 0.0441 -5.197e-20)
(0.975 -0.1809 0)
(1.07 -0.07413 -1.394e-20)
(0.9982 -0.192 0)
(0.997 -0.006099 -6.01e-21)
(0.6755 -0.2788 -3.64e-22)
(0.2638 -0.02084 1.957e-21)
(0.005857 -0.03167 -8.182e-22)
(-0.1618 0.04521 2.928e-21)
(1.218 0.1904 4.123e-21)
(0.1923 -0.02111 -1.061e-21)
(0.9157 -0.2176 -8.632e-22)
(0.785 -0.2238 -1.057e-20)
(1.024 -0.1665 3.528e-21)
(0.1494 -0.01085 0)
(0.4684 -0.2673 3.542e-23)
(0.9935 -0.1755 9.789e-23)
(0.9944 -0.004429 0)
(-0.06438 0.03725 -8.661e-24)
(1.015 -0.106 -4.105e-21)
(0.6921 -0.1091 -2.666e-21)
(0.008789 -0.031 -8.086e-23)
(0.2958 -0.07212 0)
(1.002 -0.0005349 9.167e-22)
(0.9922 0.003531 -2.108e-20)
(1.08 0.4695 5.587e-22)
(0.01954 0.02113 1.122e-20)
(0.183 -0.01998 2.513e-21)
(1.2 0.06644 2.632e-20)
(0.914 -0.01509 -1.073e-21)
(0.984 -0.1426 0)
(0.3057 -0.02089 -3.336e-21)
(1.065 0.01444 2.419e-20)
(0.9261 -0.2171 1.243e-22)
(1.059 0.4556 0)
(0.02112 0.01668 -2.132e-20)
(0.9119 -0.03888 4.907e-20)
(0.04538 -0.01328 -6.821e-24)
(0.3358 -0.003029 1.956e-21)
(1.195 0.5971 6.104e-21)
(-0.1954 0.06811 0)
(1.003 0.01032 -3.107e-21)
(0.8782 -0.07546 -8.95e-20)
(1.003 6.485e-06 0)
(0.9983 -1.975e-06 0)
(0.8373 -0.1322 0)
(0.7011 -0.2672 -2.397e-21)
(1.015 -0.1772 -8.725e-22)
(-0.1957 0.06841 -2.226e-21)
(-0.1141 0.03356 -2.574e-20)
(1.109 -0.006034 -4.338e-20)
(0.9719 -0.1896 0)
(-0.06294 0.01493 3.047e-21)
(-0.08859 0.01233 1.637e-21)
(0.1928 0.1348 -1.605e-22)
(0.4514 -0.06281 -1.655e-21)
(-0.03935 0.01012 -4.212e-21)
(-0.07404 0.01604 7.079e-21)
(0.2159 -0.02564 -2.036e-21)
(-0.07364 0.00624 0)
(0.2288 -0.02498 1.69e-21)
(-0.09872 0.03615 5.619e-21)
(-0.09988 0.02301 -1.837e-21)
(-0.08867 0.01226 7.084e-21)
(0.9209 0.05045 0)
(-0.04741 0.01222 -1.087e-20)
(-0.1152 0.03508 -8.311e-21)
(1.247 0.4454 -3.466e-21)
(1.004 -0.006237 5.668e-21)
(0.3216 -0.002262 0)
(-0.2041 0.06396 -2.693e-21)
(0.8352 -0.05552 1.388e-21)
(0.4816 -0.0748 -3.574e-20)
(0.4376 -0.03096 0)
(0.4209 -0.03533 -2.648e-21)
(1.002 0.00241 1.768e-22)
(0.9912 0.01373 -1.371e-20)
(0.8924 -0.001711 0)
(-0.02225 0.004018 2.043e-21)
(0.9598 -0.001753 0)
(0.3837 -0.03402 5.529e-20)
(1.065 0.01216 -5.176e-20)
(0.1443 -0.01577 -2.571e-21)
(0.4139 -0.02939 3.217e-21)
(1.027 -0.02704 0)
(1.162 0.05927 -6.259e-22)
(0.2873 -0.02497 2.218e-21)
(0.005298 -0.008501 1.893e-26)
(-0.2085 0.06771 -1.414e-20)
(0.9635 -0.005136 3.928e-21)
(0.3284 -0.01001 -6.372e-20)
(0.09308 -0.012 3.681e-21)
(0.2449 -0.03107 0)
(0.9136 -0.2198 -3.622e-21)
(0.9896 0.03955 0)
(0.04605 -0.003341 0)
(0.9567 0.156 0)
(0.1218 -0.003911 0)
(-0.1726 0.05801 -1.647e-21)
(0.08629 0.03009 -4.95e-20)
(1.012 -0.006845 -4.361e-20)
(0.7539 -0.1954 0)
(-0.04278 0.01429 1.1e-21)
(0.434 -0.1113 4.532e-22)
(0.376 -0.03386 4.979e-21)
(0.2629 -0.01671 2.133e-21)
(0.7584 -0.1976 -8.796e-21)
(0.3047 -0.01854 0)
(0.9195 0.04869 0)
(1.01 -0.01288 0)
(0.1268 -0.01078 -6.448e-22)
(1.001 0.004686 1.996e-21)
(-0.1199 0.03542 0)
(-0.06583 -0.00938 0)
(0.9622 0.1581 0)
(1.034 -0.1247 2.476e-21)
(-0.2097 0.07128 -1.54e-20)
(0.9276 -0.08532 6.799e-21)
(1 0.0005882 -7.949e-20)
(0.4356 -0.04508 0)
(0.6849 -0.2974 0)
(0.2165 -0.02848 -2.209e-21)
(0.9552 -0.1717 -7.433e-21)
(-0.2142 0.07395 0)
(0.7689 -0.2814 0)
(-0.06048 0.01269 -7.159e-21)
(-0.1795 0.05488 -1.39e-20)
(0.1717 -0.03304 0)
(0.7102 0.08313 8.052e-21)
(0.5341 -0.215 -1.235e-21)
(-0.1635 0.05665 0)
(-0.0191 0.006658 -1.7e-21)
(-0.1024 0.03053 0)
(1.003 0.0001604 -8.277e-23)
(-0.204 0.06612 -8.863e-21)
(0.919 0.2686 -4.531e-21)
(1.059 0.4431 3.758e-22)
(0.9227 -0.1602 -8.871e-21)
(-0.05785 0.003919 7.464e-21)
(0.9937 -0.1157 -1.365e-23)
(1.003 -0.0002042 0)
(-0.1045 0.03142 0)
(-0.09503 0.02262 0)
(1.197 -0.05315 1.123e-19)
(0.8352 0.1597 7.213e-22)
(1.002 0.00236 -5.85e-21)
(0.9956 -0.1538 2.306e-21)
(-0.03826 0.009186 -7.834e-21)
(0.9761 -0.0312 -1.558e-20)
(0.9968 -0.006021 0)
(0.9982 -0.0007439 -4.412e-21)
(0.4445 -0.03549 1.368e-21)
(1.084 -0.05406 -2.495e-20)
(0.7012 -0.2729 3.44e-21)
(0.9611 0.03402 0)
(0.2085 -0.01509 -1.291e-22)
(0.9898 0.002834 4.842e-20)
(0.3389 -0.2282 0)
(0.8776 -0.005094 -2.133e-21)
(-0.1374 0.002258 1.034e-21)
(-0.1722 0.05461 0)
(0.2851 -0.03711 -8.876e-24)
(1.051 -0.1257 -6.88e-21)
(-0.02229 0.003741 1.15e-20)
(0.8593 0.08631 -9.43e-23)
(-0.1915 0.06555 -1.606e-21)
(0.1846 -0.02238 -1.072e-21)
(-0.06372 0.003459 0)
(-0.2023 0.07018 0)
(1.061 0.1301 4.561e-21)
(0.9731 -0.08333 3.121e-21)
(-0.05529 0.009155 7.819e-21)
(-0.06766 0.04585 0)
(0.3187 0.5007 -1.83e-20)
(-0.06169 0.008952 -9.711e-25)
(0.9927 -0.0009437 0)
(1.004 0.02541 0)
(-0.09431 0.01998 0)
(-0.04766 0.01329 4.296e-21)
(0.9991 -0.0001484 0)
(-0.2037 0.06468 5.861e-21)
(1.218 0.06992 2.17e-20)
(1.084 -0.08595 -2.127e-20)
(0.03802 0.02127 -3.68e-21)
(1.017 -0.0782 -4.251e-21)
(1.004 -0.00011 0)
(0.2142 -0.1191 -1.581e-20)
(1.214 0.06966 -2.106e-20)
(-0.06823 0.02368 -1.013e-21)
(-0.00748 0.01819 8.465e-22)
(0.1188 -0.06264 2.476e-22)
(0.3336 -0.227 -1.833e-21)
(-0.04935 0.007175 2.075e-21)
(0.2968 -0.06992 0)
(0.6898 -0.2924 0)
(0.8667 0.1642 -7.152e-22)
(0.05157 0.02028 -6.691e-22)
(1.01 0.001849 3.605e-20)
(0.1972 -0.01687 -1.835e-21)
(0.973 0.01031 4.017e-20)
(1.201 0.5348 1.978e-22)
(0.5564 -0.05514 2.689e-21)
(-0.0785 0.01165 0)
(1.252 0.4626 1.727e-21)
(-0.0001955 -0.00107 0)
(-0.1436 0.04455 1.033e-20)
(0.266 0.3277 5.593e-21)
(1.092 -0.02578 -2.945e-22)
(1.002 0.7127 6.267e-21)
(0.9943 -0.002249 -6.27e-20)
(0.1161 -0.06522 0)
(1.005 0.02548 1.703e-23)
(-0.1534 0.04615 0)
(-0.1675 0.05704 -5.747e-21)
(-9.447e-05 -0.0005723 0)
(0.001125 0.000359 3.358e-23)
(0.0009437 -0.0003509 -1.051e-23)
(1 -0.0002724 -3.1e-20)
(-0.04893 0.0127 0)
(0.4005 0.08929 0)
(0.9924 0.003665 4.096e-20)
(-0.2017 0.0668 3.94e-21)
(0.7263 -0.2679 4.291e-21)
(-0.1587 0.05165 9.744e-21)
(1.045 -0.1507 0)
(-0.1714 0.05409 0)
(0.2794 -0.0344 -1.592e-21)
(-0.2035 0.0646 -5.942e-21)
(-0.007251 0.001361 4.892e-22)
(0.9978 -0.0006322 0)
(-0.1151 -0.00794 -1.348e-21)
(-0.0002847 8.517e-05 0)
(0.4815 -0.1966 7.789e-22)
(0.209 -0.02038 7.789e-22)
(-0.02014 0.005736 3.883e-22)
(1.011 -0.008304 -1.321e-20)
(1.079 -0.1139 -3.643e-21)
(0.9942 -0.0449 -2.747e-21)
(-0.0576 0.04435 1.419e-20)
(0.9996 -0.004881 0)
(0.1739 -0.01352 0)
(0.2823 0.1331 0)
(-0.05339 0.0181 -1.773e-21)
(0.9982 2.191e-05 0)
(-0.09427 0.02005 -8.367e-21)
(1.055 -0.0978 -9.907e-21)
(-0.002483 -0.0008166 6.368e-26)
(0.6584 -0.2949 1.814e-21)
(0.1968 0.0589 5.976e-22)
(-0.05418 0.04224 -4.475e-21)
(0.9708 0.003002 2.657e-21)
(-0.1026 0.03573 -1.553e-21)
(0.7735 -0.2886 -2.677e-21)
(0.999 -0.0001488 3.51e-21)
(0.9148 -0.2194 4.86e-21)
(0.8312 0.09794 -3.349e-20)
(0.2875 -0.02381 -1.779e-21)
(0.4508 -0.03047 2.1e-21)
(-0.04345 0.0121 -4.232e-21)
(-0.05288 0.018 8.065e-22)
(-0.1709 0.05764 2.904e-21)
(1.084 0.1833 0)
(0.5854 -0.2327 1.091e-21)
(-0.1706 0.05774 0)
(-0.1092 0.03276 1.944e-22)
(1.018 -0.002984 -6.906e-21)
(0.1349 -0.004843 2.125e-22)
(-0.1547 0.04692 -5.928e-21)
(0.2082 -0.0332 2.674e-21)
(0.8805 -0.0946 -6.118e-21)
(-0.1824 0.05517 2.976e-21)
(1 0.00123 0)
(0.9998 0.00156 1.373e-20)
(0.8716 0.2153 -1.968e-20)
(-0.03805 0.009586 -2.013e-21)
(0.9801 0.7471 0)
(0.9911 0.004372 -2.795e-20)
(1.003 2.355e-06 -4.961e-22)
(0.7864 -0.2808 0)
(0.379 -0.1666 0)
(-0.2102 0.07186 4.867e-21)
(0.6883 -0.293 0)
(-0.04686 0.01599 2.802e-21)
(-0.01879 0.006199 0)
(0.9675 -0.2122 -1.81e-22)
(1.009 0.03266 0)
(1 -0.000393 5.968e-21)
(-0.05837 0.02069 1.561e-21)
(-0.1996 0.06239 -5.168e-21)
(0.8552 -0.2007 3.118e-22)
(1.002 -0.001053 1.004e-20)
(-0.01884 0.0003665 9.975e-22)
(0.9589 -0.0946 0)
(-0.09197 0.0267 7.4e-21)
(0.9639 -0.003953 9.008e-21)
(0.1404 -0.0166 2.165e-22)
(0.991 0.004117 5.134e-20)
(-0.2114 0.07202 -2.587e-21)
(-0.0733 -0.01302 0)
(0.04997 0.03592 8.494e-22)
(1 4.111e-07 2.323e-22)
(-0.08705 0.02871 -5.98e-21)
(-0.1574 0.05598 -1.363e-21)
(0.05091 -0.03147 -3.168e-21)
(1.004 -0.0001012 -1.448e-21)
(0.7675 -0.1221 2.136e-21)
(-0.01674 0.005602 1.96e-22)
(0.9982 -0.000826 0)
(1.037 -0.1259 0)
(0.9929 0.009395 -8.982e-22)
(0.5632 -0.03598 2.753e-21)
(0.007119 0.01479 0)
(0.9951 0.002757 2.852e-20)
(-0.03183 0.00832 9.547e-21)
(0.3238 -0.04458 1.316e-21)
(0.007852 -0.03377 0)
(-0.07185 0.01003 -1.137e-20)
(-0.06632 0.01394 -2.711e-21)
(0.2419 -0.0255 -5.061e-21)
(0.2531 -0.02959 -1.55e-21)
(0.1779 -0.0188 -2.138e-20)
(0.4637 -0.04328 -1.169e-21)
(1.156 0.7178 7.862e-22)
(0.4844 -0.02051 -2.442e-21)
(-0.1102 0.03127 -2.011e-21)
(-0.04346 0.008536 -3.727e-21)
(0.1683 -0.01509 8.858e-22)
(1.002 -0.00102 0)
(0.3089 -0.0639 1.409e-22)
(0.9938 0.003243 -1.174e-20)
(0.2087 0.1528 -1.586e-20)
(1.037 0.02139 4.213e-20)
(-0.07626 0.01371 1.887e-20)
(1.003 -0.0002406 0)
(0.996 0.01056 2.042e-20)
(1.109 -0.07835 2.441e-20)
(0.543 -0.2193 6.397e-22)
(-0.1222 0.03548 9.608e-21)
(1.003 -0.0005269 8.809e-21)
(1.002 -0.001368 -1.379e-20)
(-0.07066 0.0239 -1.612e-21)
(0.01629 0.003846 0)
(-0.03019 0.00732 4.19e-21)
(0.2031 -0.01663 -3.037e-21)
(-0.1885 0.02932 0)
(0.7009 -0.2719 -3.163e-21)
(-0.1751 0.05552 -1.183e-21)
(0.6834 -0.2979 0)
(-0.08853 0.01233 -2.255e-22)
(-0.08948 0.02731 -1.823e-20)
(-0.03939 0.003069 0)
(1.003 -0.0005557 -1.554e-21)
(-0.06802 0.003404 7.41e-21)
(-0.08892 0.01145 8.721e-22)
(1.023 -0.1608 -8.734e-22)
(1.212 0.1348 0)
(0.999 -0.005023 -1.516e-20)
(1.003 3.918e-06 4.818e-23)
(0.04629 0.01767 -1.956e-20)
(0.177 -0.1001 2.424e-24)
(0.05115 0.02147 3.366e-21)
(-0.008774 0.002702 3.361e-22)
(1.037 0.02225 0)
(1.004 -2.516e-05 7.43e-23)
(-0.1416 0.04492 0)
(-0.06328 0.005061 0)
(0.9341 0.006104 -8.592e-20)
(-0.03355 0.003785 -2.09e-21)
(1.022 -0.1361 0)
(0.9913 0.006146 -2.442e-20)
(-0.06902 0.02111 6.692e-21)
(0.9505 -0.2261 -2.178e-22)
(-0.08831 0.01148 5.644e-21)
(0.8341 -0.1623 -3.438e-20)
(0.0002312 -7.383e-05 0)
(-0.02782 0.0093 0)
(-0.2034 0.07055 -1.435e-21)
(-0.1908 0.06595 3.02e-21)
(-0.1333 0.03916 0)
(-0.06333 0.009139 7.22e-21)
(0.1594 -0.02229 -4.837e-22)
(-0.04404 0.006378 0)
(0.9679 -0.02444 -9.786e-21)
(-0.08136 0.006755 1.446e-20)
(-0.007388 -0.01844 0)
(-0.1207 0.03613 -1.183e-20)
(1.001 -0.0009946 3.165e-20)
(0.535 -0.08301 -2.079e-21)
(0.8467 -0.2256 0)
(0.5506 0.0242 -2.836e-20)
(0.9982 5.486e-06 3.199e-23)
(1.001 -0.001029 -4.217e-20)
(0.002909 -0.004775 0)
(1.092 -0.02341 -6.971e-21)
(0.3511 -0.06706 7.931e-22)
(-0.07208 0.01029 -4.908e-22)
(0.4918 -0.2748 0)
(-0.06588 0.03676 1.66e-20)
(1.193 0.2168 0)
(0.1777 -0.01459 8.969e-22)
(0.6807 0.0003109 4.533e-20)
(0.4405 -0.12 0)
(1.009 0.00162 -1.303e-20)
(1.003 -0.0005954 0)
(1.208 0.416 0)
(0.9285 0.2701 0)
(-0.02474 0.004709 5.022e-22)
(0.5576 0.01147 0)
(0.2394 -0.09825 2.156e-21)
(-0.1948 0.04976 0)
(0.4499 -0.188 -1.718e-21)
(1.177 -0.03628 1.278e-19)
(0.5408 -0.07816 5.225e-20)
(1.001 3.825e-05 -7.574e-23)
(0.233 -0.01492 -5.965e-22)
(1.019 -0.07738 -7.079e-22)
(0.4014 -0.09372 -1.334e-22)
(-0.0002226 -0.001159 5.619e-24)
(0.9363 -0.1471 7.354e-22)
(0.08586 0.02266 -2.243e-20)
(-0.2084 0.06773 1.418e-20)
(1 1.063e-05 -2.204e-22)
(0.8037 -0.0861 1.111e-22)
(0.411 -0.03485 -3.46e-21)
(-0.01559 0.00534 0)
(-0.08408 -0.01699 7.732e-21)
(-0.09986 0.04458 8.927e-21)
(-0.08859 0.01225 -3.437e-21)
(0.5461 0.4693 0)
(-0.1791 0.05466 1.335e-20)
(0.4381 -0.2365 2.936e-21)
(-0.1673 0.04755 -1.84e-21)
(0.4765 -0.1169 8.068e-23)
(0.7366 -0.07849 3.275e-21)
(1.027 -0.1074 1.947e-21)
(-0.1859 0.06131 4.808e-21)
(0.9976 -0.1714 -1.066e-21)
(0.001198 -7.145e-05 0)
(0.844 -0.2268 0)
(0.9415 0.04501 3.273e-20)
(0.7384 -0.1691 -6.464e-24)
(0.6558 -0.2835 2.749e-21)
(0.563 -0.0586 -7.621e-22)
(1.005 -0.0006294 0)
(-0.03704 -0.01298 -9.878e-22)
(-0.09271 0.03606 -1.121e-20)
(-0.2108 0.07211 -4.571e-21)
(1.004 -1.335e-05 -1.288e-22)
(-0.008585 0.003212 0)
(-0.108 0.03313 0)
(0.1409 -0.01847 3.687e-21)
(1.002 4.143e-05 4.635e-22)
(-0.04116 0.00619 4.342e-21)
(-0.1343 0.04269 0)
(-0.03824 0.007182 7.883e-21)
(-0.07223 0.006664 -5.577e-21)
(1.001 -1.183e-05 -3.971e-22)
(-0.2131 0.07273 -7.59e-21)
(-0.005371 -0.002153 0)
(-0.04706 0.01397 7.675e-21)
(-0.1116 0.03253 0)
(0.9897 0.01503 -5.382e-21)
(-0.06167 0.01496 2.796e-21)
(0.03516 0.1382 0)
(1.018 0.002209 -1.393e-20)
(0.9797 -0.1827 -8.599e-22)
(0.9773 -0.1994 0)
(-0.06523 0.009013 -7.429e-21)
(-0.1449 0.04458 0)
(0.9159 -0.216 -2.837e-21)
(0.9254 -0.1457 0)
(0.1026 -0.01294 5.294e-22)
(-0.09338 0.02959 0)
(0.9987 -8.924e-06 -4.63e-22)
(-0.2132 0.07276 7.265e-21)
(-0.1842 0.06474 7.353e-22)
(0.12 -0.009477 0)
(0.2368 -0.03303 1.674e-21)
(1.186 0.1603 0)
(-0.2008 0.06629 0)
(-0.05601 0.01905 2.084e-22)
(0.9985 1.359e-05 1.797e-22)
(-0.1636 0.05378 -9.76e-21)
(-0.0697 0.02054 0)
(-0.01782 0.01684 0)
(0.0002737 -0.008387 -6.148e-24)
(-0.01194 0.01788 -3.068e-21)
(-0.0542 0.01884 2.773e-21)
(-0.08976 0.02047 -2.7e-21)
(-0.1525 0.03653 0)
(0.9599 -0.2183 0)
(1 -0.0002656 1.519e-20)
(3.997e-05 -1.601e-05 -3.993e-24)
(-0.1504 0.04593 1.199e-20)
(-0.07394 0.0106 1.104e-20)
(-0.04324 0.01544 8.196e-22)
(-0.2112 0.07319 -1.025e-20)
(-0.1087 0.0376 6.248e-21)
(-0.1265 0.0409 -2.984e-21)
(0.3434 -0.02599 0)
(1 -0.0003666 0)
(-0.0933 0.01907 0)
(1.068 -0.1297 -1.869e-23)
(1.002 4.788e-06 0)
(-0.1111 0.03475 -9.606e-21)
(1.205 0.5348 0)
(0.7236 -0.1108 2.036e-21)
(0.7694 -0.2747 -1.318e-21)
(1.004 -5.713e-05 -5.826e-21)
(-0.1755 0.05592 0)
(-0.07827 0.009809 0)
(1.01 0.001893 -4.204e-20)
(1.004 -6.372e-05 0)
(1.208 0.1322 0)
(-0.1739 0.06315 5.809e-21)
(-0.1887 0.03031 -2.333e-21)
(-0.1106 0.03841 2.948e-21)
(-0.2123 0.07247 6.875e-21)
(0.03108 0.0006372 5.668e-24)
(1.053 -0.1378 0)
(0.6912 -0.1535 -2.533e-20)
(1.002 -0.001043 0)
(-0.1947 0.06208 -7.045e-21)
(-0.1713 0.05937 0)
(0.2882 -0.01714 -1.794e-21)
(0.1679 -0.01351 0)
(0.6787 -0.2233 -1.48e-20)
(1.004 -0.0003244 0)
(1.011 -0.007916 1.925e-21)
(0.994 -0.0003224 2.852e-20)
(-0.01814 -5.533e-05 1.069e-21)
(1.002 -0.0009805 5.559e-21)
(1.165 -0.04873 -4.826e-20)
(0.2043 -0.1227 5.667e-22)
(0.8121 -0.1042 4.163e-21)
(0.1092 -0.01808 -1.766e-21)
(1.002 -0.001285 0)
(-0.1132 0.005438 -1.925e-21)
(0.7974 -0.0966 -2.714e-21)
(1.001 0.005944 0)
(0.2204 -0.026 1.881e-21)
(0.9992 -0.0001797 0)
(0.5521 -0.2809 4.666e-21)
(-0.008764 0.02479 -1.753e-21)
(-0.05723 0.007766 -1.048e-22)
(0.3028 0.04559 0)
(0.09352 -0.002187 2.181e-22)
(0.9991 -0.006438 5.79e-22)
(-0.04352 0.01209 0)
(0.8258 -0.1719 -9.048e-21)
(0.1796 -0.01296 0)
(0.002998 -0.02031 -7.425e-22)
(0.1675 -0.01997 8.257e-22)
(0.4085 0.57 -1.203e-21)
(1.184 0.162 -8.352e-21)
(0.9998 -0.1804 6.631e-22)
(0.7468 -0.2619 5.201e-23)
(0.03016 -0.002119 0)
(0.9996 0.007165 0)
(0.3788 0.03505 3.411e-20)
(0.3808 -0.1227 0)
(0.321 0.08048 2.639e-22)
(-0.007027 -0.01764 3.597e-22)
(0.062 -0.01118 0)
(1.003 -0.000303 0)
(1.084 -0.1108 3.613e-20)
(-0.05787 0.01982 -7.503e-22)
(0.1191 -0.02907 -5.393e-22)
(-0.007953 0.0001565 4.009e-21)
(0.5994 0.1403 0)
(0.003349 -0.003375 -3.553e-22)
(0.2686 0.06114 -9.922e-22)
(-0.001682 -7.566e-05 1.129e-21)
(-0.07743 0.02097 -6.009e-21)
(-0.04762 0.01662 1.749e-21)
(-0.08522 0.01921 5.026e-21)
(0.05156 -0.003826 7.407e-22)
(1.002 0.03911 -5.072e-22)
(0.6605 -0.09601 0)
(1.003 1.876e-05 0)
(1 -4.735e-06 0)
(-0.0884 0.01446 9.847e-21)
(1.042 0.04233 1.419e-21)
(-0.07995 0.01102 8.202e-21)
(-0.2007 -0.03866 -1.926e-20)
(0.2466 0.5084 0)
(1.093 -0.1015 -1.596e-20)
(1.048 -0.03833 -2.528e-20)
(0.9558 0.423 2.087e-21)
(0.7068 -0.164 1.123e-22)
(1.011 -0.006746 3.059e-20)
(0.05525 0.01146 1.549e-22)
(-0.1802 0.06179 -2.209e-21)
(1.046 -0.03636 3.484e-20)
(-0.02678 0.006386 -1.028e-20)
(-0.007233 0.002581 -7.113e-22)
(-0.06055 -0.01352 0)
(0.9684 -0.2006 0)
(0.05355 -0.01868 -5.284e-21)
(-0.07895 0.03709 0)
(-0.09273 0.03223 0)
(0.9953 -0.0008731 2.43e-20)
(-0.07675 0.01165 6.265e-21)
(0.4105 -0.09408 1.476e-22)
(1.004 -0.00605 0)
(-0.03673 0.009472 4.783e-21)
(-0.1579 0.04759 0)
(-0.1579 0.05796 -2.749e-21)
(0.9991 -0.0001318 1.653e-21)
(0.8623 -0.004147 4.826e-21)
(0.2025 -0.01072 0)
(0.02316 0.0009916 1.119e-23)
(0.8219 -0.2737 -3.314e-21)
(-0.007173 0.002345 0)
(-0.1983 0.06267 6.046e-21)
(0.6835 -0.2978 0)
(0.7778 -0.1734 2.866e-24)
(-0.01153 0.003928 0)
(-0.06376 0.004455 1.866e-21)
(1 1.192e-06 -7.586e-23)
(0.1612 -0.09443 0)
(1.139 0.3389 -9.81e-21)
(1.004 1.79e-05 0)
(0.7312 -0.2786 1.084e-22)
(0.001297 -0.0005273 4.727e-23)
(0.2348 0.01125 -9.126e-21)
(0.02047 0.007886 -5.522e-21)
(1.138 -0.04862 7.003e-21)
(1.033 -0.1617 6.902e-22)
(-0.005419 0.001757 3.757e-26)
(0.01661 -0.001631 -1.395e-22)
(0.345 -0.0378 0)
(1.008 0.03234 -6.233e-21)
(0.9974 0.003229 6.253e-21)
(0.9787 -0.1907 0)
(0.6527 -0.2854 -1.135e-21)
(-0.1426 0.04731 -1.301e-20)
(-0.03057 0.007157 0)
(0.2822 0.7262 -4.101e-21)
(0.2041 -0.08583 -1.177e-21)
(0.3507 0.004767 -1.075e-22)
(1.139 0.1444 -1.959e-20)
(0.1997 -0.08341 -1.136e-21)
(1.119 -0.003684 4.73e-20)
(-0.02338 0.001761 0)
(1.005 0.0001445 0)
(-0.2156 0.07458 7.213e-22)
(0.006462 -0.03208 -2.319e-23)
(-0.0987 0.02561 -2.303e-20)
(-0.09581 0.02893 0)
(-0.2006 0.06273 0)
(0.9961 0.001748 -1.956e-20)
(0.9841 -0.0008559 1.352e-20)
(-0.05182 0.01821 0)
(0.9358 -0.1874 6.344e-21)
(-0.1202 0.0413 0)
(0.3799 -0.04816 0)
(-0.0817 0.02955 -2.932e-21)
(-0.202 0.06067 -2.642e-21)
(0.159 0.02944 -2.721e-21)
(0.06127 0.01994 -1.941e-21)
(-0.0693 0.004879 -8.812e-21)
(0.02923 -0.00437 -8.168e-22)
(-0.07953 0.01265 -6.576e-21)
(0.2454 -0.01685 1.209e-21)
(-0.06088 0.01834 6.276e-21)
(1.043 -0.1286 -5.184e-21)
(-0.2069 0.06954 7.017e-21)
(0.393 0.9182 8.993e-23)
(-0.113 0.03899 -1.81e-22)
(0.005089 -0.02981 1.003e-22)
(-0.0001053 -3.949e-05 0)
(-0.2006 0.06264 0)
(1.005 -0.0005987 0)
(1.004 -0.002128 2.054e-20)
(-0.2112 0.07209 5.21e-21)
(-0.1971 0.06614 0)
(1.022 -0.164 5.571e-21)
(1.003 1.887e-05 0)
(0.6499 -0.2984 -3.201e-21)
(-0.1746 0.05524 6.16e-21)
(1.117 -0.07132 -2.012e-20)
(-0.09195 0.03112 0)
(0.1142 0.02382 -3.313e-20)
(-0.08335 0.02651 -7.319e-21)
(1.087 0.5965 -1.001e-20)
(0.9999 0.000576 -5.077e-20)
(1.002 -0.1688 0)
(1.134 -0.03202 -1.246e-20)
(0.1259 -0.04929 0)
(0.1537 -0.01123 0)
(-0.1166 0.0344 1.048e-21)
(0.7157 -0.2028 1.349e-20)
(0.3904 0.03775 5.829e-20)
(-0.0247 0.004342 0)
(0.3593 -0.03014 -1.075e-21)
(1.003 -0.07452 0)
(-0.1913 0.05356 0)
(0.6422 -0.2964 3.439e-21)
(0.5542 -0.06361 3.147e-21)
(-0.1598 0.0552 0)
(0.1966 -0.08531 -1.328e-21)
(1.006 -0.008905 -1.016e-21)
(-0.01409 0.005035 0)
(-0.006121 0.001928 0)
(-0.1823 0.06409 0)
(-0.07579 0.01025 1.651e-20)
(0.03079 0.004576 -7.304e-21)
(1.001 0.0143 1.001e-21)
(-0.004943 0.001268 1.753e-21)
(0.03364 -0.006091 0)
(1.001 -0.0001701 0)
(0.9995 -6.004e-05 -1.187e-20)
(-0.08187 0.01068 1.725e-25)
(-0.1278 0.03767 2.995e-20)
(0.0004582 -0.0002093 -4.771e-23)
(-0.0002225 -0.02829 3.719e-22)
(0.6828 -0.09917 -5.716e-22)
(0.4425 -0.1646 0)
(-0.07357 0.02398 -6.549e-21)
(1.01 -0.165 0)
(1.052 -0.1337 0)
(1.001 -0.006226 -2.499e-21)
(-0.06552 0.02178 -9.819e-21)
(-0.1297 -0.0209 0)
(-0.09387 0.03151 -7.462e-21)
(0.9828 -0.2029 0)
(-0.005641 0.001002 2.09e-22)
(-0.1965 0.06773 -1.303e-20)
(1.001 -0.0008239 -6.429e-22)
(0.03181 -0.004291 0)
(-0.1225 0.04112 -5.295e-21)
(1 -0.0006865 -4.848e-20)
(-0.05076 0.007382 -3.367e-21)
(1.001 -0.0001786 -4.797e-21)
(0.9963 -0.002064 1.941e-20)
(0.9876 -0.1353 1.487e-21)
(0.993 -0.1449 0)
(-0.006441 0.000918 -5.812e-21)
(0.9999 -0.001393 4.609e-21)
(0.2229 -0.02588 -2.417e-22)
(1.003 0.004407 0)
(1.177 0.5424 0)
(1.003 -0.1315 2.013e-21)
(0.05351 0.001259 5.956e-21)
(1.073 -0.1223 -3.885e-21)
(0.2988 -0.05937 -9.59e-23)
(0.33 -0.04722 0)
(-0.06425 0.01869 1.389e-20)
(0.8943 -0.09996 5.622e-21)
(1.002 -0.002312 4.979e-21)
(1.013 0.004997 1.96e-20)
(-0.09636 0.02454 1.193e-20)
(0.553 -0.103 3.393e-22)
(-0.1067 0.03691 -7.405e-22)
(-0.0812 0.02635 0)
(0.0777 -0.00493 2.366e-25)
(-0.06495 0.02101 -3.542e-21)
(-0.007853 0.002545 -6.427e-21)
(-0.06915 0.009917 1.415e-20)
(0.4349 -0.121 0)
(-0.03362 0.002503 -1.143e-20)
(0.2974 -0.0319 -5.218e-22)
(0.1018 -0.0146 0)
(0.826 0.3902 2.731e-21)
(-0.0544 0.02164 0)
(1.003 -0.006278 3.749e-21)
(-0.03095 0.00615 1.604e-20)
(-0.03575 -0.001712 1.256e-21)
(0.1651 -0.02684 0)
(0.9978 1.463e-05 3.482e-21)
(0.3104 -0.2062 3.716e-21)
(-0.1787 0.05854 0)
(0.6891 -0.06484 5.233e-22)
(0.7264 -0.2018 2.565e-22)
(-0.08747 0.01244 -9.349e-22)
(1.063 -0.1295 -4.79e-21)
(-0.01837 0.004016 0)
(-0.1358 0.05265 4.238e-21)
(0.6969 -0.06581 1.569e-21)
(-0.08599 0.02799 -9.087e-23)
(0.2959 -0.08179 -1.104e-21)
(0.003738 -0.02121 7.753e-22)
(1.001 -0.0003757 0)
(1.051 -0.06821 -4.847e-21)
(-0.03184 0.005787 0)
(0.9983 -0.006886 0)
(-0.04357 0.009666 0)
(-0.03961 0.004008 9.781e-22)
(0.9989 -9.975e-06 1.939e-21)
(0.9718 -0.2094 2.35e-22)
(-0.03518 0.006499 0)
(1.026 -0.01709 0)
(0.8449 0.392 -1.191e-20)
(-0.05577 0.03264 0)
(0.03979 -0.01097 0)
(1.024 -0.1418 -5.911e-21)
(1.004 2.232e-05 -1.19e-22)
(-0.05437 0.01391 -2.146e-22)
(-0.09959 0.02949 -4.261e-22)
(1.011 -0.002212 2.575e-20)
(0.9013 0.3522 4.558e-21)
(1.045 0.08671 6.745e-21)
(-0.1791 0.05641 9.145e-21)
(-0.0644 0.01811 -7.069e-21)
(1.009 -0.1775 -1.165e-21)
(1.048 -0.03236 0)
(-0.009997 0.001246 -1.842e-22)
(-0.001649 0.0005526 1.742e-22)
(0.3208 -0.06839 -1.659e-23)
(0.4203 -0.06732 -1.476e-21)
(-0.2005 0.06547 -3.384e-21)
(0.05165 -0.004319 0)
(0.9934 -2.436e-05 -3.549e-21)
(0.5007 -0.05372 3.172e-21)
(1.004 0.005762 2.378e-22)
(-0.1872 0.05799 0)
(0.5952 -0.2844 -3.427e-21)
(-0.05047 0.008694 0)
(0.7191 -0.1998 2.252e-21)
(0.008202 -0.01334 -1.983e-22)
(-0.00988 0.001472 0)
(0.9993 0.002361 -1.222e-20)
(-0.001994 0.0007343 0)
(-0.0437 0.01399 0)
(-0.04666 0.01356 3.708e-21)
(0.8319 -0.06912 4.884e-21)
(0.4441 0.1449 0)
(-0.1541 0.05466 -3.634e-21)
(-0.05303 -0.01403 8.137e-21)
(0.137 -0.00987 0)
(0.7698 -0.1081 0)
(0.8816 0.00612 -8.158e-20)
(0.007839 -0.0003932 1.754e-22)
(-0.1869 0.06359 3.298e-21)
(0.3875 -0.02766 0)