/*--------------------------------*- C++ -*----------------------------------*\
  =========                 |
  \\      /  F ield         | OpenFOAM: The Open Source CFD Toolbox
   \\    /   O peration     | Website:  https://openfoam.org
    \\  /    A nd           | Version:  8
     \\/     M anipulation  |
\*---------------------------------------------------------------------------*/
FoamFile
{
    version     2.0;
    format      ascii;
    class       volScalarField;
    location    "5";
    object      nut;
}
// * * * * * * * * * * * * * * * * * * * * * * * * * * * * * * * * * * * * * //

dimensions      [0 2 -1 0 0 0 0];

internalField   nonuniform List<scalar> 
127143
(
8.423e-16
3.205e-18
3.186e-19
2.068e-18
5.97e-12
1.89e-18
8.661e-10
2.698e-11
2.667e-12
5.033e-08
3.172e-10
6.991e-11
2e-17
3.458e-18
1.245e-06
6.738e-09
7.428e-16
0.0001012
5.034e-05
1.548e-08
4.777e-05
1.041e-09
7.101e-05
7.198e-06
8.924e-10
7.837e-06
1.181e-05
1.026e-05
2.645e-08
0.0002052
3.29e-06
6.376e-06
2.945e-06
1.273e-05
3.738e-05
3.074e-06
0.0001436
3.582e-05
7.691e-06
1.273e-06
5.035e-05
2.025e-06
2.218e-06
1.041e-15
0.0001011
1.267e-05
2.636e-08
0.0002055
6.737e-06
5.278e-06
9.419e-09
0.0003191
8.162e-06
1.827e-05
0.006685
2.696e-07
0.006685
0.0002393
0.00389
2.102e-05
2.904e-06
4.644e-05
7.668e-06
0.006702
3.043e-05
1.96e-05
3.02e-05
7.374e-06
7.374e-06
0.001391
4.033e-06
1.238e-05
0.0002929
0.003311
0.006696
1.074e-05
0.0004346
0.0001779
2.696e-07
0.006705
2.646e-08
2.275e-08
2.876e-05
1.651e-06
0.0003183
0.0001899
7.986e-06
1.283e-05
1.821e-05
1.389e-06
0.002073
5.067e-05
2.709e-06
4.763e-05
5.662e-05
0.0002369
2.239e-06
2.501e-06
0.0001288
3.358e-05
0.006705
6.573e-06
1.763e-07
7.704e-05
0.0001436
0.000129
6.945e-06
0.001391
6.772e-06
0.006683
1.357e-06
1.28e-05
5.531e-05
6.401e-07
0.003168
7.435e-05
0.0003614
0.006696
0.0005447
1.132e-12
0.006684
4.045e-05
1.353e-05
0.0002186
2.658e-08
7.07e-06
6.549e-05
0.0006362
1.509e-05
2.404e-07
0.0001141
5.829e-05
1.036e-05
0.0001791
2.006e-13
0.0001304
0.0002188
2.361e-05
2.198e-07
0.0001407
4.4e-05
0.0005666
8.63e-06
1.3e-05
8.034e-06
5.859e-06
1.907e-08
0.006703
7.041e-05
8.628e-08
3.736e-05
3.707e-06
3.148e-05
2.106e-05
2.016e-06
0.000244
0.0001936
2.661e-07
0.0001874
1.742e-06
4.137e-06
1.599e-09
0.001883
0.0001379
1.279e-07
2.334e-05
0.0001467
6.432e-06
3.394e-06
9.86e-05
6.722e-06
1.3e-05
6.577e-05
2.547e-05
0.0006427
0.0001135
5.875e-06
1.51e-05
7.852e-06
0.002008
2.228e-05
0.0008002
0.0001319
0.0001156
2.411e-07
4.421e-05
5.895e-06
7.773e-07
7.355e-06
0.0008414
1.442e-05
2.947e-05
0.0003123
1.116e-06
6.248e-14
3.384e-05
0.00673
0.006721
1.677e-10
0.001463
0.004419
0.0001274
0.0007885
0.00014
4.298e-17
5.816e-06
0.0001384
2.706e-05
0.0002462
0.0035
8.605e-05
0.0002786
0.00342
3.353e-06
8.269e-05
5.923e-10
1.423e-06
2.682e-05
6.9e-05
0.000146
5.737e-06
0.006698
3.714e-06
7.625e-06
1.954e-06
6.856e-06
1.498e-07
3.691e-05
2.585e-05
0.0001311
5.029e-05
0.000857
0.0002483
1.263e-11
5.023e-05
0.0002368
0.0001379
3.677e-13
0.003882
1.08e-05
2.813e-05
3.091e-05
0.0002386
2.661e-07
1.593e-05
1.962e-12
2.788e-06
1.085e-05
4.387e-10
0.001346
3.857e-06
6.142e-06
2.352e-05
1.743e-05
4.413e-07
6.098e-06
0.0007963
2.958e-07
2.777e-05
8.505e-06
2.487e-05
0.0007093
4.671e-05
0.000535
7.852e-06
2.98e-05
6.089e-05
1.975e-06
3.634e-06
1.851e-05
7.478e-06
0.0006423
0.0002331
1.099e-05
9.296e-06
1.322e-05
5.525e-05
7.178e-06
0.0004557
2.138e-05
0.002881
0.0001382
7.829e-05
0.006702
0.004612
6.832e-14
0.0001089
0.003125
7.605e-06
0.0019
3.39e-05
4.171e-05
0.0002264
5.773e-05
0.002625
6.684e-06
3.67e-06
3.752e-05
0.0002396
1.842e-05
8.321e-06
2.916e-05
9.772e-06
9.204e-05
1.611e-06
3.461e-06
2.719e-05
0.003116
4.652e-05
1.788e-05
7.015e-06
6.987e-06
2.976e-07
0.003605
0.003622
2.364e-06
2.344e-05
6.869e-06
3.608e-05
0.0003479
7.984e-05
3.706e-06
0.0002853
2.344e-05
2.247e-06
1.525e-05
7.481e-05
2.765e-05
3.867e-06
4.419e-06
0.0001207
0.00382
4.022e-05
0.00673
0.006721
2.115e-05
6.783e-06
6.964e-05
0.0001215
8.082e-05
0.0001638
2.679e-05
7.734e-06
1.157e-05
1.11e-06
7.604e-06
4.452e-05
4.982e-05
7.678e-06
1.575e-05
8.131e-06
3.599e-05
0.0001178
1.307e-05
7.35e-05
5.394e-05
1.747e-05
6.652e-06
0.006151
3.881e-06
0.0001776
8.197e-06
8.116e-05
4.664e-06
5.76e-06
0.006698
0.001731
0.0002578
3.122e-05
0.0004134
1.725e-06
0.0003015
7.981e-06
4.498e-06
0.001075
4.797e-05
7.644e-06
2.259e-10
0.0001248
0.0005009
6.132e-05
7.316e-06
8.633e-06
2.193e-05
0.000381
1.763e-07
2.332e-05
1.361e-06
3.532e-05
5.321e-05
0.004832
9.626e-06
1.348e-05
4.812e-07
7.049e-06
3.239e-06
9.848e-06
3.739e-06
7.14e-05
0.000971
1.222e-06
0.006698
2.983e-05
0.0001379
2.459e-05
2.515e-05
0.000198
1.096e-05
0.006705
7.973e-06
8.367e-06
7.753e-06
4.239e-05
0.0001395
1.213e-05
5.245e-05
0.0001128
7.482e-06
2.612e-05
5.5e-06
0.000152
8.575e-07
7.584e-05
0.001852
0.0001324
7.707e-06
2.086e-06
3.476e-05
2.335e-05
0.0001078
0.006681
8.813e-05
0.0001046
8.731e-05
1.011e-05
0.006698
2.199e-05
4.497e-05
0.0003502
0.00279
0.006695
5.684e-06
0.0001787
6.678e-06
0.0002202
2.525e-06
0.002655
3.422e-06
0.0002562
0.0002784
7.959e-05
8.636e-06
2.979e-05
3.061e-05
2.221e-05
0.0002038
7.386e-06
2.426e-05
0.0001835
2.084e-05
1.168e-05
7.397e-06
2.852e-05
5.202e-07
8.211e-06
0.000816
0.000851
1.566e-05
5.803e-05
0.006673
0.000135
4.398e-05
0.0001905
2.45e-05
0.0001833
0.006652
1.702e-06
4.306e-05
3.483e-05
9.634e-06
6.972e-08
3.304e-06
3.562e-05
2.975e-07
6.954e-06
1.012e-05
1.282e-05
0.00639
2.253e-06
0.0005195
3.637e-06
8.023e-06
8.771e-06
5.839e-06
1.344e-15
0.0001345
8.973e-07
0.0004961
9.841e-07
0.004578
6.807e-08
0.0008855
0.0002027
2.993e-05
1.133e-15
8.74e-12
2.339e-12
0.006698
5.53e-05
3.886e-06
0.003527
0.0002029
1.427e-05
0.0001412
7.187e-05
8.028e-05
8.629e-06
0.0001344
1.141e-05
0.000955
0.0002377
1.069e-10
3.804e-06
6.807e-06
1.013e-05
0.00397
4.088e-05
0.0008284
3.341e-05
0.006245
2.132e-06
6.502e-08
1.862e-05
0.006682
1.569e-05
0.0001973
5.328e-06
6.705e-06
1.262e-06
4.314e-05
0.0004808
7.749e-05
1.304e-05
0.006674
2.901e-05
2.596e-05
4.206e-06
4.669e-06
5.252e-05
4.33e-05
3.46e-05
2.182e-05
8.313e-06
0.0001543
9.024e-05
0.002357
1.655e-06
7.645e-05
8.303e-06
9.742e-06
0.000215
0.006703
0.006701
9.697e-06
4.363e-05
1.194e-06
0.00311
0.004588
9.735e-06
1.563e-06
0.0001913
8.375e-06
1.596e-05
3.593e-06
3.964e-05
0.0006682
0.006684
2.437e-05
0.0001036
8.977e-06
0.004698
1.108e-05
1.167e-05
5.957e-05
0.0005006
8.252e-06
0.003023
0.0001353
0.0001675
5.606e-05
0.00511
7.334e-05
2.487e-05
5.515e-09
0.006651
7.004e-06
1.501e-06
0.006695
2.521e-05
0.002625
5.627e-06
1.273e-05
0.006701
3.038e-05
7.995e-06
8.926e-06
3.43e-05
9.811e-06
8.115e-06
8.62e-06
1.244e-06
7.724e-06
3.248e-06
4.745e-06
0.0001164
7.195e-06
2.47e-06
0.005415
2.319e-06
0.005508
8.92e-07
0.0005381
8.751e-06
0.00668
0.002689
0.0001861
5.55e-06
6.548e-05
0.006472
0.006685
3.583e-05
1.263e-05
3.72e-05
3.146e-06
0.0003025
7.262e-06
7.985e-05
8.067e-06
1.129e-05
7.029e-05
1.718e-05
0.006471
2.181e-05
1.072e-05
9.112e-05
2.335e-05
0.002138
0.00459
1.724e-05
3.107e-07
1.281e-05
7.173e-08
0.0005981
0.003209
0.0001121
3.144e-05
0.0001479
2.181e-05
9.398e-05
0.0008233
6.887e-05
3.286e-05
9.691e-06
1.852e-05
2.948e-15
8.65e-06
0.0001792
0.0002025
8.664e-05
4.206e-05
8.335e-06
4.654e-05
0.0002967
1.438e-05
4.553e-05
2.976e-05
0.006683
7.132e-06
1.477e-05
2.789e-06
0.006682
0.006682
5.032e-08
0.00069
6.961e-06
3.278e-05
5.011e-06
4.651e-05
1.178e-05
2.233e-06
6.457e-06
5.212e-07
0.00671
0.006674
4.036e-06
7.713e-06
3.383e-05
3.066e-06
1.631e-07
0.0002455
2.351e-06
9.649e-05
9.493e-05
0.003696
2.692e-06
0.0001969
5.249e-07
2.409e-13
1.177e-05
8.519e-06
0.0001195
0.004876
8.706e-06
6.665e-06
3.778e-07
5.158e-05
1.748e-05
1.129e-05
1.152e-07
7.65e-05
6.675e-06
6.113e-05
6.593e-07
8.287e-06
1.8e-05
6.456e-05
5.605e-05
5.681e-15
1.757e-05
0.0001125
3.273e-06
9.526e-06
8.211e-06
0.006694
9.295e-05
3.768e-05
0.0002014
0.002967
6.484e-08
8.016e-05
8.249e-06
0.003123
3.388e-05
0.0001482
4.187e-05
2.645e-05
0.003783
0.0001468
1.383e-05
3.123e-05
1.777e-05
0.001292
7.733e-06
1.036e-06
0.002275
2.686e-05
4.435e-05
4.037e-05
0.0001355
2.886e-05
1.174e-05
7.987e-06
7.123e-05
0.00664
0.0001701
0.0001001
1.044e-06
7.747e-06
1.912e-05
0.0002006
4.684e-05
0.006659
0.0001217
6.97e-05
9.751e-06
3.694e-11
9.911e-06
2e-05
3.44e-05
0.0002416
4.259e-05
0.006697
1.337e-15
8.405e-05
3.245e-05
9.342e-06
0.0001768
6.694e-05
0.0001059
4.823e-06
0.006683
3.89e-05
7.797e-05
0.003497
9.519e-05
3.641e-06
7.097e-06
1.735e-05
0.006667
7.766e-05
0.0001043
0.006495
0.006662
2.366e-05
5.728e-05
0.0002757
6.592e-05
0.0002035
2.049e-08
5.275e-05
6.134e-06
0.006683
0.0001296
0.0001452
3.528e-06
2.014e-06
5.568e-06
0.002745
0.004182
0.0002233
1.179e-05
0.006683
9.506e-05
2.059e-06
8.594e-06
8.191e-06
0.006202
0.000202
8.452e-06
0.006699
7.695e-06
0.006683
6.293e-06
1.113e-07
4.289e-05
1.392e-05
8.038e-07
0.00201
5.091e-05
1.593e-05
2.126e-06
2.687e-05
8.16e-06
8.496e-08
1.968e-05
5.752e-05
9.775e-06
2.91e-06
0.006701
3.269e-05
4e-07
1.818e-06
4.385e-05
7.435e-06
0.002845
0.0002008
2.35e-05
4.84e-07
5.873e-06
3.27e-06
7e-10
2.953e-06
5.692e-06
6.76e-05
1.464e-05
4.52e-05
2.038e-07
0.0004067
7.29e-06
0.004704
0.005184
8.897e-06
0.0002983
2.302e-05
0.0001609
5.969e-07
0.0001599
0.0004773
1.656e-06
3.074e-06
0.004034
0.0001026
0.0001732
0.0005603
3.925e-05
2.561e-09
0.0001795
3.469e-05
1.269e-06
1.883e-05
5.425e-05
0.006703
8.75e-06
5.253e-07
0.006201
5.57e-05
0.0001104
3.44e-05
0.00667
0.0002317
7.806e-05
3.59e-09
1.561e-05
3.066e-09
0.0001108
9.016e-06
4.38e-06
9.659e-07
2.944e-05
0.005717
2.888e-07
3.996e-06
0.005297
7.847e-06
2.577e-10
5.438e-05
1.584e-05
2.695e-05
8.805e-05
2.273e-07
2.83e-08
8.07e-06
0.0005385
0.006698
3.158e-05
6.431e-06
0.0001367
3.937e-05
8.9e-07
8.089e-08
2.553e-05
2.979e-05
8.072e-08
0.0001314
1.758e-05
0.006694
0.0002084
3.397e-06
1.15e-05
9.198e-05
0.000122
0.006698
0.001222
1.868e-05
3.682e-05
0.0001067
8.026e-06
5.069e-05
0.0002937
1.617e-05
6.618e-06
2.706e-05
2.729e-06
8.012e-06
2.853e-06
3.658e-05
2.786e-05
0.0002011
1.263e-06
8.92e-05
9.827e-07
3.042e-09
0.0001422
0.006693
0.006696
0.000144
0.0002453
8.086e-05
0.006762
6.576e-06
7.943e-05
0.0002028
3.945e-05
1.932e-05
7.695e-05
1.249e-06
0.006705
6.934e-05
0.0002635
1.645e-08
1.698e-06
0.0001206
7.804e-06
3.747e-05
3.007e-05
7.016e-06
1.186e-05
0.0001692
6.618e-06
8.016e-06
0.0001436
5.793e-08
0.006215
6.589e-07
7.155e-07
9.541e-05
2.978e-05
1.521e-06
0.002306
1.599e-06
3.379e-06
0.006421
0.006695
1.065e-05
6.09e-05
1.542e-10
3.785e-05
7.301e-06
1.335e-06
6.712e-05
7.24e-05
0.0001203
0.001453
5.036e-05
0.0003316
8.852e-05
5.172e-05
3.254e-06
0.0001868
0.00588
2.83e-06
0.0001205
0.006693
4.517e-05
0.005935
0.006703
1.711e-05
7.358e-05
4.673e-06
0.006691
7.684e-06
0.006697
3.253e-06
9.493e-05
0.0001037
5.163e-05
5.937e-06
7.808e-06
6.506e-05
1.015e-05
0.002909
0.0008412
1.067e-05
5.132e-06
5.761e-05
6.067e-05
5.558e-07
4.93e-05
9.228e-07
3.653e-05
4.961e-07
2.112e-05
7.891e-06
8.117e-06
3.108e-06
5.377e-05
0.004939
3.748e-05
6.713e-05
8.508e-06
0.001904
4.188e-06
5.027e-05
8.117e-06
5.161e-06
1.519e-05
0.0001337
3.03e-05
1.922e-05
8.119e-06
5.196e-05
2.147e-07
2.583e-05
0.006605
1.339e-05
3.855e-05
0.001972
4.613e-05
2.846e-05
0.006752
4.15e-05
3.817e-05
0.0006053
2.792e-06
2.364e-05
4.164e-05
0.0001011
0.006743
4.846e-05
7.008e-05
0.005278
3.955e-06
9.284e-05
8.464e-05
7.567e-05
4.771e-05
0.0004443
1.048e-05
6.102e-09
2.316e-06
7.571e-06
0.0001139
2.052e-07
0.001612
8.199e-06
0.006699
0.0001421
4.962e-06
4.524e-05
5.152e-06
9.586e-06
1.243e-05
0.006699
1.306e-10
3.582e-05
1.827e-05
8.785e-06
3.317e-07
2.234e-05
6.339e-05
1.513e-06
7.829e-06
4.286e-05
1.654e-10
0.0002138
4.198e-06
3.471e-06
7.375e-06
4.232e-06
6.624e-05
3.496e-06
6.035e-06
0.0001373
1.295e-05
8.664e-06
7.64e-06
5.701e-05
4.334e-08
0.0003353
2.362e-06
0.0001777
8.196e-06
0.006727
0.006692
1.938e-05
2.315e-07
0.0002154
0.0008853
4.991e-06
2.96e-05
0.006699
1.152e-05
7.515e-06
1.621e-05
5.925e-10
2.419e-05
0.0001583
2.636e-14
9.83e-05
1.036e-06
0.000124
8.006e-06
1.713e-05
7.755e-06
2.004e-06
7.785e-06
3.73e-05
0.0006073
0.0001171
1.409e-05
0.000105
3.458e-05
6.576e-06
0.0002095
3.406e-07
0.0002329
9.259e-05
0.0003309
1.913e-06
1.156e-05
3.562e-05
4.395e-08
3.103e-05
1.498e-05
9.441e-06
0.0001076
0.0001583
0.006697
0.0001085
1.73e-05
1.327e-05
7.986e-06
5.478e-07
1.475e-06
0.006684
6.638e-06
9.041e-06
5.299e-05
2.938e-06
6.136e-06
3.86e-05
4.027e-05
0.001765
3.317e-05
0.000152
1.427e-05
5.707e-05
0.001102
3.363e-05
0.003437
5.444e-06
3.221e-06
0.000195
6.757e-05
3.25e-05
0.006489
0.006682
2.481e-05
0.0002375
5.358e-05
5.382e-05
0.002388
0.002134
1.108e-06
7.959e-05
3.378e-05
1.682e-05
8.386e-06
3.01e-06
2.726e-05
8.282e-06
0.00014
7.578e-05
0.006686
3.273e-06
9.037e-05
7.802e-06
3.049e-06
2.484e-05
2.349e-05
0.0001157
8.268e-06
2.911e-05
5.642e-09
6.886e-05
7.419e-05
0.0002646
2.154e-05
6.73e-05
7.308e-06
3.959e-09
3.941e-05
1.38e-05
0.006685
5.91e-06
7.813e-07
0.006697
6.954e-07
1.121e-05
0.000166
7.873e-06
0.006689
1.997e-05
1.505e-09
0.002246
4.66e-06
5.893e-05
8.083e-06
1.513e-07
4.902e-05
7.598e-05
1.222e-05
1.267e-07
0.0001365
3.803e-05
9.414e-06
4.698e-06
5.799e-07
7.266e-08
2.936e-06
0.0001147
0.006694
5.845e-06
3.857e-05
2.267e-06
3.5e-06
9.994e-05
0.0001319
0.006657
0.0001118
9.838e-05
0.006219
0.0002434
0.006348
9.938e-08
0.0001796
2.508e-07
0.0001226
7.834e-06
5.922e-06
5.287e-05
6.223e-06
6.358e-07
2.137e-06
7.801e-05
0.0001111
9.376e-06
3.62e-05
0.0001706
0.006702
0.0001226
0.0007323
8.752e-05
0.0067
0.0002582
0.006689
6.26e-06
0.0001269
0.006746
0.006046
2.929e-05
5.399e-05
2.261e-05
7.609e-05
0.006785
8.572e-06
6.54e-05
4.454e-05
1.497e-12
2.261e-05
1.677e-11
7.495e-06
1.057e-05
8.389e-06
5.821e-06
0.0001424
7.346e-05
9.398e-07
0.000201
3.271e-05
3.507e-05
2.015e-05
7.073e-06
3.527e-05
0.00669
1.997e-06
6.078e-05
5.31e-08
0.006701
2.86e-06
5.903e-06
8.043e-06
0.0001099
0.006653
0.006652
0.0001276
6.235e-05
0.00023
6.69e-05
8.317e-06
5.204e-05
3.161e-06
0.0003692
9.243e-05
8.475e-08
1.017e-05
0.000138
8.967e-05
6.496e-05
2.626e-05
3.295e-05
4.421e-06
8.332e-06
0.0001427
0.001723
7.167e-05
5.31e-05
6.83e-06
7.753e-06
0.0005302
7.193e-06
0.0002642
7.999e-06
0.0001103
2.023e-05
0.0001625
0.006693
0.0002604
1.747e-05
3.511e-06
5.373e-07
8.29e-05
0.0001071
3.651e-05
8.541e-05
0.006627
1.252e-06
4.225e-05
6.95e-09
2.542e-05
1.517e-08
0.000155
0.006696
2.118e-05
4.792e-06
3.063e-05
6.613e-06
2.047e-05
1.392e-05
8.361e-06
8.31e-06
0.0003492
2.144e-06
0.0001599
5.241e-06
2.019e-05
3.143e-06
0.002745
0.002742
7.768e-06
8.163e-06
4.162e-08
4.912e-06
5.464e-06
2.237e-06
2.523e-06
0.0003093
5.227e-05
0.0002438
0.002136
0.006692
0.0002526
0.006494
9.832e-09
0.006695
2.573e-07
3.596e-05
6.059e-06
6.726e-06
3.006e-06
0.001414
8.816e-08
3.956e-05
9.265e-07
0.0001078
5.044e-06
0.005205
5.212e-05
5.213e-05
0.0001104
1.231e-06
1.043e-05
0.0001534
1.167e-06
7.409e-07
0.0002738
0.006666
1.148e-06
0.001465
0.006767
4.855e-05
1.471e-06
0.006667
1.107e-06
0.006698
1.119e-05
1.005e-05
3.328e-05
1.034e-06
0.006678
0.0001932
2.959e-05
4.885e-05
1.688e-05
3.138e-05
2.934e-05
0.004644
0.006687
1.114e-05
1.467e-10
2.395e-05
7.453e-06
0.0005777
9.661e-07
7.943e-05
4.365e-05
0.002125
1.64e-05
9.836e-05
3.057e-06
0.0004313
6.764e-06
0.0006024
1.402e-05
0.006704
2.221e-06
8.96e-06
0.0001627
4.881e-07
5.489e-07
7.302e-05
0.006691
9.633e-06
2.821e-06
7.609e-05
2.8e-06
7.454e-06
2.658e-05
0.0004756
1.139e-05
1.204e-08
7.833e-06
8.381e-07
5.57e-09
0.001959
3.03e-05
0.006704
1.181e-05
2.07e-06
7.183e-06
0.006697
1.163e-05
0.006694
0.0001687
0.0001042
0.006716
3.007e-05
0.0003435
7.841e-06
2.857e-05
0.0006109
7.626e-06
0.006697
4.969e-07
2.221e-07
6.678e-05
4.94e-05
7.184e-06
0.001087
1.68e-05
0.0001228
4.487e-06
8.767e-06
0.0001804
7.708e-06
3.953e-05
2.47e-05
4.321e-07
0.0002027
1.965e-05
1.162e-05
0.0002183
7.83e-06
0.0001001
6.423e-06
8.158e-06
0.0001971
0.001144
4.286e-06
8.288e-05
1.758e-05
0.0001416
3.156e-06
0.000168
7.173e-06
0.000103
0.006667
6.966e-06
5.465e-06
0.0001965
8.389e-06
0.0004185
1.004e-05
0.006705
2.308e-05
7.144e-06
5.007e-05
5.986e-06
5.488e-06
5.954e-06
0.006696
8.346e-06
5.15e-06
7.956e-06
1.792e-05
0.0003916
7.983e-06
8.011e-06
0.006695
0.000143
9.398e-05
0.001779
6.912e-06
3.119e-05
3.359e-05
4.872e-06
9.743e-05
0.0002773
0.00224
2.871e-05
2.712e-05
0.006607
2.059e-05
6.517e-06
1.7e-06
0.006752
7.882e-05
3.746e-07
4.062e-05
1.502e-05
0.0001275
8.017e-06
1.708e-06
0.002063
0.001182
7.783e-05
0.0008522
3.033e-05
4.641e-06
0.0002488
8.514e-07
3.57e-05
0.0003701
2.405e-05
5.157e-10
9.477e-10
8.065e-05
7.057e-05
5.123e-05
0.0002124
0.0002481
2.854e-05
0.0002422
3.104e-05
3.065e-05
3.842e-05
8.653e-06
9.044e-07
0.0001225
0.000148
0.002985
1.547e-06
0.0001522
0.0001198
5.655e-06
4.532e-05
2.817e-06
7.948e-05
4.081e-05
0.00676
3.73e-07
7.432e-06
2.599e-05
2.994e-05
9.74e-05
3.05e-06
1.084e-06
0.0001016
4.645e-05
4.616e-07
3.604e-05
7.083e-06
4.08e-06
0.00664
1.114e-05
1.443e-06
8.111e-06
0.004697
0.0002284
0.0001731
4.494e-06
3.454e-05
0.0003191
6.397e-06
0.005459
4.41e-06
7.065e-06
0.0001684
0.0003005
0.003753
7.452e-06
9.01e-08
7.319e-06
2.414e-06
2.684e-08
0.0002616
6.923e-06
0.001416
1.372e-06
1.588e-05
0.0002289
7.411e-05
3.903e-05
1.174e-05
0.0002183
7.953e-06
0.002567
3.388e-06
2.665e-08
6.573e-07
0.000141
2.594e-05
2.913e-05
1.023e-05
0.001044
0.0001103
9.96e-06
8.088e-05
0.003572
8.218e-06
7.95e-06
8.367e-06
9.235e-05
4.03e-05
1.822e-06
1.768e-05
7.465e-07
8.168e-07
2.291e-08
0.0001634
6.034e-06
3.216e-08
6.711e-05
3.115e-06
7.257e-05
2.654e-05
1.192e-05
5.826e-11
1.778e-05
2.376e-05
0.003128
0.0002715
1.415e-06
0.0001386
0.00356
0.006698
8.926e-05
7.562e-06
0.0003158
5.682e-06
9.521e-08
1.281e-06
0.0009382
5.941e-06
0.0002481
0.0001381
7.73e-06
3.512e-05
0.0002163
8.031e-06
7.975e-05
9.835e-05
3.378e-05
0.006698
5.331e-06
0.0001284
8.009e-06
0.0001032
7.612e-06
1.571e-05
4.126e-05
6.023e-06
1.99e-05
3.155e-05
7.9e-06
3.498e-06
8.348e-06
0.000146
0.0001407
0.0001253
2.976e-05
0.000124
2.009e-07
5.833e-05
0.004601
8.18e-05
7.268e-05
8.294e-06
6.233e-06
0.0007155
1.879e-05
4.301e-05
1.471e-05
0.003015
0.0001338
0.0001855
0.0001696
0.0002232
1.152e-05
8.484e-05
9.191e-07
0.0001646
0.0001846
1.914e-05
0.006677
0.0002921
3.9e-05
0.0001205
4.434e-05
0.006689
0.0001257
4.789e-06
5.872e-06
0.006698
0.0006942
0.000278
1.776e-05
9.824e-06
0.0007421
1.057e-05
0.0001817
2.306e-07
3.746e-06
6.276e-05
8.328e-06
2.595e-05
0.0006505
8.164e-06
8.334e-08
3.722e-05
1.102e-07
3.579e-06
3.764e-05
2.967e-06
0.003102
0.006667
1.061e-05
6.958e-05
3.21e-06
0.006698
1.923e-05
4.003e-05
1.106e-08
5.494e-05
6.146e-06
0.006296
0.00645
7.882e-06
5.059e-05
0.0001383
2.224e-06
3.762e-05
4.803e-05
0.0001563
0.006705
6.648e-06
1.636e-06
7.509e-06
0.000176
1.139e-06
0.0001611
2.013e-05
0.006744
3.237e-05
2.301e-06
6.82e-06
5.553e-07
6.554e-05
1.209e-06
1.215e-05
1.637e-05
6.818e-06
4.547e-05
7.658e-05
0.0001288
6.345e-06
6.831e-07
0.004582
0.005175
6.802e-05
0.0001145
4.294e-07
8.192e-06
2.478e-06
3.891e-05
0.00118
0.005106
6.497e-06
0.006702
7.447e-05
4.061e-08
4.593e-06
0.0001099
7.797e-06
0.0001362
5.373e-07
1.999e-06
0.002036
2.628e-05
3.646e-05
7.504e-06
0.000259
1.278e-05
8.358e-05
2.973e-05
3.44e-05
0.00018
2.055e-05
0.0001212
1.522e-07
2.574e-06
7.631e-05
5.372e-05
5.159e-08
0.0001208
1.439e-05
4.823e-05
6.219e-07
6.826e-06
2.407e-05
7.798e-06
0.0001263
3.089e-05
0.001014
0.000308
0.006703
7.671e-06
5.173e-05
6.985e-06
8.372e-05
4.296e-05
9.822e-06
3.05e-09
1.849e-06
3.294e-05
8.337e-06
2.446e-06
1.595e-05
0.0006421
0.0002521
1.064e-05
3.992e-06
0.0001097
0.0001603
0.000582
7.348e-05
0.00381
1.023e-05
9.998e-08
7.126e-05
9.108e-06
0.0002754
6.205e-05
2.06e-05
0.006727
1.341e-05
0.000108
0.0003198
1.089e-06
0.0001723
3.403e-05
0.0001092
2.949e-05
6.797e-06
1.461e-05
4.481e-06
1.577e-05
5.796e-06
0.006716
0.0001808
1.258e-05
2.294e-06
4.224e-07
1.097e-05
2.981e-05
2.291e-05
0.003042
3.1e-06
2.91e-06
6.947e-06
5.774e-06
8.019e-06
1.699e-05
6.83e-06
2.06e-06
5.53e-06
2.261e-05
1.008e-06
2.52e-07
5.385e-05
5.376e-05
1.581e-07
0.001688
4.794e-05
0.002398
0.0067
5.872e-06
0.001912
2.354e-05
1.055e-05
3.42e-05
1.067e-05
7.96e-06
1.735e-05
0.0001125
2.83e-06
9.383e-05
0.0002927
2.566e-10
8.275e-05
0.0001365
0.0003478
1.19e-08
3.466e-05
5.752e-07
4.248e-07
0.003129
2.471e-05
6.067e-06
8.415e-05
4.91e-05
1.301e-06
2.919e-06
1.185e-05
0.0001191
8.373e-05
0.0001145
3.307e-05
0.006701
4.524e-05
5.018e-05
2.339e-05
1.458e-05
7.381e-06
1.771e-07
0.0001091
0.003406
3.77e-05
0.0001029
6.434e-05
9.57e-06
5.105e-05
9.653e-07
8.346e-06
1.645e-07
6.823e-06
8.78e-05
6.498e-06
1.236e-05
0.0001327
8.199e-05
1.782e-05
4.617e-09
3.905e-05
8.004e-06
8.211e-06
0.006562
4.419e-06
4.237e-05
0.0002615
8.731e-05
7.751e-06
2.709e-05
4.245e-06
3.601e-05
3.291e-05
1.104e-07
0.006353
1.919e-07
3.679e-05
7.173e-05
2.251e-05
4.002e-07
0.004841
5.254e-05
6.55e-05
2.874e-05
4.213e-07
1.948e-05
3.056e-05
2.934e-06
0.0001498
8.327e-06
0.006762
0.006749
6.764e-06
1.806e-05
2.012e-05
1.879e-05
7.467e-06
0.006688
1.692e-05
4.402e-06
1.158e-05
0.002294
0.002871
9.359e-06
2.571e-05
6.385e-06
2.991e-07
2.921e-07
0.006126
3.676e-06
4.75e-08
9.033e-05
7.17e-06
4.211e-06
0.00189
9.339e-05
1.027e-05
6.091e-05
0.0002102
0.006655
0.006616
0.006639
0.00637
0.0006217
0.0001835
2.402e-05
1.93e-06
5.302e-05
5.357e-05
5.646e-05
1.981e-05
0.006099
5.746e-05
0.0001682
4.416e-06
2.517e-05
2.504e-06
5.632e-05
8.63e-06
8.214e-06
1.152e-05
6.813e-06
0.0003331
8.053e-06
4.22e-10
1.626e-06
5.177e-06
2.781e-06
6.793e-06
0.005327
9.708e-09
0.0001102
1.04e-06
4.689e-05
0.0001102
3.667e-09
0.006696
0.000159
3.105e-05
0.005097
3.65e-05
0.0001462
2.853e-05
0.0001093
4.593e-07
4.628e-05
3.008e-05
0.006633
5.799e-06
1.035e-05
9.036e-05
0.0001633
1.016e-05
0.006718
0.003007
2.378e-05
2.094e-05
2.495e-05
0.000396
4.621e-05
2.721e-05
0.0001023
1.616e-06
8.224e-06
3.383e-05
0.0002024
0.0001998
0.0001455
0.0001806
1.291e-08
1.912e-06
0.004675
1.695e-08
0.00441
0.006541
3.984e-05
0.001415
1.145e-06
0.0001281
1.907e-06
0.0001812
5.621e-06
0.006697
0.000364
2.699e-05
7.187e-06
0.0002298
0.003499
5.631e-05
1.106e-08
1.687e-05
0.006703
1.334e-05
1.494e-05
6.118e-10
0.001942
3.378e-05
1.575e-05
0.0001029
0.0004201
4.234e-05
4.851e-06
2.827e-08
4.993e-06
8.017e-06
4.554e-12
0.004879
6.895e-06
2.185e-05
6.913e-06
0.006696
7.512e-06
3.177e-08
8.221e-09
3.73e-07
0.0001765
1.558e-05
7.552e-08
0.0004085
0.0001335
0.006691
4.897e-05
2.412e-05
2.948e-05
4.092e-05
4.4e-07
5.254e-05
7.805e-05
1.067e-05
0.006706
0.001875
3.499e-06
2.911e-05
5.936e-05
1.043e-06
3.194e-05
0.0001424
0.0001346
1.151e-05
4.461e-05
0.0001387
0.005034
7.606e-06
1.018e-05
6.872e-06
5.695e-05
7.516e-06
3.867e-06
1.147e-06
1.424e-07
4.599e-06
7.288e-11
4.54e-06
0.0002851
1.211e-06
0.0002781
7.975e-06
3.749e-07
0.004478
6.194e-09
0.006705
9.744e-05
4.566e-06
1.791e-06
4.098e-05
4.095e-06
5.116e-05
5.061e-06
0.00665
1.76e-09
8.26e-06
0.002102
0.0001085
0.0001274
1.612e-08
5.492e-06
7.465e-09
3.185e-05
7.53e-07
5.003e-07
2.22e-05
1.79e-05
8.053e-06
1.287e-05
0.006674
0.0001377
8.761e-06
4.961e-05
9.038e-06
0.0002204
0.0001445
7.818e-06
7.3e-06
2.638e-06
7.028e-06
0.00377
7.287e-06
2.749e-05
8.881e-06
9.211e-05
0.002278
6.479e-05
1.028e-05
3.065e-05
3.456e-05
1.309e-07
0.002131
0.00202
6.87e-05
7.073e-06
1.792e-05
0.000211
2.981e-05
0.006498
0.0002121
8.375e-06
0.006339
6.954e-05
5.913e-07
0.0001181
5.942e-05
0.0001943
1.144e-07
7.283e-08
2.406e-06
6.047e-05
6.236e-06
0.0001446
3.905e-05
4.91e-05
2.349e-05
2.923e-06
0.0001771
1.599e-07
7.359e-06
1.123e-06
4.986e-06
4.01e-05
8.347e-09
0.0002001
7.694e-06
1.472e-05
0.002624
8.824e-06
0.000106
0.001231
1.661e-05
8.504e-07
9.838e-05
5.538e-06
1.013e-05
1.631e-08
2.034e-09
0.0002584
7.105e-12
0.0007254
3.971e-05
9.005e-05
0.0001361
2.115e-05
0.006705
5.815e-06
3.075e-07
7.028e-05
4.086e-06
4.367e-05
1.305e-05
6.086e-06
7.102e-05
0.000144
2.678e-05
0.0003211
1.619e-05
3.858e-05
0.005139
0.000134
6.715e-06
0.006701
0.0004813
2.101e-06
0.006698
2.417e-05
5.161e-05
7.121e-06
4.839e-05
6.007e-06
0.001386
5.672e-05
2.916e-05
1.425e-06
1.077e-07
1.122e-06
8.484e-06
0.006688
2.023e-06
0.006717
0.0002811
9.33e-05
5.011e-05
2.839e-06
7.513e-05
8.044e-06
2.747e-05
1.264e-06
2.01e-05
0.0008164
0.0001179
5.899e-05
0.006675
7.502e-05
0.006697
2.66e-06
1.233e-05
4.444e-06
0.0001449
0.006655
3.171e-05
7.392e-06
1.329e-05
6.588e-08
3.134e-05
6.573e-06
0.0003694
3.988e-05
9.423e-05
4.363e-05
3.883e-05
1.13e-05
0.0002024
6.549e-06
0.0001255
3.615e-06
8.32e-06
0.006632
0.006758
0.001369
0.0003055
3.819e-06
6.16e-06
3.818e-05
0.00142
8.223e-06
6.499e-06
7.989e-06
0.006698
4.895e-06
2.513e-05
5.732e-06
0.002338
2.079e-09
1.679e-05
6.379e-06
0.003213
0.0006545
1.322e-06
0.0002449
8.09e-06
1.884e-06
1.751e-06
8.103e-05
4.971e-05
0.006698
4.636e-06
5.41e-05
7.071e-06
0.0001436
1.158e-05
4.191e-05
0.0001855
5.891e-06
4.237e-07
0.006701
4.909e-05
9.581e-06
1.517e-05
4.662e-06
0.006702
2.168e-05
2.052e-05
0.0001118
4.417e-05
2.658e-05
3.731e-06
0.0001587
1.139e-05
2.433e-05
0.0002879
5.313e-05
2.424e-05
0.005166
4.49e-06
2.693e-06
0.0001451
5.884e-05
1.491e-05
1.151e-05
4.563e-05
0.006696
0.0002198
0.0003294
0.003233
7.082e-08
8.692e-05
0.006698
0.0006787
8.067e-06
1.126e-08
0.006699
0.0002176
4.86e-07
7.98e-06
3.899e-05
3.69e-05
4.043e-07
3.534e-05
5.48e-06
8.287e-06
6.469e-09
1.624e-05
0.001197
9.134e-05
1.341e-05
0.0001031
0.006685
0.000395
0.0001031
0.0002586
7.992e-05
7.377e-06
5.3e-08
9.69e-05
4.515e-05
1.026e-08
2.388e-05
3.435e-06
0.0001909
3.555e-05
8.672e-05
7.943e-07
2.081e-07
0.00669
2.834e-05
6.134e-06
0.006698
1.192e-05
0.0001236
8.272e-06
0.0002685
8.085e-06
8.334e-06
7.626e-05
1.689e-05
0.004567
0.001589
0.0001043
5.827e-05
0.006785
2.087e-05
0.0002018
3.749e-07
0.0002594
9.568e-05
3.738e-06
8.281e-06
7.322e-05
6.912e-06
0.006716
6.587e-07
8.588e-06
3.889e-07
8.308e-06
6.123e-05
1.653e-06
1.873e-05
3.532e-05
1.272e-06
3.638e-05
3.04e-06
0.006703
0.006692
0.0001559
3e-05
0.006686
6.775e-09
7.082e-06
1.514e-06
1.616e-05
1.799e-05
6.686e-05
0.005066
7.461e-09
0.0007342
5.522e-06
0.006762
1.117e-05
3.211e-05
0.0002011
7.951e-05
8.082e-06
0.0001415
2.667e-05
0.006662
5.899e-05
3.398e-06
8.909e-07
1.484e-05
0.0003853
0.0001659
2.207e-05
0.006699
1.397e-05
4.078e-05
0.0001587
0.0001887
8.418e-05
3.233e-06
0.005923
0.006718
1.59e-05
4.601e-06
0.0002865
1.785e-07
0.006701
1.92e-06
9.634e-05
6.193e-06
0.006702
7.053e-05
8.434e-06
2.049e-06
1.947e-05
9.618e-05
2.298e-06
0.006725
4.103e-07
0.004785
3.011e-05
5.266e-08
0.0009317
0.0001092
5.374e-05
1.854e-06
1.875e-07
1.558e-05
7.837e-05
0.006662
2.162e-05
9.793e-05
0.006702
3.904e-05
5.069e-06
2.198e-05
0.006783
0.0002014
6.801e-05
9.889e-05
6.479e-06
0.0001103
0.003951
2.039e-06
5.633e-06
1.06e-05
0.0004291
0.006698
0.006445
0.0007069
2.145e-05
7.783e-05
8.183e-06
2.723e-06
3.189e-07
5.88e-06
2.123e-08
8.668e-07
0.00128
2.933e-06
2.733e-05
2.756e-06
0.0001427
6.911e-05
1.448e-05
1.498e-06
2.814e-05
8.464e-08
7.39e-05
0.0003312
8.755e-05
2.666e-06
7.126e-06
1.196e-05
0.0002125
6.446e-05
2.939e-05
1.197e-06
0.004144
7.417e-05
3.51e-05
1.732e-05
4.87e-06
3.117e-05
3.147e-06
1.173e-05
0.006666
3.106e-08
7.183e-05
0.006767
4.625e-06
0.006696
2.936e-05
5.554e-05
0.001452
3.269e-05
7.11e-06
0.006707
2.817e-05
2.947e-05
3.96e-07
0.0006285
1.079e-05
7.361e-06
6.613e-05
0.006692
1.258e-06
0.0002109
0.0005288
1.27e-05
5.934e-05
8.247e-06
4.898e-08
8.658e-06
3.537e-05
1.828e-05
2.064e-05
3.472e-06
0.006703
0.0002617
3.829e-06
8.226e-06
6.33e-05
0.006701
2.27e-08
7.849e-06
1.087e-05
5.595e-05
0.0001204
2.332e-05
0.006671
0.0004505
4.414e-05
9.283e-05
2.561e-05
6.857e-06
7.177e-06
2.853e-05
6.508e-06
6.583e-06
7.077e-05
4.44e-05
6.397e-05
1.192e-05
2.183e-05
3.161e-05
0.006701
2.891e-05
0.0009849
0.0002082
5.95e-05
7.734e-05
3.064e-06
0.0001111
1.354e-08
1.848e-05
1.358e-05
0.002327
0.006695
5.882e-05
1.407e-05
1.14e-06
1.831e-05
0.0001217
7.398e-06
6.361e-07
7.71e-06
2.159e-05
3.096e-05
3.508e-06
7.962e-06
1.137e-05
7.642e-05
8.203e-06
4.869e-05
2.488e-06
2.377e-05
2.99e-05
0.0002196
7.938e-06
0.006694
7.605e-05
0.0006948
0.006692
7.761e-05
8.224e-06
0.0002645
2.328e-12
7.082e-06
2.332e-05
0.006699
8.457e-06
5.46e-05
0.003013
1.471e-05
1.065e-05
6.086e-06
6.165e-05
8.754e-06
0.006698
2.443e-05
0.006724
7.75e-05
4.024e-05
2.494e-06
5.427e-05
3.624e-06
3.644e-12
0.0066
0.006694
1.084e-05
5.68e-06
8.421e-06
0.0001703
6.341e-06
8.192e-06
3.456e-05
0.0002174
0.001255
3.425e-06
1.503e-06
1.426e-05
0.0001753
0.006691
8.145e-06
4.895e-05
7.071e-06
7.77e-06
9.394e-05
0.0006318
2.692e-06
1.561e-05
0.0002751
5.838e-05
3.666e-05
8.146e-05
0.00671
0.006321
7.398e-06
4.956e-07
1.733e-05
3.23e-05
0.000137
0.0002398
8.013e-06
2.231e-05
0.006633
4.946e-06
1.305e-05
5.056e-07
1.533e-05
1.005e-05
0.006685
7.502e-06
6.817e-06
8.054e-06
1.732e-05
7.033e-06
2.171e-05
7.866e-06
5.691e-06
7.962e-06
8.003e-06
9.586e-07
6.907e-05
0.002037
4.313e-05
5.697e-05
4.163e-08
0.0004797
0.0002641
8.515e-06
1.24e-05
0.0002565
2.256e-06
4.824e-05
5.315e-07
9.576e-05
9.491e-07
1.696e-05
6.582e-05
2.745e-05
4.98e-07
0.0002036
3.182e-06
1.986e-08
0.004759
2.13e-06
4.191e-06
7.707e-07
1.435e-05
7.606e-06
5.706e-05
9.416e-05
8.353e-06
3.276e-05
2.909e-05
1.573e-05
0.0001588
0.0001222
0.0002483
0.000144
1.251e-05
0.0001443
6.747e-05
7.989e-07
3.714e-05
2.224e-07
8.24e-06
7.384e-06
0.006657
3.53e-05
7.442e-05
6.821e-06
4.351e-05
6.086e-06
3.883e-05
4.431e-06
0.0001025
1.85e-05
7.474e-05
3.831e-05
8.337e-05
0.0005104
0.0001068
0.0001414
1.722e-05
8.679e-05
5.662e-05
1.774e-05
7.47e-06
0.0001775
4.934e-06
2.008e-05
4.213e-10
2.607e-05
3.901e-05
0.0001155
2.367e-05
9.286e-05
2.348e-06
0.003908
0.002127
0.005239
0.0001966
8.199e-06
2.1e-05
0.0001959
4.773e-06
0.0002417
4.754e-05
2.277e-09
7.272e-06
7.901e-07
6.09e-06
6.982e-05
7.158e-06
5.847e-07
0.000619
3.019e-05
0.006698
9.626e-06
9.721e-05
4.579e-05
5.273e-05
0.006685
0.006676
4.65e-05
7.996e-05
0.0001086
9.105e-07
8.026e-06
0.006679
0.006698
8.946e-06
0.0002103
3.791e-07
4.772e-07
0.005848
3.819e-05
4.841e-05
1.851e-06
2.795e-05
9.978e-07
8.001e-06
0.0002128
1.011e-05