/*--------------------------------*- C++ -*----------------------------------*\
  =========                 |
  \\      /  F ield         | OpenFOAM: The Open Source CFD Toolbox
   \\    /   O peration     | Website:  https://openfoam.org
    \\  /    A nd           | Version:  8
     \\/     M anipulation  |
\*---------------------------------------------------------------------------*/
FoamFile
{
    version     2.0;
    format      ascii;
    class       volScalarField;
    location    "5";
    object      omega;
}
// * * * * * * * * * * * * * * * * * * * * * * * * * * * * * * * * * * * * * //

dimensions      [0 0 -1 0 0 0 0];

internalField   nonuniform List<scalar> 
127143
(
2.183e+06
4.105e+06
4.682e+06
1.997e+06
1.676e+05
2.021e+06
6.622e+04
1.157e+05
1.848e+05
2.697e+04
9.739e+04
1.521e+05
5.509e+06
1.69e+06
122.6
5843
5.655e+05
1.91
12.22
4045
66.86
4484
0.132
149.1
4554
623.6
1787
1966
1251
0.9274
245.6
637.8
4298
469.3
0.05973
4186
61.35
5.657
102.8
717.4
12.19
2.394
1.483
7.844e+05
1.913
460
1191
72.51
129.8
117.4
4931
0.02903
55.91
0.4252
0.02097
247.8
0.02096
0.416
0.02305
0.421
0.9649
18.81
35.36
0.02211
638.9
1.016
0.07398
42.07
41.91
0.06859
177.2
1767
39.62
0.02304
0.0218
1899
0.02468
85.4
244.7
0.02222
1038
3599
300.1
587.7
52.33
83.94
76.34
2425
0.8389
430.3
0.02407
0.6175
240.2
66.99
197.4
0.7879
2.114
316.7
87.3
0.07264
0.02221
121.3
1910
2.344
84.54
89.21
40.89
0.06881
4.146
0.02133
120.1
2452
109
34.41
0.02184
1.374
0.02501
0.0218
0.02448
1.647e+04
0.02134
282.5
13.24
0.228
1058
754
31.83
0.02573
145.9
237.6
122
187.1
19.55
85.22
6.396e+04
121.6
0.06832
38.6
503.2
0.06119
0.217
0.02368
32.57
18.67
53.88
66.57
5972
0.02213
188.3
2679
4.647
107.9
4.539
0.118
42.7
53.47
0.4157
269.3
72.58
424.4
157.7
5338
0.02415
121.8
548.4
601.1
53.78
1.582
1702
0.03044
95.04
18.66
1.794
7.577
0.2043
32.36
58.73
145.4
124.3
0.03705
7.564
0.03873
30.01
32.31
239.2
17.89
0.1964
36.6
136.6
0.03676
90.13
193.6
0.06144
133.9
1.172e+05
26.44
0.01956
0.0195
1.63e+04
0.02208
0.02184
0.03046
0.2136
61.57
6.339e+05
59.18
0.06445
6.817
0.7663
0.02183
0.2417
42.79
0.02187
1710
128.6
1.432e+04
294.4
7.095
145.9
0.06479
47.64
0.02185
107.8
45.86
412.5
140.4
423
5.467
99.94
59.01
75.25
0.03839
34.55
1.136e+04
74.93
0.1156
122.3
2.561e+05
0.02184
66.48
182.6
575.4
39.99
266.1
14.5
1.319e+04
64.24
1724
9734
0.08239
12.62
607.8
8.667
37.21
170.5
4.216
0.02564
1218
3.741
0.09365
24.36
0.03111
0.5804
0.0235
37.01
591.5
102
55.61
2.03
5.014
453.5
0.2025
70.01
67.15
22.1
83.98
108.3
93.04
0.3409
3.855
0.04689
2.338
2.307
0.02179
0.02181
1.084e+05
149.4
0.02186
104.7
0.03862
4.292
0.4114
0.1153
2.439
0.02227
7.102
215.7
45.45
40.21
4.37
323.7
0.8253
0.7138
1.262
488
26.76
6.783
0.0219
4.217
9.626
45.28
101.3
307.8
0.03795
0.02182
247.7
9.103
316.5
0.3257
0.6809
0.123
189.9
0.03363
8.688
258.3
15.07
0.03926
108.9
203.7
49.67
41.52
0.02181
0.05852
0.01957
0.01951
0.1148
4.007
1.792
41.59
154.8
0.05927
7.098
42.19
75.57
28.1
104.4
227.7
140.7
312.3
188.2
272.2
5.583
30.99
83.43
0.03406
249.5
37.19
50.9
0.02469
203.6
64.1
29.75
0.7589
111.1
114.7
0.02193
0.02206
1.024
410.9
0.3801
4.765
0.03385
445.9
125
0.03477
0.1239
196.6
9020
78.16
0.3169
1.204
726
236.3
0.8164
0.02486
1740
0.05082
687.2
27.78
3.344
0.02237
0.4406
110.2
156.7
135.3
235.1
0.4575
198.7
0.03374
0.03057
596.5
0.02185
53.82
29.98
0.05268
6.943
85.45
17.77
0.02222
107.5
11.89
302.5
0.2193
73.38
11.5
195.9
105.5
466.3
5.589
44.25
53.87
490.3
134
0.06351
59.76
0.114
1.241
0.1349
532.7
0.07958
0.02116
130.9
31.12
0.3828
26.75
0.02192
8.07
287.6
0.02858
0.02223
0.02173
101.6
0.06938
4.817
0.02656
313.7
0.0219
49.88
1.042
42.75
78.81
205.7
5.888
460.9
0.05081
62.52
358.1
447
62.05
3.923
15.96
66.93
7.116
14.17
77.36
0.1598
0.02269
52.9
239.5
0.0208
69.76
0.6053
0.2279
8.656
0.0548
0.02029
46.27
0.5592
118.6
26.85
887.1
48.13
361
310.3
9.771
26.69
18.72
0.02172
339.5
0.02379
159.4
67.68
64.94
68.37
1.981e+05
120.2
11.53
0.1302
21.16
0.02177
856
0.02276
37.25
23.99
2.882e+05
1.481e+04
4.682e+04
0.02194
247.2
107.6
0.02182
52.25
16.72
89.98
2.599
79.72
207.5
69.82
787.5
0.1376
35.94
9879
60.01
314.7
81.78
0.0228
4.262
0.1807
6.04
0.0243
361.4
3356
122.2
0.01972
52.85
0.1322
124.7
11.62
2577
4.599
0.02402
82.33
7.7
0.02082
0.8206
4.559
185.5
110.5
244.7
119
27.17
9.849
30.83
77.86
130.6
0.02251
596.2
128.7
320.6
22.31
48.49
0.02213
0.02207
0.08608
227.3
30.3
0.02185
0.02708
5.438
122.5
82.86
9.752
127.6
463.8
2.04
0.02387
0.02134
125.5
90.43
19.63
0.03012
1732
16.24
161.3
0.314
450.4
0.02186
85.6
29.07
3.098
0.02379
92.09
24.4
2131
0.02028
38
293
0.02172
6.93
0.02188
72.34
18.76
0.02179
290.8
178.3
88.01
158.5
25.75
273.1
236.9
39.67
93.24
198.4
106.6
32.02
52.55
404.1
0.02607
250
0.02179
23.98
0.02618
31.53
0.02117
0.02186
0.5122
44.04
105.3
0.02136
0.02117
90.02
2529
268
292
54.66
4.746
77.13
12.49
73.88
139
750.9
0.02138
332.9
67.75
0.7084
2.015
0.02452
0.02704
13.09
412.5
18.73
1096
0.02606
0.03398
99.32
344.3
0.03003
586
0.1921
0.1575
153.5
3.524
61.85
0.1787
4.946e+05
127.7
62.1
62.63
149
236.7
416.9
359
0.02763
126.2
41.36
53.56
0.02123
88.52
0.7039
0.5863
0.01971
0.0212
501.9
0.1305
219.3
197.5
30.32
4.218
1.584
352.2
0.1644
148.3
0.0217
0.0209
16.71
0.1198
392
0.4976
398.1
51.34
85.89
0.2023
0.7081
0.03043
312.2
0.05507
180.8
6.95e+04
15.08
32.2
74.58
0.02475
30.11
114.1
818.1
3.704
12.44
73.76
2324
105.8
40.13
16.65
122.4
37.76
9.572
31.37
0.454
1.067e+06
0.6917
0.03001
41.04
17.89
67.23
0.02156
32
5.242
82.51
0.03618
1047
132.5
440.3
0.03659
366.6
36.27
304.8
214.8
0.03123
81.86
73.98
219.2
39.94
0.02218
42.2
79.56
0.02227
6.973
1.171
222.4
119.6
0.7014
15.14
534.2
97.07
0.01935
81.84
28.84
646.8
299.6
0.4681
51.33
115.4
0.01942
90.13
152
26.33
7976
25.77
117.9
88.06
39.04
2.341
0.02193
7.981e+05
126.2
148.1
211.3
66.55
59.69
92.33
139.9
0.02132
5.054
2.335
0.03187
104.3
159.1
41.72
13.09
0.02049
74.26
32.35
0.02171
0.02044
2.019
21.31
54.74
72.99
83.9
3659
3.439
0.3856
0.02124
96.27
55.55
214.3
403.8
1.273
0.04792
0.02261
3.298
1843
0.02126
0.1868
150.7
28.53
581.5
0.023
34.43
31.29
0.02182
308.2
0.02121
25.74
1516
314.6
17.12
927.3
0.02343
233.5
0.2002
361.8
52.08
428.3
3142
0.4628
0.8348
2.794
1414
0.02181
2.748
198.6
729.2
42.09
929.7
0.04622
0.1743
128
607.9
1832
136.4
1.985e+04
425.3
3653
193.7
176.9
4.241
1575
0.02458
53.94
0.02539
0.02337
41.31
0.02924
145.9
20.17
32.21
0.8759
0.0454
336.6
43.02
0.02236
1.892
67.82
0.0433
286.9
2163
28.3
5.739
125
11.33
80.18
0.02174
64.93
182.1
0.02443
250
123.4
15.14
0.0207
1.725
1.321
7127
4.79
2186
68.31
13.87
33.07
325.5
413.7
0.02161
458.1
1.216
0.0231
5.154
7267
1.756
716.2
6.069
1.705
548
3333
145.5
0.02377
0.02184
6.126
9.14
77.8
269
71.69
609
190.2
0.1302
596.6
0.06529
1154
0.02162
74.09
127.2
31.25
165.3
91.83
0.02179
0.02239
160.4
0.2971
67.3
132.5
100.7
64.27
14.23
175.4
291.7
1086
48.6
276.9
175.6
6.305
62.68
136.3
56.8
205.5
3003
93.57
0.02156
0.02143
74.85
57.31
0.8365
0.02096
14.15
76.93
0.5582
76.9
11.5
132.9
13.11
0.02223
0.4626
0.5928
1279
470.8
32.99
0.6643
2.419
434.3
141.1
15.38
38.3
16.95
72.75
53.54
778.3
0.02447
703.4
338.4
27.49
143.7
136.6
0.02191
656.1
1005
0.02094
0.02156
80.14
93.81
9376
44.65
52.04
116.6
99.53
0.5055
0.5352
0.0253
112.9
44.67
90.6
2.119
158.5
74.05
0.0239
847.5
42.49
0.02172
354.5
0.02265
0.0217
10.42
0.1441
2281
0.02158
303.3
0.02182
184.6
0.1172
1.874
3.442
248.3
183.8
154.2
20.32
0.05103
0.04172
29.68
99.17
67.36
108.2
1028
115.8
1005
170.5
151.7
667.5
181
597.9
0.3212
3.562
0.03147
330.6
37.61
396.5
0.05244
53.04
39.61
43.59
34.37
96.05
0.8176
370.5
12.89
43.68
48.15
280.7
53
0.02075
12.91
332.3
0.02293
257.9
555.6
0.02084
1.949
44.64
0.04038
0.3488
8.858
81.1
0.25
0.01993
213.8
136.7
0.02181
0.2235
0.03753
79.04
191
4.034
0.04101
87.8
2137
247
137
48.66
1540
0.06166
79.01
0.02178
109.5
12.33
251.3
34.31
82.82
820.3
0.02197
9517
188.4
223.1
28.32
963.7
16.58
3.023
503.9
34.88
0.04164
1.917e+04
55.63
143.1
352.9
89.39
34.94
49.98
260.2
44.31
85.73
18.71
204.8
165.3
1.861
1767
0.1329
50.51
0.1277
253
0.01985
0.02166
11.34
1611
77.69
0.1991
885.1
120.2
0.02181
2603
52
14.2
2196
2.892
65.02
1.927e+05
1.89
415.4
47.99
38.85
902.7
160.5
416.4
9.635
335
0.08915
0.6291
5.014
126.7
4.157
51.64
56.77
459.4
65.17
0.3776
58.69
2.162
1.277
5.188
1682
0.05241
1700
309.3
57.41
86.71
0.02181
37.82
109.7
1.607
180.5
340.4
496.5
0.02136
193.3
92.02
97.88
875.8
61.36
5.037
112.1
0.02245
121.8
69.39
2921
237.4
0.1027
39.82
0.02271
2356
982.4
59.39
0.8282
4.011
0.02081
0.01985
59
34.59
15.33
0.1253
0.04178
0.04514
21.98
112.4
5.84
338.3
129.1
950.8
1.457
431.2
55.99
97.45
0.01988
244.6
43.66
23.3
1132
4.555
12.57
90.45
29.6
72.58
2958
1.094
142.9
59.59
12.96
2.583
113.1
2454
0.2299
72.29
0.0212
145.4
676.2
0.02038
785.8
15.11
67.21
199.9
0.0214
1.676
1.04e+04
0.02192
111.2
151.5
44.92
1028
0.937
2.352
74.59
557.4
91.5
282.1
0.08357
33.52
148.4
3422
164.1
116.2
0.0217
163
5.036
353.9
166.9
28.9
100.3
0.02218
1.501
87.39
0.0244
51.23
0.02129
2224
55.56
1537
59.98
38.64
803.8
94.74
86.58
143.7
4866
142.3
115.7
27.68
65.89
70.22
0.02211
33
0.02305
42.22
0.02201
58.33
0.02148
253.8
65.23
0.02082
0.02173
50.37
0.2295
214.8
0.14
0.02024
9.165
106.9
0.04036
5.062e+04
252.6
5205
87.04
19.19
156
89.59
28.25
0.3231
763.6
34.31
128.6
530.2
114.1
49.8
10.19
0.02156
4827
126.6
665.3
0.02181
1028
40.23
158
48.85
0.01977
0.01975
0.3762
1.063
5.539
26.58
31.39
1.157
2.595
0.6186
2.005
506.7
27.05
3.098
93.06
2.665
605
219.8
33.57
169.7
72.93
0.02245
36.4
35.25
1021
43.4
0.04054
24.49
1.067
73.95
31.03
707.2
0.7604
0.02174
61.52
10.89
1464
482.7
0.8388
125.2
186.2
0.1704
0.01973
496.6
240.9
5399
0.09231
1789
54.3
0.02155
266.6
97.35
21.02
0.254
33.87
90.46
26.61
101.6
43.72
136.7
0.05205
39.69
261
293.6
0.04305
0.04297
193.4
19.6
7383
95.91
337.6
365.2
4853
0.7434
68.06
0.02798
0.02202
0.02152
68.65
0.02187
1353
0.02174
4180
0.5237
17.45
50.86
262.6
0.07318
1720
0.3291
180.1
80.13
897.9
0.02288
237.1
110.6
68.42
237.8
88.17
91.15
531.3
638.8
0.05602
0.02061
575
0.06062
0.02018
0.5063
266.6
0.02061
649.1
0.02185
59.75
25.82
34.27
133.7
0.02099
78
290.7
80.12
0.1123
5.679
0.2942
0.02179
0.02123
79.63
2.084e+04
8.679
43.86
0.02698
585.8
0.5086
0.1144
0.04835
2.646
91.71
244.8
0.02819
38.75
0.02366
90.36
0.02217
0.9393
27.92
28.22
24.13
336.2
167.6
0.02123
26.86
545.1
93.11
951.3
434
7.874
0.0393
4.965
8479
38.69
468.8
614.3
0.05679
0.2694
0.02164
171.4
84.49
76.77
0.02181
84.43
0.02176
0.2611
92.84
0.02155
6.707
0.4682
13.92
37.33
0.3044
166.3
0.0219
150.1
470.1
2.16
12.67
82.91
0.04703
13.68
31
74.25
18.11
37.98
300.7
139
232.5
575.4
0.09875
0.3388
18.94
0.04159
116.7
91.33
0.1687
38.82
0.02688
0.1378
149.1
1.322
12.97
65.7
1077
55
923
0.8618
0.02066
995.5
62.99
0.1298
185.4
0.032
25.06
0.02223
18.51
829.6
41.76
12.28
27.4
69.61
0.02187
30.37
0.752
8.847
1232
0.02834
47.43
517.3
0.02161
0.02893
31.47
0.05756
50.37
2.531
2.02
16.07
0.7657
43.38
0.06062
0.9303
141.4
0.02076
0.2956
1261
845
0.021
67
1113
4.834
527.9
37.17
80.64
822.4
0.04958
0.08998
32.24
0.0285
542.3
14.12
49.84
740
277.5
0.0277
292.4
1.43e+04
4.755e+04
32.52
32.99
250.6
0.729
65.8
5.968
39.18
260.3
55.66
46.03
29.93
635.3
100.4
1.17
0.02185
420.5
1.183
119.6
0.514
0.05865
61.87
32.65
4.745
0.02056
184.6
440.2
8.159
424.2
63.98
1100
129.4
0.03127
232.3
461
65.84
51.1
1469
0.0194
2606
122.3
80.39
0.02564
71.71
57.11
301.5
352
48.8
410.9
0.0257
7.552
95.24
0.0652
60.53
0.02194
208.7
2561
74.29
409.1
5507
61.31
1067
0.07977
332.2
5.949
46.04
0.04864
7.82
16.07
57.84
56.94
0.04761
38.82
3355
5546
59.32
2.751
1.07
1.745
0.02243
0.02956
110.7
0.5187
0.02252
37.66
63.59
134.9
56.69
4.936
70.73
12.48
640.3
955
1283
0.1201
44.23
2619
26.69
234.7
2.666
6.645
33.35
3.382e+04
9.236
7.123
0.0352
0.07029
736
66.01
0.02182
0.02196
46.7
387.3
50.66
49.68
1930
27.52
0.02742
366.7
50.02
60.25
611.9
0.5166
1.623
53.77
149.1
0.8518
191.6
0.02189
94.5
26.27
392.6
0.7714
105.6
560.8
2.115
384.2
10.97
258.7
68.36
160.1
0.1693
46.96
83.17
92.19
369.2
57.78
1370
105.4
0.02183
47.47
2.662
313.3
27.12
0.1831
11.31
0.153
841.4
0.03808
67.47
30.65
41.08
59.8
30.09
0.2399
918
0.2895
0.0279
116.3
0.02092
61.93
0.03973
0.8867
26.96
0.02152
0.3973
107.3
145.3
0.02178
0.02527
55.48
9.667
303.9
0.2452
23.68
37.83
323.6
227.7
1.076
36.59
8.171
0.1021
53
2305
16.68
1941
195.8
19.95
1020
0.02183
0.02062
2.433
2.445
5279
0.02181
11.21
125.7
1.463e+04
150.6
249.3
0.0196
0.01918
182.1
204.3
31.94
40.61
0.04206
2.25
1.173
0.02222
362.9
68.03
37.38
33.23
678.8
0.3091
3.263
0.01995
5.445
64.36
339.9
154.2
163.5
247.4
98.31
105.1
57.14
332.2
191.6
0.09345
58.78
396.9
0.02591
0.02337
100.5
67.23
1057
3.562
94.83
247.5
0.1175
0.02179
9.291
0.02211
93.39
1951
51.86
0.1925
23.28
0.05788
395.7
276.4
0.05551
6.661
5.02
43.7
44.6
17.23
181.5
136.6
95.13
77.9
8.44
44.52
419.8
48.25
152.1
35.12
3921
43.72
107.4
102
15.78
3.974
7.845
1118
0.5285
272.1
0.02342
62.71
0.02214
67.84
17.4
947.6
135.4
0.1333
294.7
3069
432
85.13
30.05
314.6
1542
0.2005
43.69
17.31
1964
126.1
91.08
0.2686
0.4618
0.02183
26.83
2594
2.619
84.66
59.47
0.1411
1075
0.01987
17.44
0.5939
44.91
188.4
0.2449
2.337
24.89
0.05339
38.55
12.28
1015
173.5
112.7
0.02158
59.36
101.3
397.9
809.1
17.75
9.26
145.8
0.02188
122.6
90.96
8.093
16.21
36.89
812
312.2
87.67
69.43
0.722
6.765
508.9
3.555
0.1148
1320
0.05713
0.7087
0.0219
0.02199
66.55
0.02243
132.4
19.3
1.076
29.72
307
882.9
94.78
73.08
125.4
51.41
8480
103.3
120.4
0.6762
3307
27.54
461.4
1180
0.03513
215.3
289.9
2.216
41.42
289.1
228
198.5
88.73
111.6
0.03076
7.161
0.02207
1.1
39.45
52.67
16.38
46.62
1657
51.98
0.02245
350.5
117.6
2.882
22.56
115.3
82.45
255.2
387.9
916.9
78
104.4
82.94
117.5
59.43
0.1126
4137
389.6
38.74
3.486
0.02271
130.5
334.1
65.58
2.15
956.1
376.3
122.1
2.55
117
1966
0.02268
399.5
18.17
0.04942
9.955
184
0.02185
265.4
43.86
5.845
4840
5.992
159.8
3322
93.39
102.4
0.01986
0.0198
96.58
12.48
3.531
678.2
55.79
0.02152
798.1
336.1
63.23
0.02265
0.02247
65.8
3.921
93.58
1.122e+04
206.9
0.02405
243.8
2108
0.1236
249.1
141.3
0.06834
0.9901
209.7
0.8685
37.75
0.01966
0.01944
0.01946
0.01962
0.08523
32.67
7.853
106
3.424
65.14
92.22
884.7
0.0204
193.3
61.81
135.3
621.5
200.8
38.86
29.81
140.5
53.45
67.5
0.113
42.7
6286
69.61
694.4
0.866
27.28
0.02179
3447
125.5
130.1
3.673
0.03772
2836
0.0218
64.1
584.6
0.02855
228
76.64
37.2
38.92
159.5
0.05787
141.4
0.02069
6.19
95.89
76.72
71.85
16.94
0.02167
0.02193
0.3429
60.59
212.4
0.444
50.39
235.7
1.831
236.6
142.1
5.887
45.57
31.33
91.61
0.2177
3359
1.001
0.02179
1176
0.0218
0.02288
0.3727
0.07954
290.8
60.8
402.1
81.28
135.5
0.02188
0.1024
65.23
83.23
63.3
0.03815
0.3786
9997
950
0.02213
1570
943.9
9083
0.05748
5.842
14.3
0.1091
0.02575
4.629
101.3
7320
0.1388
271.7
3.65e+04
0.0218
154.6
764.5
53.79
0.02179
325.6
9016
4768
1123
0.4947
14.9
2417
0.05952
86.74
0.02155
48.68
995.4
7.049
215.2
1088
0.2621
33.73
17.2
0.02225
0.03449
200.7
396.6
3.273
308.3
196.3
1.027
45.13
53.62
73.39
78.31
0.02181
52.38
72.31
84.47
109.8
25.81
190.6
81.41
1433
1956
2.038e+04
217.2
0.05619
153.8
0.02781
344
292.6
0.02181
2.218e+04
0.02221
89.15
1204
548.2
73.41
130.6
92.69
39.24
0.01965
9355
34.74
0.04677
37.76
44.47
1719
852.7
3279
24.84
167.1
935.4
36.21
0.1166
37.12
1566
0.02089
80.67
27.94
35.9
25.22
38.68
22.75
659.6
51.97
48.31
966.4
0.04255
617.4
0.1305
20.84
62.29
0.02685
0.1451
18.34
433.9
388.7
1376
0.04542
0.02224
2.607
95.85
1609
63.93
9.279
0.01932
0.03457
390.4
0.01976
139.6
134.6
0.09039
201.4
37.25
2030
1467
862.6
0.04179
228.4
53.56
271.5
3.991
12.55
1044
66.82
303.3
103.9
486.6
85.3
2.034
1882
33.57
37.44
59.57
0.0409
23.46
0.1884
0.02228
10.65
154.8
126.8
74.77
20.46
2687
4211
49.98
3.112e+04
0.1848
0.3822
0.03798
0.06772
9.793
0.02221
38.61
1231
96.59
414.5
1.491
17.93
35.87
147.8
48.73
533.3
52.29
2420
279.9
0.02438
61.26
38.71
0.02204
0.04346
478.2
0.02186
292.6
211.6
100.7
3.531
614.1
0.07459
0.6797
0.0521
239.1
484.8
146.5
25.53
0.02144
88.11
0.02166
0.3421
113.2
2.898
970.3
166.9
268.4
7.386
2539
1.119
0.1611
85.23
108.6
0.02085
2.568
0.02185
324.5
337.8
118.4
72.4
0.02171
223.4
169.1
161.8
884.8
340.4
207.9
0.02478
1.079
2.002
2.207
377.8
15.51
0.09928
5.29
0.1703
24.2
130.3
0.02072
0.02045
0.02289
0.04304
0.3085
115.4
171.9
0.02214
93.84
12.98
61.55
0.02194
127.8
0.1173
453.3
0.05781
6200
13.64
507.3
0.03486
0.1019
873.3
0.03201
59.95
61.68
75.63
122.5
188.6
0.02183
122.2
97.73
49.88
55.68
79.4
4.125
85.74
26.14
781.2
0.02155
48.9
18.31
1980
0.208
0.02209
479.7
593.1
83.24
61.16
6.638
750.4
0.05438
15.72
53.17
56.13
35.32
4.992
0.02429
10.85
1061
100.6
34.65
1094
3.208
3.749
0.02168
0.03129
0.1454
0.03609
7041
167.2
0.02195
0.02387
40.25
4341
0.02194
76.45
736.7
60.44
3.513
293.2
1036
190.5
45.12
278.7
3122
522.8
0.02233
123.4
17.43
156.1
0.02139
0.3689
91.44
49.43
75.35
3332
682.4
1.39
215.2
3054
8.996
76.58
80.35
1.856
0.9637
421.4
1576
0.02158
383
49.3
0.02194
778.1
61.15
3.952
0.08133
35.59
242.4
115.2
12.42
0.02194
0.02205
1.866
34.88
0.02022
2.465
0.02807
296.3
41.05
60.49
181.6
444.2
1.896
50.45
0.02157
1046
16.11
1155
205.1
0.1162
454.3
5.661
309.4
820.9
10.44
766.9
0.02082
0.02125
95.55
0.07802
0.0214
2006
85.19
90.96
193.7
12.56
115.4
0.0242
1945
0.04498
27.59
0.02044
0.2393
113.9
63.57
133.9
35.73
29.53
114.6
0.02048
134.5
330.9
409.6
1076
0.1495
32.36
7.685
0.02195
98.89
239.5
0.1842
0.05352
33.5
844.4
0.02132
0.02167
10.93
242.7
56.29
1532
0.02206
304.5
128.7
50.65
0.02208
0.09486
332.8
67.17
211.2
78.6
28.35
0.02055
175.5
0.0258
365.8
1369
0.07963
43.02
29.32
183.7
1132
110.9
0.07306
0.02049
112.7
0.2505
0.02168
430.2
89.68
10.06
0.02054
0.0882
0.1187
0.03094
44.42
91.95
0.02181
294.5
28.08
92.65
0.02987
0.02191
0.02169
0.05631
10.21
2.487
237.7
1032
1392
26.23
2982
637.9
0.02566
959.8
152.6
208.6
29.49
0.1935
2.091
267.1
554.2
514.7
94.71
0.06495
95.69
69.25
42.93
8.401
0.2457
52.35
0.2652
94.77
0.02927
107.1
5.724
4.177
0.6161
579.3
1610
890.4
0.02062
4705
110.3
0.02016
109.8
0.02182
147.3
176.2
0.1049
473.5
30.69
0.0223
1.875
7.058
1124
0.02386
0.2628
861.2
2.66
0.02159
586.1
64.31
0.03548
0.2491
3.305
73.6
2686
220.5
173
14.67
59.91
1.84
0.02174
0.05199
59.54
42.63
168.3
0.02207
2322
96.84
17.35
34.95
108.7
165.3
0.02021
0.0657
112.4
164.2
0.05879
49.03
251.9
7.087
4.113
7.084
25.16
0.04976
19.24
15.79
9.833
6.116
0.02205
190.4
0.1314
62.27
3.206
2.234
353.8
145.9
5902
11.53
1.043
0.06929
0.02124
3.063
12.58
626.9
1070
78.12
165.2
270.2
42.48
0.9008
157.1
204.8
731.3
75.16
0.05266
414.2
1.168
399.6
7.101
20.42
35.95
98.03
0.02179
45.19
0.2467
0.02165
0.2837
410
1.078
4.142e+04
233.7
114.6
0.02168
32.63
260
0.03818
59.34
80.25
143
77.93
176.4
0.02188
217.9
0.02075
2.229
318.4
55.79
3.071
212.7
3e+04
0.02197
0.02175
15.58
30.86
364.3
1.005
105.1
265.6
5.858
64.28
0.02224
172.6
505.2
0.1287
78.88
0.02157
23.99
0.07119
50
163
157
0.2936
86.86
15.06
0.02885
103.9
262.8
0.2416
0.02155
0.02394
166.2
1017
10.29
6.698
91.24
8.534
72.52
8.177
0.01939
0.4197
1.262
1639
1606
296.2
0.02135
223.8
56.92
190.3
171.3
1102
3.275
47.39
42.36
28.33
273.2
692.6
0.911
0.05517
8.565
0.0385
3013
0.02385
58.44
205.3
15.08
64
252.5
135.3
495.5
40.74
197.1
13.23
2.662
454.4
1587
68.66
888.4
1550
0.02181
983.3
126.3
386.7
575.3
44.35
1.493
71.14
36.08
5.799
0.05114
28.83
69.56
31.94
40.05
91.37
1.114
1.233
0.7359
1016
115.7
1433
42.26
228.2
0.02028
380
161.4
487
31.57
970.6
325.1
126
0.1087
899
0.09574
56.47
105.4
0.07444
0.7113
93.65
10.31
33.43
69.4
9.317
75.19
62.95
1077
8.824
6034
0.04892
5.179
69.76
12.18
0.05891
252.5
0.02183
0.02266
0.02178
59.89
63.46
59.51
0.4595
0.1651
56.85
0.05158
5381
507
968.9
99.29
0.09585
275.3
624.9
0.08359
145.2
0.02187
26.54
21.23
103.4
2.079
0.0213
0.02195
215.2
24.12
0.04666
1039
66.73
0.02097
0.02182
27.77
0.0372
178.9
1043
0.02467
3.372
94.13
253.5
469.9
1087
9.885
0.1881
20.27
125.6
0.3262
348.7
9.063
2.488
243.7
85.57
3.152e+04
0.03211
24.49
244.1
1231
0.02184
79.2
0.02181
13.22
2.756
11.26
44.22
120.9
53.03
0.2443
397
88.74
158.2
281.4
278.3
90.41
1.333
30.29
343.4
54.64
117.3
0.02122
922.5
991.2
420.1
19.49
3.956
435.7
223.4
0.4834
0.1459
7840
57.96
0.04355
0.02878
0.04554
154.9
286.8
2.978
984.2
5.578
0.03299
43.93
26.43
40.94
181.1
5606
627.9
55.15
228.3
62.63
124.1
127.9
59.42
18.96
17.63
433.1
65.03
0.4404
63.55
242.5
0.2033
19.81
1.123
4.591
1073
114.9
0.02204
870.5
9.014
1174
130.3
0.02157
0.1379
269.7
0.03462
81.73
334.5
674.8
16.17
0.02327
0.2599
32.95
64.35
0.09893
153.4
0.02078
225.5
79.66
66.57
41.14
152.5
159.1
136.8
859.9
0.429
38.71
0.02183
1449
0.04831
0.02638
45.94
0.02218
34.27
47.96
1.927e+04
0.02196
71.49
32.55
186
149.8
0.2546
107.9
49.82
130.1
616
101
0.1235
0.02268
80.21
339.8
12.17
47.54
109.4
102.6
3.11
0.02116
34.93
69.78
2230
18.58
95.95
3.915
84.82
0.02151
8.16
978.7
392.5
0.02198
0.2889
129.6
0.01995
33.19
437.1
33.18
0.02195
0.02201
15.52
0.02498
0.02014
0.02174
17.65
242.6
389.4
0.3772
60.19
4.727
0.8081
0.02225
68.29
21.94
0.05059
1.088
384.4
2.063
0.02931
173.6
125.3
10.24
922.6
2457
0.0288
31.3
12.45
159.8
138.2
324.3
0.02194
21.94
1010
2.458
47.37
0.4946
529.7
102.8
75
5.632
1167
0.08688
2914
97.64
0.0292
0.03563
0.02001
74.49
100.1
692.6
402.6
2998
0.1335
0.01941
35.72
46.51
0.1599
0.02222
306.2
23.66
418.3
124.9
95.53
30.62
14.26
9.958
104
0.01988
808.6
164.1
81.63
5.368
0.1052
0.02253
61.53
43.7
130.9
1344
16.94
0.05037
24.91
0.7608
0.1
0.02232
302.4
76.3
395
296.4
94.76
1.037
60.73
61.96
3.191
33.81
0.515
0.1989
0.02192
31.44
1864
1.094
0.9389
3798
0.3365
0.02169
4.72
0.03366
0.02203
47.62
0.0195
0.01945
3.231
0.02012
93.54
1397
187.6
4.83
0.2122
0.02113
0.02197
5.012
87.88
12.94
992.1
49.14
0.02916
49.72
11.39
601.7
0.2679
0.02198
3.558
57.69
0.02203
0.02136
31.91
88.74
0.06733
0.0351
174.4
0.02132
0.3719
0.02191
5604
0.225
109.9
37.13
0.03292
0.1849
10.58
48.16
234.5
41.03
34
27.61
0.02215
972.4
61.01
46.69
0.02191
57.08
75.01
188.1
102.4
0.374
69.27
4.577
0.2206
110.2
0.02205
2.772e+04
5.255
1368
0.02197
89.72
0.02187
0.1093
1.961
226.2
57.95
40.25
2.715
0.08412
1061
0.09767
125
988.8
7.37
0.2117
0.03805
248.3
0.02164
1.734
83.68
6.367
5.405
0.02226
1452
0.03903
41.04
329
22.2
106.4
580.7
54.6
364.4
42.29
1.068
77.83
1.846
0.0218
0.02181
583.7
44.51
388.3
36.64
34.43
0.0218
28.12
0.02181
0.02203
0.03777
475.8
0.1682
4.599
0.02901
92.23
0.3394
160.3
107.2
1813
0.02844
222.8
29.19
37.4
0.2428
45.05
0.02187
39.61
0.2376
58.99
4.889
0.03625
102.2
2142
56.87
510.5
90.07
1840
434.4
2.491
14.32
1252
8.098
2645
149.9
91.2
158.6
66.08
116.3
69.37
208.4
0.03564
59.48
0.05759
147
1253
32.89
79.65
270.6
57.79
66.82
0.03012
97.2
112.2
3605
39.78
0.02347
86.07
31.13
59.03
0.04986
24.1
64.78
101.1
0.7614
460.8
13.99
244.6
87.53
244.5
74.52
45.63
131.8
0.02787
646.2
7.427
0.02615
55.61
63.05
96.32
289.4
357.5
0.02202
73.27
47.51
0.1436
4.001
48.85
3581
315.7
0.02089
0.02225
2.003
71.6
25.35
0.02163
20.53
82.01
170.9
944.6
0.02104
107.5
868
56.57
2753
189.2
221.1
187.5
44.93
7.26
0.02558
98.46
230.2
33.42
127.7
1.008
68.09
0.02211
0.04498
95.65
89.12
91.34
196.5
65.05
0.02223
288.4
199.2
0.3477
112.9
3983
719.2
0.03329
0.2124
0.02787
33.49
288.4
271.5
433.3
43.48
137.1
0.02182
159.6
1.301
35.79
156.6
0.7512
993.5
21.15
708
0.04283
62.96
599.9
0.0218
62.37
55.15
98.61
51.4
0.0219
0.02205
0.03554
119.3
0.02225
27.5
339.8
0.2117
80.09
105.1
0.04857
27.77
60.39
0.186
505.7
69.6
1114
180.9
0.02212
397.3
676.5
0.02172
1080
6.761
14.35
14.04
212.1
44.05
28.88
54.93
40.12
0.02194
42.35
0.02178
0.06859
504.5
55.51
19.37
16.77
1.485
142.5
0.02193
0.01976
0.09339
57.4
66.22
27.49
994.8
1.644
0.1156
463.7
0.7595
40.2
0.02137
118.4
282.8
51.72
61.01
255.1
39.67
101.8
94.94
2.505
0.02512
84.61
68.06
53.54
228.4
1096
243.6
0.0215
62.77
111.3
47.23
4637
0.02185
208
87.86
33.85
64.5
99.07
2862
83.53
65.37
292
3574
5.652
54.61
795
5.876
0.02169
143.1
81.26
93.79
52.03
50.82
11.49
0.0346
127.3
40.62
462.9
9.305
359.7
518.5
0.02176
283.3
56.36
183.9
2.355
0.01945
148.3
94.31
8.916
28.01
0.02136
48.67
46.81
2.781
32.17
39.18
259.8
77.83
206.1
166.4
0.01993
38.83
58.49
115.5
268.5
47.46
16.22
97.57
56.45
15.15
57.9
176.6
942.4
345.2
234.7
5632
11.05
0.1166
1.294e+05
177.9
654.2
0.03178
646.5
1416
119.2
12.27
0.02346
10.46
0.02181
77.34
17.4
2.616
2.359
53.89
367.6
11.82
1.221e+04
58.84
130.5
160.8
2184
270.7
104.7
81.88
0.1644
83.48
53.29
1097
33.62
0.7563
1.012
259.4
0.9101
0.022
0.02178
17.38
19.1
0.05065
0.02019
0.0224
118.4
515.8
528.8
0.02155
0.02547
27.71
0.01974
0.01985
255.1
0.04348
56.37
359.3
0.05991
184.3
3.986
151
9.618
103.6
0.083
30.69
76.21
3.778e+04
93.82
108.1
153.1
560.3
1.864
0.02542
49.69
342.9
0.02179
3.266
135.9
322
954.2
40.31
130.5
386.6
0.02732
47.14
206.5
117.8
38.87
91.32
0.059
14.47
34.97
339.7
61.61
87.32
0.03613
443.5
77.98
0.03209
90.01
0.05638
86.97
0.02995
3024
1114
0.03398
125.2
58.32
0.1932
923.3
195.2
0.02354
674.9
37.09
95.68
587.5
0.04772
0.4212
3832
37.49
113
3.306
91.19
1.73
7.474
77.44
0.04976
1.335
181.6
46.91
91.8
75.21
132.1
2.873
48.89
274.1
95.03
3.065
15.73
0.0218
0.1678
215.7
63.17
0.01946
1.728
15.12
7.35
80.55
32.88
77.89
0.1844
132
39.94
0.09147
32.25
176
0.1707
349.3
0.05703
296.4
38.06
0.4112
0.09135
48.73
309.3
165.6
0.02109
145.2
65.66
56.01
0.06147
0.02246
30.04
136.4
425.3
7.901
30.05
63
126.8
1.889
1.848
1280
7.39
1.406
3532
141.2
36.04
68
0.02204
2.462e+04
0.02281
111.1
49.74
37.49
78.21
37.09
1344
17.27
5.521
0.5254
1.121e+04
279.9
57.58
8343
1066
278.9
48.39
0.1465
0.642
0.418
30.15
0.02187
175.8
1175
0.06178
21.88
2.989
71.79
54
249.4
2313
557.1
100.4
0.01943
0.01914
0.0218
106.8
2378
0.7104
0.0216
0.2548
817.4
4.003
2557
45.16
0.02285
6906
0.01949
1.206
39.91
0.05197
39.76
0.4889
1.054
0.0973
628.8
79.95
26.25
53.12
8176
48.04
407.9
97.46
56.26
0.02213
5291
232.5
498.1
45.95
202.1
33.88
259.6
0.1054
35.22
137.9
49.49
165.1
0.02728
665.2
66.13
483.8
8.564
0.1102
0.1837
0.02225
118.9
103.6
76.04
49.65
27.81
795.3
34.78
41.05
25.48
64.29
0.2257
154
52.3
39.35
2.177
0.077
4.646
0.2095
28.33
1.892
212.1
8.072
230.5
26.55
6.917
143.1
0.4823
721.9
32.7
1.573
0.1289
2039
93.87
81.66
35.52
1173
0.02204
509.5
301.8
31.76
63.7
33.92
27.53
275.5
83.43
114.6
42.27
40.04
2742
0.04502
0.02187
0.02218
52.05
240.8
1.974
1413
444.1
1585
143.3
44.28
716.6
1049
5.76
260.3
421.8
33.18
1094
0.02177
141
278
263.1
0.02157
264.4
15.53
108.2
130.1
70.57
0.02209
0.3455
128.5
683.4
0.02094
128.1
3.119
0.5542
1.76e+04
0.03005
27
52.47
133.9
187.6
0.4732
25.7
6.777
207.4
340.1
282.3
0.01951
57.4
3.777e+04
0.02925
0.02435
465.1
775
179.8
87.31
0.07599
28.57
181.3
17.06
16.19
88.06
0.02005
43.42
8.989
0.2889
0.024
86.83
0.02137
6221
45.55
4.792
11.27
2426
0.02281
388
0.02
0.02216
200.2
0.5763
123.6
16.71
0.06388
163.9
113.2
90.35
7.752
92.3
229
423.9
121.5
288.7
565.2
948.5
131.1
27.1
209
150.8
88.18
0.5734
0.02121
0.0212
1625
34.36
105.1
2442
0.02234
552.6
0.5159
0.02039
59.58
8457
6.446
247.5
3636
0.02206
249.6
136.4
83.45
49.51
27.14
2298
369.7
0.02177
2654
572.3
0.08278
0.02569
215.6
442.6
104.3
288.1
61.06
48.84
0.0218
205.6
0.02125
273.3
283.1
2354
0.01945
0.01916
0.2442
34.68
0.03821
45.75
1.328
36.82
95.72
32.62
113
0.07879
0.03062
1247
2373
35.96
394.8
0.05135
99.73
0.02153
62.91
1871
69.71
232.2
828.2
272
199.5
1.225
33.28
114.7
0.02887
0.02222
0.02185
58.25
92.94
199.2
2846
165.7
0.02758
104.4
150.9
169.9
4129
17.85
84.99
534
20.93
0.07592
1.814
6.4
3.553
0.1023
438.4
59.32
19.55
42.56
279
0.2383
0.01977
993.9
41.79
59.31
90.41
1207
38.5
0.02086
71.53
106.1
92.96
3.536
44.99
70.12
4.793
118.5
1.862
0.0545
87.89
0.05754
0.1162
0.2441
774.1
11.43
514.1
96.57
24.95
138.3
0.03538
274.3
162.7
0.5585
60.31
16.03
3455
0.03899
0.02634
269.6
53.83
82.43
63.88
0.5206
229.2
0.07148
0.02184
8.872
127.9
0.02801
2.111
12.39
0.02176
1058
0.06984
31.87
38.51
16.85
0.7076
301.7
139.4
2.496
0.08526
0.02233
88.83
26.27
78.01
71.95
0.02157
0.0202
0.02179
37.46
96.72
78.91
0.0432
422.2
57.91
276.7
22.98
346.5
0.3864
0.03775
1053
0.02246
166.2
98.59
0.03917
55.56
36.44
67.18
243.7
115.9
67.64
2.959
0.04968
2387
247.6
460.7
0.2519
1.389
0.02189
1337
0.02176
46.02
693.3
0.0231
3.777
10.67
219.2
0.06778
65.14
6350
35.73
0.02169
66.34
174
77.04
68.91
71.48
122.6
1184
12.54
0.02074
0.02525
6816
10.41
213
5.06
24.23
0.02122
0.02193
1.676
3895
666.4
305.3
166.9
0.887
181.2
699.6
25.8
142
0.0219
331.3
6.413
154.4
98.24
80.78
0.02162
365.9
68.61
1107
7630
17.01
7.249
1.111
110.6
0.02314
21.19
2426
108.6
150.7
251.4
1165
44.23
98.45
0.2169
428.4
484.1
1198
72.92
0.03118
769.4
575.7
0.02179
202.4
348.8
110.8
283.1
120.5
12.01
70.86
20.65
0.02771
66.53
0.02211
42.51
0.2246
1767
0.2696
2895
20.27
245.2
39.77
62.5
157.8
9.345
124.7
1063
37.11
49.73
35.96
5.052
76.94
92.26
21.83
0.02777
11.64
8.793
52.02
63.31
101.7
634.7
151.5
0.02853
160.6
1265
78.82
45.38
385.2
0.04611
138.2
0.02171
63.25
3.261e+04
1.98e+04
514.8
91.71
20.16
0.02114
0.04085
89.71
57.45
73.63
3.099
0.02229
57.03
222.3
6.301
89.05
0.02185
446.6
99
3365
5.426
14.32
33.43
244.2
0.03528
418.5
5681
1
8.793
0.413
184.4
2862
4.021
58.77
5.366
123.3
0.02782
73.84
0.01989
941.1
74.46
14.93
98.28
3.4
282.7
73.02
1.878
0.08301
0.02199
0.02173
19.8
70.77
48.09
24.73
33.04
42.55
2801
1.427
98.45
0.3526
0.02212
469.8
0.02238
59.26
370
3.52
82.43
36.78
2748
204.3
68.95
143.7
25.95
130.5
0.1823
989.1
0.02178
4736
869.8
34.03
55
0.02224
81.56
71.82
144.4
1.183
98.39
770
1026
0.02176
54.85
0.02197
0.0218
633.8
0.0297
63.96
8.478
1407
95.77
79.43
55.42
112.6
1.437
77.3
1.773
3.985
9.512
0.02548
57.81
0.07709
1439
63.63
28.97
0.4195
14.29
178.1
787.5
163.2
29.01
7.425
0.4306
135.3
59.35
309.2
97.72
0.6597
68.22
92.15
36.51
34.84
4.565
59.49
7.096
174.1
3173
32.59
0.2148
0.03978
594
29.57
0.02182
353.4
0.4561
1189
189.3
0.01967
84.1
213
224.2
374.2
333.1
32.9
147
0.03971
533.1
276
54.56
147.3
36.21
90.83
0.02237
0.02431
0.02224
135.4
0.2801
0.02197
0.1179
2.108e+04
0.02194
154.4
437.8
1.146
272
195.1
138.6
559
24.18
85.88
88
2.454e+04
0.02174
229.6
9.845
43.51
1.994
5.059
3.456
1.518
679.9
0.0458
0.03004
1.159
1128
1233
287.5
476.6
0.0501
4821
0.02173
67.81
102
62.8
0.02182
0.716
37.88
159.3
206
261.5
2.595
295.7
1876
11.12
32.05
0.0282
4.727
5.888
0.5322
1.253
10.7
186.9
21.52
0.3416
145.9
272.1
0.6718
1.958
139.7
0.02254
0.05501