/*--------------------------------*- C++ -*----------------------------------*\
  =========                 |
  \\      /  F ield         | OpenFOAM: The Open Source CFD Toolbox
   \\    /   O peration     | Website:  https://openfoam.org
    \\  /    A nd           | Version:  8
     \\/     M anipulation  |
\*---------------------------------------------------------------------------*/
FoamFile
{
    version     2.0;
    format      ascii;
    class       volVectorField;
    location    "5";
    object      U;
}
// * * * * * * * * * * * * * * * * * * * * * * * * * * * * * * * * * * * * * //

dimensions      [0 1 -1 0 0 0 0];

internalField   nonuniform List<vector> 
127143
(
(0.005419 -0.0002398 0)
(-0.0001735 -0.0007995 1.03e-23)
(5.089e-05 0.0002503 -1.977e-23)
(6.508e-05 0.0002924 3.214e-27)
(0.062 0.008721 -1.108e-20)
(5.589e-05 0.0002931 -7.106e-27)
(0.3015 0.1797 0)
(0.1297 0.0589 -1.015e-20)
(0.08918 0.04332 4.753e-20)
(0.08646 0.00158 0)
(0.4413 0.6251 1.436e-20)
(0.2086 0.1363 3.04e-20)
(-0.0003927 0.0001471 3.935e-24)
(8.288e-05 0.0003163 0)
(-0.3767 0.6569 2.909e-21)
(0.1187 -0.009506 0)
(-0.0001596 -0.0005088 3.256e-23)
(0.9715 -0.1116 -3.956e-21)
(0.9816 -0.218 0)
(0.1161 -0.004072 0)
(1.27 -0.2938 1.265e-20)
(-0.01706 0.006134 0)
(0.8482 -0.09078 0)
(0.8798 -0.08436 0)
(-0.01701 0.006222 2.373e-22)
(0.677 -0.1098 0)
(0.5381 -0.0132 2.589e-20)
(0.5291 0.006467 -4.113e-22)
(0.3454 -0.1544 0)
(0.9824 -0.08719 5.674e-21)
(0.7546 -0.05139 0)
(0.6549 -0.1051 2.35e-21)
(0.432 0.1073 1.215e-20)
(0.3984 -0.105 -9.413e-21)
(0.7768 0.05103 4.863e-20)
(0.3616 0.0987 -3.722e-23)
(0.162 -0.02754 1.433e-21)
(1.378 -0.2039 -9.634e-21)
(0.9189 -0.08679 5.117e-22)
(0.4521 -0.02727 1.185e-24)
(0.9799 -0.2174 0)
(1.635 0.6843 -2.823e-20)
(1.588 0.6772 2.26e-20)
(-0.0007944 0.0002357 0)
(0.971 -0.1094 3.629e-21)
(0.4093 -0.1077 3.089e-21)
(0.3564 -0.1621 0)
(0.4213 -0.1159 -3.908e-22)
(0.8796 -0.1504 -8.566e-22)
(0.9 -0.07605 2.606e-22)
(0.1374 -0.009642 1.334e-22)
(0.9166 0.005694 1.364e-19)
(1.534 -0.1675 0)
(1.423 -0.03723 -1.917e-20)
(0.9988 -0.002544 6.115e-20)
(0.7706 -0.1941 1.422e-21)
(0.9988 -0.002534 -5.499e-20)
(0.9493 -0.08057 0)
(1.015 -0.01799 -2.825e-20)
(1.425 -0.03267 -3.794e-20)
(0.3032 0.3138 -7.476e-20)
(1.06 -0.2587 -1.387e-21)
(0.9635 -0.07586 -1.146e-21)
(1.001 0.0006437 1.91e-19)
(1.016 -0.0897 0)
(0.677 -0.131 -2.699e-20)
(1.276 0.1063 8.824e-20)
(0.9617 -0.07791 0)
(0.9622 -0.0778 -3.105e-22)
(0.9994 -2.078e-06 0)
(0.8399 -0.06954 0)
(0.5669 0.001415 -1.225e-20)
(0.761 -0.1728 3.355e-21)
(1.015 -0.01783 -1.531e-20)
(1.007 0.003926 -6.32e-23)
(0.5653 0.01164 1.295e-20)
(1.048 0.05018 -1.174e-19)
(0.3725 -0.1006 0)
(0.7789 -0.1969 -2.799e-21)
(1.001 0.001408 0)
(0.3731 -0.1635 -4.157e-24)
(0.1355 -0.00778 -3.995e-23)
(0.5265 -0.1351 3.897e-21)
(0.5293 -0.03749 0)
(0.2764 -0.08681 -5.385e-22)
(0.4026 -0.1108 0)
(0.938 -0.09472 1.197e-21)
(0.6072 0.03821 7.307e-21)
(0.6774 -0.1278 0)
(2.093 1.186 0)
(0.9733 -0.02048 0)
(1.217 -0.1961 0)
(2.045 1.161 0)
(1.274 -0.2934 -1.271e-20)
(1.168 -0.2226 0)
(0.9663 -0.06996 -1.65e-20)
(1.631 0.6679 6.135e-20)
(0.6913 -0.05477 0)
(0.7967 -0.2354 2.665e-21)
(1.274 0.1132 0)
(1.001 0.00136 0)
(0.8811 -0.1508 0)
(1.923 1.757 -4.646e-21)
(0.9342 -0.1028 0)
(0.4225 -0.1171 -1.054e-21)
(0.7696 -0.2298 3.674e-21)
(0.8951 -0.1351 4.68e-21)
(0.9991 1.43e-05 0)
(0.4396 -0.08291 0)
(1.001 -0.001891 8.73e-20)
(-0.3706 0.6415 -9.798e-22)
(0.6301 0.04309 1.46e-20)
(1.265 -0.2799 -9.632e-21)
(0.2804 1.381 0)
(1 0.02373 -5.809e-22)
(0.882 -0.1297 1.256e-21)
(1.023 0.07599 1.887e-20)
(1.007 0.004168 -1.086e-19)
(1.047 0.04866 9.369e-20)
(0.0006988 0.002901 0)
(1.001 -0.002012 -1.222e-19)
(0.4144 -0.1213 -1.334e-21)
(0.572 -0.182 0)
(0.9379 -0.08246 -1.062e-20)
(0.3734 -0.165 1.541e-21)
(0.5846 -0.08137 3.981e-21)
(1.092 -0.293 0)
(1.054 -0.0111 1.722e-19)
(1.628 -0.1244 -2.569e-21)
(0.7176 -0.2031 -2.666e-21)
(0.4697 -0.1277 0)
(0.9477 -0.2313 -4.666e-21)
(0.9551 -0.08736 4.058e-21)
(0.378 -0.1023 0)
(-0.0002422 -0.0007229 1.751e-22)
(0.486 -0.1308 -1.696e-21)
(1.059 -0.08275 0)
(1.292 -0.2751 4.544e-21)
(0.2005 -0.1051 -2.134e-20)
(1.109 -0.07921 1.017e-20)
(0.8056 -0.105 4.982e-20)
(1.006 0.06178 -2.365e-20)
(1.464 -0.1986 8.359e-22)
(1.338 -0.2496 -1.038e-20)
(1.533 -0.1672 -3.907e-21)
(1.984 0.5938 1.499e-20)
(-0.334 1.64 -2.907e-21)
(1.001 0.0005615 -1.734e-19)
(0.929 -0.2259 3.699e-21)
(2.074 1.728 -2.021e-21)
(0.9415 -0.09819 2.378e-21)
(0.8582 -0.1634 0)
(1.386 -0.1922 3.2e-20)
(0.6953 0.00166 0)
(-0.09854 0.2447 0)
(0.2915 -0.08936 0)
(0.9496 -0.08021 2.595e-21)
(0.6121 -0.2089 0)
(0.4303 -0.1188 -7.779e-22)
(0.677 -0.05919 -3.502e-22)
(0.8283 -0.05946 0)
(0.174 -0.085 3.384e-20)
(0.974 -0.0212 2.614e-21)
(0.4717 -0.1252 -3.968e-21)
(0.6825 -0.1782 0)
(1.094 -0.1009 8.782e-21)
(0.1732 -0.06217 -7.589e-22)
(0.4379 -0.02227 4.704e-20)
(2.113 0.4718 -5.838e-21)
(0.9673 0.1353 -2.633e-21)
(0.01825 -0.01185 0)
(1.336 -0.2503 5.109e-21)
(0.8703 -0.1369 3.976e-21)
(0.709 -0.1817 -1.138e-20)
(0.9959 -0.00306 1.376e-20)
(0.07184 -0.02693 -1.238e-23)
(1.967 0.7395 -3.05e-21)
(1.626 -0.1255 -2.568e-21)
(0.9081 -0.09239 0)
(1.011 -0.03104 1.185e-20)
(0.7077 -0.1818 -3.831e-21)
(0.9692 -0.04179 0)
(0.06612 -0.02319 -2.393e-22)
(0.07241 -0.02669 1.26e-23)
(0.7174 -0.2044 5.371e-21)
(1.058 -0.2575 3.043e-21)
(1.364 0.4295 -3.263e-20)
(0.3135 1.399 4.713e-21)
(0.889 -0.08609 1.058e-21)
(1.029 -0.04205 5.216e-20)
(1.524 -0.1879 2.622e-21)
(1.522 -0.1824 -1.036e-20)
(1.059 -0.08205 5.503e-20)
(0.7038 1.923 7.202e-21)
(-0.0002304 -0.0008844 -2.924e-22)
(1.159 -0.2828 0)
(1.006 -3.864e-07 0)
(0.9941 7.69e-08 1.179e-21)
(0.03531 0.001149 0)
(0.9968 0.03608 1.259e-21)
(1.023 0.007012 7.998e-20)
(0.9126 0.09163 1.213e-19)
(0.9995 -0.05328 -3.85e-21)
(0.1747 -0.03066 -7.091e-22)
(0.0001122 0.0005776 -4.294e-24)
(0.9535 -0.06944 -9.771e-22)
(0.8937 -0.06333 2.017e-20)
(0.8729 -0.1425 -1.252e-21)
(0.9857 -0.08743 -2.843e-21)
(1 0.02314 5.165e-22)
(1.1 -0.1589 1.346e-20)
(0.1711 -0.06022 -2.637e-22)
(0.9764 0.0001397 3.543e-20)
(2.138 0.4824 -5.904e-21)
(0.3752 -0.09771 -1.685e-23)
(0.07154 -0.003618 0)
(-0.04161 0.0134 2.626e-22)
(0.8507 -0.1521 6.188e-21)
(0.9642 -0.2347 -7.317e-21)
(0.8956 -0.06316 4.898e-21)
(1.946 0.7338 -6.985e-21)
(1.005 0.009705 6.573e-20)
(0.8592 -0.1636 -9.822e-22)
(1.537 -0.1586 3.861e-21)
(0.6385 -0.05529 0)
(-0.01329 0.001437 0)
(0.7228 -0.1883 -3.147e-21)
(1.379 -0.2017 1.148e-20)
(-0.005314 0.00192 3.863e-22)
(0.9628 -0.2707 4.807e-21)
(1.289 -0.2865 7.354e-21)
(0.9679 -0.0413 4.084e-20)
(0.8096 -0.1823 -6.684e-21)
(0.0009096 0.002825 0)
(1.29 -0.2885 0)
(0.9326 -0.07379 -1.372e-20)
(0.4722 -0.1242 1.964e-21)
(0.01482 -0.002366 -1.788e-22)
(1.023 0.00667 -7.33e-20)
(1.505 -0.1934 1.178e-20)
(1.533 -0.1829 7.596e-21)
(1.347 -0.08667 -1.096e-20)
(0.1213 -0.04787 -7.981e-23)
(0.6158 -0.2091 -9.395e-24)
(1.501 -0.1506 0)
(0.0005948 0.002991 -1.261e-26)
(0.844 -0.162 5.665e-21)
(0.5249 -0.001332 0)
(-0.04062 0.01619 1.891e-21)
(1.002 -0.000301 -2.604e-21)
(1.821 0.4284 -5.148e-20)
(0.6449 -0.07135 -1.922e-21)
(0.7975 -0.1698 0)
(1.322 -0.2678 0)
(0.7989 -0.1894 3.939e-21)
(0.4616 -0.09791 0)
(1.052 -0.01153 -1.354e-19)
(2.249 0.6606 0)
(0.7621 -0.1687 0)
(1.028 0.4584 -1.151e-20)
(1.198 -0.2816 -6.848e-21)
(0.9533 -0.03222 -3.73e-20)
(1.218 -0.1929 7.22e-22)
(1.004 0.06113 1.463e-20)
(1.572 -0.1206 0)
(1.244 -0.08902 -3.72e-21)
(0.2439 -0.08019 2.88e-21)
(-0.1426 0.2598 0)
(0.2963 0.1172 8.731e-20)
(1.523 -0.09046 -1.522e-20)
(0.7559 -0.1408 0)
(0.995 -0.003124 -1.629e-20)
(0.5191 -0.1227 -5.889e-22)
(1.504 -0.1943 -1.089e-20)
(0.9628 -0.07334 -2.01e-21)
(1.522 -0.1869 -1.064e-20)
(1.271 -0.2814 0)
(0.8984 -0.1388 -5.11e-21)
(0.9918 -0.006665 -9.989e-22)
(0.6893 -0.1709 1.123e-20)
(0.9988 -0.00122 3.428e-21)
(0.9655 -0.06957 -3.004e-22)
(0.9343 -0.1024 8.443e-24)
(0.9907 0.01314 0)
(1.012 0.018 3.952e-20)
(-0.0006638 -0.001248 4.2e-23)
(0.6242 -0.1723 0)
(1.002 0.02515 -2.919e-21)
(0.9111 -0.1255 -2.763e-21)
(1.01 -0.03114 1.791e-20)
(1.383 -0.192 -4.87e-20)
(0.8222 -0.1228 0)
(0.9318 -0.07386 1.394e-20)
(0.8477 -0.1463 0)
(0.9744 -0.009929 -3.278e-20)
(0.4114 -0.09345 -1.665e-21)
(0.7942 -0.06675 -7.134e-22)
(0.02178 -0.01965 2.452e-22)
(0.1209 -0.0482 3.112e-22)
(1.52 -0.08892 1.028e-20)
(0.7661 -0.08879 6.408e-22)
(0.7429 -0.1363 -5.001e-21)
(0.581 -0.07663 -3.139e-20)
(0.8815 -0.1292 -1.22e-20)
(0.605 -0.0448 0)
(0.1341 0.01694 -3.498e-24)
(0.8733 -0.1422 -4.147e-22)
(0.9756 0.0003992 0)
(1.126 -0.2559 3.053e-23)
(0.9444 -0.09785 2.599e-21)
(0.9001 -0.1331 5.084e-21)
(0.01896 -0.0138 1.005e-22)
(0.7902 -0.1893 0)
(0.9987 -0.001261 2.417e-21)
(0.9862 0.01798 -3.342e-20)
(2.1 0.785 2.968e-21)
(1.396 -0.2052 4.867e-21)
(0.7505 -0.08296 -1.328e-21)
(1.244 -0.1558 3.582e-20)
(0.9979 -0.0257 1.757e-21)
(0.8479 -0.0892 0)
(0.7967 -0.05987 8.744e-22)
(1.09 -0.02359 3.56e-20)
(0.7984 -0.1698 3.121e-21)
(2.103 0.7835 0)
(1.455 -0.1824 -1.147e-20)
(0.8484 0.0584 8.457e-20)
(0.01958 -0.01353 -1.011e-23)
(0.7894 -0.04551 -2.675e-22)
(1.925 0.8734 2.264e-20)
(1.009 -0.2526 0)
(1.012 0.01764 -3.434e-20)
(0.7827 0.04519 -1.763e-19)
(1.007 1.051e-05 0)
(0.9938 9.128e-06 0)
(0.6982 0.006275 0)
(0.4544 -0.0913 -1.069e-20)
(0.8695 -0.1368 4.017e-21)
(1.006 -0.2523 -1.233e-21)
(0.6337 -0.147 -1.501e-20)
(1.105 -0.07763 -4.492e-20)
(0.8513 -0.152 0)
(1.52 -0.169 3.324e-21)
(1.522 -0.1856 2.98e-21)
(-0.05354 0.777 -7.206e-22)
(0.9104 -0.1245 1.841e-21)
(0.6282 -0.1515 -3.582e-21)
(1.328 -0.2491 3.822e-21)
(0.8008 -0.097 1.141e-21)
(1.673 -0.09748 0)
(0.8101 -0.09323 -8.582e-22)
(1.017 -0.2208 3.527e-21)
(0.07455 -0.03633 9.189e-23)
(1.523 -0.186 9.584e-21)
(0.9436 0.1584 0)
(0.5777 -0.1018 -9.48e-21)
(1.321 -0.2686 -5.791e-21)
(1.957 0.5235 -1.283e-20)
(1.005 -0.01362 1.418e-20)
(0.7767 -0.04449 0)
(0.6324 -0.1491 -1.362e-21)
(0.9633 -0.07579 -3.506e-22)
(1.015 -0.1697 -1.027e-20)
(0.8956 -0.0691 0)
(0.9052 -0.0795 7.814e-22)
(1.004 0.004025 1e-21)
(0.9969 0.03521 -4.458e-21)
(0.9769 -0.01547 0)
(0.6484 -0.1277 3.155e-21)
(0.9908 -0.006542 0)
(0.1282 0.4114 7.557e-20)
(1.089 -0.02603 -7.193e-20)
(0.6995 -0.07912 1.673e-21)
(0.8888 -0.06983 -8.291e-22)
(1.03 -0.0409 0)
(1.215 -0.1022 -7.202e-22)
(0.8397 -0.08342 -7.842e-22)
(0.002104 -0.0004006 2.134e-26)
(0.7874 -0.2197 -5.954e-21)
(0.9942 -0.007509 6.497e-22)
(1.11 -0.2239 -4.9e-20)
(0.6256 -0.08154 -3.855e-21)
(0.8266 -0.1031 0)
(0.7394 -0.1377 -1.872e-20)
(1.022 0.0734 0)
(0.2441 -0.01959 0)
(1.099 0.2665 0)
(0.4713 -0.0298 0)
(1.163 -0.2862 -1.911e-21)
(1.249 -0.2391 -4.322e-20)
(1.017 -0.0151 -8.166e-20)
(0.5576 -0.02351 0)
(-0.006919 0.0003209 -5.121e-24)
(0.7827 -0.194 4.232e-21)
(0.886 -0.08296 -1.514e-21)
(0.7704 -0.05698 -6.711e-22)
(0.5626 -0.02941 -2.536e-20)
(0.7794 -0.05267 0)
(0.9384 0.157 0)
(0.953 -0.03106 0)
(0.5359 -0.04278 2.839e-22)
(1.004 0.009244 -2.459e-20)
(1.304 -0.273 0)
(0.06876 -0.02388 0)
(1.109 0.2647 0)
(0.9307 -0.108 -2.351e-21)
(0.4738 -0.131 -5.025e-21)
(0.9513 -0.09127 -3.125e-21)
(0.9999 0.001524 -2.714e-20)
(0.9197 -0.0943 0)
(0.4208 -0.1307 0)
(0.8028 -0.1138 2.832e-21)
(0.8077 -0.1044 -5.344e-20)
(0.5483 -0.1534 0)
(0.5713 -0.179 0)
(1.194 -0.2255 -4.447e-21)
(0.9131 -0.2582 -6.389e-21)
(0.7284 -0.1389 0)
(1.453 -0.1578 9.104e-21)
(0.5103 -0.1868 -5.186e-21)
(0.1773 -0.06336 0)
(0.05243 -0.01846 -3.28e-21)
(0.3937 -0.09989 0)
(1.003 -0.0002348 9.622e-22)
(0.9468 -0.2655 -5.054e-21)
(1.155 0.4753 2.352e-20)
(1.567 0.6597 9.678e-22)
(0.7781 -0.07512 -3.235e-20)
(1.405 -0.1057 1.372e-20)
(0.8687 -0.06986 -1.713e-20)
(1.005 -0.0005318 0)
(0.3626 -0.09156 0)
(0.07044 -0.03507 0)
(1.085 -0.176 8.035e-20)
(1.665 -0.02224 1.597e-21)
(1.004 0.003883 -3.008e-20)
(0.8993 -0.129 -5.191e-21)
(0.7086 -0.1443 -8.204e-21)
(0.9188 0.005989 -5.043e-20)
(0.9744 -0.009033 0)
(0.9921 0.001359 -1.013e-20)
(0.911 -0.07759 -3.745e-22)
(1.056 -0.08591 -1.803e-20)
(0.4514 -0.09925 2.091e-20)
(0.9784 0.09633 0)
(0.7089 -0.05563 3.851e-23)
(0.9815 0.0202 8.185e-20)
(0.01115 0.06109 0)
(0.9783 -0.0157 8.941e-22)
(0.1717 -0.05913 -3.063e-22)
(1.145 -0.2656 0)
(0.8598 -0.1067 -1.015e-23)
(0.9308 -0.1073 6.806e-21)
(0.6339 -0.09915 2.122e-20)
(0.895 0.264 -2.119e-21)
(0.1607 -0.0318 -2.692e-22)
(0.7659 -0.09186 6.204e-22)
(1.573 -0.08214 0)
(0.2281 -0.05052 0)
(1.44 -0.1518 7.731e-21)
(0.9551 -0.08726 -1.285e-21)
(1.595 -0.1234 6.766e-21)
(1.235 -0.2573 0)
(0.3569 1.286 1.258e-20)
(1.596 -0.1246 -9.438e-24)
(0.9993 -0.002634 0)
(1.027 0.03931 0)
(1.402 -0.2374 0)
(0.433 -0.1062 4.159e-21)
(0.9944 -0.0003518 0)
(0.9481 -0.269 3.237e-21)
(1.255 -0.1822 2.414e-20)
(0.9383 -0.08184 1.587e-20)
(1.394 -0.2043 -1.681e-21)
(0.9052 -0.05561 2.624e-20)
(1.005 -0.0002986 0)
(-0.1648 0.3792 -2.175e-20)
(1.254 -0.1797 -2.831e-20)
(-0.03071 0.01201 -4.515e-22)
(1.508 -0.1626 7.957e-22)
(0.2226 -0.1163 1.554e-21)
(-0.005535 0.08647 -1.654e-20)
(1.172 -0.1658 2.547e-21)
(0.7878 -0.1893 0)
(0.4256 -0.1219 0)
(1.661 -0.02233 -1.71e-21)
(1.494 -0.1635 -6.975e-22)
(1.017 -0.001112 7.994e-20)
(0.72 -0.06378 5.449e-22)
(0.9673 0.05233 4.519e-20)
(2.066 0.789 9.575e-22)
(0.9426 -0.09511 -1.068e-21)
(1.547 -0.1634 0)
(1.983 0.5606 6.766e-21)
(0.0001767 0.0009397 0)
(0.3994 -0.1189 4.343e-21)
(0.183 1.033 -6.589e-22)
(0.9458 -0.06566 1.818e-23)
(1.638 1.2 2.915e-20)
(0.9806 0.004517 -1.66e-19)
(0.2276 -0.1194 0)
(1.029 0.03886 1.404e-22)
(0.09589 -0.04011 0)
(1.159 -0.2813 -8.449e-21)
(-0.0001862 -0.0008048 0)
(-0.002464 -0.008606 -2.251e-22)
(-0.00235 0.0005368 7.844e-23)
(0.999 -0.0002041 -6.954e-20)
(0.5891 -0.1104 0)
(1.798 0.07107 0)
(0.9869 0.01782 6.216e-20)
(0.8199 -0.1999 1.624e-21)
(0.5708 -0.1842 1.929e-20)
(0.3198 -0.08084 2.803e-21)
(0.9071 -0.1213 0)
(1.131 -0.262 0)
(0.8539 -0.1048 9.617e-22)
(0.9533 -0.2723 -3.236e-21)
(0.3341 -0.0647 1.676e-21)
(1.001 -0.002482 0)
(0.1366 -0.04167 5.291e-22)
(-0.01336 0.004778 0)
(0.4961 -0.1868 3.521e-21)
(0.7616 -0.07521 -2.819e-22)
(0.02273 -0.0135 -2.077e-22)
(1.016 -0.01709 -2.521e-20)
(0.9415 -0.09801 2.593e-21)
(1.001 -0.05294 -1.699e-21)
(1.234 -0.2559 1.473e-20)
(0.9936 -0.01571 0)
(0.6744 -0.05379 0)
(2.112 0.9694 0)
(-0.01961 0.004341 -4.265e-22)
(0.9925 6.686e-05 0)
(1.402 -0.2378 -4.603e-21)
(0.9194 -0.08235 1.402e-20)
(0.01564 -0.009783 -6.391e-25)
(0.3832 -0.1101 8.946e-21)
(1.95 0.5636 1.875e-21)
(1.181 -0.2567 -4.184e-21)
(0.9562 0.04548 3.577e-21)
(0.02642 0.001618 -4.03e-22)
(0.5424 -0.1604 -1.11e-20)
(0.9943 -0.0003518 8.95e-21)
(0.7413 -0.1379 2.492e-20)
(1.441 -0.1605 -4.412e-20)
(0.8206 -0.07214 5.561e-22)
(0.9016 -0.06868 -3.993e-22)
(0.4021 -0.09409 -4.415e-21)
(0.07879 -0.02449 5.966e-22)
(1.162 -0.2845 4.294e-21)
(1.582 -0.0672 0)
(0.5287 -0.1877 4.949e-21)
(0.2535 -0.07503 0)
(0.3766 -0.09335 1.063e-22)
(1.028 -0.01185 -1.222e-20)
(0.5052 -0.03099 -7.767e-23)
(0.6742 -0.202 -3.381e-21)
(0.7975 -0.1194 -2.98e-21)
(0.9424 -0.1002 3.707e-21)
(0.1631 -0.05776 6.339e-22)
(1 0.00296 0)
(1 0.003936 2.725e-21)
(1.032 0.4387 1.915e-20)
(0.6159 -0.149 -1.791e-21)
(1.621 1.27 0)
(0.9855 0.02097 -4.293e-20)
(1.004 1.287e-05 -8.25e-22)
(0.5597 -0.1536 0)
(0.4383 -0.1788 0)
(0.4397 -0.1246 1.488e-21)
(0.4235 -0.1219 0)
(0.09463 -0.03501 1.76e-21)
(0.0912 -0.02875 0)
(0.8058 -0.1547 -4.349e-21)
(1.041 0.04524 0)
(0.9974 -0.0009885 1.51e-20)
(-0.02966 0.008487 5.871e-22)
(0.939 -0.2375 -3.267e-21)
(0.7998 -0.1729 8.845e-21)
(1.002 -0.002745 2.701e-20)
(0.5604 0.004346 6.27e-21)
(0.9479 -0.09453 0)
(0.6007 -0.1587 5.154e-21)
(0.9946 -0.007091 3.336e-21)
(0.6989 -0.08882 -1.783e-22)
(0.9849 0.02068 7.997e-20)
(0.5076 -0.1415 -1.023e-21)
(0.07728 -0.02634 0)
(1.214 -0.2454 5.902e-22)
(0.9963 3.101e-05 5.382e-22)
(0.1148 -0.0355 -2.658e-21)
(1.198 -0.2808 -1.737e-21)
(0.2276 -0.1203 -2.36e-20)
(1.005 -0.0002699 -3.482e-21)
(0.8945 -0.1349 -4.887e-21)
(-0.04024 0.01303 -1.233e-22)
(0.9921 0.001095 0)
(0.9305 -0.1081 0)
(0.9948 0.02676 -5.29e-22)
(0.9401 -0.07187 -6.771e-22)
(1.475 -0.1762 0)
(0.9906 0.01264 4.166e-20)
(0.4572 -0.06829 1.203e-20)
(0.8762 -0.1174 -1.203e-21)
(0.01362 -0.01569 0)
(1.448 -0.2132 -1.125e-20)
(1.459 -0.1959 -1.355e-21)
(0.8211 -0.09532 2.583e-21)
(0.8326 -0.1041 1e-21)
(-0.1606 0.556 -1.076e-20)
(0.9253 -0.08842 4.292e-22)
(2.032 1.156 3.242e-21)
(0.8993 -0.05769 3.35e-22)
(0.07221 -0.03451 -3.428e-24)
(1.569 -0.1346 -2.32e-21)
(0.6934 -0.06508 -2.757e-22)
(1.002 -0.002672 0)
(0.8253 -0.1725 -2.466e-21)
(0.9887 0.01544 -1.763e-20)
(-0.03004 0.7936 -5.516e-21)
(1.067 0.006347 7.901e-20)
(1.462 -0.1981 1.279e-20)
(1.005 -0.0006333 0)
(1.001 0.02504 -1.59e-21)
(0.9507 -0.0802 -1.156e-20)
(0.5088 -0.186 2.596e-21)
(1.222 -0.2782 4.837e-21)
(1.003 -0.001379 2.228e-20)
(1 -0.00338 -3.395e-20)
(0.0008389 -0.000539 -3.523e-22)
(0.958 0.1187 0)
(0.5773 -0.1473 4.256e-21)
(0.7403 -0.06545 7.483e-22)
(0.6673 -0.1773 0)
(0.4515 -0.09794 -1.674e-20)
(1.142 -0.2616 -7.217e-22)
(0.4199 -0.132 0)
(1.521 -0.1852 -2.61e-22)
(0.3016 -0.07747 -1.331e-20)
(1.024 -0.07234 0)
(1.003 -0.001458 -3.901e-21)
(1.713 -0.06937 1.051e-20)
(1.512 -0.1889 1.166e-21)
(0.8798 -0.1226 3.359e-21)
(1.394 -0.1584 0)
(0.9782 -0.02207 -1.108e-19)
(1.004 1.003e-05 8.927e-23)
(1.454 -0.1813 -1.102e-20)
(0.2037 -0.1048 -5.229e-24)
(1.493 -0.1638 3.489e-21)
(-0.05654 0.01879 -1.748e-22)
(1.067 0.008102 0)
(1.004 5.995e-05 3.222e-22)
(0.3655 -0.121 0)
(1.486 -0.1268 0)
(0.9167 0.08946 -9.687e-20)
(0.916 -0.1133 -4.99e-21)
(0.8847 -0.09935 0)
(0.9834 -0.04644 -4.561e-20)
(0.1907 -0.05585 4.693e-21)
(0.7848 -0.1651 -2.711e-21)
(1.511 -0.1882 7.215e-21)
(0.6736 -0.02649 -9.509e-20)
(-0.000992 0.0002876 0)
(-0.008635 -0.0003571 0)
(0.2344 -0.05284 -2.256e-22)
(0.1588 -0.03252 4.648e-22)
(0.6289 -0.1734 0)
(1.385 -0.204 6.594e-21)
(0.7352 -0.09515 4.088e-22)
(1.069 -0.1677 0)
(0.92 0.02093 -2.342e-20)
(1.601 -0.1408 1.25e-20)
(0.03956 -0.0179 0)
(1.303 -0.2718 -6.926e-21)
(0.9995 -0.002512 7.847e-20)
(0.8981 -0.1384 3.747e-21)
(0.6577 -0.1117 0)
(0.4156 0.4033 -3.542e-20)
(0.9925 3.499e-05 -4.856e-23)
(0.9995 -0.002587 -1.046e-19)
(-0.008399 -0.007379 0)
(0.9461 -0.06552 4.147e-21)
(0.854 -0.1565 -3.706e-21)
(1.488 -0.1915 -7.2e-22)
(0.2043 -0.05852 0)
(1.128 -0.2561 1.752e-20)
(1.548 0.01522 0)
(0.6794 -0.05834 -3.147e-22)
(0.585 0.2836 6.924e-20)
(0.7603 -0.1965 0)
(1.016 -0.001261 -2.862e-20)
(1.003 -0.001542 0)
(1.856 0.4807 0)
(1.169 0.4725 0)
(0.6966 -0.1375 7.16e-22)
(0.4179 0.3771 0)
(0.4865 -0.1959 7.976e-21)
(0.7908 -0.1924 0)
(0.487 -0.1866 -9.345e-21)
(1.1 -0.1558 8.743e-20)
(1.018 -0.1687 1.485e-20)
(0.9971 5.685e-05 -3.479e-23)
(0.7006 -0.0507 1.789e-22)
(0.9068 -0.05621 3.662e-21)
(0.8199 -0.1855 -2.433e-21)
(-0.0004893 -0.001523 -4.075e-23)
(0.8962 -0.1321 -1.606e-21)
(1.572 -0.1189 -1.457e-20)
(0.8148 -0.2286 6.489e-21)
(0.9965 4.343e-05 -5.152e-22)
(0.9425 -0.1008 -6.521e-23)
(0.902 -0.08204 9.481e-22)
(-0.09083 0.03126 0)
(0.9811 -0.1861 5.014e-22)
(1.273 -0.2608 1.166e-20)
(1.521 -0.1854 -3.915e-21)
(2.053 1.706 0)
(0.9021 -0.2549 6.387e-21)
(0.2574 -0.1059 1.969e-20)
(1.013 -0.2311 -1.079e-21)
(0.7917 -0.1875 1.093e-21)
(0.9435 -0.1009 -1.749e-21)
(0.9441 -0.09787 -1.242e-21)
(1.094 -0.2916 6.588e-21)
(0.8495 -0.1233 1.484e-20)
(0.007806 -0.0004674 0)
(0.6538 -0.112 0)
(0.9648 0.1301 1.541e-20)
(0.8061 -0.1725 -2.503e-21)
(0.4475 -0.1599 1.543e-20)
(0.9427 -0.09816 3.781e-22)
(1.008 -0.003176 0)
(0.05217 -0.02067 1.565e-22)
(1.018 -0.2207 -7.306e-21)
(0.4455 -0.1262 -1.402e-21)
(1.004 4.619e-05 -2.684e-22)
(-0.05697 0.01917 0)
(0.4055 -0.1035 0)
(0.7052 -0.08978 -2.523e-21)
(0.9976 2.919e-05 2.667e-22)
(1.022 -0.1644 6.613e-21)
(0.07177 -0.03096 0)
(0.9288 -0.1754 7.889e-21)
(1.574 -0.1548 -6.385e-21)
(0.9973 1.773e-05 -2.282e-22)
(0.6488 -0.1712 -3.09e-21)
(0.03026 -0.01607 0)
(0.4247 -0.1178 7.011e-21)
(1.335 -0.2657 0)
(0.9961 0.03903 -9.786e-22)
(1.52 -0.1685 3.327e-21)
(-0.2963 0.8765 0)
(1.03 -0.004793 -2.63e-20)
(0.8621 -0.1478 4.648e-21)
(0.8202 -0.1442 0)
(1.409 -0.2016 -7.618e-21)
(0.4014 -0.1191 0)
(0.744 -0.1346 -1.508e-20)
(0.896 -0.1323 0)
(0.641 -0.08031 -4.558e-22)
(0.2568 -0.08272 0)
(0.9933 1.688e-05 -4.975e-22)
(0.6365 -0.1679 2.959e-21)
(1.012 -0.2498 4.65e-22)
(0.5046 -0.04066 0)
(0.8238 -0.1187 -2.146e-21)
(1.415 -0.05472 0)
(0.8332 -0.2033 0)
(0.08379 -0.0251 1.419e-22)
(0.9929 5.221e-05 -1.541e-22)
(0.3323 -0.08463 -2.937e-21)
(0.1915 -0.05372 0)
(1.502 -0.1672 0)
(0.001153 0.002733 4.57e-23)
(1.502 -0.1664 -3.854e-21)
(-0.01811 0.003672 6.805e-22)
(1.387 -0.2615 -1.575e-21)
(0.1251 -0.05065 0)
(0.7956 -0.1586 0)
(0.9991 -0.0002308 3.428e-20)
(-0.0014 0.0005228 2.754e-23)
(0.5803 -0.1547 6.328e-21)
(1.458 -0.2148 9.717e-21)
(-0.0636 0.02215 6.179e-22)
(0.2938 -0.08894 -2.205e-21)
(0.1232 -0.04071 1.503e-21)
(0.2762 -0.07108 -9.47e-22)
(0.8603 -0.07246 0)
(0.9972 -0.0009153 0)
(1.003 -0.2108 0)
(0.9286 -0.1073 -1.071e-23)
(0.9973 3.328e-05 0)
(0.296 -0.09966 -3.697e-21)
(2.064 0.7854 0)
(0.8996 -0.1329 -3.53e-21)
(0.5915 -0.1834 -6.055e-21)
(1.007 -0.000157 -1.442e-20)
(1.159 -0.2668 0)
(0.06869 -0.02762 0)
(1.017 -0.0009204 -9.309e-20)
(1.006 -0.0001748 0)
(1.391 -0.1605 0)
(1.058 -0.26 4.343e-21)
(0.6696 -0.1776 -6.205e-22)
(0.07361 -0.001691 7.418e-22)
(0.4995 -0.1393 2.259e-21)
(0.1415 -0.007945 -1.646e-23)
(0.9208 -0.1136 0)
(0.4995 0.06787 -6.413e-20)
(0.9998 -0.002637 0)
(0.5647 -0.1724 -2.527e-21)
(0.1684 -0.05048 0)
(0.7774 -0.0555 3.694e-22)
(0.6426 -0.05332 0)
(0.4436 -0.01982 -4.684e-20)
(1.003 -0.0008763 0)
(1.016 -0.01653 2.855e-21)
(0.9829 -0.04804 2.478e-20)
(0.5783 0.005658 7.361e-21)
(0.9998 -0.002495 1.375e-20)
(1.086 -0.1461 -3.093e-20)
(0.1269 -0.06041 5.28e-21)
(0.9255 -0.1143 -4.278e-21)
(0.6708 -0.09264 2.689e-21)
(0.9994 -0.00313 0)
(0.1123 -0.04066 4.352e-22)
(0.9315 -0.1101 2.258e-21)
(1.005 0.01192 0)
(0.8073 -0.0977 -1.123e-21)
(0.9953 -0.0004206 0)
(0.3056 -0.1113 2.437e-20)
(-0.473 0.7752 -6.799e-22)
(1.322 -0.1733 -1.54e-22)
(1.534 -0.1293 0)
(0.3963 -0.02496 -1.388e-22)
(0.9726 -0.01826 5.531e-21)
(0.4134 -0.1244 0)
(0.6591 -0.0341 -2.233e-20)
(0.681 -0.05804 0)
(0.0325 -0.01684 2.714e-22)
(0.7466 -0.0982 -6.513e-22)
(1.562 2.166 -7.048e-21)
(1.418 -0.04971 -1.75e-20)
(0.8505 -0.1335 -7.389e-21)
(0.5129 -0.1071 2.693e-23)
(0.3537 -0.066 0)
(1.004 0.01535 0)
(1.316 -0.2135 2.483e-20)
(0.6603 -0.2069 0)
(2.119 0.395 5.615e-22)
(0.03937 -0.01798 -8.454e-23)
(0.5639 -0.09238 0)
(1.003 -0.0008299 0)
(1.025 -0.1057 1.41e-20)
(-0.03028 0.009296 -2.795e-22)
(0.5983 -0.1378 -7.959e-21)
(0.3633 -0.01948 3.338e-20)
(1.875 0.1663 0)
(-0.1886 0.219 -1.727e-21)
(1.979 0.2369 -2.056e-21)
(0.1773 0.0283 2.396e-20)
(0.8549 -0.1905 -3.377e-21)
(-0.05706 0.02058 1.118e-21)
(1.004 -0.2104 3.03e-21)
(0.2868 -0.02197 -5.687e-22)
(1.038 0.05992 -1.55e-20)
(0.9083 -0.1293 0)
(1.005 6.005e-05 0)
(0.9962 3.923e-05 0)
(1.457 -0.2096 5.915e-21)
(1.091 0.02671 3.995e-21)
(1.547 -0.1852 9.917e-21)
(0.9214 -0.1621 6.346e-21)
(0.2521 1.338 0)
(0.9444 -0.09043 9.349e-21)
(1.042 -0.05718 -2.388e-20)
(2.117 0.8349 8.303e-21)
(0.8 -0.1747 4.384e-21)
(1.016 -0.01486 5.725e-20)
(1.031 -0.2091 -1.782e-22)
(0.2325 -0.07731 -4.821e-22)
(1.042 -0.05507 3.476e-20)
(0.5429 -0.1412 -1.051e-20)
(0.005719 -0.001241 -6.649e-21)
(0.06803 -0.02766 0)
(0.8348 -0.1574 0)
(-0.365 0.6038 -3.378e-21)
(1.312 -0.2467 0)
(0.04813 0.003185 0)
(0.9852 0.005534 5.584e-20)
(1.547 -0.1619 5.83e-21)
(0.8195 -0.1861 2.46e-21)
(1.005 -0.01329 0)
(0.4664 -0.1312 5.109e-21)
(0.6494 -0.1802 0)
(1.061 -0.2566 -2.89e-21)
(0.9945 -0.000323 4.51e-21)
(0.9695 -0.02388 2.95e-21)
(1.056 -0.211 0)
(0.09801 -0.006985 -5.21e-23)
(0.6066 -0.1617 -1.413e-20)
(0.009597 -0.002891 0)
(1.05 -0.263 3.726e-21)
(0.429 -0.142 0)
(0.8121 -0.1707 -8.847e-22)
(-0.03257 0.009185 0)
(1.52 -0.1026 2.071e-21)
(0.9959 3.276e-05 6.177e-23)
(0.1797 -0.09625 0)
(1.633 0.3694 -3.266e-20)
(1.005 5.34e-05 0)
(0.4888 -0.1229 4.382e-22)
(-0.007839 0.002426 -3.167e-22)
(1.174 -0.236 -7.636e-21)
(1.9 0.1235 -6.839e-21)
(0.962 -0.06673 -1.992e-21)
(0.8916 -0.1275 -1.756e-21)
(-0.02569 0.008062 -4.024e-24)
(0.1196 -0.01734 2.164e-22)
(0.8865 -0.09318 0)
(1.039 0.04565 -4.031e-20)
(0.9959 0.01043 6.695e-21)
(0.8494 -0.152 0)
(0.3777 -0.09168 -4.739e-21)
(0.195 -0.05879 -3.686e-21)
(0.5796 -0.1482 0)
(0.4388 1.671 1.716e-20)
(0.4641 -0.1917 -4.354e-21)
(0.634 -0.01632 -2.504e-22)
(1.334 0.01462 -4.162e-20)
(0.4692 -0.192 -4.317e-21)
(1.114 -0.08673 5.089e-20)
(0.6824 -0.04779 0)
(1.008 -0.001798 0)
(0.449 -0.1316 2.106e-22)
(0.008758 -0.01352 4.742e-23)
(1.38 -0.2454 -1.434e-20)
(0.457 -0.1274 0)
(0.9145 -0.2377 0)
(0.9913 0.009361 -3.22e-20)
(0.9674 0.0235 2.564e-20)
(-0.05246 0.01877 0)
(0.7775 -0.1113 3.495e-20)
(0.02585 -0.006195 0)
(0.9016 -0.1165 0)
(-0.005614 0.006335 -1.167e-21)
(0.4904 -0.1207 -1.128e-21)
(1.489 -0.1587 -3.145e-21)
(1.767 0.01334 -1.838e-21)
(1.572 -0.1208 -1.079e-20)
(0.3326 -0.05056 1.476e-21)
(1.512 -0.1804 -8.276e-21)
(0.7374 -0.0554 -3.267e-22)
(0.2675 -0.07044 5.641e-21)
(0.9283 -0.1094 5.317e-21)
(0.7066 -0.1752 2.594e-21)
(0.7304 1.912 -8.23e-21)
(0.138 -0.05184 -3.764e-23)
(0.009273 -0.009816 -3.939e-22)
(-0.01754 0.006055 0)
(0.8808 -0.2334 0)
(1.007 -0.003045 0)
(1.005 -0.005544 4.696e-20)
(0.7623 -0.1966 2.543e-21)
(0.1827 -0.0483 0)
(0.8786 -0.1256 -2.159e-20)
(1.006 3.27e-05 0)
(0.3744 -0.116 -1.605e-20)
(1.139 -0.2619 3.583e-21)
(0.9534 -0.07748 8.429e-21)
(0.08729 -0.016 0)
(1.46 -0.1739 -1.958e-20)
(0.2265 -0.07301 -4.393e-21)
(1.725 0.9342 -4.035e-20)
(0.9999 0.001506 -2.422e-20)
(0.855 -0.1222 0)
(0.9546 -0.06632 4.488e-21)
(0.4531 -0.1766 0)
(0.6026 -0.04589 0)
(0.07217 -0.03404 2.483e-23)
(0.5032 -0.01151 3.59e-20)
(1.293 -0.2182 4.785e-20)
(0.6794 -0.1169 0)
(0.8792 -0.08231 2.93e-22)
(0.9595 -0.08024 0)
(0.9262 -0.2166 0)
(0.3847 -0.1315 1.754e-20)
(0.935 -0.1075 -1.687e-21)
(0.1689 -0.05889 0)
(0.4322 -0.1857 -5.698e-21)
(1.009 -0.01784 -2.146e-21)
(0.08217 -0.03344 0)
(-0.01716 0.005695 0)
(1.017 -0.25 0)
(1.479 -0.2129 1.337e-20)
(-0.3839 0.6659 -3.615e-21)
(1.012 0.02601 -5.928e-21)
(0.1877 -0.04971 4.94e-21)
(0.3249 -0.06349 0)
(0.9971 -0.0003889 0)
(0.9968 -0.0001047 -3.054e-20)
(1.554 -0.1637 1.715e-24)
(1.252 -0.2859 1.412e-20)
(-0.0106 0.003743 2.94e-22)
(0.03281 -0.01764 -1.059e-22)
(0.908 -0.129 7.96e-22)
(0.5558 -0.1975 0)
(0.1079 -0.0317 -3.399e-21)
(0.8644 -0.1215 0)
(0.912 -0.107 0)
(0.97 -0.02363 -6.098e-20)
(0.1229 -0.03534 -5.993e-21)
(0.2378 -0.06689 0)
(0.1438 -0.04168 -3.026e-21)
(0.8267 -0.1512 0)
(0.007097 -0.005449 -3.473e-22)
(0.2926 -0.09279 -3.239e-21)
(0.9988 -0.001985 -1.765e-21)
(0.344 -0.04742 0)
(0.05263 -0.02431 -4.724e-22)
(0.9975 -0.0008518 -1.154e-19)
(1.2 -0.172 -3.994e-21)
(0.9974 -0.0004209 -1.24e-20)
(0.9851 0.001124 5.203e-20)
(0.9161 -0.119 -2.041e-21)
(0.8553 -0.09522 0)
(0.319 -0.03087 -4.185e-20)
(0.9954 -0.002359 1.174e-20)
(0.8069 -0.09642 1.303e-22)
(1.007 0.007183 0)
(2.076 0.8337 0)
(0.8697 -0.08752 -2.81e-20)
(1.015 -0.1989 1.781e-21)
(0.9351 -0.1028 3.254e-21)
(0.8368 -0.1619 5.803e-22)
(0.8776 -0.1266 0)
(0.1717 -0.05033 1.086e-20)
(0.9399 -0.1024 -4.035e-21)
(1 -0.006139 1.188e-20)
(0.9645 -0.04517 -7.261e-20)
(1.387 -0.2405 7.257e-21)
(0.8655 -0.1578 -1.639e-21)
(0.09989 -0.02133 -2.013e-22)
(0.1859 -0.05008 0)
(0.3713 -0.02711 -3.223e-24)
(0.1416 -0.03929 -2.154e-21)
(-0.0004272 0.001736 -7.791e-20)
(1.431 -0.2112 1.222e-20)
(0.7375 -0.201 0)
(1.749 0.03562 -1.561e-20)
(0.8571 -0.0907 1.987e-22)
(0.6461 -0.07904 0)
(1.106 0.758 -1.436e-20)
(1.013 -0.2111 0)
(1.003 -0.01393 1.043e-20)
(0.7504 -0.1312 1.45e-20)
(0.05106 -0.0216 -1.806e-22)
(0.7409 -0.125 0)
(0.9977 3.01e-05 3.571e-22)
(0.03598 0.02119 7.583e-20)
(1.177 -0.2973 0)
(0.9526 -0.09217 -1.856e-22)
(0.7279 -0.1897 1.649e-21)
(1.531 -0.1851 -9.804e-22)
(0.9231 -0.1062 5.52e-21)
(0.4972 -0.1171 0)
(1.18 -0.2756 7.894e-21)
(0.9524 -0.0923 -5.598e-22)
(0.04192 -0.0206 -5.625e-24)
(0.7441 -0.1987 -6.07e-21)
(0.03184 -0.01667 -2.954e-22)
(0.9975 -0.0009254 0)
(0.9615 -0.07513 1.393e-21)
(0.816 -0.1598 0)
(0.9717 -0.01501 0)
(0.8762 -0.1877 0)
(1.041 -0.1072 1.706e-21)
(0.9963 -6.745e-06 4.969e-21)
(0.8115 -0.1534 1.054e-20)
(0.04723 -0.01992 0)
(0.946 -0.04387 0)
(1.14 0.7464 5.336e-20)
(1.322 -0.2391 0)
(0.02834 -0.02108 0)
(0.8856 -0.1053 2.243e-20)
(1.007 5.207e-05 -3.215e-22)
(0.7186 -0.1485 -1.583e-22)
(0.3941 -0.101 -2.753e-22)
(1.017 -0.007921 5.097e-20)
(1.2 0.6331 -4.418e-20)
(1.141 0.0759 2.099e-20)
(1.13 -0.269 5.674e-21)
(0.5206 -0.1531 -5.285e-21)
(0.8732 -0.1406 4.83e-21)
(1.045 -0.05298 0)
(0.02624 -0.01325 1.214e-22)
(-0.02299 0.008509 -7.025e-22)
(0.8351 -0.1744 -2.867e-22)
(0.8939 -0.1394 2.348e-21)
(0.9973 -0.272 -1.902e-21)
(0.2801 -0.02482 0)
(0.9971 -8.264e-06 -2.28e-22)
(0.935 -0.0971 -1.351e-21)
(1.01 0.009083 1.101e-21)
(0.5938 -0.1733 0)
(0.3004 -0.0613 -1.524e-20)
(1.17 -0.2127 0)
(0.7291 -0.1898 1.482e-20)
(0.02423 -0.01565 1.788e-22)
(0.4136 -0.0717 0)
(0.9993 0.00627 -6.216e-21)
(-0.02314 0.008265 0)
(0.1287 -0.04315 0)
(0.2925 -0.08506 3.961e-21)
(0.9578 -0.0856 -1.663e-21)
(2.203 0.6511 0)
(1.154 -0.2746 -6.152e-21)
(0.9859 -0.188 8.746e-22)
(0.5878 -0.04588 0)
(0.914 -0.1232 0)
(0.8538 0.1386 -1.003e-19)
(0.04978 -0.001295 -6.294e-22)
(0.1315 -0.03699 5.197e-22)
(0.8597 -0.06449 0)
(0.7835 -0.1622 -3.507e-21)
(0.9041 -0.1339 0)
(0.1145 -0.002664 -6.955e-20)
(0.0271 -0.02005 -1.204e-21)
(-0.03042 0.01463 2.34e-22)
(0.8795 -0.1434 9.758e-22)
(0.2576 -0.0704 0)
(1.54 -0.127 0)
(0.854 -0.1036 -1.524e-21)
(0.8721 -0.08914 6.771e-22)
(1.167 -0.2385 0)
(0.002928 0.001194 0)
(0.9399 -0.07188 -6.521e-21)
(0.8218 -0.1678 -4.973e-21)
(0.9198 -0.0816 0)
(0.8295 -0.1406 1.649e-21)
(0.9934 4.914e-05 0)
(1.004 -0.001251 1.665e-19)
(1.426 -0.194 -1.635e-20)
(0.2582 -0.01711 -1.771e-22)
(0.4757 -0.1413 2.131e-21)
(1.001 -0.0304 8.08e-21)
(0.1514 -0.0314 -8.155e-21)
(-0.01184 0.01135 9.836e-22)
(0.9947 0.01235 -2.022e-20)
(1.16 0.1575 0)
(0.919 -0.1215 4.588e-22)
(1.5 -0.1499 0)
(0.0004558 0.004882 0)
(0.7092 -0.1642 -1.249e-20)
(0.1032 -0.01636 2.702e-22)
(-0.002111 0.000655 0)
(1.033 -0.2093 -1.449e-22)
(0.06319 -0.02427 3.062e-21)
(0.9789 -0.2469 3.945e-21)
(0.9273 -0.1141 0)