/*--------------------------------*- C++ -*----------------------------------*\
  =========                 |
  \\      /  F ield         | OpenFOAM: The Open Source CFD Toolbox
   \\    /   O peration     | Website:  https://openfoam.org
    \\  /    A nd           | Version:  8
     \\/     M anipulation  |
\*---------------------------------------------------------------------------*/
FoamFile
{
    version     2.0;
    format      ascii;
    class       volScalarField;
    location    "10";
    object      epsilon;
}
// * * * * * * * * * * * * * * * * * * * * * * * * * * * * * * * * * * * * * //

dimensions      [0 2 -3 0 0 0 0];

internalField   nonuniform List<scalar> 
127143
(
39.46
11.38
35.88
28.22
306.3
29.09
206.3
312.2
339.1
40.05
313.3
391.8
67.75
27.5
13.59
10.84
16.25
0.08286
0.1201
10.9
0.3658
4.742
0.1312
0.6779
4.859
3.317
10.8
12.34
12.67
0.06573
0.895
3.429
37.26
2.115
0.06415
35.47
0.3117
0.3545
0.5668
2.11
0.12
1.135
0.9323
34.19
0.08379
2.066
12.18
0.2074
1.038
0.5902
10.34
0.02156
0.8074
0.2246
0.005274
2.247
0.005086
0.1359
0.01307
0.223
0.8906
0.1514
0.337
0.09658
2.564
0.4768
0.06389
0.3614
0.3553
0.0008085
0.7428
10.05
0.1614
0.01309
0.02705
11.28
0.01717
0.275
2.204
0.1318
10.46
9.648
1.276
1.723
0.2081
0.2535
0.5113
16.82
0.4575
11.98
0.01588
0.1427
9.518
0.3647
0.7173
0.08584
1.061
1.127
0.2477
0.06235
0.1332
0.9951
26.37
0.2347
0.2475
0.2518
0.5808
0.0008152
1.139
0.01752
12.72
16.83
0.4936
5.296
0.02067
0.3057
0.01764
0.02705
0.0171
3.843
0.0167
1.084
1.539
0.1186
10.02
3.92
0.1876
0.01653
1.268
2.691
0.364
0.6203
0.2891
0.2714
5.253
0.3575
0.03595
0.3437
11.19
0.03769
0.1939
0.01734
0.5899
0.3597
0.7996
3.747
47.93
0.1068
0.6341
29.8
0.2453
1.097
0.3494
0.1485
5.613
0.2045
0.1354
3.51
0.2051
1.349
0.7248
43.01
0.01607
0.3629
3.874
2.349
0.3451
0.823
9.764
0.02239
1.067
0.3583
0.3501
0.9218
0.003694
0.4121
3.984
1.26
0.6356
0.01844
0.9234
0.02949
0.449
0.4099
2.613
0.1496
0.2104
5.093
0.6309
0.02089
0.8405
1.1
0.0349
11.32
6.407
0.2194
0.112
0.112
23.82
0.0184
0.01691
0.02295
0.03716
0.299
21.2
0.4174
0.06516
0.4587
0.06286
0.02085
0.07564
0.2442
0.01554
9.708
0.4502
17.89
1.517
0.5218
0.4631
0.06432
3.656
0.02937
1.126
0.7979
1.439
1.075
3.164
0.3513
0.6944
0.2085
0.386
0.02891
0.1548
11.34
0.3831
0.08744
0.3627
37.05
0.01683
0.7505
1.077
2.409
0.2784
3.432
0.6005
3.699
0.9224
10.79
6.501
0.001441
1.691
2.099
0.7002
0.3859
1.685
1.121
0.01641
10.16
0.6413
0.1095
0.2387
0.02342
0.14
0.01735
0.8669
2.36
0.5257
6.891
1.12
0.5358
2.475
0.003603
0.1878
0.7545
0.2835
0.829
0.4885
0.8121
0.006085
0.7747
0.002483
0.09036
0.23
0.02255
0.02042
5.556
0.4351
0.02031
0.7533
0.01876
0.3413
0.2458
0.087
0.4142
0.01441
1.411
0.8823
1.364
0.2779
0.5202
1.295
0.385
0.5012
0.2982
1.548
3.394
0.4513
0.01556
0.1534
0.2832
0.6007
1.746
2.368
0.002563
0.0198
7.178
0.4019
1.287
0.1255
0.01988
0.1261
0.8044
0.02178
0.7015
7.298
0.5191
0.03466
2.407
0.7568
4.096
0.1701
0.02042
0.0622
0.1016
0.1016
0.1411
1.111
0.3474
0.1701
0.4713
0.03647
0.5216
0.7425
0.8178
4.057
0.7678
0.8801
0.6221
1.29
1.529
1.181
0.1143
0.3949
0.826
0.02633
0.7832
0.3867
3.174
0.01073
0.7805
0.1724
0.3209
0.0841
0.5779
0.5846
0.04063
0.0185
0.01302
1.564
0.00619
1.814
0.02187
1.623
0.5965
0.0202
0.07512
0.8308
7.855
0.2252
0.006491
0.1216
3.573
1.136
0.3984
0.01755
5.17
0.04618
1.979
0.2253
0.218
0.01285
0.4231
0.8428
1.744
0.6365
0.9036
0.4228
0.8216
0.02627
0.02279
1.915
0.03011
0.4014
0.4347
0.04669
0.2979
0.2372
0.3022
0.1375
0.5974
1.799
1.503
0.1893
0.1951
1.477
0.7059
0.3236
2.698
0.4481
2.625
0.3352
2.148
0.518
0.001484
0.2114
0.1364
0.8387
0.1538
2.268
0.08332
0.05466
0.5024
0.4171
0.08496
1.117
0.04023
0.3969
0.8746
0.02112
0.01444
0.02275
0.5537
0.03669
1.187
0.01881
1.076
0.0185
5.825
0.01324
0.2445
0.3135
0.9994
0.2848
1.786
0.04996
0.2899
1.526
2.214
0.2643
0.4016
0.2793
1.039
0.2286
3.697
1.056
0.003367
0.01717
0.5215
0.8231
0.03247
0.23
0.1567
0.1171
0.3944
0.05316
0.006093
5.998
0.1528
0.724
0.6712
13.24
5.75
1.265
2.347
1.601
1.093
0.6109
0.01563
1.165
0.01729
6.211
0.4846
0.8719
3.64
11.55
0.3861
3.18
0.08211
3.617
0.01706
13.55
0.01713
0.3141
0.2161
11.58
1.946
11.61
0.07079
0.77
2.124
0.02002
0.1617
1.671
0.3292
0.2991
0.3186
1.018
0.2296
3.848
0.003354
0.2865
6.061
2.943
1.142
1
0.013
0.24
0.03592
0.2252
0.01234
1.237
22.18
0.8141
0.04393
0.5217
0.1016
1.351
1.86
14.31
0.1842
0.01731
0.5233
1.274
0.03629
0.3956
0.417
0.81
0.5626
0.864
0.7705
0.2221
0.7412
2.319
0.3089
0.487
0.01424
1.777
0.3814
1.594
0.3438
0.25
0.08465
0.06712
0.1002
0.9009
4.148
0.01928
0.001686
1.082
4.087
0.2371
1.625
0.8994
2.109
0.4637
0.01697
0.03758
0.8184
0.2609
0.8174
0.003968
10.61
0.2987
0.5395
0.006294
1.866
0.01917
0.2306
0.417
0.1949
0.001634
0.5207
0.239
22.96
0.006372
0.5638
1.503
0.02218
0.2955
0.01967
0.4616
0.5731
0.02269
1.055
0.9814
2.044
0.8496
0.5618
1.142
1.106
5.246
0.5356
8.981
0.5559
0.4035
0.9101
1.423
0.003994
1.916
0.02104
3.749
0.01718
0.5801
0.04642
0.02036
0.1404
2.591
0.4225
0.003496
0.007783
0.66
11.43
1.094
1.083
0.1608
1.174
0.3082
1.84
0.8101
0.5691
2.93
0.003493
2.02
0.7676
0.2469
0.3079
0.01598
0.001693
0.5118
10
0.6092
2.57
0.01711
0.001042
0.3693
1.664
0.0223
2.195
0.1431
0.04002
0.7186
0.59
0.759
0.2029
40.07
1.021
0.2605
0.2907
0.4304
1.017
1.672
1.229
0.02013
1.143
0.7673
0.3956
0.01072
0.776
0.4309
0.5732
0.04474
0.01005
2.523
0.08219
1.397
1.038
3.725
0.1545
0.4581
1.268
0.2234
1.809
0.01567
0.007675
2.001
0.1347
1.437
0.5527
5.454
0.1552
3.176
0.07339
0.08325
0.001032
1.053
0.05358
1.66
5.029
0.4495
0.8516
0.2206
0.001492
0.3738
0.5886
2.191
0.1012
0.2754
0.8071
27.19
0.3255
4.281
0.1293
1.529
0.4046
0.2777
0.1855
0.2371
45.05
0.4402
0.02205
0.9315
2.226
0.492
0.01482
0.5554
0.1137
0.2345
0.0009365
2.645
0.4932
1.903
0.0009826
1.278
0.3786
1.023
1.282
0.001079
0.2114
1.026
0.8867
0.4038
0.01812
0.7422
9.071
0.01482
0.4938
0.3699
0.9921
0.3822
0.3719
0.4577
2.621
0.4845
0.01875
0.2122
0.1474
2.037
1.422
0.2263
0.1599
0.7387
0.02552
0.3199
0.7061
0.6567
11.91
0.6538
0.7918
0.5397
0.2725
0.5039
0.07265
31.38
0.3873
0.8308
0.9531
0.2404
0.4686
0.3959
0.6815
0.04009
0.1088
0.2495
0.0009384
0.4447
6.119
0.5782
1.462
0.02827
0.3022
0.4239
0.01576
0.02037
0.3057
0.1518
0.1606
0.4768
0.2284
9.686
0.2873
0.4245
0.0108
0.2739
0.3252
0.8704
1.342
0.7829
0.002225
0.01287
0.04223
11.09
0.01155
0.06704
9.85
0.4288
2.826
0.004337
0.301
0.4153
0.02653
1.263
0.0685
3.118
24.62
1.217
0.6856
2.67
0.01547
0.8903
0.2359
1.186
0.9426
1.901
35.02
0.2259
0.2974
0.899
7.329
0.02423
0.2622
2.649
6.502
0.7732
6.496
0.002216
0.05172
0.8245
4.273
13.75
2.802
73.06
4.627
52.28
0.5696
0.9373
0.1079
4.749
0.01731
0.5989
0.001783
0.001738
0.5904
0.01927
0.998
0.1438
5.063
0.1715
0.02582
8.499
0.9998
0.01272
0.1042
0.2996
0.02488
1.171
6.467
0.4942
0.5554
12.6
0.3141
0.559
0.01894
0.8669
1.636
0.01053
0.9256
0.3728
0.1496
0.02612
0.02001
0.1052
13.59
0.9449
7.849
0.2414
1.942
0.8612
1.697
1.992
0.002207
11.11
0.6472
0.002207
1.164
6.415
0.1565
4.248
0.1998
0.306
2.169
12.77
0.7309
0.01699
0.02864
0.5106
1.654
0.3582
1.103
7.628
6.8
0.9266
0.1028
6.785
0.04085
5.733
0.01691
0.21
2.581
0.4392
0.5501
0.259
0.02428
0.01692
0.9839
0.2366
0.4629
0.8451
0.6183
0.183
0.5775
2.095
1.647
7.412
0.7327
1
0.7957
0.294
0.1721
10.8
0.4523
2.896
4.376
0.2616
0.01504
0.01055
0.2001
0.2585
0.2644
0.1799
2.054
0.3098
0.1416
0.5459
0.5123
0.5611
2.548
0.1382
0.2327
0.1334
9.717
1.605
0.4018
0.5501
0.2377
1.598
0.6563
0.2641
0.1461
2.29
0.5504
0.3437
8.025
0.0126
2.656
1.812
0.1459
0.855
13.8
0.01904
4.75
9.809
0.002476
0.1533
0.9175
0.4036
6.018
0.9432
0.5815
2.909
0.5936
0.233
0.1916
0.01729
0.6704
0.2546
0.4911
0.4411
1.421
0.2698
0.003404
5.797
0.4304
0.02968
1.233
0.002217
0.01712
0.3645
0.1373
11.49
0.01724
1.254
0.02721
6.818
0.1141
0.09933
0.2473
1.653
1.05
0.7267
0.3454
0.006186
0.03274
0.4456
0.9483
0.4825
0.5587
2.943
0.6453
3.799
0.87
2
3.592
0.8285
2.533
0.4095
0.107
0.01088
1.125
0.5772
2.139
0.0007233
6.699
0.245
0.3976
1.23
0.8709
0.2076
1.617
0.2054
0.3949
0.5403
2.559
0.9663
0.003162
0.2455
1.157
0.01501
0.827
2.178
0.2081
0.4493
0.6615
0.033
0.4076
0.3147
1.898
0.163
0.1056
0.7096
0.533
0.0134
0.2828
0.02659
0.3015
0.6736
0.4172
0.02401
1.064
3.536
1.843
0.9512
0.1983
4.526
0.0008081
0.5391
0.02349
0.3005
2.099
0.913
1.236
1.251
3.783
0.04514
5.18
0.9474
0.9778
0.3275
9.521
0.1975
0.09963
1.681
0.4951
0.03679
9.525
0.2912
0.6568
2.22
0.7795
4.438
1.361
1.379
0.6592
0.3502
0.703
1.012
0.7558
0.1559
5.058
0.08989
0.9471
0.09894
1.532
0.1056
0.02166
0.4553
4.67
0.2164
0.0219
6.3
0.7678
0.02574
12.02
0.5493
0.5956
2.482
0.6502
0.349
23.54
0.1045
1.871
0.1873
0.4691
4.456
0.9464
1.343
1.559
1.149
0.0658
0.07567
0.5463
0.428
0.6406
0.3902
0.1605
2.28
0.2003
0.1841
0.1942
1.181
0.414
0.394
4.923
0.04471
9.84
1.399
0.3722
0.3087
0.02682
0.1683
0.9155
0.4139
1.064
2.455
1.699
0.01803
1.379
1.06
0.4728
7.073
1.174
0.1228
0.6694
0.01534
0.7346
0.3369
16.44
0.8087
0.03859
0.2988
0.01397
24.42
9.783
0.2746
0.2904
0.6582
0.002846
0.04596
0.6793
0.303
0.128
0.07381
0.0006757
0.0006793
3.439
0.3372
0.1697
2.355
0.7576
5.598
0.4821
1.759
0.4006
0.4806
0.05511
0.8813
0.2019
0.9661
7.209
0.416
0.1689
0.3607
0.3168
0.5022
44.8
0.1157
0.4367
0.1652
0.1814
0.1919
0.9057
28.18
0.121
1.052
0.008193
0.6845
15.01
0.06451
26.32
0.5221
0.3131
1.312
0.01158
0.5595
12.71
0.01899
0.5667
0.6857
0.3975
20.06
0.3143
0.2181
0.8117
4.057
0.326
1.033
0.1
1.033
3.311
43.19
2.913
0.3529
0.02192
2.074
0.1228
1.203
9.782
0.148
0.3386
0.009815
0.2761
0.4558
0.01171
0.1544
0.002433
23.91
0.1584
4.569
0.398
0.7366
6.056
0.4613
0.5131
2.354
67.1
0.416
0.4404
0.639
0.4252
0.1858
0.08411
0.3991
0.01717
0.1992
0.05474
0.1893
0.01472
2.753
0.3755
0.1778
0.01533
1.071
0.09913
0.9658
0.1327
0.1978
1.522
0.3792
0.03398
14.72
1.47
3.764
0.6877
0.3324
0.8299
0.8604
0.5873
0.09073
2.265
0.3023
0.8015
1.932
0.8745
0.9195
0.1209
0.0176
59.2
0.4105
6.72
0.02491
6.859
2.33
0.9179
0.4331
0.01958
0.01812
0.06781
0.12
0.04782
0.1645
0.4407
0.3606
1.185
0.02308
0.2612
4.609
1.611
0.08988
0.3303
0.1904
2.464
0.8966
0.7378
0.9277
0.2124
0.01543
0.5736
0.5585
5.343
0.7326
0.03374
0.9495
0.0144
0.5561
0.407
2.939
0.07359
0.03717
0.236
1.326
7.108
18.85
0.2663
0.388
0.9288
0.07329
0.01022
20.04
0.8121
12
0.07878
5.446
0.379
0.01395
1.759
4.013
0.1955
0.2517
0.3328
0.7738
0.4879
1.292
0.4124
7.74
0.05107
5.176
1.12
1.067
0.001158
0.001127
0.8581
1.788
54.76
4.772
1.239
1.253
50.7
0.01311
0.5004
0.01874
0.01722
0.01391
0.1983
0.004435
19.64
0.02292
20.17
0.3088
2.445
1.941
0.9683
0.001034
29.34
0.1248
14.47
0.2586
4.347
0.01274
0.7988
0.6805
0.2416
2.192
1.046
0.2494
18.61
24.21
0.05168
0.01024
1.735
0.000613
0.1978
0.2771
1.666
0.006608
1.958
0.02967
0.6733
0.8103
0.2693
11.73
0.004945
0.2151
1.041
1.647
0.1045
0.3126
0.2552
0.02074
0.09323
0.882
78.88
0.9211
0.5389
0.01733
4.241
0.2192
0.128
0.0007491
0.6996
0.4143
0.924
0.01792
2.657
0.01728
0.8581
0.1056
0.8166
2.022
0.4726
4.698
2.406
0.5804
0.007644
0.6735
1.717
0.5512
6.802
1.933
0.1479
0.03276
1.053
57.7
0.7424
6.547
4.626
0.001064
0.1392
0.01517
1.582
1.049
1.133
0.02737
3.971
0.02856
0.129
0.416
0.008416
0.1342
0.1254
1.966
0.3059
0.0146
0.7589
0.03857
1.928
9.968
0.3676
0.122
0.7536
0.02297
0.6649
0.387
10.99
2.286
0.3408
1.272
0.7213
1.418
18.33
0.0445
0.1926
2.129
0.03746
0.7943
0.3069
0.2202
0.4439
0.019
0.007331
1.32
0.1048
0.7427
0.362
8.041
0.3116
4.893
0.2185
0.01853
5.126
0.7893
0.09704
0.8754
0.02509
0.5974
0.1442
0.2086
4.22
0.2517
2.022
0.6822
0.776
0.03596
0.4551
0.6153
1.491
5.832
0.02064
0.4011
2.202
0.01644
0.02045
0.4377
0.0008339
0.9547
0.5486
0.4854
2.362
0.2291
0.2443
0.003005
0.239
0.8917
0.003274
0.2909
7.329
4.365
0.1727
0.5169
3.403
0.16
3.554
0.1562
0.5199
4.408
0.0007994
0.001332
0.4764
0.0176
2.021
2.222
0.2407
2.321
0.9634
0.02006
1.737
16.81
233.2
0.783
0.4954
0.8126
0.1548
0.1972
0.2432
0.2723
1.185
0.631
0.7518
3.046
3.272
0.2707
0.2156
0.01847
17.64
0.1816
0.3212
0.394
0.04684
0.8871
0.7619
0.118
0.1661
2.297
1.951
0.4863
1.618
0.2442
8.216
1.32
0.02217
0.7725
2.032
0.4231
0.6138
6.19
0.01731
12.06
13.24
0.603
0.001758
0.2175
0.1679
1.154
1.198
0.2207
1.52
0.003287
1.607
0.839
0.06593
0.1832
0.0139
0.892
19.07
0.4747
1.328
50.97
0.2351
5.957
0.001425
19.54
1.082
0.1497
0.03597
0.1118
0.292
0.2178
0.4405
0.001408
0.8339
13.75
31.04
0.3198
0.3159
0.417
0.7086
0.01777
0.02113
1.256
0.2211
0.01378
0.4264
0.4665
0.7306
0.4925
0.5172
1.514
0.4254
24.01
3.356
2.93
0.09583
0.6584
8.694
0.166
1.317
0.1053
0.3088
0.3225
21.17
0.2091
0.2454
0.000854
0.03684
2.426
0.3554
0.01995
0.04583
0.2103
1.905
0.2158
0.7031
5.576
4.015
0.0195
1.294
0.1537
0.4025
2.653
0.1575
0.04227
0.7949
0.4694
0.2273
0.9999
0.03504
3.638
0.1347
1.621
0.08
0.8202
2.496
0.4396
1.356
0.4296
1.188
0.4791
1.338
0.1952
0.1703
0.2946
0.2546
1.365
0.4214
27.61
0.6446
0.01457
0.4814
0.1045
1.473
0.6312
0.003542
0.2652
0.09484
4.086
0.001015
0.3948
0.3613
0.3563
0.1706
0.4302
0.07808
4.117
0.1472
0.01921
0.8469
0.04252
0.2105
0.0333
0.2209
0.1956
0.08386
0.1685
0.5596
1.174
0.02387
0.01656
0.1632
0.2717
2.728
0.03209
0.6346
0.339
2.674
0.8955
0.1196
1.723
0.4924
0.07162
0.4495
5.999
0.1534
17.89
0.7696
0.1711
8.301
0.01992
0.007712
0.7936
0.1625
49.58
0.02609
0.2234
0.8051
87.08
0.6719
1.729
0.007586
0.007572
0.8327
0.8196
0.3717
5.252
0.03641
0.1787
0.2151
0.1344
1.342
1.126
0.5389
0.3277
2.219
0.06117
0.6918
0.116
0.2872
1.603
2.01
2.371
0.5199
19.48
0.7901
0.9035
0.4185
1.148
0.5623
0.08859
2.635
1.42
0.001621
0.001606
0.5745
0.4416
3.34
1.055
4.433
1.108
0.003937
0.02051
1.603
0.0994
0.3497
11.18
4.179
0.1408
0.9633
0.05883
19.31
6.945
0.001192
0.2978
0.3568
0.5409
0.2611
1.8
0.5267
0.811
0.5731
0.2759
0.2871
0.1781
4.887
0.9095
0.4636
0.5505
41.59
0.4291
0.7464
0.6711
3.899
1.105
0.5341
5.694
0.1891
1.404
0.01598
0.1951
0.09005
0.595
0.1381
6.56
0.5429
0.1502
1.417
31.67
1.416
0.5316
0.4593
1.195
7.768
0.003487
0.2677
0.2617
15.6
0.4148
0.288
0.1064
0.2348
0.02108
0.4499
38.15
0.3029
1.262
0.1747
0.08267
5.032
0.1162
0.5224
0.2041
0.2463
6.473
0.1163
0.502
0.1347
0.04616
2.618
0.3129
7.4
0.8821
0.6294
0.01008
0.2791
0.5871
1.672
8.572
0.2974
0.1274
0.9881
0.01851
1.221
4.857
1.447
2.335
0.6765
3.793
1.13
2.813
4.296
0.2334
2.432
2.084
0.1062
0.07041
4.047
0.0007494
0.1465
0.01938
0.0495
3.672
0.0155
0.8203
1.069
0.1902
0.4466
1.257
4.318
0.3854
8.892
0.425
0.2132
5.602
0.3737
0.3843
0.01923
2.137
0.2244
1.843
3.492
0.0008716
1.043
1.069
0.2841
0.2537
1.585
10.55
0.9955
0.2748
0.3896
0.02193
0.1137
0.06798
0.3708
0.2439
0.7865
1.055
0.846
4.686
0.2095
0.01343
1.192
0.3339
0.1652
0.3671
0.4372
8.644
1.33
5.091
5.166
0.5098
0.5779
0.883
0.3705
0.4784
0.1424
3.133
1.406
0.4647
1.038
0.01048
2.11
1.143
0.1978
0.2921
5.64
1.623
4.399
0.269
0.6941
17.71
0.0127
3.485
0.1622
0.03707
0.9867
2.362
0.01479
0.8046
0.233
0.8148
23.24
0.9647
0.917
39.47
0.2701
0.6145
0.1914
0.1914
0.5394
0.548
0.7499
3.805
0.4227
0.01978
3.814
2.142
0.6869
0.01476
0.01337
0.8354
0.3909
0.5482
129.6
2.138
0.006352
0.9485
4.725
0.1196
1.557
0.6469
0.002185
0.2572
1.04
0.1193
0.3064
0.02067
0.01007
0.01435
0.004298
0.06154
0.3259
0.538
3.836
0.2837
0.5403
0.4152
3.755
0.004307
0.5507
0.2824
1.424
2.481
1.465
0.6675
0.4002
0.8341
0.6081
0.4598
0.04214
0.4662
75.95
1.3
2.65
0.8017
3.28
0.02058
2.343
0.3905
1.358
0.2128
0.03312
24.56
0.02663
0.3164
2.234
0.004791
1.078
0.3402
0.3039
0.4375
2.971
0.04627
0.7457
0.003926
1.334
0.543
0.4984
0.1913
2.156
0.01205
0.01576
0.1648
0.9031
1.041
0.0794
0.3052
1.358
0.3023
14.68
0.8745
0.1901
0.1506
0.3448
0.3103
0.1208
14.47
0.7939
0.02092
9.356
0.01888
0.01255
0.1388
0.0014
17.01
0.2063
1.396
0.2343
1.15
0.03322
0.07724
0.6303
0.7496
0.1796
0.00209
0.2391
77.18
4.991
0.09195
8.831
5.02
9.416
0.001157
0.1707
0.2999
0.1009
0.01727
0.1536
4.53
42.18
0.1786
1.158
8.467
0.02128
1.149
3.572
0.4065
0.0263
1.362
50.88
7.703
12.28
0.1579
0.6254
6.123
0.03157
0.3491
0.01614
0.2891
4.387
0.1297
0.8847
11.5
0.1031
0.6078
2.049
0.1686
0.02195
0.7998
1.508
0.1194
1.771
1.061
0.2154
0.1703
0.6137
0.5753
0.2978
0.02157
0.831
0.8486
0.7961
0.5926
3.05
0.8109
9.586
4.717
15.03
10.76
0.8626
0.05156
4.878
0.02004
1.5
5.434
0.02191
102.3
0.1308
0.4561
5.946
1.646
1.881
7.452
0.6396
5.062
0.01586
129.8
1.174
0.0006606
0.1674
0.4189
50.03
5.197
1.955
0.2154
1.572
28.36
0.3379
0.1437
0.4601
9.025
0.008266
0.2912
0.4029
0.5733
0.3124
0.2962
0.1362
2.708
0.5925
1.051
8.3
0.01509
2.57
0.1559
0.5045
0.4724
0.01766
0.07816
0.4508
1.581
1.395
3.867
0.0006275
0.0156
0.2321
0.8541
8.223
0.2434
0.1278
0.005691
0.02301
1.925
0.005704
0.6061
1.626
0.08778
0.5863
0.3235
6.088
3.779
5.989
0.03812
0.9175
0.3402
1.185
0.1463
0.1679
5.954
0.1801
3.006
0.8356
1.61
0.4849
0.4591
18.71
0.3103
0.3477
0.586
0.0008207
0.468
0.06652
0.01787
0.4072
13.31
0.3727
2.901
0.3034
6.123
36.37
0.1554
10.63
0.003805
0.1399
0.03309
0.04063
1.14
0.127
4.778
3.994
0.5782
1.859
0.1656
0.5089
1.87
0.4648
0.175
1.993
0.2113
13.43
0.9589
0.001931
0.4091
0.3489
0.0596
0.02468
1.731
0.0307
1.76
0.6484
0.8795
0.4474
2.179
0.001039
0.1196
0.04469
1.894
3.808
3.754
0.4821
0.01418
2.695
0.01255
0.1204
0.4497
0.2146
6.736
0.5812
1.112
0.156
13.64
0.4901
0.00348
0.2484
0.5719
0.04476
0.3531
0.03167
1.049
1.415
5.202
0.313
0.006038
0.9324
0.7184
1.475
3.307
1.617
1.072
0.01737
0.188
0.2985
0.4631
1.308
0.2468
0.08223
0.9279
0.1284
3.259
1.534
0.003882
0.1642
0.0157
0.02627
0.4116
1.297
0.7651
0.01822
0.6519
1.97
0.5352
0.06912
0.6577
0.09786
1.781
0.002641
103.3
0.6177
1.88
0.000913
0.07144
3.844
0.02486
0.4658
1.072
1.668
0.5269
0.7709
0.02694
0.6428
0.6046
0.9172
0.3263
0.8499
0.2284
0.2399
0.782
8.305
0.01272
0.2918
0.4996
10.94
0.2841
0.07641
2.725
2.28
0.2643
0.354
0.3085
6.137
0.03456
0.2524
0.7793
0.1608
0.5534
0.4392
0.002051
1.918
8.849
0.5324
0.5332
5.718
0.8747
0.5461
0.01923
0.02414
0.08972
0.001066
37.19
0.5065
0.04471
0.01652
0.3681
17.35
0.04135
0.2156
2.317
0.5139
0.5799
1.24
16.58
0.9598
3.603
1.187
3.916
2.352
0.01774
0.3681
0.522
0.468
0.02328
0.1164
0.4304
0.245
0.5156
27.06
6.774
0.09402
0.8729
3.784
0.1707
4.173
0.2132
0.4703
0.2699
2.788
4.835
0.01853
1.923
0.3844
0.0432
3.562
0.2205
1.038
0.07199
0.7398
1.322
0.5211
1.433
0.01401
0.0186
0.09728
0.5363
0.1716
0.3661
0.02003
5.543
0.1494
0.2381
0.759
1.836
0.1285
0.9611
0.009923
4.133
1.493
23.92
0.8905
0.06988
5.25
0.5734
1.023
9.536
0.1215
4.232
0.1012
0.1028
0.2634
0.06622
0.01788
25.48
0.5065
1.966
1.117
0.805
0.3678
0.001549
22.57
0.03432
0.819
0.1632
0.202
2.19
0.2626
0.3927
0.7274
0.1382
0.7848
0.008204
0.4461
1.078
18.66
5.701
0.09074
0.3345
0.2623
0.1648
0.7964
0.7747
0.05414
0.03323
0.4673
4.768
0.003077
0.01222
0.2663
1.104
0.1606
12
0.1397
1.415
0.4447
0.3966
0.07035
0.1013
1.3
1.51
1.044
0.2911
3.893
0.09957
2.227
0.001468
1.537
14.95
0.03515
0.4482
0.1913
1.801
2.108
0.8571
0.0798
0.01034
0.8306
0.1602
0.01681
1.515
3.512
0.182
0.1567
0.07823
0.06637
0.0226
3.806
0.3153
0.0202
8.729
0.883
0.9206
0.02214
0.03844
0.01584
0.0406
0.5507
0.1543
1.048
8.177
4.32
0.7957
3.951
3.928
0.0178
9.158
0.936
1.157
0.1379
0.1583
0.4278
1.674
2.032
4.635
0.5564
0.03363
0.3067
2.299
0.3629
0.8952
0.1174
0.5108
0.1543
1.721
0.001196
0.4089
0.5747
0.5325
0.4287
2.218
10.06
4.519
0.01037
52.97
0.4263
0.1716
5.053
0.0291
0.974
0.6482
0.006669
1.935
3.574
0.2052
0.5137
0.1301
3.258
0.01723
0.3058
6.129
0.2074
0.01655
1.869
0.2423
0.02901
0.2865
0.1549
0.5238
11.87
1.051
0.8863
0.2166
0.9301
1.04
0.01923
0.03229
2.845
0.4034
0.5387
0.06825
7.627
0.5386
0.2734
0.5485
0.2937
1.102
0.03423
0.05709
0.6173
0.5401
0.05131
0.6235
1.598
0.1485
1.147
1.396
0.1563
0.04986
0.1374
0.2972
0.7337
0.5057
0.06472
0.9158
0.003098
0.2529
0.4382
0.1691
1.099
0.4107
4.444
0.2627
0.3527
0.01234
0.00727
0.2595
0.273
2.068
4.617
0.3977
1.135
7.291
0.751
0.4436
0.8948
0.8327
4.153
0.8263
0.03835
2.23
0.3653
1.402
0.2432
0.1931
0.2865
0.5755
0.03874
0.5084
0.1012
0.02206
0.07999
2.227
0.0147
14.73
1.496
0.7521
0.0178
0.6806
0.7702
0.001007
0.583
0.9194
1.159
0.5347
1.041
0.03388
1.34
0.1178
0.1679
1.056
6.756
0.4427
0.838
10.2
0.006792
0.02525
0.6414
1.126
1.883
0.1925
1.532
1.304
0.2474
0.1813
0.01768
6.575
1.65
0.1223
0.229
0.0165
1.163
0.08058
0.9291
0.9975
0.4628
0.01242
10.52
0.8304
0.01915
0.6146
1.2
0.07767
0.01101
0.0118
1.13
25.35
0.3539
0.1159
0.326
0.07749
0.5571
0.4892
0.01343
0.442
0.4101
6.931
7.762
1.328
0.01215
0.9126
0.4139
1.023
0.9444
6.398
0.7055
0.7414
0.6616
0.5051
1.141
2.184
0.09991
0.001092
0.114
0.03262
14.8
0.01734
0.1909
0.9498
0.3779
0.1819
6.878
0.6122
19.05
0.1896
15.62
0.4774
0.1997
1.783
6.67
0.2274
4.977
14.23
0.02175
5.146
6.79
2.628
2.595
0.7929
0.164
0.4878
0.3902
0.4619
0.0448
0.346
0.1924
0.3942
0.2678
0.312
0.5488
0.166
0.1095
4.016
0.6421
30.02
0.3962
0.9154
0.006037
1.418
0.5127
2.275
0.2229
5.259
1.061
0.6106
0.1037
4.446
0.1021
0.3568
0.3804
0.05465
0.2054
0.2609
0.3853
0.4575
0.4835
0.224
0.6483
0.2492
5.61
0.3953
5.372
0.04744
0.2907
0.4327
0.1647
0.04093
7.518
0.02008
0.0145
0.02114
0.2711
0.4781
0.8265
0.06422
0.2165
0.2672
0.05462
3.395
2.961
3.95
0.5518
0.06393
1.131
22.29
0.06364
0.9722
0.03232
0.6039
0.1305
0.6632
0.1708
0.01096
0.008774
0.6968
0.1451
0.04614
9.513
0.5512
0.05485
0.02653
0.3364
0.03182
1.982
3.187
0.00482
0.6239
0.6509
4.657
2.011
10.82
1.594
0.1062
0.2886
0.6618
0.2265
1.177
0.9718
0.758
1.336
0.3562
10.76
0.01904
0.9414
2.391
10.57
0.04004
0.241
0.02235
0.2631
0.2421
1.026
0.7699
0.6081
6.228
0.1401
1.361
10.58
0.7468
2.524
1.077
0.2966
0.2604
0.4493
1.161
0.2305
1.584
0.002977
4.496
5.507
1.535
0.2745
0.5119
3.66
0.7926
0.2446
0.04472
76.39
0.3698
0.0007695
0.00138
0.00304
0.7271
8.396
0.1918
26.31
0.5293
0.001084
0.7833
0.4919
0.3665
0.9142
72.5
2.499
0.362
7.273
0.2509
0.3983
7.893
0.2825
0.3745
0.1596
1.548
0.2363
0.2433
0.2769
0.9443
0.1939
0.7341
1.064
0.1835
3.828
0.7114
0.06156
5.033
0.2477
10.49
0.8304
0.008226
0.109
1.195
0.02252
0.2472
4.448
2.813
0.1574
0.01207
0.138
0.2433
0.2461
0.05035
0.9022
0.009857
0.8689
0.3901
0.5553
0.6543
0.9395
0.9089
1.27
4.9
0.4825
0.3534
0.02787
12.39
0.04163
0.001374
0.619
0.01815
2.986
0.1589
7.921
0.04482
1.279
0.4692
0.7659
0.9019
0.09357
0.3395
0.2555
1.098
1.877
0.4555
0.06806
0.01615
0.5058
1.188
0.09413
0.3201
0.8129
1.241
1.346
0.007694
0.3181
1.262
7.154
0.5516
0.3385
1.354
0.6546
0.01993
0.2225
25.14
1.325
0.04671
0.1469
0.838
0.1026
0.496
1.779
0.6726
0.04695
0.05297
0.1256
0.01385
0.01312
0.02444
0.1361
17.83
1.485
0.1366
0.4739
0.1965
0.07544
0.1591
0.2211
0.7179
0.04663
0.03314
1.329
0.0871
0.02137
0.923
0.5004
0.1217
3.906
6.273
0.02081
0.4339
0.2848
0.6968
0.4198
1.076
0.1633
0.7999
3.457
0.4786
5.732
0.1585
1.986
0.3175
0.647
0.2929
12.18
0.06242
18.66
0.6852
0.02177
0.02859
0.004151
0.486
0.2703
3.136
2.739
3.577
0.07726
0.01053
1.148
1.433
0.1704
0.01722
1.239
0.1711
1.869
0.4981
10.97
2.244
1.51
1.68
0.5455
0.1028
2.313
0.569
0.294
0.3254
0.05584
0.01598
0.2309
0.2313
1.34
6.503
0.335
0.02965
1.546
0.07328
0.1246
0.01776
3.401
0.4771
2.281
1.002
0.4086
0.2754
0.2928
0.2065
0.1927
0.575
0.1746
0.1325
0.04201
0.4396
11.38
0.1141
0.4551
19.48
0.005865
0.02122
0.205
0.02438
0.05712
3.701
0.06529
0.06519
0.6907
0.01294
0.2838
2.658
0.7789
0.1597
0.1442
0.03383
0.05188
0.3039
0.5734
1.907
5.973
0.2799
0.004784
0.1544
0.9111
1.934
0.07868
0.04714
0.04227
3.479
0.12
0.07077
0.4169
0.7543
0.06799
0.02615
0.8992
0.01188
0.01868
0.01126
3.961
0.05632
0.7326
0.148
0.02572
0.05899
0.155
0.2381
1.448
0.2528
0.3683
0.3319
0.106
7.748
0.2759
1.451
0.03743
0.6661
0.4954
0.5302
0.7263
0.1971
0.5369
0.2991
0.1501
1.376
0.06592
131.9
0.5882
14.34
0.103
3.515
0.01979
0.04451
0.359
1.688
0.1925
0.7253
0.1386
0.001438
19.85
0.001423
1.037
26.85
0.1283
0.2629
0.00206
6.048
0.01777
0.1894
0.2261
0.5899
0.6533
0.01649
23.93
0.02998
0.547
1.212
0.6507
0.8082
15.71
0.4692
11.48
0.39
0.01428
0.2096
1.525
0.02041
0.0835
2.275
0.1663
18.97
2.284
4.519
0.02649
0.3167
0.02555
0.01605
0.02517
2.701
0.1427
0.1858
0.001144
0.2899
0.223
0.9236
0.5711
11.48
0.0176
0.8448
3.541
0.5324
0.1268
0.242
0.03331
0.3519
0.005839
0.3176
0.9388
0.01623
0.5707
19.22
0.5982
2.015
0.248
5.934
2.496
0.4998
1.996
5.619
0.6992
4.111
0.6857
0.2456
0.9044
0.3654
0.3846
1.032
0.8319
0.003763
0.6643
0.002586
1.739
13.55
0.4737
1.354
12.34
0.1988
0.5917
0.001238
0.6761
0.3091
29.39
0.1701
0.01154
0.2258
0.5418
0.5656
0.001196
0.6744
0.5595
0.2717
0.262
3.323
2.077
15.67
0.4807
0.8132
0.5092
0.2334
0.807
0.02037
2.74
1.353
0.01823
0.3341
0.3244
0.5574
1.173
1.73
0.05825
3.814
4.696
0.07782
1.024
3.272
10.76
1.384
0.004776
0.001878
0.8089
0.5187
0.3933
0.01226
3.515
0.5698
2.064
7.816
0.007744
0.5699
2.905
0.2925
17.86
0.5392
0.6445
0.9048
0.2598
0.6397
0.01816
0.3532
14.41
0.6364
0.6347
0.1931
0.2339
0.009629
0.002929
0.5601
0.4497
0.2492
1.062
0.342
0.01552
1.42
1.051
0.1606
1.602
29.54
2.087
0.001143
0.1425
0.02022
0.61
1.332
1.153
2.743
1.85
2.201
0.02847
0.9171
0.03144
0.1439
1.696
0.3053
3.964
0.6163
26.54
0.04047
0.7725
2.121
0.01754
0.4934
0.4027
4.852
0.1571
0.03782
0.01596
0.003865
0.3178
0.01532
0.2549
2.124
0.2299
0.2411
0.5829
0.04725
0.4448
0.1649
0.003609
2.33
1.777
5.351
0.5359
0.01707
1.374
2.099
0.02079
3.279
0.1705
1.598
0.3704
14.44
0.4128
2.947
0.1988
0.1729
0.04183
0.1916
0.04363
0.0623
2.941
0.4159
0.4997
0.3896
0.4418
0.5637
0.01902
0.06054
0.06973
0.4133
0.2743
0.6906
9.275
0.1122
0.02274
1.651
0.1189
3.02
0.01164
0.816
1.233
0.2203
0.1847
1.422
0.8493
0.7962
0.3019
0.7509
0.01612
1.412
0.2068
0.4138
1.099
7.709
1.571
0.0742
0.3389
0.2902
0.2374
44.29
0.01598
1.051
0.4023
0.3119
0.3487
0.3028
25.48
0.3509
6.12
1.047
18.29
0.2969
0.2954
5.512
1.296
0.02312
0.6438
0.2109
0.8006
1.234
0.217
3.297
0.001286
0.7992
3.206
1.631
0.9222
2.247
2.181
0.02046
0.9234
0.9378
0.6025
0.1235
0.05041
0.666
0.322
0.777
2.949
0.01016
0.6908
0.1788
0.235
0.4204
1.354
1.33
0.2726
1.366
1.808
0.006695
0.4654
0.2888
10.77
1.219
5.614
0.3485
0.3242
0.2709
0.1239
0.5761
0.8659
5.513
1.999
4.836
28.56
0.368
0.1129
24.65
1.273
1.999
0.001165
3.085
6.62
1.18
0.4171
0.01547
1.703
0.02492
0.2542
1.583
0.3973
0.9075
0.2036
1.555
0.244
7.054
0.2322
0.8385
0.8579
5.935
1.019
0.7975
0.2924
0.1928
9.448
0.2009
7.402
0.4373
0.3638
0.02814
7.717
0.1592
0.0571
0.01871
0.2675
0.5973
0.02984
0.006625
0.01776
0.8521
2.176
26.01
0.08112
0.001946
0.4371
0.006335
0.004798
1.068
0.0007556
0.4175
8.747
0.0498
1.034
0.521
0.972
0.1298
0.5319
0.06316
0.7843
0.2151
11.76
0.2924
0.7205
0.945
1.838
0.09363
0.001948
0.1527
1.755
0.01909
0.1182
0.5394
1.58
7.369
0.7342
0.396
1.546
0.0153
0.5222
1.481
0.6066
0.4378
0.3719
0.0006103
0.3808
0.3216
1.103
0.5312
0.6017
0.001487
1.87
0.7086
0.00127
0.2428
0.0005831
0.8948
0.01817
14.35
10.09
0.02543
0.8093
0.6399
0.1041
6.821
1.246
0.01574
1.972
0.4059
0.5653
2.303
0.04026
0.08256
9.913
0.3452
0.7301
0.1539
0.3174
0.1889
0.2477
0.4945
0.001192
0.2698
0.9814
0.3902
0.2702
0.2054
1.295
0.2907
0.3957
1.574
0.3565
0.2125
2.856
0.03123
0.195
3.201
0.22
0.04386
0.2054
0.4514
1.33
0.4792
0.4794
6.574
0.2278
0.8268
0.3557
0.003947
0.3511
2.104
0.2001
1.279
0.03951
1.395
0.1453
0.3531
0.08618
0.1547
2.425
1.103
0.231
0.4868
8.052
0.4379
0.008631
0.01415
0.2206
1.884
1.911
0.3449
0.3123
0.17
0.8034
0.1032
0.1552
15.97
0.1563
0.148
7.186
0.7333
0.275
0.2197
0.06008
119.2
0.01526
0.3022
0.6961
0.5339
0.4898
0.5959
3.133
0.1786
0.747
0.0925
78.49
1.041
0.1989
107.7
6.275
1.338
0.9038
0.003012
0.1458
0.08578
3.758
0.04084
1.593
14.56
0.06813
0.8535
0.2703
0.2842
6.608
0.916
11.35
4.337
0.5356
0.007536
0.007602
0.02473
0.7877
12.93
0.2508
0.0161
0.07735
5.684
0.6546
8.956
0.4395
0.01458
61.12
0.05107
0.1917
0.1714
0.03475
0.2978
0.1755
0.1969
0.06285
2.498
0.2171
0.4795
0.4185
49.21
0.1949
1.426
0.666
0.1608
0.09465
50.41
1.423
4.898
0.4713
0.9215
3.278
3.041
0.09699
0.2953
0.7537
0.5949
1.829
0.002189
12.51
0.2786
5.429
0.2136
0.03431
0.0585
0.01489
0.7518
0.3158
0.4399
0.7199
0.2265
3.394
0.6857
0.2547
0.1411
2.645
0.1131
1.008
1.499
1.255
0.1798
0.06307
0.2767
0.2841
0.5161
0.1286
0.661
1.466
6.123
0.3118
0.291
2.054
0.3812
2.727
0.3246
0.7855
0.1067
6.941
2.165
1.42
0.3093
3.515
0.06247
2.705
1.449
0.4515
0.3592
0.4853
0.8118
0.9778
0.2546
0.423
0.4304
2.28
27.22
0.002998
0.03236
0.01245
0.4863
0.8202
0.4202
4.628
2.159
4.576
2.69
0.5487
2.299
4.102
0.222
1.085
1.74
0.6717
6.179
0.01727
10.26
2.384
2.478
0.08593
2.248
0.49
0.6205
1.41
2.145
0.01554
0.07102
0.6133
2.795
0.00517
0.5741
0.09964
0.4717
313.9
0.001281
0.1966
0.1709
0.7149
0.9065
0.1933
0.5561
1.378
0.7771
2.446
0.908
0.04418
0.2011
13.42
0.02123
0.01724
7.485
3.66
0.4987
0.8318
0.06505
0.5408
1.212
0.8429
2.12
0.5593
0.0366
0.732
0.1701
0.1618
0.01122
0.8033
0.00633
61.14
0.7354
1.174
0.1313
13.47
0.01342
1.383
0.005136
0.1048
4.455
0.2385
8.332
0.154
0.06579
0.5354
0.6777
0.2472
0.4732
0.2842
1.071
2.133
0.7717
1.164
2.193
6.629
1.04
0.4217
0.855
5.903
0.7416
0.4335
0.1713
0.008553
29.36
0.4535
0.6345
11.54
0.01701
2.166
0.1391
0.008262
0.2145
118.3
0.1279
0.9392
17.63
0.06423
1.095
0.8119
0.2161
0.1533
0.4919
16.15
2.336
0.02228
7.807
23.49
0.07561
0.01629
1.118
1.644
0.7953
1.725
0.5908
3.322
0.01738
0.8142
0.1587
3.58
1.535
12.34
0.00829
0.008374
0.1611
1.153
0.03353
0.2324
0.2162
3.949
0.2695
0.4086
1.326
0.08253
0.01828
7.548
2.569
4.581
1.998
0.04121
0.6975
0.002811
0.4878
9.325
0.9123
1.358
4.005
1.01
1.114
1.154
0.5473
0.4713
0.02118
0.01717
0.02001
0.1765
0.8698
0.9707
8.171
0.7271
0.01788
0.7773
1.001
2.146
8.785
0.5826
0.8985
2.008
2.498
0.07958
0.3537
0.2225
1.637
0.07736
2.132
0.2513
0.3732
0.7569
2.186
0.004528
0.01519
4.048
0.2667
0.1681
0.3061
9.629
0.4652
0.004909
0.4559
0.3719
0.5574
0.4472
1.682
0.7927
1.133
5.561
0.09356
0.0005932
0.5001
0.05818
0.1122
0.06662
8.69
0.2397
1.66
0.3146
0.3352
0.7457
0.0249
1.584
1.49
0.4364
0.3222
1.933
15.73
0.03245
0.01654
1.939
0.3792
0.5513
0.2471
0.1233
1.37
0.04839
0.02924
0.6415
3.088
0.01979
1.261
0.9988
0.01324
4.46
0.03622
0.4089
0.4455
2.201
0.2033
14.65
1.517
0.4402
0.0367
0.01543
0.2499
0.3215
0.4011
0.1989
0.007323
0.007089
0.02053
0.5928
0.5262
1.717
0.0007054
1.326
0.2992
1.133
0.4783
2.918
0.1378
0.03263
3.192
0.0177
5.263
0.706
0.0307
0.605
0.464
1.672
0.7245
0.5199
0.2125